Protein in water t=   0.00000 step= 0
325732
    1DG5    H5T    1   7.022   8.407   4.651
    1DG5    O5'    2   6.988   8.464   4.582
    1DG5    C5'    3   7.056   8.593   4.596
    1DG5   H5'1    4   7.059   8.654   4.506
    1DG5   H5'2    5   7.163   8.573   4.603
    1DG5    C4'    6   7.007   8.680   4.716
    1DG5    H4'    7   7.059   8.776   4.715
    1DG5    O4'    8   6.868   8.704   4.704
    1DG5    C1'    9   6.808   8.672   4.826
    1DG5    H1'   10   6.809   8.763   4.886
    1DG5     N9   11   6.665   8.627   4.806
    1DG5     C8   12   6.612   8.506   4.805
    1DG5     H8   13   6.662   8.411   4.817
    1DG5     N7   14   6.478   8.510   4.810
    1DG5     C5   15   6.446   8.643   4.816
    1DG5     C6   16   6.321   8.714   4.816
    1DG5     O6   17   6.209   8.668   4.802
    1DG5     N1   18   6.330   8.849   4.853
    1DG5     H1   19   6.245   8.901   4.865
    1DG5     C2   20   6.448   8.909   4.860
    1DG5     N2   21   6.453   9.036   4.881
    1DG5    H21   22   6.372   9.078   4.925
    1DG5    H22   23   6.546   9.075   4.892
    1DG5     N3   24   6.566   8.852   4.845
    1DG5     C4   25   6.563   8.716   4.822
    1DG5    C3'   26   7.031   8.615   4.852
    1DG5    H3'   27   7.099   8.531   4.844
    1DG5    C2'   28   6.891   8.561   4.886
    1DG5   H2'1   29   6.873   8.472   4.827
    1DG5   H2'2   30   6.863   8.549   4.991
    1DG5    O3'   31   7.067   8.719   4.935
    2DC       P   32   7.184   8.710   5.045
    2DC     O1P   33   7.317   8.752   4.991
    2DC     O2P   34   7.168   8.581   5.109
    2DC     O5'   35   7.158   8.813   5.159
    2DC     C5'   36   7.162   8.953   5.132
    2DC    H5'1   37   7.172   8.967   5.024
    2DC    H5'2   38   7.244   8.998   5.188
    2DC     C4'   39   7.040   9.024   5.185
    2DC     H4'   40   7.035   9.126   5.149
    2DC     O4'   41   6.915   8.972   5.138
    2DC     C1'   42   6.816   8.971   5.247
    2DC     H1'   43   6.770   9.068   5.266
    2DC      N1   44   6.698   8.882   5.207
    2DC      C6   45   6.721   8.750   5.196
    2DC      H6   46   6.826   8.725   5.206
    2DC      C5   47   6.616   8.657   5.187
    2DC      H5   48   6.635   8.551   5.180
    2DC      C4   49   6.486   8.712   5.166
    2DC      N4   50   6.384   8.638   5.149
    2DC     H41   51   6.295   8.685   5.134
    2DC     H42   52   6.392   8.538   5.152
    2DC      N3   53   6.464   8.844   5.175
    2DC      C2   54   6.567   8.926   5.198
    2DC      O2   55   6.538   9.045   5.217
    2DC     C3'   56   7.026   9.011   5.338
    2DC     H3'   57   7.109   8.958   5.387
    2DC     C2'   58   6.892   8.943   5.369
    2DC    H2'1   59   6.893   8.835   5.386
    2DC    H2'2   60   6.840   8.985   5.455
    2DC     O3'   61   7.022   9.137   5.386
    3DA       P   62   7.025   9.159   5.548
    3DA     O1P   63   7.111   9.279   5.579
    3DA     O2P   64   7.049   9.028   5.615
    3DA     O5'   65   6.874   9.195   5.581
    3DA     C5'   66   6.807   9.314   5.528
    3DA    H5'1   67   6.786   9.295   5.423
    3DA    H5'2   68   6.853   9.412   5.543
    3DA     C4'   69   6.672   9.330   5.598
    3DA     H4'   70   6.634   9.426   5.562
    3DA     O4'   71   6.579   9.232   5.551
    3DA     C1'   72   6.526   9.166   5.659
    3DA     H1'   73   6.425   9.203   5.681
    3DA      N9   74   6.511   9.025   5.614
    3DA      C8   75   6.611   8.930   5.594
    3DA      H8   76   6.713   8.953   5.621
    3DA      N7   77   6.569   8.808   5.572
    3DA      C5   78   6.433   8.826   5.559
    3DA      C6   79   6.319   8.745   5.532
    3DA      N6   80   6.320   8.610   5.518
    3DA     H61   81   6.235   8.565   5.486
    3DA     H62   82   6.395   8.552   5.554
    3DA      N1   83   6.195   8.791   5.526
    3DA      C2   84   6.174   8.916   5.553
    3DA      H2   85   6.073   8.950   5.537
    3DA      N3   86   6.263   9.006   5.592
    3DA      C4   87   6.394   8.955   5.588
    3DA     C3'   88   6.680   9.329   5.756
    3DA     H3'   89   6.780   9.344   5.795
    3DA     C2'   90   6.623   9.191   5.779
    3DA    H2'1   91   6.706   9.121   5.787
    3DA    H2'2   92   6.571   9.184   5.874
    3DA     O3'   93   6.592   9.437   5.807
    4DT       P   94   6.562   9.449   5.966
    4DT     O1P   95   6.555   9.591   5.996
    4DT     O2P   96   6.662   9.364   6.039
    4DT     O5'   97   6.420   9.380   5.986
    4DT     C5'   98   6.313   9.426   5.901
    4DT    H5'1   99   6.342   9.428   5.795
    4DT    H5'2  100   6.285   9.529   5.921
    4DT     C4'  101   6.197   9.332   5.924
    4DT     H4'  102   6.116   9.376   5.865
    4DT     O4'  103   6.233   9.200   5.883
    4DT     C1'  104   6.159   9.111   5.963
    4DT     H1'  105   6.052   9.110   5.941
    4DT      N1  106   6.211   8.975   5.943
    4DT      C6  107   6.341   8.942   5.971
    4DT      H6  108   6.397   9.026   6.009
    4DT      C5  109   6.393   8.824   5.943
    4DT      C7  110   6.540   8.803   5.959
    4DT     H71  111   6.577   8.776   5.860
    4DT     H72  112   6.589   8.893   5.997
    4DT     H73  113   6.561   8.718   6.024
    4DT      C4  114   6.313   8.716   5.894
    4DT      O4  115   6.346   8.602   5.884
    4DT      N3  116   6.183   8.752   5.871
    4DT      H3  117   6.132   8.669   5.846
    4DT      C2  118   6.128   8.878   5.894
    4DT      O2  119   6.015   8.903   5.864
    4DT     C3'  120   6.155   9.316   6.071
    4DT     H3'  121   6.226   9.363   6.139
    4DT     C2'  122   6.165   9.169   6.097
    4DT    H2'1  123   6.258   9.139   6.144
    4DT    H2'2  124   6.084   9.123   6.154
    4DT     O3'  125   6.029   9.375   6.082
    5DG       P  126   5.954   9.399   6.219
    5DG     O1P  127   5.869   9.518   6.200
    5DG     O2P  128   6.043   9.401   6.331
    5DG     O5'  129   5.865   9.261   6.229
    5DG     C5'  130   5.856   9.191   6.357
    5DG    H5'1  131   5.785   9.244   6.420
    5DG    H5'2  132   5.950   9.164   6.404
    5DG     C4'  133   5.790   9.061   6.336
    5DG     H4'  134   5.691   9.078   6.295
    5DG     O4'  135   5.871   8.976   6.255
    5DG     C1'  136   5.873   8.850   6.312
    5DG     H1'  137   5.779   8.799   6.291
    5DG      N9  138   5.988   8.768   6.261
    5DG      C8  139   6.122   8.801   6.264
    5DG      H8  140   6.163   8.895   6.297
    5DG      N7  141   6.201   8.706   6.221
    5DG      C5  142   6.117   8.598   6.202
    5DG      C6  143   6.141   8.463   6.154
    5DG      O6  144   6.248   8.414   6.133
    5DG      N1  145   6.028   8.389   6.153
    5DG      H1  146   6.039   8.294   6.120
    5DG      C2  147   5.902   8.427   6.191
    5DG      N2  148   5.809   8.336   6.192
    5DG     H21  149   5.835   8.242   6.166
    5DG     H22  150   5.716   8.361   6.221
    5DG      N3  151   5.873   8.550   6.234
    5DG      C4  152   5.984   8.632   6.238
    5DG     C3'  153   5.772   8.993   6.474
    5DG     H3'  154   5.804   9.047   6.563
    5DG     C2'  155   5.869   8.880   6.461
    5DG    H2'1  156   5.965   8.919   6.494
    5DG    H2'2  157   5.843   8.790   6.517
    5DG     O3'  158   5.642   8.938   6.479
    6DT       P  159   5.579   8.866   6.608
    6DT     O1P  160   5.440   8.901   6.624
    6DT     O2P  161   5.672   8.904   6.721
    6DT     O5'  162   5.579   8.712   6.578
    6DT     C5'  163   5.517   8.670   6.453
    6DT    H5'1  164   5.581   8.693   6.368
    6DT    H5'2  165   5.431   8.734   6.431
    6DT     C4'  166   5.474   8.522   6.447
    6DT     H4'  167   5.390   8.521   6.378
    6DT     O4'  168   5.570   8.433   6.389
    6DT     C1'  169   5.630   8.362   6.501
    6DT     H1'  170   5.611   8.258   6.473
    6DT      N1  171   5.776   8.374   6.520
    6DT      C6  172   5.837   8.483   6.570
    6DT      H6  173   5.777   8.569   6.598
    6DT      C5  174   5.970   8.501   6.561
    6DT      C7  175   6.041   8.613   6.636
    6DT     H71  176   6.101   8.670   6.565
    6DT     H72  177   5.960   8.683   6.660
    6DT     H73  178   6.091   8.576   6.725
    6DT      C4  179   6.051   8.397   6.499
    6DT      O4  180   6.175   8.389   6.485
    6DT      N3  181   5.983   8.290   6.460
    6DT      H3  182   6.038   8.212   6.427
    6DT      C2  183   5.853   8.266   6.481
    6DT      O2  184   5.806   8.160   6.451
    6DT     C3'  185   5.424   8.471   6.577
    6DT     H3'  186   5.410   8.559   6.640
    6DT     C2'  187   5.549   8.395   6.626
    6DT    H2'1  188   5.603   8.462   6.693
    6DT    H2'2  189   5.537   8.298   6.674
    6DT     O3'  190   5.308   8.393   6.560
    7DG       P  191   5.224   8.343   6.694
    7DG     O1P  192   5.085   8.312   6.654
    7DG     O2P  193   5.244   8.432   6.808
    7DG     O5'  194   5.289   8.200   6.742
    7DG     C5'  195   5.319   8.095   6.658
    7DG    H5'1  196   5.363   8.131   6.564
    7DG    H5'2  197   5.226   8.044   6.631
    7DG     C4'  198   5.427   8.006   6.712
    7DG     H4'  199   5.409   7.908   6.669
    7DG     O4'  200   5.560   8.049   6.688
    7DG     C1'  201   5.636   8.034   6.805
    7DG     H1'  202   5.675   7.934   6.821
    7DG      N9  203   5.756   8.123   6.808
    7DG      C8  204   5.779   8.256   6.855
    7DG      H8  205   5.695   8.310   6.894
    7DG      N7  206   5.895   8.305   6.843
    7DG      C5  207   5.967   8.198   6.791
    7DG      C6  208   6.111   8.181   6.764
    7DG      O6  209   6.202   8.262   6.779
    7DG      N1  210   6.146   8.056   6.722
    7DG      H1  211   6.242   8.033   6.701
    7DG      C2  212   6.057   7.957   6.705
    7DG      N2  213   6.107   7.839   6.670
    7DG     H21  214   6.207   7.835   6.661
    7DG     H22  215   6.044   7.766   6.637
    7DG      N3  216   5.927   7.966   6.736
    7DG      C4  217   5.885   8.087   6.771
    7DG     C3'  218   5.424   7.977   6.863
    7DG     H3'  219   5.332   8.018   6.906
    7DG     C2'  220   5.538   8.060   6.912
    7DG    H2'1  221   5.519   8.166   6.899
    7DG    H2'2  222   5.567   8.030   7.013
    7DG     O3'  223   5.453   7.843   6.889
    8DC       P  224   5.338   7.738   6.899
    8DC     O1P  225   5.253   7.752   6.784
    8DC     O2P  226   5.277   7.750   7.036
    8DC     O5'  227   5.406   7.596   6.887
    8DC     C5'  228   5.464   7.532   6.996
    8DC    H5'1  229   5.416   7.438   7.023
    8DC    H5'2  230   5.470   7.594   7.086
    8DC     C4'  231   5.602   7.483   6.959
    8DC     H4'  232   5.606   7.406   6.882
    8DC     O4'  233   5.685   7.589   6.924
    8DC     C1'  234   5.810   7.580   6.999
    8DC     H1'  235   5.876   7.521   6.935
    8DC      N1  236   5.862   7.711   7.025
    8DC      C6  237   5.789   7.828   7.039
    8DC      H6  238   5.682   7.820   7.025
    8DC      C5  239   5.853   7.941   7.071
    8DC      H5  240   5.796   8.030   7.093
    8DC      C4  241   5.995   7.938   7.079
    8DC      N4  242   6.062   8.049   7.111
    8DC     H41  243   6.162   8.050   7.100
    8DC     H42  244   6.010   8.132   7.137
    8DC      N3  245   6.062   7.833   7.048
    8DC      C2  246   5.996   7.716   7.038
    8DC      O2  247   6.066   7.618   7.034
    8DC     C3'  248   5.657   7.411   7.084
    8DC     H3'  249   5.582   7.409   7.162
    8DC     C2'  250   5.773   7.503   7.125
    8DC    H2'1  251   5.737   7.566   7.206
    8DC    H2'2  252   5.860   7.442   7.152
    8DC     O3'  253   5.702   7.281   7.062
    9DG       P  254   5.725   7.195   7.198
    9DG     O1P  255   5.694   7.059   7.151
    9DG     O2P  256   5.634   7.250   7.307
    9DG     O5'  257   5.870   7.195   7.250
    9DG     C5'  258   5.968   7.115   7.187
    9DG    H5'1  259   5.930   7.012   7.187
    9DG    H5'2  260   5.966   7.141   7.082
    9DG     C4'  261   6.115   7.124   7.237
    9DG     H4'  262   6.169   7.048   7.181
    9DG     O4'  263   6.171   7.258   7.228
    9DG     C1'  264   6.166   7.312   7.363
    9DG     H1'  265   6.271   7.314   7.393
    9DG      N9  266   6.108   7.452   7.373
    9DG      C8  267   5.975   7.490   7.384
    9DG      H8  268   5.891   7.422   7.387
    9DG      N7  269   5.968   7.621   7.400
    9DG      C5  270   6.104   7.670   7.382
    9DG      C6  271   6.161   7.801   7.391
    9DG      O6  272   6.106   7.910   7.415
    9DG      N1  273   6.297   7.808   7.358
    9DG      H1  274   6.342   7.898   7.364
    9DG      C2  275   6.372   7.694   7.354
    9DG      N2  276   6.499   7.722   7.329
    9DG     H21  277   6.538   7.815   7.325
    9DG     H22  278   6.560   7.646   7.303
    9DG      N3  279   6.322   7.573   7.366
    9DG      C4  280   6.186   7.566   7.371
    9DG     C3'  281   6.125   7.080   7.388
    9DG     H3'  282   6.046   7.006   7.400
    9DG     C2'  283   6.102   7.214   7.460
    9DG    H2'1  284   5.994   7.231   7.462
    9DG    H2'2  285   6.146   7.218   7.560
    9DG     O3'  286   6.258   7.031   7.406
   10DT       P  287   6.320   6.970   7.540
   10DT     O1P  288   6.413   6.853   7.500
   10DT     O2P  289   6.219   6.948   7.641
   10DT     O5'  290   6.413   7.101   7.577
   10DT     C5'  291   6.526   7.123   7.498
   10DT    H5'1  292   6.499   7.152   7.396
   10DT    H5'2  293   6.594   7.038   7.505
   10DT     C4'  294   6.602   7.239   7.552
   10DT     H4'  295   6.689   7.245   7.488
   10DT     O4'  296   6.523   7.360   7.555
   10DT     C1'  297   6.519   7.412   7.688
   10DT     H1'  298   6.611   7.467   7.703
   10DT      N1  299   6.404   7.506   7.703
   10DT      C6  300   6.276   7.457   7.728
   10DT      H6  301   6.274   7.350   7.743
   10DT      C5  302   6.170   7.537   7.742
   10DT      C7  303   6.036   7.470   7.780
   10DT     H71  304   5.958   7.485   7.706
   10DT     H72  305   6.032   7.362   7.796
   10DT     H73  306   6.003   7.514   7.874
   10DT      C4  307   6.194   7.679   7.730
   10DT      O4  308   6.099   7.758   7.732
   10DT      N3  309   6.318   7.726   7.701
   10DT      H3  310   6.337   7.823   7.681
   10DT      C2  311   6.427   7.641   7.683
   10DT      O2  312   6.540   7.684   7.651
   10DT     C3'  313   6.646   7.221   7.700
   10DT     H3'  314   6.645   7.114   7.720
   10DT     C2'  315   6.542   7.298   7.785
   10DT    H2'1  316   6.452   7.241   7.808
   10DT    H2'2  317   6.579   7.336   7.881
   10DT     O3'  318   6.781   7.271   7.712
   11DA       P  319   6.868   7.245   7.841
   11DA     O1P  320   6.998   7.213   7.779
   11DA     O2P  321   6.806   7.140   7.919
   11DA     O5'  322   6.870   7.381   7.925
   11DA     C5'  323   6.986   7.466   7.928
   11DA    H5'1  324   7.030   7.495   7.833
   11DA    H5'2  325   7.069   7.416   7.977
   11DA     C4'  326   6.939   7.593   8.006
   11DA     H4'  327   7.013   7.672   8.002
   11DA     O4'  328   6.812   7.641   7.959
   11DA     C1'  329   6.744   7.705   8.063
   11DA     H1'  330   6.781   7.806   8.081
   11DA      N9  331   6.603   7.716   8.036
   11DA      C8  332   6.519   7.615   8.005
   11DA      H8  333   6.551   7.515   7.982
   11DA      N7  334   6.396   7.652   8.020
   11DA      C5  335   6.393   7.791   8.040
   11DA      C6  336   6.295   7.896   8.052
   11DA      N6  337   6.160   7.887   8.051
   11DA     H61  338   6.112   7.975   8.054
   11DA     H62  339   6.118   7.795   8.049
   11DA      N1  340   6.343   8.019   8.058
   11DA      C2  341   6.472   8.043   8.064
   11DA      H2  342   6.498   8.147   8.076
   11DA      N3  343   6.567   7.956   8.067
   11DA      C4  344   6.524   7.829   8.053
   11DA     C3'  345   6.916   7.551   8.157
   11DA     H3'  346   6.901   7.444   8.169
   11DA     C2'  347   6.780   7.610   8.183
   11DA    H2'1  348   6.704   7.531   8.180
   11DA    H2'2  349   6.775   7.667   8.276
   11DA     O3'  350   7.032   7.592   8.234
   12DT       P  351   7.028   7.616   8.395
   12DT     O1P  352   7.161   7.622   8.452
   12DT     O2P  353   6.929   7.519   8.451
   12DT     O5'  354   6.974   7.769   8.394
   12DT     C5'  355   7.055   7.871   8.337
   12DT    H5'1  356   7.073   7.855   8.231
   12DT    H5'2  357   7.158   7.855   8.370
   12DT     C4'  358   7.019   8.011   8.379
   12DT     H4'  359   7.090   8.078   8.330
   12DT     O4'  360   6.885   8.051   8.329
   12DT     C1'  361   6.794   8.069   8.438
   12DT     H1'  362   6.785   8.178   8.446
   12DT      N1  363   6.655   8.011   8.422
   12DT      C6  364   6.635   7.878   8.426
   12DT      H6  365   6.725   7.818   8.426
   12DT      C5  366   6.511   7.828   8.399
   12DT      C7  367   6.498   7.677   8.396
   12DT     H71  368   6.429   7.648   8.475
   12DT     H72  369   6.459   7.637   8.303
   12DT     H73  370   6.592   7.631   8.427
   12DT      C4  371   6.390   7.915   8.380
   12DT      O4  372   6.270   7.881   8.380
   12DT      N3  373   6.425   8.045   8.384
   12DT      H3  374   6.356   8.113   8.355
   12DT      C2  375   6.547   8.099   8.395
   12DT      O2  376   6.569   8.214   8.384
   12DT     C3'  377   7.015   8.032   8.533
   12DT     H3'  378   7.067   7.955   8.591
   12DT     C2'  379   6.862   8.028   8.567
   12DT    H2'1  380   6.830   7.927   8.591
   12DT    H2'2  381   6.844   8.091   8.654
   12DT     O3'  382   7.085   8.155   8.553
   13DG       P  383   7.135   8.203   8.697
   13DG     O1P  384   7.224   8.319   8.673
   13DG     O2P  385   7.181   8.078   8.771
   13DG     O5'  386   7.005   8.257   8.770
   13DG     C5'  387   6.968   8.391   8.756
   13DG    H5'1  388   6.970   8.413   8.649
   13DG    H5'2  389   7.037   8.457   8.809
   13DG     C4'  390   6.829   8.424   8.816
   13DG     H4'  391   6.806   8.529   8.803
   13DG     O4'  392   6.737   8.346   8.750
   13DG     C1'  393   6.632   8.296   8.833
   13DG     H1'  394   6.571   8.383   8.858
   13DG      N9  395   6.553   8.180   8.775
   13DG      C8  396   6.576   8.043   8.771
   13DG      H8  397   6.672   8.008   8.804
   13DG      N7  398   6.470   7.972   8.737
   13DG      C5  399   6.373   8.067   8.709
   13DG      C6  400   6.230   8.050   8.684
   13DG      O6  401   6.172   7.940   8.664
   13DG      N1  402   6.153   8.168   8.693
   13DG      H1  403   6.053   8.163   8.706
   13DG      C2  404   6.210   8.293   8.720
   13DG      N2  405   6.127   8.390   8.737
   13DG     H21  406   6.030   8.372   8.713
   13DG     H22  407   6.163   8.482   8.755
   13DG      N3  408   6.346   8.310   8.730
   13DG      C4  409   6.419   8.194   8.727
   13DG     C3'  410   6.813   8.388   8.962
   13DG     H3'  411   6.909   8.359   9.003
   13DG     C2'  412   6.715   8.263   8.958
   13DG    H2'1  413   6.784   8.181   8.940
   13DG    H2'2  414   6.655   8.251   9.048
   13DG     O3'  415   6.757   8.505   9.023
   14DC       P  416   6.774   8.537   9.178
   14DC     O1P  417   6.884   8.633   9.193
   14DC     O2P  418   6.770   8.411   9.257
   14DC     O5'  419   6.648   8.628   9.220
   14DC     C5'  420   6.602   8.744   9.138
   14DC    H5'1  421   6.640   8.741   9.036
   14DC    H5'2  422   6.638   8.835   9.186
   14DC     C4'  423   6.451   8.752   9.135
   14DC     H4'  424   6.416   8.843   9.087
   14DC     O4'  425   6.410   8.648   9.048
   14DC     C1'  426   6.279   8.602   9.087
   14DC     H1'  427   6.206   8.626   9.010
   14DC      N1  428   6.279   8.461   9.117
   14DC      C6  429   6.393   8.390   9.145
   14DC      H6  430   6.489   8.436   9.163
   14DC      C5  431   6.394   8.253   9.128
   14DC      H5  432   6.484   8.193   9.134
   14DC      C4  433   6.274   8.187   9.091
   14DC      N4  434   6.256   8.059   9.073
   14DC     H41  435   6.162   8.035   9.046
   14DC     H42  436   6.342   8.008   9.066
   14DC      N3  437   6.162   8.255   9.079
   14DC      C2  438   6.165   8.388   9.093
   14DC      O2  439   6.053   8.441   9.086
   14DC     C3'  440   6.373   8.725   9.266
   14DC     H3'  441   6.408   8.639   9.322
   14DC     C2'  442   6.238   8.688   9.209
   14DC    H2'1  443   6.182   8.626   9.279
   14DC    H2'2  444   6.175   8.776   9.199
   14DC     O3'  445   6.391   8.846   9.338
   15DG       P  446   6.348   8.850   9.492
   15DG     O1P  447   6.367   8.987   9.536
   15DG     O2P  448   6.419   8.737   9.564
   15DG     O5'  449   6.184   8.823   9.508
   15DG     C5'  450   6.085   8.914   9.456
   15DG    H5'1  451   6.077   9.005   9.516
   15DG    H5'2  452   6.124   8.927   9.355
   15DG     C4'  453   5.940   8.866   9.450
   15DG     H4'  454   5.882   8.937   9.392
   15DG     O4'  455   5.939   8.738   9.385
   15DG     C1'  456   5.905   8.646   9.487
   15DG     H1'  457   5.801   8.621   9.466
   15DG      N9  458   5.992   8.524   9.474
   15DG      C8  459   6.128   8.515   9.488
   15DG      H8  460   6.188   8.597   9.527
   15DG      N7  461   6.166   8.391   9.474
   15DG      C5  462   6.055   8.320   9.431
   15DG      C6  463   6.039   8.182   9.398
   15DG      O6  464   6.121   8.090   9.402
   15DG      N1  465   5.911   8.146   9.360
   15DG      H1  466   5.898   8.051   9.329
   15DG      C2  467   5.808   8.242   9.357
   15DG      N2  468   5.699   8.204   9.303
   15DG     H21  469   5.680   8.109   9.274
   15DG     H22  470   5.632   8.278   9.290
   15DG      N3  471   5.826   8.369   9.388
   15DG      C4  472   5.952   8.405   9.427
   15DG     C3'  473   5.882   8.845   9.589
   15DG     H3'  474   5.930   8.912   9.660
   15DG     C2'  475   5.914   8.709   9.623
   15DG    H2'1  476   6.015   8.708   9.664
   15DG    H2'2  477   5.841   8.671   9.694
   15DG     O3'  478   5.744   8.879   9.595
   16DT3      P  479   5.663   8.875   9.730
   16DT3    O1P  480   5.561   8.976   9.694
   16DT3    O2P  481   5.744   8.895   9.852
   16DT3    O5'  482   5.593   8.737   9.725
   16DT3    C5'  483   5.508   8.689   9.621
   16DT3   H5'1  484   5.574   8.684   9.535
   16DT3   H5'2  485   5.419   8.752   9.613
   16DT3    C4'  486   5.455   8.549   9.639
   16DT3    H4'  487   5.376   8.526   9.568
   16DT3    O4'  488   5.564   8.457   9.612
   16DT3    C1'  489   5.551   8.351   9.706
   16DT3    H1'  490   5.488   8.276   9.658
   16DT3     N1  491   5.687   8.297   9.736
   16DT3     C6  492   5.783   8.373   9.798
   16DT3     H6  493   5.750   8.469   9.836
   16DT3     C5  494   5.913   8.342   9.792
   16DT3     C7  495   6.016   8.446   9.852
   16DT3    H71  496   6.081   8.468   9.768
   16DT3    H72  497   5.958   8.530   9.892
   16DT3    H73  498   6.071   8.411   9.940
   16DT3     C4  499   5.961   8.212   9.748
   16DT3     O4  500   6.073   8.166   9.747
   16DT3     N3  501   5.863   8.136   9.687
   16DT3     H3  502   5.884   8.048   9.643
   16DT3     C2  503   5.729   8.178   9.677
   16DT3     O2  504   5.648   8.095   9.630
   16DT3    C3'  505   5.402   8.526   9.780
   16DT3    H3'  506   5.412   8.613   9.845
   16DT3    C2'  507   5.477   8.406   9.835
   16DT3   H2'1  508   5.546   8.432   9.915
   16DT3   H2'2  509   5.404   8.333   9.871
   16DT3    O3'  510   5.263   8.480   9.778
   16DT3    H3T  511   5.235   8.486   9.869
   17DC5    H5T  512   3.112   7.007  14.020
   17DC5    O5'  513   3.087   7.076  14.081
   17DC5    C5'  514   3.154   7.062  14.205
   17DC5   H5'1  515   3.086   7.015  14.275
   17DC5   H5'2  516   3.175   7.163  14.237
   17DC5    C4'  517   3.281   6.976  14.198
   17DC5    H4'  518   3.326   6.975  14.297
   17DC5    O4'  519   3.246   6.844  14.157
   17DC5    C1'  520   3.331   6.810  14.044
   17DC5    H1'  521   3.424   6.774  14.087
   17DC5     N1  522   3.272   6.713  13.953
   17DC5     C6  523   3.182   6.744  13.855
   17DC5     H6  524   3.149   6.847  13.845
   17DC5     C5  525   3.136   6.650  13.770
   17DC5     H5  526   3.071   6.666  13.685
   17DC5     C4  527   3.189   6.519  13.787
   17DC5     N4  528   3.146   6.427  13.709
   17DC5    H41  529   3.206   6.346  13.704
   17DC5    H42  530   3.069   6.444  13.646
   17DC5     N3  531   3.288   6.486  13.870
   17DC5     C2  532   3.340   6.592  13.950
   17DC5     O2  533   3.435   6.563  14.020
   17DC5    C3'  534   3.380   7.029  14.099
   17DC5    H3'  535   3.351   7.129  14.066
   17DC5    C2'  536   3.374   6.942  13.974
   17DC5   H2'1  537   3.296   6.977  13.906
   17DC5   H2'2  538   3.470   6.934  13.925
   17DC5    O3'  539   3.514   7.014  14.142
   18DG       P  540   3.621   7.134  14.147
   18DG     O1P  541   3.613   7.189  14.277
   18DG     O2P  542   3.597   7.223  14.029
   18DG     O5'  543   3.752   7.044  14.128
   18DG     C5'  544   3.814   6.981  14.240
   18DG    H5'1  545   3.746   6.918  14.297
   18DG    H5'2  546   3.853   7.059  14.306
   18DG     C4'  547   3.937   6.891  14.212
   18DG     H4'  548   3.989   6.874  14.306
   18DG     O4'  549   3.899   6.770  14.157
   18DG     C1'  550   3.942   6.771  14.021
   18DG     H1'  551   4.023   6.698  14.013
   18DG      N9  552   3.835   6.733  13.936
   18DG      C8  553   3.724   6.801  13.892
   18DG      H8  554   3.703   6.899  13.932
   18DG      N7  555   3.646   6.736  13.810
   18DG      C5  556   3.715   6.614  13.801
   18DG      C6  557   3.686   6.491  13.726
   18DG      O6  558   3.578   6.483  13.659
   18DG      N1  559   3.783   6.389  13.741
   18DG      H1  560   3.764   6.305  13.688
   18DG      C2  561   3.889   6.398  13.816
   18DG      N2  562   3.981   6.302  13.825
   18DG     H21  563   3.951   6.211  13.791
   18DG     H22  564   4.064   6.318  13.881
   18DG      N3  565   3.924   6.507  13.881
   18DG      C4  566   3.830   6.611  13.873
   18DG     C3'  567   4.038   6.967  14.122
   18DG     H3'  568   4.017   7.074  14.118
   18DG     C2'  569   4.009   6.902  13.985
   18DG    H2'1  570   3.932   6.959  13.932
   18DG    H2'2  571   4.095   6.886  13.921
   18DG     O3'  572   4.168   6.931  14.162
   19DC       P  573   4.297   7.022  14.139
   19DC     O1P  574   4.392   6.993  14.244
   19DC     O2P  575   4.263   7.161  14.106
   19DC     O5'  576   4.349   6.952  14.005
   19DC     C5'  577   4.387   6.812  14.008
   19DC    H5'1  578   4.326   6.762  14.083
   19DC    H5'2  579   4.492   6.801  14.033
   19DC     C4'  580   4.381   6.745  13.871
   19DC     H4'  581   4.443   6.655  13.877
   19DC     O4'  582   4.247   6.704  13.824
   19DC     C1'  583   4.234   6.752  13.692
   19DC     H1'  584   4.280   6.677  13.628
   19DC      N1  585   4.095   6.772  13.647
   19DC      C6  586   4.021   6.888  13.652
   19DC      H6  587   4.066   6.976  13.696
   19DC      C5  588   3.892   6.900  13.609
   19DC      H5  589   3.838   6.993  13.618
   19DC      C4  590   3.837   6.784  13.544
   19DC      N4  591   3.714   6.791  13.503
   19DC     H41  592   3.664   6.706  13.479
   19DC     H42  593   3.667   6.880  13.510
   19DC      N3  594   3.904   6.666  13.533
   19DC      C2  595   4.031   6.663  13.579
   19DC      O2  596   4.088   6.555  13.559
   19DC     C3'  597   4.444   6.836  13.765
   19DC     H3'  598   4.499   6.923  13.801
   19DC     C2'  599   4.321   6.881  13.691
   19DC    H2'1  600   4.273   6.969  13.734
   19DC    H2'2  601   4.350   6.898  13.587
   19DC     O3'  602   4.524   6.764  13.670
   20DA       P  603   4.683   6.771  13.683
   20DA     O1P  604   4.721   6.738  13.821
   20DA     O2P  605   4.740   6.893  13.626
   20DA     O5'  606   4.716   6.644  13.587
   20DA     C5'  607   4.718   6.512  13.650
   20DA    H5'1  608   4.815   6.498  13.696
   20DA    H5'2  609   4.635   6.487  13.716
   20DA     C4'  610   4.703   6.411  13.533
   20DA     H4'  611   4.729   6.316  13.581
   20DA     O4'  612   4.567   6.401  13.489
   20DA     C1'  613   4.560   6.447  13.363
   20DA     H1'  614   4.527   6.360  13.305
   20DA      N9  615   4.458   6.560  13.350
   20DA      C8  616   4.469   6.691  13.372
   20DA      H8  617   4.561   6.729  13.414
   20DA      N7  618   4.358   6.763  13.358
   20DA      C5  619   4.270   6.666  13.309
   20DA      C6  620   4.141   6.670  13.253
   20DA      N6  621   4.064   6.775  13.253
   20DA     H61  622   3.978   6.760  13.201
   20DA     H62  623   4.089   6.865  13.290
   20DA      N1  624   4.086   6.561  13.197
   20DA      C2  625   4.158   6.449  13.207
   20DA      H2  626   4.121   6.359  13.161
   20DA      N3  627   4.285   6.429  13.261
   20DA      C4  628   4.329   6.546  13.309
   20DA     C3'  629   4.794   6.422  13.410
   20DA     H3'  630   4.878   6.489  13.430
   20DA     C2'  631   4.698   6.487  13.314
   20DA    H2'1  632   4.713   6.595  13.324
   20DA    H2'2  633   4.721   6.454  13.213
   20DA     O3'  634   4.847   6.287  13.379
   21DC       P  635   4.935   6.261  13.253
   21DC     O1P  636   4.993   6.126  13.258
   21DC     O2P  637   5.028   6.379  13.235
   21DC     O5'  638   4.839   6.268  13.123
   21DC     C5'  639   4.720   6.188  13.101
   21DC    H5'1  640   4.666   6.186  13.195
   21DC    H5'2  641   4.743   6.084  13.081
   21DC     C4'  642   4.620   6.238  12.991
   21DC     H4'  643   4.554   6.154  12.968
   21DC     O4'  644   4.537   6.349  13.034
   21DC     C1'  645   4.536   6.447  12.931
   21DC     H1'  646   4.477   6.416  12.845
   21DC      N1  647   4.480   6.577  12.979
   21DC      C6  648   4.562   6.673  13.042
   21DC      H6  649   4.661   6.648  13.074
   21DC      C5  650   4.506   6.791  13.078
   21DC      H5  651   4.564   6.866  13.129
   21DC      C4  652   4.371   6.812  13.035
   21DC      N4  653   4.319   6.929  13.050
   21DC     H41  654   4.219   6.931  13.033
   21DC     H42  655   4.370   6.998  13.102
   21DC      N3  656   4.290   6.719  12.988
   21DC      C2  657   4.348   6.605  12.952
   21DC      O2  658   4.274   6.520  12.899
   21DC     C3'  659   4.696   6.293  12.866
   21DC     H3'  660   4.802   6.266  12.868
   21DC     C2'  661   4.687   6.447  12.883
   21DC    H2'1  662   4.758   6.481  12.958
   21DC    H2'2  663   4.700   6.496  12.787
   21DC     O3'  664   4.634   6.243  12.744
   22DG       P  665   4.671   6.097  12.685
   22DG     O1P  666   4.620   5.988  12.768
   22DG     O2P  667   4.808   6.101  12.632
   22DG     O5'  668   4.573   6.111  12.555
   22DG     C5'  669   4.433   6.068  12.564
   22DG    H5'1  670   4.395   6.094  12.662
   22DG    H5'2  671   4.428   5.960  12.554
   22DG     C4'  672   4.340   6.149  12.479
   22DG     H4'  673   4.245   6.100  12.458
   22DG     O4'  674   4.303   6.278  12.545
   22DG     C1'  675   4.325   6.385  12.459
   22DG     H1'  676   4.243   6.392  12.389
   22DG      N9  677   4.353   6.506  12.544
   22DG      C8  678   4.464   6.531  12.618
   22DG      H8  679   4.537   6.452  12.625
   22DG      N7  680   4.479   6.657  12.656
   22DG      C5  681   4.357   6.710  12.612
   22DG      C6  682   4.300   6.839  12.639
   22DG      O6  683   4.337   6.937  12.708
   22DG      N1  684   4.187   6.864  12.559
   22DG      H1  685   4.155   6.960  12.554
   22DG      C2  686   4.114   6.772  12.494
   22DG      N2  687   4.020   6.810  12.415
   22DG     H21  688   3.986   6.905  12.420
   22DG     H22  689   3.974   6.742  12.356
   22DG      N3  690   4.152   6.644  12.487
   22DG      C4  691   4.277   6.622  12.545
   22DG     C3'  692   4.405   6.189  12.349
   22DG     H3'  693   4.492   6.127  12.328
   22DG     C2'  694   4.445   6.342  12.374
   22DG    H2'1  695   4.538   6.338  12.431
   22DG    H2'2  696   4.447   6.394  12.279
   22DG     O3'  697   4.317   6.169  12.240
   23DC       P  698   4.332   6.231  12.084
   23DC     O1P  699   4.257   6.140  11.990
   23DC     O2P  700   4.474   6.270  12.063
   23DC     O5'  701   4.241   6.366  12.088
   23DC     C5'  702   4.102   6.373  12.108
   23DC    H5'1  703   4.074   6.354  12.212
   23DC    H5'2  704   4.051   6.295  12.051
   23DC     C4'  705   4.041   6.510  12.052
   23DC     H4'  706   3.933   6.506  12.063
   23DC     O4'  707   4.088   6.608  12.139
   23DC     C1'  708   4.153   6.715  12.072
   23DC     H1'  709   4.078   6.783  12.032
   23DC      N1  710   4.261   6.772  12.158
   23DC      C6  711   4.375   6.706  12.198
   23DC      H6  712   4.383   6.602  12.169
   23DC      C5  713   4.466   6.750  12.286
   23DC      H5  714   4.551   6.693  12.320
   23DC      C4  715   4.445   6.884  12.325
   23DC      N4  716   4.519   6.956  12.406
   23DC     H41  717   4.491   7.045  12.443
   23DC     H42  718   4.605   6.911  12.434
   23DC      N3  719   4.339   6.954  12.286
   23DC      C2  720   4.239   6.898  12.215
   23DC      O2  721   4.141   6.965  12.196
   23DC     C3'  722   4.093   6.544  11.913
   23DC     H3'  723   4.131   6.457  11.860
   23DC     C2'  724   4.205   6.641  11.943
   23DC    H2'1  725   4.297   6.591  11.974
   23DC    H2'2  726   4.230   6.706  11.860
   23DC     O3'  727   3.983   6.606  11.855
   24DA       P  728   3.990   6.661  11.704
   24DA     O1P  729   3.858   6.631  11.636
   24DA     O2P  730   4.115   6.614  11.638
   24DA     O5'  731   4.006   6.815  11.727
   24DA     C5'  732   3.901   6.892  11.789
   24DA    H5'1  733   3.888   6.860  11.893
   24DA    H5'2  734   3.806   6.878  11.739
   24DA     C4'  735   3.934   7.040  11.786
   24DA     H4'  736   3.846   7.098  11.814
   24DA     O4'  737   4.050   7.074  11.873
   24DA     C1'  738   4.149   7.141  11.801
   24DA     H1'  739   4.153   7.249  11.817
   24DA      N9  740   4.278   7.087  11.849
   24DA      C8  741   4.329   6.964  11.839
   24DA      H8  742   4.274   6.887  11.787
   24DA      N7  743   4.440   6.943  11.906
   24DA      C5  744   4.459   7.066  11.976
   24DA      C6  745   4.555   7.120  12.068
   24DA      N6  746   4.661   7.061  12.125
   24DA     H61  747   4.702   7.106  12.206
   24DA     H62  748   4.669   6.961  12.121
   24DA      N1  749   4.537   7.245  12.099
   24DA      C2  750   4.446   7.321  12.046
   24DA      H2  751   4.450   7.428  12.064
   24DA      N3  752   4.354   7.287  11.958
   24DA      C4  753   4.372   7.155  11.924
   24DA     C3'  754   3.964   7.089  11.645
   24DA     H3'  755   3.948   7.008  11.574
   24DA     C2'  756   4.116   7.112  11.651
   24DA    H2'1  757   4.166   7.017  11.634
   24DA    H2'2  758   4.165   7.189  11.592
   24DA     O3'  759   3.882   7.197  11.621
   25DC       P  760   3.889   7.271  11.477
   25DC     O1P  761   3.768   7.353  11.475
   25DC     O2P  762   3.913   7.170  11.373
   25DC     O5'  763   4.018   7.367  11.491
   25DC     C5'  764   4.019   7.485  11.568
   25DC    H5'1  765   3.996   7.454  11.670
   25DC    H5'2  766   3.940   7.553  11.538
   25DC     C4'  767   4.160   7.556  11.584
   25DC     H4'  768   4.146   7.654  11.630
   25DC     O4'  769   4.249   7.479  11.661
   25DC     C1'  770   4.377   7.471  11.587
   25DC     H1'  771   4.428   7.567  11.598
   25DC      N1  772   4.465   7.367  11.640
   25DC      C6  773   4.466   7.239  11.588
   25DC      H6  774   4.397   7.214  11.510
   25DC      C5  775   4.550   7.146  11.629
   25DC      H5  776   4.559   7.048  11.584
   25DC      C4  777   4.652   7.184  11.718
   25DC      N4  778   4.711   7.089  11.785
   25DC     H41  779   4.759   7.112  11.871
   25DC     H42  780   4.700   6.992  11.758
   25DC      N3  781   4.656   7.303  11.775
   25DC      C2  782   4.568   7.399  11.733
   25DC      O2  783   4.574   7.505  11.796
   25DC     C3'  784   4.224   7.579  11.445
   25DC     H3'  785   4.156   7.566  11.361
   25DC     C2'  786   4.331   7.465  11.446
   25DC    H2'1  787   4.286   7.369  11.424
   25DC    H2'2  788   4.413   7.486  11.378
   25DC     O3'  789   4.286   7.704  11.442
   26DG       P  790   4.231   7.833  11.360
   26DG     O1P  791   4.086   7.862  11.389
   26DG     O2P  792   4.274   7.826  11.223
   26DG     O5'  793   4.324   7.951  11.419
   26DG     C5'  794   4.288   8.016  11.540
   26DG    H5'1  795   4.262   7.939  11.612
   26DG    H5'2  796   4.196   8.073  11.529
   26DG     C4'  797   4.398   8.107  11.595
   26DG     H4'  798   4.344   8.179  11.657
   26DG     O4'  799   4.496   8.023  11.664
   26DG     C1'  800   4.611   8.011  11.583
   26DG     H1'  801   4.692   8.061  11.638
   26DG      N9  802   4.650   7.872  11.568
   26DG      C8  803   4.596   7.780  11.485
   26DG      H8  804   4.520   7.804  11.412
   26DG      N7  805   4.653   7.663  11.490
   26DG      C5  806   4.756   7.678  11.586
   26DG      C6  807   4.860   7.593  11.628
   26DG      O6  808   4.872   7.477  11.583
   26DG      N1  809   4.949   7.650  11.713
   26DG      H1  810   5.033   7.598  11.733
   26DG      C2  811   4.937   7.770  11.766
   26DG      N2  812   5.025   7.812  11.851
   26DG     H21  813   5.113   7.765  11.869
   26DG     H22  814   5.003   7.903  11.890
   26DG      N3  815   4.836   7.855  11.738
   26DG      C4  816   4.748   7.804  11.641
   26DG     C3'  817   4.467   8.187  11.482
   26DG     H3'  818   4.405   8.194  11.393
   26DG     C2'  819   4.584   8.092  11.451
   26DG    H2'1  820   4.554   8.020  11.375
   26DG    H2'2  821   4.669   8.152  11.420
   26DG     O3'  822   4.522   8.321  11.509
   27DC       P  823   4.606   8.361  11.634
   27DC     O1P  824   4.538   8.319  11.761
   27DC     O2P  825   4.632   8.505  11.623
   27DC     O5'  826   4.747   8.283  11.634
   27DC     C5'  827   4.859   8.311  11.549
   27DC    H5'1  828   4.905   8.403  11.586
   27DC    H5'2  829   4.820   8.329  11.448
   27DC     C4'  830   4.954   8.194  11.552
   27DC     H4'  831   4.972   8.175  11.658
   27DC     O4'  832   4.913   8.072  11.497
   27DC     C1'  833   5.035   8.007  11.483
   27DC     H1'  834   5.061   7.970  11.583
   27DC      N1  835   5.019   7.890  11.389
   27DC      C6  836   4.929   7.896  11.284
   27DC      H6  837   4.861   7.978  11.269
   27DC      C5  838   4.909   7.782  11.214
   27DC      H5  839   4.846   7.775  11.127
   27DC      C4  840   4.991   7.664  11.242
   27DC      N4  841   4.964   7.547  11.193
   27DC     H41  842   5.009   7.465  11.232
   27DC     H42  843   4.920   7.536  11.103
   27DC      N3  844   5.079   7.662  11.345
   27DC      C2  845   5.093   7.778  11.415
   27DC      O2  846   5.175   7.775  11.501
   27DC     C3'  847   5.080   8.243  11.487
   27DC     H3'  848   5.060   8.313  11.406
   27DC     C2'  849   5.135   8.107  11.431
   27DC    H2'1  850   5.135   8.116  11.322
   27DC    H2'2  851   5.235   8.084  11.468
   27DC     O3'  852   5.167   8.301  11.580
   28DG       P  853   5.289   8.399  11.541
   28DG     O1P  854   5.317   8.473  11.665
   28DG     O2P  855   5.242   8.467  11.416
   28DG     O5'  856   5.414   8.303  11.509
   28DG     C5'  857   5.475   8.222  11.606
   28DG    H5'1  858   5.394   8.188  11.670
   28DG    H5'2  859   5.546   8.284  11.662
   28DG     C4'  860   5.553   8.110  11.547
   28DG     H4'  861   5.619   8.066  11.622
   28DG     O4'  862   5.464   8.012  11.486
   28DG     C1'  863   5.540   7.965  11.369
   28DG     H1'  864   5.620   7.898  11.401
   28DG      N9  865   5.457   7.894  11.272
   28DG      C8  866   5.359   7.942  11.199
   28DG      H8  867   5.318   8.042  11.207
   28DG      N7  868   5.308   7.853  11.117
   28DG      C5  869   5.376   7.732  11.150
   28DG      C6  870   5.359   7.598  11.096
   28DG      O6  871   5.276   7.546  11.015
   28DG      N1  872   5.452   7.509  11.148
   28DG      H1  873   5.454   7.415  11.113
   28DG      C2  874   5.546   7.553  11.233
   28DG      N2  875   5.625   7.457  11.273
   28DG     H21  876   5.606   7.361  11.247
   28DG     H22  877   5.689   7.476  11.349
   28DG      N3  878   5.569   7.671  11.288
   28DG      C4  879   5.471   7.758  11.245
   28DG     C3'  880   5.658   8.155  11.444
   28DG     H3'  881   5.666   8.262  11.429
   28DG     C2'  882   5.605   8.092  11.316
   28DG    H2'1  883   5.537   8.161  11.265
   28DG    H2'2  884   5.684   8.061  11.248
   28DG     O3'  885   5.782   8.099  11.474
   29DC       P  886   5.918   8.113  11.394
   29DC     O1P  887   6.025   8.152  11.495
   29DC     O2P  888   5.897   8.192  11.273
   29DC     O5'  889   5.959   7.972  11.348
   29DC     C5'  890   5.979   7.866  11.447
   29DC    H5'1  891   5.881   7.839  11.487
   29DC    H5'2  892   6.048   7.891  11.527
   29DC     C4'  893   6.037   7.735  11.383
   29DC     H4'  894   6.074   7.671  11.463
   29DC     O4'  895   5.932   7.664  11.306
   29DC     C1'  896   5.970   7.660  11.168
   29DC     H1'  897   6.018   7.566  11.141
   29DC      N1  898   5.856   7.687  11.076
   29DC      C6  899   5.776   7.797  11.079
   29DC      H6  900   5.811   7.876  11.144
   29DC      C5  901   5.675   7.811  10.991
   29DC      H5  902   5.624   7.905  10.978
   29DC      C4  903   5.639   7.696  10.908
   29DC      N4  904   5.534   7.698  10.829
   29DC     H41  905   5.506   7.615  10.779
   29DC     H42  906   5.476   7.780  10.830
   29DC      N3  907   5.703   7.584  10.917
   29DC      C2  908   5.807   7.574  10.998
   29DC      O2  909   5.859   7.462  11.010
   29DC     C3'  910   6.152   7.766  11.289
   29DC     H3'  911   6.199   7.861  11.312
   29DC     C2'  912   6.083   7.762  11.154
   29DC    H2'1  913   6.041   7.859  11.130
   29DC    H2'2  914   6.150   7.721  11.078
   29DC     O3'  915   6.259   7.673  11.315
   30DA       P  916   6.404   7.685  11.242
   30DA     O1P  917   6.493   7.614  11.333
   30DA     O2P  918   6.436   7.828  11.216
   30DA     O5'  919   6.389   7.603  11.097
   30DA     C5'  920   6.392   7.462  11.087
   30DA    H5'1  921   6.325   7.426  11.166
   30DA    H5'2  922   6.486   7.412  11.110
   30DA     C4'  923   6.324   7.417  10.952
   30DA     H4'  924   6.304   7.311  10.967
   30DA     O4'  925   6.202   7.489  10.926
   30DA     C1'  926   6.166   7.472  10.796
   30DA     H1'  927   6.132   7.370  10.779
   30DA      N9  928   6.057   7.564  10.752
   30DA      C8  929   6.057   7.698  10.773
   30DA      H8  930   6.134   7.742  10.834
   30DA      N7  931   5.963   7.761  10.704
   30DA      C5  932   5.896   7.654  10.640
   30DA      C6  933   5.780   7.646  10.562
   30DA      N6  934   5.705   7.747  10.522
   30DA     H61  935   5.612   7.731  10.487
   30DA     H62  936   5.729   7.842  10.545
   30DA      N1  937   5.738   7.534  10.520
   30DA      C2  938   5.792   7.421  10.554
   30DA      H2  939   5.733   7.336  10.523
   30DA      N3  940   5.897   7.405  10.635
   30DA      C4  941   5.951   7.530  10.665
   30DA     C3'  942   6.409   7.444  10.830
   30DA     H3'  943   6.485   7.519  10.854
   30DA     C2'  944   6.300   7.486  10.727
   30DA    H2'1  945   6.310   7.592  10.702
   30DA    H2'2  946   6.308   7.433  10.632
   30DA     O3'  947   6.475   7.319  10.799
   31DT       P  948   6.580   7.293  10.682
   31DT     O1P  949   6.666   7.182  10.720
   31DT     O2P  950   6.649   7.419  10.648
   31DT     O5'  951   6.492   7.263  10.548
   31DT     C5'  952   6.390   7.167  10.553
   31DT    H5'1  953   6.334   7.174  10.646
   31DT    H5'2  954   6.438   7.070  10.547
   31DT     C4'  955   6.285   7.180  10.438
   31DT     H4'  956   6.224   7.090  10.434
   31DT     O4'  957   6.202   7.295  10.446
   31DT     C1'  958   6.132   7.311  10.321
   31DT     H1'  959   6.053   7.236  10.316
   31DT      N1  960   6.078   7.447  10.308
   31DT      C6  961   6.142   7.559  10.360
   31DT      H6  962   6.232   7.545  10.418
   31DT      C5  963   6.089   7.684  10.345
   31DT      C7  964   6.178   7.801  10.389
   31DT     H71  965   6.126   7.857  10.467
   31DT     H72  966   6.270   7.764  10.433
   31DT     H73  967   6.184   7.865  10.301
   31DT      C4  968   5.958   7.696  10.276
   31DT      O4  969   5.901   7.802  10.262
   31DT      N3  970   5.896   7.579  10.237
   31DT      H3  971   5.801   7.578  10.202
   31DT      C2  972   5.955   7.454  10.244
   31DT      O2  973   5.891   7.360  10.201
   31DT     C3'  974   6.354   7.200  10.301
   31DT     H3'  975   6.442   7.264  10.314
   31DT     C2'  976   6.243   7.274  10.217
   31DT    H2'1  977   6.286   7.362  10.168
   31DT    H2'2  978   6.208   7.202  10.143
   31DT     O3'  979   6.392   7.070  10.250
   32DA       P  980   6.479   7.055  10.116
   32DA     O1P  981   6.552   6.926  10.108
   32DA     O2P  982   6.549   7.183  10.103
   32DA     O5'  983   6.372   7.055   9.995
   32DA     C5'  984   6.285   6.944   9.966
   32DA    H5'1  985   6.243   6.902  10.057
   32DA    H5'2  986   6.335   6.856   9.925
   32DA     C4'  987   6.172   6.967   9.867
   32DA     H4'  988   6.110   6.877   9.874
   32DA     O4'  989   6.103   7.086   9.909
   32DA     C1'  990   6.096   7.178   9.808
   32DA     H1'  991   5.999   7.178   9.757
   32DA      N9  992   6.119   7.314   9.865
   32DA      C8  993   6.243   7.366   9.912
   32DA      H8  994   6.334   7.307   9.913
   32DA      N7  995   6.233   7.492   9.940
   32DA      C5  996   6.096   7.521   9.917
   32DA      C6  997   6.017   7.639   9.925
   32DA      N6  998   6.065   7.759   9.957
   32DA     H61  999   5.997   7.832   9.973
   32DA     H62 1000   6.162   7.764   9.985
   32DA      N1 1001   5.891   7.640   9.883
   32DA      C2 1002   5.838   7.531   9.849
   32DA      H2 1003   5.735   7.534   9.818
   32DA      N3 1004   5.893   7.408   9.841
   32DA      C4 1005   6.023   7.416   9.874
   32DA     C3' 1006   6.207   6.982   9.723
   32DA     H3' 1007   6.307   6.948   9.700
   32DA     C2' 1008   6.196   7.131   9.703
   32DA    H2'1 1009   6.293   7.173   9.732
   32DA    H2'2 1010   6.160   7.162   9.604
   32DA     O3' 1011   6.112   6.906   9.651
   33DA       P 1012   6.096   6.902   9.496
   33DA     O1P 1013   6.021   6.781   9.457
   33DA     O2P 1014   6.237   6.917   9.439
   33DA     O5' 1015   6.008   7.025   9.449
   33DA     C5' 1016   5.874   7.027   9.490
   33DA    H5'1 1017   5.871   6.992   9.594
   33DA    H5'2 1018   5.803   6.962   9.440
   33DA     C4' 1019   5.809   7.165   9.468
   33DA     H4' 1020   5.703   7.147   9.487
   33DA     O4' 1021   5.852   7.280   9.545
   33DA     C1' 1022   5.874   7.383   9.455
   33DA     H1' 1023   5.779   7.434   9.436
   33DA      N9 1024   5.966   7.483   9.518
   33DA      C8 1025   6.100   7.475   9.539
   33DA      H8 1026   6.162   7.389   9.517
   33DA      N7 1027   6.156   7.590   9.585
   33DA      C5 1028   6.043   7.671   9.603
   33DA      C6 1029   6.033   7.811   9.633
   33DA      N6 1030   6.129   7.893   9.684
   33DA     H61 1031   6.108   7.990   9.701
   33DA     H62 1032   6.224   7.862   9.696
   33DA      N1 1033   5.912   7.866   9.623
   33DA      C2 1034   5.803   7.803   9.580
   33DA      H2 1035   5.705   7.848   9.581
   33DA      N3 1036   5.801   7.669   9.559
   33DA      C4 1037   5.926   7.609   9.560
   33DA     C3' 1038   5.815   7.210   9.320
   33DA     H3' 1039   5.856   7.128   9.261
   33DA     C2' 1040   5.923   7.316   9.332
   33DA    H2'1 1041   6.021   7.278   9.361
   33DA    H2'2 1042   5.925   7.383   9.246
   33DA     O3' 1043   5.691   7.255   9.280
   34DC       P 1044   5.596   7.176   9.184
   34DC     O1P 1045   5.560   7.053   9.247
   34DC     O2P 1046   5.663   7.164   9.057
   34DC     O5' 1047   5.477   7.277   9.168
   34DC     C5' 1048   5.410   7.350   9.279
   34DC    H5'1 1049   5.464   7.335   9.372
   34DC    H5'2 1050   5.312   7.303   9.283
   34DC     C4' 1051   5.394   7.499   9.257
   34DC     H4' 1052   5.306   7.530   9.314
   34DC     O4' 1053   5.501   7.580   9.285
   34DC     C1' 1054   5.522   7.676   9.179
   34DC     H1' 1055   5.460   7.763   9.203
   34DC      N1 1056   5.662   7.711   9.175
   34DC      C6 1057   5.764   7.619   9.170
   34DC      H6 1058   5.737   7.514   9.159
   34DC      C5 1059   5.897   7.655   9.178
   34DC      H5 1060   5.972   7.577   9.169
   34DC      C4 1061   5.920   7.791   9.224
   34DC      N4 1062   6.041   7.827   9.252
   34DC     H41 1063   6.050   7.927   9.267
   34DC     H42 1064   6.116   7.760   9.250
   34DC      N3 1065   5.824   7.878   9.234
   34DC      C2 1066   5.694   7.841   9.204
   34DC      O2 1067   5.610   7.932   9.212
   34DC     C3' 1068   5.351   7.541   9.112
   34DC     H3' 1069   5.344   7.445   9.060
   34DC     C2' 1070   5.476   7.613   9.045
   34DC    H2'1 1071   5.548   7.543   9.004
   34DC    H2'2 1072   5.445   7.698   8.985
   34DC     O3' 1073   5.223   7.604   9.108
   35DG       P 1074   5.137   7.645   8.981
   35DG     O1P 1075   4.997   7.654   9.031
   35DG     O2P 1076   5.179   7.555   8.870
   35DG     O5' 1077   5.193   7.793   8.940
   35DG     C5' 1078   5.148   7.912   8.998
   35DG    H5'1 1079   5.042   7.931   8.977
   35DG    H5'2 1080   5.166   7.902   9.105
   35DG     C4' 1081   5.216   8.039   8.939
   35DG     H4' 1082   5.170   8.119   8.997
   35DG     O4' 1083   5.360   8.037   8.963
   35DG     C1' 1084   5.431   8.048   8.838
   35DG     H1' 1085   5.441   8.155   8.822
   35DG      N9 1086   5.570   7.994   8.852
   35DG      C8 1087   5.612   7.867   8.830
   35DG      H8 1088   5.542   7.794   8.791
   35DG      N7 1089   5.738   7.846   8.861
   35DG      C5 1090   5.780   7.975   8.901
   35DG      C6 1091   5.907   8.029   8.943
   35DG      O6 1092   6.011   7.971   8.955
   35DG      N1 1093   5.909   8.157   8.983
   35DG      H1 1094   5.995   8.205   9.005
   35DG      C2 1095   5.802   8.232   8.976
   35DG      N2 1096   5.815   8.355   9.015
   35DG     H21 1097   5.902   8.387   9.056
   35DG     H22 1098   5.730   8.407   9.000
   35DG      N3 1099   5.685   8.199   8.930
   35DG      C4 1100   5.681   8.068   8.890
   35DG     C3' 1101   5.207   8.050   8.781
   35DG     H3' 1102   5.124   7.992   8.739
   35DG     C2' 1103   5.337   7.993   8.729
   35DG    H2'1 1104   5.341   7.884   8.727
   35DG    H2'2 1105   5.369   8.031   8.632
   35DG     O3' 1106   5.191   8.183   8.729
   36DC       P 1107   5.104   8.219   8.598
   36DC     O1P 1108   4.974   8.255   8.645
   36DC     O2P 1109   5.113   8.119   8.490
   36DC     O5' 1110   5.193   8.350   8.549
   36DC     C5' 1111   5.217   8.454   8.637
   36DC    H5'1 1112   5.167   8.437   8.732
   36DC    H5'2 1113   5.164   8.544   8.603
   36DC     C4' 1114   5.368   8.491   8.658
   36DC     H4' 1115   5.382   8.565   8.736
   36DC     O4' 1116   5.446   8.373   8.694
   36DC     C1' 1117   5.579   8.398   8.665
   36DC     H1' 1118   5.629   8.446   8.750
   36DC      N1 1119   5.655   8.278   8.630
   36DC      C6 1120   5.597   8.172   8.570
   36DC      H6 1121   5.491   8.171   8.546
   36DC      C5 1122   5.663   8.063   8.536
   36DC      H5 1123   5.616   7.981   8.484
   36DC      C4 1124   5.799   8.059   8.578
   36DC      N4 1125   5.874   7.954   8.551
   36DC     H41 1126   5.973   7.960   8.573
   36DC     H42 1127   5.831   7.881   8.497
   36DC      N3 1128   5.859   8.162   8.630
   36DC      C2 1129   5.791   8.277   8.656
   36DC      O2 1130   5.845   8.376   8.697
   36DC     C3' 1131   5.431   8.534   8.526
   36DC     H3' 1132   5.409   8.460   8.450
   36DC     C2' 1133   5.578   8.507   8.560
   36DC    H2'1 1134   5.635   8.477   8.471
   36DC    H2'2 1135   5.624   8.599   8.598
   36DC     O3' 1136   5.392   8.661   8.489
   37DA       P 1137   5.400   8.718   8.341
   37DA     O1P 1138   5.336   8.846   8.338
   37DA     O2P 1139   5.360   8.609   8.243
   37DA     O5' 1140   5.554   8.737   8.320
   37DA     C5' 1141   5.630   8.828   8.405
   37DA    H5'1 1142   5.621   8.795   8.509
   37DA    H5'2 1143   5.604   8.931   8.383
   37DA     C4' 1144   5.782   8.827   8.373
   37DA     H4' 1145   5.832   8.900   8.436
   37DA     O4' 1146   5.832   8.704   8.415
   37DA     C1' 1147   5.901   8.644   8.301
   37DA     H1' 1148   6.005   8.672   8.291
   37DA      N9 1149   5.901   8.498   8.305
   37DA      C8 1150   5.803   8.406   8.265
   37DA      H8 1151   5.701   8.429   8.238
   37DA      N7 1152   5.839   8.283   8.287
   37DA      C5 1153   5.978   8.300   8.327
   37DA      C6 1154   6.087   8.206   8.344
   37DA      N6 1155   6.073   8.078   8.342
   37DA     H61 1156   6.160   8.031   8.360
   37DA     H62 1157   5.986   8.032   8.322
   37DA      N1 1158   6.213   8.249   8.374
   37DA      C2 1159   6.234   8.378   8.372
   37DA      H2 1160   6.336   8.407   8.396
   37DA      N3 1161   6.145   8.475   8.344
   37DA      C4 1162   6.016   8.428   8.325
   37DA     C3' 1163   5.803   8.838   8.220
   37DA     H3' 1164   5.724   8.887   8.163
   37DA     C2' 1165   5.834   8.697   8.181
   37DA    H2'1 1166   5.744   8.641   8.155
   37DA    H2'2 1167   5.898   8.680   8.094
   37DA     O3' 1168   5.914   8.931   8.196
   38DT       P 1169   5.966   8.960   8.047
   38DT     O1P 1170   6.006   9.096   8.047
   38DT     O2P 1171   5.869   8.910   7.949
   38DT     O5' 1172   6.107   8.873   8.036
   38DT     C5' 1173   6.215   8.888   8.128
   38DT    H5'1 1174   6.173   8.847   8.220
   38DT    H5'2 1175   6.222   8.995   8.150
   38DT     C4' 1176   6.356   8.834   8.099
   38DT     H4' 1177   6.420   8.885   8.171
   38DT     O4' 1178   6.341   8.701   8.118
   38DT     C1' 1179   6.384   8.631   8.003
   38DT     H1' 1180   6.489   8.606   8.013
   38DT      N1 1181   6.289   8.514   7.983
   38DT      C6 1182   6.151   8.531   7.966
   38DT      H6 1183   6.110   8.629   7.950
   38DT      C5 1184   6.066   8.423   7.957
   38DT      C7 1185   5.919   8.446   7.920
   38DT     H71 1186   5.898   8.389   7.829
   38DT     H72 1187   5.852   8.412   7.999
   38DT     H73 1188   5.904   8.552   7.900
   38DT      C4 1189   6.123   8.288   7.985
   38DT      O4 1190   6.055   8.191   7.976
   38DT      N3 1191   6.257   8.282   8.005
   38DT      H3 1192   6.296   8.189   8.007
   38DT      C2 1193   6.349   8.389   7.996
   38DT      O2 1194   6.470   8.372   7.994
   38DT     C3' 1195   6.386   8.860   7.953
   38DT     H3' 1196   6.312   8.929   7.910
   38DT     C2' 1197   6.379   8.725   7.882
   38DT    H2'1 1198   6.287   8.709   7.825
   38DT    H2'2 1199   6.466   8.715   7.817
   38DT     O3' 1200   6.518   8.911   7.939
   39DA       P 1201   6.576   8.967   7.792
   39DA     O1P 1202   6.674   9.076   7.827
   39DA     O2P 1203   6.457   9.002   7.709
   39DA     O5' 1204   6.652   8.842   7.726
   39DA     C5' 1205   6.767   8.774   7.788
   39DA    H5'1 1206   6.763   8.771   7.897
   39DA    H5'2 1207   6.856   8.832   7.764
   39DA     C4' 1208   6.782   8.616   7.755
   39DA     H4' 1209   6.871   8.577   7.805
   39DA     O4' 1210   6.663   8.544   7.790
   39DA     C1' 1211   6.655   8.438   7.692
   39DA     H1' 1212   6.713   8.351   7.723
   39DA      N9 1213   6.517   8.386   7.675
   39DA      C8 1214   6.403   8.456   7.646
   39DA      H8 1215   6.411   8.560   7.619
   39DA      N7 1216   6.292   8.389   7.641
   39DA      C5 1217   6.337   8.260   7.669
   39DA      C6 1218   6.274   8.139   7.692
   39DA      N6 1219   6.144   8.121   7.687
   39DA     H61 1220   6.120   8.024   7.705
   39DA     H62 1221   6.076   8.195   7.676
   39DA      N1 1222   6.340   8.025   7.722
   39DA      C2 1223   6.471   8.036   7.723
   39DA      H2 1224   6.525   7.946   7.749
   39DA      N3 1225   6.544   8.146   7.721
   39DA      C4 1226   6.474   8.255   7.688
   39DA     C3' 1227   6.805   8.608   7.603
   39DA     H3' 1228   6.770   8.698   7.552
   39DA     C2' 1229   6.717   8.491   7.566
   39DA    H2'1 1230   6.638   8.520   7.497
   39DA    H2'2 1231   6.788   8.427   7.512
   39DA     O3' 1232   6.941   8.588   7.578
   40DC       P 1233   7.007   8.613   7.434
   40DC     O1P 1234   7.155   8.637   7.450
   40DC     O2P 1235   6.919   8.700   7.350
   40DC     O5' 1236   6.980   8.465   7.369
   40DC     C5' 1237   7.055   8.356   7.428
   40DC    H5'1 1238   7.018   8.354   7.530
   40DC    H5'2 1239   7.161   8.381   7.423
   40DC     C4' 1240   7.032   8.217   7.370
   40DC     H4' 1241   7.095   8.143   7.419
   40DC     O4' 1242   6.902   8.174   7.391
   40DC     C1' 1243   6.831   8.153   7.272
   40DC     H1' 1244   6.836   8.049   7.239
   40DC      N1 1245   6.684   8.183   7.289
   40DC      C6 1246   6.636   8.308   7.264
   40DC      H6 1247   6.702   8.381   7.218
   40DC      C5 1248   6.510   8.337   7.289
   40DC      H5 1249   6.482   8.439   7.268
   40DC      C4 1250   6.423   8.233   7.321
   40DC      N4 1251   6.293   8.256   7.320
   40DC     H41 1252   6.240   8.186   7.369
   40DC     H42 1253   6.253   8.349   7.317
   40DC      N3 1254   6.466   8.105   7.331
   40DC      C2 1255   6.598   8.078   7.320
   40DC      O2 1256   6.635   7.960   7.317
   40DC     C3' 1257   7.052   8.217   7.218
   40DC     H3' 1258   7.126   8.291   7.188
   40DC     C2' 1259   6.910   8.239   7.167
   40DC    H2'1 1260   6.885   8.344   7.179
   40DC    H2'2 1261   6.893   8.205   7.065
   40DC     O3' 1262   7.102   8.090   7.177
   41DG       P 1263   7.181   8.062   7.038
   41DG     O1P 1264   7.315   8.026   7.067
   41DG     O2P 1265   7.158   8.170   6.936
   41DG     O5' 1266   7.104   7.929   6.975
   41DG     C5' 1267   7.128   7.799   7.031
   41DG    H5'1 1268   7.235   7.781   7.022
   41DG    H5'2 1269   7.086   7.796   7.132
   41DG     C4' 1270   7.058   7.692   6.949
   41DG     H4' 1271   7.096   7.592   6.970
   41DG     O4' 1272   6.919   7.717   6.975
   41DG     C1' 1273   6.838   7.751   6.863
   41DG     H1' 1274   6.783   7.663   6.828
   41DG      N9 1275   6.744   7.853   6.908
   41DG      C8 1276   6.769   7.990   6.921
   41DG      H8 1277   6.869   8.030   6.912
   41DG      N7 1278   6.664   8.058   6.960
   41DG      C5 1279   6.565   7.961   6.964
   41DG      C6 1280   6.428   7.978   6.987
   41DG      O6 1281   6.362   8.079   7.021
   41DG      N1 1282   6.356   7.864   6.990
   41DG      H1 1283   6.265   7.858   7.033
   41DG      C2 1284   6.411   7.742   6.987
   41DG      N2 1285   6.334   7.640   7.012
   41DG     H21 1286   6.234   7.653   7.023
   41DG     H22 1287   6.374   7.548   7.017
   41DG      N3 1288   6.536   7.716   6.960
   41DG      C4 1289   6.609   7.833   6.941
   41DG     C3' 1290   7.065   7.719   6.796
   41DG     H3' 1291   7.140   7.797   6.778
   41DG     C2' 1292   6.941   7.796   6.756
   41DG    H2'1 1293   6.955   7.902   6.777
   41DG    H2'2 1294   6.912   7.779   6.653
   41DG     O3' 1295   7.098   7.596   6.732
   42DC       P 1296   7.134   7.584   6.576
   42DC     O1P 1297   7.200   7.453   6.562
   42DC     O2P 1298   7.202   7.703   6.531
   42DC     O5' 1299   6.994   7.582   6.501
   42DC     C5' 1300   6.905   7.472   6.510
   42DC    H5'1 1301   6.912   7.428   6.609
   42DC    H5'2 1302   6.946   7.396   6.445
   42DC     C4' 1303   6.765   7.497   6.471
   42DC     H4' 1304   6.711   7.405   6.496
   42DC     O4' 1305   6.705   7.606   6.549
   42DC     C1' 1306   6.600   7.662   6.485
   42DC     H1' 1307   6.506   7.607   6.494
   42DC      N1 1308   6.576   7.795   6.538
   42DC      C6 1309   6.672   7.892   6.531
   42DC      H6 1310   6.764   7.868   6.479
   42DC      C5 1311   6.656   8.013   6.585
   42DC      H5 1312   6.731   8.091   6.587
   42DC      C4 1313   6.523   8.046   6.629
   42DC      N4 1314   6.498   8.167   6.669
   42DC     H41 1315   6.412   8.169   6.721
   42DC     H42 1316   6.574   8.233   6.679
   42DC      N3 1317   6.434   7.952   6.653
   42DC      C2 1318   6.461   7.824   6.609
   42DC      O2 1319   6.371   7.738   6.621
   42DC     C3' 1320   6.742   7.540   6.331
   42DC     H3' 1321   6.838   7.582   6.303
   42DC     C2' 1322   6.641   7.655   6.342
   42DC    H2'1 1323   6.681   7.746   6.296
   42DC    H2'2 1324   6.553   7.622   6.287
   42DC     O3' 1325   6.715   7.437   6.238
   43DA       P 1326   6.651   7.459   6.089
   43DA     O1P 1327   6.668   7.335   6.007
   43DA     O2P 1328   6.716   7.589   6.049
   43DA     O5' 1329   6.494   7.494   6.103
   43DA     C5' 1330   6.425   7.402   6.193
   43DA    H5'1 1331   6.451   7.412   6.299
   43DA    H5'2 1332   6.457   7.307   6.151
   43DA     C4' 1333   6.273   7.407   6.180
   43DA     H4' 1334   6.227   7.323   6.230
   43DA     O4' 1335   6.231   7.531   6.237
   43DA     C1' 1336   6.192   7.627   6.146
   43DA     H1' 1337   6.085   7.641   6.160
   43DA      N9 1338   6.267   7.747   6.186
   43DA      C8 1339   6.394   7.783   6.149
   43DA      H8 1340   6.458   7.722   6.088
   43DA      N7 1341   6.433   7.894   6.210
   43DA      C5 1342   6.312   7.942   6.272
   43DA      C6 1343   6.278   8.048   6.353
   43DA      N6 1344   6.356   8.146   6.389
   43DA     H61 1345   6.318   8.219   6.448
   43DA     H62 1346   6.450   8.153   6.352
   43DA      N1 1347   6.154   8.062   6.408
   43DA      C2 1348   6.070   7.958   6.380
   43DA      H2 1349   5.971   7.967   6.421
   43DA      N3 1350   6.088   7.854   6.305
   43DA      C4 1351   6.214   7.850   6.261
   43DA     C3' 1352   6.223   7.413   6.032
   43DA     H3' 1353   6.301   7.368   5.971
   43DA     C2' 1354   6.216   7.567   6.001
   43DA    H2'1 1355   6.309   7.600   5.955
   43DA    H2'2 1356   6.131   7.603   5.942
   43DA     O3' 1357   6.097   7.354   6.025
   44DC       P 1358   6.014   7.342   5.895
   44DC     O1P 1359   5.918   7.230   5.917
   44DC     O2P 1360   6.099   7.329   5.773
   44DC     O5' 1361   5.928   7.481   5.885
   44DC     C5' 1362   5.821   7.503   5.975
   44DC    H5'1 1363   5.846   7.456   6.070
   44DC    H5'2 1364   5.726   7.459   5.946
   44DC     C4' 1365   5.804   7.658   5.997
   44DC     H4' 1366   5.719   7.671   6.064
   44DC     O4' 1367   5.923   7.713   6.045
   44DC     C1' 1368   5.908   7.849   6.030
   44DC     H1' 1369   5.868   7.897   6.119
   44DC      N1 1370   6.030   7.927   5.998
   44DC      C6 1371   6.125   7.885   5.906
   44DC      H6 1372   6.107   7.788   5.861
   44DC      C5 1373   6.229   7.967   5.889
   44DC      H5 1374   6.316   7.932   5.835
   44DC      C4 1375   6.235   8.094   5.956
   44DC      N4 1376   6.340   8.178   5.938
   44DC     H41 1377   6.326   8.259   5.996
   44DC     H42 1378   6.403   8.165   5.860
   44DC      N3 1379   6.139   8.139   6.036
   44DC      C2 1380   6.032   8.058   6.054
   44DC      O2 1381   5.936   8.106   6.118
   44DC     C3' 1382   5.766   7.731   5.869
   44DC     H3' 1383   5.836   7.692   5.795
   44DC     C2' 1384   5.799   7.868   5.925
   44DC    H2'1 1385   5.839   7.927   5.842
   44DC    H2'2 1386   5.706   7.907   5.966
   44DC     O3' 1387   5.627   7.717   5.829
   45DA       P 1388   5.564   7.792   5.701
   45DA     O1P 1389   5.424   7.747   5.686
   45DA     O2P 1390   5.653   7.772   5.587
   45DA     O5' 1391   5.565   7.953   5.728
   45DA     C5' 1392   5.479   7.995   5.831
   45DA    H5'1 1393   5.525   7.980   5.929
   45DA    H5'2 1394   5.395   7.930   5.854
   45DA     C4' 1395   5.414   8.134   5.811
   45DA     H4' 1396   5.323   8.128   5.871
   45DA     O4' 1397   5.495   8.240   5.858
   45DA     C1' 1398   5.567   8.305   5.744
   45DA     H1' 1399   5.544   8.411   5.750
   45DA      N9 1400   5.713   8.290   5.744
   45DA      C8 1401   5.785   8.189   5.691
   45DA      H8 1402   5.741   8.096   5.660
   45DA      N7 1403   5.909   8.209   5.698
   45DA      C5 1404   5.924   8.332   5.759
   45DA      C6 1405   6.031   8.422   5.792
   45DA      N6 1406   6.156   8.394   5.768
   45DA     H61 1407   6.222   8.456   5.814
   45DA     H62 1408   6.174   8.301   5.733
   45DA      N1 1409   6.010   8.539   5.859
   45DA      C2 1410   5.887   8.566   5.893
   45DA      H2 1411   5.868   8.658   5.947
   45DA      N3 1412   5.781   8.496   5.858
   45DA      C4 1413   5.802   8.382   5.794
   45DA     C3' 1414   5.378   8.158   5.667
   45DA     H3' 1415   5.379   8.065   5.611
   45DA     C2' 1416   5.501   8.240   5.617
   45DA    H2'1 1417   5.568   8.177   5.559
   45DA    H2'2 1418   5.477   8.327   5.556
   45DA     O3' 1419   5.247   8.227   5.661
   46DT       P 1420   5.202   8.321   5.534
   46DT     O1P 1421   5.055   8.348   5.552
   46DT     O2P 1422   5.243   8.244   5.417
   46DT     O5' 1423   5.276   8.458   5.534
   46DT     C5' 1424   5.263   8.559   5.636
   46DT    H5'1 1425   5.287   8.512   5.731
   46DT    H5'2 1426   5.164   8.604   5.644
   46DT     C4' 1427   5.372   8.662   5.602
   46DT     H4' 1428   5.362   8.741   5.676
   46DT     O4' 1429   5.502   8.601   5.615
   46DT     C1' 1430   5.594   8.691   5.559
   46DT     H1' 1431   5.592   8.771   5.633
   46DT      N1 1432   5.724   8.624   5.538
   46DT      C6 1433   5.729   8.506   5.468
   46DT      H6 1434   5.641   8.461   5.423
   46DT      C5 1435   5.847   8.445   5.432
   46DT      C7 1436   5.846   8.334   5.341
   46DT     H71 1437   5.911   8.250   5.365
   46DT     H72 1438   5.746   8.291   5.336
   46DT     H73 1439   5.859   8.371   5.239
   46DT      C4 1440   5.974   8.498   5.478
   46DT      O4 1441   6.086   8.455   5.452
   46DT      N3 1442   5.957   8.618   5.550
   46DT      H3 1443   6.043   8.657   5.586
   46DT      C2 1444   5.844   8.687   5.579
   46DT      O2 1445   5.850   8.797   5.631
   46DT     C3' 1446   5.376   8.721   5.461
   46DT     H3' 1447   5.337   8.645   5.394
   46DT     C2' 1448   5.524   8.736   5.433
   46DT    H2'1 1449   5.562   8.672   5.353
   46DT    H2'2 1450   5.556   8.840   5.423
   46DT     O3' 1451   5.300   8.841   5.451
   47DG       P 1452   5.287   8.925   5.315
   47DG     O1P 1453   5.156   8.998   5.322
   47DG     O2P 1454   5.303   8.837   5.199
   47DG     O5' 1455   5.389   9.043   5.300
   47DG     C5' 1456   5.397   9.143   5.398
   47DG    H5'1 1457   5.359   9.104   5.493
   47DG    H5'2 1458   5.320   9.219   5.382
   47DG     C4' 1459   5.536   9.200   5.421
   47DG     H4' 1460   5.542   9.250   5.518
   47DG     O4' 1461   5.639   9.096   5.419
   47DG     C1' 1462   5.752   9.139   5.339
   47DG     H1' 1463   5.830   9.189   5.396
   47DG      N9 1464   5.807   9.023   5.270
   47DG      C8 1465   5.739   8.926   5.206
   47DG      H8 1466   5.631   8.921   5.206
   47DG      N7 1467   5.806   8.827   5.166
   47DG      C5 1468   5.939   8.862   5.197
   47DG      C6 1469   6.063   8.795   5.170
   47DG      O6 1470   6.087   8.686   5.120
   47DG      N1 1471   6.168   8.883   5.201
   47DG      H1 1472   6.263   8.853   5.187
   47DG      C2 1473   6.161   9.005   5.256
   47DG      N2 1474   6.261   9.082   5.273
   47DG     H21 1475   6.352   9.051   5.244
   47DG     H22 1476   6.242   9.178   5.299
   47DG      N3 1477   6.046   9.069   5.288
   47DG      C4 1478   5.937   8.991   5.253
   47DG     C3' 1479   5.575   9.302   5.322
   47DG     H3' 1480   5.490   9.332   5.260
   47DG     C2' 1481   5.679   9.232   5.241
   47DG    H2'1 1482   5.624   9.177   5.165
   47DG    H2'2 1483   5.746   9.300   5.188
   47DG     O3' 1484   5.630   9.417   5.384
   48DC3      P 1485   5.673   9.559   5.319
   48DC3    O1P 1486   5.708   9.664   5.417
   48DC3    O2P 1487   5.570   9.585   5.214
   48DC3    O5' 1488   5.798   9.527   5.233
   48DC3    C5' 1489   5.933   9.537   5.284
   48DC3   H5'1 1490   5.956   9.473   5.370
   48DC3   H5'2 1491   5.937   9.644   5.304
   48DC3    C4' 1492   6.025   9.498   5.170
   48DC3    H4' 1493   6.132   9.509   5.188
   48DC3    O4' 1494   6.004   9.355   5.140
   48DC3    C1' 1495   6.025   9.342   5.002
   48DC3    H1' 1496   6.131   9.360   4.982
   48DC3     N1 1497   5.996   9.201   4.953
   48DC3     C6 1498   5.871   9.169   4.915
   48DC3     H6 1499   5.792   9.243   4.920
   48DC3     C5 1500   5.854   9.044   4.859
   48DC3     H5 1501   5.758   9.021   4.815
   48DC3     C4 1502   5.968   8.960   4.862
   48DC3     N4 1503   5.970   8.845   4.802
   48DC3    H41 1504   6.046   8.783   4.826
   48DC3    H42 1505   5.880   8.826   4.758
   48DC3     N3 1506   6.090   8.995   4.887
   48DC3     C2 1507   6.104   9.115   4.940
   48DC3     O2 1508   6.222   9.147   4.955
   48DC3    C3' 1509   5.987   9.567   5.034
   48DC3    H3' 1510   5.903   9.635   5.045
   48DC3    C2' 1511   5.954   9.457   4.940
   48DC3   H2'1 1512   5.846   9.442   4.950
   48DC3   H2'2 1513   5.991   9.469   4.839
   48DC3    O3' 1514   6.097   9.632   4.963
   48DC3    H3T 1515   6.133   9.701   5.020
   49DT5    H5T 1516   5.473   8.121   9.547
   49DT5    O5' 1517   5.409   8.146   9.480
   49DT5    C5' 1518   5.284   8.142   9.545
   49DT5   H5'1 1519   5.203   8.147   9.472
   49DT5   H5'2 1520   5.271   8.233   9.603
   49DT5    C4' 1521   5.267   8.017   9.633
   49DT5    H4' 1522   5.238   7.936   9.567
   49DT5    O4' 1523   5.388   7.990   9.700
   49DT5    C1' 1524   5.367   7.952   9.830
   49DT5    H1' 1525   5.331   7.849   9.841
   49DT5     N1 1526   5.499   7.966   9.909
   49DT5     C6 1527   5.545   8.074   9.981
   49DT5     H6 1528   5.481   8.158  10.001
   49DT5     C5 1529   5.677   8.080  10.017
   49DT5     C7 1530   5.727   8.207  10.087
   49DT5    H71 1531   5.644   8.277  10.079
   49DT5    H72 1532   5.739   8.187  10.194
   49DT5    H73 1533   5.811   8.238  10.024
   49DT5     C4 1534   5.772   7.976   9.980
   49DT5     O4 1535   5.891   7.968  10.007
   49DT5     N3 1536   5.719   7.884   9.898
   49DT5     H3 1537   5.785   7.812   9.873
   49DT5     C2 1538   5.583   7.864   9.872
   49DT5     O2 1539   5.549   7.755   9.826
   49DT5    C3' 1540   5.165   8.038   9.751
   49DT5    H3' 1541   5.105   8.127   9.734
   49DT5    C2' 1542   5.257   8.046   9.876
   49DT5   H2'1 1543   5.291   8.149   9.889
   49DT5   H2'2 1544   5.202   8.004   9.960
   49DT5    O3' 1545   5.089   7.913   9.760
   50DA       P 1546   4.945   7.910   9.811
   50DA     O1P 1547   4.867   7.975   9.699
   50DA     O2P 1548   4.935   7.967   9.948
   50DA     O5' 1549   4.896   7.758   9.815
   50DA     C5' 1550   4.944   7.671   9.709
   50DA    H5'1 1551   5.030   7.710   9.654
   50DA    H5'2 1552   4.867   7.654   9.633
   50DA     C4' 1553   5.003   7.528   9.748
   50DA     H4' 1554   5.004   7.469   9.656
   50DA     O4' 1555   5.135   7.541   9.790
   50DA     C1' 1556   5.155   7.491   9.924
   50DA     H1' 1557   5.207   7.396   9.926
   50DA      N9 1558   5.230   7.588   9.998
   50DA      C8 1559   5.207   7.717  10.044
   50DA      H8 1560   5.110   7.761  10.033
   50DA      N7 1561   5.309   7.776  10.102
   50DA      C5 1562   5.413   7.681  10.091
   50DA      C6 1563   5.549   7.674  10.144
   50DA      N6 1564   5.606   7.774  10.210
   50DA     H61 1565   5.699   7.752  10.243
   50DA     H62 1566   5.550   7.854  10.236
   50DA      N1 1567   5.616   7.566  10.140
   50DA      C2 1568   5.560   7.456  10.086
   50DA      H2 1569   5.622   7.368  10.081
   50DA      N3 1570   5.436   7.450  10.028
   50DA      C4 1571   5.364   7.568  10.031
   50DA     C3' 1572   4.925   7.458   9.860
   50DA     H3' 1573   4.825   7.501   9.864
   50DA     C2' 1574   5.012   7.490   9.977
   50DA    H2'1 1575   4.974   7.582  10.021
   50DA    H2'2 1576   4.999   7.416  10.056
   50DA     O3' 1577   4.912   7.318   9.837
   51DT       P 1578   4.834   7.221   9.932
   51DT     O1P 1579   4.786   7.100   9.853
   51DT     O2P 1580   4.733   7.299  10.011
   51DT     O5' 1581   4.944   7.167  10.032
   51DT     C5' 1582   5.059   7.102   9.987
   51DT    H5'1 1583   5.102   7.164   9.908
   51DT    H5'2 1584   5.030   7.003   9.953
   51DT     C4' 1585   5.167   7.086  10.094
   51DT     H4' 1586   5.249   7.021  10.064
   51DT     O4' 1587   5.214   7.219  10.120
   51DT     C1' 1588   5.248   7.220  10.256
   51DT     H1' 1589   5.325   7.144  10.275
   51DT      N1 1590   5.295   7.352  10.321
   51DT      C6 1591   5.206   7.455  10.335
   51DT      H6 1592   5.104   7.436  10.308
   51DT      C5 1593   5.244   7.577  10.377
   51DT      C7 1594   5.145   7.683  10.398
   51DT     H71 1595   5.158   7.777  10.345
   51DT     H72 1596   5.045   7.649  10.369
   51DT     H73 1597   5.148   7.721  10.500
   51DT      C4 1598   5.386   7.610  10.409
   51DT      O4 1599   5.436   7.712  10.453
   51DT      N3 1600   5.470   7.496  10.405
   51DT      H3 1601   5.569   7.512  10.414
   51DT      C2 1602   5.429   7.368  10.365
   51DT      O2 1603   5.512   7.279  10.370
   51DT     C3' 1604   5.109   7.039  10.237
   51DT     H3' 1605   5.003   7.015  10.229
   51DT     C2' 1606   5.123   7.163  10.321
   51DT    H2'1 1607   5.042   7.233  10.302
   51DT    H2'2 1608   5.144   7.135  10.424
   51DT     O3' 1609   5.180   6.927  10.291
   52DG       P 1610   5.104   6.813  10.376
   52DG     O1P 1611   5.065   6.703  10.287
   52DG     O2P 1612   4.996   6.875  10.456
   52DG     O5' 1613   5.217   6.766  10.472
   52DG     C5' 1614   5.345   6.723  10.435
   52DG    H5'1 1615   5.335   6.637  10.370
   52DG    H5'2 1616   5.386   6.805  10.376
   52DG     C4' 1617   5.431   6.691  10.562
   52DG     H4' 1618   5.500   6.613  10.529
   52DG     O4' 1619   5.501   6.804  10.605
   52DG     C1' 1620   5.440   6.855  10.723
   52DG     H1' 1621   5.504   6.835  10.808
   52DG      N9 1622   5.401   6.995  10.712
   52DG      C8 1623   5.296   7.057  10.642
   52DG      H8 1624   5.221   7.010  10.581
   52DG      N7 1625   5.300   7.185  10.638
   52DG      C5 1626   5.418   7.213  10.709
   52DG      C6 1627   5.488   7.339  10.735
   52DG      O6 1628   5.461   7.450  10.694
   52DG      N1 1629   5.597   7.331  10.816
   52DG      H1 1630   5.646   7.418  10.832
   52DG      C2 1631   5.645   7.212  10.855
   52DG      N2 1632   5.742   7.233  10.943
   52DG     H21 1633   5.783   7.325  10.949
   52DG     H22 1634   5.783   7.164  11.005
   52DG      N3 1635   5.596   7.087  10.828
   52DG      C4 1636   5.476   7.098  10.756
   52DG     C3' 1637   5.347   6.641  10.684
   52DG     H3' 1638   5.255   6.594  10.649
   52DG     C2' 1639   5.323   6.772  10.759
   52DG    H2'1 1640   5.230   6.819  10.729
   52DG    H2'2 1641   5.324   6.761  10.868
   52DG     O3' 1642   5.419   6.545  10.755
   53DC       P 1643   5.387   6.494  10.899
   53DC     O1P 1644   5.454   6.362  10.912
   53DC     O2P 1645   5.243   6.508  10.931
   53DC     O5' 1646   5.464   6.592  11.008
   53DC     C5' 1647   5.603   6.618  10.996
   53DC    H5'1 1648   5.617   6.658  10.896
   53DC    H5'2 1649   5.662   6.531  11.024
   53DC     C4' 1650   5.652   6.717  11.100
   53DC     H4' 1651   5.761   6.723  11.092
   53DC     O4' 1652   5.590   6.844  11.067
   53DC     C1' 1653   5.534   6.901  11.182
   53DC     H1' 1654   5.615   6.959  11.227
   53DC      N1 1655   5.428   6.999  11.140
   53DC      C6 1656   5.303   6.955  11.094
   53DC      H6 1657   5.285   6.849  11.087
   53DC      C5 1658   5.212   7.050  11.041
   53DC      H5 1659   5.127   7.012  10.987
   53DC      C4 1660   5.251   7.184  11.048
   53DC      N4 1661   5.182   7.274  10.999
   53DC     H41 1662   5.211   7.368  11.022
   53DC     H42 1663   5.090   7.257  10.962
   53DC      N3 1664   5.368   7.228  11.104
   53DC      C2 1665   5.450   7.138  11.160
   53DC      O2 1666   5.541   7.183  11.235
   53DC     C3' 1667   5.614   6.689  11.250
   53DC     H3' 1668   5.569   6.590  11.261
   53DC     C2' 1669   5.501   6.785  11.285
   53DC    H2'1 1670   5.399   6.751  11.262
   53DC    H2'2 1671   5.514   6.822  11.386
   53DC     O3' 1672   5.729   6.706  11.334
   54DG       P 1673   5.740   6.631  11.471
   54DG     O1P 1674   5.883   6.591  11.490
   54DG     O2P 1675   5.641   6.521  11.480
   54DG     O5' 1676   5.703   6.745  11.575
   54DG     C5' 1677   5.788   6.851  11.606
   54DG    H5'1 1678   5.836   6.877  11.511
   54DG    H5'2 1679   5.874   6.818  11.664
   54DG     C4' 1680   5.729   6.985  11.660
   54DG     H4' 1681   5.798   7.065  11.687
   54DG     O4' 1682   5.640   7.045  11.569
   54DG     C1' 1683   5.525   7.080  11.630
   54DG     H1' 1684   5.547   7.178  11.674
   54DG      N9 1685   5.422   7.101  11.533
   54DG      C8 1686   5.342   7.006  11.477
   54DG      H8 1687   5.357   6.900  11.491
   54DG      N7 1688   5.243   7.059  11.409
   54DG      C5 1689   5.265   7.197  11.424
   54DG      C6 1690   5.181   7.306  11.382
   54DG      O6 1691   5.089   7.302  11.297
   54DG      N1 1692   5.223   7.430  11.432
   54DG      H1 1693   5.171   7.510  11.399
   54DG      C2 1694   5.335   7.445  11.503
   54DG      N2 1695   5.367   7.573  11.538
   54DG     H21 1696   5.294   7.643  11.540
   54DG     H22 1697   5.463   7.595  11.562
   54DG      N3 1698   5.418   7.351  11.550
   54DG      C4 1699   5.373   7.226  11.508
   54DG     C3' 1700   5.648   6.960  11.787
   54DG     H3' 1701   5.657   6.858  11.823
   54DG     C2' 1702   5.503   6.982  11.742
   54DG    H2'1 1703   5.458   6.888  11.711
   54DG    H2'2 1704   5.435   7.027  11.814
   54DG     O3' 1705   5.680   7.066  11.878
   55DC       P 1706   5.689   7.042  12.038
   55DC     O1P 1707   5.825   7.011  12.077
   55DC     O2P 1708   5.577   6.949  12.078
   55DC     O5' 1709   5.655   7.180  12.108
   55DC     C5' 1710   5.737   7.296  12.089
   55DC    H5'1 1711   5.777   7.292  11.988
   55DC    H5'2 1712   5.817   7.282  12.161
   55DC     C4' 1713   5.659   7.422  12.105
   55DC     H4' 1714   5.730   7.503  12.118
   55DC     O4' 1715   5.574   7.446  11.989
   55DC     C1' 1716   5.447   7.482  12.028
   55DC     H1' 1717   5.443   7.591  12.031
   55DC      N1 1718   5.352   7.413  11.942
   55DC      C6 1719   5.345   7.276  11.942
   55DC      H6 1720   5.415   7.210  11.992
   55DC      C5 1721   5.249   7.214  11.870
   55DC      H5 1722   5.238   7.107  11.873
   55DC      C4 1723   5.156   7.300  11.796
   55DC      N4 1724   5.050   7.259  11.726
   55DC     H41 1725   4.988   7.336  11.705
   55DC     H42 1726   5.015   7.165  11.740
   55DC      N3 1727   5.162   7.431  11.800
   55DC      C2 1728   5.253   7.488  11.878
   55DC      O2 1729   5.239   7.613  11.888
   55DC     C3' 1730   5.573   7.429  12.236
   55DC     H3' 1731   5.579   7.339  12.297
   55DC     C2' 1732   5.430   7.443  12.173
   55DC    H2'1 1733   5.385   7.345  12.188
   55DC    H2'2 1734   5.359   7.514  12.216
   55DC     O3' 1735   5.607   7.543  12.317
   56DG       P 1736   5.573   7.700  12.275
   56DG     O1P 1737   5.602   7.725  12.135
   56DG     O2P 1738   5.643   7.787  12.370
   56DG     O5' 1739   5.419   7.736  12.313
   56DG     C5' 1740   5.364   7.692  12.436
   56DG    H5'1 1741   5.408   7.748  12.518
   56DG    H5'2 1742   5.384   7.586  12.450
   56DG     C4' 1743   5.212   7.713  12.454
   56DG     H4' 1744   5.180   7.816  12.442
   56DG     O4' 1745   5.155   7.627  12.356
   56DG     C1' 1746   5.081   7.533  12.428
   56DG     H1' 1747   4.983   7.574  12.450
   56DG      N9 1748   5.074   7.412  12.347
   56DG      C8 1749   5.151   7.300  12.359
   56DG      H8 1750   5.224   7.284  12.437
   56DG      N7 1751   5.128   7.210  12.267
   56DG      C5 1752   5.023   7.266  12.186
   56DG      C6 1753   4.950   7.227  12.072
   56DG      O6 1754   4.947   7.119  12.017
   56DG      N1 1755   4.880   7.325  12.011
   56DG      H1 1756   4.836   7.317  11.921
   56DG      C2 1757   4.869   7.452  12.058
   56DG      N2 1758   4.793   7.536  11.990
   56DG     H21 1759   4.722   7.500  11.928
   56DG     H22 1760   4.780   7.617  12.048
   56DG      N3 1761   4.932   7.494  12.166
   56DG      C4 1762   5.011   7.398  12.226
   56DG     C3' 1763   5.172   7.664  12.587
   56DG     H3' 1764   5.253   7.670  12.659
   56DG     C2' 1765   5.145   7.522  12.560
   56DG    H2'1 1766   5.236   7.462  12.558
   56DG    H2'2 1767   5.073   7.478  12.629
   56DG     O3' 1768   5.053   7.727  12.636
   57DT       P 1769   5.060   7.874  12.703
   57DT     O1P 1770   5.143   7.957  12.613
   57DT     O2P 1771   5.084   7.849  12.846
   57DT     O5' 1772   4.909   7.920  12.696
   57DT     C5' 1773   4.851   7.968  12.572
   57DT    H5'1 1774   4.913   7.940  12.487
   57DT    H5'2 1775   4.843   8.077  12.572
   57DT     C4' 1776   4.722   7.895  12.541
   57DT     H4' 1777   4.668   7.949  12.463
   57DT     O4' 1778   4.743   7.766  12.484
   57DT     C1' 1779   4.650   7.672  12.547
   57DT     H1' 1780   4.547   7.674  12.511
   57DT      N1 1781   4.701   7.538  12.507
   57DT      C6 1782   4.772   7.452  12.584
   57DT      H6 1783   4.822   7.480  12.676
   57DT      C5 1784   4.804   7.325  12.541
   57DT      C7 1785   4.889   7.230  12.621
   57DT     H71 1786   4.837   7.137  12.644
   57DT     H72 1787   4.973   7.203  12.557
   57DT     H73 1788   4.926   7.266  12.717
   57DT      C4 1789   4.747   7.279  12.417
   57DT      O4 1790   4.774   7.170  12.357
   57DT      N3 1791   4.666   7.359  12.342
   57DT      H3 1792   4.623   7.328  12.256
   57DT      C2 1793   4.651   7.491  12.380
   57DT      O2 1794   4.588   7.561  12.302
   57DT     C3' 1795   4.630   7.864  12.653
   57DT     H3' 1796   4.655   7.921  12.743
   57DT     C2' 1797   4.653   7.719  12.691
   57DT    H2'1 1798   4.753   7.698  12.730
   57DT    H2'2 1799   4.572   7.687  12.757
   57DT     O3' 1800   4.493   7.891  12.636
   58DG       P 1801   4.427   8.017  12.700
   58DG     O1P 1802   4.494   8.138  12.651
   58DG     O2P 1803   4.413   7.988  12.846
   58DG     O5' 1804   4.277   8.025  12.644
   58DG     C5' 1805   4.249   8.010  12.504
   58DG    H5'1 1806   4.340   7.979  12.452
   58DG    H5'2 1807   4.214   8.102  12.457
   58DG     C4' 1808   4.146   7.900  12.480
   58DG     H4' 1809   4.097   7.931  12.388
   58DG     O4' 1810   4.214   7.780  12.449
   58DG     C1' 1811   4.151   7.673  12.514
   58DG     H1' 1812   4.084   7.625  12.443
   58DG      N9 1813   4.258   7.579  12.545
   58DG      C8 1814   4.350   7.583  12.647
   58DG      H8 1815   4.369   7.668  12.711
   58DG      N7 1816   4.420   7.474  12.650
   58DG      C5 1817   4.365   7.394  12.544
   58DG      C6 1818   4.395   7.262  12.500
   58DG      O6 1819   4.488   7.195  12.544
   58DG      N1 1820   4.308   7.215  12.408
   58DG      H1 1821   4.317   7.120  12.374
   58DG      C2 1822   4.217   7.288  12.338
   58DG      N2 1823   4.160   7.232  12.239
   58DG     H21 1824   4.176   7.133  12.224
   58DG     H22 1825   4.119   7.287  12.165
   58DG      N3 1826   4.197   7.418  12.365
   58DG      C4 1827   4.274   7.462  12.474
   58DG     C3' 1828   4.036   7.863  12.584
   58DG     H3' 1829   4.039   7.932  12.669
   58DG     C2' 1830   4.074   7.722  12.635
   58DG    H2'1 1831   4.138   7.728  12.722
   58DG    H2'2 1832   3.990   7.657  12.662
   58DG     O3' 1833   3.909   7.865  12.517
   59DC       P 1834   3.772   7.818  12.587
   59DC     O1P 1835   3.664   7.905  12.538
   59DC     O2P 1836   3.799   7.823  12.728
   59DC     O5' 1837   3.754   7.665  12.532
   59DC     C5' 1838   3.728   7.646  12.393
   59DC    H5'1 1839   3.819   7.680  12.342
   59DC    H5'2 1840   3.649   7.714  12.361
   59DC     C4' 1841   3.680   7.506  12.336
   59DC     H4' 1842   3.646   7.531  12.235
   59DC     O4' 1843   3.781   7.402  12.330
   59DC     C1' 1844   3.745   7.310  12.440
   59DC     H1' 1845   3.697   7.222  12.395
   59DC      N1 1846   3.860   7.272  12.521
   59DC      C6 1847   3.903   7.349  12.619
   59DC      H6 1848   3.854   7.443  12.638
   59DC      C5 1849   4.004   7.314  12.700
   59DC      H5 1850   4.041   7.375  12.782
   59DC      C4 1851   4.054   7.184  12.676
   59DC      N4 1852   4.156   7.149  12.745
   59DC     H41 1853   4.212   7.072  12.712
   59DC     H42 1854   4.189   7.210  12.818
   59DC      N3 1855   4.021   7.108  12.575
   59DC      C2 1856   3.927   7.158  12.489
   59DC      O2 1857   3.906   7.092  12.384
   59DC     C3' 1858   3.553   7.452  12.417
   59DC     H3' 1859   3.497   7.536  12.457
   59DC     C2' 1860   3.629   7.371  12.519
   59DC    H2'1 1861   3.662   7.432  12.603
   59DC    H2'2 1862   3.558   7.296  12.554
   59DC     O3' 1863   3.479   7.374  12.323
   60DG       P 1864   3.344   7.314  12.366
   60DG     O1P 1865   3.252   7.303  12.251
   60DG     O2P 1866   3.300   7.405  12.475
   60DG     O5' 1867   3.387   7.170  12.416
   60DG     C5' 1868   3.437   7.068  12.328
   60DG    H5'1 1869   3.499   7.105  12.247
   60DG    H5'2 1870   3.353   7.024  12.274
   60DG     C4' 1871   3.510   6.952  12.403
   60DG     H4' 1872   3.549   6.889  12.323
   60DG     O4' 1873   3.611   7.012  12.482
   60DG     C1' 1874   3.650   6.912  12.569
   60DG     H1' 1875   3.708   6.840  12.511
   60DG      N9 1876   3.730   6.972  12.677
   60DG      C8 1877   3.702   7.094  12.744
   60DG      H8 1878   3.616   7.156  12.720
   60DG      N7 1879   3.771   7.112  12.852
   60DG      C5 1880   3.852   6.992  12.854
   60DG      C6 1881   3.964   6.956  12.936
   60DG      O6 1882   4.020   7.024  13.022
   60DG      N1 1883   4.019   6.831  12.925
   60DG      H1 1884   4.104   6.802  12.972
   60DG      C2 1885   3.973   6.749  12.828
   60DG      N2 1886   4.032   6.642  12.827
   60DG     H21 1887   4.122   6.638  12.874
   60DG     H22 1888   4.005   6.571  12.761
   60DG      N3 1889   3.875   6.773  12.740
   60DG      C4 1890   3.817   6.899  12.755
   60DG     C3' 1891   3.426   6.877  12.507
   60DG     H3' 1892   3.348   6.944  12.542
   60DG     C2' 1893   3.528   6.842  12.613
   60DG    H2'1 1894   3.495   6.885  12.708
   60DG    H2'2 1895   3.552   6.736  12.623
   60DG     O3' 1896   3.366   6.761  12.454
   61DT       P 1897   3.289   6.653  12.548
   61DT     O1P 1898   3.189   6.582  12.470
   61DT     O2P 1899   3.244   6.726  12.671
   61DT     O5' 1900   3.411   6.560  12.591
   61DT     C5' 1901   3.483   6.486  12.495
   61DT    H5'1 1902   3.557   6.549  12.445
   61DT    H5'2 1903   3.415   6.449  12.418
   61DT     C4' 1904   3.537   6.363  12.557
   61DT     H4' 1905   3.566   6.292  12.480
   61DT     O4' 1906   3.646   6.389  12.647
   61DT     C1' 1907   3.609   6.354  12.776
   61DT     H1' 1908   3.674   6.268  12.792
   61DT      N1 1909   3.649   6.461  12.868
   61DT      C6 1910   3.579   6.576  12.879
   61DT      H6 1911   3.495   6.596  12.814
   61DT      C5 1912   3.605   6.677  12.964
   61DT      C7 1913   3.518   6.796  12.977
   61DT     H71 1914   3.500   6.819  13.082
   61DT     H72 1915   3.562   6.886  12.935
   61DT     H73 1916   3.424   6.775  12.925
   61DT      C4 1917   3.726   6.670  13.053
   61DT      O4 1918   3.760   6.759  13.131
   61DT      N3 1919   3.802   6.560  13.021
   61DT      H3 1920   3.899   6.564  13.050
   61DT      C2 1921   3.775   6.456  12.931
   61DT      O2 1922   3.857   6.368  12.921
   61DT     C3' 1923   3.427   6.281  12.632
   61DT     H3' 1924   3.327   6.317  12.607
   61DT     C2' 1925   3.456   6.315  12.774
   61DT    H2'1 1926   3.394   6.401  12.802
   61DT    H2'2 1927   3.433   6.242  12.852
   61DT     O3' 1928   3.451   6.146  12.598
   62DG       P 1929   3.414   6.016  12.688
   62DG     O1P 1930   3.419   5.899  12.592
   62DG     O2P 1931   3.295   6.049  12.763
   62DG     O5' 1932   3.540   6.011  12.787
   62DG     C5' 1933   3.676   5.982  12.755
   62DG    H5'1 1934   3.710   6.080  12.720
   62DG    H5'2 1935   3.684   5.918  12.668
   62DG     C4' 1936   3.762   5.933  12.870
   62DG     H4' 1937   3.857   5.893  12.834
   62DG     O4' 1938   3.769   6.049  12.954
   62DG     C1' 1939   3.720   6.019  13.088
   62DG     H1' 1940   3.803   5.989  13.151
   62DG      N9 1941   3.670   6.148  13.140
   62DG      C8 1942   3.547   6.200  13.124
   62DG      H8 1943   3.480   6.155  13.051
   62DG      N7 1944   3.545   6.329  13.159
   62DG      C5 1945   3.657   6.350  13.239
   62DG      C6 1946   3.698   6.453  13.332
   62DG      O6 1947   3.650   6.561  13.351
   62DG      N1 1948   3.825   6.430  13.384
   62DG      H1 1949   3.870   6.502  13.439
   62DG      C2 1950   3.896   6.319  13.364
   62DG      N2 1951   4.013   6.320  13.422
   62DG     H21 1952   4.033   6.400  13.480
   62DG     H22 1953   4.060   6.232  13.441
   62DG      N3 1954   3.851   6.210  13.300
   62DG      C4 1955   3.731   6.233  13.238
   62DG     C3' 1956   3.691   5.831  12.953
   62DG     H3' 1957   3.611   5.783  12.896
   62DG     C2' 1958   3.624   5.907  13.066
   62DG    H2'1 1959   3.529   5.944  13.026
   62DG    H2'2 1960   3.611   5.848  13.157
   62DG     O3' 1961   3.778   5.746  13.008
   63DC       P 1962   3.743   5.613  13.096
   63DC     O1P 1963   3.810   5.496  13.032
   63DC     O2P 1964   3.596   5.602  13.126
   63DC     O5' 1965   3.819   5.643  13.227
   63DC     C5' 1966   3.960   5.668  13.234
   63DC    H5'1 1967   3.979   5.753  13.170
   63DC    H5'2 1968   4.010   5.575  13.207
   63DC     C4' 1969   4.007   5.710  13.382
   63DC     H4' 1970   4.116   5.705  13.390
   63DC     O4' 1971   3.976   5.847  13.415
   63DC     C1' 1972   3.909   5.849  13.536
   63DC     H1' 1973   3.974   5.865  13.622
   63DC      N1 1974   3.791   5.950  13.529
   63DC      C6 1975   3.682   5.925  13.450
   63DC      H6 1976   3.681   5.833  13.393
   63DC      C5 1977   3.581   6.016  13.439
   63DC      H5 1978   3.498   6.012  13.369
   63DC      C4 1979   3.597   6.132  13.518
   63DC      N4 1980   3.505   6.222  13.508
   63DC     H41 1981   3.529   6.313  13.543
   63DC     H42 1982   3.423   6.208  13.451
   63DC      N3 1983   3.711   6.167  13.577
   63DC      C2 1984   3.813   6.078  13.577
   63DC      O2 1985   3.911   6.112  13.644
   63DC     C3' 1986   3.966   5.626  13.501
   63DC     H3' 1987   3.928   5.532  13.462
   63DC     C2' 1988   3.852   5.710  13.559
   63DC    H2'1 1989   3.764   5.684  13.499
   63DC    H2'2 1990   3.830   5.685  13.663
   63DC     O3' 1991   4.076   5.612  13.588
   64DG3      P 1992   4.073   5.542  13.731
   64DG3    O1P 1993   4.206   5.491  13.761
   64DG3    O2P 1994   3.970   5.438  13.719
   64DG3    O5' 1995   4.031   5.650  13.833
   64DG3    C5' 1996   4.118   5.763  13.844
   64DG3   H5'1 1997   4.129   5.801  13.743
   64DG3   H5'2 1998   4.217   5.731  13.877
   64DG3    C4' 1999   4.071   5.871  13.939
   64DG3    H4' 2000   4.154   5.937  13.960
   64DG3    O4' 2001   3.960   5.933  13.880
   64DG3    C1' 2002   3.860   5.940  13.981
   64DG3    H1' 2003   3.875   6.010  14.063
   64DG3     N9 2004   3.726   5.956  13.919
   64DG3     C8 2005   3.645   5.868  13.847
   64DG3     H8 2006   3.676   5.765  13.839
   64DG3     N7 2007   3.537   5.919  13.794
   64DG3     C5 2008   3.540   6.053  13.850
   64DG3     C6 2009   3.445   6.161  13.848
   64DG3     O6 2010   3.335   6.162  13.801
   64DG3     N1 2011   3.484   6.270  13.922
   64DG3     H1 2012   3.433   6.356  13.911
   64DG3     C2 2013   3.607   6.286  13.975
   64DG3     N2 2014   3.641   6.399  14.032
   64DG3    H21 2015   3.588   6.483  14.014
   64DG3    H22 2016   3.737   6.401  14.063
   64DG3     N3 2017   3.695   6.190  13.987
   64DG3     C4 2018   3.654   6.074  13.927
   64DG3    C3' 2019   4.034   5.812  14.076
   64DG3    H3' 2020   4.082   5.717  14.097
   64DG3    C2' 2021   3.879   5.803  14.061
   64DG3   H2'1 2022   3.848   5.715  14.005
   64DG3   H2'2 2023   3.834   5.810  14.160
   64DG3    O3' 2024   4.073   5.903  14.175
   64DG3    H3T 2025   4.169   5.907  14.185
   65SOL     OW 2026   7.983  10.424   3.302
   65SOL    HW1 2027   7.897  10.441   3.342
   65SOL    HW2 2028   7.965  10.413   3.209
   66SOL     OW 2029   2.009   1.445   1.823
   66SOL    HW1 2030   2.005   1.352   1.845
   66SOL    HW2 2031   2.090   1.455   1.773
   67SOL     OW 2032   6.271  12.782  11.859
   67SOL    HW1 2033   6.299  12.866  11.822
   67SOL    HW2 2034   6.344  12.755  11.915
   68SOL     OW 2035   8.581  13.855   9.715
   68SOL    HW1 2036   8.530  13.774   9.704
   68SOL    HW2 2037   8.670  13.824   9.734
   69SOL     OW 2038   1.570  13.361  14.293
   69SOL    HW1 2039   1.534  13.440  14.334
   69SOL    HW2 2040   1.646  13.339  14.346
   70SOL     OW 2041   7.035   8.941   9.175
   70SOL    HW1 2042   7.016   8.936   9.268
   70SOL    HW2 2043   7.033   8.850   9.144
   71SOL     OW 2044   6.320   5.810  12.242
   71SOL    HW1 2045   6.235   5.785  12.279
   71SOL    HW2 2046   6.355   5.729  12.205
   72SOL     OW 2047   9.936   1.771   7.839
   72SOL    HW1 2048   9.900   1.834   7.902
   72SOL    HW2 2049   9.923   1.685   7.881
   73SOL     OW 2050  12.893   1.036  14.023
   73SOL    HW1 2051  12.843   1.003  13.949
   73SOL    HW2 2052  12.853   1.120  14.044
   74SOL     OW 2053  12.298  11.904  13.139
   74SOL    HW1 2054  12.359  11.931  13.070
   74SOL    HW2 2055  12.322  11.958  13.214
   75SOL     OW 2056   2.970   6.486   0.132
   75SOL    HW1 2057   3.050   6.452   0.093
   75SOL    HW2 2058   2.996   6.518   0.219
   76SOL     OW 2059  14.117  14.373  14.757
   76SOL    HW1 2060  14.083  14.287  14.783
   76SOL    HW2 2061  14.212  14.361  14.751
   77SOL     OW 2062   8.217   4.280  14.094
   77SOL    HW1 2063   8.191   4.195  14.129
   77SOL    HW2 2064   8.137   4.333  14.099
   78SOL     OW 2065  11.816   5.491   8.407
   78SOL    HW1 2066  11.884   5.482   8.340
   78SOL    HW2 2067  11.847   5.560   8.465
   79SOL     OW 2068   7.470   4.507   4.098
   79SOL    HW1 2069   7.530   4.578   4.119
   79SOL    HW2 2070   7.481   4.444   4.170
   80SOL     OW 2071  10.950  12.738   0.560
   80SOL    HW1 2072  10.942  12.742   0.655
   80SOL    HW2 2073  10.918  12.823   0.530
   81SOL     OW 2074   6.094  11.527  13.654
   81SOL    HW1 2075   6.098  11.518  13.750
   81SOL    HW2 2076   6.173  11.484  13.623
   82SOL     OW 2077  12.612  12.104   7.330
   82SOL    HW1 2078  12.568  12.185   7.356
   82SOL    HW2 2079  12.633  12.117   7.238
   83SOL     OW 2080   0.274   2.557   4.801
   83SOL    HW1 2081   0.362   2.594   4.803
   83SOL    HW2 2082   0.258   2.538   4.709
   84SOL     OW 2083   9.249   6.351  12.794
   84SOL    HW1 2084   9.206   6.311  12.719
   84SOL    HW2 2085   9.251   6.445  12.774
   85SOL     OW 2086  10.811   2.850   4.574
   85SOL    HW1 2087  10.890   2.816   4.533
   85SOL    HW2 2088  10.838   2.877   4.662
   86SOL     OW 2089  12.206   8.757   4.201
   86SOL    HW1 2090  12.132   8.801   4.160
   86SOL    HW2 2091  12.238   8.820   4.266
   87SOL     OW 2092   7.181   1.759  13.669
   87SOL    HW1 2093   7.249   1.761  13.602
   87SOL    HW2 2094   7.171   1.850  13.696
   88SOL     OW 2095  14.515   5.799  11.042
   88SOL    HW1 2096  14.431   5.806  10.998
   88SOL    HW2 2097  14.493   5.765  11.129
   89SOL     OW 2098   3.997  14.499   9.573
   89SOL    HW1 2099   3.965  14.581   9.535
   89SOL    HW2 2100   4.092  14.509   9.574
   90SOL     OW 2101   4.980   4.881   5.766
   90SOL    HW1 2102   4.972   4.786   5.777
   90SOL    HW2 2103   5.068   4.901   5.799
   91SOL     OW 2104   4.943   9.964   3.770
   91SOL    HW1 2105   4.851   9.936   3.771
   91SOL    HW2 2106   4.979   9.926   3.691
   92SOL     OW 2107  10.423   0.697   8.724
   92SOL    HW1 2108  10.364   0.634   8.683
   92SOL    HW2 2109  10.500   0.697   8.667
   93SOL     OW 2110  10.967   0.345  12.168
   93SOL    HW1 2111  11.032   0.279  12.144
   93SOL    HW2 2112  10.998   0.381  12.251
   94SOL     OW 2113   1.048   0.156   7.007
   94SOL    HW1 2114   1.034   0.128   6.916
   94SOL    HW2 2115   1.137   0.191   7.008
   95SOL     OW 2116   0.344   1.604   3.672
   95SOL    HW1 2117   0.286   1.546   3.622
   95SOL    HW2 2118   0.431   1.589   3.634
   96SOL     OW 2119   8.379   4.925   3.042
   96SOL    HW1 2120   8.390   4.871   2.964
   96SOL    HW2 2121   8.291   4.961   3.035
   97SOL     OW 2122  11.945  10.047   6.297
   97SOL    HW1 2123  11.871  10.044   6.358
   97SOL    HW2 2124  12.016  10.002   6.344
   98SOL     OW 2125  11.054  11.897   8.537
   98SOL    HW1 2126  11.049  11.991   8.521
   98SOL    HW2 2127  10.963  11.870   8.554
   99SOL     OW 2128  13.533   8.799   7.850
   99SOL    HW1 2129  13.448   8.779   7.889
   99SOL    HW2 2130  13.597   8.775   7.917
  100SOL     OW 2131   1.576   2.276  14.279
  100SOL    HW1 2132   1.488   2.288  14.313
  100SOL    HW2 2133   1.579   2.185  14.251
  101SOL     OW 2134   6.713   4.416   6.383
  101SOL    HW1 2135   6.649   4.485   6.402
  101SOL    HW2 2136   6.792   4.445   6.428
  102SOL     OW 2137   2.646   9.726  10.292
  102SOL    HW1 2138   2.742   9.732  10.290
  102SOL    HW2 2139   2.627   9.635  10.272
  103SOL     OW 2140   5.203   0.029  12.862
  103SOL    HW1 2141   5.174  14.826  12.908
  103SOL    HW2 2142   5.244   0.083  12.931
  104SOL     OW 2143   1.958  12.283  13.066
  104SOL    HW1 2144   1.909  12.205  13.092
  104SOL    HW2 2145   1.918  12.355  13.116
  105SOL     OW 2146  13.329   4.949   6.163
  105SOL    HW1 2147  13.243   4.986   6.185
  105SOL    HW2 2148  13.391   5.017   6.188
  106SOL     OW 2149   1.278  10.158  11.765
  106SOL    HW1 2150   1.185  10.182  11.766
  106SOL    HW2 2151   1.312  10.200  11.686
  107SOL     OW 2152   3.189  10.673   0.035
  107SOL    HW1 2153   3.198  10.672   0.130
  107SOL    HW2 2154   3.276  10.696   0.002
  108SOL     OW 2155  12.213   5.222   3.517
  108SOL    HW1 2156  12.161   5.171   3.454
  108SOL    HW2 2157  12.153   5.236   3.591
  109SOL     OW 2158  14.598  10.801  11.063
  109SOL    HW1 2159  14.680  10.767  11.026
  109SOL    HW2 2160  14.586  10.751  11.144
  110SOL     OW 2161   0.215   9.082   0.210
  110SOL    HW1 2162   0.299   9.127   0.219
  110SOL    HW2 2163   0.238   8.989   0.206
  111SOL     OW 2164   1.092   9.221   3.777
  111SOL    HW1 2165   1.040   9.278   3.721
  111SOL    HW2 2166   1.110   9.273   3.855
  112SOL     OW 2167   5.230   5.885  10.714
  112SOL    HW1 2168   5.250   5.889  10.620
  112SOL    HW2 2169   5.270   5.964  10.750
  113SOL     OW 2170   1.412   1.026   4.176
  113SOL    HW1 2171   1.400   1.020   4.271
  113SOL    HW2 2172   1.489   0.972   4.158
  114SOL     OW 2173   8.139   3.823  14.717
  114SOL    HW1 2174   8.124   3.852  14.807
  114SOL    HW2 2175   8.142   3.728  14.722
  115SOL     OW 2176  13.873   2.152  14.541
  115SOL    HW1 2177  13.949   2.097  14.521
  115SOL    HW2 2178  13.799   2.092  14.546
  116SOL     OW 2179  12.445   8.174   9.812
  116SOL    HW1 2180  12.514   8.176   9.745
  116SOL    HW2 2181  12.431   8.081   9.829
  117SOL     OW 2182   2.954   8.121  10.447
  117SOL    HW1 2183   3.033   8.068  10.449
  117SOL    HW2 2184   2.882   8.058  10.446
  118SOL     OW 2185  12.500  12.568   5.020
  118SOL    HW1 2186  12.428  12.577   4.958
  118SOL    HW2 2187  12.578  12.590   4.970
  119SOL     OW 2188   1.466  13.880   1.698
  119SOL    HW1 2189   1.420  13.950   1.744
  119SOL    HW2 2190   1.528  13.926   1.640
  120SOL     OW 2191   5.865   3.976  13.945
  120SOL    HW1 2192   5.776   3.971  13.909
  120SOL    HW2 2193   5.859   3.935  14.031
  121SOL     OW 2194   0.072   7.228   5.057
  121SOL    HW1 2195   0.162   7.259   5.056
  121SOL    HW2 2196   0.031   7.272   5.131
  122SOL     OW 2197   3.102   9.385  14.375
  122SOL    HW1 2198   3.117   9.478  14.392
  122SOL    HW2 2199   3.099   9.379  14.280
  123SOL     OW 2200   9.329  11.279  13.498
  123SOL    HW1 2201   9.347  11.185  13.492
  123SOL    HW2 2202   9.235  11.286  13.481
  124SOL     OW 2203   2.536   2.390   1.442
  124SOL    HW1 2204   2.544   2.460   1.377
  124SOL    HW2 2205   2.539   2.436   1.526
  125SOL     OW 2206   4.254  10.002   9.559
  125SOL    HW1 2207   4.239  10.058   9.635
  125SOL    HW2 2208   4.349  10.000   9.549
  126SOL     OW 2209  11.408   8.739   4.899
  126SOL    HW1 2210  11.353   8.671   4.860
  126SOL    HW2 2211  11.473   8.758   4.831
  127SOL     OW 2212   9.943  11.640  11.965
  127SOL    HW1 2213   9.872  11.646  11.901
  127SOL    HW2 2214   9.903  11.595  12.040
  128SOL     OW 2215   8.209   6.543   5.562
  128SOL    HW1 2216   8.220   6.470   5.501
  128SOL    HW2 2217   8.297   6.561   5.594
  129SOL     OW 2218   5.176   6.353  12.996
  129SOL    HW1 2219   5.123   6.372  12.919
  129SOL    HW2 2220   5.120   6.376  13.070
  130SOL     OW 2221   5.048   8.053   3.408
  130SOL    HW1 2222   5.097   7.973   3.430
  130SOL    HW2 2223   4.957   8.033   3.431
  131SOL     OW 2224  12.743  11.625   1.838
  131SOL    HW1 2225  12.683  11.559   1.875
  131SOL    HW2 2226  12.811  11.636   1.904
  132SOL     OW 2227   9.616  14.113  11.197
  132SOL    HW1 2228   9.554  14.051  11.159
  132SOL    HW2 2229   9.661  14.063  11.265
  133SOL     OW 2230   5.224   8.164   7.303
  133SOL    HW1 2231   5.319   8.163   7.297
  133SOL    HW2 2232   5.194   8.159   7.212
  134SOL     OW 2233   3.634   0.358  11.691
  134SOL    HW1 2234   3.703   0.292  11.700
  134SOL    HW2 2235   3.655   0.404  11.609
  135SOL     OW 2236   0.376   7.876   4.345
  135SOL    HW1 2237   0.417   7.826   4.274
  135SOL    HW2 2238   0.383   7.818   4.421
  136SOL     OW 2239  11.786   2.195  14.044
  136SOL    HW1 2240  11.836   2.202  13.963
  136SOL    HW2 2241  11.767   2.102  14.052
  137SOL     OW 2242   2.028   6.833   3.235
  137SOL    HW1 2243   2.045   6.755   3.183
  137SOL    HW2 2244   2.103   6.890   3.219
  138SOL     OW 2245   0.645   1.344   4.098
  138SOL    HW1 2246   0.555   1.345   4.066
  138SOL    HW2 2247   0.661   1.254   4.124
  139SOL     OW 2248   9.679   4.232  13.038
  139SOL    HW1 2249   9.658   4.243  12.945
  139SOL    HW2 2250   9.622   4.161  13.068
  140SOL     OW 2251   1.662  14.470   1.293
  140SOL    HW1 2252   1.602  14.417   1.240
  140SOL    HW2 2253   1.714  14.518   1.229
  141SOL     OW 2254   9.580   7.279   6.351
  141SOL    HW1 2255   9.598   7.232   6.432
  141SOL    HW2 2256   9.666   7.294   6.312
  142SOL     OW 2257  12.703   2.739   6.360
  142SOL    HW1 2258  12.752   2.815   6.389
  142SOL    HW2 2259  12.615   2.752   6.397
  143SOL     OW 2260  11.851   2.833   5.746
  143SOL    HW1 2261  11.930   2.869   5.786
  143SOL    HW2 2262  11.850   2.869   5.657
  144SOL     OW 2263  12.297  12.961  10.667
  144SOL    HW1 2264  12.388  12.979  10.642
  144SOL    HW2 2265  12.304  12.910  10.747
  145SOL     OW 2266   1.532   6.152   4.872
  145SOL    HW1 2267   1.592   6.103   4.816
  145SOL    HW2 2268   1.570   6.240   4.875
  146SOL     OW 2269   1.396  13.754   0.102
  146SOL    HW1 2270   1.372  13.738   0.194
  146SOL    HW2 2271   1.346  13.832   0.078
  147SOL     OW 2272   4.034  14.548  13.616
  147SOL    HW1 2273   4.077  14.465  13.595
  147SOL    HW2 2274   3.992  14.575  13.535
  148SOL     OW 2275   7.838  14.657   6.724
  148SOL    HW1 2276   7.818  14.598   6.797
  148SOL    HW2 2277   7.843  14.743   6.764
  149SOL     OW 2278  10.026   0.854  14.598
  149SOL    HW1 2279  10.046   0.937  14.641
  149SOL    HW2 2280   9.932   0.857  14.581
  150SOL     OW 2281   4.592   9.221   9.945
  150SOL    HW1 2282   4.639   9.139   9.958
  150SOL    HW2 2283   4.506   9.194   9.910
  151SOL     OW 2284   1.824   0.374   0.633
  151SOL    HW1 2285   1.886   0.321   0.585
  151SOL    HW2 2286   1.751   0.315   0.652
  152SOL     OW 2287  10.610   9.998  14.606
  152SOL    HW1 2288  10.536   9.984  14.665
  152SOL    HW2 2289  10.576  10.053  14.536
  153SOL     OW 2290   7.046  12.071   8.793
  153SOL    HW1 2291   6.980  12.058   8.725
  153SOL    HW2 2292   7.072  11.983   8.819
  154SOL     OW 2293   8.326   1.842   9.883
  154SOL    HW1 2294   8.287   1.896   9.814
  154SOL    HW2 2295   8.395   1.792   9.837
  155SOL     OW 2296   1.220   6.170   9.911
  155SOL    HW1 2297   1.168   6.091   9.922
  155SOL    HW2 2298   1.218   6.212   9.997
  156SOL     OW 2299  11.802   6.032  14.632
  156SOL    HW1 2300  11.842   5.980  14.563
  156SOL    HW2 2301  11.718   5.989  14.649
  157SOL     OW 2302   5.030   5.694  11.529
  157SOL    HW1 2303   5.049   5.638  11.454
  157SOL    HW2 2304   5.004   5.778  11.491
  158SOL     OW 2305   7.987   4.561   3.764
  158SOL    HW1 2306   8.038   4.573   3.684
  158SOL    HW2 2307   7.905   4.520   3.735
  159SOL     OW 2308  11.325  11.940   5.331
  159SOL    HW1 2309  11.239  11.978   5.318
  159SOL    HW2 2310  11.383  11.989   5.274
  160SOL     OW 2311   3.564   4.876  11.151
  160SOL    HW1 2312   3.501   4.944  11.172
  160SOL    HW2 2313   3.649   4.916  11.167
  161SOL     OW 2314  12.544   8.004  12.593
  161SOL    HW1 2315  12.495   8.084  12.574
  161SOL    HW2 2316  12.501   7.967  12.670
  162SOL     OW 2317   2.318   2.011   6.901
  162SOL    HW1 2318   2.318   2.050   6.988
  162SOL    HW2 2319   2.401   1.963   6.897
  163SOL     OW 2320   4.822   2.719   7.818
  163SOL    HW1 2321   4.867   2.643   7.779
  163SOL    HW2 2322   4.729   2.696   7.813
  164SOL     OW 2323   5.290   7.264   2.070
  164SOL    HW1 2324   5.382   7.267   2.042
  164SOL    HW2 2325   5.241   7.258   1.988
  165SOL     OW 2326   4.072  12.445   5.009
  165SOL    HW1 2327   4.036  12.527   5.043
  165SOL    HW2 2328   4.167  12.459   5.012
  166SOL     OW 2329   4.139   1.083   7.083
  166SOL    HW1 2330   4.090   1.094   7.001
  166SOL    HW2 2331   4.108   1.154   7.139
  167SOL     OW 2332   0.975   2.793  12.690
  167SOL    HW1 2333   0.929   2.849  12.753
  167SOL    HW2 2334   0.910   2.775  12.622
  168SOL     OW 2335  13.882   4.170   6.501
  168SOL    HW1 2336  13.855   4.262   6.495
  168SOL    HW2 2337  13.978   4.174   6.499
  169SOL     OW 2338  10.379   1.020   4.247
  169SOL    HW1 2339  10.418   1.094   4.293
  169SOL    HW2 2340  10.359   0.957   4.316
  170SOL     OW 2341  12.363  10.184   6.125
  170SOL    HW1 2342  12.271  10.209   6.119
  170SOL    HW2 2343  12.409  10.246   6.068
  171SOL     OW 2344   7.647   4.756   6.286
  171SOL    HW1 2345   7.686   4.826   6.338
  171SOL    HW2 2346   7.667   4.676   6.335
  172SOL     OW 2347   5.684   9.966   2.768
  172SOL    HW1 2348   5.688   9.959   2.864
  172SOL    HW2 2349   5.731   9.889   2.737
  173SOL     OW 2350  12.344  11.312  10.274
  173SOL    HW1 2351  12.282  11.284  10.341
  173SOL    HW2 2352  12.337  11.244  10.206
  174SOL     OW 2353   8.608  11.590   4.264
  174SOL    HW1 2354   8.586  11.511   4.314
  174SOL    HW2 2355   8.523  11.625   4.237
  175SOL     OW 2356   4.761   9.442   2.562
  175SOL    HW1 2357   4.692   9.376   2.558
  175SOL    HW2 2358   4.755   9.487   2.477
  176SOL     OW 2359  13.414  12.136  11.605
  176SOL    HW1 2360  13.369  12.077  11.665
  176SOL    HW2 2361  13.415  12.220  11.649
  177SOL     OW 2362   0.971   0.019   3.390
  177SOL    HW1 2363   1.061  14.865   3.381
  177SOL    HW2 2364   0.967   0.099   3.336
  178SOL     OW 2365   3.314   9.840  11.552
  178SOL    HW1 2366   3.397   9.887  11.562
  178SOL    HW2 2367   3.313   9.778  11.625
  179SOL     OW 2368   0.494   2.973  10.924
  179SOL    HW1 2369   0.532   2.975  11.012
  179SOL    HW2 2370   0.413   3.023  10.931
  180SOL     OW 2371  12.735  11.119   3.876
  180SOL    HW1 2372  12.690  11.035   3.881
  180SOL    HW2 2373  12.737  11.151   3.966
  181SOL     OW 2374   9.983   9.813  14.801
  181SOL    HW1 2375   9.997   9.719  14.809
  181SOL    HW2 2376   9.888   9.823  14.800
  182SOL     OW 2377  11.812  11.161  12.710
  182SOL    HW1 2378  11.797  11.231  12.646
  182SOL    HW2 2379  11.731  11.110  12.710
  183SOL     OW 2380  13.673   1.904   8.337
  183SOL    HW1 2381  13.761   1.874   8.361
  183SOL    HW2 2382  13.628   1.914   8.420
  184SOL     OW 2383   9.529   0.036  10.019
  184SOL    HW1 2384   9.522   0.129   9.999
  184SOL    HW2 2385   9.570   0.033  10.106
  185SOL     OW 2386   3.112  14.144   1.728
  185SOL    HW1 2387   3.068  14.064   1.757
  185SOL    HW2 2388   3.056  14.179   1.659
  186SOL     OW 2389  10.410   9.410   3.509
  186SOL    HW1 2390  10.483   9.405   3.446
  186SOL    HW2 2391  10.433   9.484   3.565
  187SOL     OW 2392   6.497   8.068   5.458
  187SOL    HW1 2393   6.437   8.010   5.506
  187SOL    HW2 2394   6.550   8.009   5.405
  188SOL     OW 2395   4.150  10.964   7.193
  188SOL    HW1 2396   4.227  10.909   7.209
  188SOL    HW2 2397   4.100  10.915   7.127
  189SOL     OW 2398  11.147   8.115   7.211
  189SOL    HW1 2399  11.073   8.059   7.233
  189SOL    HW2 2400  11.210   8.101   7.282
  190SOL     OW 2401   5.067   2.288   7.308
  190SOL    HW1 2402   4.977   2.291   7.341
  190SOL    HW2 2403   5.093   2.380   7.301
  191SOL     OW 2404   8.745   6.962   2.087
  191SOL    HW1 2405   8.749   6.969   1.991
  191SOL    HW2 2406   8.652   6.965   2.107
  192SOL     OW 2407  10.321  12.641   9.940
  192SOL    HW1 2408  10.261  12.701   9.984
  192SOL    HW2 2409  10.272  12.609   9.864
  193SOL     OW 2410  14.274   4.782   9.344
  193SOL    HW1 2411  14.251   4.837   9.268
  193SOL    HW2 2412  14.358   4.818   9.374
  194SOL     OW 2413   1.273  11.068   7.474
  194SOL    HW1 2414   1.181  11.093   7.486
  194SOL    HW2 2415   1.308  11.066   7.563
  195SOL     OW 2416  11.299  12.554   1.482
  195SOL    HW1 2417  11.284  12.465   1.513
  195SOL    HW2 2418  11.385  12.551   1.440
  196SOL     OW 2419   3.720   9.413   6.105
  196SOL    HW1 2420   3.762   9.471   6.170
  196SOL    HW2 2421   3.671   9.350   6.158
  197SOL     OW 2422   1.627   7.749   3.368
  197SOL    HW1 2423   1.614   7.743   3.273
  197SOL    HW2 2424   1.706   7.699   3.385
  198SOL     OW 2425  10.190  14.278   6.114
  198SOL    HW1 2426  10.176  14.306   6.023
  198SOL    HW2 2427  10.234  14.352   6.155
  199SOL     OW 2428   8.813   1.714  13.641
  199SOL    HW1 2429   8.793   1.745  13.552
  199SOL    HW2 2430   8.821   1.794  13.693
  200SOL     OW 2431   1.708   5.571   9.233
  200SOL    HW1 2432   1.763   5.600   9.161
  200SOL    HW2 2433   1.768   5.562   9.307
  201SOL     OW 2434   7.591   7.997   7.861
  201SOL    HW1 2435   7.576   7.969   7.771
  201SOL    HW2 2436   7.672   8.046   7.858
  202SOL     OW 2437  10.957  11.387   2.547
  202SOL    HW1 2438  10.887  11.340   2.501
  202SOL    HW2 2439  11.022  11.320   2.567
  203SOL     OW 2440   2.623   3.395   6.394
  203SOL    HW1 2441   2.629   3.423   6.302
  203SOL    HW2 2442   2.701   3.341   6.408
  204SOL     OW 2443  11.125  10.237   9.895
  204SOL    HW1 2444  11.124  10.194   9.980
  204SOL    HW2 2445  11.052  10.299   9.899
  205SOL     OW 2446   1.125   8.937  12.808
  205SOL    HW1 2447   1.181   8.999  12.854
  205SOL    HW2 2448   1.180   8.900  12.739
  206SOL     OW 2449   2.561   8.440   1.318
  206SOL    HW1 2450   2.630   8.403   1.373
  206SOL    HW2 2451   2.608   8.490   1.251
  207SOL     OW 2452   2.517  14.513  10.696
  207SOL    HW1 2453   2.574  14.558  10.634
  207SOL    HW2 2454   2.560  14.525  10.781
  208SOL     OW 2455  10.462  14.017   0.083
  208SOL    HW1 2456  10.506  13.952   0.028
  208SOL    HW2 2457  10.486  13.992   0.172
  209SOL     OW 2458  11.305  14.692   4.304
  209SOL    HW1 2459  11.333  14.612   4.348
  209SOL    HW2 2460  11.381  14.749   4.307
  210SOL     OW 2461   3.690   7.346   4.299
  210SOL    HW1 2462   3.678   7.401   4.221
  210SOL    HW2 2463   3.615   7.287   4.300
  211SOL     OW 2464   1.403   6.404  11.011
  211SOL    HW1 2465   1.481   6.434  11.057
  211SOL    HW2 2466   1.417   6.428  10.920
  212SOL     OW 2467   6.838  10.183  14.428
  212SOL    HW1 2468   6.887  10.250  14.380
  212SOL    HW2 2469   6.874  10.186  14.517
  213SOL     OW 2470  10.953   5.361   7.128
  213SOL    HW1 2471  10.970   5.429   7.193
  213SOL    HW2 2472  10.895   5.402   7.064
  214SOL     OW 2473  12.928   0.357   8.103
  214SOL    HW1 2474  12.868   0.378   8.031
  214SOL    HW2 2475  13.015   0.379   8.070
  215SOL     OW 2476   1.961   5.564  14.701
  215SOL    HW1 2477   1.900   5.635  14.717
  215SOL    HW2 2478   1.994   5.540  14.787
  216SOL     OW 2479  13.823  12.274  10.224
  216SOL    HW1 2480  13.915  12.254  10.239
  216SOL    HW2 2481  13.804  12.348  10.282
  217SOL     OW 2482  11.332   2.817   7.417
  217SOL    HW1 2483  11.400   2.772   7.468
  217SOL    HW2 2484  11.380   2.884   7.369
  218SOL     OW 2485   3.128   2.800   0.069
  218SOL    HW1 2486   3.082   2.742   0.008
  218SOL    HW2 2487   3.213   2.814   0.028
  219SOL     OW 2488   7.796   5.385  14.340
  219SOL    HW1 2489   7.785   5.305  14.391
  219SOL    HW2 2490   7.707   5.416  14.324
  220SOL     OW 2491   4.281   5.125   1.301
  220SOL    HW1 2492   4.277   5.055   1.367
  220SOL    HW2 2493   4.362   5.172   1.321
  221SOL     OW 2494   2.666   1.840   3.732
  221SOL    HW1 2495   2.661   1.746   3.749
  221SOL    HW2 2496   2.600   1.855   3.664
  222SOL     OW 2497   4.028  13.686  10.760
  222SOL    HW1 2498   4.001  13.735  10.837
  222SOL    HW2 2499   3.989  13.734  10.687
  223SOL     OW 2500  11.065   1.744  14.272
  223SOL    HW1 2501  11.067   1.706  14.184
  223SOL    HW2 2502  10.972   1.747  14.294
  224SOL     OW 2503   4.638   6.774   1.472
  224SOL    HW1 2504   4.659   6.868   1.471
  224SOL    HW2 2505   4.576   6.763   1.400
  225SOL     OW 2506  12.873   1.628   1.514
  225SOL    HW1 2507  12.848   1.551   1.566
  225SOL    HW2 2508  12.875   1.596   1.424
  226SOL     OW 2509   7.496   9.576  11.900
  226SOL    HW1 2510   7.581   9.598  11.863
  226SOL    HW2 2511   7.451   9.661  11.910
  227SOL     OW 2512  12.495  10.225   8.682
  227SOL    HW1 2513  12.454  10.311   8.673
  227SOL    HW2 2514  12.587  10.244   8.701
  228SOL     OW 2515  10.161   2.109   7.635
  228SOL    HW1 2516  10.229   2.154   7.685
  228SOL    HW2 2517  10.081   2.159   7.653
  229SOL     OW 2518   4.070   3.689   4.527
  229SOL    HW1 2519   3.979   3.716   4.515
  229SOL    HW2 2520   4.079   3.671   4.620
  230SOL     OW 2521   2.937  13.614   7.926
  230SOL    HW1 2522   3.031  13.606   7.908
  230SOL    HW2 2523   2.897  13.625   7.839
  231SOL     OW 2524  10.957  10.559   9.381
  231SOL    HW1 2525  10.916  10.480   9.416
  231SOL    HW2 2526  10.930  10.561   9.289
  232SOL     OW 2527   5.926   4.711   9.736
  232SOL    HW1 2528   5.853   4.759   9.699
  232SOL    HW2 2529   5.952   4.761   9.813
  233SOL     OW 2530  11.603   9.154   5.857
  233SOL    HW1 2531  11.546   9.094   5.808
  233SOL    HW2 2532  11.689   9.144   5.816
  234SOL     OW 2533   9.992   0.166  11.153
  234SOL    HW1 2534  10.023   0.106  11.220
  234SOL    HW2 2535  10.036   0.248  11.172
  235SOL     OW 2536  10.878  10.444   0.490
  235SOL    HW1 2537  10.857  10.536   0.472
  235SOL    HW2 2538  10.964  10.446   0.532
  236SOL     OW 2539  11.134  14.130   5.679
  236SOL    HW1 2540  11.201  14.142   5.613
  236SOL    HW2 2541  11.180  14.091   5.753
  237SOL     OW 2542   2.486   8.741   3.906
  237SOL    HW1 2543   2.481   8.701   3.819
  237SOL    HW2 2544   2.476   8.668   3.967
  238SOL     OW 2545  12.143   6.594  10.374
  238SOL    HW1 2546  12.183   6.534  10.437
  238SOL    HW2 2547  12.217   6.628  10.323
  239SOL     OW 2548   0.084   7.863   2.364
  239SOL    HW1 2549  14.865   7.878   2.367
  239SOL    HW2 2550   0.098   7.817   2.281
  240SOL     OW 2551   3.374   5.348   1.287
  240SOL    HW1 2552   3.396   5.282   1.353
  240SOL    HW2 2553   3.322   5.301   1.222
  241SOL     OW 2554   7.706   9.740   7.156
  241SOL    HW1 2555   7.671   9.657   7.123
  241SOL    HW2 2556   7.757   9.716   7.233
  242SOL     OW 2557   5.158   5.184   1.058
  242SOL    HW1 2558   5.164   5.091   1.082
  242SOL    HW2 2559   5.143   5.229   1.140
  243SOL     OW 2560  12.207   4.556  12.347
  243SOL    HW1 2561  12.232   4.629  12.403
  243SOL    HW2 2562  12.247   4.479  12.388
  244SOL     OW 2563   7.271   3.938  12.533
  244SOL    HW1 2564   7.366   3.930  12.538
  244SOL    HW2 2565   7.254   4.031  12.549
  245SOL     OW 2566   4.623   1.039  12.633
  245SOL    HW1 2567   4.666   0.960  12.602
  245SOL    HW2 2568   4.677   1.069  12.706
  246SOL     OW 2569   2.903  12.576  13.153
  246SOL    HW1 2570   2.830  12.563  13.214
  246SOL    HW2 2571   2.863  12.618  13.077
  247SOL     OW 2572  11.807  14.650   1.065
  247SOL    HW1 2573  11.853  14.729   1.037
  247SOL    HW2 2574  11.868  14.579   1.049
  248SOL     OW 2575   1.902   6.248   7.211
  248SOL    HW1 2576   1.863   6.198   7.283
  248SOL    HW2 2577   1.886   6.340   7.235
  249SOL     OW 2578  14.613  14.608  13.548
  249SOL    HW1 2579  14.652  14.525  13.576
  249SOL    HW2 2580  14.572  14.644  13.627
  250SOL     OW 2581  10.594   8.196   8.247
  250SOL    HW1 2582  10.581   8.113   8.293
  250SOL    HW2 2583  10.607   8.171   8.156
  251SOL     OW 2584   1.998  11.186   2.663
  251SOL    HW1 2585   1.986  11.091   2.658
  251SOL    HW2 2586   2.006  11.204   2.757
  252SOL     OW 2587  11.008   4.276   6.340
  252SOL    HW1 2588  10.923   4.248   6.308
  252SOL    HW2 2589  11.071   4.240   6.278
  253SOL     OW 2590   1.833   0.637  11.553
  253SOL    HW1 2591   1.868   0.710  11.603
  253SOL    HW2 2592   1.849   0.560  11.607
  254SOL     OW 2593   5.527   4.464  10.073
  254SOL    HW1 2594   5.511   4.446   9.980
  254SOL    HW2 2595   5.440   4.475  10.111
  255SOL     OW 2596   0.498  14.571  12.096
  255SOL    HW1 2597   0.570  14.511  12.078
  255SOL    HW2 2598   0.433  14.552  12.028
  256SOL     OW 2599   2.253   7.520   4.177
  256SOL    HW1 2600   2.325   7.539   4.117
  256SOL    HW2 2601   2.265   7.429   4.201
  257SOL     OW 2602   7.422   0.024   3.518
  257SOL    HW1 2603   7.329   0.002   3.505
  257SOL    HW2 2604   7.457  14.827   3.568
  258SOL     OW 2605  10.672   1.301   4.838
  258SOL    HW1 2606  10.579   1.315   4.857
  258SOL    HW2 2607  10.672   1.242   4.763
  259SOL     OW 2608  10.047  10.878   8.717
  259SOL    HW1 2609  10.061  10.954   8.773
  259SOL    HW2 2610   9.976  10.829   8.759
  260SOL     OW 2611  12.847  13.409  14.603
  260SOL    HW1 2612  12.912  13.339  14.606
  260SOL    HW2 2613  12.882  13.477  14.661
  261SOL     OW 2614   2.217   6.296   1.291
  261SOL    HW1 2615   2.312   6.281   1.292
  261SOL    HW2 2616   2.204   6.370   1.349
  262SOL     OW 2617   8.882   6.232   8.351
  262SOL    HW1 2618   8.950   6.212   8.287
  262SOL    HW2 2619   8.876   6.153   8.405
  263SOL     OW 2620  12.829   8.405   7.175
  263SOL    HW1 2621  12.802   8.330   7.123
  263SOL    HW2 2622  12.853   8.472   7.111
  264SOL     OW 2623  13.784   5.499   7.057
  264SOL    HW1 2624  13.768   5.566   6.991
  264SOL    HW2 2625  13.810   5.548   7.135
  265SOL     OW 2626  10.673  14.661  12.771
  265SOL    HW1 2627  10.767  14.680  12.773
  265SOL    HW2 2628  10.647  14.661  12.863
  266SOL     OW 2629   2.173  10.183   5.525
  266SOL    HW1 2630   2.214  10.187   5.611
  266SOL    HW2 2631   2.114  10.259   5.522
  267SOL     OW 2632   8.384   4.979   4.305
  267SOL    HW1 2633   8.476   4.973   4.281
  267SOL    HW2 2634   8.383   5.037   4.382
  268SOL     OW 2635   6.863  10.038  12.466
  268SOL    HW1 2636   6.956  10.058  12.473
  268SOL    HW2 2637   6.839  10.066  12.377
  269SOL     OW 2638   9.521  13.822  14.341
  269SOL    HW1 2639   9.568  13.900  14.371
  269SOL    HW2 2640   9.490  13.780  14.422
  270SOL     OW 2641   9.470   7.992   5.934
  270SOL    HW1 2642   9.420   7.924   5.890
  270SOL    HW2 2643   9.462   7.971   6.028
  271SOL     OW 2644   3.218   8.536  13.363
  271SOL    HW1 2645   3.134   8.492  13.377
  271SOL    HW2 2646   3.202   8.627  13.389
  272SOL     OW 2647   5.145   1.574   4.934
  272SOL    HW1 2648   5.213   1.615   4.881
  272SOL    HW2 2649   5.140   1.484   4.902
  273SOL     OW 2650   4.468  11.266   5.666
  273SOL    HW1 2651   4.439  11.259   5.757
  273SOL    HW2 2652   4.490  11.176   5.641
  274SOL     OW 2653  14.222   9.793   7.063
  274SOL    HW1 2654  14.252   9.739   7.136
  274SOL    HW2 2655  14.248   9.745   6.985
  275SOL     OW 2656   9.380   8.397   7.871
  275SOL    HW1 2657   9.434   8.324   7.900
  275SOL    HW2 2658   9.442   8.464   7.844
  276SOL     OW 2659   0.496  13.952  11.816
  276SOL    HW1 2660   0.493  14.012  11.741
  276SOL    HW2 2661   0.590  13.942  11.834
  277SOL     OW 2662   8.233   0.473  12.104
  277SOL    HW1 2663   8.175   0.502  12.174
  277SOL    HW2 2664   8.254   0.553  12.055
  278SOL     OW 2665   5.652  11.634  12.768
  278SOL    HW1 2666   5.598  11.696  12.818
  278SOL    HW2 2667   5.655  11.672  12.680
  279SOL     OW 2668   6.515  10.178  12.937
  279SOL    HW1 2669   6.576  10.249  12.918
  279SOL    HW2 2670   6.510  10.176  13.032
  280SOL     OW 2671  12.375   1.692   4.042
  280SOL    HW1 2672  12.288   1.673   4.006
  280SOL    HW2 2673  12.424   1.726   3.967
  281SOL     OW 2674   0.603  13.663   2.583
  281SOL    HW1 2675   0.633  13.736   2.529
  281SOL    HW2 2676   0.510  13.679   2.597
  282SOL     OW 2677   2.765   0.895  10.464
  282SOL    HW1 2678   2.696   0.950  10.427
  282SOL    HW2 2679   2.794   0.841  10.392
  283SOL     OW 2680   0.350  14.246   8.133
  283SOL    HW1 2681   0.298  14.278   8.060
  283SOL    HW2 2682   0.394  14.323   8.168
  284SOL     OW 2683   4.188  14.272   5.574
  284SOL    HW1 2684   4.281  14.279   5.597
  284SOL    HW2 2685   4.157  14.197   5.623
  285SOL     OW 2686   5.529   1.557   5.548
  285SOL    HW1 2687   5.622   1.539   5.560
  285SOL    HW2 2688   5.514   1.638   5.597
  286SOL     OW 2689   7.741  10.763  10.784
  286SOL    HW1 2690   7.759  10.682  10.832
  286SOL    HW2 2691   7.667  10.742  10.727
  287SOL     OW 2692   7.496   9.052   8.391
  287SOL    HW1 2693   7.540   9.130   8.358
  287SOL    HW2 2694   7.469   9.074   8.480
  288SOL     OW 2695   7.083   2.199   2.128
  288SOL    HW1 2696   7.050   2.190   2.038
  288SOL    HW2 2697   7.100   2.109   2.156
  289SOL     OW 2698   4.197   6.174  10.899
  289SOL    HW1 2699   4.143   6.239  10.942
  289SOL    HW2 2700   4.184   6.094  10.950
  290SOL     OW 2701   2.966   7.772   6.528
  290SOL    HW1 2702   3.056   7.794   6.504
  290SOL    HW2 2703   2.913   7.817   6.462
  291SOL     OW 2704   9.069   3.219   7.752
  291SOL    HW1 2705   9.073   3.315   7.746
  291SOL    HW2 2706   9.154   3.194   7.789
  292SOL     OW 2707   8.619   7.330   3.321
  292SOL    HW1 2708   8.697   7.384   3.306
  292SOL    HW2 2709   8.654   7.243   3.341
  293SOL     OW 2710   0.059   4.866  13.593
  293SOL    HW1 2711   0.115   4.896  13.522
  293SOL    HW2 2712   0.028   4.780  13.565
  294SOL     OW 2713  10.492  12.795   5.696
  294SOL    HW1 2714  10.453  12.784   5.609
  294SOL    HW2 2715  10.578  12.753   5.688
  295SOL     OW 2716   4.354   5.789  13.559
  295SOL    HW1 2717   4.325   5.860  13.501
  295SOL    HW2 2718   4.400   5.833  13.630
  296SOL     OW 2719   4.735  11.860   9.442
  296SOL    HW1 2720   4.766  11.804   9.514
  296SOL    HW2 2721   4.761  11.948   9.468
  297SOL     OW 2722  12.899   3.887   1.480
  297SOL    HW1 2723  12.863   3.853   1.562
  297SOL    HW2 2724  12.945   3.812   1.442
  298SOL     OW 2725   5.287   6.465  11.922
  298SOL    HW1 2726   5.206   6.508  11.949
  298SOL    HW2 2727   5.345   6.537  11.897
  299SOL     OW 2728  11.567   9.626  13.346
  299SOL    HW1 2729  11.608   9.711  13.363
  299SOL    HW2 2730  11.526   9.602  13.429
  300SOL     OW 2731   4.023   5.064   8.721
  300SOL    HW1 2732   4.042   5.122   8.794
  300SOL    HW2 2733   3.952   5.008   8.752
  301SOL     OW 2734   4.419  14.732   0.784
  301SOL    HW1 2735   4.351  14.691   0.730
  301SOL    HW2 2736   4.501  14.696   0.752
  302SOL     OW 2737  14.001  14.045  11.391
  302SOL    HW1 2738  14.051  14.106  11.336
  302SOL    HW2 2739  14.064  14.013  11.455
  303SOL     OW 2740  12.006  12.105   3.765
  303SOL    HW1 2741  12.004  12.030   3.824
  303SOL    HW2 2742  12.091  12.097   3.720
  304SOL     OW 2743   1.411   6.944  13.887
  304SOL    HW1 2744   1.474   6.875  13.867
  304SOL    HW2 2745   1.343   6.900  13.938
  305SOL     OW 2746   4.690   8.605   3.099
  305SOL    HW1 2747   4.781   8.614   3.068
  305SOL    HW2 2748   4.644   8.678   3.057
  306SOL     OW 2749   7.271   1.233   3.598
  306SOL    HW1 2750   7.297   1.202   3.685
  306SOL    HW2 2751   7.286   1.328   3.601
  307SOL     OW 2752   5.386   1.077   8.301
  307SOL    HW1 2753   5.448   1.148   8.283
  307SOL    HW2 2754   5.396   1.017   8.227
  308SOL     OW 2755  14.015   9.812   8.083
  308SOL    HW1 2756  14.017   9.822   8.178
  308SOL    HW2 2757  13.931   9.769   8.065
  309SOL     OW 2758   4.319   5.946  14.304
  309SOL    HW1 2759   4.328   6.038  14.331
  309SOL    HW2 2760   4.321   5.897  14.385
  310SOL     OW 2761   2.250   0.285   3.128
  310SOL    HW1 2762   2.322   0.322   3.178
  310SOL    HW2 2763   2.228   0.204   3.174
  311SOL     OW 2764   1.273  13.316   7.438
  311SOL    HW1 2765   1.352  13.291   7.390
  311SOL    HW2 2766   1.298  13.310   7.530
  312SOL     OW 2767   4.089   4.562   4.646
  312SOL    HW1 2768   4.032   4.639   4.648
  312SOL    HW2 2769   4.176   4.596   4.665
  313SOL     OW 2770   0.635   0.077  13.696
  313SOL    HW1 2771   0.621  14.859  13.686
  313SOL    HW2 2772   0.682   0.086  13.778
  314SOL     OW 2773   3.801   5.897   7.948
  314SOL    HW1 2774   3.732   5.903   7.881
  314SOL    HW2 2775   3.851   5.820   7.922
  315SOL     OW 2776   1.445   8.965   2.181
  315SOL    HW1 2777   1.400   9.048   2.167
  315SOL    HW2 2778   1.515   8.986   2.243
  316SOL     OW 2779   5.887   6.019   2.328
  316SOL    HW1 2780   5.846   6.073   2.396
  316SOL    HW2 2781   5.968   5.986   2.368
  317SOL     OW 2782   9.478  12.817  10.983
  317SOL    HW1 2783   9.498  12.729  11.016
  317SOL    HW2 2784   9.480  12.808  10.888
  318SOL     OW 2785   3.254  10.370  13.677
  318SOL    HW1 2786   3.165  10.366  13.711
  318SOL    HW2 2787   3.291  10.449  13.716
  319SOL     OW 2788   8.160   7.565   0.411
  319SOL    HW1 2789   8.237   7.613   0.441
  319SOL    HW2 2790   8.192   7.477   0.392
  320SOL     OW 2791   2.031   2.282   7.018
  320SOL    HW1 2792   1.987   2.225   6.955
  320SOL    HW2 2793   2.073   2.350   6.964
  321SOL     OW 2794   9.528   0.409   7.758
  321SOL    HW1 2795   9.566   0.367   7.835
  321SOL    HW2 2796   9.489   0.337   7.708
  322SOL     OW 2797  11.222  11.397  12.897
  322SOL    HW1 2798  11.151  11.458  12.875
  322SOL    HW2 2799  11.281  11.402  12.822
  323SOL     OW 2800   7.277   7.193  13.440
  323SOL    HW1 2801   7.364   7.232  13.435
  323SOL    HW2 2802   7.292   7.102  13.465
  324SOL     OW 2803   2.199   8.932   3.088
  324SOL    HW1 2804   2.212   9.003   3.026
  324SOL    HW2 2805   2.124   8.958   3.141
  325SOL     OW 2806  12.583   3.800   0.327
  325SOL    HW1 2807  12.495   3.775   0.355
  325SOL    HW2 2808  12.573   3.823   0.234
  326SOL     OW 2809   0.908   2.445   6.080
  326SOL    HW1 2810   0.966   2.487   6.144
  326SOL    HW2 2811   0.885   2.361   6.119
  327SOL     OW 2812   3.979   1.815   5.381
  327SOL    HW1 2813   4.054   1.777   5.334
  327SOL    HW2 2814   3.989   1.909   5.369
  328SOL     OW 2815   0.388  13.197   1.574
  328SOL    HW1 2816   0.401  13.261   1.645
  328SOL    HW2 2817   0.433  13.235   1.499
  329SOL     OW 2818   3.172   2.599   1.675
  329SOL    HW1 2819   3.214   2.671   1.628
  329SOL    HW2 2820   3.245   2.545   1.706
  330SOL     OW 2821   3.488   3.614   6.135
  330SOL    HW1 2822   3.429   3.686   6.157
  330SOL    HW2 2823   3.481   3.554   6.210
  331SOL     OW 2824   4.264  12.841   7.781
  331SOL    HW1 2825   4.232  12.774   7.721
  331SOL    HW2 2826   4.257  12.801   7.868
  332SOL     OW 2827   6.403   3.775  11.741
  332SOL    HW1 2828   6.417   3.681  11.752
  332SOL    HW2 2829   6.426   3.791  11.649
  333SOL     OW 2830  13.941   5.827   4.735
  333SOL    HW1 2831  13.852   5.861   4.733
  333SOL    HW2 2832  13.935   5.747   4.787
  334SOL     OW 2833   3.130   5.443   6.342
  334SOL    HW1 2834   3.204   5.462   6.284
  334SOL    HW2 2835   3.152   5.359   6.382
  335SOL     OW 2836   1.943  13.873  14.722
  335SOL    HW1 2837   1.988  13.910  14.798
  335SOL    HW2 2838   1.943  13.943  14.657
  336SOL     OW 2839   9.453  13.017   3.281
  336SOL    HW1 2840   9.366  13.057   3.290
  336SOL    HW2 2841   9.465  12.968   3.363
  337SOL     OW 2842   7.794   8.689   2.184
  337SOL    HW1 2843   7.703   8.717   2.192
  337SOL    HW2 2844   7.811   8.636   2.261
  338SOL     OW 2845   2.884   3.686   4.005
  338SOL    HW1 2846   2.905   3.605   4.051
  338SOL    HW2 2847   2.813   3.662   3.946
  339SOL     OW 2848   0.195   6.254   0.779
  339SOL    HW1 2849   0.223   6.168   0.809
  339SOL    HW2 2850   0.264   6.282   0.718
  340SOL     OW 2851  14.215   8.979  12.803
  340SOL    HW1 2852  14.283   8.919  12.835
  340SOL    HW2 2853  14.260   9.032  12.738
  341SOL     OW 2854   2.153   0.247   2.689
  341SOL    HW1 2855   2.068   0.253   2.734
  341SOL    HW2 2856   2.132   0.263   2.597
  342SOL     OW 2857  10.525  11.239   3.468
  342SOL    HW1 2858  10.466  11.249   3.543
  342SOL    HW2 2859  10.483  11.173   3.413
  343SOL     OW 2860   3.170  10.073   4.188
  343SOL    HW1 2861   3.225  10.005   4.228
  343SOL    HW2 2862   3.228  10.116   4.125
  344SOL     OW 2863   5.336  10.646  11.003
  344SOL    HW1 2864   5.430  10.631  10.992
  344SOL    HW2 2865   5.294  10.579  10.949
  345SOL     OW 2866  12.785   5.819   6.153
  345SOL    HW1 2867  12.864   5.768   6.170
  345SOL    HW2 2868  12.792   5.896   6.210
  346SOL     OW 2869   9.769   9.161   6.144
  346SOL    HW1 2870   9.826   9.129   6.074
  346SOL    HW2 2871   9.683   9.124   6.124
  347SOL     OW 2872   9.455   0.978  10.512
  347SOL    HW1 2873   9.480   0.899  10.561
  347SOL    HW2 2874   9.429   1.041  10.579
  348SOL     OW 2875   9.317  13.146   9.614
  348SOL    HW1 2876   9.346  13.116   9.528
  348SOL    HW2 2877   9.368  13.094   9.676
  349SOL     OW 2878   8.165   9.999   8.369
  349SOL    HW1 2879   8.173   9.998   8.464
  349SOL    HW2 2880   8.256   9.994   8.338
  350SOL     OW 2881   6.869  11.872  14.127
  350SOL    HW1 2882   6.917  11.860  14.209
  350SOL    HW2 2883   6.777  11.864  14.151
  351SOL     OW 2884   4.213   6.681   4.628
  351SOL    HW1 2885   4.245   6.623   4.560
  351SOL    HW2 2886   4.240   6.769   4.600
  352SOL     OW 2887   2.044  11.909  14.297
  352SOL    HW1 2888   2.086  11.823  14.302
  352SOL    HW2 2889   2.115  11.971  14.312
  353SOL     OW 2890   2.853   1.279   7.287
  353SOL    HW1 2891   2.899   1.359   7.313
  353SOL    HW2 2892   2.774   1.278   7.342
  354SOL     OW 2893   1.106   7.924   7.846
  354SOL    HW1 2894   1.017   7.905   7.877
  354SOL    HW2 2895   1.121   7.861   7.775
  355SOL     OW 2896  11.310   7.636   3.054
  355SOL    HW1 2897  11.282   7.580   3.126
  355SOL    HW2 2898  11.384   7.589   3.015
  356SOL     OW 2899  14.057   5.995   0.463
  356SOL    HW1 2900  14.089   5.910   0.493
  356SOL    HW2 2901  14.049   5.986   0.368
  357SOL     OW 2902   3.751   2.624   0.907
  357SOL    HW1 2903   3.755   2.634   1.002
  357SOL    HW2 2904   3.771   2.712   0.873
  358SOL     OW 2905  10.340   2.377  12.572
  358SOL    HW1 2906  10.268   2.349  12.515
  358SOL    HW2 2907  10.411   2.398  12.512
  359SOL     OW 2908   1.065  12.728   2.827
  359SOL    HW1 2909   0.997  12.739   2.760
  359SOL    HW2 2910   1.147  12.729   2.777
  360SOL     OW 2911   0.402  12.603   9.559
  360SOL    HW1 2912   0.492  12.617   9.530
  360SOL    HW2 2913   0.369  12.691   9.579
  361SOL     OW 2914   9.794   5.859   9.184
  361SOL    HW1 2915   9.888   5.878   9.188
  361SOL    HW2 2916   9.775   5.811   9.265
  362SOL     OW 2917   9.998   3.478  11.545
  362SOL    HW1 2918  10.050   3.557  11.562
  362SOL    HW2 2919  10.057   3.406  11.563
  363SOL     OW 2920   7.035  12.696   1.404
  363SOL    HW1 2921   7.087  12.776   1.401
  363SOL    HW2 2922   7.083  12.634   1.350
  364SOL     OW 2923   8.062   6.515   0.011
  364SOL    HW1 2924   7.983   6.501   0.063
  364SOL    HW2 2925   8.047   6.465  14.806
  365SOL     OW 2926   6.221  10.064   5.262
  365SOL    HW1 2927   6.181  10.129   5.204
  365SOL    HW2 2928   6.307  10.101   5.283
  366SOL     OW 2929  10.226  14.580   9.585
  366SOL    HW1 2930  10.149  14.567   9.531
  366SOL    HW2 2931  10.216  14.517   9.657
  367SOL     OW 2932  14.612   5.035   7.497
  367SOL    HW1 2933  14.665   5.100   7.451
  367SOL    HW2 2934  14.571   5.084   7.569
  368SOL     OW 2935   9.454   9.351   3.999
  368SOL    HW1 2936   9.439   9.366   4.092
  368SOL    HW2 2937   9.546   9.371   3.985
  369SOL     OW 2938   2.703  11.649   1.966
  369SOL    HW1 2939   2.709  11.567   2.015
  369SOL    HW2 2940   2.794  11.667   1.939
  370SOL     OW 2941   6.825   0.253  10.801
  370SOL    HW1 2942   6.841   0.218  10.713
  370SOL    HW2 2943   6.875   0.196  10.859
  371SOL     OW 2944  13.812   9.961   9.810
  371SOL    HW1 2945  13.890   9.978   9.863
  371SOL    HW2 2946  13.760   9.899   9.863
  372SOL     OW 2947  10.489  12.610   2.565
  372SOL    HW1 2948  10.577  12.589   2.595
  372SOL    HW2 2949  10.438  12.621   2.645
  373SOL     OW 2950  10.973   5.102   1.801
  373SOL    HW1 2951  10.887   5.064   1.820
  373SOL    HW2 2952  10.956   5.172   1.739
  374SOL     OW 2953   5.170   3.623  14.537
  374SOL    HW1 2954   5.125   3.675  14.603
  374SOL    HW2 2955   5.138   3.534  14.550
  375SOL     OW 2956  13.067   5.427  11.199
  375SOL    HW1 2957  13.004   5.454  11.266
  375SOL    HW2 2958  13.142   5.394  11.248
  376SOL     OW 2959   0.677   6.367  13.545
  376SOL    HW1 2960   0.750   6.378  13.606
  376SOL    HW2 2961   0.600   6.359  13.600
  377SOL     OW 2962   5.946   6.450  12.379
  377SOL    HW1 2963   5.860   6.484  12.402
  377SOL    HW2 2964   5.943   6.438  12.284
  378SOL     OW 2965  13.705  13.664   9.248
  378SOL    HW1 2966  13.704  13.760   9.251
  378SOL    HW2 2967  13.616  13.639   9.273
  379SOL     OW 2968   6.582  13.108  11.191
  379SOL    HW1 2969   6.550  13.198  11.199
  379SOL    HW2 2970   6.668  13.117  11.150
  380SOL     OW 2971   2.602   0.041   6.337
  380SOL    HW1 2972   2.680  14.869   6.307
  380SOL    HW2 2973   2.586   0.105   6.268
  381SOL     OW 2974   0.161  12.806   8.148
  381SOL    HW1 2975   0.226  12.850   8.201
  381SOL    HW2 2976   0.145  12.723   8.193
  382SOL     OW 2977   3.230  14.217   4.280
  382SOL    HW1 2978   3.259  14.236   4.369
  382SOL    HW2 2979   3.192  14.300   4.249
  383SOL     OW 2980   3.068   6.691   3.128
  383SOL    HW1 2981   3.063   6.661   3.037
  383SOL    HW2 2982   3.132   6.633   3.169
  384SOL     OW 2983   1.346   5.708   1.494
  384SOL    HW1 2984   1.364   5.636   1.555
  384SOL    HW2 2985   1.371   5.787   1.541
  385SOL     OW 2986   2.636   2.546  13.734
  385SOL    HW1 2987   2.668   2.608  13.799
  385SOL    HW2 2988   2.715   2.508  13.695
  386SOL     OW 2989  14.419   7.164   2.426
  386SOL    HW1 2990  14.385   7.208   2.504
  386SOL    HW2 2991  14.500   7.210   2.406
  387SOL     OW 2992  12.236   2.278   5.944
  387SOL    HW1 2993  12.175   2.285   6.017
  387SOL    HW2 2994  12.273   2.366   5.934
  388SOL     OW 2995   3.845   9.929   9.630
  388SOL    HW1 2996   3.761   9.972   9.616
  388SOL    HW2 2997   3.885   9.926   9.543
  389SOL     OW 2998   2.019   2.368   0.375
  389SOL    HW1 2999   2.063   2.293   0.336
  389SOL    HW2 3000   1.974   2.333   0.452
  390SOL     OW 3001   6.231   6.260   1.634
  390SOL    HW1 3002   6.324   6.271   1.614
  390SOL    HW2 3003   6.186   6.283   1.553
  391SOL     OW 3004   8.600  13.679   4.684
  391SOL    HW1 3005   8.653  13.599   4.685
  391SOL    HW2 3006   8.566  13.685   4.595
  392SOL     OW 3007  12.716   9.178   6.849
  392SOL    HW1 3008  12.804   9.160   6.818
  392SOL    HW2 3009  12.706   9.124   6.927
  393SOL     OW 3010   7.988   6.263   5.519
  393SOL    HW1 3011   8.069   6.280   5.472
  393SOL    HW2 3012   7.988   6.168   5.535
  394SOL     OW 3013  11.654   4.675   7.275
  394SOL    HW1 3014  11.703   4.611   7.222
  394SOL    HW2 3015  11.587   4.622   7.319
  395SOL     OW 3016   7.324  14.715   0.436
  395SOL    HW1 3017   7.378  14.644   0.402
  395SOL    HW2 3018   7.345  14.718   0.530
  396SOL     OW 3019   2.292   9.855  10.504
  396SOL    HW1 3020   2.377   9.899  10.514
  396SOL    HW2 3021   2.269   9.829  10.593
  397SOL     OW 3022  13.043  14.122  13.453
  397SOL    HW1 3023  13.052  14.035  13.415
  397SOL    HW2 3024  13.133  14.154  13.464
  398SOL     OW 3025  13.592   3.936  14.398
  398SOL    HW1 3026  13.527   3.954  14.329
  398SOL    HW2 3027  13.676   3.942  14.354
  399SOL     OW 3028   9.640   6.830   4.568
  399SOL    HW1 3029   9.550   6.798   4.571
  399SOL    HW2 3030   9.693   6.756   4.599
  400SOL     OW 3031   8.321   0.459  13.105
  400SOL    HW1 3032   8.347   0.405  13.180
  400SOL    HW2 3033   8.353   0.411  13.029
  401SOL     OW 3034  10.296  14.691  13.145
  401SOL    HW1 3035  10.391  14.691  13.161
  401SOL    HW2 3036  10.257  14.698  13.232
  402SOL     OW 3037   8.382  10.666   7.101
  402SOL    HW1 3038   8.310  10.729   7.101
  402SOL    HW2 3039   8.442  10.699   7.167
  403SOL     OW 3040  12.200  11.964  12.495
  403SOL    HW1 3041  12.108  11.989  12.489
  403SOL    HW2 3042  12.237  12.026  12.558
  404SOL     OW 3043  10.771   3.779   4.288
  404SOL    HW1 3044  10.687   3.734   4.273
  404SOL    HW2 3045  10.750   3.849   4.349
  405SOL     OW 3046   9.379   6.373  10.483
  405SOL    HW1 3047   9.336   6.323  10.551
  405SOL    HW2 3048   9.471   6.376  10.510
  406SOL     OW 3049   6.509   4.120   4.432
  406SOL    HW1 3050   6.426   4.075   4.447
  406SOL    HW2 3051   6.521   4.175   4.510
  407SOL     OW 3052   7.662  13.536   6.257
  407SOL    HW1 3053   7.651  13.536   6.352
  407SOL    HW2 3054   7.722  13.463   6.240
  408SOL     OW 3055  11.538   3.945   0.680
  408SOL    HW1 3056  11.479   3.992   0.622
  408SOL    HW2 3057  11.622   3.991   0.672
  409SOL     OW 3058  10.211   3.268  11.616
  409SOL    HW1 3059  10.254   3.269  11.701
  409SOL    HW2 3060  10.248   3.192  11.571
  410SOL     OW 3061   8.914  10.419   3.280
  410SOL    HW1 3062   8.990  10.410   3.337
  410SOL    HW2 3063   8.840  10.392   3.333
  411SOL     OW 3064  10.679   5.121   1.888
  411SOL    HW1 3065  10.605   5.076   1.848
  411SOL    HW2 3066  10.671   5.104   1.982
  412SOL     OW 3067  14.850  13.483   6.119
  412SOL    HW1 3068  14.828  13.521   6.204
  412SOL    HW2 3069   0.067  13.501   6.108
  413SOL     OW 3070   1.328  10.323   5.731
  413SOL    HW1 3071   1.290  10.325   5.644
  413SOL    HW2 3072   1.384  10.401   5.735
  414SOL     OW 3073   7.002   2.827   9.024
  414SOL    HW1 3074   6.933   2.882   8.986
  414SOL    HW2 3075   7.083   2.873   9.002
  415SOL     OW 3076   2.718   0.174   1.852
  415SOL    HW1 3077   2.727   0.269   1.847
  415SOL    HW2 3078   2.645   0.159   1.912
  416SOL     OW 3079   7.529  14.203   9.261
  416SOL    HW1 3080   7.547  14.268   9.193
  416SOL    HW2 3081   7.436  14.215   9.282
  417SOL     OW 3082   1.507   5.671   7.786
  417SOL    HW1 3083   1.428   5.654   7.837
  417SOL    HW2 3084   1.504   5.765   7.768
  418SOL     OW 3085  11.504   2.339   7.316
  418SOL    HW1 3086  11.504   2.245   7.301
  418SOL    HW2 3087  11.437   2.353   7.382
  419SOL     OW 3088   0.289   2.905   8.557
  419SOL    HW1 3089   0.231   2.955   8.615
  419SOL    HW2 3090   0.306   2.824   8.605
  420SOL     OW 3091   2.829   1.600   3.839
  420SOL    HW1 3092   2.887   1.668   3.806
  420SOL    HW2 3093   2.869   1.569   3.920
  421SOL     OW 3094   8.045   2.115   8.471
  421SOL    HW1 3095   8.002   2.062   8.538
  421SOL    HW2 3096   8.139   2.103   8.487
  422SOL     OW 3097   0.662  14.350  13.163
  422SOL    HW1 3098   0.610  14.403  13.223
  422SOL    HW2 3099   0.700  14.282  13.218
  423SOL     OW 3100   6.601  12.342  11.857
  423SOL    HW1 3101   6.600  12.435  11.832
  423SOL    HW2 3102   6.514  12.326  11.893
  424SOL     OW 3103   4.398   1.455   8.940
  424SOL    HW1 3104   4.416   1.363   8.961
  424SOL    HW2 3105   4.483   1.492   8.918
  425SOL     OW 3106  10.878   9.057   9.662
  425SOL    HW1 3107  10.854   9.147   9.642
  425SOL    HW2 3108  10.901   9.057   9.754
  426SOL     OW 3109  12.034   4.729   0.941
  426SOL    HW1 3110  11.939   4.725   0.931
  426SOL    HW2 3111  12.054   4.823   0.935
  427SOL     OW 3112  10.810   7.839   0.176
  427SOL    HW1 3113  10.819   7.931   0.151
  427SOL    HW2 3114  10.799   7.793   0.093
  428SOL     OW 3115   1.330   9.083  10.664
  428SOL    HW1 3116   1.251   9.130  10.638
  428SOL    HW2 3117   1.323   8.999  10.620
  429SOL     OW 3118   5.470  10.351  11.549
  429SOL    HW1 3119   5.443  10.432  11.505
  429SOL    HW2 3120   5.553  10.328  11.507
  430SOL     OW 3121   9.289  11.728   5.425
  430SOL    HW1 3122   9.298  11.784   5.503
  430SOL    HW2 3123   9.379  11.708   5.400
  431SOL     OW 3124   7.794   0.786  13.402
  431SOL    HW1 3125   7.881   0.781  13.362
  431SOL    HW2 3126   7.738   0.734  13.344
  432SOL     OW 3127   5.079   5.324  11.498
  432SOL    HW1 3128   5.068   5.364  11.584
  432SOL    HW2 3129   5.103   5.396  11.440
  433SOL     OW 3130   8.438   3.694   0.037
  433SOL    HW1 3131   8.408   3.778   0.003
  433SOL    HW2 3132   8.532   3.692   0.018
  434SOL     OW 3133   6.857   6.488   1.092
  434SOL    HW1 3134   6.883   6.492   1.000
  434SOL    HW2 3135   6.819   6.401   1.102
  435SOL     OW 3136   0.132   8.997   5.734
  435SOL    HW1 3137   0.202   9.062   5.738
  435SOL    HW2 3138   0.054   9.042   5.766
  436SOL     OW 3139   2.372  12.233   7.866
  436SOL    HW1 3140   2.419  12.206   7.945
  436SOL    HW2 3141   2.432  12.293   7.821
  437SOL     OW 3142   3.637   2.739   2.283
  437SOL    HW1 3143   3.555   2.691   2.298
  437SOL    HW2 3144   3.661   2.772   2.370
  438SOL     OW 3145  10.067   6.072   1.099
  438SOL    HW1 3146  10.001   6.129   1.137
  438SOL    HW2 3147  10.142   6.129   1.084
  439SOL     OW 3148   2.386   0.827   5.026
  439SOL    HW1 3149   2.363   0.751   5.079
  439SOL    HW2 3150   2.436   0.791   4.953
  440SOL     OW 3151  11.030   4.587   0.617
  440SOL    HW1 3152  11.006   4.505   0.573
  440SOL    HW2 3153  10.970   4.652   0.580
  441SOL     OW 3154   4.625   6.129   0.503
  441SOL    HW1 3155   4.687   6.102   0.436
  441SOL    HW2 3156   4.678   6.180   0.565
  442SOL     OW 3157   5.285   5.824  14.305
  442SOL    HW1 3158   5.214   5.871  14.349
  442SOL    HW2 3159   5.250   5.737  14.289
  443SOL     OW 3160   8.893   7.382   7.585
  443SOL    HW1 3161   8.856   7.453   7.637
  443SOL    HW2 3162   8.846   7.303   7.614
  444SOL     OW 3163  13.152  13.109   7.549
  444SOL    HW1 3164  13.177  13.075   7.635
  444SOL    HW2 3165  13.056  13.106   7.549
  445SOL     OW 3166   0.824  14.368   6.350
  445SOL    HW1 3167   0.832  14.438   6.415
  445SOL    HW2 3168   0.865  14.292   6.392
  446SOL     OW 3169   6.773   2.475   6.875
  446SOL    HW1 3170   6.811   2.562   6.858
  446SOL    HW2 3171   6.788   2.461   6.968
  447SOL     OW 3172   0.990   5.783   5.621
  447SOL    HW1 3173   1.055   5.854   5.623
  447SOL    HW2 3174   0.906   5.827   5.629
  448SOL     OW 3175  11.616   1.216   6.283
  448SOL    HW1 3176  11.694   1.179   6.324
  448SOL    HW2 3177  11.570   1.261   6.354
  449SOL     OW 3178  10.811   7.974   9.895
  449SOL    HW1 3179  10.745   7.909   9.919
  449SOL    HW2 3180  10.791   8.049   9.951
  450SOL     OW 3181  13.999   2.961  12.326
  450SOL    HW1 3182  14.053   2.909  12.386
  450SOL    HW2 3183  13.967   2.897  12.262
  451SOL     OW 3184   2.287   8.852  13.708
  451SOL    HW1 3185   2.233   8.779  13.677
  451SOL    HW2 3186   2.370   8.842  13.661
  452SOL     OW 3187   2.738   6.862   9.357
  452SOL    HW1 3188   2.674   6.908   9.304
  452SOL    HW2 3189   2.736   6.772   9.324
  453SOL     OW 3190   3.530   6.780   1.026
  453SOL    HW1 3191   3.576   6.782   0.942
  453SOL    HW2 3192   3.457   6.841   1.014
  454SOL     OW 3193  11.021   7.822   1.040
  454SOL    HW1 3194  11.098   7.772   1.010
  454SOL    HW2 3195  10.947   7.764   1.021
  455SOL     OW 3196   7.196   4.601   9.994
  455SOL    HW1 3197   7.142   4.667   9.950
  455SOL    HW2 3198   7.251   4.565   9.924
  456SOL     OW 3199  10.801   7.524   1.858
  456SOL    HW1 3200  10.868   7.591   1.844
  456SOL    HW2 3201  10.779   7.533   1.951
  457SOL     OW 3202  12.408   7.545   5.812
  457SOL    HW1 3203  12.415   7.464   5.863
  457SOL    HW2 3204  12.331   7.589   5.846
  458SOL     OW 3205  11.604  13.847  10.815
  458SOL    HW1 3206  11.569  13.936  10.825
  458SOL    HW2 3207  11.698  13.857  10.832
  459SOL     OW 3208   3.765   7.505   6.555
  459SOL    HW1 3209   3.744   7.436   6.493
  459SOL    HW2 3210   3.853   7.534   6.530
  460SOL     OW 3211  14.706   3.829   9.553
  460SOL    HW1 3212  14.700   3.916   9.594
  460SOL    HW2 3213  14.615   3.798   9.548
  461SOL     OW 3214   6.371   9.797   4.682
  461SOL    HW1 3215   6.408   9.822   4.766
  461SOL    HW2 3216   6.282   9.767   4.703
  462SOL     OW 3217   6.983  10.330   0.307
  462SOL    HW1 3218   6.921  10.261   0.284
  462SOL    HW2 3219   7.067  10.298   0.276
  463SOL     OW 3220   8.159   5.394   3.019
  463SOL    HW1 3221   8.171   5.311   2.973
  463SOL    HW2 3222   8.120   5.370   3.103
  464SOL     OW 3223  11.175   7.115  12.654
  464SOL    HW1 3224  11.111   7.079  12.715
  464SOL    HW2 3225  11.133   7.106  12.568
  465SOL     OW 3226  12.221   5.373   7.513
  465SOL    HW1 3227  12.172   5.331   7.584
  465SOL    HW2 3228  12.231   5.464   7.541
  466SOL     OW 3229  10.309   8.999   5.179
  466SOL    HW1 3230  10.280   8.949   5.102
  466SOL    HW2 3231  10.321   9.088   5.146
  467SOL     OW 3232   4.664   6.597  14.047
  467SOL    HW1 3233   4.713   6.519  14.020
  467SOL    HW2 3234   4.685   6.662  13.981
  468SOL     OW 3235   0.247  13.484  13.809
  468SOL    HW1 3236   0.153  13.487  13.792
  468SOL    HW2 3237   0.270  13.574  13.832
  469SOL     OW 3238   3.147   8.492  13.053
  469SOL    HW1 3239   3.135   8.399  13.070
  469SOL    HW2 3240   3.235   8.511  13.086
  470SOL     OW 3241   9.706   8.781   5.400
  470SOL    HW1 3242   9.704   8.844   5.328
  470SOL    HW2 3243   9.627   8.800   5.450
  471SOL     OW 3244  10.355   9.057  14.261
  471SOL    HW1 3245  10.414   9.053  14.336
  471SOL    HW2 3246  10.412   9.081  14.187
  472SOL     OW 3247   1.701   0.602   2.634
  472SOL    HW1 3248   1.791   0.617   2.663
  472SOL    HW2 3249   1.652   0.587   2.715
  473SOL     OW 3250   5.305   3.906  14.162
  473SOL    HW1 3251   5.290   3.839  14.095
  473SOL    HW2 3252   5.393   3.888  14.194
  474SOL     OW 3253   0.794   6.688   4.464
  474SOL    HW1 3254   0.766   6.687   4.373
  474SOL    HW2 3255   0.762   6.771   4.498
  475SOL     OW 3256   6.812   1.490   2.447
  475SOL    HW1 3257   6.879   1.513   2.512
  475SOL    HW2 3258   6.729   1.514   2.489
  476SOL     OW 3259  10.338  12.225   5.727
  476SOL    HW1 3260  10.313  12.310   5.690
  476SOL    HW2 3261  10.374  12.177   5.652
  477SOL     OW 3262   7.632   2.704  13.866
  477SOL    HW1 3263   7.619   2.635  13.930
  477SOL    HW2 3264   7.697   2.762  13.905
  478SOL     OW 3265   6.272  10.522  13.179
  478SOL    HW1 3266   6.367  10.536  13.173
  478SOL    HW2 3267   6.246  10.497  13.090
  479SOL     OW 3268   9.227  13.300   2.670
  479SOL    HW1 3269   9.237  13.384   2.624
  479SOL    HW2 3270   9.149  13.261   2.632
  480SOL     OW 3271  12.798   6.979  12.813
  480SOL    HW1 3272  12.835   7.000  12.898
  480SOL    HW2 3273  12.806   6.884  12.806
  481SOL     OW 3274   3.708   5.943   6.250
  481SOL    HW1 3275   3.664   5.863   6.220
  481SOL    HW2 3276   3.780   5.954   6.187
  482SOL     OW 3277   2.295   6.496   6.699
  482SOL    HW1 3278   2.238   6.442   6.754
  482SOL    HW2 3279   2.259   6.487   6.611
  483SOL     OW 3280   6.468   6.377   7.998
  483SOL    HW1 3281   6.558   6.372   8.029
  483SOL    HW2 3282   6.466   6.454   7.940
  484SOL     OW 3283   9.569  13.478  14.375
  484SOL    HW1 3284   9.663  13.468  14.387
  484SOL    HW2 3285   9.544  13.405  14.318
  485SOL     OW 3286   0.820  12.686   0.331
  485SOL    HW1 3287   0.819  12.660   0.423
  485SOL    HW2 3288   0.763  12.623   0.288
  486SOL     OW 3289   5.316   5.636   6.575
  486SOL    HW1 3290   5.339   5.672   6.660
  486SOL    HW2 3291   5.334   5.707   6.513
  487SOL     OW 3292   7.978   2.861  12.285
  487SOL    HW1 3293   7.984   2.956  12.298
  487SOL    HW2 3294   7.945   2.828  12.368
  488SOL     OW 3295   4.075   1.304   2.062
  488SOL    HW1 3296   3.984   1.285   2.085
  488SOL    HW2 3297   4.118   1.218   2.059
  489SOL     OW 3298   5.712   6.061   8.858
  489SOL    HW1 3299   5.776   5.997   8.827
  489SOL    HW2 3300   5.710   6.049   8.953
  490SOL     OW 3301   4.078   1.734   1.398
  490SOL    HW1 3302   4.120   1.718   1.313
  490SOL    HW2 3303   4.069   1.829   1.402
  491SOL     OW 3304  13.106  11.530  11.354
  491SOL    HW1 3305  13.183  11.481  11.323
  491SOL    HW2 3306  13.117  11.618  11.318
  492SOL     OW 3307   0.912  13.783   3.564
  492SOL    HW1 3308   0.867  13.850   3.512
  492SOL    HW2 3309   1.002  13.814   3.571
  493SOL     OW 3310  10.174   9.612   3.074
  493SOL    HW1 3311  10.107   9.545   3.090
  493SOL    HW2 3312  10.191   9.650   3.160
  494SOL     OW 3313   8.577   5.336  11.795
  494SOL    HW1 3314   8.525   5.282  11.854
  494SOL    HW2 3315   8.515   5.400  11.760
  495SOL     OW 3316   8.985   6.607  11.585
  495SOL    HW1 3317   8.910   6.547  11.585
  495SOL    HW2 3318   9.057   6.555  11.549
  496SOL     OW 3319  14.382  13.746   8.341
  496SOL    HW1 3320  14.405  13.822   8.394
  496SOL    HW2 3321  14.341  13.783   8.263
  497SOL     OW 3322   5.431  14.129  11.762
  497SOL    HW1 3323   5.377  14.051  11.775
  497SOL    HW2 3324   5.401  14.190  11.830
  498SOL     OW 3325  12.009   9.988   3.325
  498SOL    HW1 3326  11.933  10.014   3.273
  498SOL    HW2 3327  12.084  10.017   3.272
  499SOL     OW 3328  13.259   5.556  14.234
  499SOL    HW1 3329  13.354   5.554  14.244
  499SOL    HW2 3330  13.231   5.466  14.248
  500SOL     OW 3331  10.933   6.455   7.923
  500SOL    HW1 3332  10.896   6.531   7.878
  500SOL    HW2 3333  10.888   6.452   8.007
  501SOL     OW 3334   4.643   8.930  14.069
  501SOL    HW1 3335   4.612   9.017  14.044
  501SOL    HW2 3336   4.718   8.915  14.010
  502SOL     OW 3337  14.641   9.406   2.369
  502SOL    HW1 3338  14.561   9.458   2.367
  502SOL    HW2 3339  14.706   9.460   2.324
  503SOL     OW 3340  10.517  10.991  13.391
  503SOL    HW1 3341  10.445  11.053  13.388
  503SOL    HW2 3342  10.592  11.039  13.356
  504SOL     OW 3343   7.336   3.983   2.436
  504SOL    HW1 3344   7.295   4.058   2.478
  504SOL    HW2 3345   7.392   4.021   2.368
  505SOL     OW 3346   9.858  13.733   5.748
  505SOL    HW1 3347   9.931  13.783   5.712
  505SOL    HW2 3348   9.896  13.689   5.824
  506SOL     OW 3349   9.031   6.982   5.468
  506SOL    HW1 3350   9.013   7.061   5.519
  506SOL    HW2 3351   9.122   6.991   5.441
  507SOL     OW 3352   8.076   1.152   8.363
  507SOL    HW1 3353   8.099   1.138   8.271
  507SOL    HW2 3354   8.065   1.063   8.398
  508SOL     OW 3355   2.758   4.271  11.701
  508SOL    HW1 3356   2.804   4.199  11.743
  508SOL    HW2 3357   2.679   4.283  11.753
  509SOL     OW 3358  13.389  13.996   3.977
  509SOL    HW1 3359  13.386  13.901   3.968
  509SOL    HW2 3360  13.421  14.011   4.066
  510SOL     OW 3361  10.959   4.396   1.421
  510SOL    HW1 3362  10.909   4.330   1.371
  510SOL    HW2 3363  11.006   4.345   1.487
  511SOL     OW 3364   8.234  14.658   1.038
  511SOL    HW1 3365   8.238  14.599   1.113
  511SOL    HW2 3366   8.215  14.602   0.963
  512SOL     OW 3367   2.559   7.877   6.984
  512SOL    HW1 3368   2.642   7.923   6.982
  512SOL    HW2 3369   2.545   7.848   6.893
  513SOL     OW 3370   9.970   2.979   8.803
  513SOL    HW1 3371  10.053   2.987   8.851
  513SOL    HW2 3372   9.912   3.042   8.846
  514SOL     OW 3373  10.265   7.477  14.136
  514SOL    HW1 3374  10.173   7.488  14.157
  514SOL    HW2 3375  10.269   7.483  14.040
  515SOL     OW 3376   1.531   3.180  14.710
  515SOL    HW1 3377   1.480   3.100  14.723
  515SOL    HW2 3378   1.555   3.178  14.617
  516SOL     OW 3379   8.494   2.034   7.551
  516SOL    HW1 3380   8.547   1.963   7.516
  516SOL    HW2 3381   8.413   2.032   7.499
  517SOL     OW 3382   5.586  11.863   5.231
  517SOL    HW1 3383   5.634  11.852   5.313
  517SOL    HW2 3384   5.626  11.799   5.171
  518SOL     OW 3385  12.497   2.805   4.496
  518SOL    HW1 3386  12.511   2.754   4.417
  518SOL    HW2 3387  12.466   2.890   4.466
  519SOL     OW 3388   0.918  14.008   9.164
  519SOL    HW1 3389   0.910  14.040   9.074
  519SOL    HW2 3390   0.828  14.006   9.197
  520SOL     OW 3391   3.979  10.398   6.711
  520SOL    HW1 3392   3.946  10.318   6.671
  520SOL    HW2 3393   3.954  10.391   6.804
  521SOL     OW 3394  10.176   3.823   7.955
  521SOL    HW1 3395  10.150   3.825   8.047
  521SOL    HW2 3396  10.100   3.787   7.909
  522SOL     OW 3397   5.328   6.554   4.343
  522SOL    HW1 3398   5.393   6.485   4.350
  522SOL    HW2 3399   5.352   6.602   4.263
  523SOL     OW 3400   4.700   1.562   7.688
  523SOL    HW1 3401   4.774   1.532   7.635
  523SOL    HW2 3402   4.711   1.657   7.693
  524SOL     OW 3403   7.883  13.224   2.704
  524SOL    HW1 3404   7.796  13.191   2.680
  524SOL    HW2 3405   7.909  13.279   2.630
  525SOL     OW 3406   2.605   3.421   6.896
  525SOL    HW1 3407   2.619   3.434   6.802
  525SOL    HW2 3408   2.511   3.404   6.904
  526SOL     OW 3409   4.492   4.530  10.357
  526SOL    HW1 3410   4.444   4.448  10.373
  526SOL    HW2 3411   4.526   4.555  10.443
  527SOL     OW 3412  13.773   0.673   9.918
  527SOL    HW1 3413  13.720   0.677   9.839
  527SOL    HW2 3414  13.779   0.579   9.938
  528SOL     OW 3415  14.649   8.058  10.917
  528SOL    HW1 3416  14.586   7.992  10.947
  528SOL    HW2 3417  14.636   8.132  10.976
  529SOL     OW 3418   0.317  13.714   0.447
  529SOL    HW1 3419   0.350  13.711   0.357
  529SOL    HW2 3420   0.391  13.746   0.499
  530SOL     OW 3421   4.844  12.658  10.142
  530SOL    HW1 3422   4.818  12.745  10.112
  530SOL    HW2 3423   4.937  12.668  10.166
  531SOL     OW 3424   3.028   3.575   3.101
  531SOL    HW1 3425   2.971   3.634   3.151
  531SOL    HW2 3426   3.012   3.489   3.140
  532SOL     OW 3427   7.725   3.920  12.762
  532SOL    HW1 3428   7.724   3.951  12.852
  532SOL    HW2 3429   7.733   4.000  12.709
  533SOL     OW 3430   1.919   8.910  11.978
  533SOL    HW1 3431   1.959   8.917  11.891
  533SOL    HW2 3432   1.843   8.853  11.965
  534SOL     OW 3433   2.503   8.161   8.010
  534SOL    HW1 3434   2.455   8.095   7.961
  534SOL    HW2 3435   2.526   8.227   7.944
  535SOL     OW 3436  14.119   9.889  12.941
  535SOL    HW1 3437  14.095   9.938  12.862
  535SOL    HW2 3438  14.082   9.940  13.013
  536SOL     OW 3439  13.535   3.912  13.512
  536SOL    HW1 3440  13.530   3.840  13.576
  536SOL    HW2 3441  13.501   3.874  13.431
  537SOL     OW 3442   5.900   8.733   2.262
  537SOL    HW1 3443   5.936   8.752   2.349
  537SOL    HW2 3444   5.969   8.686   2.217
  538SOL     OW 3445   5.031   9.638  12.768
  538SOL    HW1 3446   4.944   9.597  12.774
  538SOL    HW2 3447   5.017   9.727  12.799
  539SOL     OW 3448   2.582  13.090  13.894
  539SOL    HW1 3449   2.561  13.009  13.939
  539SOL    HW2 3450   2.674  13.080  13.868
  540SOL     OW 3451   4.079   2.333  13.322
  540SOL    HW1 3452   4.136   2.383  13.264
  540SOL    HW2 3453   4.129   2.254  13.342
  541SOL     OW 3454   9.105   0.125   9.305
  541SOL    HW1 3455   9.167   0.165   9.367
  541SOL    HW2 3456   9.160   0.097   9.232
  542SOL     OW 3457  13.930  10.281   8.746
  542SOL    HW1 3458  13.926  10.287   8.841
  542SOL    HW2 3459  13.981  10.358   8.720
  543SOL     OW 3460   8.767   4.603   8.906
  543SOL    HW1 3461   8.747   4.692   8.937
  543SOL    HW2 3462   8.754   4.608   8.811
  544SOL     OW 3463  10.569  10.414  13.152
  544SOL    HW1 3464  10.635  10.452  13.211
  544SOL    HW2 3465  10.501  10.481  13.146
  545SOL     OW 3466   0.166  13.232   1.908
  545SOL    HW1 3467   0.191  13.227   2.000
  545SOL    HW2 3468   0.244  13.264   1.863
  546SOL     OW 3469   2.246   7.583   0.499
  546SOL    HW1 3470   2.169   7.610   0.449
  546SOL    HW2 3471   2.299   7.663   0.506
  547SOL     OW 3472   0.793   4.815   2.182
  547SOL    HW1 3473   0.837   4.891   2.143
  547SOL    HW2 3474   0.703   4.822   2.153
  548SOL     OW 3475   3.164  11.919   2.736
  548SOL    HW1 3476   3.206  11.836   2.712
  548SOL    HW2 3477   3.071  11.900   2.738
  549SOL     OW 3478   6.090   3.286  10.124
  549SOL    HW1 3479   6.007   3.313  10.163
  549SOL    HW2 3480   6.156   3.342  10.167
  550SOL     OW 3481   7.482  13.118   3.392
  550SOL    HW1 3482   7.397  13.105   3.435
  550SOL    HW2 3483   7.464  13.177   3.320
  551SOL     OW 3484   0.120   8.420   1.712
  551SOL    HW1 3485   0.117   8.495   1.771
  551SOL    HW2 3486   0.154   8.455   1.630
  552SOL     OW 3487  11.906   3.420   6.651
  552SOL    HW1 3488  11.928   3.497   6.599
  552SOL    HW2 3489  11.828   3.446   6.701
  553SOL     OW 3490   4.191   3.815   9.321
  553SOL    HW1 3491   4.189   3.790   9.228
  553SOL    HW2 3492   4.108   3.781   9.356
  554SOL     OW 3493   2.458  11.266   4.420
  554SOL    HW1 3494   2.478  11.243   4.511
  554SOL    HW2 3495   2.491  11.192   4.369
  555SOL     OW 3496  14.706   1.364   2.693
  555SOL    HW1 3497  14.792   1.331   2.666
  555SOL    HW2 3498  14.645   1.298   2.660
  556SOL     OW 3499   4.947   7.249  13.018
  556SOL    HW1 3500   4.938   7.342  12.999
  556SOL    HW2 3501   4.894   7.205  12.952
  557SOL     OW 3502   9.563   9.915   7.111
  557SOL    HW1 3503   9.627   9.981   7.140
  557SOL    HW2 3504   9.575   9.843   7.172
  558SOL     OW 3505   9.255   3.077   9.069
  558SOL    HW1 3506   9.294   2.993   9.093
  558SOL    HW2 3507   9.326   3.127   9.029
  559SOL     OW 3508   9.787   9.759   2.416
  559SOL    HW1 3509   9.874   9.786   2.445
  559SOL    HW2 3510   9.789   9.769   2.321
  560SOL     OW 3511  11.270   9.535   3.806
  560SOL    HW1 3512  11.254   9.627   3.828
  560SOL    HW2 3513  11.276   9.491   3.891
  561SOL     OW 3514  10.079   0.745   8.612
  561SOL    HW1 3515  10.085   0.711   8.523
  561SOL    HW2 3516   9.998   0.796   8.614
  562SOL     OW 3517   5.397  14.660   0.944
  562SOL    HW1 3518   5.456  14.699   0.879
  562SOL    HW2 3519   5.424  14.698   1.027
  563SOL     OW 3520   9.910  12.647  13.151
  563SOL    HW1 3521   9.965  12.719  13.184
  563SOL    HW2 3522   9.822  12.667  13.184
  564SOL     OW 3523   2.682   8.569  12.368
  564SOL    HW1 3524   2.660   8.662  12.361
  564SOL    HW2 3525   2.704   8.543  12.278
  565SOL     OW 3526  10.563  13.359   2.616
  565SOL    HW1 3527  10.490  13.394   2.667
  565SOL    HW2 3528  10.529  13.351   2.527
  566SOL     OW 3529   8.776  12.063  10.932
  566SOL    HW1 3530   8.700  12.009  10.909
  566SOL    HW2 3531   8.753  12.100  11.018
  567SOL     OW 3532   5.378  10.055  12.324
  567SOL    HW1 3533   5.315  10.010  12.381
  567SOL    HW2 3534   5.333  10.136  12.299
  568SOL     OW 3535   4.411   6.742  11.639
  568SOL    HW1 3536   4.380   6.652  11.642
  568SOL    HW2 3537   4.391   6.772  11.550
  569SOL     OW 3538  13.229   6.811   1.324
  569SOL    HW1 3539  13.167   6.767   1.382
  569SOL    HW2 3540  13.314   6.773   1.344
  570SOL     OW 3541   2.210   6.720   4.466
  570SOL    HW1 3542   2.157   6.672   4.402
  570SOL    HW2 3543   2.234   6.654   4.531
  571SOL     OW 3544   9.137   0.008  11.939
  571SOL    HW1 3545   9.155  14.849  11.852
  571SOL    HW2 3546   9.202  14.842  11.996
  572SOL     OW 3547  12.094   5.524   9.594
  572SOL    HW1 3548  12.112   5.588   9.663
  572SOL    HW2 3549  12.001   5.504   9.603
  573SOL     OW 3550  14.113   5.794   9.212
  573SOL    HW1 3551  14.104   5.821   9.121
  573SOL    HW2 3552  14.074   5.707   9.216
  574SOL     OW 3553   1.493   9.709   6.955
  574SOL    HW1 3554   1.458   9.744   6.873
  574SOL    HW2 3555   1.488   9.614   6.945
  575SOL     OW 3556  11.929   4.153   0.149
  575SOL    HW1 3557  11.861   4.104   0.102
  575SOL    HW2 3558  11.982   4.193   0.080
  576SOL     OW 3559  12.457  14.867  13.533
  576SOL    HW1 3560  12.475  14.826  13.449
  576SOL    HW2 3561  12.528   0.055  13.544
  577SOL     OW 3562  10.528   2.341   5.371
  577SOL    HW1 3563  10.521   2.253   5.334
  577SOL    HW2 3564  10.559   2.327   5.461
  578SOL     OW 3565  14.277  10.956  10.440
  578SOL    HW1 3566  14.245  10.881  10.389
  578SOL    HW2 3567  14.208  10.974  10.503
  579SOL     OW 3568   3.483   3.458   6.365
  579SOL    HW1 3569   3.562   3.438   6.416
  579SOL    HW2 3570   3.412   3.456   6.430
  580SOL     OW 3571   6.584   6.789   7.324
  580SOL    HW1 3572   6.516   6.824   7.381
  580SOL    HW2 3573   6.584   6.847   7.248
  581SOL     OW 3574   4.976   5.053  10.845
  581SOL    HW1 3575   5.027   4.973  10.855
  581SOL    HW2 3576   5.014   5.096  10.769
  582SOL     OW 3577  11.546   1.920   3.306
  582SOL    HW1 3578  11.450   1.921   3.308
  582SOL    HW2 3579  11.568   1.929   3.214
  583SOL     OW 3580   1.763   0.909   2.860
  583SOL    HW1 3581   1.841   0.863   2.891
  583SOL    HW2 3582   1.786   0.938   2.772
  584SOL     OW 3583   4.322   1.419  14.871
  584SOL    HW1 3584   4.271   1.414   0.076
  584SOL    HW2 3585   4.318   1.511  14.845
  585SOL     OW 3586   2.456   8.345   2.508
  585SOL    HW1 3587   2.514   8.328   2.434
  585SOL    HW2 3588   2.385   8.282   2.498
  586SOL     OW 3589  10.033   4.967   6.276
  586SOL    HW1 3590  10.078   5.051   6.274
  586SOL    HW2 3591  10.078   4.914   6.210
  587SOL     OW 3592   8.363   6.239   3.422
  587SOL    HW1 3593   8.329   6.259   3.335
  587SOL    HW2 3594   8.444   6.290   3.427
  588SOL     OW 3595  14.430   9.349   7.885
  588SOL    HW1 3596  14.441   9.304   7.801
  588SOL    HW2 3597  14.361   9.299   7.929
  589SOL     OW 3598  10.812  11.730   7.988
  589SOL    HW1 3599  10.890  11.757   8.038
  589SOL    HW2 3600  10.825  11.636   7.974
  590SOL     OW 3601   0.564  13.499  14.201
  590SOL    HW1 3602   0.494  13.439  14.226
  590SOL    HW2 3603   0.645  13.451  14.222
  591SOL     OW 3604   0.642  10.471   9.857
  591SOL    HW1 3605   0.721  10.470   9.802
  591SOL    HW2 3606   0.655  10.398   9.918
  592SOL     OW 3607  12.929  13.171   3.976
  592SOL    HW1 3608  12.876  13.228   3.920
  592SOL    HW2 3609  12.900  13.082   3.954
  593SOL     OW 3610   9.781  14.590   8.123
  593SOL    HW1 3611   9.766  14.495   8.133
  593SOL    HW2 3612   9.869  14.596   8.085
  594SOL     OW 3613   6.568   5.479   3.017
  594SOL    HW1 3614   6.599   5.481   2.926
  594SOL    HW2 3615   6.561   5.571   3.042
  595SOL     OW 3616  14.501   1.833  13.254
  595SOL    HW1 3617  14.531   1.749  13.220
  595SOL    HW2 3618  14.556   1.850  13.331
  596SOL     OW 3619   3.255  13.812  12.463
  596SOL    HW1 3620   3.268  13.774  12.550
  596SOL    HW2 3621   3.336  13.790  12.415
  597SOL     OW 3622   9.049   0.404   5.512
  597SOL    HW1 3623   9.047   0.496   5.486
  597SOL    HW2 3624   9.104   0.362   5.446
  598SOL     OW 3625  12.614   1.838  13.631
  598SOL    HW1 3626  12.664   1.919  13.645
  598SOL    HW2 3627  12.671   1.784  13.576
  599SOL     OW 3628  14.805   3.471   7.528
  599SOL    HW1 3629  14.783   3.555   7.488
  599SOL    HW2 3630  14.852   3.493   7.608
  600SOL     OW 3631   0.244   8.631   2.702
  600SOL    HW1 3632   0.306   8.559   2.707
  600SOL    HW2 3633   0.299   8.709   2.691
  601SOL     OW 3634   7.913   1.686   6.494
  601SOL    HW1 3635   7.939   1.677   6.403
  601SOL    HW2 3636   7.817   1.681   6.493
  602SOL     OW 3637  11.056   3.744  10.138
  602SOL    HW1 3638  11.144   3.729  10.173
  602SOL    HW2 3639  11.021   3.815  10.193
  603SOL     OW 3640   5.913  10.654   1.001
  603SOL    HW1 3641   5.958  10.637   0.918
  603SOL    HW2 3642   5.859  10.576   1.014
  604SOL     OW 3643   3.431  10.061   5.817
  604SOL    HW1 3644   3.416  10.150   5.851
  604SOL    HW2 3645   3.454  10.075   5.726
  605SOL     OW 3646   0.598  14.199   7.593
  605SOL    HW1 3647   0.587  14.239   7.679
  605SOL    HW2 3648   0.688  14.218   7.569
  606SOL     OW 3649   3.870   5.276  10.623
  606SOL    HW1 3650   3.895   5.258  10.714
  606SOL    HW2 3651   3.892   5.368  10.611
  607SOL     OW 3652   8.963   7.082  13.414
  607SOL    HW1 3653   8.973   6.992  13.444
  607SOL    HW2 3654   9.052   7.112  13.397
  608SOL     OW 3655   7.880   6.346   8.593
  608SOL    HW1 3656   7.891   6.273   8.653
  608SOL    HW2 3657   7.931   6.417   8.631
  609SOL     OW 3658  13.631   5.905   8.109
  609SOL    HW1 3659  13.714   5.913   8.156
  609SOL    HW2 3660  13.569   5.955   8.162
  610SOL     OW 3661   4.262   3.765   3.499
  610SOL    HW1 3662   4.286   3.749   3.590
  610SOL    HW2 3663   4.259   3.860   3.492
  611SOL     OW 3664   9.741   0.730  11.870
  611SOL    HW1 3665   9.777   0.784  11.799
  611SOL    HW2 3666   9.813   0.672  11.895
  612SOL     OW 3667  13.847   8.694   2.914
  612SOL    HW1 3668  13.828   8.696   2.820
  612SOL    HW2 3669  13.943   8.689   2.919
  613SOL     OW 3670   0.750  12.066  12.505
  613SOL    HW1 3671   0.771  12.156  12.528
  613SOL    HW2 3672   0.768  12.015  12.584
  614SOL     OW 3673  10.152   9.377   8.037
  614SOL    HW1 3674  10.134   9.315   8.108
  614SOL    HW2 3675  10.248   9.383   8.034
  615SOL     OW 3676  12.988   6.161   5.781
  615SOL    HW1 3677  12.938   6.205   5.712
  615SOL    HW2 3678  12.933   6.166   5.858
  616SOL     OW 3679   3.797   5.662   8.279
  616SOL    HW1 3680   3.823   5.666   8.371
  616SOL    HW2 3681   3.776   5.752   8.256
  617SOL     OW 3682   2.587   1.471  10.527
  617SOL    HW1 3683   2.533   1.549  10.516
  617SOL    HW2 3684   2.583   1.427  10.442
  618SOL     OW 3685   1.815   5.841  12.599
  618SOL    HW1 3686   1.910   5.833  12.610
  618SOL    HW2 3687   1.805   5.917  12.541
  619SOL     OW 3688   1.042  13.073  12.377
  619SOL    HW1 3689   1.065  13.012  12.306
  619SOL    HW2 3690   0.977  13.131  12.338
  620SOL     OW 3691   8.825  14.003   1.326
  620SOL    HW1 3692   8.897  13.977   1.269
  620SOL    HW2 3693   8.829  13.943   1.400
  621SOL     OW 3694  11.307  12.505   3.541
  621SOL    HW1 3695  11.298  12.451   3.463
  621SOL    HW2 3696  11.273  12.590   3.516
  622SOL     OW 3697  12.921   9.610  14.484
  622SOL    HW1 3698  12.864   9.582  14.555
  622SOL    HW2 3699  12.989   9.662  14.527
  623SOL     OW 3700   9.779   4.115   2.356
  623SOL    HW1 3701   9.791   4.205   2.324
  623SOL    HW2 3702   9.696   4.087   2.319
  624SOL     OW 3703   0.574   9.579   0.613
  624SOL    HW1 3704   0.511   9.507   0.619
  624SOL    HW2 3705   0.652   9.540   0.575
  625SOL     OW 3706   4.108   1.902  10.089
  625SOL    HW1 3707   4.197   1.881  10.061
  625SOL    HW2 3708   4.113   1.906  10.185
  626SOL     OW 3709   7.101  10.304  12.107
  626SOL    HW1 3710   7.193  10.312  12.133
  626SOL    HW2 3711   7.104  10.265  12.019
  627SOL     OW 3712   9.669   8.058   5.481
  627SOL    HW1 3713   9.581   8.088   5.458
  627SOL    HW2 3714   9.722   8.076   5.403
  628SOL     OW 3715  13.490   3.062   0.660
  628SOL    HW1 3716  13.408   3.100   0.691
  628SOL    HW2 3717  13.556   3.130   0.677
  629SOL     OW 3718   4.583   5.776  11.402
  629SOL    HW1 3719   4.490   5.773  11.426
  629SOL    HW2 3720   4.621   5.839  11.463
  630SOL     OW 3721   1.387  13.900  10.854
  630SOL    HW1 3722   1.385  13.808  10.830
  630SOL    HW2 3723   1.449  13.905  10.927
  631SOL     OW 3724   1.918   2.517   8.543
  631SOL    HW1 3725   1.877   2.552   8.464
  631SOL    HW2 3726   1.875   2.433   8.557
  632SOL     OW 3727   4.626  12.158   1.222
  632SOL    HW1 3728   4.585  12.081   1.183
  632SOL    HW2 3729   4.634  12.220   1.150
  633SOL     OW 3730   7.950   2.771   6.793
  633SOL    HW1 3731   8.040   2.785   6.823
  633SOL    HW2 3732   7.899   2.760   6.874
  634SOL     OW 3733  11.402  10.517  14.648
  634SOL    HW1 3734  11.480  10.487  14.695
  634SOL    HW2 3735  11.329  10.494  14.704
  635SOL     OW 3736   7.794  12.637   2.767
  635SOL    HW1 3737   7.731  12.597   2.706
  635SOL    HW2 3738   7.758  12.617   2.854
  636SOL     OW 3739  12.256   9.155  12.158
  636SOL    HW1 3740  12.200   9.178  12.231
  636SOL    HW2 3741  12.274   9.238  12.114
  637SOL     OW 3742  11.631   5.866   6.695
  637SOL    HW1 3743  11.700   5.805   6.721
  637SOL    HW2 3744  11.646   5.881   6.602
  638SOL     OW 3745   3.807   4.016   2.923
  638SOL    HW1 3746   3.751   4.093   2.913
  638SOL    HW2 3747   3.758   3.944   2.883
  639SOL     OW 3748  11.241   6.757  13.771
  639SOL    HW1 3749  11.312   6.742  13.833
  639SOL    HW2 3750  11.263   6.703  13.695
  640SOL     OW 3751  14.156   3.259  13.098
  640SOL    HW1 3752  14.138   3.192  13.033
  640SOL    HW2 3753  14.135   3.218  13.182
  641SOL     OW 3754  14.122   2.082   7.653
  641SOL    HW1 3755  14.123   2.006   7.596
  641SOL    HW2 3756  14.030   2.092   7.678
  642SOL     OW 3757   1.697  14.553   2.116
  642SOL    HW1 3758   1.712  14.475   2.171
  642SOL    HW2 3759   1.776  14.561   2.063
  643SOL     OW 3760   1.076  13.919   3.225
  643SOL    HW1 3761   1.169  13.926   3.248
  643SOL    HW2 3762   1.054  14.006   3.192
  644SOL     OW 3763  11.289  13.887   5.628
  644SOL    HW1 3764  11.253  13.798   5.624
  644SOL    HW2 3765  11.250  13.931   5.553
  645SOL     OW 3766  11.731  13.615   1.077
  645SOL    HW1 3767  11.643  13.622   1.042
  645SOL    HW2 3768  11.784  13.672   1.021
  646SOL     OW 3769   1.026   9.590   8.327
  646SOL    HW1 3770   1.087   9.657   8.356
  646SOL    HW2 3771   0.946   9.638   8.306
  647SOL     OW 3772   8.752   9.211   1.765
  647SOL    HW1 3773   8.787   9.299   1.746
  647SOL    HW2 3774   8.774   9.160   1.687
  648SOL     OW 3775  14.403   3.285   0.109
  648SOL    HW1 3776  14.334   3.222   0.132
  648SOL    HW2 3777  14.445   3.247   0.032
  649SOL     OW 3778   4.459   5.055   3.583
  649SOL    HW1 3779   4.536   5.002   3.600
  649SOL    HW2 3780   4.491   5.128   3.530
  650SOL     OW 3781   6.114   8.116   3.390
  650SOL    HW1 3782   6.097   8.169   3.468
  650SOL    HW2 3783   6.032   8.067   3.376
  651SOL     OW 3784  10.912   0.206   0.692
  651SOL    HW1 3785  10.890   0.191   0.784
  651SOL    HW2 3786  10.832   0.240   0.653
  652SOL     OW 3787  14.546   5.546  10.067
  652SOL    HW1 3788  14.544   5.450  10.062
  652SOL    HW2 3789  14.574   5.574   9.980
  653SOL     OW 3790  13.603  11.450  10.173
  653SOL    HW1 3791  13.593  11.371  10.120
  653SOL    HW2 3792  13.647  11.512  10.115
  654SOL     OW 3793  12.146   1.948   5.741
  654SOL    HW1 3794  12.104   1.958   5.656
  654SOL    HW2 3795  12.074   1.948   5.804
  655SOL     OW 3796  11.861  11.414   0.423
  655SOL    HW1 3797  11.901  11.415   0.336
  655SOL    HW2 3798  11.771  11.384   0.407
  656SOL     OW 3799   0.828   8.849  12.630
  656SOL    HW1 3800   0.872   8.860  12.714
  656SOL    HW2 3801   0.830   8.935  12.589
  657SOL     OW 3802   1.841   7.331   1.873
  657SOL    HW1 3803   1.800   7.410   1.907
  657SOL    HW2 3804   1.805   7.260   1.927
  658SOL     OW 3805   0.837   7.163  10.879
  658SOL    HW1 3806   0.850   7.131  10.789
  658SOL    HW2 3807   0.788   7.093  10.922
  659SOL     OW 3808   1.045   9.391   8.545
  659SOL    HW1 3809   1.064   9.455   8.476
  659SOL    HW2 3810   0.968   9.344   8.514
  660SOL     OW 3811   4.406   2.399   0.771
  660SOL    HW1 3812   4.359   2.447   0.839
  660SOL    HW2 3813   4.436   2.319   0.815
  661SOL     OW 3814  12.502   6.618   0.554
  661SOL    HW1 3815  12.480   6.709   0.535
  661SOL    HW2 3816  12.425   6.568   0.528
  662SOL     OW 3817  13.004  13.030   1.473
  662SOL    HW1 3818  13.023  12.936   1.480
  662SOL    HW2 3819  13.074  13.064   1.417
  663SOL     OW 3820   8.700   6.503   1.415
  663SOL    HW1 3821   8.684   6.589   1.454
  663SOL    HW2 3822   8.741   6.522   1.330
  664SOL     OW 3823  13.935   2.557   4.973
  664SOL    HW1 3824  14.000   2.534   5.039
  664SOL    HW2 3825  13.955   2.500   4.899
  665SOL     OW 3826   0.657   8.557  11.010
  665SOL    HW1 3827   0.662   8.539  11.104
  665SOL    HW2 3828   0.685   8.475  10.969
  666SOL     OW 3829  11.425   2.014   5.289
  666SOL    HW1 3830  11.490   1.977   5.349
  666SOL    HW2 3831  11.419   1.951   5.218
  667SOL     OW 3832   2.554   4.978   9.047
  667SOL    HW1 3833   2.600   4.910   9.000
  667SOL    HW2 3834   2.498   4.931   9.110
  668SOL     OW 3835   8.432   0.300   8.882
  668SOL    HW1 3836   8.480   0.383   8.878
  668SOL    HW2 3837   8.474   0.245   8.816
  669SOL     OW 3838  13.856   9.701  14.322
  669SOL    HW1 3839  13.764   9.707  14.295
  669SOL    HW2 3840  13.891   9.627  14.273
  670SOL     OW 3841  12.273   8.701  11.163
  670SOL    HW1 3842  12.227   8.698  11.079
  670SOL    HW2 3843  12.348   8.642  11.151
  671SOL     OW 3844   0.222   4.262   4.352
  671SOL    HW1 3845   0.315   4.275   4.372
  671SOL    HW2 3846   0.181   4.346   4.375
  672SOL     OW 3847   5.901   2.875   2.571
  672SOL    HW1 3848   5.886   2.851   2.663
  672SOL    HW2 3849   5.959   2.807   2.537
  673SOL     OW 3850   9.507  10.112   0.360
  673SOL    HW1 3851   9.495  10.072   0.274
  673SOL    HW2 3852   9.482  10.042   0.422
  674SOL     OW 3853   7.291  10.748   9.773
  674SOL    HW1 3854   7.359  10.709   9.719
  674SOL    HW2 3855   7.246  10.674   9.814
  675SOL     OW 3856   8.453  11.350   5.659
  675SOL    HW1 3857   8.513  11.423   5.642
  675SOL    HW2 3858   8.369  11.380   5.625
  676SOL     OW 3859   2.095   5.225  13.673
  676SOL    HW1 3860   2.136   5.171  13.740
  676SOL    HW2 3861   2.140   5.201  13.592
  677SOL     OW 3862  12.184   7.820   6.505
  677SOL    HW1 3863  12.122   7.885   6.538
  677SOL    HW2 3864  12.136   7.774   6.436
  678SOL     OW 3865   8.938  14.731   3.982
  678SOL    HW1 3866   8.929  14.637   3.989
  678SOL    HW2 3867   9.010  14.744   3.920
  679SOL     OW 3868  13.036   4.216   6.944
  679SOL    HW1 3869  13.021   4.267   7.023
  679SOL    HW2 3870  13.117   4.168   6.962
  680SOL     OW 3871   2.343   1.332  11.702
  680SOL    HW1 3872   2.412   1.327  11.635
  680SOL    HW2 3873   2.389   1.361  11.781
  681SOL     OW 3874  12.543  11.846   6.311
  681SOL    HW1 3875  12.589  11.813   6.388
  681SOL    HW2 3876  12.463  11.794   6.307
  682SOL     OW 3877   5.199   2.139   3.017
  682SOL    HW1 3878   5.164   2.210   2.963
  682SOL    HW2 3879   5.126   2.076   3.024
  683SOL     OW 3880   7.314   0.143  12.601
  683SOL    HW1 3881   7.330   0.110  12.513
  683SOL    HW2 3882   7.238   0.094  12.632
  684SOL     OW 3883   6.233   8.019  12.689
  684SOL    HW1 3884   6.142   8.047  12.699
  684SOL    HW2 3885   6.265   8.009  12.779
  685SOL     OW 3886   3.909   0.477  14.179
  685SOL    HW1 3887   3.934   0.446  14.267
  685SOL    HW2 3888   3.843   0.544  14.195
  686SOL     OW 3889   8.381   3.231  12.146
  686SOL    HW1 3890   8.475   3.221  12.128
  686SOL    HW2 3891   8.361   3.320  12.116
  687SOL     OW 3892  10.940   4.501   8.912
  687SOL    HW1 3893  10.850   4.497   8.880
  687SOL    HW2 3894  10.968   4.409   8.917
  688SOL     OW 3895  14.319   7.064   0.112
  688SOL    HW1 3896  14.354   7.145   0.075
  688SOL    HW2 3897  14.392   7.002   0.108
  689SOL     OW 3898   7.459   5.872  13.931
  689SOL    HW1 3899   7.516   5.943  13.901
  689SOL    HW2 3900   7.372   5.897  13.903
  690SOL     OW 3901   0.846  14.562   7.544
  690SOL    HW1 3902   0.917  14.589   7.603
  690SOL    HW2 3903   0.833  14.637   7.486
  691SOL     OW 3904   5.461  10.188  14.003
  691SOL    HW1 3905   5.462  10.196  14.098
  691SOL    HW2 3906   5.395  10.122  13.985
  692SOL     OW 3907  11.951   8.013   4.432
  692SOL    HW1 3908  11.967   8.000   4.339
  692SOL    HW2 3909  11.999   8.093   4.454
  693SOL     OW 3910  10.199   6.532  10.900
  693SOL    HW1 3911  10.178   6.604  10.840
  693SOL    HW2 3912  10.113   6.497  10.925
  694SOL     OW 3913  10.770   7.163   3.235
  694SOL    HW1 3914  10.706   7.227   3.265
  694SOL    HW2 3915  10.852   7.213   3.227
  695SOL     OW 3916  10.735   9.502   4.221
  695SOL    HW1 3917  10.730   9.433   4.155
  695SOL    HW2 3918  10.808   9.557   4.194
  696SOL     OW 3919   4.460  12.769  12.053
  696SOL    HW1 3920   4.540  12.717  12.059
  696SOL    HW2 3921   4.476  12.845  12.109
  697SOL     OW 3922   5.589  14.266   1.514
  697SOL    HW1 3923   5.576  14.350   1.558
  697SOL    HW2 3924   5.683  14.263   1.496
  698SOL     OW 3925   6.795   1.225  13.561
  698SOL    HW1 3926   6.724   1.271  13.517
  698SOL    HW2 3927   6.875   1.265  13.525
  699SOL     OW 3928  11.835   4.379   5.464
  699SOL    HW1 3929  11.897   4.336   5.522
  699SOL    HW2 3930  11.773   4.310   5.440
  700SOL     OW 3931  11.590   3.512   9.535
  700SOL    HW1 3932  11.677   3.487   9.565
  700SOL    HW2 3933  11.603   3.597   9.492
  701SOL     OW 3934  14.325   7.746   8.705
  701SOL    HW1 3935  14.294   7.665   8.746
  701SOL    HW2 3936  14.337   7.806   8.779
  702SOL     OW 3937   9.637   6.417   4.232
  702SOL    HW1 3938   9.652   6.397   4.140
  702SOL    HW2 3939   9.550   6.383   4.251
  703SOL     OW 3940   0.698   1.568  10.279
  703SOL    HW1 3941   0.634   1.549  10.348
  703SOL    HW2 3942   0.746   1.486  10.268
  704SOL     OW 3943  10.829  10.932   4.199
  704SOL    HW1 3944  10.740  10.926   4.164
  704SOL    HW2 3945  10.817  10.943   4.293
  705SOL     OW 3946   4.369   6.972  10.257
  705SOL    HW1 3947   4.395   7.060  10.286
  705SOL    HW2 3948   4.386   6.916  10.332
  706SOL     OW 3949   7.455   9.758   5.615
  706SOL    HW1 3950   7.389   9.803   5.668
  706SOL    HW2 3951   7.538   9.777   5.660
  707SOL     OW 3952   7.862   1.728   0.252
  707SOL    HW1 3953   7.805   1.801   0.229
  707SOL    HW2 3954   7.871   1.677   0.172
  708SOL     OW 3955   1.529   6.956   4.130
  708SOL    HW1 3956   1.465   7.026   4.118
  708SOL    HW2 3957   1.613   7.002   4.139
  709SOL     OW 3958   2.427  12.394  13.450
  709SOL    HW1 3959   2.427  12.441  13.533
  709SOL    HW2 3960   2.492  12.324  13.462
  710SOL     OW 3961  12.552   8.713  11.524
  710SOL    HW1 3962  12.530   8.621  11.533
  710SOL    HW2 3963  12.468   8.758  11.522
  711SOL     OW 3964  10.847  12.447  14.614
  711SOL    HW1 3965  10.790  12.523  14.610
  711SOL    HW2 3966  10.795  12.376  14.576
  712SOL     OW 3967  12.315  13.251   6.255
  712SOL    HW1 3968  12.401  13.207   6.258
  712SOL    HW2 3969  12.252  13.181   6.270
  713SOL     OW 3970   6.323   1.351  12.024
  713SOL    HW1 3971   6.351   1.440  12.044
  713SOL    HW2 3972   6.381   1.295  12.077
  714SOL     OW 3973   8.737   0.282  10.207
  714SOL    HW1 3974   8.661   0.224  10.210
  714SOL    HW2 3975   8.702   0.367  10.236
  715SOL     OW 3976  14.731   3.681   0.343
  715SOL    HW1 3977  14.659   3.727   0.301
  715SOL    HW2 3978  14.809   3.727   0.313
  716SOL     OW 3979  11.492   0.505  10.501
  716SOL    HW1 3980  11.581   0.503  10.465
  716SOL    HW2 3981  11.435   0.512  10.425
  717SOL     OW 3982  13.142   3.105   3.758
  717SOL    HW1 3983  13.097   3.047   3.696
  717SOL    HW2 3984  13.198   3.160   3.703
  718SOL     OW 3985   9.211  11.417  14.067
  718SOL    HW1 3986   9.240  11.403  13.977
  718SOL    HW2 3987   9.234  11.508  14.086
  719SOL     OW 3988   2.956  12.986   6.344
  719SOL    HW1 3989   2.873  12.952   6.309
  719SOL    HW2 3990   3.005  13.013   6.266
  720SOL     OW 3991   4.241  14.438  12.893
  720SOL    HW1 3992   4.247  14.498  12.968
  720SOL    HW2 3993   4.325  14.391  12.893
  721SOL     OW 3994   6.516   7.408   2.744
  721SOL    HW1 3995   6.451   7.395   2.813
  721SOL    HW2 3996   6.598   7.376   2.782
  722SOL     OW 3997   0.616   5.246  10.439
  722SOL    HW1 3998   0.528   5.211  10.453
  722SOL    HW2 3999   0.644   5.275  10.526
  723SOL     OW 4000   1.367   3.457   0.247
  723SOL    HW1 4001   1.359   3.383   0.186
  723SOL    HW2 4002   1.450   3.442   0.292
  724SOL     OW 4003  11.337  14.084  12.533
  724SOL    HW1 4004  11.242  14.082  12.527
  724SOL    HW2 4005  11.367  14.094  12.442
  725SOL     OW 4006  10.266   3.852   2.390
  725SOL    HW1 4007  10.258   3.765   2.427
  725SOL    HW2 4008  10.347   3.887   2.426
  726SOL     OW 4009   5.849   3.905   3.795
  726SOL    HW1 4010   5.810   3.820   3.776
  726SOL    HW2 4011   5.901   3.891   3.874
  727SOL     OW 4012  10.200   6.587  14.562
  727SOL    HW1 4013  10.223   6.535  14.639
  727SOL    HW2 4014  10.137   6.651  14.594
  728SOL     OW 4015   2.381  11.585   6.318
  728SOL    HW1 4016   2.311  11.642   6.350
  728SOL    HW2 4017   2.341  11.499   6.309
  729SOL     OW 4018   2.479   3.782  13.834
  729SOL    HW1 4019   2.440   3.859  13.792
  729SOL    HW2 4020   2.460   3.793  13.927
  730SOL     OW 4021   3.156   9.857   7.896
  730SOL    HW1 4022   3.098   9.783   7.879
  730SOL    HW2 4023   3.116   9.929   7.847
  731SOL     OW 4024   0.845   4.467  12.896
  731SOL    HW1 4025   0.819   4.415  12.819
  731SOL    HW2 4026   0.875   4.550  12.860
  732SOL     OW 4027   3.513   3.329   7.002
  732SOL    HW1 4028   3.540   3.368   7.085
  732SOL    HW2 4029   3.588   3.339   6.944
  733SOL     OW 4030   9.467   0.290  10.205
  733SOL    HW1 4031   9.423   0.336  10.133
  733SOL    HW2 4032   9.516   0.359  10.251
  734SOL     OW 4033   9.989   8.300  14.558
  734SOL    HW1 4034  10.046   8.238  14.513
  734SOL    HW2 4035   9.933   8.246  14.613
  735SOL     OW 4036   9.285   5.706   9.526
  735SOL    HW1 4037   9.358   5.757   9.562
  735SOL    HW2 4038   9.207   5.755   9.553
  736SOL     OW 4039   6.542  11.572   9.366
  736SOL    HW1 4040   6.538  11.569   9.271
  736SOL    HW2 4041   6.478  11.639   9.391
  737SOL     OW 4042   0.138  12.103  10.348
  737SOL    HW1 4043   0.099  12.067  10.269
  737SOL    HW2 4044   0.158  12.026  10.402
  738SOL     OW 4045   4.680   8.541   4.833
  738SOL    HW1 4046   4.643   8.462   4.793
  738SOL    HW2 4047   4.724   8.510   4.912
  739SOL     OW 4048  14.312   9.802   9.957
  739SOL    HW1 4049  14.384   9.740   9.941
  739SOL    HW2 4050  14.356   9.880   9.993
  740SOL     OW 4051   7.684  14.379   9.002
  740SOL    HW1 4052   7.739  14.310   8.965
  740SOL    HW2 4053   7.745  14.436   9.049
  741SOL     OW 4054  11.549  14.543   1.073
  741SOL    HW1 4055  11.630  14.590   1.093
  741SOL    HW2 4056  11.514  14.588   0.996
  742SOL     OW 4057  10.260   0.696   7.638
  742SOL    HW1 4058  10.299   0.726   7.556
  742SOL    HW2 4059  10.174   0.739   7.641
  743SOL     OW 4060   3.952  14.579   1.632
  743SOL    HW1 4061   4.017  14.646   1.613
  743SOL    HW2 4062   3.895  14.619   1.698
  744SOL     OW 4063  13.346   3.811   9.206
  744SOL    HW1 4064  13.267   3.819   9.154
  744SOL    HW2 4065  13.417   3.807   9.142
  745SOL     OW 4066  10.828  13.599  14.122
  745SOL    HW1 4067  10.799  13.573  14.035
  745SOL    HW2 4068  10.886  13.527  14.150
  746SOL     OW 4069  12.141   5.051  11.395
  746SOL    HW1 4070  12.191   5.059  11.477
  746SOL    HW2 4071  12.050   5.041  11.423
  747SOL     OW 4072   5.846   1.199   5.833
  747SOL    HW1 4073   5.817   1.108   5.826
  747SOL    HW2 4074   5.803   1.232   5.911
  748SOL     OW 4075   5.941   7.049  11.050
  748SOL    HW1 4076   5.974   7.124  11.100
  748SOL    HW2 4077   5.954   6.974  11.108
  749SOL     OW 4078   6.332  11.537   2.439
  749SOL    HW1 4079   6.370  11.473   2.499
  749SOL    HW2 4080   6.407  11.585   2.404
  750SOL     OW 4081   9.263   7.646   6.043
  750SOL    HW1 4082   9.195   7.677   6.102
  750SOL    HW2 4083   9.319   7.590   6.098
  751SOL     OW 4084   1.510   7.122  10.306
  751SOL    HW1 4085   1.447   7.057  10.275
  751SOL    HW2 4086   1.472   7.206  10.281
  752SOL     OW 4087   0.473  12.436   4.900
  752SOL    HW1 4088   0.559  12.478   4.906
  752SOL    HW2 4089   0.484  12.371   4.831
  753SOL     OW 4090   5.614   3.296   0.433
  753SOL    HW1 4091   5.670   3.225   0.401
  753SOL    HW2 4092   5.547   3.306   0.365
  754SOL     OW 4093   7.653   3.307  13.043
  754SOL    HW1 4094   7.720   3.244  13.072
  754SOL    HW2 4095   7.702   3.385  13.018
  755SOL     OW 4096  13.402  13.004   5.337
  755SOL    HW1 4097  13.382  13.042   5.251
  755SOL    HW2 4098  13.385  13.075   5.399
  756SOL     OW 4099   7.231  13.763   2.238
  756SOL    HW1 4100   7.163  13.718   2.188
  756SOL    HW2 4101   7.189  13.788   2.320
  757SOL     OW 4102   3.109  14.490   8.193
  757SOL    HW1 4103   3.096  14.582   8.169
  757SOL    HW2 4104   3.084  14.486   8.285
  758SOL     OW 4105  11.505   4.457   1.283
  758SOL    HW1 4106  11.455   4.469   1.364
  758SOL    HW2 4107  11.593   4.486   1.304
  759SOL     OW 4108   6.067   0.841  11.446
  759SOL    HW1 4109   6.051   0.748  11.434
  759SOL    HW2 4110   6.143   0.859  11.390
  760SOL     OW 4111   6.212   3.724   3.120
  760SOL    HW1 4112   6.236   3.707   3.029
  760SOL    HW2 4113   6.176   3.812   3.120
  761SOL     OW 4114   1.629  11.462  13.780
  761SOL    HW1 4115   1.621  11.377  13.735
  761SOL    HW2 4116   1.631  11.526  13.710
  762SOL     OW 4117   6.806   1.896   2.395
  762SOL    HW1 4118   6.871   1.833   2.364
  762SOL    HW2 4119   6.724   1.846   2.399
  763SOL     OW 4120  12.727   4.892  11.521
  763SOL    HW1 4121  12.769   4.876  11.437
  763SOL    HW2 4122  12.655   4.952  11.501
  764SOL     OW 4123  14.179   6.098  11.408
  764SOL    HW1 4124  14.139   6.053  11.483
  764SOL    HW2 4125  14.173   6.035  11.336
  765SOL     OW 4126   2.652   2.322   6.340
  765SOL    HW1 4127   2.668   2.331   6.246
  765SOL    HW2 4128   2.616   2.407   6.366
  766SOL     OW 4129   7.288   7.439  14.787
  766SOL    HW1 4130   7.296   7.515  14.844
  766SOL    HW2 4131   7.359   7.449  14.723
  767SOL     OW 4132   0.993  13.276   3.186
  767SOL    HW1 4133   1.079  13.316   3.177
  767SOL    HW2 4134   1.008  13.197   3.238
  768SOL     OW 4135   8.691   3.700   8.480
  768SOL    HW1 4136   8.610   3.748   8.493
  768SOL    HW2 4137   8.720   3.676   8.568
  769SOL     OW 4138   3.248   4.283   3.341
  769SOL    HW1 4139   3.188   4.322   3.405
  769SOL    HW2 4140   3.197   4.212   3.301
  770SOL     OW 4141  11.663  11.023   4.414
  770SOL    HW1 4142  11.632  10.936   4.389
  770SOL    HW2 4143  11.751  11.009   4.448
  771SOL     OW 4144   4.023  10.821  11.700
  771SOL    HW1 4145   4.055  10.904  11.736
  771SOL    HW2 4146   4.086  10.756  11.729
  772SOL     OW 4147  11.811   4.730  12.046
  772SOL    HW1 4148  11.769   4.748  12.130
  772SOL    HW2 4149  11.901   4.708  12.070
  773SOL     OW 4150   2.835   5.774  12.189
  773SOL    HW1 4151   2.816   5.681  12.197
  773SOL    HW2 4152   2.856   5.787  12.097
  774SOL     OW 4153   2.833  10.661   3.751
  774SOL    HW1 4154   2.766  10.632   3.689
  774SOL    HW2 4155   2.913  10.667   3.698
  775SOL     OW 4156  13.641  11.417   6.668
  775SOL    HW1 4157  13.566  11.474   6.654
  775SOL    HW2 4158  13.631  11.348   6.603
  776SOL     OW 4159   0.230  10.463   9.485
  776SOL    HW1 4160   0.242  10.399   9.555
  776SOL    HW2 4161   0.247  10.413   9.404
  777SOL     OW 4162   4.931   5.593   1.013
  777SOL    HW1 4163   4.970   5.620   0.930
  777SOL    HW2 4164   4.997   5.618   1.079
  778SOL     OW 4165   1.026   0.635   7.133
  778SOL    HW1 4166   1.045   0.669   7.221
  778SOL    HW2 4167   0.956   0.691   7.101
  779SOL     OW 4168  13.100  11.342   6.575
  779SOL    HW1 4169  13.080  11.384   6.659
  779SOL    HW2 4170  13.057  11.257   6.580
  780SOL     OW 4171  11.468   7.790  13.246
  780SOL    HW1 4172  11.532   7.787  13.175
  780SOL    HW2 4173  11.476   7.705  13.289
  781SOL     OW 4174   0.656   8.129   5.552
  781SOL    HW1 4175   0.571   8.106   5.589
  781SOL    HW2 4176   0.707   8.048   5.556
  782SOL     OW 4177   5.086   6.152   0.550
  782SOL    HW1 4178   5.023   6.204   0.500
  782SOL    HW2 4179   5.047   6.064   0.554
  783SOL     OW 4180   7.976   6.814  14.798
  783SOL    HW1 4181   7.998   6.772  14.714
  783SOL    HW2 4182   7.880   6.815  14.799
  784SOL     OW 4183   0.346   5.236  11.736
  784SOL    HW1 4184   0.432   5.276  11.718
  784SOL    HW2 4185   0.367   5.147  11.764
  785SOL     OW 4186  13.373   4.518   5.930
  785SOL    HW1 4187  13.400   4.609   5.915
  785SOL    HW2 4188  13.286   4.525   5.968
  786SOL     OW 4189   5.401  10.968  11.323
  786SOL    HW1 4190   5.461  10.894  11.327
  786SOL    HW2 4191   5.409  11.010  11.409
  787SOL     OW 4192   0.574   9.711  11.451
  787SOL    HW1 4193   0.576   9.617  11.436
  787SOL    HW2 4194   0.552   9.720  11.544
  788SOL     OW 4195  12.040   8.432   7.310
  788SOL    HW1 4196  12.043   8.453   7.217
  788SOL    HW2 4197  11.946   8.429   7.331
  789SOL     OW 4198   7.301   4.276  11.585
  789SOL    HW1 4199   7.337   4.223  11.514
  789SOL    HW2 4200   7.378   4.312  11.630
  790SOL     OW 4201   0.995  10.373   3.576
  790SOL    HW1 4202   1.011  10.287   3.616
  790SOL    HW2 4203   1.061  10.380   3.508
  791SOL     OW 4204   6.934   8.573  11.569
  791SOL    HW1 4205   7.019   8.568  11.614
  791SOL    HW2 4206   6.926   8.489  11.523
  792SOL     OW 4207   3.043   0.870  10.929
  792SOL    HW1 4208   3.099   0.818  10.871
  792SOL    HW2 4209   3.102   0.931  10.971
  793SOL     OW 4210  13.782   8.311   0.782
  793SOL    HW1 4211  13.814   8.365   0.854
  793SOL    HW2 4212  13.742   8.235   0.825
  794SOL     OW 4213  13.573   4.082  14.077
  794SOL    HW1 4214  13.638   4.049  14.139
  794SOL    HW2 4215  13.622   4.094  13.995
  795SOL     OW 4216   3.823   0.909   6.336
  795SOL    HW1 4217   3.907   0.950   6.355
  795SOL    HW2 4218   3.791   0.955   6.259
  796SOL     OW 4219   9.864  10.662  11.329
  796SOL    HW1 4220   9.903  10.644  11.243
  796SOL    HW2 4221   9.786  10.714  11.310
  797SOL     OW 4222   7.274   6.913   0.973
  797SOL    HW1 4223   7.302   6.974   1.042
  797SOL    HW2 4224   7.201   6.864   1.012
  798SOL     OW 4225  11.297   4.135   4.983
  798SOL    HW1 4226  11.311   4.040   4.987
  798SOL    HW2 4227  11.298   4.156   4.890
  799SOL     OW 4228   3.824   3.793   2.101
  799SOL    HW1 4229   3.837   3.888   2.104
  799SOL    HW2 4230   3.912   3.757   2.112
  800SOL     OW 4231   5.112   6.986   1.047
  800SOL    HW1 4232   5.080   6.988   0.956
  800SOL    HW2 4233   5.172   7.060   1.052
  801SOL     OW 4234   6.381   9.320  12.439
  801SOL    HW1 4235   6.372   9.415  12.447
  801SOL    HW2 4236   6.324   9.285  12.508
  802SOL     OW 4237   2.058   2.229  12.946
  802SOL    HW1 4238   2.036   2.259  13.034
  802SOL    HW2 4239   2.144   2.267  12.928
  803SOL     OW 4240  11.825   8.430  14.667
  803SOL    HW1 4241  11.845   8.524  14.664
  803SOL    HW2 4242  11.744   8.422  14.617
  804SOL     OW 4243   3.759   0.139  10.796
  804SOL    HW1 4244   3.765   0.088  10.876
  804SOL    HW2 4245   3.670   0.126  10.765
  805SOL     OW 4246   5.756  13.396  13.145
  805SOL    HW1 4247   5.823  13.452  13.104
  805SOL    HW2 4248   5.758  13.315  13.094
  806SOL     OW 4249   4.707   7.054  12.973
  806SOL    HW1 4250   4.650   7.067  13.048
  806SOL    HW2 4251   4.655   7.082  12.898
  807SOL     OW 4252   7.786   2.682   9.346
  807SOL    HW1 4253   7.750   2.617   9.406
  807SOL    HW2 4254   7.860   2.638   9.305
  808SOL     OW 4255  10.356   1.399   6.907
  808SOL    HW1 4256  10.440   1.356   6.888
  808SOL    HW2 4257  10.375   1.457   6.981
  809SOL     OW 4258  12.978   7.799   4.489
  809SOL    HW1 4259  12.885   7.781   4.474
  809SOL    HW2 4260  12.979   7.884   4.532
  810SOL     OW 4261  10.175   3.130  11.155
  810SOL    HW1 4262  10.122   3.206  11.132
  810SOL    HW2 4263  10.259   3.166  11.183
  811SOL     OW 4264   1.348  11.940  11.486
  811SOL    HW1 4265   1.293  11.994  11.543
  811SOL    HW2 4266   1.322  11.850  11.506
  812SOL     OW 4267   8.902  13.580   8.280
  812SOL    HW1 4268   8.889  13.660   8.330
  812SOL    HW2 4269   8.954  13.524   8.337
  813SOL     OW 4270  14.724   2.183   9.722
  813SOL    HW1 4271  14.742   2.159   9.813
  813SOL    HW2 4272  14.810   2.198   9.683
  814SOL     OW 4273   9.369   3.986   2.203
  814SOL    HW1 4274   9.302   3.925   2.232
  814SOL    HW2 4275   9.335   4.022   2.122
  815SOL     OW 4276   0.547   5.304   5.736
  815SOL    HW1 4277   0.521   5.357   5.812
  815SOL    HW2 4278   0.561   5.216   5.772
  816SOL     OW 4279   4.386   2.709  14.834
  816SOL    HW1 4280   4.472   2.666  14.838
  816SOL    HW2 4281   4.399   2.793   0.003
  817SOL     OW 4282   1.424  12.738   0.963
  817SOL    HW1 4283   1.468  12.717   0.881
  817SOL    HW2 4284   1.383  12.656   0.990
  818SOL     OW 4285   4.826   5.265   5.285
  818SOL    HW1 4286   4.771   5.210   5.341
  818SOL    HW2 4287   4.828   5.350   5.328
  819SOL     OW 4288   3.408   2.431  14.665
  819SOL    HW1 4289   3.330   2.434  14.610
  819SOL    HW2 4290   3.375   2.410  14.752
  820SOL     OW 4291  11.763   3.952  12.281
  820SOL    HW1 4292  11.756   4.026  12.220
  820SOL    HW2 4293  11.675   3.943  12.317
  821SOL     OW 4294   9.308  13.120   1.437
  821SOL    HW1 4295   9.319  13.118   1.532
  821SOL    HW2 4296   9.214  13.136   1.424
  822SOL     OW 4297   6.303   7.567  12.301
  822SOL    HW1 4298   6.304   7.663  12.298
  822SOL    HW2 4299   6.290   7.546  12.393
  823SOL     OW 4300  10.967   7.165   0.936
  823SOL    HW1 4301  10.966   7.072   0.913
  823SOL    HW2 4302  10.879   7.196   0.914
  824SOL     OW 4303   2.560   6.867   1.718
  824SOL    HW1 4304   2.573   6.772   1.712
  824SOL    HW2 4305   2.639   6.905   1.680
  825SOL     OW 4306  10.998  12.033   5.888
  825SOL    HW1 4307  11.049  11.987   5.822
  825SOL    HW2 4308  10.942  12.092   5.839
  826SOL     OW 4309   5.583  11.837   6.514
  826SOL    HW1 4310   5.603  11.901   6.583
  826SOL    HW2 4311   5.505  11.792   6.545
  827SOL     OW 4312   1.740   6.652  11.370
  827SOL    HW1 4313   1.813   6.650  11.432
  827SOL    HW2 4314   1.742   6.741  11.334
  828SOL     OW 4315   4.761   0.977   2.008
  828SOL    HW1 4316   4.790   1.061   1.972
  828SOL    HW2 4317   4.667   0.987   2.022
  829SOL     OW 4318   4.734   2.534   9.666
  829SOL    HW1 4319   4.801   2.536   9.734
  829SOL    HW2 4320   4.720   2.441   9.650
  830SOL     OW 4321  14.715  11.854   8.506
  830SOL    HW1 4322  14.669  11.843   8.423
  830SOL    HW2 4323  14.808  11.856   8.481
  831SOL     OW 4324   6.919   3.942   5.387
  831SOL    HW1 4325   6.826   3.958   5.373
  831SOL    HW2 4326   6.933   3.853   5.352
  832SOL     OW 4327   8.285   1.307   7.413
  832SOL    HW1 4328   8.220   1.264   7.468
  832SOL    HW2 4329   8.242   1.386   7.380
  833SOL     OW 4330  14.030   3.698   4.404
  833SOL    HW1 4331  14.079   3.657   4.476
  833SOL    HW2 4332  14.067   3.658   4.325
  834SOL     OW 4333   3.536   6.739  14.816
  834SOL    HW1 4334   3.463   6.677  14.816
  834SOL    HW2 4335   3.614   6.683  14.819
  835SOL     OW 4336   6.575  12.516   0.809
  835SOL    HW1 4337   6.572  12.453   0.737
  835SOL    HW2 4338   6.590  12.600   0.766
  836SOL     OW 4339   9.686   7.823   8.260
  836SOL    HW1 4340   9.752   7.890   8.275
  836SOL    HW2 4341   9.719   7.745   8.305
  837SOL     OW 4342   2.936   4.244   5.681
  837SOL    HW1 4343   2.943   4.303   5.756
  837SOL    HW2 4344   2.842   4.232   5.668
  838SOL     OW 4345  12.820   0.939   6.456
  838SOL    HW1 4346  12.861   0.929   6.370
  838SOL    HW2 4347  12.866   1.012   6.497
  839SOL     OW 4348   5.445   9.718   4.589
  839SOL    HW1 4349   5.535   9.692   4.606
  839SOL    HW2 4350   5.392   9.654   4.635
  840SOL     OW 4351  12.915   4.495  13.611
  840SOL    HW1 4352  12.908   4.401  13.625
  840SOL    HW2 4353  12.889   4.508  13.520
  841SOL     OW 4354   0.678   5.461   6.743
  841SOL    HW1 4355   0.634   5.376   6.745
  841SOL    HW2 4356   0.673   5.488   6.651
  842SOL     OW 4357   5.329  11.279   8.354
  842SOL    HW1 4358   5.378  11.240   8.281
  842SOL    HW2 4359   5.270  11.210   8.383
  843SOL     OW 4360   1.692   4.439   2.021
  843SOL    HW1 4361   1.738   4.366   1.979
  843SOL    HW2 4362   1.602   4.408   2.032
  844SOL     OW 4363   8.642   4.256   5.224
  844SOL    HW1 4364   8.708   4.187   5.224
  844SOL    HW2 4365   8.561   4.211   5.250
  845SOL     OW 4366   0.544   0.755  12.884
  845SOL    HW1 4367   0.586   0.841  12.872
  845SOL    HW2 4368   0.453   0.776  12.904
  846SOL     OW 4369   8.971   9.961   1.608
  846SOL    HW1 4370   8.891   9.948   1.556
  846SOL    HW2 4371   8.981  10.056   1.613
  847SOL     OW 4372   8.597   8.114   4.889
  847SOL    HW1 4373   8.628   8.196   4.928
  847SOL    HW2 4374   8.533   8.080   4.951
  848SOL     OW 4375   7.171   7.808  14.394
  848SOL    HW1 4376   7.175   7.723  14.438
  848SOL    HW2 4377   7.143   7.788  14.305
  849SOL     OW 4378  14.239  12.354  10.941
  849SOL    HW1 4379  14.170  12.311  10.890
  849SOL    HW2 4380  14.234  12.445  10.914
  850SOL     OW 4381   5.247   1.640  10.464
  850SOL    HW1 4382   5.286   1.588  10.535
  850SOL    HW2 4383   5.312   1.708  10.446
  851SOL     OW 4384   0.377  11.969   0.470
  851SOL    HW1 4385   0.472  11.965   0.454
  851SOL    HW2 4386   0.339  11.983   0.383
  852SOL     OW 4387   4.471   1.251   0.134
  852SOL    HW1 4388   4.416   1.306   0.077
  852SOL    HW2 4389   4.533   1.312   0.173
  853SOL     OW 4390   8.781  11.823   6.239
  853SOL    HW1 4391   8.784  11.919   6.240
  853SOL    HW2 4392   8.838  11.798   6.166
  854SOL     OW 4393   0.607   3.782   0.934
  854SOL    HW1 4394   0.624   3.742   0.849
  854SOL    HW2 4395   0.512   3.795   0.936
  855SOL     OW 4396   0.995  10.855   4.142
  855SOL    HW1 4397   1.003  10.948   4.120
  855SOL    HW2 4398   0.923  10.823   4.089
  856SOL     OW 4399  14.456  10.839   0.726
  856SOL    HW1 4400  14.415  10.925   0.740
  856SOL    HW2 4401  14.423  10.785   0.797
  857SOL     OW 4402  12.665   8.082   8.353
  857SOL    HW1 4403  12.639   8.102   8.443
  857SOL    HW2 4404  12.761   8.079   8.356
  858SOL     OW 4405   3.889   4.355   5.934
  858SOL    HW1 4406   3.984   4.360   5.946
  858SOL    HW2 4407   3.871   4.262   5.922
  859SOL     OW 4408   5.787   7.186  10.019
  859SOL    HW1 4409   5.815   7.265  10.065
  859SOL    HW2 4410   5.867   7.150   9.982
  860SOL     OW 4411  10.376  10.906  10.093
  860SOL    HW1 4412  10.422  10.912  10.177
  860SOL    HW2 4413  10.366  10.997  10.065
  861SOL     OW 4414   2.628   0.981   8.706
  861SOL    HW1 4415   2.623   1.068   8.747
  861SOL    HW2 4416   2.572   0.926   8.760
  862SOL     OW 4417   5.303  14.761   3.745
  862SOL    HW1 4418   5.240  14.820   3.703
  862SOL    HW2 4419   5.268  14.674   3.729
  863SOL     OW 4420   3.564  13.976  11.762
  863SOL    HW1 4421   3.535  13.887  11.783
  863SOL    HW2 4422   3.593  14.013  11.845
  864SOL     OW 4423  14.344   2.882  14.842
  864SOL    HW1 4424  14.249   2.878  14.851
  864SOL    HW2 4425  14.376   2.913   0.050
  865SOL     OW 4426   3.113   1.121   6.947
  865SOL    HW1 4427   3.191   1.105   6.895
  865SOL    HW2 4428   3.145   1.133   7.036
  866SOL     OW 4429  13.954  11.349   7.113
  866SOL    HW1 4430  13.928  11.383   7.198
  866SOL    HW2 4431  13.875  11.354   7.059
  867SOL     OW 4432  13.323   1.685   5.058
  867SOL    HW1 4433  13.288   1.713   5.143
  867SOL    HW2 4434  13.253   1.633   5.019
  868SOL     OW 4435   6.505  12.276   0.269
  868SOL    HW1 4436   6.531  12.293   0.178
  868SOL    HW2 4437   6.434  12.213   0.262
  869SOL     OW 4438   8.889  13.188   4.634
  869SOL    HW1 4439   8.882  13.270   4.682
  869SOL    HW2 4440   8.981  13.182   4.609
  870SOL     OW 4441   8.548   1.041  12.644
  870SOL    HW1 4442   8.519   0.964  12.694
  870SOL    HW2 4443   8.491   1.112  12.673
  871SOL     OW 4444  13.370  10.918   0.218
  871SOL    HW1 4445  13.293  10.959   0.179
  871SOL    HW2 4446  13.427  10.898   0.144
  872SOL     OW 4447   7.901   5.433   4.216
  872SOL    HW1 4448   7.898   5.472   4.304
  872SOL    HW2 4449   7.900   5.508   4.157
  873SOL     OW 4450   1.103  13.623   6.517
  873SOL    HW1 4451   1.179  13.585   6.474
  873SOL    HW2 4452   1.120  13.610   6.611
  874SOL     OW 4453   9.363   1.657  11.608
  874SOL    HW1 4454   9.271   1.656  11.582
  874SOL    HW2 4455   9.362   1.693  11.697
  875SOL     OW 4456   0.646   3.366  13.467
  875SOL    HW1 4457   0.730   3.339  13.504
  875SOL    HW2 4458   0.604   3.417  13.537
  876SOL     OW 4459   5.833  14.721   2.112
  876SOL    HW1 4460   5.864  14.641   2.156
  876SOL    HW2 4461   5.771  14.690   2.046
  877SOL     OW 4462  11.336   9.571  11.270
  877SOL    HW1 4463  11.365   9.480  11.270
  877SOL    HW2 4464  11.404   9.618  11.319
  878SOL     OW 4465   2.577   1.333   5.121
  878SOL    HW1 4466   2.527   1.265   5.074
  878SOL    HW2 4467   2.656   1.288   5.151
  879SOL     OW 4468  10.291   4.149   8.815
  879SOL    HW1 4469  10.205   4.180   8.784
  879SOL    HW2 4470  10.350   4.222   8.795
  880SOL     OW 4471   0.553   9.644  14.031
  880SOL    HW1 4472   0.598   9.725  14.008
  880SOL    HW2 4473   0.491   9.670  14.100
  881SOL     OW 4474   3.700   9.066   1.460
  881SOL    HW1 4475   3.764   9.044   1.527
  881SOL    HW2 4476   3.656   9.144   1.493
  882SOL     OW 4477  14.631   8.408   4.784
  882SOL    HW1 4478  14.649   8.440   4.873
  882SOL    HW2 4479  14.703   8.349   4.764
  883SOL     OW 4480   6.705   6.943   4.328
  883SOL    HW1 4481   6.648   6.959   4.253
  883SOL    HW2 4482   6.676   6.857   4.361
  884SOL     OW 4483   2.642  14.561  10.323
  884SOL    HW1 4484   2.676  14.576  10.411
  884SOL    HW2 4485   2.631  14.648  10.286
  885SOL     OW 4486   7.416  13.810   0.820
  885SOL    HW1 4487   7.454  13.762   0.747
  885SOL    HW2 4488   7.322  13.791   0.815
  886SOL     OW 4489   9.780  13.917   4.612
  886SOL    HW1 4490   9.844  13.988   4.601
  886SOL    HW2 4491   9.786  13.868   4.530
  887SOL     OW 4492  10.250   7.149  13.189
  887SOL    HW1 4493  10.312   7.219  13.168
  887SOL    HW2 4494  10.304   7.069  13.190
  888SOL     OW 4495  11.705   8.787  11.824
  888SOL    HW1 4496  11.633   8.851  11.830
  888SOL    HW2 4497  11.756   8.802  11.903
  889SOL     OW 4498   3.589   8.627   3.270
  889SOL    HW1 4499   3.585   8.551   3.328
  889SOL    HW2 4500   3.566   8.701   3.327
  890SOL     OW 4501   1.798  13.816   0.251
  890SOL    HW1 4502   1.737  13.756   0.207
  890SOL    HW2 4503   1.851  13.759   0.307
  891SOL     OW 4504   2.737   2.234   8.262
  891SOL    HW1 4505   2.789   2.287   8.322
  891SOL    HW2 4506   2.801   2.177   8.220
  892SOL     OW 4507  13.800  14.648  10.103
  892SOL    HW1 4508  13.749  14.647  10.021
  892SOL    HW2 4509  13.736  14.671  10.170
  893SOL     OW 4510   8.640   8.439   7.217
  893SOL    HW1 4511   8.736   8.432   7.222
  893SOL    HW2 4512   8.613   8.362   7.168
  894SOL     OW 4513   7.510  10.620  11.616
  894SOL    HW1 4514   7.454  10.670  11.675
  894SOL    HW2 4515   7.450  10.570  11.561
  895SOL     OW 4516   1.300   5.879   3.303
  895SOL    HW1 4517   1.297   5.798   3.252
  895SOL    HW2 4518   1.371   5.930   3.263
  896SOL     OW 4519  10.441  11.559   7.672
  896SOL    HW1 4520  10.422  11.465   7.676
  896SOL    HW2 4521  10.457  11.585   7.762
  897SOL     OW 4522   9.391   7.120   0.404
  897SOL    HW1 4523   9.304   7.085   0.387
  897SOL    HW2 4524   9.450   7.045   0.393
  898SOL     OW 4525   3.790  14.561   8.041
  898SOL    HW1 4526   3.862  14.620   8.016
  898SOL    HW2 4527   3.832  14.494   8.094
  899SOL     OW 4528  11.593  11.049   1.698
  899SOL    HW1 4529  11.534  11.035   1.772
  899SOL    HW2 4530  11.662  10.983   1.710
  900SOL     OW 4531  11.429   4.582   5.791
  900SOL    HW1 4532  11.501   4.532   5.830
  900SOL    HW2 4533  11.416   4.655   5.851
  901SOL     OW 4534  11.727   8.142   0.096
  901SOL    HW1 4535  11.709   8.235   0.113
  901SOL    HW2 4536  11.708   8.099   0.179
  902SOL     OW 4537   1.917   8.985   5.458
  902SOL    HW1 4538   1.951   9.031   5.381
  902SOL    HW2 4539   1.983   8.918   5.477
  903SOL     OW 4540  10.378   8.610   9.925
  903SOL    HW1 4541  10.381   8.539   9.860
  903SOL    HW2 4542  10.332   8.681   9.880
  904SOL     OW 4543  10.307  11.379  11.030
  904SOL    HW1 4544  10.295  11.421  11.115
  904SOL    HW2 4545  10.219  11.375  10.993
  905SOL     OW 4546  11.597   4.689   4.060
  905SOL    HW1 4547  11.689   4.695   4.087
  905SOL    HW2 4548  11.587   4.757   3.993
  906SOL     OW 4549   7.939   5.716   9.774
  906SOL    HW1 4550   7.851   5.691   9.802
  906SOL    HW2 4551   7.962   5.790   9.830
  907SOL     OW 4552  11.373  13.733   4.890
  907SOL    HW1 4553  11.282  13.705   4.881
  907SOL    HW2 4554  11.422  13.680   4.827
  908SOL     OW 4555   6.289   9.559  12.542
  908SOL    HW1 4556   6.231   9.634  12.528
  908SOL    HW2 4557   6.356   9.591  12.602
  909SOL     OW 4558  11.342  11.643  10.773
  909SOL    HW1 4559  11.410  11.658  10.838
  909SOL    HW2 4560  11.275  11.594  10.820
  910SOL     OW 4561  12.256   5.689   5.113
  910SOL    HW1 4562  12.261   5.611   5.059
  910SOL    HW2 4563  12.169   5.684   5.155
  911SOL     OW 4564  10.336   9.531   5.757
  911SOL    HW1 4565  10.252   9.496   5.784
  911SOL    HW2 4566  10.349   9.609   5.811
  912SOL     OW 4567  10.737  13.612   0.012
  912SOL    HW1 4568  10.688  13.552   0.069
  912SOL    HW2 4569  10.829  13.600   0.038
  913SOL     OW 4570  10.375   9.264  10.287
  913SOL    HW1 4571  10.403   9.178  10.256
  913SOL    HW2 4572  10.281   9.266  10.266
  914SOL     OW 4573   2.787   3.845  12.581
  914SOL    HW1 4574   2.774   3.751  12.570
  914SOL    HW2 4575   2.871   3.863  12.538
  915SOL     OW 4576   6.471   0.830  11.009
  915SOL    HW1 4577   6.560   0.843  11.042
  915SOL    HW2 4578   6.442   0.918  10.985
  916SOL     OW 4579  14.691   4.374   0.104
  916SOL    HW1 4580  14.615   4.357   0.159
  916SOL    HW2 4581  14.704   4.469   0.108
  917SOL     OW 4582  12.121   1.560   0.578
  917SOL    HW1 4583  12.038   1.569   0.625
  917SOL    HW2 4584  12.167   1.642   0.596
  918SOL     OW 4585   0.569   7.519   2.662
  918SOL    HW1 4586   0.571   7.441   2.719
  918SOL    HW2 4587   0.477   7.527   2.635
  919SOL     OW 4588   0.325   2.433   0.328
  919SOL    HW1 4589   0.311   2.520   0.366
  919SOL    HW2 4590   0.302   2.444   0.236
  920SOL     OW 4591  13.810   3.768   5.125
  920SOL    HW1 4592  13.838   3.822   5.051
  920SOL    HW2 4593  13.820   3.826   5.201
  921SOL     OW 4594  11.464   4.240  13.125
  921SOL    HW1 4595  11.462   4.266  13.218
  921SOL    HW2 4596  11.412   4.308  13.081
  922SOL     OW 4597  12.896   0.269   6.621
  922SOL    HW1 4598  12.817   0.253   6.672
  922SOL    HW2 4599  12.867   0.263   6.530
  923SOL     OW 4600  13.166   0.717   5.895
  923SOL    HW1 4601  13.223   0.641   5.889
  923SOL    HW2 4602  13.140   0.721   5.987
  924SOL     OW 4603   7.367   2.873  10.724
  924SOL    HW1 4604   7.321   2.956  10.727
  924SOL    HW2 4605   7.458   2.895  10.702
  925SOL     OW 4606  13.523   8.075   9.950
  925SOL    HW1 4607  13.517   8.082  10.045
  925SOL    HW2 4608  13.588   8.141   9.925
  926SOL     OW 4609   1.209  11.420   1.406
  926SOL    HW1 4610   1.301  11.442   1.389
  926SOL    HW2 4611   1.193  11.341   1.356
  927SOL     OW 4612   0.965   0.349   0.257
  927SOL    HW1 4613   1.059   0.331   0.250
  927SOL    HW2 4614   0.954   0.436   0.219
  928SOL     OW 4615  14.293   6.366  13.084
  928SOL    HW1 4616  14.382   6.389  13.058
  928SOL    HW2 4617  14.280   6.410  13.168
  929SOL     OW 4618  13.679   2.159   1.789
  929SOL    HW1 4619  13.688   2.246   1.750
  929SOL    HW2 4620  13.767   2.139   1.822
  930SOL     OW 4621   5.782  11.183   2.263
  930SOL    HW1 4622   5.735  11.115   2.311
  930SOL    HW2 4623   5.861  11.139   2.231
  931SOL     OW 4624   4.324  11.850   7.824
  931SOL    HW1 4625   4.297  11.792   7.753
  931SOL    HW2 4626   4.263  11.924   7.819
  932SOL     OW 4627   3.948   9.838   1.586
  932SOL    HW1 4628   3.901   9.896   1.644
  932SOL    HW2 4629   3.965   9.760   1.639
  933SOL     OW 4630  14.311  14.291   2.553
  933SOL    HW1 4631  14.230  14.257   2.516
  933SOL    HW2 4632  14.284  14.343   2.628
  934SOL     OW 4633  10.181   0.922   5.494
  934SOL    HW1 4634  10.213   0.954   5.410
  934SOL    HW2 4635  10.149   0.834   5.476
  935SOL     OW 4636  13.783   1.098   6.005
  935SOL    HW1 4637  13.791   1.151   6.084
  935SOL    HW2 4638  13.819   1.152   5.936
  936SOL     OW 4639   9.617   2.379   1.137
  936SOL    HW1 4640   9.709   2.365   1.161
  936SOL    HW2 4641   9.597   2.308   1.076
  937SOL     OW 4642   6.940   6.957   3.615
  937SOL    HW1 4643   6.960   7.005   3.695
  937SOL    HW2 4644   6.868   6.899   3.639
  938SOL     OW 4645  14.705   5.178   0.985
  938SOL    HW1 4646  14.744   5.265   0.996
  938SOL    HW2 4647  14.631   5.177   1.045
  939SOL     OW 4648  12.707  12.706   9.316
  939SOL    HW1 4649  12.656  12.631   9.287
  939SOL    HW2 4650  12.781  12.668   9.363
  940SOL     OW 4651   0.366   6.321  14.310
  940SOL    HW1 4652   0.343   6.368  14.230
  940SOL    HW2 4653   0.293   6.337  14.369
  941SOL     OW 4654   4.708   6.081  10.043
  941SOL    HW1 4655   4.696   6.004   9.987
  941SOL    HW2 4656   4.700   6.047  10.132
  942SOL     OW 4657   0.877   1.843   7.680
  942SOL    HW1 4658   0.941   1.771   7.671
  942SOL    HW2 4659   0.919   1.917   7.637
  943SOL     OW 4660   1.620   8.385  11.580
  943SOL    HW1 4661   1.607   8.466  11.629
  943SOL    HW2 4662   1.538   8.337  11.589
  944SOL     OW 4663   6.180   3.775  11.380
  944SOL    HW1 4664   6.090   3.788  11.351
  944SOL    HW2 4665   6.172   3.749  11.472
  945SOL     OW 4666  10.951   3.602  12.726
  945SOL    HW1 4667  10.927   3.542  12.796
  945SOL    HW2 4668  10.987   3.546  12.657
  946SOL     OW 4669   9.803   7.878  11.115
  946SOL    HW1 4670   9.758   7.931  11.181
  946SOL    HW2 4671   9.777   7.916  11.031
  947SOL     OW 4672  11.726   8.032   1.983
  947SOL    HW1 4673  11.695   8.120   1.960
  947SOL    HW2 4674  11.815   8.029   1.950
  948SOL     OW 4675   2.168  11.066   1.113
  948SOL    HW1 4676   2.219  11.035   1.038
  948SOL    HW2 4677   2.128  11.148   1.083
  949SOL     OW 4678  13.101   5.161   9.870
  949SOL    HW1 4679  13.127   5.087   9.815
  949SOL    HW2 4680  13.169   5.167   9.937
  950SOL     OW 4681   2.206   4.500   2.239
  950SOL    HW1 4682   2.275   4.436   2.251
  950SOL    HW2 4683   2.198   4.511   2.145
  951SOL     OW 4684  11.018  14.733   6.245
  951SOL    HW1 4685  11.062  14.787   6.310
  951SOL    HW2 4686  11.086  14.671   6.217
  952SOL     OW 4687  10.729   8.978  14.181
  952SOL    HW1 4688  10.776   9.059  14.198
  952SOL    HW2 4689  10.688   8.990  14.096
  953SOL     OW 4690   4.890   4.449   4.191
  953SOL    HW1 4691   4.915   4.434   4.282
  953SOL    HW2 4692   4.826   4.381   4.171
  954SOL     OW 4693   3.546  11.453   2.771
  954SOL    HW1 4694   3.473  11.403   2.806
  954SOL    HW2 4695   3.507  11.534   2.739
  955SOL     OW 4696   8.449  13.177   4.322
  955SOL    HW1 4697   8.520  13.231   4.355
  955SOL    HW2 4698   8.471  13.088   4.349
  956SOL     OW 4699  12.030   6.588   2.693
  956SOL    HW1 4700  12.020   6.504   2.647
  956SOL    HW2 4701  11.956   6.591   2.754
  957SOL     OW 4702   5.822   4.405  13.859
  957SOL    HW1 4703   5.825   4.399  13.763
  957SOL    HW2 4704   5.730   4.418  13.880
  958SOL     OW 4705  10.228   2.084   9.672
  958SOL    HW1 4706  10.266   2.035   9.600
  958SOL    HW2 4707  10.223   2.174   9.641
  959SOL     OW 4708  12.537   1.526  14.695
  959SOL    HW1 4709  12.523   1.620  14.677
  959SOL    HW2 4710  12.560   1.523  14.787
  960SOL     OW 4711   9.034   1.963  12.473
  960SOL    HW1 4712   9.036   1.873  12.506
  960SOL    HW2 4713   9.093   2.011  12.530
  961SOL     OW 4714  14.826  14.040   5.996
  961SOL    HW1 4715  14.754  13.976   5.993
  961SOL    HW2 4716  14.857  14.045   5.906
  962SOL     OW 4717   1.655   8.948  10.837
  962SOL    HW1 4718   1.713   8.990  10.773
  962SOL    HW2 4719   1.676   8.991  10.920
  963SOL     OW 4720   0.684   3.930   2.038
  963SOL    HW1 4721   0.692   4.023   2.016
  963SOL    HW2 4722   0.748   3.916   2.108
  964SOL     OW 4723   0.902   7.500   0.451
  964SOL    HW1 4724   0.922   7.451   0.531
  964SOL    HW2 4725   0.840   7.445   0.404
  965SOL     OW 4726   6.832   8.063   3.390
  965SOL    HW1 4727   6.858   7.972   3.405
  965SOL    HW2 4728   6.862   8.110   3.467
  966SOL     OW 4729  11.098   5.594   8.561
  966SOL    HW1 4730  11.006   5.619   8.560
  966SOL    HW2 4731  11.142   5.669   8.602
  967SOL     OW 4732   0.395   0.103  12.580
  967SOL    HW1 4733   0.310   0.060  12.594
  967SOL    HW2 4734   0.451   0.069  12.650
  968SOL     OW 4735  10.074   6.228  14.344
  968SOL    HW1 4736  10.042   6.144  14.312
  968SOL    HW2 4737  10.165   6.231  14.313
  969SOL     OW 4738   7.407   7.432   0.535
  969SOL    HW1 4739   7.357   7.362   0.579
  969SOL    HW2 4740   7.498   7.411   0.553
  970SOL     OW 4741   6.230   2.089   1.089
  970SOL    HW1 4742   6.305   2.103   1.031
  970SOL    HW2 4743   6.257   2.126   1.173
  971SOL     OW 4744   6.073  10.245   3.373
  971SOL    HW1 4745   6.061  10.283   3.460
  971SOL    HW2 4746   6.035  10.157   3.380
  972SOL     OW 4747   7.212   3.744  12.049
  972SOL    HW1 4748   7.169   3.820  12.088
  972SOL    HW2 4749   7.140   3.692  12.013
  973SOL     OW 4750  12.187  13.378  14.350
  973SOL    HW1 4751  12.142  13.463  14.343
  973SOL    HW2 4752  12.126  13.323  14.400
  974SOL     OW 4753   8.089  11.155   0.259
  974SOL    HW1 4754   8.033  11.079   0.269
  974SOL    HW2 4755   8.121  11.149   0.169
  975SOL     OW 4756   6.890  14.648   6.816
  975SOL    HW1 4757   6.879  14.632   6.722
  975SOL    HW2 4758   6.956  14.718   6.820
  976SOL     OW 4759   3.452   8.116  14.143
  976SOL    HW1 4760   3.515   8.090  14.209
  976SOL    HW2 4761   3.453   8.045  14.079
  977SOL     OW 4762  10.578   3.434  10.048
  977SOL    HW1 4763  10.546   3.524  10.057
  977SOL    HW2 4764  10.577   3.417   9.954
  978SOL     OW 4765   8.209   5.860   3.375
  978SOL    HW1 4766   8.265   5.912   3.317
  978SOL    HW2 4767   8.127   5.909   3.380
  979SOL     OW 4768   6.316   8.865  11.031
  979SOL    HW1 4769   6.271   8.944  11.060
  979SOL    HW2 4770   6.282   8.796  11.088
  980SOL     OW 4771   8.589   0.432  13.496
  980SOL    HW1 4772   8.504   0.390  13.511
  980SOL    HW2 4773   8.584   0.514  13.546
  981SOL     OW 4774  12.115   9.824  14.063
  981SOL    HW1 4775  12.096   9.915  14.084
  981SOL    HW2 4776  12.105   9.777  14.146
  982SOL     OW 4777   9.572  12.860  12.618
  982SOL    HW1 4778   9.529  12.933  12.572
  982SOL    HW2 4779   9.500  12.814  12.661
  983SOL     OW 4780   7.257   8.636   8.905
  983SOL    HW1 4781   7.183   8.697   8.915
  983SOL    HW2 4782   7.281   8.641   8.812
  984SOL     OW 4783   8.636  12.021  11.941
  984SOL    HW1 4784   8.556  12.012  11.890
  984SOL    HW2 4785   8.606  12.052  12.027
  985SOL     OW 4786   0.652  12.256   8.779
  985SOL    HW1 4787   0.683  12.180   8.732
  985SOL    HW2 4788   0.586  12.295   8.721
  986SOL     OW 4789   0.688   0.948  12.534
  986SOL    HW1 4790   0.659   0.955  12.625
  986SOL    HW2 4791   0.609   0.932  12.484
  987SOL     OW 4792   2.510   3.740  10.353
  987SOL    HW1 4793   2.498   3.822  10.399
  987SOL    HW2 4794   2.483   3.672  10.415
  988SOL     OW 4795  11.532   1.565   4.297
  988SOL    HW1 4796  11.494   1.477   4.303
  988SOL    HW2 4797  11.609   1.555   4.241
  989SOL     OW 4798   7.001   3.268   1.545
  989SOL    HW1 4799   6.975   3.237   1.458
  989SOL    HW2 4800   6.995   3.364   1.538
  990SOL     OW 4801  13.489   9.687  12.210
  990SOL    HW1 4802  13.419   9.638  12.167
  990SOL    HW2 4803  13.511   9.635  12.288
  991SOL     OW 4804   5.827   1.709   4.208
  991SOL    HW1 4805   5.845   1.803   4.204
  991SOL    HW2 4806   5.891   1.670   4.148
  992SOL     OW 4807  12.943  13.334   0.168
  992SOL    HW1 4808  12.965  13.336   0.261
  992SOL    HW2 4809  12.953  13.242   0.143
  993SOL     OW 4810   2.371   8.117  11.916
  993SOL    HW1 4811   2.335   8.037  11.876
  993SOL    HW2 4812   2.455   8.129  11.873
  994SOL     OW 4813   9.033  13.595   5.250
  994SOL    HW1 4814   8.947  13.605   5.291
  994SOL    HW2 4815   9.058  13.504   5.267
  995SOL     OW 4816   6.430   3.739  11.017
  995SOL    HW1 4817   6.416   3.820  11.067
  995SOL    HW2 4818   6.416   3.764  10.926
  996SOL     OW 4819   4.905   9.339  10.714
  996SOL    HW1 4820   4.873   9.428  10.729
  996SOL    HW2 4821   4.929   9.338  10.622
  997SOL     OW 4822  13.798   7.349  10.737
  997SOL    HW1 4823  13.808   7.358  10.832
  997SOL    HW2 4824  13.887   7.334  10.705
  998SOL     OW 4825   6.002   0.004   3.665
  998SOL    HW1 4826   6.057   0.082   3.662
  998SOL    HW2 4827   5.965  14.873   3.577
  999SOL     OW 4828   5.614  11.173  13.160
  999SOL    HW1 4829   5.643  11.157  13.250
  999SOL    HW2 4830   5.519  11.176  13.165
 1000SOL     OW 4831  12.335   6.290   2.667
 1000SOL    HW1 4832  12.425   6.319   2.681
 1000SOL    HW2 4833  12.304   6.266   2.754
 1001SOL     OW 4834   3.208   5.835   2.391
 1001SOL    HW1 4835   3.282   5.778   2.411
 1001SOL    HW2 4836   3.156   5.785   2.328
 1002SOL     OW 4837  11.114   4.300   9.505
 1002SOL    HW1 4838  11.026   4.262   9.505
 1002SOL    HW2 4839  11.105   4.379   9.451
 1003SOL     OW 4840   0.488  14.612   4.205
 1003SOL    HW1 4841   0.476  14.684   4.142
 1003SOL    HW2 4842   0.417  14.623   4.267
 1004SOL     OW 4843   1.920  13.943   6.322
 1004SOL    HW1 4844   1.988  14.007   6.301
 1004SOL    HW2 4845   1.912  13.946   6.417
 1005SOL     OW 4846  13.854  12.481   5.411
 1005SOL    HW1 4847  13.848  12.424   5.487
 1005SOL    HW2 4848  13.891  12.563   5.444
 1006SOL     OW 4849  11.182   4.113  11.135
 1006SOL    HW1 4850  11.216   4.047  11.196
 1006SOL    HW2 4851  11.136   4.176  11.190
 1007SOL     OW 4852   6.368  12.014  11.377
 1007SOL    HW1 4853   6.456  11.993  11.346
 1007SOL    HW2 4854   6.341  12.089  11.323
 1008SOL     OW 4855   0.482   5.216   9.032
 1008SOL    HW1 4856   0.521   5.156   8.968
 1008SOL    HW2 4857   0.521   5.190   9.116
 1009SOL     OW 4858   2.966  12.499   8.923
 1009SOL    HW1 4859   3.042  12.478   8.977
 1009SOL    HW2 4860   2.910  12.421   8.929
 1010SOL     OW 4861   2.988   7.226   9.363
 1010SOL    HW1 4862   3.022   7.237   9.452
 1010SOL    HW2 4863   2.896   7.204   9.375
 1011SOL     OW 4864  12.009   8.475  10.420
 1011SOL    HW1 4865  11.975   8.413  10.355
 1011SOL    HW2 4866  12.067   8.422  10.475
 1012SOL     OW 4867  13.009   8.944  13.373
 1012SOL    HW1 4868  12.982   8.952  13.465
 1012SOL    HW2 4869  13.104   8.937  13.376
 1013SOL     OW 4870   7.963   2.363   5.612
 1013SOL    HW1 4871   7.978   2.358   5.518
 1013SOL    HW2 4872   7.874   2.329   5.624
 1014SOL     OW 4873  14.283  14.555  10.737
 1014SOL    HW1 4874  14.350  14.498  10.700
 1014SOL    HW2 4875  14.323  14.642  10.737
 1015SOL     OW 4876   4.563   7.611   2.759
 1015SOL    HW1 4877   4.638   7.555   2.777
 1015SOL    HW2 4878   4.590   7.664   2.684
 1016SOL     OW 4879   3.542  11.761   1.352
 1016SOL    HW1 4880   3.564  11.741   1.261
 1016SOL    HW2 4881   3.601  11.705   1.404
 1017SOL     OW 4882   3.240  12.184  12.085
 1017SOL    HW1 4883   3.223  12.187  12.179
 1017SOL    HW2 4884   3.333  12.163  12.078
 1018SOL     OW 4885   5.003  11.094  12.656
 1018SOL    HW1 4886   5.047  11.051  12.583
 1018SOL    HW2 4887   4.936  11.149  12.615
 1019SOL     OW 4888   8.431  10.661  14.263
 1019SOL    HW1 4889   8.476  10.745  14.267
 1019SOL    HW2 4890   8.371  10.662  14.338
 1020SOL     OW 4891  10.070  11.475   2.545
 1020SOL    HW1 4892  10.065  11.400   2.487
 1020SOL    HW2 4893  10.163  11.495   2.551
 1021SOL     OW 4894   4.501   6.303   0.705
 1021SOL    HW1 4895   4.435   6.236   0.690
 1021SOL    HW2 4896   4.524   6.335   0.618
 1022SOL     OW 4897   9.525   1.146   8.314
 1022SOL    HW1 4898   9.514   1.096   8.395
 1022SOL    HW2 4899   9.474   1.098   8.249
 1023SOL     OW 4900   4.725   1.382   6.400
 1023SOL    HW1 4901   4.653   1.385   6.337
 1023SOL    HW2 4902   4.804   1.400   6.348
 1024SOL     OW 4903   3.112   1.890  14.395
 1024SOL    HW1 4904   3.131   1.801  14.365
 1024SOL    HW2 4905   3.044   1.878  14.462
 1025SOL     OW 4906   7.675  12.429   4.521
 1025SOL    HW1 4907   7.680  12.424   4.617
 1025SOL    HW2 4908   7.624  12.351   4.496
 1026SOL     OW 4909  10.658   4.157   2.551
 1026SOL    HW1 4910  10.741   4.116   2.573
 1026SOL    HW2 4911  10.676   4.209   2.473
 1027SOL     OW 4912   0.001   4.843   6.894
 1027SOL    HW1 4913   0.021   4.829   6.987
 1027SOL    HW2 4914  14.783   4.826   6.886
 1028SOL     OW 4915   0.717  11.182   9.415
 1028SOL    HW1 4916   0.773  11.112   9.383
 1028SOL    HW2 4917   0.771  11.261   9.411
 1029SOL     OW 4918   6.543   8.585   8.706
 1029SOL    HW1 4919   6.477   8.516   8.703
 1029SOL    HW2 4920   6.588   8.580   8.622
 1030SOL     OW 4921  11.138   8.300   1.741
 1030SOL    HW1 4922  11.160   8.302   1.835
 1030SOL    HW2 4923  11.076   8.228   1.733
 1031SOL     OW 4924   3.466  14.431   4.059
 1031SOL    HW1 4925   3.491  14.443   3.967
 1031SOL    HW2 4926   3.469  14.336   4.072
 1032SOL     OW 4927   2.592   6.646  13.472
 1032SOL    HW1 4928   2.530   6.584  13.510
 1032SOL    HW2 4929   2.633   6.597  13.400
 1033SOL     OW 4930   4.317  13.963   6.459
 1033SOL    HW1 4931   4.367  13.905   6.403
 1033SOL    HW2 4932   4.345  14.051   6.433
 1034SOL     OW 4933   3.147  12.020   3.414
 1034SOL    HW1 4934   3.182  12.078   3.346
 1034SOL    HW2 4935   3.205  11.944   3.413
 1035SOL     OW 4936   9.693   2.315  11.962
 1035SOL    HW1 4937   9.640   2.394  11.965
 1035SOL    HW2 4938   9.729   2.313  11.873
 1036SOL     OW 4939  14.312   1.768   1.566
 1036SOL    HW1 4940  14.328   1.811   1.482
 1036SOL    HW2 4941  14.388   1.712   1.579
 1037SOL     OW 4942  13.929   3.649   0.931
 1037SOL    HW1 4943  13.991   3.580   0.908
 1037SOL    HW2 4944  13.843   3.608   0.918
 1038SOL     OW 4945   1.911   7.893  12.061
 1038SOL    HW1 4946   1.938   7.838  11.987
 1038SOL    HW2 4947   1.961   7.859  12.135
 1039SOL     OW 4948   7.191   5.635   9.729
 1039SOL    HW1 4949   7.226   5.547   9.719
 1039SOL    HW2 4950   7.177   5.666   9.639
 1040SOL     OW 4951   5.417   2.543  11.371
 1040SOL    HW1 4952   5.453   2.545  11.460
 1040SOL    HW2 4953   5.445   2.625  11.332
 1041SOL     OW 4954  13.977  13.774   0.627
 1041SOL    HW1 4955  13.905  13.734   0.677
 1041SOL    HW2 4956  14.003  13.849   0.679
 1042SOL     OW 4957   5.958   6.743  12.159
 1042SOL    HW1 4958   5.887   6.683  12.135
 1042SOL    HW2 4959   5.920   6.830  12.150
 1043SOL     OW 4960  10.755   4.042  11.872
 1043SOL    HW1 4961  10.741   3.947  11.873
 1043SOL    HW2 4962  10.829   4.056  11.931
 1044SOL     OW 4963   3.824  12.937   9.148
 1044SOL    HW1 4964   3.820  12.878   9.074
 1044SOL    HW2 4965   3.894  12.901   9.204
 1045SOL     OW 4966   1.661   9.444  10.313
 1045SOL    HW1 4967   1.575   9.446  10.355
 1045SOL    HW2 4968   1.686   9.536  10.303
 1046SOL     OW 4969  10.856  14.150  10.711
 1046SOL    HW1 4970  10.797  14.225  10.718
 1046SOL    HW2 4971  10.932  14.184  10.664
 1047SOL     OW 4972  14.598  10.376  12.982
 1047SOL    HW1 4973  14.629  10.461  12.951
 1047SOL    HW2 4974  14.655  10.354  13.056
 1048SOL     OW 4975   0.621   0.813  11.914
 1048SOL    HW1 4976   0.696   0.786  11.862
 1048SOL    HW2 4977   0.652   0.887  11.966
 1049SOL     OW 4978   5.439   2.182   4.175
 1049SOL    HW1 4979   5.515   2.154   4.125
 1049SOL    HW2 4980   5.385   2.231   4.112
 1050SOL     OW 4981  14.476   8.815  14.686
 1050SOL    HW1 4982  14.495   8.737  14.633
 1050SOL    HW2 4983  14.522   8.886  14.640
 1051SOL     OW 4984   8.318  13.369   6.248
 1051SOL    HW1 4985   8.299  13.461   6.228
 1051SOL    HW2 4986   8.301  13.362   6.342
 1052SOL     OW 4987   8.754   9.240   4.353
 1052SOL    HW1 4988   8.704   9.180   4.408
 1052SOL    HW2 4989   8.701   9.249   4.273
 1053SOL     OW 4990   2.557  11.027   1.747
 1053SOL    HW1 4991   2.548  11.112   1.791
 1053SOL    HW2 4992   2.583  11.050   1.657
 1054SOL     OW 4993   1.051   8.669   8.665
 1054SOL    HW1 4994   1.057   8.670   8.569
 1054SOL    HW2 4995   1.066   8.759   8.691
 1055SOL     OW 4996   6.274   9.157  10.112
 1055SOL    HW1 4997   6.287   9.250  10.132
 1055SOL    HW2 4998   6.204   9.130  10.170
 1056SOL     OW 4999   0.316  11.448  11.407
 1056SOL    HW1 5000   0.269  11.371  11.439
 1056SOL    HW2 5001   0.262  11.480  11.334
 1057SOL     OW 5002   2.041   4.487  11.195
 1057SOL    HW1 5003   2.096   4.415  11.164
 1057SOL    HW2 5004   2.012   4.459  11.282
 1058SOL     OW 5005   6.786  13.335   8.987
 1058SOL    HW1 5006   6.813  13.258   8.937
 1058SOL    HW2 5007   6.691  13.327   8.994
 1059SOL     OW 5008   0.165  14.817  14.656
 1059SOL    HW1 5009   0.172   0.024  14.702
 1059SOL    HW2 5010   0.215  14.755  14.709
 1060SOL     OW 5011   9.743  12.099  12.827
 1060SOL    HW1 5012   9.825  12.056  12.806
 1060SOL    HW2 5013   9.740  12.176  12.770
 1061SOL     OW 5014   9.346  13.427   4.607
 1061SOL    HW1 5015   9.433  13.461   4.626
 1061SOL    HW2 5016   9.297  13.503   4.575
 1062SOL     OW 5017  14.570  13.760   8.880
 1062SOL    HW1 5018  14.549  13.677   8.924
 1062SOL    HW2 5019  14.485  13.798   8.858
 1063SOL     OW 5020  12.577  11.265   8.731
 1063SOL    HW1 5021  12.600  11.283   8.823
 1063SOL    HW2 5022  12.493  11.220   8.736
 1064SOL     OW 5023  12.648  12.655   2.869
 1064SOL    HW1 5024  12.588  12.655   2.794
 1064SOL    HW2 5025  12.728  12.615   2.836
 1065SOL     OW 5026   9.725   5.958  14.414
 1065SOL    HW1 5027   9.782   5.949  14.490
 1065SOL    HW2 5028   9.694   6.048  14.417
 1066SOL     OW 5029  10.087   6.514   1.884
 1066SOL    HW1 5030   9.993   6.494   1.882
 1066SOL    HW2 5031  10.093   6.603   1.850
 1067SOL     OW 5032  12.872   9.434   8.664
 1067SOL    HW1 5033  12.830   9.484   8.734
 1067SOL    HW2 5034  12.964   9.430   8.688
 1068SOL     OW 5035   7.575   6.606   7.606
 1068SOL    HW1 5036   7.600   6.693   7.575
 1068SOL    HW2 5037   7.645   6.581   7.666
 1069SOL     OW 5038   4.008   3.567  11.861
 1069SOL    HW1 5039   4.064   3.644  11.859
 1069SOL    HW2 5040   3.971   3.567  11.950
 1070SOL     OW 5041   2.106   3.037   4.968
 1070SOL    HW1 5042   2.193   3.064   4.936
 1070SOL    HW2 5043   2.118   3.023   5.062
 1071SOL     OW 5044   0.797   6.158   8.725
 1071SOL    HW1 5045   0.796   6.254   8.732
 1071SOL    HW2 5046   0.709   6.132   8.751
 1072SOL     OW 5047   8.643  10.024  11.316
 1072SOL    HW1 5048   8.696   9.945  11.320
 1072SOL    HW2 5049   8.591  10.023  11.396
 1073SOL     OW 5050   2.719   7.302  11.640
 1073SOL    HW1 5051   2.733   7.217  11.598
 1073SOL    HW2 5052   2.624   7.309  11.648
 1074SOL     OW 5053   7.107   4.679   5.894
 1074SOL    HW1 5054   7.201   4.681   5.909
 1074SOL    HW2 5055   7.083   4.587   5.905
 1075SOL     OW 5056   3.766   8.719   9.392
 1075SOL    HW1 5057   3.719   8.645   9.430
 1075SOL    HW2 5058   3.855   8.711   9.426
 1076SOL     OW 5059  11.334   5.692   1.778
 1076SOL    HW1 5060  11.367   5.705   1.690
 1076SOL    HW2 5061  11.408   5.655   1.827
 1077SOL     OW 5062  13.217   6.216  13.288
 1077SOL    HW1 5063  13.288   6.220  13.223
 1077SOL    HW2 5064  13.142   6.184  13.239
 1078SOL     OW 5065   0.361   6.387   4.519
 1078SOL    HW1 5066   0.431   6.412   4.458
 1078SOL    HW2 5067   0.294   6.455   4.507
 1079SOL     OW 5068   6.761  14.392  14.787
 1079SOL    HW1 5069   6.809  14.405  14.869
 1079SOL    HW2 5070   6.678  14.437  14.801
 1080SOL     OW 5071  14.155  13.912  14.632
 1080SOL    HW1 5072  14.203  13.889  14.712
 1080SOL    HW2 5073  14.222  13.915  14.564
 1081SOL     OW 5074   8.689  12.297   7.525
 1081SOL    HW1 5075   8.614  12.242   7.548
 1081SOL    HW2 5076   8.682  12.372   7.584
 1082SOL     OW 5077  13.415   3.857  13.264
 1082SOL    HW1 5078  13.424   3.834  13.172
 1082SOL    HW2 5079  13.420   3.952  13.266
 1083SOL     OW 5080   6.942   0.525   7.489
 1083SOL    HW1 5081   6.911   0.470   7.418
 1083SOL    HW2 5082   6.876   0.514   7.558
 1084SOL     OW 5083  11.861   3.725   4.107
 1084SOL    HW1 5084  11.942   3.768   4.134
 1084SOL    HW2 5085  11.799   3.796   4.095
 1085SOL     OW 5086  13.097   8.168   3.329
 1085SOL    HW1 5087  13.127   8.254   3.357
 1085SOL    HW2 5088  13.084   8.177   3.235
 1086SOL     OW 5089  11.237   0.902   5.423
 1086SOL    HW1 5090  11.321   0.883   5.382
 1086SOL    HW2 5091  11.176   0.914   5.350
 1087SOL     OW 5092   1.347   8.794  10.205
 1087SOL    HW1 5093   1.337   8.804  10.110
 1087SOL    HW2 5094   1.314   8.876  10.241
 1088SOL     OW 5095  12.285   6.721   1.782
 1088SOL    HW1 5096  12.367   6.725   1.832
 1088SOL    HW2 5097  12.254   6.632   1.793
 1089SOL     OW 5098   1.802   5.257   2.757
 1089SOL    HW1 5099   1.727   5.219   2.712
 1089SOL    HW2 5100   1.765   5.303   2.832
 1090SOL     OW 5101   2.483  10.217   4.074
 1090SOL    HW1 5102   2.388  10.211   4.089
 1090SOL    HW2 5103   2.493  10.299   4.026
 1091SOL     OW 5104   8.929   6.188   6.087
 1091SOL    HW1 5105   8.991   6.127   6.128
 1091SOL    HW2 5106   8.884   6.230   6.160
 1092SOL     OW 5107   4.612   1.118   3.564
 1092SOL    HW1 5108   4.579   1.152   3.648
 1092SOL    HW2 5109   4.642   1.195   3.517
 1093SOL     OW 5110   0.851   7.788   9.454
 1093SOL    HW1 5111   0.944   7.808   9.463
 1093SOL    HW2 5112   0.810   7.832   9.529
 1094SOL     OW 5113  10.912  10.924  14.142
 1094SOL    HW1 5114  10.914  10.865  14.217
 1094SOL    HW2 5115  10.978  10.889  14.082
 1095SOL     OW 5116  14.199   2.123   8.797
 1095SOL    HW1 5117  14.228   2.145   8.708
 1095SOL    HW2 5118  14.245   2.185   8.853
 1096SOL     OW 5119   9.296  13.248   2.924
 1096SOL    HW1 5120   9.270  13.261   2.833
 1096SOL    HW2 5121   9.383  13.208   2.919
 1097SOL     OW 5122  12.386   3.362   0.700
 1097SOL    HW1 5123  12.380   3.316   0.784
 1097SOL    HW2 5124  12.387   3.292   0.635
 1098SOL     OW 5125   4.578   2.012   9.860
 1098SOL    HW1 5126   4.621   2.093   9.886
 1098SOL    HW2 5127   4.647   1.958   9.823
 1099SOL     OW 5128   5.581  11.636   3.412
 1099SOL    HW1 5129   5.649  11.632   3.479
 1099SOL    HW2 5130   5.620  11.594   3.335
 1100SOL     OW 5131  13.706   6.961   2.534
 1100SOL    HW1 5132  13.708   6.992   2.624
 1100SOL    HW2 5133  13.661   6.877   2.538
 1101SOL     OW 5134   9.696   4.435  13.799
 1101SOL    HW1 5135   9.732   4.519  13.771
 1101SOL    HW2 5136   9.761   4.371  13.772
 1102SOL     OW 5137  12.112  14.209  13.048
 1102SOL    HW1 5138  12.159  14.167  12.976
 1102SOL    HW2 5139  12.101  14.139  13.113
 1103SOL     OW 5140   7.699   4.530   4.721
 1103SOL    HW1 5141   7.784   4.505   4.756
 1103SOL    HW2 5142   7.659   4.583   4.790
 1104SOL     OW 5143   0.537   9.942   4.376
 1104SOL    HW1 5144   0.459   9.930   4.322
 1104SOL    HW2 5145   0.560   9.855   4.408
 1105SOL     OW 5146  12.497  14.521   0.238
 1105SOL    HW1 5147  12.431  14.469   0.192
 1105SOL    HW2 5148  12.549  14.561   0.168
 1106SOL     OW 5149   2.576  13.583   3.970
 1106SOL    HW1 5150   2.511  13.637   3.926
 1106SOL    HW2 5151   2.655  13.592   3.917
 1107SOL     OW 5152   2.612   9.488  10.923
 1107SOL    HW1 5153   2.554   9.437  10.979
 1107SOL    HW2 5154   2.657   9.424  10.869
 1108SOL     OW 5155   0.676   6.953   7.005
 1108SOL    HW1 5156   0.655   7.042   7.035
 1108SOL    HW2 5157   0.682   6.960   6.910
 1109SOL     OW 5158  13.613  12.990  14.010
 1109SOL    HW1 5159  13.644  12.919  14.065
 1109SOL    HW2 5160  13.521  12.971  13.996
 1110SOL     OW 5161   6.586  12.161   7.197
 1110SOL    HW1 5162   6.673  12.199   7.198
 1110SOL    HW2 5163   6.595  12.080   7.146
 1111SOL     OW 5164   7.502   4.724   5.266
 1111SOL    HW1 5165   7.437   4.791   5.243
 1111SOL    HW2 5166   7.583   4.755   5.225
 1112SOL     OW 5167   5.175   9.491   0.866
 1112SOL    HW1 5168   5.227   9.564   0.832
 1112SOL    HW2 5169   5.088   9.527   0.879
 1113SOL     OW 5170  12.896   0.368   4.370
 1113SOL    HW1 5171  12.927   0.308   4.302
 1113SOL    HW2 5172  12.807   0.337   4.391
 1114SOL     OW 5173  11.662   0.580  14.009
 1114SOL    HW1 5174  11.638   0.628  13.930
 1114SOL    HW2 5175  11.627   0.633  14.081
 1115SOL     OW 5176   3.149   3.578  13.260
 1115SOL    HW1 5177   3.123   3.670  13.270
 1115SOL    HW2 5178   3.234   3.572  13.303
 1116SOL     OW 5179   1.226  11.954  13.583
 1116SOL    HW1 5180   1.160  12.018  13.608
 1116SOL    HW2 5181   1.183  11.869  13.595
 1117SOL     OW 5182  11.163   2.923  11.611
 1117SOL    HW1 5183  11.239   2.980  11.619
 1117SOL    HW2 5184  11.165   2.894  11.520
 1118SOL     OW 5185   5.959  13.858   3.239
 1118SOL    HW1 5186   5.871  13.891   3.226
 1118SOL    HW2 5187   5.969  13.849   3.334
 1119SOL     OW 5188   6.679   9.887   2.214
 1119SOL    HW1 5189   6.680   9.975   2.252
 1119SOL    HW2 5190   6.759   9.881   2.163
 1120SOL     OW 5191   5.761   6.237  11.274
 1120SOL    HW1 5192   5.763   6.150  11.313
 1120SOL    HW2 5193   5.675   6.243  11.232
 1121SOL     OW 5194  13.339   1.849   7.110
 1121SOL    HW1 5195  13.355   1.789   7.182
 1121SOL    HW2 5196  13.375   1.805   7.033
 1122SOL     OW 5197   6.894   9.815   6.838
 1122SOL    HW1 5198   6.814   9.779   6.800
 1122SOL    HW2 5199   6.884   9.800   6.932
 1123SOL     OW 5200   0.261   3.696   6.875
 1123SOL    HW1 5201   0.318   3.672   6.803
 1123SOL    HW2 5202   0.177   3.718   6.834
 1124SOL     OW 5203  11.457   9.703   4.149
 1124SOL    HW1 5204  11.546   9.700   4.114
 1124SOL    HW2 5205  11.466   9.678   4.241
 1125SOL     OW 5206   4.050   8.338  14.717
 1125SOL    HW1 5207   3.995   8.380  14.650
 1125SOL    HW2 5208   4.135   8.383  14.709
 1126SOL     OW 5209   6.202  10.117   8.642
 1126SOL    HW1 5210   6.277  10.078   8.598
 1126SOL    HW2 5211   6.226  10.114   8.735
 1127SOL     OW 5212  10.720   0.587   1.923
 1127SOL    HW1 5213  10.693   0.646   1.993
 1127SOL    HW2 5214  10.799   0.544   1.958
 1128SOL     OW 5215   3.012   2.434  13.052
 1128SOL    HW1 5216   2.994   2.504  13.114
 1128SOL    HW2 5217   2.984   2.468  12.967
 1129SOL     OW 5218  10.143   5.065   5.242
 1129SOL    HW1 5219  10.058   5.096   5.211
 1129SOL    HW2 5220  10.157   4.983   5.193
 1130SOL     OW 5221   8.332   5.645   0.376
 1130SOL    HW1 5222   8.339   5.551   0.359
 1130SOL    HW2 5223   8.417   5.669   0.413
 1131SOL     OW 5224  10.991  12.266   6.622
 1131SOL    HW1 5225  11.033  12.235   6.702
 1131SOL    HW2 5226  10.901  12.286   6.647
 1132SOL     OW 5227  13.314   9.727   6.627
 1132SOL    HW1 5228  13.280   9.664   6.691
 1132SOL    HW2 5229  13.241   9.789   6.614
 1133SOL     OW 5230   2.060   9.979   1.211
 1133SOL    HW1 5231   2.063  10.030   1.291
 1133SOL    HW2 5232   2.021   9.895   1.236
 1134SOL     OW 5233   8.359  13.657   7.252
 1134SOL    HW1 5234   8.384  13.738   7.208
 1134SOL    HW2 5235   8.336  13.683   7.341
 1135SOL     OW 5236   0.152  11.682   6.620
 1135SOL    HW1 5237   0.075  11.723   6.659
 1135SOL    HW2 5238   0.118  11.603   6.578
 1136SOL     OW 5239   8.245   9.505   5.879
 1136SOL    HW1 5240   8.248   9.523   5.785
 1136SOL    HW2 5241   8.152   9.492   5.898
 1137SOL     OW 5242  13.949   4.556  12.050
 1137SOL    HW1 5243  13.964   4.602  12.133
 1137SOL    HW2 5244  14.028   4.572  11.999
 1138SOL     OW 5245  13.530   3.684   1.392
 1138SOL    HW1 5246  13.522   3.679   1.297
 1138SOL    HW2 5247  13.605   3.743   1.406
 1139SOL     OW 5248  11.383   1.880   1.815
 1139SOL    HW1 5249  11.471   1.917   1.803
 1139SOL    HW2 5250  11.367   1.831   1.734
 1140SOL     OW 5251   1.769   0.720   7.510
 1140SOL    HW1 5252   1.750   0.790   7.572
 1140SOL    HW2 5253   1.683   0.690   7.480
 1141SOL     OW 5254  11.551   8.569  13.722
 1141SOL    HW1 5255  11.492   8.643  13.709
 1141SOL    HW2 5256  11.608   8.596  13.794
 1142SOL     OW 5257  13.454   3.202   6.954
 1142SOL    HW1 5258  13.374   3.153   6.933
 1142SOL    HW2 5259  13.449   3.215   7.049
 1143SOL     OW 5260   5.383   9.056  11.324
 1143SOL    HW1 5261   5.458   9.031  11.379
 1143SOL    HW2 5262   5.313   9.075  11.386
 1144SOL     OW 5263  13.265   8.619  13.171
 1144SOL    HW1 5264  13.188   8.585  13.127
 1144SOL    HW2 5265  13.257   8.714  13.163
 1145SOL     OW 5266   2.879   6.205   8.534
 1145SOL    HW1 5267   2.917   6.118   8.521
 1145SOL    HW2 5268   2.932   6.263   8.480
 1146SOL     OW 5269   1.999   6.799   7.179
 1146SOL    HW1 5270   2.034   6.710   7.181
 1146SOL    HW2 5271   1.996   6.822   7.086
 1147SOL     OW 5272   3.637   2.364   8.806
 1147SOL    HW1 5273   3.728   2.339   8.817
 1147SOL    HW2 5274   3.602   2.302   8.742
 1148SOL     OW 5275   9.293   2.746   1.028
 1148SOL    HW1 5276   9.218   2.753   0.969
 1148SOL    HW2 5277   9.264   2.684   1.095
 1149SOL     OW 5278  11.400  13.244  13.849
 1149SOL    HW1 5279  11.352  13.264  13.769
 1149SOL    HW2 5280  11.482  13.205  13.818
 1150SOL     OW 5281   9.639   4.719  10.877
 1150SOL    HW1 5282   9.569   4.767  10.923
 1150SOL    HW2 5283   9.616   4.627  10.889
 1151SOL     OW 5284   7.715   3.460   2.154
 1151SOL    HW1 5285   7.657   3.385   2.152
 1151SOL    HW2 5286   7.693   3.505   2.236
 1152SOL     OW 5287  12.501   9.644   1.631
 1152SOL    HW1 5288  12.534   9.715   1.575
 1152SOL    HW2 5289  12.534   9.564   1.591
 1153SOL     OW 5290   2.082  13.710   8.011
 1153SOL    HW1 5291   2.107  13.752   8.093
 1153SOL    HW2 5292   1.990  13.686   8.023
 1154SOL     OW 5293  13.996   9.979   3.793
 1154SOL    HW1 5294  13.979  10.073   3.794
 1154SOL    HW2 5295  14.066   9.966   3.857
 1155SOL     OW 5296   9.002  13.740   2.400
 1155SOL    HW1 5297   8.913  13.749   2.435
 1155SOL    HW2 5298   8.990  13.733   2.305
 1156SOL     OW 5299   2.324  13.270   2.532
 1156SOL    HW1 5300   2.419  13.280   2.524
 1156SOL    HW2 5301   2.307  13.182   2.499
 1157SOL     OW 5302   8.453   2.879  14.827
 1157SOL    HW1 5303   8.365   2.891  14.860
 1157SOL    HW2 5304   8.505   2.856   0.028
 1158SOL     OW 5305   4.152   0.624   1.907
 1158SOL    HW1 5306   4.136   0.623   1.812
 1158SOL    HW2 5307   4.074   0.663   1.945
 1159SOL     OW 5308   0.598  11.788  12.411
 1159SOL    HW1 5309   0.623  11.837  12.333
 1159SOL    HW2 5310   0.506  11.810  12.425
 1160SOL     OW 5311   3.513   7.697  11.876
 1160SOL    HW1 5312   3.601   7.666  11.899
 1160SOL    HW2 5313   3.477   7.626  11.822
 1161SOL     OW 5314   3.590   9.056  11.578
 1161SOL    HW1 5315   3.598   9.098  11.492
 1161SOL    HW2 5316   3.499   9.029  11.583
 1162SOL     OW 5317  14.797  12.074  13.079
 1162SOL    HW1 5318  14.707  12.046  13.060
 1162SOL    HW2 5319  14.787  12.159  13.121
 1163SOL     OW 5320   2.398  11.403   6.887
 1163SOL    HW1 5321   2.310  11.369   6.871
 1163SOL    HW2 5322   2.431  11.352   6.961
 1164SOL     OW 5323  11.899  10.897  11.123
 1164SOL    HW1 5324  11.991  10.920  11.136
 1164SOL    HW2 5325  11.851  10.954  11.183
 1165SOL     OW 5326   2.736  13.392  14.683
 1165SOL    HW1 5327   2.806  13.387  14.618
 1165SOL    HW2 5328   2.751  13.317  14.740
 1166SOL     OW 5329   9.008  14.361   1.584
 1166SOL    HW1 5330   9.050  14.418   1.519
 1166SOL    HW2 5331   9.066  14.364   1.660
 1167SOL     OW 5332   1.581   8.288   5.241
 1167SOL    HW1 5333   1.567   8.195   5.225
 1167SOL    HW2 5334   1.658   8.311   5.189
 1168SOL     OW 5335   7.737   6.971   3.561
 1168SOL    HW1 5336   7.694   7.030   3.499
 1168SOL    HW2 5337   7.824   6.956   3.523
 1169SOL     OW 5338   8.621   6.265   9.829
 1169SOL    HW1 5339   8.534   6.231   9.807
 1169SOL    HW2 5340   8.655   6.204   9.894
 1170SOL     OW 5341  10.254  14.635   3.753
 1170SOL    HW1 5342  10.246  14.662   3.844
 1170SOL    HW2 5343  10.346  14.612   3.742
 1171SOL     OW 5344   3.622   9.787   0.043
 1171SOL    HW1 5345   3.556   9.790  14.849
 1171SOL    HW2 5346   3.586   9.843   0.112
 1172SOL     OW 5347   6.644  10.479  10.406
 1172SOL    HW1 5348   6.560  10.444  10.437
 1172SOL    HW2 5349   6.700  10.479  10.483
 1173SOL     OW 5350   7.464   5.627  12.833
 1173SOL    HW1 5351   7.411   5.677  12.896
 1173SOL    HW2 5352   7.519   5.693  12.791
 1174SOL     OW 5353  11.977   1.856   5.939
 1174SOL    HW1 5354  12.012   1.935   5.980
 1174SOL    HW2 5355  11.957   1.797   6.012
 1175SOL     OW 5356   9.380   1.125   5.953
 1175SOL    HW1 5357   9.426   1.189   6.008
 1175SOL    HW2 5358   9.299   1.169   5.928
 1176SOL     OW 5359   6.558   6.775   2.701
 1176SOL    HW1 5360   6.492   6.836   2.733
 1176SOL    HW2 5361   6.587   6.812   2.618
 1177SOL     OW 5362  10.763   8.291   9.723
 1177SOL    HW1 5363  10.721   8.207   9.703
 1177SOL    HW2 5364  10.787   8.327   9.638
 1178SOL     OW 5365  14.045  11.450   4.057
 1178SOL    HW1 5366  13.955  11.473   4.079
 1178SOL    HW2 5367  14.039  11.362   4.021
 1179SOL     OW 5368   9.522   0.048   5.192
 1179SOL    HW1 5369   9.610   0.032   5.158
 1179SOL    HW2 5370   9.493   0.128   5.148
 1180SOL     OW 5371  13.860   6.781  10.315
 1180SOL    HW1 5372  13.852   6.691  10.285
 1180SOL    HW2 5373  13.921   6.777  10.389
 1181SOL     OW 5374   6.064  11.248   5.349
 1181SOL    HW1 5375   6.060  11.270   5.256
 1181SOL    HW2 5376   6.017  11.164   5.355
 1182SOL     OW 5377   0.870  13.931  12.371
 1182SOL    HW1 5378   0.944  13.894  12.323
 1182SOL    HW2 5379   0.793  13.899  12.324
 1183SOL     OW 5380   2.257  12.272   5.953
 1183SOL    HW1 5381   2.289  12.324   5.879
 1183SOL    HW2 5382   2.301  12.188   5.944
 1184SOL     OW 5383  12.229  11.853   0.704
 1184SOL    HW1 5384  12.179  11.799   0.642
 1184SOL    HW2 5385  12.255  11.930   0.654
 1185SOL     OW 5386   9.036   1.241   2.700
 1185SOL    HW1 5387   9.012   1.242   2.792
 1185SOL    HW2 5388   8.956   1.266   2.653
 1186SOL     OW 5389  14.000   8.787   0.940
 1186SOL    HW1 5390  14.064   8.741   0.885
 1186SOL    HW2 5391  13.922   8.794   0.885
 1187SOL     OW 5392  13.629   0.095   1.059
 1187SOL    HW1 5393  13.634   0.120   1.152
 1187SOL    HW2 5394  13.676   0.012   1.055
 1188SOL     OW 5395   3.725   6.490   2.818
 1188SOL    HW1 5396   3.741   6.578   2.853
 1188SOL    HW2 5397   3.745   6.431   2.891
 1189SOL     OW 5398  10.152  12.033  10.839
 1189SOL    HW1 5399  10.228  11.978  10.821
 1189SOL    HW2 5400  10.143  12.089  10.762
 1190SOL     OW 5401  10.305   3.875  10.481
 1190SOL    HW1 5402  10.388   3.918  10.501
 1190SOL    HW2 5403  10.244   3.911  10.545
 1191SOL     OW 5404   1.394   2.185   0.753
 1191SOL    HW1 5405   1.410   2.136   0.672
 1191SOL    HW2 5406   1.387   2.276   0.725
 1192SOL     OW 5407   5.019  13.356   0.618
 1192SOL    HW1 5408   4.967  13.426   0.578
 1192SOL    HW2 5409   5.098  13.352   0.565
 1193SOL     OW 5410   9.408   9.258  14.612
 1193SOL    HW1 5411   9.411   9.324  14.681
 1193SOL    HW2 5412   9.500   9.246  14.587
 1194SOL     OW 5413   3.684   8.940  10.677
 1194SOL    HW1 5414   3.744   8.927  10.604
 1194SOL    HW2 5415   3.597   8.940  10.637
 1195SOL     OW 5416  14.228   9.195   4.945
 1195SOL    HW1 5417  14.259   9.125   5.003
 1195SOL    HW2 5418  14.205   9.266   5.004
 1196SOL     OW 5419  14.527  12.913   9.550
 1196SOL    HW1 5420  14.445  12.899   9.597
 1196SOL    HW2 5421  14.509  12.880   9.462
 1197SOL     OW 5422   2.760   6.832   8.800
 1197SOL    HW1 5423   2.756   6.924   8.827
 1197SOL    HW2 5424   2.786   6.785   8.880
 1198SOL     OW 5425  13.052   0.594  12.104
 1198SOL    HW1 5426  13.120   0.576  12.039
 1198SOL    HW2 5427  13.047   0.689  12.109
 1199SOL     OW 5428   8.584   0.403  11.615
 1199SOL    HW1 5429   8.631   0.343  11.673
 1199SOL    HW2 5430   8.547   0.345  11.548
 1200SOL     OW 5431   0.385  13.589  13.279
 1200SOL    HW1 5432   0.388  13.661  13.343
 1200SOL    HW2 5433   0.430  13.624  13.202
 1201SOL     OW 5434  13.845  12.319   1.481
 1201SOL    HW1 5435  13.910  12.313   1.411
 1201SOL    HW2 5436  13.767  12.353   1.439
 1202SOL     OW 5437  10.248   8.031   6.249
 1202SOL    HW1 5438  10.302   7.952   6.257
 1202SOL    HW2 5439  10.171   8.014   6.303
 1203SOL     OW 5440   4.679   6.879  10.943
 1203SOL    HW1 5441   4.668   6.789  10.913
 1203SOL    HW2 5442   4.766   6.904  10.914
 1204SOL     OW 5443   6.048   3.240   4.974
 1204SOL    HW1 5444   6.000   3.316   5.008
 1204SOL    HW2 5445   6.118   3.225   5.039
 1205SOL     OW 5446   5.665   4.325   0.903
 1205SOL    HW1 5447   5.738   4.365   0.855
 1205SOL    HW2 5448   5.592   4.387   0.891
 1206SOL     OW 5449   4.291   8.601   3.154
 1206SOL    HW1 5450   4.314   8.576   3.244
 1206SOL    HW2 5451   4.198   8.579   3.146
 1207SOL     OW 5452   4.009  12.196   4.899
 1207SOL    HW1 5453   4.029  12.278   4.944
 1207SOL    HW2 5454   3.943  12.154   4.954
 1208SOL     OW 5455   0.144   1.206   4.853
 1208SOL    HW1 5456   0.169   1.120   4.887
 1208SOL    HW2 5457   0.227   1.251   4.836
 1209SOL     OW 5458   0.327  11.307   2.519
 1209SOL    HW1 5459   0.307  11.381   2.576
 1209SOL    HW2 5460   0.297  11.334   2.432
 1210SOL     OW 5461   1.385   0.408   6.475
 1210SOL    HW1 5462   1.348   0.388   6.561
 1210SOL    HW2 5463   1.479   0.419   6.491
 1211SOL     OW 5464   0.161  14.619   4.786
 1211SOL    HW1 5465   0.103  14.543   4.781
 1211SOL    HW2 5466   0.102  14.694   4.794
 1212SOL     OW 5467   1.268  12.402   9.055
 1212SOL    HW1 5468   1.214  12.456   8.996
 1212SOL    HW2 5469   1.326  12.465   9.098
 1213SOL     OW 5470  14.520  11.465  11.667
 1213SOL    HW1 5471  14.438  11.505  11.638
 1213SOL    HW2 5472  14.578  11.539  11.685
 1214SOL     OW 5473   4.888   2.345   2.801
 1214SOL    HW1 5474   4.811   2.363   2.747
 1214SOL    HW2 5475   4.857   2.358   2.891
 1215SOL     OW 5476   1.443   8.660  12.464
 1215SOL    HW1 5477   1.508   8.591  12.475
 1215SOL    HW2 5478   1.361   8.620  12.493
 1216SOL     OW 5479   8.447   2.996   2.966
 1216SOL    HW1 5480   8.475   2.908   2.940
 1216SOL    HW2 5481   8.525   3.034   3.007
 1217SOL     OW 5482   5.807   3.234   0.629
 1217SOL    HW1 5483   5.770   3.191   0.706
 1217SOL    HW2 5484   5.731   3.269   0.582
 1218SOL     OW 5485  14.605   8.470   3.623
 1218SOL    HW1 5486  14.593   8.520   3.542
 1218SOL    HW2 5487  14.695   8.490   3.649
 1219SOL     OW 5488  13.597   1.994   7.758
 1219SOL    HW1 5489  13.635   2.067   7.805
 1219SOL    HW2 5490  13.620   1.917   7.809
 1220SOL     OW 5491   8.865  11.266   1.031
 1220SOL    HW1 5492   8.795  11.246   0.968
 1220SOL    HW2 5493   8.844  11.354   1.062
 1221SOL     OW 5494  14.649   4.732  13.813
 1221SOL    HW1 5495  14.643   4.779  13.729
 1221SOL    HW2 5496  14.559   4.707  13.833
 1222SOL     OW 5497  10.495  12.847  10.710
 1222SOL    HW1 5498  10.439  12.787  10.760
 1222SOL    HW2 5499  10.451  12.856  10.625
 1223SOL     OW 5500  11.972   1.998  14.567
 1223SOL    HW1 5501  12.046   1.945  14.598
 1223SOL    HW2 5502  11.960   1.972  14.476
 1224SOL     OW 5503  12.932   2.132   7.653
 1224SOL    HW1 5504  12.940   2.082   7.734
 1224SOL    HW2 5505  12.894   2.216   7.680
 1225SOL     OW 5506  11.380   3.698   1.683
 1225SOL    HW1 5507  11.330   3.780   1.685
 1225SOL    HW2 5508  11.429   3.702   1.601
 1226SOL     OW 5509   3.068   4.591  11.548
 1226SOL    HW1 5510   3.026   4.534  11.613
 1226SOL    HW2 5511   2.999   4.652  11.522
 1227SOL     OW 5512  11.377   5.270  10.904
 1227SOL    HW1 5513  11.320   5.207  10.860
 1227SOL    HW2 5514  11.450   5.217  10.935
 1228SOL     OW 5515  13.558   8.846   0.236
 1228SOL    HW1 5516  13.532   8.822   0.147
 1228SOL    HW2 5517  13.481   8.887   0.274
 1229SOL     OW 5518  13.835   7.622   8.331
 1229SOL    HW1 5519  13.879   7.634   8.247
 1229SOL    HW2 5520  13.882   7.550   8.373
 1230SOL     OW 5521   8.841   9.946   9.252
 1230SOL    HW1 5522   8.835  10.039   9.273
 1230SOL    HW2 5523   8.821   9.901   9.334
 1231SOL     OW 5524  10.828  12.496   1.113
 1231SOL    HW1 5525  10.899  12.456   1.165
 1231SOL    HW2 5526  10.805  12.428   1.049
 1232SOL     OW 5527   5.500   2.692  13.420
 1232SOL    HW1 5528   5.561   2.755  13.382
 1232SOL    HW2 5529   5.447   2.663  13.346
 1233SOL     OW 5530   0.831   7.541   5.493
 1233SOL    HW1 5531   0.871   7.613   5.444
 1233SOL    HW2 5532   0.901   7.506   5.547
 1234SOL     OW 5533   1.060  12.366   6.184
 1234SOL    HW1 5534   1.064  12.278   6.146
 1234SOL    HW2 5535   1.031  12.422   6.112
 1235SOL     OW 5536   6.540   7.572   5.302
 1235SOL    HW1 5537   6.601   7.598   5.233
 1235SOL    HW2 5538   6.470   7.526   5.256
 1236SOL     OW 5539   2.924  13.376   3.525
 1236SOL    HW1 5540   2.988  13.315   3.489
 1236SOL    HW2 5541   2.847  13.322   3.545
 1237SOL     OW 5542   2.146  10.826  10.767
 1237SOL    HW1 5543   2.072  10.883  10.788
 1237SOL    HW2 5544   2.124  10.788  10.682
 1238SOL     OW 5545   4.283   6.905   5.388
 1238SOL    HW1 5546   4.206   6.928   5.441
 1238SOL    HW2 5547   4.352   6.963   5.419
 1239SOL     OW 5548   5.690   5.026   4.943
 1239SOL    HW1 5549   5.665   5.066   4.860
 1239SOL    HW2 5550   5.784   5.012   4.935
 1240SOL     OW 5551   1.088   6.666   9.253
 1240SOL    HW1 5552   1.162   6.607   9.269
 1240SOL    HW2 5553   1.019   6.634   9.312
 1241SOL     OW 5554   9.514  13.097   8.636
 1241SOL    HW1 5555   9.456  13.030   8.599
 1241SOL    HW2 5556   9.579  13.048   8.687
 1242SOL     OW 5557  12.420   3.482  10.618
 1242SOL    HW1 5558  12.432   3.565  10.573
 1242SOL    HW2 5559  12.339   3.446  10.583
 1243SOL     OW 5560  12.498   0.377   0.929
 1243SOL    HW1 5561  12.498   0.420   0.844
 1243SOL    HW2 5562  12.406   0.360   0.948
 1244SOL     OW 5563   3.426  12.002   9.324
 1244SOL    HW1 5564   3.498  11.979   9.383
 1244SOL    HW2 5565   3.382  12.075   9.368
 1245SOL     OW 5566  12.944  10.761   6.778
 1245SOL    HW1 5567  12.996  10.689   6.814
 1245SOL    HW2 5568  12.965  10.762   6.684
 1246SOL     OW 5569   0.663   8.754  14.536
 1246SOL    HW1 5570   0.676   8.819  14.467
 1246SOL    HW2 5571   0.736   8.767  14.596
 1247SOL     OW 5572   7.502   6.011   7.280
 1247SOL    HW1 5573   7.411   5.998   7.308
 1247SOL    HW2 5574   7.498   6.010   7.184
 1248SOL     OW 5575   8.168   4.760   6.970
 1248SOL    HW1 5576   8.251   4.768   7.017
 1248SOL    HW2 5577   8.175   4.823   6.898
 1249SOL     OW 5578   8.493   3.984   2.390
 1249SOL    HW1 5579   8.582   3.998   2.422
 1249SOL    HW2 5580   8.444   4.061   2.420
 1250SOL     OW 5581   8.078   6.081   7.665
 1250SOL    HW1 5582   8.084   6.047   7.576
 1250SOL    HW2 5583   8.169   6.101   7.688
 1251SOL     OW 5584   1.080   1.972  12.914
 1251SOL    HW1 5585   1.061   1.894  12.966
 1251SOL    HW2 5586   1.172   1.991  12.931
 1252SOL     OW 5587  13.482   5.266   2.131
 1252SOL    HW1 5588  13.541   5.335   2.099
 1252SOL    HW2 5589  13.540   5.195   2.157
 1253SOL     OW 5590   0.522   3.385  10.158
 1253SOL    HW1 5591   0.529   3.374  10.253
 1253SOL    HW2 5592   0.565   3.307  10.122
 1254SOL     OW 5593   5.522   1.852   6.201
 1254SOL    HW1 5594   5.559   1.862   6.288
 1254SOL    HW2 5595   5.488   1.938   6.178
 1255SOL     OW 5596  10.849  11.660   0.726
 1255SOL    HW1 5597  10.783  11.650   0.795
 1255SOL    HW2 5598  10.917  11.596   0.749
 1256SOL     OW 5599  10.420  13.316   6.214
 1256SOL    HW1 5600  10.453  13.344   6.129
 1256SOL    HW2 5601  10.488  13.260   6.250
 1257SOL     OW 5602   2.828   2.923   1.301
 1257SOL    HW1 5603   2.747   2.914   1.251
 1257SOL    HW2 5604   2.894   2.946   1.235
 1258SOL     OW 5605   8.031  14.150   5.527
 1258SOL    HW1 5606   8.047  14.147   5.621
 1258SOL    HW2 5607   7.950  14.102   5.514
 1259SOL     OW 5608   1.355  10.977   2.473
 1259SOL    HW1 5609   1.317  10.981   2.560
 1259SOL    HW2 5610   1.353  10.884   2.450
 1260SOL     OW 5611   2.844  12.632  10.042
 1260SOL    HW1 5612   2.831  12.653  10.135
 1260SOL    HW2 5613   2.906  12.698  10.012
 1261SOL     OW 5614  12.287   6.483  13.834
 1261SOL    HW1 5615  12.235   6.559  13.859
 1261SOL    HW2 5616  12.229   6.408  13.849
 1262SOL     OW 5617  14.343  14.008   4.779
 1262SOL    HW1 5618  14.428  14.054   4.781
 1262SOL    HW2 5619  14.292  14.051   4.847
 1263SOL     OW 5620   9.255   5.496  12.619
 1263SOL    HW1 5621   9.162   5.509  12.634
 1263SOL    HW2 5622   9.287   5.453  12.698
 1264SOL     OW 5623  13.079  12.166   2.668
 1264SOL    HW1 5624  13.100  12.077   2.638
 1264SOL    HW2 5625  13.134  12.223   2.613
 1265SOL     OW 5626   2.026  11.729   4.302
 1265SOL    HW1 5627   1.990  11.755   4.387
 1265SOL    HW2 5628   1.977  11.650   4.278
 1266SOL     OW 5629   0.887   0.398   1.884
 1266SOL    HW1 5630   0.925   0.449   1.956
 1266SOL    HW2 5631   0.836   0.330   1.926
 1267SOL     OW 5632  10.813   8.441   9.469
 1267SOL    HW1 5633  10.794   8.514   9.528
 1267SOL    HW2 5634  10.873   8.478   9.404
 1268SOL     OW 5635   0.517   3.492  10.428
 1268SOL    HW1 5636   0.489   3.558  10.365
 1268SOL    HW2 5637   0.487   3.524  10.513
 1269SOL     OW 5638   4.041   8.297  12.976
 1269SOL    HW1 5639   4.003   8.261  13.056
 1269SOL    HW2 5640   4.135   8.280  12.985
 1270SOL     OW 5641   1.004  12.858   3.722
 1270SOL    HW1 5642   1.012  12.841   3.816
 1270SOL    HW2 5643   0.910  12.860   3.707
 1271SOL     OW 5644   8.499  10.184   1.891
 1271SOL    HW1 5645   8.521  10.259   1.946
 1271SOL    HW2 5646   8.512  10.214   1.801
 1272SOL     OW 5647   8.917  13.758  13.395
 1272SOL    HW1 5648   8.961  13.726  13.474
 1272SOL    HW2 5649   8.921  13.684  13.334
 1273SOL     OW 5650   6.347   9.872   4.202
 1273SOL    HW1 5651   6.288   9.798   4.214
 1273SOL    HW2 5652   6.380   9.890   4.291
 1274SOL     OW 5653  14.503  11.291   2.269
 1274SOL    HW1 5654  14.540  11.260   2.186
 1274SOL    HW2 5655  14.575  11.283   2.332
 1275SOL     OW 5656   8.678   0.047   5.987
 1275SOL    HW1 5657   8.770   0.053   6.011
 1275SOL    HW2 5658   8.674  14.851   5.924
 1276SOL     OW 5659   6.638   6.355   1.802
 1276SOL    HW1 5660   6.710   6.395   1.850
 1276SOL    HW2 5661   6.674   6.274   1.767
 1277SOL     OW 5662   6.180   6.920   2.829
 1277SOL    HW1 5663   6.147   6.944   2.742
 1277SOL    HW2 5664   6.271   6.950   2.829
 1278SOL     OW 5665   7.309  14.337   0.447
 1278SOL    HW1 5666   7.319  14.398   0.373
 1278SOL    HW2 5667   7.380  14.273   0.435
 1279SOL     OW 5668  14.618   8.125   2.374
 1279SOL    HW1 5669  14.615   8.128   2.278
 1279SOL    HW2 5670  14.611   8.032   2.394
 1280SOL     OW 5671   4.796   0.370  10.395
 1280SOL    HW1 5672   4.725   0.307  10.407
 1280SOL    HW2 5673   4.791   0.426  10.472
 1281SOL     OW 5674  12.614   5.940   2.041
 1281SOL    HW1 5675  12.565   5.979   2.113
 1281SOL    HW2 5676  12.668   6.011   2.007
 1282SOL     OW 5677   1.184  11.015   1.696
 1282SOL    HW1 5678   1.241  10.993   1.623
 1282SOL    HW2 5679   1.207  11.105   1.718
 1283SOL     OW 5680  11.438  14.682  11.741
 1283SOL    HW1 5681  11.529  14.662  11.760
 1283SOL    HW2 5682  11.391  14.600  11.757
 1284SOL     OW 5683  10.421   0.940   6.355
 1284SOL    HW1 5684  10.512   0.931   6.383
 1284SOL    HW2 5685  10.403   1.034   6.363
 1285SOL     OW 5686   6.276  10.019   2.223
 1285SOL    HW1 5687   6.216  10.025   2.297
 1285SOL    HW2 5688   6.244  10.084   2.160
 1286SOL     OW 5689   3.438   4.867  11.931
 1286SOL    HW1 5690   3.472   4.928  11.996
 1286SOL    HW2 5691   3.345   4.856  11.954
 1287SOL     OW 5692   2.312   8.741   7.030
 1287SOL    HW1 5693   2.380   8.695   6.981
 1287SOL    HW2 5694   2.335   8.834   7.022
 1288SOL     OW 5695   5.269  10.584  14.189
 1288SOL    HW1 5696   5.196  10.644  14.172
 1288SOL    HW2 5697   5.254  10.554  14.279
 1289SOL     OW 5698  13.633   4.619   6.559
 1289SOL    HW1 5699  13.663   4.708   6.576
 1289SOL    HW2 5700  13.606   4.586   6.645
 1290SOL     OW 5701   7.337  11.105   4.447
 1290SOL    HW1 5702   7.281  11.178   4.472
 1290SOL    HW2 5703   7.301  11.074   4.364
 1291SOL     OW 5704   9.204   9.953   6.456
 1291SOL    HW1 5705   9.111   9.977   6.459
 1291SOL    HW2 5706   9.216   9.916   6.369
 1292SOL     OW 5707   4.294   0.983  14.106
 1292SOL    HW1 5708   4.328   0.986  14.195
 1292SOL    HW2 5709   4.289   0.890  14.086
 1293SOL     OW 5710   0.184   5.528  14.487
 1293SOL    HW1 5711   0.252   5.468  14.516
 1293SOL    HW2 5712   0.161   5.579  14.564
 1294SOL     OW 5713  13.484   2.914  12.317
 1294SOL    HW1 5714  13.509   2.860  12.393
 1294SOL    HW2 5715  13.393   2.937  12.332
 1295SOL     OW 5716  10.765   2.789  11.633
 1295SOL    HW1 5717  10.703   2.839  11.580
 1295SOL    HW2 5718  10.803   2.726  11.572
 1296SOL     OW 5719   7.273  12.614  10.686
 1296SOL    HW1 5720   7.254  12.666  10.765
 1296SOL    HW2 5721   7.367  12.601  10.688
 1297SOL     OW 5722  11.216   6.641  11.699
 1297SOL    HW1 5723  11.238   6.724  11.658
 1297SOL    HW2 5724  11.293   6.585  11.686
 1298SOL     OW 5725  12.425   4.442  14.555
 1298SOL    HW1 5726  12.518   4.462  14.570
 1298SOL    HW2 5727  12.389   4.429  14.642
 1299SOL     OW 5728  11.293  10.811   5.034
 1299SOL    HW1 5729  11.198  10.825   5.036
 1299SOL    HW2 5730  11.324  10.867   4.964
 1300SOL     OW 5731   4.645   8.938  12.463
 1300SOL    HW1 5732   4.686   8.983  12.389
 1300SOL    HW2 5733   4.558   8.913  12.431
 1301SOL     OW 5734   5.892   8.119   3.018
 1301SOL    HW1 5735   5.814   8.087   3.064
 1301SOL    HW2 5736   5.958   8.050   3.033
 1302SOL     OW 5737   2.744  12.805   7.844
 1302SOL    HW1 5738   2.823  12.786   7.793
 1302SOL    HW2 5739   2.679  12.742   7.814
 1303SOL     OW 5740   0.377   5.995   3.891
 1303SOL    HW1 5741   0.407   5.927   3.830
 1303SOL    HW2 5742   0.295   5.961   3.927
 1304SOL     OW 5743   1.987  11.121   5.172
 1304SOL    HW1 5744   2.005  11.100   5.080
 1304SOL    HW2 5745   2.068  11.097   5.218
 1305SOL     OW 5746   2.324   7.143   2.401
 1305SOL    HW1 5747   2.388   7.079   2.432
 1305SOL    HW2 5748   2.343   7.153   2.308
 1306SOL     OW 5749  11.745   7.948  12.662
 1306SOL    HW1 5750  11.790   7.955  12.746
 1306SOL    HW2 5751  11.789   7.876  12.617
 1307SOL     OW 5752  13.116   8.828   9.375
 1307SOL    HW1 5753  13.210   8.813   9.375
 1307SOL    HW2 5754  13.090   8.819   9.466
 1308SOL     OW 5755   7.910  12.813   8.420
 1308SOL    HW1 5756   7.946  12.830   8.506
 1308SOL    HW2 5757   7.945  12.727   8.395
 1309SOL     OW 5758   5.690  12.300   4.113
 1309SOL    HW1 5759   5.598  12.288   4.090
 1309SOL    HW2 5760   5.700  12.257   4.197
 1310SOL     OW 5761   0.838   2.633   6.383
 1310SOL    HW1 5762   0.830   2.728   6.393
 1310SOL    HW2 5763   0.931   2.618   6.368
 1311SOL     OW 5764   1.196  12.468   0.811
 1311SOL    HW1 5765   1.255  12.486   0.738
 1311SOL    HW2 5766   1.141  12.396   0.780
 1312SOL     OW 5767   4.573   0.043   8.303
 1312SOL    HW1 5768   4.617   0.126   8.281
 1312SOL    HW2 5769   4.498   0.069   8.356
 1313SOL     OW 5770   4.661  10.936   9.473
 1313SOL    HW1 5771   4.642  10.886   9.394
 1313SOL    HW2 5772   4.576  10.942   9.518
 1314SOL     OW 5773   0.417  14.694   8.441
 1314SOL    HW1 5774   0.433  14.622   8.501
 1314SOL    HW2 5775   0.461  14.668   8.360
 1315SOL     OW 5776   6.898   4.328   7.471
 1315SOL    HW1 5777   6.923   4.237   7.456
 1315SOL    HW2 5778   6.804   4.324   7.491
 1316SOL     OW 5779   7.255   3.746   7.426
 1316SOL    HW1 5780   7.308   3.679   7.469
 1316SOL    HW2 5781   7.192   3.696   7.373
 1317SOL     OW 5782   7.037   1.995  11.591
 1317SOL    HW1 5783   7.097   2.054  11.545
 1317SOL    HW2 5784   7.029   1.919  11.534
 1318SOL     OW 5785   7.800  13.693   8.580
 1318SOL    HW1 5786   7.774  13.745   8.503
 1318SOL    HW2 5787   7.724  13.637   8.596
 1319SOL     OW 5788   8.480   6.271   0.690
 1319SOL    HW1 5789   8.553   6.210   0.688
 1319SOL    HW2 5790   8.415   6.232   0.632
 1320SOL     OW 5791   2.388  14.859   0.441
 1320SOL    HW1 5792   2.400  14.851   0.536
 1320SOL    HW2 5793   2.360   0.073   0.428
 1321SOL     OW 5794  10.959   0.587  14.038
 1321SOL    HW1 5795  10.998   0.670  14.063
 1321SOL    HW2 5796  10.989   0.525  14.105
 1322SOL     OW 5797   3.943   6.227  11.318
 1322SOL    HW1 5798   3.998   6.238  11.395
 1322SOL    HW2 5799   3.978   6.291  11.255
 1323SOL     OW 5800   5.355   3.189   3.480
 1323SOL    HW1 5801   5.368   3.095   3.487
 1323SOL    HW2 5802   5.337   3.217   3.570
 1324SOL     OW 5803  11.567   7.782   4.999
 1324SOL    HW1 5804  11.602   7.794   5.087
 1324SOL    HW2 5805  11.518   7.700   5.003
 1325SOL     OW 5806  13.500   1.485  14.143
 1325SOL    HW1 5807  13.451   1.507  14.064
 1325SOL    HW2 5808  13.448   1.417  14.186
 1326SOL     OW 5809  12.616   7.387  14.150
 1326SOL    HW1 5810  12.526   7.407  14.174
 1326SOL    HW2 5811  12.668   7.421  14.223
 1327SOL     OW 5812  12.024  13.032   5.270
 1327SOL    HW1 5813  12.099  13.067   5.222
 1327SOL    HW2 5814  11.962  13.007   5.201
 1328SOL     OW 5815   1.189  10.540   8.825
 1328SOL    HW1 5816   1.173  10.633   8.808
 1328SOL    HW2 5817   1.226  10.506   8.743
 1329SOL     OW 5818  11.179   9.749  14.176
 1329SOL    HW1 5819  11.271   9.759  14.199
 1329SOL    HW2 5820  11.180   9.712  14.088
 1330SOL     OW 5821   3.784   5.890   4.718
 1330SOL    HW1 5822   3.783   5.897   4.814
 1330SOL    HW2 5823   3.840   5.815   4.700
 1331SOL     OW 5824   4.663   3.796   6.040
 1331SOL    HW1 5825   4.651   3.885   6.006
 1331SOL    HW2 5826   4.605   3.742   5.987
 1332SOL     OW 5827   8.013   1.291   6.525
 1332SOL    HW1 5828   8.094   1.322   6.566
 1332SOL    HW2 5829   8.003   1.201   6.558
 1333SOL     OW 5830  11.300  10.318   4.350
 1333SOL    HW1 5831  11.304  10.233   4.393
 1333SOL    HW2 5832  11.240  10.306   4.277
 1334SOL     OW 5833   1.276   6.540   1.392
 1334SOL    HW1 5834   1.351   6.483   1.378
 1334SOL    HW2 5835   1.216   6.488   1.446
 1335SOL     OW 5836   8.648  13.807   7.142
 1335SOL    HW1 5837   8.625  13.831   7.232
 1335SOL    HW2 5838   8.686  13.886   7.105
 1336SOL     OW 5839  14.853   3.410   8.389
 1336SOL    HW1 5840  14.871   3.396   8.296
 1336SOL    HW2 5841  14.758   3.417   8.395
 1337SOL     OW 5842   5.286   7.662   9.563
 1337SOL    HW1 5843   5.373   7.622   9.569
 1337SOL    HW2 5844   5.253   7.663   9.653
 1338SOL     OW 5845  14.578   8.529   9.151
 1338SOL    HW1 5846  14.597   8.545   9.244
 1338SOL    HW2 5847  14.521   8.452   9.152
 1339SOL     OW 5848  11.420  12.173   1.659
 1339SOL    HW1 5849  11.326  12.177   1.643
 1339SOL    HW2 5850  11.459  12.214   1.582
 1340SOL     OW 5851   1.580   5.459  14.411
 1340SOL    HW1 5852   1.671   5.488  14.404
 1340SOL    HW2 5853   1.578   5.374  14.368
 1341SOL     OW 5854   8.726  12.186  13.007
 1341SOL    HW1 5855   8.818  12.198  13.030
 1341SOL    HW2 5856   8.678  12.236  13.074
 1342SOL     OW 5857   3.797   3.017   5.782
 1342SOL    HW1 5858   3.766   3.084   5.721
 1342SOL    HW2 5859   3.890   3.007   5.761
 1343SOL     OW 5860  14.852  11.791  11.326
 1343SOL    HW1 5861  14.874  11.721  11.265
 1343SOL    HW2 5862  14.766  11.823  11.296
 1344SOL     OW 5863   7.964  10.568   6.564
 1344SOL    HW1 5864   7.998  10.611   6.485
 1344SOL    HW2 5865   7.869  10.567   6.551
 1345SOL     OW 5866  14.375   4.644  10.348
 1345SOL    HW1 5867  14.353   4.737  10.354
 1345SOL    HW2 5868  14.425   4.636  10.267
 1346SOL     OW 5869  12.538  14.133   9.251
 1346SOL    HW1 5870  12.455  14.136   9.203
 1346SOL    HW2 5871  12.599  14.180   9.195
 1347SOL     OW 5872  14.529   6.896   2.305
 1347SOL    HW1 5873  14.523   6.936   2.392
 1347SOL    HW2 5874  14.610   6.931   2.269
 1348SOL     OW 5875   0.588   2.541  10.630
 1348SOL    HW1 5876   0.494   2.554  10.644
 1348SOL    HW2 5877   0.630   2.576  10.708
 1349SOL     OW 5878   0.326   2.280  14.035
 1349SOL    HW1 5879   0.348   2.313  13.948
 1349SOL    HW2 5880   0.239   2.315  14.053
 1350SOL     OW 5881   1.282  11.553  13.799
 1350SOL    HW1 5882   1.307  11.508  13.718
 1350SOL    HW2 5883   1.363  11.564  13.847
 1351SOL     OW 5884   0.298   1.862   5.164
 1351SOL    HW1 5885   0.342   1.934   5.119
 1351SOL    HW2 5886   0.333   1.865   5.253
 1352SOL     OW 5887   0.869   1.192   1.240
 1352SOL    HW1 5888   0.827   1.241   1.169
 1352SOL    HW2 5889   0.866   1.251   1.315
 1353SOL     OW 5890  13.691  13.448   6.585
 1353SOL    HW1 5891  13.719  13.486   6.502
 1353SOL    HW2 5892  13.595  13.457   6.584
 1354SOL     OW 5893   3.198   8.345  11.001
 1354SOL    HW1 5894   3.293   8.349  10.993
 1354SOL    HW2 5895   3.171   8.435  11.017
 1355SOL     OW 5896   0.904   1.859  11.824
 1355SOL    HW1 5897   0.837   1.895  11.766
 1355SOL    HW2 5898   0.911   1.922  11.896
 1356SOL     OW 5899   8.022   9.665   3.237
 1356SOL    HW1 5900   8.075   9.605   3.289
 1356SOL    HW2 5901   8.029   9.631   3.148
 1357SOL     OW 5902   5.051   6.128   1.859
 1357SOL    HW1 5903   5.007   6.143   1.942
 1357SOL    HW2 5904   5.001   6.178   1.795
 1358SOL     OW 5905   6.243  13.768   7.621
 1358SOL    HW1 5906   6.257  13.699   7.556
 1358SOL    HW2 5907   6.330  13.799   7.643
 1359SOL     OW 5908  13.338  10.587   0.296
 1359SOL    HW1 5909  13.377  10.674   0.291
 1359SOL    HW2 5910  13.284  10.579   0.217
 1360SOL     OW 5911  13.420   0.309  10.205
 1360SOL    HW1 5912  13.327   0.320  10.186
 1360SOL    HW2 5913  13.423   0.293  10.299
 1361SOL     OW 5914   2.821  14.258   9.742
 1361SOL    HW1 5915   2.840  14.165   9.727
 1361SOL    HW2 5916   2.907  14.298   9.754
 1362SOL     OW 5917  13.665   9.563   8.015
 1362SOL    HW1 5918  13.754   9.560   7.980
 1362SOL    HW2 5919  13.609   9.536   7.942
 1363SOL     OW 5920  12.792   7.936   9.889
 1363SOL    HW1 5921  12.722   7.966   9.948
 1363SOL    HW2 5922  12.761   7.851   9.857
 1364SOL     OW 5923   6.963   8.793   1.274
 1364SOL    HW1 5924   6.940   8.723   1.335
 1364SOL    HW2 5925   7.004   8.860   1.329
 1365SOL     OW 5926   1.920   0.546   2.424
 1365SOL    HW1 5927   1.963   0.544   2.509
 1365SOL    HW2 5928   1.841   0.597   2.438
 1366SOL     OW 5929   8.162   5.041   4.768
 1366SOL    HW1 5930   8.146   5.082   4.683
 1366SOL    HW2 5931   8.191   4.952   4.746
 1367SOL     OW 5932   1.065   7.013   4.692
 1367SOL    HW1 5933   1.002   7.075   4.727
 1367SOL    HW2 5934   1.042   6.929   4.731
 1368SOL     OW 5935  12.946   1.040   8.705
 1368SOL    HW1 5936  12.910   1.011   8.621
 1368SOL    HW2 5937  12.871   1.046   8.763
 1369SOL     OW 5938   2.297   1.678  14.644
 1369SOL    HW1 5939   2.369   1.615  14.656
 1369SOL    HW2 5940   2.231   1.630  14.596
 1370SOL     OW 5941  10.322   9.723   5.017
 1370SOL    HW1 5942  10.336   9.723   4.923
 1370SOL    HW2 5943  10.409   9.739   5.055
 1371SOL     OW 5944   0.812  14.567   1.886
 1371SOL    HW1 5945   0.819  14.648   1.936
 1371SOL    HW2 5946   0.836  14.592   1.797
 1372SOL     OW 5947   4.176   7.421   5.927
 1372SOL    HW1 5948   4.200   7.487   5.992
 1372SOL    HW2 5949   4.142   7.348   5.979
 1373SOL     OW 5950   9.302   7.616  12.271
 1373SOL    HW1 5951   9.280   7.598  12.363
 1373SOL    HW2 5952   9.380   7.564  12.255
 1374SOL     OW 5953   6.025   2.708   7.774
 1374SOL    HW1 5954   5.960   2.650   7.735
 1374SOL    HW2 5955   6.094   2.715   7.708
 1375SOL     OW 5956   4.416  10.706  13.017
 1375SOL    HW1 5957   4.333  10.667  13.044
 1375SOL    HW2 5958   4.472  10.631  12.997
 1376SOL     OW 5959  11.263   5.821   8.350
 1376SOL    HW1 5960  11.236   5.844   8.439
 1376SOL    HW2 5961  11.299   5.733   8.358
 1377SOL     OW 5962   5.336   2.538  14.100
 1377SOL    HW1 5963   5.287   2.503  14.026
 1377SOL    HW2 5964   5.374   2.620  14.067
 1378SOL     OW 5965   0.599  14.601   7.699
 1378SOL    HW1 5966   0.686  14.561   7.691
 1378SOL    HW2 5967   0.543  14.548   7.642
 1379SOL     OW 5968   5.290  12.419   0.298
 1379SOL    HW1 5969   5.308  12.493   0.355
 1379SOL    HW2 5970   5.199  12.432   0.270
 1380SOL     OW 5971  10.948   0.747   3.628
 1380SOL    HW1 5972  10.936   0.759   3.722
 1380SOL    HW2 5973  10.995   0.826   3.600
 1381SOL     OW 5974  11.621  12.022  12.153
 1381SOL    HW1 5975  11.556  12.030  12.084
 1381SOL    HW2 5976  11.704  12.012  12.106
 1382SOL     OW 5977   6.859   9.663  13.968
 1382SOL    HW1 5978   6.858   9.703  13.881
 1382SOL    HW2 5979   6.802   9.718  14.021
 1383SOL     OW 5980   8.503  10.496   4.917
 1383SOL    HW1 5981   8.425  10.445   4.936
 1383SOL    HW2 5982   8.561  10.436   4.870
 1384SOL     OW 5983  13.503   6.590   3.388
 1384SOL    HW1 5984  13.444   6.648   3.435
 1384SOL    HW2 5985  13.581   6.584   3.442
 1385SOL     OW 5986  10.392   8.975  11.014
 1385SOL    HW1 5987  10.348   8.907  10.962
 1385SOL    HW2 5988  10.410   8.932  11.098
 1386SOL     OW 5989   2.984  12.236  10.295
 1386SOL    HW1 5990   2.969  12.160  10.239
 1386SOL    HW2 5991   2.900  12.253  10.337
 1387SOL     OW 5992  11.667   4.162  12.107
 1387SOL    HW1 5993  11.682   4.252  12.079
 1387SOL    HW2 5994  11.582   4.164  12.151
 1388SOL     OW 5995   9.819   9.758  13.501
 1388SOL    HW1 5996   9.864   9.717  13.427
 1388SOL    HW2 5997   9.777   9.685  13.547
 1389SOL     OW 5998   3.350   3.139   7.366
 1389SOL    HW1 5999   3.270   3.092   7.391
 1389SOL    HW2 6000   3.390   3.164   7.449
 1390SOL     OW 6001  12.787  11.252  12.842
 1390SOL    HW1 6002  12.845  11.199  12.897
 1390SOL    HW2 6003  12.750  11.190  12.780
 1391SOL     OW 6004  11.493  10.749   1.687
 1391SOL    HW1 6005  11.505  10.808   1.613
 1391SOL    HW2 6006  11.463  10.667   1.649
 1392SOL     OW 6007  14.227   6.550   4.875
 1392SOL    HW1 6008  14.279   6.470   4.881
 1392SOL    HW2 6009  14.219   6.580   4.966
 1393SOL     OW 6010   8.847   9.003   7.210
 1393SOL    HW1 6011   8.920   9.062   7.226
 1393SOL    HW2 6012   8.823   9.019   7.118
 1394SOL     OW 6013   9.883   6.533   5.249
 1394SOL    HW1 6014   9.965   6.522   5.200
 1394SOL    HW2 6015   9.896   6.613   5.300
 1395SOL     OW 6016  11.830   8.120   6.398
 1395SOL    HW1 6017  11.896   8.144   6.334
 1395SOL    HW2 6018  11.748   8.154   6.362
 1396SOL     OW 6019   1.293  12.070   7.595
 1396SOL    HW1 6020   1.234  11.996   7.613
 1396SOL    HW2 6021   1.349  12.074   7.672
 1397SOL     OW 6022   2.620   8.958  10.134
 1397SOL    HW1 6023   2.558   8.949  10.206
 1397SOL    HW2 6024   2.655   8.870  10.121
 1398SOL     OW 6025  10.720  12.416  12.522
 1398SOL    HW1 6026  10.690  12.474  12.451
 1398SOL    HW2 6027  10.668  12.337  12.512
 1399SOL     OW 6028  13.163   1.007   9.655
 1399SOL    HW1 6029  13.094   1.066   9.625
 1399SOL    HW2 6030  13.236   1.022   9.596
 1400SOL     OW 6031   5.589   1.653   6.679
 1400SOL    HW1 6032   5.679   1.668   6.709
 1400SOL    HW2 6033   5.537   1.650   6.759
 1401SOL     OW 6034  12.860   9.558   3.070
 1401SOL    HW1 6035  12.814   9.633   3.107
 1401SOL    HW2 6036  12.847   9.566   2.975
 1402SOL     OW 6037   7.877  10.886  11.933
 1402SOL    HW1 6038   7.824  10.851  11.862
 1402SOL    HW2 6039   7.817  10.891  12.008
 1403SOL     OW 6040   6.523  10.699   7.555
 1403SOL    HW1 6041   6.513  10.688   7.650
 1403SOL    HW2 6042   6.512  10.793   7.541
 1404SOL     OW 6043  10.915   5.294  11.557
 1404SOL    HW1 6044  10.892   5.380  11.522
 1404SOL    HW2 6045  10.999   5.308  11.601
 1405SOL     OW 6046   8.853   4.764   7.969
 1405SOL    HW1 6047   8.931   4.709   7.976
 1405SOL    HW2 6048   8.784   4.705   7.940
 1406SOL     OW 6049   5.671   8.913   3.878
 1406SOL    HW1 6050   5.682   8.981   3.944
 1406SOL    HW2 6051   5.758   8.904   3.839
 1407SOL     OW 6052   8.115  13.025   4.146
 1407SOL    HW1 6053   8.193  12.970   4.132
 1407SOL    HW2 6054   8.068  12.982   4.217
 1408SOL     OW 6055   4.179   2.038   3.646
 1408SOL    HW1 6056   4.144   2.065   3.732
 1408SOL    HW2 6057   4.270   2.065   3.648
 1409SOL     OW 6058   4.124  14.404   6.382
 1409SOL    HW1 6059   4.039  14.363   6.398
 1409SOL    HW2 6060   4.157  14.359   6.304
 1410SOL     OW 6061  10.134   5.801   8.254
 1410SOL    HW1 6062  10.155   5.835   8.167
 1410SOL    HW2 6063  10.125   5.879   8.309
 1411SOL     OW 6064  11.910   3.102  13.968
 1411SOL    HW1 6065  11.876   3.186  13.937
 1411SOL    HW2 6066  11.994   3.125  14.009
 1412SOL     OW 6067   0.181   0.578   0.373
 1412SOL    HW1 6068   0.246   0.638   0.409
 1412SOL    HW2 6069   0.147   0.530   0.448
 1413SOL     OW 6070   2.286   9.478   5.982
 1413SOL    HW1 6071   2.269   9.458   6.074
 1413SOL    HW2 6072   2.278   9.573   5.975
 1414SOL     OW 6073   1.645   1.589   1.227
 1414SOL    HW1 6074   1.638   1.599   1.322
 1414SOL    HW2 6075   1.708   1.657   1.201
 1415SOL     OW 6076   4.771   5.923   6.751
 1415SOL    HW1 6077   4.813   6.005   6.778
 1415SOL    HW2 6078   4.843   5.868   6.722
 1416SOL     OW 6079  14.162   2.257   0.602
 1416SOL    HW1 6080  14.203   2.171   0.599
 1416SOL    HW2 6081  14.104   2.259   0.525
 1417SOL     OW 6082   1.977   8.859  10.112
 1417SOL    HW1 6083   2.026   8.933  10.075
 1417SOL    HW2 6084   1.895   8.858  10.063
 1418SOL     OW 6085   9.607   5.028   2.486
 1418SOL    HW1 6086   9.559   5.108   2.506
 1418SOL    HW2 6087   9.555   4.985   2.419
 1419SOL     OW 6088  10.534   1.190  14.002
 1419SOL    HW1 6089  10.613   1.173  14.054
 1419SOL    HW2 6090  10.526   1.112  13.947
 1420SOL     OW 6091  10.129  10.498   1.500
 1420SOL    HW1 6092  10.201  10.470   1.444
 1420SOL    HW2 6093  10.052  10.496   1.443
 1421SOL     OW 6094   5.862   5.060   9.740
 1421SOL    HW1 6095   5.776   5.024   9.720
 1421SOL    HW2 6096   5.874   5.044   9.834
 1422SOL     OW 6097  14.641   8.263   0.738
 1422SOL    HW1 6098  14.572   8.320   0.703
 1422SOL    HW2 6099  14.706   8.324   0.774
 1423SOL     OW 6100  11.056  14.123  12.628
 1423SOL    HW1 6101  11.055  14.213  12.662
 1423SOL    HW2 6102  11.033  14.069  12.704
 1424SOL     OW 6103   7.747  14.866   9.982
 1424SOL    HW1 6104   7.713  14.843   9.896
 1424SOL    HW2 6105   7.672   0.024  10.030
 1425SOL     OW 6106  12.925  10.553   0.021
 1425SOL    HW1 6107  12.854  10.513   0.071
 1425SOL    HW2 6108  12.985  10.588   0.087
 1426SOL     OW 6109  10.677   2.555  13.991
 1426SOL    HW1 6110  10.696   2.618  13.923
 1426SOL    HW2 6111  10.763   2.526  14.022
 1427SOL     OW 6112  11.037   2.905   5.177
 1427SOL    HW1 6113  11.128   2.878   5.160
 1427SOL    HW2 6114  10.991   2.885   5.096
 1428SOL     OW 6115  10.310  10.580   0.531
 1428SOL    HW1 6116  10.396  10.594   0.491
 1428SOL    HW2 6117  10.322  10.507   0.591
 1429SOL     OW 6118   5.827   9.026   1.599
 1429SOL    HW1 6119   5.734   9.016   1.617
 1429SOL    HW2 6120   5.851   8.946   1.552
 1430SOL     OW 6121  10.901   0.618   5.105
 1430SOL    HW1 6122  10.913   0.573   5.021
 1430SOL    HW2 6123  10.888   0.549   5.169
 1431SOL     OW 6124  11.050   6.069   4.778
 1431SOL    HW1 6125  10.986   6.019   4.727
 1431SOL    HW2 6126  11.102   6.115   4.712
 1432SOL     OW 6127   8.173   4.985   9.266
 1432SOL    HW1 6128   8.120   5.052   9.223
 1432SOL    HW2 6129   8.108   4.925   9.305
 1433SOL     OW 6130   9.892   6.776   1.627
 1433SOL    HW1 6131   9.810   6.741   1.660
 1433SOL    HW2 6132   9.934   6.703   1.582
 1434SOL     OW 6133  12.488   5.341  10.945
 1434SOL    HW1 6134  12.506   5.263  10.998
 1434SOL    HW2 6135  12.408   5.378  10.982
 1435SOL     OW 6136  10.997   6.637   4.450
 1435SOL    HW1 6137  10.951   6.611   4.531
 1435SOL    HW2 6138  11.019   6.729   4.464
 1436SOL     OW 6139  10.470   1.468   9.244
 1436SOL    HW1 6140  10.439   1.551   9.207
 1436SOL    HW2 6141  10.480   1.410   9.168
 1437SOL     OW 6142  12.935   0.622   4.792
 1437SOL    HW1 6143  13.029   0.609   4.803
 1437SOL    HW2 6144  12.895   0.554   4.846
 1438SOL     OW 6145   7.712  13.089   2.054
 1438SOL    HW1 6146   7.792  13.049   2.090
 1438SOL    HW2 6147   7.685  13.029   1.985
 1439SOL     OW 6148   7.200  10.797  14.870
 1439SOL    HW1 6149   7.232  10.864  14.810
 1439SOL    HW2 6150   7.159  10.731  14.813
 1440SOL     OW 6151  11.560  12.674   8.392
 1440SOL    HW1 6152  11.486  12.663   8.451
 1440SOL    HW2 6153  11.588  12.585   8.371
 1441SOL     OW 6154  13.554  14.772   9.099
 1441SOL    HW1 6155  13.562  14.677   9.090
 1441SOL    HW2 6156  13.617  14.808   9.037
 1442SOL     OW 6157   6.180  10.912  10.002
 1442SOL    HW1 6158   6.142  10.895  10.088
 1442SOL    HW2 6159   6.247  10.845   9.991
 1443SOL     OW 6160   1.426  14.419  14.558
 1443SOL    HW1 6161   1.481  14.368  14.498
 1443SOL    HW2 6162   1.337  14.393  14.536
 1444SOL     OW 6163   4.256   4.025   3.397
 1444SOL    HW1 6164   4.244   4.092   3.464
 1444SOL    HW2 6165   4.195   4.049   3.327
 1445SOL     OW 6166   5.434   0.985   3.294
 1445SOL    HW1 6167   5.402   0.961   3.381
 1445SOL    HW2 6168   5.357   0.983   3.239
 1446SOL     OW 6169   2.753   4.794  10.843
 1446SOL    HW1 6170   2.846   4.801  10.866
 1446SOL    HW2 6171   2.737   4.867  10.784
 1447SOL     OW 6172  12.668  11.366   9.556
 1447SOL    HW1 6173  12.619  11.305   9.612
 1447SOL    HW2 6174  12.678  11.319   9.473
 1448SOL     OW 6175  12.078   3.780  13.210
 1448SOL    HW1 6176  12.170   3.787  13.232
 1448SOL    HW2 6177  12.049   3.871  13.196
 1449SOL     OW 6178   5.745   5.538  13.083
 1449SOL    HW1 6179   5.686   5.606  13.051
 1449SOL    HW2 6180   5.818   5.538  13.021
 1450SOL     OW 6181   8.083   8.328   3.122
 1450SOL    HW1 6182   7.988   8.332   3.136
 1450SOL    HW2 6183   8.099   8.388   3.049
 1451SOL     OW 6184  12.589   9.787  10.793
 1451SOL    HW1 6185  12.625   9.868  10.757
 1451SOL    HW2 6186  12.495   9.793  10.776
 1452SOL     OW 6187  13.177   3.280   0.531
 1452SOL    HW1 6188  13.157   3.289   0.438
 1452SOL    HW2 6189  13.213   3.364   0.556
 1453SOL     OW 6190  10.797   7.053  13.377
 1453SOL    HW1 6191  10.767   6.992  13.445
 1453SOL    HW2 6192  10.722   7.062  13.318
 1454SOL     OW 6193   1.933  12.587   9.027
 1454SOL    HW1 6194   1.877  12.586   8.949
 1454SOL    HW2 6195   2.009  12.533   9.002
 1455SOL     OW 6196   2.938  10.048   6.651
 1455SOL    HW1 6197   2.864  10.078   6.598
 1455SOL    HW2 6198   2.930   9.953   6.651
 1456SOL     OW 6199   7.624   7.139   5.472
 1456SOL    HW1 6200   7.630   7.044   5.468
 1456SOL    HW2 6201   7.565   7.163   5.400
 1457SOL     OW 6202   0.736   8.467   8.654
 1457SOL    HW1 6203   0.645   8.498   8.650
 1457SOL    HW2 6204   0.768   8.475   8.565
 1458SOL     OW 6205   9.403  10.026  10.896
 1458SOL    HW1 6206   9.479  10.077  10.923
 1458SOL    HW2 6207   9.392  10.046  10.803
 1459SOL     OW 6208   3.225   7.653   1.092
 1459SOL    HW1 6209   3.155   7.691   1.039
 1459SOL    HW2 6210   3.184   7.635   1.177
 1460SOL     OW 6211  10.272   9.332   0.174
 1460SOL    HW1 6212  10.313   9.252   0.140
 1460SOL    HW2 6213  10.326   9.357   0.249
 1461SOL     OW 6214   1.421   6.737   4.302
 1461SOL    HW1 6215   1.469   6.796   4.244
 1461SOL    HW2 6216   1.337   6.780   4.318
 1462SOL     OW 6217  12.212  13.322   4.652
 1462SOL    HW1 6218  12.126  13.287   4.677
 1462SOL    HW2 6219  12.214  13.410   4.689
 1463SOL     OW 6220   5.108  14.287   5.303
 1463SOL    HW1 6221   5.098  14.257   5.212
 1463SOL    HW2 6222   5.063  14.220   5.355
 1464SOL     OW 6223   4.294   5.526  10.263
 1464SOL    HW1 6224   4.344   5.576  10.327
 1464SOL    HW2 6225   4.227   5.587  10.233
 1465SOL     OW 6226   5.877   9.868   0.804
 1465SOL    HW1 6227   5.957   9.829   0.840
 1465SOL    HW2 6228   5.880   9.847   0.711
 1466SOL     OW 6229   2.223   0.636   4.542
 1466SOL    HW1 6230   2.302   0.689   4.548
 1466SOL    HW2 6231   2.253   0.552   4.507
 1467SOL     OW 6232   1.877   4.923  13.747
 1467SOL    HW1 6233   1.943   4.906  13.814
 1467SOL    HW2 6234   1.796   4.940  13.796
 1468SOL     OW 6235  11.052   8.736  13.246
 1468SOL    HW1 6236  11.126   8.750  13.186
 1468SOL    HW2 6237  11.068   8.650  13.284
 1469SOL     OW 6238   2.375  11.940  11.077
 1469SOL    HW1 6239   2.401  11.922  10.987
 1469SOL    HW2 6240   2.283  11.965  11.071
 1470SOL     OW 6241  14.803   7.687   3.464
 1470SOL    HW1 6242  14.834   7.678   3.374
 1470SOL    HW2 6243  14.775   7.599   3.489
 1471SOL     OW 6244   9.013  14.079   3.005
 1471SOL    HW1 6245   9.018  14.067   2.911
 1471SOL    HW2 6246   9.104  14.074   3.035
 1472SOL     OW 6247   9.756  14.591   9.320
 1472SOL    HW1 6248   9.714  14.514   9.283
 1472SOL    HW2 6249   9.846  14.564   9.338
 1473SOL     OW 6250   7.375   5.103   2.473
 1473SOL    HW1 6251   7.394   5.057   2.391
 1473SOL    HW2 6252   7.448   5.080   2.531
 1474SOL     OW 6253   8.195  14.345  13.268
 1474SOL    HW1 6254   8.237  14.355  13.183
 1474SOL    HW2 6255   8.115  14.296  13.250
 1475SOL     OW 6256   3.650  13.459  11.322
 1475SOL    HW1 6257   3.743  13.437  11.333
 1475SOL    HW2 6258   3.650  13.544  11.280
 1476SOL     OW 6259   9.670   4.969   0.294
 1476SOL    HW1 6260   9.630   4.897   0.246
 1476SOL    HW2 6261   9.742   4.999   0.239
 1477SOL     OW 6262  13.197   0.283   9.028
 1477SOL    HW1 6263  13.256   0.211   9.049
 1477SOL    HW2 6264  13.190   0.333   9.109
 1478SOL     OW 6265   2.576   0.482   0.941
 1478SOL    HW1 6266   2.636   0.408   0.939
 1478SOL    HW2 6267   2.623   0.552   0.895
 1479SOL     OW 6268  12.833   0.083  11.561
 1479SOL    HW1 6269  12.925   0.106  11.578
 1479SOL    HW2 6270  12.783   0.144  11.615
 1480SOL     OW 6271   8.841   5.185  11.407
 1480SOL    HW1 6272   8.809   5.176  11.317
 1480SOL    HW2 6273   8.789   5.122  11.457
 1481SOL     OW 6274   0.454   6.708   4.043
 1481SOL    HW1 6275   0.411   6.727   3.960
 1481SOL    HW2 6276   0.520   6.642   4.022
 1482SOL     OW 6277  13.293  13.468  11.639
 1482SOL    HW1 6278  13.354  13.396  11.655
 1482SOL    HW2 6279  13.275  13.465  11.545
 1483SOL     OW 6280   6.000   3.112   8.626
 1483SOL    HW1 6281   6.051   3.178   8.577
 1483SOL    HW2 6282   5.979   3.155   8.709
 1484SOL     OW 6283  13.250  10.317  10.424
 1484SOL    HW1 6284  13.219  10.360  10.344
 1484SOL    HW2 6285  13.190  10.346  10.492
 1485SOL     OW 6286   1.394   3.672  14.746
 1485SOL    HW1 6287   1.476   3.689  14.794
 1485SOL    HW2 6288   1.401   3.728  14.668
 1486SOL     OW 6289  12.133  14.613   6.263
 1486SOL    HW1 6290  12.184  14.563   6.326
 1486SOL    HW2 6291  12.044  14.612   6.298
 1487SOL     OW 6292  13.534   5.271  11.990
 1487SOL    HW1 6293  13.610   5.303  12.039
 1487SOL    HW2 6294  13.525   5.333  11.917
 1488SOL     OW 6295   4.180   9.157   3.080
 1488SOL    HW1 6296   4.152   9.234   3.130
 1488SOL    HW2 6297   4.229   9.104   3.142
 1489SOL     OW 6298   5.499   1.911   3.990
 1489SOL    HW1 6299   5.572   1.968   4.016
 1489SOL    HW2 6300   5.438   1.969   3.944
 1490SOL     OW 6301  14.440   9.087  11.730
 1490SOL    HW1 6302  14.508   9.057  11.791
 1490SOL    HW2 6303  14.485   9.093  11.646
 1491SOL     OW 6304   8.799  14.422   9.884
 1491SOL    HW1 6305   8.886  14.438   9.845
 1491SOL    HW2 6306   8.808  14.338   9.929
 1492SOL     OW 6307   1.028   3.687  13.476
 1492SOL    HW1 6308   0.974   3.671  13.399
 1492SOL    HW2 6309   1.117   3.698  13.441
 1493SOL     OW 6310  10.199   6.270   4.289
 1493SOL    HW1 6311  10.204   6.252   4.195
 1493SOL    HW2 6312  10.106   6.289   4.304
 1494SOL     OW 6313   6.554   1.947  13.033
 1494SOL    HW1 6314   6.462   1.921  13.033
 1494SOL    HW2 6315   6.552   2.043  13.032
 1495SOL     OW 6316  10.044  12.989   8.958
 1495SOL    HW1 6317  10.012  13.077   8.939
 1495SOL    HW2 6318  10.086  12.960   8.877
 1496SOL     OW 6319   6.946  13.547   5.388
 1496SOL    HW1 6320   6.925  13.462   5.426
 1496SOL    HW2 6321   6.865  13.598   5.397
 1497SOL     OW 6322   1.829   2.175   3.601
 1497SOL    HW1 6323   1.740   2.209   3.606
 1497SOL    HW2 6324   1.864   2.185   3.689
 1498SOL     OW 6325  10.380  10.901   2.484
 1498SOL    HW1 6326  10.327  10.980   2.489
 1498SOL    HW2 6327  10.377  10.865   2.573
 1499SOL     OW 6328   3.006  11.337   0.711
 1499SOL    HW1 6329   2.950  11.314   0.637
 1499SOL    HW2 6330   3.046  11.420   0.687
 1500SOL     OW 6331   0.487   1.825   7.394
 1500SOL    HW1 6332   0.417   1.818   7.458
 1500SOL    HW2 6333   0.542   1.897   7.427
 1501SOL     OW 6334   8.766   5.966   9.705
 1501SOL    HW1 6335   8.856   5.981   9.733
 1501SOL    HW2 6336   8.759   6.009   9.620
 1502SOL     OW 6337  12.334  10.433   2.661
 1502SOL    HW1 6338  12.337  10.442   2.565
 1502SOL    HW2 6339  12.271  10.363   2.677
 1503SOL     OW 6340   0.890  10.534   2.669
 1503SOL    HW1 6341   0.954  10.581   2.723
 1503SOL    HW2 6342   0.892  10.445   2.702
 1504SOL     OW 6343   8.911   7.587   9.669
 1504SOL    HW1 6344   8.952   7.571   9.754
 1504SOL    HW2 6345   8.981   7.624   9.615
 1505SOL     OW 6346  11.660   4.014  10.838
 1505SOL    HW1 6347  11.643   4.067  10.760
 1505SOL    HW2 6348  11.755   4.006  10.841
 1506SOL     OW 6349   3.351   6.071  14.690
 1506SOL    HW1 6350   3.337   6.033  14.777
 1506SOL    HW2 6351   3.431   6.122  14.699
 1507SOL     OW 6352   6.931  13.274   7.113
 1507SOL    HW1 6353   6.963  13.286   7.203
 1507SOL    HW2 6354   6.846  13.318   7.111
 1508SOL     OW 6355   0.440  10.470   6.878
 1508SOL    HW1 6356   0.410  10.508   6.796
 1508SOL    HW2 6357   0.404  10.528   6.946
 1509SOL     OW 6358  12.063   1.691   7.595
 1509SOL    HW1 6359  12.066   1.597   7.578
 1509SOL    HW2 6360  12.094   1.700   7.685
 1510SOL     OW 6361  11.774   6.960   6.203
 1510SOL    HW1 6362  11.817   6.901   6.265
 1510SOL    HW2 6363  11.685   6.970   6.237
 1511SOL     OW 6364  10.466   1.304   1.541
 1511SOL    HW1 6365  10.486   1.230   1.598
 1511SOL    HW2 6366  10.550   1.324   1.498
 1512SOL     OW 6367   3.063   0.031   4.024
 1512SOL    HW1 6368   3.067   0.061   3.934
 1512SOL    HW2 6369   3.095   0.105   4.076
 1513SOL     OW 6370   6.357   3.448   8.260
 1513SOL    HW1 6371   6.370   3.379   8.196
 1513SOL    HW2 6372   6.436   3.501   8.254
 1514SOL     OW 6373   5.451   7.746   3.167
 1514SOL    HW1 6374   5.455   7.829   3.216
 1514SOL    HW2 6375   5.388   7.763   3.096
 1515SOL     OW 6376  11.474  10.107   3.567
 1515SOL    HW1 6377  11.479  10.199   3.594
 1515SOL    HW2 6378  11.409  10.107   3.496
 1516SOL     OW 6379   6.992   1.142   8.407
 1516SOL    HW1 6380   6.912   1.096   8.382
 1516SOL    HW2 6381   7.058   1.113   8.343
 1517SOL     OW 6382   3.283   9.225  14.535
 1517SOL    HW1 6383   3.227   9.263  14.468
 1517SOL    HW2 6384   3.243   9.139  14.553
 1518SOL     OW 6385   6.121   9.114   2.879
 1518SOL    HW1 6386   6.206   9.148   2.850
 1518SOL    HW2 6387   6.107   9.153   2.965
 1519SOL     OW 6388   7.233  10.435   1.464
 1519SOL    HW1 6389   7.262  10.359   1.514
 1519SOL    HW2 6390   7.256  10.510   1.518
 1520SOL     OW 6391  13.594   7.507   6.619
 1520SOL    HW1 6392  13.556   7.496   6.532
 1520SOL    HW2 6393  13.553   7.586   6.653
 1521SOL     OW 6394   2.204   2.181   7.712
 1521SOL    HW1 6395   2.121   2.221   7.685
 1521SOL    HW2 6396   2.266   2.205   7.643
 1522SOL     OW 6397  10.585   1.830   4.093
 1522SOL    HW1 6398  10.637   1.800   4.167
 1522SOL    HW2 6399  10.639   1.812   4.016
 1523SOL     OW 6400   6.242   9.295   2.268
 1523SOL    HW1 6401   6.184   9.371   2.259
 1523SOL    HW2 6402   6.236   9.250   2.184
 1524SOL     OW 6403  12.767   7.834   6.752
 1524SOL    HW1 6404  12.789   7.925   6.772
 1524SOL    HW2 6405  12.679   7.823   6.786
 1525SOL     OW 6406   3.698   3.403   6.118
 1525SOL    HW1 6407   3.620   3.441   6.159
 1525SOL    HW2 6408   3.730   3.340   6.182
 1526SOL     OW 6409   9.297   3.136  10.603
 1526SOL    HW1 6410   9.211   3.097  10.590
 1526SOL    HW2 6411   9.322   3.169  10.517
 1527SOL     OW 6412   0.408   6.219   8.462
 1527SOL    HW1 6413   0.456   6.151   8.415
 1527SOL    HW2 6414   0.356   6.172   8.527
 1528SOL     OW 6415   8.798   8.074   4.405
 1528SOL    HW1 6416   8.743   8.071   4.484
 1528SOL    HW2 6417   8.786   8.163   4.372
 1529SOL     OW 6418  11.606   3.544  12.804
 1529SOL    HW1 6419  11.536   3.606  12.827
 1529SOL    HW2 6420  11.580   3.462  12.847
 1530SOL     OW 6421   3.671   0.761  11.470
 1530SOL    HW1 6422   3.713   0.785  11.552
 1530SOL    HW2 6423   3.691   0.669  11.457
 1531SOL     OW 6424   4.064  12.329   8.209
 1531SOL    HW1 6425   4.012  12.370   8.279
 1531SOL    HW2 6426   4.154  12.349   8.232
 1532SOL     OW 6427   0.440   6.868   4.922
 1532SOL    HW1 6428   0.492   6.919   4.984
 1532SOL    HW2 6429   0.501   6.843   4.853
 1533SOL     OW 6430  11.463   8.740   0.489
 1533SOL    HW1 6431  11.396   8.787   0.439
 1533SOL    HW2 6432  11.516   8.697   0.422
 1534SOL     OW 6433  11.792   4.379  13.238
 1534SOL    HW1 6434  11.841   4.303  13.270
 1534SOL    HW2 6435  11.854   4.452  13.246
 1535SOL     OW 6436  10.265  10.080   2.037
 1535SOL    HW1 6437  10.297  10.130   2.112
 1535SOL    HW2 6438  10.199  10.021   2.074
 1536SOL     OW 6439   0.549   2.019   7.590
 1536SOL    HW1 6440   0.486   2.089   7.609
 1536SOL    HW2 6441   0.571   1.983   7.675
 1537SOL     OW 6442   1.893  12.228   8.021
 1537SOL    HW1 6443   1.908  12.302   7.961
 1537SOL    HW2 6444   1.798  12.227   8.033
 1538SOL     OW 6445   0.317   6.963  10.681
 1538SOL    HW1 6446   0.236   6.939  10.726
 1538SOL    HW2 6447   0.351   6.881  10.646
 1539SOL     OW 6448  11.768   7.907   4.841
 1539SOL    HW1 6449  11.693   7.920   4.900
 1539SOL    HW2 6450  11.753   7.821   4.802
 1540SOL     OW 6451  14.779   9.084   5.862
 1540SOL    HW1 6452  14.691   9.120   5.870
 1540SOL    HW2 6453  14.791   9.032   5.941
 1541SOL     OW 6454   7.284   0.514   5.459
 1541SOL    HW1 6455   7.302   0.423   5.483
 1541SOL    HW2 6456   7.252   0.555   5.540
 1542SOL     OW 6457  10.155   7.688   6.482
 1542SOL    HW1 6458  10.186   7.682   6.391
 1542SOL    HW2 6459  10.060   7.675   6.475
 1543SOL     OW 6460  10.057   8.149  13.371
 1543SOL    HW1 6461  10.083   8.221  13.314
 1543SOL    HW2 6462   9.987   8.186  13.425
 1544SOL     OW 6463   4.121  10.523  12.444
 1544SOL    HW1 6464   4.036  10.531  12.486
 1544SOL    HW2 6465   4.181  10.574  12.499
 1545SOL     OW 6466  12.028  11.144   6.665
 1545SOL    HW1 6467  12.103  11.095   6.631
 1545SOL    HW2 6468  12.055  11.175   6.751
 1546SOL     OW 6469  14.858  11.635   0.901
 1546SOL    HW1 6470   0.044  11.671   0.838
 1546SOL    HW2 6471  14.789  11.701   0.907
 1547SOL     OW 6472  10.404   9.057   7.242
 1547SOL    HW1 6473  10.347   8.986   7.212
 1547SOL    HW2 6474  10.344   9.124   7.276
 1548SOL     OW 6475   3.663  14.583   3.519
 1548SOL    HW1 6476   3.644  14.617   3.607
 1548SOL    HW2 6477   3.662  14.661   3.463
 1549SOL     OW 6478   4.940  13.348   7.532
 1549SOL    HW1 6479   4.861  13.314   7.575
 1549SOL    HW2 6480   4.908  13.387   7.451
 1550SOL     OW 6481   2.072   1.883   4.719
 1550SOL    HW1 6482   1.976   1.880   4.715
 1550SOL    HW2 6483   2.092   1.969   4.754
 1551SOL     OW 6484   8.153   3.512   9.526
 1551SOL    HW1 6485   8.163   3.491   9.619
 1551SOL    HW2 6486   8.238   3.546   9.500
 1552SOL     OW 6487   1.500  13.096   2.073
 1552SOL    HW1 6488   1.447  13.172   2.098
 1552SOL    HW2 6489   1.485  13.087   1.979
 1553SOL     OW 6490  12.793   0.829   2.280
 1553SOL    HW1 6491  12.829   0.740   2.271
 1553SOL    HW2 6492  12.698   0.817   2.273
 1554SOL     OW 6493   3.801   6.567   2.281
 1554SOL    HW1 6494   3.808   6.481   2.238
 1554SOL    HW2 6495   3.876   6.616   2.249
 1555SOL     OW 6496   4.890  11.821  13.657
 1555SOL    HW1 6497   4.795  11.826  13.650
 1555SOL    HW2 6498   4.922  11.866  13.579
 1556SOL     OW 6499   1.373  14.429   2.392
 1556SOL    HW1 6500   1.428  14.352   2.401
 1556SOL    HW2 6501   1.318  14.410   2.316
 1557SOL     OW 6502   9.621  14.838   2.594
 1557SOL    HW1 6503   9.591   0.044   2.633
 1557SOL    HW2 6504   9.703  14.819   2.639
 1558SOL     OW 6505   2.537   6.181   5.323
 1558SOL    HW1 6506   2.481   6.111   5.357
 1558SOL    HW2 6507   2.613   6.181   5.381
 1559SOL     OW 6508  11.464  10.814   1.149
 1559SOL    HW1 6509  11.482  10.901   1.114
 1559SOL    HW2 6510  11.508  10.754   1.088
 1560SOL     OW 6511   9.321   2.870   0.264
 1560SOL    HW1 6512   9.228   2.892   0.271
 1560SOL    HW2 6513   9.352   2.866   0.354
 1561SOL     OW 6514   8.452  10.199  10.976
 1561SOL    HW1 6515   8.515  10.136  10.942
 1561SOL    HW2 6516   8.426  10.163  11.061
 1562SOL     OW 6517   3.553   8.272   2.393
 1562SOL    HW1 6518   3.511   8.186   2.389
 1562SOL    HW2 6519   3.641   8.253   2.427
 1563SOL     OW 6520  12.716   2.534  11.423
 1563SOL    HW1 6521  12.784   2.537  11.355
 1563SOL    HW2 6522  12.683   2.624  11.427
 1564SOL     OW 6523  10.553   7.708   2.724
 1564SOL    HW1 6524  10.517   7.672   2.805
 1564SOL    HW2 6525  10.620   7.770   2.753
 1565SOL     OW 6526   1.634   6.825   1.367
 1565SOL    HW1 6527   1.681   6.757   1.414
 1565SOL    HW2 6528   1.560   6.846   1.424
 1566SOL     OW 6529   9.595   6.242  12.718
 1566SOL    HW1 6530   9.654   6.224  12.644
 1566SOL    HW2 6531   9.519   6.186  12.702
 1567SOL     OW 6532  11.118   6.812  10.786
 1567SOL    HW1 6533  11.158   6.768  10.711
 1567SOL    HW2 6534  11.043   6.859  10.748
 1568SOL     OW 6535  14.623  10.829  14.060
 1568SOL    HW1 6536  14.643  10.902  14.118
 1568SOL    HW2 6537  14.578  10.869  13.985
 1569SOL     OW 6538  14.520   0.716   1.783
 1569SOL    HW1 6539  14.474   0.758   1.711
 1569SOL    HW2 6540  14.451   0.698   1.847
 1570SOL     OW 6541   9.904  10.664  10.001
 1570SOL    HW1 6542   9.971  10.732   9.995
 1570SOL    HW2 6543   9.823  10.709   9.976
 1571SOL     OW 6544  12.949  10.292  11.992
 1571SOL    HW1 6545  12.891  10.367  11.997
 1571SOL    HW2 6546  12.968  10.271  12.084
 1572SOL     OW 6547   0.427  11.319  12.181
 1572SOL    HW1 6548   0.466  11.232  12.177
 1572SOL    HW2 6549   0.381  11.322  12.264
 1573SOL     OW 6550   6.762  13.998   9.346
 1573SOL    HW1 6551   6.710  13.935   9.296
 1573SOL    HW2 6552   6.852  13.970   9.332
 1574SOL     OW 6553   2.368   1.843  12.724
 1574SOL    HW1 6554   2.284   1.882  12.698
 1574SOL    HW2 6555   2.345   1.776  12.788
 1575SOL     OW 6556   2.887   8.533   3.791
 1575SOL    HW1 6557   2.834   8.612   3.804
 1575SOL    HW2 6558   2.887   8.491   3.877
 1576SOL     OW 6559   4.677   8.015   1.300
 1576SOL    HW1 6560   4.772   8.025   1.288
 1576SOL    HW2 6561   4.668   7.969   1.383
 1577SOL     OW 6562   9.451  12.498   8.227
 1577SOL    HW1 6563   9.456  12.479   8.133
 1577SOL    HW2 6564   9.457  12.593   8.233
 1578SOL     OW 6565   5.552   0.009   4.535
 1578SOL    HW1 6566   5.630   0.049   4.572
 1578SOL    HW2 6567   5.585  14.821   4.471
 1579SOL     OW 6568   2.719  11.434   3.438
 1579SOL    HW1 6569   2.649  11.477   3.487
 1579SOL    HW2 6570   2.679  11.353   3.405
 1580SOL     OW 6571  11.315   3.690   6.664
 1580SOL    HW1 6572  11.344   3.607   6.627
 1580SOL    HW2 6573  11.290   3.669   6.754
 1581SOL     OW 6574   4.202  14.334  13.624
 1581SOL    HW1 6575   4.286  14.345  13.668
 1581SOL    HW2 6576   4.145  14.295  13.690
 1582SOL     OW 6577  12.945   7.498   1.966
 1582SOL    HW1 6578  12.913   7.450   1.889
 1582SOL    HW2 6579  13.030   7.532   1.939
 1583SOL     OW 6580   7.817  10.901   7.819
 1583SOL    HW1 6581   7.829  10.979   7.873
 1583SOL    HW2 6582   7.722  10.886   7.820
 1584SOL     OW 6583  11.608   0.191   0.362
 1584SOL    HW1 6584  11.696   0.190   0.327
 1584SOL    HW2 6585  11.608   0.124   0.431
 1585SOL     OW 6586   3.808   3.000  10.182
 1585SOL    HW1 6587   3.762   3.064  10.128
 1585SOL    HW2 6588   3.762   2.917  10.167
 1586SOL     OW 6589   2.849   4.769   4.544
 1586SOL    HW1 6590   2.889   4.709   4.607
 1586SOL    HW2 6591   2.807   4.836   4.598
 1587SOL     OW 6592   7.085   6.640   3.998
 1587SOL    HW1 6593   7.136   6.716   3.970
 1587SOL    HW2 6594   7.027   6.621   3.924
 1588SOL     OW 6595   5.525  10.364   4.122
 1588SOL    HW1 6596   5.442  10.379   4.076
 1588SOL    HW2 6597   5.518  10.420   4.200
 1589SOL     OW 6598   3.039   6.815   5.467
 1589SOL    HW1 6599   3.134   6.804   5.465
 1589SOL    HW2 6600   3.027   6.903   5.502
 1590SOL     OW 6601  12.485   0.770  10.589
 1590SOL    HW1 6602  12.512   0.856  10.621
 1590SOL    HW2 6603  12.507   0.770  10.496
 1591SOL     OW 6604  14.188   9.474   1.523
 1591SOL    HW1 6605  14.274   9.433   1.511
 1591SOL    HW2 6606  14.148   9.471   1.435
 1592SOL     OW 6607   3.563   7.776   5.062
 1592SOL    HW1 6608   3.633   7.836   5.034
 1592SOL    HW2 6609   3.559   7.710   4.993
 1593SOL     OW 6610   7.646   6.008  12.058
 1593SOL    HW1 6611   7.603   6.056  11.988
 1593SOL    HW2 6612   7.583   5.941  12.083
 1594SOL     OW 6613   7.651   1.795  11.758
 1594SOL    HW1 6614   7.556   1.802  11.757
 1594SOL    HW2 6615   7.673   1.756  11.674
 1595SOL     OW 6616   8.582  11.087  12.389
 1595SOL    HW1 6617   8.643  11.058  12.457
 1595SOL    HW2 6618   8.531  11.156  12.431
 1596SOL     OW 6619  11.053   5.590  11.796
 1596SOL    HW1 6620  11.071   5.683  11.805
 1596SOL    HW2 6621  10.966   5.579  11.832
 1597SOL     OW 6622  10.906   7.734   7.580
 1597SOL    HW1 6623  11.002   7.732   7.579
 1597SOL    HW2 6624  10.880   7.649   7.614
 1598SOL     OW 6625   9.548  13.798   0.142
 1598SOL    HW1 6626   9.588  13.717   0.173
 1598SOL    HW2 6627   9.610  13.866   0.165
 1599SOL     OW 6628   7.738   7.975  10.206
 1599SOL    HW1 6629   7.777   7.897  10.167
 1599SOL    HW2 6630   7.727   7.954  10.298
 1600SOL     OW 6631  12.939  13.982  10.331
 1600SOL    HW1 6632  13.034  13.982  10.322
 1600SOL    HW2 6633  12.917  13.894  10.360
 1601SOL     OW 6634   9.505  11.624   9.456
 1601SOL    HW1 6635   9.488  11.589   9.543
 1601SOL    HW2 6636   9.450  11.571   9.398
 1602SOL     OW 6637   6.888   4.606   7.335
 1602SOL    HW1 6638   6.852   4.573   7.417
 1602SOL    HW2 6639   6.866   4.539   7.270
 1603SOL     OW 6640   1.140   2.498  12.047
 1603SOL    HW1 6641   1.226   2.473  12.082
 1603SOL    HW2 6642   1.088   2.521  12.124
 1604SOL     OW 6643   5.158   4.475   7.068
 1604SOL    HW1 6644   5.252   4.457   7.063
 1604SOL    HW2 6645   5.121   4.396   7.106
 1605SOL     OW 6646  13.882   8.082   1.725
 1605SOL    HW1 6647  13.908   7.991   1.713
 1605SOL    HW2 6648  13.844   8.084   1.813
 1606SOL     OW 6649   7.103  11.501   8.698
 1606SOL    HW1 6650   7.036  11.458   8.644
 1606SOL    HW2 6651   7.143  11.430   8.747
 1607SOL     OW 6652   9.533   1.382   2.264
 1607SOL    HW1 6653   9.533   1.478   2.261
 1607SOL    HW2 6654   9.440   1.358   2.260
 1608SOL     OW 6655  12.186   2.383   6.498
 1608SOL    HW1 6656  12.181   2.450   6.566
 1608SOL    HW2 6657  12.150   2.304   6.539
 1609SOL     OW 6658   4.403   7.309   2.635
 1609SOL    HW1 6659   4.473   7.298   2.699
 1609SOL    HW2 6660   4.322   7.291   2.683
 1610SOL     OW 6661  12.047  11.854   2.241
 1610SOL    HW1 6662  12.007  11.917   2.300
 1610SOL    HW2 6663  12.075  11.782   2.298
 1611SOL     OW 6664   1.742  12.205  11.514
 1611SOL    HW1 6665   1.720  12.131  11.458
 1611SOL    HW2 6666   1.826  12.236  11.482
 1612SOL     OW 6667   2.355   2.875   5.773
 1612SOL    HW1 6668   2.355   2.897   5.680
 1612SOL    HW2 6669   2.382   2.783   5.776
 1613SOL     OW 6670   9.382  13.935   5.079
 1613SOL    HW1 6671   9.365  13.913   4.987
 1613SOL    HW2 6672   9.473  13.907   5.094
 1614SOL     OW 6673   0.482   5.443   7.030
 1614SOL    HW1 6674   0.551   5.510   7.033
 1614SOL    HW2 6675   0.530   5.360   7.028
 1615SOL     OW 6676   7.949  14.212  13.157
 1615SOL    HW1 6677   7.920  14.179  13.072
 1615SOL    HW2 6678   7.902  14.159  13.221
 1616SOL     OW 6679  13.492   0.831   6.455
 1616SOL    HW1 6680  13.466   0.859   6.543
 1616SOL    HW2 6681  13.424   0.867   6.398
 1617SOL     OW 6682  14.486   1.925   8.689
 1617SOL    HW1 6683  14.482   1.996   8.753
 1617SOL    HW2 6684  14.449   1.849   8.734
 1618SOL     OW 6685   9.058  10.252   3.065
 1618SOL    HW1 6686   9.004  10.215   2.996
 1618SOL    HW2 6687   9.013  10.226   3.146
 1619SOL     OW 6688   5.828   2.415   3.798
 1619SOL    HW1 6689   5.867   2.393   3.714
 1619SOL    HW2 6690   5.780   2.496   3.782
 1620SOL     OW 6691   2.163   0.537  14.324
 1620SOL    HW1 6692   2.227   0.608  14.313
 1620SOL    HW2 6693   2.165   0.490  14.241
 1621SOL     OW 6694  12.634  11.703   5.470
 1621SOL    HW1 6695  12.695  11.633   5.492
 1621SOL    HW2 6696  12.685  11.783   5.485
 1622SOL     OW 6697   1.586   7.421   2.973
 1622SOL    HW1 6698   1.516   7.411   2.909
 1622SOL    HW2 6699   1.560   7.496   3.026
 1623SOL     OW 6700  10.799   8.214   0.259
 1623SOL    HW1 6701  10.733   8.175   0.201
 1623SOL    HW2 6702  10.753   8.232   0.340
 1624SOL     OW 6703   4.009   2.498   1.629
 1624SOL    HW1 6704   3.949   2.511   1.555
 1624SOL    HW2 6705   3.961   2.439   1.688
 1625SOL     OW 6706   5.309   8.076  12.239
 1625SOL    HW1 6707   5.282   7.984  12.234
 1625SOL    HW2 6708   5.388   8.075  12.293
 1626SOL     OW 6709   5.418  12.913   5.158
 1626SOL    HW1 6710   5.429  12.951   5.245
 1626SOL    HW2 6711   5.479  12.962   5.103
 1627SOL     OW 6712   6.585   1.593   5.583
 1627SOL    HW1 6713   6.526   1.613   5.655
 1627SOL    HW2 6714   6.645   1.668   5.579
 1628SOL     OW 6715  10.902  13.128   1.635
 1628SOL    HW1 6716  10.997  13.127   1.643
 1628SOL    HW2 6717  10.872  13.170   1.716
 1629SOL     OW 6718   4.381   7.482   3.884
 1629SOL    HW1 6719   4.321   7.543   3.841
 1629SOL    HW2 6720   4.371   7.501   3.977
 1630SOL     OW 6721  12.057   2.403  13.070
 1630SOL    HW1 6722  12.003   2.474  13.105
 1630SOL    HW2 6723  11.995   2.334  13.048
 1631SOL     OW 6724   4.504  11.046  11.725
 1631SOL    HW1 6725   4.449  11.109  11.679
 1631SOL    HW2 6726   4.443  10.981  11.759
 1632SOL     OW 6727   2.790   1.033   6.223
 1632SOL    HW1 6728   2.753   0.951   6.257
 1632SOL    HW2 6729   2.730   1.101   6.253
 1633SOL     OW 6730   6.970  12.552   8.222
 1633SOL    HW1 6731   6.982  12.616   8.292
 1633SOL    HW2 6732   7.039  12.487   8.237
 1634SOL     OW 6733   9.201   7.781   9.320
 1634SOL    HW1 6734   9.259   7.801   9.247
 1634SOL    HW2 6735   9.147   7.709   9.289
 1635SOL     OW 6736  13.270   1.039   7.569
 1635SOL    HW1 6737  13.363   1.052   7.549
 1635SOL    HW2 6738  13.268   1.025   7.664
 1636SOL     OW 6739   0.162  13.123   5.471
 1636SOL    HW1 6740   0.083  13.127   5.525
 1636SOL    HW2 6741   0.234  13.120   5.534
 1637SOL     OW 6742   8.178   2.379   9.103
 1637SOL    HW1 6743   8.230   2.424   9.037
 1637SOL    HW2 6744   8.112   2.332   9.052
 1638SOL     OW 6745  12.676   8.563   8.911
 1638SOL    HW1 6746  12.599   8.507   8.916
 1638SOL    HW2 6747  12.680   8.591   8.819
 1639SOL     OW 6748  13.829   8.362   2.313
 1639SOL    HW1 6749  13.761   8.427   2.331
 1639SOL    HW2 6750  13.814   8.336   2.222
 1640SOL     OW 6751  12.623  13.847   6.757
 1640SOL    HW1 6752  12.577  13.902   6.693
 1640SOL    HW2 6753  12.714  13.848   6.729
 1641SOL     OW 6754   0.987   9.787  14.380
 1641SOL    HW1 6755   0.966   9.693  14.383
 1641SOL    HW2 6756   1.058   9.797  14.444
 1642SOL     OW 6757   2.952   8.385   4.056
 1642SOL    HW1 6758   2.888   8.414   4.121
 1642SOL    HW2 6759   3.016   8.456   4.052
 1643SOL     OW 6760  10.178  14.388   1.842
 1643SOL    HW1 6761  10.149  14.468   1.886
 1643SOL    HW2 6762  10.097  14.341   1.822
 1644SOL     OW 6763  13.865   0.326   0.833
 1644SOL    HW1 6764  13.777   0.342   0.866
 1644SOL    HW2 6765  13.860   0.240   0.790
 1645SOL     OW 6766   2.715   1.106   1.747
 1645SOL    HW1 6767   2.785   1.040   1.745
 1645SOL    HW2 6768   2.635   1.055   1.757
 1646SOL     OW 6769   7.923   8.449  13.952
 1646SOL    HW1 6770   7.905   8.503  14.030
 1646SOL    HW2 6771   7.855   8.474  13.890
 1647SOL     OW 6772  13.356   5.944   8.555
 1647SOL    HW1 6773  13.283   5.960   8.614
 1647SOL    HW2 6774  13.432   5.980   8.600
 1648SOL     OW 6775  13.896   3.379  10.221
 1648SOL    HW1 6776  13.870   3.297  10.179
 1648SOL    HW2 6777  13.972   3.356  10.274
 1649SOL     OW 6778  14.789   3.396  11.302
 1649SOL    HW1 6779  14.814   3.468  11.361
 1649SOL    HW2 6780  14.864   3.336  11.305
 1650SOL     OW 6781   2.036   7.776  11.215
 1650SOL    HW1 6782   2.104   7.761  11.280
 1650SOL    HW2 6783   1.954   7.776  11.266
 1651SOL     OW 6784   0.048   0.080   4.674
 1651SOL    HW1 6785  14.872   0.108   4.749
 1651SOL    HW2 6786  14.867   0.017   4.628
 1652SOL     OW 6787   6.614   8.092   2.458
 1652SOL    HW1 6788   6.644   8.141   2.381
 1652SOL    HW2 6789   6.559   8.023   2.422
 1653SOL     OW 6790   3.038   6.141  13.653
 1653SOL    HW1 6791   3.087   6.112  13.730
 1653SOL    HW2 6792   3.071   6.086  13.581
 1654SOL     OW 6793   1.418  10.474   4.649
 1654SOL    HW1 6794   1.361  10.468   4.726
 1654SOL    HW2 6795   1.363  10.513   4.581
 1655SOL     OW 6796   7.903   1.764  11.825
 1655SOL    HW1 6797   7.811   1.785  11.835
 1655SOL    HW2 6798   7.910   1.722  11.739
 1656SOL     OW 6799  14.631   0.564  13.725
 1656SOL    HW1 6800  14.687   0.585  13.650
 1656SOL    HW2 6801  14.564   0.633  13.725
 1657SOL     OW 6802   2.602   4.315   6.645
 1657SOL    HW1 6803   2.693   4.321   6.617
 1657SOL    HW2 6804   2.553   4.367   6.581
 1658SOL     OW 6805   6.390  11.234   6.275
 1658SOL    HW1 6806   6.379  11.315   6.225
 1658SOL    HW2 6807   6.475  11.200   6.246
 1659SOL     OW 6808   5.225  13.236   4.687
 1659SOL    HW1 6809   5.132  13.251   4.701
 1659SOL    HW2 6810   5.240  13.255   4.595
 1660SOL     OW 6811   3.952  12.406   9.162
 1660SOL    HW1 6812   4.029  12.351   9.175
 1660SOL    HW2 6813   3.882  12.364   9.211
 1661SOL     OW 6814   7.598   7.400  14.374
 1661SOL    HW1 6815   7.663   7.354  14.427
 1661SOL    HW2 6816   7.648   7.439  14.303
 1662SOL     OW 6817   0.294   3.252   6.163
 1662SOL    HW1 6818   0.307   3.304   6.243
 1662SOL    HW2 6819   0.219   3.292   6.120
 1663SOL     OW 6820  12.298  10.638   9.194
 1663SOL    HW1 6821  12.281  10.621   9.287
 1663SOL    HW2 6822  12.393  10.642   9.188
 1664SOL     OW 6823   6.434   7.191   5.270
 1664SOL    HW1 6824   6.382   7.270   5.284
 1664SOL    HW2 6825   6.437   7.148   5.355
 1665SOL     OW 6826  10.102  14.582   3.355
 1665SOL    HW1 6827  10.092  14.510   3.417
 1665SOL    HW2 6828  10.025  14.576   3.299
 1666SOL     OW 6829  10.056   0.771   0.253
 1666SOL    HW1 6830  10.135   0.749   0.203
 1666SOL    HW2 6831  10.089   0.812   0.333
 1667SOL     OW 6832   3.624   1.609   0.961
 1667SOL    HW1 6833   3.584   1.636   0.878
 1667SOL    HW2 6834   3.700   1.667   0.970
 1668SOL     OW 6835  13.088   3.965   7.701
 1668SOL    HW1 6836  13.131   3.991   7.782
 1668SOL    HW2 6837  13.139   3.891   7.668
 1669SOL     OW 6838   8.229  11.656   8.834
 1669SOL    HW1 6839   8.257  11.570   8.865
 1669SOL    HW2 6840   8.200  11.702   8.914
 1670SOL     OW 6841   7.170   7.580   5.743
 1670SOL    HW1 6842   7.128   7.498   5.715
 1670SOL    HW2 6843   7.153   7.584   5.837
 1671SOL     OW 6844   5.726   3.097   3.380
 1671SOL    HW1 6845   5.781   3.091   3.458
 1671SOL    HW2 6846   5.745   3.184   3.344
 1672SOL     OW 6847   4.593   1.505   2.761
 1672SOL    HW1 6848   4.670   1.524   2.706
 1672SOL    HW2 6849   4.521   1.551   2.717
 1673SOL     OW 6850   3.882  11.115   6.607
 1673SOL    HW1 6851   3.961  11.166   6.626
 1673SOL    HW2 6852   3.838  11.165   6.538
 1674SOL     OW 6853   9.408  12.846   3.526
 1674SOL    HW1 6854   9.316  12.818   3.531
 1674SOL    HW2 6855   9.411  12.926   3.578
 1675SOL     OW 6856   8.702   1.897   2.488
 1675SOL    HW1 6857   8.766   1.906   2.417
 1675SOL    HW2 6858   8.649   1.977   2.483
 1676SOL     OW 6859   7.461  11.748  11.572
 1676SOL    HW1 6860   7.544  11.734  11.618
 1676SOL    HW2 6861   7.396  11.704  11.627
 1677SOL     OW 6862  13.537   2.350  12.739
 1677SOL    HW1 6863  13.458   2.400  12.760
 1677SOL    HW2 6864  13.518   2.261  12.769
 1678SOL     OW 6865  11.904   6.520  10.072
 1678SOL    HW1 6866  11.882   6.476   9.990
 1678SOL    HW2 6867  11.921   6.449  10.134
 1679SOL     OW 6868  13.242   8.085   3.577
 1679SOL    HW1 6869  13.179   8.110   3.509
 1679SOL    HW2 6870  13.249   8.162   3.633
 1680SOL     OW 6871   9.170   5.114   7.645
 1680SOL    HW1 6872   9.256   5.081   7.619
 1680SOL    HW2 6873   9.116   5.035   7.655
 1681SOL     OW 6874   8.814   1.564   7.387
 1681SOL    HW1 6875   8.772   1.483   7.358
 1681SOL    HW2 6876   8.882   1.536   7.448
 1682SOL     OW 6877   7.570   1.741   3.176
 1682SOL    HW1 6878   7.509   1.814   3.189
 1682SOL    HW2 6879   7.562   1.689   3.256
 1683SOL     OW 6880   0.259   2.527  12.882
 1683SOL    HW1 6881   0.271   2.539  12.976
 1683SOL    HW2 6882   0.164   2.525  12.871
 1684SOL     OW 6883   3.719   0.152   1.709
 1684SOL    HW1 6884   3.722   0.200   1.626
 1684SOL    HW2 6885   3.629   0.163   1.740
 1685SOL     OW 6886   3.037   8.236   3.768
 1685SOL    HW1 6887   2.994   8.297   3.828
 1685SOL    HW2 6888   2.970   8.171   3.747
 1686SOL     OW 6889   7.669  13.999   5.085
 1686SOL    HW1 6890   7.713  13.960   5.009
 1686SOL    HW2 6891   7.719  13.968   5.160
 1687SOL     OW 6892   2.243   7.825   0.875
 1687SOL    HW1 6893   2.257   7.845   0.968
 1687SOL    HW2 6894   2.321   7.776   0.849
 1688SOL     OW 6895   2.036  14.788   9.832
 1688SOL    HW1 6896   2.029  14.783   9.737
 1688SOL    HW2 6897   1.970  14.727   9.865
 1689SOL     OW 6898   5.885   7.909  12.958
 1689SOL    HW1 6899   5.853   7.924  12.869
 1689SOL    HW2 6900   5.807   7.881  13.007
 1690SOL     OW 6901   9.885  10.448   3.415
 1690SOL    HW1 6902   9.927  10.427   3.498
 1690SOL    HW2 6903   9.810  10.389   3.411
 1691SOL     OW 6904   0.880  10.910   4.665
 1691SOL    HW1 6905   0.876  10.984   4.726
 1691SOL    HW2 6906   0.960  10.925   4.615
 1692SOL     OW 6907  12.034   4.890  10.045
 1692SOL    HW1 6908  12.110   4.943  10.022
 1692SOL    HW2 6909  11.991   4.940  10.115
 1693SOL     OW 6910  13.973   2.915  11.115
 1693SOL    HW1 6911  14.004   2.829  11.144
 1693SOL    HW2 6912  13.878   2.911  11.127
 1694SOL     OW 6913  12.830  10.246   3.721
 1694SOL    HW1 6914  12.907  10.236   3.777
 1694SOL    HW2 6915  12.866  10.254   3.633
 1695SOL     OW 6916   3.395   0.491   6.891
 1695SOL    HW1 6917   3.309   0.467   6.925
 1695SOL    HW2 6918   3.422   0.566   6.944
 1696SOL     OW 6919   2.483   5.558  11.773
 1696SOL    HW1 6920   2.417   5.620  11.741
 1696SOL    HW2 6921   2.563   5.581  11.726
 1697SOL     OW 6922  13.201   0.757   0.318
 1697SOL    HW1 6923  13.245   0.684   0.362
 1697SOL    HW2 6924  13.175   0.721   0.233
 1698SOL     OW 6925   3.802   7.886   6.848
 1698SOL    HW1 6926   3.750   7.877   6.768
 1698SOL    HW2 6927   3.778   7.972   6.882
 1699SOL     OW 6928   0.014  10.448  13.724
 1699SOL    HW1 6929   0.022  10.490  13.809
 1699SOL    HW2 6930   0.003  10.355  13.744
 1700SOL     OW 6931  13.496   6.170  14.270
 1700SOL    HW1 6932  13.420   6.145  14.218
 1700SOL    HW2 6933  13.571   6.143  14.217
 1701SOL     OW 6934   9.021  10.259   6.622
 1701SOL    HW1 6935   8.940  10.242   6.669
 1701SOL    HW2 6936   9.013  10.210   6.540
 1702SOL     OW 6937   5.656   4.787   3.922
 1702SOL    HW1 6938   5.682   4.732   3.848
 1702SOL    HW2 6939   5.738   4.826   3.952
 1703SOL     OW 6940   9.826   9.459  12.359
 1703SOL    HW1 6941   9.903   9.417  12.398
 1703SOL    HW2 6942   9.863   9.524  12.298
 1704SOL     OW 6943  10.698   1.469  12.833
 1704SOL    HW1 6944  10.753   1.415  12.890
 1704SOL    HW2 6945  10.622   1.414  12.815
 1705SOL     OW 6946  11.837  12.637   5.130
 1705SOL    HW1 6947  11.897  12.563   5.141
 1705SOL    HW2 6948  11.790  12.642   5.214
 1706SOL     OW 6949   2.484   7.732   0.819
 1706SOL    HW1 6950   2.506   7.693   0.735
 1706SOL    HW2 6951   2.498   7.826   0.807
 1707SOL     OW 6952  11.697   2.523   1.900
 1707SOL    HW1 6953  11.789   2.503   1.918
 1707SOL    HW2 6954  11.676   2.473   1.821
 1708SOL     OW 6955  11.650   2.173   5.087
 1708SOL    HW1 6956  11.617   2.236   5.023
 1708SOL    HW2 6957  11.586   2.102   5.087
 1709SOL     OW 6958   4.612   0.522  12.555
 1709SOL    HW1 6959   4.535   0.472  12.528
 1709SOL    HW2 6960   4.618   0.507  12.650
 1710SOL     OW 6961   6.279   6.503   9.849
 1710SOL    HW1 6962   6.310   6.498   9.759
 1710SOL    HW2 6963   6.322   6.429   9.893
 1711SOL     OW 6964   8.836  10.522  10.787
 1711SOL    HW1 6965   8.930  10.502  10.784
 1711SOL    HW2 6966   8.806  10.485  10.870
 1712SOL     OW 6967   7.342   2.575  12.256
 1712SOL    HW1 6968   7.327   2.507  12.321
 1712SOL    HW2 6969   7.386   2.531  12.184
 1713SOL     OW 6970   7.109  13.727  10.003
 1713SOL    HW1 6971   7.128  13.660   9.938
 1713SOL    HW2 6972   7.177  13.717  10.069
 1714SOL     OW 6973   8.436   5.575  11.655
 1714SOL    HW1 6974   8.489   5.646  11.692
 1714SOL    HW2 6975   8.413   5.605  11.567
 1715SOL     OW 6976   2.194   0.146   1.114
 1715SOL    HW1 6977   2.254   0.101   1.054
 1715SOL    HW2 6978   2.117   0.164   1.061
 1716SOL     OW 6979  11.922   6.799   0.435
 1716SOL    HW1 6980  11.903   6.852   0.512
 1716SOL    HW2 6981  11.964   6.720   0.469
 1717SOL     OW 6982   7.723  14.523  14.524
 1717SOL    HW1 6983   7.802  14.501  14.572
 1717SOL    HW2 6984   7.680  14.439  14.508
 1718SOL     OW 6985  12.884  14.374   3.484
 1718SOL    HW1 6986  12.840  14.301   3.441
 1718SOL    HW2 6987  12.977  14.363   3.462
 1719SOL     OW 6988   8.264  13.352  13.709
 1719SOL    HW1 6989   8.275  13.355  13.804
 1719SOL    HW2 6990   8.192  13.291  13.695
 1720SOL     OW 6991  11.666   7.933   2.225
 1720SOL    HW1 6992  11.701   7.973   2.146
 1720SOL    HW2 6993  11.736   7.876   2.257
 1721SOL     OW 6994  12.827   4.305   4.895
 1721SOL    HW1 6995  12.906   4.356   4.877
 1721SOL    HW2 6996  12.835   4.281   4.987
 1722SOL     OW 6997   8.969  10.719   6.382
 1722SOL    HW1 6998   9.054  10.676   6.369
 1722SOL    HW2 6999   8.926  10.667   6.450
 1723SOL     OW 7000   4.297   7.785   0.772
 1723SOL    HW1 7001   4.313   7.750   0.684
 1723SOL    HW2 7002   4.204   7.807   0.773
 1724SOL     OW 7003   3.827   3.259   1.391
 1724SOL    HW1 7004   3.874   3.340   1.411
 1724SOL    HW2 7005   3.896   3.193   1.382
 1725SOL     OW 7006   8.002  13.164  14.323
 1725SOL    HW1 7007   7.910  13.191  14.321
 1725SOL    HW2 7008   8.001  13.080  14.368
 1726SOL     OW 7009  14.349   8.589   9.551
 1726SOL    HW1 7010  14.396   8.662   9.510
 1726SOL    HW2 7011  14.336   8.526   9.480
 1727SOL     OW 7012  12.806   4.260  14.625
 1727SOL    HW1 7013  12.728   4.227  14.669
 1727SOL    HW2 7014  12.802   4.223  14.538
 1728SOL     OW 7015   3.846  12.296  13.599
 1728SOL    HW1 7016   3.903  12.336  13.533
 1728SOL    HW2 7017   3.758  12.312  13.567
 1729SOL     OW 7018  11.253  13.475   7.683
 1729SOL    HW1 7019  11.315  13.521   7.740
 1729SOL    HW2 7020  11.168  13.513   7.705
 1730SOL     OW 7021   8.604  11.285   2.656
 1730SOL    HW1 7022   8.689  11.327   2.640
 1730SOL    HW2 7023   8.617  11.232   2.734
 1731SOL     OW 7024   4.023   2.804   2.455
 1731SOL    HW1 7025   3.979   2.735   2.505
 1731SOL    HW2 7026   4.089   2.757   2.404
 1732SOL     OW 7027   5.539  13.617   6.619
 1732SOL    HW1 7028   5.608  13.680   6.638
 1732SOL    HW2 7029   5.475  13.666   6.568
 1733SOL     OW 7030  11.946   8.468   0.532
 1733SOL    HW1 7031  11.970   8.415   0.608
 1733SOL    HW2 7032  11.981   8.555   0.551
 1734SOL     OW 7033   1.574  14.199  11.432
 1734SOL    HW1 7034   1.589  14.262  11.362
 1734SOL    HW2 7035   1.594  14.114  11.394
 1735SOL     OW 7036   4.985   5.661   1.629
 1735SOL    HW1 7037   4.907   5.716   1.635
 1735SOL    HW2 7038   5.034   5.679   1.709
 1736SOL     OW 7039   6.730  11.972   2.793
 1736SOL    HW1 7040   6.716  12.058   2.753
 1736SOL    HW2 7041   6.767  11.991   2.879
 1737SOL     OW 7042   1.963  11.349   1.716
 1737SOL    HW1 7043   1.909  11.428   1.728
 1737SOL    HW2 7044   2.047  11.371   1.757
 1738SOL     OW 7045  11.121  11.570   8.106
 1738SOL    HW1 7046  11.109  11.546   8.014
 1738SOL    HW2 7047  11.125  11.666   8.105
 1739SOL     OW 7048   7.352   1.345   9.484
 1739SOL    HW1 7049   7.262   1.378   9.477
 1739SOL    HW2 7050   7.381   1.334   9.394
 1740SOL     OW 7051   8.935   2.061   5.104
 1740SOL    HW1 7052   8.846   2.040   5.132
 1740SOL    HW2 7053   8.943   2.023   5.017
 1741SOL     OW 7054   4.498   0.820   1.667
 1741SOL    HW1 7055   4.456   0.906   1.665
 1741SOL    HW2 7056   4.520   0.802   1.576
 1742SOL     OW 7057  14.202  11.590   1.766
 1742SOL    HW1 7058  14.296  11.581   1.779
 1742SOL    HW2 7059  14.166  11.602   1.854
 1743SOL     OW 7060   7.556   9.910   3.104
 1743SOL    HW1 7061   7.572   9.983   3.164
 1743SOL    HW2 7062   7.636   9.857   3.110
 1744SOL     OW 7063  11.482   4.740   0.774
 1744SOL    HW1 7064  11.455   4.823   0.813
 1744SOL    HW2 7065  11.409   4.680   0.792
 1745SOL     OW 7066   3.474  13.697  11.785
 1745SOL    HW1 7067   3.424  13.701  11.866
 1745SOL    HW2 7068   3.531  13.621  11.794
 1746SOL     OW 7069   1.838  12.099  12.664
 1746SOL    HW1 7070   1.895  12.148  12.605
 1746SOL    HW2 7071   1.871  12.010  12.661
 1747SOL     OW 7072   2.600  13.266   0.700
 1747SOL    HW1 7073   2.605  13.289   0.793
 1747SOL    HW2 7074   2.662  13.194   0.689
 1748SOL     OW 7075  13.295   3.736   5.494
 1748SOL    HW1 7076  13.271   3.768   5.581
 1748SOL    HW2 7077  13.273   3.643   5.496
 1749SOL     OW 7078   5.666  14.101   5.445
 1749SOL    HW1 7079   5.728  14.032   5.470
 1749SOL    HW2 7080   5.716  14.159   5.388
 1750SOL     OW 7081   4.996   5.914  14.348
 1750SOL    HW1 7082   4.940   5.909  14.425
 1750SOL    HW2 7083   4.957   5.854  14.285
 1751SOL     OW 7084   6.576   4.022   6.548
 1751SOL    HW1 7085   6.489   4.047   6.518
 1751SOL    HW2 7086   6.636   4.079   6.500
 1752SOL     OW 7087  13.269  14.609   0.641
 1752SOL    HW1 7088  13.300  14.525   0.608
 1752SOL    HW2 7089  13.318  14.623   0.722
 1753SOL     OW 7090   5.193  10.726  14.535
 1753SOL    HW1 7091   5.249  10.803  14.526
 1753SOL    HW2 7092   5.249  10.660  14.577
 1754SOL     OW 7093   4.356   2.870   6.172
 1754SOL    HW1 7094   4.361   2.964   6.188
 1754SOL    HW2 7095   4.317   2.834   6.252
 1755SOL     OW 7096   2.690   1.364   6.638
 1755SOL    HW1 7097   2.735   1.415   6.705
 1755SOL    HW2 7098   2.737   1.386   6.557
 1756SOL     OW 7099   5.977   5.802   1.166
 1756SOL    HW1 7100   5.920   5.765   1.235
 1756SOL    HW2 7101   6.045   5.849   1.214
 1757SOL     OW 7102   3.044   3.024  13.359
 1757SOL    HW1 7103   3.116   3.079  13.329
 1757SOL    HW2 7104   3.086   2.945  13.391
 1758SOL     OW 7105  12.113   3.190  12.503
 1758SOL    HW1 7106  12.091   3.154  12.588
 1758SOL    HW2 7107  12.141   3.280  12.522
 1759SOL     OW 7108  13.254  12.926  14.867
 1759SOL    HW1 7109  13.272  12.960  14.779
 1759SOL    HW2 7110  13.257  13.003   0.048
 1760SOL     OW 7111   7.147  13.964  12.235
 1760SOL    HW1 7112   7.087  14.035  12.213
 1760SOL    HW2 7113   7.227  14.008  12.265
 1761SOL     OW 7114   9.580   9.983  10.457
 1761SOL    HW1 7115   9.577   9.897  10.501
 1761SOL    HW2 7116   9.662   9.981  10.408
 1762SOL     OW 7117   0.132  13.851   5.130
 1762SOL    HW1 7118   0.098  13.920   5.074
 1762SOL    HW2 7119   0.158  13.896   5.210
 1763SOL     OW 7120   9.664   4.869   3.662
 1763SOL    HW1 7121   9.608   4.927   3.612
 1763SOL    HW2 7122   9.606   4.829   3.727
 1764SOL     OW 7123   0.021  13.766   5.554
 1764SOL    HW1 7124   0.049  13.678   5.529
 1764SOL    HW2 7125  14.817  13.753   5.604
 1765SOL     OW 7126   8.738   2.411   8.553
 1765SOL    HW1 7127   8.770   2.366   8.475
 1765SOL    HW2 7128   8.727   2.502   8.525
 1766SOL     OW 7129   6.770  10.248  13.220
 1766SOL    HW1 7130   6.791  10.216  13.133
 1766SOL    HW2 7131   6.683  10.211  13.239
 1767SOL     OW 7132   1.942   8.540   5.674
 1767SOL    HW1 7133   1.870   8.483   5.648
 1767SOL    HW2 7134   2.015   8.480   5.692
 1768SOL     OW 7135   7.819   8.454   5.954
 1768SOL    HW1 7136   7.891   8.511   5.983
 1768SOL    HW2 7137   7.742   8.511   5.956
 1769SOL     OW 7138   1.480  11.024   7.034
 1769SOL    HW1 7139   1.501  11.085   7.104
 1769SOL    HW2 7140   1.407  10.971   7.069
 1770SOL     OW 7141  14.290  12.939   3.724
 1770SOL    HW1 7142  14.332  12.963   3.641
 1770SOL    HW2 7143  14.219  13.002   3.735
 1771SOL     OW 7144  13.202   7.720   8.022
 1771SOL    HW1 7145  13.267   7.651   8.036
 1771SOL    HW2 7146  13.129   7.695   8.080
 1772SOL     OW 7147   5.798   8.434   0.636
 1772SOL    HW1 7148   5.717   8.484   0.631
 1772SOL    HW2 7149   5.780   8.366   0.701
 1773SOL     OW 7150   0.846   4.904   0.807
 1773SOL    HW1 7151   0.814   4.867   0.890
 1773SOL    HW2 7152   0.813   4.993   0.806
 1774SOL     OW 7153   4.553   3.197   0.275
 1774SOL    HW1 7154   4.538   3.190   0.370
 1774SOL    HW2 7155   4.465   3.206   0.238
 1775SOL     OW 7156   5.144  14.369   3.835
 1775SOL    HW1 7157   5.184  14.407   3.914
 1775SOL    HW2 7158   5.107  14.286   3.866
 1776SOL     OW 7159   9.195   8.432   0.535
 1776SOL    HW1 7160   9.220   8.520   0.506
 1776SOL    HW2 7161   9.275   8.381   0.530
 1777SOL     OW 7162   6.042   3.467  14.723
 1777SOL    HW1 7163   5.992   3.543  14.752
 1777SOL    HW2 7164   6.116   3.462  14.784
 1778SOL     OW 7165  11.154   9.063  12.599
 1778SOL    HW1 7166  11.203   8.987  12.630
 1778SOL    HW2 7167  11.064   9.033  12.593
 1779SOL     OW 7168   8.464   9.018   2.005
 1779SOL    HW1 7169   8.456   9.038   1.912
 1779SOL    HW2 7170   8.551   8.980   2.015
 1780SOL     OW 7171   6.733  13.269  13.150
 1780SOL    HW1 7172   6.729  13.192  13.207
 1780SOL    HW2 7173   6.750  13.342  13.209
 1781SOL     OW 7174   6.897  11.523  13.012
 1781SOL    HW1 7175   6.879  11.444  12.961
 1781SOL    HW2 7176   6.988  11.545  12.992
 1782SOL     OW 7177   1.340   9.282   5.096
 1782SOL    HW1 7178   1.367   9.373   5.103
 1782SOL    HW2 7179   1.396   9.235   5.158
 1783SOL     OW 7180   9.988   1.090   7.365
 1783SOL    HW1 7181  10.030   1.080   7.450
 1783SOL    HW2 7182  10.039   1.034   7.306
 1784SOL     OW 7183   9.111   6.728   4.866
 1784SOL    HW1 7184   9.175   6.790   4.902
 1784SOL    HW2 7185   9.045   6.784   4.825
 1785SOL     OW 7186   9.406  11.941   1.358
 1785SOL    HW1 7187   9.473  11.912   1.420
 1785SOL    HW2 7188   9.443  11.921   1.272
 1786SOL     OW 7189  10.121   1.114  13.793
 1786SOL    HW1 7190  10.125   1.097  13.887
 1786SOL    HW2 7191  10.111   1.209  13.785
 1787SOL     OW 7192   1.600   8.000   5.309
 1787SOL    HW1 7193   1.644   7.982   5.226
 1787SOL    HW2 7194   1.565   7.915   5.336
 1788SOL     OW 7195   4.811  10.023   9.463
 1788SOL    HW1 7196   4.815   9.937   9.422
 1788SOL    HW2 7197   4.875  10.019   9.534
 1789SOL     OW 7198   7.267   2.170   4.212
 1789SOL    HW1 7199   7.296   2.241   4.269
 1789SOL    HW2 7200   7.211   2.213   4.148
 1790SOL     OW 7201   0.535   7.271   0.124
 1790SOL    HW1 7202   0.593   7.198   0.104
 1790SOL    HW2 7203   0.520   7.315   0.040
 1791SOL     OW 7204   7.351   4.977  13.791
 1791SOL    HW1 7205   7.262   4.942  13.795
 1791SOL    HW2 7206   7.394   4.925  13.724
 1792SOL     OW 7207   4.943   6.158  10.592
 1792SOL    HW1 7208   5.002   6.233  10.594
 1792SOL    HW2 7209   4.921   6.142  10.684
 1793SOL     OW 7210   2.734   4.066  14.647
 1793SOL    HW1 7211   2.705   4.122  14.719
 1793SOL    HW2 7212   2.715   3.977  14.676
 1794SOL     OW 7213  14.302   6.655   0.627
 1794SOL    HW1 7214  14.317   6.618   0.713
 1794SOL    HW2 7215  14.258   6.586   0.578
 1795SOL     OW 7216  12.048   9.248  12.686
 1795SOL    HW1 7217  12.049   9.318  12.751
 1795SOL    HW2 7218  11.955   9.231  12.671
 1796SOL     OW 7219   1.412  14.715   8.538
 1796SOL    HW1 7220   1.470  14.790   8.549
 1796SOL    HW2 7221   1.332  14.752   8.500
 1797SOL     OW 7222   4.776   1.671   1.884
 1797SOL    HW1 7223   4.768   1.664   1.789
 1797SOL    HW2 7224   4.738   1.757   1.905
 1798SOL     OW 7225   4.184   9.783  12.935
 1798SOL    HW1 7226   4.089   9.778  12.923
 1798SOL    HW2 7227   4.195   9.833  13.016
 1799SOL     OW 7228  13.557   3.116   3.780
 1799SOL    HW1 7229  13.561   3.195   3.725
 1799SOL    HW2 7230  13.646   3.108   3.815
 1800SOL     OW 7231   4.119   8.416   4.356
 1800SOL    HW1 7232   4.053   8.426   4.424
 1800SOL    HW2 7233   4.163   8.501   4.353
 1801SOL     OW 7234  12.616   9.480   5.530
 1801SOL    HW1 7235  12.523   9.485   5.551
 1801SOL    HW2 7236  12.656   9.552   5.579
 1802SOL     OW 7237  10.168  10.491  11.235
 1802SOL    HW1 7238  10.112  10.569  11.239
 1802SOL    HW2 7239  10.162  10.462  11.144
 1803SOL     OW 7240   7.042   6.412  13.272
 1803SOL    HW1 7241   7.092   6.486  13.308
 1803SOL    HW2 7242   6.983   6.452  13.208
 1804SOL     OW 7243   0.313   9.637   5.791
 1804SOL    HW1 7244   0.309   9.616   5.698
 1804SOL    HW2 7245   0.321   9.732   5.794
 1805SOL     OW 7246   8.953  11.012  13.380
 1805SOL    HW1 7247   8.914  10.958  13.449
 1805SOL    HW2 7248   9.044  10.985  13.376
 1806SOL     OW 7249  13.287  11.087  11.509
 1806SOL    HW1 7250  13.244  11.089  11.423
 1806SOL    HW2 7251  13.219  11.109  11.571
 1807SOL     OW 7252   3.844   8.752  12.892
 1807SOL    HW1 7253   3.897   8.680  12.927
 1807SOL    HW2 7254   3.802   8.714  12.814
 1808SOL     OW 7255  10.632  11.544   1.324
 1808SOL    HW1 7256  10.607  11.561   1.414
 1808SOL    HW2 7257  10.592  11.459   1.304
 1809SOL     OW 7258   5.319   5.930   3.251
 1809SOL    HW1 7259   5.261   6.002   3.224
 1809SOL    HW2 7260   5.276   5.851   3.219
 1810SOL     OW 7261  12.948   0.897  10.730
 1810SOL    HW1 7262  13.008   0.970  10.745
 1810SOL    HW2 7263  12.883   0.906  10.799
 1811SOL     OW 7264  14.689   9.156   2.247
 1811SOL    HW1 7265  14.698   9.247   2.278
 1811SOL    HW2 7266  14.680   9.165   2.152
 1812SOL     OW 7267   3.738   9.433   9.579
 1812SOL    HW1 7268   3.738   9.507   9.639
 1812SOL    HW2 7269   3.769   9.469   9.496
 1813SOL     OW 7270   4.874   8.234   5.408
 1813SOL    HW1 7271   4.929   8.201   5.337
 1813SOL    HW2 7272   4.933   8.287   5.462
 1814SOL     OW 7273   1.287   4.258   4.670
 1814SOL    HW1 7274   1.315   4.333   4.723
 1814SOL    HW2 7275   1.365   4.231   4.622
 1815SOL     OW 7276   4.261  10.212  10.297
 1815SOL    HW1 7277   4.316  10.136  10.318
 1815SOL    HW2 7278   4.172  10.177  10.294
 1816SOL     OW 7279  10.353   3.147   6.180
 1816SOL    HW1 7280  10.336   3.124   6.089
 1816SOL    HW2 7281  10.420   3.085   6.209
 1817SOL     OW 7282  10.332   0.574   5.133
 1817SOL    HW1 7283  10.276   0.592   5.209
 1817SOL    HW2 7284  10.278   0.597   5.058
 1818SOL     OW 7285   2.088   3.311   7.227
 1818SOL    HW1 7286   2.129   3.230   7.258
 1818SOL    HW2 7287   2.013   3.281   7.175
 1819SOL     OW 7288   3.791   6.146   5.662
 1819SOL    HW1 7289   3.821   6.232   5.691
 1819SOL    HW2 7290   3.872   6.096   5.650
 1820SOL     OW 7291  13.732   8.343   6.578
 1820SOL    HW1 7292  13.725   8.248   6.576
 1820SOL    HW2 7293  13.815   8.363   6.535
 1821SOL     OW 7294   9.005  10.537   8.265
 1821SOL    HW1 7295   9.068  10.537   8.338
 1821SOL    HW2 7296   8.967  10.449   8.267
 1822SOL     OW 7297  14.254   1.683   2.119
 1822SOL    HW1 7298  14.195   1.748   2.157
 1822SOL    HW2 7299  14.197   1.611   2.091
 1823SOL     OW 7300  13.556   6.143   0.130
 1823SOL    HW1 7301  13.530   6.192   0.052
 1823SOL    HW2 7302  13.578   6.210   0.194
 1824SOL     OW 7303   1.504   8.376  12.273
 1824SOL    HW1 7304   1.475   8.419  12.193
 1824SOL    HW2 7305   1.593   8.407  12.286
 1825SOL     OW 7306   6.925   4.286   8.058
 1825SOL    HW1 7307   7.019   4.274   8.071
 1825SOL    HW2 7308   6.907   4.373   8.096
 1826SOL     OW 7309  11.647   8.138  12.208
 1826SOL    HW1 7310  11.554   8.154  12.188
 1826SOL    HW2 7311  11.650   8.045  12.229
 1827SOL     OW 7312   2.435   3.558   2.671
 1827SOL    HW1 7313   2.520   3.571   2.713
 1827SOL    HW2 7314   2.428   3.630   2.608
 1828SOL     OW 7315   8.830   8.304  11.040
 1828SOL    HW1 7316   8.841   8.333  11.130
 1828SOL    HW2 7317   8.851   8.380  10.987
 1829SOL     OW 7318  11.116   6.117   4.180
 1829SOL    HW1 7319  11.176   6.171   4.232
 1829SOL    HW2 7320  11.067   6.180   4.127
 1830SOL     OW 7321  13.336   2.723  14.304
 1830SOL    HW1 7322  13.326   2.779  14.381
 1830SOL    HW2 7323  13.368   2.781  14.235
 1831SOL     OW 7324   2.509   1.396  11.976
 1831SOL    HW1 7325   2.502   1.305  11.946
 1831SOL    HW2 7326   2.602   1.407  11.997
 1832SOL     OW 7327   4.134  13.305   2.249
 1832SOL    HW1 7328   4.207  13.252   2.217
 1832SOL    HW2 7329   4.057  13.249   2.236
 1833SOL     OW 7330   0.904  10.891   2.342
 1833SOL    HW1 7331   0.886  10.803   2.377
 1833SOL    HW2 7332   0.996  10.905   2.362
 1834SOL     OW 7333  14.157  13.603  10.995
 1834SOL    HW1 7334  14.101  13.647  11.059
 1834SOL    HW2 7335  14.116  13.622  10.910
 1835SOL     OW 7336   1.150   9.217   9.284
 1835SOL    HW1 7337   1.134   9.306   9.313
 1835SOL    HW2 7338   1.125   9.217   9.191
 1836SOL     OW 7339   9.278   6.783  12.909
 1836SOL    HW1 7340   9.198   6.829  12.934
 1836SOL    HW2 7341   9.328   6.846  12.857
 1837SOL     OW 7342   6.081   0.373   8.418
 1837SOL    HW1 7343   6.043   0.291   8.388
 1837SOL    HW2 7344   6.010   0.418   8.463
 1838SOL     OW 7345   3.009   1.395   5.167
 1838SOL    HW1 7346   3.027   1.385   5.261
 1838SOL    HW2 7347   3.002   1.305   5.135
 1839SOL     OW 7348  10.770  11.571  12.822
 1839SOL    HW1 7349  10.705  11.640  12.834
 1839SOL    HW2 7350  10.722  11.489  12.835
 1840SOL     OW 7351   7.458  13.028   1.443
 1840SOL    HW1 7352   7.521  12.963   1.475
 1840SOL    HW2 7353   7.455  13.014   1.349
 1841SOL     OW 7354  11.834   7.909  14.833
 1841SOL    HW1 7355  11.759   7.868  14.876
 1841SOL    HW2 7356  11.873   7.964   0.025
 1842SOL     OW 7357   3.076  11.635   1.097
 1842SOL    HW1 7358   3.065  11.713   1.043
 1842SOL    HW2 7359   3.140  11.661   1.163
 1843SOL     OW 7360  13.701   7.252   2.521
 1843SOL    HW1 7361  13.724   7.187   2.454
 1843SOL    HW2 7362  13.771   7.246   2.586
 1844SOL     OW 7363   9.391   8.521   5.064
 1844SOL    HW1 7364   9.482   8.492   5.061
 1844SOL    HW2 7365   9.394   8.606   5.110
 1845SOL     OW 7366   4.404   9.976   5.916
 1845SOL    HW1 7367   4.460  10.035   5.967
 1845SOL    HW2 7368   4.331   9.957   5.975
 1846SOL     OW 7369   3.974   8.953   8.804
 1846SOL    HW1 7370   3.898   9.012   8.798
 1846SOL    HW2 7371   3.950   8.890   8.872
 1847SOL     OW 7372   6.427  11.414   4.235
 1847SOL    HW1 7373   6.432  11.503   4.201
 1847SOL    HW2 7374   6.368  11.420   4.310
 1848SOL     OW 7375   4.926   4.424  10.190
 1848SOL    HW1 7376   4.954   4.448  10.279
 1848SOL    HW2 7377   4.966   4.339  10.175
 1849SOL     OW 7378   0.113   0.051   2.099
 1849SOL    HW1 7379   0.084  14.850   2.051
 1849SOL    HW2 7380   0.075   0.125   2.051
 1850SOL     OW 7381   5.276  11.683   1.330
 1850SOL    HW1 7382   5.202  11.636   1.368
 1850SOL    HW2 7383   5.335  11.698   1.405
 1851SOL     OW 7384  14.817   6.530  10.981
 1851SOL    HW1 7385  14.846   6.621  10.983
 1851SOL    HW2 7386  14.768   6.518  11.063
 1852SOL     OW 7387  13.529  13.845   9.078
 1852SOL    HW1 7388  13.594  13.871   9.012
 1852SOL    HW2 7389  13.563  13.881   9.160
 1853SOL     OW 7390   8.537  12.314   0.444
 1853SOL    HW1 7391   8.628  12.339   0.461
 1853SOL    HW2 7392   8.527  12.324   0.349
 1854SOL     OW 7393   3.039   2.175  13.170
 1854SOL    HW1 7394   3.132   2.164  13.190
 1854SOL    HW2 7395   3.034   2.257  13.123
 1855SOL     OW 7396   7.973  13.030   2.085
 1855SOL    HW1 7397   8.000  13.077   2.164
 1855SOL    HW2 7398   8.047  13.039   2.025
 1856SOL     OW 7399  13.782  14.834   4.219
 1856SOL    HW1 7400  13.697  14.850   4.177
 1856SOL    HW2 7401  13.796   0.034   4.275
 1857SOL     OW 7402   6.114   7.992   0.899
 1857SOL    HW1 7403   6.084   7.921   0.842
 1857SOL    HW2 7404   6.209   7.984   0.899
 1858SOL     OW 7405   1.238   1.171   7.309
 1858SOL    HW1 7406   1.316   1.115   7.300
 1858SOL    HW2 7407   1.205   1.178   7.220
 1859SOL     OW 7408  11.286   6.241  13.164
 1859SOL    HW1 7409  11.310   6.332  13.152
 1859SOL    HW2 7410  11.316   6.220  13.253
 1860SOL     OW 7411   3.421   9.091   1.619
 1860SOL    HW1 7412   3.443   9.178   1.651
 1860SOL    HW2 7413   3.371   9.106   1.539
 1861SOL     OW 7414   0.804  11.839   5.042
 1861SOL    HW1 7415   0.791  11.835   5.137
 1861SOL    HW2 7416   0.762  11.921   5.016
 1862SOL     OW 7417   0.857   1.784   3.567
 1862SOL    HW1 7418   0.952   1.775   3.578
 1862SOL    HW2 7419   0.836   1.720   3.499
 1863SOL     OW 7420   4.026  10.465   8.211
 1863SOL    HW1 7421   4.083  10.389   8.228
 1863SOL    HW2 7422   4.055  10.530   8.275
 1864SOL     OW 7423   5.248   1.647  10.835
 1864SOL    HW1 7424   5.166   1.638  10.785
 1864SOL    HW2 7425   5.249   1.738  10.863
 1865SOL     OW 7426  11.030   2.419   8.550
 1865SOL    HW1 7427  11.091   2.349   8.575
 1865SOL    HW2 7428  11.084   2.483   8.505
 1866SOL     OW 7429  13.821   7.058  11.416
 1866SOL    HW1 7430  13.883   6.987  11.435
 1866SOL    HW2 7431  13.736   7.014  11.410
 1867SOL     OW 7432   2.300   4.531  10.912
 1867SOL    HW1 7433   2.388   4.528  10.874
 1867SOL    HW2 7434   2.313   4.567  11.000
 1868SOL     OW 7435   4.662   1.903   2.468
 1868SOL    HW1 7436   4.617   1.826   2.434
 1868SOL    HW2 7437   4.750   1.898   2.431
 1869SOL     OW 7438  10.625   8.292  12.429
 1869SOL    HW1 7439  10.530   8.283  12.427
 1869SOL    HW2 7440  10.642   8.354  12.500
 1870SOL     OW 7441   2.509  10.091   3.173
 1870SOL    HW1 7442   2.578  10.142   3.214
 1870SOL    HW2 7443   2.522  10.002   3.205
 1871SOL     OW 7444  10.504  14.309   8.204
 1871SOL    HW1 7445  10.560  14.258   8.146
 1871SOL    HW2 7446  10.504  14.397   8.166
 1872SOL     OW 7447   7.726   5.589   7.421
 1872SOL    HW1 7448   7.692   5.520   7.478
 1872SOL    HW2 7449   7.740   5.546   7.337
 1873SOL     OW 7450  14.822  10.064   1.041
 1873SOL    HW1 7451  14.866  10.080   1.124
 1873SOL    HW2 7452  14.766  10.141   1.028
 1874SOL     OW 7453  11.937  12.833   9.044
 1874SOL    HW1 7454  11.939  12.926   9.019
 1874SOL    HW2 7455  11.844  12.813   9.053
 1875SOL     OW 7456   1.891   2.747  14.487
 1875SOL    HW1 7457   1.934   2.735  14.402
 1875SOL    HW2 7458   1.836   2.669  14.497
 1876SOL     OW 7459   6.833   7.256  12.705
 1876SOL    HW1 7460   6.769   7.293  12.644
 1876SOL    HW2 7461   6.849   7.326  12.768
 1877SOL     OW 7462   7.543   6.852   9.986
 1877SOL    HW1 7463   7.463   6.877  10.032
 1877SOL    HW2 7464   7.609   6.843  10.055
 1878SOL     OW 7465   4.711   5.915   4.520
 1878SOL    HW1 7466   4.780   5.952   4.574
 1878SOL    HW2 7467   4.695   5.981   4.453
 1879SOL     OW 7468  13.554  13.532   7.870
 1879SOL    HW1 7469  13.649  13.521   7.871
 1879SOL    HW2 7470  13.523  13.462   7.813
 1880SOL     OW 7471   0.855  14.092   7.843
 1880SOL    HW1 7472   0.854  14.098   7.747
 1880SOL    HW2 7473   0.875  14.000   7.861
 1881SOL     OW 7474   3.726   1.991   1.687
 1881SOL    HW1 7475   3.750   1.904   1.657
 1881SOL    HW2 7476   3.723   2.044   1.607
 1882SOL     OW 7477  11.912  13.906   7.457
 1882SOL    HW1 7478  12.003  13.890   7.483
 1882SOL    HW2 7479  11.860  13.848   7.514
 1883SOL     OW 7480   1.816   0.140  10.713
 1883SOL    HW1 7481   1.849   0.160  10.801
 1883SOL    HW2 7482   1.741   0.083  10.728
 1884SOL     OW 7483  10.843  10.231   3.922
 1884SOL    HW1 7484  10.934  10.260   3.933
 1884SOL    HW2 7485  10.828  10.171   3.996
 1885SOL     OW 7486   4.669   0.838   9.991
 1885SOL    HW1 7487   4.616   0.904   9.947
 1885SOL    HW2 7488   4.609   0.795  10.051
 1886SOL     OW 7489   5.750   5.682   2.102
 1886SOL    HW1 7490   5.834   5.728   2.106
 1886SOL    HW2 7491   5.774   5.590   2.089
 1887SOL     OW 7492   9.834  14.481   2.601
 1887SOL    HW1 7493   9.813  14.492   2.694
 1887SOL    HW2 7494   9.869  14.391   2.595
 1888SOL     OW 7495   4.476   0.026   3.138
 1888SOL    HW1 7496   4.416   0.063   3.203
 1888SOL    HW2 7497   4.523  14.833   3.186
 1889SOL     OW 7498   4.752  10.540  10.984
 1889SOL    HW1 7499   4.819  10.597  10.947
 1889SOL    HW2 7500   4.798  10.458  11.003
 1890SOL     OW 7501   7.457  12.198   0.680
 1890SOL    HW1 7502   7.445  12.207   0.775
 1890SOL    HW2 7503   7.487  12.284   0.651
 1891SOL     OW 7504   2.239  12.178   5.445
 1891SOL    HW1 7505   2.306  12.204   5.508
 1891SOL    HW2 7506   2.246  12.243   5.375
 1892SOL     OW 7507   4.362   4.728   1.130
 1892SOL    HW1 7508   4.290   4.776   1.088
 1892SOL    HW2 7509   4.375   4.651   1.074
 1893SOL     OW 7510   0.993   0.652   4.677
 1893SOL    HW1 7511   1.088   0.640   4.678
 1893SOL    HW2 7512   0.976   0.709   4.603
 1894SOL     OW 7513   4.104   9.005  14.504
 1894SOL    HW1 7514   4.163   8.933  14.481
 1894SOL    HW2 7515   4.086   9.048  14.420
 1895SOL     OW 7516   3.305   0.970  13.383
 1895SOL    HW1 7517   3.262   1.003  13.304
 1895SOL    HW2 7518   3.309   0.875  13.370
 1896SOL     OW 7519  13.052  14.622   0.118
 1896SOL    HW1 7520  12.973  14.615   0.172
 1896SOL    HW2 7521  13.118  14.571   0.165
 1897SOL     OW 7522  10.591  14.145   9.406
 1897SOL    HW1 7523  10.596  14.183   9.494
 1897SOL    HW2 7524  10.578  14.220   9.348
 1898SOL     OW 7525   0.796   4.506   6.528
 1898SOL    HW1 7526   0.828   4.452   6.456
 1898SOL    HW2 7527   0.704   4.481   6.538
 1899SOL     OW 7528   0.570   0.025   0.518
 1899SOL    HW1 7529   0.525   0.046   0.437
 1899SOL    HW2 7530   0.654   0.072   0.511
 1900SOL     OW 7531   4.882   8.262   8.903
 1900SOL    HW1 7532   4.929   8.248   8.821
 1900SOL    HW2 7533   4.938   8.321   8.953
 1901SOL     OW 7534   8.926  12.380   3.269
 1901SOL    HW1 7535   8.873  12.303   3.288
 1901SOL    HW2 7536   8.955  12.411   3.355
 1902SOL     OW 7537   2.955   6.633  11.602
 1902SOL    HW1 7538   2.864   6.603  11.595
 1902SOL    HW2 7539   2.973   6.672  11.516
 1903SOL     OW 7540   0.665   2.591   7.886
 1903SOL    HW1 7541   0.596   2.611   7.822
 1903SOL    HW2 7542   0.618   2.573   7.967
 1904SOL     OW 7543   8.954  10.325   4.945
 1904SOL    HW1 7544   8.967  10.346   4.853
 1904SOL    HW2 7545   8.980  10.233   4.952
 1905SOL     OW 7546   1.026  10.239   1.061
 1905SOL    HW1 7547   0.980  10.231   0.977
 1905SOL    HW2 7548   0.979  10.180   1.119
 1906SOL     OW 7549   2.677  12.595   1.983
 1906SOL    HW1 7550   2.613  12.553   1.925
 1906SOL    HW2 7551   2.754  12.608   1.928
 1907SOL     OW 7552   3.437  12.030  11.808
 1907SOL    HW1 7553   3.383  11.952  11.806
 1907SOL    HW2 7554   3.468  12.041  11.718
 1908SOL     OW 7555  12.285   1.328   4.957
 1908SOL    HW1 7556  12.256   1.382   4.884
 1908SOL    HW2 7557  12.353   1.380   5.000
 1909SOL     OW 7558  12.496   3.340   5.450
 1909SOL    HW1 7559  12.536   3.254   5.466
 1909SOL    HW2 7560  12.417   3.340   5.505
 1910SOL     OW 7561   9.105  10.733   9.927
 1910SOL    HW1 7562   9.019  10.736   9.968
 1910SOL    HW2 7563   9.102  10.657   9.868
 1911SOL     OW 7564  12.266   9.381   2.463
 1911SOL    HW1 7565  12.207   9.408   2.392
 1911SOL    HW2 7566  12.336   9.333   2.420
 1912SOL     OW 7567   8.458   9.561   2.820
 1912SOL    HW1 7568   8.466   9.472   2.855
 1912SOL    HW2 7569   8.367   9.586   2.837
 1913SOL     OW 7570  12.612  13.773   8.627
 1913SOL    HW1 7571  12.603  13.841   8.561
 1913SOL    HW2 7572  12.706  13.753   8.627
 1914SOL     OW 7573   2.612   4.234   1.118
 1914SOL    HW1 7574   2.658   4.161   1.161
 1914SOL    HW2 7575   2.629   4.309   1.175
 1915SOL     OW 7576   1.132   0.904   3.455
 1915SOL    HW1 7577   1.112   0.873   3.544
 1915SOL    HW2 7578   1.224   0.930   3.460
 1916SOL     OW 7579  11.824   9.963   4.155
 1916SOL    HW1 7580  11.777   9.930   4.078
 1916SOL    HW2 7581  11.909   9.990   4.121
 1917SOL     OW 7582   6.911   6.441   8.894
 1917SOL    HW1 7583   6.981   6.396   8.846
 1917SOL    HW2 7584   6.950   6.463   8.978
 1918SOL     OW 7585   4.663   7.002   6.865
 1918SOL    HW1 7586   4.707   7.065   6.807
 1918SOL    HW2 7587   4.674   7.038   6.953
 1919SOL     OW 7588   1.080   0.932   6.626
 1919SOL    HW1 7589   1.166   0.897   6.650
 1919SOL    HW2 7590   1.092   0.966   6.537
 1920SOL     OW 7591   7.153   6.908   5.369
 1920SOL    HW1 7592   7.180   6.996   5.343
 1920SOL    HW2 7593   7.121   6.919   5.459
 1921SOL     OW 7594  13.694   6.990   6.800
 1921SOL    HW1 7595  13.666   6.952   6.717
 1921SOL    HW2 7596  13.725   7.078   6.778
 1922SOL     OW 7597  10.622   2.630   4.530
 1922SOL    HW1 7598  10.693   2.692   4.548
 1922SOL    HW2 7599  10.545   2.685   4.516
 1923SOL     OW 7600   5.500  11.390  12.839
 1923SOL    HW1 7601   5.570  11.405  12.776
 1923SOL    HW2 7602   5.532  11.429  12.920
 1924SOL     OW 7603  10.231  14.144   5.173
 1924SOL    HW1 7604  10.321  14.157   5.142
 1924SOL    HW2 7605  10.202  14.232   5.197
 1925SOL     OW 7606   9.124  12.041  12.826
 1925SOL    HW1 7607   9.077  12.106  12.879
 1925SOL    HW2 7608   9.192  12.091  12.781
 1926SOL     OW 7609   8.198  14.802  11.632
 1926SOL    HW1 7610   8.111  14.766  11.646
 1926SOL    HW2 7611   8.247  14.731  11.590
 1927SOL     OW 7612  13.201   0.886   8.841
 1927SOL    HW1 7613  13.156   0.810   8.879
 1927SOL    HW2 7614  13.129   0.943   8.811
 1928SOL     OW 7615   0.897   0.232   9.157
 1928SOL    HW1 7616   0.848   0.191   9.228
 1928SOL    HW2 7617   0.970   0.173   9.141
 1929SOL     OW 7618   6.492   2.478   2.855
 1929SOL    HW1 7619   6.539   2.421   2.916
 1929SOL    HW2 7620   6.404   2.487   2.893
 1930SOL     OW 7621  13.636   2.725   0.438
 1930SOL    HW1 7622  13.680   2.726   0.523
 1930SOL    HW2 7623  13.685   2.660   0.387
 1931SOL     OW 7624  11.038  10.581   2.205
 1931SOL    HW1 7625  10.943  10.589   2.218
 1931SOL    HW2 7626  11.057  10.641   2.132
 1932SOL     OW 7627  11.171   5.256  14.835
 1932SOL    HW1 7628  11.102   5.246   0.025
 1932SOL    HW2 7629  11.172   5.349  14.815
 1933SOL     OW 7630   1.222  11.981  12.555
 1933SOL    HW1 7631   1.145  11.973  12.499
 1933SOL    HW2 7632   1.226  11.897  12.603
 1934SOL     OW 7633   8.131   0.411   2.052
 1934SOL    HW1 7634   8.054   0.401   2.108
 1934SOL    HW2 7635   8.205   0.408   2.112
 1935SOL     OW 7636   6.129   1.426   7.024
 1935SOL    HW1 7637   6.110   1.475   6.944
 1935SOL    HW2 7638   6.098   1.337   7.005
 1936SOL     OW 7639   3.217   8.321   3.595
 1936SOL    HW1 7640   3.300   8.299   3.637
 1936SOL    HW2 7641   3.151   8.282   3.652
 1937SOL     OW 7642   5.236   9.016   4.157
 1937SOL    HW1 7643   5.233   8.962   4.236
 1937SOL    HW2 7644   5.144   9.030   4.135
 1938SOL     OW 7645   5.858  11.669  10.349
 1938SOL    HW1 7646   5.900  11.610  10.286
 1938SOL    HW2 7647   5.765  11.658  10.334
 1939SOL     OW 7648   0.122  14.177   4.756
 1939SOL    HW1 7649   0.102  14.244   4.822
 1939SOL    HW2 7650   0.129  14.096   4.806
 1940SOL     OW 7651   9.098   6.994  12.963
 1940SOL    HW1 7652   9.171   7.050  12.936
 1940SOL    HW2 7653   9.031   7.055  12.995
 1941SOL     OW 7654   1.255  11.320   5.117
 1941SOL    HW1 7655   1.165  11.350   5.118
 1941SOL    HW2 7656   1.285  11.329   5.208
 1942SOL     OW 7657   9.320   0.086   3.328
 1942SOL    HW1 7658   9.334   0.151   3.258
 1942SOL    HW2 7659   9.364   0.007   3.296
 1943SOL     OW 7660   1.696   6.196   6.415
 1943SOL    HW1 7661   1.650   6.146   6.482
 1943SOL    HW2 7662   1.684   6.288   6.441
 1944SOL     OW 7663   1.011   0.691   4.055
 1944SOL    HW1 7664   1.038   0.761   3.996
 1944SOL    HW2 7665   1.014   0.611   4.002
 1945SOL     OW 7666   7.493   3.901  14.330
 1945SOL    HW1 7667   7.521   3.971  14.389
 1945SOL    HW2 7668   7.467   3.830  14.388
 1946SOL     OW 7669  11.835   9.174  13.714
 1946SOL    HW1 7670  11.924   9.159  13.683
 1946SOL    HW2 7671  11.840   9.162  13.809
 1947SOL     OW 7672  12.196   6.318   0.044
 1947SOL    HW1 7673  12.115   6.332   0.093
 1947SOL    HW2 7674  12.171   6.257  14.850
 1948SOL     OW 7675  14.785   7.813  13.507
 1948SOL    HW1 7676  14.741   7.754  13.569
 1948SOL    HW2 7677  14.722   7.883  13.493
 1949SOL     OW 7678   5.464   2.552   9.741
 1949SOL    HW1 7679   5.474   2.545   9.836
 1949SOL    HW2 7680   5.373   2.527   9.724
 1950SOL     OW 7681   3.369  12.073   4.659
 1950SOL    HW1 7682   3.327  12.025   4.731
 1950SOL    HW2 7683   3.463  12.057   4.671
 1951SOL     OW 7684  10.749   4.227  12.269
 1951SOL    HW1 7685  10.730   4.264  12.355
 1951SOL    HW2 7686  10.785   4.301  12.219
 1952SOL     OW 7687   8.714  13.053   2.980
 1952SOL    HW1 7688   8.645  13.069   3.045
 1952SOL    HW2 7689   8.758  13.137   2.971
 1953SOL     OW 7690  11.380   7.181   8.865
 1953SOL    HW1 7691  11.357   7.097   8.826
 1953SOL    HW2 7692  11.465   7.166   8.906
 1954SOL     OW 7693   0.010   1.792   8.454
 1954SOL    HW1 7694   0.048   1.823   8.371
 1954SOL    HW2 7695   0.060   1.713   8.474
 1955SOL     OW 7696  10.887   7.985   3.095
 1955SOL    HW1 7697  10.871   8.056   3.157
 1955SOL    HW2 7698  10.915   8.029   3.014
 1956SOL     OW 7699  11.508   9.229   6.930
 1956SOL    HW1 7700  11.469   9.168   6.867
 1956SOL    HW2 7701  11.603   9.217   6.919
 1957SOL     OW 7702  11.660  12.150   4.478
 1957SOL    HW1 7703  11.634  12.103   4.398
 1957SOL    HW2 7704  11.583  12.202   4.501
 1958SOL     OW 7705   1.621  10.836  11.601
 1958SOL    HW1 7706   1.633  10.857  11.509
 1958SOL    HW2 7707   1.707  10.847  11.640
 1959SOL     OW 7708   6.659   2.888   3.370
 1959SOL    HW1 7709   6.744   2.926   3.394
 1959SOL    HW2 7710   6.603   2.964   3.355
 1960SOL     OW 7711  12.971   3.807   6.118
 1960SOL    HW1 7712  13.000   3.897   6.128
 1960SOL    HW2 7713  12.913   3.808   6.041
 1961SOL     OW 7714   4.871   3.708  14.269
 1961SOL    HW1 7715   4.964   3.714  14.290
 1961SOL    HW2 7716   4.845   3.620  14.299
 1962SOL     OW 7717   7.262   3.339   6.284
 1962SOL    HW1 7718   7.238   3.417   6.336
 1962SOL    HW2 7719   7.194   3.275   6.306
 1963SOL     OW 7720   9.743  11.937   5.279
 1963SOL    HW1 7721   9.649  11.929   5.263
 1963SOL    HW2 7722   9.762  12.029   5.264
 1964SOL     OW 7723   7.330   5.645  10.349
 1964SOL    HW1 7724   7.371   5.620  10.266
 1964SOL    HW2 7725   7.310   5.561  10.392
 1965SOL     OW 7726   9.452   5.120   2.877
 1965SOL    HW1 7727   9.541   5.113   2.843
 1965SOL    HW2 7728   9.429   5.031   2.904
 1966SOL     OW 7729   4.577   7.457   8.799
 1966SOL    HW1 7730   4.668   7.433   8.787
 1966SOL    HW2 7731   4.573   7.493   8.888
 1967SOL     OW 7732   4.615   7.202   4.724
 1967SOL    HW1 7733   4.701   7.162   4.718
 1967SOL    HW2 7734   4.603   7.249   4.641
 1968SOL     OW 7735   4.429  12.790   8.960
 1968SOL    HW1 7736   4.378  12.793   9.042
 1968SOL    HW2 7737   4.364  12.807   8.892
 1969SOL     OW 7738   7.550   3.803  14.700
 1969SOL    HW1 7739   7.633   3.755  14.690
 1969SOL    HW2 7740   7.497   3.774  14.625
 1970SOL     OW 7741  10.014   0.100   5.279
 1970SOL    HW1 7742  10.023   0.170   5.343
 1970SOL    HW2 7743  10.090   0.043   5.294
 1971SOL     OW 7744   0.073   8.588   2.471
 1971SOL    HW1 7745   0.128   8.600   2.394
 1971SOL    HW2 7746   0.135   8.571   2.542
 1972SOL     OW 7747   4.566   1.449   6.621
 1972SOL    HW1 7748   4.570   1.388   6.695
 1972SOL    HW2 7749   4.632   1.416   6.560
 1973SOL     OW 7750  10.877  10.407   9.893
 1973SOL    HW1 7751  10.909  10.466   9.825
 1973SOL    HW2 7752  10.784  10.398   9.876
 1974SOL     OW 7753   3.306   3.399  12.376
 1974SOL    HW1 7754   3.352   3.346  12.312
 1974SOL    HW2 7755   3.265   3.469  12.325
 1975SOL     OW 7756   4.788   8.617   2.712
 1975SOL    HW1 7757   4.879   8.620   2.740
 1975SOL    HW2 7758   4.745   8.561   2.776
 1976SOL     OW 7759  11.274   0.347  12.019
 1976SOL    HW1 7760  11.361   0.349  11.979
 1976SOL    HW2 7761  11.240   0.436  12.006
 1977SOL     OW 7762   5.688   5.999   6.489
 1977SOL    HW1 7763   5.651   6.056   6.556
 1977SOL    HW2 7764   5.782   6.018   6.491
 1978SOL     OW 7765   6.568   2.310   9.997
 1978SOL    HW1 7766   6.625   2.331  10.071
 1978SOL    HW2 7767   6.489   2.361  10.013
 1979SOL     OW 7768   4.733  13.783  14.087
 1979SOL    HW1 7769   4.719  13.693  14.056
 1979SOL    HW2 7770   4.660  13.832  14.049
 1980SOL     OW 7771   8.071  13.987   9.082
 1980SOL    HW1 7772   8.075  14.080   9.064
 1980SOL    HW2 7773   8.025  13.980   9.166
 1981SOL     OW 7774   5.846   5.458   5.297
 1981SOL    HW1 7775   5.848   5.512   5.376
 1981SOL    HW2 7776   5.889   5.512   5.230
 1982SOL     OW 7777   8.913  11.526  13.419
 1982SOL    HW1 7778   8.861  11.534  13.500
 1982SOL    HW2 7779   8.895  11.607  13.371
 1983SOL     OW 7780  12.347   3.214  10.190
 1983SOL    HW1 7781  12.275   3.176  10.239
 1983SOL    HW2 7782  12.425   3.166  10.220
 1984SOL     OW 7783   0.140   8.781  11.506
 1984SOL    HW1 7784   0.120   8.720  11.577
 1984SOL    HW2 7785   0.108   8.865  11.537
 1985SOL     OW 7786   0.845   8.872   8.476
 1985SOL    HW1 7787   0.870   8.955   8.435
 1985SOL    HW2 7788   0.922   8.817   8.467
 1986SOL     OW 7789  13.040   4.696   1.037
 1986SOL    HW1 7790  13.120   4.693   1.090
 1986SOL    HW2 7791  13.065   4.656   0.954
 1987SOL     OW 7792  14.843   9.226   0.337
 1987SOL    HW1 7793   0.056   9.227   0.300
 1987SOL    HW2 7794  14.843   9.151   0.396
 1988SOL     OW 7795  10.038   9.624   7.232
 1988SOL    HW1 7796   9.971   9.555   7.239
 1988SOL    HW2 7797  10.111   9.591   7.285
 1989SOL     OW 7798  14.390  11.849  12.290
 1989SOL    HW1 7799  14.315  11.890  12.247
 1989SOL    HW2 7800  14.466  11.881  12.242
 1990SOL     OW 7801  10.642   2.578   4.264
 1990SOL    HW1 7802  10.606   2.489   4.266
 1990SOL    HW2 7803  10.637   2.608   4.355
 1991SOL     OW 7804   6.734   9.298   1.698
 1991SOL    HW1 7805   6.698   9.377   1.658
 1991SOL    HW2 7806   6.716   9.309   1.792
 1992SOL     OW 7807  11.074   1.081  12.931
 1992SOL    HW1 7808  11.166   1.104  12.935
 1992SOL    HW2 7809  11.072   1.000  12.880
 1993SOL     OW 7810  13.589   5.703   9.503
 1993SOL    HW1 7811  13.653   5.672   9.439
 1993SOL    HW2 7812  13.521   5.635   9.503
 1994SOL     OW 7813   5.980   2.802  14.078
 1994SOL    HW1 7814   6.014   2.799  13.989
 1994SOL    HW2 7815   5.901   2.749  14.076
 1995SOL     OW 7816  11.217   8.052   2.305
 1995SOL    HW1 7817  11.278   7.990   2.344
 1995SOL    HW2 7818  11.194   8.013   2.221
 1996SOL     OW 7819   4.813   0.407   6.204
 1996SOL    HW1 7820   4.752   0.466   6.249
 1996SOL    HW2 7821   4.757   0.349   6.153
 1997SOL     OW 7822   2.512   6.089  10.324
 1997SOL    HW1 7823   2.468   6.122  10.402
 1997SOL    HW2 7824   2.578   6.155  10.304
 1998SOL     OW 7825   3.005   9.352   9.253
 1998SOL    HW1 7826   3.087   9.378   9.295
 1998SOL    HW2 7827   2.997   9.258   9.269
 1999SOL     OW 7828   9.037   4.945   0.073
 1999SOL    HW1 7829   9.110   4.979   0.126
 1999SOL    HW2 7830   9.039   4.997  14.869
 2000SOL     OW 7831   7.484   1.607   9.010
 2000SOL    HW1 7832   7.395   1.580   9.035
 2000SOL    HW2 7833   7.479   1.703   9.004
 2001SOL     OW 7834  13.841   8.000   4.086
 2001SOL    HW1 7835  13.851   8.091   4.056
 2001SOL    HW2 7836  13.755   7.974   4.055
 2002SOL     OW 7837   1.897   4.738  10.639
 2002SOL    HW1 7838   1.952   4.677  10.688
 2002SOL    HW2 7839   1.869   4.802  10.703
 2003SOL     OW 7840  12.298   4.051   6.168
 2003SOL    HW1 7841  12.333   4.136   6.144
 2003SOL    HW2 7842  12.221   4.070   6.221
 2004SOL     OW 7843   9.142  13.061   3.285
 2004SOL    HW1 7844   9.182  13.124   3.345
 2004SOL    HW2 7845   9.050  13.060   3.310
 2005SOL     OW 7846   3.966   3.135  11.784
 2005SOL    HW1 7847   4.061   3.134  11.777
 2005SOL    HW2 7848   3.947   3.189  11.861
 2006SOL     OW 7849  12.254   5.755   3.136
 2006SOL    HW1 7850  12.327   5.758   3.074
 2006SOL    HW2 7851  12.291   5.787   3.218
 2007SOL     OW 7852   0.837   4.140   2.290
 2007SOL    HW1 7853   0.925   4.133   2.328
 2007SOL    HW2 7854   0.791   4.063   2.323
 2008SOL     OW 7855   0.274   0.643  13.942
 2008SOL    HW1 7856   0.300   0.611  14.028
 2008SOL    HW2 7857   0.231   0.568  13.901
 2009SOL     OW 7858  14.430   0.212   2.013
 2009SOL    HW1 7859  14.355   0.243   2.064
 2009SOL    HW2 7860  14.504   0.217   2.074
 2010SOL     OW 7861  13.638  12.124   0.884
 2010SOL    HW1 7862  13.567  12.067   0.914
 2010SOL    HW2 7863  13.697  12.066   0.837
 2011SOL     OW 7864   6.711  13.335  10.713
 2011SOL    HW1 7865   6.629  13.288  10.701
 2011SOL    HW2 7866   6.752  13.334  10.627
 2012SOL     OW 7867  12.666   9.872  11.619
 2012SOL    HW1 7868  12.636   9.819  11.693
 2012SOL    HW2 7869  12.630   9.959  11.635
 2013SOL     OW 7870   2.732   9.838  13.251
 2013SOL    HW1 7871   2.674   9.823  13.176
 2013SOL    HW2 7872   2.673   9.865  13.322
 2014SOL     OW 7873   5.615   5.551  11.857
 2014SOL    HW1 7874   5.599   5.630  11.806
 2014SOL    HW2 7875   5.557   5.560  11.933
 2015SOL     OW 7876  12.058   1.296  14.540
 2015SOL    HW1 7877  11.976   1.251  14.520
 2015SOL    HW2 7878  12.073   1.352  14.463
 2016SOL     OW 7879  12.729  13.283   2.198
 2016SOL    HW1 7880  12.766  13.196   2.211
 2016SOL    HW2 7881  12.657  13.288   2.261
 2017SOL     OW 7882   7.542  13.832  12.353
 2017SOL    HW1 7883   7.508  13.744  12.337
 2017SOL    HW2 7884   7.465  13.885  12.373
 2018SOL     OW 7885   0.895   7.332  14.083
 2018SOL    HW1 7886   0.834   7.367  14.017
 2018SOL    HW2 7887   0.941   7.409  14.116
 2019SOL     OW 7888  12.764   3.352   6.061
 2019SOL    HW1 7889  12.720   3.323   5.981
 2019SOL    HW2 7890  12.830   3.285   6.078
 2020SOL     OW 7891  12.095   6.178   2.048
 2020SOL    HW1 7892  12.064   6.253   2.098
 2020SOL    HW2 7893  12.156   6.134   2.107
 2021SOL     OW 7894   6.037   7.428   1.306
 2021SOL    HW1 7895   5.987   7.459   1.230
 2021SOL    HW2 7896   5.996   7.472   1.381
 2022SOL     OW 7897   9.887   4.476  14.605
 2022SOL    HW1 7898   9.928   4.525  14.676
 2022SOL    HW2 7899   9.854   4.543  14.545
 2023SOL     OW 7900  14.149   3.021   5.262
 2023SOL    HW1 7901  14.073   3.058   5.307
 2023SOL    HW2 7902  14.194   3.097   5.225
 2024SOL     OW 7903  14.780   3.477  14.689
 2024SOL    HW1 7904  14.844   3.541  14.720
 2024SOL    HW2 7905  14.773   3.413  14.760
 2025SOL     OW 7906  12.444   5.290   1.420
 2025SOL    HW1 7907  12.502   5.341   1.475
 2025SOL    HW2 7908  12.410   5.353   1.356
 2026SOL     OW 7909   0.789   9.066   1.349
 2026SOL    HW1 7910   0.832   8.988   1.315
 2026SOL    HW2 7911   0.775   9.121   1.272
 2027SOL     OW 7912   8.497   9.007   1.308
 2027SOL    HW1 7913   8.533   8.995   1.220
 2027SOL    HW2 7914   8.566   8.978   1.366
 2028SOL     OW 7915   9.310  13.460  10.102
 2028SOL    HW1 7916   9.287  13.369  10.085
 2028SOL    HW2 7917   9.293  13.473  10.195
 2029SOL     OW 7918  13.818   5.746   2.011
 2029SOL    HW1 7919  13.887   5.728   1.947
 2029SOL    HW2 7920  13.850   5.711   2.093
 2030SOL     OW 7921   4.644  10.556  12.242
 2030SOL    HW1 7922   4.578  10.605  12.290
 2030SOL    HW2 7923   4.602  10.471  12.224
 2031SOL     OW 7924  10.823   3.440   3.826
 2031SOL    HW1 7925  10.827   3.458   3.920
 2031SOL    HW2 7926  10.813   3.345   3.820
 2032SOL     OW 7927  11.660   4.694   4.823
 2032SOL    HW1 7928  11.605   4.772   4.813
 2032SOL    HW2 7929  11.721   4.716   4.893
 2033SOL     OW 7930   9.975   3.696   7.843
 2033SOL    HW1 7931   9.934   3.610   7.845
 2033SOL    HW2 7932   9.902   3.757   7.827
 2034SOL     OW 7933   0.927  13.586   6.021
 2034SOL    HW1 7934   1.000  13.568   6.080
 2034SOL    HW2 7935   0.920  13.508   5.966
 2035SOL     OW 7936  13.394   3.134   0.103
 2035SOL    HW1 7937  13.398   3.082   0.022
 2035SOL    HW2 7938  13.472   3.106   0.152
 2036SOL     OW 7939   4.367   8.851   0.098
 2036SOL    HW1 7940   4.288   8.889   0.137
 2036SOL    HW2 7941   4.350   8.757   0.095
 2037SOL     OW 7942   2.164  11.586  14.654
 2037SOL    HW1 7943   2.240  11.641  14.636
 2037SOL    HW2 7944   2.090  11.634  14.616
 2038SOL     OW 7945  10.320   1.439  10.730
 2038SOL    HW1 7946  10.392   1.501  10.737
 2038SOL    HW2 7947  10.356   1.365  10.681
 2039SOL     OW 7948   2.075   2.899  12.320
 2039SOL    HW1 7949   2.013   2.862  12.383
 2039SOL    HW2 7950   2.158   2.902  12.367
 2040SOL     OW 7951   8.773   1.552  14.222
 2040SOL    HW1 7952   8.728   1.599  14.292
 2040SOL    HW2 7953   8.849   1.512  14.265
 2041SOL     OW 7954  10.978   0.312   6.307
 2041SOL    HW1 7955  10.888   0.344   6.295
 2041SOL    HW2 7956  11.002   0.343   6.395
 2042SOL     OW 7957   8.431   3.402   3.271
 2042SOL    HW1 7958   8.375   3.408   3.193
 2042SOL    HW2 7959   8.406   3.319   3.312
 2043SOL     OW 7960   4.972   9.437  14.630
 2043SOL    HW1 7961   4.985   9.477  14.544
 2043SOL    HW2 7962   4.886   9.469  14.659
 2044SOL     OW 7963   5.123  11.389   6.007
 2044SOL    HW1 7964   5.212  11.388   6.042
 2044SOL    HW2 7965   5.078  11.318   6.053
 2045SOL     OW 7966   5.273  11.824  11.061
 2045SOL    HW1 7967   5.293  11.877  10.983
 2045SOL    HW2 7968   5.188  11.784  11.042
 2046SOL     OW 7969   5.109  13.582  10.244
 2046SOL    HW1 7970   5.204  13.578  10.257
 2046SOL    HW2 7971   5.099  13.605  10.151
 2047SOL     OW 7972  10.931  13.468   4.828
 2047SOL    HW1 7973  10.882  13.420   4.895
 2047SOL    HW2 7974  10.958  13.549   4.872
 2048SOL     OW 7975  14.835   4.861  14.389
 2048SOL    HW1 7976   0.053   4.868  14.372
 2048SOL    HW2 7977  14.803   4.951  14.384
 2049SOL     OW 7978  14.761   9.607  13.710
 2049SOL    HW1 7979  14.709   9.529  13.728
 2049SOL    HW2 7980  14.752   9.661  13.788
 2050SOL     OW 7981   3.544  14.118   8.690
 2050SOL    HW1 7982   3.579  14.137   8.776
 2050SOL    HW2 7983   3.620  14.099   8.635
 2051SOL     OW 7984  13.096   7.839   0.301
 2051SOL    HW1 7985  13.146   7.758   0.299
 2051SOL    HW2 7986  13.054   7.844   0.215
 2052SOL     OW 7987   3.877  12.251  11.113
 2052SOL    HW1 7988   3.862  12.258  11.207
 2052SOL    HW2 7989   3.789  12.250  11.075
 2053SOL     OW 7990  11.778   4.923   6.742
 2053SOL    HW1 7991  11.773   4.944   6.836
 2053SOL    HW2 7992  11.687   4.915   6.714
 2054SOL     OW 7993  10.098   3.485   6.251
 2054SOL    HW1 7994  10.169   3.549   6.260
 2054SOL    HW2 7995  10.070   3.468   6.341
 2055SOL     OW 7996   7.895   3.880  10.652
 2055SOL    HW1 7997   7.923   3.874  10.744
 2055SOL    HW2 7998   7.804   3.909  10.656
 2056SOL     OW 7999  10.558   8.760   1.742
 2056SOL    HW1 8000  10.641   8.786   1.702
 2056SOL    HW2 8001  10.505   8.840   1.741
 2057SOL     OW 8002   2.853  10.958  12.315
 2057SOL    HW1 8003   2.761  10.933  12.306
 2057SOL    HW2 8004   2.893  10.933  12.232
 2058SOL     OW 8005  12.465  10.577   5.404
 2058SOL    HW1 8006  12.373  10.584   5.431
 2058SOL    HW2 8007  12.491  10.490   5.434
 2059SOL     OW 8008   6.583   9.309  10.868
 2059SOL    HW1 8009   6.552   9.225  10.904
 2059SOL    HW2 8010   6.509   9.342  10.816
 2060SOL     OW 8011   8.789   4.578   4.974
 2060SOL    HW1 8012   8.757   4.565   5.064
 2060SOL    HW2 8013   8.722   4.633   4.933
 2061SOL     OW 8014  14.555  12.408   8.729
 2061SOL    HW1 8015  14.569  12.354   8.650
 2061SOL    HW2 8016  14.513  12.487   8.696
 2062SOL     OW 8017   8.666   8.403   9.778
 2062SOL    HW1 8018   8.753   8.419   9.742
 2062SOL    HW2 8019   8.672   8.433   9.869
 2063SOL     OW 8020   3.296  12.444  13.047
 2063SOL    HW1 8021   3.288  12.488  13.131
 2063SOL    HW2 8022   3.219  12.472  12.998
 2064SOL     OW 8023   7.084  13.077   7.008
 2064SOL    HW1 8024   7.039  12.999   7.040
 2064SOL    HW2 8025   7.045  13.149   7.058
 2065SOL     OW 8026   7.288   2.819  11.642
 2065SOL    HW1 8027   7.288   2.802  11.736
 2065SOL    HW2 8028   7.200   2.851  11.624
 2066SOL     OW 8029   4.451   1.752   0.267
 2066SOL    HW1 8030   4.406   1.823   0.221
 2066SOL    HW2 8031   4.384   1.714   0.324
 2067SOL     OW 8032   5.234   1.654   8.785
 2067SOL    HW1 8033   5.306   1.704   8.823
 2067SOL    HW2 8034   5.264   1.563   8.789
 2068SOL     OW 8035  11.283   7.710   2.699
 2068SOL    HW1 8036  11.261   7.668   2.782
 2068SOL    HW2 8037  11.210   7.770   2.682
 2069SOL     OW 8038  10.737   3.225   3.342
 2069SOL    HW1 8039  10.668   3.270   3.292
 2069SOL    HW2 8040  10.814   3.229   3.286
 2070SOL     OW 8041  14.702   1.731   7.617
 2070SOL    HW1 8042  14.606   1.724   7.621
 2070SOL    HW2 8043  14.719   1.794   7.547
 2071SOL     OW 8044   4.564   0.799  11.986
 2071SOL    HW1 8045   4.528   0.721  11.943
 2071SOL    HW2 8046   4.634   0.765  12.043
 2072SOL     OW 8047   5.691   3.606   7.599
 2072SOL    HW1 8048   5.597   3.606   7.616
 2072SOL    HW2 8049   5.699   3.577   7.508
 2073SOL     OW 8050  10.194  11.872   3.319
 2073SOL    HW1 8051  10.262  11.865   3.252
 2073SOL    HW2 8052  10.242  11.882   3.401
 2074SOL     OW 8053   4.619   8.368   8.857
 2074SOL    HW1 8054   4.648   8.424   8.784
 2074SOL    HW2 8055   4.698   8.324   8.886
 2075SOL     OW 8056   2.396   3.027   0.225
 2075SOL    HW1 8057   2.337   2.980   0.166
 2075SOL    HW2 8058   2.460   2.961   0.253
 2076SOL     OW 8059   3.007   5.995   3.230
 2076SOL    HW1 8060   2.959   5.934   3.174
 2076SOL    HW2 8061   3.041   6.061   3.169
 2077SOL     OW 8062   5.940   2.794  11.737
 2077SOL    HW1 8063   5.962   2.883  11.764
 2077SOL    HW2 8064   6.021   2.758  11.701
 2078SOL     OW 8065  14.563   4.929  14.819
 2078SOL    HW1 8066  14.551   4.896   0.033
 2078SOL    HW2 8067  14.658   4.922  14.804
 2079SOL     OW 8068   7.637   2.028  11.406
 2079SOL    HW1 8069   7.594   1.945  11.428
 2079SOL    HW2 8070   7.568   2.079  11.364
 2080SOL     OW 8071   6.828   8.794  11.213
 2080SOL    HW1 8072   6.773   8.837  11.147
 2080SOL    HW2 8073   6.774   8.792  11.292
 2081SOL     OW 8074   8.993  10.687  13.508
 2081SOL    HW1 8075   9.075  10.728  13.482
 2081SOL    HW2 8076   8.988  10.607  13.455
 2082SOL     OW 8077   2.036   9.008   5.795
 2082SOL    HW1 8078   2.039   9.011   5.699
 2082SOL    HW2 8079   1.997   8.923   5.815
 2083SOL     OW 8080  11.646   0.153   5.715
 2083SOL    HW1 8081  11.699   0.083   5.674
 2083SOL    HW2 8082  11.576   0.170   5.652
 2084SOL     OW 8083  10.364   6.978  10.105
 2084SOL    HW1 8084  10.355   7.071  10.086
 2084SOL    HW2 8085  10.369   6.936  10.019
 2085SOL     OW 8086   7.460  11.677  10.086
 2085SOL    HW1 8087   7.503  11.698  10.169
 2085SOL    HW2 8088   7.522  11.705  10.019
 2086SOL     OW 8089   4.434  10.915   6.538
 2086SOL    HW1 8090   4.480  10.954   6.612
 2086SOL    HW2 8091   4.497  10.854   6.499
 2087SOL     OW 8092   0.940   1.264   4.477
 2087SOL    HW1 8093   0.919   1.342   4.426
 2087SOL    HW2 8094   0.856   1.221   4.491
 2088SOL     OW 8095   4.151  10.923  10.378
 2088SOL    HW1 8096   4.205  10.976  10.318
 2088SOL    HW2 8097   4.208  10.851  10.404
 2089SOL     OW 8098  11.348  14.678   3.349
 2089SOL    HW1 8099  11.346  14.771   3.327
 2089SOL    HW2 8100  11.284  14.638   3.291
 2090SOL     OW 8101  11.426   5.203   1.119
 2090SOL    HW1 8102  11.466   5.221   1.204
 2090SOL    HW2 8103  11.449   5.279   1.065
 2091SOL     OW 8104   2.834   6.499   5.836
 2091SOL    HW1 8105   2.830   6.461   5.924
 2091SOL    HW2 8106   2.794   6.433   5.780
 2092SOL     OW 8107   8.663   9.217   2.883
 2092SOL    HW1 8108   8.755   9.230   2.906
 2092SOL    HW2 8109   8.665   9.181   2.795
 2093SOL     OW 8110  11.769   6.670  11.351
 2093SOL    HW1 8111  11.690   6.700  11.396
 2093SOL    HW2 8112  11.833   6.658  11.421
 2094SOL     OW 8113  11.011   9.113   7.851
 2094SOL    HW1 8114  10.937   9.058   7.876
 2094SOL    HW2 8115  10.977   9.202   7.851
 2095SOL     OW 8116   0.715   0.881  14.754
 2095SOL    HW1 8117   0.781   0.893  14.822
 2095SOL    HW2 8118   0.681   0.970  14.738
 2096SOL     OW 8119  12.310   7.686   7.132
 2096SOL    HW1 8120  12.242   7.740   7.172
 2096SOL    HW2 8121  12.347   7.637   7.205
 2097SOL     OW 8122   2.443   8.640   6.176
 2097SOL    HW1 8123   2.462   8.734   6.179
 2097SOL    HW2 8124   2.491   8.604   6.250
 2098SOL     OW 8125  12.229   7.186   5.790
 2098SOL    HW1 8126  12.207   7.099   5.822
 2098SOL    HW2 8127  12.145   7.225   5.766
 2099SOL     OW 8128  11.042   9.298  10.645
 2099SOL    HW1 8129  11.069   9.233  10.709
 2099SOL    HW2 8130  10.978   9.352  10.692
 2100SOL     OW 8131  10.928   6.910  10.352
 2100SOL    HW1 8132  10.968   6.997  10.348
 2100SOL    HW2 8133  10.844   6.925  10.397
 2101SOL     OW 8134   9.401   8.817   4.071
 2101SOL    HW1 8135   9.351   8.785   3.995
 2101SOL    HW2 8136   9.360   8.900   4.093
 2102SOL     OW 8137   4.223   4.139   8.218
 2102SOL    HW1 8138   4.246   4.050   8.244
 2102SOL    HW2 8139   4.161   4.168   8.285
 2103SOL     OW 8140   6.896   0.771   4.340
 2103SOL    HW1 8141   6.852   0.751   4.422
 2103SOL    HW2 8142   6.838   0.736   4.272
 2104SOL     OW 8143   8.932   0.608   4.332
 2104SOL    HW1 8144   8.941   0.703   4.338
 2104SOL    HW2 8145   8.950   0.577   4.420
 2105SOL     OW 8146   1.418  10.404   5.262
 2105SOL    HW1 8147   1.361  10.367   5.329
 2105SOL    HW2 8148   1.358  10.430   5.191
 2106SOL     OW 8149   5.837   3.318   9.841
 2106SOL    HW1 8150   5.846   3.228   9.807
 2106SOL    HW2 8151   5.927   3.351   9.843
 2107SOL     OW 8152   4.971   0.881   8.271
 2107SOL    HW1 8153   4.953   0.790   8.246
 2107SOL    HW2 8154   4.917   0.934   8.213
 2108SOL     OW 8155  14.562  10.514   8.011
 2108SOL    HW1 8156  14.549  10.423   7.987
 2108SOL    HW2 8157  14.627  10.511   8.081
 2109SOL     OW 8158  13.783  11.433   6.917
 2109SOL    HW1 8159  13.800  11.527   6.916
 2109SOL    HW2 8160  13.726  11.418   6.842
 2110SOL     OW 8161  12.037  12.615  14.299
 2110SOL    HW1 8162  11.945  12.631  14.319
 2110SOL    HW2 8163  12.085  12.678  14.351
 2111SOL     OW 8164  10.148   9.022   4.632
 2111SOL    HW1 8165  10.192   8.984   4.556
 2111SOL    HW2 8166  10.205   9.093   4.660
 2112SOL     OW 8167   6.051  10.019   8.400
 2112SOL    HW1 8168   6.121   9.997   8.338
 2112SOL    HW2 8169   6.090  10.085   8.457
 2113SOL     OW 8170   5.721  12.557  13.824
 2113SOL    HW1 8171   5.742  12.465  13.810
 2113SOL    HW2 8172   5.625  12.561  13.823
 2114SOL     OW 8173  10.787   9.104   3.754
 2114SOL    HW1 8174  10.828   9.033   3.704
 2114SOL    HW2 8175  10.737   9.153   3.688
 2115SOL     OW 8176   8.958  13.966   5.314
 2115SOL    HW1 8177   8.990  13.942   5.401
 2115SOL    HW2 8178   8.863  13.972   5.325
 2116SOL     OW 8179   4.263   8.567   4.653
 2116SOL    HW1 8180   4.258   8.629   4.727
 2116SOL    HW2 8181   4.245   8.621   4.576
 2117SOL     OW 8182   9.755  10.332  11.099
 2117SOL    HW1 8183   9.687  10.315  11.033
 2117SOL    HW2 8184   9.828  10.368  11.049
 2118SOL     OW 8185  11.678   5.465  11.783
 2118SOL    HW1 8186  11.743   5.476  11.713
 2118SOL    HW2 8187  11.650   5.554  11.804
 2119SOL     OW 8188   4.621   9.800   4.425
 2119SOL    HW1 8189   4.688   9.868   4.421
 2119SOL    HW2 8190   4.650   9.740   4.494
 2120SOL     OW 8191   4.609   3.063   2.489
 2120SOL    HW1 8192   4.566   3.145   2.510
 2120SOL    HW2 8193   4.581   3.003   2.559
 2121SOL     OW 8194   1.291   5.388   3.920
 2121SOL    HW1 8195   1.384   5.399   3.940
 2121SOL    HW2 8196   1.289   5.322   3.851
 2122SOL     OW 8197   4.551   9.137   7.052
 2122SOL    HW1 8198   4.580   9.046   7.042
 2122SOL    HW2 8199   4.632   9.186   7.069
 2123SOL     OW 8200   7.160   6.662  11.694
 2123SOL    HW1 8201   7.196   6.596  11.636
 2123SOL    HW2 8202   7.098   6.711  11.639
 2124SOL     OW 8203  10.730  13.659   6.350
 2124SOL    HW1 8204  10.789  13.585   6.364
 2124SOL    HW2 8205  10.702  13.650   6.259
 2125SOL     OW 8206  11.661   0.074   8.951
 2125SOL    HW1 8207  11.655  14.856   8.937
 2125SOL    HW2 8208  11.620   0.088   9.037
 2126SOL     OW 8209   2.469   4.625  12.202
 2126SOL    HW1 8210   2.408   4.678  12.151
 2126SOL    HW2 8211   2.451   4.535  12.176
 2127SOL     OW 8212   5.438   4.035  11.080
 2127SOL    HW1 8213   5.397   4.113  11.117
 2127SOL    HW2 8214   5.453   4.058  10.988
 2128SOL     OW 8215   9.057   2.558  11.600
 2128SOL    HW1 8216   9.128   2.512  11.645
 2128SOL    HW2 8217   8.989   2.569  11.666
 2129SOL     OW 8218   9.521  10.069  12.302
 2129SOL    HW1 8219   9.605  10.024  12.292
 2129SOL    HW2 8220   9.463  10.025  12.240
 2130SOL     OW 8221   5.654   9.528   0.601
 2130SOL    HW1 8222   5.748   9.533   0.617
 2130SOL    HW2 8223   5.630   9.439   0.624
 2131SOL     OW 8224  13.504   3.109   9.600
 2131SOL    HW1 8225  13.523   3.148   9.685
 2131SOL    HW2 8226  13.487   3.183   9.542
 2132SOL     OW 8227   3.219   3.001  12.965
 2132SOL    HW1 8228   3.179   3.029  13.047
 2132SOL    HW2 8229   3.203   3.073  12.905
 2133SOL     OW 8230   8.585   7.745   7.261
 2133SOL    HW1 8231   8.643   7.685   7.308
 2133SOL    HW2 8232   8.527   7.689   7.210
 2134SOL     OW 8233  13.024   1.152   1.671
 2134SOL    HW1 8234  12.954   1.100   1.712
 2134SOL    HW2 8235  13.104   1.113   1.705
 2135SOL     OW 8236   0.861   0.544   1.481
 2135SOL    HW1 8237   0.787   0.497   1.519
 2135SOL    HW2 8238   0.821   0.615   1.431
 2136SOL     OW 8239  12.786   7.143   8.101
 2136SOL    HW1 8240  12.759   7.198   8.028
 2136SOL    HW2 8241  12.823   7.065   8.060
 2137SOL     OW 8242   0.023  14.819  13.775
 2137SOL    HW1 8243  14.806  14.803  13.791
 2137SOL    HW2 8244   0.033  14.809  13.681
 2138SOL     OW 8245   8.899  11.654   4.583
 2138SOL    HW1 8246   8.877  11.611   4.665
 2138SOL    HW2 8247   8.942  11.735   4.609
 2139SOL     OW 8248  12.774   9.859  12.982
 2139SOL    HW1 8249  12.845   9.920  12.963
 2139SOL    HW2 8250  12.811   9.773  12.964
 2140SOL     OW 8251   1.694   4.166   5.517
 2140SOL    HW1 8252   1.607   4.178   5.479
 2140SOL    HW2 8253   1.680   4.175   5.612
 2141SOL     OW 8254   8.951  14.413   3.035
 2141SOL    HW1 8255   8.952  14.505   3.011
 2141SOL    HW2 8256   8.946  14.367   2.951
 2142SOL     OW 8257  12.480   0.385   7.767
 2142SOL    HW1 8258  12.545   0.315   7.754
 2142SOL    HW2 8259  12.525   0.465   7.738
 2143SOL     OW 8260   5.554   1.072   6.030
 2143SOL    HW1 8261   5.459   1.086   6.022
 2143SOL    HW2 8262   5.591   1.160   6.027
 2144SOL     OW 8263   5.583   5.641  13.841
 2144SOL    HW1 8264   5.556   5.643  13.749
 2144SOL    HW2 8265   5.659   5.699  13.845
 2145SOL     OW 8266  13.064  11.636  13.236
 2145SOL    HW1 8267  13.080  11.622  13.329
 2145SOL    HW2 8268  13.013  11.559  13.209
 2146SOL     OW 8269  11.768   4.676  10.586
 2146SOL    HW1 8270  11.745   4.726  10.508
 2146SOL    HW2 8271  11.699   4.611  10.595
 2147SOL     OW 8272  12.992  14.264   5.614
 2147SOL    HW1 8273  12.924  14.241   5.677
 2147SOL    HW2 8274  13.000  14.359   5.621
 2148SOL     OW 8275  11.093  12.431   8.368
 2148SOL    HW1 8276  11.148  12.358   8.340
 2148SOL    HW2 8277  11.155  12.502   8.387
 2149SOL     OW 8278   9.109   0.436  11.664
 2149SOL    HW1 8279   9.190   0.476  11.634
 2149SOL    HW2 8280   9.042   0.468  11.604
 2150SOL     OW 8281   5.841   8.462  11.379
 2150SOL    HW1 8282   5.872   8.383  11.334
 2150SOL    HW2 8283   5.752   8.474  11.348
 2151SOL     OW 8284  10.483  14.383  13.341
 2151SOL    HW1 8285  10.387  14.387  13.343
 2151SOL    HW2 8286  10.505  14.393  13.249
 2152SOL     OW 8287   5.220  14.155   6.269
 2152SOL    HW1 8288   5.260  14.175   6.184
 2152SOL    HW2 8289   5.164  14.080   6.253
 2153SOL     OW 8290   6.313   4.784   7.012
 2153SOL    HW1 8291   6.361   4.839   6.950
 2153SOL    HW2 8292   6.382   4.738   7.061
 2154SOL     OW 8293   0.751   2.985   9.617
 2154SOL    HW1 8294   0.709   2.899   9.618
 2154SOL    HW2 8295   0.685   3.044   9.583
 2155SOL     OW 8296   4.074  11.690   6.896
 2155SOL    HW1 8297   3.980  11.677   6.881
 2155SOL    HW2 8298   4.102  11.746   6.824
 2156SOL     OW 8299   9.085   0.673   2.582
 2156SOL    HW1 8300   9.178   0.691   2.574
 2156SOL    HW2 8301   9.057   0.650   2.494
 2157SOL     OW 8302   1.173  14.225   5.697
 2157SOL    HW1 8303   1.228  14.160   5.741
 2157SOL    HW2 8304   1.227  14.258   5.625
 2158SOL     OW 8305  11.577   8.390   0.619
 2158SOL    HW1 8306  11.576   8.484   0.639
 2158SOL    HW2 8307  11.606   8.349   0.700
 2159SOL     OW 8308   1.499   9.878   5.125
 2159SOL    HW1 8309   1.520   9.794   5.165
 2159SOL    HW2 8310   1.555   9.883   5.048
 2160SOL     OW 8311   9.715   4.041  10.309
 2160SOL    HW1 8312   9.699   3.957  10.266
 2160SOL    HW2 8313   9.694   4.106  10.243
 2161SOL     OW 8314   1.556  10.588  12.512
 2161SOL    HW1 8315   1.520  10.510  12.555
 2161SOL    HW2 8316   1.537  10.660  12.572
 2162SOL     OW 8317   7.222   5.454  13.336
 2162SOL    HW1 8318   7.207   5.533  13.389
 2162SOL    HW2 8319   7.317   5.441  13.339
 2163SOL     OW 8320   9.660   8.745   6.321
 2163SOL    HW1 8321   9.583   8.799   6.337
 2163SOL    HW2 8322   9.636   8.690   6.246
 2164SOL     OW 8323   6.518   0.770   4.418
 2164SOL    HW1 8324   6.598   0.796   4.465
 2164SOL    HW2 8325   6.473   0.853   4.400
 2165SOL     OW 8326   6.465   6.229  13.653
 2165SOL    HW1 8327   6.421   6.168  13.593
 2165SOL    HW2 8328   6.457   6.188  13.739
 2166SOL     OW 8329   0.455   0.231  10.960
 2166SOL    HW1 8330   0.522   0.218  10.892
 2166SOL    HW2 8331   0.372   0.212  10.915
 2167SOL     OW 8332  13.918   8.186  14.739
 2167SOL    HW1 8333  13.995   8.205  14.792
 2167SOL    HW2 8334  13.850   8.165  14.802
 2168SOL     OW 8335   2.290  13.845   2.939
 2168SOL    HW1 8336   2.384  13.828   2.944
 2168SOL    HW2 8337   2.275  13.917   3.000
 2169SOL     OW 8338  12.934  13.006  12.296
 2169SOL    HW1 8339  12.839  13.008  12.291
 2169SOL    HW2 8340  12.963  13.033  12.209
 2170SOL     OW 8341  11.311  11.548  11.136
 2170SOL    HW1 8342  11.322  11.454  11.126
 2170SOL    HW2 8343  11.282  11.578  11.050
 2171SOL     OW 8344   7.245  10.151   1.349
 2171SOL    HW1 8345   7.331  10.190   1.339
 2171SOL    HW2 8346   7.221  10.169   1.440
 2172SOL     OW 8347   1.790   0.866   5.693
 2172SOL    HW1 8348   1.769   0.959   5.695
 2172SOL    HW2 8349   1.713   0.823   5.731
 2173SOL     OW 8350   8.486   6.863   0.122
 2173SOL    HW1 8351   8.430   6.883   0.196
 2173SOL    HW2 8352   8.483   6.767   0.115
 2174SOL     OW 8353   6.145  12.932   0.708
 2174SOL    HW1 8354   6.096  12.854   0.734
 2174SOL    HW2 8355   6.086  13.005   0.726
 2175SOL     OW 8356   0.403   6.214   7.650
 2175SOL    HW1 8357   0.407   6.199   7.744
 2175SOL    HW2 8358   0.372   6.131   7.614
 2176SOL     OW 8359   8.754  13.367  12.907
 2176SOL    HW1 8360   8.694  13.320  12.848
 2176SOL    HW2 8361   8.751  13.457  12.877
 2177SOL     OW 8362  12.784   2.925  13.321
 2177SOL    HW1 8363  12.757   2.889  13.405
 2177SOL    HW2 8364  12.857   2.869  13.294
 2178SOL     OW 8365   3.965   9.948  12.153
 2178SOL    HW1 8366   3.935   9.857  12.161
 2178SOL    HW2 8367   3.896   9.992  12.105
 2179SOL     OW 8368   3.046   5.798   5.529
 2179SOL    HW1 8369   3.099   5.783   5.451
 2179SOL    HW2 8370   2.961   5.827   5.496
 2180SOL     OW 8371  12.813  10.367   9.269
 2180SOL    HW1 8372  12.833  10.274   9.273
 2180SOL    HW2 8373  12.751  10.375   9.196
 2181SOL     OW 8374   8.283   6.069   1.487
 2181SOL    HW1 8375   8.249   6.144   1.536
 2181SOL    HW2 8376   8.224   5.998   1.509
 2182SOL     OW 8377  14.063   3.625   6.501
 2182SOL    HW1 8378  14.007   3.548   6.499
 2182SOL    HW2 8379  14.012   3.694   6.458
 2183SOL     OW 8380   0.035  10.795   5.206
 2183SOL    HW1 8381   0.115  10.783   5.154
 2183SOL    HW2 8382   0.063  10.779   5.296
 2184SOL     OW 8383  10.137  14.294   4.582
 2184SOL    HW1 8384  10.116  14.362   4.518
 2184SOL    HW2 8385  10.070  14.226   4.568
 2185SOL     OW 8386   5.840  10.202   6.280
 2185SOL    HW1 8387   5.817  10.110   6.271
 2185SOL    HW2 8388   5.882  10.209   6.366
 2186SOL     OW 8389   7.654   1.781  14.142
 2186SOL    HW1 8390   7.700   1.864  14.132
 2186SOL    HW2 8391   7.666   1.737  14.058
 2187SOL     OW 8392   1.365   2.007   5.258
 2187SOL    HW1 8393   1.347   1.914   5.252
 2187SOL    HW2 8394   1.305   2.048   5.196
 2188SOL     OW 8395   2.729  10.093  10.592
 2188SOL    HW1 8396   2.717  10.000  10.570
 2188SOL    HW2 8397   2.732  10.138  10.507
 2189SOL     OW 8398  12.614  13.701  12.952
 2189SOL    HW1 8399  12.656  13.617  12.935
 2189SOL    HW2 8400  12.523  13.689  12.923
 2190SOL     OW 8401  12.727  12.232  14.398
 2190SOL    HW1 8402  12.762  12.190  14.320
 2190SOL    HW2 8403  12.652  12.178  14.423
 2191SOL     OW 8404   6.057  14.812   6.365
 2191SOL    HW1 8405   6.123  14.752   6.401
 2191SOL    HW2 8406   6.079  14.819   6.272
 2192SOL     OW 8407   5.063   4.871  13.777
 2192SOL    HW1 8408   4.979   4.825  13.787
 2192SOL    HW2 8409   5.076   4.876  13.682
 2193SOL     OW 8410   0.647   8.158   9.101
 2193SOL    HW1 8411   0.687   8.245   9.106
 2193SOL    HW2 8412   0.615   8.142   9.190
 2194SOL     OW 8413   4.838   4.407   8.799
 2194SOL    HW1 8414   4.915   4.352   8.784
 2194SOL    HW2 8415   4.781   4.388   8.725
 2195SOL     OW 8416   3.120  11.907   0.920
 2195SOL    HW1 8417   3.143  11.959   0.843
 2195SOL    HW2 8418   3.029  11.928   0.936
 2196SOL     OW 8419   1.475  13.242   8.399
 2196SOL    HW1 8420   1.467  13.333   8.370
 2196SOL    HW2 8421   1.479  13.192   8.318
 2197SOL     OW 8422  14.764   1.028   8.165
 2197SOL    HW1 8423  14.707   1.103   8.184
 2197SOL    HW2 8424  14.811   1.012   8.246
 2198SOL     OW 8425   5.522   8.552   0.417
 2198SOL    HW1 8426   5.568   8.565   0.499
 2198SOL    HW2 8427   5.590   8.560   0.350
 2199SOL     OW 8428   2.712   2.652   4.448
 2199SOL    HW1 8429   2.770   2.598   4.501
 2199SOL    HW2 8430   2.769   2.692   4.383
 2200SOL     OW 8431   6.959   8.094  10.262
 2200SOL    HW1 8432   6.998   8.053  10.339
 2200SOL    HW2 8433   6.865   8.089  10.278
 2201SOL     OW 8434   4.572  13.822   8.738
 2201SOL    HW1 8435   4.549  13.736   8.771
 2201SOL    HW2 8436   4.657  13.809   8.695
 2202SOL     OW 8437   3.571   0.362   6.722
 2202SOL    HW1 8438   3.534   0.274   6.734
 2202SOL    HW2 8439   3.548   0.408   6.802
 2203SOL     OW 8440   6.682  14.387   6.915
 2203SOL    HW1 8441   6.659  14.409   6.825
 2203SOL    HW2 8442   6.720  14.299   6.910
 2204SOL     OW 8443   6.597   2.919   0.262
 2204SOL    HW1 8444   6.603   2.824   0.269
 2204SOL    HW2 8445   6.682   2.950   0.294
 2205SOL     OW 8446   7.077  12.436  11.338
 2205SOL    HW1 8447   7.051  12.354  11.296
 2205SOL    HW2 8448   7.171  12.443  11.320
 2206SOL     OW 8449   0.275   8.478   0.251
 2206SOL    HW1 8450   0.262   8.394   0.296
 2206SOL    HW2 8451   0.364   8.504   0.274
 2207SOL     OW 8452  10.252   8.104  11.113
 2207SOL    HW1 8453  10.255   8.168  11.042
 2207SOL    HW2 8454  10.327   8.127  11.169
 2208SOL     OW 8455   6.556  14.654  11.793
 2208SOL    HW1 8456   6.566  14.747  11.773
 2208SOL    HW2 8457   6.462  14.637  11.788
 2209SOL     OW 8458   8.064   6.576  11.288
 2209SOL    HW1 8459   8.123   6.590  11.214
 2209SOL    HW2 8460   8.034   6.663  11.313
 2210SOL     OW 8461  13.338  13.445   2.228
 2210SOL    HW1 8462  13.300  13.388   2.295
 2210SOL    HW2 8463  13.335  13.394   2.147
 2211SOL     OW 8464  14.113   2.774   2.220
 2211SOL    HW1 8465  14.195   2.750   2.177
 2211SOL    HW2 8466  14.127   2.864   2.249
 2212SOL     OW 8467   9.153  14.227  14.489
 2212SOL    HW1 8468   9.058  14.235  14.478
 2212SOL    HW2 8469   9.164  14.168  14.563
 2213SOL     OW 8470   7.329   6.431   7.725
 2213SOL    HW1 8471   7.376   6.490   7.666
 2213SOL    HW2 8472   7.250   6.479   7.750
 2214SOL     OW 8473   3.500   0.118   8.446
 2214SOL    HW1 8474   3.459   0.101   8.360
 2214SOL    HW2 8475   3.451   0.192   8.482
 2215SOL     OW 8476   1.843  11.662   1.995
 2215SOL    HW1 8477   1.926  11.627   2.028
 2215SOL    HW2 8478   1.832  11.620   1.910
 2216SOL     OW 8479   4.218   3.840  12.801
 2216SOL    HW1 8480   4.294   3.877  12.847
 2216SOL    HW2 8481   4.250   3.825  12.712
 2217SOL     OW 8482  10.145   9.343   6.960
 2217SOL    HW1 8483  10.123   9.400   6.886
 2217SOL    HW2 8484  10.177   9.404   7.027
 2218SOL     OW 8485   3.315   0.266   3.355
 2218SOL    HW1 8486   3.340   0.308   3.273
 2218SOL    HW2 8487   3.353   0.323   3.423
 2219SOL     OW 8488  13.699   3.393  10.428
 2219SOL    HW1 8489  13.768   3.427  10.371
 2219SOL    HW2 8490  13.737   3.314  10.467
 2220SOL     OW 8491   5.308   1.848   5.249
 2220SOL    HW1 8492   5.395   1.809   5.241
 2220SOL    HW2 8493   5.312   1.929   5.199
 2221SOL     OW 8494   6.335   3.936  12.634
 2221SOL    HW1 8495   6.355   3.968  12.546
 2221SOL    HW2 8496   6.268   3.869  12.621
 2222SOL     OW 8497  12.552   1.558   2.926
 2222SOL    HW1 8498  12.473   1.511   2.900
 2222SOL    HW2 8499  12.582   1.601   2.846
 2223SOL     OW 8500  10.543  13.754   2.554
 2223SOL    HW1 8501  10.520  13.714   2.638
 2223SOL    HW2 8502  10.459  13.770   2.511
 2224SOL     OW 8503   0.644  10.568   8.964
 2224SOL    HW1 8504   0.731  10.569   9.004
 2224SOL    HW2 8505   0.660  10.585   8.871
 2225SOL     OW 8506   4.779   5.520   4.436
 2225SOL    HW1 8507   4.715   5.524   4.507
 2225SOL    HW2 8508   4.809   5.429   4.436
 2226SOL     OW 8509  12.902   4.530   7.889
 2226SOL    HW1 8510  12.823   4.510   7.939
 2226SOL    HW2 8511  12.918   4.451   7.838
 2227SOL     OW 8512   8.245  11.084   7.458
 2227SOL    HW1 8513   8.299  11.061   7.534
 2227SOL    HW2 8514   8.161  11.040   7.473
 2228SOL     OW 8515   5.272   5.002  10.007
 2228SOL    HW1 8516   5.220   4.949   9.947
 2228SOL    HW2 8517   5.331   5.053   9.951
 2229SOL     OW 8518   0.646   4.967   9.732
 2229SOL    HW1 8519   0.579   5.005   9.675
 2229SOL    HW2 8520   0.706   5.040   9.750
 2230SOL     OW 8521   8.859   2.232   5.733
 2230SOL    HW1 8522   8.917   2.165   5.698
 2230SOL    HW2 8523   8.853   2.213   5.827
 2231SOL     OW 8524   8.592  12.138   2.515
 2231SOL    HW1 8525   8.562  12.200   2.581
 2231SOL    HW2 8526   8.602  12.191   2.436
 2232SOL     OW 8527   1.404  14.190  12.026
 2232SOL    HW1 8528   1.487  14.193  11.979
 2232SOL    HW2 8529   1.399  14.101  12.060
 2233SOL     OW 8530   0.643   7.569   1.608
 2233SOL    HW1 8531   0.675   7.483   1.583
 2233SOL    HW2 8532   0.719   7.612   1.647
 2234SOL     OW 8533   0.435   4.971  13.239
 2234SOL    HW1 8534   0.408   5.056  13.273
 2234SOL    HW2 8535   0.426   4.911  13.314
 2235SOL     OW 8536   9.483  13.368   5.139
 2235SOL    HW1 8537   9.494  13.279   5.104
 2235SOL    HW2 8538   9.407  13.362   5.196
 2236SOL     OW 8539   8.031  11.115  10.498
 2236SOL    HW1 8540   8.083  11.150  10.425
 2236SOL    HW2 8541   8.097  11.085  10.561
 2237SOL     OW 8542   3.798   5.924   5.009
 2237SOL    HW1 8543   3.729   5.973   5.054
 2237SOL    HW2 8544   3.877   5.944   5.059
 2238SOL     OW 8545  12.172   9.856   1.718
 2238SOL    HW1 8546  12.100   9.907   1.755
 2238SOL    HW2 8547  12.222   9.918   1.665
 2239SOL     OW 8548   1.561   6.016   7.411
 2239SOL    HW1 8549   1.494   5.949   7.428
 2239SOL    HW2 8550   1.564   6.023   7.316
 2240SOL     OW 8551   1.637   0.553   7.134
 2240SOL    HW1 8552   1.640   0.483   7.199
 2240SOL    HW2 8553   1.723   0.595   7.139
 2241SOL     OW 8554   7.291   9.401   6.293
 2241SOL    HW1 8555   7.196   9.417   6.292
 2241SOL    HW2 8556   7.324   9.463   6.358
 2242SOL     OW 8557  10.297   0.245   9.240
 2242SOL    HW1 8558  10.333   0.325   9.200
 2242SOL    HW2 8559  10.243   0.206   9.171
 2243SOL     OW 8560   5.298   2.856   1.673
 2243SOL    HW1 8561   5.330   2.945   1.659
 2243SOL    HW2 8562   5.372   2.810   1.713
 2244SOL     OW 8563   9.539   5.579   4.102
 2244SOL    HW1 8564   9.594   5.653   4.129
 2244SOL    HW2 8565   9.484   5.615   4.033
 2245SOL     OW 8566   2.046   3.174   0.116
 2245SOL    HW1 8567   2.078   3.172   0.207
 2245SOL    HW2 8568   2.069   3.261   0.085
 2246SOL     OW 8569   9.012   3.584   2.974
 2246SOL    HW1 8570   9.099   3.611   3.004
 2246SOL    HW2 8571   8.991   3.507   3.028
 2247SOL     OW 8572   0.512   5.460  11.643
 2247SOL    HW1 8573   0.417   5.467  11.643
 2247SOL    HW2 8574   0.542   5.551  11.636
 2248SOL     OW 8575  11.658   5.749   3.090
 2248SOL    HW1 8576  11.566   5.731   3.070
 2248SOL    HW2 8577  11.662   5.844   3.103
 2249SOL     OW 8578   4.456   3.462   1.489
 2249SOL    HW1 8579   4.411   3.434   1.569
 2249SOL    HW2 8580   4.415   3.411   1.419
 2250SOL     OW 8581   0.705   8.217   5.267
 2250SOL    HW1 8582   0.752   8.150   5.217
 2250SOL    HW2 8583   0.731   8.201   5.358
 2251SOL     OW 8584  12.215   0.108  11.576
 2251SOL    HW1 8585  12.176   0.035  11.528
 2251SOL    HW2 8586  12.204   0.184  11.519
 2252SOL     OW 8587   7.670   0.994   1.412
 2252SOL    HW1 8588   7.669   0.999   1.317
 2252SOL    HW2 8589   7.757   0.961   1.434
 2253SOL     OW 8590  13.406   7.588   8.180
 2253SOL    HW1 8591  13.347   7.597   8.255
 2253SOL    HW2 8592  13.486   7.551   8.219
 2254SOL     OW 8593  14.627   8.078   1.909
 2254SOL    HW1 8594  14.603   7.987   1.927
 2254SOL    HW2 8595  14.692   8.073   1.839
 2255SOL     OW 8596   4.398   7.186   9.811
 2255SOL    HW1 8597   4.486   7.190   9.774
 2255SOL    HW2 8598   4.406   7.228   9.897
 2256SOL     OW 8599   2.667  13.255   1.900
 2256SOL    HW1 8600   2.624  13.212   1.974
 2256SOL    HW2 8601   2.596  13.285   1.844
 2257SOL     OW 8602   7.476   8.218   8.067
 2257SOL    HW1 8603   7.471   8.144   8.005
 2257SOL    HW2 8604   7.388   8.224   8.103
 2258SOL     OW 8605  11.381  10.079  12.443
 2258SOL    HW1 8606  11.301  10.096  12.393
 2258SOL    HW2 8607  11.368   9.990  12.478
 2259SOL     OW 8608   3.194   6.471   3.291
 2259SOL    HW1 8609   3.122   6.409   3.279
 2259SOL    HW2 8610   3.159   6.537   3.351
 2260SOL     OW 8611   8.149   4.724   8.095
 2260SOL    HW1 8612   8.198   4.730   8.013
 2260SOL    HW2 8613   8.060   4.701   8.068
 2261SOL     OW 8614   3.530   0.266  11.989
 2261SOL    HW1 8615   3.482   0.339  11.950
 2261SOL    HW2 8616   3.481   0.246  12.069
 2262SOL     OW 8617   8.844   3.891   7.248
 2262SOL    HW1 8618   8.758   3.898   7.208
 2262SOL    HW2 8619   8.829   3.839   7.327
 2263SOL     OW 8620   7.255   8.259   6.461
 2263SOL    HW1 8621   7.196   8.193   6.499
 2263SOL    HW2 8622   7.240   8.337   6.515
 2264SOL     OW 8623   1.031  10.445  12.687
 2264SOL    HW1 8624   1.024  10.350  12.677
 2264SOL    HW2 8625   1.021  10.460  12.781
 2265SOL     OW 8626   0.425  13.448   0.893
 2265SOL    HW1 8627   0.452  13.525   0.942
 2265SOL    HW2 8628   0.352  13.478   0.838
 2266SOL     OW 8629   9.828   3.832   5.482
 2266SOL    HW1 8630   9.825   3.807   5.574
 2266SOL    HW2 8631   9.738   3.825   5.451
 2267SOL     OW 8632   7.534   5.035  10.213
 2267SOL    HW1 8633   7.448   4.994  10.212
 2267SOL    HW2 8634   7.526   5.109  10.274
 2268SOL     OW 8635   0.287   4.170  13.201
 2268SOL    HW1 8636   0.284   4.177  13.296
 2268SOL    HW2 8637   0.250   4.084  13.181
 2269SOL     OW 8638   8.135  10.605   5.722
 2269SOL    HW1 8639   8.109  10.695   5.740
 2269SOL    HW2 8640   8.199  10.585   5.791
 2270SOL     OW 8641  10.577   1.778   7.726
 2270SOL    HW1 8642  10.532   1.845   7.777
 2270SOL    HW2 8643  10.669   1.799   7.735
 2271SOL     OW 8644   1.563   6.806   4.633
 2271SOL    HW1 8645   1.526   6.854   4.558
 2271SOL    HW2 8646   1.630   6.865   4.668
 2272SOL     OW 8647   7.757  14.395   7.287
 2272SOL    HW1 8648   7.771  14.393   7.382
 2272SOL    HW2 8649   7.765  14.488   7.264
 2273SOL     OW 8650  12.528   5.345  12.467
 2273SOL    HW1 8651  12.570   5.385  12.542
 2273SOL    HW2 8652  12.538   5.409  12.396
 2274SOL     OW 8653  11.958   9.413   8.066
 2274SOL    HW1 8654  11.919   9.326   8.059
 2274SOL    HW2 8655  12.048   9.401   8.037
 2275SOL     OW 8656   9.438   8.755  10.838
 2275SOL    HW1 8657   9.380   8.756  10.914
 2275SOL    HW2 8658   9.381   8.734  10.764
 2276SOL     OW 8659   3.347   6.693   6.338
 2276SOL    HW1 8660   3.429   6.664   6.377
 2276SOL    HW2 8661   3.348   6.657   6.249
 2277SOL     OW 8662  14.450   1.472   4.120
 2277SOL    HW1 8663  14.516   1.408   4.094
 2277SOL    HW2 8664  14.498   1.554   4.128
 2278SOL     OW 8665  10.927   7.855   1.579
 2278SOL    HW1 8666  10.998   7.826   1.521
 2278SOL    HW2 8667  10.953   7.825   1.666
 2279SOL     OW 8668  10.671   8.138  14.298
 2279SOL    HW1 8669  10.702   8.215  14.250
 2279SOL    HW2 8670  10.748   8.081  14.304
 2280SOL     OW 8671   8.717   8.755  12.213
 2280SOL    HW1 8672   8.735   8.761  12.119
 2280SOL    HW2 8673   8.663   8.676  12.222
 2281SOL     OW 8674   0.544   1.933   7.864
 2281SOL    HW1 8675   0.482   1.862   7.848
 2281SOL    HW2 8676   0.561   1.928   7.958
 2282SOL     OW 8677  11.530   3.921   5.130
 2282SOL    HW1 8678  11.625   3.933   5.131
 2282SOL    HW2 8679  11.510   3.893   5.041
 2283SOL     OW 8680   8.257   8.797   9.815
 2283SOL    HW1 8681   8.214   8.852   9.880
 2283SOL    HW2 8682   8.189   8.736   9.786
 2284SOL     OW 8683   9.017   3.439   5.083
 2284SOL    HW1 8684   8.985   3.514   5.033
 2284SOL    HW2 8685   8.939   3.406   5.128
 2285SOL     OW 8686   0.297  10.647   3.112
 2285SOL    HW1 8687   0.277  10.633   3.204
 2285SOL    HW2 8688   0.370  10.709   3.112
 2286SOL     OW 8689  10.373  11.164  11.260
 2286SOL    HW1 8690  10.410  11.175  11.348
 2286SOL    HW2 8691  10.376  11.252  11.222
 2287SOL     OW 8692   6.073   8.587  11.817
 2287SOL    HW1 8693   6.005   8.542  11.767
 2287SOL    HW2 8694   6.037   8.594  11.906
 2288SOL     OW 8695  12.991  10.470   2.924
 2288SOL    HW1 8696  12.988  10.435   2.835
 2288SOL    HW2 8697  12.906  10.514   2.935
 2289SOL     OW 8698   6.254   2.432   2.206
 2289SOL    HW1 8699   6.179   2.452   2.150
 2289SOL    HW2 8700   6.233   2.348   2.246
 2290SOL     OW 8701   0.068   7.385   2.199
 2290SOL    HW1 8702   0.125   7.321   2.241
 2290SOL    HW2 8703   0.023   7.429   2.271
 2291SOL     OW 8704   2.287   1.652   6.367
 2291SOL    HW1 8705   2.270   1.579   6.307
 2291SOL    HW2 8706   2.212   1.655   6.425
 2292SOL     OW 8707  11.490   6.881   4.509
 2292SOL    HW1 8708  11.481   6.937   4.432
 2292SOL    HW2 8709  11.480   6.940   4.584
 2293SOL     OW 8710   0.979   3.103  14.531
 2293SOL    HW1 8711   1.043   3.162  14.569
 2293SOL    HW2 8712   0.910   3.095  14.597
 2294SOL     OW 8713   7.018   5.232   6.737
 2294SOL    HW1 8714   7.095   5.231   6.794
 2294SOL    HW2 8715   7.053   5.245   6.649
 2295SOL     OW 8716   8.916   6.978   2.897
 2295SOL    HW1 8717   8.829   6.958   2.863
 2295SOL    HW2 8718   8.957   7.032   2.830
 2296SOL     OW 8719   6.961   8.796   9.428
 2296SOL    HW1 8720   6.965   8.729   9.359
 2296SOL    HW2 8721   6.871   8.794   9.458
 2297SOL     OW 8722   2.410   5.695  12.178
 2297SOL    HW1 8723   2.356   5.722  12.103
 2297SOL    HW2 8724   2.371   5.742  12.253
 2298SOL     OW 8725   6.885   7.465   9.686
 2298SOL    HW1 8726   6.902   7.453   9.779
 2298SOL    HW2 8727   6.897   7.559   9.671
 2299SOL     OW 8728  11.303   3.801   4.600
 2299SOL    HW1 8729  11.358   3.748   4.542
 2299SOL    HW2 8730  11.330   3.891   4.584
 2300SOL     OW 8731   4.475  13.995   9.901
 2300SOL    HW1 8732   4.401  13.974   9.957
 2300SOL    HW2 8733   4.516  14.072   9.942
 2301SOL     OW 8734   1.675   6.738   3.408
 2301SOL    HW1 8735   1.730   6.812   3.382
 2301SOL    HW2 8736   1.593   6.750   3.361
 2302SOL     OW 8737  10.287   3.650   8.629
 2302SOL    HW1 8738  10.289   3.667   8.723
 2302SOL    HW2 8739  10.322   3.561   8.620
 2303SOL     OW 8740  10.621   9.303  11.035
 2303SOL    HW1 8741  10.537   9.314  11.080
 2303SOL    HW2 8742  10.651   9.216  11.061
 2304SOL     OW 8743  14.334   8.722   4.229
 2304SOL    HW1 8744  14.293   8.781   4.293
 2304SOL    HW2 8745  14.275   8.647   4.225
 2305SOL     OW 8746   6.811   0.802   6.658
 2305SOL    HW1 8747   6.718   0.826   6.661
 2305SOL    HW2 8748   6.813   0.714   6.620
 2306SOL     OW 8749   7.354   8.650   4.735
 2306SOL    HW1 8750   7.337   8.557   4.743
 2306SOL    HW2 8751   7.317   8.689   4.815
 2307SOL     OW 8752   5.716   3.455   3.228
 2307SOL    HW1 8753   5.707   3.538   3.180
 2307SOL    HW2 8754   5.629   3.417   3.226
 2308SOL     OW 8755   0.322  11.171   5.808
 2308SOL    HW1 8756   0.240  11.217   5.793
 2308SOL    HW2 8757   0.296  11.084   5.840
 2309SOL     OW 8758   5.361   4.265   1.481
 2309SOL    HW1 8759   5.413   4.306   1.550
 2309SOL    HW2 8760   5.273   4.299   1.493
 2310SOL     OW 8761   7.307   0.191  13.110
 2310SOL    HW1 8762   7.354   0.112  13.084
 2310SOL    HW2 8763   7.298   0.241  13.029
 2311SOL     OW 8764   5.671   3.243   9.658
 2311SOL    HW1 8765   5.721   3.281   9.730
 2311SOL    HW2 8766   5.688   3.300   9.583
 2312SOL     OW 8767   2.140   9.117  14.230
 2312SOL    HW1 8768   2.087   9.109  14.151
 2312SOL    HW2 8769   2.195   9.039  14.230
 2313SOL     OW 8770  11.326   4.743  13.608
 2313SOL    HW1 8771  11.367   4.803  13.671
 2313SOL    HW2 8772  11.239   4.726  13.645
 2314SOL     OW 8773  14.165   7.351  11.831
 2314SOL    HW1 8774  14.092   7.289  11.827
 2314SOL    HW2 8775  14.142   7.411  11.901
 2315SOL     OW 8776   0.596   7.078   7.871
 2315SOL    HW1 8777   0.527   7.087   7.805
 2315SOL    HW2 8778   0.561   7.122   7.948
 2316SOL     OW 8779   9.243   4.664  10.822
 2316SOL    HW1 8780   9.284   4.645  10.737
 2316SOL    HW2 8781   9.154   4.630  10.814
 2317SOL     OW 8782   8.543   3.242   2.697
 2317SOL    HW1 8783   8.468   3.234   2.755
 2317SOL    HW2 8784   8.507   3.233   2.609
 2318SOL     OW 8785  14.811   2.814   1.550
 2318SOL    HW1 8786  14.827   2.776   1.636
 2318SOL    HW2 8787   0.016   2.796   1.501
 2319SOL     OW 8788  11.991   3.551   5.637
 2319SOL    HW1 8789  11.926   3.481   5.628
 2319SOL    HW2 8790  12.047   3.542   5.560
 2320SOL     OW 8791   7.555   9.854  13.380
 2320SOL    HW1 8792   7.643   9.874  13.346
 2320SOL    HW2 8793   7.531   9.772  13.336
 2321SOL     OW 8794   6.822  14.706   6.192
 2321SOL    HW1 8795   6.745  14.650   6.204
 2321SOL    HW2 8796   6.789  14.781   6.141
 2322SOL     OW 8797   5.596   2.749  10.126
 2322SOL    HW1 8798   5.588   2.744  10.222
 2322SOL    HW2 8799   5.531   2.814  10.100
 2323SOL     OW 8800   0.374   7.680   9.543
 2323SOL    HW1 8801   0.323   7.665   9.623
 2323SOL    HW2 8802   0.309   7.697   9.476
 2324SOL     OW 8803  11.665  10.874  13.297
 2324SOL    HW1 8804  11.629  10.917  13.220
 2324SOL    HW2 8805  11.644  10.933  13.370
 2325SOL     OW 8806   6.489   4.633   3.662
 2325SOL    HW1 8807   6.432   4.557   3.677
 2325SOL    HW2 8808   6.428   4.704   3.642
 2326SOL     OW 8809  10.998  12.215   2.105
 2326SOL    HW1 8810  10.914  12.169   2.106
 2326SOL    HW2 8811  11.001  12.257   2.020
 2327SOL     OW 8812   8.734   6.642   6.886
 2327SOL    HW1 8813   8.737   6.736   6.904
 2327SOL    HW2 8814   8.759   6.634   6.794
 2328SOL     OW 8815  10.122  12.234   6.313
 2328SOL    HW1 8816  10.197  12.293   6.315
 2328SOL    HW2 8817  10.065  12.264   6.383
 2329SOL     OW 8818   5.924   6.825   6.049
 2329SOL    HW1 8819   5.894   6.744   6.090
 2329SOL    HW2 8820   5.853   6.851   5.992
 2330SOL     OW 8821   8.387   8.899  12.168
 2330SOL    HW1 8822   8.339   8.917  12.087
 2330SOL    HW2 8823   8.479   8.895  12.141
 2331SOL     OW 8824   0.058   5.477   5.268
 2331SOL    HW1 8825   0.116   5.539   5.223
 2331SOL    HW2 8826   0.117   5.415   5.311
 2332SOL     OW 8827   2.053  14.754   2.750
 2332SOL    HW1 8828   1.982  14.776   2.690
 2332SOL    HW2 8829   2.014  14.692   2.812
 2333SOL     OW 8830   1.637   2.305   5.421
 2333SOL    HW1 8831   1.607   2.247   5.350
 2333SOL    HW2 8832   1.726   2.329   5.396
 2334SOL     OW 8833  11.541   5.139   8.026
 2334SOL    HW1 8834  11.584   5.225   8.017
 2334SOL    HW2 8835  11.465   5.156   8.082
 2335SOL     OW 8836  10.121  13.462  12.773
 2335SOL    HW1 8837  10.137  13.502  12.687
 2335SOL    HW2 8838  10.035  13.421  12.765
 2336SOL     OW 8839   6.805  10.277  10.997
 2336SOL    HW1 8840   6.741  10.310  10.935
 2336SOL    HW2 8841   6.803  10.182  10.986
 2337SOL     OW 8842   3.987  10.704   9.408
 2337SOL    HW1 8843   3.957  10.716   9.318
 2337SOL    HW2 8844   4.023  10.616   9.411
 2338SOL     OW 8845  12.864   0.968   4.039
 2338SOL    HW1 8846  12.782   0.931   4.005
 2338SOL    HW2 8847  12.922   0.970   3.963
 2339SOL     OW 8848   3.192  11.730   6.785
 2339SOL    HW1 8849   3.262  11.790   6.757
 2339SOL    HW2 8850   3.111  11.781   6.775
 2340SOL     OW 8851  11.250  13.566   2.903
 2340SOL    HW1 8852  11.292  13.628   2.962
 2340SOL    HW2 8853  11.287  13.585   2.817
 2341SOL     OW 8854   3.732   1.618   2.826
 2341SOL    HW1 8855   3.680   1.617   2.906
 2341SOL    HW2 8856   3.801   1.682   2.842
 2342SOL     OW 8857   5.915  11.906   7.997
 2342SOL    HW1 8858   5.831  11.914   8.042
 2342SOL    HW2 8859   5.957  11.831   8.039
 2343SOL     OW 8860   1.951   2.410   6.405
 2343SOL    HW1 8861   1.946   2.344   6.336
 2343SOL    HW2 8862   1.928   2.363   6.485
 2344SOL     OW 8863  13.473   8.103  13.690
 2344SOL    HW1 8864  13.446   8.168  13.626
 2344SOL    HW2 8865  13.523   8.038  13.640
 2345SOL     OW 8866  13.432   8.759  13.556
 2345SOL    HW1 8867  13.465   8.774  13.644
 2345SOL    HW2 8868  13.510   8.739  13.504
 2346SOL     OW 8869  12.486   7.441   6.390
 2346SOL    HW1 8870  12.443   7.489   6.318
 2346SOL    HW2 8871  12.548   7.503   6.426
 2347SOL     OW 8872  13.169   9.700   2.541
 2347SOL    HW1 8873  13.080   9.708   2.508
 2347SOL    HW2 8874  13.160   9.702   2.637
 2348SOL     OW 8875   4.423   4.890   4.614
 2348SOL    HW1 8876   4.419   4.799   4.643
 2348SOL    HW2 8877   4.510   4.899   4.573
 2349SOL     OW 8878   7.293  13.908   5.681
 2349SOL    HW1 8879   7.233  13.861   5.739
 2349SOL    HW2 8880   7.356  13.950   5.740
 2350SOL     OW 8881   3.458   9.209  14.859
 2350SOL    HW1 8882   3.446   9.131   0.037
 2350SOL    HW2 8883   3.552   9.213  14.842
 2351SOL     OW 8884   9.554   0.881   9.395
 2351SOL    HW1 8885   9.573   0.966   9.356
 2351SOL    HW2 8886   9.575   0.818   9.327
 2352SOL     OW 8887   1.736   0.980   2.596
 2352SOL    HW1 8888   1.707   0.899   2.554
 2352SOL    HW2 8889   1.802   1.016   2.536
 2353SOL     OW 8890   8.224   0.239   3.549
 2353SOL    HW1 8891   8.225   0.280   3.635
 2353SOL    HW2 8892   8.156   0.173   3.553
 2354SOL     OW 8893   6.128   0.476   8.008
 2354SOL    HW1 8894   6.088   0.547   8.058
 2354SOL    HW2 8895   6.103   0.396   8.055
 2355SOL     OW 8896  13.447   0.333   7.076
 2355SOL    HW1 8897  13.387   0.336   7.002
 2355SOL    HW2 8898  13.391   0.325   7.153
 2356SOL     OW 8899   1.500   7.972   6.348
 2356SOL    HW1 8900   1.594   7.979   6.333
 2356SOL    HW2 8901   1.464   8.053   6.313
 2357SOL     OW 8902   8.780  14.096  11.997
 2357SOL    HW1 8903   8.734  14.179  12.007
 2357SOL    HW2 8904   8.858  14.119  11.946
 2358SOL     OW 8905   8.330   8.737   6.001
 2358SOL    HW1 8906   8.372   8.683   5.934
 2358SOL    HW2 8907   8.306   8.675   6.070
 2359SOL     OW 8908   1.864   1.024  13.766
 2359SOL    HW1 8909   1.810   1.018  13.845
 2359SOL    HW2 8910   1.949   0.989  13.792
 2360SOL     OW 8911   5.550   9.661  11.890
 2360SOL    HW1 8912   5.501   9.579  11.892
 2360SOL    HW2 8913   5.516   9.711  11.964
 2361SOL     OW 8914   0.891   4.907   0.528
 2361SOL    HW1 8915   0.892   4.887   0.621
 2361SOL    HW2 8916   0.964   4.968   0.515
 2362SOL     OW 8917  13.518   4.718  12.355
 2362SOL    HW1 8918  13.560   4.765  12.427
 2362SOL    HW2 8919  13.479   4.788  12.302
 2363SOL     OW 8920   3.210   2.505  11.003
 2363SOL    HW1 8921   3.284   2.485  10.946
 2363SOL    HW2 8922   3.134   2.505  10.944
 2364SOL     OW 8923  12.001   7.512   4.285
 2364SOL    HW1 8924  11.981   7.457   4.209
 2364SOL    HW2 8925  12.056   7.581   4.250
 2365SOL     OW 8926  14.139   3.620   5.820
 2365SOL    HW1 8927  14.202   3.652   5.756
 2365SOL    HW2 8928  14.087   3.554   5.773
 2366SOL     OW 8929   5.268   1.522  12.421
 2366SOL    HW1 8930   5.289   1.495  12.331
 2366SOL    HW2 8931   5.308   1.454  12.476
 2367SOL     OW 8932  10.572  10.122   2.553
 2367SOL    HW1 8933  10.632  10.143   2.625
 2367SOL    HW2 8934  10.496  10.178   2.568
 2368SOL     OW 8935  11.519  11.328   3.825
 2368SOL    HW1 8936  11.460  11.254   3.840
 2368SOL    HW2 8937  11.605  11.288   3.812
 2369SOL     OW 8938   2.742   2.679   7.729
 2369SOL    HW1 8939   2.799   2.647   7.800
 2369SOL    HW2 8940   2.655   2.683   7.769
 2370SOL     OW 8941   4.300  10.300   6.682
 2370SOL    HW1 8942   4.294  10.260   6.769
 2370SOL    HW2 8943   4.273  10.391   6.696
 2371SOL     OW 8944  12.595   5.854  12.575
 2371SOL    HW1 8945  12.672   5.872  12.628
 2371SOL    HW2 8946  12.523   5.852  12.637
 2372SOL     OW 8947   5.789   3.113  14.643
 2372SOL    HW1 8948   5.826   3.100  14.730
 2372SOL    HW2 8949   5.862   3.143  14.589
 2373SOL     OW 8950   7.080   8.390   3.691
 2373SOL    HW1 8951   7.154   8.398   3.631
 2373SOL    HW2 8952   7.121   8.378   3.777
 2374SOL     OW 8953   9.880   8.433   2.900
 2374SOL    HW1 8954   9.915   8.479   2.976
 2374SOL    HW2 8955   9.920   8.347   2.904
 2375SOL     OW 8956   6.266   5.044   1.552
 2375SOL    HW1 8957   6.210   5.098   1.608
 2375SOL    HW2 8958   6.348   5.035   1.602
 2376SOL     OW 8959  11.643   6.951   3.083
 2376SOL    HW1 8960  11.646   6.856   3.095
 2376SOL    HW2 8961  11.554   6.970   3.056
 2377SOL     OW 8962   0.054  13.422   1.609
 2377SOL    HW1 8963  14.869  13.494   1.591
 2377SOL    HW2 8964   0.121  13.460   1.666
 2378SOL     OW 8965  12.987   5.547   9.292
 2378SOL    HW1 8966  12.991   5.586   9.379
 2378SOL    HW2 8967  12.910   5.491   9.294
 2379SOL     OW 8968   2.112   5.166   7.270
 2379SOL    HW1 8969   2.037   5.143   7.216
 2379SOL    HW2 8970   2.188   5.154   7.213
 2380SOL     OW 8971  12.804  13.710   1.407
 2380SOL    HW1 8972  12.768  13.777   1.465
 2380SOL    HW2 8973  12.737  13.699   1.339
 2381SOL     OW 8974  13.829   0.644  10.668
 2381SOL    HW1 8975  13.816   0.551  10.652
 2381SOL    HW2 8976  13.915   0.664  10.630
 2382SOL     OW 8977  10.376   3.966   4.850
 2382SOL    HW1 8978  10.318   4.016   4.907
 2382SOL    HW2 8979  10.318   3.924   4.786
 2383SOL     OW 8980   9.385   4.245   5.967
 2383SOL    HW1 8981   9.362   4.206   6.052
 2383SOL    HW2 8982   9.331   4.324   5.961
 2384SOL     OW 8983   2.381   8.716  10.488
 2384SOL    HW1 8984   2.393   8.659  10.412
 2384SOL    HW2 8985   2.368   8.803  10.452
 2385SOL     OW 8986   4.943  14.210  13.503
 2385SOL    HW1 8987   4.905  14.168  13.425
 2385SOL    HW2 8988   4.867  14.241  13.552
 2386SOL     OW 8989   5.237   6.694   0.367
 2386SOL    HW1 8990   5.264   6.687   0.275
 2386SOL    HW2 8991   5.251   6.786   0.389
 2387SOL     OW 8992  10.219   1.307   2.060
 2387SOL    HW1 8993  10.142   1.362   2.046
 2387SOL    HW2 8994  10.284   1.365   2.099
 2388SOL     OW 8995  13.564   8.243  10.317
 2388SOL    HW1 8996  13.590   8.263  10.407
 2388SOL    HW2 8997  13.578   8.148  10.309
 2389SOL     OW 8998   5.023   5.698  10.532
 2389SOL    HW1 8999   5.093   5.644  10.493
 2389SOL    HW2 9000   5.046   5.703  10.624
 2390SOL     OW 9001  11.384  12.772  13.226
 2390SOL    HW1 9002  11.327  12.696  13.219
 2390SOL    HW2 9003  11.456  12.743  13.282
 2391SOL     OW 9004  10.079   8.062   9.094
 2391SOL    HW1 9005  10.113   7.993   9.037
 2391SOL    HW2 9006   9.984   8.058   9.083
 2392SOL     OW 9007   0.207   8.756   5.644
 2392SOL    HW1 9008   0.185   8.847   5.665
 2392SOL    HW2 9009   0.176   8.705   5.719
 2393SOL     OW 9010   0.451   7.636   7.386
 2393SOL    HW1 9011   0.489   7.554   7.419
 2393SOL    HW2 9012   0.482   7.642   7.296
 2394SOL     OW 9013   0.501   6.483   8.394
 2394SOL    HW1 9014   0.436   6.416   8.418
 2394SOL    HW2 9015   0.472   6.514   8.309
 2395SOL     OW 9016  10.216   8.551  12.294
 2395SOL    HW1 9017  10.148   8.487  12.315
 2395SOL    HW2 9018  10.209   8.563  12.199
 2396SOL     OW 9019  14.580   4.282   9.442
 2396SOL    HW1 9020  14.572   4.211   9.506
 2396SOL    HW2 9021  14.504   4.338   9.457
 2397SOL     OW 9022   7.746   2.188   8.577
 2397SOL    HW1 9023   7.747   2.133   8.498
 2397SOL    HW2 9024   7.799   2.140   8.640
 2398SOL     OW 9025  13.383   8.146  13.979
 2398SOL    HW1 9026  13.438   8.106  14.047
 2398SOL    HW2 9027  13.358   8.072  13.922
 2399SOL     OW 9028   7.678  11.340   9.444
 2399SOL    HW1 9029   7.655  11.277   9.375
 2399SOL    HW2 9030   7.619  11.414   9.429
 2400SOL     OW 9031  12.111   2.739   6.044
 2400SOL    HW1 9032  12.134   2.798   6.116
 2400SOL    HW2 9033  12.018   2.757   6.026
 2401SOL     OW 9034   8.779  11.366   8.364
 2401SOL    HW1 9035   8.719  11.296   8.390
 2401SOL    HW2 9036   8.755  11.387   8.274
 2402SOL     OW 9037   3.453   5.310  11.426
 2402SOL    HW1 9038   3.377   5.363  11.450
 2402SOL    HW2 9039   3.527   5.357  11.466
 2403SOL     OW 9040   3.288   3.466   9.917
 2403SOL    HW1 9041   3.201   3.470   9.957
 2403SOL    HW2 9042   3.349   3.483   9.989
 2404SOL     OW 9043   2.779   7.776   9.767
 2404SOL    HW1 9044   2.824   7.701   9.805
 2404SOL    HW2 9045   2.738   7.741   9.688
 2405SOL     OW 9046  13.024   4.785  12.691
 2405SOL    HW1 9047  13.096   4.750  12.743
 2405SOL    HW2 9048  12.961   4.815  12.756
 2406SOL     OW 9049   8.789   6.384   5.200
 2406SOL    HW1 9050   8.702   6.419   5.220
 2406SOL    HW2 9051   8.776   6.332   5.121
 2407SOL     OW 9052  14.863  14.164  10.773
 2407SOL    HW1 9053   0.033  14.217  10.838
 2407SOL    HW2 9054   0.043  14.166  10.695
 2408SOL     OW 9055   8.659  10.612   5.500
 2408SOL    HW1 9056   8.753  10.626   5.493
 2408SOL    HW2 9057   8.639  10.549   5.430
 2409SOL     OW 9058  14.210  14.521  12.028
 2409SOL    HW1 9059  14.170  14.435  12.036
 2409SOL    HW2 9060  14.153  14.569  11.968
 2410SOL     OW 9061   2.091   1.828  11.005
 2410SOL    HW1 9062   2.033   1.759  10.972
 2410SOL    HW2 9063   2.064   1.907  10.959
 2411SOL     OW 9064   1.942   7.586  12.867
 2411SOL    HW1 9065   2.012   7.630  12.915
 2411SOL    HW2 9066   1.985   7.512  12.823
 2412SOL     OW 9067   5.881   8.678   1.923
 2412SOL    HW1 9068   5.841   8.756   1.961
 2412SOL    HW2 9069   5.972   8.703   1.907
 2413SOL     OW 9070  10.166   2.911   9.783
 2413SOL    HW1 9071  10.191   2.985   9.839
 2413SOL    HW2 9072  10.162   2.837   9.844
 2414SOL     OW 9073   2.158   3.132   4.301
 2414SOL    HW1 9074   2.231   3.137   4.239
 2414SOL    HW2 9075   2.173   3.050   4.349
 2415SOL     OW 9076   4.263   4.666   9.149
 2415SOL    HW1 9077   4.233   4.576   9.136
 2415SOL    HW2 9078   4.272   4.676   9.244
 2416SOL     OW 9079  12.109  10.621   9.864
 2416SOL    HW1 9080  12.147  10.547   9.910
 2416SOL    HW2 9081  12.078  10.585   9.781
 2417SOL     OW 9082   4.454   0.875  11.165
 2417SOL    HW1 9083   4.469   0.894  11.258
 2417SOL    HW2 9084   4.484   0.785  11.154
 2418SOL     OW 9085   9.584  12.204  14.687
 2418SOL    HW1 9086   9.571  12.299  14.694
 2418SOL    HW2 9087   9.512  12.174  14.632
 2419SOL     OW 9088  11.875  13.367   2.676
 2419SOL    HW1 9089  11.953  13.312   2.674
 2419SOL    HW2 9090  11.904  13.451   2.640
 2420SOL     OW 9091  13.533  12.501   5.248
 2420SOL    HW1 9092  13.622  12.492   5.213
 2420SOL    HW2 9093  13.528  12.592   5.278
 2421SOL     OW 9094   7.865  12.427   4.182
 2421SOL    HW1 9095   7.803  12.375   4.131
 2421SOL    HW2 9096   7.811  12.477   4.242
 2422SOL     OW 9097  11.821   3.679   9.326
 2422SOL    HW1 9098  11.841   3.692   9.233
 2422SOL    HW2 9099  11.729   3.703   9.334
 2423SOL     OW 9100   9.156   3.913  13.122
 2423SOL    HW1 9101   9.159   3.938  13.029
 2423SOL    HW2 9102   9.084   3.850  13.127
 2424SOL     OW 9103  13.129   8.273  10.458
 2424SOL    HW1 9104  13.102   8.296  10.369
 2424SOL    HW2 9105  13.089   8.188  10.475
 2425SOL     OW 9106  13.253   5.248  13.714
 2425SOL    HW1 9107  13.296   5.163  13.719
 2425SOL    HW2 9108  13.239   5.272  13.806
 2426SOL     OW 9109   4.750   3.891   0.894
 2426SOL    HW1 9110   4.749   3.811   0.948
 2426SOL    HW2 9111   4.659   3.918   0.889
 2427SOL     OW 9112  14.824   5.401   9.319
 2427SOL    HW1 9113  14.756   5.402   9.386
 2427SOL    HW2 9114  14.853   5.310   9.315
 2428SOL     OW 9115   7.295  14.267   6.418
 2428SOL    HW1 9116   7.328  14.218   6.343
 2428SOL    HW2 9117   7.371  14.314   6.452
 2429SOL     OW 9118   7.665   2.686   8.360
 2429SOL    HW1 9119   7.686   2.634   8.438
 2429SOL    HW2 9120   7.645   2.621   8.292
 2430SOL     OW 9121   0.921   1.295   9.329
 2430SOL    HW1 9122   0.847   1.291   9.390
 2430SOL    HW2 9123   0.994   1.256   9.377
 2431SOL     OW 9124  14.397   3.483   0.791
 2431SOL    HW1 9125  14.411   3.411   0.853
 2431SOL    HW2 9126  14.442   3.558   0.831
 2432SOL     OW 9127   7.584  11.482  14.701
 2432SOL    HW1 9128   7.646  11.552  14.720
 2432SOL    HW2 9129   7.537  11.511  14.624
 2433SOL     OW 9130   0.933  14.819   4.840
 2433SOL    HW1 9131   0.993  14.811   4.915
 2433SOL    HW2 9132   0.982  14.871   4.776
 2434SOL     OW 9133   9.207  14.838   0.532
 2434SOL    HW1 9134   9.190  14.835   0.626
 2434SOL    HW2 9135   9.173  14.756   0.499
 2435SOL     OW 9136  11.320  10.759   2.493
 2435SOL    HW1 9137  11.239  10.712   2.476
 2435SOL    HW2 9138  11.377  10.695   2.534
 2436SOL     OW 9139   8.676  10.616   6.528
 2436SOL    HW1 9140   8.678  10.541   6.469
 2436SOL    HW2 9141   8.649  10.690   6.473
 2437SOL     OW 9142  12.644   6.072   8.060
 2437SOL    HW1 9143  12.627   5.978   8.057
 2437SOL    HW2 9144  12.587   6.109   7.993
 2438SOL     OW 9145   8.122   4.251  14.469
 2438SOL    HW1 9146   8.125   4.293  14.555
 2438SOL    HW2 9147   8.117   4.157  14.488
 2439SOL     OW 9148   0.515   4.672   3.559
 2439SOL    HW1 9149   0.478   4.588   3.585
 2439SOL    HW2 9150   0.598   4.650   3.515
 2440SOL     OW 9151   1.292   1.980   7.248
 2440SOL    HW1 9152   1.269   2.069   7.272
 2440SOL    HW2 9153   1.248   1.925   7.313
 2441SOL     OW 9154   0.829   5.604  10.814
 2441SOL    HW1 9155   0.891   5.550  10.767
 2441SOL    HW2 9156   0.876   5.685  10.833
 2442SOL     OW 9157  14.505   7.852   1.963
 2442SOL    HW1 9158  14.483   7.809   1.880
 2442SOL    HW2 9159  14.435   7.826   2.023
 2443SOL     OW 9160   6.942   9.695   8.187
 2443SOL    HW1 9161   6.958   9.602   8.173
 2443SOL    HW2 9162   7.019   9.739   8.149
 2444SOL     OW 9163   7.948   9.286   3.960
 2444SOL    HW1 9164   8.043   9.289   3.954
 2444SOL    HW2 9165   7.923   9.370   4.001
 2445SOL     OW 9166  10.770   3.864   5.699
 2445SOL    HW1 9167  10.859   3.855   5.665
 2445SOL    HW2 9168  10.760   3.788   5.757
 2446SOL     OW 9169   6.362   9.241   1.643
 2446SOL    HW1 9170   6.391   9.214   1.730
 2446SOL    HW2 9171   6.297   9.176   1.618
 2447SOL     OW 9172   2.983  12.978   8.876
 2447SOL    HW1 9173   2.953  12.898   8.832
 2447SOL    HW2 9174   2.910  13.040   8.865
 2448SOL     OW 9175   6.488   7.142   4.454
 2448SOL    HW1 9176   6.459   7.175   4.369
 2448SOL    HW2 9177   6.538   7.063   4.433
 2449SOL     OW 9178  14.488   3.814   0.253
 2449SOL    HW1 9179  14.461   3.860   0.333
 2449SOL    HW2 9180  14.416   3.753   0.235
 2450SOL     OW 9181   1.183   5.558  12.682
 2450SOL    HW1 9182   1.203   5.549  12.775
 2450SOL    HW2 9183   1.161   5.650  12.670
 2451SOL     OW 9184  10.357  12.732  13.031
 2451SOL    HW1 9185  10.443  12.759  12.998
 2451SOL    HW2 9186  10.316  12.813  13.062
 2452SOL     OW 9187   0.658   4.095  10.379
 2452SOL    HW1 9188   0.752   4.083  10.363
 2452SOL    HW2 9189   0.621   4.110  10.292
 2453SOL     OW 9190   6.021  14.807   9.231
 2453SOL    HW1 9191   6.062  14.803   9.317
 2453SOL    HW2 9192   5.933  14.842   9.248
 2454SOL     OW 9193   2.054   0.698   4.725
 2454SOL    HW1 9194   2.111   0.678   4.650
 2454SOL    HW2 9195   2.095   0.774   4.766
 2455SOL     OW 9196   1.141  10.094   8.173
 2455SOL    HW1 9197   1.092  10.165   8.130
 2455SOL    HW2 9198   1.113  10.015   8.127
 2456SOL     OW 9199   8.642   7.850  11.624
 2456SOL    HW1 9200   8.581   7.919  11.650
 2456SOL    HW2 9201   8.692   7.888  11.551
 2457SOL     OW 9202  13.518   9.419   5.242
 2457SOL    HW1 9203  13.436   9.418   5.292
 2457SOL    HW2 9204  13.566   9.342   5.273
 2458SOL     OW 9205   4.273   2.609   5.839
 2458SOL    HW1 9206   4.208   2.631   5.772
 2458SOL    HW2 9207   4.331   2.685   5.842
 2459SOL     OW 9208  14.333   1.511  12.730
 2459SOL    HW1 9209  14.361   1.559  12.808
 2459SOL    HW2 9210  14.412   1.502  12.678
 2460SOL     OW 9211   9.472   4.466   1.453
 2460SOL    HW1 9212   9.488   4.527   1.526
 2460SOL    HW2 9213   9.402   4.508   1.403
 2461SOL     OW 9214  13.242   8.712   0.132
 2461SOL    HW1 9215  13.230   8.799   0.095
 2461SOL    HW2 9216  13.187   8.711   0.210
 2462SOL     OW 9217  12.863   3.504   3.174
 2462SOL    HW1 9218  12.837   3.439   3.108
 2462SOL    HW2 9219  12.812   3.482   3.251
 2463SOL     OW 9220   9.877   5.012   8.001
 2463SOL    HW1 9221   9.845   5.046   8.084
 2463SOL    HW2 9222   9.870   4.917   8.009
 2464SOL     OW 9223   4.617   5.279   3.720
 2464SOL    HW1 9224   4.587   5.255   3.808
 2464SOL    HW2 9225   4.711   5.262   3.722
 2465SOL     OW 9226  12.807   7.660   5.352
 2465SOL    HW1 9227  12.835   7.746   5.323
 2465SOL    HW2 9228  12.882   7.603   5.336
 2466SOL     OW 9229   0.743  10.355   8.210
 2466SOL    HW1 9230   0.734  10.419   8.280
 2466SOL    HW2 9231   0.779  10.277   8.253
 2467SOL     OW 9232  10.858   3.926   0.231
 2467SOL    HW1 9233  10.786   3.909   0.291
 2467SOL    HW2 9234  10.917   3.851   0.242
 2468SOL     OW 9235   5.467   9.913   4.117
 2468SOL    HW1 9236   5.507   9.992   4.152
 2468SOL    HW2 9237   5.529   9.843   4.137
 2469SOL     OW 9238   1.778   2.802  13.066
 2469SOL    HW1 9239   1.827   2.720  13.065
 2469SOL    HW2 9240   1.776   2.829  12.974
 2470SOL     OW 9241   0.462  13.717   9.365
 2470SOL    HW1 9242   0.503  13.700   9.280
 2470SOL    HW2 9243   0.398  13.787   9.347
 2471SOL     OW 9244  10.878   9.154   4.411
 2471SOL    HW1 9245  10.800   9.211   4.417
 2471SOL    HW2 9246  10.951   9.213   4.428
 2472SOL     OW 9247  11.962   6.757  14.614
 2472SOL    HW1 9248  11.882   6.809  14.614
 2472SOL    HW2 9249  11.974   6.729  14.523
 2473SOL     OW 9250  11.797   1.260   1.981
 2473SOL    HW1 9251  11.736   1.297   1.918
 2473SOL    HW2 9252  11.815   1.172   1.948
 2474SOL     OW 9253  10.950   0.795   8.172
 2474SOL    HW1 9254  10.992   0.734   8.110
 2474SOL    HW2 9255  10.980   0.881   8.144
 2475SOL     OW 9256   8.816   9.967   8.630
 2475SOL    HW1 9257   8.782   9.897   8.687
 2475SOL    HW2 9258   8.838   9.922   8.549
 2476SOL     OW 9259  14.709  11.542   7.100
 2476SOL    HW1 9260  14.736  11.451   7.108
 2476SOL    HW2 9261  14.790  11.592   7.109
 2477SOL     OW 9262   1.994   6.880  14.180
 2477SOL    HW1 9263   1.987   6.877  14.084
 2477SOL    HW2 9264   1.976   6.790  14.208
 2478SOL     OW 9265   2.892   8.768  14.599
 2478SOL    HW1 9266   2.898   8.842  14.659
 2478SOL    HW2 9267   2.855   8.697  14.651
 2479SOL     OW 9268   1.003  13.834   6.170
 2479SOL    HW1 9269   0.970  13.756   6.215
 2479SOL    HW2 9270   1.098  13.825   6.172
 2480SOL     OW 9271   8.107   4.952   6.270
 2480SOL    HW1 9272   8.102   4.997   6.186
 2480SOL    HW2 9273   8.169   4.881   6.255
 2481SOL     OW 9274   2.125  11.636   4.741
 2481SOL    HW1 9275   2.051  11.657   4.798
 2481SOL    HW2 9276   2.185  11.710   4.752
 2482SOL     OW 9277   6.610   1.545  14.282
 2482SOL    HW1 9278   6.526   1.580  14.311
 2482SOL    HW2 9279   6.657   1.525  14.362
 2483SOL     OW 9280   5.098  11.367  11.796
 2483SOL    HW1 9281   5.131  11.365  11.706
 2483SOL    HW2 9282   5.011  11.405  11.789
 2484SOL     OW 9283  12.508   0.727   8.332
 2484SOL    HW1 9284  12.551   0.674   8.398
 2484SOL    HW2 9285  12.422   0.687   8.321
 2485SOL     OW 9286  13.633   1.844   2.038
 2485SOL    HW1 9287  13.591   1.929   2.052
 2485SOL    HW2 9288  13.727   1.862   2.050
 2486SOL     OW 9289  11.545   6.914   4.030
 2486SOL    HW1 9290  11.510   6.985   4.084
 2486SOL    HW2 9291  11.477   6.897   3.965
 2487SOL     OW 9292   4.537   5.561   1.145
 2487SOL    HW1 9293   4.578   5.634   1.191
 2487SOL    HW2 9294   4.456   5.598   1.109
 2488SOL     OW 9295   6.194   6.970   1.064
 2488SOL    HW1 9296   6.141   7.049   1.058
 2488SOL    HW2 9297   6.227   6.970   1.154
 2489SOL     OW 9298   1.689   1.638   0.838
 2489SOL    HW1 9299   1.677   1.732   0.847
 2489SOL    HW2 9300   1.689   1.605   0.927
 2490SOL     OW 9301   2.459   2.738   4.527
 2490SOL    HW1 9302   2.546   2.700   4.521
 2490SOL    HW2 9303   2.441   2.771   4.439
 2491SOL     OW 9304  12.334   7.680   4.397
 2491SOL    HW1 9305  12.273   7.730   4.344
 2491SOL    HW2 9306  12.280   7.609   4.434
 2492SOL     OW 9307   8.961  10.209   0.035
 2492SOL    HW1 9308   8.893  10.220   0.101
 2492SOL    HW2 9309   9.021  10.283   0.049
 2493SOL     OW 9310   2.343  11.714   8.062
 2493SOL    HW1 9311   2.385  11.741   7.980
 2493SOL    HW2 9312   2.310  11.626   8.044
 2494SOL     OW 9313   3.774   8.453   5.666
 2494SOL    HW1 9314   3.825   8.394   5.722
 2494SOL    HW2 9315   3.709   8.396   5.624
 2495SOL     OW 9316   2.653   1.907  13.680
 2495SOL    HW1 9317   2.689   1.980  13.731
 2495SOL    HW2 9318   2.655   1.937  13.589
 2496SOL     OW 9319  12.998  14.131   0.899
 2496SOL    HW1 9320  12.981  14.175   0.982
 2496SOL    HW2 9321  12.913  14.098   0.871
 2497SOL     OW 9322  13.773  12.468   3.453
 2497SOL    HW1 9323  13.716  12.536   3.490
 2497SOL    HW2 9324  13.773  12.398   3.518
 2498SOL     OW 9325  14.699  13.203   1.028
 2498SOL    HW1 9326  14.734  13.273   1.082
 2498SOL    HW2 9327  14.733  13.123   1.067
 2499SOL     OW 9328   1.461   8.947   7.695
 2499SOL    HW1 9329   1.543   8.987   7.724
 2499SOL    HW2 9330   1.416   9.017   7.647
 2500SOL     OW 9331  10.145   4.629   1.026
 2500SOL    HW1 9332  10.081   4.584   0.970
 2500SOL    HW2 9333  10.193   4.687   0.966
 2501SOL     OW 9334  13.651   3.666   9.933
 2501SOL    HW1 9335  13.677   3.603   9.865
 2501SOL    HW2 9336  13.677   3.751   9.898
 2502SOL     OW 9337  13.220   8.630   1.231
 2502SOL    HW1 9338  13.300   8.577   1.232
 2502SOL    HW2 9339  13.166   8.592   1.162
 2503SOL     OW 9340   1.781   2.631  13.984
 2503SOL    HW1 9341   1.820   2.551  13.948
 2503SOL    HW2 9342   1.705   2.601  14.032
 2504SOL     OW 9343  10.942   8.514   7.571
 2504SOL    HW1 9344  10.886   8.513   7.493
 2504SOL    HW2 9345  10.997   8.591   7.560
 2505SOL     OW 9346   2.085   5.499  13.018
 2505SOL    HW1 9347   2.103   5.477  12.926
 2505SOL    HW2 9348   1.999   5.459  13.035
 2506SOL     OW 9349  13.516  13.148   5.599
 2506SOL    HW1 9350  13.441  13.089   5.592
 2506SOL    HW2 9351  13.526  13.164   5.693
 2507SOL     OW 9352  13.608   3.395   9.584
 2507SOL    HW1 9353  13.640   3.472   9.630
 2507SOL    HW2 9354  13.682   3.334   9.586
 2508SOL     OW 9355  11.944   2.755   8.401
 2508SOL    HW1 9356  11.986   2.729   8.319
 2508SOL    HW2 9357  11.990   2.705   8.469
 2509SOL     OW 9358  10.673   8.530  11.576
 2509SOL    HW1 9359  10.668   8.475  11.497
 2509SOL    HW2 9360  10.730   8.482  11.636
 2510SOL     OW 9361   7.031   7.922   5.066
 2510SOL    HW1 9362   7.014   7.838   5.108
 2510SOL    HW2 9363   6.954   7.938   5.012
 2511SOL     OW 9364  13.980  13.284  14.707
 2511SOL    HW1 9365  13.927  13.341  14.651
 2511SOL    HW2 9366  14.022  13.344  14.769
 2512SOL     OW 9367   6.510   8.030   0.149
 2512SOL    HW1 9368   6.477   8.006   0.063
 2512SOL    HW2 9369   6.578   8.095   0.132
 2513SOL     OW 9370   1.173   2.986   3.080
 2513SOL    HW1 9371   1.144   3.030   3.000
 2513SOL    HW2 9372   1.268   2.992   3.077
 2514SOL     OW 9373   6.368   6.588   2.285
 2514SOL    HW1 9374   6.426   6.658   2.314
 2514SOL    HW2 9375   6.303   6.580   2.355
 2515SOL     OW 9376   4.112   4.546  14.301
 2515SOL    HW1 9377   4.021   4.563  14.279
 2515SOL    HW2 9378   4.138   4.619  14.357
 2516SOL     OW 9379   6.450  11.407   4.908
 2516SOL    HW1 9380   6.435  11.484   4.854
 2516SOL    HW2 9381   6.362  11.374   4.928
 2517SOL     OW 9382  10.218   9.395   7.572
 2517SOL    HW1 9383  10.180   9.349   7.646
 2517SOL    HW2 9384  10.306   9.420   7.601
 2518SOL     OW 9385   6.233  14.045   3.586
 2518SOL    HW1 9386   6.226  14.041   3.681
 2518SOL    HW2 9387   6.278  14.128   3.569
 2519SOL     OW 9388  13.493   8.921   2.817
 2519SOL    HW1 9389  13.431   8.858   2.853
 2519SOL    HW2 9390  13.563   8.926   2.883
 2520SOL     OW 9391   1.310   0.259   0.476
 2520SOL    HW1 9392   1.237   0.225   0.424
 2520SOL    HW2 9393   1.334   0.188   0.534
 2521SOL     OW 9394   3.233  13.967  13.034
 2521SOL    HW1 9395   3.222  14.045  12.981
 2521SOL    HW2 9396   3.145  13.944  13.062
 2522SOL     OW 9397  10.586   2.170   9.047
 2522SOL    HW1 9398  10.541   2.121   8.978
 2522SOL    HW2 9399  10.603   2.105   9.115
 2523SOL     OW 9400  14.282   5.824   6.593
 2523SOL    HW1 9401  14.211   5.828   6.529
 2523SOL    HW2 9402  14.343   5.892   6.566
 2524SOL     OW 9403  12.703   3.233   3.982
 2524SOL    HW1 9404  12.632   3.172   3.963
 2524SOL    HW2 9405  12.783   3.182   3.966
 2525SOL     OW 9406   9.305  12.530  12.469
 2525SOL    HW1 9407   9.290  12.470  12.542
 2525SOL    HW2 9408   9.226  12.525  12.417
 2526SOL     OW 9409   8.784   5.420  11.496
 2526SOL    HW1 9410   8.856   5.463  11.450
 2526SOL    HW2 9411   8.807   5.327  11.495
 2527SOL     OW 9412   2.979   6.858  11.120
 2527SOL    HW1 9413   2.940   6.795  11.060
 2527SOL    HW2 9414   2.942   6.942  11.094
 2528SOL     OW 9415   5.443  10.171   5.673
 2528SOL    HW1 9416   5.382  10.098   5.660
 2528SOL    HW2 9417   5.525  10.139   5.636
 2529SOL     OW 9418   3.135   7.903  13.104
 2529SOL    HW1 9419   3.158   7.950  13.023
 2529SOL    HW2 9420   3.146   7.811  13.082
 2530SOL     OW 9421   5.810   0.321   1.938
 2530SOL    HW1 9422   5.802   0.393   1.875
 2530SOL    HW2 9423   5.904   0.302   1.940
 2531SOL     OW 9424   1.908  11.138  14.153
 2531SOL    HW1 9425   1.994  11.164  14.185
 2531SOL    HW2 9426   1.863  11.102  14.230
 2532SOL     OW 9427  12.305  14.792   0.039
 2532SOL    HW1 9428  12.286  14.707  14.875
 2532SOL    HW2 9429  12.267  14.786   0.127
 2533SOL     OW 9430  11.444  14.579   9.921
 2533SOL    HW1 9431  11.420  14.554   9.832
 2533SOL    HW2 9432  11.392  14.658   9.939
 2534SOL     OW 9433   7.817   2.221   1.555
 2534SOL    HW1 9434   7.810   2.316   1.556
 2534SOL    HW2 9435   7.867   2.199   1.634
 2535SOL     OW 9436  10.412   8.756  10.148
 2535SOL    HW1 9437  10.404   8.683  10.086
 2535SOL    HW2 9438  10.387   8.833  10.097
 2536SOL     OW 9439  11.721  14.374   0.669
 2536SOL    HW1 9440  11.781  14.377   0.743
 2536SOL    HW2 9441  11.769  14.326   0.601
 2537SOL     OW 9442  13.338   4.403   4.636
 2537SOL    HW1 9443  13.385   4.479   4.671
 2537SOL    HW2 9444  13.343   4.338   4.706
 2538SOL     OW 9445   6.779  10.342   2.957
 2538SOL    HW1 9446   6.823  10.340   3.043
 2538SOL    HW2 9447   6.732  10.259   2.952
 2539SOL     OW 9448   4.758  12.799   1.350
 2539SOL    HW1 9449   4.796  12.771   1.267
 2539SOL    HW2 9450   4.832  12.804   1.410
 2540SOL     OW 9451   8.414   4.723   3.711
 2540SOL    HW1 9452   8.421   4.730   3.615
 2540SOL    HW2 9453   8.399   4.629   3.726
 2541SOL     OW 9454  11.862   7.249  12.436
 2541SOL    HW1 9455  11.956   7.265  12.430
 2541SOL    HW2 9456  11.833   7.303  12.509
 2542SOL     OW 9457   6.594   9.167   0.578
 2542SOL    HW1 9458   6.641   9.114   0.643
 2542SOL    HW2 9459   6.610   9.122   0.495
 2543SOL     OW 9460   9.551   9.732  12.528
 2543SOL    HW1 9461   9.541   9.800  12.594
 2543SOL    HW2 9462   9.489   9.757  12.458
 2544SOL     OW 9463   4.816  14.409  11.026
 2544SOL    HW1 9464   4.801  14.493  10.982
 2544SOL    HW2 9465   4.728  14.378  11.048
 2545SOL     OW 9466   3.749   6.919  14.564
 2545SOL    HW1 9467   3.844   6.933  14.557
 2545SOL    HW2 9468   3.738   6.874  14.648
 2546SOL     OW 9469   1.036  11.493   9.216
 2546SOL    HW1 9470   1.072  11.581   9.204
 2546SOL    HW2 9471   0.976  11.482   9.142
 2547SOL     OW 9472   0.910   1.683   5.961
 2547SOL    HW1 9473   0.854   1.760   5.959
 2547SOL    HW2 9474   0.993   1.712   5.923
 2548SOL     OW 9475   7.227  12.384   7.175
 2548SOL    HW1 9476   7.159  12.316   7.172
 2548SOL    HW2 9477   7.300  12.343   7.220
 2549SOL     OW 9478   8.716   8.948   2.039
 2549SOL    HW1 9479   8.750   9.037   2.045
 2549SOL    HW2 9480   8.792   8.893   2.021
 2550SOL     OW 9481   2.463  13.977   0.609
 2550SOL    HW1 9482   2.536  14.038   0.606
 2550SOL    HW2 9483   2.457  13.942   0.520
 2551SOL     OW 9484   2.892  12.998  12.230
 2551SOL    HW1 9485   2.975  13.045  12.227
 2551SOL    HW2 9486   2.855  13.007  12.142
 2552SOL     OW 9487   2.284   1.276  11.422
 2552SOL    HW1 9488   2.274   1.181  11.420
 2552SOL    HW2 9489   2.234   1.304  11.499
 2553SOL     OW 9490   1.725  14.496  12.597
 2553SOL    HW1 9491   1.809  14.472  12.558
 2553SOL    HW2 9492   1.674  14.415  12.595
 2554SOL     OW 9493  14.845  12.234   5.366
 2554SOL    HW1 9494   0.054  12.188   5.367
 2554SOL    HW2 9495  14.781  12.166   5.386
 2555SOL     OW 9496   7.540   4.280  11.363
 2555SOL    HW1 9497   7.484   4.206  11.390
 2555SOL    HW2 9498   7.629   4.245  11.366
 2556SOL     OW 9499   1.328  14.848   9.277
 2556SOL    HW1 9500   1.300  14.825   9.366
 2556SOL    HW2 9501   1.249   0.007   9.236
 2557SOL     OW 9502   5.955   1.942   4.463
 2557SOL    HW1 9503   5.966   1.861   4.512
 2557SOL    HW2 9504   6.037   1.990   4.474
 2558SOL     OW 9505   0.761  13.079   2.234
 2558SOL    HW1 9506   0.686  13.046   2.283
 2558SOL    HW2 9507   0.812  13.002   2.211
 2559SOL     OW 9508  14.605   7.073   7.347
 2559SOL    HW1 9509  14.613   7.002   7.410
 2559SOL    HW2 9510  14.521   7.057   7.303
 2560SOL     OW 9511   0.656  10.126  10.409
 2560SOL    HW1 9512   0.681  10.035  10.429
 2560SOL    HW2 9513   0.609  10.119  10.325
 2561SOL     OW 9514   3.965  10.124   2.933
 2561SOL    HW1 9515   3.879  10.120   2.892
 2561SOL    HW2 9516   3.949  10.100   3.024
 2562SOL     OW 9517  13.568   5.161   4.661
 2562SOL    HW1 9518  13.502   5.227   4.682
 2562SOL    HW2 9519  13.649   5.195   4.699
 2563SOL     OW 9520   0.713   6.577   5.855
 2563SOL    HW1 9521   0.723   6.512   5.924
 2563SOL    HW2 9522   0.761   6.654   5.887
 2564SOL     OW 9523  10.969  12.507   2.792
 2564SOL    HW1 9524  10.946  12.533   2.703
 2564SOL    HW2 9525  10.885  12.492   2.836
 2565SOL     OW 9526   8.755   1.780   7.930
 2565SOL    HW1 9527   8.820   1.781   7.860
 2565SOL    HW2 9528   8.692   1.712   7.903
 2566SOL     OW 9529   8.142  13.217   0.137
 2566SOL    HW1 9530   8.135  13.196   0.044
 2566SOL    HW2 9531   8.051  13.229   0.165
 2567SOL     OW 9532  10.794  12.695   6.202
 2567SOL    HW1 9533  10.770  12.783   6.173
 2567SOL    HW2 9534  10.736  12.637   6.152
 2568SOL     OW 9535   0.982   6.702   3.434
 2568SOL    HW1 9536   1.069   6.679   3.466
 2568SOL    HW2 9537   0.953   6.625   3.386
 2569SOL     OW 9538   7.864   5.980   4.360
 2569SOL    HW1 9539   7.913   6.035   4.299
 2569SOL    HW2 9540   7.815   6.042   4.415
 2570SOL     OW 9541   5.559  11.228  11.409
 2570SOL    HW1 9542   5.507  11.195  11.482
 2570SOL    HW2 9543   5.568  11.322  11.426
 2571SOL     OW 9544   7.338  11.684   4.132
 2571SOL    HW1 9545   7.303  11.754   4.188
 2571SOL    HW2 9546   7.261  11.630   4.112
 2572SOL     OW 9547   9.169   7.870   2.333
 2572SOL    HW1 9548   9.075   7.864   2.319
 2572SOL    HW2 9549   9.208   7.834   2.253
 2573SOL     OW 9550   7.516  14.015   5.865
 2573SOL    HW1 9551   7.611  14.023   5.857
 2573SOL    HW2 9552   7.487  14.101   5.895
 2574SOL     OW 9553  12.443   0.590   2.342
 2574SOL    HW1 9554  12.508   0.585   2.271
 2574SOL    HW2 9555  12.406   0.678   2.334
 2575SOL     OW 9556  14.025  10.044   9.952
 2575SOL    HW1 9557  14.104  10.004   9.987
 2575SOL    HW2 9558  14.050  10.075   9.865
 2576SOL     OW 9559   1.237  12.954   1.606
 2576SOL    HW1 9560   1.307  12.904   1.565
 2576SOL    HW2 9561   1.165  12.950   1.543
 2577SOL     OW 9562  13.468   3.459   1.865
 2577SOL    HW1 9563  13.391   3.513   1.848
 2577SOL    HW2 9564  13.542   3.516   1.843
 2578SOL     OW 9565   0.951   9.509  10.449
 2578SOL    HW1 9566   0.965   9.582  10.389
 2578SOL    HW2 9567   0.987   9.540  10.533
 2579SOL     OW 9568   5.194   1.006   8.962
 2579SOL    HW1 9569   5.264   1.071   8.969
 2579SOL    HW2 9570   5.192   0.983   8.869
 2580SOL     OW 9571   1.721   5.606  12.481
 2580SOL    HW1 9572   1.660   5.564  12.542
 2580SOL    HW2 9573   1.745   5.688  12.525
 2581SOL     OW 9574  11.361   0.419   2.627
 2581SOL    HW1 9575  11.375   0.396   2.718
 2581SOL    HW2 9576  11.434   0.478   2.606
 2582SOL     OW 9577   2.798   5.532   7.397
 2582SOL    HW1 9578   2.824   5.445   7.426
 2582SOL    HW2 9579   2.881   5.580   7.389
 2583SOL     OW 9580  11.878   3.509   8.375
 2583SOL    HW1 9581  11.789   3.504   8.411
 2583SOL    HW2 9582  11.865   3.533   8.283
 2584SOL     OW 9583  12.899  14.029  11.305
 2584SOL    HW1 9584  12.928  13.989  11.223
 2584SOL    HW2 9585  12.808  14.054  11.289
 2585SOL     OW 9586   3.194  11.666  12.307
 2585SOL    HW1 9587   3.099  11.669  12.314
 2585SOL    HW2 9588   3.224  11.747  12.348
 2586SOL     OW 9589   4.544   7.881   6.298
 2586SOL    HW1 9590   4.611   7.889   6.231
 2586SOL    HW2 9591   4.561   7.954   6.358
 2587SOL     OW 9592   7.352   9.152  12.403
 2587SOL    HW1 9593   7.396   9.229  12.440
 2587SOL    HW2 9594   7.422   9.088  12.391
 2588SOL     OW 9595   0.537   5.239  14.832
 2588SOL    HW1 9596   0.533   5.208   0.046
 2588SOL    HW2 9597   0.450   5.222  14.796
 2589SOL     OW 9598   7.522  14.601   9.506
 2589SOL    HW1 9599   7.504  14.541   9.579
 2589SOL    HW2 9600   7.615  14.622   9.514
 2590SOL     OW 9601   0.771   4.137   7.581
 2590SOL    HW1 9602   0.743   4.225   7.606
 2590SOL    HW2 9603   0.839   4.150   7.516
 2591SOL     OW 9604  11.951   0.506  14.546
 2591SOL    HW1 9605  11.936   0.531  14.638
 2591SOL    HW2 9606  12.043   0.529  14.530
 2592SOL     OW 9607   6.558  13.234  12.916
 2592SOL    HW1 9608   6.608  13.233  12.997
 2592SOL    HW2 9609   6.597  13.303  12.863
 2593SOL     OW 9610  13.152  12.796  12.236
 2593SOL    HW1 9611  13.094  12.867  12.262
 2593SOL    HW2 9612  13.143  12.731  12.305
 2594SOL     OW 9613  10.259   3.626   2.524
 2594SOL    HW1 9614  10.234   3.675   2.602
 2594SOL    HW2 9615  10.238   3.535   2.545
 2595SOL     OW 9616   2.100  10.304   4.082
 2595SOL    HW1 9617   2.161  10.376   4.094
 2595SOL    HW2 9618   2.030  10.339   4.027
 2596SOL     OW 9619  14.438   1.324   5.360
 2596SOL    HW1 9620  14.464   1.284   5.278
 2596SOL    HW2 9621  14.396   1.407   5.334
 2597SOL     OW 9622   9.929   8.660  12.611
 2597SOL    HW1 9623   9.858   8.613  12.654
 2597SOL    HW2 9624   9.905   8.661  12.518
 2598SOL     OW 9625   7.507   7.262  13.161
 2598SOL    HW1 9626   7.472   7.331  13.217
 2598SOL    HW2 9627   7.557   7.309  13.094
 2599SOL     OW 9628  12.682   2.906   3.330
 2599SOL    HW1 9629  12.613   2.840   3.334
 2599SOL    HW2 9630  12.764   2.856   3.334
 2600SOL     OW 9631  10.516   3.761   5.485
 2600SOL    HW1 9632  10.460   3.709   5.427
 2600SOL    HW2 9633  10.499   3.727   5.573
 2601SOL     OW 9634   5.166  14.709   4.773
 2601SOL    HW1 9635   5.176  14.695   4.868
 2601SOL    HW2 9636   5.227  14.779   4.752
 2602SOL     OW 9637   2.184   8.220   7.585
 2602SOL    HW1 9638   2.112   8.258   7.635
 2602SOL    HW2 9639   2.162   8.238   7.493
 2603SOL     OW 9640  14.824   5.749   1.107
 2603SOL    HW1 9641  14.830   5.839   1.137
 2603SOL    HW2 9642   0.006   5.745   1.031
 2604SOL     OW 9643   9.810   5.697  12.905
 2604SOL    HW1 9644   9.762   5.767  12.862
 2604SOL    HW2 9645   9.830   5.730  12.992
 2605SOL     OW 9646  14.798   9.289   9.494
 2605SOL    HW1 9647  14.818   9.213   9.440
 2605SOL    HW2 9648  14.836   9.364   9.447
 2606SOL     OW 9649  14.724   5.499   1.161
 2606SOL    HW1 9650  14.800   5.446   1.138
 2606SOL    HW2 9651  14.750   5.589   1.142
 2607SOL     OW 9652   8.059   5.804   1.847
 2607SOL    HW1 9653   7.969   5.831   1.860
 2607SOL    HW2 9654   8.111   5.872   1.890
 2608SOL     OW 9655  11.051  10.346   1.420
 2608SOL    HW1 9656  10.987  10.396   1.471
 2608SOL    HW2 9657  11.106  10.304   1.486
 2609SOL     OW 9658   4.794   8.672  14.700
 2609SOL    HW1 9659   4.780   8.675  14.794
 2609SOL    HW2 9660   4.725   8.728  14.664
 2610SOL     OW 9661   6.401  11.928   7.975
 2610SOL    HW1 9662   6.344  11.976   7.915
 2610SOL    HW2 9663   6.483  11.917   7.928
 2611SOL     OW 9664   2.563  13.830   8.997
 2611SOL    HW1 9665   2.555  13.740   8.967
 2611SOL    HW2 9666   2.521  13.883   8.929
 2612SOL     OW 9667  12.596   0.497   4.908
 2612SOL    HW1 9668  12.680   0.470   4.872
 2612SOL    HW2 9669  12.616   0.570   4.966
 2613SOL     OW 9670   2.272   2.846   0.429
 2613SOL    HW1 9671   2.341   2.832   0.364
 2613SOL    HW2 9672   2.209   2.776   0.412
 2614SOL     OW 9673   2.117  12.711   7.432
 2614SOL    HW1 9674   2.157  12.731   7.347
 2614SOL    HW2 9675   2.033  12.757   7.429
 2615SOL     OW 9676   3.101   2.011   6.653
 2615SOL    HW1 9677   3.020   2.042   6.613
 2615SOL    HW2 9678   3.148   1.968   6.581
 2616SOL     OW 9679  13.881  13.026   1.345
 2616SOL    HW1 9680  13.911  12.937   1.365
 2616SOL    HW2 9681  13.801  13.013   1.294
 2617SOL     OW 9682   5.952   9.071   9.874
 2617SOL    HW1 9683   6.034   9.026   9.857
 2617SOL    HW2 9684   5.887   9.001   9.883
 2618SOL     OW 9685   6.488  14.253   9.575
 2618SOL    HW1 9686   6.556  14.297   9.627
 2618SOL    HW2 9687   6.501  14.160   9.593
 2619SOL     OW 9688   0.519   6.764   5.487
 2619SOL    HW1 9689   0.519   6.768   5.583
 2619SOL    HW2 9690   0.429   6.741   5.464
 2620SOL     OW 9691   0.238   2.569   2.936
 2620SOL    HW1 9692   0.324   2.527   2.928
 2620SOL    HW2 9693   0.258   2.656   2.970
 2621SOL     OW 9694  11.254  13.559   6.169
 2621SOL    HW1 9695  11.322  13.557   6.236
 2621SOL    HW2 9696  11.301  13.576   6.087
 2622SOL     OW 9697   4.468  10.527   8.359
 2622SOL    HW1 9698   4.508  10.500   8.276
 2622SOL    HW2 9699   4.382  10.560   8.335
 2623SOL     OW 9700  12.380   7.224   5.144
 2623SOL    HW1 9701  12.396   7.314   5.114
 2623SOL    HW2 9702  12.289   7.225   5.175
 2624SOL     OW 9703  12.834  10.202   1.537
 2624SOL    HW1 9704  12.909  10.246   1.498
 2624SOL    HW2 9705  12.764  10.268   1.536
 2625SOL     OW 9706   0.208   5.364  12.742
 2625SOL    HW1 9707   0.179   5.352  12.833
 2625SOL    HW2 9708   0.235   5.276  12.714
 2626SOL     OW 9709  10.191  10.348   0.337
 2626SOL    HW1 9710  10.143  10.332   0.419
 2626SOL    HW2 9711  10.237  10.431   0.351
 2627SOL     OW 9712  12.699   1.682  12.297
 2627SOL    HW1 9713  12.633   1.750  12.281
 2627SOL    HW2 9714  12.668   1.637  12.375
 2628SOL     OW 9715   3.408  12.758   1.369
 2628SOL    HW1 9716   3.456  12.837   1.392
 2628SOL    HW2 9717   3.451  12.688   1.419
 2629SOL     OW 9718   7.776   6.363   9.108
 2629SOL    HW1 9719   7.720   6.403   9.042
 2629SOL    HW2 9720   7.750   6.404   9.191
 2630SOL     OW 9721   8.787  13.205   7.330
 2630SOL    HW1 9722   8.822  13.267   7.266
 2630SOL    HW2 9723   8.807  13.119   7.294
 2631SOL     OW 9724  13.642   3.756  12.060
 2631SOL    HW1 9725  13.643   3.754  12.156
 2631SOL    HW2 9726  13.675   3.670  12.034
 2632SOL     OW 9727   0.589   1.920  12.436
 2632SOL    HW1 9728   0.619   1.968  12.513
 2632SOL    HW2 9729   0.644   1.953  12.365
 2633SOL     OW 9730   0.682   9.100   8.286
 2633SOL    HW1 9731   0.614   9.033   8.290
 2633SOL    HW2 9732   0.707   9.103   8.194
 2634SOL     OW 9733  10.226   8.068   1.973
 2634SOL    HW1 9734  10.159   8.132   1.949
 2634SOL    HW2 9735  10.308   8.117   1.975
 2635SOL     OW 9736  10.696  13.299  10.030
 2635SOL    HW1 9737  10.770  13.300   9.970
 2635SOL    HW2 9738  10.657  13.212  10.018
 2636SOL     OW 9739   0.591  10.737   8.176
 2636SOL    HW1 9740   0.546  10.668   8.224
 2636SOL    HW2 9741   0.574  10.717   8.084
 2637SOL     OW 9742  11.368  11.381   1.800
 2637SOL    HW1 9743  11.433  11.444   1.829
 2637SOL    HW2 9744  11.373  11.310   1.863
 2638SOL     OW 9745  11.244   2.932  12.718
 2638SOL    HW1 9746  11.284   2.929  12.631
 2638SOL    HW2 9747  11.318   2.924  12.779
 2639SOL     OW 9748  11.090   2.452  11.922
 2639SOL    HW1 9749  11.172   2.411  11.950
 2639SOL    HW2 9750  11.112   2.544  11.909
 2640SOL     OW 9751  11.426   1.090  10.364
 2640SOL    HW1 9752  11.416   1.162  10.302
 2640SOL    HW2 9753  11.341   1.081  10.405
 2641SOL     OW 9754  13.033  11.194   7.100
 2641SOL    HW1 9755  13.099  11.137   7.140
 2641SOL    HW2 9756  12.990  11.138   7.035
 2642SOL     OW 9757   1.163  12.968  13.564
 2642SOL    HW1 9758   1.229  13.034  13.544
 2642SOL    HW2 9759   1.092  13.016  13.606
 2643SOL     OW 9760   8.911  14.818   2.048
 2643SOL    HW1 9761   8.873  14.745   1.999
 2643SOL    HW2 9762   8.992  14.838   2.002
 2644SOL     OW 9763   1.996   6.962  13.029
 2644SOL    HW1 9764   1.984   6.979  12.936
 2644SOL    HW2 9765   2.064   6.895  13.034
 2645SOL     OW 9766   3.369   1.123  13.599
 2645SOL    HW1 9767   3.340   1.056  13.536
 2645SOL    HW2 9768   3.352   1.206  13.555
 2646SOL     OW 9769   8.946   9.420  12.988
 2646SOL    HW1 9770   9.009   9.405  12.918
 2646SOL    HW2 9771   8.897   9.498  12.959
 2647SOL     OW 9772   6.250   3.166  13.796
 2647SOL    HW1 9773   6.196   3.237  13.830
 2647SOL    HW2 9774   6.214   3.087  13.838
 2648SOL     OW 9775  13.272   2.998  10.236
 2648SOL    HW1 9776  13.263   2.981  10.329
 2648SOL    HW2 9777  13.266   2.912  10.194
 2649SOL     OW 9778   0.701   1.069   4.089
 2649SOL    HW1 9779   0.675   1.014   4.163
 2649SOL    HW2 9780   0.678   1.018   4.011
 2650SOL     OW 9781  10.177   8.112   9.346
 2650SOL    HW1 9782  10.124   8.044   9.387
 2650SOL    HW2 9783  10.166   8.097   9.252
 2651SOL     OW 9784   9.288  11.707  14.138
 2651SOL    HW1 9785   9.273  11.755  14.057
 2651SOL    HW2 9786   9.378  11.728  14.163
 2652SOL     OW 9787   2.377   6.407   8.580
 2652SOL    HW1 9788   2.469   6.386   8.563
 2652SOL    HW2 9789   2.370   6.411   8.675
 2653SOL     OW 9790   5.109   0.593   5.694
 2653SOL    HW1 9791   5.094   0.608   5.600
 2653SOL    HW2 9792   5.046   0.650   5.738
 2654SOL     OW 9793   0.295   9.452   5.539
 2654SOL    HW1 9794   0.238   9.434   5.464
 2654SOL    HW2 9795   0.367   9.504   5.502
 2655SOL     OW 9796   5.245   4.053   6.802
 2655SOL    HW1 9797   5.230   4.085   6.714
 2655SOL    HW2 9798   5.324   4.098   6.831
 2656SOL     OW 9799   0.697   5.484  14.646
 2656SOL    HW1 9800   0.611   5.442  14.644
 2656SOL    HW2 9801   0.707   5.523  14.559
 2657SOL     OW 9802   5.990   6.087   1.742
 2657SOL    HW1 9803   5.957   6.104   1.654
 2657SOL    HW2 9804   6.002   6.173   1.781
 2658SOL     OW 9805   8.748  12.567  10.335
 2658SOL    HW1 9806   8.702  12.650  10.329
 2658SOL    HW2 9807   8.832  12.588  10.375
 2659SOL     OW 9808   0.802  13.415  12.643
 2659SOL    HW1 9809   0.707  13.420  12.657
 2659SOL    HW2 9810   0.835  13.500  12.672
 2660SOL     OW 9811   5.398   9.477  13.534
 2660SOL    HW1 9812   5.312   9.460  13.575
 2660SOL    HW2 9813   5.460   9.434  13.592
 2661SOL     OW 9814  12.584  12.473   0.027
 2661SOL    HW1 9815  12.663  12.419   0.034
 2661SOL    HW2 9816  12.609  12.543  14.842
 2662SOL     OW 9817   2.213  13.561   3.870
 2662SOL    HW1 9818   2.206  13.478   3.824
 2662SOL    HW2 9819   2.164  13.548   3.951
 2663SOL     OW 9820  13.379   0.081   7.580
 2663SOL    HW1 9821  13.401   0.050   7.492
 2663SOL    HW2 9822  13.317   0.153   7.565
 2664SOL     OW 9823   0.248   5.847   8.487
 2664SOL    HW1 9824   0.167   5.808   8.452
 2664SOL    HW2 9825   0.318   5.800   8.442
 2665SOL     OW 9826  14.813   9.883   7.793
 2665SOL    HW1 9827  14.732   9.928   7.768
 2665SOL    HW2 9828  14.820   9.896   7.888
 2666SOL     OW 9829   6.062   0.902   4.272
 2666SOL    HW1 9830   5.970   0.917   4.294
 2666SOL    HW2 9831   6.061   0.874   4.180
 2667SOL     OW 9832   7.887  14.472   5.432
 2667SOL    HW1 9833   7.915  14.452   5.522
 2667SOL    HW2 9834   7.801  14.431   5.424
 2668SOL     OW 9835  13.216   3.057   6.957
 2668SOL    HW1 9836  13.156   2.996   6.915
 2668SOL    HW2 9837  13.178   3.073   7.044
 2669SOL     OW 9838  13.147  12.413   6.256
 2669SOL    HW1 9839  13.147  12.403   6.160
 2669SOL    HW2 9840  13.222  12.361   6.285
 2670SOL     OW 9841   5.363   2.418   3.181
 2670SOL    HW1 9842   5.388   2.389   3.093
 2670SOL    HW2 9843   5.396   2.349   3.239
 2671SOL     OW 9844   8.902   3.718   3.882
 2671SOL    HW1 9845   8.885   3.810   3.860
 2671SOL    HW2 9846   8.822   3.688   3.923
 2672SOL     OW 9847   5.480  10.094   8.260
 2672SOL    HW1 9848   5.437  10.078   8.344
 2672SOL    HW2 9849   5.562  10.137   8.283
 2673SOL     OW 9850  10.855  14.653   1.939
 2673SOL    HW1 9851  10.942  14.666   1.976
 2673SOL    HW2 9852  10.870  14.607   1.856
 2674SOL     OW 9853   3.158   7.044   1.203
 2674SOL    HW1 9854   3.217   7.118   1.219
 2674SOL    HW2 9855   3.194   7.002   1.125
 2675SOL     OW 9856  14.225   5.109   8.715
 2675SOL    HW1 9857  14.141   5.097   8.760
 2675SOL    HW2 9858  14.245   5.023   8.679
 2676SOL     OW 9859  14.066   0.379  12.684
 2676SOL    HW1 9860  14.071   0.388  12.588
 2676SOL    HW2 9861  14.157   0.390  12.713
 2677SOL     OW 9862  12.496   9.094   9.752
 2677SOL    HW1 9863  12.541   9.160   9.699
 2677SOL    HW2 9864  12.407   9.093   9.718
 2678SOL     OW 9865   0.471   4.310   1.586
 2678SOL    HW1 9866   0.510   4.304   1.673
 2678SOL    HW2 9867   0.377   4.303   1.602
 2679SOL     OW 9868   9.397   7.647  10.471
 2679SOL    HW1 9869   9.325   7.691  10.425
 2679SOL    HW2 9870   9.379   7.554  10.461
 2680SOL     OW 9871  13.049   0.103   8.291
 2680SOL    HW1 9872  13.046   0.061   8.377
 2680SOL    HW2 9873  12.958   0.119   8.268
 2681SOL     OW 9874   1.881  11.779   4.844
 2681SOL    HW1 9875   1.801  11.802   4.891
 2681SOL    HW2 9876   1.938  11.741   4.911
 2682SOL     OW 9877   5.863  13.454   7.541
 2682SOL    HW1 9878   5.860  13.462   7.636
 2682SOL    HW2 9879   5.911  13.373   7.525
 2683SOL     OW 9880   7.946   2.768   3.696
 2683SOL    HW1 9881   7.920   2.753   3.605
 2683SOL    HW2 9882   7.914   2.692   3.744
 2684SOL     OW 9883   8.362   0.392   5.071
 2684SOL    HW1 9884   8.289   0.426   5.020
 2684SOL    HW2 9885   8.352   0.430   5.158
 2685SOL     OW 9886   5.280   1.795   4.444
 2685SOL    HW1 9887   5.313   1.874   4.402
 2685SOL    HW2 9888   5.292   1.726   4.379
 2686SOL     OW 9889   2.618  10.029   0.078
 2686SOL    HW1 9890   2.709  10.058   0.089
 2686SOL    HW2 9891   2.589  10.071  14.873
 2687SOL     OW 9892   3.877   6.739   0.941
 2687SOL    HW1 9893   3.920   6.815   0.980
 2687SOL    HW2 9894   3.897   6.745   0.848
 2688SOL     OW 9895  12.299   5.191   0.429
 2688SOL    HW1 9896  12.290   5.105   0.469
 2688SOL    HW2 9897  12.290   5.175   0.335
 2689SOL     OW 9898   9.761   0.712   2.409
 2689SOL    HW1 9899   9.700   0.757   2.469
 2689SOL    HW2 9900   9.812   0.654   2.465
 2690SOL     OW 9901   7.736   7.828  11.285
 2690SOL    HW1 9902   7.767   7.779  11.361
 2690SOL    HW2 9903   7.644   7.801  11.275
 2691SOL     OW 9904  12.193   8.032   5.747
 2691SOL    HW1 9905  12.217   8.105   5.689
 2691SOL    HW2 9906  12.169   8.074   5.829
 2692SOL     OW 9907   3.322   7.305   1.358
 2692SOL    HW1 9908   3.347   7.390   1.392
 2692SOL    HW2 9909   3.286   7.258   1.434
 2693SOL     OW 9910   2.227   6.292   4.515
 2693SOL    HW1 9911   2.156   6.315   4.455
 2693SOL    HW2 9912   2.303   6.280   4.458
 2694SOL     OW 9913   6.538  14.725  10.980
 2694SOL    HW1 9914   6.558  14.815  10.953
 2694SOL    HW2 9915   6.480  14.736  11.055
 2695SOL     OW 9916   1.201   7.861   4.875
 2695SOL    HW1 9917   1.285   7.880   4.916
 2695SOL    HW2 9918   1.137   7.877   4.943
 2696SOL     OW 9919   0.591   9.738   3.742
 2696SOL    HW1 9920   0.674   9.692   3.725
 2696SOL    HW2 9921   0.529   9.669   3.762
 2697SOL     OW 9922   0.496   5.210   3.871
 2697SOL    HW1 9923   0.455   5.132   3.834
 2697SOL    HW2 9924   0.568   5.177   3.925
 2698SOL     OW 9925  11.084  14.199   4.740
 2698SOL    HW1 9926  11.129  14.277   4.708
 2698SOL    HW2 9927  11.005  14.232   4.783
 2699SOL     OW 9928   5.352   8.149   8.082
 2699SOL    HW1 9929   5.321   8.156   8.172
 2699SOL    HW2 9930   5.297   8.082   8.042
 2700SOL     OW 9931   6.789   4.247   4.641
 2700SOL    HW1 9932   6.856   4.183   4.619
 2700SOL    HW2 9933   6.831   4.307   4.702
 2701SOL     OW 9934   2.848   8.471  13.068
 2701SOL    HW1 9935   2.856   8.399  13.006
 2701SOL    HW2 9936   2.936   8.506  13.077
 2702SOL     OW 9937   4.562  14.790   3.923
 2702SOL    HW1 9938   4.510  14.849   3.977
 2702SOL    HW2 9939   4.514  14.706   3.925
 2703SOL     OW 9940   8.881  11.725   9.243
 2703SOL    HW1 9941   8.946  11.670   9.286
 2703SOL    HW2 9942   8.883  11.697   9.151
 2704SOL     OW 9943   8.810   3.273   8.301
 2704SOL    HW1 9944   8.779   3.361   8.323
 2704SOL    HW2 9945   8.905   3.281   8.300
 2705SOL     OW 9946   3.009   5.369   4.238
 2705SOL    HW1 9947   3.099   5.382   4.208
 2705SOL    HW2 9948   2.994   5.441   4.299
 2706SOL     OW 9949   1.859   9.030   1.610
 2706SOL    HW1 9950   1.763   9.037   1.604
 2706SOL    HW2 9951   1.878   8.941   1.579
 2707SOL     OW 9952   9.210   3.324  14.813
 2707SOL    HW1 9953   9.229   3.242  14.767
 2707SOL    HW2 9954   9.124   3.350  14.782
 2708SOL     OW 9955  11.323  11.172  14.420
 2708SOL    HW1 9956  11.253  11.238  14.414
 2708SOL    HW2 9957  11.403  11.221  14.402
 2709SOL     OW 9958   9.564  11.409   2.867
 2709SOL    HW1 9959   9.555  11.503   2.853
 2709SOL    HW2 9960   9.616  11.378   2.793
 2710SOL     OW 9961  10.236   3.724   5.331
 2710SOL    HW1 9962  10.290   3.792   5.290
 2710SOL    HW2 9963  10.285   3.643   5.316
 2711SOL     OW 9964  11.494   1.208   3.039
 2711SOL    HW1 9965  11.400   1.191   3.032
 2711SOL    HW2 9966  11.508   1.289   2.991
 2712SOL     OW 9967  10.740   7.238   7.367
 2712SOL    HW1 9968  10.763   7.221   7.275
 2712SOL    HW2 9969  10.746   7.153   7.409
 2713SOL     OW 9970  12.801   7.965  12.474
 2713SOL    HW1 9971  12.867   8.003  12.533
 2713SOL    HW2 9972  12.718   7.976  12.521
 2714SOL     OW 9973  13.356  11.224   8.812
 2714SOL    HW1 9974  13.286  11.283   8.840
 2714SOL    HW2 9975  13.419  11.226   8.884
 2715SOL     OW 9976  12.595   0.758  10.320
 2715SOL    HW1 9977  12.566   0.804  10.241
 2715SOL    HW2 9978  12.690   0.749  10.309
 2716SOL     OW 9979   4.235   7.901  13.815
 2716SOL    HW1 9980   4.141   7.886  13.828
 2716SOL    HW2 9981   4.246   7.907  13.720
 2717SOL     OW 9982  12.152   1.588   8.506
 2717SOL    HW1 9983  12.169   1.599   8.412
 2717SOL    HW2 9984  12.196   1.507   8.529
 2718SOL     OW 9985   7.997   6.615   4.198
 2718SOL    HW1 9986   7.948   6.690   4.163
 2718SOL    HW2 9987   8.088   6.646   4.203
 2719SOL     OW 9988  11.770   5.673   1.325
 2719SOL    HW1 9989  11.678   5.686   1.302
 2719SOL    HW2 9990  11.775   5.581   1.352
 2720SOL     OW 9991  10.746   9.030   6.675
 2720SOL    HW1 9992  10.767   9.122   6.658
 2720SOL    HW2 9993  10.763   9.018   6.768
 2721SOL     OW 9994   4.727   0.584  11.340
 2721SOL    HW1 9995   4.690   0.577  11.427
 2721SOL    HW2 9996   4.772   0.669  11.340
 2722SOL     OW 9997  10.415  10.633   1.862
 2722SOL    HW1 9998  10.411  10.537   1.862
 2722SOL    HW2 9999  10.328  10.660   1.892
 2723SOL     OW10000   8.293   9.782   6.526
 2723SOL    HW110001   8.265   9.739   6.606
 2723SOL    HW210002   8.248   9.735   6.456
 2724SOL     OW10003   2.045   4.545   1.816
 2724SOL    HW110004   1.988   4.488   1.868
 2724SOL    HW210005   2.085   4.487   1.752
 2725SOL     OW10006   7.708  13.816   8.353
 2725SOL    HW110007   7.615  13.807   8.335
 2725SOL    HW210008   7.750  13.815   8.267
 2726SOL     OW10009   7.005   3.632   1.880
 2726SOL    HW110010   7.010   3.726   1.894
 2726SOL    HW210011   7.087   3.609   1.838
 2727SOL     OW10012   0.870   2.887   3.162
 2727SOL    HW110013   0.912   2.898   3.077
 2727SOL    HW210014   0.923   2.939   3.222
 2728SOL     OW10015   3.756   9.211  11.984
 2728SOL    HW110016   3.715   9.136  11.941
 2728SOL    HW210017   3.845   9.182  12.004
 2729SOL     OW10018  13.920  10.130   9.397
 2729SOL    HW110019  14.003  10.107   9.354
 2729SOL    HW210020  13.916  10.226   9.391
 2730SOL     OW10021  10.260  11.524   2.843
 2730SOL    HW110022  10.283  11.604   2.796
 2730SOL    HW210023  10.298  11.454   2.790
 2731SOL     OW10024  11.495  13.968   6.332
 2731SOL    HW110025  11.530  13.888   6.372
 2731SOL    HW210026  11.511  14.036   6.397
 2732SOL     OW10027  12.520   1.051  14.621
 2732SOL    HW110028  12.488   1.086  14.704
 2732SOL    HW210029  12.517   1.125  14.561
 2733SOL     OW10030   0.643  13.921   9.487
 2733SOL    HW110031   0.738  13.915   9.497
 2733SOL    HW210032   0.615  13.832   9.465
 2734SOL     OW10033  14.185   4.780  13.118
 2734SOL    HW110034  14.125   4.805  13.189
 2734SOL    HW210035  14.217   4.863  13.084
 2735SOL     OW10036   5.670   5.905  10.295
 2735SOL    HW110037   5.711   5.956  10.365
 2735SOL    HW210038   5.744   5.880  10.239
 2736SOL     OW10039   5.872   0.566   5.197
 2736SOL    HW110040   5.833   0.646   5.232
 2736SOL    HW210041   5.891   0.513   5.274
 2737SOL     OW10042   9.435   9.579  14.437
 2737SOL    HW110043   9.395   9.628  14.364
 2737SOL    HW210044   9.511   9.631  14.462
 2738SOL     OW10045   4.165  12.967   3.056
 2738SOL    HW110046   4.247  12.987   3.012
 2738SOL    HW210047   4.177  13.001   3.145
 2739SOL     OW10048   0.407  11.003   9.340
 2739SOL    HW110049   0.332  10.978   9.395
 2739SOL    HW210050   0.460  11.059   9.396
 2740SOL     OW10051  10.748   9.587  14.193
 2740SOL    HW110052  10.654   9.586  14.212
 2740SOL    HW210053  10.790   9.588  14.279
 2741SOL     OW10054  12.947   3.804   3.646
 2741SOL    HW110055  12.928   3.884   3.598
 2741SOL    HW210056  12.984   3.745   3.581
 2742SOL     OW10057  10.291  13.220  11.538
 2742SOL    HW110058  10.349  13.256  11.604
 2742SOL    HW210059  10.335  13.239  11.455
 2743SOL     OW10060   5.853   4.428   7.488
 2743SOL    HW110061   5.904   4.348   7.501
 2743SOL    HW210062   5.874   4.456   7.399
 2744SOL     OW10063   3.089  13.326   2.057
 2744SOL    HW110064   3.173  13.371   2.049
 2744SOL    HW210065   3.083  13.302   2.150
 2745SOL     OW10066  10.661   7.619   7.218
 2745SOL    HW110067  10.689   7.691   7.274
 2745SOL    HW210068  10.627   7.661   7.138
 2746SOL     OW10069  12.307  10.721   5.854
 2746SOL    HW110070  12.249  10.791   5.824
 2746SOL    HW210071  12.334  10.748   5.942
 2747SOL     OW10072  14.739  13.427   2.295
 2747SOL    HW110073  14.777  13.343   2.268
 2747SOL    HW210074  14.764  13.488   2.226
 2748SOL     OW10075   3.634   1.744   9.829
 2748SOL    HW110076   3.616   1.675   9.893
 2748SOL    HW210077   3.715   1.784   9.860
 2749SOL     OW10078   4.803  13.741   6.689
 2749SOL    HW110079   4.736  13.790   6.641
 2749SOL    HW210080   4.844  13.807   6.745
 2750SOL     OW10081  14.239  13.752   1.171
 2750SOL    HW110082  14.209  13.802   1.247
 2750SOL    HW210083  14.259  13.665   1.206
 2751SOL     OW10084   2.004  14.792  10.650
 2751SOL    HW110085   2.012  14.835  10.735
 2751SOL    HW210086   1.968  14.860  10.592
 2752SOL     OW10087   4.501  10.050  11.872
 2752SOL    HW110088   4.555  10.098  11.808
 2752SOL    HW210089   4.460  10.119  11.924
 2753SOL     OW10090   5.701   6.149   7.329
 2753SOL    HW110091   5.796   6.157   7.334
 2753SOL    HW210092   5.686   6.057   7.307
 2754SOL     OW10093   0.250   3.446   5.940
 2754SOL    HW110094   0.285   3.535   5.944
 2754SOL    HW210095   0.296   3.405   5.867
 2755SOL     OW10096   7.212   3.181   7.368
 2755SOL    HW110097   7.283   3.244   7.356
 2755SOL    HW210098   7.255   3.101   7.396
 2756SOL     OW10099   1.010   4.390   1.872
 2756SOL    HW110100   0.946   4.333   1.914
 2756SOL    HW210101   1.088   4.336   1.862
 2757SOL     OW10102   6.348   1.634  14.626
 2757SOL    HW110103   6.331   1.591  14.542
 2757SOL    HW210104   6.293   1.587  14.689
 2758SOL     OW10105   1.783   1.701   0.328
 2758SOL    HW110106   1.804   1.648   0.405
 2758SOL    HW210107   1.780   1.791   0.361
 2759SOL     OW10108   3.860   1.360  14.533
 2759SOL    HW110109   3.934   1.370  14.473
 2759SOL    HW210110   3.822   1.275  14.509
 2760SOL     OW10111  10.074   8.019   9.722
 2760SOL    HW110112   9.989   8.024   9.767
 2760SOL    HW210113  10.052   7.991   9.633
 2761SOL     OW10114   5.733  12.536   2.629
 2761SOL    HW110115   5.682  12.479   2.687
 2761SOL    HW210116   5.815  12.551   2.677
 2762SOL     OW10117  14.739  10.527   0.466
 2762SOL    HW110118  14.765  10.611   0.427
 2762SOL    HW210119  14.787  10.462   0.415
 2763SOL     OW10120  10.527   7.771   0.463
 2763SOL    HW110121  10.475   7.815   0.530
 2763SOL    HW210122  10.573   7.701   0.511
 2764SOL     OW10123   8.060   2.820  14.294
 2764SOL    HW110124   8.152   2.821  14.319
 2764SOL    HW210125   8.059   2.789  14.204
 2765SOL     OW10126  10.358  10.555   2.654
 2765SOL    HW110127  10.404  10.482   2.694
 2765SOL    HW210128  10.265  10.532   2.662
 2766SOL     OW10129  13.498  13.999   4.237
 2766SOL    HW110130  13.591  14.021   4.244
 2766SOL    HW210131  13.454  14.059   4.297
 2767SOL     OW10132   3.352   5.588  13.863
 2767SOL    HW110133   3.326   5.582  13.771
 2767SOL    HW210134   3.390   5.502  13.883
 2768SOL     OW10135   6.824   5.740  10.925
 2768SOL    HW110136   6.756   5.802  10.952
 2768SOL    HW210137   6.895   5.795  10.891
 2769SOL     OW10138  11.333   3.353   2.895
 2769SOL    HW110139  11.398   3.383   2.831
 2769SOL    HW210140  11.355   3.401   2.975
 2770SOL     OW10141   3.250   4.370  13.840
 2770SOL    HW110142   3.303   4.338  13.766
 2770SOL    HW210143   3.312   4.420  13.893
 2771SOL     OW10144   0.036  11.685   9.070
 2771SOL    HW110145   0.008  11.621   9.134
 2771SOL    HW210146   0.127  11.661   9.050
 2772SOL     OW10147   5.648   5.562  12.635
 2772SOL    HW110148   5.582   5.526  12.695
 2772SOL    HW210149   5.597   5.606  12.567
 2773SOL     OW10150  13.834   9.337   7.179
 2773SOL    HW110151  13.821   9.425   7.143
 2773SOL    HW210152  13.818   9.278   7.106
 2774SOL     OW10153  10.509   8.264   7.206
 2774SOL    HW110154  10.460   8.230   7.131
 2774SOL    HW210155  10.477   8.354   7.216
 2775SOL     OW10156  11.967   3.107   4.176
 2775SOL    HW110157  11.912   3.070   4.245
 2775SOL    HW210158  11.985   3.033   4.117
 2776SOL     OW10159   9.651   9.249  13.099
 2776SOL    HW110160   9.588   9.302  13.049
 2776SOL    HW210161   9.652   9.290  13.186
 2777SOL     OW10162   1.431   0.958  12.988
 2777SOL    HW110163   1.450   0.899  13.061
 2777SOL    HW210164   1.485   0.925  12.916
 2778SOL     OW10165  12.434   9.601   7.633
 2778SOL    HW110166  12.451   9.695   7.631
 2778SOL    HW210167  12.451   9.575   7.723
 2779SOL     OW10168  11.118  14.497   7.235
 2779SOL    HW110169  11.146  14.588   7.225
 2779SOL    HW210170  11.023  14.501   7.247
 2780SOL     OW10171  12.550   1.887  10.337
 2780SOL    HW110172  12.529   1.851  10.423
 2780SOL    HW210173  12.527   1.980  10.343
 2781SOL     OW10174   5.963   1.978   5.400
 2781SOL    HW110175   5.961   1.914   5.329
 2781SOL    HW210176   6.049   1.967   5.440
 2782SOL     OW10177   2.683   2.300   6.059
 2782SOL    HW110178   2.669   2.344   5.975
 2782SOL    HW210179   2.742   2.228   6.039
 2783SOL     OW10180  13.999   3.956  10.409
 2783SOL    HW110181  14.001   3.980  10.501
 2783SOL    HW210182  14.036   4.032  10.363
 2784SOL     OW10183  14.582  13.665   6.251
 2784SOL    HW110184  14.671  13.655   6.285
 2784SOL    HW210185  14.562  13.580   6.211
 2785SOL     OW10186  14.111   3.194  12.285
 2785SOL    HW110187  14.199   3.158  12.281
 2785SOL    HW210188  14.054   3.117  12.295
 2786SOL     OW10189  13.286   4.689  13.727
 2786SOL    HW110190  13.344   4.757  13.759
 2786SOL    HW210191  13.312   4.610  13.776
 2787SOL     OW10192   1.694   7.962   2.047
 2787SOL    HW110193   1.727   7.887   2.097
 2787SOL    HW210194   1.753   8.034   2.069
 2788SOL     OW10195   6.242   7.865   1.150
 2788SOL    HW110196   6.175   7.802   1.178
 2788SOL    HW210197   6.194   7.947   1.137
 2789SOL     OW10198   6.517   1.136  13.180
 2789SOL    HW110199   6.444   1.183  13.220
 2789SOL    HW210200   6.486   1.114  13.092
 2790SOL     OW10201   5.613  11.756   9.525
 2790SOL    HW110202   5.688  11.785   9.473
 2790SOL    HW210203   5.639  11.774   9.616
 2791SOL     OW10204   9.885  13.585   0.969
 2791SOL    HW110205   9.934  13.584   1.051
 2791SOL    HW210206   9.793  13.579   0.995
 2792SOL     OW10207   2.837   2.793   8.659
 2792SOL    HW110208   2.869   2.731   8.725
 2792SOL    HW210209   2.770   2.744   8.611
 2793SOL     OW10210   7.307   2.404   7.892
 2793SOL    HW110211   7.253   2.447   7.958
 2793SOL    HW210212   7.349   2.476   7.844
 2794SOL     OW10213  13.029  12.474  14.795
 2794SOL    HW110214  13.115  12.507  14.823
 2794SOL    HW210215  13.012  12.401  14.854
 2795SOL     OW10216   4.747  13.266  14.788
 2795SOL    HW110217   4.662  13.308  14.771
 2795SOL    HW210218   4.803  13.296  14.716
 2796SOL     OW10219  11.197   7.632  13.415
 2796SOL    HW110220  11.136   7.594  13.478
 2796SOL    HW210221  11.241   7.557  13.375
 2797SOL     OW10222   7.885  13.119   4.667
 2797SOL    HW110223   7.807  13.066   4.685
 2797SOL    HW210224   7.951  13.056   4.637
 2798SOL     OW10225   8.431  11.031   7.645
 2798SOL    HW110226   8.429  10.996   7.734
 2798SOL    HW210227   8.491  11.106   7.650
 2799SOL     OW10228  11.480   5.372   4.615
 2799SOL    HW110229  11.523   5.387   4.532
 2799SOL    HW210230  11.551   5.362   4.678
 2800SOL     OW10231   4.428  10.365  11.389
 2800SOL    HW110232   4.463  10.425  11.455
 2800SOL    HW210233   4.335  10.359  11.408
 2801SOL     OW10234  14.793  11.368   9.816
 2801SOL    HW110235   0.005  11.346   9.846
 2801SOL    HW210236  14.776  11.306   9.746
 2802SOL     OW10237   5.708   3.403  11.251
 2802SOL    HW110238   5.780   3.450  11.293
 2802SOL    HW210239   5.708   3.316  11.292
 2803SOL     OW10240   8.801  13.756  10.145
 2803SOL    HW110241   8.865  13.694  10.109
 2803SOL    HW210242   8.798  13.736  10.238
 2804SOL     OW10243   9.339   9.818  13.412
 2804SOL    HW110244   9.246   9.795  13.413
 2804SOL    HW210245   9.341   9.908  13.445
 2805SOL     OW10246  12.798  10.111  12.642
 2805SOL    HW110247  12.789  10.020  12.614
 2805SOL    HW210248  12.892  10.128  12.636
 2806SOL     OW10249   6.967   5.592   4.568
 2806SOL    HW110250   7.041   5.653   4.568
 2806SOL    HW210251   6.890   5.648   4.569
 2807SOL     OW10252  14.423  10.071   3.435
 2807SOL    HW110253  14.516  10.073   3.455
 2807SOL    HW210254  14.392   9.989   3.474
 2808SOL     OW10255  14.556   1.682   3.159
 2808SOL    HW110256  14.500   1.756   3.184
 2808SOL    HW210257  14.500   1.605   3.165
 2809SOL     OW10258   4.099   0.982   6.374
 2809SOL    HW110259   4.162   0.916   6.403
 2809SOL    HW210260   4.154   1.055   6.344
 2810SOL     OW10261   2.699  12.155  12.048
 2810SOL    HW110262   2.626  12.157  12.110
 2810SOL    HW210263   2.698  12.066  12.013
 2811SOL     OW10264  12.914   9.330   5.101
 2811SOL    HW110265  13.006   9.356   5.110
 2811SOL    HW210266  12.870   9.371   5.175
 2812SOL     OW10267   0.957   3.226   9.396
 2812SOL    HW110268   0.960   3.194   9.306
 2812SOL    HW210269   1.049   3.228   9.424
 2813SOL     OW10270   8.898   1.176   5.394
 2813SOL    HW110271   8.867   1.112   5.331
 2813SOL    HW210272   8.994   1.173   5.386
 2814SOL     OW10273   1.503   6.391   0.650
 2814SOL    HW110274   1.457   6.323   0.699
 2814SOL    HW210275   1.439   6.461   0.638
 2815SOL     OW10276  14.172   8.830   3.217
 2815SOL    HW110277  14.095   8.877   3.185
 2815SOL    HW210278  14.173   8.749   3.167
 2816SOL     OW10279   9.724  14.058   1.284
 2816SOL    HW110280   9.743  14.141   1.242
 2816SOL    HW210281   9.639  14.031   1.249
 2817SOL     OW10282  10.016   8.420   5.591
 2817SOL    HW110283  10.047   8.338   5.629
 2817SOL    HW210284   9.975   8.466   5.664
 2818SOL     OW10285  13.289   4.674   6.871
 2818SOL    HW110286  13.287   4.735   6.798
 2818SOL    HW210287  13.201   4.635   6.873
 2819SOL     OW10288   8.972  11.899  14.438
 2819SOL    HW110289   9.000  11.808  14.445
 2819SOL    HW210290   8.880  11.897  14.466
 2820SOL     OW10291   7.049  12.414   0.307
 2820SOL    HW110292   6.971  12.441   0.259
 2820SOL    HW210293   7.102  12.493   0.315
 2821SOL     OW10294   7.427  13.540  10.738
 2821SOL    HW110295   7.477  13.609  10.696
 2821SOL    HW210296   7.491  13.474  10.762
 2822SOL     OW10297   2.878   0.892   9.997
 2822SOL    HW110298   2.801   0.861   9.949
 2822SOL    HW210299   2.879   0.987   9.981
 2823SOL     OW10300   0.990  10.698   9.255
 2823SOL    HW110301   1.085  10.696   9.269
 2823SOL    HW210302   0.978  10.653   9.171
 2824SOL     OW10303   1.351   8.283   3.952
 2824SOL    HW110304   1.300   8.306   4.030
 2824SOL    HW210305   1.360   8.366   3.904
 2825SOL     OW10306   3.405   5.356   7.510
 2825SOL    HW110307   3.331   5.342   7.451
 2825SOL    HW210308   3.372   5.420   7.574
 2826SOL     OW10309  13.830   2.396   2.292
 2826SOL    HW110310  13.790   2.382   2.378
 2826SOL    HW210311  13.851   2.489   2.290
 2827SOL     OW10312   7.117   0.383   4.407
 2827SOL    HW110313   7.094   0.303   4.360
 2827SOL    HW210314   7.108   0.453   4.342
 2828SOL     OW10315  11.026   0.510   9.412
 2828SOL    HW110316  11.117   0.537   9.398
 2828SOL    HW210317  11.030   0.414   9.413
 2829SOL     OW10318   1.494   7.105  12.188
 2829SOL    HW110319   1.555   7.178  12.175
 2829SOL    HW210320   1.417   7.128  12.137
 2830SOL     OW10321   0.726  12.872  11.099
 2830SOL    HW110322   0.780  12.951  11.101
 2830SOL    HW210323   0.654  12.893  11.040
 2831SOL     OW10324  13.206  11.965  11.675
 2831SOL    HW110325  13.129  11.966  11.618
 2831SOL    HW210326  13.221  11.872  11.693
 2832SOL     OW10327  13.082   6.835   0.629
 2832SOL    HW110328  13.128   6.919   0.623
 2832SOL    HW210329  13.088   6.811   0.721
 2833SOL     OW10330  14.511  12.930  13.644
 2833SOL    HW110331  14.429  12.893  13.611
 2833SOL    HW210332  14.577  12.862  13.626
 2834SOL     OW10333   3.329   1.429   4.818
 2834SOL    HW110334   3.254   1.486   4.803
 2834SOL    HW210335   3.404   1.489   4.823
 2835SOL     OW10336  14.415   0.747  10.236
 2835SOL    HW110337  14.421   0.691  10.314
 2835SOL    HW210338  14.448   0.832  10.265
 2836SOL     OW10339   6.666   9.550  14.343
 2836SOL    HW110340   6.657   9.555  14.438
 2836SOL    HW210341   6.666   9.456  14.324
 2837SOL     OW10342  12.698   6.386   3.108
 2837SOL    HW110343  12.778   6.340   3.084
 2837SOL    HW210344  12.728   6.465   3.153
 2838SOL     OW10345   4.230  10.433  10.453
 2838SOL    HW110346   4.238  10.359  10.393
 2838SOL    HW210347   4.284  10.502  10.414
 2839SOL     OW10348   6.352  12.961  12.559
 2839SOL    HW110349   6.354  12.877  12.513
 2839SOL    HW210350   6.298  13.018  12.505
 2840SOL     OW10351   8.983   4.570  14.834
 2840SOL    HW110352   9.028   4.652  14.812
 2840SOL    HW210353   8.996   4.561   0.053
 2841SOL     OW10354   7.455  11.249   4.211
 2841SOL    HW110355   7.471  11.317   4.145
 2841SOL    HW210356   7.507  11.175   4.182
 2842SOL     OW10357   5.166  14.771   8.811
 2842SOL    HW110358   5.202  14.737   8.729
 2842SOL    HW210359   5.087  14.818   8.785
 2843SOL     OW10360  13.861   8.263  10.982
 2843SOL    HW110361  13.786   8.236  11.034
 2843SOL    HW210362  13.840   8.351  10.951
 2844SOL     OW10363  10.161   1.856   9.298
 2844SOL    HW110364  10.116   1.940   9.297
 2844SOL    HW210365  10.217   1.859   9.376
 2845SOL     OW10366  10.144  10.162   0.977
 2845SOL    HW110367  10.108  10.233   0.923
 2845SOL    HW210368  10.099  10.083   0.946
 2846SOL     OW10369   3.022   1.331   0.916
 2846SOL    HW110370   3.011   1.250   0.866
 2846SOL    HW210371   2.993   1.309   1.004
 2847SOL     OW10372   1.612   4.343  11.286
 2847SOL    HW110373   1.645   4.400  11.216
 2847SOL    HW210374   1.519   4.365  11.292
 2848SOL     OW10375   0.068   8.559   5.801
 2848SOL    HW110376  14.851   8.544   5.816
 2848SOL    HW210377   0.110   8.477   5.828
 2849SOL     OW10378  10.543  10.736   9.042
 2849SOL    HW110379  10.513  10.813   8.994
 2849SOL    HW210380  10.534  10.663   8.980
 2850SOL     OW10381   5.081   5.967   8.430
 2850SOL    HW110382   5.067   6.045   8.484
 2850SOL    HW210383   5.124   5.904   8.489
 2851SOL     OW10384   9.068  14.014   9.022
 2851SOL    HW110385   9.002  13.946   9.037
 2851SOL    HW210386   9.016  14.092   9.002
 2852SOL     OW10387   3.801  13.658   3.740
 2852SOL    HW110388   3.792  13.711   3.820
 2852SOL    HW210389   3.870  13.702   3.690
 2853SOL     OW10390  14.149   8.441   6.739
 2853SOL    HW110391  14.108   8.410   6.819
 2853SOL    HW210392  14.232   8.480   6.768
 2854SOL     OW10393   0.224  10.905   5.882
 2854SOL    HW110394   0.147  10.897   5.938
 2854SOL    HW210395   0.276  10.827   5.902
 2855SOL     OW10396  13.389   3.209  11.968
 2855SOL    HW110397  13.307   3.163  11.951
 2855SOL    HW210398  13.378   3.245  12.056
 2856SOL     OW10399  14.138   8.311   2.882
 2856SOL    HW110400  14.087   8.332   2.804
 2856SOL    HW210401  14.075   8.268   2.940
 2857SOL     OW10402   4.950   6.802   9.783
 2857SOL    HW110403   4.931   6.721   9.831
 2857SOL    HW210404   4.993   6.859   9.847
 2858SOL     OW10405  13.536   7.629  14.117
 2858SOL    HW110406  13.548   7.641  14.023
 2858SOL    HW210407  13.533   7.534  14.129
 2859SOL     OW10408   6.238   6.915  14.803
 2859SOL    HW110409   6.225   7.004  14.837
 2859SOL    HW210410   6.332   6.905  14.796
 2860SOL     OW10411   6.606   4.150   4.871
 2860SOL    HW110412   6.666   4.168   4.798
 2860SOL    HW210413   6.566   4.235   4.890
 2861SOL     OW10414   5.654  10.801   2.103
 2861SOL    HW110415   5.631  10.883   2.059
 2861SOL    HW210416   5.702  10.828   2.181
 2862SOL     OW10417   8.496   4.814   3.945
 2862SOL    HW110418   8.447   4.787   3.867
 2862SOL    HW210419   8.555   4.883   3.914
 2863SOL     OW10420  11.264   7.937   3.784
 2863SOL    HW110421  11.168   7.929   3.790
 2863SOL    HW210422  11.294   7.939   3.875
 2864SOL     OW10423  11.555   4.083  10.586
 2864SOL    HW110424  11.468   4.107  10.553
 2864SOL    HW210425  11.598   4.041  10.512
 2865SOL     OW10426  12.504   1.511   9.098
 2865SOL    HW110427  12.429   1.569   9.109
 2865SOL    HW210428  12.567   1.541   9.164
 2866SOL     OW10429  11.413   0.871   4.634
 2866SOL    HW110430  11.353   0.802   4.606
 2866SOL    HW210431  11.463   0.893   4.556
 2867SOL     OW10432  10.771   2.083  14.086
 2867SOL    HW110433  10.797   2.107  13.997
 2867SOL    HW210434  10.676   2.071  14.081
 2868SOL     OW10435  14.255   6.743   5.596
 2868SOL    HW110436  14.311   6.782   5.528
 2868SOL    HW210437  14.316   6.716   5.664
 2869SOL     OW10438   3.165   7.503   5.698
 2869SOL    HW110439   3.089   7.445   5.703
 2869SOL    HW210440   3.129   7.588   5.674
 2870SOL     OW10441   1.766   2.716   0.068
 2870SOL    HW110442   1.696   2.651   0.057
 2870SOL    HW210443   1.840   2.680   0.018
 2871SOL     OW10444  13.544  14.514   8.297
 2871SOL    HW110445  13.515  14.589   8.349
 2871SOL    HW210446  13.469  14.454   8.298
 2872SOL     OW10447   1.614   1.395  12.762
 2872SOL    HW110448   1.637   1.409  12.854
 2872SOL    HW210449   1.616   1.300  12.751
 2873SOL     OW10450   1.873   8.462  13.707
 2873SOL    HW110451   1.788   8.420  13.698
 2873SOL    HW210452   1.872   8.499  13.796
 2874SOL     OW10453   9.719   9.237   1.122
 2874SOL    HW110454   9.786   9.299   1.153
 2874SOL    HW210455   9.748   9.213   1.034
 2875SOL     OW10456  13.318   9.121  11.739
 2875SOL    HW110457  13.255   9.182  11.701
 2875SOL    HW210458  13.264   9.047  11.769
 2876SOL     OW10459   7.405   4.308   3.909
 2876SOL    HW110460   7.422   4.366   3.984
 2876SOL    HW210461   7.453   4.227   3.931
 2877SOL     OW10462   8.471   9.770  14.040
 2877SOL    HW110463   8.410   9.827  13.994
 2877SOL    HW210464   8.433   9.682  14.034
 2878SOL     OW10465   4.285   8.375   6.408
 2878SOL    HW110466   4.274   8.291   6.451
 2878SOL    HW210467   4.280   8.356   6.314
 2879SOL     OW10468   7.037   0.855   9.240
 2879SOL    HW110469   6.991   0.772   9.244
 2879SOL    HW210470   7.077   0.857   9.153
 2880SOL     OW10471  10.520   7.097   4.594
 2880SOL    HW110472  10.563   7.182   4.591
 2880SOL    HW210473  10.465   7.100   4.673
 2881SOL     OW10474   4.689   9.454   1.129
 2881SOL    HW110475   4.774   9.422   1.160
 2881SOL    HW210476   4.629   9.381   1.143
 2882SOL     OW10477   3.210   3.569   9.018
 2882SOL    HW110478   3.244   3.611   9.098
 2882SOL    HW210479   3.129   3.527   9.045
 2883SOL     OW10480   5.706  13.315   2.200
 2883SOL    HW110481   5.747  13.329   2.114
 2883SOL    HW210482   5.701  13.220   2.208
 2884SOL     OW10483   5.129   2.127   7.667
 2884SOL    HW110484   5.208   2.152   7.618
 2884SOL    HW210485   5.159   2.061   7.729
 2885SOL     OW10486   4.020  11.075   8.916
 2885SOL    HW110487   3.935  11.059   8.875
 2885SOL    HW210488   4.040  11.167   8.898
 2886SOL     OW10489   3.083   4.575   4.150
 2886SOL    HW110490   3.103   4.647   4.090
 2886SOL    HW210491   3.006   4.532   4.111
 2887SOL     OW10492  14.324  13.453   6.361
 2887SOL    HW110493  14.337  13.398   6.439
 2887SOL    HW210494  14.229  13.458   6.350
 2888SOL     OW10495   4.260   9.888   5.472
 2888SOL    HW110496   4.206   9.848   5.541
 2888SOL    HW210497   4.319   9.818   5.444
 2889SOL     OW10498   3.679  12.873  12.591
 2889SOL    HW110499   3.657  12.928  12.516
 2889SOL    HW210500   3.611  12.805  12.592
 2890SOL     OW10501   2.140   2.715   9.341
 2890SOL    HW110502   2.072   2.715   9.408
 2890SOL    HW210503   2.190   2.635   9.356
 2891SOL     OW10504   6.531   6.016  11.975
 2891SOL    HW110505   6.478   5.958  12.030
 2891SOL    HW210506   6.496   6.006  11.887
 2892SOL     OW10507   1.745   0.787   3.908
 2892SOL    HW110508   1.708   0.858   3.856
 2892SOL    HW210509   1.702   0.794   3.993
 2893SOL     OW10510   0.798  10.357   0.259
 2893SOL    HW110511   0.775  10.271   0.294
 2893SOL    HW210512   0.832  10.338   0.172
 2894SOL     OW10513  10.845   6.332   2.320
 2894SOL    HW110514  10.754   6.349   2.297
 2894SOL    HW210515  10.844   6.243   2.357
 2895SOL     OW10516   7.050   0.378   9.630
 2895SOL    HW110517   6.997   0.431   9.571
 2895SOL    HW210518   7.123   0.435   9.654
 2896SOL     OW10519  11.004  14.666   4.610
 2896SOL    HW110520  11.057  14.741   4.581
 2896SOL    HW210521  11.050  14.632   4.687
 2897SOL     OW10522   0.599  11.607   2.513
 2897SOL    HW110523   0.685  11.619   2.473
 2897SOL    HW210524   0.546  11.677   2.477
 2898SOL     OW10525  12.488   0.180  14.514
 2898SOL    HW110526  12.447   0.264  14.496
 2898SOL    HW210527  12.445   0.148  14.593
 2899SOL     OW10528   7.176  13.031   9.885
 2899SOL    HW110529   7.099  12.975   9.895
 2899SOL    HW210530   7.152  13.114   9.927
 2900SOL     OW10531  13.151   3.825   9.006
 2900SOL    HW110532  13.066   3.851   8.971
 2900SOL    HW210533  13.190   3.773   8.936
 2901SOL     OW10534  14.642   2.354   2.519
 2901SOL    HW110535  14.659   2.446   2.538
 2901SOL    HW210536  14.714   2.307   2.561
 2902SOL     OW10537   7.810   5.515   7.685
 2902SOL    HW110538   7.748   5.443   7.670
 2902SOL    HW210539   7.880   5.475   7.737
 2903SOL     OW10540   9.283  11.622   3.964
 2903SOL    HW110541   9.207  11.628   3.906
 2903SOL    HW210542   9.322  11.537   3.944
 2904SOL     OW10543   9.095   1.832   2.298
 2904SOL    HW110544   9.141   1.875   2.370
 2904SOL    HW210545   9.154   1.840   2.223
 2905SOL     OW10546   0.725   7.438   7.078
 2905SOL    HW110547   0.788   7.477   7.017
 2905SOL    HW210548   0.658   7.505   7.090
 2906SOL     OW10549   3.032   2.769  12.422
 2906SOL    HW110550   2.944   2.793  12.392
 2906SOL    HW210551   3.016   2.708  12.494
 2907SOL     OW10552  10.776  11.862   5.115
 2907SOL    HW110553  10.758  11.769   5.100
 2907SOL    HW210554  10.833  11.887   5.042
 2908SOL     OW10555   3.589   0.098  11.032
 2908SOL    HW110556   3.527   0.095  11.106
 2908SOL    HW210557   3.534   0.083  10.955
 2909SOL     OW10558   2.596   1.303   0.848
 2909SOL    HW110559   2.553   1.218   0.860
 2909SOL    HW210560   2.532   1.367   0.878
 2910SOL     OW10561   9.356   1.657   2.252
 2910SOL    HW110562   9.297   1.672   2.326
 2910SOL    HW210563   9.410   1.736   2.247
 2911SOL     OW10564   2.038  13.949   0.107
 2911SOL    HW110565   1.992  13.912   0.182
 2911SOL    HW210566   2.050  14.041   0.130
 2912SOL     OW10567  13.070   3.206   7.166
 2912SOL    HW110568  13.129   3.175   7.235
 2912SOL    HW210569  12.983   3.201   7.206
 2913SOL     OW10570   2.008   1.665   4.367
 2913SOL    HW110571   2.065   1.630   4.298
 2913SOL    HW210572   2.064   1.726   4.415
 2914SOL     OW10573   8.558  12.530   4.522
 2914SOL    HW110574   8.518  12.474   4.454
 2914SOL    HW210575   8.593  12.468   4.586
 2915SOL     OW10576   1.769  12.513   3.251
 2915SOL    HW110577   1.799  12.423   3.262
 2915SOL    HW210578   1.785  12.533   3.158
 2916SOL     OW10579   9.673   2.526   5.601
 2916SOL    HW110580   9.597   2.585   5.597
 2916SOL    HW210581   9.649   2.460   5.666
 2917SOL     OW10582   6.079   7.683   5.621
 2917SOL    HW110583   6.045   7.607   5.573
 2917SOL    HW210584   6.008   7.746   5.619
 2918SOL     OW10585  11.365   7.113   1.759
 2918SOL    HW110586  11.427   7.160   1.704
 2918SOL    HW210587  11.406   7.027   1.772
 2919SOL     OW10588  14.310   6.417  10.699
 2919SOL    HW110589  14.373   6.396  10.631
 2919SOL    HW210590  14.363   6.445  10.774
 2920SOL     OW10591   1.408   2.727  13.569
 2920SOL    HW110592   1.366   2.712  13.485
 2920SOL    HW210593   1.457   2.647  13.586
 2921SOL     OW10594   7.524   1.580   7.670
 2921SOL    HW110595   7.480   1.633   7.735
 2921SOL    HW210596   7.603   1.548   7.714
 2922SOL     OW10597   2.103   5.527   1.825
 2922SOL    HW110598   2.141   5.446   1.792
 2922SOL    HW210599   2.018   5.534   1.782
 2923SOL     OW10600   7.190   9.885   6.261
 2923SOL    HW110601   7.274   9.889   6.216
 2923SOL    HW210602   7.125   9.880   6.191
 2924SOL     OW10603  11.054  11.823   6.175
 2924SOL    HW110604  11.005  11.799   6.254
 2924SOL    HW210605  10.987  11.839   6.109
 2925SOL     OW10606  10.337   8.620   6.555
 2925SOL    HW110607  10.386   8.699   6.532
 2925SOL    HW210608  10.260   8.652   6.602
 2926SOL     OW10609   9.345  14.130  10.105
 2926SOL    HW110610   9.414  14.161  10.046
 2926SOL    HW210611   9.263  14.156  10.063
 2927SOL     OW10612   9.874   4.356  12.591
 2927SOL    HW110613   9.885   4.445  12.557
 2927SOL    HW210614   9.951   4.309  12.557
 2928SOL     OW10615   8.196   0.547   4.690
 2928SOL    HW110616   8.166   0.466   4.733
 2928SOL    HW210617   8.119   0.603   4.690
 2929SOL     OW10618  11.489   5.988   1.796
 2929SOL    HW110619  11.539   5.982   1.878
 2929SOL    HW210620  11.527   5.921   1.740
 2930SOL     OW10621   1.724   5.621   1.197
 2930SOL    HW110622   1.794   5.556   1.198
 2930SOL    HW210623   1.654   5.582   1.248
 2931SOL     OW10624   8.278   5.343   9.076
 2931SOL    HW110625   8.230   5.269   9.114
 2931SOL    HW210626   8.333   5.375   9.147
 2932SOL     OW10627  10.538   6.939   8.533
 2932SOL    HW110628  10.501   6.889   8.606
 2932SOL    HW210629  10.529   6.882   8.457
 2933SOL     OW10630  11.759   1.019   0.097
 2933SOL    HW110631  11.719   1.091   0.048
 2933SOL    HW210632  11.772   0.950   0.033
 2934SOL     OW10633  12.691   0.965  13.790
 2934SOL    HW110634  12.609   1.005  13.761
 2934SOL    HW210635  12.758   1.030  13.770
 2935SOL     OW10636   5.641   9.628   6.751
 2935SOL    HW110637   5.607   9.546   6.715
 2935SOL    HW210638   5.564   9.675   6.783
 2936SOL     OW10639  10.389   4.434  10.972
 2936SOL    HW110640  10.392   4.478  11.057
 2936SOL    HW210641  10.480   4.409  10.955
 2937SOL     OW10642   4.019   4.019  12.855
 2937SOL    HW110643   3.942   3.977  12.894
 2937SOL    HW210644   4.084   3.949  12.849
 2938SOL     OW10645   0.434   9.372  11.556
 2938SOL    HW110646   0.415   9.291  11.605
 2938SOL    HW210647   0.393   9.358  11.471
 2939SOL     OW10648   5.428   5.025   0.873
 2939SOL    HW110649   5.348   5.063   0.911
 2939SOL    HW210650   5.404   5.004   0.783
 2940SOL     OW10651   6.055   1.620  13.525
 2940SOL    HW110652   6.115   1.647  13.455
 2940SOL    HW210653   6.028   1.531  13.500
 2941SOL     OW10654   6.489   7.832  13.028
 2941SOL    HW110655   6.520   7.741  13.029
 2941SOL    HW210656   6.479   7.852  12.935
 2942SOL     OW10657   4.200   4.517   6.344
 2942SOL    HW110658   4.127   4.534   6.284
 2942SOL    HW210659   4.179   4.432   6.383
 2943SOL     OW10660   3.610   9.163   8.938
 2943SOL    HW110661   3.685   9.118   8.977
 2943SOL    HW210662   3.554   9.092   8.905
 2944SOL     OW10663  11.293  12.276   3.379
 2944SOL    HW110664  11.362  12.247   3.439
 2944SOL    HW210665  11.341  12.303   3.300
 2945SOL     OW10666  12.001   9.290   4.131
 2945SOL    HW110667  12.059   9.217   4.153
 2945SOL    HW210668  12.016   9.354   4.200
 2946SOL     OW10669   1.971  13.456   5.942
 2946SOL    HW110670   2.051  13.409   5.965
 2946SOL    HW210671   1.970  13.532   6.001
 2947SOL     OW10672   7.829   8.128   9.251
 2947SOL    HW110673   7.735   8.137   9.260
 2947SOL    HW210674   7.862   8.124   9.341
 2948SOL     OW10675   7.323   7.010   9.378
 2948SOL    HW110676   7.381   7.018   9.303
 2948SOL    HW210677   7.371   7.050   9.451
 2949SOL     OW10678   2.836   5.204  11.049
 2949SOL    HW110679   2.859   5.191  10.957
 2949SOL    HW210680   2.741   5.193  11.051
 2950SOL     OW10681   3.333   1.832  10.636
 2950SOL    HW110682   3.385   1.908  10.663
 2950SOL    HW210683   3.382   1.793  10.564
 2951SOL     OW10684   8.825  12.946  10.971
 2951SOL    HW110685   8.771  12.995  11.032
 2951SOL    HW210686   8.911  12.942  11.012
 2952SOL     OW10687   3.916  10.870  13.828
 2952SOL    HW110688   3.862  10.823  13.891
 2952SOL    HW210689   4.005  10.864  13.864
 2953SOL     OW10690   1.016  14.537   2.268
 2953SOL    HW110691   0.926  14.570   2.273
 2953SOL    HW210692   1.067  14.602   2.316
 2954SOL     OW10693   3.557   6.468   8.935
 2954SOL    HW110694   3.544   6.563   8.945
 2954SOL    HW210695   3.558   6.454   8.841
 2955SOL     OW10696   4.108   7.491   1.853
 2955SOL    HW110697   4.030   7.535   1.820
 2955SOL    HW210698   4.151   7.456   1.776
 2956SOL     OW10699   6.724   7.534   4.631
 2956SOL    HW110700   6.634   7.535   4.663
 2956SOL    HW210701   6.747   7.441   4.628
 2957SOL     OW10702   6.351   3.582   7.319
 2957SOL    HW110703   6.258   3.607   7.324
 2957SOL    HW210704   6.366   3.529   7.397
 2958SOL     OW10705   5.522  12.295   9.835
 2958SOL    HW110706   5.428  12.289   9.816
 2958SOL    HW210707   5.554  12.205   9.825
 2959SOL     OW10708  14.295   3.656  13.223
 2959SOL    HW110709  14.271   3.625  13.135
 2959SOL    HW210710  14.385   3.686  13.214
 2960SOL     OW10711   0.999   6.898   2.951
 2960SOL    HW110712   1.075   6.877   3.006
 2960SOL    HW210713   0.984   6.818   2.900
 2961SOL     OW10714  12.672   8.379   6.529
 2961SOL    HW110715  12.678   8.329   6.447
 2961SOL    HW210716  12.580   8.407   6.534
 2962SOL     OW10717  10.522  13.313   4.265
 2962SOL    HW110718  10.455  13.334   4.330
 2962SOL    HW210719  10.472  13.294   4.185
 2963SOL     OW10720   7.099   8.876  11.488
 2963SOL    HW110721   7.156   8.835  11.423
 2963SOL    HW210722   7.087   8.809  11.555
 2964SOL     OW10723  14.230   8.851  10.718
 2964SOL    HW110724  14.173   8.860  10.795
 2964SOL    HW210725  14.236   8.757  10.703
 2965SOL     OW10726   9.156   9.852  12.865
 2965SOL    HW110727   9.242   9.893  12.854
 2965SOL    HW210728   9.094   9.914  12.826
 2966SOL     OW10729   6.203   8.653   1.283
 2966SOL    HW110730   6.108   8.666   1.284
 2966SOL    HW210731   6.215   8.562   1.310
 2967SOL     OW10732   6.797   8.934   2.100
 2967SOL    HW110733   6.874   8.951   2.045
 2967SOL    HW210734   6.824   8.861   2.156
 2968SOL     OW10735  13.884   3.193   2.195
 2968SOL    HW110736  13.866   3.175   2.287
 2968SOL    HW210737  13.862   3.112   2.150
 2969SOL     OW10738  11.185   2.493   1.817
 2969SOL    HW110739  11.216   2.419   1.766
 2969SOL    HW210740  11.257   2.556   1.815
 2970SOL     OW10741   6.676   7.270  11.266
 2970SOL    HW110742   6.644   7.226  11.187
 2970SOL    HW210743   6.603   7.264  11.328
 2971SOL     OW10744   0.014   3.130   2.420
 2971SOL    HW110745  14.801   3.143   2.386
 2971SOL    HW210746   0.065   3.104   2.343
 2972SOL     OW10747   4.238  12.696   0.198
 2972SOL    HW110748   4.228  12.671   0.290
 2972SOL    HW210749   4.249  12.791   0.201
 2973SOL     OW10750   4.143  14.799   1.609
 2973SOL    HW110751   4.136  14.862   1.537
 2973SOL    HW210752   4.186  14.848   1.679
 2974SOL     OW10753   6.574   9.945   5.135
 2974SOL    HW110754   6.528   9.871   5.095
 2974SOL    HW210755   6.650   9.906   5.177
 2975SOL     OW10756   0.899   5.182  14.224
 2975SOL    HW110757   0.993   5.169  14.242
 2975SOL    HW210758   0.857   5.170  14.309
 2976SOL     OW10759   1.490   8.264   5.520
 2976SOL    HW110760   1.520   8.300   5.436
 2976SOL    HW210761   1.415   8.209   5.496
 2977SOL     OW10762  11.780   6.837   3.562
 2977SOL    HW110763  11.853   6.785   3.527
 2977SOL    HW210764  11.725   6.772   3.606
 2978SOL     OW10765  14.144  11.852  12.664
 2978SOL    HW110766  14.133  11.775  12.719
 2978SOL    HW210767  14.080  11.915  12.696
 2979SOL     OW10768  12.945   7.833  13.765
 2979SOL    HW110769  12.891   7.785  13.829
 2979SOL    HW210770  12.977   7.909  13.814
 2980SOL     OW10771   9.258   1.719   3.359
 2980SOL    HW110772   9.306   1.636   3.350
 2980SOL    HW210773   9.175   1.694   3.398
 2981SOL     OW10774   6.627  13.141   7.846
 2981SOL    HW110775   6.628  13.148   7.941
 2981SOL    HW210776   6.709  13.183   7.818
 2982SOL     OW10777   1.138   7.443   1.148
 2982SOL    HW110778   1.179   7.415   1.066
 2982SOL    HW210779   1.203   7.425   1.215
 2983SOL     OW10780   8.568   4.641   8.213
 2983SOL    HW110781   8.598   4.573   8.273
 2983SOL    HW210782   8.591   4.609   8.126
 2984SOL     OW10783   5.258  12.657   9.348
 2984SOL    HW110784   5.223  12.677   9.261
 2984SOL    HW210785   5.351  12.678   9.342
 2985SOL     OW10786   1.479  11.689   9.865
 2985SOL    HW110787   1.563  11.734   9.853
 2985SOL    HW210788   1.497  11.623   9.933
 2986SOL     OW10789   1.799  10.861   8.973
 2986SOL    HW110790   1.811  10.802   8.899
 2986SOL    HW210791   1.710  10.894   8.964
 2987SOL     OW10792   4.972   4.927   8.782
 2987SOL    HW110793   4.952   4.842   8.742
 2987SOL    HW210794   4.890   4.954   8.822
 2988SOL     OW10795  10.140   1.459   8.835
 2988SOL    HW110796  10.119   1.424   8.749
 2988SOL    HW210797  10.234   1.443   8.846
 2989SOL     OW10798   3.778   3.190   9.379
 2989SOL    HW110799   3.858   3.215   9.332
 2989SOL    HW210800   3.809   3.135   9.451
 2990SOL     OW10801  13.574   3.456  14.774
 2990SOL    HW110802  13.636   3.399  14.819
 2990SOL    HW210803  13.499   3.399  14.755
 2991SOL     OW10804   1.841  11.299   5.450
 2991SOL    HW110805   1.810  11.224   5.398
 2991SOL    HW210806   1.907  11.262   5.508
 2992SOL     OW10807   0.637   0.844   3.539
 2992SOL    HW110808   0.609   0.931   3.510
 2992SOL    HW210809   0.571   0.818   3.603
 2993SOL     OW10810  12.126   0.698   7.345
 2993SOL    HW110811  12.202   0.744   7.380
 2993SOL    HW210812  12.092   0.648   7.420
 2994SOL     OW10813   5.215   9.773  11.449
 2994SOL    HW110814   5.210   9.865  11.422
 2994SOL    HW210815   5.267   9.775  11.530
 2995SOL     OW10816   7.201  12.640   6.554
 2995SOL    HW110817   7.194  12.650   6.459
 2995SOL    HW210818   7.195  12.730   6.587
 2996SOL     OW10819   5.008   8.920   3.048
 2996SOL    HW110820   4.983   8.963   3.130
 2996SOL    HW210821   5.103   8.927   3.046
 2997SOL     OW10822   8.400   3.237  10.318
 2997SOL    HW110823   8.387   3.164  10.257
 2997SOL    HW210824   8.452   3.300  10.268
 2998SOL     OW10825   5.779   9.946  14.519
 2998SOL    HW110826   5.757  10.023  14.466
 2998SOL    HW210827   5.838   9.895  14.464
 2999SOL     OW10828   6.822  13.097  10.747
 2999SOL    HW110829   6.791  13.187  10.736
 2999SOL    HW210830   6.826  13.062  10.659
 3000SOL     OW10831   4.251   6.037   5.288
 3000SOL    HW110832   4.236   6.056   5.381
 3000SOL    HW210833   4.283   5.946   5.287
 3001SOL     OW10834  10.571   9.124   7.020
 3001SOL    HW110835  10.530   9.083   7.096
 3001SOL    HW210836  10.499   9.140   6.960
 3002SOL     OW10837   7.373   0.671   0.935
 3002SOL    HW110838   7.346   0.700   0.848
 3002SOL    HW210839   7.358   0.747   0.991
 3003SOL     OW10840   4.834   2.734  13.813
 3003SOL    HW110841   4.831   2.660  13.753
 3003SOL    HW210842   4.743   2.765  13.818
 3004SOL     OW10843   2.707   5.945  11.851
 3004SOL    HW110844   2.678   5.877  11.912
 3004SOL    HW210845   2.799   5.959  11.873
 3005SOL     OW10846  11.475   8.258   4.295
 3005SOL    HW110847  11.454   8.210   4.376
 3005SOL    HW210848  11.554   8.214   4.262
 3006SOL     OW10849   5.791  10.756  12.005
 3006SOL    HW110850   5.833  10.681  11.962
 3006SOL    HW210851   5.714  10.774  11.951
 3007SOL     OW10852   1.642   0.880   1.647
 3007SOL    HW110853   1.717   0.925   1.608
 3007SOL    HW210854   1.631   0.801   1.593
 3008SOL     OW10855   0.870   0.383   0.599
 3008SOL    HW110856   0.912   0.322   0.660
 3008SOL    HW210857   0.839   0.328   0.527
 3009SOL     OW10858  10.537  12.582   3.106
 3009SOL    HW110859  10.509  12.522   3.175
 3009SOL    HW210860  10.456  12.615   3.068
 3010SOL     OW10861   5.804   9.495  11.824
 3010SOL    HW110862   5.835   9.426  11.882
 3010SOL    HW210863   5.732   9.536  11.873
 3011SOL     OW10864   6.516   0.035   5.248
 3011SOL    HW110865   6.449  14.854   5.209
 3011SOL    HW210866   6.523   0.005   5.338
 3012SOL     OW10867   6.969   2.072   5.692
 3012SOL    HW110868   7.008   2.149   5.733
 3012SOL    HW210869   6.905   2.041   5.756
 3013SOL     OW10870  12.211   6.180   5.619
 3013SOL    HW110871  12.248   6.267   5.634
 3013SOL    HW210872  12.172   6.185   5.532
 3014SOL     OW10873  11.753   2.373  10.641
 3014SOL    HW110874  11.689   2.326  10.587
 3014SOL    HW210875  11.807   2.304  10.679
 3015SOL     OW10876  14.869   5.118   8.058
 3015SOL    HW110877  14.836   5.154   7.976
 3015SOL    HW210878  14.795   5.067   8.093
 3016SOL     OW10879   7.783   4.415   8.116
 3016SOL    HW110880   7.804   4.458   8.033
 3016SOL    HW210881   7.867   4.382   8.147
 3017SOL     OW10882   7.919   8.947   0.146
 3017SOL    HW110883   7.850   8.892   0.184
 3017SOL    HW210884   7.964   8.890   0.084
 3018SOL     OW10885   4.352   5.591   7.870
 3018SOL    HW110886   4.337   5.637   7.787
 3018SOL    HW210887   4.281   5.620   7.927
 3019SOL     OW10888  14.620   3.690  10.251
 3019SOL    HW110889  14.638   3.765  10.308
 3019SOL    HW210890  14.706   3.664  10.218
 3020SOL     OW10891  10.226  13.642   2.907
 3020SOL    HW110892  10.216  13.569   2.968
 3020SOL    HW210893  10.276  13.605   2.834
 3021SOL     OW10894   1.527   3.012   6.776
 3021SOL    HW110895   1.552   3.096   6.737
 3021SOL    HW210896   1.432   3.014   6.779
 3022SOL     OW10897   6.376  11.405  12.303
 3022SOL    HW110898   6.448  11.368  12.355
 3022SOL    HW210899   6.404  11.394  12.212
 3023SOL     OW10900   1.538   3.336   2.794
 3023SOL    HW110901   1.621   3.298   2.765
 3023SOL    HW210902   1.471   3.274   2.766
 3024SOL     OW10903  10.078  13.984  11.666
 3024SOL    HW110904  10.030  13.906  11.695
 3024SOL    HW210905  10.156  13.949  11.623
 3025SOL     OW10906  14.204   2.221   4.501
 3025SOL    HW110907  14.289   2.250   4.468
 3025SOL    HW210908  14.181   2.146   4.447
 3026SOL     OW10909   8.237   9.856  11.390
 3026SOL    HW110910   8.200   9.793  11.452
 3026SOL    HW210911   8.309   9.897  11.438
 3027SOL     OW10912   4.525  14.749  13.459
 3027SOL    HW110913   4.502  14.733  13.551
 3027SOL    HW210914   4.608  14.704  13.447
 3028SOL     OW10915   6.020   8.904   4.066
 3028SOL    HW110916   5.953   8.971   4.077
 3028SOL    HW210917   6.098   8.940   4.109
 3029SOL     OW10918   6.052   6.851  13.245
 3029SOL    HW110919   6.059   6.757  13.263
 3029SOL    HW210920   6.105   6.863  13.166
 3030SOL     OW10921   6.218  10.357   2.278
 3030SOL    HW110922   6.187  10.340   2.366
 3030SOL    HW210923   6.304  10.398   2.290
 3031SOL     OW10924  12.384   6.685  11.127
 3031SOL    HW110925  12.334   6.637  11.193
 3031SOL    HW210926  12.321   6.744  11.087
 3032SOL     OW10927   4.579   3.739   2.747
 3032SOL    HW110928   4.512   3.707   2.807
 3032SOL    HW210929   4.652   3.677   2.758
 3033SOL     OW10930  11.177   0.585   4.852
 3033SOL    HW110931  11.222   0.553   4.930
 3033SOL    HW210932  11.240   0.572   4.781
 3034SOL     OW10933   6.973   8.864   2.953
 3034SOL    HW110934   7.046   8.917   2.986
 3034SOL    HW210935   7.012   8.778   2.936
 3035SOL     OW10936   1.747   1.336  11.407
 3035SOL    HW110937   1.734   1.422  11.447
 3035SOL    HW210938   1.660   1.308  11.379
 3036SOL     OW10939   4.316   3.135   2.344
 3036SOL    HW110940   4.365   3.165   2.267
 3036SOL    HW210941   4.258   3.208   2.365
 3037SOL     OW10942   5.650   4.177   0.138
 3037SOL    HW110943   5.690   4.253   0.096
 3037SOL    HW210944   5.560   4.204   0.156
 3038SOL     OW10945   4.825   8.647  11.699
 3038SOL    HW110946   4.877   8.578  11.741
 3038SOL    HW210947   4.750   8.601  11.662
 3039SOL     OW10948  13.353   3.417   7.285
 3039SOL    HW110949  13.339   3.403   7.379
 3039SOL    HW210950  13.400   3.339   7.256
 3040SOL     OW10951   2.595  12.053  14.385
 3040SOL    HW110952   2.550  12.022  14.306
 3040SOL    HW210953   2.637  11.975  14.420
 3041SOL     OW10954   2.014   2.591   0.700
 3041SOL    HW110955   1.990   2.566   0.790
 3041SOL    HW210956   1.997   2.512   0.649
 3042SOL     OW10957   0.372   7.477  11.996
 3042SOL    HW110958   0.402   7.391  11.970
 3042SOL    HW210959   0.398   7.485  12.088
 3043SOL     OW10960   5.336   5.520   8.177
 3043SOL    HW110961   5.376   5.606   8.188
 3043SOL    HW210962   5.287   5.526   8.095
 3044SOL     OW10963   7.003   9.578   1.905
 3044SOL    HW110964   6.909   9.592   1.921
 3044SOL    HW210965   7.008   9.549   1.814
 3045SOL     OW10966  11.279   5.235  13.830
 3045SOL    HW110967  11.323   5.240  13.915
 3045SOL    HW210968  11.349   5.216  13.768
 3046SOL     OW10969  11.068  13.080   7.498
 3046SOL    HW110970  10.996  13.050   7.553
 3046SOL    HW210971  11.040  13.166   7.467
 3047SOL     OW10972  14.439   2.943   1.217
 3047SOL    HW110973  14.398   2.955   1.131
 3047SOL    HW210974  14.413   3.021   1.267
 3048SOL     OW10975   6.513   9.071  10.983
 3048SOL    HW110976   6.462   8.990  10.995
 3048SOL    HW210977   6.568   9.076  11.061
 3049SOL     OW10978  14.636   3.671   1.226
 3049SOL    HW110979  14.637   3.761   1.257
 3049SOL    HW210980  14.689   3.671   1.147
 3050SOL     OW10981   0.092  11.265   4.892
 3050SOL    HW110982   0.083  11.172   4.869
 3050SOL    HW210983   0.184  11.274   4.917
 3051SOL     OW10984   9.873  10.568  13.000
 3051SOL    HW110985   9.795  10.524  12.965
 3051SOL    HW210986   9.924  10.498  13.040
 3052SOL     OW10987   8.546   2.391   7.496
 3052SOL    HW110988   8.537   2.369   7.589
 3052SOL    HW210989   8.502   2.476   7.488
 3053SOL     OW10990  10.707   4.210   0.409
 3053SOL    HW110991  10.708   4.125   0.451
 3053SOL    HW210992  10.687   4.192   0.317
 3054SOL     OW10993   9.321   7.234  12.254
 3054SOL    HW110994   9.338   7.248  12.348
 3054SOL    HW210995   9.236   7.275  12.238
 3055SOL     OW10996  13.203   6.227   1.025
 3055SOL    HW110997  13.132   6.184   1.072
 3055SOL    HW210998  13.260   6.156   0.997
 3056SOL     OW10999   5.590   9.472   9.296
 3056SOL    HW111000   5.584   9.560   9.334
 3056SOL    HW211001   5.674   9.438   9.327
 3057SOL     OW11002   3.382   6.216  12.272
 3057SOL    HW111003   3.472   6.226  12.239
 3057SOL    HW211004   3.371   6.122  12.282
 3058SOL     OW11005   2.235   5.090   2.896
 3058SOL    HW111006   2.225   5.164   2.957
 3058SOL    HW211007   2.145   5.065   2.874
 3059SOL     OW11008  13.843   8.770   4.780
 3059SOL    HW111009  13.852   8.865   4.788
 3059SOL    HW211010  13.929   8.736   4.807
 3060SOL     OW11011   3.490   7.047   8.899
 3060SOL    HW111012   3.544   7.125   8.915
 3060SOL    HW211013   3.455   7.060   8.810
 3061SOL     OW11014   5.536   1.260   6.339
 3061SOL    HW111015   5.491   1.313   6.404
 3061SOL    HW211016   5.467   1.211   6.295
 3062SOL     OW11017  14.021  11.443   9.334
 3062SOL    HW111018  14.051  11.523   9.291
 3062SOL    HW211019  14.055  11.450   9.423
 3063SOL     OW11020   9.262  14.046   3.009
 3063SOL    HW111021   9.324  14.065   2.938
 3063SOL    HW211022   9.297  13.967   3.050
 3064SOL     OW11023   9.437   4.748   4.829
 3064SOL    HW111024   9.422   4.660   4.863
 3064SOL    HW211025   9.512   4.780   4.878
 3065SOL     OW11026   8.367   1.191   7.186
 3065SOL    HW111027   8.354   1.268   7.242
 3065SOL    HW211028   8.286   1.140   7.198
 3066SOL     OW11029   7.142   6.555  14.758
 3066SOL    HW111030   7.211   6.620  14.742
 3066SOL    HW211031   7.127   6.559  14.852
 3067SOL     OW11032   4.651   2.381  14.402
 3067SOL    HW111033   4.696   2.310  14.356
 3067SOL    HW211034   4.599   2.425  14.335
 3068SOL     OW11035  11.003   7.934   3.414
 3068SOL    HW111036  11.024   7.982   3.334
 3068SOL    HW211037  11.088   7.921   3.457
 3069SOL     OW11038   8.392  10.773  11.920
 3069SOL    HW111039   8.472  10.733  11.954
 3069SOL    HW211040   8.338  10.790  11.997
 3070SOL     OW11041   5.154  10.209   3.298
 3070SOL    HW111042   5.110  10.203   3.212
 3070SOL    HW211043   5.157  10.118   3.329
 3071SOL     OW11044  12.751  11.112   0.416
 3071SOL    HW111045  12.832  11.087   0.460
 3071SOL    HW211046  12.773  11.114   0.323
 3072SOL     OW11047   0.163  10.090   3.910
 3072SOL    HW111048   0.237  10.142   3.879
 3072SOL    HW211049   0.194  10.000   3.907
 3073SOL     OW11050   6.551   0.395  13.182
 3073SOL    HW111051   6.638   0.414  13.216
 3073SOL    HW211052   6.550   0.300  13.171
 3074SOL     OW11053   7.103  14.340   7.667
 3074SOL    HW111054   7.057  14.422   7.680
 3074SOL    HW211055   7.161  14.357   7.593
 3075SOL     OW11056   6.601  11.365   5.157
 3075SOL    HW111057   6.585  11.454   5.189
 3075SOL    HW211058   6.558  11.364   5.071
 3076SOL     OW11059   7.874   9.567   5.657
 3076SOL    HW111060   7.874   9.484   5.705
 3076SOL    HW211061   7.804   9.558   5.593
 3077SOL     OW11062  11.070   6.780   1.342
 3077SOL    HW111063  11.086   6.839   1.268
 3077SOL    HW211064  11.137   6.711   1.332
 3078SOL     OW11065   2.755  11.996   3.742
 3078SOL    HW111066   2.723  12.044   3.666
 3078SOL    HW211067   2.697  11.920   3.749
 3079SOL     OW11068   0.250  12.050   8.015
 3079SOL    HW111069   0.197  11.986   7.970
 3079SOL    HW211070   0.195  12.082   8.086
 3080SOL     OW11071   5.395  14.668   6.171
 3080SOL    HW111072   5.306  14.634   6.181
 3080SOL    HW211073   5.409  14.723   6.249
 3081SOL     OW11074  11.779   8.528   5.054
 3081SOL    HW111075  11.703   8.511   5.110
 3081SOL    HW211076  11.742   8.573   4.978
 3082SOL     OW11077   2.669  10.191   7.773
 3082SOL    HW111078   2.597  10.222   7.719
 3082SOL    HW211079   2.634  10.193   7.863
 3083SOL     OW11080   3.501   0.572  10.908
 3083SOL    HW111081   3.489   0.665  10.926
 3083SOL    HW211082   3.450   0.527  10.975
 3084SOL     OW11083   4.108   0.043   4.225
 3084SOL    HW111084   4.124   0.030   4.132
 3084SOL    HW211085   4.190   0.080   4.258
 3085SOL     OW11086  10.518   8.421   2.371
 3085SOL    HW111087  10.606   8.422   2.332
 3085SOL    HW211088  10.487   8.332   2.358
 3086SOL     OW11089   6.292   2.183   1.343
 3086SOL    HW111090   6.312   2.156   1.433
 3086SOL    HW211091   6.376   2.214   1.309
 3087SOL     OW11092  13.416   6.794   5.369
 3087SOL    HW111093  13.402   6.715   5.316
 3087SOL    HW211094  13.477   6.767   5.437
 3088SOL     OW11095   8.241  12.398   5.612
 3088SOL    HW111096   8.277  12.395   5.701
 3088SOL    HW211097   8.307  12.352   5.559
 3089SOL     OW11098   7.795  10.663   8.887
 3089SOL    HW111099   7.861  10.601   8.915
 3089SOL    HW211100   7.801  10.735   8.950
 3090SOL     OW11101   8.957   0.524   6.121
 3090SOL    HW111102   8.898   0.562   6.057
 3090SOL    HW211103   9.025   0.590   6.134
 3091SOL     OW11104  11.451   9.623   4.442
 3091SOL    HW111105  11.385   9.651   4.506
 3091SOL    HW211106  11.535   9.648   4.481
 3092SOL     OW11107   5.362  13.802  11.021
 3092SOL    HW111108   5.433  13.864  11.004
 3092SOL    HW211109   5.405  13.716  11.024
 3093SOL     OW11110   0.680   9.574   7.538
 3093SOL    HW111111   0.702   9.643   7.602
 3093SOL    HW211112   0.761   9.560   7.490
 3094SOL     OW11113   9.010   3.506  14.094
 3094SOL    HW111114   8.923   3.507  14.134
 3094SOL    HW211115   9.032   3.599  14.083
 3095SOL     OW11116   2.158   0.247   9.219
 3095SOL    HW111117   2.091   0.200   9.270
 3095SOL    HW211118   2.178   0.324   9.271
 3096SOL     OW11119   3.314   0.140  14.269
 3096SOL    HW111120   3.358   0.216  14.232
 3096SOL    HW211121   3.247   0.176  14.327
 3097SOL     OW11122  12.161   3.229   1.631
 3097SOL    HW111123  12.173   3.305   1.688
 3097SOL    HW211124  12.164   3.264   1.542
 3098SOL     OW11125   5.564   4.898   8.882
 3098SOL    HW111126   5.649   4.857   8.868
 3098SOL    HW211127   5.536   4.928   8.796
 3099SOL     OW11128   4.719  11.158   8.474
 3099SOL    HW111129   4.643  11.133   8.527
 3099SOL    HW211130   4.756  11.235   8.519
 3100SOL     OW11131   1.918   6.432   5.865
 3100SOL    HW111132   1.895   6.354   5.915
 3100SOL    HW211133   1.922   6.502   5.930
 3101SOL     OW11134  13.160   0.112  13.320
 3101SOL    HW111135  13.249   0.081  13.300
 3101SOL    HW211136  13.160   0.125  13.415
 3102SOL     OW11137   0.519  14.274  11.756
 3102SOL    HW111138   0.603  14.271  11.710
 3102SOL    HW211139   0.539  14.314  11.841
 3103SOL     OW11140   0.963   0.915   2.796
 3103SOL    HW111141   0.931   0.937   2.884
 3103SOL    HW211142   0.894   0.861   2.758
 3104SOL     OW11143   0.264   4.930   6.080
 3104SOL    HW111144   0.279   4.841   6.050
 3104SOL    HW211145   0.236   4.977   6.002
 3105SOL     OW11146  11.701   7.536  12.927
 3105SOL    HW111147  11.661   7.462  12.881
 3105SOL    HW211148  11.788   7.544  12.888
 3106SOL     OW11149   9.950   1.213   3.169
 3106SOL    HW111150   9.933   1.180   3.257
 3106SOL    HW211151   9.965   1.307   3.182
 3107SOL     OW11152   3.719   7.909  10.468
 3107SOL    HW111153   3.744   7.876  10.381
 3107SOL    HW211154   3.639   7.958  10.452
 3108SOL     OW11155  11.159   9.381  11.813
 3108SOL    HW111156  11.147   9.469  11.778
 3108SOL    HW211157  11.089   9.371  11.878
 3109SOL     OW11158   7.013   1.469   9.207
 3109SOL    HW111159   7.064   1.436   9.282
 3109SOL    HW211160   6.924   1.440   9.225
 3110SOL     OW11161   0.354   4.184  11.729
 3110SOL    HW111162   0.416   4.113  11.750
 3110SOL    HW211163   0.410   4.260  11.715
 3111SOL     OW11164   3.059   8.265   4.494
 3111SOL    HW111165   3.080   8.248   4.403
 3111SOL    HW211166   3.071   8.359   4.506
 3112SOL     OW11167   8.024  14.095   4.134
 3112SOL    HW111168   8.023  14.163   4.067
 3112SOL    HW211169   7.954  14.119   4.194
 3113SOL     OW11170   6.281   5.082  13.439
 3113SOL    HW111171   6.342   5.111  13.506
 3113SOL    HW211172   6.198   5.070  13.486
 3114SOL     OW11173  12.015  11.202   3.969
 3114SOL    HW111174  12.041  11.161   3.886
 3114SOL    HW211175  12.097  11.223   4.012
 3115SOL     OW11176  11.685   7.976   3.421
 3115SOL    HW111177  11.594   7.945   3.416
 3115SOL    HW211178  11.702   7.985   3.515
 3116SOL     OW11179   0.987   1.646   2.066
 3116SOL    HW111180   0.997   1.553   2.042
 3116SOL    HW211181   0.975   1.645   2.161
 3117SOL     OW11182   4.309   2.375  13.809
 3117SOL    HW111183   4.304   2.319  13.887
 3117SOL    HW211184   4.356   2.453  13.840
 3118SOL     OW11185  12.156   6.093  11.779
 3118SOL    HW111186  12.067   6.095  11.814
 3118SOL    HW211187  12.186   6.184  11.787
 3119SOL     OW11188   9.032  10.214   3.581
 3119SOL    HW111189   8.965  10.174   3.526
 3119SOL    HW211190   9.102  10.149   3.586
 3120SOL     OW11191  13.788   0.377   1.663
 3120SOL    HW111192  13.805   0.308   1.726
 3120SOL    HW211193  13.727   0.436   1.708
 3121SOL     OW11194   7.958  13.737   3.664
 3121SOL    HW111195   7.916  13.711   3.582
 3121SOL    HW211196   7.916  13.683   3.731
 3122SOL     OW11197   1.829   1.819   7.018
 3122SOL    HW111198   1.832   1.909   7.052
 3122SOL    HW211199   1.822   1.765   7.096
 3123SOL     OW11200  12.508   2.309   3.810
 3123SOL    HW111201  12.471   2.296   3.897
 3123SOL    HW211202  12.533   2.221   3.781
 3124SOL     OW11203  10.296  13.514   2.340
 3124SOL    HW111204  10.312  13.604   2.312
 3124SOL    HW211205  10.252  13.474   2.265
 3125SOL     OW11206   3.868   2.557   9.958
 3125SOL    HW111207   3.831   2.631   9.910
 3125SOL    HW211208   3.806   2.486   9.943
 3126SOL     OW11209  12.811  14.303   2.454
 3126SOL    HW111210  12.734  14.287   2.508
 3126SOL    HW211211  12.776  14.342   2.373
 3127SOL     OW11212   6.377   3.157   4.212
 3127SOL    HW111213   6.408   3.067   4.211
 3127SOL    HW211214   6.381   3.185   4.121
 3128SOL     OW11215   1.738  12.219   7.474
 3128SOL    HW111216   1.652  12.178   7.472
 3128SOL    HW211217   1.783  12.183   7.397
 3129SOL     OW11218   6.870   5.074   9.388
 3129SOL    HW111219   6.821   5.007   9.436
 3129SOL    HW211220   6.807   5.145   9.375
 3130SOL     OW11221   4.900  11.548  13.034
 3130SOL    HW111222   4.956  11.492  13.088
 3130SOL    HW211223   4.815  11.503  13.034
 3131SOL     OW11224   7.823  13.212   0.016
 3131SOL    HW111225   7.728  13.222   0.014
 3131SOL    HW211226   7.841  13.163   0.096
 3132SOL     OW11227  11.329   3.449   0.529
 3132SOL    HW111228  11.287   3.514   0.585
 3132SOL    HW211229  11.261   3.385   0.510
 3133SOL     OW11230   8.110   1.533   4.234
 3133SOL    HW111231   8.139   1.557   4.323
 3133SOL    HW211232   8.173   1.467   4.206
 3134SOL     OW11233   4.199  10.000   1.555
 3134SOL    HW111234   4.183   9.950   1.475
 3134SOL    HW211235   4.111  10.019   1.589
 3135SOL     OW11236  14.772   0.932  13.587
 3135SOL    HW111237  14.697   0.991  13.576
 3135SOL    HW211238  14.848   0.989  13.578
 3136SOL     OW11239   6.565  11.404   2.579
 3136SOL    HW111240   6.592  11.363   2.661
 3136SOL    HW211241   6.577  11.498   2.593
 3137SOL     OW11242  14.589   2.527   7.054
 3137SOL    HW111243  14.619   2.462   7.117
 3137SOL    HW211244  14.638   2.606   7.076
 3138SOL     OW11245   8.893   7.298   5.929
 3138SOL    HW111246   8.941   7.381   5.937
 3138SOL    HW211247   8.865   7.277   6.018
 3139SOL     OW11248   3.923   3.795   4.077
 3139SOL    HW111249   3.929   3.714   4.026
 3139SOL    HW211250   3.985   3.782   4.149
 3140SOL     OW11251   8.004   8.553   6.851
 3140SOL    HW111252   8.084   8.502   6.867
 3140SOL    HW211253   8.013   8.630   6.907
 3141SOL     OW11254   2.499   3.239   3.712
 3141SOL    HW111255   2.502   3.315   3.653
 3141SOL    HW211256   2.406   3.229   3.733
 3142SOL     OW11257  13.094  14.601   6.009
 3142SOL    HW111258  13.100  14.546   5.930
 3142SOL    HW211259  13.045  14.548   6.071
 3143SOL     OW11260  14.870   4.708   8.206
 3143SOL    HW111261   0.038   4.791   8.224
 3143SOL    HW211262  14.851   4.672   8.293
 3144SOL     OW11263   2.256  11.523  10.871
 3144SOL    HW111264   2.247  11.590  10.804
 3144SOL    HW211265   2.273  11.572  10.952
 3145SOL     OW11266  12.827   9.634  12.797
 3145SOL    HW111267  12.777   9.569  12.847
 3145SOL    HW211268  12.893   9.582  12.751
 3146SOL     OW11269  11.216   7.407   9.568
 3146SOL    HW111270  11.134   7.403   9.518
 3146SOL    HW211271  11.260   7.485   9.534
 3147SOL     OW11272   0.746   3.675   7.105
 3147SOL    HW111273   0.786   3.648   7.023
 3147SOL    HW211274   0.814   3.662   7.171
 3148SOL     OW11275   7.291   6.373  12.779
 3148SOL    HW111276   7.311   6.333  12.864
 3148SOL    HW211277   7.353   6.446  12.772
 3149SOL     OW11278   5.035   6.898   6.865
 3149SOL    HW111279   5.021   6.991   6.885
 3149SOL    HW211280   5.114   6.875   6.912
 3150SOL     OW11281  14.629  14.151  10.630
 3150SOL    HW111282  14.667  14.179  10.547
 3150SOL    HW211283  14.697  14.168  10.695
 3151SOL     OW11284  12.900  12.297   5.705
 3151SOL    HW111285  12.960  12.240   5.657
 3151SOL    HW211286  12.880  12.248   5.785
 3152SOL     OW11287  14.237  12.411   6.696
 3152SOL    HW111288  14.252  12.380   6.606
 3152SOL    HW211289  14.319  12.455   6.720
 3153SOL     OW11290   6.573   2.630   3.400
 3153SOL    HW111291   6.500   2.648   3.459
 3153SOL    HW211292   6.624   2.711   3.400
 3154SOL     OW11293   5.307   0.332   9.989
 3154SOL    HW111294   5.254   0.265  10.031
 3154SOL    HW211295   5.312   0.403  10.053
 3155SOL     OW11296   1.846   5.521  11.538
 3155SOL    HW111297   1.790   5.451  11.503
 3155SOL    HW211298   1.843   5.509  11.633
 3156SOL     OW11299   5.630   0.784  12.420
 3156SOL    HW111300   5.593   0.849  12.479
 3156SOL    HW211301   5.663   0.715  12.477
 3157SOL     OW11302   9.006  12.868  13.095
 3157SOL    HW111303   8.959  12.907  13.021
 3157SOL    HW211304   9.092  12.909  13.093
 3158SOL     OW11305   9.577  13.104   3.667
 3158SOL    HW111306   9.485  13.130   3.666
 3158SOL    HW211307   9.625  13.184   3.688
 3159SOL     OW11308   5.320   2.903  13.192
 3159SOL    HW111309   5.392   2.953  13.230
 3159SOL    HW211310   5.327   2.920  13.098
 3160SOL     OW11311   9.246  11.665   0.171
 3160SOL    HW111312   9.245  11.587   0.226
 3160SOL    HW211313   9.204  11.733   0.224
 3161SOL     OW11314   6.141   5.240   3.526
 3161SOL    HW111315   6.138   5.228   3.621
 3161SOL    HW211316   6.049   5.247   3.500
 3162SOL     OW11317   0.293   6.910  11.655
 3162SOL    HW111318   0.198   6.903  11.663
 3162SOL    HW211319   0.326   6.900  11.745
 3163SOL     OW11320   6.980   1.558   6.520
 3163SOL    HW111321   7.071   1.527   6.525
 3163SOL    HW211322   6.928   1.479   6.508
 3164SOL     OW11323  14.385   6.047   6.428
 3164SOL    HW111324  14.312   6.072   6.371
 3164SOL    HW211325  14.411   6.128   6.472
 3165SOL     OW11326  13.772   1.006   4.178
 3165SOL    HW111327  13.828   1.000   4.100
 3165SOL    HW211328  13.832   1.035   4.247
 3166SOL     OW11329   3.182  12.061  13.722
 3166SOL    HW111330   3.265  12.031  13.685
 3166SOL    HW211331   3.120  11.990  13.701
 3167SOL     OW11332  13.380  14.106  11.423
 3167SOL    HW111333  13.414  14.075  11.338
 3167SOL    HW211334  13.297  14.148  11.402
 3168SOL     OW11335   7.168   2.189  11.450
 3168SOL    HW111336   7.191   2.264  11.504
 3168SOL    HW211337   7.125   2.227  11.373
 3169SOL     OW11338   0.548   2.501  11.076
 3169SOL    HW111339   0.606   2.452  11.018
 3169SOL    HW211340   0.462   2.462  11.061
 3170SOL     OW11341   4.494  11.222   8.628
 3170SOL    HW111342   4.425  11.172   8.671
 3170SOL    HW211343   4.560  11.235   8.696
 3171SOL     OW11344   6.050   5.616   6.352
 3171SOL    HW111345   5.970   5.568   6.373
 3171SOL    HW211346   6.101   5.614   6.433
 3172SOL     OW11347   4.188   2.927   3.375
 3172SOL    HW111348   4.150   2.953   3.291
 3172SOL    HW211349   4.112   2.922   3.434
 3173SOL     OW11350  14.157   2.878  11.639
 3173SOL    HW111351  14.115   2.908  11.558
 3173SOL    HW211352  14.115   2.794  11.658
 3174SOL     OW11353   6.674   9.991  11.283
 3174SOL    HW111354   6.594  10.009  11.331
 3174SOL    HW211355   6.665   9.899  11.255
 3175SOL     OW11356  14.366  10.578   6.042
 3175SOL    HW111357  14.455  10.549   6.064
 3175SOL    HW211358  14.324  10.500   6.007
 3176SOL     OW11359   8.674   2.123   3.442
 3176SOL    HW111360   8.748   2.062   3.446
 3176SOL    HW211361   8.686   2.170   3.360
 3177SOL     OW11362   5.583   1.462   0.235
 3177SOL    HW111363   5.558   1.553   0.222
 3177SOL    HW211364   5.633   1.463   0.317
 3178SOL     OW11365  14.039   4.090  12.690
 3178SOL    HW111366  14.104   4.067  12.623
 3178SOL    HW211367  13.994   4.166  12.656
 3179SOL     OW11368   7.196  11.819   4.473
 3179SOL    HW111369   7.165  11.907   4.452
 3179SOL    HW211370   7.124  11.762   4.447
 3180SOL     OW11371   8.868   1.937   8.497
 3180SOL    HW111372   8.942   1.895   8.453
 3180SOL    HW211373   8.793   1.918   8.441
 3181SOL     OW11374  11.889   1.210   0.308
 3181SOL    HW111375  11.852   1.122   0.316
 3181SOL    HW211376  11.824   1.258   0.256
 3182SOL     OW11377   9.763   9.481   2.515
 3182SOL    HW111378   9.768   9.531   2.433
 3182SOL    HW211379   9.847   9.435   2.519
 3183SOL     OW11380  11.615  11.653   7.166
 3183SOL    HW111381  11.589  11.636   7.075
 3183SOL    HW211382  11.542  11.619   7.218
 3184SOL     OW11383   4.575   7.713  13.600
 3184SOL    HW111384   4.521   7.695  13.524
 3184SOL    HW211385   4.519   7.693  13.675
 3185SOL     OW11386   5.826   9.076   8.688
 3185SOL    HW111387   5.769   9.119   8.751
 3185SOL    HW211388   5.772   9.068   8.609
 3186SOL     OW11389  10.507   0.054   1.750
 3186SOL    HW111390  10.544  14.873   1.818
 3186SOL    HW211391  10.551   0.138   1.763
 3187SOL     OW11392   5.672   4.256   6.271
 3187SOL    HW111393   5.749   4.208   6.242
 3187SOL    HW211394   5.598   4.207   6.236
 3188SOL     OW11395  10.241  12.630   9.044
 3188SOL    HW111396  10.170  12.682   9.083
 3188SOL    HW211397  10.309  12.694   9.024
 3189SOL     OW11398   6.249   9.258  14.546
 3189SOL    HW111399   6.328   9.253  14.601
 3189SOL    HW211400   6.212   9.170  14.550
 3190SOL     OW11401   9.062  13.985   1.715
 3190SOL    HW111402   9.114  13.968   1.636
 3190SOL    HW211403   9.095  13.921   1.779
 3191SOL     OW11404   3.001  13.463   4.474
 3191SOL    HW111405   2.933  13.505   4.422
 3191SOL    HW211406   3.039  13.535   4.526
 3192SOL     OW11407  12.798   1.709   6.862
 3192SOL    HW111408  12.749   1.764   6.801
 3192SOL    HW211409  12.743   1.703   6.940
 3193SOL     OW11410  12.183  12.247   7.203
 3193SOL    HW111411  12.109  12.212   7.252
 3193SOL    HW211412  12.226  12.308   7.263
 3194SOL     OW11413   6.366  11.035   3.475
 3194SOL    HW111414   6.338  10.987   3.553
 3194SOL    HW211415   6.287  11.079   3.444
 3195SOL     OW11416   6.598  12.553   7.433
 3195SOL    HW111417   6.510  12.528   7.460
 3195SOL    HW211418   6.584  12.615   7.360
 3196SOL     OW11419  14.470   8.774   3.133
 3196SOL    HW111420  14.380   8.797   3.155
 3196SOL    HW211421  14.463   8.719   3.055
 3197SOL     OW11422   8.705  10.345   1.011
 3197SOL    HW111423   8.719  10.427   1.059
 3197SOL    HW211424   8.790  10.325   0.973
 3198SOL     OW11425   8.882   2.435   8.001
 3198SOL    HW111426   8.919   2.516   8.036
 3198SOL    HW211427   8.906   2.368   8.065
 3199SOL     OW11428   6.101   1.007   0.784
 3199SOL    HW111429   6.087   1.102   0.787
 3199SOL    HW211430   6.016   0.972   0.758
 3200SOL     OW11431   4.929   6.362  14.268
 3200SOL    HW111432   4.991   6.301  14.308
 3200SOL    HW211433   4.960   6.374  14.179
 3201SOL     OW11434   5.308   3.328  14.340
 3201SOL    HW111435   5.385   3.271  14.344
 3201SOL    HW211436   5.249   3.284  14.278
 3202SOL     OW11437   4.908   6.163  10.838
 3202SOL    HW111438   5.002   6.181  10.839
 3202SOL    HW211439   4.893   6.109  10.916
 3203SOL     OW11440   7.777   3.536  13.237
 3203SOL    HW111441   7.713   3.520  13.168
 3203SOL    HW211442   7.848   3.583  13.194
 3204SOL     OW11443   9.879   8.222   4.218
 3204SOL    HW111444   9.921   8.307   4.203
 3204SOL    HW211445   9.917   8.165   4.150
 3205SOL     OW11446   0.887   8.187   3.178
 3205SOL    HW111447   0.932   8.245   3.239
 3205SOL    HW211448   0.862   8.243   3.105
 3206SOL     OW11449  10.589   8.318   4.476
 3206SOL    HW111450  10.575   8.257   4.403
 3206SOL    HW211451  10.683   8.334   4.477
 3207SOL     OW11452   6.404  10.941  14.530
 3207SOL    HW111453   6.390  10.856  14.571
 3207SOL    HW211454   6.315  10.975  14.516
 3208SOL     OW11455   8.759   7.736  12.123
 3208SOL    HW111456   8.713   7.663  12.164
 3208SOL    HW211457   8.852   7.714  12.131
 3209SOL     OW11458  13.472   7.249  11.021
 3209SOL    HW111459  13.478   7.200  11.103
 3209SOL    HW211460  13.389   7.220  10.982
 3210SOL     OW11461   1.191  11.093   5.350
 3210SOL    HW111462   1.102  11.073   5.323
 3210SOL    HW211463   1.246  11.036   5.295
 3211SOL     OW11464  13.886   1.113  11.073
 3211SOL    HW111465  13.833   1.035  11.054
 3211SOL    HW211466  13.932   1.093  11.154
 3212SOL     OW11467   8.107   9.925   0.025
 3212SOL    HW111468   8.070  10.014   0.024
 3212SOL    HW211469   8.187   9.932  14.850
 3213SOL     OW11470   5.609   2.558   3.420
 3213SOL    HW111471   5.590   2.490   3.484
 3213SOL    HW211472   5.524   2.599   3.402
 3214SOL     OW11473   1.200  13.454   8.193
 3214SOL    HW111474   1.172  13.516   8.261
 3214SOL    HW211475   1.129  13.390   8.188
 3215SOL     OW11476   9.937   7.245   9.353
 3215SOL    HW111477   9.951   7.268   9.444
 3215SOL    HW211478  10.007   7.183   9.333
 3216SOL     OW11479   5.982   2.921   0.259
 3216SOL    HW111480   6.060   2.919   0.204
 3216SOL    HW211481   6.001   2.857   0.328
 3217SOL     OW11482   6.739   3.615  12.244
 3217SOL    HW111483   6.681   3.556  12.291
 3217SOL    HW211484   6.811   3.560  12.214
 3218SOL     OW11485  11.519  10.890   2.875
 3218SOL    HW111486  11.560  10.966   2.917
 3218SOL    HW211487  11.476  10.926   2.797
 3219SOL     OW11488  12.010  11.629   6.305
 3219SOL    HW111489  12.001  11.671   6.219
 3219SOL    HW211490  11.957  11.550   6.298
 3220SOL     OW11491   2.195   6.809  13.633
 3220SOL    HW111492   2.226   6.805  13.723
 3220SOL    HW211493   2.275   6.817  13.580
 3221SOL     OW11494   9.574   9.737  10.579
 3221SOL    HW111495   9.571   9.699  10.491
 3221SOL    HW211496   9.521   9.678  10.633
 3222SOL     OW11497   0.708   8.259   4.299
 3222SOL    HW111498   0.627   8.210   4.305
 3222SOL    HW211499   0.688   8.345   4.337
 3223SOL     OW11500  14.259   3.546   6.280
 3223SOL    HW111501  14.212   3.595   6.347
 3223SOL    HW211502  14.205   3.467   6.266
 3224SOL     OW11503  12.014   9.881   4.935
 3224SOL    HW111504  12.063   9.914   4.860
 3224SOL    HW211505  11.986   9.960   4.981
 3225SOL     OW11506   8.953   7.171   0.252
 3225SOL    HW111507   9.003   7.208   0.179
 3225SOL    HW211508   8.895   7.242   0.279
 3226SOL     OW11509  12.744   2.534   8.178
 3226SOL    HW111510  12.780   2.452   8.214
 3226SOL    HW211511  12.649   2.522   8.183
 3227SOL     OW11512   1.243   7.366   8.852
 3227SOL    HW111513   1.299   7.332   8.922
 3227SOL    HW211514   1.292   7.440   8.817
 3228SOL     OW11515   7.113   9.368   7.625
 3228SOL    HW111516   7.128   9.322   7.708
 3228SOL    HW211517   7.022   9.348   7.602
 3229SOL     OW11518   2.228   7.585   5.240
 3229SOL    HW111519   2.228   7.619   5.151
 3229SOL    HW211520   2.312   7.542   5.250
 3230SOL     OW11521  12.290   6.937   3.459
 3230SOL    HW111522  12.289   7.019   3.509
 3230SOL    HW211523  12.266   6.963   3.370
 3231SOL     OW11524  10.773  14.795  14.404
 3231SOL    HW111525  10.791  14.742  14.481
 3231SOL    HW211526  10.723  14.738  14.346
 3232SOL     OW11527  12.938  12.595   3.745
 3232SOL    HW111528  12.919  12.621   3.836
 3232SOL    HW211529  12.872  12.641   3.693
 3233SOL     OW11530  14.455  10.528   2.367
 3233SOL    HW111531  14.448  10.447   2.318
 3233SOL    HW211532  14.368  10.568   2.362
 3234SOL     OW11533   4.750  10.028   0.291
 3234SOL    HW111534   4.721  10.108   0.247
 3234SOL    HW211535   4.842  10.043   0.312
 3235SOL     OW11536   2.844   3.809   3.403
 3235SOL    HW111537   2.858   3.862   3.482
 3235SOL    HW211538   2.930   3.772   3.384
 3236SOL     OW11539  14.727   6.137  11.250
 3236SOL    HW111540  14.769   6.182  11.323
 3236SOL    HW211541  14.680   6.064  11.291
 3237SOL     OW11542  14.849  12.161   3.220
 3237SOL    HW111543   0.052  12.215   3.209
 3237SOL    HW211544  14.863  12.087   3.161
 3238SOL     OW11545   8.123   9.539  10.149
 3238SOL    HW111546   8.034   9.506  10.139
 3238SOL    HW211547   8.119   9.630  10.118
 3239SOL     OW11548   8.127   6.036  10.515
 3239SOL    HW111549   8.200   5.984  10.481
 3239SOL    HW211550   8.052   6.010  10.463
 3240SOL     OW11551  10.949   7.431   2.711
 3240SOL    HW111552  10.942   7.479   2.794
 3240SOL    HW211553  11.008   7.358   2.731
 3241SOL     OW11554   4.575   0.030   1.788
 3241SOL    HW111555   4.572   0.021   1.693
 3241SOL    HW211556   4.484   0.020   1.816
 3242SOL     OW11557   0.965   8.628  13.275
 3242SOL    HW111558   0.886   8.673  13.244
 3242SOL    HW211559   0.939   8.588  13.358
 3243SOL     OW11560   4.737   3.838   4.290
 3243SOL    HW111561   4.684   3.859   4.213
 3243SOL    HW211562   4.676   3.845   4.364
 3244SOL     OW11563   9.083   8.355   8.870
 3244SOL    HW111564   9.165   8.344   8.821
 3244SOL    HW211565   9.065   8.449   8.865
 3245SOL     OW11566   1.346   4.640  11.266
 3245SOL    HW111567   1.307   4.607  11.346
 3245SOL    HW211568   1.274   4.645  11.204
 3246SOL     OW11569   7.002  12.267   0.508
 3246SOL    HW111570   7.037  12.322   0.439
 3246SOL    HW211571   7.072  12.204   0.527
 3247SOL     OW11572   6.724  12.678  10.030
 3247SOL    HW111573   6.654  12.729  10.072
 3247SOL    HW211574   6.727  12.710   9.940
 3248SOL     OW11575  12.579   6.172   2.965
 3248SOL    HW111576  12.629   6.248   2.994
 3248SOL    HW211577  12.624   6.143   2.885
 3249SOL     OW11578   9.802   7.759  12.973
 3249SOL    HW111579   9.761   7.685  13.017
 3249SOL    HW211580   9.758   7.836  13.011
 3250SOL     OW11581   0.925   2.024  14.474
 3250SOL    HW111582   0.884   2.028  14.560
 3250SOL    HW211583   0.862   2.066  14.415
 3251SOL     OW11584   3.594   8.814   1.958
 3251SOL    HW111585   3.514   8.775   1.993
 3251SOL    HW211586   3.574   8.906   1.947
 3252SOL     OW11587   9.588   2.590   4.704
 3252SOL    HW111588   9.653   2.537   4.749
 3252SOL    HW211589   9.522   2.609   4.771
 3253SOL     OW11590   3.727   8.869   0.147
 3253SOL    HW111591   3.762   8.942   0.199
 3253SOL    HW211592   3.636   8.894   0.129
 3254SOL     OW11593  12.997   1.028   4.438
 3254SOL    HW111594  13.003   0.997   4.529
 3254SOL    HW211595  12.972   0.951   4.388
 3255SOL     OW11596   4.177   6.111  13.562
 3255SOL    HW111597   4.088   6.108  13.598
 3255SOL    HW211598   4.217   6.186  13.606
 3256SOL     OW11599   4.425   1.147   4.928
 3256SOL    HW111600   4.510   1.129   4.889
 3256SOL    HW211601   4.361   1.120   4.862
 3257SOL     OW11602   9.061  10.679   1.607
 3257SOL    HW111603   8.997  10.631   1.659
 3257SOL    HW211604   9.111  10.730   1.671
 3258SOL     OW11605   3.689   4.398  10.895
 3258SOL    HW111606   3.690   4.487  10.929
 3258SOL    HW211607   3.754   4.398  10.825
 3259SOL     OW11608   5.339  11.991   1.474
 3259SOL    HW111609   5.373  11.904   1.495
 3259SOL    HW211610   5.401  12.052   1.514
 3260SOL     OW11611   1.356   4.943   0.725
 3260SOL    HW111612   1.287   4.957   0.660
 3260SOL    HW211613   1.382   4.852   0.711
 3261SOL     OW11614   2.918   3.819   5.465
 3261SOL    HW111615   2.837   3.837   5.513
 3261SOL    HW211616   2.933   3.897   5.412
 3262SOL     OW11617  10.146   7.999   7.843
 3262SOL    HW111618  10.208   7.951   7.898
 3262SOL    HW211619  10.135   7.943   7.766
 3263SOL     OW11620   6.950  14.833   2.755
 3263SOL    HW111621   6.994  14.754   2.723
 3263SOL    HW211622   7.019   0.008   2.797
 3264SOL     OW11623   4.586   9.414  11.953
 3264SOL    HW111624   4.539   9.476  11.897
 3264SOL    HW211625   4.580   9.331  11.907
 3265SOL     OW11626   2.844   4.157   4.474
 3265SOL    HW111627   2.902   4.171   4.549
 3265SOL    HW211628   2.894   4.186   4.398
 3266SOL     OW11629   8.715   6.435   7.115
 3266SOL    HW111630   8.726   6.502   7.048
 3266SOL    HW211631   8.633   6.459   7.160
 3267SOL     OW11632   4.614  14.142  11.530
 3267SOL    HW111633   4.555  14.142  11.455
 3267SOL    HW211634   4.685  14.083  11.504
 3268SOL     OW11635   6.311  11.906  11.613
 3268SOL    HW111636   6.324  11.913  11.519
 3268SOL    HW211637   6.399  11.911  11.650
 3269SOL     OW11638  12.838   4.070   1.823
 3269SOL    HW111639  12.880   4.097   1.742
 3269SOL    HW211640  12.862   4.137   1.886
 3270SOL     OW11641  11.382   3.936   8.312
 3270SOL    HW111642  11.477   3.938   8.305
 3270SOL    HW211643  11.351   3.964   8.226
 3271SOL     OW11644  11.749  14.295  13.599
 3271SOL    HW111645  11.697  14.266  13.524
 3271SOL    HW211646  11.833  14.321  13.562
 3272SOL     OW11647  10.831   0.856  14.431
 3272SOL    HW111648  10.885   0.807  14.369
 3272SOL    HW211649  10.812   0.794  14.501
 3273SOL     OW11650   9.221   2.586   4.082
 3273SOL    HW111651   9.179   2.538   4.011
 3273SOL    HW211652   9.152   2.598   4.148
 3274SOL     OW11653   8.495   2.420   9.260
 3274SOL    HW111654   8.538   2.468   9.189
 3274SOL    HW211655   8.565   2.404   9.324
 3275SOL     OW11656  12.600  12.611  10.021
 3275SOL    HW111657  12.536  12.602   9.951
 3275SOL    HW211658  12.668  12.547  10.001
 3276SOL     OW11659   0.679  10.741   4.807
 3276SOL    HW111660   0.676  10.787   4.891
 3276SOL    HW211661   0.742  10.791   4.754
 3277SOL     OW11662   9.396  13.444   1.716
 3277SOL    HW111663   9.428  13.525   1.676
 3277SOL    HW211664   9.381  13.467   1.808
 3278SOL     OW11665   2.559   3.184   5.216
 3278SOL    HW111666   2.571   3.274   5.186
 3278SOL    HW211667   2.483   3.189   5.275
 3279SOL     OW11668  12.952  11.098   6.179
 3279SOL    HW111669  13.019  11.161   6.205
 3279SOL    HW211670  12.975  11.073   6.090
 3280SOL     OW11671   4.896   5.398   3.979
 3280SOL    HW111672   4.834   5.371   4.047
 3280SOL    HW211673   4.978   5.356   4.002
 3281SOL     OW11674   4.998  11.798   8.759
 3281SOL    HW111675   5.041  11.720   8.795
 3281SOL    HW211676   5.058  11.828   8.690
 3282SOL     OW11677   8.292   5.572   9.868
 3282SOL    HW111678   8.262   5.623   9.793
 3282SOL    HW211679   8.311   5.637   9.935
 3283SOL     OW11680  13.098  12.009  10.167
 3283SOL    HW111681  13.019  12.014  10.222
 3283SOL    HW211682  13.079  12.068  10.094
 3284SOL     OW11683   6.861   2.781   2.099
 3284SOL    HW111684   6.777   2.820   2.076
 3284SOL    HW211685   6.919   2.856   2.114
 3285SOL     OW11686   2.133   2.788  10.170
 3285SOL    HW111687   2.070   2.754  10.107
 3285SOL    HW211688   2.184   2.712  10.197
 3286SOL     OW11689   0.862   0.443   8.813
 3286SOL    HW111690   0.957   0.427   8.813
 3286SOL    HW211691   0.834   0.422   8.902
 3287SOL     OW11692  13.669   0.431  14.529
 3287SOL    HW111693  13.751   0.480  14.538
 3287SOL    HW211694  13.607   0.496  14.495
 3288SOL     OW11695  14.592  10.130  12.657
 3288SOL    HW111696  14.659  10.122  12.590
 3288SOL    HW211697  14.567  10.039  12.677
 3289SOL     OW11698  14.876  14.596   5.129
 3289SOL    HW111699  14.827  14.552   5.198
 3289SOL    HW211700   0.091  14.594   5.159
 3290SOL     OW11701  11.277   7.374  12.673
 3290SOL    HW111702  11.203   7.391  12.731
 3290SOL    HW211703  11.277   7.279  12.661
 3291SOL     OW11704   2.118   3.601   0.807
 3291SOL    HW111705   2.122   3.695   0.825
 3291SOL    HW211706   2.025   3.580   0.810
 3292SOL     OW11707   8.091  11.315   1.547
 3292SOL    HW111708   8.116  11.404   1.573
 3292SOL    HW211709   8.053  11.277   1.626
 3293SOL     OW11710   5.603  14.793   8.038
 3293SOL    HW111711   5.653  14.781   7.958
 3293SOL    HW211712   5.548  14.869   8.021
 3294SOL     OW11713   7.943  11.111   8.425
 3294SOL    HW111714   7.959  11.157   8.507
 3294SOL    HW211715   7.903  11.176   8.368
 3295SOL     OW11716   0.699  13.217   2.539
 3295SOL    HW111717   0.711  13.262   2.455
 3295SOL    HW211718   0.709  13.286   2.604
 3296SOL     OW11719  11.490   1.337   2.569
 3296SOL    HW111720  11.503   1.398   2.496
 3296SOL    HW211721  11.475   1.253   2.528
 3297SOL     OW11722   5.368   7.988  10.259
 3297SOL    HW111723   5.315   7.987  10.339
 3297SOL    HW211724   5.336   7.913  10.209
 3298SOL     OW11725  11.867  12.037   6.627
 3298SOL    HW111726  11.899  12.101   6.691
 3298SOL    HW211727  11.915  11.956   6.649
 3299SOL     OW11728   7.771   4.905  13.190
 3299SOL    HW111729   7.714   4.929  13.117
 3299SOL    HW211730   7.851   4.956  13.176
 3300SOL     OW11731   2.546   2.782   2.070
 3300SOL    HW111732   2.507   2.699   2.045
 3300SOL    HW211733   2.563   2.826   1.987
 3301SOL     OW11734  14.727   6.063   6.133
 3301SOL    HW111735  14.760   5.976   6.112
 3301SOL    HW211736  14.658   6.079   6.069
 3302SOL     OW11737   5.134   1.254   5.740
 3302SOL    HW111738   5.159   1.344   5.719
 3302SOL    HW211739   5.208   1.201   5.710
 3303SOL     OW11740  12.901   7.105   7.590
 3303SOL    HW111741  12.834   7.073   7.529
 3303SOL    HW211742  12.879   7.197   7.604
 3304SOL     OW11743   0.284  12.266  10.128
 3304SOL    HW111744   0.239  12.274  10.212
 3304SOL    HW211745   0.286  12.354  10.093
 3305SOL     OW11746   9.921  12.750   2.097
 3305SOL    HW111747   9.911  12.693   2.021
 3305SOL    HW211748   9.851  12.723   2.156
 3306SOL     OW11749   3.344   3.051  11.661
 3306SOL    HW111750   3.390   3.098  11.592
 3306SOL    HW211751   3.320   2.967  11.621
 3307SOL     OW11752  12.999  10.469  12.686
 3307SOL    HW111753  13.066  10.410  12.651
 3307SOL    HW211754  13.048  10.547  12.712
 3308SOL     OW11755   2.045  14.698   2.199
 3308SOL    HW111756   1.968  14.716   2.145
 3308SOL    HW211757   2.066  14.606   2.180
 3309SOL     OW11758   5.964  12.916   8.018
 3309SOL    HW111759   5.890  12.906   7.959
 3309SOL    HW211760   6.040  12.926   7.960
 3310SOL     OW11761  10.193  11.877  13.380
 3310SOL    HW111762  10.224  11.802  13.431
 3310SOL    HW211763  10.171  11.840  13.295
 3311SOL     OW11764   7.930   6.617   6.295
 3311SOL    HW111765   7.842   6.638   6.325
 3311SOL    HW211766   7.942   6.669   6.216
 3312SOL     OW11767   4.095   2.373   7.074
 3312SOL    HW111768   4.136   2.456   7.097
 3312SOL    HW211769   4.168   2.313   7.060
 3313SOL     OW11770   3.759   7.234  12.103
 3313SOL    HW111771   3.805   7.152  12.121
 3313SOL    HW211772   3.797   7.297  12.164
 3314SOL     OW11773   9.267   3.116  10.255
 3314SOL    HW111774   9.185   3.164  10.255
 3314SOL    HW211775   9.248   3.036  10.303
 3315SOL     OW11776  11.531   1.913   0.526
 3315SOL    HW111777  11.548   2.001   0.494
 3315SOL    HW211778  11.442   1.917   0.560
 3316SOL     OW11779   7.425   4.807   9.131
 3316SOL    HW111780   7.420   4.842   9.220
 3316SOL    HW211781   7.470   4.876   9.081
 3317SOL     OW11782   7.604  14.048   2.351
 3317SOL    HW111783   7.643  14.071   2.435
 3317SOL    HW211784   7.519  14.010   2.374
 3318SOL     OW11785   9.425   4.827  12.566
 3318SOL    HW111786   9.494   4.839  12.500
 3318SOL    HW211787   9.421   4.912  12.611
 3319SOL     OW11788   1.990   5.197   4.871
 3319SOL    HW111789   1.922   5.212   4.805
 3319SOL    HW211790   2.072   5.195   4.822
 3320SOL     OW11791  12.879   7.067   4.884
 3320SOL    HW111792  12.833   6.990   4.917
 3320SOL    HW211793  12.852   7.073   4.792
 3321SOL     OW11794  11.058  12.942   7.955
 3321SOL    HW111795  11.125  12.957   7.888
 3321SOL    HW211796  11.015  13.027   7.965
 3322SOL     OW11797   4.341   9.762   4.643
 3322SOL    HW111798   4.371   9.849   4.668
 3322SOL    HW211799   4.348   9.760   4.548
 3323SOL     OW11800   6.419   9.977   9.083
 3323SOL    HW111801   6.368   9.949   9.007
 3323SOL    HW211802   6.462   9.898   9.114
 3324SOL     OW11803  10.518   7.114  14.430
 3324SOL    HW111804  10.501   7.204  14.456
 3324SOL    HW211805  10.455   7.062  14.480
 3325SOL     OW11806   5.673   5.167  13.477
 3325SOL    HW111807   5.587   5.134  13.503
 3325SOL    HW211808   5.710   5.205  13.556
 3326SOL     OW11809   9.914   6.731  11.725
 3326SOL    HW111810   9.866   6.728  11.642
 3326SOL    HW211811   9.858   6.682  11.786
 3327SOL     OW11812   1.204  13.514   8.658
 3327SOL    HW111813   1.214  13.527   8.753
 3327SOL    HW211814   1.133  13.451   8.650
 3328SOL     OW11815   5.391   2.912   3.605
 3328SOL    HW111816   5.360   2.858   3.532
 3328SOL    HW211817   5.333   2.890   3.678
 3329SOL     OW11818  13.237   3.497  13.616
 3329SOL    HW111819  13.246   3.479  13.709
 3329SOL    HW211820  13.154   3.455  13.591
 3330SOL     OW11821   2.090  11.092  12.657
 3330SOL    HW111822   2.153  11.042  12.606
 3330SOL    HW211823   2.020  11.029  12.675
 3331SOL     OW11824  11.721   8.305  12.935
 3331SOL    HW111825  11.656   8.370  12.906
 3331SOL    HW211826  11.670   8.241  12.984
 3332SOL     OW11827   7.209  12.431   6.158
 3332SOL    HW111828   7.214  12.385   6.242
 3332SOL    HW211829   7.169  12.368   6.099
 3333SOL     OW11830   1.950  12.871   9.923
 3333SOL    HW111831   2.029  12.906   9.962
 3333SOL    HW211832   1.957  12.894   9.830
 3334SOL     OW11833   4.322  11.894   1.817
 3334SOL    HW111834   4.361  11.964   1.764
 3334SOL    HW211835   4.319  11.930   1.906
 3335SOL     OW11836   9.343   7.022  14.301
 3335SOL    HW111837   9.438   7.030  14.306
 3335SOL    HW211838   9.328   6.936  14.261
 3336SOL     OW11839   5.352   8.330  10.169
 3336SOL    HW111840   5.352   8.238  10.196
 3336SOL    HW211841   5.261   8.347  10.145
 3337SOL     OW11842  10.313   0.431   9.032
 3337SOL    HW111843  10.304   0.375   8.955
 3337SOL    HW211844  10.363   0.507   9.001
 3338SOL     OW11845  10.261   9.830  13.164
 3338SOL    HW111846  10.264   9.853  13.071
 3338SOL    HW211847  10.336   9.772  13.177
 3339SOL     OW11848   7.540   8.763   3.805
 3339SOL    HW111849   7.601   8.803   3.744
 3339SOL    HW211850   7.558   8.807   3.889
 3340SOL     OW11851  13.097   3.287  11.214
 3340SOL    HW111852  13.085   3.222  11.145
 3340SOL    HW211853  13.095   3.236  11.295
 3341SOL     OW11854  14.621   1.600   8.990
 3341SOL    HW111855  14.695   1.655   8.965
 3341SOL    HW211856  14.652   1.510   8.977
 3342SOL     OW11857  14.325  12.315   5.163
 3342SOL    HW111858  14.296  12.363   5.085
 3342SOL    HW211859  14.265  12.343   5.232
 3343SOL     OW11860   1.978   6.799   6.887
 3343SOL    HW111861   1.935   6.714   6.883
 3343SOL    HW211862   2.056   6.789   6.833
 3344SOL     OW11863  10.471   2.997   4.565
 3344SOL    HW111864  10.437   3.054   4.635
 3344SOL    HW211865  10.565   2.992   4.582
 3345SOL     OW11866  12.033  11.549  12.936
 3345SOL    HW111867  11.969  11.481  12.955
 3345SOL    HW211868  12.005  11.624  12.990
 3346SOL     OW11869  10.349   5.995   0.773
 3346SOL    HW111870  10.392   6.041   0.701
 3346SOL    HW211871  10.260   5.980   0.743
 3347SOL     OW11872   6.023   8.387   7.562
 3347SOL    HW111873   6.036   8.450   7.491
 3347SOL    HW211874   6.107   8.383   7.607
 3348SOL     OW11875   5.183   7.022   8.759
 3348SOL    HW111876   5.207   7.080   8.831
 3348SOL    HW211877   5.267   6.988   8.727
 3349SOL     OW11878   1.997  11.003  13.002
 3349SOL    HW111879   1.915  11.023  13.047
 3349SOL    HW211880   2.053  11.080  13.018
 3350SOL     OW11881   9.324   2.236   7.073
 3350SOL    HW111882   9.243   2.242   7.123
 3350SOL    HW211883   9.393   2.229   7.139
 3351SOL     OW11884   2.461   6.157   7.773
 3351SOL    HW111885   2.546   6.193   7.750
 3351SOL    HW211886   2.400   6.194   7.709
 3352SOL     OW11887   2.462  12.949   1.790
 3352SOL    HW111888   2.554  12.974   1.791
 3352SOL    HW211889   2.464  12.853   1.785
 3353SOL     OW11890  11.257  12.224   4.316
 3353SOL    HW111891  11.275  12.311   4.350
 3353SOL    HW211892  11.190  12.237   4.249
 3354SOL     OW11893   1.324   4.219   2.124
 3354SOL    HW111894   1.262   4.159   2.165
 3354SOL    HW211895   1.397   4.163   2.096
 3355SOL     OW11896  12.990   9.192   6.777
 3355SOL    HW111897  13.003   9.200   6.683
 3355SOL    HW211898  13.024   9.274   6.813
 3356SOL     OW11899   5.506   2.536  11.636
 3356SOL    HW111900   5.529   2.455  11.681
 3356SOL    HW211901   5.411   2.545  11.649
 3357SOL     OW11902  14.570   3.990  12.633
 3357SOL    HW111903  14.545   3.995  12.541
 3357SOL    HW211904  14.511   3.925  12.671
 3358SOL     OW11905  13.842  14.663   0.278
 3358SOL    HW111906  13.865  14.577   0.242
 3358SOL    HW211907  13.867  14.725   0.209
 3359SOL     OW11908   8.415   7.739   2.808
 3359SOL    HW111909   8.364   7.812   2.774
 3359SOL    HW211910   8.506   7.764   2.790
 3360SOL     OW11911   1.491   3.951   7.053
 3360SOL    HW111912   1.522   4.014   6.988
 3360SOL    HW211913   1.434   3.892   7.004
 3361SOL     OW11914   1.804   6.374   1.397
 3361SOL    HW111915   1.799   6.288   1.354
 3361SOL    HW211916   1.815   6.354   1.490
 3362SOL     OW11917  13.834   7.417   0.950
 3362SOL    HW111918  13.894   7.346   0.970
 3362SOL    HW211919  13.826   7.467   1.031
 3363SOL     OW11920   2.718   6.586   9.230
 3363SOL    HW111921   2.721   6.593   9.134
 3363SOL    HW211922   2.696   6.495   9.247
 3364SOL     OW11923   2.182   3.475   5.151
 3364SOL    HW111924   2.174   3.536   5.224
 3364SOL    HW211925   2.129   3.513   5.081
 3365SOL     OW11926   9.209   7.420   0.953
 3365SOL    HW111927   9.231   7.513   0.944
 3365SOL    HW211928   9.283   7.374   0.914
 3366SOL     OW11929   6.028   5.442   9.654
 3366SOL    HW111930   6.114   5.474   9.627
 3366SOL    HW211931   6.038   5.347   9.658
 3367SOL     OW11932  12.939   0.253  11.228
 3367SOL    HW111933  12.906   0.247  11.318
 3367SOL    HW211934  12.957   0.346  11.215
 3368SOL     OW11935   7.944  14.772  10.278
 3368SOL    HW111936   7.868  14.827  10.258
 3368SOL    HW211937   8.014  14.833  10.300
 3369SOL     OW11938   8.046   1.349   7.725
 3369SOL    HW111939   8.098   1.276   7.759
 3369SOL    HW211940   8.110   1.418   7.708
 3370SOL     OW11941  11.882   1.220  13.174
 3370SOL    HW111942  11.845   1.288  13.230
 3370SOL    HW211943  11.807   1.186  13.125
 3371SOL     OW11944  12.412  14.707   5.384
 3371SOL    HW111945  12.475  14.658   5.437
 3371SOL    HW211946  12.398  14.788   5.433
 3372SOL     OW11947  12.283   4.732  11.629
 3372SOL    HW111948  12.371   4.770  11.629
 3372SOL    HW211949  12.298   4.638  11.633
 3373SOL     OW11950  13.694  13.985  12.691
 3373SOL    HW111951  13.691  14.025  12.604
 3373SOL    HW211952  13.706  13.891  12.673
 3374SOL     OW11953   2.203  14.752  14.873
 3374SOL    HW111954   2.186  14.671   0.046
 3374SOL    HW211955   2.270  14.797   0.049
 3375SOL     OW11956   6.883   3.336   6.107
 3375SOL    HW111957   6.935   3.277   6.053
 3375SOL    HW211958   6.934   3.417   6.111
 3376SOL     OW11959  14.228   2.391  11.014
 3376SOL    HW111960  14.294   2.368  11.079
 3376SOL    HW211961  14.276   2.403  10.933
 3377SOL     OW11962   4.282   0.936   7.445
 3377SOL    HW111963   4.195   0.902   7.428
 3377SOL    HW211964   4.280   1.026   7.411
 3378SOL     OW11965   3.193  10.310   8.658
 3378SOL    HW111966   3.216  10.259   8.735
 3378SOL    HW211967   3.170  10.396   8.692
 3379SOL     OW11968   0.660   9.517  10.403
 3379SOL    HW111969   0.732   9.556  10.453
 3379SOL    HW211970   0.629   9.445  10.458
 3380SOL     OW11971   0.348   4.463   7.007
 3380SOL    HW111972   0.367   4.370   7.011
 3380SOL    HW211973   0.252   4.468   7.016
 3381SOL     OW11974  13.887   8.035   8.304
 3381SOL    HW111975  13.911   8.071   8.389
 3381SOL    HW211976  13.912   7.943   8.308
 3382SOL     OW11977   5.882   5.197  14.360
 3382SOL    HW111978   5.806   5.157  14.317
 3382SOL    HW211979   5.883   5.287  14.328
 3383SOL     OW11980   4.757   9.945   9.798
 3383SOL    HW111981   4.807   9.877   9.844
 3383SOL    HW211982   4.691   9.897   9.749
 3384SOL     OW11983   3.097   8.962   6.113
 3384SOL    HW111984   3.054   9.013   6.182
 3384SOL    HW211985   3.127   8.882   6.157
 3385SOL     OW11986  14.086  11.694   7.676
 3385SOL    HW111987  14.087  11.740   7.592
 3385SOL    HW211988  14.024  11.744   7.730
 3386SOL     OW11989  10.901   3.608   7.923
 3386SOL    HW111990  10.909   3.635   7.831
 3386SOL    HW211991  10.962   3.534   7.931
 3387SOL     OW11992   9.610   6.808   2.005
 3387SOL    HW111993   9.654   6.746   1.948
 3387SOL    HW211994   9.527   6.765   2.027
 3388SOL     OW11995  12.667   8.116   2.483
 3388SOL    HW111996  12.735   8.178   2.455
 3388SOL    HW211997  12.673   8.044   2.420
 3389SOL     OW11998   2.820   6.631   3.343
 3389SOL    HW111999   2.838   6.549   3.389
 3389SOL    HW212000   2.799   6.604   3.253
 3390SOL     OW12001   5.729   1.325   7.577
 3390SOL    HW112002   5.679   1.323   7.495
 3390SOL    HW212003   5.664   1.309   7.645
 3391SOL     OW12004   0.836   1.021  11.819
 3391SOL    HW112005   0.755   1.071  11.813
 3391SOL    HW212006   0.890   1.052  11.747
 3392SOL     OW12007   7.273  13.723   1.322
 3392SOL    HW112008   7.318  13.664   1.383
 3392SOL    HW212009   7.328  13.724   1.244
 3393SOL     OW12010  11.176   1.824  10.641
 3393SOL    HW112011  11.249   1.775  10.679
 3393SOL    HW212012  11.110   1.828  10.710
 3394SOL     OW12013  12.367   4.624  13.068
 3394SOL    HW112014  12.288   4.573  13.049
 3394SOL    HW212015  12.419   4.567  13.124
 3395SOL     OW12016   0.025   8.789   3.516
 3395SOL    HW112017   0.090   8.772   3.448
 3395SOL    HW212018  14.858   8.705   3.529
 3396SOL     OW12019   9.182   8.399   8.064
 3396SOL    HW112020   9.115   8.336   8.038
 3396SOL    HW212021   9.244   8.400   7.991
 3397SOL     OW12022  14.462   6.475   2.768
 3397SOL    HW112023  14.443   6.532   2.842
 3397SOL    HW212024  14.411   6.511   2.696
 3398SOL     OW12025   1.000   9.853  10.619
 3398SOL    HW112026   0.917   9.814  10.645
 3398SOL    HW212027   1.035   9.891  10.700
 3399SOL     OW12028   5.802   2.483   7.323
 3399SOL    HW112029   5.752   2.409   7.290
 3399SOL    HW212030   5.860   2.507   7.251
 3400SOL     OW12031   8.199   4.832  13.249
 3400SOL    HW112032   8.276   4.815  13.194
 3400SOL    HW212033   8.221   4.912  13.297
 3401SOL     OW12034  10.105  12.050   0.072
 3401SOL    HW112035  10.049  12.030   0.147
 3401SOL    HW212036  10.080  12.138   0.045
 3402SOL     OW12037   4.830  13.341   3.144
 3402SOL    HW112038   4.743  13.305   3.128
 3402SOL    HW212039   4.826  13.378   3.232
 3403SOL     OW12040   1.573  13.766   8.764
 3403SOL    HW112041   1.523  13.836   8.723
 3403SOL    HW212042   1.520  13.687   8.752
 3404SOL     OW12043   8.622   1.161   8.693
 3404SOL    HW112044   8.683   1.172   8.620
 3404SOL    HW212045   8.624   1.067   8.712
 3405SOL     OW12046   1.466   8.070   8.963
 3405SOL    HW112047   1.463   8.102   8.873
 3405SOL    HW212048   1.559   8.073   8.986
 3406SOL     OW12049   0.359   9.299   9.007
 3406SOL    HW112050   0.289   9.315   9.071
 3406SOL    HW212051   0.438   9.289   9.061
 3407SOL     OW12052   3.035  11.125   8.151
 3407SOL    HW112053   3.024  11.035   8.182
 3407SOL    HW212054   2.987  11.127   8.068
 3408SOL     OW12055   1.295   1.851   8.306
 3408SOL    HW112056   1.373   1.902   8.287
 3408SOL    HW212057   1.297   1.779   8.244
 3409SOL     OW12058  10.395  12.961  11.819
 3409SOL    HW112059  10.404  12.893  11.885
 3409SOL    HW212060  10.484  12.975  11.785
 3410SOL     OW12061   7.663  10.606  14.358
 3410SOL    HW112062   7.649  10.603  14.263
 3410SOL    HW212063   7.698  10.694  14.375
 3411SOL     OW12064   1.793   2.335  11.545
 3411SOL    HW112065   1.715   2.323  11.491
 3411SOL    HW212066   1.865   2.304  11.490
 3412SOL     OW12067  11.838   3.390   1.650
 3412SOL    HW112068  11.895   3.385   1.726
 3412SOL    HW212069  11.896   3.407   1.576
 3413SOL     OW12070   4.595   5.567   3.119
 3413SOL    HW112071   4.556   5.587   3.033
 3413SOL    HW212072   4.546   5.621   3.180
 3414SOL     OW12073   8.583  14.575   2.495
 3414SOL    HW112074   8.511  14.614   2.544
 3414SOL    HW212075   8.541  14.517   2.432
 3415SOL     OW12076   9.027   2.628   1.074
 3415SOL    HW112077   9.021   2.532   1.077
 3415SOL    HW212078   9.008   2.650   0.983
 3416SOL     OW12079   2.889   8.935   0.844
 3416SOL    HW112080   2.833   9.001   0.803
 3416SOL    HW212081   2.921   8.978   0.924
 3417SOL     OW12082   4.612  14.403  13.426
 3417SOL    HW112083   4.686  14.457  13.400
 3417SOL    HW212084   4.629  14.382  13.518
 3418SOL     OW12085  12.418   4.681  14.737
 3418SOL    HW112086  12.491   4.729  14.699
 3418SOL    HW212087  12.363   4.748  14.777
 3419SOL     OW12088   0.664   9.428   3.086
 3419SOL    HW112089   0.632   9.407   2.999
 3419SOL    HW212090   0.594   9.398   3.145
 3420SOL     OW12091  10.342   7.227   9.192
 3420SOL    HW112092  10.368   7.318   9.207
 3420SOL    HW212093  10.282   7.207   9.263
 3421SOL     OW12094   0.875   9.115  14.346
 3421SOL    HW112095   0.873   9.209  14.361
 3421SOL    HW212096   0.847   9.105  14.255
 3422SOL     OW12097  14.180   7.920   4.548
 3422SOL    HW112098  14.254   7.862   4.567
 3422SOL    HW212099  14.107   7.861   4.531
 3423SOL     OW12100   9.828   2.830  13.596
 3423SOL    HW112101   9.878   2.754  13.625
 3423SOL    HW212102   9.788   2.803  13.514
 3424SOL     OW12103   1.312   3.767   6.948
 3424SOL    HW112104   1.303   3.672   6.957
 3424SOL    HW212105   1.313   3.782   6.853
 3425SOL     OW12106  13.399   5.251  10.397
 3425SOL    HW112107  13.312   5.227  10.366
 3425SOL    HW212108  13.409   5.205  10.480
 3426SOL     OW12109   6.844  13.651   0.318
 3426SOL    HW112110   6.843  13.572   0.264
 3426SOL    HW212111   6.871  13.621   0.405
 3427SOL     OW12112   8.680   3.880   9.377
 3427SOL    HW112113   8.686   3.973   9.354
 3427SOL    HW212114   8.611   3.877   9.444
 3428SOL     OW12115   1.163   8.772  13.399
 3428SOL    HW112116   1.244   8.727  13.374
 3428SOL    HW212117   1.093   8.722  13.356
 3429SOL     OW12118  12.965  14.874   0.078
 3429SOL    HW112119  12.891  14.861   0.018
 3429SOL    HW212120  12.984  14.787   0.112
 3430SOL     OW12121   8.789  11.146  14.148
 3430SOL    HW112122   8.882  11.135  14.170
 3430SOL    HW212123   8.752  11.194  14.221
 3431SOL     OW12124   7.542  11.189   3.083
 3431SOL    HW112125   7.494  11.121   3.132
 3431SOL    HW212126   7.492  11.199   3.002
 3432SOL     OW12127   9.631  13.566   5.949
 3432SOL    HW112128   9.721  13.575   5.983
 3432SOL    HW212129   9.642  13.547   5.856
 3433SOL     OW12130   3.445   7.664  14.324
 3433SOL    HW112131   3.437   7.759  14.324
 3433SOL    HW212132   3.539   7.648  14.336
 3434SOL     OW12133   6.614  14.627  14.186
 3434SOL    HW112134   6.629  14.601  14.277
 3434SOL    HW212135   6.676  14.574  14.135
 3435SOL     OW12136   6.603   2.089   3.843
 3435SOL    HW112137   6.549   2.040   3.904
 3435SOL    HW212138   6.602   2.179   3.875
 3436SOL     OW12139   6.221   2.267   5.273
 3436SOL    HW112140   6.155   2.299   5.212
 3436SOL    HW212141   6.266   2.198   5.224
 3437SOL     OW12142   4.363  12.407  10.936
 3437SOL    HW112143   4.382  12.442  10.849
 3437SOL    HW212144   4.358  12.313  10.925
 3438SOL     OW12145   3.694  14.481  10.525
 3438SOL    HW112146   3.614  14.448  10.482
 3438SOL    HW212147   3.705  14.568  10.489
 3439SOL     OW12148   8.045   2.897   2.450
 3439SOL    HW112149   8.099   2.837   2.501
 3439SOL    HW212150   8.061   2.872   2.359
 3440SOL     OW12151   1.835   9.794   2.672
 3440SOL    HW112152   1.755   9.802   2.619
 3440SOL    HW212153   1.812   9.731   2.740
 3441SOL     OW12154   8.170   8.535   0.486
 3441SOL    HW112155   8.096   8.594   0.475
 3441SOL    HW212156   8.191   8.507   0.396
 3442SOL     OW12157   2.790  13.031  14.426
 3442SOL    HW112158   2.808  12.988  14.510
 3442SOL    HW212159   2.767  12.959  14.367
 3443SOL     OW12160   6.328   4.538   3.970
 3443SOL    HW112161   6.309   4.519   3.877
 3443SOL    HW212162   6.247   4.577   4.003
 3444SOL     OW12163   5.720   9.306  10.742
 3444SOL    HW112164   5.673   9.304  10.659
 3444SOL    HW212165   5.682   9.379  10.790
 3445SOL     OW12166   9.000   3.820   7.800
 3445SOL    HW112167   8.905   3.825   7.794
 3445SOL    HW212168   9.026   3.899   7.848
 3446SOL     OW12169  10.297   5.527   7.953
 3446SOL    HW112170  10.329   5.602   7.904
 3446SOL    HW212171  10.280   5.460   7.887
 3447SOL     OW12172   6.491   0.985   3.453
 3447SOL    HW112173   6.475   0.906   3.400
 3447SOL    HW212174   6.580   1.011   3.430
 3448SOL     OW12175   1.845   0.402  14.465
 3448SOL    HW112176   1.894   0.325  14.438
 3448SOL    HW212177   1.821   0.446  14.384
 3449SOL     OW12178  12.456   1.195  14.368
 3449SOL    HW112179  12.545   1.201  14.331
 3449SOL    HW212180  12.433   1.285  14.389
 3450SOL     OW12181   0.511   5.709   4.364
 3450SOL    HW112182   0.505   5.784   4.304
 3450SOL    HW212183   0.605   5.688   4.366
 3451SOL     OW12184  12.356   6.986  11.285
 3451SOL    HW112185  12.379   6.935  11.208
 3451SOL    HW212186  12.394   6.937  11.359
 3452SOL     OW12187   9.776  10.777   6.606
 3452SOL    HW112188   9.783  10.835   6.682
 3452SOL    HW212189   9.801  10.691   6.639
 3453SOL     OW12190   0.455   3.335  14.041
 3453SOL    HW112191   0.544   3.338  14.006
 3453SOL    HW212192   0.463   3.284  14.122
 3454SOL     OW12193   3.577  13.571  12.032
 3454SOL    HW112194   3.615  13.651  12.068
 3454SOL    HW212195   3.546  13.523  12.109
 3455SOL     OW12196  10.649   1.706  13.546
 3455SOL    HW112197  10.694   1.622  13.540
 3455SOL    HW212198  10.705   1.767  13.498
 3456SOL     OW12199   2.568  13.574  12.272
 3456SOL    HW112200   2.607  13.650  12.228
 3456SOL    HW212201   2.643  13.516  12.289
 3457SOL     OW12202  11.902   4.814   2.504
 3457SOL    HW112203  11.838   4.752   2.538
 3457SOL    HW212204  11.979   4.761   2.484
 3458SOL     OW12205  10.193  12.728   0.064
 3458SOL    HW112206  10.111  12.756   0.105
 3458SOL    HW212207  10.241  12.683   0.134
 3459SOL     OW12208   8.135   2.924   0.397
 3459SOL    HW112209   8.156   2.834   0.421
 3459SOL    HW212210   8.218   2.972   0.406
 3460SOL     OW12211   1.735   0.595  13.048
 3460SOL    HW112212   1.692   0.570  12.967
 3460SOL    HW212213   1.715   0.688  13.058
 3461SOL     OW12214  11.906   8.473   6.567
 3461SOL    HW112215  11.941   8.407   6.627
 3461SOL    HW212216  11.816   8.485   6.596
 3462SOL     OW12217   6.858  11.250  11.234
 3462SOL    HW112218   6.914  11.279  11.307
 3462SOL    HW212219   6.917  11.248  11.158
 3463SOL     OW12220   8.197   0.885   4.030
 3463SOL    HW112221   8.241   0.827   4.092
 3463SOL    HW212222   8.256   0.889   3.954
 3464SOL     OW12223   3.788   0.662   8.633
 3464SOL    HW112224   3.857   0.630   8.574
 3464SOL    HW212225   3.710   0.612   8.608
 3465SOL     OW12226   0.185   7.868  10.282
 3465SOL    HW112227   0.145   7.782  10.280
 3465SOL    HW212228   0.175   7.897  10.373
 3466SOL     OW12229  14.352   3.203  10.935
 3466SOL    HW112230  14.389   3.121  10.905
 3466SOL    HW212231  14.266   3.180  10.970
 3467SOL     OW12232   2.825  12.852  12.891
 3467SOL    HW112233   2.803  12.879  12.980
 3467SOL    HW212234   2.764  12.780  12.872
 3468SOL     OW12235  12.306   5.798  10.122
 3468SOL    HW112236  12.334   5.889  10.109
 3468SOL    HW212237  12.388   5.749  10.123
 3469SOL     OW12238   5.069   8.404   9.053
 3469SOL    HW112239   5.095   8.322   9.093
 3469SOL    HW212240   5.065   8.466   9.125
 3470SOL     OW12241   1.083   7.246  12.260
 3470SOL    HW112242   1.085   7.342  12.264
 3470SOL    HW212243   1.025   7.226  12.186
 3471SOL     OW12244   9.337  13.103   3.751
 3471SOL    HW112245   9.333  13.152   3.833
 3471SOL    HW212246   9.301  13.017   3.772
 3472SOL     OW12247  14.823   8.866   2.008
 3472SOL    HW112248  14.739   8.901   1.977
 3472SOL    HW212249  14.799   8.809   2.081
 3473SOL     OW12250   7.279   0.504  11.003
 3473SOL    HW112251   7.357   0.523  10.951
 3473SOL    HW212252   7.232   0.437  10.953
 3474SOL     OW12253   0.608   5.285   3.638
 3474SOL    HW112254   0.636   5.195   3.620
 3474SOL    HW212255   0.571   5.281   3.726
 3475SOL     OW12256  13.569   6.285  12.631
 3475SOL    HW112257  13.592   6.197  12.660
 3475SOL    HW212258  13.546   6.276  12.539
 3476SOL     OW12259   0.053  14.868  11.900
 3476SOL    HW112260   0.021   0.008  11.811
 3476SOL    HW212261  14.865  14.809  11.939
 3477SOL     OW12262  11.157   1.267  14.342
 3477SOL    HW112263  11.226   1.317  14.387
 3477SOL    HW212264  11.077   1.314  14.361
 3478SOL     OW12265   3.110   7.657   0.106
 3478SOL    HW112266   3.085   7.636   0.016
 3478SOL    HW212267   3.035   7.702   0.143
 3479SOL     OW12268   2.268  14.141   6.378
 3479SOL    HW112269   2.228  14.107   6.297
 3479SOL    HW212270   2.241  14.079   6.446
 3480SOL     OW12271  13.171   5.870   3.079
 3480SOL    HW112272  13.223   5.876   2.998
 3480SOL    HW212273  13.209   5.796   3.126
 3481SOL     OW12274  12.726   9.336  12.154
 3481SOL    HW112275  12.725   9.281  12.076
 3481SOL    HW212276  12.780   9.288  12.217
 3482SOL     OW12277  11.533   4.461  12.190
 3482SOL    HW112278  11.575   4.428  12.111
 3482SOL    HW212279  11.510   4.552  12.169
 3483SOL     OW12280  12.117   3.751  13.490
 3483SOL    HW112281  12.069   3.715  13.416
 3483SOL    HW212282  12.125   3.845  13.471
 3484SOL     OW12283   2.973   7.190   9.030
 3484SOL    HW112284   3.042   7.127   9.011
 3484SOL    HW212285   2.975   7.199   9.125
 3485SOL     OW12286  11.434   3.939   5.954
 3485SOL    HW112287  11.430   3.935   6.050
 3485SOL    HW212288  11.520   3.976   5.935
 3486SOL     OW12289   8.655   7.028  11.467
 3486SOL    HW112290   8.694   7.032  11.380
 3486SOL    HW212291   8.708   7.087  11.521
 3487SOL     OW12292   1.598  11.727   2.127
 3487SOL    HW112293   1.568  11.638   2.145
 3487SOL    HW212294   1.683  11.716   2.084
 3488SOL     OW12295   4.085   2.859   9.074
 3488SOL    HW112296   4.085   2.775   9.120
 3488SOL    HW212297   4.176   2.873   9.049
 3489SOL     OW12298   3.199  10.315   3.753
 3489SOL    HW112299   3.187  10.405   3.783
 3489SOL    HW212300   3.292  10.309   3.732
 3490SOL     OW12301   5.728   1.769  10.456
 3490SOL    HW112302   5.713   1.685  10.413
 3490SOL    HW212303   5.809   1.802  10.417
 3491SOL     OW12304   8.169   9.681   6.119
 3491SOL    HW112305   8.184   9.587   6.116
 3491SOL    HW212306   8.080   9.690   6.153
 3492SOL     OW12307  13.951   3.979  13.799
 3492SOL    HW112308  13.969   3.970  13.705
 3492SOL    HW212309  14.032   4.014  13.835
 3493SOL     OW12310  10.337   2.163   4.974
 3493SOL    HW112311  10.278   2.182   4.901
 3493SOL    HW212312  10.375   2.247   4.997
 3494SOL     OW12313  12.685   3.655   6.073
 3494SOL    HW112314  12.737   3.708   6.012
 3494SOL    HW212315  12.725   3.568   6.069
 3495SOL     OW12316   8.049   3.728  11.191
 3495SOL    HW112317   8.070   3.766  11.276
 3495SOL    HW212318   8.125   3.676  11.168
 3496SOL     OW12319   8.097  12.158   3.887
 3496SOL    HW112320   8.131  12.072   3.910
 3496SOL    HW212321   8.148  12.219   3.941
 3497SOL     OW12322   7.446   3.175   6.464
 3497SOL    HW112323   7.523   3.223   6.492
 3497SOL    HW212324   7.408   3.230   6.395
 3498SOL     OW12325   4.547  10.605   4.973
 3498SOL    HW112326   4.555  10.555   4.891
 3498SOL    HW212327   4.631  10.592   5.017
 3499SOL     OW12328   1.812  11.591  12.170
 3499SOL    HW112329   1.889  11.537  12.152
 3499SOL    HW212330   1.739  11.541  12.135
 3500SOL     OW12331  12.320   0.257  13.222
 3500SOL    HW112332  12.294   0.184  13.166
 3500SOL    HW212333  12.258   0.255  13.295
 3501SOL     OW12334   9.766   6.976   5.665
 3501SOL    HW112335   9.752   6.882   5.666
 3501SOL    HW212336   9.686   7.012   5.626
 3502SOL     OW12337  11.636  14.543   0.154
 3502SOL    HW112338  11.635  14.627   0.199
 3502SOL    HW212339  11.577  14.488   0.204
 3503SOL     OW12340   3.075   4.047   9.044
 3503SOL    HW112341   2.993   4.018   9.084
 3503SOL    HW212342   3.108   3.969   8.998
 3504SOL     OW12343   3.822  11.484  11.016
 3504SOL    HW112344   3.746  11.535  11.042
 3504SOL    HW212345   3.824  11.490  10.920
 3505SOL     OW12346   5.313  14.414   5.512
 3505SOL    HW112347   5.337  14.407   5.420
 3505SOL    HW212348   5.315  14.508   5.531
 3506SOL     OW12349  11.958   2.192   4.106
 3506SOL    HW112350  11.969   2.143   4.024
 3506SOL    HW212351  12.042   2.183   4.151
 3507SOL     OW12352   5.782   3.359   8.114
 3507SOL    HW112353   5.825   3.307   8.046
 3507SOL    HW212354   5.798   3.311   8.195
 3508SOL     OW12355  14.229  10.609  12.313
 3508SOL    HW112356  14.226  10.592  12.219
 3508SOL    HW212357  14.271  10.695  12.320
 3509SOL     OW12358   5.948   6.145  10.747
 3509SOL    HW112359   5.972   6.207  10.816
 3509SOL    HW212360   5.858   6.169  10.723
 3510SOL     OW12361   8.386   7.071  12.630
 3510SOL    HW112362   8.330   7.135  12.675
 3510SOL    HW212363   8.358   7.076  12.539
 3511SOL     OW12364   0.073   0.270   0.476
 3511SOL    HW112365   0.068   0.355   0.520
 3511SOL    HW212366  14.860   0.253   0.447
 3512SOL     OW12367   1.579   3.443   2.011
 3512SOL    HW112368   1.598   3.410   1.923
 3512SOL    HW212369   1.638   3.518   2.022
 3513SOL     OW12370   7.072   7.761  14.147
 3513SOL    HW112371   6.995   7.704  14.139
 3513SOL    HW212372   7.117   7.751  14.063
 3514SOL     OW12373   9.307  11.836   9.521
 3514SOL    HW112374   9.265  11.909   9.566
 3514SOL    HW212375   9.243  11.765   9.525
 3515SOL     OW12376  13.007   4.403  11.453
 3515SOL    HW112377  12.949   4.327  11.450
 3515SOL    HW212378  13.020   4.419  11.547
 3516SOL     OW12379   8.044  12.845   9.923
 3516SOL    HW112380   8.082  12.925   9.887
 3516SOL    HW212381   8.034  12.863  10.017
 3517SOL     OW12382  11.668   9.952  12.711
 3517SOL    HW112383  11.674   9.930  12.804
 3517SOL    HW212384  11.592  10.010  12.705
 3518SOL     OW12385   2.246   3.264  13.443
 3518SOL    HW112386   2.292   3.341  13.476
 3518SOL    HW212387   2.287   3.190  13.489
 3519SOL     OW12388   5.236  10.640  12.660
 3519SOL    HW112389   5.207  10.549  12.663
 3519SOL    HW212390   5.291  10.651  12.738
 3520SOL     OW12391  11.698   4.938   7.014
 3520SOL    HW112392  11.605   4.941   7.035
 3520SOL    HW212393  11.731   4.862   7.062
 3521SOL     OW12394   9.288   3.671   8.780
 3521SOL    HW112395   9.279   3.662   8.685
 3521SOL    HW212396   9.360   3.613   8.803
 3522SOL     OW12397   1.844  11.862   7.265
 3522SOL    HW112398   1.785  11.796   7.300
 3522SOL    HW212399   1.923  11.855   7.319
 3523SOL     OW12400   0.580  11.289  12.894
 3523SOL    HW112401   0.512  11.234  12.932
 3523SOL    HW212402   0.538  11.330  12.818
 3524SOL     OW12403   9.883  14.638   7.488
 3524SOL    HW112404   9.827  14.621   7.413
 3524SOL    HW212405   9.868  14.564   7.547
 3525SOL     OW12406  11.732   0.219   5.100
 3525SOL    HW112407  11.644   0.206   5.064
 3525SOL    HW212408  11.789   0.168   5.042
 3526SOL     OW12409  12.353   3.404   1.315
 3526SOL    HW112410  12.448   3.402   1.322
 3526SOL    HW212411  12.325   3.457   1.390
 3527SOL     OW12412  11.975   5.497   6.791
 3527SOL    HW112413  12.033   5.573   6.792
 3527SOL    HW212414  11.957   5.479   6.884
 3528SOL     OW12415   2.406   7.486   6.916
 3528SOL    HW112416   2.355   7.521   6.842
 3528SOL    HW212417   2.478   7.439   6.875
 3529SOL     OW12418  11.218   0.409  11.520
 3529SOL    HW112419  11.225   0.321  11.556
 3529SOL    HW212420  11.230   0.398  11.426
 3530SOL     OW12421  13.981   1.455   5.600
 3530SOL    HW112422  14.004   1.411   5.519
 3530SOL    HW212423  14.029   1.537   5.598
 3531SOL     OW12424   7.604   7.746   8.390
 3531SOL    HW112425   7.509   7.743   8.379
 3531SOL    HW212426   7.639   7.706   8.311
 3532SOL     OW12427   0.134   4.508   6.732
 3532SOL    HW112428   0.133   4.568   6.807
 3532SOL    HW212429   0.121   4.422   6.770
 3533SOL     OW12430   3.168   4.250  12.015
 3533SOL    HW112431   3.172   4.155  12.011
 3533SOL    HW212432   3.083   4.269  12.056
 3534SOL     OW12433   1.084   2.238   2.820
 3534SOL    HW112434   1.017   2.301   2.843
 3534SOL    HW212435   1.134   2.225   2.902
 3535SOL     OW12436  10.200   9.034   3.570
 3535SOL    HW112437  10.164   9.043   3.482
 3535SOL    HW212438  10.290   9.004   3.557
 3536SOL     OW12439   1.750  12.068   6.069
 3536SOL    HW112440   1.762  12.089   5.976
 3536SOL    HW212441   1.672  12.118   6.095
 3537SOL     OW12442   8.474   0.042  13.755
 3537SOL    HW112443   8.532   0.102  13.708
 3537SOL    HW212444   8.528  14.841  13.774
 3538SOL     OW12445   0.478   2.724   5.872
 3538SOL    HW112446   0.472   2.793   5.806
 3538SOL    HW212447   0.570   2.726   5.900
 3539SOL     OW12448   7.145  11.661   5.774
 3539SOL    HW112449   7.224  11.625   5.733
 3539SOL    HW212450   7.167  11.753   5.791
 3540SOL     OW12451  12.265   4.763   5.613
 3540SOL    HW112452  12.350   4.728   5.583
 3540SOL    HW212453  12.221   4.790   5.533
 3541SOL     OW12454   7.576   0.386   8.762
 3541SOL    HW112455   7.603   0.298   8.737
 3541SOL    HW212456   7.627   0.407   8.840
 3542SOL     OW12457   4.834   3.131   5.447
 3542SOL    HW112458   4.789   3.208   5.411
 3542SOL    HW212459   4.909   3.167   5.495
 3543SOL     OW12460   4.301   2.427  14.863
 3543SOL    HW112461   4.319   2.519  14.842
 3543SOL    HW212462   4.334   2.417   0.077
 3544SOL     OW12463  10.178   1.947   2.524
 3544SOL    HW112464  10.126   1.983   2.453
 3544SOL    HW212465  10.191   2.020   2.584
 3545SOL     OW12466   8.708   8.751  11.818
 3545SOL    HW112467   8.734   8.661  11.798
 3545SOL    HW212468   8.656   8.779  11.743
 3546SOL     OW12469   3.898  13.988   5.392
 3546SOL    HW112470   3.952  13.928   5.444
 3546SOL    HW212471   3.821  14.003   5.447
 3547SOL     OW12472  14.603   4.178  13.272
 3547SOL    HW112473  14.547   4.103  13.251
 3547SOL    HW212474  14.544   4.242  13.312
 3548SOL     OW12475   3.484   2.277  13.673
 3548SOL    HW112476   3.399   2.270  13.717
 3548SOL    HW212477   3.547   2.282  13.745
 3549SOL     OW12478   4.117   5.070   6.682
 3549SOL    HW112479   4.202   5.026   6.685
 3549SOL    HW212480   4.073   5.041   6.762
 3550SOL     OW12481   5.113   7.128   7.456
 3550SOL    HW112482   5.136   7.220   7.464
 3550SOL    HW212483   5.039   7.116   7.515
 3551SOL     OW12484   1.498  11.403   1.027
 3551SOL    HW112485   1.475  11.430   0.938
 3551SOL    HW212486   1.427  11.439   1.081
 3552SOL     OW12487   5.507   4.289   8.226
 3552SOL    HW112488   5.570   4.252   8.288
 3552SOL    HW212489   5.559   4.348   8.171
 3553SOL     OW12490  11.153  12.204   8.664
 3553SOL    HW112491  11.074  12.196   8.611
 3553SOL    HW212492  11.170  12.298   8.669
 3554SOL     OW12493   4.700  10.232   0.137
 3554SOL    HW112494   4.706  10.193   0.050
 3554SOL    HW212495   4.767  10.300   0.138
 3555SOL     OW12496  14.274   8.026   9.883
 3555SOL    HW112497  14.306   8.106   9.841
 3555SOL    HW212498  14.327   8.018   9.962
 3556SOL     OW12499  13.309   0.831   7.339
 3556SOL    HW112500  13.261   0.875   7.270
 3556SOL    HW212501  13.377   0.894   7.366
 3557SOL     OW12502   5.652   0.848   3.786
 3557SOL    HW112503   5.597   0.927   3.788
 3557SOL    HW212504   5.609   0.790   3.724
 3558SOL     OW12505  10.001   1.834   8.139
 3558SOL    HW112506  10.050   1.812   8.219
 3558SOL    HW212507   9.924   1.882   8.171
 3559SOL     OW12508  14.682  10.100  12.223
 3559SOL    HW112509  14.775  10.106  12.203
 3559SOL    HW212510  14.656  10.188  12.250
 3560SOL     OW12511   2.332   9.463   9.485
 3560SOL    HW112512   2.249   9.503   9.457
 3560SOL    HW212513   2.306   9.388   9.538
 3561SOL     OW12514   8.688   1.384  12.382
 3561SOL    HW112515   8.771   1.423  12.354
 3561SOL    HW212516   8.674   1.313  12.320
 3562SOL     OW12517  12.295   0.454   7.422
 3562SOL    HW112518  12.304   0.549   7.422
 3562SOL    HW212519  12.203   0.439   7.397
 3563SOL     OW12520   6.478   0.670   2.466
 3563SOL    HW112521   6.492   0.592   2.411
 3563SOL    HW212522   6.550   0.728   2.442
 3564SOL     OW12523   9.068   9.777  13.378
 3564SOL    HW112524   9.103   9.766  13.290
 3564SOL    HW212525   8.978   9.805  13.365
 3565SOL     OW12526  12.710   6.346   9.235
 3565SOL    HW112527  12.721   6.432   9.275
 3565SOL    HW212528  12.741   6.284   9.301
 3566SOL     OW12529   0.435   6.489   6.638
 3566SOL    HW112530   0.475   6.415   6.591
 3566SOL    HW212531   0.417   6.455   6.725
 3567SOL     OW12532  11.213  10.127  11.613
 3567SOL    HW112533  11.232  10.170  11.529
 3567SOL    HW212534  11.288  10.071  11.629
 3568SOL     OW12535   3.668   7.655   9.434
 3568SOL    HW112536   3.739   7.698   9.481
 3568SOL    HW212537   3.589   7.698   9.466
 3569SOL     OW12538  13.166   9.773   2.134
 3569SOL    HW112539  13.257   9.789   2.108
 3569SOL    HW212540  13.118   9.848   2.099
 3570SOL     OW12541   0.956   6.736  10.386
 3570SOL    HW112542   1.006   6.732  10.305
 3570SOL    HW212543   1.010   6.788  10.445
 3571SOL     OW12544   5.717  13.832   4.239
 3571SOL    HW112545   5.743  13.924   4.239
 3571SOL    HW212546   5.756  13.796   4.319
 3572SOL     OW12547   4.781   9.038   0.434
 3572SOL    HW112548   4.849   9.097   0.404
 3572SOL    HW212549   4.819   8.994   0.510
 3573SOL     OW12550  12.467  11.043   9.944
 3573SOL    HW112551  12.552  11.085   9.933
 3573SOL    HW212552  12.474  10.961   9.895
 3574SOL     OW12553  12.161   5.408  11.058
 3574SOL    HW112554  12.079   5.358  11.061
 3574SOL    HW212555  12.210   5.378  11.134
 3575SOL     OW12556   3.313   5.600  10.073
 3575SOL    HW112557   3.297   5.506  10.081
 3575SOL    HW212558   3.244   5.632  10.015
 3576SOL     OW12559   2.737  10.273   1.106
 3576SOL    HW112560   2.744  10.269   1.011
 3576SOL    HW212561   2.796  10.344   1.131
 3577SOL     OW12562   7.122  12.933   8.879
 3577SOL    HW112563   7.104  13.004   8.941
 3577SOL    HW212564   7.174  12.870   8.928
 3578SOL     OW12565  13.353   6.715   4.701
 3578SOL    HW112566  13.334   6.769   4.778
 3578SOL    HW212567  13.376   6.778   4.632
 3579SOL     OW12568  11.771   2.557   8.799
 3579SOL    HW112569  11.848   2.516   8.840
 3579SOL    HW212570  11.794   2.565   8.707
 3580SOL     OW12571   8.484   8.392  11.059
 3580SOL    HW112572   8.555   8.455  11.071
 3580SOL    HW212573   8.497   8.357  10.971
 3581SOL     OW12574   6.798   5.006   3.156
 3581SOL    HW112575   6.742   5.082   3.139
 3581SOL    HW212576   6.887   5.041   3.158
 3582SOL     OW12577  14.410   6.053   5.629
 3582SOL    HW112578  14.446   6.139   5.607
 3582SOL    HW212579  14.456   5.992   5.572
 3583SOL     OW12580   4.292   3.689   2.258
 3583SOL    HW112581   4.285   3.744   2.336
 3583SOL    HW212582   4.315   3.750   2.188
 3584SOL     OW12583   1.227   4.192   6.995
 3584SOL    HW112584   1.197   4.122   6.937
 3584SOL    HW212585   1.247   4.148   7.078
 3585SOL     OW12586  11.494  10.756   6.986
 3585SOL    HW112587  11.416  10.703   6.972
 3585SOL    HW212588  11.468  10.845   6.962
 3586SOL     OW12589  11.830   5.286   4.521
 3586SOL    HW112590  11.883   5.270   4.599
 3586SOL    HW212591  11.861   5.371   4.488
 3587SOL     OW12592   7.557   3.672   6.013
 3587SOL    HW112593   7.533   3.630   5.930
 3587SOL    HW212594   7.481   3.656   6.070
 3588SOL     OW12595   5.271  11.989   4.516
 3588SOL    HW112596   5.314  11.928   4.576
 3588SOL    HW212597   5.318  12.072   4.528
 3589SOL     OW12598  14.672   2.321   2.240
 3589SOL    HW112599  14.655   2.227   2.248
 3589SOL    HW212600  14.664   2.353   2.330
 3590SOL     OW12601   1.264   8.873  12.600
 3590SOL    HW112602   1.347   8.856  12.556
 3590SOL    HW212603   1.203   8.895  12.529
 3591SOL     OW12604   5.522   8.196   6.147
 3591SOL    HW112605   5.496   8.225   6.059
 3591SOL    HW212606   5.442   8.204   6.199
 3592SOL     OW12607  10.031   5.628   5.110
 3592SOL    HW112608   9.965   5.668   5.053
 3592SOL    HW212609  10.064   5.701   5.162
 3593SOL     OW12610   9.503  12.694   7.819
 3593SOL    HW112611   9.583  12.739   7.846
 3593SOL    HW212612   9.454  12.760   7.770
 3594SOL     OW12613   3.464   5.040   1.209
 3594SOL    HW112614   3.448   5.064   1.300
 3594SOL    HW212615   3.495   4.950   1.213
 3595SOL     OW12616   1.015   5.027   7.304
 3595SOL    HW112617   1.049   4.960   7.245
 3595SOL    HW212618   0.968   4.977   7.372
 3596SOL     OW12619   8.882   8.776  11.142
 3596SOL    HW112620   8.870   8.870  11.125
 3596SOL    HW212621   8.939   8.747  11.071
 3597SOL     OW12622   1.768   3.295   5.405
 3597SOL    HW112623   1.701   3.227   5.410
 3597SOL    HW212624   1.839   3.262   5.460
 3598SOL     OW12625   1.757   0.006   3.012
 3598SOL    HW112626   1.752  14.788   3.029
 3598SOL    HW212627   1.786   0.045   3.095
 3599SOL     OW12628   5.281  10.464   4.012
 3599SOL    HW112629   5.262  10.554   4.038
 3599SOL    HW212630   5.226  10.450   3.934
 3600SOL     OW12631   4.072  10.083   7.731
 3600SOL    HW112632   4.051   9.994   7.703
 3600SOL    HW212633   4.118  10.072   7.814
 3601SOL     OW12634   5.037   2.759  11.342
 3601SOL    HW112635   5.065   2.766  11.251
 3601SOL    HW212636   5.117   2.771  11.394
 3602SOL     OW12637   0.190   3.856   0.338
 3602SOL    HW112638   0.159   3.772   0.372
 3602SOL    HW212639   0.124   3.919   0.366
 3603SOL     OW12640   8.253  12.321   9.530
 3603SOL    HW112641   8.301  12.292   9.607
 3603SOL    HW212642   8.177  12.368   9.565
 3604SOL     OW12643  11.069   2.111   1.754
 3604SOL    HW112644  11.084   2.034   1.809
 3604SOL    HW212645  11.059   2.183   1.816
 3605SOL     OW12646   7.671   6.041  13.932
 3605SOL    HW112647   7.710   6.037  14.019
 3605SOL    HW212648   7.734   5.996  13.875
 3606SOL     OW12649   1.556   6.288   1.608
 3606SOL    HW112650   1.490   6.354   1.628
 3606SOL    HW212651   1.510   6.222   1.556
 3607SOL     OW12652   7.934  11.318   7.429
 3607SOL    HW112653   8.024  11.302   7.457
 3607SOL    HW212654   7.941  11.386   7.363
 3608SOL     OW12655   5.609   5.357  10.178
 3608SOL    HW112656   5.613   5.437  10.229
 3608SOL    HW212657   5.696   5.317  10.187
 3609SOL     OW12658   5.458   7.310   9.665
 3609SOL    HW112659   5.487   7.401   9.655
 3609SOL    HW212660   5.520   7.272   9.727
 3610SOL     OW12661  14.152   8.223  14.850
 3610SOL    HW112662  14.155   8.302  14.797
 3610SOL    HW212663  14.180   8.251   0.062
 3611SOL     OW12664  12.327  14.168   6.799
 3611SOL    HW112665  12.251  14.177   6.857
 3611SOL    HW212666  12.343  14.074   6.795
 3612SOL     OW12667   0.739   3.579  11.164
 3612SOL    HW112668   0.704   3.622  11.241
 3612SOL    HW212669   0.667   3.526  11.131
 3613SOL     OW12670  10.833   9.437   6.927
 3613SOL    HW112671  10.923   9.445   6.897
 3613SOL    HW212672  10.839   9.383   7.006
 3614SOL     OW12673  11.188   3.373   9.487
 3614SOL    HW112674  11.193   3.401   9.396
 3614SOL    HW212675  11.206   3.279   9.484
 3615SOL     OW12676  13.612  14.476   0.883
 3615SOL    HW112677  13.575  14.388   0.880
 3615SOL    HW212678  13.564  14.521   0.952
 3616SOL     OW12679   8.100  13.099   6.143
 3616SOL    HW112680   8.054  13.142   6.071
 3616SOL    HW212681   8.181  13.148   6.152
 3617SOL     OW12682   4.984  13.752  13.911
 3617SOL    HW112683   5.054  13.804  13.951
 3617SOL    HW212684   4.911  13.759  13.972
 3618SOL     OW12685  12.736  14.591   6.000
 3618SOL    HW112686  12.790  14.547   5.933
 3618SOL    HW212687  12.707  14.672   5.958
 3619SOL     OW12688   3.536   5.844   6.952
 3619SOL    HW112689   3.550   5.837   7.046
 3619SOL    HW212690   3.564   5.933   6.929
 3620SOL     OW12691   9.068   0.515   0.373
 3620SOL    HW112692   9.000   0.448   0.379
 3620SOL    HW212693   9.071   0.537   0.280
 3621SOL     OW12694   8.229   7.264   1.779
 3621SOL    HW112695   8.176   7.228   1.708
 3621SOL    HW212696   8.221   7.359   1.770
 3622SOL     OW12697  10.606   2.944   4.061
 3622SOL    HW112698  10.601   2.851   4.039
 3622SOL    HW212699  10.563   2.952   4.146
 3623SOL     OW12700  11.849   2.863   6.078
 3623SOL    HW112701  11.868   2.946   6.122
 3623SOL    HW212702  11.754   2.859   6.074
 3624SOL     OW12703   5.531   2.439  12.760
 3624SOL    HW112704   5.513   2.439  12.854
 3624SOL    HW212705   5.453   2.401  12.720
 3625SOL     OW12706  12.095   2.027   1.067
 3625SOL    HW112707  12.020   1.974   1.039
 3625SOL    HW212708  12.146   1.968   1.123
 3626SOL     OW12709  11.114  10.456  10.213
 3626SOL    HW112710  11.041  10.510  10.243
 3626SOL    HW212711  11.075  10.371  10.192
 3627SOL     OW12712  10.707  12.286   0.991
 3627SOL    HW112713  10.704  12.194   1.016
 3627SOL    HW212714  10.764  12.289   0.914
 3628SOL     OW12715  13.248  14.451   4.386
 3628SOL    HW112716  13.174  14.462   4.326
 3628SOL    HW212717  13.267  14.540   4.417
 3629SOL     OW12718  10.141   1.800   3.351
 3629SOL    HW112719  10.054   1.762   3.341
 3629SOL    HW212720  10.139   1.880   3.299
 3630SOL     OW12721  14.513  13.313  11.222
 3630SOL    HW112722  14.511  13.223  11.191
 3630SOL    HW212723  14.556  13.308  11.308
 3631SOL     OW12724  13.917  13.162   7.850
 3631SOL    HW112725  13.835  13.208   7.830
 3631SOL    HW212726  13.894  13.069   7.844
 3632SOL     OW12727   8.363   6.401   9.550
 3632SOL    HW112728   8.317   6.459   9.489
 3632SOL    HW212729   8.456   6.412   9.528
 3633SOL     OW12730  12.488   9.061   3.083
 3633SOL    HW112731  12.569   9.022   3.116
 3633SOL    HW212732  12.427   9.056   3.157
 3634SOL     OW12733   7.852  14.312   2.753
 3634SOL    HW112734   7.897  14.390   2.722
 3634SOL    HW212735   7.867  14.312   2.848
 3635SOL     OW12736  13.777   9.485   4.813
 3635SOL    HW112737  13.842   9.538   4.767
 3635SOL    HW212738  13.746   9.423   4.747
 3636SOL     OW12739   1.598   5.535  13.764
 3636SOL    HW112740   1.681   5.582  13.777
 3636SOL    HW212741   1.546   5.594  13.709
 3637SOL     OW12742  11.857   8.709  10.377
 3637SOL    HW112743  11.921   8.747  10.317
 3637SOL    HW212744  11.900   8.632  10.414
 3638SOL     OW12745  13.480  11.276   6.993
 3638SOL    HW112746  13.431  11.356   7.013
 3638SOL    HW212747  13.472  11.223   7.072
 3639SOL     OW12748   1.431  14.239   8.753
 3639SOL    HW112749   1.381  14.313   8.718
 3639SOL    HW212750   1.522  14.268   8.751
 3640SOL     OW12751   7.084   8.783  10.645
 3640SOL    HW112752   7.107   8.702  10.689
 3640SOL    HW212753   7.020   8.758  10.579
 3641SOL     OW12754   7.666   3.059   2.668
 3641SOL    HW112755   7.594   3.042   2.729
 3641SOL    HW212756   7.636   3.022   2.584
 3642SOL     OW12757  10.707   0.309  12.111
 3642SOL    HW112758  10.796   0.335  12.135
 3642SOL    HW212759  10.717   0.260  12.030
 3643SOL     OW12760   7.888  14.702   3.416
 3643SOL    HW112761   7.967  14.687   3.365
 3643SOL    HW212762   7.901  14.788   3.456
 3644SOL     OW12763   3.069  11.009  12.723
 3644SOL    HW112764   2.988  10.989  12.677
 3644SOL    HW212765   3.048  10.997  12.816
 3645SOL     OW12766   3.563   2.104   4.856
 3645SOL    HW112767   3.625   2.171   4.882
 3645SOL    HW212768   3.521   2.076   4.937
 3646SOL     OW12769   2.254   5.615   0.032
 3646SOL    HW112770   2.175   5.638   0.081
 3646SOL    HW212771   2.288   5.698   0.000
 3647SOL     OW12772  10.493   0.494   3.576
 3647SOL    HW112773  10.420   0.433   3.573
 3647SOL    HW212774  10.454   0.578   3.599
 3648SOL     OW12775   2.225   1.745   5.840
 3648SOL    HW112776   2.276   1.724   5.762
 3648SOL    HW212777   2.215   1.662   5.886
 3649SOL     OW12778   8.235   3.291   2.320
 3649SOL    HW112779   8.209   3.379   2.293
 3649SOL    HW212780   8.237   3.240   2.239
 3650SOL     OW12781  10.354   4.781  12.475
 3650SOL    HW112782  10.375   4.856  12.530
 3650SOL    HW212783  10.262   4.762  12.496
 3651SOL     OW12784   6.193   9.726  10.030
 3651SOL    HW112785   6.255   9.770   9.972
 3651SOL    HW212786   6.208   9.765  10.116
 3652SOL     OW12787  13.361   8.915   8.740
 3652SOL    HW112788  13.289   8.965   8.701
 3652SOL    HW212789  13.426   8.907   8.669
 3653SOL     OW12790   1.943   8.996   0.444
 3653SOL    HW112791   1.955   8.952   0.360
 3653SOL    HW212792   1.855   8.970   0.473
 3654SOL     OW12793  11.619  14.193   3.270
 3654SOL    HW112794  11.684  14.197   3.199
 3654SOL    HW212795  11.653  14.252   3.337
 3655SOL     OW12796  11.502   1.823   2.219
 3655SOL    HW112797  11.407   1.825   2.209
 3655SOL    HW212798  11.524   1.905   2.264
 3656SOL     OW12799   7.532   2.089  14.547
 3656SOL    HW112800   7.497   2.135  14.471
 3656SOL    HW212801   7.525   1.996  14.523
 3657SOL     OW12802   7.511  12.709  14.431
 3657SOL    HW112803   7.462  12.778  14.387
 3657SOL    HW212804   7.477  12.708  14.521
 3658SOL     OW12805  14.503   5.728   4.552
 3658SOL    HW112806  14.445   5.655   4.529
 3658SOL    HW212807  14.520   5.717   4.645
 3659SOL     OW12808   0.561   8.555  11.533
 3659SOL    HW112809   0.483   8.505  11.559
 3659SOL    HW212810   0.597   8.586  11.616
 3660SOL     OW12811   4.660  10.995   7.087
 3660SOL    HW112812   4.641  10.903   7.072
 3660SOL    HW212813   4.711  10.996   7.169
 3661SOL     OW12814  14.164  10.394   6.368
 3661SOL    HW112815  14.086  10.441   6.337
 3661SOL    HW212816  14.207  10.455   6.427
 3662SOL     OW12817   8.474   7.200  10.490
 3662SOL    HW112818   8.411   7.143  10.445
 3662SOL    HW212819   8.427   7.232  10.567
 3663SOL     OW12820   4.925   4.537   7.912
 3663SOL    HW112821   5.004   4.492   7.882
 3663SOL    HW212822   4.956   4.621   7.944
 3664SOL     OW12823   6.583   9.303   6.590
 3664SOL    HW112824   6.530   9.244   6.643
 3664SOL    HW212825   6.535   9.311   6.507
 3665SOL     OW12826   3.242   1.054  10.260
 3665SOL    HW112827   3.245   1.010  10.175
 3665SOL    HW212828   3.183   0.999  10.313
 3666SOL     OW12829   2.989  11.781   0.585
 3666SOL    HW112830   3.003  11.822   0.500
 3666SOL    HW212831   2.944  11.699   0.566
 3667SOL     OW12832   1.582  11.545   7.307
 3667SOL    HW112833   1.639  11.505   7.241
 3667SOL    HW212834   1.499  11.557   7.261
 3668SOL     OW12835   6.106   0.989   6.077
 3668SOL    HW112836   6.172   1.031   6.133
 3668SOL    HW212837   6.025   0.996   6.127
 3669SOL     OW12838  13.119  11.160   9.058
 3669SOL    HW112839  13.206  11.143   9.024
 3669SOL    HW212840  13.114  11.108   9.139
 3670SOL     OW12841   5.255   1.691  13.211
 3670SOL    HW112842   5.183   1.728  13.261
 3670SOL    HW212843   5.284   1.763  13.155
 3671SOL     OW12844   4.482   9.379  11.080
 3671SOL    HW112845   4.501   9.292  11.045
 3671SOL    HW212846   4.464   9.433  11.003
 3672SOL     OW12847  13.007   5.663   3.703
 3672SOL    HW112848  13.095   5.695   3.725
 3672SOL    HW212849  12.948   5.728   3.743
 3673SOL     OW12850   4.710   1.864   9.552
 3673SOL    HW112851   4.762   1.797   9.509
 3673SOL    HW212852   4.663   1.818   9.622
 3674SOL     OW12853   3.899   9.230  13.281
 3674SOL    HW112854   3.958   9.299  13.251
 3674SOL    HW212855   3.813   9.257  13.251
 3675SOL     OW12856   1.979  10.009   2.049
 3675SOL    HW112857   1.896   9.994   2.095
 3675SOL    HW212858   1.980  10.103   2.031
 3676SOL     OW12859   8.104   0.053  12.635
 3676SOL    HW112860   8.155   0.077  12.557
 3676SOL    HW212861   8.087  14.836  12.624
 3677SOL     OW12862   0.653   9.461   6.333
 3677SOL    HW112863   0.638   9.510   6.253
 3677SOL    HW212864   0.569   9.461   6.378
 3678SOL     OW12865   4.278  13.894  13.081
 3678SOL    HW112866   4.186  13.921  13.076
 3678SOL    HW212867   4.311  13.905  12.992
 3679SOL     OW12868   4.109   6.359   4.917
 3679SOL    HW112869   4.124   6.453   4.908
 3679SOL    HW212870   4.185   6.328   4.966
 3680SOL     OW12871  14.874   0.476   7.352
 3680SOL    HW112872   0.081   0.429   7.367
 3680SOL    HW212873  14.808   0.408   7.346
 3681SOL     OW12874   5.359   0.044   6.311
 3681SOL    HW112875   5.446   0.076   6.285
 3681SOL    HW212876   5.301   0.075   6.241
 3682SOL     OW12877   2.152  12.356   1.280
 3682SOL    HW112878   2.057  12.347   1.289
 3682SOL    HW212879   2.169  12.449   1.293
 3683SOL     OW12880   2.016  11.858  10.924
 3683SOL    HW112881   2.052  11.946  10.926
 3683SOL    HW212882   2.004  11.839  10.830
 3684SOL     OW12883  10.141  13.259   8.085
 3684SOL    HW112884  10.178  13.171   8.094
 3684SOL    HW212885  10.206  13.316   8.125
 3685SOL     OW12886   3.694   7.550   3.819
 3685SOL    HW112887   3.648   7.595   3.748
 3685SOL    HW212888   3.737   7.476   3.776
 3686SOL     OW12889   1.901   1.895   5.394
 3686SOL    HW112890   1.915   1.937   5.478
 3686SOL    HW212891   1.816   1.927   5.364
 3687SOL     OW12892  14.637   1.880  13.858
 3687SOL    HW112893  14.542   1.878  13.844
 3687SOL    HW212894  14.653   1.965  13.898
 3688SOL     OW12895   2.691   5.860   2.726
 3688SOL    HW112896   2.721   5.786   2.779
 3688SOL    HW212897   2.771   5.907   2.703
 3689SOL     OW12898   7.447   6.006  13.310
 3689SOL    HW112899   7.479   6.096  13.314
 3689SOL    HW212900   7.480   5.973  13.227
 3690SOL     OW12901   5.889   6.620  13.473
 3690SOL    HW112902   5.979   6.592  13.490
 3690SOL    HW212903   5.848   6.545  13.429
 3691SOL     OW12904   7.398   1.928  10.191
 3691SOL    HW112905   7.372   1.836  10.197
 3691SOL    HW212906   7.377   1.964  10.278
 3692SOL     OW12907   2.560   9.324   5.962
 3692SOL    HW112908   2.473   9.358   5.941
 3692SOL    HW212909   2.562   9.320   6.057
 3693SOL     OW12910   7.437   3.266   9.874
 3693SOL    HW112911   7.413   3.353   9.905
 3693SOL    HW212912   7.376   3.206   9.916
 3694SOL     OW12913   9.284  10.019   1.847
 3694SOL    HW112914   9.261   9.929   1.821
 3694SOL    HW212915   9.209  10.049   1.898
 3695SOL     OW12916   8.323   6.901  13.273
 3695SOL    HW112917   8.390   6.946  13.325
 3695SOL    HW212918   8.371   6.830  13.229
 3696SOL     OW12919   3.403   8.900  13.533
 3696SOL    HW112920   3.316   8.881  13.498
 3696SOL    HW212921   3.414   8.837  13.605
 3697SOL     OW12922  11.550   3.060  10.787
 3697SOL    HW112923  11.594   3.145  10.792
 3697SOL    HW212924  11.600   3.003  10.846
 3698SOL     OW12925  13.068  11.025   5.927
 3698SOL    HW112926  13.139  11.022   5.863
 3698SOL    HW212927  13.001  11.080   5.885
 3699SOL     OW12928   0.560   9.351   9.971
 3699SOL    HW112929   0.508   9.408  10.029
 3699SOL    HW212930   0.614   9.299  10.031
 3700SOL     OW12931   2.871   7.979  11.301
 3700SOL    HW112932   2.789   7.964  11.349
 3700SOL    HW212933   2.911   7.893  11.295
 3701SOL     OW12934   4.644   2.745   0.484
 3701SOL    HW112935   4.650   2.738   0.389
 3701SOL    HW212936   4.565   2.695   0.506
 3702SOL     OW12937   2.711   8.654   8.260
 3702SOL    HW112938   2.685   8.635   8.170
 3702SOL    HW212939   2.800   8.690   8.252
 3703SOL     OW12940  13.728   6.762   6.432
 3703SOL    HW112941  13.662   6.824   6.465
 3703SOL    HW212942  13.794   6.759   6.501
 3704SOL     OW12943   4.069   5.279   2.964
 3704SOL    HW112944   4.043   5.326   2.884
 3704SOL    HW212945   4.078   5.347   3.030
 3705SOL     OW12946   9.232   3.808  13.385
 3705SOL    HW112947   9.214   3.722  13.348
 3705SOL    HW212948   9.215   3.870  13.314
 3706SOL     OW12949   6.254   0.379  14.764
 3706SOL    HW112950   6.342   0.365  14.728
 3706SOL    HW212951   6.200   0.313  14.720
 3707SOL     OW12952   1.124   7.605   9.082
 3707SOL    HW112953   1.106   7.664   9.010
 3707SOL    HW212954   1.154   7.662   9.153
 3708SOL     OW12955  13.649  11.379   5.165
 3708SOL    HW112956  13.722  11.402   5.223
 3708SOL    HW212957  13.610  11.301   5.205
 3709SOL     OW12958   3.181   7.963  13.989
 3709SOL    HW112959   3.203   7.871  14.004
 3709SOL    HW212960   3.195   7.976  13.895
 3710SOL     OW12961  12.050   3.944   2.205
 3710SOL    HW112962  12.056   3.855   2.240
 3710SOL    HW212963  12.140   3.965   2.180
 3711SOL     OW12964   6.941   7.756   1.590
 3711SOL    HW112965   6.914   7.722   1.505
 3711SOL    HW212966   6.927   7.683   1.651
 3712SOL     OW12967   8.664   0.218  13.653
 3712SOL    HW112968   8.682   0.271  13.575
 3712SOL    HW212969   8.728   0.146  13.649
 3713SOL     OW12970   8.661   7.795  10.969
 3713SOL    HW112971   8.620   7.767  11.050
 3713SOL    HW212972   8.668   7.890  10.977
 3714SOL     OW12973   4.517   2.125   6.033
 3714SOL    HW112974   4.478   2.201   6.076
 3714SOL    HW212975   4.459   2.106   5.959
 3715SOL     OW12976   3.960   2.759   4.953
 3715SOL    HW112977   3.891   2.824   4.970
 3715SOL    HW212978   3.935   2.719   4.870
 3716SOL     OW12979   1.155  13.791   4.662
 3716SOL    HW112980   1.094  13.726   4.626
 3716SOL    HW212981   1.099  13.865   4.687
 3717SOL     OW12982   4.045  11.774   8.456
 3717SOL    HW112983   4.034  11.828   8.378
 3717SOL    HW212984   4.122  11.720   8.436
 3718SOL     OW12985   7.428   9.411  14.552
 3718SOL    HW112986   7.369   9.429  14.624
 3718SOL    HW212987   7.374   9.369  14.485
 3719SOL     OW12988   6.313  10.407   1.661
 3719SOL    HW112989   6.369  10.470   1.615
 3719SOL    HW212990   6.305  10.443   1.749
 3720SOL     OW12991  13.133   0.288  12.290
 3720SOL    HW112992  13.119   0.380  12.311
 3720SOL    HW212993  13.094   0.240  12.363
 3721SOL     OW12994   7.140   8.190  11.376
 3721SOL    HW112995   7.233   8.205  11.390
 3721SOL    HW212996   7.130   8.185  11.281
 3722SOL     OW12997   8.440   7.517  13.983
 3722SOL    HW112998   8.433   7.445  13.920
 3722SOL    HW212999   8.513   7.492  14.040
 3723SOL     OW13000  14.606   1.527   7.965
 3723SOL    HW113001  14.537   1.486   7.914
 3723SOL    HW213002  14.639   1.458   8.022
 3724SOL     OW13003   6.788  10.300  12.938
 3724SOL    HW113004   6.798  10.232  12.871
 3724SOL    HW213005   6.827  10.378  12.900
 3725SOL     OW13006   6.843  11.014   5.014
 3725SOL    HW113007   6.868  10.972   4.931
 3725SOL    HW213008   6.912  11.078   5.030
 3726SOL     OW13009  11.620   5.354   0.730
 3726SOL    HW113010  11.600   5.378   0.639
 3726SOL    HW213011  11.704   5.396   0.748
 3727SOL     OW13012   0.326   4.776  12.496
 3727SOL    HW113013   0.287   4.690  12.514
 3727SOL    HW213014   0.262   4.821  12.441
 3728SOL     OW13015   3.015   1.342  12.869
 3728SOL    HW113016   3.010   1.375  12.780
 3728SOL    HW213017   2.945   1.388  12.916
 3729SOL     OW13018  12.262   4.548   3.751
 3729SOL    HW113019  12.174   4.580   3.733
 3729SOL    HW213020  12.280   4.574   3.841
 3730SOL     OW13021   7.295   9.964   8.482
 3730SOL    HW113022   7.347   9.980   8.560
 3730SOL    HW213023   7.298   9.869   8.469
 3731SOL     OW13024   2.520   9.074  14.165
 3731SOL    HW113025   2.472   9.002  14.124
 3731SOL    HW213026   2.612   9.048  14.159
 3732SOL     OW13027   7.965   7.331   6.034
 3732SOL    HW113028   7.993   7.315   6.124
 3732SOL    HW213029   7.999   7.418   6.013
 3733SOL     OW13030   5.675   4.446   5.121
 3733SOL    HW113031   5.657   4.539   5.105
 3733SOL    HW213032   5.769   4.437   5.106
 3734SOL     OW13033   0.662   4.182   0.875
 3734SOL    HW113034   0.615   4.155   0.954
 3734SOL    HW213035   0.735   4.235   0.908
 3735SOL     OW13036  10.561  11.772   0.383
 3735SOL    HW113037  10.642  11.791   0.430
 3735SOL    HW213038  10.495  11.763   0.452
 3736SOL     OW13039   6.225  14.315   1.522
 3736SOL    HW113040   6.170  14.244   1.557
 3736SOL    HW213041   6.221  14.302   1.427
 3737SOL     OW13042   7.219   2.612   5.750
 3737SOL    HW113043   7.161   2.541   5.777
 3737SOL    HW213044   7.243   2.592   5.660
 3738SOL     OW13045   1.575   2.016   2.417
 3738SOL    HW113046   1.533   1.931   2.402
 3738SOL    HW213047   1.561   2.033   2.511
 3739SOL     OW13048  11.780   8.862   9.942
 3739SOL    HW113049  11.788   8.772   9.973
 3739SOL    HW213050  11.716   8.902  10.001
 3740SOL     OW13051   1.592   7.735   3.692
 3740SOL    HW113052   1.532   7.686   3.636
 3740SOL    HW213053   1.650   7.780   3.630
 3741SOL     OW13054  11.991   1.608   7.312
 3741SOL    HW113055  11.925   1.655   7.362
 3741SOL    HW213056  12.017   1.535   7.368
 3742SOL     OW13057   1.166   3.356  10.867
 3742SOL    HW113058   1.102   3.291  10.896
 3742SOL    HW213059   1.152   3.363  10.773
 3743SOL     OW13060  12.553   4.119   5.056
 3743SOL    HW113061  12.621   4.132   5.122
 3743SOL    HW213062  12.505   4.202   5.056
 3744SOL     OW13063   0.534  10.111  11.826
 3744SOL    HW113064   0.563  10.201  11.808
 3744SOL    HW213065   0.444  10.120  11.856
 3745SOL     OW13066  11.737   1.805   0.691
 3745SOL    HW113067  11.662   1.773   0.740
 3745SOL    HW213068  11.701   1.871   0.632
 3746SOL     OW13069   7.703  11.176  11.936
 3746SOL    HW113070   7.641  11.249  11.941
 3746SOL    HW213071   7.660  11.112  11.879
 3747SOL     OW13072  13.317   7.383  13.500
 3747SOL    HW113073  13.245   7.404  13.559
 3747SOL    HW213074  13.324   7.287  13.503
 3748SOL     OW13075  12.889   0.100   3.622
 3748SOL    HW113076  12.954   0.040   3.586
 3748SOL    HW213077  12.915   0.187   3.592
 3749SOL     OW13078  13.046   3.094  13.022
 3749SOL    HW113079  13.138   3.107  13.044
 3749SOL    HW213080  13.048   3.034  12.948
 3750SOL     OW13081  14.338   0.298   2.858
 3750SOL    HW113082  14.283   0.275   2.783
 3750SOL    HW213083  14.311   0.238   2.928
 3751SOL     OW13084  13.232   3.812   4.126
 3751SOL    HW113085  13.233   3.786   4.218
 3751SOL    HW213086  13.264   3.902   4.126
 3752SOL     OW13087   1.274   9.034   2.965
 3752SOL    HW113088   1.365   9.063   2.959
 3752SOL    HW213089   1.222   9.112   2.945
 3753SOL     OW13090   6.116   3.119   4.294
 3753SOL    HW113091   6.191   3.122   4.234
 3753SOL    HW213092   6.148   3.071   4.370
 3754SOL     OW13093   0.358   7.620   5.949
 3754SOL    HW113094   0.369   7.693   5.888
 3754SOL    HW213095   0.398   7.651   6.031
 3755SOL     OW13096   5.281  10.455   7.093
 3755SOL    HW113097   5.244  10.465   7.180
 3755SOL    HW213098   5.371  10.486   7.101
 3756SOL     OW13099   1.045   0.464   9.200
 3756SOL    HW113100   1.109   0.490   9.133
 3756SOL    HW213101   0.988   0.401   9.156
 3757SOL     OW13102  13.853   5.210   7.643
 3757SOL    HW113103  13.811   5.284   7.600
 3757SOL    HW213104  13.940   5.205   7.604
 3758SOL     OW13105  12.781   5.710   0.974
 3758SOL    HW113106  12.791   5.633   0.918
 3758SOL    HW213107  12.815   5.682   1.060
 3759SOL     OW13108   8.114   4.260   6.634
 3759SOL    HW113109   8.108   4.345   6.676
 3759SOL    HW213110   8.098   4.278   6.541
 3760SOL     OW13111   6.358  12.278  12.013
 3760SOL    HW113112   6.294  12.330  11.966
 3760SOL    HW213113   6.319  12.265  12.100
 3761SOL     OW13114   2.535   5.815  11.473
 3761SOL    HW113115   2.533   5.853  11.386
 3761SOL    HW213116   2.467   5.747  11.472
 3762SOL     OW13117   3.761   2.551   4.490
 3762SOL    HW113118   3.827   2.590   4.432
 3762SOL    HW213119   3.756   2.459   4.461
 3763SOL     OW13120  11.578   8.729   7.454
 3763SOL    HW113121  11.497   8.750   7.407
 3763SOL    HW213122  11.620   8.814   7.468
 3764SOL     OW13123   8.332   7.809   1.787
 3764SOL    HW113124   8.353   7.850   1.870
 3764SOL    HW213125   8.415   7.809   1.739
 3765SOL     OW13126   2.897   4.791   3.665
 3765SOL    HW113127   2.870   4.812   3.576
 3765SOL    HW213128   2.929   4.701   3.660
 3766SOL     OW13129   6.264  14.262  12.094
 3766SOL    HW113130   6.247  14.204  12.020
 3766SOL    HW213131   6.340  14.224  12.139
 3767SOL     OW13132  11.943   2.367   1.687
 3767SOL    HW113133  11.897   2.444   1.653
 3767SOL    HW213134  11.957   2.387   1.780
 3768SOL     OW13135   3.322   3.316  10.639
 3768SOL    HW113136   3.261   3.242  10.650
 3768SOL    HW213137   3.363   3.326  10.725
 3769SOL     OW13138   2.352   8.781   1.489
 3769SOL    HW113139   2.420   8.749   1.548
 3769SOL    HW213140   2.294   8.706   1.476
 3770SOL     OW13141  10.643  13.912   4.583
 3770SOL    HW113142  10.720  13.951   4.626
 3770SOL    HW213143  10.672  13.893   4.494
 3771SOL     OW13144   4.951  12.223   7.578
 3771SOL    HW113145   4.938  12.299   7.521
 3771SOL    HW213146   4.992  12.259   7.657
 3772SOL     OW13147  10.495  13.736  11.786
 3772SOL    HW113148  10.423  13.703  11.840
 3772SOL    HW213149  10.559  13.768  11.849
 3773SOL     OW13150   6.631   5.254   0.025
 3773SOL    HW113151   6.626   5.158   0.027
 3773SOL    HW213152   6.544   5.282  14.874
 3774SOL     OW13153  10.375   8.600   4.855
 3774SOL    HW113154  10.321   8.535   4.899
 3774SOL    HW213155  10.318   8.639   4.789
 3775SOL     OW13156  14.552   6.886   5.363
 3775SOL    HW113157  14.571   6.862   5.273
 3775SOL    HW213158  14.493   6.961   5.356
 3776SOL     OW13159   2.196   8.291  13.070
 3776SOL    HW113160   2.262   8.356  13.048
 3776SOL    HW213161   2.196   8.231  12.995
 3777SOL     OW13162  12.134   5.615  10.543
 3777SOL    HW113163  12.130   5.599  10.449
 3777SOL    HW213164  12.166   5.534  10.580
 3778SOL     OW13165   3.070   1.886  11.007
 3778SOL    HW113166   3.005   1.846  11.065
 3778SOL    HW213167   3.107   1.958  11.058
 3779SOL     OW13168   0.888   3.804   5.388
 3779SOL    HW113169   0.823   3.866   5.422
 3779SOL    HW213170   0.954   3.798   5.457
 3780SOL     OW13171   9.862  10.223   9.375
 3780SOL    HW113172   9.787  10.168   9.354
 3780SOL    HW213173   9.841  10.261   9.461
 3781SOL     OW13174  13.384   4.892   8.270
 3781SOL    HW113175  13.449   4.962   8.268
 3781SOL    HW213176  13.434   4.812   8.254
 3782SOL     OW13177  12.694   1.856   2.480
 3782SOL    HW113178  12.718   1.806   2.559
 3782SOL    HW213179  12.736   1.941   2.492
 3783SOL     OW13180   5.898   4.682  12.929
 3783SOL    HW113181   5.877   4.729  13.010
 3783SOL    HW213182   5.949   4.745  12.878
 3784SOL     OW13183  13.587  12.735   0.758
 3784SOL    HW113184  13.602  12.789   0.680
 3784SOL    HW213185  13.494  12.747   0.778
 3785SOL     OW13186   1.604   8.634   5.877
 3785SOL    HW113187   1.697   8.649   5.894
 3785SOL    HW213188   1.596   8.539   5.866
 3786SOL     OW13189   1.225   5.827  14.329
 3786SOL    HW113190   1.224   5.832  14.425
 3786SOL    HW213191   1.134   5.811  14.305
 3787SOL     OW13192   2.432  13.900   5.954
 3787SOL    HW113193   2.379  13.856   5.887
 3787SOL    HW213194   2.442  13.990   5.922
 3788SOL     OW13195  12.910   6.444   7.095
 3788SOL    HW113196  12.915   6.538   7.114
 3788SOL    HW213197  12.917   6.438   7.000
 3789SOL     OW13198   2.305  10.243   4.359
 3789SOL    HW113199   2.326  10.253   4.452
 3789SOL    HW213200   2.288  10.150   4.348
 3790SOL     OW13201  13.022   2.544   7.844
 3790SOL    HW113202  12.995   2.557   7.935
 3790SOL    HW213203  13.116   2.558   7.844
 3791SOL     OW13204   6.615   6.915  10.628
 3791SOL    HW113205   6.662   6.995  10.654
 3791SOL    HW213206   6.580   6.880  10.710
 3792SOL     OW13207   3.360   9.046   5.091
 3792SOL    HW113208   3.272   9.049   5.130
 3792SOL    HW213209   3.414   9.000   5.155
 3793SOL     OW13210   7.327   2.389  14.830
 3793SOL    HW113211   7.394   2.345  14.777
 3793SOL    HW213212   7.246   2.342  14.810
 3794SOL     OW13213   4.135   0.316   7.955
 3794SOL    HW113214   4.049   0.278   7.968
 3794SOL    HW213215   4.126   0.369   7.875
 3795SOL     OW13216  11.046   1.589  13.673
 3795SOL    HW113217  11.018   1.514  13.621
 3795SOL    HW213218  10.972   1.605  13.732
 3796SOL     OW13219   2.275   7.864   0.409
 3796SOL    HW113220   2.227   7.921   0.348
 3796SOL    HW213221   2.337   7.817   0.354
 3797SOL     OW13222   1.458   1.629   5.588
 3797SOL    HW113223   1.542   1.643   5.631
 3797SOL    HW213224   1.477   1.565   5.519
 3798SOL     OW13225   0.097   9.065   3.659
 3798SOL    HW113226   0.051   9.002   3.603
 3798SOL    HW213227   0.092   9.027   3.747
 3799SOL     OW13228   9.654   9.089   4.413
 3799SOL    HW113229   9.629   9.049   4.330
 3799SOL    HW213230   9.689   9.017   4.466
 3800SOL     OW13231   0.863  12.402  11.226
 3800SOL    HW113232   0.932  12.342  11.199
 3800SOL    HW213233   0.818  12.426  11.145
 3801SOL     OW13234   5.197   6.393   8.286
 3801SOL    HW113235   5.247   6.434   8.356
 3801SOL    HW213236   5.106   6.397   8.316
 3802SOL     OW13237   5.968  10.178   5.511
 3802SOL    HW113238   6.053  10.192   5.469
 3802SOL    HW213239   5.952  10.084   5.501
 3803SOL     OW13240  13.332  12.109  10.222
 3803SOL    HW113241  13.252  12.056  10.213
 3803SOL    HW213242  13.363  12.122  10.133
 3804SOL     OW13243   4.695  11.823   6.559
 3804SOL    HW113244   4.785  11.847   6.578
 3804SOL    HW213245   4.653  11.905   6.532
 3805SOL     OW13246   7.094  14.468   4.716
 3805SOL    HW113247   7.021  14.475   4.654
 3805SOL    HW213248   7.053  14.453   4.801
 3806SOL     OW13249  13.318  14.832   9.604
 3806SOL    HW113250  13.334   0.048   9.628
 3806SOL    HW213251  13.273  14.795   9.681
 3807SOL     OW13252   4.541  14.679  11.981
 3807SOL    HW113253   4.566  14.690  11.889
 3807SOL    HW213254   4.535  14.769  12.014
 3808SOL     OW13255   7.347   7.281   2.367
 3808SOL    HW113256   7.313   7.229   2.294
 3808SOL    HW213257   7.437   7.301   2.343
 3809SOL     OW13258   6.955   1.639   7.965
 3809SOL    HW113259   6.886   1.575   7.981
 3809SOL    HW213260   6.911   1.715   7.928
 3810SOL     OW13261   9.452   6.694   4.060
 3810SOL    HW113262   9.364   6.733   4.058
 3810SOL    HW213263   9.494   6.725   3.981
 3811SOL     OW13264  12.351  10.085   9.731
 3811SOL    HW113265  12.386  10.155   9.785
 3811SOL    HW213266  12.274  10.054   9.779
 3812SOL     OW13267   1.118   5.549  12.345
 3812SOL    HW113268   1.144   5.615  12.409
 3812SOL    HW213269   1.200   5.526  12.301
 3813SOL     OW13270  14.641   8.940  11.110
 3813SOL    HW113271  14.730   8.943  11.077
 3813SOL    HW213272  14.588   8.915  11.034
 3814SOL     OW13273   2.311  14.157  11.221
 3814SOL    HW113274   2.222  14.191  11.215
 3814SOL    HW213275   2.349  14.174  11.135
 3815SOL     OW13276  14.313  12.091   1.238
 3815SOL    HW113277  14.302  12.145   1.160
 3815SOL    HW213278  14.386  12.132   1.285
 3816SOL     OW13279   7.058   4.856   6.521
 3816SOL    HW113280   7.123   4.799   6.562
 3816SOL    HW213281   6.981   4.849   6.577
 3817SOL     OW13282   0.699  10.999   3.508
 3817SOL    HW113283   0.747  11.070   3.466
 3817SOL    HW213284   0.644  11.042   3.573
 3818SOL     OW13285  14.406   1.392   8.228
 3818SOL    HW113286  14.441   1.343   8.154
 3818SOL    HW213287  14.328   1.342   8.256
 3819SOL     OW13288   1.111   1.545   8.533
 3819SOL    HW113289   1.041   1.574   8.591
 3819SOL    HW213290   1.065   1.503   8.460
 3820SOL     OW13291   0.378   3.544  12.725
 3820SOL    HW113292   0.351   3.522  12.814
 3820SOL    HW213293   0.465   3.583  12.735
 3821SOL     OW13294   7.327   3.184   5.564
 3821SOL    HW113295   7.300   3.270   5.598
 3821SOL    HW213296   7.327   3.195   5.469
 3822SOL     OW13297  10.519   7.069  13.320
 3822SOL    HW113298  10.495   6.980  13.343
 3822SOL    HW213299  10.524   7.069  13.225
 3823SOL     OW13300   8.436   0.706  13.261
 3823SOL    HW113301   8.451   0.615  13.286
 3823SOL    HW213302   8.518   0.751  13.282
 3824SOL     OW13303   7.740   0.229   8.266
 3824SOL    HW113304   7.811   0.287   8.237
 3824SOL    HW213305   7.682   0.286   8.317
 3825SOL     OW13306   5.037   8.849  13.396
 3825SOL    HW113307   5.056   8.821  13.485
 3825SOL    HW213308   4.943   8.839  13.387
 3826SOL     OW13309  10.008   3.797   4.416
 3826SOL    HW113310   9.999   3.731   4.347
 3826SOL    HW213311   9.966   3.758   4.492
 3827SOL     OW13312  12.479   6.836  11.482
 3827SOL    HW113313  12.562   6.881  11.500
 3827SOL    HW213314  12.504   6.745  11.465
 3828SOL     OW13315   3.674   5.667  11.514
 3828SOL    HW113316   3.763   5.676  11.480
 3828SOL    HW213317   3.666   5.575  11.539
 3829SOL     OW13318   5.790   6.643   9.591
 3829SOL    HW113319   5.881   6.670   9.579
 3829SOL    HW213320   5.740   6.701   9.535
 3830SOL     OW13321  11.899  14.517  12.253
 3830SOL    HW113322  11.914  14.501  12.346
 3830SOL    HW213323  11.849  14.441  12.223
 3831SOL     OW13324   8.323   3.091  13.009
 3831SOL    HW113325   8.260   3.028  12.974
 3831SOL    HW213326   8.269   3.153  13.059
 3832SOL     OW13327   9.545   4.197   5.758
 3832SOL    HW113328   9.514   4.109   5.736
 3832SOL    HW213329   9.489   4.225   5.830
 3833SOL     OW13330   0.988   1.822   1.210
 3833SOL    HW113331   1.056   1.755   1.216
 3833SOL    HW213332   0.977   1.837   1.117
 3834SOL     OW13333   4.053   3.847   6.451
 3834SOL    HW113334   4.102   3.810   6.378
 3834SOL    HW213335   3.996   3.913   6.411
 3835SOL     OW13336  12.230   7.723  14.875
 3835SOL    HW113337  12.145   7.711   0.041
 3835SOL    HW213338  12.287   7.660   0.042
 3836SOL     OW13339  14.645   5.220  11.941
 3836SOL    HW113340  14.706   5.293  11.947
 3836SOL    HW213341  14.620   5.202  12.032
 3837SOL     OW13342   0.063   8.978   0.917
 3837SOL    HW113343   0.021   9.022   0.991
 3837SOL    HW213344   0.153   9.011   0.918
 3838SOL     OW13345  11.652   3.258  12.892
 3838SOL    HW113346  11.584   3.190  12.888
 3838SOL    HW213347  11.728   3.218  12.850
 3839SOL     OW13348   4.822   1.559   1.167
 3839SOL    HW113349   4.917   1.569   1.172
 3839SOL    HW213350   4.803   1.481   1.219
 3840SOL     OW13351  12.837   4.086  10.961
 3840SOL    HW113352  12.863   4.000  10.994
 3840SOL    HW213353  12.916   4.121  10.921
 3841SOL     OW13354  13.584  10.673   2.476
 3841SOL    HW113355  13.551  10.721   2.399
 3841SOL    HW213356  13.505  10.644   2.521
 3842SOL     OW13357   7.649  11.588   3.400
 3842SOL    HW113358   7.706  11.514   3.380
 3842SOL    HW213359   7.667  11.651   3.331
 3843SOL     OW13360   1.761   0.475   0.127
 3843SOL    HW113361   1.838   0.461   0.182
 3843SOL    HW213362   1.732   0.387   0.103
 3844SOL     OW13363  13.872   2.013   0.482
 3844SOL    HW113364  13.855   2.090   0.535
 3844SOL    HW213365  13.786   1.985   0.450
 3845SOL     OW13366   3.010  10.956   9.239
 3845SOL    HW113367   2.967  11.004   9.168
 3845SOL    HW213368   2.941  10.941   9.304
 3846SOL     OW13369   8.587   9.577   8.365
 3846SOL    HW113370   8.500   9.552   8.332
 3846SOL    HW213371   8.600   9.521   8.441
 3847SOL     OW13372  11.623  13.906   8.119
 3847SOL    HW113373  11.639  13.846   8.192
 3847SOL    HW213374  11.571  13.977   8.158
 3848SOL     OW13375   6.781  12.473  13.444
 3848SOL    HW113376   6.806  12.381  13.455
 3848SOL    HW213377   6.748  12.478  13.354
 3849SOL     OW13378   2.648   9.322   0.081
 3849SOL    HW113379   2.576   9.332   0.143
 3849SOL    HW213380   2.647   9.230   0.058
 3850SOL     OW13381   7.026   2.951   8.557
 3850SOL    HW113382   7.091   2.916   8.618
 3850SOL    HW213383   7.074   2.967   8.476
 3851SOL     OW13384  12.110   0.672   6.600
 3851SOL    HW113385  12.161   0.661   6.520
 3851SOL    HW213386  12.170   0.717   6.661
 3852SOL     OW13387   3.484  10.469  12.560
 3852SOL    HW113388   3.516  10.415  12.487
 3852SOL    HW213389   3.395  10.494  12.535
 3853SOL     OW13390   6.311   1.647   4.256
 3853SOL    HW113391   6.302   1.730   4.303
 3853SOL    HW213392   6.323   1.672   4.165
 3854SOL     OW13393  13.962   7.890  10.540
 3854SOL    HW113394  13.943   7.947  10.465
 3854SOL    HW213395  13.881   7.840  10.553
 3855SOL     OW13396   8.546   4.379   8.573
 3855SOL    HW113397   8.558   4.375   8.478
 3855SOL    HW213398   8.630   4.349   8.608
 3856SOL     OW13399   9.602   3.911   9.496
 3856SOL    HW113400   9.672   3.846   9.501
 3856SOL    HW213401   9.537   3.873   9.437
 3857SOL     OW13402   4.503   6.763   5.632
 3857SOL    HW113403   4.542   6.802   5.554
 3857SOL    HW213404   4.430   6.711   5.598
 3858SOL     OW13405  10.093   3.076   5.039
 3858SOL    HW113406  10.017   3.062   5.096
 3858SOL    HW213407  10.164   3.099   5.099
 3859SOL     OW13408   2.152  12.747  11.872
 3859SOL    HW113409   2.138  12.658  11.840
 3859SOL    HW213410   2.244  12.749  11.897
 3860SOL     OW13411   3.692   2.106   3.494
 3860SOL    HW113412   3.678   2.028   3.547
 3860SOL    HW213413   3.693   2.178   3.557
 3861SOL     OW13414   9.577   7.611   6.264
 3861SOL    HW113415   9.550   7.539   6.321
 3861SOL    HW213416   9.573   7.574   6.176
 3862SOL     OW13417   2.645   8.179   5.869
 3862SOL    HW113418   2.668   8.252   5.811
 3862SOL    HW213419   2.550   8.174   5.865
 3863SOL     OW13420  12.687   9.862   0.420
 3863SOL    HW113421  12.672   9.791   0.357
 3863SOL    HW213422  12.619   9.926   0.400
 3864SOL     OW13423   8.681  14.779  10.589
 3864SOL    HW113424   8.774  14.787  10.567
 3864SOL    HW213425   8.670  14.834  10.667
 3865SOL     OW13426   8.465   4.614   6.763
 3865SOL    HW113427   8.385   4.562   6.756
 3865SOL    HW213428   8.443   4.698   6.724
 3866SOL     OW13429   1.880   1.610   2.180
 3866SOL    HW113430   1.806   1.667   2.202
 3866SOL    HW213431   1.924   1.655   2.109
 3867SOL     OW13432  12.143   1.513   6.999
 3867SOL    HW113433  12.082   1.567   7.051
 3867SOL    HW213434  12.088   1.475   6.931
 3868SOL     OW13435   7.706   7.316  12.661
 3868SOL    HW113436   7.644   7.309  12.589
 3868SOL    HW213437   7.778   7.368  12.625
 3869SOL     OW13438   0.517   6.790   8.338
 3869SOL    HW113439   0.436   6.750   8.307
 3869SOL    HW213440   0.555   6.724   8.397
 3870SOL     OW13441   8.470   8.807   0.955
 3870SOL    HW113442   8.448   8.895   0.926
 3870SOL    HW213443   8.548   8.784   0.905
 3871SOL     OW13444   0.995   6.504   8.973
 3871SOL    HW113445   1.026   6.425   8.929
 3871SOL    HW213446   1.069   6.565   8.966
 3872SOL     OW13447   9.602   4.571   3.094
 3872SOL    HW113448   9.626   4.620   3.015
 3872SOL    HW213449   9.617   4.633   3.166
 3873SOL     OW13450  10.243   8.587  11.437
 3873SOL    HW113451  10.280   8.671  11.465
 3873SOL    HW213452  10.310   8.551  11.378
 3874SOL     OW13453   0.240  12.957   3.332
 3874SOL    HW113454   0.190  12.960   3.414
 3874SOL    HW213455   0.261  13.049   3.313
 3875SOL     OW13456  12.945   6.989   8.699
 3875SOL    HW113457  12.982   6.920   8.753
 3875SOL    HW213458  12.850   6.975   8.702
 3876SOL     OW13459   9.424  14.828  11.154
 3876SOL    HW113460   9.415   0.039  11.116
 3876SOL    HW213461   9.401  14.768  11.083
 3877SOL     OW13462   3.521   0.827   9.705
 3877SOL    HW113463   3.440   0.817   9.755
 3877SOL    HW213464   3.507   0.774   9.626
 3878SOL     OW13465   3.668  12.527   7.888
 3878SOL    HW113466   3.681  12.621   7.902
 3878SOL    HW213467   3.585  12.508   7.932
 3879SOL     OW13468   6.002   3.922   6.130
 3879SOL    HW113469   6.088   3.880   6.140
 3879SOL    HW213470   5.943   3.871   6.185
 3880SOL     OW13471  14.583   5.248   7.187
 3880SOL    HW113472  14.610   5.297   7.109
 3880SOL    HW213473  14.650   5.181   7.198
 3881SOL     OW13474  10.834   9.657   2.749
 3881SOL    HW113475  10.766   9.608   2.796
 3881SOL    HW213476  10.810   9.646   2.656
 3882SOL     OW13477   2.361   7.236  12.066
 3882SOL    HW113478   2.314   7.157  12.038
 3882SOL    HW213479   2.405   7.210  12.146
 3883SOL     OW13480  14.010   2.171   5.117
 3883SOL    HW113481  13.966   2.090   5.091
 3883SOL    HW213482  14.002   2.228   5.040
 3884SOL     OW13483   7.758   0.615   3.344
 3884SOL    HW113484   7.715   0.596   3.428
 3884SOL    HW213485   7.757   0.711   3.338
 3885SOL     OW13486   6.884   2.408   8.574
 3885SOL    HW113487   6.957   2.384   8.631
 3885SOL    HW213488   6.862   2.498   8.599
 3886SOL     OW13489   2.975  10.561   5.508
 3886SOL    HW113490   3.046  10.536   5.566
 3886SOL    HW213491   2.901  10.506   5.535
 3887SOL     OW13492   9.670   8.923   5.684
 3887SOL    HW113493   9.600   8.983   5.659
 3887SOL    HW213494   9.637   8.836   5.659
 3888SOL     OW13495   3.726   2.197   5.714
 3888SOL    HW113496   3.639   2.167   5.688
 3888SOL    HW213497   3.781   2.181   5.637
 3889SOL     OW13498  12.348   4.206  13.240
 3889SOL    HW113499  12.406   4.192  13.165
 3889SOL    HW213500  12.333   4.118  13.275
 3890SOL     OW13501   2.368   4.137  12.723
 3890SOL    HW113502   2.373   4.186  12.805
 3890SOL    HW213503   2.455   4.098  12.713
 3891SOL     OW13504   4.220  13.519   0.112
 3891SOL    HW113505   4.142  13.570   0.135
 3891SOL    HW213506   4.186  13.439   0.072
 3892SOL     OW13507   6.098   1.843   3.964
 3892SOL    HW113508   6.063   1.854   3.876
 3892SOL    HW213509   6.137   1.755   3.964
 3893SOL     OW13510   9.605   1.814   6.016
 3893SOL    HW113511   9.594   1.909   6.004
 3893SOL    HW213512   9.548   1.794   6.090
 3894SOL     OW13513   2.101  11.400   6.873
 3894SOL    HW113514   2.020  11.420   6.824
 3894SOL    HW213515   2.111  11.473   6.933
 3895SOL     OW13516   3.887   1.385   7.464
 3895SOL    HW113517   3.882   1.382   7.560
 3895SOL    HW213518   3.867   1.476   7.442
 3896SOL     OW13519   9.890   1.883   1.484
 3896SOL    HW113520   9.953   1.902   1.554
 3896SOL    HW213521   9.850   1.968   1.464
 3897SOL     OW13522  13.856   7.142   5.004
 3897SOL    HW113523  13.932   7.197   4.986
 3897SOL    HW213524  13.789   7.203   5.037
 3898SOL     OW13525  11.915  11.360   8.279
 3898SOL    HW113526  11.948  11.345   8.190
 3898SOL    HW213527  11.891  11.453   8.279
 3899SOL     OW13528   7.922   2.103   2.313
 3899SOL    HW113529   7.971   2.155   2.377
 3899SOL    HW213530   7.834   2.095   2.351
 3900SOL     OW13531  11.186   8.583   9.570
 3900SOL    HW113532  11.171   8.571   9.664
 3900SOL    HW213533  11.279   8.602   9.563
 3901SOL     OW13534   0.101   9.687   5.365
 3901SOL    HW113535   0.007   9.687   5.347
 3901SOL    HW213536   0.113   9.757   5.429
 3902SOL     OW13537   9.612  11.408   8.731
 3902SOL    HW113538   9.541  11.425   8.670
 3902SOL    HW213539   9.635  11.316   8.715
 3903SOL     OW13540   7.821   0.852   0.392
 3903SOL    HW113541   7.766   0.800   0.450
 3903SOL    HW213542   7.908   0.848   0.431
 3904SOL     OW13543  10.687  10.422  10.726
 3904SOL    HW113544  10.628  10.389  10.794
 3904SOL    HW213545  10.640  10.496  10.688
 3905SOL     OW13546  10.323   0.897   3.235
 3905SOL    HW113547  10.369   0.833   3.181
 3905SOL    HW213548  10.370   0.898   3.318
 3906SOL     OW13549   0.975   3.661  12.679
 3906SOL    HW113550   0.970   3.734  12.618
 3906SOL    HW213551   1.061   3.623  12.663
 3907SOL     OW13552   4.040   1.365   5.773
 3907SOL    HW113553   4.093   1.413   5.837
 3907SOL    HW213554   4.096   1.292   5.746
 3908SOL     OW13555   7.245  10.598   0.762
 3908SOL    HW113556   7.283  10.670   0.711
 3908SOL    HW213557   7.304  10.588   0.837
 3909SOL     OW13558   0.439  12.179   9.258
 3909SOL    HW113559   0.357  12.154   9.216
 3909SOL    HW213560   0.426  12.161   9.351
 3910SOL     OW13561  11.510  11.381   3.264
 3910SOL    HW113562  11.605  11.370   3.254
 3910SOL    HW213563  11.500  11.468   3.303
 3911SOL     OW13564   6.806   9.527   4.607
 3911SOL    HW113565   6.901   9.536   4.606
 3911SOL    HW213566   6.791   9.435   4.584
 3912SOL     OW13567   9.064   0.905   4.096
 3912SOL    HW113568   9.044   0.883   4.187
 3912SOL    HW213569   8.996   0.860   4.045
 3913SOL     OW13570   1.639   9.140   5.494
 3913SOL    HW113571   1.573   9.093   5.442
 3913SOL    HW213572   1.723   9.107   5.462
 3914SOL     OW13573   8.551   4.063   9.029
 3914SOL    HW113574   8.609   4.032   8.959
 3914SOL    HW213575   8.556   4.159   9.023
 3915SOL     OW13576  14.394  13.815  10.827
 3915SOL    HW113577  14.354  13.797  10.742
 3915SOL    HW213578  14.322  13.808  10.889
 3916SOL     OW13579   5.751  14.364   8.749
 3916SOL    HW113580   5.815  14.311   8.797
 3916SOL    HW213581   5.804  14.421   8.693
 3917SOL     OW13582  10.643   6.991   8.133
 3917SOL    HW113583  10.554   6.998   8.099
 3917SOL    HW213584  10.655   7.070   8.186
 3918SOL     OW13585   9.289  11.599   2.004
 3918SOL    HW113586   9.208  11.548   2.001
 3918SOL    HW213587   9.312  11.613   1.912
 3919SOL     OW13588  12.819   6.808  11.686
 3919SOL    HW113589  12.835   6.868  11.759
 3919SOL    HW213590  12.802   6.865  11.611
 3920SOL     OW13591   4.513   5.462  10.957
 3920SOL    HW113592   4.555   5.525  11.015
 3920SOL    HW213593   4.510   5.505  10.871
 3921SOL     OW13594  11.705   9.980   4.723
 3921SOL    HW113595  11.768   9.908   4.714
 3921SOL    HW213596  11.760  10.058   4.736
 3922SOL     OW13597   8.997   4.112   1.935
 3922SOL    HW113598   9.091   4.102   1.919
 3922SOL    HW213599   8.955   4.059   1.868
 3923SOL     OW13600   6.411   7.079   5.562
 3923SOL    HW113601   6.441   7.156   5.609
 3923SOL    HW213602   6.338   7.046   5.614
 3924SOL     OW13603  12.086  11.387   1.186
 3924SOL    HW113604  12.022  11.320   1.210
 3924SOL    HW213605  12.067  11.407   1.094
 3925SOL     OW13606  11.964  14.617  13.055
 3925SOL    HW113607  11.937  14.693  13.107
 3925SOL    HW213608  11.975  14.547  13.118
 3926SOL     OW13609  11.560   8.855  12.161
 3926SOL    HW113610  11.646   8.831  12.126
 3926SOL    HW213611  11.513   8.894  12.088
 3927SOL     OW13612  14.182   2.995   5.707
 3927SOL    HW113613  14.133   3.071   5.673
 3927SOL    HW213614  14.196   3.017   5.799
 3928SOL     OW13615   8.175   4.008   2.558
 3928SOL    HW113616   8.094   3.985   2.604
 3928SOL    HW213617   8.227   4.055   2.623
 3929SOL     OW13618  14.441  10.252   7.980
 3929SOL    HW113619  14.352  10.276   7.953
 3929SOL    HW213620  14.447  10.159   7.963
 3930SOL     OW13621   0.000   4.653  12.503
 3930SOL    HW113622   0.054   4.605  12.567
 3930SOL    HW213623  14.829   4.717  12.556
 3931SOL     OW13624   3.417   4.561  11.034
 3931SOL    HW113625   3.502   4.589  11.067
 3931SOL    HW213626   3.372   4.525  11.110
 3932SOL     OW13627   5.966   8.421  12.057
 3932SOL    HW113628   5.942   8.351  11.996
 3932SOL    HW213629   6.054   8.399  12.086
 3933SOL     OW13630   2.367  10.610   9.292
 3933SOL    HW113631   2.328  10.574   9.371
 3933SOL    HW213632   2.310  10.683   9.267
 3934SOL     OW13633   2.015  11.363   1.272
 3934SOL    HW113634   2.026  11.412   1.190
 3934SOL    HW213635   2.048  11.421   1.340
 3935SOL     OW13636  13.536  10.205   9.305
 3935SOL    HW113637  13.606  10.188   9.368
 3935SOL    HW213638  13.515  10.118   9.269
 3936SOL     OW13639   6.489  11.456  13.407
 3936SOL    HW113640   6.578  11.457  13.372
 3936SOL    HW213641   6.470  11.547  13.426
 3937SOL     OW13642   2.875   1.317   3.640
 3937SOL    HW113643   2.868   1.263   3.561
 3937SOL    HW213644   2.889   1.406   3.607
 3938SOL     OW13645  10.492   6.718  11.681
 3938SOL    HW113646  10.579   6.714  11.642
 3938SOL    HW213647  10.450   6.793  11.638
 3939SOL     OW13648   3.484  12.884   0.951
 3939SOL    HW113649   3.456  12.792   0.956
 3939SOL    HW213650   3.423  12.930   1.009
 3940SOL     OW13651   6.758   6.196   7.031
 3940SOL    HW113652   6.740   6.112   7.072
 3940SOL    HW213653   6.733   6.184   6.939
 3941SOL     OW13654   7.468   3.408  13.637
 3941SOL    HW113655   7.433   3.434  13.552
 3941SOL    HW213656   7.393   3.412  13.696
 3942SOL     OW13657   9.935   3.410   0.401
 3942SOL    HW113658   9.904   3.480   0.458
 3942SOL    HW213659   9.907   3.329   0.444
 3943SOL     OW13660   7.906   5.636   9.535
 3943SOL    HW113661   7.907   5.673   9.624
 3943SOL    HW213662   7.862   5.551   9.545
 3944SOL     OW13663   9.931   8.026   0.878
 3944SOL    HW113664   9.976   8.025   0.794
 3944SOL    HW213665   9.842   8.055   0.857
 3945SOL     OW13666   8.807   1.036   4.519
 3945SOL    HW113667   8.735   1.081   4.564
 3945SOL    HW213668   8.769   0.953   4.489
 3946SOL     OW13669   2.672   6.957   1.092
 3946SOL    HW113670   2.750   6.910   1.121
 3946SOL    HW213671   2.705   7.040   1.056
 3947SOL     OW13672   0.511   0.411   6.732
 3947SOL    HW113673   0.530   0.353   6.657
 3947SOL    HW213674   0.432   0.374   6.771
 3948SOL     OW13675   9.647  10.802   1.528
 3948SOL    HW113676   9.679  10.890   1.548
 3948SOL    HW213677   9.553  10.807   1.543
 3949SOL     OW13678   0.577   9.967   9.256
 3949SOL    HW113679   0.590  10.018   9.176
 3949SOL    HW213680   0.630  10.011   9.322
 3950SOL     OW13681   5.824   7.463   4.494
 3950SOL    HW113682   5.777   7.410   4.430
 3950SOL    HW213683   5.755   7.497   4.552
 3951SOL     OW13684   7.916  12.756   3.908
 3951SOL    HW113685   7.986  12.811   3.873
 3951SOL    HW213686   7.948  12.728   3.994
 3952SOL     OW13687   8.295  10.681   5.028
 3952SOL    HW113688   8.378  10.643   4.999
 3952SOL    HW213689   8.320  10.760   5.075
 3953SOL     OW13690   7.452  14.594   7.195
 3953SOL    HW113691   7.469  14.502   7.215
 3953SOL    HW213692   7.356  14.601   7.190
 3954SOL     OW13693   2.957  13.704   4.833
 3954SOL    HW113694   2.973  13.672   4.921
 3954SOL    HW213695   2.876  13.755   4.840
 3955SOL     OW13696   6.053   8.448   0.895
 3955SOL    HW113697   6.060   8.379   0.828
 3955SOL    HW213698   6.059   8.530   0.845
 3956SOL     OW13699   3.168   7.759   9.790
 3956SOL    HW113700   3.196   7.851   9.789
 3956SOL    HW213701   3.130   7.745   9.703
 3957SOL     OW13702  12.906  12.644   4.010
 3957SOL    HW113703  12.982  12.702   4.020
 3957SOL    HW213704  12.905  12.592   4.090
 3958SOL     OW13705  14.123   5.649   1.002
 3958SOL    HW113706  14.066   5.695   1.064
 3958SOL    HW213707  14.074   5.651   0.920
 3959SOL     OW13708   3.627   4.329   3.104
 3959SOL    HW113709   3.554   4.391   3.105
 3959SOL    HW213710   3.617   4.282   3.021
 3960SOL     OW13711  10.760   5.650  10.396
 3960SOL    HW113712  10.668   5.634  10.372
 3960SOL    HW213713  10.759   5.659  10.491
 3961SOL     OW13714   4.816   7.802   4.907
 3961SOL    HW113715   4.868   7.750   4.969
 3961SOL    HW213716   4.845   7.892   4.920
 3962SOL     OW13717   4.749   0.910   4.123
 3962SOL    HW113718   4.813   0.979   4.141
 3962SOL    HW213719   4.777   0.872   4.040
 3963SOL     OW13720   3.537   1.799   6.011
 3963SOL    HW113721   3.447   1.801   6.043
 3963SOL    HW213722   3.529   1.821   5.918
 3964SOL     OW13723   2.523  12.988   9.608
 3964SOL    HW113724   2.604  12.979   9.557
 3964SOL    HW213725   2.550  12.978   9.699
 3965SOL     OW13726  14.347  10.821  12.730
 3965SOL    HW113727  14.321  10.734  12.700
 3965SOL    HW213728  14.305  10.881  12.668
 3966SOL     OW13729   7.488   9.391   1.548
 3966SOL    HW113730   7.529   9.313   1.510
 3966SOL    HW213731   7.562   9.446   1.575
 3967SOL     OW13732   5.215   7.485   7.878
 3967SOL    HW113733   5.303   7.494   7.912
 3967SOL    HW213734   5.197   7.568   7.835
 3968SOL     OW13735   4.055   9.248   6.146
 3968SOL    HW113736   4.039   9.161   6.181
 3968SOL    HW213737   4.068   9.303   6.223
 3969SOL     OW13738  13.858   3.563   2.492
 3969SOL    HW113739  13.786   3.571   2.554
 3969SOL    HW213740  13.816   3.540   2.409
 3970SOL     OW13741  12.647  10.887  14.374
 3970SOL    HW113742  12.562  10.899  14.331
 3970SOL    HW213743  12.689  10.973  14.369
 3971SOL     OW13744   0.551   8.795  14.195
 3971SOL    HW113745   0.520   8.707  14.217
 3971SOL    HW213746   0.482   8.832  14.140
 3972SOL     OW13747  10.943   0.217   3.288
 3972SOL    HW113748  11.035   0.237   3.302
 3972SOL    HW213749  10.938   0.121   3.295
 3973SOL     OW13750   0.198   1.133   5.537
 3973SOL    HW113751   0.258   1.196   5.579
 3973SOL    HW213752   0.237   1.048   5.555
 3974SOL     OW13753  11.289   0.708  11.214
 3974SOL    HW113754  11.265   0.710  11.307
 3974SOL    HW213755  11.212   0.741  11.168
 3975SOL     OW13756  13.446  13.281   7.131
 3975SOL    HW113757  13.377  13.259   7.193
 3975SOL    HW213758  13.498  13.201   7.123
 3976SOL     OW13759   9.342   8.315   3.150
 3976SOL    HW113760   9.388   8.232   3.140
 3976SOL    HW213761   9.298   8.329   3.066
 3977SOL     OW13762   5.545   6.523  10.153
 3977SOL    HW113763   5.456   6.493  10.138
 3977SOL    HW213764   5.549   6.610  10.113
 3978SOL     OW13765   2.152  13.514   6.950
 3978SOL    HW113766   2.079  13.575   6.942
 3978SOL    HW213767   2.156  13.469   6.866
 3979SOL     OW13768   5.703  13.710   1.046
 3979SOL    HW113769   5.683  13.783   1.104
 3979SOL    HW213770   5.786  13.675   1.079
 3980SOL     OW13771  13.783   1.441   4.339
 3980SOL    HW113772  13.718   1.509   4.323
 3980SOL    HW213773  13.833   1.435   4.258
 3981SOL     OW13774  14.419  11.016  11.121
 3981SOL    HW113775  14.468  10.935  11.114
 3981SOL    HW213776  14.370  11.022  11.039
 3982SOL     OW13777   0.568   0.886   5.429
 3982SOL    HW113778   0.575   0.918   5.339
 3982SOL    HW213779   0.597   0.960   5.483
 3983SOL     OW13780  11.018   6.767   9.760
 3983SOL    HW113781  11.092   6.780   9.699
 3983SOL    HW213782  11.059   6.735   9.840
 3984SOL     OW13783   1.828   4.681   9.358
 3984SOL    HW113784   1.880   4.709   9.433
 3984SOL    HW213785   1.891   4.675   9.286
 3985SOL     OW13786   1.495   2.627  10.415
 3985SOL    HW113787   1.477   2.565  10.345
 3985SOL    HW213788   1.540   2.699  10.372
 3986SOL     OW13789  11.833   1.977  10.969
 3986SOL    HW113790  11.897   1.989  11.039
 3986SOL    HW213791  11.756   1.940  11.012
 3987SOL     OW13792   3.688   0.021   7.778
 3987SOL    HW113793   3.665  14.817   7.825
 3987SOL    HW213794   3.605   0.068   7.767
 3988SOL     OW13795  12.838  10.286  12.845
 3988SOL    HW113796  12.887  10.347  12.789
 3988SOL    HW213797  12.804  10.221  12.784
 3989SOL     OW13798  12.392   7.726   5.402
 3989SOL    HW113799  12.444   7.724   5.482
 3989SOL    HW213800  12.342   7.808   5.407
 3990SOL     OW13801  14.172   8.964   3.675
 3990SOL    HW113802  14.077   8.952   3.673
 3990SOL    HW213803  14.202   8.907   3.746
 3991SOL     OW13804  14.052   7.496   9.392
 3991SOL    HW113805  13.971   7.461   9.353
 3991SOL    HW213806  14.038   7.590   9.396
 3992SOL     OW13807  13.124   1.024   6.138
 3992SOL    HW113808  13.044   0.981   6.168
 3992SOL    HW213809  13.099   1.062   6.053
 3993SOL     OW13810   4.973  11.816   6.252
 3993SOL    HW113811   4.956  11.725   6.277
 3993SOL    HW213812   4.887  11.857   6.251
 3994SOL     OW13813   3.260   1.154   1.451
 3994SOL    HW113814   3.188   1.126   1.394
 3994SOL    HW213815   3.271   1.081   1.512
 3995SOL     OW13816  11.058   9.189   1.127
 3995SOL    HW113817  10.980   9.139   1.151
 3995SOL    HW213818  11.089   9.147   1.047
 3996SOL     OW13819  11.597   5.093   8.625
 3996SOL    HW113820  11.688   5.108   8.652
 3996SOL    HW213821  11.550   5.169   8.659
 3997SOL     OW13822   6.180   0.864   7.473
 3997SOL    HW113823   6.184   0.801   7.401
 3997SOL    HW213824   6.118   0.826   7.535
 3998SOL     OW13825   4.392   4.843   6.079
 3998SOL    HW113826   4.453   4.898   6.029
 3998SOL    HW213827   4.351   4.903   6.141
 3999SOL     OW13828   6.345  13.478   3.756
 3999SOL    HW113829   6.370  13.389   3.734
 3999SOL    HW213830   6.259  13.489   3.716
 4000SOL     OW13831  13.009   4.305   0.418
 4000SOL    HW113832  12.935   4.363   0.435
 4000SOL    HW213833  12.978   4.218   0.446
 4001SOL     OW13834   4.071   1.994   2.111
 4001SOL    HW113835   4.008   1.985   2.040
 4001SOL    HW213836   4.120   1.912   2.111
 4002SOL     OW13837  11.797  13.258  11.165
 4002SOL    HW113838  11.877  13.244  11.115
 4002SOL    HW213839  11.756  13.172  11.171
 4003SOL     OW13840   7.026   1.150   4.832
 4003SOL    HW113841   7.109   1.156   4.880
 4003SOL    HW213842   7.032   1.066   4.786
 4004SOL     OW13843   8.797   9.951   0.124
 4004SOL    HW113844   8.786  10.046   0.136
 4004SOL    HW213845   8.824   9.919   0.211
 4005SOL     OW13846   3.668   7.214   1.663
 4005SOL    HW113847   3.696   7.129   1.631
 4005SOL    HW213848   3.592   7.237   1.608
 4006SOL     OW13849  14.278  12.599   0.373
 4006SOL    HW113850  14.280  12.558   0.287
 4006SOL    HW213851  14.359  12.649   0.378
 4007SOL     OW13852   2.471  10.407   3.676
 4007SOL    HW113853   2.381  10.375   3.669
 4007SOL    HW213854   2.486  10.415   3.770
 4008SOL     OW13855   2.318   6.328  14.227
 4008SOL    HW113856   2.308   6.374  14.310
 4008SOL    HW213857   2.392   6.268  14.241
 4009SOL     OW13858   3.479  11.326   5.288
 4009SOL    HW113859   3.442  11.376   5.361
 4009SOL    HW213860   3.574  11.331   5.303
 4010SOL     OW13861  13.390  12.654   2.052
 4010SOL    HW113862  13.391  12.645   2.147
 4010SOL    HW213863  13.454  12.723   2.034
 4011SOL     OW13864   1.771   0.090  13.717
 4011SOL    HW113865   1.715   0.054  13.648
 4011SOL    HW213866   1.845   0.129  13.670
 4012SOL     OW13867   3.380   4.890   6.400
 4012SOL    HW113868   3.447   4.941   6.354
 4012SOL    HW213869   3.300   4.942   6.392
 4013SOL     OW13870   9.490   5.529  10.290
 4013SOL    HW113871   9.406   5.498  10.258
 4013SOL    HW213872   9.517   5.596  10.226
 4014SOL     OW13873   7.560   0.240  14.256
 4014SOL    HW113874   7.474   0.197  14.247
 4014SOL    HW213875   7.570   0.253  14.350
 4015SOL     OW13876   0.315   6.112   2.195
 4015SOL    HW113877   0.252   6.057   2.148
 4015SOL    HW213878   0.272   6.198   2.201
 4016SOL     OW13879  14.735  10.098  14.730
 4016SOL    HW113880  14.795  10.037  14.686
 4016SOL    HW213881  14.702  10.049  14.806
 4017SOL     OW13882   9.801   9.698   1.859
 4017SOL    HW113883   9.882   9.742   1.830
 4017SOL    HW213884   9.731   9.745   1.814
 4018SOL     OW13885   4.145   4.013   6.100
 4018SOL    HW113886   4.228   4.060   6.103
 4018SOL    HW213887   4.165   3.927   6.136
 4019SOL     OW13888  14.131   2.521   8.796
 4019SOL    HW113889  14.179   2.445   8.830
 4019SOL    HW213890  14.046   2.485   8.770
 4020SOL     OW13891  11.609   1.019  14.554
 4020SOL    HW113892  11.532   1.064  14.518
 4020SOL    HW213893  11.607   0.932  14.514
 4021SOL     OW13894   2.488   5.859  14.593
 4021SOL    HW113895   2.419   5.793  14.588
 4021SOL    HW213896   2.530   5.857  14.507
 4022SOL     OW13897   3.284   5.233   6.462
 4022SOL    HW113898   3.353   5.211   6.399
 4022SOL    HW213899   3.329   5.279   6.532
 4023SOL     OW13900   8.046   4.400   3.386
 4023SOL    HW113901   8.050   4.486   3.428
 4023SOL    HW213902   8.125   4.355   3.414
 4024SOL     OW13903   9.464  12.677   4.758
 4024SOL    HW113904   9.491  12.766   4.784
 4024SOL    HW213905   9.369  12.679   4.763
 4025SOL     OW13906  14.398   9.521   3.919
 4025SOL    HW113907  14.458   9.448   3.906
 4025SOL    HW213908  14.325   9.503   3.859
 4026SOL     OW13909   3.821  11.743   7.627
 4026SOL    HW113910   3.846  11.653   7.609
 4026SOL    HW213911   3.860  11.763   7.712
 4027SOL     OW13912   3.995   8.228  10.414
 4027SOL    HW113913   3.923   8.171  10.386
 4027SOL    HW213914   4.008   8.288  10.342
 4028SOL     OW13915   5.981  14.512  12.734
 4028SOL    HW113916   5.905  14.522  12.792
 4028SOL    HW213917   5.951  14.546  12.650
 4029SOL     OW13918   8.017   5.892  11.677
 4029SOL    HW113919   7.967   5.880  11.597
 4029SOL    HW213920   8.109   5.886  11.649
 4030SOL     OW13921   5.624   3.284   2.618
 4030SOL    HW113922   5.578   3.200   2.625
 4030SOL    HW213923   5.604   3.314   2.529
 4031SOL     OW13924  12.398   6.245  13.510
 4031SOL    HW113925  12.359   6.186  13.447
 4031SOL    HW213926  12.324   6.289  13.552
 4032SOL     OW13927   7.566   3.861   3.898
 4032SOL    HW113928   7.656   3.853   3.927
 4032SOL    HW213929   7.542   3.774   3.868
 4033SOL     OW13930   8.871  14.413  13.366
 4033SOL    HW113931   8.911  14.335  13.404
 4033SOL    HW213932   8.829  14.381  13.286
 4034SOL     OW13933   3.297   1.308   3.304
 4034SOL    HW113934   3.387   1.339   3.294
 4034SOL    HW213935   3.302   1.241   3.373
 4035SOL     OW13936   6.184   6.391   7.446
 4035SOL    HW113937   6.223   6.320   7.396
 4035SOL    HW213938   6.089   6.380   7.435
 4036SOL     OW13939   5.267   1.943   0.102
 4036SOL    HW113940   5.183   1.899   0.086
 4036SOL    HW213941   5.259   2.027   0.057
 4037SOL     OW13942   4.888   1.130  10.007
 4037SOL    HW113943   4.970   1.147  10.053
 4037SOL    HW213944   4.915   1.109   9.918
 4038SOL     OW13945   2.142   9.147   8.088
 4038SOL    HW113946   2.163   9.060   8.122
 4038SOL    HW213947   2.191   9.154   8.006
 4039SOL     OW13948  13.477  10.526  11.291
 4039SOL    HW113949  13.537  10.592  11.329
 4039SOL    HW213950  13.511  10.512  11.203
 4040SOL     OW13951  13.627   5.591   0.420
 4040SOL    HW113952  13.589   5.680   0.418
 4040SOL    HW213953  13.560   5.538   0.463
 4041SOL     OW13954   2.887   3.808  12.180
 4041SOL    HW113955   2.829   3.835  12.251
 4041SOL    HW213956   2.944   3.742  12.218
 4042SOL     OW13957  13.011   2.313   5.527
 4042SOL    HW113958  13.028   2.320   5.433
 4042SOL    HW213959  13.094   2.286   5.565
 4043SOL     OW13960   2.311   2.198   8.369
 4043SOL    HW113961   2.276   2.197   8.280
 4043SOL    HW213962   2.255   2.259   8.417
 4044SOL     OW13963   5.477   8.255   0.355
 4044SOL    HW113964   5.551   8.308   0.384
 4044SOL    HW213965   5.516   8.175   0.320
 4045SOL     OW13966   5.276  14.211   7.920
 4045SOL    HW113967   5.240  14.166   7.996
 4045SOL    HW213968   5.241  14.165   7.845
 4046SOL     OW13969   3.096  12.147  12.843
 4046SOL    HW113970   3.050  12.227  12.871
 4046SOL    HW213971   3.121  12.165  12.753
 4047SOL     OW13972   8.388   9.007  11.743
 4047SOL    HW113973   8.318   9.069  11.764
 4047SOL    HW213974   8.351   8.951  11.674
 4048SOL     OW13975  13.567   8.878   6.995
 4048SOL    HW113976  13.544   8.808   6.933
 4048SOL    HW213977  13.483   8.908   7.029
 4049SOL     OW13978  11.731  14.711   8.062
 4049SOL    HW113979  11.722  14.800   8.026
 4049SOL    HW213980  11.801  14.718   8.126
 4050SOL     OW13981   8.100   2.944   8.799
 4050SOL    HW113982   8.020   2.911   8.757
 4050SOL    HW213983   8.112   2.887   8.875
 4051SOL     OW13984  14.803   9.519   9.056
 4051SOL    HW113985  14.869   9.490   9.119
 4051SOL    HW213986  14.839   9.495   8.970
 4052SOL     OW13987   4.190  13.253   5.435
 4052SOL    HW113988   4.170  13.194   5.363
 4052SOL    HW213989   4.283  13.274   5.424
 4053SOL     OW13990   2.153  11.694  10.387
 4053SOL    HW113991   2.075  11.749  10.401
 4053SOL    HW213992   2.118  11.610  10.357
 4054SOL     OW13993   4.690   5.674   4.233
 4054SOL    HW113994   4.731   5.620   4.301
 4054SOL    HW213995   4.611   5.709   4.275
 4055SOL     OW13996  10.208  10.766   6.633
 4055SOL    HW113997  10.191  10.855   6.663
 4055SOL    HW213998  10.200  10.712   6.712
 4056SOL     OW13999   6.316  10.526   0.188
 4056SOL    HW114000   6.370  10.575   0.126
 4056SOL    HW214001   6.379  10.484   0.246
 4057SOL     OW14002   8.915   4.291  13.981
 4057SOL    HW114003   8.858   4.322  13.911
 4057SOL    HW214004   8.855   4.274  14.054
 4058SOL     OW14005  14.237   9.976   3.011
 4058SOL    HW114006  14.256   9.911   2.944
 4058SOL    HW214007  14.217   9.925   3.090
 4059SOL     OW14008  12.795   7.210   9.099
 4059SOL    HW114009  12.816   7.121   9.071
 4059SOL    HW214010  12.876   7.243   9.136
 4060SOL     OW14011   7.829  11.998   9.250
 4060SOL    HW114012   7.894  11.929   9.240
 4060SOL    HW214013   7.777  11.994   9.169
 4061SOL     OW14014  10.935   1.088   8.087
 4061SOL    HW114015  10.845   1.114   8.068
 4061SOL    HW214016  10.976   1.167   8.122
 4062SOL     OW14017   0.786   8.818  14.837
 4062SOL    HW114018   0.878   8.804  14.812
 4062SOL    HW214019   0.791   8.882   0.032
 4063SOL     OW14020  10.973   8.225   9.359
 4063SOL    HW114021  10.936   8.286   9.423
 4063SOL    HW214022  10.971   8.140   9.402
 4064SOL     OW14023  10.149   4.209   4.531
 4064SOL    HW114024  10.081   4.166   4.479
 4064SOL    HW214025  10.118   4.299   4.541
 4065SOL     OW14026  12.741   1.009   3.167
 4065SOL    HW114027  12.699   1.011   3.253
 4065SOL    HW214028  12.835   1.014   3.186
 4066SOL     OW14029   4.730   6.501   8.262
 4066SOL    HW114030   4.653   6.481   8.208
 4066SOL    HW214031   4.784   6.557   8.205
 4067SOL     OW14032   4.312   3.053   5.587
 4067SOL    HW114033   4.352   3.133   5.619
 4067SOL    HW214034   4.339   3.046   5.496
 4068SOL     OW14035  13.545  13.775   7.605
 4068SOL    HW114036  13.609  13.832   7.648
 4068SOL    HW214037  13.574  13.771   7.514
 4069SOL     OW14038   9.787   2.741   3.521
 4069SOL    HW114039   9.794   2.713   3.430
 4069SOL    HW214040   9.732   2.674   3.562
 4070SOL     OW14041  13.981  14.168   0.440
 4070SOL    HW114042  13.941  14.193   0.523
 4070SOL    HW214043  13.913  14.121   0.392
 4071SOL     OW14044  13.772   5.905  10.782
 4071SOL    HW114045  13.770   5.971  10.712
 4071SOL    HW214046  13.694   5.851  10.766
 4072SOL     OW14047  12.176   8.027  12.993
 4072SOL    HW114048  12.255   8.008  12.942
 4072SOL    HW214049  12.186   8.118  13.020
 4073SOL     OW14050   8.483  10.197   4.137
 4073SOL    HW114051   8.462  10.285   4.106
 4073SOL    HW214052   8.531  10.156   4.065
 4074SOL     OW14053  10.187   7.971  13.914
 4074SOL    HW114054  10.227   8.055  13.889
 4074SOL    HW214055  10.238   7.942  13.990
 4075SOL     OW14056  13.947  10.723  14.031
 4075SOL    HW114057  13.935  10.818  14.042
 4075SOL    HW214058  13.862  10.686  14.056
 4076SOL     OW14059   6.321   7.605   3.871
 4076SOL    HW114060   6.361   7.554   3.802
 4076SOL    HW214061   6.301   7.690   3.830
 4077SOL     OW14062   7.467   3.748   4.158
 4077SOL    HW114063   7.440   3.658   4.136
 4077SOL    HW214064   7.506   3.781   4.076
 4078SOL     OW14065   4.730  12.664  11.577
 4078SOL    HW114066   4.682  12.640  11.497
 4078SOL    HW214067   4.739  12.581  11.625
 4079SOL     OW14068  13.844   3.965   4.625
 4079SOL    HW114069  13.794   4.028   4.677
 4079SOL    HW214070  13.862   4.010   4.543
 4080SOL     OW14071   5.848  11.278   9.292
 4080SOL    HW114072   5.755  11.263   9.276
 4080SOL    HW214073   5.881  11.315   9.209
 4081SOL     OW14074   0.038   2.432  13.819
 4081SOL    HW114075  14.862   2.390  13.888
 4081SOL    HW214076   0.068   2.514  13.858
 4082SOL     OW14077   6.455   9.088  10.632
 4082SOL    HW114078   6.542   9.054  10.651
 4082SOL    HW214079   6.470   9.165  10.577
 4083SOL     OW14080  14.221   7.165   8.551
 4083SOL    HW114081  14.173   7.186   8.632
 4083SOL    HW214082  14.153   7.155   8.485
 4084SOL     OW14083   9.738   7.560   8.744
 4084SOL    HW114084   9.683   7.633   8.770
 4084SOL    HW214085   9.679   7.503   8.693
 4085SOL     OW14086  12.282   7.616   2.015
 4085SOL    HW114087  12.198   7.659   2.031
 4085SOL    HW214088  12.280   7.538   2.070
 4086SOL     OW14089   6.382   6.958   3.610
 4086SOL    HW114090   6.347   7.042   3.580
 4086SOL    HW214091   6.371   6.899   3.535
 4087SOL     OW14092   2.491   6.892   5.613
 4087SOL    HW114093   2.474   6.799   5.625
 4087SOL    HW214094   2.574   6.907   5.660
 4088SOL     OW14095   4.806   3.338   1.133
 4088SOL    HW114096   4.898   3.356   1.112
 4088SOL    HW214097   4.809   3.282   1.210
 4089SOL     OW14098  11.718  13.767   1.353
 4089SOL    HW114099  11.704  13.706   1.282
 4089SOL    HW214100  11.803  13.807   1.333
 4090SOL     OW14101  13.906   6.831  12.269
 4090SOL    HW114102  13.908   6.808  12.362
 4090SOL    HW214103  13.967   6.770  12.228
 4091SOL     OW14104   7.315   8.344  11.991
 4091SOL    HW114105   7.227   8.308  12.004
 4091SOL    HW214106   7.354   8.287  11.925
 4092SOL     OW14107  14.374   7.678   9.519
 4092SOL    HW114108  14.393   7.742   9.588
 4092SOL    HW214109  14.411   7.718   9.440
 4093SOL     OW14110  10.844   2.714   0.428
 4093SOL    HW114111  10.833   2.688   0.519
 4093SOL    HW214112  10.880   2.636   0.385
 4094SOL     OW14113   2.716  12.504   5.012
 4094SOL    HW114114   2.657  12.469   4.945
 4094SOL    HW214115   2.657  12.540   5.079
 4095SOL     OW14116   0.211   7.078   0.024
 4095SOL    HW114117   0.132   7.044  14.858
 4095SOL    HW214118   0.180   7.117   0.106
 4096SOL     OW14119   2.946  10.385  12.498
 4096SOL    HW114120   2.872  10.332  12.528
 4096SOL    HW214121   2.934  10.470  12.542
 4097SOL     OW14122  12.497   5.813   0.275
 4097SOL    HW114123  12.502   5.908   0.270
 4097SOL    HW214124  12.515   5.793   0.367
 4098SOL     OW14125  10.996  10.855   5.042
 4098SOL    HW114126  10.986  10.945   5.073
 4098SOL    HW214127  10.944  10.803   5.103
 4099SOL     OW14128   4.800   1.206   0.333
 4099SOL    HW114129   4.792   1.152   0.412
 4099SOL    HW214130   4.857   1.156   0.275
 4100SOL     OW14131   4.611  10.475   3.165
 4100SOL    HW114132   4.638  10.437   3.249
 4100SOL    HW214133   4.568  10.403   3.119
 4101SOL     OW14134   5.868  10.804  12.500
 4101SOL    HW114135   5.837  10.809  12.409
 4101SOL    HW214136   5.905  10.890  12.517
 4102SOL     OW14137   8.201   6.524   9.925
 4102SOL    HW114138   8.295   6.525   9.942
 4102SOL    HW214139   8.160   6.523  10.012
 4103SOL     OW14140   9.203   5.278   7.931
 4103SOL    HW114141   9.206   5.242   7.843
 4103SOL    HW214142   9.121   5.245   7.968
 4104SOL     OW14143  13.317   0.594  14.550
 4104SOL    HW114144  13.230   0.598  14.509
 4104SOL    HW214145  13.329   0.501  14.570
 4105SOL     OW14146   7.098   0.050   5.250
 4105SOL    HW114147   7.093  14.831   5.260
 4105SOL    HW214148   7.190   0.067   5.229
 4106SOL     OW14149   6.731  13.059   6.221
 4106SOL    HW114150   6.669  12.997   6.183
 4106SOL    HW214151   6.758  13.018   6.303
 4107SOL     OW14152   2.873   3.456   5.701
 4107SOL    HW114153   2.953   3.408   5.724
 4107SOL    HW214154   2.896   3.504   5.621
 4108SOL     OW14155   1.992   1.449  10.082
 4108SOL    HW114156   2.061   1.414  10.139
 4108SOL    HW214157   1.911   1.416  10.120
 4109SOL     OW14158   7.100   9.089   7.071
 4109SOL    HW114159   7.068   9.170   7.032
 4109SOL    HW214160   7.051   9.080   7.153
 4110SOL     OW14161  14.026  12.898   8.071
 4110SOL    HW114162  13.971  12.903   7.993
 4110SOL    HW214163  14.103  12.850   8.044
 4111SOL     OW14164   0.407   9.273   7.588
 4111SOL    HW114165   0.465   9.293   7.661
 4111SOL    HW214166   0.387   9.180   7.596
 4112SOL     OW14167   3.084   1.008   1.131
 4112SOL    HW114168   3.172   1.029   1.160
 4112SOL    HW214169   3.090   1.004   1.035
 4113SOL     OW14170   4.003  14.217   9.498
 4113SOL    HW114171   4.001  14.312   9.506
 4113SOL    HW214172   4.092  14.192   9.522
 4114SOL     OW14173   3.987   0.401  14.439
 4114SOL    HW114174   4.080   0.376  14.435
 4114SOL    HW214175   3.941   0.320  14.458
 4115SOL     OW14176   5.075   8.850   9.656
 4115SOL    HW114177   5.052   8.844   9.563
 4115SOL    HW214178   5.150   8.910   9.658
 4116SOL     OW14179   1.321  12.253   7.244
 4116SOL    HW114180   1.271  12.333   7.256
 4116SOL    HW214181   1.266  12.183   7.279
 4117SOL     OW14182   0.444  13.840  12.687
 4117SOL    HW114183   0.519  13.899  12.692
 4117SOL    HW214184   0.438  13.817  12.594
 4118SOL     OW14185  12.029   7.442  12.610
 4118SOL    HW114186  11.980   7.373  12.654
 4118SOL    HW214187  12.070   7.399  12.535
 4119SOL     OW14188  14.728   0.829  11.502
 4119SOL    HW114189  14.706   0.795  11.589
 4119SOL    HW214190  14.655   0.889  11.481
 4120SOL     OW14191   0.690   2.040  14.310
 4120SOL    HW114192   0.636   1.974  14.354
 4120SOL    HW214193   0.627   2.096  14.264
 4121SOL     OW14194   6.535   1.589  10.654
 4121SOL    HW114195   6.517   1.557  10.742
 4121SOL    HW214196   6.545   1.509  10.601
 4122SOL     OW14197   5.856   1.214  14.119
 4122SOL    HW114198   5.914   1.141  14.101
 4122SOL    HW214199   5.876   1.239  14.209
 4123SOL     OW14200   3.730  14.667  11.799
 4123SOL    HW114201   3.800  14.681  11.736
 4123SOL    HW214202   3.709  14.755  11.832
 4124SOL     OW14203   6.816   2.968   4.071
 4124SOL    HW114204   6.838   3.042   4.127
 4124SOL    HW214205   6.889   2.962   4.010
 4125SOL     OW14206   0.910   3.471   8.452
 4125SOL    HW114207   0.973   3.423   8.398
 4125SOL    HW214208   0.898   3.416   8.529
 4126SOL     OW14209  12.053   0.363   5.279
 4126SOL    HW114210  12.055   0.322   5.366
 4126SOL    HW214211  11.966   0.403   5.274
 4127SOL     OW14212  13.728   0.119   6.772
 4127SOL    HW114213  13.776   0.201   6.774
 4127SOL    HW214214  13.659   0.129   6.837
 4128SOL     OW14215  12.100   0.573   1.980
 4128SOL    HW114216  12.131   0.520   1.906
 4128SOL    HW214217  12.070   0.654   1.939
 4129SOL     OW14218   3.713   4.373   1.518
 4129SOL    HW114219   3.688   4.363   1.426
 4129SOL    HW214220   3.632   4.358   1.566
 4130SOL     OW14221  12.869   4.743   7.235
 4130SOL    HW114222  12.794   4.747   7.176
 4130SOL    HW214223  12.912   4.828   7.224
 4131SOL     OW14224  13.017   6.056   6.124
 4131SOL    HW114225  13.113   6.058   6.130
 4131SOL    HW214226  12.990   6.146   6.137
 4132SOL     OW14227  12.169   9.705   9.532
 4132SOL    HW114228  12.259   9.729   9.513
 4132SOL    HW214229  12.173   9.662   9.617
 4133SOL     OW14230   0.279   5.763  12.050
 4133SOL    HW114231   0.343   5.785  12.119
 4133SOL    HW214232   0.231   5.845  12.036
 4134SOL     OW14233   4.420  12.109   9.140
 4134SOL    HW114234   4.486  12.132   9.205
 4134SOL    HW214235   4.470  12.079   9.065
 4135SOL     OW14236   7.858  14.225   1.964
 4135SOL    HW114237   7.834  14.310   2.000
 4135SOL    HW214238   7.781  14.170   1.979
 4136SOL     OW14239  11.760   2.770  10.490
 4136SOL    HW114240  11.819   2.835  10.528
 4136SOL    HW214241  11.694   2.756  10.559
 4137SOL     OW14242  12.578   7.323   4.803
 4137SOL    HW114243  12.504   7.382   4.810
 4137SOL    HW214244  12.648   7.366   4.853
 4138SOL     OW14245   7.812   4.678  12.964
 4138SOL    HW114246   7.805   4.656  12.871
 4138SOL    HW214247   7.763   4.609  13.009
 4139SOL     OW14248  12.010   4.416  12.156
 4139SOL    HW114249  11.995   4.482  12.088
 4139SOL    HW214250  12.105   4.416  12.169
 4140SOL     OW14251   5.991  11.229  13.917
 4140SOL    HW114252   6.020  11.293  13.851
 4140SOL    HW214253   5.945  11.282  13.982
 4141SOL     OW14254  10.700   6.821  10.600
 4141SOL    HW114255  10.639   6.786  10.534
 4141SOL    HW214256  10.729   6.745  10.649
 4142SOL     OW14257  10.826  13.621   4.454
 4142SOL    HW114258  10.741  13.578   4.458
 4142SOL    HW214259  10.828  13.679   4.530
 4143SOL     OW14260   5.864   5.572   5.548
 4143SOL    HW114261   5.956   5.599   5.549
 4143SOL    HW214262   5.854   5.521   5.629
 4144SOL     OW14263   7.944   5.699   6.093
 4144SOL    HW114264   8.018   5.721   6.150
 4144SOL    HW214265   7.875   5.672   6.153
 4145SOL     OW14266   8.006  12.022  10.629
 4145SOL    HW114267   7.942  11.952  10.644
 4145SOL    HW214268   7.977  12.094  10.685
 4146SOL     OW14269   2.041  13.996  13.055
 4146SOL    HW114270   1.952  14.024  13.035
 4146SOL    HW214271   2.032  13.904  13.082
 4147SOL     OW14272   4.687   6.043   3.061
 4147SOL    HW114273   4.775   6.018   3.033
 4147SOL    HW214274   4.628   5.994   3.003
 4148SOL     OW14275  12.566   2.249   8.157
 4148SOL    HW114276  12.491   2.279   8.208
 4148SOL    HW214277  12.527   2.213   8.077
 4149SOL     OW14278   0.722   7.375   9.508
 4149SOL    HW114279   0.743   7.287   9.476
 4149SOL    HW214280   0.759   7.434   9.441
 4150SOL     OW14281  11.353   9.032   0.971
 4150SOL    HW114282  11.264   9.023   0.939
 4150SOL    HW214283  11.407   8.986   0.907
 4151SOL     OW14284   8.757  13.098  11.898
 4151SOL    HW114285   8.731  13.129  11.985
 4151SOL    HW214286   8.822  13.161  11.868
 4152SOL     OW14287  12.439  13.628  11.164
 4152SOL    HW114288  12.437  13.704  11.106
 4152SOL    HW214289  12.416  13.554  11.108
 4153SOL     OW14290  12.280   4.091   8.900
 4153SOL    HW114291  12.241   4.043   8.974
 4153SOL    HW214292  12.243   4.179   8.907
 4154SOL     OW14293   8.098  12.947   3.764
 4154SOL    HW114294   8.117  12.871   3.708
 4154SOL    HW214295   8.082  13.018   3.703
 4155SOL     OW14296  11.901   9.129  10.272
 4155SOL    HW114297  11.811   9.121  10.302
 4155SOL    HW214298  11.898   9.106  10.179
 4156SOL     OW14299   3.714  12.035  12.287
 4156SOL    HW114300   3.759  11.957  12.253
 4156SOL    HW214301   3.705  12.092  12.211
 4157SOL     OW14302   4.142   7.012   5.608
 4157SOL    HW114303   4.108   7.069   5.539
 4157SOL    HW214304   4.215   7.061   5.645
 4158SOL     OW14305  12.031   5.758   6.636
 4158SOL    HW114306  12.097   5.822   6.664
 4158SOL    HW214307  12.023   5.771   6.542
 4159SOL     OW14308  12.077  11.415   0.222
 4159SOL    HW114309  12.017  11.374   0.160
 4159SOL    HW214310  12.107  11.494   0.177
 4160SOL     OW14311  12.899  13.410   8.906
 4160SOL    HW114312  12.902  13.395   9.000
 4160SOL    HW214313  12.824  13.469   8.893
 4161SOL     OW14314  11.981  12.111   4.196
 4161SOL    HW114315  11.895  12.094   4.158
 4161SOL    HW214316  12.013  12.024   4.222
 4162SOL     OW14317   4.383  14.691  14.317
 4162SOL    HW114318   4.309  14.653  14.365
 4162SOL    HW214319   4.453  14.698  14.383
 4163SOL     OW14320  10.475   9.302   8.482
 4163SOL    HW114321  10.384   9.326   8.501
 4163SOL    HW214322  10.525   9.344   8.552
 4164SOL     OW14323  14.035  13.855  13.927
 4164SOL    HW114324  14.060  13.763  13.918
 4164SOL    HW214325  14.018  13.867  14.021
 4165SOL     OW14326   2.175   0.616   1.217
 4165SOL    HW114327   2.235   0.681   1.253
 4165SOL    HW214328   2.092   0.633   1.262
 4166SOL     OW14329   0.857  13.116   9.123
 4166SOL    HW114330   0.869  13.036   9.072
 4166SOL    HW214331   0.886  13.186   9.064
 4167SOL     OW14332   5.926   5.272   9.060
 4167SOL    HW114333   6.018   5.247   9.067
 4167SOL    HW214334   5.921   5.323   8.979
 4168SOL     OW14335   7.993   4.924   2.829
 4168SOL    HW114336   7.955   4.980   2.761
 4168SOL    HW214337   7.995   4.837   2.789
 4169SOL     OW14338   3.983   5.211  10.881
 4169SOL    HW114339   4.042   5.238  10.811
 4169SOL    HW214340   4.033   5.146  10.931
 4170SOL     OW14341   5.293   4.747  13.301
 4170SOL    HW114342   5.302   4.657  13.333
 4170SOL    HW214343   5.381   4.771  13.272
 4171SOL     OW14344   5.345   6.199  14.091
 4171SOL    HW114345   5.417   6.221  14.149
 4171SOL    HW214346   5.328   6.106  14.105
 4172SOL     OW14347  13.775   2.761   3.534
 4172SOL    HW114348  13.800   2.816   3.460
 4172SOL    HW214349  13.798   2.812   3.611
 4173SOL     OW14350   8.938   4.375   5.154
 4173SOL    HW114351   8.869   4.403   5.214
 4173SOL    HW214352   9.018   4.413   5.191
 4174SOL     OW14353   7.655   9.123  11.309
 4174SOL    HW114354   7.698   9.065  11.372
 4174SOL    HW214355   7.726   9.179  11.275
 4175SOL     OW14356   4.081   4.709   3.351
 4175SOL    HW114357   4.020   4.742   3.284
 4175SOL    HW214358   4.031   4.641   3.397
 4176SOL     OW14359   2.338   0.974   3.927
 4176SOL    HW114360   2.380   0.985   4.012
 4176SOL    HW214361   2.342   1.061   3.886
 4177SOL     OW14362  12.425  13.698  14.031
 4177SOL    HW114363  12.515  13.722  14.011
 4177SOL    HW214364  12.412  13.728  14.121
 4178SOL     OW14365   8.188   6.303   4.063
 4178SOL    HW114366   8.156   6.374   4.007
 4178SOL    HW214367   8.248   6.346   4.124
 4179SOL     OW14368   7.857   6.155   1.788
 4179SOL    HW114369   7.806   6.075   1.799
 4179SOL    HW214370   7.851   6.199   1.873
 4180SOL     OW14371   0.771  11.167   7.868
 4180SOL    HW114372   0.809  11.187   7.954
 4180SOL    HW214373   0.730  11.081   7.880
 4181SOL     OW14374   4.850   7.259  11.432
 4181SOL    HW114375   4.925   7.270  11.373
 4181SOL    HW214376   4.852   7.338  11.486
 4182SOL     OW14377   8.812   9.801   8.404
 4182SOL    HW114378   8.895   9.760   8.380
 4182SOL    HW214379   8.753   9.728   8.421
 4183SOL     OW14380  11.926   0.111   7.249
 4183SOL    HW114381  11.891   0.022   7.249
 4183SOL    HW214382  12.021   0.100   7.239
 4184SOL     OW14383  12.557   4.643  12.889
 4184SOL    HW114384  12.558   4.739  12.887
 4184SOL    HW214385  12.489   4.621  12.953
 4185SOL     OW14386   4.921  13.081   3.758
 4185SOL    HW114387   4.994  13.019   3.760
 4185SOL    HW214388   4.868  13.054   3.683
 4186SOL     OW14389   6.103   1.505  14.125
 4186SOL    HW114390   6.070   1.465  14.044
 4186SOL    HW214391   6.064   1.453  14.195
 4187SOL     OW14392   3.793  14.330   1.936
 4187SOL    HW114393   3.798  14.279   2.017
 4187SOL    HW214394   3.736  14.278   1.880
 4188SOL     OW14395   5.866  13.056  12.405
 4188SOL    HW114396   5.876  12.979  12.349
 4188SOL    HW214397   5.865  13.021  12.494
 4189SOL     OW14398  11.982   7.686   7.838
 4189SOL    HW114399  12.030   7.613   7.876
 4189SOL    HW214400  11.992   7.757   7.901
 4190SOL     OW14401  11.893   2.672  11.398
 4190SOL    HW114402  11.916   2.630  11.315
 4190SOL    HW214403  11.870   2.600  11.456
 4191SOL     OW14404  12.032  11.829   0.906
 4191SOL    HW114405  12.074  11.874   0.980
 4191SOL    HW214406  12.086  11.853   0.830
 4192SOL     OW14407   7.379   6.475   9.725
 4192SOL    HW114408   7.424   6.553   9.756
 4192SOL    HW214409   7.397   6.409   9.792
 4193SOL     OW14410   5.599  12.470   2.895
 4193SOL    HW114411   5.554  12.386   2.906
 4193SOL    HW214412   5.529  12.535   2.892
 4194SOL     OW14413  14.001   1.880   4.762
 4194SOL    HW114414  14.055   1.956   4.786
 4194SOL    HW214415  13.942   1.869   4.836
 4195SOL     OW14416   9.153   5.650   1.247
 4195SOL    HW114417   9.155   5.568   1.298
 4195SOL    HW214418   9.234   5.694   1.271
 4196SOL     OW14419   8.480   7.417  11.718
 4196SOL    HW114420   8.541   7.371  11.661
 4196SOL    HW214421   8.528   7.495  11.747
 4197SOL     OW14422   3.162   6.180   7.453
 4197SOL    HW114423   3.088   6.230   7.420
 4197SOL    HW214424   3.205   6.147   7.374
 4198SOL     OW14425   0.770   9.974   8.130
 4198SOL    HW114426   0.679   9.947   8.141
 4198SOL    HW214427   0.778  10.053   8.183
 4199SOL     OW14428  12.202   6.737   9.757
 4199SOL    HW114429  12.170   6.713   9.844
 4199SOL    HW214430  12.139   6.697   9.697
 4200SOL     OW14431   4.677   5.857  13.929
 4200SOL    HW114432   4.736   5.896  13.994
 4200SOL    HW214433   4.723   5.867  13.846
 4201SOL     OW14434  12.524   9.524   8.834
 4201SOL    HW114435  12.534   9.564   8.747
 4201SOL    HW214436  12.614   9.515   8.866
 4202SOL     OW14437  14.052   3.782  13.295
 4202SOL    HW114438  13.980   3.737  13.252
 4202SOL    HW214439  14.130   3.735  13.266
 4203SOL     OW14440   4.449   6.590   1.583
 4203SOL    HW114441   4.409   6.596   1.496
 4203SOL    HW214442   4.520   6.654   1.581
 4204SOL     OW14443   1.126   3.941   7.868
 4204SOL    HW114444   1.054   3.900   7.916
 4204SOL    HW214445   1.183   3.867   7.844
 4205SOL     OW14446   1.869  12.079  13.595
 4205SOL    HW114447   1.815  12.092  13.516
 4205SOL    HW214448   1.924  12.003  13.574
 4206SOL     OW14449  13.536   2.622   2.660
 4206SOL    HW114450  13.467   2.556   2.653
 4206SOL    HW214451  13.500   2.687   2.720
 4207SOL     OW14452  14.038   9.817   5.080
 4207SOL    HW114453  14.132   9.835   5.074
 4207SOL    HW214454  14.019   9.768   5.000
 4208SOL     OW14455   1.556   5.702   4.218
 4208SOL    HW114456   1.483   5.661   4.172
 4208SOL    HW214457   1.542   5.680   4.310
 4209SOL     OW14458   1.885  12.038  13.158
 4209SOL    HW114459   1.843  12.059  13.242
 4209SOL    HW214460   1.814  12.009  13.102
 4210SOL     OW14461   2.312   5.113  10.947
 4210SOL    HW114462   2.234   5.156  10.980
 4210SOL    HW214463   2.339   5.054  11.018
 4211SOL     OW14464  14.455  12.020  14.709
 4211SOL    HW114465  14.401  11.966  14.767
 4211SOL    HW214466  14.544  11.990  14.724
 4212SOL     OW14467   4.525  11.889   9.001
 4212SOL    HW114468   4.495  11.841   9.079
 4212SOL    HW214469   4.617  11.864   8.992
 4213SOL     OW14470   4.591   0.521  14.562
 4213SOL    HW114471   4.608   0.500  14.471
 4213SOL    HW214472   4.644   0.600  14.579
 4214SOL     OW14473   3.681   4.594  14.592
 4214SOL    HW114474   3.773   4.586  14.617
 4214SOL    HW214475   3.634   4.554  14.666
 4215SOL     OW14476   4.335   6.877  11.396
 4215SOL    HW114477   4.272   6.811  11.367
 4215SOL    HW214478   4.289   6.961  11.384
 4216SOL     OW14479   5.814   7.542   2.687
 4216SOL    HW114480   5.880   7.478   2.662
 4216SOL    HW214481   5.837   7.622   2.640
 4217SOL     OW14482   1.079  14.724   6.581
 4217SOL    HW114483   1.168  14.698   6.607
 4217SOL    HW214484   1.078  14.714   6.486
 4218SOL     OW14485   0.877  14.853   5.732
 4218SOL    HW114486   0.889   0.072   5.739
 4218SOL    HW214487   0.952  14.816   5.778
 4219SOL     OW14488  10.258   5.653  10.298
 4219SOL    HW114489  10.192   5.583  10.301
 4219SOL    HW214490  10.207   5.734  10.306
 4220SOL     OW14491   9.394  14.282  13.628
 4220SOL    HW114492   9.478  14.322  13.606
 4220SOL    HW214493   9.330  14.332  13.576
 4221SOL     OW14494   5.662   0.927  10.820
 4221SOL    HW114495   5.742   0.917  10.872
 4221SOL    HW214496   5.646   1.021  10.819
 4222SOL     OW14497   1.477   5.887  11.500
 4222SOL    HW114498   1.396   5.930  11.474
 4222SOL    HW214499   1.521   5.865  11.417
 4223SOL     OW14500   2.484   7.959   8.216
 4223SOL    HW114501   2.564   7.958   8.268
 4223SOL    HW214502   2.488   8.043   8.169
 4224SOL     OW14503  10.263   0.117   4.760
 4224SOL    HW114504  10.248   0.087   4.850
 4224SOL    HW214505  10.179   0.107   4.717
 4225SOL     OW14506   9.935   8.753   6.105
 4225SOL    HW114507   9.922   8.805   6.184
 4225SOL    HW214508   9.848   8.744   6.067
 4226SOL     OW14509   8.652   4.148   0.555
 4226SOL    HW114510   8.658   4.135   0.649
 4226SOL    HW214511   8.741   4.133   0.523
 4227SOL     OW14512   0.528  11.285   3.538
 4227SOL    HW114513   0.472  11.306   3.613
 4227SOL    HW214514   0.480  11.220   3.488
 4228SOL     OW14515   3.996   1.873  13.263
 4228SOL    HW114516   4.042   1.790  13.272
 4228SOL    HW214517   3.934   1.873  13.336
 4229SOL     OW14518   7.496   4.764  11.427
 4229SOL    HW114519   7.482   4.690  11.368
 4229SOL    HW214520   7.412   4.810  11.426
 4230SOL     OW14521  12.471   4.875   9.337
 4230SOL    HW114522  12.381   4.896   9.312
 4230SOL    HW214523  12.467   4.857   9.431
 4231SOL     OW14524   3.990   5.365  12.326
 4231SOL    HW114525   4.084   5.379  12.317
 4231SOL    HW214526   3.970   5.394  12.414
 4232SOL     OW14527  13.546   0.355   4.528
 4232SOL    HW114528  13.504   0.296   4.466
 4232SOL    HW214529  13.562   0.435   4.478
 4233SOL     OW14530   3.359   0.128   3.740
 4233SOL    HW114531   3.296   0.124   3.668
 4233SOL    HW214532   3.340   0.211   3.784
 4234SOL     OW14533   1.175  10.495  14.428
 4234SOL    HW114534   1.252  10.459  14.472
 4234SOL    HW214535   1.211  10.556  14.363
 4235SOL     OW14536  13.001  14.047   5.975
 4235SOL    HW114537  13.051  14.117   6.015
 4235SOL    HW214538  13.040  14.034   5.889
 4236SOL     OW14539   5.135  10.004  10.607
 4236SOL    HW114540   5.081  10.083  10.613
 4236SOL    HW214541   5.225  10.037  10.609
 4237SOL     OW14542  14.607   6.985  11.433
 4237SOL    HW114543  14.619   6.908  11.488
 4237SOL    HW214544  14.540   7.036  11.478
 4238SOL     OW14545   8.080   8.511  13.074
 4238SOL    HW114546   8.156   8.490  13.127
 4238SOL    HW214547   8.099   8.597  13.037
 4239SOL     OW14548   3.158  11.715  12.646
 4239SOL    HW114549   3.201  11.781  12.699
 4239SOL    HW214550   3.080  11.758  12.611
 4240SOL     OW14551   9.497  12.406   4.885
 4240SOL    HW114552   9.503  12.493   4.847
 4240SOL    HW214553   9.544  12.349   4.824
 4241SOL     OW14554  10.197  12.677   7.250
 4241SOL    HW114555  10.231  12.684   7.160
 4241SOL    HW214556  10.259  12.618   7.294
 4242SOL     OW14557   5.163   0.299   2.804
 4242SOL    HW114558   5.229   0.323   2.738
 4242SOL    HW214559   5.079   0.319   2.763
 4243SOL     OW14560   7.256  12.761   6.905
 4243SOL    HW114561   7.178  12.707   6.887
 4243SOL    HW214562   7.328  12.713   6.863
 4244SOL     OW14563   3.933  13.877   3.003
 4244SOL    HW114564   3.870  13.827   3.055
 4244SOL    HW214565   3.904  13.867   2.913
 4245SOL     OW14566   8.204   3.904   1.112
 4245SOL    HW114567   8.128   3.935   1.162
 4245SOL    HW214568   8.275   3.903   1.176
 4246SOL     OW14569   6.249   4.771   4.351
 4246SOL    HW114570   6.268   4.720   4.430
 4246SOL    HW214571   6.326   4.759   4.296
 4247SOL     OW14572   2.755   5.754   6.190
 4247SOL    HW114573   2.723   5.664   6.199
 4247SOL    HW214574   2.845   5.751   6.221
 4248SOL     OW14575   9.654   8.770   3.262
 4248SOL    HW114576   9.659   8.793   3.169
 4248SOL    HW214577   9.746   8.766   3.290
 4249SOL     OW14578   8.523   6.962   4.154
 4249SOL    HW114579   8.443   6.960   4.101
 4249SOL    HW214580   8.584   7.015   4.102
 4250SOL     OW14581  12.673   8.931   7.840
 4250SOL    HW114582  12.656   8.896   7.753
 4250SOL    HW214583  12.722   8.862   7.884
 4251SOL     OW14584   1.473   7.757   2.112
 4251SOL    HW114585   1.405   7.824   2.120
 4251SOL    HW214586   1.547   7.793   2.161
 4252SOL     OW14587   5.982   7.266  11.825
 4252SOL    HW114588   6.029   7.273  11.742
 4252SOL    HW214589   5.949   7.355  11.841
 4253SOL     OW14590   1.310   9.585   2.336
 4253SOL    HW114591   1.340   9.645   2.268
 4253SOL    HW214592   1.249   9.526   2.290
 4254SOL     OW14593  10.508   0.335   6.414
 4254SOL    HW114594  10.557   0.392   6.473
 4254SOL    HW214595  10.520   0.247   6.449
 4255SOL     OW14596   4.069   6.039  12.242
 4255SOL    HW114597   4.044   6.057  12.333
 4255SOL    HW214598   4.150   6.089  12.230
 4256SOL     OW14599   7.501  10.406  11.807
 4256SOL    HW114600   7.576  10.366  11.763
 4256SOL    HW214601   7.539  10.483  11.851
 4257SOL     OW14602  14.359   4.326  10.162
 4257SOL    HW114603  14.401   4.283  10.236
 4257SOL    HW214604  14.293   4.263  10.133
 4258SOL     OW14605  13.327   2.274  10.373
 4258SOL    HW114606  13.311   2.235  10.286
 4258SOL    HW214607  13.382   2.209  10.418
 4259SOL     OW14608  14.190   2.910  13.743
 4259SOL    HW114609  14.267   2.854  13.751
 4259SOL    HW214610  14.148   2.905  13.829
 4260SOL     OW14611  11.725   7.920   4.535
 4260SOL    HW114612  11.734   7.919   4.630
 4260SOL    HW214613  11.815   7.915   4.503
 4261SOL     OW14614   0.010  10.917   6.117
 4261SOL    HW114615   0.097  10.918   6.158
 4261SOL    HW214616  14.867  11.009   6.100
 4262SOL     OW14617   6.058   6.085   6.986
 4262SOL    HW114618   6.020   6.164   6.948
 4262SOL    HW214619   6.143   6.113   7.019
 4263SOL     OW14620   5.034   6.130  12.766
 4263SOL    HW114621   4.959   6.122  12.708
 4263SOL    HW214622   5.014   6.074  12.840
 4264SOL     OW14623   1.681   6.371   1.084
 4264SOL    HW114624   1.659   6.440   1.023
 4264SOL    HW214625   1.762   6.401   1.126
 4265SOL     OW14626   1.274   1.793  10.128
 4265SOL    HW114627   1.355   1.766  10.083
 4265SOL    HW214628   1.249   1.715  10.179
 4266SOL     OW14629   8.113   2.904   3.519
 4266SOL    HW114630   8.112   2.879   3.611
 4266SOL    HW214631   8.188   2.963   3.511
 4267SOL     OW14632   0.180   0.339  12.401
 4267SOL    HW114633   0.209   0.273  12.464
 4267SOL    HW214634   0.184   0.422  12.449
 4268SOL     OW14635  11.955  12.928  10.862
 4268SOL    HW114636  11.898  12.964  10.794
 4268SOL    HW214637  11.916  12.843  10.883
 4269SOL     OW14638   1.034  13.405   0.243
 4269SOL    HW114639   1.037  13.355   0.324
 4269SOL    HW214640   1.069  13.491   0.266
 4270SOL     OW14641  11.660   5.316  14.007
 4270SOL    HW114642  11.709   5.278  13.934
 4270SOL    HW214643  11.569   5.311  13.980
 4271SOL     OW14644  12.920   4.227  13.159
 4271SOL    HW114645  12.842   4.229  13.214
 4271SOL    HW214646  12.916   4.306  13.106
 4272SOL     OW14647   6.922   3.492  13.053
 4272SOL    HW114648   6.940   3.584  13.073
 4272SOL    HW214649   6.877   3.459  13.131
 4273SOL     OW14650   5.508   3.007   7.688
 4273SOL    HW114651   5.577   3.019   7.624
 4273SOL    HW214652   5.516   3.082   7.746
 4274SOL     OW14653   6.207  12.265   4.846
 4274SOL    HW114654   6.206  12.247   4.940
 4274SOL    HW214655   6.116  12.283   4.823
 4275SOL     OW14656   2.210  12.480   1.926
 4275SOL    HW114657   2.214  12.389   1.956
 4275SOL    HW214658   2.118  12.505   1.937
 4276SOL     OW14659  12.124  13.664  12.060
 4276SOL    HW114660  12.107  13.711  11.979
 4276SOL    HW214661  12.155  13.578  12.032
 4277SOL     OW14662   9.310  13.272   4.834
 4277SOL    HW114663   9.302  13.297   4.741
 4277SOL    HW214664   9.221  13.281   4.868
 4278SOL     OW14665   2.232   6.744  12.604
 4278SOL    HW114666   2.147   6.717  12.639
 4278SOL    HW214667   2.210   6.795  12.525
 4279SOL     OW14668  10.133   5.466  14.028
 4279SOL    HW114669  10.218   5.446  14.067
 4279SOL    HW214670  10.119   5.559  14.047
 4280SOL     OW14671   2.751   7.258   6.262
 4280SOL    HW114672   2.698   7.194   6.214
 4280SOL    HW214673   2.763   7.220   6.348
 4281SOL     OW14674  14.364  12.988   4.503
 4281SOL    HW114675  14.423  13.053   4.465
 4281SOL    HW214676  14.419  12.911   4.518
 4282SOL     OW14677   2.757   5.820   4.675
 4282SOL    HW114678   2.840   5.827   4.722
 4282SOL    HW214679   2.700   5.886   4.716
 4283SOL     OW14680   6.008  11.682   9.843
 4283SOL    HW114681   6.099  11.705   9.823
 4283SOL    HW214682   5.988  11.607   9.786
 4284SOL     OW14683   7.387   4.078  11.431
 4284SOL    HW114684   7.449   4.012  11.462
 4284SOL    HW214685   7.313   4.028  11.397
 4285SOL     OW14686   6.416  10.739   8.298
 4285SOL    HW114687   6.339  10.682   8.289
 4285SOL    HW214688   6.412  10.795   8.220
 4286SOL     OW14689   3.425   2.377   5.146
 4286SOL    HW114690   3.331   2.390   5.132
 4286SOL    HW214691   3.431   2.298   5.199
 4287SOL     OW14692   5.369   0.594  10.439
 4287SOL    HW114693   5.430   0.563  10.506
 4287SOL    HW214694   5.339   0.514  10.396
 4288SOL     OW14695   8.307  12.120   6.341
 4288SOL    HW114696   8.223  12.162   6.325
 4288SOL    HW214697   8.330  12.078   6.259
 4289SOL     OW14698   5.503  12.447   9.426
 4289SOL    HW114699   5.519  12.426   9.334
 4289SOL    HW214700   5.579  12.412   9.472
 4290SOL     OW14701   6.900  11.532   2.080
 4290SOL    HW114702   6.804  11.532   2.087
 4290SOL    HW214703   6.918  11.590   2.007
 4291SOL     OW14704   5.299   3.565   3.369
 4291SOL    HW114705   5.369   3.529   3.314
 4291SOL    HW214706   5.232   3.496   3.370
 4292SOL     OW14707   5.921  11.013   8.824
 4292SOL    HW114708   5.900  10.922   8.843
 4292SOL    HW214709   5.871  11.064   8.888
 4293SOL     OW14710  12.538   0.367   7.265
 4293SOL    HW114711  12.471   0.429   7.294
 4293SOL    HW214712  12.489   0.299   7.219
 4294SOL     OW14713   7.934   9.249   6.320
 4294SOL    HW114714   7.961   9.188   6.251
 4294SOL    HW214715   7.842   9.228   6.335
 4295SOL     OW14716   4.718  10.977   2.185
 4295SOL    HW114717   4.669  11.036   2.128
 4295SOL    HW214718   4.722  11.023   2.269
 4296SOL     OW14719   8.748   9.763   9.462
 4296SOL    HW114720   8.731   9.674   9.434
 4296SOL    HW214721   8.676   9.785   9.520
 4297SOL     OW14722   4.193  10.839  13.785
 4297SOL    HW114723   4.170  10.748  13.766
 4297SOL    HW214724   4.214  10.877  13.699
 4298SOL     OW14725   3.423   1.719  13.921
 4298SOL    HW114726   3.407   1.736  14.014
 4298SOL    HW214727   3.414   1.805  13.880
 4299SOL     OW14728  12.066   4.499   1.454
 4299SOL    HW114729  12.057   4.559   1.529
 4299SOL    HW214730  11.991   4.519   1.398
 4300SOL     OW14731  14.623  10.664   7.245
 4300SOL    HW114732  14.581  10.588   7.204
 4300SOL    HW214733  14.655  10.631   7.329
 4301SOL     OW14734   7.743  12.686   1.543
 4301SOL    HW114735   7.676  12.683   1.612
 4301SOL    HW214736   7.823  12.714   1.588
 4302SOL     OW14737   5.609  12.820  11.027
 4302SOL    HW114738   5.580  12.763  10.955
 4302SOL    HW214739   5.553  12.897  11.021
 4303SOL     OW14740  13.933  13.168   8.925
 4303SOL    HW114741  13.897  13.101   8.866
 4303SOL    HW214742  13.872  13.241   8.918
 4304SOL     OW14743   9.403   8.133  13.901
 4304SOL    HW114744   9.457   8.092  13.968
 4304SOL    HW214745   9.459   8.200  13.862
 4305SOL     OW14746   5.010  10.715   8.878
 4305SOL    HW114747   5.104  10.701   8.866
 4305SOL    HW214748   4.973  10.710   8.790
 4306SOL     OW14749   3.908   7.706  11.262
 4306SOL    HW114750   3.995   7.745  11.264
 4306SOL    HW214751   3.854   7.766  11.314
 4307SOL     OW14752  10.078   3.407   0.778
 4307SOL    HW114753  10.065   3.367   0.692
 4307SOL    HW214754  10.059   3.337   0.841
 4308SOL     OW14755   8.124   9.809   1.523
 4308SOL    HW114756   8.056   9.872   1.502
 4308SOL    HW214757   8.159   9.838   1.607
 4309SOL     OW14758  10.213   6.008   1.566
 4309SOL    HW114759  10.147   5.987   1.500
 4309SOL    HW214760  10.293   6.023   1.516
 4310SOL     OW14761  10.200   6.156  10.976
 4310SOL    HW114762  10.217   6.063  10.961
 4310SOL    HW214763  10.105   6.164  10.968
 4311SOL     OW14764   5.221   3.715   7.981
 4311SOL    HW114765   5.311   3.694   7.957
 4311SOL    HW214766   5.213   3.809   7.964
 4312SOL     OW14767   2.996   3.912   6.383
 4312SOL    HW114768   2.911   3.917   6.340
 4312SOL    HW214769   2.977   3.878   6.470
 4313SOL     OW14770  10.393  10.722  13.365
 4313SOL    HW114771  10.385  10.695  13.273
 4313SOL    HW214772  10.467  10.781  13.366
 4314SOL     OW14773   3.619   5.711   6.128
 4314SOL    HW114774   3.696   5.656   6.144
 4314SOL    HW214775   3.545   5.650   6.131
 4315SOL     OW14776  11.019   3.113   2.714
 4315SOL    HW114777  10.953   3.109   2.783
 4315SOL    HW214778  11.090   3.056   2.746
 4316SOL     OW14779   1.488   0.261  14.379
 4316SOL    HW114780   1.500   0.316  14.457
 4316SOL    HW214781   1.519   0.175  14.407
 4317SOL     OW14782   5.885   5.815   4.342
 4317SOL    HW114783   5.830   5.741   4.316
 4317SOL    HW214784   5.908   5.858   4.260
 4318SOL     OW14785   6.341  13.622   5.470
 4318SOL    HW114786   6.294  13.634   5.553
 4318SOL    HW214787   6.272  13.620   5.404
 4319SOL     OW14788   7.995  12.087  11.603
 4319SOL    HW114789   8.025  12.019  11.663
 4319SOL    HW214790   8.049  12.077  11.525
 4320SOL     OW14791   3.622  11.050   5.655
 4320SOL    HW114792   3.705  11.093   5.634
 4320SOL    HW214793   3.636  11.015   5.743
 4321SOL     OW14794   1.582   4.793   0.384
 4321SOL    HW114795   1.632   4.794   0.302
 4321SOL    HW214796   1.563   4.700   0.398
 4322SOL     OW14797   3.100   8.438   0.266
 4322SOL    HW114798   3.009   8.434   0.296
 4322SOL    HW214799   3.141   8.360   0.305
 4323SOL     OW14800   3.291   3.218   6.051
 4323SOL    HW114801   3.351   3.279   6.007
 4323SOL    HW214802   3.338   3.135   6.053
 4324SOL     OW14803   1.384  13.581  14.235
 4324SOL    HW114804   1.372  13.555  14.326
 4324SOL    HW214805   1.337  13.664  14.227
 4325SOL     OW14806  11.307   1.265   9.180
 4325SOL    HW114807  11.247   1.219   9.238
 4325SOL    HW214808  11.374   1.301   9.238
 4326SOL     OW14809   7.196   1.519   7.984
 4326SOL    HW114810   7.115   1.563   7.958
 4326SOL    HW214811   7.224   1.564   8.064
 4327SOL     OW14812   9.846   6.139   5.046
 4327SOL    HW114813   9.802   6.194   5.111
 4327SOL    HW214814   9.934   6.126   5.080
 4328SOL     OW14815   2.966   5.586   4.413
 4328SOL    HW114816   2.873   5.574   4.430
 4328SOL    HW214817   2.979   5.680   4.411
 4329SOL     OW14818   1.109   1.121  11.682
 4329SOL    HW114819   1.188   1.073  11.658
 4329SOL    HW214820   1.140   1.192  11.738
 4330SOL     OW14821  13.347   8.035  11.309
 4330SOL    HW114822  13.264   8.073  11.336
 4330SOL    HW214823  13.327   7.993  11.225
 4331SOL     OW14824   5.736  11.802  10.821
 4331SOL    HW114825   5.776  11.890  10.818
 4331SOL    HW214826   5.775  11.756  10.747
 4332SOL     OW14827   0.173   2.730  13.860
 4332SOL    HW114828   0.171   2.747  13.954
 4332SOL    HW214829   0.110   2.791  13.823
 4333SOL     OW14830   2.112   3.832   0.959
 4333SOL    HW114831   2.081   3.918   0.987
 4333SOL    HW214832   2.189   3.850   0.906
 4334SOL     OW14833   9.102  14.809  13.470
 4334SOL    HW114834   9.163  14.765  13.530
 4334SOL    HW214835   9.088   0.019  13.510
 4335SOL     OW14836   5.151   8.832   8.778
 4335SOL    HW114837   5.169   8.787   8.861
 4335SOL    HW214838   5.238   8.853   8.742
 4336SOL     OW14839   8.153   0.538   7.892
 4336SOL    HW114840   8.093   0.613   7.894
 4336SOL    HW214841   8.229   0.568   7.942
 4337SOL     OW14842   5.484   4.807   6.395
 4337SOL    HW114843   5.485   4.716   6.365
 4337SOL    HW214844   5.561   4.814   6.451
 4338SOL     OW14845  11.958   0.138  10.554
 4338SOL    HW114846  12.051   0.140  10.579
 4338SOL    HW214847  11.941   0.225  10.517
 4339SOL     OW14848   5.378  14.385   7.094
 4339SOL    HW114849   5.418  14.425   7.016
 4339SOL    HW214850   5.438  14.314   7.118
 4340SOL     OW14851   2.323   2.338  10.761
 4340SOL    HW114852   2.290   2.279  10.828
 4340SOL    HW214853   2.411   2.306  10.741
 4341SOL     OW14854  13.075   7.114   4.486
 4341SOL    HW114855  13.169   7.102   4.499
 4341SOL    HW214856  13.056   7.199   4.524
 4342SOL     OW14857   1.818   3.288  12.640
 4342SOL    HW114858   1.808   3.270  12.733
 4342SOL    HW214859   1.735   3.328  12.614
 4343SOL     OW14860  14.474  11.245  10.903
 4343SOL    HW114861  14.534  11.188  10.951
 4343SOL    HW214862  14.529  11.286  10.836
 4344SOL     OW14863   2.888   8.419   0.506
 4344SOL    HW114864   2.813   8.475   0.488
 4344SOL    HW214865   2.851   8.330   0.509
 4345SOL     OW14866   4.687  10.030  13.748
 4345SOL    HW114867   4.744  10.089  13.798
 4345SOL    HW214868   4.738  10.009  13.670
 4346SOL     OW14869   7.680   5.669   9.842
 4346SOL    HW114870   7.627   5.734   9.795
 4346SOL    HW214871   7.652   5.679   9.933
 4347SOL     OW14872   4.272   1.896  13.977
 4347SOL    HW114873   4.191   1.846  13.987
 4347SOL    HW214874   4.337   1.846  14.028
 4348SOL     OW14875   2.964   3.445   4.101
 4348SOL    HW114876   2.942   3.395   4.180
 4348SOL    HW214877   2.916   3.400   4.031
 4349SOL     OW14878   9.794   9.305   9.029
 4349SOL    HW114879   9.810   9.274   9.118
 4349SOL    HW214880   9.880   9.306   8.987
 4350SOL     OW14881  13.290  13.645   0.782
 4350SOL    HW114882  13.232  13.719   0.765
 4350SOL    HW214883  13.241  13.590   0.843
 4351SOL     OW14884   3.227   6.928  11.728
 4351SOL    HW114885   3.314   6.930  11.767
 4351SOL    HW214886   3.168   6.941  11.802
 4352SOL     OW14887  10.112  11.570   4.583
 4352SOL    HW114888  10.151  11.501   4.638
 4352SOL    HW214889  10.028  11.588   4.625
 4353SOL     OW14890  10.099   2.357   9.475
 4353SOL    HW114891  10.062   2.443   9.455
 4353SOL    HW214892  10.122   2.361   9.568
 4354SOL     OW14893   1.889  11.650  14.534
 4354SOL    HW114894   1.854  11.646  14.445
 4354SOL    HW214895   1.838  11.585  14.583
 4355SOL     OW14896   3.319   4.751   9.556
 4355SOL    HW114897   3.249   4.805   9.591
 4355SOL    HW214898   3.392   4.812   9.541
 4356SOL     OW14899  12.116   4.539   2.820
 4356SOL    HW114900  12.179   4.558   2.750
 4356SOL    HW214901  12.035   4.581   2.790
 4357SOL     OW14902   0.922   3.088  12.688
 4357SOL    HW114903   0.897   3.152  12.754
 4357SOL    HW214904   0.885   3.006  12.718
 4358SOL     OW14905  13.395  12.036   4.608
 4358SOL    HW114906  13.445  11.958   4.632
 4358SOL    HW214907  13.421  12.054   4.517
 4359SOL     OW14908   5.066   0.734   7.768
 4359SOL    HW114909   5.071   0.702   7.678
 4359SOL    HW214910   4.976   0.764   7.778
 4360SOL     OW14911   8.071  11.220   8.842
 4360SOL    HW114912   8.000  11.156   8.839
 4360SOL    HW214913   8.066  11.265   8.757
 4361SOL     OW14914   5.935   9.684   8.683
 4361SOL    HW114915   5.896   9.598   8.696
 4361SOL    HW214916   5.861   9.745   8.684
 4362SOL     OW14917  11.977   0.779  14.318
 4362SOL    HW114918  12.056   0.725  14.326
 4362SOL    HW214919  11.957   0.779  14.225
 4363SOL     OW14920   1.131   4.920  10.056
 4363SOL    HW114921   1.060   4.974  10.092
 4363SOL    HW214922   1.188   4.904  10.131
 4364SOL     OW14923   3.699  14.040  12.509
 4364SOL    HW114924   3.769  14.080  12.561
 4364SOL    HW214925   3.734  13.956  12.481
 4365SOL     OW14926  12.689   0.181   0.216
 4365SOL    HW114927  12.611   0.133   0.244
 4365SOL    HW214928  12.754   0.163   0.284
 4366SOL     OW14929   9.372  10.988   4.701
 4366SOL    HW114930   9.356  10.974   4.608
 4366SOL    HW214931   9.307  11.052   4.727
 4367SOL     OW14932  12.038  10.197   4.374
 4367SOL    HW114933  11.962  10.256   4.372
 4367SOL    HW214934  12.048  10.174   4.466
 4368SOL     OW14935   0.399  14.326  14.165
 4368SOL    HW114936   0.442  14.310  14.248
 4368SOL    HW214937   0.365  14.241  14.138
 4369SOL     OW14938   8.311   4.320  12.471
 4369SOL    HW114939   8.279   4.353  12.554
 4369SOL    HW214940   8.402   4.296  12.488
 4370SOL     OW14941   0.328   4.315  12.974
 4370SOL    HW114942   0.275   4.250  12.927
 4370SOL    HW214943   0.336   4.279  13.063
 4371SOL     OW14944   0.253  14.105   5.825
 4371SOL    HW114945   0.316  14.096   5.753
 4371SOL    HW214946   0.211  14.019   5.830
 4372SOL     OW14947   0.704  11.783   2.293
 4372SOL    HW114948   0.684  11.781   2.200
 4372SOL    HW214949   0.619  11.780   2.337
 4373SOL     OW14950  12.825   6.992   1.324
 4373SOL    HW114951  12.857   6.977   1.413
 4373SOL    HW214952  12.879   7.062   1.290
 4374SOL     OW14953   1.033   9.972   7.438
 4374SOL    HW114954   1.025  10.064   7.461
 4374SOL    HW214955   1.128   9.955   7.437
 4375SOL     OW14956  12.329   5.191   7.369
 4375SOL    HW114957  12.256   5.156   7.318
 4375SOL    HW214958  12.290   5.261   7.421
 4376SOL     OW14959   7.873   9.245  14.725
 4376SOL    HW114960   7.861   9.204  14.811
 4376SOL    HW214961   7.949   9.303  14.736
 4377SOL     OW14962   7.722   6.728  13.715
 4377SOL    HW114963   7.776   6.767  13.647
 4377SOL    HW214964   7.657   6.796  13.735
 4378SOL     OW14965   1.758   5.352   5.337
 4378SOL    HW114966   1.835   5.338   5.392
 4378SOL    HW214967   1.787   5.415   5.271
 4379SOL     OW14968   4.478   1.648  13.695
 4379SOL    HW114969   4.454   1.562  13.730
 4379SOL    HW214970   4.399   1.679  13.652
 4380SOL     OW14971   5.207   3.958   6.116
 4380SOL    HW114972   5.143   3.887   6.105
 4380SOL    HW214973   5.177   4.026   6.056
 4381SOL     OW14974  11.719   5.402   1.409
 4381SOL    HW114975  11.771   5.383   1.331
 4381SOL    HW214976  11.700   5.315   1.446
 4382SOL     OW14977  12.965   8.909   9.974
 4382SOL    HW114978  12.956   8.892  10.068
 4382SOL    HW214979  12.960   9.004   9.967
 4383SOL     OW14980   8.481  14.146   6.378
 4383SOL    HW114981   8.421  14.177   6.446
 4383SOL    HW214982   8.450  14.187   6.298
 4384SOL     OW14983   6.386  13.766  13.890
 4384SOL    HW114984   6.467  13.733  13.928
 4384SOL    HW214985   6.383  13.858  13.915
 4385SOL     OW14986   7.401   1.982  12.515
 4385SOL    HW114987   7.431   2.016  12.431
 4385SOL    HW214988   7.477   1.936  12.551
 4386SOL     OW14989   8.839   8.409   7.960
 4386SOL    HW114990   8.849   8.315   7.942
 4386SOL    HW214991   8.928   8.440   7.974
 4387SOL     OW14992   6.865  14.297  11.971
 4387SOL    HW114993   6.875  14.346  11.889
 4387SOL    HW214994   6.807  14.225  11.950
 4388SOL     OW14995  13.074  13.496   3.622
 4388SOL    HW114996  13.146  13.446   3.659
 4388SOL    HW214997  12.995  13.448   3.649
 4389SOL     OW14998   2.906  12.017   8.154
 4389SOL    HW114999   2.833  11.956   8.142
 4389SOL    HW215000   2.892  12.055   8.241
 4390SOL     OW15001   5.481  13.167  14.580
 4390SOL    HW115002   5.533  13.087  14.584
 4390SOL    HW215003   5.488  13.205  14.668
 4391SOL     OW15004  14.313  13.104  12.145
 4391SOL    HW115005  14.305  13.038  12.076
 4391SOL    HW215006  14.395  13.081  12.190
 4392SOL     OW15007   1.803   9.227   0.239
 4392SOL    HW115008   1.716   9.266   0.247
 4392SOL    HW215009   1.791   9.136   0.266
 4393SOL     OW15010  11.004   0.556  11.570
 4393SOL    HW115011  10.975   0.588  11.656
 4393SOL    HW215012  11.056   0.478  11.590
 4394SOL     OW15013   1.340   9.926   4.603
 4394SOL    HW115014   1.404   9.898   4.668
 4394SOL    HW215015   1.261   9.877   4.625
 4395SOL     OW15016   4.453   2.148   3.679
 4395SOL    HW115017   4.545   2.172   3.687
 4395SOL    HW215018   4.454   2.056   3.650
 4396SOL     OW15019   5.499   1.040  14.485
 4396SOL    HW115020   5.574   1.003  14.532
 4396SOL    HW215021   5.446   0.963  14.462
 4397SOL     OW15022   5.668   8.970  13.036
 4397SOL    HW115023   5.592   9.023  13.058
 4397SOL    HW215024   5.721   9.025  12.978
 4398SOL     OW15025  14.477   3.870   1.577
 4398SOL    HW115026  14.495   3.920   1.498
 4398SOL    HW215027  14.413   3.804   1.551
 4399SOL     OW15028   6.537  11.608  12.511
 4399SOL    HW115029   6.567  11.517  12.514
 4399SOL    HW215030   6.585  11.646  12.438
 4400SOL     OW15031   3.334  11.214  12.420
 4400SOL    HW115032   3.278  11.264  12.361
 4400SOL    HW215033   3.308  11.243  12.507
 4401SOL     OW15034  12.597   2.917   2.533
 4401SOL    HW115035  12.583   2.985   2.467
 4401SOL    HW215036  12.626   2.840   2.483
 4402SOL     OW15037   0.739   6.473   5.340
 4402SOL    HW115038   0.787   6.392   5.354
 4402SOL    HW215039   0.650   6.446   5.318
 4403SOL     OW15040  10.062   6.730  11.167
 4403SOL    HW115041   9.983   6.691  11.130
 4403SOL    HW215042  10.077   6.810  11.116
 4404SOL     OW15043   0.263   6.682  13.002
 4404SOL    HW115044   0.335   6.634  12.962
 4404SOL    HW215045   0.254   6.644  13.089
 4405SOL     OW15046  11.208   8.002  10.869
 4405SOL    HW115047  11.265   8.063  10.822
 4405SOL    HW215048  11.218   8.025  10.961
 4406SOL     OW15049   8.996   3.276  10.252
 4406SOL    HW115050   8.949   3.249  10.331
 4406SOL    HW215051   8.995   3.372  10.255
 4407SOL     OW15052   0.656  11.429   9.134
 4407SOL    HW115053   0.570  11.407   9.170
 4407SOL    HW215054   0.640  11.450   9.042
 4408SOL     OW15055   4.931   2.241  11.824
 4408SOL    HW115056   5.004   2.250  11.885
 4408SOL    HW215057   4.971   2.210  11.742
 4409SOL     OW15058   7.130   3.857  14.743
 4409SOL    HW115059   7.058   3.917  14.761
 4409SOL    HW215060   7.205   3.914  14.724
 4410SOL     OW15061  13.137  10.793   3.631
 4410SOL    HW115062  13.114  10.707   3.666
 4410SOL    HW215063  13.065  10.850   3.659
 4411SOL     OW15064   3.736  11.127  13.876
 4411SOL    HW115065   3.749  11.214  13.838
 4411SOL    HW215066   3.644  11.126  13.901
 4412SOL     OW15067  11.681  10.470   8.627
 4412SOL    HW115068  11.730  10.446   8.705
 4412SOL    HW215069  11.653  10.560   8.642
 4413SOL     OW15070   3.128   1.886   9.456
 4413SOL    HW115071   3.171   1.958   9.501
 4413SOL    HW215072   3.170   1.883   9.370
 4414SOL     OW15073   1.344   6.726  13.246
 4414SOL    HW115074   1.330   6.721  13.151
 4414SOL    HW215075   1.255   6.721  13.282
 4415SOL     OW15076   5.915   7.420   3.836
 4415SOL    HW115077   5.891   7.398   3.746
 4415SOL    HW215078   5.969   7.347   3.865
 4416SOL     OW15079   8.944   8.448   2.312
 4416SOL    HW115080   8.860   8.410   2.286
 4416SOL    HW215081   9.009   8.383   2.286
 4417SOL     OW15082   0.045   9.401   5.857
 4417SOL    HW115083   0.031   9.461   5.930
 4417SOL    HW215084   0.137   9.411   5.835
 4418SOL     OW15085   9.781  12.655   9.570
 4418SOL    HW115086   9.693  12.692   9.558
 4418SOL    HW215087   9.782  12.576   9.515
 4419SOL     OW15088   6.513  12.294  11.534
 4419SOL    HW115089   6.548  12.207  11.515
 4419SOL    HW215090   6.463  12.283  11.614
 4420SOL     OW15091   3.640  12.933   9.605
 4420SOL    HW115092   3.705  12.994   9.571
 4420SOL    HW215093   3.652  12.853   9.554
 4421SOL     OW15094   0.277   2.446  11.004
 4421SOL    HW115095   0.197   2.433  11.054
 4421SOL    HW215096   0.280   2.372  10.944
 4422SOL     OW15097   0.213   1.973   5.977
 4422SOL    HW115098   0.163   1.958   6.058
 4422SOL    HW215099   0.147   2.001   5.914
 4423SOL     OW15100  14.256   0.956   5.272
 4423SOL    HW115101  14.175   0.917   5.240
 4423SOL    HW215102  14.304   0.978   5.192
 4424SOL     OW15103   0.806  10.231  10.887
 4424SOL    HW115104   0.739  10.180  10.842
 4424SOL    HW215105   0.783  10.322  10.870
 4425SOL     OW15106  13.366   0.571   5.022
 4425SOL    HW115107  13.427   0.644   5.035
 4425SOL    HW215108  13.280   0.610   5.039
 4426SOL     OW15109  12.729   1.890   1.208
 4426SOL    HW115110  12.655   1.848   1.251
 4426SOL    HW215111  12.754   1.961   1.267
 4427SOL     OW15112   0.837  10.536   7.925
 4427SOL    HW115113   0.903  10.601   7.947
 4427SOL    HW215114   0.757  10.586   7.912
 4428SOL     OW15115   9.324   0.556  14.124
 4428SOL    HW115116   9.252   0.526  14.179
 4428SOL    HW215117   9.394   0.493  14.139
 4429SOL     OW15118   3.721   1.315   4.427
 4429SOL    HW115119   3.649   1.268   4.386
 4429SOL    HW215120   3.681   1.395   4.463
 4430SOL     OW15121  12.027   2.952  14.585
 4430SOL    HW115122  12.094   2.984  14.645
 4430SOL    HW215123  12.073   2.895  14.524
 4431SOL     OW15124  11.957  10.265   0.598
 4431SOL    HW115125  12.003  10.315   0.532
 4431SOL    HW215126  11.881  10.319   0.621
 4432SOL     OW15127   5.723  13.504   8.784
 4432SOL    HW115128   5.715  13.576   8.847
 4432SOL    HW215129   5.745  13.547   8.701
 4433SOL     OW15130   9.222   1.491   0.334
 4433SOL    HW115131   9.197   1.584   0.331
 4433SOL    HW215132   9.148   1.448   0.377
 4434SOL     OW15133  11.569   8.378   3.612
 4434SOL    HW115134  11.567   8.336   3.526
 4434SOL    HW215135  11.662   8.393   3.629
 4435SOL     OW15136   0.620  13.506   3.443
 4435SOL    HW115137   0.541  13.493   3.495
 4435SOL    HW215138   0.665  13.421   3.446
 4436SOL     OW15139  11.546  11.842  11.210
 4436SOL    HW115140  11.493  11.832  11.288
 4436SOL    HW215141  11.636  11.840  11.242
 4437SOL     OW15142  10.637  11.381   9.501
 4437SOL    HW115143  10.662  11.290   9.516
 4437SOL    HW215144  10.699  11.413   9.436
 4438SOL     OW15145   8.014   7.139   3.207
 4438SOL    HW115146   7.978   7.151   3.120
 4438SOL    HW215147   8.104   7.109   3.192
 4439SOL     OW15148  14.354  12.099   9.838
 4439SOL    HW115149  14.330  12.008   9.820
 4439SOL    HW215150  14.288  12.130   9.899
 4440SOL     OW15151   9.872   2.707   0.031
 4440SOL    HW115152   9.931   2.655  14.853
 4440SOL    HW215153   9.929   2.755   0.090
 4441SOL     OW15154   6.979   8.707   8.943
 4441SOL    HW115155   6.925   8.672   9.014
 4441SOL    HW215156   6.916   8.747   8.883
 4442SOL     OW15157  14.068   4.876   3.298
 4442SOL    HW115158  14.042   4.917   3.381
 4442SOL    HW215159  14.022   4.926   3.231
 4443SOL     OW15160   7.927   3.156   0.826
 4443SOL    HW115161   7.860   3.115   0.772
 4443SOL    HW215162   7.895   3.245   0.842
 4444SOL     OW15163   5.121   3.006   4.206
 4444SOL    HW115164   5.191   3.057   4.165
 4444SOL    HW215165   5.166   2.936   4.252
 4445SOL     OW15166  10.432  13.043   2.937
 4445SOL    HW115167  10.481  12.975   2.892
 4445SOL    HW215168  10.368  13.074   2.872
 4446SOL     OW15169   0.395   8.419   0.827
 4446SOL    HW115170   0.364   8.368   0.752
 4446SOL    HW215171   0.479   8.455   0.798
 4447SOL     OW15172   2.473   0.975   0.023
 4447SOL    HW115173   2.527   0.989   0.101
 4447SOL    HW215174   2.433   1.060   0.006
 4448SOL     OW15175  14.434   0.895  13.768
 4448SOL    HW115176  14.504   0.880  13.832
 4448SOL    HW215177  14.370   0.948  13.814
 4449SOL     OW15178  12.698   3.309  12.996
 4449SOL    HW115179  12.764   3.257  13.043
 4449SOL    HW215180  12.641   3.342  13.065
 4450SOL     OW15181   5.902   0.837   6.294
 4450SOL    HW115182   5.883   0.756   6.246
 4450SOL    HW215183   5.868   0.906   6.237
 4451SOL     OW15184   6.952  13.585   0.572
 4451SOL    HW115185   6.921  13.564   0.661
 4451SOL    HW215186   7.046  13.570   0.576
 4452SOL     OW15187   4.260  13.664   8.294
 4452SOL    HW115188   4.227  13.679   8.383
 4452SOL    HW215189   4.265  13.751   8.255
 4453SOL     OW15190   3.821   3.939  11.837
 4453SOL    HW115191   3.759   3.919  11.768
 4453SOL    HW215192   3.890   3.991  11.794
 4454SOL     OW15193  10.015   8.183   2.911
 4454SOL    HW115194   9.960   8.108   2.936
 4454SOL    HW215195  10.084   8.144   2.857
 4455SOL     OW15196   0.414   7.305   0.569
 4455SOL    HW115197   0.386   7.396   0.574
 4455SOL    HW215198   0.335   7.257   0.545
 4456SOL     OW15199   7.085   2.344   8.836
 4456SOL    HW115200   7.067   2.342   8.930
 4456SOL    HW215201   7.172   2.385   8.829
 4457SOL     OW15202   6.576   7.532   3.062
 4457SOL    HW115203   6.573   7.574   3.148
 4457SOL    HW215204   6.616   7.597   3.005
 4458SOL     OW15205   7.834   4.544   9.138
 4458SOL    HW115206   7.876   4.624   9.168
 4458SOL    HW215207   7.865   4.533   9.048
 4459SOL     OW15208   5.698   2.142  12.980
 4459SOL    HW115209   5.707   2.060  13.028
 4459SOL    HW215210   5.637   2.194  13.032
 4460SOL     OW15211  12.268   4.581   0.279
 4460SOL    HW115212  12.245   4.489   0.271
 4460SOL    HW215213  12.361   4.580   0.304
 4461SOL     OW15214   6.134   5.590  11.935
 4461SOL    HW115215   6.126   5.568  12.028
 4461SOL    HW215216   6.076   5.528  11.891
 4462SOL     OW15217   1.869  11.669  13.641
 4462SOL    HW115218   1.775  11.686  13.632
 4462SOL    HW215219   1.883  11.586  13.595
 4463SOL     OW15220  12.833   9.983  13.685
 4463SOL    HW115221  12.757   9.951  13.637
 4463SOL    HW215222  12.871  10.049  13.627
 4464SOL     OW15223  10.739   3.731   0.034
 4464SOL    HW115224  10.748   3.648   0.081
 4464SOL    HW215225  10.783   3.795   0.089
 4465SOL     OW15226   4.452  10.045  10.444
 4465SOL    HW115227   4.528  10.048  10.502
 4465SOL    HW215228   4.409   9.962  10.466
 4466SOL     OW15229   2.062   0.691   7.584
 4466SOL    HW115230   2.093   0.629   7.518
 4466SOL    HW215231   1.971   0.710   7.559
 4467SOL     OW15232  14.121  14.743   4.600
 4467SOL    HW115233  14.040  14.707   4.636
 4467SOL    HW215234  14.133  14.696   4.517
 4468SOL     OW15235   5.179   8.059   1.016
 4468SOL    HW115236   5.162   8.076   0.923
 4468SOL    HW215237   5.099   8.088   1.060
 4469SOL     OW15238  10.028   3.161   3.079
 4469SOL    HW115239  10.065   3.099   3.016
 4469SOL    HW215240   9.993   3.106   3.149
 4470SOL     OW15241  14.523   5.620   4.245
 4470SOL    HW115242  14.483   5.589   4.326
 4470SOL    HW215243  14.450   5.655   4.194
 4471SOL     OW15244   1.294   5.156   8.131
 4471SOL    HW115245   1.297   5.251   8.122
 4471SOL    HW215246   1.296   5.124   8.041
 4472SOL     OW15247   3.935   9.418  12.156
 4472SOL    HW115248   3.894   9.388  12.238
 4472SOL    HW215249   3.909   9.353  12.091
 4473SOL     OW15250  12.236  12.140  10.988
 4473SOL    HW115251  12.197  12.214  11.035
 4473SOL    HW215252  12.261  12.176  10.903
 4474SOL     OW15253  10.002  12.778   3.685
 4474SOL    HW115254  10.054  12.858   3.678
 4474SOL    HW215255   9.912  12.806   3.670
 4475SOL     OW15256  12.755   3.868  10.134
 4475SOL    HW115257  12.841   3.884  10.172
 4475SOL    HW215258  12.743   3.773  10.141
 4476SOL     OW15259   2.489   0.329  11.840
 4476SOL    HW115260   2.532   0.334  11.755
 4476SOL    HW215261   2.396   0.318  11.821
 4477SOL     OW15262  11.979  10.273  12.036
 4477SOL    HW115263  11.908  10.229  12.083
 4477SOL    HW215264  12.059  10.236  12.073
 4478SOL     OW15265  11.768   7.292  14.405
 4478SOL    HW115266  11.813   7.259  14.483
 4478SOL    HW215267  11.675   7.287  14.428
 4479SOL     OW15268   1.966   0.395  11.186
 4479SOL    HW115269   2.030   0.401  11.257
 4479SOL    HW215270   1.890   0.352  11.225
 4480SOL     OW15271  14.730   7.686  11.895
 4480SOL    HW115272  14.798   7.642  11.945
 4480SOL    HW215273  14.776   7.728  11.822
 4481SOL     OW15274  12.398  14.082   4.266
 4481SOL    HW115275  12.420  14.170   4.238
 4481SOL    HW215276  12.303  14.076   4.254
 4482SOL     OW15277  14.503   6.319   2.293
 4482SOL    HW115278  14.514   6.357   2.206
 4482SOL    HW215279  14.412   6.287   2.294
 4483SOL     OW15280  12.142  13.608  11.479
 4483SOL    HW115281  12.226  13.600  11.524
 4483SOL    HW215282  12.112  13.697  11.500
 4484SOL     OW15283   2.967  13.000   0.165
 4484SOL    HW115284   2.933  13.020   0.252
 4484SOL    HW215285   3.037  13.064   0.150
 4485SOL     OW15286   8.940   9.031  10.825
 4485SOL    HW115287   8.855   9.051  10.786
 4485SOL    HW215288   8.930   9.055  10.917
 4486SOL     OW15289   8.963   4.048  14.803
 4486SOL    HW115290   8.886   4.059  14.859
 4486SOL    HW215291   8.985   4.137  14.775
 4487SOL     OW15292   1.167  13.673   1.683
 4487SOL    HW115293   1.150  13.766   1.698
 4487SOL    HW215294   1.245  13.672   1.627
 4488SOL     OW15295   7.621   6.662  14.731
 4488SOL    HW115296   7.613   6.728  14.801
 4488SOL    HW215297   7.630   6.714  14.651
 4489SOL     OW15298  10.995  13.507   0.018
 4489SOL    HW115299  11.020  13.500   0.110
 4489SOL    HW215300  11.078  13.504  14.846
 4490SOL     OW15301  13.077   7.500   2.349
 4490SOL    HW115302  13.070   7.409   2.323
 4490SOL    HW215303  13.170   7.511   2.371
 4491SOL     OW15304   6.342   5.862   0.516
 4491SOL    HW115305   6.378   5.882   0.602
 4491SOL    HW215306   6.280   5.791   0.531
 4492SOL     OW15307   1.211  14.665  11.006
 4492SOL    HW115308   1.259  14.659  10.923
 4492SOL    HW215309   1.134  14.718  10.985
 4493SOL     OW15310   4.280   8.494   3.947
 4493SOL    HW115311   4.222   8.452   4.010
 4493SOL    HW215312   4.330   8.422   3.907
 4494SOL     OW15313  11.690  13.474   8.011
 4494SOL    HW115314  11.763  13.529   8.037
 4494SOL    HW215315  11.726  13.386   8.007
 4495SOL     OW15316   9.205   7.743   0.974
 4495SOL    HW115317   9.211   7.786   0.888
 4495SOL    HW215318   9.111   7.739   0.991
 4496SOL     OW15319  11.313   5.076  10.224
 4496SOL    HW115320  11.322   5.124  10.142
 4496SOL    HW215321  11.219   5.061  10.233
 4497SOL     OW15322   4.550  10.507   1.187
 4497SOL    HW115323   4.564  10.582   1.245
 4497SOL    HW215324   4.501  10.444   1.240
 4498SOL     OW15325  10.932   7.512   9.792
 4498SOL    HW115326  10.955   7.524   9.700
 4498SOL    HW215327  10.980   7.582   9.838
 4499SOL     OW15328   8.338   3.626  13.570
 4499SOL    HW115329   8.357   3.674  13.651
 4499SOL    HW215330   8.292   3.690  13.515
 4500SOL     OW15331   6.467   5.358   9.713
 4500SOL    HW115332   6.487   5.278   9.664
 4500SOL    HW215333   6.550   5.381   9.756
 4501SOL     OW15334   4.317   8.356  13.477
 4501SOL    HW115335   4.268   8.302  13.538
 4501SOL    HW215336   4.263   8.358  13.398
 4502SOL     OW15337  12.080   5.165   5.178
 4502SOL    HW115338  11.989   5.196   5.176
 4502SOL    HW215339  12.117   5.205   5.257
 4503SOL     OW15340   2.582   9.033   5.968
 4503SOL    HW115341   2.628   9.116   5.961
 4503SOL    HW215342   2.489   9.057   5.970
 4504SOL     OW15343   3.298  13.831   8.803
 4504SOL    HW115344   3.313  13.832   8.898
 4504SOL    HW215345   3.385  13.834   8.764
 4505SOL     OW15346   3.103  10.068   3.083
 4505SOL    HW115347   3.134   9.984   3.116
 4505SOL    HW215348   3.174  10.101   3.027
 4506SOL     OW15349   3.253  13.944   2.194
 4506SOL    HW115350   3.189  13.982   2.135
 4506SOL    HW215351   3.211  13.866   2.229
 4507SOL     OW15352   5.076   3.692   2.038
 4507SOL    HW115353   5.037   3.777   2.057
 4507SOL    HW215354   5.145   3.682   2.104
 4508SOL     OW15355   4.267   4.364  13.986
 4508SOL    HW115356   4.270   4.454  14.019
 4508SOL    HW215357   4.335   4.318  14.034
 4509SOL     OW15358   7.775   4.434  13.959
 4509SOL    HW115359   7.680   4.437  13.968
 4509SOL    HW215360   7.807   4.507  14.012
 4510SOL     OW15361  13.068   8.718  14.258
 4510SOL    HW115362  13.104   8.785  14.199
 4510SOL    HW215363  13.137   8.651  14.263
 4511SOL     OW15364   8.401   5.880   6.995
 4511SOL    HW115365   8.406   5.970   6.962
 4511SOL    HW215366   8.475   5.872   7.054
 4512SOL     OW15367  10.069   2.357   4.917
 4512SOL    HW115368  10.132   2.394   4.980
 4512SOL    HW215369  10.007   2.308   4.971
 4513SOL     OW15370  12.448  11.476  13.680
 4513SOL    HW115371  12.393  11.529  13.737
 4513SOL    HW215372  12.429  11.386  13.706
 4514SOL     OW15373  12.452   1.227  14.797
 4514SOL    HW115374  12.468   1.315  14.831
 4514SOL    HW215375  12.359   1.227  14.773
 4515SOL     OW15376   5.184   1.798   1.309
 4515SOL    HW115377   5.233   1.832   1.384
 4515SOL    HW215378   5.152   1.876   1.264
 4516SOL     OW15379   2.260  14.739   1.058
 4516SOL    HW115380   2.186  14.736   1.118
 4516SOL    HW215381   2.219  14.753   0.972
 4517SOL     OW15382   6.872   3.771   4.359
 4517SOL    HW115383   6.866   3.866   4.348
 4517SOL    HW215384   6.855   3.736   4.271
 4518SOL     OW15385  12.010   9.109   7.728
 4518SOL    HW115386  12.071   9.126   7.800
 4518SOL    HW215387  11.923   9.119   7.767
 4519SOL     OW15388   5.743  10.107   2.032
 4519SOL    HW115389   5.803  10.036   2.011
 4519SOL    HW215390   5.740  10.160   1.952
 4520SOL     OW15391  13.884   5.947   3.910
 4520SOL    HW115392  13.909   5.962   4.001
 4520SOL    HW215393  13.840   5.862   3.911
 4521SOL     OW15394   8.093   1.009  13.799
 4521SOL    HW115395   8.162   1.044  13.742
 4521SOL    HW215396   8.040   0.954  13.741
 4522SOL     OW15397   4.350  13.799  10.220
 4522SOL    HW115398   4.294  13.765  10.289
 4522SOL    HW215399   4.296  13.864  10.174
 4523SOL     OW15400   1.105   1.429   1.831
 4523SOL    HW115401   1.185   1.385   1.860
 4523SOL    HW215402   1.034   1.371   1.857
 4524SOL     OW15403   5.254  10.929   9.746
 4524SOL    HW115404   5.261  10.845   9.791
 4524SOL    HW215405   5.316  10.986   9.792
 4525SOL     OW15406   3.621   9.569  14.617
 4525SOL    HW115407   3.604   9.661  14.638
 4525SOL    HW215408   3.538   9.537  14.580
 4526SOL     OW15409   0.092  10.156   2.583
 4526SOL    HW115410   0.076  10.062   2.590
 4526SOL    HW215411   0.014  10.197   2.622
 4527SOL     OW15412   0.420   7.506   4.132
 4527SOL    HW115413   0.346   7.447   4.145
 4527SOL    HW215414   0.460   7.514   4.219
 4528SOL     OW15415   0.002   3.519  13.527
 4528SOL    HW115416  14.818   3.456  13.487
 4528SOL    HW215417   0.015   3.487  13.616
 4529SOL     OW15418  12.299  10.184   4.722
 4529SOL    HW115419  12.236  10.239   4.769
 4529SOL    HW215420  12.384  10.214   4.752
 4530SOL     OW15421   9.229   0.251   6.639
 4530SOL    HW115422   9.139   0.225   6.617
 4530SOL    HW215423   9.237   0.231   6.732
 4531SOL     OW15424   9.264   9.310   0.069
 4531SOL    HW115425   9.181   9.348   0.041
 4531SOL    HW215426   9.264   9.320   0.164
 4532SOL     OW15427   1.891   8.404  14.337
 4532SOL    HW115428   1.929   8.432  14.420
 4532SOL    HW215429   1.905   8.309  14.335
 4533SOL     OW15430   7.412   3.621   2.900
 4533SOL    HW115431   7.362   3.579   2.970
 4533SOL    HW215432   7.465   3.687   2.945
 4534SOL     OW15433   5.145  13.395   7.714
 4534SOL    HW115434   5.227  13.388   7.665
 4534SOL    HW215435   5.077  13.381   7.649
 4535SOL     OW15436  13.653   7.359   6.170
 4535SOL    HW115437  13.727   7.379   6.113
 4535SOL    HW215438  13.679   7.278   6.215
 4536SOL     OW15439   8.592   6.424   1.659
 4536SOL    HW115440   8.628   6.415   1.571
 4536SOL    HW215441   8.669   6.428   1.717
 4537SOL     OW15442   5.682   2.504  13.498
 4537SOL    HW115443   5.617   2.574  13.490
 4537SOL    HW215444   5.766   2.547  13.481
 4538SOL     OW15445  10.451  14.843  13.971
 4538SOL    HW115446  10.504  14.801  14.039
 4538SOL    HW215447  10.400   0.033  14.018
 4539SOL     OW15448   9.655   6.355   7.018
 4539SOL    HW115449   9.676   6.277   7.070
 4539SOL    HW215450   9.565   6.341   6.989
 4540SOL     OW15451   2.623  11.106   1.501
 4540SOL    HW115452   2.658  11.104   1.412
 4540SOL    HW215453   2.589  11.195   1.511
 4541SOL     OW15454   1.877   0.810  12.872
 4541SOL    HW115455   1.945   0.874  12.896
 4541SOL    HW215456   1.923   0.726  12.873
 4542SOL     OW15457  13.252   7.303   0.165
 4542SOL    HW115458  13.338   7.272   0.137
 4542SOL    HW215459  13.193   7.230   0.147
 4543SOL     OW15460   6.057   0.299   7.048
 4543SOL    HW115461   6.030   0.228   6.990
 4543SOL    HW215462   5.979   0.320   7.099
 4544SOL     OW15463  10.580   7.281   4.897
 4544SOL    HW115464  10.540   7.340   4.961
 4544SOL    HW215465  10.518   7.208   4.890
 4545SOL     OW15466   4.641   3.030  13.496
 4545SOL    HW115467   4.732   3.018  13.469
 4545SOL    HW215468   4.639   3.116  13.537
 4546SOL     OW15469   9.234   4.794  13.669
 4546SOL    HW115470   9.298   4.725  13.687
 4546SOL    HW215471   9.276   4.874  13.699
 4547SOL     OW15472   0.468  10.750  10.315
 4547SOL    HW115473   0.381  10.790  10.310
 4547SOL    HW215474   0.519  10.794  10.247
 4548SOL     OW15475   0.147   5.831   6.541
 4548SOL    HW115476   0.188   5.763   6.594
 4548SOL    HW215477   0.194   5.911   6.563
 4549SOL     OW15478  10.719   2.803  13.812
 4549SOL    HW115479  10.814   2.802  13.824
 4549SOL    HW215480  10.705   2.823  13.720
 4550SOL     OW15481   8.638  13.379   3.799
 4550SOL    HW115482   8.671  13.334   3.877
 4550SOL    HW215483   8.564  13.326   3.770
 4551SOL     OW15484   6.482  12.241   4.229
 4551SOL    HW115485   6.565  12.283   4.205
 4551SOL    HW215486   6.506  12.175   4.293
 4552SOL     OW15487   7.166  11.257   2.897
 4552SOL    HW115488   7.197  11.343   2.870
 4552SOL    HW215489   7.073  11.269   2.916
 4553SOL     OW15490  10.774   8.186   6.869
 4553SOL    HW115491  10.685   8.153   6.878
 4553SOL    HW215492  10.789   8.191   6.775
 4554SOL     OW15493   5.202   3.273   4.325
 4554SOL    HW115494   5.291   3.253   4.356
 4554SOL    HW215495   5.156   3.189   4.330
 4555SOL     OW15496  10.087   7.770   3.858
 4555SOL    HW115497  10.134   7.825   3.920
 4555SOL    HW215498  10.153   7.709   3.825
 4556SOL     OW15499   8.266   3.717  11.748
 4556SOL    HW115500   8.279   3.643  11.688
 4556SOL    HW215501   8.244   3.676  11.831
 4557SOL     OW15502   9.479   5.362   3.855
 4557SOL    HW115503   9.535   5.285   3.843
 4557SOL    HW215504   9.406   5.331   3.909
 4558SOL     OW15505  10.200   9.189   0.478
 4558SOL    HW115506  10.292   9.178   0.504
 4558SOL    HW215507  10.189   9.130   0.403
 4559SOL     OW15508   4.612   5.323   2.903
 4559SOL    HW115509   4.517   5.326   2.892
 4559SOL    HW215510   4.645   5.391   2.845
 4560SOL     OW15511   0.111   3.649   8.686
 4560SOL    HW115512   0.162   3.572   8.662
 4560SOL    HW215513   0.177   3.715   8.709
 4561SOL     OW15514   0.021   4.599   6.003
 4561SOL    HW115515   0.036   4.523   6.059
 4561SOL    HW215516   0.043   4.674   6.057
 4562SOL     OW15517   9.470   6.511  11.006
 4562SOL    HW115518   9.554   6.514  11.052
 4562SOL    HW215519   9.433   6.426  11.028
 4563SOL     OW15520  10.222   0.840   5.757
 4563SOL    HW115521  10.153   0.870   5.817
 4563SOL    HW215522  10.209   0.893   5.678
 4564SOL     OW15523   0.821   4.871   7.418
 4564SOL    HW115524   0.766   4.895   7.343
 4564SOL    HW215525   0.760   4.866   7.492
 4565SOL     OW15526   3.244   4.408   5.353
 4565SOL    HW115527   3.239   4.327   5.404
 4565SOL    HW215528   3.331   4.444   5.374
 4566SOL     OW15529   1.747   0.810  10.614
 4566SOL    HW115530   1.670   0.759  10.591
 4566SOL    HW215531   1.789   0.760  10.684
 4567SOL     OW15532   9.912   3.046   5.653
 4567SOL    HW115533   9.914   3.012   5.564
 4567SOL    HW215534   9.820   3.044   5.678
 4568SOL     OW15535  14.222   6.067   0.948
 4568SOL    HW115536  14.299   6.108   0.910
 4568SOL    HW215537  14.157   6.069   0.878
 4569SOL     OW15538   7.309  11.502  10.949
 4569SOL    HW115539   7.267  11.560  11.011
 4569SOL    HW215540   7.337  11.426  11.001
 4570SOL     OW15541   2.292   8.648  13.969
 4570SOL    HW115542   2.316   8.598  13.890
 4570SOL    HW215543   2.197   8.659  13.963
 4571SOL     OW15544   3.401   0.579   5.937
 4571SOL    HW115545   3.430   0.516   6.002
 4571SOL    HW215546   3.307   0.562   5.927
 4572SOL     OW15547   9.770   5.393   4.126
 4572SOL    HW115548   9.675   5.387   4.128
 4572SOL    HW215549   9.798   5.326   4.063
 4573SOL     OW15550   8.521   2.865  12.328
 4573SOL    HW115551   8.447   2.875  12.269
 4573SOL    HW215552   8.485   2.825  12.406
 4574SOL     OW15553   7.650   3.169   8.428
 4574SOL    HW115554   7.657   3.103   8.497
 4574SOL    HW215555   7.694   3.246   8.465
 4575SOL     OW15556  14.564   8.657   3.425
 4575SOL    HW115557  14.624   8.731   3.419
 4575SOL    HW215558  14.485   8.688   3.380
 4576SOL     OW15559   0.714   1.295  10.891
 4576SOL    HW115560   0.699   1.206  10.923
 4576SOL    HW215561   0.681   1.352  10.960
 4577SOL     OW15562   8.529   1.575   0.587
 4577SOL    HW115563   8.453   1.588   0.645
 4577SOL    HW215564   8.598   1.628   0.626
 4578SOL     OW15565  12.543  12.835  14.724
 4578SOL    HW115566  12.597  12.757  14.716
 4578SOL    HW215567  12.482  12.815  14.795
 4579SOL     OW15568  10.950  11.528  13.290
 4579SOL    HW115569  11.038  11.555  13.314
 4579SOL    HW215570  10.933  11.573  13.207
 4580SOL     OW15571   1.134  12.158   4.939
 4580SOL    HW115572   1.116  12.235   4.885
 4580SOL    HW215573   1.090  12.175   5.022
 4581SOL     OW15574   5.161   1.938  12.531
 4581SOL    HW115575   5.082   1.891  12.556
 4581SOL    HW215576   5.188   1.897  12.449
 4582SOL     OW15577   5.102   9.898   8.260
 4582SOL    HW115578   5.176   9.880   8.203
 4582SOL    HW215579   5.027   9.903   8.200
 4583SOL     OW15580  10.046   2.102  12.536
 4583SOL    HW115581  10.000   2.183  12.516
 4583SOL    HW215582  10.035   2.091  12.630
 4584SOL     OW15583   7.798   9.911  10.886
 4584SOL    HW115584   7.784   9.850  10.959
 4584SOL    HW215585   7.794   9.855  10.808
 4585SOL     OW15586   8.225   1.754  11.089
 4585SOL    HW115587   8.150   1.755  11.029
 4585SOL    HW215588   8.277   1.830  11.064
 4586SOL     OW15589  10.542  11.251   0.977
 4586SOL    HW115590  10.617  11.290   0.932
 4586SOL    HW215591  10.466  11.295   0.938
 4587SOL     OW15592   0.430   1.133  11.345
 4587SOL    HW115593   0.401   1.224  11.338
 4587SOL    HW215594   0.403   1.093  11.263
 4588SOL     OW15595   6.783   8.224   1.678
 4588SOL    HW115596   6.693   8.234   1.708
 4588SOL    HW215597   6.800   8.130   1.681
 4589SOL     OW15598   5.425   2.691   6.353
 4589SOL    HW115599   5.514   2.716   6.330
 4589SOL    HW215600   5.436   2.620   6.417
 4590SOL     OW15601   3.612  14.649   6.484
 4590SOL    HW115602   3.602  14.569   6.433
 4590SOL    HW215603   3.552  14.637   6.559
 4591SOL     OW15604   9.987  13.484   6.470
 4591SOL    HW115605   9.988  13.392   6.497
 4591SOL    HW215606  10.068  13.495   6.420
 4592SOL     OW15607   5.854  14.524  12.072
 4592SOL    HW115608   5.871  14.447  12.125
 4592SOL    HW215609   5.806  14.584  12.130
 4593SOL     OW15610   1.030   6.095  14.723
 4593SOL    HW115611   1.032   6.112  14.629
 4593SOL    HW215612   0.939   6.110  14.749
 4594SOL     OW15613  10.613   4.339   0.739
 4594SOL    HW115614  10.659   4.341   0.823
 4594SOL    HW215615  10.598   4.431   0.719
 4595SOL     OW15616  13.400  13.597   6.371
 4595SOL    HW115617  13.423  13.582   6.463
 4595SOL    HW215618  13.469  13.553   6.321
 4596SOL     OW15619  11.578   5.127  11.035
 4596SOL    HW115620  11.569   5.039  11.001
 4596SOL    HW215621  11.657   5.124  11.089
 4597SOL     OW15622   2.051   1.533   1.374
 4597SOL    HW115623   2.085   1.590   1.306
 4597SOL    HW215624   2.030   1.591   1.447
 4598SOL     OW15625   7.199   4.446   3.677
 4598SOL    HW115626   7.178   4.479   3.764
 4598SOL    HW215627   7.294   4.449   3.672
 4599SOL     OW15628  10.243   3.849  12.101
 4599SOL    HW115629  10.196   3.854  12.018
 4599SOL    HW215630  10.329   3.814  12.078
 4600SOL     OW15631  13.085   0.161  12.895
 4600SOL    HW115632  13.031   0.236  12.918
 4600SOL    HW215633  13.172   0.182  12.929
 4601SOL     OW15634   5.009   8.349   0.515
 4601SOL    HW115635   4.992   8.260   0.483
 4601SOL    HW215636   5.104   8.357   0.514
 4602SOL     OW15637  11.657   5.021  12.994
 4602SOL    HW115638  11.701   5.071  12.925
 4602SOL    HW215639  11.727   4.969  13.034
 4603SOL     OW15640   8.135   9.448   8.461
 4603SOL    HW115641   8.106   9.396   8.386
 4603SOL    HW215642   8.098   9.535   8.445
 4604SOL     OW15643  12.316  10.553  13.743
 4604SOL    HW115644  12.224  10.532  13.728
 4604SOL    HW215645  12.317  10.599  13.827
 4605SOL     OW15646  13.922  12.903   6.376
 4605SOL    HW115647  13.974  12.847   6.433
 4605SOL    HW215648  13.918  12.856   6.293
 4606SOL     OW15649   0.829   3.102   1.672
 4606SOL    HW115650   0.890   3.083   1.743
 4606SOL    HW215651   0.851   3.038   1.604
 4607SOL     OW15652   4.119   3.067   0.756
 4607SOL    HW115653   4.184   3.003   0.784
 4607SOL    HW215654   4.061   3.078   0.831
 4608SOL     OW15655  13.869  12.336  11.089
 4608SOL    HW115656  13.887  12.426  11.118
 4608SOL    HW215657  13.800  12.346  11.023
 4609SOL     OW15658   6.792   9.007   1.098
 4609SOL    HW115659   6.706   9.050   1.096
 4609SOL    HW215660   6.788   8.950   1.174
 4610SOL     OW15661   7.553   5.157  10.684
 4610SOL    HW115662   7.588   5.221  10.746
 4610SOL    HW215663   7.615   5.158  10.611
 4611SOL     OW15664  12.417  13.585  11.576
 4611SOL    HW115665  12.417  13.499  11.618
 4611SOL    HW215666  12.491  13.583  11.516
 4612SOL     OW15667   2.806   5.653  11.337
 4612SOL    HW115668   2.775   5.744  11.332
 4612SOL    HW215669   2.801   5.621  11.247
 4613SOL     OW15670   3.483  11.099   6.048
 4613SOL    HW115671   3.452  11.057   6.129
 4613SOL    HW215672   3.422  11.172   6.034
 4614SOL     OW15673   3.725   5.212   5.369
 4614SOL    HW115674   3.711   5.303   5.396
 4614SOL    HW215675   3.669   5.202   5.292
 4615SOL     OW15676   8.109   7.447  13.689
 4615SOL    HW115677   8.184   7.391  13.670
 4615SOL    HW215678   8.073   7.412  13.771
 4616SOL     OW15679   5.704  11.982  13.772
 4616SOL    HW115680   5.669  11.900  13.806
 4616SOL    HW215681   5.795  11.983  13.801
 4617SOL     OW15682   0.955   2.887   1.596
 4617SOL    HW115683   0.945   2.842   1.512
 4617SOL    HW215684   1.009   2.828   1.649
 4618SOL     OW15685   7.014   6.523   4.272
 4618SOL    HW115686   7.031   6.602   4.324
 4618SOL    HW215687   7.044   6.546   4.184
 4619SOL     OW15688  12.991  12.544   4.858
 4619SOL    HW115689  13.072  12.586   4.828
 4619SOL    HW215690  12.986  12.463   4.807
 4620SOL     OW15691  12.488   7.233   0.041
 4620SOL    HW115692  12.500   7.290   0.117
 4620SOL    HW215693  12.402   7.194   0.052
 4621SOL     OW15694   3.382   2.581   2.374
 4621SOL    HW115695   3.315   2.589   2.306
 4621SOL    HW215696   3.388   2.487   2.390
 4622SOL     OW15697   6.949   2.354   5.978
 4622SOL    HW115698   6.969   2.444   6.003
 4622SOL    HW215699   6.991   2.300   6.044
 4623SOL     OW15700  14.288   1.255   3.616
 4623SOL    HW115701  14.379   1.286   3.611
 4623SOL    HW215702  14.266   1.263   3.709
 4624SOL     OW15703  14.702  12.486  14.692
 4624SOL    HW115704  14.644  12.556  14.663
 4624SOL    HW215705  14.674  12.409  14.642
 4625SOL     OW15706  13.780  11.124  14.082
 4625SOL    HW115707  13.757  11.065  14.011
 4625SOL    HW215708  13.816  11.068  14.151
 4626SOL     OW15709   0.359   0.523  13.640
 4626SOL    HW115710   0.314   0.569  13.711
 4626SOL    HW215711   0.373   0.434  13.674
 4627SOL     OW15712   5.350   2.245   0.602
 4627SOL    HW115713   5.319   2.307   0.667
 4627SOL    HW215714   5.366   2.164   0.651
 4628SOL     OW15715   5.382   3.898   8.254
 4628SOL    HW115716   5.316   3.942   8.200
 4628SOL    HW215717   5.369   3.935   8.341
 4629SOL     OW15718   2.170   9.720   2.959
 4629SOL    HW115719   2.164   9.751   2.869
 4629SOL    HW215720   2.264   9.720   2.978
 4630SOL     OW15721   5.492  11.620  14.324
 4630SOL    HW115722   5.519  11.533  14.294
 4630SOL    HW215723   5.492  11.613  14.420
 4631SOL     OW15724  12.896  12.297   1.725
 4631SOL    HW115725  12.858  12.219   1.765
 4631SOL    HW215726  12.951  12.334   1.794
 4632SOL     OW15727  14.096  11.516   8.366
 4632SOL    HW115728  14.048  11.547   8.289
 4632SOL    HW215729  14.029  11.472   8.419
 4633SOL     OW15730   3.859  10.405   1.936
 4633SOL    HW115731   3.900  10.486   1.906
 4633SOL    HW215732   3.910  10.379   2.012
 4634SOL     OW15733   6.069   5.220   5.857
 4634SOL    HW115734   6.163   5.236   5.850
 4634SOL    HW215735   6.061   5.124   5.855
 4635SOL     OW15736   2.874   0.704   2.012
 4635SOL    HW115737   2.886   0.702   1.917
 4635SOL    HW215738   2.803   0.767   2.025
 4636SOL     OW15739  14.223   0.524  10.397
 4636SOL    HW115740  14.314   0.498  10.413
 4636SOL    HW215741  14.173   0.442  10.402
 4637SOL     OW15742  13.235  13.932  10.346
 4637SOL    HW115743  13.242  14.011  10.400
 4637SOL    HW215744  13.325  13.911  10.323
 4638SOL     OW15745   1.177   1.084  13.460
 4638SOL    HW115746   1.170   1.179  13.475
 4638SOL    HW215747   1.087   1.054  13.454
 4639SOL     OW15748  13.944  13.570   1.026
 4639SOL    HW115749  14.013  13.596   1.088
 4639SOL    HW215750  13.872  13.629   1.046
 4640SOL     OW15751   8.360  12.161   3.767
 4640SOL    HW115752   8.385  12.251   3.788
 4640SOL    HW215753   8.382  12.111   3.846
 4641SOL     OW15754   5.010  10.736   7.153
 4641SOL    HW115755   5.072  10.746   7.081
 4641SOL    HW215756   4.925  10.728   7.111
 4642SOL     OW15757  11.490   9.913   8.755
 4642SOL    HW115758  11.423   9.964   8.799
 4642SOL    HW215759  11.489   9.828   8.799
 4643SOL     OW15760  13.750  13.598  13.768
 4643SOL    HW115761  13.668  13.596  13.718
 4643SOL    HW215762  13.749  13.683  13.813
 4644SOL     OW15763   4.767   7.929   3.378
 4644SOL    HW115764   4.674   7.949   3.377
 4644SOL    HW215765   4.773   7.841   3.416
 4645SOL     OW15766   4.476   6.189  10.800
 4645SOL    HW115767   4.478   6.108  10.749
 4645SOL    HW215768   4.389   6.189  10.841
 4646SOL     OW15769   3.498   9.201   6.530
 4646SOL    HW115770   3.580   9.189   6.578
 4646SOL    HW215771   3.456   9.115   6.533
 4647SOL     OW15772   3.056  14.475  14.238
 4647SOL    HW115773   3.061  14.546  14.302
 4647SOL    HW215774   3.065  14.395  14.290
 4648SOL     OW15775   2.485   7.325   1.111
 4648SOL    HW115776   2.409   7.300   1.165
 4648SOL    HW215777   2.482   7.265   1.037
 4649SOL     OW15778  10.213  12.582  10.434
 4649SOL    HW115779  10.203  12.573  10.339
 4649SOL    HW215780  10.297  12.539  10.453
 4650SOL     OW15781   0.447   4.577  13.035
 4650SOL    HW115782   0.506   4.641  12.996
 4650SOL    HW215783   0.457   4.499  12.980
 4651SOL     OW15784   3.096   8.792  13.063
 4651SOL    HW115785   3.103   8.697  13.049
 4651SOL    HW215786   3.041   8.822  12.990
 4652SOL     OW15787   8.643  10.457   0.336
 4652SOL    HW115788   8.589  10.515   0.390
 4652SOL    HW215789   8.607  10.464   0.248
 4653SOL     OW15790   2.617  10.686   8.549
 4653SOL    HW115791   2.601  10.594   8.571
 4653SOL    HW215792   2.613  10.732   8.633
 4654SOL     OW15793   2.995   0.884  14.825
 4654SOL    HW115794   3.045   0.831  14.762
 4654SOL    HW215795   2.963   0.957  14.774
 4655SOL     OW15796   9.040  11.005   4.393
 4655SOL    HW115797   9.061  10.992   4.300
 4655SOL    HW215798   8.975  10.937   4.412
 4656SOL     OW15799  10.927  13.829   6.844
 4656SOL    HW115800  10.927  13.777   6.764
 4656SOL    HW215801  10.997  13.893   6.831
 4657SOL     OW15802   7.633   0.792   7.951
 4657SOL    HW115803   7.612   0.812   7.860
 4657SOL    HW215804   7.592   0.707   7.967
 4658SOL     OW15805   3.822  10.686   6.331
 4658SOL    HW115806   3.733  10.721   6.325
 4658SOL    HW215807   3.816  10.620   6.400
 4659SOL     OW15808   6.181   7.420  11.369
 4659SOL    HW115809   6.116   7.376  11.314
 4659SOL    HW215810   6.190   7.508  11.332
 4660SOL     OW15811   2.014   4.007   6.559
 4660SOL    HW115812   1.999   3.914   6.579
 4660SOL    HW215813   1.994   4.052   6.641
 4661SOL     OW15814  14.710  12.429   8.230
 4661SOL    HW115815  14.715  12.517   8.194
 4661SOL    HW215816  14.716  12.371   8.153
 4662SOL     OW15817   4.114  10.703   9.088
 4662SOL    HW115818   4.133  10.621   9.043
 4662SOL    HW215819   4.199  10.731   9.123
 4663SOL     OW15820  12.997   5.625   6.221
 4663SOL    HW115821  12.987   5.563   6.148
 4663SOL    HW215822  13.091   5.641   6.227
 4664SOL     OW15823   3.141   7.861  13.684
 4664SOL    HW115824   3.065   7.806  13.666
 4664SOL    HW215825   3.198   7.849  13.609
 4665SOL     OW15826  13.259   8.009   5.611
 4665SOL    HW115827  13.307   7.975   5.535
 4665SOL    HW215828  13.260   7.938   5.674
 4666SOL     OW15829   5.434   9.450   2.331
 4666SOL    HW115830   5.493   9.459   2.406
 4666SOL    HW215831   5.347   9.442   2.370
 4667SOL     OW15832  11.814  11.861   7.631
 4667SOL    HW115833  11.862  11.927   7.581
 4667SOL    HW215834  11.785  11.798   7.565
 4668SOL     OW15835   6.884   9.539   8.423
 4668SOL    HW115836   6.937   9.491   8.486
 4668SOL    HW215837   6.903   9.631   8.440
 4669SOL     OW15838   6.409  10.067   7.712
 4669SOL    HW115839   6.378   9.984   7.750
 4669SOL    HW215840   6.350  10.133   7.749
 4670SOL     OW15841   8.017   0.257   2.400
 4670SOL    HW115842   8.034   0.346   2.371
 4670SOL    HW215843   8.038   0.258   2.493
 4671SOL     OW15844   6.326   3.776   0.944
 4671SOL    HW115845   6.358   3.728   0.868
 4671SOL    HW215846   6.247   3.729   0.971
 4672SOL     OW15847   1.843   2.808  11.465
 4672SOL    HW115848   1.911   2.751  11.430
 4672SOL    HW215849   1.770   2.799  11.403
 4673SOL     OW15850  11.658  11.465   9.666
 4673SOL    HW115851  11.737  11.423   9.634
 4673SOL    HW215852  11.681  11.557   9.674
 4674SOL     OW15853   7.353   8.410   5.997
 4674SOL    HW115854   7.394   8.369   5.920
 4674SOL    HW215855   7.354   8.342   6.064
 4675SOL     OW15856   2.522   5.690  10.488
 4675SOL    HW115857   2.503   5.709  10.580
 4675SOL    HW215858   2.466   5.750  10.439
 4676SOL     OW15859   7.731  13.950   2.910
 4676SOL    HW115860   7.673  13.941   2.835
 4676SOL    HW215861   7.691  13.896   2.978
 4677SOL     OW15862   7.811   1.872   7.699
 4677SOL    HW115863   7.815   1.824   7.782
 4677SOL    HW215864   7.746   1.942   7.714
 4678SOL     OW15865  13.067   4.025  13.249
 4678SOL    HW115866  13.006   4.098  13.233
 4678SOL    HW215867  13.018   3.947  13.224
 4679SOL     OW15868  13.884   0.108  12.605
 4679SOL    HW115869  13.808   0.128  12.660
 4679SOL    HW215870  13.904   0.190  12.561
 4680SOL     OW15871   6.021   0.423   4.272
 4680SOL    HW115872   6.098   0.467   4.308
 4680SOL    HW215873   6.055   0.368   4.202
 4681SOL     OW15874   7.041   3.934   1.410
 4681SOL    HW115875   6.999   3.950   1.325
 4681SOL    HW215876   7.082   4.017   1.432
 4682SOL     OW15877  14.308   3.859   4.929
 4682SOL    HW115878  14.217   3.885   4.916
 4682SOL    HW215879  14.357   3.941   4.932
 4683SOL     OW15880   7.084  13.644   7.399
 4683SOL    HW115881   7.073  13.723   7.452
 4683SOL    HW215882   7.073  13.572   7.461
 4684SOL     OW15883  14.018  14.649   4.949
 4684SOL    HW115884  14.111  14.672   4.945
 4684SOL    HW215885  14.003  14.624   5.040
 4685SOL     OW15886  12.290   2.552   5.973
 4685SOL    HW115887  12.363   2.606   6.001
 4685SOL    HW215888  12.212   2.601   6.000
 4686SOL     OW15889   5.625  11.940   2.801
 4686SOL    HW115890   5.678  11.881   2.746
 4686SOL    HW215891   5.671  11.941   2.885
 4687SOL     OW15892   6.446   0.436   1.231
 4687SOL    HW115893   6.367   0.455   1.182
 4687SOL    HW215894   6.425   0.356   1.280
 4688SOL     OW15895   8.048   5.197   9.163
 4688SOL    HW115896   7.995   5.195   9.083
 4688SOL    HW215897   8.020   5.276   9.209
 4689SOL     OW15898  10.386  10.085   1.766
 4689SOL    HW115899  10.370  10.091   1.860
 4689SOL    HW215900  10.307  10.120   1.726
 4690SOL     OW15901   1.925  11.327   4.499
 4690SOL    HW115902   1.839  11.286   4.508
 4690SOL    HW215903   1.961  11.328   4.588
 4691SOL     OW15904  13.935  10.609  12.343
 4691SOL    HW115905  14.023  10.626  12.377
 4691SOL    HW215906  13.883  10.685  12.370
 4692SOL     OW15907   9.854   3.816  13.264
 4692SOL    HW115908   9.882   3.894  13.311
 4692SOL    HW215909   9.928   3.755  13.273
 4693SOL     OW15910   8.243   0.221  13.454
 4693SOL    HW115911   8.311   0.248  13.393
 4693SOL    HW215912   8.161   0.236  13.406
 4694SOL     OW15913   9.958   8.373  13.827
 4694SOL    HW115914   9.925   8.291  13.864
 4694SOL    HW215915   9.935   8.439  13.892
 4695SOL     OW15916   7.085   9.583   4.708
 4695SOL    HW115917   7.175   9.617   4.702
 4695SOL    HW215918   7.089   9.520   4.781
 4696SOL     OW15919   0.424   3.963   4.058
 4696SOL    HW115920   0.344   3.911   4.067
 4696SOL    HW215921   0.488   3.901   4.023
 4697SOL     OW15922   6.636   4.272   6.731
 4697SOL    HW115923   6.689   4.297   6.807
 4697SOL    HW215924   6.582   4.199   6.762
 4698SOL     OW15925   0.119   3.515   2.286
 4698SOL    HW115926   0.160   3.510   2.200
 4698SOL    HW215927   0.033   3.554   2.270
 4699SOL     OW15928   3.900  10.709  14.670
 4699SOL    HW115929   3.952  10.639  14.630
 4699SOL    HW215930   3.885  10.679  14.759
 4700SOL     OW15931   5.893   2.276   4.298
 4700SOL    HW115932   5.863   2.314   4.216
 4700SOL    HW215933   5.980   2.240   4.277
 4701SOL     OW15934   6.798  10.008  10.965
 4701SOL    HW115935   6.749  10.007  10.882
 4701SOL    HW215936   6.743   9.958  11.025
 4702SOL     OW15937   0.484  13.532   1.302
 4702SOL    HW115938   0.520  13.444   1.293
 4702SOL    HW215939   0.521  13.581   1.229
 4703SOL     OW15940   3.286   7.548  10.825
 4703SOL    HW115941   3.276   7.544  10.730
 4703SOL    HW215942   3.301   7.640  10.844
 4704SOL     OW15943   8.757   2.673   8.448
 4704SOL    HW115944   8.787   2.696   8.360
 4704SOL    HW215945   8.669   2.711   8.454
 4705SOL     OW15946   3.355  11.351   7.136
 4705SOL    HW115947   3.264  11.379   7.142
 4705SOL    HW215948   3.353  11.257   7.154
 4706SOL     OW15949   0.391   4.434  14.394
 4706SOL    HW115950   0.453   4.361  14.389
 4706SOL    HW215951   0.443   4.511  14.367
 4707SOL     OW15952  14.162  10.342   3.999
 4707SOL    HW115953  14.100  10.278   4.033
 4707SOL    HW215954  14.221  10.290   3.944
 4708SOL     OW15955  13.827   3.250  13.633
 4708SOL    HW115956  13.905   3.199  13.655
 4708SOL    HW215957  13.860   3.330  13.593
 4709SOL     OW15958   0.336   0.464   9.383
 4709SOL    HW115959   0.253   0.479   9.339
 4709SOL    HW215960   0.313   0.451   9.475
 4710SOL     OW15961   5.693   4.547   2.775
 4710SOL    HW115962   5.762   4.612   2.790
 4710SOL    HW215963   5.739   4.473   2.736
 4711SOL     OW15964   6.196   8.681   8.684
 4711SOL    HW115965   6.105   8.654   8.671
 4711SOL    HW215966   6.234   8.679   8.596
 4712SOL     OW15967  13.535  14.752   9.411
 4712SOL    HW115968  13.503  14.836   9.445
 4712SOL    HW215969  13.544  14.767   9.317
 4713SOL     OW15970  10.377   5.976   9.658
 4713SOL    HW115971  10.431   5.900   9.635
 4713SOL    HW215972  10.432   6.027   9.717
 4714SOL     OW15973   9.529  14.569  13.211
 4714SOL    HW115974   9.547  14.580  13.304
 4714SOL    HW215975   9.435  14.579  13.202
 4715SOL     OW15976   5.796  12.067  10.525
 4715SOL    HW115977   5.813  12.076  10.619
 4715SOL    HW215978   5.874  12.022  10.491
 4716SOL     OW15979   3.040  11.281  12.763
 4716SOL    HW115980   3.059  11.193  12.730
 4716SOL    HW215981   3.101  11.337  12.716
 4717SOL     OW15982  10.077   3.976   6.146
 4717SOL    HW115983  10.132   3.898   6.159
 4717SOL    HW215984  10.050   3.971   6.055
 4718SOL     OW15985  11.240  12.824   9.401
 4718SOL    HW115986  11.237  12.900   9.343
 4718SOL    HW215987  11.320  12.778   9.376
 4719SOL     OW15988   8.761   6.680   9.414
 4719SOL    HW115989   8.800   6.715   9.494
 4719SOL    HW215990   8.708   6.752   9.380
 4720SOL     OW15991  13.284   2.608  12.223
 4720SOL    HW115992  13.333   2.551  12.282
 4720SOL    HW215993  13.249   2.676  12.279
 4721SOL     OW15994   3.653   4.533   6.429
 4721SOL    HW115995   3.698   4.469   6.373
 4721SOL    HW215996   3.633   4.484   6.509
 4722SOL     OW15997   8.340   1.021   5.362
 4722SOL    HW115998   8.257   1.040   5.318
 4722SOL    HW215999   8.370   1.107   5.394
 4723SOL     OW16000   1.699   5.763   0.129
 4723SOL    HW116001   1.663   5.712   0.202
 4723SOL    HW216002   1.623   5.791   0.079
 4724SOL     OW16003  11.250   7.675  14.519
 4724SOL    HW116004  11.214   7.590  14.545
 4724SOL    HW216005  11.339   7.675  14.554
 4725SOL     OW16006   9.043   1.870   2.688
 4725SOL    HW116007   8.951   1.846   2.679
 4725SOL    HW216008   9.088   1.812   2.626
 4726SOL     OW16009  14.484   7.024   3.639
 4726SOL    HW116010  14.412   7.010   3.700
 4726SOL    HW216011  14.493   7.119   3.634
 4727SOL     OW16012   4.087  10.373  12.187
 4727SOL    HW116013   4.175  10.411  12.185
 4727SOL    HW216014   4.054  10.393  12.275
 4728SOL     OW16015   7.994   0.817   6.894
 4728SOL    HW116016   8.064   0.877   6.870
 4728SOL    HW216017   8.033   0.760   6.960
 4729SOL     OW16018  10.128   9.195   0.843
 4729SOL    HW116019  10.167   9.250   0.776
 4729SOL    HW216020  10.191   9.195   0.915
 4730SOL     OW16021  12.725   1.464   3.563
 4730SOL    HW116022  12.738   1.558   3.548
 4730SOL    HW216023  12.795   1.440   3.623
 4731SOL     OW16024   3.628  13.302   4.445
 4731SOL    HW116025   3.606  13.386   4.404
 4731SOL    HW216026   3.706  13.272   4.398
 4732SOL     OW16027   5.121   8.592   1.884
 4732SOL    HW116028   5.105   8.501   1.912
 4732SOL    HW216029   5.034   8.628   1.869
 4733SOL     OW16030  13.323   4.758   4.422
 4733SOL    HW116031  13.352   4.813   4.495
 4733SOL    HW216032  13.320   4.817   4.347
 4734SOL     OW16033  13.882   0.319   4.160
 4734SOL    HW116034  13.936   0.347   4.086
 4734SOL    HW216035  13.799   0.365   4.148
 4735SOL     OW16036  13.478   6.403  13.647
 4735SOL    HW116037  13.407   6.357  13.601
 4735SOL    HW216038  13.439   6.485  13.676
 4736SOL     OW16039   0.659   7.982   2.638
 4736SOL    HW116040   0.656   7.996   2.543
 4736SOL    HW216041   0.630   8.066   2.675
 4737SOL     OW16042  14.220   6.459   5.754
 4737SOL    HW116043  14.301   6.491   5.715
 4737SOL    HW216044  14.165   6.437   5.679
 4738SOL     OW16045  11.627   3.729   1.245
 4738SOL    HW116046  11.703   3.765   1.200
 4738SOL    HW216047  11.554   3.785   1.218
 4739SOL     OW16048   4.891   9.168  12.495
 4739SOL    HW116049   4.802   9.205  12.489
 4739SOL    HW216050   4.880   9.076  12.471
 4740SOL     OW16051   5.584  12.879  13.377
 4740SOL    HW116052   5.526  12.915  13.310
 4740SOL    HW216053   5.579  12.941  13.450
 4741SOL     OW16054   4.607   9.408  13.807
 4741SOL    HW116055   4.559   9.487  13.782
 4741SOL    HW216056   4.540   9.348  13.838
 4742SOL     OW16057  13.117  14.623   1.702
 4742SOL    HW116058  13.195  14.582   1.740
 4742SOL    HW216059  13.046  14.563   1.725
 4743SOL     OW16060   1.136   2.562  13.123
 4743SOL    HW116061   1.063   2.615  13.092
 4743SOL    HW216062   1.210   2.590  13.070
 4744SOL     OW16063   2.617   9.650   6.974
 4744SOL    HW116064   2.671   9.680   7.047
 4744SOL    HW216065   2.580   9.731   6.937
 4745SOL     OW16066  13.664   1.126   1.335
 4745SOL    HW116067  13.624   1.070   1.268
 4745SOL    HW216068  13.758   1.117   1.321
 4746SOL     OW16069   0.104   6.494   9.642
 4746SOL    HW116070   0.023   6.523   9.599
 4746SOL    HW216071   0.084   6.501   9.736
 4747SOL     OW16072  10.105  12.197   5.477
 4747SOL    HW116073  10.075  12.193   5.387
 4747SOL    HW216074  10.102  12.290   5.499
 4748SOL     OW16075   3.593  12.406   1.660
 4748SOL    HW116076   3.681  12.370   1.651
 4748SOL    HW216077   3.597  12.461   1.738
 4749SOL     OW16078   0.850   2.097   8.372
 4749SOL    HW116079   0.881   2.084   8.282
 4749SOL    HW216080   0.781   2.162   8.365
 4750SOL     OW16081   1.756   9.383   0.596
 4750SOL    HW116082   1.849   9.363   0.598
 4750SOL    HW216083   1.736   9.415   0.684
 4751SOL     OW16084   5.674  11.450   5.416
 4751SOL    HW116085   5.641  11.402   5.340
 4751SOL    HW216086   5.768  11.458   5.401
 4752SOL     OW16087   8.966   5.022   1.614
 4752SOL    HW116088   9.020   4.996   1.540
 4752SOL    HW216089   8.914   4.945   1.635
 4753SOL     OW16090  13.556   3.993   1.261
 4753SOL    HW116091  13.594   4.057   1.201
 4753SOL    HW216092  13.466   4.023   1.274
 4754SOL     OW16093   3.812   6.025  10.169
 4754SOL    HW116094   3.816   6.120  10.181
 4754SOL    HW216095   3.780   6.013  10.080
 4755SOL     OW16096   0.550  10.183   8.636
 4755SOL    HW116097   0.554  10.093   8.669
 4755SOL    HW216098   0.538  10.172   8.541
 4756SOL     OW16099   9.320   6.879   2.488
 4756SOL    HW116100   9.260   6.948   2.517
 4756SOL    HW216101   9.307   6.874   2.394
 4757SOL     OW16102   0.072   8.920   4.393
 4757SOL    HW116103   0.011   8.890   4.325
 4757SOL    HW216104   0.072   9.015   4.386
 4758SOL     OW16105   6.680  10.228   6.526
 4758SOL    HW116106   6.689  10.188   6.613
 4758SOL    HW216107   6.769  10.234   6.493
 4759SOL     OW16108   8.617   3.520   2.972
 4759SOL    HW116109   8.567   3.440   2.984
 4759SOL    HW216110   8.656   3.512   2.885
 4760SOL     OW16111  13.861   6.722   0.744
 4760SOL    HW116112  13.914   6.767   0.678
 4760SOL    HW216113  13.776   6.765   0.741
 4761SOL     OW16114   9.834  10.312  14.092
 4761SOL    HW116115   9.926  10.288  14.081
 4761SOL    HW216116   9.817  10.372  14.019
 4762SOL     OW16117   2.968   9.351  12.385
 4762SOL    HW116118   2.966   9.300  12.304
 4762SOL    HW216119   3.029   9.305  12.441
 4763SOL     OW16120   7.320   5.675  13.685
 4763SOL    HW116121   7.236   5.650  13.646
 4763SOL    HW216122   7.370   5.714  13.613
 4764SOL     OW16123   0.241   5.707   1.546
 4764SOL    HW116124   0.321   5.758   1.562
 4764SOL    HW216125   0.216   5.728   1.456
 4765SOL     OW16126   6.455  11.840   3.717
 4765SOL    HW116127   6.402  11.789   3.655
 4765SOL    HW216128   6.401  11.916   3.738
 4766SOL     OW16129   8.829   3.931  12.775
 4766SOL    HW116130   8.820   4.015  12.729
 4766SOL    HW216131   8.870   3.873  12.712
 4767SOL     OW16132  12.229   4.335   4.669
 4767SOL    HW116133  12.149   4.341   4.721
 4767SOL    HW216134  12.254   4.426   4.654
 4768SOL     OW16135  13.754  10.244  10.184
 4768SOL    HW116136  13.669  10.238  10.227
 4768SOL    HW216137  13.814  10.195  10.241
 4769SOL     OW16138   6.468  10.375   5.858
 4769SOL    HW116139   6.440  10.294   5.815
 4769SOL    HW216140   6.511  10.346   5.939
 4770SOL     OW16141   6.665  11.075   3.648
 4770SOL    HW116142   6.587  11.117   3.684
 4770SOL    HW216143   6.695  11.135   3.580
 4771SOL     OW16144   2.209   3.878   0.555
 4771SOL    HW116145   2.253   3.963   0.553
 4771SOL    HW216146   2.121   3.897   0.589
 4772SOL     OW16147  11.944  11.925   1.628
 4772SOL    HW116148  11.904  11.924   1.540
 4772SOL    HW216149  11.916  12.008   1.666
 4773SOL     OW16150   2.972   2.638  14.780
 4773SOL    HW116151   2.886   2.676  14.796
 4773SOL    HW216152   2.972   2.619  14.686
 4774SOL     OW16153   5.315   1.358   1.785
 4774SOL    HW116154   5.385   1.296   1.804
 4774SOL    HW216155   5.354   1.420   1.723
 4775SOL     OW16156  10.201   5.948   8.004
 4775SOL    HW116157  10.178   6.041   7.993
 4775SOL    HW216158  10.297   5.947   8.000
 4776SOL     OW16159  11.575   2.198   1.112
 4776SOL    HW116160  11.641   2.213   1.180
 4776SOL    HW216161  11.606   2.120   1.066
 4777SOL     OW16162  11.732  10.680   2.190
 4777SOL    HW116163  11.691  10.635   2.264
 4777SOL    HW216164  11.705  10.771   2.199
 4778SOL     OW16165   8.125   1.207  11.357
 4778SOL    HW116166   8.220   1.214  11.358
 4778SOL    HW216167   8.106   1.154  11.279
 4779SOL     OW16168   2.184   9.645   8.397
 4779SOL    HW116169   2.216   9.732   8.373
 4779SOL    HW216170   2.216   9.588   8.328
 4780SOL     OW16171   6.570   6.462   4.713
 4780SOL    HW116172   6.495   6.476   4.771
 4780SOL    HW216173   6.620   6.392   4.755
 4781SOL     OW16174   8.234   6.196   2.728
 4781SOL    HW116175   8.197   6.284   2.736
 4781SOL    HW216176   8.192   6.159   2.650
 4782SOL     OW16177   5.799   2.369   9.324
 4782SOL    HW116178   5.761   2.294   9.371
 4782SOL    HW216179   5.866   2.329   9.267
 4783SOL     OW16180   3.458  13.803   5.753
 4783SOL    HW116181   3.490  13.887   5.720
 4783SOL    HW216182   3.390  13.827   5.815
 4784SOL     OW16183   3.059  12.386  13.434
 4784SOL    HW116184   3.016  12.468  13.412
 4784SOL    HW216185   3.017  12.358  13.516
 4785SOL     OW16186   8.006   8.863  14.033
 4785SOL    HW116187   8.036   8.944  13.992
 4785SOL    HW216188   8.083   8.830  14.079
 4786SOL     OW16189   3.340   4.068  14.739
 4786SOL    HW116190   3.357   4.113  14.821
 4786SOL    HW216191   3.389   4.119  14.673
 4787SOL     OW16192   5.177  12.142   8.945
 4787SOL    HW116193   5.232  12.066   8.924
 4787SOL    HW216194   5.137  12.166   8.861
 4788SOL     OW16195   4.536   5.969   8.283
 4788SOL    HW116196   4.533   5.874   8.291
 4788SOL    HW216197   4.480   5.989   8.207
 4789SOL     OW16198  12.004  11.667  13.399
 4789SOL    HW116199  11.970  11.678  13.487
 4789SOL    HW216200  12.096  11.645  13.411
 4790SOL     OW16201   0.825  11.149   2.468
 4790SOL    HW116202   0.855  11.059   2.450
 4790SOL    HW216203   0.829  11.157   2.563
 4791SOL     OW16204   0.660  14.853  10.151
 4791SOL    HW116205   0.749  14.829  10.125
 4791SOL    HW216206   0.610  14.852  10.070
 4792SOL     OW16207   6.283   8.086  11.518
 4792SOL    HW116208   6.307   8.134  11.439
 4792SOL    HW216209   6.189   8.070  11.510
 4793SOL     OW16210   8.688  10.119   4.362
 4793SOL    HW116211   8.701  10.027   4.386
 4793SOL    HW216212   8.596  10.123   4.336
 4794SOL     OW16213   1.418   6.819   8.330
 4794SOL    HW116214   1.479   6.746   8.341
 4794SOL    HW216215   1.473   6.893   8.304
 4795SOL     OW16216  13.056  13.983   3.804
 4795SOL    HW116217  12.999  14.049   3.844
 4795SOL    HW216218  13.082  14.022   3.721
 4796SOL     OW16219  12.330   9.544   5.614
 4796SOL    HW116220  12.246   9.568   5.575
 4796SOL    HW216221  12.323   9.450   5.630
 4797SOL     OW16222  12.550   9.898  13.928
 4797SOL    HW116223  12.584   9.825  13.878
 4797SOL    HW216224  12.627   9.953  13.945
 4798SOL     OW16225   2.142   3.228  14.659
 4798SOL    HW116226   2.081   3.277  14.603
 4798SOL    HW216227   2.149   3.142  14.618
 4799SOL     OW16228   5.628  10.544   8.217
 4799SOL    HW116229   5.553  10.603   8.209
 4799SOL    HW216230   5.603  10.467   8.166
 4800SOL     OW16231  11.940   9.914   0.908
 4800SOL    HW116232  11.974   9.935   0.820
 4800SOL    HW216233  11.995   9.965   0.967
 4801SOL     OW16234   8.301  11.714   9.862
 4801SOL    HW116235   8.333  11.750   9.779
 4801SOL    HW216236   8.206  11.712   9.852
 4802SOL     OW16237   1.502   9.990   0.122
 4802SOL    HW116238   1.581   9.942   0.094
 4802SOL    HW216239   1.434   9.923   0.126
 4803SOL     OW16240   6.515   3.429   3.114
 4803SOL    HW116241   6.476   3.372   3.180
 4803SOL    HW216242   6.474   3.403   3.032
 4804SOL     OW16243  14.665   0.538   0.275
 4804SOL    HW116244  14.706   0.603   0.217
 4804SOL    HW216245  14.620   0.590   0.341
 4805SOL     OW16246  14.659   0.621   3.480
 4805SOL    HW116247  14.572   0.648   3.511
 4805SOL    HW216248  14.641   0.574   3.398
 4806SOL     OW16249   9.784  10.498   0.435
 4806SOL    HW116250   9.777  10.554   0.513
 4806SOL    HW216251   9.806  10.558   0.364
 4807SOL     OW16252   7.598   6.520  14.377
 4807SOL    HW116253   7.522   6.545  14.430
 4807SOL    HW216254   7.578   6.554  14.289
 4808SOL     OW16255  11.255   5.385  13.341
 4808SOL    HW116256  11.312   5.350  13.273
 4808SOL    HW216257  11.301   5.368  13.423
 4809SOL     OW16258   3.628  10.348   2.095
 4809SOL    HW116259   3.668  10.270   2.133
 4809SOL    HW216260   3.699  10.392   2.050
 4810SOL     OW16261   0.312   2.212   8.887
 4810SOL    HW116262   0.231   2.240   8.931
 4810SOL    HW216263   0.333   2.128   8.927
 4811SOL     OW16264   5.438  10.845   8.505
 4811SOL    HW116265   5.472  10.761   8.473
 4811SOL    HW216266   5.357  10.858   8.456
 4812SOL     OW16267   9.707  11.168   8.394
 4812SOL    HW116268   9.721  11.263   8.393
 4812SOL    HW216269   9.744  11.140   8.478
 4813SOL     OW16270   2.415   3.141   4.719
 4813SOL    HW116271   2.463   3.112   4.642
 4813SOL    HW216272   2.356   3.209   4.686
 4814SOL     OW16273   1.892   9.944   3.314
 4814SOL    HW116274   1.965  10.002   3.338
 4814SOL    HW216275   1.909   9.922   3.222
 4815SOL     OW16276  13.960  10.890   6.456
 4815SOL    HW116277  13.942  10.918   6.546
 4815SOL    HW216278  14.041  10.935   6.433
 4816SOL     OW16279   2.541  13.263   6.026
 4816SOL    HW116280   2.549  13.199   5.955
 4816SOL    HW216281   2.580  13.343   5.991
 4817SOL     OW16282   2.421   8.478   9.546
 4817SOL    HW116283   2.418   8.383   9.550
 4817SOL    HW216284   2.372   8.500   9.466
 4818SOL     OW16285   1.967   6.763  11.948
 4818SOL    HW116286   2.047   6.812  11.928
 4818SOL    HW216287   1.900   6.830  11.962
 4819SOL     OW16288  13.548  10.151   1.072
 4819SOL    HW116289  13.628  10.139   1.124
 4819SOL    HW216290  13.569  10.224   1.013
 4820SOL     OW16291   9.757   0.573   8.574
 4820SOL    HW116292   9.722   0.662   8.567
 4820SOL    HW216293   9.786   0.566   8.666
 4821SOL     OW16294  10.315   2.011  11.813
 4821SOL    HW116295  10.376   2.013  11.887
 4821SOL    HW216296  10.343   2.083  11.756
 4822SOL     OW16297   0.970  14.833  13.575
 4822SOL    HW116298   0.934  14.756  13.531
 4822SOL    HW216299   0.983  14.805  13.666
 4823SOL     OW16300   6.709   5.588   6.197
 4823SOL    HW116301   6.692   5.499   6.165
 4823SOL    HW216302   6.760   5.575   6.277
 4824SOL     OW16303  11.511  14.352  13.763
 4824SOL    HW116304  11.553  14.328  13.846
 4824SOL    HW216305  11.582  14.345  13.698
 4825SOL     OW16306   9.129   2.102   4.355
 4825SOL    HW116307   9.132   2.086   4.261
 4825SOL    HW216308   9.196   2.168   4.370
 4826SOL     OW16309  11.313   0.013   5.388
 4826SOL    HW116310  11.301  14.820   5.322
 4826SOL    HW216311  11.278  14.852   5.468
 4827SOL     OW16312  12.212   4.433   6.541
 4827SOL    HW116313  12.266   4.354   6.536
 4827SOL    HW216314  12.169   4.428   6.626
 4828SOL     OW16315   5.100   7.501   7.502
 4828SOL    HW116316   5.140   7.548   7.575
 4828SOL    HW216317   5.171   7.446   7.468
 4829SOL     OW16318   6.967   5.982  10.938
 4829SOL    HW116319   6.963   6.075  10.959
 4829SOL    HW216320   7.015   5.979  10.855
 4830SOL     OW16321   2.922  10.947  11.360
 4830SOL    HW116322   2.927  11.025  11.416
 4830SOL    HW216323   2.864  10.888  11.407
 4831SOL     OW16324   9.131  13.805   0.934
 4831SOL    HW116325   9.133  13.710   0.948
 4831SOL    HW216326   9.120  13.842   1.022
 4832SOL     OW16327  14.083   2.935  11.954
 4832SOL    HW116328  14.013   2.873  11.972
 4832SOL    HW216329  14.162   2.881  11.947
 4833SOL     OW16330   1.194  13.647   5.816
 4833SOL    HW116331   1.267  13.709   5.809
 4833SOL    HW216332   1.170  13.648   5.909
 4834SOL     OW16333   4.806   6.798   3.922
 4834SOL    HW116334   4.836   6.850   3.847
 4834SOL    HW216335   4.817   6.855   3.997
 4835SOL     OW16336   4.659   7.136   9.582
 4835SOL    HW116337   4.707   7.103   9.658
 4835SOL    HW216338   4.666   7.067   9.517
 4836SOL     OW16339   3.686   9.838   3.111
 4836SOL    HW116340   3.656   9.791   3.189
 4836SOL    HW216341   3.671   9.777   3.039
 4837SOL     OW16342   0.360  11.079   0.041
 4837SOL    HW116343   0.307  11.158   0.030
 4837SOL    HW216344   0.296  11.008   0.040
 4838SOL     OW16345  11.889   4.909   1.316
 4838SOL    HW116346  11.981   4.884   1.324
 4838SOL    HW216347  11.854   4.853   1.247
 4839SOL     OW16348   8.708  14.483  12.412
 4839SOL    HW116349   8.699  14.405  12.357
 4839SOL    HW216350   8.733  14.552  12.351
 4840SOL     OW16351  10.125  11.900   7.538
 4840SOL    HW116352  10.096  11.931   7.452
 4840SOL    HW216353  10.120  11.977   7.595
 4841SOL     OW16354   4.860  13.476   2.568
 4841SOL    HW116355   4.914  13.498   2.644
 4841SOL    HW216356   4.807  13.555   2.553
 4842SOL     OW16357   4.058   7.748   5.004
 4842SOL    HW116358   4.002   7.681   5.042
 4842SOL    HW216359   4.144   7.731   5.042
 4843SOL     OW16360   8.323   5.923  12.249
 4843SOL    HW116361   8.247   5.892  12.200
 4843SOL    HW216362   8.289   5.939  12.337
 4844SOL     OW16363  11.800   3.740   8.750
 4844SOL    HW116364  11.874   3.680   8.760
 4844SOL    HW216365  11.743   3.720   8.824
 4845SOL     OW16366   9.270  13.093   6.689
 4845SOL    HW116367   9.225  13.021   6.734
 4845SOL    HW216368   9.265  13.070   6.596
 4846SOL     OW16369  10.174   8.825  10.879
 4846SOL    HW116370  10.113   8.840  10.807
 4846SOL    HW216371  10.250   8.784  10.838
 4847SOL     OW16372   6.059  11.112   0.441
 4847SOL    HW116373   5.992  11.112   0.510
 4847SOL    HW216374   6.098  11.199   0.445
 4848SOL     OW16375   0.024   7.804   5.129
 4848SOL    HW116376   0.085   7.835   5.195
 4848SOL    HW216377   0.079   7.769   5.059
 4849SOL     OW16378  12.740   2.004   7.993
 4849SOL    HW116379  12.799   2.079   7.993
 4849SOL    HW216380  12.798   1.928   7.983
 4850SOL     OW16381   3.399   5.070  11.262
 4850SOL    HW116382   3.417   5.148  11.313
 4850SOL    HW216383   3.331   5.024  11.311
 4851SOL     OW16384  12.649   3.757   5.659
 4851SOL    HW116385  12.656   3.687   5.595
 4851SOL    HW216386  12.575   3.733   5.714
 4852SOL     OW16387   9.234   6.926   0.986
 4852SOL    HW116388   9.163   6.990   0.986
 4852SOL    HW216389   9.310   6.975   0.954
 4853SOL     OW16390  14.589  14.764   7.077
 4853SOL    HW116391  14.575  14.779   7.171
 4853SOL    HW216392  14.510  14.721   7.047
 4854SOL     OW16393  10.414   3.015  13.515
 4854SOL    HW116394  10.392   3.070  13.590
 4854SOL    HW216395  10.336   2.962  13.500
 4855SOL     OW16396   8.615   1.263   2.376
 4855SOL    HW116397   8.679   1.222   2.318
 4855SOL    HW216398   8.536   1.210   2.365
 4856SOL     OW16399   3.293   5.419   0.968
 4856SOL    HW116400   3.287   5.326   0.989
 4856SOL    HW216401   3.369   5.450   1.017
 4857SOL     OW16402   1.406   7.557  14.292
 4857SOL    HW116403   1.493   7.527  14.318
 4857SOL    HW216404   1.400   7.646  14.327
 4858SOL     OW16405   7.371   6.483   4.384
 4858SOL    HW116406   7.359   6.441   4.470
 4858SOL    HW216407   7.406   6.569   4.404
 4859SOL     OW16408   8.459   2.799   1.959
 4859SOL    HW116409   8.443   2.893   1.950
 4859SOL    HW216410   8.553   2.790   1.943
 4860SOL     OW16411   1.261   3.899   6.689
 4860SOL    HW116412   1.284   3.880   6.598
 4860SOL    HW216413   1.277   3.992   6.700
 4861SOL     OW16414   3.803   4.606   6.010
 4861SOL    HW116415   3.848   4.542   5.953
 4861SOL    HW216416   3.711   4.598   5.987
 4862SOL     OW16417   9.370  10.660  10.454
 4862SOL    HW116418   9.419  10.713  10.392
 4862SOL    HW216419   9.323  10.597  10.399
 4863SOL     OW16420   6.268   1.862   2.609
 4863SOL    HW116421   6.214   1.852   2.687
 4863SOL    HW216422   6.326   1.786   2.610
 4864SOL     OW16423  12.412   5.043   3.434
 4864SOL    HW116424  12.403   5.060   3.340
 4864SOL    HW216425  12.349   5.101   3.475
 4865SOL     OW16426   0.023   8.584   6.132
 4865SOL    HW116427  14.871   8.493   6.125
 4865SOL    HW216428   0.116   8.583   6.108
 4866SOL     OW16429   4.324   4.560   0.877
 4866SOL    HW116430   4.263   4.518   0.938
 4866SOL    HW216431   4.349   4.491   0.816
 4867SOL     OW16432   0.878   6.951   3.369
 4867SOL    HW116433   0.895   6.859   3.393
 4867SOL    HW216434   0.891   6.999   3.451
 4868SOL     OW16435   9.903  10.133   1.183
 4868SOL    HW116436   9.993  10.147   1.154
 4868SOL    HW216437   9.859  10.217   1.169
 4869SOL     OW16438  12.681   0.567   8.437
 4869SOL    HW116439  12.740   0.589   8.365
 4869SOL    HW216440  12.739   0.550   8.511
 4870SOL     OW16441  12.895   9.500   6.659
 4870SOL    HW116442  12.887   9.501   6.564
 4870SOL    HW216443  12.823   9.555   6.690
 4871SOL     OW16444   9.445  12.107  14.477
 4871SOL    HW116445   9.384  12.046  14.520
 4871SOL    HW216446   9.425  12.098  14.383
 4872SOL     OW16447   0.442  12.371   3.775
 4872SOL    HW116448   0.459  12.286   3.816
 4872SOL    HW216449   0.392  12.351   3.696
 4873SOL     OW16450   8.879   3.249   3.497
 4873SOL    HW116451   8.917   3.336   3.491
 4873SOL    HW216452   8.937   3.193   3.445
 4874SOL     OW16453  13.951   8.264   0.496
 4874SOL    HW116454  13.861   8.282   0.468
 4874SOL    HW216455  13.950   8.285   0.590
 4875SOL     OW16456   0.543   6.516  14.464
 4875SOL    HW116457   0.526   6.431  14.425
 4875SOL    HW216458   0.530   6.502  14.558
 4876SOL     OW16459   1.990  13.870   3.830
 4876SOL    HW116460   1.951  13.850   3.745
 4876SOL    HW216461   1.940  13.818   3.892
 4877SOL     OW16462  14.590  11.275   8.925
 4877SOL    HW116463  14.626  11.361   8.905
 4877SOL    HW216464  14.589  11.270   9.020
 4878SOL     OW16465  13.962   9.561  13.949
 4878SOL    HW116466  13.997   9.646  13.922
 4878SOL    HW216467  13.867   9.573  13.948
 4879SOL     OW16468   8.823   6.472   0.853
 4879SOL    HW116469   8.738   6.489   0.813
 4879SOL    HW216470   8.876   6.439   0.781
 4880SOL     OW16471   7.671   6.547   8.934
 4880SOL    HW116472   7.650   6.525   8.843
 4880SOL    HW216473   7.614   6.621   8.954
 4881SOL     OW16474   0.720   3.792  10.982
 4881SOL    HW116475   0.799   3.836  11.013
 4881SOL    HW216476   0.722   3.707  11.026
 4882SOL     OW16477   8.273   2.835   6.191
 4882SOL    HW116478   8.302   2.825   6.100
 4882SOL    HW216479   8.308   2.919   6.218
 4883SOL     OW16480   5.492  12.321  10.237
 4883SOL    HW116481   5.461  12.231  10.242
 4883SOL    HW216482   5.547  12.332  10.315
 4884SOL     OW16483   7.496  11.172  13.332
 4884SOL    HW116484   7.406  11.192  13.356
 4884SOL    HW216485   7.536  11.258  13.318
 4885SOL     OW16486   3.767  13.011   1.422
 4885SOL    HW116487   3.791  13.006   1.514
 4885SOL    HW216488   3.847  13.039   1.378
 4886SOL     OW16489   5.595   0.546   4.023
 4886SOL    HW116490   5.678   0.593   4.015
 4886SOL    HW216491   5.608   0.488   4.098
 4887SOL     OW16492  14.843  12.452   0.934
 4887SOL    HW116493  14.811  12.530   0.888
 4887SOL    HW216494  14.814  12.464   1.025
 4888SOL     OW16495   4.572  13.719   4.136
 4888SOL    HW116496   4.636  13.650   4.154
 4888SOL    HW216497   4.618  13.800   4.157
 4889SOL     OW16498   7.718  11.323   5.172
 4889SOL    HW116499   7.739  11.296   5.262
 4889SOL    HW216500   7.800  11.313   5.124
 4890SOL     OW16501  10.165  13.210  12.983
 4890SOL    HW116502  10.156  13.294  12.938
 4890SOL    HW216503  10.129  13.146  12.923
 4891SOL     OW16504  13.777   5.508   1.012
 4891SOL    HW116505  13.828   5.469   0.941
 4891SOL    HW216506  13.752   5.594   0.980
 4892SOL     OW16507  12.034   7.942   7.441
 4892SOL    HW116508  12.047   7.880   7.370
 4892SOL    HW216509  12.115   7.992   7.446
 4893SOL     OW16510   3.180   1.735   2.208
 4893SOL    HW116511   3.217   1.752   2.121
 4893SOL    HW216512   3.086   1.729   2.193
 4894SOL     OW16513   9.947  11.394  13.251
 4894SOL    HW116514   9.938  11.489  13.258
 4894SOL    HW216515  10.031  11.375  13.294
 4895SOL     OW16516   2.403  10.492   0.270
 4895SOL    HW116517   2.335  10.425   0.262
 4895SOL    HW216518   2.479  10.446   0.305
 4896SOL     OW16519   6.630  13.515  12.793
 4896SOL    HW116520   6.633  13.610  12.798
 4896SOL    HW216521   6.685  13.492  12.718
 4897SOL     OW16522   9.331  13.576  12.168
 4897SOL    HW116523   9.346  13.540  12.255
 4897SOL    HW216524   9.378  13.517  12.109
 4898SOL     OW16525   9.076   3.907  11.595
 4898SOL    HW116526   9.129   3.834  11.562
 4898SOL    HW216527   9.139   3.976  11.615
 4899SOL     OW16528   0.464  14.783  14.826
 4899SOL    HW116529   0.390  14.755   0.002
 4899SOL    HW216530   0.512  14.702  14.807
 4900SOL     OW16531   0.873  11.842   0.278
 4900SOL    HW116532   0.880  11.918   0.220
 4900SOL    HW216533   0.856  11.769   0.219
 4901SOL     OW16534   3.297   9.595   7.115
 4901SOL    HW116535   3.244   9.611   7.193
 4901SOL    HW216536   3.245   9.630   7.043
 4902SOL     OW16537   1.769  11.237  11.222
 4902SOL    HW116538   1.804  11.175  11.285
 4902SOL    HW216539   1.845  11.286  11.191
 4903SOL     OW16540   3.540  14.157   0.093
 4903SOL    HW116541   3.535  14.162   0.189
 4903SOL    HW216542   3.587  14.237   0.068
 4904SOL     OW16543   6.516  10.709   7.834
 4904SOL    HW116544   6.494  10.771   7.904
 4904SOL    HW216545   6.455  10.637   7.845
 4905SOL     OW16546   5.215   4.656   3.635
 4905SOL    HW116547   5.283   4.724   3.640
 4905SOL    HW216548   5.192   4.653   3.542
 4906SOL     OW16549   2.811  14.717   8.455
 4906SOL    HW116550   2.827  14.748   8.544
 4906SOL    HW216551   2.760  14.788   8.414
 4907SOL     OW16552   9.874   3.749  10.874
 4907SOL    HW116553   9.966   3.725  10.862
 4907SOL    HW216554   9.843   3.770  10.786
 4908SOL     OW16555   5.662  14.043   4.515
 4908SOL    HW116556   5.700  14.061   4.429
 4908SOL    HW216557   5.727  14.075   4.577
 4909SOL     OW16558  13.659   0.967   0.898
 4909SOL    HW116559  13.682   1.021   0.822
 4909SOL    HW216560  13.636   0.882   0.861
 4910SOL     OW16561   1.354  10.833   8.219
 4910SOL    HW116562   1.380  10.901   8.281
 4910SOL    HW216563   1.391  10.861   8.136
 4911SOL     OW16564  11.569  11.703   0.085
 4911SOL    HW116565  11.544  11.620   0.043
 4911SOL    HW216566  11.664  11.709   0.071
 4912SOL     OW16567   1.977   0.677   6.111
 4912SOL    HW116568   1.899   0.724   6.081
 4912SOL    HW216569   1.944   0.617   6.178
 4913SOL     OW16570  10.143  13.762   5.943
 4913SOL    HW116571  10.162  13.814   5.864
 4913SOL    HW216572  10.198  13.684   5.935
 4914SOL     OW16573  10.614   4.677   2.199
 4914SOL    HW116574  10.617   4.651   2.107
 4914SOL    HW216575  10.520   4.680   2.220
 4915SOL     OW16576   7.072   8.574  12.334
 4915SOL    HW116577   7.134   8.621  12.390
 4915SOL    HW216578   6.987   8.589  12.375
 4916SOL     OW16579   1.783  10.557   6.244
 4916SOL    HW116580   1.764  10.649   6.260
 4916SOL    HW216581   1.711  10.527   6.188
 4917SOL     OW16582   6.859   7.475   8.693
 4917SOL    HW116583   6.787   7.538   8.700
 4917SOL    HW216584   6.898   7.492   8.608
 4918SOL     OW16585   0.463   1.833   5.435
 4918SOL    HW116586   0.513   1.912   5.457
 4918SOL    HW216587   0.385   1.838   5.490
 4919SOL     OW16588   6.462   5.338   5.180
 4919SOL    HW116589   6.390   5.399   5.193
 4919SOL    HW216590   6.539   5.393   5.169
 4920SOL     OW16591   2.656   2.467   5.809
 4920SOL    HW116592   2.723   2.526   5.774
 4920SOL    HW216593   2.680   2.381   5.775
 4921SOL     OW16594   9.758   7.264  10.704
 4921SOL    HW116595   9.797   7.177  10.690
 4921SOL    HW216596   9.790   7.291  10.790
 4922SOL     OW16597   1.627   5.533  11.846
 4922SOL    HW116598   1.694   5.487  11.795
 4922SOL    HW216599   1.592   5.466  11.904
 4923SOL     OW16600   7.239  13.095   3.547
 4923SOL    HW116601   7.266  13.080   3.638
 4923SOL    HW216602   7.166  13.156   3.553
 4924SOL     OW16603   0.913   0.837   9.794
 4924SOL    HW116604   0.886   0.768   9.734
 4924SOL    HW216605   0.862   0.822   9.874
 4925SOL     OW16606   1.283   3.594   5.192
 4925SOL    HW116607   1.310   3.605   5.283
 4925SOL    HW216608   1.239   3.677   5.170
 4926SOL     OW16609  10.183   3.201   7.899
 4926SOL    HW116610  10.245   3.131   7.920
 4926SOL    HW216611  10.236   3.268   7.856
 4927SOL     OW16612  14.551   7.084   9.644
 4927SOL    HW116613  14.490   7.079   9.717
 4927SOL    HW216614  14.602   7.003   9.649
 4928SOL     OW16615   1.836   9.248  11.835
 4928SOL    HW116616   1.806   9.269  11.747
 4928SOL    HW216617   1.755   9.231  11.884
 4929SOL     OW16618   8.224   7.641   7.472
 4929SOL    HW116619   8.195   7.730   7.496
 4929SOL    HW216620   8.157   7.609   7.413
 4930SOL     OW16621   5.673   9.042  10.910
 4930SOL    HW116622   5.736   8.977  10.877
 4930SOL    HW216623   5.688   9.119  10.856
 4931SOL     OW16624   0.474   5.069   9.549
 4931SOL    HW116625   0.507   4.992   9.501
 4931SOL    HW216626   0.496   5.143   9.492
 4932SOL     OW16627   4.917   3.106  13.973
 4932SOL    HW116628   4.925   3.013  13.993
 4932SOL    HW216629   5.007   3.136  13.958
 4933SOL     OW16630  11.240   9.417  10.466
 4933SOL    HW116631  11.205   9.504  10.486
 4933SOL    HW216632  11.196   9.359  10.529
 4934SOL     OW16633  11.442   7.432   6.012
 4934SOL    HW116634  11.488   7.364   6.061
 4934SOL    HW216635  11.349   7.412   6.023
 4935SOL     OW16636   1.146   7.219  11.338
 4935SOL    HW116637   1.161   7.306  11.300
 4935SOL    HW216638   1.053   7.202  11.325
 4936SOL     OW16639   5.514   6.022  14.465
 4936SOL    HW116640   5.551   5.998  14.550
 4936SOL    HW216641   5.491   6.115  14.474
 4937SOL     OW16642   7.842   4.617   8.636
 4937SOL    HW116643   7.772   4.592   8.576
 4937SOL    HW216644   7.922   4.603   8.586
 4938SOL     OW16645  12.593   9.455  12.592
 4938SOL    HW116646  12.647   9.383  12.625
 4938SOL    HW216647  12.641   9.487  12.516
 4939SOL     OW16648  11.346   4.353  13.709
 4939SOL    HW116649  11.335   4.268  13.752
 4939SOL    HW216650  11.285   4.351  13.635
 4940SOL     OW16651   4.620   9.242   3.543
 4940SOL    HW116652   4.547   9.181   3.531
 4940SOL    HW216653   4.608   9.276   3.632
 4941SOL     OW16654   1.446   7.772   8.878
 4941SOL    HW116655   1.376   7.721   8.839
 4941SOL    HW216656   1.402   7.848   8.916
 4942SOL     OW16657   4.829   4.099   6.623
 4942SOL    HW116658   4.870   4.186   6.632
 4942SOL    HW216659   4.807   4.073   6.712
 4943SOL     OW16660   4.644   9.341   4.380
 4943SOL    HW116661   4.569   9.383   4.421
 4943SOL    HW216662   4.695   9.306   4.453
 4944SOL     OW16663   7.461   7.190   9.570
 4944SOL    HW116664   7.401   7.239   9.626
 4944SOL    HW216665   7.457   7.235   9.485
 4945SOL     OW16666  12.254   1.745   1.696
 4945SOL    HW116667  12.290   1.725   1.782
 4945SOL    HW216668  12.294   1.679   1.638
 4946SOL     OW16669  10.153  14.069   7.880
 4946SOL    HW116670  10.131  14.162   7.885
 4946SOL    HW216671  10.069  14.024   7.891
 4947SOL     OW16672   9.397   6.295  14.029
 4947SOL    HW116673   9.460   6.224  14.042
 4947SOL    HW216674   9.387   6.302  13.934
 4948SOL     OW16675  14.680   3.798   9.074
 4948SOL    HW116676  14.692   3.710   9.038
 4948SOL    HW216677  14.585   3.807   9.084
 4949SOL     OW16678   5.757   1.591  11.330
 4949SOL    HW116679   5.696   1.621  11.398
 4949SOL    HW216680   5.725   1.632  11.250
 4950SOL     OW16681   0.499  10.454  10.795
 4950SOL    HW116682   0.486  10.428  10.704
 4950SOL    HW216683   0.594  10.461  10.805
 4951SOL     OW16684   1.318  10.268   6.986
 4951SOL    HW116685   1.301  10.326   6.911
 4951SOL    HW216686   1.309  10.180   6.950
 4952SOL     OW16687   7.630   4.168   5.393
 4952SOL    HW116688   7.600   4.158   5.303
 4952SOL    HW216689   7.643   4.262   5.404
 4953SOL     OW16690   0.068   9.024   4.815
 4953SOL    HW116691  14.855   9.029   4.781
 4953SOL    HW216692   0.087   8.931   4.820
 4954SOL     OW16693  11.059   9.086   6.715
 4954SOL    HW116694  11.005   9.139   6.773
 4954SOL    HW216695  11.039   8.995   6.740
 4955SOL     OW16696  12.168  12.770   9.778
 4955SOL    HW116697  12.171  12.829   9.702
 4955SOL    HW216698  12.123  12.819   9.846
 4956SOL     OW16699   2.728  11.669   0.338
 4956SOL    HW116700   2.664  11.598   0.335
 4956SOL    HW216701   2.726  11.708   0.251
 4957SOL     OW16702  10.158   4.298  14.403
 4957SOL    HW116703  10.176   4.390  14.424
 4957SOL    HW216704  10.240   4.253  14.426
 4958SOL     OW16705  13.097  13.695   5.420
 4958SOL    HW116706  13.168  13.756   5.402
 4958SOL    HW216707  13.018  13.749   5.421
 4959SOL     OW16708   6.065   4.825   6.757
 4959SOL    HW116709   6.036   4.818   6.848
 4959SOL    HW216710   6.051   4.917   6.735
 4960SOL     OW16711  10.294   8.125  10.472
 4960SOL    HW116712  10.293   8.054  10.408
 4960SOL    HW216713  10.304   8.081  10.556
 4961SOL     OW16714  12.878   6.499   2.169
 4961SOL    HW116715  12.973   6.500   2.181
 4961SOL    HW216716  12.849   6.587   2.194
 4962SOL     OW16717   7.252  13.508   9.911
 4962SOL    HW116718   7.322  13.451   9.878
 4962SOL    HW216719   7.178  13.449   9.924
 4963SOL     OW16720  11.815   2.181  11.209
 4963SOL    HW116721  11.879   2.111  11.224
 4963SOL    HW216722  11.731   2.144  11.237
 4964SOL     OW16723  12.353   9.976   9.344
 4964SOL    HW116724  12.341   9.985   9.249
 4964SOL    HW216725  12.363   9.882   9.358
 4965SOL     OW16726  14.020   0.148  13.573
 4965SOL    HW116727  14.045   0.136  13.482
 4965SOL    HW216728  14.102   0.142  13.622
 4966SOL     OW16729   7.408   9.979   2.338
 4966SOL    HW116730   7.394  10.039   2.411
 4966SOL    HW216731   7.472   9.916   2.370
 4967SOL     OW16732  14.284  14.730   4.843
 4967SOL    HW116733  14.232  14.721   4.763
 4967SOL    HW216734  14.369  14.762   4.814
 4968SOL     OW16735   3.202   3.562  11.404
 4968SOL    HW116736   3.210   3.639  11.348
 4968SOL    HW216737   3.265   3.500  11.368
 4969SOL     OW16738  10.597   3.922   9.816
 4969SOL    HW116739  10.677   3.927   9.764
 4969SOL    HW216740  10.579   3.828   9.824
 4970SOL     OW16741  13.539   0.717  14.177
 4970SOL    HW116742  13.569   0.743  14.090
 4970SOL    HW216743  13.524   0.799  14.223
 4971SOL     OW16744   4.629  12.482   1.631
 4971SOL    HW116745   4.718  12.518   1.632
 4971SOL    HW216746   4.601  12.490   1.540
 4972SOL     OW16747  10.710   6.300   4.781
 4972SOL    HW116748  10.656   6.229   4.816
 4972SOL    HW216749  10.760   6.260   4.710
 4973SOL     OW16750   5.997   3.031  11.434
 4973SOL    HW116751   6.085   3.015  11.466
 4973SOL    HW216752   6.005   3.110  11.380
 4974SOL     OW16753  12.492  11.755   0.169
 4974SOL    HW116754  12.502  11.752   0.074
 4974SOL    HW216755  12.483  11.663   0.195
 4975SOL     OW16756   6.640   0.933   1.174
 4975SOL    HW116757   6.681   0.956   1.257
 4975SOL    HW216758   6.648   0.838   1.169
 4976SOL     OW16759  14.481   7.165   6.510
 4976SOL    HW116760  14.470   7.257   6.484
 4976SOL    HW216761  14.472   7.116   6.429
 4977SOL     OW16762   2.028   4.675   7.054
 4977SOL    HW116763   2.098   4.739   7.041
 4977SOL    HW216764   2.055   4.625   7.131
 4978SOL     OW16765   6.091  10.318   2.533
 4978SOL    HW116766   6.048  10.244   2.576
 4978SOL    HW216767   6.071  10.393   2.589
 4979SOL     OW16768   2.223   6.865  10.342
 4979SOL    HW116769   2.255   6.880  10.431
 4979SOL    HW216770   2.219   6.770  10.334
 4980SOL     OW16771   9.583  12.914   0.356
 4980SOL    HW116772   9.625  13.000   0.357
 4980SOL    HW216773   9.577  12.892   0.263
 4981SOL     OW16774  10.499  13.009   7.080
 4981SOL    HW116775  10.407  13.034   7.084
 4981SOL    HW216776  10.524  12.993   7.171
 4982SOL     OW16777  12.419   6.545   0.217
 4982SOL    HW116778  12.365   6.502   0.284
 4982SOL    HW216779  12.372   6.627   0.198
 4983SOL     OW16780  10.495   3.361  10.294
 4983SOL    HW116781  10.574   3.353  10.347
 4983SOL    HW216782  10.527   3.379  10.205
 4984SOL     OW16783   2.258   4.882   3.212
 4984SOL    HW116784   2.179   4.896   3.263
 4984SOL    HW216785   2.253   4.791   3.184
 4985SOL     OW16786  10.196   7.114   4.461
 4985SOL    HW116787  10.263   7.183   4.466
 4985SOL    HW216788  10.219   7.053   4.531
 4986SOL     OW16789   6.206   3.817  10.507
 4986SOL    HW116790   6.133   3.780  10.458
 4986SOL    HW216791   6.226   3.899  10.462
 4987SOL     OW16792   4.631   3.850   3.831
 4987SOL    HW116793   4.601   3.793   3.902
 4987SOL    HW216794   4.698   3.905   3.871
 4988SOL     OW16795   8.743   6.751   4.112
 4988SOL    HW116796   8.684   6.825   4.098
 4988SOL    HW216797   8.755   6.748   4.207
 4989SOL     OW16798   5.491   5.189   9.952
 4989SOL    HW116799   5.570   5.135   9.957
 4989SOL    HW216800   5.508   5.262  10.011
 4990SOL     OW16801   7.542   9.385  11.205
 4990SOL    HW116802   7.541   9.358  11.114
 4990SOL    HW216803   7.587   9.314  11.251
 4991SOL     OW16804  12.889   1.520   5.607
 4991SOL    HW116805  12.911   1.587   5.542
 4991SOL    HW216806  12.920   1.556   5.690
 4992SOL     OW16807  13.543   5.552  14.215
 4992SOL    HW116808  13.614   5.614  14.233
 4992SOL    HW216809  13.571   5.472  14.259
 4993SOL     OW16810   7.580   0.422  11.614
 4993SOL    HW116811   7.660   0.373  11.597
 4993SOL    HW216812   7.556   0.399  11.704
 4994SOL     OW16813   0.996   1.774  13.102
 4994SOL    HW116814   1.082   1.739  13.078
 4994SOL    HW216815   0.934   1.709  13.070
 4995SOL     OW16816  14.870  12.214   7.134
 4995SOL    HW116817   0.042  12.264   7.200
 4995SOL    HW216818   0.041  12.131   7.127
 4996SOL     OW16819   1.787   4.990   0.805
 4996SOL    HW116820   1.831   4.908   0.782
 4996SOL    HW216821   1.828   5.018   0.886
 4997SOL     OW16822   6.495   5.729  12.658
 4997SOL    HW116823   6.534   5.651  12.618
 4997SOL    HW216824   6.532   5.802  12.608
 4998SOL     OW16825   3.613   9.611   1.792
 4998SOL    HW116826   3.689   9.630   1.738
 4998SOL    HW216827   3.645   9.545   1.854
 4999SOL     OW16828   7.559  11.012   4.130
 4999SOL    HW116829   7.620  10.974   4.067
 4999SOL    HW216830   7.549  10.945   4.197
 5000SOL     OW16831   5.943   7.049  14.695
 5000SOL    HW116832   5.978   6.971  14.652
 5000SOL    HW216833   5.990   7.122  14.655
 5001SOL     OW16834  14.138   1.157  10.955
 5001SOL    HW116835  14.054   1.114  10.971
 5001SOL    HW216836  14.202   1.086  10.953
 5002SOL     OW16837   3.602   6.142   5.414
 5002SOL    HW116838   3.606   6.165   5.507
 5002SOL    HW216839   3.520   6.181   5.383
 5003SOL     OW16840   2.140   6.263  12.952
 5003SOL    HW116841   2.180   6.230  12.872
 5003SOL    HW216842   2.047   6.242  12.943
 5004SOL     OW16843   7.935   8.860   6.629
 5004SOL    HW116844   7.873   8.818   6.569
 5004SOL    HW216845   7.896   8.847   6.716
 5005SOL     OW16846   2.496  11.916   1.722
 5005SOL    HW116847   2.562  11.846   1.715
 5005SOL    HW216848   2.545  11.991   1.755
 5006SOL     OW16849   3.678  14.057   2.214
 5006SOL    HW116850   3.631  14.020   2.139
 5006SOL    HW216851   3.733  13.985   2.245
 5007SOL     OW16852   0.363   9.563   8.872
 5007SOL    HW116853   0.358   9.474   8.908
 5007SOL    HW216854   0.425   9.609   8.928
 5008SOL     OW16855  10.557   4.957  10.059
 5008SOL    HW116856  10.532   4.989   9.972
 5008SOL    HW216857  10.474   4.939  10.102
 5009SOL     OW16858  10.186   3.886   9.668
 5009SOL    HW116859  10.093   3.909   9.677
 5009SOL    HW216860  10.231   3.945   9.728
 5010SOL     OW16861   2.423   4.581   8.946
 5010SOL    HW116862   2.518   4.586   8.961
 5010SOL    HW216863   2.399   4.494   8.979
 5011SOL     OW16864   9.157   0.705   6.160
 5011SOL    HW116865   9.186   0.717   6.069
 5011SOL    HW216866   9.238   0.711   6.211
 5012SOL     OW16867   8.974   2.215   8.845
 5012SOL    HW116868   8.914   2.259   8.905
 5012SOL    HW216869   8.933   2.129   8.830
 5013SOL     OW16870  12.741   2.915  10.919
 5013SOL    HW116871  12.685   2.877  10.852
 5013SOL    HW216872  12.737   2.852  10.991
 5014SOL     OW16873   1.648   2.064  10.413
 5014SOL    HW116874   1.700   2.002  10.464
 5014SOL    HW216875   1.634   2.020  10.329
 5015SOL     OW16876  13.553  11.166   7.242
 5015SOL    HW116877  13.514  11.199   7.322
 5015SOL    HW216878  13.642  11.140   7.266
 5016SOL     OW16879  10.712  13.100   5.367
 5016SOL    HW116880  10.693  13.193   5.382
 5016SOL    HW216881  10.777  13.078   5.434
 5017SOL     OW16882  14.147  10.350   4.304
 5017SOL    HW116883  14.135  10.288   4.232
 5017SOL    HW216884  14.059  10.363   4.339
 5018SOL     OW16885   3.590   4.453   5.902
 5018SOL    HW116886   3.568   4.394   5.830
 5018SOL    HW216887   3.507   4.466   5.949
 5019SOL     OW16888   6.451   6.401   6.748
 5019SOL    HW116889   6.405   6.466   6.696
 5019SOL    HW216890   6.544   6.415   6.728
 5020SOL     OW16891   7.960   0.928   3.141
 5020SOL    HW116892   8.017   0.869   3.191
 5020SOL    HW216893   8.017   1.000   3.115
 5021SOL     OW16894   4.257   1.964   2.648
 5021SOL    HW116895   4.283   1.951   2.557
 5021SOL    HW216896   4.258   2.058   2.660
 5022SOL     OW16897   5.704   9.760  12.130
 5022SOL    HW116898   5.656   9.835  12.167
 5022SOL    HW216899   5.768   9.799  12.071
 5023SOL     OW16900  12.507  11.482  11.357
 5023SOL    HW116901  12.544  11.462  11.443
 5023SOL    HW216902  12.516  11.577  11.349
 5024SOL     OW16903   1.156   4.897   7.114
 5024SOL    HW116904   1.227   4.861   7.167
 5024SOL    HW216905   1.186   4.885   7.024
 5025SOL     OW16906   2.559   7.189   9.393
 5025SOL    HW116907   2.547   7.245   9.470
 5025SOL    HW216908   2.649   7.157   9.401
 5026SOL     OW16909   2.935  11.488   5.029
 5026SOL    HW116910   3.016  11.472   5.077
 5026SOL    HW216911   2.867  11.486   5.096
 5027SOL     OW16912   6.348   3.079  14.371
 5027SOL    HW116913   6.318   3.154  14.422
 5027SOL    HW216914   6.269   3.048  14.326
 5028SOL     OW16915  10.206   5.165   0.497
 5028SOL    HW116916  10.217   5.259   0.506
 5028SOL    HW216917  10.144   5.155   0.425
 5029SOL     OW16918   5.525   4.419   0.425
 5029SOL    HW116919   5.456   4.468   0.471
 5029SOL    HW216920   5.490   4.407   0.337
 5030SOL     OW16921   3.243  10.443   4.794
 5030SOL    HW116922   3.257  10.464   4.886
 5030SOL    HW216923   3.326  10.404   4.765
 5031SOL     OW16924   7.409  11.209   6.149
 5031SOL    HW116925   7.360  11.130   6.125
 5031SOL    HW216926   7.474  11.179   6.213
 5032SOL     OW16927   3.876   1.162   4.586
 5032SOL    HW116928   3.827   1.210   4.520
 5032SOL    HW216929   3.826   1.081   4.599
 5033SOL     OW16930   0.096   2.099   5.704
 5033SOL    HW116931   0.024   2.088   5.642
 5033SOL    HW216932   0.158   2.029   5.681
 5034SOL     OW16933   7.167  14.219   3.105
 5034SOL    HW116934   7.220  14.246   3.030
 5034SOL    HW216935   7.226  14.164   3.157
 5035SOL     OW16936  11.205   3.694   4.042
 5035SOL    HW116937  11.151   3.698   4.121
 5035SOL    HW216938  11.156   3.742   3.976
 5036SOL     OW16939  13.945  14.090   1.249
 5036SOL    HW116940  14.041  14.099   1.251
 5036SOL    HW216941  13.918  14.132   1.168
 5037SOL     OW16942  11.722   9.175   0.796
 5037SOL    HW116943  11.726   9.270   0.800
 5037SOL    HW216944  11.809   9.145   0.821
 5038SOL     OW16945   2.021  11.563  14.126
 5038SOL    HW116946   1.982  11.590  14.043
 5038SOL    HW216947   2.114  11.553  14.108
 5039SOL     OW16948  14.683  11.052  14.249
 5039SOL    HW116949  14.708  11.120  14.312
 5039SOL    HW216950  14.731  10.974  14.277
 5040SOL     OW16951  10.407   7.922   0.636
 5040SOL    HW116952  10.345   7.976   0.586
 5040SOL    HW216953  10.360   7.902   0.717
 5041SOL     OW16954  10.297   2.200  14.787
 5041SOL    HW116955  10.355   2.173  14.858
 5041SOL    HW216956  10.327   2.150  14.711
 5042SOL     OW16957   2.248  13.846   6.751
 5042SOL    HW116958   2.171  13.798   6.780
 5042SOL    HW216959   2.213  13.929   6.718
 5043SOL     OW16960   9.556  12.935   2.163
 5043SOL    HW116961   9.572  12.983   2.082
 5043SOL    HW216962   9.605  12.982   2.230
 5044SOL     OW16963   4.899   4.725   3.636
 5044SOL    HW116964   4.808   4.717   3.665
 5044SOL    HW216965   4.950   4.678   3.702
 5045SOL     OW16966  10.424   8.906  14.735
 5045SOL    HW116967  10.413   8.877  14.644
 5045SOL    HW216968  10.377   8.990  14.739
 5046SOL     OW16969   9.358  10.772   7.150
 5046SOL    HW116970   9.372  10.837   7.080
 5046SOL    HW216971   9.263  10.767   7.158
 5047SOL     OW16972   8.128   4.425   7.009
 5047SOL    HW116973   8.045   4.377   7.012
 5047SOL    HW216974   8.135   4.466   7.096
 5048SOL     OW16975   0.759   3.006   5.708
 5048SOL    HW116976   0.762   3.057   5.627
 5048SOL    HW216977   0.671   2.969   5.711
 5049SOL     OW16978   1.715  13.710   4.831
 5049SOL    HW116979   1.662  13.776   4.786
 5049SOL    HW216980   1.679  13.707   4.920
 5050SOL     OW16981  13.761   9.949   0.202
 5050SOL    HW116982  13.737   9.867   0.160
 5050SOL    HW216983  13.726   9.942   0.291
 5051SOL     OW16984  10.020  14.571   9.155
 5051SOL    HW116985  10.031  14.643   9.094
 5051SOL    HW216986   9.980  14.501   9.104
 5052SOL     OW16987   5.862   6.744   8.137
 5052SOL    HW116988   5.915   6.784   8.067
 5052SOL    HW216989   5.793   6.697   8.090
 5053SOL     OW16990   8.458   3.312  14.560
 5053SOL    HW116991   8.420   3.228  14.586
 5053SOL    HW216992   8.483   3.354  14.643
 5054SOL     OW16993  10.342   7.255   8.258
 5054SOL    HW116994  10.317   7.333   8.208
 5054SOL    HW216995  10.315   7.182   8.202
 5055SOL     OW16996  13.452   8.559  12.551
 5055SOL    HW116997  13.470   8.555  12.645
 5055SOL    HW216998  13.512   8.495  12.512
 5056SOL     OW16999   5.392  12.918   2.194
 5056SOL    HW117000   5.375  12.994   2.139
 5056SOL    HW217001   5.323  12.855   2.172
 5057SOL     OW17002   4.868  10.958  13.824
 5057SOL    HW117003   4.798  10.894  13.837
 5057SOL    HW217004   4.941  10.925  13.876
 5058SOL     OW17005  11.644   7.019   5.354
 5058SOL    HW117006  11.611   6.952   5.295
 5058SOL    HW217007  11.639   6.979   5.441
 5059SOL     OW17008   0.991  14.179   6.083
 5059SOL    HW117009   0.899  14.152   6.084
 5059SOL    HW217010   1.002  14.230   6.162
 5060SOL     OW17011  13.954   9.310   3.380
 5060SOL    HW117012  13.924   9.399   3.399
 5060SOL    HW217013  13.882   9.253   3.408
 5061SOL     OW17014   0.763   0.522   4.774
 5061SOL    HW117015   0.848   0.559   4.748
 5061SOL    HW217016   0.736   0.470   4.699
 5062SOL     OW17017  10.811   4.154   6.167
 5062SOL    HW117018  10.837   4.126   6.079
 5062SOL    HW217019  10.729   4.201   6.153
 5063SOL     OW17020   7.607   6.391  12.985
 5063SOL    HW117021   7.657   6.338  12.924
 5063SOL    HW217022   7.524   6.343  12.996
 5064SOL     OW17023  13.363  13.740  14.694
 5064SOL    HW117024  13.272  13.736  14.721
 5064SOL    HW217025  13.361  13.720  14.600
 5065SOL     OW17026  10.821  11.536   3.617
 5065SOL    HW117027  10.911  11.569   3.612
 5065SOL    HW217028  10.795  11.522   3.526
 5066SOL     OW17029   7.723   8.819   4.801
 5066SOL    HW117030   7.709   8.839   4.708
 5066SOL    HW217031   7.638   8.831   4.841
 5067SOL     OW17032   8.144   2.037   7.456
 5067SOL    HW117033   8.169   2.052   7.547
 5067SOL    HW217034   8.071   2.098   7.441
 5068SOL     OW17035   5.589  12.224   8.043
 5068SOL    HW117036   5.620  12.280   7.972
 5068SOL    HW217037   5.658  12.231   8.110
 5069SOL     OW17038   7.144   5.207  11.358
 5069SOL    HW117039   7.099   5.290  11.342
 5069SOL    HW217040   7.074   5.142  11.365
 5070SOL     OW17041   5.399   2.506   7.530
 5070SOL    HW117042   5.433   2.478   7.445
 5070SOL    HW217043   5.433   2.442   7.592
 5071SOL     OW17044  12.945   5.079   1.922
 5071SOL    HW117045  12.989   5.092   1.838
 5071SOL    HW217046  12.987   5.141   1.981
 5072SOL     OW17047   2.883  11.355  12.263
 5072SOL    HW117048   2.942  11.281  12.272
 5072SOL    HW217049   2.831  11.354  12.344
 5073SOL     OW17050   3.208  13.532  10.155
 5073SOL    HW117051   3.150  13.495  10.220
 5073SOL    HW217052   3.283  13.565  10.206
 5074SOL     OW17053  13.418   1.996   3.020
 5074SOL    HW117054  13.421   2.077   3.069
 5074SOL    HW217055  13.488   2.004   2.955
 5075SOL     OW17056   0.442  11.272   0.546
 5075SOL    HW117057   0.516  11.261   0.605
 5075SOL    HW217058   0.414  11.363   0.558
 5076SOL     OW17059   2.890  11.032   3.593
 5076SOL    HW117060   2.825  11.060   3.528
 5076SOL    HW217061   2.950  10.976   3.544
 5077SOL     OW17062   3.799   7.726   0.859
 5077SOL    HW117063   3.749   7.740   0.940
 5077SOL    HW217064   3.734   7.731   0.789
 5078SOL     OW17065  11.815  13.916  13.732
 5078SOL    HW117066  11.851  13.977  13.668
 5078SOL    HW217067  11.720  13.924  13.722
 5079SOL     OW17068   3.665  10.824  11.589
 5079SOL    HW117069   3.725  10.782  11.527
 5079SOL    HW217070   3.595  10.859  11.534
 5080SOL     OW17071   7.004   2.534   9.060
 5080SOL    HW117072   7.021   2.627   9.042
 5080SOL    HW217073   6.914   2.532   9.092
 5081SOL     OW17074   7.977  10.822   8.645
 5081SOL    HW117075   8.039  10.838   8.574
 5081SOL    HW217076   7.990  10.731   8.669
 5082SOL     OW17077   9.098   7.291   0.024
 5082SOL    HW117078   9.189   7.264   0.011
 5082SOL    HW217079   9.100   7.387   0.017
 5083SOL     OW17080   2.111   7.744   8.715
 5083SOL    HW117081   2.123   7.810   8.646
 5083SOL    HW217082   2.075   7.668   8.670
 5084SOL     OW17083  13.829  13.319   6.807
 5084SOL    HW117084  13.904  13.362   6.766
 5084SOL    HW217085  13.754  13.346   6.754
 5085SOL     OW17086  12.132   9.507  14.697
 5085SOL    HW117087  12.165   9.465  14.776
 5085SOL    HW217088  12.203   9.496  14.633
 5086SOL     OW17089   7.631   7.902  11.615
 5086SOL    HW117090   7.577   7.824  11.619
 5086SOL    HW217091   7.576   7.968  11.572
 5087SOL     OW17092  14.803  13.228  11.364
 5087SOL    HW117093  14.862  13.285  11.413
 5087SOL    HW217094  14.730  13.211  11.424
 5088SOL     OW17095   9.835  13.865   6.349
 5088SOL    HW117096   9.761  13.832   6.298
 5088SOL    HW217097   9.908  13.867   6.287
 5089SOL     OW17098   7.064   0.622  13.679
 5089SOL    HW117099   7.051   0.648  13.587
 5089SOL    HW217100   7.128   0.685  13.712
 5090SOL     OW17101   0.594   9.015   3.146
 5090SOL    HW117102   0.511   9.046   3.110
 5090SOL    HW217103   0.605   9.064   3.228
 5091SOL     OW17104  14.060  14.216   3.555
 5091SOL    HW117105  14.083  14.136   3.603
 5091SOL    HW217106  14.075  14.286   3.618
 5092SOL     OW17107  11.017  11.240   2.842
 5092SOL    HW117108  11.105  11.230   2.879
 5092SOL    HW217109  10.982  11.151   2.840
 5093SOL     OW17110   7.027  13.941   8.850
 5093SOL    HW117111   6.982  13.975   8.773
 5093SOL    HW217112   7.094  13.883   8.814
 5094SOL     OW17113   5.201   2.793   9.756
 5094SOL    HW117114   5.272   2.813   9.817
 5094SOL    HW217115   5.233   2.825   9.671
 5095SOL     OW17116   0.078  10.348   9.167
 5095SOL    HW117117   0.164  10.362   9.207
 5095SOL    HW217118   0.066  10.424   9.110
 5096SOL     OW17119  12.689   8.963   8.320
 5096SOL    HW117120  12.753   9.002   8.260
 5096SOL    HW217121  12.672   8.877   8.283
 5097SOL     OW17122   9.131   7.085   3.255
 5097SOL    HW117123   9.130   7.180   3.241
 5097SOL    HW217124   9.047   7.055   3.221
 5098SOL     OW17125   0.292   6.614  13.279
 5098SOL    HW117126   0.312   6.708  13.278
 5098SOL    HW217127   0.377   6.571  13.276
 5099SOL     OW17128   4.536  13.847   7.022
 5099SOL    HW117129   4.632  13.856   7.021
 5099SOL    HW217130   4.505  13.929   7.058
 5100SOL     OW17131  11.386  11.213   2.034
 5100SOL    HW117132  11.327  11.232   2.107
 5100SOL    HW217133  11.474  11.217   2.073
 5101SOL     OW17134  13.969   9.341   2.538
 5101SOL    HW117135  13.932   9.429   2.528
 5101SOL    HW217136  13.922   9.288   2.474
 5102SOL     OW17137   4.612   5.029   4.356
 5102SOL    HW117138   4.676   5.030   4.427
 5102SOL    HW217139   4.635   4.952   4.304
 5103SOL     OW17140   6.136   3.228   7.153
 5103SOL    HW117141   6.213   3.180   7.183
 5103SOL    HW217142   6.163   3.320   7.152
 5104SOL     OW17143   1.687  11.986  10.687
 5104SOL    HW117144   1.729  11.919  10.741
 5104SOL    HW217145   1.661  11.940  10.607
 5105SOL     OW17146  12.305   8.492   8.524
 5105SOL    HW117147  12.252   8.482   8.604
 5105SOL    HW217148  12.392   8.463   8.550
 5106SOL     OW17149   8.409   8.508   5.561
 5106SOL    HW117150   8.330   8.528   5.511
 5106SOL    HW217151   8.401   8.415   5.582
 5107SOL     OW17152  10.819  13.709  11.124
 5107SOL    HW117153  10.790  13.657  11.199
 5107SOL    HW217154  10.915  13.705  11.128
 5108SOL     OW17155   3.073  11.078   6.802
 5108SOL    HW117156   3.033  11.033   6.877
 5108SOL    HW217157   3.164  11.094   6.829
 5109SOL     OW17158   7.322   9.624   5.417
 5109SOL    HW117159   7.242   9.626   5.469
 5109SOL    HW217160   7.381   9.685   5.461
 5110SOL     OW17161   4.526  14.402  11.115
 5110SOL    HW117162   4.485  14.488  11.108
 5110SOL    HW217163   4.468  14.353  11.173
 5111SOL     OW17164   4.731   0.475  12.815
 5111SOL    HW117165   4.811   0.521  12.841
 5111SOL    HW217166   4.756   0.383  12.812
 5112SOL     OW17167   9.456   9.819   4.820
 5112SOL    HW117168   9.402   9.769   4.881
 5112SOL    HW217169   9.468   9.761   4.745
 5113SOL     OW17170  14.002  14.506   5.526
 5113SOL    HW117171  14.030  14.447   5.595
 5113SOL    HW217172  14.024  14.593   5.557
 5114SOL     OW17173   7.294   7.715   0.142
 5114SOL    HW117174   7.213   7.679   0.105
 5114SOL    HW217175   7.264   7.789   0.195
 5115SOL     OW17176   7.169  14.181   1.071
 5115SOL    HW117177   7.234  14.128   1.118
 5115SOL    HW217178   7.220  14.252   1.032
 5116SOL     OW17179   8.389  12.401  10.338
 5116SOL    HW117180   8.405  12.439  10.251
 5116SOL    HW217181   8.467  12.423  10.388
 5117SOL     OW17182  10.591  12.824  12.888
 5117SOL    HW117183  10.622  12.915  12.890
 5117SOL    HW217184  10.542  12.817  12.806
 5118SOL     OW17185  13.211  11.647   8.235
 5118SOL    HW117186  13.258  11.577   8.281
 5118SOL    HW217187  13.214  11.721   8.295
 5119SOL     OW17188   2.917  12.052   4.698
 5119SOL    HW117189   2.987  12.075   4.759
 5119SOL    HW217190   2.896  12.135   4.654
 5120SOL     OW17191   4.532   7.370   1.254
 5120SOL    HW117192   4.589   7.339   1.325
 5120SOL    HW217193   4.472   7.297   1.238
 5121SOL     OW17194  10.155  11.601  10.713
 5121SOL    HW117195  10.250  11.604  10.711
 5121SOL    HW217196  10.126  11.684  10.676
 5122SOL     OW17197   5.351   5.061   6.727
 5122SOL    HW117198   5.320   5.034   6.813
 5122SOL    HW217199   5.440   5.026   6.721
 5123SOL     OW17200   1.093  14.135   9.926
 5123SOL    HW117201   1.082  14.072   9.998
 5123SOL    HW217202   1.016  14.192   9.932
 5124SOL     OW17203   7.218   1.599   9.081
 5124SOL    HW117204   7.194   1.684   9.042
 5124SOL    HW217205   7.137   1.548   9.077
 5125SOL     OW17206  12.403   8.861   9.561
 5125SOL    HW117207  12.377   8.831   9.648
 5125SOL    HW217208  12.352   8.807   9.501
 5126SOL     OW17209   1.902  11.137  10.593
 5126SOL    HW117210   1.958  11.060  10.601
 5126SOL    HW217211   1.849  11.137  10.673
 5127SOL     OW17212   6.558   5.724   0.797
 5127SOL    HW117213   6.505   5.662   0.847
 5127SOL    HW217214   6.515   5.808   0.809
 5128SOL     OW17215   2.647   6.314   9.245
 5128SOL    HW117216   2.570   6.267   9.279
 5128SOL    HW217217   2.636   6.310   9.150
 5129SOL     OW17218  11.594   2.715  13.657
 5129SOL    HW117219  11.648   2.792  13.638
 5129SOL    HW217220  11.608   2.699  13.751
 5130SOL     OW17221   2.003  11.470   9.843
 5130SOL    HW117222   1.945  11.416   9.789
 5130SOL    HW217223   2.087  11.470   9.797
 5131SOL     OW17224   5.823   0.991   8.280
 5131SOL    HW117225   5.768   0.988   8.202
 5131SOL    HW217226   5.795   1.069   8.327
 5132SOL     OW17227   4.960  14.127  12.185
 5132SOL    HW117228   4.914  14.151  12.105
 5132SOL    HW217229   4.890  14.108  12.248
 5133SOL     OW17230  10.675   0.344   7.947
 5133SOL    HW117231  10.737   0.400   7.899
 5133SOL    HW217232  10.595   0.347   7.894
 5134SOL     OW17233  13.677  10.934   4.034
 5134SOL    HW117234  13.712  10.871   4.097
 5134SOL    HW217235  13.754  10.970   3.990
 5135SOL     OW17236  10.280  14.799  14.458
 5135SOL    HW117237  10.197  14.769  14.421
 5135SOL    HW217238  10.341  14.728  14.440
 5136SOL     OW17239   5.229   9.746  10.939
 5136SOL    HW117240   5.226   9.838  10.965
 5136SOL    HW217241   5.226   9.747  10.843
 5137SOL     OW17242  11.738   1.390   0.131
 5137SOL    HW117243  11.729   1.413   0.039
 5137SOL    HW217244  11.653   1.413   0.170
 5138SOL     OW17245   4.434  11.000   0.970
 5138SOL    HW117246   4.405  11.091   0.957
 5138SOL    HW217247   4.410  10.956   0.888
 5139SOL     OW17248   8.155   9.358  11.295
 5139SOL    HW117249   8.224   9.296  11.318
 5139SOL    HW217250   8.201   9.437  11.268
 5140SOL     OW17251  12.461   9.072   7.958
 5140SOL    HW117252  12.550   9.039   7.953
 5140SOL    HW217253  12.414   9.027   7.888
 5141SOL     OW17254   2.113  14.156  11.722
 5141SOL    HW117255   2.200  14.158  11.763
 5141SOL    HW217256   2.067  14.085  11.768
 5142SOL     OW17257  14.846   3.065   0.609
 5142SOL    HW117258  14.824   3.112   0.690
 5142SOL    HW217259   0.025   3.127   0.560
 5143SOL     OW17260   9.988   4.535  11.251
 5143SOL    HW117261   9.946   4.551  11.335
 5143SOL    HW217262  10.071   4.582  11.256
 5144SOL     OW17263   6.310   9.007   3.086
 5144SOL    HW117264   6.329   8.916   3.111
 5144SOL    HW217265   6.336   9.012   2.994
 5145SOL     OW17266  14.161  12.110  10.526
 5145SOL    HW117267  14.217  12.032  10.530
 5145SOL    HW217268  14.086  12.084  10.472
 5146SOL     OW17269   4.695  10.930   4.483
 5146SOL    HW117270   4.746  11.010   4.498
 5146SOL    HW217271   4.607  10.960   4.464
 5147SOL     OW17272  10.349   3.082  13.784
 5147SOL    HW117273  10.264   3.076  13.827
 5147SOL    HW217274  10.398   3.007  13.818
 5148SOL     OW17275   8.687   4.274   2.754
 5148SOL    HW117276   8.695   4.179   2.752
 5148SOL    HW217277   8.777   4.306   2.766
 5149SOL     OW17278  12.086  11.081  12.611
 5149SOL    HW117279  12.158  11.073  12.548
 5149SOL    HW217280  12.009  11.100  12.557
 5150SOL     OW17281   1.267   3.866   4.770
 5150SOL    HW117282   1.219   3.838   4.692
 5150SOL    HW217283   1.221   3.945   4.800
 5151SOL     OW17284  14.767   9.254   6.262
 5151SOL    HW117285  14.856   9.276   6.236
 5151SOL    HW217286  14.713   9.277   6.187
 5152SOL     OW17287  11.230   3.508   7.630
 5152SOL    HW117288  11.236   3.428   7.578
 5152SOL    HW217289  11.198   3.574   7.570
 5153SOL     OW17290   6.262   1.742   1.846
 5153SOL    HW117291   6.263   1.662   1.899
 5153SOL    HW217292   6.349   1.744   1.805
 5154SOL     OW17293   4.950  12.286   7.005
 5154SOL    HW117294   4.927  12.216   6.943
 5154SOL    HW217295   4.957  12.242   7.089
 5155SOL     OW17296   2.377  10.320  12.421
 5155SOL    HW117297   2.334  10.367  12.349
 5155SOL    HW217298   2.442  10.265  12.378
 5156SOL     OW17299   7.038   0.465   1.661
 5156SOL    HW117300   7.020   0.558   1.647
 5156SOL    HW217301   7.089   0.439   1.585
 5157SOL     OW17302   6.532  11.166   4.292
 5157SOL    HW117303   6.513  11.259   4.299
 5157SOL    HW217304   6.449  11.126   4.266
 5158SOL     OW17305   6.476   1.364   7.397
 5158SOL    HW117306   6.425   1.330   7.323
 5158SOL    HW217307   6.441   1.452   7.411
 5159SOL     OW17308  12.935  12.071   8.631
 5159SOL    HW117309  12.899  12.111   8.552
 5159SOL    HW217310  13.009  12.127   8.655
 5160SOL     OW17311   3.935  12.006   9.025
 5160SOL    HW117312   3.983  12.089   9.022
 5160SOL    HW217313   3.905  11.992   8.936
 5161SOL     OW17314  12.115   4.206   7.168
 5161SOL    HW117315  12.183   4.158   7.215
 5161SOL    HW217316  12.157   4.232   7.086
 5162SOL     OW17317   3.610  10.401   0.807
 5162SOL    HW117318   3.555  10.479   0.803
 5162SOL    HW217319   3.585  10.358   0.889
 5163SOL     OW17320   9.707   3.839   8.064
 5163SOL    HW117321   9.781   3.884   8.106
 5163SOL    HW217322   9.727   3.746   8.075
 5164SOL     OW17323   0.732   1.507   8.596
 5164SOL    HW117324   0.700   1.586   8.551
 5164SOL    HW217325   0.767   1.452   8.526
 5165SOL     OW17326  12.432   2.591  10.445
 5165SOL    HW117327  12.504   2.614  10.386
 5165SOL    HW217328  12.475   2.557  10.523
 5166SOL     OW17329   5.021  12.257   2.236
 5166SOL    HW117330   5.102  12.249   2.186
 5166SOL    HW217331   5.030  12.194   2.307
 5167SOL     OW17332   7.755   3.605  14.673
 5167SOL    HW117333   7.815   3.679  14.671
 5167SOL    HW217334   7.751   3.575  14.582
 5168SOL     OW17335   7.992  10.264   8.004
 5168SOL    HW117336   7.913  10.281   8.056
 5168SOL    HW217337   8.029  10.184   8.041
 5169SOL     OW17338   5.885   1.165  14.751
 5169SOL    HW117339   5.946   1.235  14.725
 5169SOL    HW217340   5.858   1.189  14.840
 5170SOL     OW17341   7.092   5.615  13.062
 5170SOL    HW117342   7.073   5.561  13.139
 5170SOL    HW217343   7.157   5.564  13.013
 5171SOL     OW17344   4.993   9.991  12.327
 5171SOL    HW117345   4.970   9.905  12.293
 5171SOL    HW217346   4.991  10.048  12.251
 5172SOL     OW17347   7.446   3.016   3.687
 5172SOL    HW117348   7.410   2.936   3.726
 5172SOL    HW217349   7.498   3.055   3.757
 5173SOL     OW17350   8.104  10.255   1.112
 5173SOL    HW117351   8.171  10.304   1.160
 5173SOL    HW217352   8.121  10.276   1.020
 5174SOL     OW17353   1.309   5.167   7.270
 5174SOL    HW117354   1.217   5.162   7.247
 5174SOL    HW217355   1.330   5.079   7.303
 5175SOL     OW17356   9.017  11.743   4.039
 5175SOL    HW117357   9.020  11.838   4.028
 5175SOL    HW217358   9.108  11.715   4.033
 5176SOL     OW17359  14.217   7.809  10.588
 5176SOL    HW117360  14.134   7.843  10.553
 5176SOL    HW217361  14.281   7.825  10.518
 5177SOL     OW17362   2.252   6.010  12.114
 5177SOL    HW117363   2.196   5.965  12.177
 5177SOL    HW217364   2.269   5.945  12.046
 5178SOL     OW17365   6.138  13.534   5.153
 5178SOL    HW117366   6.203  13.509   5.087
 5178SOL    HW217367   6.105  13.619   5.123
 5179SOL     OW17368   2.026  13.483   4.092
 5179SOL    HW117369   1.974  13.424   4.038
 5179SOL    HW217370   2.010  13.453   4.182
 5180SOL     OW17371   8.352   8.229   4.729
 5180SOL    HW117372   8.405   8.309   4.730
 5180SOL    HW217373   8.320   8.220   4.819
 5181SOL     OW17374   6.028  13.024   5.785
 5181SOL    HW117375   6.077  12.956   5.832
 5181SOL    HW217376   6.090  13.058   5.720
 5182SOL     OW17377   5.118   0.796  12.745
 5182SOL    HW117378   5.205   0.808  12.706
 5182SOL    HW217379   5.082   0.720  12.699
 5183SOL     OW17380   4.170   6.796   3.221
 5183SOL    HW117381   4.248   6.796   3.166
 5183SOL    HW217382   4.152   6.889   3.236
 5184SOL     OW17383   8.092   0.016   7.759
 5184SOL    HW117384   8.151  14.834   7.807
 5184SOL    HW217385   8.076   0.090   7.817
 5185SOL     OW17386   1.042   0.770  12.844
 5185SOL    HW117387   1.120   0.770  12.789
 5185SOL    HW217388   1.060   0.705  12.912
 5186SOL     OW17389   0.406   0.711  13.464
 5186SOL    HW117390   0.410   0.629  13.515
 5186SOL    HW217391   0.410   0.682  13.373
 5187SOL     OW17392   6.397   3.812   9.851
 5187SOL    HW117393   6.369   3.896   9.815
 5187SOL    HW217394   6.473   3.833   9.906
 5188SOL     OW17395   4.036   2.047  13.028
 5188SOL    HW117396   3.967   1.985  13.003
 5188SOL    HW217397   4.046   2.034  13.122
 5189SOL     OW17398  12.997   5.920   9.650
 5189SOL    HW117399  13.078   5.971   9.660
 5189SOL    HW217400  12.962   5.912   9.739
 5190SOL     OW17401   1.520  11.180   5.818
 5190SOL    HW117402   1.493  11.234   5.892
 5190SOL    HW217403   1.449  11.116   5.808
 5191SOL     OW17404   8.113   8.041   9.998
 5191SOL    HW117405   8.060   8.045   9.919
 5191SOL    HW217406   8.186   8.102   9.982
 5192SOL     OW17407   8.414   0.310   7.335
 5192SOL    HW117408   8.427   0.295   7.428
 5192SOL    HW217409   8.487   0.265   7.292
 5193SOL     OW17410   0.257   8.625   3.111
 5193SOL    HW117411   0.333   8.582   3.072
 5193SOL    HW217412   0.187   8.560   3.106
 5194SOL     OW17413   3.192  14.840   2.653
 5194SOL    HW117414   3.120  14.782   2.677
 5194SOL    HW217415   3.162   0.051   2.680
 5195SOL     OW17416  11.976   8.967   2.550
 5195SOL    HW117417  11.987   9.016   2.631
 5195SOL    HW217418  12.061   8.974   2.506
 5196SOL     OW17419  13.946   9.685   5.782
 5196SOL    HW117420  13.863   9.695   5.735
 5196SOL    HW217421  14.006   9.745   5.738
 5197SOL     OW17422  14.025   2.339   3.976
 5197SOL    HW117423  14.050   2.370   3.889
 5197SOL    HW217424  14.082   2.387   4.036
 5198SOL     OW17425  11.346   9.985   1.791
 5198SOL    HW117426  11.313  10.027   1.712
 5198SOL    HW217427  11.292   9.906   1.800
 5199SOL     OW17428   0.814  13.134   9.401
 5199SOL    HW117429   0.868  13.150   9.324
 5199SOL    HW217430   0.736  13.090   9.367
 5200SOL     OW17431   2.182   0.778   2.346
 5200SOL    HW117432   2.250   0.838   2.375
 5200SOL    HW217433   2.208   0.693   2.382
 5201SOL     OW17434  13.369   2.967  10.824
 5201SOL    HW117435  13.398   2.965  10.915
 5201SOL    HW217436  13.288   3.019  10.826
 5202SOL     OW17437   3.877   6.990   9.869
 5202SOL    HW117438   3.800   6.963   9.818
 5202SOL    HW217439   3.940   6.918   9.857
 5203SOL     OW17440   5.073   2.839  13.918
 5203SOL    HW117441   4.999   2.779  13.904
 5203SOL    HW217442   5.108   2.854  13.831
 5204SOL     OW17443   1.904  12.211  11.166
 5204SOL    HW117444   1.900  12.305  11.187
 5204SOL    HW217445   1.812  12.182  11.168
 5205SOL     OW17446   2.397   2.696  11.473
 5205SOL    HW117447   2.469   2.759  11.473
 5205SOL    HW217448   2.433   2.620  11.519
 5206SOL     OW17449   3.565   8.671   9.826
 5206SOL    HW117450   3.550   8.618   9.904
 5206SOL    HW217451   3.579   8.760   9.860
 5207SOL     OW17452   8.712   8.628   7.912
 5207SOL    HW117453   8.746   8.695   7.853
 5207SOL    HW217454   8.789   8.594   7.957
 5208SOL     OW17455   3.994   9.012  13.947
 5208SOL    HW117456   3.932   8.990  13.877
 5208SOL    HW217457   4.077   8.976  13.918
 5209SOL     OW17458   9.141   8.094   9.891
 5209SOL    HW117459   9.099   8.162   9.943
 5209SOL    HW217460   9.191   8.043   9.954
 5210SOL     OW17461   3.430   2.525  12.249
 5210SOL    HW117462   3.383   2.543  12.330
 5210SOL    HW217463   3.520   2.554  12.266
 5211SOL     OW17464   7.814   1.288   9.013
 5211SOL    HW117465   7.735   1.286   8.960
 5211SOL    HW217466   7.783   1.299   9.103
 5212SOL     OW17467   2.934   2.820  14.313
 5212SOL    HW117468   2.940   2.909  14.279
 5212SOL    HW217469   3.009   2.775  14.273
 5213SOL     OW17470   8.668   0.360   4.879
 5213SOL    HW117471   8.640   0.387   4.791
 5213SOL    HW217472   8.694   0.268   4.869
 5214SOL     OW17473   3.032   7.652   4.039
 5214SOL    HW117474   3.076   7.718   4.092
 5214SOL    HW217475   2.956   7.627   4.090
 5215SOL     OW17476   5.624   1.719   9.354
 5215SOL    HW117477   5.576   1.766   9.286
 5215SOL    HW217478   5.558   1.666   9.399
 5216SOL     OW17479   0.675   4.055   4.768
 5216SOL    HW117480   0.610   4.017   4.710
 5216SOL    HW217481   0.624   4.097   4.838
 5217SOL     OW17482  14.488   1.013   3.725
 5217SOL    HW117483  14.445   0.931   3.701
 5217SOL    HW217484  14.441   1.042   3.804
 5218SOL     OW17485   6.050   0.646   9.395
 5218SOL    HW117486   6.056   0.551   9.390
 5218SOL    HW217487   6.029   0.674   9.306
 5219SOL     OW17488   4.667   3.782   2.024
 5219SOL    HW117489   4.706   3.865   1.997
 5219SOL    HW217490   4.663   3.788   2.120
 5220SOL     OW17491   0.877  13.531   9.929
 5220SOL    HW117492   0.969  13.509   9.914
 5220SOL    HW217493   0.843  13.457   9.978
 5221SOL     OW17494   0.140   3.078  10.032
 5221SOL    HW117495   0.115   3.136  10.104
 5221SOL    HW217496   0.125   3.129   9.953
 5222SOL     OW17497   3.489   6.872   4.403
 5222SOL    HW117498   3.559   6.933   4.380
 5222SOL    HW217499   3.511   6.842   4.491
 5223SOL     OW17500   2.240  10.814   0.631
 5223SOL    HW117501   2.251  10.896   0.582
 5223SOL    HW217502   2.209  10.842   0.717
 5224SOL     OW17503   9.637   2.370   6.123
 5224SOL    HW117504   9.628   2.333   6.211
 5224SOL    HW217505   9.611   2.462   6.134
 5225SOL     OW17506   3.347   9.409  12.305
 5225SOL    HW117507   3.432   9.382  12.269
 5225SOL    HW217508   3.287   9.339  12.279
 5226SOL     OW17509   4.451   3.042  11.288
 5226SOL    HW117510   4.435   3.029  11.382
 5226SOL    HW217511   4.446   3.136  11.276
 5227SOL     OW17512   9.825   7.841   6.658
 5227SOL    HW117513   9.758   7.806   6.600
 5227SOL    HW217514   9.782   7.914   6.703
 5228SOL     OW17515   3.926   5.632   9.333
 5228SOL    HW117516   3.901   5.616   9.424
 5228SOL    HW217517   3.996   5.697   9.340
 5229SOL     OW17518   3.040   2.214   7.895
 5229SOL    HW117519   3.004   2.239   7.809
 5229SOL    HW217520   3.046   2.297   7.943
 5230SOL     OW17521   3.641   9.237  10.576
 5230SOL    HW117522   3.712   9.215  10.637
 5230SOL    HW217523   3.621   9.329  10.594
 5231SOL     OW17524   8.356   5.676   3.185
 5231SOL    HW117525   8.285   5.730   3.219
 5231SOL    HW217526   8.315   5.593   3.162
 5232SOL     OW17527   3.539  12.247   8.577
 5232SOL    HW117528   3.463  12.202   8.542
 5232SOL    HW217529   3.553  12.208   8.663
 5233SOL     OW17530   4.140  11.123  11.507
 5233SOL    HW117531   4.089  11.112  11.427
 5233SOL    HW217532   4.187  11.041  11.518
 5234SOL     OW17533   3.704   2.747  10.739
 5234SOL    HW117534   3.670   2.765  10.827
 5234SOL    HW217535   3.736   2.657  10.744
 5235SOL     OW17536   8.631  14.499   0.384
 5235SOL    HW117537   8.685  14.430   0.345
 5235SOL    HW217538   8.569  14.451   0.439
 5236SOL     OW17539  14.356  14.517   3.561
 5236SOL    HW117540  14.344  14.611   3.542
 5236SOL    HW217541  14.362  14.512   3.656
 5237SOL     OW17542   5.110   8.644  14.749
 5237SOL    HW117543   5.128   8.723  14.800
 5237SOL    HW217544   5.023   8.657  14.713
 5238SOL     OW17545   5.964  10.131   1.095
 5238SOL    HW117546   6.057  10.143   1.079
 5238SOL    HW217547   5.932  10.219   1.116
 5239SOL     OW17548   5.874  12.896   1.648
 5239SOL    HW117549   5.856  12.963   1.582
 5239SOL    HW217550   5.954  12.853   1.617
 5240SOL     OW17551   9.794  11.393   4.425
 5240SOL    HW117552   9.875  11.369   4.470
 5240SOL    HW217553   9.813  11.380   4.332
 5241SOL     OW17554   7.982   5.158   2.049
 5241SOL    HW117555   8.023   5.224   1.992
 5241SOL    HW217556   7.890   5.181   2.051
 5242SOL     OW17557  13.822   4.376   2.328
 5242SOL    HW117558  13.828   4.313   2.256
 5242SOL    HW217559  13.762   4.335   2.391
 5243SOL     OW17560   8.777   2.981   5.789
 5243SOL    HW117561   8.685   2.996   5.766
 5243SOL    HW217562   8.776   2.897   5.834
 5244SOL     OW17563   0.398   7.599   2.279
 5244SOL    HW117564   0.318   7.561   2.242
 5244SOL    HW217565   0.393   7.577   2.372
 5245SOL     OW17566   7.144   7.356   8.664
 5245SOL    HW117567   7.099   7.440   8.669
 5245SOL    HW217568   7.105   7.311   8.590
 5246SOL     OW17569   8.243   8.225   4.974
 5246SOL    HW117570   8.234   8.320   4.976
 5246SOL    HW217571   8.155   8.193   4.996
 5247SOL     OW17572   7.781   8.339   4.608
 5247SOL    HW117573   7.824   8.347   4.694
 5247SOL    HW217574   7.725   8.417   4.603
 5248SOL     OW17575  11.366  14.483   3.883
 5248SOL    HW117576  11.351  14.409   3.941
 5248SOL    HW217577  11.279  14.520   3.868
 5249SOL     OW17578   6.949   5.834   3.241
 5249SOL    HW117579   6.955   5.917   3.194
 5249SOL    HW217580   6.926   5.770   3.173
 5250SOL     OW17581   7.448   0.539   6.483
 5250SOL    HW117582   7.370   0.572   6.528
 5250SOL    HW217583   7.520   0.589   6.521
 5251SOL     OW17584   3.544  14.159   3.043
 5251SOL    HW117585   3.639  14.145   3.034
 5251SOL    HW217586   3.520  14.106   3.119
 5252SOL     OW17587  13.514  10.756   4.308
 5252SOL    HW117588  13.451  10.828   4.310
 5252SOL    HW217589  13.460  10.677   4.314
 5253SOL     OW17590   0.311   9.492   9.339
 5253SOL    HW117591   0.377   9.423   9.335
 5253SOL    HW217592   0.355   9.564   9.384
 5254SOL     OW17593   0.900   6.049   5.842
 5254SOL    HW117594   0.816   6.047   5.888
 5254SOL    HW217595   0.965   6.049   5.912
 5255SOL     OW17596   5.120   5.650  10.819
 5255SOL    HW117597   5.144   5.729  10.771
 5255SOL    HW217598   5.159   5.662  10.906
 5256SOL     OW17599   2.118   8.961   1.244
 5256SOL    HW117600   2.196   9.010   1.218
 5256SOL    HW217601   2.077   9.016   1.311
 5257SOL     OW17602  13.923  12.955   3.459
 5257SOL    HW117603  13.987  12.885   3.445
 5257SOL    HW217604  13.955  13.001   3.536
 5258SOL     OW17605   7.073   3.636   2.500
 5258SOL    HW117606   7.168   3.637   2.513
 5258SOL    HW217607   7.045   3.553   2.540
 5259SOL     OW17608   3.030  11.261   7.549
 5259SOL    HW117609   2.938  11.237   7.539
 5259SOL    HW217610   3.027  11.351   7.583
 5260SOL     OW17611   2.271  13.401   7.771
 5260SOL    HW117612   2.362  13.373   7.765
 5260SOL    HW217613   2.256  13.451   7.691
 5261SOL     OW17614  14.388  14.592   5.425
 5261SOL    HW117615  14.312  14.649   5.441
 5261SOL    HW217616  14.350  14.515   5.382
 5262SOL     OW17617  11.190   7.316   8.373
 5262SOL    HW117618  11.234   7.231   8.369
 5262SOL    HW217619  11.107   7.303   8.328
 5263SOL     OW17620   4.538   0.690   9.030
 5263SOL    HW117621   4.500   0.772   8.999
 5263SOL    HW217622   4.633   0.703   9.021
 5264SOL     OW17623   2.125   9.016   4.441
 5264SOL    HW117624   2.182   8.945   4.471
 5264SOL    HW217625   2.126   9.008   4.346
 5265SOL     OW17626  10.582   1.070  13.725
 5265SOL    HW117627  10.497   1.051  13.686
 5265SOL    HW217628  10.644   1.067  13.652
 5266SOL     OW17629   9.501  10.829   2.344
 5266SOL    HW117630   9.491  10.898   2.279
 5266SOL    HW217631   9.561  10.865   2.409
 5267SOL     OW17632  11.078   2.140   1.299
 5267SOL    HW117633  11.018   2.208   1.267
 5267SOL    HW217634  11.150   2.139   1.235
 5268SOL     OW17635   4.828   0.211   1.686
 5268SOL    HW117636   4.733   0.216   1.694
 5268SOL    HW217637   4.860   0.222   1.775
 5269SOL     OW17638   6.641   0.218   8.913
 5269SOL    HW117639   6.615   0.179   8.996
 5269SOL    HW217640   6.717   0.167   8.885
 5270SOL     OW17641   0.766   2.237   4.540
 5270SOL    HW117642   0.794   2.265   4.627
 5270SOL    HW217643   0.711   2.160   4.556
 5271SOL     OW17644   7.267   5.276  14.666
 5271SOL    HW117645   7.253   5.300  14.758
 5271SOL    HW217646   7.354   5.310  14.645
 5272SOL     OW17647   0.418   4.784   5.326
 5272SOL    HW117648   0.425   4.827   5.412
 5272SOL    HW217649   0.499   4.733   5.319
 5273SOL     OW17650   8.261   7.041   3.124
 5273SOL    HW117651   8.344   7.063   3.081
 5273SOL    HW217652   8.269   6.948   3.146
 5274SOL     OW17653  12.812   0.207  14.663
 5274SOL    HW117654  12.754   0.264  14.613
 5274SOL    HW217655  12.881   0.265  14.695
 5275SOL     OW17656   5.403   5.755   6.795
 5275SOL    HW117657   5.361   5.710   6.869
 5275SOL    HW217658   5.391   5.848   6.815
 5276SOL     OW17659   0.019   8.426   0.185
 5276SOL    HW117660   0.106   8.465   0.191
 5276SOL    HW217661   0.006   8.411   0.091
 5277SOL     OW17662   7.628   7.314  12.162
 5277SOL    HW117663   7.722   7.295  12.165
 5277SOL    HW217664   7.598   7.277  12.079
 5278SOL     OW17665   8.050   2.417  13.922
 5278SOL    HW117666   8.029   2.324  13.908
 5278SOL    HW217667   8.118   2.436  13.858
 5279SOL     OW17668   4.695   5.920   0.654
 5279SOL    HW117669   4.661   5.944   0.741
 5279SOL    HW217670   4.653   5.981   0.594
 5280SOL     OW17671  12.489   3.732   9.155
 5280SOL    HW117672  12.443   3.816   9.159
 5280SOL    HW217673  12.509   3.720   9.062
 5281SOL     OW17674   9.774  12.984   5.376
 5281SOL    HW117675   9.834  12.927   5.329
 5281SOL    HW217676   9.688  12.942   5.366
 5282SOL     OW17677   2.723   0.650   5.867
 5282SOL    HW117678   2.648   0.597   5.840
 5282SOL    HW217679   2.684   0.726   5.910
 5283SOL     OW17680  10.431   6.823   0.315
 5283SOL    HW117681  10.388   6.823   0.229
 5283SOL    HW217682  10.496   6.893   0.309
 5284SOL     OW17683   3.243   3.567   3.531
 5284SOL    HW117684   3.204   3.513   3.600
 5284SOL    HW217685   3.337   3.547   3.535
 5285SOL     OW17686   0.421   9.194   5.977
 5285SOL    HW117687   0.345   9.187   5.920
 5285SOL    HW217688   0.467   9.273   5.947
 5286SOL     OW17689   9.850  12.955  11.424
 5286SOL    HW117690   9.822  12.868  11.450
 5286SOL    HW217691   9.927  12.973  11.478
 5287SOL     OW17692   3.014   1.613   6.339
 5287SOL    HW117693   3.088   1.579   6.390
 5287SOL    HW217694   3.022   1.709   6.345
 5288SOL     OW17695   2.462   8.943  14.491
 5288SOL    HW117696   2.466   8.911  14.581
 5288SOL    HW217697   2.448   9.037  14.500
 5289SOL     OW17698   6.166   7.231  12.562
 5289SOL    HW117699   6.233   7.171  12.593
 5289SOL    HW217700   6.103   7.176  12.516
 5290SOL     OW17701  11.363  11.635  10.119
 5290SOL    HW117702  11.383  11.604  10.031
 5290SOL    HW217703  11.274  11.602  10.136
 5291SOL     OW17704   2.447   8.359   5.636
 5291SOL    HW117705   2.535   8.373   5.670
 5291SOL    HW217706   2.441   8.420   5.562
 5292SOL     OW17707  11.938   6.718  10.922
 5292SOL    HW117708  11.938   6.797  10.868
 5292SOL    HW217709  11.866   6.732  10.985
 5293SOL     OW17710   8.359   1.220  13.101
 5293SOL    HW117711   8.308   1.139  13.106
 5293SOL    HW217712   8.297   1.286  13.071
 5294SOL     OW17713   1.276   5.132   3.813
 5294SOL    HW117714   1.298   5.079   3.736
 5294SOL    HW217715   1.215   5.078   3.863
 5295SOL     OW17716  10.361  13.033   0.319
 5295SOL    HW117717  10.368  12.945   0.358
 5295SOL    HW217718  10.441  13.078   0.348
 5296SOL     OW17719  12.383  10.407   4.221
 5296SOL    HW117720  12.464  10.400   4.171
 5296SOL    HW217721  12.327  10.465   4.169
 5297SOL     OW17722   8.803  11.521  10.550
 5297SOL    HW117723   8.708  11.510  10.539
 5297SOL    HW217724   8.834  11.546  10.463
 5298SOL     OW17725   9.699  10.777   9.142
 5298SOL    HW117726   9.621  10.763   9.089
 5298SOL    HW217727   9.691  10.714   9.214
 5299SOL     OW17728  12.763  14.870   4.029
 5299SOL    HW117729  12.760  14.817   3.948
 5299SOL    HW217730  12.735   0.081   4.001
 5300SOL     OW17731  13.560  14.097   3.344
 5300SOL    HW117732  13.588  14.010   3.370
 5300SOL    HW217733  13.530  14.087   3.253
 5301SOL     OW17734   3.907  13.983  14.191
 5301SOL    HW117735   3.945  13.971  14.278
 5301SOL    HW217736   3.953  13.920  14.136
 5302SOL     OW17737   3.349  10.082  10.717
 5302SOL    HW117738   3.441  10.065  10.740
 5302SOL    HW217739   3.349  10.086  10.621
 5303SOL     OW17740   7.821  10.769  13.902
 5303SOL    HW117741   7.902  10.729  13.871
 5303SOL    HW217742   7.787  10.709  13.968
 5304SOL     OW17743   6.489   5.029   7.761
 5304SOL    HW117744   6.466   5.087   7.688
 5304SOL    HW217745   6.473   4.941   7.727
 5305SOL     OW17746   9.210  14.103  11.008
 5305SOL    HW117747   9.203  14.195  10.983
 5305SOL    HW217748   9.125  14.065  10.986
 5306SOL     OW17749   5.882   5.248   3.509
 5306SOL    HW117750   5.839   5.297   3.438
 5306SOL    HW217751   5.844   5.284   3.589
 5307SOL     OW17752   4.233   0.476   9.141
 5307SOL    HW117753   4.245   0.534   9.067
 5307SOL    HW217754   4.266   0.391   9.112
 5308SOL     OW17755   5.757   0.179   4.938
 5308SOL    HW117756   5.721   0.095   4.966
 5308SOL    HW217757   5.803   0.160   4.856
 5309SOL     OW17758  11.875   3.427   5.916
 5309SOL    HW117759  11.795   3.443   5.866
 5309SOL    HW217760  11.920   3.512   5.917
 5310SOL     OW17761  12.266  12.178   9.970
 5310SOL    HW117762  12.200  12.244   9.992
 5310SOL    HW217763  12.217  12.111   9.923
 5311SOL     OW17764  10.928   0.753  10.483
 5311SOL    HW117765  10.893   0.678  10.530
 5311SOL    HW217766  11.010   0.774  10.528
 5312SOL     OW17767   3.638  10.978   2.641
 5312SOL    HW117768   3.722  10.931   2.645
 5312SOL    HW217769   3.583  10.925   2.584
 5313SOL     OW17770   2.829  14.593  10.572
 5313SOL    HW117771   2.890  14.526  10.543
 5313SOL    HW217772   2.856  14.672  10.524
 5314SOL     OW17773   5.370   0.618   4.454
 5314SOL    HW117774   5.410   0.693   4.411
 5314SOL    HW217775   5.323   0.572   4.384
 5315SOL     OW17776  13.857   4.296   1.512
 5315SOL    HW117777  13.892   4.295   1.601
 5315SOL    HW217778  13.763   4.311   1.523
 5316SOL     OW17779   2.559   0.897   8.339
 5316SOL    HW117780   2.521   0.984   8.336
 5316SOL    HW217781   2.632   0.905   8.400
 5317SOL     OW17782   8.948   9.217   9.070
 5317SOL    HW117783   8.935   9.136   9.022
 5317SOL    HW217784   9.039   9.241   9.053
 5318SOL     OW17785   2.396   8.539   8.931
 5318SOL    HW117786   2.366   8.625   8.960
 5318SOL    HW217787   2.363   8.531   8.841
 5319SOL     OW17788   3.076  10.261  11.724
 5319SOL    HW117789   3.091  10.258  11.818
 5319SOL    HW217790   3.160  10.238  11.684
 5320SOL     OW17791  13.927   6.191   5.561
 5320SOL    HW117792  13.947   6.111   5.512
 5320SOL    HW217793  13.952   6.170   5.651
 5321SOL     OW17794   7.573   5.055  11.854
 5321SOL    HW117795   7.640   4.995  11.822
 5321SOL    HW217796   7.495   5.032  11.803
 5322SOL     OW17797  12.401  12.388  14.708
 5322SOL    HW117798  12.408  12.459  14.644
 5322SOL    HW217799  12.490  12.380  14.744
 5323SOL     OW17800   3.807  13.070   0.714
 5323SOL    HW117801   3.769  13.017   0.644
 5323SOL    HW217802   3.863  13.133   0.669
 5324SOL     OW17803   8.751   9.967  14.545
 5324SOL    HW117804   8.692  10.041  14.556
 5324SOL    HW217805   8.725   9.927  14.462
 5325SOL     OW17806   2.253   8.890   9.690
 5325SOL    HW117807   2.324   8.927   9.743
 5325SOL    HW217808   2.282   8.899   9.600
 5326SOL     OW17809   9.407   7.098   4.325
 5326SOL    HW117810   9.322   7.103   4.282
 5326SOL    HW217811   9.387   7.084   4.417
 5327SOL     OW17812   8.236   8.518   1.200
 5327SOL    HW117813   8.244   8.588   1.136
 5327SOL    HW217814   8.142   8.516   1.221
 5328SOL     OW17815   8.590   5.598   4.386
 5328SOL    HW117816   8.684   5.578   4.390
 5328SOL    HW217817   8.585   5.691   4.407
 5329SOL     OW17818   7.123   4.827   6.852
 5329SOL    HW117819   7.085   4.898   6.903
 5329SOL    HW217820   7.218   4.840   6.860
 5330SOL     OW17821  10.487   6.608   7.395
 5330SOL    HW117822  10.503   6.701   7.379
 5330SOL    HW217823  10.573   6.567   7.389
 5331SOL     OW17824   3.285   8.061  10.663
 5331SOL    HW117825   3.244   8.103  10.739
 5331SOL    HW217826   3.341   8.129  10.626
 5332SOL     OW17827  12.224   9.271   8.504
 5332SOL    HW117828  12.284   9.241   8.436
 5332SOL    HW217829  12.148   9.213   8.496
 5333SOL     OW17830   2.527  11.338  11.593
 5333SOL    HW117831   2.530  11.361  11.686
 5333SOL    HW217832   2.440  11.363  11.564
 5334SOL     OW17833  13.501   6.972  11.905
 5334SOL    HW117834  13.494   7.015  11.820
 5334SOL    HW217835  13.586   6.928  11.903
 5335SOL     OW17836   8.195   3.992   1.640
 5335SOL    HW117837   8.221   4.083   1.626
 5335SOL    HW217838   8.109   3.984   1.598
 5336SOL     OW17839  11.870  14.579   6.321
 5336SOL    HW117840  11.817  14.580   6.241
 5336SOL    HW217841  11.812  14.616   6.387
 5337SOL     OW17842   7.433  11.897   4.420
 5337SOL    HW117843   7.480  11.819   4.447
 5337SOL    HW217844   7.343  11.882   4.449
 5338SOL     OW17845  14.399  14.331   2.304
 5338SOL    HW117846  14.322  14.387   2.300
 5338SOL    HW217847  14.400  14.297   2.394
 5339SOL     OW17848   0.430   0.361  13.213
 5339SOL    HW117849   0.490   0.435  13.224
 5339SOL    HW217850   0.343   0.398  13.226
 5340SOL     OW17851   6.642  13.485   1.229
 5340SOL    HW117852   6.684  13.522   1.151
 5340SOL    HW217853   6.684  13.401   1.242
 5341SOL     OW17854  13.814   1.183   1.903
 5341SOL    HW117855  13.906   1.209   1.907
 5341SOL    HW217856  13.765   1.266   1.903
 5342SOL     OW17857   0.595  11.010  14.133
 5342SOL    HW117858   0.641  11.055  14.062
 5342SOL    HW217859   0.618  10.918  14.122
 5343SOL     OW17860  14.518  11.464   4.025
 5343SOL    HW117861  14.598  11.442   4.074
 5343SOL    HW217862  14.467  11.383   4.026
 5344SOL     OW17863  10.036  10.407   1.168
 5344SOL    HW117864  10.109  10.363   1.212
 5344SOL    HW217865   9.989  10.451   1.239
 5345SOL     OW17866   6.629   0.968   8.073
 5345SOL    HW117867   6.631   0.966   8.169
 5345SOL    HW217868   6.700   0.909   8.046
 5346SOL     OW17869  12.494   5.801   2.948
 5346SOL    HW117870  12.466   5.832   2.862
 5346SOL    HW217871  12.555   5.730   2.929
 5347SOL     OW17872   1.752  10.766   2.458
 5347SOL    HW117873   1.829  10.802   2.502
 5347SOL    HW217874   1.680  10.782   2.519
 5348SOL     OW17875  11.054   0.245   9.418
 5348SOL    HW117876  11.105   0.242   9.337
 5348SOL    HW217877  10.978   0.189   9.402
 5349SOL     OW17878   6.019   9.352   0.455
 5349SOL    HW117879   5.969   9.367   0.375
 5349SOL    HW217880   6.035   9.440   0.490
 5350SOL     OW17881   0.509   5.861  11.333
 5350SOL    HW117882   0.563   5.867  11.254
 5350SOL    HW217883   0.419   5.860  11.300
 5351SOL     OW17884  14.267   7.927   3.759
 5351SOL    HW117885  14.351   7.883   3.771
 5351SOL    HW217886  14.202   7.866   3.793
 5352SOL     OW17887   7.386   9.970   7.861
 5352SOL    HW117888   7.341   9.926   7.934
 5352SOL    HW217889   7.329   9.955   7.786
 5353SOL     OW17890   3.292   4.193   3.057
 5353SOL    HW117891   3.311   4.232   3.142
 5353SOL    HW217892   3.366   4.135   3.039
 5354SOL     OW17893   6.322   3.368   1.647
 5354SOL    HW117894   6.243   3.423   1.651
 5354SOL    HW217895   6.308   3.310   1.572
 5355SOL     OW17896  13.266  13.381   2.993
 5355SOL    HW117897  13.174  13.385   2.970
 5355SOL    HW217898  13.311  13.368   2.909
 5356SOL     OW17899   7.325  12.573  14.815
 5356SOL    HW117900   7.394  12.639  14.810
 5356SOL    HW217901   7.286  12.572  14.728
 5357SOL     OW17902   3.250   6.956   2.906
 5357SOL    HW117903   3.216   7.026   2.961
 5357SOL    HW217904   3.227   6.983   2.817
 5358SOL     OW17905   3.433   0.445   3.567
 5358SOL    HW117906   3.386   0.429   3.649
 5358SOL    HW217907   3.426   0.540   3.553
 5359SOL     OW17908   2.629   2.816   1.517
 5359SOL    HW117909   2.587   2.834   1.433
 5359SOL    HW217910   2.556   2.803   1.578
 5360SOL     OW17911  12.651   1.490   0.133
 5360SOL    HW117912  12.579   1.505   0.194
 5360SOL    HW217913  12.723   1.462   0.189
 5361SOL     OW17914  11.756   5.552  12.057
 5361SOL    HW117915  11.843   5.588  12.039
 5361SOL    HW217916  11.696   5.622  12.033
 5362SOL     OW17917   0.637   1.043  10.972
 5362SOL    HW117918   0.649   0.971  11.033
 5362SOL    HW217919   0.543   1.042  10.952
 5363SOL     OW17920   1.006   4.678  13.907
 5363SOL    HW117921   1.074   4.746  13.914
 5363SOL    HW217922   1.054   4.595  13.912
 5364SOL     OW17923   2.100   5.306   9.256
 5364SOL    HW117924   2.062   5.228   9.297
 5364SOL    HW217925   2.051   5.316   9.175
 5365SOL     OW17926   4.516  14.035   9.603
 5365SOL    HW117927   4.482  14.035   9.693
 5365SOL    HW217928   4.442  14.009   9.550
 5366SOL     OW17929   8.186  11.324   8.329
 5366SOL    HW117930   8.142  11.290   8.251
 5366SOL    HW217931   8.255  11.381   8.295
 5367SOL     OW17932   3.405   0.588  10.178
 5367SOL    HW117933   3.326   0.628  10.215
 5367SOL    HW217934   3.431   0.523  10.243
 5368SOL     OW17935  11.457   9.889   3.271
 5368SOL    HW117936  11.400   9.962   3.294
 5368SOL    HW217937  11.451   9.883   3.176
 5369SOL     OW17938   0.286   9.120   3.368
 5369SOL    HW117939   0.251   9.124   3.457
 5369SOL    HW217940   0.215   9.150   3.312
 5370SOL     OW17941  14.356  12.395  13.979
 5370SOL    HW117942  14.280  12.351  14.017
 5370SOL    HW217943  14.374  12.346  13.899
 5371SOL     OW17944   0.538   9.587   5.527
 5371SOL    HW117945   0.529   9.564   5.435
 5371SOL    HW217946   0.587   9.514   5.566
 5372SOL     OW17947   8.302  10.417   7.697
 5372SOL    HW117948   8.225  10.419   7.640
 5372SOL    HW217949   8.268  10.440   7.784
 5373SOL     OW17950   3.786   4.002  13.016
 5373SOL    HW117951   3.698   4.035  12.997
 5373SOL    HW217952   3.791   4.004  13.112
 5374SOL     OW17953   0.330   5.000   7.497
 5374SOL    HW117954   0.272   4.924   7.495
 5374SOL    HW217955   0.317   5.038   7.584
 5375SOL     OW17956  13.339   1.486  12.481
 5375SOL    HW117957  13.412   1.492  12.419
 5375SOL    HW217958  13.264   1.461  12.428
 5376SOL     OW17959   8.212  13.969  13.191
 5376SOL    HW117960   8.189  14.042  13.249
 5376SOL    HW217961   8.250  13.903  13.249
 5377SOL     OW17962   9.068  13.416   0.611
 5377SOL    HW117963   9.061  13.367   0.529
 5377SOL    HW217964   9.029  13.501   0.592
 5378SOL     OW17965   5.881   7.063  13.083
 5378SOL    HW117966   5.976   7.060  13.083
 5378SOL    HW217967   5.854   6.976  13.053
 5379SOL     OW17968   3.727  13.846   0.282
 5379SOL    HW117969   3.709  13.781   0.214
 5379SOL    HW217970   3.643  13.887   0.300
 5380SOL     OW17971   6.399  11.135  10.111
 5380SOL    HW117972   6.341  11.167  10.181
 5380SOL    HW217973   6.463  11.080  10.157
 5381SOL     OW17974   4.425   9.290   0.073
 5381SOL    HW117975   4.390   9.326   0.154
 5381SOL    HW217976   4.467   9.209   0.099
 5382SOL     OW17977   4.726   5.370   2.513
 5382SOL    HW117978   4.652   5.310   2.521
 5382SOL    HW217979   4.792   5.320   2.464
 5383SOL     OW17980  11.611   4.116   6.618
 5383SOL    HW117981  11.595   4.148   6.530
 5383SOL    HW217982  11.594   4.192   6.674
 5384SOL     OW17983   7.585  10.563  12.162
 5384SOL    HW117984   7.644  10.582  12.090
 5384SOL    HW217985   7.636  10.507  12.221
 5385SOL     OW17986   7.728   4.463   3.737
 5385SOL    HW117987   7.638   4.472   3.767
 5385SOL    HW217988   7.742   4.369   3.728
 5386SOL     OW17989   9.512   2.537  11.995
 5386SOL    HW117990   9.480   2.500  12.077
 5386SOL    HW217991   9.516   2.631  12.011
 5387SOL     OW17992   0.992  10.305   8.047
 5387SOL    HW117993   1.031  10.376   7.995
 5387SOL    HW217994   0.902  10.333   8.062
 5388SOL     OW17995   4.659   4.055  11.866
 5388SOL    HW117996   4.675   4.042  11.960
 5388SOL    HW217997   4.718   3.993  11.823
 5389SOL     OW17998   5.195   6.459  11.205
 5389SOL    HW117999   5.218   6.459  11.112
 5389SOL    HW218000   5.277   6.439  11.250
 5390SOL     OW18001   1.229   3.737  13.186
 5390SOL    HW118002   1.288   3.794  13.237
 5390SOL    HW218003   1.173   3.797  13.138
 5391SOL     OW18004   0.211   2.637  14.353
 5391SOL    HW118005   0.278   2.609  14.291
 5391SOL    HW218006   0.165   2.556  14.376
 5392SOL     OW18007   4.554   6.702   3.808
 5392SOL    HW118008   4.637   6.717   3.854
 5392SOL    HW218009   4.510   6.636   3.860
 5393SOL     OW18010   4.870   7.340   0.883
 5393SOL    HW118011   4.862   7.347   0.788
 5393SOL    HW218012   4.960   7.367   0.902
 5394SOL     OW18013   3.890  10.562   3.058
 5394SOL    HW118014   3.843  10.481   3.077
 5394SOL    HW218015   3.947  10.541   2.984
 5395SOL     OW18016  10.548   0.023   9.550
 5395SOL    HW118017  10.615   0.068   9.498
 5395SOL    HW218018  10.510   0.092   9.604
 5396SOL     OW18019  14.151   3.083   1.580
 5396SOL    HW118020  14.216   3.126   1.524
 5396SOL    HW218021  14.165   3.120   1.667
 5397SOL     OW18022   5.875  10.459   7.641
 5397SOL    HW118023   5.880  10.429   7.550
 5397SOL    HW218024   5.783  10.445   7.666
 5398SOL     OW18025   5.611   8.210   3.747
 5398SOL    HW118026   5.534   8.260   3.724
 5398SOL    HW218027   5.664   8.269   3.801
 5399SOL     OW18028  10.258   8.003  11.702
 5399SOL    HW118029  10.333   7.954  11.671
 5399SOL    HW218030  10.212   8.030  11.622
 5400SOL     OW18031  14.750   4.668   3.698
 5400SOL    HW118032  14.749   4.573   3.690
 5400SOL    HW218033  14.682   4.697   3.637
 5401SOL     OW18034  13.131   7.949   6.825
 5401SOL    HW118035  13.132   7.875   6.887
 5401SOL    HW218036  13.189   8.014   6.865
 5402SOL     OW18037   7.619  14.298  11.938
 5402SOL    HW118038   7.685  14.290  12.007
 5402SOL    HW218039   7.536  14.305  11.985
 5403SOL     OW18040   4.453  13.282   5.396
 5403SOL    HW118041   4.509  13.277   5.473
 5403SOL    HW218042   4.489  13.354   5.344
 5404SOL     OW18043   1.311  13.161   2.840
 5404SOL    HW118044   1.303  13.254   2.819
 5404SOL    HW218045   1.221  13.131   2.851
 5405SOL     OW18046   5.669   6.617   3.001
 5405SOL    HW118047   5.630   6.671   2.933
 5405SOL    HW218048   5.763   6.628   2.990
 5406SOL     OW18049  10.756   7.942  11.421
 5406SOL    HW118050  10.835   7.923  11.470
 5406SOL    HW218051  10.705   8.000  11.478
 5407SOL     OW18052   5.776  14.290   4.078
 5407SOL    HW118053   5.774  14.385   4.065
 5407SOL    HW218054   5.845  14.259   4.020
 5408SOL     OW18055   3.267   8.668   3.701
 5408SOL    HW118056   3.342   8.645   3.645
 5408SOL    HW218057   3.278   8.614   3.779
 5409SOL     OW18058  10.185   0.242   5.065
 5409SOL    HW118059  10.120   0.202   5.123
 5409SOL    HW218060  10.269   0.205   5.094
 5410SOL     OW18061   3.499   7.170   7.060
 5410SOL    HW118062   3.440   7.240   7.033
 5410SOL    HW218063   3.484   7.100   6.996
 5411SOL     OW18064  13.693   7.142   0.960
 5411SOL    HW118065  13.746   7.196   1.019
 5411SOL    HW218066  13.727   7.053   0.971
 5412SOL     OW18067   1.374   5.448  13.911
 5412SOL    HW118068   1.324   5.383  13.862
 5412SOL    HW218069   1.438   5.482  13.848
 5413SOL     OW18070   9.755  13.725  14.269
 5413SOL    HW118071   9.786  13.730  14.360
 5413SOL    HW218072   9.660  13.733  14.275
 5414SOL     OW18073   6.313   3.863  14.400
 5414SOL    HW118074   6.356   3.932  14.350
 5414SOL    HW218075   6.382   3.799  14.417
 5415SOL     OW18076  14.032  10.640   9.265
 5415SOL    HW118077  14.054  10.727   9.233
 5415SOL    HW218078  14.074  10.634   9.351
 5416SOL     OW18079   0.872   6.664  10.809
 5416SOL    HW118080   0.915   6.609  10.875
 5416SOL    HW218081   0.886   6.754  10.839
 5417SOL     OW18082   4.944  10.923   0.523
 5417SOL    HW118083   4.987  10.996   0.478
 5417SOL    HW218084   4.954  10.849   0.463
 5418SOL     OW18085   3.201  13.941   3.325
 5418SOL    HW118086   3.173  13.936   3.416
 5418SOL    HW218087   3.127  13.903   3.276
 5419SOL     OW18088   3.803   2.253   8.459
 5419SOL    HW118089   3.743   2.180   8.473
 5419SOL    HW218090   3.759   2.329   8.498
 5420SOL     OW18091   6.337  13.045   4.342
 5420SOL    HW118092   6.295  13.114   4.291
 5420SOL    HW218093   6.359  12.978   4.277
 5421SOL     OW18094   8.956  13.281   9.182
 5421SOL    HW118095   9.011  13.262   9.258
 5421SOL    HW218096   9.009  13.254   9.107
 5422SOL     OW18097  13.433   2.409   7.676
 5422SOL    HW118098  13.370   2.444   7.739
 5422SOL    HW218099  13.460   2.486   7.625
 5423SOL     OW18100   9.360   6.357   9.815
 5423SOL    HW118101   9.282   6.402   9.847
 5423SOL    HW218102   9.368   6.281   9.873
 5424SOL     OW18103   1.510   1.090   7.280
 5424SOL    HW118104   1.522   1.040   7.360
 5424SOL    HW218105   1.599   1.105   7.248
 5425SOL     OW18106   9.085   4.592  13.484
 5425SOL    HW118107   9.123   4.642  13.555
 5425SOL    HW218108   9.059   4.509  13.524
 5426SOL     OW18109   6.627  14.183  14.518
 5426SOL    HW118110   6.590  14.113  14.465
 5426SOL    HW218111   6.557  14.208  14.578
 5427SOL     OW18112  13.920   1.794  10.722
 5427SOL    HW118113  13.976   1.866  10.694
 5427SOL    HW218114  13.972   1.747  10.787
 5428SOL     OW18115  13.154   0.360  10.208
 5428SOL    HW118116  13.081   0.392  10.260
 5428SOL    HW218117  13.155   0.416  10.130
 5429SOL     OW18118  13.858   4.604   9.605
 5429SOL    HW118119  13.918   4.659   9.554
 5429SOL    HW218120  13.796   4.569   9.541
 5430SOL     OW18121   6.339   5.461   4.235
 5430SOL    HW118122   6.341   5.446   4.330
 5430SOL    HW218123   6.293   5.545   4.226
 5431SOL     OW18124   7.912   6.549  14.332
 5431SOL    HW118125   7.824   6.522  14.304
 5431SOL    HW218126   7.963   6.468  14.332
 5432SOL     OW18127   4.163   5.956   0.750
 5432SOL    HW118128   4.217   5.898   0.803
 5432SOL    HW218129   4.207   6.041   0.755
 5433SOL     OW18130   9.839  11.905   2.432
 5433SOL    HW118131   9.871  11.916   2.342
 5433SOL    HW218132   9.918  11.886   2.483
 5434SOL     OW18133  11.574   1.159  14.828
 5434SOL    HW118134  11.543   1.245  14.856
 5434SOL    HW218135  11.568   1.161  14.733
 5435SOL     OW18136   8.165  14.783   0.511
 5435SOL    HW118137   8.234  14.790   0.445
 5435SOL    HW218138   8.212  14.764   0.592
 5436SOL     OW18139  14.496   7.963  11.746
 5436SOL    HW118140  14.467   7.949  11.655
 5436SOL    HW218141  14.484   7.877  11.788
 5437SOL     OW18142   3.088   4.943  14.778
 5437SOL    HW118143   3.059   5.005  14.711
 5437SOL    HW218144   3.066   4.986  14.861
 5438SOL     OW18145  10.960  11.981  13.464
 5438SOL    HW118146  10.939  11.947  13.550
 5438SOL    HW218147  10.877  11.985  13.418
 5439SOL     OW18148   0.699  13.723   6.095
 5439SOL    HW118149   0.685  13.716   6.190
 5439SOL    HW218150   0.778  13.671   6.079
 5440SOL     OW18151  13.721  14.826   0.447
 5440SOL    HW118152  13.707   0.031   0.398
 5440SOL    HW218153  13.766  14.769   0.386
 5441SOL     OW18154   0.746   1.213   6.157
 5441SOL    HW118155   0.776   1.225   6.247
 5441SOL    HW218156   0.650   1.221   6.162
 5442SOL     OW18157  12.106  13.330   5.234
 5442SOL    HW118158  12.168  13.264   5.203
 5442SOL    HW218159  12.160  13.406   5.254
 5443SOL     OW18160   5.795   9.412   5.926
 5443SOL    HW118161   5.878   9.405   5.972
 5443SOL    HW218162   5.743   9.473   5.978
 5444SOL     OW18163  12.901   2.464   2.170
 5444SOL    HW118164  12.860   2.446   2.085
 5444SOL    HW218165  12.984   2.506   2.148
 5445SOL     OW18166   6.262  10.189  11.811
 5445SOL    HW118167   6.235  10.137  11.887
 5445SOL    HW218168   6.350  10.157  11.790
 5446SOL     OW18169  13.881  10.441   4.423
 5446SOL    HW118170  13.802  10.388   4.409
 5446SOL    HW218171  13.888  10.449   4.518
 5447SOL     OW18172   6.219   7.579   3.478
 5447SOL    HW118173   6.205   7.652   3.419
 5447SOL    HW218174   6.188   7.502   3.430
 5448SOL     OW18175  10.055   9.018   5.341
 5448SOL    HW118176  10.058   8.934   5.385
 5448SOL    HW218177  10.125   9.014   5.276
 5449SOL     OW18178  13.200   3.124  14.068
 5449SOL    HW118179  13.227   3.181  14.140
 5449SOL    HW218180  13.136   3.065  14.108
 5450SOL     OW18181  11.986  11.456   2.750
 5450SOL    HW118182  11.970  11.410   2.668
 5450SOL    HW218183  11.911  11.514   2.760
 5451SOL     OW18184   4.217  11.835  12.788
 5451SOL    HW118185   4.251  11.805  12.704
 5451SOL    HW218186   4.217  11.757  12.843
 5452SOL     OW18187   7.777  10.379   6.383
 5452SOL    HW118188   7.768  10.474   6.393
 5452SOL    HW218189   7.816  10.350   6.465
 5453SOL     OW18190   9.771   5.085   0.067
 5453SOL    HW118191   9.839   5.033   0.024
 5453SOL    HW218192   9.736   5.141  14.874
 5454SOL     OW18193   5.587   5.709   2.884
 5454SOL    HW118194   5.561   5.618   2.869
 5454SOL    HW218195   5.579   5.720   2.979
 5455SOL     OW18196  14.616   0.282   7.091
 5455SOL    HW118197  14.599   0.366   7.133
 5455SOL    HW218198  14.536   0.232   7.103
 5456SOL     OW18199   2.967  11.066   4.307
 5456SOL    HW118200   2.966  11.162   4.306
 5456SOL    HW218201   3.048  11.043   4.353
 5457SOL     OW18202  11.692  10.250  14.176
 5457SOL    HW118203  11.777  10.289  14.159
 5457SOL    HW218204  11.658  10.298  14.251
 5458SOL     OW18205   4.863   8.781   4.936
 5458SOL    HW118206   4.768   8.771   4.948
 5458SOL    HW218207   4.877   8.875   4.929
 5459SOL     OW18208   0.342   0.634   2.667
 5459SOL    HW118209   0.246   0.626   2.665
 5459SOL    HW218210   0.374   0.550   2.635
 5460SOL     OW18211   1.210   9.383  10.813
 5460SOL    HW118212   1.305   9.370  10.810
 5460SOL    HW218213   1.189   9.427  10.731
 5461SOL     OW18214  12.704   3.022   2.764
 5461SOL    HW118215  12.734   3.099   2.715
 5461SOL    HW218216  12.633   2.986   2.710
 5462SOL     OW18217  13.781  14.302   8.325
 5462SOL    HW118218  13.842  14.306   8.398
 5462SOL    HW218219  13.706  14.354   8.353
 5463SOL     OW18220  11.473   9.790  14.067
 5463SOL    HW118221  11.564   9.786  14.038
 5463SOL    HW218222  11.476   9.761  14.159
 5464SOL     OW18223   7.027   3.726   5.928
 5464SOL    HW118224   7.106   3.688   5.891
 5464SOL    HW218225   7.051   3.750   6.017
 5465SOL     OW18226   9.453   0.775  12.450
 5465SOL    HW118227   9.448   0.680  12.433
 5465SOL    HW218228   9.505   0.782  12.530
 5466SOL     OW18229  14.505  10.614   4.814
 5466SOL    HW118230  14.596  10.588   4.831
 5466SOL    HW218231  14.465  10.617   4.901
 5467SOL     OW18232   1.108   8.264  12.206
 5467SOL    HW118233   1.191   8.219  12.220
 5467SOL    HW218234   1.108   8.285  12.113
 5468SOL     OW18235  11.936   4.796  13.448
 5468SOL    HW118236  12.004   4.775  13.512
 5468SOL    HW218237  11.863   4.738  13.471
 5469SOL     OW18238  13.545   7.660  14.775
 5469SOL    HW118239  13.519   7.709  14.853
 5469SOL    HW218240  13.630   7.622  14.798
 5470SOL     OW18241   9.801  10.351  12.562
 5470SOL    HW118242   9.715  10.347  12.604
 5470SOL    HW218243   9.810  10.442  12.533
 5471SOL     OW18244  10.234   0.565   5.667
 5471SOL    HW118245  10.214   0.496   5.730
 5471SOL    HW218246  10.181   0.639   5.695
 5472SOL     OW18247   3.402   1.392   1.536
 5472SOL    HW118248   3.345   1.316   1.547
 5472SOL    HW218249   3.344   1.468   1.546
 5473SOL     OW18250   6.704   9.974   6.244
 5473SOL    HW118251   6.735  10.063   6.265
 5473SOL    HW218252   6.766   9.943   6.178
 5474SOL     OW18253   0.681   3.866   0.470
 5474SOL    HW118254   0.606   3.869   0.410
 5474SOL    HW218255   0.751   3.911   0.423
 5475SOL     OW18256   1.392   4.378  12.150
 5475SOL    HW118257   1.338   4.312  12.192
 5475SOL    HW218258   1.481   4.343  12.154
 5476SOL     OW18259  14.008  14.484  10.040
 5476SOL    HW118260  13.923  14.527  10.046
 5476SOL    HW218261  13.989  14.392  10.057
 5477SOL     OW18262  14.799   0.666  14.165
 5477SOL    HW118263  14.729   0.732  14.161
 5477SOL    HW218264  14.815   0.644  14.073
 5478SOL     OW18265  12.599   2.367  13.415
 5478SOL    HW118266  12.609   2.275  13.391
 5478SOL    HW218267  12.678   2.409  13.382
 5479SOL     OW18268   7.486   6.672   5.439
 5479SOL    HW118269   7.409   6.645   5.390
 5479SOL    HW218270   7.494   6.607   5.510
 5480SOL     OW18271   4.415   4.121   9.841
 5480SOL    HW118272   4.465   4.071   9.906
 5480SOL    HW218273   4.343   4.159   9.890
 5481SOL     OW18274   3.877  12.078   5.113
 5481SOL    HW118275   3.819  12.010   5.079
 5481SOL    HW218276   3.946  12.030   5.158
 5482SOL     OW18277   6.835   6.624  13.936
 5482SOL    HW118278   6.884   6.552  13.896
 5482SOL    HW218279   6.885   6.703  13.913
 5483SOL     OW18280  11.738   4.607   0.734
 5483SOL    HW118281  11.655   4.652   0.747
 5483SOL    HW218282  11.760   4.623   0.642
 5484SOL     OW18283  10.569   2.651   9.022
 5484SOL    HW118284  10.659   2.623   9.005
 5484SOL    HW218285  10.533   2.582   9.078
 5485SOL     OW18286   7.740   1.644   7.018
 5485SOL    HW118287   7.696   1.582   6.960
 5485SOL    HW218288   7.696   1.631   7.103
 5486SOL     OW18289  14.607   2.586  12.485
 5486SOL    HW118290  14.618   2.492  12.467
 5486SOL    HW218291  14.671   2.604  12.553
 5487SOL     OW18292   4.040  12.690   6.168
 5487SOL    HW118293   4.099  12.644   6.108
 5487SOL    HW218294   4.070  12.664   6.255
 5488SOL     OW18295   8.150   9.046   4.887
 5488SOL    HW118296   8.230   9.014   4.928
 5488SOL    HW218297   8.085   8.979   4.906
 5489SOL     OW18298   3.282  12.292   4.531
 5489SOL    HW118299   3.372  12.318   4.512
 5489SOL    HW218300   3.290  12.214   4.586
 5490SOL     OW18301  10.589   6.495   2.379
 5490SOL    HW118302  10.564   6.579   2.339
 5490SOL    HW218303  10.633   6.520   2.461
 5491SOL     OW18304   9.096  12.115  12.522
 5491SOL    HW118305   9.032  12.153  12.461
 5491SOL    HW218306   9.179  12.119  12.475
 5492SOL     OW18307   9.451   5.026   0.477
 5492SOL    HW118308   9.505   4.987   0.408
 5492SOL    HW218309   9.507   5.094   0.516
 5493SOL     OW18310  14.528   8.856   2.017
 5493SOL    HW118311  14.508   8.826   1.928
 5493SOL    HW218312  14.461   8.922   2.035
 5494SOL     OW18313  12.067   4.727   4.930
 5494SOL    HW118314  12.041   4.678   4.853
 5494SOL    HW218315  12.061   4.664   5.002
 5495SOL     OW18316   2.813   2.294   3.855
 5495SOL    HW118317   2.768   2.321   3.935
 5495SOL    HW218318   2.758   2.224   3.819
 5496SOL     OW18319   1.557   8.075   7.502
 5496SOL    HW118320   1.566   8.105   7.593
 5496SOL    HW218321   1.645   8.051   7.475
 5497SOL     OW18322   7.825   8.083   3.703
 5497SOL    HW118323   7.893   8.020   3.680
 5497SOL    HW218324   7.799   8.122   3.620
 5498SOL     OW18325  12.361   8.111   2.215
 5498SOL    HW118326  12.396   8.022   2.220
 5498SOL    HW218327  12.418   8.155   2.152
 5499SOL     OW18328   7.111   1.707   4.958
 5499SOL    HW118329   7.038   1.765   4.980
 5499SOL    HW218330   7.070   1.622   4.944
 5500SOL     OW18331   1.842   2.967   7.018
 5500SOL    HW118332   1.860   2.931   6.931
 5500SOL    HW218333   1.889   2.909   7.078
 5501SOL     OW18334   4.042   5.547  14.441
 5501SOL    HW118335   3.957   5.506  14.426
 5501SOL    HW218336   4.021   5.638  14.461
 5502SOL     OW18337  10.240  12.784   4.283
 5502SOL    HW118338  10.156  12.824   4.257
 5502SOL    HW218339  10.299  12.806   4.211
 5503SOL     OW18340  14.786  13.429   8.434
 5503SOL    HW118341  14.705  13.412   8.385
 5503SOL    HW218342  14.764  13.408   8.525
 5504SOL     OW18343   6.354   2.837  13.793
 5504SOL    HW118344   6.407   2.762  13.820
 5504SOL    HW218345   6.363   2.839  13.697
 5505SOL     OW18346   7.102   4.417   8.968
 5505SOL    HW118347   7.071   4.448   9.054
 5505SOL    HW218348   7.163   4.485   8.939
 5506SOL     OW18349  14.269   4.839  13.462
 5506SOL    HW118350  14.268   4.745  13.484
 5506SOL    HW218351  14.203   4.877  13.520
 5507SOL     OW18352  14.559   1.601   4.657
 5507SOL    HW118353  14.605   1.526   4.695
 5507SOL    HW218354  14.629   1.657   4.623
 5508SOL     OW18355  11.632   4.659   0.035
 5508SOL    HW118356  11.577   4.639  14.836
 5508SOL    HW218357  11.713   4.695  14.873
 5509SOL     OW18358   5.993   9.994  13.577
 5509SOL    HW118359   6.011   9.901  13.560
 5509SOL    HW218360   6.016  10.038  13.496
 5510SOL     OW18361  10.240  13.415  13.737
 5510SOL    HW118362  10.230  13.338  13.680
 5510SOL    HW218363  10.334  13.431  13.740
 5511SOL     OW18364   2.683   6.412   4.353
 5511SOL    HW118365   2.745   6.412   4.426
 5511SOL    HW218366   2.642   6.326   4.357
 5512SOL     OW18367   2.220   1.528   1.659
 5512SOL    HW118368   2.239   1.595   1.593
 5512SOL    HW218369   2.299   1.474   1.661
 5513SOL     OW18370  13.323   6.129  13.820
 5513SOL    HW118371  13.351   6.051  13.868
 5513SOL    HW218372  13.334   6.105  13.728
 5514SOL     OW18373   9.027   6.305   7.612
 5514SOL    HW118374   9.045   6.395   7.640
 5514SOL    HW218375   9.070   6.251   7.677
 5515SOL     OW18376   2.903  13.182  13.044
 5515SOL    HW118377   2.859  13.246  12.988
 5515SOL    HW218378   2.974  13.147  12.991
 5516SOL     OW18379  13.975   4.430   3.799
 5516SOL    HW118380  14.041   4.363   3.783
 5516SOL    HW218381  14.006   4.476   3.878
 5517SOL     OW18382  13.476  13.759   0.969
 5517SOL    HW118383  13.434  13.714   0.896
 5517SOL    HW218384  13.410  13.760   1.038
 5518SOL     OW18385   3.106   1.714  10.196
 5518SOL    HW118386   3.076   1.727  10.106
 5518SOL    HW218387   3.089   1.622  10.214
 5519SOL     OW18388  13.518   9.540   4.216
 5519SOL    HW118389  13.450   9.474   4.206
 5519SOL    HW218390  13.520   9.558   4.310
 5520SOL     OW18391   7.187   9.026   7.784
 5520SOL    HW118392   7.187   8.940   7.742
 5520SOL    HW218393   7.095   9.046   7.799
 5521SOL     OW18394   3.076  11.658  10.922
 5521SOL    HW118395   3.155  11.616  10.887
 5521SOL    HW218396   3.107  11.735  10.968
 5522SOL     OW18397   0.533   4.083  10.134
 5522SOL    HW118398   0.454   4.132  10.159
 5522SOL    HW218399   0.550   4.111  10.044
 5523SOL     OW18400   5.882   4.617   5.315
 5523SOL    HW118401   5.969   4.643   5.345
 5523SOL    HW218402   5.869   4.663   5.233
 5524SOL     OW18403   4.816   1.251   1.600
 5524SOL    HW118404   4.906   1.234   1.629
 5524SOL    HW218405   4.814   1.345   1.583
 5525SOL     OW18406   2.080  10.364   6.627
 5525SOL    HW118407   2.024  10.415   6.686
 5525SOL    HW218408   2.034  10.280   6.618
 5526SOL     OW18409   7.151   0.899   5.929
 5526SOL    HW118410   7.202   0.965   5.976
 5526SOL    HW218411   7.145   0.825   5.990
 5527SOL     OW18412   2.287  13.298   1.825
 5527SOL    HW118413   2.278  13.210   1.863
 5527SOL    HW218414   2.299  13.356   1.900
 5528SOL     OW18415   1.433  10.111   4.954
 5528SOL    HW118416   1.522  10.088   4.928
 5528SOL    HW218417   1.402  10.035   5.003
 5529SOL     OW18418   0.297   1.550   6.768
 5529SOL    HW118419   0.295   1.623   6.829
 5529SOL    HW218420   0.364   1.491   6.803
 5530SOL     OW18421   8.801   6.744   0.272
 5530SOL    HW118422   8.809   6.831   0.234
 5530SOL    HW218423   8.719   6.709   0.238
 5531SOL     OW18424   8.537   6.714   5.217
 5531SOL    HW118425   8.522   6.806   5.234
 5531SOL    HW218426   8.567   6.711   5.126
 5532SOL     OW18427   2.705   8.646  13.251
 5532SOL    HW118428   2.739   8.577  13.194
 5532SOL    HW218429   2.723   8.615  13.340
 5533SOL     OW18430   6.420  11.662   4.101
 5533SOL    HW118431   6.326  11.671   4.083
 5533SOL    HW218432   6.457  11.629   4.019
 5534SOL     OW18433  14.448  10.505   3.372
 5534SOL    HW118434  14.492  10.580   3.331
 5534SOL    HW218435  14.386  10.544   3.433
 5535SOL     OW18436   3.362  14.764   3.456
 5535SOL    HW118437   3.418  14.774   3.533
 5535SOL    HW218438   3.285  14.816   3.475
 5536SOL     OW18439   4.936   2.934   2.880
 5536SOL    HW118440   4.983   2.962   2.802
 5536SOL    HW218441   4.845   2.926   2.852
 5537SOL     OW18442   0.846  14.063  13.805
 5537SOL    HW118443   0.788  13.998  13.846
 5537SOL    HW218444   0.925  14.013  13.783
 5538SOL     OW18445   0.295   6.910   2.764
 5538SOL    HW118446   0.232   6.870   2.705
 5538SOL    HW218447   0.352   6.961   2.707
 5539SOL     OW18448   5.854   7.912   5.489
 5539SOL    HW118449   5.798   7.955   5.424
 5539SOL    HW218450   5.794   7.857   5.540
 5540SOL     OW18451   9.762  10.918  11.217
 5540SOL    HW118452   9.705  10.957  11.150
 5540SOL    HW218453   9.849  10.950  11.196
 5541SOL     OW18454   0.947  10.189   6.028
 5541SOL    HW118455   0.922  10.238   6.107
 5541SOL    HW218456   0.895  10.227   5.958
 5542SOL     OW18457  14.331   8.956   8.744
 5542SOL    HW118458  14.426   8.947   8.744
 5542SOL    HW218459  14.310   8.997   8.660
 5543SOL     OW18460  13.252   3.992  12.537
 5543SOL    HW118461  13.297   4.057  12.482
 5543SOL    HW218462  13.159   4.002  12.515
 5544SOL     OW18463   5.950   0.188   6.490
 5544SOL    HW118464   5.976   0.271   6.451
 5544SOL    HW218465   6.003   0.122   6.447
 5545SOL     OW18466   7.728  13.286   5.235
 5545SOL    HW118467   7.767  13.365   5.271
 5545SOL    HW218468   7.781  13.215   5.271
 5546SOL     OW18469  12.353   9.093  14.873
 5546SOL    HW118470  12.405   9.147   0.056
 5546SOL    HW218471  12.417   9.045  14.820
 5547SOL     OW18472   6.643   4.882  10.982
 5547SOL    HW118473   6.714   4.868  11.044
 5547SOL    HW218474   6.662   4.967  10.942
 5548SOL     OW18475  11.179   1.116   9.728
 5548SOL    HW118476  11.221   1.077   9.804
 5548SOL    HW218477  11.089   1.083   9.730
 5549SOL     OW18478  10.269  11.646   2.345
 5549SOL    HW118479  10.293  11.738   2.341
 5549SOL    HW218480  10.210  11.634   2.271
 5550SOL     OW18481   4.928   7.049   7.664
 5550SOL    HW118482   4.957   7.120   7.722
 5550SOL    HW218483   4.935   6.970   7.718
 5551SOL     OW18484   5.380  11.872   6.849
 5551SOL    HW118485   5.438  11.937   6.810
 5551SOL    HW218486   5.368  11.807   6.780
 5552SOL     OW18487   2.585  10.277   7.196
 5552SOL    HW118488   2.620  10.350   7.143
 5552SOL    HW218489   2.599  10.200   7.141
 5553SOL     OW18490   1.793   3.181   1.656
 5553SOL    HW118491   1.825   3.099   1.693
 5553SOL    HW218492   1.855   3.203   1.587
 5554SOL     OW18493   7.759   2.961  13.046
 5554SOL    HW118494   7.811   3.016  13.105
 5554SOL    HW218495   7.817   2.888  13.024
 5555SOL     OW18496  11.252  10.981  14.714
 5555SOL    HW118497  11.189  11.046  14.684
 5555SOL    HW218498  11.200  10.902  14.728
 5556SOL     OW18499   8.636   0.257   0.267
 5556SOL    HW118500   8.665   0.345   0.290
 5556SOL    HW218501   8.592   0.268   0.183
 5557SOL     OW18502   5.837  10.110   9.673
 5557SOL    HW118503   5.880  10.048   9.614
 5557SOL    HW218504   5.758  10.137   9.627
 5558SOL     OW18505   1.817  11.044  11.429
 5558SOL    HW118506   1.783  10.995  11.354
 5558SOL    HW218507   1.852  10.978  11.488
 5559SOL     OW18508   9.647   5.242   0.534
 5559SOL    HW118509   9.636   5.265   0.441
 5559SOL    HW218510   9.741   5.232   0.545
 5560SOL     OW18511   9.700   4.198   9.103
 5560SOL    HW118512   9.723   4.243   9.184
 5560SOL    HW218513   9.746   4.114   9.108
 5561SOL     OW18514   4.716  10.525  10.235
 5561SOL    HW118515   4.728  10.449  10.178
 5561SOL    HW218516   4.766  10.504  10.314
 5562SOL     OW18517  12.385  10.169  10.634
 5562SOL    HW118518  12.342  10.137  10.714
 5562SOL    HW218519  12.343  10.253  10.616
 5563SOL     OW18520   6.988   7.165   5.190
 5563SOL    HW118521   7.084   7.173   5.196
 5563SOL    HW218522   6.957   7.191   5.276
 5564SOL     OW18523   8.028   8.183   9.517
 5564SOL    HW118524   8.117   8.170   9.485
 5564SOL    HW218525   8.007   8.273   9.491
 5565SOL     OW18526  11.035  13.271   1.416
 5565SOL    HW118527  10.985  13.263   1.497
 5565SOL    HW218528  10.969  13.290   1.349
 5566SOL     OW18529   7.089   8.549   5.638
 5566SOL    HW118530   7.144   8.627   5.633
 5566SOL    HW218531   7.036   8.552   5.558
 5567SOL     OW18532  14.419   9.536   1.327
 5567SOL    HW118533  14.497   9.545   1.383
 5567SOL    HW218534  14.426   9.609   1.265
 5568SOL     OW18535   6.963   0.523   9.450
 5568SOL    HW118536   6.967   0.618   9.434
 5568SOL    HW218537   6.972   0.484   9.363
 5569SOL     OW18538   7.352   6.904  14.137
 5569SOL    HW118539   7.306   6.883  14.056
 5569SOL    HW218540   7.376   6.818  14.173
 5570SOL     OW18541   3.133   4.624   6.507
 5570SOL    HW118542   3.129   4.642   6.601
 5570SOL    HW218543   3.225   4.603   6.490
 5571SOL     OW18544   3.961  14.850   6.584
 5571SOL    HW118545   4.053  14.861   6.559
 5571SOL    HW218546   3.920   0.058   6.561
 5572SOL     OW18547   5.874   7.048   4.340
 5572SOL    HW118548   5.935   7.108   4.383
 5572SOL    HW218549   5.888   7.063   4.246
 5573SOL     OW18550  14.554  10.574   8.643
 5573SOL    HW118551  14.610  10.591   8.568
 5573SOL    HW218552  14.527  10.483   8.633
 5574SOL     OW18553   8.457   8.395   6.157
 5574SOL    HW118554   8.433   8.405   6.065
 5574SOL    HW218555   8.505   8.312   6.161
 5575SOL     OW18556   5.757   0.196  14.215
 5575SOL    HW118557   5.769   0.252  14.138
 5575SOL    HW218558   5.839   0.205  14.264
 5576SOL     OW18559   4.749  12.375   4.805
 5576SOL    HW118560   4.810  12.304   4.824
 5576SOL    HW218561   4.741  12.423   4.887
 5577SOL     OW18562   5.702   4.214   3.133
 5577SOL    HW118563   5.774   4.169   3.089
 5577SOL    HW218564   5.656   4.146   3.181
 5578SOL     OW18565   7.874  12.673   5.415
 5578SOL    HW118566   7.959  12.656   5.374
 5578SOL    HW218567   7.829  12.588   5.412
 5579SOL     OW18568  14.246   8.127  11.644
 5579SOL    HW118569  14.292   8.069  11.582
 5579SOL    HW218570  14.290   8.211  11.635
 5580SOL     OW18571  10.622   7.866   3.064
 5580SOL    HW118572  10.711   7.866   3.098
 5580SOL    HW218573  10.578   7.794   3.110
 5581SOL     OW18574   5.738   6.743   2.511
 5581SOL    HW118575   5.815   6.686   2.510
 5581SOL    HW218576   5.762   6.816   2.454
 5582SOL     OW18577   6.454  11.221   5.802
 5582SOL    HW118578   6.477  11.161   5.732
 5582SOL    HW218579   6.503  11.189   5.878
 5583SOL     OW18580   0.486   3.159  12.991
 5583SOL    HW118581   0.541   3.185  13.065
 5583SOL    HW218582   0.447   3.076  13.018
 5584SOL     OW18583   1.476  12.714  14.117
 5584SOL    HW118584   1.517  12.795  14.085
 5584SOL    HW218585   1.535  12.683  14.185
 5585SOL     OW18586   4.626  12.460   2.491
 5585SOL    HW118587   4.716  12.444   2.461
 5585SOL    HW218588   4.617  12.405   2.568
 5586SOL     OW18589   7.324   9.137   6.459
 5586SOL    HW118590   7.300   9.186   6.381
 5586SOL    HW218591   7.275   9.055   6.452
 5587SOL     OW18592   6.291  13.552   7.994
 5587SOL    HW118593   6.349  13.581   8.065
 5587SOL    HW218594   6.208  13.533   8.038
 5588SOL     OW18595  13.613   9.116   9.105
 5588SOL    HW118596  13.663   9.068   9.172
 5588SOL    HW218597  13.521   9.106   9.133
 5589SOL     OW18598  13.719  14.602   9.623
 5589SOL    HW118599  13.751  14.689   9.603
 5589SOL    HW218600  13.633  14.597   9.582
 5590SOL     OW18601  10.913   1.770   7.235
 5590SOL    HW118602  10.921   1.795   7.327
 5590SOL    HW218603  10.910   1.674   7.237
 5591SOL     OW18604   4.500   4.042  11.229
 5591SOL    HW118605   4.544   4.086  11.156
 5591SOL    HW218606   4.518   4.097  11.305
 5592SOL     OW18607   2.285   6.326   8.240
 5592SOL    HW118608   2.315   6.269   8.170
 5592SOL    HW218609   2.245   6.267   8.304
 5593SOL     OW18610  10.945  14.803   7.335
 5593SOL    HW118611  11.030  14.808   7.292
 5593SOL    HW218612  10.938  14.712   7.364
 5594SOL     OW18613   3.810   5.587  12.773
 5594SOL    HW118614   3.800   5.568  12.866
 5594SOL    HW218615   3.722   5.610  12.744
 5595SOL     OW18616  10.385   1.393  13.899
 5595SOL    HW118617  10.442   1.321  13.928
 5595SOL    HW218618  10.354   1.365  13.813
 5596SOL     OW18619   0.825   6.148   1.920
 5596SOL    HW118620   0.820   6.100   1.837
 5596SOL    HW218621   0.914   6.134   1.950
 5597SOL     OW18622  13.999   2.198   8.007
 5597SOL    HW118623  13.946   2.140   8.061
 5597SOL    HW218624  13.962   2.190   7.920
 5598SOL     OW18625   8.091  14.149  11.047
 5598SOL    HW118626   8.138  14.069  11.025
 5598SOL    HW218627   8.005  14.138  11.006
 5599SOL     OW18628   7.599  12.593   8.009
 5599SOL    HW118629   7.605  12.605   8.103
 5599SOL    HW218630   7.598  12.683   7.974
 5600SOL     OW18631   9.009   2.736   6.238
 5600SOL    HW118632   8.951   2.678   6.286
 5600SOL    HW218633   9.036   2.802   6.302
 5601SOL     OW18634  13.139  10.366  11.293
 5601SOL    HW118635  13.153  10.419  11.215
 5601SOL    HW218636  13.082  10.420  11.348
 5602SOL     OW18637  14.654  12.612   8.458
 5602SOL    HW118638  14.588  12.590   8.524
 5602SOL    HW218639  14.736  12.577   8.492
 5603SOL     OW18640   1.700   7.675  10.867
 5603SOL    HW118641   1.633   7.738  10.892
 5603SOL    HW218642   1.774   7.729  10.838
 5604SOL     OW18643  12.467  12.158   6.806
 5604SOL    HW118644  12.469  12.191   6.716
 5604SOL    HW218645  12.374  12.138   6.822
 5605SOL     OW18646  11.011  12.462  12.927
 5605SOL    HW118647  11.036  12.373  12.900
 5605SOL    HW218648  10.948  12.490  12.860
 5606SOL     OW18649   2.676   2.733   8.963
 5606SOL    HW118650   2.620   2.668   9.006
 5606SOL    HW218651   2.629   2.816   8.976
 5607SOL     OW18652   0.639   5.127  13.834
 5607SOL    HW118653   0.727   5.128  13.798
 5607SOL    HW218654   0.613   5.219  13.835
 5608SOL     OW18655   4.795  13.006   5.530
 5608SOL    HW118656   4.782  12.973   5.442
 5608SOL    HW218657   4.810  12.928   5.583
 5609SOL     OW18658   5.391   5.465   0.560
 5609SOL    HW118659   5.367   5.519   0.635
 5609SOL    HW218660   5.462   5.410   0.592
 5610SOL     OW18661   9.661  11.830   1.409
 5610SOL    HW118662   9.707  11.865   1.485
 5610SOL    HW218663   9.719  11.845   1.335
 5611SOL     OW18664   7.506   6.941   6.925
 5611SOL    HW118665   7.489   7.025   6.883
 5611SOL    HW218666   7.601   6.934   6.927
 5612SOL     OW18667   2.435   6.113   3.885
 5612SOL    HW118668   2.455   6.048   3.818
 5612SOL    HW218669   2.415   6.062   3.964
 5613SOL     OW18670   2.873   0.197   7.505
 5613SOL    HW118671   2.820   0.150   7.570
 5613SOL    HW218672   2.836   0.170   7.421
 5614SOL     OW18673  10.193   1.160   8.992
 5614SOL    HW118674  10.130   1.208   9.047
 5614SOL    HW218675  10.244   1.108   9.054
 5615SOL     OW18676  12.306   7.745  13.074
 5615SOL    HW118677  12.331   7.835  13.091
 5615SOL    HW218678  12.221   7.735  13.118
 5616SOL     OW18679   4.922   4.704   9.436
 5616SOL    HW118680   4.928   4.638   9.505
 5616SOL    HW218681   4.876   4.659   9.364
 5617SOL     OW18682   5.327  14.425   4.955
 5617SOL    HW118683   5.277  14.502   4.981
 5617SOL    HW218684   5.380  14.454   4.880
 5618SOL     OW18685   9.829   2.400   1.985
 5618SOL    HW118686   9.825   2.350   2.067
 5618SOL    HW218687   9.867   2.484   2.011
 5619SOL     OW18688   4.210   5.074   3.821
 5619SOL    HW118689   4.272   5.137   3.785
 5619SOL    HW218690   4.212   5.001   3.758
 5620SOL     OW18691  10.319   2.551   6.815
 5620SOL    HW118692  10.332   2.627   6.872
 5620SOL    HW218693  10.395   2.552   6.756
 5621SOL     OW18694  11.204   4.602   6.663
 5621SOL    HW118695  11.203   4.509   6.642
 5621SOL    HW218696  11.119   4.618   6.705
 5622SOL     OW18697  14.862   9.472   0.674
 5622SOL    HW118698  14.807   9.427   0.739
 5622SOL    HW218699   0.065   9.419   0.669
 5623SOL     OW18700   8.005   5.079   0.188
 5623SOL    HW118701   8.067   5.112   0.123
 5623SOL    HW218702   8.058   5.058   0.265
 5624SOL     OW18703  14.824   4.515   4.888
 5624SOL    HW118704   0.036   4.478   4.890
 5624SOL    HW218705  14.811   4.551   4.976
 5625SOL     OW18706  11.641   9.309   0.418
 5625SOL    HW118707  11.727   9.276   0.445
 5625SOL    HW218708  11.645   9.403   0.439
 5626SOL     OW18709  13.058   6.016  13.049
 5626SOL    HW118710  13.106   6.090  13.012
 5626SOL    HW218711  13.121   5.944  13.049
 5627SOL     OW18712   8.574  13.613   8.269
 5627SOL    HW118713   8.494  13.605   8.320
 5627SOL    HW218714   8.560  13.558   8.192
 5628SOL     OW18715   3.501  11.739  11.466
 5628SOL    HW118716   3.433  11.675  11.447
 5628SOL    HW218717   3.543  11.706  11.546
 5629SOL     OW18718   4.266   6.031   6.816
 5629SOL    HW118719   4.249   5.939   6.795
 5629SOL    HW218720   4.293   6.069   6.733
 5630SOL     OW18721   4.587   3.277  14.863
 5630SOL    HW118722   4.580   3.261   0.082
 5630SOL    HW218723   4.546   3.200  14.823
 5631SOL     OW18724   1.587  11.339   9.914
 5631SOL    HW118725   1.640  11.323   9.836
 5631SOL    HW218726   1.496  11.338   9.882
 5632SOL     OW18727   9.576   3.118   7.763
 5632SOL    HW118728   9.587   3.200   7.714
 5632SOL    HW218729   9.567   3.051   7.695
 5633SOL     OW18730  12.494   7.592   0.109
 5633SOL    HW118731  12.558   7.608   0.178
 5633SOL    HW218732  12.439   7.521   0.142
 5634SOL     OW18733  13.108   4.294   3.079
 5634SOL    HW118734  13.041   4.309   3.146
 5634SOL    HW218735  13.083   4.211   3.038
 5635SOL     OW18736  14.539  11.293   7.260
 5635SOL    HW118737  14.511  11.268   7.348
 5635SOL    HW218738  14.608  11.358   7.274
 5636SOL     OW18739   3.778   9.168   5.517
 5636SOL    HW118740   3.796   9.174   5.611
 5636SOL    HW218741   3.699   9.222   5.504
 5637SOL     OW18742   1.816  14.096   3.891
 5637SOL    HW118743   1.724  14.101   3.919
 5637SOL    HW218744   1.837  14.003   3.893
 5638SOL     OW18745   1.212  14.573   9.842
 5638SOL    HW118746   1.236  14.651   9.893
 5638SOL    HW218747   1.119  14.584   9.823
 5639SOL     OW18748  10.315   0.133   1.127
 5639SOL    HW118749  10.405   0.165   1.129
 5639SOL    HW218750  10.281   0.151   1.214
 5640SOL     OW18751   0.250  14.672   3.434
 5640SOL    HW118752   0.231  14.747   3.490
 5640SOL    HW218753   0.305  14.706   3.364
 5641SOL     OW18754  10.729   4.779  10.002
 5641SOL    HW118755  10.671   4.849  10.032
 5641SOL    HW218756  10.701   4.761   9.913
 5642SOL     OW18757   8.494  10.885   1.549
 5642SOL    HW118758   8.466  10.942   1.621
 5642SOL    HW218759   8.574  10.844   1.581
 5643SOL     OW18760   9.140   8.334   7.239
 5643SOL    HW118761   9.169   8.247   7.263
 5643SOL    HW218762   9.097   8.322   7.154
 5644SOL     OW18763  10.544   0.963  11.506
 5644SOL    HW118764  10.627   1.005  11.486
 5644SOL    HW218765  10.566   0.873  11.528
 5645SOL     OW18766  12.330   6.976   7.317
 5645SOL    HW118767  12.394   7.042   7.341
 5645SOL    HW218768  12.353   6.952   7.227
 5646SOL     OW18769  10.518   4.081  12.185
 5646SOL    HW118770  10.593   4.139  12.198
 5646SOL    HW218771  10.550   3.994  12.204
 5647SOL     OW18772  14.125  10.115   8.637
 5647SOL    HW118773  14.094  10.178   8.702
 5647SOL    HW218774  14.080  10.140   8.556
 5648SOL     OW18775   4.622   5.052   0.948
 5648SOL    HW118776   4.701   5.014   0.986
 5648SOL    HW218777   4.647   5.140   0.922
 5649SOL     OW18778   9.733   2.558   0.212
 5649SOL    HW118779   9.758   2.473   0.176
 5649SOL    HW218780   9.764   2.621   0.148
 5650SOL     OW18781   9.412   2.819   8.410
 5650SOL    HW118782   9.482   2.854   8.355
 5650SOL    HW218783   9.439   2.729   8.429
 5651SOL     OW18784   0.046   1.038  13.893
 5651SOL    HW118785   0.116   1.009  13.835
 5651SOL    HW218786   0.090   1.063  13.974
 5652SOL     OW18787   1.620   4.872   6.002
 5652SOL    HW118788   1.579   4.919   5.930
 5652SOL    HW218789   1.567   4.793   6.013
 5653SOL     OW18790   4.687   0.413   9.744
 5653SOL    HW118791   4.635   0.375   9.814
 5653SOL    HW218792   4.696   0.342   9.680
 5654SOL     OW18793   6.554  14.411   0.639
 5654SOL    HW118794   6.609  14.489   0.640
 5654SOL    HW218795   6.572  14.369   0.555
 5655SOL     OW18796  12.737   1.483  12.101
 5655SOL    HW118797  12.720   1.524  12.186
 5655SOL    HW218798  12.822   1.518  12.074
 5656SOL     OW18799   3.955   9.453  11.595
 5656SOL    HW118800   3.990   9.501  11.670
 5656SOL    HW218801   4.031   9.408  11.558
 5657SOL     OW18802   9.763   7.541   4.695
 5657SOL    HW118803   9.704   7.587   4.635
 5657SOL    HW218804   9.705   7.506   4.763
 5658SOL     OW18805  13.585  12.171   9.215
 5658SOL    HW118806  13.668  12.127   9.194
 5658SOL    HW218807  13.603  12.220   9.295
 5659SOL     OW18808   1.823  13.091   0.319
 5659SOL    HW118809   1.746  13.148   0.310
 5659SOL    HW218810   1.898  13.148   0.305
 5660SOL     OW18811   1.550  10.335  13.957
 5660SOL    HW118812   1.515  10.384  14.032
 5660SOL    HW218813   1.514  10.380  13.880
 5661SOL     OW18814   4.710  11.424   1.973
 5661SOL    HW118815   4.643  11.476   1.929
 5661SOL    HW218816   4.687  11.333   1.953
 5662SOL     OW18817   8.765  14.641  14.279
 5662SOL    HW118818   8.704  14.658  14.351
 5662SOL    HW218819   8.842  14.693  14.301
 5663SOL     OW18820   8.165  11.729  13.865
 5663SOL    HW118821   8.182  11.744  13.958
 5663SOL    HW218822   8.102  11.657  13.863
 5664SOL     OW18823   6.665   1.669   0.514
 5664SOL    HW118824   6.632   1.727   0.446
 5664SOL    HW218825   6.749   1.638   0.482
 5665SOL     OW18826   2.404  13.105   5.617
 5665SOL    HW118827   2.323  13.067   5.652
 5665SOL    HW218828   2.374  13.170   5.553
 5666SOL     OW18829   7.674  12.301   0.367
 5666SOL    HW118830   7.598  12.340   0.323
 5666SOL    HW218831   7.738  12.289   0.297
 5667SOL     OW18832  14.272   0.685   9.170
 5667SOL    HW118833  14.340   0.676   9.237
 5667SOL    HW218834  14.313   0.653   9.090
 5668SOL     OW18835  11.596  13.613   5.304
 5668SOL    HW118836  11.650  13.656   5.237
 5668SOL    HW218837  11.627  13.649   5.387
 5669SOL     OW18838   8.956   1.002   0.005
 5669SOL    HW118839   8.962   0.945   0.081
 5669SOL    HW218840   9.032   1.060   0.012
 5670SOL     OW18841   6.293  11.720   4.595
 5670SOL    HW118842   6.290  11.660   4.520
 5670SOL    HW218843   6.306  11.806   4.555
 5671SOL     OW18844   4.367   0.725   2.279
 5671SOL    HW118845   4.418   0.657   2.324
 5671SOL    HW218846   4.292   0.740   2.336
 5672SOL     OW18847  13.850  14.662  12.079
 5672SOL    HW118848  13.852  14.753  12.108
 5672SOL    HW218849  13.856  14.611  12.160
 5673SOL     OW18850   0.212  11.052   8.082
 5673SOL    HW118851   0.126  11.094   8.086
 5673SOL    HW218852   0.216  11.014   7.994
 5674SOL     OW18853   7.655   2.408   4.171
 5674SOL    HW118854   7.671   2.430   4.079
 5674SOL    HW218855   7.637   2.314   4.171
 5675SOL     OW18856   0.015   1.364   0.843
 5675SOL    HW118857   0.101   1.322   0.843
 5675SOL    HW218858   0.022   1.436   0.781
 5676SOL     OW18859  14.780  11.174   8.720
 5676SOL    HW118860  14.876  11.180   8.725
 5676SOL    HW218861  14.749  11.214   8.801
 5677SOL     OW18862  14.419   0.641   2.070
 5677SOL    HW118863  14.449   0.602   2.151
 5677SOL    HW218864  14.323   0.639   2.076
 5678SOL     OW18865   9.332   6.914  13.437
 5678SOL    HW118866   9.339   6.984  13.502
 5678SOL    HW218867   9.273   6.850  13.477
 5679SOL     OW18868   3.725   3.021   1.303
 5679SOL    HW118869   3.751   3.109   1.330
 5679SOL    HW218870   3.774   3.005   1.222
 5680SOL     OW18871   3.645  11.094   4.483
 5680SOL    HW118872   3.556  11.078   4.514
 5680SOL    HW218873   3.634  11.113   4.389
 5681SOL     OW18874  13.947  13.599   7.058
 5681SOL    HW118875  13.963  13.510   7.087
 5681SOL    HW218876  14.014  13.616   6.991
 5682SOL     OW18877   1.386   0.958   0.568
 5682SOL    HW118878   1.470   0.929   0.605
 5682SOL    HW218879   1.342   0.877   0.543
 5683SOL     OW18880   1.723   8.054   6.845
 5683SOL    HW118881   1.693   7.967   6.871
 5683SOL    HW218882   1.647   8.093   6.802
 5684SOL     OW18883  14.861   1.333   6.449
 5684SOL    HW118884   0.006   1.373   6.533
 5684SOL    HW218885  14.786   1.383   6.417
 5685SOL     OW18886   0.598  12.995   3.427
 5685SOL    HW118887   0.560  12.924   3.479
 5685SOL    HW218888   0.621  12.954   3.344
 5686SOL     OW18889   4.751   3.696  12.876
 5686SOL    HW118890   4.789   3.735  12.954
 5686SOL    HW218891   4.819   3.704  12.809
 5687SOL     OW18892   9.975   7.102   0.193
 5687SOL    HW118893   9.922   7.023   0.202
 5687SOL    HW218894  10.013   7.095   0.105
 5688SOL     OW18895  11.914   5.380   9.208
 5688SOL    HW118896  11.916   5.312   9.140
 5688SOL    HW218897  11.991   5.362   9.262
 5689SOL     OW18898   2.859  14.736   1.531
 5689SOL    HW118899   2.798  14.787   1.585
 5689SOL    HW218900   2.803  14.682   1.475
 5690SOL     OW18901  12.262  14.771   0.360
 5690SOL    HW118902  12.334  14.714   0.330
 5690SOL    HW218903  12.244  14.741   0.449
 5691SOL     OW18904   0.447   6.513  12.885
 5691SOL    HW118905   0.395   6.436  12.907
 5691SOL    HW218906   0.535   6.478  12.868
 5692SOL     OW18907   3.608   4.125   7.515
 5692SOL    HW118908   3.684   4.073   7.490
 5692SOL    HW218909   3.635   4.216   7.503
 5693SOL     OW18910   9.250   6.130  14.275
 5693SOL    HW118911   9.297   6.090  14.348
 5693SOL    HW218912   9.305   6.112  14.199
 5694SOL     OW18913   3.089  10.985   6.285
 5694SOL    HW118914   3.072  11.073   6.317
 5694SOL    HW218915   3.003  10.950   6.262
 5695SOL     OW18916   7.491   8.917   4.930
 5695SOL    HW118917   7.428   8.849   4.952
 5695SOL    HW218918   7.527   8.945   5.014
 5696SOL     OW18919  13.888   3.819  11.763
 5696SOL    HW118920  13.811   3.805  11.708
 5696SOL    HW218921  13.962   3.787  11.711
 5697SOL     OW18922   7.646   1.238   3.780
 5697SOL    HW118923   7.595   1.292   3.840
 5697SOL    HW218924   7.645   1.285   3.697
 5698SOL     OW18925   8.306   2.466  11.976
 5698SOL    HW118926   8.325   2.421  11.894
 5698SOL    HW218927   8.213   2.487  11.971
 5699SOL     OW18928  13.462   2.955  12.635
 5699SOL    HW118929  13.538   3.007  12.664
 5699SOL    HW218930  13.500   2.871  12.609
 5700SOL     OW18931   5.481   4.390   2.515
 5700SOL    HW118932   5.502   4.312   2.566
 5700SOL    HW218933   5.385   4.393   2.515
 5701SOL     OW18934   1.938  11.127  11.987
 5701SOL    HW118935   1.963  11.194  11.923
 5701SOL    HW218936   1.869  11.167  12.039
 5702SOL     OW18937   9.437  12.751  11.297
 5702SOL    HW118938   9.363  12.705  11.257
 5702SOL    HW218939   9.509  12.689  11.293
 5703SOL     OW18940  10.684   9.129  14.619
 5703SOL    HW118941  10.598   9.153  14.654
 5703SOL    HW218942  10.743   9.134  14.694
 5704SOL     OW18943   1.001  13.179  12.640
 5704SOL    HW118944   0.998  13.154  12.547
 5704SOL    HW218945   1.030  13.271  12.638
 5705SOL     OW18946   8.902   0.425  12.565
 5705SOL    HW118947   8.986   0.460  12.594
 5705SOL    HW218948   8.926   0.348  12.512
 5706SOL     OW18949   9.700  11.005   9.690
 5706SOL    HW118950   9.746  11.072   9.741
 5706SOL    HW218951   9.619  11.047   9.663
 5707SOL     OW18952  12.464  11.541   9.276
 5707SOL    HW118953  12.444  11.633   9.263
 5707SOL    HW218954  12.558  11.535   9.264
 5708SOL     OW18955   6.117   0.157   5.683
 5708SOL    HW118956   6.068   0.234   5.656
 5708SOL    HW218957   6.055   0.084   5.677
 5709SOL     OW18958   8.048   7.838   1.986
 5709SOL    HW118959   7.977   7.804   2.042
 5709SOL    HW218960   8.050   7.778   1.912
 5710SOL     OW18961  13.057   6.173  11.017
 5710SOL    HW118962  13.006   6.142  11.092
 5710SOL    HW218963  13.117   6.101  10.998
 5711SOL     OW18964   2.150  11.751   6.057
 5711SOL    HW118965   2.066  11.797   6.057
 5711SOL    HW218966   2.127  11.660   6.038
 5712SOL     OW18967   8.090   5.209   5.451
 5712SOL    HW118968   8.140   5.255   5.383
 5712SOL    HW218969   8.103   5.116   5.432
 5713SOL     OW18970   4.475  14.504  12.389
 5713SOL    HW118971   4.427  14.545  12.317
 5713SOL    HW218972   4.566  14.532  12.376
 5714SOL     OW18973  10.770  11.787   2.191
 5714SOL    HW118974  10.713  11.824   2.124
 5714SOL    HW218975  10.825  11.725   2.144
 5715SOL     OW18976  10.200  14.559   7.616
 5715SOL    HW118977  10.190  14.591   7.705
 5715SOL    HW218978  10.131  14.602   7.566
 5716SOL     OW18979  12.347   9.439   0.381
 5716SOL    HW118980  12.390   9.525   0.382
 5716SOL    HW218981  12.370   9.400   0.466
 5717SOL     OW18982   4.439   7.848   5.795
 5717SOL    HW118983   4.456   7.787   5.866
 5717SOL    HW218984   4.493   7.924   5.815
 5718SOL     OW18985   1.959   1.536  10.417
 5718SOL    HW118986   1.938   1.445  10.436
 5718SOL    HW218987   2.043   1.551  10.461
 5719SOL     OW18988   4.692   2.251   0.099
 5719SOL    HW118989   4.788   2.253   0.097
 5719SOL    HW218990   4.669   2.304   0.175
 5720SOL     OW18991  14.062   1.651  10.930
 5720SOL    HW118992  14.004   1.604  10.989
 5720SOL    HW218993  14.120   1.584  10.895
 5721SOL     OW18994   5.475   5.170   8.908
 5721SOL    HW118995   5.501   5.079   8.894
 5721SOL    HW218996   5.386   5.175   8.875
 5722SOL     OW18997   4.360   2.556   7.820
 5722SOL    HW118998   4.317   2.546   7.735
 5722SOL    HW218999   4.346   2.471   7.864
 5723SOL     OW19000   4.283   4.233   8.559
 5723SOL    HW119001   4.343   4.282   8.502
 5723SOL    HW219002   4.244   4.300   8.615
 5724SOL     OW19003   5.898   9.819   2.379
 5724SOL    HW119004   5.853   9.904   2.381
 5724SOL    HW219005   5.966   9.830   2.313
 5725SOL     OW19006   0.100   4.537   8.659
 5725SOL    HW119007   0.162   4.474   8.622
 5725SOL    HW219008   0.048   4.486   8.721
 5726SOL     OW19009   3.670  12.811   8.957
 5726SOL    HW119010   3.601  12.822   9.021
 5726SOL    HW219011   3.630  12.836   8.873
 5727SOL     OW19012   2.576   6.508   3.620
 5727SOL    HW119013   2.623   6.547   3.693
 5727SOL    HW219014   2.643   6.494   3.553
 5728SOL     OW19015  10.195  12.496   1.854
 5728SOL    HW119016  10.130  12.562   1.876
 5728SOL    HW219017  10.256  12.496   1.928
 5729SOL     OW19018   0.242  10.267   2.392
 5729SOL    HW119019   0.249  10.178   2.356
 5729SOL    HW219020   0.184  10.259   2.467
 5730SOL     OW19021   1.632   9.609   7.746
 5730SOL    HW119022   1.669   9.532   7.703
 5730SOL    HW219023   1.656   9.598   7.838
 5731SOL     OW19024   8.860   6.129   4.359
 5731SOL    HW119025   8.847   6.151   4.267
 5731SOL    HW219026   8.835   6.208   4.407
 5732SOL     OW19027   9.411  12.157   5.541
 5732SOL    HW119028   9.348  12.087   5.556
 5732SOL    HW219029   9.413  12.168   5.446
 5733SOL     OW19030  14.667   0.492  10.945
 5733SOL    HW119031  14.664   0.450  10.860
 5733SOL    HW219032  14.603   0.563  10.939
 5734SOL     OW19033  13.814   7.143   8.670
 5734SOL    HW119034  13.810   7.237   8.683
 5734SOL    HW219035  13.806   7.132   8.575
 5735SOL     OW19036   4.552  13.518   5.325
 5735SOL    HW119037   4.527  13.536   5.416
 5735SOL    HW219038   4.641  13.552   5.317
 5736SOL     OW19039   6.864   4.509   3.757
 5736SOL    HW119040   6.870   4.570   3.683
 5736SOL    HW219041   6.895   4.560   3.832
 5737SOL     OW19042  12.087   5.467   3.771
 5737SOL    HW119043  12.040   5.514   3.702
 5737SOL    HW219044  12.173   5.450   3.733
 5738SOL     OW19045   3.942   4.744  12.637
 5738SOL    HW119046   3.910   4.677  12.697
 5738SOL    HW219047   3.871   4.757  12.574
 5739SOL     OW19048  11.284   5.751   9.927
 5739SOL    HW119049  11.374   5.783   9.928
 5739SOL    HW219050  11.241   5.798   9.999
 5740SOL     OW19051   1.087   4.301   3.894
 5740SOL    HW119052   1.026   4.255   3.952
 5740SOL    HW219053   1.173   4.290   3.936
 5741SOL     OW19054   8.166   7.289   7.138
 5741SOL    HW119055   8.078   7.288   7.175
 5741SOL    HW219056   8.214   7.351   7.191
 5742SOL     OW19057   3.953  12.545  10.913
 5742SOL    HW119058   4.014  12.542  10.986
 5742SOL    HW219059   3.868  12.560  10.955
 5743SOL     OW19060   2.673  10.701   4.522
 5743SOL    HW119061   2.709  10.613   4.536
 5743SOL    HW219062   2.741  10.748   4.474
 5744SOL     OW19063  14.286  10.830   4.149
 5744SOL    HW119064  14.277  10.776   4.071
 5744SOL    HW219065  14.361  10.887   4.131
 5745SOL     OW19066  12.931   2.248   1.299
 5745SOL    HW119067  13.013   2.199   1.301
 5745SOL    HW219068  12.880   2.212   1.373
 5746SOL     OW19069   3.675   6.967   8.362
 5746SOL    HW119070   3.704   6.927   8.445
 5746SOL    HW219071   3.661   6.892   8.304
 5747SOL     OW19072   8.455  10.245   3.590
 5747SOL    HW119073   8.458  10.223   3.496
 5747SOL    HW219074   8.403  10.175   3.629
 5748SOL     OW19075  10.951   0.745   2.405
 5748SOL    HW119076  11.010   0.731   2.331
 5748SOL    HW219077  10.992   0.697   2.477
 5749SOL     OW19078   7.233   7.501   4.956
 5749SOL    HW119079   7.249   7.540   4.869
 5749SOL    HW219080   7.161   7.441   4.942
 5750SOL     OW19081   4.380  14.083  11.628
 5750SOL    HW119082   4.375  14.010  11.690
 5750SOL    HW219083   4.470  14.114  11.636
 5751SOL     OW19084   4.963   8.579  10.408
 5751SOL    HW119085   4.910   8.584  10.328
 5751SOL    HW219086   4.927   8.505  10.457
 5752SOL     OW19087  13.069   3.068  11.026
 5752SOL    HW119088  12.979   3.086  11.053
 5752SOL    HW219089  13.090   2.984  11.066
 5753SOL     OW19090   1.170   2.670  11.578
 5753SOL    HW119091   1.247   2.613  11.586
 5753SOL    HW219092   1.115   2.645  11.653
 5754SOL     OW19093  10.791  13.784   6.609
 5754SOL    HW119094  10.705  13.804   6.647
 5754SOL    HW219095  10.773  13.760   6.518
 5755SOL     OW19096  10.846  10.045   5.107
 5755SOL    HW119097  10.758  10.059   5.140
 5755SOL    HW219098  10.890   9.994   5.175
 5756SOL     OW19099  14.043   1.441  11.704
 5756SOL    HW119100  13.982   1.500  11.660
 5756SOL    HW219101  14.003   1.426  11.790
 5757SOL     OW19102   5.679   0.556   2.486
 5757SOL    HW119103   5.632   0.517   2.412
 5757SOL    HW219104   5.642   0.644   2.495
 5758SOL     OW19105   1.345   0.518  10.048
 5758SOL    HW119106   1.261   0.485  10.079
 5758SOL    HW219107   1.323   0.564   9.966
 5759SOL     OW19108   5.856  14.065   6.937
 5759SOL    HW119109   5.905  14.090   7.015
 5759SOL    HW219110   5.903  13.988   6.902
 5760SOL     OW19111   0.217   9.404   9.715
 5760SOL    HW119112   0.195   9.427   9.805
 5760SOL    HW219113   0.146   9.346   9.687
 5761SOL     OW19114   9.325   4.336  12.811
 5761SOL    HW119115   9.358   4.259  12.765
 5761SOL    HW219116   9.300   4.304  12.898
 5762SOL     OW19117   0.036  10.854  10.532
 5762SOL    HW119118  14.825  10.886  10.507
 5762SOL    HW219119   0.094  10.929  10.518
 5763SOL     OW19120   5.166   4.433   5.506
 5763SOL    HW119121   5.184   4.504   5.445
 5763SOL    HW219122   5.253   4.401   5.532
 5764SOL     OW19123  14.216  12.176   6.057
 5764SOL    HW119124  14.306  12.208   6.056
 5764SOL    HW219125  14.225  12.082   6.074
 5765SOL     OW19126   9.689  13.349   7.008
 5765SOL    HW119127   9.756  13.325   6.944
 5765SOL    HW219128   9.692  13.445   7.010
 5766SOL     OW19129  10.382   1.453   3.393
 5766SOL    HW119130  10.404   1.514   3.323
 5766SOL    HW219131  10.319   1.393   3.355
 5767SOL     OW19132  10.172  12.323   7.975
 5767SOL    HW119133  10.083  12.303   7.946
 5767SOL    HW219134  10.174  12.418   7.984
 5768SOL     OW19135   1.172   2.817   2.605
 5768SOL    HW119136   1.082   2.795   2.626
 5768SOL    HW219137   1.172   2.831   2.510
 5769SOL     OW19138  12.455  14.714   7.088
 5769SOL    HW119139  12.521  14.780   7.109
 5769SOL    HW219140  12.399  14.711   7.166
 5770SOL     OW19141   2.791   0.531   3.783
 5770SOL    HW119142   2.863   0.566   3.731
 5770SOL    HW219143   2.831   0.506   3.866
 5771SOL     OW19144  14.075   2.162   9.128
 5771SOL    HW119145  14.145   2.106   9.097
 5771SOL    HW219146  14.025   2.184   9.049
 5772SOL     OW19147   3.720   8.844  14.242
 5772SOL    HW119148   3.670   8.908  14.192
 5772SOL    HW219149   3.811   8.862  14.220
 5773SOL     OW19150  10.654  11.497   4.286
 5773SOL    HW119151  10.610  11.422   4.326
 5773SOL    HW219152  10.619  11.500   4.197
 5774SOL     OW19153  10.655  11.802   6.196
 5774SOL    HW119154  10.715  11.797   6.122
 5774SOL    HW219155  10.692  11.869   6.253
 5775SOL     OW19156  12.351  13.787  10.963
 5775SOL    HW119157  12.419  13.817  10.904
 5775SOL    HW219158  12.285  13.747  10.906
 5776SOL     OW19159   4.707   2.135   9.533
 5776SOL    HW119160   4.682   2.165   9.621
 5776SOL    HW219161   4.721   2.041   9.543
 5777SOL     OW19162   2.947  14.231  12.797
 5777SOL    HW119163   3.006  14.263  12.865
 5777SOL    HW219164   2.982  14.144  12.775
 5778SOL     OW19165   5.333   5.722   2.422
 5778SOL    HW119166   5.411   5.715   2.367
 5778SOL    HW219167   5.366   5.745   2.509
 5779SOL     OW19168   3.549   1.763   7.740
 5779SOL    HW119169   3.517   1.701   7.805
 5779SOL    HW219170   3.469   1.795   7.697
 5780SOL     OW19171   3.486  11.578  12.904
 5780SOL    HW119172   3.513  11.514  12.838
 5780SOL    HW219173   3.466  11.657  12.854
 5781SOL     OW19174   6.538   9.195   1.277
 5781SOL    HW119175   6.493   9.277   1.257
 5781SOL    HW219176   6.486   9.155   1.347
 5782SOL     OW19177  13.785   7.566   1.754
 5782SOL    HW119178  13.779   7.488   1.700
 5782SOL    HW219179  13.850   7.544   1.821
 5783SOL     OW19180  12.865   4.961   7.694
 5783SOL    HW119181  12.887   4.881   7.645
 5783SOL    HW219182  12.905   4.947   7.781
 5784SOL     OW19183  12.678  11.719   9.511
 5784SOL    HW119184  12.755  11.770   9.537
 5784SOL    HW219185  12.695  11.695   9.420
 5785SOL     OW19186  11.120  11.452   8.347
 5785SOL    HW119187  11.179  11.376   8.340
 5785SOL    HW219188  11.131  11.498   8.263
 5786SOL     OW19189   7.670   6.275   6.194
 5786SOL    HW119190   7.762   6.274   6.222
 5786SOL    HW219191   7.635   6.356   6.232
 5787SOL     OW19192   1.637   3.563   1.589
 5787SOL    HW119193   1.624   3.482   1.638
 5787SOL    HW219194   1.639   3.536   1.498
 5788SOL     OW19195  11.867  14.519   7.938
 5788SOL    HW119196  11.952  14.527   7.982
 5788SOL    HW219197  11.828  14.606   7.946
 5789SOL     OW19198  10.021   1.584   8.039
 5789SOL    HW119199  10.108   1.545   8.029
 5789SOL    HW219200  10.037   1.669   8.080
 5790SOL     OW19201   6.278   8.069  12.955
 5790SOL    HW119202   6.237   8.138  13.006
 5790SOL    HW219203   6.371   8.073  12.979
 5791SOL     OW19204  11.771   5.212   9.358
 5791SOL    HW119205  11.840   5.177   9.414
 5791SOL    HW219206  11.816   5.276   9.303
 5792SOL     OW19207   8.129  14.109  11.633
 5792SOL    HW119208   8.116  14.154  11.550
 5792SOL    HW219209   8.051  14.054  11.642
 5793SOL     OW19210  10.150   7.721   6.189
 5793SOL    HW119211  10.195   7.767   6.119
 5793SOL    HW219212  10.166   7.629   6.172
 5794SOL     OW19213   8.274  11.799  10.853
 5794SOL    HW119214   8.344  11.849  10.894
 5794SOL    HW219215   8.255  11.846  10.772
 5795SOL     OW19216  11.020  12.603   6.314
 5795SOL    HW119217  10.939  12.650   6.294
 5795SOL    HW219218  11.005  12.565   6.401
 5796SOL     OW19219   1.297   7.937   0.446
 5796SOL    HW119220   1.330   7.976   0.365
 5796SOL    HW219221   1.318   7.844   0.439
 5797SOL     OW19222   5.093  14.091   0.386
 5797SOL    HW119223   5.008  14.073   0.426
 5797SOL    HW219224   5.078  14.169   0.332
 5798SOL     OW19225   1.831  10.102   9.852
 5798SOL    HW119226   1.872  10.047   9.786
 5798SOL    HW219227   1.885  10.181   9.855
 5799SOL     OW19228  10.144   7.625   2.408
 5799SOL    HW119229  10.097   7.542   2.402
 5799SOL    HW219230  10.223   7.612   2.355
 5800SOL     OW19231   8.452  11.846  12.730
 5800SOL    HW119232   8.489  11.763  12.759
 5800SOL    HW219233   8.394  11.873  12.801
 5801SOL     OW19234   3.230   3.718  12.975
 5801SOL    HW119235   3.172   3.678  13.039
 5801SOL    HW219236   3.186   3.799  12.950
 5802SOL     OW19237   5.399  10.890  13.578
 5802SOL    HW119238   5.395  10.819  13.642
 5802SOL    HW219239   5.492  10.904  13.562
 5803SOL     OW19240  13.418   1.259   0.925
 5803SOL    HW119241  13.485   1.226   0.984
 5803SOL    HW219242  13.416   1.353   0.940
 5804SOL     OW19243  10.490   2.427   1.343
 5804SOL    HW119244  10.477   2.353   1.404
 5804SOL    HW219245  10.549   2.486   1.389
 5805SOL     OW19246  12.343   5.376  13.098
 5805SOL    HW119247  12.387   5.365  13.183
 5805SOL    HW219248  12.359   5.294  13.053
 5806SOL     OW19249   0.859  10.454  13.402
 5806SOL    HW119250   0.868  10.548  13.386
 5806SOL    HW219251   0.902  10.440  13.486
 5807SOL     OW19252   3.547   8.096  10.850
 5807SOL    HW119253   3.638   8.087  10.879
 5807SOL    HW219254   3.517   8.006  10.838
 5808SOL     OW19255  10.041   1.513  10.118
 5808SOL    HW119256  10.113   1.559  10.163
 5808SOL    HW219257  10.027   1.564  10.039
 5809SOL     OW19258   6.923   4.007  14.809
 5809SOL    HW119259   6.833   3.976  14.822
 5809SOL    HW219260   6.913   4.087  14.759
 5810SOL     OW19261   3.133   8.207   5.665
 5810SOL    HW119262   3.070   8.256   5.612
 5810SOL    HW219263   3.158   8.132   5.610
 5811SOL     OW19264  14.165   3.439   3.347
 5811SOL    HW119265  14.134   3.440   3.256
 5811SOL    HW219266  14.259   3.453   3.340
 5812SOL     OW19267  13.971   9.000   7.189
 5812SOL    HW119268  14.035   9.067   7.163
 5812SOL    HW219269  13.951   8.954   7.108
 5813SOL     OW19270  11.204   2.781   6.799
 5813SOL    HW119271  11.129   2.735   6.837
 5813SOL    HW219272  11.186   2.873   6.816
 5814SOL     OW19273  12.426  11.582   3.851
 5814SOL    HW119274  12.516  11.551   3.867
 5814SOL    HW219275  12.437  11.658   3.793
 5815SOL     OW19276   0.772   8.292   9.703
 5815SOL    HW119277   0.848   8.264   9.754
 5815SOL    HW219278   0.721   8.345   9.763
 5816SOL     OW19279   4.590  10.359   8.647
 5816SOL    HW119280   4.621  10.400   8.728
 5816SOL    HW219281   4.616  10.268   8.654
 5817SOL     OW19282   1.533  10.331   8.313
 5817SOL    HW119283   1.442  10.325   8.341
 5817SOL    HW219284   1.547  10.253   8.259
 5818SOL     OW19285   7.012  10.811   7.652
 5818SOL    HW119286   6.927  10.813   7.695
 5818SOL    HW219287   7.075  10.829   7.722
 5819SOL     OW19288   3.405   4.891   0.827
 5819SOL    HW119289   3.486   4.840   0.817
 5819SOL    HW219290   3.424   4.974   0.783
 5820SOL     OW19291  13.056   3.119   8.803
 5820SOL    HW119292  13.068   3.112   8.708
 5820SOL    HW219293  12.966   3.089   8.818
 5821SOL     OW19294   9.276  14.248   0.432
 5821SOL    HW119295   9.356  14.294   0.458
 5821SOL    HW219296   9.242  14.299   0.358
 5822SOL     OW19297  13.704   1.897   6.497
 5822SOL    HW119298  13.627   1.839   6.495
 5822SOL    HW219299  13.682   1.968   6.437
 5823SOL     OW19300  10.919   5.216   6.501
 5823SOL    HW119301  11.007   5.251   6.485
 5823SOL    HW219302  10.909   5.219   6.596
 5824SOL     OW19303  12.334   0.418   9.548
 5824SOL    HW119304  12.426   0.416   9.573
 5824SOL    HW219305  12.335   0.416   9.453
 5825SOL     OW19306  10.905   8.702   2.091
 5825SOL    HW119307  10.930   8.629   2.146
 5825SOL    HW219308  10.816   8.681   2.062
 5826SOL     OW19309   5.720  11.624  11.285
 5826SOL    HW119310   5.649  11.674  11.244
 5826SOL    HW219311   5.800  11.657  11.244
 5827SOL     OW19312  10.008   3.402   6.552
 5827SOL    HW119313  10.071   3.410   6.624
 5827SOL    HW219314   9.937   3.463   6.576
 5828SOL     OW19315  13.432   0.802   6.744
 5828SOL    HW119316  13.397   0.867   6.805
 5828SOL    HW219317  13.384   0.722   6.764
 5829SOL     OW19318   9.827  13.761   6.904
 5829SOL    HW119319   9.787  13.722   6.826
 5829SOL    HW219320   9.920  13.765   6.884
 5830SOL     OW19321   5.219   3.914   3.958
 5830SOL    HW119322   5.167   3.944   4.033
 5830SOL    HW219323   5.185   3.826   3.940
 5831SOL     OW19324  10.463  12.281   0.398
 5831SOL    HW119325  10.539  12.222   0.400
 5831SOL    HW219326  10.463  12.318   0.310
 5832SOL     OW19327   6.781  13.833  10.256
 5832SOL    HW119328   6.838  13.778  10.202
 5832SOL    HW219329   6.753  13.777  10.328
 5833SOL     OW19330   5.912  12.099   3.766
 5833SOL    HW119331   5.900  12.194   3.777
 5833SOL    HW219332   5.909  12.065   3.855
 5834SOL     OW19333   6.319  14.510   8.263
 5834SOL    HW119334   6.412  14.486   8.269
 5834SOL    HW219335   6.289  14.469   8.181
 5835SOL     OW19336  12.313  14.061   9.586
 5835SOL    HW119337  12.351  14.018   9.663
 5835SOL    HW219338  12.375  14.131   9.565
 5836SOL     OW19339   2.533  13.061  11.919
 5836SOL    HW119340   2.628  13.052  11.918
 5836SOL    HW219341   2.515  13.129  11.853
 5837SOL     OW19342  12.646  13.118  10.844
 5837SOL    HW119343  12.676  13.157  10.926
 5837SOL    HW219344  12.726  13.107  10.792
 5838SOL     OW19345   6.456   6.292   6.042
 5838SOL    HW119346   6.397   6.236   6.092
 5838SOL    HW219347   6.401   6.329   5.973
 5839SOL     OW19348   8.097   0.049   4.745
 5839SOL    HW119349   8.151   0.022   4.820
 5839SOL    HW219350   8.138   0.007   4.670
 5840SOL     OW19351   5.648   8.362  13.239
 5840SOL    HW119352   5.635   8.433  13.176
 5840SOL    HW219353   5.560   8.337  13.266
 5841SOL     OW19354   0.380   9.989   9.863
 5841SOL    HW119355   0.321   9.987   9.788
 5841SOL    HW219356   0.468   9.999   9.826
 5842SOL     OW19357   9.548   2.286   0.263
 5842SOL    HW119358   9.594   2.233   0.328
 5842SOL    HW219359   9.466   2.311   0.306
 5843SOL     OW19360  12.374  11.094   7.698
 5843SOL    HW119361  12.334  11.074   7.782
 5843SOL    HW219362  12.394  11.009   7.660
 5844SOL     OW19363   3.587   9.647   9.978
 5844SOL    HW119364   3.629   9.573  10.023
 5844SOL    HW219365   3.639   9.660   9.899
 5845SOL     OW19366  13.780   6.910   9.968
 5845SOL    HW119367  13.709   6.870   9.918
 5845SOL    HW219368  13.812   6.981   9.912
 5846SOL     OW19369   4.386  10.622   0.633
 5846SOL    HW119370   4.377  10.549   0.694
 5846SOL    HW219371   4.467  10.604   0.585
 5847SOL     OW19372  10.569   8.253   2.703
 5847SOL    HW119373  10.619   8.256   2.784
 5847SOL    HW219374  10.619   8.306   2.642
 5848SOL     OW19375   4.470   5.995  11.578
 5848SOL    HW119376   4.435   6.071  11.624
 5848SOL    HW219377   4.563   6.014  11.568
 5849SOL     OW19378  12.855  10.932   4.208
 5849SOL    HW119379  12.904  10.851   4.224
 5849SOL    HW219380  12.777  10.903   4.160
 5850SOL     OW19381  13.179  10.825   7.522
 5850SOL    HW119382  13.210  10.783   7.442
 5850SOL    HW219383  13.210  10.915   7.516
 5851SOL     OW19384  12.214  13.637   1.294
 5851SOL    HW119385  12.275  13.611   1.224
 5851SOL    HW219386  12.139  13.579   1.283
 5852SOL     OW19387   1.288  12.961   5.662
 5852SOL    HW119388   1.318  12.897   5.597
 5852SOL    HW219389   1.240  13.026   5.611
 5853SOL     OW19390   9.630  11.010  11.448
 5853SOL    HW119391   9.615  11.098  11.413
 5853SOL    HW219392   9.683  10.966  11.381
 5854SOL     OW19393  10.987  14.102  14.382
 5854SOL    HW119394  10.916  14.150  14.339
 5854SOL    HW219395  10.986  14.134  14.472
 5855SOL     OW19396  14.564   5.396  11.550
 5855SOL    HW119397  14.649   5.394  11.505
 5855SOL    HW219398  14.539   5.488  11.549
 5856SOL     OW19399  11.033  10.220   6.475
 5856SOL    HW119400  11.047  10.140   6.525
 5856SOL    HW219401  11.072  10.202   6.389
 5857SOL     OW19402   0.677   8.128   7.589
 5857SOL    HW119403   0.747   8.189   7.565
 5857SOL    HW219404   0.652   8.154   7.677
 5858SOL     OW19405   1.143  12.661   9.248
 5858SOL    HW119406   1.213  12.712   9.207
 5858SOL    HW219407   1.110  12.719   9.317
 5859SOL     OW19408  12.586  14.164  11.681
 5859SOL    HW119409  12.523  14.169  11.609
 5859SOL    HW219410  12.532  14.150  11.759
 5860SOL     OW19411   7.220   1.281   6.758
 5860SOL    HW119412   7.135   1.301   6.797
 5860SOL    HW219413   7.200   1.259   6.668
 5861SOL     OW19414   7.442  12.507   1.689
 5861SOL    HW119415   7.463  12.485   1.598
 5861SOL    HW219416   7.347  12.510   1.692
 5862SOL     OW19417   5.758  10.872  10.232
 5862SOL    HW119418   5.686  10.890  10.171
 5862SOL    HW219419   5.784  10.782  10.212
 5863SOL     OW19420   2.233  14.073  14.217
 5863SOL    HW119421   2.219  14.102  14.127
 5863SOL    HW219422   2.158  14.017  14.236
 5864SOL     OW19423   6.906  14.492   2.368
 5864SOL    HW119424   6.873  14.578   2.344
 5864SOL    HW219425   6.944  14.458   2.286
 5865SOL     OW19426   1.712   7.163  13.534
 5865SOL    HW119427   1.762   7.218  13.594
 5865SOL    HW219428   1.745   7.075  13.549
 5866SOL     OW19429   8.855   4.368   0.202
 5866SOL    HW119430   8.939   4.414   0.201
 5866SOL    HW219431   8.811   4.401   0.280
 5867SOL     OW19432  10.815   3.109   4.122
 5867SOL    HW119433  10.770   3.191   4.139
 5867SOL    HW219434  10.745   3.046   4.103
 5868SOL     OW19435   5.189   7.553   7.178
 5868SOL    HW119436   5.160   7.615   7.245
 5868SOL    HW219437   5.232   7.607   7.112
 5869SOL     OW19438   0.536   6.646  12.515
 5869SOL    HW119439   0.554   6.552  12.521
 5869SOL    HW219440   0.489   6.656  12.432
 5870SOL     OW19441   6.534   2.735  10.099
 5870SOL    HW119442   6.438   2.736  10.094
 5870SOL    HW219443   6.553   2.745  10.193
 5871SOL     OW19444   3.977  14.846  14.657
 5871SOL    HW119445   3.945  14.768  14.702
 5871SOL    HW219446   4.056  14.871  14.705
 5872SOL     OW19447   7.605   9.719   1.474
 5872SOL    HW119448   7.586   9.686   1.386
 5872SOL    HW219449   7.613   9.640   1.527
 5873SOL     OW19450  10.785  14.206  11.076
 5873SOL    HW119451  10.726  14.161  11.016
 5873SOL    HW219452  10.734  14.217  11.156
 5874SOL     OW19453  11.788   9.589  11.438
 5874SOL    HW119454  11.816   9.670  11.396
 5874SOL    HW219455  11.829   9.520  11.386
 5875SOL     OW19456  11.584  14.683  14.202
 5875SOL    HW119457  11.515  14.636  14.156
 5875SOL    HW219458  11.590  14.639  14.287
 5876SOL     OW19459   2.205  10.257   9.201
 5876SOL    HW119460   2.113  10.284   9.198
 5876SOL    HW219461   2.245  10.303   9.128
 5877SOL     OW19462   1.901   0.295  10.920
 5877SOL    HW119463   1.909   0.345  11.002
 5877SOL    HW219464   1.901   0.362  10.851
 5878SOL     OW19465  12.632   3.243   2.179
 5878SOL    HW119466  12.726   3.247   2.162
 5878SOL    HW219467  12.594   3.309   2.121
 5879SOL     OW19468  10.090   3.662  10.746
 5879SOL    HW119469  10.112   3.655  10.653
 5879SOL    HW219470  10.147   3.731  10.780
 5880SOL     OW19471   9.335   8.828   0.101
 5880SOL    HW119472   9.291   8.896   0.152
 5880SOL    HW219473   9.364   8.765   0.166
 5881SOL     OW19474   5.511   7.096   7.512
 5881SOL    HW119475   5.527   7.008   7.477
 5881SOL    HW219476   5.566   7.153   7.459
 5882SOL     OW19477  11.854   0.721  10.994
 5882SOL    HW119478  11.784   0.785  10.978
 5882SOL    HW219479  11.932   0.773  11.008
 5883SOL     OW19480   8.471   7.818  10.458
 5883SOL    HW119481   8.460   7.748  10.394
 5883SOL    HW219482   8.446   7.778  10.542
 5884SOL     OW19483   8.046   0.374  10.211
 5884SOL    HW119484   7.951   0.381  10.200
 5884SOL    HW219485   8.058   0.362  10.306
 5885SOL     OW19486   9.918   7.961  10.204
 5885SOL    HW119487   9.940   7.922  10.119
 5885SOL    HW219488   9.959   8.047  10.203
 5886SOL     OW19489  13.196  13.818   2.303
 5886SOL    HW119490  13.194  13.909   2.272
 5886SOL    HW219491  13.284  13.787   2.280
 5887SOL     OW19492   9.773   0.655  11.250
 5887SOL    HW119493   9.832   0.620  11.317
 5887SOL    HW219494   9.712   0.709  11.299
 5888SOL     OW19495   0.444   7.911   7.329
 5888SOL    HW119496   0.431   7.823   7.364
 5888SOL    HW219497   0.535   7.932   7.351
 5889SOL     OW19498   6.813   2.917  10.392
 5889SOL    HW119499   6.897   2.924  10.346
 5889SOL    HW219500   6.797   2.822  10.397
 5890SOL     OW19501   6.187   6.774   1.706
 5890SOL    HW119502   6.094   6.798   1.699
 5890SOL    HW219503   6.203   6.767   1.800
 5891SOL     OW19504   1.284   2.600  13.354
 5891SOL    HW119505   1.363   2.547  13.348
 5891SOL    HW219506   1.242   2.589  13.268
 5892SOL     OW19507   2.801   5.882  10.248
 5892SOL    HW119508   2.894   5.861  10.244
 5892SOL    HW219509   2.780   5.881  10.341
 5893SOL     OW19510  11.918   6.659   7.530
 5893SOL    HW119511  11.873   6.707   7.599
 5893SOL    HW219512  11.864   6.673   7.452
 5894SOL     OW19513  10.030   2.250  14.750
 5894SOL    HW119514  10.002   2.178  14.693
 5894SOL    HW219515  10.121   2.230  14.771
 5895SOL     OW19516   5.939  11.709  14.788
 5895SOL    HW119517   5.887  11.640  14.830
 5895SOL    HW219518   5.878  11.749  14.725
 5896SOL     OW19519   2.216   4.979  10.734
 5896SOL    HW119520   2.258   5.052  10.779
 5896SOL    HW219521   2.216   5.005  10.642
 5897SOL     OW19522  11.151  12.684  11.968
 5897SOL    HW119523  11.192  12.709  11.886
 5897SOL    HW219524  11.222  12.689  12.033
 5898SOL     OW19525   7.196   4.471   7.914
 5898SOL    HW119526   7.124   4.443   7.856
 5898SOL    HW219527   7.193   4.411   7.988
 5899SOL     OW19528  12.428   5.841  12.808
 5899SOL    HW119529  12.397   5.751  12.803
 5899SOL    HW219530  12.422   5.864  12.900
 5900SOL     OW19531   3.280   1.455   5.210
 5900SOL    HW119532   3.258   1.454   5.303
 5900SOL    HW219533   3.196   1.443   5.166
 5901SOL     OW19534   1.102   0.333  12.661
 5901SOL    HW119535   1.071   0.271  12.595
 5901SOL    HW219536   1.024   0.381  12.688
 5902SOL     OW19537   9.247   8.704   8.544
 5902SOL    HW119538   9.156   8.727   8.524
 5902SOL    HW219539   9.295   8.725   8.464
 5903SOL     OW19540   4.562   9.632   4.926
 5903SOL    HW119541   4.552   9.620   4.832
 5903SOL    HW219542   4.608   9.553   4.955
 5904SOL     OW19543  10.289   5.584   2.390
 5904SOL    HW119544  10.321   5.570   2.301
 5904SOL    HW219545  10.222   5.652   2.381
 5905SOL     OW19546   9.590  10.526   1.599
 5905SOL    HW119547   9.644  10.591   1.555
 5905SOL    HW219548   9.506  10.529   1.553
 5906SOL     OW19549  11.423  14.782  10.787
 5906SOL    HW119550  11.381  14.861  10.752
 5906SOL    HW219551  11.452  14.808  10.875
 5907SOL     OW19552   6.471   6.992  13.730
 5907SOL    HW119553   6.526   6.938  13.673
 5907SOL    HW219554   6.390   7.004  13.681
 5908SOL     OW19555   2.198   6.779   5.242
 5908SOL    HW119556   2.255   6.725   5.187
 5908SOL    HW219557   2.114   6.779   5.198
 5909SOL     OW19558   8.052   4.763  10.567
 5909SOL    HW119559   8.013   4.813  10.495
 5909SOL    HW219560   8.073   4.678  10.528
 5910SOL     OW19561   2.347   0.094   8.178
 5910SOL    HW119562   2.357   0.110   8.272
 5910SOL    HW219563   2.284   0.160   8.150
 5911SOL     OW19564   4.697   3.432   8.376
 5911SOL    HW119565   4.684   3.526   8.389
 5911SOL    HW219566   4.792   3.421   8.372
 5912SOL     OW19567   6.182  13.189  14.008
 5912SOL    HW119568   6.217  13.218  14.092
 5912SOL    HW219569   6.249  13.213  13.944
 5913SOL     OW19570   6.653   8.111  10.860
 5913SOL    HW119571   6.695   8.185  10.903
 5913SOL    HW219572   6.643   8.045  10.929
 5914SOL     OW19573   5.742   9.092  11.272
 5914SOL    HW119574   5.774   9.168  11.223
 5914SOL    HW219575   5.797   9.019  11.242
 5915SOL     OW19576  10.436   5.479   2.632
 5915SOL    HW119577  10.352   5.446   2.667
 5915SOL    HW219578  10.411   5.538   2.561
 5916SOL     OW19579   3.385   0.373  14.564
 5916SOL    HW119580   3.426   0.287  14.573
 5916SOL    HW219581   3.451   0.435  14.596
 5917SOL     OW19582  14.671  13.204   3.045
 5917SOL    HW119583  14.733  13.151   2.997
 5917SOL    HW219584  14.689  13.294   3.016
 5918SOL     OW19585  14.101   2.747   4.570
 5918SOL    HW119586  14.140   2.660   4.581
 5918SOL    HW219587  14.054   2.762   4.652
 5919SOL     OW19588   9.097  14.559   1.855
 5919SOL    HW119589   9.004  14.568   1.877
 5919SOL    HW219590   9.135  14.644   1.877
 5920SOL     OW19591   1.488   6.943   6.070
 5920SOL    HW119592   1.520   6.856   6.043
 5920SOL    HW219593   1.559   7.003   6.047
 5921SOL     OW19594  13.324   7.960  12.006
 5921SOL    HW119595  13.344   7.890  11.943
 5921SOL    HW219596  13.232   7.948  12.028
 5922SOL     OW19597  12.915   6.373   8.295
 5922SOL    HW119598  12.844   6.309   8.292
 5922SOL    HW219599  12.974   6.340   8.363
 5923SOL     OW19600   9.123   7.128   4.340
 5923SOL    HW119601   9.050   7.138   4.279
 5923SOL    HW219602   9.134   7.214   4.380
 5924SOL     OW19603   7.539   7.316   1.660
 5924SOL    HW119604   7.591   7.392   1.633
 5924SOL    HW219605   7.479   7.301   1.587
 5925SOL     OW19606  14.705   2.849   4.734
 5925SOL    HW119607  14.724   2.943   4.734
 5925SOL    HW219608  14.621   2.841   4.779
 5926SOL     OW19609   9.921  10.062   5.162
 5926SOL    HW119610   9.961  10.145   5.136
 5926SOL    HW219611   9.988   9.996   5.145
 5927SOL     OW19612  13.799   6.397  11.802
 5927SOL    HW119613  13.724   6.396  11.743
 5927SOL    HW219614  13.763   6.428  11.885
 5928SOL     OW19615   9.241   1.672   8.636
 5928SOL    HW119616   9.280   1.606   8.693
 5928SOL    HW219617   9.262   1.756   8.677
 5929SOL     OW19618  13.294   3.723  14.474
 5929SOL    HW119619  13.360   3.654  14.469
 5929SOL    HW219620  13.257   3.714  14.562
 5930SOL     OW19621   4.232   4.584   2.156
 5930SOL    HW119622   4.184   4.666   2.155
 5930SOL    HW219623   4.167   4.518   2.133
 5931SOL     OW19624   0.065  12.141   6.612
 5931SOL    HW119625   0.008  12.066   6.629
 5931SOL    HW219626   0.009  12.217   6.625
 5932SOL     OW19627  14.662  14.742   3.631
 5932SOL    HW119628  14.706  14.724   3.714
 5932SOL    HW219629  14.587  14.682   3.630
 5933SOL     OW19630  12.923   2.972  12.738
 5933SOL    HW119631  12.901   2.906  12.672
 5933SOL    HW219632  12.850   2.968  12.800
 5934SOL     OW19633   7.664   4.260  14.858
 5934SOL    HW119634   7.580   4.215  14.844
 5934SOL    HW219635   7.655   4.298   0.070
 5935SOL     OW19636   4.263  13.494   4.369
 5935SOL    HW119637   4.332  13.427   4.364
 5935SOL    HW219638   4.284  13.543   4.448
 5936SOL     OW19639   2.249   7.364  14.591
 5936SOL    HW119640   2.305   7.439  14.608
 5936SOL    HW219641   2.165   7.402  14.566
 5937SOL     OW19642   0.188  11.988   2.906
 5937SOL    HW119643   0.143  12.028   2.831
 5937SOL    HW219644   0.225  12.062   2.954
 5938SOL     OW19645  11.065   5.597   6.998
 5938SOL    HW119646  11.105   5.602   7.085
 5938SOL    HW219647  11.138   5.606   6.938
 5939SOL     OW19648  12.466   3.722  10.203
 5939SOL    HW119649  12.557   3.694  10.191
 5939SOL    HW219650  12.415   3.660  10.151
 5940SOL     OW19651   6.106   1.863   6.498
 5940SOL    HW119652   6.011   1.866   6.510
 5940SOL    HW219653   6.132   1.778   6.532
 5941SOL     OW19654  11.445   3.830  10.062
 5941SOL    HW119655  11.535   3.820  10.092
 5941SOL    HW219656  11.392   3.800  10.136
 5942SOL     OW19657   0.993  10.411  10.667
 5942SOL    HW119658   0.957  10.397  10.579
 5942SOL    HW219659   1.037  10.328  10.688
 5943SOL     OW19660  11.242   6.038   5.339
 5943SOL    HW119661  11.169   5.977   5.329
 5943SOL    HW219662  11.234   6.070   5.429
 5944SOL     OW19663  12.889  10.187  13.513
 5944SOL    HW119664  12.848  10.263  13.471
 5944SOL    HW219665  12.927  10.138  13.441
 5945SOL     OW19666   4.347   0.850   6.162
 5945SOL    HW119667   4.297   0.908   6.104
 5945SOL    HW219668   4.397   0.794   6.104
 5946SOL     OW19669   9.179  12.661   4.381
 5946SOL    HW119670   9.190  12.741   4.432
 5946SOL    HW219671   9.256  12.608   4.402
 5947SOL     OW19672   9.178   9.332   8.530
 5947SOL    HW119673   9.100   9.358   8.579
 5947SOL    HW219674   9.250   9.346   8.591
 5948SOL     OW19675   0.731   6.110  14.758
 5948SOL    HW119676   0.722   6.019  14.727
 5948SOL    HW219677   0.678   6.112  14.838
 5949SOL     OW19678  13.490  12.414  10.134
 5949SOL    HW119679  13.449  12.371  10.209
 5949SOL    HW219680  13.437  12.492  10.119
 5950SOL     OW19681   4.591   0.358   4.170
 5950SOL    HW119682   4.665   0.301   4.186
 5950SOL    HW219683   4.630   0.444   4.153
 5951SOL     OW19684   5.916  14.817   0.113
 5951SOL    HW119685   5.918   0.036   0.107
 5951SOL    HW219686   5.960  14.797   0.195
 5952SOL     OW19687   8.063   2.283   4.902
 5952SOL    HW119688   7.975   2.276   4.864
 5952SOL    HW219689   8.105   2.351   4.851
 5953SOL     OW19690   1.904  12.323  14.380
 5953SOL    HW119691   1.811  12.300  14.376
 5953SOL    HW219692   1.916  12.356  14.470
 5954SOL     OW19693   0.827   5.173   9.700
 5954SOL    HW119694   0.921   5.152   9.692
 5954SOL    HW219695   0.813   5.243   9.636
 5955SOL     OW19696  14.075  14.261   5.378
 5955SOL    HW119697  14.012  14.189   5.384
 5955SOL    HW219698  14.057  14.315   5.455
 5956SOL     OW19699  10.250  11.488   8.502
 5956SOL    HW119700  10.333  11.534   8.490
 5956SOL    HW219701  10.252  11.458   8.593
 5957SOL     OW19702   2.886   6.966   0.497
 5957SOL    HW119703   2.980   6.983   0.505
 5957SOL    HW219704   2.877   6.872   0.515
 5958SOL     OW19705  11.555   8.964   2.799
 5958SOL    HW119706  11.546   9.052   2.836
 5958SOL    HW219707  11.578   8.979   2.708
 5959SOL     OW19708   1.448   0.494   3.073
 5959SOL    HW119709   1.519   0.481   3.010
 5959SOL    HW219710   1.470   0.576   3.117
 5960SOL     OW19711  14.578   3.018   6.055
 5960SOL    HW119712  14.537   2.993   6.137
 5960SOL    HW219713  14.545   3.106   6.036
 5961SOL     OW19714  14.628   0.851   1.410
 5961SOL    HW119715  14.711   0.806   1.399
 5961SOL    HW219716  14.580   0.797   1.473
 5962SOL     OW19717   4.823   0.992   8.497
 5962SOL    HW119718   4.858   0.964   8.413
 5962SOL    HW219719   4.892   1.045   8.536
 5963SOL     OW19720   2.295   0.395   2.888
 5963SOL    HW119721   2.234   0.331   2.849
 5963SOL    HW219722   2.299   0.371   2.980
 5964SOL     OW19723   4.484   7.977   7.646
 5964SOL    HW119724   4.461   8.061   7.606
 5964SOL    HW219725   4.461   7.912   7.580
 5965SOL     OW19726   2.122  13.434   8.007
 5965SOL    HW119727   2.085  13.522   8.006
 5965SOL    HW219728   2.173  13.428   7.926
 5966SOL     OW19729   9.249  14.712   5.221
 5966SOL    HW119730   9.214  14.768   5.152
 5966SOL    HW219731   9.175  14.658   5.249
 5967SOL     OW19732   6.302   0.261  11.248
 5967SOL    HW119733   6.294   0.227  11.338
 5967SOL    HW219734   6.304   0.356  11.259
 5968SOL     OW19735  10.325   3.028   1.168
 5968SOL    HW119736  10.250   3.039   1.227
 5968SOL    HW219737  10.357   2.940   1.186
 5969SOL     OW19738   9.369   5.116   5.011
 5969SOL    HW119739   9.401   5.172   4.940
 5969SOL    HW219740   9.283   5.086   4.981
 5970SOL     OW19741   0.734  12.939   3.690
 5970SOL    HW119742   0.662  12.926   3.752
 5970SOL    HW219743   0.692  12.977   3.613
 5971SOL     OW19744  10.281  12.557  14.670
 5971SOL    HW119745  10.263  12.472  14.709
 5971SOL    HW219746  10.207  12.612  14.695
 5972SOL     OW19747   2.690  13.003   1.375
 5972SOL    HW119748   2.659  13.003   1.466
 5972SOL    HW219749   2.750  12.929   1.370
 5973SOL     OW19750  10.713   5.331   9.905
 5973SOL    HW119751  10.677   5.402   9.852
 5973SOL    HW219752  10.667   5.252   9.875
 5974SOL     OW19753   5.272   2.322  11.272
 5974SOL    HW119754   5.334   2.392  11.290
 5974SOL    HW219755   5.317   2.242  11.299
 5975SOL     OW19756   0.201  13.583   1.750
 5975SOL    HW119757   0.248  13.578   1.833
 5975SOL    HW219758   0.215  13.673   1.720
 5976SOL     OW19759   7.238   0.088   3.846
 5976SOL    HW119760   7.285   0.011   3.879
 5976SOL    HW219761   7.265   0.159   3.904
 5977SOL     OW19762   7.537   7.219   5.215
 5977SOL    HW119763   7.502   7.222   5.126
 5977SOL    HW219764   7.544   7.310   5.242
 5978SOL     OW19765   4.265  11.167   8.032
 5978SOL    HW119766   4.332  11.157   8.100
 5978SOL    HW219767   4.265  11.083   7.986
 5979SOL     OW19768   5.746   5.045  10.024
 5979SOL    HW119769   5.686   5.047  10.098
 5979SOL    HW219770   5.823   4.998  10.056
 5980SOL     OW19771  13.082   1.375   5.856
 5980SOL    HW119772  13.036   1.294   5.880
 5980SOL    HW219773  13.111   1.360   5.766
 5981SOL     OW19774  11.125   3.564   5.918
 5981SOL    HW119775  11.105   3.476   5.949
 5981SOL    HW219776  11.128   3.556   5.823
 5982SOL     OW19777   1.295   1.501  13.297
 5982SOL    HW119778   1.206   1.504  13.334
 5982SOL    HW219779   1.292   1.561  13.223
 5983SOL     OW19780   6.782   3.094   5.670
 5983SOL    HW119781   6.874   3.067   5.670
 5983SOL    HW219782   6.739   3.033   5.729
 5984SOL     OW19783   5.215   9.355   1.748
 5984SOL    HW119784   5.273   9.297   1.796
 5984SOL    HW219785   5.205   9.314   1.662
 5985SOL     OW19786   4.482  13.142   4.988
 5985SOL    HW119787   4.469  13.174   4.898
 5985SOL    HW219788   4.497  13.048   4.978
 5986SOL     OW19789   5.438   4.765   6.077
 5986SOL    HW119790   5.431   4.685   6.024
 5986SOL    HW219791   5.530   4.768   6.103
 5987SOL     OW19792  13.670  12.740   5.874
 5987SOL    HW119793  13.631  12.797   5.940
 5987SOL    HW219794  13.681  12.796   5.797
 5988SOL     OW19795  11.473   9.842   5.558
 5988SOL    HW119796  11.491   9.770   5.618
 5988SOL    HW219797  11.380   9.832   5.536
 5989SOL     OW19798   4.654   7.887   1.539
 5989SOL    HW119799   4.567   7.923   1.557
 5989SOL    HW219800   4.664   7.816   1.602
 5990SOL     OW19801   0.200   5.961  12.528
 5990SOL    HW119802   0.132   5.912  12.480
 5990SOL    HW219803   0.282   5.926  12.494
 5991SOL     OW19804   3.376   2.774  12.642
 5991SOL    HW119805   3.461   2.789  12.684
 5991SOL    HW219806   3.323   2.733  12.711
 5992SOL     OW19807   1.420  13.864  13.476
 5992SOL    HW119808   1.446  13.941  13.526
 5992SOL    HW219809   1.332  13.843  13.509
 5993SOL     OW19810   1.275   9.916   7.540
 5993SOL    HW119811   1.313   9.849   7.482
 5993SOL    HW219812   1.289   9.881   7.628
 5994SOL     OW19813  12.643   8.975   7.013
 5994SOL    HW119814  12.718   8.959   7.071
 5994SOL    HW219815  12.575   9.010   7.071
 5995SOL     OW19816  11.320   5.693  14.550
 5995SOL    HW119817  11.229   5.711  14.527
 5995SOL    HW219818  11.354   5.777  14.581
 5996SOL     OW19819   3.296   8.772  11.285
 5996SOL    HW119820   3.283   8.696  11.341
 5996SOL    HW219821   3.373   8.750  11.232
 5997SOL     OW19822   9.529  10.917   0.574
 5997SOL    HW119823   9.538  10.965   0.492
 5997SOL    HW219824   9.478  10.840   0.551
 5998SOL     OW19825   1.211   0.092  14.621
 5998SOL    HW119826   1.257   0.098  14.537
 5998SOL    HW219827   1.279   0.110  14.686
 5999SOL     OW19828   1.052  11.938   1.977
 5999SOL    HW119829   0.967  11.966   2.011
 5999SOL    HW219830   1.063  11.849   2.009
 6000SOL     OW19831   5.949   4.159   6.612
 6000SOL    HW119832   5.920   4.070   6.593
 6000SOL    HW219833   6.036   4.165   6.573
 6001SOL     OW19834   2.272   3.563   4.619
 6001SOL    HW119835   2.271   3.468   4.607
 6001SOL    HW219836   2.182   3.591   4.600
 6002SOL     OW19837   4.956  14.219   6.139
 6002SOL    HW119838   4.945  14.128   6.166
 6002SOL    HW219839   5.048  14.225   6.111
 6003SOL     OW19840   0.481  14.106  12.081
 6003SOL    HW119841   0.457  14.072  12.168
 6003SOL    HW219842   0.493  14.027  12.028
 6004SOL     OW19843  14.765  12.247   3.949
 6004SOL    HW119844  14.695  12.233   3.885
 6004SOL    HW219845  14.811  12.163   3.952
 6005SOL     OW19846   1.180  10.658   4.200
 6005SOL    HW119847   1.145  10.589   4.144
 6005SOL    HW219848   1.128  10.736   4.178
 6006SOL     OW19849   3.010  13.213   2.680
 6006SOL    HW119850   3.100  13.199   2.651
 6006SOL    HW219851   3.007  13.305   2.705
 6007SOL     OW19852   0.189   8.576   2.237
 6007SOL    HW119853   0.257   8.508   2.239
 6007SOL    HW219854   0.115   8.534   2.193
 6008SOL     OW19855  12.575   1.950   2.917
 6008SOL    HW119856  12.528   1.987   2.842
 6008SOL    HW219857  12.510   1.895   2.961
 6009SOL     OW19858   8.425  10.451   4.070
 6009SOL    HW119859   8.333  10.457   4.096
 6009SOL    HW219860   8.439  10.526   4.012
 6010SOL     OW19861  14.150  13.607   4.736
 6010SOL    HW119862  14.101  13.567   4.808
 6010SOL    HW219863  14.091  13.674   4.702
 6011SOL     OW19864   9.082  13.903   6.692
 6011SOL    HW119865   9.097  13.935   6.604
 6011SOL    HW219866   9.071  13.808   6.682
 6012SOL     OW19867   5.440   9.612   0.007
 6012SOL    HW119868   5.449   9.523  14.850
 6012SOL    HW219869   5.365   9.648  14.836
 6013SOL     OW19870   8.767  13.815  13.777
 6013SOL    HW119871   8.793  13.773  13.859
 6013SOL    HW219872   8.831  13.785  13.713
 6014SOL     OW19873   6.909   1.768   1.896
 6014SOL    HW119874   6.852   1.802   1.965
 6014SOL    HW219875   6.870   1.683   1.873
 6015SOL     OW19876   5.561   6.437   0.856
 6015SOL    HW119877   5.649   6.419   0.888
 6015SOL    HW219878   5.533   6.514   0.904
 6016SOL     OW19879   5.519   4.094   1.359
 6016SOL    HW119880   5.559   4.169   1.314
 6016SOL    HW219881   5.458   4.133   1.422
 6017SOL     OW19882   0.130   5.392  13.303
 6017SOL    HW119883   0.157   5.387  13.395
 6017SOL    HW219884   0.155   5.480  13.276
 6018SOL     OW19885   9.519   9.745   9.480
 6018SOL    HW119886   9.587   9.803   9.515
 6018SOL    HW219887   9.452   9.804   9.446
 6019SOL     OW19888  14.061   6.527   8.996
 6019SOL    HW119889  14.015   6.584   9.057
 6019SOL    HW219890  14.023   6.547   8.911
 6020SOL     OW19891   3.182   0.565   4.407
 6020SOL    HW119892   3.125   0.491   4.426
 6020SOL    HW219893   3.214   0.548   4.318
 6021SOL     OW19894   9.850  14.351   3.900
 6021SOL    HW119895   9.832  14.345   3.806
 6021SOL    HW219896   9.802  14.429   3.927
 6022SOL     OW19897  11.389   0.945  12.122
 6022SOL    HW119898  11.297   0.924  12.102
 6022SOL    HW219899  11.410   0.891  12.198
 6023SOL     OW19900   5.209   6.168   7.205
 6023SOL    HW119901   5.282   6.191   7.262
 6023SOL    HW219902   5.132   6.171   7.262
 6024SOL     OW19903   9.254   1.361  14.130
 6024SOL    HW119904   9.225   1.445  14.095
 6024SOL    HW219905   9.193   1.298  14.092
 6025SOL     OW19906   0.367  14.869   3.668
 6025SOL    HW119907   0.447  14.852   3.619
 6025SOL    HW219908   0.348  14.787   3.713
 6026SOL     OW19909  12.557   2.554  10.991
 6026SOL    HW119910  12.477   2.605  10.978
 6026SOL    HW219911  12.615   2.613  11.039
 6027SOL     OW19912   7.959   1.985   3.770
 6027SOL    HW119913   7.875   2.013   3.732
 6027SOL    HW219914   7.935   1.931   3.845
 6028SOL     OW19915   1.904   1.132   2.447
 6028SOL    HW119916   1.993   1.166   2.436
 6028SOL    HW219917   1.863   1.145   2.362
 6029SOL     OW19918  13.692   5.625   5.462
 6029SOL    HW119919  13.728   5.653   5.546
 6029SOL    HW219920  13.604   5.594   5.484
 6030SOL     OW19921   9.312  10.954  12.632
 6030SOL    HW119922   9.396  10.942  12.677
 6030SOL    HW219923   9.250  10.977  12.701
 6031SOL     OW19924   5.583  13.902   3.414
 6031SOL    HW119925   5.638  13.929   3.488
 6031SOL    HW219926   5.625  13.942   3.338
 6032SOL     OW19927  14.052   5.586   6.853
 6032SOL    HW119928  14.142   5.621   6.849
 6032SOL    HW219929  14.052   5.529   6.930
 6033SOL     OW19930  13.667   8.559   9.769
 6033SOL    HW119931  13.679   8.531   9.860
 6033SOL    HW219932  13.583   8.606   9.769
 6034SOL     OW19933   0.628   7.247   4.419
 6034SOL    HW119934   0.561   7.227   4.354
 6034SOL    HW219935   0.699   7.185   4.401
 6035SOL     OW19936   4.116   5.993  12.767
 6035SOL    HW119937   4.052   6.057  12.739
 6035SOL    HW219938   4.101   5.917  12.711
 6036SOL     OW19939   8.579   2.806  13.369
 6036SOL    HW119940   8.616   2.877  13.423
 6036SOL    HW219941   8.574   2.843  13.281
 6037SOL     OW19942  11.540  11.941   5.868
 6037SOL    HW119943  11.535  12.036   5.875
 6037SOL    HW219944  11.533  11.910   5.959
 6038SOL     OW19945  13.128  14.662   2.276
 6038SOL    HW119946  13.192  14.591   2.271
 6038SOL    HW219947  13.058  14.628   2.332
 6039SOL     OW19948   2.816   1.497  14.447
 6039SOL    HW119949   2.772   1.578  14.474
 6039SOL    HW219950   2.795   1.487  14.354
 6040SOL     OW19951   6.294  11.055   1.162
 6040SOL    HW119952   6.238  11.120   1.204
 6040SOL    HW219953   6.242  11.019   1.091
 6041SOL     OW19954   2.990   7.404   3.033
 6041SOL    HW119955   3.052   7.467   3.071
 6041SOL    HW219956   2.920   7.396   3.099
 6042SOL     OW19957   1.983   2.775   2.592
 6042SOL    HW119958   2.032   2.811   2.666
 6042SOL    HW219959   1.911   2.837   2.578
 6043SOL     OW19960  11.023   3.877  12.245
 6043SOL    HW119961  10.945   3.903  12.293
 6043SOL    HW219962  11.061   3.806  12.298
 6044SOL     OW19963   6.304   1.217  13.415
 6044SOL    HW119964   6.220   1.200  13.371
 6044SOL    HW219965   6.296   1.172  13.500
 6045SOL     OW19966  11.952   0.335   0.543
 6045SOL    HW119967  11.954   0.280   0.465
 6045SOL    HW219968  11.986   0.420   0.513
 6046SOL     OW19969  11.985  13.324   3.264
 6046SOL    HW119970  11.994  13.399   3.323
 6046SOL    HW219971  12.015  13.356   3.179
 6047SOL     OW19972  12.826   8.001   1.405
 6047SOL    HW119973  12.740   8.037   1.383
 6047SOL    HW219974  12.850   7.947   1.329
 6048SOL     OW19975   2.499  13.763  10.773
 6048SOL    HW119976   2.483  13.826  10.844
 6048SOL    HW219977   2.435  13.786  10.706
 6049SOL     OW19978   6.868  11.438  10.878
 6049SOL    HW119979   6.881  11.500  10.950
 6049SOL    HW219980   6.931  11.368  10.894
 6050SOL     OW19981  10.674  13.981  13.630
 6050SOL    HW119982  10.742  13.950  13.570
 6050SOL    HW219983  10.722  14.029  13.698
 6051SOL     OW19984   4.470   6.056   4.031
 6051SOL    HW119985   4.487   5.984   3.970
 6051SOL    HW219986   4.414   6.017   4.099
 6052SOL     OW19987  11.791   1.336   6.694
 6052SOL    HW119988  11.824   1.385   6.619
 6052SOL    HW219989  11.805   1.393   6.769
 6053SOL     OW19990   5.918   1.915   3.195
 6053SOL    HW119991   5.856   1.843   3.181
 6053SOL    HW219992   5.988   1.899   3.132
 6054SOL     OW19993  10.401   5.055  10.851
 6054SOL    HW119994  10.313   5.084  10.873
 6054SOL    HW219995  10.429   5.005  10.928
 6055SOL     OW19996  13.222  10.055   4.877
 6055SOL    HW119997  13.139  10.103   4.885
 6055SOL    HW219998  13.237  10.020   4.965
 6056SOL     OW19999  14.433   5.520   0.509
 6056SOL    HW120000  14.504   5.583   0.499
 6056SOL    HW220001  14.445   5.459   0.436
 6057SOL     OW20002   9.588  14.685   4.841
 6057SOL    HW120003   9.514  14.742   4.860
 6057SOL    HW220004   9.548  14.605   4.807
 6058SOL     OW20005   7.630   1.443   5.876
 6058SOL    HW120006   7.717   1.441   5.835
 6058SOL    HW220007   7.597   1.531   5.859
 6059SOL     OW20008  13.529  12.901   7.813
 6059SOL    HW120009  13.492  12.853   7.887
 6059SOL    HW220010  13.479  12.872   7.737
 6060SOL     OW20011   6.306   7.052  12.050
 6060SOL    HW120012   6.225   7.072  12.098
 6060SOL    HW220013   6.368   7.026  12.119
 6061SOL     OW20014   9.311   1.502   4.632
 6061SOL    HW120015   9.237   1.442   4.627
 6061SOL    HW220016   9.284   1.579   4.582
 6062SOL     OW20017  11.236   6.340   4.360
 6062SOL    HW120018  11.200   6.416   4.313
 6062SOL    HW220019  11.309   6.375   4.410
 6063SOL     OW20020  13.485   9.831  11.558
 6063SOL    HW120021  13.516   9.813  11.469
 6063SOL    HW220022  13.392   9.852  11.548
 6064SOL     OW20023  11.516   4.382  13.345
 6064SOL    HW120024  11.528   4.436  13.423
 6064SOL    HW220025  11.603   4.378  13.305
 6065SOL     OW20026   6.208  10.598   7.649
 6065SOL    HW120027   6.242  10.557   7.729
 6065SOL    HW220028   6.257  10.556   7.578
 6066SOL     OW20029  10.110   4.665  13.148
 6066SOL    HW120030  10.061   4.627  13.075
 6066SOL    HW220031  10.186   4.607  13.158
 6067SOL     OW20032  14.625   1.217   0.856
 6067SOL    HW120033  14.710   1.261   0.852
 6067SOL    HW220034  14.600   1.219   0.948
 6068SOL     OW20035   4.069   1.872   0.368
 6068SOL    HW120036   4.085   1.891   0.276
 6068SOL    HW220037   4.067   1.958   0.411
 6069SOL     OW20038  12.252   2.347   2.764
 6069SOL    HW120039  12.313   2.395   2.820
 6069SOL    HW220040  12.244   2.400   2.685
 6070SOL     OW20041   8.460   3.469  14.158
 6070SOL    HW120042   8.432   3.400  14.099
 6070SOL    HW220043   8.511   3.529  14.103
 6071SOL     OW20044  13.663  11.795   1.310
 6071SOL    HW120045  13.744  11.846   1.317
 6071SOL    HW220046  13.667  11.755   1.223
 6072SOL     OW20047   9.020   6.340  10.815
 6072SOL    HW120048   9.027   6.435  10.815
 6072SOL    HW220049   9.005   6.317  10.907
 6073SOL     OW20050   4.368  14.284   8.079
 6073SOL    HW120051   4.352  14.295   7.985
 6073SOL    HW220052   4.449  14.233   8.084
 6074SOL     OW20053   9.938  10.439  10.140
 6074SOL    HW120054   9.862  10.404  10.094
 6074SOL    HW220055   9.937  10.533  10.123
 6075SOL     OW20056  12.302   0.879   5.917
 6075SOL    HW120057  12.254   0.813   5.967
 6075SOL    HW220058  12.250   0.891   5.838
 6076SOL     OW20059   6.975  12.675   8.493
 6076SOL    HW120060   6.914  12.717   8.553
 6076SOL    HW220061   7.001  12.594   8.537
 6077SOL     OW20062   9.502   3.414  12.858
 6077SOL    HW120063   9.438   3.485  12.856
 6077SOL    HW220064   9.454   3.338  12.823
 6078SOL     OW20065   2.067   5.017   0.680
 6078SOL    HW120066   2.107   5.036   0.764
 6078SOL    HW220067   2.033   5.101   0.650
 6079SOL     OW20068   9.867  11.678   6.231
 6079SOL    HW120069   9.928  11.636   6.292
 6079SOL    HW220070   9.825  11.747   6.283
 6080SOL     OW20071   5.105   7.454   2.840
 6080SOL    HW120072   5.173   7.431   2.904
 6080SOL    HW220073   5.026   7.467   2.893
 6081SOL     OW20074  13.937   5.655   0.776
 6081SOL    HW120075  13.865   5.711   0.805
 6081SOL    HW220076  13.938   5.664   0.681
 6082SOL     OW20077  12.205  12.479  10.641
 6082SOL    HW120078  12.153  12.427  10.579
 6082SOL    HW220079  12.285  12.501  10.592
 6083SOL     OW20080   8.179   7.833   0.067
 6083SOL    HW120081   8.190   7.746   0.030
 6083SOL    HW220082   8.219   7.892   0.002
 6084SOL     OW20083   9.495   9.198   1.662
 6084SOL    HW120084   9.441   9.267   1.699
 6084SOL    HW220085   9.497   9.216   1.568
 6085SOL     OW20086  14.182   2.849  13.167
 6085SOL    HW120087  14.230   2.880  13.244
 6085SOL    HW220088  14.206   2.910  13.097
 6086SOL     OW20089   5.995   6.743   3.658
 6086SOL    HW120090   5.928   6.710   3.599
 6086SOL    HW220091   6.072   6.757   3.603
 6087SOL     OW20092   3.224   4.882  14.134
 6087SOL    HW120093   3.174   4.875  14.215
 6087SOL    HW220094   3.298   4.823  14.147
 6088SOL     OW20095  11.847  10.794  10.438
 6088SOL    HW120096  11.926  10.841  10.411
 6088SOL    HW220097  11.874  10.703  10.448
 6089SOL     OW20098   8.687   5.874   7.697
 6089SOL    HW120099   8.651   5.819   7.628
 6089SOL    HW220100   8.617   5.883   7.761
 6090SOL     OW20101   0.822   0.483  12.959
 6090SOL    HW120102   0.840   0.460  12.867
 6090SOL    HW220103   0.742   0.435  12.980
 6091SOL     OW20104   1.518  10.862   3.607
 6091SOL    HW120105   1.437  10.820   3.578
 6091SOL    HW220106   1.541  10.816   3.688
 6092SOL     OW20107   9.237  13.218   0.946
 6092SOL    HW120108   9.305  13.253   1.004
 6092SOL    HW220109   9.242  13.271   0.867
 6093SOL     OW20110   7.804  12.778  12.633
 6093SOL    HW120111   7.727  12.790  12.689
 6093SOL    HW220112   7.789  12.836  12.559
 6094SOL     OW20113  10.909  11.492  14.611
 6094SOL    HW120114  10.926  11.421  14.550
 6094SOL    HW220115  10.957  11.468  14.691
 6095SOL     OW20116   6.417   5.779  12.941
 6095SOL    HW120117   6.379   5.866  12.945
 6095SOL    HW220118   6.467   5.778  12.860
 6096SOL     OW20119  11.602   9.446  14.002
 6096SOL    HW120120  11.638   9.358  14.019
 6096SOL    HW220121  11.672   9.506  14.027
 6097SOL     OW20122   1.203  12.093  12.262
 6097SOL    HW120123   1.134  12.041  12.303
 6097SOL    HW220124   1.200  12.177  12.308
 6098SOL     OW20125   7.578   1.614  11.444
 6098SOL    HW120126   7.538   1.601  11.530
 6098SOL    HW220127   7.670   1.634  11.463
 6099SOL     OW20128   4.093  14.284   2.526
 6099SOL    HW120129   4.064  14.197   2.498
 6099SOL    HW220130   4.017  14.321   2.570
 6100SOL     OW20131   4.769  14.793  12.496
 6100SOL    HW120132   4.840  14.847  12.533
 6100SOL    HW220133   4.778  14.803  12.402
 6101SOL     OW20134   3.926   3.890   1.672
 6101SOL    HW120135   3.862   3.845   1.617
 6101SOL    HW220136   3.903   3.983   1.665
 6102SOL     OW20137   4.670   7.530   5.526
 6102SOL    HW120138   4.696   7.619   5.551
 6102SOL    HW220139   4.677   7.529   5.431
 6103SOL     OW20140   8.504   0.959   0.774
 6103SOL    HW120141   8.599   0.970   0.768
 6103SOL    HW220142   8.492   0.866   0.791
 6104SOL     OW20143  13.751  11.128   7.009
 6104SOL    HW120144  13.667  11.172   6.998
 6104SOL    HW220145  13.814  11.185   6.965
 6105SOL     OW20146   6.656   6.249  10.909
 6105SOL    HW120147   6.595   6.274  10.840
 6105SOL    HW220148   6.703   6.329  10.931
 6106SOL     OW20149   8.814  13.698   9.709
 6106SOL    HW120150   8.854  13.618   9.742
 6106SOL    HW220151   8.882  13.765   9.720
 6107SOL     OW20152   6.574  10.162   4.769
 6107SOL    HW120153   6.584  10.173   4.863
 6107SOL    HW220154   6.608  10.074   4.751
 6108SOL     OW20155   6.394   9.140  14.743
 6108SOL    HW120156   6.384   9.115  14.835
 6108SOL    HW220157   6.358   9.066  14.694
 6109SOL     OW20158   5.593   7.006   0.662
 6109SOL    HW120159   5.535   7.059   0.717
 6109SOL    HW220160   5.590   7.049   0.577
 6110SOL     OW20161   8.446  13.180  13.221
 6110SOL    HW120162   8.451  13.093  13.261
 6110SOL    HW220163   8.535  13.213  13.224
 6111SOL     OW20164  11.210   0.234  13.970
 6111SOL    HW120165  11.127   0.267  14.004
 6111SOL    HW220166  11.191   0.145  13.941
 6112SOL     OW20167   4.242   1.888  11.112
 6112SOL    HW120168   4.321   1.854  11.069
 6112SOL    HW220169   4.272   1.919  11.197
 6113SOL     OW20170   3.802   5.442   9.174
 6113SOL    HW120171   3.850   5.360   9.169
 6113SOL    HW220172   3.852   5.495   9.236
 6114SOL     OW20173   7.957  13.033  14.000
 6114SOL    HW120174   7.885  13.021  13.938
 6114SOL    HW220175   7.959  12.952  14.050
 6115SOL     OW20176  12.765  13.345  14.258
 6115SOL    HW120177  12.784  13.347  14.351
 6115SOL    HW220178  12.712  13.423  14.241
 6116SOL     OW20179   2.985   2.210   6.176
 6116SOL    HW120180   2.948   2.262   6.247
 6116SOL    HW220181   2.919   2.141   6.160
 6117SOL     OW20182  12.544  10.842   3.868
 6117SOL    HW120183  12.541  10.848   3.963
 6117SOL    HW220184  12.566  10.751   3.850
 6118SOL     OW20185   9.033   1.801  13.296
 6118SOL    HW120186   9.061   1.729  13.353
 6118SOL    HW220187   8.940   1.812  13.315
 6119SOL     OW20188   0.896  12.663  13.894
 6119SOL    HW120189   0.807  12.698  13.890
 6119SOL    HW220190   0.901  12.620  13.979
 6120SOL     OW20191   7.670   1.844   9.918
 6120SOL    HW120192   7.637   1.896   9.845
 6120SOL    HW220193   7.621   1.762   9.914
 6121SOL     OW20194   2.334   8.450   6.920
 6121SOL    HW120195   2.302   8.497   6.996
 6121SOL    HW220196   2.322   8.357   6.941
 6122SOL     OW20197   1.058   9.795   4.678
 6122SOL    HW120198   1.008   9.735   4.733
 6122SOL    HW220199   1.036   9.770   4.588
 6123SOL     OW20200   6.571   7.942   5.184
 6123SOL    HW120201   6.499   8.003   5.201
 6123SOL    HW220202   6.533   7.875   5.128
 6124SOL     OW20203   9.688  14.454  10.499
 6124SOL    HW120204   9.754  14.385  10.500
 6124SOL    HW220205   9.737  14.534  10.516
 6125SOL     OW20206  13.042  11.085   7.949
 6125SOL    HW120207  13.123  11.037   7.963
 6125SOL    HW220208  12.974  11.030   7.989
 6126SOL     OW20209   4.901   2.599   6.624
 6126SOL    HW120210   4.991   2.578   6.651
 6126SOL    HW220211   4.873   2.667   6.686
 6127SOL     OW20212   9.536   4.444  14.411
 6127SOL    HW120213   9.592   4.367  14.416
 6127SOL    HW220214   9.554   4.481  14.324
 6128SOL     OW20215  10.403   5.294   5.584
 6128SOL    HW120216  10.447   5.244   5.654
 6128SOL    HW220217  10.315   5.310   5.618
 6129SOL     OW20218   1.108  14.502   5.782
 6129SOL    HW120219   1.019  14.499   5.746
 6129SOL    HW220220   1.149  14.420   5.751
 6130SOL     OW20221   0.005   6.981  14.756
 6130SOL    HW120222  14.794   6.942  14.748
 6130SOL    HW220223   0.066   6.908  14.740
 6131SOL     OW20224   4.082   7.403   0.231
 6131SOL    HW120225   4.162   7.351   0.225
 6131SOL    HW220226   4.058   7.401   0.324
 6132SOL     OW20227   2.881   9.838  13.528
 6132SOL    HW120228   2.869   9.898  13.603
 6132SOL    HW220229   2.865   9.751  13.564
 6133SOL     OW20230   5.732   1.844  11.593
 6133SOL    HW120231   5.819   1.808  11.574
 6133SOL    HW220232   5.709   1.893  11.514
 6134SOL     OW20233  14.128   0.502  14.085
 6134SOL    HW120234  14.101   0.474  13.997
 6134SOL    HW220235  14.185   0.432  14.116
 6135SOL     OW20236  11.782   6.042   2.234
 6135SOL    HW120237  11.753   6.031   2.325
 6135SOL    HW220238  11.838   5.966   2.217
 6136SOL     OW20239   8.729   5.000   9.910
 6136SOL    HW120240   8.686   4.914   9.917
 6136SOL    HW220241   8.720   5.023   9.818
 6137SOL     OW20242   1.931  10.241   9.210
 6137SOL    HW120243   1.871  10.190   9.155
 6137SOL    HW220244   1.918  10.206   9.298
 6138SOL     OW20245   6.285  11.709   9.514
 6138SOL    HW120246   6.225  11.647   9.474
 6138SOL    HW220247   6.292  11.681   9.605
 6139SOL     OW20248  14.664  14.554  13.128
 6139SOL    HW120249  14.672  14.465  13.094
 6139SOL    HW220250  14.644  14.607  13.051
 6140SOL     OW20251   3.771  13.666   1.049
 6140SOL    HW120252   3.825  13.723   0.994
 6140SOL    HW220253   3.717  13.726   1.100
 6141SOL     OW20254  14.027  13.328   7.082
 6141SOL    HW120255  14.048  13.323   6.989
 6141SOL    HW220256  13.932  13.319   7.086
 6142SOL     OW20257   8.134   4.667   0.936
 6142SOL    HW120258   8.114   4.591   0.991
 6142SOL    HW220259   8.102   4.642   0.849
 6143SOL     OW20260  14.023   3.141  12.878
 6143SOL    HW120261  13.940   3.137  12.925
 6143SOL    HW220262  14.034   3.053  12.843
 6144SOL     OW20263  11.708   0.717   8.721
 6144SOL    HW120264  11.738   0.801   8.685
 6144SOL    HW220265  11.723   0.726   8.816
 6145SOL     OW20266   1.854   9.695   0.935
 6145SOL    HW120267   1.928   9.729   0.985
 6145SOL    HW220268   1.779   9.704   0.994
 6146SOL     OW20269  10.589  10.025   7.013
 6146SOL    HW120270  10.642  10.082   7.070
 6146SOL    HW220271  10.526  10.084   6.972
 6147SOL     OW20272  11.344   3.134  10.252
 6147SOL    HW120273  11.264   3.095  10.216
 6147SOL    HW220274  11.360   3.211  10.197
 6148SOL     OW20275  10.435   1.901   4.776
 6148SOL    HW120276  10.455   1.845   4.851
 6148SOL    HW220277  10.472   1.986   4.798
 6149SOL     OW20278   6.412   5.101   1.111
 6149SOL    HW120279   6.353   5.171   1.139
 6149SOL    HW220280   6.479   5.096   1.180
 6150SOL     OW20281   5.607   4.345   7.524
 6150SOL    HW120282   5.611   4.276   7.590
 6150SOL    HW220283   5.698   4.371   7.510
 6151SOL     OW20284  12.424   1.416   1.457
 6151SOL    HW120285  12.508   1.382   1.488
 6151SOL    HW220286  12.389   1.345   1.403
 6152SOL     OW20287   8.726   4.263   8.744
 6152SOL    HW120288   8.728   4.168   8.754
 6152SOL    HW220289   8.689   4.296   8.825
 6153SOL     OW20290  10.819  13.320   5.960
 6153SOL    HW120291  10.756  13.272   6.014
 6153SOL    HW220292  10.789  13.307   5.871
 6154SOL     OW20293   0.251   9.796  11.908
 6154SOL    HW120294   0.340   9.825  11.890
 6154SOL    HW220295   0.261   9.712  11.952
 6155SOL     OW20296  12.862   0.093   5.742
 6155SOL    HW120297  12.913   0.164   5.783
 6155SOL    HW220298  12.783   0.087   5.796
 6156SOL     OW20299   8.568   9.580  10.833
 6156SOL    HW120300   8.527   9.520  10.770
 6156SOL    HW220301   8.623   9.523  10.887
 6157SOL     OW20302   8.359   4.584   3.003
 6157SOL    HW120303   8.270   4.607   2.974
 6157SOL    HW220304   8.394   4.530   2.931
 6158SOL     OW20305  12.239   9.484   8.007
 6158SOL    HW120306  12.213   9.574   7.991
 6158SOL    HW220307  12.323   9.490   8.051
 6159SOL     OW20308   3.036   7.300  10.977
 6159SOL    HW120309   3.131   7.297  10.971
 6159SOL    HW220310   3.017   7.308  11.070
 6160SOL     OW20311   6.056  13.271  14.300
 6160SOL    HW120312   6.036  13.335  14.231
 6160SOL    HW220313   5.980  13.274  14.358
 6161SOL     OW20314   7.451   3.949   5.018
 6161SOL    HW120315   7.407   4.035   5.020
 6161SOL    HW220316   7.496   3.944   5.103
 6162SOL     OW20317   1.385  11.398   6.328
 6162SOL    HW120318   1.391  11.451   6.408
 6162SOL    HW220319   1.316  11.334   6.347
 6163SOL     OW20320   9.255  14.485  14.566
 6163SOL    HW120321   9.348  14.497  14.547
 6163SOL    HW220322   9.226  14.419  14.503
 6164SOL     OW20323   7.764  10.161   2.833
 6164SOL    HW120324   7.816  10.234   2.801
 6164SOL    HW220325   7.736  10.188   2.920
 6165SOL     OW20326   3.180  14.523   6.597
 6165SOL    HW120327   3.110  14.531   6.533
 6165SOL    HW220328   3.171  14.434   6.632
 6166SOL     OW20329   4.454   2.716   8.039
 6166SOL    HW120330   4.505   2.779   7.987
 6166SOL    HW220331   4.391   2.680   7.977
 6167SOL     OW20332   4.554   8.386   3.795
 6167SOL    HW120333   4.588   8.380   3.705
 6167SOL    HW220334   4.606   8.323   3.844
 6168SOL     OW20335   8.071   8.265   7.086
 6168SOL    HW120336   8.011   8.202   7.046
 6168SOL    HW220337   8.015   8.321   7.139
 6169SOL     OW20338   8.488   5.754   3.808
 6169SOL    HW120339   8.414   5.802   3.772
 6169SOL    HW220340   8.531   5.816   3.867
 6170SOL     OW20341  14.129   3.587   8.668
 6170SOL    HW120342  14.071   3.600   8.592
 6170SOL    HW220343  14.100   3.651   8.732
 6171SOL     OW20344   3.852  10.128  11.767
 6171SOL    HW120345   3.854  10.033  11.767
 6171SOL    HW220346   3.922  10.154  11.827
 6172SOL     OW20347   0.590   7.578  12.630
 6172SOL    HW120348   0.577   7.603  12.721
 6172SOL    HW220349   0.567   7.657  12.580
 6173SOL     OW20350   4.445   0.533   6.426
 6173SOL    HW120351   4.427   0.625   6.407
 6173SOL    HW220352   4.371   0.505   6.481
 6174SOL     OW20353  12.277   1.239   5.579
 6174SOL    HW120354  12.249   1.171   5.518
 6174SOL    HW220355  12.212   1.237   5.649
 6175SOL     OW20356  10.270  10.810   7.299
 6175SOL    HW120357  10.298  10.893   7.261
 6175SOL    HW220358  10.191  10.786   7.250
 6176SOL     OW20359  14.684  13.620   0.959
 6176SOL    HW120360  14.639  13.643   1.040
 6176SOL    HW220361  14.641  13.673   0.892
 6177SOL     OW20362   1.638  11.815   3.377
 6177SOL    HW120363   1.711  11.792   3.434
 6177SOL    HW220364   1.662  11.900   3.341
 6178SOL     OW20365   4.867  14.374   0.508
 6178SOL    HW120366   4.864  14.429   0.586
 6178SOL    HW220367   4.895  14.288   0.540
 6179SOL     OW20368   7.615   7.795  12.480
 6179SOL    HW120369   7.540   7.775  12.424
 6179SOL    HW220370   7.591   7.875  12.525
 6180SOL     OW20371   3.022  12.875  11.001
 6180SOL    HW120372   2.939  12.827  11.008
 6180SOL    HW220373   3.089  12.807  10.996
 6181SOL     OW20374   1.115   6.914   6.589
 6181SOL    HW120375   1.138   6.891   6.498
 6181SOL    HW220376   1.051   6.984   6.580
 6182SOL     OW20377   9.672   7.202   7.741
 6182SOL    HW120378   9.624   7.129   7.701
 6182SOL    HW220379   9.757   7.202   7.699
 6183SOL     OW20380  11.206   0.909   2.850
 6183SOL    HW120381  11.200   0.877   2.940
 6183SOL    HW220382  11.210   1.005   2.858
 6184SOL     OW20383   2.159  10.506   8.382
 6184SOL    HW120384   2.205  10.427   8.352
 6184SOL    HW220385   2.190  10.576   8.324
 6185SOL     OW20386  10.562   3.651   9.841
 6185SOL    HW120387  10.524   3.641   9.753
 6185SOL    HW220388  10.624   3.579   9.849
 6186SOL     OW20389  12.275   5.602   9.396
 6186SOL    HW120390  12.207   5.606   9.462
 6186SOL    HW220391  12.342   5.663   9.427
 6187SOL     OW20392   5.814  14.040  10.684
 6187SOL    HW120393   5.762  13.976  10.732
 6187SOL    HW220394   5.898  14.042  10.728
 6188SOL     OW20395  11.112  11.429   1.655
 6188SOL    HW120396  11.179  11.392   1.598
 6188SOL    HW220397  11.157  11.446   1.738
 6189SOL     OW20398  11.553  14.458   2.412
 6189SOL    HW120399  11.465  14.422   2.402
 6189SOL    HW220400  11.558  14.488   2.502
 6190SOL     OW20401   5.393  13.625   4.122
 6190SOL    HW120402   5.366  13.535   4.102
 6190SOL    HW220403   5.430  13.657   4.041
 6191SOL     OW20404  10.491  12.079   6.025
 6191SOL    HW120405  10.471  12.017   5.955
 6191SOL    HW220406  10.476  12.030   6.106
 6192SOL     OW20407   7.360   0.916  11.333
 6192SOL    HW120408   7.339   0.882  11.246
 6192SOL    HW220409   7.325   0.850  11.393
 6193SOL     OW20410   0.196   2.343   5.395
 6193SOL    HW120411   0.160   2.402   5.328
 6193SOL    HW220412   0.173   2.256   5.364
 6194SOL     OW20413   7.655  13.460   3.608
 6194SOL    HW120414   7.662  13.496   3.519
 6194SOL    HW220415   7.567  13.486   3.637
 6195SOL     OW20416   0.706   8.242   4.924
 6195SOL    HW120417   0.797   8.224   4.948
 6195SOL    HW220418   0.696   8.202   4.837
 6196SOL     OW20419   0.477   4.814   6.833
 6196SOL    HW120420   0.403   4.758   6.855
 6196SOL    HW220421   0.493   4.797   6.740
 6197SOL     OW20422  12.001   8.668  13.867
 6197SOL    HW120423  12.028   8.581  13.896
 6197SOL    HW220424  12.073   8.725  13.894
 6198SOL     OW20425   7.489  10.956   7.237
 6198SOL    HW120426   7.402  10.931   7.267
 6198SOL    HW220427   7.476  11.037   7.188
 6199SOL     OW20428   4.073   4.453  10.754
 6199SOL    HW120429   4.083   4.522  10.819
 6199SOL    HW220430   4.160   4.415  10.745
 6200SOL     OW20431  11.312   5.573   2.816
 6200SOL    HW120432  11.248   5.508   2.846
 6200SOL    HW220433  11.356   5.602   2.896
 6201SOL     OW20434   6.109  11.023   1.916
 6201SOL    HW120435   6.203  11.022   1.936
 6201SOL    HW220436   6.105  11.011   1.821
 6202SOL     OW20437  11.655  10.695   3.772
 6202SOL    HW120438  11.641  10.687   3.866
 6202SOL    HW220439  11.745  10.664   3.758
 6203SOL     OW20440   5.386   4.185   6.212
 6203SOL    HW120441   5.385   4.105   6.159
 6203SOL    HW220442   5.294   4.207   6.225
 6204SOL     OW20443  10.774   4.886   7.940
 6204SOL    HW120444  10.699   4.841   7.978
 6204SOL    HW220445  10.743   4.975   7.923
 6205SOL     OW20446  10.108  12.090   2.923
 6205SOL    HW120447  10.182  12.144   2.893
 6205SOL    HW220448  10.070  12.139   2.996
 6206SOL     OW20449  11.461  12.606   4.774
 6206SOL    HW120450  11.406  12.655   4.834
 6206SOL    HW220451  11.407  12.531   4.748
 6207SOL     OW20452  13.414  14.202   0.260
 6207SOL    HW120453  13.422  14.107   0.271
 6207SOL    HW220454  13.330  14.224   0.301
 6208SOL     OW20455  10.711   2.505   7.567
 6208SOL    HW120456  10.689   2.538   7.480
 6208SOL    HW220457  10.635   2.526   7.621
 6209SOL     OW20458   0.302   2.885   4.624
 6209SOL    HW120459   0.292   2.923   4.711
 6209SOL    HW220460   0.380   2.927   4.588
 6210SOL     OW20461   1.483   7.497   5.542
 6210SOL    HW120462   1.555   7.437   5.518
 6210SOL    HW220463   1.417   7.440   5.581
 6211SOL     OW20464   1.449  11.155  13.410
 6211SOL    HW120465   1.502  11.166  13.331
 6211SOL    HW220466   1.372  11.106  13.380
 6212SOL     OW20467   4.088   2.453   4.027
 6212SOL    HW120468   3.998   2.455   3.994
 6212SOL    HW220469   4.141   2.485   3.954
 6213SOL     OW20470   3.032   8.558   4.478
 6213SOL    HW120471   3.127   8.559   4.473
 6213SOL    HW220472   3.006   8.647   4.453
 6214SOL     OW20473  14.695   5.008   6.649
 6214SOL    HW120474  14.718   5.072   6.582
 6214SOL    HW220475  14.633   4.949   6.607
 6215SOL     OW20476  12.579   4.844   5.952
 6215SOL    HW120477  12.545   4.756   5.967
 6215SOL    HW220478  12.635   4.862   6.028
 6216SOL     OW20479   9.407   1.657   4.878
 6216SOL    HW120480   9.379   1.605   4.803
 6216SOL    HW220481   9.403   1.596   4.952
 6217SOL     OW20482  13.056   3.380  12.908
 6217SOL    HW120483  13.021   3.293  12.930
 6217SOL    HW220484  13.104   3.407  12.987
 6218SOL     OW20485  10.981   0.133  13.454
 6218SOL    HW120486  11.063   0.151  13.409
 6218SOL    HW220487  10.983   0.039  13.472
 6219SOL     OW20488   8.752  10.633   2.674
 6219SOL    HW120489   8.806  10.576   2.620
 6219SOL    HW220490   8.810  10.664   2.743
 6220SOL     OW20491   8.458  13.745   6.497
 6220SOL    HW120492   8.366  13.722   6.504
 6220SOL    HW220493   8.501  13.694   6.566
 6221SOL     OW20494  14.588   6.141   9.429
 6221SOL    HW120495  14.608   6.111   9.517
 6221SOL    HW220496  14.526   6.077   9.395
 6222SOL     OW20497  14.081  12.147   1.798
 6222SOL    HW120498  14.005  12.200   1.822
 6222SOL    HW220499  14.125  12.197   1.730
 6223SOL     OW20500   4.056   9.927  11.806
 6223SOL    HW120501   4.104   9.953  11.884
 6223SOL    HW220502   4.021   9.841  11.828
 6224SOL     OW20503   7.393   1.570   1.032
 6224SOL    HW120504   7.348   1.538   1.110
 6224SOL    HW220505   7.334   1.547   0.960
 6225SOL     OW20506   7.707   3.990   8.518
 6225SOL    HW120507   7.626   4.039   8.500
 6225SOL    HW220508   7.708   3.980   8.613
 6226SOL     OW20509   7.162   0.127   0.587
 6226SOL    HW120510   7.068   0.128   0.569
 6226SOL    HW220511   7.202   0.097   0.506
 6227SOL     OW20512   1.891  12.281   8.971
 6227SOL    HW120513   1.908  12.332   8.892
 6227SOL    HW220514   1.910  12.191   8.945
 6228SOL     OW20515   4.517   4.958  10.998
 6228SOL    HW120516   4.460   4.922  10.930
 6228SOL    HW220517   4.605   4.928  10.974
 6229SOL     OW20518   3.921  14.453  10.108
 6229SOL    HW120519   3.922  14.544  10.139
 6229SOL    HW220520   3.974  14.454  10.029
 6230SOL     OW20521  13.502  11.943   3.474
 6230SOL    HW120522  13.534  11.974   3.559
 6230SOL    HW220523  13.553  11.992   3.410
 6231SOL     OW20524   2.872  13.099  13.855
 6231SOL    HW120525   2.903  13.134  13.771
 6231SOL    HW220526   2.946  13.110  13.914
 6232SOL     OW20527   5.791   3.654  10.041
 6232SOL    HW120528   5.883   3.674  10.020
 6232SOL    HW220529   5.749   3.740  10.046
 6233SOL     OW20530   2.772   3.589   5.338
 6233SOL    HW120531   2.689   3.574   5.383
 6233SOL    HW220532   2.776   3.684   5.325
 6234SOL     OW20533  12.891   7.734   7.269
 6234SOL    HW120534  12.858   7.765   7.184
 6234SOL    HW220535  12.977   7.774   7.277
 6235SOL     OW20536   9.431   0.311  10.730
 6235SOL    HW120537   9.423   0.238  10.668
 6235SOL    HW220538   9.524   0.314  10.751
 6236SOL     OW20539   7.245   3.319   4.491
 6236SOL    HW120540   7.176   3.270   4.446
 6236SOL    HW220541   7.259   3.396   4.436
 6237SOL     OW20542  10.537  11.341   8.765
 6237SOL    HW120543  10.619  11.391   8.763
 6237SOL    HW220544  10.540  11.294   8.848
 6238SOL     OW20545   1.422  10.159  13.233
 6238SOL    HW120546   1.411  10.175  13.327
 6238SOL    HW220547   1.403  10.066  13.222
 6239SOL     OW20548   1.661   3.499   4.071
 6239SOL    HW120549   1.614   3.480   3.990
 6239SOL    HW220550   1.722   3.569   4.047
 6240SOL     OW20551   7.898   7.271  12.224
 6240SOL    HW120552   7.898   7.185  12.181
 6240SOL    HW220553   7.942   7.257  12.307
 6241SOL     OW20554   6.486   2.081   0.936
 6241SOL    HW120555   6.457   2.058   0.848
 6241SOL    HW220556   6.576   2.048   0.941
 6242SOL     OW20557   7.772   5.613   9.096
 6242SOL    HW120558   7.692   5.662   9.116
 6242SOL    HW220559   7.754   5.571   9.012
 6243SOL     OW20560  11.830  10.158   9.129
 6243SOL    HW120561  11.886  10.194   9.198
 6243SOL    HW220562  11.808  10.070   9.158
 6244SOL     OW20563   3.520  13.102  13.153
 6244SOL    HW120564   3.605  13.117  13.195
 6244SOL    HW220565   3.456  13.115  13.223
 6245SOL     OW20566   2.656   5.661  10.788
 6245SOL    HW120567   2.660   5.756  10.800
 6245SOL    HW220568   2.744   5.637  10.758
 6246SOL     OW20569   1.185   9.821   9.058
 6246SOL    HW120570   1.089   9.815   9.056
 6246SOL    HW220571   1.203   9.896   9.114
 6247SOL     OW20572   0.123   9.507  11.716
 6247SOL    HW120573   0.044   9.484  11.765
 6247SOL    HW220574   0.115   9.460  11.633
 6248SOL     OW20575  12.837  12.072   8.071
 6248SOL    HW120576  12.814  12.164   8.060
 6248SOL    HW220577  12.874  12.065   8.159
 6249SOL     OW20578   7.822   3.325  10.466
 6249SOL    HW120579   7.821   3.398  10.404
 6249SOL    HW220580   7.798   3.249  10.414
 6250SOL     OW20581   9.358   4.733   8.394
 6250SOL    HW120582   9.441   4.752   8.352
 6250SOL    HW220583   9.319   4.819   8.410
 6251SOL     OW20584  13.999   8.145   5.493
 6251SOL    HW120585  14.086   8.182   5.477
 6251SOL    HW220586  13.996   8.067   5.437
 6252SOL     OW20587   0.959   7.966   8.513
 6252SOL    HW120588   0.926   8.002   8.595
 6252SOL    HW220589   0.890   7.908   8.481
 6253SOL     OW20590  14.013  14.591   2.516
 6253SOL    HW120591  14.035  14.548   2.599
 6253SOL    HW220592  13.918  14.604   2.521
 6254SOL     OW20593   1.208   3.666   3.257
 6254SOL    HW120594   1.199   3.579   3.298
 6254SOL    HW220595   1.208   3.727   3.331
 6255SOL     OW20596   7.673  13.537   2.695
 6255SOL    HW120597   7.627  13.499   2.620
 6255SOL    HW220598   7.612  13.528   2.768
 6256SOL     OW20599  12.464   5.081  12.736
 6256SOL    HW120600  12.497   5.163  12.774
 6256SOL    HW220601  12.407   5.109  12.664
 6257SOL     OW20602   8.120  10.708   5.425
 6257SOL    HW120603   8.198  10.677   5.471
 6257SOL    HW220604   8.053  10.714   5.492
 6258SOL     OW20605   8.146  11.757   5.145
 6258SOL    HW120606   8.095  11.773   5.066
 6258SOL    HW220607   8.105  11.681   5.186
 6259SOL     OW20608   7.823   4.686   3.205
 6259SOL    HW120609   7.816   4.748   3.278
 6259SOL    HW220610   7.819   4.600   3.245
 6260SOL     OW20611  10.808   0.281   3.548
 6260SOL    HW120612  10.831   0.353   3.489
 6260SOL    HW220613  10.860   0.207   3.518
 6261SOL     OW20614   5.831  12.435   0.021
 6261SOL    HW120615   5.749  12.448  14.850
 6261SOL    HW220616   5.830  12.342   0.047
 6262SOL     OW20617  12.094   4.502   3.273
 6262SOL    HW120618  12.015   4.450   3.260
 6262SOL    HW220619  12.070   4.589   3.243
 6263SOL     OW20620   6.888   6.053   4.325
 6263SOL    HW120621   6.890   6.145   4.352
 6263SOL    HW220622   6.972   6.039   4.281
 6264SOL     OW20623   9.013  12.766   6.237
 6264SOL    HW120624   9.033  12.672   6.242
 6264SOL    HW220625   8.954  12.774   6.162
 6265SOL     OW20626   9.763   7.001   2.418
 6265SOL    HW120627   9.850   6.982   2.383
 6265SOL    HW220628   9.709   6.927   2.390
 6266SOL     OW20629   9.568   6.510   3.352
 6266SOL    HW120630   9.625   6.525   3.277
 6266SOL    HW220631   9.611   6.554   3.425
 6267SOL     OW20632   8.110   8.209   5.752
 6267SOL    HW120633   8.155   8.156   5.817
 6267SOL    HW220634   8.174   8.277   5.728
 6268SOL     OW20635   5.815   1.604   3.604
 6268SOL    HW120636   5.780   1.692   3.593
 6268SOL    HW220637   5.748   1.546   3.569
 6269SOL     OW20638   3.385   2.402   5.459
 6269SOL    HW120639   3.350   2.453   5.385
 6269SOL    HW220640   3.478   2.394   5.441
 6270SOL     OW20641   9.989   4.425   0.933
 6270SOL    HW120642   9.986   4.331   0.916
 6270SOL    HW220643   9.913   4.461   0.888
 6271SOL     OW20644   5.996  14.245  13.961
 6271SOL    HW120645   6.041  14.320  13.921
 6271SOL    HW220646   5.922  14.228  13.903
 6272SOL     OW20647   3.778   9.899   1.134
 6272SOL    HW120648   3.772   9.992   1.158
 6272SOL    HW220649   3.791   9.854   1.217
 6273SOL     OW20650   2.209  14.472   9.905
 6273SOL    HW120651   2.141  14.460   9.838
 6273SOL    HW220652   2.271  14.533   9.865
 6274SOL     OW20653   1.841   6.672  10.842
 6274SOL    HW120654   1.758   6.628  10.859
 6274SOL    HW220655   1.880   6.683  10.929
 6275SOL     OW20656  11.166   8.654   8.437
 6275SOL    HW120657  11.098   8.711   8.400
 6275SOL    HW220658  11.247   8.703   8.424
 6276SOL     OW20659  11.708   9.855   5.376
 6276SOL    HW120660  11.636   9.824   5.430
 6276SOL    HW220661  11.741   9.933   5.422
 6277SOL     OW20662   7.217   4.913  12.970
 6277SOL    HW120663   7.131   4.874  12.962
 6277SOL    HW220664   7.200   5.003  12.997
 6278SOL     OW20665   1.802   7.549  11.120
 6278SOL    HW120666   1.770   7.583  11.037
 6278SOL    HW220667   1.891   7.518  11.101
 6279SOL     OW20668  12.653  10.437   3.677
 6279SOL    HW120669  12.714  10.364   3.688
 6279SOL    HW220670  12.607  10.443   3.761
 6280SOL     OW20671   5.991   8.347   3.133
 6280SOL    HW120672   6.086   8.349   3.120
 6280SOL    HW220673   5.965   8.259   3.105
 6281SOL     OW20674   0.440   4.918  12.923
 6281SOL    HW120675   0.509   4.852  12.924
 6281SOL    HW220676   0.474   4.990  12.976
 6282SOL     OW20677   7.157  12.876   7.266
 6282SOL    HW120678   7.220  12.947   7.264
 6282SOL    HW220679   7.072  12.918   7.281
 6283SOL     OW20680   3.680  14.640  14.746
 6283SOL    HW120681   3.624  14.694  14.690
 6283SOL    HW220682   3.757  14.622  14.693
 6284SOL     OW20683   6.659   9.834  12.411
 6284SOL    HW120684   6.731   9.792  12.364
 6284SOL    HW220685   6.700   9.903  12.463
 6285SOL     OW20686   8.674   4.578  10.854
 6285SOL    HW120687   8.629   4.607  10.774
 6285SOL    HW220688   8.603   4.561  10.916
 6286SOL     OW20689   8.344  11.861   7.442
 6286SOL    HW120690   8.427  11.827   7.409
 6286SOL    HW220691   8.299  11.894   7.364
 6287SOL     OW20692   0.405  14.447   4.792
 6287SOL    HW120693   0.449  14.481   4.869
 6287SOL    HW220694   0.332  14.507   4.778
 6288SOL     OW20695   8.080  10.290  10.520
 6288SOL    HW120696   8.027  10.280  10.600
 6288SOL    HW220697   8.170  10.279  10.550
 6289SOL     OW20698  11.216   3.722  10.855
 6289SOL    HW120699  11.147   3.753  10.915
 6289SOL    HW220700  11.253   3.802  10.818
 6290SOL     OW20701   5.893   3.264   0.962
 6290SOL    HW120702   5.904   3.345   1.013
 6290SOL    HW220703   5.914   3.289   0.872
 6291SOL     OW20704  10.637   3.883  13.752
 6291SOL    HW120705  10.567   3.948  13.752
 6291SOL    HW220706  10.706   3.922  13.697
 6292SOL     OW20707   7.731  12.815   9.106
 6292SOL    HW120708   7.711  12.846   9.018
 6292SOL    HW220709   7.751  12.722   9.095
 6293SOL     OW20710   5.433  13.646  10.484
 6293SOL    HW120711   5.457  13.729  10.526
 6293SOL    HW220712   5.358  13.615  10.535
 6294SOL     OW20713  14.502   0.012   6.764
 6294SOL    HW120714  14.550  14.860   6.686
 6294SOL    HW220715  14.515  14.817   6.827
 6295SOL     OW20716   7.855   1.498   1.593
 6295SOL    HW120717   7.872   1.521   1.502
 6295SOL    HW220718   7.916   1.553   1.643
 6296SOL     OW20719  12.933   7.781  11.774
 6296SOL    HW120720  13.005   7.815  11.827
 6296SOL    HW220721  12.972   7.769  11.687
 6297SOL     OW20722  13.942  13.551   4.350
 6297SOL    HW120723  14.024  13.600   4.347
 6297SOL    HW220724  13.960  13.472   4.299
 6298SOL     OW20725  13.744  12.306   8.798
 6298SOL    HW120726  13.730  12.380   8.858
 6298SOL    HW220727  13.832  12.276   8.819
 6299SOL     OW20728  10.462   4.222  10.724
 6299SOL    HW120729  10.539   4.256  10.770
 6299SOL    HW220730  10.389   4.241  10.782
 6300SOL     OW20731   4.841   4.151  14.731
 6300SOL    HW120732   4.880   4.077  14.777
 6300SOL    HW220733   4.913   4.213  14.720
 6301SOL     OW20734   7.677   5.950   8.971
 6301SOL    HW120735   7.703   5.877   8.915
 6301SOL    HW220736   7.603   5.917   9.021
 6302SOL     OW20737   2.335   7.667  13.317
 6302SOL    HW120738   2.388   7.634  13.245
 6302SOL    HW220739   2.245   7.665  13.284
 6303SOL     OW20740   7.395  13.646  11.010
 6303SOL    HW120741   7.406  13.644  10.915
 6303SOL    HW220742   7.305  13.676  11.023
 6304SOL     OW20743   1.389   0.410  13.935
 6304SOL    HW120744   1.470   0.461  13.935
 6304SOL    HW220745   1.352   0.424  13.848
 6305SOL     OW20746   7.243  13.532   8.502
 6305SOL    HW120747   7.271  13.443   8.480
 6305SOL    HW220748   7.233  13.575   8.417
 6306SOL     OW20749   8.355   2.204   6.963
 6306SOL    HW120750   8.443   2.170   6.978
 6306SOL    HW220751   8.359   2.242   6.875
 6307SOL     OW20752   7.469  10.621  11.034
 6307SOL    HW120753   7.540  10.668  10.990
 6307SOL    HW220754   7.390  10.644  10.984
 6308SOL     OW20755   8.236  13.715   7.489
 6308SOL    HW120756   8.202  13.666   7.564
 6308SOL    HW220757   8.191  13.676   7.414
 6309SOL     OW20758  11.376   2.405   6.542
 6309SOL    HW120759  11.371   2.420   6.636
 6309SOL    HW220760  11.455   2.451   6.514
 6310SOL     OW20761   3.570  14.582  11.262
 6310SOL    HW120762   3.648  14.626  11.228
 6310SOL    HW220763   3.583  14.578  11.356
 6311SOL     OW20764   7.236   9.359   5.094
 6311SOL    HW120765   7.285   9.432   5.058
 6311SOL    HW220766   7.171   9.338   5.027
 6312SOL     OW20767  13.836  13.302   6.068
 6312SOL    HW120768  13.753  13.323   6.024
 6312SOL    HW220769  13.899  13.362   6.030
 6313SOL     OW20770  11.868  11.588   5.931
 6313SOL    HW120771  11.787  11.602   5.882
 6313SOL    HW220772  11.843  11.532   6.004
 6314SOL     OW20773  12.343  13.308   0.265
 6314SOL    HW120774  12.266  13.329   0.213
 6314SOL    HW220775  12.371  13.222   0.233
 6315SOL     OW20776  11.548   5.069   2.491
 6315SOL    HW120777  11.558   5.091   2.398
 6315SOL    HW220778  11.502   5.143   2.529
 6316SOL     OW20779   9.878   2.332   0.070
 6316SOL    HW120780   9.927   2.308  14.868
 6316SOL    HW220781   9.867   2.249   0.118
 6317SOL     OW20782   0.720   6.135  12.820
 6317SOL    HW120783   0.765   6.176  12.894
 6317SOL    HW220784   0.791   6.102  12.764
 6318SOL     OW20785   0.966  13.455   4.105
 6318SOL    HW120786   0.980  13.368   4.141
 6318SOL    HW220787   1.016  13.455   4.023
 6319SOL     OW20788  12.655   3.416   8.898
 6319SOL    HW120789  12.570   3.386   8.930
 6319SOL    HW220790  12.718   3.359   8.943
 6320SOL     OW20791   6.349  10.281   3.977
 6320SOL    HW120792   6.319  10.372   3.978
 6320SOL    HW220793   6.352  10.256   4.070
 6321SOL     OW20794   5.772   5.242   9.511
 6321SOL    HW120795   5.813   5.228   9.596
 6321SOL    HW220796   5.678   5.245   9.529
 6322SOL     OW20797   6.838   5.123   7.447
 6322SOL    HW120798   6.750   5.159   7.436
 6322SOL    HW220799   6.827   5.029   7.434
 6323SOL     OW20800  11.408   6.814   5.711
 6323SOL    HW120801  11.323   6.790   5.746
 6323SOL    HW220802  11.462   6.735   5.723
 6324SOL     OW20803   1.559   8.116  10.654
 6324SOL    HW120804   1.599   8.041  10.610
 6324SOL    HW220805   1.503   8.156  10.588
 6325SOL     OW20806   0.328   0.374   0.698
 6325SOL    HW120807   0.298   0.288   0.670
 6325SOL    HW220808   0.416   0.383   0.662
 6326SOL     OW20809   0.243  10.957  12.769
 6326SOL    HW120810   0.316  11.014  12.791
 6326SOL    HW220811   0.165  11.010  12.785
 6327SOL     OW20812  12.225   3.691   7.922
 6327SOL    HW120813  12.155   3.634   7.891
 6327SOL    HW220814  12.227   3.679   8.017
 6328SOL     OW20815   1.469   7.777  11.382
 6328SOL    HW120816   1.539   7.837  11.359
 6328SOL    HW220817   1.484   7.700  11.327
 6329SOL     OW20818  11.904   1.762   6.446
 6329SOL    HW120819  11.858   1.818   6.384
 6329SOL    HW220820  11.997   1.776   6.427
 6330SOL     OW20821   1.432   0.216   5.030
 6330SOL    HW120822   1.484   0.151   4.983
 6330SOL    HW220823   1.410   0.173   5.113
 6331SOL     OW20824   6.659  10.729   9.859
 6331SOL    HW120825   6.643  10.684   9.775
 6331SOL    HW220826   6.681  10.819   9.834
 6332SOL     OW20827   5.934   4.978  10.221
 6332SOL    HW120828   5.875   4.924  10.273
 6332SOL    HW220829   5.921   5.067  10.252
 6333SOL     OW20830  12.580  12.292   8.682
 6333SOL    HW120831  12.651  12.286   8.618
 6333SOL    HW220832  12.624  12.286   8.767
 6334SOL     OW20833  11.546   1.099   5.312
 6334SOL    HW120834  11.539   1.050   5.394
 6334SOL    HW220835  11.639   1.117   5.303
 6335SOL     OW20836   1.526   3.092   3.024
 6335SOL    HW120837   1.621   3.106   3.016
 6335SOL    HW220838   1.510   3.007   2.985
 6336SOL     OW20839   1.208  10.948   9.064
 6336SOL    HW120840   1.146  10.971   9.134
 6336SOL    HW220841   1.258  10.875   9.100
 6337SOL     OW20842   0.692   9.866   8.450
 6337SOL    HW120843   0.769   9.850   8.505
 6337SOL    HW220844   0.698   9.800   8.381
 6338SOL     OW20845  10.765  12.457   8.643
 6338SOL    HW120846  10.824  12.532   8.635
 6338SOL    HW220847  10.713  12.475   8.722
 6339SOL     OW20848   4.508   5.943   2.839
 6339SOL    HW120849   4.551   5.955   2.754
 6339SOL    HW220850   4.423   5.985   2.828
 6340SOL     OW20851   7.132   7.845   9.830
 6340SOL    HW120852   7.129   7.817   9.922
 6340SOL    HW220853   7.085   7.928   9.829
 6341SOL     OW20854  10.702  11.059   8.865
 6341SOL    HW120855  10.764  10.994   8.833
 6341SOL    HW220856  10.757  11.131   8.895
 6342SOL     OW20857   4.766  10.379   3.383
 6342SOL    HW120858   4.758  10.283   3.380
 6342SOL    HW220859   4.773  10.400   3.476
 6343SOL     OW20860   6.811   3.355   9.508
 6343SOL    HW120861   6.841   3.386   9.423
 6343SOL    HW220862   6.720   3.383   9.514
 6344SOL     OW20863   9.800   6.159  13.529
 6344SOL    HW120864   9.817   6.118  13.444
 6344SOL    HW220865   9.830   6.249  13.519
 6345SOL     OW20866   7.221   4.581   2.460
 6345SOL    HW120867   7.266   4.569   2.377
 6345SOL    HW220868   7.220   4.676   2.474
 6346SOL     OW20869   8.155   8.187  11.094
 6346SOL    HW120870   8.242   8.179  11.056
 6346SOL    HW220871   8.113   8.103  11.075
 6347SOL     OW20872   3.768   4.562  12.318
 6347SOL    HW120873   3.706   4.516  12.263
 6347SOL    HW220874   3.763   4.653  12.289
 6348SOL     OW20875  11.036  13.461   3.862
 6348SOL    HW120876  11.052  13.542   3.911
 6348SOL    HW220877  11.104  13.401   3.892
 6349SOL     OW20878  11.988  13.839   5.975
 6349SOL    HW120879  12.005  13.810   6.065
 6349SOL    HW220880  12.037  13.921   5.967
 6350SOL     OW20881  12.580   1.664  11.645
 6350SOL    HW120882  12.575   1.648  11.739
 6350SOL    HW220883  12.615   1.583  11.608
 6351SOL     OW20884  10.788   2.473   9.472
 6351SOL    HW120885  10.746   2.427   9.544
 6351SOL    HW220886  10.759   2.426   9.394
 6352SOL     OW20887  13.988  11.149  12.631
 6352SOL    HW120888  13.973  11.197  12.550
 6352SOL    HW220889  13.930  11.191  12.695
 6353SOL     OW20890  12.490   9.509  11.938
 6353SOL    HW120891  12.463   9.459  11.861
 6353SOL    HW220892  12.556   9.570  11.905
 6354SOL     OW20893   9.840   1.949   4.920
 6354SOL    HW120894   9.776   1.951   4.848
 6354SOL    HW220895   9.889   1.869   4.906
 6355SOL     OW20896   9.261  13.352   7.630
 6355SOL    HW120897   9.256  13.432   7.682
 6355SOL    HW220898   9.177  13.349   7.584
 6356SOL     OW20899  14.416  14.441   3.141
 6356SOL    HW120900  14.432  14.440   3.235
 6356SOL    HW220901  14.366  14.522   3.126
 6357SOL     OW20902   8.939   1.497  10.754
 6357SOL    HW120903   9.005   1.563  10.774
 6357SOL    HW220904   8.865   1.520  10.809
 6358SOL     OW20905  13.189   0.624   5.544
 6358SOL    HW120906  13.185   0.540   5.589
 6358SOL    HW220907  13.139   0.684   5.600
 6359SOL     OW20908   9.131  12.739   5.860
 6359SOL    HW120909   9.116  12.801   5.789
 6359SOL    HW220910   9.095  12.656   5.827
 6360SOL     OW20911  11.810   0.809  11.926
 6360SOL    HW120912  11.726   0.792  11.882
 6360SOL    HW220913  11.809   0.903  11.944
 6361SOL     OW20914   5.187  10.439   1.374
 6361SOL    HW120915   5.229  10.356   1.350
 6361SOL    HW220916   5.232  10.504   1.320
 6362SOL     OW20917  11.323   9.820  12.514
 6362SOL    HW120918  11.280   9.773  12.443
 6362SOL    HW220919  11.372   9.752  12.561
 6363SOL     OW20920   9.501  12.518   1.009
 6363SOL    HW120921   9.423  12.518   1.065
 6363SOL    HW220922   9.573  12.500   1.069
 6364SOL     OW20923  13.340   3.301  11.535
 6364SOL    HW120924  13.374   3.386  11.506
 6364SOL    HW220925  13.410   3.266  11.590
 6365SOL     OW20926   9.493   3.411   3.663
 6365SOL    HW120927   9.503   3.342   3.598
 6365SOL    HW220928   9.431   3.376   3.727
 6366SOL     OW20929   9.239   4.911  11.769
 6366SOL    HW120930   9.263   5.002  11.756
 6366SOL    HW220931   9.151   4.904  11.733
 6367SOL     OW20932  10.240   1.951   6.169
 6367SOL    HW120933  10.179   1.889   6.209
 6367SOL    HW220934  10.184   2.020   6.134
 6368SOL     OW20935   6.118  11.896  12.399
 6368SOL    HW120936   6.031  11.858  12.403
 6368SOL    HW220937   6.174  11.825  12.367
 6369SOL     OW20938   7.848   8.233   5.799
 6369SOL    HW120939   7.943   8.222   5.788
 6369SOL    HW220940   7.840   8.308   5.858
 6370SOL     OW20941   9.519   7.078  12.494
 6370SOL    HW120942   9.606   7.053  12.525
 6370SOL    HW220943   9.533   7.102  12.402
 6371SOL     OW20944   7.252   3.946   8.767
 6371SOL    HW120945   7.277   3.945   8.860
 6371SOL    HW220946   7.322   3.898   8.723
 6372SOL     OW20947   3.208  12.735   5.678
 6372SOL    HW120948   3.302  12.748   5.686
 6372SOL    HW220949   3.169  12.800   5.737
 6373SOL     OW20950   5.444   8.802   7.441
 6373SOL    HW120951   5.442   8.829   7.533
 6373SOL    HW220952   5.461   8.708   7.443
 6374SOL     OW20953   0.868   7.669  12.839
 6374SOL    HW120954   0.939   7.616  12.876
 6374SOL    HW220955   0.788   7.628  12.871
 6375SOL     OW20956   0.270   2.920   7.017
 6375SOL    HW120957   0.337   2.962   7.071
 6375SOL    HW220958   0.307   2.833   6.998
 6376SOL     OW20959   5.759   7.409   8.618
 6376SOL    HW120960   5.738   7.401   8.711
 6376SOL    HW220961   5.822   7.338   8.602
 6377SOL     OW20962   8.200   1.759   7.752
 6377SOL    HW120963   8.136   1.761   7.681
 6377SOL    HW220964   8.271   1.816   7.721
 6378SOL     OW20965   6.847  11.191  10.676
 6378SOL    HW120966   6.922  11.181  10.618
 6378SOL    HW220967   6.855  11.119  10.738
 6379SOL     OW20968   5.254   1.683   4.699
 6379SOL    HW120969   5.331   1.720   4.741
 6379SOL    HW220970   5.253   1.720   4.611
 6380SOL     OW20971   7.424   5.150   0.260
 6380SOL    HW120972   7.516   5.170   0.277
 6380SOL    HW220973   7.380   5.235   0.263
 6381SOL     OW20974   4.186   6.169   6.536
 6381SOL    HW120975   4.178   6.226   6.613
 6381SOL    HW220976   4.136   6.214   6.468
 6382SOL     OW20977   4.464  12.413  13.731
 6382SOL    HW120978   4.521  12.341  13.758
 6382SOL    HW220979   4.375  12.379  13.740
 6383SOL     OW20980   1.383   2.180  13.427
 6383SOL    HW120981   1.404   2.109  13.488
 6383SOL    HW220982   1.331   2.242  13.479
 6384SOL     OW20983   3.268   3.595   8.759
 6384SOL    HW120984   3.234   3.675   8.720
 6384SOL    HW220985   3.233   3.594   8.848
 6385SOL     OW20986   5.158  10.715  11.901
 6385SOL    HW120987   5.129  10.695  11.990
 6385SOL    HW220988   5.242  10.759  11.912
 6386SOL     OW20989   5.273   6.647  14.276
 6386SOL    HW120990   5.184   6.622  14.301
 6386SOL    HW220991   5.314   6.674  14.358
 6387SOL     OW20992   9.488   3.222   9.004
 6387SOL    HW120993   9.548   3.239   9.077
 6387SOL    HW220994   9.541   3.179   8.938
 6388SOL     OW20995   2.743  11.832  13.186
 6388SOL    HW120996   2.734  11.870  13.099
 6388SOL    HW220997   2.823  11.870  13.221
 6389SOL     OW20998   6.323  13.632   9.674
 6389SOL    HW120999   6.240  13.661   9.637
 6389SOL    HW221000   6.388  13.658   9.609
 6390SOL     OW21001  14.243   9.202  14.422
 6390SOL    HW121002  14.227   9.147  14.498
 6390SOL    HW221003  14.280   9.143  14.356
 6391SOL     OW21004   3.306   6.783   2.214
 6391SOL    HW121005   3.376   6.719   2.225
 6391SOL    HW221006   3.328   6.853   2.274
 6392SOL     OW21007   2.196  14.266  13.102
 6392SOL    HW121008   2.163  14.339  13.050
 6392SOL    HW221009   2.161  14.188  13.058
 6393SOL     OW21010  14.863   5.650   2.956
 6393SOL    HW121011  14.791   5.669   2.896
 6393SOL    HW221012   0.052   5.604   2.903
 6394SOL     OW21013   1.271   0.666   9.383
 6394SOL    HW121014   1.340   0.659   9.317
 6394SOL    HW221015   1.202   0.718   9.341
 6395SOL     OW21016   2.232  11.713   9.772
 6395SOL    HW121017   2.225  11.733   9.679
 6395SOL    HW221018   2.256  11.620   9.775
 6396SOL     OW21019   5.746   2.985   6.294
 6396SOL    HW121020   5.669   3.023   6.254
 6396SOL    HW221021   5.753   2.898   6.255
 6397SOL     OW21022   2.689   5.131   7.354
 6397SOL    HW121023   2.681   5.070   7.281
 6397SOL    HW221024   2.599   5.153   7.378
 6398SOL     OW21025  10.424   2.597   9.759
 6398SOL    HW121026  10.412   2.575   9.851
 6398SOL    HW221027  10.340   2.577   9.718
 6399SOL     OW21028   2.336   4.391   8.311
 6399SOL    HW121029   2.309   4.446   8.385
 6399SOL    HW221030   2.342   4.452   8.238
 6400SOL     OW21031   6.255   4.713  13.096
 6400SOL    HW121032   6.199   4.788  13.074
 6400SOL    HW221033   6.321   4.749  13.156
 6401SOL     OW21034   6.167  10.763   8.554
 6401SOL    HW121035   6.149  10.670   8.549
 6401SOL    HW221036   6.109  10.803   8.489
 6402SOL     OW21037   3.603   5.742   4.555
 6402SOL    HW121038   3.662   5.815   4.574
 6402SOL    HW221039   3.521   5.784   4.531
 6403SOL     OW21040   3.467   2.402  12.852
 6403SOL    HW121041   3.458   2.308  12.868
 6403SOL    HW221042   3.516   2.434  12.927
 6404SOL     OW21043   2.439   5.893  13.023
 6404SOL    HW121044   2.386   5.813  13.035
 6404SOL    HW221045   2.525   5.861  12.995
 6405SOL     OW21046  12.972   8.109  12.132
 6405SOL    HW121047  12.999   8.126  12.223
 6405SOL    HW221048  12.966   8.195  12.092
 6406SOL     OW21049   2.990   6.185  11.712
 6406SOL    HW121050   2.994   6.139  11.628
 6406SOL    HW221051   3.054   6.141  11.767
 6407SOL     OW21052  12.330   1.469   7.745
 6407SOL    HW121053  12.316   1.377   7.769
 6407SOL    HW221054  12.246   1.511   7.763
 6408SOL     OW21055   6.237   5.383   8.791
 6408SOL    HW121056   6.157   5.432   8.811
 6408SOL    HW221057   6.291   5.394   8.870
 6409SOL     OW21058  10.515   1.270  12.767
 6409SOL    HW121059  10.493   1.220  12.688
 6409SOL    HW221060  10.487   1.213  12.839
 6410SOL     OW21061   3.379  10.052  13.873
 6410SOL    HW121062   3.357   9.961  13.892
 6410SOL    HW221063   3.335  10.102  13.943
 6411SOL     OW21064  11.134  14.379   0.556
 6411SOL    HW121065  11.107  14.462   0.595
 6411SOL    HW221066  11.157  14.324   0.630
 6412SOL     OW21067   2.418  10.665   3.307
 6412SOL    HW121068   2.347  10.606   3.334
 6412SOL    HW221069   2.498  10.614   3.322
 6413SOL     OW21070  14.241   4.816   7.982
 6413SOL    HW121071  14.158   4.781   7.949
 6413SOL    HW221072  14.223   4.910   7.996
 6414SOL     OW21073  14.640   7.641   0.894
 6414SOL    HW121074  14.632   7.634   0.799
 6414SOL    HW221075  14.550   7.652   0.925
 6415SOL     OW21076   7.286  10.641   1.670
 6415SOL    HW121077   7.349  10.703   1.707
 6415SOL    HW221078   7.202  10.686   1.678
 6416SOL     OW21079   0.399  11.530   2.888
 6416SOL    HW121080   0.407  11.435   2.880
 6416SOL    HW221081   0.306  11.544   2.907
 6417SOL     OW21082   7.443   8.362   0.134
 6417SOL    HW121083   7.475   8.300   0.068
 6417SOL    HW221084   7.505   8.354   0.206
 6418SOL     OW21085   7.444   4.932   5.945
 6418SOL    HW121086   7.353   4.961   5.946
 6418SOL    HW221087   7.491   5.000   5.897
 6419SOL     OW21088   6.874  11.442  12.095
 6419SOL    HW121089   6.949  11.501  12.084
 6419SOL    HW221090   6.902  11.378  12.160
 6420SOL     OW21091  12.772   1.443  14.263
 6420SOL    HW121092  12.743   1.448  14.354
 6420SOL    HW221093  12.854   1.393  14.266
 6421SOL     OW21094   8.659  13.330   6.656
 6421SOL    HW121095   8.680  13.248   6.613
 6421SOL    HW221096   8.627  13.305   6.742
 6422SOL     OW21097   1.490  10.803  12.687
 6422SOL    HW121098   1.419  10.794  12.751
 6422SOL    HW221099   1.551  10.865  12.726
 6423SOL     OW21100   5.763  12.408  11.738
 6423SOL    HW121101   5.806  12.323  11.749
 6423SOL    HW221102   5.824  12.471  11.777
 6424SOL     OW21103   1.525   8.176   6.665
 6424SOL    HW121104   1.466   8.207   6.733
 6424SOL    HW221105   1.496   8.220   6.585
 6425SOL     OW21106   5.686   4.560   7.224
 6425SOL    HW121107   5.614   4.615   7.255
 6425SOL    HW221108   5.655   4.470   7.238
 6426SOL     OW21109   3.068  14.817  14.046
 6426SOL    HW121110   3.026  14.734  14.021
 6426SOL    HW221111   3.061  14.819  14.142
 6427SOL     OW21112   6.387  14.193   9.301
 6427SOL    HW121113   6.467  14.203   9.353
 6427SOL    HW221114   6.318  14.183   9.366
 6428SOL     OW21115   3.667   3.634   9.918
 6428SOL    HW121116   3.643   3.634  10.011
 6428SOL    HW221117   3.731   3.563   9.910
 6429SOL     OW21118  14.740   3.126  12.972
 6429SOL    HW121119  14.743   3.090  13.060
 6429SOL    HW221120  14.649   3.115  12.944
 6430SOL     OW21121  14.783   4.137  12.752
 6430SOL    HW121122  14.732   4.074  12.701
 6430SOL    HW221123  14.724   4.165  12.822
 6431SOL     OW21124   8.535   5.768  14.289
 6431SOL    HW121125   8.440   5.759  14.280
 6431SOL    HW221126   8.561   5.694  14.344
 6432SOL     OW21127   0.847   2.033  14.734
 6432SOL    HW121128   0.852   2.122  14.769
 6432SOL    HW221129   0.817   1.980  14.808
 6433SOL     OW21130   3.868   5.387   8.077
 6433SOL    HW121131   3.792   5.442   8.057
 6433SOL    HW221132   3.911   5.430   8.151
 6434SOL     OW21133  11.369   1.717  10.392
 6434SOL    HW121134  11.431   1.704  10.320
 6434SOL    HW221135  11.376   1.810  10.413
 6435SOL     OW21136   4.693  13.887   7.739
 6435SOL    HW121137   4.714  13.810   7.685
 6435SOL    HW221138   4.752  13.955   7.707
 6436SOL     OW21139   7.826  14.437  14.211
 6436SOL    HW121140   7.875  14.369  14.165
 6436SOL    HW221141   7.864  14.439  14.299
 6437SOL     OW21142   9.603   6.323   0.282
 6437SOL    HW121143   9.547   6.267   0.228
 6437SOL    HW221144   9.546   6.395   0.310
 6438SOL     OW21145   5.158   6.209   3.923
 6438SOL    HW121146   5.115   6.250   3.999
 6438SOL    HW221147   5.116   6.123   3.916
 6439SOL     OW21148   0.588   7.011   5.089
 6439SOL    HW121149   0.639   7.090   5.106
 6439SOL    HW221150   0.627   6.944   5.145
 6440SOL     OW21151   4.179  10.584  13.088
 6440SOL    HW121152   4.143  10.562  13.002
 6440SOL    HW221153   4.103  10.588  13.145
 6441SOL     OW21154   3.442   5.629  12.924
 6441SOL    HW121155   3.508   5.620  12.993
 6441SOL    HW221156   3.361   5.649  12.972
 6442SOL     OW21157  12.600   3.931   2.204
 6442SOL    HW121158  12.616   3.985   2.127
 6442SOL    HW221159  12.622   3.842   2.176
 6443SOL     OW21160   9.744   1.128   6.085
 6443SOL    HW121161   9.714   1.093   6.002
 6443SOL    HW221162   9.839   1.113   6.085
 6444SOL     OW21163  13.208  12.692   7.073
 6444SOL    HW121164  13.137  12.728   7.020
 6444SOL    HW221165  13.277  12.673   7.009
 6445SOL     OW21166  12.318   7.839   3.767
 6445SOL    HW121167  12.313   7.826   3.673
 6445SOL    HW221168  12.256   7.909   3.786
 6446SOL     OW21169  11.229   8.517   5.290
 6446SOL    HW121170  11.257   8.477   5.207
 6446SOL    HW221171  11.238   8.447   5.354
 6447SOL     OW21172   6.262   0.497  13.383
 6447SOL    HW121173   6.314   0.471  13.459
 6447SOL    HW221174   6.297   0.583  13.358
 6448SOL     OW21175  11.701   4.688  14.069
 6448SOL    HW121176  11.614   4.715  14.098
 6448SOL    HW221177  11.760   4.721  14.136
 6449SOL     OW21178   0.774  11.233   2.114
 6449SOL    HW121179   0.802  11.181   2.039
 6449SOL    HW221180   0.808  11.321   2.096
 6450SOL     OW21181  13.542   3.308  11.760
 6450SOL    HW121182  13.523   3.400  11.748
 6450SOL    HW221183  13.498   3.285  11.842
 6451SOL     OW21184   2.168  14.390  10.841
 6451SOL    HW121185   2.225  14.355  10.772
 6451SOL    HW221186   2.171  14.323  10.910
 6452SOL     OW21187   5.343  14.398   4.296
 6452SOL    HW121188   5.367  14.475   4.244
 6452SOL    HW221189   5.279  14.431   4.359
 6453SOL     OW21190  11.846   1.264   2.980
 6453SOL    HW121191  11.915   1.245   3.044
 6453SOL    HW221192  11.856   1.197   2.913
 6454SOL     OW21193   2.937  12.606   4.660
 6454SOL    HW121194   3.030  12.625   4.669
 6454SOL    HW221195   2.915  12.632   4.571
 6455SOL     OW21196   1.681   5.971   8.344
 6455SOL    HW121197   1.657   5.963   8.252
 6455SOL    HW221198   1.665   6.063   8.366
 6456SOL     OW21199  11.378   3.712   0.059
 6456SOL    HW121200  11.322   3.723   0.136
 6456SOL    HW221201  11.343   3.634   0.016
 6457SOL     OW21202   8.999   5.163   4.262
 6457SOL    HW121203   8.994   5.076   4.221
 6457SOL    HW221204   9.002   5.224   4.189
 6458SOL     OW21205   4.485   7.252  10.616
 6458SOL    HW121206   4.508   7.337  10.655
 6458SOL    HW221207   4.391   7.242  10.635
 6459SOL     OW21208   9.585   1.353   3.076
 6459SOL    HW121209   9.544   1.280   3.030
 6459SOL    HW221210   9.671   1.319   3.102
 6460SOL     OW21211  11.573   9.489  12.098
 6460SOL    HW121212  11.585   9.582  12.119
 6460SOL    HW221213  11.576   9.486  12.003
 6461SOL     OW21214   9.910   4.503   2.646
 6461SOL    HW121215   9.989   4.457   2.617
 6461SOL    HW221216   9.862   4.439   2.697
 6462SOL     OW21217   0.323  11.358   1.674
 6462SOL    HW121218   0.365  11.285   1.629
 6462SOL    HW221219   0.238  11.325   1.701
 6463SOL     OW21220  10.513   6.746   0.864
 6463SOL    HW121221  10.544   6.832   0.891
 6463SOL    HW221222  10.429   6.763   0.822
 6464SOL     OW21223   8.767   3.518  11.698
 6464SOL    HW121224   8.846   3.571  11.707
 6464SOL    HW221225   8.773   3.481  11.610
 6465SOL     OW21226  11.532   5.077   4.602
 6465SOL    HW121227  11.592   5.072   4.528
 6465SOL    HW221228  11.505   5.169   4.605
 6466SOL     OW21229   6.019   8.687   7.472
 6466SOL    HW121230   5.966   8.705   7.550
 6466SOL    HW221231   6.102   8.732   7.489
 6467SOL     OW21232   0.175  11.082   3.266
 6467SOL    HW121233   0.113  11.152   3.287
 6467SOL    HW221234   0.125  11.023   3.210
 6468SOL     OW21235   2.978  10.435   2.763
 6468SOL    HW121236   2.901  10.476   2.802
 6468SOL    HW221237   2.947  10.351   2.729
 6469SOL     OW21238   7.311   4.255   8.414
 6469SOL    HW121239   7.391   4.291   8.375
 6469SOL    HW221240   7.318   4.277   8.507
 6470SOL     OW21241  10.036   4.165   3.581
 6470SOL    HW121242   9.957   4.119   3.551
 6470SOL    HW221243  10.012   4.257   3.580
 6471SOL     OW21244  10.577   8.998  13.085
 6471SOL    HW121245  10.562   9.060  13.157
 6471SOL    HW221246  10.490   8.962  13.066
 6472SOL     OW21247   2.784   8.359  10.305
 6472SOL    HW121248   2.862   8.306  10.324
 6472SOL    HW221249   2.762   8.337  10.215
 6473SOL     OW21250  14.243  11.238   3.939
 6473SOL    HW121251  14.261  11.232   4.033
 6473SOL    HW221252  14.318  11.195   3.898
 6474SOL     OW21253   9.664   1.601   4.764
 6474SOL    HW121254   9.702   1.683   4.733
 6474SOL    HW221255   9.601   1.627   4.832
 6475SOL     OW21256  12.507   5.325   2.567
 6475SOL    HW121257  12.554   5.242   2.580
 6475SOL    HW221258  12.468   5.344   2.652
 6476SOL     OW21259   6.300  13.465   7.734
 6476SOL    HW121260   6.305  13.505   7.820
 6476SOL    HW221261   6.305  13.538   7.672
 6477SOL     OW21262   5.220   0.106   8.202
 6477SOL    HW121263   5.270   0.131   8.280
 6477SOL    HW221264   5.175   0.025   8.227
 6478SOL     OW21265   2.706  12.943  14.837
 6478SOL    HW121266   2.721  12.899   0.045
 6478SOL    HW221267   2.768  12.904  14.777
 6479SOL     OW21268   8.310  11.532  10.863
 6479SOL    HW121269   8.337  11.511  10.953
 6479SOL    HW221270   8.305  11.627  10.861
 6480SOL     OW21271   3.882   3.228  13.517
 6480SOL    HW121272   3.942   3.211  13.444
 6480SOL    HW221273   3.930   3.289  13.573
 6481SOL     OW21274  14.060   0.891  12.135
 6481SOL    HW121275  14.141   0.898  12.085
 6481SOL    HW221276  14.080   0.828  12.205
 6482SOL     OW21277   5.422   2.877  12.065
 6482SOL    HW121278   5.363   2.802  12.075
 6482SOL    HW221279   5.459   2.890  12.152
 6483SOL     OW21280  12.949   1.770   0.354
 6483SOL    HW121281  12.956   1.698   0.292
 6483SOL    HW221282  12.892   1.834   0.310
 6484SOL     OW21283  11.282   2.414  13.178
 6484SOL    HW121284  11.200   2.368  13.160
 6484SOL    HW221285  11.315   2.440  13.092
 6485SOL     OW21286  14.031   7.214  11.215
 6485SOL    HW121287  13.992   7.165  11.143
 6485SOL    HW221288  14.011   7.163  11.293
 6486SOL     OW21289  12.224  10.269   2.377
 6486SOL    HW121290  12.175  10.244   2.455
 6486SOL    HW221291  12.241  10.185   2.332
 6487SOL     OW21292  11.275   0.721   9.442
 6487SOL    HW121293  11.256   0.707   9.350
 6487SOL    HW221294  11.368   0.745   9.445
 6488SOL     OW21295   9.475   3.453  10.125
 6488SOL    HW121296   9.407   3.520  10.129
 6488SOL    HW221297   9.466   3.405  10.207
 6489SOL     OW21298   4.600   1.867   8.981
 6489SOL    HW121299   4.647   1.950   8.985
 6489SOL    HW221300   4.514   1.886   9.018
 6490SOL     OW21301   6.044  11.885  11.656
 6490SOL    HW121302   6.013  11.800  11.688
 6490SOL    HW221303   6.139  11.876  11.651
 6491SOL     OW21304   9.445  10.173   6.912
 6491SOL    HW121305   9.379  10.226   6.868
 6491SOL    HW221306   9.396  10.103   6.955
 6492SOL     OW21307  11.733   6.763   4.184
 6492SOL    HW121308  11.687   6.840   4.149
 6492SOL    HW221309  11.815   6.798   4.217
 6493SOL     OW21310  12.714   7.781   0.952
 6493SOL    HW121311  12.657   7.705   0.970
 6493SOL    HW221312  12.653   7.852   0.933
 6494SOL     OW21313   2.872   9.228   0.609
 6494SOL    HW121314   2.849   9.179   0.530
 6494SOL    HW221315   2.965   9.250   0.598
 6495SOL     OW21316   8.266   4.150   4.126
 6495SOL    HW121317   8.305   4.215   4.068
 6495SOL    HW221318   8.302   4.066   4.096
 6496SOL     OW21319   3.285   8.789  12.015
 6496SOL    HW121320   3.273   8.786  12.110
 6496SOL    HW221321   3.346   8.718  11.997
 6497SOL     OW21322   6.877   6.604   7.628
 6497SOL    HW121323   6.927   6.531   7.665
 6497SOL    HW221324   6.807   6.619   7.691
 6498SOL     OW21325   6.346  11.536   0.414
 6498SOL    HW121326   6.391  11.620   0.420
 6498SOL    HW221327   6.411  11.472   0.445
 6499SOL     OW21328   8.872   0.123   2.858
 6499SOL    HW121329   8.805   0.135   2.791
 6499SOL    HW221330   8.828   0.144   2.940
 6500SOL     OW21331   4.566  14.684  10.668
 6500SOL    HW121332   4.561  14.654  10.759
 6500SOL    HW221333   4.635  14.631  10.629
 6501SOL     OW21334  10.974   5.031  12.251
 6501SOL    HW121335  11.012   5.014  12.337
 6501SOL    HW221336  11.036   5.091  12.209
 6502SOL     OW21337  10.371   8.102   5.066
 6502SOL    HW121338  10.379   8.031   5.130
 6502SOL    HW221339  10.278   8.107   5.047
 6503SOL     OW21340   1.967  11.225  10.036
 6503SOL    HW121341   1.949  11.153   9.975
 6503SOL    HW221342   1.882  11.245  10.075
 6504SOL     OW21343  11.993   2.236   8.526
 6504SOL    HW121344  11.949   2.154   8.548
 6504SOL    HW221345  12.064   2.242   8.590
 6505SOL     OW21346   6.993  12.726   6.332
 6505SOL    HW121347   6.910  12.735   6.285
 6505SOL    HW221348   7.000  12.806   6.384
 6506SOL     OW21349  14.129  14.751  14.363
 6506SOL    HW121350  14.099  14.827  14.413
 6506SOL    HW221351  14.106  14.676  14.416
 6507SOL     OW21352  11.809   9.318   8.332
 6507SOL    HW121353  11.850   9.391   8.378
 6507SOL    HW221354  11.756   9.274   8.398
 6508SOL     OW21355   3.434  11.296   0.485
 6508SOL    HW121356   3.351  11.263   0.451
 6508SOL    HW221357   3.500  11.234   0.453
 6509SOL     OW21358   2.935  11.033  12.957
 6509SOL    HW121359   2.841  11.052  12.961
 6509SOL    HW221360   2.964  11.033  13.048
 6510SOL     OW21361   9.507  10.787   4.847
 6510SOL    HW121362   9.527  10.710   4.793
 6510SOL    HW221363   9.467  10.849   4.786
 6511SOL     OW21364  14.111   5.144   0.456
 6511SOL    HW121365  14.164   5.222   0.476
 6511SOL    HW221366  14.033   5.179   0.412
 6512SOL     OW21367   8.606   6.000  12.509
 6512SOL    HW121368   8.526   5.947  12.515
 6512SOL    HW221369   8.675   5.937  12.489
 6513SOL     OW21370   6.312   9.975  13.286
 6513SOL    HW121371   6.282   9.909  13.348
 6513SOL    HW221372   6.252   9.967  13.212
 6514SOL     OW21373   9.529   4.056   8.276
 6514SOL    HW121374   9.589   4.019   8.340
 6514SOL    HW221375   9.485   4.127   8.323
 6515SOL     OW21376   4.844  11.348   9.754
 6515SOL    HW121377   4.857  11.266   9.706
 6515SOL    HW221378   4.782  11.325   9.824
 6516SOL     OW21379   2.587   6.269   4.772
 6516SOL    HW121380   2.624   6.357   4.766
 6516SOL    HW221381   2.607   6.228   4.688
 6517SOL     OW21382   1.832   7.735   0.556
 6517SOL    HW121383   1.866   7.686   0.480
 6517SOL    HW221384   1.910   7.769   0.599
 6518SOL     OW21385   8.261  11.644   0.770
 6518SOL    HW121386   8.212  11.576   0.722
 6518SOL    HW221387   8.305  11.694   0.701
 6519SOL     OW21388  10.535   4.328   5.671
 6519SOL    HW121389  10.563   4.239   5.691
 6519SOL    HW221390  10.574   4.381   5.741
 6520SOL     OW21391  10.611   0.746   8.525
 6520SOL    HW121392  10.674   0.689   8.569
 6520SOL    HW221393  10.661   0.786   8.454
 6521SOL     OW21394   5.142   1.009   4.296
 6521SOL    HW121395   5.060   1.049   4.266
 6521SOL    HW221396   5.209   1.046   4.239
 6522SOL     OW21397   7.452   6.350   9.983
 6522SOL    HW121398   7.430   6.260  10.007
 6522SOL    HW221399   7.399   6.405  10.041
 6523SOL     OW21400   8.907   6.334  12.901
 6523SOL    HW121401   8.969   6.354  12.830
 6523SOL    HW221402   8.888   6.419  12.941
 6524SOL     OW21403  10.064   8.397  14.272
 6524SOL    HW121404  10.084   8.338  14.199
 6524SOL    HW221405   9.974   8.376  14.296
 6525SOL     OW21406  11.166  13.554  14.577
 6525SOL    HW121407  11.150  13.534  14.485
 6525SOL    HW221408  11.107  13.626  14.597
 6526SOL     OW21409   9.576   4.804   5.485
 6526SOL    HW121410   9.668   4.831   5.479
 6526SOL    HW221411   9.529   4.864   5.427
 6527SOL     OW21412  10.264   9.718   2.653
 6527SOL    HW121413  10.198   9.712   2.584
 6527SOL    HW221414  10.220   9.765   2.724
 6528SOL     OW21415  12.915   9.624   8.449
 6528SOL    HW121416  12.946   9.583   8.368
 6528SOL    HW221417  12.901   9.550   8.509
 6529SOL     OW21418   9.747  11.564   8.132
 6529SOL    HW121419   9.805  11.491   8.111
 6529SOL    HW221420   9.666  11.545   8.084
 6530SOL     OW21421   6.188   4.365   0.338
 6530SOL    HW121422   6.197   4.417   0.418
 6530SOL    HW221423   6.152   4.427   0.274
 6531SOL     OW21424   5.091   7.253   7.756
 6531SOL    HW121425   5.096   7.308   7.834
 6531SOL    HW221426   5.180   7.254   7.720
 6532SOL     OW21427   0.785   9.024  10.609
 6532SOL    HW121428   0.865   8.999  10.654
 6532SOL    HW221429   0.799   8.995  10.518
 6533SOL     OW21430  12.522   7.230   4.531
 6533SOL    HW121431  12.473   7.230   4.613
 6533SOL    HW221432  12.540   7.322   4.514
 6534SOL     OW21433  12.670  14.522  10.507
 6534SOL    HW121434  12.656  14.599  10.453
 6534SOL    HW221435  12.750  14.541  10.556
 6535SOL     OW21436  12.365   7.785   6.277
 6535SOL    HW121437  12.328   7.757   6.361
 6535SOL    HW221438  12.341   7.716   6.216
 6536SOL     OW21439   7.853   2.694   3.459
 6536SOL    HW121440   7.869   2.774   3.408
 6536SOL    HW221441   7.907   2.628   3.417
 6537SOL     OW21442   0.134   0.032  12.631
 6537SOL    HW121443   0.112   0.051  12.722
 6537SOL    HW221444   0.093  14.823  12.613
 6538SOL     OW21445  14.462   0.634   3.820
 6538SOL    HW121446  14.424   0.650   3.734
 6538SOL    HW221447  14.557   0.638   3.806
 6539SOL     OW21448  10.720  11.167  11.648
 6539SOL    HW121449  10.704  11.215  11.729
 6539SOL    HW221450  10.670  11.086  11.658
 6540SOL     OW21451   0.929   4.214   4.091
 6540SOL    HW121452   0.912   4.307   4.101
 6540SOL    HW221453   0.843   4.175   4.075
 6541SOL     OW21454   9.982   3.085  13.200
 6541SOL    HW121455  10.074   3.081  13.173
 6541SOL    HW221456   9.933   3.078  13.119
 6542SOL     OW21457  10.160  14.007   9.520
 6542SOL    HW121458  10.221  13.978   9.588
 6542SOL    HW221459  10.106  13.930   9.501
 6543SOL     OW21460   4.426  12.637   4.792
 6543SOL    HW121461   4.381  12.580   4.854
 6543SOL    HW221462   4.479  12.578   4.739
 6544SOL     OW21463  11.689   8.046   5.996
 6544SOL    HW121464  11.703   8.042   5.902
 6544SOL    HW221465  11.770   8.012   6.034
 6545SOL     OW21466   7.179  11.938   2.961
 6545SOL    HW121467   7.248  11.937   2.894
 6545SOL    HW221468   7.099  11.957   2.912
 6546SOL     OW21469   1.176   4.735   3.740
 6546SOL    HW121470   1.146   4.657   3.694
 6546SOL    HW221471   1.269   4.718   3.757
 6547SOL     OW21472   8.788   6.395   1.868
 6547SOL    HW121473   8.832   6.366   1.788
 6547SOL    HW221474   8.833   6.477   1.891
 6548SOL     OW21475  10.140  10.955   7.855
 6548SOL    HW121476  10.185  10.921   7.933
 6548SOL    HW221477  10.186  10.913   7.782
 6549SOL     OW21478   9.454   5.145   4.729
 6549SOL    HW121479   9.416   5.063   4.697
 6549SOL    HW221480   9.549   5.133   4.720
 6550SOL     OW21481   1.362  12.805   8.524
 6550SOL    HW121482   1.439  12.848   8.486
 6550SOL    HW221483   1.292  12.871   8.518
 6551SOL     OW21484   8.754   9.844   5.480
 6551SOL    HW121485   8.679   9.827   5.538
 6551SOL    HW221486   8.794   9.758   5.467
 6552SOL     OW21487   3.953   9.291   2.218
 6552SOL    HW121488   3.899   9.364   2.247
 6552SOL    HW221489   3.962   9.236   2.296
 6553SOL     OW21490  12.672   0.596  10.692
 6553SOL    HW121491  12.660   0.516  10.640
 6553SOL    HW221492  12.596   0.650  10.669
 6554SOL     OW21493  14.759  13.642   2.117
 6554SOL    HW121494  14.812  13.711   2.076
 6554SOL    HW221495  14.754  13.573   2.050
 6555SOL     OW21496   0.153   6.698  11.323
 6555SOL    HW121497   0.122   6.629  11.382
 6555SOL    HW221498   0.075   6.725  11.275
 6556SOL     OW21499  14.099   3.012   0.045
 6556SOL    HW121500  14.124   3.094   0.089
 6556SOL    HW221501  14.063   3.041  14.837
 6557SOL     OW21502  12.742  12.900   4.412
 6557SOL    HW121503  12.720  12.808   4.396
 6557SOL    HW221504  12.658  12.945   4.405
 6558SOL     OW21505  10.448   1.063   6.610
 6558SOL    HW121506  10.373   1.023   6.567
 6558SOL    HW221507  10.411   1.138   6.658
 6559SOL     OW21508   5.838   1.780  13.559
 6559SOL    HW121509   5.848   1.846  13.491
 6559SOL    HW221510   5.914   1.722  13.548
 6560SOL     OW21511  14.629   0.281   0.675
 6560SOL    HW121512  14.680   0.201   0.672
 6560SOL    HW221513  14.638   0.319   0.588
 6561SOL     OW21514   0.885   2.138  13.810
 6561SOL    HW121515   0.900   2.125  13.904
 6561SOL    HW221516   0.839   2.060  13.781
 6562SOL     OW21517   9.969   6.535   1.476
 6562SOL    HW121518   9.909   6.503   1.408
 6562SOL    HW221519   9.957   6.475   1.549
 6563SOL     OW21520   0.239  11.041   1.817
 6563SOL    HW121521   0.320  11.091   1.821
 6563SOL    HW221522   0.178  11.097   1.769
 6564SOL     OW21523   0.689   0.418  11.170
 6564SOL    HW121524   0.641   0.335  11.169
 6564SOL    HW221525   0.683   0.448  11.261
 6565SOL     OW21526   1.964  10.045  14.429
 6565SOL    HW121527   1.991   9.971  14.376
 6565SOL    HW221528   1.987  10.021  14.519
 6566SOL     OW21529  12.298   1.745   0.974
 6566SOL    HW121530  12.262   1.710   1.056
 6566SOL    HW221531  12.348   1.822   1.001
 6567SOL     OW21532   0.514   1.123   8.104
 6567SOL    HW121533   0.434   1.116   8.155
 6567SOL    HW221534   0.485   1.146   8.016
 6568SOL     OW21535   0.558   9.072  12.216
 6568SOL    HW121536   0.549   9.078  12.311
 6568SOL    HW221537   0.644   9.034  12.202
 6569SOL     OW21538   6.956   7.111  13.002
 6569SOL    HW121539   7.029   7.081  12.947
 6569SOL    HW221540   6.990   7.107  13.092
 6570SOL     OW21541   5.132   8.311   4.978
 6570SOL    HW121542   5.181   8.393   4.971
 6570SOL    HW221543   5.168   8.255   4.908
 6571SOL     OW21544  12.168   6.949   1.627
 6571SOL    HW121545  12.213   6.867   1.644
 6571SOL    HW221546  12.224   6.995   1.565
 6572SOL     OW21547   5.583  14.049  14.386
 6572SOL    HW121548   5.524  14.111  14.342
 6572SOL    HW221549   5.606  13.985  14.318
 6573SOL     OW21550   5.926  13.654   5.862
 6573SOL    HW121551   6.018  13.638   5.883
 6573SOL    HW221552   5.919  13.631   5.769
 6574SOL     OW21553   0.328  13.002   2.402
 6574SOL    HW121554   0.297  12.971   2.317
 6574SOL    HW221555   0.421  12.982   2.403
 6575SOL     OW21556  13.767   4.941   5.319
 6575SOL    HW121557  13.840   4.918   5.378
 6575SOL    HW221558  13.701   4.978   5.378
 6576SOL     OW21559   2.715  13.267  14.285
 6576SOL    HW121560   2.754  13.202  14.344
 6576SOL    HW221561   2.788  13.299  14.232
 6577SOL     OW21562   6.595   9.645  10.312
 6577SOL    HW121563   6.538   9.637  10.236
 6577SOL    HW221564   6.540   9.617  10.386
 6578SOL     OW21565   0.901  11.902  12.870
 6578SOL    HW121566   0.857  11.985  12.892
 6578SOL    HW221567   0.842  11.860  12.807
 6579SOL     OW21568   2.677   9.359   6.913
 6579SOL    HW121569   2.650   9.331   7.001
 6579SOL    HW221570   2.667   9.454   6.915
 6580SOL     OW21571  14.544  13.762   3.068
 6580SOL    HW121572  14.492  13.685   3.093
 6580SOL    HW221573  14.497  13.799   2.993
 6581SOL     OW21574  13.724  13.109  11.294
 6581SOL    HW121575  13.651  13.048  11.283
 6581SOL    HW221576  13.773  13.074  11.368
 6582SOL     OW21577   6.421  10.710  10.959
 6582SOL    HW121578   6.390  10.653  11.030
 6582SOL    HW221579   6.386  10.796  10.981
 6583SOL     OW21580   5.469  11.793   3.609
 6583SOL    HW121581   5.512  11.745   3.537
 6583SOL    HW221582   5.466  11.730   3.681
 6584SOL     OW21583   7.975   2.398  13.490
 6584SOL    HW121584   7.950   2.339  13.419
 6584SOL    HW221585   7.965   2.486  13.453
 6585SOL     OW21586   2.444   6.291   2.680
 6585SOL    HW121587   2.475   6.243   2.604
 6585SOL    HW221588   2.363   6.247   2.706
 6586SOL     OW21589  13.457   9.317   3.940
 6586SOL    HW121590  13.374   9.348   3.975
 6586SOL    HW221591  13.518   9.389   3.957
 6587SOL     OW21592   4.230   9.285   8.528
 6587SOL    HW121593   4.309   9.260   8.576
 6587SOL    HW221594   4.202   9.204   8.485
 6588SOL     OW21595   1.328   9.367   6.707
 6588SOL    HW121596   1.331   9.331   6.618
 6588SOL    HW221597   1.419   9.375   6.733
 6589SOL     OW21598  12.524  12.245   2.299
 6589SOL    HW121599  12.464  12.307   2.259
 6589SOL    HW221600  12.475  12.163   2.303
 6590SOL     OW21601  14.799   6.921   6.853
 6590SOL    HW121602  14.732   6.966   6.801
 6590SOL    HW221603  14.838   6.990   6.907
 6591SOL     OW21604  12.741  11.153   9.025
 6591SOL    HW121605  12.800  11.117   8.958
 6591SOL    HW221606  12.699  11.076   9.063
 6592SOL     OW21607   7.069  10.602   0.457
 6592SOL    HW121608   7.142  10.620   0.398
 6592SOL    HW221609   7.072  10.508   0.471
 6593SOL     OW21610   8.554  14.156   1.111
 6593SOL    HW121611   8.462  14.179   1.121
 6593SOL    HW221612   8.586  14.145   1.201
 6594SOL     OW21613  12.509   1.721   0.608
 6594SOL    HW121614  12.559   1.726   0.690
 6594SOL    HW221615  12.418   1.707   0.635
 6595SOL     OW21616  13.622   0.148  11.465
 6595SOL    HW121617  13.642   0.153  11.559
 6595SOL    HW221618  13.555   0.080  11.458
 6596SOL     OW21619  13.475   9.558   9.747
 6596SOL    HW121620  13.558   9.531   9.788
 6596SOL    HW221621  13.492   9.550   9.653
 6597SOL     OW21622   7.390   8.252   3.698
 6597SOL    HW121623   7.395   8.328   3.756
 6597SOL    HW221624   7.414   8.178   3.753
 6598SOL     OW21625   4.507   8.468  14.185
 6598SOL    HW121626   4.419   8.432  14.177
 6598SOL    HW221627   4.492   8.561  14.203
 6599SOL     OW21628   4.081  13.253   2.497
 6599SOL    HW121629   4.041  13.169   2.474
 6599SOL    HW221630   4.118  13.285   2.415
 6600SOL     OW21631   4.472   6.628   0.092
 6600SOL    HW121632   4.425   6.614   0.174
 6600SOL    HW221633   4.469   6.543   0.048
 6601SOL     OW21634   6.237   3.250  14.543
 6601SOL    HW121635   6.249   3.326  14.486
 6601SOL    HW221636   6.148   3.221  14.525
 6602SOL     OW21637  12.070  10.057  10.532
 6602SOL    HW121638  12.150  10.042  10.481
 6602SOL    HW221639  12.003  10.075  10.466
 6603SOL     OW21640  10.939   5.163   2.316
 6603SOL    HW121641  10.985   5.233   2.269
 6603SOL    HW221642  10.974   5.082   2.279
 6604SOL     OW21643  11.644  12.493  11.721
 6604SOL    HW121644  11.737  12.506  11.734
 6604SOL    HW221645  11.620  12.556  11.654
 6605SOL     OW21646   1.935  13.704   6.164
 6605SOL    HW121647   2.023  13.711   6.128
 6605SOL    HW221648   1.918  13.788   6.205
 6606SOL     OW21649  13.900  14.131  10.602
 6606SOL    HW121650  13.857  14.196  10.547
 6606SOL    HW221651  13.937  14.183  10.674
 6607SOL     OW21652   0.912   6.600  12.363
 6607SOL    HW121653   0.859   6.624  12.439
 6607SOL    HW221654   0.946   6.683  12.330
 6608SOL     OW21655   4.942  14.034  10.800
 6608SOL    HW121656   4.996  13.960  10.830
 6608SOL    HW221657   4.862  13.993  10.768
 6609SOL     OW21658  11.361  10.013   7.771
 6609SOL    HW121659  11.286  10.014   7.712
 6609SOL    HW221660  11.400   9.926   7.760
 6610SOL     OW21661   5.588  12.032   9.761
 6610SOL    HW121662   5.622  12.074   9.682
 6610SOL    HW221663   5.648  11.960   9.779
 6611SOL     OW21664   6.239   4.575   6.568
 6611SOL    HW121665   6.226   4.636   6.641
 6611SOL    HW221666   6.156   4.577   6.521
 6612SOL     OW21667   4.781  10.226  12.753
 6612SOL    HW121668   4.731  10.298  12.716
 6612SOL    HW221669   4.786  10.161  12.683
 6613SOL     OW21670   2.212   7.445   2.876
 6613SOL    HW121671   2.215   7.529   2.830
 6613SOL    HW221672   2.127   7.408   2.853
 6614SOL     OW21673   7.219   8.131   8.074
 6614SOL    HW121674   7.126   8.151   8.081
 6614SOL    HW221675   7.225   8.068   8.002
 6615SOL     OW21676   4.118  10.141   9.044
 6615SOL    HW121677   4.126  10.181   9.131
 6615SOL    HW221678   4.124  10.047   9.061
 6616SOL     OW21679   8.926   5.219   1.792
 6616SOL    HW121680   9.006   5.205   1.842
 6616SOL    HW221681   8.929   5.153   1.723
 6617SOL     OW21682   6.964   8.668  14.038
 6617SOL    HW121683   6.922   8.721  14.106
 6617SOL    HW221684   7.056   8.666  14.064
 6618SOL     OW21685  12.812   4.894   1.028
 6618SOL    HW121686  12.823   4.988   1.017
 6618SOL    HW221687  12.898   4.857   1.009
 6619SOL     OW21688   7.377   4.913   7.072
 6619SOL    HW121689   7.439   4.970   7.117
 6619SOL    HW221690   7.395   4.927   6.979
 6620SOL     OW21691  11.816  12.561  13.273
 6620SOL    HW121692  11.805  12.651  13.244
 6620SOL    HW221693  11.728  12.532  13.296
 6621SOL     OW21694  14.294   0.829   6.347
 6621SOL    HW121695  14.350   0.886   6.401
 6621SOL    HW221696  14.225   0.887   6.315
 6622SOL     OW21697   4.783  11.927   0.570
 6622SOL    HW121698   4.689  11.911   0.573
 6622SOL    HW221699   4.792  12.021   0.581
 6623SOL     OW21700  14.275  10.136   0.267
 6623SOL    HW121701  14.367  10.128   0.243
 6623SOL    HW221702  14.259  10.063   0.326
 6624SOL     OW21703   1.725   1.432   6.271
 6624SOL    HW121704   1.642   1.448   6.226
 6624SOL    HW221705   1.791   1.445   6.203
 6625SOL     OW21706   6.162  14.700   1.906
 6625SOL    HW121707   6.097  14.767   1.926
 6625SOL    HW221708   6.140  14.672   1.817
 6626SOL     OW21709   4.410   5.908   4.528
 6626SOL    HW121710   4.390   5.837   4.589
 6626SOL    HW221711   4.505   5.917   4.530
 6627SOL     OW21712  12.194   6.114   7.102
 6627SOL    HW121713  12.267   6.175   7.106
 6627SOL    HW221714  12.191   6.075   7.189
 6628SOL     OW21715   8.231  10.396  12.239
 6628SOL    HW121716   8.270  10.476  12.275
 6628SOL    HW221717   8.289  10.372  12.167
 6629SOL     OW21718   1.993   7.757  10.467
 6629SOL    HW121719   1.916   7.740  10.412
 6629SOL    HW221720   2.057   7.795  10.407
 6630SOL     OW21721  11.259   8.383  12.059
 6630SOL    HW121722  11.312   8.463  12.065
 6630SOL    HW221723  11.269   8.355  11.968
 6631SOL     OW21724   6.976   8.054   0.699
 6631SOL    HW121725   7.065   8.051   0.734
 6631SOL    HW221726   6.966   7.972   0.651
 6632SOL     OW21727   7.370   9.484  12.116
 6632SOL    HW121728   7.414   9.527  12.043
 6632SOL    HW221729   7.438   9.473  12.182
 6633SOL     OW21730  13.388   3.388  11.020
 6633SOL    HW121731  13.380   3.292  11.017
 6633SOL    HW221732  13.298   3.420  11.020
 6634SOL     OW21733   7.010  12.570   1.043
 6634SOL    HW121734   6.935  12.620   1.076
 6634SOL    HW221735   6.975  12.523   0.967
 6635SOL     OW21736   5.135   1.323   9.233
 6635SOL    HW121737   5.074   1.256   9.263
 6635SOL    HW221738   5.221   1.279   9.236
 6636SOL     OW21739   8.582  10.746   5.129
 6636SOL    HW121740   8.609  10.657   5.152
 6636SOL    HW221741   8.533  10.777   5.205
 6637SOL     OW21742  12.479  11.438  10.784
 6637SOL    HW121743  12.541  11.366  10.799
 6637SOL    HW221744  12.394  11.396  10.779
 6638SOL     OW21745  14.564   5.902   2.224
 6638SOL    HW121746  14.481   5.937   2.193
 6638SOL    HW221747  14.546   5.875   2.314
 6639SOL     OW21748   6.723  12.092   0.886
 6639SOL    HW121749   6.751  12.039   0.960
 6639SOL    HW221750   6.686  12.171   0.925
 6640SOL     OW21751  10.815  11.579   4.526
 6640SOL    HW121752  10.735  11.596   4.575
 6640SOL    HW221753  10.785  11.563   4.436
 6641SOL     OW21754   0.763   2.844   0.408
 6641SOL    HW121755   0.794   2.887   0.487
 6641SOL    HW221756   0.837   2.792   0.378
 6642SOL     OW21757   3.755  12.174  13.977
 6642SOL    HW121758   3.778  12.214  14.061
 6642SOL    HW221759   3.662  12.152  13.985
 6643SOL     OW21760   9.527  10.494   9.095
 6643SOL    HW121761   9.519  10.521   9.187
 6643SOL    HW221762   9.474  10.414   9.089
 6644SOL     OW21763   4.415   6.156   8.745
 6644SOL    HW121764   4.510   6.148   8.746
 6644SOL    HW221765   4.385   6.078   8.698
 6645SOL     OW21766  14.185  11.593  12.255
 6645SOL    HW121767  14.110  11.556  12.209
 6645SOL    HW221768  14.168  11.687  12.258
 6646SOL     OW21769   1.888   3.504   1.850
 6646SOL    HW121770   1.949   3.561   1.896
 6646SOL    HW221771   1.927   3.417   1.857
 6647SOL     OW21772   2.371   3.902   4.781
 6647SOL    HW121773   2.364   3.838   4.851
 6647SOL    HW221774   2.296   3.959   4.793
 6648SOL     OW21775  11.313   1.902  13.922
 6648SOL    HW121776  11.237   1.910  13.979
 6648SOL    HW221777  11.277   1.883  13.836
 6649SOL     OW21778   1.959   5.272   3.242
 6649SOL    HW121779   2.044   5.279   3.200
 6649SOL    HW221780   1.901   5.325   3.186
 6650SOL     OW21781   9.709  14.609   6.654
 6650SOL    HW121782   9.709  14.696   6.614
 6650SOL    HW221783   9.638  14.562   6.610
 6651SOL     OW21784   2.483  11.949  11.949
 6651SOL    HW121785   2.443  12.025  11.906
 6651SOL    HW221786   2.424  11.929  12.022
 6652SOL     OW21787   4.042   7.240   7.004
 6652SOL    HW121788   4.103   7.278   7.068
 6652SOL    HW221789   3.975   7.307   6.992
 6653SOL     OW21790  11.904   3.406   6.283
 6653SOL    HW121791  11.920   3.422   6.190
 6653SOL    HW221792  11.828   3.460   6.304
 6654SOL     OW21793   1.948   4.851   4.184
 6654SOL    HW121794   1.898   4.783   4.140
 6654SOL    HW221795   1.882   4.905   4.228
 6655SOL     OW21796   9.313   8.013  13.053
 6655SOL    HW121797   9.330   8.106  13.037
 6655SOL    HW221798   9.228   8.012  13.097
 6656SOL     OW21799   7.879   3.777  11.965
 6656SOL    HW121800   7.884   3.873  11.957
 6656SOL    HW221801   7.830   3.763  12.045
 6657SOL     OW21802   1.724  10.444   0.412
 6657SOL    HW121803   1.646  10.486   0.376
 6657SOL    HW221804   1.734  10.482   0.499
 6658SOL     OW21805   7.040   1.673   0.570
 6658SOL    HW121806   7.020   1.638   0.657
 6658SOL    HW221807   7.001   1.611   0.509
 6659SOL     OW21808   1.745  11.695   8.919
 6659SOL    HW121809   1.673  11.664   8.975
 6659SOL    HW221810   1.779  11.616   8.878
 6660SOL     OW21811   7.001   0.366  13.503
 6660SOL    HW121812   7.046   0.451  13.505
 6660SOL    HW221813   7.068   0.304  13.477
 6661SOL     OW21814   6.303   2.261   6.301
 6661SOL    HW121815   6.262   2.244   6.385
 6661SOL    HW221816   6.321   2.355   6.302
 6662SOL     OW21817   2.887   5.908   9.970
 6662SOL    HW121818   2.805   5.918  10.018
 6662SOL    HW221819   2.950   5.881  10.036
 6663SOL     OW21820   6.822   0.996   4.114
 6663SOL    HW121821   6.817   0.909   4.153
 6663SOL    HW221822   6.905   1.032   4.144
 6664SOL     OW21823   2.578  10.807  14.569
 6664SOL    HW121824   2.618  10.802  14.483
 6664SOL    HW221825   2.630  10.748  14.623
 6665SOL     OW21826   7.878   2.815  13.893
 6665SOL    HW121827   7.881   2.772  13.808
 6665SOL    HW221828   7.921   2.899  13.879
 6666SOL     OW21829   7.620   4.021  11.940
 6666SOL    HW121830   7.575   3.936  11.940
 6666SOL    HW221831   7.552   4.084  11.914
 6667SOL     OW21832  10.407   8.540   8.649
 6667SOL    HW121833  10.458   8.467   8.613
 6667SOL    HW221834  10.447   8.558   8.734
 6668SOL     OW21835  12.326  10.782  13.899
 6668SOL    HW121836  12.411  10.825  13.911
 6668SOL    HW221837  12.266  10.831  13.955
 6669SOL     OW21838   2.369   6.504  10.857
 6669SOL    HW121839   2.282   6.519  10.819
 6669SOL    HW221840   2.428   6.556  10.804
 6670SOL     OW21841   4.751  10.720   1.269
 6670SOL    HW121842   4.839  10.726   1.231
 6670SOL    HW221843   4.700  10.786   1.222
 6671SOL     OW21844   1.588   0.321  13.697
 6671SOL    HW121845   1.645   0.324  13.774
 6671SOL    HW221846   1.641   0.357  13.626
 6672SOL     OW21847   2.956   2.380   6.431
 6672SOL    HW121848   2.900   2.334   6.493
 6672SOL    HW221849   3.025   2.418   6.486
 6673SOL     OW21850   3.450   1.751   1.841
 6673SOL    HW121851   3.397   1.829   1.830
 6673SOL    HW221852   3.511   1.773   1.912
 6674SOL     OW21853  11.929  14.815  13.725
 6674SOL    HW121854  12.009  14.797  13.675
 6674SOL    HW221855  11.916  14.735  13.777
 6675SOL     OW21856   6.315   8.954   7.252
 6675SOL    HW121857   6.377   9.006   7.304
 6675SOL    HW221858   6.368   8.883   7.216
 6676SOL     OW21859   4.927  11.522  10.342
 6676SOL    HW121860   4.847  11.483  10.307
 6676SOL    HW221861   4.979  11.447  10.372
 6677SOL     OW21862  12.183  14.225   7.362
 6677SOL    HW121863  12.099  14.179   7.356
 6677SOL    HW221864  12.248  14.156   7.373
 6678SOL     OW21865  11.567  12.910   7.628
 6678SOL    HW121866  11.481  12.870   7.636
 6678SOL    HW221867  11.575  12.930   7.534
 6679SOL     OW21868  13.781  10.190   1.192
 6679SOL    HW121869  13.780  10.260   1.257
 6679SOL    HW221870  13.849  10.217   1.130
 6680SOL     OW21871   3.552   5.278   0.418
 6680SOL    HW121872   3.607   5.223   0.362
 6680SOL    HW221873   3.502   5.332   0.357
 6681SOL     OW21874  11.565   3.767   2.154
 6681SOL    HW121875  11.514   3.705   2.206
 6681SOL    HW221876  11.569   3.728   2.067
 6682SOL     OW21877   2.139  12.515  11.323
 6682SOL    HW121878   2.085  12.510  11.244
 6682SOL    HW221879   2.083  12.557  11.388
 6683SOL     OW21880   1.078   0.716   1.638
 6683SOL    HW121881   1.029   0.654   1.585
 6683SOL    HW221882   1.121   0.773   1.575
 6684SOL     OW21883   1.712  12.440   4.773
 6684SOL    HW121884   1.637  12.431   4.714
 6684SOL    HW221885   1.693  12.519   4.823
 6685SOL     OW21886   7.302  11.368  14.700
 6685SOL    HW121887   7.309  11.460  14.725
 6685SOL    HW221888   7.209  11.349  14.703
 6686SOL     OW21889   2.381   6.733   2.459
 6686SOL    HW121890   2.301   6.713   2.411
 6686SOL    HW221891   2.429   6.650   2.461
 6687SOL     OW21892   9.078   5.969  12.357
 6687SOL    HW121893   9.110   5.879  12.356
 6687SOL    HW221894   9.141   6.018  12.304
 6688SOL     OW21895   9.257   8.547  10.199
 6688SOL    HW121896   9.307   8.629  10.192
 6688SOL    HW221897   9.168   8.575  10.218
 6689SOL     OW21898   7.878  11.861  12.457
 6689SOL    HW121899   7.970  11.836  12.468
 6689SOL    HW221900   7.841  11.859  12.545
 6690SOL     OW21901   5.060   0.995  10.874
 6690SOL    HW121902   4.984   0.979  10.818
 6690SOL    HW221903   5.038   0.952  10.957
 6691SOL     OW21904  12.199   6.636   4.606
 6691SOL    HW121905  12.217   6.542   4.598
 6691SOL    HW221906  12.108   6.641   4.635
 6692SOL     OW21907   3.303   2.812  11.558
 6692SOL    HW121908   3.224   2.767  11.529
 6692SOL    HW221909   3.375   2.768  11.511
 6693SOL     OW21910  12.166   1.009   1.330
 6693SOL    HW121911  12.075   0.992   1.307
 6693SOL    HW221912  12.217   0.969   1.259
 6694SOL     OW21913   4.695  13.986   1.828
 6694SOL    HW121914   4.752  14.063   1.840
 6694SOL    HW221915   4.748  13.912   1.856
 6695SOL     OW21916   1.956   9.118   0.867
 6695SOL    HW121917   1.960   9.149   0.776
 6695SOL    HW221918   1.994   9.190   0.918
 6696SOL     OW21919   2.092   0.648   0.481
 6696SOL    HW121920   2.149   0.602   0.419
 6696SOL    HW221921   2.008   0.653   0.437
 6697SOL     OW21922   1.721   2.583   8.726
 6697SOL    HW121923   1.795   2.547   8.676
 6697SOL    HW221924   1.750   2.580   8.817
 6698SOL     OW21925  11.176   4.908   8.497
 6698SOL    HW121926  11.171   5.004   8.501
 6698SOL    HW221927  11.222   4.890   8.415
 6699SOL     OW21928   9.522   4.953   9.721
 6699SOL    HW121929   9.605   5.000   9.732
 6699SOL    HW221930   9.537   4.893   9.648
 6700SOL     OW21931   5.307   5.409  11.147
 6700SOL    HW121932   5.222   5.408  11.103
 6700SOL    HW221933   5.338   5.319  11.141
 6701SOL     OW21934   2.205   3.992  10.184
 6701SOL    HW121935   2.130   4.031  10.229
 6701SOL    HW221936   2.274   4.058  10.190
 6702SOL     OW21937   7.249   7.541  11.257
 6702SOL    HW121938   7.242   7.541  11.162
 6702SOL    HW221939   7.160   7.522  11.288
 6703SOL     OW21940   1.271   7.927   2.153
 6703SOL    HW121941   1.234   7.915   2.241
 6703SOL    HW221942   1.196   7.951   2.099
 6704SOL     OW21943   5.851   0.413   6.701
 6704SOL    HW121944   5.831   0.325   6.734
 6704SOL    HW221945   5.873   0.399   6.609
 6705SOL     OW21946  14.201   8.650   3.032
 6705SOL    HW121947  14.194   8.645   2.937
 6705SOL    HW221948  14.244   8.569   3.058
 6706SOL     OW21949   0.818  10.799   5.467
 6706SOL    HW121950   0.787  10.723   5.516
 6706SOL    HW221951   0.849  10.860   5.534
 6707SOL     OW21952   6.229   5.336   9.855
 6707SOL    HW121953   6.298   5.382   9.805
 6707SOL    HW221954   6.179   5.290   9.788
 6708SOL     OW21955   8.106   8.601   3.370
 6708SOL    HW121956   8.166   8.528   3.383
 6708SOL    HW221957   8.081   8.627   3.459
 6709SOL     OW21958   7.988  10.223   0.639
 6709SOL    HW121959   8.036  10.278   0.577
 6709SOL    HW221960   7.917  10.279   0.671
 6710SOL     OW21961   9.463  13.437   7.207
 6710SOL    HW121962   9.430  13.523   7.181
 6710SOL    HW221963   9.554  13.436   7.178
 6711SOL     OW21964  10.105  11.544   4.957
 6711SOL    HW121965  10.189  11.588   4.941
 6711SOL    HW221966  10.117  11.456   4.922
 6712SOL     OW21967   6.720   1.592   5.331
 6712SOL    HW121968   6.806   1.577   5.370
 6712SOL    HW221969   6.661   1.606   5.405
 6713SOL     OW21970  14.166   7.999  14.652
 6713SOL    HW121971  14.181   8.049  14.732
 6713SOL    HW221972  14.075   7.971  14.657
 6714SOL     OW21973   0.476   0.964  14.362
 6714SOL    HW121974   0.411   0.935  14.427
 6714SOL    HW221975   0.534   1.022  14.411
 6715SOL     OW21976  13.773   3.948  13.379
 6715SOL    HW121977  13.690   3.953  13.426
 6715SOL    HW221978  13.753   3.983  13.292
 6716SOL     OW21979   5.257   3.329   2.227
 6716SOL    HW121980   5.279   3.326   2.320
 6716SOL    HW221981   5.291   3.246   2.192
 6717SOL     OW21982  12.197   7.553   6.897
 6717SOL    HW121983  12.249   7.602   6.960
 6717SOL    HW221984  12.110   7.592   6.902
 6718SOL     OW21985   3.038   5.129   4.618
 6718SOL    HW121986   2.976   5.138   4.546
 6718SOL    HW221987   2.991   5.163   4.695
 6719SOL     OW21988   0.409   9.649  10.066
 6719SOL    HW121989   0.394   9.736  10.102
 6719SOL    HW221990   0.476   9.662   9.999
 6720SOL     OW21991   2.975   3.221  11.345
 6720SOL    HW121992   2.960   3.297  11.403
 6720SOL    HW221993   2.997   3.150  11.405
 6721SOL     OW21994   3.883   9.222   3.426
 6721SOL    HW121995   3.978   9.216   3.413
 6721SOL    HW221996   3.867   9.315   3.441
 6722SOL     OW21997   2.911   0.576   2.996
 6722SOL    HW121998   2.843   0.584   2.929
 6722SOL    HW221999   2.874   0.619   3.073
 6723SOL     OW22000  11.127   1.965   0.774
 6723SOL    HW122001  11.057   1.986   0.712
 6723SOL    HW222002  11.082   1.934   0.852
 6724SOL     OW22003   6.755   5.157   3.689
 6724SOL    HW122004   6.817   5.163   3.617
 6724SOL    HW222005   6.764   5.239   3.737
 6725SOL     OW22006   9.980   9.844   3.576
 6725SOL    HW122007   9.946   9.774   3.631
 6725SOL    HW222008  10.014   9.909   3.638
 6726SOL     OW22009  11.741   3.084   8.250
 6726SOL    HW122010  11.754   3.158   8.190
 6726SOL    HW222011  11.818   3.087   8.308
 6727SOL     OW22012   8.838   2.795  10.473
 6727SOL    HW122013   8.838   2.752  10.559
 6727SOL    HW222014   8.815   2.886  10.492
 6728SOL     OW22015  11.937   9.409  12.233
 6728SOL    HW122016  11.973   9.327  12.267
 6728SOL    HW222017  11.844   9.406  12.255
 6729SOL     OW22018  11.228   6.567   1.405
 6729SOL    HW122019  11.153   6.533   1.455
 6729SOL    HW222020  11.305   6.543   1.457
 6730SOL     OW22021   4.887   4.953   3.257
 6730SOL    HW122022   4.838   4.909   3.188
 6730SOL    HW222023   4.949   4.886   3.288
 6731SOL     OW22024   6.179   5.803   4.007
 6731SOL    HW122025   6.185   5.740   3.936
 6731SOL    HW222026   6.232   5.766   4.077
 6732SOL     OW22027   4.644   5.992   8.895
 6732SOL    HW122028   4.568   5.936   8.912
 6732SOL    HW222029   4.714   5.930   8.874
 6733SOL     OW22030   2.004   7.828   9.304
 6733SOL    HW122031   1.983   7.902   9.247
 6733SOL    HW222032   1.937   7.763   9.286
 6734SOL     OW22033   0.612   4.759   0.154
 6734SOL    HW122034   0.587   4.807   0.075
 6734SOL    HW222035   0.539   4.699   0.169
 6735SOL     OW22036  12.937   9.698   7.133
 6735SOL    HW122037  12.992   9.739   7.200
 6735SOL    HW222038  12.983   9.716   7.051
 6736SOL     OW22039  13.275   3.570   0.583
 6736SOL    HW122040  13.316   3.657   0.581
 6736SOL    HW222041  13.232   3.562   0.499
 6737SOL     OW22042  13.903   1.187   0.699
 6737SOL    HW122043  13.819   1.210   0.659
 6737SOL    HW222044  13.957   1.266   0.690
 6738SOL     OW22045  11.391  13.606   8.921
 6738SOL    HW122046  11.457  13.644   8.863
 6738SOL    HW222047  11.436  13.596   9.005
 6739SOL     OW22048   4.753   1.375  13.921
 6739SOL    HW122049   4.812   1.351  13.850
 6739SOL    HW222050   4.722   1.291  13.955
 6740SOL     OW22051  11.807  11.294   5.874
 6740SOL    HW122052  11.783  11.290   5.967
 6740SOL    HW222053  11.727  11.321   5.829
 6741SOL     OW22054  11.145  10.140  12.704
 6741SOL    HW122055  11.063  10.103  12.736
 6741SOL    HW222056  11.158  10.099  12.618
 6742SOL     OW22057   2.441  11.944   4.203
 6742SOL    HW122058   2.521  11.923   4.252
 6742SOL    HW222059   2.469  11.949   4.112
 6743SOL     OW22060   9.092   9.620   8.955
 6743SOL    HW122061   9.110   9.695   8.899
 6743SOL    HW222062   9.055   9.658   9.035
 6744SOL     OW22063   7.569  14.763   5.415
 6744SOL    HW122064   7.655  14.793   5.384
 6744SOL    HW222065   7.589  14.715   5.495
 6745SOL     OW22066  12.942  13.760   8.704
 6745SOL    HW122067  12.962  13.843   8.660
 6745SOL    HW222068  12.994  13.695   8.657
 6746SOL     OW22069  11.491   9.693   1.741
 6746SOL    HW122070  11.557   9.631   1.772
 6746SOL    HW222071  11.429   9.701   1.814
 6747SOL     OW22072   5.125   1.924   5.546
 6747SOL    HW122073   5.056   1.975   5.503
 6747SOL    HW222074   5.181   1.894   5.475
 6748SOL     OW22075   8.103  10.339   7.544
 6748SOL    HW122076   8.129  10.410   7.486
 6748SOL    HW222077   8.031  10.374   7.595
 6749SOL     OW22078  12.843   2.020  13.616
 6749SOL    HW122079  12.860   2.044  13.525
 6749SOL    HW222080  12.833   2.104  13.661
 6750SOL     OW22081  13.715   2.619   8.666
 6750SOL    HW122082  13.786   2.556   8.676
 6750SOL    HW222083  13.754   2.703   8.693
 6751SOL     OW22084   5.765   3.441   2.016
 6751SOL    HW122085   5.854   3.416   1.990
 6751SOL    HW222086   5.777   3.519   2.070
 6752SOL     OW22087   2.422   3.675   1.542
 6752SOL    HW122088   2.451   3.604   1.599
 6752SOL    HW222089   2.400   3.632   1.459
 6753SOL     OW22090  10.934  11.256   8.330
 6753SOL    HW122091  10.979  11.338   8.350
 6753SOL    HW222092  10.961  11.235   8.241
 6754SOL     OW22093  14.134   8.230  14.192
 6754SOL    HW122094  14.082   8.199  14.117
 6754SOL    HW222095  14.112   8.170  14.263
 6755SOL     OW22096  12.030   2.266  11.458
 6755SOL    HW122097  11.999   2.188  11.504
 6755SOL    HW222098  12.007   2.339  11.516
 6756SOL     OW22099  10.988  11.614   2.380
 6756SOL    HW122100  10.990  11.533   2.431
 6756SOL    HW222101  11.067  11.660   2.407
 6757SOL     OW22102  10.238  11.990   9.573
 6757SOL    HW122103  10.236  12.076   9.614
 6757SOL    HW222104  10.328  11.980   9.542
 6758SOL     OW22105   7.388   8.281  11.401
 6758SOL    HW122106   7.454   8.247  11.460
 6758SOL    HW222107   7.433   8.350  11.352
 6759SOL     OW22108   0.261   2.972  13.066
 6759SOL    HW122109   0.206   2.895  13.053
 6759SOL    HW222110   0.302   2.959  13.152
 6760SOL     OW22111   2.562   1.292   4.585
 6760SOL    HW122112   2.525   1.229   4.647
 6760SOL    HW222113   2.488   1.314   4.527
 6761SOL     OW22114   9.643  12.209   8.893
 6761SOL    HW122115   9.704  12.165   8.833
 6761SOL    HW222116   9.574  12.244   8.837
 6762SOL     OW22117  10.869   5.000  12.751
 6762SOL    HW122118  10.869   4.909  12.779
 6762SOL    HW222119  10.794   5.039  12.796
 6763SOL     OW22120   3.601   8.907   2.992
 6763SOL    HW122121   3.667   8.946   3.049
 6763SOL    HW222122   3.518   8.945   3.022
 6764SOL     OW22123  12.970   3.215   5.514
 6764SOL    HW122124  13.024   3.224   5.435
 6764SOL    HW222125  12.895   3.273   5.499
 6765SOL     OW22126  11.953   5.655  10.787
 6765SOL    HW122127  11.913   5.599  10.853
 6765SOL    HW222128  11.984   5.595  10.720
 6766SOL     OW22129  10.248   8.952  13.977
 6766SOL    HW122130  10.309   9.026  13.971
 6766SOL    HW222131  10.174   8.985  14.027
 6767SOL     OW22132   5.728  13.950   3.641
 6767SOL    HW122133   5.748  14.034   3.681
 6767SOL    HW222134   5.787  13.888   3.685
 6768SOL     OW22135   6.347  12.234  12.985
 6768SOL    HW122136   6.358  12.217  13.078
 6768SOL    HW222137   6.365  12.328  12.975
 6769SOL     OW22138   0.497   0.477   8.820
 6769SOL    HW122139   0.533   0.524   8.745
 6769SOL    HW222140   0.558   0.495   8.891
 6770SOL     OW22141  11.828   7.252   8.862
 6770SOL    HW122142  11.792   7.330   8.819
 6770SOL    HW222143  11.909   7.234   8.814
 6771SOL     OW22144   2.659  11.649  14.546
 6771SOL    HW122145   2.754  11.639  14.546
 6771SOL    HW222146   2.626  11.560  14.531
 6772SOL     OW22147   9.145   5.448   9.519
 6772SOL    HW122148   9.194   5.527   9.493
 6772SOL    HW222149   9.059   5.481   9.545
 6773SOL     OW22150  11.053  11.864  14.653
 6773SOL    HW122151  10.969  11.818  14.658
 6773SOL    HW222152  11.090  11.855  14.741
 6774SOL     OW22153   0.053   8.647   7.792
 6774SOL    HW122154   0.027   8.685   7.876
 6774SOL    HW222155   0.048   8.720   7.730
 6775SOL     OW22156   5.453  10.345   1.640
 6775SOL    HW122157   5.444  10.408   1.568
 6775SOL    HW222158   5.364  10.330   1.671
 6776SOL     OW22159  12.601   6.423  13.418
 6776SOL    HW122160  12.550   6.355  13.462
 6776SOL    HW222161  12.646   6.376  13.348
 6777SOL     OW22162   2.638   3.144   4.113
 6777SOL    HW122163   2.672   3.092   4.186
 6777SOL    HW222164   2.648   3.087   4.036
 6778SOL     OW22165  12.407  10.653   0.015
 6778SOL    HW122166  12.409  10.587  14.821
 6778SOL    HW222167  12.484  10.707  14.875
 6779SOL     OW22168  10.902   6.612   0.005
 6779SOL    HW122169  10.878   6.583   0.092
 6779SOL    HW222170  10.997   6.597  14.876
 6780SOL     OW22171  13.997   4.990   4.153
 6780SOL    HW122172  13.928   4.935   4.190
 6780SOL    HW222173  13.976   5.078   4.183
 6781SOL     OW22174  10.984  11.474   6.611
 6781SOL    HW122175  11.034  11.396   6.634
 6781SOL    HW222176  10.899  11.462   6.653
 6782SOL     OW22177   2.791  10.210   2.700
 6782SOL    HW122178   2.756  10.267   2.768
 6782SOL    HW222179   2.748  10.125   2.714
 6783SOL     OW22180  12.600   9.908   1.859
 6783SOL    HW122181  12.617  10.002   1.870
 6783SOL    HW222182  12.591   9.897   1.764
 6784SOL     OW22183   3.824  13.079  13.177
 6784SOL    HW122184   3.917  13.070  13.198
 6784SOL    HW222185   3.794  13.149  13.235
 6785SOL     OW22186  14.071  10.382   7.183
 6785SOL    HW122187  14.041  10.399   7.093
 6785SOL    HW222188  14.055  10.464   7.229
 6786SOL     OW22189   0.740   0.945  10.718
 6786SOL    HW122190   0.706   1.006  10.784
 6786SOL    HW222191   0.664   0.893  10.693
 6787SOL     OW22192   1.942   9.369   6.155
 6787SOL    HW122193   1.851   9.397   6.153
 6787SOL    HW222194   1.953   9.328   6.241
 6788SOL     OW22195   0.572   9.685  14.384
 6788SOL    HW122196   0.632   9.757  14.367
 6788SOL    HW222197   0.510   9.720  14.448
 6789SOL     OW22198   4.207  12.224   1.102
 6789SOL    HW122199   4.297  12.257   1.102
 6789SOL    HW222200   4.168  12.261   1.024
 6790SOL     OW22201   6.110   2.508   1.104
 6790SOL    HW122202   6.030   2.497   1.053
 6790SOL    HW222203   6.177   2.528   1.038
 6791SOL     OW22204  12.813  10.783   9.033
 6791SOL    HW122205  12.902  10.810   9.013
 6791SOL    HW222206  12.822  10.707   9.090
 6792SOL     OW22207  11.277   3.276  11.710
 6792SOL    HW122208  11.283   3.347  11.773
 6792SOL    HW222209  11.183   3.257  11.704
 6793SOL     OW22210  12.892  11.117   0.184
 6793SOL    HW122211  12.852  11.136   0.099
 6793SOL    HW222212  12.926  11.028   0.175
 6794SOL     OW22213   1.605   5.715   0.552
 6794SOL    HW122214   1.626   5.801   0.589
 6794SOL    HW222215   1.639   5.653   0.616
 6795SOL     OW22216  14.001  11.939  11.468
 6795SOL    HW122217  13.973  11.879  11.398
 6795SOL    HW222218  14.095  11.950  11.454
 6796SOL     OW22219   2.410   1.258   7.268
 6796SOL    HW122220   2.363   1.177   7.290
 6796SOL    HW222221   2.450   1.240   7.183
 6797SOL     OW22222  11.146  13.471  12.002
 6797SOL    HW122223  11.188  13.498  11.920
 6797SOL    HW222224  11.172  13.380  12.013
 6798SOL     OW22225   3.803  14.300  11.072
 6798SOL    HW122226   3.853  14.365  11.022
 6798SOL    HW222227   3.825  14.216  11.032
 6799SOL     OW22228   6.445   6.779  12.405
 6799SOL    HW122229   6.416   6.701  12.358
 6799SOL    HW222230   6.458   6.846  12.337
 6800SOL     OW22231  14.849  14.255   6.496
 6800SOL    HW122232  14.866  14.198   6.421
 6800SOL    HW222233  14.754  14.254   6.505
 6801SOL     OW22234   1.019   5.248  11.236
 6801SOL    HW122235   1.014   5.295  11.320
 6801SOL    HW222236   1.040   5.315  11.172
 6802SOL     OW22237  10.934  11.466  14.235
 6802SOL    HW122238  10.864  11.413  14.272
 6802SOL    HW222239  10.902  11.491  14.148
 6803SOL     OW22240   5.553   1.280  12.753
 6803SOL    HW122241   5.519   1.343  12.689
 6803SOL    HW222242   5.528   1.315  12.838
 6804SOL     OW22243  13.980  11.815   4.243
 6804SOL    HW122244  13.917  11.745   4.260
 6804SOL    HW222245  13.950  11.888   4.298
 6805SOL     OW22246  10.172  14.188  14.842
 6805SOL    HW122247  10.118  14.148  14.774
 6805SOL    HW222248  10.201  14.115   0.021
 6806SOL     OW22249  10.341   7.491  13.823
 6806SOL    HW122250  10.365   7.412  13.873
 6806SOL    HW222251  10.252   7.510  13.850
 6807SOL     OW22252   8.852   5.111   0.917
 6807SOL    HW122253   8.890   5.106   0.830
 6807SOL    HW222254   8.921   5.148   0.972
 6808SOL     OW22255  11.074   5.651   1.765
 6808SOL    HW122256  11.026   5.733   1.752
 6808SOL    HW222257  11.164   5.678   1.785
 6809SOL     OW22258   0.391   3.145  12.252
 6809SOL    HW122259   0.423   3.130  12.341
 6809SOL    HW222260   0.387   3.058  12.213
 6810SOL     OW22261   8.425   4.835   7.090
 6810SOL    HW122262   8.493   4.900   7.075
 6810SOL    HW222263   8.396   4.851   7.179
 6811SOL     OW22264   7.863  11.039   9.675
 6811SOL    HW122265   7.802  10.970   9.650
 6811SOL    HW222266   7.879  11.088   9.593
 6812SOL     OW22267   3.774   3.608   3.678
 6812SOL    HW122268   3.812   3.555   3.609
 6812SOL    HW222269   3.846   3.664   3.707
 6813SOL     OW22270   7.545   5.542   6.369
 6813SOL    HW122271   7.464   5.590   6.354
 6813SOL    HW222272   7.537   5.509   6.459
 6814SOL     OW22273   8.386   3.983   4.382
 6814SOL    HW122274   8.348   3.952   4.465
 6814SOL    HW222275   8.453   4.046   4.408
 6815SOL     OW22276  14.075  13.238   3.117
 6815SOL    HW122277  13.995  13.189   3.139
 6815SOL    HW222278  14.042  13.319   3.078
 6816SOL     OW22279   2.780   2.041   2.748
 6816SOL    HW122280   2.829   1.977   2.798
 6816SOL    HW222281   2.816   2.037   2.659
 6817SOL     OW22282  14.112   6.596   4.281
 6817SOL    HW122283  14.067   6.645   4.213
 6817SOL    HW222284  14.049   6.589   4.352
 6818SOL     OW22285   2.213  10.207  11.799
 6818SOL    HW122286   2.156  10.137  11.766
 6818SOL    HW222287   2.154  10.262  11.851
 6819SOL     OW22288  14.790  10.888  11.724
 6819SOL    HW122289  14.713  10.917  11.675
 6819SOL    HW222290  14.759  10.815  11.777
 6820SOL     OW22291   1.637   1.143   3.004
 6820SOL    HW122292   1.663   1.058   2.968
 6820SOL    HW222293   1.716   1.197   2.996
 6821SOL     OW22294  12.523  13.756   3.563
 6821SOL    HW122295  12.560  13.703   3.633
 6821SOL    HW222296  12.500  13.694   3.495
 6822SOL     OW22297  10.621  13.078   4.697
 6822SOL    HW122298  10.691  13.133   4.730
 6822SOL    HW222299  10.634  12.993   4.740
 6823SOL     OW22300   0.871  10.780   6.980
 6823SOL    HW122301   0.909  10.695   6.958
 6823SOL    HW222302   0.917  10.842   6.924
 6824SOL     OW22303   8.991   7.418   3.554
 6824SOL    HW122304   8.938   7.497   3.567
 6824SOL    HW222305   8.928   7.348   3.542
 6825SOL     OW22306   6.626   7.886   4.522
 6825SOL    HW122307   6.585   7.938   4.591
 6825SOL    HW222308   6.556   7.830   4.488
 6826SOL     OW22309   6.458  11.010   4.875
 6826SOL    HW122310   6.418  11.039   4.957
 6826SOL    HW222311   6.508  11.086   4.845
 6827SOL     OW22312   5.677   2.962   3.684
 6827SOL    HW122313   5.678   3.057   3.698
 6827SOL    HW222314   5.589   2.944   3.649
 6828SOL     OW22315  10.777   7.159   3.651
 6828SOL    HW122316  10.785   7.073   3.610
 6828SOL    HW222317  10.727   7.143   3.731
 6829SOL     OW22318   9.449   7.986  13.459
 6829SOL    HW122319   9.467   7.957  13.369
 6829SOL    HW222320   9.507   8.061  13.471
 6830SOL     OW22321   0.099   9.374   1.451
 6830SOL    HW122322   0.142   9.452   1.415
 6830SOL    HW222323   0.154   9.301   1.422
 6831SOL     OW22324  11.438  13.881   3.011
 6831SOL    HW122325  11.493  13.879   2.933
 6831SOL    HW222326  11.498  13.902   3.082
 6832SOL     OW22327  13.339   1.299   4.358
 6832SOL    HW122328  13.329   1.393   4.374
 6832SOL    HW222329  13.250   1.266   4.354
 6833SOL     OW22330   6.775   5.679   6.616
 6833SOL    HW122331   6.848   5.728   6.576
 6833SOL    HW222332   6.787   5.692   6.710
 6834SOL     OW22333  10.460   9.578  12.180
 6834SOL    HW122334  10.387   9.534  12.138
 6834SOL    HW222335  10.524   9.508  12.197
 6835SOL     OW22336  13.750  11.340   9.261
 6835SOL    HW122337  13.830  11.392   9.255
 6835SOL    HW222338  13.730  11.318   9.170
 6836SOL     OW22339  11.349  11.288  10.022
 6836SOL    HW122340  11.326  11.367   9.971
 6836SOL    HW222341  11.323  11.215   9.966
 6837SOL     OW22342  11.489   2.601  10.920
 6837SOL    HW122343  11.407   2.636  10.887
 6837SOL    HW222344  11.469   2.572  11.009
 6838SOL     OW22345  11.023   1.747   8.192
 6838SOL    HW122346  11.076   1.701   8.256
 6838SOL    HW222347  11.013   1.836   8.228
 6839SOL     OW22348   8.366   1.304   6.366
 6839SOL    HW122349   8.452   1.313   6.406
 6839SOL    HW222350   8.342   1.392   6.339
 6840SOL     OW22351   1.972   3.693  12.215
 6840SOL    HW122352   1.903   3.649  12.265
 6840SOL    HW222353   2.046   3.634  12.219
 6841SOL     OW22354   6.687   7.679   8.708
 6841SOL    HW122355   6.677   7.706   8.799
 6841SOL    HW222356   6.598   7.663   8.677
 6842SOL     OW22357   0.292   7.906   1.155
 6842SOL    HW122358   0.261   7.986   1.111
 6842SOL    HW222359   0.320   7.849   1.083
 6843SOL     OW22360  13.495   3.969   2.185
 6843SOL    HW122361  13.522   3.930   2.102
 6843SOL    HW222362  13.563   3.943   2.247
 6844SOL     OW22363  10.576   0.216   1.211
 6844SOL    HW122364  10.607   0.224   1.301
 6844SOL    HW222365  10.642   0.161   1.169
 6845SOL     OW22366   2.471   6.910   0.897
 6845SOL    HW122367   2.488   6.820   0.869
 6845SOL    HW222368   2.547   6.934   0.950
 6846SOL     OW22369  11.138   9.425   8.241
 6846SOL    HW122370  11.145   9.517   8.268
 6846SOL    HW222371  11.220   9.385   8.269
 6847SOL     OW22372  10.205   4.506   1.447
 6847SOL    HW122373  10.111   4.484   1.446
 6847SOL    HW222374  10.239   4.464   1.368
 6848SOL     OW22375   9.265   2.741   0.513
 6848SOL    HW122376   9.266   2.835   0.535
 6848SOL    HW222377   9.336   2.703   0.565
 6849SOL     OW22378   2.909   6.792   7.736
 6849SOL    HW122379   2.916   6.707   7.780
 6849SOL    HW222380   2.961   6.851   7.791
 6850SOL     OW22381   8.763   0.252  14.798
 6850SOL    HW122382   8.696   0.295  14.852
 6850SOL    HW222383   8.747   0.159  14.810
 6851SOL     OW22384   8.798   4.511   3.418
 6851SOL    HW122385   8.773   4.419   3.405
 6851SOL    HW222386   8.885   4.518   3.379
 6852SOL     OW22387  10.663   8.544  13.067
 6852SOL    HW122388  10.578   8.587  13.063
 6852SOL    HW222389  10.725   8.614  13.044
 6853SOL     OW22390  13.087  11.249   4.550
 6853SOL    HW122391  13.073  11.331   4.597
 6853SOL    HW222392  13.007  11.199   4.565
 6854SOL     OW22393  14.064   1.880   8.820
 6854SOL    HW122394  14.104   1.817   8.760
 6854SOL    HW222395  14.130   1.947   8.832
 6855SOL     OW22396   6.109   5.965   9.220
 6855SOL    HW122397   6.095   5.970   9.126
 6855SOL    HW222398   6.135   6.053   9.246
 6856SOL     OW22399  12.212   9.455   3.753
 6856SOL    HW122400  12.135   9.437   3.807
 6856SOL    HW222401  12.194   9.541   3.715
 6857SOL     OW22402   8.062   8.947  11.370
 6857SOL    HW122403   8.024   9.025  11.328
 6857SOL    HW222404   7.987   8.890  11.386
 6858SOL     OW22405  12.535  12.209  10.531
 6858SOL    HW122406  12.557  12.173  10.445
 6858SOL    HW222407  12.619  12.229  10.571
 6859SOL     OW22408   2.916   3.221  14.425
 6859SOL    HW122409   2.923   3.162  14.350
 6859SOL    HW222410   3.007   3.245  14.446
 6860SOL     OW22411   6.184   6.416  10.631
 6860SOL    HW122412   6.267   6.464  10.633
 6860SOL    HW222413   6.118   6.483  10.611
 6861SOL     OW22414  14.077   2.330  10.361
 6861SOL    HW122415  14.169   2.355  10.353
 6861SOL    HW222416  14.060   2.279  10.282
 6862SOL     OW22417   1.356   1.501   8.669
 6862SOL    HW122418   1.273   1.532   8.635
 6862SOL    HW222419   1.332   1.427   8.725
 6863SOL     OW22420   9.588  14.294   6.346
 6863SOL    HW122421   9.672  14.250   6.357
 6863SOL    HW222422   9.556  14.264   6.261
 6864SOL     OW22423   1.787   4.759   6.969
 6864SOL    HW122424   1.819   4.847   6.950
 6864SOL    HW222425   1.866   4.708   6.989
 6865SOL     OW22426   0.570   1.001   7.290
 6865SOL    HW122427   0.659   1.033   7.275
 6865SOL    HW222428   0.573   0.908   7.268
 6866SOL     OW22429  14.081   9.377   0.558
 6866SOL    HW122430  14.151   9.363   0.495
 6866SOL    HW222431  14.031   9.451   0.523
 6867SOL     OW22432   8.263  10.911   1.410
 6867SOL    HW122433   8.249  10.986   1.467
 6867SOL    HW222434   8.354  10.885   1.426
 6868SOL     OW22435  13.110  12.001  12.188
 6868SOL    HW122436  13.101  12.096  12.191
 6868SOL    HW222437  13.203  11.984  12.200
 6869SOL     OW22438   5.396   5.911   1.065
 6869SOL    HW122439   5.445   5.849   1.119
 6869SOL    HW222440   5.448   5.992   1.068
 6870SOL     OW22441   7.317   8.589  11.910
 6870SOL    HW122442   7.330   8.495  11.917
 6870SOL    HW222443   7.261   8.611  11.985
 6871SOL     OW22444  10.817   9.844   5.307
 6871SOL    HW122445  10.771   9.766   5.339
 6871SOL    HW222446  10.826   9.900   5.385
 6872SOL     OW22447  14.859   3.181   7.847
 6872SOL    HW122448  14.794   3.210   7.784
 6872SOL    HW222449   0.011   3.095   7.815
 6873SOL     OW22450   3.444  13.672   0.680
 6873SOL    HW122451   3.472  13.734   0.748
 6873SOL    HW222452   3.348  13.676   0.683
 6874SOL     OW22453   6.508   5.074   8.595
 6874SOL    HW122454   6.467   5.142   8.541
 6874SOL    HW222455   6.516   5.113   8.682
 6875SOL     OW22456  10.447  14.299  12.668
 6875SOL    HW122457  10.517  14.364  12.665
 6875SOL    HW222458  10.476  14.235  12.733
 6876SOL     OW22459   0.694   2.314   6.574
 6876SOL    HW122460   0.719   2.250   6.507
 6876SOL    HW222461   0.618   2.275   6.618
 6877SOL     OW22462   5.639   4.181   7.783
 6877SOL    HW122463   5.697   4.109   7.758
 6877SOL    HW222464   5.691   4.233   7.844
 6878SOL     OW22465  10.534   8.138  11.490
 6878SOL    HW122466  10.445   8.137  11.455
 6878SOL    HW222467  10.526   8.180  11.575
 6879SOL     OW22468   3.841  13.213   5.437
 6879SOL    HW122469   3.797  13.259   5.366
 6879SOL    HW222470   3.798  13.127   5.439
 6880SOL     OW22471   2.068   2.789  13.590
 6880SOL    HW122472   2.053   2.700  13.622
 6880SOL    HW222473   2.119   2.831  13.658
 6881SOL     OW22474  13.982   4.865  14.388
 6881SOL    HW122475  13.989   4.771  14.372
 6881SOL    HW222476  13.907   4.892  14.334
 6882SOL     OW22477   4.951   8.022   8.049
 6882SOL    HW122478   4.974   7.957   7.983
 6882SOL    HW222479   4.960   8.106   8.004
 6883SOL     OW22480   1.311  14.673  10.753
 6883SOL    HW122481   1.340  14.584  10.736
 6883SOL    HW222482   1.303  14.712  10.666
 6884SOL     OW22483   3.246  14.400  11.596
 6884SOL    HW122484   3.250  14.430  11.687
 6884SOL    HW222485   3.336  14.374  11.576
 6885SOL     OW22486   1.825   0.120   6.491
 6885SOL    HW122487   1.900   0.156   6.444
 6885SOL    HW222488   1.830   0.160   6.578
 6886SOL     OW22489   9.348  14.707   0.320
 6886SOL    HW122490   9.342  14.802   0.323
 6886SOL    HW222491   9.405  14.684   0.394
 6887SOL     OW22492   3.637  13.462  10.078
 6887SOL    HW122493   3.645  13.541  10.132
 6887SOL    HW222494   3.595  13.398  10.136
 6888SOL     OW22495   0.192  13.987   0.069
 6888SOL    HW122496   0.213  13.979  14.852
 6888SOL    HW222497   0.155  13.902   0.092
 6889SOL     OW22498  14.835   5.018   5.098
 6889SOL    HW122499  14.854   5.042   5.007
 6889SOL    HW222500   0.038   4.973   5.128
 6890SOL     OW22501   7.905   0.657   4.641
 6890SOL    HW122502   7.882   0.615   4.558
 6890SOL    HW222503   7.863   0.602   4.708
 6891SOL     OW22504   8.487  13.827   5.747
 6891SOL    HW122505   8.529  13.846   5.831
 6891SOL    HW222506   8.478  13.732   5.745
 6892SOL     OW22507   3.427   6.129   0.150
 6892SOL    HW122508   3.333   6.109   0.152
 6892SOL    HW222509   3.440   6.192   0.221
 6893SOL     OW22510   3.791   1.213   3.268
 6893SOL    HW122511   3.800   1.204   3.173
 6893SOL    HW222512   3.866   1.166   3.304
 6894SOL     OW22513  12.350   5.218   9.350
 6894SOL    HW122514  12.324   5.266   9.272
 6894SOL    HW222515  12.300   5.136   9.345
 6895SOL     OW22516   2.234   3.162   5.831
 6895SOL    HW122517   2.167   3.180   5.897
 6895SOL    HW222518   2.310   3.133   5.882
 6896SOL     OW22519   2.723  10.053   7.499
 6896SOL    HW122520   2.677  10.123   7.451
 6896SOL    HW222521   2.726  10.084   7.589
 6897SOL     OW22522   7.719   4.157   8.185
 6897SOL    HW122523   7.784   4.120   8.125
 6897SOL    HW222524   7.733   4.252   8.181
 6898SOL     OW22525  12.899   9.901   6.249
 6898SOL    HW122526  12.817   9.950   6.257
 6898SOL    HW222527  12.937   9.933   6.167
 6899SOL     OW22528   1.388   8.708  12.832
 6899SOL    HW122529   1.373   8.775  12.898
 6899SOL    HW222530   1.340   8.739  12.755
 6900SOL     OW22531   7.078  11.158   9.739
 6900SOL    HW122532   7.009  11.124   9.795
 6900SOL    HW222533   7.106  11.082   9.687
 6901SOL     OW22534  10.711   7.730  10.345
 6901SOL    HW122535  10.762   7.785  10.285
 6901SOL    HW222536  10.776   7.692  10.404
 6902SOL     OW22537   0.747   2.429  12.658
 6902SOL    HW122538   0.838   2.424  12.628
 6902SOL    HW222539   0.718   2.515  12.628
 6903SOL     OW22540   1.408   5.307   4.584
 6903SOL    HW122541   1.500   5.330   4.574
 6903SOL    HW222542   1.406   5.212   4.573
 6904SOL     OW22543   1.900   0.390   9.456
 6904SOL    HW122544   1.980   0.437   9.433
 6904SOL    HW222545   1.831   0.435   9.407
 6905SOL     OW22546   3.810  13.412   8.487
 6905SOL    HW122547   3.763  13.472   8.545
 6905SOL    HW222548   3.759  13.331   8.490
 6906SOL     OW22549  13.283   6.511   1.772
 6906SOL    HW122550  13.347   6.581   1.758
 6906SOL    HW222551  13.289   6.456   1.693
 6907SOL     OW22552   4.032   0.288   3.955
 6907SOL    HW122553   4.067   0.203   3.928
 6907SOL    HW222554   4.001   0.328   3.873
 6908SOL     OW22555  12.838   2.162   8.747
 6908SOL    HW122556  12.811   2.206   8.666
 6908SOL    HW222557  12.904   2.099   8.719
 6909SOL     OW22558  10.376   7.560   7.921
 6909SOL    HW122559  10.373   7.637   7.865
 6909SOL    HW222560  10.335   7.491   7.869
 6910SOL     OW22561  11.131   9.168  12.235
 6910SOL    HW122562  11.164   9.200  12.319
 6910SOL    HW222563  11.162   9.077  12.230
 6911SOL     OW22564   8.845   1.997   8.753
 6911SOL    HW122565   8.752   2.015   8.765
 6911SOL    HW222566   8.855   1.982   8.659
 6912SOL     OW22567   9.353  14.466   8.953
 6912SOL    HW122568   9.263  14.435   8.959
 6912SOL    HW222569   9.388  14.424   8.875
 6913SOL     OW22570  11.322  11.628  12.188
 6913SOL    HW122571  11.329  11.710  12.139
 6913SOL    HW222572  11.373  11.643  12.268
 6914SOL     OW22573   2.677   3.697   7.569
 6914SOL    HW122574   2.696   3.764   7.635
 6914SOL    HW222575   2.757   3.691   7.518
 6915SOL     OW22576   7.763  12.893   5.533
 6915SOL    HW122577   7.705  12.840   5.588
 6915SOL    HW222578   7.808  12.829   5.478
 6916SOL     OW22579  13.878   3.162   1.579
 6916SOL    HW122580  13.969   3.137   1.570
 6916SOL    HW222581  13.879   3.258   1.582
 6917SOL     OW22582  14.112   3.501   2.588
 6917SOL    HW122583  14.165   3.579   2.572
 6917SOL    HW222584  14.036   3.510   2.531
 6918SOL     OW22585  11.633   1.745  11.695
 6918SOL    HW122586  11.666   1.833  11.715
 6918SOL    HW222587  11.692   1.686  11.741
 6919SOL     OW22588   2.328   3.875   4.502
 6919SOL    HW122589   2.346   3.782   4.515
 6919SOL    HW222590   2.364   3.918   4.580
 6920SOL     OW22591   0.298   6.635  12.704
 6920SOL    HW122592   0.362   6.668  12.641
 6920SOL    HW222593   0.351   6.602  12.777
 6921SOL     OW22594   3.768   6.585  14.801
 6921SOL    HW122595   3.755   6.494  14.825
 6921SOL    HW222596   3.837   6.583  14.734
 6922SOL     OW22597   3.705   4.764   3.391
 6922SOL    HW122598   3.617   4.800   3.386
 6922SOL    HW222599   3.756   4.831   3.436
 6923SOL     OW22600  13.426   4.636  11.187
 6923SOL    HW122601  13.422   4.586  11.269
 6923SOL    HW222602  13.366   4.709  11.201
 6924SOL     OW22603   2.952   8.928   9.775
 6924SOL    HW122604   3.041   8.898   9.798
 6924SOL    HW222605   2.905   8.928   9.858
 6925SOL     OW22606   2.212   4.081   0.164
 6925SOL    HW122607   2.259   4.135   0.100
 6925SOL    HW222608   2.203   3.995   0.121
 6926SOL     OW22609   4.622   5.042   7.320
 6926SOL    HW122610   4.613   5.131   7.286
 6926SOL    HW222611   4.686   5.001   7.262
 6927SOL     OW22612   0.280  12.635  11.950
 6927SOL    HW122613   0.320  12.575  12.014
 6927SOL    HW222614   0.189  12.607  11.945
 6928SOL     OW22615   6.449   8.682  13.330
 6928SOL    HW122616   6.465   8.591  13.356
 6928SOL    HW222617   6.353   8.690  13.331
 6929SOL     OW22618   4.817  11.548  12.388
 6929SOL    HW122619   4.880  11.591  12.445
 6929SOL    HW222620   4.868  11.521  12.311
 6930SOL     OW22621  10.069   2.661  14.260
 6930SOL    HW122622  10.094   2.696  14.175
 6930SOL    HW222623   9.993   2.606  14.242
 6931SOL     OW22624  12.954   2.077   0.630
 6931SOL    HW122625  12.931   2.122   0.710
 6931SOL    HW222626  12.961   2.146   0.564
 6932SOL     OW22627   6.114  14.368   4.681
 6932SOL    HW122628   6.176  14.310   4.724
 6932SOL    HW222629   6.039  14.371   4.740
 6933SOL     OW22630   2.303  12.480   8.245
 6933SOL    HW122631   2.385  12.486   8.293
 6933SOL    HW222632   2.329  12.482   8.153
 6934SOL     OW22633   4.599   5.719   6.090
 6934SOL    HW122634   4.526   5.780   6.089
 6934SOL    HW222635   4.677   5.774   6.102
 6935SOL     OW22636   3.718   9.148   2.095
 6935SOL    HW122637   3.765   9.066   2.078
 6935SOL    HW222638   3.776   9.196   2.154
 6936SOL     OW22639   1.872   0.062   5.901
 6936SOL    HW122640   1.831  14.862   5.859
 6936SOL    HW222641   1.961   0.033   5.920
 6937SOL     OW22642   7.495   2.914   2.899
 6937SOL    HW122643   7.544   2.856   2.957
 6937SOL    HW222644   7.496   2.870   2.814
 6938SOL     OW22645   6.859   8.119   7.708
 6938SOL    HW122646   6.902   8.099   7.625
 6938SOL    HW222647   6.766   8.124   7.686
 6939SOL     OW22648  10.662  12.432   0.582
 6939SOL    HW122649  10.667  12.505   0.521
 6939SOL    HW222650  10.569  12.426   0.605
 6940SOL     OW22651   9.403   6.936   8.117
 6940SOL    HW122652   9.326   6.905   8.070
 6940SOL    HW222653   9.448   6.993   8.055
 6941SOL     OW22654   3.158  13.546   6.820
 6941SOL    HW122655   3.097  13.502   6.879
 6941SOL    HW222656   3.144  13.505   6.735
 6942SOL     OW22657   3.678   4.785  10.318
 6942SOL    HW122658   3.626   4.825  10.388
 6942SOL    HW222659   3.630   4.808  10.238
 6943SOL     OW22660   4.861  12.126   8.607
 6943SOL    HW122661   4.767  12.120   8.624
 6943SOL    HW222662   4.882  12.046   8.558
 6944SOL     OW22663   1.546   5.846   0.825
 6944SOL    HW122664   1.636   5.852   0.857
 6944SOL    HW222665   1.519   5.756   0.844
 6945SOL     OW22666   4.292   5.532   0.313
 6945SOL    HW122667   4.200   5.519   0.335
 6945SOL    HW222668   4.336   5.538   0.397
 6946SOL     OW22669   7.504   6.319   7.434
 6946SOL    HW122670   7.473   6.243   7.482
 6946SOL    HW222671   7.573   6.356   7.489
 6947SOL     OW22672  10.648  10.192   8.179
 6947SOL    HW122673  10.699  10.218   8.103
 6947SOL    HW222674  10.592  10.267   8.197
 6948SOL     OW22675   2.184  11.280  10.825
 6948SOL    HW122676   2.089  11.281  10.836
 6948SOL    HW222677   2.213  11.367  10.852
 6949SOL     OW22678  11.015   5.230   5.223
 6949SOL    HW122679  10.985   5.276   5.144
 6949SOL    HW222680  10.936   5.218   5.275
 6950SOL     OW22681   9.214  13.247   6.357
 6950SOL    HW122682   9.216  13.155   6.383
 6950SOL    HW222683   9.197  13.245   6.263
 6951SOL     OW22684   2.051   9.530   4.834
 6951SOL    HW122685   2.015   9.520   4.923
 6951SOL    HW222686   2.111   9.604   4.841
 6952SOL     OW22687  14.762   5.575   3.485
 6952SOL    HW122688  14.810   5.496   3.459
 6952SOL    HW222689  14.811   5.609   3.560
 6953SOL     OW22690   9.629  14.763   8.351
 6953SOL    HW122691   9.625  14.689   8.413
 6953SOL    HW222692   9.661  14.724   8.270
 6954SOL     OW22693  11.472  11.847  11.487
 6954SOL    HW122694  11.387  11.804  11.485
 6954SOL    HW222695  11.529  11.787  11.535
 6955SOL     OW22696   9.099  10.416  13.691
 6955SOL    HW122697   9.010  10.446  13.708
 6955SOL    HW222698   9.090  10.348  13.624
 6956SOL     OW22699   9.841  11.880   6.074
 6956SOL    HW122700   9.831  11.808   6.136
 6956SOL    HW222701   9.808  11.957   6.122
 6957SOL     OW22702   0.684   9.577   4.770
 6957SOL    HW122703   0.773   9.588   4.738
 6957SOL    HW222704   0.687   9.498   4.824
 6958SOL     OW22705  12.103   6.786   1.346
 6958SOL    HW122706  12.065   6.701   1.363
 6958SOL    HW222707  12.058   6.846   1.406
 6959SOL     OW22708  11.438  10.467  13.442
 6959SOL    HW122709  11.378  10.531  13.403
 6959SOL    HW222710  11.496  10.519  13.497
 6960SOL     OW22711   5.795  10.869   7.203
 6960SOL    HW122712   5.736  10.830   7.139
 6960SOL    HW222713   5.867  10.806   7.211
 6961SOL     OW22714  13.526  12.295   4.014
 6961SOL    HW122715  13.501  12.207   3.986
 6961SOL    HW222716  13.617  12.305   3.985
 6962SOL     OW22717   4.608   5.620  13.592
 6962SOL    HW122718   4.664   5.566  13.649
 6962SOL    HW222719   4.669   5.660  13.531
 6963SOL     OW22720   0.991  13.293  10.311
 6963SOL    HW122721   1.050  13.282  10.236
 6963SOL    HW222722   1.049  13.315  10.383
 6964SOL     OW22723  10.080   4.690   0.748
 6964SOL    HW122724   9.995   4.657   0.717
 6964SOL    HW222725  10.066   4.783   0.764
 6965SOL     OW22726   5.051   6.654   2.228
 6965SOL    HW122727   5.012   6.642   2.141
 6965SOL    HW222728   4.977   6.662   2.287
 6966SOL     OW22729   1.313  13.544  10.326
 6966SOL    HW122730   1.276  13.491  10.396
 6966SOL    HW222731   1.361  13.482  10.272
 6967SOL     OW22732   3.212   6.717   5.001
 6967SOL    HW122733   3.268   6.639   4.997
 6967SOL    HW222734   3.194   6.738   4.910
 6968SOL     OW22735   7.817  12.030   7.290
 6968SOL    HW122736   7.896  12.073   7.322
 6968SOL    HW222737   7.847  11.980   7.214
 6969SOL     OW22738   7.274   1.950   5.563
 6969SOL    HW122739   7.280   2.045   5.557
 6969SOL    HW222740   7.364   1.919   5.547
 6970SOL     OW22741  14.648  14.661  11.611
 6970SOL    HW122742  14.721  14.635  11.668
 6970SOL    HW222743  14.619  14.579  11.571
 6971SOL     OW22744   6.305   3.046   8.307
 6971SOL    HW122745   6.254   3.015   8.232
 6971SOL    HW222746   6.345   2.967   8.344
 6972SOL     OW22747  13.725  13.860   8.424
 6972SOL    HW122748  13.770  13.911   8.492
 6972SOL    HW222749  13.789  13.852   8.354
 6973SOL     OW22750   0.507   3.117  14.802
 6973SOL    HW122751   0.501   3.022  14.814
 6973SOL    HW222752   0.442   3.136  14.734
 6974SOL     OW22753   3.777   9.864   0.387
 6974SOL    HW122754   3.792   9.954   0.357
 6974SOL    HW222755   3.784   9.811   0.308
 6975SOL     OW22756   8.142  10.236   2.040
 6975SOL    HW122757   8.062  10.231   2.094
 6975SOL    HW222758   8.179  10.321   2.060
 6976SOL     OW22759  13.340   4.096  13.916
 6976SOL    HW122760  13.395   4.105  13.838
 6976SOL    HW222761  13.400   4.107  13.990
 6977SOL     OW22762  13.837   5.637   4.892
 6977SOL    HW122763  13.882   5.702   4.947
 6977SOL    HW222764  13.809   5.569   4.953
 6978SOL     OW22765   7.455   0.557  14.524
 6978SOL    HW122766   7.493   0.579  14.439
 6978SOL    HW222767   7.523   0.580  14.588
 6979SOL     OW22768  13.042   6.591  10.393
 6979SOL    HW122769  13.008   6.674  10.426
 6979SOL    HW222770  13.122   6.576  10.443
 6980SOL     OW22771   5.858  13.243   2.804
 6980SOL    HW122772   5.899  13.303   2.867
 6980SOL    HW222773   5.883  13.156   2.835
 6981SOL     OW22774  10.648   7.538   4.369
 6981SOL    HW122775  10.645   7.498   4.282
 6981SOL    HW222776  10.735   7.577   4.374
 6982SOL     OW22777  12.305  11.321   9.921
 6982SOL    HW122778  12.305  11.266  10.000
 6982SOL    HW222779  12.388  11.368   9.924
 6983SOL     OW22780   3.417  11.447   6.253
 6983SOL    HW122781   3.386  11.363   6.286
 6983SOL    HW222782   3.385  11.512   6.315
 6984SOL     OW22783   8.004  12.103  14.766
 6984SOL    HW122784   7.948  12.078  14.692
 6984SOL    HW222785   8.007  12.199  14.761
 6985SOL     OW22786  14.459  10.328   4.739
 6985SOL    HW122787  14.385  10.382   4.710
 6985SOL    HW222788  14.517  10.389   4.784
 6986SOL     OW22789   0.805   1.137   3.580
 6986SOL    HW122790   0.824   1.049   3.614
 6986SOL    HW222791   0.713   1.133   3.554
 6987SOL     OW22792  10.401  10.488   2.293
 6987SOL    HW122793  10.347  10.474   2.371
 6987SOL    HW222794  10.358  10.560   2.247
 6988SOL     OW22795   0.780   6.525   2.845
 6988SOL    HW122796   0.753   6.450   2.899
 6988SOL    HW222797   0.874   6.531   2.858
 6989SOL     OW22798   9.998  11.760   5.871
 6989SOL    HW122799   9.939  11.781   5.943
 6989SOL    HW222800  10.085  11.781   5.904
 6990SOL     OW22801   4.012   6.963   1.038
 6990SOL    HW122802   3.953   7.036   1.058
 6990SOL    HW222803   4.052   6.986   0.955
 6991SOL     OW22804   6.509  11.695  11.193
 6991SOL    HW122805   6.591  11.647  11.201
 6991SOL    HW222806   6.451  11.653  11.256
 6992SOL     OW22807   3.595   5.863  12.198
 6992SOL    HW122808   3.560   5.935  12.145
 6992SOL    HW222809   3.569   5.784  12.151
 6993SOL     OW22810   3.721   0.242  12.597
 6993SOL    HW122811   3.742   0.192  12.518
 6993SOL    HW222812   3.805   0.275  12.628
 6994SOL     OW22813   5.996  13.215  11.195
 6994SOL    HW122814   5.937  13.139  11.201
 6994SOL    HW222815   6.082  13.180  11.218
 6995SOL     OW22816  10.744  14.087   1.391
 6995SOL    HW122817  10.723  14.047   1.306
 6995SOL    HW222818  10.749  14.014   1.452
 6996SOL     OW22819   7.175   8.833   3.251
 6996SOL    HW122820   7.101   8.784   3.213
 6996SOL    HW222821   7.232   8.765   3.288
 6997SOL     OW22822   3.094   5.644   8.540
 6997SOL    HW122823   3.182   5.611   8.519
 6997SOL    HW222824   3.082   5.623   8.633
 6998SOL     OW22825   8.709  11.398   9.128
 6998SOL    HW122826   8.740  11.379   9.216
 6998SOL    HW222827   8.782  11.375   9.071
 6999SOL     OW22828  13.439  12.724   5.369
 6999SOL    HW122829  13.374  12.693   5.433
 6999SOL    HW222830  13.428  12.819   5.368
 7000SOL     OW22831  10.995  14.055   9.014
 7000SOL    HW122832  10.975  14.041   9.107
 7000SOL    HW222833  11.017  14.148   9.008
 7001SOL     OW22834  12.141   0.000  12.603
 7001SOL    HW122835  12.141  14.813  12.531
 7001SOL    HW222836  12.145  14.823  12.682
 7002SOL     OW22837  11.214  12.926   7.718
 7002SOL    HW122838  11.191  13.018   7.723
 7002SOL    HW222839  11.148  12.887   7.660
 7003SOL     OW22840   1.857  13.568   5.096
 7003SOL    HW122841   1.858  13.537   5.187
 7003SOL    HW222842   1.779  13.528   5.058
 7004SOL     OW22843   1.044  10.723  14.229
 7004SOL    HW122844   0.993  10.678  14.296
 7004SOL    HW222845   1.071  10.805  14.270
 7005SOL     OW22846   9.935   4.279   5.286
 7005SOL    HW122847  10.022   4.318   5.286
 7005SOL    HW222848   9.910   4.275   5.378
 7006SOL     OW22849   9.806   1.686   9.056
 7006SOL    HW122850   9.874   1.661   9.119
 7006SOL    HW222851   9.748   1.745   9.105
 7007SOL     OW22852   4.493  12.026   7.711
 7007SOL    HW122853   4.466  11.999   7.623
 7007SOL    HW222854   4.486  11.946   7.763
 7008SOL     OW22855  12.561  13.808   4.426
 7008SOL    HW122856  12.522  13.892   4.400
 7008SOL    HW222857  12.607  13.827   4.508
 7009SOL     OW22858   9.666   4.789   9.566
 7009SOL    HW122859   9.677   4.866   9.510
 7009SOL    HW222860   9.719   4.721   9.524
 7010SOL     OW22861   1.174   4.514  10.238
 7010SOL    HW122862   1.102   4.551  10.290
 7010SOL    HW222863   1.206   4.441  10.290
 7011SOL     OW22864  13.986   8.459   6.538
 7011SOL    HW122865  14.037   8.456   6.619
 7011SOL    HW222866  14.050   8.481   6.470
 7012SOL     OW22867   3.954   1.329   0.000
 7012SOL    HW122868   3.937   1.406  14.823
 7012SOL    HW222869   3.975   1.260  14.813
 7013SOL     OW22870   3.579  11.818   2.735
 7013SOL    HW122871   3.609  11.906   2.710
 7013SOL    HW222872   3.604  11.809   2.826
 7014SOL     OW22873  11.009   6.649  10.438
 7014SOL    HW122874  10.986   6.732  10.396
 7014SOL    HW222875  10.943   6.587  10.406
 7015SOL     OW22876   6.565   2.264   7.326
 7015SOL    HW122877   6.574   2.185   7.379
 7015SOL    HW222878   6.470   2.280   7.323
 7016SOL     OW22879   5.516   9.392   3.422
 7016SOL    HW122880   5.527   9.482   3.392
 7016SOL    HW222881   5.605   9.360   3.434
 7017SOL     OW22882   7.724   2.204  14.334
 7017SOL    HW122883   7.686   2.160  14.257
 7017SOL    HW222884   7.800   2.151  14.356
 7018SOL     OW22885   2.884   4.016   8.710
 7018SOL    HW122886   2.913   4.067   8.785
 7018SOL    HW222887   2.910   4.068   8.634
 7019SOL     OW22888   9.515   2.900   3.191
 7019SOL    HW122889   9.458   2.839   3.145
 7019SOL    HW222890   9.461   2.978   3.204
 7020SOL     OW22891  14.746   1.599   5.158
 7020SOL    HW122892  14.681   1.553   5.105
 7020SOL    HW222893  14.785   1.530   5.213
 7021SOL     OW22894   8.956   3.925   0.262
 7021SOL    HW122895   9.036   3.967   0.230
 7021SOL    HW222896   8.886   3.961   0.208
 7022SOL     OW22897  13.168   9.446   7.772
 7022SOL    HW122898  13.118   9.428   7.851
 7022SOL    HW222899  13.104   9.481   7.710
 7023SOL     OW22900   3.490   7.704   5.638
 7023SOL    HW122901   3.487   7.608   5.638
 7023SOL    HW222902   3.529   7.726   5.722
 7024SOL     OW22903   2.636  12.021   5.759
 7024SOL    HW122904   2.561  12.065   5.798
 7024SOL    HW222905   2.653  12.069   5.678
 7025SOL     OW22906   9.269  14.278   8.131
 7025SOL    HW122907   9.324  14.352   8.156
 7025SOL    HW222908   9.240  14.241   8.214
 7026SOL     OW22909   2.258   5.316   8.653
 7026SOL    HW122910   2.200   5.253   8.609
 7026SOL    HW222911   2.320   5.261   8.701
 7027SOL     OW22912   9.560   3.531   7.577
 7027SOL    HW122913   9.609   3.523   7.658
 7027SOL    HW222914   9.562   3.624   7.556
 7028SOL     OW22915   5.192  13.728   5.822
 7028SOL    HW122916   5.153  13.641   5.835
 7028SOL    HW222917   5.120  13.781   5.787
 7029SOL     OW22918   4.389  13.602   2.067
 7029SOL    HW122919   4.348  13.647   1.994
 7029SOL    HW222920   4.316  13.578   2.124
 7030SOL     OW22921   8.925   4.874   5.080
 7030SOL    HW122922   8.983   4.803   5.110
 7030SOL    HW222923   8.837   4.838   5.090
 7031SOL     OW22924   2.924   5.884   5.801
 7031SOL    HW122925   2.984   5.890   5.876
 7031SOL    HW222926   2.980   5.898   5.725
 7032SOL     OW22927   7.598   1.540   6.778
 7032SOL    HW122928   7.530   1.477   6.802
 7032SOL    HW222929   7.654   1.492   6.717
 7033SOL     OW22930  13.580   3.213   5.695
 7033SOL    HW122931  13.580   3.117   5.697
 7033SOL    HW222932  13.632   3.236   5.618
 7034SOL     OW22933   3.906   2.053   4.179
 7034SOL    HW122934   3.856   2.019   4.254
 7034SOL    HW222935   3.903   1.982   4.114
 7035SOL     OW22936   0.265   8.739   7.255
 7035SOL    HW122937   0.250   8.702   7.168
 7035SOL    HW222938   0.202   8.694   7.312
 7036SOL     OW22939   1.185   0.937   9.781
 7036SOL    HW122940   1.091   0.919   9.787
 7036SOL    HW222941   1.202   0.945   9.687
 7037SOL     OW22942  10.853  11.573   8.430
 7037SOL    HW122943  10.923  11.568   8.365
 7037SOL    HW222944  10.772  11.564   8.380
 7038SOL     OW22945   4.040   0.349  11.578
 7038SOL    HW122946   4.094   0.273  11.555
 7038SOL    HW222947   4.047   0.407  11.502
 7039SOL     OW22948   5.853   5.768  14.734
 7039SOL    HW122949   5.905   5.831  14.783
 7039SOL    HW222950   5.896   5.684  14.750
 7040SOL     OW22951   3.620   7.586   7.806
 7040SOL    HW122952   3.542   7.641   7.796
 7040SOL    HW222953   3.684   7.642   7.850
 7041SOL     OW22954   5.114   0.165   5.841
 7041SOL    HW122955   5.122   0.076   5.874
 7041SOL    HW222956   5.042   0.203   5.891
 7042SOL     OW22957  12.731   2.404   6.424
 7042SOL    HW122958  12.682   2.366   6.496
 7042SOL    HW222959  12.755   2.492   6.454
 7043SOL     OW22960   6.046   7.867  14.739
 7043SOL    HW122961   6.027   7.919  14.817
 7043SOL    HW222962   6.098   7.924  14.683
 7044SOL     OW22963   9.739   3.410   6.309
 7044SOL    HW122964   9.809   3.376   6.253
 7044SOL    HW222965   9.747   3.505   6.302
 7045SOL     OW22966   5.745   5.733   3.934
 7045SOL    HW122967   5.747   5.685   3.851
 7045SOL    HW222968   5.718   5.667   3.999
 7046SOL     OW22969   1.259  14.807   1.894
 7046SOL    HW122970   1.243   0.008   1.838
 7046SOL    HW222971   1.309  14.748   1.839
 7047SOL     OW22972   7.883  13.270   8.267
 7047SOL    HW122973   7.919  13.270   8.355
 7047SOL    HW222974   7.874  13.363   8.245
 7048SOL     OW22975   9.130   1.149   6.353
 7048SOL    HW122976   9.087   1.126   6.270
 7048SOL    HW222977   9.071   1.213   6.393
 7049SOL     OW22978   1.167  10.549   0.279
 7049SOL    HW122979   1.176  10.472   0.223
 7049SOL    HW222980   1.212  10.526   0.360
 7050SOL     OW22981   8.401   3.917   5.873
 7050SOL    HW122982   8.327   3.974   5.892
 7050SOL    HW222983   8.435   3.893   5.959
 7051SOL     OW22984  12.390  11.492  12.384
 7051SOL    HW122985  12.423  11.429  12.319
 7051SOL    HW222986  12.363  11.568  12.332
 7052SOL     OW22987   3.432  13.800   5.401
 7052SOL    HW122988   3.516  13.786   5.445
 7052SOL    HW222989   3.372  13.739   5.443
 7053SOL     OW22990   3.954   4.722   9.405
 7053SOL    HW122991   3.998   4.689   9.483
 7053SOL    HW222992   3.950   4.647   9.346
 7054SOL     OW22993   3.018   5.885   9.084
 7054SOL    HW122994   3.085   5.945   9.116
 7054SOL    HW222995   2.954   5.941   9.040
 7055SOL     OW22996   3.484   8.141  12.148
 7055SOL    HW122997   3.423   8.068  12.158
 7055SOL    HW222998   3.561   8.115  12.200
 7056SOL     OW22999   0.130  13.106   1.483
 7056SOL    HW123000   0.215  13.129   1.520
 7056SOL    HW223001   0.103  13.029   1.533
 7057SOL     OW23002  12.708  12.767   1.271
 7057SOL    HW123003  12.720  12.840   1.331
 7057SOL    HW223004  12.630  12.722   1.302
 7058SOL     OW23005   3.121   4.678  12.585
 7058SOL    HW123006   3.139   4.667  12.492
 7058SOL    HW223007   3.206   4.701  12.623
 7059SOL     OW23008   9.829   7.217   5.028
 7059SOL    HW123009   9.734   7.229   5.034
 7059SOL    HW223010   9.845   7.184   4.940
 7060SOL     OW23011  10.276   7.320  12.592
 7060SOL    HW123012  10.315   7.392  12.643
 7060SOL    HW223013  10.330   7.244  12.612
 7061SOL     OW23014  12.631   9.050  10.919
 7061SOL    HW123015  12.568   9.084  10.855
 7061SOL    HW223016  12.578   8.999  10.980
 7062SOL     OW23017   7.589  12.424   7.791
 7062SOL    HW123018   7.565  12.446   7.881
 7062SOL    HW223019   7.581  12.506   7.743
 7063SOL     OW23020   6.112   9.488  14.559
 7063SOL    HW123021   6.171   9.413  14.559
 7063SOL    HW223022   6.166   9.562  14.587
 7064SOL     OW23023   3.423   4.019  13.700
 7064SOL    HW123024   3.440   4.111  13.682
 7064SOL    HW223025   3.446   3.974  13.619
 7065SOL     OW23026   3.168  10.169   6.740
 7065SOL    HW123027   3.149  10.262   6.744
 7065SOL    HW223028   3.091  10.130   6.697
 7066SOL     OW23029   0.172   7.842   5.612
 7066SOL    HW123030   0.123   7.766   5.642
 7066SOL    HW223031   0.126   7.871   5.534
 7067SOL     OW23032   4.686   3.607   3.701
 7067SOL    HW123033   4.709   3.546   3.772
 7067SOL    HW223034   4.666   3.689   3.746
 7068SOL     OW23035   9.263  12.828   2.234
 7068SOL    HW123036   9.343  12.842   2.184
 7068SOL    HW223037   9.291  12.778   2.311
 7069SOL     OW23038  12.466   8.252  12.494
 7069SOL    HW123039  12.390   8.270  12.438
 7069SOL    HW223040  12.542   8.270  12.438
 7070SOL     OW23041   0.600   9.064  13.634
 7070SOL    HW123042   0.654   9.030  13.563
 7070SOL    HW223043   0.525   9.105  13.590
 7071SOL     OW23044   3.929   8.344   0.779
 7071SOL    HW123045   3.887   8.420   0.819
 7071SOL    HW223046   3.995   8.317   0.842
 7072SOL     OW23047  13.049   3.955  12.833
 7072SOL    HW123048  13.061   3.907  12.915
 7072SOL    HW223049  12.958   3.984  12.836
 7073SOL     OW23050   5.977  12.059   9.044
 7073SOL    HW123051   5.957  12.035   8.954
 7073SOL    HW223052   6.037  12.134   9.037
 7074SOL     OW23053   5.982   6.173   8.548
 7074SOL    HW123054   6.021   6.259   8.530
 7074SOL    HW223055   5.938   6.149   8.467
 7075SOL     OW23056   6.796   8.327  10.997
 7075SOL    HW123057   6.809   8.237  11.027
 7075SOL    HW223058   6.831   8.381  11.067
 7076SOL     OW23059  14.385   0.199   0.545
 7076SOL    HW123060  14.457   0.258   0.566
 7076SOL    HW223061  14.388   0.132   0.613
 7077SOL     OW23062   2.516   2.281   2.008
 7077SOL    HW123063   2.596   2.330   2.031
 7077SOL    HW223064   2.503   2.221   2.081
 7078SOL     OW23065   0.870   7.993   0.403
 7078SOL    HW123066   0.865   7.898   0.399
 7078SOL    HW223067   0.882   8.013   0.496
 7079SOL     OW23068   1.593  11.906   4.964
 7079SOL    HW123069   1.579  11.994   5.000
 7079SOL    HW223070   1.550  11.908   4.879
 7080SOL     OW23071  11.371   4.977  11.713
 7080SOL    HW123072  11.421   4.901  11.742
 7080SOL    HW223073  11.436   5.035  11.674
 7081SOL     OW23074  13.593   5.667   8.888
 7081SOL    HW123075  13.633   5.594   8.840
 7081SOL    HW223076  13.667   5.712   8.929
 7082SOL     OW23077   0.087  10.913  14.592
 7082SOL    HW123078   0.032  10.908  14.670
 7082SOL    HW223079   0.161  10.854  14.611
 7083SOL     OW23080   0.396   1.335   2.780
 7083SOL    HW123081   0.326   1.400   2.781
 7083SOL    HW223082   0.356   1.256   2.815
 7084SOL     OW23083   2.504  11.890  14.187
 7084SOL    HW123084   2.441  11.851  14.248
 7084SOL    HW223085   2.560  11.817  14.161
 7085SOL     OW23086   9.525  12.305  12.058
 7085SOL    HW123087   9.556  12.395  12.050
 7085SOL    HW223088   9.538  12.284  12.151
 7086SOL     OW23089  11.364  13.427   9.625
 7086SOL    HW123090  11.283  13.383   9.649
 7086SOL    HW223091  11.431  13.383   9.678
 7087SOL     OW23092   0.448   5.571  10.255
 7087SOL    HW123093   0.538   5.601  10.270
 7087SOL    HW223094   0.397   5.612  10.325
 7088SOL     OW23095   7.836  12.111   6.984
 7088SOL    HW123096   7.821  12.204   6.964
 7088SOL    HW223097   7.767  12.088   7.046
 7089SOL     OW23098  11.472   5.590   6.259
 7089SOL    HW123099  11.430   5.525   6.202
 7089SOL    HW223100  11.416   5.594   6.336
 7090SOL     OW23101   1.751  13.959   5.600
 7090SOL    HW123102   1.677  13.994   5.649
 7090SOL    HW223103   1.742  13.997   5.513
 7091SOL     OW23104   4.621   5.061  13.757
 7091SOL    HW123105   4.605   5.003  13.832
 7091SOL    HW223106   4.549   5.124  13.760
 7092SOL     OW23107   9.204   3.907   6.547
 7092SOL    HW123108   9.113   3.894   6.574
 7092SOL    HW223109   9.245   3.822   6.560
 7093SOL     OW23110   6.973   6.856   7.269
 7093SOL    HW123111   6.952   6.769   7.303
 7093SOL    HW223112   6.916   6.916   7.317
 7094SOL     OW23113   5.012  13.394  11.932
 7094SOL    HW123114   4.963  13.312  11.929
 7094SOL    HW223115   5.051  13.402  11.845
 7095SOL     OW23116   9.697   8.824   5.966
 7095SOL    HW123117   9.670   8.909   6.000
 7095SOL    HW223118   9.682   8.830   5.871
 7096SOL     OW23119   6.491   4.135   3.020
 7096SOL    HW123120   6.552   4.098   2.957
 7096SOL    HW223121   6.477   4.225   2.991
 7097SOL     OW23122  11.912   6.663  13.124
 7097SOL    HW123123  11.944   6.609  13.052
 7097SOL    HW223124  11.955   6.748  13.112
 7098SOL     OW23125   1.948  10.054  14.008
 7098SOL    HW123126   1.971  10.143  13.981
 7098SOL    HW223127   1.893  10.021  13.938
 7099SOL     OW23128  11.955   5.891  14.453
 7099SOL    HW123129  11.929   5.939  14.374
 7099SOL    HW223130  12.050   5.883  14.446
 7100SOL     OW23131   2.850   6.900  12.182
 7100SOL    HW123132   2.855   6.819  12.131
 7100SOL    HW223133   2.936   6.908  12.222
 7101SOL     OW23134  12.551  11.271   3.744
 7101SOL    HW123135  12.592  11.333   3.683
 7101SOL    HW223136  12.624  11.232   3.791
 7102SOL     OW23137  14.021   4.642   3.465
 7102SOL    HW123138  14.110   4.674   3.450
 7102SOL    HW223139  13.974   4.717   3.499
 7103SOL     OW23140  10.823  11.027  10.492
 7103SOL    HW123141  10.846  11.089  10.423
 7103SOL    HW223142  10.901  11.021  10.547
 7104SOL     OW23143   9.822   1.778  13.930
 7104SOL    HW123144   9.835   1.869  13.902
 7104SOL    HW223145   9.766   1.784  14.007
 7105SOL     OW23146   8.913   1.666   9.337
 7105SOL    HW123147   8.959   1.584   9.352
 7105SOL    HW223148   8.952   1.728   9.399
 7106SOL     OW23149   5.862  11.474  10.109
 7106SOL    HW123150   5.804  11.429  10.047
 7106SOL    HW223151   5.948  11.434  10.095
 7107SOL     OW23152   8.659   8.496  14.183
 7107SOL    HW123153   8.716   8.421  14.200
 7107SOL    HW223154   8.661   8.508  14.088
 7108SOL     OW23155   6.336  11.375   5.629
 7108SOL    HW123156   6.385  11.354   5.550
 7108SOL    HW223157   6.378  11.324   5.698
 7109SOL     OW23158   7.244   9.686   9.353
 7109SOL    HW123159   7.313   9.620   9.349
 7109SOL    HW223160   7.283   9.759   9.401
 7110SOL     OW23161  14.437  14.768  14.300
 7110SOL    HW123162  14.406  14.680  14.276
 7110SOL    HW223163  14.416  14.776  14.393
 7111SOL     OW23164   3.949   8.207   8.911
 7111SOL    HW123165   3.991   8.132   8.954
 7111SOL    HW223166   4.019   8.272   8.904
 7112SOL     OW23167   6.923   0.453  12.871
 7112SOL    HW123168   6.961   0.419  12.790
 7112SOL    HW223169   6.871   0.528  12.843
 7113SOL     OW23170  13.993   0.626  13.329
 7113SOL    HW123171  13.962   0.554  13.274
 7113SOL    HW223172  13.918   0.648  13.384
 7114SOL     OW23173   6.082   4.906  10.579
 7114SOL    HW123174   6.168   4.944  10.599
 7114SOL    HW223175   6.025   4.982  10.566
 7115SOL     OW23176   6.560   7.508   9.715
 7115SOL    HW123177   6.528   7.420   9.732
 7115SOL    HW223178   6.590   7.539   9.801
 7116SOL     OW23179  14.776   1.604   4.056
 7116SOL    HW123180  14.753   1.604   4.149
 7116SOL    HW223181  14.835   1.679   4.046
 7117SOL     OW23182   3.624  10.569   9.747
 7117SOL    HW123183   3.567  10.626   9.798
 7117SOL    HW223184   3.707  10.570   9.794
 7118SOL     OW23185   9.802   9.979   8.878
 7118SOL    HW123186   9.840   9.892   8.888
 7118SOL    HW223187   9.724   9.965   8.826
 7119SOL     OW23188   8.972   8.877   5.966
 7119SOL    HW123189   8.878   8.871   5.985
 7119SOL    HW223190   9.001   8.951   6.019
 7120SOL     OW23191  11.471   8.367   2.447
 7120SOL    HW123192  11.527   8.374   2.524
 7120SOL    HW223193  11.509   8.295   2.396
 7121SOL     OW23194   2.651   0.544  14.607
 7121SOL    HW123195   2.565   0.573  14.635
 7121SOL    HW223196   2.641   0.525  14.514
 7122SOL     OW23197  13.047   0.131   2.100
 7122SOL    HW123198  12.994   0.209   2.084
 7122SOL    HW223199  13.082   0.143   2.188
 7123SOL     OW23200   9.865  10.697   2.095
 7123SOL    HW123201   9.835  10.703   2.004
 7123SOL    HW223202   9.789  10.666   2.144
 7124SOL     OW23203   2.338   7.543   5.979
 7124SOL    HW123204   2.396   7.583   5.914
 7124SOL    HW223205   2.269   7.501   5.927
 7125SOL     OW23206   6.012  13.633  10.845
 7125SOL    HW123207   5.978  13.652  10.932
 7125SOL    HW223208   6.065  13.554  10.857
 7126SOL     OW23209  11.277   3.091   2.134
 7126SOL    HW123210  11.365   3.060   2.154
 7126SOL    HW223211  11.263   3.067   2.042
 7127SOL     OW23212   8.320   6.442  12.867
 7127SOL    HW123213   8.266   6.426  12.790
 7127SOL    HW223214   8.363   6.358  12.883
 7128SOL     OW23215   7.871  11.801  12.774
 7128SOL    HW123216   7.906  11.890  12.785
 7128SOL    HW223217   7.841  11.777  12.862
 7129SOL     OW23218  11.116   6.902   8.416
 7129SOL    HW123219  11.204   6.888   8.449
 7129SOL    HW223220  11.073   6.816   8.425
 7130SOL     OW23221   6.975  10.244  13.749
 7130SOL    HW123222   6.982  10.193  13.668
 7130SOL    HW223223   6.883  10.233  13.776
 7131SOL     OW23224   4.576  12.088   8.669
 7131SOL    HW123225   4.536  12.122   8.749
 7131SOL    HW223226   4.510  12.102   8.602
 7132SOL     OW23227   4.795   2.711   6.397
 7132SOL    HW123228   4.873   2.705   6.451
 7132SOL    HW223229   4.723   2.717   6.459
 7133SOL     OW23230  13.188   5.317  13.445
 7133SOL    HW123231  13.138   5.244  13.408
 7133SOL    HW223232  13.225   5.282  13.527
 7134SOL     OW23233   7.469  10.370   8.804
 7134SOL    HW123234   7.480  10.359   8.710
 7134SOL    HW223235   7.475  10.465   8.818
 7135SOL     OW23236   3.236   4.818  11.152
 7135SOL    HW123237   3.224   4.819  11.247
 7135SOL    HW223238   3.320   4.775  11.139
 7136SOL     OW23239   6.621   3.442  12.953
 7136SOL    HW123240   6.607   3.521  12.900
 7136SOL    HW223241   6.708   3.411  12.927
 7137SOL     OW23242   9.193  14.778  14.682
 7137SOL    HW123243   9.099  14.773  14.700
 7137SOL    HW223244   9.200  14.837  14.607
 7138SOL     OW23245   4.000  12.154  12.053
 7138SOL    HW123246   4.068  12.086  12.060
 7138SOL    HW223247   4.015  12.194  11.967
 7139SOL     OW23248   4.747  13.777   3.752
 7139SOL    HW123249   4.663  13.737   3.729
 7139SOL    HW223250   4.776  13.819   3.671
 7140SOL     OW23251   5.161  10.102  12.069
 7140SOL    HW123252   5.188  10.153  11.993
 7140SOL    HW223253   5.077  10.063  12.044
 7141SOL     OW23254  10.361   6.070  10.360
 7141SOL    HW123255  10.323   6.029  10.282
 7141SOL    HW223256  10.454   6.078  10.340
 7142SOL     OW23257   5.482   5.465   2.838
 7142SOL    HW123258   5.431   5.384   2.835
 7142SOL    HW223259   5.564   5.443   2.794
 7143SOL     OW23260  11.404   5.667   4.467
 7143SOL    HW123261  11.429   5.707   4.551
 7143SOL    HW223262  11.308   5.672   4.467
 7144SOL     OW23263   2.390   1.595   3.775
 7144SOL    HW123264   2.470   1.548   3.749
 7144SOL    HW223265   2.344   1.611   3.693
 7145SOL     OW23266   7.184   0.235   0.301
 7145SOL    HW123267   7.092   0.245   0.322
 7145SOL    HW223268   7.186   0.170   0.231
 7146SOL     OW23269  14.838  11.842   3.390
 7146SOL    HW123270  14.866  11.855   3.299
 7146SOL    HW223271   0.040  11.805   3.433
 7147SOL     OW23272   4.740   6.404   0.836
 7147SOL    HW123273   4.738   6.500   0.837
 7147SOL    HW223274   4.655   6.379   0.800
 7148SOL     OW23275  11.487  12.754   2.461
 7148SOL    HW123276  11.562  12.698   2.481
 7148SOL    HW223277  11.415  12.692   2.446
 7149SOL     OW23278  11.696  11.957   9.450
 7149SOL    HW123279  11.768  11.894   9.452
 7149SOL    HW223280  11.729  12.034   9.496
 7150SOL     OW23281   4.757   8.019   2.479
 7150SOL    HW123282   4.734   8.082   2.548
 7150SOL    HW223283   4.735   8.065   2.398
 7151SOL     OW23284   2.188   5.112  12.519
 7151SOL    HW123285   2.177   5.145  12.430
 7151SOL    HW223286   2.163   5.020  12.514
 7152SOL     OW23287  12.745   9.675   9.491
 7152SOL    HW123288  12.834   9.682   9.455
 7152SOL    HW223289  12.718   9.585   9.470
 7153SOL     OW23290   2.418   1.292   1.195
 7153SOL    HW123291   2.333   1.316   1.233
 7153SOL    HW223292   2.410   1.198   1.177
 7154SOL     OW23293   0.492   8.643  13.589
 7154SOL    HW123294   0.445   8.687  13.518
 7154SOL    HW223295   0.467   8.551  13.580
 7155SOL     OW23296  13.017  14.747   6.660
 7155SOL    HW123297  12.991  14.788   6.578
 7155SOL    HW223298  12.997  14.812   6.727
 7156SOL     OW23299   3.739   1.622   5.999
 7156SOL    HW123300   3.667   1.684   6.006
 7156SOL    HW223301   3.706   1.542   6.039
 7157SOL     OW23302   4.666   7.810  14.073
 7157SOL    HW123303   4.667   7.724  14.115
 7157SOL    HW223304   4.573   7.835  14.073
 7158SOL     OW23305   9.669   0.765   1.084
 7158SOL    HW123306   9.706   0.762   1.172
 7158SOL    HW223307   9.689   0.679   1.047
 7159SOL     OW23308   2.565  12.726  10.521
 7159SOL    HW123309   2.590  12.770  10.440
 7159SOL    HW223310   2.538  12.796  10.580
 7160SOL     OW23311  10.937  13.074   0.041
 7160SOL    HW123312  10.896  13.154   0.008
 7160SOL    HW223313  11.017  13.105   0.084
 7161SOL     OW23314   8.246  10.313  14.088
 7161SOL    HW123315   8.202  10.230  14.071
 7161SOL    HW223316   8.294  10.332  14.007
 7162SOL     OW23317   5.341  14.220   7.561
 7162SOL    HW123318   5.424  14.173   7.549
 7162SOL    HW223319   5.366  14.312   7.570
 7163SOL     OW23320   8.571   3.698   1.499
 7163SOL    HW123321   8.546   3.755   1.572
 7163SOL    HW223322   8.625   3.753   1.443
 7164SOL     OW23323   0.812  10.449   3.254
 7164SOL    HW123324   0.890  10.413   3.211
 7164SOL    HW223325   0.784  10.520   3.196
 7165SOL     OW23326   6.121   1.167  14.420
 7165SOL    HW123327   6.095   1.256  14.396
 7165SOL    HW223328   6.175   1.178  14.498
 7166SOL     OW23329   1.359  11.605   7.920
 7166SOL    HW123330   1.426  11.624   7.986
 7166SOL    HW223331   1.317  11.525   7.952
 7167SOL     OW23332   1.146   5.121  14.371
 7167SOL    HW123333   1.184   5.183  14.433
 7167SOL    HW223334   1.190   5.038  14.390
 7168SOL     OW23335   8.003  13.530   1.117
 7168SOL    HW123336   8.072  13.506   1.056
 7168SOL    HW223337   8.001  13.626   1.114
 7169SOL     OW23338   0.283  10.212   7.593
 7169SOL    HW123339   0.221  10.162   7.646
 7169SOL    HW223340   0.362  10.158   7.592
 7170SOL     OW23341   0.018   7.985  13.889
 7170SOL    HW123342  14.830   8.036  13.938
 7170SOL    HW223343  14.841   7.924  13.837
 7171SOL     OW23344   3.937  10.915   2.559
 7171SOL    HW123345   3.923  10.980   2.628
 7171SOL    HW223346   4.019  10.872   2.584
 7172SOL     OW23347   3.449   4.958   5.263
 7172SOL    HW123348   3.496   5.016   5.204
 7172SOL    HW223349   3.367   5.004   5.283
 7173SOL     OW23350   4.404   9.806  11.688
 7173SOL    HW123351   4.430   9.861  11.761
 7173SOL    HW223352   4.428   9.856  11.610
 7174SOL     OW23353  11.030   3.762   8.834
 7174SOL    HW123354  11.085   3.790   8.907
 7174SOL    HW223355  11.000   3.844   8.795
 7175SOL     OW23356   8.179   0.137   2.172
 7175SOL    HW123357   8.129   0.172   2.245
 7175SOL    HW223358   8.259   0.101   2.211
 7176SOL     OW23359   4.542  14.720  11.086
 7176SOL    HW123360   4.577  14.737  11.174
 7176SOL    HW223361   4.616  14.737  11.028
 7177SOL     OW23362   9.168  11.483  10.052
 7177SOL    HW123363   9.115  11.416  10.095
 7177SOL    HW223364   9.255  11.444  10.043
 7178SOL     OW23365   3.915   1.475   4.718
 7178SOL    HW123366   3.978   1.448   4.652
 7178SOL    HW223367   3.907   1.570   4.707
 7179SOL     OW23368   6.548   2.107   2.065
 7179SOL    HW123369   6.573   2.185   2.116
 7179SOL    HW223370   6.525   2.142   1.979
 7180SOL     OW23371   9.242   2.461   4.681
 7180SOL    HW123372   9.297   2.489   4.755
 7180SOL    HW223373   9.230   2.367   4.695
 7181SOL     OW23374   1.813  10.788   2.833
 7181SOL    HW123375   1.892  10.775   2.781
 7181SOL    HW223376   1.843  10.836   2.910
 7182SOL     OW23377  10.653  12.148   0.578
 7182SOL    HW123378  10.693  12.235   0.577
 7182SOL    HW223379  10.686  12.106   0.499
 7183SOL     OW23380   6.285   4.090   7.976
 7183SOL    HW123381   6.283   4.115   8.068
 7183SOL    HW223382   6.369   4.125   7.944
 7184SOL     OW23383   8.298   1.004  14.303
 7184SOL    HW123384   8.219   0.998  14.250
 7184SOL    HW223385   8.363   1.044  14.245
 7185SOL     OW23386   0.660   7.108   9.429
 7185SOL    HW123387   0.683   7.029   9.477
 7185SOL    HW223388   0.610   7.077   9.353
 7186SOL     OW23389  11.880   3.763   0.737
 7186SOL    HW123390  11.820   3.729   0.670
 7186SOL    HW223391  11.897   3.688   0.794
 7187SOL     OW23392   0.670  13.116  12.663
 7187SOL    HW123393   0.634  13.072  12.740
 7187SOL    HW223394   0.733  13.178  12.698
 7188SOL     OW23395   6.050   2.208   1.623
 7188SOL    HW123396   6.015   2.270   1.559
 7188SOL    HW223397   6.074   2.131   1.573
 7189SOL     OW23398   6.609  13.300  13.601
 7189SOL    HW123399   6.524  13.298  13.557
 7189SOL    HW223400   6.611  13.386  13.643
 7190SOL     OW23401  13.848   8.316   3.768
 7190SOL    HW123402  13.855   8.286   3.859
 7190SOL    HW223403  13.811   8.241   3.722
 7191SOL     OW23404   4.359   2.377   6.097
 7191SOL    HW123405   4.328   2.344   6.013
 7191SOL    HW223406   4.307   2.330   6.162
 7192SOL     OW23407   1.506  10.494   2.311
 7192SOL    HW123408   1.601  10.503   2.315
 7192SOL    HW223409   1.479  10.482   2.402
 7193SOL     OW23410  14.232   1.892   9.718
 7193SOL    HW123411  14.306   1.842   9.685
 7193SOL    HW223412  14.193   1.836   9.785
 7194SOL     OW23413   4.429   0.312   3.394
 7194SOL    HW123414   4.472   0.354   3.319
 7194SOL    HW223415   4.500   0.265   3.439
 7195SOL     OW23416  13.440   5.127   2.660
 7195SOL    HW123417  13.357   5.154   2.622
 7195SOL    HW223418  13.417   5.061   2.725
 7196SOL     OW23419  13.952   3.665   7.461
 7196SOL    HW123420  13.940   3.758   7.479
 7196SOL    HW223421  13.863   3.631   7.456
 7197SOL     OW23422   7.762   4.928   3.740
 7197SOL    HW123423   7.784   5.017   3.713
 7197SOL    HW223424   7.765   4.877   3.659
 7198SOL     OW23425   8.645   4.079   3.597
 7198SOL    HW123426   8.702   4.005   3.574
 7198SOL    HW223427   8.690   4.122   3.670
 7199SOL     OW23428   5.795  10.795   5.820
 7199SOL    HW123429   5.774  10.882   5.854
 7199SOL    HW223430   5.711  10.759   5.792
 7200SOL     OW23431  13.607   9.212   1.796
 7200SOL    HW123432  13.621   9.200   1.890
 7200SOL    HW223433  13.568   9.129   1.767
 7201SOL     OW23434   5.073   1.403   8.434
 7201SOL    HW123435   5.043   1.434   8.348
 7201SOL    HW223436   5.153   1.453   8.450
 7202SOL     OW23437   5.553   6.249  10.328
 7202SOL    HW123438   5.586   6.178  10.273
 7202SOL    HW223439   5.495   6.299  10.271
 7203SOL     OW23440   6.883   5.477  13.503
 7203SOL    HW123441   6.890   5.408  13.568
 7203SOL    HW223442   6.876   5.432  13.420
 7204SOL     OW23443   2.412   8.403   3.029
 7204SOL    HW123444   2.353   8.377   2.958
 7204SOL    HW223445   2.380   8.489   3.057
 7205SOL     OW23446  13.150  12.522  13.227
 7205SOL    HW123447  13.226  12.547  13.279
 7205SOL    HW223448  13.152  12.426  13.224
 7206SOL     OW23449   5.896   4.297   1.838
 7206SOL    HW123450   5.970   4.356   1.846
 7206SOL    HW223451   5.852   4.323   1.757
 7207SOL     OW23452   6.879  13.484   9.819
 7207SOL    HW123453   6.916  13.426   9.753
 7207SOL    HW223454   6.821  13.543   9.770
 7208SOL     OW23455   9.725   2.413   9.604
 7208SOL    HW123456   9.762   2.473   9.669
 7208SOL    HW223457   9.678   2.469   9.543
 7209SOL     OW23458   5.899  11.206   1.949
 7209SOL    HW123459   5.981  11.157   1.959
 7209SOL    HW223460   5.914  11.264   1.874
 7210SOL     OW23461   6.718   1.801   9.553
 7210SOL    HW123462   6.805   1.835   9.577
 7210SOL    HW223463   6.671   1.877   9.520
 7211SOL     OW23464  13.530  12.393  13.324
 7211SOL    HW123465  13.439  12.420  13.336
 7211SOL    HW223466  13.569  12.462  13.270
 7212SOL     OW23467   4.774  11.581   1.455
 7212SOL    HW123468   4.700  11.639   1.438
 7212SOL    HW223469   4.804  11.606   1.543
 7213SOL     OW23470  12.331  10.243   5.346
 7213SOL    HW123471  12.359  10.286   5.427
 7213SOL    HW223472  12.293  10.313   5.294
 7214SOL     OW23473   4.713   1.066  12.015
 7214SOL    HW123474   4.656   0.997  11.981
 7214SOL    HW223475   4.761   1.025  12.086
 7215SOL     OW23476   4.735   4.636  12.485
 7215SOL    HW123477   4.722   4.668  12.396
 7215SOL    HW223478   4.699   4.547  12.485
 7216SOL     OW23479   9.171  10.770   0.911
 7216SOL    HW123480   9.132  10.825   0.978
 7216SOL    HW223481   9.239  10.824   0.872
 7217SOL     OW23482   8.929   5.479   1.824
 7217SOL    HW123483   8.954   5.386   1.820
 7217SOL    HW223484   8.836   5.479   1.803
 7218SOL     OW23485   8.601   9.674   1.705
 7218SOL    HW123486   8.509   9.666   1.679
 7218SOL    HW223487   8.644   9.600   1.662
 7219SOL     OW23488   0.641   8.075   1.525
 7219SOL    HW123489   0.575   8.026   1.476
 7219SOL    HW223490   0.720   8.020   1.520
 7220SOL     OW23491   8.309   1.344   0.636
 7220SOL    HW123492   8.365   1.312   0.706
 7220SOL    HW223493   8.296   1.437   0.654
 7221SOL     OW23494   4.231   2.682  13.284
 7221SOL    HW123495   4.236   2.598  13.239
 7221SOL    HW223496   4.143   2.715  13.264
 7222SOL     OW23497  11.368   4.486   1.508
 7222SOL    HW123498  11.315   4.525   1.578
 7222SOL    HW223499  11.437   4.438   1.554
 7223SOL     OW23500  14.218   5.714   7.432
 7223SOL    HW123501  14.308   5.746   7.419
 7223SOL    HW223502  14.188   5.692   7.344
 7224SOL     OW23503  12.441  12.925  12.427
 7224SOL    HW123504  12.447  12.834  12.454
 7224SOL    HW223505  12.427  12.921  12.332
 7225SOL     OW23506   7.946   2.752   8.430
 7225SOL    HW123507   7.910   2.794   8.509
 7225SOL    HW223508   7.876   2.761   8.365
 7226SOL     OW23509   6.389  13.002  12.038
 7226SOL    HW123510   6.362  12.985  11.948
 7226SOL    HW223511   6.390  13.098  12.045
 7227SOL     OW23512   5.191  12.602  11.237
 7227SOL    HW123513   5.242  12.557  11.170
 7227SOL    HW223514   5.235  12.580  11.319
 7228SOL     OW23515   4.026   5.258   3.910
 7228SOL    HW123516   4.065   5.173   3.892
 7228SOL    HW223517   3.939   5.253   3.871
 7229SOL     OW23518  14.612   6.541   4.411
 7229SOL    HW123519  14.661   6.576   4.337
 7229SOL    HW223520  14.527   6.517   4.374
 7230SOL     OW23521   1.427   6.067  12.807
 7230SOL    HW123522   1.420   6.065  12.711
 7230SOL    HW223523   1.458   5.979  12.830
 7231SOL     OW23524   9.184   2.520   3.402
 7231SOL    HW123525   9.213   2.577   3.330
 7231SOL    HW223526   9.120   2.573   3.449
 7232SOL     OW23527   3.087  11.602   7.461
 7232SOL    HW123528   3.172  11.578   7.424
 7232SOL    HW223529   3.067  11.687   7.421
 7233SOL     OW23530  12.926   1.840  14.050
 7233SOL    HW123531  12.864   1.852  14.122
 7233SOL    HW223532  12.916   1.919  13.996
 7234SOL     OW23533   3.642  13.182   7.063
 7234SOL    HW123534   3.700  13.205   6.990
 7234SOL    HW223535   3.561  13.230   7.044
 7235SOL     OW23536  10.473   8.344  10.233
 7235SOL    HW123537  10.462   8.249  10.227
 7235SOL    HW223538  10.385   8.380  10.227
 7236SOL     OW23539   9.468  13.107  14.245
 7236SOL    HW123540   9.478  13.071  14.157
 7236SOL    HW223541   9.547  13.159  14.259
 7237SOL     OW23542   4.417  11.560  13.974
 7237SOL    HW123543   4.495  11.528  13.929
 7237SOL    HW223544   4.407  11.650  13.942
 7238SOL     OW23545  14.040  10.831   0.884
 7238SOL    HW123546  13.970  10.888   0.853
 7238SOL    HW223547  14.028  10.829   0.979
 7239SOL     OW23548   6.052   7.313   9.024
 7239SOL    HW123549   6.067   7.219   9.024
 7239SOL    HW223550   6.140   7.352   9.022
 7240SOL     OW23551   8.632  10.838   7.269
 7240SOL    HW123552   8.558  10.838   7.330
 7240SOL    HW223553   8.706  10.805   7.320
 7241SOL     OW23554  10.856  13.156   5.698
 7241SOL    HW123555  10.772  13.111   5.688
 7241SOL    HW223556  10.895  13.118   5.776
 7242SOL     OW23557   8.602   0.459   4.207
 7242SOL    HW123558   8.636   0.449   4.296
 7242SOL    HW223559   8.606   0.554   4.190
 7243SOL     OW23560   5.759  11.241   5.766
 7243SOL    HW123561   5.793  11.331   5.770
 7243SOL    HW223562   5.837  11.186   5.774
 7244SOL     OW23563  10.948  10.934  12.220
 7244SOL    HW123564  11.014  10.889  12.167
 7244SOL    HW223565  10.987  10.941  12.307
 7245SOL     OW23566  14.352   2.385  10.074
 7245SOL    HW123567  14.344   2.448  10.146
 7245SOL    HW223568  14.263   2.356  10.057
 7246SOL     OW23569  12.124   9.603  10.451
 7246SOL    HW123570  12.061   9.535  10.427
 7246SOL    HW223571  12.200   9.587  10.394
 7247SOL     OW23572  14.445   9.819   9.301
 7247SOL    HW123573  14.520   9.759   9.307
 7247SOL    HW223574  14.381   9.783   9.363
 7248SOL     OW23575  12.983   7.635   8.158
 7248SOL    HW123576  12.985   7.540   8.166
 7248SOL    HW223577  12.898   7.654   8.119
 7249SOL     OW23578   4.624   8.136   9.872
 7249SOL    HW123579   4.658   8.049   9.852
 7249SOL    HW223580   4.571   8.124   9.951
 7250SOL     OW23581   1.823  12.444   0.659
 7250SOL    HW123582   1.834  12.364   0.710
 7250SOL    HW223583   1.748  12.488   0.700
 7251SOL     OW23584  11.888   2.159   5.737
 7251SOL    HW123585  11.880   2.246   5.697
 7251SOL    HW223586  11.877   2.175   5.831
 7252SOL     OW23587   5.365   1.412  12.162
 7252SOL    HW123588   5.300   1.346  12.188
 7252SOL    HW223589   5.422   1.365  12.101
 7253SOL     OW23590   9.464   9.365   7.676
 7253SOL    HW123591   9.434   9.434   7.617
 7253SOL    HW223592   9.453   9.402   7.764
 7254SOL     OW23593  10.918   5.364  10.088
 7254SOL    HW123594  10.848   5.349  10.025
 7254SOL    HW223595  10.980   5.421  10.043
 7255SOL     OW23596  12.577   6.989   4.160
 7255SOL    HW123597  12.503   6.999   4.220
 7255SOL    HW223598  12.558   6.907   4.114
 7256SOL     OW23599   1.728  13.442  11.470
 7256SOL    HW123600   1.756  13.517  11.417
 7256SOL    HW223601   1.635  13.432  11.450
 7257SOL     OW23602   5.834  11.560   7.615
 7257SOL    HW123603   5.866  11.485   7.564
 7257SOL    HW223604   5.741  11.543   7.626
 7258SOL     OW23605  11.496  13.064   5.180
 7258SOL    HW123606  11.530  13.154   5.182
 7258SOL    HW223607  11.410  13.072   5.139
 7259SOL     OW23608   2.299   6.552   7.676
 7259SOL    HW123609   2.393   6.544   7.691
 7259SOL    HW223610   2.291   6.568   7.582
 7260SOL     OW23611  12.060   0.170   2.058
 7260SOL    HW123612  11.990   0.228   2.090
 7260SOL    HW223613  12.097   0.132   2.137
 7261SOL     OW23614  12.970  12.753   3.085
 7261SOL    HW123615  12.985  12.837   3.041
 7261SOL    HW223616  13.008  12.688   3.026
 7262SOL     OW23617  13.138   7.812  13.485
 7262SOL    HW123618  13.044   7.815  13.500
 7262SOL    HW223619  13.176   7.861  13.558
 7263SOL     OW23620  11.356   2.016  13.367
 7263SOL    HW123621  11.324   2.032  13.456
 7263SOL    HW223622  11.288   1.963  13.326
 7264SOL     OW23623  12.534   5.094   6.322
 7264SOL    HW123624  12.611   5.140   6.354
 7264SOL    HW223625  12.460   5.144   6.355
 7265SOL     OW23626  14.416   6.225   6.658
 7265SOL    HW123627  14.398   6.173   6.737
 7265SOL    HW223628  14.493   6.277   6.680
 7266SOL     OW23629   5.108   2.278   4.085
 7266SOL    HW123630   5.062   2.279   4.002
 7266SOL    HW223631   5.065   2.210   4.136
 7267SOL     OW23632   8.289   1.657   8.019
 7267SOL    HW123633   8.295   1.562   8.005
 7267SOL    HW223634   8.313   1.696   7.935
 7268SOL     OW23635  12.893   8.863   9.203
 7268SOL    HW123636  12.966   8.821   9.247
 7268SOL    HW223637  12.923   8.876   9.113
 7269SOL     OW23638   9.194   1.012   9.630
 7269SOL    HW123639   9.205   0.944   9.563
 7269SOL    HW223640   9.283   1.032   9.658
 7270SOL     OW23641   9.916   0.090   2.471
 7270SOL    HW123642   9.896   0.008   2.515
 7270SOL    HW223643   9.884   0.077   2.381
 7271SOL     OW23644   3.014   1.345  14.163
 7271SOL    HW123645   3.074   1.412  14.197
 7271SOL    HW223646   2.929   1.388  14.161
 7272SOL     OW23647   3.320  13.192   2.382
 7272SOL    HW123648   3.325  13.267   2.323
 7272SOL    HW223649   3.411  13.171   2.402
 7273SOL     OW23650   2.469   5.101  13.230
 7273SOL    HW123651   2.526   5.032  13.262
 7273SOL    HW223652   2.507   5.182  13.264
 7274SOL     OW23653   9.399   9.394   8.711
 7274SOL    HW123654   9.378   9.408   8.803
 7274SOL    HW223655   9.465   9.325   8.712
 7275SOL     OW23656   7.768   2.242   7.660
 7275SOL    HW123657   7.774   2.334   7.636
 7275SOL    HW223658   7.854   2.221   7.696
 7276SOL     OW23659  13.487   4.232   2.366
 7276SOL    HW123660  13.495   4.139   2.344
 7276SOL    HW223661  13.393   4.247   2.369
 7277SOL     OW23662  10.036  10.324   5.156
 7277SOL    HW123663   9.994  10.408   5.140
 7277SOL    HW223664  10.130  10.344   5.155
 7278SOL     OW23665  13.791   5.517   4.273
 7278SOL    HW123666  13.725   5.548   4.335
 7278SOL    HW223667  13.852   5.590   4.263
 7279SOL     OW23668   5.129   1.160   3.027
 7279SOL    HW123669   5.133   1.147   3.121
 7279SOL    HW223670   5.165   1.079   2.990
 7280SOL     OW23671   7.862   3.867   2.272
 7280SOL    HW123672   7.831   3.852   2.361
 7280SOL    HW223673   7.916   3.946   2.278
 7281SOL     OW23674   7.249   2.494   9.791
 7281SOL    HW123675   7.304   2.549   9.848
 7281SOL    HW223676   7.180   2.553   9.761
 7282SOL     OW23677   5.905  11.011  10.766
 7282SOL    HW123678   5.846  11.019  10.691
 7282SOL    HW223679   5.988  11.046  10.735
 7283SOL     OW23680   7.289   5.100   8.470
 7283SOL    HW123681   7.260   5.093   8.379
 7283SOL    HW223682   7.369   5.048   8.473
 7284SOL     OW23683  10.126   1.139  10.844
 7284SOL    HW123684  10.041   1.151  10.885
 7284SOL    HW223685  10.189   1.167  10.910
 7285SOL     OW23686   3.869   0.313   7.033
 7285SOL    HW123687   3.829   0.235   6.996
 7285SOL    HW223688   3.800   0.380   7.029
 7286SOL     OW23689  10.131  11.887  12.301
 7286SOL    HW123690  10.039  11.891  12.274
 7286SOL    HW223691  10.142  11.798  12.335
 7287SOL     OW23692   7.168   9.819   3.095
 7287SOL    HW123693   7.222   9.896   3.115
 7287SOL    HW223694   7.152   9.779   3.180
 7288SOL     OW23695   2.954   1.293   1.855
 7288SOL    HW123696   2.999   1.238   1.792
 7288SOL    HW223697   2.875   1.323   1.809
 7289SOL     OW23698  11.819  13.268   5.694
 7289SOL    HW123699  11.797  13.178   5.670
 7289SOL    HW223700  11.846  13.309   5.611
 7290SOL     OW23701   5.498   0.564   1.620
 7290SOL    HW123702   5.555   0.489   1.639
 7290SOL    HW223703   5.524   0.592   1.533
 7291SOL     OW23704   4.718  12.043   4.678
 7291SOL    HW123705   4.753  12.034   4.590
 7291SOL    HW223706   4.676  11.960   4.696
 7292SOL     OW23707   0.612   9.579   4.124
 7292SOL    HW123708   0.628   9.521   4.050
 7292SOL    HW223709   0.678   9.648   4.115
 7293SOL     OW23710  12.562   0.790   0.248
 7293SOL    HW123711  12.588   0.773   0.157
 7293SOL    HW223712  12.467   0.781   0.248
 7294SOL     OW23713   3.194   0.390   5.813
 7294SOL    HW123714   3.172   0.389   5.905
 7294SOL    HW223715   3.112   0.409   5.768
 7295SOL     OW23716   2.980   6.164  10.066
 7295SOL    HW123717   2.943   6.082  10.031
 7295SOL    HW223718   3.074   6.147  10.073
 7296SOL     OW23719  12.082   3.491   7.802
 7296SOL    HW123720  12.146   3.423   7.822
 7296SOL    HW223721  12.066   3.483   7.708
 7297SOL     OW23722   9.081   6.366   1.966
 7297SOL    HW123723   9.108   6.327   2.049
 7297SOL    HW223724   9.113   6.306   1.899
 7298SOL     OW23725   7.028  14.778   7.159
 7298SOL    HW123726   7.110  14.826   7.151
 7298SOL    HW223727   6.962  14.837   7.122
 7299SOL     OW23728  13.850  10.965   9.099
 7299SOL    HW123729  13.813  10.895   9.046
 7299SOL    HW223730  13.929  10.928   9.137
 7300SOL     OW23731   4.343   9.017  12.906
 7300SOL    HW123732   4.263   9.066  12.929
 7300SOL    HW223733   4.352   8.953  12.977
 7301SOL     OW23734  11.560   1.388  10.989
 7301SOL    HW123735  11.603   1.418  10.909
 7301SOL    HW223736  11.632   1.356  11.044
 7302SOL     OW23737   1.581   9.926   9.044
 7302SOL    HW123738   1.596  10.016   9.075
 7302SOL    HW223739   1.595   9.872   9.122
 7303SOL     OW23740   9.695   8.097   3.876
 7303SOL    HW123741   9.643   8.176   3.859
 7303SOL    HW223742   9.661   8.032   3.815
 7304SOL     OW23743   7.639   7.070  13.303
 7304SOL    HW123744   7.601   7.142  13.254
 7304SOL    HW223745   7.730   7.095  13.316
 7305SOL     OW23746  11.474   0.985   0.345
 7305SOL    HW123747  11.413   0.960   0.415
 7305SOL    HW223748  11.500   1.075   0.367
 7306SOL     OW23749   0.049  10.028  10.181
 7306SOL    HW123750   0.043  10.085  10.257
 7306SOL    HW223751  14.857   9.961  10.195
 7307SOL     OW23752   1.957   5.030   2.803
 7307SOL    HW123753   1.907   5.108   2.776
 7307SOL    HW223754   1.994   4.996   2.722
 7308SOL     OW23755   8.081   0.658   6.555
 7308SOL    HW123756   8.161   0.694   6.592
 7308SOL    HW223757   8.109   0.581   6.505
 7309SOL     OW23758   2.569   3.204  13.941
 7309SOL    HW123759   2.664   3.214  13.935
 7309SOL    HW223760   2.544   3.259  14.014
 7310SOL     OW23761   5.934  11.531  13.388
 7310SOL    HW123762   5.973  11.554  13.473
 7310SOL    HW223763   5.860  11.592  13.379
 7311SOL     OW23764   0.790   5.890   9.463
 7311SOL    HW123765   0.837   5.812   9.495
 7311SOL    HW223766   0.846   5.963   9.489
 7312SOL     OW23767  13.293  11.843   1.633
 7312SOL    HW123768  13.369  11.837   1.574
 7312SOL    HW223769  13.326  11.815   1.718
 7313SOL     OW23770   6.191   2.108   4.523
 7313SOL    HW123771   6.216   2.122   4.615
 7313SOL    HW223772   6.215   2.190   4.479
 7314SOL     OW23773   0.573   1.116   1.249
 7314SOL    HW123774   0.543   1.129   1.159
 7314SOL    HW223775   0.555   1.199   1.293
 7315SOL     OW23776   0.877   9.166   4.754
 7315SOL    HW123777   0.856   9.204   4.840
 7315SOL    HW223778   0.919   9.083   4.775
 7316SOL     OW23779   1.095   4.962   9.479
 7316SOL    HW123780   1.093   5.008   9.563
 7316SOL    HW223781   1.125   5.028   9.417
 7317SOL     OW23782   5.784   3.697   5.997
 7317SOL    HW123783   5.695   3.732   5.992
 7317SOL    HW223784   5.806   3.672   5.907
 7318SOL     OW23785   4.839   9.317   0.784
 7318SOL    HW123786   4.796   9.391   0.741
 7318SOL    HW223787   4.767   9.265   0.820
 7319SOL     OW23788   3.173   1.014  11.871
 7319SOL    HW123789   3.152   0.921  11.862
 7319SOL    HW223790   3.196   1.024  11.963
 7320SOL     OW23791  14.108   1.482   7.843
 7320SOL    HW123792  14.017   1.475   7.872
 7320SOL    HW223793  14.110   1.559   7.787
 7321SOL     OW23794  13.277  11.003  11.950
 7321SOL    HW123795  13.243  10.914  11.956
 7321SOL    HW223796  13.351  10.997  11.890
 7322SOL     OW23797   3.763   7.368  10.029
 7322SOL    HW123798   3.797   7.279  10.038
 7322SOL    HW223799   3.715   7.368   9.947
 7323SOL     OW23800   9.799   6.807   7.030
 7323SOL    HW123801   9.764   6.741   6.970
 7323SOL    HW223802   9.845   6.756   7.096
 7324SOL     OW23803   5.607   3.795   0.184
 7324SOL    HW123804   5.605   3.758   0.272
 7324SOL    HW223805   5.673   3.864   0.188
 7325SOL     OW23806   3.678   9.668   2.901
 7325SOL    HW123807   3.657   9.660   2.808
 7325SOL    HW223808   3.664   9.581   2.937
 7326SOL     OW23809  13.912   2.659   9.624
 7326SOL    HW123810  13.852   2.628   9.692
 7326SOL    HW223811  13.905   2.592   9.555
 7327SOL     OW23812   8.650   5.801  10.124
 7327SOL    HW123813   8.620   5.711  10.137
 7327SOL    HW223814   8.614   5.826  10.039
 7328SOL     OW23815   6.492   0.699   3.390
 7328SOL    HW123816   6.506   0.710   3.295
 7328SOL    HW223817   6.579   0.682   3.425
 7329SOL     OW23818   9.774  12.943   1.239
 7329SOL    HW123819   9.824  12.976   1.314
 7329SOL    HW223820   9.836  12.945   1.166
 7330SOL     OW23821   3.138  14.009  11.552
 7330SOL    HW123822   3.133  14.051  11.466
 7330SOL    HW223823   3.052  13.968  11.564
 7331SOL     OW23824   4.602  11.094   9.834
 7331SOL    HW123825   4.592  11.072   9.926
 7331SOL    HW223826   4.550  11.173   9.822
 7332SOL     OW23827  14.320   6.326   0.684
 7332SOL    HW123828  14.391   6.369   0.731
 7332SOL    HW223829  14.358   6.244   0.653
 7333SOL     OW23830   7.633  10.843  12.476
 7333SOL    HW123831   7.634  10.895  12.557
 7333SOL    HW223832   7.543  10.812  12.469
 7334SOL     OW23833   0.510   5.102  11.519
 7334SOL    HW123834   0.423   5.139  11.502
 7334SOL    HW223835   0.495   5.038  11.588
 7335SOL     OW23836   5.520   4.343   4.745
 7335SOL    HW123837   5.454   4.323   4.678
 7335SOL    HW223838   5.565   4.260   4.760
 7336SOL     OW23839   3.829   5.192  14.265
 7336SOL    HW123840   3.868   5.175  14.350
 7336SOL    HW223841   3.887   5.150  14.202
 7337SOL     OW23842   9.173  10.023   5.479
 7337SOL    HW123843   9.217  10.104   5.505
 7337SOL    HW223844   9.188  10.016   5.385
 7338SOL     OW23845  10.035   7.878  13.689
 7338SOL    HW123846  10.097   7.867  13.761
 7338SOL    HW223847  10.042   7.971  13.666
 7339SOL     OW23848   4.900  10.989   1.955
 7339SOL    HW123849   4.859  10.927   1.896
 7339SOL    HW223850   4.954  10.935   2.013
 7340SOL     OW23851   0.868   0.866   8.638
 7340SOL    HW123852   0.944   0.812   8.616
 7340SOL    HW223853   0.900   0.927   8.705
 7341SOL     OW23854   6.903   0.281   1.230
 7341SOL    HW123855   6.990   0.311   1.257
 7341SOL    HW223856   6.900   0.189   1.256
 7342SOL     OW23857  12.245  12.212  14.500
 7342SOL    HW123858  12.205  12.237  14.416
 7342SOL    HW223859  12.171  12.190  14.556
 7343SOL     OW23860   7.205   5.184  13.605
 7343SOL    HW123861   7.287   5.169  13.652
 7343SOL    HW223862   7.228   5.174  13.513
 7344SOL     OW23863   6.589   7.273  13.232
 7344SOL    HW123864   6.567   7.329  13.306
 7344SOL    HW223865   6.523   7.293  13.166
 7345SOL     OW23866   6.999   3.126   4.230
 7345SOL    HW123867   7.061   3.170   4.171
 7345SOL    HW223868   6.978   3.192   4.296
 7346SOL     OW23869   0.078   4.495  13.193
 7346SOL    HW123870   0.091   4.585  13.163
 7346SOL    HW223871  14.859   4.483  13.191
 7347SOL     OW23872  11.535  13.641   4.688
 7347SOL    HW123873  11.530  13.549   4.660
 7347SOL    HW223874  11.605  13.678   4.634
 7348SOL     OW23875  12.587  10.987   7.287
 7348SOL    HW123876  12.655  11.020   7.228
 7348SOL    HW223877  12.535  11.065   7.310
 7349SOL     OW23878   1.374  14.285   8.015
 7349SOL    HW123879   1.467  14.264   8.020
 7349SOL    HW223880   1.360  14.350   8.084
 7350SOL     OW23881  12.488   3.652   5.842
 7350SOL    HW123882  12.460   3.563   5.866
 7350SOL    HW223883  12.509   3.694   5.926
 7351SOL     OW23884   8.334  14.463  12.985
 7351SOL    HW123885   8.339  14.510  12.902
 7351SOL    HW223886   8.414  14.412  12.989
 7352SOL     OW23887   2.777  10.380   6.987
 7352SOL    HW123888   2.839  10.307   6.997
 7352SOL    HW223889   2.751  10.376   6.895
 7353SOL     OW23890   3.563   3.145  14.395
 7353SOL    HW123891   3.643   3.138  14.342
 7353SOL    HW223892   3.494   3.163  14.331
 7354SOL     OW23893   1.581   1.178   2.040
 7354SOL    HW123894   1.576   1.169   2.135
 7354SOL    HW223895   1.667   1.144   2.017
 7355SOL     OW23896   9.364   8.113   5.390
 7355SOL    HW123897   9.395   8.046   5.328
 7355SOL    HW223898   9.412   8.192   5.365
 7356SOL     OW23899  13.028   2.507   9.200
 7356SOL    HW123900  13.041   2.422   9.158
 7356SOL    HW223901  13.107   2.557   9.178
 7357SOL     OW23902   7.144  13.645   9.678
 7357SOL    HW123903   7.057  13.670   9.710
 7357SOL    HW223904   7.176  13.581   9.742
 7358SOL     OW23905  14.370  10.348  13.821
 7358SOL    HW123906  14.367  10.289  13.896
 7358SOL    HW223907  14.396  10.293  13.747
 7359SOL     OW23908   6.431   2.585   3.169
 7359SOL    HW123909   6.371   2.522   3.207
 7359SOL    HW223910   6.482   2.617   3.243
 7360SOL     OW23911  13.973  11.747  11.265
 7360SOL    HW123912  14.015  11.673  11.222
 7360SOL    HW223913  13.879  11.730  11.256
 7361SOL     OW23914   1.546  10.277   1.021
 7361SOL    HW123915   1.530  10.210   1.087
 7361SOL    HW223916   1.467  10.331   1.020
 7362SOL     OW23917  12.735   0.288   6.369
 7362SOL    HW123918  12.768   0.254   6.285
 7362SOL    HW223919  12.744   0.383   6.361
 7363SOL     OW23920   0.666   2.511   4.451
 7363SOL    HW123921   0.712   2.594   4.464
 7363SOL    HW223922   0.730   2.454   4.408
 7364SOL     OW23923  13.240   7.951   2.849
 7364SOL    HW123924  13.287   7.884   2.799
 7364SOL    HW223925  13.148   7.922   2.847
 7365SOL     OW23926  11.203   8.309   2.043
 7365SOL    HW123927  11.235   8.393   2.008
 7365SOL    HW223928  11.191   8.325   2.137
 7366SOL     OW23929   2.306   7.054  13.852
 7366SOL    HW123930   2.301   6.975  13.906
 7366SOL    HW223931   2.396   7.052  13.817
 7367SOL     OW23932   7.550   1.071  14.664
 7367SOL    HW123933   7.588   0.991  14.699
 7367SOL    HW223934   7.589   1.081  14.578
 7368SOL     OW23935   8.387   1.293  13.898
 7368SOL    HW123936   8.431   1.362  13.850
 7368SOL    HW223937   8.294   1.303  13.877
 7369SOL     OW23938   9.634  11.188   6.508
 7369SOL    HW123939   9.665  11.277   6.495
 7369SOL    HW223940   9.710  11.132   6.493
 7370SOL     OW23941   0.929   6.758  11.214
 7370SOL    HW123942   0.967   6.675  11.184
 7370SOL    HW223943   0.865   6.780  11.146
 7371SOL     OW23944  11.878  10.791   6.738
 7371SOL    HW123945  11.860  10.709   6.783
 7371SOL    HW223946  11.864  10.859   6.804
 7372SOL     OW23947   9.341  13.713   5.559
 7372SOL    HW123948   9.434  13.719   5.537
 7372SOL    HW223949   9.296  13.722   5.475
 7373SOL     OW23950   7.158   5.857   2.105
 7373SOL    HW123951   7.187   5.911   2.178
 7373SOL    HW223952   7.197   5.772   2.121
 7374SOL     OW23953   8.077   7.764   8.316
 7374SOL    HW123954   8.103   7.848   8.354
 7374SOL    HW223955   8.018   7.787   8.244
 7375SOL     OW23956   4.057   3.601   4.795
 7375SOL    HW123957   3.976   3.562   4.829
 7375SOL    HW223958   4.119   3.596   4.867
 7376SOL     OW23959  14.150   6.120  13.080
 7376SOL    HW123960  14.193   6.202  13.055
 7376SOL    HW223961  14.164   6.063  13.005
 7377SOL     OW23962  12.398   3.374   6.577
 7377SOL    HW123963  12.399   3.287   6.537
 7377SOL    HW223964  12.359   3.360   6.664
 7378SOL     OW23965   5.073  10.289  13.912
 7378SOL    HW123966   5.082  10.384  13.910
 7378SOL    HW223967   5.118  10.262  13.993
 7379SOL     OW23968  12.110  10.879  10.041
 7379SOL    HW123969  12.054  10.827  10.099
 7379SOL    HW223970  12.137  10.817   9.972
 7380SOL     OW23971   2.171   8.391  13.321
 7380SOL    HW123972   2.076   8.399  13.333
 7380SOL    HW223973   2.181   8.363  13.230
 7381SOL     OW23974   1.750   5.994  13.415
 7381SOL    HW123975   1.793   5.991  13.500
 7381SOL    HW223976   1.799   5.932  13.361
 7382SOL     OW23977   3.992   1.312  11.387
 7382SOL    HW123978   4.023   1.222  11.388
 7382SOL    HW223979   3.975   1.333  11.479
 7383SOL     OW23980   4.567   9.640   9.576
 7383SOL    HW123981   4.527   9.556   9.558
 7383SOL    HW223982   4.497   9.693   9.615
 7384SOL     OW23983  13.668   0.914   8.817
 7384SOL    HW123984  13.742   0.869   8.857
 7384SOL    HW223985  13.596   0.902   8.879
 7385SOL     OW23986   2.471   9.878  10.852
 7385SOL    HW123987   2.481   9.948  10.787
 7385SOL    HW223988   2.380   9.886  10.882
 7386SOL     OW23989  10.727  12.417   0.239
 7386SOL    HW123990  10.707  12.455   0.153
 7386SOL    HW223991  10.736  12.492   0.297
 7387SOL     OW23992   5.835   8.751   0.179
 7387SOL    HW123993   5.929   8.768   0.175
 7387SOL    HW223994   5.797   8.831   0.215
 7388SOL     OW23995   6.888  11.799  12.770
 7388SOL    HW123996   6.809  11.751  12.743
 7388SOL    HW223997   6.927  11.827  12.688
 7389SOL     OW23998   1.073   2.062   7.525
 7389SOL    HW123999   1.132   1.988   7.514
 7389SOL    HW224000   1.096   2.122   7.454
 7390SOL     OW24001   6.370  13.246   0.717
 7390SOL    HW124002   6.329  13.257   0.803
 7390SOL    HW224003   6.312  13.293   0.657
 7391SOL     OW24004   5.426  13.632   2.682
 7391SOL    HW124005   5.334  13.653   2.697
 7391SOL    HW224006   5.447  13.568   2.749
 7392SOL     OW24007   5.774  11.037   5.167
 7392SOL    HW124008   5.831  10.975   5.212
 7392SOL    HW224009   5.747  10.992   5.087
 7393SOL     OW24010   5.594  10.577  10.977
 7393SOL    HW124011   5.619  10.665  10.949
 7393SOL    HW224012   5.642  10.518  10.919
 7394SOL     OW24013  12.779  11.429   2.188
 7394SOL    HW124014  12.713  11.372   2.229
 7394SOL    HW224015  12.790  11.394   2.100
 7395SOL     OW24016   0.725   6.893  11.903
 7395SOL    HW124017   0.724   6.836  11.980
 7395SOL    HW224018   0.804   6.867  11.855
 7396SOL     OW24019  10.853  13.095  10.835
 7396SOL    HW124020  10.917  13.074  10.767
 7396SOL    HW224021  10.902  13.088  10.917
 7397SOL     OW24022   4.482   0.087  14.651
 7397SOL    HW124023   4.548   0.155  14.639
 7397SOL    HW224024   4.406   0.119  14.603
 7398SOL     OW24025   5.990   2.170   2.314
 7398SOL    HW124026   5.942   2.168   2.397
 7398SOL    HW224027   6.065   2.113   2.329
 7399SOL     OW24028   8.274   1.279   5.777
 7399SOL    HW124029   8.239   1.321   5.856
 7399SOL    HW224030   8.220   1.201   5.765
 7400SOL     OW24031   2.590   8.294  14.873
 7400SOL    HW124032   2.674   8.251  14.856
 7400SOL    HW224033   2.553   8.247   0.071
 7401SOL     OW24034  10.488   6.554   8.415
 7401SOL    HW124035  10.430   6.572   8.490
 7401SOL    HW224036  10.435   6.499   8.357
 7402SOL     OW24037   6.219  12.623  13.770
 7402SOL    HW124038   6.205  12.711  13.806
 7402SOL    HW224039   6.304  12.596  13.805
 7403SOL     OW24040   2.711   7.859   0.012
 7403SOL    HW124041   2.740   7.807   0.087
 7403SOL    HW224042   2.757   7.942   0.021
 7404SOL     OW24043  11.552  13.108   3.122
 7404SOL    HW124044  11.520  13.181   3.174
 7404SOL    HW224045  11.474  13.075   3.077
 7405SOL     OW24046   0.473   2.869   0.009
 7405SOL    HW124047   0.487   2.848   0.101
 7405SOL    HW224048   0.378   2.861  14.873
 7406SOL     OW24049   5.515  10.772  14.558
 7406SOL    HW124050   5.501  10.846  14.498
 7406SOL    HW224051   5.604  10.785  14.591
 7407SOL     OW24052   1.712  12.479  11.081
 7407SOL    HW124053   1.642  12.529  11.122
 7407SOL    HW224054   1.679  12.458  10.993
 7408SOL     OW24055  10.183   0.154   7.230
 7408SOL    HW124056  10.119   0.094   7.268
 7408SOL    HW224057  10.159   0.161   7.138
 7409SOL     OW24058   0.627   6.715   7.127
 7409SOL    HW124059   0.646   6.807   7.107
 7409SOL    HW224060   0.534   6.705   7.109
 7410SOL     OW24061   7.544   2.881  11.553
 7410SOL    HW124062   7.584   2.956  11.598
 7410SOL    HW224063   7.456   2.876  11.589
 7411SOL     OW24064  14.874  14.847   4.079
 7411SOL    HW124065  14.846   0.032   4.011
 7411SOL    HW224066  14.810  14.775   4.075
 7412SOL     OW24067   7.718   4.631   5.123
 7412SOL    HW124068   7.789   4.693   5.107
 7412SOL    HW224069   7.651   4.655   5.059
 7413SOL     OW24070   6.613  13.713   7.494
 7413SOL    HW124071   6.701  13.741   7.519
 7413SOL    HW224072   6.556  13.753   7.560
 7414SOL     OW24073   1.279   0.245  11.990
 7414SOL    HW124074   1.315   0.281  12.071
 7414SOL    HW224075   1.324   0.161  11.979
 7415SOL     OW24076  12.501   1.077   6.311
 7415SOL    HW124077  12.489   1.163   6.271
 7415SOL    HW224078  12.594   1.057   6.299
 7416SOL     OW24079  11.971   2.469   7.371
 7416SOL    HW124080  12.052   2.425   7.347
 7416SOL    HW224081  11.945   2.517   7.293
 7417SOL     OW24082   4.228  14.498  14.854
 7417SOL    HW124083   4.178  14.436  14.801
 7417SOL    HW224084   4.320  14.477  14.835
 7418SOL     OW24085  12.682   7.496   8.364
 7418SOL    HW124086  12.680   7.437   8.439
 7418SOL    HW224087  12.747   7.458   8.305
 7419SOL     OW24088  10.027  14.354   2.283
 7419SOL    HW124089  10.105  14.364   2.229
 7419SOL    HW224090  10.007  14.260   2.280
 7420SOL     OW24091   1.281  14.500   8.167
 7420SOL    HW124092   1.264  14.591   8.142
 7420SOL    HW224093   1.195  14.460   8.168
 7421SOL     OW24094  11.938  14.472  13.445
 7421SOL    HW124095  12.029  14.493  13.425
 7421SOL    HW224096  11.899  14.451  13.360
 7422SOL     OW24097  10.794  12.949  13.561
 7422SOL    HW124098  10.870  12.893  13.547
 7422SOL    HW224099  10.814  13.029  13.512
 7423SOL     OW24100   8.697  11.340  14.324
 7423SOL    HW124101   8.747  11.417  14.295
 7423SOL    HW224102   8.739  11.313  14.405
 7424SOL     OW24103   0.787  12.390   4.761
 7424SOL    HW124104   0.824  12.461   4.814
 7424SOL    HW224105   0.864  12.346   4.723
 7425SOL     OW24106   0.480   3.471  13.258
 7425SOL    HW124107   0.524   3.418  13.324
 7425SOL    HW224108   0.437   3.541  13.308
 7426SOL     OW24109   5.569   0.334   3.105
 7426SOL    HW124110   5.565   0.276   3.029
 7426SOL    HW224111   5.503   0.300   3.165
 7427SOL     OW24112  10.418   0.595  11.278
 7427SOL    HW124113  10.513   0.594  11.289
 7427SOL    HW224114  10.401   0.675  11.226
 7428SOL     OW24115   9.837   0.873  11.659
 7428SOL    HW124116   9.817   0.937  11.590
 7428SOL    HW224117   9.897   0.919  11.717
 7429SOL     OW24118   8.350   1.104   1.286
 7429SOL    HW124119   8.302   1.099   1.204
 7429SOL    HW224120   8.299   1.163   1.341
 7430SOL     OW24121  10.863  14.690  14.065
 7430SOL    HW124122  10.893  14.714  13.977
 7430SOL    HW224123  10.933  14.719  14.123
 7431SOL     OW24124   2.085  13.035   7.613
 7431SOL    HW124125   2.156  13.090   7.581
 7431SOL    HW224126   2.059  13.074   7.696
 7432SOL     OW24127   5.392   4.023   9.109
 7432SOL    HW124128   5.364   3.985   9.192
 7432SOL    HW224129   5.339   4.102   9.100
 7433SOL     OW24130   4.616  12.132   0.807
 7433SOL    HW124131   4.561  12.087   0.743
 7433SOL    HW224132   4.661  12.062   0.853
 7434SOL     OW24133  10.091   6.848   1.291
 7434SOL    HW124134  10.139   6.794   1.355
 7434SOL    HW224135  10.159   6.889   1.239
 7435SOL     OW24136  13.076  12.806   0.455
 7435SOL    HW124137  13.168  12.830   0.445
 7435SOL    HW224138  13.031  12.889   0.474
 7436SOL     OW24139   9.025  13.566  13.582
 7436SOL    HW124140   8.993  13.478  13.561
 7436SOL    HW224141   9.098  13.552  13.643
 7437SOL     OW24142   1.458   3.829  13.858
 7437SOL    HW124143   1.515   3.866  13.791
 7437SOL    HW224144   1.461   3.735  13.844
 7438SOL     OW24145  13.697   7.947  13.147
 7438SOL    HW124146  13.653   7.962  13.063
 7438SOL    HW224147  13.651   7.872  13.185
 7439SOL     OW24148   7.844   7.595   0.367
 7439SOL    HW124149   7.809   7.538   0.435
 7439SOL    HW224150   7.938   7.574   0.365
 7440SOL     OW24151   9.071   6.299   2.393
 7440SOL    HW124152   8.994   6.334   2.347
 7440SOL    HW224153   9.037   6.225   2.444
 7441SOL     OW24154   2.143   3.021   8.937
 7441SOL    HW124155   2.085   2.947   8.920
 7441SOL    HW224156   2.163   3.016   9.030
 7442SOL     OW24157   2.440   0.624  11.035
 7442SOL    HW124158   2.377   0.694  11.016
 7442SOL    HW224159   2.510   0.669  11.083
 7443SOL     OW24160   1.125   7.636  14.772
 7443SOL    HW124161   1.039   7.639  14.730
 7443SOL    HW224162   1.130   7.716  14.825
 7444SOL     OW24163   6.732   1.144   4.777
 7444SOL    HW124164   6.823   1.131   4.806
 7444SOL    HW224165   6.724   1.239   4.766
 7445SOL     OW24166   5.287   0.419  12.245
 7445SOL    HW124167   5.205   0.465  12.258
 7445SOL    HW224168   5.349   0.463  12.305
 7446SOL     OW24169  10.927   8.359   5.024
 7446SOL    HW124170  10.891   8.439   5.062
 7446SOL    HW224171  10.883   8.288   5.072
 7447SOL     OW24172  13.288  13.153   3.173
 7447SOL    HW124173  13.292  13.087   3.103
 7447SOL    HW224174  13.342  13.225   3.141
 7448SOL     OW24175   2.275   8.964   0.165
 7448SOL    HW124176   2.304   9.048   0.128
 7448SOL    HW224177   2.349   8.935   0.219
 7449SOL     OW24178  12.571   2.463  11.950
 7449SOL    HW124179  12.501   2.524  11.974
 7449SOL    HW224180  12.649   2.518  11.945
 7450SOL     OW24181   9.526   1.239   5.353
 7450SOL    HW124182   9.604   1.238   5.409
 7450SOL    HW224183   9.496   1.148   5.353
 7451SOL     OW24184  14.480   8.080   4.374
 7451SOL    HW124185  14.465   8.174   4.383
 7451SOL    HW224186  14.395   8.045   4.346
 7452SOL     OW24187   9.173   5.766   4.815
 7452SOL    HW124188   9.132   5.787   4.731
 7452SOL    HW224189   9.132   5.826   4.878
 7453SOL     OW24190  10.596   5.026   3.991
 7453SOL    HW124191  10.650   4.974   3.931
 7453SOL    HW224192  10.616   4.990   4.078
 7454SOL     OW24193   6.799   0.718  12.784
 7454SOL    HW124194   6.775   0.712  12.876
 7454SOL    HW224195   6.838   0.805  12.776
 7455SOL     OW24196   3.873   8.009  10.103
 7455SOL    HW124197   3.905   8.098  10.092
 7455SOL    HW224198   3.936   7.955  10.055
 7456SOL     OW24199   1.051   6.509  10.990
 7456SOL    HW124200   1.122   6.461  11.032
 7456SOL    HW224201   0.971   6.468  11.024
 7457SOL     OW24202  11.992  10.239   0.943
 7457SOL    HW124203  11.898  10.228   0.958
 7457SOL    HW224204  12.014  10.173   0.878
 7458SOL     OW24205   3.817   1.462   1.608
 7458SOL    HW124206   3.903   1.421   1.618
 7458SOL    HW224207   3.765   1.397   1.561
 7459SOL     OW24208   1.730  11.152   9.336
 7459SOL    HW124209   1.787  11.078   9.355
 7459SOL    HW224210   1.658  11.115   9.285
 7460SOL     OW24211   3.092   8.097   1.009
 7460SOL    HW124212   3.100   8.015   0.961
 7460SOL    HW224213   3.106   8.072   1.100
 7461SOL     OW24214  10.340   6.511  13.611
 7461SOL    HW124215  10.314   6.600  13.585
 7461SOL    HW224216  10.258   6.469  13.637
 7462SOL     OW24217  10.741   2.297  10.811
 7462SOL    HW124218  10.717   2.357  10.741
 7462SOL    HW224219  10.783   2.223  10.767
 7463SOL     OW24220   1.108   3.577  12.958
 7463SOL    HW124221   1.156   3.596  12.877
 7463SOL    HW224222   1.171   3.595  13.028
 7464SOL     OW24223   5.443   1.865   3.068
 7464SOL    HW124224   5.462   1.946   3.020
 7464SOL    HW224225   5.353   1.845   3.045
 7465SOL     OW24226  10.739   2.200   2.814
 7465SOL    HW124227  10.763   2.217   2.723
 7465SOL    HW224228  10.661   2.253   2.829
 7466SOL     OW24229   6.197  14.021   3.290
 7466SOL    HW124230   6.191  14.039   3.384
 7466SOL    HW224231   6.137  13.947   3.276
 7467SOL     OW24232   3.272   6.824   1.601
 7467SOL    HW124233   3.240   6.842   1.689
 7467SOL    HW224234   3.300   6.732   1.604
 7468SOL     OW24235   0.871  13.537   3.709
 7468SOL    HW124236   0.880  13.629   3.685
 7468SOL    HW224237   0.888  13.489   3.628
 7469SOL     OW24238   0.388   1.228   2.374
 7469SOL    HW124239   0.402   1.315   2.337
 7469SOL    HW224240   0.427   1.233   2.462
 7470SOL     OW24241   3.858   0.039   3.455
 7470SOL    HW124242   3.806  14.847   3.412
 7470SOL    HW224243   3.942   0.036   3.409
 7471SOL     OW24244   8.875  12.089   3.258
 7471SOL    HW124245   8.960  12.050   3.241
 7471SOL    HW224246   8.844  12.118   3.172
 7472SOL     OW24247  13.265   5.054   0.118
 7472SOL    HW124248  13.247   5.147   0.133
 7472SOL    HW224249  13.302   5.023   0.200
 7473SOL     OW24250   4.179   0.247   7.185
 7473SOL    HW124251   4.260   0.287   7.153
 7473SOL    HW224252   4.125   0.322   7.210
 7474SOL     OW24253  12.612   4.930   4.872
 7474SOL    HW124254  12.633   4.967   4.958
 7474SOL    HW224255  12.677   4.861   4.859
 7475SOL     OW24256   9.460   4.836   9.369
 7475SOL    HW124257   9.490   4.927   9.363
 7475SOL    HW224258   9.495   4.794   9.291
 7476SOL     OW24259  10.238   3.635   5.913
 7476SOL    HW124260  10.275   3.652   5.999
 7476SOL    HW224261  10.201   3.547   5.919
 7477SOL     OW24262   1.035  12.767   1.290
 7477SOL    HW124263   0.989  12.794   1.369
 7477SOL    HW224264   1.001  12.825   1.222
 7478SOL     OW24265   0.133  13.176   8.703
 7478SOL    HW124266   0.082  13.251   8.736
 7478SOL    HW224267   0.069  13.124   8.655
 7479SOL     OW24268   2.138   6.540  12.920
 7479SOL    HW124269   2.114   6.452  12.950
 7479SOL    HW224270   2.229   6.533  12.891
 7480SOL     OW24271   4.365   0.314   6.153
 7480SOL    HW124272   4.408   0.238   6.192
 7480SOL    HW224273   4.314   0.352   6.224
 7481SOL     OW24274   7.464   6.867   6.492
 7481SOL    HW124275   7.462   6.924   6.415
 7481SOL    HW224276   7.373   6.863   6.521
 7482SOL     OW24277  14.405   7.797  14.197
 7482SOL    HW124278  14.392   7.887  14.167
 7482SOL    HW224279  14.336   7.747  14.154
 7483SOL     OW24280   2.134  14.423   7.881
 7483SOL    HW124281   2.181  14.506   7.874
 7483SOL    HW224282   2.174  14.379   7.956
 7484SOL     OW24283   3.094  11.372  14.240
 7484SOL    HW124284   3.067  11.456  14.203
 7484SOL    HW224285   3.015  11.339  14.284
 7485SOL     OW24286   5.213   6.742   9.979
 7485SOL    HW124287   5.304   6.752  10.009
 7485SOL    HW224288   5.162   6.742  10.060
 7486SOL     OW24289   9.083   6.366  12.170
 7486SOL    HW124290   9.135   6.413  12.235
 7486SOL    HW224291   9.002   6.416  12.162
 7487SOL     OW24292   5.028   3.128   5.076
 7487SOL    HW124293   5.114   3.110   5.115
 7487SOL    HW224294   4.968   3.070   5.123
 7488SOL     OW24295  10.106   5.216  11.752
 7488SOL    HW124296  10.118   5.148  11.819
 7488SOL    HW224297  10.016   5.245  11.764
 7489SOL     OW24298   5.697   4.387  10.537
 7489SOL    HW124299   5.681   4.406  10.630
 7489SOL    HW224300   5.765   4.449  10.512
 7490SOL     OW24301   8.224   6.558  12.284
 7490SOL    HW124302   8.190   6.553  12.195
 7490SOL    HW224303   8.289   6.488  12.290
 7491SOL     OW24304   6.809   1.488   0.773
 7491SOL    HW124305   6.865   1.430   0.721
 7491SOL    HW224306   6.725   1.442   0.779
 7492SOL     OW24307   4.133   8.487   1.432
 7492SOL    HW124308   4.082   8.568   1.438
 7492SOL    HW224309   4.121   8.444   1.517
 7493SOL     OW24310  14.650   3.160   2.298
 7493SOL    HW124311  14.689   3.212   2.229
 7493SOL    HW224312  14.579   3.112   2.256
 7494SOL     OW24313   1.865   2.005   5.649
 7494SOL    HW124314   1.776   1.998   5.684
 7494SOL    HW224315   1.916   2.041   5.721
 7495SOL     OW24316   0.704   1.288   9.505
 7495SOL    HW124317   0.750   1.212   9.542
 7495SOL    HW224318   0.693   1.348   9.578
 7496SOL     OW24319   3.473   5.357  12.679
 7496SOL    HW124320   3.541   5.368  12.613
 7496SOL    HW224321   3.410   5.427  12.662
 7497SOL     OW24322   7.573   1.954   1.529
 7497SOL    HW124323   7.620   2.030   1.495
 7497SOL    HW224324   7.545   1.981   1.617
 7498SOL     OW24325   9.065   2.657   9.115
 7498SOL    HW124326   9.009   2.723   9.074
 7498SOL    HW224327   9.019   2.632   9.195
 7499SOL     OW24328   4.260   3.261   2.859
 7499SOL    HW124329   4.247   3.168   2.880
 7499SOL    HW224330   4.347   3.282   2.893
 7500SOL     OW24331  10.992   5.701   5.651
 7500SOL    HW124332  10.937   5.670   5.723
 7500SOL    HW224333  10.992   5.796   5.660
 7501SOL     OW24334   3.059  10.817   5.879
 7501SOL    HW124335   3.110  10.809   5.798
 7501SOL    HW224336   3.060  10.911   5.899
 7502SOL     OW24337   1.085   5.250  10.504
 7502SOL    HW124338   1.103   5.159  10.527
 7502SOL    HW224339   1.058   5.246  10.412
 7503SOL     OW24340   7.461   7.304   4.239
 7503SOL    HW124341   7.483   7.393   4.269
 7503SOL    HW224342   7.505   7.247   4.302
 7504SOL     OW24343   6.931   3.294   4.438
 7504SOL    HW124344   6.882   3.376   4.439
 7504SOL    HW224345   6.946   3.274   4.530
 7505SOL     OW24346  12.375  13.023   9.699
 7505SOL    HW124347  12.413  12.994   9.783
 7505SOL    HW224348  12.392  13.117   9.695
 7506SOL     OW24349  11.677  12.531   4.918
 7506SOL    HW124350  11.722  12.606   4.955
 7506SOL    HW224351  11.601  12.568   4.873
 7507SOL     OW24352   3.316   6.259   9.991
 7507SOL    HW124353   3.317   6.345  10.033
 7507SOL    HW224354   3.275   6.201  10.056
 7508SOL     OW24355  12.943   0.749  10.480
 7508SOL    HW124356  12.994   0.676  10.515
 7508SOL    HW224357  12.953   0.819  10.546
 7509SOL     OW24358   7.816   1.199  11.436
 7509SOL    HW124359   7.742   1.159  11.390
 7509SOL    HW224360   7.838   1.135  11.504
 7510SOL     OW24361  10.636  10.392   5.693
 7510SOL    HW124362  10.725  10.415   5.667
 7510SOL    HW224363  10.647  10.342   5.774
 7511SOL     OW24364  10.405   6.385   0.400
 7511SOL    HW124365  10.485   6.402   0.451
 7511SOL    HW224366  10.343   6.349   0.463
 7512SOL     OW24367   2.526  11.046  13.937
 7512SOL    HW124368   2.457  11.004  13.989
 7512SOL    HW224369   2.493  11.042  13.847
 7513SOL     OW24370  12.135   2.677  13.322
 7513SOL    HW124371  12.060   2.623  13.346
 7513SOL    HW224372  12.130   2.752  13.381
 7514SOL     OW24373   6.037   9.642   6.452
 7514SOL    HW124374   6.037   9.551   6.421
 7514SOL    HW224375   6.036   9.694   6.372
 7515SOL     OW24376   8.322   3.298   5.607
 7515SOL    HW124377   8.239   3.281   5.652
 7515SOL    HW224378   8.387   3.303   5.678
 7516SOL     OW24379  10.549   7.074   5.704
 7516SOL    HW124380  10.455   7.057   5.713
 7516SOL    HW224381  10.570   7.133   5.776
 7517SOL     OW24382  12.092  11.923  11.952
 7517SOL    HW124383  12.006  11.889  11.978
 7517SOL    HW224384  12.105  12.000  12.008
 7518SOL     OW24385   4.024   6.774   2.258
 7518SOL    HW124386   4.096   6.831   2.231
 7518SOL    HW224387   3.957   6.833   2.292
 7519SOL     OW24388   9.508  12.682   9.367
 7519SOL    HW124389   9.534  12.759   9.317
 7519SOL    HW224390   9.453  12.632   9.307
 7520SOL     OW24391   3.582   8.279   0.931
 7520SOL    HW124392   3.553   8.250   1.017
 7520SOL    HW224393   3.501   8.305   0.886
 7521SOL     OW24394   9.460   0.241   6.471
 7521SOL    HW124395   9.385   0.228   6.529
 7521SOL    HW224396   9.423   0.239   6.383
 7522SOL     OW24397  11.712   3.497   3.415
 7522SOL    HW124398  11.656   3.569   3.385
 7522SOL    HW224399  11.801   3.527   3.397
 7523SOL     OW24400   5.306   1.277  11.799
 7523SOL    HW124401   5.366   1.271  11.873
 7523SOL    HW224402   5.231   1.326  11.833
 7524SOL     OW24403  14.494  13.055   6.492
 7524SOL    HW124404  14.402  13.077   6.481
 7524SOL    HW224405  14.537  13.090   6.414
 7525SOL     OW24406   7.381   0.431  11.418
 7525SOL    HW124407   7.427   0.486  11.355
 7525SOL    HW224408   7.446   0.412  11.486
 7526SOL     OW24409   9.145   4.560  11.248
 7526SOL    HW124410   9.146   4.643  11.200
 7526SOL    HW224411   9.199   4.502  11.195
 7527SOL     OW24412   4.971   0.549  12.428
 7527SOL    HW124413   5.048   0.606  12.424
 7527SOL    HW224414   4.974   0.510  12.515
 7528SOL     OW24415   4.217   0.385   4.540
 7528SOL    HW124416   4.124   0.383   4.520
 7528SOL    HW224417   4.238   0.296   4.567
 7529SOL     OW24418  14.578   9.669   4.105
 7529SOL    HW124419  14.550   9.654   4.015
 7529SOL    HW224420  14.564   9.584   4.149
 7530SOL     OW24421   7.006  14.760  13.522
 7530SOL    HW124422   7.045  14.846  13.538
 7530SOL    HW224423   6.923  14.779  13.478
 7531SOL     OW24424   9.572   7.092  11.228
 7531SOL    HW124425   9.486   7.130  11.209
 7531SOL    HW224426   9.628   7.121  11.156
 7532SOL     OW24427   3.299  11.487  11.082
 7532SOL    HW124428   3.326  11.459  10.994
 7532SOL    HW224429   3.238  11.419  11.111
 7533SOL     OW24430  11.928  11.141   2.305
 7533SOL    HW124431  11.921  11.190   2.223
 7533SOL    HW224432  11.932  11.049   2.278
 7534SOL     OW24433  12.641   7.662   6.447
 7534SOL    HW124434  12.692   7.741   6.426
 7534SOL    HW224435  12.574   7.692   6.509
 7535SOL     OW24436   0.633  12.919   4.310
 7535SOL    HW124437   0.573  12.866   4.258
 7535SOL    HW224438   0.652  12.866   4.387
 7536SOL     OW24439   2.656   9.020   3.918
 7536SOL    HW124440   2.605   9.041   3.840
 7536SOL    HW224441   2.724   8.959   3.887
 7537SOL     OW24442   9.152   3.043   9.585
 7537SOL    HW124443   9.059   3.061   9.596
 7537SOL    HW224444   9.160   2.948   9.596
 7538SOL     OW24445   0.992   7.431   9.987
 7538SOL    HW124446   1.003   7.521  10.018
 7538SOL    HW224447   1.017   7.434   9.895
 7539SOL     OW24448   2.094  14.461   5.521
 7539SOL    HW124449   2.098  14.426   5.609
 7539SOL    HW224450   2.075  14.385   5.466
 7540SOL     OW24451   6.199   2.682  14.194
 7540SOL    HW124452   6.129   2.729  14.149
 7540SOL    HW224453   6.272   2.683  14.132
 7541SOL     OW24454   4.287  12.553  13.246
 7541SOL    HW124455   4.320  12.489  13.309
 7541SOL    HW224456   4.338  12.632  13.263
 7542SOL     OW24457  11.662   3.202   4.741
 7542SOL    HW124458  11.743   3.234   4.702
 7542SOL    HW224459  11.603   3.278   4.741
 7543SOL     OW24460  13.955  10.522   5.670
 7543SOL    HW124461  14.047  10.500   5.655
 7543SOL    HW224462  13.946  10.524   5.765
 7544SOL     OW24463   9.981   7.208   0.437
 7544SOL    HW124464   9.906   7.268   0.430
 7544SOL    HW224465   9.979   7.157   0.356
 7545SOL     OW24466   1.549  11.530   9.533
 7545SOL    HW124467   1.486  11.559   9.599
 7545SOL    HW224468   1.496  11.508   9.456
 7546SOL     OW24469  10.280   6.236   0.221
 7546SOL    HW124470  10.321   6.282   0.293
 7546SOL    HW224471  10.344   6.171   0.194
 7547SOL     OW24472   0.314   4.871  11.622
 7547SOL    HW124473   0.384   4.812  11.595
 7547SOL    HW224474   0.306   4.858  11.716
 7548SOL     OW24475   0.444  14.389   3.224
 7548SOL    HW124476   0.410  14.442   3.152
 7548SOL    HW224477   0.370  14.335   3.250
 7549SOL     OW24478   2.726   9.730   8.629
 7549SOL    HW124479   2.765   9.673   8.564
 7549SOL    HW224480   2.783   9.723   8.705
 7550SOL     OW24481   7.172   6.855   6.552
 7550SOL    HW124482   7.117   6.830   6.627
 7550SOL    HW224483   7.114   6.907   6.496
 7551SOL     OW24484  14.676   2.835  10.944
 7551SOL    HW124485  14.667   2.744  10.916
 7551SOL    HW224486  14.595   2.854  10.990
 7552SOL     OW24487  12.858  13.988   6.965
 7552SOL    HW124488  12.894  13.903   6.939
 7552SOL    HW224489  12.771  13.968   7.000
 7553SOL     OW24490   6.094   9.815   6.777
 7553SOL    HW124491   6.111   9.721   6.767
 7553SOL    HW224492   6.008   9.828   6.737
 7554SOL     OW24493   1.140   5.949   4.930
 7554SOL    HW124494   1.220   5.975   4.976
 7554SOL    HW224495   1.117   6.026   4.877
 7555SOL     OW24496  12.939  14.234   4.622
 7555SOL    HW124497  13.028  14.238   4.586
 7555SOL    HW224498  12.910  14.145   4.605
 7556SOL     OW24499   0.312  14.260   1.141
 7556SOL    HW124500   0.310  14.242   1.047
 7556SOL    HW224501   0.247  14.200   1.178
 7557SOL     OW24502   8.179  13.982  13.872
 7557SOL    HW124503   8.252  14.014  13.818
 7557SOL    HW224504   8.114  13.952  13.809
 7558SOL     OW24505   1.250   4.088  11.901
 7558SOL    HW124506   1.288   4.037  11.829
 7558SOL    HW224507   1.325   4.125  11.946
 7559SOL     OW24508   0.910  10.217   2.089
 7559SOL    HW124509   0.985  10.210   2.148
 7559SOL    HW224510   0.899  10.311   2.075
 7560SOL     OW24511   8.006   3.164   4.109
 7560SOL    HW124512   8.046   3.101   4.049
 7560SOL    HW224513   7.999   3.245   4.058
 7561SOL     OW24514  11.166   4.684   3.394
 7561SOL    HW124515  11.105   4.759   3.395
 7561SOL    HW224516  11.234   4.710   3.332
 7562SOL     OW24517   1.021   4.458   5.653
 7562SOL    HW124518   1.078   4.529   5.623
 7562SOL    HW224519   0.933   4.496   5.651
 7563SOL     OW24520   7.447   9.133   0.817
 7563SOL    HW124521   7.511   9.096   0.756
 7563SOL    HW224522   7.443   9.226   0.794
 7564SOL     OW24523   0.042  14.139   6.239
 7564SOL    HW124524   0.117  14.198   6.242
 7564SOL    HW224525   0.039  14.109   6.148
 7565SOL     OW24526   9.890  11.537   1.731
 7565SOL    HW124527   9.811  11.486   1.711
 7565SOL    HW224528   9.961  11.473   1.726
 7566SOL     OW24529   3.382  11.260  10.221
 7566SOL    HW124530   3.394  11.327  10.155
 7566SOL    HW224531   3.451  11.196  10.204
 7567SOL     OW24532  10.434   1.633  14.700
 7567SOL    HW124533  10.417   1.640  14.606
 7567SOL    HW224534  10.476   1.716  14.723
 7568SOL     OW24535   1.909   5.436  12.369
 7568SOL    HW124536   1.843   5.378  12.330
 7568SOL    HW224537   1.858   5.499  12.420
 7569SOL     OW24538  11.658  13.061   3.801
 7569SOL    HW124539  11.592  13.099   3.859
 7569SOL    HW224540  11.628  13.083   3.713
 7570SOL     OW24541  12.473   1.116   1.487
 7570SOL    HW124542  12.506   1.114   1.577
 7570SOL    HW224543  12.392   1.066   1.490
 7571SOL     OW24544   8.091   4.095   3.741
 7571SOL    HW124545   8.065   4.151   3.814
 7571SOL    HW224546   8.088   4.153   3.664
 7572SOL     OW24547  13.025   2.630   0.445
 7572SOL    HW124548  13.083   2.707   0.439
 7572SOL    HW224549  13.036   2.598   0.534
 7573SOL     OW24550  10.659  14.141   7.197
 7573SOL    HW124551  10.637  14.151   7.289
 7573SOL    HW224552  10.709  14.219   7.175
 7574SOL     OW24553   0.146  10.175   3.496
 7574SOL    HW124554   0.113  10.093   3.459
 7574SOL    HW224555   0.133  10.165   3.590
 7575SOL     OW24556   0.060  13.751  10.740
 7575SOL    HW124557   0.109  13.823  10.700
 7575SOL    HW224558  14.851  13.789  10.762
 7576SOL     OW24559   5.825   0.923   0.761
 7576SOL    HW124560   5.802   1.007   0.802
 7576SOL    HW224561   5.834   0.863   0.835
 7577SOL     OW24562   5.581  12.283   8.499
 7577SOL    HW124563   5.565  12.279   8.594
 7577SOL    HW224564   5.495  12.296   8.461
 7578SOL     OW24565   8.725  13.397  14.867
 7578SOL    HW124566   8.638  13.395  14.827
 7578SOL    HW224567   8.784  13.366  14.798
 7579SOL     OW24568   8.194   6.939  11.185
 7579SOL    HW124569   8.239   6.933  11.270
 7579SOL    HW224570   8.177   6.847  11.161
 7580SOL     OW24571   6.017   1.251  13.687
 7580SOL    HW124572   5.990   1.301  13.610
 7580SOL    HW224573   6.090   1.197  13.657
 7581SOL     OW24574  14.715  11.904   1.718
 7581SOL    HW124575  14.679  11.881   1.804
 7581SOL    HW224576  14.780  11.836   1.700
 7582SOL     OW24577   8.978   4.682  13.834
 7582SOL    HW124578   8.984   4.778  13.838
 7582SOL    HW224579   8.918   4.665  13.762
 7583SOL     OW24580  14.584  11.731   7.446
 7583SOL    HW124581  14.631  11.782   7.512
 7583SOL    HW224582  14.602  11.775   7.363
 7584SOL     OW24583  13.024   3.708   1.071
 7584SOL    HW124584  13.086   3.773   1.035
 7584SOL    HW224585  13.031   3.718   1.166
 7585SOL     OW24586  11.235   0.660   9.183
 7585SOL    HW124587  11.211   0.748   9.154
 7585SOL    HW224588  11.183   0.602   9.128
 7586SOL     OW24589  14.598   0.842   6.334
 7586SOL    HW124590  14.574   0.860   6.243
 7586SOL    HW224591  14.616   0.929   6.372
 7587SOL     OW24592  12.791   1.098  11.142
 7587SOL    HW124593  12.803   1.184  11.102
 7587SOL    HW224594  12.840   1.038  11.086
 7588SOL     OW24595  14.113  12.805   9.845
 7588SOL    HW124596  14.083  12.762   9.765
 7588SOL    HW224597  14.035  12.808   9.901
 7589SOL     OW24598  14.627   3.435   4.317
 7589SOL    HW124599  14.624   3.385   4.398
 7589SOL    HW224600  14.611   3.526   4.343
 7590SOL     OW24601  14.761   4.203   7.703
 7590SOL    HW124602  14.782   4.123   7.655
 7590SOL    HW224603  14.793   4.187   7.792
 7591SOL     OW24604   5.263   3.236   6.546
 7591SOL    HW124605   5.345   3.244   6.497
 7591SOL    HW224606   5.209   3.176   6.494
 7592SOL     OW24607  14.691   9.593  12.938
 7592SOL    HW124608  14.638   9.669  12.917
 7592SOL    HW224609  14.672   9.530  12.868
 7593SOL     OW24610   8.656  14.663   4.421
 7593SOL    HW124611   8.708  14.588   4.450
 7593SOL    HW224612   8.721  14.729   4.396
 7594SOL     OW24613   2.165   0.392   9.860
 7594SOL    HW124614   2.164   0.428   9.948
 7594SOL    HW224615   2.192   0.464   9.804
 7595SOL     OW24616   1.033   1.235  10.790
 7595SOL    HW124617   0.939   1.242  10.804
 7595SOL    HW224618   1.050   1.141  10.788
 7596SOL     OW24619  10.157   3.078   8.530
 7596SOL    HW124620  10.103   3.128   8.591
 7596SOL    HW224621  10.164   3.134   8.452
 7597SOL     OW24622  14.346   9.072  14.217
 7597SOL    HW124623  14.285   9.109  14.153
 7597SOL    HW224624  14.414   9.030  14.164
 7598SOL     OW24625   9.109  14.136   8.312
 7598SOL    HW124626   9.034  14.189   8.285
 7598SOL    HW224627   9.070  14.061   8.357
 7599SOL     OW24628   7.267   0.128  10.991
 7599SOL    HW124629   7.235   0.042  11.018
 7599SOL    HW224630   7.350   0.139  11.038
 7600SOL     OW24631   4.926   4.448   1.146
 7600SOL    HW124632   4.994   4.494   1.194
 7600SOL    HW224633   4.972   4.401   1.077
 7601SOL     OW24634   5.744  12.419   6.425
 7601SOL    HW124635   5.796  12.449   6.500
 7601SOL    HW224636   5.708  12.500   6.389
 7602SOL     OW24637  12.115  13.769   2.002
 7602SOL    HW124638  12.170  13.731   2.071
 7602SOL    HW224639  12.090  13.693   1.948
 7603SOL     OW24640   7.261  13.809   4.420
 7603SOL    HW124641   7.232  13.859   4.343
 7603SOL    HW224642   7.336  13.759   4.388
 7604SOL     OW24643   3.794   4.823   8.396
 7604SOL    HW124644   3.794   4.919   8.397
 7604SOL    HW224645   3.753   4.800   8.312
 7605SOL     OW24646   4.407   8.589   7.552
 7605SOL    HW124647   4.476   8.523   7.561
 7605SOL    HW224648   4.451   8.665   7.515
 7606SOL     OW24649  10.574   0.468  13.225
 7606SOL    HW124650  10.601   0.560  13.221
 7606SOL    HW224651  10.479   0.471  13.229
 7607SOL     OW24652   2.777  11.487  11.540
 7607SOL    HW124653   2.694  11.467  11.499
 7607SOL    HW224654   2.756  11.500  11.633
 7608SOL     OW24655   8.919   2.648  11.089
 7608SOL    HW124656   8.975   2.723  11.067
 7608SOL    HW224657   8.889   2.667  11.178
 7609SOL     OW24658   5.770   6.617   1.197
 7609SOL    HW124659   5.739   6.526   1.198
 7609SOL    HW224660   5.811   6.627   1.111
 7610SOL     OW24661   2.687   5.989   6.286
 7610SOL    HW124662   2.763   6.041   6.260
 7610SOL    HW224663   2.714   5.899   6.272
 7611SOL     OW24664   4.187   3.760  12.309
 7611SOL    HW124665   4.237   3.809  12.243
 7611SOL    HW224666   4.133   3.827  12.352
 7612SOL     OW24667   6.951  10.009   3.201
 7612SOL    HW124668   6.963  10.057   3.283
 7612SOL    HW224669   7.027   9.951   3.196
 7613SOL     OW24670   9.525   2.309  11.350
 7613SOL    HW124671   9.510   2.261  11.431
 7613SOL    HW224672   9.445   2.298  11.299
 7614SOL     OW24673   8.724  10.227   7.013
 7614SOL    HW124674   8.691  10.316   7.008
 7614SOL    HW224675   8.781  10.227   7.091
 7615SOL     OW24676   3.589   3.614   7.589
 7615SOL    HW124677   3.606   3.532   7.542
 7615SOL    HW224678   3.612   3.683   7.526
 7616SOL     OW24679   6.132  10.711   4.829
 7616SOL    HW124680   6.088  10.658   4.896
 7616SOL    HW224681   6.183  10.647   4.778
 7617SOL     OW24682   5.736   9.057   7.665
 7617SOL    HW124683   5.814   9.083   7.714
 7617SOL    HW224684   5.765   9.051   7.574
 7618SOL     OW24685   0.757   4.451   9.955
 7618SOL    HW124686   0.713   4.466   9.871
 7618SOL    HW224687   0.850   4.446   9.933
 7619SOL     OW24688  12.349   0.486   3.168
 7619SOL    HW124689  12.402   0.560   3.137
 7619SOL    HW224690  12.300   0.521   3.243
 7620SOL     OW24691   8.219   2.853  13.478
 7620SOL    HW124692   8.228   2.791  13.406
 7620SOL    HW224693   8.284   2.825  13.543
 7621SOL     OW24694   3.531   1.354   0.897
 7621SOL    HW124695   3.578   1.435   0.919
 7621SOL    HW224696   3.439   1.376   0.907
 7622SOL     OW24697  10.016   0.183   0.345
 7622SOL    HW124698  10.034   0.271   0.379
 7622SOL    HW224699  10.065   0.179   0.263
 7623SOL     OW24700   5.449   5.109  13.816
 7623SOL    HW124701   5.540   5.131  13.797
 7623SOL    HW224702   5.450   5.080  13.907
 7624SOL     OW24703  11.709   2.992  14.322
 7624SOL    HW124704  11.760   2.954  14.251
 7624SOL    HW224705  11.740   2.947  14.401
 7625SOL     OW24706   3.608   0.591  12.624
 7625SOL    HW124707   3.594   0.621  12.714
 7625SOL    HW224708   3.673   0.651  12.588
 7626SOL     OW24709  13.094  10.105   3.831
 7626SOL    HW124710  13.127  10.104   3.921
 7626SOL    HW224711  13.172  10.109   3.776
 7627SOL     OW24712  10.480   5.395  10.066
 7627SOL    HW124713  10.480   5.462  10.135
 7627SOL    HW224714  10.573   5.384  10.043
 7628SOL     OW24715   3.121  11.702   4.283
 7628SOL    HW124716   3.182  11.680   4.353
 7628SOL    HW224717   3.035  11.702   4.325
 7629SOL     OW24718   3.408   6.501   3.129
 7629SOL    HW124719   3.331   6.481   3.182
 7629SOL    HW224720   3.468   6.545   3.190
 7630SOL     OW24721   3.555   5.770  14.157
 7630SOL    HW124722   3.548   5.676  14.141
 7630SOL    HW224723   3.499   5.810  14.090
 7631SOL     OW24724  13.621  10.780  14.279
 7631SOL    HW124725  13.544  10.820  14.318
 7631SOL    HW224726  13.610  10.686  14.295
 7632SOL     OW24727  11.205   5.445   8.350
 7632SOL    HW124728  11.284   5.495   8.372
 7632SOL    HW224729  11.135   5.488   8.399
 7633SOL     OW24730   3.591   7.782   8.162
 7633SOL    HW124731   3.600   7.815   8.072
 7633SOL    HW224732   3.602   7.859   8.217
 7634SOL     OW24733   0.838   0.335  13.825
 7634SOL    HW124734   0.918   0.342  13.877
 7634SOL    HW224735   0.852   0.259  13.769
 7635SOL     OW24736   1.160   1.624   1.126
 7635SOL    HW124737   1.141   1.531   1.113
 7635SOL    HW224738   1.247   1.625   1.167
 7636SOL     OW24739   3.287   7.426   4.194
 7636SOL    HW124740   3.211   7.392   4.241
 7636SOL    HW224741   3.352   7.355   4.199
 7637SOL     OW24742  14.402   6.352   1.184
 7637SOL    HW124743  14.364   6.430   1.225
 7637SOL    HW224744  14.348   6.280   1.215
 7638SOL     OW24745   7.158   6.138  12.703
 7638SOL    HW124746   7.191   6.226  12.722
 7638SOL    HW224747   7.222   6.102  12.641
 7639SOL     OW24748   3.044   9.793  13.810
 7639SOL    HW124749   3.067   9.874  13.764
 7639SOL    HW224750   2.980   9.820  13.876
 7640SOL     OW24751   1.106  10.100  13.859
 7640SOL    HW124752   1.042  10.071  13.924
 7640SOL    HW224753   1.122  10.192  13.881
 7641SOL     OW24754  10.623   8.772   0.870
 7641SOL    HW124755  10.643   8.771   0.776
 7641SOL    HW224756  10.706   8.750   0.912
 7642SOL     OW24757  12.122  13.805   3.399
 7642SOL    HW124758  12.104  13.796   3.493
 7642SOL    HW224759  12.051  13.757   3.357
 7643SOL     OW24760   2.920   0.951   2.606
 7643SOL    HW124761   3.007   0.941   2.645
 7643SOL    HW224762   2.925   0.900   2.525
 7644SOL     OW24763  14.601   2.415  12.131
 7644SOL    HW124764  14.595   2.510  12.128
 7644SOL    HW224765  14.597   2.388  12.039
 7645SOL     OW24766  13.598  13.078   6.333
 7645SOL    HW124767  13.681  13.123   6.349
 7645SOL    HW224768  13.533  13.130   6.381
 7646SOL     OW24769   9.931   0.606   8.830
 7646SOL    HW124770   9.976   0.529   8.864
 7646SOL    HW224771   9.999   0.655   8.784
 7647SOL     OW24772   1.207  12.148   4.473
 7647SOL    HW124773   1.296  12.180   4.488
 7647SOL    HW224774   1.163  12.221   4.429
 7648SOL     OW24775   0.054  14.869   6.566
 7648SOL    HW124776   0.113  14.799   6.537
 7648SOL    HW224777   0.085   0.015   6.654
 7649SOL     OW24778   1.983   0.054  14.809
 7649SOL    HW124779   2.045  14.860  14.791
 7649SOL    HW224780   2.035   0.134  14.808
 7650SOL     OW24781   7.292   5.770  13.008
 7650SOL    HW124782   7.275   5.861  12.983
 7650SOL    HW224783   7.207   5.738  13.040
 7651SOL     OW24784  13.132   8.482  12.676
 7651SOL    HW124785  13.093   8.570  12.672
 7651SOL    HW224786  13.137   8.454  12.585
 7652SOL     OW24787  13.620   9.032  11.424
 7652SOL    HW124788  13.599   8.939  11.414
 7652SOL    HW224789  13.662   9.038  11.510
 7653SOL     OW24790   5.551   0.792   0.436
 7653SOL    HW124791   5.636   0.758   0.463
 7653SOL    HW224792   5.540   0.873   0.486
 7654SOL     OW24793  13.066  14.572   8.841
 7654SOL    HW124794  13.072  14.658   8.800
 7654SOL    HW224795  13.127  14.576   8.915
 7655SOL     OW24796   3.912   6.982   7.460
 7655SOL    HW124797   3.979   7.023   7.515
 7655SOL    HW224798   3.829   7.011   7.499
 7656SOL     OW24799   3.025   1.089  12.428
 7656SOL    HW124800   3.074   1.162  12.391
 7656SOL    HW224801   3.088   1.043  12.483
 7657SOL     OW24802   4.035  13.396  10.753
 7657SOL    HW124803   4.057  13.490  10.753
 7657SOL    HW224804   3.976  13.386  10.828
 7658SOL     OW24805   7.770  11.643   8.090
 7658SOL    HW124806   7.850  11.634   8.141
 7658SOL    HW224807   7.712  11.697   8.145
 7659SOL     OW24808   9.156   4.022   5.982
 7659SOL    HW124809   9.166   3.978   5.898
 7659SOL    HW224810   9.235   3.999   6.031
 7660SOL     OW24811  14.672   2.100   1.828
 7660SOL    HW124812  14.663   2.031   1.894
 7660SOL    HW224813  14.591   2.095   1.777
 7661SOL     OW24814   9.422   5.464  11.890
 7661SOL    HW124815   9.460   5.540  11.934
 7661SOL    HW224816   9.405   5.401  11.960
 7662SOL     OW24817   7.814  12.047   1.992
 7662SOL    HW124818   7.831  11.969   1.940
 7662SOL    HW224819   7.758  12.016   2.064
 7663SOL     OW24820   0.389   9.977  12.605
 7663SOL    HW124821   0.348  10.053  12.564
 7663SOL    HW224822   0.369   9.904  12.546
 7664SOL     OW24823   7.681   5.615   1.444
 7664SOL    HW124824   7.661   5.626   1.351
 7664SOL    HW224825   7.623   5.544   1.472
 7665SOL     OW24826   4.244   5.895   7.263
 7665SOL    HW124827   4.295   5.819   7.293
 7665SOL    HW224828   4.154   5.873   7.284
 7666SOL     OW24829   5.124   5.060  14.868
 7666SOL    HW124830   5.197   5.111   0.027
 7666SOL    HW224831   5.111   4.991   0.057
 7667SOL     OW24832   0.513   6.342   3.305
 7667SOL    HW124833   0.455   6.387   3.367
 7667SOL    HW224834   0.456   6.277   3.263
 7668SOL     OW24835   0.553  13.023  11.542
 7668SOL    HW124836   0.578  12.967  11.615
 7668SOL    HW224837   0.472  12.984  11.509
 7669SOL     OW24838  13.740  11.038  11.395
 7669SOL    HW124839  13.704  11.080  11.317
 7669SOL    HW224840  13.784  11.109  11.442
 7670SOL     OW24841  14.275   8.014   4.189
 7670SOL    HW124842  14.321   8.087   4.146
 7670SOL    HW224843  14.336   7.940   4.182
 7671SOL     OW24844   1.638   5.938   3.755
 7671SOL    HW124845   1.623   5.923   3.848
 7671SOL    HW224846   1.704   6.007   3.752
 7672SOL     OW24847  10.789  13.282   9.294
 7672SOL    HW124848  10.749  13.212   9.243
 7672SOL    HW224849  10.881  13.281   9.268
 7673SOL     OW24850  11.310   7.578  12.483
 7673SOL    HW124851  11.290   7.486  12.498
 7673SOL    HW224852  11.259   7.624  12.550
 7674SOL     OW24853  12.671   6.300   1.283
 7674SOL    HW124854  12.582   6.334   1.291
 7674SOL    HW224855  12.716   6.333   1.361
 7675SOL     OW24856  11.849   5.312   4.145
 7675SOL    HW124857  11.835   5.383   4.208
 7675SOL    HW224858  11.933   5.332   4.105
 7676SOL     OW24859   2.727   5.367   1.179
 7676SOL    HW124860   2.764   5.450   1.209
 7676SOL    HW224861   2.781   5.343   1.103
 7677SOL     OW24862   1.626   7.498   9.910
 7677SOL    HW124863   1.692   7.550   9.955
 7677SOL    HW224864   1.544   7.516   9.957
 7678SOL     OW24865   5.909   2.168  10.105
 7678SOL    HW124866   5.958   2.209  10.034
 7678SOL    HW224867   5.960   2.091  10.129
 7679SOL     OW24868  11.117  14.504   6.920
 7679SOL    HW124869  11.027  14.523   6.948
 7679SOL    HW224870  11.161  14.478   7.001
 7680SOL     OW24871  13.663   7.496  11.949
 7680SOL    HW124872  13.582   7.541  11.974
 7680SOL    HW224873  13.634   7.426  11.889
 7681SOL     OW24874  11.100  11.943  12.731
 7681SOL    HW124875  11.065  11.965  12.645
 7681SOL    HW224876  11.193  11.962  12.724
 7682SOL     OW24877   5.238   5.844   8.964
 7682SOL    HW124878   5.330   5.821   8.954
 7682SOL    HW224879   5.238   5.938   8.980
 7683SOL     OW24880   1.191  13.996  13.015
 7683SOL    HW124881   1.265  13.972  13.071
 7683SOL    HW224882   1.199  13.939  12.939
 7684SOL     OW24883   3.629  14.393   9.358
 7684SOL    HW124884   3.572  14.397   9.434
 7684SOL    HW224885   3.625  14.480   9.319
 7685SOL     OW24886   7.995   0.099  11.467
 7685SOL    HW124887   8.087   0.084  11.486
 7685SOL    HW224888   7.954   0.013  11.473
 7686SOL     OW24889  10.236   3.427  10.356
 7686SOL    HW124890  10.230   3.507  10.409
 7686SOL    HW224891  10.330   3.410  10.349
 7687SOL     OW24892  14.316  11.468   7.116
 7687SOL    HW124893  14.378  11.413   7.164
 7687SOL    HW224894  14.353  11.556   7.121
 7688SOL     OW24895   2.172   3.184  12.254
 7688SOL    HW124896   2.087   3.171  12.296
 7688SOL    HW224897   2.168   3.132  12.174
 7689SOL     OW24898   9.633  13.626   7.592
 7689SOL    HW124899   9.583  13.550   7.563
 7689SOL    HW224900   9.644  13.613   7.686
 7690SOL     OW24901   7.344  11.235  12.563
 7690SOL    HW124902   7.294  11.155  12.579
 7690SOL    HW224903   7.289  11.287  12.505
 7691SOL     OW24904  13.038  10.124  11.106
 7691SOL    HW124905  13.038  10.028  11.105
 7691SOL    HW224906  13.074  10.148  11.191
 7692SOL     OW24907  10.718   3.411   6.387
 7692SOL    HW124908  10.751   3.487   6.435
 7692SOL    HW224909  10.773   3.407   6.309
 7693SOL     OW24910   7.803   5.420  10.315
 7693SOL    HW124911   7.865   5.433  10.243
 7693SOL    HW224912   7.752   5.344  10.289
 7694SOL     OW24913   2.571   5.956  14.075
 7694SOL    HW124914   2.569   6.051  14.066
 7694SOL    HW224915   2.506   5.925  14.012
 7695SOL     OW24916  10.642   8.281   9.299
 7695SOL    HW124917  10.630   8.334   9.219
 7695SOL    HW224918  10.672   8.344   9.364
 7696SOL     OW24919  12.431   1.893   8.358
 7696SOL    HW124920  12.351   1.862   8.401
 7696SOL    HW224921  12.470   1.953   8.421
 7697SOL     OW24922   7.812   3.065   8.877
 7697SOL    HW124923   7.838   2.996   8.938
 7697SOL    HW224924   7.790   3.019   8.796
 7698SOL     OW24925  12.676   8.803   9.530
 7698SOL    HW124926  12.724   8.885   9.515
 7698SOL    HW224927  12.584   8.827   9.523
 7699SOL     OW24928  12.620   9.426   6.253
 7699SOL    HW124929  12.527   9.427   6.273
 7699SOL    HW224930  12.638   9.512   6.215
 7700SOL     OW24931   6.443   6.354   0.693
 7700SOL    HW124932   6.440   6.442   0.656
 7700SOL    HW224933   6.529   6.320   0.668
 7701SOL     OW24934   1.986   3.578   8.766
 7701SOL    HW124935   2.049   3.515   8.732
 7701SOL    HW224936   2.000   3.657   8.712
 7702SOL     OW24937  13.988   3.752  11.000
 7702SOL    HW124938  13.975   3.732  10.908
 7702SOL    HW224939  14.035   3.836  11.000
 7703SOL     OW24940  10.767   3.001   0.667
 7703SOL    HW124941  10.764   3.045   0.582
 7703SOL    HW224942  10.675   2.994   0.693
 7704SOL     OW24943   2.019  10.914   2.174
 7704SOL    HW124944   2.101  10.913   2.124
 7704SOL    HW224945   2.039  10.868   2.255
 7705SOL     OW24946  12.359   1.081   4.882
 7705SOL    HW124947  12.359   1.086   4.786
 7705SOL    HW224948  12.338   1.169   4.911
 7706SOL     OW24949   4.019   7.699   3.160
 7706SOL    HW124950   4.006   7.619   3.211
 7706SOL    HW224951   3.932   7.720   3.126
 7707SOL     OW24952   5.582   7.365   3.375
 7707SOL    HW124953   5.598   7.362   3.280
 7707SOL    HW224954   5.495   7.326   3.385
 7708SOL     OW24955   0.468  10.044   5.434
 7708SOL    HW124956   0.425  10.089   5.361
 7708SOL    HW224957   0.396  10.006   5.484
 7709SOL     OW24958  10.058   1.207  13.332
 7709SOL    HW124959  10.082   1.293  13.298
 7709SOL    HW224960   9.962   1.203  13.324
 7710SOL     OW24961  11.271   0.376   1.491
 7710SOL    HW124962  11.320   0.294   1.486
 7710SOL    HW224963  11.253   0.399   1.400
 7711SOL     OW24964   0.943   5.585  13.399
 7711SOL    HW124965   0.934   5.658  13.339
 7711SOL    HW224966   0.972   5.512  13.344
 7712SOL     OW24967   7.795   8.478  13.653
 7712SOL    HW124968   7.702   8.502  13.652
 7712SOL    HW224969   7.796   8.389  13.618
 7713SOL     OW24970  13.460   0.483  14.285
 7713SOL    HW124971  13.544   0.441  14.267
 7713SOL    HW224972  13.469   0.571  14.247
 7714SOL     OW24973   5.831   8.686   7.265
 7714SOL    HW124974   5.771   8.674   7.339
 7714SOL    HW224975   5.918   8.685   7.305
 7715SOL     OW24976  10.628   8.635   1.381
 7715SOL    HW124977  10.709   8.676   1.349
 7715SOL    HW224978  10.582   8.705   1.427
 7716SOL     OW24979  11.820   5.020   7.617
 7716SOL    HW124980  11.750   5.060   7.668
 7716SOL    HW224981  11.808   4.926   7.629
 7717SOL     OW24982   7.404   5.540  14.622
 7717SOL    HW124983   7.451   5.572  14.698
 7717SOL    HW224984   7.363   5.617  14.584
 7718SOL     OW24985   1.961   7.632   9.782
 7718SOL    HW124986   1.873   7.632   9.821
 7718SOL    HW224987   2.016   7.676   9.847
 7719SOL     OW24988  11.744  12.488   4.626
 7719SOL    HW124989  11.666  12.447   4.586
 7719SOL    HW224990  11.727  12.486   4.720
 7720SOL     OW24991   8.182   6.289   4.799
 7720SOL    HW124992   8.176   6.366   4.855
 7720SOL    HW224993   8.245   6.232   4.844
 7721SOL     OW24994   0.395   2.803   7.509
 7721SOL    HW124995   0.414   2.728   7.453
 7721SOL    HW224996   0.300   2.811   7.507
 7722SOL     OW24997   4.042  11.627   7.163
 7722SOL    HW124998   3.970  11.683   7.191
 7722SOL    HW224999   4.069  11.664   7.079
 7723SOL     OW25000   9.028  11.690   7.844
 7723SOL    HW125001   9.041  11.662   7.935
 7723SOL    HW225002   8.961  11.758   7.849
 7724SOL     OW25003   2.030  14.015   5.601
 7724SOL    HW125004   2.032  14.079   5.672
 7724SOL    HW225005   1.938  13.987   5.597
 7725SOL     OW25006   9.401   0.429   2.691
 7725SOL    HW125007   9.357   0.473   2.764
 7725SOL    HW225008   9.337   0.430   2.620
 7726SOL     OW25009  12.089  11.033   1.914
 7726SOL    HW125010  12.121  11.046   1.825
 7726SOL    HW225011  12.036  11.111   1.932
 7727SOL     OW25012   8.971  13.296  11.941
 7727SOL    HW125013   8.886  13.338  11.932
 7727SOL    HW225014   9.008  13.333  12.021
 7728SOL     OW25015  10.429   9.487   8.183
 7728SOL    HW125016  10.398   9.466   8.271
 7728SOL    HW225017  10.523   9.502   8.193
 7729SOL     OW25018  10.960  13.233   2.288
 7729SOL    HW125019  10.953  13.305   2.351
 7729SOL    HW225020  10.938  13.155   2.339
 7730SOL     OW25021   0.040   0.198   8.654
 7730SOL    HW125022   0.042   0.183   8.559
 7730SOL    HW225023   0.126   0.237   8.673
 7731SOL     OW25024  11.085   5.612   0.211
 7731SOL    HW125025  11.125   5.671   0.148
 7731SOL    HW225026  11.014   5.569   0.162
 7732SOL     OW25027  11.760  13.336  13.202
 7732SOL    HW125028  11.825  13.366  13.267
 7732SOL    HW225029  11.752  13.410  13.142
 7733SOL     OW25030   0.217  14.249  12.049
 7733SOL    HW125031   0.252  14.261  12.137
 7733SOL    HW225032   0.293  14.224  11.996
 7734SOL     OW25033   0.287  14.828  11.189
 7734SOL    HW125034   0.369  14.798  11.150
 7734SOL    HW225035   0.295  14.806  11.282
 7735SOL     OW25036   1.900   4.639   2.127
 7735SOL    HW125037   1.829   4.693   2.162
 7735SOL    HW225038   1.856   4.559   2.097
 7736SOL     OW25039   0.013   7.316  10.762
 7736SOL    HW125040   0.010   7.330  10.857
 7736SOL    HW225041   0.106   7.325  10.739
 7737SOL     OW25042   1.441   3.661   9.078
 7737SOL    HW125043   1.435   3.636   8.986
 7737SOL    HW225044   1.417   3.753   9.081
 7738SOL     OW25045  14.107  14.203   6.104
 7738SOL    HW125046  14.012  14.199   6.109
 7738SOL    HW225047  14.129  14.290   6.138
 7739SOL     OW25048  13.685   3.412  12.184
 7739SOL    HW125049  13.706   3.321  12.207
 7739SOL    HW225050  13.717   3.423  12.095
 7740SOL     OW25051   5.133   4.179  14.346
 7740SOL    HW125052   5.109   4.132  14.425
 7740SOL    HW225053   5.069   4.150  14.280
 7741SOL     OW25054   7.558  13.635  11.992
 7741SOL    HW125055   7.491  13.632  11.925
 7741SOL    HW225056   7.520  13.690  12.061
 7742SOL     OW25057   0.616   9.122   6.167
 7742SOL    HW125058   0.559   9.139   6.092
 7742SOL    HW225059   0.693   9.178   6.151
 7743SOL     OW25060  10.014  12.232   6.074
 7743SOL    HW125061  10.058  12.236   6.159
 7743SOL    HW225062  10.070  12.176   6.020
 7744SOL     OW25063   9.207  12.516  12.751
 7744SOL    HW125064   9.123  12.488  12.715
 7744SOL    HW225065   9.212  12.471  12.836
 7745SOL     OW25066  10.952   6.956  12.770
 7745SOL    HW125067  10.960   6.915  12.856
 7745SOL    HW225068  11.000   6.898  12.711
 7746SOL     OW25069   5.511  11.002   6.629
 7746SOL    HW125070   5.597  10.972   6.657
 7746SOL    HW225071   5.526  11.037   6.541
 7747SOL     OW25072  11.761   1.116  10.243
 7747SOL    HW125073  11.695   1.143  10.180
 7747SOL    HW225074  11.780   1.195  10.294
 7748SOL     OW25075   1.996   0.694   9.979
 7748SOL    HW125076   1.918   0.647   9.950
 7748SOL    HW225077   2.057   0.689   9.905
 7749SOL     OW25078  12.509   3.989   4.210
 7749SOL    HW125079  12.576   4.034   4.260
 7749SOL    HW225080  12.471   4.056   4.154
 7750SOL     OW25081   7.090  11.911  12.924
 7750SOL    HW125082   7.075  11.987  12.867
 7750SOL    HW225083   7.047  11.838  12.879
 7751SOL     OW25084  13.719   1.999   7.517
 7751SOL    HW125085  13.664   2.006   7.595
 7751SOL    HW225086  13.769   2.081   7.517
 7752SOL     OW25087  11.012  10.707   3.492
 7752SOL    HW125088  11.069  10.630   3.489
 7752SOL    HW225089  11.052  10.764   3.558
 7753SOL     OW25090   7.086   5.988   8.908
 7753SOL    HW125091   7.076   5.894   8.923
 7753SOL    HW225092   7.041   6.030   8.981
 7754SOL     OW25093   3.318   7.080   2.309
 7754SOL    HW125094   3.324   7.175   2.316
 7754SOL    HW225095   3.252   7.055   2.373
 7755SOL     OW25096  12.614   9.146   6.315
 7755SOL    HW125097  12.622   9.239   6.292
 7755SOL    HW225098  12.662   9.138   6.398
 7756SOL     OW25099  11.462   0.247   6.438
 7756SOL    HW125100  11.456   0.340   6.459
 7756SOL    HW225101  11.555   0.231   6.425
 7757SOL     OW25102  10.974  13.230   8.054
 7757SOL    HW125103  10.950  13.171   8.125
 7757SOL    HW225104  10.983  13.316   8.096
 7758SOL     OW25105  14.319   7.303  14.818
 7758SOL    HW125106  14.298   7.342  14.733
 7758SOL    HW225107  14.414   7.297  14.819
 7759SOL     OW25108   8.720   0.093   4.961
 7759SOL    HW125109   8.655   0.127   5.022
 7759SOL    HW225110   8.748   0.010   5.000
 7760SOL     OW25111   5.772   9.291   3.164
 7760SOL    HW125112   5.680   9.263   3.168
 7760SOL    HW225113   5.822   9.216   3.196
 7761SOL     OW25114   0.300  12.669   1.325
 7761SOL    HW125115   0.366  12.673   1.255
 7761SOL    HW225116   0.241  12.599   1.296
 7762SOL     OW25117  14.839   4.196   4.782
 7762SOL    HW125118  14.776   4.260   4.816
 7762SOL    HW225119  14.847   4.131   4.852
 7763SOL     OW25120  13.780   1.894  13.045
 7763SOL    HW125121  13.727   1.818  13.070
 7763SOL    HW225122  13.869   1.871  13.072
 7764SOL     OW25123   6.265   5.603  14.518
 7764SOL    HW125124   6.265   5.603  14.422
 7764SOL    HW225125   6.332   5.539  14.542
 7765SOL     OW25126   2.406  11.629   9.130
 7765SOL    HW125127   2.352  11.626   9.050
 7765SOL    HW225128   2.491  11.661   9.100
 7766SOL     OW25129  14.812   8.562   5.304
 7766SOL    HW125130  14.817   8.651   5.341
 7766SOL    HW225131   0.015   8.554   5.250
 7767SOL     OW25132   2.853  10.325  10.243
 7767SOL    HW125133   2.831  10.338  10.151
 7767SOL    HW225134   2.881  10.234  10.249
 7768SOL     OW25135  12.404   8.783  10.229
 7768SOL    HW125136  12.382   8.838  10.154
 7768SOL    HW225137  12.329   8.791  10.288
 7769SOL     OW25138   7.141   1.989   6.613
 7769SOL    HW125139   7.190   2.003   6.694
 7769SOL    HW225140   7.145   1.894   6.599
 7770SOL     OW25141   8.273   7.245  14.819
 7770SOL    HW125142   8.247   7.322  14.870
 7770SOL    HW225143   8.363   7.227  14.847
 7771SOL     OW25144   8.072  12.336  12.314
 7771SOL    HW125145   8.096  12.243  12.308
 7771SOL    HW225146   7.993  12.344  12.260
 7772SOL     OW25147  13.989   4.866   5.470
 7772SOL    HW125148  14.033   4.785   5.443
 7772SOL    HW225149  14.057   4.917   5.514
 7773SOL     OW25150   1.819   1.725   2.900
 7773SOL    HW125151   1.911   1.698   2.908
 7773SOL    HW225152   1.780   1.658   2.844
 7774SOL     OW25153   7.844   3.970  10.352
 7774SOL    HW125154   7.893   4.023  10.415
 7774SOL    HW225155   7.756   4.008  10.353
 7775SOL     OW25156  13.963   5.035   9.292
 7775SOL    HW125157  13.956   5.115   9.344
 7775SOL    HW225158  14.051   5.038   9.255
 7776SOL     OW25159   2.481  13.264  14.709
 7776SOL    HW125160   2.405  13.282  14.764
 7776SOL    HW225161   2.539  13.339  14.723
 7777SOL     OW25162   0.357  13.070   2.845
 7777SOL    HW125163   0.413  13.005   2.885
 7777SOL    HW225164   0.330  13.032   2.761
 7778SOL     OW25165   5.759   2.869   9.704
 7778SOL    HW125166   5.765   2.796   9.766
 7778SOL    HW225167   5.685   2.846   9.647
 7779SOL     OW25168   4.955   9.134   5.254
 7779SOL    HW125169   5.022   9.077   5.292
 7779SOL    HW225170   4.955   9.112   5.161
 7780SOL     OW25171   4.274   0.799   7.044
 7780SOL    HW125172   4.255   0.816   6.952
 7780SOL    HW225173   4.333   0.870   7.070
 7781SOL     OW25174  10.905   7.704  13.529
 7781SOL    HW125175  10.813   7.698  13.554
 7781SOL    HW225176  10.939   7.615  13.541
 7782SOL     OW25177   2.692   4.239   9.193
 7782SOL    HW125178   2.693   4.161   9.138
 7782SOL    HW225179   2.781   4.246   9.227
 7783SOL     OW25180   9.019  10.115   3.863
 7783SOL    HW125181   8.937  10.163   3.852
 7783SOL    HW225182   9.036  10.076   3.777
 7784SOL     OW25183   3.950   9.963   2.369
 7784SOL    HW125184   4.028   9.921   2.333
 7784SOL    HW225185   3.973   9.981   2.460
 7785SOL     OW25186   0.219  13.562   6.047
 7785SOL    HW125187   0.234  13.651   6.079
 7785SOL    HW225188   0.298  13.514   6.073
 7786SOL     OW25189  14.298  10.745  14.587
 7786SOL    HW125190  14.233  10.808  14.618
 7786SOL    HW225191  14.378  10.797  14.576
 7787SOL     OW25192  13.927   5.175   9.867
 7787SOL    HW125193  13.948   5.259   9.827
 7787SOL    HW225194  13.969   5.110   9.812
 7788SOL     OW25195   8.442   6.147   4.088
 7788SOL    HW125196   8.362   6.184   4.051
 7788SOL    HW225197   8.412   6.094   4.162
 7789SOL     OW25198  13.917  10.527  11.468
 7789SOL    HW125199  13.947  10.549  11.556
 7789SOL    HW225200  13.909  10.612  11.424
 7790SOL     OW25201  13.228   8.440  12.934
 7790SOL    HW125202  13.245   8.438  12.840
 7790SOL    HW225203  13.137   8.471  12.941
 7791SOL     OW25204   4.931   4.515   3.319
 7791SOL    HW125205   4.994   4.473   3.261
 7791SOL    HW225206   4.902   4.445   3.378
 7792SOL     OW25207   6.906  10.790   3.595
 7792SOL    HW125208   6.823  10.814   3.553
 7792SOL    HW225209   6.935  10.713   3.546
 7793SOL     OW25210   5.460   2.614   6.777
 7793SOL    HW125211   5.461   2.710   6.780
 7793SOL    HW225212   5.475   2.588   6.868
 7794SOL     OW25213  10.665  10.418  11.243
 7794SOL    HW125214  10.611  10.461  11.176
 7794SOL    HW225215  10.615  10.341  11.269
 7795SOL     OW25216  12.779   0.473  11.093
 7795SOL    HW125217  12.746   0.531  11.161
 7795SOL    HW225218  12.856   0.517  11.058
 7796SOL     OW25219   3.047   1.777   1.853
 7796SOL    HW125220   3.125   1.833   1.851
 7796SOL    HW225221   2.996   1.804   1.776
 7797SOL     OW25222  13.348  12.413  12.928
 7797SOL    HW125223  13.323  12.340  12.871
 7797SOL    HW225224  13.265  12.458  12.947
 7798SOL     OW25225   6.565  11.877  13.687
 7798SOL    HW125226   6.639  11.902  13.631
 7798SOL    HW225227   6.495  11.854  13.626
 7799SOL     OW25228   7.190  10.940   9.588
 7799SOL    HW125229   7.220  10.864   9.639
 7799SOL    HW225230   7.236  10.932   9.505
 7800SOL     OW25231  12.541  13.038   2.034
 7800SOL    HW125232  12.515  13.117   1.987
 7800SOL    HW225233  12.634  13.028   2.015
 7801SOL     OW25234   7.166  13.013   6.247
 7801SOL    HW125235   7.256  13.025   6.275
 7801SOL    HW225236   7.119  13.088   6.284
 7802SOL     OW25237   5.179   0.878   4.550
 7802SOL    HW125238   5.173   0.919   4.463
 7802SOL    HW225239   5.180   0.784   4.532
 7803SOL     OW25240   4.354  11.881   9.717
 7803SOL    HW125241   4.348  11.976   9.703
 7803SOL    HW225242   4.440  11.869   9.758
 7804SOL     OW25243   3.238  13.441   7.537
 7804SOL    HW125244   3.264  13.530   7.560
 7804SOL    HW225245   3.219  13.399   7.620
 7805SOL     OW25246   8.196  11.588   9.404
 7805SOL    HW125247   8.266  11.590   9.469
 7805SOL    HW225248   8.146  11.508   9.424
 7806SOL     OW25249  14.173   3.392   4.205
 7806SOL    HW125250  14.092   3.413   4.159
 7806SOL    HW225251  14.145   3.352   4.288
 7807SOL     OW25252   6.297   7.270   2.239
 7807SOL    HW125253   6.216   7.239   2.278
 7807SOL    HW225254   6.322   7.346   2.293
 7808SOL     OW25255   5.366   1.694   2.425
 7808SOL    HW125256   5.459   1.687   2.447
 7808SOL    HW225257   5.321   1.659   2.502
 7809SOL     OW25258  12.875   6.270  11.653
 7809SOL    HW125259  12.943   6.219  11.608
 7809SOL    HW225260  12.847   6.334  11.588
 7810SOL     OW25261  12.115  12.412   7.740
 7810SOL    HW125262  12.132  12.435   7.649
 7810SOL    HW225263  12.085  12.494   7.780
 7811SOL     OW25264   7.825   3.152   5.742
 7811SOL    HW125265   7.860   3.075   5.788
 7811SOL    HW225266   7.735   3.128   5.721
 7812SOL     OW25267   7.175   1.799   3.654
 7812SOL    HW125268   7.087   1.793   3.691
 7812SOL    HW225269   7.230   1.824   3.729
 7813SOL     OW25270  10.918  10.895   3.015
 7813SOL    HW125271  10.948  10.904   2.925
 7813SOL    HW225272  10.996  10.866   3.063
 7814SOL     OW25273   8.787   9.964   2.391
 7814SOL    HW125274   8.746   9.912   2.322
 7814SOL    HW225275   8.770  10.055   2.367
 7815SOL     OW25276  12.980   5.048   4.148
 7815SOL    HW125277  13.070   5.082   4.151
 7815SOL    HW225278  12.927   5.117   4.188
 7816SOL     OW25279  10.882   8.917   3.546
 7816SOL    HW125280  10.826   8.891   3.473
 7816SOL    HW225281  10.966   8.876   3.527
 7817SOL     OW25282  11.037  10.456   6.626
 7817SOL    HW125283  11.118  10.417   6.659
 7817SOL    HW225284  11.009  10.397   6.556
 7818SOL     OW25285   0.365   3.787  11.212
 7818SOL    HW125286   0.287   3.836  11.240
 7818SOL    HW225287   0.355   3.778  11.117
 7819SOL     OW25288  13.322   2.740   0.219
 7819SOL    HW125289  13.327   2.690   0.301
 7819SOL    HW225290  13.394   2.803   0.225
 7820SOL     OW25291   1.370   4.588   7.500
 7820SOL    HW125292   1.320   4.628   7.571
 7820SOL    HW225293   1.365   4.494   7.516
 7821SOL     OW25294   1.646   8.415  13.989
 7821SOL    HW125295   1.662   8.430  14.082
 7821SOL    HW225296   1.686   8.331  13.971
 7822SOL     OW25297  11.832   2.231  13.772
 7822SOL    HW125298  11.924   2.258  13.776
 7822SOL    HW225299  11.791   2.295  13.715
 7823SOL     OW25300   3.314   9.652   2.266
 7823SOL    HW125301   3.321   9.747   2.267
 7823SOL    HW225302   3.323   9.627   2.358
 7824SOL     OW25303   8.138  13.988   4.371
 7824SOL    HW125304   8.119  14.008   4.279
 7824SOL    HW225305   8.211  14.046   4.393
 7825SOL     OW25306   3.946   7.969   4.493
 7825SOL    HW125307   3.861   7.960   4.535
 7825SOL    HW225308   3.933   8.038   4.428
 7826SOL     OW25309  11.292   8.226   2.787
 7826SOL    HW125310  11.348   8.166   2.739
 7826SOL    HW225311  11.300   8.309   2.740
 7827SOL     OW25312  11.429   5.095  12.699
 7827SOL    HW125313  11.342   5.128  12.722
 7827SOL    HW225314  11.416   5.046  12.618
 7828SOL     OW25315   2.076   5.980   4.301
 7828SOL    HW125316   2.092   6.012   4.389
 7828SOL    HW225317   2.161   5.982   4.258
 7829SOL     OW25318   0.998   0.374  14.836
 7829SOL    HW125319   0.946   0.427   0.021
 7829SOL    HW225320   1.089   0.393  14.860
 7830SOL     OW25321  13.186   1.895   0.474
 7830SOL    HW125322  13.100   1.862   0.449
 7830SOL    HW225323  13.204   1.966   0.413
 7831SOL     OW25324   1.924  11.566   6.664
 7831SOL    HW125325   1.891  11.607   6.744
 7831SOL    HW225326   1.847  11.524   6.625
 7832SOL     OW25327   6.166  13.775  13.055
 7832SOL    HW125328   6.232  13.824  13.004
 7832SOL    HW225329   6.199  13.777  13.144
 7833SOL     OW25330   5.877   3.611   8.032
 7833SOL    HW125331   5.830   3.528   8.041
 7833SOL    HW225332   5.920   3.623   8.117
 7834SOL     OW25333  12.060   5.237   2.702
 7834SOL    HW125334  12.100   5.152   2.721
 7834SOL    HW225335  11.972   5.215   2.670
 7835SOL     OW25336  12.585  14.357  10.699
 7835SOL    HW125337  12.586  14.274  10.651
 7835SOL    HW225338  12.621  14.421  10.638
 7836SOL     OW25339   3.468   0.900   0.264
 7836SOL    HW125340   3.437   0.928   0.179
 7836SOL    HW225341   3.413   0.947   0.327
 7837SOL     OW25342   4.446   9.060  13.810
 7837SOL    HW125343   4.502   9.048  13.887
 7837SOL    HW225344   4.400   9.142  13.826
 7838SOL     OW25345   9.919  13.178   0.295
 7838SOL    HW125346   9.949  13.261   0.334
 7838SOL    HW225347   9.828  13.169   0.325
 7839SOL     OW25348   8.330   4.088   0.884
 7839SOL    HW125349   8.301   4.121   0.799
 7839SOL    HW225350   8.322   3.993   0.877
 7840SOL     OW25351   7.697   2.366   2.507
 7840SOL    HW125352   7.720   2.442   2.454
 7840SOL    HW225353   7.617   2.391   2.552
 7841SOL     OW25354  13.905  10.173   5.455
 7841SOL    HW125355  13.840  10.204   5.392
 7841SOL    HW225356  13.859  10.105   5.505
 7842SOL     OW25357   3.760   8.416   7.536
 7842SOL    HW125358   3.757   8.453   7.448
 7842SOL    HW225359   3.844   8.446   7.572
 7843SOL     OW25360  13.811   6.522  10.221
 7843SOL    HW125361  13.719   6.522  10.250
 7843SOL    HW225362  13.809   6.560  10.134
 7844SOL     OW25363  11.137   3.748   6.116
 7844SOL    HW125364  11.155   3.699   6.036
 7844SOL    HW225365  11.096   3.829   6.087
 7845SOL     OW25366   7.321   5.260  13.857
 7845SOL    HW125367   7.284   5.283  13.942
 7845SOL    HW225368   7.337   5.166  13.861
 7846SOL     OW25369  12.408   4.247   9.185
 7846SOL    HW125370  12.417   4.337   9.155
 7846SOL    HW225371  12.495   4.222   9.215
 7847SOL     OW25372   9.085   5.061   9.836
 7847SOL    HW125373   9.064   4.986   9.781
 7847SOL    HW225374   9.002   5.109   9.845
 7848SOL     OW25375  12.225   4.519   4.036
 7848SOL    HW125376  12.151   4.487   3.984
 7848SOL    HW225377  12.247   4.446   4.093
 7849SOL     OW25378   4.330  11.373  12.949
 7849SOL    HW125379   4.347  11.281  12.967
 7849SOL    HW225380   4.273  11.401  13.021
 7850SOL     OW25381   5.604  10.218  14.609
 7850SOL    HW125382   5.675  10.282  14.598
 7850SOL    HW225383   5.648  10.133  14.611
 7851SOL     OW25384  10.321   4.513  13.711
 7851SOL    HW125385  10.301   4.573  13.783
 7851SOL    HW225386  10.246   4.453  13.708
 7852SOL     OW25387   9.350   8.989   8.497
 7852SOL    HW125388   9.371   9.077   8.464
 7852SOL    HW225389   9.273   9.002   8.553
 7853SOL     OW25390   8.824  13.794   1.075
 7853SOL    HW125391   8.905  13.768   1.117
 7853SOL    HW225392   8.836  13.886   1.054
 7854SOL     OW25393   1.494   1.781  14.666
 7854SOL    HW125394   1.477   1.850  14.603
 7854SOL    HW225395   1.436   1.710  14.641
 7855SOL     OW25396  10.393   2.217   3.078
 7855SOL    HW125397  10.435   2.298   3.050
 7855SOL    HW225398  10.465   2.161   3.105
 7856SOL     OW25399  10.109   3.650   4.680
 7856SOL    HW125400  10.097   3.743   4.698
 7856SOL    HW225401  10.066   3.605   4.753
 7857SOL     OW25402   1.060  14.503   4.537
 7857SOL    HW125403   0.978  14.540   4.505
 7857SOL    HW225404   1.124  14.525   4.470
 7858SOL     OW25405   0.452   4.607   6.637
 7858SOL    HW125406   0.365   4.622   6.599
 7858SOL    HW225407   0.451   4.514   6.660
 7859SOL     OW25408  14.539   8.948   0.949
 7859SOL    HW125409  14.544   8.886   1.021
 7859SOL    HW225410  14.449   8.979   0.950
 7860SOL     OW25411   3.965  11.868  14.788
 7860SOL    HW125412   3.939  11.811  14.861
 7860SOL    HW225413   3.956  11.957  14.824
 7861SOL     OW25414   7.260   8.049   4.564
 7861SOL    HW125415   7.172   8.088   4.565
 7861SOL    HW225416   7.318   8.124   4.554
 7862SOL     OW25417   7.635   9.996   8.927
 7862SOL    HW125418   7.569   9.928   8.918
 7862SOL    HW225419   7.647  10.006   9.021
 7863SOL     OW25420   6.981   1.436  10.864
 7863SOL    HW125421   6.995   1.526  10.893
 7863SOL    HW225422   7.052   1.419  10.802
 7864SOL     OW25423   8.682   3.909  12.112
 7864SOL    HW125424   8.723   3.834  12.067
 7864SOL    HW225425   8.681   3.884  12.205
 7865SOL     OW25426  14.210   6.777   8.147
 7865SOL    HW125427  14.292   6.797   8.102
 7865SOL    HW225428  14.144   6.775   8.078
 7866SOL     OW25429  12.529   9.505   5.048
 7866SOL    HW125430  12.496   9.566   4.982
 7866SOL    HW225431  12.574   9.437   4.997
 7867SOL     OW25432  11.934   6.709   9.441
 7867SOL    HW125433  11.866   6.642   9.449
 7867SOL    HW225434  12.016   6.659   9.437
 7868SOL     OW25435   5.339  11.390   6.160
 7868SOL    HW125436   5.411  11.420   6.104
 7868SOL    HW225437   5.382  11.355   6.238
 7869SOL     OW25438  11.781   3.792   0.214
 7869SOL    HW125439  11.749   3.761   0.130
 7869SOL    HW225440  11.704   3.794   0.271
 7870SOL     OW25441   0.171   7.740   9.039
 7870SOL    HW125442   0.123   7.799   8.981
 7870SOL    HW225443   0.141   7.652   9.014
 7871SOL     OW25444   7.018  13.803   7.892
 7871SOL    HW125445   7.018  13.868   7.962
 7871SOL    HW225446   7.109  13.800   7.861
 7872SOL     OW25447  11.502   0.873  11.180
 7872SOL    HW125448  11.451   0.950  11.158
 7872SOL    HW225449  11.437   0.809  11.209
 7873SOL     OW25450   2.274   8.878  14.319
 7873SOL    HW125451   2.332   8.894  14.393
 7873SOL    HW225452   2.230   8.795  14.340
 7874SOL     OW25453   5.115   7.128   3.652
 7874SOL    HW125454   5.186   7.177   3.693
 7874SOL    HW225455   5.156   7.046   3.625
 7875SOL     OW25456   3.424  12.794   3.905
 7875SOL    HW125457   3.439  12.734   3.831
 7875SOL    HW225458   3.481  12.869   3.886
 7876SOL     OW25459   2.587   0.029   9.432
 7876SOL    HW125460   2.631   0.093   9.488
 7876SOL    HW225461   2.597  14.822   9.479
 7877SOL     OW25462  14.437   8.714   5.099
 7877SOL    HW125463  14.366   8.672   5.051
 7877SOL    HW225464  14.515   8.662   5.078
 7878SOL     OW25465  11.695   0.084  13.793
 7878SOL    HW125466  11.750   0.009  13.770
 7878SOL    HW225467  11.740   0.126  13.866
 7879SOL     OW25468   8.419   1.998  10.516
 7879SOL    HW125469   8.447   1.911  10.487
 7879SOL    HW225470   8.420   2.051  10.436
 7880SOL     OW25471  10.646   0.583   8.243
 7880SOL    HW125472  10.663   0.671   8.275
 7880SOL    HW225473  10.632   0.594   8.149
 7881SOL     OW25474   2.812   0.825   1.725
 7881SOL    HW125475   2.771   0.739   1.725
 7881SOL    HW225476   2.820   0.848   1.632
 7882SOL     OW25477  10.306  11.517  11.263
 7882SOL    HW125478  10.252  11.594  11.244
 7882SOL    HW225479  10.317  11.518  11.358
 7883SOL     OW25480   3.964   8.742   8.996
 7883SOL    HW125481   3.902   8.670   9.011
 7883SOL    HW225482   4.050   8.702   9.007
 7884SOL     OW25483  10.243  13.410   7.501
 7884SOL    HW125484  10.261  13.497   7.464
 7884SOL    HW225485  10.151  13.394   7.481
 7885SOL     OW25486   2.883   8.252   1.033
 7885SOL    HW125487   2.869   8.342   1.002
 7885SOL    HW225488   2.968   8.227   0.997
 7886SOL     OW25489   4.560  11.966  14.680
 7886SOL    HW125490   4.635  12.025  14.667
 7886SOL    HW225491   4.584  11.914  14.756
 7887SOL     OW25492   4.140   0.336  10.872
 7887SOL    HW125493   4.225   0.378  10.865
 7887SOL    HW225494   4.112   0.323  10.782
 7888SOL     OW25495  12.734   4.319   5.600
 7888SOL    HW125496  12.689   4.250   5.550
 7888SOL    HW225497  12.808   4.344   5.546
 7889SOL     OW25498   1.264  12.208   7.984
 7889SOL    HW125499   1.231  12.293   8.014
 7889SOL    HW225500   1.338  12.190   8.042
 7890SOL     OW25501  10.645   7.763   7.832
 7890SOL    HW125502  10.674   7.848   7.797
 7890SOL    HW225503  10.663   7.701   7.761
 7891SOL     OW25504   8.076  12.833   6.928
 7891SOL    HW125505   8.158  12.821   6.881
 7891SOL    HW225506   8.081  12.921   6.965
 7892SOL     OW25507  10.384  13.275  14.314
 7892SOL    HW125508  10.327  13.200  14.330
 7892SOL    HW225509  10.473  13.240  14.323
 7893SOL     OW25510   6.967  10.462  14.462
 7893SOL    HW125511   7.042  10.502  14.418
 7893SOL    HW225512   7.003  10.386  14.507
 7894SOL     OW25513   6.029  11.038  13.652
 7894SOL    HW125514   5.985  10.964  13.692
 7894SOL    HW225515   5.961  11.104  13.642
 7895SOL     OW25516   0.251  11.229   4.219
 7895SOL    HW125517   0.286  11.268   4.139
 7895SOL    HW225518   0.256  11.298   4.285
 7896SOL     OW25519   9.544   0.488   5.612
 7896SOL    HW125520   9.516   0.568   5.657
 7896SOL    HW225521   9.507   0.496   5.525
 7897SOL     OW25522   1.536  10.506   8.960
 7897SOL    HW125523   1.529  10.469   9.048
 7897SOL    HW225524   1.553  10.599   8.974
 7898SOL     OW25525   0.016   6.745   2.733
 7898SOL    HW125526  14.832   6.690   2.682
 7898SOL    HW225527   0.068   6.683   2.784
 7899SOL     OW25528   9.700  12.527  12.043
 7899SOL    HW125529   9.765  12.517  12.112
 7899SOL    HW225530   9.629  12.576  12.083
 7900SOL     OW25531   8.307   8.864  12.857
 7900SOL    HW125532   8.298   8.960  12.858
 7900SOL    HW225533   8.332   8.844  12.766
 7901SOL     OW25534   4.850   5.167  13.437
 7901SOL    HW125535   4.894   5.241  13.396
 7901SOL    HW225536   4.828   5.198  13.525
 7902SOL     OW25537  14.405   1.404   7.471
 7902SOL    HW125538  14.396   1.397   7.566
 7902SOL    HW225539  14.316   1.398   7.438
 7903SOL     OW25540   6.596   4.219   1.822
 7903SOL    HW125541   6.652   4.223   1.899
 7903SOL    HW225542   6.508   4.237   1.855
 7904SOL     OW25543  12.356  13.610  12.303
 7904SOL    HW125544  12.347  13.702  12.278
 7904SOL    HW225545  12.340  13.610  12.398
 7905SOL     OW25546  10.598   4.527   7.858
 7905SOL    HW125547  10.522   4.509   7.803
 7905SOL    HW225548  10.663   4.462   7.831
 7906SOL     OW25549  12.320   9.447  12.606
 7906SOL    HW125550  12.411   9.436  12.633
 7906SOL    HW225551  12.273   9.373  12.644
 7907SOL     OW25552   5.529   9.393  11.304
 7907SOL    HW125553   5.434   9.394  11.316
 7907SOL    HW225554   5.558   9.312  11.345
 7908SOL     OW25555   3.715   7.012   4.322
 7908SOL    HW125556   3.700   7.032   4.230
 7908SOL    HW225557   3.769   7.084   4.354
 7909SOL     OW25558   2.106   8.322  11.865
 7909SOL    HW125559   2.143   8.317  11.953
 7909SOL    HW225560   2.179   8.348  11.810
 7910SOL     OW25561   0.558   0.206  12.383
 7910SOL    HW125562   0.613   0.130  12.362
 7910SOL    HW225563   0.482   0.170  12.428
 7911SOL     OW25564  11.247   6.938   8.727
 7911SOL    HW125565  11.292   6.866   8.772
 7911SOL    HW225566  11.274   6.930   8.636
 7912SOL     OW25567   0.922   0.744   0.938
 7912SOL    HW125568   0.956   0.822   0.894
 7912SOL    HW225569   0.892   0.777   1.023
 7913SOL     OW25570   0.899   3.781   6.458
 7913SOL    HW125571   0.819   3.825   6.487
 7913SOL    HW225572   0.959   3.853   6.436
 7914SOL     OW25573  12.224   8.704   7.384
 7914SOL    HW125574  12.172   8.629   7.416
 7914SOL    HW225575  12.273   8.733   7.461
 7915SOL     OW25576   5.705   5.865   6.030
 7915SOL    HW125577   5.756   5.939   6.062
 7915SOL    HW225578   5.658   5.833   6.107
 7916SOL     OW25579   3.880   0.219  11.837
 7916SOL    HW125580   3.823   0.142  11.836
 7916SOL    HW225581   3.964   0.186  11.805
 7917SOL     OW25582  11.658  14.484   5.643
 7917SOL    HW125583  11.599  14.419   5.682
 7917SOL    HW225584  11.733  14.432   5.612
 7918SOL     OW25585   7.649  14.403   0.923
 7918SOL    HW125586   7.611  14.470   0.980
 7918SOL    HW225587   7.684  14.451   0.849
 7919SOL     OW25588  10.043   7.547  14.253
 7919SOL    HW125589   9.957   7.538  14.212
 7919SOL    HW225590  10.041   7.633  14.294
 7920SOL     OW25591  13.098   7.469   5.928
 7920SOL    HW125592  13.028   7.495   5.989
 7920SOL    HW225593  13.163   7.539   5.934
 7921SOL     OW25594   9.913   0.961   3.918
 7921SOL    HW125595   9.819   0.970   3.932
 7921SOL    HW225596   9.952   1.037   3.960
 7922SOL     OW25597   6.262   5.723  13.202
 7922SOL    HW125598   6.310   5.675  13.135
 7922SOL    HW225599   6.171   5.720  13.173
 7923SOL     OW25600   9.774  10.013  13.566
 7923SOL    HW125601   9.720   9.950  13.613
 7923SOL    HW225602   9.822   9.960  13.502
 7924SOL     OW25603   4.816   6.528  14.657
 7924SOL    HW125604   4.740   6.574  14.620
 7924SOL    HW225605   4.842   6.581  14.733
 7925SOL     OW25606   0.679   7.733  12.210
 7925SOL    HW125607   0.718   7.765  12.292
 7925SOL    HW225608   0.627   7.657  12.237
 7926SOL     OW25609  12.874  11.950   7.528
 7926SOL    HW125610  12.791  11.930   7.486
 7926SOL    HW225611  12.852  12.019   7.592
 7927SOL     OW25612  10.706  14.326   1.107
 7927SOL    HW125613  10.772  14.296   1.170
 7927SOL    HW225614  10.739  14.410   1.076
 7928SOL     OW25615  12.269   0.408  10.777
 7928SOL    HW125616  12.218   0.346  10.829
 7928SOL    HW225617  12.353   0.413  10.821
 7929SOL     OW25618   9.989  10.915  11.800
 7929SOL    HW125619   9.953  10.894  11.886
 7929SOL    HW225620   9.927  10.876  11.738
 7930SOL     OW25621  11.924   9.354   8.921
 7930SOL    HW125622  12.019   9.361   8.920
 7930SOL    HW225623  11.898   9.357   8.829
 7931SOL     OW25624   7.212  13.520   0.621
 7931SOL    HW125625   7.243  13.452   0.562
 7931SOL    HW225626   7.278  13.523   0.690
 7932SOL     OW25627  13.831   2.902  10.734
 7932SOL    HW125628  13.920   2.932  10.717
 7932SOL    HW225629  13.777   2.951  10.673
 7933SOL     OW25630   2.559   0.520   3.094
 7933SOL    HW125631   2.587   0.450   3.035
 7933SOL    HW225632   2.512   0.475   3.165
 7934SOL     OW25633  10.634  12.134   7.458
 7934SOL    HW125634  10.612  12.129   7.365
 7934SOL    HW225635  10.570  12.196   7.494
 7935SOL     OW25636   6.487   6.804   5.049
 7935SOL    HW125637   6.536   6.844   5.121
 7935SOL    HW225638   6.403   6.850   5.049
 7936SOL     OW25639   7.233   3.539  10.876
 7936SOL    HW125640   7.262   3.463  10.927
 7936SOL    HW225641   7.192   3.596  10.941
 7937SOL     OW25642   9.842  12.851  11.750
 7937SOL    HW125643   9.925  12.810  11.724
 7937SOL    HW225644   9.853  12.943  11.727
 7938SOL     OW25645   3.258   4.634   2.049
 7938SOL    HW125646   3.352   4.641   2.060
 7938SOL    HW225647   3.226   4.724   2.044
 7939SOL     OW25648   0.820  10.044   1.137
 7939SOL    HW125649   0.776  10.108   1.081
 7939SOL    HW225650   0.754  10.023   1.203
 7940SOL     OW25651   6.845  12.597  14.455
 7940SOL    HW125652   6.801  12.665  14.505
 7940SOL    HW225653   6.896  12.548  14.520
 7941SOL     OW25654  11.591  12.754  14.580
 7941SOL    HW125655  11.613  12.816  14.510
 7941SOL    HW225656  11.554  12.678  14.533
 7942SOL     OW25657   3.451   7.293   1.010
 7942SOL    HW125658   3.366   7.321   1.043
 7942SOL    HW225659   3.509   7.367   1.027
 7943SOL     OW25660  10.929   7.986  13.546
 7943SOL    HW125661  10.958   7.901  13.578
 7943SOL    HW225662  10.843   7.998  13.585
 7944SOL     OW25663   9.627  10.912  13.659
 7944SOL    HW125664   9.584  10.995  13.641
 7944SOL    HW225665   9.600  10.855  13.587
 7945SOL     OW25666   1.244  12.244  13.465
 7945SOL    HW125667   1.180  12.225  13.533
 7945SOL    HW225668   1.191  12.270  13.389
 7946SOL     OW25669  12.001   1.666   2.669
 7946SOL    HW125670  11.968   1.740   2.719
 7946SOL    HW225671  12.044   1.706   2.593
 7947SOL     OW25672  11.283   3.629   3.402
 7947SOL    HW125673  11.297   3.611   3.495
 7947SOL    HW225674  11.359   3.681   3.377
 7948SOL     OW25675   4.534  12.807   0.024
 7948SOL    HW125676   4.569  12.823   0.112
 7948SOL    HW225677   4.586  12.733  14.867
 7949SOL     OW25678   3.067  13.135  14.569
 7949SOL    HW125679   3.017  13.072  14.620
 7949SOL    HW225680   3.034  13.220  14.599
 7950SOL     OW25681  12.182  11.763   1.153
 7950SOL    HW125682  12.200  11.856   1.142
 7950SOL    HW225683  12.243  11.720   1.093
 7951SOL     OW25684  10.125   0.101  12.368
 7951SOL    HW125685  10.180   0.028  12.397
 7951SOL    HW225686  10.038   0.081  12.402
 7952SOL     OW25687  12.475  12.560   7.792
 7952SOL    HW125688  12.416  12.602   7.729
 7952SOL    HW225689  12.503  12.631   7.850
 7953SOL     OW25690   9.385   3.029  14.694
 7953SOL    HW125691   9.441   2.983  14.757
 7953SOL    HW225692   9.440   3.040  14.616
 7954SOL     OW25693   5.754  12.913   0.031
 7954SOL    HW125694   5.725  12.921  14.816
 7954SOL    HW225695   5.783  13.001   0.055
 7955SOL     OW25696   6.232  10.145   1.046
 7955SOL    HW125697   6.279  10.062   1.032
 7955SOL    HW225698   6.280  10.188   1.117
 7956SOL     OW25699   0.327   4.464  11.434
 7956SOL    HW125700   0.316   4.524  11.508
 7956SOL    HW225701   0.244   4.470  11.386
 7957SOL     OW25702   5.443   1.917   7.183
 7957SOL    HW125703   5.454   2.008   7.155
 7957SOL    HW225704   5.369   1.885   7.131
 7958SOL     OW25705  14.452   8.268   5.223
 7958SOL    HW125706  14.518   8.253   5.155
 7958SOL    HW225707  14.487   8.340   5.274
 7959SOL     OW25708   1.293   3.482  13.325
 7959SOL    HW125709   1.346   3.553  13.290
 7959SOL    HW225710   1.332   3.402  13.289
 7960SOL     OW25711   3.991   0.366   8.938
 7960SOL    HW125712   4.059   0.389   8.875
 7960SOL    HW225713   3.919   0.427   8.919
 7961SOL     OW25714  12.234   7.200   6.277
 7961SOL    HW125715  12.145   7.165   6.271
 7961SOL    HW225716  12.226   7.276   6.334
 7962SOL     OW25717   3.475   6.044  11.602
 7962SOL    HW125718   3.567   6.020  11.614
 7962SOL    HW225719   3.477   6.119  11.542
 7963SOL     OW25720   0.476   9.402   6.794
 7963SOL    HW125721   0.526   9.468   6.745
 7963SOL    HW225722   0.414   9.453   6.846
 7964SOL     OW25723  11.637   8.530   7.825
 7964SOL    HW125724  11.570   8.591   7.792
 7964SOL    HW225725  11.687   8.506   7.747
 7965SOL     OW25726   1.913   0.997  10.447
 7965SOL    HW125727   1.864   0.932  10.499
 7965SOL    HW225728   1.989   0.948  10.415
 7966SOL     OW25729   7.497   1.711   4.439
 7966SOL    HW125730   7.414   1.715   4.392
 7966SOL    HW225731   7.527   1.621   4.427
 7967SOL     OW25732   6.606   6.733  12.860
 7967SOL    HW125733   6.520   6.733  12.817
 7967SOL    HW225734   6.637   6.823  12.850
 7968SOL     OW25735  10.428  14.367   8.999
 7968SOL    HW125736  10.364  14.318   9.052
 7968SOL    HW225737  10.466  14.301   8.941
 7969SOL     OW25738   6.250   1.598  12.568
 7969SOL    HW125739   6.310   1.671  12.585
 7969SOL    HW225740   6.198   1.627  12.493
 7970SOL     OW25741  14.831   7.132   4.607
 7970SOL    HW125742  14.799   7.083   4.683
 7970SOL    HW225743   0.024   7.077   4.570
 7971SOL     OW25744   7.489   0.680   5.425
 7971SOL    HW125745   7.534   0.654   5.505
 7971SOL    HW225746   7.418   0.617   5.416
 7972SOL     OW25747  10.192   1.275   8.175
 7972SOL    HW125748  10.131   1.211   8.139
 7972SOL    HW225749  10.256   1.223   8.224
 7973SOL     OW25750   5.235   6.428   2.674
 7973SOL    HW125751   5.200   6.357   2.619
 7973SOL    HW225752   5.264   6.495   2.611
 7974SOL     OW25753   5.034  12.517   9.859
 7974SOL    HW125754   5.092  12.579   9.903
 7974SOL    HW225755   4.975  12.573   9.808
 7975SOL     OW25756   5.001   5.390   0.647
 7975SOL    HW125757   4.925   5.435   0.611
 7975SOL    HW225758   5.044   5.457   0.701
 7976SOL     OW25759  13.025   8.658  10.075
 7976SOL    HW125760  12.996   8.741  10.038
 7976SOL    HW225761  12.975   8.592  10.027
 7977SOL     OW25762   8.178   1.909   3.049
 7977SOL    HW125763   8.084   1.892   3.054
 7977SOL    HW225764   8.185   2.002   3.024
 7978SOL     OW25765   5.811  10.364  11.839
 7978SOL    HW125766   5.797  10.385  11.932
 7978SOL    HW225767   5.863  10.284  11.840
 7979SOL     OW25768   5.681   7.174   9.763
 7979SOL    HW125769   5.749   7.214   9.709
 7979SOL    HW225770   5.713   7.184   9.852
 7980SOL     OW25771   9.641   1.659   6.372
 7980SOL    HW125772   9.671   1.737   6.326
 7980SOL    HW225773   9.546   1.670   6.380
 7981SOL     OW25774   2.238   5.863  12.335
 7981SOL    HW125775   2.275   5.895  12.417
 7981SOL    HW225776   2.187   5.786  12.360
 7982SOL     OW25777   7.871   3.101   1.209
 7982SOL    HW125778   7.853   3.064   1.295
 7982SOL    HW225779   7.789   3.090   1.161
 7983SOL     OW25780  14.521   6.272   3.652
 7983SOL    HW125781  14.440   6.251   3.606
 7983SOL    HW225782  14.506   6.244   3.742
 7984SOL     OW25783  10.021   9.433   5.795
 7984SOL    HW125784   9.999   9.518   5.833
 7984SOL    HW225785   9.940   9.383   5.801
 7985SOL     OW25786  10.099  14.473   0.837
 7985SOL    HW125787  10.019  14.438   0.798
 7985SOL    HW225788  10.151  14.396   0.860
 7986SOL     OW25789   3.538   8.186   1.196
 7986SOL    HW125790   3.532   8.223   1.284
 7986SOL    HW225791   3.478   8.111   1.197
 7987SOL     OW25792   1.071  13.938  10.094
 7987SOL    HW125793   1.122  13.874  10.142
 7987SOL    HW225794   1.005  13.886  10.047
 7988SOL     OW25795   2.813   0.694  10.890
 7988SOL    HW125796   2.758   0.759  10.845
 7988SOL    HW225797   2.876   0.747  10.939
 7989SOL     OW25798  14.558   6.443   0.758
 7989SOL    HW125799  14.577   6.490   0.839
 7989SOL    HW225800  14.628   6.471   0.698
 7990SOL     OW25801   9.016   6.745   4.499
 7990SOL    HW125802   9.062   6.822   4.535
 7990SOL    HW225803   9.073   6.715   4.428
 7991SOL     OW25804   3.553   0.525   8.611
 7991SOL    HW125805   3.559   0.435   8.642
 7991SOL    HW225806   3.459   0.540   8.600
 7992SOL     OW25807   2.969   3.591   8.166
 7992SOL    HW125808   2.888   3.601   8.117
 7992SOL    HW225809   2.967   3.500   8.199
 7993SOL     OW25810   7.487   4.069   3.728
 7993SOL    HW125811   7.491   4.010   3.804
 7993SOL    HW225812   7.572   4.114   3.728
 7994SOL     OW25813   0.631   1.741  14.425
 7994SOL    HW125814   0.671   1.659  14.455
 7994SOL    HW225815   0.583   1.774  14.501
 7995SOL     OW25816  13.177  11.620  10.260
 7995SOL    HW125817  13.100  11.563  10.256
 7995SOL    HW225818  13.162  11.685  10.192
 7996SOL     OW25819   3.075   3.837   1.508
 7996SOL    HW125820   3.081   3.767   1.444
 7996SOL    HW225821   3.086   3.794   1.593
 7997SOL     OW25822   1.212  12.538  13.932
 7997SOL    HW125823   1.242  12.519  13.843
 7997SOL    HW225824   1.142  12.602  13.920
 7998SOL     OW25825   4.082   8.116   1.866
 7998SOL    HW125826   4.175   8.126   1.886
 7998SOL    HW225827   4.073   8.027   1.832
 7999SOL     OW25828  10.534  11.513  11.952
 7999SOL    HW125829  10.470  11.579  11.977
 7999SOL    HW225830  10.616  11.561  11.942
 8000SOL     OW25831  12.393  13.879   6.289
 8000SOL    HW125832  12.448  13.806   6.261
 8000SOL    HW225833  12.380  13.932   6.211
 8001SOL     OW25834   5.178  12.633  14.666
 8001SOL    HW125835   5.230  12.557  14.638
 8001SOL    HW225836   5.138  12.606  14.748
 8002SOL     OW25837   5.299   9.317   0.617
 8002SOL    HW125838   5.382   9.318   0.665
 8002SOL    HW225839   5.246   9.252   0.662
 8003SOL     OW25840   1.926   5.382   6.672
 8003SOL    HW125841   1.973   5.335   6.741
 8003SOL    HW225842   1.854   5.323   6.648
 8004SOL     OW25843   1.346   5.770   8.023
 8004SOL    HW125844   1.351   5.866   8.018
 8004SOL    HW225845   1.370   5.749   8.113
 8005SOL     OW25846   7.171  11.224   4.256
 8005SOL    HW125847   7.159  11.253   4.347
 8005SOL    HW225848   7.262  11.247   4.236
 8006SOL     OW25849  10.277   4.549  12.211
 8006SOL    HW125850  10.339   4.550  12.283
 8006SOL    HW225851  10.330   4.534  12.133
 8007SOL     OW25852   4.462  13.986   0.726
 8007SOL    HW125853   4.454  14.043   0.650
 8007SOL    HW225854   4.507  13.909   0.693
 8008SOL     OW25855   9.487   9.059   2.117
 8008SOL    HW125856   9.505   9.016   2.034
 8008SOL    HW225857   9.408   9.110   2.101
 8009SOL     OW25858  10.301   7.738   5.935
 8009SOL    HW125859  10.353   7.666   5.898
 8009SOL    HW225860  10.253   7.774   5.860
 8010SOL     OW25861   5.479   7.583   7.816
 8010SOL    HW125862   5.508   7.588   7.725
 8010SOL    HW225863   5.509   7.664   7.856
 8011SOL     OW25864  11.205  10.919  12.728
 8011SOL    HW125865  11.256  10.938  12.650
 8011SOL    HW225866  11.212  10.999  12.781
 8012SOL     OW25867   8.172   1.055   3.376
 8012SOL    HW125868   8.130   1.118   3.317
 8012SOL    HW225869   8.172   0.973   3.327
 8013SOL     OW25870   7.191   5.416  12.065
 8013SOL    HW125871   7.265   5.431  12.006
 8013SOL    HW225872   7.228   5.421  12.153
 8014SOL     OW25873  12.754   3.153   7.909
 8014SOL    HW125874  12.832   3.127   7.957
 8014SOL    HW225875  12.751   3.249   7.918
 8015SOL     OW25876   9.824   6.749   6.190
 8015SOL    HW125877   9.841   6.655   6.188
 8015SOL    HW225878   9.828   6.773   6.282
 8016SOL     OW25879  11.493   9.979  13.679
 8016SOL    HW125880  11.535  10.059  13.710
 8016SOL    HW225881  11.402  10.004  13.662
 8017SOL     OW25882  10.818   3.927   9.702
 8017SOL    HW125883  10.847   3.859   9.641
 8017SOL    HW225884  10.893   3.986   9.709
 8018SOL     OW25885  14.746  13.437  12.253
 8018SOL    HW125886  14.757  13.387  12.334
 8018SOL    HW225887  14.817  13.501  12.254
 8019SOL     OW25888   7.948  13.556   0.215
 8019SOL    HW125889   7.897  13.548   0.296
 8019SOL    HW225890   8.038  13.538   0.242
 8020SOL     OW25891   1.905   0.750   5.478
 8020SOL    HW125892   1.836   0.691   5.448
 8020SOL    HW225893   1.875   0.782   5.563
 8021SOL     OW25894   4.232  12.704   0.980
 8021SOL    HW125895   4.163  12.710   0.914
 8021SOL    HW225896   4.195  12.748   1.057
 8022SOL     OW25897   3.463  13.284  11.275
 8022SOL    HW125898   3.512  13.203  11.286
 8022SOL    HW225899   3.529  13.353  11.281
 8023SOL     OW25900   9.537   9.707  11.531
 8023SOL    HW125901   9.501   9.794  11.516
 8023SOL    HW225902   9.460   9.651  11.542
 8024SOL     OW25903  11.976   3.271  12.750
 8024SOL    HW125904  11.962   3.366  12.754
 8024SOL    HW225905  12.071   3.261  12.759
 8025SOL     OW25906  12.709   0.329   0.668
 8025SOL    HW125907  12.770   0.338   0.742
 8025SOL    HW225908  12.716   0.412   0.621
 8026SOL     OW25909   5.521  11.350   6.690
 8026SOL    HW125910   5.517  11.320   6.780
 8026SOL    HW225911   5.518  11.445   6.696
 8027SOL     OW25912   4.971   9.824   6.956
 8027SOL    HW125913   5.023   9.878   6.897
 8027SOL    HW225914   4.897   9.795   6.902
 8028SOL     OW25915  12.386   2.433   6.885
 8028SOL    HW125916  12.343   2.487   6.819
 8028SOL    HW225917  12.479   2.454   6.877
 8029SOL     OW25918   0.420  10.881   2.201
 8029SOL    HW125919   0.502  10.931   2.191
 8029SOL    HW225920   0.378  10.921   2.277
 8030SOL     OW25921   8.152   0.512  10.575
 8030SOL    HW125922   8.228   0.543  10.525
 8030SOL    HW225923   8.142   0.421  10.549
 8031SOL     OW25924  10.893   5.661  11.144
 8031SOL    HW125925  10.969   5.643  11.088
 8031SOL    HW225926  10.894   5.591  11.209
 8032SOL     OW25927   0.975   9.494   6.262
 8032SOL    HW125928   0.930   9.428   6.209
 8032SOL    HW225929   1.038   9.443   6.314
 8033SOL     OW25930   9.209   4.355  10.038
 8033SOL    HW125931   9.264   4.426  10.071
 8033SOL    HW225932   9.152   4.397   9.973
 8034SOL     OW25933   8.480  12.416  13.051
 8034SOL    HW125934   8.536  12.418  12.974
 8034SOL    HW225935   8.447  12.506  13.059
 8035SOL     OW25936   7.748   8.504   2.442
 8035SOL    HW125937   7.775   8.584   2.486
 8035SOL    HW225938   7.661   8.485   2.477
 8036SOL     OW25939   0.056   0.375  11.700
 8036SOL    HW125940   0.016   0.373  11.787
 8036SOL    HW225941   0.148   0.352  11.716
 8037SOL     OW25942  12.372  12.888  11.646
 8037SOL    HW125943  12.426  12.813  11.670
 8037SOL    HW225944  12.348  12.929  11.729
 8038SOL     OW25945  12.825   7.337  11.035
 8038SOL    HW125946  12.882   7.386  10.976
 8038SOL    HW225947  12.806   7.256  10.988
 8039SOL     OW25948  14.767   4.194  13.496
 8039SOL    HW125949  14.721   4.152  13.424
 8039SOL    HW225950  14.810   4.270  13.456
 8040SOL     OW25951   2.137   2.867   3.073
 8040SOL    HW125952   2.177   2.801   3.016
 8040SOL    HW225953   2.211   2.914   3.111
 8041SOL     OW25954  13.712  11.787  13.397
 8041SOL    HW125955  13.734  11.699  13.428
 8041SOL    HW225956  13.790  11.816  13.350
 8042SOL     OW25957  11.230  11.574   9.528
 8042SOL    HW125958  11.317  11.538   9.514
 8042SOL    HW225959  11.222  11.645   9.465
 8043SOL     OW25960   5.209   7.373   4.426
 8043SOL    HW125961   5.262   7.312   4.478
 8043SOL    HW225962   5.145   7.317   4.382
 8044SOL     OW25963   2.424  12.965  10.625
 8044SOL    HW125964   2.378  13.019  10.561
 8044SOL    HW225965   2.437  13.022  10.701
 8045SOL     OW25966   7.434   5.471   1.080
 8045SOL    HW125967   7.513   5.427   1.112
 8045SOL    HW225968   7.382   5.487   1.159
 8046SOL     OW25969  10.608  13.563   4.869
 8046SOL    HW125970  10.532  13.612   4.901
 8046SOL    HW225971  10.640  13.517   4.946
 8047SOL     OW25972   4.886   4.349   0.276
 8047SOL    HW125973   4.853   4.410   0.210
 8047SOL    HW225974   4.841   4.267   0.257
 8048SOL     OW25975   7.433  14.564  12.805
 8048SOL    HW125976   7.360  14.505  12.784
 8048SOL    HW225977   7.441  14.621  12.728
 8049SOL     OW25978   9.829   3.447  14.204
 8049SOL    HW125979   9.738   3.458  14.229
 8049SOL    HW225980   9.868   3.535  14.215
 8050SOL     OW25981   0.361  11.951   0.736
 8050SOL    HW125982   0.356  11.970   0.642
 8050SOL    HW225983   0.360  12.037   0.778
 8051SOL     OW25984   2.207   8.912   6.126
 8051SOL    HW125985   2.282   8.894   6.183
 8051SOL    HW225986   2.244   8.959   6.051
 8052SOL     OW25987   5.740   4.855  11.891
 8052SOL    HW125988   5.754   4.817  11.804
 8052SOL    HW225989   5.774   4.790  11.952
 8053SOL     OW25990   3.283  12.568   7.546
 8053SOL    HW125991   3.225  12.573   7.470
 8053SOL    HW225992   3.366  12.606   7.515
 8054SOL     OW25993  11.800   0.010  10.939
 8054SOL    HW125994  11.867   0.046  10.997
 8054SOL    HW225995  11.843  14.812  10.895
 8055SOL     OW25996   1.233   1.391  11.857
 8055SOL    HW125997   1.240   1.364  11.949
 8055SOL    HW225998   1.191   1.477  11.861
 8056SOL     OW25999   7.956   0.984   5.462
 8056SOL    HW126000   7.893   0.924   5.422
 8056SOL    HW226001   8.018   0.926   5.506
 8057SOL     OW26002  10.298   2.667  14.419
 8057SOL    HW126003  10.366   2.658  14.351
 8057SOL    HW226004  10.216   2.649  14.373
 8058SOL     OW26005   5.843   6.656   8.891
 8058SOL    HW126006   5.849   6.589   8.822
 8058SOL    HW226007   5.794   6.728   8.851
 8059SOL     OW26008  13.219  12.463   8.348
 8059SOL    HW126009  13.271  12.538   8.377
 8059SOL    HW226010  13.283  12.396   8.326
 8060SOL     OW26011   4.577  13.591   3.029
 8060SOL    HW126012   4.615  13.621   2.946
 8060SOL    HW226013   4.498  13.645   3.040
 8061SOL     OW26014   2.456  12.836  13.075
 8061SOL    HW126015   2.507  12.836  12.994
 8061SOL    HW226016   2.451  12.744  13.101
 8062SOL     OW26017  13.577  14.026   8.738
 8062SOL    HW126018  13.639  14.065   8.676
 8062SOL    HW226019  13.492  14.061   8.711
 8063SOL     OW26020   2.628   1.056  13.578
 8063SOL    HW126021   2.630   1.043  13.483
 8063SOL    HW226022   2.687   0.988  13.612
 8064SOL     OW26023   2.752   3.677  10.207
 8064SOL    HW126024   2.727   3.585  10.202
 8064SOL    HW226025   2.690   3.716  10.268
 8065SOL     OW26026   5.893   8.011  13.806
 8065SOL    HW126027   5.937   8.074  13.749
 8065SOL    HW226028   5.930   7.926  13.783
 8066SOL     OW26029   2.610   0.803  10.698
 8066SOL    HW126030   2.564   0.879  10.734
 8066SOL    HW226031   2.678   0.841  10.642
 8067SOL     OW26032  12.663  14.690  10.869
 8067SOL    HW126033  12.729  14.673  10.802
 8067SOL    HW226034  12.713  14.723  10.944
 8068SOL     OW26035   1.897   4.404  12.125
 8068SOL    HW126036   1.836   4.400  12.199
 8068SOL    HW226037   1.975   4.357  12.156
 8069SOL     OW26038   5.653   7.385   4.260
 8069SOL    HW126039   5.582   7.447   4.279
 8069SOL    HW226040   5.652   7.375   4.165
 8070SOL     OW26041  10.037   6.506   4.700
 8070SOL    HW126042  10.072   6.530   4.615
 8070SOL    HW226043  10.113   6.506   4.759
 8071SOL     OW26044  10.333  10.363   9.218
 8071SOL    HW126045  10.273  10.304   9.262
 8071SOL    HW226046  10.397  10.388   9.286
 8072SOL     OW26047   7.981   7.108   4.744
 8072SOL    HW126048   7.917   7.037   4.757
 8072SOL    HW226049   7.979   7.157   4.826
 8073SOL     OW26050  12.396  11.996  12.895
 8073SOL    HW126051  12.402  11.908  12.857
 8073SOL    HW226052  12.483  12.034  12.884
 8074SOL     OW26053   3.966   3.819   5.562
 8074SOL    HW126054   3.954   3.810   5.657
 8074SOL    HW226055   4.044   3.873   5.553
 8075SOL     OW26056   1.502   0.128   6.684
 8075SOL    HW126057   1.479   0.099   6.596
 8075SOL    HW226058   1.547   0.211   6.672
 8076SOL     OW26059   0.838   2.918   6.394
 8076SOL    HW126060   0.771   2.949   6.333
 8076SOL    HW226061   0.821   2.967   6.475
 8077SOL     OW26062  10.703  14.597   6.917
 8077SOL    HW126063  10.769  14.585   6.849
 8077SOL    HW226064  10.730  14.676   6.963
 8078SOL     OW26065   9.972   3.138  12.389
 8078SOL    HW126066  10.047   3.154  12.332
 8078SOL    HW226067   9.937   3.224  12.409
 8079SOL     OW26068   0.309  13.076   8.233
 8079SOL    HW126069   0.328  13.062   8.141
 8079SOL    HW226070   0.237  13.139   8.233
 8080SOL     OW26071   5.977  14.784  13.394
 8080SOL    HW126072   5.884  14.793  13.416
 8080SOL    HW226073   5.978  14.782  13.298
 8081SOL     OW26074  14.616   0.267   2.881
 8081SOL    HW126075  14.520   0.267   2.874
 8081SOL    HW226076  14.645   0.208   2.811
 8082SOL     OW26077   7.566  12.687   6.647
 8082SOL    HW126078   7.656  12.657   6.658
 8082SOL    HW226079   7.558  12.703   6.553
 8083SOL     OW26080  14.330   6.731  14.346
 8083SOL    HW126081  14.408   6.680  14.368
 8083SOL    HW226082  14.283   6.678  14.282
 8084SOL     OW26083   9.311   2.852   7.900
 8084SOL    HW126084   9.300   2.776   7.842
 8084SOL    HW226085   9.358   2.819   7.975
 8085SOL     OW26086   5.906   6.913   2.977
 8085SOL    HW126087   5.817   6.932   3.008
 8085SOL    HW226088   5.908   6.948   2.888
 8086SOL     OW26089   4.866   0.436   7.390
 8086SOL    HW126090   4.886   0.369   7.324
 8086SOL    HW226091   4.777   0.463   7.371
 8087SOL     OW26092   8.539   8.624   5.277
 8087SOL    HW126093   8.507   8.548   5.327
 8087SOL    HW226094   8.490   8.698   5.313
 8088SOL     OW26095   3.244  12.699   1.181
 8088SOL    HW126096   3.307  12.656   1.125
 8088SOL    HW226097   3.296  12.732   1.255
 8089SOL     OW26098   7.825   0.688   1.111
 8089SOL    HW126099   7.775   0.767   1.132
 8089SOL    HW226100   7.810   0.674   1.017
 8090SOL     OW26101   5.778  14.138   8.037
 8090SOL    HW126102   5.721  14.066   8.008
 8090SOL    HW226103   5.722  14.216   8.033
 8091SOL     OW26104   4.405  12.665   1.201
 8091SOL    HW126105   4.475  12.707   1.151
 8091SOL    HW226106   4.336  12.648   1.136
 8092SOL     OW26107   5.628   8.374   3.013
 8092SOL    HW126108   5.538   8.402   3.026
 8092SOL    HW226109   5.664   8.365   3.101
 8093SOL     OW26110   5.328   6.696   5.336
 8093SOL    HW126111   5.245   6.698   5.287
 8093SOL    HW226112   5.349   6.789   5.349
 8094SOL     OW26113   8.152   9.836   1.095
 8094SOL    HW126114   8.161   9.931   1.087
 8094SOL    HW226115   8.061   9.823   1.124
 8095SOL     OW26116   3.063   2.080   4.872
 8095SOL    HW126117   3.129   2.142   4.841
 8095SOL    HW226118   3.109   1.996   4.876
 8096SOL     OW26119   0.345   3.672  10.244
 8096SOL    HW126120   0.258   3.696  10.276
 8096SOL    HW226121   0.405   3.726  10.295
 8097SOL     OW26122  13.848   8.327  12.276
 8097SOL    HW126123  13.780   8.298  12.215
 8097SOL    HW226124  13.929   8.291  12.240
 8098SOL     OW26125   4.562   8.409   4.471
 8098SOL    HW126126   4.509   8.479   4.508
 8098SOL    HW226127   4.580   8.350   4.544
 8099SOL     OW26128   4.525   9.850  11.016
 8099SOL    HW126129   4.532   9.845  11.111
 8099SOL    HW226130   4.592   9.790  10.984
 8100SOL     OW26131   4.318  12.585   5.028
 8100SOL    HW126132   4.379  12.554   5.096
 8100SOL    HW226133   4.279  12.664   5.065
 8101SOL     OW26134   4.760   2.266   7.149
 8101SOL    HW126135   4.717   2.181   7.148
 8101SOL    HW226136   4.822   2.263   7.076
 8102SOL     OW26137   9.892   9.724   4.803
 8102SOL    HW126138   9.908   9.668   4.879
 8102SOL    HW226139   9.805   9.761   4.819
 8103SOL     OW26140  13.286  10.432  14.665
 8103SOL    HW126141  13.322  10.437  14.576
 8103SOL    HW226142  13.360  10.402  14.718
 8104SOL     OW26143  10.519  10.139  14.398
 8104SOL    HW126144  10.425  10.136  14.381
 8104SOL    HW226145  10.559  10.111  14.316
 8105SOL     OW26146   5.720  14.499  14.516
 8105SOL    HW126147   5.807  14.475  14.545
 8105SOL    HW226148   5.662  14.472  14.587
 8106SOL     OW26149   6.440   3.425   2.628
 8106SOL    HW126150   6.467   3.334   2.645
 8106SOL    HW226151   6.413   3.425   2.537
 8107SOL     OW26152   4.203   3.859   9.025
 8107SOL    HW126153   4.264   3.859   8.951
 8107SOL    HW226154   4.168   3.948   9.027
 8108SOL     OW26155   2.740  11.875   4.852
 8108SOL    HW126156   2.791  11.928   4.791
 8108SOL    HW226157   2.654  11.916   4.853
 8109SOL     OW26158  14.670   7.917  10.230
 8109SOL    HW126159  14.764   7.898  10.221
 8109SOL    HW226160  14.661   7.948  10.320
 8110SOL     OW26161  10.916   8.002   0.631
 8110SOL    HW126162  10.838   7.985   0.685
 8110SOL    HW226163  10.893   7.969   0.545
 8111SOL     OW26164   9.426   1.897   5.575
 8111SOL    HW126165   9.385   1.903   5.489
 8111SOL    HW226166   9.515   1.868   5.557
 8112SOL     OW26167   8.045  10.660  13.017
 8112SOL    HW126168   8.029  10.632  12.927
 8112SOL    HW226169   7.977  10.615  13.068
 8113SOL     OW26170  10.065   7.187   5.600
 8113SOL    HW126171   9.997   7.160   5.539
 8113SOL    HW226172  10.044   7.278   5.620
 8114SOL     OW26173   9.175   7.699   7.246
 8114SOL    HW126174   9.103   7.684   7.185
 8114SOL    HW226175   9.146   7.660   7.328
 8115SOL     OW26176   8.936  13.343   2.786
 8115SOL    HW126177   8.869  13.331   2.719
 8115SOL    HW226178   8.962  13.435   2.779
 8116SOL     OW26179   7.752   0.944   8.170
 8116SOL    HW126180   7.731   0.888   8.095
 8116SOL    HW226181   7.802   1.016   8.132
 8117SOL     OW26182  12.501   5.124   0.819
 8117SOL    HW126183  12.589   5.130   0.781
 8117SOL    HW226184  12.453   5.067   0.760
 8118SOL     OW26185  13.019   8.315  13.756
 8118SOL    HW126186  13.078   8.386  13.733
 8118SOL    HW226187  12.939   8.333  13.705
 8119SOL     OW26188   8.638   3.138   5.170
 8119SOL    HW126189   8.719   3.095   5.141
 8119SOL    HW226190   8.577   3.065   5.183
 8120SOL     OW26191   5.512   5.306   8.525
 8120SOL    HW126192   5.471   5.285   8.441
 8120SOL    HW226193   5.563   5.228   8.546
 8121SOL     OW26194  11.972   8.034  13.967
 8121SOL    HW126195  11.965   8.019  14.061
 8121SOL    HW226196  11.945   7.950  13.927
 8122SOL     OW26197   7.647   4.874   8.952
 8122SOL    HW126198   7.634   4.969   8.962
 8122SOL    HW226199   7.707   4.851   9.022
 8123SOL     OW26200   0.347  13.078   7.943
 8123SOL    HW126201   0.279  13.104   7.881
 8123SOL    HW226202   0.425  13.125   7.915
 8124SOL     OW26203   7.410   3.016   9.337
 8124SOL    HW126204   7.410   3.084   9.270
 8124SOL    HW226205   7.360   3.053   9.410
 8125SOL     OW26206   4.081   7.230   5.459
 8125SOL    HW126207   4.085   7.276   5.375
 8125SOL    HW226208   4.073   7.299   5.524
 8126SOL     OW26209   8.230   4.192   6.283
 8126SOL    HW126210   8.136   4.210   6.279
 8126SOL    HW226211   8.236   4.096   6.275
 8127SOL     OW26212   1.352   5.423  13.175
 8127SOL    HW126213   1.401   5.353  13.218
 8127SOL    HW226214   1.368   5.500  13.229
 8128SOL     OW26215   9.802   8.022   1.994
 8128SOL    HW126216   9.749   8.076   1.935
 8128SOL    HW226217   9.857   8.084   2.041
 8129SOL     OW26218  11.436   2.271  12.892
 8129SOL    HW126219  11.381   2.205  12.935
 8129SOL    HW226220  11.445   2.240  12.802
 8130SOL     OW26221   4.859   4.456  14.375
 8130SOL    HW126222   4.797   4.383  14.373
 8130SOL    HW226223   4.944   4.416  14.359
 8131SOL     OW26224  13.779   1.038   9.092
 8131SOL    HW126225  13.866   1.076   9.083
 8131SOL    HW226226  13.793   0.954   9.136
 8132SOL     OW26227   2.563   4.756  11.376
 8132SOL    HW126228   2.486   4.800  11.410
 8132SOL    HW226229   2.533   4.711  11.297
 8133SOL     OW26230  14.353   2.805   6.861
 8133SOL    HW126231  14.284   2.871   6.853
 8133SOL    HW226232  14.354   2.782   6.954
 8134SOL     OW26233   5.967  11.648   5.542
 8134SOL    HW126234   6.043  11.593   5.522
 8134SOL    HW226235   6.002  11.721   5.593
 8135SOL     OW26236  10.953   9.203   3.449
 8135SOL    HW126237  10.962   9.267   3.519
 8135SOL    HW226238  10.927   9.122   3.493
 8136SOL     OW26239   9.986   0.704  12.229
 8136SOL    HW126240   9.959   0.666  12.145
 8136SOL    HW226241   9.904   0.729  12.271
 8137SOL     OW26242   9.304   9.862  12.465
 8137SOL    HW126243   9.273   9.840  12.552
 8137SOL    HW226244   9.238   9.922  12.430
 8138SOL     OW26245   3.006  13.402  10.340
 8138SOL    HW126246   3.024  13.310  10.321
 8138SOL    HW226247   2.926  13.422  10.292
 8139SOL     OW26248   9.518   5.972   0.832
 8139SOL    HW126249   9.564   5.952   0.751
 8139SOL    HW226250   9.489   6.063   0.821
 8140SOL     OW26251   4.425   2.267   5.551
 8140SOL    HW126252   4.417   2.349   5.501
 8140SOL    HW226253   4.492   2.286   5.617
 8141SOL     OW26254   4.921   7.524   4.247
 8141SOL    HW126255   4.855   7.543   4.313
 8141SOL    HW226256   5.004   7.544   4.289
 8142SOL     OW26257   7.992  10.329   3.036
 8142SOL    HW126258   7.925  10.263   3.053
 8142SOL    HW226259   8.046  10.292   2.966
 8143SOL     OW26260   7.824   9.209   5.088
 8143SOL    HW126261   7.737   9.243   5.066
 8143SOL    HW226262   7.827   9.211   5.184
 8144SOL     OW26263  11.796  14.256   2.070
 8144SOL    HW126264  11.853  14.331   2.088
 8144SOL    HW226265  11.748  14.243   2.152
 8145SOL     OW26266   2.018  12.438   9.425
 8145SOL    HW126267   2.048  12.433   9.334
 8145SOL    HW226268   1.991  12.529   9.436
 8146SOL     OW26269   0.504  12.785   3.577
 8146SOL    HW126270   0.410  12.770   3.570
 8146SOL    HW226271   0.532  12.733   3.652
 8147SOL     OW26272  14.586   3.667   0.891
 8147SOL    HW126273  14.571   3.759   0.909
 8147SOL    HW226274  14.649   3.666   0.819
 8148SOL     OW26275   3.747   8.187   3.729
 8148SOL    HW126276   3.769   8.160   3.819
 8148SOL    HW226277   3.658   8.155   3.716
 8149SOL     OW26278   9.089   8.203   5.384
 8149SOL    HW126279   9.182   8.187   5.400
 8149SOL    HW226280   9.087   8.286   5.335
 8150SOL     OW26281   9.833   7.386   8.355
 8150SOL    HW126282   9.754   7.403   8.304
 8150SOL    HW226283   9.805   7.324   8.423
 8151SOL     OW26284  10.439   7.620  12.138
 8151SOL    HW126285  10.365   7.574  12.098
 8151SOL    HW226286  10.515   7.569  12.111
 8152SOL     OW26287   0.426   7.684  14.497
 8152SOL    HW126288   0.420   7.624  14.423
 8152SOL    HW226289   0.356   7.748  14.481
 8153SOL     OW26290  12.911   9.233  12.317
 8153SOL    HW126291  12.955   9.185  12.246
 8153SOL    HW226292  12.982   9.254  12.378
 8154SOL     OW26293   9.226  14.529   1.071
 8154SOL    HW126294   9.281  14.532   0.992
 8154SOL    HW226295   9.139  14.552   1.039
 8155SOL     OW26296   4.357   1.673   3.092
 8155SOL    HW126297   4.334   1.740   3.156
 8155SOL    HW226298   4.273   1.640   3.061
 8156SOL     OW26299   5.273   5.517  12.183
 8156SOL    HW126300   5.210   5.573  12.138
 8156SOL    HW226301   5.277   5.437  12.131
 8157SOL     OW26302  13.593   0.744   5.085
 8157SOL    HW126303  13.609   0.770   5.175
 8157SOL    HW226304  13.679   0.717   5.052
 8158SOL     OW26305  12.725   6.040   2.745
 8158SOL    HW126306  12.725   5.975   2.675
 8158SOL    HW226307  12.799   6.015   2.801
 8159SOL     OW26308   6.198   4.141   8.250
 8159SOL    HW126309   6.192   4.154   8.345
 8159SOL    HW226310   6.211   4.229   8.214
 8160SOL     OW26311   6.737  14.602  13.148
 8160SOL    HW126312   6.826  14.617  13.179
 8160SOL    HW226313   6.710  14.520  13.190
 8161SOL     OW26314   6.589   7.810   2.927
 8161SOL    HW126315   6.508   7.819   2.876
 8161SOL    HW226316   6.658   7.839   2.867
 8162SOL     OW26317   6.044   0.203  13.010
 8162SOL    HW126318   6.098   0.266  13.057
 8162SOL    HW226319   5.971   0.254  12.976
 8163SOL     OW26320  10.756  13.532  12.184
 8163SOL    HW126321  10.811  13.566  12.114
 8163SOL    HW226322  10.757  13.600  12.251
 8164SOL     OW26323   9.935   4.020  12.004
 8164SOL    HW126324   9.981   3.943  11.972
 8164SOL    HW226325   9.981   4.094  11.964
 8165SOL     OW26326   1.622   0.728   7.870
 8165SOL    HW126327   1.629   0.633   7.857
 8165SOL    HW226328   1.639   0.740   7.963
 8166SOL     OW26329   7.083   9.220   8.478
 8166SOL    HW126330   7.052   9.275   8.550
 8166SOL    HW226331   7.154   9.169   8.516
 8167SOL     OW26332   1.006  11.074  12.116
 8167SOL    HW126333   1.027  10.992  12.161
 8167SOL    HW226334   0.912  11.069  12.100
 8168SOL     OW26335   9.640   0.068   1.404
 8168SOL    HW126336   9.647   0.083   1.310
 8168SOL    HW226337   9.660   0.153   1.443
 8169SOL     OW26338   4.009   1.783   1.746
 8169SOL    HW126339   4.034   1.695   1.718
 8169SOL    HW226340   4.072   1.840   1.703
 8170SOL     OW26341   8.432   6.124   6.868
 8170SOL    HW126342   8.408   6.216   6.883
 8170SOL    HW226343   8.368   6.093   6.805
 8171SOL     OW26344  10.372  12.152   1.450
 8171SOL    HW126345  10.425  12.094   1.395
 8171SOL    HW226346  10.390  12.239   1.416
 8172SOL     OW26347  10.421   6.655   2.661
 8172SOL    HW126348  10.436   6.694   2.747
 8172SOL    HW226349  10.504   6.665   2.615
 8173SOL     OW26350   8.080   0.966  10.560
 8173SOL    HW126351   8.080   0.942  10.653
 8173SOL    HW226352   8.140   1.041  10.555
 8174SOL     OW26353  10.494   2.060  14.057
 8174SOL    HW126354  10.448   2.116  13.994
 8174SOL    HW226355  10.487   1.972  14.020
 8175SOL     OW26356  14.261   1.714  14.859
 8175SOL    HW126357  14.302   1.758  14.785
 8175SOL    HW226358  14.168   1.710  14.837
 8176SOL     OW26359   5.667  11.058  11.958
 8176SOL    HW126360   5.632  11.143  11.928
 8176SOL    HW226361   5.754  11.053  11.919
 8177SOL     OW26362  12.222   5.104   1.648
 8177SOL    HW126363  12.297   5.125   1.592
 8177SOL    HW226364  12.146   5.131   1.598
 8178SOL     OW26365   3.789   5.137   5.774
 8178SOL    HW126366   3.728   5.211   5.777
 8178SOL    HW226367   3.734   5.060   5.790
 8179SOL     OW26368   3.474   7.765   1.453
 8179SOL    HW126369   3.532   7.798   1.384
 8179SOL    HW226370   3.389   7.757   1.410
 8180SOL     OW26371   8.324   3.851   9.071
 8180SOL    HW126372   8.391   3.894   9.018
 8180SOL    HW226373   8.270   3.922   9.105
 8181SOL     OW26374  13.813  13.212   0.200
 8181SOL    HW126375  13.884  13.179   0.145
 8181SOL    HW226376  13.857  13.265   0.266
 8182SOL     OW26377   6.190   4.831  13.733
 8182SOL    HW126378   6.200   4.739  13.756
 8182SOL    HW226379   6.275   4.870  13.755
 8183SOL     OW26380   2.795  11.321   1.799
 8183SOL    HW126381   2.827  11.235   1.828
 8183SOL    HW226382   2.838  11.335   1.715
 8184SOL     OW26383   2.304  13.174  10.455
 8184SOL    HW126384   2.380  13.216  10.494
 8184SOL    HW226385   2.287  13.224  10.375
 8185SOL     OW26386   6.774   0.009  13.119
 8185SOL    HW126387   6.805  14.803  13.158
 8185SOL    HW226388   6.686   0.022  13.155
 8186SOL     OW26389  13.397  14.696   7.762
 8186SOL    HW126390  13.458  14.735   7.700
 8186SOL    HW226391  13.340  14.641   7.708
 8187SOL     OW26392   1.882  10.923  10.298
 8187SOL    HW126393   1.885  10.906  10.204
 8187SOL    HW226394   1.806  10.981  10.310
 8188SOL     OW26395   9.120   6.898   5.731
 8188SOL    HW126396   9.090   6.916   5.641
 8188SOL    HW226397   9.136   6.985   5.768
 8189SOL     OW26398  12.430   7.511  10.802
 8189SOL    HW126399  12.499   7.500  10.737
 8189SOL    HW226400  12.404   7.603  10.792
 8190SOL     OW26401   6.380   4.108   9.516
 8190SOL    HW126402   6.432   4.111   9.596
 8190SOL    HW226403   6.342   4.020   9.514
 8191SOL     OW26404   2.477   6.160  12.489
 8191SOL    HW126405   2.472   6.066  12.508
 8191SOL    HW226406   2.519   6.164  12.403
 8192SOL     OW26407   0.508   8.386  14.569
 8192SOL    HW126408   0.581   8.332  14.600
 8192SOL    HW226409   0.436   8.325  14.556
 8193SOL     OW26410  10.079   7.891   6.871
 8193SOL    HW126411  10.004   7.873   6.815
 8193SOL    HW226412  10.139   7.943   6.817
 8194SOL     OW26413   7.432   1.296   8.397
 8194SOL    HW126414   7.523   1.321   8.378
 8194SOL    HW226415   7.385   1.314   8.316
 8195SOL     OW26416  10.759   1.484   8.329
 8195SOL    HW126417  10.771   1.537   8.407
 8195SOL    HW226418  10.845   1.446   8.312
 8196SOL     OW26419  12.617   6.453   3.952
 8196SOL    HW126420  12.555   6.512   3.909
 8196SOL    HW226421  12.680   6.510   3.995
 8197SOL     OW26422   0.436   0.280   4.679
 8197SOL    HW126423   0.401   0.367   4.696
 8197SOL    HW226424   0.397   0.225   4.747
 8198SOL     OW26425   4.428  12.460   0.139
 8198SOL    HW126426   4.371  12.438   0.213
 8198SOL    HW226427   4.393  12.542   0.105
 8199SOL     OW26428   7.594   0.850   6.635
 8199SOL    HW126429   7.649   0.841   6.558
 8199SOL    HW226430   7.590   0.763   6.673
 8200SOL     OW26431  12.681   6.364  12.122
 8200SOL    HW126432  12.631   6.312  12.059
 8200SOL    HW226433  12.665   6.322  12.206
 8201SOL     OW26434   4.437   0.752   8.681
 8201SOL    HW126435   4.412   0.801   8.760
 8201SOL    HW226436   4.486   0.816   8.629
 8202SOL     OW26437   0.538  10.349  10.557
 8202SOL    HW126438   0.553  10.284  10.489
 8202SOL    HW226439   0.586  10.427  10.528
 8203SOL     OW26440   5.875  11.447   7.891
 8203SOL    HW126441   5.837  11.465   7.977
 8203SOL    HW226442   5.845  11.518   7.835
 8204SOL     OW26443  14.443   9.146   5.970
 8204SOL    HW126444  14.368   9.206   5.964
 8204SOL    HW226445  14.518   9.203   5.986
 8205SOL     OW26446   6.775   5.324   6.987
 8205SOL    HW126447   6.699   5.311   7.044
 8205SOL    HW226448   6.850   5.296   7.040
 8206SOL     OW26449   0.570   8.524   0.275
 8206SOL    HW126450   0.588   8.565   0.190
 8206SOL    HW226451   0.624   8.446   0.276
 8207SOL     OW26452  10.294  10.943   0.594
 8207SOL    HW126453  10.329  10.992   0.669
 8207SOL    HW226454  10.312  10.851   0.616
 8208SOL     OW26455   3.257   5.603  14.500
 8208SOL    HW126456   3.329   5.657  14.467
 8208SOL    HW226457   3.257   5.526  14.443
 8209SOL     OW26458  13.728   4.916   0.798
 8209SOL    HW126459  13.724   5.011   0.798
 8209SOL    HW226460  13.682   4.890   0.878
 8210SOL     OW26461   5.622   0.077  10.833
 8210SOL    HW126462   5.600   0.073  10.739
 8210SOL    HW226463   5.680   0.002  10.847
 8211SOL     OW26464   5.569   4.524   6.338
 8211SOL    HW126465   5.660   4.554   6.345
 8211SOL    HW226466   5.575   4.435   6.303
 8212SOL     OW26467  13.791   9.708   5.473
 8212SOL    HW126468  13.844   9.787   5.471
 8212SOL    HW226469  13.783   9.682   5.381
 8213SOL     OW26470   7.717  12.970   3.986
 8213SOL    HW126471   7.792  13.029   3.994
 8213SOL    HW226472   7.755  12.884   3.971
 8214SOL     OW26473   1.427  13.887  14.618
 8214SOL    HW126474   1.479  13.923  14.690
 8214SOL    HW226475   1.400  13.800  14.648
 8215SOL     OW26476  12.911  10.059  12.323
 8215SOL    HW126477  12.993  10.011  12.335
 8215SOL    HW226478  12.861  10.006  12.261
 8216SOL     OW26479   2.627  14.688   2.119
 8216SOL    HW126480   2.568  14.691   2.043
 8216SOL    HW226481   2.711  14.720   2.086
 8217SOL     OW26482   5.718   3.269  12.694
 8217SOL    HW126483   5.710   3.174  12.697
 8217SOL    HW226484   5.670   3.300  12.770
 8218SOL     OW26485   7.877  12.339   6.519
 8218SOL    HW126486   7.931  12.267   6.551
 8218SOL    HW226487   7.811  12.297   6.465
 8219SOL     OW26488   5.681  13.520   1.782
 8219SOL    HW126489   5.719  13.435   1.760
 8219SOL    HW226490   5.591  13.500   1.809
 8220SOL     OW26491   8.100  12.023   2.774
 8220SOL    HW126492   8.128  12.101   2.726
 8220SOL    HW226493   8.182  11.976   2.792
 8221SOL     OW26494  11.568   9.844   0.102
 8221SOL    HW126495  11.490   9.878   0.058
 8221SOL    HW226496  11.544   9.840   0.195
 8222SOL     OW26497  10.208   8.883   9.482
 8222SOL    HW126498  10.251   8.953   9.532
 8222SOL    HW226499  10.121   8.876   9.521
 8223SOL     OW26500   2.911   0.874   9.321
 8223SOL    HW126501   2.839   0.820   9.355
 8223SOL    HW226502   2.951   0.820   9.252
 8224SOL     OW26503   4.445  12.496  10.664
 8224SOL    HW126504   4.498  12.534  10.734
 8224SOL    HW226505   4.508  12.448  10.609
 8225SOL     OW26506  11.924   6.576  12.341
 8225SOL    HW126507  11.948   6.557  12.431
 8225SOL    HW226508  11.992   6.637  12.311
 8226SOL     OW26509   4.978   2.986   7.502
 8226SOL    HW126510   4.982   2.892   7.520
 8226SOL    HW226511   5.067   3.017   7.516
 8227SOL     OW26512   5.684   3.503   4.075
 8227SOL    HW126513   5.727   3.564   4.135
 8227SOL    HW226514   5.690   3.418   4.119
 8228SOL     OW26515   1.023   0.926   4.227
 8228SOL    HW126516   1.028   1.022   4.224
 8228SOL    HW226517   1.015   0.900   4.135
 8229SOL     OW26518  14.154   9.052  13.603
 8229SOL    HW126519  14.112   8.972  13.574
 8229SOL    HW226520  14.194   9.030  13.687
 8230SOL     OW26521   8.898   7.465  12.560
 8230SOL    HW126522   8.889   7.545  12.612
 8230SOL    HW226523   8.938   7.402  12.620
 8231SOL     OW26524   1.627   2.255   6.936
 8231SOL    HW126525   1.537   2.281   6.955
 8231SOL    HW226526   1.678   2.336   6.943
 8232SOL     OW26527  11.406   8.142   4.539
 8232SOL    HW126528  11.425   8.053   4.511
 8232SOL    HW226529  11.465   8.157   4.614
 8233SOL     OW26530   0.862   9.078   9.042
 8233SOL    HW126531   0.785   9.136   9.035
 8233SOL    HW226532   0.824   8.991   9.056
 8234SOL     OW26533   8.688   6.491  11.664
 8234SOL    HW126534   8.683   6.553  11.591
 8234SOL    HW226535   8.598   6.485  11.696
 8235SOL     OW26536   1.755  12.222  13.334
 8235SOL    HW126537   1.696  12.226  13.258
 8235SOL    HW226538   1.808  12.302  13.327
 8236SOL     OW26539  11.608  10.774   7.316
 8236SOL    HW126540  11.638  10.751   7.228
 8236SOL    HW226541  11.688  10.782   7.367
 8237SOL     OW26542   2.632  13.734   0.676
 8237SOL    HW126543   2.680  13.754   0.756
 8237SOL    HW226544   2.585  13.815   0.656
 8238SOL     OW26545  13.857   6.590   7.399
 8238SOL    HW126546  13.950   6.606   7.419
 8238SOL    HW226547  13.832   6.664   7.344
 8239SOL     OW26548  11.162  10.606   0.162
 8239SOL    HW126549  11.244  10.653   0.175
 8239SOL    HW226550  11.095  10.675   0.156
 8240SOL     OW26551   2.264  11.567  13.446
 8240SOL    HW126552   2.272  11.660  13.467
 8240SOL    HW226553   2.170  11.551  13.443
 8241SOL     OW26554   6.868  12.805   7.785
 8241SOL    HW126555   6.804  12.740   7.754
 8241SOL    HW226556   6.932  12.755   7.834
 8242SOL     OW26557   8.979   6.984  11.563
 8242SOL    HW126558   9.074   6.981  11.574
 8242SOL    HW226559   8.946   6.910  11.614
 8243SOL     OW26560  14.430   7.795   4.746
 8243SOL    HW126561  14.439   7.737   4.671
 8243SOL    HW226562  14.460   7.880   4.714
 8244SOL     OW26563   5.090   6.546  14.020
 8244SOL    HW126564   5.018   6.489  14.046
 8244SOL    HW226565   5.048   6.617  13.971
 8245SOL     OW26566   1.486  11.054   9.597
 8245SOL    HW126567   1.421  11.047   9.527
 8245SOL    HW226568   1.460  11.132   9.646
 8246SOL     OW26569   3.811   5.679   9.589
 8246SOL    HW126570   3.753   5.755   9.588
 8246SOL    HW226571   3.769   5.617   9.648
 8247SOL     OW26572   6.998   9.103   4.197
 8247SOL    HW126573   6.985   9.065   4.110
 8247SOL    HW226574   7.093   9.104   4.209
 8248SOL     OW26575   3.518   6.153   5.724
 8248SOL    HW126576   3.516   6.247   5.708
 8248SOL    HW226577   3.606   6.126   5.697
 8249SOL     OW26578   6.386   9.880  13.928
 8249SOL    HW126579   6.328   9.952  13.903
 8249SOL    HW226580   6.447   9.918  13.990
 8250SOL     OW26581   8.325   1.844   4.032
 8250SOL    HW126582   8.233   1.829   4.056
 8250SOL    HW226583   8.371   1.842   4.116
 8251SOL     OW26584   8.440   4.119   7.957
 8251SOL    HW126585   8.446   4.179   7.883
 8251SOL    HW226586   8.430   4.033   7.917
 8252SOL     OW26587  10.062   8.148  13.648
 8252SOL    HW126588  10.101   8.208  13.712
 8252SOL    HW226589  10.136   8.121  13.593
 8253SOL     OW26590   7.562   0.124   2.336
 8253SOL    HW126591   7.505   0.196   2.311
 8253SOL    HW226592   7.649   0.149   2.305
 8254SOL     OW26593   0.783   2.776   9.071
 8254SOL    HW126594   0.846   2.706   9.090
 8254SOL    HW226595   0.756   2.809   9.156
 8255SOL     OW26596   9.946   8.244   1.075
 8255SOL    HW126597   9.862   8.250   1.121
 8255SOL    HW226598   9.936   8.170   1.016
 8256SOL     OW26599   7.722   1.156   6.306
 8256SOL    HW126600   7.779   1.093   6.350
 8256SOL    HW226601   7.745   1.151   6.214
 8257SOL     OW26602   3.905   5.542  10.634
 8257SOL    HW126603   3.964   5.531  10.560
 8257SOL    HW226604   3.930   5.626  10.673
 8258SOL     OW26605   9.732  12.671  13.723
 8258SOL    HW126606   9.670  12.736  13.689
 8258SOL    HW226607   9.804  12.724  13.759
 8259SOL     OW26608   3.958  11.006   3.792
 8259SOL    HW126609   3.937  11.098   3.777
 8259SOL    HW226610   3.882  10.958   3.758
 8260SOL     OW26611  11.759   3.015   9.340
 8260SOL    HW126612  11.832   3.068   9.309
 8260SOL    HW226613  11.798   2.957   9.406
 8261SOL     OW26614   6.012   2.340   4.660
 8261SOL    HW126615   5.975   2.255   4.638
 8261SOL    HW226616   5.958   2.403   4.613
 8262SOL     OW26617   3.020  13.868   0.954
 8262SOL    HW126618   3.035  13.799   1.019
 8262SOL    HW226619   3.105  13.912   0.945
 8263SOL     OW26620   8.298  10.274   4.936
 8263SOL    HW126621   8.232  10.259   5.004
 8263SOL    HW226622   8.344  10.190   4.930
 8264SOL     OW26623   5.306   0.348  10.377
 8264SOL    HW126624   5.376   0.288  10.352
 8264SOL    HW226625   5.238   0.292  10.416
 8265SOL     OW26626   5.893  10.523   8.102
 8265SOL    HW126627   5.799  10.530   8.120
 8265SOL    HW226628   5.934  10.526   8.188
 8266SOL     OW26629   3.449   8.469   8.727
 8266SOL    HW126630   3.525   8.486   8.673
 8266SOL    HW226631   3.475   8.498   8.815
 8267SOL     OW26632  14.736   3.988   8.067
 8267SOL    HW126633  14.760   4.064   8.121
 8267SOL    HW226634  14.775   3.914   8.113
 8268SOL     OW26635   6.074   8.070   5.548
 8268SOL    HW126636   6.012   7.997   5.543
 8268SOL    HW226637   6.032   8.134   5.605
 8269SOL     OW26638   6.196  14.419   8.026
 8269SOL    HW126639   6.169  14.503   7.989
 8269SOL    HW226640   6.258  14.384   7.962
 8270SOL     OW26641   8.404   7.778   6.261
 8270SOL    HW126642   8.412   7.735   6.346
 8270SOL    HW226643   8.318   7.751   6.229
 8271SOL     OW26644   4.016  11.021   1.814
 8271SOL    HW126645   3.973  11.105   1.797
 8271SOL    HW226646   3.944  10.959   1.821
 8272SOL     OW26647  13.104   2.818   4.301
 8272SOL    HW126648  13.090   2.725   4.320
 8272SOL    HW226649  13.127   2.821   4.208
 8273SOL     OW26650   7.918  13.905   2.376
 8273SOL    HW126651   7.911  13.852   2.455
 8273SOL    HW226652   7.935  13.994   2.406
 8274SOL     OW26653   1.660   7.490  14.370
 8274SOL    HW126654   1.714   7.478  14.292
 8274SOL    HW226655   1.668   7.408  14.419
 8275SOL     OW26656   8.484  11.442   1.198
 8275SOL    HW126657   8.550  11.423   1.265
 8275SOL    HW226658   8.506  11.382   1.126
 8276SOL     OW26659  12.186  14.008   8.797
 8276SOL    HW126660  12.121  13.945   8.828
 8276SOL    HW226661  12.233  13.962   8.728
 8277SOL     OW26662   3.733   2.717   9.784
 8277SOL    HW126663   3.711   2.796   9.834
 8277SOL    HW226664   3.654   2.696   9.735
 8278SOL     OW26665  12.755   2.306  14.840
 8278SOL    HW126666  12.836   2.355  14.853
 8278SOL    HW226667  12.692   2.349   0.022
 8279SOL     OW26668   7.953   9.258   8.669
 8279SOL    HW126669   7.951   9.209   8.587
 8279SOL    HW226670   7.881   9.221   8.721
 8280SOL     OW26671  13.614   5.798   1.837
 8280SOL    HW126672  13.701   5.784   1.875
 8280SOL    HW226673  13.554   5.755   1.898
 8281SOL     OW26674   9.942   3.314   6.152
 8281SOL    HW126675   9.985   3.232   6.178
 8281SOL    HW226676  10.006   3.382   6.172
 8282SOL     OW26677   1.319  13.286   2.151
 8282SOL    HW126678   1.310  13.330   2.236
 8282SOL    HW226679   1.255  13.214   2.155
 8283SOL     OW26680   7.402   0.687   4.775
 8283SOL    HW126681   7.389   0.660   4.866
 8283SOL    HW226682   7.333   0.751   4.759
 8284SOL     OW26683   0.172  13.916  11.539
 8284SOL    HW126684   0.109  13.877  11.599
 8284SOL    HW226685   0.229  13.844  11.513
 8285SOL     OW26686  10.467   4.867   9.314
 8285SOL    HW126687  10.527   4.827   9.252
 8285SOL    HW226688  10.434   4.794   9.367
 8286SOL     OW26689   6.362  12.186   1.077
 8286SOL    HW126690   6.375  12.200   1.171
 8286SOL    HW226691   6.430  12.238   1.036
 8287SOL     OW26692   2.344  13.801   6.205
 8287SOL    HW126693   2.378  13.852   6.132
 8287SOL    HW226694   2.250  13.794   6.188
 8288SOL     OW26695   7.794  12.060   4.107
 8288SOL    HW126696   7.794  11.993   4.175
 8288SOL    HW226697   7.820  12.014   4.027
 8289SOL     OW26698   3.826  12.321   3.000
 8289SOL    HW126699   3.806  12.228   3.015
 8289SOL    HW226700   3.819  12.332   2.905
 8290SOL     OW26701  14.552   0.576   2.540
 8290SOL    HW126702  14.592   0.663   2.534
 8290SOL    HW226703  14.474   0.590   2.593
 8291SOL     OW26704   3.930   5.436   0.010
 8291SOL    HW126705   4.012   5.404  14.847
 8291SOL    HW226706   3.953   5.458   0.100
 8292SOL     OW26707   4.962   5.043   5.046
 8292SOL    HW126708   5.055   5.063   5.043
 8292SOL    HW226709   4.926   5.104   5.111
 8293SOL     OW26710   3.788   6.533   9.050
 8293SOL    HW126711   3.702   6.538   9.008
 8293SOL    HW226712   3.806   6.439   9.055
 8294SOL     OW26713   8.871   2.210  12.345
 8294SOL    HW126714   8.958   2.170  12.340
 8294SOL    HW226715   8.823   2.157  12.409
 8295SOL     OW26716  10.791   0.225   1.944
 8295SOL    HW126717  10.748   0.244   1.861
 8295SOL    HW226718  10.723   0.238   2.010
 8296SOL     OW26719   5.127  10.516   2.057
 8296SOL    HW126720   5.086  10.540   1.974
 8296SOL    HW226721   5.215  10.554   2.053
 8297SOL     OW26722   5.345  12.223   8.233
 8297SOL    HW126723   5.391  12.249   8.153
 8297SOL    HW226724   5.317  12.132   8.216
 8298SOL     OW26725   3.437   6.909   7.998
 8298SOL    HW126726   3.357   6.863   7.970
 8298SOL    HW226727   3.473   6.946   7.918
 8299SOL     OW26728  13.788   1.309   2.727
 8299SOL    HW126729  13.741   1.310   2.644
 8299SOL    HW226730  13.832   1.223   2.729
 8300SOL     OW26731   8.621   3.171  12.877
 8300SOL    HW126732   8.612   3.173  12.972
 8300SOL    HW226733   8.570   3.094  12.850
 8301SOL     OW26734   5.831   7.209   6.825
 8301SOL    HW126735   5.882   7.283   6.858
 8301SOL    HW226736   5.771   7.188   6.897
 8302SOL     OW26737   4.712   9.805   0.120
 8302SOL    HW126738   4.721   9.900   0.128
 8302SOL    HW226739   4.618   9.789   0.131
 8303SOL     OW26740   4.949   1.386   4.421
 8303SOL    HW126741   4.880   1.440   4.382
 8303SOL    HW226742   4.901   1.320   4.471
 8304SOL     OW26743   4.901   2.043   9.731
 8304SOL    HW126744   4.964   2.042   9.659
 8304SOL    HW226745   4.890   2.136   9.752
 8305SOL     OW26746   4.704   8.243  12.801
 8305SOL    HW126747   4.696   8.329  12.758
 8305SOL    HW226748   4.650   8.185  12.749
 8306SOL     OW26749   7.834   3.849   8.307
 8306SOL    HW126750   7.822   3.901   8.386
 8306SOL    HW226751   7.870   3.910   8.243
 8307SOL     OW26752  14.153   1.472   1.889
 8307SOL    HW126753  14.248   1.462   1.888
 8307SOL    HW226754  14.123   1.425   1.811
 8308SOL     OW26755   7.136   6.133   4.131
 8308SOL    HW126756   7.089   6.216   4.128
 8308SOL    HW226757   7.229   6.158   4.129
 8309SOL     OW26758   5.805  12.638   6.917
 8309SOL    HW126759   5.901  12.643   6.913
 8309SOL    HW226760   5.786  12.545   6.928
 8310SOL     OW26761   8.720  12.824  11.761
 8310SOL    HW126762   8.703  12.898  11.820
 8310SOL    HW226763   8.719  12.863  11.674
 8311SOL     OW26764  12.135  11.771   7.845
 8311SOL    HW126765  12.197  11.778   7.773
 8311SOL    HW226766  12.189  11.751   7.922
 8312SOL     OW26767  14.243  12.241   3.526
 8312SOL    HW126768  14.172  12.204   3.473
 8312SOL    HW226769  14.270  12.320   3.480
 8313SOL     OW26770   6.569   1.867  12.298
 8313SOL    HW126771   6.638   1.823  12.248
 8313SOL    HW226772   6.559   1.952  12.255
 8314SOL     OW26773  10.320   1.887   6.661
 8314SOL    HW126774  10.249   1.951   6.659
 8314SOL    HW226775  10.367   1.901   6.578
 8315SOL     OW26776   9.965  10.165   3.497
 8315SOL    HW126777   9.975  10.220   3.575
 8315SOL    HW226778   9.870  10.160   3.484
 8316SOL     OW26779   6.256  10.053   8.037
 8316SOL    HW126780   6.210  10.137   8.048
 8316SOL    HW226781   6.251  10.012   8.123
 8317SOL     OW26782   1.872  11.167  14.560
 8317SOL    HW126783   1.815  11.102  14.602
 8317SOL    HW226784   1.819  11.247  14.558
 8318SOL     OW26785   8.091   4.693  13.046
 8318SOL    HW126786   8.107   4.743  13.126
 8318SOL    HW226787   7.999   4.710  13.026
 8319SOL     OW26788  10.520  13.740   1.542
 8319SOL    HW126789  10.432  13.713   1.517
 8319SOL    HW226790  10.545  13.680   1.612
 8320SOL     OW26791   1.497   8.416   0.153
 8320SOL    HW126792   1.402   8.423   0.148
 8320SOL    HW226793   1.521   8.359   0.080
 8321SOL     OW26794  11.844   4.335   5.936
 8321SOL    HW126795  11.792   4.310   5.859
 8321SOL    HW226796  11.933   4.343   5.902
 8322SOL     OW26797   1.291   1.668  10.520
 8322SOL    HW126798   1.365   1.728  10.511
 8322SOL    HW226799   1.290   1.646  10.613
 8323SOL     OW26800  11.390   6.501  13.078
 8323SOL    HW126801  11.475   6.539  13.101
 8323SOL    HW226802  11.404   6.464  12.990
 8324SOL     OW26803   7.790   9.363   5.809
 8324SOL    HW126804   7.773   9.272   5.781
 8324SOL    HW226805   7.704   9.394   5.839
 8325SOL     OW26806   9.709   8.102   2.810
 8325SOL    HW126807   9.741   8.111   2.720
 8325SOL    HW226808   9.778   8.056   2.856
 8326SOL     OW26809   5.360  11.427  10.684
 8326SOL    HW126810   5.401  11.348  10.720
 8326SOL    HW226811   5.424  11.496  10.699
 8327SOL     OW26812   9.643  13.146  13.317
 8327SOL    HW126813   9.626  13.163  13.409
 8327SOL    HW226814   9.712  13.079  13.318
 8328SOL     OW26815   3.288   9.918   2.276
 8328SOL    HW126816   3.308   9.973   2.200
 8328SOL    HW226817   3.341   9.953   2.347
 8329SOL     OW26818   2.411  12.885  13.748
 8329SOL    HW126819   2.500  12.853  13.732
 8329SOL    HW226820   2.381  12.832  13.822
 8330SOL     OW26821  11.958  14.497   4.944
 8330SOL    HW126822  11.961  14.411   4.902
 8330SOL    HW226823  12.025  14.494   5.012
 8331SOL     OW26824   9.014   6.577   7.669
 8331SOL    HW126825   9.091   6.621   7.633
 8331SOL    HW226826   8.949   6.580   7.599
 8332SOL     OW26827   9.397   5.857   6.583
 8332SOL    HW126828   9.389   5.774   6.631
 8332SOL    HW226829   9.471   5.844   6.524
 8333SOL     OW26830   8.371   9.485  14.626
 8333SOL    HW126831   8.430   9.423  14.668
 8333SOL    HW226832   8.297   9.492  14.686
 8334SOL     OW26833   2.661   2.591   6.052
 8334SOL    HW126834   2.739   2.584   6.106
 8334SOL    HW226835   2.677   2.531   5.979
 8335SOL     OW26836   3.773   4.074   8.983
 8335SOL    HW126837   3.757   4.103   8.893
 8335SOL    HW226838   3.839   4.005   8.975
 8336SOL     OW26839   6.506   2.912   8.753
 8336SOL    HW126840   6.415   2.905   8.782
 8336SOL    HW226841   6.524   2.829   8.709
 8337SOL     OW26842  14.431  14.362  11.792
 8337SOL    HW126843  14.479  14.408  11.724
 8337SOL    HW226844  14.491  14.358  11.866
 8338SOL     OW26845   7.758  11.658   1.476
 8338SOL    HW126846   7.747  11.628   1.566
 8338SOL    HW226847   7.841  11.706   1.476
 8339SOL     OW26848  12.750   6.771   7.723
 8339SOL    HW126849  12.674   6.716   7.709
 8339SOL    HW226850  12.820   6.730   7.673
 8340SOL     OW26851   7.578   0.912  13.978
 8340SOL    HW126852   7.633   0.841  14.011
 8340SOL    HW226853   7.605   0.924  13.888
 8341SOL     OW26854   4.856  13.009  12.263
 8341SOL    HW126855   4.823  13.096  12.239
 8341SOL    HW226856   4.839  12.955  12.186
 8342SOL     OW26857  11.718   9.893   3.319
 8342SOL    HW126858  11.628   9.880   3.288
 8342SOL    HW226859  11.735   9.986   3.303
 8343SOL     OW26860   9.700  10.486   8.291
 8343SOL    HW126861   9.703  10.468   8.385
 8343SOL    HW226862   9.783  10.450   8.257
 8344SOL     OW26863   0.676  12.981   0.431
 8344SOL    HW126864   0.581  12.992   0.434
 8344SOL    HW226865   0.689  12.890   0.406
 8345SOL     OW26866   5.908   7.695   3.983
 8345SOL    HW126867   5.816   7.680   4.003
 8345SOL    HW226868   5.942   7.608   3.963
 8346SOL     OW26869   9.833   3.469   9.050
 8346SOL    HW126870   9.901   3.483   9.115
 8346SOL    HW226871   9.778   3.399   9.087
 8347SOL     OW26872  10.124  10.512   8.256
 8347SOL    HW126873  10.087  10.585   8.206
 8347SOL    HW226874  10.064  10.439   8.240
 8348SOL     OW26875   5.555   8.538   8.958
 8348SOL    HW126876   5.504   8.461   8.985
 8348SOL    HW226877   5.603   8.563   9.037
 8349SOL     OW26878   9.631   8.770   9.280
 8349SOL    HW126879   9.706   8.784   9.222
 8349SOL    HW226880   9.556   8.803   9.231
 8350SOL     OW26881   3.323  14.453   5.444
 8350SOL    HW126882   3.390  14.517   5.420
 8350SOL    HW226883   3.286  14.487   5.525
 8351SOL     OW26884   6.525  10.249   1.411
 8351SOL    HW126885   6.599  10.205   1.370
 8351SOL    HW226886   6.448  10.218   1.363
 8352SOL     OW26887   2.429   2.410  12.620
 8352SOL    HW126888   2.504   2.404  12.560
 8352SOL    HW226889   2.433   2.500  12.653
 8353SOL     OW26890  13.785   1.689   4.035
 8353SOL    HW126891  13.821   1.600   4.036
 8353SOL    HW226892  13.782   1.713   3.942
 8354SOL     OW26893   5.415   4.885  11.888
 8354SOL    HW126894   5.426   4.961  11.945
 8354SOL    HW226895   5.448   4.914  11.803
 8355SOL     OW26896   0.001  12.394   4.156
 8355SOL    HW126897   0.096  12.388   4.170
 8355SOL    HW226898  14.866  12.382   4.062
 8356SOL     OW26899   8.530   1.328   4.431
 8356SOL    HW126900   8.571   1.297   4.350
 8356SOL    HW226901   8.551   1.422   4.434
 8357SOL     OW26902  13.775   2.420  12.658
 8357SOL    HW126903  13.690   2.378  12.669
 8357SOL    HW226904  13.826   2.358  12.605
 8358SOL     OW26905   8.365   7.635   6.478
 8358SOL    HW126906   8.288   7.685   6.505
 8358SOL    HW226907   8.376   7.569   6.546
 8359SOL     OW26908  11.379  12.350   7.288
 8359SOL    HW126909  11.470  12.321   7.276
 8359SOL    HW226910  11.335  12.274   7.327
 8360SOL     OW26911  13.667   9.314   3.214
 8360SOL    HW126912  13.683   9.241   3.275
 8360SOL    HW226913  13.663   9.391   3.271
 8361SOL     OW26914   0.491   8.779   1.263
 8361SOL    HW126915   0.413   8.764   1.209
 8361SOL    HW226916   0.562   8.736   1.216
 8362SOL     OW26917   8.708  11.452   9.818
 8362SOL    HW126918   8.801  11.473   9.819
 8362SOL    HW226919   8.681  11.453   9.910
 8363SOL     OW26920  12.119   0.569  14.188
 8363SOL    HW126921  12.078   0.484  14.204
 8363SOL    HW226922  12.060   0.614  14.128
 8364SOL     OW26923   8.444   8.591   7.580
 8364SOL    HW126924   8.487   8.559   7.501
 8364SOL    HW226925   8.405   8.675   7.554
 8365SOL     OW26926  13.056  11.415  11.007
 8365SOL    HW126927  12.999  11.492  11.010
 8365SOL    HW226928  13.139  11.449  10.972
 8366SOL     OW26929   2.526   4.687   0.786
 8366SOL    HW126930   2.517   4.708   0.879
 8366SOL    HW226931   2.606   4.732   0.758
 8367SOL     OW26932  10.317   8.269   9.528
 8367SOL    HW126933  10.383   8.201   9.514
 8367SOL    HW226934  10.242   8.241   9.476
 8368SOL     OW26935   2.363  14.596  14.107
 8368SOL    HW126936   2.332  14.687  14.108
 8368SOL    HW226937   2.389  14.580  14.016
 8369SOL     OW26938   4.195   3.642   5.026
 8369SOL    HW126939   4.289   3.624   5.032
 8369SOL    HW226940   4.156   3.596   5.101
 8370SOL     OW26941   8.233   0.873   2.177
 8370SOL    HW126942   8.296   0.803   2.196
 8370SOL    HW226943   8.267   0.916   2.100
 8371SOL     OW26944  10.348   8.466  12.565
 8371SOL    HW126945  10.350   8.371  12.568
 8371SOL    HW226946  10.326   8.486  12.474
 8372SOL     OW26947   8.004   4.881  11.540
 8372SOL    HW126948   8.037   4.792  11.528
 8372SOL    HW226949   7.999   4.918  11.452
 8373SOL     OW26950  12.071  12.409   5.450
 8373SOL    HW126951  12.073  12.347   5.523
 8373SOL    HW226952  12.117  12.364   5.379
 8374SOL     OW26953   4.082   3.080   7.362
 8374SOL    HW126954   4.002   3.028   7.353
 8374SOL    HW226955   4.113   3.091   7.272
 8375SOL     OW26956  11.327   0.866   1.124
 8375SOL    HW126957  11.275   0.845   1.202
 8375SOL    HW226958  11.276   0.831   1.051
 8376SOL     OW26959  10.792  13.566   2.936
 8376SOL    HW126960  10.831  13.648   2.905
 8376SOL    HW226961  10.796  13.508   2.860
 8377SOL     OW26962   1.848  11.407   3.898
 8377SOL    HW126963   1.779  11.407   3.965
 8377SOL    HW226964   1.882  11.317   3.900
 8378SOL     OW26965   0.260  10.597  10.854
 8378SOL    HW126966   0.338  10.543  10.848
 8378SOL    HW226967   0.285  10.669  10.912
 8379SOL     OW26968   5.936   9.768   9.874
 8379SOL    HW126969   6.019   9.754   9.920
 8379SOL    HW226970   5.963   9.800   9.787
 8380SOL     OW26971   9.668   2.383  11.112
 8380SOL    HW126972   9.691   2.303  11.066
 8380SOL    HW226973   9.623   2.353  11.191
 8381SOL     OW26974  10.350   9.894  11.079
 8381SOL    HW126975  10.297   9.967  11.048
 8381SOL    HW226976  10.303   9.861  11.155
 8382SOL     OW26977  14.666   9.795   2.474
 8382SOL    HW126978  14.604   9.737   2.429
 8382SOL    HW226979  14.642   9.883   2.445
 8383SOL     OW26980  10.901   8.877   1.848
 8383SOL    HW126981  10.893   8.830   1.765
 8383SOL    HW226982  10.956   8.820   1.902
 8384SOL     OW26983  13.609   1.374  12.544
 8384SOL    HW126984  13.690   1.331  12.519
 8384SOL    HW226985  13.623   1.467  12.525
 8385SOL     OW26986   8.382   8.951   5.041
 8385SOL    HW126987   8.417   9.036   5.069
 8385SOL    HW226988   8.354   8.909   5.122
 8386SOL     OW26989   9.019   1.230  14.041
 8386SOL    HW126990   9.026   1.212  13.947
 8386SOL    HW226991   8.935   1.191  14.066
 8387SOL     OW26992   6.702  11.958   6.028
 8387SOL    HW126993   6.784  11.996   6.062
 8387SOL    HW226994   6.709  11.865   6.047
 8388SOL     OW26995   7.577   6.419  12.596
 8388SOL    HW126996   7.627   6.491  12.635
 8388SOL    HW226997   7.512   6.461  12.541
 8389SOL     OW26998  14.827   3.389  12.968
 8389SOL    HW126999  14.827   3.294  12.980
 8389SOL    HW227000   0.042   3.414  12.978
 8390SOL     OW27001  11.252  13.373  11.678
 8390SOL    HW127002  11.287  13.371  11.588
 8390SOL    HW227003  11.210  13.287  11.689
 8391SOL     OW27004   3.179   6.942  12.782
 8391SOL    HW127005   3.229   6.875  12.735
 8391SOL    HW227006   3.167   6.907  12.870
 8392SOL     OW27007  13.004   2.513   8.809
 8392SOL    HW127008  13.041   2.429   8.780
 8392SOL    HW227009  13.046   2.578   8.753
 8393SOL     OW27010   3.547   3.298   2.654
 8393SOL    HW127011   3.568   3.375   2.706
 8393SOL    HW227012   3.484   3.329   2.588
 8394SOL     OW27013  11.655   2.392   2.443
 8394SOL    HW127014  11.582   2.336   2.470
 8394SOL    HW227015  11.624   2.481   2.460
 8395SOL     OW27016  11.227   4.195   3.798
 8395SOL    HW127017  11.243   4.286   3.824
 8395SOL    HW227018  11.213   4.148   3.880
 8396SOL     OW27019   9.001  12.401  11.865
 8396SOL    HW127020   9.040  12.377  11.781
 8396SOL    HW227021   8.907  12.393  11.850
 8397SOL     OW27022   8.697   1.034   9.773
 8397SOL    HW127023   8.640   1.110   9.775
 8397SOL    HW227024   8.779   1.067   9.735
 8398SOL     OW27025   5.210  13.977  13.238
 8398SOL    HW127026   5.296  13.939  13.254
 8398SOL    HW227027   5.218  14.068  13.266
 8399SOL     OW27028  10.628  11.908   8.271
 8399SOL    HW127029  10.717  11.928   8.242
 8399SOL    HW227030  10.597  11.841   8.210
 8400SOL     OW27031   4.043   5.839  14.477
 8400SOL    HW127032   4.094   5.854  14.398
 8400SOL    HW227033   4.026   5.927  14.511
 8401SOL     OW27034  10.978  12.595   9.789
 8401SOL    HW127035  11.008  12.520   9.738
 8401SOL    HW227036  10.900  12.563   9.835
 8402SOL     OW27037   5.752   6.674  14.048
 8402SOL    HW127038   5.705   6.591  14.057
 8402SOL    HW227039   5.718   6.729  14.118
 8403SOL     OW27040   5.277   3.730   2.258
 8403SOL    HW127041   5.366   3.723   2.223
 8403SOL    HW227042   5.279   3.675   2.337
 8404SOL     OW27043   9.213   0.650   8.536
 8404SOL    HW127044   9.248   0.712   8.600
 8404SOL    HW227045   9.279   0.580   8.532
 8405SOL     OW27046   6.222  10.326   0.821
 8405SOL    HW127047   6.131  10.318   0.790
 8405SOL    HW227048   6.231  10.259   0.888
 8406SOL     OW27049  14.352   7.642  11.180
 8406SOL    HW127050  14.327   7.550  11.178
 8406SOL    HW227051  14.333   7.671  11.269
 8407SOL     OW27052  11.710   3.401  11.576
 8407SOL    HW127053  11.665   3.485  11.573
 8407SOL    HW227054  11.712   3.372  11.485
 8408SOL     OW27055  12.989   0.762   0.918
 8408SOL    HW127056  13.079   0.757   0.885
 8408SOL    HW227057  12.950   0.835   0.870
 8409SOL     OW27058   6.155   9.178   4.136
 8409SOL    HW127059   6.150   9.266   4.099
 8409SOL    HW227060   6.248   9.156   4.135
 8410SOL     OW27061   8.571  11.160   6.163
 8410SOL    HW127062   8.638  11.108   6.119
 8410SOL    HW227063   8.586  11.249   6.130
 8411SOL     OW27064   6.878   2.330   7.376
 8411SOL    HW127065   6.795   2.312   7.332
 8411SOL    HW227066   6.883   2.266   7.447
 8412SOL     OW27067  11.177   5.453   2.385
 8412SOL    HW127068  11.085   5.443   2.407
 8412SOL    HW227069  11.181   5.436   2.291
 8413SOL     OW27070   2.798   9.739   5.462
 8413SOL    HW127071   2.891   9.740   5.484
 8413SOL    HW227072   2.795   9.753   5.367
 8414SOL     OW27073   6.612  11.684  13.881
 8414SOL    HW127074   6.568  11.616  13.831
 8414SOL    HW227075   6.578  11.766  13.845
 8415SOL     OW27076   7.448   8.052   3.850
 8415SOL    HW127077   7.368   8.014   3.886
 8415SOL    HW227078   7.519   8.001   3.889
 8416SOL     OW27079   1.498  10.014  14.212
 8416SOL    HW127080   1.592  10.032  14.216
 8416SOL    HW227081   1.487   9.932  14.261
 8417SOL     OW27082  14.550  11.875   7.861
 8417SOL    HW127083  14.457  11.886   7.840
 8417SOL    HW227084  14.554  11.791   7.908
 8418SOL     OW27085  10.678   5.536  14.067
 8418SOL    HW127086  10.742   5.471  14.097
 8418SOL    HW227087  10.603   5.485  14.039
 8419SOL     OW27088   9.836   0.996  11.131
 8419SOL    HW127089   9.790   0.927  11.084
 8419SOL    HW227090   9.789   1.077  11.109
 8420SOL     OW27091   3.070  10.738  14.099
 8420SOL    HW127092   3.138  10.767  14.039
 8420SOL    HW227093   3.014  10.681  14.047
 8421SOL     OW27094   3.145   2.149   3.683
 8421SOL    HW127095   3.138   2.057   3.708
 8421SOL    HW227096   3.172   2.194   3.763
 8422SOL     OW27097  14.505  13.218   2.541
 8422SOL    HW127098  14.431  13.258   2.496
 8422SOL    HW227099  14.574  13.285   2.539
 8423SOL     OW27100   3.378   9.863   7.080
 8423SOL    HW127101   3.464   9.874   7.121
 8423SOL    HW227102   3.372   9.770   7.062
 8424SOL     OW27103   7.844  14.750  13.924
 8424SOL    HW127104   7.872  14.807  13.852
 8424SOL    HW227105   7.911  14.681  13.927
 8425SOL     OW27106  12.364   0.822   5.100
 8425SOL    HW127107  12.370   0.769   5.179
 8425SOL    HW227108  12.425   0.895   5.115
 8426SOL     OW27109   7.847  12.708   7.677
 8426SOL    HW127110   7.852  12.699   7.582
 8426SOL    HW227111   7.773  12.767   7.692
 8427SOL     OW27112  12.047  11.141  11.295
 8427SOL    HW127113  11.972  11.176  11.342
 8427SOL    HW227114  12.033  11.170  11.204
 8428SOL     OW27115   0.270  13.637  14.683
 8428SOL    HW127116   0.192  13.691  14.700
 8428SOL    HW227117   0.317  13.685  14.615
 8429SOL     OW27118   1.596  11.344   8.688
 8429SOL    HW127119   1.595  11.377   8.598
 8429SOL    HW227120   1.671  11.388   8.729
 8430SOL     OW27121   9.974  11.317   8.791
 8430SOL    HW127122  10.067  11.295   8.785
 8430SOL    HW227123   9.945  11.278   8.873
 8431SOL     OW27124   8.225   1.438   7.112
 8431SOL    HW127125   8.188   1.495   7.046
 8431SOL    HW227126   8.194   1.350   7.089
 8432SOL     OW27127  12.094  10.668  11.478
 8432SOL    HW127128  12.084  10.762  11.461
 8432SOL    HW227129  12.125  10.664  11.568
 8433SOL     OW27130   5.417   4.736   1.848
 8433SOL    HW127131   5.492   4.757   1.792
 8433SOL    HW227132   5.409   4.641   1.843
 8434SOL     OW27133   7.717  11.785   6.707
 8434SOL    HW127134   7.655  11.729   6.660
 8434SOL    HW227135   7.774  11.723   6.753
 8435SOL     OW27136   0.806   1.810  12.684
 8435SOL    HW127137   0.883   1.788  12.630
 8435SOL    HW227138   0.735   1.758  12.646
 8436SOL     OW27139   6.321   5.401   1.106
 8436SOL    HW127140   6.245   5.416   1.050
 8436SOL    HW227141   6.383   5.469   1.079
 8437SOL     OW27142   3.302   5.648   4.832
 8437SOL    HW127143   3.274   5.593   4.759
 8437SOL    HW227144   3.227   5.650   4.891
 8438SOL     OW27145   1.087   3.417   3.215
 8438SOL    HW127146   1.015   3.355   3.209
 8438SOL    HW227147   1.091   3.457   3.128
 8439SOL     OW27148   5.061  11.329   9.527
 8439SOL    HW127149   5.071  11.237   9.551
 8439SOL    HW227150   5.150  11.362   9.516
 8440SOL     OW27151   8.574   0.687   3.215
 8440SOL    HW127152   8.571   0.643   3.130
 8440SOL    HW227153   8.542   0.622   3.277
 8441SOL     OW27154   4.777  12.773   9.762
 8441SOL    HW127155   4.712  12.837   9.732
 8441SOL    HW227156   4.749  12.690   9.723
 8442SOL     OW27157  13.691   2.715   4.151
 8442SOL    HW127158  13.739   2.632   4.150
 8442SOL    HW227159  13.696   2.745   4.242
 8443SOL     OW27160   8.770   9.832  12.785
 8443SOL    HW127161   8.741   9.839  12.875
 8443SOL    HW227162   8.691   9.845  12.732
 8444SOL     OW27163   7.696   8.812   0.916
 8444SOL    HW127164   7.603   8.813   0.939
 8444SOL    HW227165   7.700   8.856   0.831
 8445SOL     OW27166  13.632   4.744  10.341
 8445SOL    HW127167  13.706   4.684  10.336
 8445SOL    HW227168  13.554   4.687  10.339
 8446SOL     OW27169  10.911   5.503   3.933
 8446SOL    HW127170  10.929   5.486   4.025
 8446SOL    HW227171  10.994   5.483   3.889
 8447SOL     OW27172   6.016  11.101   5.768
 8447SOL    HW127173   6.022  11.027   5.708
 8447SOL    HW227174   6.044  11.066   5.853
 8448SOL     OW27175  14.728  13.363   8.677
 8448SOL    HW127176  14.657  13.308   8.709
 8448SOL    HW227177  14.761  13.408   8.756
 8449SOL     OW27178   9.715   3.133   2.572
 8449SOL    HW127179   9.779   3.061   2.571
 8449SOL    HW227180   9.633   3.093   2.545
 8450SOL     OW27181   8.196  10.987   2.279
 8450SOL    HW127182   8.112  11.024   2.307
 8450SOL    HW227183   8.172  10.915   2.221
 8451SOL     OW27184   5.212   7.203   1.777
 8451SOL    HW127185   5.205   7.264   1.703
 8451SOL    HW227186   5.203   7.117   1.737
 8452SOL     OW27187   0.403  12.648  13.886
 8452SOL    HW127188   0.478  12.708  13.886
 8452SOL    HW227189   0.407  12.605  13.801
 8453SOL     OW27190  12.802  12.262  10.600
 8453SOL    HW127191  12.869  12.286  10.535
 8453SOL    HW227192  12.819  12.320  10.674
 8454SOL     OW27193   9.278  12.880   1.919
 8454SOL    HW127194   9.269  12.938   1.995
 8454SOL    HW227195   9.357  12.909   1.875
 8455SOL     OW27196   1.898  11.539  10.090
 8455SOL    HW127197   1.966  11.493  10.040
 8455SOL    HW227198   1.910  11.509  10.180
 8456SOL     OW27199   2.286   1.553  12.552
 8456SOL    HW127200   2.344   1.626  12.533
 8456SOL    HW227201   2.244   1.534  12.468
 8457SOL     OW27202   3.071  11.252   3.080
 8457SOL    HW127203   3.122  11.309   3.021
 8457SOL    HW227204   3.042  11.180   3.024
 8458SOL     OW27205   0.111   0.804   6.520
 8458SOL    HW127206   0.201   0.793   6.550
 8458SOL    HW227207   0.078   0.715   6.510
 8459SOL     OW27208  13.261  13.016  14.359
 8459SOL    HW127209  13.234  12.961  14.432
 8459SOL    HW227210  13.201  12.992  14.288
 8460SOL     OW27211  11.577   1.128   6.845
 8460SOL    HW127212  11.652   1.171   6.804
 8460SOL    HW227213  11.505   1.142   6.783
 8461SOL     OW27214   4.821   1.286  12.635
 8461SOL    HW127215   4.794   1.231  12.561
 8461SOL    HW227216   4.881   1.350  12.597
 8462SOL     OW27217  10.651   4.009   4.811
 8462SOL    HW127218  10.684   3.949   4.743
 8462SOL    HW227219  10.566   3.973   4.836
 8463SOL     OW27220   5.552   6.093  10.070
 8463SOL    HW127221   5.607   6.164  10.036
 8463SOL    HW227222   5.582   6.015  10.022
 8464SOL     OW27223  12.301   7.133   0.309
 8464SOL    HW127224  12.373   7.074   0.333
 8464SOL    HW227225  12.222   7.086   0.335
 8465SOL     OW27226   0.136   7.969   0.769
 8465SOL    HW127227   0.098   8.014   0.845
 8465SOL    HW227228   0.231   7.977   0.782
 8466SOL     OW27229   6.080  13.343  14.583
 8466SOL    HW127230   6.103  13.279  14.650
 8466SOL    HW227231   6.127  13.314  14.504
 8467SOL     OW27232   8.513   2.766   8.449
 8467SOL    HW127233   8.451   2.830   8.484
 8467SOL    HW227234   8.486   2.755   8.358
 8468SOL     OW27235   8.141   1.063  14.062
 8468SOL    HW127236   8.160   1.157  14.062
 8468SOL    HW227237   8.113   1.045  13.972
 8469SOL     OW27238   0.929   9.878   5.546
 8469SOL    HW127239   1.014   9.847   5.579
 8469SOL    HW227240   0.917   9.831   5.464
 8470SOL     OW27241   1.652   5.688   3.153
 8470SOL    HW127242   1.648   5.751   3.225
 8470SOL    HW227243   1.561   5.675   3.127
 8471SOL     OW27244   6.643  11.087   6.049
 8471SOL    HW127245   6.730  11.078   6.008
 8471SOL    HW227246   6.656  11.152   6.117
 8472SOL     OW27247   4.211   8.350   0.912
 8472SOL    HW127248   4.190   8.406   0.837
 8472SOL    HW227249   4.266   8.404   0.968
 8473SOL     OW27250   3.189   4.947  13.395
 8473SOL    HW127251   3.202   4.957  13.489
 8473SOL    HW227252   3.114   5.004  13.376
 8474SOL     OW27253   3.402   2.843   2.601
 8474SOL    HW127254   3.407   2.904   2.674
 8474SOL    HW227255   3.308   2.827   2.589
 8475SOL     OW27256   0.055   1.097   1.424
 8475SOL    HW127257   0.098   1.176   1.456
 8475SOL    HW227258   0.009   1.062   1.500
 8476SOL     OW27259  10.589   0.190   4.407
 8476SOL    HW127260  10.507   0.227   4.375
 8476SOL    HW227261  10.577   0.182   4.502
 8477SOL     OW27262   7.358  14.042  12.397
 8477SOL    HW127263   7.368  14.014  12.488
 8477SOL    HW227264   7.373  14.137  12.399
 8478SOL     OW27265  12.472   0.030   6.651
 8478SOL    HW127266  12.448   0.059   6.563
 8478SOL    HW227267  12.562  14.874   6.642
 8479SOL     OW27268   8.337  12.169   9.165
 8479SOL    HW127269   8.348  12.074   9.155
 8479SOL    HW227270   8.417  12.207   9.128
 8480SOL     OW27271   5.009   6.733   5.009
 8480SOL    HW127272   5.077   6.680   4.969
 8480SOL    HW227273   4.966   6.674   5.071
 8481SOL     OW27274   9.789  13.109   0.598
 8481SOL    HW127275   9.730  13.094   0.524
 8481SOL    HW227276   9.787  13.027   0.647
 8482SOL     OW27277   6.129  11.130  10.677
 8482SOL    HW127278   6.217  11.147  10.710
 8482SOL    HW227279   6.126  11.176  10.592
 8483SOL     OW27280  11.935   3.175   6.756
 8483SOL    HW127281  11.951   3.268   6.740
 8483SOL    HW227282  11.996   3.130   6.698
 8484SOL     OW27283  13.653  12.511  10.679
 8484SOL    HW127284  13.673  12.420  10.700
 8484SOL    HW227285  13.569  12.508  10.633
 8485SOL     OW27286  12.086   0.918   3.202
 8485SOL    HW127287  12.074   0.916   3.297
 8485SOL    HW227288  12.018   0.978   3.170
 8486SOL     OW27289   9.050   3.954   5.453
 8486SOL    HW127290   8.992   4.013   5.405
 8486SOL    HW227291   9.095   4.010   5.516
 8487SOL     OW27292   6.654   1.848   0.297
 8487SOL    HW127293   6.606   1.854   0.215
 8487SOL    HW227294   6.624   1.922   0.349
 8488SOL     OW27295  14.580   7.592  14.116
 8488SOL    HW127296  14.518   7.518  14.120
 8488SOL    HW227297  14.529   7.667  14.147
 8489SOL     OW27298   3.747   6.146   4.345
 8489SOL    HW127299   3.801   6.223   4.326
 8489SOL    HW227300   3.810   6.076   4.362
 8490SOL     OW27301   5.742   8.612   2.874
 8490SOL    HW127302   5.708   8.534   2.917
 8490SOL    HW227303   5.792   8.658   2.942
 8491SOL     OW27304  10.809   2.105  12.462
 8491SOL    HW127305  10.873   2.097  12.534
 8491SOL    HW227306  10.861   2.133  12.387
 8492SOL     OW27307   4.608   8.411   7.535
 8492SOL    HW127308   4.653   8.346   7.589
 8492SOL    HW227309   4.677   8.446   7.478
 8493SOL     OW27310   2.050   4.316   4.026
 8493SOL    HW127311   2.141   4.296   4.000
 8493SOL    HW227312   2.027   4.245   4.086
 8494SOL     OW27313   1.808   2.411  13.316
 8494SOL    HW127314   1.901   2.400  13.300
 8494SOL    HW227315   1.771   2.323  13.312
 8495SOL     OW27316   7.551   8.773   2.204
 8495SOL    HW127317   7.499   8.776   2.285
 8495SOL    HW227318   7.489   8.745   2.137
 8496SOL     OW27319   5.490   2.536  13.034
 8496SOL    HW127320   5.477   2.623  12.996
 8496SOL    HW227321   5.402   2.507  13.057
 8497SOL     OW27322  12.012   9.197   5.946
 8497SOL    HW127323  11.991   9.205   5.852
 8497SOL    HW227324  11.969   9.116   5.973
 8498SOL     OW27325   0.976   7.374   8.974
 8498SOL    HW127326   1.018   7.432   9.038
 8498SOL    HW227327   1.048   7.344   8.918
 8499SOL     OW27328   1.454  12.074  12.468
 8499SOL    HW127329   1.439  12.090  12.374
 8499SOL    HW227330   1.377  12.025  12.497
 8500SOL     OW27331  13.810  11.697   1.675
 8500SOL    HW127332  13.848  11.741   1.751
 8500SOL    HW227333  13.882  11.695   1.611
 8501SOL     OW27334   6.727   4.571  12.847
 8501SOL    HW127335   6.791   4.625  12.892
 8501SOL    HW227336   6.652   4.629  12.833
 8502SOL     OW27337  10.964   0.504  13.785
 8502SOL    HW127338  10.950   0.522  13.878
 8502SOL    HW227339  11.039   0.445  13.783
 8503SOL     OW27340  13.925  14.225  10.172
 8503SOL    HW127341  13.975  14.156  10.127
 8503SOL    HW227342  13.926  14.199  10.264
 8504SOL     OW27343  10.139   7.720   1.494
 8504SOL    HW127344  10.215   7.682   1.451
 8504SOL    HW227345  10.095   7.646   1.536
 8505SOL     OW27346  14.072   9.084   6.171
 8505SOL    HW127347  14.032   9.038   6.097
 8505SOL    HW227348  14.000   9.096   6.233
 8506SOL     OW27349   4.611  11.691   5.487
 8506SOL    HW127350   4.572  11.767   5.531
 8506SOL    HW227351   4.621  11.626   5.557
 8507SOL     OW27352   1.079   4.648   7.368
 8507SOL    HW127353   0.992   4.687   7.372
 8507SOL    HW227354   1.086   4.597   7.449
 8508SOL     OW27355  10.873   8.543   0.526
 8508SOL    HW127356  10.935   8.494   0.472
 8508SOL    HW227357  10.841   8.479   0.590
 8509SOL     OW27358   5.886   1.908   9.130
 8509SOL    HW127359   5.854   1.944   9.213
 8509SOL    HW227360   5.944   1.837   9.156
 8510SOL     OW27361  12.730  13.773   4.695
 8510SOL    HW127362  12.782  13.706   4.651
 8510SOL    HW227363  12.689  13.728   4.769
 8511SOL     OW27364   4.578  10.438   8.137
 8511SOL    HW127365   4.586  10.344   8.119
 8511SOL    HW227366   4.654  10.477   8.093
 8512SOL     OW27367   2.157   1.581   0.153
 8512SOL    HW127368   2.191   1.659   0.108
 8512SOL    HW227369   2.132   1.521   0.083
 8513SOL     OW27370  12.464   1.719   4.306
 8513SOL    HW127371  12.390   1.766   4.345
 8513SOL    HW227372  12.440   1.709   4.214
 8514SOL     OW27373   6.176  14.784   0.654
 8514SOL    HW127374   6.129  14.856   0.696
 8514SOL    HW227375   6.250  14.826   0.610
 8515SOL     OW27376   0.220  14.141   3.017
 8515SOL    HW127377   0.220  14.097   2.932
 8515SOL    HW227378   0.296  14.104   3.063
 8516SOL     OW27379   8.468   9.009   0.296
 8516SOL    HW127380   8.543   9.012   0.237
 8516SOL    HW227381   8.398   9.054   0.248
 8517SOL     OW27382   0.009   4.825   6.221
 8517SOL    HW127383   0.026   4.911   6.184
 8517SOL    HW227384   0.041   4.831   6.311
 8518SOL     OW27385   9.291   9.787  14.579
 8518SOL    HW127386   9.215   9.747  14.622
 8518SOL    HW227387   9.357   9.717  14.577
 8519SOL     OW27388  12.019   0.039   2.490
 8519SOL    HW127389  12.108   0.055   2.521
 8519SOL    HW227390  12.010   0.098   2.414
 8520SOL     OW27391  10.071   0.869   3.698
 8520SOL    HW127392  10.017   0.831   3.628
 8520SOL    HW227393  10.017   0.863   3.776
 8521SOL     OW27394  13.532  11.941   1.521
 8521SOL    HW127395  13.605  11.981   1.568
 8521SOL    HW227396  13.574  11.879   1.460
 8522SOL     OW27397   7.641  14.566   7.861
 8522SOL    HW127398   7.650  14.540   7.952
 8522SOL    HW227399   7.683  14.496   7.811
 8523SOL     OW27400  12.138   1.188  10.399
 8523SOL    HW127401  12.137   1.109  10.344
 8523SOL    HW227402  12.229   1.214  10.403
 8524SOL     OW27403   0.702   1.815   5.777
 8524SOL    HW127404   0.763   1.844   5.708
 8524SOL    HW227405   0.618   1.852   5.752
 8525SOL     OW27406  12.940   4.440   6.292
 8525SOL    HW127407  12.966   4.353   6.324
 8525SOL    HW227408  12.845   4.436   6.285
 8526SOL     OW27409  12.333   7.384   2.162
 8526SOL    HW127410  12.240   7.371   2.183
 8526SOL    HW227411  12.379   7.369   2.245
 8527SOL     OW27412   0.869   4.850   5.224
 8527SOL    HW127413   0.957   4.830   5.256
 8527SOL    HW227414   0.877   4.850   5.129
 8528SOL     OW27415  10.567   5.041   2.955
 8528SOL    HW127416  10.599   5.079   3.037
 8528SOL    HW227417  10.564   4.947   2.971
 8529SOL     OW27418   4.411   0.462   1.067
 8529SOL    HW127419   4.373   0.482   0.982
 8529SOL    HW227420   4.415   0.546   1.113
 8530SOL     OW27421  13.548  10.614   2.148
 8530SOL    HW127422  13.497  10.690   2.176
 8530SOL    HW227423  13.503  10.581   2.070
 8531SOL     OW27424   1.954   8.075   5.230
 8531SOL    HW127425   2.037   8.113   5.202
 8531SOL    HW227426   1.932   8.122   5.311
 8532SOL     OW27427   9.168  11.277   6.119
 8532SOL    HW127428   9.203  11.240   6.038
 8532SOL    HW227429   9.240  11.329   6.155
 8533SOL     OW27430   1.751  11.833   5.863
 8533SOL    HW127431   1.778  11.742   5.874
 8533SOL    HW227432   1.760  11.872   5.950
 8534SOL     OW27433   3.193   6.660  14.742
 8534SOL    HW127434   3.268   6.601  14.753
 8534SOL    HW227435   3.181   6.666  14.647
 8535SOL     OW27436   4.416   6.393   6.078
 8535SOL    HW127437   4.322   6.390   6.062
 8535SOL    HW227438   4.447   6.468   6.028
 8536SOL     OW27439   5.575  13.316  10.293
 8536SOL    HW127440   5.601  13.241  10.347
 8536SOL    HW227441   5.654  13.340  10.244
 8537SOL     OW27442   3.455  11.124   1.699
 8537SOL    HW127443   3.537  11.167   1.672
 8537SOL    HW227444   3.401  11.124   1.620
 8538SOL     OW27445   9.913   2.667  12.523
 8538SOL    HW127446   9.863   2.668  12.441
 8538SOL    HW227447   9.869   2.602  12.578
 8539SOL     OW27448  14.591   3.136   3.321
 8539SOL    HW127449  14.538   3.187   3.382
 8539SOL    HW227450  14.676   3.182   3.318
 8540SOL     OW27451   0.389   8.402  11.163
 8540SOL    HW127452   0.351   8.321  11.198
 8540SOL    HW227453   0.334   8.472  11.197
 8541SOL     OW27454   8.191  10.832  13.191
 8541SOL    HW127455   8.284  10.856  13.194
 8541SOL    HW227456   8.182  10.780  13.112
 8542SOL     OW27457  11.823  10.656   2.673
 8542SOL    HW127458  11.844  10.580   2.618
 8542SOL    HW227459  11.865  10.637   2.757
 8543SOL     OW27460   8.713  14.864   9.049
 8543SOL    HW127461   8.755   0.041   9.117
 8543SOL    HW227462   8.629  14.838   9.087
 8544SOL     OW27463   2.810   0.782   8.861
 8544SOL    HW127464   2.796   0.820   8.774
 8544SOL    HW227465   2.786   0.690   8.851
 8545SOL     OW27466   1.852  10.927   3.716
 8545SOL    HW127467   1.761  10.921   3.686
 8545SOL    HW227468   1.850  10.896   3.806
 8546SOL     OW27469   1.256   3.254   4.678
 8546SOL    HW127470   1.225   3.166   4.698
 8546SOL    HW227471   1.253   3.261   4.583
 8547SOL     OW27472   9.954  10.232   7.219
 8547SOL    HW127473  10.019  10.264   7.156
 8547SOL    HW227474   9.986  10.145   7.243
 8548SOL     OW27475   7.091  12.861   4.852
 8548SOL    HW127476   7.113  12.811   4.930
 8548SOL    HW227477   7.109  12.952   4.877
 8549SOL     OW27478  10.484   8.765   0.105
 8549SOL    HW127479  10.455   8.789   0.017
 8549SOL    HW227480  10.430   8.689   0.128
 8550SOL     OW27481  13.501   5.726  11.207
 8550SOL    HW127482  13.527   5.814  11.233
 8550SOL    HW227483  13.584   5.678  11.198
 8551SOL     OW27484   4.120   9.426   0.076
 8551SOL    HW127485   4.167   9.458  14.875
 8551SOL    HW227486   4.070   9.501   0.107
 8552SOL     OW27487   2.957   4.654   4.772
 8552SOL    HW127488   2.984   4.564   4.753
 8552SOL    HW227489   3.023   4.686   4.834
 8553SOL     OW27490  14.038  12.876  13.754
 8553SOL    HW127491  13.980  12.865  13.830
 8553SOL    HW227492  14.115  12.824  13.775
 8554SOL     OW27493   1.931   2.019  13.490
 8554SOL    HW127494   1.951   2.035  13.583
 8554SOL    HW227495   1.923   1.924  13.483
 8555SOL     OW27496   0.211   1.255   7.714
 8555SOL    HW127497   0.123   1.239   7.750
 8555SOL    HW227498   0.269   1.201   7.768
 8556SOL     OW27499   6.823   1.030   5.310
 8556SOL    HW127500   6.784   1.074   5.234
 8556SOL    HW227501   6.884   1.095   5.345
 8557SOL     OW27502  11.813   3.014   4.404
 8557SOL    HW127503  11.888   2.979   4.451
 8557SOL    HW227504  11.746   2.945   4.411
 8558SOL     OW27505   6.406   1.215   4.490
 8558SOL    HW127506   6.412   1.202   4.585
 8558SOL    HW227507   6.454   1.296   4.473
 8559SOL     OW27508   3.498   6.204   1.224
 8559SOL    HW127509   3.417   6.254   1.231
 8559SOL    HW227510   3.506   6.159   1.309
 8560SOL     OW27511   4.766   5.875   8.146
 8560SOL    HW127512   4.757   5.956   8.196
 8560SOL    HW227513   4.712   5.812   8.194
 8561SOL     OW27514   1.287   4.103   7.244
 8561SOL    HW127515   1.203   4.079   7.284
 8561SOL    HW227516   1.327   4.020   7.219
 8562SOL     OW27517  10.338  11.319  14.484
 8562SOL    HW127518  10.265  11.272  14.444
 8562SOL    HW227519  10.334  11.407  14.447
 8563SOL     OW27520   0.342   9.425   8.319
 8563SOL    HW127521   0.294   9.491   8.268
 8563SOL    HW227522   0.283   9.404   8.391
 8564SOL     OW27523   0.444   9.340   4.656
 8564SOL    HW127524   0.466   9.430   4.679
 8564SOL    HW227525   0.529   9.297   4.647
 8565SOL     OW27526   4.797  13.760   4.479
 8565SOL    HW127527   4.855  13.817   4.529
 8565SOL    HW227528   4.767  13.814   4.406
 8566SOL     OW27529  11.421   2.152   3.985
 8566SOL    HW127530  11.514   2.153   3.963
 8566SOL    HW227531  11.381   2.213   3.924
 8567SOL     OW27532   5.991   7.811   2.364
 8567SOL    HW127533   6.062   7.784   2.423
 8567SOL    HW227534   6.033   7.874   2.304
 8568SOL     OW27535  11.682  14.358  13.271
 8568SOL    HW127536  11.626  14.435  13.281
 8568SOL    HW227537  11.634  14.288  13.315
 8569SOL     OW27538  14.140   5.302   9.274
 8569SOL    HW127539  14.096   5.387   9.276
 8569SOL    HW227540  14.230   5.323   9.250
 8570SOL     OW27541  11.134   1.651   2.435
 8570SOL    HW127542  11.082   1.731   2.449
 8570SOL    HW227543  11.074   1.580   2.455
 8571SOL     OW27544   7.824   3.969   9.545
 8571SOL    HW127545   7.799   3.877   9.543
 8571SOL    HW227546   7.770   4.010   9.477
 8572SOL     OW27547  12.846   5.155  13.287
 8572SOL    HW127548  12.840   5.184  13.196
 8572SOL    HW227549  12.769   5.195  13.329
 8573SOL     OW27550  12.795   1.972  10.237
 8573SOL    HW127551  12.737   2.039  10.200
 8573SOL    HW227552  12.738   1.920  10.293
 8574SOL     OW27553  14.417   3.560  12.872
 8574SOL    HW127554  14.490   3.554  12.933
 8574SOL    HW227555  14.342   3.528  12.920
 8575SOL     OW27556  12.579   0.760   3.268
 8575SOL    HW127557  12.511   0.780   3.204
 8575SOL    HW227558  12.642   0.706   3.220
 8576SOL     OW27559  11.703   0.604   1.497
 8576SOL    HW127560  11.796   0.615   1.477
 8576SOL    HW227561  11.701   0.566   1.584
 8577SOL     OW27562   0.357   4.011   6.077
 8577SOL    HW127563   0.446   3.994   6.045
 8577SOL    HW227564   0.353   4.105   6.090
 8578SOL     OW27565  10.803  10.502   5.980
 8578SOL    HW127566  10.736  10.515   6.046
 8578SOL    HW227567  10.807  10.407   5.968
 8579SOL     OW27568  13.730  11.606  14.389
 8579SOL    HW127569  13.651  11.582  14.340
 8579SOL    HW227570  13.717  11.570  14.476
 8580SOL     OW27571  14.623   8.552   7.912
 8580SOL    HW127572  14.660   8.591   7.833
 8580SOL    HW227573  14.570   8.478   7.880
 8581SOL     OW27574  11.589   4.090  12.914
 8581SOL    HW127575  11.673   4.131  12.894
 8581SOL    HW227576  11.562   4.130  12.997
 8582SOL     OW27577  11.115   0.188   6.092
 8582SOL    HW127578  11.068   0.211   6.172
 8582SOL    HW227579  11.052   0.204   6.022
 8583SOL     OW27580   9.101   5.272  11.391
 8583SOL    HW127581   9.125   5.328  11.465
 8583SOL    HW227582   9.013   5.242  11.412
 8584SOL     OW27583   8.560   8.874   8.842
 8584SOL    HW127584   8.595   8.920   8.765
 8584SOL    HW227585   8.558   8.941   8.911
 8585SOL     OW27586   9.855   0.232  14.845
 8585SOL    HW127587   9.907   0.152  14.844
 8585SOL    HW227588   9.854   0.261  14.754
 8586SOL     OW27589  10.889   4.016  13.985
 8586SOL    HW127590  10.860   3.964  14.061
 8586SOL    HW227591  10.951   3.959  13.940
 8587SOL     OW27592   6.463  14.005  13.050
 8587SOL    HW127593   6.400  13.955  12.999
 8587SOL    HW227594   6.545  14.000  13.000
 8588SOL     OW27595  10.417   3.670  14.487
 8588SOL    HW127596  10.434   3.759  14.455
 8588SOL    HW227597  10.391   3.621  14.409
 8589SOL     OW27598   9.106   0.512  14.270
 8589SOL    HW127599   9.116   0.586  14.330
 8589SOL    HW227600   9.043   0.454  14.314
 8590SOL     OW27601   9.429   4.369   1.804
 8590SOL    HW127602   9.443   4.286   1.758
 8590SOL    HW227603   9.388   4.425   1.739
 8591SOL     OW27604   8.300   8.522   6.919
 8591SOL    HW127605   8.294   8.548   7.011
 8591SOL    HW227606   8.339   8.435   6.921
 8592SOL     OW27607   9.956   5.452  13.333
 8592SOL    HW127608   9.957   5.497  13.248
 8592SOL    HW227609   9.956   5.522  13.398
 8593SOL     OW27610   7.453  12.565   6.842
 8593SOL    HW127611   7.424  12.486   6.797
 8593SOL    HW227612   7.495  12.617   6.773
 8594SOL     OW27613   0.557  10.619   6.621
 8594SOL    HW127614   0.606  10.667   6.555
 8594SOL    HW227615   0.516  10.686   6.676
 8595SOL     OW27616   1.315  13.348   4.253
 8595SOL    HW127617   1.312  13.255   4.278
 8595SOL    HW227618   1.327  13.394   4.336
 8596SOL     OW27619   5.701  13.984   2.917
 8596SOL    HW127620   5.781  13.975   2.865
 8596SOL    HW227621   5.652  14.055   2.875
 8597SOL     OW27622   9.145  13.757  14.197
 8597SOL    HW127623   9.143  13.662  14.182
 8597SOL    HW227624   9.054  13.785  14.186
 8598SOL     OW27625  14.234   9.068   0.391
 8598SOL    HW127626  14.247   9.162   0.378
 8598SOL    HW227627  14.251   9.030   0.305
 8599SOL     OW27628  14.699   2.606   4.294
 8599SOL    HW127629  14.733   2.636   4.210
 8599SOL    HW227630  14.690   2.685   4.346
 8600SOL     OW27631   3.467  12.933   1.997
 8600SOL    HW127632   3.396  12.998   1.991
 8600SOL    HW227633   3.510  12.937   1.912
 8601SOL     OW27634   8.134  13.034   8.753
 8601SOL    HW127635   8.129  13.039   8.848
 8601SOL    HW227636   8.126  12.941   8.732
 8602SOL     OW27637  13.476   7.127   8.593
 8602SOL    HW127638  13.383   7.103   8.590
 8602SOL    HW227639  13.490   7.179   8.514
 8603SOL     OW27640  13.656   1.430  13.226
 8603SOL    HW127641  13.746   1.424  13.259
 8603SOL    HW227642  13.622   1.341  13.231
 8604SOL     OW27643   5.718  11.243   8.043
 8604SOL    HW127644   5.721  11.149   8.024
 8604SOL    HW227645   5.792  11.280   7.995
 8605SOL     OW27646  13.703  14.380   6.122
 8605SOL    HW127647  13.741  14.456   6.166
 8605SOL    HW227648  13.609  14.388   6.136
 8606SOL     OW27649   1.631   3.457  12.182
 8606SOL    HW127650   1.549   3.407  12.184
 8606SOL    HW227651   1.651   3.467  12.089
 8607SOL     OW27652  12.837   0.520   7.588
 8607SOL    HW127653  12.886   0.440   7.568
 8607SOL    HW227654  12.855   0.578   7.515
 8608SOL     OW27655   9.319   8.388   3.434
 8608SOL    HW127656   9.296   8.317   3.493
 8608SOL    HW227657   9.302   8.353   3.346
 8609SOL     OW27658   4.399  13.905  11.816
 8609SOL    HW127659   4.459  13.853  11.763
 8609SOL    HW227660   4.392  13.856  11.899
 8610SOL     OW27661   2.389   8.152   1.527
 8610SOL    HW127662   2.446   8.221   1.560
 8610SOL    HW227663   2.301   8.179   1.554
 8611SOL     OW27664  14.735   0.680   3.751
 8611SOL    HW127665  14.774   0.767   3.739
 8611SOL    HW227666  14.693   0.661   3.667
 8612SOL     OW27667   4.654   2.050   3.148
 8612SOL    HW127668   4.601   1.971   3.150
 8612SOL    HW227669   4.686   2.056   3.057
 8613SOL     OW27670   5.089  13.051  12.044
 8613SOL    HW127671   5.171  13.073  11.999
 8613SOL    HW227672   5.114  13.042  12.136
 8614SOL     OW27673  13.136   9.139   9.317
 8614SOL    HW127674  13.157   9.063   9.372
 8614SOL    HW227675  13.043   9.128   9.296
 8615SOL     OW27676   6.936  10.215  14.686
 8615SOL    HW127677   6.923  10.161  14.764
 8615SOL    HW227678   6.903  10.302  14.711
 8616SOL     OW27679   8.538   5.220   5.424
 8616SOL    HW127680   8.629   5.196   5.406
 8616SOL    HW227681   8.496   5.220   5.339
 8617SOL     OW27682   8.880  11.323  11.977
 8617SOL    HW127683   8.878  11.258  11.906
 8617SOL    HW227684   8.842  11.278  12.052
 8618SOL     OW27685  13.983   2.616   7.292
 8618SOL    HW127686  13.933   2.606   7.373
 8618SOL    HW227687  13.950   2.548   7.234
 8619SOL     OW27688   6.196   4.422  12.101
 8619SOL    HW127689   6.290   4.423  12.119
 8619SOL    HW227690   6.185   4.351  12.038
 8620SOL     OW27691   9.429  11.760  14.688
 8620SOL    HW127692   9.471  11.727  14.608
 8620SOL    HW227693   9.376  11.833  14.659
 8621SOL     OW27694  12.683   5.517   5.856
 8621SOL    HW127695  12.757   5.530   5.796
 8621SOL    HW227696  12.649   5.605   5.872
 8622SOL     OW27697  10.294   7.778  14.339
 8622SOL    HW127698  10.378   7.818  14.361
 8622SOL    HW227699  10.293   7.775  14.243
 8623SOL     OW27700   5.605   9.777  11.247
 8623SOL    HW127701   5.607   9.709  11.315
 8623SOL    HW227702   5.562   9.735  11.173
 8624SOL     OW27703   8.866   5.010   9.195
 8624SOL    HW127704   8.914   4.976   9.120
 8624SOL    HW227705   8.909   4.969   9.271
 8625SOL     OW27706   4.502   8.212   1.289
 8625SOL    HW127707   4.567   8.143   1.279
 8625SOL    HW227708   4.479   8.237   1.200
 8626SOL     OW27709   8.321   8.795   7.006
 8626SOL    HW127710   8.239   8.818   7.051
 8626SOL    HW227711   8.388   8.803   7.073
 8627SOL     OW27712   0.868   3.266   8.680
 8627SOL    HW127713   0.936   3.215   8.635
 8627SOL    HW227714   0.801   3.202   8.702
 8628SOL     OW27715   5.584   7.337   7.893
 8628SOL    HW127716   5.537   7.417   7.870
 8628SOL    HW227717   5.633   7.360   7.972
 8629SOL     OW27718   9.649   1.420   1.886
 8629SOL    HW127719   9.568   1.440   1.840
 8629SOL    HW227720   9.708   1.493   1.864
 8630SOL     OW27721  12.992   3.062   1.580
 8630SOL    HW127722  13.079   3.076   1.542
 8630SOL    HW227723  12.976   2.968   1.570
 8631SOL     OW27724   9.718  14.334   9.739
 8631SOL    HW127725   9.681  14.414   9.701
 8631SOL    HW227726   9.727  14.274   9.665
 8632SOL     OW27727   8.656   0.837  13.396
 8632SOL    HW127728   8.722   0.888  13.444
 8632SOL    HW227729   8.701   0.754  13.377
 8633SOL     OW27730   5.101   2.864   1.882
 8633SOL    HW127731   5.162   2.864   1.809
 8633SOL    HW227732   5.108   2.951   1.920
 8634SOL     OW27733   9.270   4.220   5.062
 8634SOL    HW127734   9.257   4.306   5.022
 8634SOL    HW227735   9.329   4.175   5.003
 8635SOL     OW27736  13.031   9.270   6.210
 8635SOL    HW127737  12.982   9.345   6.241
 8635SOL    HW227738  13.123   9.294   6.222
 8636SOL     OW27739  13.990   1.483   2.517
 8636SOL    HW127740  14.057   1.551   2.510
 8636SOL    HW227741  13.949   1.499   2.602
 8637SOL     OW27742  12.222   9.550   8.525
 8637SOL    HW127743  12.224   9.456   8.507
 8637SOL    HW227744  12.195   9.557   8.616
 8638SOL     OW27745   7.476   1.879  14.309
 8638SOL    HW127746   7.404   1.905  14.251
 8638SOL    HW227747   7.539   1.837  14.252
 8639SOL     OW27748   6.874   2.626   4.105
 8639SOL    HW127749   6.929   2.704   4.113
 8639SOL    HW227750   6.784   2.659   4.109
 8640SOL     OW27751   6.145   9.226   3.134
 8640SOL    HW127752   6.190   9.142   3.140
 8640SOL    HW227753   6.109   9.240   3.222
 8641SOL     OW27754   0.568  12.722   1.106
 8641SOL    HW127755   0.601  12.635   1.081
 8641SOL    HW227756   0.636  12.758   1.163
 8642SOL     OW27757   7.925   2.213   2.724
 8642SOL    HW127758   7.907   2.240   2.814
 8642SOL    HW227759   7.858   2.256   2.672
 8643SOL     OW27760   0.038   5.341   3.480
 8643SOL    HW127761   0.119   5.370   3.523
 8643SOL    HW227762   0.064   5.264   3.430
 8644SOL     OW27763   7.354   8.755  14.703
 8644SOL    HW127764   7.421   8.722  14.643
 8644SOL    HW227765   7.300   8.678  14.722
 8645SOL     OW27766   1.915   8.584  11.628
 8645SOL    HW127767   1.885   8.594  11.719
 8645SOL    HW227768   1.875   8.657  11.581
 8646SOL     OW27769  14.773  10.668   5.917
 8646SOL    HW127770  14.695  10.638   5.871
 8646SOL    HW227771  14.789  10.756   5.882
 8647SOL     OW27772   6.499   3.858  10.695
 8647SOL    HW127773   6.412   3.843  10.660
 8647SOL    HW227774   6.547   3.777  10.676
 8648SOL     OW27775   9.070   2.617  10.244
 8648SOL    HW127776   9.101   2.579  10.326
 8648SOL    HW227777   9.129   2.581  10.178
 8649SOL     OW27778   4.456  13.249   2.397
 8649SOL    HW127779   4.532  13.194   2.414
 8649SOL    HW227780   4.491  13.325   2.350
 8650SOL     OW27781   9.098   9.309   3.256
 8650SOL    HW127782   9.093   9.346   3.344
 8650SOL    HW227783   9.103   9.215   3.270
 8651SOL     OW27784   9.355   4.067   7.505
 8651SOL    HW127785   9.290   4.137   7.504
 8651SOL    HW227786   9.304   3.986   7.514
 8652SOL     OW27787   9.627   5.964  12.374
 8652SOL    HW127788   9.638   5.959  12.279
 8652SOL    HW227789   9.680   6.039  12.400
 8653SOL     OW27790   0.264  13.316  10.187
 8653SOL    HW127791   0.184  13.318  10.240
 8653SOL    HW227792   0.327  13.268  10.241
 8654SOL     OW27793  10.397   6.976  12.791
 8654SOL    HW127794  10.391   7.025  12.709
 8654SOL    HW227795  10.316   6.996  12.837
 8655SOL     OW27796  14.465  14.472   9.640
 8655SOL    HW127797  14.446  14.539   9.575
 8655SOL    HW227798  14.560  14.463   9.640
 8656SOL     OW27799   5.345   0.071   2.892
 8656SOL    HW127800   5.254   0.097   2.880
 8656SOL    HW227801   5.339  14.862   2.937
 8657SOL     OW27802  11.923   2.385   2.453
 8657SOL    HW127803  11.834   2.420   2.462
 8657SOL    HW227804  11.980   2.457   2.480
 8658SOL     OW27805   8.093  14.181   5.807
 8658SOL    HW127806   8.086  14.204   5.899
 8658SOL    HW227807   8.093  14.085   5.806
 8659SOL     OW27808   0.601   7.341   1.100
 8659SOL    HW127809   0.538   7.284   1.144
 8659SOL    HW227810   0.569   7.429   1.115
 8660SOL     OW27811  14.666  11.088   7.754
 8660SOL    HW127812  14.668  10.995   7.733
 8660SOL    HW227813  14.614  11.094   7.834
 8661SOL     OW27814   0.677   6.774  13.373
 8661SOL    HW127815   0.704   6.707  13.310
 8661SOL    HW227816   0.694   6.857  13.328
 8662SOL     OW27817   7.617  12.646   8.279
 8662SOL    HW127818   7.553  12.668   8.347
 8662SOL    HW227819   7.655  12.730   8.254
 8663SOL     OW27820  14.300   2.600   1.878
 8663SOL    HW127821  14.250   2.663   1.930
 8663SOL    HW227822  14.347   2.654   1.814
 8664SOL     OW27823  10.353   5.953  11.284
 8664SOL    HW127824  10.435   5.934  11.332
 8664SOL    HW227825  10.364   6.043  11.254
 8665SOL     OW27826   3.322   6.832   7.673
 8665SOL    HW127827   3.379   6.813   7.599
 8665SOL    HW227828   3.251   6.885   7.636
 8666SOL     OW27829  10.306  12.638   6.654
 8666SOL    HW127830  10.319  12.729   6.679
 8666SOL    HW227831  10.222  12.637   6.608
 8667SOL     OW27832  13.184   9.357   5.818
 8667SOL    HW127833  13.163   9.434   5.871
 8667SOL    HW227834  13.133   9.287   5.858
 8668SOL     OW27835   6.688  14.384   1.874
 8668SOL    HW127836   6.602  14.417   1.851
 8668SOL    HW227837   6.734  14.375   1.790
 8669SOL     OW27838   2.298   9.920   4.091
 8669SOL    HW127839   2.258   9.953   4.011
 8669SOL    HW227840   2.243   9.955   4.162
 8670SOL     OW27841  14.643   8.043  13.611
 8670SOL    HW127842  14.616   8.081  13.694
 8670SOL    HW227843  14.703   8.108  13.573
 8671SOL     OW27844   2.849   9.900   1.537
 8671SOL    HW127845   2.816   9.977   1.582
 8671SOL    HW227846   2.787   9.884   1.467
 8672SOL     OW27847  13.972   5.150   0.134
 8672SOL    HW127848  14.002   5.093   0.063
 8672SOL    HW227849  13.884   5.119   0.155
 8673SOL     OW27850  14.536   5.943  12.437
 8673SOL    HW127851  14.588   6.022  12.455
 8673SOL    HW227852  14.514   5.950  12.344
 8674SOL     OW27853  13.775   7.868   3.778
 8674SOL    HW127854  13.712   7.890   3.846
 8674SOL    HW227855  13.777   7.772   3.777
 8675SOL     OW27856   2.433   5.364   2.316
 8675SOL    HW127857   2.368   5.418   2.361
 8675SOL    HW227858   2.441   5.286   2.370
 8676SOL     OW27859  14.626   4.673   6.262
 8676SOL    HW127860  14.711   4.709   6.235
 8676SOL    HW227861  14.646   4.582   6.286
 8677SOL     OW27862   4.890  12.434   4.576
 8677SOL    HW127863   4.848  12.408   4.658
 8677SOL    HW227864   4.966  12.485   4.603
 8678SOL     OW27865   0.932   0.271   4.088
 8678SOL    HW127866   0.963   0.214   4.018
 8678SOL    HW227867   0.843   0.294   4.062
 8679SOL     OW27868   4.150  11.590   3.417
 8679SOL    HW127869   4.081  11.618   3.477
 8679SOL    HW227870   4.130  11.498   3.398
 8680SOL     OW27871  13.464  10.295   1.363
 8680SOL    HW127872  13.440  10.360   1.297
 8680SOL    HW227873  13.549  10.325   1.396
 8681SOL     OW27874   1.702   8.250   8.596
 8681SOL    HW127875   1.675   8.191   8.667
 8681SOL    HW227876   1.774   8.203   8.552
 8682SOL     OW27877  11.948   2.571   0.278
 8682SOL    HW127878  11.917   2.552   0.189
 8682SOL    HW227879  11.933   2.490   0.326
 8683SOL     OW27880   3.302   9.012   0.816
 8683SOL    HW127881   3.367   9.030   0.749
 8683SOL    HW227882   3.260   9.096   0.832
 8684SOL     OW27883   6.537  13.389   8.348
 8684SOL    HW127884   6.584  13.349   8.275
 8684SOL    HW227885   6.536  13.322   8.416
 8685SOL     OW27886   6.863   0.976  13.407
 8685SOL    HW127887   6.864   1.056  13.354
 8685SOL    HW227888   6.795   0.991  13.472
 8686SOL     OW27889   1.558  13.686  11.114
 8686SOL    HW127890   1.573  13.685  11.209
 8686SOL    HW227891   1.500  13.611  11.099
 8687SOL     OW27892  13.532   1.750   3.476
 8687SOL    HW127893  13.505   1.790   3.393
 8687SOL    HW227894  13.465   1.778   3.539
 8688SOL     OW27895   4.632   0.046   0.927
 8688SOL    HW127896   4.649   0.015   1.016
 8688SOL    HW227897   4.538   0.066   0.926
 8689SOL     OW27898   5.354  10.286   8.047
 8689SOL    HW127899   5.290  10.229   8.088
 8689SOL    HW227900   5.339  10.372   8.087
 8690SOL     OW27901   8.062  10.285   8.324
 8690SOL    HW127902   8.095  10.263   8.237
 8690SOL    HW227903   8.068  10.204   8.374
 8691SOL     OW27904   5.403   0.691   3.907
 8691SOL    HW127905   5.442   0.694   3.820
 8691SOL    HW227906   5.460   0.631   3.957
 8692SOL     OW27907  11.173  12.116   2.293
 8692SOL    HW127908  11.136  12.146   2.210
 8692SOL    HW227909  11.170  12.193   2.349
 8693SOL     OW27910  11.583   1.572   1.853
 8693SOL    HW127911  11.595   1.622   1.772
 8693SOL    HW227912  11.581   1.481   1.825
 8694SOL     OW27913   3.131   2.555   6.581
 8694SOL    HW127914   3.213   2.542   6.533
 8694SOL    HW227915   3.152   2.621   6.647
 8695SOL     OW27916  14.396   0.594  13.220
 8695SOL    HW127917  14.360   0.635  13.298
 8695SOL    HW227918  14.346   0.513  13.209
 8696SOL     OW27919   8.368   6.040   4.332
 8696SOL    HW127920   8.446   5.995   4.364
 8696SOL    HW227921   8.343   6.098   4.404
 8697SOL     OW27922   6.912  11.881  11.915
 8697SOL    HW127923   6.887  11.903  12.005
 8697SOL    HW227924   6.991  11.932  11.898
 8698SOL     OW27925  12.173   7.858   3.190
 8698SOL    HW127926  12.156   7.861   3.095
 8698SOL    HW227927  12.263   7.825   3.197
 8699SOL     OW27928   1.403   3.982  13.065
 8699SOL    HW127929   1.417   4.033  13.144
 8699SOL    HW227930   1.489   3.944  13.045
 8700SOL     OW27931   6.869  13.677   4.769
 8700SOL    HW127932   6.831  13.713   4.849
 8700SOL    HW227933   6.872  13.582   4.784
 8701SOL     OW27934  13.434   1.785  13.419
 8701SOL    HW127935  13.491   1.841  13.473
 8701SOL    HW227936  13.444   1.821  13.330
 8702SOL     OW27937   8.168  12.807  10.584
 8702SOL    HW127938   8.110  12.777  10.515
 8702SOL    HW227939   8.250  12.759  10.569
 8703SOL     OW27940   1.558   2.278   0.949
 8703SOL    HW127941   1.510   2.361   0.946
 8703SOL    HW227942   1.501   2.216   0.905
 8704SOL     OW27943   7.598  10.485   2.236
 8704SOL    HW127944   7.564  10.550   2.175
 8704SOL    HW227945   7.692  10.502   2.238
 8705SOL     OW27946   3.292   2.662   9.806
 8705SOL    HW127947   3.356   2.600   9.771
 8705SOL    HW227948   3.221   2.662   9.742
 8706SOL     OW27949   1.936   7.206   4.178
 8706SOL    HW127950   1.988   7.211   4.258
 8706SOL    HW227951   1.910   7.114   4.172
 8707SOL     OW27952  11.395  13.263   3.309
 8707SOL    HW127953  11.329  13.273   3.378
 8707SOL    HW227954  11.382  13.340   3.253
 8708SOL     OW27955  10.795  11.210   3.926
 8708SOL    HW127956  10.727  11.216   3.859
 8708SOL    HW227957  10.808  11.300   3.955
 8709SOL     OW27958   2.216  13.612   9.394
 8709SOL    HW127959   2.232  13.693   9.444
 8709SOL    HW227960   2.224  13.639   9.303
 8710SOL     OW27961   6.693   7.272   4.593
 8710SOL    HW127962   6.727   7.202   4.649
 8710SOL    HW227963   6.610   7.237   4.560
 8711SOL     OW27964   8.985   5.065   8.381
 8711SOL    HW127965   8.916   5.120   8.418
 8711SOL    HW227966   9.067   5.110   8.403
 8712SOL     OW27967   1.860   4.550   6.203
 8712SOL    HW127968   1.888   4.639   6.182
 8712SOL    HW227969   1.872   4.502   6.121
 8713SOL     OW27970  11.628   0.506   4.345
 8713SOL    HW127971  11.685   0.571   4.385
 8713SOL    HW227972  11.550   0.554   4.320
 8714SOL     OW27973   3.683  10.646  14.291
 8714SOL    HW127974   3.597  10.688  14.283
 8714SOL    HW227975   3.666  10.553  14.274
 8715SOL     OW27976   0.596   2.498   5.000
 8715SOL    HW127977   0.615   2.546   4.920
 8715SOL    HW227978   0.681   2.494   5.045
 8716SOL     OW27979  10.179  10.344   7.080
 8716SOL    HW127980  10.238  10.400   7.130
 8716SOL    HW227981  10.235  10.275   7.045
 8717SOL     OW27982  10.481   7.197   6.499
 8717SOL    HW127983  10.502   7.145   6.576
 8717SOL    HW227984  10.496   7.288   6.527
 8718SOL     OW27985   2.110   4.960   7.475
 8718SOL    HW127986   2.059   4.891   7.431
 8718SOL    HW227987   2.152   5.008   7.403
 8719SOL     OW27988   9.799   5.357   1.329
 8719SOL    HW127989   9.804   5.433   1.271
 8719SOL    HW227990   9.870   5.300   1.300
 8720SOL     OW27991  10.301  11.156   4.405
 8720SOL    HW127992  10.339  11.075   4.370
 8720SOL    HW227993  10.226  11.174   4.348
 8721SOL     OW27994   1.924   6.700   8.828
 8721SOL    HW127995   1.869   6.631   8.865
 8721SOL    HW227996   1.901   6.779   8.878
 8722SOL     OW27997  10.600  12.048   8.899
 8722SOL    HW127998  10.636  12.060   8.987
 8722SOL    HW227999  10.574  12.136   8.872
 8723SOL     OW28000   4.306   8.406   9.420
 8723SOL    HW128001   4.274   8.322   9.388
 8723SOL    HW228002   4.394   8.413   9.384
 8724SOL     OW28003   2.622  10.655   5.803
 8724SOL    HW128004   2.621  10.703   5.886
 8724SOL    HW228005   2.571  10.709   5.743
 8725SOL     OW28006   7.837   9.623   7.934
 8725SOL    HW128007   7.857   9.716   7.923
 8725SOL    HW228008   7.746   9.614   7.904
 8726SOL     OW28009  10.614   5.904  11.391
 8726SOL    HW128010  10.642   5.876  11.304
 8726SOL    HW228011  10.683   5.872  11.449
 8727SOL     OW28012  12.030  11.200   6.398
 8727SOL    HW128013  11.956  11.156   6.358
 8727SOL    HW228014  12.027  11.174   6.490
 8728SOL     OW28015  12.348   5.447   0.489
 8728SOL    HW128016  12.275   5.489   0.444
 8728SOL    HW228017  12.330   5.353   0.482
 8729SOL     OW28018  14.156   9.175  14.849
 8729SOL    HW128019  14.105   9.255  14.842
 8729SOL    HW228020  14.104   9.118   0.030
 8730SOL     OW28021   1.407   8.402   8.786
 8730SOL    HW128022   1.432   8.325   8.735
 8730SOL    HW228023   1.490   8.437   8.818
 8731SOL     OW28024  12.637  13.287  11.719
 8731SOL    HW128025  12.691  13.208  11.729
 8731SOL    HW228026  12.700  13.356  11.699
 8732SOL     OW28027  13.127   7.368   1.685
 8732SOL    HW128028  13.149   7.443   1.740
 8732SOL    HW228029  13.168   7.387   1.601
 8733SOL     OW28030  12.507   9.500   7.898
 8733SOL    HW128031  12.583   9.463   7.855
 8733SOL    HW228032  12.481   9.435   7.963
 8734SOL     OW28033   8.194   5.167   1.056
 8734SOL    HW128034   8.170   5.087   1.101
 8734SOL    HW228035   8.277   5.146   1.013
 8735SOL     OW28036   5.111  12.363   1.774
 8735SOL    HW128037   5.162  12.437   1.743
 8735SOL    HW228038   5.060  12.397   1.847
 8736SOL     OW28039   0.271  14.137   3.394
 8736SOL    HW128040   0.332  14.082   3.344
 8736SOL    HW228041   0.204  14.162   3.329
 8737SOL     OW28042  14.254   0.378   9.461
 8737SOL    HW128043  14.197   0.448   9.491
 8737SOL    HW228044  14.238   0.306   9.522
 8738SOL     OW28045  10.317   5.335  13.773
 8738SOL    HW128046  10.377   5.372  13.707
 8738SOL    HW228047  10.234   5.323  13.726
 8739SOL     OW28048  13.086   4.461   5.670
 8739SOL    HW128049  13.057   4.371   5.685
 8739SOL    HW228050  13.128   4.459   5.583
 8740SOL     OW28051   8.078   7.332   2.236
 8740SOL    HW128052   8.166   7.304   2.261
 8740SOL    HW228053   8.082   7.342   2.141
 8741SOL     OW28054   7.464  13.280   7.306
 8741SOL    HW128055   7.387  13.334   7.319
 8741SOL    HW228056   7.521  13.301   7.380
 8742SOL     OW28057  14.336   9.150  12.320
 8742SOL    HW128058  14.290   9.075  12.358
 8742SOL    HW228059  14.275   9.223  12.329
 8743SOL     OW28060   5.870   7.505  11.833
 8743SOL    HW128061   5.794   7.457  11.801
 8743SOL    HW228062   5.834   7.584  11.872
 8744SOL     OW28063   2.517  14.770   6.989
 8744SOL    HW128064   2.498  14.742   6.900
 8744SOL    HW228065   2.475  14.704   7.045
 8745SOL     OW28066   3.249   3.717  12.646
 8745SOL    HW128067   3.343   3.699  12.658
 8745SOL    HW228068   3.234   3.799  12.692
 8746SOL     OW28069  14.806   9.587   2.249
 8746SOL    HW128070  14.761   9.652   2.195
 8746SOL    HW228071  14.853   9.638   2.314
 8747SOL     OW28072  10.669   2.359   3.299
 8747SOL    HW128073  10.758   2.347   3.332
 8747SOL    HW228074  10.674   2.436   3.242
 8748SOL     OW28075   9.115   9.117   4.493
 8748SOL    HW128076   9.084   9.196   4.449
 8748SOL    HW228077   9.206   9.136   4.514
 8749SOL     OW28078  11.298   0.283   6.696
 8749SOL    HW128079  11.326   0.203   6.652
 8749SOL    HW228080  11.355   0.352   6.660
 8750SOL     OW28081   8.024   1.806   4.680
 8750SOL    HW128082   8.039   1.895   4.710
 8750SOL    HW228083   8.085   1.753   4.732
 8751SOL     OW28084   2.643   8.912   2.930
 8751SOL    HW128085   2.633   9.002   2.898
 8751SOL    HW228086   2.635   8.858   2.851
 8752SOL     OW28087  13.743  11.421  12.141
 8752SOL    HW128088  13.689  11.418  12.062
 8752SOL    HW228089  13.696  11.479  12.200
 8753SOL     OW28090   0.127  10.582   7.258
 8753SOL    HW128091   0.212  10.626   7.255
 8753SOL    HW228092   0.143  10.498   7.217
 8754SOL     OW28093   2.207   6.817   6.751
 8754SOL    HW128094   2.249   6.847   6.831
 8754SOL    HW228095   2.279   6.801   6.690
 8755SOL     OW28096   6.626   3.670  10.522
 8755SOL    HW128097   6.700   3.730  10.523
 8755SOL    HW228098   6.665   3.584  10.504
 8756SOL     OW28099   8.841   5.592   6.105
 8756SOL    HW128100   8.809   5.679   6.085
 8756SOL    HW228101   8.895   5.568   6.029
 8757SOL     OW28102   3.812   5.940  11.349
 8757SOL    HW128103   3.804   5.971  11.439
 8757SOL    HW228104   3.906   5.925  11.338
 8758SOL     OW28105  10.803   3.474   8.403
 8758SOL    HW128106  10.800   3.569   8.398
 8758SOL    HW228107  10.712   3.446   8.398
 8759SOL     OW28108  13.359  10.705   0.677
 8759SOL    HW128109  13.415  10.744   0.609
 8759SOL    HW228110  13.303  10.777   0.705
 8760SOL     OW28111  13.602  12.244   8.012
 8760SOL    HW128112  13.562  12.285   8.089
 8760SOL    HW228113  13.531  12.238   7.948
 8761SOL     OW28114   6.711   8.623   1.105
 8761SOL    HW128115   6.620   8.625   1.133
 8761SOL    HW228116   6.760   8.653   1.181
 8762SOL     OW28117  11.271  14.450  12.284
 8762SOL    HW128118  11.221  14.457  12.365
 8762SOL    HW228119  11.206  14.425  12.218
 8763SOL     OW28120  13.431  10.548   6.868
 8763SOL    HW128121  13.445  10.643   6.866
 8763SOL    HW228122  13.460  10.521   6.955
 8764SOL     OW28123   1.960   0.020  13.931
 8764SOL    HW128124   1.907  14.848  13.995
 8764SOL    HW228125   1.900   0.037  13.858
 8765SOL     OW28126  13.232   4.340   3.990
 8765SOL    HW128127  13.193   4.375   4.071
 8765SOL    HW228128  13.205   4.402   3.922
 8766SOL     OW28129  10.616  13.081  13.004
 8766SOL    HW128130  10.709  13.080  12.982
 8766SOL    HW228131  10.611  13.126  13.088
 8767SOL     OW28132   4.376   2.651  12.482
 8767SOL    HW128133   4.447   2.709  12.455
 8767SOL    HW228134   4.324   2.637  12.403
 8768SOL     OW28135  11.675   4.872  13.670
 8768SOL    HW128136  11.640   4.885  13.582
 8768SOL    HW228137  11.747   4.810  13.658
 8769SOL     OW28138  13.075   1.329  11.947
 8769SOL    HW128139  13.048   1.408  11.901
 8769SOL    HW228140  13.010   1.318  12.016
 8770SOL     OW28141   5.318   0.756   5.346
 8770SOL    HW128142   5.360   0.836   5.377
 8770SOL    HW228143   5.328   0.694   5.418
 8771SOL     OW28144  11.630   8.743   1.767
 8771SOL    HW128145  11.605   8.741   1.859
 8771SOL    HW228146  11.608   8.832   1.738
 8772SOL     OW28147   9.073   4.601   1.928
 8772SOL    HW128148   9.101   4.684   1.891
 8772SOL    HW228149   9.108   4.535   1.867
 8773SOL     OW28150  14.834   0.665  14.704
 8773SOL    HW128151   0.010   0.695  14.779
 8773SOL    HW228152  14.812   0.746  14.656
 8774SOL     OW28153   0.587  11.207   7.477
 8774SOL    HW128154   0.643  11.136   7.445
 8774SOL    HW228155   0.516  11.162   7.523
 8775SOL     OW28156   4.236  14.781  13.065
 8775SOL    HW128157   4.258  14.762  13.156
 8775SOL    HW228158   4.149  14.743  13.052
 8776SOL     OW28159   6.595   4.569   1.980
 8776SOL    HW128160   6.602   4.474   1.989
 8776SOL    HW228161   6.567   4.599   2.067
 8777SOL     OW28162   5.088   6.996   3.887
 8777SOL    HW128163   5.092   6.903   3.866
 8777SOL    HW228164   5.107   7.040   3.804
 8778SOL     OW28165  13.018  11.699  12.891
 8778SOL    HW128166  13.006  11.613  12.930
 8778SOL    HW228167  13.113  11.712  12.889
 8779SOL     OW28168   1.596   8.673   3.239
 8779SOL    HW128169   1.666   8.739   3.236
 8779SOL    HW228170   1.516   8.724   3.257
 8780SOL     OW28171   4.129   1.409   0.180
 8780SOL    HW128172   4.063   1.394   0.113
 8780SOL    HW228173   4.095   1.480   0.233
 8781SOL     OW28174  14.166   5.903   5.124
 8781SOL    HW128175  14.244   5.907   5.069
 8781SOL    HW228176  14.196   5.858   5.204
 8782SOL     OW28177   2.331   0.329  10.628
 8782SOL    HW128178   2.342   0.235  10.611
 8782SOL    HW228179   2.313   0.335  10.722
 8783SOL     OW28180  14.668  14.333   0.934
 8783SOL    HW128181  14.600  14.299   0.876
 8783SOL    HW228182  14.719  14.393   0.879
 8784SOL     OW28183  10.028   3.012   0.819
 8784SOL    HW128184  10.024   3.096   0.865
 8784SOL    HW228185   9.997   3.032   0.731
 8785SOL     OW28186  14.046   2.583   6.341
 8785SOL    HW128187  14.061   2.539   6.257
 8785SOL    HW228188  14.075   2.519   6.406
 8786SOL     OW28189   0.090   9.068  12.242
 8786SOL    HW128190   0.162   9.006  12.244
 8786SOL    HW228191   0.022   9.023  12.191
 8787SOL     OW28192   0.542   8.409  13.374
 8787SOL    HW128193   0.527   8.326  13.420
 8787SOL    HW228194   0.491   8.400  13.293
 8788SOL     OW28195   3.765   7.852  13.292
 8788SOL    HW128196   3.847   7.804  13.287
 8788SOL    HW228197   3.706   7.806  13.233
 8789SOL     OW28198  10.004   9.934   9.110
 8789SOL    HW128199   9.913   9.912   9.131
 8789SOL    HW228200  10.006   9.938   9.014
 8790SOL     OW28201   5.089   5.635  11.965
 8790SOL    HW128202   5.072   5.723  11.931
 8790SOL    HW228203   5.065   5.576  11.893
 8791SOL     OW28204   8.582   0.516  14.413
 8791SOL    HW128205   8.652   0.564  14.457
 8791SOL    HW228206   8.503   0.542  14.459
 8792SOL     OW28207   8.295  14.616   9.858
 8792SOL    HW128208   8.221  14.633   9.916
 8792SOL    HW228209   8.368  14.596   9.918
 8793SOL     OW28210   4.005  14.209   0.015
 8793SOL    HW128211   3.939  14.235  14.828
 8793SOL    HW228212   3.980  14.254   0.096
 8794SOL     OW28213   8.844  12.097   4.539
 8794SOL    HW128214   8.909  12.035   4.572
 8794SOL    HW228215   8.895  12.173   4.511
 8795SOL     OW28216   4.859  14.374   1.619
 8795SOL    HW128217   4.918  14.335   1.554
 8795SOL    HW228218   4.771  14.354   1.585
 8796SOL     OW28219  14.513   4.324   7.683
 8796SOL    HW128220  14.597   4.291   7.714
 8796SOL    HW228221  14.535   4.389   7.616
 8797SOL     OW28222  11.150  11.337   0.988
 8797SOL    HW128223  11.200  11.384   1.056
 8797SOL    HW228224  11.085  11.401   0.958
 8798SOL     OW28225   5.008   5.904  11.871
 8798SOL    HW128226   5.034   5.975  11.929
 8798SOL    HW228227   4.989   5.947  11.787
 8799SOL     OW28228  14.171   5.999   4.729
 8799SOL    HW128229  14.081   5.971   4.741
 8799SOL    HW228230  14.222   5.944   4.789
 8800SOL     OW28231   4.462   1.390  12.306
 8800SOL    HW128232   4.400   1.332  12.348
 8800SOL    HW228233   4.495   1.341  12.230
 8801SOL     OW28234  13.613  10.199   6.264
 8801SOL    HW128235  13.572  10.115   6.242
 8801SOL    HW228236  13.552  10.240   6.325
 8802SOL     OW28237   3.046  12.348   5.461
 8802SOL    HW128238   3.114  12.391   5.410
 8802SOL    HW228239   2.964  12.375   5.418
 8803SOL     OW28240  14.824  10.829   3.377
 8803SOL    HW128241   0.002  10.834   3.298
 8803SOL    HW228242  14.861  10.756   3.426
 8804SOL     OW28243   8.594   5.588   3.622
 8804SOL    HW128244   8.560   5.655   3.562
 8804SOL    HW228245   8.584   5.627   3.709
 8805SOL     OW28246   1.628  10.580   5.270
 8805SOL    HW128247   1.603  10.601   5.180
 8805SOL    HW228248   1.560  10.520   5.300
 8806SOL     OW28249  13.786   4.278   6.749
 8806SOL    HW128250  13.717   4.284   6.683
 8806SOL    HW228251  13.835   4.199   6.724
 8807SOL     OW28252  12.330   3.292  12.998
 8807SOL    HW128253  12.244   3.250  13.004
 8807SOL    HW228254  12.324   3.367  13.057
 8808SOL     OW28255  10.977  11.868   3.650
 8808SOL    HW128256  11.016  11.788   3.616
 8808SOL    HW228257  11.051  11.928   3.660
 8809SOL     OW28258   7.200   2.977  14.336
 8809SOL    HW128259   7.182   3.065  14.303
 8809SOL    HW228260   7.114   2.943  14.361
 8810SOL     OW28261  10.789   7.983   3.584
 8810SOL    HW128262  10.850   7.992   3.511
 8810SOL    HW228263  10.709   7.948   3.544
 8811SOL     OW28264  10.297   9.765  10.853
 8811SOL    HW128265  10.306   9.671  10.868
 8811SOL    HW228266  10.329   9.805  10.934
 8812SOL     OW28267  10.596   1.204  12.472
 8812SOL    HW128268  10.650   1.274  12.509
 8812SOL    HW228269  10.517   1.249  12.440
 8813SOL     OW28270  13.500  10.445   7.142
 8813SOL    HW128271  13.412  10.412   7.159
 8813SOL    HW228272  13.558  10.371   7.162
 8814SOL     OW28273   7.222  10.380   6.460
 8814SOL    HW128274   7.227  10.306   6.399
 8814SOL    HW228275   7.295  10.367   6.520
 8815SOL     OW28276  11.253  12.387   2.926
 8815SOL    HW128277  11.292  12.473   2.941
 8815SOL    HW228278  11.186  12.403   2.860
 8816SOL     OW28279  10.867  13.688   7.045
 8816SOL    HW128280  10.893  13.602   7.011
 8816SOL    HW228281  10.889  13.750   6.975
 8817SOL     OW28282   6.546   0.237   5.499
 8817SOL    HW128283   6.455   0.259   5.477
 8817SOL    HW228284   6.581   0.199   5.419
 8818SOL     OW28285   8.256   7.908   3.840
 8818SOL    HW128286   8.218   7.839   3.785
 8818SOL    HW228287   8.215   7.989   3.810
 8819SOL     OW28288   9.014  11.024   8.227
 8819SOL    HW128289   8.950  10.962   8.262
 8819SOL    HW228290   9.005  11.016   8.132
 8820SOL     OW28291   2.834   1.995  11.393
 8820SOL    HW128292   2.763   1.961  11.447
 8820SOL    HW228293   2.813   1.966  11.304
 8821SOL     OW28294   3.702   5.482  12.227
 8821SOL    HW128295   3.788   5.443  12.240
 8821SOL    HW228296   3.702   5.559  12.283
 8822SOL     OW28297   8.672   6.876   8.510
 8822SOL    HW128298   8.644   6.823   8.435
 8822SOL    HW228299   8.714   6.814   8.569
 8823SOL     OW28300   0.937   0.607   2.060
 8823SOL    HW128301   0.847   0.636   2.046
 8823SOL    HW228302   0.949   0.610   2.155
 8824SOL     OW28303  14.658  10.796  10.734
 8824SOL    HW128304  14.748  10.801  10.767
 8824SOL    HW228305  14.618  10.877  10.763
 8825SOL     OW28306  12.079   4.507   8.648
 8825SOL    HW128307  12.054   4.592   8.613
 8825SOL    HW228308  12.026   4.444   8.598
 8826SOL     OW28309   5.865  14.799   5.198
 8826SOL    HW128310   5.886  14.819   5.289
 8826SOL    HW228311   5.936  14.838   5.147
 8827SOL     OW28312   8.954   8.008   0.605
 8827SOL    HW128313   8.996   8.081   0.559
 8827SOL    HW228314   8.880   8.048   0.651
 8828SOL     OW28315  14.309  11.382   5.135
 8828SOL    HW128316  14.263  11.302   5.111
 8828SOL    HW228317  14.276  11.448   5.075
 8829SOL     OW28318   5.853   7.614  14.812
 8829SOL    HW128319   5.764   7.651  14.808
 8829SOL    HW228320   5.907   7.679  14.767
 8830SOL     OW28321   1.845   5.898   8.799
 8830SOL    HW128322   1.795   5.900   8.717
 8830SOL    HW228323   1.934   5.923   8.773
 8831SOL     OW28324   6.045  12.440  10.597
 8831SOL    HW128325   6.137  12.453  10.572
 8831SOL    HW228326   6.004  12.405  10.518
 8832SOL     OW28327  13.211   2.355  10.879
 8832SOL    HW128328  13.257   2.272  10.890
 8832SOL    HW228329  13.226   2.379  10.787
 8833SOL     OW28330  10.929  13.041   8.238
 8833SOL    HW128331  10.889  12.956   8.218
 8833SOL    HW228332  10.912  13.053   8.332
 8834SOL     OW28333  12.479   5.078   4.645
 8834SOL    HW128334  12.528   5.050   4.722
 8834SOL    HW228335  12.469   4.999   4.593
 8835SOL     OW28336   8.895  12.257  12.369
 8835SOL    HW128337   8.816  12.286  12.416
 8835SOL    HW228338   8.862  12.216  12.289
 8836SOL     OW28339  10.920   7.295  10.029
 8836SOL    HW128340  10.862   7.366  10.001
 8836SOL    HW228341  10.870   7.216  10.010
 8837SOL     OW28342  11.033   4.746  14.744
 8837SOL    HW128343  11.038   4.783  14.656
 8837SOL    HW228344  11.024   4.652  14.731
 8838SOL     OW28345   3.118   5.126  12.538
 8838SOL    HW128346   3.172   5.134  12.617
 8838SOL    HW228347   3.180   5.104  12.469
 8839SOL     OW28348   1.661  12.293   0.965
 8839SOL    HW128349   1.655  12.384   0.994
 8839SOL    HW228350   1.663  12.242   1.045
 8840SOL     OW28351   6.307  11.600  11.665
 8840SOL    HW128352   6.243  11.639  11.726
 8840SOL    HW228353   6.389  11.643  11.687
 8841SOL     OW28354  13.834  12.886   7.874
 8841SOL    HW128355  13.825  12.896   7.779
 8841SOL    HW228356  13.787  12.806   7.895
 8842SOL     OW28357   0.805   9.834  14.088
 8842SOL    HW128358   0.758   9.895  14.031
 8842SOL    HW228359   0.896   9.864  14.085
 8843SOL     OW28360   4.823   0.753  12.415
 8843SOL    HW128361   4.813   0.772  12.508
 8843SOL    HW228362   4.882   0.678  12.412
 8844SOL     OW28363  10.179   4.949   8.797
 8844SOL    HW128364  10.154   5.042   8.801
 8844SOL    HW228365  10.098   4.903   8.776
 8845SOL     OW28366   3.534   3.733  11.875
 8845SOL    HW128367   3.521   3.808  11.817
 8845SOL    HW228368   3.550   3.659  11.817
 8846SOL     OW28369  11.124  13.678   4.487
 8846SOL    HW128370  11.067  13.752   4.506
 8846SOL    HW228371  11.152  13.646   4.573
 8847SOL     OW28372   3.287   0.518  14.841
 8847SOL    HW128373   3.376   0.492  14.865
 8847SOL    HW228374   3.254   0.447  14.787
 8848SOL     OW28375   5.023   8.692   0.806
 8848SOL    HW128376   5.102   8.746   0.801
 8848SOL    HW228377   5.007   8.665   0.715
 8849SOL     OW28378   4.804   6.404   5.237
 8849SOL    HW128379   4.711   6.387   5.256
 8849SOL    HW228380   4.811   6.499   5.234
 8850SOL     OW28381   1.135   5.069   7.577
 8850SOL    HW128382   1.154   5.065   7.483
 8850SOL    HW228383   1.179   5.149   7.606
 8851SOL     OW28384   9.834   8.845   8.862
 8851SOL    HW128385   9.759   8.786   8.865
 8851SOL    HW228386   9.857   8.850   8.769
 8852SOL     OW28387  13.497   4.674  10.017
 8852SOL    HW128388  13.511   4.761  10.054
 8852SOL    HW228389  13.584   4.643   9.993
 8853SOL     OW28390  14.803  10.838   3.811
 8853SOL    HW128391   0.002  10.778   3.808
 8853SOL    HW228392  14.727  10.780   3.817
 8854SOL     OW28393  14.003   1.171   0.098
 8854SOL    HW128394  14.091   1.134   0.098
 8854SOL    HW228395  13.986   1.196   0.188
 8855SOL     OW28396   7.263   7.479   9.129
 8855SOL    HW128397   7.233   7.510   9.043
 8855SOL    HW228398   7.262   7.556   9.184
 8856SOL     OW28399   9.425   8.630   3.507
 8856SOL    HW128400   9.418   8.679   3.425
 8856SOL    HW228401   9.384   8.545   3.487
 8857SOL     OW28402  13.228   6.734   0.112
 8857SOL    HW128403  13.175   6.801   0.157
 8857SOL    HW228404  13.171   6.700   0.043
 8858SOL     OW28405  10.618   8.115   9.528
 8858SOL    HW128406  10.680   8.045   9.512
 8858SOL    HW228407  10.607   8.158   9.443
 8859SOL     OW28408   1.414   1.244   0.866
 8859SOL    HW128409   1.433   1.153   0.842
 8859SOL    HW228410   1.487   1.268   0.924
 8860SOL     OW28411  10.982   1.131  13.710
 8860SOL    HW128412  11.041   1.204  13.691
 8860SOL    HW228413  10.910   1.142  13.648
 8861SOL     OW28414  12.285   2.266  13.536
 8861SOL    HW128415  12.240   2.322  13.472
 8861SOL    HW228416  12.264   2.177  13.509
 8862SOL     OW28417   2.097  13.882   0.621
 8862SOL    HW128418   2.171  13.823   0.603
 8862SOL    HW228419   2.124  13.931   0.698
 8863SOL     OW28420   2.819   5.482  11.136
 8863SOL    HW128421   2.812   5.391  11.107
 8863SOL    HW228422   2.901   5.513  11.096
 8864SOL     OW28423   8.549  11.081   3.660
 8864SOL    HW128424   8.541  11.175   3.672
 8864SOL    HW228425   8.542  11.068   3.565
 8865SOL     OW28426   5.852  12.410   8.568
 8865SOL    HW128427   5.767  12.384   8.532
 8865SOL    HW228428   5.831  12.463   8.644
 8866SOL     OW28429  12.169   9.741   5.151
 8866SOL    HW128430  12.104   9.737   5.221
 8866SOL    HW228431  12.134   9.804   5.089
 8867SOL     OW28432   6.681  14.717   2.579
 8867SOL    HW128433   6.695  14.631   2.618
 8867SOL    HW228434   6.769  14.756   2.575
 8868SOL     OW28435   7.575   7.606   2.275
 8868SOL    HW128436   7.584   7.511   2.284
 8868SOL    HW228437   7.483   7.618   2.250
 8869SOL     OW28438   0.859   0.681   2.324
 8869SOL    HW128439   0.766   0.681   2.301
 8869SOL    HW228440   0.878   0.771   2.349
 8870SOL     OW28441   7.015   3.160   9.356
 8870SOL    HW128442   6.958   3.182   9.429
 8870SOL    HW228443   7.018   3.064   9.356
 8871SOL     OW28444  14.464   7.226  10.678
 8871SOL    HW128445  14.478   7.136  10.709
 8871SOL    HW228446  14.521   7.233  10.601
 8872SOL     OW28447  10.901   7.937   4.525
 8872SOL    HW128448  10.840   7.952   4.598
 8872SOL    HW228449  10.961   8.011   4.529
 8873SOL     OW28450   7.150   6.793   1.343
 8873SOL    HW128451   7.209   6.718   1.334
 8873SOL    HW228452   7.184   6.841   1.419
 8874SOL     OW28453  11.924   7.826   3.378
 8874SOL    HW128454  11.855   7.888   3.353
 8874SOL    HW228455  12.000   7.851   3.326
 8875SOL     OW28456  14.489   8.554   1.323
 8875SOL    HW128457  14.450   8.578   1.407
 8875SOL    HW228458  14.546   8.479   1.343
 8876SOL     OW28459   4.718  10.691   7.921
 8876SOL    HW128460   4.745  10.770   7.874
 8876SOL    HW228461   4.656  10.721   7.986
 8877SOL     OW28462   2.904   9.052  10.126
 8877SOL    HW128463   2.809   9.044  10.110
 8877SOL    HW228464   2.922   8.990  10.197
 8878SOL     OW28465   6.035   1.400  14.718
 8878SOL    HW128466   6.115   1.350  14.701
 8878SOL    HW228467   6.066   1.485  14.748
 8879SOL     OW28468   9.701  14.454  12.470
 8879SOL    HW128469   9.666  14.491  12.551
 8879SOL    HW228470   9.654  14.371  12.459
 8880SOL     OW28471  12.924   0.898   3.471
 8880SOL    HW128472  12.842   0.936   3.438
 8880SOL    HW228473  12.965   0.969   3.519
 8881SOL     OW28474   6.790   8.705   2.724
 8881SOL    HW128475   6.738   8.765   2.672
 8881SOL    HW228476   6.817   8.636   2.663
 8882SOL     OW28477   5.339  12.323   0.056
 8882SOL    HW128478   5.421  12.369   0.037
 8882SOL    HW228479   5.319  12.344   0.147
 8883SOL     OW28480   0.578  11.638   0.416
 8883SOL    HW128481   0.635  11.565   0.440
 8883SOL    HW228482   0.631  11.716   0.432
 8884SOL     OW28483  11.180   8.553   5.641
 8884SOL    HW128484  11.252   8.491   5.656
 8884SOL    HW228485  11.220   8.624   5.591
 8885SOL     OW28486  11.065   6.657  12.141
 8885SOL    HW128487  11.088   6.745  12.109
 8885SOL    HW228488  11.037   6.610  12.063
 8886SOL     OW28489   0.897   0.996   2.444
 8886SOL    HW128490   0.851   1.037   2.371
 8886SOL    HW228491   0.860   1.039   2.522
 8887SOL     OW28492   1.860  11.766   3.115
 8887SOL    HW128493   1.869  11.712   3.193
 8887SOL    HW228494   1.878  11.855   3.145
 8888SOL     OW28495   8.663   0.111  11.220
 8888SOL    HW128496   8.742   0.101  11.272
 8888SOL    HW228497   8.669   0.041  11.155
 8889SOL     OW28498   5.059   4.300   6.754
 8889SOL    HW128499   5.045   4.389   6.723
 8889SOL    HW228500   5.115   4.260   6.688
 8890SOL     OW28501   5.529   0.994   8.747
 8890SOL    HW128502   5.470   0.945   8.690
 8890SOL    HW228503   5.492   1.082   8.752
 8891SOL     OW28504  13.123   6.373   6.225
 8891SOL    HW128505  13.211   6.401   6.246
 8891SOL    HW228506  13.121   6.368   6.129
 8892SOL     OW28507   1.183   5.307   4.205
 8892SOL    HW128508   1.179   5.375   4.139
 8892SOL    HW228509   1.172   5.353   4.288
 8893SOL     OW28510   0.226   5.397  10.114
 8893SOL    HW128511   0.270   5.459  10.172
 8893SOL    HW228512   0.262   5.312  10.139
 8894SOL     OW28513   1.666   7.124   5.973
 8894SOL    HW128514   1.715   7.122   6.055
 8894SOL    HW228515   1.731   7.148   5.907
 8895SOL     OW28516  14.670   0.805   2.530
 8895SOL    HW128517  14.745   0.845   2.486
 8895SOL    HW228518  14.657   0.858   2.609
 8896SOL     OW28519   3.051  10.600   3.167
 8896SOL    HW128520   2.996  10.677   3.155
 8896SOL    HW228521   3.038  10.548   3.088
 8897SOL     OW28522  12.300   2.612   9.414
 8897SOL    HW128523  12.387   2.652   9.416
 8897SOL    HW228524  12.282   2.590   9.506
 8898SOL     OW28525   1.023   0.389  11.025
 8898SOL    HW128526   0.988   0.391  11.114
 8898SOL    HW228527   1.091   0.322  11.027
 8899SOL     OW28528   6.428   6.816   6.673
 8899SOL    HW128529   6.412   6.722   6.674
 8899SOL    HW228530   6.377   6.850   6.746
 8900SOL     OW28531   2.227  11.208   5.767
 8900SOL    HW128532   2.140  11.187   5.733
 8900SOL    HW228533   2.211  11.245   5.854
 8901SOL     OW28534   9.688   4.231  12.423
 8901SOL    HW128535   9.764   4.262  12.472
 8901SOL    HW228536   9.616   4.235  12.485
 8902SOL     OW28537   0.428  14.436   8.302
 8902SOL    HW128538   0.511  14.393   8.324
 8902SOL    HW228539   0.372  14.419   8.377
 8903SOL     OW28540   7.747  12.954   3.659
 8903SOL    HW128541   7.781  13.041   3.681
 8903SOL    HW228542   7.816  12.914   3.607
 8904SOL     OW28543  14.271   3.665   9.147
 8904SOL    HW128544  14.234   3.590   9.193
 8904SOL    HW228545  14.346   3.691   9.201
 8905SOL     OW28546   6.682  14.309  12.184
 8905SOL    HW128547   6.611  14.246  12.176
 8905SOL    HW228548   6.738  14.293  12.108
 8906SOL     OW28549  13.573  12.661   3.855
 8906SOL    HW128550  13.486  12.622   3.846
 8906SOL    HW228551  13.633  12.588   3.845
 8907SOL     OW28552   4.132   6.444   3.146
 8907SOL    HW128553   4.069   6.516   3.142
 8907SOL    HW228554   4.212   6.483   3.179
 8908SOL     OW28555   8.178  11.669   8.574
 8908SOL    HW128556   8.214  11.681   8.661
 8908SOL    HW228557   8.093  11.627   8.588
 8909SOL     OW28558   1.134   1.455  14.759
 8909SOL    HW128559   1.168   1.414  14.839
 8909SOL    HW228560   1.161   1.396  14.688
 8910SOL     OW28561   1.620   3.615   3.708
 8910SOL    HW128562   1.526   3.620   3.729
 8910SOL    HW228563   1.642   3.523   3.719
 8911SOL     OW28564  10.662  10.337   0.952
 8911SOL    HW128565  10.660  10.426   0.918
 8911SOL    HW228566  10.570  10.314   0.964
 8912SOL     OW28567   8.493  11.269  13.893
 8912SOL    HW128568   8.586  11.275  13.915
 8912SOL    HW228569   8.469  11.178  13.912
 8913SOL     OW28570   0.527  11.051  12.151
 8913SOL    HW128571   0.444  11.036  12.107
 8913SOL    HW228572   0.543  10.969  12.199
 8914SOL     OW28573  13.873   4.027   2.922
 8914SOL    HW128574  13.930   4.032   2.999
 8914SOL    HW228575  13.809   4.097   2.935
 8915SOL     OW28576   1.034  10.761   3.202
 8915SOL    HW128577   0.980  10.834   3.232
 8915SOL    HW228578   1.124  10.791   3.215
 8916SOL     OW28579   4.216  12.686   9.859
 8916SOL    HW128580   4.190  12.767   9.903
 8916SOL    HW228581   4.165  12.685   9.779
 8917SOL     OW28582   1.488  13.735   9.119
 8917SOL    HW128583   1.540  13.759   9.042
 8917SOL    HW228584   1.445  13.653   9.095
 8918SOL     OW28585  12.834   7.427  12.536
 8918SOL    HW128586  12.797   7.515  12.525
 8918SOL    HW228587  12.844   7.394  12.446
 8919SOL     OW28588  12.567   4.606   6.554
 8919SOL    HW128589  12.566   4.612   6.458
 8919SOL    HW228590  12.490   4.656   6.582
 8920SOL     OW28591   8.784   8.106   9.015
 8920SOL    HW128592   8.750   8.018   8.997
 8920SOL    HW228593   8.785   8.111   9.111
 8921SOL     OW28594   4.720   2.227   8.373
 8921SOL    HW128595   4.802   2.271   8.398
 8921SOL    HW228596   4.694   2.269   8.291
 8922SOL     OW28597  12.786   7.162   4.670
 8922SOL    HW128598  12.705   7.205   4.697
 8922SOL    HW228599  12.785   7.167   4.574
 8923SOL     OW28600   2.422  12.245  12.225
 8923SOL    HW128601   2.423  12.271  12.317
 8923SOL    HW228602   2.458  12.320  12.178
 8924SOL     OW28603   8.659  14.722   8.573
 8924SOL    HW128604   8.725  14.779   8.534
 8924SOL    HW228605   8.576  14.758   8.544
 8925SOL     OW28606   4.982  11.801   2.382
 8925SOL    HW128607   4.980  11.801   2.478
 8925SOL    HW228608   5.019  11.716   2.359
 8926SOL     OW28609  13.250  12.343   9.936
 8926SOL    HW128610  13.166  12.297   9.944
 8926SOL    HW228611  13.316  12.274   9.938
 8927SOL     OW28612  10.735   4.779  13.152
 8927SOL    HW128613  10.709   4.869  13.136
 8927SOL    HW228614  10.765   4.779  13.243
 8928SOL     OW28615   5.864   2.620   2.816
 8928SOL    HW128616   5.960   2.616   2.809
 8928SOL    HW228617   5.836   2.528   2.811
 8929SOL     OW28618   7.957   0.587   0.345
 8929SOL    HW128619   7.912   0.563   0.264
 8929SOL    HW228620   8.029   0.644   0.316
 8930SOL     OW28621   6.473   1.210   9.213
 8930SOL    HW128622   6.480   1.299   9.248
 8930SOL    HW228623   6.530   1.211   9.136
 8931SOL     OW28624   8.454  13.486   0.515
 8931SOL    HW128625   8.482  13.458   0.602
 8931SOL    HW228626   8.453  13.582   0.520
 8932SOL     OW28627  14.388   4.363  11.474
 8932SOL    HW128628  14.467   4.352  11.420
 8932SOL    HW228629  14.336   4.429  11.427
 8933SOL     OW28630  10.208  10.798   4.253
 8933SOL    HW128631  10.198  10.741   4.177
 8933SOL    HW228632  10.303  10.812   4.260
 8934SOL     OW28633   9.235  10.674   2.178
 8934SOL    HW128634   9.265  10.608   2.241
 8934SOL    HW228635   9.140  10.676   2.189
 8935SOL     OW28636   1.244   6.191   9.438
 8935SOL    HW128637   1.334   6.216   9.460
 8935SOL    HW228638   1.241   6.097   9.457
 8936SOL     OW28639   3.532   6.754  11.440
 8936SOL    HW128640   3.521   6.823  11.374
 8936SOL    HW228641   3.443   6.721  11.456
 8937SOL     OW28642   8.511  11.467  12.732
 8937SOL    HW128643   8.570  11.538  12.756
 8937SOL    HW228644   8.433  11.482  12.785
 8938SOL     OW28645   2.528  14.562   8.006
 8938SOL    HW128646   2.515  14.477   7.964
 8938SOL    HW228647   2.566  14.541   8.091
 8939SOL     OW28648   1.682  10.214  14.794
 8939SOL    HW128649   1.724  10.292  14.759
 8939SOL    HW228650   1.682  10.226   0.013
 8940SOL     OW28651   9.371   2.405  14.850
 8940SOL    HW128652   9.367   2.448   0.060
 8940SOL    HW228653   9.375   2.476  14.787
 8941SOL     OW28654   6.164   1.320  11.088
 8941SOL    HW128655   6.255   1.342  11.107
 8941SOL    HW228656   6.154   1.229  11.118
 8942SOL     OW28657   7.954  13.285   6.012
 8942SOL    HW128658   7.938  13.233   5.933
 8942SOL    HW228659   8.004  13.361   5.981
 8943SOL     OW28660   1.672  10.182   3.269
 8943SOL    HW128661   1.644  10.104   3.221
 8943SOL    HW228662   1.619  10.253   3.233
 8944SOL     OW28663   6.926  10.878  14.601
 8944SOL    HW128664   6.975  10.804  14.635
 8944SOL    HW228665   6.977  10.909  14.526
 8945SOL     OW28666  10.917   6.568   6.083
 8945SOL    HW128667  10.844   6.608   6.131
 8945SOL    HW228668  10.994   6.591   6.134
 8946SOL     OW28669   4.706   6.438   4.959
 8946SOL    HW128670   4.800   6.422   4.947
 8946SOL    HW228671   4.667   6.351   4.956
 8947SOL     OW28672   8.786  12.394   8.030
 8947SOL    HW128673   8.876  12.362   8.034
 8947SOL    HW228674   8.739  12.330   7.976
 8948SOL     OW28675  12.573   7.814   7.026
 8948SOL    HW128676  12.511   7.883   7.047
 8948SOL    HW228677  12.520   7.744   6.987
 8949SOL     OW28678   7.689   9.994   0.089
 8949SOL    HW128679   7.606   9.951   0.110
 8949SOL    HW228680   7.718  10.032   0.172
 8950SOL     OW28681   1.486   5.917   1.645
 8950SOL    HW128682   1.445   5.866   1.715
 8950SOL    HW228683   1.504   6.002   1.684
 8951SOL     OW28684   9.823   3.147   8.220
 8951SOL    HW128685   9.898   3.121   8.167
 8951SOL    HW228686   9.755   3.167   8.156
 8952SOL     OW28687  10.727   3.299  10.409
 8952SOL    HW128688  10.798   3.336  10.460
 8952SOL    HW228689  10.768   3.229  10.358
 8953SOL     OW28690   1.162   2.103   1.491
 8953SOL    HW128691   1.076   2.071   1.462
 8953SOL    HW228692   1.154   2.109   1.587
 8954SOL     OW28693  14.242   9.003   5.133
 8954SOL    HW128694  14.215   9.037   5.219
 8954SOL    HW228695  14.176   8.936   5.112
 8955SOL     OW28696  12.466   4.012  12.227
 8955SOL    HW128697  12.423   4.079  12.280
 8955SOL    HW228698  12.461   3.933  12.280
 8956SOL     OW28699  11.679   2.037  14.616
 8956SOL    HW128700  11.769   2.023  14.586
 8956SOL    HW228701  11.666   1.971  14.685
 8957SOL     OW28702   5.070  14.056  14.404
 8957SOL    HW128703   5.014  13.979  14.395
 8957SOL    HW228704   5.078  14.068  14.499
 8958SOL     OW28705   5.739   2.621   0.576
 8958SOL    HW128706   5.713   2.530   0.564
 8958SOL    HW228707   5.835   2.619   0.573
 8959SOL     OW28708  11.551   0.697   4.828
 8959SOL    HW128709  11.503   0.755   4.768
 8959SOL    HW228710  11.581   0.755   4.898
 8960SOL     OW28711   5.003  10.358   7.548
 8960SOL    HW128712   4.966  10.445   7.560
 8960SOL    HW228713   5.030  10.330   7.636
 8961SOL     OW28714   2.143   3.165   2.292
 8961SOL    HW128715   2.166   3.255   2.269
 8961SOL    HW228716   2.199   3.111   2.236
 8962SOL     OW28717  10.132  14.393   6.481
 8962SOL    HW128718  10.099  14.482   6.468
 8962SOL    HW228719  10.223  14.397   6.453
 8963SOL     OW28720  12.200  14.411  11.342
 8963SOL    HW128721  12.264  14.404  11.272
 8963SOL    HW228722  12.159  14.324  11.347
 8964SOL     OW28723   6.601   5.317   8.288
 8964SOL    HW128724   6.606   5.244   8.226
 8964SOL    HW228725   6.598   5.395   8.234
 8965SOL     OW28726   2.035  12.912   4.844
 8965SOL    HW128727   2.118  12.915   4.891
 8965SOL    HW228728   2.058  12.881   4.757
 8966SOL     OW28729   8.519   2.731   2.863
 8966SOL    HW128730   8.472   2.692   2.937
 8966SOL    HW228731   8.596   2.675   2.851
 8967SOL     OW28732   7.631  10.998   1.330
 8967SOL    HW128733   7.625  11.091   1.307
 8967SOL    HW228734   7.609  10.952   1.248
 8968SOL     OW28735   1.767  12.902   2.587
 8968SOL    HW128736   1.687  12.885   2.537
 8968SOL    HW228737   1.797  12.987   2.555
 8969SOL     OW28738  10.804   1.611   9.390
 8969SOL    HW128739  10.743   1.660   9.445
 8969SOL    HW228740  10.859   1.563   9.452
 8970SOL     OW28741   8.969   1.741   7.733
 8970SOL    HW128742   9.056   1.779   7.741
 8970SOL    HW228743   8.982   1.659   7.686
 8971SOL     OW28744  10.701  10.785  12.593
 8971SOL    HW128745  10.694  10.876  12.566
 8971SOL    HW228746  10.786  10.779  12.637
 8972SOL     OW28747  10.860  11.233   5.295
 8972SOL    HW128748  10.862  11.195   5.383
 8972SOL    HW228749  10.921  11.180   5.244
 8973SOL     OW28750  11.432   9.830  10.399
 8973SOL    HW128751  11.526   9.818  10.391
 8973SOL    HW228752  11.421   9.922  10.424
 8974SOL     OW28753  12.937   6.015   8.860
 8974SOL    HW128754  12.894   6.024   8.945
 8974SOL    HW228755  13.023   5.978   8.880
 8975SOL     OW28756  10.578   7.619  11.853
 8975SOL    HW128757  10.531   7.686  11.803
 8975SOL    HW228758  10.654   7.665  11.889
 8976SOL     OW28759  14.865  10.071   7.127
 8976SOL    HW128760  14.800  10.009   7.160
 8976SOL    HW228761   0.072  10.042   7.166
 8977SOL     OW28762   1.087   5.336  12.556
 8977SOL    HW128763   1.126   5.413  12.599
 8977SOL    HW228764   1.005   5.368  12.519
 8978SOL     OW28765   9.687   6.181   0.694
 8978SOL    HW128766   9.622   6.245   0.723
 8978SOL    HW228767   9.747   6.231   0.638
 8979SOL     OW28768   5.686   8.836   2.135
 8979SOL    HW128769   5.621   8.803   2.197
 8979SOL    HW228770   5.770   8.812   2.174
 8980SOL     OW28771   3.036   0.565   0.057
 8980SOL    HW128772   3.122   0.553   0.015
 8980SOL    HW228773   3.017   0.481   0.098
 8981SOL     OW28774   5.132   5.490  10.015
 8981SOL    HW128775   5.172   5.486  10.102
 8981SOL    HW228776   5.102   5.401   9.998
 8982SOL     OW28777  11.415   1.465   6.826
 8982SOL    HW128778  11.345   1.459   6.761
 8982SOL    HW228779  11.432   1.559   6.834
 8983SOL     OW28780   3.817  13.291  13.845
 8983SOL    HW128781   3.886  13.349  13.813
 8983SOL    HW228782   3.860  13.235  13.909
 8984SOL     OW28783   2.429   6.286   6.225
 8984SOL    HW128784   2.461   6.269   6.137
 8984SOL    HW228785   2.505   6.318   6.273
 8985SOL     OW28786   2.502   9.901   7.212
 8985SOL    HW128787   2.558   9.977   7.194
 8985SOL    HW228788   2.550   9.851   7.279
 8986SOL     OW28789  11.568   8.657  14.626
 8986SOL    HW128790  11.571   8.752  14.634
 8986SOL    HW228791  11.633   8.637  14.557
 8987SOL     OW28792   1.658  13.603   4.184
 8987SOL    HW128793   1.645  13.509   4.178
 8987SOL    HW228794   1.572  13.641   4.164
 8988SOL     OW28795   7.440  12.996  11.851
 8988SOL    HW128796   7.371  12.971  11.912
 8988SOL    HW228797   7.396  13.055  11.789
 8989SOL     OW28798  12.204   7.547   3.250
 8989SOL    HW128799  12.298   7.558   3.259
 8989SOL    HW228800  12.170   7.636   3.239
 8990SOL     OW28801   9.832  10.735   8.828
 8990SOL    HW128802   9.878  10.665   8.783
 8990SOL    HW228803   9.844  10.716   8.921
 8991SOL     OW28804   1.570   0.748   5.780
 8991SOL    HW128805   1.576   0.658   5.747
 8991SOL    HW228806   1.484   0.778   5.751
 8992SOL     OW28807  12.457   0.523   3.764
 8992SOL    HW128808  12.414   0.514   3.679
 8992SOL    HW228809  12.439   0.614   3.790
 8993SOL     OW28810   6.137   1.797   7.102
 8993SOL    HW128811   6.099   1.839   7.025
 8993SOL    HW228812   6.079   1.723   7.120
 8994SOL     OW28813  10.596   2.557   4.812
 8994SOL    HW128814  10.560   2.537   4.726
 8994SOL    HW228815  10.691   2.563   4.798
 8995SOL     OW28816   7.488  11.144  11.436
 8995SOL    HW128817   7.581  11.164  11.436
 8995SOL    HW228818   7.479  11.069  11.376
 8996SOL     OW28819   3.276   6.222   8.861
 8996SOL    HW128820   3.305   6.219   8.952
 8996SOL    HW228821   3.194   6.272   8.864
 8997SOL     OW28822   6.255   7.846   4.248
 8997SOL    HW128823   6.345   7.814   4.240
 8997SOL    HW228824   6.201   7.766   4.244
 8998SOL     OW28825   6.494   5.310  13.886
 8998SOL    HW128826   6.570   5.364  13.863
 8998SOL    HW228827   6.506   5.291  13.979
 8999SOL     OW28828  12.456   0.330  10.365
 8999SOL    HW128829  12.471   0.253  10.420
 8999SOL    HW228830  12.508   0.314  10.286
 9000SOL     OW28831   5.564  10.910   5.441
 9000SOL    HW128832   5.552  10.989   5.493
 9000SOL    HW228833   5.644  10.926   5.392
 9001SOL     OW28834   3.407  12.545   6.914
 9001SOL    HW128835   3.380  12.634   6.894
 9001SOL    HW228836   3.457  12.517   6.837
 9002SOL     OW28837  13.816   3.356   8.634
 9002SOL    HW128838  13.904   3.330   8.661
 9002SOL    HW228839  13.831   3.416   8.561
 9003SOL     OW28840   7.166   5.469  14.224
 9003SOL    HW128841   7.253   5.436  14.202
 9003SOL    HW228842   7.118   5.468  14.141
 9004SOL     OW28843   9.239   5.132   6.625
 9004SOL    HW128844   9.155   5.146   6.581
 9004SOL    HW228845   9.295   5.203   6.593
 9005SOL     OW28846  12.940   5.886  14.188
 9005SOL    HW128847  12.890   5.944  14.130
 9005SOL    HW228848  12.974   5.819  14.130
 9006SOL     OW28849   0.322   6.087   5.261
 9006SOL    HW128850   0.334   6.148   5.188
 9006SOL    HW228851   0.259   6.130   5.318
 9007SOL     OW28852   3.896  14.754   0.507
 9007SOL    HW128853   3.965  14.814   0.478
 9007SOL    HW228854   3.913  14.741   0.600
 9008SOL     OW28855   7.647  11.687  14.111
 9008SOL    HW128856   7.740  11.678  14.092
 9008SOL    HW228857   7.629  11.618  14.176
 9009SOL     OW28858   6.323   6.519   9.597
 9009SOL    HW128859   6.364   6.604   9.578
 9009SOL    HW228860   6.242   6.520   9.547
 9010SOL     OW28861  13.302  14.394   8.998
 9010SOL    HW128862  13.304  14.331   9.070
 9010SOL    HW228863  13.249  14.351   8.931
 9011SOL     OW28864  13.779  14.337   2.559
 9011SOL    HW128865  13.858  14.291   2.586
 9011SOL    HW228866  13.709  14.297   2.610
 9012SOL     OW28867   2.957   0.990   3.152
 9012SOL    HW128868   2.935   0.921   3.214
 9012SOL    HW228869   2.890   0.985   3.084
 9013SOL     OW28870   4.902   5.229   2.338
 9013SOL    HW128871   4.844   5.256   2.267
 9013SOL    HW228872   4.934   5.143   2.312
 9014SOL     OW28873   9.056  11.023  12.210
 9014SOL    HW128874   9.076  10.930  12.209
 9014SOL    HW228875   9.062  11.050  12.119
 9015SOL     OW28876  10.429   4.344   8.673
 9015SOL    HW128877  10.430   4.434   8.705
 9015SOL    HW228878  10.360   4.342   8.607
 9016SOL     OW28879   2.562   4.757   3.725
 9016SOL    HW128880   2.504   4.780   3.652
 9016SOL    HW228881   2.593   4.841   3.759
 9017SOL     OW28882   1.079   6.651   4.522
 9017SOL    HW128883   0.984   6.657   4.517
 9017SOL    HW228884   1.110   6.740   4.506
 9018SOL     OW28885  14.447   1.663   8.801
 9018SOL    HW128886  14.399   1.585   8.776
 9018SOL    HW228887  14.508   1.633   8.868
 9019SOL     OW28888   5.711  12.917   0.314
 9019SOL    HW128889   5.637  12.865   0.347
 9019SOL    HW228890   5.695  12.924   0.220
 9020SOL     OW28891   5.805   0.627   6.140
 9020SOL    HW128892   5.722   0.673   6.155
 9020SOL    HW228893   5.786   0.536   6.163
 9021SOL     OW28894   1.864  12.877  12.240
 9021SOL    HW128895   1.891  12.902  12.152
 9021SOL    HW228896   1.789  12.933  12.259
 9022SOL     OW28897   8.214   1.472  12.590
 9022SOL    HW128898   8.267   1.394  12.574
 9022SOL    HW228899   8.172   1.455  12.675
 9023SOL     OW28900  13.501   3.222   7.224
 9023SOL    HW128901  13.473   3.130   7.227
 9023SOL    HW228902  13.592   3.220   7.253
 9024SOL     OW28903   2.276   4.107   6.508
 9024SOL    HW128904   2.193   4.059   6.508
 9024SOL    HW228905   2.322   4.074   6.431
 9025SOL     OW28906   4.301   1.382  11.570
 9025SOL    HW128907   4.355   1.307  11.543
 9025SOL    HW228908   4.216   1.366  11.529
 9026SOL     OW28909   1.878   9.270   9.296
 9026SOL    HW128910   1.932   9.204   9.338
 9026SOL    HW228911   1.789   9.236   9.304
 9027SOL     OW28912  12.930   7.628   1.611
 9027SOL    HW128913  12.857   7.684   1.635
 9027SOL    HW228914  12.901   7.583   1.531
 9028SOL     OW28915  13.282  11.380   5.285
 9028SOL    HW128916  13.350  11.343   5.341
 9028SOL    HW228917  13.246  11.304   5.239
 9029SOL     OW28918  12.416   6.248  12.886
 9029SOL    HW128919  12.497   6.197  12.891
 9029SOL    HW228920  12.348   6.188  12.916
 9030SOL     OW28921   8.463   4.578   8.863
 9030SOL    HW128922   8.428   4.628   8.789
 9030SOL    HW228923   8.549   4.617   8.881
 9031SOL     OW28924  10.880   0.671   4.295
 9031SOL    HW128925  10.823   0.596   4.277
 9031SOL    HW228926  10.827   0.747   4.273
 9032SOL     OW28927   0.110   9.303  11.972
 9032SOL    HW128928   0.032   9.350  11.940
 9032SOL    HW228929   0.105   9.312  12.068
 9033SOL     OW28930  10.247  13.790  10.046
 9033SOL    HW128931  10.281  13.710  10.088
 9033SOL    HW228932  10.253  13.857  10.113
 9034SOL     OW28933   8.357  11.364   1.749
 9034SOL    HW128934   8.410  11.410   1.684
 9034SOL    HW228935   8.281  11.420   1.763
 9035SOL     OW28936  12.656  11.229   4.124
 9035SOL    HW128937  12.706  11.263   4.198
 9035SOL    HW228938  12.579  11.285   4.120
 9036SOL     OW28939   9.253   0.205   5.114
 9036SOL    HW128940   9.160   0.183   5.118
 9036SOL    HW228941   9.257   0.278   5.052
 9037SOL     OW28942  12.014   6.802   1.072
 9037SOL    HW128943  11.930   6.757   1.063
 9037SOL    HW228944  12.043   6.781   1.160
 9038SOL     OW28945   2.697   4.019  11.160
 9038SOL    HW128946   2.650   3.937  11.169
 9038SOL    HW228947   2.730   4.038  11.248
 9039SOL     OW28948   2.726   4.429   1.807
 9039SOL    HW128949   2.791   4.489   1.771
 9039SOL    HW228950   2.655   4.486   1.836
 9040SOL     OW28951   4.778  10.834   5.360
 9040SOL    HW128952   4.755  10.911   5.308
 9040SOL    HW228953   4.873  10.839   5.371
 9041SOL     OW28954   5.448   4.506   7.762
 9041SOL    HW128955   5.496   4.542   7.687
 9041SOL    HW228956   5.402   4.430   7.727
 9042SOL     OW28957  14.088   1.846   2.872
 9042SOL    HW128958  14.085   1.761   2.827
 9042SOL    HW228959  14.053   1.828   2.959
 9043SOL     OW28960   7.854   9.925   8.531
 9043SOL    HW128961   7.898   9.953   8.451
 9043SOL    HW228962   7.814  10.005   8.566
 9044SOL     OW28963   2.163   6.966   5.800
 9044SOL    HW128964   2.205   6.880   5.792
 9044SOL    HW228965   2.121   6.964   5.886
 9045SOL     OW28966   9.806  14.493   4.600
 9045SOL    HW128967   9.747  14.568   4.595
 9045SOL    HW228968   9.868  14.515   4.670
 9046SOL     OW28969  10.857   6.200   0.892
 9046SOL    HW128970  10.805   6.166   0.965
 9046SOL    HW228971  10.872   6.124   0.836
 9047SOL     OW28972   2.772   1.678   8.556
 9047SOL    HW128973   2.703   1.666   8.622
 9047SOL    HW228974   2.819   1.756   8.586
 9048SOL     OW28975   9.774   5.760   2.805
 9048SOL    HW128976   9.682   5.735   2.802
 9048SOL    HW228977   9.773   5.855   2.810
 9049SOL     OW28978   5.407   1.630  14.268
 9049SOL    HW128979   5.493   1.629  14.311
 9049SOL    HW228980   5.349   1.670  14.332
 9050SOL     OW28981   9.324   8.969   7.304
 9050SOL    HW128982   9.363   8.912   7.237
 9050SOL    HW228983   9.324   8.915   7.384
 9051SOL     OW28984   6.599   6.787   9.889
 9051SOL    HW128985   6.565   6.862   9.840
 9051SOL    HW228986   6.589   6.812   9.981
 9052SOL     OW28987   2.509   5.600   8.770
 9052SOL    HW128988   2.600   5.600   8.801
 9052SOL    HW228989   2.515   5.574   8.678
 9053SOL     OW28990   0.787   3.537  10.412
 9053SOL    HW128991   0.815   3.453  10.448
 9053SOL    HW228992   0.694   3.543  10.437
 9054SOL     OW28993   1.466   3.497   7.598
 9054SOL    HW128994   1.504   3.441   7.665
 9054SOL    HW228995   1.461   3.442   7.520
 9055SOL     OW28996  11.055   7.977   0.330
 9055SOL    HW128997  11.124   8.035   0.359
 9055SOL    HW228998  10.974   8.023   0.352
 9056SOL     OW28999   1.442   7.699   4.416
 9056SOL    HW129000   1.474   7.779   4.375
 9056SOL    HW229001   1.431   7.722   4.508
 9057SOL     OW29002   2.292  14.574   8.338
 9057SOL    HW129003   2.238  14.615   8.270
 9057SOL    HW229004   2.236  14.506   8.375
 9058SOL     OW29005  13.688  12.617   0.349
 9058SOL    HW129006  13.607  12.667   0.345
 9058SOL    HW229007  13.755  12.677   0.315
 9059SOL     OW29008   4.785   5.657   1.344
 9059SOL    HW129009   4.696   5.672   1.376
 9059SOL    HW229010   4.837   5.728   1.383
 9060SOL     OW29011   6.628   4.062   4.196
 9060SOL    HW129012   6.603   4.076   4.287
 9060SOL    HW229013   6.722   4.046   4.198
 9061SOL     OW29014   4.537   1.580   0.779
 9061SOL    HW129015   4.543   1.645   0.849
 9061SOL    HW229016   4.611   1.600   0.722
 9062SOL     OW29017   8.672  14.681   6.361
 9062SOL    HW129018   8.710  14.642   6.440
 9062SOL    HW229019   8.597  14.625   6.340
 9063SOL     OW29020   7.082   0.738   1.614
 9063SOL    HW129021   7.120   0.797   1.548
 9063SOL    HW229022   7.104   0.779   1.698
 9064SOL     OW29023  12.838  14.261   0.007
 9064SOL    HW129024  12.783  14.189  14.849
 9064SOL    HW229025  12.811  14.337  14.831
 9065SOL     OW29026   9.481   1.980   4.243
 9065SOL    HW129027   9.569   1.942   4.245
 9065SOL    HW229028   9.427   1.913   4.201
 9066SOL     OW29029  13.119   7.335   0.930
 9066SOL    HW129030  13.102   7.393   0.856
 9066SOL    HW229031  13.208   7.304   0.916
 9067SOL     OW29032   5.820  10.789   8.258
 9067SOL    HW129033   5.821  10.817   8.166
 9067SOL    HW229034   5.790  10.699   8.255
 9068SOL     OW29035   6.044  12.756   3.775
 9068SOL    HW129036   5.984  12.707   3.719
 9068SOL    HW229037   6.014  12.740   3.864
 9069SOL     OW29038  13.199  12.277   4.624
 9069SOL    HW129039  13.227  12.343   4.561
 9069SOL    HW229040  13.267  12.210   4.621
 9070SOL     OW29041   4.128  10.852   8.822
 9070SOL    HW129042   4.118  10.775   8.879
 9070SOL    HW229043   4.084  10.922   8.870
 9071SOL     OW29044  13.153  11.557   1.318
 9071SOL    HW129045  13.090  11.586   1.252
 9071SOL    HW229046  13.226  11.618   1.310
 9072SOL     OW29047  14.864  14.543  12.798
 9072SOL    HW129048   0.081  14.566  12.795
 9072SOL    HW229049  14.834  14.555  12.708
 9073SOL     OW29050   0.694   7.269   2.296
 9073SOL    HW129051   0.772   7.322   2.279
 9073SOL    HW229052   0.690   7.262   2.391
 9074SOL     OW29053   4.988  11.209   3.972
 9074SOL    HW129054   4.901  11.238   3.943
 9074SOL    HW229055   4.989  11.229   4.065
 9075SOL     OW29056   5.527  14.482   3.885
 9075SOL    HW129057   5.560  14.552   3.829
 9075SOL    HW229058   5.434  14.502   3.896
 9076SOL     OW29059   4.156   4.167  12.205
 9076SOL    HW129060   4.087   4.205  12.258
 9076SOL    HW229061   4.148   4.073  12.218
 9077SOL     OW29062   5.428   8.655   1.508
 9077SOL    HW129063   5.357   8.666   1.571
 9077SOL    HW229064   5.385   8.662   1.423
 9078SOL     OW29065   2.404   3.069  12.351
 9078SOL    HW129066   2.331   3.117  12.312
 9078SOL    HW229067   2.385   3.070  12.445
 9079SOL     OW29068  11.532   0.150   1.678
 9079SOL    HW129069  11.436   0.155   1.680
 9079SOL    HW229070  11.558   0.223   1.622
 9080SOL     OW29071  12.304   7.136   6.760
 9080SOL    HW129072  12.345   7.086   6.688
 9080SOL    HW229073  12.210   7.132   6.741
 9081SOL     OW29074   3.494   7.979   6.745
 9081SOL    HW129075   3.492   7.884   6.736
 9081SOL    HW229076   3.457   8.012   6.663
 9082SOL     OW29077  12.363   4.161   0.604
 9082SOL    HW129078  12.402   4.167   0.691
 9082SOL    HW229079  12.345   4.252   0.579
 9083SOL     OW29080  10.306   9.705   2.148
 9083SOL    HW129081  10.272   9.788   2.182
 9083SOL    HW229082  10.252   9.687   2.071
 9084SOL     OW29083  12.980   9.871   8.295
 9084SOL    HW129084  13.067   9.839   8.273
 9084SOL    HW229085  12.931   9.867   8.212
 9085SOL     OW29086  13.774  10.685   9.451
 9085SOL    HW129087  13.750  10.596   9.478
 9085SOL    HW229088  13.806  10.675   9.362
 9086SOL     OW29089   7.530  12.610   7.110
 9086SOL    HW129090   7.506  12.595   7.019
 9086SOL    HW229091   7.450  12.592   7.159
 9087SOL     OW29092   6.018  13.464  14.103
 9087SOL    HW129093   6.022  13.559  14.110
 9087SOL    HW229094   6.055  13.444  14.017
 9088SOL     OW29095   1.469   3.566   6.552
 9088SOL    HW129096   1.551   3.610   6.531
 9088SOL    HW229097   1.476   3.480   6.511
 9089SOL     OW29098   6.124   5.492   8.172
 9089SOL    HW129099   6.052   5.555   8.183
 9089SOL    HW229100   6.164   5.516   8.088
 9090SOL     OW29101   7.995   0.704   2.169
 9090SOL    HW129102   8.082   0.744   2.179
 9090SOL    HW229103   7.973   0.717   2.077
 9091SOL     OW29104   9.512  11.267  13.179
 9091SOL    HW129105   9.417  11.269  13.191
 9091SOL    HW229106   9.528  11.328  13.107
 9092SOL     OW29107   1.852   8.126   1.246
 9092SOL    HW129108   1.770   8.158   1.207
 9092SOL    HW229109   1.920   8.155   1.184
 9093SOL     OW29110  11.670  12.436   0.822
 9093SOL    HW129111  11.694  12.528   0.816
 9093SOL    HW229112  11.751  12.392   0.847
 9094SOL     OW29113   2.195  12.550  13.867
 9094SOL    HW129114   2.143  12.630  13.857
 9094SOL    HW229115   2.172  12.516  13.953
 9095SOL     OW29116  12.232   1.492  12.950
 9095SOL    HW129117  12.189   1.533  12.875
 9095SOL    HW229118  12.183   1.411  12.965
 9096SOL     OW29119  14.168  13.288   6.753
 9096SOL    HW129120  14.121  13.205   6.743
 9096SOL    HW229121  14.239  13.269   6.814
 9097SOL     OW29122  11.948   9.744   1.205
 9097SOL    HW129123  11.994   9.661   1.214
 9097SOL    HW229124  11.856   9.720   1.195
 9098SOL     OW29125  11.766   7.162  14.182
 9098SOL    HW129126  11.850   7.134  14.217
 9098SOL    HW229127  11.732   7.224  14.246
 9099SOL     OW29128   4.846  11.976  10.245
 9099SOL    HW129129   4.813  12.028  10.319
 9099SOL    HW229130   4.814  12.023  10.167
 9100SOL     OW29131   9.466   4.291  12.558
 9100SOL    HW129132   9.396   4.356  12.549
 9100SOL    HW229133   9.423   4.207  12.543
 9101SOL     OW29134  11.995   1.572   1.946
 9101SOL    HW129135  11.955   1.587   2.031
 9101SOL    HW229136  11.957   1.490   1.916
 9102SOL     OW29137   5.965   8.081   4.403
 9102SOL    HW129138   5.915   8.033   4.337
 9102SOL    HW229139   5.905   8.151   4.431
 9103SOL     OW29140   2.785  11.856   1.068
 9103SOL    HW129141   2.821  11.940   1.038
 9103SOL    HW229142   2.694  11.857   1.039
 9104SOL     OW29143   4.852   3.237   2.794
 9104SOL    HW129144   4.877   3.229   2.702
 9104SOL    HW229145   4.778   3.177   2.805
 9105SOL     OW29146   0.593  14.050  12.966
 9105SOL    HW129147   0.603  14.044  13.061
 9105SOL    HW229148   0.499  14.063  12.953
 9106SOL     OW29149  12.826  10.935   2.559
 9106SOL    HW129150  12.757  10.877   2.526
 9106SOL    HW229151  12.815  10.935   2.654
 9107SOL     OW29152  11.627   8.061  10.436
 9107SOL    HW129153  11.600   8.054  10.528
 9107SOL    HW229154  11.713   8.018  10.433
 9108SOL     OW29155   2.555   3.089  11.412
 9108SOL    HW129156   2.504   3.070  11.491
 9108SOL    HW229157   2.633   3.034  11.421
 9109SOL     OW29158   0.634   5.100   2.280
 9109SOL    HW129159   0.616   5.060   2.195
 9109SOL    HW229160   0.618   5.030   2.343
 9110SOL     OW29161   5.090   5.056   3.841
 9110SOL    HW129162   5.101   5.056   3.746
 9110SOL    HW229163   5.067   4.965   3.862
 9111SOL     OW29164   5.349  10.541   3.634
 9111SOL    HW129165   5.278  10.487   3.600
 9111SOL    HW229166   5.429  10.497   3.605
 9112SOL     OW29167  13.807  13.404  12.178
 9112SOL    HW129168  13.819  13.353  12.258
 9112SOL    HW229169  13.854  13.486  12.194
 9113SOL     OW29170   9.370   3.499   4.685
 9113SOL    HW129171   9.311   3.436   4.727
 9113SOL    HW229172   9.368   3.475   4.592
 9114SOL     OW29173   6.298   3.660   6.019
 9114SOL    HW129174   6.222   3.611   6.051
 9114SOL    HW229175   6.364   3.593   6.002
 9115SOL     OW29176   0.353  13.933   0.717
 9115SOL    HW129177   0.393  13.885   0.645
 9115SOL    HW229178   0.265  13.896   0.724
 9116SOL     OW29179   4.302  12.591   2.671
 9116SOL    HW129180   4.382  12.556   2.711
 9116SOL    HW229181   4.333  12.645   2.599
 9117SOL     OW29182   2.492   9.222   4.393
 9117SOL    HW129183   2.506   9.127   4.384
 9117SOL    HW229184   2.575   9.261   4.365
 9118SOL     OW29185   0.372   8.509   4.759
 9118SOL    HW129186   0.388   8.415   4.755
 9118SOL    HW229187   0.290   8.522   4.711
 9119SOL     OW29188  11.837  11.160  14.262
 9119SOL    HW129189  11.904  11.207  14.310
 9119SOL    HW229190  11.838  11.199  14.174
 9120SOL     OW29191   7.731  13.636   7.562
 9120SOL    HW129192   7.770  13.591   7.487
 9120SOL    HW229193   7.797  13.630   7.630
 9121SOL     OW29194  14.220   2.448   4.129
 9121SOL    HW129195  14.269   2.503   4.068
 9121SOL    HW229196  14.231   2.491   4.214
 9122SOL     OW29197   0.693   0.377   6.321
 9122SOL    HW129198   0.749   0.455   6.327
 9122SOL    HW229199   0.729   0.326   6.249
 9123SOL     OW29200   3.099   6.394  10.534
 9123SOL    HW129201   3.046   6.319  10.505
 9123SOL    HW229202   3.146   6.422  10.456
 9124SOL     OW29203  11.085  10.689   7.164
 9124SOL    HW129204  11.084  10.594   7.163
 9124SOL    HW229205  11.171  10.712   7.200
 9125SOL     OW29206   8.641   8.655   7.367
 9125SOL    HW129207   8.728   8.661   7.406
 9125SOL    HW229208   8.646   8.580   7.308
 9126SOL     OW29209   2.365  10.293   9.437
 9126SOL    HW129210   2.326  10.299   9.350
 9126SOL    HW229211   2.296  10.256   9.492
 9127SOL     OW29212  11.643   6.153   8.020
 9127SOL    HW129213  11.676   6.118   7.937
 9127SOL    HW229214  11.615   6.242   7.999
 9128SOL     OW29215  10.489   7.362   8.718
 9128SOL    HW129216  10.402   7.394   8.696
 9128SOL    HW229217  10.515   7.309   8.642
 9129SOL     OW29218  13.634  13.142   7.850
 9129SOL    HW129219  13.555  13.194   7.832
 9129SOL    HW229220  13.603  13.051   7.849
 9130SOL     OW29221  14.214   3.257   6.396
 9130SOL    HW129222  14.230   3.310   6.473
 9130SOL    HW229223  14.147   3.195   6.423
 9131SOL     OW29224   5.010   8.426   3.934
 9131SOL    HW129225   4.965   8.482   3.870
 9131SOL    HW229226   5.065   8.486   3.984
 9132SOL     OW29227  11.495   4.163   0.436
 9132SOL    HW129228  11.434   4.186   0.365
 9132SOL    HW229229  11.580   4.153   0.392
 9133SOL     OW29230   8.707   3.213   1.321
 9133SOL    HW129231   8.707   3.289   1.380
 9133SOL    HW229232   8.785   3.225   1.267
 9134SOL     OW29233   9.680  10.377   1.062
 9134SOL    HW129234   9.623  10.387   0.985
 9134SOL    HW229235   9.767  10.399   1.030
 9135SOL     OW29236   8.421   5.091  10.243
 9135SOL    HW129237   8.493   5.127  10.191
 9135SOL    HW229238   8.440   5.120  10.332
 9136SOL     OW29239  13.146   6.985   2.189
 9136SOL    HW129240  13.199   7.057   2.222
 9136SOL    HW229241  13.130   6.930   2.266
 9137SOL     OW29242   7.582   8.647   6.281
 9137SOL    HW129243   7.639   8.686   6.347
 9137SOL    HW229244   7.512   8.605   6.331
 9138SOL     OW29245  10.600  11.917   1.864
 9138SOL    HW129246  10.608  11.920   1.768
 9138SOL    HW229247  10.611  11.825   1.886
 9139SOL     OW29248  14.705  11.221   0.854
 9139SOL    HW129249  14.712  11.220   0.758
 9139SOL    HW229250  14.730  11.133   0.881
 9140SOL     OW29251   1.064   8.527   7.331
 9140SOL    HW129252   1.132   8.507   7.395
 9140SOL    HW229253   1.112   8.557   7.254
 9141SOL     OW29254  12.786   5.342   2.820
 9141SOL    HW129255  12.823   5.362   2.905
 9141SOL    HW229256  12.856   5.296   2.773
 9142SOL     OW29257   2.421   4.298   7.546
 9142SOL    HW129258   2.365   4.266   7.476
 9142SOL    HW229259   2.362   4.314   7.619
 9143SOL     OW29260   7.974   0.844  10.998
 9143SOL    HW129261   7.898   0.801  10.958
 9143SOL    HW229262   8.041   0.841  10.930
 9144SOL     OW29263   5.204  10.544  13.697
 9144SOL    HW129264   5.117  10.583  13.713
 9144SOL    HW229265   5.196  10.504  13.611
 9145SOL     OW29266   9.160  12.734   3.534
 9145SOL    HW129267   9.157  12.748   3.439
 9145SOL    HW229268   9.158  12.639   3.544
 9146SOL     OW29269  12.115   1.419  11.409
 9146SOL    HW129270  12.201   1.427  11.450
 9146SOL    HW229271  12.054   1.458  11.473
 9147SOL     OW29272   5.247  11.274   5.521
 9147SOL    HW129273   5.341  11.283   5.537
 9147SOL    HW229274   5.206  11.333   5.584
 9148SOL     OW29275   4.128  12.659   6.432
 9148SOL    HW129276   4.071  12.619   6.497
 9148SOL    HW229277   4.216  12.646   6.466
 9149SOL     OW29278  12.681  10.482   0.153
 9149SOL    HW129279  12.625  10.507   0.080
 9149SOL    HW229280  12.683  10.386   0.150
 9150SOL     OW29281   0.960   8.692   8.082
 9150SOL    HW129282   0.933   8.604   8.053
 9150SOL    HW229283   0.903   8.710   8.157
 9151SOL     OW29284  10.465   9.568   4.155
 9151SOL    HW129285  10.417   9.571   4.238
 9151SOL    HW229286  10.557   9.565   4.181
 9152SOL     OW29287  14.177   5.759  10.193
 9152SOL    HW129288  14.105   5.697  10.199
 9152SOL    HW229289  14.214   5.763  10.281
 9153SOL     OW29290  10.159  12.893   3.976
 9153SOL    HW129291  10.079  12.864   3.933
 9153SOL    HW229292  10.180  12.976   3.934
 9154SOL     OW29293   3.604  13.628  14.306
 9154SOL    HW129294   3.535  13.605  14.368
 9154SOL    HW229295   3.667  13.679  14.357
 9155SOL     OW29296   1.460  11.475   7.614
 9155SOL    HW129297   1.420  11.493   7.699
 9155SOL    HW229298   1.390  11.487   7.551
 9156SOL     OW29299   9.560   6.875   3.876
 9156SOL    HW129300   9.594   6.964   3.868
 9156SOL    HW229301   9.496   6.868   3.805
 9157SOL     OW29302   4.399  11.363  12.054
 9157SOL    HW129303   4.321  11.307  12.058
 9157SOL    HW229304   4.371  11.440  12.004
 9158SOL     OW29305  11.139  14.826   5.927
 9158SOL    HW129306  11.135   0.024   5.988
 9158SOL    HW229307  11.214  14.774   5.958
 9159SOL     OW29308   8.062  10.135  14.675
 9159SOL    HW129309   8.105  10.090  14.603
 9159SOL    HW229310   7.981  10.086  14.689
 9160SOL     OW29311   4.191   9.850   1.299
 9160SOL    HW129312   4.162   9.808   1.218
 9160SOL    HW229313   4.247   9.922   1.271
 9161SOL     OW29314   9.611   5.945   5.234
 9161SOL    HW129315   9.581   5.863   5.195
 9161SOL    HW229316   9.649   5.920   5.318
 9162SOL     OW29317   9.478   0.793   2.234
 9162SOL    HW129318   9.495   0.718   2.178
 9162SOL    HW229319   9.564   0.816   2.270
 9163SOL     OW29320  12.003   4.763   8.542
 9163SOL    HW129321  12.074   4.758   8.478
 9163SOL    HW229322  11.926   4.789   8.490
 9164SOL     OW29323  11.317   1.729   6.634
 9164SOL    HW129324  11.256   1.791   6.674
 9164SOL    HW229325  11.271   1.645   6.638
 9165SOL     OW29326   1.992   6.062   0.023
 9165SOL    HW129327   1.947   6.082   0.105
 9165SOL    HW229328   2.070   6.116   0.024
 9166SOL     OW29329  13.434   5.231   3.711
 9166SOL    HW129330  13.346   5.233   3.673
 9166SOL    HW229331  13.429   5.289   3.787
 9167SOL     OW29332   0.968  11.326   1.758
 9167SOL    HW129333   0.941  11.375   1.835
 9167SOL    HW229334   1.063  11.318   1.766
 9168SOL     OW29335   4.939   2.294   2.043
 9168SOL    HW129336   5.011   2.289   2.106
 9168SOL    HW229337   4.890   2.372   2.069
 9169SOL     OW29338   7.928   5.847   9.083
 9169SOL    HW129339   7.905   5.758   9.111
 9169SOL    HW229340   7.844   5.885   9.056
 9170SOL     OW29341   3.775   2.663   8.125
 9170SOL    HW129342   3.787   2.756   8.108
 9170SOL    HW229343   3.843   2.641   8.188
 9171SOL     OW29344   5.296   6.094   9.058
 9171SOL    HW129345   5.266   6.180   9.088
 9171SOL    HW229346   5.391   6.095   9.070
 9172SOL     OW29347   0.426   4.919   8.169
 9172SOL    HW129348   0.362   4.873   8.115
 9172SOL    HW229349   0.374   4.969   8.231
 9173SOL     OW29350   3.300   3.498   7.355
 9173SOL    HW129351   3.279   3.469   7.443
 9173SOL    HW229352   3.243   3.446   7.298
 9174SOL     OW29353   8.690  13.497   8.486
 9174SOL    HW129354   8.668  13.515   8.395
 9174SOL    HW229355   8.717  13.405   8.486
 9175SOL     OW29356   9.407   6.318   3.698
 9175SOL    HW129357   9.397   6.223   3.686
 9175SOL    HW229358   9.324   6.346   3.737
 9176SOL     OW29359   3.582   4.143   4.738
 9176SOL    HW129360   3.553   4.210   4.801
 9176SOL    HW229361   3.676   4.136   4.752
 9177SOL     OW29362   9.234   4.275   5.340
 9177SOL    HW129363   9.302   4.273   5.408
 9177SOL    HW229364   9.282   4.264   5.258
 9178SOL     OW29365   7.561   5.770   1.742
 9178SOL    HW129366   7.569   5.675   1.745
 9178SOL    HW229367   7.467   5.785   1.726
 9179SOL     OW29368  13.436   8.988   8.079
 9179SOL    HW129369  13.491   8.964   8.004
 9179SOL    HW229370  13.445   9.083   8.085
 9180SOL     OW29371   5.855   5.590   9.484
 9180SOL    HW129372   5.872   5.544   9.402
 9180SOL    HW229373   5.894   5.533   9.551
 9181SOL     OW29374   0.554  10.398  11.739
 9181SOL    HW129375   0.514  10.448  11.810
 9181SOL    HW229376   0.493  10.407  11.666
 9182SOL     OW29377   8.258  10.000   4.692
 9182SOL    HW129378   8.246   9.957   4.776
 9182SOL    HW229379   8.192   9.961   4.635
 9183SOL     OW29380   8.866  12.198   0.699
 9183SOL    HW129381   8.885  12.177   0.790
 9183SOL    HW229382   8.838  12.290   0.701
 9184SOL     OW29383   5.202  12.953  13.871
 9184SOL    HW129384   5.139  12.969  13.941
 9184SOL    HW229385   5.286  12.977  13.909
 9185SOL     OW29386   9.761   6.190  11.062
 9185SOL    HW129387   9.676   6.165  11.100
 9185SOL    HW229388   9.803   6.242  11.130
 9186SOL     OW29389   1.669   0.894   6.411
 9186SOL    HW129390   1.701   0.965   6.356
 9186SOL    HW229391   1.661   0.933   6.499
 9187SOL     OW29392   1.075   3.280   0.048
 9187SOL    HW129393   1.092   3.330   0.128
 9187SOL    HW229394   1.101   3.340  14.853
 9188SOL     OW29395   7.008   0.969  14.385
 9188SOL    HW129396   7.022   0.940  14.295
 9188SOL    HW229397   7.018   0.890  14.438
 9189SOL     OW29398   3.124   1.273  13.925
 9189SOL    HW129399   3.181   1.201  13.951
 9189SOL    HW229400   3.087   1.306  14.007
 9190SOL     OW29401  13.152   1.914   8.078
 9190SOL    HW129402  13.142   2.004   8.047
 9190SOL    HW229403  13.173   1.923   8.171
 9191SOL     OW29404  12.173  12.596   3.323
 9191SOL    HW129405  12.141  12.674   3.366
 9191SOL    HW229406  12.107  12.529   3.340
 9192SOL     OW29407   2.992   0.843  13.749
 9192SOL    HW129408   2.997   0.879  13.661
 9192SOL    HW229409   3.077   0.866  13.789
 9193SOL     OW29410   3.245  12.431   8.226
 9193SOL    HW129411   3.179  12.394   8.167
 9193SOL    HW229412   3.199  12.500   8.274
 9194SOL     OW29413   2.483  12.894   6.774
 9194SOL    HW129414   2.518  12.980   6.752
 9194SOL    HW229415   2.550  12.854   6.830
 9195SOL     OW29416  14.079   3.887   0.218
 9195SOL    HW129417  14.030   3.919   0.142
 9195SOL    HW229418  14.115   3.803   0.191
 9196SOL     OW29419   7.992   1.072   4.019
 9196SOL    HW129420   8.057   1.011   3.985
 9196SOL    HW229421   8.022   1.158   3.989
 9197SOL     OW29422   1.927   5.563  11.105
 9197SOL    HW129423   1.849   5.569  11.161
 9197SOL    HW229424   1.905   5.494  11.041
 9198SOL     OW29425  10.187   8.977  13.574
 9198SOL    HW129426  10.282   8.971  13.571
 9198SOL    HW229427  10.162   8.920  13.647
 9199SOL     OW29428  14.360  10.301   3.823
 9199SOL    HW129429  14.309  10.374   3.788
 9199SOL    HW229430  14.415  10.273   3.751
 9200SOL     OW29431   4.397   7.858   7.415
 9200SOL    HW129432   4.432   7.845   7.327
 9200SOL    HW229433   4.345   7.780   7.432
 9201SOL     OW29434   9.673   5.972   2.582
 9201SOL    HW129435   9.607   5.941   2.521
 9201SOL    HW229436   9.730   6.029   2.530
 9202SOL     OW29437   1.097   6.157  10.426
 9202SOL    HW129438   1.126   6.084  10.371
 9202SOL    HW229439   1.002   6.156  10.418
 9203SOL     OW29440   6.618  12.839  11.587
 9203SOL    HW129441   6.577  12.925  11.595
 9203SOL    HW229442   6.704  12.856  11.548
 9204SOL     OW29443   2.988  14.630   5.187
 9204SOL    HW129444   2.964  14.647   5.278
 9204SOL    HW229445   3.068  14.578   5.192
 9205SOL     OW29446  11.920   7.923  12.400
 9205SOL    HW129447  11.958   8.001  12.441
 9205SOL    HW229448  11.981   7.853  12.423
 9206SOL     OW29449  14.108   1.746   7.766
 9206SOL    HW129450  14.067   1.773   7.848
 9206SOL    HW229451  14.046   1.773   7.698
 9207SOL     OW29452   8.780   8.118   5.319
 9207SOL    HW129453   8.705   8.177   5.314
 9207SOL    HW229454   8.851   8.174   5.351
 9208SOL     OW29455   8.810   3.739  13.782
 9208SOL    HW129456   8.738   3.686  13.816
 9208SOL    HW229457   8.820   3.810  13.845
 9209SOL     OW29458   7.409   7.122   0.076
 9209SOL    HW129459   7.362   7.167   0.147
 9209SOL    HW229460   7.349   7.126   0.002
 9210SOL     OW29461   1.100  13.128   3.589
 9210SOL    HW129462   1.055  13.079   3.658
 9210SOL    HW229463   1.191  13.135   3.619
 9211SOL     OW29464   0.564  11.592   9.396
 9211SOL    HW129465   0.638  11.651   9.384
 9211SOL    HW229466   0.504  11.640   9.453
 9212SOL     OW29467   9.760  13.245   1.667
 9212SOL    HW129468   9.732  13.285   1.750
 9212SOL    HW229469   9.766  13.152   1.686
 9213SOL     OW29470  10.793   2.934  10.567
 9213SOL    HW129471  10.887   2.917  10.561
 9213SOL    HW229472  10.760   2.866  10.626
 9214SOL     OW29473   1.448   0.681  12.524
 9214SOL    HW129474   1.374   0.651  12.472
 9214SOL    HW229475   1.434   0.644  12.611
 9215SOL     OW29476   3.254   2.474   3.651
 9215SOL    HW129477   3.283   2.486   3.742
 9215SOL    HW229478   3.333   2.488   3.599
 9216SOL     OW29479   0.750   0.385   9.531
 9216SOL    HW129480   0.696   0.307   9.546
 9216SOL    HW229481   0.838   0.358   9.555
 9217SOL     OW29482  13.987  12.993   8.617
 9217SOL    HW129483  13.933  12.978   8.694
 9217SOL    HW229484  13.928  12.980   8.543
 9218SOL     OW29485  14.403   9.040   9.614
 9218SOL    HW129486  14.470   8.981   9.647
 9218SOL    HW229487  14.452   9.114   9.577
 9219SOL     OW29488  14.213   7.840   5.907
 9219SOL    HW129489  14.229   7.931   5.933
 9219SOL    HW229490  14.283   7.790   5.949
 9220SOL     OW29491   7.074  11.270   0.445
 9220SOL    HW129492   7.080  11.195   0.503
 9220SOL    HW229493   7.034  11.236   0.365
 9221SOL     OW29494   6.073  10.872   1.354
 9221SOL    HW129495   6.142  10.807   1.339
 9221SOL    HW229496   6.017  10.866   1.277
 9222SOL     OW29497  13.007   6.070   3.187
 9222SOL    HW129498  13.041   6.000   3.132
 9222SOL    HW229499  13.086   6.113   3.221
 9223SOL     OW29500   3.607   5.897   3.524
 9223SOL    HW129501   3.633   5.988   3.510
 9223SOL    HW229502   3.628   5.853   3.442
 9224SOL     OW29503   5.173   1.374  10.898
 9224SOL    HW129504   5.163   1.468  10.913
 9224SOL    HW229505   5.138   1.361  10.810
 9225SOL     OW29506  12.018   3.777  14.501
 9225SOL    HW129507  12.003   3.840  14.430
 9225SOL    HW229508  12.113   3.762  14.499
 9226SOL     OW29509   4.210   9.612  14.753
 9226SOL    HW129510   4.196   9.652  14.667
 9226SOL    HW229511   4.265   9.674  14.800
 9227SOL     OW29512  14.096   9.543  13.629
 9227SOL    HW129513  14.161   9.612  13.625
 9227SOL    HW229514  14.012   9.588  13.624
 9228SOL     OW29515  13.827  11.640   2.664
 9228SOL    HW129516  13.791  11.713   2.715
 9228SOL    HW229517  13.876  11.682   2.594
 9229SOL     OW29518  11.864   0.823   2.701
 9229SOL    HW129519  11.773   0.796   2.715
 9229SOL    HW229520  11.858   0.911   2.665
 9230SOL     OW29521   3.772  13.910   8.086
 9230SOL    HW129522   3.838  13.920   8.155
 9230SOL    HW229523   3.823  13.904   8.005
 9231SOL     OW29524  13.712   9.152   3.415
 9231SOL    HW129525  13.732   9.191   3.500
 9231SOL    HW229526  13.658   9.076   3.435
 9232SOL     OW29527  11.600  12.040   9.183
 9232SOL    HW129528  11.625  12.024   9.274
 9232SOL    HW229529  11.652  11.977   9.133
 9233SOL     OW29530   1.640  14.041   8.979
 9233SOL    HW129531   1.591  14.085   8.909
 9233SOL    HW229532   1.632  14.099   9.054
 9234SOL     OW29533   6.122  10.623  14.118
 9234SOL    HW129534   6.139  10.529  14.119
 9234SOL    HW229535   6.184  10.658  14.053
 9235SOL     OW29536   2.007   8.814   9.722
 9235SOL    HW129537   1.964   8.893   9.690
 9235SOL    HW229538   2.101   8.834   9.719
 9236SOL     OW29539   0.681  14.340   8.396
 9236SOL    HW129540   0.668  14.385   8.480
 9236SOL    HW229541   0.759  14.286   8.410
 9237SOL     OW29542   1.144   3.838   8.305
 9237SOL    HW129543   1.126   3.900   8.234
 9237SOL    HW229544   1.127   3.887   8.385
 9238SOL     OW29545  14.085   8.350   8.675
 9238SOL    HW129546  14.131   8.366   8.758
 9238SOL    HW229547  14.087   8.434   8.630
 9239SOL     OW29548   8.774   0.486   0.240
 9239SOL    HW129549   8.719   0.555   0.277
 9239SOL    HW229550   8.774   0.505   0.146
 9240SOL     OW29551   8.166   3.076  12.100
 9240SOL    HW129552   8.242   3.134  12.093
 9240SOL    HW229553   8.095   3.126  12.058
 9241SOL     OW29554   5.466  12.563  13.814
 9241SOL    HW129555   5.410  12.537  13.741
 9241SOL    HW229556   5.408  12.569  13.889
 9242SOL     OW29557   1.259  11.560   2.337
 9242SOL    HW129558   1.167  11.534   2.328
 9242SOL    HW229559   1.304  11.513   2.267
 9243SOL     OW29560   2.268   5.701  14.596
 9243SOL    HW129561   2.206   5.758  14.549
 9243SOL    HW229562   2.213   5.634  14.636
 9244SOL     OW29563  11.148  12.652   8.952
 9244SOL    HW129564  11.240  12.646   8.977
 9244SOL    HW229565  11.138  12.741   8.918
 9245SOL     OW29566   2.542  12.906   3.441
 9245SOL    HW129567   2.512  12.994   3.463
 9245SOL    HW229568   2.617  12.891   3.499
 9246SOL     OW29569   6.026  10.386   1.830
 9246SOL    HW129570   6.046  10.402   1.738
 9246SOL    HW229571   6.087  10.442   1.878
 9247SOL     OW29572   6.638   6.213   0.499
 9247SOL    HW129573   6.625   6.295   0.451
 9247SOL    HW229574   6.667   6.151   0.433
 9248SOL     OW29575   6.822   6.099  12.230
 9248SOL    HW129576   6.909   6.138  12.234
 9248SOL    HW229577   6.835   6.008  12.256
 9249SOL     OW29578   7.934   2.784   4.167
 9249SOL    HW129579   7.975   2.781   4.253
 9249SOL    HW229580   7.842   2.764   4.184
 9250SOL     OW29581   9.268   5.161  14.015
 9250SOL    HW129582   9.225   5.199  13.939
 9250SOL    HW229583   9.196   5.136  14.074
 9251SOL     OW29584   5.948   0.570   1.428
 9251SOL    HW129585   6.029   0.553   1.476
 9251SOL    HW229586   5.959   0.660   1.395
 9252SOL     OW29587   5.131   1.504   6.780
 9252SOL    HW129588   5.155   1.423   6.734
 9252SOL    HW229589   5.114   1.477   6.870
 9253SOL     OW29590   5.923  10.067   5.982
 9253SOL    HW129591   5.883  10.127   5.920
 9253SOL    HW229592   6.004  10.110   6.009
 9254SOL     OW29593   5.647   9.316   6.671
 9254SOL    HW129594   5.589   9.349   6.603
 9254SOL    HW229595   5.729   9.364   6.657
 9255SOL     OW29596   5.698   9.585   1.953
 9255SOL    HW129597   5.689   9.579   1.857
 9255SOL    HW229598   5.643   9.659   1.977
 9256SOL     OW29599   5.749   1.276   2.658
 9256SOL    HW129600   5.726   1.211   2.724
 9256SOL    HW229601   5.794   1.227   2.589
 9257SOL     OW29602   3.646   9.630   9.009
 9257SOL    HW129603   3.733   9.593   9.023
 9257SOL    HW229604   3.594   9.557   8.974
 9258SOL     OW29605  10.408  13.455   0.789
 9258SOL    HW129606  10.413  13.442   0.884
 9258SOL    HW229607  10.347  13.527   0.778
 9259SOL     OW29608   2.083   3.350   3.587
 9259SOL    HW129609   2.029   3.399   3.649
 9259SOL    HW229610   2.131   3.287   3.641
 9260SOL     OW29611  13.700   9.834   4.439
 9260SOL    HW129612  13.795   9.834   4.443
 9260SOL    HW229613  13.674   9.746   4.468
 9261SOL     OW29614   8.011   1.581  12.427
 9261SOL    HW129615   8.083   1.540  12.475
 9261SOL    HW229616   8.052   1.651  12.377
 9262SOL     OW29617   6.022  11.558   6.271
 9262SOL    HW129618   5.979  11.513   6.199
 9262SOL    HW229619   6.102  11.508   6.287
 9263SOL     OW29620  13.506   3.204   1.762
 9263SOL    HW129621  13.475   3.197   1.671
 9263SOL    HW229622  13.475   3.289   1.792
 9264SOL     OW29623   4.416   7.906  14.028
 9264SOL    HW129624   4.404   7.942  13.940
 9264SOL    HW229625   4.362   7.962  14.084
 9265SOL     OW29626  11.365   5.170   1.772
 9265SOL    HW129627  11.458   5.178   1.795
 9265SOL    HW229628  11.337   5.259   1.753
 9266SOL     OW29629   3.029   4.531  14.155
 9266SOL    HW129630   3.072   4.575  14.082
 9266SOL    HW229631   3.087   4.546  14.230
 9267SOL     OW29632   7.986   0.747   7.358
 9267SOL    HW129633   8.029   0.733   7.442
 9267SOL    HW229634   7.954   0.837   7.362
 9268SOL     OW29635   2.100  10.262   2.916
 9268SOL    HW129636   2.037  10.264   2.988
 9268SOL    HW229637   2.117  10.169   2.901
 9269SOL     OW29638   6.650  10.602   2.524
 9269SOL    HW129639   6.715  10.572   2.587
 9269SOL    HW229640   6.566  10.575   2.561
 9270SOL     OW29641  13.092  13.394   7.582
 9270SOL    HW129642  13.099  13.299   7.587
 9270SOL    HW229643  13.066  13.421   7.671
 9271SOL     OW29644   7.956  11.627  10.344
 9271SOL    HW129645   7.894  11.554  10.334
 9271SOL    HW229646   7.902  11.705  10.336
 9272SOL     OW29647   5.972   5.000  12.477
 9272SOL    HW129648   5.991   4.997  12.570
 9272SOL    HW229649   6.040   4.946  12.437
 9273SOL     OW29650   9.682   0.885   3.380
 9273SOL    HW129651   9.602   0.873   3.432
 9273SOL    HW229652   9.662   0.842   3.297
 9274SOL     OW29653   5.638   1.330   6.041
 9274SOL    HW129654   5.585   1.375   5.976
 9274SOL    HW229655   5.639   1.388   6.117
 9275SOL     OW29656   5.423   6.444   2.361
 9275SOL    HW129657   5.343   6.490   2.336
 9275SOL    HW229658   5.439   6.382   2.291
 9276SOL     OW29659  11.032   6.538  11.884
 9276SOL    HW129660  11.113   6.543  11.833
 9276SOL    HW229661  10.962   6.546  11.819
 9277SOL     OW29662   9.374  11.164   1.556
 9277SOL    HW129663   9.451  11.204   1.597
 9277SOL    HW229664   9.330  11.237   1.512
 9278SOL     OW29665  13.683   7.000  13.356
 9278SOL    HW129666  13.675   6.909  13.325
 9278SOL    HW229667  13.651   6.997  13.446
 9279SOL     OW29668  11.800   8.701   4.835
 9279SOL    HW129669  11.865   8.713   4.765
 9279SOL    HW229670  11.830   8.760   4.905
 9280SOL     OW29671   4.331  14.005   1.002
 9280SOL    HW129672   4.375  13.952   0.935
 9280SOL    HW229673   4.263  14.053   0.954
 9281SOL     OW29674   8.332   5.786  10.460
 9281SOL    HW129675   8.350   5.779  10.554
 9281SOL    HW229676   8.237   5.775  10.453
 9282SOL     OW29677  12.105  12.355   4.141
 9282SOL    HW129678  12.067  12.273   4.172
 9282SOL    HW229679  12.074  12.364   4.052
 9283SOL     OW29680   8.291   1.738   2.004
 9283SOL    HW129681   8.212   1.784   2.034
 9283SOL    HW229682   8.267   1.701   1.920
 9284SOL     OW29683   0.338  14.526   3.019
 9284SOL    HW129684   0.382  14.513   2.935
 9284SOL    HW229685   0.247  14.545   2.996
 9285SOL     OW29686  10.425  10.023   8.963
 9285SOL    HW129687  10.405   9.933   8.988
 9285SOL    HW229688  10.409  10.026   8.869
 9286SOL     OW29689  12.845   4.573   1.956
 9286SOL    HW129690  12.783   4.562   2.028
 9286SOL    HW229691  12.813   4.649   1.908
 9287SOL     OW29692   2.017  11.900   4.095
 9287SOL    HW129693   2.037  11.831   4.158
 9287SOL    HW229694   2.046  11.865   4.011
 9288SOL     OW29695  11.781   4.903   9.066
 9288SOL    HW129696  11.710   4.864   9.118
 9288SOL    HW229697  11.763   4.873   8.976
 9289SOL     OW29698   8.048   9.031   0.395
 9289SOL    HW129699   7.973   9.081   0.427
 9289SOL    HW229700   8.014   8.983   0.320
 9290SOL     OW29701   9.065   5.143   8.837
 9290SOL    HW129702   9.037   5.206   8.770
 9290SOL    HW229703   9.139   5.184   8.880
 9291SOL     OW29704   0.460  14.654  12.548
 9291SOL    HW129705   0.528  14.590  12.569
 9291SOL    HW229706   0.502  14.739  12.564
 9292SOL     OW29707   7.336   6.662   0.559
 9292SOL    HW129708   7.326   6.756   0.573
 9292SOL    HW229709   7.307   6.622   0.642
 9293SOL     OW29710  11.812   5.142  13.537
 9293SOL    HW129711  11.771   5.110  13.457
 9293SOL    HW229712  11.855   5.224  13.511
 9294SOL     OW29713   6.016   6.086   0.209
 9294SOL    HW129714   6.108   6.083   0.233
 9294SOL    HW229715   5.969   6.058   0.288
 9295SOL     OW29716  13.967  10.562   5.948
 9295SOL    HW129717  14.002  10.604   6.027
 9295SOL    HW229718  13.954  10.471   5.975
 9296SOL     OW29719   8.825  13.980   0.207
 9296SOL    HW129720   8.836  14.044   0.136
 9296SOL    HW229721   8.860  14.024   0.284
 9297SOL     OW29722   0.300   5.649  11.404
 9297SOL    HW129723   0.302   5.575  11.464
 9297SOL    HW229724   0.217   5.641  11.357
 9298SOL     OW29725  12.211  10.557   4.033
 9298SOL    HW129726  12.225  10.592   3.944
 9298SOL    HW229727  12.117  10.563   4.046
 9299SOL     OW29728   8.329  11.146   2.074
 9299SOL    HW129729   8.404  11.101   2.036
 9299SOL    HW229730   8.309  11.097   2.154
 9300SOL     OW29731  13.535  14.228   2.039
 9300SOL    HW129732  13.606  14.268   2.089
 9300SOL    HW229733  13.579  14.164   1.982
 9301SOL     OW29734  14.077  14.762   8.798
 9301SOL    HW129735  13.999  14.711   8.820
 9301SOL    HW229736  14.149  14.713   8.836
 9302SOL     OW29737   6.703  10.920  14.448
 9302SOL    HW129738   6.785  10.896  14.492
 9302SOL    HW229739   6.644  10.945  14.518
 9303SOL     OW29740  14.213   9.261   2.363
 9303SOL    HW129741  14.227   9.318   2.439
 9303SOL    HW229742  14.133   9.212   2.385
 9304SOL     OW29743  10.857  11.485   1.127
 9304SOL    HW129744  10.810  11.526   1.200
 9304SOL    HW229745  10.900  11.409   1.166
 9305SOL     OW29746   4.899   9.892  13.594
 9305SOL    HW129747   4.906   9.887  13.498
 9305SOL    HW229748   4.989   9.879  13.624
 9306SOL     OW29749   3.502  11.686  10.146
 9306SOL    HW129750   3.537  11.743  10.078
 9306SOL    HW229751   3.515  11.735  10.228
 9307SOL     OW29752   2.486   1.187  13.001
 9307SOL    HW129753   2.416   1.191  13.066
 9307SOL    HW229754   2.454   1.240  12.928
 9308SOL     OW29755  11.136   5.038   6.338
 9308SOL    HW129756  11.048   5.013   6.310
 9308SOL    HW229757  11.138   5.133   6.332
 9309SOL     OW29758   4.176   4.245  13.771
 9309SOL    HW129759   4.210   4.285  13.850
 9309SOL    HW229760   4.252   4.236  13.713
 9310SOL     OW29761   1.444   4.229  14.110
 9310SOL    HW129762   1.433   4.161  14.044
 9310SOL    HW229763   1.355   4.254  14.134
 9311SOL     OW29764   7.909  11.355   0.397
 9311SOL    HW129765   7.815  11.342   0.385
 9311SOL    HW229766   7.949  11.317   0.318
 9312SOL     OW29767   4.166  10.541   3.013
 9312SOL    HW129768   4.176  10.447   3.028
 9312SOL    HW229769   4.245  10.567   2.967
 9313SOL     OW29770  14.633   7.643   5.746
 9313SOL    HW129771  14.556   7.617   5.797
 9313SOL    HW229772  14.625   7.738   5.738
 9314SOL     OW29773   2.780  11.347  12.011
 9314SOL    HW129774   2.821  11.270  11.972
 9314SOL    HW229775   2.826  11.360  12.093
 9315SOL     OW29776   5.641   2.005  13.781
 9315SOL    HW129777   5.691   2.063  13.724
 9315SOL    HW229778   5.550   2.030  13.766
 9316SOL     OW29779   4.351   3.474  10.179
 9316SOL    HW129780   4.272   3.496  10.130
 9316SOL    HW229781   4.334   3.386  10.213
 9317SOL     OW29782  10.929   4.170   8.658
 9317SOL    HW129783  10.879   4.218   8.723
 9317SOL    HW229784  11.001   4.229   8.634
 9318SOL     OW29785   3.473   3.011   4.564
 9318SOL    HW129786   3.402   3.058   4.607
 9318SOL    HW229787   3.524   2.974   4.635
 9319SOL     OW29788   2.622  13.783   8.668
 9319SOL    HW129789   2.713  13.790   8.642
 9319SOL    HW229790   2.607  13.859   8.725
 9320SOL     OW29791  14.297   1.736  14.437
 9320SOL    HW129792  14.253   1.780  14.364
 9320SOL    HW229793  14.229   1.683  14.478
 9321SOL     OW29794   7.410  13.326  13.772
 9321SOL    HW129795   7.359  13.386  13.718
 9321SOL    HW229796   7.367  13.242  13.761
 9322SOL     OW29797   1.188  11.046  11.904
 9322SOL    HW129798   1.181  10.965  11.854
 9322SOL    HW229799   1.103  11.055  11.947
 9323SOL     OW29800   5.205   7.302   8.269
 9323SOL    HW129801   5.255   7.354   8.331
 9323SOL    HW229802   5.152   7.367   8.221
 9324SOL     OW29803   4.162  11.745   7.634
 9324SOL    HW129804   4.194  11.695   7.559
 9324SOL    HW229805   4.095  11.688   7.673
 9325SOL     OW29806  13.665  13.676  12.328
 9325SOL    HW129807  13.756  13.700  12.345
 9325SOL    HW229808  13.655  13.684  12.233
 9326SOL     OW29809   2.579   0.346   1.623
 9326SOL    HW129810   2.644   0.313   1.560
 9326SOL    HW229811   2.630   0.394   1.688
 9327SOL     OW29812  14.531   1.467  13.116
 9327SOL    HW129813  14.553   1.433  13.030
 9327SOL    HW229814  14.448   1.512  13.104
 9328SOL     OW29815  11.154   8.435   4.019
 9328SOL    HW129816  11.117   8.515   3.981
 9328SOL    HW229817  11.243   8.459   4.043
 9329SOL     OW29818  14.815   8.812   0.422
 9329SOL    HW129819  14.772   8.819   0.507
 9329SOL    HW229820   0.023   8.770   0.442
 9330SOL     OW29821   1.519   1.984   8.247
 9330SOL    HW129822   1.557   1.907   8.289
 9330SOL    HW229823   1.572   2.057   8.279
 9331SOL     OW29824  14.255   6.075  13.353
 9331SOL    HW129825  14.211   6.095  13.271
 9331SOL    HW229826  14.332   6.024  13.327
 9332SOL     OW29827   6.726   0.783  10.999
 9332SOL    HW129828   6.799   0.724  10.982
 9332SOL    HW229829   6.766   0.861  11.037
 9333SOL     OW29830   2.241   3.686   8.110
 9333SOL    HW129831   2.218   3.729   8.192
 9333SOL    HW229832   2.258   3.595   8.134
 9334SOL     OW29833  13.363   7.086   4.858
 9334SOL    HW129834  13.430   7.129   4.910
 9334SOL    HW229835  13.352   7.000   4.899
 9335SOL     OW29836   4.617  13.220   4.068
 9335SOL    HW129837   4.594  13.205   3.976
 9335SOL    HW229838   4.534  13.216   4.115
 9336SOL     OW29839   6.426   7.358   8.497
 9336SOL    HW129840   6.417   7.277   8.547
 9336SOL    HW229841   6.518   7.358   8.469
 9337SOL     OW29842   5.181   0.383   7.307
 9337SOL    HW129843   5.191   0.377   7.402
 9337SOL    HW229844   5.100   0.335   7.288
 9338SOL     OW29845   0.503   7.212   3.897
 9338SOL    HW129846   0.572   7.161   3.854
 9338SOL    HW229847   0.531   7.303   3.887
 9339SOL     OW29848  11.149   6.587   6.911
 9339SOL    HW129849  11.215   6.637   6.959
 9339SOL    HW229850  11.194   6.554   6.834
 9340SOL     OW29851   4.143   2.938   1.158
 9340SOL    HW129852   4.173   3.025   1.133
 9340SOL    HW229853   4.132   2.891   1.076
 9341SOL     OW29854   1.169   2.620  12.600
 9341SOL    HW129855   1.112   2.548  12.627
 9341SOL    HW229856   1.119   2.699  12.621
 9342SOL     OW29857   6.160   0.782  12.855
 9342SOL    HW129858   6.102   0.849  12.820
 9342SOL    HW229859   6.201   0.824  12.931
 9343SOL     OW29860   2.845   7.115   8.172
 9343SOL    HW129861   2.834   7.031   8.126
 9343SOL    HW229862   2.939   7.127   8.179
 9344SOL     OW29863  13.432   6.635  14.809
 9344SOL    HW129864  13.394   6.699  14.869
 9344SOL    HW229865  13.527   6.645  14.820
 9345SOL     OW29866   0.331   4.230   2.528
 9345SOL    HW129867   0.418   4.206   2.496
 9345SOL    HW229868   0.345   4.262   2.616
 9346SOL     OW29869   5.304   9.499   6.310
 9346SOL    HW129870   5.317   9.583   6.265
 9346SOL    HW229871   5.209   9.486   6.307
 9347SOL     OW29872   9.881   1.284   4.449
 9347SOL    HW129873   9.976   1.291   4.442
 9347SOL    HW229874   9.861   1.314   4.538
 9348SOL     OW29875  11.222   4.663   1.212
 9348SOL    HW129876  11.282   4.737   1.223
 9348SOL    HW229877  11.261   4.592   1.262
 9349SOL     OW29878   1.698   5.312   5.618
 9349SOL    HW129879   1.679   5.336   5.709
 9349SOL    HW229880   1.777   5.360   5.596
 9350SOL     OW29881   4.267  10.652  11.461
 9350SOL    HW129882   4.358  10.629  11.483
 9350SOL    HW229883   4.268  10.747  11.452
 9351SOL     OW29884   9.425   3.918   3.861
 9351SOL    HW129885   9.492   3.911   3.928
 9351SOL    HW229886   9.421   3.831   3.821
 9352SOL     OW29887   5.435   5.769  10.275
 9352SOL    HW129888   5.381   5.810  10.207
 9352SOL    HW229889   5.517   5.819  10.273
 9353SOL     OW29890   2.693  12.091   2.466
 9353SOL    HW129891   2.617  12.147   2.477
 9353SOL    HW229892   2.669  12.009   2.508
 9354SOL     OW29893  14.655   2.773  10.608
 9354SOL    HW129894  14.728   2.834  10.598
 9354SOL    HW229895  14.581   2.829  10.633
 9355SOL     OW29896  11.153  10.357   4.584
 9355SOL    HW129897  11.204  10.375   4.506
 9355SOL    HW229898  11.216  10.321   4.647
 9356SOL     OW29899  14.168   1.147   1.992
 9356SOL    HW129900  14.243   1.136   1.933
 9356SOL    HW229901  14.159   1.242   2.001
 9357SOL     OW29902   8.795   1.595  11.860
 9357SOL    HW129903   8.768   1.580  11.950
 9357SOL    HW229904   8.715   1.618  11.814
 9358SOL     OW29905   1.583  13.094  10.080
 9358SOL    HW129906   1.673  13.088  10.110
 9358SOL    HW229907   1.570  13.014  10.028
 9359SOL     OW29908  14.032  11.810   4.731
 9359SOL    HW129909  13.965  11.746   4.755
 9359SOL    HW229910  14.105  11.793   4.790
 9360SOL     OW29911  14.772   5.090  13.714
 9360SOL    HW129912  14.827   5.020  13.680
 9360SOL    HW229913  14.682   5.061  13.697
 9361SOL     OW29914   1.840   5.235   4.635
 9361SOL    HW129915   1.863   5.204   4.548
 9361SOL    HW229916   1.750   5.267   4.627
 9362SOL     OW29917  10.095   4.675  12.060
 9362SOL    HW129918  10.037   4.599  12.065
 9362SOL    HW229919  10.168   4.654  12.118
 9363SOL     OW29920  11.996   2.925  13.792
 9363SOL    HW129921  12.067   2.875  13.831
 9363SOL    HW229922  11.970   2.987  13.861
 9364SOL     OW29923  10.863  14.623   3.065
 9364SOL    HW129924  10.788  14.676   3.094
 9364SOL    HW229925  10.940  14.671   3.096
 9365SOL     OW29926  11.779  10.727  12.474
 9365SOL    HW129927  11.874  10.712  12.477
 9365SOL    HW229928  11.742  10.642  12.453
 9366SOL     OW29929   2.264   4.634   9.519
 9366SOL    HW129930   2.359   4.622   9.523
 9366SOL    HW229931   2.243   4.687   9.596
 9367SOL     OW29932   7.206  12.920   4.093
 9367SOL    HW129933   7.156  12.922   4.012
 9367SOL    HW229934   7.142  12.944   4.161
 9368SOL     OW29935   1.899   7.227   9.913
 9368SOL    HW129936   1.990   7.210   9.888
 9368SOL    HW229937   1.905   7.297   9.978
 9369SOL     OW29938   2.892   1.100   4.508
 9369SOL    HW129939   2.897   1.165   4.578
 9369SOL    HW229940   2.940   1.140   4.436
 9370SOL     OW29941   5.860  12.160  11.541
 9370SOL    HW129942   5.813  12.224  11.487
 9370SOL    HW229943   5.952  12.185  11.533
 9371SOL     OW29944  14.469   4.095   3.358
 9371SOL    HW129945  14.542   4.087   3.296
 9371SOL    HW229946  14.494   4.039   3.432
 9372SOL     OW29947   3.787   6.801   7.188
 9372SOL    HW129948   3.734   6.825   7.264
 9372SOL    HW229949   3.758   6.860   7.119
 9373SOL     OW29950   0.970  14.403   3.043
 9373SOL    HW129951   0.885  14.388   3.086
 9373SOL    HW229952   1.015  14.464   3.101
 9374SOL     OW29953   7.366  10.085  11.742
 9374SOL    HW129954   7.334  10.168  11.777
 9374SOL    HW229955   7.297  10.057  11.681
 9375SOL     OW29956   3.393   7.953  14.486
 9375SOL    HW129957   3.375   8.047  14.495
 9375SOL    HW229958   3.415   7.924  14.575
 9376SOL     OW29959  10.201  13.252  13.288
 9376SOL    HW129960  10.107  13.272  13.293
 9376SOL    HW229961  10.212  13.205  13.206
 9377SOL     OW29962  12.876  12.862  13.876
 9377SOL    HW129963  12.868  12.932  13.941
 9377SOL    HW229964  12.891  12.909  13.793
 9378SOL     OW29965   3.636  13.396   2.508
 9378SOL    HW129966   3.686  13.377   2.429
 9378SOL    HW229967   3.574  13.464   2.482
 9379SOL     OW29968  11.334  10.421   1.170
 9379SOL    HW129969  11.327  10.503   1.219
 9379SOL    HW229970  11.246  10.384   1.171
 9380SOL     OW29971  14.150   7.138   5.113
 9380SOL    HW129972  14.113   7.193   5.043
 9380SOL    HW229973  14.091   7.063   5.118
 9381SOL     OW29974   8.935   3.131  13.511
 9381SOL    HW129975   9.000   3.089  13.456
 9381SOL    HW229976   8.958   3.105  13.600
 9382SOL     OW29977   4.437   3.053   4.438
 9382SOL    HW129978   4.360   3.106   4.462
 9382SOL    HW229979   4.400   2.975   4.397
 9383SOL     OW29980   3.432  10.747  14.839
 9383SOL    HW129981   3.508  10.737   0.020
 9383SOL    HW229982   3.444  10.679  14.772
 9384SOL     OW29983  11.874   7.288   9.826
 9384SOL    HW129984  11.853   7.271   9.918
 9384SOL    HW229985  11.901   7.380   9.825
 9385SOL     OW29986  14.449  13.746   0.262
 9385SOL    HW129987  14.398  13.700   0.329
 9385SOL    HW229988  14.470  13.830   0.301
 9386SOL     OW29989   5.294  13.866   3.478
 9386SOL    HW129990   5.383  13.863   3.444
 9386SOL    HW229991   5.285  13.953   3.517
 9387SOL     OW29992   5.756  13.667   6.369
 9387SOL    HW129993   5.832  13.634   6.322
 9387SOL    HW229994   5.730  13.745   6.320
 9388SOL     OW29995   9.517   0.420   3.357
 9388SOL    HW129996   9.449   0.384   3.301
 9388SOL    HW229997   9.473   0.435   3.441
 9389SOL     OW29998  11.174   0.137  12.209
 9389SOL    HW129999  11.238   0.153  12.139
 9389SOL    HW230000  11.206   0.189  12.282
 9390SOL     OW30001   5.295   7.957   2.541
 9390SOL    HW130002   5.317   7.916   2.624
 9390SOL    HW230003   5.200   7.946   2.532
 9391SOL     OW30004  13.246   5.104   7.670
 9391SOL    HW130005  13.250   5.106   7.765
 9391SOL    HW230006  13.169   5.051   7.651
 9392SOL     OW30007  13.644   7.576  13.451
 9392SOL    HW130008  13.618   7.620  13.370
 9392SOL    HW230009  13.727   7.618  13.475
 9393SOL     OW30010  13.944   8.339   1.972
 9393SOL    HW130011  13.936   8.340   1.876
 9393SOL    HW230012  14.023   8.390   1.990
 9394SOL     OW30013  13.903  11.280   2.399
 9394SOL    HW130014  13.879  11.369   2.372
 9394SOL    HW230015  13.860  11.268   2.483
 9395SOL     OW30016   4.778   3.915   5.095
 9395SOL    HW130017   4.837   3.846   5.126
 9395SOL    HW230018   4.764   3.895   5.002
 9396SOL     OW30019   1.396  13.139  12.971
 9396SOL    HW130020   1.310  13.164  12.937
 9396SOL    HW230021   1.377  13.087  13.049
 9397SOL     OW30022   2.260   3.626   9.293
 9397SOL    HW130023   2.262   3.590   9.205
 9397SOL    HW230024   2.169   3.652   9.306
 9398SOL     OW30025   9.404   7.441  13.808
 9398SOL    HW130026   9.369   7.512  13.753
 9398SOL    HW230027   9.338   7.427  13.875
 9399SOL     OW30028   0.288   0.045   2.540
 9399SOL    HW130029   0.211   0.099   2.521
 9399SOL    HW230030   0.258  14.831   2.528
 9400SOL     OW30031   6.355   5.044  11.129
 9400SOL    HW130032   6.355   5.013  11.039
 9400SOL    HW230033   6.431   5.101  11.136
 9401SOL     OW30034  10.950   6.000   2.051
 9401SOL    HW130035  10.938   5.965   1.963
 9401SOL    HW230036  10.890   5.948   2.105
 9402SOL     OW30037   1.292   9.448   9.649
 9402SOL    HW130038   1.372   9.489   9.616
 9402SOL    HW230039   1.320   9.361   9.679
 9403SOL     OW30040  10.596   3.513   7.668
 9403SOL    HW130041  10.574   3.434   7.618
 9403SOL    HW230042  10.529   3.576   7.646
 9404SOL     OW30043   8.293  14.339  14.083
 9404SOL    HW130044   8.346  14.260  14.082
 9404SOL    HW230045   8.305  14.378  13.997
 9405SOL     OW30046   7.539  13.458   2.451
 9405SOL    HW130047   7.593  13.441   2.374
 9405SOL    HW230048   7.492  13.539   2.431
 9406SOL     OW30049   1.052   6.088   9.081
 9406SOL    HW130050   1.037   6.169   9.129
 9406SOL    HW230051   1.130   6.050   9.122
 9407SOL     OW30052   8.543   0.417  11.186
 9407SOL    HW130053   8.624   0.417  11.238
 9407SOL    HW230054   8.505   0.331  11.202
 9408SOL     OW30055  11.009   4.661   7.603
 9408SOL    HW130056  11.038   4.673   7.694
 9408SOL    HW230057  10.980   4.748   7.576
 9409SOL     OW30058   2.274   1.138   6.054
 9409SOL    HW130059   2.221   1.119   6.131
 9409SOL    HW230060   2.233   1.088   5.984
 9410SOL     OW30061  13.059   0.030  12.490
 9410SOL    HW130062  13.136  14.874  12.445
 9410SOL    HW230063  13.024  14.830  12.536
 9411SOL     OW30064   3.607   1.369   6.018
 9411SOL    HW130065   3.622   1.367   5.924
 9411SOL    HW230066   3.512   1.355   6.027
 9412SOL     OW30067   1.110   2.758   7.150
 9412SOL    HW130068   1.059   2.794   7.078
 9412SOL    HW230069   1.202   2.772   7.125
 9413SOL     OW30070   0.390  14.705   7.858
 9413SOL    HW130071   0.437  14.669   7.783
 9413SOL    HW230072   0.406  14.799   7.853
 9414SOL     OW30073  14.060  10.163  11.791
 9414SOL    HW130074  14.078  10.136  11.881
 9414SOL    HW230075  14.136  10.130  11.741
 9415SOL     OW30076  11.011   8.475  10.365
 9415SOL    HW130077  10.940   8.436  10.314
 9415SOL    HW230078  11.071   8.511  10.300
 9416SOL     OW30079  12.443   6.953   0.832
 9416SOL    HW130080  12.380   6.990   0.893
 9416SOL    HW230081  12.421   6.860   0.829
 9417SOL     OW30082  13.303   2.624   6.296
 9417SOL    HW130083  13.393   2.653   6.285
 9417SOL    HW230084  13.280   2.650   6.385
 9418SOL     OW30085  12.428  12.559   6.433
 9418SOL    HW130086  12.486  12.550   6.357
 9418SOL    HW230087  12.439  12.650   6.460
 9419SOL     OW30088  11.783   9.149   9.975
 9419SOL    HW130089  11.724   9.076   9.994
 9419SOL    HW230090  11.811   9.134   9.885
 9420SOL     OW30091   1.782   9.223  10.238
 9420SOL    HW130092   1.734   9.289  10.288
 9420SOL    HW230093   1.812   9.160  10.304
 9421SOL     OW30094   6.946   3.236   2.883
 9421SOL    HW130095   7.014   3.206   2.944
 9421SOL    HW230096   6.968   3.327   2.865
 9422SOL     OW30097   6.580   5.032   2.754
 9422SOL    HW130098   6.670   5.067   2.751
 9422SOL    HW230099   6.525   5.110   2.763
 9423SOL     OW30100   2.428   2.938   9.747
 9423SOL    HW130101   2.444   2.952   9.840
 9423SOL    HW230102   2.358   2.872   9.745
 9424SOL     OW30103   0.086  12.523  10.523
 9424SOL    HW130104   0.042  12.609  10.525
 9424SOL    HW230105   0.015  12.460  10.535
 9425SOL     OW30106   1.728   1.431   2.036
 9425SOL    HW130107   1.664   1.389   2.093
 9425SOL    HW230108   1.783   1.483   2.094
 9426SOL     OW30109   3.520  13.046  14.351
 9426SOL    HW130110   3.433  13.012  14.374
 9426SOL    HW230111   3.534  13.116  14.414
 9427SOL     OW30112  13.634   5.767  13.524
 9427SOL    HW130113  13.695   5.699  13.555
 9427SOL    HW230114  13.557   5.718  13.496
 9428SOL     OW30115   0.230   0.205  14.747
 9428SOL    HW130116   0.324   0.205  14.728
 9428SOL    HW230117   0.224   0.241  14.836
 9429SOL     OW30118  11.184  13.621   3.264
 9429SOL    HW130119  11.097  13.605   3.226
 9429SOL    HW230120  11.180  13.712   3.294
 9430SOL     OW30121   7.934  14.172   4.947
 9430SOL    HW130122   8.000  14.240   4.932
 9430SOL    HW230123   7.889  14.163   4.863
 9431SOL     OW30124   3.719  11.106  11.740
 9431SOL    HW130125   3.627  11.098  11.716
 9431SOL    HW230126   3.722  11.180  11.801
 9432SOL     OW30127   7.514   6.062   3.327
 9432SOL    HW130128   7.472   6.143   3.357
 9432SOL    HW230129   7.494   6.058   3.233
 9433SOL     OW30130  13.644   3.726   8.120
 9433SOL    HW130131  13.664   3.676   8.199
 9433SOL    HW230132  13.724   3.724   8.069
 9434SOL     OW30133  14.555   6.943   5.636
 9434SOL    HW130134  14.637   6.947   5.685
 9434SOL    HW230135  14.577   6.896   5.555
 9435SOL     OW30136   8.448  12.023  12.133
 9435SOL    HW130137   8.489  11.992  12.214
 9435SOL    HW230138   8.439  12.117  12.145
 9436SOL     OW30139   8.425   4.769   4.618
 9436SOL    HW130140   8.458   4.711   4.686
 9436SOL    HW230141   8.498   4.777   4.556
 9437SOL     OW30142   5.830  14.601  10.599
 9437SOL    HW130143   5.772  14.569  10.529
 9437SOL    HW230144   5.852  14.523  10.649
 9438SOL     OW30145   6.333   9.122   9.212
 9438SOL    HW130146   6.265   9.165   9.265
 9438SOL    HW230147   6.370   9.056   9.271
 9439SOL     OW30148  13.127   6.371   5.191
 9439SOL    HW130149  13.206   6.402   5.235
 9439SOL    HW230150  13.089   6.308   5.253
 9440SOL     OW30151   7.399   6.860   3.871
 9440SOL    HW130152   7.439   6.775   3.889
 9440SOL    HW230153   7.337   6.873   3.943
 9441SOL     OW30154  10.786  10.861   0.989
 9441SOL    HW130155  10.757  10.824   1.073
 9441SOL    HW230156  10.754  10.951   0.991
 9442SOL     OW30157  13.432  13.993   7.404
 9442SOL    HW130158  13.439  13.904   7.369
 9442SOL    HW230159  13.376  13.984   7.481
 9443SOL     OW30160   6.675   1.228   7.126
 9443SOL    HW130161   6.583   1.245   7.146
 9443SOL    HW230162   6.708   1.311   7.093
 9444SOL     OW30163   5.627   2.944  13.079
 9444SOL    HW130164   5.586   3.031  13.075
 9444SOL    HW230165   5.719   2.962  13.096
 9445SOL     OW30166  13.552  10.609  13.201
 9445SOL    HW130167  13.573  10.560  13.122
 9445SOL    HW230168  13.458  10.624  13.197
 9446SOL     OW30169   7.307   3.738  13.354
 9446SOL    HW130170   7.395   3.754  13.319
 9446SOL    HW230171   7.248   3.769  13.286
 9447SOL     OW30172   4.382   0.069  11.071
 9447SOL    HW130173   4.317   0.050  11.004
 9447SOL    HW230174   4.436  14.866  11.076
 9448SOL     OW30175   2.060  10.960   2.475
 9448SOL    HW130176   2.145  10.939   2.436
 9448SOL    HW230177   2.059  11.055   2.481
 9449SOL     OW30178  12.087   5.719  11.209
 9449SOL    HW130179  12.125   5.800  11.244
 9449SOL    HW230180  12.163   5.668  11.181
 9450SOL     OW30181  14.451   9.767  10.241
 9450SOL    HW130182  14.417   9.854  10.221
 9450SOL    HW230183  14.375   9.720  10.278
 9451SOL     OW30184   3.632   2.458  12.627
 9451SOL    HW130185   3.605   2.462  12.718
 9451SOL    HW230186   3.645   2.364  12.610
 9452SOL     OW30187   5.945   0.162   2.600
 9452SOL    HW130188   5.884   0.088   2.604
 9452SOL    HW230189   5.888   0.239   2.599
 9453SOL     OW30190  12.259  11.035  10.383
 9453SOL    HW130191  12.177  11.067  10.345
 9453SOL    HW230192  12.327  11.066  10.323
 9454SOL     OW30193  14.676   4.780  11.286
 9454SOL    HW130194  14.642   4.864  11.315
 9454SOL    HW230195  14.599   4.723  11.283
 9455SOL     OW30196   8.316   1.364   7.958
 9455SOL    HW130197   8.369   1.310   8.016
 9455SOL    HW230198   8.334   1.329   7.870
 9456SOL     OW30199   2.347  14.677   7.541
 9456SOL    HW130200   2.361  14.661   7.635
 9456SOL    HW230201   2.388  14.761   7.525
 9457SOL     OW30202   2.837   6.717   8.579
 9457SOL    HW130203   2.805   6.764   8.655
 9457SOL    HW230204   2.922   6.681   8.606
 9458SOL     OW30205  11.189   1.801  13.601
 9458SOL    HW130206  11.284   1.793  13.591
 9458SOL    HW230207  11.157   1.711  13.600
 9459SOL     OW30208   9.448   2.480   6.471
 9459SOL    HW130209   9.427   2.572   6.456
 9459SOL    HW230210   9.377   2.432   6.427
 9460SOL     OW30211   1.926   0.664   0.265
 9460SOL    HW130212   1.958   0.736   0.211
 9460SOL    HW230213   1.839   0.645   0.231
 9461SOL     OW30214  11.454  11.521  12.439
 9461SOL    HW130215  11.505  11.463  12.495
 9461SOL    HW230216  11.366  11.521  12.478
 9462SOL     OW30217  12.271   3.301   7.821
 9462SOL    HW130218  12.353   3.351   7.826
 9462SOL    HW230219  12.277   3.238   7.893
 9463SOL     OW30220   0.018   8.294   5.633
 9463SOL    HW130221   0.041   8.383   5.608
 9463SOL    HW230222   0.036   8.242   5.554
 9464SOL     OW30223  13.180   0.543   6.659
 9464SOL    HW130224  13.128   0.612   6.700
 9464SOL    HW230225  13.186   0.567   6.567
 9465SOL     OW30226   1.337  10.526  14.746
 9465SOL    HW130227   1.350  10.438  14.709
 9465SOL    HW230228   1.389  10.583  14.690
 9466SOL     OW30229   5.487   6.492   3.232
 9466SOL    HW130230   5.511   6.584   3.238
 9466SOL    HW230231   5.415   6.489   3.169
 9467SOL     OW30232  14.323   1.009  11.727
 9467SOL    HW130233  14.335   0.985  11.819
 9467SOL    HW230234  14.233   0.986  11.708
 9468SOL     OW30235   7.217  12.641  14.527
 9468SOL    HW130236   7.152  12.686  14.581
 9468SOL    HW230237   7.185  12.650  14.437
 9469SOL     OW30238  11.309   4.650   4.098
 9469SOL    HW130239  11.403   4.642   4.083
 9469SOL    HW230240  11.294   4.609   4.183
 9470SOL     OW30241   4.748   1.771   6.734
 9470SOL    HW130242   4.765   1.708   6.664
 9470SOL    HW230243   4.797   1.849   6.709
 9471SOL     OW30244   3.698   6.733   7.446
 9471SOL    HW130245   3.763   6.674   7.408
 9471SOL    HW230246   3.715   6.729   7.541
 9472SOL     OW30247  12.827   3.774   5.876
 9472SOL    HW130248  12.894   3.723   5.829
 9472SOL    HW230249  12.753   3.776   5.816
 9473SOL     OW30250   4.226   1.354  12.853
 9473SOL    HW130251   4.160   1.303  12.901
 9473SOL    HW230252   4.309   1.314  12.880
 9474SOL     OW30253   6.429  13.605   0.394
 9474SOL    HW130254   6.350  13.569   0.433
 9474SOL    HW230255   6.501  13.564   0.443
 9475SOL     OW30256  12.387  10.873   0.278
 9475SOL    HW130257  12.403  10.821   0.199
 9475SOL    HW230258  12.461  10.853   0.335
 9476SOL     OW30259   2.062   2.905   1.420
 9476SOL    HW130260   2.029   2.947   1.498
 9476SOL    HW230261   2.101   2.823   1.451
 9477SOL     OW30262   5.240   0.737   8.131
 9477SOL    HW130263   5.239   0.682   8.053
 9477SOL    HW230264   5.318   0.709   8.179
 9478SOL     OW30265   2.629  12.731   9.328
 9478SOL    HW130266   2.568  12.805   9.330
 9478SOL    HW230267   2.654  12.723   9.236
 9479SOL     OW30268   9.071   7.659   4.836
 9479SOL    HW130269   9.045   7.637   4.925
 9479SOL    HW230270   9.136   7.728   4.847
 9480SOL     OW30271   3.629   7.624  14.610
 9480SOL    HW130272   3.648   7.661  14.524
 9480SOL    HW230273   3.692   7.552  14.620
 9481SOL     OW30274  13.775   5.478   8.761
 9481SOL    HW130275  13.757   5.511   8.673
 9481SOL    HW230276  13.868   5.454   8.760
 9482SOL     OW30277   7.996  10.336   6.032
 9482SOL    HW130278   7.937  10.281   6.083
 9482SOL    HW230279   7.960  10.424   6.040
 9483SOL     OW30280  12.489   1.350   3.214
 9483SOL    HW130281  12.518   1.265   3.248
 9483SOL    HW230282  12.561   1.409   3.232
 9484SOL     OW30283   2.180   8.933   7.692
 9484SOL    HW130284   2.165   8.847   7.732
 9484SOL    HW230285   2.250   8.972   7.745
 9485SOL     OW30286   7.629   6.431  11.212
 9485SOL    HW130287   7.649   6.504  11.270
 9485SOL    HW230288   7.597   6.472  11.131
 9486SOL     OW30289  12.208   1.853  14.610
 9486SOL    HW130290  12.237   1.761  14.614
 9486SOL    HW230291  12.286   1.902  14.585
 9487SOL     OW30292   9.454  10.406   1.930
 9487SOL    HW130293   9.452  10.502   1.938
 9487SOL    HW230294   9.510  10.390   1.854
 9488SOL     OW30295   2.698  11.347   9.428
 9488SOL    HW130296   2.751  11.416   9.468
 9488SOL    HW230297   2.762  11.289   9.387
 9489SOL     OW30298   8.683   0.572   8.703
 9489SOL    HW130299   8.590   0.568   8.683
 9489SOL    HW230300   8.694   0.517   8.781
 9490SOL     OW30301  12.811  10.561   4.649
 9490SOL    HW130302  12.771  10.603   4.725
 9490SOL    HW230303  12.770  10.475   4.644
 9491SOL     OW30304  11.059   2.568  12.447
 9491SOL    HW130305  11.113   2.618  12.385
 9491SOL    HW230306  11.076   2.608  12.532
 9492SOL     OW30307   2.391  13.649   2.476
 9492SOL    HW130308   2.387  13.629   2.570
 9492SOL    HW230309   2.452  13.584   2.441
 9493SOL     OW30310   0.863   7.891   3.760
 9493SOL    HW130311   0.888   7.983   3.764
 9493SOL    HW230312   0.777   7.887   3.801
 9494SOL     OW30313   3.281   8.605   8.155
 9494SOL    HW130314   3.217   8.664   8.114
 9494SOL    HW230315   3.228   8.532   8.189
 9495SOL     OW30316  11.900   8.950   6.995
 9495SOL    HW130317  11.847   9.023   7.028
 9495SOL    HW230318  11.948   8.918   7.072
 9496SOL     OW30319  13.053   9.365   7.232
 9496SOL    HW130320  13.125   9.345   7.292
 9496SOL    HW230321  13.094   9.412   7.160
 9497SOL     OW30322   4.125  13.856   1.183
 9497SOL    HW130323   4.094  13.876   1.095
 9497SOL    HW230324   4.215  13.825   1.170
 9498SOL     OW30325   3.161   6.302  12.426
 9498SOL    HW130326   3.136   6.394  12.433
 9498SOL    HW230327   3.229   6.300  12.359
 9499SOL     OW30328   9.722   5.170   7.072
 9499SOL    HW130329   9.809   5.207   7.057
 9499SOL    HW230330   9.671   5.198   6.996
 9500SOL     OW30331   0.545   4.849   5.581
 9500SOL    HW130332   0.497   4.863   5.663
 9500SOL    HW230333   0.624   4.802   5.608
 9501SOL     OW30334   7.147   3.439   1.131
 9501SOL    HW130335   7.196   3.467   1.054
 9501SOL    HW230336   7.158   3.510   1.194
 9502SOL     OW30337   6.576   2.682   8.606
 9502SOL    HW130338   6.670   2.697   8.594
 9502SOL    HW230339   6.557   2.602   8.556
 9503SOL     OW30340   9.754   6.771   8.612
 9503SOL    HW130341   9.731   6.747   8.701
 9503SOL    HW230342   9.807   6.851   8.621
 9504SOL     OW30343   2.796  12.248   7.744
 9504SOL    HW130344   2.832  12.202   7.819
 9504SOL    HW230345   2.854  12.224   7.671
 9505SOL     OW30346   9.555   0.378  14.053
 9505SOL    HW130347   9.575   0.385  13.960
 9505SOL    HW230348   9.574   0.465  14.088
 9506SOL     OW30349   7.383   4.077   6.771
 9506SOL    HW130350   7.291   4.085   6.747
 9506SOL    HW230351   7.432   4.114   6.698
 9507SOL     OW30352  11.459   6.321   1.331
 9507SOL    HW130353  11.407   6.304   1.409
 9507SOL    HW230354  11.407   6.286   1.259
 9508SOL     OW30355  10.632   9.357   2.467
 9508SOL    HW130356  10.659   9.269   2.440
 9508SOL    HW230357  10.537   9.357   2.453
 9509SOL     OW30358  14.003  14.161   7.017
 9509SOL    HW130359  14.010  14.093   6.950
 9509SOL    HW230360  13.909  14.165   7.038
 9510SOL     OW30361  10.657  13.106  11.728
 9510SOL    HW130362  10.651  13.199  11.748
 9510SOL    HW230363  10.743  13.079  11.761
 9511SOL     OW30364   0.685   8.361  12.408
 9511SOL    HW130365   0.659   8.388  12.320
 9511SOL    HW230366   0.777   8.386  12.415
 9512SOL     OW30367   6.497   8.838   8.810
 9512SOL    HW130368   6.473   8.818   8.901
 9512SOL    HW230369   6.515   8.753   8.771
 9513SOL     OW30370  14.459   5.291   3.094
 9513SOL    HW130371  14.418   5.265   3.177
 9513SOL    HW230372  14.457   5.386   3.094
 9514SOL     OW30373  14.230   0.431   1.682
 9514SOL    HW130374  14.218   0.352   1.734
 9514SOL    HW230375  14.301   0.410   1.621
 9515SOL     OW30376   0.332  14.571  11.855
 9515SOL    HW130377   0.303  14.495  11.805
 9515SOL    HW230378   0.349  14.638  11.788
 9516SOL     OW30379   7.640   2.317   9.287
 9516SOL    HW130380   7.651   2.372   9.364
 9516SOL    HW230381   7.554   2.278   9.297
 9517SOL     OW30382   3.805  13.340   3.786
 9517SOL    HW130383   3.789  13.410   3.722
 9517SOL    HW230384   3.763  13.371   3.866
 9518SOL     OW30385  14.327   4.599  13.261
 9518SOL    HW130386  14.275   4.664  13.214
 9518SOL    HW230387  14.302   4.611  13.353
 9519SOL     OW30388   9.900  10.494  12.209
 9519SOL    HW130389   9.934  10.408  12.234
 9519SOL    HW230390   9.880  10.537  12.292
 9520SOL     OW30391   9.877   0.665   6.181
 9520SOL    HW130392   9.930   0.605   6.233
 9520SOL    HW230393   9.825   0.713   6.245
 9521SOL     OW30394   1.790  14.352  13.538
 9521SOL    HW130395   1.711  14.384  13.495
 9521SOL    HW230396   1.861  14.398  13.494
 9522SOL     OW30397  14.475   7.022   1.467
 9522SOL    HW130398  14.527   7.081   1.414
 9522SOL    HW230399  14.528   6.942   1.474
 9523SOL     OW30400   3.451   2.045  10.345
 9523SOL    HW130401   3.364   2.020  10.316
 9523SOL    HW230402   3.510   1.991  10.291
 9524SOL     OW30403  14.298  12.289   6.455
 9524SOL    HW130404  14.291  12.228   6.382
 9524SOL    HW230405  14.330  12.236   6.528
 9525SOL     OW30406   7.057  10.161   4.217
 9525SOL    HW130407   7.063  10.190   4.127
 9525SOL    HW230408   6.975  10.200   4.249
 9526SOL     OW30409   0.200  11.015   1.081
 9526SOL    HW130410   0.243  11.049   1.003
 9526SOL    HW230411   0.170  11.093   1.128
 9527SOL     OW30412  13.060   5.084  10.586
 9527SOL    HW130413  12.977   5.071  10.632
 9527SOL    HW230414  13.125   5.043  10.643
 9528SOL     OW30415  10.016   0.174  13.120
 9528SOL    HW130416  10.105   0.145  13.140
 9528SOL    HW230417  10.007   0.258  13.166
 9529SOL     OW30418   0.496   6.036  12.439
 9529SOL    HW130419   0.449   6.106  12.484
 9529SOL    HW230420   0.589   6.059  12.447
 9530SOL     OW30421   5.392  11.448  14.782
 9530SOL    HW130422   5.424  11.461  14.692
 9530SOL    HW230423   5.397  11.354  14.796
 9531SOL     OW30424  10.382   0.283   5.427
 9531SOL    HW130425  10.425   0.304   5.344
 9531SOL    HW230426  10.453   0.265   5.488
 9532SOL     OW30427  14.364  13.616   3.790
 9532SOL    HW130428  14.386  13.553   3.722
 9532SOL    HW230429  14.283  13.657   3.759
 9533SOL     OW30430   7.013   5.585  10.694
 9533SOL    HW130431   7.064   5.578  10.775
 9533SOL    HW230432   6.929   5.544  10.716
 9534SOL     OW30433   4.958  10.473  10.465
 9534SOL    HW130434   4.974  10.465  10.559
 9534SOL    HW230435   5.010  10.404  10.425
 9535SOL     OW30436  12.681   2.118   6.352
 9535SOL    HW130437  12.703   2.211   6.344
 9535SOL    HW230438  12.662   2.090   6.262
 9536SOL     OW30439  10.772   2.487   2.214
 9536SOL    HW130440  10.746   2.572   2.250
 9536SOL    HW230441  10.828   2.508   2.141
 9537SOL     OW30442   2.036   9.199  13.683
 9537SOL    HW130443   2.092   9.127  13.712
 9537SOL    HW230444   2.018   9.249  13.763
 9538SOL     OW30445   9.016  10.075   1.095
 9538SOL    HW130446   9.077  10.064   1.168
 9538SOL    HW230447   9.063  10.044   1.018
 9539SOL     OW30448   0.460   0.258  14.035
 9539SOL    HW130449   0.381   0.254  13.982
 9539SOL    HW230450   0.515   0.322  13.992
 9540SOL     OW30451  12.091   8.302  11.651
 9540SOL    HW130452  12.008   8.262  11.628
 9540SOL    HW230453  12.133   8.321  11.567
 9541SOL     OW30454   6.355  13.415  11.756
 9541SOL    HW130455   6.418  13.344  11.741
 9541SOL    HW230456   6.386  13.458  11.836
 9542SOL     OW30457   3.269   1.868   4.198
 9542SOL    HW130458   3.233   1.955   4.178
 9542SOL    HW230459   3.356   1.869   4.157
 9543SOL     OW30460   1.213   6.031   2.811
 9543SOL    HW130461   1.299   6.066   2.836
 9543SOL    HW230462   1.188   6.081   2.733
 9544SOL     OW30463  11.472   4.979   5.980
 9544SOL    HW130464  11.556   4.934   5.970
 9544SOL    HW230465  11.489   5.069   5.950
 9545SOL     OW30466   3.776  10.312   8.514
 9545SOL    HW130467   3.781  10.389   8.571
 9545SOL    HW230468   3.864  10.276   8.515
 9546SOL     OW30469  13.020  14.566  10.966
 9546SOL    HW130470  13.090  14.566  10.901
 9546SOL    HW230471  12.953  14.508  10.929
 9547SOL     OW30472   6.118  13.705   9.532
 9547SOL    HW130473   6.025  13.685   9.517
 9547SOL    HW230474   6.130  13.792   9.495
 9548SOL     OW30475   0.712   9.296  10.215
 9548SOL    HW130476   0.773   9.223  10.225
 9548SOL    HW230477   0.742   9.361  10.279
 9549SOL     OW30478  11.688   1.773   9.774
 9549SOL    HW130479  11.644   1.846   9.730
 9549SOL    HW230480  11.697   1.802   9.865
 9550SOL     OW30481   1.719   5.398   3.634
 9550SOL    HW130482   1.673   5.349   3.703
 9550SOL    HW230483   1.677   5.484   3.633
 9551SOL     OW30484   1.547   8.943  12.555
 9551SOL    HW130485   1.601   8.905  12.624
 9551SOL    HW230486   1.555   8.882  12.482
 9552SOL     OW30487   9.561  14.322  11.991
 9552SOL    HW130488   9.652  14.296  12.010
 9552SOL    HW230489   9.564  14.417  11.986
 9553SOL     OW30490   3.256   9.535   1.983
 9553SOL    HW130491   3.272   9.629   1.992
 9553SOL    HW230492   3.173   9.520   2.028
 9554SOL     OW30493  10.903  11.210  10.113
 9554SOL    HW130494  10.970  11.231  10.048
 9554SOL    HW230495  10.938  11.134  10.159
 9555SOL     OW30496   8.356  14.396  14.549
 9555SOL    HW130497   8.300  14.407  14.626
 9555SOL    HW230498   8.295  14.382  14.476
 9556SOL     OW30499   5.405   2.750   1.287
 9556SOL    HW130500   5.339   2.735   1.220
 9556SOL    HW230501   5.366   2.816   1.345
 9557SOL     OW30502   8.405   4.192  10.986
 9557SOL    HW130503   8.310   4.205  10.993
 9557SOL    HW230504   8.414   4.102  10.953
 9558SOL     OW30505   7.559  11.422  12.320
 9558SOL    HW130506   7.569  11.326  12.319
 9558SOL    HW230507   7.493  11.439  12.386
 9559SOL     OW30508  14.270   5.885  10.918
 9559SOL    HW130509  14.201   5.842  10.868
 9559SOL    HW230510  14.284   5.968  10.872
 9560SOL     OW30511   4.057  10.831   2.975
 9560SOL    HW130512   3.963  10.842   2.961
 9560SOL    HW230513   4.064  10.755   3.033
 9561SOL     OW30514   7.814   8.204  14.337
 9561SOL    HW130515   7.746   8.202  14.269
 9561SOL    HW230516   7.846   8.114  14.341
 9562SOL     OW30517   4.648   0.879   0.421
 9562SOL    HW130518   4.711   0.808   0.437
 9562SOL    HW230519   4.689   0.956   0.460
 9563SOL     OW30520  10.235   2.176   3.528
 9563SOL    HW130521  10.311   2.207   3.478
 9563SOL    HW230522  10.172   2.149   3.462
 9564SOL     OW30523   5.592  14.300   5.976
 9564SOL    HW130524   5.664  14.242   6.002
 9564SOL    HW230525   5.619  14.334   5.891
 9565SOL     OW30526   5.931  12.857   2.493
 9565SOL    HW130527   5.901  12.948   2.504
 9565SOL    HW230528   5.855  12.811   2.459
 9566SOL     OW30529  11.450   1.584   9.819
 9566SOL    HW130530  11.360   1.585   9.853
 9566SOL    HW230531  11.477   1.676   9.821
 9567SOL     OW30532   4.704   4.821   2.358
 9567SOL    HW130533   4.633   4.758   2.343
 9567SOL    HW230534   4.750   4.787   2.434
 9568SOL     OW30535  13.802  13.066  14.721
 9568SOL    HW130536  13.860  13.138  14.744
 9568SOL    HW230537  13.807  13.060  14.626
 9569SOL     OW30538   8.667   7.641  14.763
 9569SOL    HW130539   8.657   7.586  14.841
 9569SOL    HW230540   8.614   7.719  14.782
 9570SOL     OW30541  11.471   8.123   2.058
 9570SOL    HW130542  11.414   8.198   2.040
 9570SOL    HW230543  11.419   8.047   2.031
 9571SOL     OW30544   6.782   3.464   2.138
 9571SOL    HW130545   6.745   3.384   2.176
 9571SOL    HW230546   6.705   3.516   2.114
 9572SOL     OW30547  10.978  10.531   9.668
 9572SOL    HW130548  10.971  10.567   9.579
 9572SOL    HW230549  10.994  10.438   9.655
 9573SOL     OW30550  13.521   5.326   6.670
 9573SOL    HW130551  13.439   5.310   6.624
 9573SOL    HW230552  13.526   5.258   6.737
 9574SOL     OW30553  14.832   0.148   2.992
 9574SOL    HW130554  14.830   0.170   3.085
 9574SOL    HW230555  14.758   0.196   2.954
 9575SOL     OW30556  14.262   3.083   3.761
 9575SOL    HW130557  14.304   3.000   3.783
 9575SOL    HW230558  14.257   3.084   3.666
 9576SOL     OW30559   6.588  11.502   2.146
 9576SOL    HW130560   6.577  11.569   2.214
 9576SOL    HW230561   6.519  11.522   2.083
 9577SOL     OW30562   9.268   9.690   5.570
 9577SOL    HW130563   9.225   9.704   5.485
 9577SOL    HW230564   9.197   9.675   5.631
 9578SOL     OW30565  13.796   8.130   8.790
 9578SOL    HW130566  13.714   8.161   8.830
 9578SOL    HW230567  13.865   8.177   8.836
 9579SOL     OW30568   9.915   7.499   6.042
 9579SOL    HW130569   9.898   7.591   6.063
 9579SOL    HW230570   9.885   7.488   5.952
 9580SOL     OW30571   1.888  13.077   4.002
 9580SOL    HW130572   1.860  13.159   3.960
 9580SOL    HW230573   1.825  13.012   3.971
 9581SOL     OW30574  14.698   1.776   5.379
 9581SOL    HW130575  14.696   1.737   5.292
 9581SOL    HW230576  14.641   1.721   5.432
 9582SOL     OW30577   8.807   2.100  10.451
 9582SOL    HW130578   8.860   2.177  10.430
 9582SOL    HW230579   8.836   2.033  10.388
 9583SOL     OW30580   6.620  12.666   0.166
 9583SOL    HW130581   6.564  12.633   0.095
 9583SOL    HW230582   6.561  12.722   0.217
 9584SOL     OW30583  14.719   5.115  11.077
 9584SOL    HW130584  14.780   5.156  11.016
 9584SOL    HW230585  14.772   5.050  11.124
 9585SOL     OW30586   7.322   2.596   2.896
 9585SOL    HW130587   7.276   2.656   2.956
 9585SOL    HW230588   7.272   2.602   2.814
 9586SOL     OW30589  13.168   3.501   3.243
 9586SOL    HW130590  13.111   3.532   3.313
 9586SOL    HW230591  13.202   3.581   3.202
 9587SOL     OW30592  10.284  13.114   5.670
 9587SOL    HW130593  10.360  13.096   5.726
 9587SOL    HW230594  10.314  13.094   5.581
 9588SOL     OW30595   1.720  11.999   0.674
 9588SOL    HW130596   1.702  11.975   0.583
 9588SOL    HW230597   1.636  11.988   0.719
 9589SOL     OW30598   8.190   4.425   8.896
 9589SOL    HW130599   8.212   4.358   8.831
 9589SOL    HW230600   8.270   4.478   8.903
 9590SOL     OW30601   7.336   3.433   8.956
 9590SOL    HW130602   7.410   3.473   9.004
 9590SOL    HW230603   7.356   3.450   8.864
 9591SOL     OW30604   2.290  11.832  13.525
 9591SOL    HW130605   2.317  11.906  13.471
 9591SOL    HW230606   2.370  11.808  13.574
 9592SOL     OW30607  14.602   4.170   1.783
 9592SOL    HW130608  14.537   4.197   1.849
 9592SOL    HW230609  14.671   4.128   1.834
 9593SOL     OW30610  11.184   0.389  11.203
 9593SOL    HW130611  11.172   0.433  11.119
 9593SOL    HW230612  11.194   0.297  11.180
 9594SOL     OW30613  14.137  13.166   1.824
 9594SOL    HW130614  14.083  13.091   1.799
 9594SOL    HW230615  14.203  13.173   1.756
 9595SOL     OW30616   7.836   1.947  13.616
 9595SOL    HW130617   7.770   1.965  13.683
 9595SOL    HW230618   7.886   2.029  13.609
 9596SOL     OW30619  10.959   6.616  14.506
 9596SOL    HW130620  10.969   6.681  14.436
 9596SOL    HW230621  10.865   6.600  14.511
 9597SOL     OW30622  11.768   2.738  12.400
 9597SOL    HW130623  11.673   2.725  12.400
 9597SOL    HW230624  11.788   2.771  12.488
 9598SOL     OW30625  13.167   4.538   0.819
 9598SOL    HW130626  13.120   4.475   0.873
 9598SOL    HW230627  13.187   4.491   0.738
 9599SOL     OW30628   0.240   9.121   4.080
 9599SOL    HW130629   0.164   9.093   4.029
 9599SOL    HW230630   0.315   9.086   4.033
 9600SOL     OW30631   4.949   3.937   0.015
 9600SOL    HW130632   4.885   3.871   0.041
 9600SOL    HW230633   4.971   3.983   0.096
 9601SOL     OW30634  10.300  14.496   7.358
 9601SOL    HW130635  10.301  14.498   7.453
 9601SOL    HW230636  10.311  14.587   7.332
 9602SOL     OW30637   7.949   7.190   2.896
 9602SOL    HW130638   7.874   7.244   2.922
 9602SOL    HW230639   8.013   7.252   2.862
 9603SOL     OW30640   9.314   4.670   2.196
 9603SOL    HW130641   9.221   4.685   2.175
 9603SOL    HW230642   9.323   4.575   2.197
 9604SOL     OW30643  13.696   2.927   9.797
 9604SOL    HW130644  13.762   2.954   9.733
 9604SOL    HW230645  13.614   2.964   9.764
 9605SOL     OW30646  12.184  10.912  11.997
 9605SOL    HW130647  12.141  10.847  12.052
 9605SOL    HW230648  12.154  10.893  11.908
 9606SOL     OW30649  14.580  14.141   6.490
 9606SOL    HW130650  14.594  14.080   6.417
 9606SOL    HW230651  14.488  14.168   6.480
 9607SOL     OW30652   4.698   8.759  11.032
 9607SOL    HW130653   4.684   8.845  11.071
 9607SOL    HW230654   4.793   8.751  11.024
 9608SOL     OW30655  11.593  14.363  14.033
 9608SOL    HW130656  11.686  14.348  14.014
 9608SOL    HW230657  11.565  14.285  14.080
 9609SOL     OW30658   9.674   8.835  12.948
 9609SOL    HW130659   9.690   8.745  12.978
 9609SOL    HW230660   9.666   8.827  12.853
 9610SOL     OW30661  12.538   5.792  13.477
 9610SOL    HW130662  12.456   5.773  13.523
 9610SOL    HW230663  12.604   5.744  13.527
 9611SOL     OW30664  12.353  11.781   3.384
 9611SOL    HW130665  12.280  11.735   3.343
 9611SOL    HW230666  12.369  11.857   3.328
 9612SOL     OW30667   9.928   2.034  10.187
 9612SOL    HW130668   9.957   2.099  10.252
 9612SOL    HW230669   9.855   1.990  10.230
 9613SOL     OW30670   8.918  10.196   4.207
 9613SOL    HW130671   8.942  10.121   4.153
 9613SOL    HW230672   8.835  10.171   4.247
 9614SOL     OW30673   3.152   2.982  14.674
 9614SOL    HW130674   3.164   2.947  14.763
 9614SOL    HW230675   3.198   2.919  14.618
 9615SOL     OW30676   1.589   2.309   3.215
 9615SOL    HW130677   1.669   2.283   3.261
 9615SOL    HW230678   1.522   2.312   3.283
 9616SOL     OW30679   5.498  13.145   8.088
 9616SOL    HW130680   5.438  13.096   8.144
 9616SOL    HW230681   5.560  13.185   8.148
 9617SOL     OW30682   2.448   2.360   0.441
 9617SOL    HW130683   2.538   2.379   0.417
 9617SOL    HW230684   2.454   2.303   0.518
 9618SOL     OW30685   4.257   3.133  11.798
 9618SOL    HW130686   4.244   3.139  11.893
 9618SOL    HW230687   4.288   3.220  11.773
 9619SOL     OW30688   0.498   7.797   7.945
 9619SOL    HW130689   0.547   7.730   7.993
 9619SOL    HW230690   0.527   7.880   7.985
 9620SOL     OW30691   4.181   8.602  11.929
 9620SOL    HW130692   4.138   8.676  11.973
 9620SOL    HW230693   4.167   8.618  11.836
 9621SOL     OW30694   4.429   7.353  14.222
 9621SOL    HW130695   4.401   7.426  14.166
 9621SOL    HW230696   4.374   7.280  14.193
 9622SOL     OW30697  13.815   5.228   6.219
 9622SOL    HW130698  13.800   5.237   6.313
 9622SOL    HW230699  13.899   5.271   6.204
 9623SOL     OW30700  10.155   6.352   9.472
 9623SOL    HW130701  10.114   6.290   9.532
 9623SOL    HW230702  10.247   6.354   9.498
 9624SOL     OW30703  14.065   7.846   1.328
 9624SOL    HW130704  14.073   7.927   1.378
 9624SOL    HW230705  13.978   7.814   1.350
 9625SOL     OW30706   9.909   3.725   3.304
 9625SOL    HW130707   9.869   3.640   3.285
 9625SOL    HW230708   9.910   3.771   3.220
 9626SOL     OW30709   6.621  12.997  13.557
 9626SOL    HW130710   6.646  12.973  13.646
 9626SOL    HW230711   6.639  13.091  13.552
 9627SOL     OW30712   6.200   5.871  14.577
 9627SOL    HW130713   6.205   5.785  14.537
 9627SOL    HW230714   6.132   5.917  14.527
 9628SOL     OW30715   5.519  12.897   4.479
 9628SOL    HW130716   5.551  12.987   4.489
 9628SOL    HW230717   5.545  12.873   4.390
 9629SOL     OW30718   3.495   8.761  12.543
 9629SOL    HW130719   3.407   8.732  12.519
 9629SOL    HW230720   3.483   8.814  12.622
 9630SOL     OW30721   4.669  13.255   0.896
 9630SOL    HW130722   4.761  13.268   0.872
 9630SOL    HW230723   4.672  13.211   0.981
 9631SOL     OW30724  14.785   0.947   3.360
 9631SOL    HW130725  14.761   1.036   3.385
 9631SOL    HW230726  14.826   0.909   3.438
 9632SOL     OW30727   8.200   3.202   3.304
 9632SOL    HW130728   8.216   3.120   3.258
 9632SOL    HW230729   8.105   3.213   3.300
 9633SOL     OW30730   4.079  13.631   3.949
 9633SOL    HW130731   4.120  13.617   3.864
 9633SOL    HW230732   4.150  13.665   4.004
 9634SOL     OW30733   8.999   3.254   4.194
 9634SOL    HW130734   8.940   3.302   4.137
 9634SOL    HW230735   9.064   3.216   4.135
 9635SOL     OW30736   1.984   8.714   6.114
 9635SOL    HW130737   2.040   8.759   6.177
 9635SOL    HW230738   1.992   8.621   6.136
 9636SOL     OW30739   2.332   1.360  11.152
 9636SOL    HW130740   2.327   1.345  11.246
 9636SOL    HW230741   2.347   1.454  11.143
 9637SOL     OW30742   3.946   9.327   1.086
 9637SOL    HW130743   3.903   9.265   1.145
 9637SOL    HW230744   4.040   9.310   1.098
 9638SOL     OW30745   3.621  12.437   9.627
 9638SOL    HW130746   3.562  12.367   9.655
 9638SOL    HW230747   3.599  12.510   9.684
 9639SOL     OW30748   0.673   9.104   3.820
 9639SOL    HW130749   0.720   9.154   3.887
 9639SOL    HW230750   0.708   9.136   3.737
 9640SOL     OW30751   6.079  10.455   5.652
 9640SOL    HW130752   6.118  10.396   5.587
 9640SOL    HW230753   5.985  10.444   5.641
 9641SOL     OW30754   3.230   3.583   2.926
 9641SOL    HW130755   3.159   3.577   2.990
 9641SOL    HW230756   3.219   3.506   2.870
 9642SOL     OW30757  11.105   9.104   0.809
 9642SOL    HW130758  11.061   9.027   0.773
 9642SOL    HW230759  11.049   9.177   0.784
 9643SOL     OW30760  13.522   9.515  14.874
 9643SOL    HW130761  13.518   9.518  14.778
 9643SOL    HW230762  13.519   9.422   0.019
 9644SOL     OW30763  14.065   7.841   4.151
 9644SOL    HW130764  13.989   7.897   4.139
 9644SOL    HW230765  14.139   7.901   4.157
 9645SOL     OW30766  11.341   9.518  12.369
 9645SOL    HW130767  11.333   9.519  12.274
 9645SOL    HW230768  11.281   9.449  12.398
 9646SOL     OW30769   9.569   3.367  10.980
 9646SOL    HW130770   9.489   3.323  10.952
 9646SOL    HW230771   9.588   3.429  10.910
 9647SOL     OW30772   5.599  12.577   1.922
 9647SOL    HW130773   5.663  12.525   1.972
 9647SOL    HW230774   5.651  12.647   1.883
 9648SOL     OW30775   9.888  10.455   4.889
 9648SOL    HW130776   9.803  10.446   4.845
 9648SOL    HW230777   9.906  10.368   4.924
 9649SOL     OW30778   0.765  12.097  11.623
 9649SOL    HW130779   0.836  12.050  11.578
 9649SOL    HW230780   0.737  12.037  11.692
 9650SOL     OW30781  13.521   2.258   2.892
 9650SOL    HW130782  13.536   2.348   2.920
 9650SOL    HW230783  13.607   2.216   2.897
 9651SOL     OW30784   8.459  13.115   5.035
 9651SOL    HW130785   8.444  13.072   5.119
 9651SOL    HW230786   8.477  13.206   5.057
 9652SOL     OW30787   2.413  12.529  13.690
 9652SOL    HW130788   2.471  12.515  13.765
 9652SOL    HW230789   2.332  12.563  13.730
 9653SOL     OW30790   4.709   7.974   0.827
 9653SOL    HW130791   4.615   7.969   0.846
 9653SOL    HW230792   4.740   8.051   0.875
 9654SOL     OW30793   7.356   0.673  11.872
 9654SOL    HW130794   7.353   0.684  11.777
 9654SOL    HW230795   7.444   0.636  11.888
 9655SOL     OW30796   7.471   7.379   8.151
 9655SOL    HW130797   7.393   7.348   8.105
 9655SOL    HW230798   7.447   7.465   8.186
 9656SOL     OW30799  11.028   5.900  10.748
 9656SOL    HW130800  11.026   5.979  10.802
 9656SOL    HW230801  11.029   5.933  10.658
 9657SOL     OW30802  10.905   7.147  14.053
 9657SOL    HW130803  10.858   7.230  14.050
 9657SOL    HW230804  10.952   7.150  14.137
 9658SOL     OW30805   1.089  11.309   1.152
 9658SOL    HW130806   1.029  11.304   1.227
 9658SOL    HW230807   1.121  11.220   1.140
 9659SOL     OW30808   5.805  12.107   7.647
 9659SOL    HW130809   5.718  12.076   7.673
 9659SOL    HW230810   5.800  12.203   7.655
 9660SOL     OW30811   2.728  14.686   3.092
 9660SOL    HW130812   2.641  14.725   3.082
 9660SOL    HW230813   2.781  14.755   3.133
 9661SOL     OW30814   9.035   2.803  10.705
 9661SOL    HW130815   9.083   2.862  10.762
 9661SOL    HW230816   9.059   2.715  10.735
 9662SOL     OW30817   5.916  13.348   7.862
 9662SOL    HW130818   5.852  13.279   7.847
 9662SOL    HW230819   5.997  13.301   7.884
 9663SOL     OW30820  11.254   0.722  10.253
 9663SOL    HW130821  11.286   0.633  10.262
 9663SOL    HW230822  11.188   0.717  10.184
 9664SOL     OW30823   6.944   0.895   4.783
 9664SOL    HW130824   6.947   0.929   4.694
 9664SOL    HW230825   6.954   0.800   4.773
 9665SOL     OW30826   6.200  12.293  12.754
 9665SOL    HW130827   6.211  12.206  12.717
 9665SOL    HW230828   6.243  12.288  12.840
 9666SOL     OW30829   3.488  11.456  11.817
 9666SOL    HW130830   3.557  11.428  11.877
 9666SOL    HW230831   3.523  11.533  11.773
 9667SOL     OW30832   4.226   0.821   0.213
 9667SOL    HW130833   4.319   0.803   0.230
 9667SOL    HW230834   4.190   0.736   0.188
 9668SOL     OW30835   5.082   4.575   0.190
 9668SOL    HW130836   5.061   4.484   0.211
 9668SOL    HW230837   5.177   4.581   0.200
 9669SOL     OW30838  13.192   0.373   3.442
 9669SOL    HW130839  13.101   0.348   3.454
 9669SOL    HW230840  13.190   0.467   3.425
 9670SOL     OW30841   5.174  11.652  10.353
 9670SOL    HW130842   5.159  11.724  10.291
 9670SOL    HW230843   5.086  11.619  10.373
 9671SOL     OW30844   5.694   5.371   3.042
 9671SOL    HW130845   5.772   5.325   3.010
 9671SOL    HW230846   5.625   5.347   2.980
 9672SOL     OW30847   0.942   9.338   0.798
 9672SOL    HW130848   1.021   9.284   0.793
 9672SOL    HW230849   0.878   9.291   0.745
 9673SOL     OW30850   1.806   4.722   3.251
 9673SOL    HW130851   1.884   4.776   3.240
 9673SOL    HW230852   1.741   4.763   3.192
 9674SOL     OW30853  10.766   5.538   6.844
 9674SOL    HW130854  10.731   5.471   6.902
 9674SOL    HW230855  10.706   5.612   6.854
 9675SOL     OW30856   6.562  11.528  10.828
 9675SOL    HW130857   6.656  11.529  10.845
 9675SOL    HW230858   6.554  11.537  10.733
 9676SOL     OW30859   1.070   5.839  10.509
 9676SOL    HW130860   1.018   5.773  10.465
 9676SOL    HW230861   1.133   5.869  10.443
 9677SOL     OW30862   5.862  13.976   9.623
 9677SOL    HW130863   5.819  13.901   9.664
 9677SOL    HW230864   5.872  13.950   9.531
 9678SOL     OW30865   3.827   9.752  10.791
 9678SOL    HW130866   3.793   9.676  10.838
 9678SOL    HW230867   3.923   9.744  10.799
 9679SOL     OW30868  10.283   6.206  14.692
 9679SOL    HW130869  10.356   6.204  14.754
 9679SOL    HW230870  10.258   6.298  14.687
 9680SOL     OW30871   0.402   4.286   6.148
 9680SOL    HW130872   0.345   4.323   6.216
 9680SOL    HW230873   0.473   4.349   6.138
 9681SOL     OW30874  11.728   4.566   2.317
 9681SOL    HW130875  11.823   4.555   2.313
 9681SOL    HW230876  11.706   4.551   2.409
 9682SOL     OW30877   5.116   2.740   8.603
 9682SOL    HW130878   5.049   2.767   8.665
 9682SOL    HW230879   5.142   2.653   8.631
 9683SOL     OW30880  10.679   4.741   7.018
 9683SOL    HW130881  10.641   4.695   6.943
 9683SOL    HW230882  10.753   4.686   7.044
 9684SOL     OW30883   9.716  12.767   7.147
 9684SOL    HW130884   9.775  12.837   7.122
 9684SOL    HW230885   9.724  12.702   7.077
 9685SOL     OW30886   8.229  11.467   6.402
 9685SOL    HW130887   8.258  11.558   6.408
 9685SOL    HW230888   8.164  11.467   6.332
 9686SOL     OW30889  14.169   2.469   4.615
 9686SOL    HW130890  14.189   2.386   4.572
 9686SOL    HW230891  14.094   2.450   4.671
 9687SOL     OW30892   2.382   6.878   3.219
 9687SOL    HW130893   2.364   6.874   3.313
 9687SOL    HW230894   2.477   6.884   3.213
 9688SOL     OW30895   6.008   8.663   3.909
 9688SOL    HW130896   5.939   8.647   3.845
 9688SOL    HW230897   5.998   8.756   3.933
 9689SOL     OW30898   5.731  14.787  14.520
 9689SOL    HW130899   5.681  14.816  14.597
 9689SOL    HW230900   5.713  14.693  14.514
 9690SOL     OW30901  12.490   7.621   6.865
 9690SOL    HW130902  12.477   7.649   6.774
 9690SOL    HW230903  12.457   7.532   6.867
 9691SOL     OW30904   1.707   0.092   3.605
 9691SOL    HW130905   1.656   0.046   3.539
 9691SOL    HW230906   1.726   0.024   3.671
 9692SOL     OW30907  13.398   9.144  10.249
 9692SOL    HW130908  13.334   9.175  10.185
 9692SOL    HW230909  13.387   9.049  10.249
 9693SOL     OW30910   6.319   5.774   7.088
 9693SOL    HW130911   6.315   5.798   6.995
 9693SOL    HW230912   6.242   5.719   7.102
 9694SOL     OW30913   2.946   5.524   6.681
 9694SOL    HW130914   2.937   5.591   6.749
 9694SOL    HW230915   2.925   5.570   6.599
 9695SOL     OW30916   8.490   3.221   2.419
 9695SOL    HW130917   8.544   3.219   2.339
 9695SOL    HW230918   8.402   3.241   2.388
 9696SOL     OW30919   2.828   5.106   9.958
 9696SOL    HW130920   2.822   5.015   9.987
 9696SOL    HW230921   2.921   5.128   9.968
 9697SOL     OW30922   2.362   9.592   3.916
 9697SOL    HW130923   2.276   9.633   3.911
 9697SOL    HW230924   2.360   9.540   3.997
 9698SOL     OW30925   9.521  12.206  12.967
 9698SOL    HW130926   9.489  12.186  12.879
 9698SOL    HW230927   9.609  12.170  12.969
 9699SOL     OW30928   4.317   7.924   6.125
 9699SOL    HW130929   4.391   7.948   6.182
 9699SOL    HW230930   4.339   7.836   6.094
 9700SOL     OW30931   1.146  10.421   8.357
 9700SOL    HW130932   1.074  10.392   8.301
 9700SOL    HW230933   1.182  10.340   8.393
 9701SOL     OW30934   2.108   4.836   6.024
 9701SOL    HW130935   2.131   4.745   6.008
 9701SOL    HW230936   2.025   4.832   6.071
 9702SOL     OW30937   8.247  13.300  11.189
 9702SOL    HW130938   8.342  13.294  11.197
 9702SOL    HW230939   8.216  13.326  11.276
 9703SOL     OW30940   3.831  10.785   7.151
 9703SOL    HW130941   3.889  10.779   7.228
 9703SOL    HW230942   3.765  10.849   7.176
 9704SOL     OW30943  10.294   6.265   6.188
 9704SOL    HW130944  10.324   6.350   6.219
 9704SOL    HW230945  10.373   6.212   6.183
 9705SOL     OW30946   3.842   2.403  11.386
 9705SOL    HW130947   3.919   2.419  11.442
 9705SOL    HW230948   3.832   2.308  11.386
 9706SOL     OW30949   5.298  10.436  13.075
 9706SOL    HW130950   5.217  10.391  13.099
 9706SOL    HW230951   5.289  10.523  13.113
 9707SOL     OW30952   6.029   1.055   1.579
 9707SOL    HW130953   5.989   1.112   1.514
 9707SOL    HW230954   6.120   1.047   1.551
 9708SOL     OW30955   8.689   8.291   3.406
 9708SOL    HW130956   8.719   8.380   3.421
 9708SOL    HW230957   8.658   8.291   3.315
 9709SOL     OW30958  14.452  12.317  14.851
 9709SOL    HW130959  14.493  12.242   0.018
 9709SOL    HW230960  14.521  12.384  14.849
 9710SOL     OW30961  10.581  13.369  13.425
 9710SOL    HW130962  10.503  13.408  13.464
 9710SOL    HW230963  10.650  13.433  13.441
 9711SOL     OW30964   0.461   0.560   5.855
 9711SOL    HW130965   0.477   0.624   5.786
 9711SOL    HW230966   0.519   0.486   5.833
 9712SOL     OW30967  10.277   2.471   4.599
 9712SOL    HW130968  10.302   2.560   4.576
 9712SOL    HW230969  10.192   2.480   4.643
 9713SOL     OW30970   2.288   9.121   5.615
 9713SOL    HW130971   2.296   9.026   5.626
 9713SOL    HW230972   2.285   9.134   5.520
 9714SOL     OW30973   1.407   9.433   1.635
 9714SOL    HW130974   1.469   9.361   1.635
 9714SOL    HW230975   1.448   9.501   1.581
 9715SOL     OW30976  10.825   4.678   8.711
 9715SOL    HW130977  10.867   4.593   8.698
 9715SOL    HW230978  10.884   4.741   8.670
 9716SOL     OW30979   6.387   6.502  13.658
 9716SOL    HW130980   6.470   6.550  13.659
 9716SOL    HW230981   6.408   6.417  13.696
 9717SOL     OW30982   3.934   8.213   7.922
 9717SOL    HW130983   3.866   8.163   7.967
 9717SOL    HW230984   3.970   8.271   7.988
 9718SOL     OW30985   7.018   6.799   9.465
 9718SOL    HW130986   7.059   6.878   9.499
 9718SOL    HW230987   7.080   6.729   9.483
 9719SOL     OW30988  12.347   2.934  12.012
 9719SOL    HW130989  12.252   2.936  11.998
 9719SOL    HW230990  12.374   3.025  12.011
 9720SOL     OW30991   5.459   5.607   5.492
 9720SOL    HW130992   5.417   5.692   5.480
 9720SOL    HW230993   5.423   5.553   5.421
 9721SOL     OW30994  13.734  14.834  12.426
 9721SOL    HW130995  13.661   0.013  12.453
 9721SOL    HW230996  13.808  14.864  12.480
 9722SOL     OW30997  12.071   1.801   9.077
 9722SOL    HW130998  12.029   1.741   9.139
 9722SOL    HW230999  12.138   1.748   9.034
 9723SOL     OW31000   6.261   0.396  13.079
 9723SOL    HW131001   6.236   0.391  13.171
 9723SOL    HW231002   6.356   0.399  13.079
 9724SOL     OW31003   7.571  10.523  11.271
 9724SOL    HW131004   7.549  10.431  11.286
 9724SOL    HW231005   7.524  10.547  11.191
 9725SOL     OW31006   6.596   3.637   9.503
 9725SOL    HW131007   6.643   3.623   9.421
 9725SOL    HW231008   6.541   3.713   9.487
 9726SOL     OW31009   9.005   3.202   6.454
 9726SOL    HW131010   9.066   3.242   6.516
 9726SOL    HW231011   8.919   3.208   6.497
 9727SOL     OW31012   6.183   2.885   5.923
 9727SOL    HW131013   6.135   2.955   5.969
 9727SOL    HW231014   6.156   2.894   5.832
 9728SOL     OW31015   2.194   2.758  12.542
 9728SOL    HW131016   2.114   2.707  12.533
 9728SOL    HW231017   2.250   2.727  12.470
 9729SOL     OW31018  12.242   5.062   3.836
 9729SOL    HW131019  12.287   5.140   3.803
 9729SOL    HW231020  12.149   5.085   3.835
 9730SOL     OW31021   8.974   5.159   8.023
 9730SOL    HW131022   8.928   5.115   8.095
 9730SOL    HW231023   8.945   5.250   8.028
 9731SOL     OW31024   2.145  13.538  10.000
 9731SOL    HW131025   2.066  13.591  10.009
 9731SOL    HW231026   2.122  13.454  10.041
 9732SOL     OW31027  12.115   9.623   1.580
 9732SOL    HW131028  12.185   9.663   1.529
 9732SOL    HW231029  12.116   9.671   1.663
 9733SOL     OW31030  10.285  10.468   3.061
 9733SOL    HW131031  10.196  10.502   3.064
 9733SOL    HW231032  10.297  10.439   2.971
 9734SOL     OW31033  13.778   9.556   7.777
 9734SOL    HW131034  13.822   9.621   7.722
 9734SOL    HW231035  13.780   9.475   7.726
 9735SOL     OW31036  13.456  10.689   7.934
 9735SOL    HW131037  13.450  10.610   7.988
 9735SOL    HW231038  13.455  10.656   7.844
 9736SOL     OW31039   2.548  12.780   4.911
 9736SOL    HW131040   2.460  12.753   4.887
 9736SOL    HW231041   2.603  12.749   4.839
 9737SOL     OW31042   3.463   3.410  12.651
 9737SOL    HW131043   3.415   3.413  12.733
 9737SOL    HW231044   3.404   3.368  12.589
 9738SOL     OW31045   0.187  10.196   7.934
 9738SOL    HW131046   0.098  10.193   7.969
 9738SOL    HW231047   0.199  10.111   7.891
 9739SOL     OW31048   2.215   5.278  14.692
 9739SOL    HW131049   2.294   5.332  14.683
 9739SOL    HW231050   2.207   5.263  14.786
 9740SOL     OW31051   4.903  12.440   7.317
 9740SOL    HW131052   4.850  12.517   7.337
 9740SOL    HW231053   4.840  12.368   7.311
 9741SOL     OW31054  12.910   2.178   1.755
 9741SOL    HW131055  12.994   2.135   1.773
 9741SOL    HW231056  12.933   2.254   1.701
 9742SOL     OW31057   5.753   1.882   3.531
 9742SOL    HW131058   5.709   1.935   3.597
 9742SOL    HW231059   5.692   1.878   3.457
 9743SOL     OW31060   3.162   8.864  13.427
 9743SOL    HW131061   3.134   8.941  13.478
 9743SOL    HW231062   3.090   8.849  13.366
 9744SOL     OW31063   7.198  10.748  10.972
 9744SOL    HW131064   7.217  10.701  11.053
 9744SOL    HW231065   7.102  10.755  10.970
 9745SOL     OW31066   4.813  13.836  10.222
 9745SOL    HW131067   4.735  13.857  10.272
 9745SOL    HW231068   4.837  13.917  10.178
 9746SOL     OW31069  14.841   3.227   3.367
 9746SOL    HW131070  14.859   3.270   3.451
 9746SOL    HW231071  14.859   3.135   3.383
 9747SOL     OW31072   2.845   1.313   4.682
 9747SOL    HW131073   2.751   1.332   4.674
 9747SOL    HW231074   2.884   1.398   4.702
 9748SOL     OW31075   6.465   1.483   9.359
 9748SOL    HW131076   6.469   1.542   9.284
 9748SOL    HW231077   6.490   1.537   9.434
 9749SOL     OW31078  13.655   5.006   6.511
 9749SOL    HW131079  13.719   5.076   6.501
 9749SOL    HW231080  13.673   4.968   6.597
 9750SOL     OW31081   7.545   4.216   6.542
 9750SOL    HW131082   7.480   4.258   6.598
 9750SOL    HW231083   7.629   4.246   6.577
 9751SOL     OW31084   6.637  13.823   0.444
 9751SOL    HW131085   6.707  13.760   0.429
 9751SOL    HW231086   6.626  13.868   0.360
 9752SOL     OW31087  14.364  11.303   8.739
 9752SOL    HW131088  14.326  11.251   8.809
 9752SOL    HW231089  14.441  11.343   8.779
 9753SOL     OW31090  11.050   1.444   5.868
 9753SOL    HW131091  11.130   1.495   5.855
 9753SOL    HW231092  11.080   1.353   5.865
 9754SOL     OW31093  11.043   1.408   3.481
 9754SOL    HW131094  10.996   1.371   3.556
 9754SOL    HW231095  11.059   1.499   3.506
 9755SOL     OW31096   3.263   5.284   0.642
 9755SOL    HW131097   3.226   5.250   0.560
 9755SOL    HW231098   3.212   5.241   0.711
 9756SOL     OW31099   6.305  13.918  14.148
 9756SOL    HW131100   6.382  13.961  14.111
 9756SOL    HW231101   6.233  13.944  14.090
 9757SOL     OW31102   2.296   1.722  12.948
 9757SOL    HW131103   2.288   1.798  13.005
 9757SOL    HW231104   2.208   1.684  12.945
 9758SOL     OW31105   3.251   7.001   0.227
 9758SOL    HW131106   3.218   6.920   0.188
 9758SOL    HW231107   3.284   7.051   0.152
 9759SOL     OW31108   5.771   9.712  10.543
 9759SOL    HW131109   5.693   9.763  10.519
 9759SOL    HW231110   5.771   9.638  10.483
 9760SOL     OW31111   6.999   5.201   3.560
 9760SOL    HW131112   7.092   5.180   3.553
 9760SOL    HW231113   6.990   5.282   3.511
 9761SOL     OW31114   3.815  12.779   6.828
 9761SOL    HW131115   3.737  12.835   6.818
 9761SOL    HW231116   3.867  12.797   6.750
 9762SOL     OW31117   8.116   2.374  11.175
 9762SOL    HW131118   8.117   2.428  11.096
 9762SOL    HW231119   8.182   2.307  11.159
 9763SOL     OW31120  13.332   9.321   8.322
 9763SOL    HW131121  13.404   9.293   8.266
 9763SOL    HW231122  13.254   9.286   8.281
 9764SOL     OW31123   1.127   4.293  14.125
 9764SOL    HW131124   1.132   4.273  14.218
 9764SOL    HW231125   1.073   4.222  14.088
 9765SOL     OW31126   3.194   6.864  11.275
 9765SOL    HW131127   3.268   6.924  11.259
 9765SOL    HW231128   3.117   6.912  11.244
 9766SOL     OW31129  13.340   1.227  10.198
 9766SOL    HW131130  13.285   1.267  10.130
 9766SOL    HW231131  13.425   1.270  10.187
 9767SOL     OW31132  11.237  11.243  10.273
 9767SOL    HW131133  11.251  11.282  10.187
 9767SOL    HW231134  11.322  11.207  10.297
 9768SOL     OW31135   4.361  13.059   2.875
 9768SOL    HW131136   4.340  13.151   2.893
 9768SOL    HW231137   4.353  13.050   2.780
 9769SOL     OW31138  12.278   4.907  14.862
 9769SOL    HW131139  12.188   4.875  14.861
 9769SOL    HW231140  12.306   4.897   0.077
 9770SOL     OW31141   1.260   2.989  13.150
 9770SOL    HW131142   1.343   2.942  13.154
 9770SOL    HW231143   1.203   2.932  13.098
 9771SOL     OW31144  10.893  10.298   7.576
 9771SOL    HW131145  10.819  10.279   7.634
 9771SOL    HW231146  10.968  10.308   7.634
 9772SOL     OW31147   5.688  12.321  10.451
 9772SOL    HW131148   5.710  12.231  10.474
 9772SOL    HW231149   5.650  12.358  10.531
 9773SOL     OW31150  12.216   2.885   8.750
 9773SOL    HW131151  12.273   2.931   8.811
 9773SOL    HW231152  12.236   2.923   8.665
 9774SOL     OW31153   8.670   6.501   6.081
 9774SOL    HW131154   8.577   6.488   6.062
 9774SOL    HW231155   8.692   6.582   6.035
 9775SOL     OW31156   2.977   4.694   8.922
 9775SOL    HW131157   2.886   4.668   8.908
 9775SOL    HW231158   3.019   4.681   8.837
 9776SOL     OW31159   1.008  10.649   6.418
 9776SOL    HW131160   1.096  10.640   6.456
 9776SOL    HW231161   0.952  10.596   6.474
 9777SOL     OW31162   3.185   1.426   7.417
 9777SOL    HW131163   3.263   1.454   7.464
 9777SOL    HW231164   3.217   1.356   7.359
 9778SOL     OW31165   2.972   1.467  10.678
 9778SOL    HW131166   3.043   1.513  10.722
 9778SOL    HW231167   2.930   1.534  10.623
 9779SOL     OW31168   9.222   7.309   2.245
 9779SOL    HW131169   9.223   7.404   2.256
 9779SOL    HW231170   9.314   7.286   2.229
 9780SOL     OW31171  11.617  14.336   6.076
 9780SOL    HW131172  11.551  14.338   6.145
 9780SOL    HW231173  11.683  14.274   6.107
 9781SOL     OW31174   4.936   2.522   3.651
 9781SOL    HW131175   4.952   2.610   3.684
 9781SOL    HW231176   4.879   2.535   3.575
 9782SOL     OW31177   3.975  11.652   3.614
 9782SOL    HW131178   4.002  11.659   3.706
 9782SOL    HW231179   3.942  11.740   3.593
 9783SOL     OW31180  12.866   7.673   2.294
 9783SOL    HW131181  12.934   7.606   2.302
 9783SOL    HW231182  12.904   7.740   2.238
 9784SOL     OW31183   1.728   1.442  14.314
 9784SOL    HW131184   1.672   1.409  14.384
 9784SOL    HW231185   1.791   1.371  14.298
 9785SOL     OW31186   5.865   9.774   3.295
 9785SOL    HW131187   5.945   9.777   3.347
 9785SOL    HW231188   5.854   9.681   3.273
 9786SOL     OW31189   6.734  13.655   9.625
 9786SOL    HW131190   6.696  13.717   9.563
 9786SOL    HW231191   6.693  13.572   9.604
 9787SOL     OW31192  12.659   5.486   4.269
 9787SOL    HW131193  12.672   5.537   4.349
 9787SOL    HW231194  12.590   5.424   4.292
 9788SOL     OW31195  13.363  13.487  14.415
 9788SOL    HW131196  13.377  13.397  14.388
 9788SOL    HW231197  13.276  13.509  14.381
 9789SOL     OW31198   1.812  11.879  12.932
 9789SOL    HW131199   1.723  11.882  12.898
 9789SOL    HW231200   1.867  11.892  12.854
 9790SOL     OW31201  12.341   2.530   8.790
 9790SOL    HW131202  12.385   2.594   8.734
 9790SOL    HW231203  12.374   2.547   8.878
 9791SOL     OW31204  14.594   3.314   4.062
 9791SOL    HW131205  14.502   3.322   4.037
 9791SOL    HW231206  14.597   3.340   4.154
 9792SOL     OW31207  11.889  12.902  13.753
 9792SOL    HW131208  11.818  12.859  13.800
 9792SOL    HW231209  11.889  12.862  13.666
 9793SOL     OW31210   3.440   8.042   2.332
 9793SOL    HW131211   3.441   8.004   2.244
 9793SOL    HW231212   3.350   8.031   2.362
 9794SOL     OW31213  13.048  12.522   5.660
 9794SOL    HW131214  12.974  12.466   5.638
 9794SOL    HW231215  13.087  12.481   5.737
 9795SOL     OW31216   8.679   6.136   3.002
 9795SOL    HW131217   8.646   6.149   2.913
 9795SOL    HW231218   8.635   6.056   3.032
 9796SOL     OW31219   6.933   0.605   0.147
 9796SOL    HW131220   7.005   0.666   0.134
 9796SOL    HW231221   6.859   0.659   0.172
 9797SOL     OW31222  14.540   8.513   5.298
 9797SOL    HW131223  14.514   8.595   5.256
 9797SOL    HW231224  14.635   8.510   5.287
 9798SOL     OW31225   4.218   0.969  11.115
 9798SOL    HW131226   4.305   0.929  11.115
 9798SOL    HW231227   4.234   1.063  11.118
 9799SOL     OW31228  11.738   0.903   0.339
 9799SOL    HW131229  11.650   0.939   0.349
 9799SOL    HW231230  11.770   0.942   0.258
 9800SOL     OW31231   8.838   7.430  10.736
 9800SOL    HW131232   8.761   7.411  10.789
 9800SOL    HW231233   8.907   7.376  10.774
 9801SOL     OW31234   2.774   6.602   9.960
 9801SOL    HW131235   2.691   6.588  10.005
 9801SOL    HW231236   2.830   6.645  10.024
 9802SOL     OW31237   3.255   5.619   9.424
 9802SOL    HW131238   3.348   5.612   9.404
 9802SOL    HW231239   3.235   5.712   9.411
 9803SOL     OW31240   2.114   5.567   6.640
 9803SOL    HW131241   2.121   5.560   6.544
 9803SOL    HW231242   2.051   5.499   6.664
 9804SOL     OW31243   5.096  11.594   0.816
 9804SOL    HW131244   5.145  11.574   0.736
 9804SOL    HW231245   5.004  11.585   0.791
 9805SOL     OW31246  13.012   3.322   4.536
 9805SOL    HW131247  13.011   3.392   4.601
 9805SOL    HW231248  13.103   3.294   4.533
 9806SOL     OW31249  14.363   8.205   2.743
 9806SOL    HW131250  14.423   8.259   2.795
 9806SOL    HW231251  14.276   8.230   2.773
 9807SOL     OW31252   1.969   2.640  14.196
 9807SOL    HW131253   1.885   2.623  14.152
 9807SOL    HW231254   2.020   2.689  14.132
 9808SOL     OW31255   6.929  13.976   0.704
 9808SOL    HW131256   7.004  13.969   0.645
 9808SOL    HW231257   6.968  13.992   0.790
 9809SOL     OW31258   0.134   7.175   7.862
 9809SOL    HW131259   0.098   7.106   7.918
 9809SOL    HW231260   0.086   7.166   7.780
 9810SOL     OW31261  12.359   0.079  13.826
 9810SOL    HW131262  12.444   0.091  13.867
 9810SOL    HW231263  12.327   0.169  13.812
 9811SOL     OW31264   3.420  12.618  13.385
 9811SOL    HW131265   3.397  12.525  13.396
 9811SOL    HW231266   3.437  12.628  13.291
 9812SOL     OW31267  13.651   3.276   3.551
 9812SOL    HW131268  13.626   3.197   3.504
 9812SOL    HW231269  13.648   3.345   3.485
 9813SOL     OW31270  10.908   1.251   3.649
 9813SOL    HW131271  10.923   1.174   3.704
 9813SOL    HW231272  10.922   1.219   3.559
 9814SOL     OW31273  10.464   0.001   2.102
 9814SOL    HW131274  10.517   0.080   2.091
 9814SOL    HW231275  10.505  14.812   2.045
 9815SOL     OW31276   4.220   2.923  13.750
 9815SOL    HW131277   4.284   2.897  13.683
 9815SOL    HW231278   4.137   2.928  13.703
 9816SOL     OW31279   2.383   0.026  11.811
 9816SOL    HW131280   2.450   0.048  11.745
 9816SOL    HW231281   2.300   0.048  11.768
 9817SOL     OW31282  11.375   6.055   4.667
 9817SOL    HW131283  11.309   6.032   4.601
 9817SOL    HW231284  11.369   6.150   4.675
 9818SOL     OW31285  12.296   2.240   2.331
 9818SOL    HW131286  12.340   2.245   2.246
 9818SOL    HW231287  12.342   2.303   2.386
 9819SOL     OW31288  13.597  12.465   1.841
 9819SOL    HW131289  13.520  12.456   1.897
 9819SOL    HW231290  13.566  12.442   1.753
 9820SOL     OW31291   2.843  10.038  13.707
 9820SOL    HW131292   2.786  10.081  13.772
 9820SOL    HW231293   2.915  10.100  13.694
 9821SOL     OW31294   3.871  13.695   2.580
 9821SOL    HW131295   3.940  13.659   2.636
 9821SOL    HW231296   3.807  13.624   2.571
 9822SOL     OW31297   0.327   1.966  12.348
 9822SOL    HW131298   0.421   1.954  12.340
 9822SOL    HW231299   0.314   2.060  12.341
 9823SOL     OW31300  11.022  11.146   3.292
 9823SOL    HW131301  10.956  11.078   3.302
 9823SOL    HW231302  11.071  11.144   3.374
 9824SOL     OW31303  13.505  13.165   4.864
 9824SOL    HW131304  13.523  13.251   4.826
 9824SOL    HW231305  13.446  13.123   4.801
 9825SOL     OW31306  11.954  12.690   4.689
 9825SOL    HW131307  11.883  12.646   4.642
 9825SOL    HW231308  12.030  12.635   4.674
 9826SOL     OW31309   7.673   9.542   6.566
 9826SOL    HW131310   7.624   9.460   6.564
 9826SOL    HW231311   7.625   9.596   6.629
 9827SOL     OW31312  11.880   6.557  13.364
 9827SOL    HW131313  11.799   6.605  13.382
 9827SOL    HW231314  11.920   6.605  13.291
 9828SOL     OW31315   3.375  10.226   7.529
 9828SOL    HW131316   3.330  10.163   7.472
 9828SOL    HW231317   3.458  10.243   7.485
 9829SOL     OW31318  10.397  13.378   2.908
 9829SOL    HW131319  10.399  13.287   2.876
 9829SOL    HW231320  10.473  13.385   2.966
 9830SOL     OW31321  11.053   4.090   9.712
 9830SOL    HW131322  11.127   4.045   9.753
 9830SOL    HW231323  11.092   4.169   9.674
 9831SOL     OW31324   9.139  10.353  13.971
 9831SOL    HW131325   9.142  10.371  13.877
 9831SOL    HW231326   9.178  10.431  14.011
 9832SOL     OW31327   7.786   1.366  11.720
 9832SOL    HW131328   7.719   1.337  11.658
 9832SOL    HW231329   7.830   1.438  11.675
 9833SOL     OW31330  11.057   2.344   7.495
 9833SOL    HW131331  11.120   2.281   7.528
 9833SOL    HW231332  11.026   2.308   7.412
 9834SOL     OW31333   0.354   8.897   6.742
 9834SOL    HW131334   0.278   8.841   6.728
 9834SOL    HW231335   0.428   8.844   6.711
 9835SOL     OW31336   9.686  14.800   6.432
 9835SOL    HW131337   9.710  14.856   6.357
 9835SOL    HW231338   9.680  14.712   6.394
 9836SOL     OW31339   1.484  10.921  10.759
 9836SOL    HW131340   1.437  10.838  10.757
 9836SOL    HW231341   1.436  10.977  10.698
 9837SOL     OW31342  10.897   6.138   8.536
 9837SOL    HW131343  10.822   6.082   8.558
 9837SOL    HW231344  10.940   6.093   8.464
 9838SOL     OW31345   4.882  13.471   5.633
 9838SOL    HW131346   4.928  13.482   5.716
 9838SOL    HW231347   4.810  13.535   5.638
 9839SOL     OW31348   3.975   9.358   4.601
 9839SOL    HW131349   3.945   9.413   4.673
 9839SOL    HW231350   3.910   9.288   4.595
 9840SOL     OW31351   8.796   8.094   9.294
 9840SOL    HW131352   8.851   8.135   9.360
 9840SOL    HW231353   8.792   8.002   9.320
 9841SOL     OW31354  14.137   1.057   8.387
 9841SOL    HW131355  14.148   0.964   8.368
 9841SOL    HW231356  14.114   1.059   8.480
 9842SOL     OW31357  13.957   2.368  13.173
 9842SOL    HW131358  13.919   2.369  13.086
 9842SOL    HW231359  14.015   2.292  13.174
 9843SOL     OW31360   4.848   3.842   1.742
 9843SOL    HW131361   4.849   3.746   1.749
 9843SOL    HW231362   4.932   3.870   1.777
 9844SOL     OW31363  12.684   9.274   4.017
 9844SOL    HW131364  12.624   9.345   4.041
 9844SOL    HW231365  12.647   9.239   3.936
 9845SOL     OW31366   5.766   8.092  12.140
 9845SOL    HW131367   5.781   8.169  12.195
 9845SOL    HW231368   5.827   8.026  12.173
 9846SOL     OW31369   8.067   8.931  10.346
 9846SOL    HW131370   8.073   8.953  10.439
 9846SOL    HW231371   8.045   8.838  10.344
 9847SOL     OW31372   2.005  11.710  13.897
 9847SOL    HW131373   1.962  11.795  13.909
 9847SOL    HW231374   1.977  11.682  13.810
 9848SOL     OW31375   1.939  11.655  12.414
 9848SOL    HW131376   1.862  11.639  12.360
 9848SOL    HW231377   1.933  11.591  12.485
 9849SOL     OW31378   1.513   8.893   9.778
 9849SOL    HW131379   1.538   8.813   9.824
 9849SOL    HW231380   1.442   8.866   9.720
 9850SOL     OW31381  13.205  13.214  13.307
 9850SOL    HW131382  13.148  13.269  13.361
 9850SOL    HW231383  13.255  13.162  13.370
 9851SOL     OW31384   3.392  14.360   8.326
 9851SOL    HW131385   3.482  14.329   8.317
 9851SOL    HW231386   3.351  14.296   8.385
 9852SOL     OW31387   4.279   3.084  14.564
 9852SOL    HW131388   4.230   3.010  14.528
 9852SOL    HW231389   4.324   3.048  14.640
 9853SOL     OW31390  12.186  14.845   1.756
 9853SOL    HW131391  12.261  14.788   1.769
 9853SOL    HW231392  12.113  14.799   1.799
 9854SOL     OW31393   1.926  13.542   9.294
 9854SOL    HW131394   1.932  13.562   9.201
 9854SOL    HW231395   2.017  13.541   9.324
 9855SOL     OW31396   0.233  10.320   0.877
 9855SOL    HW131397   0.206  10.233   0.848
 9855SOL    HW231398   0.240  10.371   0.796
 9856SOL     OW31399  11.159  12.760   3.479
 9856SOL    HW131400  11.170  12.782   3.386
 9856SOL    HW231401  11.079  12.708   3.483
 9857SOL     OW31402   3.108   2.867   2.669
 9857SOL    HW131403   3.087   2.804   2.737
 9857SOL    HW231404   3.032   2.924   2.664
 9858SOL     OW31405   3.881   0.375   5.355
 9858SOL    HW131406   3.929   0.341   5.431
 9858SOL    HW231407   3.908   0.318   5.283
 9859SOL     OW31408  11.827   1.200   5.035
 9859SOL    HW131409  11.908   1.219   5.081
 9859SOL    HW231410  11.766   1.267   5.065
 9860SOL     OW31411   2.497  12.250   2.532
 9860SOL    HW131412   2.547  12.330   2.515
 9860SOL    HW231413   2.407  12.272   2.509
 9861SOL     OW31414   5.631   0.409   8.714
 9861SOL    HW131415   5.570   0.482   8.704
 9861SOL    HW231416   5.680   0.406   8.631
 9862SOL     OW31417   9.056   0.266   6.023
 9862SOL    HW131418   9.038   0.347   6.070
 9862SOL    HW231419   9.042   0.287   5.931
 9863SOL     OW31420   8.588  13.898   8.957
 9863SOL    HW131421   8.648  13.833   8.921
 9863SOL    HW231422   8.531  13.848   9.016
 9864SOL     OW31423   6.840   1.862   7.788
 9864SOL    HW131424   6.907   1.819   7.734
 9864SOL    HW231425   6.880   1.945   7.814
 9865SOL     OW31426   0.565   3.429   2.123
 9865SOL    HW131427   0.584   3.336   2.136
 9865SOL    HW231428   0.629   3.458   2.058
 9866SOL     OW31429   0.962   2.052   4.696
 9866SOL    HW131430   0.875   2.090   4.686
 9866SOL    HW231431   0.952   1.961   4.668
 9867SOL     OW31432  11.311   1.370  13.241
 9867SOL    HW131433  11.303   1.276  13.254
 9867SOL    HW231434  11.321   1.406  13.329
 9868SOL     OW31435   8.813  12.164  13.763
 9868SOL    HW131436   8.783  12.116  13.686
 9868SOL    HW231437   8.906  12.145  13.770
 9869SOL     OW31438   8.179   8.878  14.821
 9869SOL    HW131439   8.188   8.935  14.745
 9869SOL    HW231440   8.267   8.845  14.836
 9870SOL     OW31441   0.369   0.722   1.472
 9870SOL    HW131442   0.363   0.695   1.380
 9870SOL    HW231443   0.295   0.780   1.485
 9871SOL     OW31444  10.412   8.578  11.670
 9871SOL    HW131445  10.493   8.559  11.623
 9871SOL    HW231446  10.355   8.504  11.650
 9872SOL     OW31447  10.630   0.251  12.647
 9872SOL    HW131448  10.550   0.296  12.673
 9872SOL    HW231449  10.615   0.227  12.555
 9873SOL     OW31450   2.710   7.093   4.352
 9873SOL    HW131451   2.709   7.104   4.447
 9873SOL    HW231452   2.750   7.007   4.338
 9874SOL     OW31453  12.799   9.696  10.390
 9874SOL    HW131454  12.778   9.604  10.381
 9874SOL    HW231455  12.809   9.709  10.485
 9875SOL     OW31456  14.612   5.371   5.240
 9875SOL    HW131457  14.648   5.283   5.227
 9875SOL    HW231458  14.671   5.412   5.303
 9876SOL     OW31459   8.202   1.832   0.543
 9876SOL    HW131460   8.133   1.886   0.505
 9876SOL    HW231461   8.157   1.771   0.601
 9877SOL     OW31462   3.329   8.285  13.406
 9877SOL    HW131463   3.309   8.211  13.348
 9877SOL    HW231464   3.288   8.360  13.364
 9878SOL     OW31465   4.388  14.005   1.350
 9878SOL    HW131466   4.428  14.027   1.266
 9878SOL    HW231467   4.335  14.081   1.371
 9879SOL     OW31468   2.237  14.195  13.945
 9879SOL    HW131469   2.226  14.203  13.850
 9879SOL    HW231470   2.167  14.249  13.982
 9880SOL     OW31471   7.553   8.654   8.628
 9880SOL    HW131472   7.594   8.600   8.560
 9880SOL    HW231473   7.460   8.635   8.621
 9881SOL     OW31474   5.684   3.606   2.465
 9881SOL    HW131475   5.728   3.688   2.486
 9881SOL    HW231476   5.753   3.539   2.476
 9882SOL     OW31477  10.624   1.753  10.945
 9882SOL    HW131478  10.572   1.710  11.012
 9882SOL    HW231479  10.655   1.833  10.986
 9883SOL     OW31480   5.927   0.064  14.692
 9883SOL    HW131481   5.839   0.036  14.716
 9883SOL    HW231482   5.924   0.071  14.597
 9884SOL     OW31483   3.020  10.310   1.911
 9884SOL    HW131484   2.926  10.313   1.896
 9884SOL    HW231485   3.041  10.217   1.917
 9885SOL     OW31486  11.806   9.204  14.732
 9885SOL    HW131487  11.721   9.235  14.701
 9885SOL    HW231488  11.864   9.215  14.656
 9886SOL     OW31489  14.215  10.556  11.339
 9886SOL    HW131490  14.188  10.647  11.344
 9886SOL    HW231491  14.153  10.515  11.278
 9887SOL     OW31492  14.090  10.549  10.851
 9887SOL    HW131493  14.119  10.538  10.942
 9887SOL    HW231494  13.998  10.575  10.859
 9888SOL     OW31495   9.014   8.614   8.870
 9888SOL    HW131496   9.004   8.611   8.965
 9888SOL    HW231497   8.926   8.632   8.836
 9889SOL     OW31498   0.755  13.645   5.489
 9889SOL    HW131499   0.731  13.557   5.518
 9889SOL    HW231500   0.821  13.673   5.552
 9890SOL     OW31501  11.522  12.488   8.607
 9890SOL    HW131502  11.570  12.432   8.546
 9890SOL    HW231503  11.505  12.432   8.682
 9891SOL     OW31504  11.363  11.244   6.569
 9891SOL    HW131505  11.369  11.150   6.588
 9891SOL    HW231506  11.294  11.275   6.627
 9892SOL     OW31507   7.033   8.925   2.384
 9892SOL    HW131508   6.995   8.866   2.318
 9892SOL    HW231509   6.963   8.987   2.404
 9893SOL     OW31510   0.784  14.495   0.136
 9893SOL    HW131511   0.714  14.547   0.176
 9893SOL    HW231512   0.845  14.561   0.101
 9894SOL     OW31513   4.769   6.671  11.248
 9894SOL    HW131514   4.695   6.610  11.245
 9894SOL    HW231515   4.729   6.758  11.237
 9895SOL     OW31516   7.716   3.426   8.654
 9895SOL    HW131517   7.696   3.462   8.568
 9895SOL    HW231518   7.805   3.457   8.673
 9896SOL     OW31519   7.672  14.217  10.847
 9896SOL    HW131520   7.750  14.271  10.861
 9896SOL    HW231521   7.601  14.281  10.838
 9897SOL     OW31522  10.555   3.121  13.285
 9897SOL    HW131523  10.651   3.117  13.284
 9897SOL    HW231524  10.531   3.077  13.366
 9898SOL     OW31525   5.337   7.957   4.033
 9898SOL    HW131526   5.409   7.925   4.088
 9898SOL    HW231527   5.380   7.982   3.951
 9899SOL     OW31528   9.703   5.501   8.505
 9899SOL    HW131529   9.701   5.580   8.559
 9899SOL    HW231530   9.791   5.499   8.468
 9900SOL     OW31531   6.327   1.052  14.062
 9900SOL    HW131532   6.377   1.131  14.083
 9900SOL    HW231533   6.250   1.085  14.016
 9901SOL     OW31534   8.375   8.476   0.065
 9901SOL    HW131535   8.369   8.417  14.866
 9901SOL    HW231536   8.297   8.457   0.117
 9902SOL     OW31537   8.719   4.495   6.240
 9902SOL    HW131538   8.790   4.493   6.305
 9902SOL    HW231539   8.675   4.410   6.251
 9903SOL     OW31540   2.633   6.526   4.704
 9903SOL    HW131541   2.614   6.619   4.715
 9903SOL    HW231542   2.725   6.524   4.678
 9904SOL     OW31543  12.643   1.217   8.775
 9904SOL    HW131544  12.602   1.145   8.824
 9904SOL    HW231545  12.570   1.264   8.735
 9905SOL     OW31546  12.278   0.704   0.457
 9905SOL    HW131547  12.357   0.721   0.508
 9905SOL    HW231548  12.266   0.782   0.404
 9906SOL     OW31549  10.281  13.999  10.228
 9906SOL    HW131550  10.228  13.965  10.301
 9906SOL    HW231551  10.271  14.094  10.234
 9907SOL     OW31552  11.210  12.949  11.077
 9907SOL    HW131553  11.186  13.030  11.032
 9907SOL    HW231554  11.148  12.884  11.046
 9908SOL     OW31555   8.036   1.232   2.428
 9908SOL    HW131556   8.101   1.294   2.396
 9908SOL    HW231557   8.063   1.147   2.393
 9909SOL     OW31558  13.343   9.112   9.153
 9909SOL    HW131559  13.273   9.112   9.217
 9909SOL    HW231560  13.324   9.036   9.097
 9910SOL     OW31561  12.317  11.014   5.593
 9910SOL    HW131562  12.312  11.085   5.658
 9910SOL    HW231563  12.302  11.056   5.509
 9911SOL     OW31564   5.674   3.528   5.271
 9911SOL    HW131565   5.750   3.574   5.234
 9911SOL    HW231566   5.598   3.570   5.230
 9912SOL     OW31567   9.926  11.898  11.766
 9912SOL    HW131568   9.860  11.840  11.803
 9912SOL    HW231569   9.968  11.846  11.697
 9913SOL     OW31570  10.771   9.302   2.680
 9913SOL    HW131571  10.711   9.311   2.606
 9913SOL    HW231572  10.715   9.309   2.757
 9914SOL     OW31573   6.514   2.519   7.440
 9914SOL    HW131574   6.605   2.537   7.462
 9914SOL    HW231575   6.519   2.462   7.363
 9915SOL     OW31576   3.812  10.570  12.563
 9915SOL    HW131577   3.790  10.585  12.471
 9915SOL    HW231578   3.871  10.642  12.586
 9916SOL     OW31579  10.222   8.266   2.260
 9916SOL    HW131580  10.296   8.206   2.247
 9916SOL    HW231581  10.212   8.273   2.355
 9917SOL     OW31582   3.473  13.047  13.794
 9917SOL    HW131583   3.544  12.991  13.826
 9917SOL    HW231584   3.397  12.989  13.790
 9918SOL     OW31585  11.728  10.337   3.558
 9918SOL    HW131586  11.797  10.303   3.614
 9918SOL    HW231587  11.654  10.351   3.618
 9919SOL     OW31588  12.989   6.909   8.400
 9919SOL    HW131589  12.918   6.970   8.418
 9919SOL    HW231590  12.969   6.832   8.454
 9920SOL     OW31591   6.231  10.730   2.267
 9920SOL    HW131592   6.192  10.816   2.285
 9920SOL    HW231593   6.197  10.706   2.181
 9921SOL     OW31594   1.171   4.096  13.014
 9921SOL    HW131595   1.157   4.175  13.066
 9921SOL    HW231596   1.245   4.052  13.057
 9922SOL     OW31597   1.669  14.795   4.333
 9922SOL    HW131598   1.676  14.710   4.376
 9922SOL    HW231599   1.653  14.775   4.241
 9923SOL     OW31600   6.745   4.749   7.048
 9923SOL    HW131601   6.662   4.786   7.020
 9923SOL    HW231602   6.725   4.659   7.073
 9924SOL     OW31603   2.322  12.533   3.175
 9924SOL    HW131604   2.309  12.538   3.081
 9924SOL    HW231605   2.341  12.623   3.202
 9925SOL     OW31606   1.280  14.150   1.511
 9925SOL    HW131607   1.216  14.099   1.561
 9925SOL    HW231608   1.313  14.089   1.445
 9926SOL     OW31609   0.165   2.287  10.736
 9926SOL    HW131610   0.151   2.349  10.664
 9926SOL    HW231611   0.259   2.265  10.731
 9927SOL     OW31612   6.329   5.851   8.483
 9927SOL    HW131613   6.411   5.813   8.515
 9927SOL    HW231614   6.288   5.888   8.561
 9928SOL     OW31615  13.585   6.831  12.863
 9928SOL    HW131616  13.663   6.790  12.826
 9928SOL    HW231617  13.581   6.800  12.953
 9929SOL     OW31618  13.505   8.649   7.283
 9929SOL    HW131619  13.558   8.607   7.352
 9929SOL    HW231620  13.567   8.706   7.237
 9930SOL     OW31621   4.177   6.135   8.037
 9930SOL    HW131622   4.207   6.195   8.105
 9930SOL    HW231623   4.202   6.177   7.955
 9931SOL     OW31624  13.352   8.859  11.967
 9931SOL    HW131625  13.272   8.902  11.935
 9931SOL    HW231626  13.419   8.926  11.961
 9932SOL     OW31627  14.383   8.479  12.041
 9932SOL    HW131628  14.369   8.394  12.080
 9932SOL    HW231629  14.328   8.479  11.962
 9933SOL     OW31630  12.398  10.045   0.759
 9933SOL    HW131631  12.341   9.988   0.810
 9933SOL    HW231632  12.469  10.068   0.819
 9934SOL     OW31633   4.769  11.035   3.680
 9934SOL    HW131634   4.863  11.052   3.685
 9934SOL    HW231635   4.759  10.977   3.605
 9935SOL     OW31636  11.638   9.630   1.300
 9935SOL    HW131637  11.666   9.576   1.227
 9935SOL    HW231638  11.553   9.595   1.325
 9936SOL     OW31639   7.854   8.975   6.122
 9936SOL    HW131640   7.889   8.903   6.174
 9936SOL    HW231641   7.765   8.988   6.155
 9937SOL     OW31642  11.689  12.712  12.336
 9937SOL    HW131643  11.765  12.665  12.301
 9937SOL    HW231644  11.615  12.679  12.285
 9938SOL     OW31645  10.874   2.987  12.342
 9938SOL    HW131646  10.934   3.029  12.280
 9938SOL    HW231647  10.872   2.895  12.316
 9939SOL     OW31648   2.385  13.806   4.513
 9939SOL    HW131649   2.338  13.724   4.500
 9939SOL    HW231650   2.475  13.787   4.489
 9940SOL     OW31651  13.786   2.122  12.886
 9940SOL    HW131652  13.778   2.028  12.903
 9940SOL    HW231653  13.715   2.162  12.936
 9941SOL     OW31654  12.485  14.682   3.452
 9941SOL    HW131655  12.411  14.681   3.514
 9941SOL    HW231656  12.536  14.759   3.477
 9942SOL     OW31657   9.219   3.263   6.863
 9942SOL    HW131658   9.149   3.277   6.799
 9942SOL    HW231659   9.219   3.168   6.878
 9943SOL     OW31660  13.503  11.133  12.093
 9943SOL    HW131661  13.530  11.225  12.088
 9943SOL    HW231662  13.415  11.132  12.054
 9944SOL     OW31663   7.796   6.248   7.099
 9944SOL    HW131664   7.718   6.285   7.142
 9944SOL    HW231665   7.853   6.222   7.171
 9945SOL     OW31666  11.671   5.458  12.654
 9945SOL    HW131667  11.631   5.472  12.740
 9945SOL    HW231668  11.710   5.371  12.659
 9946SOL     OW31669   2.722   3.516   7.113
 9946SOL    HW131670   2.670   3.591   7.143
 9946SOL    HW231671   2.669   3.478   7.042
 9947SOL     OW31672  11.666   0.397   2.109
 9947SOL    HW131673  11.610   0.326   2.078
 9947SOL    HW231674  11.745   0.390   2.055
 9948SOL     OW31675  13.765  13.544  14.855
 9948SOL    HW131676  13.752  13.569   0.071
 9948SOL    HW231677  13.725  13.458  14.847
 9949SOL     OW31678  10.858   3.552   1.383
 9949SOL    HW131679  10.763   3.548   1.368
 9949SOL    HW231680  10.867   3.586   1.471
 9950SOL     OW31681   9.482   8.036   7.161
 9950SOL    HW131682   9.497   8.081   7.245
 9950SOL    HW231683   9.387   8.033   7.153
 9951SOL     OW31684  12.777   6.340  14.677
 9951SOL    HW131685  12.777   6.274  14.747
 9951SOL    HW231686  12.768   6.289  14.596
 9952SOL     OW31687   5.030  12.076   2.424
 9952SOL    HW131688   5.084  12.085   2.502
 9952SOL    HW231689   5.028  11.982   2.406
 9953SOL     OW31690   0.917   2.461  10.237
 9953SOL    HW131691   0.951   2.383  10.192
 9953SOL    HW231692   0.950   2.453  10.326
 9954SOL     OW31693   5.304   5.894   1.413
 9954SOL    HW131694   5.379   5.910   1.356
 9954SOL    HW231695   5.322   5.944   1.492
 9955SOL     OW31696   9.892  11.676   4.645
 9955SOL    HW131697   9.869  11.761   4.681
 9955SOL    HW231698   9.808  11.638   4.617
 9956SOL     OW31699   0.439   5.836  14.651
 9956SOL    HW131700   0.523   5.873  14.679
 9956SOL    HW231701   0.384   5.840  14.729
 9957SOL     OW31702   3.284   4.062   0.678
 9957SOL    HW131703   3.225   4.133   0.702
 9957SOL    HW231704   3.241   3.983   0.711
 9958SOL     OW31705   6.615   6.791  12.081
 9958SOL    HW131706   6.594   6.720  12.020
 9958SOL    HW231707   6.624   6.868  12.025
 9959SOL     OW31708   9.137   3.610  12.146
 9959SOL    HW131709   9.076   3.580  12.213
 9959SOL    HW231710   9.217   3.559  12.162
 9960SOL     OW31711  13.749   8.039   1.963
 9960SOL    HW131712  13.827   7.998   2.000
 9960SOL    HW231713  13.728   8.110   2.025
 9961SOL     OW31714  11.335   8.891  14.855
 9961SOL    HW131715  11.295   8.830  14.794
 9961SOL    HW231716  11.348   8.972  14.805
 9962SOL     OW31717   3.251   6.729   0.760
 9962SOL    HW131718   3.240   6.796   0.828
 9962SOL    HW231719   3.278   6.778   0.682
 9963SOL     OW31720   7.946   0.923  14.430
 9963SOL    HW131721   7.945   0.951  14.339
 9963SOL    HW231722   7.854   0.905  14.451
 9964SOL     OW31723  14.601   4.781   0.714
 9964SOL    HW131724  14.582   4.828   0.795
 9964SOL    HW231725  14.545   4.824   0.648
 9965SOL     OW31726   1.076  11.748   3.327
 9965SOL    HW131727   1.121  11.787   3.403
 9965SOL    HW231728   1.055  11.823   3.271
 9966SOL     OW31729   9.334   4.506   0.724
 9966SOL    HW131730   9.250   4.473   0.689
 9966SOL    HW231731   9.336   4.598   0.698
 9967SOL     OW31732   3.791   5.390   4.708
 9967SOL    HW131733   3.696   5.385   4.698
 9967SOL    HW231734   3.811   5.483   4.697
 9968SOL     OW31735   1.906  12.543   8.387
 9968SOL    HW131736   1.957  12.539   8.306
 9968SOL    HW231737   1.913  12.455   8.424
 9969SOL     OW31738   6.271  12.351   0.014
 9969SOL    HW131739   6.198  12.402   0.048
 9969SOL    HW231740   6.348  12.407   0.025
 9970SOL     OW31741  13.710  13.698   6.942
 9970SOL    HW131742  13.757  13.699   6.859
 9970SOL    HW231743  13.772  13.661   7.005
 9971SOL     OW31744   2.595  12.178   4.525
 9971SOL    HW131745   2.532  12.231   4.477
 9971SOL    HW231746   2.676  12.229   4.524
 9972SOL     OW31747   1.286   9.015   8.548
 9972SOL    HW131748   1.322   9.102   8.561
 9972SOL    HW231749   1.266   8.984   8.636
 9973SOL     OW31750   4.317   6.298   2.320
 9973SOL    HW131751   4.335   6.259   2.235
 9973SOL    HW231752   4.403   6.315   2.358
 9974SOL     OW31753   8.491  11.025   7.105
 9974SOL    HW131754   8.401  10.996   7.120
 9974SOL    HW231755   8.530  11.030   7.192
 9975SOL     OW31756   6.873  11.157   9.940
 9975SOL    HW131757   6.836  11.109  10.015
 9975SOL    HW231758   6.821  11.127   9.865
 9976SOL     OW31759  12.712   9.361   9.139
 9976SOL    HW131760  12.784   9.398   9.087
 9976SOL    HW231761  12.707   9.270   9.110
 9977SOL     OW31762  10.585   6.981  10.286
 9977SOL    HW131763  10.629   6.902  10.254
 9977SOL    HW231764  10.503   6.984  10.236
 9978SOL     OW31765  14.634   7.837  14.437
 9978SOL    HW131766  14.543   7.857  14.455
 9978SOL    HW231767  14.650   7.753  14.480
 9979SOL     OW31768   3.867   5.321   8.537
 9979SOL    HW131769   3.849   5.372   8.617
 9979SOL    HW231770   3.939   5.367   8.495
 9980SOL     OW31771   5.514   8.695   1.833
 9980SOL    HW131772   5.453   8.621   1.839
 9980SOL    HW231773   5.597   8.659   1.864
 9981SOL     OW31774   3.047  10.111   0.215
 9981SOL    HW131775   3.126  10.056   0.219
 9981SOL    HW231776   3.068  10.187   0.270
 9982SOL     OW31777   3.827   1.663   9.632
 9982SOL    HW131778   3.875   1.713   9.699
 9982SOL    HW231779   3.866   1.576   9.636
 9983SOL     OW31780  12.822   7.380   1.760
 9983SOL    HW131781  12.872   7.450   1.718
 9983SOL    HW231782  12.735   7.418   1.773
 9984SOL     OW31783   4.743   9.663  14.253
 9984SOL    HW131784   4.736   9.717  14.332
 9984SOL    HW231785   4.836   9.642  14.246
 9985SOL     OW31786   9.052  14.465   9.833
 9985SOL    HW131787   9.077  14.504   9.917
 9985SOL    HW231788   9.094  14.379   9.833
 9986SOL     OW31789  12.005   5.015   5.652
 9986SOL    HW131790  12.035   4.960   5.580
 9986SOL    HW231791  12.060   5.093   5.648
 9987SOL     OW31792  11.956   6.551   1.918
 9987SOL    HW131793  11.923   6.612   1.984
 9987SOL    HW231794  11.882   6.493   1.899
 9988SOL     OW31795   7.419   2.392   5.674
 9988SOL    HW131796   7.461   2.461   5.622
 9988SOL    HW231797   7.438   2.415   5.765
 9989SOL     OW31798  11.560   7.122  13.359
 9989SOL    HW131799  11.525   7.167  13.282
 9989SOL    HW231800  11.514   7.038  13.361
 9990SOL     OW31801   6.596   0.641   4.763
 9990SOL    HW131802   6.506   0.627   4.732
 9990SOL    HW231803   6.588   0.704   4.834
 9991SOL     OW31804   2.196  11.785   9.523
 9991SOL    HW131805   2.156  11.765   9.439
 9991SOL    HW231806   2.289  11.794   9.504
 9992SOL     OW31807   4.689  10.461  11.884
 9992SOL    HW131808   4.695  10.552  11.912
 9992SOL    HW231809   4.595  10.444  11.878
 9993SOL     OW31810   6.738   4.759   3.626
 9993SOL    HW131811   6.778   4.743   3.540
 9993SOL    HW231812   6.657   4.709   3.624
 9994SOL     OW31813   8.978   8.956   9.965
 9994SOL    HW131814   9.042   8.893   9.998
 9994SOL    HW231815   9.008   8.977   9.876
 9995SOL     OW31816  10.079   9.276   6.250
 9995SOL    HW131817  10.035   9.336   6.190
 9995SOL    HW231818  10.151   9.239   6.199
 9996SOL     OW31819   0.743  14.640   2.826
 9996SOL    HW131820   0.837  14.624   2.823
 9996SOL    HW231821   0.719  14.654   2.734
 9997SOL     OW31822  10.774   4.019   3.523
 9997SOL    HW131823  10.836   3.991   3.590
 9997SOL    HW231824  10.757   3.941   3.472
 9998SOL     OW31825   1.344   2.734   0.235
 9998SOL    HW131826   1.303   2.772   0.313
 9998SOL    HW231827   1.383   2.809   0.190
 9999SOL     OW31828  13.229   2.269  11.277
 9999SOL    HW131829  13.198   2.213  11.349
 9999SOL    HW231830  13.150   2.294  11.230
10000SOL     OW31831   5.751  11.876   1.208
10000SOL    HW131832   5.710  11.844   1.128
10000SOL    HW231833   5.733  11.808   1.273
10001SOL     OW31834   3.507   0.162   1.452
10001SOL    HW131835   3.515   0.095   1.384
10001SOL    HW231836   3.493   0.113   1.532
10002SOL     OW31837   5.558  11.984  13.360
10002SOL    HW131838   5.476  11.938  13.346
10002SOL    HW231839   5.558  12.055  13.295
10003SOL     OW31840   3.335   7.133   4.526
10003SOL    HW131841   3.397   7.084   4.580
10003SOL    HW231842   3.284   7.184   4.589
10004SOL     OW31843   8.241  10.725   2.000
10004SOL    HW131844   8.195  10.704   1.919
10004SOL    HW231845   8.315  10.779   1.972
10005SOL     OW31846   5.162  10.372   6.841
10005SOL    HW131847   5.082  10.320   6.835
10005SOL    HW231848   5.175  10.385   6.935
10006SOL     OW31849  12.840  14.422  11.655
10006SOL    HW131850  12.874  14.510  11.640
10006SOL    HW231851  12.776  14.433  11.725
10007SOL     OW31852  14.663  11.301   1.756
10007SOL    HW131853  14.583  11.249   1.748
10007SOL    HW231854  14.662  11.358   1.679
10008SOL     OW31855   7.521   6.440  10.514
10008SOL    HW131856   7.477   6.521  10.540
10008SOL    HW231857   7.456   6.395  10.459
10009SOL     OW31858   9.024   3.089   9.203
10009SOL    HW131859   9.107   3.081   9.156
10009SOL    HW231860   8.961   3.114   9.136
10010SOL     OW31861   2.447   7.747   9.873
10010SOL    HW131862   2.362   7.740   9.915
10010SOL    HW231863   2.435   7.814   9.805
10011SOL     OW31864  12.732   7.068  12.314
10011SOL    HW131865  12.731   7.084  12.408
10011SOL    HW231866  12.644   7.091  12.284
10012SOL     OW31867  11.924   0.953   4.370
10012SOL    HW131868  11.908   1.010   4.446
10012SOL    HW231869  11.971   1.008   4.308
10013SOL     OW31870  11.602   9.131   1.269
10013SOL    HW131871  11.559   9.131   1.184
10013SOL    HW231872  11.544   9.183   1.325
10014SOL     OW31873   7.768   7.666  12.769
10014SOL    HW131874   7.679   7.642  12.796
10014SOL    HW231875   7.781   7.620  12.686
10015SOL     OW31876   8.786   5.796   4.654
10015SOL    HW131877   8.875   5.810   4.621
10015SOL    HW231878   8.772   5.702   4.648
10016SOL     OW31879  12.604  11.418   1.947
10016SOL    HW131880  12.632  11.326   1.946
10016SOL    HW231881  12.511  11.415   1.925
10017SOL     OW31882   6.071   5.049  13.626
10017SOL    HW131883   6.096   4.964  13.662
10017SOL    HW231884   5.984   5.034  13.588
10018SOL     OW31885   2.363  14.374   0.068
10018SOL    HW131886   2.427  14.309   0.097
10018SOL    HW231887   2.349  14.355  14.852
10019SOL     OW31888  14.783  14.402  13.349
10019SOL    HW131889  14.748  14.479  13.304
10019SOL    HW231890  14.747  14.328  13.300
10020SOL     OW31891  13.624  10.356   0.927
10020SOL    HW131892  13.638  10.339   0.834
10020SOL    HW231893  13.699  10.408   0.954
10021SOL     OW31894   3.112  14.208  14.364
10021SOL    HW131895   3.076  14.187  14.278
10021SOL    HW231896   3.098  14.129  14.416
10022SOL     OW31897   2.359  13.420   0.012
10022SOL    HW131898   2.265  13.425  14.868
10022SOL    HW231899   2.397  13.498  14.847
10023SOL     OW31900   5.228  13.150   1.755
10023SOL    HW131901   5.276  13.086   1.703
10023SOL    HW231902   5.223  13.228   1.700
10024SOL     OW31903  12.343   0.827   3.144
10024SOL    HW131904  12.250   0.847   3.143
10024SOL    HW231905  12.369   0.827   3.052
10025SOL     OW31906   6.816   0.686   9.250
10025SOL    HW131907   6.806   0.670   9.156
10025SOL    HW231908   6.738   0.647   9.290
10026SOL     OW31909   9.395   4.949  12.082
10026SOL    HW131910   9.376   5.041  12.098
10026SOL    HW231911   9.427   4.946  11.992
10027SOL     OW31912   1.969   5.310   7.484
10027SOL    HW131913   2.039   5.295   7.420
10027SOL    HW231914   1.961   5.405   7.489
10028SOL     OW31915  14.771   8.477   7.388
10028SOL    HW131916  14.797   8.426   7.465
10028SOL    HW231917  14.676   8.467   7.383
10029SOL     OW31918  10.170   1.741   3.612
10029SOL    HW131919  10.198   1.817   3.663
10029SOL    HW231920  10.170   1.773   3.521
10030SOL     OW31921   4.754   1.627   4.523
10030SOL    HW131922   4.793   1.635   4.436
10030SOL    HW231923   4.763   1.714   4.561
10031SOL     OW31924  13.925  14.477   3.973
10031SOL    HW131925  13.831  14.464   3.984
10031SOL    HW231926  13.953  14.520   4.053
10032SOL     OW31927   6.140   5.666   3.305
10032SOL    HW131928   6.209   5.602   3.293
10032SOL    HW231929   6.185   5.749   3.316
10033SOL     OW31930   7.273  13.108   7.616
10033SOL    HW131931   7.259  13.144   7.529
10033SOL    HW231932   7.199  13.049   7.630
10034SOL     OW31933  12.789  14.355  11.306
10034SOL    HW131934  12.835  14.337  11.388
10034SOL    HW231935  12.701  14.320  11.319
10035SOL     OW31936  14.521   2.881   9.109
10035SOL    HW131937  14.573   2.895   9.030
10035SOL    HW231938  14.471   2.801   9.091
10036SOL     OW31939   5.039   7.438   3.272
10036SOL    HW131940   4.996   7.395   3.346
10036SOL    HW231941   5.057   7.368   3.210
10037SOL     OW31942  11.582  12.796   4.617
10037SOL    HW131943  11.539  12.721   4.657
10037SOL    HW231944  11.668  12.763   4.589
10038SOL     OW31945  12.258   9.871   0.901
10038SOL    HW131946  12.278   9.821   0.980
10038SOL    HW231947  12.241   9.805   0.834
10039SOL     OW31948   5.499   9.285   3.178
10039SOL    HW131949   5.472   9.195   3.200
10039SOL    HW231950   5.486   9.334   3.259
10040SOL     OW31951   2.087   1.776  10.722
10040SOL    HW131952   2.028   1.710  10.758
10040SOL    HW231953   2.058   1.786  10.631
10041SOL     OW31954   4.137  13.733   1.428
10041SOL    HW131955   4.120  13.786   1.350
10041SOL    HW231956   4.059  13.746   1.483
10042SOL     OW31957  13.983  11.286  11.912
10042SOL    HW131958  13.955  11.346  11.981
10042SOL    HW231959  13.902  11.245  11.881
10043SOL     OW31960   7.986  10.822   9.321
10043SOL    HW131961   7.987  10.738   9.368
10043SOL    HW231962   8.026  10.884   9.381
10044SOL     OW31963   5.570  13.956  10.857
10044SOL    HW131964   5.599  13.941  10.947
10044SOL    HW231965   5.538  14.046  10.857
10045SOL     OW31966   3.459   3.257   3.684
10045SOL    HW131967   3.501   3.236   3.767
10045SOL    HW231968   3.387   3.315   3.708
10046SOL     OW31969   8.205   1.378  14.134
10046SOL    HW131970   8.118   1.407  14.161
10046SOL    HW231971   8.222   1.425  14.052
10047SOL     OW31972   2.259  10.652  11.852
10047SOL    HW131973   2.338  10.635  11.903
10047SOL    HW231974   2.249  10.747  11.855
10048SOL     OW31975   0.827   2.573   1.513
10048SOL    HW131976   0.773   2.569   1.591
10048SOL    HW231977   0.890   2.502   1.524
10049SOL     OW31978  14.809   6.359   7.798
10049SOL    HW131979  14.756   6.305   7.739
10049SOL    HW231980   0.020   6.359   7.757
10050SOL     OW31981  11.098   4.240   8.356
10050SOL    HW131982  11.015   4.282   8.334
10050SOL    HW231983  11.155   4.259   8.281
10051SOL     OW31984   3.703   1.158   6.199
10051SOL    HW131985   3.673   1.088   6.142
10051SOL    HW231986   3.679   1.238   6.154
10052SOL     OW31987  13.599   5.548   8.252
10052SOL    HW131988  13.538   5.582   8.318
10052SOL    HW231989  13.557   5.568   8.168
10053SOL     OW31990   7.224  13.139   8.268
10053SOL    HW131991   7.246  13.163   8.358
10053SOL    HW231992   7.207  13.222   8.224
10054SOL     OW31993   2.429   9.722   9.399
10054SOL    HW131994   2.355   9.751   9.346
10054SOL    HW231995   2.400   9.639   9.437
10055SOL     OW31996   2.129   6.998   8.680
10055SOL    HW131997   2.103   7.064   8.616
10055SOL    HW231998   2.169   7.047   8.751
10056SOL     OW31999   9.133  13.397   8.743
10056SOL    HW132000   9.130  13.447   8.824
10056SOL    HW232001   9.078  13.446   8.682
10057SOL     OW32002  13.894   8.271   3.380
10057SOL    HW132003  13.982   8.302   3.360
10057SOL    HW232004  13.907   8.184   3.418
10058SOL     OW32005   5.107   1.312  12.212
10058SOL    HW132006   5.053   1.266  12.148
10058SOL    HW232007   5.064   1.295  12.296
10059SOL     OW32008   9.075   2.373   6.129
10059SOL    HW132009   9.141   2.408   6.070
10059SOL    HW232010   9.076   2.431   6.204
10060SOL     OW32011   3.559   2.082  11.600
10060SOL    HW132012   3.619   2.060  11.671
10060SOL    HW232013   3.472   2.063  11.635
10061SOL     OW32014  13.411   8.456   8.950
10061SOL    HW132015  13.408   8.512   9.027
10061SOL    HW232016  13.321   8.456   8.917
10062SOL     OW32017  11.037  10.924   1.446
10062SOL    HW132018  11.114  10.913   1.503
10062SOL    HW232019  10.986  10.845   1.460
10063SOL     OW32020  12.663   7.857   2.391
10063SOL    HW132021  12.753   7.829   2.378
10063SOL    HW232022  12.621   7.846   2.306
10064SOL     OW32023   1.511  11.481   8.180
10064SOL    HW132024   1.509  11.565   8.135
10064SOL    HW232025   1.589  11.437   8.146
10065SOL     OW32026   3.084  13.155   9.611
10065SOL    HW132027   3.173  13.126   9.632
10065SOL    HW232028   3.080  13.246   9.642
10066SOL     OW32029   6.382   9.620   3.733
10066SOL    HW132030   6.374   9.707   3.771
10066SOL    HW232031   6.476   9.607   3.720
10067SOL     OW32032  13.036   5.370   3.270
10067SOL    HW132033  13.113   5.315   3.282
10067SOL    HW232034  12.968   5.327   3.322
10068SOL     OW32035  13.084   7.103   5.358
10068SOL    HW132036  13.081   7.129   5.266
10068SOL    HW232037  13.095   7.008   5.357
10069SOL     OW32038  13.892  13.664   7.854
10069SOL    HW132039  13.858  13.590   7.804
10069SOL    HW232040  13.847  13.740   7.818
10070SOL     OW32041  14.019   5.355   8.817
10070SOL    HW132042  14.078   5.373   8.744
10070SOL    HW232043  14.002   5.261   8.811
10071SOL     OW32044   0.605   5.478   9.028
10071SOL    HW132045   0.541   5.494   9.097
10071SOL    HW232046   0.578   5.395   8.990
10072SOL     OW32047   6.312   7.984  13.256
10072SOL    HW132048   6.239   8.018  13.204
10072SOL    HW232049   6.348   7.913  13.202
10073SOL     OW32050   1.864   6.198  11.733
10073SOL    HW132051   1.879   6.152  11.650
10073SOL    HW232052   1.949   6.197  11.777
10074SOL     OW32053  10.571   1.360   1.901
10074SOL    HW132054  10.508   1.432   1.905
10074SOL    HW232055  10.656   1.400   1.921
10075SOL     OW32056  10.562  14.119  11.800
10075SOL    HW132057  10.478  14.095  11.840
10075SOL    HW232058  10.543  14.200  11.752
10076SOL     OW32059   3.718  11.518  13.097
10076SOL    HW132060   3.643  11.505  13.039
10076SOL    HW232061   3.725  11.613  13.106
10077SOL     OW32062  11.065   3.652  12.054
10077SOL    HW132063  11.018   3.608  11.984
10077SOL    HW232064  11.001   3.712  12.093
10078SOL     OW32065  12.747   6.256   0.229
10078SOL    HW132066  12.795   6.338   0.218
10078SOL    HW232067  12.720   6.232   0.140
10079SOL     OW32068   5.024   8.109   3.116
10079SOL    HW132069   5.041   8.114   3.210
10079SOL    HW232070   4.931   8.130   3.107
10080SOL     OW32071   2.086   1.100   1.734
10080SOL    HW132072   2.025   1.128   1.802
10080SOL    HW232073   2.087   1.172   1.672
10081SOL     OW32074   0.956   9.548   4.783
10081SOL    HW132075   0.985   9.527   4.872
10081SOL    HW232076   1.008   9.490   4.727
10082SOL     OW32077   0.023  14.521   4.398
10082SOL    HW132078   0.018  14.459   4.325
10082SOL    HW232079   0.005  14.468   4.476
10083SOL     OW32080   6.662  10.056   2.985
10083SOL    HW132081   6.586  10.003   3.011
10083SOL    HW232082   6.717   9.995   2.936
10084SOL     OW32083   8.583  11.260   7.686
10084SOL    HW132084   8.572  11.355   7.677
10084SOL    HW232085   8.655  11.250   7.748
10085SOL     OW32086   1.190   4.686   6.391
10085SOL    HW132087   1.107   4.731   6.403
10085SOL    HW232088   1.195   4.667   6.298
10086SOL     OW32089   1.810  10.217   0.966
10086SOL    HW132090   1.724  10.258   0.964
10086SOL    HW232091   1.793  10.124   0.956
10087SOL     OW32092   7.818   9.528   2.651
10087SOL    HW132093   7.824   9.559   2.560
10087SOL    HW232094   7.750   9.583   2.690
10088SOL     OW32095   4.276  13.756   6.032
10088SOL    HW132096   4.370  13.770   6.040
10088SOL    HW232097   4.261  13.668   6.068
10089SOL     OW32098   1.435  12.511   9.262
10089SOL    HW132099   1.501  12.460   9.308
10089SOL    HW232100   1.445  12.600   9.296
10090SOL     OW32101  12.727   3.888   5.428
10090SOL    HW132102  12.698   3.853   5.512
10090SOL    HW232103  12.723   3.814   5.367
10091SOL     OW32104   2.576  12.757   1.251
10091SOL    HW132105   2.579  12.842   1.206
10091SOL    HW232106   2.523  12.775   1.329
10092SOL     OW32107  10.369   5.715  10.708
10092SOL    HW132108  10.274   5.717  10.721
10092SOL    HW232109  10.388   5.623  10.688
10093SOL     OW32110   9.966   0.156   1.555
10093SOL    HW132111   9.952   0.197   1.640
10093SOL    HW232112   9.975   0.063   1.575
10094SOL     OW32113   1.488  14.321   6.801
10094SOL    HW132114   1.572  14.309   6.845
10094SOL    HW232115   1.447  14.395   6.846
10095SOL     OW32116   8.721   2.765  13.760
10095SOL    HW132117   8.764   2.843  13.796
10095SOL    HW232118   8.652   2.745  13.823
10096SOL     OW32119  10.052   6.204   5.539
10096SOL    HW132120  10.139   6.238   5.517
10096SOL    HW232121  10.021   6.260   5.611
10097SOL     OW32122  11.633   2.508   8.489
10097SOL    HW132123  11.729   2.504   8.483
10097SOL    HW232124  11.603   2.453   8.416
10098SOL     OW32125   5.898   6.313   9.027
10098SOL    HW132126   5.991   6.323   9.046
10098SOL    HW232127   5.866   6.253   9.095
10099SOL     OW32128   2.260   5.379   2.059
10099SOL    HW132129   2.302   5.407   2.141
10099SOL    HW232130   2.185   5.438   2.049
10100SOL     OW32131  12.963   7.071  12.122
10100SOL    HW132132  12.877   7.074  12.164
10100SOL    HW232133  13.018   7.127  12.177
10101SOL     OW32134   4.278   4.771   0.312
10101SOL    HW132135   4.308   4.828   0.241
10101SOL    HW232136   4.249   4.831   0.380
10102SOL     OW32137  13.869   9.072   6.606
10102SOL    HW132138  13.832   9.024   6.680
10102SOL    HW232139  13.961   9.084   6.628
10103SOL     OW32140   3.677  10.425  13.853
10103SOL    HW132141   3.754  10.400  13.905
10103SOL    HW232142   3.714  10.457  13.770
10104SOL     OW32143  10.977   0.877   1.218
10104SOL    HW132144  10.936   0.851   1.135
10104SOL    HW232145  11.032   0.802   1.242
10105SOL     OW32146   9.409  10.443   4.541
10105SOL    HW132147   9.342  10.491   4.590
10105SOL    HW232148   9.469  10.510   4.509
10106SOL     OW32149   6.447   4.002   3.271
10106SOL    HW132150   6.497   4.067   3.322
10106SOL    HW232151   6.482   4.010   3.182
10107SOL     OW32152  14.250   0.343   2.211
10107SOL    HW132153  14.258   0.302   2.297
10107SOL    HW232154  14.158   0.333   2.188
10108SOL     OW32155   9.290  12.245   8.313
10108SOL    HW132156   9.281  12.208   8.224
10108SOL    HW232157   9.334  12.329   8.300
10109SOL     OW32158  11.229   8.169  14.606
10109SOL    HW132159  11.275   8.155  14.523
10109SOL    HW232160  11.299   8.191  14.668
10110SOL     OW32161   8.483   5.685   4.796
10110SOL    HW132162   8.467   5.694   4.702
10110SOL    HW232163   8.426   5.614   4.825
10111SOL     OW32164   8.451   7.513  12.444
10111SOL    HW132165   8.387   7.508  12.515
10111SOL    HW232166   8.533   7.485  12.484
10112SOL     OW32167   3.321  13.064   6.899
10112SOL    HW132168   3.337  13.034   6.810
10112SOL    HW232169   3.357  13.153   6.902
10113SOL     OW32170   3.293   0.438   6.571
10113SOL    HW132171   3.365   0.414   6.629
10113SOL    HW232172   3.244   0.357   6.558
10114SOL     OW32173   5.233  12.472   5.320
10114SOL    HW132174   5.290  12.547   5.342
10114SOL    HW232175   5.242  12.413   5.394
10115SOL     OW32176   2.187   7.878  10.301
10115SOL    HW132177   2.265   7.932  10.309
10115SOL    HW232178   2.197   7.832  10.218
10116SOL     OW32179   2.632   0.123  11.642
10116SOL    HW132180   2.611   0.150  11.553
10116SOL    HW232181   2.698   0.054  11.632
10117SOL     OW32182   6.168   5.645   2.529
10117SOL    HW132183   6.219   5.637   2.609
10117SOL    HW232184   6.092   5.589   2.544
10118SOL     OW32185  12.229   3.298   3.314
10118SOL    HW132186  12.231   3.393   3.330
10118SOL    HW232187  12.163   3.265   3.375
10119SOL     OW32188   8.662   9.702   1.966
10119SOL    HW132189   8.669   9.689   1.871
10119SOL    HW232190   8.662   9.614   2.003
10120SOL     OW32191   7.857  13.073  11.246
10120SOL    HW132192   7.800  13.047  11.174
10120SOL    HW232193   7.944  13.081  11.206
10121SOL     OW32194   0.506  10.074  11.165
10121SOL    HW132195   0.413  10.092  11.157
10121SOL    HW232196   0.515   9.981  11.144
10122SOL     OW32197   3.725   3.314   0.955
10122SOL    HW132198   3.642   3.272   0.980
10122SOL    HW232199   3.712   3.341   0.864
10123SOL     OW32200   2.372  13.407  12.140
10123SOL    HW132201   2.391  13.314  12.152
10123SOL    HW232202   2.450  13.451  12.173
10124SOL     OW32203   5.518   7.136  13.804
10124SOL    HW132204   5.491   7.119  13.894
10124SOL    HW232205   5.435   7.149  13.757
10125SOL     OW32206   8.804  12.849   9.263
10125SOL    HW132207   8.869  12.815   9.201
10125SOL    HW232208   8.799  12.942   9.243
10126SOL     OW32209   7.102   1.333  11.376
10126SOL    HW132210   7.058   1.329  11.461
10126SOL    HW232211   7.032   1.351  11.314
10127SOL     OW32212   3.276   1.399   0.930
10127SOL    HW132213   3.190   1.360   0.912
10127SOL    HW232214   3.273   1.421   1.023
10128SOL     OW32215  10.467   0.851   9.169
10128SOL    HW132216  10.398   0.797   9.207
10128SOL    HW232217  10.494   0.804   9.090
10129SOL     OW32218   6.623   9.853  13.229
10129SOL    HW132219   6.613   9.845  13.134
10129SOL    HW232220   6.560   9.921  13.254
10130SOL     OW32221   0.109   6.722  14.226
10130SOL    HW132222   0.106   6.798  14.168
10130SOL    HW232223   0.146   6.756  14.308
10131SOL     OW32224  14.537   7.450   7.039
10131SOL    HW132225  14.498   7.450   7.126
10131SOL    HW232226  14.516   7.364   7.003
10132SOL     OW32227   1.564  10.242  12.228
10132SOL    HW132228   1.653  10.214  12.208
10132SOL    HW232229   1.569  10.338  12.231
10133SOL     OW32230   6.395   7.447   5.142
10133SOL    HW132231   6.305   7.416   5.130
10133SOL    HW232232   6.450   7.376   5.107
10134SOL     OW32233   2.536   6.602   5.361
10134SOL    HW132234   2.624   6.572   5.339
10134SOL    HW232235   2.549   6.672   5.425
10135SOL     OW32236   5.835  11.408   8.358
10135SOL    HW132237   5.807  11.490   8.318
10135SOL    HW232238   5.842  11.346   8.286
10136SOL     OW32239  12.857   0.870  11.860
10136SOL    HW132240  12.855   0.944  11.920
10136SOL    HW232241  12.948   0.864  11.831
10137SOL     OW32242  12.767   6.504   0.898
10137SOL    HW132243  12.731   6.536   0.981
10137SOL    HW232244  12.723   6.420   0.884
10138SOL     OW32245  14.852   9.261  10.517
10138SOL    HW132246  14.812   9.241  10.433
10138SOL    HW232247  14.791   9.321  10.560
10139SOL     OW32248   5.765   6.702  10.675
10139SOL    HW132249   5.721   6.762  10.615
10139SOL    HW232250   5.812   6.759  10.736
10140SOL     OW32251   8.287  13.472   8.318
10140SOL    HW132252   8.236  13.447   8.395
10140SOL    HW232253   8.231  13.534   8.272
10141SOL     OW32254   2.147  13.802  12.037
10141SOL    HW132255   2.203  13.772  12.108
10141SOL    HW232256   2.196  13.874  11.997
10142SOL     OW32257   0.354   8.063   5.537
10142SOL    HW132258   0.297   8.081   5.612
10142SOL    HW232259   0.362   7.967   5.536
10143SOL     OW32260   9.177  13.100   5.149
10143SOL    HW132261   9.200  13.138   5.234
10143SOL    HW232262   9.145  13.173   5.097
10144SOL     OW32263   5.541   4.887  10.890
10144SOL    HW132264   5.551   4.964  10.833
10144SOL    HW232265   5.448   4.866  10.885
10145SOL     OW32266   0.017  13.835  12.331
10145SOL    HW132267  14.836  13.855  12.256
10145SOL    HW232268  14.841  13.777  12.386
10146SOL     OW32269  14.022   5.108  12.357
10146SOL    HW132270  14.041   5.015  12.367
10146SOL    HW232271  14.005   5.140  12.445
10147SOL     OW32272  10.321   4.510   5.526
10147SOL    HW132273  10.292   4.538   5.439
10147SOL    HW232274  10.395   4.452   5.509
10148SOL     OW32275   5.418  11.757   1.568
10148SOL    HW132276   5.460  11.677   1.600
10148SOL    HW232277   5.462  11.828   1.615
10149SOL     OW32278  13.997   0.157   7.928
10149SOL    HW132279  13.916   0.119   7.892
10149SOL    HW232280  13.975   0.249   7.944
10150SOL     OW32281   1.830  11.501   7.904
10150SOL    HW132282   1.902  11.439   7.909
10150SOL    HW232283   1.846  11.562   7.976
10151SOL     OW32284   1.954  13.798   6.857
10151SOL    HW132285   1.949  13.834   6.768
10151SOL    HW232286   1.915  13.710   6.849
10152SOL     OW32287   2.988   2.733   0.810
10152SOL    HW132288   3.006   2.789   0.734
10152SOL    HW232289   2.896   2.751   0.831
10153SOL     OW32290   5.393  10.834   2.803
10153SOL    HW132291   5.419  10.761   2.860
10153SOL    HW232292   5.452  10.828   2.728
10154SOL     OW32293  12.760  10.928   2.155
10154SOL    HW132294  12.696  10.877   2.204
10154SOL    HW232295  12.793  10.992   2.218
10155SOL     OW32296   8.048   0.437   5.052
10155SOL    HW132297   7.966   0.399   5.082
10155SOL    HW232298   8.045   0.431   4.957
10156SOL     OW32299  11.768   8.876  10.981
10156SOL    HW132300  11.822   8.853  10.905
10156SOL    HW232301  11.694   8.815  10.978
10157SOL     OW32302  13.668   8.369   8.432
10157SOL    HW132303  13.698   8.288   8.474
10157SOL    HW232304  13.738   8.432   8.448
10158SOL     OW32305   8.665   6.923   2.832
10158SOL    HW132306   8.622   6.839   2.844
10158SOL    HW232307   8.606   6.987   2.871
10159SOL     OW32308   8.756   0.824  12.336
10159SOL    HW132309   8.804   0.791  12.411
10159SOL    HW232310   8.724   0.746  12.291
10160SOL     OW32311  11.947   2.747   0.586
10160SOL    HW132312  11.925   2.827   0.634
10160SOL    HW232313  11.990   2.692   0.651
10161SOL     OW32314   3.816   3.844   4.612
10161SOL    HW132315   3.749   3.775   4.608
10161SOL    HW232316   3.825   3.863   4.705
10162SOL     OW32317   0.527  12.643   2.912
10162SOL    HW132318   0.474  12.571   2.880
10162SOL    HW232319   0.503  12.652   3.005
10163SOL     OW32320   8.694   5.846   1.410
10163SOL    HW132321   8.647   5.821   1.489
10163SOL    HW232322   8.778   5.801   1.417
10164SOL     OW32323   5.904  10.653   1.480
10164SOL    HW132324   5.948  10.736   1.495
10164SOL    HW232325   5.823  10.660   1.531
10165SOL     OW32326   0.241   1.908   2.659
10165SOL    HW132327   0.272   1.964   2.587
10165SOL    HW232328   0.319   1.859   2.686
10166SOL     OW32329   8.781  10.392   9.041
10166SOL    HW132330   8.832  10.337   8.982
10166SOL    HW232331   8.694  10.398   9.000
10167SOL     OW32332   1.004   2.571   6.856
10167SOL    HW132333   0.948   2.549   6.931
10167SOL    HW232334   0.985   2.502   6.792
10168SOL     OW32335  12.631   4.395   3.162
10168SOL    HW132336  12.648   4.489   3.176
10168SOL    HW232337  12.537   4.386   3.178
10169SOL     OW32338   4.050   7.558  12.176
10169SOL    HW132339   4.103   7.501  12.232
10169SOL    HW232340   4.112   7.593  12.112
10170SOL     OW32341   5.433   7.784  12.794
10170SOL    HW132342   5.377   7.838  12.738
10170SOL    HW232343   5.521   7.796  12.758
10171SOL     OW32344  12.194  14.568  13.331
10171SOL    HW132345  12.206  14.522  13.248
10171SOL    HW232346  12.279  14.608  13.349
10172SOL     OW32347   8.377   5.909   6.279
10172SOL    HW132348   8.424   5.935   6.200
10172SOL    HW232349   8.435   5.846   6.321
10173SOL     OW32350  12.005  10.621  14.817
10173SOL    HW132351  12.072  10.586   0.000
10173SOL    HW232352  11.965  10.692  14.865
10174SOL     OW32353   1.338  11.399  13.568
10174SOL    HW132354   1.327  11.305  13.556
10174SOL    HW232355   1.378  11.430  13.487
10175SOL     OW32356  13.425   5.351  14.809
10175SOL    HW132357  13.426   5.446  14.823
10175SOL    HW232358  13.500   5.319  14.860
10176SOL     OW32359  13.324   4.103   1.238
10176SOL    HW132360  13.302   4.088   1.146
10176SOL    HW232361  13.272   4.179   1.263
10177SOL     OW32362  13.155  14.118  11.091
10177SOL    HW132363  13.133  14.136  11.183
10177SOL    HW232364  13.093  14.050  11.064
10178SOL     OW32365  11.998   9.827   2.602
10178SOL    HW132366  12.024   9.858   2.689
10178SOL    HW232367  12.002   9.731   2.609
10179SOL     OW32368   1.825   3.320   4.349
10179SOL    HW132369   1.816   3.316   4.445
10179SOL    HW232370   1.739   3.347   4.318
10180SOL     OW32371   7.817   1.529  10.899
10180SOL    HW132372   7.856   1.483  10.825
10180SOL    HW232373   7.730   1.555  10.868
10181SOL     OW32374  12.900   7.586   6.713
10181SOL    HW132375  12.914   7.570   6.619
10181SOL    HW232376  12.860   7.673   6.717
10182SOL     OW32377   6.762  12.170  14.388
10182SOL    HW132378   6.691  12.113  14.359
10182SOL    HW232379   6.782  12.141  14.477
10183SOL     OW32380   5.752  10.228   2.664
10183SOL    HW132381   5.765  10.286   2.739
10183SOL    HW232382   5.731  10.143   2.701
10184SOL     OW32383   4.401  10.489   1.903
10184SOL    HW132384   4.413  10.395   1.893
10184SOL    HW232385   4.466  10.528   1.845
10185SOL     OW32386  10.026  14.423   8.467
10185SOL    HW132387  10.010  14.511   8.500
10185SOL    HW232388  10.084  14.383   8.532
10186SOL     OW32389   8.174  14.600   7.437
10186SOL    HW132390   8.184  14.695   7.430
10186SOL    HW232391   8.119  14.587   7.514
10187SOL     OW32392   1.814   0.656  13.379
10187SOL    HW132393   1.749   0.587  13.396
10187SOL    HW232394   1.770   0.717  13.320
10188SOL     OW32395   8.415  10.487   5.755
10188SOL    HW132396   8.474  10.413   5.743
10188SOL    HW232397   8.436  10.521   5.842
10189SOL     OW32398   4.973   5.456  11.725
10189SOL    HW132399   4.940   5.544  11.709
10189SOL    HW232400   4.905   5.413  11.777
10190SOL     OW32401  14.685   5.806  13.187
10190SOL    HW132402  14.654   5.746  13.256
10190SOL    HW232403  14.618   5.798  13.119
10191SOL     OW32404   5.528   5.558   3.453
10191SOL    HW132405   5.474   5.588   3.379
10191SOL    HW232406   5.500   5.613   3.526
10192SOL     OW32407   5.542   2.671   1.774
10192SOL    HW132408   5.570   2.739   1.713
10192SOL    HW232409   5.614   2.608   1.774
10193SOL     OW32410   4.795   2.887   0.915
10193SOL    HW132411   4.865   2.941   0.950
10193SOL    HW232412   4.806   2.891   0.820
10194SOL     OW32413   4.206   9.209  13.395
10194SOL    HW132414   4.228   9.118  13.373
10194SOL    HW232415   4.288   9.246  13.427
10195SOL     OW32416   3.166   3.381   2.720
10195SOL    HW132417   3.199   3.451   2.665
10195SOL    HW232418   3.151   3.308   2.659
10196SOL     OW32419   6.101  12.273  11.504
10196SOL    HW132420   6.093  12.362  11.539
10196SOL    HW232421   6.170  12.233  11.557
10197SOL     OW32422   8.486   9.056   5.744
10197SOL    HW132423   8.454   8.968   5.726
10197SOL    HW232424   8.462   9.074   5.834
10198SOL     OW32425   3.481   2.049   7.625
10198SOL    HW132426   3.446   2.127   7.582
10198SOL    HW232427   3.502   2.079   7.714
10199SOL     OW32428  11.303  11.090   9.198
10199SOL    HW132429  11.389  11.130   9.212
10199SOL    HW232430  11.317  10.996   9.212
10200SOL     OW32431   0.037  10.064  12.588
10200SOL    HW132432   0.096  10.109  12.529
10200SOL    HW232433   0.011   9.985  12.541
10201SOL     OW32434   1.481  14.068   4.528
10201SOL    HW132435   1.555  14.110   4.484
10201SOL    HW232436   1.409  14.131   4.519
10202SOL     OW32437   3.537  12.518   0.109
10202SOL    HW132438   3.631  12.524   0.124
10202SOL    HW232439   3.528  12.473   0.025
10203SOL     OW32440  13.278   6.919   4.456
10203SOL    HW132441  13.339   6.985   4.420
10203SOL    HW232442  13.245   6.873   4.378
10204SOL     OW32443  10.366  13.855   3.879
10204SOL    HW132444  10.399  13.942   3.903
10204SOL    HW232445  10.441  13.813   3.837
10205SOL     OW32446   0.409   0.515   1.654
10205SOL    HW132447   0.395   0.582   1.588
10205SOL    HW232448   0.330   0.461   1.651
10206SOL     OW32449   8.765   7.711  12.941
10206SOL    HW132450   8.766   7.692  13.035
10206SOL    HW232451   8.782   7.805  12.936
10207SOL     OW32452   0.732  13.203   3.132
10207SOL    HW132453   0.748  13.117   3.092
10207SOL    HW232454   0.820  13.239   3.146
10208SOL     OW32455  13.957   3.120  14.688
10208SOL    HW132456  13.876   3.085  14.650
10208SOL    HW232457  14.027   3.078  14.638
10209SOL     OW32458   4.606   2.355   0.576
10209SOL    HW132459   4.673   2.333   0.640
10209SOL    HW232460   4.544   2.410   0.624
10210SOL     OW32461   7.710   7.268   3.748
10210SOL    HW132462   7.664   7.186   3.763
10210SOL    HW232463   7.679   7.326   3.818
10211SOL     OW32464  11.653  11.850   6.763
10211SOL    HW132465  11.727  11.808   6.719
10211SOL    HW232466  11.693  11.896   6.837
10212SOL     OW32467   3.692   1.508   5.765
10212SOL    HW132468   3.692   1.550   5.851
10212SOL    HW232469   3.755   1.558   5.713
10213SOL     OW32470  12.349   5.932   9.640
10213SOL    HW132471  12.368   6.017   9.682
10213SOL    HW232472  12.282   5.952   9.575
10214SOL     OW32473   9.794   5.532   0.568
10214SOL    HW132474   9.721   5.470   0.558
10214SOL    HW232475   9.864   5.480   0.609
10215SOL     OW32476  13.823  13.343   7.275
10215SOL    HW132477  13.818  13.275   7.342
10215SOL    HW232478  13.905  13.388   7.293
10216SOL     OW32479  14.805   3.093   7.339
10216SOL    HW132480  14.853   3.124   7.417
10216SOL    HW232481  14.748   3.166   7.316
10217SOL     OW32482   6.221   1.906   4.288
10217SOL    HW132483   6.196   1.970   4.355
10217SOL    HW232484   6.142   1.895   4.235
10218SOL     OW32485  10.032   8.293   7.083
10218SOL    HW132486   9.966   8.347   7.040
10218SOL    HW232487   9.998   8.204   7.077
10219SOL     OW32488  11.040   8.743   8.883
10219SOL    HW132489  11.001   8.745   8.796
10219SOL    HW232490  10.970   8.712   8.940
10220SOL     OW32491  13.019  12.197   7.228
10220SOL    HW132492  13.024  12.136   7.155
10220SOL    HW232493  13.075  12.159   7.296
10221SOL     OW32494   1.803  10.725   2.070
10221SOL    HW132495   1.834  10.643   2.032
10221SOL    HW232496   1.875  10.755   2.125
10222SOL     OW32497  11.219   1.575  13.892
10222SOL    HW132498  11.212   1.490  13.936
10222SOL    HW232499  11.190   1.558  13.802
10223SOL     OW32500   3.079  12.138   6.052
10223SOL    HW132501   3.010  12.074   6.033
10223SOL    HW232502   3.076  12.199   5.979
10224SOL     OW32503   7.321   9.669  14.041
10224SOL    HW132504   7.402   9.630  14.072
10224SOL    HW232505   7.252   9.620  14.086
10225SOL     OW32506   4.471   1.647   1.272
10225SOL    HW132507   4.393   1.592   1.261
10225SOL    HW232508   4.441   1.719   1.327
10226SOL     OW32509   7.804   4.486   5.582
10226SOL    HW132510   7.746   4.456   5.652
10226SOL    HW232511   7.771   4.441   5.503
10227SOL     OW32512   3.995   1.566  10.013
10227SOL    HW132513   3.974   1.649   9.970
10227SOL    HW232514   4.091   1.559  10.007
10228SOL     OW32515   6.746   5.607   9.400
10228SOL    HW132516   6.770   5.697   9.425
10228SOL    HW232517   6.686   5.579   9.468
10229SOL     OW32518   4.965   5.096  11.403
10229SOL    HW132519   5.030   5.072  11.337
10229SOL    HW232520   5.000   5.175  11.443
10230SOL     OW32521   3.375  10.673   8.054
10230SOL    HW132522   3.397  10.713   7.969
10230SOL    HW232523   3.279  10.674   8.056
10231SOL     OW32524  12.874   0.823   1.954
10231SOL    HW132525  12.853   0.883   2.025
10231SOL    HW232526  12.944   0.768   1.988
10232SOL     OW32527   5.600   0.055   8.569
10232SOL    HW132528   5.542   0.123   8.606
10232SOL    HW232529   5.590   0.064   8.474
10233SOL     OW32530   4.400  10.033   1.267
10233SOL    HW132531   4.374  10.113   1.313
10233SOL    HW232532   4.481  10.056   1.222
10234SOL     OW32533  10.583   8.021   6.538
10234SOL    HW132534  10.491   7.995   6.544
10234SOL    HW232535  10.605   8.053   6.626
10235SOL     OW32536   7.852   5.404  13.611
10235SOL    HW132537   7.825   5.341  13.545
10235SOL    HW232538   7.878   5.350  13.686
10236SOL     OW32539  10.648  14.718   1.409
10236SOL    HW132540  10.606  14.639   1.444
10236SOL    HW232541  10.594  14.790   1.440
10237SOL     OW32542   1.043   9.922   6.038
10237SOL    HW132543   1.058   9.902   5.945
10237SOL    HW232544   1.020  10.016   6.038
10238SOL     OW32545  13.064  13.768   1.350
10238SOL    HW132546  13.039  13.847   1.304
10238SOL    HW232547  12.982  13.723   1.368
10239SOL     OW32548   3.600  11.515   1.794
10239SOL    HW132549   3.651  11.482   1.721
10239SOL    HW232550   3.665  11.545   1.857
10240SOL     OW32551   0.731   9.284   2.475
10240SOL    HW132552   0.641   9.255   2.462
10240SOL    HW232553   0.741   9.359   2.416
10241SOL     OW32554  13.787   9.747   9.027
10241SOL    HW132555  13.793   9.842   9.031
10241SOL    HW232556  13.861   9.716   9.079
10242SOL     OW32557   8.232  14.729   1.544
10242SOL    HW132558   8.179  14.800   1.581
10242SOL    HW232559   8.181  14.650   1.562
10243SOL     OW32560  11.550   8.977  10.039
10243SOL    HW132561  11.585   8.934  10.116
10243SOL    HW232562  11.492   9.045  10.073
10244SOL     OW32563   7.316  11.330   0.330
10244SOL    HW132564   7.354  11.403   0.379
10244SOL    HW232565   7.230  11.317   0.369
10245SOL     OW32566  11.600   2.326  13.113
10245SOL    HW132567  11.540   2.317  13.039
10245SOL    HW232568  11.547   2.302  13.189
10246SOL     OW32569  14.211   2.678   5.956
10246SOL    HW132570  14.143   2.615   5.981
10246SOL    HW232571  14.167   2.763   5.957
10247SOL     OW32572   1.611   9.607   4.528
10247SOL    HW132573   1.577   9.529   4.484
10247SOL    HW232574   1.697   9.622   4.488
10248SOL     OW32575  14.198   8.595  10.349
10248SOL    HW132576  14.274   8.568  10.297
10248SOL    HW232577  14.180   8.685  10.321
10249SOL     OW32578   3.770   6.810  10.740
10249SOL    HW132579   3.719   6.880  10.700
10249SOL    HW232580   3.790   6.842  10.828
10250SOL     OW32581   4.691  13.497   1.861
10250SOL    HW132582   4.672  13.534   1.947
10250SOL    HW232583   4.647  13.411   1.861
10251SOL     OW32584  10.443  10.898  12.718
10251SOL    HW132585  10.495  10.931  12.644
10251SOL    HW232586  10.352  10.906  12.688
10252SOL     OW32587   4.124  11.281   0.700
10252SOL    HW132588   4.044  11.279   0.647
10252SOL    HW232589   4.193  11.252   0.641
10253SOL     OW32590  13.856   2.252  14.080
10253SOL    HW132591  13.840   2.346  14.089
10253SOL    HW232592  13.949   2.245  14.060
10254SOL     OW32593   7.991  10.727  11.590
10254SOL    HW132594   8.032  10.645  11.562
10254SOL    HW232595   7.964  10.769  11.509
10255SOL     OW32596   5.532   5.572   7.112
10255SOL    HW132597   5.599   5.605   7.053
10255SOL    HW232598   5.456   5.556   7.055
10256SOL     OW32599   9.722   3.755   0.308
10256SOL    HW132600   9.798   3.702   0.282
10256SOL    HW232601   9.756   3.844   0.313
10257SOL     OW32602   8.237  11.037   6.551
10257SOL    HW132603   8.275  11.124   6.557
10257SOL    HW232604   8.288  10.992   6.484
10258SOL     OW32605  12.891  11.777   1.595
10258SOL    HW132606  12.941  11.790   1.677
10258SOL    HW232607  12.863  11.686   1.599
10259SOL     OW32608   4.248   9.649   9.345
10259SOL    HW132609   4.199   9.645   9.427
10259SOL    HW232610   4.312   9.719   9.358
10260SOL     OW32611   1.121   7.586   4.036
10260SOL    HW132612   1.149   7.625   4.119
10260SOL    HW232613   1.200   7.586   3.982
10261SOL     OW32614   6.770  12.049  14.867
10261SOL    HW132615   6.864  12.052  14.847
10261SOL    HW232616   6.729  12.021  14.785
10262SOL     OW32617  14.417   0.780   4.327
10262SOL    HW132618  14.375   0.854   4.372
10262SOL    HW232619  14.474   0.741   4.393
10263SOL     OW32620  10.789  13.864   8.045
10263SOL    HW132621  10.761  13.817   7.967
10263SOL    HW232622  10.885  13.860   8.043
10264SOL     OW32623   1.777   0.157   2.211
10264SOL    HW132624   1.758   0.066   2.188
10264SOL    HW232625   1.759   0.206   2.131
10265SOL     OW32626   7.703   7.319   9.590
10265SOL    HW132627   7.728   7.290   9.678
10265SOL    HW232628   7.616   7.283   9.577
10266SOL     OW32629  12.498   9.256   2.844
10266SOL    HW132630  12.571   9.248   2.782
10266SOL    HW232631  12.530   9.213   2.924
10267SOL     OW32632   9.348  14.477   9.765
10267SOL    HW132633   9.438  14.469   9.732
10267SOL    HW232634   9.314  14.388   9.764
10268SOL     OW32635   9.751   6.394   1.360
10268SOL    HW132636   9.703   6.343   1.426
10268SOL    HW232637   9.755   6.337   1.284
10269SOL     OW32638   5.181  13.578  13.372
10269SOL    HW132639   5.204  13.554  13.462
10269SOL    HW232640   5.212  13.504  13.319
10270SOL     OW32641   8.540   9.988  10.507
10270SOL    HW132642   8.514   9.946  10.588
10270SOL    HW232643   8.519   9.924  10.439
10271SOL     OW32644  13.479   3.774  14.092
10271SOL    HW132645  13.495   3.822  14.011
10271SOL    HW232646  13.439   3.838  14.150
10272SOL     OW32647  13.369  12.616  13.357
10272SOL    HW132648  13.395  12.701  13.322
10272SOL    HW232649  13.380  12.624  13.451
10273SOL     OW32650   2.276   2.610   4.676
10273SOL    HW132651   2.325   2.536   4.713
10273SOL    HW232652   2.340   2.658   4.624
10274SOL     OW32653   4.843  11.206   8.203
10274SOL    HW132654   4.825  11.187   8.296
10274SOL    HW232655   4.786  11.281   8.183
10275SOL     OW32656   4.092   2.055   5.233
10275SOL    HW132657   4.187   2.048   5.230
10275SOL    HW232658   4.072   2.134   5.183
10276SOL     OW32659  13.113   1.993   4.225
10276SOL    HW132660  13.166   2.035   4.158
10276SOL    HW232661  13.023   2.000   4.192
10277SOL     OW32662  10.750  11.752   4.086
10277SOL    HW132663  10.797  11.778   4.164
10277SOL    HW232664  10.813  11.763   4.015
10278SOL     OW32665   5.079  14.590  14.095
10278SOL    HW132666   5.084  14.607  14.189
10278SOL    HW232667   5.013  14.522  14.086
10279SOL     OW32668  13.226   4.971   5.730
10279SOL    HW132669  13.304   4.929   5.693
10279SOL    HW232670  13.167   4.982   5.655
10280SOL     OW32671   5.086  13.993  14.018
10280SOL    HW132672   5.138  14.038  14.084
10280SOL    HW232673   5.076  14.056  13.947
10281SOL     OW32674   8.825   1.008   7.982
10281SOL    HW132675   8.905   0.986   7.934
10281SOL    HW232676   8.852   1.074   8.046
10282SOL     OW32677  12.304   6.553   7.392
10282SOL    HW132678  12.253   6.580   7.316
10282SOL    HW232679  12.386   6.601   7.384
10283SOL     OW32680   9.757   1.496   8.720
10283SOL    HW132681   9.851   1.495   8.702
10283SOL    HW232682   9.731   1.587   8.703
10284SOL     OW32683   8.550   1.441  13.120
10284SOL    HW132684   8.489   1.373  13.150
10284SOL    HW232685   8.570   1.418  13.029
10285SOL     OW32686   3.865   2.383   1.830
10285SOL    HW132687   3.770   2.375   1.833
10285SOL    HW232688   3.892   2.378   1.921
10286SOL     OW32689   6.329   6.822   8.465
10286SOL    HW132690   6.285   6.760   8.523
10286SOL    HW232691   6.401   6.772   8.426
10287SOL     OW32692   5.841   6.950   8.295
10287SOL    HW132693   5.825   6.916   8.383
10287SOL    HW232694   5.859   6.872   8.242
10288SOL     OW32695   9.371   4.960   4.337
10288SOL    HW132696   9.323   5.043   4.334
10288SOL    HW232697   9.410   4.958   4.424
10289SOL     OW32698   8.874  10.915  14.375
10289SOL    HW132699   8.935  10.924  14.302
10289SOL    HW232700   8.901  10.835  14.419
10290SOL     OW32701  14.504  13.591  12.288
10290SOL    HW132702  14.571  13.537  12.247
10290SOL    HW232703  14.468  13.537  12.358
10291SOL     OW32704   6.701   0.550   8.000
10291SOL    HW132705   6.712   0.630   8.052
10291SOL    HW232706   6.628   0.504   8.042
10292SOL     OW32707   7.268   8.197   1.530
10292SOL    HW132708   7.331   8.268   1.542
10292SOL    HW232709   7.322   8.121   1.507
10293SOL     OW32710   0.546   3.712   4.579
10293SOL    HW132711   0.631   3.705   4.623
10293SOL    HW232712   0.482   3.708   4.651
10294SOL     OW32713  10.379   0.002   7.721
10294SOL    HW132714  10.290   0.001   7.685
10294SOL    HW232715  10.377   0.073   7.786
10295SOL     OW32716  14.287   6.224   7.056
10295SOL    HW132717  14.348   6.294   7.036
10295SOL    HW232718  14.203   6.267   7.068
10296SOL     OW32719   0.434  10.664   5.483
10296SOL    HW132720   0.464  10.576   5.463
10296SOL    HW232721   0.468  10.682   5.570
10297SOL     OW32722  13.814   0.090  11.281
10297SOL    HW132723  13.762   0.093  11.361
10297SOL    HW232724  13.904   0.102  11.310
10298SOL     OW32725   1.561   5.177  10.486
10298SOL    HW132726   1.494   5.173  10.554
10298SOL    HW232727   1.561   5.089  10.447
10299SOL     OW32728   4.852  14.336  13.098
10299SOL    HW132729   4.839  14.428  13.119
10299SOL    HW232730   4.766  14.304  13.072
10300SOL     OW32731  10.501  10.292  10.905
10300SOL    HW132732  10.553  10.239  10.966
10300SOL    HW232733  10.432  10.232  10.875
10301SOL     OW32734   1.095  11.153   8.617
10301SOL    HW132735   1.110  11.157   8.711
10301SOL    HW232736   1.165  11.097   8.583
10302SOL     OW32737   9.324  12.350  11.673
10302SOL    HW132738   9.351  12.394  11.592
10302SOL    HW232739   9.267  12.278  11.644
10303SOL     OW32740  10.828   7.961   9.512
10303SOL    HW132741  10.872   7.932   9.592
10303SOL    HW232742  10.886   7.934   9.441
10304SOL     OW32743   3.508   1.594  11.655
10304SOL    HW132744   3.451   1.536  11.604
10304SOL    HW232745   3.474   1.589  11.744
10305SOL     OW32746   5.266  12.992   0.598
10305SOL    HW132747   5.213  12.995   0.677
10305SOL    HW232748   5.252  13.077   0.557
10306SOL     OW32749   4.128   6.732   1.165
10306SOL    HW132750   4.091   6.813   1.131
10306SOL    HW232751   4.058   6.694   1.218
10307SOL     OW32752   5.079   2.091   6.121
10307SOL    HW132753   4.993   2.128   6.103
10307SOL    HW232754   5.101   2.043   6.041
10308SOL     OW32755   9.065  12.308   5.116
10308SOL    HW132756   9.040  12.254   5.191
10308SOL    HW232757   9.146  12.269   5.083
10309SOL     OW32758  10.485  12.125   8.325
10309SOL    HW132759  10.558  12.069   8.298
10309SOL    HW232760  10.414  12.103   8.264
10310SOL     OW32761   4.689   8.836   8.115
10310SOL    HW132762   4.776   8.823   8.152
10310SOL    HW232763   4.679   8.931   8.112
10311SOL     OW32764  14.865  11.334   6.922
10311SOL    HW132765  14.808  11.386   6.865
10311SOL    HW232766  14.808  11.267   6.959
10312SOL     OW32767   7.196   2.120  14.228
10312SOL    HW132768   7.103   2.131  14.210
10312SOL    HW232769   7.205   2.141  14.321
10313SOL     OW32770   9.621   7.990  10.227
10313SOL    HW132771   9.577   7.985  10.312
10313SOL    HW232772   9.698   8.044  10.242
10314SOL     OW32773   2.167   3.353   8.683
10314SOL    HW132774   2.161   3.289   8.612
10314SOL    HW232775   2.167   3.301   8.763
10315SOL     OW32776  13.502   6.350   5.416
10315SOL    HW132777  13.594   6.358   5.440
10315SOL    HW232778  13.454   6.386   5.490
10316SOL     OW32779  10.656   8.589   8.090
10316SOL    HW132780  10.568   8.572   8.124
10316SOL    HW232781  10.687   8.503   8.060
10317SOL     OW32782   6.174   8.069   3.141
10317SOL    HW132783   6.267   8.049   3.137
10317SOL    HW232784   6.157   8.088   3.233
10318SOL     OW32785   5.178   6.378  13.743
10318SOL    HW132786   5.146   6.321  13.674
10318SOL    HW232787   5.195   6.462  13.700
10319SOL     OW32788   4.685   9.723   2.308
10319SOL    HW132789   4.611   9.670   2.278
10319SOL    HW232790   4.680   9.719   2.403
10320SOL     OW32791  10.743  14.033   5.710
10320SOL    HW132792  10.803  13.964   5.681
10320SOL    HW232793  10.674  13.987   5.757
10321SOL     OW32794  10.530  11.271   2.725
10321SOL    HW132795  10.507  11.363   2.741
10321SOL    HW232796  10.625  11.268   2.733
10322SOL     OW32797   6.803  11.129   7.920
10322SOL    HW132798   6.734  11.086   7.870
10322SOL    HW232799   6.762  11.148   8.005
10323SOL     OW32800   1.662   6.583   5.721
10323SOL    HW132801   1.740   6.528   5.716
10323SOL    HW232802   1.603   6.537   5.781
10324SOL     OW32803   4.883   0.248  13.043
10324SOL    HW132804   4.872   0.212  12.955
10324SOL    HW232805   4.805   0.218  13.090
10325SOL     OW32806   2.375   6.222   4.294
10325SOL    HW132807   2.333   6.280   4.230
10325SOL    HW232808   2.441   6.175   4.243
10326SOL     OW32809  14.313  10.254   6.178
10326SOL    HW132810  14.264  10.294   6.249
10326SOL    HW232811  14.401  10.242   6.213
10327SOL     OW32812   9.551   1.731  10.028
10327SOL    HW132813   9.582   1.772  10.109
10327SOL    HW232814   9.623   1.742   9.966
10328SOL     OW32815  11.348  10.864   5.300
10328SOL    HW132816  11.354  10.768   5.307
10328SOL    HW232817  11.329  10.880   5.208
10329SOL     OW32818  10.598   2.975  11.517
10329SOL    HW132819  10.504   2.992  11.521
10329SOL    HW232820  10.639   3.061  11.525
10330SOL     OW32821   9.544   6.082  14.677
10330SOL    HW132822   9.455   6.047  14.674
10330SOL    HW232823   9.583   6.054  14.594
10331SOL     OW32824   8.156   9.365  12.314
10331SOL    HW132825   8.112   9.353  12.397
10331SOL    HW232826   8.088   9.348  12.248
10332SOL     OW32827   8.822   4.030   2.827
10332SOL    HW132828   8.902   3.984   2.853
10332SOL    HW232829   8.813   4.101   2.890
10333SOL     OW32830   1.686  13.472   9.000
10333SOL    HW132831   1.724  13.424   8.927
10333SOL    HW232832   1.722  13.430   9.079
10334SOL     OW32833  10.565  12.511   6.371
10334SOL    HW132834  10.594  12.466   6.450
10334SOL    HW232835  10.641  12.559   6.341
10335SOL     OW32836  10.289   2.223   7.271
10335SOL    HW132837  10.278   2.294   7.335
10335SOL    HW232838  10.294   2.267   7.187
10336SOL     OW32839   3.753   7.067   4.027
10336SOL    HW132840   3.831   7.017   4.004
10336SOL    HW232841   3.713   7.088   3.943
10337SOL     OW32842   8.388   2.029   0.040
10337SOL    HW132843   8.379   2.055   0.132
10337SOL    HW232844   8.409   2.110  14.870
10338SOL     OW32845   2.752   0.030   3.859
10338SOL    HW132846   2.790   0.086   3.791
10338SOL    HW232847   2.779  14.817   3.835
10339SOL     OW32848   2.892  12.321  13.673
10339SOL    HW132849   2.935  12.255  13.728
10339SOL    HW232850   2.801  12.293  13.670
10340SOL     OW32851   4.767   7.591   0.754
10340SOL    HW132852   4.711   7.572   0.830
10340SOL    HW232853   4.825   7.661   0.784
10341SOL     OW32854   0.862   8.198  13.522
10341SOL    HW132855   0.866   8.114  13.476
10341SOL    HW232856   0.840   8.174  13.612
10342SOL     OW32857   3.832   1.947   7.223
10342SOL    HW132858   3.821   1.941   7.128
10342SOL    HW232859   3.744   1.928   7.257
10343SOL     OW32860  10.015  11.029   4.963
10343SOL    HW132861  10.007  11.094   4.893
10343SOL    HW232862  10.075  11.069   5.026
10344SOL     OW32863   5.450   9.651  11.056
10344SOL    HW132864   5.373   9.696  11.021
10344SOL    HW232865   5.416   9.572  11.097
10345SOL     OW32866   4.979   0.179   7.286
10345SOL    HW132867   4.992   0.124   7.364
10345SOL    HW232868   4.973   0.116   7.214
10346SOL     OW32869   9.369   3.454  12.167
10346SOL    HW132870   9.394   3.389  12.101
10346SOL    HW232871   9.447   3.464  12.221
10347SOL     OW32872   3.469   1.419   9.872
10347SOL    HW132873   3.515   1.443   9.791
10347SOL    HW232874   3.383   1.458   9.863
10348SOL     OW32875  13.223   5.282   1.422
10348SOL    HW132876  13.236   5.241   1.508
10348SOL    HW232877  13.137   5.251   1.393
10349SOL     OW32878   0.363   3.367   7.475
10349SOL    HW132879   0.332   3.453   7.447
10349SOL    HW232880   0.459   3.373   7.467
10350SOL     OW32881   2.228   8.223   8.565
10350SOL    HW132882   2.147   8.262   8.530
10350SOL    HW232883   2.264   8.174   8.492
10351SOL     OW32884   8.962  11.074   0.648
10351SOL    HW132885   9.025  11.107   0.583
10351SOL    HW232886   8.930  10.992   0.611
10352SOL     OW32887  14.054   5.354  14.389
10352SOL    HW132888  14.135   5.313  14.356
10352SOL    HW232889  14.075   5.447  14.391
10353SOL     OW32890   5.041  11.778   4.104
10353SOL    HW132891   5.050  11.847   4.170
10353SOL    HW232892   5.060  11.697   4.151
10354SOL     OW32893   2.100   3.548   3.395
10354SOL    HW132894   2.068   3.511   3.477
10354SOL    HW232895   2.174   3.493   3.370
10355SOL     OW32896  10.852   7.344   0.138
10355SOL    HW132897  10.792   7.386   0.076
10355SOL    HW232898  10.824   7.377   0.223
10356SOL     OW32899  11.642   0.832   3.291
10356SOL    HW132900  11.687   0.808   3.372
10356SOL    HW232901  11.708   0.820   3.222
10357SOL     OW32902   5.119  11.638  12.445
10357SOL    HW132903   5.143  11.613  12.356
10357SOL    HW232904   5.124  11.557  12.495
10358SOL     OW32905  13.074   4.058   4.881
10358SOL    HW132906  12.980   4.046   4.897
10358SOL    HW232907  13.081   4.072   4.787
10359SOL     OW32908  11.554  14.715   5.037
10359SOL    HW132909  11.557  14.653   4.964
10359SOL    HW232910  11.644  14.723   5.066
10360SOL     OW32911   0.225   5.851   6.065
10360SOL    HW132912   0.268   5.789   6.006
10360SOL    HW232913   0.223   5.806   6.150
10361SOL     OW32914   1.783  11.274  12.152
10361SOL    HW132915   1.785  11.264  12.247
10361SOL    HW232916   1.708  11.331  12.135
10362SOL     OW32917   9.799   2.083   5.659
10362SOL    HW132918   9.820   2.176   5.651
10362SOL    HW232919   9.732   2.068   5.592
10363SOL     OW32920  14.062   8.780   5.140
10363SOL    HW132921  13.978   8.824   5.158
10363SOL    HW232922  14.055   8.696   5.185
10364SOL     OW32923   5.610   8.599  13.090
10364SOL    HW132924   5.517   8.618  13.104
10364SOL    HW232925   5.623   8.612  12.996
10365SOL     OW32926   6.925   6.461  10.410
10365SOL    HW132927   6.926   6.500  10.498
10365SOL    HW232928   6.876   6.524  10.357
10366SOL     OW32929   0.416  12.398   0.260
10366SOL    HW132930   0.388  12.404   0.351
10366SOL    HW232931   0.429  12.304   0.245
10367SOL     OW32932   6.762   8.644   8.160
10367SOL    HW132933   6.690   8.580   8.163
10367SOL    HW232934   6.841   8.591   8.167
10368SOL     OW32935  12.272  12.875  13.605
10368SOL    HW132936  12.294  12.824  13.527
10368SOL    HW232937  12.211  12.819  13.654
10369SOL     OW32938   0.800  12.102   1.586
10369SOL    HW132939   0.821  12.011   1.604
10369SOL    HW232940   0.772  12.103   1.495
10370SOL     OW32941  11.064   7.944  11.932
10370SOL    HW132942  11.054   8.003  12.008
10370SOL    HW232943  11.155   7.913  11.938
10371SOL     OW32944  12.770   8.302   0.915
10371SOL    HW132945  12.814   8.224   0.881
10371SOL    HW232946  12.760   8.359   0.839
10372SOL     OW32947   8.961  13.740   3.169
10372SOL    HW132948   8.912  13.796   3.108
10372SOL    HW232949   9.044  13.787   3.182
10373SOL     OW32950   4.640  13.465  14.463
10373SOL    HW132951   4.617  13.493  14.375
10373SOL    HW232952   4.710  13.524  14.490
10374SOL     OW32953  12.961   0.306  13.269
10374SOL    HW132954  12.879   0.277  13.308
10374SOL    HW232955  13.023   0.234  13.285
10375SOL     OW32956  10.728   8.340   5.361
10375SOL    HW132957  10.656   8.400   5.342
10375SOL    HW232958  10.806   8.395   5.364
10376SOL     OW32959   3.435   2.376  11.958
10376SOL    HW132960   3.361   2.384  12.017
10376SOL    HW232961   3.432   2.455  11.904
10377SOL     OW32962   4.028   0.171   5.280
10377SOL    HW132963   4.007   0.179   5.373
10377SOL    HW232964   4.043   0.078   5.266
10378SOL     OW32965   9.900   2.536   5.415
10378SOL    HW132966   9.904   2.446   5.381
10378SOL    HW232967   9.835   2.532   5.485
10379SOL     OW32968   8.776   3.385  10.742
10379SOL    HW132969   8.788   3.446  10.815
10379SOL    HW232970   8.690   3.408  10.706
10380SOL     OW32971   1.316   0.175   3.633
10380SOL    HW132972   1.315   0.087   3.594
10380SOL    HW232973   1.260   0.227   3.574
10381SOL     OW32974   1.909   8.972  13.236
10381SOL    HW132975   1.834   8.975  13.177
10381SOL    HW232976   1.875   8.934  13.317
10382SOL     OW32977   6.713   3.505   1.007
10382SOL    HW132978   6.713   3.596   1.037
10382SOL    HW232979   6.646   3.462   1.060
10383SOL     OW32980  11.766   4.294  12.812
10383SOL    HW132981  11.752   4.374  12.864
10383SOL    HW232982  11.697   4.298  12.746
10384SOL     OW32983  10.826  14.576   5.431
10384SOL    HW132984  10.801  14.593   5.522
10384SOL    HW232985  10.922  14.581   5.432
10385SOL     OW32986  11.949   8.196  13.752
10385SOL    HW132987  11.861   8.184  13.715
10385SOL    HW232988  11.946   8.148  13.835
10386SOL     OW32989   4.953   1.077   3.393
10386SOL    HW132990   4.897   1.001   3.375
10386SOL    HW232991   4.922   1.108   3.479
10387SOL     OW32992  14.128   6.631  14.211
10387SOL    HW132993  14.111   6.558  14.151
10387SOL    HW232994  14.064   6.698  14.187
10388SOL     OW32995   8.289  10.747   2.759
10388SOL    HW132996   8.309  10.814   2.693
10388SOL    HW232997   8.213  10.701   2.724
10389SOL     OW32998   9.041   1.251   0.607
10389SOL    HW132999   9.009   1.206   0.685
10389SOL    HW233000   9.018   1.343   0.621
10390SOL     OW33001   3.768  11.034   7.012
10390SOL    HW133002   3.863  11.017   7.018
10390SOL    HW233003   3.760  11.129   7.023
10391SOL     OW33004   8.485  10.428   6.998
10391SOL    HW133005   8.520  10.441   6.910
10391SOL    HW233006   8.451  10.514   7.022
10392SOL     OW33007   2.099   6.198   1.963
10392SOL    HW133008   2.045   6.119   1.955
10392SOL    HW233009   2.188   6.164   1.974
10393SOL     OW33010   6.010   6.538   7.789
10393SOL    HW133011   6.040   6.629   7.783
10393SOL    HW233012   5.936   6.532   7.729
10394SOL     OW33013   8.407  13.344   2.316
10394SOL    HW133014   8.336  13.399   2.348
10394SOL    HW233015   8.479  13.360   2.376
10395SOL     OW33016   4.779   2.571   8.566
10395SOL    HW133017   4.715   2.509   8.531
10395SOL    HW233018   4.748   2.657   8.538
10396SOL     OW33019   8.003   0.231   6.949
10396SOL    HW133020   8.071   0.296   6.934
10396SOL    HW233021   7.930   0.280   6.988
10397SOL     OW33022  12.953   1.337  11.263
10397SOL    HW133023  12.965   1.423  11.303
10397SOL    HW233024  12.924   1.356  11.173
10398SOL     OW33025  14.832   8.751  11.902
10398SOL    HW133026  14.758   8.691  11.904
10398SOL    HW233027  14.796   8.835  11.930
10399SOL     OW33028  14.245   2.320   7.358
10399SOL    HW133029  14.186   2.254   7.323
10399SOL    HW233030  14.260   2.380   7.284
10400SOL     OW33031   4.326   4.012  10.967
10400SOL    HW133032   4.407   4.055  10.996
10400SOL    HW233033   4.259   4.044  11.029
10401SOL     OW33034  12.087   8.256  13.146
10401SOL    HW133035  12.016   8.192  13.156
10401SOL    HW233036  12.051   8.325  13.091
10402SOL     OW33037   5.649   1.639   9.832
10402SOL    HW133038   5.659   1.716   9.889
10402SOL    HW233039   5.575   1.591   9.869
10403SOL     OW33040   6.432  12.890   4.985
10403SOL    HW133041   6.511  12.939   5.010
10403SOL    HW233042   6.428  12.817   5.047
10404SOL     OW33043   3.854  13.762  12.859
10404SOL    HW133044   3.798  13.818  12.805
10404SOL    HW233045   3.911  13.718  12.796
10405SOL     OW33046   3.923   9.373   3.739
10405SOL    HW133047   3.920   9.440   3.807
10405SOL    HW233048   3.915   9.290   3.786
10406SOL     OW33049  12.290  12.838   2.325
10406SOL    HW133050  12.229  12.774   2.361
10406SOL    HW233051  12.353  12.787   2.275
10407SOL     OW33052   3.080   1.561   7.646
10407SOL    HW133053   3.092   1.540   7.554
10407SOL    HW233054   3.057   1.653   7.647
10408SOL     OW33055   0.556  12.372   9.049
10408SOL    HW133056   0.628  12.344   8.992
10408SOL    HW233057   0.561  12.314   9.125
10409SOL     OW33058   7.880   8.367   8.010
10409SOL    HW133059   7.941   8.439   8.027
10409SOL    HW233060   7.844   8.346   8.097
10410SOL     OW33061   4.856  11.113   8.762
10410SOL    HW133062   4.860  11.039   8.823
10410SOL    HW233063   4.797  11.084   8.693
10411SOL     OW33064   0.078   7.202  11.673
10411SOL    HW133065   0.088   7.110  11.648
10411SOL    HW233066  14.866   7.207  11.712
10412SOL     OW33067   4.898  14.851   5.968
10412SOL    HW133068   4.906  14.861   6.063
10412SOL    HW233069   4.969  14.790   5.945
10413SOL     OW33070   8.783  12.972   9.684
10413SOL    HW133071   8.854  12.925   9.640
10413SOL    HW233072   8.704  12.947   9.636
10414SOL     OW33073   1.100   8.529   2.195
10414SOL    HW133074   1.018   8.481   2.205
10414SOL    HW233075   1.076   8.621   2.208
10415SOL     OW33076   8.246  11.395  14.268
10415SOL    HW133077   8.322  11.339  14.283
10415SOL    HW233078   8.219  11.423  14.356
10416SOL     OW33079  13.520   5.179   9.389
10416SOL    HW133080  13.584   5.141   9.449
10416SOL    HW233081  13.448   5.117   9.388
10417SOL     OW33082   4.363   8.768   3.454
10417SOL    HW133083   4.426   8.699   3.435
10417SOL    HW233084   4.294   8.724   3.504
10418SOL     OW33085   6.214   0.583   2.505
10418SOL    HW133086   6.292   0.634   2.484
10418SOL    HW233087   6.248   0.502   2.542
10419SOL     OW33088   5.592  11.382  14.172
10419SOL    HW133089   5.586  11.288  14.157
10419SOL    HW233090   5.529  11.420  14.111
10420SOL     OW33091   7.300  14.086  11.404
10420SOL    HW133092   7.307  14.019  11.471
10420SOL    HW233093   7.259  14.041  11.330
10421SOL     OW33094   6.541   4.682  11.534
10421SOL    HW133095   6.493   4.706  11.612
10421SOL    HW233096   6.474   4.669  11.467
10422SOL     OW33097   2.896   9.479   1.975
10422SOL    HW133098   2.806   9.500   1.949
10422SOL    HW233099   2.938   9.564   1.988
10423SOL     OW33100   4.353  12.319  13.396
10423SOL    HW133101   4.336  12.241  13.344
10423SOL    HW233102   4.448  12.330  13.393
10424SOL     OW33103   4.254   2.770  14.599
10424SOL    HW133104   4.328   2.804  14.548
10424SOL    HW233105   4.290   2.756  14.687
10425SOL     OW33106   8.430   0.677   7.928
10425SOL    HW133107   8.458   0.656   8.018
10425SOL    HW233108   8.508   0.709   7.885
10426SOL     OW33109  11.473   7.916   6.429
10426SOL    HW133110  11.456   7.985   6.365
10426SOL    HW233111  11.386   7.883   6.452
10427SOL     OW33112   8.063   0.222  13.029
10427SOL    HW133113   8.062   0.293  12.965
10427SOL    HW233114   8.038   0.264  13.112
10428SOL     OW33115   9.221  10.564   9.744
10428SOL    HW133116   9.271  10.643   9.722
10428SOL    HW233117   9.274  10.519   9.809
10429SOL     OW33118  10.804   5.865   4.947
10429SOL    HW133119  10.725   5.839   4.994
10429SOL    HW233120  10.868   5.883   5.015
10430SOL     OW33121  12.389   4.401  14.852
10430SOL    HW133122  12.422   4.491  14.854
10430SOL    HW233123  12.295   4.411  14.839
10431SOL     OW33124   9.389   2.378   7.329
10431SOL    HW133125   9.323   2.349   7.392
10431SOL    HW233126   9.466   2.325   7.349
10432SOL     OW33127   4.410   0.643   0.364
10432SOL    HW133128   4.436   0.593   0.287
10432SOL    HW233129   4.492   0.665   0.408
10433SOL     OW33130   0.011   2.482  11.126
10433SOL    HW133131  14.846   2.566  11.143
10433SOL    HW233132  14.827   2.438  11.066
10434SOL     OW33133   3.490  11.496   2.313
10434SOL    HW133134   3.573  11.467   2.351
10434SOL    HW233135   3.490  11.459   2.225
10435SOL     OW33136   8.319   7.713   8.706
10435SOL    HW133137   8.293   7.622   8.690
10435SOL    HW233138   8.300   7.757   8.624
10436SOL     OW33139  12.689  11.795   0.769
10436SOL    HW133140  12.653  11.878   0.737
10436SOL    HW233141  12.751  11.821   0.837
10437SOL     OW33142   4.555   8.866  12.123
10437SOL    HW133143   4.508   8.851  12.205
10437SOL    HW233144   4.637   8.906  12.150
10438SOL     OW33145   0.480   5.844   4.099
10438SOL    HW133146   0.561   5.891   4.120
10438SOL    HW233147   0.440   5.895   4.029
10439SOL     OW33148   6.922   6.580   7.355
10439SOL    HW133149   6.923   6.632   7.435
10439SOL    HW233150   6.899   6.491   7.384
10440SOL     OW33151   0.230  10.891   1.528
10440SOL    HW133152   0.273  10.847   1.602
10440SOL    HW233153   0.137  10.867   1.537
10441SOL     OW33154   9.170   4.144  13.762
10441SOL    HW133155   9.130   4.109  13.841
10441SOL    HW233156   9.256   4.176  13.790
10442SOL     OW33157  10.652  13.174   9.525
10442SOL    HW133158  10.692  13.089   9.544
10442SOL    HW233159  10.711  13.214   9.461
10443SOL     OW33160  11.870  10.687  11.728
10443SOL    HW133161  11.791  10.709  11.678
10443SOL    HW233162  11.869  10.591  11.732
10444SOL     OW33163  12.550   5.452   8.836
10444SOL    HW133164  12.566   5.392   8.763
10444SOL    HW233165  12.636   5.488   8.857
10445SOL     OW33166   4.548  12.952   6.683
10445SOL    HW133167   4.576  12.933   6.773
10445SOL    HW233168   4.605  13.024   6.656
10446SOL     OW33169   5.165  10.893   5.932
10446SOL    HW133170   5.145  10.805   5.898
10446SOL    HW233171   5.247  10.917   5.889
10447SOL     OW33172   7.738   9.225   6.955
10447SOL    HW133173   7.830   9.249   6.950
10447SOL    HW233174   7.734   9.154   7.019
10448SOL     OW33175  13.471   7.168   7.503
10448SOL    HW133176  13.393   7.222   7.504
10448SOL    HW233177  13.525   7.204   7.433
10449SOL     OW33178   4.065  11.263  12.805
10449SOL    HW133179   4.037  11.318  12.878
10449SOL    HW233180   4.066  11.174  12.842
10450SOL     OW33181   9.784   6.355  11.898
10450SOL    HW133182   9.689   6.349  11.894
10450SOL    HW233183   9.814   6.265  11.909
10451SOL     OW33184   2.343   1.994   3.309
10451SOL    HW133185   2.335   2.019   3.217
10451SOL    HW233186   2.283   2.053   3.355
10452SOL     OW33187   1.636   1.095  10.269
10452SOL    HW133188   1.694   1.027  10.235
10452SOL    HW233189   1.591   1.052  10.342
10453SOL     OW33190   9.201  12.877   9.912
10453SOL    HW133191   9.187  12.972   9.906
10453SOL    HW233192   9.168  12.854   9.999
10454SOL     OW33193   7.506   0.552  11.186
10454SOL    HW133194   7.453   0.526  11.111
10454SOL    HW233195   7.581   0.494  11.184
10455SOL     OW33196   7.405   8.615   2.911
10455SOL    HW133197   7.492   8.635   2.947
10455SOL    HW233198   7.380   8.533   2.953
10456SOL     OW33199   4.673   4.011  10.580
10456SOL    HW133200   4.698   4.030  10.490
10456SOL    HW233201   4.694   4.091  10.628
10457SOL     OW33202   9.821   6.219   6.609
10457SOL    HW133203   9.761   6.149   6.635
10457SOL    HW233204   9.816   6.220   6.513
10458SOL     OW33205  12.443   4.165   0.886
10458SOL    HW133206  12.421   4.256   0.907
10458SOL    HW233207  12.374   4.113   0.927
10459SOL     OW33208   5.049   5.376   9.634
10459SOL    HW133209   5.110   5.379   9.561
10459SOL    HW233210   4.985   5.309   9.610
10460SOL     OW33211   0.616   4.161   8.830
10460SOL    HW133212   0.659   4.207   8.903
10460SOL    HW233213   0.605   4.071   8.863
10461SOL     OW33214   8.399   3.595   5.856
10461SOL    HW133215   8.431   3.604   5.945
10461SOL    HW233216   8.401   3.501   5.838
10462SOL     OW33217   6.177   2.219   8.969
10462SOL    HW133218   6.221   2.180   8.893
10462SOL    HW233219   6.248   2.254   9.023
10463SOL     OW33220  11.052  10.533  10.550
10463SOL    HW133221  11.014  10.563  10.633
10463SOL    HW233222  10.987  10.473  10.514
10464SOL     OW33223   8.873   9.274   7.523
10464SOL    HW133224   8.782   9.243   7.518
10464SOL    HW233225   8.870   9.361   7.482
10465SOL     OW33226  11.360   1.339  12.497
10465SOL    HW133227  11.285   1.386  12.460
10465SOL    HW233228  11.387   1.279  12.427
10466SOL     OW33229  10.266   6.036   9.403
10466SOL    HW133230  10.293   6.012   9.492
10466SOL    HW233231  10.345   6.074   9.364
10467SOL     OW33232   1.092   8.056  11.659
10467SOL    HW133233   1.159   8.050  11.727
10467SOL    HW233234   1.070   7.965  11.639
10468SOL     OW33235  11.732   2.300  14.697
10468SOL    HW133236  11.690   2.214  14.692
10468SOL    HW233237  11.825   2.281  14.692
10469SOL     OW33238  10.630  10.496   7.889
10469SOL    HW133239  10.535  10.501   7.880
10469SOL    HW233240  10.663  10.523   7.804
10470SOL     OW33241   0.894   3.079   5.472
10470SOL    HW133242   0.948   3.129   5.533
10470SOL    HW233243   0.954   3.016   5.432
10471SOL     OW33244   8.067   8.253   9.168
10471SOL    HW133245   8.034   8.242   9.079
10471SOL    HW233246   7.997   8.221   9.224
10472SOL     OW33247   8.421   7.466   6.679
10472SOL    HW133248   8.452   7.398   6.738
10472SOL    HW233249   8.326   7.454   6.676
10473SOL     OW33250   8.409   8.426  11.724
10473SOL    HW133251   8.354   8.503  11.716
10473SOL    HW233252   8.418   8.412  11.818
10474SOL     OW33253  11.788   7.715   1.334
10474SOL    HW133254  11.743   7.777   1.277
10474SOL    HW233255  11.718   7.668   1.380
10475SOL     OW33256   4.215  14.658   6.455
10475SOL    HW133257   4.168  14.576   6.444
10475SOL    HW233258   4.300  14.643   6.413
10476SOL     OW33259   3.603   6.363   1.449
10476SOL    HW133260   3.695   6.378   1.469
10476SOL    HW233261   3.571   6.447   1.417
10477SOL     OW33262   8.431  13.017  10.691
10477SOL    HW133263   8.487  13.043  10.765
10477SOL    HW233264   8.351  13.068  10.702
10478SOL     OW33265  14.736   2.449   3.870
10478SOL    HW133266  14.692   2.402   3.941
10478SOL    HW233267  14.777   2.524   3.912
10479SOL     OW33268   0.116  10.590   2.123
10479SOL    HW133269   0.123  10.682   2.097
10479SOL    HW233270   0.024  10.580   2.149
10480SOL     OW33271   2.366   7.870   9.325
10480SOL    HW133272   2.425   7.940   9.352
10480SOL    HW233273   2.360   7.812   9.401
10481SOL     OW33274   5.827  12.807   7.135
10481SOL    HW133275   5.770  12.875   7.098
10481SOL    HW233276   5.824  12.736   7.070
10482SOL     OW33277  10.984   3.306  14.066
10482SOL    HW133278  11.059   3.267  14.112
10482SOL    HW233279  11.000   3.286  13.974
10483SOL     OW33280   8.579   0.832   4.684
10483SOL    HW133281   8.504   0.788   4.725
10483SOL    HW233282   8.560   0.828   4.590
10484SOL     OW33283   8.106   7.314  10.450
10484SOL    HW133284   8.073   7.232  10.489
10484SOL    HW233285   8.171   7.285  10.386
10485SOL     OW33286   4.279   1.063   8.666
10485SOL    HW133287   4.276   1.129   8.596
10485SOL    HW233288   4.201   1.009   8.652
10486SOL     OW33289  12.580   5.738   6.000
10486SOL    HW133290  12.566   5.805   5.933
10486SOL    HW233291  12.651   5.772   6.053
10487SOL     OW33292  10.016  13.840   0.989
10487SOL    HW133293   9.981  13.756   0.961
10487SOL    HW233294   9.989  13.902   0.921
10488SOL     OW33295   1.955   8.453   9.799
10488SOL    HW133296   1.968   8.486   9.710
10488SOL    HW233297   2.000   8.517   9.854
10489SOL     OW33298   4.262  13.318   0.334
10489SOL    HW133299   4.265  13.369   0.253
10489SOL    HW233300   4.348  13.276   0.339
10490SOL     OW33301  10.319   2.668   3.971
10490SOL    HW133302  10.315   2.616   4.051
10490SOL    HW233303  10.412   2.689   3.960
10491SOL     OW33304  10.143   8.542  13.677
10491SOL    HW133305  10.077   8.487  13.719
10491SOL    HW233306  10.109   8.631  13.686
10492SOL     OW33307   5.131   6.036   6.944
10492SOL    HW133308   5.215   6.017   6.903
10492SOL    HW233309   5.153   6.080   7.026
10493SOL     OW33310   5.706  13.884   6.210
10493SOL    HW133311   5.726  13.948   6.141
10493SOL    HW233312   5.644  13.929   6.267
10494SOL     OW33313  11.720  12.506   0.005
10494SOL    HW133314  11.769  12.552  14.813
10494SOL    HW233315  11.632  12.543   0.002
10495SOL     OW33316   5.914   6.342   1.829
10495SOL    HW133317   5.924   6.433   1.855
10495SOL    HW233318   5.857   6.346   1.752
10496SOL     OW33319   8.028   8.536   1.409
10496SOL    HW133320   7.972   8.578   1.344
10496SOL    HW233321   7.998   8.445   1.411
10497SOL     OW33322   7.797  13.653  13.813
10497SOL    HW133323   7.769  13.732  13.768
10497SOL    HW233324   7.783  13.583  13.749
10498SOL     OW33325  10.701   1.622   1.506
10498SOL    HW133326  10.671   1.588   1.591
10498SOL    HW233327  10.785   1.665   1.525
10499SOL     OW33328   0.616   1.484   7.521
10499SOL    HW133329   0.635   1.538   7.444
10499SOL    HW233330   0.644   1.536   7.596
10500SOL     OW33331  11.370   4.581   7.878
10500SOL    HW133332  11.426   4.521   7.927
10500SOL    HW233333  11.386   4.667   7.916
10501SOL     OW33334   1.819   7.876   5.702
10501SOL    HW133335   1.888   7.910   5.758
10501SOL    HW233336   1.823   7.932   5.624
10502SOL     OW33337   7.652  12.988  12.272
10502SOL    HW133338   7.596  13.026  12.204
10502SOL    HW233339   7.669  12.898  12.242
10503SOL     OW33340   9.583   2.283   5.051
10503SOL    HW133341   9.569   2.242   5.136
10503SOL    HW233342   9.519   2.242   4.994
10504SOL     OW33343  14.615   9.397   7.460
10504SOL    HW133344  14.556   9.323   7.455
10504SOL    HW233345  14.670   9.379   7.536
10505SOL     OW33346  12.506   9.458   3.028
10505SOL    HW133347  12.505   9.400   2.952
10505SOL    HW233348  12.527   9.544   2.992
10506SOL     OW33349   6.365   3.779  13.973
10506SOL    HW133350   6.287   3.791  13.920
10506SOL    HW233351   6.388   3.687  13.960
10507SOL     OW33352   1.507   8.412   3.347
10507SOL    HW133353   1.533   8.344   3.285
10507SOL    HW233354   1.538   8.494   3.309
10508SOL     OW33355  11.560   7.355   9.410
10508SOL    HW133356  11.620   7.302   9.358
10508SOL    HW233357  11.482   7.301   9.419
10509SOL     OW33358  14.651   2.519   1.350
10509SOL    HW133359  14.636   2.602   1.397
10509SOL    HW233360  14.567   2.473   1.355
10510SOL     OW33361  14.702   1.218   5.669
10510SOL    HW133362  14.742   1.197   5.585
10510SOL    HW233363  14.776   1.237   5.727
10511SOL     OW33364   8.916  10.856   1.105
10511SOL    HW133365   8.970  10.867   1.183
10511SOL    HW233366   8.949  10.921   1.043
10512SOL     OW33367   2.284   6.605   1.687
10512SOL    HW133368   2.378   6.591   1.678
10512SOL    HW233369   2.275   6.658   1.766
10513SOL     OW33370  11.329   7.405  11.897
10513SOL    HW133371  11.281   7.406  11.814
10513SOL    HW233372  11.352   7.496  11.913
10514SOL     OW33373  14.526   4.438   6.050
10514SOL    HW133374  14.455   4.503   6.058
10514SOL    HW233375  14.605   4.491   6.037
10515SOL     OW33376   4.065   1.759   6.851
10515SOL    HW133377   3.972   1.751   6.831
10515SOL    HW233378   4.097   1.668   6.853
10516SOL     OW33379  10.491   2.128   2.023
10516SOL    HW133380  10.511   2.185   2.097
10516SOL    HW233381  10.558   2.059   2.027
10517SOL     OW33382   1.301  11.000   9.407
10517SOL    HW133383   1.294  11.094   9.393
10517SOL    HW233384   1.215  10.965   9.382
10518SOL     OW33385   5.918   0.239   7.460
10518SOL    HW133386   6.000   0.195   7.441
10518SOL    HW233387   5.893   0.281   7.378
10519SOL     OW33388   8.746   9.737  10.390
10519SOL    HW133389   8.729   9.818  10.342
10519SOL    HW233390   8.736   9.668  10.324
10520SOL     OW33391   0.588  10.181  13.027
10520SOL    HW133392   0.536  10.146  12.955
10520SOL    HW233393   0.647  10.243  12.985
10521SOL     OW33394   2.044   3.693   1.984
10521SOL    HW133395   2.072   3.753   2.054
10521SOL    HW233396   2.125   3.672   1.937
10522SOL     OW33397   2.677   1.308  13.155
10522SOL    HW133398   2.614   1.275  13.091
10522SOL    HW233399   2.754   1.254  13.144
10523SOL     OW33400   8.586  12.258   4.955
10523SOL    HW133401   8.605  12.191   4.890
10523SOL    HW233402   8.671  12.299   4.973
10524SOL     OW33403   6.865   5.368   8.711
10524SOL    HW133404   6.927   5.320   8.656
10524SOL    HW233405   6.795   5.394   8.651
10525SOL     OW33406   5.429   7.995  12.576
10525SOL    HW133407   5.472   8.039  12.504
10525SOL    HW233408   5.336   8.016  12.565
10526SOL     OW33409   2.851   7.582   1.254
10526SOL    HW133410   2.826   7.517   1.188
10526SOL    HW233411   2.799   7.559   1.331
10527SOL     OW33412   8.194   8.385   4.569
10527SOL    HW133413   8.244   8.325   4.624
10527SOL    HW233414   8.171   8.333   4.492
10528SOL     OW33415   0.777   4.829   6.679
10528SOL    HW133416   0.828   4.866   6.751
10528SOL    HW233417   0.750   4.743   6.711
10529SOL     OW33418  13.742   5.729  14.224
10529SOL    HW133419  13.779   5.789  14.288
10529SOL    HW233420  13.815   5.673  14.199
10530SOL     OW33421  12.321   9.850  13.805
10530SOL    HW133422  12.264   9.821  13.876
10530SOL    HW233423  12.405   9.867  13.848
10531SOL     OW33424  12.541  14.740  11.451
10531SOL    HW133425  12.495  14.793  11.386
10531SOL    HW233426  12.627  14.724  11.412
10532SOL     OW33427  10.088   2.225   2.826
10532SOL    HW133428  10.173   2.182   2.813
10532SOL    HW233429  10.061   2.200   2.914
10533SOL     OW33430  14.342   9.645  13.123
10533SOL    HW133431  14.276   9.675  13.185
10533SOL    HW233432  14.371   9.560  13.156
10534SOL     OW33433  13.531   2.531   6.633
10534SOL    HW133434  13.537   2.450   6.582
10534SOL    HW233435  13.444   2.527   6.673
10535SOL     OW33436   2.862   6.289   9.423
10535SOL    HW133437   2.807   6.242   9.486
10535SOL    HW233438   2.819   6.276   9.339
10536SOL     OW33439   5.598   3.047   9.837
10536SOL    HW133440   5.665   2.982   9.816
10536SOL    HW233441   5.618   3.121   9.780
10537SOL     OW33442  12.245   2.204   4.812
10537SOL    HW133443  12.250   2.249   4.896
10537SOL    HW233444  12.314   2.245   4.759
10538SOL     OW33445  10.963  10.900   9.249
10538SOL    HW133446  10.899  10.831   9.264
10538SOL    HW233447  11.047  10.861   9.272
10539SOL     OW33448  12.855  12.241   0.056
10539SOL    HW133449  12.881  12.192  14.855
10539SOL    HW233450  12.785  12.188   0.096
10540SOL     OW33451   3.146   2.689   5.048
10540SOL    HW133452   3.151   2.711   5.141
10540SOL    HW233453   3.141   2.593   5.047
10541SOL     OW33454   5.563  12.161  11.556
10541SOL    HW133455   5.598  12.225  11.494
10541SOL    HW233456   5.633  12.150  11.621
10542SOL     OW33457   1.069   9.139   5.808
10542SOL    HW133458   1.117   9.058   5.791
10542SOL    HW233459   1.129   9.209   5.780
10543SOL     OW33460   7.004  10.576   3.457
10543SOL    HW133461   6.914  10.563   3.428
10543SOL    HW233462   7.053  10.595   3.377
10544SOL     OW33463   9.382  10.748   9.651
10544SOL    HW133464   9.435  10.805   9.707
10544SOL    HW233465   9.428  10.749   9.567
10545SOL     OW33466  10.612   7.122   9.158
10545SOL    HW133467  10.544   7.059   9.132
10545SOL    HW233468  10.563   7.196   9.192
10546SOL     OW33469   3.668   7.889   7.201
10546SOL    HW133470   3.753   7.926   7.225
10546SOL    HW233471   3.648   7.928   7.116
10547SOL     OW33472   7.257  10.841   7.316
10547SOL    HW133473   7.193  10.886   7.371
10547SOL    HW233474   7.317  10.800   7.378
10548SOL     OW33475  10.011  13.032  12.378
10548SOL    HW133476   9.990  13.105  12.319
10548SOL    HW233477   9.986  12.954  12.329
10549SOL     OW33478  14.076   8.118   4.382
10549SOL    HW133479  14.115   8.105   4.295
10549SOL    HW233480  14.119   8.053   4.437
10550SOL     OW33481   5.631  11.128   9.505
10550SOL    HW133482   5.552  11.085   9.472
10550SOL    HW233483   5.680  11.058   9.548
10551SOL     OW33484   7.941   1.430  11.388
10551SOL    HW133485   8.017   1.380  11.359
10551SOL    HW233486   7.878   1.363  11.416
10552SOL     OW33487  14.232  14.076  12.486
10552SOL    HW133488  14.201  14.068  12.576
10552SOL    HW233489  14.230  14.170  12.469
10553SOL     OW33490   6.805   0.805   3.010
10553SOL    HW133491   6.715   0.792   3.040
10553SOL    HW233492   6.849   0.851   3.082
10554SOL     OW33493  13.606  14.645  10.885
10554SOL    HW133494  13.553  14.566  10.894
10554SOL    HW233495  13.658  14.649  10.965
10555SOL     OW33496   1.428   5.796   0.071
10555SOL    HW133497   1.364   5.851   0.026
10555SOL    HW233498   1.378   5.753   0.141
10556SOL     OW33499  14.390   3.236   7.909
10556SOL    HW133500  14.326   3.262   7.975
10556SOL    HW233501  14.337   3.203   7.836
10557SOL     OW33502   5.516  12.214   7.085
10557SOL    HW133503   5.525  12.119   7.089
10557SOL    HW233504   5.437  12.229   7.032
10558SOL     OW33505   6.275   6.050  11.157
10558SOL    HW133506   6.371   6.050  11.151
10558SOL    HW233507   6.255   5.991  11.229
10559SOL     OW33508   0.766   0.188   8.730
10559SOL    HW133509   0.745   0.215   8.640
10559SOL    HW233510   0.765   0.270   8.780
10560SOL     OW33511   0.041  10.986   6.734
10560SOL    HW133512   0.102  11.013   6.803
10560SOL    HW233513   0.097  10.943   6.669
10561SOL     OW33514   8.758   7.910   3.254
10561SOL    HW133515   8.690   7.907   3.320
10561SOL    HW233516   8.713   7.895   3.171
10562SOL     OW33517  10.740   5.298   5.559
10562SOL    HW133518  10.701   5.259   5.638
10562SOL    HW233519  10.822   5.251   5.547
10563SOL     OW33520   9.076  14.028   2.750
10563SOL    HW133521   8.985  14.029   2.720
10563SOL    HW233522   9.120  14.096   2.699
10564SOL     OW33523   3.683  10.382  14.258
10564SOL    HW133524   3.734  10.381  14.177
10564SOL    HW233525   3.634  10.300  14.257
10565SOL     OW33526  14.306   9.079   8.336
10565SOL    HW133527  14.263   9.155   8.375
10565SOL    HW233528  14.241   9.010   8.337
10566SOL     OW33529   6.225   8.671   3.072
10566SOL    HW133530   6.308   8.710   3.044
10566SOL    HW233531   6.176   8.659   2.990
10567SOL     OW33532   2.367   2.433  10.430
10567SOL    HW133533   2.322   2.460  10.510
10567SOL    HW233534   2.453   2.404  10.459
10568SOL     OW33535   3.828   9.016   3.106
10568SOL    HW133536   3.871   9.101   3.100
10568SOL    HW233537   3.900   8.952   3.098
10569SOL     OW33538   4.138  11.970  14.582
10569SOL    HW133539   4.233  11.957  14.573
10569SOL    HW233540   4.112  11.911  14.652
10570SOL     OW33541   6.914   7.349  13.393
10570SOL    HW133542   6.977   7.420  13.382
10570SOL    HW233543   6.829   7.393  13.395
10571SOL     OW33544   9.492   8.528   3.746
10571SOL    HW133545   9.544   8.602   3.777
10571SOL    HW233546   9.464   8.554   3.658
10572SOL     OW33547   4.761   9.779  11.876
10572SOL    HW133548   4.807   9.863  11.879
10572SOL    HW233549   4.677   9.796  11.919
10573SOL     OW33550   9.433   5.446  13.496
10573SOL    HW133551   9.523   5.477  13.503
10573SOL    HW233552   9.418   5.395  13.576
10574SOL     OW33553   1.223   5.879   7.686
10574SOL    HW133554   1.200   5.972   7.679
10574SOL    HW233555   1.180   5.849   7.766
10575SOL     OW33556  11.051   3.164  11.217
10575SOL    HW133557  11.067   3.194  11.128
10575SOL    HW233558  10.969   3.207  11.243
10576SOL     OW33559   7.858   0.444   3.977
10576SOL    HW133560   7.896   0.531   3.981
10576SOL    HW233561   7.803   0.438   4.055
10577SOL     OW33562  12.174   8.964   5.065
10577SOL    HW133563  12.230   8.926   4.997
10577SOL    HW233564  12.210   9.052   5.079
10578SOL     OW33565   1.914   9.079   3.157
10578SOL    HW133566   1.962   9.099   3.076
10578SOL    HW233567   1.856   9.154   3.169
10579SOL     OW33568  10.541   4.805  12.762
10579SOL    HW133569  10.549   4.878  12.824
10579SOL    HW233570  10.503   4.734  12.813
10580SOL     OW33571   6.319   4.284   1.893
10580SOL    HW133572   6.252   4.346   1.865
10580SOL    HW233573   6.351   4.319   1.976
10581SOL     OW33574  13.308   6.671   8.730
10581SOL    HW133575  13.239   6.610   8.755
10581SOL    HW233576  13.315   6.662   8.635
10582SOL     OW33577  14.447   0.418  13.530
10582SOL    HW133578  14.534   0.413  13.490
10582SOL    HW233579  14.446   0.504  13.572
10583SOL     OW33580  10.283  11.430   8.771
10583SOL    HW133581  10.250  11.476   8.848
10583SOL    HW233582  10.375  11.413   8.790
10584SOL     OW33583  12.002   1.207  11.585
10584SOL    HW133584  12.075   1.241  11.533
10584SOL    HW233585  11.977   1.126  11.539
10585SOL     OW33586   8.355   8.308   8.010
10585SOL    HW133587   8.383   8.326   7.920
10585SOL    HW233588   8.428   8.334   8.065
10586SOL     OW33589   6.386   8.309  12.701
10586SOL    HW133590   6.323   8.245  12.669
10586SOL    HW233591   6.416   8.272  12.785
10587SOL     OW33592   4.076   6.795   9.822
10587SOL    HW133593   4.171   6.812   9.820
10587SOL    HW233594   4.064   6.726   9.756
10588SOL     OW33595   1.965   2.745   1.061
10588SOL    HW133596   1.886   2.703   1.094
10588SOL    HW233597   1.935   2.804   0.993
10589SOL     OW33598   4.116  10.425  13.459
10589SOL    HW133599   4.064  10.504  13.476
10589SOL    HW233600   4.059  10.371  13.404
10590SOL     OW33601  12.848   9.878  12.110
10590SOL    HW133602  12.922   9.827  12.077
10590SOL    HW233603  12.822   9.933  12.036
10591SOL     OW33604  11.718   8.142  13.645
10591SOL    HW133605  11.657   8.208  13.676
10591SOL    HW233606  11.666   8.062  13.637
10592SOL     OW33607   7.777   8.703  10.819
10592SOL    HW133608   7.861   8.665  10.843
10592SOL    HW233609   7.716   8.674  10.886
10593SOL     OW33610   8.707   2.180  11.368
10593SOL    HW133611   8.761   2.206  11.443
10593SOL    HW233612   8.742   2.095  11.342
10594SOL     OW33613   9.285   6.005   1.474
10594SOL    HW133614   9.375   5.982   1.450
10594SOL    HW233615   9.243   6.029   1.392
10595SOL     OW33616   9.586   6.343  14.758
10595SOL    HW133617   9.622   6.402  14.692
10595SOL    HW233618   9.564   6.263  14.711
10596SOL     OW33619   8.336  10.045   4.296
10596SOL    HW133620   8.389  10.100   4.239
10596SOL    HW233621   8.287   9.989   4.236
10597SOL     OW33622   1.157   7.895  13.675
10597SOL    HW133623   1.176   7.923  13.585
10597SOL    HW233624   1.235   7.846  13.701
10598SOL     OW33625  11.197  12.635   0.783
10598SOL    HW133626  11.235  12.617   0.697
10598SOL    HW233627  11.257  12.596   0.846
10599SOL     OW33628   8.116   0.678   7.096
10599SOL    HW133629   8.125   0.737   7.170
10599SOL    HW233630   8.157   0.596   7.125
10600SOL     OW33631   6.604  12.061   4.403
10600SOL    HW133632   6.617  11.995   4.335
10600SOL    HW233633   6.681  12.053   4.460
10601SOL     OW33634   1.557  12.656  10.234
10601SOL    HW133635   1.647  12.647  10.266
10601SOL    HW233636   1.529  12.742  10.264
10602SOL     OW33637  10.164   9.993  11.657
10602SOL    HW133638  10.197  10.037  11.578
10602SOL    HW233639  10.243   9.963  11.702
10603SOL     OW33640  12.254  12.746   9.380
10603SOL    HW133641  12.235  12.806   9.453
10603SOL    HW233642  12.274  12.803   9.306
10604SOL     OW33643   1.363   8.965   3.894
10604SOL    HW133644   1.331   9.053   3.912
10604SOL    HW233645   1.454   8.978   3.867
10605SOL     OW33646  12.821  11.200   1.979
10605SOL    HW133647  12.908  11.182   2.015
10605SOL    HW233648  12.768  11.125   2.008
10606SOL     OW33649   2.058   0.530  12.530
10606SOL    HW133650   2.125   0.596  12.513
10606SOL    HW233651   2.098   0.472  12.595
10607SOL     OW33652   2.907   2.025   8.056
10607SOL    HW133653   2.985   2.015   8.111
10607SOL    HW233654   2.936   2.080   7.984
10608SOL     OW33655   2.683   6.899   7.360
10608SOL    HW133656   2.737   6.929   7.434
10608SOL    HW233657   2.615   6.966   7.351
10609SOL     OW33658   2.416  10.374  14.476
10609SOL    HW133659   2.490  10.315  14.487
10609SOL    HW233660   2.451  10.449  14.429
10610SOL     OW33661  14.493  12.752  13.964
10610SOL    HW133662  14.490  12.657  13.977
10610SOL    HW233663  14.575  12.778  14.007
10611SOL     OW33664   3.104   6.690   2.090
10611SOL    HW133665   3.170   6.719   2.153
10611SOL    HW233666   3.127   6.599   2.071
10612SOL     OW33667   1.410   7.798  13.697
10612SOL    HW133668   1.497   7.763  13.679
10612SOL    HW233669   1.408   7.882  13.651
10613SOL     OW33670   3.990   0.586   8.456
10613SOL    HW133671   4.077   0.603   8.492
10613SOL    HW233672   4.006   0.535   8.377
10614SOL     OW33673  14.174   6.152  10.474
10614SOL    HW133674  14.256   6.155  10.426
10614SOL    HW233675  14.109   6.190  10.414
10615SOL     OW33676  14.475   2.198   8.024
10615SOL    HW133677  14.431   2.128   7.976
10615SOL    HW233678  14.516   2.154   8.098
10616SOL     OW33679   5.537   6.475   2.625
10616SOL    HW133680   5.491   6.401   2.663
10616SOL    HW233681   5.512   6.474   2.532
10617SOL     OW33682   8.935   0.268   0.338
10617SOL    HW133683   8.956   0.245   0.248
10617SOL    HW233684   8.843   0.296   0.336
10618SOL     OW33685   0.632  10.206   0.038
10618SOL    HW133686   0.646  10.300   0.027
10618SOL    HW233687   0.537  10.195   0.039
10619SOL     OW33688  12.776  13.733  13.159
10619SOL    HW133689  12.711  13.725  13.089
10619SOL    HW233690  12.851  13.683  13.127
10620SOL     OW33691  12.611  14.500  13.413
10620SOL    HW133692  12.685  14.509  13.473
10620SOL    HW233693  12.546  14.451  13.463
10621SOL     OW33694   9.937   0.511   0.226
10621SOL    HW133695   9.966   0.472   0.308
10621SOL    HW233696   9.975   0.599   0.226
10622SOL     OW33697   1.765  13.951  13.618
10622SOL    HW133698   1.766  13.888  13.689
10622SOL    HW233699   1.740  14.034  13.659
10623SOL     OW33700  11.827   2.762  10.161
10623SOL    HW133701  11.815   2.853  10.133
10623SOL    HW233702  11.739   2.732  10.182
10624SOL     OW33703  10.371   8.825  14.480
10624SOL    HW133704  10.454   8.872  14.471
10624SOL    HW233705  10.378   8.753  14.418
10625SOL     OW33706  14.109   4.671  10.687
10625SOL    HW133707  14.150   4.752  10.716
10625SOL    HW233708  14.176   4.627  10.635
10626SOL     OW33709   9.950   3.203   4.211
10626SOL    HW133710  10.016   3.249   4.159
10626SOL    HW233711   9.875   3.194   4.151
10627SOL     OW33712  12.037   2.693   7.565
10627SOL    HW133713  12.020   2.631   7.494
10627SOL    HW233714  12.126   2.673   7.594
10628SOL     OW33715   5.653  12.504   5.082
10628SOL    HW133716   5.705  12.575   5.120
10628SOL    HW233717   5.579  12.494   5.142
10629SOL     OW33718  13.729   3.525  13.857
10629SOL    HW133719  13.728   3.619  13.841
10629SOL    HW233720  13.810   3.510  13.906
10630SOL     OW33721   2.243  11.167  13.563
10630SOL    HW133722   2.240  11.226  13.638
10630SOL    HW233723   2.331  11.130  13.564
10631SOL     OW33724  10.047   1.453   0.968
10631SOL    HW133725  10.070   1.508   1.043
10631SOL    HW233726  10.120   1.391   0.961
10632SOL     OW33727  11.830  13.550   5.786
10632SOL    HW133728  11.752  13.606   5.783
10632SOL    HW233729  11.829  13.512   5.874
10633SOL     OW33730  11.239   7.828   3.520
10633SOL    HW133731  11.228   7.848   3.613
10633SOL    HW233732  11.210   7.737   3.512
10634SOL     OW33733   7.033  11.390   3.807
10634SOL    HW133734   7.122  11.355   3.804
10634SOL    HW233735   6.977  11.313   3.815
10635SOL     OW33736  13.306   1.988   6.760
10635SOL    HW133737  13.359   1.935   6.700
10635SOL    HW233738  13.369   2.028   6.819
10636SOL     OW33739   5.107  10.668   4.291
10636SOL    HW133740   5.082  10.759   4.279
10636SOL    HW233741   5.035  10.629   4.341
10637SOL     OW33742   7.595   4.527   4.470
10637SOL    HW133743   7.621   4.529   4.562
10637SOL    HW233744   7.587   4.619   4.445
10638SOL     OW33745  11.127  13.812   7.539
10638SOL    HW133746  11.129  13.793   7.633
10638SOL    HW233747  11.116  13.907   7.534
10639SOL     OW33748  10.799  13.372  12.978
10639SOL    HW133749  10.850  13.333  12.906
10639SOL    HW233750  10.865  13.397  13.043
10640SOL     OW33751  11.979  14.471   2.049
10640SOL    HW133752  12.060  14.432   2.082
10640SOL    HW233753  12.003  14.562   2.028
10641SOL     OW33754  11.304   6.605  12.641
10641SOL    HW133755  11.213   6.604  12.673
10641SOL    HW233756  11.344   6.528  12.682
10642SOL     OW33757   9.414   5.805  10.153
10642SOL    HW133758   9.319   5.801  10.164
10642SOL    HW233759   9.427   5.818  10.059
10643SOL     OW33760  10.707   6.610   2.586
10643SOL    HW133761  10.774   6.665   2.546
10643SOL    HW233762  10.750   6.571   2.662
10644SOL     OW33763   3.593  13.527   1.590
10644SOL    HW133764   3.666  13.514   1.530
10644SOL    HW233765   3.619  13.604   1.642
10645SOL     OW33766   9.518   9.124   7.537
10645SOL    HW133767   9.460   9.200   7.544
10645SOL    HW233768   9.491   9.067   7.609
10646SOL     OW33769   4.236   9.737   1.895
10646SOL    HW133770   4.326   9.750   1.925
10646SOL    HW233771   4.243   9.674   1.823
10647SOL     OW33772   5.851   0.134  11.626
10647SOL    HW133773   5.872   0.049  11.665
10647SOL    HW233774   5.760   0.150  11.652
10648SOL     OW33775   6.362   8.641  12.693
10648SOL    HW133776   6.275   8.679  12.703
10648SOL    HW233777   6.369   8.577  12.765
10649SOL     OW33778   2.195   4.060   7.620
10649SOL    HW133779   2.191   4.061   7.715
10649SOL    HW233780   2.115   4.016   7.592
10650SOL     OW33781  11.159   1.574  12.094
10650SOL    HW133782  11.246   1.551  12.063
10650SOL    HW233783  11.145   1.663  12.060
10651SOL     OW33784   6.046   1.989   7.802
10651SOL    HW133785   6.021   2.070   7.757
10651SOL    HW233786   6.002   1.919   7.753
10652SOL     OW33787   8.607  10.355   6.402
10652SOL    HW133788   8.574  10.311   6.481
10652SOL    HW233789   8.538  10.418   6.379
10653SOL     OW33790   3.034   6.472   5.473
10653SOL    HW133791   3.020   6.437   5.385
10653SOL    HW233792   3.063   6.562   5.459
10654SOL     OW33793   6.270   6.501   8.177
10654SOL    HW133794   6.320   6.425   8.145
10654SOL    HW233795   6.246   6.548   8.097
10655SOL     OW33796  11.153   1.798   6.054
10655SOL    HW133797  11.166   1.893   6.061
10655SOL    HW233798  11.213   1.761   6.119
10656SOL     OW33799   9.398   9.754   6.021
10656SOL    HW133800   9.396   9.658   6.026
10656SOL    HW233801   9.410   9.772   5.928
10657SOL     OW33802   7.469   3.330  12.038
10657SOL    HW133803   7.504   3.251  12.080
10657SOL    HW233804   7.468   3.396  12.108
10658SOL     OW33805  13.192  13.393   8.179
10658SOL    HW133806  13.171  13.478   8.142
10658SOL    HW233807  13.112  13.364   8.221
10659SOL     OW33808   3.983   0.545  14.801
10659SOL    HW133809   3.948   0.462  14.769
10659SOL    HW233810   4.044   0.573  14.733
10660SOL     OW33811   9.802  13.527   2.701
10660SOL    HW133812   9.728  13.585   2.723
10660SOL    HW233813   9.812  13.471   2.778
10661SOL     OW33814   0.711  14.265   0.326
10661SOL    HW133815   0.722  14.350   0.284
10661SOL    HW233816   0.758  14.203   0.271
10662SOL     OW33817   8.266   8.551  14.294
10662SOL    HW133818   8.268   8.455  14.301
10662SOL    HW233819   8.224   8.580  14.375
10663SOL     OW33820   1.690  13.907  11.015
10663SOL    HW133821   1.661  13.817  11.026
10663SOL    HW233822   1.755  13.920  11.085
10664SOL     OW33823   7.722  12.736  12.064
10664SOL    HW133824   7.712  12.808  12.001
10664SOL    HW233825   7.737  12.659  12.010
10665SOL     OW33826   6.972   3.707   9.870
10665SOL    HW133827   7.064   3.684   9.858
10665SOL    HW233828   6.936   3.712   9.781
10666SOL     OW33829   9.612   3.229   3.230
10666SOL    HW133830   9.619   3.308   3.283
10666SOL    HW233831   9.564   3.167   3.285
10667SOL     OW33832  13.582   9.210   2.718
10667SOL    HW133833  13.624   9.294   2.699
10667SOL    HW233834  13.488   9.226   2.704
10668SOL     OW33835  11.578  14.214  14.499
10668SOL    HW133836  11.600  14.273  14.572
10668SOL    HW233837  11.662  14.176  14.473
10669SOL     OW33838  14.613  10.681   0.114
10669SOL    HW133839  14.622  10.673   0.019
10669SOL    HW233840  14.541  10.622   0.136
10670SOL     OW33841   5.783   4.533   9.204
10670SOL    HW133842   5.752   4.462   9.149
10670SOL    HW233843   5.813   4.600   9.143
10671SOL     OW33844  11.561   7.561   3.621
10671SOL    HW133845  11.519   7.626   3.679
10671SOL    HW233846  11.489   7.506   3.591
10672SOL     OW33847   8.101  14.003   6.636
10672SOL    HW133848   8.153  13.978   6.712
10672SOL    HW233849   8.046  14.075   6.667
10673SOL     OW33850  14.601   4.254   0.699
10673SOL    HW133851  14.670   4.306   0.657
10673SOL    HW233852  14.611   4.273   0.792
10674SOL     OW33853   0.515   7.517  10.963
10674SOL    HW133854   0.538   7.485  10.876
10674SOL    HW233855   0.598   7.547  11.000
10675SOL     OW33856   7.672  10.505   1.466
10675SOL    HW133857   7.598  10.498   1.526
10675SOL    HW233858   7.748  10.519   1.523
10676SOL     OW33859  12.917  10.677   3.246
10676SOL    HW133860  12.844  10.633   3.202
10676SOL    HW233861  12.877  10.719   3.323
10677SOL     OW33862   9.941   4.855   8.423
10677SOL    HW133863  10.028   4.870   8.385
10677SOL    HW233864   9.884   4.917   8.379
10678SOL     OW33865  10.101   2.836  13.067
10678SOL    HW133866  10.138   2.803  13.148
10678SOL    HW233867  10.172   2.830  13.003
10679SOL     OW33868   9.924  13.212   6.215
10679SOL    HW133869   9.908  13.131   6.167
10679SOL    HW233870   9.837  13.237   6.248
10680SOL     OW33871   9.623  10.387  14.744
10680SOL    HW133872   9.571  10.409  14.667
10680SOL    HW233873   9.572  10.420  14.818
10681SOL     OW33874  12.183  14.585  12.833
10681SOL    HW133875  12.101  14.579  12.881
10681SOL    HW233876  12.180  14.512  12.770
10682SOL     OW33877   1.703   0.011  14.825
10682SOL    HW133878   1.785   0.038  14.784
10682SOL    HW233879   1.705   0.049   0.036
10683SOL     OW33880  11.004  12.370  10.908
10683SOL    HW133881  11.084  12.336  10.950
10683SOL    HW233882  11.035  12.441  10.853
10684SOL     OW33883   7.200   0.075  13.559
10684SOL    HW133884   7.195   0.114  13.646
10684SOL    HW233885   7.266   0.126  13.512
10685SOL     OW33886   9.646   4.017  10.699
10685SOL    HW133887   9.597   4.006  10.781
10685SOL    HW233888   9.581   4.052  10.638
10686SOL     OW33889  10.547  10.414   3.953
10686SOL    HW133890  10.595  10.478   4.005
10686SOL    HW233891  10.612  10.347   3.931
10687SOL     OW33892   4.520   9.252   5.387
10687SOL    HW133893   4.545   9.204   5.466
10687SOL    HW233894   4.535   9.344   5.409
10688SOL     OW33895  12.068   4.216  14.557
10688SOL    HW133896  12.009   4.271  14.505
10688SOL    HW233897  12.014   4.142  14.584
10689SOL     OW33898   7.951  10.822   7.099
10689SOL    HW133899   7.943  10.907   7.054
10689SOL    HW233900   7.890  10.828   7.172
10690SOL     OW33901   2.219   2.326   1.658
10690SOL    HW133902   2.266   2.251   1.621
10690SOL    HW233903   2.281   2.364   1.720
10691SOL     OW33904   0.478   6.413  13.149
10691SOL    HW133905   0.488   6.343  13.085
10691SOL    HW233906   0.461   6.368  13.232
10692SOL     OW33907   9.528   8.480   1.498
10692SOL    HW133908   9.478   8.417   1.550
10692SOL    HW233909   9.604   8.431   1.466
10693SOL     OW33910   5.605   2.946   2.104
10693SOL    HW133911   5.681   2.923   2.158
10693SOL    HW233912   5.601   3.041   2.108
10694SOL     OW33913   0.598   9.793  14.751
10694SOL    HW133914   0.538   9.771  14.679
10694SOL    HW233915   0.575   9.732  14.821
10695SOL     OW33916   8.809   2.975  14.372
10695SOL    HW133917   8.875   3.023  14.322
10695SOL    HW233918   8.727   3.022  14.357
10696SOL     OW33919  11.291   4.507   4.373
10696SOL    HW133920  11.235   4.580   4.399
10696SOL    HW233921  11.380   4.540   4.386
10697SOL     OW33922  11.068  14.485  14.521
10697SOL    HW133923  10.978  14.508  14.498
10697SOL    HW233924  11.120  14.514  14.445
10698SOL     OW33925  11.649   6.481   4.126
10698SOL    HW133926  11.691   6.567   4.121
10698SOL    HW233927  11.705   6.423   4.075
10699SOL     OW33928   0.262  10.610   7.562
10699SOL    HW133929   0.310  10.599   7.644
10699SOL    HW233930   0.261  10.523   7.523
10700SOL     OW33931   8.960  13.735   0.177
10700SOL    HW133932   8.891  13.685   0.219
10700SOL    HW233933   8.941  13.826   0.200
10701SOL     OW33934   8.360  13.595  10.870
10701SOL    HW133935   8.296  13.524  10.879
10701SOL    HW233936   8.407  13.597  10.953
10702SOL     OW33937   8.156  10.559   8.361
10702SOL    HW133938   8.117  10.600   8.284
10702SOL    HW233939   8.152  10.465   8.343
10703SOL     OW33940   3.632   9.573   4.215
10703SOL    HW133941   3.601   9.482   4.213
10703SOL    HW233942   3.634   9.599   4.123
10704SOL     OW33943  11.526   5.055   2.983
10704SOL    HW133944  11.442   5.082   3.021
10704SOL    HW233945  11.547   4.972   3.026
10705SOL     OW33946   3.652  10.692   0.161
10705SOL    HW133947   3.658  10.626   0.230
10705SOL    HW233948   3.681  10.773   0.204
10706SOL     OW33949  14.585   0.682   8.511
10706SOL    HW133950  14.676   0.709   8.497
10706SOL    HW233951  14.553   0.661   8.423
10707SOL     OW33952   5.215   1.367   8.807
10707SOL    HW133953   5.271   1.328   8.875
10707SOL    HW233954   5.135   1.391   8.853
10708SOL     OW33955  12.323   0.124  10.010
10708SOL    HW133956  12.382   0.187   9.969
10708SOL    HW233957  12.341   0.041   9.965
10709SOL     OW33958   7.744   0.442  11.142
10709SOL    HW133959   7.823   0.490  11.166
10709SOL    HW233960   7.750   0.434  11.046
10710SOL     OW33961   9.830  14.768   5.442
10710SOL    HW133962   9.921  14.786   5.417
10710SOL    HW233963   9.793  14.854   5.460
10711SOL     OW33964   7.577   6.154  10.423
10711SOL    HW133965   7.531   6.141  10.506
10711SOL    HW233966   7.599   6.247  10.421
10712SOL     OW33967  14.093   5.422   0.160
10712SOL    HW133968  14.074   5.331   0.186
10712SOL    HW233969  14.028   5.442   0.093
10713SOL     OW33970  14.644   4.137   5.350
10713SOL    HW133971  14.582   4.093   5.292
10713SOL    HW233972  14.592   4.165   5.425
10714SOL     OW33973   6.456  13.320   2.656
10714SOL    HW133974   6.368  13.350   2.678
10714SOL    HW233975   6.469  13.346   2.565
10715SOL     OW33976   6.338   9.895   0.940
10715SOL    HW133977   6.412   9.906   1.000
10715SOL    HW233978   6.379   9.893   0.853
10716SOL     OW33979   9.494  10.652   0.298
10716SOL    HW133980   9.465  10.635   0.387
10716SOL    HW233981   9.553  10.580   0.278
10717SOL     OW33982   8.953   9.105  13.432
10717SOL    HW133983   8.954   9.128  13.339
10717SOL    HW233984   9.040   9.068  13.448
10718SOL     OW33985   7.567   3.536   5.789
10718SOL    HW133986   7.553   3.475   5.715
10718SOL    HW233987   7.588   3.619   5.747
10719SOL     OW33988   2.627  12.463  13.922
10719SOL    HW133989   2.608  12.382  13.876
10719SOL    HW233990   2.704  12.499  13.878
10720SOL     OW33991   1.957   2.617   9.941
10720SOL    HW133992   1.917   2.531   9.927
10720SOL    HW233993   1.980   2.647   9.853
10721SOL     OW33994   9.033  10.313  12.983
10721SOL    HW133995   8.948  10.325  13.025
10721SOL    HW233996   9.019  10.244  12.919
10722SOL     OW33997   6.462  13.941   4.594
10722SOL    HW133998   6.460  14.035   4.610
10722SOL    HW233999   6.541  13.927   4.543
10723SOL     OW34000   4.151   5.341  10.716
10723SOL    HW134001   4.111   5.376  10.637
10723SOL    HW234002   4.232   5.301  10.686
10724SOL     OW34003   9.025   8.392   4.510
10724SOL    HW134004   8.975   8.325   4.556
10724SOL    HW234005   8.995   8.475   4.547
10725SOL     OW34006   0.915  13.957   4.327
10725SOL    HW134007   1.000  13.994   4.301
10725SOL    HW234008   0.886  13.907   4.251
10726SOL     OW34009   7.205  14.422   1.656
10726SOL    HW134010   7.153  14.475   1.718
10726SOL    HW234011   7.250  14.486   1.601
10727SOL     OW34012   9.710   5.489   7.208
10727SOL    HW134013   9.719   5.497   7.303
10727SOL    HW234014   9.619   5.460   7.195
10728SOL     OW34015   5.450   0.092   1.523
10728SOL    HW134016   5.370   0.051   1.555
10728SOL    HW234017   5.452   0.072   1.430
10729SOL     OW34018  14.185   7.939   7.659
10729SOL    HW134019  14.172   7.846   7.639
10729SOL    HW234020  14.266   7.962   7.613
10730SOL     OW34021  10.647   0.508   0.240
10730SOL    HW134022  10.620   0.527   0.330
10730SOL    HW234023  10.647   0.593   0.196
10731SOL     OW34024  10.116  12.815  10.012
10731SOL    HW134025  10.082  12.785   9.928
10731SOL    HW234026  10.072  12.761  10.077
10732SOL     OW34027   9.172   5.558  13.453
10732SOL    HW134028   9.260   5.529  13.477
10732SOL    HW234029   9.137   5.598  13.532
10733SOL     OW34030  13.252   2.268   2.853
10733SOL    HW134031  13.345   2.272   2.874
10733SOL    HW234032  13.210   2.239   2.935
10734SOL     OW34033   2.715   0.698  11.995
10734SOL    HW134034   2.785   0.703  12.060
10734SOL    HW234035   2.655   0.631  12.029
10735SOL     OW34036   9.367   2.064   8.282
10735SOL    HW134037   9.301   2.114   8.233
10735SOL    HW234038   9.377   1.982   8.233
10736SOL     OW34039  14.352   8.976   5.592
10736SOL    HW134040  14.395   8.961   5.677
10736SOL    HW234041  14.395   8.915   5.532
10737SOL     OW34042  14.184   4.920   0.294
10737SOL    HW134043  14.204   4.966   0.212
10737SOL    HW234044  14.127   4.980   0.342
10738SOL     OW34045  14.138   9.491   4.472
10738SOL    HW134046  14.219   9.542   4.480
10738SOL    HW234047  14.149   9.419   4.534
10739SOL     OW34048  10.492  10.369   1.842
10739SOL    HW134049  10.484  10.313   1.919
10739SOL    HW234050  10.447  10.321   1.773
10740SOL     OW34051   7.984   7.834   9.585
10740SOL    HW134052   7.964   7.815   9.493
10740SOL    HW234053   8.080   7.841   9.587
10741SOL     OW34054   9.466  14.689  11.627
10741SOL    HW134055   9.491  14.738  11.548
10741SOL    HW234056   9.456  14.598  11.597
10742SOL     OW34057  13.840   7.500  12.150
10742SOL    HW134058  13.777   7.486  12.080
10742SOL    HW234059  13.792   7.480  12.230
10743SOL     OW34060   2.955  10.853   4.733
10743SOL    HW134061   2.904  10.931   4.711
10743SOL    HW234062   2.891  10.782   4.735
10744SOL     OW34063   4.351   6.071   7.067
10744SOL    HW134064   4.324   6.001   7.127
10744SOL    HW234065   4.319   6.042   6.981
10745SOL     OW34066  14.838   0.984  12.244
10745SOL    HW134067  14.848   1.076  12.218
10745SOL    HW234068  14.830   0.937  12.161
10746SOL     OW34069  11.215   2.285   9.382
10746SOL    HW134070  11.134   2.300   9.332
10746SOL    HW234071  11.193   2.311   9.471
10747SOL     OW34072   7.948   6.679  14.575
10747SOL    HW134073   7.923   6.611  14.638
10747SOL    HW234074   7.943   6.636  14.490
10748SOL     OW34075   4.303  14.403   4.842
10748SOL    HW134076   4.225  14.373   4.889
10748SOL    HW234077   4.273  14.476   4.788
10749SOL     OW34078   2.116   1.270   5.334
10749SOL    HW134079   2.198   1.221   5.347
10749SOL    HW234080   2.110   1.281   5.240
10750SOL     OW34081  13.728  13.241   9.816
10750SOL    HW134082  13.819  13.217   9.831
10750SOL    HW234083  13.727  13.285   9.731
10751SOL     OW34084   4.444   3.312   2.117
10751SOL    HW134085   4.532   3.343   2.136
10751SOL    HW234086   4.455   3.251   2.043
10752SOL     OW34087   6.236   0.061   7.125
10752SOL    HW134088   6.192   0.129   7.176
10752SOL    HW234089   6.254  14.868   7.188
10753SOL     OW34090  10.239  10.655  12.641
10753SOL    HW134091  10.333  10.660  12.623
10753SOL    HW234092  10.218  10.738  12.684
10754SOL     OW34093   2.565   6.091  11.053
10754SOL    HW134094   2.532   6.017  11.002
10754SOL    HW234095   2.544   6.168  11.001
10755SOL     OW34096   4.729   9.586  14.668
10755SOL    HW134097   4.678   9.526  14.722
10755SOL    HW234098   4.678   9.593  14.587
10756SOL     OW34099   1.105  11.442  14.219
10756SOL    HW134100   1.110  11.497  14.141
10756SOL    HW234101   1.155  11.490  14.285
10757SOL     OW34102   4.297   9.463   8.047
10757SOL    HW134103   4.243   9.401   8.096
10757SOL    HW234104   4.359   9.498   8.111
10758SOL     OW34105   8.360   6.154   8.596
10758SOL    HW134106   8.327   6.242   8.615
10758SOL    HW234107   8.444   6.169   8.553
10759SOL     OW34108   0.654   1.686   4.518
10759SOL    HW134109   0.610   1.634   4.586
10759SOL    HW234110   0.667   1.625   4.446
10760SOL     OW34111   9.306  11.993   0.395
10760SOL    HW134112   9.368  12.047   0.345
10760SOL    HW234113   9.236  11.973   0.333
10761SOL     OW34114  13.951  11.798  13.262
10761SOL    HW134115  13.993  11.749  13.333
10761SOL    HW234116  13.965  11.890  13.284
10762SOL     OW34117   4.245  12.831   5.122
10762SOL    HW134118   4.251  12.909   5.066
10762SOL    HW234119   4.205  12.863   5.202
10763SOL     OW34120   6.476  14.538  10.222
10763SOL    HW134121   6.548  14.552  10.162
10763SOL    HW234122   6.496  14.455  10.265
10764SOL     OW34123  13.912   5.303   3.816
10764SOL    HW134124  13.975   5.360   3.860
10764SOL    HW234125  13.827   5.338   3.842
10765SOL     OW34126   2.534   8.010   9.519
10765SOL    HW134127   2.608   7.953   9.541
10765SOL    HW234128   2.477   8.005   9.595
10766SOL     OW34129  14.380   8.068  14.097
10766SOL    HW134130  14.300   8.086  14.146
10766SOL    HW234131  14.377   8.128  14.022
10767SOL     OW34132   8.015  10.689   6.266
10767SOL    HW134133   7.950  10.649   6.208
10767SOL    HW234134   7.964  10.744   6.325
10768SOL     OW34135   2.028  14.507   7.530
10768SOL    HW134136   2.043  14.559   7.452
10768SOL    HW234137   2.027  14.570   7.602
10769SOL     OW34138   3.455  14.029  10.399
10769SOL    HW134139   3.551  14.030  10.403
10769SOL    HW234140   3.427  14.054  10.487
10770SOL     OW34141   2.192   6.609   8.279
10770SOL    HW134142   2.246   6.533   8.259
10770SOL    HW234143   2.179   6.605   8.374
10771SOL     OW34144  12.337   1.805  10.501
10771SOL    HW134145  12.262   1.760  10.540
10771SOL    HW234146  12.299   1.861  10.434
10772SOL     OW34147  12.974   5.657   1.969
10772SOL    HW134148  12.968   5.752   1.974
10772SOL    HW234149  12.886   5.626   1.992
10773SOL     OW34150   1.124   4.958   1.526
10773SOL    HW134151   1.202   5.009   1.504
10773SOL    HW234152   1.115   4.968   1.620
10774SOL     OW34153  11.449   3.665   8.833
10774SOL    HW134154  11.384   3.734   8.824
10774SOL    HW234155  11.435   3.608   8.757
10775SOL     OW34156  11.344   3.107   0.466
10775SOL    HW134157  11.397   3.030   0.487
10775SOL    HW234158  11.256   3.085   0.499
10776SOL     OW34159   6.805   2.515   7.819
10776SOL    HW134160   6.746   2.534   7.746
10776SOL    HW234161   6.827   2.601   7.855
10777SOL     OW34162  12.087   7.656   9.386
10777SOL    HW134163  12.063   7.703   9.306
10777SOL    HW234164  12.168   7.609   9.363
10778SOL     OW34165  12.237   9.842  11.695
10778SOL    HW134166  12.272   9.818  11.780
10778SOL    HW234167  12.300   9.904  11.659
10779SOL     OW34168   0.722   0.529   5.586
10779SOL    HW134169   0.644   0.475   5.572
10779SOL    HW234170   0.791   0.484   5.538
10780SOL     OW34171   6.194   3.643   5.199
10780SOL    HW134172   6.275   3.646   5.249
10780SOL    HW234173   6.137   3.707   5.242
10781SOL     OW34174   0.187   7.644   1.279
10781SOL    HW134175   0.239   7.612   1.206
10781SOL    HW234176   0.226   7.729   1.301
10782SOL     OW34177   5.134  13.088   7.040
10782SOL    HW134178   5.173  13.035   6.971
10782SOL    HW234179   5.155  13.178   7.015
10783SOL     OW34180  13.816   3.482   5.461
10783SOL    HW134181  13.753   3.413   5.442
10783SOL    HW234182  13.849   3.461   5.548
10784SOL     OW34183  12.000   5.839   9.850
10784SOL    HW134184  12.037   5.906   9.906
10784SOL    HW234185  11.911   5.826   9.882
10785SOL     OW34186   5.396   2.753   2.135
10785SOL    HW134187   5.385   2.766   2.230
10785SOL    HW234188   5.469   2.810   2.112
10786SOL     OW34189   3.558   6.667  10.906
10786SOL    HW134190   3.543   6.746  10.959
10786SOL    HW234191   3.530   6.595  10.962
10787SOL     OW34192   1.668   7.273   3.657
10787SOL    HW134193   1.601   7.224   3.705
10787SOL    HW234194   1.637   7.275   3.567
10788SOL     OW34195   5.602   0.855  14.069
10788SOL    HW134196   5.637   0.837  14.156
10788SOL    HW234197   5.580   0.948  14.071
10789SOL     OW34198   9.836   9.118   5.891
10789SOL    HW134199   9.826   9.213   5.879
10789SOL    HW234200   9.814   9.081   5.806
10790SOL     OW34201   2.368   1.483   0.824
10790SOL    HW134202   2.342   1.403   0.868
10790SOL    HW234203   2.389   1.544   0.895
10791SOL     OW34204   6.203  13.904   2.785
10791SOL    HW134205   6.230  13.831   2.840
10791SOL    HW234206   6.225  13.876   2.696
10792SOL     OW34207  12.109   5.710  11.554
10792SOL    HW134208  12.162   5.699  11.475
10792SOL    HW234209  12.071   5.798  11.545
10793SOL     OW34210   7.073   9.009   1.439
10793SOL    HW134211   7.095   9.055   1.358
10793SOL    HW234212   6.998   9.057   1.474
10794SOL     OW34213   2.127  11.916   5.495
10794SOL    HW134214   2.178  11.996   5.480
10794SOL    HW234215   2.118  11.912   5.590
10795SOL     OW34216   7.072  10.624   8.236
10795SOL    HW134217   7.043  10.538   8.268
10795SOL    HW234218   7.055  10.684   8.308
10796SOL     OW34219  14.870  10.342   5.859
10796SOL    HW134220  14.797  10.283   5.840
10796SOL    HW234221  14.860  10.364   5.951
10797SOL     OW34222  14.385  11.062   9.604
10797SOL    HW134223  14.301  11.035   9.566
10797SOL    HW234224  14.431  10.980   9.621
10798SOL     OW34225  12.545  13.269   1.270
10798SOL    HW134226  12.458  13.243   1.301
10798SOL    HW234227  12.540  13.364   1.259
10799SOL     OW34228   4.600  14.228   1.006
10799SOL    HW134229   4.538  14.162   1.037
10799SOL    HW234230   4.667  14.179   0.959
10800SOL     OW34231   9.893  10.034   9.767
10800SOL    HW134232   9.873  10.114   9.719
10800SOL    HW234233   9.985  10.015   9.746
10801SOL     OW34234   0.034   8.797  11.227
10801SOL    HW134235  14.837   8.772  11.284
10801SOL    HW234236   0.087   8.856  11.281
10802SOL     OW34237   0.578   5.228   4.962
10802SOL    HW134238   0.597   5.228   5.056
10802SOL    HW234239   0.522   5.152   4.948
10803SOL     OW34240   8.844  14.688   5.899
10803SOL    HW134241   8.928  14.702   5.854
10803SOL    HW234242   8.868  14.677   5.991
10804SOL     OW34243  11.787   1.532   9.680
10804SOL    HW134244  11.749   1.618   9.701
10804SOL    HW234245  11.714   1.482   9.644
10805SOL     OW34246  14.216   0.298   9.209
10805SOL    HW134247  14.227   0.335   9.296
10805SOL    HW234248  14.135   0.248   9.214
10806SOL     OW34249   5.736   0.338  12.466
10806SOL    HW134250   5.694   0.407  12.518
10806SOL    HW234251   5.692   0.342  12.381
10807SOL     OW34252   8.499   6.472   7.267
10807SOL    HW134253   8.458   6.385   7.264
10807SOL    HW234254   8.513   6.489   7.360
10808SOL     OW34255   2.347   2.333  12.871
10808SOL    HW134256   2.366   2.326  12.777
10808SOL    HW234257   2.430   2.309  12.914
10809SOL     OW34258   4.980   8.461  11.810
10809SOL    HW134259   5.069   8.426  11.805
10809SOL    HW234260   4.927   8.387  11.840
10810SOL     OW34261   9.841  11.006   1.353
10810SOL    HW134262   9.851  10.975   1.263
10810SOL    HW234263   9.910  10.962   1.402
10811SOL     OW34264   2.709   7.187  11.287
10811SOL    HW134265   2.713   7.128  11.362
10811SOL    HW234266   2.621   7.175  11.251
10812SOL     OW34267  12.085   1.224  12.541
10812SOL    HW134268  12.118   1.276  12.468
10812SOL    HW234269  12.088   1.134  12.509
10813SOL     OW34270  11.537   9.729   2.542
10813SOL    HW134271  11.594   9.655   2.562
10813SOL    HW234272  11.493   9.704   2.461
10814SOL     OW34273   6.459   8.011   3.142
10814SOL    HW134274   6.521   7.996   3.071
10814SOL    HW234275   6.507   8.064   3.205
10815SOL     OW34276  10.871   3.931  13.250
10815SOL    HW134277  10.788   3.977  13.264
10815SOL    HW234278  10.910   3.972  13.173
10816SOL     OW34279   9.738   8.828  13.892
10816SOL    HW134280   9.780   8.913  13.899
10816SOL    HW234281   9.696   8.828  13.806
10817SOL     OW34282  10.961   9.636  10.318
10817SOL    HW134283  11.040   9.644  10.371
10817SOL    HW234284  10.911   9.565  10.360
10818SOL     OW34285  11.792   4.658  14.462
10818SOL    HW134286  11.835   4.722  14.406
10818SOL    HW234287  11.749   4.710  14.530
10819SOL     OW34288  12.156  13.876   7.563
10819SOL    HW134289  12.122  13.939   7.626
10819SOL    HW234290  12.166  13.795   7.614
10820SOL     OW34291   0.061   0.008   0.086
10820SOL    HW134292   0.131   0.041   0.142
10820SOL    HW234293   0.097  14.805   0.045
10821SOL     OW34294   3.109   4.922   9.684
10821SOL    HW134295   3.031   4.972   9.659
10821SOL    HW234296   3.139   4.964   9.765
10822SOL     OW34297  13.849   8.963   2.014
10822SOL    HW134298  13.859   8.977   1.920
10822SOL    HW234299  13.887   8.877   2.030
10823SOL     OW34300   5.046   1.866   3.887
10823SOL    HW134301   5.103   1.919   3.830
10823SOL    HW234302   5.077   1.886   3.976
10824SOL     OW34303   7.669   8.955   1.256
10824SOL    HW134304   7.725   8.939   1.332
10824SOL    HW234305   7.627   8.871   1.239
10825SOL     OW34306   8.477   7.793  14.130
10825SOL    HW134307   8.431   7.717  14.092
10825SOL    HW234308   8.547   7.754  14.183
10826SOL     OW34309   1.084  14.577   5.058
10826SOL    HW134310   1.003  14.537   5.028
10826SOL    HW234311   1.153  14.530   5.011
10827SOL     OW34312   2.630  10.253   9.336
10827SOL    HW134313   2.593  10.254   9.248
10827SOL    HW234314   2.555  10.271   9.393
10828SOL     OW34315   3.884   9.175   9.883
10828SOL    HW134316   3.943   9.227   9.828
10828SOL    HW234317   3.804   9.227   9.889
10829SOL     OW34318  10.338   0.510   2.816
10829SOL    HW134319  10.431   0.501   2.792
10829SOL    HW234320  10.341   0.543   2.906
10830SOL     OW34321  11.151  14.265  11.670
10830SOL    HW134322  11.126  14.172  11.666
10830SOL    HW234323  11.071  14.312  11.648
10831SOL     OW34324  11.217   5.050   5.833
10831SOL    HW134325  11.246   5.141   5.826
10831SOL    HW234326  11.248   5.021   5.919
10832SOL     OW34327   7.555   4.173  10.896
10832SOL    HW134328   7.648   4.183  10.918
10832SOL    HW234329   7.508   4.209  10.970
10833SOL     OW34330   0.402  12.260   4.424
10833SOL    HW134331   0.344  12.315   4.371
10833SOL    HW234332   0.440  12.319   4.488
10834SOL     OW34333   5.111  10.910  10.038
10834SOL    HW134334   5.051  10.838  10.057
10834SOL    HW234335   5.194  10.867  10.015
10835SOL     OW34336   0.554   4.727   6.413
10835SOL    HW134337   0.642   4.700   6.440
10835SOL    HW234338   0.495   4.673   6.466
10836SOL     OW34339   0.798  13.700  12.692
10836SOL    HW134340   0.789  13.794  12.710
10836SOL    HW234341   0.867  13.671  12.751
10837SOL     OW34342  10.759  12.204  13.603
10837SOL    HW134343  10.824  12.270  13.626
10837SOL    HW234344  10.678  12.255  13.591
10838SOL     OW34345   5.353  14.741   8.327
10838SOL    HW134346   5.380  14.722   8.417
10838SOL    HW234347   5.412  14.691   8.272
10839SOL     OW34348  12.722   9.113   2.028
10839SOL    HW134349  12.751   9.174   2.095
10839SOL    HW234350  12.700   9.168   1.953
10840SOL     OW34351   3.644   0.793   5.320
10840SOL    HW134352   3.641   0.846   5.241
10840SOL    HW234353   3.611   0.850   5.389
10841SOL     OW34354   6.745   2.519   9.175
10841SOL    HW134355   6.652   2.510   9.154
10841SOL    HW234356   6.747   2.581   9.248
10842SOL     OW34357  14.226   5.435   1.733
10842SOL    HW134358  14.132   5.444   1.718
10842SOL    HW234359  14.233   5.411   1.825
10843SOL     OW34360  12.515   7.469   3.104
10843SOL    HW134361  12.434   7.418   3.100
10843SOL    HW234362  12.584   7.407   3.080
10844SOL     OW34363  14.736   8.989   7.789
10844SOL    HW134364  14.774   8.937   7.718
10844SOL    HW234365  14.803   8.987   7.857
10845SOL     OW34366   9.835   2.841   6.229
10845SOL    HW134367   9.886   2.921   6.215
10845SOL    HW234368   9.876   2.800   6.305
10846SOL     OW34369   3.677   6.861   4.785
10846SOL    HW134370   3.767   6.840   4.809
10846SOL    HW234371   3.677   6.956   4.771
10847SOL     OW34372   7.130   5.916   7.137
10847SOL    HW134373   7.121   5.950   7.226
10847SOL    HW234374   7.085   5.980   7.082
10848SOL     OW34375   9.280   7.395   6.449
10848SOL    HW134376   9.336   7.424   6.521
10848SOL    HW234377   9.341   7.373   6.378
10849SOL     OW34378   6.946   7.225   2.995
10849SOL    HW134379   6.974   7.227   3.086
10849SOL    HW234380   7.002   7.158   2.954
10850SOL     OW34381   3.470   8.282   1.488
10850SOL    HW134382   3.458   8.241   1.574
10850SOL    HW234383   3.519   8.362   1.506
10851SOL     OW34384   4.616  10.575   6.844
10851SOL    HW134385   4.531  10.602   6.809
10851SOL    HW234386   4.671  10.563   6.766
10852SOL     OW34387   4.665   3.643   2.322
10852SOL    HW134388   4.734   3.604   2.376
10852SOL    HW234389   4.615   3.696   2.383
10853SOL     OW34390   0.041   1.236   8.686
10853SOL    HW134391  14.831   1.223   8.645
10853SOL    HW234392   0.026   1.304   8.752
10854SOL     OW34393  10.390  10.735   4.608
10854SOL    HW134394  10.343  10.653   4.593
10854SOL    HW234395  10.338  10.782   4.673
10855SOL     OW34396   3.103   3.123   3.323
10855SOL    HW134397   3.105   3.217   3.342
10855SOL    HW234398   3.156   3.113   3.244
10856SOL     OW34399   3.311   8.940   7.736
10856SOL    HW134400   3.322   8.929   7.641
10856SOL    HW234401   3.305   8.850   7.770
10857SOL     OW34402   9.406   0.694  12.832
10857SOL    HW134403   9.320   0.713  12.869
10857SOL    HW234404   9.415   0.599  12.839
10858SOL     OW34405   4.274   4.633  10.597
10858SOL    HW134406   4.272   4.622  10.502
10858SOL    HW234407   4.197   4.688  10.617
10859SOL     OW34408   7.600  10.695  13.456
10859SOL    HW134409   7.587  10.778  13.411
10859SOL    HW234410   7.681  10.706  13.505
10860SOL     OW34411  14.849  13.483  13.216
10860SOL    HW134412   0.039  13.427  13.256
10860SOL    HW234413  14.829  13.549  13.284
10861SOL     OW34414   4.609   2.615   4.450
10861SOL    HW134415   4.606   2.703   4.411
10861SOL    HW234416   4.533   2.570   4.414
10862SOL     OW34417   8.882   5.945   9.969
10862SOL    HW134418   8.957   5.999   9.942
10862SOL    HW234419   8.918   5.856   9.973
10863SOL     OW34420   3.052   5.642  11.073
10863SOL    HW134421   3.136   5.648  11.118
10863SOL    HW234422   3.061   5.567  11.014
10864SOL     OW34423   3.231   3.451   8.393
10864SOL    HW134424   3.299   3.490   8.448
10864SOL    HW234425   3.277   3.420   8.315
10865SOL     OW34426   1.182   2.147  14.009
10865SOL    HW134427   1.179   2.109  14.097
10865SOL    HW234428   1.157   2.076  13.950
10866SOL     OW34429  14.236   5.405   2.011
10866SOL    HW134430  14.299   5.337   2.035
10866SOL    HW234431  14.245   5.472   2.079
10867SOL     OW34432  10.610   6.462  12.045
10867SOL    HW134433  10.691   6.511  12.061
10867SOL    HW234434  10.598   6.466  11.951
10868SOL     OW34435  11.225   1.873   1.222
10868SOL    HW134436  11.311   1.836   1.241
10868SOL    HW234437  11.218   1.949   1.279
10869SOL     OW34438  13.744  11.025   6.329
10869SOL    HW134439  13.669  10.981   6.289
10869SOL    HW234440  13.792  10.955   6.374
10870SOL     OW34441   0.302  12.651   4.375
10870SOL    HW134442   0.278  12.688   4.290
10870SOL    HW234443   0.277  12.558   4.368
10871SOL     OW34444   3.930   9.629   2.495
10871SOL    HW134445   3.925   9.535   2.475
10871SOL    HW234446   4.013   9.639   2.542
10872SOL     OW34447  13.094   8.587   1.927
10872SOL    HW134448  13.035   8.517   1.957
10872SOL    HW234449  13.035   8.657   1.898
10873SOL     OW34450   8.512   5.897   5.716
10873SOL    HW134451   8.439   5.835   5.710
10873SOL    HW234452   8.479   5.976   5.673
10874SOL     OW34453   2.860  12.615   8.255
10874SOL    HW134454   2.868  12.586   8.346
10874SOL    HW234455   2.766  12.609   8.236
10875SOL     OW34456   1.842  11.313   4.769
10875SOL    HW134457   1.937  11.312   4.760
10875SOL    HW234458   1.816  11.221   4.769
10876SOL     OW34459   1.316   7.732   9.335
10876SOL    HW134460   1.235   7.769   9.368
10876SOL    HW234461   1.377   7.737   9.409
10877SOL     OW34462  10.987   6.104   8.093
10877SOL    HW134463  11.022   6.116   8.005
10877SOL    HW234464  10.897   6.135   8.088
10878SOL     OW34465   2.238  11.222  10.002
10878SOL    HW134466   2.150  11.254   9.983
10878SOL    HW234467   2.261  11.262  10.086
10879SOL     OW34468   7.331  12.696   2.490
10879SOL    HW134469   7.240  12.701   2.519
10879SOL    HW234470   7.355  12.604   2.500
10880SOL     OW34471   0.872  10.656  12.649
10880SOL    HW134472   0.937  10.586  12.649
10880SOL    HW234473   0.828  10.648  12.565
10881SOL     OW34474   3.696   8.779   7.177
10881SOL    HW134475   3.703   8.827   7.259
10881SOL    HW234476   3.640   8.835   7.122
10882SOL     OW34477  11.712  13.890   2.393
10882SOL    HW134478  11.644  13.824   2.376
10882SOL    HW234479  11.743  13.915   2.306
10883SOL     OW34480   4.896   8.615   8.938
10883SOL    HW134481   4.907   8.636   8.845
10883SOL    HW234482   4.962   8.548   8.955
10884SOL     OW34483   6.329   6.872  10.807
10884SOL    HW134484   6.303   6.800  10.865
10884SOL    HW234485   6.373   6.934  10.865
10885SOL     OW34486  14.275   8.097   5.926
10885SOL    HW134487  14.312   8.077   5.840
10885SOL    HW234488  14.229   8.180   5.914
10886SOL     OW34489   7.430   3.394   4.940
10886SOL    HW134490   7.484   3.463   4.903
10886SOL    HW234491   7.428   3.412   5.034
10887SOL     OW34492   9.501   6.689   8.455
10887SOL    HW134493   9.539   6.676   8.542
10887SOL    HW234494   9.506   6.602   8.413
10888SOL     OW34495   7.200   1.439  12.009
10888SOL    HW134496   7.133   1.382  11.970
10888SOL    HW234497   7.153   1.520  12.027
10889SOL     OW34498   3.003   9.628  12.453
10889SOL    HW134499   2.975   9.539  12.430
10889SOL    HW234500   3.075   9.646  12.392
10890SOL     OW34501   1.510  10.798   4.547
10890SOL    HW134502   1.468  10.861   4.489
10890SOL    HW234503   1.444  10.780   4.615
10891SOL     OW34504   6.459   1.981   3.209
10891SOL    HW134505   6.470   1.924   3.132
10891SOL    HW234506   6.450   1.920   3.282
10892SOL     OW34507  10.904   8.864   6.514
10892SOL    HW134508  10.868   8.920   6.583
10892SOL    HW234509  10.971   8.918   6.472
10893SOL     OW34510   7.802  13.507  12.872
10893SOL    HW134511   7.737  13.438  12.859
10893SOL    HW234512   7.859  13.502  12.795
10894SOL     OW34513   6.501  10.668   0.020
10894SOL    HW134514   6.592  10.676   0.049
10894SOL    HW234515   6.507  10.652  14.802
10895SOL     OW34516   0.917   1.278   8.158
10895SOL    HW134517   0.828   1.303   8.132
10895SOL    HW234518   0.962   1.263   8.075
10896SOL     OW34519   1.499  12.460  12.037
10896SOL    HW134520   1.536  12.547  12.025
10896SOL    HW234521   1.552  12.421  12.107
10897SOL     OW34522   2.265  11.115   9.381
10897SOL    HW134523   2.338  11.165   9.345
10897SOL    HW234524   2.225  11.174   9.444
10898SOL     OW34525   4.426   2.602   9.611
10898SOL    HW134526   4.416   2.606   9.516
10898SOL    HW234527   4.513   2.636   9.629
10899SOL     OW34528   9.587  12.475   5.156
10899SOL    HW134529   9.506  12.519   5.182
10899SOL    HW234530   9.567  12.437   5.070
10900SOL     OW34531  13.892  11.164   6.590
10900SOL    HW134532  13.801  11.194   6.594
10900SOL    HW234533  13.905  11.115   6.671
10901SOL     OW34534   2.866   3.210  13.955
10901SOL    HW134535   2.926   3.280  13.929
10901SOL    HW234536   2.853   3.159  13.875
10902SOL     OW34537  10.612  10.838   1.737
10902SOL    HW134538  10.551  10.765   1.748
10902SOL    HW234539  10.579  10.906   1.795
10903SOL     OW34540   8.431   0.942  10.391
10903SOL    HW134541   8.405   1.030  10.419
10903SOL    HW234542   8.505   0.956  10.332
10904SOL     OW34543   4.585   7.044   0.325
10904SOL    HW134544   4.497   7.046   0.288
10904SOL    HW234545   4.574   7.068   0.417
10905SOL     OW34546  10.859   3.561   4.106
10905SOL    HW134547  10.852   3.633   4.170
10905SOL    HW234548  10.937   3.513   4.133
10906SOL     OW34549   5.026  13.776  13.244
10906SOL    HW134550   5.085  13.851  13.248
10906SOL    HW234551   5.073  13.708  13.293
10907SOL     OW34552  12.599   6.203   5.638
10907SOL    HW134553  12.544   6.226   5.563
10907SOL    HW234554  12.614   6.109   5.629
10908SOL     OW34555   4.245   7.716   1.083
10908SOL    HW134556   4.227   7.761   1.001
10908SOL    HW234557   4.289   7.781   1.137
10909SOL     OW34558  11.587  11.414  14.662
10909SOL    HW134559  11.587  11.342  14.725
10909SOL    HW234560  11.568  11.373  14.577
10910SOL     OW34561   7.140  12.450   2.748
10910SOL    HW134562   7.140  12.537   2.708
10910SOL    HW234563   7.082  12.398   2.692
10911SOL     OW34564  11.337   9.379   9.362
10911SOL    HW134565  11.288   9.408   9.286
10911SOL    HW234566  11.319   9.285   9.368
10912SOL     OW34567  14.393   5.186   1.630
10912SOL    HW134568  14.432   5.246   1.693
10912SOL    HW234569  14.346   5.242   1.569
10913SOL     OW34570   6.058   7.287  14.634
10913SOL    HW134571   6.149   7.262  14.620
10913SOL    HW234572   6.051   7.299  14.728
10914SOL     OW34573   0.832   6.637   0.458
10914SOL    HW134574   0.802   6.668   0.544
10914SOL    HW234575   0.848   6.717   0.408
10915SOL     OW34576   4.204   0.808   8.235
10915SOL    HW134577   4.239   0.749   8.169
10915SOL    HW234578   4.231   0.770   8.319
10916SOL     OW34579  10.849  11.478  10.171
10916SOL    HW134580  10.868  11.387  10.146
10916SOL    HW234581  10.880  11.484  10.262
10917SOL     OW34582   2.517   5.402   4.431
10917SOL    HW134583   2.531   5.353   4.349
10917SOL    HW234584   2.579   5.363   4.492
10918SOL     OW34585   8.126   5.242   2.542
10918SOL    HW134586   8.068   5.180   2.497
10918SOL    HW234587   8.182   5.186   2.597
10919SOL     OW34588   8.672  14.435   6.764
10919SOL    HW134589   8.763  14.403   6.768
10919SOL    HW234590   8.629  14.391   6.838
10920SOL     OW34591   7.799  12.077   4.601
10920SOL    HW134592   7.772  12.120   4.519
10920SOL    HW234593   7.734  12.008   4.613
10921SOL     OW34594   9.570  10.374  13.775
10921SOL    HW134595   9.486  10.392  13.817
10921SOL    HW234596   9.631  10.437  13.814
10922SOL     OW34597  10.729  12.308   3.883
10922SOL    HW134598  10.755  12.232   3.935
10922SOL    HW234599  10.698  12.372   3.947
10923SOL     OW34600  14.682   1.316  13.272
10923SOL    HW134601  14.765   1.348  13.238
10923SOL    HW234602  14.617   1.378  13.239
10924SOL     OW34603  14.709  10.816  10.111
10924SOL    HW134604  14.783  10.878  10.109
10924SOL    HW234605  14.751  10.730  10.115
10925SOL     OW34606   7.113  11.188   7.592
10925SOL    HW134607   7.112  11.113   7.533
10925SOL    HW234608   7.205  11.198   7.617
10926SOL     OW34609   3.871   0.282   2.950
10926SOL    HW134610   3.890   0.219   2.880
10926SOL    HW234611   3.937   0.350   2.938
10927SOL     OW34612  12.029  11.532  14.734
10927SOL    HW134613  11.965  11.482  14.684
10927SOL    HW234614  11.997  11.622  14.732
10928SOL     OW34615   4.669   6.096  10.503
10928SOL    HW134616   4.623   6.173  10.470
10928SOL    HW234617   4.749   6.131  10.542
10929SOL     OW34618   0.611   2.512   0.450
10929SOL    HW134619   0.551   2.482   0.381
10929SOL    HW234620   0.667   2.437   0.467
10930SOL     OW34621  10.457  14.546   5.585
10930SOL    HW134622  10.534  14.490   5.597
10930SOL    HW234623  10.487  14.633   5.610
10931SOL     OW34624  10.522   4.325   2.744
10931SOL    HW134625  10.512   4.413   2.709
10931SOL    HW234626  10.555   4.273   2.671
10932SOL     OW34627   7.702   6.751   6.386
10932SOL    HW134628   7.673   6.737   6.295
10932SOL    HW234629   7.621   6.772   6.433
10933SOL     OW34630  14.869   9.240   2.858
10933SOL    HW134631  14.799   9.188   2.820
10933SOL    HW234632   0.000   9.316   2.800
10934SOL     OW34633  11.063  10.364   2.377
10934SOL    HW134634  11.058  10.350   2.283
10934SOL    HW234635  11.152  10.337   2.401
10935SOL     OW34636   7.866   4.478  11.309
10935SOL    HW134637   7.780   4.506  11.276
10935SOL    HW234638   7.850   4.390  11.344
10936SOL     OW34639  12.904   2.070   0.023
10936SOL    HW134640  12.859   2.151   0.001
10936SOL    HW234641  12.969   2.096   0.088
10937SOL     OW34642  13.520  13.525   1.143
10937SOL    HW134643  13.529  13.575   1.061
10937SOL    HW234644  13.490  13.590   1.207
10938SOL     OW34645   8.968  14.065  13.045
10938SOL    HW134646   8.915  14.112  12.981
10938SOL    HW234647   8.927  14.084  13.129
10939SOL     OW34648   9.194   1.134   0.307
10939SOL    HW134649   9.225   1.044   0.322
10939SOL    HW234650   9.212   1.179   0.389
10940SOL     OW34651   3.946   0.380   9.648
10940SOL    HW134652   3.924   0.332   9.728
10940SOL    HW234653   3.977   0.313   9.588
10941SOL     OW34654  10.280   7.952  14.854
10941SOL    HW134655  10.191   7.921  14.838
10941SOL    HW234656  10.299   7.925   0.068
10942SOL     OW34657   8.946   0.815  12.119
10942SOL    HW134658   8.893   0.859  12.184
10942SOL    HW234659   8.887   0.753  12.076
10943SOL     OW34660   7.715  13.512   4.429
10943SOL    HW134661   7.779  13.495   4.360
10943SOL    HW234662   7.753  13.473   4.507
10944SOL     OW34663  11.180  12.738  10.715
10944SOL    HW134664  11.216  12.650  10.725
10944SOL    HW234665  11.111  12.743  10.782
10945SOL     OW34666  12.688   0.042  12.290
10945SOL    HW134667  12.663  14.869  12.369
10945SOL    HW234668  12.745  14.857  12.242
10946SOL     OW34669   9.673  12.306   4.100
10946SOL    HW134670   9.720  12.320   4.017
10946SOL    HW234671   9.741  12.277   4.161
10947SOL     OW34672   7.401  10.184   8.219
10947SOL    HW134673   7.427  10.111   8.275
10947SOL    HW234674   7.312  10.161   8.191
10948SOL     OW34675   5.030   0.094   5.178
10948SOL    HW134676   4.961   0.043   5.135
10948SOL    HW234677   4.984   0.169   5.215
10949SOL     OW34678  14.634  14.011   5.061
10949SOL    HW134679  14.583  14.076   5.109
10949SOL    HW234680  14.652  13.942   5.124
10950SOL     OW34681   5.361  13.423   3.137
10950SOL    HW134682   5.385  13.490   3.201
10950SOL    HW234683   5.266  13.413   3.148
10951SOL     OW34684   2.817  11.637  13.510
10951SOL    HW134685   2.889  11.690  13.543
10951SOL    HW234686   2.847  11.607  13.424
10952SOL     OW34687   7.529   4.910   0.562
10952SOL    HW134688   7.499   4.898   0.472
10952SOL    HW234689   7.533   5.005   0.574
10953SOL     OW34690   7.353   7.291   1.408
10953SOL    HW134691   7.266   7.287   1.369
10953SOL    HW234692   7.385   7.378   1.385
10954SOL     OW34693   6.290  12.083   2.469
10954SOL    HW134694   6.295  12.130   2.553
10954SOL    HW234695   6.302  11.991   2.493
10955SOL     OW34696   6.176   0.915  14.329
10955SOL    HW134697   6.132   0.863  14.396
10955SOL    HW234698   6.165   1.006  14.357
10956SOL     OW34699  12.517  10.299   5.939
10956SOL    HW134700  12.584  10.255   5.889
10956SOL    HW234701  12.490  10.373   5.884
10957SOL     OW34702   4.490   7.722  11.895
10957SOL    HW134703   4.540   7.729  11.976
10957SOL    HW234704   4.539   7.659  11.842
10958SOL     OW34705   2.629   9.950   6.048
10958SOL    HW134706   2.708   9.896   6.041
10958SOL    HW234707   2.627   9.979   6.139
10959SOL     OW34708   9.158  10.849   1.401
10959SOL    HW134709   9.113  10.934   1.406
10959SOL    HW234710   9.101  10.789   1.449
10960SOL     OW34711  14.146  10.669   5.257
10960SOL    HW134712  14.156  10.685   5.351
10960SOL    HW234713  14.082  10.735   5.228
10961SOL     OW34714   3.867   7.314  14.385
10961SOL    HW134715   3.906   7.356  14.308
10961SOL    HW234716   3.781   7.284  14.356
10962SOL     OW34717   9.602  10.480   4.859
10962SOL    HW134718   9.515  10.460   4.823
10962SOL    HW234719   9.594  10.463   4.953
10963SOL     OW34720   0.120  14.116   0.314
10963SOL    HW134721   0.044  14.063   0.336
10963SOL    HW234722   0.147  14.086   0.228
10964SOL     OW34723  10.742   5.041   0.489
10964SOL    HW134724  10.749   5.054   0.583
10964SOL    HW234725  10.832   5.028   0.460
10965SOL     OW34726  13.294  11.194   4.358
10965SOL    HW134727  13.218  11.204   4.415
10965SOL    HW234728  13.305  11.281   4.318
10966SOL     OW34729   5.315   1.805   6.566
10966SOL    HW134730   5.228   1.766   6.552
10966SOL    HW234731   5.334   1.789   6.658
10967SOL     OW34732   7.213  13.424   3.436
10967SOL    HW134733   7.136  13.384   3.395
10967SOL    HW234734   7.183  13.451   3.523
10968SOL     OW34735  14.584  10.321  14.653
10968SOL    HW134736  14.587  10.297  14.561
10968SOL    HW234737  14.625  10.248  14.700
10969SOL     OW34738   6.080   6.049  11.652
10969SOL    HW134739   5.987   6.067  11.658
10969SOL    HW234740   6.096   5.980  11.716
10970SOL     OW34741   7.171   1.718  10.270
10970SOL    HW134742   7.132   1.632  10.260
10970SOL    HW234743   7.151   1.744  10.360
10971SOL     OW34744   8.195  12.271   5.006
10971SOL    HW134745   8.216  12.181   5.032
10971SOL    HW234746   8.164  12.262   4.916
10972SOL     OW34747  11.049   1.847   6.503
10972SOL    HW134748  11.118   1.823   6.441
10972SOL    HW234749  11.023   1.764   6.543
10973SOL     OW34750  14.181   7.768  12.148
10973SOL    HW134751  14.140   7.780  12.233
10973SOL    HW234752  14.222   7.852  12.128
10974SOL     OW34753   1.622   3.236   5.005
10974SOL    HW134754   1.678   3.310   5.029
10974SOL    HW234755   1.561   3.227   5.078
10975SOL     OW34756   6.433   4.553   0.369
10975SOL    HW134757   6.517   4.566   0.326
10975SOL    HW234758   6.371   4.540   0.297
10976SOL     OW34759   3.524  14.826   5.762
10976SOL    HW134760   3.584  14.869   5.823
10976SOL    HW234761   3.466   0.020   5.731
10977SOL     OW34762   1.833   2.820   8.485
10977SOL    HW134763   1.745   2.856   8.496
10977SOL    HW234764   1.891   2.895   8.490
10978SOL     OW34765   2.418   0.401   3.300
10978SOL    HW134766   2.450   0.473   3.355
10978SOL    HW234767   2.411   0.327   3.360
10979SOL     OW34768  12.654   7.835   5.733
10979SOL    HW134769  12.589   7.823   5.803
10979SOL    HW234770  12.732   7.868   5.777
10980SOL     OW34771   4.795   3.282  14.529
10980SOL    HW134772   4.700   3.294  14.525
10980SOL    HW234773   4.806   3.193  14.564
10981SOL     OW34774   8.478   0.342  12.401
10981SOL    HW134775   8.433   0.301  12.328
10981SOL    HW234776   8.429   0.422  12.418
10982SOL     OW34777   2.973   6.611   1.245
10982SOL    HW134778   3.011   6.687   1.290
10982SOL    HW234779   3.028   6.600   1.167
10983SOL     OW34780  14.771   4.615   8.464
10983SOL    HW134781  14.842   4.590   8.523
10983SOL    HW234782  14.749   4.535   8.416
10984SOL     OW34783  13.870  10.437   7.734
10984SOL    HW134784  13.921  10.384   7.672
10984SOL    HW234785  13.781  10.436   7.699
10985SOL     OW34786   7.731   2.230   5.680
10985SOL    HW134787   7.760   2.145   5.713
10985SOL    HW234788   7.650   2.212   5.633
10986SOL     OW34789   2.629   6.702   3.976
10986SOL    HW134790   2.651   6.713   4.069
10986SOL    HW234791   2.535   6.686   3.977
10987SOL     OW34792   0.421   5.090   5.278
10987SOL    HW134793   0.384   5.119   5.362
10987SOL    HW234794   0.490   5.028   5.302
10988SOL     OW34795  11.786   5.373   3.387
10988SOL    HW134796  11.762   5.287   3.353
10988SOL    HW234797  11.772   5.432   3.313
10989SOL     OW34798   8.620   7.855  12.456
10989SOL    HW134799   8.569   7.824  12.381
10989SOL    HW234800   8.688   7.911  12.417
10990SOL     OW34801   1.122   2.482   7.363
10990SOL    HW134802   1.132   2.577   7.372
10990SOL    HW234803   1.028   2.467   7.379
10991SOL     OW34804   3.438   3.694  14.039
10991SOL    HW134805   3.454   3.745  13.960
10991SOL    HW234806   3.436   3.759  14.110
10992SOL     OW34807   0.896  11.891   1.361
10992SOL    HW134808   0.903  11.804   1.400
10992SOL    HW234809   0.806  11.894   1.326
10993SOL     OW34810  13.929   6.984   0.410
10993SOL    HW134811  13.847   6.991   0.459
10993SOL    HW234812  13.950   7.075   0.386
10994SOL     OW34813  11.616   0.008  12.198
10994SOL    HW134814  11.642  14.809  12.252
10994SOL    HW234815  11.673   0.079  12.227
10995SOL     OW34816  14.533   3.666   2.417
10995SOL    HW134817  14.519   3.572   2.424
10995SOL    HW234818  14.479   3.703   2.487
10996SOL     OW34819   6.012   5.638  11.566
10996SOL    HW134820   6.031   5.655  11.473
10996SOL    HW234821   5.917   5.626  11.569
10997SOL     OW34822   1.019  14.308   7.295
10997SOL    HW134823   0.943  14.347   7.251
10997SOL    HW234824   1.030  14.223   7.254
10998SOL     OW34825   3.721   5.563   0.298
10998SOL    HW134826   3.702   5.581   0.206
10998SOL    HW234827   3.663   5.491   0.322
10999SOL     OW34828  12.198  12.098   6.689
10999SOL    HW134829  12.189  12.178   6.638
10999SOL    HW234830  12.194  12.127   6.780
11000SOL     OW34831   5.728   6.529   9.841
11000SOL    HW134832   5.731   6.571   9.755
11000SOL    HW234833   5.797   6.573   9.891
11001SOL     OW34834   6.090  12.066  13.263
11001SOL    HW134835   6.169  12.120  13.270
11001SOL    HW234836   6.021  12.128  13.240
11002SOL     OW34837   7.560   5.390   2.815
11002SOL    HW134838   7.563   5.467   2.871
11002SOL    HW234839   7.601   5.420   2.733
11003SOL     OW34840   6.930   0.605  11.614
11003SOL    HW134841   6.947   0.687  11.567
11003SOL    HW234842   6.946   0.537  11.550
11004SOL     OW34843  14.560  12.655  10.229
11004SOL    HW134844  14.600  12.605  10.158
11004SOL    HW234845  14.522  12.732  10.185
11005SOL     OW34846   2.551   1.664   6.341
11005SOL    HW134847   2.570   1.604   6.269
11005SOL    HW234848   2.459   1.648   6.361
11006SOL     OW34849   6.036   5.869  14.356
11006SOL    HW134850   6.066   5.875  14.265
11006SOL    HW234851   5.965   5.806  14.354
11007SOL     OW34852   4.288   4.142   2.624
11007SOL    HW134853   4.377   4.123   2.595
11007SOL    HW234854   4.265   4.224   2.579
11008SOL     OW34855  11.887  12.588   3.885
11008SOL    HW134856  11.921  12.502   3.910
11008SOL    HW234857  11.904  12.644   3.961
11009SOL     OW34858   1.182  14.625  13.678
11009SOL    HW134859   1.184  14.669  13.592
11009SOL    HW234860   1.089  14.614  13.696
11010SOL     OW34861   2.558   4.492   9.354
11010SOL    HW134862   2.606   4.559   9.306
11010SOL    HW234863   2.603   4.410   9.335
11011SOL     OW34864  11.402   7.165   8.469
11011SOL    HW134865  11.497   7.167   8.481
11011SOL    HW234866  11.391   7.152   8.375
11012SOL     OW34867   2.001  10.980   5.939
11012SOL    HW134868   1.917  11.024   5.952
11012SOL    HW234869   2.056  11.012   6.011
11013SOL     OW34870   9.527  12.681  14.002
11013SOL    HW134871   9.461  12.724  14.057
11013SOL    HW234872   9.589  12.751  13.980
11014SOL     OW34873   3.650   1.843  11.827
11014SOL    HW134874   3.739   1.856  11.860
11014SOL    HW234875   3.639   1.748  11.828
11015SOL     OW34876   3.523  13.956   0.421
11015SOL    HW134877   3.445  13.902   0.436
11015SOL    HW234878   3.500  14.041   0.458
11016SOL     OW34879   1.491   0.558  11.763
11016SOL    HW134880   1.499   0.638  11.711
11016SOL    HW234881   1.478   0.588  11.852
11017SOL     OW34882  14.132   5.970  12.821
11017SOL    HW134883  14.155   5.886  12.860
11017SOL    HW234884  14.126   5.953  12.727
11018SOL     OW34885   7.966   8.017  11.341
11018SOL    HW134886   8.021   7.967  11.281
11018SOL    HW234887   7.877   7.984  11.325
11019SOL     OW34888  13.996  12.328   3.039
11019SOL    HW134889  14.041  12.278   2.971
11019SOL    HW234890  13.969  12.409   2.995
11020SOL     OW34891  10.611  11.807  12.893
11020SOL    HW134892  10.563  11.884  12.923
11020SOL    HW234893  10.544  11.740  12.882
11021SOL     OW34894   8.175  10.028   9.673
11021SOL    HW134895   8.089  10.033   9.631
11021SOL    HW234896   8.203  10.119   9.682
11022SOL     OW34897   2.309   8.812   5.046
11022SOL    HW134898   2.246   8.842   5.111
11022SOL    HW234899   2.372   8.761   5.097
11023SOL     OW34900   6.776   1.958  10.988
11023SOL    HW134901   6.823   2.010  11.052
11023SOL    HW234902   6.768   2.015  10.911
11024SOL     OW34903   2.284   7.516   1.386
11024SOL    HW134904   2.330   7.490   1.466
11024SOL    HW234905   2.192   7.495   1.403
11025SOL     OW34906   9.101   0.927   8.883
11025SOL    HW134907   9.151   0.969   8.953
11025SOL    HW234908   9.036   0.874   8.929
11026SOL     OW34909  13.864   8.130   5.751
11026SOL    HW134910  13.930   8.153   5.685
11026SOL    HW234911  13.895   8.173   5.831
11027SOL     OW34912   4.418   0.558   9.540
11027SOL    HW134913   4.446   0.557   9.449
11027SOL    HW234914   4.454   0.478   9.577
11028SOL     OW34915  11.590   4.424  14.028
11028SOL    HW134916  11.625   4.510  14.005
11028SOL    HW234917  11.496   4.437  14.036
11029SOL     OW34918   0.254  11.421   2.243
11029SOL    HW134919   0.182  11.368   2.208
11029SOL    HW234920   0.220  11.510   2.244
11030SOL     OW34921   5.511  12.266   6.732
11030SOL    HW134922   5.474  12.262   6.644
11030SOL    HW234923   5.606  12.270   6.718
11031SOL     OW34924  13.236   9.912  11.472
11031SOL    HW134925  13.251   9.976  11.402
11031SOL    HW234926  13.152   9.937  11.510
11032SOL     OW34927   6.095   9.953   7.001
11032SOL    HW134928   6.092   9.896   6.924
11032SOL    HW234929   6.188   9.958   7.023
11033SOL     OW34930  14.026   5.527  10.265
11033SOL    HW134931  14.086   5.455  10.281
11033SOL    HW234932  13.963   5.523  10.337
11034SOL     OW34933   2.887   5.115   2.124
11034SOL    HW134934   2.869   5.101   2.030
11034SOL    HW234935   2.907   5.028   2.157
11035SOL     OW34936  14.184  10.331   8.142
11035SOL    HW134937  14.160  10.422   8.125
11035SOL    HW234938  14.113  10.279   8.103
11036SOL     OW34939   6.328   5.450  11.741
11036SOL    HW134940   6.268   5.522  11.760
11036SOL    HW234941   6.359   5.422  11.828
11037SOL     OW34942   7.923   3.938   6.663
11037SOL    HW134943   7.856   3.941   6.595
11037SOL    HW234944   7.975   3.861   6.643
11038SOL     OW34945  10.354   6.223   4.717
11038SOL    HW134946  10.345   6.251   4.808
11038SOL    HW234947  10.364   6.304   4.668
11039SOL     OW34948  11.637   0.855   1.716
11039SOL    HW134949  11.552   0.870   1.676
11039SOL    HW234950  11.656   0.763   1.699
11040SOL     OW34951   8.809  11.466   0.664
11040SOL    HW134952   8.892  11.468   0.617
11040SOL    HW234953   8.742  11.469   0.596
11041SOL     OW34954  10.054   1.300   9.181
11041SOL    HW134955  10.023   1.388   9.202
11041SOL    HW234956  10.117   1.280   9.250
11042SOL     OW34957   8.803   6.107  11.297
11042SOL    HW134958   8.733   6.076  11.355
11042SOL    HW234959   8.763   6.110  11.210
11043SOL     OW34960  10.000   5.630  11.214
11043SOL    HW134961  10.075   5.591  11.170
11043SOL    HW234962  10.031   5.645  11.304
11044SOL     OW34963  14.158   5.712  14.583
11044SOL    HW134964  14.065   5.687  14.586
11044SOL    HW234965  14.160   5.799  14.622
11045SOL     OW34966  11.855   2.203   4.382
11045SOL    HW134967  11.769   2.177   4.347
11045SOL    HW234968  11.905   2.229   4.305
11046SOL     OW34969   8.984   0.194   1.768
11046SOL    HW134970   9.032   0.274   1.787
11046SOL    HW234971   8.959   0.202   1.676
11047SOL     OW34972   1.953   4.720  11.785
11047SOL    HW134973   1.893   4.794  11.795
11047SOL    HW234974   1.895   4.644  11.773
11048SOL     OW34975  11.930   1.502  11.080
11048SOL    HW134976  11.893   1.414  11.071
11048SOL    HW234977  12.024   1.490  11.067
11049SOL     OW34978   2.141  11.715   6.436
11049SOL    HW134979   2.184  11.696   6.520
11049SOL    HW234980   2.062  11.763   6.460
11050SOL     OW34981   0.056   4.165   4.143
11050SOL    HW134982   0.119   4.176   4.214
11050SOL    HW234983  14.860   4.225   4.165
11051SOL     OW34984  11.715  14.650  11.835
11051SOL    HW134985  11.788  14.644  11.773
11051SOL    HW234986  11.721  14.570  11.887
11052SOL     OW34987   7.528  10.448   8.230
11052SOL    HW134988   7.485  10.365   8.211
11052SOL    HW234989   7.495  10.508   8.164
11053SOL     OW34990  11.377   9.375   8.362
11053SOL    HW134991  11.367   9.304   8.425
11053SOL    HW234992  11.441   9.434   8.402
11054SOL     OW34993  10.798   3.172   5.122
11054SOL    HW134994  10.704   3.165   5.141
11054SOL    HW234995  10.826   3.083   5.102
11055SOL     OW34996   3.215   3.816  11.819
11055SOL    HW134997   3.258   3.760  11.755
11055SOL    HW234998   3.126   3.828  11.785
11056SOL     OW34999  12.211   1.378  14.103
11056SOL    HW135000  12.171   1.294  14.081
11056SOL    HW235001  12.170   1.403  14.186
11057SOL     OW35002  12.857   9.288  14.766
11057SOL    HW135003  12.928   9.340  14.728
11057SOL    HW235004  12.867   9.300  14.861
11058SOL     OW35005  10.129  13.635   9.653
11058SOL    HW135006  10.194  13.705   9.664
11058SOL    HW235007  10.177  13.564   9.612
11059SOL     OW35008  12.643   8.189  14.678
11059SOL    HW135009  12.577   8.160  14.742
11059SOL    HW235010  12.726   8.163  14.716
11060SOL     OW35011   1.086   0.698  11.755
11060SOL    HW135012   1.138   0.634  11.804
11060SOL    HW235013   1.132   0.780  11.767
11061SOL     OW35014   9.921   4.291  11.087
11061SOL    HW135015   9.928   4.360  11.153
11061SOL    HW235016   9.935   4.337  11.004
11062SOL     OW35017   1.147   8.630  13.068
11062SOL    HW135018   1.074   8.644  13.129
11062SOL    HW235019   1.180   8.718  13.051
11063SOL     OW35020   4.034  14.427   2.118
11063SOL    HW135021   3.954  14.392   2.157
11063SOL    HW235022   4.063  14.359   2.058
11064SOL     OW35023  10.733   5.003   5.861
11064SOL    HW135024  10.802   4.957   5.813
11064SOL    HW235025  10.651   4.967   5.826
11065SOL     OW35026   8.887  13.105   3.377
11065SOL    HW135027   8.847  13.025   3.412
11065SOL    HW235028   8.841  13.176   3.421
11066SOL     OW35029   9.653   0.859   8.609
11066SOL    HW135030   9.595   0.932   8.588
11066SOL    HW235031   9.666   0.864   8.704
11067SOL     OW35032  10.873   4.709  12.768
11067SOL    HW135033  10.959   4.667  12.761
11067SOL    HW235034  10.835   4.700  12.681
11068SOL     OW35035  10.851   5.900   5.890
11068SOL    HW135036  10.793   5.908   5.814
11068SOL    HW235037  10.858   5.806   5.905
11069SOL     OW35038   7.838   3.422   0.773
11069SOL    HW135039   7.748   3.451   0.760
11069SOL    HW235040   7.889   3.503   0.783
11070SOL     OW35041   3.637   3.315  10.281
11070SOL    HW135042   3.546   3.334  10.302
11070SOL    HW235043   3.687   3.369  10.342
11071SOL     OW35044  11.335   7.311   1.073
11071SOL    HW135045  11.260   7.368   1.056
11071SOL    HW235046  11.329   7.243   1.006
11072SOL     OW35047   0.854  12.861   6.026
11072SOL    HW135048   0.885  12.857   5.935
11072SOL    HW235049   0.795  12.786   6.034
11073SOL     OW35050   3.708   7.354   5.712
11073SOL    HW135051   3.695   7.367   5.618
11073SOL    HW235052   3.701   7.441   5.751
11074SOL     OW35053   8.318   7.923   8.422
11074SOL    HW135054   8.351   7.833   8.418
11074SOL    HW235055   8.327   7.956   8.332
11075SOL     OW35056   6.264  12.015   3.794
11075SOL    HW135057   6.312  12.058   3.865
11075SOL    HW235058   6.199  11.961   3.838
11076SOL     OW35059   1.273   5.716   4.986
11076SOL    HW135060   1.266   5.683   4.896
11076SOL    HW235061   1.216   5.792   4.989
11077SOL     OW35062   1.931  13.667  14.505
11077SOL    HW135063   1.851  13.641  14.550
11077SOL    HW235064   1.962  13.745  14.552
11078SOL     OW35065  11.555  10.389   0.431
11078SOL    HW135066  11.520  10.473   0.400
11078SOL    HW235067  11.479  10.342   0.464
11079SOL     OW35068  10.714   8.753   0.604
11079SOL    HW135069  10.777   8.683   0.587
11079SOL    HW235070  10.690   8.786   0.518
11080SOL     OW35071   7.307   8.607   0.124
11080SOL    HW135072   7.343   8.520   0.137
11080SOL    HW235073   7.268   8.605   0.037
11081SOL     OW35074   9.242   7.808   2.790
11081SOL    HW135075   9.292   7.874   2.838
11081SOL    HW235076   9.286   7.725   2.809
11082SOL     OW35077  11.167   7.106  11.649
11082SOL    HW135078  11.167   7.173  11.581
11082SOL    HW235079  11.259   7.086  11.663
11083SOL     OW35080   0.094   0.673   3.498
11083SOL    HW135081   0.092   0.767   3.516
11083SOL    HW235082   0.006   0.642   3.520
11084SOL     OW35083   5.358  13.748   7.247
11084SOL    HW135084   5.440  13.795   7.237
11084SOL    HW235085   5.332  13.726   7.158
11085SOL     OW35086   6.943   2.967   2.452
11085SOL    HW135087   6.954   2.873   2.466
11085SOL    HW235088   6.914   3.001   2.537
11086SOL     OW35089   4.393   4.113   2.887
11086SOL    HW135090   4.327   4.045   2.893
11086SOL    HW235091   4.379   4.153   2.801
11087SOL     OW35092  11.236   5.611  11.159
11087SOL    HW135093  11.177   5.635  11.088
11087SOL    HW235094  11.319   5.654  11.137
11088SOL     OW35095   7.005   7.597  13.632
11088SOL    HW135096   6.958   7.647  13.565
11088SOL    HW235097   7.039   7.520  13.586
11089SOL     OW35098  11.748   0.913   2.235
11089SOL    HW135099  11.741   0.945   2.146
11089SOL    HW235100  11.837   0.878   2.241
11090SOL     OW35101  12.001   6.411   5.117
11090SOL    HW135102  11.920   6.360   5.117
11090SOL    HW235103  11.972   6.503   5.119
11091SOL     OW35104  14.075  10.900   2.500
11091SOL    HW135105  14.035  10.854   2.574
11091SOL    HW235106  14.002  10.922   2.442
11092SOL     OW35107   9.251   0.090  12.437
11092SOL    HW135108   9.246   0.031  12.362
11092SOL    HW235109   9.310   0.160  12.409
11093SOL     OW35110   8.198   1.510   4.491
11093SOL    HW135111   8.182   1.450   4.564
11093SOL    HW235112   8.253   1.579   4.529
11094SOL     OW35113   6.944  14.203   1.491
11094SOL    HW135114   6.933  14.225   1.399
11094SOL    HW235115   7.012  14.135   1.492
11095SOL     OW35116   9.895  12.088   8.044
11095SOL    HW135117   9.910  12.005   7.998
11095SOL    HW235118   9.913  12.155   7.978
11096SOL     OW35119   1.727   7.227   9.110
11096SOL    HW135120   1.736   7.152   9.168
11096SOL    HW235121   1.791   7.211   9.040
11097SOL     OW35122   4.566   6.626  10.270
11097SOL    HW135123   4.597   6.656  10.184
11097SOL    HW235124   4.639   6.576  10.306
11098SOL     OW35125   9.752   3.528   6.613
11098SOL    HW135126   9.686   3.581   6.568
11098SOL    HW235127   9.730   3.438   6.590
11099SOL     OW35128  14.280   3.651  10.594
11099SOL    HW135129  14.313   3.702  10.520
11099SOL    HW235130  14.313   3.562  10.578
11100SOL     OW35131   3.316  10.629   6.113
11100SOL    HW135132   3.378  10.668   6.052
11100SOL    HW235133   3.351  10.542   6.132
11101SOL     OW35134   3.871  12.900   8.744
11101SOL    HW135135   3.941  12.835   8.737
11101SOL    HW235136   3.794  12.856   8.709
11102SOL     OW35137  14.814  14.785   7.789
11102SOL    HW135138  14.794  14.760   7.879
11102SOL    HW235139   0.015  14.732   7.766
11103SOL     OW35140   4.288   7.797   6.409
11103SOL    HW135141   4.376   7.808   6.372
11103SOL    HW235142   4.301   7.799   6.504
11104SOL     OW35143  11.599  14.440  10.108
11104SOL    HW135144  11.690  14.459  10.089
11104SOL    HW235145  11.549  14.501  10.054
11105SOL     OW35146   0.466   6.139   6.859
11105SOL    HW135147   0.461   6.060   6.914
11105SOL    HW235148   0.446   6.210   6.919
11106SOL     OW35149  11.038  14.652   3.485
11106SOL    HW135150  11.120  14.691   3.454
11106SOL    HW235151  11.064  14.596   3.558
11107SOL     OW35152   4.451   1.406  13.803
11107SOL    HW135153   4.528   1.411  13.860
11107SOL    HW235154   4.384   1.364  13.857
11108SOL     OW35155   2.975   4.352  10.883
11108SOL    HW135156   2.932   4.408  10.818
11108SOL    HW235157   3.050   4.315  10.836
11109SOL     OW35158   7.844   1.662   1.863
11109SOL    HW135159   7.767   1.686   1.913
11109SOL    HW235160   7.827   1.695   1.775
11110SOL     OW35161   7.909   7.225   4.999
11110SOL    HW135162   7.870   7.310   5.018
11110SOL    HW235163   7.979   7.215   5.063
11111SOL     OW35164   3.580   1.528   9.649
11111SOL    HW135165   3.611   1.609   9.691
11111SOL    HW235166   3.579   1.549   9.555
11112SOL     OW35167  14.700   7.410   7.672
11112SOL    HW135168  14.653   7.354   7.733
11112SOL    HW235169  14.774   7.443   7.723
11113SOL     OW35170   9.599   6.007   5.728
11113SOL    HW135171   9.548   6.040   5.802
11113SOL    HW235172   9.601   6.081   5.666
11114SOL     OW35173  14.264   1.330   2.384
11114SOL    HW135174  14.204   1.317   2.458
11114SOL    HW235175  14.323   1.400   2.414
11115SOL     OW35176   7.807  13.720  11.963
11115SOL    HW135177   7.801  13.768  12.046
11115SOL    HW235178   7.720  13.682  11.952
11116SOL     OW35179   4.554  12.731   3.061
11116SOL    HW135180   4.490  12.694   3.122
11116SOL    HW235181   4.522  12.705   2.975
11117SOL     OW35182   6.336   4.722   3.337
11117SOL    HW135183   6.305   4.732   3.247
11117SOL    HW235184   6.332   4.628   3.354
11118SOL     OW35185   5.159  13.191   7.492
11118SOL    HW135186   5.209  13.214   7.413
11118SOL    HW235187   5.091  13.259   7.498
11119SOL     OW35188   6.044   4.740  13.489
11119SOL    HW135189   5.993   4.821  13.486
11119SOL    HW235190   6.100   4.749  13.566
11120SOL     OW35191  11.668   2.513   9.544
11120SOL    HW135192  11.617   2.574   9.596
11120SOL    HW235193  11.617   2.500   9.464
11121SOL     OW35194  12.340  12.716  13.404
11121SOL    HW135195  12.420  12.667  13.383
11121SOL    HW235196  12.284  12.704  13.328
11122SOL     OW35197   8.716   9.619   6.576
11122SOL    HW135198   8.793   9.676   6.574
11122SOL    HW235199   8.680   9.625   6.487
11123SOL     OW35200   0.129   5.363   9.677
11123SOL    HW135201   0.102   5.427   9.742
11123SOL    HW235202   0.223   5.378   9.667
11124SOL     OW35203   0.439   9.823   6.224
11124SOL    HW135204   0.504   9.878   6.268
11124SOL    HW235205   0.404   9.879   6.154
11125SOL     OW35206   3.876   3.094  13.921
11125SOL    HW135207   3.857   3.176  13.967
11125SOL    HW235208   3.960   3.110  13.878
11126SOL     OW35209   3.168   0.726  14.631
11126SOL    HW135210   3.191   0.807  14.585
11126SOL    HW235211   3.251   0.694  14.666
11127SOL     OW35212   8.405  12.754   7.559
11127SOL    HW135213   8.467  12.741   7.630
11127SOL    HW235214   8.411  12.847   7.538
11128SOL     OW35215   8.425  14.297  10.682
11128SOL    HW135216   8.426  14.378  10.632
11128SOL    HW235217   8.467  14.319  10.765
11129SOL     OW35218   1.036   5.455   7.952
11129SOL    HW135219   0.997   5.472   7.866
11129SOL    HW235220   0.992   5.515   8.011
11130SOL     OW35221   4.776   5.182   6.919
11130SOL    HW135222   4.825   5.246   6.971
11130SOL    HW235223   4.833   5.161   6.845
11131SOL     OW35224   3.305   0.991   6.790
11131SOL    HW135225   3.330   1.046   6.716
11131SOL    HW235226   3.291   0.904   6.752
11132SOL     OW35227   3.167   4.899   2.008
11132SOL    HW135228   3.212   4.975   1.972
11132SOL    HW235229   3.101   4.876   1.942
11133SOL     OW35230  10.191   6.253   0.574
11133SOL    HW135231  10.141   6.233   0.653
11133SOL    HW235232  10.150   6.201   0.505
11134SOL     OW35233  11.146   7.708  12.671
11134SOL    HW135234  11.116   7.741  12.756
11134SOL    HW235235  11.214   7.769  12.644
11135SOL     OW35236  10.270  13.074   1.437
11135SOL    HW135237  10.245  13.047   1.526
11135SOL    HW235238  10.341  13.014   1.413
11136SOL     OW35239   0.658  11.282   1.815
11136SOL    HW135240   0.638  11.365   1.859
11136SOL    HW235241   0.576  11.233   1.819
11137SOL     OW35242   3.101   0.191  13.868
11137SOL    HW135243   3.146   0.143  13.799
11137SOL    HW235244   3.113   0.138  13.946
11138SOL     OW35245   0.809   2.162   2.299
11138SOL    HW135246   0.891   2.188   2.341
11138SOL    HW235247   0.831   2.151   2.207
11139SOL     OW35248   6.021   2.375   6.647
11139SOL    HW135249   5.947   2.342   6.596
11139SOL    HW235250   6.091   2.311   6.632
11140SOL     OW35251   8.340   3.215   1.064
11140SOL    HW135252   8.281   3.273   1.114
11140SOL    HW235253   8.282   3.167   1.005
11141SOL     OW35254   8.669   0.756   7.817
11141SOL    HW135255   8.760   0.738   7.840
11141SOL    HW235256   8.675   0.813   7.739
11142SOL     OW35257   1.620  11.982   2.039
11142SOL    HW135258   1.597  11.890   2.025
11142SOL    HW235259   1.574  12.029   1.970
11143SOL     OW35260   6.354   5.461   3.200
11143SOL    HW135261   6.310   5.378   3.219
11143SOL    HW235262   6.402   5.445   3.119
11144SOL     OW35263  13.673  12.403   3.205
11144SOL    HW135264  13.700  12.406   3.297
11144SOL    HW235265  13.610  12.474   3.197
11145SOL     OW35266   5.473  14.556  10.425
11145SOL    HW135267   5.476  14.621  10.354
11145SOL    HW235268   5.433  14.479  10.385
11146SOL     OW35269   6.750  10.745  13.951
11146SOL    HW135270   6.746  10.737  14.047
11146SOL    HW235271   6.798  10.667  13.923
11147SOL     OW35272  11.772  11.884   3.145
11147SOL    HW135273  11.712  11.912   3.076
11147SOL    HW235274  11.857  11.874   3.102
11148SOL     OW35275   4.981  12.403   9.204
11148SOL    HW135276   4.970  12.434   9.114
11148SOL    HW235277   5.015  12.313   9.194
11149SOL     OW35278   8.554   6.034   6.542
11149SOL    HW135279   8.578   5.953   6.496
11149SOL    HW235280   8.635   6.062   6.585
11150SOL     OW35281  12.254   3.951   4.680
11150SOL    HW135282  12.285   4.015   4.616
11150SOL    HW235283  12.244   4.001   4.761
11151SOL     OW35284  13.613   2.166   4.007
11151SOL    HW135285  13.674   2.144   4.077
11151SOL    HW235286  13.668   2.177   3.929
11152SOL     OW35287   4.744  11.782  10.874
11152SOL    HW135288   4.653  11.774  10.845
11152SOL    HW235289   4.740  11.785  10.969
11153SOL     OW35290   6.693   4.336  14.634
11153SOL    HW135291   6.723   4.395  14.564
11153SOL    HW235292   6.598   4.348  14.637
11154SOL     OW35293   4.550   5.741   8.649
11154SOL    HW135294   4.540   5.728   8.744
11154SOL    HW235295   4.632   5.788   8.640
11155SOL     OW35296  12.757   2.575   6.155
11155SOL    HW135297  12.764   2.633   6.231
11155SOL    HW235298  12.734   2.490   6.193
11156SOL     OW35299  14.069   2.899   6.035
11156SOL    HW135300  14.111   2.972   6.080
11156SOL    HW235301  13.999   2.872   6.094
11157SOL     OW35302   6.576   9.623  13.423
11157SOL    HW135303   6.582   9.706  13.375
11157SOL    HW235304   6.538   9.646  13.508
11158SOL     OW35305  12.117   5.229   1.981
11158SOL    HW135306  12.053   5.300   1.973
11158SOL    HW235307  12.074   5.153   1.943
11159SOL     OW35308   7.173  11.212  11.984
11159SOL    HW135309   7.110  11.210  12.056
11159SOL    HW235310   7.177  11.304  11.959
11160SOL     OW35311   0.093  11.020   5.526
11160SOL    HW135312   0.069  11.078   5.453
11160SOL    HW235313   0.099  10.933   5.486
11161SOL     OW35314   7.836   4.348   6.906
11161SOL    HW135315   7.748   4.386   6.898
11161SOL    HW235316   7.822   4.254   6.898
11162SOL     OW35317   3.404   0.865  14.232
11162SOL    HW135318   3.496   0.867  14.204
11162SOL    HW235319   3.388   0.773  14.254
11163SOL     OW35320  11.733   7.953   6.769
11163SOL    HW135321  11.660   7.898   6.740
11163SOL    HW235322  11.710   8.041   6.739
11164SOL     OW35323   9.492   5.716   5.708
11164SOL    HW135324   9.410   5.728   5.756
11164SOL    HW235325   9.485   5.776   5.634
11165SOL     OW35326   5.714  14.021   3.186
11165SOL    HW135327   5.783  14.084   3.208
11165SOL    HW235328   5.719  14.012   3.091
11166SOL     OW35329  12.985  11.791  12.047
11166SOL    HW135330  13.043  11.843  12.103
11166SOL    HW235331  13.011  11.701  12.063
11167SOL     OW35332  11.291   0.676   6.191
11167SOL    HW135333  11.213   0.704   6.143
11167SOL    HW235334  11.292   0.581   6.181
11168SOL     OW35335  12.016  13.933  12.721
11168SOL    HW135336  12.070  13.996  12.769
11168SOL    HW235337  12.078  13.868  12.689
11169SOL     OW35338  13.371   5.421   5.171
11169SOL    HW135339  13.300   5.401   5.232
11169SOL    HW235340  13.339   5.390   5.086
11170SOL     OW35341   2.738  11.674   2.742
11170SOL    HW135342   2.729  11.591   2.695
11170SOL    HW235343   2.674  11.732   2.700
11171SOL     OW35344   8.009  14.159   6.368
11171SOL    HW135345   8.017  14.067   6.393
11171SOL    HW235346   7.941  14.159   6.300
11172SOL     OW35347   7.596   4.925   9.491
11172SOL    HW135348   7.654   4.905   9.565
11172SOL    HW235349   7.562   4.840   9.464
11173SOL     OW35350   7.565   3.534   9.076
11173SOL    HW135351   7.634   3.469   9.060
11173SOL    HW235352   7.597   3.614   9.034
11174SOL     OW35353  14.549  11.417   5.260
11174SOL    HW135354  14.558  11.322   5.273
11174SOL    HW235355  14.471  11.426   5.205
11175SOL     OW35356  13.903   0.102   3.237
11175SOL    HW135357  13.858   0.093   3.320
11175SOL    HW235358  13.958   0.024   3.230
11176SOL     OW35359   6.715   1.095   9.741
11176SOL    HW135360   6.653   1.026   9.764
11176SOL    HW235361   6.660   1.173   9.727
11177SOL     OW35362   8.418   6.542  10.611
11177SOL    HW135363   8.434   6.632  10.585
11177SOL    HW235364   8.354   6.548  10.681
11178SOL     OW35365   7.909  13.694  11.522
11178SOL    HW135366   7.848  13.621  11.534
11178SOL    HW235367   7.897  13.748  11.600
11179SOL     OW35368   0.620   1.159  14.483
11179SOL    HW135369   0.624   1.254  14.476
11179SOL    HW235370   0.656   1.140  14.570
11180SOL     OW35371   0.724   6.783  10.607
11180SOL    HW135372   0.741   6.877  10.613
11180SOL    HW235373   0.772   6.745  10.680
11181SOL     OW35374   2.474   7.417  13.798
11181SOL    HW135375   2.455   7.414  13.892
11181SOL    HW235376   2.569   7.408  13.792
11182SOL     OW35377   7.471   3.257  12.629
11182SOL    HW135378   7.537   3.322  12.606
11182SOL    HW235379   7.485   3.240  12.722
11183SOL     OW35380   6.710  14.753  12.452
11183SOL    HW135381   6.684  14.790  12.536
11183SOL    HW235382   6.775  14.686  12.475
11184SOL     OW35383   8.488   8.311  10.780
11184SOL    HW135384   8.575   8.299  10.742
11184SOL    HW235385   8.438   8.354  10.710
11185SOL     OW35386   4.643  13.511   8.568
11185SOL    HW135387   4.601  13.449   8.510
11185SOL    HW235388   4.640  13.594   8.521
11186SOL     OW35389  10.465   0.706   5.851
11186SOL    HW135390  10.533   0.750   5.799
11186SOL    HW235391  10.385   0.754   5.831
11187SOL     OW35392   7.489  13.220   6.099
11187SOL    HW135393   7.472  13.243   6.008
11187SOL    HW235394   7.559  13.279   6.127
11188SOL     OW35395   2.422  11.646  11.723
11188SOL    HW135396   2.344  11.662  11.775
11188SOL    HW235397   2.488  11.618  11.786
11189SOL     OW35398   1.577   8.578   2.979
11189SOL    HW135399   1.579   8.637   3.054
11189SOL    HW235400   1.490   8.540   2.979
11190SOL     OW35401   5.460  13.447   4.489
11190SOL    HW135402   5.430  13.479   4.574
11190SOL    HW235403   5.380  13.435   4.438
11191SOL     OW35404  13.134   0.453  14.737
11191SOL    HW135405  13.092   0.521  14.685
11191SOL    HW235406  13.073   0.437  14.809
11192SOL     OW35407   5.923   2.318   6.091
11192SOL    HW135408   5.908   2.329   6.185
11192SOL    HW235409   5.895   2.400   6.052
11193SOL     OW35410   4.007   8.162   2.294
11193SOL    HW135411   4.078   8.127   2.349
11193SOL    HW235412   4.027   8.255   2.287
11194SOL     OW35413   5.885  12.691  13.007
11194SOL    HW135414   5.967  12.676  13.054
11194SOL    HW235415   5.820  12.641  13.056
11195SOL     OW35416   2.885   0.802   3.896
11195SOL    HW135417   2.921   0.889   3.913
11195SOL    HW235418   2.949   0.741   3.932
11196SOL     OW35419  11.045   3.666   1.234
11196SOL    HW135420  11.002   3.624   1.308
11196SOL    HW235421  10.978   3.723   1.196
11197SOL     OW35422   5.069   2.743   9.463
11197SOL    HW135423   5.148   2.791   9.488
11197SOL    HW235424   5.092   2.702   9.380
11198SOL     OW35425  10.254  12.999   7.480
11198SOL    HW135426  10.305  13.074   7.512
11198SOL    HW235427  10.298  12.923   7.518
11199SOL     OW35428   5.712   0.772   1.736
11199SOL    HW135429   5.674   0.686   1.758
11199SOL    HW235430   5.796   0.773   1.781
11200SOL     OW35431   3.021   4.502  11.101
11200SOL    HW135432   3.051   4.590  11.078
11200SOL    HW235433   2.998   4.461  11.018
11201SOL     OW35434  10.066   4.910  13.234
11201SOL    HW135435  10.058   4.819  13.204
11201SOL    HW235436   9.977   4.944  13.233
11202SOL     OW35437   2.390  13.717   7.947
11202SOL    HW135438   2.361  13.730   8.038
11202SOL    HW235439   2.476  13.760   7.943
11203SOL     OW35440  13.759   1.273  12.929
11203SOL    HW135441  13.768   1.222  13.010
11203SOL    HW235442  13.778   1.363  12.956
11204SOL     OW35443   7.142   1.661   5.624
11204SOL    HW135444   7.146   1.731   5.688
11204SOL    HW235445   7.232   1.631   5.615
11205SOL     OW35446   7.380   4.955  14.853
11205SOL    HW135447   7.296   4.996  14.873
11205SOL    HW235448   7.358   4.867  14.824
11206SOL     OW35449   6.414   4.989   6.152
11206SOL    HW135450   6.502   4.986   6.191
11206SOL    HW235451   6.368   5.057   6.201
11207SOL     OW35452   0.633  13.735   7.730
11207SOL    HW135453   0.602  13.677   7.799
11207SOL    HW235454   0.596  13.820   7.752
11208SOL     OW35455  11.904   0.065   4.463
11208SOL    HW135456  11.930  14.850   4.446
11208SOL    HW235457  11.827   0.057   4.520
11209SOL     OW35458   0.794   7.136   4.732
11209SOL    HW135459   0.782   7.192   4.809
11209SOL    HW235460   0.789   7.196   4.658
11210SOL     OW35461  11.655   1.726  12.498
11210SOL    HW135462  11.600   1.683  12.563
11210SOL    HW235463  11.685   1.655  12.441
11211SOL     OW35464  11.263   3.823  14.142
11211SOL    HW135465  11.188   3.803  14.198
11211SOL    HW235466  11.321   3.875  14.197
11212SOL     OW35467   2.579   0.427   6.183
11212SOL    HW135468   2.562   0.340   6.146
11212SOL    HW235469   2.506   0.480   6.152
11213SOL     OW35470  14.264  14.241   7.136
11213SOL    HW135471  14.287  14.199   7.053
11213SOL    HW235472  14.170  14.225   7.145
11214SOL     OW35473   0.087  14.083   1.473
11214SOL    HW135474   0.114  13.998   1.438
11214SOL    HW235475  14.869  14.072   1.493
11215SOL     OW35476  10.986   4.234   5.687
11215SOL    HW135477  10.952   4.323   5.685
11215SOL    HW235478  11.028   4.223   5.601
11216SOL     OW35479  10.643   4.281   1.805
11216SOL    HW135480  10.691   4.255   1.883
11216SOL    HW235481  10.686   4.234   1.733
11217SOL     OW35482   2.444   1.636   4.324
11217SOL    HW135483   2.473   1.727   4.325
11217SOL    HW235484   2.420   1.620   4.233
11218SOL     OW35485  11.654  11.687   5.788
11218SOL    HW135486  11.689  11.710   5.702
11218SOL    HW235487  11.632  11.771   5.828
11219SOL     OW35488  14.822   3.794   3.331
11219SOL    HW135489   0.040   3.806   3.315
11219SOL    HW235490  14.817   3.717   3.388
11220SOL     OW35491   9.583   6.821   9.938
11220SOL    HW135492   9.572   6.769  10.017
11220SOL    HW235493   9.674   6.849   9.940
11221SOL     OW35494  10.399  14.230  12.095
11221SOL    HW135495  10.355  14.227  12.180
11221SOL    HW235496  10.492  14.222  12.116
11222SOL     OW35497  11.549   3.669   6.909
11222SOL    HW135498  11.602   3.731   6.859
11222SOL    HW235499  11.606   3.592   6.920
11223SOL     OW35500   9.742   7.603   4.356
11223SOL    HW135501   9.756   7.511   4.378
11223SOL    HW235502   9.692   7.638   4.430
11224SOL     OW35503  13.236  14.506   9.466
11224SOL    HW135504  13.191  14.580   9.425
11224SOL    HW235505  13.169  14.466   9.522
11225SOL     OW35506  13.342   2.404   4.683
11225SOL    HW135507  13.377   2.493   4.687
11225SOL    HW235508  13.412   2.350   4.721
11226SOL     OW35509  11.438   5.834  13.562
11226SOL    HW135510  11.419   5.878  13.479
11226SOL    HW235511  11.380   5.877  13.626
11227SOL     OW35512   2.707  10.757  10.899
11227SOL    HW135513   2.638  10.818  10.874
11227SOL    HW235514   2.738  10.788  10.984
11228SOL     OW35515   3.389   2.063   9.292
11228SOL    HW135516   3.372   1.983   9.242
11228SOL    HW235517   3.481   2.057   9.317
11229SOL     OW35518   5.953   9.966   8.013
11229SOL    HW135519   6.001  10.035   8.059
11229SOL    HW235520   5.937  10.003   7.926
11230SOL     OW35521   9.007  12.362  12.669
11230SOL    HW135522   8.929  12.315  12.699
11230SOL    HW235523   9.057  12.296  12.621
11231SOL     OW35524   8.528   3.852   0.925
11231SOL    HW135525   8.448   3.802   0.909
11231SOL    HW235526   8.577   3.847   0.843
11232SOL     OW35527  11.053   8.171   8.514
11232SOL    HW135528  11.111   8.148   8.442
11232SOL    HW235529  11.079   8.113   8.586
11233SOL     OW35530   1.378   7.560  11.011
11233SOL    HW135531   1.362   7.509  10.932
11233SOL    HW235532   1.357   7.650  10.987
11234SOL     OW35533  11.733   9.199   1.616
11234SOL    HW135534  11.658   9.258   1.609
11234SOL    HW235535  11.788   9.239   1.683
11235SOL     OW35536   8.338   7.546   4.453
11235SOL    HW135537   8.423   7.521   4.417
11235SOL    HW235538   8.343   7.641   4.463
11236SOL     OW35539  10.482   0.883   0.385
11236SOL    HW135540  10.441   0.948   0.442
11236SOL    HW235541  10.541   0.934   0.329
11237SOL     OW35542   1.662   8.816   3.711
11237SOL    HW135543   1.613   8.739   3.684
11237SOL    HW235544   1.753   8.795   3.690
11238SOL     OW35545  11.671   9.328  10.641
11238SOL    HW135546  11.584   9.347  10.677
11238SOL    HW235547  11.658   9.326  10.547
11239SOL     OW35548  10.456  10.159   9.987
11239SOL    HW135549  10.503  10.090  10.034
11239SOL    HW235550  10.368  10.124   9.974
11240SOL     OW35551   3.669   4.389   7.418
11240SOL    HW135552   3.610   4.420   7.487
11240SOL    HW235553   3.756   4.420   7.445
11241SOL     OW35554   2.632   4.892  10.577
11241SOL    HW135555   2.555   4.845  10.610
11241SOL    HW235556   2.597   4.975  10.546
11242SOL     OW35557  14.184   9.816  14.016
11242SOL    HW135558  14.246   9.759  14.061
11242SOL    HW235559  14.116   9.833  14.080
11243SOL     OW35560   8.486   5.170   8.522
11243SOL    HW135561   8.503   5.157   8.428
11243SOL    HW235562   8.471   5.082   8.556
11244SOL     OW35563   1.717   4.959   4.606
11244SOL    HW135564   1.807   4.939   4.633
11244SOL    HW235565   1.690   5.030   4.664
11245SOL     OW35566   0.745  11.890   7.806
11245SOL    HW135567   0.785  11.807   7.780
11245SOL    HW235568   0.799  11.957   7.765
11246SOL     OW35569  12.950   0.032   0.822
11246SOL    HW135570  12.880   0.020   0.758
11246SOL    HW235571  13.006   0.100   0.784
11247SOL     OW35572   9.051   7.712  12.737
11247SOL    HW135573   8.959   7.719  12.713
11247SOL    HW235574   9.052   7.717  12.833
11248SOL     OW35575  12.443   5.476  10.660
11248SOL    HW135576  12.463   5.399  10.713
11248SOL    HW235577  12.378   5.524  10.711
11249SOL     OW35578   4.403   1.791   3.912
11249SOL    HW135579   4.428   1.866   3.966
11249SOL    HW235580   4.414   1.822   3.822
11250SOL     OW35581   7.874   8.824   6.881
11250SOL    HW135582   7.909   8.895   6.936
11250SOL    HW235583   7.822   8.771   6.942
11251SOL     OW35584   7.010   0.253   3.110
11251SOL    HW135585   6.937   0.245   3.049
11251SOL    HW235586   7.064   0.175   3.093
11252SOL     OW35587   3.187  14.443   1.333
11252SOL    HW135588   3.243  14.510   1.373
11252SOL    HW235589   3.125  14.492   1.279
11253SOL     OW35590   5.362  14.233   1.842
11253SOL    HW135591   5.279  14.278   1.824
11253SOL    HW235592   5.366  14.163   1.776
11254SOL     OW35593  14.725   8.878   8.213
11254SOL    HW135594  14.727   8.897   8.307
11254SOL    HW235595  14.674   8.949   8.175
11255SOL     OW35596   5.471  10.552   9.174
11255SOL    HW135597   5.543  10.494   9.199
11255SOL    HW235598   5.430  10.577   9.257
11256SOL     OW35599   8.080   3.629  10.063
11256SOL    HW135600   7.995   3.667  10.042
11256SOL    HW235601   8.144   3.688  10.024
11257SOL     OW35602   6.063   2.278  11.020
11257SOL    HW135603   6.104   2.364  11.010
11257SOL    HW235604   6.032   2.256  10.932
11258SOL     OW35605   9.495   3.443   5.283
11258SOL    HW135606   9.527   3.428   5.194
11258SOL    HW235607   9.567   3.489   5.327
11259SOL     OW35608   4.025   8.427   7.174
11259SOL    HW135609   3.953   8.464   7.226
11259SOL    HW235610   4.100   8.483   7.193
11260SOL     OW35611   4.404   2.029  10.462
11260SOL    HW135612   4.406   2.098  10.395
11260SOL    HW235613   4.414   2.077  10.545
11261SOL     OW35614  14.219   5.951  10.627
11261SOL    HW135615  14.178   6.012  10.566
11261SOL    HW235616  14.270   6.007  10.686
11262SOL     OW35617  12.027   8.438  10.939
11262SOL    HW135618  11.985   8.366  10.893
11262SOL    HW235619  11.956   8.483  10.985
11263SOL     OW35620  14.233   4.119  10.015
11263SOL    HW135621  14.159   4.167   9.978
11263SOL    HW235622  14.217   4.028   9.991
11264SOL     OW35623   0.396   7.278   8.539
11264SOL    HW135624   0.395   7.186   8.565
11264SOL    HW235625   0.306   7.307   8.548
11265SOL     OW35626  12.115  10.208   8.697
11265SOL    HW135627  12.026  10.212   8.733
11265SOL    HW235628  12.137  10.115   8.699
11266SOL     OW35629   5.356   2.307   9.516
11266SOL    HW135630   5.377   2.219   9.547
11266SOL    HW235631   5.279   2.295   9.459
11267SOL     OW35632   6.109   9.805  12.497
11267SOL    HW135633   6.031   9.796  12.552
11267SOL    HW235634   6.171   9.855  12.550
11268SOL     OW35635   6.607   5.129  11.993
11268SOL    HW135636   6.532   5.075  12.017
11268SOL    HW235637   6.676   5.067  11.972
11269SOL     OW35638  12.425   0.927   6.999
11269SOL    HW135639  12.347   0.901   6.949
11269SOL    HW235640  12.482   0.969   6.934
11270SOL     OW35641  13.104   0.292   4.978
11270SOL    HW135642  13.029   0.241   5.010
11270SOL    HW235643  13.181   0.246   5.010
11271SOL     OW35644   0.788   9.822   4.057
11271SOL    HW135645   0.826   9.887   4.116
11271SOL    HW235646   0.722   9.870   4.007
11272SOL     OW35647   3.051  14.495  12.586
11272SOL    HW135648   3.125  14.515  12.643
11272SOL    HW235649   2.994  14.440  12.639
11273SOL     OW35650   8.306   5.813   0.030
11273SOL    HW135651   8.277   5.819   0.121
11273SOL    HW235652   8.401   5.825   0.035
11274SOL     OW35653   0.601   5.843   0.739
11274SOL    HW135654   0.627   5.924   0.695
11274SOL    HW235655   0.640   5.773   0.687
11275SOL     OW35656   8.923   2.271  11.587
11275SOL    HW135657   8.983   2.213  11.633
11275SOL    HW235658   8.978   2.323  11.529
11276SOL     OW35659   8.344   7.271   4.743
11276SOL    HW135660   8.363   7.357   4.706
11276SOL    HW235661   8.340   7.285   4.837
11277SOL     OW35662  11.173   3.973   8.105
11277SOL    HW135663  11.100   3.911   8.107
11277SOL    HW235664  11.221   3.951   8.025
11278SOL     OW35665   5.790   0.753   2.256
11278SOL    HW135666   5.749   0.800   2.183
11278SOL    HW235667   5.805   0.664   2.222
11279SOL     OW35668   8.879  10.183   2.859
11279SOL    HW135669   8.876  10.187   2.763
11279SOL    HW235670   8.809  10.242   2.888
11280SOL     OW35671   6.012   0.390   7.691
11280SOL    HW135672   5.951   0.336   7.641
11280SOL    HW235673   5.986   0.379   7.782
11281SOL     OW35674   7.496  11.581   1.921
11281SOL    HW135675   7.526  11.645   1.856
11281SOL    HW235676   7.454  11.512   1.869
11282SOL     OW35677  13.167  13.615  12.283
11282SOL    HW135678  13.199  13.530  12.254
11282SOL    HW235679  13.129  13.598  12.370
11283SOL     OW35680   5.895  11.050  11.800
11283SOL    HW135681   5.972  11.060  11.857
11283SOL    HW235682   5.919  10.978  11.741
11284SOL     OW35683   7.647   5.962   0.581
11284SOL    HW135684   7.617   5.978   0.670
11284SOL    HW235685   7.693   6.042   0.556
11285SOL     OW35686   4.600   4.004  10.000
11285SOL    HW135687   4.662   3.934   9.979
11285SOL    HW235688   4.619   4.026  10.092
11286SOL     OW35689  11.531  11.558  10.406
11286SOL    HW135690  11.557  11.472  10.374
11286SOL    HW235691  11.546  11.617  10.333
11287SOL     OW35692   9.340   2.102  13.416
11287SOL    HW135693   9.376   2.168  13.356
11287SOL    HW235694   9.367   2.131  13.503
11288SOL     OW35695   2.178   2.669   2.112
11288SOL    HW135696   2.253   2.629   2.155
11288SOL    HW235697   2.103   2.641   2.165
11289SOL     OW35698  11.531  10.159   1.466
11289SOL    HW135699  11.584  10.085   1.497
11289SOL    HW235700  11.453  10.119   1.427
11290SOL     OW35701  12.317   1.960   9.686
11290SOL    HW135702  12.380   2.031   9.698
11290SOL    HW235703  12.249   1.978   9.750
11291SOL     OW35704  10.731   2.535  13.007
11291SOL    HW135705  10.749   2.618  12.962
11291SOL    HW235706  10.658   2.497  12.958
11292SOL     OW35707   9.822   2.849  11.491
11292SOL    HW135708   9.893   2.849  11.426
11292SOL    HW235709   9.851   2.911  11.558
11293SOL     OW35710  12.305   0.761   9.926
11293SOL    HW135711  12.278   0.669   9.939
11293SOL    HW235712  12.385   0.770   9.978
11294SOL     OW35713   6.632   4.812   9.056
11294SOL    HW135714   6.630   4.859   8.973
11294SOL    HW235715   6.708   4.849   9.102
11295SOL     OW35716  13.707   0.593   9.605
11295SOL    HW135717  13.770   0.665   9.605
11295SOL    HW235718  13.758   0.516   9.627
11296SOL     OW35719   1.982  12.114   5.347
11296SOL    HW135720   1.963  12.021   5.340
11296SOL    HW235721   2.061  12.118   5.402
11297SOL     OW35722  12.689  10.164   5.808
11297SOL    HW135723  12.780  10.150   5.783
11297SOL    HW235724  12.650  10.077   5.807
11298SOL     OW35725   8.634   6.435  13.317
11298SOL    HW135726   8.619   6.354  13.269
11298SOL    HW235727   8.603   6.417  13.405
11299SOL     OW35728   6.975   5.522   5.046
11299SOL    HW135729   6.947   5.492   4.960
11299SOL    HW235730   6.986   5.443   5.098
11300SOL     OW35731   1.298   8.717  11.193
11300SOL    HW135732   1.265   8.802  11.164
11300SOL    HW235733   1.337   8.734  11.279
11301SOL     OW35734   3.183   1.705   4.864
11301SOL    HW135735   3.232   1.767   4.810
11301SOL    HW235736   3.180   1.746   4.950
11302SOL     OW35737  10.766   6.026   6.587
11302SOL    HW135738  10.696   5.970   6.554
11302SOL    HW235739  10.841   6.007   6.531
11303SOL     OW35740   8.914   1.902  12.247
11303SOL    HW135741   8.960   1.831  12.202
11303SOL    HW235742   8.962   1.916  12.328
11304SOL     OW35743  10.086  12.958   0.797
11304SOL    HW135744  10.177  12.975   0.823
11304SOL    HW235745  10.081  12.989   0.706
11305SOL     OW35746  12.599   0.114   5.115
11305SOL    HW135747  12.631   0.079   5.031
11305SOL    HW235748  12.522   0.061   5.135
11306SOL     OW35749  13.398   3.362  13.455
11306SOL    HW135750  13.351   3.431  13.503
11306SOL    HW235751  13.368   3.281  13.496
11307SOL     OW35752   2.999   0.956  13.481
11307SOL    HW135753   2.953   0.999  13.408
11307SOL    HW235754   3.088   0.943  13.448
11308SOL     OW35755  10.190   5.525  11.935
11308SOL    HW135756  10.230   5.574  11.863
11308SOL    HW235757  10.263   5.502  11.992
11309SOL     OW35758   7.097   2.232   1.839
11309SOL    HW135759   7.112   2.201   1.750
11309SOL    HW235760   7.018   2.286   1.833
11310SOL     OW35761   5.556  13.806   2.282
11310SOL    HW135762   5.465  13.824   2.305
11310SOL    HW235763   5.557  13.714   2.256
11311SOL     OW35764  12.218  11.238   0.431
11311SOL    HW135765  12.186  11.295   0.362
11311SOL    HW235766  12.150  11.243   0.499
11312SOL     OW35767   4.518   1.231   3.786
11312SOL    HW135768   4.592   1.204   3.840
11312SOL    HW235769   4.497   1.319   3.817
11313SOL     OW35770  11.479   0.118   5.005
11313SOL    HW135771  11.501   0.025   5.004
11313SOL    HW235772  11.418   0.129   4.932
11314SOL     OW35773   0.753   3.242  11.953
11314SOL    HW135774   0.760   3.324  12.001
11314SOL    HW235775   0.731   3.269  11.864
11315SOL     OW35776   5.271   4.457  10.196
11315SOL    HW135777   5.280   4.500  10.280
11315SOL    HW235778   5.245   4.367  10.218
11316SOL     OW35779  10.687   0.706   7.116
11316SOL    HW135780  10.714   0.642   7.182
11316SOL    HW235781  10.594   0.721   7.133
11317SOL     OW35782  14.125   6.124   8.393
11317SOL    HW135783  14.134   6.089   8.304
11317SOL    HW235784  14.045   6.177   8.390
11318SOL     OW35785  13.097   7.534  11.097
11318SOL    HW135786  13.031   7.600  11.078
11318SOL    HW235787  13.107   7.485  11.015
11319SOL     OW35788  12.600  12.097  11.824
11319SOL    HW135789  12.668  12.064  11.882
11319SOL    HW235790  12.518  12.070  11.865
11320SOL     OW35791  12.801   9.336  10.437
11320SOL    HW135792  12.863   9.346  10.509
11320SOL    HW235793  12.786   9.241  10.432
11321SOL     OW35794  14.611   8.344   2.831
11321SOL    HW135795  14.632   8.384   2.746
11321SOL    HW235796  14.656   8.259   2.828
11322SOL     OW35797   5.986   0.332   4.590
11322SOL    HW135798   5.957   0.395   4.524
11322SOL    HW235799   5.999   0.383   4.669
11323SOL     OW35800  12.996  12.002  11.531
11323SOL    HW135801  12.988  12.075  11.470
11323SOL    HW235802  12.925  12.016  11.595
11324SOL     OW35803   0.553  13.207  14.851
11324SOL    HW135804   0.570  13.192  14.757
11324SOL    HW235805   0.632  13.250   0.007
11325SOL     OW35806   7.356   5.212   9.929
11325SOL    HW135807   7.274   5.166   9.913
11325SOL    HW235808   7.402   5.158   9.993
11326SOL     OW35809  13.148  10.680  12.771
11326SOL    HW135810  13.121  10.770  12.752
11326SOL    HW235811  13.217  10.662  12.707
11327SOL     OW35812   9.361   2.327  12.870
11327SOL    HW135813   9.392   2.286  12.789
11327SOL    HW235814   9.435   2.380  12.900
11328SOL     OW35815   3.176  13.584  11.704
11328SOL    HW135816   3.241  13.572  11.635
11328SOL    HW235817   3.175  13.679  11.721
11329SOL     OW35818   7.993   0.097   9.906
11329SOL    HW135819   7.906   0.059   9.923
11329SOL    HW235820   7.975   0.179   9.861
11330SOL     OW35821  14.370   8.481   4.822
11330SOL    HW135822  14.394   8.571   4.803
11330SOL    HW235823  14.450   8.431   4.806
11331SOL     OW35824   6.779   8.431   6.136
11331SOL    HW135825   6.685   8.433   6.122
11331SOL    HW235826   6.816   8.429   6.047
11332SOL     OW35827   1.721   8.974   9.631
11332SOL    HW135828   1.648   8.932   9.676
11332SOL    HW235829   1.684   9.053   9.592
11333SOL     OW35830  12.706   0.567   0.530
11333SOL    HW135831  12.677   0.652   0.561
11333SOL    HW235832  12.774   0.587   0.465
11334SOL     OW35833   7.015   7.127   6.471
11334SOL    HW135834   6.944   7.155   6.414
11334SOL    HW235835   6.973   7.106   6.554
11335SOL     OW35836   9.631   0.036  10.547
11335SOL    HW135837   9.705   0.095  10.560
11335SOL    HW235838   9.564   0.067  10.607
11336SOL     OW35839   3.668  12.026   1.242
11336SOL    HW135840   3.630  12.106   1.279
11336SOL    HW235841   3.639  11.957   1.301
11337SOL     OW35842  13.234   9.090   3.844
11337SOL    HW135843  13.197   9.149   3.778
11337SOL    HW235844  13.328   9.111   3.845
11338SOL     OW35845   4.269   0.640   8.494
11338SOL    HW135846   4.312   0.676   8.572
11338SOL    HW235847   4.342   0.621   8.434
11339SOL     OW35848   7.931  12.376  14.851
11339SOL    HW135849   7.914  12.334   0.059
11339SOL    HW235850   7.846  12.412  14.825
11340SOL     OW35851   1.025   0.320   1.437
11340SOL    HW135852   1.115   0.353   1.433
11340SOL    HW235853   0.971   0.399   1.444
11341SOL     OW35854   2.502  10.433   4.340
11341SOL    HW135855   2.464  10.520   4.323
11341SOL    HW235856   2.429  10.372   4.332
11342SOL     OW35857   7.033  13.389   2.835
11342SOL    HW135858   7.068  13.475   2.859
11342SOL    HW235859   7.018  13.395   2.740
11343SOL     OW35860   2.797   1.600   0.613
11343SOL    HW135861   2.872   1.571   0.562
11343SOL    HW235862   2.723   1.592   0.553
11344SOL     OW35863  12.749  10.629   9.705
11344SOL    HW135864  12.783  10.583   9.628
11344SOL    HW235865  12.687  10.568   9.745
11345SOL     OW35866   0.398   4.292   8.768
11345SOL    HW135867   0.364   4.353   8.833
11345SOL    HW235868   0.490   4.279   8.792
11346SOL     OW35869   5.131  12.588   0.658
11346SOL    HW135870   5.081  12.556   0.583
11346SOL    HW235871   5.106  12.680   0.666
11347SOL     OW35872   5.256  12.620   4.675
11347SOL    HW135873   5.247  12.536   4.720
11347SOL    HW235874   5.183  12.673   4.707
11348SOL     OW35875  14.425   0.786   4.783
11348SOL    HW135876  14.353   0.749   4.731
11348SOL    HW235877  14.490   0.813   4.718
11349SOL     OW35878  12.791  12.491   5.254
11349SOL    HW135879  12.776  12.554   5.183
11349SOL    HW235880  12.724  12.513   5.320
11350SOL     OW35881  10.789   6.044  12.084
11350SOL    HW135882  10.737   5.964  12.091
11350SOL    HW235883  10.757   6.088  12.006
11351SOL     OW35884  14.453   1.742   7.926
11351SOL    HW135885  14.471   1.658   7.968
11351SOL    HW235886  14.460   1.724   7.833
11352SOL     OW35887   7.936   0.030   5.768
11352SOL    HW135888   7.912  14.846   5.697
11352SOL    HW235889   7.883   0.002   5.842
11353SOL     OW35890   1.723   9.534   8.949
11353SOL    HW135891   1.673   9.481   9.011
11353SOL    HW235892   1.749   9.473   8.880
11354SOL     OW35893   1.124   0.519  12.981
11354SOL    HW135894   1.196   0.475  13.025
11354SOL    HW235895   1.150   0.523  12.889
11355SOL     OW35896   4.393   9.780   7.773
11355SOL    HW135897   4.321   9.720   7.794
11355SOL    HW235898   4.440   9.737   7.702
11356SOL     OW35899  10.549  14.255   3.076
11356SOL    HW135900  10.605  14.313   3.025
11356SOL    HW235901  10.526  14.306   3.154
11357SOL     OW35902   6.141   7.588  12.747
11357SOL    HW135903   6.152   7.653  12.816
11357SOL    HW235904   6.047   7.590  12.727
11358SOL     OW35905  14.874   3.746   6.851
11358SOL    HW135906  14.832   3.661   6.857
11358SOL    HW235907  14.811   3.807   6.890
11359SOL     OW35908   0.269   4.326   8.528
11359SOL    HW135909   0.343   4.300   8.583
11359SOL    HW235910   0.209   4.252   8.531
11360SOL     OW35911   6.076   0.965   2.260
11360SOL    HW135912   5.982   0.974   2.278
11360SOL    HW235913   6.089   0.871   2.250
11361SOL     OW35914   3.988   6.124   6.337
11361SOL    HW135915   4.044   6.185   6.289
11361SOL    HW235916   3.982   6.048   6.280
11362SOL     OW35917   8.361  14.577   6.809
11362SOL    HW135918   8.270  14.577   6.836
11362SOL    HW235919   8.389  14.486   6.816
11363SOL     OW35920   2.097  14.514  13.043
11363SOL    HW135921   2.023  14.544  13.096
11363SOL    HW235922   2.083  14.555  12.957
11364SOL     OW35923   7.530   7.407   8.476
11364SOL    HW135924   7.545   7.487   8.425
11364SOL    HW235925   7.495   7.438   8.559
11365SOL     OW35926   3.049   2.437   7.243
11365SOL    HW135927   3.114   2.505   7.225
11365SOL    HW235928   3.029   2.447   7.336
11366SOL     OW35929   2.946   0.412   1.437
11366SOL    HW135930   2.949   0.320   1.409
11366SOL    HW235931   2.945   0.408   1.532
11367SOL     OW35932   2.903  10.062   4.867
11367SOL    HW135933   2.974  10.125   4.855
11367SOL    HW235934   2.851  10.097   4.939
11368SOL     OW35935   7.086   7.839  11.898
11368SOL    HW135936   6.996   7.861  11.922
11368SOL    HW235937   7.081   7.746  11.873
11369SOL     OW35938   7.509   7.846  11.096
11369SOL    HW135939   7.463   7.821  11.177
11369SOL    HW235940   7.441   7.880  11.039
11370SOL     OW35941  10.312   2.892   7.416
11370SOL    HW135942  10.405   2.873   7.409
11370SOL    HW235943  10.275   2.861   7.333
11371SOL     OW35944  11.201   0.828  10.518
11371SOL    HW135945  11.192   0.923  10.504
11371SOL    HW235946  11.261   0.799  10.451
11372SOL     OW35947   1.837   0.063  11.786
11372SOL    HW135948   1.784  14.860  11.798
11372SOL    HW235949   1.795   0.129  11.841
11373SOL     OW35950  12.320   3.305   2.488
11373SOL    HW135951  12.236   3.286   2.530
11373SOL    HW235952  12.306   3.387   2.441
11374SOL     OW35953   7.221   5.898   8.444
11374SOL    HW135954   7.167   5.941   8.510
11374SOL    HW235955   7.282   5.844   8.494
11375SOL     OW35956   4.575   1.419   6.181
11375SOL    HW135957   4.516   1.346   6.162
11375SOL    HW235958   4.623   1.433   6.099
11376SOL     OW35959   6.221  14.407  11.769
11376SOL    HW135960   6.174  14.477  11.816
11376SOL    HW235961   6.170  14.394  11.689
11377SOL     OW35962   0.510   8.791   9.390
11377SOL    HW135963   0.515   8.716   9.449
11377SOL    HW235964   0.601   8.805   9.362
11378SOL     OW35965  12.212   9.710   3.612
11378SOL    HW135966  12.177   9.706   3.523
11378SOL    HW235967  12.307   9.720   3.600
11379SOL     OW35968   4.851   7.074   4.709
11379SOL    HW135969   4.812   6.991   4.683
11379SOL    HW235970   4.909   7.052   4.782
11380SOL     OW35971   4.419  12.296   8.782
11380SOL    HW135972   4.324  12.287   8.779
11380SOL    HW235973   4.436  12.347   8.862
11381SOL     OW35974   2.116   4.206   9.412
11381SOL    HW135975   2.196   4.161   9.384
11381SOL    HW235976   2.080   4.243   9.331
11382SOL     OW35977  13.569   8.688   3.501
11382SOL    HW135978  13.588   8.635   3.578
11382SOL    HW235979  13.576   8.628   3.427
11383SOL     OW35980  10.847   5.622   5.908
11383SOL    HW135981  10.761   5.587   5.933
11383SOL    HW235982  10.910   5.563   5.950
11384SOL     OW35983  10.188   1.630   1.099
11384SOL    HW135984  10.259   1.687   1.068
11384SOL    HW235985  10.144   1.682   1.166
11385SOL     OW35986  14.308   6.976  11.392
11385SOL    HW135987  14.284   6.894  11.436
11385SOL    HW235988  14.337   7.034  11.463
11386SOL     OW35989   7.004   1.294   7.786
11386SOL    HW135990   7.004   1.224   7.720
11386SOL    HW235991   6.916   1.332   7.780
11387SOL     OW35992   5.960   1.569   4.011
11387SOL    HW135993   5.984   1.521   3.931
11387SOL    HW235994   6.022   1.538   4.077
11388SOL     OW35995   0.397  11.818   1.194
11388SOL    HW135996   0.384  11.739   1.247
11388SOL    HW235997   0.326  11.816   1.131
11389SOL     OW35998  12.964   0.029   6.446
11389SOL    HW135999  12.980   0.122   6.463
11389SOL    HW236000  13.044  14.874   6.404
11390SOL     OW36001   2.961   8.626   8.716
11390SOL    HW136002   2.884   8.647   8.663
11390SOL    HW236003   3.001   8.551   8.672
11391SOL     OW36004   6.876   8.768   0.300
11391SOL    HW136005   6.966   8.741   0.320
11391SOL    HW236006   6.881   8.862   0.287
11392SOL     OW36007  14.497   9.489   0.481
11392SOL    HW136008  14.420   9.462   0.431
11392SOL    HW236009  14.570   9.443   0.439
11393SOL     OW36010   3.569  10.336   8.768
11393SOL    HW136011   3.569  10.345   8.672
11393SOL    HW236012   3.570  10.241   8.783
11394SOL     OW36013   4.456   5.089   4.135
11394SOL    HW136014   4.511   5.034   4.080
11394SOL    HW236015   4.503   5.093   4.219
11395SOL     OW36016   4.086   5.012  13.829
11395SOL    HW136017   4.097   4.921  13.801
11395SOL    HW236018   4.173   5.038  13.861
11396SOL     OW36019   6.117  12.552   6.153
11396SOL    HW136020   6.123  12.497   6.231
11396SOL    HW236021   6.146  12.639   6.182
11397SOL     OW36022  11.289   2.914  12.007
11397SOL    HW136023  11.343   2.842  11.976
11397SOL    HW236024  11.344   2.992  11.996
11398SOL     OW36025   9.572   7.697  11.929
11398SOL    HW136026   9.576   7.792  11.919
11398SOL    HW236027   9.481   7.675  11.909
11399SOL     OW36028   9.755   3.056   0.098
11399SOL    HW136029   9.785   3.043   0.008
11399SOL    HW236030   9.775   3.148   0.117
11400SOL     OW36031   3.530   7.435   6.103
11400SOL    HW136032   3.469   7.411   6.033
11400SOL    HW236033   3.487   7.406   6.183
11401SOL     OW36034   7.681   0.297   6.795
11401SOL    HW136035   7.645   0.235   6.731
11401SOL    HW236036   7.653   0.263   6.880
11402SOL     OW36037   8.096   3.744   6.509
11402SOL    HW136038   8.184   3.707   6.505
11402SOL    HW236039   8.051   3.704   6.434
11403SOL     OW36040   7.697   6.434   1.729
11403SOL    HW136041   7.712   6.501   1.662
11403SOL    HW236042   7.734   6.471   1.809
11404SOL     OW36043   0.255   5.828  14.436
11404SOL    HW136044   0.319   5.821  14.507
11404SOL    HW236045   0.278   5.757  14.377
11405SOL     OW36046  11.119   9.460   6.860
11405SOL    HW136047  11.188   9.424   6.916
11405SOL    HW236048  11.156   9.541   6.826
11406SOL     OW36049   9.548  10.114   3.945
11406SOL    HW136050   9.453  10.122   3.942
11406SOL    HW236051   9.574  10.094   3.855
11407SOL     OW36052   9.787   8.568   0.161
11407SOL    HW136053   9.846   8.561   0.236
11407SOL    HW236054   9.841   8.606   0.092
11408SOL     OW36055   1.464   6.512   3.584
11408SOL    HW136056   1.554   6.545   3.588
11408SOL    HW236057   1.431   6.521   3.673
11409SOL     OW36058   0.450  11.981   8.921
11409SOL    HW136059   0.451  12.028   8.838
11409SOL    HW236060   0.420  12.046   8.985
11410SOL     OW36061   6.646  12.870  13.820
11410SOL    HW136062   6.580  12.801  13.826
11410SOL    HW236063   6.707  12.852  13.892
11411SOL     OW36064  13.338  10.013   3.448
11411SOL    HW136065  13.354  10.041   3.358
11411SOL    HW236066  13.279   9.938   3.440
11412SOL     OW36067  11.781  13.246   3.448
11412SOL    HW136068  11.805  13.176   3.388
11412SOL    HW236069  11.708  13.210   3.499
11413SOL     OW36070   8.796  10.017  10.272
11413SOL    HW136071   8.720  10.023  10.331
11413SOL    HW236072   8.812  10.108  10.246
11414SOL     OW36073   1.506  13.276   7.328
11414SOL    HW136074   1.548  13.194   7.354
11414SOL    HW236075   1.574  13.343   7.337
11415SOL     OW36076   8.070  11.126  12.860
11415SOL    HW136077   8.021  11.056  12.903
11415SOL    HW236078   8.031  11.134  12.774
11416SOL     OW36079  13.339   5.333   9.110
11416SOL    HW136080  13.328   5.294   9.197
11416SOL    HW236081  13.250   5.338   9.075
11417SOL     OW36082  14.412  11.083  14.367
11417SOL    HW136083  14.447  11.063  14.454
11417SOL    HW236084  14.482  11.130  14.323
11418SOL     OW36085   6.304  11.292  12.683
11418SOL    HW136086   6.327  11.203  12.657
11418SOL    HW236087   6.237  11.281  12.750
11419SOL     OW36088  13.423   5.009   9.163
11419SOL    HW136089  13.448   5.069   9.093
11419SOL    HW236090  13.332   4.985   9.143
11420SOL     OW36091   9.030   8.759   0.111
11420SOL    HW136092   8.982   8.760   0.028
11420SOL    HW236093   9.121   8.777   0.087
11421SOL     OW36094  14.064   7.275   4.895
11421SOL    HW136095  14.067   7.370   4.880
11421SOL    HW236096  14.134   7.240   4.840
11422SOL     OW36097   2.020   5.499   4.672
11422SOL    HW136098   2.052   5.495   4.763
11422SOL    HW236099   2.000   5.409   4.649
11423SOL     OW36100   2.282   3.151   7.019
11423SOL    HW136101   2.375   3.127   7.029
11423SOL    HW236102   2.240   3.117   7.097
11424SOL     OW36103  11.764   9.340   6.926
11424SOL    HW136104  11.771   9.362   7.019
11424SOL    HW236105  11.850   9.304   6.903
11425SOL     OW36106   1.879  11.210   2.904
11425SOL    HW136107   1.853  11.182   2.991
11425SOL    HW236108   1.797  11.216   2.855
11426SOL     OW36109   8.966   0.782   6.612
11426SOL    HW136110   9.054   0.806   6.639
11426SOL    HW236111   8.972   0.771   6.517
11427SOL     OW36112   6.671   3.529   4.182
11427SOL    HW136113   6.582   3.549   4.154
11427SOL    HW236114   6.727   3.567   4.115
11428SOL     OW36115  11.018   4.760  10.259
11428SOL    HW136116  11.095   4.796  10.215
11428SOL    HW236117  11.028   4.787  10.350
11429SOL     OW36118  12.060  10.462  13.684
11429SOL    HW136119  12.071  10.435  13.593
11429SOL    HW236120  11.965  10.459  13.698
11430SOL     OW36121   7.809   0.975   9.120
11430SOL    HW136122   7.822   0.968   9.026
11430SOL    HW236123   7.783   1.066   9.134
11431SOL     OW36124  12.710  14.404   5.068
11431SOL    HW136125  12.671  14.345   5.133
11431SOL    HW236126  12.730  14.347   4.994
11432SOL     OW36127   6.778  11.593   4.167
11432SOL    HW136128   6.839  11.519   4.160
11432SOL    HW236129   6.790  11.641   4.085
11433SOL     OW36130   0.157   4.614  10.935
11433SOL    HW136131   0.187   4.639  11.023
11433SOL    HW236132   0.151   4.697  10.888
11434SOL     OW36133   6.341   4.913  14.859
11434SOL    HW136134   6.326   4.821  14.839
11434SOL    HW236135   6.432   4.917   0.012
11435SOL     OW36136   9.746   6.254   2.159
11435SOL    HW136137   9.750   6.338   2.205
11435SOL    HW236138   9.831   6.245   2.117
11436SOL     OW36139   1.928   1.102   1.193
11436SOL    HW136140   1.841   1.086   1.230
11436SOL    HW236141   1.983   1.033   1.229
11437SOL     OW36142   1.505   9.213   3.018
11437SOL    HW136143   1.496   9.193   3.111
11437SOL    HW236144   1.598   9.230   3.006
11438SOL     OW36145   4.732  14.276  14.859
11438SOL    HW136146   4.666  14.343  14.837
11438SOL    HW236147   4.741  14.224  14.779
11439SOL     OW36148  13.028   1.085   3.179
11439SOL    HW136149  12.968   1.156   3.202
11439SOL    HW236150  13.112   1.129   3.162
11440SOL     OW36151   6.497   4.238  12.437
11440SOL    HW136152   6.545   4.294  12.376
11440SOL    HW236153   6.537   4.256  12.523
11441SOL     OW36154  12.566  12.974  13.645
11441SOL    HW136155  12.475  12.956  13.623
11441SOL    HW236156  12.578  12.935  13.732
11442SOL     OW36157  14.654   0.888   7.915
11442SOL    HW136158  14.656   0.798   7.947
11442SOL    HW236159  14.716   0.934   7.970
11443SOL     OW36160   0.314   7.369   8.874
11443SOL    HW136161   0.319   7.275   8.855
11443SOL    HW236162   0.368   7.410   8.806
11444SOL     OW36163   1.793   0.976   4.581
11444SOL    HW136164   1.870   0.955   4.633
11444SOL    HW236165   1.796   1.071   4.571
11445SOL     OW36166   9.853   3.213  14.320
11445SOL    HW136167   9.821   3.292  14.276
11445SOL    HW236168   9.818   3.140  14.270
11446SOL     OW36169  12.076   5.363   5.707
11446SOL    HW136170  12.036   5.414   5.778
11446SOL    HW236171  12.138   5.305   5.751
11447SOL     OW36172   2.713   8.628   0.175
11447SOL    HW136173   2.689   8.613   0.267
11447SOL    HW236174   2.639   8.594   0.125
11448SOL     OW36175   2.355   3.505  13.562
11448SOL    HW136176   2.447   3.531  13.562
11448SOL    HW236177   2.332   3.496  13.654
11449SOL     OW36178   8.819  10.668  11.392
11449SOL    HW136179   8.896  10.648  11.446
11449SOL    HW236180   8.796  10.758  11.417
11450SOL     OW36181   7.210   9.456  10.300
11450SOL    HW136182   7.171   9.373  10.274
11450SOL    HW236183   7.195   9.514  10.226
11451SOL     OW36184   6.608   3.875   6.216
11451SOL    HW136185   6.627   3.862   6.123
11451SOL    HW236186   6.560   3.958   6.219
11452SOL     OW36187   5.301  12.666   8.934
11452SOL    HW136188   5.308  12.586   8.882
11452SOL    HW236189   5.392  12.690   8.954
11453SOL     OW36190  13.506   7.357   4.719
11453SOL    HW136191  13.559   7.287   4.756
11453SOL    HW236192  13.417   7.339   4.750
11454SOL     OW36193   7.526  11.086  13.004
11454SOL    HW136194   7.572  11.171  13.007
11454SOL    HW236195   7.584  11.030  12.952
11455SOL     OW36196   7.561   6.650  13.158
11455SOL    HW136197   7.587   6.589  13.089
11455SOL    HW236198   7.617   6.627  13.233
11456SOL     OW36199  10.225  13.337   7.186
11456SOL    HW136200  10.170  13.333   7.264
11456SOL    HW236201  10.253  13.247   7.171
11457SOL     OW36202  10.756   0.976  12.484
11457SOL    HW136203  10.701   1.052  12.504
11457SOL    HW236204  10.797   0.997  12.400
11458SOL     OW36205   2.840   7.227  12.473
11458SOL    HW136206   2.774   7.167  12.508
11458SOL    HW236207   2.921   7.177  12.473
11459SOL     OW36208   1.658  10.283   8.037
11459SOL    HW136209   1.572  10.241   8.039
11459SOL    HW236210   1.641  10.372   8.068
11460SOL     OW36211   7.361   1.583   5.209
11460SOL    HW136212   7.325   1.671   5.193
11460SOL    HW236213   7.454   1.593   5.192
11461SOL     OW36214   3.552   8.616  12.022
11461SOL    HW136215   3.606   8.636  11.946
11461SOL    HW236216   3.542   8.521  12.019
11462SOL     OW36217   9.515   9.954   6.357
11462SOL    HW136218   9.513   9.975   6.451
11462SOL    HW236219   9.593   9.999   6.325
11463SOL     OW36220   6.544   2.390   1.945
11463SOL    HW136221   6.599   2.396   2.024
11463SOL    HW236222   6.461   2.431   1.971
11464SOL     OW36223   6.555   0.124  10.869
11464SOL    HW136224   6.525   0.149  10.956
11464SOL    HW236225   6.625   0.186  10.848
11465SOL     OW36226  12.888   8.741   0.790
11465SOL    HW136227  12.858   8.779   0.707
11465SOL    HW236228  12.826   8.670   0.808
11466SOL     OW36229  13.999   1.707  14.760
11466SOL    HW136230  13.934   1.772  14.789
11466SOL    HW236231  13.991   1.635  14.823
11467SOL     OW36232  13.156   5.588   0.597
11467SOL    HW136233  13.165   5.629   0.683
11467SOL    HW236234  13.220   5.632   0.542
11468SOL     OW36235   1.023   4.108  14.780
11468SOL    HW136236   1.006   4.016  14.763
11468SOL    HW236237   1.028   4.148  14.693
11469SOL     OW36238   6.047   1.273   0.816
11469SOL    HW136239   6.038   1.367   0.804
11469SOL    HW236240   6.118   1.263   0.879
11470SOL     OW36241   3.241  13.696  12.705
11470SOL    HW136242   3.179  13.629  12.675
11470SOL    HW236243   3.308  13.647  12.752
11471SOL     OW36244  14.333   0.215   8.175
11471SOL    HW136245  14.400   0.205   8.107
11471SOL    HW236246  14.365   0.162   8.248
11472SOL     OW36247   2.190   0.869   0.618
11472SOL    HW136248   2.197   0.929   0.544
11472SOL    HW236249   2.152   0.789   0.581
11473SOL     OW36250   2.519   6.476   1.449
11473SOL    HW136251   2.470   6.528   1.386
11473SOL    HW236252   2.605   6.464   1.409
11474SOL     OW36253  13.357  13.687   8.431
11474SOL    HW136254  13.373  13.769   8.383
11474SOL    HW236255  13.434  13.677   8.488
11475SOL     OW36256  14.708   6.163   2.390
11475SOL    HW136257  14.626   6.210   2.370
11475SOL    HW236258  14.689   6.115   2.471
11476SOL     OW36259   4.643   9.687   2.588
11476SOL    HW136260   4.675   9.599   2.608
11476SOL    HW236261   4.548   9.679   2.588
11477SOL     OW36262  11.696   1.954  12.687
11477SOL    HW136263  11.608   1.916  12.692
11477SOL    HW236264  11.731   1.922  12.605
11478SOL     OW36265   3.332  13.893  11.255
11478SOL    HW136266   3.347  13.988  11.254
11478SOL    HW236267   3.377  13.862  11.333
11479SOL     OW36268  11.264   3.980   5.600
11479SOL    HW136269  11.308   3.957   5.518
11479SOL    HW236270  11.173   3.998   5.574
11480SOL     OW36271   0.549  10.652   5.733
11480SOL    HW136272   0.578  10.650   5.825
11480SOL    HW236273   0.618  10.607   5.685
11481SOL     OW36274   9.413  10.369  10.697
11481SOL    HW136275   9.332  10.404  10.661
11481SOL    HW236276   9.476  10.375  10.626
11482SOL     OW36277   9.972   8.766   7.428
11482SOL    HW136278   9.923   8.731   7.503
11482SOL    HW236279   9.993   8.855   7.453
11483SOL     OW36280  13.146   2.627  10.934
11483SOL    HW136281  13.122   2.651  10.845
11483SOL    HW236282  13.169   2.534  10.929
11484SOL     OW36283   5.644   8.868   5.968
11484SOL    HW136284   5.638   8.946   6.023
11484SOL    HW236285   5.554   8.838   5.960
11485SOL     OW36286  11.658  10.361   7.551
11485SOL    HW136287  11.627  10.309   7.625
11485SOL    HW236288  11.586  10.422   7.532
11486SOL     OW36289   5.242   9.706   4.060
11486SOL    HW136290   5.307   9.775   4.071
11486SOL    HW236291   5.203   9.695   4.146
11487SOL     OW36292   5.408   3.125   9.612
11487SOL    HW136293   5.491   3.166   9.634
11487SOL    HW236294   5.346   3.198   9.606
11488SOL     OW36295   1.755   2.510   2.855
11488SOL    HW136296   1.810   2.432   2.862
11488SOL    HW236297   1.776   2.562   2.933
11489SOL     OW36298   8.381   7.635   7.093
11489SOL    HW136299   8.352   7.582   7.167
11489SOL    HW236300   8.308   7.629   7.030
11490SOL     OW36301   0.223  11.732   7.078
11490SOL    HW136302   0.306  11.695   7.046
11490SOL    HW236303   0.183  11.661   7.127
11491SOL     OW36304   9.827  12.349   9.026
11491SOL    HW136305   9.770  12.354   9.103
11491SOL    HW236306   9.770  12.314   8.957
11492SOL     OW36307  10.045  10.505   2.101
11492SOL    HW136308   9.962  10.553   2.107
11492SOL    HW236309  10.047  10.452   2.180
11493SOL     OW36310  14.222  11.219   9.778
11493SOL    HW136311  14.289  11.214   9.847
11493SOL    HW236312  14.250  11.155   9.713
11494SOL     OW36313   1.158   7.370   0.890
11494SOL    HW136314   1.082   7.346   0.836
11494SOL    HW236315   1.180   7.459   0.862
11495SOL     OW36316   4.036   5.912   8.107
11495SOL    HW136317   4.092   5.989   8.093
11495SOL    HW236318   3.952   5.936   8.067
11496SOL     OW36319   9.189  14.342   2.519
11496SOL    HW136320   9.280  14.372   2.526
11496SOL    HW236321   9.194  14.248   2.534
11497SOL     OW36322   0.152  10.297   5.641
11497SOL    HW136323   0.117  10.338   5.720
11497SOL    HW236324   0.075  10.281   5.586
11498SOL     OW36325   4.472   5.537   3.882
11498SOL    HW136326   4.377   5.547   3.890
11498SOL    HW236327   4.487   5.442   3.885
11499SOL     OW36328   4.476  12.391   5.485
11499SOL    HW136329   4.560  12.415   5.524
11499SOL    HW236330   4.411  12.429   5.544
11500SOL     OW36331   6.713   6.028   5.805
11500SOL    HW136332   6.636   6.031   5.863
11500SOL    HW236333   6.722   6.118   5.773
11501SOL     OW36334  12.491   4.940   6.738
11501SOL    HW136335  12.425   5.010   6.733
11501SOL    HW236336  12.444   4.862   6.710
11502SOL     OW36337  11.819   1.850   7.628
11502SOL    HW136338  11.892   1.794   7.603
11502SOL    HW236339  11.859   1.922   7.676
11503SOL     OW36340   1.737   6.137   8.569
11503SOL    HW136341   1.810   6.141   8.507
11503SOL    HW236342   1.697   6.224   8.565
11504SOL     OW36343  14.697   0.083   4.274
11504SOL    HW136344  14.724   0.017   4.337
11504SOL    HW236345  14.776   0.103   4.224
11505SOL     OW36346   3.676  11.022  11.230
11505SOL    HW136347   3.609  10.961  11.259
11505SOL    HW236348   3.712  11.059  11.311
11506SOL     OW36349  10.828   3.931   1.337
11506SOL    HW136350  10.759   3.870   1.363
11506SOL    HW236351  10.871   3.888   1.263
11507SOL     OW36352   0.919  13.574   6.328
11507SOL    HW136353   0.873  13.503   6.373
11507SOL    HW236354   0.996  13.590   6.382
11508SOL     OW36355   6.466   3.387  14.785
11508SOL    HW136356   6.518   3.426  14.714
11508SOL    HW236357   6.515   3.406  14.864
11509SOL     OW36358   2.019   5.252   2.403
11509SOL    HW136359   1.982   5.183   2.347
11509SOL    HW236360   2.089   5.208   2.452
11510SOL     OW36361   3.109   6.659   1.018
11510SOL    HW136362   3.182   6.703   0.975
11510SOL    HW236363   3.033   6.679   0.963
11511SOL     OW36364  11.869   5.748   2.118
11511SOL    HW136365  11.958   5.738   2.153
11511SOL    HW236366  11.857   5.672   2.061
11512SOL     OW36367   2.804  12.571  13.707
11512SOL    HW136368   2.862  12.498  13.686
11512SOL    HW236369   2.803  12.625  13.628
11513SOL     OW36370   7.682   8.437   8.434
11513SOL    HW136371   7.707   8.390   8.355
11513SOL    HW236372   7.599   8.398   8.460
11514SOL     OW36373  14.576   0.586   6.055
11514SOL    HW136374  14.581   0.529   5.978
11514SOL    HW236375  14.499   0.641   6.039
11515SOL     OW36376  13.105   1.978  13.177
11515SOL    HW136377  13.120   1.889  13.145
11515SOL    HW236378  13.178   2.029  13.143
11516SOL     OW36379  14.651   8.847  10.105
11516SOL    HW136380  14.622   8.769  10.151
11516SOL    HW236381  14.702   8.814  10.031
11517SOL     OW36382   2.834   8.376   8.884
11517SOL    HW136383   2.924   8.389   8.855
11517SOL    HW236384   2.822   8.440   8.954
11518SOL     OW36385  10.520   2.999   9.777
11518SOL    HW136386  10.567   2.934   9.725
11518SOL    HW236387  10.568   3.002   9.860
11519SOL     OW36388  11.439   7.071   4.306
11519SOL    HW136389  11.478   7.157   4.320
11519SOL    HW236390  11.378   7.084   4.234
11520SOL     OW36391   3.569  12.717   6.199
11520SOL    HW136392   3.535  12.774   6.130
11520SOL    HW236393   3.526  12.633   6.184
11521SOL     OW36394  14.816   1.506   7.387
11521SOL    HW136395  14.829   1.484   7.479
11521SOL    HW236396   0.024   1.485   7.346
11522SOL     OW36397  10.992   7.684  10.593
11522SOL    HW136398  11.011   7.726  10.677
11522SOL    HW236399  11.061   7.714  10.534
11523SOL     OW36400   4.559  11.046  10.118
11523SOL    HW136401   4.583  10.956  10.137
11523SOL    HW236402   4.634  11.098  10.148
11524SOL     OW36403   2.919  12.398  11.086
11524SOL    HW136404   3.014  12.396  11.070
11524SOL    HW236405   2.891  12.308  11.071
11525SOL     OW36406   8.784   2.629  10.245
11525SOL    HW136407   8.760   2.701  10.303
11525SOL    HW236408   8.879   2.637  10.235
11526SOL     OW36409   9.856   4.595   5.284
11526SOL    HW136410   9.820   4.604   5.196
11526SOL    HW236411   9.813   4.664   5.335
11527SOL     OW36412  14.105   9.574   4.915
11527SOL    HW136413  14.190   9.596   4.876
11527SOL    HW236414  14.042   9.588   4.844
11528SOL     OW36415   9.012   0.272   4.295
11528SOL    HW136416   8.956   0.289   4.371
11528SOL    HW236417   8.952   0.239   4.228
11529SOL     OW36418   1.961   9.840   9.122
11529SOL    HW136419   2.016   9.774   9.162
11529SOL    HW236420   1.948   9.809   9.032
11530SOL     OW36421   2.677   7.914   5.025
11530SOL    HW136422   2.687   8.002   4.988
11530SOL    HW236423   2.758   7.900   5.075
11531SOL     OW36424  10.503   8.142   4.815
11531SOL    HW136425  10.500   8.131   4.910
11531SOL    HW236426  10.450   8.219   4.798
11532SOL     OW36427   3.450  14.188   7.394
11532SOL    HW136428   3.456  14.284   7.388
11532SOL    HW236429   3.384  14.173   7.461
11533SOL     OW36430   9.281  13.682   1.297
11533SOL    HW136431   9.304  13.710   1.385
11533SOL    HW236432   9.323  13.597   1.287
11534SOL     OW36433   3.923   9.533   7.632
11534SOL    HW136434   3.904   9.616   7.677
11534SOL    HW236435   3.953   9.474   7.701
11535SOL     OW36436  14.406  11.308  13.546
11535SOL    HW136437  14.331  11.331  13.602
11535SOL    HW236438  14.479  11.358  13.582
11536SOL     OW36439  11.833   3.967   2.851
11536SOL    HW136440  11.770   3.990   2.920
11536SOL    HW236441  11.899   3.915   2.896
11537SOL     OW36442   1.482   9.112  11.109
11537SOL    HW136443   1.417   9.097  11.040
11537SOL    HW236444   1.489   9.028  11.154
11538SOL     OW36445   4.274   6.905   2.156
11538SOL    HW136446   4.276   6.887   2.062
11538SOL    HW236447   4.228   6.989   2.164
11539SOL     OW36448  12.345  12.089  13.409
11539SOL    HW136449  12.315  12.160  13.465
11539SOL    HW236450  12.380  12.024  13.471
11540SOL     OW36451  11.504  13.761  12.299
11540SOL    HW136452  11.411  13.744  12.287
11540SOL    HW236453  11.540  13.761  12.210
11541SOL     OW36454   8.071   4.347   1.837
11541SOL    HW136455   8.133   4.412   1.805
11541SOL    HW236456   8.088   4.341   1.931
11542SOL     OW36457  11.108   7.098   0.409
11542SOL    HW136458  11.045   7.064   0.346
11542SOL    HW236459  11.074   7.183   0.435
11543SOL     OW36460  11.061   7.981  12.557
11543SOL    HW136461  11.057   8.064  12.509
11543SOL    HW236462  11.094   8.004  12.644
11544SOL     OW36463   4.397   3.531   6.583
11544SOL    HW136464   4.379   3.612   6.632
11544SOL    HW236465   4.466   3.487   6.633
11545SOL     OW36466   6.125   2.188   4.182
11545SOL    HW136467   6.152   2.216   4.095
11545SOL    HW236468   6.198   2.212   4.239
11546SOL     OW36469   0.731  10.694  14.716
11546SOL    HW136470   0.782  10.705  14.796
11546SOL    HW236471   0.707  10.783  14.690
11547SOL     OW36472   5.787  14.804  11.164
11547SOL    HW136473   5.820  14.835  11.248
11547SOL    HW236474   5.766   0.008  11.115
11548SOL     OW36475   5.077   9.678   8.425
11548SOL    HW136476   5.118   9.720   8.350
11548SOL    HW236477   5.141   9.688   8.496
11549SOL     OW36478  10.654   6.561   6.475
11549SOL    HW136479  10.673   6.469   6.489
11549SOL    HW236480  10.609   6.589   6.554
11550SOL     OW36481   0.924   4.804  13.506
11550SOL    HW136482   0.832   4.824  13.521
11550SOL    HW236483   0.924   4.749  13.427
11551SOL     OW36484   5.506   2.099  14.646
11551SOL    HW136485   5.584   2.045  14.642
11551SOL    HW236486   5.538   2.187  14.667
11552SOL     OW36487   3.732   4.214   1.964
11552SOL    HW136488   3.690   4.291   2.003
11552SOL    HW236489   3.736   4.234   1.871
11553SOL     OW36490   5.643  10.324   9.212
11553SOL    HW136491   5.658  10.328   9.117
11553SOL    HW236492   5.718  10.276   9.246
11554SOL     OW36493  13.777   3.064   8.930
11554SOL    HW136494  13.781   3.154   8.961
11554SOL    HW236495  13.700   3.027   8.973
11555SOL     OW36496   7.930  14.448  14.717
11555SOL    HW136497   7.987  14.379  14.751
11555SOL    HW236498   7.906  14.500  14.793
11556SOL     OW36499  13.954   8.333   8.005
11556SOL    HW136500  13.999   8.311   8.086
11556SOL    HW236501  13.984   8.268   7.942
11557SOL     OW36502   5.201   3.863   6.453
11557SOL    HW136503   5.141   3.930   6.421
11557SOL    HW236504   5.201   3.796   6.385
11558SOL     OW36505   7.970  10.845   5.799
11558SOL    HW136506   8.025  10.883   5.869
11558SOL    HW236507   7.884  10.834   5.840
11559SOL     OW36508  14.831   7.519  14.183
11559SOL    HW136509  14.748   7.564  14.167
11559SOL    HW236510  14.822   7.484  14.272
11560SOL     OW36511  14.125   9.018   4.648
11560SOL    HW136512  14.204   9.071   4.653
11560SOL    HW236513  14.095   9.011   4.739
11561SOL     OW36514   3.529   9.191   3.649
11561SOL    HW136515   3.555   9.205   3.740
11561SOL    HW236516   3.523   9.279   3.611
11562SOL     OW36517  13.890   8.269   2.671
11562SOL    HW136518  13.837   8.258   2.750
11562SOL    HW236519  13.831   8.312   2.609
11563SOL     OW36520   0.279  13.554   9.519
11563SOL    HW136521   0.337  13.606   9.463
11563SOL    HW236522   0.191  13.580   9.494
11564SOL     OW36523  11.205   7.513  11.172
11564SOL    HW136524  11.246   7.441  11.124
11564SOL    HW236525  11.279   7.564  11.205
11565SOL     OW36526   8.974  11.134   6.844
11565SOL    HW136527   8.939  11.067   6.785
11565SOL    HW236528   9.066  11.141   6.820
11566SOL     OW36529   0.689   5.035   8.395
11566SOL    HW136530   0.702   4.998   8.307
11566SOL    HW236531   0.774   5.071   8.419
11567SOL     OW36532   5.507  11.519   1.637
11567SOL    HW136533   5.431  11.473   1.674
11567SOL    HW236534   5.582  11.468   1.667
11568SOL     OW36535   0.252   0.870   5.725
11568SOL    HW136536   0.311   0.795   5.734
11568SOL    HW236537   0.165   0.831   5.714
11569SOL     OW36538   0.479   5.231   6.737
11569SOL    HW136539   0.509   5.155   6.687
11569SOL    HW236540   0.496   5.207   6.828
11570SOL     OW36541   5.765   2.345   2.803
11570SOL    HW136542   5.686   2.327   2.855
11570SOL    HW236543   5.770   2.271   2.742
11571SOL     OW36544   0.944  12.720   7.507
11571SOL    HW136545   0.924  12.810   7.530
11571SOL    HW236546   0.977  12.724   7.417
11572SOL     OW36547   1.440  13.265   9.925
11572SOL    HW136548   1.495  13.205   9.974
11572SOL    HW236549   1.501  13.327   9.885
11573SOL     OW36550   5.955   0.064   3.372
11573SOL    HW136551   6.037   0.076   3.325
11573SOL    HW236552   5.917  14.860   3.334
11574SOL     OW36553   3.207   4.550  12.365
11574SOL    HW136554   3.236   4.460  12.381
11574SOL    HW236555   3.118   4.541  12.332
11575SOL     OW36556   2.873   6.052   8.949
11575SOL    HW136557   2.780   6.071   8.966
11575SOL    HW236558   2.871   5.991   8.875
11576SOL     OW36559   5.262   5.969  14.744
11576SOL    HW136560   5.255   5.927  14.830
11576SOL    HW236561   5.175   6.006  14.729
11577SOL     OW36562   8.939   8.280   6.861
11577SOL    HW136563   8.905   8.237   6.940
11577SOL    HW236564   8.892   8.363   6.856
11578SOL     OW36565  14.586   6.479   7.421
11578SOL    HW136566  14.631   6.395   7.412
11578SOL    HW236567  14.505   6.468   7.372
11579SOL     OW36568  12.422   0.820   0.652
11579SOL    HW136569  12.515   0.818   0.628
11579SOL    HW236570  12.410   0.906   0.692
11580SOL     OW36571   7.720  13.936  13.716
11580SOL    HW136572   7.690  14.003  13.654
11580SOL    HW236573   7.677  13.958  13.798
11581SOL     OW36574  10.575   5.057   8.894
11581SOL    HW136575  10.586   5.141   8.852
11581SOL    HW236576  10.531   5.077   8.977
11582SOL     OW36577  13.724   1.488  11.643
11582SOL    HW136578  13.702   1.554  11.708
11582SOL    HW236579  13.735   1.537  11.562
11583SOL     OW36580  10.811   9.693   0.503
11583SOL    HW136581  10.835   9.647   0.584
11583SOL    HW236582  10.715   9.692   0.502
11584SOL     OW36583   6.648  11.262   0.744
11584SOL    HW136584   6.659  11.351   0.777
11584SOL    HW236585   6.683  11.264   0.655
11585SOL     OW36586   1.174   4.787   5.250
11585SOL    HW136587   1.192   4.869   5.202
11585SOL    HW236588   1.259   4.763   5.287
11586SOL     OW36589  13.979   3.417   6.110
11586SOL    HW136590  13.953   3.368   6.032
11586SOL    HW236591  14.042   3.481   6.078
11587SOL     OW36592   8.829   8.510   4.766
11587SOL    HW136593   8.872   8.550   4.690
11587SOL    HW236594   8.855   8.566   4.839
11588SOL     OW36595   8.639   1.468   7.937
11588SOL    HW136596   8.727   1.481   7.972
11588SOL    HW236597   8.606   1.391   7.982
11589SOL     OW36598   9.476   7.861   0.492
11589SOL    HW136599   9.516   7.894   0.572
11589SOL    HW236600   9.398   7.915   0.480
11590SOL     OW36601  14.115   9.843   9.771
11590SOL    HW136602  14.103   9.774   9.706
11590SOL    HW236603  14.179   9.807   9.833
11591SOL     OW36604   8.902   1.602   2.425
11591SOL    HW136605   8.949   1.669   2.377
11591SOL    HW236606   8.880   1.535   2.360
11592SOL     OW36607  12.117   0.461   7.824
11592SOL    HW136608  12.111   0.540   7.879
11592SOL    HW236609  12.203   0.467   7.783
11593SOL     OW36610   0.218   3.918   6.480
11593SOL    HW136611   0.148   3.948   6.424
11593SOL    HW236612   0.289   3.893   6.420
11594SOL     OW36613  12.579  12.041  10.315
11594SOL    HW136614  12.519  11.968  10.335
11594SOL    HW236615  12.531  12.094  10.252
11595SOL     OW36616   6.023   6.283   8.252
11595SOL    HW136617   5.996   6.319   8.168
11595SOL    HW236618   6.085   6.348   8.287
11596SOL     OW36619   0.503  13.855   0.969
11596SOL    HW136620   0.419  13.854   1.015
11596SOL    HW236621   0.480  13.867   0.877
11597SOL     OW36622  13.215   6.295   0.694
11597SOL    HW136623  13.250   6.267   0.609
11597SOL    HW236624  13.263   6.242   0.758
11598SOL     OW36625   4.527   1.613   7.236
11598SOL    HW136626   4.508   1.620   7.143
11598SOL    HW236627   4.488   1.690   7.275
11599SOL     OW36628  11.979   9.514   8.391
11599SOL    HW136629  12.071   9.539   8.402
11599SOL    HW236630  11.967   9.509   8.296
11600SOL     OW36631   6.048   1.161   8.430
11600SOL    HW136632   6.122   1.114   8.467
11600SOL    HW236633   6.001   1.196   8.506
11601SOL     OW36634   1.216  12.287   8.632
11601SOL    HW136635   1.135  12.293   8.582
11601SOL    HW236636   1.264  12.367   8.610
11602SOL     OW36637   8.146   5.975  13.140
11602SOL    HW136638   8.185   5.894  13.108
11602SOL    HW236639   8.081   5.947  13.205
11603SOL     OW36640   1.177   4.930   0.067
11603SOL    HW136641   1.101   4.915   0.124
11603SOL    HW236642   1.154   4.887  14.860
11604SOL     OW36643   1.041  11.620  11.349
11604SOL    HW136644   1.009  11.541  11.393
11604SOL    HW236645   1.111  11.652  11.405
11605SOL     OW36646  12.780  12.895  10.579
11605SOL    HW136647  12.715  12.825  10.578
11605SOL    HW236648  12.843  12.871  10.512
11606SOL     OW36649   9.301   2.692   2.260
11606SOL    HW136650   9.225   2.700   2.202
11606SOL    HW236651   9.265   2.704   2.348
11607SOL     OW36652   4.006   6.320  11.050
11607SOL    HW136653   3.928   6.288  11.003
11607SOL    HW236654   4.000   6.415  11.043
11608SOL     OW36655   8.612  11.721  13.531
11608SOL    HW136656   8.518  11.705  13.539
11608SOL    HW236657   8.653  11.642  13.566
11609SOL     OW36658   8.198   3.996   6.930
11609SOL    HW136659   8.236   4.084   6.934
11609SOL    HW236660   8.228   3.961   6.846
11610SOL     OW36661  14.716   4.156  14.215
11610SOL    HW136662  14.772   4.080  14.199
11610SOL    HW236663  14.771   4.232  14.194
11611SOL     OW36664  13.050   8.789   1.671
11611SOL    HW136665  12.995   8.758   1.600
11611SOL    HW236666  12.998   8.857   1.715
11612SOL     OW36667  14.538  12.064  11.486
11612SOL    HW136668  14.530  12.159  11.477
11612SOL    HW236669  14.609  12.052  11.548
11613SOL     OW36670  10.066   7.457   0.186
11613SOL    HW136671  10.053   7.364   0.166
11613SOL    HW236672  10.161   7.467   0.194
11614SOL     OW36673   5.013  12.022   5.908
11614SOL    HW136674   5.036  11.934   5.938
11614SOL    HW236675   4.991  12.011   5.816
11615SOL     OW36676   0.850   5.715   5.212
11615SOL    HW136677   0.764   5.751   5.237
11615SOL    HW236678   0.848   5.626   5.245
11616SOL     OW36679  13.851   5.012   4.489
11616SOL    HW136680  13.801   5.030   4.568
11616SOL    HW236681  13.875   5.099   4.456
11617SOL     OW36682   1.431  13.660   6.900
11617SOL    HW136683   1.392  13.669   6.987
11617SOL    HW236684   1.521  13.634   6.916
11618SOL     OW36685   5.580   5.574   5.746
11618SOL    HW136686   5.499   5.559   5.795
11618SOL    HW236687   5.552   5.575   5.654
11619SOL     OW36688  13.918  11.867   8.955
11619SOL    HW136689  13.875  11.785   8.930
11619SOL    HW236690  13.997  11.871   8.901
11620SOL     OW36691   2.662   6.071   2.169
11620SOL    HW136692   2.610   6.146   2.140
11620SOL    HW236693   2.727   6.059   2.099
11621SOL     OW36694   3.868   7.119  10.155
11621SOL    HW136695   3.855   7.066  10.077
11621SOL    HW236696   3.962   7.116  10.171
11622SOL     OW36697  14.399   4.654   4.802
11622SOL    HW136698  14.397   4.750   4.806
11622SOL    HW236699  14.423   4.628   4.891
11623SOL     OW36700  12.386   0.661   4.836
11623SOL    HW136701  12.368   0.716   4.913
11623SOL    HW236702  12.451   0.598   4.867
11624SOL     OW36703   3.832   6.572   4.767
11624SOL    HW136704   3.843   6.588   4.673
11624SOL    HW236705   3.870   6.649   4.809
11625SOL     OW36706  11.114   7.183   1.810
11625SOL    HW136707  11.067   7.102   1.829
11625SOL    HW236708  11.205   7.156   1.798
11626SOL     OW36709  10.775  10.616   3.325
11626SOL    HW136710  10.732  10.702   3.324
11626SOL    HW236711  10.855  10.631   3.375
11627SOL     OW36712  14.727  13.300   4.145
11627SOL    HW136713  14.754  13.232   4.082
11627SOL    HW236714  14.805  13.315   4.199
11628SOL     OW36715  12.968   1.659  13.626
11628SOL    HW136716  13.038   1.725  13.630
11628SOL    HW236717  12.912   1.678  13.701
11629SOL     OW36718   3.076   7.601   9.524
11629SOL    HW136719   3.138   7.634   9.459
11629SOL    HW236720   3.008   7.558   9.473
11630SOL     OW36721   3.235  14.369   9.409
11630SOL    HW136722   3.327  14.361   9.435
11630SOL    HW236723   3.237  14.412   9.324
11631SOL     OW36724   6.733  13.822   4.948
11631SOL    HW136725   6.658  13.861   4.995
11631SOL    HW236726   6.809  13.866   4.985
11632SOL     OW36727  13.978   0.504   0.655
11632SOL    HW136728  13.947   0.463   0.736
11632SOL    HW236729  14.047   0.445   0.623
11633SOL     OW36730  11.282   3.100   1.126
11633SOL    HW136731  11.354   3.158   1.151
11633SOL    HW236732  11.234   3.148   1.059
11634SOL     OW36733   9.795   8.462   8.826
11634SOL    HW136734   9.715   8.507   8.798
11634SOL    HW236735   9.790   8.462   8.922
11635SOL     OW36736   8.302   4.179  12.153
11635SOL    HW136737   8.219   4.166  12.107
11635SOL    HW236738   8.369   4.156  12.088
11636SOL     OW36739   6.416   2.874   7.030
11636SOL    HW136740   6.394   2.821   6.954
11636SOL    HW236741   6.359   2.951   7.024
11637SOL     OW36742   3.336   3.109   1.685
11637SOL    HW136743   3.366   3.050   1.616
11637SOL    HW236744   3.264   3.157   1.645
11638SOL     OW36745   4.071   8.139   7.128
11638SOL    HW136746   4.166   8.123   7.126
11638SOL    HW236747   4.063   8.233   7.137
11639SOL     OW36748  12.015  10.321  12.521
11639SOL    HW136749  12.090  10.276  12.483
11639SOL    HW236750  12.046  10.352  12.606
11640SOL     OW36751  10.775   5.053   5.320
11640SOL    HW136752  10.818   4.969   5.306
11640SOL    HW236753  10.706   5.056   5.253
11641SOL     OW36754   7.980  12.032  11.081
11641SOL    HW136755   7.999  12.105  11.022
11641SOL    HW236756   8.021  11.956  11.038
11642SOL     OW36757   0.174   6.682   2.069
11642SOL    HW136758   0.193   6.592   2.094
11642SOL    HW236759   0.238   6.735   2.116
11643SOL     OW36760   8.631   4.070  14.003
11643SOL    HW136761   8.538   4.055  13.985
11643SOL    HW236762   8.669   4.093  13.918
11644SOL     OW36763   0.939  10.851   5.964
11644SOL    HW136764   0.993  10.802   5.901
11644SOL    HW236765   0.987  10.845   6.046
11645SOL     OW36766   0.151   5.495   2.484
11645SOL    HW136767   0.119   5.425   2.540
11645SOL    HW236768   0.231   5.526   2.527
11646SOL     OW36769   1.809  10.336   6.461
11646SOL    HW136770   1.792  10.243   6.474
11646SOL    HW236771   1.903  10.346   6.478
11647SOL     OW36772   9.029  11.404   5.772
11647SOL    HW136773   9.045  11.451   5.690
11647SOL    HW236774   9.115  11.393   5.811
11648SOL     OW36775  14.775   4.465   6.559
11648SOL    HW136776  14.797   4.382   6.600
11648SOL    HW236777  14.750   4.522   6.631
11649SOL     OW36778   7.394   9.536  11.383
11649SOL    HW136779   7.442   9.510  11.305
11649SOL    HW236780   7.426   9.478  11.452
11650SOL     OW36781  12.118  13.037  12.302
11650SOL    HW136782  12.075  13.106  12.352
11650SOL    HW236783  12.094  12.956  12.347
11651SOL     OW36784   9.525   0.082   6.779
11651SOL    HW136785   9.555   0.149   6.718
11651SOL    HW236786   9.510   0.004   6.725
11652SOL     OW36787   2.920   8.619   6.244
11652SOL    HW136788   2.848   8.561   6.219
11652SOL    HW236789   2.999   8.569   6.222
11653SOL     OW36790  10.229   0.211  13.882
11653SOL    HW136791  10.226   0.275  13.811
11653SOL    HW236792  10.315   0.170  13.874
11654SOL     OW36793   5.441  14.475   0.696
11654SOL    HW136794   5.404  14.520   0.771
11654SOL    HW236795   5.515  14.425   0.731
11655SOL     OW36796   8.546  10.909   6.733
11655SOL    HW136797   8.538  10.897   6.638
11655SOL    HW236798   8.467  10.868   6.768
11656SOL     OW36799   6.450   3.870   8.290
11656SOL    HW136800   6.433   3.910   8.375
11656SOL    HW236801   6.364   3.843   8.258
11657SOL     OW36802   2.299   9.189  10.225
11657SOL    HW136803   2.388   9.188  10.190
11657SOL    HW236804   2.243   9.185  10.147
11658SOL     OW36805   2.768   9.252   2.834
11658SOL    HW136806   2.827   9.322   2.862
11658SOL    HW236807   2.824   9.176   2.822
11659SOL     OW36808   3.079  10.838   1.217
11659SOL    HW136809   3.151  10.775   1.216
11659SOL    HW236810   3.120  10.920   1.190
11660SOL     OW36811  13.678   9.586   2.264
11660SOL    HW136812  13.698   9.679   2.258
11660SOL    HW236813  13.746   9.543   2.211
11661SOL     OW36814   7.567   1.041   1.655
11661SOL    HW136815   7.613   1.036   1.571
11661SOL    HW236816   7.635   1.022   1.720
11662SOL     OW36817  14.754  13.226   1.665
11662SOL    HW136818  14.806  13.150   1.693
11662SOL    HW236819  14.819  13.286   1.628
11663SOL     OW36820  13.231  11.980  10.650
11663SOL    HW136821  13.299  11.925  10.612
11663SOL    HW236822  13.149  11.934  10.632
11664SOL     OW36823  10.925  10.570   7.484
11664SOL    HW136824  11.000  10.607   7.438
11664SOL    HW236825  10.936  10.476   7.478
11665SOL     OW36826  14.466   0.988  11.499
11665SOL    HW136827  14.439   1.076  11.473
11665SOL    HW236828  14.414   0.969  11.577
11666SOL     OW36829   9.818   5.030  13.286
11666SOL    HW136830   9.771   4.949  13.269
11666SOL    HW236831   9.759   5.081  13.342
11667SOL     OW36832  10.643  10.671  12.003
11667SOL    HW136833  10.723  10.619  12.001
11667SOL    HW236834  10.673  10.761  12.019
11668SOL     OW36835  13.840   1.728   1.697
11668SOL    HW136836  13.814   1.704   1.786
11668SOL    HW236837  13.933   1.703   1.691
11669SOL     OW36838   3.368   4.791   9.241
11669SOL    HW136839   3.284   4.828   9.266
11669SOL    HW236840   3.429   4.819   9.310
11670SOL     OW36841  11.426   2.198   1.413
11670SOL    HW136842  11.397   2.183   1.323
11670SOL    HW236843  11.520   2.218   1.404
11671SOL     OW36844   0.364   1.850   6.326
11671SOL    HW136845   0.402   1.788   6.388
11671SOL    HW236846   0.386   1.815   6.240
11672SOL     OW36847   3.325   7.728   4.599
11672SOL    HW136848   3.370   7.797   4.648
11672SOL    HW236849   3.390   7.695   4.538
11673SOL     OW36850  13.307   1.570  11.236
11673SOL    HW136851  13.274   1.592  11.323
11673SOL    HW236852  13.269   1.484  11.216
11674SOL     OW36853  14.021  10.771   3.014
11674SOL    HW136854  13.988  10.789   3.102
11674SOL    HW236855  13.942  10.753   2.963
11675SOL     OW36856  12.779   2.647   5.853
11675SOL    HW136857  12.769   2.581   5.784
11675SOL    HW236858  12.790   2.596   5.933
11676SOL     OW36859   4.595   1.870  12.327
11676SOL    HW136860   4.597   1.903  12.238
11676SOL    HW236861   4.512   1.822  12.333
11677SOL     OW36862   4.958  11.764  12.011
11677SOL    HW136863   4.896  11.758  11.938
11677SOL    HW236864   5.036  11.719  11.980
11678SOL     OW36865  11.815   7.190  14.682
11678SOL    HW136866  11.771   7.275  14.690
11678SOL    HW236867  11.808   7.151  14.769
11679SOL     OW36868   0.798  13.381  12.998
11679SOL    HW136869   0.781  13.300  13.047
11679SOL    HW236870   0.712  13.419  12.983
11680SOL     OW36871  13.431  11.424   1.309
11680SOL    HW136872  13.415  11.398   1.218
11680SOL    HW236873  13.424  11.520   1.308
11681SOL     OW36874   3.500   8.602   3.614
11681SOL    HW136875   3.587   8.598   3.655
11681SOL    HW236876   3.498   8.688   3.571
11682SOL     OW36877   3.373   0.395   0.619
11682SOL    HW136878   3.350   0.346   0.698
11682SOL    HW236879   3.366   0.487   0.644
11683SOL     OW36880   7.477  10.239   1.486
11683SOL    HW136881   7.495  10.301   1.556
11683SOL    HW236882   7.555  10.183   1.482
11684SOL     OW36883  11.236   4.922  11.983
11684SOL    HW136884  11.276   4.927  11.897
11684SOL    HW236885  11.240   5.011  12.017
11685SOL     OW36886   8.339  13.777   5.315
11685SOL    HW136887   8.244  13.792   5.315
11685SOL    HW236888   8.373  13.836   5.382
11686SOL     OW36889   6.609   2.302   9.716
11686SOL    HW136890   6.614   2.310   9.812
11686SOL    HW236891   6.585   2.390   9.687
11687SOL     OW36892   9.703   8.837   9.671
11687SOL    HW136893   9.648   8.814   9.746
11687SOL    HW236894   9.648   8.893   9.616
11688SOL     OW36895   0.359   1.344   5.669
11688SOL    HW136896   0.372   1.312   5.758
11688SOL    HW236897   0.448   1.351   5.633
11689SOL     OW36898  10.861  12.178   8.561
11689SOL    HW136899  10.780  12.128   8.552
11689SOL    HW236900  10.833  12.264   8.592
11690SOL     OW36901   4.533   9.692  12.357
11690SOL    HW136902   4.522   9.605  12.397
11690SOL    HW236903   4.602   9.733  12.409
11691SOL     OW36904   6.612   0.611  10.063
11691SOL    HW136905   6.674   0.666  10.111
11691SOL    HW236906   6.557   0.571  10.130
11692SOL     OW36907   3.789  11.345   2.037
11692SOL    HW136908   3.757  11.434   2.051
11692SOL    HW236909   3.743  11.292   2.102
11693SOL     OW36910   7.872   9.274   5.374
11693SOL    HW136911   7.941   9.222   5.415
11693SOL    HW236912   7.794   9.256   5.426
11694SOL     OW36913  13.384  13.021   4.389
11694SOL    HW136914  13.422  12.939   4.357
11694SOL    HW236915  13.298  12.995   4.425
11695SOL     OW36916  14.137   1.653   3.310
11695SOL    HW136917  14.179   1.737   3.291
11695SOL    HW236918  14.108   1.661   3.401
11696SOL     OW36919   7.144   3.080  13.927
11696SOL    HW136920   7.089   3.157  13.916
11696SOL    HW236921   7.084   3.006  13.923
11697SOL     OW36922   2.043  12.319  12.334
11697SOL    HW136923   2.092  12.366  12.401
11697SOL    HW236924   2.004  12.388  12.280
11698SOL     OW36925   2.370   4.794  10.620
11698SOL    HW136926   2.331   4.773  10.535
11698SOL    HW236927   2.305   4.851  10.662
11699SOL     OW36928   6.669   5.364   9.034
11699SOL    HW136929   6.597   5.423   9.017
11699SOL    HW236930   6.671   5.305   8.958
11700SOL     OW36931   9.972   2.717  14.567
11700SOL    HW136932  10.011   2.665  14.637
11700SOL    HW236933  10.027   2.700  14.490
11701SOL     OW36934   6.966  10.350   4.674
11701SOL    HW136935   7.029  10.283   4.650
11701SOL    HW236936   6.884  10.323   4.633
11702SOL     OW36937   7.224   5.092  10.177
11702SOL    HW136938   7.268   5.171  10.210
11702SOL    HW236939   7.186   5.052  10.255
11703SOL     OW36940  14.023   3.863   1.789
11703SOL    HW136941  13.947   3.912   1.819
11703SOL    HW236942  14.067   3.922   1.727
11704SOL     OW36943  12.878   1.296   3.241
11704SOL    HW136944  12.855   1.371   3.187
11704SOL    HW236945  12.802   1.280   3.296
11705SOL     OW36946  12.032   6.351  10.246
11705SOL    HW136947  12.009   6.409  10.318
11705SOL    HW236948  12.124   6.371  10.227
11706SOL     OW36949   8.681   2.215   9.372
11706SOL    HW136950   8.633   2.175   9.444
11706SOL    HW236951   8.670   2.154   9.299
11707SOL     OW36952   1.022  11.437   8.936
11707SOL    HW136953   1.113  11.462   8.917
11707SOL    HW236954   0.970  11.481   8.868
11708SOL     OW36955  10.828  12.532  10.665
11708SOL    HW136956  10.780  12.578  10.733
11708SOL    HW236957  10.769  12.462  10.636
11709SOL     OW36958  13.776  10.765   4.241
11709SOL    HW136959  13.682  10.773   4.255
11709SOL    HW236960  13.789  10.675   4.210
11710SOL     OW36961  14.000  10.189   4.145
11710SOL    HW136962  13.926  10.220   4.092
11710SOL    HW236963  13.964  10.117   4.197
11711SOL     OW36964   5.011   4.810   3.930
11711SOL    HW136965   5.033   4.729   3.884
11711SOL    HW236966   4.980   4.782   4.016
11712SOL     OW36967  13.497  10.814  10.334
11712SOL    HW136968  13.473  10.728  10.300
11712SOL    HW236969  13.557  10.850  10.269
11713SOL     OW36970   7.760  12.951  11.456
11713SOL    HW136971   7.784  13.014  11.388
11713SOL    HW236972   7.825  12.882  11.449
11714SOL     OW36973   9.732  11.368   9.508
11714SOL    HW136974   9.716  11.439   9.570
11714SOL    HW236975   9.813  11.328   9.539
11715SOL     OW36976  14.551   7.678   8.038
11715SOL    HW136977  14.625   7.735   8.062
11715SOL    HW236978  14.545   7.685   7.943
11716SOL     OW36979  11.817  10.064   5.526
11716SOL    HW136980  11.899  10.077   5.574
11716SOL    HW236981  11.750  10.060   5.595
11717SOL     OW36982  11.408  10.658  13.048
11717SOL    HW136983  11.456  10.575  13.053
11717SOL    HW236984  11.363  10.666  13.132
11718SOL     OW36985   5.815  11.466   2.080
11718SOL    HW136986   5.800  11.384   2.033
11718SOL    HW236987   5.732  11.484   2.125
11719SOL     OW36988   3.799   5.785   1.914
11719SOL    HW136989   3.886   5.770   1.876
11719SOL    HW236990   3.741   5.729   1.863
11720SOL     OW36991   4.803   7.559  13.693
11720SOL    HW136992   4.812   7.475  13.648
11720SOL    HW236993   4.722   7.596  13.658
11721SOL     OW36994  12.263   8.999   6.172
11721SOL    HW136995  12.219   8.938   6.231
11721SOL    HW236996  12.217   9.083   6.186
11722SOL     OW36997  10.347   8.053   5.672
11722SOL    HW136998  10.345   8.131   5.615
11722SOL    HW236999  10.406   8.077   5.743
11723SOL     OW37000  13.903   6.992   6.994
11723SOL    HW137001  13.934   7.068   6.944
11723SOL    HW237002  13.814   6.976   6.961
11724SOL     OW37003  11.408   6.829   0.925
11724SOL    HW137004  11.415   6.857   1.016
11724SOL    HW237005  11.478   6.765   0.914
11725SOL     OW37006   7.498   2.341  12.166
11725SOL    HW137007   7.411   2.304  12.179
11725SOL    HW237008   7.518   2.324  12.074
11726SOL     OW37009   6.591   2.090  10.520
11726SOL    HW137010   6.545   2.014  10.556
11726SOL    HW237011   6.530   2.129  10.458
11727SOL     OW37012  10.394  10.638  13.122
11727SOL    HW137013  10.451  10.684  13.061
11727SOL    HW237014  10.311  10.630  13.077
11728SOL     OW37015   7.501   8.342  13.470
11728SOL    HW137016   7.499   8.437  13.468
11728SOL    HW237017   7.411   8.315  13.454
11729SOL     OW37018   8.474  11.720   1.917
11729SOL    HW137019   8.511  11.644   1.872
11729SOL    HW237020   8.431  11.683   1.994
11730SOL     OW37021   4.529  12.861  11.262
11730SOL    HW137022   4.515  12.954  11.279
11730SOL    HW237023   4.543  12.823  11.348
11731SOL     OW37024   7.304   5.810   9.418
11731SOL    HW137025   7.257   5.735   9.383
11731SOL    HW237026   7.281   5.882   9.359
11732SOL     OW37027   7.893   8.870  12.680
11732SOL    HW137028   7.799   8.881  12.693
11732SOL    HW237029   7.902   8.837  12.590
11733SOL     OW37030   9.156  13.743   0.670
11733SOL    HW137031   9.141  13.778   0.758
11733SOL    HW237032   9.214  13.808   0.628
11734SOL     OW37033   1.620  14.486   8.765
11734SOL    HW137034   1.647  14.433   8.690
11734SOL    HW237035   1.527  14.505   8.749
11735SOL     OW37036   6.615  12.342   9.544
11735SOL    HW137037   6.595  12.429   9.509
11735SOL    HW237038   6.691  12.355   9.600
11736SOL     OW37039   0.478   3.481   3.020
11736SOL    HW137040   0.523   3.561   3.045
11736SOL    HW237041   0.388   3.494   3.049
11737SOL     OW37042   2.813  12.844  12.423
11737SOL    HW137043   2.850  12.903  12.357
11737SOL    HW237044   2.781  12.902  12.492
11738SOL     OW37045  10.263   8.247   3.934
11738SOL    HW137046  10.241   8.247   4.027
11738SOL    HW237047  10.217   8.324   3.898
11739SOL     OW37048  13.949   2.806   7.987
11739SOL    HW137049  13.944   2.838   7.897
11739SOL    HW237050  14.038   2.827   8.015
11740SOL     OW37051  10.064  12.035   6.706
11740SOL    HW137052  10.137  11.999   6.757
11740SOL    HW237053   9.989  11.979   6.727
11741SOL     OW37054   3.347  11.406   4.528
11741SOL    HW137055   3.360  11.500   4.542
11741SOL    HW237056   3.388  11.365   4.604
11742SOL     OW37057   3.083   6.867   3.872
11742SOL    HW137058   3.064   6.940   3.931
11742SOL    HW237059   3.078   6.789   3.927
11743SOL     OW37060   6.125  11.525  12.075
11743SOL    HW137061   6.031  11.520  12.059
11743SOL    HW237062   6.159  11.441  12.043
11744SOL     OW37063  11.972   9.148   8.173
11744SOL    HW137064  11.978   9.075   8.235
11744SOL    HW237065  11.943   9.222   8.226
11745SOL     OW37066   8.690  14.126  11.591
11745SOL    HW137067   8.775  14.082  11.591
11745SOL    HW237068   8.627  14.056  11.570
11746SOL     OW37069   2.537   9.225  10.053
11746SOL    HW137070   2.520   9.242   9.961
11746SOL    HW237071   2.574   9.136  10.055
11747SOL     OW37072   1.263   6.878   0.012
11747SOL    HW137073   1.223   6.913   0.091
11747SOL    HW237074   1.265   6.951  14.826
11748SOL     OW37075   4.574  11.255  14.724
11748SOL    HW137076   4.483  11.279  14.742
11748SOL    HW237077   4.602  11.317  14.657
11749SOL     OW37078   0.352  12.747   1.587
11749SOL    HW137079   0.268  12.768   1.628
11749SOL    HW237080   0.335  12.751   1.493
11750SOL     OW37081   8.886   7.917   8.258
11750SOL    HW137082   8.915   7.937   8.347
11750SOL    HW237083   8.965   7.884   8.214
11751SOL     OW37084   2.988   2.205   4.209
11751SOL    HW137085   2.912   2.148   4.206
11751SOL    HW237086   3.007   2.215   4.302
11752SOL     OW37087   7.620   0.372   3.317
11752SOL    HW137088   7.573   0.454   3.319
11752SOL    HW237089   7.712   0.396   3.328
11753SOL     OW37090  13.116   3.735  10.931
11753SOL    HW137091  13.078   3.729  10.844
11753SOL    HW237092  13.210   3.727  10.917
11754SOL     OW37093   9.570   4.181   7.426
11754SOL    HW137094   9.579   4.156   7.334
11754SOL    HW237095   9.500   4.126   7.460
11755SOL     OW37096   2.483  12.558   8.498
11755SOL    HW137097   2.532  12.632   8.462
11755SOL    HW237098   2.531  12.481   8.468
11756SOL     OW37099  14.834  12.793   2.392
11756SOL    HW137100   0.010  12.803   2.472
11756SOL    HW237101  14.758  12.741   2.418
11757SOL     OW37102   8.787   6.103  12.142
11757SOL    HW137103   8.717   6.133  12.084
11757SOL    HW237104   8.852   6.065  12.082
11758SOL     OW37105   9.431   9.029   8.896
11758SOL    HW137106   9.350   9.011   8.849
11758SOL    HW237107   9.490   8.958   8.871
11759SOL     OW37108   0.916   1.919   8.838
11759SOL    HW137109   0.973   1.972   8.783
11759SOL    HW237110   0.866   1.865   8.776
11760SOL     OW37111  11.580   6.923   6.887
11760SOL    HW137112  11.600   6.934   6.794
11760SOL    HW237113  11.563   7.011   6.918
11761SOL     OW37114   3.254   9.922   4.866
11761SOL    HW137115   3.175   9.958   4.827
11761SOL    HW237116   3.298   9.877   4.795
11762SOL     OW37117   0.015   4.819  13.261
11762SOL    HW137118   0.075   4.883  13.301
11762SOL    HW237119   0.065   4.782  13.189
11763SOL     OW37120  11.712   4.645   6.810
11763SOL    HW137121  11.718   4.663   6.716
11763SOL    HW237122  11.794   4.678   6.847
11764SOL     OW37123   4.337   6.620   6.668
11764SOL    HW137124   4.372   6.663   6.746
11764SOL    HW237125   4.394   6.650   6.597
11765SOL     OW37126   9.521   9.727   6.872
11765SOL    HW137127   9.427   9.746   6.881
11765SOL    HW237128   9.563   9.785   6.935
11766SOL     OW37129  12.684   0.761   3.641
11766SOL    HW137130  12.598   0.733   3.610
11766SOL    HW237131  12.746   0.704   3.596
11767SOL     OW37132   5.770   2.279   0.726
11767SOL    HW137133   5.698   2.309   0.782
11767SOL    HW237134   5.804   2.201   0.770
11768SOL     OW37135   3.780  13.839  13.396
11768SOL    HW137136   3.855  13.897  13.387
11768SOL    HW237137   3.792  13.774  13.326
11769SOL     OW37138   5.688  13.593   2.628
11769SOL    HW137139   5.677  13.498   2.619
11769SOL    HW237140   5.599  13.627   2.635
11770SOL     OW37141   1.547   7.054   3.395
11770SOL    HW137142   1.531   7.148   3.385
11770SOL    HW237143   1.615   7.035   3.331
11771SOL     OW37144  14.658   9.419   0.242
11771SOL    HW137145  14.681   9.441   0.151
11771SOL    HW237146  14.726   9.357   0.269
11772SOL     OW37147   8.307   7.547  11.201
11772SOL    HW137148   8.252   7.560  11.124
11772SOL    HW237149   8.356   7.467  11.182
11773SOL     OW37150  10.923   2.633  10.971
11773SOL    HW137151  10.859   2.663  11.035
11773SOL    HW237152  10.875   2.631  10.888
11774SOL     OW37153   3.430   7.832  11.566
11774SOL    HW137154   3.410   7.802  11.477
11774SOL    HW237155   3.363   7.790  11.621
11775SOL     OW37156   5.280   9.167   1.132
11775SOL    HW137157   5.291   9.085   1.082
11775SOL    HW237158   5.186   9.170   1.150
11776SOL     OW37159  12.822   6.509  13.570
11776SOL    HW137160  12.745   6.459  13.541
11776SOL    HW237161  12.895   6.447  13.561
11777SOL     OW37162   8.681   8.902   2.895
11777SOL    HW137163   8.734   8.872   2.822
11777SOL    HW237164   8.744   8.930   2.961
11778SOL     OW37165   5.291   4.267   1.867
11778SOL    HW137166   5.306   4.291   1.958
11778SOL    HW237167   5.339   4.333   1.817
11779SOL     OW37168   0.263   5.711   4.208
11779SOL    HW137169   0.332   5.777   4.201
11779SOL    HW237170   0.294   5.653   4.278
11780SOL     OW37171   6.800   0.305   4.738
11780SOL    HW137172   6.732   0.349   4.790
11780SOL    HW237173   6.829   0.371   4.675
11781SOL     OW37174   9.033   2.237  11.897
11781SOL    HW137175   8.962   2.222  11.959
11781SOL    HW237176   9.053   2.330  11.906
11782SOL     OW37177   8.399  10.954   8.630
11782SOL    HW137178   8.321  10.987   8.584
11782SOL    HW237179   8.364  10.904   8.703
11783SOL     OW37180   5.328   5.526   3.649
11783SOL    HW137181   5.270   5.546   3.576
11783SOL    HW237182   5.390   5.462   3.614
11784SOL     OW37183   9.644   5.208  14.752
11784SOL    HW137184   9.672   5.164  14.671
11784SOL    HW237185   9.578   5.149  14.789
11785SOL     OW37186  12.442  12.843   3.007
11785SOL    HW137187  12.429  12.889   2.924
11785SOL    HW237188  12.520  12.790   2.993
11786SOL     OW37189   4.760  12.688   9.222
11786SOL    HW137190   4.821  12.694   9.149
11786SOL    HW237191   4.720  12.774   9.228
11787SOL     OW37192   6.071  14.195   4.379
11787SOL    HW137193   6.053  14.251   4.303
11787SOL    HW237194   6.122  14.251   4.438
11788SOL     OW37195  11.596   0.940   6.476
11788SOL    HW137196  11.591   0.913   6.384
11788SOL    HW237197  11.676   0.991   6.482
11789SOL     OW37198   3.092  12.778   3.938
11789SOL    HW137199   3.186  12.787   3.922
11789SOL    HW237200   3.077  12.683   3.937
11790SOL     OW37201  10.013  14.468   4.103
11790SOL    HW137202   9.945  14.425   4.050
11790SOL    HW237203  10.090  14.413   4.093
11791SOL     OW37204   9.434   4.158   9.149
11791SOL    HW137205   9.522   4.192   9.132
11791SOL    HW237206   9.439   4.066   9.124
11792SOL     OW37207   6.630  11.092   4.556
11792SOL    HW137208   6.605  11.125   4.469
11792SOL    HW237209   6.610  11.164   4.615
11793SOL     OW37210   4.952   9.887  10.331
11793SOL    HW137211   5.039   9.921  10.353
11793SOL    HW237212   4.905   9.962  10.295
11794SOL     OW37213  13.837   7.248   0.394
11794SOL    HW137214  13.823   7.324   0.338
11794SOL    HW237215  13.775   7.259   0.466
11795SOL     OW37216  12.467   9.597  13.036
11795SOL    HW137217  12.387   9.558  13.002
11795SOL    HW237218  12.525   9.604  12.960
11796SOL     OW37219  14.077   7.830   5.638
11796SOL    HW137220  14.139   7.855   5.570
11796SOL    HW237221  14.122   7.850   5.720
11797SOL     OW37222  10.537   1.938   3.143
11797SOL    HW137223  10.499   1.856   3.176
11797SOL    HW237224  10.610   1.956   3.201
11798SOL     OW37225   8.991   7.029   4.834
11798SOL    HW137226   8.935   7.044   4.910
11798SOL    HW237227   8.944   7.071   4.762
11799SOL     OW37228   1.482   5.327   6.770
11799SOL    HW137229   1.404   5.325   6.715
11799SOL    HW237230   1.470   5.403   6.827
11800SOL     OW37231  13.754   0.673  13.490
11800SOL    HW137232  13.702   0.753  13.475
11800SOL    HW237233  13.809   0.695  13.565
11801SOL     OW37234   0.135   4.032   9.988
11801SOL    HW137235   0.149   4.118   9.948
11801SOL    HW237236   0.047   4.007   9.961
11802SOL     OW37237   7.348   2.196   0.553
11802SOL    HW137238   7.308   2.278   0.523
11802SOL    HW237239   7.293   2.170   0.628
11803SOL     OW37240  11.236  11.533   1.175
11803SOL    HW137241  11.161  11.581   1.207
11803SOL    HW237242  11.293  11.523   1.251
11804SOL     OW37243   5.614   9.775   7.344
11804SOL    HW137244   5.585   9.847   7.288
11804SOL    HW237245   5.586   9.800   7.432
11805SOL     OW37246   0.562   0.734   7.495
11805SOL    HW137247   0.621   0.810   7.504
11805SOL    HW237248   0.550   0.725   7.400
11806SOL     OW37249  13.242   3.051   8.997
11806SOL    HW137250  13.268   3.140   9.021
11806SOL    HW237251  13.195   3.061   8.914
11807SOL     OW37252   7.018  14.024   6.938
11807SOL    HW137253   7.001  14.052   7.028
11807SOL    HW237254   7.088  14.081   6.908
11808SOL     OW37255  11.318  12.572   8.454
11808SOL    HW137256  11.340  12.526   8.534
11808SOL    HW237257  11.385  12.545   8.391
11809SOL     OW37258   6.602   8.269   9.647
11809SOL    HW137259   6.542   8.256   9.573
11809SOL    HW237260   6.580   8.356   9.681
11810SOL     OW37261   0.372   5.724   0.495
11810SOL    HW137262   0.297   5.692   0.445
11810SOL    HW237263   0.448   5.693   0.445
11811SOL     OW37264  10.751  10.027   6.083
11811SOL    HW137265  10.801  10.072   6.151
11811SOL    HW237266  10.723   9.945   6.124
11812SOL     OW37267  14.715   9.811   5.306
11812SOL    HW137268  14.707   9.831   5.213
11812SOL    HW237269  14.693   9.893   5.350
11813SOL     OW37270   9.482   5.591   2.547
11813SOL    HW137271   9.430   5.664   2.581
11813SOL    HW237272   9.535   5.629   2.478
11814SOL     OW37273  11.076   3.186   4.022
11814SOL    HW137274  11.074   3.247   3.949
11814SOL    HW237275  10.986   3.154   4.028
11815SOL     OW37276   3.324  11.038   9.933
11815SOL    HW137277   3.397  11.094   9.906
11815SOL    HW237278   3.248  11.096   9.928
11816SOL     OW37279   8.841   0.893   2.808
11816SOL    HW137280   8.791   0.948   2.748
11816SOL    HW237281   8.931   0.922   2.798
11817SOL     OW37282   2.879  14.617   7.360
11817SOL    HW137283   2.827  14.625   7.280
11817SOL    HW237284   2.940  14.546   7.342
11818SOL     OW37285  11.738  10.287  11.341
11818SOL    HW137286  11.711  10.309  11.252
11818SOL    HW237287  11.793  10.361  11.368
11819SOL     OW37288  11.991   7.518   4.014
11819SOL    HW137289  11.914   7.470   3.983
11819SOL    HW237290  12.059   7.498   3.950
11820SOL     OW37291  12.718  13.424   2.987
11820SOL    HW137292  12.634  13.424   3.032
11820SOL    HW237293  12.704  13.478   2.909
11821SOL     OW37294  11.932  13.784   0.989
11821SOL    HW137295  11.886  13.866   1.006
11821SOL    HW237296  12.023  13.810   0.974
11822SOL     OW37297   4.574  11.139   0.432
11822SOL    HW137298   4.635  11.154   0.360
11822SOL    HW237299   4.516  11.069   0.400
11823SOL     OW37300  10.096   1.460  13.244
11823SOL    HW137301  10.060   1.477  13.157
11823SOL    HW237302  10.106   1.547  13.283
11824SOL     OW37303  11.586   3.390   0.609
11824SOL    HW137304  11.594   3.322   0.542
11824SOL    HW237305  11.501   3.430   0.593
11825SOL     OW37306   1.582  14.268   7.236
11825SOL    HW137307   1.592  14.251   7.330
11825SOL    HW237308   1.526  14.345   7.231
11826SOL     OW37309   3.351  13.037   6.607
11826SOL    HW137310   3.413  13.019   6.536
11826SOL    HW237311   3.265  13.021   6.567
11827SOL     OW37312  14.656   4.188  14.465
11827SOL    HW137313  14.649   4.189  14.369
11827SOL    HW237314  14.743   4.223  14.483
11828SOL     OW37315   2.088  13.713   7.219
11828SOL    HW137316   2.168  13.689   7.172
11828SOL    HW237317   2.046  13.779   7.164
11829SOL     OW37318   6.527   9.947   3.478
11829SOL    HW137319   6.451  10.003   3.490
11829SOL    HW237320   6.592  10.003   3.436
11830SOL     OW37321   2.764   0.431  11.329
11830SOL    HW137322   2.712   0.362  11.371
11830SOL    HW237323   2.773   0.498  11.397
11831SOL     OW37324   1.521   7.668  12.504
11831SOL    HW137325   1.485   7.744  12.459
11831SOL    HW237326   1.599   7.645  12.454
11832SOL     OW37327   1.269  10.586   4.460
11832SOL    HW137328   1.252  10.633   4.378
11832SOL    HW237329   1.261  10.653   4.528
11833SOL     OW37330   6.810   7.988  11.926
11833SOL    HW137331   6.826   8.054  11.858
11833SOL    HW237332   6.763   7.918  11.881
11834SOL     OW37333  11.040  12.573   6.015
11834SOL    HW137334  11.018  12.596   6.105
11834SOL    HW237335  11.135  12.567   6.014
11835SOL     OW37336   4.903   5.867  13.696
11835SOL    HW137337   4.951   5.912  13.626
11835SOL    HW237338   4.883   5.781  13.659
11836SOL     OW37339   3.764   3.493   5.208
11836SOL    HW137340   3.806   3.528   5.287
11836SOL    HW237341   3.750   3.569   5.152
11837SOL     OW37342  10.807  12.021  11.193
11837SOL    HW137343  10.795  12.105  11.147
11837SOL    HW237344  10.725  11.974  11.180
11838SOL     OW37345   6.431   1.615   2.615
11838SOL    HW137346   6.499   1.548   2.610
11838SOL    HW237347   6.349   1.566   2.618
11839SOL     OW37348   9.872   8.495   3.925
11839SOL    HW137349   9.783   8.467   3.901
11839SOL    HW237350   9.857   8.562   3.993
11840SOL     OW37351   0.102  13.783  13.199
11840SOL    HW137352   0.083  13.797  13.292
11840SOL    HW237353   0.171  13.846  13.179
11841SOL     OW37354  13.775   9.563   5.244
11841SOL    HW137355  13.709   9.493   5.244
11841SOL    HW237356  13.849   9.526   5.196
11842SOL     OW37357  14.624   4.802   9.147
11842SOL    HW137358  14.623   4.707   9.153
11842SOL    HW237359  14.589   4.832   9.231
11843SOL     OW37360   9.484   3.645   0.370
11843SOL    HW137361   9.569   3.681   0.345
11843SOL    HW237362   9.492   3.551   0.354
11844SOL     OW37363   2.227   9.229   8.996
11844SOL    HW137364   2.230   9.145   9.042
11844SOL    HW237365   2.201   9.206   8.907
11845SOL     OW37366   2.076  10.549  10.781
11845SOL    HW137367   2.059  10.493  10.857
11845SOL    HW237368   2.104  10.633  10.819
11846SOL     OW37369  13.532   7.284   0.786
11846SOL    HW137370  13.601   7.226   0.819
11846SOL    HW237371  13.550   7.292   0.693
11847SOL     OW37372   5.711   0.694  13.866
11847SOL    HW137373   5.670   0.735  13.943
11847SOL    HW237374   5.649   0.711  13.795
11848SOL     OW37375   0.956  13.841   1.510
11848SOL    HW137376   1.012  13.873   1.581
11848SOL    HW237377   0.935  13.919   1.459
11849SOL     OW37378   9.618   9.792   3.367
11849SOL    HW137379   9.713   9.779   3.373
11849SOL    HW237380   9.592   9.742   3.290
11850SOL     OW37381   5.667   8.246  12.934
11850SOL    HW137382   5.634   8.288  13.013
11850SOL    HW237383   5.594   8.191  12.904
11851SOL     OW37384   9.234  10.679   3.767
11851SOL    HW137385   9.216  10.727   3.847
11851SOL    HW237386   9.165  10.613   3.762
11852SOL     OW37387   8.377  13.751   9.162
11852SOL    HW137388   8.331  13.733   9.243
11852SOL    HW237389   8.309  13.749   9.094
11853SOL     OW37390   8.409  11.529   7.650
11853SOL    HW137391   8.491  11.548   7.697
11853SOL    HW237392   8.350  11.599   7.677
11854SOL     OW37393   4.687  14.357  11.689
11854SOL    HW137394   4.662  14.266  11.677
11854SOL    HW237395   4.782  14.355  11.701
11855SOL     OW37396   6.818   7.474   2.622
11855SOL    HW137397   6.799   7.384   2.595
11855SOL    HW237398   6.805   7.474   2.717
11856SOL     OW37399   9.710  13.363   6.533
11856SOL    HW137400   9.719  13.314   6.451
11856SOL    HW237401   9.726  13.454   6.508
11857SOL     OW37402  11.014  13.633  10.254
11857SOL    HW137403  11.036  13.562  10.194
11857SOL    HW237404  11.015  13.593  10.341
11858SOL     OW37405   2.627   1.406  12.486
11858SOL    HW137406   2.690   1.477  12.477
11858SOL    HW237407   2.557   1.427  12.425
11859SOL     OW37408   3.915  14.147  12.640
11859SOL    HW137409   3.975  14.073  12.651
11859SOL    HW237410   3.869  14.154  12.724
11860SOL     OW37411   8.091   7.406   4.552
11860SOL    HW137412   8.167   7.462   4.534
11860SOL    HW237413   8.047   7.448   4.625
11861SOL     OW37414   9.008  13.193   7.784
11861SOL    HW137415   8.972  13.267   7.734
11861SOL    HW237416   9.083  13.163   7.732
11862SOL     OW37417  13.385  10.066  11.960
11862SOL    HW137418  13.366  10.160  11.965
11862SOL    HW237419  13.334  10.036  11.884
11863SOL     OW37420   5.327  14.081   0.867
11863SOL    HW137421   5.273  14.152   0.831
11863SOL    HW237422   5.382  14.124   0.933
11864SOL     OW37423   2.242  10.123   3.114
11864SOL    HW137424   2.248  10.126   3.019
11864SOL    HW237425   2.332  10.110   3.143
11865SOL     OW37426  12.973  11.262   9.490
11865SOL    HW137427  12.906  11.235   9.553
11865SOL    HW237428  12.994  11.181   9.442
11866SOL     OW37429   9.009   8.825   8.532
11866SOL    HW137430   8.935   8.770   8.505
11866SOL    HW237431   8.976   8.877   8.605
11867SOL     OW37432  10.793  10.770   2.664
11867SOL    HW137433  10.872  10.717   2.650
11867SOL    HW237434  10.730  10.736   2.601
11868SOL     OW37435   1.141  12.967  11.077
11868SOL    HW137436   1.186  12.892  11.037
11868SOL    HW237437   1.162  12.961  11.170
11869SOL     OW37438   3.600  11.282   2.528
11869SOL    HW137439   3.520  11.244   2.492
11869SOL    HW237440   3.569  11.340   2.598
11870SOL     OW37441   0.715  12.499  11.018
11870SOL    HW137442   0.642  12.560  11.020
11870SOL    HW237443   0.782  12.542  10.965
11871SOL     OW37444   7.107   1.877   5.863
11871SOL    HW137445   7.073   1.893   5.951
11871SOL    HW237446   7.069   1.947   5.810
11872SOL     OW37447   4.607   5.888   6.975
11872SOL    HW137448   4.541   5.956   6.962
11872SOL    HW237449   4.658   5.888   6.893
11873SOL     OW37450  12.545   5.156   5.621
11873SOL    HW137451  12.503   5.236   5.651
11873SOL    HW237452  12.490   5.085   5.654
11874SOL     OW37453   8.130   6.233  10.063
11874SOL    HW137454   8.133   6.315  10.113
11874SOL    HW237455   8.128   6.261   9.971
11875SOL     OW37456  12.177  11.047   1.633
11875SOL    HW137457  12.181  11.115   1.566
11875SOL    HW237458  12.113  10.984   1.600
11876SOL     OW37459   0.320   1.781   9.134
11876SOL    HW137460   0.366   1.769   9.217
11876SOL    HW237461   0.227   1.772   9.156
11877SOL     OW37462   0.480   6.095  12.112
11877SOL    HW137463   0.448   6.117  12.024
11877SOL    HW237464   0.551   6.033  12.097
11878SOL     OW37465   6.505  12.273   5.890
11878SOL    HW137466   6.552  12.244   5.968
11878SOL    HW237467   6.491  12.367   5.904
11879SOL     OW37468  10.900   9.718   9.767
11879SOL    HW137469  10.805   9.723   9.777
11879SOL    HW237470  10.928   9.810   9.763
11880SOL     OW37471  14.769  13.877  13.541
11880SOL    HW137472  14.783  13.950  13.482
11880SOL    HW237473  14.702  13.824  13.499
11881SOL     OW37474   4.309   1.217   6.860
11881SOL    HW137475   4.256   1.179   6.930
11881SOL    HW237476   4.277   1.174   6.780
11882SOL     OW37477   5.677   9.101  10.019
11882SOL    HW137478   5.713   9.037   9.957
11882SOL    HW237479   5.596   9.062  10.050
11883SOL     OW37480   8.022   4.308   0.495
11883SOL    HW137481   8.060   4.340   0.412
11883SOL    HW237482   7.950   4.252   0.468
11884SOL     OW37483   0.637   4.895   4.196
11884SOL    HW137484   0.549   4.911   4.161
11884SOL    HW237485   0.673   4.827   4.140
11885SOL     OW37486   0.652   2.646  13.259
11885SOL    HW137487   0.611   2.602  13.334
11885SOL    HW237488   0.740   2.667  13.289
11886SOL     OW37489   6.134  12.453   6.404
11886SOL    HW137490   6.214  12.487   6.365
11886SOL    HW237491   6.135  12.483   6.494
11887SOL     OW37492   1.302  14.174   0.907
11887SOL    HW137493   1.365  14.117   0.863
11887SOL    HW237494   1.345  14.260   0.910
11888SOL     OW37495   8.319   5.552   2.792
11888SOL    HW137496   8.271   5.568   2.873
11888SOL    HW237497   8.357   5.465   2.802
11889SOL     OW37498  14.562   9.935  12.045
11889SOL    HW137499  14.623   9.870  12.010
11889SOL    HW237500  14.618   9.997  12.092
11890SOL     OW37501   8.328   6.569  11.570
11890SOL    HW137502   8.380   6.588  11.493
11890SOL    HW237503   8.255   6.517  11.538
11891SOL     OW37504  10.711   0.603  12.587
11891SOL    HW137505  10.625   0.642  12.601
11891SOL    HW237506  10.713   0.578  12.495
11892SOL     OW37507   7.281  10.958   8.538
11892SOL    HW137508   7.347  10.993   8.598
11892SOL    HW237509   7.237  10.889   8.588
11893SOL     OW37510   8.807   5.837   8.051
11893SOL    HW137511   8.757   5.789   8.117
11893SOL    HW237512   8.741   5.885   8.001
11894SOL     OW37513  12.111  14.542   8.443
11894SOL    HW137514  12.134  14.540   8.535
11894SOL    HW237515  12.117  14.635   8.419
11895SOL     OW37516  11.556  12.799   1.551
11895SOL    HW137517  11.477  12.847   1.526
11895SOL    HW237518  11.588  12.762   1.470
11896SOL     OW37519   6.899   4.719   8.863
11896SOL    HW137520   6.872   4.640   8.815
11896SOL    HW237521   6.859   4.791   8.814
11897SOL     OW37522   7.138   4.569   0.254
11897SOL    HW137523   7.153   4.516   0.332
11897SOL    HW237524   7.075   4.636   0.282
11898SOL     OW37525   5.973   9.545   4.038
11898SOL    HW137526   5.912   9.589   3.979
11898SOL    HW237527   6.046   9.520   3.981
11899SOL     OW37528   7.128  12.583  10.333
11899SOL    HW137529   7.090  12.626  10.409
11899SOL    HW237530   7.066  12.599  10.262
11900SOL     OW37531  11.468   5.507   7.753
11900SOL    HW137532  11.409   5.483   7.682
11900SOL    HW237533  11.416   5.566   7.808
11901SOL     OW37534   9.791   4.721  14.415
11901SOL    HW137535   9.707   4.757  14.442
11901SOL    HW237536   9.780   4.701  14.322
11902SOL     OW37537   7.141   0.020  12.762
11902SOL    HW137538   7.226   0.024  12.808
11902SOL    HW237539   7.091  14.831  12.811
11903SOL     OW37540   6.193   2.850   3.871
11903SOL    HW137541   6.248   2.819   3.799
11903SOL    HW237542   6.184   2.944   3.855
11904SOL     OW37543   4.419   3.404  11.275
11904SOL    HW137544   4.359   3.381  11.346
11904SOL    HW237545   4.425   3.499  11.279
11905SOL     OW37546   0.738   2.027   0.994
11905SOL    HW137547   0.822   1.982   1.003
11905SOL    HW237548   0.729   2.042   0.900
11906SOL     OW37549   0.167  10.383   1.553
11906SOL    HW137550   0.256  10.417   1.561
11906SOL    HW237551   0.135  10.420   1.471
11907SOL     OW37552  13.427  10.434   9.232
11907SOL    HW137553  13.484  10.362   9.260
11907SOL    HW237554  13.341  10.394   9.224
11908SOL     OW37555  10.313   4.749   2.320
11908SOL    HW137556  10.253   4.679   2.297
11908SOL    HW237557  10.258   4.826   2.330
11909SOL     OW37558   8.769   7.606  10.171
11909SOL    HW137559   8.709   7.558  10.227
11909SOL    HW237560   8.729   7.692  10.161
11910SOL     OW37561   8.494   9.374   6.704
11910SOL    HW137562   8.508   9.398   6.612
11910SOL    HW237563   8.404   9.402   6.722
11911SOL     OW37564   5.108   7.765  10.950
11911SOL    HW137565   5.167   7.807  11.013
11911SOL    HW237566   5.155   7.685  10.925
11912SOL     OW37567   2.341   3.792   7.647
11912SOL    HW137568   2.418   3.797   7.591
11912SOL    HW237569   2.322   3.883   7.670
11913SOL     OW37570   8.909   2.336  10.337
11913SOL    HW137571   8.918   2.320  10.243
11913SOL    HW237572   8.917   2.431  10.345
11914SOL     OW37573   2.402   9.714   7.578
11914SOL    HW137574   2.365   9.802   7.583
11914SOL    HW237575   2.353   9.672   7.508
11915SOL     OW37576  13.151   3.762  13.050
11915SOL    HW137577  13.225   3.724  13.003
11915SOL    HW237578  13.156   3.722  13.137
11916SOL     OW37579   2.977   0.557  10.056
11916SOL    HW137580   3.024   0.474  10.069
11916SOL    HW237581   2.985   0.575   9.963
11917SOL     OW37582  11.342  11.057   4.250
11917SOL    HW137583  11.329  10.964   4.265
11917SOL    HW237584  11.259  11.098   4.273
11918SOL     OW37585  11.507   8.080   3.660
11918SOL    HW137586  11.508   8.175   3.646
11918SOL    HW237587  11.583   8.063   3.716
11919SOL     OW37588  14.155   2.611   9.989
11919SOL    HW137589  14.096   2.571  10.052
11919SOL    HW237590  14.203   2.677  10.040
11920SOL     OW37591   4.118   8.972   0.158
11920SOL    HW137592   4.062   8.895   0.171
11920SOL    HW237593   4.109   8.992   0.065
11921SOL     OW37594   8.799   1.176   8.444
11921SOL    HW137595   8.856   1.101   8.461
11921SOL    HW237596   8.773   1.166   8.352
11922SOL     OW37597   4.681  13.560  13.932
11922SOL    HW137598   4.697  13.466  13.941
11922SOL    HW237599   4.612  13.567  13.867
11923SOL     OW37600   1.902   5.216  14.666
11923SOL    HW137601   1.807   5.230  14.671
11923SOL    HW237602   1.938   5.302  14.647
11924SOL     OW37603  14.047   3.692  12.696
11924SOL    HW137604  14.109   3.628  12.658
11924SOL    HW237605  13.999   3.642  12.761
11925SOL     OW37606   4.728   7.260   5.521
11925SOL    HW137607   4.787   7.237   5.593
11925SOL    HW237608   4.708   7.352   5.536
11926SOL     OW37609   7.064   6.333   8.320
11926SOL    HW137610   7.084   6.287   8.239
11926SOL    HW237611   7.144   6.327   8.371
11927SOL     OW37612   1.958   0.170   9.828
11927SOL    HW137613   1.999   0.085   9.840
11927SOL    HW237614   2.028   0.228   9.798
11928SOL     OW37615   3.326   5.813  13.993
11928SOL    HW137616   3.365   5.868  13.925
11928SOL    HW237617   3.313   5.728  13.950
11929SOL     OW37618   4.390  12.286   9.711
11929SOL    HW137619   4.440  12.261   9.789
11929SOL    HW237620   4.321  12.342   9.745
11930SOL     OW37621   2.642   2.876   6.754
11930SOL    HW137622   2.694   2.887   6.675
11930SOL    HW237623   2.698   2.823   6.812
11931SOL     OW37624   1.999   3.505   0.290
11931SOL    HW137625   2.011   3.531   0.381
11931SOL    HW237626   2.088   3.507   0.252
11932SOL     OW37627   8.682   1.096  14.661
11932SOL    HW137628   8.771   1.111  14.628
11932SOL    HW237629   8.660   1.008  14.632
11933SOL     OW37630   5.497   3.007   2.648
11933SOL    HW137631   5.408   2.972   2.652
11933SOL    HW237632   5.542   2.951   2.586
11934SOL     OW37633  13.249   5.814   4.717
11934SOL    HW137634  13.199   5.759   4.778
11934SOL    HW237635  13.223   5.903   4.740
11935SOL     OW37636   7.613  12.104  12.234
11935SOL    HW137637   7.572  12.133  12.153
11935SOL    HW237638   7.691  12.055  12.206
11936SOL     OW37639   9.585  13.308  13.801
11936SOL    HW137640   9.512  13.358  13.837
11936SOL    HW237641   9.663  13.351  13.837
11937SOL     OW37642   6.827   1.214   3.006
11937SOL    HW137643   6.864   1.243   3.089
11937SOL    HW237644   6.902   1.189   2.953
11938SOL     OW37645  11.568   3.642  11.598
11938SOL    HW137646  11.563   3.701  11.523
11938SOL    HW237647  11.627   3.686  11.659
11939SOL     OW37648   8.430  14.845   0.619
11939SOL    HW137649   8.507  14.789   0.630
11939SOL    HW237650   8.459   0.037   0.558
11940SOL     OW37651  14.786  10.850   1.256
11940SOL    HW137652  14.842  10.827   1.183
11940SOL    HW237653  14.762  10.941   1.241
11941SOL     OW37654   9.680   2.928   5.008
11941SOL    HW137655   9.742   2.855   5.000
11941SOL    HW237656   9.683   2.971   4.922
11942SOL     OW37657  12.952   0.221   9.484
11942SOL    HW137658  12.887   0.236   9.415
11942SOL    HW237659  12.938   0.130   9.510
11943SOL     OW37660   9.368   3.557  10.633
11943SOL    HW137661   9.364   3.540  10.539
11943SOL    HW237662   9.301   3.623  10.649
11944SOL     OW37663  10.630  10.653   2.381
11944SOL    HW137664  10.630  10.640   2.286
11944SOL    HW237665  10.538  10.651   2.406
11945SOL     OW37666   3.435  11.940   8.336
11945SOL    HW137667   3.379  12.013   8.360
11945SOL    HW237668   3.374  11.869   8.314
11946SOL     OW37669  14.175  13.067   2.354
11946SOL    HW137670  14.191  13.079   2.261
11946SOL    HW237671  14.218  13.141   2.396
11947SOL     OW37672   3.459   0.986   3.193
11947SOL    HW137673   3.368   0.958   3.188
11947SOL    HW237674   3.456   1.068   3.243
11948SOL     OW37675   5.174   0.959  12.308
11948SOL    HW137676   5.117   1.000  12.373
11948SOL    HW237677   5.114   0.925  12.241
11949SOL     OW37678   9.158  10.465   1.457
11949SOL    HW137679   9.113  10.384   1.479
11949SOL    HW237680   9.125  10.530   1.519
11950SOL     OW37681   9.965   4.193   4.059
11950SOL    HW137682  10.029   4.264   4.063
11950SOL    HW237683   9.901   4.222   3.993
11951SOL     OW37684   4.218   6.093  14.765
11951SOL    HW137685   4.289   6.071  14.704
11951SOL    HW237686   4.162   6.016  14.765
11952SOL     OW37687   5.452  14.259   9.326
11952SOL    HW137688   5.372  14.219   9.360
11952SOL    HW237689   5.422  14.333   9.273
11953SOL     OW37690  14.771   7.222   2.068
11953SOL    HW137691  14.812   7.299   2.108
11953SOL    HW237692  14.685   7.216   2.109
11954SOL     OW37693   5.479   3.497   9.675
11954SOL    HW137694   5.385   3.481   9.668
11954SOL    HW237695   5.494   3.512   9.768
11955SOL     OW37696   0.085   5.948   1.331
11955SOL    HW137697  14.869   5.966   1.350
11955SOL    HW237698   0.115   6.023   1.279
11956SOL     OW37699   0.101   3.886   5.970
11956SOL    HW137700   0.012   3.922   5.975
11956SOL    HW237701   0.153   3.942   6.028
11957SOL     OW37702   0.855  10.137   8.365
11957SOL    HW137703   0.798  10.079   8.415
11957SOL    HW237704   0.931  10.151   8.421
11958SOL     OW37705   1.002   0.661  11.475
11958SOL    HW137706   0.920   0.682  11.518
11958SOL    HW237707   1.061   0.638  11.547
11959SOL     OW37708   2.555   3.630   1.873
11959SOL    HW137709   2.632   3.605   1.923
11959SOL    HW237710   2.521   3.547   1.838
11960SOL     OW37711   7.386  12.962   0.098
11960SOL    HW137712   7.430  12.979   0.181
11960SOL    HW237713   7.297  12.996   0.111
11961SOL     OW37714  10.080  10.993   5.370
11961SOL    HW137715  10.013  11.003   5.438
11961SOL    HW237716  10.161  10.977   5.418
11962SOL     OW37717   9.977   5.173   6.954
11962SOL    HW137718  10.026   5.144   6.877
11962SOL    HW237719  10.025   5.137   7.028
11963SOL     OW37720  13.473   1.860   8.130
11963SOL    HW137721  13.546   1.869   8.191
11963SOL    HW237722  13.396   1.884   8.181
11964SOL     OW37723  10.035  11.926   8.421
11964SOL    HW137724  10.094  11.852   8.410
11964SOL    HW237725   9.962  11.908   8.362
11965SOL     OW37726   6.169  11.807   3.127
11965SOL    HW137727   6.169  11.902   3.113
11965SOL    HW237728   6.099  11.792   3.190
11966SOL     OW37729   5.185   4.696   3.105
11966SOL    HW137730   5.186   4.717   3.011
11966SOL    HW237731   5.220   4.773   3.148
11967SOL     OW37732  12.755   9.876   9.930
11967SOL    HW137733  12.768   9.966   9.960
11967SOL    HW237734  12.760   9.881   9.835
11968SOL     OW37735   2.775   2.162   1.823
11968SOL    HW137736   2.867   2.177   1.846
11968SOL    HW237737   2.728   2.169   1.906
11969SOL     OW37738   9.106   3.675   8.119
11969SOL    HW137739   9.061   3.759   8.111
11969SOL    HW237740   9.090   3.648   8.210
11970SOL     OW37741   5.400  10.756   3.828
11970SOL    HW137742   5.333  10.726   3.889
11970SOL    HW237743   5.410  10.684   3.765
11971SOL     OW37744   8.185   1.588  11.485
11971SOL    HW137745   8.263   1.541  11.514
11971SOL    HW237746   8.150   1.536  11.413
11972SOL     OW37747   7.057   7.876  13.173
11972SOL    HW137748   7.011   7.959  13.172
11972SOL    HW237749   7.140   7.895  13.217
11973SOL     OW37750  14.774   0.278   1.510
11973SOL    HW137751  14.762   0.373   1.498
11973SOL    HW237752  14.686   0.245   1.525
11974SOL     OW37753  11.227  12.497  12.584
11974SOL    HW137754  11.259  12.544  12.507
11974SOL    HW237755  11.150  12.546  12.612
11975SOL     OW37756  14.499   2.060   7.637
11975SOL    HW137757  14.519   1.985   7.581
11975SOL    HW237758  14.440   2.025   7.704
11976SOL     OW37759   0.471  12.191   6.752
11976SOL    HW137760   0.533  12.236   6.694
11976SOL    HW237761   0.402  12.255   6.767
11977SOL     OW37762   0.347  13.904   7.687
11977SOL    HW137763   0.429  13.938   7.723
11977SOL    HW237764   0.283  13.916   7.758
11978SOL     OW37765   0.090   2.134   5.046
11978SOL    HW137766   0.163   2.083   5.010
11978SOL    HW237767   0.116   2.225   5.033
11979SOL     OW37768  14.252   8.961   0.931
11979SOL    HW137769  14.240   8.952   0.836
11979SOL    HW237770  14.239   9.054   0.948
11980SOL     OW37771  13.653   8.605  13.412
11980SOL    HW137772  13.694   8.535  13.464
11980SOL    HW237773  13.580   8.562  13.367
11981SOL     OW37774   8.593   8.873   1.522
11981SOL    HW137775   8.674   8.841   1.483
11981SOL    HW237776   8.533   8.798   1.517
11982SOL     OW37777  11.151  14.749   8.077
11982SOL    HW137778  11.069  14.753   8.028
11982SOL    HW237779  11.212  14.805   8.028
11983SOL     OW37780   1.796   8.023   9.234
11983SOL    HW137781   1.759   8.058   9.315
11983SOL    HW237782   1.784   7.928   9.242
11984SOL     OW37783   5.696   8.810  11.102
11984SOL    HW137784   5.692   8.890  11.049
11984SOL    HW237785   5.611   8.767  11.087
11985SOL     OW37786  12.245   0.207  12.449
11985SOL    HW137787  12.259   0.182  12.358
11985SOL    HW237788  12.219   0.126  12.492
11986SOL     OW37789   5.796  12.004  13.499
11986SOL    HW137790   5.723  12.007  13.438
11986SOL    HW237791   5.756  12.015  13.585
11987SOL     OW37792   3.280  14.359   8.020
11987SOL    HW137793   3.192  14.343   7.986
11987SOL    HW237794   3.266  14.397   8.107
11988SOL     OW37795   4.524   4.667  11.152
11988SOL    HW137796   4.571   4.637  11.230
11988SOL    HW237797   4.578   4.737  11.116
11989SOL     OW37798   3.275   3.736   7.926
11989SOL    HW137799   3.187   3.721   7.893
11989SOL    HW237800   3.329   3.672   7.881
11990SOL     OW37801   4.503  14.260   6.904
11990SOL    HW137802   4.499  14.344   6.857
11990SOL    HW237803   4.543  14.281   6.988
11991SOL     OW37804   6.987   5.490   5.566
11991SOL    HW137805   7.013   5.419   5.507
11991SOL    HW237806   7.062   5.503   5.624
11992SOL     OW37807  12.203   6.611   3.971
11992SOL    HW137808  12.214   6.568   4.056
11992SOL    HW237809  12.200   6.539   3.908
11993SOL     OW37810  13.120   9.746  14.643
11993SOL    HW137811  13.190   9.762  14.706
11993SOL    HW237812  13.053   9.811  14.665
11994SOL     OW37813   0.741   2.104   1.721
11994SOL    HW137814   0.746   2.180   1.662
11994SOL    HW237815   0.660   2.118   1.769
11995SOL     OW37816  11.248  12.773  13.903
11995SOL    HW137817  11.162  12.736  13.923
11995SOL    HW237818  11.311  12.711  13.941
11996SOL     OW37819   3.935   2.549  14.806
11996SOL    HW137820   3.994   2.584  14.873
11996SOL    HW237821   3.847   2.570  14.838
11997SOL     OW37822   7.423   5.524  11.259
11997SOL    HW137823   7.379   5.456  11.208
11997SOL    HW237824   7.514   5.497  11.263
11998SOL     OW37825  14.756  14.112   9.477
11998SOL    HW137826  14.683  14.173   9.469
11998SOL    HW237827  14.816  14.137   9.406
11999SOL     OW37828   3.715   7.591   0.585
11999SOL    HW137829   3.775   7.579   0.511
11999SOL    HW237830   3.651   7.655   0.555
12000SOL     OW37831   2.747  11.404  10.949
12000SOL    HW137832   2.718  11.450  10.870
12000SOL    HW237833   2.718  11.460  11.021
12001SOL     OW37834   8.200   0.367   8.630
12001SOL    HW137835   8.175   0.301   8.696
12001SOL    HW237836   8.257   0.319   8.570
12002SOL     OW37837   6.137   7.585   8.160
12002SOL    HW137838   6.229   7.597   8.138
12002SOL    HW237839   6.131   7.494   8.188
12003SOL     OW37840  10.002   8.770   5.431
12003SOL    HW137841   9.907   8.778   5.419
12003SOL    HW237842  10.012   8.723   5.513
12004SOL     OW37843   2.658  10.438  14.089
12004SOL    HW137844   2.655  10.343  14.084
12004SOL    HW237845   2.571  10.462  14.122
12005SOL     OW37846  12.225   3.513   1.098
12005SOL    HW137847  12.174   3.586   1.134
12005SOL    HW237848  12.272   3.478   1.174
12006SOL     OW37849   6.470   7.958   9.664
12006SOL    HW137850   6.443   7.870   9.691
12006SOL    HW237851   6.526   7.942   9.587
12007SOL     OW37852   7.553   1.978   3.678
12007SOL    HW137853   7.618   2.034   3.636
12007SOL    HW237854   7.498   2.038   3.727
12008SOL     OW37855   8.465   3.557   0.700
12008SOL    HW137856   8.521   3.516   0.766
12008SOL    HW237857   8.376   3.529   0.722
12009SOL     OW37858   0.935   1.548  12.756
12009SOL    HW137859   0.869   1.484  12.727
12009SOL    HW237860   0.916   1.562  12.849
12010SOL     OW37861   2.474  11.264   7.103
12010SOL    HW137862   2.409  11.241   7.169
12010SOL    HW237863   2.544  11.199   7.115
12011SOL     OW37864  12.621  14.016  10.975
12011SOL    HW137865  12.701  14.055  10.941
12011SOL    HW237866  12.585  13.965  10.903
12012SOL     OW37867   5.069   2.286   2.581
12012SOL    HW137868   5.053   2.316   2.671
12012SOL    HW237869   5.115   2.359   2.539
12013SOL     OW37870   8.332   8.115   4.177
12013SOL    HW137871   8.240   8.138   4.188
12013SOL    HW237872   8.332   8.024   4.149
12014SOL     OW37873   1.097   0.076   2.302
12014SOL    HW137874   1.075  14.868   2.343
12014SOL    HW237875   1.170   0.109   2.354
12015SOL     OW37876   0.765   1.941   0.115
12015SOL    HW137877   0.714   1.894   0.181
12015SOL    HW237878   0.839   1.979   0.164
12016SOL     OW37879   4.359  13.955  12.848
12016SOL    HW137880   4.443  13.910  12.856
12016SOL    HW237881   4.382  14.046  12.829
12017SOL     OW37882   6.424   2.550  11.289
12017SOL    HW137883   6.439   2.482  11.224
12017SOL    HW237884   6.440   2.632  11.242
12018SOL     OW37885  12.784   3.563  13.287
12018SOL    HW137886  12.697   3.534  13.259
12018SOL    HW237887  12.808   3.503  13.357
12019SOL     OW37888   6.840   5.062   5.607
12019SOL    HW137889   6.869   4.996   5.670
12019SOL    HW237890   6.918   5.116   5.592
12020SOL     OW37891  11.555   4.922   5.665
12020SOL    HW137892  11.475   4.927   5.717
12020SOL    HW237893  11.622   4.895   5.727
12021SOL     OW37894  12.727   7.832  10.247
12021SOL    HW137895  12.754   7.870  10.330
12021SOL    HW237896  12.721   7.907  10.187
12022SOL     OW37897  12.826  11.579  11.589
12022SOL    HW137898  12.890  11.619  11.530
12022SOL    HW237899  12.800  11.649  11.648
12023SOL     OW37900  11.649   8.270   3.365
12023SOL    HW137901  11.578   8.230   3.315
12023SOL    HW237902  11.707   8.198   3.388
12024SOL     OW37903   0.273   3.754   5.061
12024SOL    HW137904   0.340   3.705   5.110
12024SOL    HW237905   0.293   3.736   4.969
12025SOL     OW37906   4.353   4.425   6.048
12025SOL    HW137907   4.375   4.467   6.132
12025SOL    HW237908   4.402   4.474   5.983
12026SOL     OW37909  11.459  11.396   9.487
12026SOL    HW137910  11.487  11.420   9.576
12026SOL    HW237911  11.536  11.413   9.433
12027SOL     OW37912   5.191   2.773   3.767
12027SOL    HW137913   5.196   2.756   3.861
12027SOL    HW237914   5.103   2.810   3.754
12028SOL     OW37915  14.188   0.186   9.639
12028SOL    HW137916  14.210   0.212   9.728
12028SOL    HW237917  14.144   0.101   9.649
12029SOL     OW37918   8.571   5.403   9.572
12029SOL    HW137919   8.565   5.478   9.631
12029SOL    HW237920   8.502   5.343   9.602
12030SOL     OW37921   1.295   1.342   2.407
12030SOL    HW137922   1.316   1.288   2.483
12030SOL    HW237923   1.349   1.420   2.417
12031SOL     OW37924   9.379   9.362   1.860
12031SOL    HW137925   9.348   9.450   1.841
12031SOL    HW237926   9.399   9.364   1.954
12032SOL     OW37927  10.405   8.238   5.483
12032SOL    HW137928  10.327   8.202   5.442
12032SOL    HW237929  10.448   8.289   5.414
12033SOL     OW37930  12.283   5.401  10.413
12033SOL    HW137931  12.348   5.417  10.344
12033SOL    HW237932  12.331   5.414  10.495
12034SOL     OW37933   4.859   8.306   2.367
12034SOL    HW137934   4.895   8.280   2.452
12034SOL    HW237935   4.777   8.351   2.388
12035SOL     OW37936  13.275  10.436   2.003
12035SOL    HW137937  13.315  10.397   1.926
12035SOL    HW237938  13.276  10.530   1.986
12036SOL     OW37939  11.764   6.334   2.985
12036SOL    HW137940  11.782   6.241   2.997
12036SOL    HW237941  11.669   6.338   2.972
12037SOL     OW37942   0.146  12.175   8.468
12037SOL    HW137943   0.162  12.081   8.463
12037SOL    HW237944   0.069  12.183   8.525
12038SOL     OW37945  10.329   3.680   0.336
12038SOL    HW137946  10.297   3.594   0.308
12038SOL    HW237947  10.259   3.741   0.311
12039SOL     OW37948  13.908  13.940   7.461
12039SOL    HW137949  13.990  13.972   7.424
12039SOL    HW237950  13.903  13.849   7.434
12040SOL     OW37951   7.440  12.497   4.909
12040SOL    HW137952   7.373  12.437   4.943
12040SOL    HW237953   7.405  12.528   4.826
12041SOL     OW37954   9.319   7.274   8.919
12041SOL    HW137955   9.293   7.365   8.931
12041SOL    HW237956   9.237   7.228   8.900
12042SOL     OW37957  12.454  11.268   8.289
12042SOL    HW137958  12.379  11.232   8.336
12042SOL    HW237959  12.447  11.362   8.299
12043SOL     OW37960   3.986   5.431   2.750
12043SOL    HW137961   4.048   5.491   2.709
12043SOL    HW237962   3.912   5.486   2.776
12044SOL     OW37963   8.503   2.684   5.549
12044SOL    HW137964   8.455   2.613   5.592
12044SOL    HW237965   8.593   2.672   5.579
12045SOL     OW37966  11.706   9.374   6.383
12045SOL    HW137967  11.678   9.349   6.295
12045SOL    HW237968  11.635   9.344   6.440
12046SOL     OW37969  12.636   4.250   8.178
12046SOL    HW137970  12.674   4.220   8.260
12046SOL    HW237971  12.555   4.294   8.203
12047SOL     OW37972  13.210   7.401   5.094
12047SOL    HW137973  13.182   7.312   5.073
12047SOL    HW237974  13.306   7.398   5.086
12048SOL     OW37975  13.625  11.954   2.188
12048SOL    HW137976  13.657  11.927   2.102
12048SOL    HW237977  13.530  11.956   2.178
12049SOL     OW37978   8.051  13.052   1.615
12049SOL    HW137979   8.030  12.962   1.640
12049SOL    HW237980   8.009  13.106   1.682
12050SOL     OW37981  12.253   4.136   8.085
12050SOL    HW137982  12.322   4.142   8.152
12050SOL    HW237983  12.301   4.130   8.002
12051SOL     OW37984   2.590   4.682   0.384
12051SOL    HW137985   2.543   4.728   0.314
12051SOL    HW237986   2.527   4.681   0.457
12052SOL     OW37987   7.381  10.278  13.023
12052SOL    HW137988   7.344  10.344  13.082
12052SOL    HW237989   7.474  10.274  13.046
12053SOL     OW37990   9.307   6.738   6.978
12053SOL    HW137991   9.352   6.697   7.052
12053SOL    HW237992   9.361   6.715   6.902
12054SOL     OW37993   2.931   1.068   6.638
12054SOL    HW137994   2.870   1.087   6.709
12054SOL    HW237995   2.953   1.153   6.601
12055SOL     OW37996   5.026   4.200  11.350
12055SOL    HW137997   5.014   4.154  11.433
12055SOL    HW237998   4.976   4.281  11.360
12056SOL     OW37999   2.055  10.936   0.408
12056SOL    HW138000   1.974  10.974   0.374
12056SOL    HW238001   2.029  10.850   0.441
12057SOL     OW38002  13.822   9.419   9.316
12057SOL    HW138003  13.894   9.482   9.320
12057SOL    HW238004  13.780   9.425   9.402
12058SOL     OW38005   0.820  11.353  10.738
12058SOL    HW138006   0.845  11.436  10.779
12058SOL    HW238007   0.894  11.294  10.756
12059SOL     OW38008   0.997  13.737   9.301
12059SOL    HW138009   1.071  13.678   9.285
12059SOL    HW238010   1.006  13.806   9.235
12060SOL     OW38011  13.768   5.950   0.036
12060SOL    HW138012  13.698   6.007   0.068
12060SOL    HW238013  13.816   6.004  14.848
12061SOL     OW38014   5.697   1.847  10.007
12061SOL    HW138015   5.641   1.833  10.083
12061SOL    HW238016   5.786   1.849  10.042
12062SOL     OW38017  12.032   8.912   1.210
12062SOL    HW138018  12.030   8.824   1.249
12062SOL    HW238019  12.063   8.969   1.280
12063SOL     OW38020   0.596   5.600   0.044
12063SOL    HW138021   0.625   5.532  14.859
12063SOL    HW238022   0.524   5.560   0.092
12064SOL     OW38023   8.404   2.363  10.429
12064SOL    HW138024   8.500   2.366  10.423
12064SOL    HW238025   8.376   2.319  10.349
12065SOL     OW38026   0.339  13.836   8.218
12065SOL    HW138027   0.417  13.781   8.222
12065SOL    HW238028   0.365  13.919   8.259
12066SOL     OW38029  11.255   3.136  14.701
12066SOL    HW138030  11.291   3.057  14.663
12066SOL    HW238031  11.289   3.138  14.791
12067SOL     OW38032  12.445   5.441   8.346
12067SOL    HW138033  12.508   5.372   8.329
12067SOL    HW238034  12.384   5.437   8.272
12068SOL     OW38035   0.480   4.086   9.307
12068SOL    HW138036   0.423   4.013   9.331
12068SOL    HW238037   0.456   4.106   9.217
12069SOL     OW38038   4.488   5.809  14.770
12069SOL    HW138039   4.512   5.875  14.835
12069SOL    HW238040   4.569   5.762  14.753
12070SOL     OW38041   0.920   5.028   4.562
12070SOL    HW138042   1.001   5.028   4.511
12070SOL    HW238043   0.855   4.989   4.502
12071SOL     OW38044   5.404   4.365   5.602
12071SOL    HW138045   5.445   4.321   5.676
12071SOL    HW238046   5.469   4.359   5.531
12072SOL     OW38047   1.795   9.191  12.754
12072SOL    HW138048   1.826   9.202  12.844
12072SOL    HW238049   1.873   9.203  12.700
12073SOL     OW38050  11.616  10.030   6.207
12073SOL    HW138051  11.565  10.080   6.271
12073SOL    HW238052  11.684   9.987   6.258
12074SOL     OW38053   4.592  12.310  11.627
12074SOL    HW138054   4.607  12.227  11.582
12074SOL    HW238055   4.574  12.372  11.556
12075SOL     OW38056   6.441   3.807  12.000
12075SOL    HW138057   6.421   3.784  11.909
12075SOL    HW238058   6.534   3.784  12.011
12076SOL     OW38059   1.977   2.070   1.209
12076SOL    HW138060   1.882   2.062   1.193
12076SOL    HW238061   2.016   2.019   1.138
12077SOL     OW38062  11.438   2.375  13.806
12077SOL    HW138063  11.408   2.290  13.837
12077SOL    HW238064  11.358   2.428  13.800
12078SOL     OW38065   0.846   6.384  14.480
12078SOL    HW138066   0.824   6.306  14.429
12078SOL    HW238067   0.764   6.433  14.487
12079SOL     OW38068   2.543  14.287   6.707
12079SOL    HW138069   2.502  14.216   6.755
12079SOL    HW238070   2.521  14.269   6.615
12080SOL     OW38071  12.072  11.706  12.705
12080SOL    HW138072  12.089  11.634  12.766
12080SOL    HW238073  12.122  11.780  12.740
12081SOL     OW38074   0.037  11.134   2.958
12081SOL    HW138075   0.104  11.069   2.937
12081SOL    HW238076   0.083  11.202   3.006
12082SOL     OW38077   8.331   0.523   6.425
12082SOL    HW138078   8.388   0.587   6.468
12082SOL    HW238079   8.347   0.441   6.472
12083SOL     OW38080   0.155  11.647   4.559
12083SOL    HW138081   0.102  11.608   4.629
12083SOL    HW238082   0.171  11.737   4.589
12084SOL     OW38083   8.596  13.794   2.179
12084SOL    HW138084   8.558  13.749   2.254
12084SOL    HW238085   8.524  13.801   2.116
12085SOL     OW38086   7.779   0.193   9.163
12085SOL    HW138087   7.763   0.102   9.137
12085SOL    HW238088   7.873   0.197   9.181
12086SOL     OW38089   2.165   1.387  13.589
12086SOL    HW138090   2.251   1.350  13.572
12086SOL    HW238091   2.103   1.316  13.574
12087SOL     OW38092   9.154  14.228   5.935
12087SOL    HW138093   9.112  14.279   6.004
12087SOL    HW238094   9.101  14.149   5.927
12088SOL     OW38095  10.782   8.277   7.304
12088SOL    HW138096  10.692   8.272   7.272
12088SOL    HW238097  10.816   8.358   7.265
12089SOL     OW38098   7.078  13.943  14.702
12089SOL    HW138099   7.136  13.984  14.766
12089SOL    HW238100   6.999  13.998  14.702
12090SOL     OW38101   1.270   0.246  12.930
12090SOL    HW138102   1.193   0.224  12.877
12090SOL    HW238103   1.333   0.176  12.911
12091SOL     OW38104   9.882   8.110   3.501
12091SOL    HW138105   9.809   8.089   3.560
12091SOL    HW238106   9.948   8.044   3.521
12092SOL     OW38107   7.915   5.690  14.214
12092SOL    HW138108   7.944   5.610  14.170
12092SOL    HW238109   7.857   5.660  14.284
12093SOL     OW38110   4.583  13.840   8.047
12093SOL    HW138111   4.560  13.897   7.974
12093SOL    HW238112   4.500  13.827   8.094
12094SOL     OW38113  10.490   9.264   9.407
12094SOL    HW138114  10.495   9.264   9.312
12094SOL    HW238115  10.548   9.335   9.435
12095SOL     OW38116   7.715  11.575   5.001
12095SOL    HW138117   7.755  11.510   5.058
12095SOL    HW238118   7.716  11.534   4.914
12096SOL     OW38119   6.799   6.975  11.424
12096SOL    HW138120   6.867   7.002  11.362
12096SOL    HW238121   6.760   7.057  11.456
12097SOL     OW38122   4.524  10.735   3.090
12097SOL    HW138123   4.429  10.720   3.087
12097SOL    HW238124   4.562  10.648   3.097
12098SOL     OW38125   0.747   5.420   2.692
12098SOL    HW138126   0.657   5.418   2.725
12098SOL    HW238127   0.747   5.490   2.627
12099SOL     OW38128   4.007   7.210   9.728
12099SOL    HW138129   3.935   7.166   9.773
12099SOL    HW238130   4.086   7.173   9.769
12100SOL     OW38131   2.736  11.435   5.208
12100SOL    HW138132   2.717  11.348   5.174
12100SOL    HW238133   2.755  11.421   5.301
12101SOL     OW38134   5.425   9.411  11.848
12101SOL    HW138135   5.423   9.345  11.778
12101SOL    HW238136   5.390   9.365  11.925
12102SOL     OW38137  12.104  12.228   2.099
12102SOL    HW138138  12.173  12.292   2.117
12102SOL    HW238139  12.044  12.236   2.173
12103SOL     OW38140   8.237   9.002   7.284
12103SOL    HW138141   8.325   8.967   7.267
12103SOL    HW238142   8.178   8.929   7.263
12104SOL     OW38143   0.650  11.355  13.696
12104SOL    HW138144   0.654  11.440  13.651
12104SOL    HW238145   0.563  11.352  13.736
12105SOL     OW38146   5.030  14.127  13.791
12105SOL    HW138147   5.039  14.054  13.730
12105SOL    HW238148   5.049  14.205  13.739
12106SOL     OW38149   3.050  10.527  12.792
12106SOL    HW138150   3.046  10.437  12.762
12106SOL    HW238151   3.037  10.580  12.713
12107SOL     OW38152   3.269   2.831  10.227
12107SOL    HW138153   3.255   2.741  10.198
12107SOL    HW238154   3.248   2.884  10.151
12108SOL     OW38155   9.368   1.653   8.381
12108SOL    HW138156   9.345   1.572   8.335
12108SOL    HW238157   9.304   1.659   8.451
12109SOL     OW38158   8.654   1.518  11.566
12109SOL    HW138159   8.590   1.557  11.625
12109SOL    HW238160   8.628   1.425  11.562
12110SOL     OW38161   8.316   6.022  11.719
12110SOL    HW138162   8.253   6.045  11.787
12110SOL    HW238163   8.374   5.958  11.761
12111SOL     OW38164   2.898  10.969   1.525
12111SOL    HW138165   2.886  10.893   1.582
12111SOL    HW238166   2.826  11.028   1.547
12112SOL     OW38167   5.860   0.757   8.377
12112SOL    HW138168   5.868   0.837   8.325
12112SOL    HW238169   5.819   0.786   8.459
12113SOL     OW38170   6.598  10.626   5.763
12113SOL    HW138171   6.550  10.551   5.798
12113SOL    HW238172   6.536  10.698   5.766
12114SOL     OW38173   8.352   1.170   9.631
12114SOL    HW138174   8.361   1.076   9.620
12114SOL    HW238175   8.323   1.201   9.545
12115SOL     OW38176   5.686  12.311  11.383
12115SOL    HW138177   5.721  12.399  11.374
12115SOL    HW238178   5.680  12.278  11.294
12116SOL     OW38179   4.991  13.191   5.136
12116SOL    HW138180   4.977  13.218   5.227
12116SOL    HW238181   4.930  13.119   5.123
12117SOL     OW38182  11.166   7.508  13.011
12117SOL    HW138183  11.115   7.567  13.066
12117SOL    HW238184  11.246   7.556  12.992
12118SOL     OW38185  14.705   7.782   0.045
12118SOL    HW138186  14.739   7.816   0.128
12118SOL    HW238187  14.661   7.856   0.005
12119SOL     OW38188  14.440   0.736   2.872
12119SOL    HW138189  14.504   0.798   2.840
12119SOL    HW238190  14.417   0.767   2.960
12120SOL     OW38191  14.773   6.961  13.926
12120SOL    HW138192  14.734   6.879  13.957
12120SOL    HW238193  14.805   7.003  14.006
12121SOL     OW38194   4.289   6.643   5.510
12121SOL    HW138195   4.286   6.573   5.445
12121SOL    HW238196   4.259   6.721   5.464
12122SOL     OW38197  12.206   7.019   1.007
12122SOL    HW138198  12.214   7.035   1.101
12122SOL    HW238199  12.146   6.945   1.000
12123SOL     OW38200   7.496   1.839   9.467
12123SOL    HW138201   7.480   1.932   9.486
12123SOL    HW238202   7.414   1.808   9.428
12124SOL     OW38203   2.100   8.666   0.894
12124SOL    HW138204   2.020   8.622   0.924
12124SOL    HW238205   2.094   8.754   0.932
12125SOL     OW38206  13.323   0.626   0.003
12125SOL    HW138207  13.339   0.558  14.814
12125SOL    HW238208  13.395   0.688  14.868
12126SOL     OW38209   7.466   7.904   4.753
12126SOL    HW138210   7.459   7.959   4.675
12126SOL    HW238211   7.538   7.943   4.803
12127SOL     OW38212  14.151   5.975   4.285
12127SOL    HW138213  14.226   5.967   4.343
12127SOL    HW238214  14.109   6.058   4.311
12128SOL     OW38215  11.818  10.744   1.404
12128SOL    HW138216  11.842  10.703   1.321
12128SOL    HW238217  11.849  10.682   1.470
12129SOL     OW38218   7.335   0.273   8.704
12129SOL    HW138219   7.418   0.319   8.721
12129SOL    HW238220   7.270   0.342   8.697
12130SOL     OW38221   5.354  11.716  13.664
12130SOL    HW138222   5.371  11.810  13.661
12130SOL    HW238223   5.331  11.693  13.573
12131SOL     OW38224   4.644   4.753   1.531
12131SOL    HW138225   4.649   4.761   1.436
12131SOL    HW238226   4.696   4.827   1.564
12132SOL     OW38227   6.538   9.426   0.609
12132SOL    HW138228   6.605   9.470   0.662
12132SOL    HW238229   6.563   9.334   0.610
12133SOL     OW38230  12.899  10.356  10.516
12133SOL    HW138231  12.925  10.268  10.544
12133SOL    HW238232  12.855  10.343  10.432
12134SOL     OW38233   8.245   5.104  14.548
12134SOL    HW138234   8.217   5.078  14.461
12134SOL    HW238235   8.255   5.021  14.596
12135SOL     OW38236   8.815   8.998  13.727
12135SOL    HW138237   8.833   9.023  13.636
12135SOL    HW238238   8.825   8.903  13.728
12136SOL     OW38239  10.284  11.622   6.260
12136SOL    HW138240  10.374  11.593   6.250
12136SOL    HW238241  10.232  11.557   6.213
12137SOL     OW38242  14.487  13.349   2.199
12137SOL    HW138243  14.568  13.385   2.235
12137SOL    HW238244  14.510  13.261   2.170
12138SOL     OW38245   7.043   3.003   3.911
12138SOL    HW138246   7.016   3.094   3.898
12138SOL    HW238247   7.138   3.004   3.898
12139SOL     OW38248   6.751  10.080   2.377
12139SOL    HW138249   6.786  10.073   2.466
12139SOL    HW238250   6.656  10.078   2.390
12140SOL     OW38251   0.326   2.962  10.402
12140SOL    HW138252   0.312   2.925  10.489
12140SOL    HW238253   0.420   2.982  10.400
12141SOL     OW38254  14.489   1.492   4.968
12141SOL    HW138255  14.490   1.410   5.018
12141SOL    HW238256  14.441   1.553   5.024
12142SOL     OW38257   4.850   0.440   1.187
12142SOL    HW138258   4.911   0.369   1.168
12142SOL    HW238259   4.773   0.397   1.225
12143SOL     OW38260   7.781   2.903   3.936
12143SOL    HW138261   7.866   2.887   3.977
12143SOL    HW238262   7.801   2.954   3.857
12144SOL     OW38263  12.063   3.340  12.023
12144SOL    HW138264  12.027   3.326  11.935
12144SOL    HW238265  12.023   3.422  12.052
12145SOL     OW38266  12.540   6.969   4.556
12145SOL    HW138267  12.498   7.041   4.509
12145SOL    HW238268  12.569   7.008   4.638
12146SOL     OW38269   7.382   1.344  11.372
12146SOL    HW138270   7.399   1.389  11.290
12146SOL    HW238271   7.287   1.336  11.377
12147SOL     OW38272   6.630   5.278  10.092
12147SOL    HW138273   6.610   5.315  10.006
12147SOL    HW238274   6.618   5.351  10.153
12148SOL     OW38275  13.080   1.403  14.153
12148SOL    HW138276  13.111   1.484  14.111
12148SOL    HW238277  13.071   1.341  14.081
12149SOL     OW38278   6.729   9.322   8.806
12149SOL    HW138279   6.774   9.336   8.889
12149SOL    HW238280   6.649   9.274   8.830
12150SOL     OW38281   2.039   1.915   0.997
12150SOL    HW138282   2.093   1.837   0.992
12150SOL    HW238283   2.000   1.923   0.910
12151SOL     OW38284  10.668   5.517   3.047
12151SOL    HW138285  10.578   5.488   3.032
12151SOL    HW238286  10.665   5.562   3.131
12152SOL     OW38287  11.050   5.423  12.695
12152SOL    HW138288  11.010   5.416  12.609
12152SOL    HW238289  10.977   5.414  12.757
12153SOL     OW38290   7.982  13.056  11.755
12153SOL    HW138291   8.070  13.050  11.718
12153SOL    HW238292   7.996  13.056  11.850
12154SOL     OW38293   1.030   2.462  10.491
12154SOL    HW138294   1.111   2.441  10.444
12154SOL    HW238295   1.055   2.457  10.584
12155SOL     OW38296  12.613  14.724   1.628
12155SOL    HW138297  12.665  14.647   1.606
12155SOL    HW238298  12.652  14.757   1.708
12156SOL     OW38299  12.724   7.443   2.399
12156SOL    HW138300  12.746   7.536   2.403
12156SOL    HW238301  12.728   7.422   2.306
12157SOL     OW38302  14.423   4.534   8.308
12157SOL    HW138303  14.458   4.544   8.396
12157SOL    HW238304  14.431   4.621   8.269
12158SOL     OW38305   7.730   4.690   3.564
12158SOL    HW138306   7.675   4.636   3.621
12158SOL    HW238307   7.770   4.628   3.503
12159SOL     OW38308  10.884   8.719   7.958
12159SOL    HW138309  10.890   8.814   7.968
12159SOL    HW238310  10.809   8.694   8.011
12160SOL     OW38311   0.691  14.433   4.193
12160SOL    HW138312   0.739  14.475   4.265
12160SOL    HW238313   0.633  14.502   4.160
12161SOL     OW38314  13.065  14.376   6.417
12161SOL    HW138315  13.023  14.428   6.486
12161SOL    HW238316  13.155  14.363   6.447
12162SOL     OW38317   8.694   9.930   6.503
12162SOL    HW138318   8.611   9.968   6.475
12162SOL    HW238319   8.698   9.845   6.460
12163SOL     OW38320   7.844   3.348   7.837
12163SOL    HW138321   7.762   3.314   7.801
12163SOL    HW238322   7.894   3.377   7.760
12164SOL     OW38323   8.178   7.090   1.483
12164SOL    HW138324   8.153   7.175   1.448
12164SOL    HW238325   8.267   7.076   1.450
12165SOL     OW38326   0.842   8.710   7.147
12165SOL    HW138327   0.769   8.772   7.155
12165SOL    HW238328   0.825   8.645   7.215
12166SOL     OW38329   6.024   3.288   1.862
12166SOL    HW138330   6.090   3.277   1.930
12166SOL    HW238331   6.040   3.375   1.827
12167SOL     OW38332   2.185   0.952   5.564
12167SOL    HW138333   2.116   1.019   5.563
12167SOL    HW238334   2.227   0.960   5.478
12168SOL     OW38335   0.106   5.606   7.118
12168SOL    HW138336   0.138   5.615   7.208
12168SOL    HW238337   0.037   5.672   7.110
12169SOL     OW38338   1.271  11.191  11.276
12169SOL    HW138339   1.251  11.254  11.206
12169SOL    HW238340   1.357  11.217  11.308
12170SOL     OW38341   3.993   0.750   0.661
12170SOL    HW138342   4.084   0.781   0.664
12170SOL    HW238343   3.971   0.751   0.568
12171SOL     OW38344   4.629   0.553   8.678
12171SOL    HW138345   4.687   0.619   8.717
12171SOL    HW238346   4.542   0.591   8.686
12172SOL     OW38347   6.433   3.305   0.364
12172SOL    HW138348   6.511   3.321   0.311
12172SOL    HW238349   6.400   3.220   0.334
12173SOL     OW38350  12.110  12.020   1.924
12173SOL    HW138351  12.028  12.046   1.883
12173SOL    HW238352  12.129  12.090   1.986
12174SOL     OW38353   3.065   9.110  11.174
12174SOL    HW138354   3.098   9.021  11.158
12174SOL    HW238355   3.103   9.162  11.103
12175SOL     OW38356  10.402   3.204   1.650
12175SOL    HW138357  10.320   3.253   1.651
12175SOL    HW238358  10.390   3.137   1.584
12176SOL     OW38359   1.394   9.731   7.732
12176SOL    HW138360   1.489   9.719   7.735
12176SOL    HW238361   1.359   9.645   7.757
12177SOL     OW38362  12.346   1.776  13.608
12177SOL    HW138363  12.437   1.797  13.628
12177SOL    HW238364  12.300   1.787  13.691
12178SOL     OW38365   5.743   4.462  14.578
12178SOL    HW138366   5.686   4.517  14.525
12178SOL    HW238367   5.703   4.463  14.665
12179SOL     OW38368   5.085   7.711   3.213
12179SOL    HW138369   5.091   7.736   3.305
12179SOL    HW238370   5.049   7.622   3.214
12180SOL     OW38371  13.581   6.761   0.613
12180SOL    HW138372  13.580   6.686   0.553
12180SOL    HW238373  13.592   6.837   0.556
12181SOL     OW38374   8.766  12.633   6.824
12181SOL    HW138375   8.715  12.690   6.882
12181SOL    HW238376   8.730  12.545   6.840
12182SOL     OW38377   6.496   5.197   0.382
12182SOL    HW138378   6.441   5.181   0.305
12182SOL    HW238379   6.434   5.204   0.454
12183SOL     OW38380  13.237   2.826  10.642
12183SOL    HW138381  13.278   2.843  10.726
12183SOL    HW238382  13.247   2.908  10.593
12184SOL     OW38383   6.211   8.995   1.323
12184SOL    HW138384   6.142   9.042   1.369
12184SOL    HW238385   6.212   9.033   1.236
12185SOL     OW38386   8.825  12.839   7.885
12185SOL    HW138387   8.887  12.835   7.812
12185SOL    HW238388   8.859  12.776   7.949
12186SOL     OW38389  12.626  11.308  13.392
12186SOL    HW138390  12.578  11.282  13.471
12186SOL    HW238391  12.594  11.248  13.324
12187SOL     OW38392   5.773   1.377   5.596
12187SOL    HW138393   5.787   1.377   5.691
12187SOL    HW238394   5.737   1.290   5.578
12188SOL     OW38395  13.526  13.815   6.683
12188SOL    HW138396  13.516  13.819   6.778
12188SOL    HW238397  13.618  13.797   6.669
12189SOL     OW38398   2.450   2.353  13.379
12189SOL    HW138399   2.534   2.399  13.379
12189SOL    HW238400   2.469   2.266  13.414
12190SOL     OW38401   1.058  10.669  10.764
12190SOL    HW138402   1.046  10.581  10.728
12190SOL    HW238403   1.050  10.657  10.859
12191SOL     OW38404  10.891  12.094  12.395
12191SOL    HW138405  10.849  12.107  12.310
12191SOL    HW238406  10.822  12.109  12.459
12192SOL     OW38407   0.135   5.880   4.009
12192SOL    HW138408   0.132   5.831   4.091
12192SOL    HW238409   0.076   5.833   3.951
12193SOL     OW38410   9.168  13.319   7.990
12193SOL    HW138411   9.110  13.246   7.966
12193SOL    HW238412   9.120  13.397   7.963
12194SOL     OW38413  12.498   5.046   7.184
12194SOL    HW138414  12.589   5.058   7.212
12194SOL    HW238415  12.446   5.089   7.252
12195SOL     OW38416   5.536   2.839   8.232
12195SOL    HW138417   5.555   2.876   8.318
12195SOL    HW238418   5.621   2.813   8.198
12196SOL     OW38419   8.927  14.666  13.313
12196SOL    HW138420   8.915  14.578  13.348
12196SOL    HW238421   8.983  14.709  13.378
12197SOL     OW38422  10.214  12.860  13.547
12197SOL    HW138423  10.243  12.909  13.624
12197SOL    HW238424  10.286  12.869  13.485
12198SOL     OW38425   0.260  10.727  14.656
12198SOL    HW138426   0.268  10.754  14.748
12198SOL    HW238427   0.232  10.635  14.661
12199SOL     OW38428   3.347   4.675   7.737
12199SOL    HW138429   3.272   4.686   7.795
12199SOL    HW238430   3.309   4.668   7.650
12200SOL     OW38431   6.369  13.428  13.203
12200SOL    HW138432   6.290  13.440  13.255
12200SOL    HW238433   6.347  13.464  13.117
12201SOL     OW38434  14.533  12.225  14.515
12201SOL    HW138435  14.517  12.190  14.602
12201SOL    HW238436  14.576  12.154  14.467
12202SOL     OW38437   4.555   1.204   2.650
12202SOL    HW138438   4.497   1.188   2.575
12202SOL    HW238439   4.599   1.287   2.629
12203SOL     OW38440  13.035   6.265  14.306
12203SOL    HW138441  12.976   6.340  14.297
12203SOL    HW238442  13.094   6.272  14.230
12204SOL     OW38443   5.379   9.043   9.048
12204SOL    HW138444   5.446   9.014   9.109
12204SOL    HW238445   5.352   8.964   9.001
12205SOL     OW38446  14.079  12.972   4.208
12205SOL    HW138447  14.147  13.039   4.207
12205SOL    HW238448  14.091  12.926   4.291
12206SOL     OW38449  10.212  11.294   7.853
12206SOL    HW138450  10.119  11.271   7.841
12206SOL    HW238451  10.254  11.267   7.772
12207SOL     OW38452  11.592   3.432   5.857
12207SOL    HW138453  11.573   3.397   5.944
12207SOL    HW238454  11.512   3.477   5.831
12208SOL     OW38455   2.855  11.725   3.554
12208SOL    HW138456   2.820  11.714   3.642
12208SOL    HW238457   2.894  11.640   3.533
12209SOL     OW38458  11.489   7.238  13.110
12209SOL    HW138459  11.582   7.243  13.089
12209SOL    HW238460  11.446   7.213  13.028
12210SOL     OW38461   5.410   5.929  10.493
12210SOL    HW138462   5.427   5.869  10.420
12210SOL    HW238463   5.484   5.917  10.552
12211SOL     OW38464   1.736   9.120  13.662
12211SOL    HW138465   1.793   9.071  13.603
12211SOL    HW238466   1.667   9.156  13.605
12212SOL     OW38467  14.854  12.916   6.933
12212SOL    HW138468  14.826  12.940   6.844
12212SOL    HW238469   0.072  12.932   6.933
12213SOL     OW38470   6.615   3.001   9.096
12213SOL    HW138471   6.680   2.988   9.027
12213SOL    HW238472   6.531   2.982   9.054
12214SOL     OW38473   5.705   3.926   7.266
12214SOL    HW138474   5.639   3.968   7.321
12214SOL    HW238475   5.750   3.865   7.326
12215SOL     OW38476  10.688   6.494  13.312
12215SOL    HW138477  10.739   6.434  13.366
12215SOL    HW238478  10.745   6.514  13.238
12216SOL     OW38479   0.411   5.404   4.082
12216SOL    HW138480   0.372   5.355   4.010
12216SOL    HW238481   0.362   5.486   4.085
12217SOL     OW38482   6.768   2.995   4.510
12217SOL    HW138483   6.715   2.987   4.431
12217SOL    HW238484   6.737   3.076   4.551
12218SOL     OW38485  13.813   2.867   7.211
12218SOL    HW138486  13.805   2.839   7.120
12218SOL    HW238487  13.837   2.960   7.205
12219SOL     OW38488  14.641  12.906   2.949
12219SOL    HW138489  14.613  12.961   2.876
12219SOL    HW238490  14.737  12.903   2.941
12220SOL     OW38491   9.012   9.159   0.209
12220SOL    HW138492   8.965   9.134   0.130
12220SOL    HW238493   9.091   9.104   0.209
12221SOL     OW38494  12.318  10.327   0.694
12221SOL    HW138495  12.404  10.370   0.690
12221SOL    HW238496  12.337  10.236   0.715
12222SOL     OW38497   5.427   1.971   0.717
12222SOL    HW138498   5.410   1.984   0.811
12222SOL    HW238499   5.364   1.903   0.691
12223SOL     OW38500   6.206  11.815   2.804
12223SOL    HW138501   6.267  11.858   2.863
12223SOL    HW238502   6.184  11.733   2.848
12224SOL     OW38503  11.334  13.587  14.072
12224SOL    HW138504  11.400  13.587  14.002
12224SOL    HW238505  11.385  13.586  14.153
12225SOL     OW38506   5.456   2.548   8.284
12225SOL    HW138507   5.453   2.641   8.260
12225SOL    HW238508   5.546   2.521   8.263
12226SOL     OW38509   4.811   5.257  13.114
12226SOL    HW138510   4.844   5.168  13.126
12226SOL    HW238511   4.767   5.256  13.029
12227SOL     OW38512  12.057   0.368   7.308
12227SOL    HW138513  12.028   0.296   7.253
12227SOL    HW238514  11.980   0.393   7.359
12228SOL     OW38515   7.167   2.259   5.849
12228SOL    HW138516   7.110   2.320   5.895
12228SOL    HW238517   7.255   2.294   5.862
12229SOL     OW38518  10.680   4.958   8.233
12229SOL    HW138519  10.754   4.957   8.294
12229SOL    HW238520  10.718   4.991   8.151
12230SOL     OW38521   3.195   9.792   6.693
12230SOL    HW138522   3.224   9.881   6.709
12230SOL    HW238523   3.249   9.761   6.620
12231SOL     OW38524   8.862  11.404   0.122
12231SOL    HW138525   8.858  11.500   0.124
12231SOL    HW238526   8.828  11.381   0.035
12232SOL     OW38527   7.357   6.021   8.225
12232SOL    HW138528   7.371   6.116   8.223
12232SOL    HW238529   7.374   5.997   8.317
12233SOL     OW38530   9.073   6.020   5.895
12233SOL    HW138531   9.057   6.025   5.989
12233SOL    HW238532   9.019   6.090   5.857
12234SOL     OW38533   0.862   8.443   0.694
12234SOL    HW138534   0.859   8.358   0.739
12234SOL    HW238535   0.899   8.424   0.608
12235SOL     OW38536   6.270   9.959   6.640
12235SOL    HW138537   6.355   9.955   6.685
12235SOL    HW238538   6.213   9.903   6.694
12236SOL     OW38539   4.344   9.795   4.359
12236SOL    HW138540   4.439   9.797   4.360
12236SOL    HW238541   4.321   9.708   4.328
12237SOL     OW38542   6.146   8.735  13.274
12237SOL    HW138543   6.128   8.698  13.188
12237SOL    HW238544   6.114   8.825  13.268
12238SOL     OW38545   2.813   5.199   8.369
12238SOL    HW138546   2.870   5.254   8.423
12238SOL    HW238547   2.836   5.109   8.394
12239SOL     OW38548  14.381  13.982  14.361
12239SOL    HW138549  14.371  14.073  14.335
12239SOL    HW238550  14.461  13.981  14.414
12240SOL     OW38551  11.079   4.613   4.584
12240SOL    HW138552  11.034   4.692   4.553
12240SOL    HW238553  11.029   4.540   4.546
12241SOL     OW38554   5.216  13.480   9.413
12241SOL    HW138555   5.242  13.523   9.494
12241SOL    HW238556   5.124  13.503   9.401
12242SOL     OW38557   6.289   0.295   2.193
12242SOL    HW138558   6.312   0.242   2.269
12242SOL    HW238559   6.208   0.339   2.217
12243SOL     OW38560  12.600   4.427   3.583
12243SOL    HW138561  12.555   4.511   3.590
12243SOL    HW238562  12.556   4.371   3.647
12244SOL     OW38563   1.673   5.282   6.327
12244SOL    HW138564   1.611   5.243   6.266
12244SOL    HW238565   1.740   5.214   6.340
12245SOL     OW38566   7.270   5.832   5.845
12245SOL    HW138567   7.358   5.854   5.814
12245SOL    HW238568   7.215   5.906   5.817
12246SOL     OW38569   1.473   2.820   6.591
12246SOL    HW138570   1.504   2.879   6.659
12246SOL    HW238571   1.435   2.745   6.638
12247SOL     OW38572   6.108   2.804  12.223
12247SOL    HW138573   6.084   2.850  12.303
12247SOL    HW238574   6.044   2.833  12.158
12248SOL     OW38575  14.823   9.153   8.654
12248SOL    HW138576  14.811   9.130   8.746
12248SOL    HW238577  14.871   9.078   8.617
12249SOL     OW38578   0.738   0.209   1.078
12249SOL    HW138579   0.651   0.169   1.075
12249SOL    HW238580   0.773   0.186   1.164
12250SOL     OW38581  13.968   2.363   4.779
12250SOL    HW138582  13.890   2.330   4.735
12250SOL    HW238583  14.028   2.289   4.779
12251SOL     OW38584  11.844  11.831  12.068
12251SOL    HW138585  11.820  11.762  12.005
12251SOL    HW238586  11.893  11.784  12.136
12252SOL     OW38587   9.852   1.349   5.903
12252SOL    HW138588   9.791   1.410   5.946
12252SOL    HW238589   9.898   1.306   5.975
12253SOL     OW38590  11.589  11.035  12.658
12253SOL    HW138591  11.607  10.999  12.572
12253SOL    HW238592  11.534  10.969  12.701
12254SOL     OW38593   7.427   4.198  11.907
12254SOL    HW138594   7.483   4.268  11.871
12254SOL    HW238595   7.358   4.245  11.954
12255SOL     OW38596   2.410   2.621  13.605
12255SOL    HW138597   2.426   2.616  13.510
12255SOL    HW238598   2.488   2.583  13.645
12256SOL     OW38599   1.917   8.518   8.547
12256SOL    HW138600   1.851   8.463   8.589
12256SOL    HW238601   1.877   8.606   8.545
12257SOL     OW38602   2.193   1.291  12.271
12257SOL    HW138603   2.205   1.292  12.176
12257SOL    HW238604   2.162   1.379  12.293
12258SOL     OW38605   1.924   8.383   3.887
12258SOL    HW138606   1.863   8.397   3.960
12258SOL    HW238607   1.911   8.460   3.831
12259SOL     OW38608   6.289   9.898   8.873
12259SOL    HW138609   6.206   9.865   8.907
12259SOL    HW238610   6.323   9.826   8.820
12260SOL     OW38611   6.038  10.628   6.300
12260SOL    HW138612   5.983  10.610   6.376
12260SOL    HW238613   6.105  10.687   6.332
12261SOL     OW38614   6.755   0.029  10.398
12261SOL    HW138615   6.786  14.824  10.357
12261SOL    HW238616   6.763   0.095  10.329
12262SOL     OW38617   6.975   6.350   0.521
12262SOL    HW138618   6.895   6.358   0.470
12262SOL    HW238619   7.011   6.439   0.522
12263SOL     OW38620  13.083   1.508   8.700
12263SOL    HW138621  13.098   1.428   8.751
12263SOL    HW238622  13.002   1.491   8.652
12264SOL     OW38623   6.164   3.275   3.508
12264SOL    HW138624   6.145   3.366   3.533
12264SOL    HW238625   6.251   3.259   3.545
12265SOL     OW38626  10.170  11.842   9.913
12265SOL    HW138627  10.091  11.888   9.943
12265SOL    HW238628  10.147  11.808   9.827
12266SOL     OW38629  10.493   5.357   6.399
12266SOL    HW138630  10.586   5.345   6.379
12266SOL    HW238631  10.486   5.450   6.423
12267SOL     OW38632   6.583   5.249  11.596
12267SOL    HW138633   6.557   5.183  11.661
12267SOL    HW238634   6.674   5.268  11.616
12268SOL     OW38635   4.578  13.209  11.053
12268SOL    HW138636   4.499  13.155  11.046
12268SOL    HW238637   4.645  13.150  11.086
12269SOL     OW38638   0.873   5.469   5.339
12269SOL    HW138639   0.876   5.384   5.296
12269SOL    HW238640   0.821   5.454   5.418
12270SOL     OW38641   7.612   9.491   3.247
12270SOL    HW138642   7.609   9.429   3.320
12270SOL    HW238643   7.522   9.524   3.241
12271SOL     OW38644   7.043   6.198   9.959
12271SOL    HW138645   7.023   6.236   9.874
12271SOL    HW238646   6.977   6.130   9.971
12272SOL     OW38647   9.598  10.820  12.523
12272SOL    HW138648   9.532  10.851  12.462
12272SOL    HW238649   9.573  10.860  12.607
12273SOL     OW38650  10.757   8.742   7.104
12273SOL    HW138651  10.663   8.746   7.120
12273SOL    HW238652  10.777   8.824   7.058
12274SOL     OW38653   9.951   6.886  12.792
12274SOL    HW138654   9.998   6.822  12.738
12274SOL    HW238655   9.989   6.970  12.769
12275SOL     OW38656   9.170   2.211   1.159
12275SOL    HW138657   9.095   2.177   1.111
12275SOL    HW238658   9.170   2.163   1.241
12276SOL     OW38659   9.563   9.836  13.636
12276SOL    HW138660   9.472   9.827  13.663
12276SOL    HW238661   9.565   9.808  13.544
12277SOL     OW38662   8.931   6.622  12.765
12277SOL    HW138663   8.921   6.710  12.801
12277SOL    HW238664   8.985   6.634  12.687
12278SOL     OW38665  10.785  14.008  11.881
12278SOL    HW138666  10.723  14.063  11.834
12278SOL    HW238667  10.733  13.931  11.907
12279SOL     OW38668  12.762   8.664   4.978
12279SOL    HW138669  12.779   8.588   4.922
12279SOL    HW238670  12.848   8.700   4.997
12280SOL     OW38671  10.701   2.512   6.821
12280SOL    HW138672  10.638   2.483   6.754
12280SOL    HW238673  10.744   2.431   6.850
12281SOL     OW38674   9.941  11.599   1.418
12281SOL    HW138675   9.921  11.683   1.376
12281SOL    HW238676   9.897  11.603   1.503
12282SOL     OW38677   3.264   0.923  12.118
12282SOL    HW138678   3.254   0.935  12.213
12282SOL    HW238679   3.271   0.828  12.107
12283SOL     OW38680  13.735  13.887   2.431
12283SOL    HW138681  13.647  13.924   2.441
12283SOL    HW238682  13.722  13.792   2.439
12284SOL     OW38683   2.465   3.434   1.702
12284SOL    HW138684   2.382   3.387   1.711
12284SOL    HW238685   2.527   3.367   1.673
12285SOL     OW38686  14.122   6.501   7.731
12285SOL    HW138687  14.161   6.558   7.798
12285SOL    HW238688  14.037   6.477   7.766
12286SOL     OW38689  12.316   2.712  14.638
12286SOL    HW138690  12.293   2.803  14.659
12286SOL    HW238691  12.312   2.667  14.723
12287SOL     OW38692  14.556   3.872   5.888
12287SOL    HW138693  14.461   3.870   5.896
12287SOL    HW238694  14.584   3.788   5.925
12288SOL     OW38695   9.655   6.809  13.171
12288SOL    HW138696   9.574   6.859  13.179
12288SOL    HW238697   9.702   6.826  13.252
12289SOL     OW38698   6.668  11.152  13.376
12289SOL    HW138699   6.652  11.203  13.456
12289SOL    HW238700   6.747  11.101  13.395
12290SOL     OW38701   2.564  14.396   0.724
12290SOL    HW138702   2.520  14.336   0.664
12290SOL    HW238703   2.494  14.428   0.782
12291SOL     OW38704   6.479   9.136   1.895
12291SOL    HW138705   6.553   9.096   1.849
12291SOL    HW238706   6.519   9.192   1.961
12292SOL     OW38707   2.706  10.234   3.368
12292SOL    HW138708   2.795  10.223   3.333
12292SOL    HW238709   2.718  10.283   3.449
12293SOL     OW38710   0.307   0.400  10.401
12293SOL    HW138711   0.253   0.424  10.476
12293SOL    HW238712   0.368   0.473  10.391
12294SOL     OW38713   5.206   7.837  12.132
12294SOL    HW138714   5.193   7.752  12.175
12294SOL    HW238715   5.280   7.823  12.073
12295SOL     OW38716   6.413   4.072  10.112
12295SOL    HW138717   6.367   4.110  10.037
12295SOL    HW238718   6.378   3.984  10.120
12296SOL     OW38719   3.668   9.403  14.326
12296SOL    HW138720   3.726   9.403  14.403
12296SOL    HW238721   3.591   9.354  14.354
12297SOL     OW38722  14.059  13.339   6.437
12297SOL    HW138723  14.105  13.257   6.419
12297SOL    HW238724  13.967  13.315   6.440
12298SOL     OW38725   8.096   8.186   2.159
12298SOL    HW138726   8.013   8.232   2.143
12298SOL    HW238727   8.125   8.159   2.072
12299SOL     OW38728   6.917   1.445   0.033
12299SOL    HW138729   7.013   1.442   0.030
12299SOL    HW238730   6.889   1.356   0.014
12300SOL     OW38731   5.289   3.721  13.559
12300SOL    HW138732   5.324   3.679  13.481
12300SOL    HW238733   5.342   3.687  13.631
12301SOL     OW38734   5.572  12.655   6.504
12301SOL    HW138735   5.603  12.709   6.577
12301SOL    HW238736   5.521  12.585   6.546
12302SOL     OW38737   5.794  12.508   1.130
12302SOL    HW138738   5.806  12.464   1.214
12302SOL    HW238739   5.720  12.567   1.144
12303SOL     OW38740   3.617   2.935   9.912
12303SOL    HW138741   3.618   2.994   9.836
12303SOL    HW238742   3.585   2.989   9.984
12304SOL     OW38743  13.878   8.664  14.471
12304SOL    HW138744  13.788   8.697  14.476
12304SOL    HW238745  13.928   8.737  14.435
12305SOL     OW38746   8.280   2.683  12.814
12305SOL    HW138747   8.261   2.775  12.832
12305SOL    HW238748   8.325   2.684  12.729
12306SOL     OW38749   7.117   0.763   8.125
12306SOL    HW138750   7.064   0.833   8.087
12306SOL    HW238751   7.189   0.751   8.062
12307SOL     OW38752   0.015   0.335   2.737
12307SOL    HW138753  14.847   0.250   2.743
12307SOL    HW238754   0.109   0.314   2.737
12308SOL     OW38755   3.184   6.138  14.073
12308SOL    HW138756   3.168   6.062  14.017
12308SOL    HW238757   3.203   6.209  14.012
12309SOL     OW38758   1.454   7.370   4.547
12309SOL    HW138759   1.444   7.289   4.596
12309SOL    HW238760   1.505   7.427   4.605
12310SOL     OW38761  10.064   5.774  14.396
12310SOL    HW138762   9.997   5.806  14.456
12310SOL    HW238763  10.140   5.756  14.452
12311SOL     OW38764   0.328  12.811   4.935
12311SOL    HW138765   0.276  12.889   4.953
12311SOL    HW238766   0.343  12.813   4.841
12312SOL     OW38767  10.124   0.873   1.746
12312SOL    HW138768  10.189   0.920   1.799
12312SOL    HW238769  10.111   0.929   1.669
12313SOL     OW38770   1.138  13.662  10.146
12313SOL    HW138771   1.175  13.626  10.065
12313SOL    HW238772   1.185  13.616  10.216
12314SOL     OW38773  14.296  12.103   8.260
12314SOL    HW138774  14.267  12.071   8.346
12314SOL    HW238775  14.275  12.197   8.261
12315SOL     OW38776  12.730  12.736   0.646
12315SOL    HW138777  12.670  12.664   0.666
12315SOL    HW238778  12.701  12.807   0.703
12316SOL     OW38779   6.551   6.055   4.826
12316SOL    HW138780   6.561   5.963   4.851
12316SOL    HW238781   6.459   6.064   4.803
12317SOL     OW38782   8.483   8.286  10.069
12317SOL    HW138783   8.538   8.361  10.047
12317SOL    HW238784   8.516   8.215  10.014
12318SOL     OW38785   4.865  12.608   4.185
12318SOL    HW138786   4.951  12.633   4.219
12318SOL    HW238787   4.859  12.652   4.101
12319SOL     OW38788  11.915   8.601   4.083
12319SOL    HW138789  11.879   8.534   4.024
12319SOL    HW238790  11.838   8.641   4.123
12320SOL     OW38791   4.057  11.751   3.146
12320SOL    HW138792   4.142  11.752   3.191
12320SOL    HW238793   4.028  11.842   3.148
12321SOL     OW38794   6.309  12.581   1.852
12321SOL    HW138795   6.216  12.592   1.872
12321SOL    HW238796   6.352  12.578   1.938
12322SOL     OW38797  12.515  10.586   2.785
12322SOL    HW138798  12.479  10.674   2.781
12322SOL    HW238799  12.452  10.531   2.739
12323SOL     OW38800  10.395   7.789   6.659
12323SOL    HW138801  10.341   7.728   6.608
12323SOL    HW238802  10.350   7.873   6.653
12324SOL     OW38803  13.615  13.732   1.696
12324SOL    HW138804  13.541  13.733   1.757
12324SOL    HW238805  13.683  13.783   1.740
12325SOL     OW38806   4.503   6.413  11.843
12325SOL    HW138807   4.519   6.505  11.866
12325SOL    HW238808   4.494   6.368  11.927
12326SOL     OW38809   8.411  11.903  10.058
12326SOL    HW138810   8.367  11.842   9.999
12326SOL    HW238811   8.504  11.883  10.049
12327SOL     OW38812  14.623   0.266   1.825
12327SOL    HW138813  14.574   0.229   1.898
12327SOL    HW238814  14.599   0.213   1.750
12328SOL     OW38815   1.736   7.676   6.070
12328SOL    HW138816   1.743   7.594   6.118
12328SOL    HW238817   1.705   7.651   5.983
12329SOL     OW38818   7.635  11.626   7.028
12329SOL    HW138819   7.581  11.672   7.093
12329SOL    HW238820   7.581  11.625   6.949
12330SOL     OW38821   6.586   6.626   9.240
12330SOL    HW138822   6.491   6.632   9.245
12330SOL    HW238823   6.604   6.533   9.227
12331SOL     OW38824  13.872   8.820  10.688
12331SOL    HW138825  13.852   8.774  10.606
12331SOL    HW238826  13.862   8.913  10.665
12332SOL     OW38827  11.158   8.432   7.135
12332SOL    HW138828  11.090   8.368   7.113
12332SOL    HW238829  11.224   8.421   7.066
12333SOL     OW38830   3.341   6.309   4.185
12333SOL    HW138831   3.383   6.318   4.099
12333SOL    HW238832   3.370   6.223   4.216
12334SOL     OW38833  14.424  14.781   9.946
12334SOL    HW138834  14.498  14.725   9.920
12334SOL    HW238835  14.347  14.730   9.922
12335SOL     OW38836   5.396  11.507  11.053
12335SOL    HW138837   5.423  11.598  11.046
12335SOL    HW238838   5.303  11.510  11.077
12336SOL     OW38839  11.429  11.183   2.493
12336SOL    HW138840  11.442  11.243   2.566
12336SOL    HW238841  11.451  11.234   2.415
12337SOL     OW38842  14.125   5.316  11.158
12337SOL    HW138843  14.063   5.335  11.087
12337SOL    HW238844  14.193   5.264  11.117
12338SOL     OW38845   8.781  10.344  14.000
12338SOL    HW138846   8.854  10.317  14.057
12338SOL    HW238847   8.752  10.428  14.037
12339SOL     OW38848   9.201   9.481   4.692
12339SOL    HW138849   9.167   9.570   4.701
12339SOL    HW238850   9.287   9.484   4.734
12340SOL     OW38851   9.039   1.840   1.024
12340SOL    HW138852   9.023   1.842   1.119
12340SOL    HW238853   9.036   1.931   0.997
12341SOL     OW38854   7.102   6.224   0.794
12341SOL    HW138855   7.053   6.233   0.876
12341SOL    HW238856   7.076   6.301   0.743
12342SOL     OW38857   3.446   9.000   0.559
12342SOL    HW138858   3.371   9.034   0.510
12342SOL    HW238859   3.455   8.909   0.531
12343SOL     OW38860   4.372   9.230  12.230
12343SOL    HW138861   4.465   9.235  12.210
12343SOL    HW238862   4.329   9.277  12.159
12344SOL     OW38863  14.846   2.950   0.156
12344SOL    HW138864  14.857   2.854   0.158
12344SOL    HW238865  14.793   2.969   0.233
12345SOL     OW38866   3.291   5.550   7.654
12345SOL    HW138867   3.215   5.536   7.598
12345SOL    HW238868   3.284   5.642   7.682
12346SOL     OW38869   5.136   6.564   7.387
12346SOL    HW138870   5.076   6.579   7.460
12346SOL    HW238871   5.103   6.620   7.317
12347SOL     OW38872   2.288   3.736   6.476
12347SOL    HW138873   2.314   3.710   6.388
12347SOL    HW238874   2.353   3.802   6.501
12348SOL     OW38875  14.565  11.505   9.888
12348SOL    HW138876  14.651  11.486   9.850
12348SOL    HW238877  14.537  11.421   9.924
12349SOL     OW38878  11.832   3.332   5.598
12349SOL    HW138879  11.795   3.283   5.525
12349SOL    HW238880  11.812   3.279   5.675
12350SOL     OW38881  10.812   2.763  13.331
12350SOL    HW138882  10.750   2.801  13.393
12350SOL    HW238883  10.876   2.833  13.314
12351SOL     OW38884   7.006   4.428   0.952
12351SOL    HW138885   7.040   4.376   1.025
12351SOL    HW238886   6.911   4.422   0.959
12352SOL     OW38887   1.648  11.546  11.789
12352SOL    HW138888   1.590  11.513  11.858
12352SOL    HW238889   1.612  11.632  11.767
12353SOL     OW38890   0.157  13.272   5.243
12353SOL    HW138891   0.075  13.256   5.195
12353SOL    HW238892   0.146  13.225   5.325
12354SOL     OW38893  14.245  12.921   7.337
12354SOL    HW138894  14.335  12.910   7.367
12354SOL    HW238895  14.229  13.015   7.344
12355SOL     OW38896   3.186   6.489   1.544
12355SOL    HW138897   3.250   6.529   1.602
12355SOL    HW238898   3.183   6.397   1.571
12356SOL     OW38899   5.038   2.785   9.090
12356SOL    HW138900   5.080   2.713   9.137
12356SOL    HW238901   4.954   2.797   9.135
12357SOL     OW38902  11.240  12.768   4.399
12357SOL    HW138903  11.242  12.815   4.315
12357SOL    HW238904  11.147  12.768   4.423
12358SOL     OW38905  13.970  13.156   9.320
12358SOL    HW138906  13.878  13.166   9.342
12358SOL    HW238907  13.983  13.213   9.244
12359SOL     OW38908   5.573  10.478   7.180
12359SOL    HW138909   5.603  10.562   7.144
12359SOL    HW238910   5.640  10.415   7.154
12360SOL     OW38911   1.191   8.448  10.586
12360SOL    HW138912   1.199   8.543  10.576
12360SOL    HW238913   1.256   8.425  10.652
12361SOL     OW38914   7.339  13.526  14.379
12361SOL    HW138915   7.430  13.497  14.378
12361SOL    HW238916   7.330  13.576  14.460
12362SOL     OW38917   6.082   2.735   4.967
12362SOL    HW138918   6.155   2.703   5.022
12362SOL    HW238919   6.012   2.671   4.982
12363SOL     OW38920  14.101  13.866  12.057
12363SOL    HW138921  14.068  13.819  11.980
12363SOL    HW238922  14.191  13.836  12.067
12364SOL     OW38923  11.944  11.428   9.526
12364SOL    HW138924  12.021  11.403   9.576
12364SOL    HW238925  11.958  11.520   9.504
12365SOL     OW38926   5.236   1.401   2.853
12365SOL    HW138927   5.155   1.354   2.874
12365SOL    HW238928   5.302   1.332   2.845
12366SOL     OW38929   2.823   1.903  12.069
12366SOL    HW138930   2.791   1.983  12.028
12366SOL    HW238931   2.764   1.834  12.037
12367SOL     OW38932  11.319   0.305   4.421
12367SOL    HW138933  11.369   0.347   4.351
12367SOL    HW238934  11.360   0.219   4.432
12368SOL     OW38935   2.838  11.191   0.900
12368SOL    HW138936   2.835  11.235   0.986
12368SOL    HW238937   2.894  11.247   0.847
12369SOL     OW38938  13.394   2.590   0.421
12369SOL    HW138939  13.334   2.592   0.495
12369SOL    HW238940  13.471   2.637   0.452
12370SOL     OW38941   3.867  10.590   9.856
12370SOL    HW138942   3.903  10.582   9.944
12370SOL    HW238943   3.941  10.621   9.802
12371SOL     OW38944   1.386  12.977   7.354
12371SOL    HW138945   1.419  12.888   7.358
12371SOL    HW238946   1.332  12.986   7.433
12372SOL     OW38947  10.317  14.653   0.477
12372SOL    HW138948  10.339  14.608   0.558
12372SOL    HW238949  10.262  14.727   0.504
12373SOL     OW38950   1.509   7.365   5.890
12373SOL    HW138951   1.507   7.276   5.926
12373SOL    HW238952   1.596   7.372   5.849
12374SOL     OW38953   3.633   7.395   5.457
12374SOL    HW138954   3.633   7.417   5.364
12374SOL    HW238955   3.542   7.406   5.485
12375SOL     OW38956   0.230   6.337  12.842
12375SOL    HW138957   0.164   6.400  12.813
12375SOL    HW238958   0.253   6.288  12.762
12376SOL     OW38959  13.915   2.435   8.662
12376SOL    HW138960  13.936   2.407   8.573
12376SOL    HW238961  13.905   2.353   8.711
12377SOL     OW38962   1.239  10.800  13.461
12377SOL    HW138963   1.307  10.797  13.529
12377SOL    HW238964   1.210  10.892  13.460
12378SOL     OW38965   8.425   9.708   6.243
12378SOL    HW138966   8.441   9.800   6.262
12378SOL    HW238967   8.329   9.702   6.234
12379SOL     OW38968   3.279  11.573  11.396
12379SOL    HW138969   3.202  11.561  11.452
12379SOL    HW238970   3.253  11.538  11.311
12380SOL     OW38971   0.037   7.415   3.213
12380SOL    HW138972  14.829   7.386   3.177
12380SOL    HW238973   0.103   7.382   3.152
12381SOL     OW38974  12.171   7.230   9.069
12381SOL    HW138975  12.142   7.281   9.145
12381SOL    HW238976  12.234   7.287   9.025
12382SOL     OW38977   0.865   9.931   3.727
12382SOL    HW138978   0.818   9.878   3.792
12382SOL    HW238979   0.797   9.980   3.681
12383SOL     OW38980  11.035  14.354   7.751
12383SOL    HW138981  11.000  14.266   7.742
12383SOL    HW238982  11.092  14.349   7.828
12384SOL     OW38983   5.345  11.560  12.676
12384SOL    HW138984   5.286  11.510  12.619
12384SOL    HW238985   5.373  11.497  12.742
12385SOL     OW38986   9.340  10.944   0.816
12385SOL    HW138987   9.382  10.915   0.735
12385SOL    HW238988   9.382  11.027   0.838
12386SOL     OW38989   9.549   7.244  12.917
12386SOL    HW138990   9.643   7.252  12.929
12386SOL    HW238991   9.534   7.260  12.824
12387SOL     OW38992   2.783   8.839   1.364
12387SOL    HW138993   2.814   8.786   1.291
12387SOL    HW238994   2.813   8.793   1.442
12388SOL     OW38995  13.626  14.616   7.894
12388SOL    HW138996  13.530  14.616   7.888
12388SOL    HW238997  13.655  14.588   7.808
12389SOL     OW38998   1.433  13.744   3.930
12389SOL    HW138999   1.437  13.768   4.023
12389SOL    HW239000   1.406  13.652   3.930
12390SOL     OW39001   7.615   8.566   4.600
12390SOL    HW139002   7.621   8.661   4.593
12390SOL    HW239003   7.546   8.550   4.664
12391SOL     OW39004  11.614  10.318  12.044
12391SOL    HW139005  11.542  10.310  12.106
12391SOL    HW239006  11.688  10.276  12.087
12392SOL     OW39007   4.949  12.177   8.294
12392SOL    HW139008   4.945  12.226   8.211
12392SOL    HW239009   4.917  12.238   8.360
12393SOL     OW39010  11.562   4.358  14.475
12393SOL    HW139011  11.631   4.352  14.409
12393SOL    HW239012  11.608   4.356  14.558
12394SOL     OW39013  12.649   5.309  14.043
12394SOL    HW139014  12.697   5.226  14.037
12394SOL    HW239015  12.671   5.356  13.962
12395SOL     OW39016   9.474   9.635   4.619
12395SOL    HW139017   9.420   9.684   4.557
12395SOL    HW239018   9.539   9.591   4.565
12396SOL     OW39019   1.754   9.709  10.298
12396SOL    HW139020   1.754   9.801  10.323
12396SOL    HW239021   1.785   9.709  10.207
12397SOL     OW39022  11.306  10.902   3.356
12397SOL    HW139023  11.373  10.964   3.328
12397SOL    HW239024  11.237  10.956   3.395
12398SOL     OW39025   4.698   6.058   6.334
12398SOL    HW139026   4.636   6.128   6.311
12398SOL    HW239027   4.746   6.092   6.410
12399SOL     OW39028  11.372   4.205  14.335
12399SOL    HW139029  11.358   4.271  14.267
12399SOL    HW239030  11.420   4.251  14.403
12400SOL     OW39031  13.603   4.507   0.230
12400SOL    HW139032  13.698   4.505   0.231
12400SOL    HW239033  13.577   4.433   0.176
12401SOL     OW39034  13.105  13.608  10.076
12401SOL    HW139035  13.194  13.580  10.057
12401SOL    HW239036  13.108  13.704  10.069
12402SOL     OW39037   7.960  12.932   5.122
12402SOL    HW139038   7.971  12.988   5.045
12402SOL    HW239039   7.879  12.964   5.163
12403SOL     OW39040  12.874   1.913  12.379
12403SOL    HW139041  12.796   1.899  12.432
12403SOL    HW239042  12.891   1.827  12.339
12404SOL     OW39043   5.398   6.154  10.772
12404SOL    HW139044   5.441   6.081  10.817
12404SOL    HW239045   5.424   6.231  10.822
12405SOL     OW39046  13.998   2.332   0.379
12405SOL    HW139047  13.950   2.372   0.306
12405SOL    HW239048  13.964   2.377   0.456
12406SOL     OW39049  11.489   8.704   5.770
12406SOL    HW139050  11.565   8.719   5.713
12406SOL    HW239051  11.469   8.611   5.759
12407SOL     OW39052  10.260   4.336   9.542
12407SOL    HW139053  10.287   4.274   9.474
12407SOL    HW239054  10.339   4.350   9.594
12408SOL     OW39055   0.120   3.298   4.626
12408SOL    HW139056   0.081   3.383   4.649
12408SOL    HW239057   0.103   3.288   4.533
12409SOL     OW39058   4.184   1.112  11.668
12409SOL    HW139059   4.148   1.030  11.634
12409SOL    HW239060   4.108   1.166  11.688
12410SOL     OW39061  11.581   6.957  14.190
12410SOL    HW139062  11.636   7.027  14.156
12410SOL    HW239063  11.642   6.897  14.233
12411SOL     OW39064   0.204   2.175   1.880
12411SOL    HW139065   0.255   2.253   1.901
12411SOL    HW239066   0.130   2.178   1.941
12412SOL     OW39067  10.755   8.591   5.789
12412SOL    HW139068  10.694   8.518   5.795
12412SOL    HW239069  10.731   8.648   5.862
12413SOL     OW39070  10.128   9.902   5.107
12413SOL    HW139071  10.182   9.938   5.177
12413SOL    HW239072  10.182   9.832   5.069
12414SOL     OW39073   5.381   1.573   1.298
12414SOL    HW139074   5.446   1.506   1.323
12414SOL    HW239075   5.325   1.582   1.375
12415SOL     OW39076  10.574   0.454  10.459
12415SOL    HW139077  10.550   0.475  10.549
12415SOL    HW239078  10.557   0.534  10.410
12416SOL     OW39079  14.434   6.100   7.273
12416SOL    HW139080  14.381   6.134   7.346
12416SOL    HW239081  14.398   6.143   7.196
12417SOL     OW39082   6.900   5.740   9.812
12417SOL    HW139083   6.953   5.793   9.754
12417SOL    HW239084   6.952   5.660   9.825
12418SOL     OW39085   5.041  14.273   2.965
12418SOL    HW139086   4.994  14.330   2.904
12418SOL    HW239087   5.071  14.332   3.034
12419SOL     OW39088   4.023   4.547   4.925
12419SOL    HW139089   4.077   4.553   4.846
12419SOL    HW239090   3.934   4.538   4.892
12420SOL     OW39091  11.198   4.638   0.179
12420SOL    HW139092  11.274   4.602   0.224
12420SOL    HW239093  11.136   4.565   0.174
12421SOL     OW39094  13.406   0.057   6.098
12421SOL    HW139095  13.405  14.839   6.111
12421SOL    HW239096  13.489   0.086   6.136
12422SOL     OW39097  11.725   4.410  11.966
12422SOL    HW139098  11.788   4.476  11.994
12422SOL    HW239099  11.708   4.431  11.874
12423SOL     OW39100   3.489   9.865   1.800
12423SOL    HW139101   3.499   9.891   1.708
12423SOL    HW239102   3.544   9.788   1.809
12424SOL     OW39103  12.657   5.395   1.584
12424SOL    HW139104  12.668   5.465   1.520
12424SOL    HW239105  12.629   5.440   1.664
12425SOL     OW39106  12.993  11.421   9.236
12425SOL    HW139107  12.985  11.337   9.282
12425SOL    HW239108  12.963  11.402   9.147
12426SOL     OW39109  13.020   6.807   8.150
12426SOL    HW139110  13.100   6.755   8.154
12426SOL    HW239111  13.019   6.856   8.232
12427SOL     OW39112  11.621   1.500  11.359
12427SOL    HW139113  11.605   1.473  11.449
12427SOL    HW239114  11.633   1.418  11.311
12428SOL     OW39115   0.801   2.147   6.385
12428SOL    HW139116   0.734   2.163   6.318
12428SOL    HW239117   0.883   2.144   6.335
12429SOL     OW39118   7.313  10.298   9.187
12429SOL    HW139119   7.314  10.284   9.093
12429SOL    HW239120   7.242  10.242   9.219
12430SOL     OW39121   4.517   6.409   5.162
12430SOL    HW139122   4.561   6.405   5.077
12430SOL    HW239123   4.522   6.502   5.187
12431SOL     OW39124  12.609  12.136  11.346
12431SOL    HW139125  12.528  12.086  11.360
12431SOL    HW239126  12.579  12.221  11.315
12432SOL     OW39127  12.464   6.132  12.616
12432SOL    HW139128  12.405   6.094  12.681
12432SOL    HW239129  12.484   6.220  12.649
12433SOL     OW39130   1.821   3.061   7.655
12433SOL    HW139131   1.892   3.017   7.700
12433SOL    HW239132   1.843   3.154   7.660
12434SOL     OW39133   5.644   5.066   6.356
12434SOL    HW139134   5.612   4.980   6.382
12434SOL    HW239135   5.711   5.048   6.290
12435SOL     OW39136  14.645  11.293   8.237
12435SOL    HW139137  14.617  11.279   8.328
12435SOL    HW239138  14.568  11.268   8.185
12436SOL     OW39139  11.823   7.855  14.359
12436SOL    HW139140  11.806   7.850  14.453
12436SOL    HW239141  11.764   7.790  14.320
12437SOL     OW39142   9.125  10.482   0.880
12437SOL    HW139143   9.151  10.573   0.870
12437SOL    HW239144   9.170  10.453   0.960
12438SOL     OW39145  12.153   4.018  13.542
12438SOL    HW139146  12.231   4.030  13.488
12438SOL    HW239147  12.178   4.049  13.629
12439SOL     OW39148  11.091   9.280   4.716
12439SOL    HW139149  11.054   9.219   4.780
12439SOL    HW239150  11.142   9.341   4.770
12440SOL     OW39151  10.029   1.698  10.813
12440SOL    HW139152  10.087   1.660  10.879
12440SOL    HW239153  10.062   1.664  10.729
12441SOL     OW39154   2.810   7.102   1.990
12441SOL    HW139155   2.887   7.117   2.044
12441SOL    HW239156   2.740   7.084   2.053
12442SOL     OW39157   9.117   9.422   3.508
12442SOL    HW139158   9.066   9.379   3.577
12442SOL    HW239159   9.194   9.455   3.553
12443SOL     OW39160  14.091   1.788   9.960
12443SOL    HW139161  14.112   1.703   9.999
12443SOL    HW239162  13.995   1.793   9.963
12444SOL     OW39163   5.700   8.084   0.273
12444SOL    HW139164   5.653   8.001   0.265
12444SOL    HW239165   5.730   8.103   0.184
12445SOL     OW39166  10.568   5.757  10.862
12445SOL    HW139167  10.634   5.708  10.813
12445SOL    HW239168  10.489   5.751  10.808
12446SOL     OW39169   6.254   1.957   5.834
12446SOL    HW139170   6.312   2.029   5.857
12446SOL    HW239171   6.182   1.964   5.897
12447SOL     OW39172   7.308   2.926  14.672
12447SOL    HW139173   7.302   2.946  14.766
12447SOL    HW239174   7.219   2.900  14.648
12448SOL     OW39175   1.985   9.686  14.544
12448SOL    HW139176   1.890   9.685  14.548
12448SOL    HW239177   2.010   9.595  14.564
12449SOL     OW39178   2.202   7.130  13.387
12449SOL    HW139179   2.288   7.126  13.345
12449SOL    HW239180   2.216   7.181  13.466
12450SOL     OW39181   5.501   1.500   5.828
12450SOL    HW139182   5.593   1.526   5.823
12450SOL    HW239183   5.482   1.464   5.742
12451SOL     OW39184   4.830   3.381   9.631
12451SOL    HW139185   4.832   3.375   9.535
12451SOL    HW239186   4.751   3.332   9.656
12452SOL     OW39187   1.201   1.838   2.065
12452SOL    HW139188   1.145   1.760   2.069
12452SOL    HW239189   1.156   1.903   2.119
12453SOL     OW39190   3.949  11.710   7.875
12453SOL    HW139191   3.860  11.679   7.892
12453SOL    HW239192   4.001  11.677   7.948
12454SOL     OW39193   7.391   7.542  11.863
12454SOL    HW139194   7.328   7.472  11.876
12454SOL    HW239195   7.426   7.560  11.950
12455SOL     OW39196   0.489   5.995  13.227
12455SOL    HW139197   0.537   6.039  13.296
12455SOL    HW239198   0.433   5.932  13.272
12456SOL     OW39199   0.836  14.214  13.375
12456SOL    HW139200   0.903  14.244  13.437
12456SOL    HW239201   0.885  14.167  13.308
12457SOL     OW39202  11.031  14.260   2.325
12457SOL    HW139203  11.021  14.180   2.273
12457SOL    HW239204  10.973  14.247   2.400
12458SOL     OW39205   1.956  13.399  10.619
12458SOL    HW139206   1.921  13.460  10.684
12458SOL    HW239207   1.966  13.317  10.666
12459SOL     OW39208   0.589  12.800   8.102
12459SOL    HW139209   0.576  12.893   8.118
12459SOL    HW239210   0.548  12.757   8.178
12460SOL     OW39211  11.423  14.096   2.316
12460SOL    HW139212  11.394  14.023   2.260
12460SOL    HW239213  11.375  14.172   2.283
12461SOL     OW39214   4.733   6.363   3.738
12461SOL    HW139215   4.804   6.300   3.731
12461SOL    HW239216   4.653   6.310   3.730
12462SOL     OW39217   1.229  10.045   1.917
12462SOL    HW139218   1.187   9.965   1.885
12462SOL    HW239219   1.167  10.080   1.982
12463SOL     OW39220   5.258   4.067   4.881
12463SOL    HW139221   5.306   4.134   4.928
12463SOL    HW239222   5.293   4.070   4.792
12464SOL     OW39223   3.594  12.536  13.799
12464SOL    HW139224   3.595  12.623  13.760
12464SOL    HW239225   3.596  12.476  13.724
12465SOL     OW39226   1.367  12.546  10.686
12465SOL    HW139227   1.420  12.621  10.715
12465SOL    HW239228   1.349  12.563  10.594
12466SOL     OW39229   3.546   2.609   1.274
12466SOL    HW139230   3.472   2.602   1.213
12466SOL    HW239231   3.529   2.690   1.322
12467SOL     OW39232   6.620   1.798   6.587
12467SOL    HW139233   6.546   1.816   6.529
12467SOL    HW239234   6.697   1.810   6.531
12468SOL     OW39235   7.040   0.345   6.204
12468SOL    HW139236   6.982   0.321   6.276
12468SOL    HW239237   7.106   0.402   6.243
12469SOL     OW39238   8.366  14.322   9.022
12469SOL    HW139239   8.421  14.355   8.950
12469SOL    HW239240   8.426  14.276   9.079
12470SOL     OW39241   1.945   7.425   1.314
12470SOL    HW139242   1.867   7.456   1.269
12470SOL    HW239243   1.951   7.479   1.392
12471SOL     OW39244  12.441   6.689   5.095
12471SOL    HW139245  12.528   6.659   5.068
12471SOL    HW239246  12.384   6.671   5.020
12472SOL     OW39247  13.839  11.824   5.233
12472SOL    HW139248  13.821  11.916   5.252
12472SOL    HW239249  13.934  11.816   5.241
12473SOL     OW39250   6.511   7.142   6.423
12473SOL    HW139251   6.489   7.215   6.480
12473SOL    HW239252   6.432   7.125   6.372
12474SOL     OW39253   3.334  12.350  13.451
12474SOL    HW139254   3.348  12.281  13.386
12474SOL    HW239255   3.242  12.340  13.477
12475SOL     OW39256   9.793  12.913   6.888
12475SOL    HW139257   9.843  12.833   6.904
12475SOL    HW239258   9.824  12.974   6.954
12476SOL     OW39259  14.305  10.000   4.183
12476SOL    HW139260  14.218  10.019   4.217
12476SOL    HW239261  14.358  10.075   4.211
12477SOL     OW39262   6.118   0.274   6.146
12477SOL    HW139263   6.133   0.184   6.116
12477SOL    HW239264   6.164   0.279   6.230
12478SOL     OW39265   6.251  10.657   3.157
12478SOL    HW139266   6.337  10.683   3.191
12478SOL    HW239267   6.190  10.718   3.197
12479SOL     OW39268   4.723   8.877   1.654
12479SOL    HW139269   4.629   8.876   1.635
12479SOL    HW239270   4.764   8.912   1.575
12480SOL     OW39271  13.004   2.992  14.209
12480SOL    HW139272  12.986   2.936  14.285
12480SOL    HW239273  12.920   3.034  14.190
12481SOL     OW39274   1.936  12.399   2.809
12481SOL    HW139275   1.902  12.330   2.752
12481SOL    HW239276   1.970  12.465   2.749
12482SOL     OW39277   5.087   0.496  10.695
12482SOL    HW139278   5.159   0.439  10.724
12482SOL    HW239279   5.036   0.441  10.636
12483SOL     OW39280   1.541  10.429   3.135
12483SOL    HW139281   1.493  10.512   3.135
12483SOL    HW239282   1.575  10.422   3.045
12484SOL     OW39283  14.416  13.920   9.078
12484SOL    HW139284  14.381  13.983   9.142
12484SOL    HW239285  14.381  13.949   8.994
12485SOL     OW39286   5.550  11.167  12.461
12485SOL    HW139287   5.605  11.222  12.517
12485SOL    HW239288   5.612  11.125  12.401
12486SOL     OW39289   8.529   8.847  10.729
12486SOL    HW139290   8.467   8.781  10.761
12486SOL    HW239291   8.581   8.801  10.663
12487SOL     OW39292   2.763   1.288   5.422
12487SOL    HW139293   2.807   1.209   5.455
12487SOL    HW239294   2.742   1.267   5.331
12488SOL     OW39295   9.826   6.815   7.683
12488SOL    HW139296   9.894   6.835   7.618
12488SOL    HW239297   9.854   6.862   7.762
12489SOL     OW39298  12.891  12.467   3.393
12489SOL    HW139299  12.929  12.446   3.308
12489SOL    HW239300  12.861  12.558   3.385
12490SOL     OW39301  11.651  13.401   4.562
12490SOL    HW139302  11.578  13.367   4.510
12490SOL    HW239303  11.725  13.344   4.540
12491SOL     OW39304  12.558   6.257   0.874
12491SOL    HW139305  12.566   6.203   0.795
12491SOL    HW239306  12.466   6.281   0.877
12492SOL     OW39307  11.010  14.256   9.677
12492SOL    HW139308  10.934  14.314   9.673
12492SOL    HW239309  11.061  14.277   9.599
12493SOL     OW39310   1.828   3.573   9.014
12493SOL    HW139311   1.900   3.564   8.952
12493SOL    HW239312   1.756   3.610   8.962
12494SOL     OW39313   9.130   9.544   7.719
12494SOL    HW139314   9.142   9.628   7.763
12494SOL    HW239315   9.199   9.543   7.653
12495SOL     OW39316   6.930   5.159   7.162
12495SOL    HW139317   6.960   5.131   7.248
12495SOL    HW239318   6.994   5.224   7.133
12496SOL     OW39319  10.859   6.421   5.853
12496SOL    HW139320  10.860   6.479   5.776
12496SOL    HW239321  10.847   6.480   5.927
12497SOL     OW39322   9.500  11.900   8.084
12497SOL    HW139323   9.573  11.897   8.022
12497SOL    HW239324   9.433  11.843   8.045
12498SOL     OW39325   3.541   3.347  13.870
12498SOL    HW139326   3.567   3.255  13.865
12498SOL    HW239327   3.551   3.371  13.962
12499SOL     OW39328  14.307   4.784   3.350
12499SOL    HW139329  14.305   4.712   3.287
12499SOL    HW239330  14.222   4.827   3.340
12500SOL     OW39331   3.307  12.128   5.621
12500SOL    HW139332   3.286  12.147   5.530
12500SOL    HW239333   3.402  12.123   5.623
12501SOL     OW39334  12.627   8.699   2.803
12501SOL    HW139335  12.640   8.789   2.774
12501SOL    HW239336  12.564   8.663   2.740
12502SOL     OW39337   3.448   3.365   8.244
12502SOL    HW139338   3.494   3.418   8.179
12502SOL    HW239339   3.515   3.343   8.309
12503SOL     OW39340  13.706   5.580   4.678
12503SOL    HW139341  13.748   5.584   4.764
12503SOL    HW239342  13.612   5.591   4.698
12504SOL     OW39343  10.564  10.202  11.348
12504SOL    HW139344  10.630  10.178  11.413
12504SOL    HW239345  10.481  10.193  11.394
12505SOL     OW39346   5.919   3.559   3.536
12505SOL    HW139347   6.005   3.525   3.558
12505SOL    HW239348   5.937   3.632   3.476
12506SOL     OW39349   0.036   5.334   3.907
12506SOL    HW139350   0.031   5.430   3.907
12506SOL    HW239351   0.046   5.310   3.999
12507SOL     OW39352  11.868  10.897  12.019
12507SOL    HW139353  11.834  10.808  12.026
12507SOL    HW239354  11.931  10.893  11.947
12508SOL     OW39355   1.047   5.299   6.282
12508SOL    HW139356   1.118   5.238   6.261
12508SOL    HW239357   1.079   5.385   6.256
12509SOL     OW39358  12.663   5.654   2.020
12509SOL    HW139359  12.647   5.728   2.080
12509SOL    HW239360  12.637   5.687   1.934
12510SOL     OW39361  11.956  14.517   2.990
12510SOL    HW139362  12.038  14.468   2.996
12510SOL    HW239363  11.982  14.608   2.982
12511SOL     OW39364  12.351  12.119   5.959
12511SOL    HW139365  12.306  12.180   6.017
12511SOL    HW239366  12.396  12.176   5.896
12512SOL     OW39367   4.272   7.957   8.120
12512SOL    HW139368   4.322   7.900   8.178
12512SOL    HW239369   4.321   7.957   8.038
12513SOL     OW39370   3.594   9.635   7.342
12513SOL    HW139371   3.567   9.555   7.298
12513SOL    HW239372   3.686   9.621   7.364
12514SOL     OW39373  12.604   0.614   7.718
12514SOL    HW139374  12.670   0.610   7.648
12514SOL    HW239375  12.554   0.694   7.698
12515SOL     OW39376  11.070   8.340  13.568
12515SOL    HW139377  11.136   8.405  13.594
12515SOL    HW239378  11.083   8.267  13.628
12516SOL     OW39379  14.304   6.669   9.875
12516SOL    HW139380  14.335   6.717   9.951
12516SOL    HW239381  14.229   6.719   9.844
12517SOL     OW39382   2.878   3.759  12.848
12517SOL    HW139383   2.840   3.809  12.776
12517SOL    HW239384   2.969   3.789  12.853
12518SOL     OW39385  12.220  11.828   3.633
12518SOL    HW139386  12.202  11.921   3.619
12518SOL    HW239387  12.281  11.804   3.562
12519SOL     OW39388  10.923   8.576   9.080
12519SOL    HW139389  10.949   8.590   9.171
12519SOL    HW239390  10.831   8.603   9.077
12520SOL     OW39391   0.894   3.019  11.023
12520SOL    HW139392   0.816   3.041  11.075
12520SOL    HW239393   0.860   2.965  10.951
12521SOL     OW39394  10.990   9.636   5.107
12521SOL    HW139395  11.045   9.664   5.181
12521SOL    HW239396  11.015   9.695   5.036
12522SOL     OW39397   5.471   9.456  13.250
12522SOL    HW139398   5.473   9.465  13.345
12522SOL    HW239399   5.420   9.531  13.220
12523SOL     OW39400   0.576  13.518   4.671
12523SOL    HW139401   0.635  13.519   4.746
12523SOL    HW239402   0.579  13.607   4.636
12524SOL     OW39403  10.626   5.361  12.731
12524SOL    HW139404  10.719   5.346  12.750
12524SOL    HW239405  10.579   5.324  12.805
12525SOL     OW39406   5.519   5.304   0.797
12525SOL    HW139407   5.424   5.298   0.792
12525SOL    HW239408   5.550   5.216   0.774
12526SOL     OW39409  12.419   2.249   4.055
12526SOL    HW139410  12.361   2.325   4.052
12526SOL    HW239411  12.486   2.273   4.119
12527SOL     OW39412   2.143   6.117  13.216
12527SOL    HW139413   2.065   6.149  13.263
12527SOL    HW239414   2.140   6.163  13.132
12528SOL     OW39415  10.156   9.507   0.432
12528SOL    HW139416  10.215   9.512   0.357
12528SOL    HW239417  10.168   9.419   0.467
12529SOL     OW39418   5.429   2.332  10.870
12529SOL    HW139419   5.396   2.319  10.781
12529SOL    HW239420   5.360   2.297  10.926
12530SOL     OW39421  13.945   5.021   3.894
12530SOL    HW139422  13.976   5.111   3.896
12530SOL    HW239423  13.958   4.990   3.984
12531SOL     OW39424   7.648   5.657  10.744
12531SOL    HW139425   7.660   5.563  10.728
12531SOL    HW239426   7.555   5.672  10.724
12532SOL     OW39427  11.139   1.385  10.583
12532SOL    HW139428  11.180   1.320  10.640
12532SOL    HW239429  11.045   1.375  10.600
12533SOL     OW39430   0.553   3.658   5.178
12533SOL    HW139431   0.649   3.652   5.184
12533SOL    HW239432   0.522   3.610   5.254
12534SOL     OW39433   7.698   4.126   3.299
12534SOL    HW139434   7.778   4.121   3.246
12534SOL    HW239435   7.627   4.112   3.236
12535SOL     OW39436  11.539   1.443  12.996
12535SOL    HW139437  11.455   1.480  13.023
12535SOL    HW239438  11.593   1.520  12.974
12536SOL     OW39439   1.633   3.733   1.302
12536SOL    HW139440   1.644   3.641   1.279
12536SOL    HW239441   1.714   3.776   1.276
12537SOL     OW39442   9.207   9.963   2.193
12537SOL    HW139443   9.189   9.929   2.281
12537SOL    HW239444   9.266  10.037   2.207
12538SOL     OW39445   2.762   9.725   0.321
12538SOL    HW139446   2.674   9.727   0.282
12538SOL    HW239447   2.777   9.816   0.349
12539SOL     OW39448   8.131   7.180   5.871
12539SOL    HW139449   8.050   7.211   5.911
12539SOL    HW239450   8.122   7.203   5.778
12540SOL     OW39451   7.228   0.299   4.030
12540SOL    HW139452   7.242   0.377   4.084
12540SOL    HW239453   7.201   0.333   3.944
12541SOL     OW39454   3.466   5.907  10.746
12541SOL    HW139455   3.506   5.893  10.831
12541SOL    HW239456   3.497   5.994  10.719
12542SOL     OW39457  14.301  14.640  11.192
12542SOL    HW139458  14.380  14.589  11.175
12542SOL    HW239459  14.241  14.614  11.122
12543SOL     OW39460   9.116   0.182  13.632
12543SOL    HW139461   9.191   0.139  13.674
12543SOL    HW239462   9.151   0.266  13.601
12544SOL     OW39463   9.236   9.214   5.869
12544SOL    HW139464   9.256   9.212   5.962
12544SOL    HW239465   9.236   9.122   5.842
12545SOL     OW39466   4.173   6.294   6.254
12545SOL    HW139467   4.261   6.266   6.227
12545SOL    HW239468   4.187   6.375   6.303
12546SOL     OW39469  10.883   7.406   3.247
12546SOL    HW139470  10.811   7.405   3.310
12546SOL    HW239471  10.925   7.491   3.259
12547SOL     OW39472   0.387  10.406  14.710
12547SOL    HW139473   0.325  10.379  14.643
12547SOL    HW239474   0.468  10.425  14.663
12548SOL     OW39475   2.976   8.395  13.347
12548SOL    HW139476   2.947   8.405  13.256
12548SOL    HW239477   2.964   8.302  13.365
12549SOL     OW39478  11.783  11.298  10.958
12549SOL    HW139479  11.770  11.350  10.879
12549SOL    HW239480  11.737  11.347  11.027
12550SOL     OW39481   8.260   1.589   5.285
12550SOL    HW139482   8.274   1.670   5.334
12550SOL    HW239483   8.180   1.551   5.322
12551SOL     OW39484   8.588   3.817   6.324
12551SOL    HW139485   8.528   3.863   6.265
12551SOL    HW239486   8.654   3.882   6.347
12552SOL     OW39487  11.746  13.717  11.756
12552SOL    HW139488  11.799  13.644  11.788
12552SOL    HW239489  11.660  13.679  11.739
12553SOL     OW39490   0.807  12.244  14.625
12553SOL    HW139491   0.788  12.328  14.666
12553SOL    HW239492   0.815  12.264  14.532
12554SOL     OW39493   4.820   5.598   5.889
12554SOL    HW139494   4.733   5.627   5.917
12554SOL    HW239495   4.857   5.675   5.845
12555SOL     OW39496   9.281   0.091   3.996
12555SOL    HW139497   9.260   0.184   3.988
12555SOL    HW239498   9.225   0.048   3.932
12556SOL     OW39499   0.784  10.327  13.921
12556SOL    HW139500   0.805  10.390  13.991
12556SOL    HW239501   0.827  10.363  13.843
12557SOL     OW39502   1.135  14.375   0.147
12557SOL    HW139503   1.104  14.289   0.118
12557SOL    HW239504   1.229  14.373   0.131
12558SOL     OW39505  12.833  12.492  13.913
12558SOL    HW139506  12.748  12.518  13.879
12558SOL    HW239507  12.827  12.506  14.007
12559SOL     OW39508  14.856   1.278  12.531
12559SOL    HW139509   0.066   1.261  12.493
12559SOL    HW239510  14.868   1.264  12.625
12560SOL     OW39511   3.727  11.750   8.000
12560SOL    HW139512   3.665  11.808   7.957
12560SOL    HW239513   3.707  11.759   8.093
12561SOL     OW39514  14.377  13.086   6.989
12561SOL    HW139515  14.424  13.068   6.908
12561SOL    HW239516  14.363  13.180   6.989
12562SOL     OW39517   0.196   7.206   6.485
12562SOL    HW139518   0.110   7.167   6.500
12562SOL    HW239519   0.258   7.134   6.501
12563SOL     OW39520  10.420   6.789   4.802
12563SOL    HW139521  10.356   6.849   4.763
12563SOL    HW239522  10.482   6.847   4.847
12564SOL     OW39523  14.345   2.564   9.325
12564SOL    HW139524  14.389   2.584   9.407
12564SOL    HW239525  14.320   2.472   9.333
12565SOL     OW39526   1.545   5.347   0.578
12565SOL    HW139527   1.547   5.260   0.619
12565SOL    HW239528   1.632   5.383   0.594
12566SOL     OW39529   1.466   8.252   8.213
12566SOL    HW139530   1.560   8.243   8.198
12566SOL    HW239531   1.458   8.324   8.276
12567SOL     OW39532   8.296  10.175   6.256
12567SOL    HW139533   8.238  10.224   6.313
12567SOL    HW239534   8.290  10.220   6.171
12568SOL     OW39535  12.028   0.172   5.517
12568SOL    HW139536  11.939   0.150   5.487
12568SOL    HW239537  12.015   0.241   5.581
12569SOL     OW39538   6.326   7.261  14.615
12569SOL    HW139539   6.408   7.286  14.656
12569SOL    HW239540   6.351   7.196  14.548
12570SOL     OW39541   1.065   7.029  12.005
12570SOL    HW139542   1.036   7.115  11.976
12570SOL    HW239543   1.160   7.036  12.009
12571SOL     OW39544   3.608  11.655   3.889
12571SOL    HW139545   3.652  11.627   3.809
12571SOL    HW239546   3.657  11.614   3.960
12572SOL     OW39547   2.315  14.034   4.410
12572SOL    HW139548   2.263  14.045   4.330
12572SOL    HW239549   2.305  13.942   4.433
12573SOL     OW39550   3.980  13.927  11.526
12573SOL    HW139551   3.920  13.872  11.476
12573SOL    HW239552   3.934  14.010  11.538
12574SOL     OW39553   1.892   7.602   7.588
12574SOL    HW139554   1.803   7.630   7.609
12574SOL    HW239555   1.925   7.672   7.531
12575SOL     OW39556  10.156   0.178   0.122
12575SOL    HW139557  10.250   0.176   0.139
12575SOL    HW239558  10.146   0.122   0.044
12576SOL     OW39559   1.672  14.541   5.910
12576SOL    HW139560   1.718  14.595   5.973
12576SOL    HW239561   1.720  14.458   5.909
12577SOL     OW39562  10.088   3.697   7.576
12577SOL    HW139563  10.169   3.746   7.593
12577SOL    HW239564  10.048   3.686   7.663
12578SOL     OW39565   1.748  10.644  11.892
12578SOL    HW139566   1.801  10.723  11.885
12578SOL    HW239567   1.804  10.574  11.858
12579SOL     OW39568   7.709   6.460   0.217
12579SOL    HW139569   7.707   6.365   0.229
12579SOL    HW239570   7.754   6.493   0.295
12580SOL     OW39571   1.025   3.680   6.951
12580SOL    HW139572   1.098   3.737   6.975
12580SOL    HW239573   0.955   3.740   6.927
12581SOL     OW39574  14.235  11.296   2.535
12581SOL    HW139575  14.250  11.253   2.451
12581SOL    HW239576  14.158  11.252   2.571
12582SOL     OW39577  10.746   8.932  13.778
12582SOL    HW139578  10.762   8.840  13.753
12582SOL    HW239579  10.780   8.983  13.705
12583SOL     OW39580  14.822   5.872   8.339
12583SOL    HW139581  14.848   5.780   8.329
12583SOL    HW239582  14.729   5.873   8.313
12584SOL     OW39583  12.219   5.575   4.164
12584SOL    HW139584  12.199   5.606   4.252
12584SOL    HW239585  12.248   5.653   4.117
12585SOL     OW39586   9.760   3.512  11.409
12585SOL    HW139587   9.830   3.492  11.471
12585SOL    HW239588   9.785   3.467  11.329
12586SOL     OW39589   4.418  11.675  11.013
12586SOL    HW139590   4.346  11.613  11.005
12586SOL    HW239591   4.494  11.622  11.036
12587SOL     OW39592  10.581   1.618   5.873
12587SOL    HW139593  10.632   1.629   5.793
12587SOL    HW239594  10.619   1.541   5.916
12588SOL     OW39595  13.401   0.332   6.023
12588SOL    HW139596  13.381   0.240   6.037
12588SOL    HW239597  13.316   0.374   6.011
12589SOL     OW39598   1.770   0.873  10.125
12589SOL    HW139599   1.679   0.886  10.098
12589SOL    HW239600   1.774   0.781  10.150
12590SOL     OW39601  10.026   5.118  12.333
12590SOL    HW139602   9.950   5.064  12.352
12590SOL    HW239603   9.995   5.182  12.269
12591SOL     OW39604  10.270   8.484   1.242
12591SOL    HW139605  10.195   8.468   1.298
12591SOL    HW239606  10.242   8.457   1.155
12592SOL     OW39607   1.695  10.786   7.132
12592SOL    HW139608   1.686  10.865   7.185
12592SOL    HW239609   1.608  10.747   7.132
12593SOL     OW39610  13.978   0.064   8.986
12593SOL    HW139611  13.996   0.152   8.952
12593SOL    HW239612  14.019   0.005   8.923
12594SOL     OW39613   0.666   8.498   5.198
12594SOL    HW139614   0.657   8.404   5.212
12594SOL    HW239615   0.642   8.538   5.282
12595SOL     OW39616  10.047   6.268   2.960
12595SOL    HW139617  10.002   6.196   3.003
12595SOL    HW239618  10.136   6.267   2.996
12596SOL     OW39619   9.368  12.749  13.039
12596SOL    HW139620   9.425  12.820  13.069
12596SOL    HW239621   9.412  12.669  13.068
12597SOL     OW39622   5.805  13.622  11.578
12597SOL    HW139623   5.834  13.539  11.540
12597SOL    HW239624   5.872  13.643  11.643
12598SOL     OW39625   2.551   6.533   7.768
12598SOL    HW139626   2.561   6.502   7.858
12598SOL    HW239627   2.596   6.618   7.767
12599SOL     OW39628  13.371  12.342   1.973
12599SOL    HW139629  13.334  12.315   2.057
12599SOL    HW239630  13.296  12.375   1.924
12600SOL     OW39631   1.893   4.959  12.234
12600SOL    HW139632   1.979   4.986  12.267
12600SOL    HW239633   1.910   4.876  12.190
12601SOL     OW39634   4.135  13.664  12.702
12601SOL    HW139635   4.094  13.594  12.652
12601SOL    HW239636   4.223  13.671  12.667
12602SOL     OW39637   2.780  12.430   2.176
12602SOL    HW139638   2.724  12.358   2.147
12602SOL    HW239639   2.774  12.495   2.107
12603SOL     OW39640   8.033   3.145   4.380
12603SOL    HW139641   8.121   3.131   4.414
12603SOL    HW239642   8.045   3.151   4.286
12604SOL     OW39643   6.376  14.707   5.110
12604SOL    HW139644   6.290  14.696   5.069
12604SOL    HW239645   6.409  14.618   5.120
12605SOL     OW39646   5.739  12.640   9.609
12605SOL    HW139647   5.778  12.676   9.530
12605SOL    HW239648   5.673  12.704   9.635
12606SOL     OW39649   6.353  13.407  10.172
12606SOL    HW139650   6.434  13.455  10.155
12606SOL    HW239651   6.380  13.315  10.177
12607SOL     OW39652  12.487   5.630  13.216
12607SOL    HW139653  12.392   5.630  13.200
12607SOL    HW239654  12.496   5.656  13.307
12608SOL     OW39655   8.473  14.523   6.481
12608SOL    HW139656   8.395  14.570   6.508
12608SOL    HW239657   8.501  14.475   6.559
12609SOL     OW39658  10.011  12.888   7.579
12609SOL    HW139659  10.028  12.949   7.651
12609SOL    HW239660  10.078  12.907   7.514
12610SOL     OW39661   4.217   9.742  13.752
12610SOL    HW139662   4.183   9.794  13.824
12610SOL    HW239663   4.207   9.797  13.675
12611SOL     OW39664   6.782   7.089  12.394
12611SOL    HW139665   6.762   7.061  12.305
12611SOL    HW239666   6.720   7.042  12.449
12612SOL     OW39667   8.877   7.778   2.285
12612SOL    HW139668   8.819   7.785   2.209
12612SOL    HW239669   8.842   7.840   2.349
12613SOL     OW39670  14.840  14.046  13.321
12613SOL    HW139671   0.012  14.112  13.270
12613SOL    HW239672  14.751  14.083  13.329
12614SOL     OW39673   5.439   1.715   0.521
12614SOL    HW139674   5.346   1.738   0.525
12614SOL    HW239675   5.478   1.783   0.465
12615SOL     OW39676   9.913   5.333   2.899
12615SOL    HW139677   9.875   5.283   2.972
12615SOL    HW239678   9.846   5.329   2.831
12616SOL     OW39679   1.759   7.656   1.595
12616SOL    HW139680   1.755   7.749   1.616
12616SOL    HW239681   1.677   7.638   1.549
12617SOL     OW39682   4.519  13.560  10.132
12617SOL    HW139683   4.471  13.631  10.174
12617SOL    HW239684   4.611  13.585  10.140
12618SOL     OW39685   5.794  10.769  14.646
12618SOL    HW139686   5.830  10.806  14.727
12618SOL    HW239687   5.820  10.832  14.578
12619SOL     OW39688  10.520  12.966   6.067
12619SOL    HW139689  10.543  13.021   6.142
12619SOL    HW239690  10.441  12.920   6.095
12620SOL     OW39691  10.474   3.737  12.017
12620SOL    HW139692  10.533   3.749  12.090
12620SOL    HW239693  10.501   3.654  11.977
12621SOL     OW39694   7.610   6.481  10.834
12621SOL    HW139695   7.532   6.523  10.798
12621SOL    HW239696   7.627   6.408  10.775
12622SOL     OW39697  11.681  11.545   3.920
12622SOL    HW139698  11.640  11.461   3.895
12622SOL    HW239699  11.768  11.520   3.950
12623SOL     OW39700  14.263   6.020   9.610
12623SOL    HW139701  14.202   6.085   9.574
12623SOL    HW239702  14.272   6.044   9.702
12624SOL     OW39703   4.276   1.709  14.797
12624SOL    HW139704   4.369   1.700  14.776
12624SOL    HW239705   4.274   1.770  14.871
12625SOL     OW39706  13.336  13.569   9.719
12625SOL    HW139707  13.343  13.565   9.814
12625SOL    HW239708  13.276  13.498   9.696
12626SOL     OW39709   4.593  12.428   5.968
12626SOL    HW139710   4.580  12.519   5.997
12626SOL    HW239711   4.506  12.389   5.973
12627SOL     OW39712   5.292   2.957  12.372
12627SOL    HW139713   5.294   2.881  12.314
12627SOL    HW239714   5.266   3.030  12.316
12628SOL     OW39715   4.390   5.938  10.699
12628SOL    HW139716   4.472   5.896  10.670
12628SOL    HW239717   4.355   5.877  10.764
12629SOL     OW39718   6.051  12.952   6.297
12629SOL    HW139719   5.994  12.934   6.222
12629SOL    HW239720   6.093  12.868   6.315
12630SOL     OW39721   5.840   9.227   9.656
12630SOL    HW139722   5.749   9.237   9.684
12630SOL    HW239723   5.880   9.174   9.725
12631SOL     OW39724  13.455  10.343   6.421
12631SOL    HW139725  13.515  10.401   6.467
12631SOL    HW239726  13.395  10.312   6.489
12632SOL     OW39727   7.466   1.031   4.808
12632SOL    HW139728   7.485   1.122   4.789
12632SOL    HW239729   7.413   1.001   4.735
12633SOL     OW39730  14.768   7.629   2.032
12633SOL    HW139731  14.737   7.577   2.106
12633SOL    HW239732  14.690   7.670   1.997
12634SOL     OW39733   1.953   1.401   8.951
12634SOL    HW139734   1.895   1.467   8.988
12634SOL    HW239735   2.032   1.449   8.928
12635SOL     OW39736   4.834   8.077   1.839
12635SOL    HW139737   4.856   8.008   1.777
12635SOL    HW239738   4.812   8.152   1.785
12636SOL     OW39739   1.549   5.114   1.989
12636SOL    HW139740   1.604   5.042   1.956
12636SOL    HW239741   1.475   5.117   1.929
12637SOL     OW39742   1.156  13.015   8.424
12637SOL    HW139743   1.207  12.985   8.348
12637SOL    HW239744   1.067  12.984   8.406
12638SOL     OW39745   5.908   0.542   1.827
12638SOL    HW139746   5.936   0.633   1.830
12638SOL    HW239747   5.983   0.493   1.863
12639SOL     OW39748  12.318   8.871  11.359
12639SOL    HW139749  12.232   8.893  11.396
12639SOL    HW239750  12.298   8.813  11.285
12640SOL     OW39751   6.788   4.730   6.140
12640SOL    HW139752   6.747   4.676   6.071
12640SOL    HW239753   6.725   4.800   6.156
12641SOL     OW39754   4.800  12.610   5.363
12641SOL    HW139755   4.706  12.626   5.358
12641SOL    HW239756   4.840  12.696   5.353
12642SOL     OW39757   8.457   0.731   9.300
12642SOL    HW139758   8.522   0.670   9.335
12642SOL    HW239759   8.505   0.813   9.291
12643SOL     OW39760   2.607   8.799   9.708
12643SOL    HW139761   2.690   8.785   9.663
12643SOL    HW239762   2.585   8.714   9.745
12644SOL     OW39763   3.383   1.407   2.620
12644SOL    HW139764   3.442   1.368   2.684
12644SOL    HW239765   3.311   1.345   2.614
12645SOL     OW39766   2.377   1.550  14.107
12645SOL    HW139767   2.455   1.499  14.086
12645SOL    HW239768   2.366   1.609  14.032
12646SOL     OW39769  11.929  11.402  11.812
12646SOL    HW139770  11.867  11.342  11.770
12646SOL    HW239771  12.014  11.359  11.799
12647SOL     OW39772   2.718   2.075   7.084
12647SOL    HW139773   2.679   2.126   7.012
12647SOL    HW239774   2.721   1.985   7.052
12648SOL     OW39775   7.065   9.537  14.844
12648SOL    HW139776   7.156   9.566  14.853
12648SOL    HW239777   7.032   9.584  14.767
12649SOL     OW39778   3.267  12.964   9.953
12649SOL    HW139779   3.250  13.050   9.991
12649SOL    HW239780   3.318  12.982   9.874
12650SOL     OW39781   8.835   0.710  11.052
12650SOL    HW139782   8.921   0.748  11.070
12650SOL    HW239783   8.786   0.780  11.007
12651SOL     OW39784  10.023   8.803   0.273
12651SOL    HW139785  10.102   8.853   0.293
12651SOL    HW239786   9.983   8.850   0.199
12652SOL     OW39787   1.421  12.157   0.605
12652SOL    HW139788   1.421  12.116   0.691
12652SOL    HW239789   1.405  12.250   0.622
12653SOL     OW39790  10.108   0.507   7.018
12653SOL    HW139791  10.130   0.549   6.936
12653SOL    HW239792  10.019   0.473   7.005
12654SOL     OW39793   2.367   6.169   8.044
12654SOL    HW139794   2.398   6.176   7.953
12654SOL    HW239795   2.353   6.075   8.057
12655SOL     OW39796   2.249   4.573   5.016
12655SOL    HW139797   2.333   4.527   5.023
12655SOL    HW239798   2.187   4.506   4.989
12656SOL     OW39799  13.557   6.084   9.289
12656SOL    HW139800  13.539   6.027   9.364
12656SOL    HW239801  13.605   6.159   9.326
12657SOL     OW39802  14.518   5.434  14.345
12657SOL    HW139803  14.451   5.502  14.353
12657SOL    HW239804  14.537   5.430  14.251
12658SOL     OW39805  14.388   9.385  13.214
12658SOL    HW139806  14.440   9.374  13.135
12658SOL    HW239807  14.377   9.296  13.248
12659SOL     OW39808  13.752   4.450  11.381
12659SOL    HW139809  13.659   4.447  11.361
12659SOL    HW239810  13.789   4.509  11.317
12660SOL     OW39811   9.409   0.818   1.237
12660SOL    HW139812   9.449   0.853   1.317
12660SOL    HW239813   9.448   0.731   1.227
12661SOL     OW39814   3.348  13.012   4.152
12661SOL    HW139815   3.386  13.037   4.068
12661SOL    HW239816   3.378  12.922   4.166
12662SOL     OW39817   8.907   9.557   3.390
12662SOL    HW139818   8.967   9.484   3.409
12662SOL    HW239819   8.840   9.518   3.334
12663SOL     OW39820   3.787   6.332   6.608
12663SOL    HW139821   3.846   6.399   6.573
12663SOL    HW239822   3.752   6.288   6.531
12664SOL     OW39823   3.421   0.433  14.228
12664SOL    HW139824   3.342   0.476  14.196
12664SOL    HW239825   3.448   0.484  14.305
12665SOL     OW39826  12.095  10.677  14.291
12665SOL    HW139827  12.031  10.649  14.356
12665SOL    HW239828  12.166  10.614  14.298
12666SOL     OW39829  13.706   3.907   9.796
12666SOL    HW139830  13.762   3.917   9.719
12666SOL    HW239831  13.619   3.887   9.760
12667SOL     OW39832  12.094  11.396  11.498
12667SOL    HW139833  12.018  11.359  11.454
12667SOL    HW239834  12.105  11.341  11.576
12668SOL     OW39835  10.833   6.956   7.380
12668SOL    HW139836  10.804   6.921   7.296
12668SOL    HW239837  10.900   7.020   7.357
12669SOL     OW39838   8.261  13.880  12.698
12669SOL    HW139839   8.221  13.959  12.663
12669SOL    HW239840   8.216  13.865  12.782
12670SOL     OW39841   3.125   7.520   4.498
12670SOL    HW139842   3.082   7.514   4.583
12670SOL    HW239843   3.180   7.598   4.504
12671SOL     OW39844   6.132  13.598   7.052
12671SOL    HW139845   6.163  13.557   7.133
12671SOL    HW239846   6.039  13.614   7.068
12672SOL     OW39847   5.366   1.165  11.495
12672SOL    HW139848   5.270   1.167  11.496
12672SOL    HW239849   5.392   1.253  11.521
12673SOL     OW39850  11.532   6.268  14.533
12673SOL    HW139851  11.507   6.176  14.539
12673SOL    HW239852  11.511   6.305  14.619
12674SOL     OW39853   6.881   2.366   2.861
12674SOL    HW139854   6.829   2.435   2.821
12674SOL    HW239855   6.877   2.383   2.955
12675SOL     OW39856  12.221   7.400   3.868
12675SOL    HW139857  12.201   7.307   3.875
12675SOL    HW239858  12.236   7.415   3.774
12676SOL     OW39859  11.973   9.382  10.373
12676SOL    HW139860  11.973   9.348  10.462
12676SOL    HW239861  11.978   9.305  10.317
12677SOL     OW39862   4.825   3.449   5.494
12677SOL    HW139863   4.729   3.454   5.496
12677SOL    HW239864   4.854   3.538   5.511
12678SOL     OW39865   2.250   4.760  10.096
12678SOL    HW139866   2.287   4.671  10.094
12678SOL    HW239867   2.309   4.811  10.041
12679SOL     OW39868   4.218   5.336   2.517
12679SOL    HW139869   4.217   5.430   2.500
12679SOL    HW239870   4.218   5.296   2.430
12680SOL     OW39871  10.210   3.798   2.767
12680SOL    HW139872  10.118   3.778   2.784
12680SOL    HW239873  10.216   3.893   2.779
12681SOL     OW39874   6.513  10.135  13.221
12681SOL    HW139875   6.452  10.062  13.215
12681SOL    HW239876   6.504  10.167  13.311
12682SOL     OW39877  12.017   5.977  11.484
12682SOL    HW139878  12.064   5.961  11.402
12682SOL    HW239879  12.036   6.068  11.506
12683SOL     OW39880   4.451   3.940  13.002
12683SOL    HW139881   4.458   3.900  13.089
12683SOL    HW239882   4.409   4.025  13.018
12684SOL     OW39883  10.633  11.132  10.080
12684SOL    HW139884  10.727  11.149  10.075
12684SOL    HW239885  10.604  11.133   9.988
12685SOL     OW39886  10.477  13.984   0.444
12685SOL    HW139887  10.482  13.894   0.412
12685SOL    HW239888  10.567  14.007   0.465
12686SOL     OW39889   3.569   2.749   9.396
12686SOL    HW139890   3.570   2.840   9.366
12686SOL    HW239891   3.584   2.697   9.317
12687SOL     OW39892   1.294  13.565  11.799
12687SOL    HW139893   1.260  13.590  11.713
12687SOL    HW239894   1.360  13.632  11.818
12688SOL     OW39895   2.085   7.486  11.482
12688SOL    HW139896   2.124   7.490  11.569
12688SOL    HW239897   2.134   7.551  11.431
12689SOL     OW39898   8.785   6.966   5.346
12689SOL    HW139899   8.818   6.914   5.272
12689SOL    HW239900   8.863   6.988   5.396
12690SOL     OW39901  13.155   3.210  12.248
12690SOL    HW139902  13.240   3.245  12.274
12690SOL    HW239903  13.093   3.255  12.306
12691SOL     OW39904  11.409   0.692   7.350
12691SOL    HW139905  11.381   0.775   7.311
12691SOL    HW239906  11.461   0.650   7.282
12692SOL     OW39907   0.075  13.666  10.416
12692SOL    HW139908   0.057  13.579  10.450
12692SOL    HW239909   0.169  13.665  10.397
12693SOL     OW39910  13.791  11.979   2.513
12693SOL    HW139911  13.837  12.012   2.590
12693SOL    HW239912  13.857  11.932   2.463
12694SOL     OW39913   1.045  10.770   5.711
12694SOL    HW139914   1.103  10.834   5.669
12694SOL    HW239915   1.074  10.685   5.677
12695SOL     OW39916   7.006   4.659   8.236
12695SOL    HW139917   6.988   4.583   8.292
12695SOL    HW239918   7.059   4.717   8.291
12696SOL     OW39919   9.192  11.936   7.380
12696SOL    HW139920   9.166  11.897   7.464
12696SOL    HW239921   9.286  11.921   7.375
12697SOL     OW39922   9.493   1.329  13.475
12697SOL    HW139923   9.505   1.301  13.565
12697SOL    HW239924   9.461   1.419  13.482
12698SOL     OW39925   3.838   4.576   7.192
12698SOL    HW139926   3.897   4.569   7.267
12698SOL    HW239927   3.884   4.633   7.130
12699SOL     OW39928   3.523   3.073  13.775
12699SOL    HW139929   3.486   3.118  13.699
12699SOL    HW239930   3.561   2.993  13.739
12700SOL     OW39931   0.275  14.792   5.985
12700SOL    HW139932   0.285   0.004   6.022
12700SOL    HW239933   0.243  14.739   6.057
12701SOL     OW39934  11.448   1.308   4.372
12701SOL    HW139935  11.424   1.332   4.462
12701SOL    HW239936  11.523   1.249   4.383
12702SOL     OW39937  11.451   8.183   9.717
12702SOL    HW139938  11.427   8.146   9.802
12702SOL    HW239939  11.433   8.277   9.726
12703SOL     OW39940   1.275   9.064   0.518
12703SOL    HW139941   1.351   9.120   0.531
12703SOL    HW239942   1.230   9.101   0.442
12704SOL     OW39943   5.648   6.894   6.005
12704SOL    HW139944   5.690   6.945   6.074
12704SOL    HW239945   5.561   6.933   5.995
12705SOL     OW39946   9.178   2.553  11.330
12705SOL    HW139947   9.142   2.559  11.418
12705SOL    HW239948   9.123   2.489  11.285
12706SOL     OW39949   3.168   0.614  13.049
12706SOL    HW139950   3.137   0.617  13.140
12706SOL    HW239951   3.133   0.532  13.014
12707SOL     OW39952   4.294   0.237   5.446
12707SOL    HW139953   4.200   0.221   5.438
12707SOL    HW239954   4.300   0.313   5.504
12708SOL     OW39955   3.022   3.436   9.166
12708SOL    HW139956   3.019   3.361   9.106
12708SOL    HW239957   3.028   3.398   9.253
12709SOL     OW39958   8.067  13.794   5.172
12709SOL    HW139959   8.107  13.840   5.246
12709SOL    HW239960   8.101  13.840   5.095
12710SOL     OW39961  12.207  11.435   9.685
12710SOL    HW139962  12.267  11.417   9.613
12710SOL    HW239963  12.242  11.385   9.759
12711SOL     OW39964   2.218   3.043   2.543
12711SOL    HW139965   2.166   2.963   2.534
12711SOL    HW239966   2.188   3.099   2.471
12712SOL     OW39967   2.290   0.144  13.687
12712SOL    HW139968   2.294   0.193  13.769
12712SOL    HW239969   2.215   0.182  13.640
12713SOL     OW39970   7.456  11.514   8.300
12713SOL    HW139971   7.467  11.461   8.220
12713SOL    HW239972   7.361  11.525   8.307
12714SOL     OW39973   1.161  11.073   2.649
12714SOL    HW139974   1.119  11.071   2.735
12714SOL    HW239975   1.126  10.996   2.604
12715SOL     OW39976   1.790  13.081   2.199
12715SOL    HW139977   1.734  13.040   2.133
12715SOL    HW239978   1.729  13.108   2.268
12716SOL     OW39979  14.590   9.480   8.532
12716SOL    HW139980  14.639   9.429   8.467
12716SOL    HW239981  14.646   9.555   8.550
12717SOL     OW39982   7.499   0.901   6.045
12717SOL    HW139983   7.513   0.814   6.081
12717SOL    HW239984   7.571   0.912   5.982
12718SOL     OW39985   3.826   5.057  11.643
12718SOL    HW139986   3.840   5.134  11.698
12718SOL    HW239987   3.848   5.087  11.554
12719SOL     OW39988   1.545  12.902  11.028
12719SOL    HW139989   1.555  12.993  11.055
12719SOL    HW239990   1.631  12.878  10.992
12720SOL     OW39991  12.618  13.262   6.851
12720SOL    HW139992  12.670  13.321   6.906
12720SOL    HW239993  12.618  13.179   6.900
12721SOL     OW39994   4.581  14.003  13.068
12721SOL    HW139995   4.491  14.026  13.092
12721SOL    HW239996   4.601  13.927  13.123
12722SOL     OW39997  11.570   2.260  14.398
12722SOL    HW139998  11.644   2.202  14.411
12722SOL    HW239999  11.600   2.345  14.429
12723SOL     OW40000   6.966  11.798   6.201
12723SOL    HW140001   6.880  11.767   6.174
12723SOL    HW240002   6.958  11.814   6.295
12724SOL     OW40003  12.665  14.649   3.158
12724SOL    HW140004  12.597  14.588   3.187
12724SOL    HW240005  12.622  14.704   3.093
12725SOL     OW40006   6.232   5.491   2.863
12725SOL    HW140007   6.269   5.529   2.943
12725SOL    HW240008   6.293   5.517   2.794
12726SOL     OW40009   7.690   8.172  10.463
12726SOL    HW140010   7.711   8.180  10.370
12726SOL    HW240011   7.768   8.131  10.501
12727SOL     OW40012   9.307   6.945   3.743
12727SOL    HW140013   9.242   6.965   3.811
12727SOL    HW240014   9.257   6.947   3.661
12728SOL     OW40015   2.238   7.314   7.295
12728SOL    HW140016   2.186   7.268   7.361
12728SOL    HW240017   2.173   7.357   7.240
12729SOL     OW40018  13.779   9.227   5.952
12729SOL    HW140019  13.847   9.164   5.931
12729SOL    HW240020  13.801   9.258   6.040
12730SOL     OW40021  10.337  10.131   2.969
12730SOL    HW140022  10.352  10.037   2.959
12730SOL    HW240023  10.403  10.158   3.033
12731SOL     OW40024   1.563   0.625  10.509
12731SOL    HW140025   1.588   0.534  10.525
12731SOL    HW240026   1.473   0.632  10.540
12732SOL     OW40027   4.841  10.599  13.971
12732SOL    HW140028   4.783  10.556  14.034
12732SOL    HW240029   4.787  10.667  13.930
12733SOL     OW40030  11.987   7.560  10.671
12733SOL    HW140031  11.922   7.532  10.607
12733SOL    HW240032  11.951   7.640  10.709
12734SOL     OW40033   4.928   2.791   3.648
12734SOL    HW140034   4.838   2.824   3.646
12734SOL    HW240035   4.967   2.824   3.567
12735SOL     OW40036   3.039  11.500   4.096
12735SOL    HW140037   3.057  11.570   4.160
12735SOL    HW240038   3.020  11.546   4.015
12736SOL     OW40039  12.909  12.148  13.439
12736SOL    HW140040  12.911  12.101  13.523
12736SOL    HW240041  12.961  12.094  13.380
12737SOL     OW40042  14.409   5.774   7.078
12737SOL    HW140043  14.366   5.851   7.042
12737SOL    HW240044  14.406   5.710   7.008
12738SOL     OW40045   1.262   7.644  10.259
12738SOL    HW140046   1.279   7.566  10.312
12738SOL    HW240047   1.180   7.679  10.294
12739SOL     OW40048   6.658  14.372  11.560
12739SOL    HW140049   6.684  14.436  11.494
12739SOL    HW240050   6.575  14.336  11.528
12740SOL     OW40051   0.334  13.686  11.806
12740SOL    HW140052   0.356  13.779  11.800
12740SOL    HW240053   0.273  13.671  11.734
12741SOL     OW40054   8.846   8.201   6.505
12741SOL    HW140055   8.777   8.139   6.530
12741SOL    HW240056   8.810   8.287   6.527
12742SOL     OW40057   0.007  10.252  10.358
12742SOL    HW140058   0.071  10.307  10.313
12742SOL    HW240059  14.799  10.279  10.322
12743SOL     OW40060  10.027  13.102  11.591
12743SOL    HW140061  10.018  13.162  11.664
12743SOL    HW240062  10.114  13.121  11.555
12744SOL     OW40063  14.161  12.822   1.562
12744SOL    HW140064  14.187  12.765   1.635
12744SOL    HW240065  14.066  12.809   1.555
12745SOL     OW40066  13.822   8.098   3.590
12745SOL    HW140067  13.835   8.015   3.635
12745SOL    HW240068  13.731   8.097   3.562
12746SOL     OW40069  11.142   5.879   2.779
12746SOL    HW140070  11.109   5.900   2.692
12746SOL    HW240071  11.237   5.883   2.770
12747SOL     OW40072   5.305   4.852   4.827
12747SOL    HW140073   5.229   4.816   4.872
12747SOL    HW240074   5.376   4.845   4.891
12748SOL     OW40075   8.312   0.782   9.710
12748SOL    HW140076   8.295   0.798   9.617
12748SOL    HW240077   8.406   0.797   9.720
12749SOL     OW40078  10.855  11.786   1.474
12749SOL    HW140079  10.774  11.754   1.515
12749SOL    HW240080  10.923  11.771   1.540
12750SOL     OW40081   0.329   8.075  12.778
12750SOL    HW140082   0.281   8.038  12.705
12750SOL    HW240083   0.360   8.160  12.747
12751SOL     OW40084  14.002   7.194   1.039
12751SOL    HW140085  14.077   7.250   1.059
12751SOL    HW240086  14.020   7.159   0.952
12752SOL     OW40087   4.840   5.632  10.908
12752SOL    HW140088   4.932   5.635  10.881
12752SOL    HW240089   4.823   5.539  10.925
12753SOL     OW40090  13.383  13.726   7.954
12753SOL    HW140091  13.448  13.657   7.944
12753SOL    HW240092  13.344  13.734   7.866
12754SOL     OW40093  10.474   6.963  12.311
12754SOL    HW140094  10.444   7.052  12.290
12754SOL    HW240095  10.409   6.906  12.271
12755SOL     OW40096   8.691  13.725  14.356
12755SOL    HW140097   8.687  13.763  14.444
12755SOL    HW240098   8.710  13.632  14.371
12756SOL     OW40099   2.332  12.917  12.213
12756SOL    HW140100   2.250  12.907  12.260
12756SOL    HW240101   2.388  12.847  12.246
12757SOL     OW40102  13.843   9.131   2.410
12757SOL    HW140103  13.875   9.100   2.495
12757SOL    HW240104  13.799   9.055   2.372
12758SOL     OW40105  10.353   3.226  10.739
12758SOL    HW140106  10.424   3.207  10.678
12758SOL    HW240107  10.326   3.316  10.717
12759SOL     OW40108   8.244  13.068   6.536
12759SOL    HW140109   8.232  13.162   6.522
12759SOL    HW240110   8.267  13.060   6.628
12760SOL     OW40111  14.843  10.538   0.193
12760SOL    HW140112  14.772  10.602   0.202
12760SOL    HW240113   0.000  10.552   0.104
12761SOL     OW40114   7.009   5.577   8.215
12761SOL    HW140115   6.949   5.589   8.142
12761SOL    HW240116   7.044   5.489   8.204
12762SOL     OW40117   1.747   4.547  11.756
12762SOL    HW140118   1.685   4.578  11.822
12762SOL    HW240119   1.692   4.526  11.681
12763SOL     OW40120  11.030   2.957  12.927
12763SOL    HW140121  11.112   2.917  12.900
12763SOL    HW240122  11.030   3.043  12.883
12764SOL     OW40123  12.007   6.081   7.764
12764SOL    HW140124  11.917   6.052   7.748
12764SOL    HW240125  12.032   6.035   7.844
12765SOL     OW40126   0.746   9.917  14.353
12765SOL    HW140127   0.836   9.897  14.377
12765SOL    HW240128   0.737   9.888  14.263
12766SOL     OW40129   8.422  13.882   7.635
12766SOL    HW140130   8.364  13.958   7.645
12766SOL    HW240131   8.364  13.812   7.604
12767SOL     OW40132  13.606  14.594  13.657
12767SOL    HW140133  13.697  14.587  13.686
12767SOL    HW240134  13.604  14.550  13.572
12768SOL     OW40135   6.794   4.574  14.549
12768SOL    HW140136   6.819   4.591  14.458
12768SOL    HW240137   6.700   4.591  14.552
12769SOL     OW40138   2.841   7.086  11.077
12769SOL    HW140139   2.840   7.121  11.166
12769SOL    HW240140   2.809   7.158  11.022
12770SOL     OW40141   0.443   4.612   1.785
12770SOL    HW140142   0.511   4.661   1.832
12770SOL    HW240143   0.429   4.662   1.704
12771SOL     OW40144  12.101  14.748   7.648
12771SOL    HW140145  12.143  14.773   7.730
12771SOL    HW240146  12.171  14.712   7.594
12772SOL     OW40147   6.805  10.829   8.876
12772SOL    HW140148   6.805  10.761   8.809
12772SOL    HW240149   6.889  10.817   8.921
12773SOL     OW40150   0.367  14.181   4.306
12773SOL    HW140151   0.280  14.148   4.282
12773SOL    HW240152   0.362  14.196   4.400
12774SOL     OW40153   0.441   8.298   5.012
12774SOL    HW140154   0.531   8.281   4.984
12774SOL    HW240155   0.425   8.233   5.081
12775SOL     OW40156   0.951   4.649   7.633
12775SOL    HW140157   0.945   4.733   7.678
12775SOL    HW240158   0.872   4.646   7.578
12776SOL     OW40159  13.166  12.122   3.423
12776SOL    HW140160  13.165  12.158   3.512
12776SOL    HW240161  13.205  12.192   3.370
12777SOL     OW40162   7.077   5.881   8.150
12777SOL    HW140163   7.110   5.791   8.158
12777SOL    HW240164   7.065   5.910   8.240
12778SOL     OW40165   9.664   5.821   3.425
12778SOL    HW140166   9.751   5.855   3.443
12778SOL    HW240167   9.622   5.816   3.511
12779SOL     OW40168   1.134   6.435   2.580
12779SOL    HW140169   1.048   6.460   2.613
12779SOL    HW240170   1.195   6.468   2.645
12780SOL     OW40171   4.168   0.449   8.740
12780SOL    HW140172   4.258   0.455   8.772
12780SOL    HW240173   4.176   0.405   8.655
12781SOL     OW40174   6.224   6.468  14.481
12781SOL    HW140175   6.297   6.445  14.423
12781SOL    HW240176   6.148   6.471  14.422
12782SOL     OW40177   2.867   9.230   3.790
12782SOL    HW140178   2.961   9.211   3.788
12782SOL    HW240179   2.828   9.167   3.728
12783SOL     OW40180   1.285   1.297   1.432
12783SOL    HW140181   1.263   1.390   1.439
12783SOL    HW240182   1.344   1.281   1.506
12784SOL     OW40183  11.731   6.261  14.805
12784SOL    HW140184  11.780   6.343  14.814
12784SOL    HW240185  11.786   6.208  14.747
12785SOL     OW40186   6.627   6.911   3.250
12785SOL    HW140187   6.686   6.969   3.298
12785SOL    HW240188   6.549   6.905   3.305
12786SOL     OW40189   5.127   3.400   6.196
12786SOL    HW140190   5.119   3.427   6.104
12786SOL    HW240191   5.175   3.317   6.192
12787SOL     OW40192   2.188  10.696   8.136
12787SOL    HW140193   2.282  10.686   8.149
12787SOL    HW240194   2.165  10.629   8.072
12788SOL     OW40195   4.381   9.745   7.379
12788SOL    HW140196   4.285   9.753   7.378
12788SOL    HW240197   4.410   9.804   7.309
12789SOL     OW40198   5.784   0.795   9.327
12789SOL    HW140199   5.732   0.758   9.399
12789SOL    HW240200   5.790   0.725   9.263
12790SOL     OW40201   5.130  14.201  10.433
12790SOL    HW140202   5.109  14.108  10.437
12790SOL    HW240203   5.051  14.245  10.465
12791SOL     OW40204   1.197  14.106   0.078
12791SOL    HW140205   1.264  14.096   0.146
12791SOL    HW240206   1.245  14.142   0.003
12792SOL     OW40207  14.249   3.718   1.078
12792SOL    HW140208  14.195   3.732   1.000
12792SOL    HW240209  14.336   3.747   1.052
12793SOL     OW40210  10.824  10.845   9.576
12793SOL    HW140211  10.858  10.815   9.492
12793SOL    HW240212  10.771  10.922   9.554
12794SOL     OW40213   5.630  12.188  12.326
12794SOL    HW140214   5.543  12.200  12.363
12794SOL    HW240215   5.637  12.254  12.257
12795SOL     OW40216   6.613  13.012   0.770
12795SOL    HW140217   6.700  12.988   0.739
12795SOL    HW240218   6.558  13.008   0.692
12796SOL     OW40219  11.434  12.436   8.242
12796SOL    HW140220  11.420  12.460   8.151
12796SOL    HW240221  11.364  12.374   8.262
12797SOL     OW40222   5.730   2.980  12.702
12797SOL    HW140223   5.764   2.909  12.756
12797SOL    HW240224   5.639   2.957  12.685
12798SOL     OW40225   5.105   5.233   4.041
12798SOL    HW140226   5.168   5.198   4.103
12798SOL    HW240227   5.108   5.173   3.967
12799SOL     OW40228  10.633   5.153   8.522
12799SOL    HW140229  10.729   5.156   8.527
12799SOL    HW240230  10.611   5.060   8.533
12800SOL     OW40231  11.085   6.384   7.666
12800SOL    HW140232  11.044   6.427   7.741
12800SOL    HW240233  11.069   6.443   7.592
12801SOL     OW40234   4.261   9.258   2.334
12801SOL    HW140235   4.176   9.233   2.298
12801SOL    HW240236   4.307   9.175   2.347
12802SOL     OW40237   7.424   3.714  10.772
12802SOL    HW140238   7.501   3.733  10.825
12802SOL    HW240239   7.382   3.640  10.815
12803SOL     OW40240  14.510   9.166   7.169
12803SOL    HW140241  14.452   9.157   7.244
12803SOL    HW240242  14.589   9.116   7.193
12804SOL     OW40243  10.355  10.629  14.645
12804SOL    HW140244  10.336  10.553  14.700
12804SOL    HW240245  10.360  10.593  14.556
12805SOL     OW40246   2.998   0.034   7.104
12805SOL    HW140247   3.034  14.862   7.179
12805SOL    HW240248   2.903   0.024   7.113
12806SOL     OW40249   7.989  11.219   9.222
12806SOL    HW140250   8.039  11.138   9.221
12806SOL    HW240251   8.049  11.284   9.185
12807SOL     OW40252   8.082   7.160   5.593
12807SOL    HW140253   8.166   7.153   5.548
12807SOL    HW240254   8.045   7.072   5.591
12808SOL     OW40255   6.911  13.062  12.799
12808SOL    HW140256   6.970  13.107  12.860
12808SOL    HW240257   6.864  12.999  12.854
12809SOL     OW40258  11.141   8.102  13.712
12809SOL    HW140259  11.097   8.108  13.797
12809SOL    HW240260  11.094   8.034  13.665
12810SOL     OW40261  14.107   7.317   0.134
12810SOL    HW140262  14.061   7.384   0.083
12810SOL    HW240263  14.179   7.288   0.078
12811SOL     OW40264   1.933   1.245  13.939
12811SOL    HW140265   2.018   1.289  13.948
12811SOL    HW240266   1.949   1.176  13.875
12812SOL     OW40267   2.826   0.012   1.195
12812SOL    HW140268   2.745  14.850   1.230
12812SOL    HW240269   2.852  14.828   1.125
12813SOL     OW40270   2.416  14.375   1.942
12813SOL    HW140271   2.510  14.355   1.937
12813SOL    HW240272   2.413  14.471   1.952
12814SOL     OW40273   8.787   1.259  12.718
12814SOL    HW140274   8.809   1.177  12.674
12814SOL    HW240275   8.846   1.324  12.680
12815SOL     OW40276   4.114  11.830   5.110
12815SOL    HW140277   4.065  11.849   5.190
12815SOL    HW240278   4.203  11.811   5.141
12816SOL     OW40279  12.553   3.287   8.268
12816SOL    HW140280  12.595   3.218   8.217
12816SOL    HW240281  12.576   3.368   8.222
12817SOL     OW40282   8.721   2.600  13.529
12817SOL    HW140283   8.712   2.644  13.614
12817SOL    HW240284   8.690   2.665  13.466
12818SOL     OW40285   6.539   8.751   7.282
12818SOL    HW140286   6.460   8.717   7.240
12818SOL    HW240287   6.611   8.702   7.242
12819SOL     OW40288   1.611   6.303  14.304
12819SOL    HW140289   1.614   6.210  14.278
12819SOL    HW240290   1.643   6.350  14.227
12820SOL     OW40291  13.047  14.048   1.918
12820SOL    HW140292  12.974  14.000   1.879
12820SOL    HW240293  13.123  14.027   1.863
12821SOL     OW40294   9.137   4.257   5.764
12821SOL    HW140295   9.164   4.190   5.701
12821SOL    HW240296   9.144   4.215   5.849
12822SOL     OW40297   4.314  14.371   1.848
12822SOL    HW140298   4.310  14.431   1.773
12822SOL    HW240299   4.397  14.325   1.838
12823SOL     OW40300   9.992   0.354   8.139
12823SOL    HW140301   9.940   0.291   8.089
12823SOL    HW240302   9.936   0.375   8.214
12824SOL     OW40303  13.405   2.870   3.714
12824SOL    HW140304  13.426   2.962   3.731
12824SOL    HW240305  13.473   2.821   3.760
12825SOL     OW40306  14.039   7.977  10.831
12825SOL    HW140307  14.022   7.935  10.747
12825SOL    HW240308  14.024   7.908  10.896
12826SOL     OW40309   9.632   7.744   6.480
12826SOL    HW140310   9.628   7.708   6.391
12826SOL    HW240311   9.579   7.824   6.475
12827SOL     OW40312  11.712   4.611   1.458
12827SOL    HW140313  11.755   4.616   1.544
12827SOL    HW240314  11.653   4.686   1.457
12828SOL     OW40315   3.436   3.100   6.621
12828SOL    HW140316   3.429   3.106   6.717
12828SOL    HW240317   3.393   3.018   6.599
12829SOL     OW40318   6.520  12.859   9.937
12829SOL    HW140319   6.427  12.855   9.913
12829SOL    HW240320   6.566  12.829   9.859
12830SOL     OW40321  10.209   6.816   5.176
12830SOL    HW140322  10.180   6.883   5.237
12830SOL    HW240323  10.289   6.851   5.138
12831SOL     OW40324   9.094   4.774  11.092
12831SOL    HW140325   9.100   4.868  11.111
12831SOL    HW240326   9.086   4.769  10.997
12832SOL     OW40327  12.098  12.610   1.948
12832SOL    HW140328  12.159  12.680   1.972
12832SOL    HW240329  12.041  12.601   2.025
12833SOL     OW40330   8.846   4.864   7.621
12833SOL    HW140331   8.846   4.777   7.581
12833SOL    HW240332   8.925   4.867   7.674
12834SOL     OW40333   0.528   3.502  13.693
12834SOL    HW140334   0.564   3.489  13.781
12834SOL    HW240335   0.434   3.508  13.706
12835SOL     OW40336  12.714  13.605  14.427
12835SOL    HW140337  12.728  13.554  14.507
12835SOL    HW240338  12.790  13.663  14.422
12836SOL     OW40339   5.479  10.446   6.536
12836SOL    HW140340   5.468  10.354   6.514
12836SOL    HW240341   5.416  10.491   6.479
12837SOL     OW40342  14.794   0.187   7.672
12837SOL    HW140343  14.809   0.165   7.580
12837SOL    HW240344  14.822   0.110   7.721
12838SOL     OW40345   9.478  14.138   2.856
12838SOL    HW140346   9.547  14.202   2.875
12838SOL    HW240347   9.525  14.065   2.816
12839SOL     OW40348  13.331   1.332   5.695
12839SOL    HW140349  13.317   1.385   5.616
12839SOL    HW240350  13.415   1.362   5.729
12840SOL     OW40351   7.182   8.344   1.277
12840SOL    HW140352   7.153   8.394   1.201
12840SOL    HW240353   7.101   8.322   1.324
12841SOL     OW40354   1.325  10.002   6.933
12841SOL    HW140355   1.362   9.946   6.864
12841SOL    HW240356   1.312   9.942   7.007
12842SOL     OW40357  13.721  10.874   0.387
12842SOL    HW140358  13.788  10.943   0.383
12842SOL    HW240359  13.747  10.811   0.320
12843SOL     OW40360  10.536   5.353   4.483
12843SOL    HW140361  10.584   5.270   4.488
12843SOL    HW240362  10.466   5.338   4.420
12844SOL     OW40363   4.200   3.530   3.762
12844SOL    HW140364   4.246   3.501   3.683
12844SOL    HW240365   4.240   3.614   3.783
12845SOL     OW40366  11.694   3.255   3.030
12845SOL    HW140367  11.617   3.262   3.088
12845SOL    HW240368  11.765   3.227   3.088
12846SOL     OW40369   7.667   7.156   2.563
12846SOL    HW140370   7.727   7.225   2.592
12846SOL    HW240371   7.722   7.094   2.516
12847SOL     OW40372   1.953   4.099   8.588
12847SOL    HW140373   1.864   4.081   8.557
12847SOL    HW240374   1.987   4.166   8.529
12848SOL     OW40375   9.439   4.170   8.684
12848SOL    HW140376   9.492   4.199   8.759
12848SOL    HW240377   9.350   4.197   8.706
12849SOL     OW40378   1.180  12.470   7.959
12849SOL    HW140379   1.142  12.541   8.010
12849SOL    HW240380   1.106  12.437   7.907
12850SOL     OW40381   7.204  10.087   2.753
12850SOL    HW140382   7.164  10.162   2.798
12850SOL    HW240383   7.281  10.067   2.806
12851SOL     OW40384   0.747  10.912   0.661
12851SOL    HW140385   0.797  10.860   0.598
12851SOL    HW240386   0.790  10.896   0.745
12852SOL     OW40387  11.595   0.050   9.613
12852SOL    HW140388  11.687   0.064   9.588
12852SOL    HW240389  11.576  14.837   9.584
12853SOL     OW40390   0.843   0.241   4.445
12853SOL    HW140391   0.794   0.189   4.381
12853SOL    HW240392   0.806   0.215   4.530
12854SOL     OW40393   3.416   5.059   0.079
12854SOL    HW140394   3.510   5.055   0.093
12854SOL    HW240395   3.403   5.019  14.869
12855SOL     OW40396   7.060  10.093  14.190
12855SOL    HW140397   7.084  10.143  14.267
12855SOL    HW240398   7.136  10.038  14.171
12856SOL     OW40399  14.833  13.119  10.223
12856SOL    HW140400  14.870  13.133  10.135
12856SOL    HW240401  14.869  13.035  10.251
12857SOL     OW40402   1.533   6.310   8.887
12857SOL    HW140403   1.455   6.310   8.831
12857SOL    HW240404   1.562   6.219   8.886
12858SOL     OW40405   7.124   6.974  13.651
12858SOL    HW140406   7.063   7.048  13.644
12858SOL    HW240407   7.074   6.904  13.691
12859SOL     OW40408  14.462  12.351   1.896
12859SOL    HW140409  14.538  12.295   1.882
12859SOL    HW240410  14.454  12.359   1.991
12860SOL     OW40411   7.686   9.910  12.213
12860SOL    HW140412   7.681   9.984  12.152
12860SOL    HW240413   7.596   9.880  12.222
12861SOL     OW40414   0.928   0.855   0.480
12861SOL    HW140415   0.943   0.785   0.543
12861SOL    HW240416   0.968   0.933   0.521
12862SOL     OW40417  13.406   0.911   3.165
12862SOL    HW140418  13.430   0.954   3.247
12862SOL    HW240419  13.323   0.951   3.141
12863SOL     OW40420  12.839   3.313   7.318
12863SOL    HW140421  12.917   3.368   7.331
12863SOL    HW240422  12.775   3.372   7.278
12864SOL     OW40423   9.604   3.467  14.716
12864SOL    HW140424   9.638   3.438  14.800
12864SOL    HW240425   9.630   3.398  14.654
12865SOL     OW40426   6.863  10.794   8.083
12865SOL    HW140427   6.893  10.876   8.124
12865SOL    HW240428   6.939  10.736   8.089
12866SOL     OW40429   3.877   1.862   9.912
12866SOL    HW140430   3.902   1.897   9.827
12866SOL    HW240431   3.958   1.861   9.963
12867SOL     OW40432  13.847   8.484  12.530
12867SOL    HW140433  13.780   8.448  12.588
12867SOL    HW240434  13.843   8.429  12.451
12868SOL     OW40435   2.428   9.248  11.484
12868SOL    HW140436   2.467   9.211  11.563
12868SOL    HW240437   2.433   9.177  11.420
12869SOL     OW40438  12.846  13.742   5.178
12869SOL    HW140439  12.896  13.798   5.117
12869SOL    HW240440  12.768  13.717   5.128
12870SOL     OW40441   4.119   0.266   3.272
12870SOL    HW140442   4.118   0.193   3.210
12870SOL    HW240443   4.184   0.327   3.237
12871SOL     OW40444   1.603   1.204  14.141
12871SOL    HW140445   1.695   1.211  14.165
12871SOL    HW240446   1.565   1.148  14.209
12872SOL     OW40447  10.074  10.012  10.994
12872SOL    HW140448  10.063   9.923  10.962
12872SOL    HW240449  10.032  10.012  11.080
12873SOL     OW40450   3.774  10.690   8.316
12873SOL    HW140451   3.692  10.722   8.277
12873SOL    HW240452   3.796  10.612   8.266
12874SOL     OW40453  14.103   1.232  12.159
12874SOL    HW140454  14.140   1.148  12.189
12874SOL    HW240455  14.147   1.298  12.213
12875SOL     OW40456   7.589   0.104   3.317
12875SOL    HW140457   7.628   0.192   3.320
12875SOL    HW240458   7.528   0.102   3.390
12876SOL     OW40459   6.042   7.996   1.359
12876SOL    HW140460   6.132   8.001   1.393
12876SOL    HW240461   6.004   8.081   1.382
12877SOL     OW40462   9.650   4.375  12.784
12877SOL    HW140463   9.712   4.370  12.712
12877SOL    HW240464   9.567   4.400  12.744
12878SOL     OW40465   8.298   4.131   2.097
12878SOL    HW140466   8.262   4.067   2.157
12878SOL    HW240467   8.245   4.210   2.110
12879SOL     OW40468   5.184   9.495  12.955
12879SOL    HW140469   5.129   9.544  12.893
12879SOL    HW240470   5.219   9.562  13.013
12880SOL     OW40471  11.686  12.810  13.884
12880SOL    HW140472  11.674  12.717  13.905
12880SOL    HW240473  11.614  12.854  13.929
12881SOL     OW40474   1.613   4.311   8.116
12881SOL    HW140475   1.611   4.290   8.210
12881SOL    HW240476   1.631   4.404   8.113
12882SOL     OW40477   6.598  11.375   6.498
12882SOL    HW140478   6.551  11.360   6.581
12882SOL    HW240479   6.598  11.470   6.488
12883SOL     OW40480   5.480   9.079   3.439
12883SOL    HW140481   5.422   9.113   3.371
12883SOL    HW240482   5.450   8.989   3.453
12884SOL     OW40483  13.530   9.613   9.174
12884SOL    HW140484  13.604   9.659   9.134
12884SOL    HW240485  13.510   9.542   9.113
12885SOL     OW40486   4.826   0.444   0.740
12885SOL    HW140487   4.764   0.411   0.804
12885SOL    HW240488   4.906   0.460   0.791
12886SOL     OW40489  13.207  11.804  11.265
12886SOL    HW140490  13.150  11.851  11.326
12886SOL    HW240491  13.292  11.800  11.309
12887SOL     OW40492  13.514   3.525  14.388
12887SOL    HW140493  13.564   3.563  14.315
12887SOL    HW240494  13.577   3.523  14.461
12888SOL     OW40495   2.359   7.707   9.548
12888SOL    HW140496   2.400   7.745   9.626
12888SOL    HW240497   2.265   7.715   9.564
12889SOL     OW40498   4.839   9.711   8.924
12889SOL    HW140499   4.851   9.617   8.931
12889SOL    HW240500   4.775   9.722   8.853
12890SOL     OW40501  14.353   1.425  10.167
12890SOL    HW140502  14.334   1.339  10.131
12890SOL    HW240503  14.281   1.480  10.138
12891SOL     OW40504  11.076   8.644   5.860
12891SOL    HW140505  11.024   8.716   5.825
12891SOL    HW240506  11.099   8.592   5.783
12892SOL     OW40507   6.970  12.093   6.948
12892SOL    HW140508   7.027  12.166   6.925
12892SOL    HW240509   6.913  12.128   7.016
12893SOL     OW40510   2.564   4.961   5.885
12893SOL    HW140511   2.605   5.046   5.874
12893SOL    HW240512   2.614   4.902   5.829
12894SOL     OW40513  11.376   8.464  12.367
12894SOL    HW140514  11.394   8.511  12.285
12894SOL    HW240515  11.302   8.511  12.405
12895SOL     OW40516   6.605   0.438   6.505
12895SOL    HW140517   6.591   0.532   6.516
12895SOL    HW240518   6.550   0.414   6.430
12896SOL     OW40519  13.835   2.494  10.947
12896SOL    HW140520  13.879   2.466  11.028
12896SOL    HW240521  13.874   2.441  10.878
12897SOL     OW40522   0.004   0.687  10.922
12897SOL    HW140523  14.785   0.675  10.924
12897SOL    HW240524   0.039   0.603  10.893
12898SOL     OW40525   2.886   8.032  14.313
12898SOL    HW140526   2.906   8.044  14.220
12898SOL    HW240527   2.967   8.000  14.351
12899SOL     OW40528   2.763   7.350   4.248
12899SOL    HW140529   2.746   7.263   4.284
12899SOL    HW240530   2.835   7.384   4.300
12900SOL     OW40531  12.395   3.073   4.802
12900SOL    HW140532  12.399   3.119   4.718
12900SOL    HW240533  12.354   2.989   4.781
12901SOL     OW40534   7.396  14.484   7.711
12901SOL    HW140535   7.448  14.527   7.780
12901SOL    HW240536   7.427  14.394   7.710
12902SOL     OW40537   0.347   1.838   9.636
12902SOL    HW140538   0.327   1.928   9.610
12902SOL    HW240539   0.443   1.835   9.637
12903SOL     OW40540  13.548   3.799   4.764
12903SOL    HW140541  13.616   3.767   4.705
12903SOL    HW240542  13.494   3.856   4.710
12904SOL     OW40543   8.823   4.206   6.350
12904SOL    HW140544   8.888   4.275   6.360
12904SOL    HW240545   8.844   4.165   6.267
12905SOL     OW40546  12.239  10.999   8.226
12905SOL    HW140547  12.244  11.028   8.318
12905SOL    HW240548  12.145  10.994   8.208
12906SOL     OW40549  10.431   1.604   7.606
12906SOL    HW140550  10.355   1.590   7.664
12906SOL    HW240551  10.477   1.679   7.645
12907SOL     OW40552   8.095  14.418   3.997
12907SOL    HW140553   8.081  14.453   4.085
12907SOL    HW240554   8.098  14.495   3.941
12908SOL     OW40555  11.711   2.980   0.435
12908SOL    HW140556  11.715   3.074   0.414
12908SOL    HW240557  11.765   2.971   0.513
12909SOL     OW40558   6.816   8.972  13.313
12909SOL    HW140559   6.739   8.975  13.370
12909SOL    HW240560   6.794   9.030  13.240
12910SOL     OW40561   4.045   1.067  11.343
12910SOL    HW140562   4.088   0.997  11.292
12910SOL    HW240563   3.955   1.037  11.353
12911SOL     OW40564   9.391   0.761  10.250
12911SOL    HW140565   9.416   0.813  10.326
12911SOL    HW240566   9.300   0.736  10.267
12912SOL     OW40567   2.936  14.076  11.376
12912SOL    HW140568   2.946  14.163  11.414
12912SOL    HW240569   2.869  14.087  11.309
12913SOL     OW40570   9.060   4.053  14.005
12913SOL    HW140571   9.111   4.107  14.066
12913SOL    HW240572   8.996   4.113  13.968
12914SOL     OW40573   2.848   2.617   6.254
12914SOL    HW140574   2.846   2.552   6.324
12914SOL    HW240575   2.802   2.693   6.291
12915SOL     OW40576   2.905   2.508   7.488
12915SOL    HW140577   2.920   2.602   7.477
12915SOL    HW240578   2.834   2.503   7.551
12916SOL     OW40579   4.262   0.702  14.120
12916SOL    HW140580   4.310   0.632  14.076
12916SOL    HW240581   4.270   0.682  14.213
12917SOL     OW40582   6.832   8.885   3.736
12917SOL    HW140583   6.758   8.945   3.728
12917SOL    HW240584   6.792   8.798   3.740
12918SOL     OW40585   3.234   6.679   9.590
12918SOL    HW140586   3.184   6.755   9.619
12918SOL    HW240587   3.168   6.615   9.565
12919SOL     OW40588  11.406   7.400   2.522
12919SOL    HW140589  11.354   7.470   2.483
12919SOL    HW240590  11.343   7.331   2.543
12920SOL     OW40591  14.825   5.252  14.777
12920SOL    HW140592  14.752   5.300  14.739
12920SOL    HW240593  14.827   5.279  14.869
12921SOL     OW40594  11.239  11.137  13.683
12921SOL    HW140595  11.166  11.122  13.623
12921SOL    HW240596  11.306  11.075  13.655
12922SOL     OW40597   5.163   0.415   3.051
12922SOL    HW140598   5.163   0.358   2.973
12922SOL    HW240599   5.231   0.378   3.107
12923SOL     OW40600   3.619   0.432   9.198
12923SOL    HW140601   3.526   0.450   9.184
12923SOL    HW240602   3.664   0.511   9.166
12924SOL     OW40603   9.817   6.807  12.329
12924SOL    HW140604   9.906   6.841  12.321
12924SOL    HW240605   9.760   6.881  12.308
12925SOL     OW40606  11.349   0.341   2.227
12925SOL    HW140607  11.431   0.341   2.276
12925SOL    HW240608  11.323   0.249   2.224
12926SOL     OW40609   3.536  10.818  11.302
12926SOL    HW140610   3.463  10.764  11.334
12926SOL    HW240611   3.586  10.759  11.246
12927SOL     OW40612  11.982   7.596   6.654
12927SOL    HW140613  11.988   7.631   6.565
12927SOL    HW240614  11.907   7.641   6.692
12928SOL     OW40615   6.336  11.355  13.951
12928SOL    HW140616   6.312  11.287  14.014
12928SOL    HW240617   6.267  11.421  13.961
12929SOL     OW40618  12.335   1.825  14.067
12929SOL    HW140619  12.394   1.752  14.047
12929SOL    HW240620  12.360   1.851  14.156
12930SOL     OW40621   5.698   3.889  10.122
12930SOL    HW140622   5.730   3.965  10.073
12930SOL    HW240623   5.615   3.917  10.159
12931SOL     OW40624   2.836   7.131   6.469
12931SOL    HW140625   2.852   7.049   6.422
12931SOL    HW240626   2.919   7.179   6.463
12932SOL     OW40627   6.376   3.581   4.111
12932SOL    HW140628   6.348   3.664   4.150
12932SOL    HW240629   6.323   3.572   4.032
12933SOL     OW40630   5.549   7.195   2.854
12933SOL    HW140631   5.488   7.234   2.915
12933SOL    HW240632   5.541   7.247   2.774
12934SOL     OW40633   3.012   2.311   1.896
12934SOL    HW140634   3.101   2.346   1.900
12934SOL    HW240635   2.961   2.380   1.854
12935SOL     OW40636  10.327   7.879  10.330
12935SOL    HW140637  10.291   7.830  10.256
12935SOL    HW240638  10.307   7.824  10.406
12936SOL     OW40639   4.709   5.451   7.747
12936SOL    HW140640   4.727   5.364   7.782
12936SOL    HW240641   4.614   5.453   7.734
12937SOL     OW40642  10.677  12.561   9.612
12937SOL    HW140643  10.633  12.485   9.573
12937SOL    HW240644  10.725  12.601   9.539
12938SOL     OW40645  11.827   0.160   8.303
12938SOL    HW140646  11.818   0.187   8.394
12938SOL    HW240647  11.913   0.191   8.277
12939SOL     OW40648   2.567   6.516   6.922
12939SOL    HW140649   2.662   6.510   6.913
12939SOL    HW240650   2.537   6.425   6.923
12940SOL     OW40651   9.584   3.739   4.070
12940SOL    HW140652   9.625   3.680   4.133
12940SOL    HW240653   9.586   3.691   3.987
12941SOL     OW40654  10.711   6.231   5.189
12941SOL    HW140655  10.750   6.315   5.214
12941SOL    HW240656  10.740   6.217   5.099
12942SOL     OW40657  11.809  13.881  11.054
12942SOL    HW140658  11.840  13.816  11.116
12942SOL    HW240659  11.875  13.882  10.985
12943SOL     OW40660   3.084  10.059   1.432
12943SOL    HW140661   3.052   9.974   1.462
12943SOL    HW240662   3.015  10.121   1.456
12944SOL     OW40663  13.274   9.476   9.934
12944SOL    HW140664  13.274   9.548   9.997
12944SOL    HW240665  13.345   9.496   9.874
12945SOL     OW40666   2.133   9.871   1.768
12945SOL    HW140667   2.105   9.779   1.773
12945SOL    HW240668   2.225   9.867   1.742
12946SOL     OW40669  14.739  11.855   7.273
12946SOL    HW140670  14.791  11.780   7.302
12946SOL    HW240671  14.793  11.898   7.207
12947SOL     OW40672  13.077  11.770   5.367
12947SOL    HW140673  13.137  11.752   5.294
12947SOL    HW240674  13.120  11.840   5.416
12948SOL     OW40675  10.379  10.791  10.472
12948SOL    HW140676  10.412  10.710  10.433
12948SOL    HW240677  10.454  10.851  10.470
12949SOL     OW40678   7.302   1.287   3.227
12949SOL    HW140679   7.347   1.360   3.185
12949SOL    HW240680   7.369   1.220   3.238
12950SOL     OW40681   6.809   3.786   1.253
12950SOL    HW140682   6.860   3.800   1.173
12950SOL    HW240683   6.751   3.861   1.258
12951SOL     OW40684  13.871   6.289   9.813
12951SOL    HW140685  13.909   6.247   9.890
12951SOL    HW240686  13.946   6.308   9.756
12952SOL     OW40687   6.317   8.406   0.674
12952SOL    HW140688   6.262   8.347   0.727
12952SOL    HW240689   6.292   8.386   0.583
12953SOL     OW40690  11.264   6.211   1.879
12953SOL    HW140691  11.320   6.134   1.872
12953SOL    HW240692  11.295   6.256   1.958
12954SOL     OW40693   1.108   7.361  14.817
12954SOL    HW140694   1.121   7.446  14.858
12954SOL    HW240695   1.015   7.357  14.798
12955SOL     OW40696   2.167  11.669   6.948
12955SOL    HW140697   2.085  11.693   6.992
12955SOL    HW240698   2.230  11.736   6.977
12956SOL     OW40699  10.629   3.895   7.650
12956SOL    HW140700  10.557   3.935   7.601
12956SOL    HW240701  10.615   3.923   7.741
12957SOL     OW40702   9.681   0.374  14.372
12957SOL    HW140703   9.634   0.457  14.366
12957SOL    HW240704   9.746   0.379  14.301
12958SOL     OW40705   6.196  13.338   5.778
12958SOL    HW140706   6.284  13.300   5.771
12958SOL    HW240707   6.139  13.272   5.738
12959SOL     OW40708  11.474   5.487   4.039
12959SOL    HW140709  11.462   5.439   3.957
12959SOL    HW240710  11.501   5.420   4.102
12960SOL     OW40711   9.544  12.167   5.949
12960SOL    HW140712   9.475  12.102   5.940
12960SOL    HW240713   9.570  12.187   5.859
12961SOL     OW40714  14.320   1.804   9.286
12961SOL    HW140715  14.392   1.758   9.328
12961SOL    HW240716  14.303   1.753   9.206
12962SOL     OW40717   4.975  14.334   1.023
12962SOL    HW140718   5.029  14.412   1.013
12962SOL    HW240719   5.028  14.263   0.987
12963SOL     OW40720   9.340   2.232   9.524
12963SOL    HW140721   9.279   2.251   9.452
12963SOL    HW240722   9.289   2.178   9.584
12964SOL     OW40723   9.997  11.845   0.655
12964SOL    HW140724   9.902  11.851   0.650
12964SOL    HW240725  10.013  11.762   0.699
12965SOL     OW40726   6.245   6.009   8.664
12965SOL    HW140727   6.174   6.073   8.663
12965SOL    HW240728   6.322   6.057   8.695
12966SOL     OW40729  11.254   8.563  10.220
12966SOL    HW140730  11.197   8.635  10.248
12966SOL    HW240731  11.342   8.601  10.220
12967SOL     OW40732   1.398  12.216   2.643
12967SOL    HW140733   1.469  12.232   2.581
12967SOL    HW240734   1.355  12.301   2.652
12968SOL     OW40735   5.626   9.127   4.453
12968SOL    HW140736   5.693   9.191   4.476
12968SOL    HW240737   5.589   9.159   4.371
12969SOL     OW40738   6.017   8.123  12.806
12969SOL    HW140739   5.981   8.108  12.893
12969SOL    HW240740   6.075   8.198  12.817
12970SOL     OW40741   0.226  10.798  13.309
12970SOL    HW140742   0.286  10.809  13.383
12970SOL    HW240743   0.207  10.705  13.307
12971SOL     OW40744   2.384  14.095   7.435
12971SOL    HW140745   2.354  14.184   7.415
12971SOL    HW240746   2.428  14.066   7.355
12972SOL     OW40747  10.668  12.141   9.567
12972SOL    HW140748  10.644  12.188   9.647
12972SOL    HW240749  10.590  12.091   9.544
12973SOL     OW40750   3.434  14.377   3.775
12973SOL    HW140751   3.500  14.309   3.762
12973SOL    HW240752   3.356  14.345   3.729
12974SOL     OW40753   1.018  14.246   4.404
12974SOL    HW140754   0.979  14.258   4.317
12974SOL    HW240755   0.982  14.318   4.456
12975SOL     OW40756   0.499  14.122   9.378
12975SOL    HW140757   0.546  14.115   9.295
12975SOL    HW240758   0.537  14.053   9.432
12976SOL     OW40759  11.911   1.183   3.679
12976SOL    HW140760  11.885   1.135   3.758
12976SOL    HW240761  11.951   1.115   3.623
12977SOL     OW40762  14.546  10.125   7.547
12977SOL    HW140763  14.615  10.188   7.530
12977SOL    HW240764  14.584  10.064   7.610
12978SOL     OW40765   1.763  14.365   2.289
12978SOL    HW140766   1.718  14.332   2.366
12978SOL    HW240767   1.846  14.401   2.322
12979SOL     OW40768   8.250  10.072   7.369
12979SOL    HW140769   8.265  10.016   7.292
12979SOL    HW240770   8.266  10.161   7.337
12980SOL     OW40771   8.438   8.025  12.723
12980SOL    HW140772   8.475   8.028  12.635
12980SOL    HW240773   8.514   8.018  12.780
12981SOL     OW40774   6.193  10.659   3.572
12981SOL    HW140775   6.121  10.606   3.540
12981SOL    HW240776   6.161  10.749   3.567
12982SOL     OW40777   5.483  14.217   4.083
12982SOL    HW140778   5.404  14.271   4.086
12982SOL    HW240779   5.549  14.268   4.129
12983SOL     OW40780  10.615  13.085  14.374
12983SOL    HW140781  10.620  13.004  14.322
12983SOL    HW240782  10.683  13.075  14.440
12984SOL     OW40783   3.769   9.844  11.851
12984SOL    HW140784   3.766   9.767  11.908
12984SOL    HW240785   3.743   9.917  11.907
12985SOL     OW40786   0.053  11.011  12.426
12985SOL    HW140787  14.850  11.048  12.386
12985SOL    HW240788   0.120  11.019  12.359
12986SOL     OW40789   2.158  12.492  12.092
12986SOL    HW140790   2.079  12.527  12.135
12986SOL    HW240791   2.127  12.415  12.045
12987SOL     OW40792  12.396   2.051   6.677
12987SOL    HW140793  12.388   2.037   6.583
12987SOL    HW240794  12.313   2.092   6.703
12988SOL     OW40795  11.428   5.906  10.575
12988SOL    HW140796  11.514   5.877  10.545
12988SOL    HW240797  11.397   5.834  10.630
12989SOL     OW40798   7.390   8.018  10.641
12989SOL    HW140799   7.394   8.076  10.565
12989SOL    HW240800   7.364   7.933  10.604
12990SOL     OW40801   2.212   9.019   3.677
12990SOL    HW140802   2.179   9.066   3.601
12990SOL    HW240803   2.165   8.936   3.677
12991SOL     OW40804   4.450   2.913   9.412
12991SOL    HW140805   4.398   2.914   9.492
12991SOL    HW240806   4.526   2.968   9.432
12992SOL     OW40807   3.947   5.432   7.301
12992SOL    HW140808   3.863   5.459   7.338
12992SOL    HW240809   3.950   5.474   7.215
12993SOL     OW40810   8.354   4.307   5.977
12993SOL    HW140811   8.323   4.396   5.964
12993SOL    HW240812   8.419   4.293   5.907
12994SOL     OW40813   3.506   6.230   2.409
12994SOL    HW140814   3.424   6.200   2.450
12994SOL    HW240815   3.542   6.293   2.472
12995SOL     OW40816   1.834  13.391   0.569
12995SOL    HW140817   1.789  13.387   0.485
12995SOL    HW240818   1.851  13.485   0.582
12996SOL     OW40819   3.170  10.806   4.898
12996SOL    HW140820   3.153  10.834   4.988
12996SOL    HW240821   3.090  10.829   4.851
12997SOL     OW40822   5.600   4.181  12.661
12997SOL    HW140823   5.536   4.148  12.598
12997SOL    HW240824   5.551   4.241  12.716
12998SOL     OW40825  11.726   0.714   3.564
12998SOL    HW140826  11.724   0.724   3.659
12998SOL    HW240827  11.667   0.641   3.546
12999SOL     OW40828   2.158   8.731  10.651
12999SOL    HW140829   2.222   8.772  10.710
12999SOL    HW240830   2.212   8.685  10.587
13000SOL     OW40831  14.190  13.112   4.707
13000SOL    HW140832  14.110  13.148   4.669
13000SOL    HW240833  14.213  13.039   4.648
13001SOL     OW40834  12.630   5.032  12.303
13001SOL    HW140835  12.612   4.975  12.378
13001SOL    HW240836  12.549   5.031  12.252
13002SOL     OW40837  10.282   9.196   1.995
13002SOL    HW140838  10.285   9.197   1.899
13002SOL    HW240839  10.327   9.276   2.021
13003SOL     OW40840  14.475   2.965  10.114
13003SOL    HW140841  14.516   2.892  10.068
13003SOL    HW240842  14.503   2.955  10.205
13004SOL     OW40843  10.480   1.605  12.221
13004SOL    HW140844  10.541   1.657  12.168
13004SOL    HW240845  10.461   1.661  12.296
13005SOL     OW40846   6.602   7.643   0.120
13005SOL    HW140847   6.611   7.651   0.025
13005SOL    HW240848   6.683   7.678   0.155
13006SOL     OW40849   0.813   8.465  13.487
13006SOL    HW140850   0.826   8.371  13.497
13006SOL    HW240851   0.721   8.474  13.462
13007SOL     OW40852  13.843   3.337   7.068
13007SOL    HW140853  13.842   3.383   6.984
13007SOL    HW240854  13.776   3.381   7.120
13008SOL     OW40855   4.395   2.063   1.652
13008SOL    HW140856   4.409   2.010   1.731
13008SOL    HW240857   4.365   2.147   1.685
13009SOL     OW40858  10.287   2.968  14.140
13009SOL    HW140859  10.227   2.997  14.071
13009SOL    HW240860  10.348   2.910  14.096
13010SOL     OW40861  13.208   9.449   3.972
13010SOL    HW140862  13.154   9.502   4.030
13010SOL    HW240863  13.172   9.361   3.980
13011SOL     OW40864   4.892   3.912   3.918
13011SOL    HW140865   4.929   3.824   3.910
13011SOL    HW240866   4.939   3.951   3.992
13012SOL     OW40867   1.104  12.118  13.994
13012SOL    HW140868   1.121  12.105  14.088
13012SOL    HW240869   1.118  12.032  13.955
13013SOL     OW40870   3.667   1.212  11.505
13013SOL    HW140871   3.617   1.150  11.557
13013SOL    HW240872   3.736   1.158  11.464
13014SOL     OW40873   6.212   9.264   8.086
13014SOL    HW140874   6.136   9.207   8.073
13014SOL    HW240875   6.195   9.340   8.030
13015SOL     OW40876   5.474   6.192   2.665
13015SOL    HW140877   5.531   6.147   2.603
13015SOL    HW240878   5.513   6.174   2.750
13016SOL     OW40879   7.500  12.423   6.409
13016SOL    HW140880   7.541  12.481   6.345
13016SOL    HW240881   7.531  12.336   6.385
13017SOL     OW40882   2.004   2.040  12.098
13017SOL    HW140883   2.092   2.014  12.126
13017SOL    HW240884   1.948   2.019  12.173
13018SOL     OW40885   9.817   0.195   4.631
13018SOL    HW140886   9.912   0.206   4.634
13018SOL    HW240887   9.802   0.139   4.555
13019SOL     OW40888   2.683   2.602   6.515
13019SOL    HW140889   2.747   2.673   6.526
13019SOL    HW240890   2.601   2.647   6.496
13020SOL     OW40891   1.586   6.988   6.943
13020SOL    HW140892   1.612   6.980   7.035
13020SOL    HW240893   1.491   6.976   6.944
13021SOL     OW40894  13.022   2.382  11.107
13021SOL    HW140895  13.106   2.396  11.063
13021SOL    HW240896  12.959   2.375  11.035
13022SOL     OW40897   4.585   6.168   4.963
13022SOL    HW140898   4.539   6.096   4.921
13022SOL    HW240899   4.663   6.128   5.002
13023SOL     OW40900   3.397   8.110  13.742
13023SOL    HW140901   3.306   8.104  13.713
13023SOL    HW240902   3.448   8.115  13.661
13024SOL     OW40903   7.054  10.236   5.357
13024SOL    HW140904   7.050  10.195   5.270
13024SOL    HW240905   6.972  10.284   5.364
13025SOL     OW40906   0.215   9.050   6.164
13025SOL    HW140907   0.270   9.032   6.240
13025SOL    HW240908   0.276   9.077   6.096
13026SOL     OW40909   0.738   7.565   7.819
13026SOL    HW140910   0.737   7.605   7.732
13026SOL    HW240911   0.653   7.521   7.826
13027SOL     OW40912   9.347   6.062   6.785
13027SOL    HW140913   9.357   5.997   6.716
13027SOL    HW240914   9.282   6.124   6.750
13028SOL     OW40915   1.075  13.663  11.953
13028SOL    HW140916   1.009  13.608  11.913
13028SOL    HW240917   1.156  13.642  11.906
13029SOL     OW40918   2.277  11.214   2.792
13029SOL    HW140919   2.225  11.141   2.826
13029SOL    HW240920   2.255  11.219   2.700
13030SOL     OW40921   6.465   9.562  10.056
13030SOL    HW140922   6.510   9.537   9.976
13030SOL    HW240923   6.410   9.636  10.031
13031SOL     OW40924   5.053  11.954   9.604
13031SOL    HW140925   5.114  12.015   9.565
13031SOL    HW240926   5.108  11.884   9.640
13032SOL     OW40927   6.883  11.884  10.197
13032SOL    HW140928   6.968  11.869  10.156
13032SOL    HW240929   6.896  11.964  10.249
13033SOL     OW40930   3.935  13.390  10.009
13033SOL    HW140931   3.864  13.453   9.996
13033SOL    HW240932   3.942  13.382  10.104
13034SOL     OW40933  13.208  14.459   0.306
13034SOL    HW140934  13.152  14.391   0.346
13034SOL    HW240935  13.216  14.526   0.374
13035SOL     OW40936   1.911   2.763  12.469
13035SOL    HW140937   1.831   2.812  12.488
13035SOL    HW240938   1.909   2.688  12.529
13036SOL     OW40939  12.792  12.216   5.128
13036SOL    HW140940  12.748  12.195   5.046
13036SOL    HW240941  12.772  12.309   5.143
13037SOL     OW40942  12.508   1.223  13.702
13037SOL    HW140943  12.441   1.253  13.640
13037SOL    HW240944  12.483   1.262  13.786
13038SOL     OW40945  11.148  10.248   9.592
13038SOL    HW140946  11.171  10.245   9.685
13038SOL    HW240947  11.119  10.159   9.572
13039SOL     OW40948   2.385   1.755   2.488
13039SOL    HW140949   2.427   1.672   2.512
13039SOL    HW240950   2.299   1.729   2.454
13040SOL     OW40951   2.050   2.310   8.083
13040SOL    HW140952   2.037   2.368   8.158
13040SOL    HW240953   2.021   2.360   8.008
13041SOL     OW40954   6.962   0.635   4.714
13041SOL    HW140955   6.946   0.573   4.643
13041SOL    HW240956   6.945   0.584   4.794
13042SOL     OW40957   9.990  13.360  14.595
13042SOL    HW140958   9.933  13.395  14.663
13042SOL    HW240959  10.049  13.301  14.642
13043SOL     OW40960   4.199   4.095   7.771
13043SOL    HW140961   4.136   4.161   7.740
13043SOL    HW240962   4.283   4.142   7.775
13044SOL     OW40963   7.707   0.535   2.455
13044SOL    HW140964   7.733   0.455   2.501
13044SOL    HW240965   7.630   0.509   2.405
13045SOL     OW40966   2.481   3.691   3.959
13045SOL    HW140967   2.494   3.785   3.972
13045SOL    HW240968   2.559   3.661   3.914
13046SOL     OW40969   0.028   5.813   2.383
13046SOL    HW140970   0.099   5.752   2.364
13046SOL    HW240971   0.073   5.895   2.405
13047SOL     OW40972   3.925   1.071  10.251
13047SOL    HW140973   4.002   1.036  10.296
13047SOL    HW240974   3.897   1.001  10.192
13048SOL     OW40975   3.802  11.728   6.840
13048SOL    HW140976   3.804  11.760   6.750
13048SOL    HW240977   3.771  11.802   6.892
13049SOL     OW40978   4.007   3.135   8.442
13049SOL    HW140979   3.994   3.165   8.532
13049SOL    HW240980   4.094   3.169   8.418
13050SOL     OW40981   9.189  11.489   7.735
13050SOL    HW140982   9.160  11.563   7.788
13050SOL    HW240983   9.160  11.511   7.646
13051SOL     OW40984  10.082   4.582   7.311
13051SOL    HW140985  10.028   4.611   7.237
13051SOL    HW240986  10.020   4.574   7.383
13052SOL     OW40987  12.796  14.372  12.368
13052SOL    HW140988  12.815  14.429  12.442
13052SOL    HW240989  12.824  14.422  12.291
13053SOL     OW40990   2.794   2.947  11.417
13053SOL    HW140991   2.876   2.996  11.413
13053SOL    HW240992   2.785   2.907  11.330
13054SOL     OW40993   0.034  14.123  11.428
13054SOL    HW140994   0.049  14.181  11.503
13054SOL    HW240995   0.071  14.039  11.455
13055SOL     OW40996  11.210  12.132  10.599
13055SOL    HW140997  11.288  12.147  10.652
13055SOL    HW240998  11.183  12.043  10.621
13056SOL     OW40999   7.371  14.844   5.812
13056SOL    HW141000   7.338  14.797   5.889
13056SOL    HW241001   7.338   0.057   5.822
13057SOL     OW41002   1.112  14.564   7.857
13057SOL    HW141003   1.050  14.606   7.917
13057SOL    HW241004   1.101  14.610   7.774
13058SOL     OW41005   3.577  10.342   9.624
13058SOL    HW141006   3.594  10.319   9.715
13058SOL    HW241007   3.579  10.438   9.623
13059SOL     OW41008   1.616   9.862   3.924
13059SOL    HW141009   1.573   9.841   4.007
13059SOL    HW241010   1.613   9.958   3.918
13060SOL     OW41011   0.986  11.307  12.282
13060SOL    HW141012   1.067  11.289  12.331
13060SOL    HW241013   0.979  11.234  12.221
13061SOL     OW41014   4.328   6.137  13.172
13061SOL    HW141015   4.388   6.105  13.240
13061SOL    HW241016   4.335   6.232  13.177
13062SOL     OW41017   2.043   3.410   7.499
13062SOL    HW141018   2.108   3.477   7.520
13062SOL    HW241019   2.064   3.384   7.409
13063SOL     OW41020   8.869   2.476   6.627
13063SOL    HW141021   8.857   2.382   6.642
13063SOL    HW241022   8.848   2.516   6.712
13064SOL     OW41023  12.763  10.728   0.220
13064SOL    HW141024  12.746  10.635   0.206
13064SOL    HW241025  12.687  10.759   0.270
13065SOL     OW41026   7.720   2.340  13.620
13065SOL    HW141027   7.814   2.342  13.602
13065SOL    HW241028   7.680   2.390  13.549
13066SOL     OW41029   6.732  11.419  11.659
13066SOL    HW141030   6.820  11.384  11.673
13066SOL    HW241031   6.744  11.490  11.596
13067SOL     OW41032   2.800   9.979   5.226
13067SOL    HW141033   2.716   9.966   5.270
13067SOL    HW241034   2.781  10.040   5.155
13068SOL     OW41035   3.908   6.272   4.752
13068SOL    HW141036   3.897   6.366   4.738
13068SOL    HW241037   3.970   6.266   4.825
13069SOL     OW41038  14.243  12.465   7.798
13069SOL    HW141039  14.289  12.549   7.791
13069SOL    HW241040  14.297  12.403   7.748
13070SOL     OW41041   3.335   9.492  10.434
13070SOL    HW141042   3.241   9.497  10.416
13070SOL    HW241043   3.376   9.533  10.359
13071SOL     OW41044   1.918  12.787   0.496
13071SOL    HW141045   1.965  12.721   0.547
13071SOL    HW241046   1.863  12.736   0.437
13072SOL     OW41047   6.136   6.279   4.541
13072SOL    HW141048   6.229   6.274   4.517
13072SOL    HW241049   6.105   6.359   4.497
13073SOL     OW41050  11.229   9.795   9.670
13073SOL    HW141051  11.249   9.824   9.759
13073SOL    HW241052  11.224   9.700   9.676
13074SOL     OW41053   2.745  14.285  11.158
13074SOL    HW141054   2.690  14.228  11.211
13074SOL    HW241055   2.759  14.363  11.212
13075SOL     OW41056  11.007   6.593   0.748
13075SOL    HW141057  10.943   6.522   0.744
13075SOL    HW241058  11.092   6.550   0.733
13076SOL     OW41059   9.413  12.253   9.040
13076SOL    HW141060   9.342  12.280   8.982
13076SOL    HW241061   9.416  12.158   9.032
13077SOL     OW41062   5.067   1.862  12.017
13077SOL    HW141063   5.089   1.800  12.085
13077SOL    HW241064   4.988   1.906  12.048
13078SOL     OW41065  10.268   1.009   8.013
13078SOL    HW141066  10.307   1.027   8.098
13078SOL    HW241067  10.174   1.010   8.029
13079SOL     OW41068   2.436   5.298  13.752
13079SOL    HW141069   2.493   5.324  13.825
13079SOL    HW241070   2.471   5.213  13.724
13080SOL     OW41071   3.814   6.850   9.148
13080SOL    HW141072   3.840   6.768   9.106
13080SOL    HW241073   3.737   6.827   9.200
13081SOL     OW41074  11.483   5.851   7.611
13081SOL    HW141075  11.557   5.870   7.669
13081SOL    HW241076  11.473   5.929   7.557
13082SOL     OW41077   3.370   3.196  14.157
13082SOL    HW141078   3.290   3.164  14.114
13082SOL    HW241079   3.441   3.155  14.109
13083SOL     OW41080   4.293   3.330  13.173
13083SOL    HW141081   4.377   3.298  13.139
13083SOL    HW241082   4.311   3.421  13.198
13084SOL     OW41083  11.841  11.428   6.223
13084SOL    HW141084  11.753  11.395   6.244
13084SOL    HW241085  11.900  11.356   6.244
13085SOL     OW41086   5.625   6.704   1.455
13085SOL    HW141087   5.668   6.674   1.376
13085SOL    HW241088   5.649   6.640   1.522
13086SOL     OW41089   2.349   6.910   6.151
13086SOL    HW141090   2.352   6.815   6.150
13086SOL    HW241091   2.322   6.933   6.240
13087SOL     OW41092   1.583   7.923  10.853
13087SOL    HW141093   1.659   7.928  10.910
13087SOL    HW241094   1.585   8.005  10.803
13088SOL     OW41095   6.718   8.949  10.656
13088SOL    HW141096   6.736   8.892  10.582
13088SOL    HW241097   6.696   8.890  10.728
13089SOL     OW41098   0.610  11.508   7.099
13089SOL    HW141099   0.681  11.560   7.136
13089SOL    HW241100   0.630  11.418   7.126
13090SOL     OW41101  13.797  13.643  14.579
13090SOL    HW141102  13.745  13.642  14.659
13090SOL    HW241103  13.751  13.704  14.520
13091SOL     OW41104   5.850  11.274   0.773
13091SOL    HW141105   5.864  11.198   0.717
13091SOL    HW241106   5.913  11.263   0.845
13092SOL     OW41107   8.443  12.768  14.201
13092SOL    HW141108   8.440  12.816  14.118
13092SOL    HW241109   8.522  12.800  14.244
13093SOL     OW41110  11.620  12.547   0.546
13093SOL    HW141111  11.661  12.490   0.611
13093SOL    HW241112  11.691  12.567   0.484
13094SOL     OW41113   2.357   5.402   3.930
13094SOL    HW141114   2.269   5.408   3.966
13094SOL    HW241115   2.413   5.442   3.997
13095SOL     OW41116   4.983  10.774  13.055
13095SOL    HW141117   4.998  10.845  12.993
13095SOL    HW241118   5.070  10.755  13.091
13096SOL     OW41119   6.085   0.480   2.266
13096SOL    HW141120   5.994   0.463   2.290
13096SOL    HW241121   6.128   0.503   2.348
13097SOL     OW41122   4.048  11.164  12.243
13097SOL    HW141123   3.993  11.242  12.240
13097SOL    HW241124   4.082  11.154  12.154
13098SOL     OW41125   3.357   5.221   4.009
13098SOL    HW141126   3.340   5.291   4.071
13098SOL    HW241127   3.315   5.251   3.928
13099SOL     OW41128   8.338  10.674  14.013
13099SOL    HW141129   8.384  10.656  14.095
13099SOL    HW241130   8.279  10.747  14.034
13100SOL     OW41131  10.205   9.342  11.647
13100SOL    HW141132  10.152   9.377  11.718
13100SOL    HW241133  10.295   9.368  11.669
13101SOL     OW41134   9.685   2.374  14.001
13101SOL    HW141135   9.590   2.364  13.990
13101SOL    HW241136   9.715   2.286  14.024
13102SOL     OW41137   3.541   1.747   1.173
13102SOL    HW141138   3.552   1.675   1.112
13102SOL    HW241139   3.448   1.747   1.196
13103SOL     OW41140  13.445   3.705   7.497
13103SOL    HW141141  13.363   3.668   7.530
13103SOL    HW241142  13.450   3.792   7.535
13104SOL     OW41143   8.071   8.012  13.613
13104SOL    HW141144   8.147   8.003  13.556
13104SOL    HW241145   8.107   8.035  13.699
13105SOL     OW41146   7.725  11.706  14.760
13105SOL    HW141147   7.721  11.801  14.767
13105SOL    HW241148   7.815  11.684  14.785
13106SOL     OW41149  14.589  10.229   6.263
13106SOL    HW141150  14.647  10.282   6.318
13106SOL    HW241151  14.620  10.140   6.275
13107SOL     OW41152  11.020  12.823   1.106
13107SOL    HW141153  11.110  12.856   1.098
13107SOL    HW241154  11.025  12.756   1.173
13108SOL     OW41155  10.820   7.885  12.617
13108SOL    HW141156  10.832   7.808  12.562
13108SOL    HW241157  10.903   7.932  12.612
13109SOL     OW41158  10.978  11.476   8.654
13109SOL    HW141159  10.923  11.544   8.692
13109SOL    HW241160  10.956  11.475   8.561
13110SOL     OW41161  11.874   8.261  11.434
13110SOL    HW141162  11.858   8.356  11.429
13110SOL    HW241163  11.934   8.244  11.362
13111SOL     OW41164   3.034   2.930   0.636
13111SOL    HW141165   2.965   2.969   0.582
13111SOL    HW241166   3.116   2.953   0.591
13112SOL     OW41167   7.033  10.311   2.855
13112SOL    HW141168   6.942  10.282   2.855
13112SOL    HW241169   7.028  10.405   2.838
13113SOL     OW41170   5.961   1.546   2.765
13113SOL    HW141171   5.966   1.454   2.791
13113SOL    HW241172   6.004   1.593   2.836
13114SOL     OW41173   6.068   1.842  11.974
13114SOL    HW141174   6.140   1.840  12.037
13114SOL    HW241175   6.034   1.931  11.978
13115SOL     OW41176   7.230  14.141   8.978
13115SOL    HW141177   7.197  14.061   8.939
13115SOL    HW241178   7.189  14.211   8.927
13116SOL     OW41179  10.439  12.435   3.315
13116SOL    HW141180  10.369  12.382   3.277
13116SOL    HW241181  10.394  12.514   3.346
13117SOL     OW41182   4.579  12.146   2.278
13117SOL    HW141183   4.635  12.118   2.350
13117SOL    HW241184   4.544  12.064   2.242
13118SOL     OW41185  10.743  10.018   8.380
13118SOL    HW141186  10.726  10.088   8.317
13118SOL    HW241187  10.838  10.022   8.394
13119SOL     OW41188   4.248   0.825   5.032
13119SOL    HW141189   4.219   0.874   4.955
13119SOL    HW241190   4.225   0.734   5.013
13120SOL     OW41191   7.253   3.611   9.783
13120SOL    HW141192   7.295   3.556   9.849
13120SOL    HW241193   7.302   3.693   9.786
13121SOL     OW41194   7.820   0.353   5.139
13121SOL    HW141195   7.801   0.288   5.207
13121SOL    HW241196   7.735   0.368   5.097
13122SOL     OW41197  10.802  11.742  11.655
13122SOL    HW141198  10.766  11.794  11.583
13122SOL    HW241199  10.895  11.733  11.633
13123SOL     OW41200   6.914   2.443  13.148
13123SOL    HW141201   6.979   2.379  13.178
13123SOL    HW241202   6.907   2.506  13.220
13124SOL     OW41203   8.909   1.296   1.572
13124SOL    HW141204   8.858   1.221   1.542
13124SOL    HW241205   8.888   1.366   1.511
13125SOL     OW41206  10.947   4.283   7.825
13125SOL    HW141207  10.993   4.328   7.896
13125SOL    HW241208  10.994   4.308   7.746
13126SOL     OW41209   3.488   6.740   4.643
13126SOL    HW141210   3.435   6.666   4.672
13126SOL    HW241211   3.561   6.742   4.704
13127SOL     OW41212  13.621   4.737   7.657
13127SOL    HW141213  13.644   4.826   7.630
13127SOL    HW241214  13.560   4.707   7.590
13128SOL     OW41215   3.340   0.127   9.359
13128SOL    HW141216   3.366   0.036   9.346
13128SOL    HW241217   3.418   0.170   9.395
13129SOL     OW41218   3.279   7.662   6.041
13129SOL    HW141219   3.229   7.591   6.079
13129SOL    HW241220   3.310   7.713   6.116
13130SOL     OW41221  10.803   3.247  11.301
13130SOL    HW141222  10.763   3.298  11.230
13130SOL    HW241223  10.752   3.270  11.379
13131SOL     OW41224   6.919   5.346   4.361
13131SOL    HW141225   6.940   5.344   4.268
13131SOL    HW241226   6.914   5.254   4.387
13132SOL     OW41227  14.553   9.785   0.267
13132SOL    HW141228  14.511   9.810   0.349
13132SOL    HW241229  14.519   9.697   0.248
13133SOL     OW41230   6.907   4.745   9.514
13133SOL    HW141231   6.987   4.796   9.514
13133SOL    HW241232   6.921   4.677   9.448
13134SOL     OW41233   5.509   8.345  14.668
13134SOL    HW141234   5.443   8.283  14.636
13134SOL    HW241235   5.523   8.404  14.595
13135SOL     OW41236  14.485   4.505   1.133
13135SOL    HW141237  14.419   4.458   1.185
13135SOL    HW241238  14.436   4.544   1.061
13136SOL     OW41239   1.654   5.323  11.434
13136SOL    HW141240   1.621   5.263  11.367
13136SOL    HW241241   1.575   5.365  11.469
13137SOL     OW41242  10.492  14.096  13.447
13137SOL    HW141243  10.495  14.188  13.419
13137SOL    HW241244  10.583  14.072  13.461
13138SOL     OW41245   0.468  14.684   6.373
13138SOL    HW141246   0.481  14.597   6.335
13138SOL    HW241247   0.527  14.687   6.448
13139SOL     OW41248   9.461   9.359   8.065
13139SOL    HW141249   9.401   9.360   8.140
13139SOL    HW241250   9.434   9.434   8.012
13140SOL     OW41251   2.207   7.548  10.458
13140SOL    HW141252   2.118   7.579  10.440
13140SOL    HW241253   2.196   7.485  10.529
13141SOL     OW41254   9.043   5.799   5.717
13141SOL    HW141255   8.967   5.846   5.751
13141SOL    HW241256   9.006   5.727   5.666
13142SOL     OW41257   3.980   9.664   3.249
13142SOL    HW141258   4.053   9.724   3.264
13142SOL    HW241259   3.955   9.634   3.336
13143SOL     OW41260   3.703   9.213   0.215
13143SOL    HW141261   3.718   9.160   0.137
13143SOL    HW241262   3.693   9.302   0.182
13144SOL     OW41263   2.793   1.068  11.615
13144SOL    HW141264   2.749   1.021  11.686
13144SOL    HW241265   2.827   1.148  11.656
13145SOL     OW41266   5.999   1.076   9.755
13145SOL    HW141267   6.015   1.009   9.689
13145SOL    HW241268   5.938   1.137   9.714
13146SOL     OW41269  11.677   3.418   6.823
13146SOL    HW141270  11.630   3.344   6.862
13146SOL    HW241271  11.736   3.448   6.892
13147SOL     OW41272   4.935   4.674   8.669
13147SOL    HW141273   4.841   4.686   8.683
13147SOL    HW241274   4.963   4.618   8.741
13148SOL     OW41275   2.339  14.872   8.447
13148SOL    HW141276   2.323  14.869   8.541
13148SOL    HW241277   2.416  14.816   8.434
13149SOL     OW41278   5.473  10.429   1.359
13149SOL    HW141279   5.446  10.514   1.392
13149SOL    HW241280   5.565  10.440   1.334
13150SOL     OW41281  10.458  12.198   4.827
13150SOL    HW141282  10.366  12.218   4.848
13150SOL    HW241283  10.489  12.149   4.903
13151SOL     OW41284   6.206  14.127  11.886
13151SOL    HW141285   6.176  14.213  11.857
13151SOL    HW241286   6.172  14.066  11.821
13152SOL     OW41287   7.903   1.856  11.433
13152SOL    HW141288   7.986   1.861  11.385
13152SOL    HW241289   7.841   1.902  11.377
13153SOL     OW41290   0.163   5.613  14.748
13153SOL    HW141291   0.079   5.614  14.793
13153SOL    HW241292   0.197   5.702  14.760
13154SOL     OW41293   1.651  11.890  12.524
13154SOL    HW141294   1.735  11.923  12.492
13154SOL    HW241295   1.591  11.964  12.514
13155SOL     OW41296   2.221   3.914   3.299
13155SOL    HW141297   2.130   3.890   3.315
13155SOL    HW241298   2.223   4.009   3.307
13156SOL     OW41299  10.282  14.595  12.304
13156SOL    HW141300  10.299  14.640  12.222
13156SOL    HW241301  10.255  14.664  12.365
13157SOL     OW41302   8.927   6.421   1.586
13157SOL    HW141303   8.854   6.430   1.525
13157SOL    HW241304   8.938   6.327   1.598
13158SOL     OW41305  12.566   9.012   5.536
13158SOL    HW141306  12.529   9.082   5.482
13158SOL    HW241307  12.496   8.987   5.595
13159SOL     OW41308  13.943   1.547   8.723
13159SOL    HW141309  13.923   1.604   8.648
13159SOL    HW241310  13.912   1.596   8.799
13160SOL     OW41311   3.546  11.699   3.199
13160SOL    HW141312   3.595  11.773   3.235
13160SOL    HW241313   3.606  11.660   3.135
13161SOL     OW41314  11.134   2.160  12.040
13161SOL    HW141315  11.183   2.085  12.074
13161SOL    HW241316  11.189   2.195  11.970
13162SOL     OW41317   6.213  11.696   4.333
13162SOL    HW141318   6.202  11.601   4.339
13162SOL    HW241319   6.214  11.714   4.239
13163SOL     OW41320   5.716   9.266  13.433
13163SOL    HW141321   5.644   9.214  13.398
13163SOL    HW241322   5.791   9.206  13.434
13164SOL     OW41323   4.129   8.542   9.271
13164SOL    HW141324   4.193   8.490   9.320
13164SOL    HW241325   4.046   8.496   9.284
13165SOL     OW41326  11.572  11.825  11.908
13165SOL    HW141327  11.637  11.758  11.930
13165SOL    HW241328  11.624  11.903  11.888
13166SOL     OW41329   2.439  13.308   9.799
13166SOL    HW141330   2.530  13.319   9.771
13166SOL    HW241331   2.391  13.285   9.720
13167SOL     OW41332   8.843   8.359  12.517
13167SOL    HW141333   8.888   8.299  12.576
13167SOL    HW241334   8.751   8.334  12.522
13168SOL     OW41335   5.120   5.318   9.101
13168SOL    HW141336   5.094   5.229   9.076
13168SOL    HW241337   5.156   5.356   9.021
13169SOL     OW41338   1.156   5.984   7.261
13169SOL    HW141339   1.223   5.917   7.275
13169SOL    HW241340   1.201   6.067   7.279
13170SOL     OW41341   0.674   4.628   5.203
13170SOL    HW141342   0.729   4.706   5.203
13170SOL    HW241343   0.735   4.555   5.189
13171SOL     OW41344   1.503  14.379  14.160
13171SOL    HW141345   1.496  14.357  14.067
13171SOL    HW241346   1.417  14.357  14.196
13172SOL     OW41347   2.756   4.655   3.890
13172SOL    HW141348   2.707   4.703   3.823
13172SOL    HW241349   2.728   4.695   3.973
13173SOL     OW41350   2.105   1.670   0.762
13173SOL    HW141351   2.172   1.736   0.783
13173SOL    HW241352   2.155   1.590   0.745
13174SOL     OW41353   7.816   9.569   7.609
13174SOL    HW141354   7.846   9.633   7.673
13174SOL    HW241355   7.861   9.487   7.633
13175SOL     OW41356   1.979  11.514  13.408
13175SOL    HW141357   1.911  11.560  13.360
13175SOL    HW241358   1.945  11.425  13.418
13176SOL     OW41359   5.874  10.759   2.278
13176SOL    HW141360   5.887  10.682   2.223
13176SOL    HW241361   5.884  10.727   2.368
13177SOL     OW41362   9.566  10.649  10.663
13177SOL    HW141363   9.483  10.655  10.614
13177SOL    HW241364   9.606  10.568  10.631
13178SOL     OW41365   6.806   4.143  10.546
13178SOL    HW141366   6.746   4.216  10.558
13178SOL    HW241367   6.893   4.183  10.544
13179SOL     OW41368   6.833   3.112   6.557
13179SOL    HW141369   6.775   3.167   6.504
13179SOL    HW241370   6.838   3.157   6.641
13180SOL     OW41371   2.991   9.850   7.228
13180SOL    HW141372   2.996   9.944   7.246
13180SOL    HW241373   3.037   9.840   7.145
13181SOL     OW41374   3.228   5.402   7.945
13181SOL    HW141375   3.291   5.370   8.010
13181SOL    HW241376   3.283   5.437   7.874
13182SOL     OW41377   4.265   3.420   3.443
13182SOL    HW141378   4.350   3.465   3.440
13182SOL    HW241379   4.284   3.335   3.484
13183SOL     OW41380   0.341   7.036  12.923
13183SOL    HW141381   0.279   6.980  12.877
13183SOL    HW241382   0.306   7.124  12.914
13184SOL     OW41383   0.579   6.663   8.640
13184SOL    HW141384   0.657   6.668   8.696
13184SOL    HW241385   0.582   6.575   8.603
13185SOL     OW41386  11.716  14.495   8.354
13185SOL    HW141387  11.743  14.585   8.335
13185SOL    HW241388  11.792  14.441   8.331
13186SOL     OW41389  13.425   5.499   1.163
13186SOL    HW141390  13.484   5.548   1.106
13186SOL    HW241391  13.344   5.550   1.165
13187SOL     OW41392   9.502  12.442  14.862
13187SOL    HW141393   9.433  12.443   0.052
13187SOL    HW241394   9.455  12.432  14.779
13188SOL     OW41395   4.355   7.684  10.075
13188SOL    HW141396   4.440   7.700  10.117
13188SOL    HW241397   4.313   7.769  10.071
13189SOL     OW41398  12.223  10.512   0.149
13189SOL    HW141399  12.277  10.514   0.228
13189SOL    HW241400  12.270  10.566   0.086
13190SOL     OW41401  13.248   1.416  10.020
13190SOL    HW141402  13.281   1.505  10.013
13190SOL    HW241403  13.159   1.426  10.054
13191SOL     OW41404  10.174   1.718  13.316
13191SOL    HW141405  10.262   1.684  13.335
13191SOL    HW241406  10.186   1.772  13.238
13192SOL     OW41407   5.625   2.828   2.503
13192SOL    HW141408   5.649   2.829   2.411
13192SOL    HW241409   5.708   2.822   2.550
13193SOL     OW41410  10.280   9.269   9.933
13193SOL    HW141411  10.355   9.240   9.984
13193SOL    HW241412  10.204   9.243   9.985
13194SOL     OW41413   4.909   2.043   7.841
13194SOL    HW141414   4.949   2.076   7.761
13194SOL    HW241415   4.871   2.120   7.883
13195SOL     OW41416   3.583   7.953   0.308
13195SOL    HW141417   3.632   7.982   0.231
13195SOL    HW241418   3.496   7.991   0.297
13196SOL     OW41419   4.307   6.866   7.987
13196SOL    HW141420   4.366   6.894   7.917
13196SOL    HW241421   4.251   6.942   8.004
13197SOL     OW41422   3.498  14.353  11.504
13197SOL    HW141423   3.554  14.429  11.514
13197SOL    HW241424   3.548  14.293  11.449
13198SOL     OW41425   4.659   7.418   3.057
13198SOL    HW141426   4.567   7.422   3.082
13198SOL    HW241427   4.694   7.345   3.108
13199SOL     OW41428  14.817  11.742   4.897
13199SOL    HW141429  14.780  11.803   4.961
13199SOL    HW241430  14.746  11.727   4.834
13200SOL     OW41431   7.532   6.915  13.085
13200SOL    HW141432   7.526   6.822  13.103
13200SOL    HW241433   7.538   6.956  13.171
13201SOL     OW41434  14.750   6.036   2.932
13201SOL    HW141435  14.697   6.113   2.953
13201SOL    HW241436  14.724   6.012   2.843
13202SOL     OW41437   2.136   3.310   3.106
13202SOL    HW141438   2.116   3.398   3.076
13202SOL    HW241439   2.212   3.320   3.163
13203SOL     OW41440   6.849   5.324  12.452
13203SOL    HW141441   6.936   5.297  12.481
13203SOL    HW241442   6.860   5.414  12.423
13204SOL     OW41443  11.157   6.800   7.301
13204SOL    HW141444  11.116   6.886   7.294
13204SOL    HW241445  11.250   6.817   7.286
13205SOL     OW41446  12.077   7.514  13.278
13205SOL    HW141447  12.103   7.510  13.370
13205SOL    HW241448  12.078   7.607  13.256
13206SOL     OW41449  12.568   2.430   7.522
13206SOL    HW141450  12.603   2.352   7.477
13206SOL    HW241451  12.557   2.402   7.612
13207SOL     OW41452   2.204   5.712   5.961
13207SOL    HW141453   2.230   5.623   5.986
13207SOL    HW241454   2.286   5.755   5.937
13208SOL     OW41455   7.632   9.242   1.378
13208SOL    HW141456   7.726   9.224   1.373
13208SOL    HW241457   7.602   9.237   1.288
13209SOL     OW41458   0.918   3.432  11.341
13209SOL    HW141459   0.856   3.469  11.278
13209SOL    HW241460   0.943   3.507  11.396
13210SOL     OW41461   3.425  13.704  13.278
13210SOL    HW141462   3.381  13.721  13.195
13210SOL    HW241463   3.499  13.764  13.279
13211SOL     OW41464  11.421  11.091   3.564
13211SOL    HW141465  11.450  11.000   3.567
13211SOL    HW241466  11.495  11.139   3.526
13212SOL     OW41467   2.054  10.829   6.512
13212SOL    HW141468   2.071  10.808   6.421
13212SOL    HW241469   2.119  10.895   6.534
13213SOL     OW41470   7.753   3.581   5.056
13213SOL    HW141471   7.697   3.637   5.001
13213SOL    HW241472   7.830   3.635   5.074
13214SOL     OW41473   0.268   6.428  11.093
13214SOL    HW141474   0.271   6.334  11.113
13214SOL    HW241475   0.202   6.463  11.153
13215SOL     OW41476   2.379  14.526  11.037
13215SOL    HW141477   2.336  14.595  10.986
13215SOL    HW241478   2.322  14.515  11.114
13216SOL     OW41479  12.770   0.948   5.029
13216SOL    HW141480  12.721   0.866   5.016
13216SOL    HW241481  12.748   1.001   4.953
13217SOL     OW41482  14.739   1.339   8.965
13217SOL    HW141483  14.773   1.264   9.013
13217SOL    HW241484  14.817   1.382   8.930
13218SOL     OW41485   2.756  14.052   9.043
13218SOL    HW141486   2.838  14.012   9.013
13218SOL    HW241487   2.693  13.980   9.044
13219SOL     OW41488  11.561   1.139   8.642
13219SOL    HW141489  11.542   1.169   8.731
13219SOL    HW241490  11.553   1.217   8.588
13220SOL     OW41491  10.664   5.826  11.746
13220SOL    HW141492  10.637   5.845  11.657
13220SOL    HW241493  10.752   5.864  11.754
13221SOL     OW41494   2.848  14.131  14.873
13221SOL    HW141495   2.804  14.182  14.805
13221SOL    HW241496   2.941  14.135  14.851
13222SOL     OW41497   8.028   7.572   2.628
13222SOL    HW141498   8.048   7.662   2.652
13222SOL    HW241499   8.034   7.570   2.533
13223SOL     OW41500  11.536   4.065   2.157
13223SOL    HW141501  11.582   4.140   2.120
13223SOL    HW241502  11.602   3.995   2.159
13224SOL     OW41503  14.547   5.297  10.324
13224SOL    HW141504  14.528   5.215  10.371
13224SOL    HW241505  14.570   5.269  10.235
13225SOL     OW41506   6.637   5.045   5.067
13225SOL    HW141507   6.719   5.040   5.018
13225SOL    HW241508   6.657   5.102   5.141
13226SOL     OW41509   3.004   3.837   2.661
13226SOL    HW141510   3.023   3.895   2.587
13226SOL    HW241511   3.089   3.826   2.705
13227SOL     OW41512   4.030   0.951   1.080
13227SOL    HW141513   3.983   0.992   1.008
13227SOL    HW241514   3.972   0.961   1.156
13228SOL     OW41515   4.585  13.484   3.623
13228SOL    HW141516   4.523  13.423   3.584
13228SOL    HW241517   4.637  13.431   3.684
13229SOL     OW41518  13.534   3.136   4.395
13229SOL    HW141519  13.504   3.056   4.352
13229SOL    HW241520  13.475   3.204   4.364
13230SOL     OW41521   9.202   2.471  11.900
13230SOL    HW141522   9.211   2.527  11.977
13230SOL    HW241523   9.267   2.504  11.838
13231SOL     OW41524   1.885  11.784   0.091
13231SOL    HW141525   1.885  11.832   0.174
13231SOL    HW241526   1.868  11.693   0.116
13232SOL     OW41527   6.531   4.505   5.613
13232SOL    HW141528   6.485   4.508   5.697
13232SOL    HW241529   6.481   4.565   5.557
13233SOL     OW41530   4.626  11.084   2.731
13233SOL    HW141531   4.651  11.045   2.647
13233SOL    HW241532   4.588  11.012   2.780
13234SOL     OW41533  11.687   8.259   4.931
13234SOL    HW141534  11.776   8.280   4.958
13234SOL    HW241535  11.640   8.242   5.012
13235SOL     OW41536   4.060   8.863   2.794
13235SOL    HW141537   4.039   8.794   2.731
13235SOL    HW241538   4.005   8.844   2.870
13236SOL     OW41539  13.209  14.226   3.959
13236SOL    HW141540  13.145  14.218   3.887
13236SOL    HW241541  13.253  14.142   3.962
13237SOL     OW41542   7.984   0.355   7.334
13237SOL    HW141543   7.897   0.390   7.351
13237SOL    HW241544   7.975   0.307   7.252
13238SOL     OW41545   8.492  13.528   5.790
13238SOL    HW141546   8.426  13.470   5.828
13238SOL    HW241547   8.570  13.514   5.843
13239SOL     OW41548  10.096  10.165   3.081
13239SOL    HW141549  10.096  10.117   3.163
13239SOL    HW241550  10.187  10.165   3.052
13240SOL     OW41551   3.701  11.059   8.309
13240SOL    HW141552   3.613  11.051   8.270
13240SOL    HW241553   3.760  11.060   8.234
13241SOL     OW41554   4.301   1.369   9.970
13241SOL    HW141555   4.374   1.347   9.912
13241SOL    HW241556   4.242   1.421   9.916
13242SOL     OW41557   9.395  14.259   3.795
13242SOL    HW141558   9.366  14.232   3.708
13242SOL    HW241559   9.425  14.178   3.836
13243SOL     OW41560   1.802  12.767   6.618
13243SOL    HW141561   1.835  12.846   6.575
13243SOL    HW241562   1.842  12.769   6.705
13244SOL     OW41563  14.196   5.453   4.185
13244SOL    HW141564  14.251   5.418   4.115
13244SOL    HW241565  14.193   5.547   4.168
13245SOL     OW41566   3.267  13.511   4.019
13245SOL    HW141567   3.284  13.525   4.112
13245SOL    HW241568   3.197  13.573   3.998
13246SOL     OW41569   8.203   4.783  11.095
13246SOL    HW141570   8.285   4.785  11.044
13246SOL    HW241571   8.194   4.871  11.131
13247SOL     OW41572   1.808   7.235   9.650
13247SOL    HW141573   1.784   7.327   9.635
13247SOL    HW241574   1.826   7.230   9.744
13248SOL     OW41575   1.440  14.288   5.850
13248SOL    HW141576   1.402  14.203   5.827
13248SOL    HW241577   1.465  14.279   5.941
13249SOL     OW41578  12.289   2.551   0.005
13249SOL    HW141579  12.272   2.561   0.098
13249SOL    HW241580  12.217   2.497  14.849
13250SOL     OW41581   3.481   5.110   6.265
13250SOL    HW141582   3.453   5.131   6.176
13250SOL    HW241583   3.572   5.137   6.269
13251SOL     OW41584  14.723   2.267   5.650
13251SOL    HW141585  14.765   2.181   5.646
13251SOL    HW241586  14.771   2.313   5.719
13252SOL     OW41587   5.134   3.491  11.716
13252SOL    HW141588   5.184   3.493  11.634
13252SOL    HW241589   5.052   3.448  11.693
13253SOL     OW41590   9.380   1.966  10.581
13253SOL    HW141591   9.323   1.944  10.508
13253SOL    HW241592   9.328   1.948  10.659
13254SOL     OW41593   7.332  10.153  13.299
13254SOL    HW141594   7.421  10.169  13.267
13254SOL    HW241595   7.291  10.239  13.297
13255SOL     OW41596  14.412   6.125   9.028
13255SOL    HW141597  14.495   6.167   9.051
13255SOL    HW241598  14.353   6.147   9.101
13256SOL     OW41599   5.300   5.508   8.534
13256SOL    HW141600   5.240   5.492   8.460
13256SOL    HW241601   5.377   5.456   8.513
13257SOL     OW41602   5.361  14.311   2.707
13257SOL    HW141603   5.341  14.383   2.768
13257SOL    HW241604   5.282  14.304   2.653
13258SOL     OW41605  13.790   7.590   3.887
13258SOL    HW141606  13.739   7.609   3.966
13258SOL    HW241607  13.735   7.530   3.837
13259SOL     OW41608   5.797   7.628   0.810
13259SOL    HW141609   5.868   7.563   0.814
13259SOL    HW241610   5.722   7.584   0.850
13260SOL     OW41611  13.581   2.967  10.619
13260SOL    HW141612  13.604   2.880  10.587
13260SOL    HW241613  13.519   2.951  10.690
13261SOL     OW41614   2.712   3.392  14.491
13261SOL    HW141615   2.746   3.447  14.561
13261SOL    HW241616   2.775   3.321  14.483
13262SOL     OW41617   1.661   6.041   4.538
13262SOL    HW141618   1.718   5.987   4.484
13262SOL    HW241619   1.709   6.053   4.620
13263SOL     OW41620   5.121   8.227  12.572
13263SOL    HW141621   5.131   8.133  12.589
13263SOL    HW241622   5.098   8.265  12.656
13264SOL     OW41623   6.084   1.555   9.740
13264SOL    HW141624   6.050   1.535   9.827
13264SOL    HW241625   6.129   1.475   9.712
13265SOL     OW41626  13.022   9.080   1.394
13265SOL    HW141627  12.943   9.030   1.372
13265SOL    HW241628  13.088   9.049   1.332
13266SOL     OW41629   9.475   8.429  12.251
13266SOL    HW141630   9.484   8.334  12.241
13266SOL    HW241631   9.388   8.442  12.288
13267SOL     OW41632  14.064   4.878  13.686
13267SOL    HW141633  14.039   4.786  13.675
13267SOL    HW241634  14.041   4.899  13.776
13268SOL     OW41635  13.007   3.364  13.516
13268SOL    HW141636  12.935   3.396  13.461
13268SOL    HW241637  12.978   3.278  13.546
13269SOL     OW41638   5.532   2.842   0.420
13269SOL    HW141639   5.607   2.879   0.467
13269SOL    HW241640   5.571   2.787   0.352
13270SOL     OW41641  12.602  10.737   1.456
13270SOL    HW141642  12.539  10.809   1.447
13270SOL    HW241643  12.688  10.780   1.453
13271SOL     OW41644   6.335   9.559  11.778
13271SOL    HW141645   6.402   9.514  11.828
13271SOL    HW241646   6.365   9.554  11.687
13272SOL     OW41647   4.670   4.288  11.714
13272SOL    HW141648   4.678   4.230  11.790
13272SOL    HW241649   4.637   4.370  11.750
13273SOL     OW41650  13.730   4.218   9.556
13273SOL    HW141651  13.823   4.207   9.539
13273SOL    HW241652  13.712   4.310   9.535
13274SOL     OW41653  10.198  12.629   5.753
13274SOL    HW141654  10.249  12.577   5.691
13274SOL    HW241655  10.187  12.714   5.709
13275SOL     OW41656  13.705   3.063  12.743
13275SOL    HW141657  13.735   3.085  12.831
13275SOL    HW241658  13.775   3.008  12.707
13276SOL     OW41659   7.831   1.161   7.181
13276SOL    HW141660   7.906   1.219   7.169
13276SOL    HW241661   7.825   1.112   7.100
13277SOL     OW41662  13.475   6.920   7.138
13277SOL    HW141663  13.394   6.952   7.179
13277SOL    HW241664  13.447   6.847   7.083
13278SOL     OW41665  12.835  14.335   7.779
13278SOL    HW141666  12.794  14.416   7.750
13278SOL    HW241667  12.910  14.363   7.831
13279SOL     OW41668   3.650   4.462  12.781
13279SOL    HW141669   3.597   4.423  12.712
13279SOL    HW241670   3.740   4.461  12.747
13280SOL     OW41671   7.220   5.834  11.923
13280SOL    HW141672   7.138   5.849  11.969
13280SOL    HW241673   7.194   5.792  11.841
13281SOL     OW41674   4.224  11.452   4.767
13281SOL    HW141675   4.196  11.533   4.809
13281SOL    HW241676   4.150  11.392   4.780
13282SOL     OW41677  10.151   8.001   2.677
13282SOL    HW141678  10.228   8.057   2.688
13282SOL    HW241679  10.122   8.018   2.587
13283SOL     OW41680   1.293   5.935   0.543
13283SOL    HW141681   1.379   5.977   0.534
13283SOL    HW241682   1.230   6.003   0.519
13284SOL     OW41683   6.571  14.592   6.213
13284SOL    HW141684   6.561  14.610   6.307
13284SOL    HW241685   6.536  14.669   6.169
13285SOL     OW41686  12.723   3.156   1.214
13285SOL    HW141687  12.801   3.111   1.181
13285SOL    HW241688  12.676   3.183   1.135
13286SOL     OW41689  11.488  10.952   6.624
13286SOL    HW141690  11.556  11.011   6.591
13286SOL    HW241691  11.528  10.864   6.617
13287SOL     OW41692   6.374  12.017  10.894
13287SOL    HW141693   6.443  11.954  10.919
13287SOL    HW241694   6.307  11.964  10.852
13288SOL     OW41695   7.396   1.047   0.248
13288SOL    HW141696   7.400   1.005   0.161
13288SOL    HW241697   7.483   1.084   0.260
13289SOL     OW41698   1.074  14.699   6.308
13289SOL    HW141699   1.134  14.668   6.240
13289SOL    HW241700   0.987  14.690   6.269
13290SOL     OW41701  13.511   8.733  13.060
13290SOL    HW141702  13.425   8.734  13.102
13290SOL    HW241703  13.541   8.823  13.063
13291SOL     OW41704   1.242   4.864   3.149
13291SOL    HW141705   1.319   4.880   3.204
13291SOL    HW241706   1.248   4.770   3.127
13292SOL     OW41707   6.569  10.815   5.161
13292SOL    HW141708   6.573  10.910   5.148
13292SOL    HW241709   6.590  10.779   5.075
13293SOL     OW41710   2.833  11.382   8.455
13293SOL    HW141711   2.809  11.322   8.525
13293SOL    HW241712   2.905  11.338   8.409
13294SOL     OW41713  14.684   5.225   2.575
13294SOL    HW141714  14.743   5.243   2.648
13294SOL    HW241715  14.611   5.285   2.588
13295SOL     OW41716  11.088  12.897   3.702
13295SOL    HW141717  11.124  12.878   3.615
13295SOL    HW241718  11.113  12.822   3.756
13296SOL     OW41719   3.821   8.547   7.965
13296SOL    HW141720   3.741   8.543   8.017
13296SOL    HW241721   3.869   8.623   7.999
13297SOL     OW41722   0.562  13.738   9.117
13297SOL    HW141723   0.534  13.742   9.025
13297SOL    HW241724   0.608  13.655   9.125
13298SOL     OW41725  12.503   8.120   6.840
13298SOL    HW141726  12.527   8.204   6.881
13298SOL    HW241727  12.494   8.059   6.913
13299SOL     OW41728  10.833  11.174   9.752
13299SOL    HW141729  10.748  11.177   9.796
13299SOL    HW241730  10.812  11.167   9.659
13300SOL     OW41731   1.279   3.231  13.839
13300SOL    HW141732   1.369   3.218  13.870
13300SOL    HW241733   1.289   3.268  13.751
13301SOL     OW41734   3.648   3.574   2.637
13301SOL    HW141735   3.707   3.514   2.682
13301SOL    HW241736   3.648   3.543   2.546
13302SOL     OW41737  13.283   2.264   0.822
13302SOL    HW141738  13.212   2.285   0.881
13302SOL    HW241739  13.268   2.172   0.798
13303SOL     OW41740   9.820  10.673   0.238
13303SOL    HW141741   9.892  10.638   0.185
13303SOL    HW241742   9.775  10.735   0.181
13304SOL     OW41743   9.350   2.531   3.668
13304SOL    HW141744   9.313   2.451   3.705
13304SOL    HW241745   9.279   2.568   3.615
13305SOL     OW41746  12.177   4.848  10.498
13305SOL    HW141747  12.145   4.765  10.533
13305SOL    HW241748  12.254   4.824  10.446
13306SOL     OW41749   0.811   6.812   6.406
13306SOL    HW141750   0.870   6.779   6.338
13306SOL    HW241751   0.844   6.900   6.426
13307SOL     OW41752  10.317  14.479  12.945
13307SOL    HW141753  10.406  14.447  12.958
13307SOL    HW241754  10.298  14.530  13.024
13308SOL     OW41755   6.819   0.846   7.608
13308SOL    HW141756   6.780   0.823   7.523
13308SOL    HW241757   6.909   0.812   7.603
13309SOL     OW41758   3.919   7.556  13.856
13309SOL    HW141759   3.825   7.577  13.851
13309SOL    HW241760   3.922   7.471  13.900
13310SOL     OW41761  11.410   1.789   3.817
13310SOL    HW141762  11.345   1.758   3.881
13310SOL    HW241763  11.494   1.759   3.852
13311SOL     OW41764   7.675  10.529   0.491
13311SOL    HW141765   7.605  10.463   0.488
13311SOL    HW241766   7.649  10.595   0.427
13312SOL     OW41767  12.989   3.598   0.461
13312SOL    HW141768  12.943   3.631   0.539
13312SOL    HW241769  13.043   3.671   0.432
13313SOL     OW41770   8.247   6.784   8.389
13313SOL    HW141771   8.284   6.795   8.302
13313SOL    HW241772   8.187   6.710   8.381
13314SOL     OW41773   2.685   3.675   1.107
13314SOL    HW141774   2.691   3.705   1.016
13314SOL    HW241775   2.713   3.750   1.158
13315SOL     OW41776   3.977   2.140   1.709
13315SOL    HW141777   3.905   2.078   1.720
13315SOL    HW241778   3.944   2.222   1.746
13316SOL     OW41779  10.594   2.256   5.640
13316SOL    HW141780  10.687   2.272   5.658
13316SOL    HW241781  10.579   2.166   5.671
13317SOL     OW41782   9.427   6.628   1.175
13317SOL    HW141783   9.410   6.677   1.255
13317SOL    HW241784   9.359   6.657   1.114
13318SOL     OW41785  14.174  12.035   5.399
13318SOL    HW141786  14.172  11.949   5.441
13318SOL    HW241787  14.111  12.087   5.449
13319SOL     OW41788   2.918   4.099  11.015
13319SOL    HW141789   2.835   4.107  11.062
13319SOL    HW241790   2.942   4.189  10.993
13320SOL     OW41791   9.455   2.146   0.005
13320SOL    HW141792   9.518   2.162   0.076
13320SOL    HW241793   9.415   2.231  14.865
13321SOL     OW41794   0.270   5.209   0.336
13321SOL    HW141795   0.217   5.129   0.332
13321SOL    HW241796   0.344   5.186   0.393
13322SOL     OW41797   5.088   9.164  14.248
13322SOL    HW141798   5.142   9.108  14.193
13322SOL    HW241799   5.019   9.106  14.281
13323SOL     OW41800  12.169   8.818   8.755
13323SOL    HW141801  12.257   8.781   8.765
13323SOL    HW241802  12.171   8.899   8.806
13324SOL     OW41803  12.528   1.195   3.782
13324SOL    HW141804  12.620   1.198   3.810
13324SOL    HW241805  12.482   1.157   3.856
13325SOL     OW41806   3.918   3.499   8.014
13325SOL    HW141807   3.872   3.436   8.070
13325SOL    HW241808   3.851   3.528   7.952
13326SOL     OW41809   6.056   8.729   3.303
13326SOL    HW141810   6.075   8.812   3.346
13326SOL    HW241811   6.123   8.720   3.236
13327SOL     OW41812  13.515   3.669   3.310
13327SOL    HW141813  13.483   3.691   3.223
13327SOL    HW241814  13.460   3.595   3.338
13328SOL     OW41815   4.540   5.320  12.640
13328SOL    HW141816   4.464   5.296  12.693
13328SOL    HW241817   4.518   5.406  12.603
13329SOL     OW41818  10.513  11.646  14.579
13329SOL    HW141819  10.559  11.577  14.627
13329SOL    HW241820  10.549  11.727  14.615
13330SOL     OW41821  14.103   0.732  14.850
13330SOL    HW141822  14.149   0.697   0.050
13330SOL    HW241823  14.156   0.704  14.775
13331SOL     OW41824  11.491   3.584  13.169
13331SOL    HW141825  11.525   3.637  13.240
13331SOL    HW241826  11.567   3.535  13.137
13332SOL     OW41827  13.569   1.604   4.987
13332SOL    HW141828  13.484   1.642   5.011
13332SOL    HW241829  13.551   1.554   4.907
13333SOL     OW41830   2.958   8.409   1.684
13333SOL    HW141831   3.020   8.389   1.614
13333SOL    HW241832   2.888   8.345   1.674
13334SOL     OW41833   8.056   6.137   5.133
13334SOL    HW141834   8.010   6.213   5.169
13334SOL    HW241835   8.146   6.166   5.121
13335SOL     OW41836   5.353  11.211   9.350
13335SOL    HW141837   5.288  11.216   9.280
13335SOL    HW241838   5.333  11.284   9.408
13336SOL     OW41839   1.335   8.887   3.583
13336SOL    HW141840   1.332   8.859   3.674
13336SOL    HW241841   1.334   8.982   3.586
13337SOL     OW41842   6.113   4.569  10.758
13337SOL    HW141843   6.128   4.475  10.752
13337SOL    HW241844   6.021   4.581  10.735
13338SOL     OW41845   0.829   2.555   1.011
13338SOL    HW141846   0.805   2.581   1.100
13338SOL    HW241847   0.828   2.637   0.961
13339SOL     OW41848   3.502  10.003   6.432
13339SOL    HW141849   3.518   9.942   6.504
13339SOL    HW241850   3.421   9.973   6.392
13340SOL     OW41851   1.875   0.336   3.567
13340SOL    HW141852   1.871   0.428   3.595
13340SOL    HW241853   1.785   0.304   3.574
13341SOL     OW41854   3.342   9.637   0.011
13341SOL    HW141855   3.333   9.549  14.851
13341SOL    HW241856   3.380   9.623   0.098
13342SOL     OW41857   9.288   7.301  12.525
13342SOL    HW141858   9.236   7.380  12.539
13342SOL    HW241859   9.224   7.232  12.513
13343SOL     OW41860   8.128   8.124  11.746
13343SOL    HW141861   8.097   8.155  11.661
13343SOL    HW241862   8.072   8.169  11.809
13344SOL     OW41863  10.077  12.120  14.605
13344SOL    HW141864  10.110  12.030  14.609
13344SOL    HW241865  10.119  12.156  14.527
13345SOL     OW41866   6.463  11.414   7.170
13345SOL    HW141867   6.415  11.361   7.106
13345SOL    HW241868   6.520  11.351   7.215
13346SOL     OW41869   0.233   0.292   1.114
13346SOL    HW141870   0.185   0.256   1.189
13346SOL    HW241871   0.182   0.370   1.088
13347SOL     OW41872   5.947  12.482   6.658
13347SOL    HW141873   6.019  12.453   6.714
13347SOL    HW241874   5.968  12.573   6.636
13348SOL     OW41875   6.856   0.468  11.357
13348SOL    HW141876   6.886   0.429  11.275
13348SOL    HW241877   6.868   0.562  11.345
13349SOL     OW41878   2.882  12.269  12.196
13349SOL    HW141879   2.801  12.226  12.169
13349SOL    HW241880   2.951  12.222  12.151
13350SOL     OW41881   9.742   8.042   1.585
13350SOL    HW141882   9.829   8.045   1.625
13350SOL    HW241883   9.740   7.957   1.540
13351SOL     OW41884   2.572   9.907   6.837
13351SOL    HW141885   2.556   9.849   6.763
13351SOL    HW241886   2.573   9.995   6.798
13352SOL     OW41887   5.585  11.896  14.296
13352SOL    HW141888   5.578  11.801  14.291
13352SOL    HW241889   5.540  11.927  14.217
13353SOL     OW41890   7.661   8.365   0.308
13353SOL    HW141891   7.736   8.395   0.257
13353SOL    HW241892   7.687   8.278   0.339
13354SOL     OW41893   3.279   8.122   0.685
13354SOL    HW141894   3.264   8.179   0.761
13354SOL    HW241895   3.250   8.036   0.715
13355SOL     OW41896   2.056  10.939   7.685
13355SOL    HW141897   1.989  11.002   7.659
13355SOL    HW241898   2.025  10.855   7.651
13356SOL     OW41899  13.361   9.948  12.606
13356SOL    HW141900  13.305   9.871  12.611
13356SOL    HW241901  13.449   9.913  12.600
13357SOL     OW41902   3.122  11.096  14.346
13357SOL    HW141903   3.114  11.093  14.441
13357SOL    HW241904   3.153  11.184  14.326
13358SOL     OW41905   8.519  13.060  14.132
13358SOL    HW141906   8.434  13.090  14.164
13358SOL    HW241907   8.498  12.998  14.063
13359SOL     OW41908   1.424   9.570  14.202
13359SOL    HW141909   1.345   9.617  14.175
13359SOL    HW241910   1.426   9.491  14.147
13360SOL     OW41911   0.643   8.672   4.768
13360SOL    HW141912   0.560   8.630   4.745
13360SOL    HW241913   0.655   8.739   4.700
13361SOL     OW41914   7.588   0.505   9.446
13361SOL    HW141915   7.547   0.588   9.468
13361SOL    HW241916   7.578   0.452   9.525
13362SOL     OW41917  11.301   5.448   7.552
13362SOL    HW141918  11.319   5.428   7.460
13362SOL    HW241919  11.271   5.539   7.551
13363SOL     OW41920  10.535   2.759  14.777
13363SOL    HW141921  10.552   2.852  14.788
13363SOL    HW241922  10.449   2.755  14.735
13364SOL     OW41923   6.260   6.489   1.442
13364SOL    HW141924   6.253   6.584   1.447
13364SOL    HW241925   6.342   6.468   1.487
13365SOL     OW41926   5.962   3.662   5.006
13365SOL    HW141927   5.952   3.584   4.951
13365SOL    HW241928   6.006   3.631   5.085
13366SOL     OW41929  10.347  10.094   5.440
13366SOL    HW141930  10.374  10.020   5.386
13366SOL    HW241931  10.252  10.090   5.442
13367SOL     OW41932  11.749  10.826   0.644
13367SOL    HW141933  11.713  10.890   0.582
13367SOL    HW241934  11.839  10.857   0.660
13368SOL     OW41935   1.171   1.216   7.027
13368SOL    HW141936   1.258   1.186   7.000
13368SOL    HW241937   1.115   1.202   6.951
13369SOL     OW41938   3.405  13.108   5.946
13369SOL    HW141939   3.454  13.190   5.950
13369SOL    HW241940   3.323  13.130   5.904
13370SOL     OW41941  10.837   4.704   3.540
13370SOL    HW141942  10.751   4.747   3.547
13370SOL    HW241943  10.844   4.680   3.448
13371SOL     OW41944  14.798  12.576   5.798
13371SOL    HW141945  14.874  12.606   5.749
13371SOL    HW241946  14.722  12.610   5.750
13372SOL     OW41947  11.723   5.134   1.535
13372SOL    HW141948  11.703   5.125   1.628
13372SOL    HW241949  11.817   5.119   1.529
13373SOL     OW41950  10.386   9.319  11.175
13373SOL    HW141951  10.367   9.403  11.217
13373SOL    HW241952  10.305   9.269  11.183
13374SOL     OW41953   7.574   8.458  11.332
13374SOL    HW141954   7.655   8.422  11.295
13374SOL    HW241955   7.559   8.539  11.283
13375SOL     OW41956   5.008   3.725  13.513
13375SOL    HW141957   5.100   3.732  13.536
13375SOL    HW241958   4.976   3.649  13.563
13376SOL     OW41959   2.393   2.660  13.327
13376SOL    HW141960   2.487   2.680  13.328
13376SOL    HW241961   2.368   2.666  13.235
13377SOL     OW41962  12.783  12.866  12.083
13377SOL    HW141963  12.700  12.904  12.111
13377SOL    HW241964  12.845  12.939  12.084
13378SOL     OW41965   1.382   3.253   7.203
13378SOL    HW141966   1.438   3.269   7.279
13378SOL    HW241967   1.309   3.202   7.238
13379SOL     OW41968   2.025   2.629   2.314
13379SOL    HW141969   1.953   2.612   2.253
13379SOL    HW241970   1.982   2.655   2.395
13380SOL     OW41971   8.943   0.440  14.010
13380SOL    HW141972   8.949   0.468  14.101
13380SOL    HW241973   9.032   0.448  13.976
13381SOL     OW41974   0.828   0.116  13.185
13381SOL    HW141975   0.773   0.105  13.262
13381SOL    HW241976   0.913   0.083  13.211
13382SOL     OW41977  10.857  14.727  14.667
13382SOL    HW141978  10.927  14.711  14.731
13382SOL    HW241979  10.776  14.719  14.717
13383SOL     OW41980   5.731   1.556   8.383
13383SOL    HW141981   5.773   1.499   8.447
13383SOL    HW241982   5.703   1.498   8.313
13384SOL     OW41983   9.528  10.994   5.053
13384SOL    HW141984   9.527  10.925   4.986
13384SOL    HW241985   9.435  11.013   5.068
13385SOL     OW41986  10.963   7.187  10.274
13385SOL    HW141987  11.002   7.252  10.332
13385SOL    HW241988  10.943   7.235  10.194
13386SOL     OW41989   3.023   3.678   7.025
13386SOL    HW141990   3.007   3.584   7.011
13386SOL    HW241991   2.966   3.721   6.961
13387SOL     OW41992   0.966  12.889  10.422
13387SOL    HW141993   0.947  12.811  10.474
13387SOL    HW241994   1.028  12.859  10.355
13388SOL     OW41995   1.067   1.530   9.614
13388SOL    HW141996   1.003   1.479   9.664
13388SOL    HW241997   1.132   1.557   9.679
13389SOL     OW41998   5.725  11.370   9.878
13389SOL    HW141999   5.771  11.432   9.823
13389SOL    HW242000   5.725  11.288   9.829
13390SOL     OW42001   1.968   1.330  10.739
13390SOL    HW142002   2.026   1.351  10.665
13390SOL    HW242003   2.024   1.343  10.816
13391SOL     OW42004   3.544   2.578   6.086
13391SOL    HW142005   3.559   2.669   6.060
13391SOL    HW242006   3.583   2.526   6.016
13392SOL     OW42007   7.339  10.997   9.895
13392SOL    HW142008   7.342  10.907   9.862
13392SOL    HW242009   7.283  10.992   9.972
13393SOL     OW42010   9.566   8.991  13.209
13393SOL    HW142011   9.575   9.076  13.167
13393SOL    HW242012   9.549   8.930  13.137
13394SOL     OW42013   5.211   3.190  14.563
13394SOL    HW142014   5.247   3.104  14.541
13394SOL    HW242015   5.234   3.246  14.489
13395SOL     OW42016   6.660   4.465  10.973
13395SOL    HW142017   6.569   4.437  10.980
13395SOL    HW242018   6.710   4.383  10.969
13396SOL     OW42019   5.859   2.596   3.394
13396SOL    HW142020   5.766   2.583   3.414
13396SOL    HW242021   5.869   2.566   3.304
13397SOL     OW42022   4.167   4.718   5.975
13397SOL    HW142023   4.252   4.758   5.988
13397SOL    HW242024   4.124   4.723   6.060
13398SOL     OW42025  11.292   4.406   9.690
13398SOL    HW142026  11.361   4.433   9.629
13398SOL    HW242027  11.229   4.358   9.636
13399SOL     OW42028   5.294   7.357  14.586
13399SOL    HW142029   5.382   7.335  14.555
13399SOL    HW242030   5.236   7.303  14.532
13400SOL     OW42031   4.327  14.021   2.091
13400SOL    HW142032   4.266  13.968   2.040
13400SOL    HW242033   4.408  14.022   2.040
13401SOL     OW42034   1.403   9.583   4.731
13401SOL    HW142035   1.367   9.495   4.732
13401SOL    HW242036   1.450   9.589   4.647
13402SOL     OW42037   6.733  14.364   8.650
13402SOL    HW142038   6.716  14.299   8.718
13402SOL    HW242039   6.647  14.399   8.627
13403SOL     OW42040   3.767   6.478   0.393
13403SOL    HW142041   3.813   6.536   0.332
13403SOL    HW242042   3.759   6.531   0.473
13404SOL     OW42043   2.462   7.055   9.983
13404SOL    HW142044   2.392   7.015   9.931
13404SOL    HW242045   2.442   7.029  10.073
13405SOL     OW42046   9.842   1.364  12.732
13405SOL    HW142047   9.908   1.431  12.711
13405SOL    HW242048   9.890   1.281  12.728
13406SOL     OW42049   8.192  13.576   0.913
13406SOL    HW142050   8.155  13.659   0.883
13406SOL    HW242051   8.279  13.599   0.945
13407SOL     OW42052   0.012   0.303   5.959
13407SOL    HW142053   0.063   0.230   5.922
13407SOL    HW242054   0.071   0.378   5.953
13408SOL     OW42055   2.572  14.773   0.721
13408SOL    HW142056   2.579  14.710   0.650
13408SOL    HW242057   2.555  14.721   0.799
13409SOL     OW42058  11.340   3.957  10.807
13409SOL    HW142059  11.415   3.941  10.751
13409SOL    HW242060  11.353   4.046  10.841
13410SOL     OW42061   7.580   4.010   2.265
13410SOL    HW142062   7.651   3.946   2.255
13410SOL    HW242063   7.510   3.976   2.209
13411SOL     OW42064  10.984   0.099   7.598
13411SOL    HW142065  11.030   0.146   7.668
13411SOL    HW242066  11.039   0.111   7.521
13412SOL     OW42067  11.008   7.109   7.925
13412SOL    HW142068  11.063   7.176   7.885
13412SOL    HW242069  11.020   7.121   8.019
13413SOL     OW42070   8.729   5.390   8.738
13413SOL    HW142071   8.711   5.367   8.829
13413SOL    HW242072   8.649   5.432   8.707
13414SOL     OW42073  14.639  11.201  14.711
13414SOL    HW142074  14.628  11.288  14.675
13414SOL    HW242075  14.612  11.209  14.803
13415SOL     OW42076   0.331   5.025   3.697
13415SOL    HW142077   0.347   4.935   3.667
13415SOL    HW242078   0.236   5.034   3.693
13416SOL     OW42079   7.829  13.321  10.294
13416SOL    HW142080   7.798  13.231  10.288
13416SOL    HW242081   7.826  13.341  10.388
13417SOL     OW42082  12.261   3.278   8.239
13417SOL    HW142083  12.254   3.297   8.146
13417SOL    HW242084  12.347   3.236   8.249
13418SOL     OW42085   5.216   5.482   8.906
13418SOL    HW142086   5.157   5.557   8.901
13418SOL    HW242087   5.249   5.472   8.817
13419SOL     OW42088   9.555   0.839  13.982
13419SOL    HW142089   9.582   0.785  14.057
13419SOL    HW242090   9.460   0.838  13.984
13420SOL     OW42091   7.808   9.837   8.239
13420SOL    HW142092   7.745   9.895   8.282
13420SOL    HW242093   7.757   9.760   8.215
13421SOL     OW42094   4.402  13.204   9.807
13421SOL    HW142095   4.342  13.276   9.787
13421SOL    HW242096   4.351  13.125   9.790
13422SOL     OW42097   3.970   0.480  11.787
13422SOL    HW142098   4.001   0.442  11.704
13422SOL    HW242099   3.948   0.405  11.841
13423SOL     OW42100   2.120  10.301   8.826
13423SOL    HW142101   2.193  10.239   8.830
13423SOL    HW242102   2.087  10.293   8.736
13424SOL     OW42103   2.996   3.200   4.983
13424SOL    HW142104   2.932   3.270   4.995
13424SOL    HW242105   2.977   3.165   4.896
13425SOL     OW42106   4.969   3.855  10.002
13425SOL    HW142107   4.883   3.850   9.959
13425SOL    HW242108   5.023   3.906   9.941
13426SOL     OW42109   7.342   3.155  10.942
13426SOL    HW142110   7.425   3.174  10.986
13426SOL    HW242111   7.275   3.179  11.006
13427SOL     OW42112  13.698   5.030   9.871
13427SOL    HW142113  13.742   4.965   9.926
13427SOL    HW242114  13.766   5.094   9.851
13428SOL     OW42115   8.485   5.960   0.936
13428SOL    HW142116   8.492   5.904   1.013
13428SOL    HW242117   8.491   5.900   0.861
13429SOL     OW42118  10.223   6.592   4.480
13429SOL    HW142119  10.215   6.662   4.415
13429SOL    HW242120  10.310   6.603   4.517
13430SOL     OW42121   7.697   6.555   2.487
13430SOL    HW142122   7.765   6.497   2.521
13430SOL    HW242123   7.664   6.602   2.563
13431SOL     OW42124  14.383   7.417  14.176
13431SOL    HW142125  14.377   7.396  14.269
13431SOL    HW242126  14.297   7.396  14.140
13432SOL     OW42127   1.757   8.126   2.381
13432SOL    HW142128   1.832   8.085   2.339
13432SOL    HW242129   1.742   8.207   2.331
13433SOL     OW42130   7.076   8.489   1.084
13433SOL    HW142131   7.052   8.579   1.058
13433SOL    HW242132   7.002   8.436   1.055
13434SOL     OW42133   9.114   1.529   4.381
13434SOL    HW142134   9.135   1.440   4.409
13434SOL    HW242135   9.183   1.552   4.319
13435SOL     OW42136  10.583   6.785  14.101
13435SOL    HW142137  10.589   6.690  14.089
13435SOL    HW242138  10.674   6.814  14.108
13436SOL     OW42139   8.041  13.166   3.608
13436SOL    HW142140   8.013  13.236   3.668
13436SOL    HW242141   7.959  13.130   3.574
13437SOL     OW42142   2.603  10.292   0.354
13437SOL    HW142143   2.646  10.207   0.345
13437SOL    HW242144   2.546  10.282   0.430
13438SOL     OW42145   2.220  10.290  12.723
13438SOL    HW142146   2.228  10.296  12.627
13438SOL    HW242147   2.129  10.311  12.741
13439SOL     OW42148  12.394  11.827   5.457
13439SOL    HW142149  12.485  11.799   5.453
13439SOL    HW242150  12.369  11.842   5.366
13440SOL     OW42151   8.346   7.339   1.180
13440SOL    HW142152   8.305   7.255   1.201
13440SOL    HW242153   8.429   7.337   1.228
13441SOL     OW42154   2.938   8.886   0.547
13441SOL    HW142155   2.872   8.820   0.567
13441SOL    HW242156   2.894   8.947   0.487
13442SOL     OW42157   5.731   7.717  12.608
13442SOL    HW142158   5.686   7.755  12.533
13442SOL    HW242159   5.779   7.642  12.572
13443SOL     OW42160   5.957   1.657   0.347
13443SOL    HW142161   5.994   1.745   0.342
13443SOL    HW242162   5.909   1.655   0.429
13444SOL     OW42163   8.649  12.285   5.566
13444SOL    HW142164   8.617  12.218   5.626
13444SOL    HW242165   8.659  12.363   5.621
13445SOL     OW42166   9.273   5.920   3.441
13445SOL    HW142167   9.236   6.004   3.415
13445SOL    HW242168   9.353   5.912   3.388
13446SOL     OW42169   1.351   1.670   6.950
13446SOL    HW142170   1.357   1.583   6.990
13446SOL    HW242171   1.442   1.694   6.933
13447SOL     OW42172   9.587  14.637   6.048
13447SOL    HW142173   9.527  14.573   6.011
13447SOL    HW242174   9.673  14.593   6.045
13448SOL     OW42175   5.080   3.053   9.615
13448SOL    HW142176   4.994   3.093   9.627
13448SOL    HW242177   5.109   3.031   9.703
13449SOL     OW42178  10.603   1.052   0.186
13449SOL    HW142179  10.584   1.053   0.092
13449SOL    HW242180  10.623   1.143   0.208
13450SOL     OW42181  13.198   4.151   8.627
13450SOL    HW142182  13.168   4.221   8.686
13450SOL    HW242183  13.237   4.198   8.553
13451SOL     OW42184   1.193  14.614   0.289
13451SOL    HW142185   1.188  14.533   0.237
13451SOL    HW242186   1.275  14.655   0.262
13452SOL     OW42187   7.414  14.668   4.476
13452SOL    HW142188   7.481  14.661   4.544
13452SOL    HW242189   7.331  14.668   4.524
13453SOL     OW42190   7.833   3.021   8.263
13453SOL    HW142191   7.763   3.070   8.306
13453SOL    HW242192   7.909   3.033   8.320
13454SOL     OW42193   1.653   1.831   9.351
13454SOL    HW142194   1.674   1.921   9.325
13454SOL    HW242195   1.645   1.783   9.269
13455SOL     OW42196   8.430   2.011   1.471
13455SOL    HW142197   8.487   2.073   1.517
13455SOL    HW242198   8.343   2.052   1.475
13456SOL     OW42199  10.047  13.486   3.668
13456SOL    HW142200  10.119  13.538   3.632
13456SOL    HW242201  10.076  13.464   3.757
13457SOL     OW42202   3.203  12.339  11.374
13457SOL    HW142203   3.151  12.385  11.439
13457SOL    HW242204   3.229  12.257  11.416
13458SOL     OW42205   0.784   3.624   7.803
13458SOL    HW142206   0.876   3.617   7.827
13458SOL    HW242207   0.780   3.698   7.743
13459SOL     OW42208   8.136   4.363   2.093
13459SOL    HW142209   8.136   4.415   2.173
13459SOL    HW242210   8.218   4.386   2.049
13460SOL     OW42211   4.351   1.454  13.534
13460SOL    HW142212   4.394   1.412  13.608
13460SOL    HW242213   4.259   1.427  13.540
13461SOL     OW42214  12.428   9.548  10.745
13461SOL    HW142215  12.482   9.483  10.701
13461SOL    HW242216  12.461   9.551  10.835
13462SOL     OW42217   4.109  13.832  14.005
13462SOL    HW142218   4.142  13.871  13.924
13462SOL    HW242219   4.037  13.775  13.976
13463SOL     OW42220  10.208   7.822   0.243
13463SOL    HW142221  10.302   7.803   0.244
13463SOL    HW242222  10.183   7.824   0.335
13464SOL     OW42223   6.165  13.309   6.916
13464SOL    HW142224   6.105  13.356   6.974
13464SOL    HW242225   6.164  13.360   6.835
13465SOL     OW42226   7.410   3.126   1.251
13465SOL    HW142227   7.343   3.104   1.316
13465SOL    HW242228   7.395   3.219   1.232
13466SOL     OW42229   4.269   4.158  10.067
13466SOL    HW142230   4.224   4.234  10.105
13466SOL    HW242231   4.305   4.112  10.143
13467SOL     OW42232   6.417   6.893  11.311
13467SOL    HW142233   6.402   6.864  11.401
13467SOL    HW242234   6.385   6.982  11.308
13468SOL     OW42235  14.520  10.951   4.073
13468SOL    HW142236  14.573  10.974   4.150
13468SOL    HW242237  14.539  11.021   4.010
13469SOL     OW42238  12.902   8.469   4.527
13469SOL    HW142239  12.991   8.495   4.502
13469SOL    HW242240  12.879   8.399   4.466
13470SOL     OW42241  11.035  12.657  14.061
13470SOL    HW142242  10.998  12.584  14.111
13470SOL    HW242243  11.027  12.733  14.119
13471SOL     OW42244   1.612  14.787   1.998
13471SOL    HW142245   1.641  14.701   2.029
13471SOL    HW242246   1.547  14.815   2.061
13472SOL     OW42247  10.231   8.322   6.644
13472SOL    HW142248  10.222   8.377   6.722
13472SOL    HW242249  10.228   8.383   6.570
13473SOL     OW42250   8.310   8.187  13.990
13473SOL    HW142251   8.397   8.199  13.951
13473SOL    HW242252   8.326   8.150  14.076
13474SOL     OW42253   2.238  14.711  10.481
13474SOL    HW142254   2.160  14.674  10.524
13474SOL    HW242255   2.271  14.640  10.427
13475SOL     OW42256  11.241   7.090   7.157
13475SOL    HW142257  11.228   7.060   7.247
13475SOL    HW242258  11.334   7.113   7.153
13476SOL     OW42259   5.734  12.782  12.041
13476SOL    HW142260   5.769  12.818  12.122
13476SOL    HW242261   5.716  12.858  11.986
13477SOL     OW42262  14.658   8.348  10.763
13477SOL    HW142263  14.734   8.318  10.713
13477SOL    HW242264  14.678   8.327  10.854
13478SOL     OW42265   6.495   4.161   7.782
13478SOL    HW142266   6.475   4.252   7.757
13478SOL    HW242267   6.577   4.167   7.830
13479SOL     OW42268  10.137   9.014  13.169
13479SOL    HW142269  10.044   8.993  13.156
13479SOL    HW242270  10.140   9.061  13.252
13480SOL     OW42271   7.058  12.048   9.185
13480SOL    HW142272   6.972  12.006   9.176
13480SOL    HW242273   7.120  11.977   9.171
13481SOL     OW42274   7.924   8.353   4.867
13481SOL    HW142275   8.001   8.409   4.874
13481SOL    HW242276   7.957   8.265   4.889
13482SOL     OW42277   8.815  11.120   2.847
13482SOL    HW142278   8.737  11.064   2.846
13482SOL    HW242279   8.858  11.100   2.930
13483SOL     OW42280   0.142   3.844   4.221
13483SOL    HW142281   0.138   3.754   4.255
13483SOL    HW242282   0.103   3.838   4.134
13484SOL     OW42283  12.121   3.892  12.005
13484SOL    HW142284  12.125   3.962  12.071
13484SOL    HW242285  12.162   3.817  12.047
13485SOL     OW42286   8.244   0.424   9.414
13485SOL    HW142287   8.242   0.444   9.320
13485SOL    HW242288   8.336   0.406   9.432
13486SOL     OW42289  12.718   9.026   1.368
13486SOL    HW142290  12.673   9.082   1.305
13486SOL    HW242291  12.678   9.046   1.452
13487SOL     OW42292  14.324   2.415   5.132
13487SOL    HW142293  14.307   2.333   5.178
13487SOL    HW242294  14.255   2.474   5.162
13488SOL     OW42295   5.816   0.138   3.073
13488SOL    HW142296   5.738   0.158   3.021
13488SOL    HW242297   5.783   0.086   3.147
13489SOL     OW42298   5.045   8.095   5.770
13489SOL    HW142299   5.089   8.161   5.716
13489SOL    HW242300   5.056   8.126   5.860
13490SOL     OW42301  13.721   6.862  11.056
13490SOL    HW142302  13.661   6.894  10.988
13490SOL    HW242303  13.665   6.813  11.117
13491SOL     OW42304  14.626   0.641  11.296
13491SOL    HW142305  14.649   0.658  11.387
13491SOL    HW242306  14.559   0.706  11.275
13492SOL     OW42307   8.727   4.788  12.989
13492SOL    HW142308   8.761   4.788  12.900
13492SOL    HW242309   8.802   4.812  13.044
13493SOL     OW42310   0.224   8.851  11.890
13493SOL    HW142311   0.255   8.835  11.979
13493SOL    HW242312   0.138   8.810  11.887
13494SOL     OW42313   5.957   6.943   0.343
13494SOL    HW142314   5.952   7.024   0.394
13494SOL    HW242315   5.931   6.969   0.254
13495SOL     OW42316   6.378   4.093  14.230
13495SOL    HW142317   6.409   4.070  14.142
13495SOL    HW242318   6.296   4.139  14.215
13496SOL     OW42319  10.117  11.153   2.754
13496SOL    HW142320  10.148  11.063   2.746
13496SOL    HW242321  10.022  11.145   2.760
13497SOL     OW42322   5.179   3.226   6.840
13497SOL    HW142323   5.177   3.260   6.751
13497SOL    HW242324   5.237   3.286   6.888
13498SOL     OW42325   3.855  12.464   3.955
13498SOL    HW142326   3.882  12.420   3.874
13498SOL    HW242327   3.800  12.537   3.926
13499SOL     OW42328  13.871   4.412   0.986
13499SOL    HW142329  13.818   4.491   0.972
13499SOL    HW242330  13.908   4.424   1.074
13500SOL     OW42331   6.458   7.439   4.277
13500SOL    HW142332   6.399   7.452   4.351
13500SOL    HW242333   6.450   7.347   4.255
13501SOL     OW42334  11.030   3.714  13.537
13501SOL    HW142335  10.956   3.774  13.547
13501SOL    HW242336  11.066   3.735  13.450
13502SOL     OW42337   3.097  13.930   7.369
13502SOL    HW142338   3.166  13.969   7.315
13502SOL    HW242339   3.056  14.004   7.413
13503SOL     OW42340   5.949  13.462   4.323
13503SOL    HW142341   5.904  13.380   4.303
13503SOL    HW242342   5.891  13.507   4.385
13504SOL     OW42343  12.196   7.429   7.615
13504SOL    HW142344  12.102   7.421   7.633
13504SOL    HW242345  12.222   7.341   7.587
13505SOL     OW42346   3.218   1.639  10.974
13505SOL    HW142347   3.219   1.596  10.889
13505SOL    HW242348   3.154   1.710  10.965
13506SOL     OW42349  14.797  14.236   3.937
13506SOL    HW142350  14.829  14.298   3.872
13506SOL    HW242351  14.855  14.160   3.929
13507SOL     OW42352   2.683   2.953   5.163
13507SOL    HW142353   2.639   3.038   5.168
13507SOL    HW242354   2.615   2.892   5.136
13508SOL     OW42355   6.800   0.182  13.741
13508SOL    HW142356   6.760   0.096  13.728
13508SOL    HW242357   6.779   0.231  13.661
13509SOL     OW42358   8.774   9.273  14.080
13509SOL    HW142359   8.844   9.317  14.128
13509SOL    HW242360   8.819   9.209  14.025
13510SOL     OW42361   7.748   5.215  12.004
13510SOL    HW142362   7.707   5.161  11.937
13510SOL    HW242363   7.832   5.173  12.021
13511SOL     OW42364   7.162   0.025   3.141
13511SOL    HW142365   7.183  14.861   3.226
13511SOL    HW242366   7.246   0.036   3.098
13512SOL     OW42367   4.197   0.910  13.188
13512SOL    HW142368   4.146   0.923  13.107
13512SOL    HW242369   4.287   0.933  13.163
13513SOL     OW42370   1.204   2.589   5.453
13513SOL    HW142371   1.163   2.576   5.368
13513SOL    HW242372   1.268   2.518   5.461
13514SOL     OW42373  14.753   0.617  13.497
13514SOL    HW142374  14.772   0.531  13.461
13514SOL    HW242375  14.720   0.668  13.422
13515SOL     OW42376  14.261   2.625  12.458
13515SOL    HW142377  14.309   2.566  12.516
13515SOL    HW242378  14.329   2.673  12.411
13516SOL     OW42379  13.967   4.697  12.966
13516SOL    HW142380  14.048   4.737  12.999
13516SOL    HW242381  13.897   4.752  13.000
13517SOL     OW42382   5.441   9.348   7.017
13517SOL    HW142383   5.381   9.420   7.038
13517SOL    HW242384   5.459   9.306   7.102
13518SOL     OW42385   6.524  10.436   1.945
13518SOL    HW142386   6.565  10.489   2.013
13518SOL    HW242387   6.590  10.369   1.925
13519SOL     OW42388   3.975  10.627   6.097
13519SOL    HW142389   4.026  10.695   6.054
13519SOL    HW242390   3.936  10.670   6.173
13520SOL     OW42391   3.913   0.718   7.778
13520SOL    HW142392   3.984   0.773   7.812
13520SOL    HW242393   3.846   0.779   7.748
13521SOL     OW42394  10.215  14.535  10.700
13521SOL    HW142395  10.154  14.461  10.691
13521SOL    HW242396  10.194  14.572  10.786
13522SOL     OW42397  12.928   6.605  14.112
13522SOL    HW142398  12.879   6.687  14.120
13522SOL    HW242399  12.908   6.574  14.023
13523SOL     OW42400   5.457   3.564  14.185
13523SOL    HW142401   5.527   3.595  14.242
13523SOL    HW242402   5.414   3.495  14.235
13524SOL     OW42403  13.689  14.348  14.553
13524SOL    HW142404  13.649  14.407  14.617
13524SOL    HW242405  13.734  14.283  14.606
13525SOL     OW42406  13.202   3.796   0.430
13525SOL    HW142407  13.260   3.837   0.494
13525SOL    HW242408  13.257   3.784   0.352
13526SOL     OW42409  12.767   7.340   5.408
13526SOL    HW142410  12.796   7.286   5.334
13526SOL    HW242411  12.690   7.386   5.374
13527SOL     OW42412  10.975  10.768  14.333
13527SOL    HW142413  11.060  10.810  14.348
13527SOL    HW242414  10.938  10.756  14.420
13528SOL     OW42415   2.616  10.692  12.690
13528SOL    HW142416   2.623  10.662  12.780
13528SOL    HW242417   2.557  10.629  12.648
13529SOL     OW42418   6.133  13.660   4.011
13529SOL    HW142419   6.038  13.655   4.022
13529SOL    HW242420   6.146  13.691   3.921
13530SOL     OW42421   6.137   0.209  13.415
13530SOL    HW142422   6.161   0.121  13.387
13530SOL    HW242423   6.207   0.235  13.475
13531SOL     OW42424  11.944   0.520  10.779
13531SOL    HW142425  12.005   0.481  10.843
13531SOL    HW242426  11.903   0.592  10.826
13532SOL     OW42427   1.687  12.929   9.683
13532SOL    HW142428   1.774  12.891   9.678
13532SOL    HW242429   1.701  13.023   9.673
13533SOL     OW42430   4.755   2.114  14.366
13533SOL    HW142431   4.808   2.053  14.314
13533SOL    HW242432   4.670   2.071  14.375
13534SOL     OW42433   9.907  10.535  10.668
13534SOL    HW142434   9.890  10.619  10.624
13534SOL    HW242435   9.959  10.486  10.606
13535SOL     OW42436   5.366   2.335   3.945
13535SOL    HW142437   5.419   2.415   3.950
13535SOL    HW242438   5.296   2.349   4.008
13536SOL     OW42439  10.339   6.258  11.950
13536SOL    HW142440  10.382   6.342  11.967
13536SOL    HW242441  10.246   6.281  11.939
13537SOL     OW42442   7.785  13.253   2.967
13537SOL    HW142443   7.702  13.287   3.001
13537SOL    HW242444   7.773  13.251   2.872
13538SOL     OW42445  12.506  11.550   5.149
13538SOL    HW142446  12.482  11.601   5.226
13538SOL    HW242447  12.602  11.543   5.154
13539SOL     OW42448   9.108   4.520  13.086
13539SOL    HW142449   9.081   4.512  13.177
13539SOL    HW242450   9.172   4.450  13.074
13540SOL     OW42451   3.773   7.889   1.540
13540SOL    HW142452   3.764   7.913   1.448
13540SOL    HW242453   3.775   7.794   1.541
13541SOL     OW42454  12.731   8.249  10.921
13541SOL    HW142455  12.811   8.196  10.918
13541SOL    HW242456  12.762   8.338  10.935
13542SOL     OW42457   8.990   0.418   3.804
13542SOL    HW142458   9.044   0.354   3.757
13542SOL    HW242459   8.990   0.388   3.894
13543SOL     OW42460   2.743   8.096  10.731
13543SOL    HW142461   2.786   8.020  10.691
13543SOL    HW242462   2.789   8.172  10.695
13544SOL     OW42463   7.396   4.785  14.249
13544SOL    HW142464   7.385   4.851  14.181
13544SOL    HW242465   7.328   4.719  14.231
13545SOL     OW42466   2.003   8.827   5.184
13545SOL    HW142467   1.942   8.878   5.131
13545SOL    HW242468   2.060   8.892   5.225
13546SOL     OW42469   4.164   4.073  11.951
13546SOL    HW142470   4.116   4.105  12.027
13546SOL    HW242471   4.243   4.127  11.948
13547SOL     OW42472  12.980  14.800  13.288
13547SOL    HW142473  12.995  14.752  13.370
13547SOL    HW242474  13.049  14.866  13.286
13548SOL     OW42475   2.698  11.327   1.126
13548SOL    HW142476   2.688  11.365   1.214
13548SOL    HW242477   2.748  11.392   1.077
13549SOL     OW42478   4.191   5.608   6.356
13549SOL    HW142479   4.198   5.653   6.271
13549SOL    HW242480   4.192   5.515   6.333
13550SOL     OW42481   1.689  12.488   9.678
13550SOL    HW142482   1.700  12.532   9.762
13550SOL    HW242483   1.684  12.559   9.614
13551SOL     OW42484  10.635   2.874  12.589
13551SOL    HW142485  10.564   2.810  12.594
13551SOL    HW242486  10.714   2.821  12.575
13552SOL     OW42487   0.078   1.077   9.447
13552SOL    HW142488   0.102   1.028   9.526
13552SOL    HW242489  14.868   1.115   9.468
13553SOL     OW42490  13.421   5.393   4.714
13553SOL    HW142491  13.454   5.458   4.776
13553SOL    HW242492  13.341   5.431   4.679
13554SOL     OW42493   0.969   9.874   6.517
13554SOL    HW142494   0.927   9.788   6.513
13554SOL    HW242495   0.921   9.927   6.454
13555SOL     OW42496   8.314   7.335   3.880
13555SOL    HW142497   8.342   7.247   3.856
13555SOL    HW242498   8.300   7.379   3.796
13556SOL     OW42499   4.947  14.795  10.726
13556SOL    HW142500   5.032  14.764  10.756
13556SOL    HW242501   4.928  14.743  10.648
13557SOL     OW42502   4.129   1.360   3.286
13557SOL    HW142503   4.100   1.269   3.296
13557SOL    HW242504   4.128   1.375   3.191
13558SOL     OW42505   9.870   7.572  10.809
13558SOL    HW142506   9.852   7.595  10.900
13558SOL    HW242507   9.794   7.520  10.782
13559SOL     OW42508  11.582   9.298   5.596
13559SOL    HW142509  11.604   9.211   5.564
13559SOL    HW242510  11.491   9.310   5.570
13560SOL     OW42511   2.065   5.784  11.069
13560SOL    HW142512   2.005   5.827  11.007
13560SOL    HW242513   2.035   5.693  11.072
13561SOL     OW42514  13.218   6.674   8.466
13561SOL    HW142515  13.174   6.756   8.487
13561SOL    HW242516  13.209   6.666   8.371
13562SOL     OW42517  13.500   8.013   1.843
13562SOL    HW142518  13.492   7.933   1.791
13562SOL    HW242519  13.585   8.005   1.886
13563SOL     OW42520   4.500   7.115  13.177
13563SOL    HW142521   4.441   7.186  13.202
13563SOL    HW242522   4.545   7.092  13.258
13564SOL     OW42523  14.247   6.137   6.192
13564SOL    HW142524  14.242   6.178   6.105
13564SOL    HW242525  14.217   6.206   6.252
13565SOL     OW42526   5.834  13.624   4.592
13565SOL    HW142527   5.850  13.716   4.572
13565SOL    HW242528   5.904  13.601   4.653
13566SOL     OW42529  13.822  14.669  13.021
13566SOL    HW142530  13.916  14.653  13.028
13566SOL    HW242531  13.780  14.591  13.057
13567SOL     OW42532  13.953  10.942   6.744
13567SOL    HW142533  14.045  10.952   6.767
13567SOL    HW242534  13.912  10.909   6.824
13568SOL     OW42535   6.406   9.958   4.455
13568SOL    HW142536   6.381  10.041   4.496
13568SOL    HW242537   6.414   9.896   4.528
13569SOL     OW42538  12.159  14.327   0.328
13569SOL    HW142539  12.245  14.364   0.347
13569SOL    HW242540  12.171  14.232   0.334
13570SOL     OW42541   8.159   3.133  13.435
13570SOL    HW142542   8.163   3.039  13.450
13570SOL    HW242543   8.205   3.172  13.509
13571SOL     OW42544   9.772   3.408   5.954
13571SOL    HW142545   9.830   3.377   6.024
13571SOL    HW242546   9.769   3.503   5.966
13572SOL     OW42547  12.561   0.280  12.302
13572SOL    HW142548  12.481   0.257  12.257
13572SOL    HW242549  12.615   0.202  12.298
13573SOL     OW42550   6.691   0.067   4.536
13573SOL    HW142551   6.752   0.015   4.484
13573SOL    HW242552   6.709   0.158   4.510
13574SOL     OW42553   7.301  10.179   0.628
13574SOL    HW142554   7.365  10.108   0.618
13574SOL    HW242555   7.344  10.255   0.590
13575SOL     OW42556   6.459   0.758   7.089
13575SOL    HW142557   6.481   0.767   6.996
13575SOL    HW242558   6.543   0.752   7.134
13576SOL     OW42559  13.460   9.798  11.288
13576SOL    HW142560  13.508   9.855  11.228
13576SOL    HW242561  13.383   9.770  11.238
13577SOL     OW42562   2.318   8.576   7.569
13577SOL    HW142563   2.340   8.629   7.492
13577SOL    HW242564   2.222   8.572   7.569
13578SOL     OW42565   1.370   2.521   7.184
13578SOL    HW142566   1.330   2.439   7.159
13578SOL    HW242567   1.349   2.531   7.277
13579SOL     OW42568   2.370  11.777  14.631
13579SOL    HW142569   2.462  11.758  14.653
13579SOL    HW242570   2.366  11.872  14.624
13580SOL     OW42571   3.881   9.331   5.270
13580SOL    HW142572   3.971   9.358   5.286
13580SOL    HW242573   3.867   9.257   5.330
13581SOL     OW42574  13.089   2.294   1.027
13581SOL    HW142575  13.120   2.358   1.091
13581SOL    HW242576  13.079   2.213   1.078
13582SOL     OW42577   9.906  13.407  10.357
13582SOL    HW142578   9.958  13.486  10.371
13582SOL    HW242579   9.829  13.437  10.308
13583SOL     OW42580   0.251  13.998  14.681
13583SOL    HW142581   0.271  14.024  14.591
13583SOL    HW242582   0.181  13.934  14.672
13584SOL     OW42583  10.223   3.461   3.619
13584SOL    HW142584  10.249   3.535   3.674
13584SOL    HW242585  10.128   3.470   3.610
13585SOL     OW42586   8.617   7.450  10.374
13585SOL    HW142587   8.592   7.371  10.422
13585SOL    HW242588   8.538   7.503  10.373
13586SOL     OW42589   7.889  14.725   4.930
13586SOL    HW142590   7.965  14.775   4.958
13586SOL    HW242591   7.829  14.791   4.895
13587SOL     OW42592   7.449   9.694   5.991
13587SOL    HW142593   7.536   9.682   5.954
13587SOL    HW242594   7.451   9.782   6.029
13588SOL     OW42595   7.615   0.170   6.106
13588SOL    HW142596   7.689   0.111   6.094
13588SOL    HW242597   7.653   0.250   6.142
13589SOL     OW42598   3.781  11.178   8.529
13589SOL    HW142599   3.748  11.122   8.459
13589SOL    HW242600   3.768  11.127   8.609
13590SOL     OW42601   7.444  13.765   0.549
13590SOL    HW142602   7.516  13.815   0.513
13590SOL    HW242603   7.380  13.760   0.478
13591SOL     OW42604   1.621   4.107   4.220
13591SOL    HW142605   1.662   4.020   4.219
13591SOL    HW242606   1.687   4.164   4.259
13592SOL     OW42607  13.308   0.753   9.356
13592SOL    HW142608  13.336   0.765   9.447
13592SOL    HW242609  13.387   0.773   9.305
13593SOL     OW42610   3.727   4.652  10.972
13593SOL    HW142611   3.803   4.648  10.914
13593SOL    HW242612   3.738   4.735  11.018
13594SOL     OW42613  13.134  12.010   6.441
13594SOL    HW142614  13.136  12.089   6.495
13594SOL    HW242615  13.189  12.031   6.366
13595SOL     OW42616  10.383  12.353  11.247
13595SOL    HW142617  10.363  12.259  11.242
13595SOL    HW242618  10.312  12.395  11.198
13596SOL     OW42619  14.154  13.848   1.685
13596SOL    HW142620  14.211  13.920   1.711
13596SOL    HW242621  14.203  13.802   1.616
13597SOL     OW42622  12.038   0.822   1.907
13597SOL    HW142623  11.958   0.847   1.859
13597SOL    HW242624  12.071   0.905   1.942
13598SOL     OW42625   7.483   5.866  14.227
13598SOL    HW142626   7.505   5.871  14.134
13598SOL    HW242627   7.399   5.819  14.229
13599SOL     OW42628   0.264   4.892   1.126
13599SOL    HW142629   0.240   4.859   1.039
13599SOL    HW242630   0.220   4.833   1.187
13600SOL     OW42631  11.496   8.706   7.008
13600SOL    HW142632  11.505   8.613   6.988
13600SOL    HW242633  11.561   8.749   6.951
13601SOL     OW42634   4.497  13.424   2.599
13601SOL    HW142635   4.592  13.438   2.599
13601SOL    HW242636   4.478  13.394   2.510
13602SOL     OW42637   6.072   0.382   9.370
13602SOL    HW142638   6.160   0.385   9.332
13602SOL    HW242639   6.075   0.312   9.435
13603SOL     OW42640   4.733  14.419   1.853
13603SOL    HW142641   4.772  14.355   1.913
13603SOL    HW242642   4.784  14.410   1.773
13604SOL     OW42643   5.967  14.163   1.491
13604SOL    HW142644   5.993  14.095   1.428
13604SOL    HW242645   5.932  14.114   1.566
13605SOL     OW42646  12.125  12.895  14.702
13605SOL    HW142647  12.133  12.981  14.743
13605SOL    HW242648  12.198  12.845  14.737
13606SOL     OW42649   4.840  14.745  13.616
13606SOL    HW142650   4.936  14.742  13.618
13606SOL    HW242651   4.816  14.715  13.529
13607SOL     OW42652  14.863   4.824   2.785
13607SOL    HW142653   0.003   4.903   2.734
13607SOL    HW242654  14.841   4.757   2.720
13608SOL     OW42655   6.816  10.355   1.620
13608SOL    HW142656   6.767  10.405   1.554
13608SOL    HW242657   6.843  10.275   1.574
13609SOL     OW42658   8.821   9.126   7.790
13609SOL    HW142659   8.880   9.193   7.824
13609SOL    HW242660   8.738   9.171   7.775
13610SOL     OW42661   9.835   0.429   6.961
13610SOL    HW142662   9.772   0.358   6.970
13610SOL    HW242663   9.812   0.471   6.878
13611SOL     OW42664   3.846   1.235  11.184
13611SOL    HW142665   3.903   1.273  11.251
13611SOL    HW242666   3.842   1.142  11.206
13612SOL     OW42667   4.289   5.677   7.609
13612SOL    HW142668   4.345   5.681   7.532
13612SOL    HW242669   4.232   5.602   7.595
13613SOL     OW42670   9.243   9.024   0.278
13613SOL    HW142671   9.266   9.036   0.370
13613SOL    HW242672   9.306   9.079   0.231
13614SOL     OW42673   8.406  14.507  13.552
13614SOL    HW142674   8.388  14.427  13.503
13614SOL    HW242675   8.501  14.520  13.542
13615SOL     OW42676   4.634  14.593   9.404
13615SOL    HW142677   4.639  14.654   9.478
13615SOL    HW242678   4.680  14.639   9.334
13616SOL     OW42679  12.785   6.294  13.276
13616SOL    HW142680  12.847   6.356  13.239
13616SOL    HW242681  12.839   6.236  13.330
13617SOL     OW42682   5.021  12.370   0.241
13617SOL    HW142683   5.004  12.428   0.315
13617SOL    HW242684   4.974  12.289   0.262
13618SOL     OW42685   8.506   7.006   0.772
13618SOL    HW142686   8.588   7.035   0.733
13618SOL    HW242687   8.462   6.959   0.701
13619SOL     OW42688  12.144   2.120   2.520
13619SOL    HW142689  12.193   2.194   2.486
13619SOL    HW242690  12.159   2.121   2.614
13620SOL     OW42691   6.570  10.745   0.840
13620SOL    HW142692   6.480  10.712   0.831
13620SOL    HW242693   6.559  10.839   0.858
13621SOL     OW42694  10.573   4.027   5.347
13621SOL    HW142695  10.495   3.976   5.326
13621SOL    HW242696  10.570   4.038   5.442
13622SOL     OW42697   8.406  12.673  13.662
13622SOL    HW142698   8.336  12.680  13.727
13622SOL    HW242699   8.361  12.663  13.578
13623SOL     OW42700   3.541   7.605   7.371
13623SOL    HW142701   3.472   7.671   7.360
13623SOL    HW242702   3.602   7.644   7.433
13624SOL     OW42703   0.645  11.539  13.992
13624SOL    HW142704   0.668  11.582  13.910
13624SOL    HW242705   0.559  11.574  14.014
13625SOL     OW42706   2.018  12.875   9.647
13625SOL    HW142707   2.108  12.842   9.652
13625SOL    HW242708   2.029  12.970   9.638
13626SOL     OW42709  11.864  10.643   8.465
13626SOL    HW142710  11.780  10.660   8.424
13626SOL    HW242711  11.860  10.688   8.550
13627SOL     OW42712   4.107  13.883   5.016
13627SOL    HW142713   4.045  13.814   4.993
13627SOL    HW242714   4.140  13.915   4.932
13628SOL     OW42715  11.265   5.463   5.141
13628SOL    HW142716  11.305   5.470   5.054
13628SOL    HW242717  11.182   5.418   5.126
13629SOL     OW42718   9.112   9.208  11.512
13629SOL    HW142719   9.104   9.205  11.608
13629SOL    HW242720   9.188   9.264  11.496
13630SOL     OW42721   1.024   7.579   2.386
13630SOL    HW142722   1.105   7.584   2.336
13630SOL    HW242723   1.053   7.562   2.476
13631SOL     OW42724   9.756   1.270   0.676
13631SOL    HW142725   9.673   1.225   0.660
13631SOL    HW242726   9.742   1.314   0.761
13632SOL     OW42727  10.489   1.249   5.122
13632SOL    HW142728  10.439   1.298   5.057
13632SOL    HW242729  10.497   1.160   5.085
13633SOL     OW42730  10.020  11.455   2.868
13633SOL    HW142731  10.102  11.503   2.866
13633SOL    HW242732  10.028  11.390   2.798
13634SOL     OW42733   2.994   8.533   1.961
13634SOL    HW142734   2.960   8.480   1.888
13634SOL    HW242735   3.032   8.610   1.920
13635SOL     OW42736   3.884   6.148   6.786
13635SOL    HW142737   3.855   6.203   6.713
13635SOL    HW242738   3.916   6.068   6.744
13636SOL     OW42739   3.152   8.097   4.692
13636SOL    HW142740   3.135   8.159   4.763
13636SOL    HW242741   3.127   8.143   4.613
13637SOL     OW42742  13.387   6.666   7.643
13637SOL    HW142743  13.465   6.658   7.697
13637SOL    HW242744  13.391   6.755   7.607
13638SOL     OW42745  14.701   5.116  14.255
13638SOL    HW142746  14.660   5.171  14.189
13638SOL    HW242747  14.719   5.175  14.328
13639SOL     OW42748   6.669   0.473  10.745
13639SOL    HW142749   6.624   0.500  10.825
13639SOL    HW242750   6.699   0.384  10.763
13640SOL     OW42751   8.763  11.179   1.789
13640SOL    HW142752   8.754  11.244   1.719
13640SOL    HW242753   8.842  11.130   1.766
13641SOL     OW42754   4.650   4.013   2.847
13641SOL    HW142755   4.564   4.041   2.878
13641SOL    HW242756   4.633   3.929   2.805
13642SOL     OW42757  12.716  11.009   1.348
13642SOL    HW142758  12.752  11.095   1.328
13642SOL    HW242759  12.629  11.027   1.385
13643SOL     OW42760   8.263  11.607   3.073
13643SOL    HW142761   8.277  11.651   3.157
13643SOL    HW242762   8.204  11.534   3.094
13644SOL     OW42763   1.304   7.834   2.978
13644SOL    HW142764   1.218   7.800   2.952
13644SOL    HW242765   1.302   7.926   2.952
13645SOL     OW42766   0.707  10.631   0.290
13645SOL    HW142767   0.727  10.538   0.277
13645SOL    HW242768   0.783  10.677   0.253
13646SOL     OW42769   5.551   4.126   0.764
13646SOL    HW142770   5.604   4.193   0.807
13646SOL    HW242771   5.556   4.148   0.671
13647SOL     OW42772   9.134  10.433  11.218
13647SOL    HW142773   9.177  10.473  11.142
13647SOL    HW242774   9.040  10.444  11.200
13648SOL     OW42775  12.727   9.218  12.689
13648SOL    HW142776  12.817   9.195  12.712
13648SOL    HW242777  12.694   9.141  12.643
13649SOL     OW42778   3.443  13.518  14.704
13649SOL    HW142779   3.394  13.464  14.766
13649SOL    HW242780   3.534  13.492  14.717
13650SOL     OW42781  10.245   1.108  10.325
13650SOL    HW142782  10.170   1.057  10.295
13650SOL    HW242783  10.219   1.138  10.413
13651SOL     OW42784   4.738   3.041   6.484
13651SOL    HW142785   4.785   3.059   6.565
13651SOL    HW242786   4.804   3.000   6.427
13652SOL     OW42787  10.290   0.892  14.829
13652SOL    HW142788  10.255   0.834  14.761
13652SOL    HW242789  10.324   0.833   0.020
13653SOL     OW42790  12.351   7.644   8.377
13653SOL    HW142791  12.330   7.709   8.444
13653SOL    HW242792  12.349   7.560   8.424
13654SOL     OW42793  14.692   1.652   5.864
13654SOL    HW142794  14.695   1.729   5.921
13654SOL    HW242795  14.718   1.579   5.920
13655SOL     OW42796   8.370   7.547  10.303
13655SOL    HW142797   8.319   7.566  10.224
13655SOL    HW242798   8.332   7.466  10.337
13656SOL     OW42799   4.504   2.361   7.253
13656SOL    HW142800   4.426   2.323   7.212
13656SOL    HW242801   4.574   2.346   7.190
13657SOL     OW42802   2.653   0.607  13.105
13657SOL    HW142803   2.642   0.702  13.103
13657SOL    HW242804   2.698   0.587  13.023
13658SOL     OW42805  13.604   1.681  13.089
13658SOL    HW142806  13.599   1.639  13.003
13658SOL    HW242807  13.576   1.614  13.151
13659SOL     OW42808   3.735   0.795   1.138
13659SOL    HW142809   3.667   0.795   1.071
13659SOL    HW242810   3.791   0.720   1.116
13660SOL     OW42811   8.346   2.288   2.536
13660SOL    HW142812   8.341   2.367   2.589
13660SOL    HW242813   8.379   2.318   2.451
13661SOL     OW42814   0.220   9.808  13.875
13661SOL    HW142815   0.234   9.798  13.970
13661SOL    HW242816   0.138   9.761  13.858
13662SOL     OW42817   3.748   2.131  13.614
13662SOL    HW142818   3.726   2.175  13.696
13662SOL    HW242819   3.679   2.156  13.553
13663SOL     OW42820   7.584  12.776   3.504
13663SOL    HW142821   7.633  12.736   3.576
13663SOL    HW242822   7.624  12.863   3.494
13664SOL     OW42823   4.474   3.682  12.926
13664SOL    HW142824   4.567   3.681  12.903
13664SOL    HW242825   4.456   3.771  12.955
13665SOL     OW42826   5.363   6.238   0.215
13665SOL    HW142827   5.295   6.233   0.148
13665SOL    HW242828   5.325   6.293   0.283
13666SOL     OW42829   8.993   7.716   6.479
13666SOL    HW142830   8.901   7.694   6.494
13666SOL    HW242831   9.034   7.703   6.564
13667SOL     OW42832   6.725  12.905   9.256
13667SOL    HW142833   6.808  12.874   9.220
13667SOL    HW242834   6.713  12.992   9.219
13668SOL     OW42835   3.272   9.620   6.009
13668SOL    HW142836   3.332   9.675   5.959
13668SOL    HW242837   3.188   9.627   5.963
13669SOL     OW42838   5.239  10.019  10.906
13669SOL    HW142839   5.236  10.066  10.823
13669SOL    HW242840   5.332  10.010  10.925
13670SOL     OW42841   2.352   1.592   2.093
13670SOL    HW142842   2.267   1.592   2.137
13670SOL    HW242843   2.356   1.675   2.047
13671SOL     OW42844   9.173   7.300   3.003
13671SOL    HW142845   9.237   7.260   2.944
13671SOL    HW242846   9.092   7.301   2.953
13672SOL     OW42847  11.477   9.362  12.572
13672SOL    HW142848  11.408   9.402  12.519
13672SOL    HW242849  11.516   9.296  12.514
13673SOL     OW42850   0.542  10.280   6.469
13673SOL    HW142851   0.559  10.284   6.563
13673SOL    HW242852   0.498  10.363   6.450
13674SOL     OW42853  11.349   7.831   4.411
13674SOL    HW142854  11.432   7.794   4.440
13674SOL    HW242855  11.362   7.849   4.318
13675SOL     OW42856  14.679  13.570  11.374
13675SOL    HW142857  14.591  13.574  11.337
13675SOL    HW242858  14.668  13.526  11.458
13676SOL     OW42859   3.425   5.113   7.297
13676SOL    HW142860   3.392   5.032   7.335
13676SOL    HW242861   3.385   5.116   7.210
13677SOL     OW42862   0.675   5.573   6.471
13677SOL    HW142863   0.687   5.604   6.382
13677SOL    HW242864   0.633   5.645   6.517
13678SOL     OW42865  11.609  10.677   9.837
13678SOL    HW142866  11.601  10.764   9.877
13678SOL    HW242867  11.545  10.677   9.766
13679SOL     OW42868   3.408   4.885  11.630
13679SOL    HW142869   3.465   4.961  11.616
13679SOL    HW242870   3.420   4.863  11.722
13680SOL     OW42871   0.013   3.793  13.488
13680SOL    HW142872   0.012   3.697  13.493
13680SOL    HW242873  14.875   3.813  13.395
13681SOL     OW42874   1.820   0.743   9.439
13681SOL    HW142875   1.815   0.663   9.388
13681SOL    HW242876   1.781   0.721   9.524
13682SOL     OW42877   9.636  12.028  14.193
13682SOL    HW142878   9.600  12.107  14.154
13682SOL    HW242879   9.692  12.059  14.265
13683SOL     OW42880   6.016   6.758   4.342
13683SOL    HW142881   6.018   6.788   4.432
13683SOL    HW242882   6.052   6.830   4.291
13684SOL     OW42883  12.552  13.965   4.709
13684SOL    HW142884  12.609  13.890   4.722
13684SOL    HW242885  12.586  14.032   4.769
13685SOL     OW42886  10.531   8.517  14.093
13685SOL    HW142887  10.473   8.488  14.022
13685SOL    HW242888  10.517   8.612  14.097
13686SOL     OW42889   5.426   1.003   5.413
13686SOL    HW142890   5.472   1.021   5.331
13686SOL    HW242891   5.345   1.053   5.407
13687SOL     OW42892  14.826   4.126  14.855
13687SOL    HW142893  14.808   4.138  14.761
13687SOL    HW242894  14.785   4.202   0.021
13688SOL     OW42895  10.533   4.841  11.547
13688SOL    HW142896  10.492   4.927  11.556
13688SOL    HW242897  10.467   4.779  11.578
13689SOL     OW42898  10.133   4.387   9.877
13689SOL    HW142899  10.139   4.329   9.800
13689SOL    HW242900  10.090   4.466   9.844
13690SOL     OW42901  11.984   8.695   0.730
13690SOL    HW142902  11.898   8.672   0.763
13690SOL    HW242903  12.033   8.723   0.807
13691SOL     OW42904   7.850   3.344   7.218
13691SOL    HW142905   7.807   3.336   7.133
13691SOL    HW242906   7.778   3.339   7.282
13692SOL     OW42907   6.100  12.202   0.157
13692SOL    HW142908   6.173  12.234   0.105
13692SOL    HW242909   6.139  12.178   0.242
13693SOL     OW42910  10.384   5.675  11.143
13693SOL    HW142911  10.459   5.659  11.199
13693SOL    HW242912  10.374   5.770  11.143
13694SOL     OW42913  12.622   8.132  10.455
13694SOL    HW142914  12.639   8.156  10.364
13694SOL    HW242915  12.616   8.215  10.501
13695SOL     OW42916  13.112   0.954  13.544
13695SOL    HW142917  13.123   1.048  13.529
13695SOL    HW242918  13.032   0.932  13.497
13696SOL     OW42919   6.165   0.787  13.742
13696SOL    HW142920   6.133   0.738  13.666
13696SOL    HW242921   6.099   0.769  13.810
13697SOL     OW42922  14.723  11.948   8.065
13697SOL    HW142923  14.808  11.905   8.050
13697SOL    HW242924  14.671  11.924   7.988
13698SOL     OW42925   8.555  13.948   2.752
13698SOL    HW142926   8.498  13.907   2.686
13698SOL    HW242927   8.509  13.935   2.835
13699SOL     OW42928   5.569   6.673   6.418
13699SOL    HW142929   5.477   6.670   6.445
13699SOL    HW242930   5.603   6.752   6.460
13700SOL     OW42931   3.608   6.393  11.269
13700SOL    HW142932   3.681   6.440  11.308
13700SOL    HW242933   3.648   6.322  11.219
13701SOL     OW42934   9.466   3.592   9.089
13701SOL    HW142935   9.500   3.528   9.027
13701SOL    HW242936   9.375   3.566   9.104
13702SOL     OW42937   1.105   7.611   1.470
13702SOL    HW142938   1.131   7.520   1.463
13702SOL    HW242939   1.044   7.624   1.397
13703SOL     OW42940  14.701   8.457   8.598
13703SOL    HW142941  14.741   8.440   8.684
13703SOL    HW242942  14.734   8.387   8.542
13704SOL     OW42943   9.601  11.372  10.811
13704SOL    HW142944   9.681  11.320  10.801
13704SOL    HW242945   9.619  11.428  10.886
13705SOL     OW42946   6.773  11.373   6.932
13705SOL    HW142947   6.712  11.421   6.988
13705SOL    HW242948   6.833  11.440   6.899
13706SOL     OW42949   6.090   6.968   2.076
13706SOL    HW142950   6.065   6.890   2.125
13706SOL    HW242951   6.184   6.957   2.062
13707SOL     OW42952   3.116   0.493   7.560
13707SOL    HW142953   3.207   0.516   7.543
13707SOL    HW242954   3.075   0.488   7.474
13708SOL     OW42955   6.794   4.853   7.411
13708SOL    HW142956   6.829   4.773   7.371
13708SOL    HW242957   6.746   4.821   7.487
13709SOL     OW42958   9.866   2.097   8.515
13709SOL    HW142959   9.929   2.166   8.495
13709SOL    HW242960   9.834   2.119   8.603
13710SOL     OW42961   3.579  14.371   5.622
13710SOL    HW142962   3.485  14.352   5.624
13710SOL    HW242963   3.587  14.442   5.559
13711SOL     OW42964   3.144   3.960  12.040
13711SOL    HW142965   3.158   3.912  11.958
13711SOL    HW242966   3.060   3.927  12.072
13712SOL     OW42967   4.102   5.789   8.421
13712SOL    HW142968   4.061   5.715   8.466
13712SOL    HW242969   4.032   5.855   8.415
13713SOL     OW42970   3.852  13.927   6.805
13713SOL    HW142971   3.905  13.907   6.728
13713SOL    HW242972   3.910  13.908   6.879
13714SOL     OW42973   2.888   8.916   1.903
13714SOL    HW142974   2.937   8.857   1.847
13714SOL    HW242975   2.947   8.990   1.917
13715SOL     OW42976  13.620  14.308   4.307
13715SOL    HW142977  13.621  14.384   4.365
13715SOL    HW242978  13.712  14.290   4.289
13716SOL     OW42979   8.900   4.546  11.365
13716SOL    HW142980   8.884   4.594  11.446
13716SOL    HW242981   8.989   4.570  11.340
13717SOL     OW42982   4.476   7.495   0.119
13717SOL    HW142983   4.479   7.586   0.146
13717SOL    HW242984   4.562   7.478   0.080
13718SOL     OW42985   7.175  10.410  13.186
13718SOL    HW142986   7.120  10.358  13.245
13718SOL    HW242987   7.123  10.489  13.168
13719SOL     OW42988   7.587   8.715   1.842
13719SOL    HW142989   7.519   8.728   1.776
13719SOL    HW242990   7.597   8.801   1.884
13720SOL     OW42991  12.542  12.223   4.286
13720SOL    HW142992  12.540  12.298   4.226
13720SOL    HW242993  12.537  12.146   4.229
13721SOL     OW42994  10.425   2.914   8.575
13721SOL    HW142995  10.390   2.955   8.655
13721SOL    HW242996  10.356   2.853   8.548
13722SOL     OW42997   8.612   7.160   4.736
13722SOL    HW142998   8.667   7.217   4.789
13722SOL    HW242999   8.525   7.198   4.742
13723SOL     OW43000   7.723   1.088   1.886
13723SOL    HW143001   7.735   1.109   1.979
13723SOL    HW243002   7.812   1.091   1.850
13724SOL     OW43003  10.307  10.636  10.040
13724SOL    HW143004  10.290  10.580  10.116
13724SOL    HW243005  10.350  10.713  10.077
13725SOL     OW43006   4.711   0.107   1.225
13725SOL    HW143007   4.660   0.047   1.280
13725SOL    HW243008   4.670   0.192   1.239
13726SOL     OW43009   8.970   9.041  12.508
13726SOL    HW143010   8.894   8.983  12.504
13726SOL    HW243011   9.009   9.024  12.594
13727SOL     OW43012   2.859   6.061   1.004
13727SOL    HW143013   2.940   6.012   1.021
13727SOL    HW243014   2.889   6.149   0.982
13728SOL     OW43015   1.439   2.021  14.563
13728SOL    HW143016   1.393   2.082  14.621
13728SOL    HW243017   1.387   2.021  14.483
13729SOL     OW43018   8.879  13.818  14.187
13729SOL    HW143019   8.819  13.778  14.250
13729SOL    HW243020   8.839  13.903  14.166
13730SOL     OW43021  11.674  11.028   0.500
13730SOL    HW143022  11.759  11.044   0.459
13730SOL    HW243023  11.610  11.046   0.431
13731SOL     OW43024  11.472   8.094   2.606
13731SOL    HW143025  11.533   8.038   2.654
13731SOL    HW243026  11.491   8.077   2.514
13732SOL     OW43027   6.788   7.457   2.908
13732SOL    HW143028   6.830   7.375   2.934
13732SOL    HW243029   6.745   7.488   2.988
13733SOL     OW43030   6.597   6.230   6.466
13733SOL    HW143031   6.669   6.229   6.529
13733SOL    HW243032   6.586   6.322   6.443
13734SOL     OW43033  13.105   2.500   4.067
13734SOL    HW143034  13.150   2.468   4.145
13734SOL    HW243035  13.175   2.513   4.003
13735SOL     OW43036   8.811  14.045   0.991
13735SOL    HW143037   8.718  14.062   1.008
13735SOL    HW243038   8.842  14.123   0.946
13736SOL     OW43039  10.471   5.628   5.913
13736SOL    HW143040  10.442   5.698   5.972
13736SOL    HW243041  10.514   5.674   5.841
13737SOL     OW43042   8.359   4.477  11.705
13737SOL    HW143043   8.327   4.501  11.792
13737SOL    HW243044   8.413   4.399  11.719
13738SOL     OW43045   8.544  14.416   4.760
13738SOL    HW143046   8.499  14.358   4.698
13738SOL    HW243047   8.629  14.373   4.774
13739SOL     OW43048  13.671  13.111  11.673
13739SOL    HW143049  13.602  13.081  11.614
13739SOL    HW243050  13.635  13.099  11.761
13740SOL     OW43051  10.434   8.718  10.425
13740SOL    HW143052  10.428   8.718  10.330
13740SOL    HW243053  10.387   8.797  10.452
13741SOL     OW43054   5.674   0.172  11.077
13741SOL    HW143055   5.724   0.253  11.074
13741SOL    HW243056   5.662   0.147  10.986
13742SOL     OW43057   2.807   8.457   0.811
13742SOL    HW143058   2.898   8.481   0.828
13742SOL    HW243059   2.777   8.520   0.746
13743SOL     OW43060   1.710   8.280  11.036
13743SOL    HW143061   1.634   8.339  11.036
13743SOL    HW243062   1.785   8.337  11.025
13744SOL     OW43063  14.472  10.299   3.566
13744SOL    HW143064  14.434  10.220   3.527
13744SOL    HW243065  14.504  10.349   3.491
13745SOL     OW43066  12.691  13.986   1.543
13745SOL    HW143067  12.785  13.970   1.537
13745SOL    HW243068  12.674  14.052   1.475
13746SOL     OW43069  14.608   8.281   1.390
13746SOL    HW143070  14.544   8.210   1.386
13746SOL    HW243071  14.585   8.330   1.469
13747SOL     OW43072   2.105   9.690   9.735
13747SOL    HW143073   2.196   9.700   9.763
13747SOL    HW243074   2.056   9.672   9.816
13748SOL     OW43075   1.539   9.207   1.709
13748SOL    HW143076   1.533   9.140   1.641
13748SOL    HW243077   1.626   9.246   1.696
13749SOL     OW43078   5.829  10.194   1.412
13749SOL    HW143079   5.763  10.125   1.408
13749SOL    HW243080   5.869  10.185   1.498
13750SOL     OW43081  14.552   2.729   0.400
13750SOL    HW143082  14.508   2.760   0.480
13750SOL    HW243083  14.642   2.758   0.410
13751SOL     OW43084   5.624  14.504   6.631
13751SOL    HW143085   5.637  14.593   6.598
13751SOL    HW243086   5.629  14.449   6.553
13752SOL     OW43087  14.774  12.392   1.588
13752SOL    HW143088  14.769  12.302   1.620
13752SOL    HW243089  14.835  12.435   1.649
13753SOL     OW43090  13.967   1.073  10.320
13753SOL    HW143091  14.054   1.038  10.301
13753SOL    HW243092  13.927   1.006  10.376
13754SOL     OW43093   1.732  11.872   8.639
13754SOL    HW143094   1.769  11.802   8.693
13754SOL    HW243095   1.637  11.868   8.656
13755SOL     OW43096   8.817   2.407  12.689
13755SOL    HW143097   8.821   2.312  12.690
13755SOL    HW243098   8.908   2.435  12.682
13756SOL     OW43099  14.381   3.693   8.653
13756SOL    HW143100  14.294   3.654   8.660
13756SOL    HW243101  14.427   3.661   8.731
13757SOL     OW43102   7.094   8.398  12.986
13757SOL    HW143103   7.003   8.401  12.957
13757SOL    HW243104   7.135   8.332  12.931
13758SOL     OW43105   4.513   4.087   2.483
13758SOL    HW143106   4.599   4.120   2.511
13758SOL    HW243107   4.529   3.995   2.460
13759SOL     OW43108  14.282   5.094   4.339
13759SOL    HW143109  14.292   5.110   4.245
13759SOL    HW243110  14.221   5.161   4.369
13760SOL     OW43111   4.115   4.030  11.171
13760SOL    HW143112   4.140   3.984  11.251
13760SOL    HW243113   4.055   3.970  11.127
13761SOL     OW43114   7.714   6.634  11.934
13761SOL    HW143115   7.787   6.572  11.928
13761SOL    HW243116   7.655   6.595  11.999
13762SOL     OW43117  12.388  13.509   0.643
13762SOL    HW143118  12.294  13.499   0.658
13762SOL    HW243119  12.396  13.518   0.548
13763SOL     OW43120   0.982   2.055   0.287
13763SOL    HW143121   0.992   2.150   0.283
13763SOL    HW243122   1.065   2.020   0.254
13764SOL     OW43123   9.586  10.630   4.399
13764SOL    HW143124   9.618  10.709   4.442
13764SOL    HW243125   9.495  10.650   4.376
13765SOL     OW43126   4.667   4.259   9.775
13765SOL    HW143127   4.686   4.325   9.841
13765SOL    HW243128   4.577   4.233   9.793
13766SOL     OW43129   4.593   5.408  12.240
13766SOL    HW143130   4.650   5.341  12.201
13766SOL    HW243131   4.532   5.431  12.170
13767SOL     OW43132  10.974  10.133   0.244
13767SOL    HW143133  10.895  10.125   0.298
13767SOL    HW243134  11.041  10.084   0.292
13768SOL     OW43135   8.297   9.589   5.621
13768SOL    HW143136   8.286   9.684   5.625
13768SOL    HW243137   8.303   9.569   5.527
13769SOL     OW43138   9.660  13.655   6.662
13769SOL    HW143139   9.642  13.616   6.577
13769SOL    HW243140   9.675  13.748   6.643
13770SOL     OW43141   1.216   8.581   3.331
13770SOL    HW143142   1.152   8.515   3.357
13770SOL    HW243143   1.282   8.532   3.282
13771SOL     OW43144  11.471  13.592  14.314
13771SOL    HW143145  11.549  13.588  14.259
13771SOL    HW243146  11.503  13.620  14.400
13772SOL     OW43147   5.849  13.515   6.597
13772SOL    HW143148   5.857  13.458   6.520
13772SOL    HW243149   5.803  13.592   6.564
13773SOL     OW43150   0.751  10.812   6.517
13773SOL    HW143151   0.801  10.834   6.595
13773SOL    HW243152   0.809  10.836   6.444
13774SOL     OW43153  10.751   6.912   5.571
13774SOL    HW143154  10.700   6.972   5.625
13774SOL    HW243155  10.838   6.911   5.612
13775SOL     OW43156   2.006   4.132  13.168
13775SOL    HW143157   2.012   4.197  13.238
13775SOL    HW243158   2.051   4.055  13.202
13776SOL     OW43159  13.619   1.193  13.526
13776SOL    HW143160  13.706   1.221  13.555
13776SOL    HW243161  13.579   1.154  13.603
13777SOL     OW43162   4.191   5.930   7.726
13777SOL    HW143163   4.187   5.837   7.707
13777SOL    HW243164   4.102   5.954   7.750
13778SOL     OW43165  10.103   2.721   8.158
13778SOL    HW143166  10.086   2.765   8.241
13778SOL    HW243167  10.018   2.722   8.112
13779SOL     OW43168   6.260   4.463   3.391
13779SOL    HW143169   6.204   4.400   3.346
13779SOL    HW243170   6.235   4.455   3.483
13780SOL     OW43171  11.479   6.396   4.495
13780SOL    HW143172  11.543   6.369   4.562
13780SOL    HW243173  11.520   6.471   4.452
13781SOL     OW43174   3.993   9.808   7.999
13781SOL    HW143175   3.953   9.734   8.044
13781SOL    HW243176   4.084   9.807   8.029
13782SOL     OW43177   1.750  11.829   2.766
13782SOL    HW143178   1.661  11.793   2.761
13782SOL    HW243179   1.806  11.759   2.734
13783SOL     OW43180   2.235   5.186   4.326
13783SOL    HW143181   2.314   5.166   4.275
13783SOL    HW243182   2.266   5.247   4.394
13784SOL     OW43183   0.690   5.722  14.014
13784SOL    HW143184   0.646   5.642  14.044
13784SOL    HW243185   0.783   5.697  14.009
13785SOL     OW43186  12.429   6.660  14.823
13785SOL    HW143187  12.374   6.713   0.006
13785SOL    HW243188  12.368   6.603  14.777
13786SOL     OW43189   7.117  14.563  11.791
13786SOL    HW143190   7.024  14.541  11.792
13786SOL    HW243191   7.156  14.500  11.732
13787SOL     OW43192   1.223  10.185   6.151
13787SOL    HW143193   1.208  10.114   6.214
13787SOL    HW243194   1.138  10.198   6.109
13788SOL     OW43195  11.361  14.357  12.692
13788SOL    HW143196  11.344  14.284  12.633
13788SOL    HW243197  11.397  14.426  12.636
13789SOL     OW43198  10.587   4.287   6.147
13789SOL    HW143199  10.636   4.367   6.169
13789SOL    HW243200  10.504   4.297   6.193
13790SOL     OW43201  14.305   9.185   8.067
13790SOL    HW143202  14.335   9.109   8.018
13790SOL    HW243203  14.334   9.168   8.157
13791SOL     OW43204   1.933   9.317   7.095
13791SOL    HW143205   1.940   9.404   7.057
13791SOL    HW243206   1.869   9.327   7.166
13792SOL     OW43207   5.540   3.588   0.672
13792SOL    HW143208   5.554   3.664   0.728
13792SOL    HW243209   5.545   3.513   0.732
13793SOL     OW43210   8.138   1.739   6.671
13793SOL    HW143211   8.073   1.732   6.601
13793SOL    HW243212   8.155   1.833   6.678
13794SOL     OW43213   0.463   4.352  12.744
13794SOL    HW143214   0.408   4.285  12.703
13794SOL    HW243215   0.436   4.353  12.835
13795SOL     OW43216   9.265   6.226  12.492
13795SOL    HW143217   9.314   6.308  12.503
13795SOL    HW243218   9.323   6.158  12.528
13796SOL     OW43219   9.607   9.579   8.908
13796SOL    HW143220   9.633   9.521   8.980
13796SOL    HW243221   9.585   9.662   8.951
13797SOL     OW43222  11.856   6.468   3.716
13797SOL    HW143223  11.844   6.547   3.769
13797SOL    HW243224  11.775   6.419   3.727
13798SOL     OW43225   9.834  10.090   4.083
13798SOL    HW143226   9.798  10.166   4.128
13798SOL    HW243227   9.759  10.050   4.040
13799SOL     OW43228   5.141  14.864   6.109
13799SOL    HW143229   5.149  14.793   6.046
13799SOL    HW243230   5.086  14.828   6.179
13800SOL     OW43231   2.899  10.817   8.663
13800SOL    HW143232   2.879  10.774   8.747
13800SOL    HW243233   2.987  10.787   8.641
13801SOL     OW43234   9.717   7.322   0.817
13801SOL    HW143235   9.794   7.302   0.871
13801SOL    HW243236   9.753   7.348   0.732
13802SOL     OW43237  12.232  13.292  10.387
13802SOL    HW143238  12.220  13.294  10.292
13802SOL    HW243239  12.217  13.201  10.412
13803SOL     OW43240  11.801   1.235   7.989
13803SOL    HW143241  11.708   1.242   7.968
13803SOL    HW243242  11.804   1.175   8.064
13804SOL     OW43243   1.889   9.602  12.807
13804SOL    HW143244   1.858   9.573  12.721
13804SOL    HW243245   1.843   9.546  12.869
13805SOL     OW43246   4.210   9.658  11.963
13805SOL    HW143247   4.268   9.725  11.929
13805SOL    HW243248   4.173   9.696  12.043
13806SOL     OW43249   8.114   7.713   3.711
13806SOL    HW143250   8.098   7.630   3.756
13806SOL    HW243251   8.033   7.732   3.664
13807SOL     OW43252   2.786  10.514  10.953
13807SOL    HW143253   2.712  10.454  10.941
13807SOL    HW243254   2.750  10.600  10.934
13808SOL     OW43255   3.029   6.926  14.597
13808SOL    HW143256   2.967   6.892  14.662
13808SOL    HW243257   3.049   6.851  14.541
13809SOL     OW43258   5.549   6.178   4.739
13809SOL    HW143259   5.576   6.202   4.827
13809SOL    HW243260   5.558   6.082   4.736
13810SOL     OW43261  13.847  12.493  13.070
13810SOL    HW143262  13.904  12.422  13.038
13810SOL    HW243263  13.853  12.560  13.001
13811SOL     OW43264   1.412   4.434   7.102
13811SOL    HW143265   1.376   4.388   7.026
13811SOL    HW243266   1.429   4.364   7.166
13812SOL     OW43267   4.072   9.267   7.621
13812SOL    HW143268   4.114   9.342   7.580
13812SOL    HW243269   4.023   9.303   7.694
13813SOL     OW43270   5.267   8.286   3.843
13813SOL    HW143271   5.280   8.204   3.794
13813SOL    HW243272   5.173   8.289   3.860
13814SOL     OW43273   1.564  10.552   1.196
13814SOL    HW143274   1.617  10.484   1.237
13814SOL    HW243275   1.479  10.545   1.240
13815SOL     OW43276   0.180   4.277  12.104
13815SOL    HW143277   0.139   4.358  12.135
13815SOL    HW243278   0.155   4.272  12.012
13816SOL     OW43279   4.340  11.812   1.169
13816SOL    HW143280   4.382  11.829   1.254
13816SOL    HW243281   4.246  11.815   1.189
13817SOL     OW43282   9.785   3.412   3.977
13817SOL    HW143283   9.766   3.321   4.001
13817SOL    HW243284   9.856   3.405   3.913
13818SOL     OW43285  13.974   1.472  10.659
13818SOL    HW143286  14.030   1.448  10.732
13818SOL    HW243287  13.890   1.429  10.678
13819SOL     OW43288  11.960   9.527   1.388
13819SOL    HW143289  12.029   9.559   1.446
13819SOL    HW243290  11.957   9.433   1.405
13820SOL     OW43291   4.252   6.096   1.517
13820SOL    HW143292   4.305   6.087   1.596
13820SOL    HW243293   4.198   6.018   1.515
13821SOL     OW43294  12.078   7.424  10.390
13821SOL    HW143295  12.117   7.399  10.307
13821SOL    HW243296  12.099   7.353  10.450
13822SOL     OW43297   7.092   6.314   4.447
13822SOL    HW143298   7.182   6.280   4.449
13822SOL    HW243299   7.099   6.397   4.401
13823SOL     OW43300   2.972   1.516   7.316
13823SOL    HW143301   2.977   1.610   7.334
13823SOL    HW243302   3.060   1.483   7.335
13824SOL     OW43303   7.436   9.670   7.363
13824SOL    HW143304   7.457   9.739   7.426
13824SOL    HW243305   7.367   9.620   7.405
13825SOL     OW43306   5.589   2.072  12.035
13825SOL    HW143307   5.581   2.002  11.970
13825SOL    HW243308   5.538   2.145  11.998
13826SOL     OW43309   9.336  13.330  13.499
13826SOL    HW143310   9.267  13.374  13.450
13826SOL    HW243311   9.348  13.384  13.577
13827SOL     OW43312  10.242   8.798   2.428
13827SOL    HW143313  10.252   8.840   2.514
13827SOL    HW243314  10.313   8.734   2.424
13828SOL     OW43315  10.369   5.122   4.096
13828SOL    HW143316  10.333   5.037   4.121
13828SOL    HW243317  10.438   5.101   4.033
13829SOL     OW43318  12.515   4.716  13.450
13829SOL    HW143319  12.569   4.739  13.374
13829SOL    HW243320  12.457   4.792  13.462
13830SOL     OW43321  11.516   5.315   3.251
13830SOL    HW143322  11.587   5.334   3.189
13830SOL    HW243323  11.476   5.401   3.268
13831SOL     OW43324   0.751  14.410  14.025
13831SOL    HW143325   0.731  14.453  14.108
13831SOL    HW243326   0.762  14.318  14.047
13832SOL     OW43327   7.544   3.688   2.362
13832SOL    HW143328   7.616   3.640   2.402
13832SOL    HW243329   7.472   3.681   2.425
13833SOL     OW43330   5.989  11.253  13.382
13833SOL    HW143331   6.066  11.222  13.334
13833SOL    HW243332   5.995  11.349  13.378
13834SOL     OW43333   9.559   0.588   5.973
13834SOL    HW143334   9.528   0.656   5.913
13834SOL    HW243335   9.536   0.621   6.060
13835SOL     OW43336   0.442   2.075   5.076
13835SOL    HW143337   0.531   2.077   5.112
13835SOL    HW243338   0.437   2.152   5.019
13836SOL     OW43339   3.486  12.502   4.036
13836SOL    HW143340   3.493  12.514   3.941
13836SOL    HW243341   3.400  12.462   4.048
13837SOL     OW43342   0.498   8.892   8.899
13837SOL    HW143343   0.558   8.863   8.968
13837SOL    HW243344   0.517   8.985   8.889
13838SOL     OW43345   9.681   3.089  13.943
13838SOL    HW143346   9.676   3.182  13.920
13838SOL    HW243347   9.590   3.058  13.936
13839SOL     OW43348  12.796   5.838   3.731
13839SOL    HW143349  12.767   5.893   3.803
13839SOL    HW243350  12.845   5.897   3.674
13840SOL     OW43351   7.683   6.541   9.624
13840SOL    HW143352   7.619   6.598   9.667
13840SOL    HW243353   7.765   6.556   9.672
13841SOL     OW43354   3.869   9.070   3.688
13841SOL    HW143355   3.931   9.142   3.694
13841SOL    HW243356   3.820   9.087   3.608
13842SOL     OW43357  12.132   9.342  11.457
13842SOL    HW143358  12.088   9.349  11.542
13842SOL    HW243359  12.207   9.285  11.473
13843SOL     OW43360  13.464  10.782  14.796
13843SOL    HW143361  13.480  10.688  14.795
13843SOL    HW243362  13.401  10.796  14.725
13844SOL     OW43363   4.129   2.981   4.369
13844SOL    HW143364   4.133   2.972   4.464
13844SOL    HW243365   4.188   2.913   4.336
13845SOL     OW43366   9.594   4.876   8.317
13845SOL    HW143367   9.617   4.944   8.255
13845SOL    HW243368   9.622   4.909   8.402
13846SOL     OW43369  13.503   3.904   0.925
13846SOL    HW143370  13.480   3.817   0.956
13846SOL    HW243371  13.596   3.913   0.946
13847SOL     OW43372   3.132   6.146  10.853
13847SOL    HW143373   3.198   6.208  10.822
13847SOL    HW243374   3.115   6.089  10.778
13848SOL     OW43375   9.720   5.894   5.472
13848SOL    HW143376   9.721   5.948   5.550
13848SOL    HW243377   9.812   5.874   5.455
13849SOL     OW43378  10.697   1.266   6.672
13849SOL    HW143379  10.736   1.316   6.601
13849SOL    HW243380  10.655   1.191   6.629
13850SOL     OW43381   1.780   2.287   7.639
13850SOL    HW143382   1.820   2.202   7.622
13850SOL    HW243383   1.752   2.282   7.730
13851SOL     OW43384  10.017   6.898   6.065
13851SOL    HW143385   9.957   6.828   6.091
13851SOL    HW243386   9.965   6.954   6.007
13852SOL     OW43387   9.261   3.829  10.889
13852SOL    HW143388   9.223   3.897  10.945
13852SOL    HW243389   9.281   3.874  10.807
13853SOL     OW43390   2.698   6.587  11.611
13853SOL    HW143391   2.652   6.547  11.537
13853SOL    HW243392   2.669   6.678  11.610
13854SOL     OW43393   5.918   2.139  11.504
13854SOL    HW143394   5.918   2.122  11.410
13854SOL    HW243395   5.992   2.089  11.538
13855SOL     OW43396   0.288   6.418   6.853
13855SOL    HW143397   0.202   6.388   6.884
13855SOL    HW243398   0.344   6.417   6.931
13856SOL     OW43399   2.237   9.974  11.441
13856SOL    HW143400   2.220  10.068  11.446
13856SOL    HW243401   2.159   9.938  11.399
13857SOL     OW43402   5.355   6.763  12.344
13857SOL    HW143403   5.332   6.832  12.406
13857SOL    HW243404   5.324   6.682  12.385
13858SOL     OW43405  10.472   2.228  13.184
13858SOL    HW143406  10.438   2.316  13.170
13858SOL    HW243407  10.453   2.182  13.102
13859SOL     OW43408   8.989   4.104   5.183
13859SOL    HW143409   9.085   4.102   5.185
13859SOL    HW243410   8.967   4.197   5.192
13860SOL     OW43411   1.410   1.768   2.855
13860SOL    HW143412   1.464   1.836   2.815
13860SOL    HW243413   1.322   1.783   2.819
13861SOL     OW43414  10.229  12.303   7.628
13861SOL    HW143415  10.229  12.239   7.699
13861SOL    HW243416  10.157  12.276   7.571
13862SOL     OW43417  13.204   2.377   0.597
13862SOL    HW143418  13.243   2.327   0.669
13862SOL    HW243419  13.222   2.468   0.619
13863SOL     OW43420  11.602  11.507   5.558
13863SOL    HW143421  11.537  11.563   5.516
13863SOL    HW243422  11.678  11.563   5.573
13864SOL     OW43423  11.593   2.015   9.685
13864SOL    HW143424  11.643   2.097   9.681
13864SOL    HW243425  11.572   1.996   9.593
13865SOL     OW43426  11.469   5.974   9.156
13865SOL    HW143427  11.548   5.927   9.132
13865SOL    HW243428  11.398   5.929   9.109
13866SOL     OW43429   6.431  11.801   8.911
13866SOL    HW143430   6.345  11.761   8.900
13866SOL    HW243431   6.474  11.792   8.826
13867SOL     OW43432   4.054   1.539   1.915
13867SOL    HW143433   4.045   1.455   1.960
13867SOL    HW243434   3.965   1.572   1.905
13868SOL     OW43435   4.685   1.448   5.603
13868SOL    HW143436   4.778   1.461   5.582
13868SOL    HW243437   4.641   1.522   5.562
13869SOL     OW43438  10.852   8.037   2.124
13869SOL    HW143439  10.783   8.008   2.183
13869SOL    HW243440  10.919   8.073   2.182
13870SOL     OW43441   0.908   5.781  11.402
13870SOL    HW143442   0.996   5.759  11.373
13870SOL    HW243443   0.920   5.820  11.488
13871SOL     OW43444   4.389   4.890   0.871
13871SOL    HW143445   4.451   4.947   0.915
13871SOL    HW243446   4.396   4.806   0.917
13872SOL     OW43447   2.680   8.737   7.071
13872SOL    HW143448   2.610   8.790   7.109
13872SOL    HW243449   2.761   8.776   7.104
13873SOL     OW43450   7.225  14.591   9.410
13873SOL    HW143451   7.165  14.632   9.348
13873SOL    HW243452   7.274  14.664   9.448
13874SOL     OW43453  13.286   0.271   4.285
13874SOL    HW143454  13.318   0.249   4.197
13874SOL    HW243455  13.246   0.191   4.317
13875SOL     OW43456   2.961  12.411   9.729
13875SOL    HW143457   2.906  12.480   9.765
13875SOL    HW243458   2.910  12.331   9.741
13876SOL     OW43459   6.561   1.725   7.339
13876SOL    HW143460   6.556   1.672   7.259
13876SOL    HW243461   6.654   1.728   7.360
13877SOL     OW43462   1.575  13.075   4.183
13877SOL    HW143463   1.555  13.008   4.118
13877SOL    HW243464   1.645  13.037   4.236
13878SOL     OW43465   8.061   6.169   8.719
13878SOL    HW143466   8.117   6.242   8.693
13878SOL    HW243467   8.032   6.191   8.807
13879SOL     OW43468  10.011   9.429  10.609
13879SOL    HW143469  10.074   9.413  10.679
13879SOL    HW243470  10.028   9.520  10.582
13880SOL     OW43471   1.697   7.906   9.903
13880SOL    HW143472   1.708   7.912   9.808
13880SOL    HW243473   1.742   7.984   9.937
13881SOL     OW43474   6.252  11.078  14.141
13881SOL    HW143475   6.330  11.046  14.188
13881SOL    HW243476   6.272  11.061  14.048
13882SOL     OW43477   7.315  11.774   2.618
13882SOL    HW143478   7.331  11.785   2.712
13882SOL    HW243479   7.355  11.690   2.597
13883SOL     OW43480  12.307  11.126   8.508
13883SOL    HW143481  12.341  11.098   8.593
13883SOL    HW243482  12.255  11.204   8.528
13884SOL     OW43483   7.363   0.287   5.804
13884SOL    HW143484   7.393   0.267   5.716
13884SOL    HW243485   7.275   0.250   5.809
13885SOL     OW43486   6.454  10.617   3.596
13885SOL    HW143487   6.456  10.577   3.683
13885SOL    HW243488   6.361  10.625   3.575
13886SOL     OW43489  13.807   4.808  13.575
13886SOL    HW143490  13.725   4.781  13.533
13886SOL    HW243491  13.811   4.903  13.562
13887SOL     OW43492  11.755   3.137  11.116
13887SOL    HW143493  11.688   3.110  11.179
13887SOL    HW243494  11.834   3.090  11.143
13888SOL     OW43495   9.468   4.434  13.224
13888SOL    HW143496   9.482   4.496  13.152
13888SOL    HW243497   9.408   4.369  13.188
13889SOL     OW43498   5.282   7.988   0.278
13889SOL    HW143499   5.272   7.894   0.265
13889SOL    HW243500   5.323   8.019   0.198
13890SOL     OW43501  12.863  11.646   4.386
13890SOL    HW143502  12.957  11.647   4.401
13890SOL    HW243503  12.853  11.601   4.302
13891SOL     OW43504   9.496   7.994   5.180
13891SOL    HW143505   9.540   8.017   5.098
13891SOL    HW243506   9.458   7.908   5.163
13892SOL     OW43507   3.891   5.140  14.510
13892SOL    HW143508   3.961   5.146  14.575
13892SOL    HW243509   3.846   5.059  14.532
13893SOL     OW43510   4.635   6.079  14.398
13893SOL    HW143511   4.720   6.118  14.419
13893SOL    HW243512   4.655   5.989  14.374
13894SOL     OW43513  12.526   4.610   7.354
13894SOL    HW143514  12.466   4.649   7.289
13894SOL    HW243515  12.577   4.684   7.386
13895SOL     OW43516   7.809   1.017   3.564
13895SOL    HW143517   7.847   1.099   3.593
13895SOL    HW243518   7.808   0.961   3.642
13896SOL     OW43519   6.231   6.120   9.746
13896SOL    HW143520   6.248   6.115   9.840
13896SOL    HW243521   6.190   6.037   9.724
13897SOL     OW43522   8.954   8.401  13.848
13897SOL    HW143523   9.031   8.455  13.834
13897SOL    HW243524   8.926   8.375  13.760
13898SOL     OW43525   1.522  14.489  13.460
13898SOL    HW143526   1.550  14.558  13.520
13898SOL    HW243527   1.524  14.530  13.374
13899SOL     OW43528   5.165   4.355   7.817
13899SOL    HW143529   5.207   4.317   7.894
13899SOL    HW243530   5.205   4.309   7.743
13900SOL     OW43531   6.700   7.528  13.455
13900SOL    HW143532   6.648   7.605  13.476
13900SOL    HW243533   6.671   7.462  13.518
13901SOL     OW43534   2.015  11.190   3.353
13901SOL    HW143535   2.027  11.115   3.412
13901SOL    HW243536   1.923  11.214   3.363
13902SOL     OW43537   4.868   5.395   9.189
13902SOL    HW143538   4.842   5.459   9.123
13902SOL    HW243539   4.960   5.376   9.169
13903SOL     OW43540   2.364   6.995  12.998
13903SOL    HW143541   2.328   6.919  13.043
13903SOL    HW243542   2.405   6.959  12.919
13904SOL     OW43543   0.838  14.462   5.686
13904SOL    HW143544   0.777  14.406   5.638
13904SOL    HW243545   0.860  14.532   5.624
13905SOL     OW43546   1.097  14.714  10.390
13905SOL    HW143547   1.028  14.727  10.455
13905SOL    HW243548   1.050  14.701  10.308
13906SOL     OW43549  10.461  13.007   0.704
13906SOL    HW143550  10.409  13.026   0.783
13906SOL    HW243551  10.436  13.075   0.642
13907SOL     OW43552   3.844   6.656   2.547
13907SOL    HW143553   3.857   6.747   2.572
13907SOL    HW243554   3.828   6.659   2.452
13908SOL     OW43555  12.894   3.931   7.960
13908SOL    HW143556  12.985   3.908   7.940
13908SOL    HW243557  12.843   3.862   7.919
13909SOL     OW43558  11.444  11.443   0.079
13909SOL    HW143559  11.407  11.431   0.166
13909SOL    HW243560  11.501  11.366   0.066
13910SOL     OW43561  13.116  13.613   3.977
13910SOL    HW143562  13.024  13.603   4.001
13910SOL    HW243563  13.147  13.523   3.961
13911SOL     OW43564  12.218   1.027   3.879
13911SOL    HW143565  12.230   0.983   3.963
13911SOL    HW243566  12.238   1.118   3.896
13912SOL     OW43567   6.926   2.373   8.010
13912SOL    HW143568   6.875   2.423   7.946
13912SOL    HW243569   6.997   2.432   8.036
13913SOL     OW43570  10.295   5.572  14.836
13913SOL    HW143571  10.246   5.523   0.026
13913SOL    HW243572  10.237   5.644  14.812
13914SOL     OW43573   3.373   9.463   3.472
13914SOL    HW143574   3.285   9.433   3.449
13914SOL    HW243575   3.367   9.484   3.565
13915SOL     OW43576   6.214   3.959   8.863
13915SOL    HW143577   6.276   4.028   8.886
13915SOL    HW243578   6.162   3.997   8.792
13916SOL     OW43579   4.108  10.132  11.382
13916SOL    HW143580   4.153  10.173  11.457
13916SOL    HW243581   4.017  10.161  11.391
13917SOL     OW43582   5.773  12.923   6.238
13917SOL    HW143583   5.738  12.972   6.164
13917SOL    HW243584   5.754  12.979   6.314
13918SOL     OW43585   7.337   2.586   6.793
13918SOL    HW143586   7.287   2.575   6.712
13918SOL    HW243587   7.273   2.571   6.863
13919SOL     OW43588  12.783   5.312   9.639
13919SOL    HW143589  12.790   5.216   9.633
13919SOL    HW243590  12.714   5.327   9.703
13920SOL     OW43591   8.899   4.495   1.687
13920SOL    HW143592   8.962   4.460   1.623
13920SOL    HW243593   8.837   4.423   1.701
13921SOL     OW43594   9.317  10.135  13.990
13921SOL    HW143595   9.278  10.076  14.054
13921SOL    HW243596   9.266  10.216  13.997
13922SOL     OW43597  12.752   7.171   6.757
13922SOL    HW143598  12.673   7.225   6.761
13922SOL    HW243599  12.800   7.205   6.681
13923SOL     OW43600  14.671   5.407   6.323
13923SOL    HW143601  14.746   5.466   6.313
13923SOL    HW243602  14.603   5.461   6.362
13924SOL     OW43603   6.654  11.995  14.590
13924SOL    HW143604   6.563  11.986  14.561
13924SOL    HW243605   6.701  11.927  14.543
13925SOL     OW43606   3.692   8.471   3.777
13925SOL    HW143607   3.770   8.500   3.730
13925SOL    HW243608   3.688   8.377   3.762
13926SOL     OW43609  12.499   3.085   2.323
13926SOL    HW143610  12.554   3.144   2.272
13926SOL    HW243611  12.429   3.140   2.357
13927SOL     OW43612   1.621  14.580   4.160
13927SOL    HW143613   1.597  14.498   4.116
13927SOL    HW243614   1.716  14.574   4.172
13928SOL     OW43615   2.966  10.175   8.059
13928SOL    HW143616   3.042  10.123   8.032
13928SOL    HW243617   2.955  10.154   8.152
13929SOL     OW43618   6.256   7.621   0.794
13929SOL    HW143619   6.303   7.541   0.818
13929SOL    HW243620   6.288   7.643   0.707
13930SOL     OW43621  13.694   9.372   7.505
13930SOL    HW143622  13.700   9.294   7.450
13930SOL    HW243623  13.670   9.339   7.592
13931SOL     OW43624   0.139  12.145   3.745
13931SOL    HW143625   0.232  12.159   3.757
13931SOL    HW243626   0.131  12.115   3.654
13932SOL     OW43627  14.267  12.616   2.958
13932SOL    HW143628  14.187  12.632   2.907
13932SOL    HW243629  14.321  12.561   2.901
13933SOL     OW43630   5.325  13.684   8.017
13933SOL    HW143631   5.365  13.601   7.993
13933SOL    HW243632   5.301  13.724   7.934
13934SOL     OW43633  10.256  10.488  10.742
13934SOL    HW143634  10.199  10.461  10.814
13934SOL    HW243635  10.230  10.579  10.724
13935SOL     OW43636   7.479  14.270   2.142
13935SOL    HW143637   7.424  14.197   2.113
13935SOL    HW243638   7.527  14.235   2.217
13936SOL     OW43639   2.019   6.935  13.483
13936SOL    HW143640   2.077   7.006  13.457
13936SOL    HW243641   2.070   6.883  13.545
13937SOL     OW43642   3.581   9.731   9.507
13937SOL    HW143643   3.588   9.794   9.435
13937SOL    HW243644   3.490   9.738   9.536
13938SOL     OW43645   0.983   7.973   0.824
13938SOL    HW143646   0.987   7.955   0.918
13938SOL    HW243647   0.972   7.886   0.784
13939SOL     OW43648  12.929   4.969   6.213
13939SOL    HW143649  12.939   5.055   6.172
13939SOL    HW243650  12.883   4.916   6.147
13940SOL     OW43651   8.699   2.080  10.962
13940SOL    HW143652   8.670   2.137  10.891
13940SOL    HW243653   8.707   1.994  10.921
13941SOL     OW43654  11.916   2.144   5.046
13941SOL    HW143655  11.821   2.140   5.054
13941SOL    HW243656  11.942   2.219   5.099
13942SOL     OW43657  14.047   6.748   4.066
13942SOL    HW143658  14.091   6.833   4.070
13942SOL    HW243659  13.955   6.767   4.081
13943SOL     OW43660   9.914   6.351   6.841
13943SOL    HW143661   9.885   6.315   6.756
13943SOL    HW243662   9.834   6.357   6.893
13944SOL     OW43663   4.012   1.925  11.357
13944SOL    HW143664   4.070   1.895  11.427
13944SOL    HW243665   3.965   1.846  11.329
13945SOL     OW43666   8.057  14.078  10.625
13945SOL    HW143667   8.101  14.089  10.541
13945SOL    HW243668   8.019  14.164  10.644
13946SOL     OW43669   9.937   8.634  14.815
13946SOL    HW143670  10.031   8.621  14.806
13946SOL    HW243671   9.902   8.619  14.727
13947SOL     OW43672   9.378  12.422  14.612
13947SOL    HW143673   9.391  12.440  14.519
13947SOL    HW243674   9.318  12.489  14.642
13948SOL     OW43675  12.244   8.878   1.566
13948SOL    HW143676  12.308   8.883   1.495
13948SOL    HW243677  12.241   8.966   1.603
13949SOL     OW43678  11.416  13.614   7.141
13949SOL    HW143679  11.439  13.658   7.223
13949SOL    HW243680  11.321  13.607   7.144
13950SOL     OW43681  12.844  11.427   3.849
13950SOL    HW143682  12.869  11.408   3.758
13950SOL    HW243683  12.818  11.342   3.884
13951SOL     OW43684  11.526   3.078   2.450
13951SOL    HW143685  11.603   3.090   2.395
13951SOL    HW243686  11.497   2.988   2.432
13952SOL     OW43687   9.579   1.851   8.387
13952SOL    HW143688   9.531   1.769   8.389
13952SOL    HW243689   9.532   1.908   8.447
13953SOL     OW43690   2.595   5.681   8.310
13953SOL    HW143691   2.672   5.646   8.356
13953SOL    HW243692   2.553   5.604   8.272
13954SOL     OW43693   0.714  13.005   1.546
13954SOL    HW143694   0.677  12.920   1.573
13954SOL    HW243695   0.654  13.070   1.584
13955SOL     OW43696  12.105  13.539   5.993
13955SOL    HW143697  12.164  13.465   6.005
13955SOL    HW243698  12.027  13.502   5.952
13956SOL     OW43699  11.442   1.319  10.180
13956SOL    HW143700  11.359   1.284  10.148
13956SOL    HW243701  11.418   1.368  10.259
13957SOL     OW43702   9.577   4.701   7.626
13957SOL    HW143703   9.596   4.608   7.617
13957SOL    HW243704   9.595   4.720   7.719
13958SOL     OW43705   9.092   1.898  10.981
13958SOL    HW143706   9.160   1.966  10.975
13958SOL    HW243707   9.123   1.828  10.924
13959SOL     OW43708  13.280   1.904  12.338
13959SOL    HW143709  13.296   1.986  12.291
13959SOL    HW243710  13.302   1.835  12.274
13960SOL     OW43711   5.354   0.064   7.964
13960SOL    HW143712   5.327   0.082   8.054
13960SOL    HW243713   5.274   0.035   7.921
13961SOL     OW43714  13.994   4.163   0.895
13961SOL    HW143715  13.907   4.138   0.862
13961SOL    HW243716  13.984   4.255   0.921
13962SOL     OW43717   6.267  11.737  10.892
13962SOL    HW143718   6.295  11.647  10.911
13962SOL    HW243719   6.250  11.775  10.978
13963SOL     OW43720   6.787   7.059   4.755
13963SOL    HW143721   6.796   7.080   4.848
13963SOL    HW243722   6.724   6.987   4.752
13964SOL     OW43723   3.999  11.553   2.794
13964SOL    HW143724   4.045  11.519   2.718
13964SOL    HW243725   4.004  11.483   2.859
13965SOL     OW43726   5.388   0.820  12.646
13965SOL    HW143727   5.413   0.898  12.695
13965SOL    HW243728   5.441   0.750  12.683
13966SOL     OW43729  10.577   0.378   4.945
13966SOL    HW143730  10.663   0.345   4.920
13966SOL    HW243731  10.552   0.437   4.874
13967SOL     OW43732   4.089   0.606   9.522
13967SOL    HW143733   4.174   0.571   9.496
13967SOL    HW243734   4.055   0.544   9.587
13968SOL     OW43735   8.274  13.074   0.802
13968SOL    HW143736   8.243  12.984   0.792
13968SOL    HW243737   8.315  13.076   0.889
13969SOL     OW43738  14.705   5.240   4.231
13969SOL    HW143739  14.664   5.270   4.312
13969SOL    HW243740  14.683   5.306   4.166
13970SOL     OW43741   4.826   7.594   6.381
13970SOL    HW143742   4.816   7.661   6.449
13970SOL    HW243743   4.912   7.612   6.343
13971SOL     OW43744   5.453   8.728   9.222
13971SOL    HW143745   5.491   8.815   9.230
13971SOL    HW243746   5.528   8.669   9.232
13972SOL     OW43747  10.301  14.578   4.391
13972SOL    HW143748  10.291  14.571   4.296
13972SOL    HW243749  10.216  14.552   4.426
13973SOL     OW43750   6.716   6.645   4.095
13973SOL    HW143751   6.765   6.709   4.043
13973SOL    HW243752   6.624   6.664   4.076
13974SOL     OW43753  14.248  13.823   2.556
13974SOL    HW143754  14.260  13.823   2.462
13974SOL    HW243755  14.333  13.851   2.592
13975SOL     OW43756  14.597   8.731   1.165
13975SOL    HW143757  14.611   8.670   1.092
13975SOL    HW243758  14.530   8.688   1.219
13976SOL     OW43759  14.831   4.930   3.462
13976SOL    HW143760  14.813   4.952   3.553
13976SOL    HW243761  14.747   4.941   3.417
13977SOL     OW43762   6.077   6.023   3.572
13977SOL    HW143763   5.997   6.035   3.623
13977SOL    HW243764   6.136   6.093   3.603
13978SOL     OW43765   1.832  14.073   1.133
13978SOL    HW143766   1.798  14.131   1.066
13978SOL    HW243767   1.773  14.083   1.208
13979SOL     OW43768   7.842  10.241   6.604
13979SOL    HW143769   7.809  10.206   6.687
13979SOL    HW243770   7.936  10.252   6.619
13980SOL     OW43771   5.047   4.562   3.832
13980SOL    HW143772   5.069   4.473   3.861
13980SOL    HW243773   5.115   4.583   3.767
13981SOL     OW43774   3.302   1.641   9.685
13981SOL    HW143775   3.372   1.657   9.621
13981SOL    HW243776   3.227   1.692   9.652
13982SOL     OW43777  12.606   7.480   1.190
13982SOL    HW143778  12.678   7.482   1.126
13982SOL    HW243779  12.539   7.536   1.151
13983SOL     OW43780  13.306   6.433   6.671
13983SOL    HW143781  13.283   6.467   6.757
13983SOL    HW243782  13.225   6.392   6.639
13984SOL     OW43783   0.107  10.619   0.758
13984SOL    HW143784   0.131  10.537   0.715
13984SOL    HW243785   0.107  10.684   0.688
13985SOL     OW43786   8.478   6.470  12.284
13985SOL    HW143787   8.539   6.517  12.340
13985SOL    HW243788   8.503   6.378  12.293
13986SOL     OW43789   0.082   9.314  13.663
13986SOL    HW143790   0.068   9.315  13.758
13986SOL    HW243791   0.076   9.406  13.637
13987SOL     OW43792  11.878   0.449   9.036
13987SOL    HW143793  11.866   0.394   9.113
13987SOL    HW243794  11.819   0.523   9.050
13988SOL     OW43795  12.093   1.009   9.426
13988SOL    HW143796  12.163   1.069   9.400
13988SOL    HW243797  12.137   0.942   9.478
13989SOL     OW43798   9.913  13.798   9.626
13989SOL    HW143799   9.911  13.831   9.536
13989SOL    HW243800   9.970  13.720   9.622
13990SOL     OW43801  14.357   1.463   6.086
13990SOL    HW143802  14.342   1.417   6.003
13990SOL    HW243803  14.382   1.394   6.147
13991SOL     OW43804   1.928   3.130   3.480
13991SOL    HW143805   1.996   3.079   3.435
13991SOL    HW243806   1.974   3.204   3.519
13992SOL     OW43807   1.311  14.259   4.448
13992SOL    HW143808   1.219  14.280   4.430
13992SOL    HW243809   1.345  14.338   4.490
13993SOL     OW43810   4.830   6.321   2.993
13993SOL    HW143811   4.848   6.308   2.900
13993SOL    HW243812   4.777   6.246   3.018
13994SOL     OW43813   6.985   4.635   2.626
13994SOL    HW143814   7.013   4.629   2.535
13994SOL    HW243815   7.018   4.719   2.656
13995SOL     OW43816  12.533   7.597   5.218
13995SOL    HW143817  12.618   7.621   5.254
13995SOL    HW243818  12.470   7.635   5.278
13996SOL     OW43819   1.731   7.893   8.792
13996SOL    HW143820   1.646   7.850   8.781
13996SOL    HW243821   1.774   7.884   8.707
13997SOL     OW43822   3.585  13.133   2.421
13997SOL    HW143823   3.601  13.223   2.448
13997SOL    HW243824   3.611  13.080   2.497
13998SOL     OW43825   1.420   8.064  13.506
13998SOL    HW143826   1.343   8.035  13.458
13998SOL    HW243827   1.411   8.159  13.512
13999SOL     OW43828  13.108  11.268   1.834
13999SOL    HW143829  13.128  11.219   1.914
13999SOL    HW243830  13.190  11.312   1.812
14000SOL     OW43831   4.425  10.775   1.381
14000SOL    HW143832   4.333  10.796   1.366
14000SOL    HW243833   4.470  10.859   1.373
14001SOL     OW43834   4.662   7.203  10.894
14001SOL    HW143835   4.744   7.242  10.926
14001SOL    HW243836   4.632   7.264  10.827
14002SOL     OW43837  10.166  14.122   1.499
14002SOL    HW143838  10.074  14.137   1.478
14002SOL    HW243839  10.206  14.099   1.415
14003SOL     OW43840   7.645  12.026   0.565
14003SOL    HW143841   7.636  11.948   0.619
14003SOL    HW243842   7.597  12.094   0.612
14004SOL     OW43843  14.494   7.323   2.927
14004SOL    HW143844  14.573   7.327   2.980
14004SOL    HW243845  14.467   7.415   2.918
14005SOL     OW43846   4.095   9.295  10.868
14005SOL    HW143847   4.151   9.220  10.848
14005SOL    HW243848   4.096   9.300  10.964
14006SOL     OW43849  11.404   3.168  13.123
14006SOL    HW143850  11.390   3.194  13.214
14006SOL    HW243851  11.328   3.202  13.076
14007SOL     OW43852  14.621   1.874  12.998
14007SOL    HW143853  14.675   1.810  13.045
14007SOL    HW243854  14.608   1.945  13.060
14008SOL     OW43855   5.769  13.742  14.770
14008SOL    HW143856   5.715  13.810  14.811
14008SOL    HW243857   5.857  13.779  14.768
14009SOL     OW43858   2.139   6.353   7.859
14009SOL    HW143859   2.100   6.295   7.794
14009SOL    HW243860   2.196   6.411   7.809
14010SOL     OW43861  14.081   5.600   7.994
14010SOL    HW143862  13.992   5.565   8.003
14010SOL    HW243863  14.078   5.684   8.039
14011SOL     OW43864   1.325   0.196   7.025
14011SOL    HW143865   1.364   0.155   6.947
14011SOL    HW243866   1.375   0.276   7.037
14012SOL     OW43867   0.945   8.052  12.288
14012SOL    HW143868   1.011   8.121  12.281
14012SOL    HW243869   0.929   8.043  12.382
14013SOL     OW43870   7.708   5.068   1.378
14013SOL    HW143871   7.625   5.034   1.413
14013SOL    HW243872   7.711   5.035   1.288
14014SOL     OW43873   8.837   7.497  11.796
14014SOL    HW143874   8.758   7.547  11.816
14014SOL    HW243875   8.821   7.410  11.833
14015SOL     OW43876   1.985   1.725  12.469
14015SOL    HW143877   1.917   1.673  12.512
14015SOL    HW243878   2.034   1.765  12.541
14016SOL     OW43879   3.356  11.490   4.199
14016SOL    HW143880   3.314  11.433   4.264
14016SOL    HW243881   3.284  11.523   4.146
14017SOL     OW43882   1.566  10.830   2.217
14017SOL    HW143883   1.647  10.788   2.187
14017SOL    HW243884   1.569  10.824   2.312
14018SOL     OW43885   9.042  11.498   1.994
14018SOL    HW143886   8.981  11.500   1.920
14018SOL    HW243887   8.988  11.478   2.070
14019SOL     OW43888  12.748   6.712   0.699
14019SOL    HW143889  12.660   6.689   0.669
14019SOL    HW243890  12.777   6.636   0.748
14020SOL     OW43891  10.866   6.200   4.566
14020SOL    HW143892  10.833   6.215   4.478
14020SOL    HW243893  10.961   6.200   4.557
14021SOL     OW43894   1.484   5.881  13.720
14021SOL    HW143895   1.517   5.934  13.648
14021SOL    HW243896   1.558   5.875  13.781
14022SOL     OW43897  11.280   9.482   4.067
14022SOL    HW143898  11.337   9.551   4.099
14022SOL    HW243899  11.318   9.401   4.101
14023SOL     OW43900  12.816   2.286  12.606
14023SOL    HW143901  12.772   2.366  12.580
14023SOL    HW243902  12.884   2.273  12.541
14024SOL     OW43903   2.761   8.156   2.438
14024SOL    HW143904   2.841   8.136   2.487
14024SOL    HW243905   2.744   8.076   2.387
14025SOL     OW43906  14.581  14.819  10.936
14025SOL    HW143907  14.585  14.724  10.922
14025SOL    HW243908  14.523  14.851  10.866
14026SOL     OW43909   1.457   4.427   7.798
14026SOL    HW143910   1.400   4.481   7.852
14026SOL    HW243911   1.546   4.450   7.825
14027SOL     OW43912   2.391   4.559  11.182
14027SOL    HW143913   2.475   4.518  11.206
14027SOL    HW243914   2.335   4.485  11.157
14028SOL     OW43915   9.531  12.138   1.616
14028SOL    HW143916   9.494  12.126   1.703
14028SOL    HW243917   9.482  12.211   1.579
14029SOL     OW43918   7.174  14.655  10.404
14029SOL    HW143919   7.258  14.620  10.433
14029SOL    HW243920   7.163  14.621  10.315
14030SOL     OW43921   7.247   1.608   4.312
14030SOL    HW143922   7.264   1.558   4.232
14030SOL    HW243923   7.179   1.671   4.287
14031SOL     OW43924   1.855   1.917  10.524
14031SOL    HW143925   1.942   1.919  10.483
14031SOL    HW243926   1.823   1.828  10.507
14032SOL     OW43927   6.511  13.626   9.436
14032SOL    HW143928   6.553  13.586   9.360
14032SOL    HW243929   6.465  13.703   9.401
14033SOL     OW43930   9.641  13.806   5.062
14033SOL    HW143931   9.644  13.862   4.984
14033SOL    HW243932   9.606  13.723   5.030
14034SOL     OW43933   7.702  11.339  12.720
14034SOL    HW143934   7.719  11.307  12.632
14034SOL    HW243935   7.778  11.393  12.740
14035SOL     OW43936   5.018   2.447  14.378
14035SOL    HW143937   5.113   2.436  14.372
14035SOL    HW243938   5.003   2.540  14.360
14036SOL     OW43939   5.993   3.308   7.963
14036SOL    HW143940   6.069   3.279   7.913
14036SOL    HW243941   6.030   3.349   8.042
14037SOL     OW43942  11.216   4.802   0.560
14037SOL    HW143943  11.214   4.707   0.569
14037SOL    HW243944  11.173   4.834   0.639
14038SOL     OW43945   2.025   0.910  13.363
14038SOL    HW143946   1.951   0.853  13.342
14038SOL    HW243947   2.055   0.942  13.278
14039SOL     OW43948   7.409   7.516   7.786
14039SOL    HW143949   7.361   7.445   7.744
14039SOL    HW243950   7.481   7.473   7.832
14040SOL     OW43951   1.087   0.305   3.504
14040SOL    HW143952   1.086   0.400   3.516
14040SOL    HW243953   1.062   0.293   3.413
14041SOL     OW43954   1.656   5.205  10.856
14041SOL    HW143955   1.738   5.238  10.894
14041SOL    HW243956   1.653   5.113  10.882
14042SOL     OW43957  10.735  12.336   6.689
14042SOL    HW143958  10.696  12.423   6.691
14042SOL    HW243959  10.673  12.283   6.639
14043SOL     OW43960  10.121   2.827   7.220
14043SOL    HW143961  10.096   2.879   7.143
14043SOL    HW243962  10.070   2.747   7.212
14044SOL     OW43963   5.436   7.828   1.650
14044SOL    HW143964   5.353   7.871   1.673
14044SOL    HW243965   5.494   7.848   1.724
14045SOL     OW43966   8.071   8.365   0.705
14045SOL    HW143967   7.983   8.390   0.677
14045SOL    HW243968   8.128   8.392   0.633
14046SOL     OW43969   3.035  10.349  14.163
14046SOL    HW143970   2.948  10.386  14.178
14046SOL    HW243971   3.056  10.303  14.244
14047SOL     OW43972   6.348   5.523   6.206
14047SOL    HW143973   6.365   5.534   6.113
14047SOL    HW243974   6.335   5.612   6.239
14048SOL     OW43975  13.777   7.870   4.342
14048SOL    HW143976  13.802   7.951   4.296
14048SOL    HW243977  13.749   7.899   4.429
14049SOL     OW43978  13.921   2.732   1.691
14049SOL    HW143979  13.891   2.821   1.707
14049SOL    HW243980  14.000   2.742   1.638
14050SOL     OW43981   9.399  14.217  14.381
14050SOL    HW143982   9.308  14.224  14.411
14050SOL    HW243983   9.441  14.296  14.414
14051SOL     OW43984  14.185   0.890   7.640
14051SOL    HW143985  14.267   0.852   7.609
14051SOL    HW243986  14.134   0.815   7.670
14052SOL     OW43987   1.076  10.470   4.045
14052SOL    HW143988   1.101  10.404   4.109
14052SOL    HW243989   0.988  10.446   4.018
14053SOL     OW43990   3.875  12.030   4.708
14053SOL    HW143991   3.919  12.030   4.623
14053SOL    HW243992   3.905  12.109   4.751
14054SOL     OW43993   4.593   6.961   6.433
14054SOL    HW143994   4.581   6.997   6.521
14054SOL    HW243995   4.558   7.029   6.375
14055SOL     OW43996  10.710  14.402   4.691
14055SOL    HW143997  10.742  14.413   4.781
14055SOL    HW243998  10.615  14.404   4.699
14056SOL     OW43999   5.894  13.339   6.370
14056SOL    HW144000   5.931  13.289   6.442
14056SOL    HW244001   5.815  13.290   6.346
14057SOL     OW44002  10.426   6.981   5.202
14057SOL    HW144003  10.391   7.067   5.225
14057SOL    HW244004  10.496   6.966   5.266
14058SOL     OW44005   2.723  10.858  14.005
14058SOL    HW144006   2.802  10.907  14.026
14058SOL    HW244007   2.662  10.923  13.972
14059SOL     OW44008  11.169   3.234  10.458
14059SOL    HW144009  11.246   3.191  10.422
14059SOL    HW244010  11.100   3.220  10.393
14060SOL     OW44011   4.702   5.318   8.490
14060SOL    HW144012   4.749   5.311   8.573
14060SOL    HW244013   4.611   5.299   8.513
14061SOL     OW44014  14.750  13.816  12.112
14061SOL    HW144015  14.807  13.751  12.069
14061SOL    HW244016  14.727  13.877  12.042
14062SOL     OW44017   2.535   7.605  11.670
14062SOL    HW144018   2.523   7.681  11.612
14062SOL    HW244019   2.592   7.637  11.740
14063SOL     OW44020   4.998   1.284   5.986
14063SOL    HW144021   4.952   1.202   6.002
14063SOL    HW244022   5.048   1.268   5.906
14064SOL     OW44023  13.226   4.688   9.254
14064SOL    HW144024  13.151   4.630   9.269
14064SOL    HW244025  13.202   4.738   9.176
14065SOL     OW44026   1.375   2.810   7.367
14065SOL    HW144027   1.387   2.718   7.390
14065SOL    HW244028   1.317   2.845   7.435
14066SOL     OW44029   2.256  12.805   8.385
14066SOL    HW144030   2.206  12.869   8.335
14066SOL    HW244031   2.197  12.730   8.393
14067SOL     OW44032   7.483   7.340   9.333
14067SOL    HW144033   7.551   7.360   9.269
14067SOL    HW244034   7.445   7.425   9.355
14068SOL     OW44035   8.376   6.298   0.046
14068SOL    HW144036   8.324   6.223   0.016
14068SOL    HW244037   8.414   6.269   0.129
14069SOL     OW44038   9.795   8.377  14.241
14069SOL    HW144039   9.756   8.464  14.228
14069SOL    HW244040   9.720   8.320  14.260
14070SOL     OW44041   8.044   1.386   8.041
14070SOL    HW144042   8.092   1.413   8.120
14070SOL    HW244043   8.105   1.401   7.969
14071SOL     OW44044  11.260  13.952   1.298
14071SOL    HW144045  11.174  13.943   1.338
14071SOL    HW244046  11.313  13.883   1.338
14072SOL     OW44047  12.736   8.947   4.917
14072SOL    HW144048  12.661   8.955   4.858
14072SOL    HW244049  12.722   8.865   4.963
14073SOL     OW44050  12.154   1.041   1.996
14073SOL    HW144051  12.117   1.064   2.082
14073SOL    HW244052  12.232   0.990   2.017
14074SOL     OW44053   3.776  13.132  10.625
14074SOL    HW144054   3.836  13.097  10.691
14074SOL    HW244055   3.692  13.138  10.671
14075SOL     OW44056  14.526   8.985   1.255
14075SOL    HW144057  14.562   8.897   1.241
14075SOL    HW244058  14.602   9.039   1.273
14076SOL     OW44059   3.362   6.339   9.511
14076SOL    HW144060   3.364   6.297   9.597
14076SOL    HW244061   3.354   6.266   9.450
14077SOL     OW44062   8.863   1.752   7.052
14077SOL    HW144063   8.782   1.749   7.002
14077SOL    HW244064   8.838   1.726   7.140
14078SOL     OW44065   0.709  12.188   5.740
14078SOL    HW144066   0.762  12.109   5.734
14078SOL    HW244067   0.727  12.223   5.827
14079SOL     OW44068  13.846   2.259  10.484
14079SOL    HW144069  13.919   2.277  10.424
14079SOL    HW244070  13.768   2.259  10.427
14080SOL     OW44071  11.262   8.907   8.717
14080SOL    HW144072  11.241   8.827   8.765
14080SOL    HW244073  11.350   8.893   8.684
14081SOL     OW44074   0.611   8.206  12.722
14081SOL    HW144075   0.683   8.252  12.679
14081SOL    HW244076   0.552   8.182  12.651
14082SOL     OW44077   1.473   5.774   3.620
14082SOL    HW144078   1.393   5.822   3.599
14082SOL    HW244079   1.542   5.840   3.620
14083SOL     OW44080   8.074  10.791   0.584
14083SOL    HW144081   8.072  10.852   0.657
14083SOL    HW244082   7.995  10.811   0.534
14084SOL     OW44083   2.081  13.047  13.386
14084SOL    HW144084   2.135  13.119  13.354
14084SOL    HW244085   2.113  12.970  13.339
14085SOL     OW44086   7.322  10.951   1.904
14085SOL    HW144087   7.231  10.940   1.933
14085SOL    HW244088   7.339  11.045   1.913
14086SOL     OW44089  10.984   6.837  13.533
14086SOL    HW144090  11.009   6.900  13.601
14086SOL    HW244091  10.889   6.841  13.531
14087SOL     OW44092   0.331   8.924  13.024
14087SOL    HW144093   0.316   8.854  12.960
14087SOL    HW244094   0.357   8.879  13.104
14088SOL     OW44095   4.433   3.409  12.834
14088SOL    HW144096   4.418   3.492  12.879
14088SOL    HW244097   4.478   3.355  12.899
14089SOL     OW44098   7.438   0.551  13.978
14089SOL    HW144099   7.444   0.470  13.927
14089SOL    HW244100   7.520   0.554  14.028
14090SOL     OW44101   3.020  14.351   4.671
14090SOL    HW144102   3.106  14.329   4.706
14090SOL    HW244103   2.977  14.267   4.657
14091SOL     OW44104   4.158   9.643   4.857
14091SOL    HW144105   4.079   9.695   4.839
14091SOL    HW244106   4.223   9.677   4.796
14092SOL     OW44107   1.144  14.858   5.031
14092SOL    HW144108   1.145  14.780   5.086
14092SOL    HW244109   1.186   0.049   5.085
14093SOL     OW44110  14.549   8.072  13.286
14093SOL    HW144111  14.529   8.155  13.243
14093SOL    HW244112  14.602   8.096  13.362
14094SOL     OW44113   7.889  11.608   6.495
14094SOL    HW144114   7.796  11.628   6.491
14094SOL    HW244115   7.931  11.675   6.441
14095SOL     OW44116  14.509   6.159   4.515
14095SOL    HW144117  14.448   6.233   4.514
14095SOL    HW244118  14.595   6.199   4.504
14096SOL     OW44119   4.420   8.746   5.899
14096SOL    HW144120   4.440   8.653   5.906
14096SOL    HW244121   4.414   8.763   5.805
14097SOL     OW44122   4.628   4.286  10.235
14097SOL    HW144123   4.647   4.339  10.313
14097SOL    HW244124   4.598   4.349  10.170
14098SOL     OW44125  14.193   2.716   7.963
14098SOL    HW144126  14.214   2.805   7.935
14098SOL    HW244127  14.250   2.660   7.910
14099SOL     OW44128   1.302  14.249  12.541
14099SOL    HW144129   1.326  14.157  12.557
14099SOL    HW244130   1.314  14.261  12.447
14100SOL     OW44131   1.656   6.075  11.105
14100SOL    HW144132   1.750   6.074  11.123
14100SOL    HW244133   1.650   6.056  11.011
14101SOL     OW44134   3.086   6.621   8.616
14101SOL    HW144135   3.158   6.619   8.680
14101SOL    HW244136   3.118   6.679   8.547
14102SOL     OW44137  13.794  12.009  12.080
14102SOL    HW144138  13.732  12.060  12.028
14102SOL    HW244139  13.879  12.029  12.041
14103SOL     OW44140  11.342   4.160   5.795
14103SOL    HW144141  11.355   4.105   5.872
14103SOL    HW244142  11.270   4.118   5.747
14104SOL     OW44143   2.522  14.401   9.849
14104SOL    HW144144   2.509  14.378   9.757
14104SOL    HW244145   2.516  14.318   9.895
14105SOL     OW44146   9.650  13.928  13.140
14105SOL    HW144147   9.612  13.853  13.185
14105SOL    HW244148   9.728  13.894  13.097
14106SOL     OW44149  14.245  10.924   8.068
14106SOL    HW144150  14.322  10.873   8.092
14106SOL    HW244151  14.276  10.985   8.002
14107SOL     OW44152   7.256  13.644   2.693
14107SOL    HW144153   7.182  13.700   2.718
14107SOL    HW244154   7.222  13.593   2.619
14108SOL     OW44155   5.805   7.706  13.431
14108SOL    HW144156   5.781   7.647  13.502
14108SOL    HW244157   5.776   7.661  13.351
14109SOL     OW44158   6.699   5.905   3.785
14109SOL    HW144159   6.644   5.831   3.760
14109SOL    HW244160   6.784   5.886   3.745
14110SOL     OW44161  12.766  11.759   4.915
14110SOL    HW144162  12.768  11.734   4.823
14110SOL    HW244163  12.843  11.816   4.926
14111SOL     OW44164   5.132  14.314   6.982
14111SOL    HW144165   5.222  14.321   7.013
14111SOL    HW244166   5.100  14.404   6.982
14112SOL     OW44167   4.729  12.240  10.136
14112SOL    HW144168   4.821  12.259  10.121
14112SOL    HW244169   4.686  12.326  10.133
14113SOL     OW44170   6.650   2.640   0.295
14113SOL    HW144171   6.745   2.647   0.283
14113SOL    HW244172   6.638   2.636   0.390
14114SOL     OW44173  12.874   8.209  10.557
14114SOL    HW144174  12.914   8.290  10.525
14114SOL    HW244175  12.812   8.237  10.624
14115SOL     OW44176   1.949   8.257   9.264
14115SOL    HW144177   1.926   8.169   9.237
14115SOL    HW244178   1.865   8.304   9.266
14116SOL     OW44179   0.745   7.471  13.913
14116SOL    HW144180   0.659   7.432  13.927
14116SOL    HW244181   0.766   7.450  13.822
14117SOL     OW44182   0.599   0.443  13.870
14117SOL    HW144183   0.542   0.453  13.795
14117SOL    HW244184   0.683   0.413  13.833
14118SOL     OW44185   3.040  11.814  13.661
14118SOL    HW144186   2.994  11.774  13.736
14118SOL    HW244187   3.121  11.764  13.653
14119SOL     OW44188   2.343   0.301   4.833
14119SOL    HW144189   2.340   0.255   4.750
14119SOL    HW244190   2.437   0.306   4.854
14120SOL     OW44191   8.325  10.703   0.681
14120SOL    HW144192   8.356  10.704   0.771
14120SOL    HW244193   8.250  10.762   0.680
14121SOL     OW44194   3.145   8.129  12.298
14121SOL    HW144195   3.061   8.088  12.319
14121SOL    HW244196   3.125   8.223  12.294
14122SOL     OW44197   3.511  12.735   5.043
14122SOL    HW144198   3.531  12.642   5.054
14122SOL    HW244199   3.422  12.745   5.076
14123SOL     OW44200   8.401  10.277  12.050
14123SOL    HW144201   8.452  10.198  12.032
14123SOL    HW244202   8.445  10.346  12.001
14124SOL     OW44203   1.394   0.010  11.936
14124SOL    HW144204   1.349  14.822  11.881
14124SOL    HW244205   1.438  14.833  12.003
14125SOL     OW44206   7.435   1.085  11.769
14125SOL    HW144207   7.387   1.026  11.827
14125SOL    HW244208   7.378   1.095  11.693
14126SOL     OW44209  10.977  12.746  13.542
14126SOL    HW144210  11.069  12.722  13.546
14126SOL    HW244211  10.931  12.662  13.549
14127SOL     OW44212  11.001  12.367  13.697
14127SOL    HW144213  10.947  12.438  13.662
14127SOL    HW244214  11.078  12.411  13.731
14128SOL     OW44215   8.305   5.065   9.837
14128SOL    HW144216   8.347   5.081   9.752
14128SOL    HW244217   8.313   5.149   9.883
14129SOL     OW44218  11.764   4.058  14.153
14129SOL    HW144219  11.816   3.982  14.126
14129SOL    HW244220  11.707   4.075  14.079
14130SOL     OW44221   6.593   2.195  12.846
14130SOL    HW144222   6.632   2.249  12.777
14130SOL    HW244223   6.571   2.113  12.803
14131SOL     OW44224   5.482   0.734   8.920
14131SOL    HW144225   5.463   0.727   9.013
14131SOL    HW244226   5.512   0.824   8.908
14132SOL     OW44227   8.474   4.106   0.033
14132SOL    HW144228   8.438   4.054  14.837
14132SOL    HW244229   8.517   4.181  14.867
14133SOL     OW44230   1.176   4.216   4.404
14133SOL    HW144231   1.120   4.292   4.386
14133SOL    HW244232   1.198   4.223   4.497
14134SOL     OW44233   4.608   2.500  11.067
14134SOL    HW144234   4.517   2.475  11.057
14134SOL    HW244235   4.621   2.509  11.162
14135SOL     OW44236   3.218   1.590   8.935
14135SOL    HW144237   3.191   1.681   8.947
14135SOL    HW244238   3.145   1.549   8.888
14136SOL     OW44239  12.446   2.882   5.039
14136SOL    HW144240  12.425   2.892   4.946
14136SOL    HW244241  12.539   2.905   5.045
14137SOL     OW44242  10.101   6.872   6.323
14137SOL    HW144243  10.065   6.866   6.235
14137SOL    HW244244  10.195   6.881   6.311
14138SOL     OW44245   9.653  12.590   3.567
14138SOL    HW144246   9.575  12.544   3.536
14138SOL    HW244247   9.622  12.677   3.592
14139SOL     OW44248   3.901   2.692   5.992
14139SOL    HW144249   3.958   2.757   5.949
14139SOL    HW244250   3.961   2.625   6.023
14140SOL     OW44251   3.066   4.896   6.390
14140SOL    HW144252   3.087   4.809   6.423
14140SOL    HW244253   3.089   4.955   6.462
14141SOL     OW44254  14.209   7.438  10.875
14141SOL    HW144255  14.136   7.380  10.852
14141SOL    HW244256  14.240   7.405  10.959
14142SOL     OW44257  14.250  13.018   3.087
14142SOL    HW144258  14.190  13.091   3.103
14142SOL    HW244259  14.337  13.057   3.093
14143SOL     OW44260   8.109   0.907   0.415
14143SOL    HW144261   8.163   0.985   0.432
14143SOL    HW244262   8.101   0.864   0.500
14144SOL     OW44263   1.280  11.135  14.870
14144SOL    HW144264   1.279  11.181  14.786
14144SOL    HW244265   1.188  11.109   0.009
14145SOL     OW44266   7.290   7.247   2.087
14145SOL    HW144267   7.380   7.246   2.054
14145SOL    HW244268   7.251   7.325   2.047
14146SOL     OW44269  14.571  11.256   9.206
14146SOL    HW144270  14.643  11.196   9.194
14146SOL    HW244271  14.596  11.310   9.281
14147SOL     OW44272   4.751  12.021  10.515
14147SOL    HW144273   4.702  12.058  10.589
14147SOL    HW244274   4.802  11.950  10.553
14148SOL     OW44275  13.047  11.442   9.925
14148SOL    HW144276  13.109  11.436   9.999
14148SOL    HW244277  13.068  11.367   9.870
14149SOL     OW44278   1.851   0.954   4.318
14149SOL    HW144279   1.901   1.035   4.311
14149SOL    HW244280   1.822   0.952   4.409
14150SOL     OW44281  11.678  12.269  14.267
14150SOL    HW144282  11.674  12.222  14.184
14150SOL    HW244283  11.726  12.349  14.247
14151SOL     OW44284  13.889   2.863   5.503
14151SOL    HW144285  13.801   2.826   5.510
14151SOL    HW244286  13.938   2.797   5.454
14152SOL     OW44287   6.506  10.601   6.871
14152SOL    HW144288   6.445  10.572   6.939
14152SOL    HW244289   6.534  10.688   6.899
14153SOL     OW44290   9.024   5.765  11.752
14153SOL    HW144291   8.959   5.720  11.806
14153SOL    HW244292   9.070   5.823  11.813
14154SOL     OW44293   6.797  11.875   1.042
14154SOL    HW144294   6.811  11.828   1.124
14154SOL    HW244295   6.707  11.852   1.017
14155SOL     OW44296   0.925   2.041  11.151
14155SOL    HW144297   0.996   1.982  11.126
14155SOL    HW244298   0.909   2.094  11.073
14156SOL     OW44299   4.990   0.400   2.627
14156SOL    HW144300   4.921   0.416   2.691
14156SOL    HW244301   5.017   0.487   2.598
14157SOL     OW44302   7.880  13.856  14.508
14157SOL    HW144303   7.887  13.823  14.419
14157SOL    HW244304   7.965  13.837  14.548
14158SOL     OW44305   8.661  13.368  10.227
14158SOL    HW144306   8.640  13.461  10.236
14158SOL    HW244307   8.654  13.332  10.315
14159SOL     OW44308   6.801   5.798   7.339
14159SOL    HW144309   6.832   5.708   7.345
14159SOL    HW244310   6.820   5.835   7.426
14160SOL     OW44311  10.666   4.534   1.959
14160SOL    HW144312  10.658   4.519   1.865
14160SOL    HW244313  10.605   4.472   1.998
14161SOL     OW44314   1.625   1.463   8.596
14161SOL    HW144315   1.534   1.492   8.593
14161SOL    HW244316   1.664   1.516   8.666
14162SOL     OW44317  13.289  12.811   3.061
14162SOL    HW144318  13.204  12.843   3.093
14162SOL    HW244319  13.351  12.837   3.130
14163SOL     OW44320   5.094   6.299   4.197
14163SOL    HW144321   5.082   6.387   4.233
14163SOL    HW244322   5.007   6.275   4.164
14164SOL     OW44323   6.074   6.226  12.865
14164SOL    HW144324   6.074   6.274  12.782
14164SOL    HW244325   6.072   6.134  12.840
14165SOL     OW44326   6.716   0.884   8.728
14165SOL    HW144327   6.643   0.848   8.779
14165SOL    HW244328   6.788   0.890   8.790
14166SOL     OW44329  11.926  12.305   8.305
14166SOL    HW144330  12.006  12.314   8.356
14166SOL    HW244331  11.943  12.231   8.246
14167SOL     OW44332   1.528  13.726   2.326
14167SOL    HW144333   1.598  13.666   2.301
14167SOL    HW244334   1.550  13.753   2.415
14168SOL     OW44335   9.524   3.587   0.711
14168SOL    HW144336   9.588   3.548   0.652
14168SOL    HW244337   9.439   3.566   0.672
14169SOL     OW44338   4.664  10.747  11.924
14169SOL    HW144339   4.671  10.784  11.837
14169SOL    HW244340   4.698  10.815  11.982
14170SOL     OW44341   4.724   9.758   7.834
14170SOL    HW144342   4.671   9.721   7.905
14170SOL    HW244343   4.689   9.718   7.755
14171SOL     OW44344  11.667   4.145   5.390
14171SOL    HW144345  11.681   4.189   5.306
14171SOL    HW244346  11.658   4.052   5.366
14172SOL     OW44347   4.924  14.112   7.943
14172SOL    HW144348   4.899  14.019   7.940
14172SOL    HW244349   5.006  14.112   7.993
14173SOL     OW44350  11.179   2.601  10.469
14173SOL    HW144351  11.133   2.612  10.386
14173SOL    HW244352  11.267   2.634  10.452
14174SOL     OW44353   3.790   9.907   8.627
14174SOL    HW144354   3.734   9.942   8.558
14174SOL    HW244355   3.763   9.816   8.636
14175SOL     OW44356   2.268   4.841   8.516
14175SOL    HW144357   2.312   4.820   8.434
14175SOL    HW244358   2.332   4.819   8.584
14176SOL     OW44359   3.161   6.964   8.944
14176SOL    HW144360   3.105   6.983   8.868
14176SOL    HW244361   3.248   6.949   8.907
14177SOL     OW44362   9.964   9.562   6.131
14177SOL    HW144363   9.879   9.518   6.128
14177SOL    HW244364   9.965   9.607   6.216
14178SOL     OW44365   7.451  11.854  12.094
14178SOL    HW144366   7.516  11.860  12.164
14178SOL    HW244367   7.474  11.774  12.047
14179SOL     OW44368   9.921   5.678   9.595
14179SOL    HW144369   9.982   5.642   9.660
14179SOL    HW244370   9.974   5.738   9.543
14180SOL     OW44371   0.710  13.722  11.987
14180SOL    HW144372   0.693  13.636  12.025
14180SOL    HW244373   0.688  13.712  11.894
14181SOL     OW44374   9.842   7.154   4.015
14181SOL    HW144375   9.775   7.169   4.081
14181SOL    HW244376   9.872   7.065   4.032
14182SOL     OW44377   8.608  10.243  12.287
14182SOL    HW144378   8.584  10.326  12.328
14182SOL    HW244379   8.540  10.182  12.315
14183SOL     OW44380   4.622  13.905   0.150
14183SOL    HW144381   4.571  13.949   0.218
14183SOL    HW244382   4.561  13.844   0.109
14184SOL     OW44383  11.189  14.474  14.244
14184SOL    HW144384  11.277  14.477  14.206
14184SOL    HW244385  11.135  14.431  14.177
14185SOL     OW44386   5.017   5.935   6.647
14185SOL    HW144387   5.040   5.946   6.740
14185SOL    HW244388   5.049   6.014   6.605
14186SOL     OW44389   4.007   0.420   6.622
14186SOL    HW144390   4.073   0.365   6.579
14186SOL    HW244391   3.923   0.381   6.597
14187SOL     OW44392   0.365   2.831   3.563
14187SOL    HW144393   0.318   2.884   3.627
14187SOL    HW244394   0.426   2.893   3.521
14188SOL     OW44395   1.485   8.379  12.565
14188SOL    HW144396   1.497   8.323  12.641
14188SOL    HW244397   1.484   8.319  12.490
14189SOL     OW44398   5.073   2.780   7.018
14189SOL    HW144399   5.013   2.842   7.059
14189SOL    HW244400   5.132   2.834   6.965
14190SOL     OW44401  12.152  13.211   1.627
14190SOL    HW144402  12.125  13.273   1.694
14190SOL    HW244403  12.085  13.219   1.559
14191SOL     OW44404  14.248   1.051   1.142
14191SOL    HW144405  14.197   0.974   1.166
14191SOL    HW244406  14.206   1.085   1.063
14192SOL     OW44407  10.094   8.463  12.802
14192SOL    HW144408  10.159   8.533  12.800
14192SOL    HW244409  10.112   8.412  12.724
14193SOL     OW44410   5.011   6.997  11.630
14193SOL    HW144411   4.920   6.998  11.601
14193SOL    HW244412   5.063   7.008  11.550
14194SOL     OW44413  13.440   1.641   7.731
14194SOL    HW144414  13.382   1.593   7.672
14194SOL    HW244415  13.381   1.676   7.799
14195SOL     OW44416   7.895   1.569   2.531
14195SOL    HW144417   7.886   1.517   2.611
14195SOL    HW244418   7.985   1.553   2.503
14196SOL     OW44419  11.425   5.605   8.363
14196SOL    HW144420  11.487   5.616   8.291
14196SOL    HW244421  11.479   5.573   8.436
14197SOL     OW44422  14.554  11.848   9.590
14197SOL    HW144423  14.568  11.942   9.593
14197SOL    HW244424  14.632  11.811   9.630
14198SOL     OW44425  12.241   0.226  12.798
14198SOL    HW144426  12.324   0.179  12.789
14198SOL    HW244427  12.208   0.233  12.708
14199SOL     OW44428   7.773  10.119   6.821
14199SOL    HW144429   7.734  10.177   6.886
14199SOL    HW244430   7.785  10.036   6.867
14200SOL     OW44431   3.676  10.136   7.703
14200SOL    HW144432   3.605  10.111   7.763
14200SOL    HW244433   3.749  10.159   7.761
14201SOL     OW44434   1.039  12.667   6.487
14201SOL    HW144435   1.114  12.659   6.546
14201SOL    HW244436   1.002  12.579   6.483
14202SOL     OW44437  12.104  12.706   0.191
14202SOL    HW144438  12.119  12.737   0.280
14202SOL    HW244439  12.029  12.757   0.161
14203SOL     OW44440  11.611   6.281  14.049
14203SOL    HW144441  11.563   6.333  14.113
14203SOL    HW244442  11.557   6.204  14.035
14204SOL     OW44443   6.765  12.446   0.276
14204SOL    HW144444   6.723  12.532   0.276
14204SOL    HW244445   6.725  12.400   0.203
14205SOL     OW44446   9.857  11.452   0.156
14205SOL    HW144447   9.949  11.477   0.160
14205SOL    HW244448   9.812  11.514   0.213
14206SOL     OW44449   9.888   9.768   0.728
14206SOL    HW144450   9.915   9.687   0.772
14206SOL    HW244451   9.880   9.743   0.636
14207SOL     OW44452  11.762   3.541  14.752
14207SOL    HW144453  11.751   3.528  14.658
14207SOL    HW244454  11.757   3.636  14.764
14208SOL     OW44455   5.141   9.404  14.384
14208SOL    HW144456   5.110   9.467  14.319
14208SOL    HW244457   5.133   9.319  14.340
14209SOL     OW44458   7.483   3.799   2.116
14209SOL    HW144459   7.445   3.734   2.057
14209SOL    HW244460   7.491   3.754   2.200
14210SOL     OW44461   2.453   5.060   3.107
14210SOL    HW144462   2.442   5.106   3.023
14210SOL    HW244463   2.380   4.997   3.109
14211SOL     OW44464   2.742  12.971   3.849
14211SOL    HW144465   2.690  12.922   3.913
14211SOL    HW244466   2.827  12.984   3.891
14212SOL     OW44467   3.260   2.185   7.082
14212SOL    HW144468   3.190   2.251   7.082
14212SOL    HW244469   3.273   2.164   6.989
14213SOL     OW44470  12.336   4.436   3.175
14213SOL    HW144471  12.313   4.406   3.087
14213SOL    HW244472  12.252   4.455   3.217
14214SOL     OW44473   6.787  10.688   7.269
14214SOL    HW144474   6.818  10.680   7.359
14214SOL    HW244475   6.867  10.680   7.216
14215SOL     OW44476  11.570   5.544   3.749
14215SOL    HW144477  11.599   5.454   3.764
14215SOL    HW244478  11.594   5.562   3.657
14216SOL     OW44479  12.394   4.188  13.974
14216SOL    HW144480  12.417   4.262  14.030
14216SOL    HW244481  12.350   4.126  14.032
14217SOL     OW44482   1.409   2.189  10.431
14217SOL    HW144483   1.390   2.151  10.345
14217SOL    HW244484   1.500   2.165  10.448
14218SOL     OW44485   7.921   0.514   3.141
14218SOL    HW144486   7.879   0.566   3.210
14218SOL    HW244487   8.004   0.558   3.124
14219SOL     OW44488  14.066   8.354  14.429
14219SOL    HW144489  14.061   8.449  14.421
14219SOL    HW244490  14.097   8.324  14.343
14220SOL     OW44491   7.969   8.013   2.805
14220SOL    HW144492   7.967   7.988   2.713
14220SOL    HW244493   8.054   8.057   2.816
14221SOL     OW44494  14.235   1.365  12.374
14221SOL    HW144495  14.262   1.414  12.296
14221SOL    HW244496  14.296   1.393  12.442
14222SOL     OW44497   8.078  10.320  12.881
14222SOL    HW144498   8.101  10.249  12.821
14222SOL    HW244499   8.042  10.276  12.958
14223SOL     OW44500  10.714  14.107   3.273
14223SOL    HW144501  10.762  14.046   3.217
14223SOL    HW244502  10.643  14.139   3.218
14224SOL     OW44503   4.436   4.601   4.297
14224SOL    HW144504   4.467   4.622   4.386
14224SOL    HW244505   4.441   4.505   4.293
14225SOL     OW44506  10.137   8.423   7.293
14225SOL    HW144507  10.125   8.357   7.225
14225SOL    HW244508  10.091   8.500   7.259
14226SOL     OW44509   2.054  11.200  10.376
14226SOL    HW144510   1.996  11.212  10.301
14226SOL    HW244511   1.995  11.196  10.451
14227SOL     OW44512  13.753  12.535   0.847
14227SOL    HW144513  13.771  12.478   0.773
14227SOL    HW244514  13.687  12.596   0.814
14228SOL     OW44515   3.780  10.670   7.499
14228SOL    HW144516   3.839  10.715   7.438
14228SOL    HW244517   3.832  10.657   7.578
14229SOL     OW44518   5.144  13.701  13.015
14229SOL    HW144519   5.154  13.780  12.961
14229SOL    HW244520   5.083  13.725  13.084
14230SOL     OW44521  10.679  14.412  12.625
14230SOL    HW144522  10.722  14.423  12.540
14230SOL    HW244523  10.668  14.502  12.657
14231SOL     OW44524   2.079  13.033   6.914
14231SOL    HW144525   2.117  13.053   7.000
14231SOL    HW244526   2.059  12.939   6.919
14232SOL     OW44527  10.093   9.076   7.594
14232SOL    HW144528  10.044   9.040   7.668
14232SOL    HW244529  10.183   9.047   7.607
14233SOL     OW44530   5.123  14.561   5.309
14233SOL    HW144531   5.120  14.466   5.320
14233SOL    HW244532   5.143  14.595   5.396
14234SOL     OW44533   0.348   8.475  11.682
14234SOL    HW144534   0.306   8.432  11.756
14234SOL    HW244535   0.310   8.563  11.680
14235SOL     OW44536   9.937   9.007  13.897
14235SOL    HW144537   9.925   9.049  13.983
14235SOL    HW244538   9.925   9.078  13.834
14236SOL     OW44539  11.336  10.401   9.820
14236SOL    HW144540  11.337  10.452   9.901
14236SOL    HW244541  11.254  10.352   9.823
14237SOL     OW44542   3.047   1.711   8.347
14237SOL    HW144543   3.104   1.654   8.400
14237SOL    HW244544   2.960   1.699   8.385
14238SOL     OW44545   7.609   2.003   1.167
14238SOL    HW144546   7.550   1.984   1.240
14238SOL    HW244547   7.692   2.027   1.208
14239SOL     OW44548  13.475   1.151  12.063
14239SOL    HW144549  13.399   1.094  12.073
14239SOL    HW244550  13.440   1.234  12.030
14240SOL     OW44551  14.568   8.855  11.525
14240SOL    HW144552  14.643   8.913  11.537
14240SOL    HW244553  14.601   8.784  11.470
14241SOL     OW44554   4.332  13.961  14.487
14241SOL    HW144555   4.345  13.945  14.394
14241SOL    HW244556   4.378  13.890  14.531
14242SOL     OW44557   9.337   3.748   2.681
14242SOL    HW144558   9.412   3.800   2.652
14242SOL    HW244559   9.299   3.714   2.600
14243SOL     OW44560   5.885   2.376  14.576
14243SOL    HW144561   5.905   2.413  14.490
14243SOL    HW244562   5.949   2.416  14.635
14244SOL     OW44563  11.278   8.400  13.908
14244SOL    HW144564  11.257   8.380  13.999
14244SOL    HW244565  11.314   8.319  13.873
14245SOL     OW44566   9.705  12.711  13.301
14245SOL    HW144567   9.729  12.799  13.329
14245SOL    HW244568   9.657  12.674  13.375
14246SOL     OW44569   9.262   0.522   6.565
14246SOL    HW144570   9.212   0.526   6.484
14246SOL    HW244571   9.256   0.431   6.593
14247SOL     OW44572  13.827   4.710  12.705
14247SOL    HW144573  13.787   4.627  12.677
14247SOL    HW244574  13.877   4.687  12.783
14248SOL     OW44575  10.156  14.225   4.229
14248SOL    HW144576  10.250  14.216   4.244
14248SOL    HW244577  10.144  14.209   4.135
14249SOL     OW44578   2.680   8.793  14.425
14249SOL    HW144579   2.719   8.807  14.511
14249SOL    HW244580   2.596   8.839  14.429
14250SOL     OW44581   6.928  14.632   5.287
14250SOL    HW144582   7.013  14.638   5.244
14250SOL    HW244583   6.922  14.541   5.316
14251SOL     OW44584  13.521  13.031  12.420
14251SOL    HW144585  13.457  13.102  12.417
14251SOL    HW244586  13.509  12.985  12.337
14252SOL     OW44587  12.349   1.840  11.978
14252SOL    HW144588  12.422   1.780  11.962
14252SOL    HW244589  12.381   1.899  12.046
14253SOL     OW44590  12.136  10.959  11.524
14253SOL    HW144591  12.218  10.969  11.573
14253SOL    HW244592  12.146  11.016  11.447
14254SOL     OW44593   1.151   5.001   4.443
14254SOL    HW144594   1.198   4.997   4.359
14254SOL    HW244595   1.216   5.031   4.506
14255SOL     OW44596   5.937   1.388  13.913
14255SOL    HW144597   5.912   1.315  13.971
14255SOL    HW244598   5.944   1.348  13.826
14256SOL     OW44599  10.385   0.459   7.003
14256SOL    HW144600  10.290   0.468   7.014
14256SOL    HW244601  10.410   0.531   6.947
14257SOL     OW44602  13.201   8.950   1.236
14257SOL    HW144603  13.269   8.967   1.170
14257SOL    HW244604  13.148   8.880   1.198
14258SOL     OW44605   5.591  13.383   3.394
14258SOL    HW144606   5.623  13.376   3.484
14258SOL    HW244607   5.605  13.475   3.371
14259SOL     OW44608   8.496  10.136   7.476
14259SOL    HW144609   8.400  10.138   7.477
14259SOL    HW244610   8.517  10.058   7.425
14260SOL     OW44611   9.728   6.689  11.516
14260SOL    HW144612   9.683   6.605  11.506
14260SOL    HW244613   9.671   6.753  11.473
14261SOL     OW44614  12.995  12.762   0.819
14261SOL    HW144615  12.936  12.714   0.762
14261SOL    HW244616  12.938  12.795   0.889
14262SOL     OW44617   0.919   3.655  11.525
14262SOL    HW144618   0.926   3.747  11.500
14262SOL    HW244619   1.003   3.635  11.567
14263SOL     OW44620   5.435   3.110   1.870
14263SOL    HW144621   5.465   3.100   1.779
14263SOL    HW244622   5.368   3.178   1.865
14264SOL     OW44623  13.279  14.151  10.484
14264SOL    HW144624  13.232  14.231  10.509
14264SOL    HW244625  13.370  14.169  10.507
14265SOL     OW44626   7.922   6.195   8.949
14265SOL    HW144627   7.842   6.156   8.915
14265SOL    HW244628   7.892   6.254   9.019
14266SOL     OW44629   4.622   7.988  12.993
14266SOL    HW144630   4.682   8.058  12.969
14266SOL    HW244631   4.548   7.997  12.933
14267SOL     OW44632   2.690   2.783  12.311
14267SOL    HW144633   2.697   2.823  12.225
14267SOL    HW244634   2.735   2.699  12.303
14268SOL     OW44635   2.616   4.592  13.080
14268SOL    HW144636   2.704   4.627  13.096
14268SOL    HW244637   2.575   4.589  13.167
14269SOL     OW44638   0.205   2.264   0.884
14269SOL    HW144639   0.233   2.232   0.970
14269SOL    HW244640   0.129   2.319   0.903
14270SOL     OW44641  13.094  13.778   5.734
14270SOL    HW144642  13.122  13.867   5.756
14270SOL    HW244643  13.095  13.775   5.638
14271SOL     OW44644   6.688   6.825   6.567
14271SOL    HW144645   6.655   6.874   6.491
14271SOL    HW244646   6.620   6.837   6.634
14272SOL     OW44647   3.425  12.849  12.018
14272SOL    HW144648   3.411  12.808  11.933
14272SOL    HW244649   3.364  12.922  12.020
14273SOL     OW44650  10.574   3.450   5.558
14273SOL    HW144651  10.653   3.496   5.531
14273SOL    HW244652  10.543   3.499   5.635
14274SOL     OW44653  11.010   6.738  13.956
14274SOL    HW144654  11.079   6.742  13.890
14274SOL    HW244655  11.045   6.681  14.025
14275SOL     OW44656   8.557   1.465   2.556
14275SOL    HW144657   8.561   1.431   2.466
14275SOL    HW244658   8.567   1.560   2.546
14276SOL     OW44659   7.694  12.518   2.102
14276SOL    HW144660   7.619  12.567   2.069
14276SOL    HW244661   7.705  12.446   2.040
14277SOL     OW44662  11.828  14.753   9.918
14277SOL    HW144663  11.803  14.762   9.826
14277SOL    HW244664  11.758  14.797   9.966
14278SOL     OW44665  14.343  14.861   5.070
14278SOL    HW144666  14.325  14.821   4.985
14278SOL    HW244667  14.437   0.004   5.068
14279SOL     OW44668   2.201   0.318  11.826
14279SOL    HW144669   2.199   0.236  11.777
14279SOL    HW244670   2.154   0.299  11.907
14280SOL     OW44671   4.791   6.871   8.750
14280SOL    HW144672   4.827   6.942   8.697
14280SOL    HW244673   4.865   6.841   8.803
14281SOL     OW44674   7.105   3.865   7.656
14281SOL    HW144675   7.198   3.885   7.640
14281SOL    HW244676   7.103   3.839   7.748
14282SOL     OW44677   0.901  11.225   1.343
14282SOL    HW144678   0.817  11.269   1.333
14282SOL    HW244679   0.914  11.218   1.438
14283SOL     OW44680   6.518   9.704   2.416
14283SOL    HW144681   6.559   9.756   2.347
14283SOL    HW244682   6.452   9.651   2.371
14284SOL     OW44683   6.305   5.615   2.046
14284SOL    HW144684   6.273   5.592   2.133
14284SOL    HW244685   6.277   5.706   2.033
14285SOL     OW44686   6.423   0.292   0.719
14285SOL    HW144687   6.378   0.376   0.729
14285SOL    HW244688   6.503   0.312   0.671
14286SOL     OW44689   8.670  12.734   1.967
14286SOL    HW144690   8.691  12.781   2.048
14286SOL    HW244691   8.734  12.766   1.904
14287SOL     OW44692   5.850  12.128   0.062
14287SOL    HW144693   5.930  12.172   0.091
14287SOL    HW244694   5.815  12.086   0.141
14288SOL     OW44695   5.516  12.744   9.906
14288SOL    HW144696   5.442  12.761   9.848
14288SOL    HW244697   5.512  12.650   9.924
14289SOL     OW44698   5.408   4.782   4.030
14289SOL    HW144699   5.365   4.790   3.945
14289SOL    HW244700   5.494   4.746   4.010
14290SOL     OW44701  14.266   3.212   3.218
14290SOL    HW144702  14.337   3.181   3.162
14290SOL    HW244703  14.310   3.263   3.287
14291SOL     OW44704   3.097   4.255  14.061
14291SOL    HW144705   3.052   4.329  14.102
14291SOL    HW244706   3.139   4.291  13.983
14292SOL     OW44707   5.529   7.171   3.854
14292SOL    HW144708   5.484   7.115   3.917
14292SOL    HW244709   5.621   7.145   3.861
14293SOL     OW44710   2.043   0.331   4.318
14293SOL    HW144711   1.984   0.358   4.248
14293SOL    HW244712   1.993   0.346   4.398
14294SOL     OW44713  11.595   5.465   8.992
14294SOL    HW144714  11.555   5.542   8.951
14294SOL    HW244715  11.689   5.485   8.993
14295SOL     OW44716   5.676  14.696   0.214
14295SOL    HW144717   5.679  14.725   0.305
14295SOL    HW244718   5.762  14.718   0.178
14296SOL     OW44719   1.679  13.245   9.687
14296SOL    HW144720   1.691  13.288   9.602
14296SOL    HW244721   1.711  13.309   9.750
14297SOL     OW44722   1.286   5.392   1.126
14297SOL    HW144723   1.320   5.415   1.040
14297SOL    HW244724   1.277   5.477   1.171
14298SOL     OW44725  10.630   5.653  13.813
14298SOL    HW144726  10.685   5.637  13.889
14298SOL    HW244727  10.552   5.696  13.848
14299SOL     OW44728   6.114   1.611   7.643
14299SOL    HW144729   6.196   1.636   7.601
14299SOL    HW244730   6.079   1.541   7.588
14300SOL     OW44731  10.353  12.447   4.007
14300SOL    HW144732  10.417  12.421   3.941
14300SOL    HW244733  10.316  12.529   3.974
14301SOL     OW44734   0.748   9.699   5.061
14301SOL    HW144735   0.788   9.652   4.988
14301SOL    HW244736   0.669   9.739   5.024
14302SOL     OW44737   5.175   9.042   2.597
14302SOL    HW144738   5.188   9.098   2.674
14302SOL    HW244739   5.089   9.003   2.610
14303SOL     OW44740  14.870   1.913   2.826
14303SOL    HW144741   0.090   1.919   2.826
14303SOL    HW244742  14.849   1.863   2.747
14304SOL     OW44743   6.262   1.571  14.381
14304SOL    HW144744   6.275   1.552  14.288
14304SOL    HW244745   6.181   1.622  14.384
14305SOL     OW44746  12.543   6.318  13.983
14305SOL    HW144747  12.547   6.405  14.023
14305SOL    HW244748  12.496   6.264  14.046
14306SOL     OW44749   1.879  14.094   5.858
14306SOL    HW144750   1.865  14.000   5.859
14306SOL    HW244751   1.798  14.130   5.821
14307SOL     OW44752   1.465  13.552  11.378
14307SOL    HW144753   1.396  13.534  11.314
14307SOL    HW244754   1.425  13.610  11.442
14308SOL     OW44755   9.839  14.794   3.502
14308SOL    HW144756   9.862  14.740   3.425
14308SOL    HW244757   9.746  14.775   3.517
14309SOL     OW44758   0.474  14.527   6.695
14309SOL    HW144759   0.517  14.580   6.761
14309SOL    HW244760   0.403  14.483   6.741
14310SOL     OW44761   5.858  10.824  11.175
14310SOL    HW144762   5.823  10.753  11.228
14310SOL    HW244763   5.818  10.903  11.211
14311SOL     OW44764   9.895   1.869   7.490
14311SOL    HW144765   9.921   1.807   7.558
14311SOL    HW244766   9.967   1.933   7.487
14312SOL     OW44767  13.018   8.559   5.250
14312SOL    HW144768  13.066   8.593   5.175
14312SOL    HW244769  13.046   8.468   5.258
14313SOL     OW44770   9.832   8.075   9.290
14313SOL    HW144771   9.785   8.046   9.212
14313SOL    HW244772   9.875   7.997   9.323
14314SOL     OW44773  12.129  14.029   6.622
14314SOL    HW144774  12.191  14.102   6.628
14314SOL    HW244775  12.044  14.067   6.645
14315SOL     OW44776  10.681   8.602   4.478
14315SOL    HW144777  10.635   8.523   4.448
14315SOL    HW244778  10.767   8.597   4.437
14316SOL     OW44779   6.387   5.025   3.067
14316SOL    HW144780   6.329   5.091   3.106
14316SOL    HW244781   6.328   4.967   3.018
14317SOL     OW44782  14.105   0.467   9.012
14317SOL    HW144783  14.021   0.472   9.058
14317SOL    HW244784  14.160   0.412   9.068
14318SOL     OW44785   0.427   7.335  12.885
14318SOL    HW144786   0.511   7.329  12.840
14318SOL    HW244787   0.444   7.301  12.972
14319SOL     OW44788   6.677  14.073   9.898
14319SOL    HW144789   6.677  14.033   9.811
14319SOL    HW244790   6.603  14.133   9.897
14320SOL     OW44791   4.018   3.465  12.477
14320SOL    HW144792   3.932   3.505  12.487
14320SOL    HW244793   4.066   3.526  12.420
14321SOL     OW44794   7.812   4.405   5.325
14321SOL    HW144795   7.887   4.356   5.293
14321SOL    HW244796   7.801   4.476   5.262
14322SOL     OW44797   3.904   8.575   5.448
14322SOL    HW144798   3.940   8.650   5.495
14322SOL    HW244799   3.850   8.529   5.513
14323SOL     OW44800  14.627  11.229  14.048
14323SOL    HW144801  14.630  11.151  13.993
14323SOL    HW244802  14.630  11.196  14.138
14324SOL     OW44803   9.703  12.627   5.501
14324SOL    HW144804   9.750  12.633   5.417
14324SOL    HW244805   9.612  12.612   5.476
14325SOL     OW44806   2.253   4.547  11.436
14325SOL    HW144807   2.260   4.577  11.345
14325SOL    HW244808   2.226   4.624  11.485
14326SOL     OW44809   9.704   6.387   9.458
14326SOL    HW144810   9.653   6.421   9.532
14326SOL    HW244811   9.641   6.338   9.406
14327SOL     OW44812   3.496   3.988   4.177
14327SOL    HW144813   3.486   4.062   4.238
14327SOL    HW244814   3.481   3.910   4.231
14328SOL     OW44815   7.791   1.993   5.827
14328SOL    HW144816   7.882   2.012   5.851
14328SOL    HW244817   7.798   1.933   5.753
14329SOL     OW44818  13.845   3.713   6.160
14329SOL    HW144819  13.784   3.643   6.182
14329SOL    HW244820  13.880   3.741   6.245
14330SOL     OW44821   4.904   6.303   5.495
14330SOL    HW144822   4.883   6.332   5.406
14330SOL    HW244823   4.859   6.219   5.504
14331SOL     OW44824   1.663   6.524  11.132
14331SOL    HW144825   1.693   6.566  11.213
14331SOL    HW244826   1.736   6.468  11.105
14332SOL     OW44827   9.270   2.282   3.794
14332SOL    HW144828   9.181   2.256   3.767
14332SOL    HW244829   9.273   2.266   3.888
14333SOL     OW44830   4.238  11.054   1.622
14333SOL    HW144831   4.180  11.044   1.697
14333SOL    HW244832   4.185  11.026   1.547
14334SOL     OW44833   6.796   1.621   8.836
14334SOL    HW144834   6.778   1.703   8.883
14334SOL    HW244835   6.869   1.642   8.778
14335SOL     OW44836   5.077   5.681   7.285
14335SOL    HW144837   5.043   5.673   7.197
14335SOL    HW244838   5.002   5.705   7.339
14336SOL     OW44839  12.343  14.515   8.798
14336SOL    HW144840  12.260  14.499   8.753
14336SOL    HW244841  12.321  14.508   8.891
14337SOL     OW44842   8.230   6.600   8.077
14337SOL    HW144843   8.152   6.545   8.074
14337SOL    HW244844   8.207   6.677   8.026
14338SOL     OW44845   7.724  12.829   9.849
14338SOL    HW144846   7.782  12.873   9.910
14338SOL    HW244847   7.758  12.739   9.845
14339SOL     OW44848   8.560  13.138   1.908
14339SOL    HW144849   8.581  13.064   1.966
14339SOL    HW244850   8.624  13.133   1.838
14340SOL     OW44851   2.218  12.541   0.921
14340SOL    HW144852   2.228  12.449   0.896
14340SOL    HW244853   2.301  12.563   0.965
14341SOL     OW44854   6.831   6.903   7.808
14341SOL    HW144855   6.754   6.858   7.773
14341SOL    HW244856   6.797   6.986   7.842
14342SOL     OW44857   1.706  13.645  13.166
14342SOL    HW144858   1.697  13.696  13.246
14342SOL    HW244859   1.618  13.611  13.149
14343SOL     OW44860  13.009   0.066   1.828
14343SOL    HW144861  13.093   0.020   1.824
14343SOL    HW244862  13.002   0.096   1.919
14344SOL     OW44863  14.692  12.696  11.259
14344SOL    HW144864  14.716  12.681  11.350
14344SOL    HW244865  14.633  12.624  11.238
14345SOL     OW44866   9.733   9.386   2.192
14345SOL    HW144867   9.731   9.292   2.210
14345SOL    HW244868   9.643   9.416   2.207
14346SOL     OW44869   7.494  13.551   7.477
14346SOL    HW144870   7.582  13.588   7.490
14346SOL    HW244871   7.436  13.627   7.472
14347SOL     OW44872   6.711   4.255   2.059
14347SOL    HW144873   6.784   4.256   2.120
14347SOL    HW244874   6.636   4.226   2.111
14348SOL     OW44875   9.684   9.672   7.896
14348SOL    HW144876   9.737   9.604   7.939
14348SOL    HW244877   9.732   9.753   7.911
14349SOL     OW44878  10.700   6.512  11.341
14349SOL    HW144879  10.731   6.422  11.347
14349SOL    HW244880  10.758   6.554  11.278
14350SOL     OW44881   8.695  11.666   8.280
14350SOL    HW144882   8.677  11.597   8.215
14350SOL    HW244883   8.711  11.744   8.228
14351SOL     OW44884   1.775   3.373   2.334
14351SOL    HW144885   1.728   3.310   2.279
14351SOL    HW244886   1.828   3.424   2.273
14352SOL     OW44887  12.162   3.939   2.478
14352SOL    HW144888  12.190   3.895   2.558
14352SOL    HW244889  12.069   3.919   2.470
14353SOL     OW44890  12.669   6.823   5.389
14353SOL    HW144891  12.587   6.872   5.385
14353SOL    HW244892  12.649   6.748   5.445
14354SOL     OW44893   8.362   7.838   7.675
14354SOL    HW144894   8.295   7.817   7.609
14354SOL    HW244895   8.311   7.862   7.753
14355SOL     OW44896   9.801   7.759   3.886
14355SOL    HW144897   9.887   7.730   3.857
14355SOL    HW244898   9.809   7.769   3.981
14356SOL     OW44899  11.805   2.519  10.415
14356SOL    HW144900  11.794   2.611  10.436
14356SOL    HW244901  11.787   2.474  10.498
14357SOL     OW44902   8.637  13.038   6.582
14357SOL    HW144903   8.570  12.978   6.549
14357SOL    HW244904   8.717  13.013   6.536
14358SOL     OW44905   0.076  12.390  13.730
14358SOL    HW144906   0.007  12.324  13.744
14358SOL    HW244907   0.030  12.474  13.736
14359SOL     OW44908   1.490  14.123   5.519
14359SOL    HW144909   1.531  14.099   5.436
14359SOL    HW244910   1.423  14.188   5.496
14360SOL     OW44911   1.228  11.147   6.152
14360SOL    HW144912   1.220  11.068   6.098
14360SOL    HW244913   1.179  11.214   6.105
14361SOL     OW44914  11.696  10.087   2.075
14361SOL    HW144915  11.625  10.024   2.088
14361SOL    HW244916  11.696  10.104   1.981
14362SOL     OW44917  11.170   0.794   1.835
14362SOL    HW144918  11.082   0.824   1.855
14362SOL    HW244919  11.228   0.860   1.873
14363SOL     OW44920   9.434   8.431  10.967
14363SOL    HW144921   9.366   8.494  10.990
14363SOL    HW244922   9.390   8.369  10.909
14364SOL     OW44923  11.741   3.499  10.219
14364SOL    HW144924  11.730   3.534  10.131
14364SOL    HW244925  11.744   3.404  10.207
14365SOL     OW44926   1.032   9.123   6.119
14365SOL    HW144927   1.107   9.170   6.082
14365SOL    HW244928   0.957   9.156   6.070
14366SOL     OW44929   8.992   4.894  11.638
14366SOL    HW144930   8.908   4.937  11.620
14366SOL    HW244931   8.973   4.801  11.636
14367SOL     OW44932   6.654  10.903  12.212
14367SOL    HW144933   6.578  10.947  12.249
14367SOL    HW244934   6.673  10.832  12.274
14368SOL     OW44935   1.086  11.198  11.543
14368SOL    HW144936   1.000  11.190  11.583
14368SOL    HW244937   1.083  11.141  11.466
14369SOL     OW44938  12.548   1.567   8.557
14369SOL    HW144939  12.481   1.629   8.528
14369SOL    HW244940  12.501   1.505   8.613
14370SOL     OW44941   6.542   3.164   2.635
14370SOL    HW144942   6.473   3.107   2.670
14370SOL    HW244943   6.611   3.162   2.701
14371SOL     OW44944   3.322   8.376   8.310
14371SOL    HW144945   3.355   8.407   8.394
14371SOL    HW244946   3.393   8.322   8.275
14372SOL     OW44947  13.374  11.671  14.591
14372SOL    HW144948  13.408  11.605  14.652
14372SOL    HW244949  13.371  11.751  14.643
14373SOL     OW44950   1.863   8.676   4.140
14373SOL    HW144951   1.795   8.610   4.146
14373SOL    HW244952   1.835   8.745   4.201
14374SOL     OW44953   2.319   1.895   6.240
14374SOL    HW144954   2.300   1.816   6.292
14374SOL    HW244955   2.349   1.959   6.304
14375SOL     OW44956   6.574   8.095   0.639
14375SOL    HW144957   6.622   8.158   0.585
14375SOL    HW244958   6.488   8.090   0.599
14376SOL     OW44959   5.614   0.639   5.408
14376SOL    HW144960   5.604   0.628   5.313
14376SOL    HW244961   5.534   0.601   5.445
14377SOL     OW44962   1.546  11.063   2.046
14377SOL    HW144963   1.550  11.014   1.964
14377SOL    HW244964   1.548  10.997   2.114
14378SOL     OW44965   6.790   0.041   5.997
14378SOL    HW144966   6.875   0.053   6.041
14378SOL    HW244967   6.728   0.088   6.053
14379SOL     OW44968   5.426  13.979  12.030
14379SOL    HW144969   5.381  13.907  11.986
14379SOL    HW244970   5.360  14.017  12.087
14380SOL     OW44971   4.435   9.467  10.808
14380SOL    HW144972   4.355   9.519  10.815
14380SOL    HW244973   4.412   9.395  10.750
14381SOL     OW44974  13.504  10.181  12.952
14381SOL    HW144975  13.475  10.209  12.865
14381SOL    HW244976  13.540  10.261  12.991
14382SOL     OW44977   1.946  13.074   1.618
14382SOL    HW144978   2.007  13.052   1.689
14382SOL    HW244979   2.001  13.119   1.553
14383SOL     OW44980   7.574   9.960   8.359
14383SOL    HW144981   7.568   9.957   8.455
14383SOL    HW244982   7.517   9.889   8.329
14384SOL     OW44983   1.692   1.525   2.748
14384SOL    HW144984   1.706   1.442   2.701
14384SOL    HW244985   1.682   1.590   2.679
14385SOL     OW44986   7.707   2.261  13.883
14385SOL    HW144987   7.696   2.296  13.794
14385SOL    HW244988   7.712   2.339  13.938
14386SOL     OW44989   7.525   7.814   9.871
14386SOL    HW144990   7.605   7.852   9.909
14386SOL    HW244991   7.477   7.889   9.837
14387SOL     OW44992  12.385   7.769   7.528
14387SOL    HW144993  12.365   7.734   7.615
14387SOL    HW244994  12.427   7.853   7.546
14388SOL     OW44995  10.973  12.870  12.505
14388SOL    HW144996  11.045  12.917  12.546
14388SOL    HW244997  10.902  12.874  12.568
14389SOL     OW44998  14.719  11.227  12.994
14389SOL    HW144999  14.643  11.171  13.009
14389SOL    HW245000  14.747  11.254  13.081
14390SOL     OW45001  10.018   6.676   3.263
14390SOL    HW145002   9.949   6.674   3.196
14390SOL    HW245003  10.090   6.722   3.220
14391SOL     OW45004   6.143   6.606  12.952
14391SOL    HW145005   6.130   6.671  13.021
14391SOL    HW245006   6.186   6.533  12.996
14392SOL     OW45007   3.149  14.743  12.449
14392SOL    HW145008   3.131  14.778  12.362
14392SOL    HW245009   3.073  14.688  12.469
14393SOL     OW45010  10.179  10.903   8.297
14393SOL    HW145011  10.180  10.999   8.301
14393SOL    HW245012  10.212  10.875   8.383
14394SOL     OW45013   1.937   4.297   1.542
14394SOL    HW145014   2.027   4.321   1.519
14394SOL    HW245015   1.884   4.372   1.514
14395SOL     OW45016  14.760   5.261   8.414
14395SOL    HW145017  14.740   5.284   8.505
14395SOL    HW245018  14.824   5.326   8.386
14396SOL     OW45019  13.290  11.643  13.814
14396SOL    HW145020  13.334  11.728  13.820
14396SOL    HW245021  13.258  11.639  13.725
14397SOL     OW45022  11.873   1.666   3.828
14397SOL    HW145023  11.831   1.584   3.854
14397SOL    HW245024  11.808   1.733   3.848
14398SOL     OW45025   5.111  11.739   7.196
14398SOL    HW145026   5.170  11.684   7.144
14398SOL    HW245027   5.027  11.731   7.153
14399SOL     OW45028   9.230   0.458   8.849
14399SOL    HW145029   9.149   0.508   8.864
14399SOL    HW245030   9.202   0.383   8.796
14400SOL     OW45031   3.579   0.754   6.274
14400SOL    HW145032   3.663   0.799   6.284
14400SOL    HW245033   3.601   0.673   6.227
14401SOL     OW45034   7.985  12.679  10.383
14401SOL    HW145035   8.002  12.600  10.333
14401SOL    HW245036   8.002  12.751  10.322
14402SOL     OW45037   0.241  14.283  12.314
14402SOL    HW145038   0.260  14.376  12.322
14402SOL    HW245039   0.164  14.269  12.369
14403SOL     OW45040   8.497   5.453   8.596
14403SOL    HW145041   8.483   5.359   8.598
14403SOL    HW245042   8.415   5.491   8.627
14404SOL     OW45043  14.372   4.850   0.502
14404SOL    HW145044  14.319   4.867   0.580
14404SOL    HW245045  14.321   4.887   0.430
14405SOL     OW45046   5.648   6.413  14.066
14405SOL    HW145047   5.661   6.384  13.976
14405SOL    HW245048   5.554   6.428  14.072
14406SOL     OW45049   1.691  12.970   6.324
14406SOL    HW145050   1.686  13.066   6.323
14406SOL    HW245051   1.616  12.943   6.377
14407SOL     OW45052  11.816   1.850   3.332
14407SOL    HW145053  11.781   1.810   3.412
14407SOL    HW245054  11.741   1.894   3.292
14408SOL     OW45055   9.069   5.514   7.579
14408SOL    HW145056   9.013   5.561   7.640
14408SOL    HW245057   9.022   5.518   7.495
14409SOL     OW45058   4.264   2.003   7.503
14409SOL    HW145059   4.185   2.029   7.456
14409SOL    HW245060   4.243   2.017   7.596
14410SOL     OW45061   0.699  13.089   5.889
14410SOL    HW145062   0.676  12.996   5.883
14410SOL    HW245063   0.764  13.094   5.958
14411SOL     OW45064   4.670  13.546  12.478
14411SOL    HW145065   4.717  13.552  12.562
14411SOL    HW245066   4.617  13.467  12.486
14412SOL     OW45067   5.830   9.037   1.987
14412SOL    HW145068   5.752   8.999   2.028
14412SOL    HW245069   5.828   9.129   2.013
14413SOL     OW45070   8.501   9.581  12.422
14413SOL    HW145071   8.479   9.671  12.398
14413SOL    HW245072   8.488   9.578  12.517
14414SOL     OW45073   4.223  12.687   8.508
14414SOL    HW145074   4.257  12.600   8.530
14414SOL    HW245075   4.281  12.717   8.438
14415SOL     OW45076   6.885   1.616  11.287
14415SOL    HW145077   6.894   1.522  11.270
14415SOL    HW245078   6.813   1.644  11.230
14416SOL     OW45079   8.210   5.954   4.667
14416SOL    HW145080   8.240   5.915   4.749
14416SOL    HW245081   8.216   6.048   4.681
14417SOL     OW45082   9.938   8.575   3.638
14417SOL    HW145083  10.021   8.621   3.631
14417SOL    HW245084   9.962   8.484   3.654
14418SOL     OW45085  12.861   6.654  11.919
14418SOL    HW145086  12.855   6.704  11.838
14418SOL    HW245087  12.861   6.720  11.988
14419SOL     OW45088   3.064   4.372   0.101
14419SOL    HW145089   3.158   4.383   0.092
14419SOL    HW245090   3.042   4.301   0.040
14420SOL     OW45091   0.866   6.013   8.496
14420SOL    HW145092   0.855   6.082   8.561
14420SOL    HW245093   0.853   5.931   8.544
14421SOL     OW45094   9.828   8.319   6.922
14421SOL    HW145095   9.820   8.368   6.841
14421SOL    HW245096   9.753   8.349   6.975
14422SOL     OW45097  10.428   9.830   3.463
14422SOL    HW145098  10.408   9.923   3.455
14422SOL    HW245099  10.517   9.821   3.429
14423SOL     OW45100   6.048   5.096   6.752
14423SOL    HW145101   6.074   5.118   6.663
14423SOL    HW245102   5.954   5.077   6.746
14424SOL     OW45103   6.861   1.297   1.257
14424SOL    HW145104   6.829   1.289   1.347
14424SOL    HW245105   6.787   1.269   1.203
14425SOL     OW45106  13.851   6.459  10.745
14425SOL    HW145107  13.904   6.460  10.665
14425SOL    HW245108  13.877   6.538  10.791
14426SOL     OW45109   9.878  10.231   5.575
14426SOL    HW145110   9.802  10.186   5.539
14426SOL    HW245111   9.867  10.323   5.548
14427SOL     OW45112  11.193   9.859   5.503
14427SOL    HW145113  11.172   9.809   5.582
14427SOL    HW245114  11.118   9.918   5.492
14428SOL     OW45115   9.592  10.938   1.280
14428SOL    HW145116   9.684  10.935   1.306
14428SOL    HW245117   9.548  10.880   1.343
14429SOL     OW45118   3.444   3.436   4.206
14429SOL    HW145119   3.370   3.454   4.148
14429SOL    HW245120   3.409   3.448   4.294
14430SOL     OW45121  12.944   8.953  13.656
14430SOL    HW145122  12.974   8.909  13.735
14430SOL    HW245123  12.896   9.029  13.688
14431SOL     OW45124   1.669   5.896   1.462
14431SOL    HW145125   1.593   5.903   1.519
14431SOL    HW245126   1.668   5.976   1.409
14432SOL     OW45127   4.140   1.436   4.539
14432SOL    HW145128   4.097   1.423   4.454
14432SOL    HW245129   4.212   1.373   4.539
14433SOL     OW45130   6.615   1.659  11.875
14433SOL    HW145131   6.618   1.753  11.892
14433SOL    HW245132   6.638   1.619  11.959
14434SOL     OW45133  10.462  10.584  10.341
14434SOL    HW145134  10.467  10.502  10.390
14434SOL    HW245135  10.496  10.562  10.254
14435SOL     OW45136  13.057   2.861  13.267
14435SOL    HW145137  13.148   2.891  13.260
14435SOL    HW245138  13.031   2.839  13.177
14436SOL     OW45139   2.208   2.668  11.780
14436SOL    HW145140   2.181   2.755  11.750
14436SOL    HW245141   2.217   2.618  11.699
14437SOL     OW45142   6.888   4.016   3.498
14437SOL    HW145143   6.864   4.100   3.536
14437SOL    HW245144   6.980   4.004   3.521
14438SOL     OW45145   6.600   1.096   3.091
14438SOL    HW145146   6.610   1.147   3.172
14438SOL    HW245147   6.690   1.073   3.067
14439SOL     OW45148   1.053   7.790   2.941
14439SOL    HW145149   0.991   7.826   3.005
14439SOL    HW245150   0.999   7.761   2.868
14440SOL     OW45151   7.385  11.952   5.442
14440SOL    HW145152   7.428  11.936   5.527
14440SOL    HW245153   7.292  11.945   5.461
14441SOL     OW45154  12.184   6.580  14.702
14441SOL    HW145155  12.091   6.603  14.701
14441SOL    HW245156  12.192   6.518  14.774
14442SOL     OW45157  14.578  13.526  11.636
14442SOL    HW145158  14.615  13.519  11.724
14442SOL    HW245159  14.557  13.619  11.626
14443SOL     OW45160  13.241   8.819   5.500
14443SOL    HW145161  13.315   8.758   5.503
14443SOL    HW245162  13.282   8.905   5.489
14444SOL     OW45163   4.591   5.365  14.096
14444SOL    HW145164   4.519   5.373  14.034
14444SOL    HW245165   4.665   5.337  14.043
14445SOL     OW45166  11.598  11.445  13.845
14445SOL    HW145167  11.658  11.406  13.782
14445SOL    HW245168  11.561  11.521  13.800
14446SOL     OW45169  13.237   6.823   2.007
14446SOL    HW145170  13.318   6.809   2.057
14446SOL    HW245171  13.193   6.894   2.053
14447SOL     OW45172   4.269  13.299   2.914
14447SOL    HW145173   4.194  13.283   2.971
14447SOL    HW245174   4.249  13.383   2.872
14448SOL     OW45175  14.098   8.163   7.807
14448SOL    HW145176  14.139   8.235   7.759
14448SOL    HW245177  14.098   8.090   7.746
14449SOL     OW45178   8.788   7.248   6.610
14449SOL    HW145179   8.735   7.299   6.549
14449SOL    HW245180   8.878   7.277   6.594
14450SOL     OW45181   4.319   3.773  14.867
14450SOL    HW145182   4.321   3.823  14.785
14450SOL    HW245183   4.399   3.720  14.863
14451SOL     OW45184   5.634  11.017   8.538
14451SOL    HW145185   5.558  10.959   8.542
14451SOL    HW245186   5.642  11.041   8.446
14452SOL     OW45187  12.693   3.732  12.358
14452SOL    HW145188  12.770   3.675  12.364
14452SOL    HW245189  12.722   3.807  12.307
14453SOL     OW45190   1.719   5.297  12.232
14453SOL    HW145191   1.714   5.277  12.138
14453SOL    HW245192   1.646   5.249  12.270
14454SOL     OW45193  13.207   9.295   9.521
14454SOL    HW145194  13.143   9.256   9.462
14454SOL    HW245195  13.280   9.322   9.464
14455SOL     OW45196   0.055   9.754   4.142
14455SOL    HW145197   0.104   9.672   4.149
14455SOL    HW245198   0.018   9.767   4.229
14456SOL     OW45199   9.566   7.103   5.961
14456SOL    HW145200   9.558   7.064   6.048
14456SOL    HW245201   9.547   7.031   5.901
14457SOL     OW45202  12.959   7.491   9.219
14457SOL    HW145203  13.050   7.481   9.246
14457SOL    HW245204  12.909   7.459   9.294
14458SOL     OW45205   1.769  13.315   0.844
14458SOL    HW145206   1.795  13.296   0.754
14458SOL    HW245207   1.683  13.274   0.854
14459SOL     OW45208   0.849  14.594  11.857
14459SOL    HW145209   0.821  14.681  11.831
14459SOL    HW245210   0.944  14.599  11.860
14460SOL     OW45211   7.342   2.393  12.455
14460SOL    HW145212   7.312   2.446  12.529
14460SOL    HW245213   7.333   2.302  12.485
14461SOL     OW45214  13.529   1.818  13.842
14461SOL    HW145215  13.563   1.834  13.754
14461SOL    HW245216  13.434   1.828  13.834
14462SOL     OW45217   9.365   3.869   1.513
14462SOL    HW145218   9.399   3.797   1.566
14462SOL    HW245219   9.288   3.899   1.561
14463SOL     OW45220   1.686   8.517   1.427
14463SOL    HW145221   1.739   8.597   1.420
14463SOL    HW245222   1.601   8.547   1.459
14464SOL     OW45223   8.192  14.619  10.830
14464SOL    HW145224   8.197  14.525  10.844
14464SOL    HW245225   8.101  14.642  10.847
14465SOL     OW45226   7.139   1.396   4.467
14465SOL    HW145227   7.226   1.394   4.506
14465SOL    HW245228   7.126   1.487   4.442
14466SOL     OW45229   4.635   9.544   8.157
14466SOL    HW145230   4.609   9.467   8.208
14466SOL    HW245231   4.633   9.513   8.066
14467SOL     OW45232   6.611   4.813   5.868
14467SOL    HW145233   6.626   4.719   5.857
14467SOL    HW245234   6.692   4.854   5.839
14468SOL     OW45235   5.402   0.940   5.010
14468SOL    HW145236   5.479   0.931   5.066
14468SOL    HW245237   5.402   1.031   4.983
14469SOL     OW45238   5.321  14.752  13.153
14469SOL    HW145239   5.396  14.694  13.148
14469SOL    HW245240   5.253  14.709  13.101
14470SOL     OW45241  14.119  11.527  10.183
14470SOL    HW145242  14.055  11.560  10.121
14470SOL    HW245243  14.121  11.433  10.168
14471SOL     OW45244   7.139   5.797  13.973
14471SOL    HW145245   7.152   5.890  13.953
14471SOL    HW245246   7.151   5.791  14.068
14472SOL     OW45247   9.793   1.658   2.642
14472SOL    HW145248   9.720   1.596   2.644
14472SOL    HW245249   9.754   1.742   2.667
14473SOL     OW45250   0.258   2.466   8.429
14473SOL    HW145251   0.272   2.457   8.523
14473SOL    HW245252   0.166   2.490   8.420
14474SOL     OW45253   5.967   2.876   6.776
14474SOL    HW145254   5.890   2.851   6.826
14474SOL    HW245255   5.942   2.860   6.685
14475SOL     OW45256  10.786   0.261   2.576
14475SOL    HW145257  10.767   0.283   2.667
14475SOL    HW245258  10.756   0.171   2.566
14476SOL     OW45259   3.522   9.645  10.832
14476SOL    HW145260   3.616   9.642  10.846
14476SOL    HW245261   3.484   9.624  10.917
14477SOL     OW45262   1.764   2.639   9.601
14477SOL    HW145263   1.846   2.590   9.594
14477SOL    HW245264   1.777   2.716   9.545
14478SOL     OW45265  11.169  12.654   2.906
14478SOL    HW145266  11.089  12.610   2.879
14478SOL    HW245267  11.153  12.747   2.891
14479SOL     OW45268   6.655   3.904   8.085
14479SOL    HW145269   6.727   3.871   8.140
14479SOL    HW245270   6.576   3.876   8.131
14480SOL     OW45271   3.768   5.253   2.184
14480SOL    HW145272   3.751   5.247   2.278
14480SOL    HW245273   3.725   5.334   2.157
14481SOL     OW45274  14.860   2.605   9.617
14481SOL    HW145275  14.770   2.629   9.594
14481SOL    HW245276   0.028   2.689   9.634
14482SOL     OW45277  11.396   8.294  12.696
14482SOL    HW145278  11.473   8.249  12.661
14482SOL    HW245279  11.322   8.241  12.668
14483SOL     OW45280   4.975   1.193   7.331
14483SOL    HW145281   4.882   1.205   7.315
14483SOL    HW245282   5.010   1.281   7.343
14484SOL     OW45283   5.192   0.064  11.844
14484SOL    HW145284   5.117   0.012  11.874
14484SOL    HW245285   5.251   0.067  11.919
14485SOL     OW45286  12.783   3.177  14.651
14485SOL    HW145287  12.859   3.217  14.694
14485SOL    HW245288  12.736   3.251  14.612
14486SOL     OW45289   2.495  12.524   7.145
14486SOL    HW145290   2.405  12.531   7.113
14486SOL    HW245291   2.535  12.607   7.120
14487SOL     OW45292  10.417  14.227   7.094
14487SOL    HW145293  10.503  14.190   7.114
14487SOL    HW245294  10.437  14.310   7.049
14488SOL     OW45295   8.141  13.057   9.786
14488SOL    HW145296   8.099  13.072   9.701
14488SOL    HW245297   8.178  13.142   9.810
14489SOL     OW45298   5.606  13.100   1.826
14489SOL    HW145299   5.544  13.058   1.766
14489SOL    HW245300   5.559  13.176   1.860
14490SOL     OW45301   8.038   8.367   1.897
14490SOL    HW145302   8.089   8.286   1.890
14490SOL    HW245303   7.990   8.372   1.814
14491SOL     OW45304   1.685  10.596   4.528
14491SOL    HW145305   1.609  10.654   4.538
14491SOL    HW245306   1.646  10.509   4.514
14492SOL     OW45307   6.015   9.431   2.223
14492SOL    HW145308   5.935   9.383   2.203
14492SOL    HW245309   6.055   9.449   2.138
14493SOL     OW45310  12.532  12.567   0.451
14493SOL    HW145311  12.479  12.579   0.372
14493SOL    HW245312  12.475  12.595   0.523
14494SOL     OW45313   1.746   9.848   0.075
14494SOL    HW145314   1.820   9.905   0.051
14494SOL    HW245315   1.750   9.776   0.013
14495SOL     OW45316   6.753   1.814   1.167
14495SOL    HW145317   6.677   1.850   1.212
14495SOL    HW245318   6.767   1.872   1.093
14496SOL     OW45319   9.079  12.059  11.167
14496SOL    HW145320   9.166  12.076  11.132
14496SOL    HW245321   9.049  11.981  11.121
14497SOL     OW45322   7.201   5.957  14.809
14497SOL    HW145323   7.213   6.051  14.825
14497SOL    HW245324   7.175   5.922   0.018
14498SOL     OW45325  13.461  10.902   3.180
14498SOL    HW145326  13.395  10.873   3.244
14498SOL    HW245327  13.539  10.920   3.233
14499SOL     OW45328   0.635  13.354   7.247
14499SOL    HW145329   0.692  13.422   7.283
14499SOL    HW245330   0.548  13.377   7.279
14500SOL     OW45331   0.413   7.378   2.011
14500SOL    HW145332   0.417   7.423   1.927
14500SOL    HW245333   0.499   7.393   2.050
14501SOL     OW45334  14.814   5.795   5.107
14501SOL    HW145335   0.030   5.816   5.119
14501SOL    HW245336  14.781   5.780   5.195
14502SOL     OW45337  14.236   6.914  13.863
14502SOL    HW145338  14.242   6.972  13.787
14502SOL    HW245339  14.240   6.973  13.938
14503SOL     OW45340   8.999   0.316  11.039
14503SOL    HW145341   9.009   0.294  10.947
14503SOL    HW245342   9.065   0.383  11.055
14504SOL     OW45343  11.249   5.193  12.070
14504SOL    HW145344  11.225   5.278  12.034
14504SOL    HW245345  11.318   5.212  12.133
14505SOL     OW45346  12.938  13.480   1.445
14505SOL    HW145347  12.890  13.563   1.441
14505SOL    HW245348  12.939  13.449   1.354
14506SOL     OW45349  11.919  11.327   2.118
14506SOL    HW145350  11.900  11.406   2.167
14506SOL    HW245351  11.941  11.357   2.031
14507SOL     OW45352   4.649   2.062   7.551
14507SOL    HW145353   4.560   2.089   7.574
14507SOL    HW245354   4.661   1.978   7.595
14508SOL     OW45355   0.579   5.959   5.224
14508SOL    HW145356   0.491   5.996   5.235
14508SOL    HW245357   0.591   5.905   5.301
14509SOL     OW45358  11.553  10.076   0.492
14509SOL    HW145359  11.618  10.061   0.561
14509SOL    HW245360  11.574  10.163   0.458
14510SOL     OW45361   0.671  14.450  13.677
14510SOL    HW145362   0.684  14.372  13.623
14510SOL    HW245363   0.625  14.418  13.755
14511SOL     OW45364   3.794  10.472   5.554
14511SOL    HW145365   3.779  10.388   5.597
14511SOL    HW245366   3.714  10.523   5.572
14512SOL     OW45367   6.953   8.746  13.295
14512SOL    HW145368   6.912   8.832  13.297
14512SOL    HW245369   6.900   8.695  13.233
14513SOL     OW45370  14.777   2.968  10.275
14513SOL    HW145371  14.849   2.905  10.279
14513SOL    HW245372  14.777   2.998  10.184
14514SOL     OW45373  13.336  14.773   3.273
14514SOL    HW145374  13.309  14.843   3.333
14514SOL    HW245375  13.315  14.692   3.319
14515SOL     OW45376  10.841  14.836   3.422
14515SOL    HW145377  10.911  14.781   3.456
14515SOL    HW245378  10.774  14.835   3.491
14516SOL     OW45379   9.190   7.440  10.186
14516SOL    HW145380   9.145   7.510  10.233
14516SOL    HW245381   9.235   7.483  10.114
14517SOL     OW45382   2.589   7.296   6.779
14517SOL    HW145383   2.627   7.239   6.847
14517SOL    HW245384   2.563   7.236   6.710
14518SOL     OW45385   4.326   4.030  10.319
14518SOL    HW145386   4.367   3.964  10.375
14518SOL    HW245387   4.345   4.114  10.362
14519SOL     OW45388  12.166   3.458   7.045
14519SOL    HW145389  12.119   3.542   7.053
14519SOL    HW245390  12.109   3.395   7.089
14520SOL     OW45391   1.239   7.695   9.725
14520SOL    HW145392   1.306   7.719   9.789
14520SOL    HW245393   1.281   7.629   9.670
14521SOL     OW45394   8.672   1.158   9.395
14521SOL    HW145395   8.656   1.209   9.474
14521SOL    HW245396   8.717   1.218   9.336
14522SOL     OW45397   6.340  12.179   2.723
14522SOL    HW145398   6.409  12.238   2.754
14522SOL    HW245399   6.310  12.134   2.802
14523SOL     OW45400   9.417   0.519   8.132
14523SOL    HW145401   9.416   0.563   8.047
14523SOL    HW245402   9.376   0.582   8.191
14524SOL     OW45403  12.125   8.440  12.508
14524SOL    HW145404  12.050   8.481  12.465
14524SOL    HW245405  12.104   8.445  12.602
14525SOL     OW45406   5.575  12.992   7.407
14525SOL    HW145407   5.490  12.975   7.365
14525SOL    HW245408   5.554  13.005   7.499
14526SOL     OW45409   8.664   4.386   2.492
14526SOL    HW145410   8.669   4.481   2.495
14526SOL    HW245411   8.690   4.357   2.579
14527SOL     OW45412   7.399  10.225   2.031
14527SOL    HW145413   7.492  10.244   2.025
14527SOL    HW245414   7.356  10.310   2.019
14528SOL     OW45415   5.581  13.284  11.214
14528SOL    HW145416   5.645  13.301  11.145
14528SOL    HW245417   5.502  13.257  11.168
14529SOL     OW45418   6.199  13.105   5.567
14529SOL    HW145419   6.237  13.170   5.508
14529SOL    HW245420   6.224  13.021   5.529
14530SOL     OW45421  12.848  11.483   6.250
14530SOL    HW145422  12.824  11.574   6.233
14530SOL    HW245423  12.943  11.486   6.263
14531SOL     OW45424  10.128  12.890   4.784
14531SOL    HW145425  10.034  12.871   4.786
14531SOL    HW245426  10.165  12.818   4.731
14532SOL     OW45427  12.277   9.850   0.364
14532SOL    HW145428  12.293   9.807   0.280
14532SOL    HW245429  12.189   9.887   0.356
14533SOL     OW45430   9.189  10.714   6.173
14533SOL    HW145431   9.159  10.798   6.208
14533SOL    HW245432   9.284  10.717   6.182
14534SOL     OW45433   8.355   4.355   1.921
14534SOL    HW145434   8.340   4.265   1.892
14534SOL    HW245435   8.340   4.408   1.842
14535SOL     OW45436   9.149  13.151   4.252
14535SOL    HW145437   9.214  13.177   4.187
14535SOL    HW245438   9.071  13.129   4.202
14536SOL     OW45439   8.038   2.673  10.856
14536SOL    HW145440   8.072   2.746  10.804
14536SOL    HW245441   8.109   2.609  10.858
14537SOL     OW45442  13.748   8.636   3.945
14537SOL    HW145443  13.661   8.664   3.974
14537SOL    HW245444  13.786   8.592   4.021
14538SOL     OW45445   4.878  11.045  10.760
14538SOL    HW145446   4.947  11.072  10.820
14538SOL    HW245447   4.923  11.006  10.686
14539SOL     OW45448   3.206   2.066   2.998
14539SOL    HW145449   3.177   2.097   3.084
14539SOL    HW245450   3.133   2.086   2.939
14540SOL     OW45451   9.980   7.051   1.655
14540SOL    HW145452   9.916   7.093   1.713
14540SOL    HW245453   9.963   6.957   1.665
14541SOL     OW45454  14.742   6.694   2.128
14541SOL    HW145455  14.810   6.647   2.079
14541SOL    HW245456  14.775   6.783   2.135
14542SOL     OW45457  14.331  11.852   3.771
14542SOL    HW145458  14.380  11.817   3.845
14542SOL    HW245459  14.291  11.932   3.806
14543SOL     OW45460   8.961   1.691   4.154
14543SOL    HW145461   9.030   1.641   4.111
14543SOL    HW245462   8.936   1.639   4.230
14544SOL     OW45463   4.366  10.492  13.266
14544SOL    HW145464   4.359  10.397  13.273
14544SOL    HW245465   4.284  10.519  13.224
14545SOL     OW45466  11.576   7.797   1.889
14545SOL    HW145467  11.587   7.883   1.929
14545SOL    HW245468  11.618   7.805   1.803
14546SOL     OW45469   8.133   7.537  10.110
14546SOL    HW145470   8.102   7.575  10.192
14546SOL    HW245471   8.133   7.610  10.048
14547SOL     OW45472   9.741   7.254   9.171
14547SOL    HW145473   9.726   7.160   9.167
14547SOL    HW245474   9.818   7.264   9.227
14548SOL     OW45475   8.793  10.573   1.144
14548SOL    HW145476   8.847  10.625   1.084
14548SOL    HW245477   8.793  10.623   1.226
14549SOL     OW45478   3.597   2.809  12.807
14549SOL    HW145479   3.591   2.831  12.900
14549SOL    HW245480   3.690   2.813  12.786
14550SOL     OW45481  14.242   0.629   4.654
14550SOL    HW145482  14.184   0.640   4.730
14550SOL    HW245483  14.189   0.657   4.579
14551SOL     OW45484   1.651   1.637   3.848
14551SOL    HW145485   1.710   1.585   3.794
14551SOL    HW245486   1.697   1.647   3.932
14552SOL     OW45487   2.159   1.603   8.243
14552SOL    HW145488   2.172   1.645   8.328
14552SOL    HW245489   2.232   1.634   8.190
14553SOL     OW45490   8.290   2.102  11.985
14553SOL    HW145491   8.257   2.014  11.967
14553SOL    HW245492   8.214   2.149  12.020
14554SOL     OW45493  12.703   8.742  10.626
14554SOL    HW145494  12.760   8.720  10.700
14554SOL    HW245495  12.616   8.750  10.665
14555SOL     OW45496  12.151  12.778  10.488
14555SOL    HW145497  12.202  12.809  10.563
14555SOL    HW245498  12.211  12.784  10.414
14556SOL     OW45499   9.006  11.097   1.261
14556SOL    HW145500   9.020  11.141   1.345
14556SOL    HW245501   9.074  11.132   1.204
14557SOL     OW45502  12.785   1.767  11.287
14557SOL    HW145503  12.786   1.836  11.354
14557SOL    HW245504  12.739   1.807  11.213
14558SOL     OW45505   9.471   7.133  13.982
14558SOL    HW145506   9.437   7.157  13.896
14558SOL    HW245507   9.446   7.042  13.994
14559SOL     OW45508   5.275   7.109   9.021
14559SOL    HW145509   5.295   7.058   9.100
14559SOL    HW245510   5.309   7.196   9.040
14560SOL     OW45511   4.390   5.621   6.917
14560SOL    HW145512   4.452   5.688   6.945
14560SOL    HW245513   4.433   5.538   6.939
14561SOL     OW45514   0.445   9.540   1.855
14561SOL    HW145515   0.454   9.534   1.950
14561SOL    HW245516   0.361   9.498   1.836
14562SOL     OW45517   3.683  13.350   8.995
14562SOL    HW145518   3.766  13.397   8.997
14562SOL    HW245519   3.705  13.263   8.962
14563SOL     OW45520   5.278  13.368  13.563
14563SOL    HW145521   5.355  13.353  13.508
14563SOL    HW245522   5.250  13.280  13.589
14564SOL     OW45523   6.951   1.099   7.619
14564SOL    HW145524   6.895   1.025   7.640
14564SOL    HW245525   6.914   1.136   7.538
14565SOL     OW45526  14.357   0.998   4.968
14565SOL    HW145527  14.327   1.065   4.908
14565SOL    HW245528  14.401   0.933   4.913
14566SOL     OW45529   4.615   6.974   1.980
14566SOL    HW145530   4.665   6.907   2.027
14566SOL    HW245531   4.584   7.033   2.048
14567SOL     OW45532   3.057   5.216  10.480
14567SOL    HW145533   2.976   5.189  10.522
14567SOL    HW245534   3.038   5.212  10.386
14568SOL     OW45535   9.278   8.061  10.181
14568SOL    HW145536   9.305   8.146  10.148
14568SOL    HW245537   9.223   8.080  10.257
14569SOL     OW45538   8.571  13.603   6.725
14569SOL    HW145539   8.577  13.513   6.756
14569SOL    HW245540   8.661  13.635   6.725
14570SOL     OW45541   0.676   7.666   0.485
14570SOL    HW145542   0.756   7.620   0.459
14570SOL    HW245543   0.616   7.653   0.412
14571SOL     OW45544   2.204   2.452  13.428
14571SOL    HW145545   2.295   2.427  13.413
14571SOL    HW245546   2.201   2.545  13.406
14572SOL     OW45547   3.807  12.531   4.829
14572SOL    HW145548   3.801  12.442   4.864
14572SOL    HW245549   3.879  12.528   4.766
14573SOL     OW45550   6.767   1.188  12.729
14573SOL    HW145551   6.703   1.196  12.659
14573SOL    HW245552   6.795   1.278  12.747
14574SOL     OW45553   0.626   1.425  13.794
14574SOL    HW145554   0.630   1.342  13.747
14574SOL    HW245555   0.643   1.491  13.728
14575SOL     OW45556   8.052   2.378   6.850
14575SOL    HW145557   8.032   2.310   6.785
14575SOL    HW245558   8.033   2.338   6.934
14576SOL     OW45559  14.119   0.253  10.367
14576SOL    HW145560  14.188   0.188  10.352
14576SOL    HW245561  14.092   0.240  10.458
14577SOL     OW45562  10.942   5.537   1.254
14577SOL    HW145563  10.946   5.530   1.349
14577SOL    HW245564  11.024   5.580   1.230
14578SOL     OW45565   8.750  11.235   3.399
14578SOL    HW145566   8.743  11.296   3.326
14578SOL    HW245567   8.698  11.275   3.469
14579SOL     OW45568   7.475   6.590   7.160
14579SOL    HW145569   7.457   6.639   7.080
14579SOL    HW245570   7.388   6.574   7.199
14580SOL     OW45571   9.848   9.998  12.230
14580SOL    HW145572   9.796   9.967  12.155
14580SOL    HW245573   9.849   9.923  12.290
14581SOL     OW45574  13.229  10.589   3.253
14581SOL    HW145575  13.141  10.551   3.243
14581SOL    HW245576  13.215  10.670   3.301
14582SOL     OW45577  11.344  13.496   2.439
14582SOL    HW145578  11.354  13.425   2.375
14582SOL    HW245579  11.275  13.551   2.402
14583SOL     OW45580   1.274   5.898  13.361
14583SOL    HW145581   1.243   5.964  13.299
14583SOL    HW245582   1.345   5.941  13.409
14584SOL     OW45583   9.335  12.550   2.644
14584SOL    HW145584   9.415  12.497   2.644
14584SOL    HW245585   9.329  12.584   2.733
14585SOL     OW45586   1.127   4.118   0.945
14585SOL    HW145587   1.098   4.027   0.949
14585SOL    HW245588   1.202   4.123   1.004
14586SOL     OW45589  12.099   7.556   5.151
14586SOL    HW145590  12.039   7.630   5.157
14586SOL    HW245591  12.087   7.509   5.234
14587SOL     OW45592   5.898  14.412   4.817
14587SOL    HW145593   5.824  14.462   4.782
14587SOL    HW245594   5.902  14.436   4.909
14588SOL     OW45595   4.308  11.121  10.193
14588SOL    HW145596   4.396  11.085  10.183
14588SOL    HW245597   4.274  11.127  10.103
14589SOL     OW45598  10.373  12.736   5.938
14589SOL    HW145599  10.287  12.728   5.895
14589SOL    HW245600  10.434  12.756   5.867
14590SOL     OW45601   1.924  13.621  11.095
14590SOL    HW145602   1.886  13.630  11.182
14590SOL    HW245603   1.955  13.531  11.092
14591SOL     OW45604  14.061   8.290   5.887
14591SOL    HW145605  13.994   8.321   5.947
14591SOL    HW245606  14.053   8.346   5.810
14592SOL     OW45607  10.731   3.790   2.671
14592SOL    HW145608  10.793   3.848   2.716
14592SOL    HW245609  10.654   3.789   2.727
14593SOL     OW45610   7.653   7.902   2.040
14593SOL    HW145611   7.694   7.982   2.008
14593SOL    HW245612   7.567   7.901   1.999
14594SOL     OW45613   7.297   4.244   4.222
14594SOL    HW145614   7.324   4.186   4.151
14594SOL    HW245615   7.379   4.266   4.267
14595SOL     OW45616   4.761   4.439   3.880
14595SOL    HW145617   4.732   4.440   3.788
14595SOL    HW245618   4.854   4.463   3.875
14596SOL     OW45619  12.897  10.599  10.695
14596SOL    HW145620  12.821  10.580  10.749
14596SOL    HW245621  12.926  10.513  10.663
14597SOL     OW45622  10.060   3.358  10.843
14597SOL    HW145623  10.093   3.432  10.792
14597SOL    HW245624  10.036   3.293  10.777
14598SOL     OW45625  10.920   4.556   4.034
14598SOL    HW145626  10.908   4.632   4.090
14598SOL    HW245627  10.953   4.592   3.951
14599SOL     OW45628   1.668   2.988   0.549
14599SOL    HW145629   1.672   3.011   0.456
14599SOL    HW245630   1.670   2.892   0.550
14600SOL     OW45631   7.227   2.565  12.880
14600SOL    HW145632   7.276   2.511  12.818
14600SOL    HW245633   7.279   2.645  12.888
14601SOL     OW45634   8.297  12.815   8.586
14601SOL    HW145635   8.273  12.736   8.537
14601SOL    HW245636   8.352  12.784   8.657
14602SOL     OW45637  12.199   3.582   9.072
14602SOL    HW145638  12.217   3.675   9.080
14602SOL    HW245639  12.156   3.559   9.155
14603SOL     OW45640   5.873   5.495   8.816
14603SOL    HW145641   5.785   5.459   8.818
14603SOL    HW245642   5.886   5.531   8.904
14604SOL     OW45643   8.715  13.200  14.444
14604SOL    HW145644   8.738  13.196  14.351
14604SOL    HW245645   8.627  13.162  14.448
14605SOL     OW45646  14.088   1.584  12.008
14605SOL    HW145647  14.101   1.491  11.991
14605SOL    HW245648  14.149   1.628  11.947
14606SOL     OW45649   4.128   2.303  12.977
14606SOL    HW145650   4.088   2.216  12.977
14606SOL    HW245651   4.142   2.322  12.884
14607SOL     OW45652   2.628  14.137  12.531
14607SOL    HW145653   2.716  14.108  12.505
14607SOL    HW245654   2.606  14.206  12.468
14608SOL     OW45655  12.193   5.822  11.806
14608SOL    HW145656  12.165   5.912  11.794
14608SOL    HW245657  12.172   5.779  11.723
14609SOL     OW45658  14.686   3.350   6.456
14609SOL    HW145659  14.639   3.415   6.403
14609SOL    HW245660  14.652   3.266   6.425
14610SOL     OW45661  14.853   6.145   8.736
14610SOL    HW145662  14.848   6.125   8.643
14610SOL    HW245663  14.765   6.177   8.759
14611SOL     OW45664   6.043   3.536   9.661
14611SOL    HW145665   6.074   3.491   9.740
14611SOL    HW245666   6.107   3.514   9.594
14612SOL     OW45667  12.552   2.501   5.192
14612SOL    HW145668  12.507   2.553   5.259
14612SOL    HW245669  12.526   2.411   5.209
14613SOL     OW45670  10.220   0.932   5.231
14613SOL    HW145671  10.238   1.025   5.244
14613SOL    HW245672  10.305   0.893   5.210
14614SOL     OW45673   5.334   4.279   3.177
14614SOL    HW145674   5.418   4.280   3.131
14614SOL    HW245675   5.356   4.249   3.265
14615SOL     OW45676  13.438  10.430   5.785
14615SOL    HW145677  13.400  10.505   5.830
14615SOL    HW245678  13.487  10.468   5.712
14616SOL     OW45679   2.602  11.469  10.056
14616SOL    HW145680   2.546  11.499  10.127
14616SOL    HW245681   2.622  11.378  10.078
14617SOL     OW45682   1.696   9.581  13.386
14617SOL    HW145683   1.739   9.666  13.387
14617SOL    HW245684   1.749   9.527  13.445
14618SOL     OW45685   4.916   4.445   4.997
14618SOL    HW145686   4.892   4.357   5.026
14618SOL    HW245687   5.010   4.451   5.013
14619SOL     OW45688   5.135   4.688  12.556
14619SOL    HW145689   5.079   4.633  12.610
14619SOL    HW245690   5.095   4.775  12.562
14620SOL     OW45691   2.213  11.311   3.534
14620SOL    HW145692   2.163  11.292   3.455
14620SOL    HW245693   2.175  11.391   3.570
14621SOL     OW45694  12.776  14.702  12.172
14621SOL    HW145695  12.817  14.617  12.159
14621SOL    HW245696  12.711  14.708  12.102
14622SOL     OW45697   1.437  11.117   3.906
14622SOL    HW145698   1.412  11.115   3.814
14622SOL    HW245699   1.533  11.120   3.905
14623SOL     OW45700   0.227  12.638  12.868
14623SOL    HW145701   0.144  12.614  12.826
14623SOL    HW245702   0.241  12.730  12.843
14624SOL     OW45703  12.552   1.346  11.663
14624SOL    HW145704  12.609   1.321  11.590
14624SOL    HW245705  12.592   1.305  11.740
14625SOL     OW45706  10.067   1.587   0.733
14625SOL    HW145707  10.050   1.539   0.814
14625SOL    HW245708  10.077   1.678   0.760
14626SOL     OW45709  14.279   6.575   1.279
14626SOL    HW145710  14.184   6.560   1.280
14626SOL    HW245711  14.295   6.616   1.194
14627SOL     OW45712   7.481   2.535   5.384
14627SOL    HW145713   7.485   2.569   5.474
14627SOL    HW245714   7.412   2.585   5.342
14628SOL     OW45715   5.628   0.592   6.620
14628SOL    HW145716   5.703   0.535   6.632
14628SOL    HW245717   5.648   0.643   6.542
14629SOL     OW45718   8.952   0.058   0.141
14629SOL    HW145719   8.884   0.021   0.085
14629SOL    HW245720   9.019   0.089   0.081
14630SOL     OW45721  14.029   2.212   1.614
14630SOL    HW145722  14.030   2.116   1.616
14630SOL    HW245723  14.030   2.237   1.707
14631SOL     OW45724  12.824   1.151   3.787
14631SOL    HW145725  12.903   1.099   3.772
14631SOL    HW245726  12.767   1.131   3.713
14632SOL     OW45727   8.104  14.451  14.429
14632SOL    HW145728   8.156  14.520  14.389
14632SOL    HW245729   8.079  14.487  14.515
14633SOL     OW45730   7.011   8.594  13.694
14633SOL    HW145731   6.997   8.537  13.770
14633SOL    HW245732   7.058   8.539  13.631
14634SOL     OW45733   3.563  13.308   5.621
14634SOL    HW145734   3.484  13.308   5.568
14634SOL    HW245735   3.628  13.355   5.569
14635SOL     OW45736   1.531   6.390   3.347
14635SOL    HW145737   1.547   6.315   3.403
14635SOL    HW245738   1.448   6.426   3.378
14636SOL     OW45739  11.752   0.746   4.330
14636SOL    HW145740  11.819   0.804   4.367
14636SOL    HW245741  11.705   0.801   4.267
14637SOL     OW45742  12.433  12.541   9.374
14637SOL    HW145743  12.373  12.615   9.368
14637SOL    HW245744  12.450  12.517   9.283
14638SOL     OW45745   8.176   2.174   5.471
14638SOL    HW145746   8.111   2.149   5.405
14638SOL    HW245747   8.163   2.268   5.483
14639SOL     OW45748   2.925   6.537   8.840
14639SOL    HW145749   2.964   6.553   8.755
14639SOL    HW245750   2.939   6.444   8.857
14640SOL     OW45751   1.776  11.056   4.762
14640SOL    HW145752   1.851  11.008   4.727
14640SOL    HW245753   1.748  11.005   4.838
14641SOL     OW45754   7.427   0.455   6.901
14641SOL    HW145755   7.506   0.472   6.849
14641SOL    HW245756   7.389   0.542   6.916
14642SOL     OW45757   2.458   7.177  11.750
14642SOL    HW145758   2.460   7.113  11.679
14642SOL    HW245759   2.492   7.130  11.826
14643SOL     OW45760  12.458  13.259   1.911
14643SOL    HW145761  12.410  13.285   1.832
14643SOL    HW245762  12.508  13.337   1.935
14644SOL     OW45763   4.256  10.809   9.797
14644SOL    HW145764   4.267  10.747   9.869
14644SOL    HW245765   4.165  10.798   9.769
14645SOL     OW45766   9.910  12.094   6.992
14645SOL    HW145767   9.847  12.146   6.942
14645SOL    HW245768   9.859  12.020   7.025
14646SOL     OW45769   7.846   3.815   9.963
14646SOL    HW145770   7.757   3.812   9.999
14646SOL    HW245771   7.849   3.897   9.913
14647SOL     OW45772   6.004   3.704  10.367
14647SOL    HW145773   5.919   3.746  10.358
14647SOL    HW245774   5.986   3.611  10.355
14648SOL     OW45775  12.323   5.161   2.491
14648SOL    HW145776  12.378   5.240   2.491
14648SOL    HW245777  12.265   5.173   2.416
14649SOL     OW45778  11.025   5.527  10.677
14649SOL    HW145779  11.096   5.547  10.616
14649SOL    HW245780  10.990   5.443  10.648
14650SOL     OW45781   2.232   0.707   2.101
14650SOL    HW145782   2.210   0.730   2.191
14650SOL    HW245783   2.317   0.665   2.107
14651SOL     OW45784   8.434  10.192   3.312
14651SOL    HW145785   8.348  10.166   3.278
14651SOL    HW245786   8.487  10.112   3.308
14652SOL     OW45787   5.117   5.736   0.545
14652SOL    HW145788   5.117   5.670   0.614
14652SOL    HW245789   5.073   5.811   0.584
14653SOL     OW45790  10.105  12.187   1.480
14653SOL    HW145791  10.100  12.264   1.538
14653SOL    HW245792  10.196  12.184   1.453
14654SOL     OW45793   2.685   6.123   9.737
14654SOL    HW145794   2.765   6.145   9.785
14654SOL    HW245795   2.716   6.073   9.661
14655SOL     OW45796  10.309  11.185  13.175
14655SOL    HW145797  10.390  11.151  13.137
14655SOL    HW245798  10.338  11.231  13.254
14656SOL     OW45799  13.390   2.334   2.324
14656SOL    HW145800  13.463   2.394   2.343
14656SOL    HW245801  13.393   2.270   2.395
14657SOL     OW45802   2.530   0.372   9.986
14657SOL    HW145803   2.447   0.389  10.030
14657SOL    HW245804   2.539   0.276   9.988
14658SOL     OW45805  11.396   3.940   1.875
14658SOL    HW145806  11.403   4.029   1.841
14658SOL    HW245807  11.441   3.943   1.960
14659SOL     OW45808   7.814   6.830  10.766
14659SOL    HW145809   7.823   6.925  10.776
14659SOL    HW245810   7.788   6.818  10.674
14660SOL     OW45811  10.738   9.678   0.796
14660SOL    HW145812  10.779   9.764   0.810
14660SOL    HW245813  10.812   9.618   0.789
14661SOL     OW45814  14.394   7.970  11.496
14661SOL    HW145815  14.346   7.890  11.476
14661SOL    HW245816  14.445   7.988  11.417
14662SOL     OW45817  10.051   0.827  11.455
14662SOL    HW145818   9.971   0.861  11.495
14662SOL    HW245819  10.108   0.806  11.529
14663SOL     OW45820  13.525  11.260   8.405
14663SOL    HW145821  13.569  11.195   8.461
14663SOL    HW245822  13.444  11.218   8.379
14664SOL     OW45823  14.517  14.403  13.782
14664SOL    HW145824  14.441  14.347  13.797
14664SOL    HW245825  14.507  14.476  13.843
14665SOL     OW45826   0.632  13.851  12.242
14665SOL    HW145827   0.536  13.848  12.248
14665SOL    HW245828   0.652  13.808  12.159
14666SOL     OW45829  12.254   8.104   7.517
14666SOL    HW145830  12.271   8.187   7.472
14666SOL    HW245831  12.339   8.078   7.552
14667SOL     OW45832   5.520  12.488  14.138
14667SOL    HW145833   5.431  12.522  14.131
14667SOL    HW245834   5.531  12.432  14.061
14668SOL     OW45835   0.176   7.008   4.168
14668SOL    HW145836   0.103   6.946   4.167
14668SOL    HW245837   0.182   7.039   4.078
14669SOL     OW45838  10.461  11.193   2.247
14669SOL    HW145839  10.411  11.185   2.328
14669SOL    HW245840  10.400  11.231   2.184
14670SOL     OW45841   5.146   4.997   3.562
14670SOL    HW145842   5.108   4.916   3.526
14670SOL    HW245843   5.239   4.991   3.540
14671SOL     OW45844   5.752  10.029   9.964
14671SOL    HW145845   5.785   9.940   9.956
14671SOL    HW245846   5.761  10.065   9.875
14672SOL     OW45847   8.227  10.287   6.931
14672SOL    HW145848   8.174  10.331   6.997
14672SOL    HW245849   8.316  10.317   6.947
14673SOL     OW45850   3.410  13.218  14.001
14673SOL    HW145851   3.464  13.211  14.080
14673SOL    HW245852   3.452  13.159  13.938
14674SOL     OW45853   1.197   2.123   4.547
14674SOL    HW145854   1.252   2.130   4.625
14674SOL    HW245855   1.112   2.093   4.580
14675SOL     OW45856   7.349   7.631   8.620
14675SOL    HW145857   7.349   7.727   8.623
14675SOL    HW245858   7.274   7.608   8.564
14676SOL     OW45859   5.313  10.921   5.300
14676SOL    HW145860   5.396  10.922   5.347
14676SOL    HW245861   5.334  10.952   5.213
14677SOL     OW45862   8.574   4.201   6.785
14677SOL    HW145863   8.601   4.251   6.862
14677SOL    HW245864   8.633   4.125   6.784
14678SOL     OW45865  13.506  10.692   7.565
14678SOL    HW145866  13.570  10.753   7.528
14678SOL    HW245867  13.437  10.688   7.499
14679SOL     OW45868  10.349  12.571   4.409
14679SOL    HW145869  10.320  12.621   4.333
14679SOL    HW245870  10.399  12.498   4.373
14680SOL     OW45871   4.778   3.101  10.478
14680SOL    HW145872   4.743   3.020  10.441
14680SOL    HW245873   4.802   3.154  10.401
14681SOL     OW45874   1.219   8.333   3.589
14681SOL    HW145875   1.170   8.323   3.508
14681SOL    HW245876   1.309   8.310   3.566
14682SOL     OW45877   7.793   6.141  11.171
14682SOL    HW145878   7.782   6.169  11.080
14682SOL    HW245879   7.887   6.138  11.184
14683SOL     OW45880   1.820   3.542   6.870
14683SOL    HW145881   1.914   3.557   6.867
14683SOL    HW245882   1.806   3.460   6.823
14684SOL     OW45883   0.528  14.334   7.853
14684SOL    HW145884   0.436  14.359   7.844
14684SOL    HW245885   0.564  14.398   7.914
14685SOL     OW45886  11.402  12.830  11.851
14685SOL    HW145887  11.323  12.852  11.802
14685SOL    HW245888  11.466  12.897  11.825
14686SOL     OW45889  11.661   7.469  11.861
14686SOL    HW145890  11.581   7.505  11.900
14686SOL    HW245891  11.695   7.540  11.807
14687SOL     OW45892  12.411  11.392   2.740
14687SOL    HW145893  12.384  11.374   2.650
14687SOL    HW245894  12.360  11.469   2.765
14688SOL     OW45895   9.159   2.738   8.316
14688SOL    HW145896   9.237   2.782   8.350
14688SOL    HW245897   9.109   2.807   8.273
14689SOL     OW45898   8.836  11.445   7.836
14689SOL    HW145899   8.840  11.353   7.809
14689SOL    HW245900   8.918  11.482   7.803
14690SOL     OW45901   7.884   7.301   0.482
14690SOL    HW145902   7.890   7.210   0.509
14690SOL    HW245903   7.913   7.301   0.391
14691SOL     OW45904   3.779  10.700  10.678
14691SOL    HW145905   3.758  10.607  10.679
14691SOL    HW245906   3.874  10.704  10.678
14692SOL     OW45907  14.085  12.824  10.486
14692SOL    HW145908  14.089  12.874  10.567
14692SOL    HW245909  14.176  12.808  10.463
14693SOL     OW45910  11.540   0.132  14.552
14693SOL    HW145911  11.488   0.212  14.561
14693SOL    HW245912  11.559   0.126  14.459
14694SOL     OW45913   1.571   1.305   9.769
14694SOL    HW145914   1.562   1.400   9.759
14694SOL    HW245915   1.658   1.294   9.808
14695SOL     OW45916  13.363   5.424   1.781
14695SOL    HW145917  13.341   5.452   1.870
14695SOL    HW245918  13.323   5.490   1.724
14696SOL     OW45919  14.436   0.421   0.103
14696SOL    HW145920  14.516   0.467   0.131
14696SOL    HW245921  14.460   0.380   0.020
14697SOL     OW45922   3.832   2.948   8.302
14697SOL    HW145923   3.882   3.014   8.350
14697SOL    HW245924   3.897   2.908   8.243
14698SOL     OW45925   6.144   7.293  11.596
14698SOL    HW145926   6.192   7.365  11.638
14698SOL    HW245927   6.142   7.317  11.503
14699SOL     OW45928   7.493   1.505  13.969
14699SOL    HW145929   7.431   1.543  14.030
14699SOL    HW245930   7.539   1.580  13.931
14700SOL     OW45931   3.486   0.488  13.179
14700SOL    HW145932   3.397   0.453  13.191
14700SOL    HW245933   3.527   0.428  13.118
14701SOL     OW45934   1.905   5.428   8.273
14701SOL    HW145935   1.944   5.351   8.230
14701SOL    HW245936   1.892   5.400   8.364
14702SOL     OW45937   1.113   9.155   8.155
14702SOL    HW145938   1.093   9.098   8.081
14702SOL    HW245939   1.121   9.094   8.229
14703SOL     OW45940   0.708   9.573   6.735
14703SOL    HW145941   0.755   9.492   6.712
14703SOL    HW245942   0.761   9.643   6.696
14704SOL     OW45943   9.049   3.176   3.253
14704SOL    HW145944   9.018   3.264   3.232
14704SOL    HW245945   9.064   3.135   3.168
14705SOL     OW45946  13.892   9.325   2.905
14705SOL    HW145947  13.811   9.342   2.857
14705SOL    HW245948  13.908   9.405   2.955
14706SOL     OW45949   9.123   9.164  14.510
14706SOL    HW145950   9.076   9.231  14.461
14706SOL    HW245951   9.206   9.206  14.535
14707SOL     OW45952  14.063   2.566   9.271
14707SOL    HW145953  14.155   2.567   9.297
14707SOL    HW245954  14.058   2.625   9.196
14708SOL     OW45955   0.829   8.716  10.745
14708SOL    HW145956   0.880   8.653  10.795
14708SOL    HW245957   0.781   8.664  10.681
14709SOL     OW45958  12.574  11.609   1.473
14709SOL    HW145959  12.617  11.533   1.513
14709SOL    HW245960  12.623  11.624   1.392
14710SOL     OW45961   5.332  13.955   2.793
14710SOL    HW145962   5.238  13.968   2.783
14710SOL    HW245963   5.369  13.980   2.708
14711SOL     OW45964   7.490  14.270   6.064
14711SOL    HW145965   7.446  14.355   6.067
14711SOL    HW245966   7.458  14.224   6.142
14712SOL     OW45967   7.486  13.641  12.671
14712SOL    HW145968   7.536  13.689  12.736
14712SOL    HW245969   7.551  13.590  12.623
14713SOL     OW45970   4.950   8.048   6.282
14713SOL    HW145971   5.034   8.044   6.329
14713SOL    HW245972   4.912   8.131   6.309
14714SOL     OW45973   4.990   9.740   1.717
14714SOL    HW145974   4.901   9.706   1.730
14714SOL    HW245975   5.004   9.735   1.622
14715SOL     OW45976   7.564   6.848   0.015
14715SOL    HW145977   7.527   6.937   0.013
14715SOL    HW245978   7.568   6.825   0.108
14716SOL     OW45979  12.349  10.225   6.887
14716SOL    HW145980  12.345  10.158   6.956
14716SOL    HW245981  12.258  10.251   6.874
14717SOL     OW45982  10.160   7.643   4.663
14717SOL    HW145983  10.137   7.725   4.706
14717SOL    HW245984  10.242   7.661   4.617
14718SOL     OW45985   3.782   0.568   0.786
14718SOL    HW145986   3.841   0.642   0.770
14718SOL    HW245987   3.776   0.524   0.701
14719SOL     OW45988   7.856   6.629   7.768
14719SOL    HW145989   7.855   6.702   7.830
14719SOL    HW245990   7.834   6.669   7.684
14720SOL     OW45991   4.648   9.438  10.513
14720SOL    HW145992   4.679   9.496  10.582
14720SOL    HW245993   4.728   9.400  10.476
14721SOL     OW45994   1.476   7.423   7.866
14721SOL    HW145995   1.478   7.502   7.921
14721SOL    HW245996   1.396   7.378   7.892
14722SOL     OW45997  10.587   7.035   1.697
14722SOL    HW145998  10.549   7.024   1.610
14722SOL    HW245999  10.537   7.106   1.737
14723SOL     OW46000   3.213   1.787   3.049
14723SOL    HW146001   3.226   1.880   3.034
14723SOL    HW246002   3.227   1.747   2.963
14724SOL     OW46003   8.262  12.249   2.033
14724SOL    HW146004   8.350  12.265   2.066
14724SOL    HW246005   8.204  12.267   2.107
14725SOL     OW46006  11.489   7.524  10.643
14725SOL    HW146007  11.462   7.434  10.624
14725SOL    HW246008  11.530   7.554  10.562
14726SOL     OW46009   4.954   3.317   9.869
14726SOL    HW146010   4.954   3.397   9.921
14726SOL    HW246011   4.927   3.346   9.781
14727SOL     OW46012   1.247   1.028   1.389
14727SOL    HW146013   1.306   0.973   1.441
14727SOL    HW246014   1.256   1.115   1.426
14728SOL     OW46015   8.723   3.753  14.807
14728SOL    HW146016   8.807   3.789  14.835
14728SOL    HW246017   8.745   3.688  14.741
14729SOL     OW46018   5.106   8.900   5.007
14729SOL    HW146019   5.026   8.849   5.010
14729SOL    HW246020   5.147   8.885   5.092
14730SOL     OW46021   0.243   7.288   6.126
14730SOL    HW146022   0.265   7.310   6.035
14730SOL    HW246023   0.328   7.273   6.168
14731SOL     OW46024   8.107  13.672   8.309
14731SOL    HW146025   8.093  13.722   8.390
14731SOL    HW246026   8.161  13.730   8.255
14732SOL     OW46027   8.975   0.254   0.843
14732SOL    HW146028   8.889   0.294   0.857
14732SOL    HW246029   8.977   0.233   0.750
14733SOL     OW46030  10.319   8.509   2.714
14733SOL    HW146031  10.378   8.490   2.641
14733SOL    HW246032  10.372   8.494   2.792
14734SOL     OW46033   4.108   3.283   5.488
14734SOL    HW146034   4.188   3.270   5.438
14734SOL    HW246035   4.119   3.227   5.566
14735SOL     OW46036   0.964   7.105   7.084
14735SOL    HW146037   1.052   7.130   7.111
14735SOL    HW246038   0.950   7.152   7.002
14736SOL     OW46039  10.606  12.857   1.960
14736SOL    HW146040  10.525  12.815   1.932
14736SOL    HW246041  10.670  12.833   1.893
14737SOL     OW46042   8.540   2.628  11.919
14737SOL    HW146043   8.627   2.588  11.924
14737SOL    HW246044   8.486   2.575  11.977
14738SOL     OW46045   7.251   2.449  14.194
14738SOL    HW146046   7.165   2.416  14.221
14738SOL    HW246047   7.277   2.509  14.264
14739SOL     OW46048   5.916   8.656   8.685
14739SOL    HW146049   5.886   8.571   8.717
14739SOL    HW246050   5.876   8.664   8.598
14740SOL     OW46051  11.000   7.732   1.815
14740SOL    HW146052  11.039   7.774   1.892
14740SOL    HW246053  11.075   7.699   1.766
14741SOL     OW46054   7.512  14.442   4.859
14741SOL    HW146055   7.479  14.353   4.876
14741SOL    HW246056   7.567  14.432   4.781
14742SOL     OW46057  13.384   1.938  10.072
14742SOL    HW146058  13.468   1.951  10.116
14742SOL    HW246059  13.386   1.999   9.998
14743SOL     OW46060   5.898  13.746  11.059
14743SOL    HW146061   5.914  13.713  11.148
14743SOL    HW246062   5.808  13.779  11.062
14744SOL     OW46063   9.376  13.934   0.884
14744SOL    HW146064   9.289  13.920   0.847
14744SOL    HW246065   9.389  13.860   0.943
14745SOL     OW46066  12.967   8.241   5.849
14745SOL    HW146067  12.978   8.223   5.756
14745SOL    HW246068  13.027   8.314   5.867
14746SOL     OW46069   6.425   6.810   4.503
14746SOL    HW146070   6.338   6.849   4.497
14746SOL    HW246071   6.410   6.716   4.491
14747SOL     OW46072  14.536   7.137   4.422
14747SOL    HW146073  14.598   7.191   4.471
14747SOL    HW246074  14.459   7.193   4.410
14748SOL     OW46075   2.437  13.155  14.416
14748SOL    HW146076   2.523  13.195  14.430
14748SOL    HW246077   2.375  13.226  14.433
14749SOL     OW46078   2.582  10.771   1.254
14749SOL    HW146079   2.571  10.709   1.182
14749SOL    HW246080   2.673  10.761   1.280
14750SOL     OW46081   9.273   3.920   8.929
14750SOL    HW146082   9.361   3.943   8.960
14750SOL    HW246083   9.274   3.824   8.923
14751SOL     OW46084   4.533   8.615   2.205
14751SOL    HW146085   4.572   8.691   2.249
14751SOL    HW246086   4.544   8.543   2.268
14752SOL     OW46087   3.642   4.227   2.850
14752SOL    HW146088   3.616   4.318   2.834
14752SOL    HW246089   3.586   4.175   2.792
14753SOL     OW46090  12.768   4.867   2.706
14753SOL    HW146091  12.717   4.856   2.786
14753SOL    HW246092  12.708   4.912   2.646
14754SOL     OW46093   1.427  11.241   4.563
14754SOL    HW146094   1.451  11.323   4.607
14754SOL    HW246095   1.333  11.251   4.545
14755SOL     OW46096  11.154   6.580   4.242
14755SOL    HW146097  11.149   6.675   4.243
14755SOL    HW246098  11.089   6.552   4.307
14756SOL     OW46099   8.792   5.628   7.030
14756SOL    HW146100   8.839   5.552   7.064
14756SOL    HW246101   8.720   5.641   7.091
14757SOL     OW46102   8.074  10.119   1.797
14757SOL    HW146103   8.083  10.171   1.877
14757SOL    HW246104   8.099  10.030   1.823
14758SOL     OW46105   9.273  11.395   6.941
14758SOL    HW146106   9.347  11.438   6.984
14758SOL    HW246107   9.288  11.301   6.955
14759SOL     OW46108   0.972  12.845   4.760
14759SOL    HW146109   0.915  12.771   4.738
14759SOL    HW246110   1.037  12.807   4.819
14760SOL     OW46111   6.016   8.687  11.368
14760SOL    HW146112   5.958   8.626  11.321
14760SOL    HW246113   5.990   8.678  11.460
14761SOL     OW46114  11.788   8.220   1.731
14761SOL    HW146115  11.836   8.239   1.812
14761SOL    HW246116  11.844   8.254   1.662
14762SOL     OW46117   0.386  13.774  14.472
14762SOL    HW146118   0.354  13.860  14.443
14762SOL    HW246119   0.481  13.783  14.475
14763SOL     OW46120   0.565  13.726   1.782
14763SOL    HW146121   0.548  13.709   1.690
14763SOL    HW246122   0.592  13.818   1.785
14764SOL     OW46123  13.592   6.416   0.231
14764SOL    HW146124  13.593   6.456   0.318
14764SOL    HW246125  13.665   6.457   0.185
14765SOL     OW46126   9.871   4.982  11.820
14765SOL    HW146127   9.874   5.077  11.830
14765SOL    HW246128   9.865   4.968  11.726
14766SOL     OW46129   6.983  14.642   9.895
14766SOL    HW146130   7.010  14.597   9.975
14766SOL    HW246131   6.948  14.726   9.926
14767SOL     OW46132  13.806  11.106  13.152
14767SOL    HW146133  13.713  11.128  13.139
14767SOL    HW246134  13.817  11.024  13.104
14768SOL     OW46135  13.206  10.140   9.327
14768SOL    HW146136  13.221  10.066   9.268
14768SOL    HW246137  13.216  10.104   9.415
14769SOL     OW46138  14.345  12.079   4.430
14769SOL    HW146139  14.281  12.067   4.360
14769SOL    HW246140  14.329  12.006   4.490
14770SOL     OW46141   2.501   2.201   2.457
14770SOL    HW146142   2.448   2.147   2.517
14770SOL    HW246143   2.502   2.287   2.498
14771SOL     OW46144   6.378   3.890  13.486
14771SOL    HW146145   6.337   3.957  13.541
14771SOL    HW246146   6.331   3.896  13.403
14772SOL     OW46147  14.362   4.759  11.027
14772SOL    HW146148  14.415   4.733  10.952
14772SOL    HW246149  14.334   4.848  11.006
14773SOL     OW46150   4.391   0.048   2.726
14773SOL    HW146151   4.316   0.102   2.753
14773SOL    HW246152   4.413  14.875   2.805
14774SOL     OW46153  12.617   6.482   9.908
14774SOL    HW146154  12.674   6.426   9.855
14774SOL    HW246155  12.551   6.513   9.846
14775SOL     OW46156  14.328   2.014  13.594
14775SOL    HW146157  14.323   2.100  13.637
14775SOL    HW246158  14.312   1.952  13.664
14776SOL     OW46159  13.013   2.012   6.518
14776SOL    HW146160  12.954   2.030   6.445
14776SOL    HW246161  12.969   2.051   6.594
14777SOL     OW46162  14.765   1.788   7.882
14777SOL    HW146163  14.757   1.790   7.787
14777SOL    HW246164  14.718   1.709   7.909
14778SOL     OW46165  14.423   2.353  13.050
14778SOL    HW146166  14.488   2.286  13.031
14778SOL    HW246167  14.400   2.339  13.142
14779SOL     OW46168   6.528  10.144   7.321
14779SOL    HW146169   6.449  10.196   7.306
14779SOL    HW246170   6.578  10.194   7.385
14780SOL     OW46171   6.458  11.893  10.228
14780SOL    HW146172   6.491  11.980  10.251
14780SOL    HW246173   6.529  11.833  10.251
14781SOL     OW46174   0.546  10.699   0.987
14781SOL    HW146175   0.557  10.648   0.907
14781SOL    HW246176   0.513  10.784   0.957
14782SOL     OW46177  13.565   0.956   0.542
14782SOL    HW146178  13.553   0.871   0.584
14782SOL    HW246179  13.586   0.935   0.450
14783SOL     OW46180   6.205   2.909  11.263
14783SOL    HW146181   6.163   2.933  11.181
14783SOL    HW246182   6.280   2.968  11.270
14784SOL     OW46183   3.143   1.867   9.177
14784SOL    HW146184   3.098   1.822   9.105
14784SOL    HW246185   3.229   1.888   9.141
14785SOL     OW46186   3.758  11.320  13.642
14785SOL    HW146187   3.784  11.371  13.565
14785SOL    HW246188   3.676  11.361  13.671
14786SOL     OW46189  10.189   0.114  13.449
14786SOL    HW146190  10.158   0.082  13.534
14786SOL    HW246191  10.126   0.182  13.425
14787SOL     OW46192   1.112   6.409  12.424
14787SOL    HW146193   1.059   6.488  12.422
14787SOL    HW246194   1.186   6.428  12.366
14788SOL     OW46195   8.362  11.905   8.520
14788SOL    HW146196   8.277  11.861   8.532
14788SOL    HW246197   8.426  11.833   8.518
14789SOL     OW46198   7.656  11.506  10.935
14789SOL    HW146199   7.650  11.468  11.023
14789SOL    HW246200   7.632  11.434  10.876
14790SOL     OW46201   0.644   3.878   3.788
14790SOL    HW146202   0.603   3.792   3.778
14790SOL    HW246203   0.718   3.862   3.846
14791SOL     OW46204  12.095   0.504   8.865
14791SOL    HW146205  12.030   0.480   8.931
14791SOL    HW246206  12.178   0.505   8.913
14792SOL     OW46207   6.397  14.851   8.569
14792SOL    HW146208   6.463  14.785   8.549
14792SOL    HW246209   6.348  14.862   8.488
14793SOL     OW46210  13.090   1.350   1.392
14793SOL    HW146211  13.152   1.287   1.355
14793SOL    HW246212  13.127   1.373   1.478
14794SOL     OW46213   2.881  11.965  10.182
14794SOL    HW146214   2.953  11.903  10.191
14794SOL    HW246215   2.814  11.917  10.133
14795SOL     OW46216   3.132   1.795  13.242
14795SOL    HW146217   3.175   1.828  13.321
14795SOL    HW246218   3.199   1.801  13.174
14796SOL     OW46219  10.294   2.317   0.825
14796SOL    HW146220  10.266   2.404   0.855
14796SOL    HW246221  10.270   2.258   0.896
14797SOL     OW46222   5.464   2.360   9.095
14797SOL    HW146223   5.540   2.392   9.048
14797SOL    HW246224   5.486   2.270   9.119
14798SOL     OW46225   1.647   9.891   2.002
14798SOL    HW146226   1.594   9.971   2.007
14798SOL    HW246227   1.707   9.907   1.928
14799SOL     OW46228  12.339  11.688   5.795
14799SOL    HW146229  12.335  11.666   5.702
14799SOL    HW246230  12.308  11.610   5.840
14800SOL     OW46231  10.520  11.260  10.894
14800SOL    HW146232  10.431  11.270  10.928
14800SOL    HW246233  10.575  11.257  10.972
14801SOL     OW46234  10.703   6.489   4.500
14801SOL    HW146235  10.696   6.414   4.440
14801SOL    HW246236  10.767   6.462   4.565
14802SOL     OW46237   9.429   8.961  12.903
14802SOL    HW146238   9.401   8.869  12.898
14802SOL    HW246239   9.524   8.956  12.911
14803SOL     OW46240   2.285  12.212   2.084
14803SOL    HW146241   2.282  12.138   2.023
14803SOL    HW246242   2.309  12.172   2.168
14804SOL     OW46243  11.828  11.763   0.059
14804SOL    HW146244  11.914  11.792   0.089
14804SOL    HW246245  11.844  11.722  14.850
14805SOL     OW46246   3.099   3.843   9.537
14805SOL    HW146247   3.169   3.899   9.501
14805SOL    HW246248   3.075   3.785   9.465
14806SOL     OW46249  10.936   7.495   2.428
14806SOL    HW146250  10.877   7.482   2.501
14806SOL    HW246251  11.022   7.510   2.468
14807SOL     OW46252   8.406   9.231   2.163
14807SOL    HW146253   8.420   9.165   2.095
14807SOL    HW246254   8.312   9.229   2.181
14808SOL     OW46255   4.687   8.501   5.237
14808SOL    HW146256   4.732   8.473   5.158
14808SOL    HW246257   4.728   8.584   5.260
14809SOL     OW46258  14.308   9.231   0.976
14809SOL    HW146259  14.380   9.256   1.034
14809SOL    HW246260  14.350   9.210   0.893
14810SOL     OW46261   5.353   4.693   0.707
14810SOL    HW146262   5.431   4.720   0.658
14810SOL    HW246263   5.314   4.624   0.653
14811SOL     OW46264   8.135   3.590  11.933
14811SOL    HW146265   8.057   3.641  11.956
14811SOL    HW246266   8.101   3.518  11.881
14812SOL     OW46267   1.673   8.688  10.421
14812SOL    HW146268   1.746   8.673  10.481
14812SOL    HW246269   1.708   8.667  10.335
14813SOL     OW46270   0.436  10.593   2.430
14813SOL    HW146271   0.340  10.589   2.425
14813SOL    HW246272   0.458  10.541   2.507
14814SOL     OW46273   4.880   5.858   3.456
14814SOL    HW146274   4.953   5.904   3.498
14814SOL    HW246275   4.883   5.770   3.493
14815SOL     OW46276  14.037   1.807   2.241
14815SOL    HW146277  13.960   1.789   2.296
14815SOL    HW246278  14.085   1.875   2.288
14816SOL     OW46279   2.336   5.739   5.016
14816SOL    HW146280   2.246   5.709   5.016
14816SOL    HW246281   2.336   5.819   4.963
14817SOL     OW46282   3.114   1.732  14.105
14817SOL    HW146283   3.152   1.664  14.049
14817SOL    HW246284   3.189   1.774  14.146
14818SOL     OW46285   0.628   8.110  10.041
14818SOL    HW146286   0.582   8.183   9.998
14818SOL    HW246287   0.703   8.152  10.083
14819SOL     OW46288   3.396  13.760   9.366
14819SOL    HW146289   3.330  13.730   9.430
14819SOL    HW246290   3.465  13.799   9.420
14820SOL     OW46291  14.817  14.832  14.360
14820SOL    HW146292   0.036  14.840  14.368
14820SOL    HW246293  14.792  14.774  14.432
14821SOL     OW46294   7.994  10.587  10.025
14821SOL    HW146295   8.082  10.624  10.036
14821SOL    HW246296   7.948  10.608  10.106
14822SOL     OW46297   8.612   7.109  14.425
14822SOL    HW146298   8.708   7.105  14.422
14822SOL    HW246299   8.588   7.049  14.495
14823SOL     OW46300  13.556   8.390   6.207
14823SOL    HW146301  13.550   8.351   6.294
14823SOL    HW246302  13.486   8.349   6.157
14824SOL     OW46303  12.266   0.693   6.967
14824SOL    HW146304  12.254   0.619   7.027
14824SOL    HW246305  12.337   0.665   6.909
14825SOL     OW46306   3.710   4.121   2.456
14825SOL    HW146307   3.775   4.063   2.419
14825SOL    HW246308   3.752   4.207   2.459
14826SOL     OW46309  14.732   8.225   5.140
14826SOL    HW146310  14.780   8.244   5.220
14826SOL    HW246311  14.711   8.131   5.147
14827SOL     OW46312   3.341   1.264   8.990
14827SOL    HW146313   3.344   1.253   8.895
14827SOL    HW246314   3.278   1.199   9.019
14828SOL     OW46315  10.214  14.774  12.502
14828SOL    HW146316  10.300  14.780  12.542
14828SOL    HW246317  10.159  14.732  12.568
14829SOL     OW46318  10.304   1.848   8.636
14829SOL    HW146319  10.387   1.870   8.593
14829SOL    HW246320  10.261   1.932   8.651
14830SOL     OW46321   7.170   9.853   7.709
14830SOL    HW146322   7.106   9.918   7.738
14830SOL    HW246323   7.177   9.867   7.615
14831SOL     OW46324  11.468  14.803   3.028
14831SOL    HW146325  11.533  14.817   2.959
14831SOL    HW246326  11.436  14.714   3.013
14832SOL     OW46327   3.318   7.206   0.044
14832SOL    HW146328   3.388   7.235  14.862
14832SOL    HW246329   3.330   7.257   0.124
14833SOL     OW46330   7.572   7.257   1.020
14833SOL    HW146331   7.498   7.226   1.072
14833SOL    HW246332   7.621   7.177   0.999
14834SOL     OW46333  11.146  13.625  13.281
14834SOL    HW146334  11.081  13.645  13.348
14834SOL    HW246335  11.230  13.649  13.321
14835SOL     OW46336  11.515  11.766   9.531
14835SOL    HW146337  11.611  11.770   9.528
14835SOL    HW246338  11.493  11.786   9.622
14836SOL     OW46339   7.823  14.313   3.047
14836SOL    HW146340   7.848  14.336   3.136
14836SOL    HW246341   7.759  14.243   3.057
14837SOL     OW46342  14.454  10.083  11.090
14837SOL    HW146343  14.394  10.149  11.126
14837SOL    HW246344  14.415   9.999  11.114
14838SOL     OW46345   8.669   3.348   1.760
14838SOL    HW146346   8.677   3.414   1.829
14838SOL    HW246347   8.577   3.353   1.733
14839SOL     OW46348   7.151   6.795   7.050
14839SOL    HW146349   7.121   6.817   7.138
14839SOL    HW246350   7.134   6.873   6.999
14840SOL     OW46351  14.144   0.875  14.346
14840SOL    HW146352  14.182   0.814  14.409
14840SOL    HW246353  14.191   0.957  14.360
14841SOL     OW46354  12.547  10.171   4.861
14841SOL    HW146355  12.631  10.128   4.845
14841SOL    HW246356  12.487  10.100   4.882
14842SOL     OW46357   2.587   6.642   1.086
14842SOL    HW146358   2.647   6.717   1.089
14842SOL    HW246359   2.531   6.653   1.163
14843SOL     OW46360  13.774   6.257  10.233
14843SOL    HW146361  13.680   6.243  10.240
14843SOL    HW246362  13.785   6.352  10.245
14844SOL     OW46363  11.316   6.254   0.392
14844SOL    HW146364  11.340   6.345   0.373
14844SOL    HW246365  11.263   6.260   0.471
14845SOL     OW46366  12.226   8.162  12.342
14845SOL    HW146367  12.158   8.219  12.380
14845SOL    HW246368  12.257   8.210  12.266
14846SOL     OW46369  14.335  13.299   5.186
14846SOL    HW146370  14.405  13.307   5.250
14846SOL    HW246371  14.318  13.388   5.156
14847SOL     OW46372   3.714   9.451   1.243
14847SOL    HW146373   3.762   9.492   1.171
14847SOL    HW246374   3.643   9.513   1.262
14848SOL     OW46375   7.168   1.489  14.822
14848SOL    HW146376   7.237   1.436  14.863
14848SOL    HW246377   7.146   1.442  14.742
14849SOL     OW46378   2.533   2.479  11.576
14849SOL    HW146379   2.616   2.432  11.564
14849SOL    HW246380   2.468   2.409  11.586
14850SOL     OW46381   1.712   4.568   7.227
14850SOL    HW146382   1.708   4.584   7.132
14850SOL    HW246383   1.672   4.645   7.266
14851SOL     OW46384   8.742  13.236  13.150
14851SOL    HW146385   8.764  13.323  13.184
14851SOL    HW246386   8.733  13.249  13.056
14852SOL     OW46387   3.964   8.206   2.964
14852SOL    HW146388   4.031   8.185   3.028
14852SOL    HW246389   3.892   8.146   2.982
14853SOL     OW46390   3.533   9.917   4.191
14853SOL    HW146391   3.480   9.839   4.208
14853SOL    HW246392   3.535   9.964   4.274
14854SOL     OW46393   3.118   8.950   5.278
14854SOL    HW146394   3.176   8.881   5.310
14854SOL    HW246395   3.139   9.026   5.331
14855SOL     OW46396  13.713   4.800  14.495
14855SOL    HW146397  13.802   4.836  14.502
14855SOL    HW246398  13.724   4.720  14.445
14856SOL     OW46399   4.423   8.918   1.607
14856SOL    HW146400   4.411   8.973   1.529
14856SOL    HW246401   4.374   8.962   1.676
14857SOL     OW46402   1.376   3.094   0.743
14857SOL    HW146403   1.347   3.143   0.666
14857SOL    HW246404   1.468   3.118   0.754
14858SOL     OW46405   9.684   2.399  14.697
14858SOL    HW146406   9.630   2.401  14.776
14858SOL    HW246407   9.686   2.490  14.667
14859SOL     OW46408   0.220   8.682   3.376
14859SOL    HW146409   0.236   8.681   3.282
14859SOL    HW246410   0.297   8.640   3.414
14860SOL     OW46411   4.113   2.374  14.678
14860SOL    HW146412   4.054   2.430  14.729
14860SOL    HW246413   4.189   2.360  14.735
14861SOL     OW46414  11.356  14.077   4.341
14861SOL    HW146415  11.291  14.145   4.323
14861SOL    HW246416  11.378  14.088   4.433
14862SOL     OW46417   9.388  13.993  10.662
14862SOL    HW146418   9.363  13.937  10.588
14862SOL    HW246419   9.321  14.062  10.663
14863SOL     OW46420  10.962   3.003   5.463
14863SOL    HW146421  10.980   2.981   5.372
14863SOL    HW246422  10.867   3.019   5.466
14864SOL     OW46423   0.261   6.494   5.987
14864SOL    HW146424   0.297   6.546   6.059
14864SOL    HW246425   0.338   6.457   5.943
14865SOL     OW46426   8.970   5.933   9.459
14865SOL    HW146427   9.013   6.014   9.432
14865SOL    HW246428   9.027   5.896   9.526
14866SOL     OW46429   3.123   9.601   3.027
14866SOL    HW146430   3.121   9.511   2.992
14866SOL    HW246431   3.060   9.599   3.099
14867SOL     OW46432   7.813   0.197   5.396
14867SOL    HW146433   7.738   0.150   5.433
14867SOL    HW246434   7.854   0.239   5.471
14868SOL     OW46435   2.573  11.738  10.459
14868SOL    HW146436   2.635  11.666  10.472
14868SOL    HW246437   2.616  11.814  10.497
14869SOL     OW46438  14.696  13.765   0.130
14869SOL    HW146439  14.659  13.823   0.064
14869SOL    HW246440  14.621  13.739   0.184
14870SOL     OW46441  10.392   0.832  11.100
14870SOL    HW146442  10.307   0.870  11.079
14870SOL    HW246443  10.426   0.800  11.017
14871SOL     OW46444  14.088  12.960   7.653
14871SOL    HW146445  14.150  12.913   7.598
14871SOL    HW246446  14.136  12.980   7.733
14872SOL     OW46447  12.503   3.267  12.513
14872SOL    HW146448  12.499   3.178  12.548
14872SOL    HW246449  12.588   3.301  12.544
14873SOL     OW46450  12.652  10.634   4.285
14873SOL    HW146451  12.670  10.550   4.327
14873SOL    HW246452  12.735  10.659   4.245
14874SOL     OW46453   4.265   0.268  10.055
14874SOL    HW146454   4.277   0.276  10.150
14874SOL    HW246455   4.181   0.224  10.045
14875SOL     OW46456  14.052   0.664   9.341
14875SOL    HW146457  14.105   0.676   9.263
14875SOL    HW246458  13.992   0.593   9.319
14876SOL     OW46459   9.245   2.289   9.230
14876SOL    HW146460   9.322   2.243   9.198
14876SOL    HW246461   9.171   2.236   9.198
14877SOL     OW46462   6.385   7.646   0.543
14877SOL    HW146463   6.370   7.726   0.494
14877SOL    HW246464   6.418   7.584   0.478
14878SOL     OW46465   5.049   8.607   6.282
14878SOL    HW146466   5.064   8.645   6.196
14878SOL    HW246467   5.090   8.669   6.343
14879SOL     OW46468  11.872   7.114   2.593
14879SOL    HW146469  11.780   7.137   2.608
14879SOL    HW246470  11.912   7.118   2.679
14880SOL     OW46471   5.468  14.561  12.840
14880SOL    HW146472   5.485  14.498  12.770
14880SOL    HW246473   5.374  14.555  12.856
14881SOL     OW46474   3.629   7.426   4.053
14881SOL    HW146475   3.573   7.351   4.034
14881SOL    HW246476   3.630   7.476   3.971
14882SOL     OW46477   2.648   3.355   9.013
14882SOL    HW146478   2.640   3.433   9.067
14882SOL    HW246479   2.698   3.383   8.936
14883SOL     OW46480   8.986   9.863   9.620
14883SOL    HW146481   8.952   9.830   9.537
14883SOL    HW246482   8.909   9.899   9.665
14884SOL     OW46483  12.547  11.497   7.220
14884SOL    HW146484  12.460  11.531   7.239
14884SOL    HW246485  12.535  11.437   7.146
14885SOL     OW46486   8.988   8.743   1.972
14885SOL    HW146487   8.927   8.741   1.898
14885SOL    HW246488   9.051   8.811   1.948
14886SOL     OW46489   0.669   3.045   2.578
14886SOL    HW146490   0.695   3.019   2.666
14886SOL    HW246491   0.742   3.097   2.546
14887SOL     OW46492  13.966   4.342   8.799
14887SOL    HW146493  13.930   4.314   8.715
14887SOL    HW246494  13.961   4.437   8.797
14888SOL     OW46495   4.447   1.870   8.302
14888SOL    HW146496   4.524   1.917   8.333
14888SOL    HW246497   4.471   1.777   8.311
14889SOL     OW46498   8.700   3.127   9.488
14889SOL    HW146499   8.697   3.151   9.396
14889SOL    HW246500   8.609   3.131   9.517
14890SOL     OW46501  10.173   9.271   9.205
14890SOL    HW146502  10.222   9.192   9.181
14890SOL    HW246503  10.144   9.254   9.295
14891SOL     OW46504   6.567   4.777   2.669
14891SOL    HW146505   6.611   4.739   2.745
14891SOL    HW246506   6.569   4.871   2.684
14892SOL     OW46507   9.120   8.960   9.200
14892SOL    HW146508   9.083   8.988   9.284
14892SOL    HW246509   9.153   9.040   9.160
14893SOL     OW46510   9.052   3.489   7.711
14893SOL    HW146511   9.006   3.521   7.788
14893SOL    HW246512   9.144   3.506   7.729
14894SOL     OW46513   2.115   2.385   2.051
14894SOL    HW146514   2.158   2.376   2.137
14894SOL    HW246515   2.034   2.334   2.059
14895SOL     OW46516   0.479  12.541  13.651
14895SOL    HW146517   0.437  12.512  13.571
14895SOL    HW246518   0.553  12.595  13.622
14896SOL     OW46519   0.215   6.246   2.817
14896SOL    HW146520   0.214   6.245   2.721
14896SOL    HW246521   0.164   6.169   2.842
14897SOL     OW46522  11.111   5.164  11.788
14897SOL    HW146523  11.167   5.215  11.729
14897SOL    HW246524  11.173   5.121  11.848
14898SOL     OW46525  10.315   6.598   1.146
14898SOL    HW146526  10.304   6.572   1.055
14898SOL    HW246527  10.230   6.632   1.172
14899SOL     OW46528  11.618   1.942  13.060
14899SOL    HW146529  11.632   2.001  13.134
14899SOL    HW246530  11.580   1.997  12.992
14900SOL     OW46531   1.264   4.597  12.206
14900SOL    HW146532   1.308   4.641  12.279
14900SOL    HW246533   1.322   4.524  12.183
14901SOL     OW46534  12.136  12.010  13.701
14901SOL    HW146535  12.066  11.977  13.644
14901SOL    HW246536  12.162  12.093  13.661
14902SOL     OW46537   3.113  13.771  10.600
14902SOL    HW146538   3.192  13.759  10.654
14902SOL    HW246539   3.060  13.694  10.618
14903SOL     OW46540   5.751   6.900   6.501
14903SOL    HW146541   5.816   6.861   6.559
14903SOL    HW246542   5.726   6.982   6.544
14904SOL     OW46543   9.764  10.807  12.257
14904SOL    HW146544   9.713  10.795  12.337
14904SOL    HW246545   9.740  10.734  12.201
14905SOL     OW46546   5.690  11.007   1.696
14905SOL    HW146547   5.681  11.028   1.789
14905SOL    HW246548   5.600  11.002   1.663
14906SOL     OW46549   9.073  14.679  12.676
14906SOL    HW146550   9.164  14.650  12.672
14906SOL    HW246551   9.069  14.733  12.755
14907SOL     OW46552  11.139  10.021   2.707
14907SOL    HW146553  11.097  10.003   2.623
14907SOL    HW246554  11.220   9.968   2.705
14908SOL     OW46555   5.166  11.423  10.854
14908SOL    HW146556   5.241  11.435  10.796
14908SOL    HW246557   5.142  11.331  10.844
14909SOL     OW46558  11.883   3.524  12.771
14909SOL    HW146559  11.800   3.477  12.780
14909SOL    HW246560  11.858   3.611  12.740
14910SOL     OW46561   0.835   2.614   4.214
14910SOL    HW146562   0.771   2.667   4.261
14910SOL    HW246563   0.876   2.675   4.152
14911SOL     OW46564   8.810  14.441   7.523
14911SOL    HW146565   8.849  14.439   7.610
14911SOL    HW246566   8.739  14.377   7.527
14912SOL     OW46567   8.370  10.215  13.001
14912SOL    HW146568   8.341  10.267  12.927
14912SOL    HW246569   8.364  10.274  13.076
14913SOL     OW46570   0.619  10.084   7.850
14913SOL    HW146571   0.583  10.156   7.901
14913SOL    HW246572   0.705  10.115   7.823
14914SOL     OW46573   2.345   5.019  11.772
14914SOL    HW146574   2.394   5.064  11.704
14914SOL    HW246575   2.253   5.039  11.753
14915SOL     OW46576  11.287   8.292   8.782
14915SOL    HW146577  11.363   8.333   8.740
14915SOL    HW246578  11.260   8.355   8.849
14916SOL     OW46579   7.976   5.314   4.755
14916SOL    HW146580   8.036   5.253   4.711
14916SOL    HW246581   7.920   5.258   4.809
14917SOL     OW46582   2.863   4.216   4.066
14917SOL    HW146583   2.929   4.274   4.105
14917SOL    HW246584   2.804   4.276   4.020
14918SOL     OW46585   1.253   0.730   0.500
14918SOL    HW146586   1.306   0.669   0.550
14918SOL    HW246587   1.165   0.694   0.504
14919SOL     OW46588   8.022  12.451  10.208
14919SOL    HW146589   8.039  12.498  10.126
14919SOL    HW246590   7.976  12.371  10.181
14920SOL     OW46591   4.900   6.724   1.509
14920SOL    HW146592   4.912   6.657   1.442
14920SOL    HW246593   4.805   6.727   1.523
14921SOL     OW46594  13.111  11.665   4.502
14921SOL    HW146595  13.193  11.616   4.499
14921SOL    HW246596  13.130  11.741   4.558
14922SOL     OW46597   2.501   7.437   9.060
14922SOL    HW146598   2.481   7.432   8.967
14922SOL    HW246599   2.482   7.527   9.084
14923SOL     OW46600   1.357  10.731   9.207
14923SOL    HW146601   1.345  10.641   9.177
14923SOL    HW246602   1.386  10.722   9.298
14924SOL     OW46603   3.930  14.198   7.922
14924SOL    HW146604   3.914  14.256   7.848
14924SOL    HW246605   3.940  14.111   7.883
14925SOL     OW46606   5.314   8.369   2.054
14925SOL    HW146607   5.336   8.276   2.059
14925SOL    HW246608   5.231   8.372   2.007
14926SOL     OW46609  12.534  12.898   6.286
14926SOL    HW146610  12.591  12.848   6.228
14926SOL    HW246611  12.557  12.990   6.270
14927SOL     OW46612   1.898   3.111   4.210
14927SOL    HW146613   1.858   3.177   4.267
14927SOL    HW246614   1.988   3.102   4.242
14928SOL     OW46615   2.478   2.167   2.872
14928SOL    HW146616   2.558   2.218   2.886
14928SOL    HW246617   2.494   2.120   2.790
14929SOL     OW46618   5.447  10.516   6.795
14929SOL    HW146619   5.468  10.494   6.704
14929SOL    HW246620   5.364  10.473   6.811
14930SOL     OW46621   9.487   3.925   5.734
14930SOL    HW146622   9.537   3.848   5.708
14930SOL    HW246623   9.400   3.891   5.755
14931SOL     OW46624  12.413  10.234   6.379
14931SOL    HW146625  12.329  10.272   6.405
14931SOL    HW246626  12.409  10.231   6.283
14932SOL     OW46627   6.440   2.455  13.219
14932SOL    HW146628   6.344   2.459  13.221
14932SOL    HW246629   6.468   2.517  13.285
14933SOL     OW46630   1.390   8.687   6.425
14933SOL    HW146631   1.335   8.664   6.500
14933SOL    HW246632   1.329   8.690   6.351
14934SOL     OW46633   4.683   2.251   9.843
14934SOL    HW146634   4.754   2.305   9.877
14934SOL    HW246635   4.604   2.288   9.883
14935SOL     OW46636   3.715   3.207  14.819
14935SOL    HW146637   3.642   3.229  14.762
14935SOL    HW246638   3.766   3.143  14.770
14936SOL     OW46639   6.448  10.510  11.543
14936SOL    HW146640   6.358  10.505  11.512
14936SOL    HW246641   6.442  10.498  11.638
14937SOL     OW46642  13.414   9.241   1.166
14937SOL    HW146643  13.404   9.267   1.258
14937SOL    HW246644  13.443   9.150   1.170
14938SOL     OW46645   9.842  14.624   1.935
14938SOL    HW146646   9.759  14.592   1.901
14938SOL    HW246647   9.838  14.606   2.029
14939SOL     OW46648   8.081  11.499   0.538
14939SOL    HW146649   8.025  11.448   0.480
14939SOL    HW246650   8.170  11.484   0.505
14940SOL     OW46651   3.046   4.360   7.496
14940SOL    HW146652   2.967   4.344   7.547
14940SOL    HW246653   3.084   4.273   7.483
14941SOL     OW46654   2.101  13.889  12.761
14941SOL    HW146655   2.072  13.910  12.850
14941SOL    HW246656   2.026  13.846  12.721
14942SOL     OW46657   3.711  11.540  14.668
14942SOL    HW146658   3.786  11.490  14.700
14942SOL    HW246659   3.750  11.615  14.624
14943SOL     OW46660  10.470  13.459   9.839
14943SOL    HW146661  10.477  13.552   9.859
14943SOL    HW246662  10.531  13.417   9.900
14944SOL     OW46663   9.592  10.980   7.915
14944SOL    HW146664   9.679  11.010   7.886
14944SOL    HW246665   9.544  10.964   7.834
14945SOL     OW46666   4.303   5.755  10.876
14945SOL    HW146667   4.302   5.659  10.878
14945SOL    HW246668   4.305   5.780  10.969
14946SOL     OW46669   1.744  10.468  11.436
14946SOL    HW146670   1.676  10.509  11.490
14946SOL    HW246671   1.763  10.532  11.368
14947SOL     OW46672  10.738  11.086   1.151
14947SOL    HW146673  10.813  11.136   1.183
14947SOL    HW246674  10.689  11.148   1.097
14948SOL     OW46675  10.640  13.367   3.037
14948SOL    HW146676  10.684  13.297   2.989
14948SOL    HW246677  10.683  13.447   3.008
14949SOL     OW46678  11.812   5.455   9.656
14949SOL    HW146679  11.788   5.486   9.744
14949SOL    HW246680  11.762   5.510   9.597
14950SOL     OW46681  13.593   3.883   2.464
14950SOL    HW146682  13.683   3.852   2.465
14950SOL    HW246683  13.585   3.938   2.542
14951SOL     OW46684   4.544   2.736   1.185
14951SOL    HW146685   4.493   2.658   1.163
14951SOL    HW246686   4.553   2.783   1.102
14952SOL     OW46687  11.498  11.126  10.324
14952SOL    HW146688  11.529  11.210  10.290
14952SOL    HW246689  11.532  11.061  10.263
14953SOL     OW46690   5.863  11.178  12.363
14953SOL    HW146691   5.922  11.139  12.428
14953SOL    HW246692   5.873  11.273  12.377
14954SOL     OW46693  13.976  10.131  13.750
14954SOL    HW146694  14.024  10.111  13.831
14954SOL    HW246695  14.032  10.194  13.705
14955SOL     OW46696   1.105   8.931   7.498
14955SOL    HW146697   1.142   9.007   7.543
14955SOL    HW246698   1.151   8.856   7.537
14956SOL     OW46699  11.621   2.080  13.302
14956SOL    HW146700  11.677   2.067  13.378
14956SOL    HW246701  11.533   2.062  13.333
14957SOL     OW46702   1.218   3.522   4.055
14957SOL    HW146703   1.139   3.486   4.097
14957SOL    HW246704   1.197   3.614   4.041
14958SOL     OW46705  14.342  12.821  13.274
14958SOL    HW146706  14.376  12.789  13.190
14958SOL    HW246707  14.272  12.882  13.249
14959SOL     OW46708   8.433   8.779  13.956
14959SOL    HW146709   8.398   8.750  13.871
14959SOL    HW246710   8.507   8.721  13.973
14960SOL     OW46711   8.918  13.807  12.698
14960SOL    HW146712   9.004  13.846  12.686
14960SOL    HW246713   8.869  13.833  12.620
14961SOL     OW46714  13.609   1.883   4.297
14961SOL    HW146715  13.569   1.819   4.355
14961SOL    HW246716  13.568   1.966   4.320
14962SOL     OW46717  11.288   1.891   3.362
14962SOL    HW146718  11.278   1.962   3.299
14962SOL    HW246719  11.199   1.859   3.378
14963SOL     OW46720  14.062   6.914   3.009
14963SOL    HW146721  14.033   6.992   2.961
14963SOL    HW246722  14.065   6.845   2.944
14964SOL     OW46723   8.956   5.601  10.601
14964SOL    HW146724   8.879   5.656  10.586
14964SOL    HW246725   8.953   5.579  10.694
14965SOL     OW46726   3.088  14.871   8.370
14965SOL    HW146727   3.145  14.795   8.370
14965SOL    HW246728   3.078   0.017   8.463
14966SOL     OW46729   3.754   2.474   7.265
14966SOL    HW146730   3.670   2.445   7.229
14966SOL    HW246731   3.808   2.394   7.267
14967SOL     OW46732   3.465   9.976   3.249
14967SOL    HW146733   3.383   9.932   3.229
14967SOL    HW246734   3.486  10.025   3.169
14968SOL     OW46735   8.367   7.023  12.155
14968SOL    HW146736   8.325   6.944  12.190
14968SOL    HW246737   8.298   7.068  12.108
14969SOL     OW46738  12.703   4.267  12.843
14969SOL    HW146739  12.685   4.329  12.912
14969SOL    HW246740  12.764   4.313  12.784
14970SOL     OW46741   5.998   8.501  13.090
14970SOL    HW146742   5.919   8.491  13.037
14970SOL    HW246743   6.039   8.415  13.090
14971SOL     OW46744   9.586   6.779   3.193
14971SOL    HW146745   9.679   6.800   3.200
14971SOL    HW246746   9.575   6.748   3.103
14972SOL     OW46747  10.268   8.485  14.439
14972SOL    HW146748  10.259   8.501  14.533
14972SOL    HW246749  10.182   8.454  14.411
14973SOL     OW46750   9.980   8.153  11.408
14973SOL    HW146751   9.912   8.097  11.369
14973SOL    HW246752   9.970   8.237  11.362
14974SOL     OW46753   0.808   0.705  11.780
14974SOL    HW146754   0.902   0.684  11.777
14974SOL    HW246755   0.788   0.738  11.692
14975SOL     OW46756   0.766  10.316  11.564
14975SOL    HW146757   0.717  10.352  11.638
14975SOL    HW246758   0.702  10.261  11.517
14976SOL     OW46759   9.038   5.240   2.244
14976SOL    HW146760   9.114   5.297   2.242
14976SOL    HW246761   9.026   5.220   2.337
14977SOL     OW46762   7.461  14.210   3.965
14977SOL    HW146763   7.517  14.133   3.974
14977SOL    HW246764   7.467  14.233   3.873
14978SOL     OW46765   5.971   1.356  13.433
14978SOL    HW146766   6.013   1.347  13.348
14978SOL    HW246767   5.882   1.322  13.419
14979SOL     OW46768  12.760   4.033   7.217
14979SOL    HW146769  12.784   4.062   7.129
14979SOL    HW246770  12.816   3.957   7.233
14980SOL     OW46771   1.997   7.189  11.715
14980SOL    HW146772   1.917   7.169  11.668
14980SOL    HW246773   2.065   7.140  11.669
14981SOL     OW46774   2.126   0.224   6.469
14981SOL    HW146775   2.209   0.266   6.493
14981SOL    HW246776   2.059   0.281   6.507
14982SOL     OW46777   6.032  12.242  14.199
14982SOL    HW146778   5.949  12.256  14.245
14982SOL    HW246779   6.041  12.147  14.193
14983SOL     OW46780   1.636  10.268  11.923
14983SOL    HW146781   1.667  10.186  11.884
14983SOL    HW246782   1.687  10.276  12.004
14984SOL     OW46783   0.476   6.228   5.034
14984SOL    HW146784   0.502   6.320   5.020
14984SOL    HW246785   0.442   6.200   4.949
14985SOL     OW46786   8.969   9.795   4.401
14985SOL    HW146787   8.951   9.740   4.325
14985SOL    HW246788   8.882   9.826   4.429
14986SOL     OW46789   7.549   5.666   8.005
14986SOL    HW146790   7.565   5.674   7.911
14986SOL    HW246791   7.458   5.694   8.016
14987SOL     OW46792   7.249   7.205   5.588
14987SOL    HW146793   7.196   7.133   5.621
14987SOL    HW246794   7.186   7.275   5.572
14988SOL     OW46795   8.840  12.565   5.901
14988SOL    HW146796   8.819  12.644   5.952
14988SOL    HW246797   8.789  12.574   5.821
14989SOL     OW46798   2.285  12.763   7.696
14989SOL    HW146799   2.243  12.740   7.613
14989SOL    HW246800   2.218  12.809   7.745
14990SOL     OW46801   4.616   5.853  10.600
14990SOL    HW146802   4.650   5.797  10.530
14990SOL    HW246803   4.627   5.942  10.567
14991SOL     OW46804  11.013   3.843   9.162
14991SOL    HW146805  11.066   3.880   9.092
14991SOL    HW246806  11.076   3.802   9.222
14992SOL     OW46807   2.936   3.701   8.917
14992SOL    HW146808   3.017   3.753   8.913
14992SOL    HW246809   2.867   3.763   8.895
14993SOL     OW46810  11.542  14.690   5.799
14993SOL    HW146811  11.586  14.764   5.758
14993SOL    HW246812  11.586  14.613   5.763
14994SOL     OW46813  11.876   3.642   7.878
14994SOL    HW146814  11.949   3.588   7.845
14994SOL    HW246815  11.827   3.666   7.800
14995SOL     OW46816   6.842   4.290  11.862
14995SOL    HW146817   6.768   4.253  11.814
14995SOL    HW246818   6.913   4.295  11.798
14996SOL     OW46819  10.705  12.014   1.025
14996SOL    HW146820  10.699  11.935   1.078
14996SOL    HW246821  10.690  11.985   0.936
14997SOL     OW46822   8.915   2.908  12.188
14997SOL    HW146823   8.841   2.889  12.130
14997SOL    HW246824   8.930   2.827  12.236
14998SOL     OW46825   0.644  10.822   1.939
14998SOL    HW146826   0.705  10.889   1.906
14998SOL    HW246827   0.650  10.830   2.034
14999SOL     OW46828  12.858   0.419  11.969
14999SOL    HW146829  12.910   0.338  11.968
14999SOL    HW246830  12.912   0.480  12.018
15000SOL     OW46831   1.308  10.048   9.492
15000SOL    HW146832   1.264  10.024   9.574
15000SOL    HW246833   1.396  10.010   9.499
15001SOL     OW46834   6.938   9.693  12.662
15001SOL    HW146835   6.867   9.630  12.648
15001SOL    HW246836   7.012   9.640  12.691
15002SOL     OW46837   4.175  14.736   7.097
15002SOL    HW146838   4.124  14.746   7.017
15002SOL    HW246839   4.218  14.651   7.087
15003SOL     OW46840  10.872   1.779  10.220
15003SOL    HW146841  10.820   1.770  10.300
15003SOL    HW246842  10.962   1.757  10.247
15004SOL     OW46843   2.676   6.989   2.250
15004SOL    HW146844   2.762   6.959   2.281
15004SOL    HW246845   2.633   6.909   2.218
15005SOL     OW46846   3.616  12.727   0.546
15005SOL    HW146847   3.686  12.778   0.507
15005SOL    HW246848   3.600  12.656   0.484
15006SOL     OW46849   6.292   7.742   2.848
15006SOL    HW146850   6.333   7.737   2.934
15006SOL    HW246851   6.203   7.772   2.866
15007SOL     OW46852   9.741  11.966   9.348
15007SOL    HW146853   9.757  12.014   9.267
15007SOL    HW246854   9.646  11.971   9.360
15008SOL     OW46855   4.408  12.737   5.400
15008SOL    HW146856   4.424  12.822   5.358
15008SOL    HW246857   4.427  12.753   5.492
15009SOL     OW46858  13.650  13.843   3.417
15009SOL    HW146859  13.652  13.811   3.507
15009SOL    HW246860  13.742  13.842   3.389
15010SOL     OW46861  10.819   6.165   6.013
15010SOL    HW146862  10.807   6.233   5.947
15010SOL    HW246863  10.855   6.091   5.965
15011SOL     OW46864   6.547   7.232  12.615
15011SOL    HW146865   6.512   7.147  12.589
15011SOL    HW246866   6.542   7.286  12.536
15012SOL     OW46867   9.020  10.107  12.795
15012SOL    HW146868   8.939  10.076  12.755
15012SOL    HW246869   9.078  10.124  12.721
15013SOL     OW46870  10.583   7.768   4.073
15013SOL    HW146871  10.673   7.735   4.073
15013SOL    HW246872  10.536   7.710   4.133
15014SOL     OW46873   7.556   5.210   0.589
15014SOL    HW146874   7.632   5.266   0.572
15014SOL    HW246875   7.506   5.258   0.656
15015SOL     OW46876   6.063   1.503  10.931
15015SOL    HW146877   6.114   1.489  10.851
15015SOL    HW246878   6.100   1.441  10.994
15016SOL     OW46879   9.574   5.540  12.867
15016SOL    HW146880   9.584   5.539  12.772
15016SOL    HW246881   9.656   5.579  12.899
15017SOL     OW46882  13.551   2.947   5.724
15017SOL    HW146883  13.544   2.858   5.690
15017SOL    HW246884  13.496   2.948   5.802
15018SOL     OW46885  12.801  14.770   3.788
15018SOL    HW146886  12.843  14.844   3.745
15018SOL    HW246887  12.793  14.704   3.719
15019SOL     OW46888   6.809   9.701  11.294
15019SOL    HW146889   6.902   9.724  11.296
15019SOL    HW246890   6.804   9.617  11.339
15020SOL     OW46891  11.203   1.487   6.636
15020SOL    HW146892  11.177   1.443   6.555
15020SOL    HW246893  11.130   1.471   6.696
15021SOL     OW46894  10.402   6.332   4.969
15021SOL    HW146895  10.392   6.318   5.064
15021SOL    HW246896  10.495   6.346   4.957
15022SOL     OW46897   0.705   1.990  10.249
15022SOL    HW146898   0.734   1.904  10.219
15022SOL    HW246899   0.701   1.982  10.344
15023SOL     OW46900   7.804  11.741  13.030
15023SOL    HW146901   7.822  11.822  13.078
15023SOL    HW246902   7.709  11.739  13.021
15024SOL     OW46903  12.275   0.019  12.263
15024SOL    HW146904  12.341   0.014  12.195
15024SOL    HW246905  12.308  14.838  12.332
15025SOL     OW46906   0.379   2.712   6.459
15025SOL    HW146907   0.456   2.655   6.468
15025SOL    HW246908   0.377   2.762   6.541
15026SOL     OW46909  10.463   7.488   6.507
15026SOL    HW146910  10.416   7.504   6.589
15026SOL    HW246911  10.555   7.505   6.528
15027SOL     OW46912   2.453   6.272  14.702
15027SOL    HW146913   2.469   6.360  14.737
15027SOL    HW246914   2.359   6.260  14.709
15028SOL     OW46915   6.561   2.093  14.229
15028SOL    HW146916   6.636   2.068  14.282
15028SOL    HW246917   6.589   2.078  14.139
15029SOL     OW46918   6.014   4.282   9.371
15029SOL    HW146919   6.010   4.323   9.457
15029SOL    HW246920   6.077   4.335   9.322
15030SOL     OW46921  14.496  13.516  10.365
15030SOL    HW146922  14.553  13.533  10.440
15030SOL    HW246923  14.410  13.500  10.403
15031SOL     OW46924   6.081  10.293   6.910
15031SOL    HW146925   6.112  10.234   6.979
15031SOL    HW246926   5.998  10.254   6.882
15032SOL     OW46927  12.346   6.037  11.596
15032SOL    HW146928  12.410   6.031  11.667
15032SOL    HW246929  12.264   6.063  11.639
15033SOL     OW46930   5.901   1.895  10.649
15033SOL    HW146931   5.846   1.839  10.594
15033SOL    HW246932   5.839   1.936  10.710
15034SOL     OW46933   2.901   7.781  13.576
15034SOL    HW146934   2.826   7.809  13.629
15034SOL    HW246935   2.892   7.831  13.495
15035SOL     OW46936   1.201  11.512   1.687
15035SOL    HW146937   1.275  11.545   1.635
15035SOL    HW246938   1.233  11.430   1.724
15036SOL     OW46939   4.918  10.515  11.644
15036SOL    HW146940   4.877  10.526  11.558
15036SOL    HW246941   4.848  10.478  11.699
15037SOL     OW46942   7.445  11.387  12.784
15037SOL    HW146943   7.536  11.372  12.759
15037SOL    HW246944   7.394  11.344  12.715
15038SOL     OW46945  14.362   4.735   6.645
15038SOL    HW146946  14.312   4.751   6.725
15038SOL    HW246947  14.337   4.647   6.618
15039SOL     OW46948   6.409   5.165   1.992
15039SOL    HW146949   6.474   5.101   1.964
15039SOL    HW246950   6.456   5.248   1.994
15040SOL     OW46951   4.740   7.762   5.654
15040SOL    HW146952   4.724   7.802   5.739
15040SOL    HW246953   4.770   7.834   5.599
15041SOL     OW46954   8.671   8.287  13.393
15041SOL    HW146955   8.612   8.217  13.364
15041SOL    HW246956   8.628   8.368  13.363
15042SOL     OW46957   8.246  12.047  13.503
15042SOL    HW146958   8.340  12.067  13.506
15042SOL    HW246959   8.204  12.126  13.537
15043SOL     OW46960   8.619  11.359   3.593
15043SOL    HW146961   8.637  11.422   3.662
15043SOL    HW246962   8.547  11.397   3.543
15044SOL     OW46963   0.253   5.648   5.161
15044SOL    HW146964   0.253   5.740   5.187
15044SOL    HW246965   0.333   5.637   5.110
15045SOL     OW46966   3.626   1.449   3.063
15045SOL    HW146967   3.674   1.448   3.146
15045SOL    HW246968   3.545   1.497   3.083
15046SOL     OW46969  12.003   6.447  11.861
15046SOL    HW146970  11.945   6.394  11.917
15046SOL    HW246971  11.989   6.537  11.890
15047SOL     OW46972   6.434   8.332  11.221
15047SOL    HW146973   6.412   8.384  11.144
15047SOL    HW246974   6.379   8.254  11.213
15048SOL     OW46975   8.973   4.886   8.796
15048SOL    HW146976   8.976   4.880   8.892
15048SOL    HW246977   9.042   4.949   8.774
15049SOL     OW46978   6.147   0.742   9.622
15049SOL    HW146979   6.163   0.834   9.601
15049SOL    HW246980   6.109   0.706   9.542
15050SOL     OW46981   5.427   7.943   0.582
15050SOL    HW146982   5.518   7.914   0.580
15050SOL    HW246983   5.406   7.964   0.491
15051SOL     OW46984  14.425   9.102   9.010
15051SOL    HW146985  14.362   9.094   9.081
15051SOL    HW246986  14.384   9.058   8.936
15052SOL     OW46987   5.341   8.863  11.606
15052SOL    HW146988   5.387   8.901  11.681
15052SOL    HW246989   5.292   8.790  11.642
15053SOL     OW46990   8.148   5.605   4.359
15053SOL    HW146991   8.055   5.623   4.373
15053SOL    HW246992   8.151   5.512   4.337
15054SOL     OW46993   9.790   4.765   8.076
15054SOL    HW146994   9.739   4.751   8.156
15054SOL    HW246995   9.881   4.759   8.104
15055SOL     OW46996   3.355   6.490   5.018
15055SOL    HW146997   3.398   6.420   4.969
15055SOL    HW246998   3.318   6.446   5.094
15056SOL     OW46999   1.485   9.370   2.386
15056SOL    HW147000   1.529   9.318   2.453
15056SOL    HW247001   1.398   9.389   2.422
15057SOL     OW47002   7.428  10.244  12.026
15057SOL    HW147003   7.513  10.202  12.020
15057SOL    HW247004   7.435  10.322  11.971
15058SOL     OW47005   2.715  11.972  13.603
15058SOL    HW147006   2.707  11.890  13.553
15058SOL    HW247007   2.745  11.944  13.689
15059SOL     OW47008   3.397   0.548  13.590
15059SOL    HW147009   3.418   0.583  13.676
15059SOL    HW247010   3.342   0.472  13.607
15060SOL     OW47011   6.401   0.523   2.110
15060SOL    HW147012   6.481   0.515   2.160
15060SOL    HW247013   6.348   0.448   2.138
15061SOL     OW47014   8.662   5.420  13.410
15061SOL    HW147015   8.579   5.379  13.435
15061SOL    HW247016   8.642   5.469  13.330
15062SOL     OW47017   7.964   1.022   2.112
15062SOL    HW147018   7.892   1.077   2.143
15062SOL    HW247019   7.992   0.972   2.189
15063SOL     OW47020   3.139   0.500   1.230
15063SOL    HW147021   3.100   0.567   1.174
15063SOL    HW247022   3.080   0.493   1.305
15064SOL     OW47023   8.710  11.031  12.896
15064SOL    HW147024   8.723  11.125  12.885
15064SOL    HW247025   8.632  11.011  12.845
15065SOL     OW47026   3.988   3.594  13.786
15065SOL    HW147027   3.912   3.556  13.742
15065SOL    HW247028   4.062   3.566  13.733
15066SOL     OW47029   4.473  11.039   4.225
15066SOL    HW147030   4.414  11.082   4.287
15066SOL    HW247031   4.445  10.948   4.224
15067SOL     OW47032  11.799   4.136   7.819
15067SOL    HW147033  11.742   4.073   7.864
15067SOL    HW247034  11.867   4.157   7.884
15068SOL     OW47035  14.534   2.605   7.881
15068SOL    HW147036  14.519   2.556   7.962
15068SOL    HW247037  14.583   2.683   7.910
15069SOL     OW47038   4.930   3.595  10.463
15069SOL    HW147039   4.874   3.601  10.540
15069SOL    HW247040   4.872   3.612  10.389
15070SOL     OW47041   4.254  11.367  13.201
15070SOL    HW147042   4.229  11.277  13.222
15070SOL    HW247043   4.322  11.388  13.265
15071SOL     OW47044   4.980  14.614   0.433
15071SOL    HW147045   5.038  14.608   0.509
15071SOL    HW247046   4.931  14.532   0.433
15072SOL     OW47047   2.980   5.475   5.205
15072SOL    HW147048   3.054   5.433   5.249
15072SOL    HW247049   2.917   5.404   5.191
15073SOL     OW47050   2.919   7.137   3.176
15073SOL    HW147051   2.854   7.186   3.226
15073SOL    HW247052   2.888   7.046   3.180
15074SOL     OW47053  13.521   8.754  11.486
15074SOL    HW147054  13.520   8.663  11.459
15074SOL    HW247055  13.498   8.753  11.579
15075SOL     OW47056   4.619   2.634  10.819
15075SOL    HW147057   4.665   2.718  10.832
15075SOL    HW247058   4.611   2.597  10.907
15076SOL     OW47059  13.473   9.482  13.078
15076SOL    HW147060  13.442   9.392  13.089
15076SOL    HW247061  13.435   9.530  13.152
15077SOL     OW47062  13.175   7.529  11.364
15077SOL    HW147063  13.141   7.542  11.275
15077SOL    HW247064  13.261   7.490  11.351
15078SOL     OW47065  13.837   6.623  13.683
15078SOL    HW147066  13.904   6.688  13.703
15078SOL    HW247067  13.850   6.554  13.748
15079SOL     OW47068  11.006  11.406  10.397
15079SOL    HW147069  11.073  11.351  10.355
15079SOL    HW247070  11.051  11.488  10.415
15080SOL     OW47071   2.271  14.805   8.704
15080SOL    HW147072   2.259  14.710   8.703
15080SOL    HW247073   2.365  14.817   8.714
15081SOL     OW47074   7.807   6.283   1.507
15081SOL    HW147075   7.847   6.262   1.591
15081SOL    HW247076   7.737   6.345   1.527
15082SOL     OW47077   2.683   9.090   4.734
15082SOL    HW147078   2.609   9.151   4.722
15082SOL    HW247079   2.693   9.048   4.648
15083SOL     OW47080   8.818  14.713   4.775
15083SOL    HW147081   8.807  14.689   4.867
15083SOL    HW247082   8.912  14.727   4.764
15084SOL     OW47083   7.991   5.988   1.031
15084SOL    HW147084   7.969   5.904   1.071
15084SOL    HW247085   8.000   6.048   1.106
15085SOL     OW47086   7.487   9.908   0.325
15085SOL    HW147087   7.484   9.813   0.327
15085SOL    HW247088   7.558   9.931   0.385
15086SOL     OW47089   3.657   6.241   0.416
15086SOL    HW147090   3.677   6.332   0.394
15086SOL    HW247091   3.692   6.190   0.343
15087SOL     OW47092   8.465   0.557   3.458
15087SOL    HW147093   8.377   0.596   3.462
15087SOL    HW247094   8.462   0.485   3.521
15088SOL     OW47095   2.861  10.425   3.534
15088SOL    HW147096   2.951  10.454   3.547
15088SOL    HW247097   2.846  10.361   3.603
15089SOL     OW47098   2.537  12.645   5.152
15089SOL    HW147099   2.540  12.681   5.063
15089SOL    HW247100   2.463  12.690   5.193
15090SOL     OW47101   4.308  11.625   9.833
15090SOL    HW147102   4.252  11.592   9.762
15090SOL    HW247103   4.320  11.718   9.812
15091SOL     OW47104   4.701   0.355  11.958
15091SOL    HW147105   4.790   0.384  11.938
15091SOL    HW247106   4.682   0.394  12.043
15092SOL     OW47107   8.652  11.620   7.733
15092SOL    HW147108   8.699  11.549   7.777
15092SOL    HW247109   8.680  11.699   7.779
15093SOL     OW47110  10.485  13.827  12.795
15093SOL    HW147111  10.400  13.786  12.806
15093SOL    HW247112  10.542  13.782  12.858
15094SOL     OW47113  13.023  12.008   7.046
15094SOL    HW147114  13.043  12.018   6.952
15094SOL    HW247115  13.106  11.983   7.085
15095SOL     OW47116   1.285   9.509   1.846
15095SOL    HW147117   1.258   9.423   1.880
15095SOL    HW247118   1.321   9.490   1.759
15096SOL     OW47119   5.963   3.450  10.493
15096SOL    HW147120   5.938   3.498  10.572
15096SOL    HW247121   5.880   3.425  10.453
15097SOL     OW47122  10.900   1.328  11.589
15097SOL    HW147123  10.814   1.292  11.569
15097SOL    HW247124  10.917   1.390  11.518
15098SOL     OW47125  13.985   7.432   9.921
15098SOL    HW147126  13.938   7.491   9.981
15098SOL    HW247127  14.045   7.489   9.873
15099SOL     OW47128   0.924   1.501   7.273
15099SOL    HW147129   0.836   1.536   7.289
15099SOL    HW247130   0.980   1.578   7.268
15100SOL     OW47131   6.528   0.566   2.737
15100SOL    HW147132   6.533   0.489   2.680
15100SOL    HW247133   6.487   0.633   2.684
15101SOL     OW47134   4.394  10.246   4.095
15101SOL    HW147135   4.383  10.212   4.184
15101SOL    HW247136   4.332  10.195   4.043
15102SOL     OW47137   8.902  10.530   3.922
15102SOL    HW147138   8.831  10.484   3.968
15102SOL    HW247139   8.947  10.579   3.990
15103SOL     OW47140   4.559  11.909   2.119
15103SOL    HW147141   4.623  11.931   2.051
15103SOL    HW247142   4.597  11.833   2.163
15104SOL     OW47143   8.982   9.789   2.740
15104SOL    HW147144   9.056   9.729   2.743
15104SOL    HW247145   8.920   9.754   2.804
15105SOL     OW47146   8.109  12.824   3.039
15105SOL    HW147147   8.041  12.888   3.059
15105SOL    HW247148   8.062  12.751   2.997
15106SOL     OW47149  12.501   0.151  12.699
15106SOL    HW147150  12.482   0.115  12.613
15106SOL    HW247151  12.562   0.223  12.682
15107SOL     OW47152  14.072   0.880  11.682
15107SOL    HW147153  14.115   0.843  11.604
15107SOL    HW247154  13.994   0.826  11.694
15108SOL     OW47155   9.832  11.428   6.495
15108SOL    HW147156   9.776  11.498   6.525
15108SOL    HW247157   9.814  11.421   6.401
15109SOL     OW47158   7.356   2.710  11.385
15109SOL    HW147159   7.438   2.759  11.375
15109SOL    HW247160   7.327   2.730  11.474
15110SOL     OW47161  12.170  10.528  11.064
15110SOL    HW147162  12.167  10.620  11.092
15110SOL    HW247163  12.082  10.510  11.033
15111SOL     OW47164   9.154   2.444  14.616
15111SOL    HW147165   9.083   2.476  14.671
15111SOL    HW247166   9.198   2.378  14.669
15112SOL     OW47167  10.363   7.518   2.256
15112SOL    HW147168  10.359   7.564   2.172
15112SOL    HW247169  10.432   7.453   2.244
15113SOL     OW47170   4.007   8.291  11.988
15113SOL    HW147171   3.952   8.216  11.965
15113SOL    HW247172   3.953   8.368  11.969
15114SOL     OW47173   9.401   4.599  13.749
15114SOL    HW147174   9.478   4.548  13.775
15114SOL    HW247175   9.328   4.557  13.795
15115SOL     OW47176   1.070  11.998  13.266
15115SOL    HW147177   1.126  11.936  13.218
15115SOL    HW247178   0.986  11.953  13.273
15116SOL     OW47179  13.854  14.767   4.747
15116SOL    HW147180  13.888  14.742   4.833
15116SOL    HW247181  13.879  14.858   4.736
15117SOL     OW47182  14.010   2.151   1.145
15117SOL    HW147183  14.043   2.069   1.182
15117SOL    HW247184  14.015   2.213   1.217
15118SOL     OW47185   0.110   1.728   0.492
15118SOL    HW147186   0.183   1.729   0.429
15118SOL    HW247187   0.077   1.638   0.488
15119SOL     OW47188   9.390   0.278   6.979
15119SOL    HW147189   9.317   0.321   6.935
15119SOL    HW247190   9.450   0.254   6.908
15120SOL     OW47191   8.493  13.814   0.532
15120SOL    HW147192   8.416  13.868   0.515
15120SOL    HW247193   8.544  13.820   0.451
15121SOL     OW47194   8.006  10.582   9.460
15121SOL    HW147195   7.943  10.510   9.470
15121SOL    HW247196   8.091  10.543   9.476
15122SOL     OW47197  14.225   7.466   0.901
15122SOL    HW147198  14.184   7.545   0.866
15122SOL    HW247199  14.312   7.465   0.862
15123SOL     OW47200   4.460   8.060  10.574
15123SOL    HW147201   4.440   8.012  10.654
15123SOL    HW247202   4.384   8.115  10.559
15124SOL     OW47203   6.385  10.284   8.108
15124SOL    HW147204   6.364  10.217   8.044
15124SOL    HW247205   6.479  10.275   8.123
15125SOL     OW47206   8.465   8.002   8.818
15125SOL    HW147207   8.545   7.988   8.870
15125SOL    HW247208   8.400   8.032   8.882
15126SOL     OW47209  14.870  13.871   8.087
15126SOL    HW147210  14.789  13.826   8.111
15126SOL    HW247211   0.051  13.803   8.053
15127SOL     OW47212  13.002   9.832   3.845
15127SOL    HW147213  13.070   9.767   3.862
15127SOL    HW247214  13.047   9.916   3.847
15128SOL     OW47215   6.681   1.063  14.409
15128SOL    HW147216   6.758   1.120  14.419
15128SOL    HW247217   6.718   0.975  14.397
15129SOL     OW47218  13.516  12.884   7.021
15129SOL    HW147219  13.496  12.824   6.949
15129SOL    HW247220  13.454  12.956   7.010
15130SOL     OW47221  11.803  14.047  12.237
15130SOL    HW147222  11.786  14.129  12.190
15130SOL    HW247223  11.887  14.017  12.201
15131SOL     OW47224   5.107  11.979  14.181
15131SOL    HW147225   5.069  11.908  14.129
15131SOL    HW247226   5.136  11.936  14.262
15132SOL     OW47227   8.042  13.689   3.352
15132SOL    HW147228   7.951  13.667   3.332
15132SOL    HW247229   8.089  13.669   3.271
15133SOL     OW47230   1.449  13.929   1.294
15133SOL    HW147231   1.480  13.840   1.275
15133SOL    HW247232   1.356  13.927   1.270
15134SOL     OW47233   8.957   3.494   6.024
15134SOL    HW147234   8.995   3.406   6.027
15134SOL    HW247235   8.980   3.533   6.108
15135SOL     OW47236   6.441   4.103  12.075
15135SOL    HW147237   6.494   4.030  12.042
15135SOL    HW247238   6.352   4.068  12.082
15136SOL     OW47239  10.892  11.993   9.454
15136SOL    HW147240  10.817  12.043   9.487
15136SOL    HW247241  10.960  12.059   9.442
15137SOL     OW47242   4.859  12.373   8.928
15137SOL    HW147243   4.764  12.381   8.935
15137SOL    HW247244   4.876  12.280   8.944
15138SOL     OW47245  12.882   4.924   5.124
15138SOL    HW147246  12.890   4.997   5.063
15138SOL    HW247247  12.973   4.898   5.142
15139SOL     OW47248  12.649  10.944   6.005
15139SOL    HW147249  12.645  10.894   5.924
15139SOL    HW247250  12.598  11.023   5.987
15140SOL     OW47251  11.654   6.584  10.660
15140SOL    HW147252  11.621   6.668  10.692
15140SOL    HW247253  11.673   6.598  10.568
15141SOL     OW47254   9.895   5.817   4.906
15141SOL    HW147255   9.891   5.909   4.878
15141SOL    HW247256   9.812   5.780   4.876
15142SOL     OW47257  13.505   1.488  10.230
15142SOL    HW147258  13.441   1.536  10.281
15142SOL    HW247259  13.563   1.447  10.295
15143SOL     OW47260  13.517  12.394  14.059
15143SOL    HW147261  13.432  12.361  14.029
15143SOL    HW247262  13.574  12.382  13.983
15144SOL     OW47263  10.933   7.702  11.501
15144SOL    HW147264  10.927   7.606  11.496
15144SOL    HW247265  10.873   7.734  11.435
15145SOL     OW47266   2.039   3.882  10.004
15145SOL    HW147267   2.103   3.923  10.064
15145SOL    HW247268   2.008   3.805  10.052
15146SOL     OW47269   0.099  13.319   4.276
15146SOL    HW147270   0.063  13.358   4.355
15146SOL    HW247271   0.090  13.224   4.290
15147SOL     OW47272   4.128  10.092   3.256
15147SOL    HW147273   4.159  10.071   3.344
15147SOL    HW247274   4.033  10.088   3.263
15148SOL     OW47275   7.750   5.126  12.424
15148SOL    HW147276   7.801   5.154  12.500
15148SOL    HW247277   7.744   5.205  12.369
15149SOL     OW47278   5.128  13.537  10.991
15149SOL    HW147279   5.117  13.629  11.016
15149SOL    HW247280   5.217  13.532  10.957
15150SOL     OW47281  14.122   6.183   4.528
15150SOL    HW147282  14.035   6.223   4.526
15150SOL    HW247283  14.119   6.122   4.601
15151SOL     OW47284   8.754   0.483   5.916
15151SOL    HW147285   8.699   0.421   5.963
15151SOL    HW247286   8.804   0.429   5.854
15152SOL     OW47287   5.031   6.239   1.185
15152SOL    HW147288   5.041   6.196   1.270
15152SOL    HW247289   5.120   6.245   1.151
15153SOL     OW47290   1.429  13.320   3.509
15153SOL    HW147291   1.399  13.312   3.599
15153SOL    HW247292   1.524  13.310   3.514
15154SOL     OW47293  13.335   6.622  13.829
15154SOL    HW147294  13.427   6.648  13.834
15154SOL    HW247295  13.311   6.602  13.919
15155SOL     OW47296   9.510   6.971   2.248
15155SOL    HW147297   9.572   7.042   2.232
15155SOL    HW247298   9.436   6.990   2.191
15156SOL     OW47299   8.735   9.654  14.600
15156SOL    HW147300   8.779   9.739  14.600
15156SOL    HW247301   8.679   9.656  14.678
15157SOL     OW47302   1.496   0.374   7.996
15157SOL    HW147303   1.487   0.399   7.904
15157SOL    HW247304   1.509   0.279   7.994
15158SOL     OW47305   9.081   0.494  13.451
15158SOL    HW147306   9.066   0.423  13.388
15158SOL    HW247307   9.121   0.564  13.398
15159SOL     OW47308   6.367   4.072   2.393
15159SOL    HW147309   6.298   4.064   2.327
15159SOL    HW247310   6.395   3.982   2.410
15160SOL     OW47311   8.721   5.457  10.618
15160SOL    HW147312   8.662   5.470  10.544
15160SOL    HW247313   8.712   5.365  10.641
15161SOL     OW47314  11.559  13.934   4.856
15161SOL    HW147315  11.504  13.977   4.791
15161SOL    HW247316  11.526  13.845   4.862
15162SOL     OW47317   1.509   0.128   1.088
15162SOL    HW147318   1.509   0.193   1.018
15162SOL    HW247319   1.427   0.080   1.076
15163SOL     OW47320  10.922  13.239  13.882
15163SOL    HW147321  10.933  13.158  13.832
15163SOL    HW247322  10.853  13.219  13.945
15164SOL     OW47323  11.047   9.097  11.168
15164SOL    HW147324  10.965   9.116  11.214
15164SOL    HW247325  11.033   9.009  11.131
15165SOL     OW47326   6.757   9.935   2.660
15165SOL    HW147327   6.759   9.856   2.713
15165SOL    HW247328   6.849   9.961   2.651
15166SOL     OW47329  10.115   2.442   7.765
15166SOL    HW147330  10.160   2.526   7.756
15166SOL    HW247331  10.100   2.433   7.859
15167SOL     OW47332   3.431   9.356  11.723
15167SOL    HW147333   3.395   9.282  11.674
15167SOL    HW247334   3.526   9.350  11.709
15168SOL     OW47335   8.289   3.499   1.160
15168SOL    HW147336   8.370   3.496   1.110
15168SOL    HW247337   8.312   3.542   1.242
15169SOL     OW47338   3.395  11.658   1.675
15169SOL    HW147339   3.348  11.574   1.677
15169SOL    HW247340   3.477  11.641   1.721
15170SOL     OW47341   2.876   2.203  14.332
15170SOL    HW147342   2.896   2.283  14.283
15170SOL    HW247343   2.902   2.132  14.274
15171SOL     OW47344   6.305   0.028   4.221
15171SOL    HW147345   6.232   0.077   4.183
15171SOL    HW247346   6.271  14.815   4.232
15172SOL     OW47347   4.339  10.097   2.676
15172SOL    HW147348   4.418  10.145   2.653
15172SOL    HW247349   4.369  10.022   2.727
15173SOL     OW47350  12.713   7.663   9.295
15173SOL    HW147351  12.734   7.677   9.388
15173SOL    HW247352  12.771   7.592   9.269
15174SOL     OW47353   5.143   2.029   2.459
15174SOL    HW147354   5.101   2.102   2.505
15174SOL    HW247355   5.201   1.989   2.525
15175SOL     OW47356  11.673   3.295   5.034
15175SOL    HW147357  11.745   3.248   4.993
15175SOL    HW247358  11.618   3.322   4.961
15176SOL     OW47359  12.908  11.311  14.492
15176SOL    HW147360  12.991  11.351  14.470
15176SOL    HW247361  12.861  11.378  14.542
15177SOL     OW47362  10.663   4.722  10.312
15177SOL    HW147363  10.574   4.756  10.314
15177SOL    HW247364  10.688   4.725  10.219
15178SOL     OW47365   1.705   6.210  13.625
15178SOL    HW147366   1.763   6.250  13.561
15178SOL    HW247367   1.667   6.285  13.672
15179SOL     OW47368  10.833   9.732   8.977
15179SOL    HW147369  10.807   9.809   8.926
15179SOL    HW247370  10.825   9.659   8.916
15180SOL     OW47371  13.798   2.826   2.595
15180SOL    HW147372  13.788   2.807   2.502
15180SOL    HW247373  13.892   2.819   2.611
15181SOL     OW47374   2.553   8.096   8.581
15181SOL    HW147375   2.503   8.056   8.653
15181SOL    HW247376   2.591   8.175   8.619
15182SOL     OW47377   9.649   7.109  14.726
15182SOL    HW147378   9.724   7.167  14.720
15182SOL    HW247379   9.594   7.133  14.651
15183SOL     OW47380   1.098   9.409   2.267
15183SOL    HW147381   1.035   9.480   2.255
15183SOL    HW247382   1.046   9.329   2.255
15184SOL     OW47383   9.725   9.840   1.311
15184SOL    HW147384   9.661   9.835   1.382
15184SOL    HW247385   9.728   9.751   1.275
15185SOL     OW47386   6.342   0.597   7.546
15185SOL    HW147387   6.325   0.551   7.628
15185SOL    HW247388   6.381   0.680   7.573
15186SOL     OW47389  10.788  14.231   8.314
15186SOL    HW147390  10.768  14.208   8.223
15186SOL    HW247391  10.797  14.327   8.313
15187SOL     OW47392   7.925   7.600   3.055
15187SOL    HW147393   7.889   7.689   3.054
15187SOL    HW247394   8.020   7.612   3.050
15188SOL     OW47395   2.877   0.815   6.548
15188SOL    HW147396   2.789   0.792   6.516
15188SOL    HW247397   2.869   0.905   6.578
15189SOL     OW47398  10.148   5.069   3.174
15189SOL    HW147399  10.053   5.069   3.166
15189SOL    HW247400  10.172   5.161   3.180
15190SOL     OW47401   7.296  13.860  10.761
15190SOL    HW147402   7.382  13.899  10.781
15190SOL    HW247403   7.309  13.817  10.676
15191SOL     OW47404   1.561   4.479   1.663
15191SOL    HW147405   1.563   4.385   1.681
15191SOL    HW247406   1.481   4.510   1.705
15192SOL     OW47407   7.064   2.943  11.510
15192SOL    HW147408   6.995   2.909  11.453
15192SOL    HW247409   7.019   3.005  11.567
15193SOL     OW47410  11.042   6.435  10.790
15193SOL    HW147411  11.137   6.442  10.799
15193SOL    HW247412  11.029   6.393  10.705
15194SOL     OW47413   0.398   5.567   9.221
15194SOL    HW147414   0.398   5.650   9.174
15194SOL    HW247415   0.307   5.552   9.244
15195SOL     OW47416  10.478   1.763   2.257
15195SOL    HW147417  10.550   1.729   2.203
15195SOL    HW247418  10.399   1.726   2.219
15196SOL     OW47419  12.091   3.497   0.145
15196SOL    HW147420  11.996   3.493   0.138
15196SOL    HW247421  12.110   3.586   0.173
15197SOL     OW47422   8.571   5.070   3.839
15197SOL    HW147423   8.656   5.040   3.807
15197SOL    HW247424   8.585   5.163   3.859
15198SOL     OW47425  10.487   0.582   4.757
15198SOL    HW147426  10.405   0.537   4.779
15198SOL    HW247427  10.486   0.588   4.662
15199SOL     OW47428  11.911   5.393   5.226
15199SOL    HW147429  11.851   5.384   5.300
15199SOL    HW247430  11.980   5.451   5.257
15200SOL     OW47431   8.181   3.150   8.626
15200SOL    HW147432   8.133   3.142   8.708
15200SOL    HW247433   8.243   3.221   8.641
15201SOL     OW47434   0.594   6.972  14.498
15201SOL    HW147435   0.607   7.064  14.475
15201SOL    HW247436   0.529   6.974  14.568
15202SOL     OW47437   0.037   6.090  12.920
15202SOL    HW147438   0.009   6.040  12.843
15202SOL    HW247439   0.100   6.154  12.885
15203SOL     OW47440   6.240   3.668   5.671
15203SOL    HW147441   6.326   3.630   5.689
15203SOL    HW247442   6.259   3.750   5.625
15204SOL     OW47443  14.031   0.732   2.816
15204SOL    HW147444  14.082   0.744   2.736
15204SOL    HW247445  14.096   0.715   2.884
15205SOL     OW47446  10.479   8.753   7.178
15205SOL    HW147447  10.512   8.766   7.267
15205SOL    HW247448  10.449   8.662   7.177
15206SOL     OW47449  14.872  10.670   6.243
15206SOL    HW147450  14.863  10.762   6.218
15206SOL    HW247451   0.001  10.623   6.159
15207SOL     OW47452   7.695  12.405   7.165
15207SOL    HW147453   7.651  12.488   7.145
15207SOL    HW247454   7.783  12.415   7.129
15208SOL     OW47455   3.499  13.209   0.526
15208SOL    HW147456   3.509  13.276   0.593
15208SOL    HW247457   3.524  13.128   0.569
15209SOL     OW47458   2.939   3.453   6.931
15209SOL    HW147459   2.945   3.358   6.938
15209SOL    HW247460   2.845   3.472   6.934
15210SOL     OW47461  14.270   7.334  13.535
15210SOL    HW147462  14.217   7.409  13.507
15210SOL    HW247463  14.301   7.295  13.453
15211SOL     OW47464   0.145   1.297   9.058
15211SOL    HW147465   0.132   1.228   9.123
15211SOL    HW247466   0.198   1.256   8.990
15212SOL     OW47467   1.675  12.772   5.499
15212SOL    HW147468   1.686  12.857   5.543
15212SOL    HW247469   1.740  12.773   5.429
15213SOL     OW47470  14.341   7.935  13.387
15213SOL    HW147471  14.349   7.857  13.333
15213SOL    HW247472  14.416   7.989  13.363
15214SOL     OW47473   4.376   4.015  14.238
15214SOL    HW147474   4.432   3.938  14.254
15214SOL    HW247475   4.291   3.990  14.275
15215SOL     OW47476   6.104  11.446  11.416
15215SOL    HW147477   6.200  11.448  11.411
15215SOL    HW247478   6.075  11.499  11.341
15216SOL     OW47479  13.614   6.182   3.313
15216SOL    HW147480  13.574   6.137   3.388
15216SOL    HW247481  13.659   6.112   3.266
15217SOL     OW47482   6.615   1.517  12.349
15217SOL    HW147483   6.677   1.568  12.402
15217SOL    HW247484   6.588   1.445  12.406
15218SOL     OW47485   8.057  14.571   4.257
15218SOL    HW147486   8.078  14.657   4.221
15218SOL    HW247487   8.058  14.583   4.352
15219SOL     OW47488   9.528  11.521  12.368
15219SOL    HW147489   9.563  11.476  12.445
15219SOL    HW247490   9.477  11.593  12.404
15220SOL     OW47491   1.692   2.878  13.917
15220SOL    HW147492   1.722   2.790  13.939
15220SOL    HW247493   1.759   2.913  13.859
15221SOL     OW47494   3.409  11.916   1.657
15221SOL    HW147495   3.490  11.926   1.707
15221SOL    HW247496   3.390  11.822   1.661
15222SOL     OW47497   2.423  12.371  10.774
15222SOL    HW147498   2.471  12.386  10.855
15222SOL    HW247499   2.414  12.459  10.736
15223SOL     OW47500   3.908   4.565   2.698
15223SOL    HW147501   3.977   4.591   2.760
15223SOL    HW247502   3.947   4.579   2.612
15224SOL     OW47503   0.010   8.553  12.657
15224SOL    HW147504   0.024   8.646  12.645
15224SOL    HW247505  14.814   8.547  12.720
15225SOL     OW47506   4.722   5.849   1.113
15225SOL    HW147507   4.797   5.793   1.131
15225SOL    HW247508   4.754   5.913   1.051
15226SOL     OW47509  13.005  13.170   6.256
15226SOL    HW147510  12.930  13.205   6.207
15226SOL    HW247511  13.081  13.215   6.218
15227SOL     OW47512  14.641  10.714   8.885
15227SOL    HW147513  14.633  10.636   8.831
15227SOL    HW247514  14.655  10.785   8.823
15228SOL     OW47515   1.808   1.376   6.006
15228SOL    HW147516   1.719   1.409   5.991
15228SOL    HW247517   1.860   1.415   5.937
15229SOL     OW47518  10.134  10.986  13.150
15229SOL    HW147519  10.194  11.053  13.182
15229SOL    HW247520  10.116  10.931  13.226
15230SOL     OW47521   1.592   1.071  13.664
15230SOL    HW147522   1.528   1.009  13.630
15230SOL    HW247523   1.676   1.025  13.657
15231SOL     OW47524   8.007   1.405   2.964
15231SOL    HW147525   8.044   1.464   3.030
15231SOL    HW247526   8.081   1.379   2.910
15232SOL     OW47527   8.267   4.720   8.710
15232SOL    HW147528   8.179   4.757   8.703
15232SOL    HW247529   8.324   4.782   8.664
15233SOL     OW47530  13.896   2.971   6.301
15233SOL    HW147531  13.969   2.993   6.359
15233SOL    HW247532  13.874   2.880   6.323
15234SOL     OW47533   8.420   5.195  14.040
15234SOL    HW147534   8.499   5.199  13.986
15234SOL    HW247535   8.441   5.133  14.109
15235SOL     OW47536  13.810   7.016   7.615
15235SOL    HW147537  13.849   7.102   7.598
15235SOL    HW247538  13.738   7.034   7.675
15236SOL     OW47539  10.528   2.800  11.782
15236SOL    HW147540  10.615   2.762  11.770
15236SOL    HW247541  10.543   2.895  11.775
15237SOL     OW47542   7.243   5.422   5.708
15237SOL    HW147543   7.278   5.382   5.628
15237SOL    HW247544   7.311   5.408   5.774
15238SOL     OW47545   1.902  12.887   7.449
15238SOL    HW147546   1.817  12.914   7.414
15238SOL    HW247547   1.913  12.940   7.528
15239SOL     OW47548   0.991  13.343   2.018
15239SOL    HW147549   1.006  13.381   1.931
15239SOL    HW247550   0.968  13.252   2.001
15240SOL     OW47551  10.272  13.666   6.554
15240SOL    HW147552  10.265  13.630   6.466
15240SOL    HW247553  10.190  13.713   6.568
15241SOL     OW47554   7.268   6.547   1.312
15241SOL    HW147555   7.201   6.506   1.257
15241SOL    HW247556   7.335   6.480   1.322
15242SOL     OW47557  14.034  13.067  13.459
15242SOL    HW147558  13.987  13.116  13.392
15242SOL    HW247559  13.966  13.028  13.513
15243SOL     OW47560   4.192  12.313   0.619
15243SOL    HW147561   4.203  12.219   0.630
15243SOL    HW247562   4.213  12.349   0.706
15244SOL     OW47563   3.928   8.115   8.480
15244SOL    HW147564   4.001   8.128   8.540
15244SOL    HW247565   3.929   8.021   8.461
15245SOL     OW47566   0.801  14.484   8.145
15245SOL    HW147567   0.792  14.419   8.215
15245SOL    HW247568   0.715  14.484   8.102
15246SOL     OW47569  11.103  13.947   8.194
15246SOL    HW147570  11.144  13.972   8.112
15246SOL    HW247571  11.132  14.014   8.257
15247SOL     OW47572   3.236   7.500   9.183
15247SOL    HW147573   3.256   7.435   9.115
15247SOL    HW247574   3.298   7.482   9.253
15248SOL     OW47575   4.689  12.740  14.165
15248SOL    HW147576   4.705  12.715  14.256
15248SOL    HW247577   4.612  12.797  14.169
15249SOL     OW47578   8.108  12.442   6.361
15249SOL    HW147579   8.030  12.424   6.413
15249SOL    HW247580   8.110  12.538   6.354
15250SOL     OW47581   5.423   0.802   1.154
15250SOL    HW147582   5.400   0.818   1.063
15250SOL    HW247583   5.486   0.871   1.176
15251SOL     OW47584  11.560   1.106  12.409
15251SOL    HW147585  11.560   1.013  12.387
15251SOL    HW247586  11.650   1.125  12.437
15252SOL     OW47587   9.132   4.501   5.668
15252SOL    HW147588   9.141   4.418   5.714
15252SOL    HW247589   9.220   4.519   5.633
15253SOL     OW47590  10.844  10.051   1.298
15253SOL    HW147591  10.884  10.028   1.382
15253SOL    HW247592  10.818  10.142   1.308
15254SOL     OW47593   2.955   4.363   2.346
15254SOL    HW147594   3.028   4.412   2.308
15254SOL    HW247595   2.900   4.339   2.271
15255SOL     OW47596  10.653   3.284   0.568
15255SOL    HW147597  10.607   3.269   0.486
15255SOL    HW247598  10.584   3.284   0.635
15256SOL     OW47599   6.034   9.722   3.578
15256SOL    HW147600   6.045   9.628   3.592
15256SOL    HW247601   6.086   9.741   3.500
15257SOL     OW47602   3.289   1.994   0.647
15257SOL    HW147603   3.235   1.981   0.725
15257SOL    HW247604   3.299   1.906   0.610
15258SOL     OW47605  10.739  12.620  13.971
15258SOL    HW147606  10.775  12.677  14.039
15258SOL    HW247607  10.814  12.571  13.938
15259SOL     OW47608   7.080  13.451   7.602
15259SOL    HW147609   7.151  13.450   7.667
15259SOL    HW247610   7.002  13.429   7.653
15260SOL     OW47611  13.535   8.477  14.159
15260SOL    HW147612  13.576   8.502  14.076
15260SOL    HW247613  13.568   8.389  14.175
15261SOL     OW47614  10.008   4.484  12.364
15261SOL    HW147615  10.009   4.389  12.379
15261SOL    HW247616  10.061   4.497  12.286
15262SOL     OW47617  11.895  13.260   3.894
15262SOL    HW147618  11.821  13.201   3.894
15262SOL    HW247619  11.944  13.238   3.814
15263SOL     OW47620   5.869   8.870  10.841
15263SOL    HW147621   5.902   8.790  10.882
15263SOL    HW247622   5.932   8.889  10.771
15264SOL     OW47623  10.216   2.463  12.820
15264SOL    HW147624  10.129   2.422  12.811
15264SOL    HW247625  10.255   2.455  12.733
15265SOL     OW47626   8.396  10.066   1.431
15265SOL    HW147627   8.428  10.004   1.365
15265SOL    HW247628   8.303  10.076   1.411
15266SOL     OW47629   0.869   4.984  10.114
15266SOL    HW147630   0.821   4.910  10.077
15266SOL    HW247631   0.838   5.060  10.063
15267SOL     OW47632   9.685  10.129   5.793
15267SOL    HW147633   9.590  10.117   5.787
15267SOL    HW247634   9.720  10.056   5.741
15268SOL     OW47635   1.109   5.797   5.268
15268SOL    HW147636   1.018   5.768   5.273
15268SOL    HW247637   1.133   5.785   5.177
15269SOL     OW47638   7.795   7.492   7.245
15269SOL    HW147639   7.756   7.531   7.167
15269SOL    HW247640   7.722   7.482   7.306
15270SOL     OW47641   3.613   7.637   3.570
15270SOL    HW147642   3.586   7.549   3.547
15270SOL    HW247643   3.661   7.669   3.494
15271SOL     OW47644   8.980   9.319   4.620
15271SOL    HW147645   9.058   9.374   4.631
15271SOL    HW247646   9.014   9.230   4.618
15272SOL     OW47647   3.488   9.651   5.347
15272SOL    HW147648   3.541   9.579   5.381
15272SOL    HW247649   3.436   9.611   5.277
15273SOL     OW47650   6.122  13.192  13.413
15273SOL    HW147651   6.203  13.153  13.381
15273SOL    HW247652   6.063  13.118  13.429
15274SOL     OW47653   7.555   5.144   5.296
15274SOL    HW147654   7.587   5.163   5.384
15274SOL    HW247655   7.561   5.228   5.250
15275SOL     OW47656  10.579   3.763   0.292
15275SOL    HW147657  10.587   3.749   0.197
15275SOL    HW247658  10.486   3.753   0.310
15276SOL     OW47659   1.046   4.889  12.395
15276SOL    HW147660   0.982   4.863  12.460
15276SOL    HW247661   1.003   4.876  12.311
15277SOL     OW47662   6.793  10.710  12.364
15277SOL    HW147663   6.876  10.662  12.365
15277SOL    HW247664   6.753  10.690  12.449
15278SOL     OW47665  13.332   0.759   1.257
15278SOL    HW147666  13.240   0.735   1.246
15278SOL    HW247667  13.360   0.712   1.336
15279SOL     OW47668  11.830   8.742   9.605
15279SOL    HW147669  11.865   8.819   9.559
15279SOL    HW247670  11.858   8.668   9.552
15280SOL     OW47671   3.497   9.188   8.650
15280SOL    HW147672   3.484   9.110   8.703
15280SOL    HW247673   3.435   9.179   8.577
15281SOL     OW47674   9.847   4.632   3.844
15281SOL    HW147675   9.941   4.627   3.861
15281SOL    HW247676   9.839   4.677   3.760
15282SOL     OW47677   0.500   4.396   5.148
15282SOL    HW147678   0.422   4.450   5.149
15282SOL    HW247679   0.566   4.449   5.193
15283SOL     OW47680   9.755  10.070  11.537
15283SOL    HW147681   9.696  10.101  11.606
15283SOL    HW247682   9.750  10.136  11.468
15284SOL     OW47683   8.716   2.667   4.490
15284SOL    HW147684   8.673   2.622   4.417
15284SOL    HW247685   8.809   2.648   4.479
15285SOL     OW47686  12.966   6.961   1.811
15285SOL    HW147687  12.949   6.929   1.900
15285SOL    HW247688  13.009   7.045   1.824
15286SOL     OW47689   2.464   6.878   8.534
15286SOL    HW147690   2.500   6.899   8.448
15286SOL    HW247691   2.482   6.955   8.587
15287SOL     OW47692   8.575   9.027  10.024
15287SOL    HW147693   8.599   9.116   9.998
15287SOL    HW247694   8.533   9.038  10.110
15288SOL     OW47695  11.538   6.930   0.323
15288SOL    HW147696  11.503   7.007   0.367
15288SOL    HW247697  11.619   6.960   0.282
15289SOL     OW47698  12.550   4.478   2.084
15289SOL    HW147699  12.637   4.447   2.109
15289SOL    HW247700  12.491   4.408   2.112
15290SOL     OW47701   2.434   5.883  10.919
15290SOL    HW147702   2.505   5.902  10.857
15290SOL    HW247703   2.370   5.833  10.869
15291SOL     OW47704   2.366   2.231  12.426
15291SOL    HW147705   2.441   2.265  12.377
15291SOL    HW247706   2.360   2.288  12.504
15292SOL     OW47707  11.145   6.605   5.473
15292SOL    HW147708  11.059   6.571   5.450
15292SOL    HW247709  11.186   6.535   5.523
15293SOL     OW47710  11.836  14.424  10.930
15293SOL    HW147711  11.749  14.393  10.907
15293SOL    HW247712  11.893  14.390  10.861
15294SOL     OW47713   5.995   5.122   9.312
15294SOL    HW147714   6.065   5.115   9.376
15294SOL    HW247715   6.015   5.054   9.247
15295SOL     OW47716  10.127   7.082   7.366
15295SOL    HW147717  10.219   7.069   7.344
15295SOL    HW247718  10.126   7.166   7.413
15296SOL     OW47719   8.332   7.195  12.366
15296SOL    HW147720   8.386   7.273  12.353
15296SOL    HW247721   8.357   7.136  12.295
15297SOL     OW47722   6.424  14.804   1.248
15297SOL    HW147723   6.419  14.710   1.230
15297SOL    HW247724   6.516  14.820   1.269
15298SOL     OW47725   8.217   0.966   6.863
15298SOL    HW147726   8.240   0.905   6.793
15298SOL    HW247727   8.265   1.046   6.840
15299SOL     OW47728  11.424   9.441  10.275
15299SOL    HW147729  11.343   9.432  10.324
15299SOL    HW247730  11.417   9.526  10.231
15300SOL     OW47731  12.907  12.507   0.253
15300SOL    HW147732  12.868  12.429   0.213
15300SOL    HW247733  12.988  12.476   0.292
15301SOL     OW47734   1.885  10.114   0.699
15301SOL    HW147735   1.840  10.140   0.618
15301SOL    HW247736   1.824  10.054   0.742
15302SOL     OW47737   0.099   1.800   5.392
15302SOL    HW147738   0.113   1.711   5.358
15302SOL    HW247739   0.007   1.817   5.375
15303SOL     OW47740  11.646  12.458  10.045
15303SOL    HW147741  11.623  12.365  10.050
15303SOL    HW247742  11.577  12.503  10.093
15304SOL     OW47743   3.394   4.739   8.239
15304SOL    HW147744   3.383   4.645   8.248
15304SOL    HW247745   3.488   4.753   8.249
15305SOL     OW47746   9.240   4.100   0.693
15305SOL    HW147747   9.270   4.020   0.650
15305SOL    HW247748   9.235   4.077   0.786
15306SOL     OW47749   1.226   9.852   5.756
15306SOL    HW147750   1.222   9.836   5.662
15306SOL    HW247751   1.273   9.936   5.764
15307SOL     OW47752   2.765   2.366   7.775
15307SOL    HW147753   2.687   2.348   7.827
15307SOL    HW247754   2.814   2.430   7.826
15308SOL     OW47755   2.200   1.430   6.215
15308SOL    HW147756   2.166   1.358   6.163
15308SOL    HW247757   2.273   1.393   6.263
15309SOL     OW47758   4.010  12.025  11.360
15309SOL    HW147759   4.035  11.995  11.273
15309SOL    HW247760   4.085  12.003  11.416
15310SOL     OW47761   0.665  11.413  10.199
15310SOL    HW147762   0.573  11.423  10.223
15310SOL    HW247763   0.708  11.386  10.281
15311SOL     OW47764   2.793   8.275   7.462
15311SOL    HW147765   2.873   8.223   7.469
15311SOL    HW247766   2.823   8.361   7.433
15312SOL     OW47767   1.013   8.880  10.639
15312SOL    HW147768   0.949   8.809  10.648
15312SOL    HW247769   1.087   8.852  10.693
15313SOL     OW47770  10.954   5.323   5.942
15313SOL    HW147771  10.921   5.250   5.889
15313SOL    HW247772  10.939   5.296   6.032
15314SOL     OW47773  13.593   4.271   1.875
15314SOL    HW147774  13.598   4.298   1.967
15314SOL    HW247775  13.503   4.241   1.864
15315SOL     OW47776   4.500   4.234   3.820
15315SOL    HW147777   4.423   4.290   3.806
15315SOL    HW247778   4.572   4.295   3.832
15316SOL     OW47779  10.370   1.503   3.023
15316SOL    HW147780  10.287   1.496   2.975
15316SOL    HW247781  10.393   1.413   3.044
15317SOL     OW47782   9.796   9.058   5.323
15317SOL    HW147783   9.891   9.057   5.333
15317SOL    HW247784   9.767   9.129   5.380
15318SOL     OW47785   2.994   9.553   7.602
15318SOL    HW147786   2.975   9.480   7.661
15318SOL    HW247787   3.031   9.512   7.524
15319SOL     OW47788   6.206  11.198  11.206
15319SOL    HW147789   6.160  11.199  11.290
15319SOL    HW247790   6.136  11.205  11.141
15320SOL     OW47791   0.114  13.918  14.015
15320SOL    HW147792   0.085  13.905  14.105
15320SOL    HW247793   0.117  14.013  14.004
15321SOL     OW47794  10.146  13.914   4.327
15321SOL    HW147795  10.106  13.998   4.302
15321SOL    HW247796  10.204  13.936   4.400
15322SOL     OW47797   8.863   6.470   1.200
15322SOL    HW147798   8.915   6.390   1.199
15322SOL    HW247799   8.911   6.530   1.143
15323SOL     OW47800   6.019   9.135   0.112
15323SOL    HW147801   6.022   9.224   0.076
15323SOL    HW247802   6.104   9.098   0.091
15324SOL     OW47803   0.661   5.605   2.508
15324SOL    HW147804   0.704   5.611   2.422
15324SOL    HW247805   0.651   5.696   2.536
15325SOL     OW47806   8.689   5.344   6.010
15325SOL    HW147807   8.765   5.401   6.025
15325SOL    HW247808   8.726   5.256   6.006
15326SOL     OW47809  14.092   2.517  14.760
15326SOL    HW147810  14.015   2.464  14.780
15326SOL    HW247811  14.162   2.480  14.814
15327SOL     OW47812   1.708  11.549   1.198
15327SOL    HW147813   1.646  11.519   1.131
15327SOL    HW247814   1.786  11.495   1.184
15328SOL     OW47815  11.642  12.234  13.596
15328SOL    HW147816  11.632  12.324  13.626
15328SOL    HW247817  11.562  12.217  13.546
15329SOL     OW47818   6.321  10.879   8.990
15329SOL    HW147819   6.415  10.891   8.994
15329SOL    HW247820   6.288  10.912   9.074
15330SOL     OW47821  12.050  12.061  10.595
15330SOL    HW147822  12.034  12.057  10.500
15330SOL    HW247823  12.108  11.987  10.612
15331SOL     OW47824  11.870  10.093  11.529
15331SOL    HW147825  11.912  10.007  11.539
15331SOL    HW247826  11.803  10.079  11.463
15332SOL     OW47827  11.385   9.289   7.635
15332SOL    HW147828  11.398   9.381   7.656
15332SOL    HW247829  11.338   9.254   7.711
15333SOL     OW47830   3.060  14.826   7.355
15333SOL    HW147831   3.058  14.856   7.446
15333SOL    HW247832   3.015  14.741   7.357
15334SOL     OW47833  11.225  13.460   1.329
15334SOL    HW147834  11.280  13.398   1.280
15334SOL    HW247835  11.144  13.412   1.345
15335SOL     OW47836   2.106   4.388   2.497
15335SOL    HW147837   2.161   4.434   2.434
15335SOL    HW247838   2.143   4.300   2.503
15336SOL     OW47839  12.286   6.586   7.051
15336SOL    HW147840  12.272   6.661   6.994
15336SOL    HW247841  12.218   6.594   7.118
15337SOL     OW47842   9.723  10.643   4.155
15337SOL    HW147843   9.690  10.630   4.244
15337SOL    HW247844   9.669  10.586   4.101
15338SOL     OW47845  12.174   7.127   5.459
15338SOL    HW147846  12.215   7.046   5.491
15338SOL    HW247847  12.173   7.185   5.535
15339SOL     OW47848  13.376  12.343   0.556
15339SOL    HW147849  13.421  12.262   0.535
15339SOL    HW247850  13.365  12.341   0.651
15340SOL     OW47851   3.846  13.354   5.970
15340SOL    HW147852   3.937  13.365   5.944
15340SOL    HW247853   3.840  13.393   6.057
15341SOL     OW47854  14.470   4.581  10.088
15341SOL    HW147855  14.437   4.507  10.139
15341SOL    HW247856  14.545   4.545  10.041
15342SOL     OW47857  14.090   8.902  10.936
15342SOL    HW147858  14.005   8.941  10.917
15342SOL    HW247859  14.104   8.919  11.029
15343SOL     OW47860   5.688   4.018  12.407
15343SOL    HW147861   5.601   4.015  12.446
15343SOL    HW247862   5.746   3.980  12.473
15344SOL     OW47863   4.025   9.640   8.850
15344SOL    HW147864   4.045   9.733   8.864
15344SOL    HW247865   3.941   9.640   8.804
15345SOL     OW47866   9.644   3.348  13.931
15345SOL    HW147867   9.632   3.418  13.996
15345SOL    HW247868   9.611   3.385  13.849
15346SOL     OW47869   0.550  12.687   6.656
15346SOL    HW147870   0.454  12.690   6.655
15346SOL    HW247871   0.576  12.713   6.568
15347SOL     OW47872   3.719   6.792   9.809
15347SOL    HW147873   3.630   6.827   9.819
15347SOL    HW247874   3.716   6.743   9.727
15348SOL     OW47875   6.629   4.371   5.406
15348SOL    HW147876   6.605   4.435   5.473
15348SOL    HW247877   6.564   4.301   5.416
15349SOL     OW47878   5.506   2.331   4.616
15349SOL    HW147879   5.422   2.376   4.624
15349SOL    HW247880   5.553   2.381   4.549
15350SOL     OW47881   3.178   2.900   1.372
15350SOL    HW147882   3.155   2.898   1.279
15350SOL    HW247883   3.094   2.912   1.416
15351SOL     OW47884   4.427  11.622  10.376
15351SOL    HW147885   4.348  11.596  10.328
15351SOL    HW247886   4.394  11.673  10.450
15352SOL     OW47887   0.001   0.986   5.968
15352SOL    HW147888  14.812   1.001   6.037
15352SOL    HW247889   0.003   1.068   5.919
15353SOL     OW47890   8.542   6.086   1.369
15353SOL    HW147891   8.574   5.995   1.366
15353SOL    HW247892   8.466   6.083   1.427
15354SOL     OW47893   7.487   4.591   7.683
15354SOL    HW147894   7.459   4.574   7.593
15354SOL    HW247895   7.410   4.629   7.725
15355SOL     OW47896   3.304   3.891   5.358
15355SOL    HW147897   3.364   3.899   5.283
15355SOL    HW247898   3.220   3.867   5.319
15356SOL     OW47899  11.468   4.447   7.257
15356SOL    HW147900  11.374   4.430   7.254
15356SOL    HW247901  11.491   4.471   7.167
15357SOL     OW47902   3.962  13.661   2.033
15357SOL    HW147903   4.001  13.587   1.985
15357SOL    HW247904   3.869  13.640   2.038
15358SOL     OW47905  10.218   8.214   8.717
15358SOL    HW147906  10.284   8.257   8.662
15358SOL    HW247907  10.151   8.282   8.731
15359SOL     OW47908   8.235   9.206   9.802
15359SOL    HW147909   8.202   9.130   9.850
15359SOL    HW247910   8.277   9.260   9.870
15360SOL     OW47911  10.360   4.792   1.951
15360SOL    HW147912  10.390   4.769   1.863
15360SOL    HW247913  10.352   4.708   1.996
15361SOL     OW47914   8.084  12.990   9.022
15361SOL    HW147915   8.164  12.992   9.074
15361SOL    HW247916   8.060  12.897   9.018
15362SOL     OW47917   9.230   9.196   9.091
15362SOL    HW147918   9.312   9.208   9.137
15362SOL    HW247919   9.243   9.237   9.005
15363SOL     OW47920   1.010   3.323   7.828
15363SOL    HW147921   1.058   3.405   7.832
15363SOL    HW247922   0.941   3.338   7.764
15364SOL     OW47923  12.387   4.722   3.125
15364SOL    HW147924  12.388   4.736   3.220
15364SOL    HW247925  12.395   4.627   3.115
15365SOL     OW47926   4.213  14.708   6.183
15365SOL    HW147927   4.147  14.679   6.121
15365SOL    HW247928   4.164  14.729   6.263
15366SOL     OW47929   9.880   4.372  14.073
15366SOL    HW147930   9.796   4.374  14.120
15366SOL    HW247931   9.866   4.430  13.998
15367SOL     OW47932  14.625  12.175  14.177
15367SOL    HW147933  14.715  12.208  14.187
15367SOL    HW247934  14.634  12.080  14.186
15368SOL     OW47935   6.693   0.037   1.344
15368SOL    HW147936   6.734   0.091   1.412
15368SOL    HW247937   6.694  14.824   1.381
15369SOL     OW47938   3.808   9.562   9.331
15369SOL    HW147939   3.867   9.529   9.263
15369SOL    HW247940   3.721   9.532   9.304
15370SOL     OW47941   0.021  13.453  10.746
15370SOL    HW147942   0.078  13.399  10.691
15370SOL    HW247943   0.051  13.542  10.732
15371SOL     OW47944   6.935  14.390   7.431
15371SOL    HW147945   6.865  14.447   7.399
15371SOL    HW247946   7.011  14.447   7.438
15372SOL     OW47947   9.604   4.979   8.634
15372SOL    HW147948   9.636   5.068   8.643
15372SOL    HW247949   9.510   4.985   8.653
15373SOL     OW47950   7.051   6.966   4.654
15373SOL    HW147951   6.969   7.012   4.674
15373SOL    HW247952   7.107   6.982   4.730
15374SOL     OW47953  14.626   9.685   8.940
15374SOL    HW147954  14.688   9.631   8.989
15374SOL    HW247955  14.541   9.646   8.957
15375SOL     OW47956   7.316   4.574   6.533
15375SOL    HW147957   7.318   4.582   6.438
15375SOL    HW247958   7.392   4.625   6.563
15376SOL     OW47959   9.305   7.926  12.408
15376SOL    HW147960   9.368   7.875  12.458
15376SOL    HW247961   9.310   7.890  12.319
15377SOL     OW47962   0.635   5.545   8.185
15377SOL    HW147963   0.564   5.566   8.124
15377SOL    HW247964   0.592   5.540   8.270
15378SOL     OW47965  13.487  13.928  11.835
15378SOL    HW147966  13.457  13.985  11.765
15378SOL    HW247967  13.407  13.900  11.879
15379SOL     OW47968   8.149  10.201  13.836
15379SOL    HW147969   8.195  10.116  13.834
15379SOL    HW247970   8.064  10.180  13.875
15380SOL     OW47971   0.971   4.145  10.620
15380SOL    HW147972   0.898   4.205  10.635
15380SOL    HW247973   0.951   4.103  10.536
15381SOL     OW47974  10.407  14.461   6.487
15381SOL    HW147975  10.497  14.490   6.500
15381SOL    HW247976  10.393  14.394   6.554
15382SOL     OW47977   3.962  11.708   6.236
15382SOL    HW147978   3.964  11.785   6.293
15382SOL    HW247979   3.920  11.641   6.290
15383SOL     OW47980   8.714  13.127  12.722
15383SOL    HW147981   8.728  13.111  12.629
15383SOL    HW247982   8.802  13.122  12.761
15384SOL     OW47983   0.273  14.226   0.544
15384SOL    HW147984   0.268  14.167   0.619
15384SOL    HW247985   0.249  14.171   0.469
15385SOL     OW47986  11.598   4.252   6.234
15385SOL    HW147987  11.525   4.241   6.173
15385SOL    HW247988  11.557   4.284   6.314
15386SOL     OW47989  10.047   7.105   8.360
15386SOL    HW147990  10.075   7.097   8.268
15386SOL    HW247991  10.002   7.189   8.363
15387SOL     OW47992   3.392   9.748   6.523
15387SOL    HW147993   3.430   9.662   6.541
15387SOL    HW247994   3.429   9.773   6.438
15388SOL     OW47995   6.846   4.217  11.005
15388SOL    HW147996   6.789   4.141  10.996
15388SOL    HW247997   6.930   4.189  10.968
15389SOL     OW47998   9.481   6.481   5.506
15389SOL    HW147999   9.540   6.527   5.446
15389SOL    HW248000   9.447   6.550   5.563
15390SOL     OW48001   9.448  12.980   9.782
15390SOL    HW148002   9.401  12.946   9.858
15390SOL    HW248003   9.451  12.907   9.720
15391SOL     OW48004   6.662  12.420  10.095
15391SOL    HW148005   6.693  12.508  10.073
15391SOL    HW248006   6.572  12.418  10.062
15392SOL     OW48007   1.774  12.793   1.466
15392SOL    HW148008   1.800  12.832   1.383
15392SOL    HW248009   1.767  12.699   1.448
15393SOL     OW48010  14.523  13.136   8.207
15393SOL    HW148011  14.502  13.090   8.288
15393SOL    HW248012  14.504  13.071   8.138
15394SOL     OW48013  12.265   3.441  14.832
15394SOL    HW148014  12.344   3.408  14.875
15394SOL    HW248015  12.211   3.475   0.028
15395SOL     OW48016   6.669   1.933   4.459
15395SOL    HW148017   6.617   2.013   4.472
15395SOL    HW248018   6.706   1.944   4.371
15396SOL     OW48019  13.707  14.461  11.390
15396SOL    HW148020  13.731  14.552  11.406
15396SOL    HW248021  13.733  14.415  11.471
15397SOL     OW48022   2.303  13.520   4.287
15397SOL    HW148023   2.217  13.530   4.245
15397SOL    HW248024   2.282  13.501   4.378
15398SOL     OW48025   6.583   0.103   4.900
15398SOL    HW148026   6.625   0.039   4.957
15398SOL    HW248027   6.645   0.116   4.828
15399SOL     OW48028  10.658   3.162   0.193
15399SOL    HW148029  10.577   3.128   0.232
15399SOL    HW248030  10.631   3.206   0.113
15400SOL     OW48031   1.623   8.442   0.957
15400SOL    HW148032   1.534   8.438   0.923
15400SOL    HW248033   1.626   8.374   1.024
15401SOL     OW48034  13.347   6.014   4.443
15401SOL    HW148035  13.259   5.978   4.433
15401SOL    HW248036  13.333   6.105   4.470
15402SOL     OW48037  12.911  10.093   0.549
15402SOL    HW148038  12.877  10.182   0.555
15402SOL    HW248039  12.861  10.043   0.614
15403SOL     OW48040   4.978   6.358   4.924
15403SOL    HW148041   5.034   6.405   4.986
15403SOL    HW248042   5.028   6.280   4.901
15404SOL     OW48043   8.107   5.784  12.088
15404SOL    HW148044   8.166   5.737  12.030
15404SOL    HW248045   8.057   5.842  12.030
15405SOL     OW48046   8.590   3.653   3.608
15405SOL    HW148047   8.599   3.710   3.532
15405SOL    HW248048   8.601   3.710   3.683
15406SOL     OW48049  11.697   0.609  12.113
15406SOL    HW148050  11.622   0.575  12.065
15406SOL    HW248051  11.744   0.663  12.050
15407SOL     OW48052  14.124   3.236   0.220
15407SOL    HW148053  14.031   3.239   0.243
15407SOL    HW248054  14.161   3.316   0.258
15408SOL     OW48055   9.314   8.198  10.901
15408SOL    HW148056   9.365   8.148  10.837
15408SOL    HW248057   9.230   8.151  10.907
15409SOL     OW48058   7.286   6.193   1.577
15409SOL    HW148059   7.236   6.143   1.642
15409SOL    HW248060   7.297   6.279   1.618
15410SOL     OW48061   8.920  12.367   3.806
15410SOL    HW148062   8.840  12.337   3.763
15410SOL    HW248063   8.891  12.438   3.863
15411SOL     OW48064   8.756   4.747   8.668
15411SOL    HW148065   8.825   4.808   8.695
15411SOL    HW248066   8.746   4.762   8.574
15412SOL     OW48067   8.028   0.891   7.713
15412SOL    HW148068   8.063   0.820   7.659
15412SOL    HW248069   7.997   0.849   7.793
15413SOL     OW48070  13.231   9.720  11.161
15413SOL    HW148071  13.173   9.789  11.194
15413SOL    HW248072  13.174   9.644  11.149
15414SOL     OW48073   1.536   1.557  14.145
15414SOL    HW148074   1.461   1.540  14.201
15414SOL    HW248075   1.611   1.526  14.196
15415SOL     OW48076   5.996  12.716   4.793
15415SOL    HW148077   5.924  12.747   4.738
15415SOL    HW248078   6.055  12.791   4.798
15416SOL     OW48079   9.198  11.271   8.619
15416SOL    HW148080   9.197  11.274   8.714
15416SOL    HW248081   9.231  11.184   8.598
15417SOL     OW48082   1.203   2.989   9.638
15417SOL    HW148083   1.228   2.935   9.563
15417SOL    HW248084   1.116   2.956   9.663
15418SOL     OW48085   8.326   8.496  14.013
15418SOL    HW148086   8.303   8.537  14.096
15418SOL    HW248087   8.287   8.409  14.017
15419SOL     OW48088  10.565   4.499   0.294
15419SOL    HW148089  10.616   4.420   0.315
15419SOL    HW248090  10.530   4.527   0.379
15420SOL     OW48091  11.889   6.298  12.581
15420SOL    HW148092  11.969   6.270  12.626
15420SOL    HW248093  11.883   6.392  12.600
15421SOL     OW48094   8.644   5.722  11.737
15421SOL    HW148095   8.668   5.637  11.700
15421SOL    HW248096   8.724   5.753  11.780
15422SOL     OW48097   2.789   0.119   5.511
15422SOL    HW148098   2.725   0.048   5.514
15422SOL    HW248099   2.754   0.185   5.571
15423SOL     OW48100   7.633   8.158   8.943
15423SOL    HW148101   7.575   8.198   8.877
15423SOL    HW248102   7.573   8.129   9.012
15424SOL     OW48103   0.987  12.926   5.512
15424SOL    HW148104   1.045  13.002   5.518
15424SOL    HW248105   0.905  12.962   5.477
15425SOL     OW48106   3.397   3.565   5.580
15425SOL    HW148107   3.305   3.588   5.566
15425SOL    HW248108   3.420   3.608   5.663
15426SOL     OW48109   4.353   8.061  11.128
15426SOL    HW148110   4.319   7.983  11.170
15426SOL    HW248111   4.314   8.061  11.040
15427SOL     OW48112   8.835   4.665   6.023
15427SOL    HW148113   8.808   4.581   6.061
15427SOL    HW248114   8.922   4.648   5.986
15428SOL     OW48115   3.814  10.379  12.007
15428SOL    HW148116   3.733  10.406  11.964
15428SOL    HW248117   3.862  10.461  12.022
15429SOL     OW48118   8.379   8.967  13.580
15429SOL    HW148119   8.439   8.947  13.508
15429SOL    HW248120   8.436   8.996  13.651
15430SOL     OW48121   4.488   8.553  14.477
15430SOL    HW148122   4.407   8.600  14.459
15430SOL    HW248123   4.538   8.612  14.533
15431SOL     OW48124   5.673   6.062  13.767
15431SOL    HW148125   5.614   6.061  13.692
15431SOL    HW248126   5.619   6.089  13.841
15432SOL     OW48127   6.754   7.606   3.858
15432SOL    HW148128   6.715   7.520   3.871
15432SOL    HW248129   6.834   7.605   3.909
15433SOL     OW48130   1.094   9.165   1.382
15433SOL    HW148131   1.076   9.109   1.457
15433SOL    HW248132   1.037   9.241   1.395
15434SOL     OW48133   2.621   0.771   3.204
15434SOL    HW148134   2.592   0.684   3.175
15434SOL    HW248135   2.646   0.758   3.295
15435SOL     OW48136   3.030   4.425   5.887
15435SOL    HW148137   2.946   4.448   5.927
15435SOL    HW248138   3.065   4.509   5.856
15436SOL     OW48139   8.346  14.308   7.830
15436SOL    HW148140   8.398  14.385   7.854
15436SOL    HW248141   8.397  14.265   7.761
15437SOL     OW48142   5.058  10.045  11.109
15437SOL    HW148143   5.122  10.026  11.040
15437SOL    HW248144   4.973  10.031  11.068
15438SOL     OW48145  12.728   9.270   8.520
15438SOL    HW148146  12.759   9.348   8.567
15438SOL    HW248147  12.790   9.201   8.545
15439SOL     OW48148   5.426   9.036   0.262
15439SOL    HW148149   5.436   9.103   0.194
15439SOL    HW248150   5.357   9.069   0.319
15440SOL     OW48151   8.611  10.485  11.050
15440SOL    HW148152   8.682  10.494  11.114
15440SOL    HW248153   8.614  10.394  11.023
15441SOL     OW48154   3.291  13.252   7.342
15441SOL    HW148155   3.299  13.163   7.377
15441SOL    HW248156   3.308  13.309   7.416
15442SOL     OW48157   4.277   7.598   4.723
15442SOL    HW148158   4.330   7.632   4.795
15442SOL    HW248159   4.206   7.662   4.713
15443SOL     OW48160   7.889   7.583   8.462
15443SOL    HW148161   7.946   7.641   8.411
15443SOL    HW248162   7.860   7.517   8.399
15444SOL     OW48163   3.659   8.741  13.427
15444SOL    HW148164   3.624   8.827  13.405
15444SOL    HW248165   3.587   8.696  13.471
15445SOL     OW48166   1.184  13.269  11.235
15445SOL    HW148167   1.132  13.281  11.314
15445SOL    HW248168   1.200  13.358  11.202
15446SOL     OW48169   5.208   3.484   9.200
15446SOL    HW148170   5.201   3.511   9.108
15446SOL    HW248171   5.134   3.425   9.213
15447SOL     OW48172  10.062  14.403  10.308
15447SOL    HW148173  10.104  14.435  10.388
15447SOL    HW248174  10.073  14.474  10.245
15448SOL     OW48175   7.164  10.236  12.887
15448SOL    HW148176   7.108  10.313  12.899
15448SOL    HW248177   7.238  10.250  12.946
15449SOL     OW48178   6.069  12.235   7.380
15449SOL    HW148179   6.107  12.158   7.422
15449SOL    HW248180   6.086  12.307   7.440
15450SOL     OW48181   1.925   7.463   9.490
15450SOL    HW148182   1.991   7.408   9.449
15450SOL    HW248183   1.973   7.515   9.554
15451SOL     OW48184   1.312   2.813   2.005
15451SOL    HW148185   1.350   2.862   1.933
15451SOL    HW248186   1.217   2.821   1.993
15452SOL     OW48187  11.142   4.674   1.982
15452SOL    HW148188  11.114   4.765   1.973
15452SOL    HW248189  11.072   4.632   2.030
15453SOL     OW48190   9.235   7.264   6.058
15453SOL    HW148191   9.173   7.315   6.110
15453SOL    HW248192   9.288   7.218   6.122
15454SOL     OW48193  11.790   2.445  12.009
15454SOL    HW148194  11.776   2.367  12.062
15454SOL    HW248195  11.749   2.516  12.059
15455SOL     OW48196  12.112   3.811  11.088
15455SOL    HW148197  12.172   3.774  11.154
15455SOL    HW248198  12.169   3.833  11.015
15456SOL     OW48199   4.655   8.725   0.087
15456SOL    HW148200   4.579   8.686   0.045
15456SOL    HW248201   4.622   8.808   0.123
15457SOL     OW48202   7.835  13.385   4.939
15457SOL    HW148203   7.789  13.335   5.006
15457SOL    HW248204   7.918  13.409   4.980
15458SOL     OW48205  13.553   8.352  14.462
15458SOL    HW148206  13.553   8.270  14.512
15458SOL    HW248207  13.611   8.334  14.388
15459SOL     OW48208   8.994   1.528   1.162
15459SOL    HW148209   8.935   1.588   1.117
15459SOL    HW248210   9.072   1.581   1.180
15460SOL     OW48211   6.410   1.902   2.168
15460SOL    HW148212   6.329   1.921   2.121
15460SOL    HW248213   6.466   1.978   2.151
15461SOL     OW48214  14.371   0.788   6.785
15461SOL    HW148215  14.423   0.757   6.711
15461SOL    HW248216  14.399   0.879   6.798
15462SOL     OW48217  12.943   5.625   9.809
15462SOL    HW148218  12.941   5.698   9.871
15462SOL    HW248219  13.018   5.573   9.835
15463SOL     OW48220   9.547   5.853   8.015
15463SOL    HW148221   9.623   5.908   8.031
15463SOL    HW248222   9.482   5.912   7.975
15464SOL     OW48223  12.982   9.918  11.593
15464SOL    HW148224  12.955  10.008  11.577
15464SOL    HW248225  12.905   9.865  11.569
15465SOL     OW48226   0.781   7.748  10.729
15465SOL    HW148227   0.693   7.759  10.692
15465SOL    HW248228   0.772   7.676  10.791
15466SOL     OW48229   1.024  13.936   2.392
15466SOL    HW148230   1.106  13.905   2.430
15466SOL    HW248231   1.039  13.934   2.297
15467SOL     OW48232   9.477   6.618   7.511
15467SOL    HW148233   9.487   6.527   7.538
15467SOL    HW248234   9.504   6.669   7.587
15468SOL     OW48235   8.873  11.857   0.351
15468SOL    HW148236   8.856  11.840   0.444
15468SOL    HW248237   8.848  11.949   0.339
15469SOL     OW48238  14.155   4.501   0.491
15469SOL    HW148239  14.104   4.425   0.463
15469SOL    HW248240  14.116   4.575   0.444
15470SOL     OW48241   8.242  12.349   8.628
15470SOL    HW148242   8.325  12.303   8.637
15470SOL    HW248243   8.209  12.358   8.717
15471SOL     OW48244   4.779  11.655   0.129
15471SOL    HW148245   4.871  11.669   0.147
15471SOL    HW248246   4.769  11.560   0.127
15472SOL     OW48247   6.443  13.270  12.120
15472SOL    HW148248   6.492  13.332  12.066
15472SOL    HW248249   6.487  13.272  12.205
15473SOL     OW48250  12.784   3.581   7.491
15473SOL    HW148251  12.821   3.581   7.403
15473SOL    HW248252  12.767   3.489   7.510
15474SOL     OW48253  12.655  13.277   7.406
15474SOL    HW148254  12.743  13.311   7.388
15474SOL    HW248255  12.607  13.353   7.438
15475SOL     OW48256   3.772   2.953   4.996
15475SOL    HW148257   3.710   2.932   5.067
15475SOL    HW248258   3.803   3.041   5.017
15476SOL     OW48259   5.160  11.559   8.809
15476SOL    HW148260   5.108  11.485   8.841
15476SOL    HW248261   5.208  11.590   8.885
15477SOL     OW48262   6.072   7.415   6.856
15477SOL    HW148263   6.092   7.480   6.924
15477SOL    HW248264   6.142   7.425   6.792
15478SOL     OW48265   4.598  10.677   0.256
15478SOL    HW148266   4.549  10.656   0.177
15478SOL    HW248267   4.635  10.764   0.238
15479SOL     OW48268  13.391   6.401  11.434
15479SOL    HW148269  13.355   6.487  11.457
15479SOL    HW248270  13.369   6.389  11.342
15480SOL     OW48271   2.787  11.147   7.559
15480SOL    HW148272   2.764  11.174   7.470
15480SOL    HW248273   2.762  11.055   7.563
15481SOL     OW48274   2.538   1.873   4.241
15481SOL    HW148275   2.479   1.925   4.296
15481SOL    HW248276   2.522   1.906   4.152
15482SOL     OW48277   6.364   2.564   9.795
15482SOL    HW148278   6.342   2.657   9.800
15482SOL    HW248279   6.317   2.523   9.868
15483SOL     OW48280  11.627  12.288   2.342
15483SOL    HW148281  11.597  12.224   2.407
15483SOL    HW248282  11.597  12.252   2.258
15484SOL     OW48283  12.921  13.088  10.723
15484SOL    HW148284  12.891  13.005  10.685
15484SOL    HW248285  12.889  13.155  10.663
15485SOL     OW48286  13.984   9.624   2.511
15485SOL    HW148287  13.932   9.692   2.555
15485SOL    HW248288  13.967   9.637   2.418
15486SOL     OW48289   2.162  14.215   9.694
15486SOL    HW148290   2.075  14.236   9.729
15486SOL    HW248291   2.166  14.120   9.697
15487SOL     OW48292   8.009   2.520   9.286
15487SOL    HW148293   7.998   2.444   9.342
15487SOL    HW248294   8.083   2.498   9.229
15488SOL     OW48295   7.095  14.205  11.852
15488SOL    HW148296   7.078  14.231  11.943
15488SOL    HW248297   7.026  14.249  11.802
15489SOL     OW48298   8.510   2.637  12.548
15489SOL    HW148299   8.558   2.556  12.528
15489SOL    HW248300   8.574   2.692  12.593
15490SOL     OW48301   5.704   1.107  11.642
15490SOL    HW148302   5.617   1.082  11.672
15490SOL    HW248303   5.690   1.187  11.591
15491SOL     OW48304   9.127   0.186   8.088
15491SOL    HW148305   9.133   0.165   7.995
15491SOL    HW248306   9.048   0.239   8.096
15492SOL     OW48307   9.976   2.451   8.680
15492SOL    HW148308  10.011   2.538   8.660
15492SOL    HW248309  10.021   2.425   8.760
15493SOL     OW48310  11.653   5.736  10.590
15493SOL    HW148311  11.739   5.730  10.547
15493SOL    HW248312  11.606   5.659  10.559
15494SOL     OW48313   4.303   1.688  13.112
15494SOL    HW148314   4.340   1.766  13.153
15494SOL    HW248315   4.362   1.669  13.039
15495SOL     OW48316   2.246  11.618   5.226
15495SOL    HW148317   2.281  11.536   5.191
15495SOL    HW248318   2.249  11.607   5.321
15496SOL     OW48319   2.365   2.777   2.650
15496SOL    HW148320   2.317   2.849   2.690
15496SOL    HW248321   2.438   2.760   2.710
15497SOL     OW48322   5.792   9.322  12.887
15497SOL    HW148323   5.715   9.271  12.863
15497SOL    HW248324   5.830   9.350  12.803
15498SOL     OW48325   5.348  10.648   2.399
15498SOL    HW148326   5.384  10.568   2.362
15498SOL    HW248327   5.354  10.712   2.328
15499SOL     OW48328  10.482   1.897   6.888
15499SOL    HW148329  10.413   1.914   6.825
15499SOL    HW248330  10.472   1.965   6.955
15500SOL     OW48331  10.712   4.810   5.032
15500SOL    HW148332  10.771   4.877   4.998
15500SOL    HW248333  10.714   4.741   4.966
15501SOL     OW48334  10.382  10.224  11.526
15501SOL    HW148335  10.398  10.255  11.615
15501SOL    HW248336  10.298  10.263  11.501
15502SOL     OW48337  10.847   3.877   5.054
15502SOL    HW148338  10.905   3.952   5.040
15502SOL    HW248339  10.878   3.811   4.992
15503SOL     OW48340   6.550   3.448  12.382
15503SOL    HW148341   6.470   3.400  12.401
15503SOL    HW248342   6.541   3.530  12.430
15504SOL     OW48343  10.546   1.982  11.951
15504SOL    HW148344  10.618   2.045  11.954
15504SOL    HW248345  10.562   1.931  11.872
15505SOL     OW48346   8.207  13.774   4.707
15505SOL    HW148347   8.273  13.843   4.696
15505SOL    HW248348   8.170  13.762   4.620
15506SOL     OW48349   3.868  13.923   1.289
15506SOL    HW148350   3.950  13.904   1.244
15506SOL    HW248351   3.885  14.002   1.339
15507SOL     OW48352  10.120   4.253  12.005
15507SOL    HW148353  10.190   4.251  11.940
15507SOL    HW248354  10.163   4.233  12.088
15508SOL     OW48355  10.025   7.925   2.372
15508SOL    HW148356  10.100   7.921   2.312
15508SOL    HW248357  10.011   7.834   2.399
15509SOL     OW48358   1.194   1.260   2.178
15509SOL    HW148359   1.157   1.187   2.229
15509SOL    HW248360   1.251   1.305   2.240
15510SOL     OW48361   1.139   8.716   0.579
15510SOL    HW148362   1.186   8.751   0.654
15510SOL    HW248363   1.202   8.721   0.506
15511SOL     OW48364   1.214  13.854   7.987
15511SOL    HW148365   1.171  13.875   8.070
15511SOL    HW248366   1.220  13.938   7.941
15512SOL     OW48367   8.102  11.370   4.496
15512SOL    HW148368   8.127  11.301   4.558
15512SOL    HW248369   8.185  11.403   4.462
15513SOL     OW48370   9.555   2.521   9.919
15513SOL    HW148371   9.529   2.483   9.834
15513SOL    HW248372   9.530   2.455   9.983
15514SOL     OW48373   7.747   3.022   6.845
15514SOL    HW148374   7.785   3.110   6.839
15514SOL    HW248375   7.820   2.963   6.828
15515SOL     OW48376   9.379   0.505   4.278
15515SOL    HW148377   9.366   0.557   4.199
15515SOL    HW248378   9.473   0.489   4.281
15516SOL     OW48379   8.818   2.507   7.516
15516SOL    HW148380   8.825   2.472   7.605
15516SOL    HW248381   8.725   2.500   7.495
15517SOL     OW48382   7.490   8.308   7.111
15517SOL    HW148383   7.542   8.246   7.060
15517SOL    HW248384   7.458   8.371   7.047
15518SOL     OW48385  10.854  10.800   3.805
15518SOL    HW148386  10.949  10.790   3.797
15518SOL    HW248387  10.831  10.743   3.879
15519SOL     OW48388  13.070   8.571   0.548
15519SOL    HW148389  12.998   8.570   0.611
15519SOL    HW248390  13.139   8.518   0.589
15520SOL     OW48391   2.721  10.105   4.540
15520SOL    HW148392   2.766  10.033   4.585
15520SOL    HW248393   2.766  10.112   4.456
15521SOL     OW48394  11.496   1.138  13.125
15521SOL    HW148395  11.494   1.234  13.119
15521SOL    HW248396  11.588   1.116  13.107
15522SOL     OW48397   6.244  10.323  13.410
15522SOL    HW148398   6.337  10.303  13.423
15522SOL    HW248399   6.244  10.392  13.344
15523SOL     OW48400   5.925   4.562   4.032
15523SOL    HW148401   5.835   4.554   4.000
15523SOL    HW248402   5.944   4.476   4.069
15524SOL     OW48403  11.398   4.770   3.583
15524SOL    HW148404  11.359   4.772   3.670
15524SOL    HW248405  11.357   4.843   3.537
15525SOL     OW48406   9.930  12.852  12.205
15525SOL    HW148407   9.952  12.922  12.144
15525SOL    HW248408   9.840  12.828  12.182
15526SOL     OW48409   9.915   9.541  14.643
15526SOL    HW148410   9.848   9.609  14.644
15526SOL    HW248411   9.938   9.529  14.735
15527SOL     OW48412  13.307   8.705   4.275
15527SOL    HW148413  13.400   8.725   4.281
15527SOL    HW248414  13.268   8.784   4.237
15528SOL     OW48415   9.876  12.818  10.943
15528SOL    HW148416   9.818  12.886  10.979
15528SOL    HW248417   9.869  12.830  10.848
15529SOL     OW48418   5.806   8.781  13.922
15529SOL    HW148419   5.802   8.751  13.831
15529SOL    HW248420   5.860   8.716  13.967
15530SOL     OW48421  11.554   2.621  10.138
15530SOL    HW148422  11.550   2.543  10.082
15530SOL    HW248423  11.530   2.693  10.081
15531SOL     OW48424   1.750   3.863   4.203
15531SOL    HW148425   1.745   3.815   4.285
15531SOL    HW248426   1.800   3.806   4.145
15532SOL     OW48427   2.589  13.029   7.968
15532SOL    HW148428   2.604  12.952   7.913
15532SOL    HW248429   2.506  13.065   7.937
15533SOL     OW48430  10.789   0.658   5.983
15533SOL    HW148431  10.716   0.714   5.954
15533SOL    HW248432  10.760   0.569   5.963
15534SOL     OW48433   3.222   9.198   2.467
15534SOL    HW148434   3.187   9.267   2.524
15534SOL    HW248435   3.145   9.148   2.440
15535SOL     OW48436   6.301   7.317  11.952
15535SOL    HW148437   6.309   7.227  11.919
15535SOL    HW248438   6.287   7.370  11.874
15536SOL     OW48439   1.961   8.294   5.407
15536SOL    HW148440   1.989   8.272   5.495
15536SOL    HW248441   2.016   8.369   5.382
15537SOL     OW48442  14.024  13.595  11.915
15537SOL    HW148443  13.954  13.648  11.878
15537SOL    HW248444  13.978  13.519  11.952
15538SOL     OW48445   7.138  11.548   3.289
15538SOL    HW148446   7.088  11.490   3.347
15538SOL    HW248447   7.219  11.565   3.336
15539SOL     OW48448   5.779   0.948   6.075
15539SOL    HW148449   5.804   0.931   5.984
15539SOL    HW248450   5.698   0.999   6.069
15540SOL     OW48451   0.394   9.543  12.061
15540SOL    HW148452   0.406   9.484  11.987
15540SOL    HW248453   0.329   9.500  12.116
15541SOL     OW48454  13.506   5.604  12.932
15541SOL    HW148455  13.538   5.684  12.973
15541SOL    HW248456  13.522   5.616  12.839
15542SOL     OW48457   7.893  13.151   1.797
15542SOL    HW148458   7.849  13.226   1.758
15542SOL    HW248459   7.884  13.164   1.892
15543SOL     OW48460  14.027   0.419  11.228
15543SOL    HW148461  13.973   0.374  11.163
15543SOL    HW248462  14.047   0.504  11.189
15544SOL     OW48463  13.650   6.402   5.941
15544SOL    HW148464  13.718   6.446   5.890
15544SOL    HW248465  13.693   6.375   6.022
15545SOL     OW48466   9.980   4.783  14.592
15545SOL    HW148467   9.912   4.754  14.531
15545SOL    HW248468   9.984   4.878  14.580
15546SOL     OW48469  13.221   6.599   4.336
15546SOL    HW148470  13.184   6.670   4.283
15546SOL    HW248471  13.221   6.523   4.278
15547SOL     OW48472  10.828  11.907   6.982
15547SOL    HW148473  10.820  11.989   6.934
15547SOL    HW248474  10.742  11.894   7.023
15548SOL     OW48475   4.665   1.011   1.481
15548SOL    HW148476   4.593   1.073   1.493
15548SOL    HW248477   4.744   1.064   1.496
15549SOL     OW48478   5.753   0.256   3.404
15549SOL    HW148479   5.699   0.195   3.354
15549SOL    HW248480   5.838   0.214   3.409
15550SOL     OW48481  11.954   8.671   7.563
15550SOL    HW148482  11.916   8.586   7.583
15550SOL    HW248483  11.946   8.721   7.644
15551SOL     OW48484   9.302  14.783   2.514
15551SOL    HW148485   9.360  14.839   2.565
15551SOL    HW248486   9.295  14.827   2.429
15552SOL     OW48487   7.737   5.556   7.027
15552SOL    HW148488   7.802   5.621   7.001
15552SOL    HW248489   7.783   5.499   7.089
15553SOL     OW48490  14.233   4.308  11.825
15553SOL    HW148491  14.266   4.299  11.914
15553SOL    HW248492  14.166   4.240  11.818
15554SOL     OW48493   1.655   2.844   6.152
15554SOL    HW148494   1.679   2.937   6.154
15554SOL    HW248495   1.660   2.816   6.243
15555SOL     OW48496   4.386   3.571  13.240
15555SOL    HW148497   4.355   3.643  13.296
15555SOL    HW248498   4.440   3.614  13.174
15556SOL     OW48499   5.038   6.762  11.785
15556SOL    HW148500   5.027   6.826  11.715
15556SOL    HW248501   5.035   6.813  11.865
15557SOL     OW48502   1.880   5.708   5.564
15557SOL    HW148503   1.945   5.686   5.630
15557SOL    HW248504   1.799   5.719   5.614
15558SOL     OW48505   0.086   2.502  11.976
15558SOL    HW148506   0.046   2.426  11.934
15558SOL    HW248507   0.180   2.493  11.957
15559SOL     OW48508   7.733  13.396   1.201
15559SOL    HW148509   7.819  13.435   1.195
15559SOL    HW248510   7.741  13.330   1.271
15560SOL     OW48511  13.866   1.434  10.024
15560SOL    HW148512  13.778   1.422   9.987
15560SOL    HW248513  13.893   1.347  10.051
15561SOL     OW48514   2.166  11.549  11.531
15561SOL    HW148515   2.246  11.557  11.582
15561SOL    HW248516   2.175  11.615  11.462
15562SOL     OW48517   9.588   8.864   8.620
15562SOL    HW148518   9.521   8.915   8.573
15562SOL    HW248519   9.539   8.819   8.689
15563SOL     OW48520   5.957   7.346  13.283
15563SOL    HW148521   5.862   7.343  13.275
15563SOL    HW248522   5.975   7.313  13.371
15564SOL     OW48523   8.372  12.174   4.331
15564SOL    HW148524   8.327  12.114   4.390
15564SOL    HW248525   8.464  12.167   4.356
15565SOL     OW48526   4.144   1.089   7.752
15565SOL    HW148527   4.098   1.039   7.685
15565SOL    HW248528   4.125   1.044   7.834
15566SOL     OW48529  13.579   4.965   7.367
15566SOL    HW148530  13.617   4.884   7.334
15566SOL    HW248531  13.486   4.959   7.344
15567SOL     OW48532   1.183  10.419   6.454
15567SOL    HW148533   1.199  10.417   6.549
15567SOL    HW248534   1.253  10.364   6.418
15568SOL     OW48535   7.533   8.593   8.085
15568SOL    HW148536   7.616   8.640   8.098
15568SOL    HW248537   7.548   8.538   8.008
15569SOL     OW48538   9.635   5.195   1.132
15569SOL    HW148539   9.720   5.212   1.172
15569SOL    HW248540   9.651   5.199   1.038
15570SOL     OW48541   2.313  11.905   7.023
15570SOL    HW148542   2.396  11.924   6.979
15570SOL    HW248543   2.336  11.888   7.114
15571SOL     OW48544   1.482   8.705   0.946
15571SOL    HW148545   1.522   8.769   0.887
15571SOL    HW248546   1.551   8.686   1.010
15572SOL     OW48547   2.618  13.595   1.074
15572SOL    HW148548   2.640  13.673   1.024
15572SOL    HW248549   2.625  13.622   1.166
15573SOL     OW48550   4.397   3.951  13.805
15573SOL    HW148551   4.442   4.004  13.871
15573SOL    HW248552   4.326   3.907  13.853
15574SOL     OW48553   2.089   1.707   9.906
15574SOL    HW148554   1.995   1.703   9.893
15574SOL    HW248555   2.109   1.801   9.911
15575SOL     OW48556   2.281   2.792  10.435
15575SOL    HW148557   2.310   2.702  10.451
15575SOL    HW248558   2.361   2.839  10.412
15576SOL     OW48559  10.747  12.515   4.711
15576SOL    HW148560  10.656  12.484   4.708
15576SOL    HW248561  10.798  12.442   4.676
15577SOL     OW48562   8.163  14.616  13.144
15577SOL    HW148563   8.182  14.595  13.235
15577SOL    HW248564   8.227  14.565  13.093
15578SOL     OW48565   1.888  14.835   0.731
15578SOL    HW148566   1.807   0.008   0.736
15578SOL    HW248567   1.861  14.743   0.730
15579SOL     OW48568  14.476   0.531  10.465
15579SOL    HW148569  14.522   0.508  10.384
15579SOL    HW248570  14.524   0.485  10.534
15580SOL     OW48571  14.649   0.641   0.585
15580SOL    HW148572  14.675   0.722   0.540
15580SOL    HW248573  14.681   0.653   0.675
15581SOL     OW48574   3.912   5.773  10.281
15581SOL    HW148575   3.885   5.862  10.257
15581SOL    HW248576   3.862   5.717  10.221
15582SOL     OW48577   8.351   5.802   8.328
15582SOL    HW148578   8.266   5.760   8.339
15582SOL    HW248579   8.330   5.894   8.309
15583SOL     OW48580  14.217  11.524  11.410
15583SOL    HW148581  14.278  11.451  11.423
15583SOL    HW248582  14.214  11.568  11.495
15584SOL     OW48583  10.632   8.604   4.783
15584SOL    HW148584  10.639   8.591   4.688
15584SOL    HW248585  10.539   8.623   4.798
15585SOL     OW48586  14.714  12.203   0.820
15585SOL    HW148587  14.762  12.286   0.820
15585SOL    HW248588  14.692  12.189   0.912
15586SOL     OW48589   9.409   7.771   2.434
15586SOL    HW148590   9.466   7.747   2.360
15586SOL    HW248591   9.336   7.817   2.393
15587SOL     OW48592   7.694  10.428   3.364
15587SOL    HW148593   7.691  10.335   3.339
15587SOL    HW248594   7.654  10.430   3.451
15588SOL     OW48595  10.445   7.088   9.573
15588SOL    HW148596  10.482   7.115   9.657
15588SOL    HW248597  10.520   7.064   9.519
15589SOL     OW48598  13.662   0.143   7.623
15589SOL    HW148599  13.572   0.134   7.654
15589SOL    HW248600  13.715   0.114   7.696
15590SOL     OW48601   2.603  14.650   9.582
15590SOL    HW148602   2.633  14.560   9.574
15590SOL    HW248603   2.508  14.645   9.584
15591SOL     OW48604  10.213  10.673   3.768
15591SOL    HW148605  10.185  10.624   3.691
15591SOL    HW248606  10.222  10.763   3.737
15592SOL     OW48607  11.278   6.510   0.709
15592SOL    HW148608  11.261   6.416   0.711
15592SOL    HW248609  11.353   6.520   0.650
15593SOL     OW48610   0.401   0.790  11.080
15593SOL    HW148611   0.404   0.762  11.171
15593SOL    HW248612   0.485   0.763  11.043
15594SOL     OW48613  12.267   2.042   3.704
15594SOL    HW148614  12.356   2.056   3.671
15594SOL    HW248615  12.210   2.065   3.630
15595SOL     OW48616   2.132   8.261   5.949
15595SOL    HW148617   2.120   8.245   5.855
15595SOL    HW248618   2.158   8.176   5.985
15596SOL     OW48619  10.983   5.148  12.988
15596SOL    HW148620  10.969   5.066  12.940
15596SOL    HW248621  10.942   5.134  13.073
15597SOL     OW48622   8.089  12.289   4.746
15597SOL    HW148623   8.159  12.349   4.721
15597SOL    HW248624   8.019  12.346   4.777
15598SOL     OW48625   0.294   8.462   1.104
15598SOL    HW148626   0.335   8.456   1.018
15598SOL    HW248627   0.218   8.404   1.099
15599SOL     OW48628  11.725  14.288   2.666
15599SOL    HW148629  11.657  14.227   2.640
15599SOL    HW248630  11.681  14.347   2.727
15600SOL     OW48631   2.709   3.236   8.468
15600SOL    HW148632   2.629   3.269   8.510
15600SOL    HW248633   2.752   3.184   8.536
15601SOL     OW48634   1.614   8.316   1.197
15601SOL    HW148635   1.522   8.333   1.216
15601SOL    HW248636   1.657   8.315   1.282
15602SOL     OW48637   1.680   1.890   3.092
15602SOL    HW148638   1.729   1.848   3.022
15602SOL    HW248639   1.745   1.906   3.161
15603SOL     OW48640   4.701   6.100   1.561
15603SOL    HW148641   4.657   6.131   1.482
15603SOL    HW248642   4.634   6.052   1.609
15604SOL     OW48643   9.880   7.381  10.319
15604SOL    HW148644   9.967   7.386  10.357
15604SOL    HW248645   9.823   7.429  10.380
15605SOL     OW48646  12.964   0.100   2.531
15605SOL    HW148647  12.918   0.181   2.507
15605SOL    HW248648  12.901   0.053   2.585
15606SOL     OW48649   2.692   9.225   5.649
15606SOL    HW148650   2.642   9.146   5.633
15606SOL    HW248651   2.628   9.289   5.679
15607SOL     OW48652  11.974   7.953   1.870
15607SOL    HW148653  12.005   8.011   1.801
15607SOL    HW248654  12.050   7.939   1.926
15608SOL     OW48655  14.079   1.951   5.982
15608SOL    HW148656  14.166   1.920   5.960
15608SOL    HW248657  14.064   1.920   6.071
15609SOL     OW48658   7.357   9.671   8.498
15609SOL    HW148659   7.329   9.640   8.584
15609SOL    HW248660   7.442   9.629   8.484
15610SOL     OW48661   5.898   8.313   0.380
15610SOL    HW148662   5.871   8.348   0.465
15610SOL    HW248663   5.860   8.226   0.376
15611SOL     OW48664   1.311   4.248   6.243
15611SOL    HW148665   1.311   4.305   6.320
15611SOL    HW248666   1.401   4.251   6.212
15612SOL     OW48667   5.420  10.452   2.199
15612SOL    HW148668   5.345  10.417   2.247
15612SOL    HW248669   5.466  10.374   2.167
15613SOL     OW48670  14.418   2.951   0.256
15613SOL    HW148671  14.449   2.868   0.294
15613SOL    HW248672  14.343   2.975   0.311
15614SOL     OW48673   1.874   4.086  12.527
15614SOL    HW148674   1.909   4.145  12.460
15614SOL    HW248675   1.926   4.104  12.604
15615SOL     OW48676   1.259  13.870   8.809
15615SOL    HW148677   1.266  13.790   8.862
15615SOL    HW248678   1.169  13.869   8.776
15616SOL     OW48679  10.486   9.991  12.187
15616SOL    HW148680  10.504  10.084  12.174
15616SOL    HW248681  10.395   9.981  12.156
15617SOL     OW48682   6.540  14.246   0.431
15617SOL    HW148683   6.617  14.207   0.389
15617SOL    HW248684   6.469  14.185   0.412
15618SOL     OW48685   4.708  13.687  10.584
15618SOL    HW148686   4.747  13.624  10.644
15618SOL    HW248687   4.624  13.648  10.559
15619SOL     OW48688   0.491  11.481   6.023
15619SOL    HW148689   0.489  11.455   5.931
15619SOL    HW248690   0.584  11.494   6.042
15620SOL     OW48691   7.870   9.486  10.185
15620SOL    HW148692   7.813   9.559  10.160
15620SOL    HW248693   7.865   9.484  10.281
15621SOL     OW48694  14.550  12.735  14.559
15621SOL    HW148695  14.609  12.806  14.533
15621SOL    HW248696  14.467  12.757  14.518
15622SOL     OW48697   9.550  13.544   5.347
15622SOL    HW148698   9.633  13.514   5.383
15622SOL    HW248699   9.537  13.492   5.268
15623SOL     OW48700  10.706  12.652   5.606
15623SOL    HW148701  10.785  12.669   5.555
15623SOL    HW248702  10.737  12.600   5.681
15624SOL     OW48703   0.227   0.018   3.055
15624SOL    HW148704   0.172   0.032   2.978
15624SOL    HW248705   0.286  14.823   3.030
15625SOL     OW48706   2.901  11.439   2.314
15625SOL    HW148707   2.904  11.431   2.410
15625SOL    HW248708   2.993  11.447   2.289
15626SOL     OW48709   9.243   2.040  12.274
15626SOL    HW148710   9.275   2.092  12.348
15626SOL    HW248711   9.181   1.979  12.313
15627SOL     OW48712   7.090  14.728  12.556
15627SOL    HW148713   7.105  14.794  12.623
15627SOL    HW248714   7.006  14.688  12.580
15628SOL     OW48715  14.432   5.678  13.333
15628SOL    HW148716  14.427   5.719  13.420
15628SOL    HW248717  14.510   5.623  13.337
15629SOL     OW48718  10.813   6.928   6.550
15629SOL    HW148719  10.784   7.005   6.598
15629SOL    HW248720  10.855   6.873   6.616
15630SOL     OW48721   9.435   2.665   4.333
15630SOL    HW148722   9.364   2.601   4.325
15630SOL    HW248723   9.501   2.619   4.385
15631SOL     OW48724   9.074   8.733  11.860
15631SOL    HW148725   9.152   8.713  11.808
15631SOL    HW248726   9.046   8.648  11.894
15632SOL     OW48727   3.869   4.676  11.360
15632SOL    HW148728   3.838   4.679  11.450
15632SOL    HW248729   3.923   4.754  11.351
15633SOL     OW48730   0.715  12.764  11.338
15633SOL    HW148731   0.736  12.769  11.244
15633SOL    HW248732   0.620  12.774  11.342
15634SOL     OW48733  12.073   1.986   9.780
15634SOL    HW148734  12.063   1.895   9.806
15634SOL    HW248735  12.026   2.035   9.847
15635SOL     OW48736  10.481  13.376  12.417
15635SOL    HW148737  10.565  13.413  12.445
15635SOL    HW248738  10.435  13.356  12.499
15636SOL     OW48739   2.488  14.609   0.958
15636SOL    HW148740   2.542  14.554   1.014
15636SOL    HW248741   2.398  14.590   0.984
15637SOL     OW48742  14.436  11.730   3.994
15637SOL    HW148743  14.485  11.649   4.006
15637SOL    HW248744  14.401  11.751   4.081
15638SOL     OW48745   1.375  10.616   3.012
15638SOL    HW148746   1.380  10.677   2.938
15638SOL    HW248747   1.324  10.543   2.978
15639SOL     OW48748   8.631   5.649   8.482
15639SOL    HW148749   8.591   5.573   8.525
15639SOL    HW248750   8.570   5.721   8.496
15640SOL     OW48751  10.898   9.249   8.148
15640SOL    HW148752  10.981   9.294   8.130
15640SOL    HW248753  10.867   9.290   8.229
15641SOL     OW48754   8.877  10.840  12.459
15641SOL    HW148755   8.962  10.801  12.479
15641SOL    HW248756   8.854  10.805  12.373
15642SOL     OW48757   3.328   6.940   3.508
15642SOL    HW148758   3.318   7.016   3.564
15642SOL    HW248759   3.252   6.942   3.450
15643SOL     OW48760   4.278   9.623   6.315
15643SOL    HW148761   4.348   9.667   6.266
15643SOL    HW248762   4.286   9.658   6.404
15644SOL     OW48763   2.114   7.343   1.112
15644SOL    HW148764   2.071   7.391   1.183
15644SOL    HW248765   2.179   7.288   1.157
15645SOL     OW48766  14.339   0.010   7.512
15645SOL    HW148767  14.404   0.001   7.581
15645SOL    HW248768  14.255   0.012   7.559
15646SOL     OW48769  11.891  13.828   9.541
15646SOL    HW148770  11.854  13.750   9.582
15646SOL    HW248771  11.922  13.881   9.614
15647SOL     OW48772   6.951  13.022   6.747
15647SOL    HW148773   7.002  13.013   6.827
15647SOL    HW248774   6.896  13.099   6.762
15648SOL     OW48775   9.791   2.349  13.668
15648SOL    HW148776   9.710   2.302  13.687
15648SOL    HW248777   9.832   2.298  13.598
15649SOL     OW48778   7.836   3.206   2.407
15649SOL    HW148779   7.745   3.176   2.403
15649SOL    HW248780   7.887   3.126   2.416
15650SOL     OW48781   6.231   0.266   1.685
15650SOL    HW148782   6.253   0.194   1.745
15650SOL    HW248783   6.225   0.224   1.600
15651SOL     OW48784   6.189   5.167   4.368
15651SOL    HW148785   6.188   5.172   4.273
15651SOL    HW248786   6.241   5.242   4.396
15652SOL     OW48787   4.387   7.217  10.355
15652SOL    HW148788   4.294   7.236  10.345
15652SOL    HW248789   4.406   7.239  10.447
15653SOL     OW48790  10.761   9.593   7.211
15653SOL    HW148791  10.815   9.656   7.259
15653SOL    HW248792  10.698   9.648   7.164
15654SOL     OW48793   1.894   9.002   3.748
15654SOL    HW148794   1.901   8.947   3.670
15654SOL    HW248795   1.931   8.949   3.818
15655SOL     OW48796   3.782   3.979   3.791
15655SOL    HW148797   3.694   3.983   3.754
15655SOL    HW248798   3.769   3.994   3.885
15656SOL     OW48799   4.734   9.141   1.832
15656SOL    HW148800   4.667   9.109   1.892
15656SOL    HW248801   4.773   9.062   1.795
15657SOL     OW48802   1.079   9.818   1.849
15657SOL    HW148803   1.126   9.756   1.793
15657SOL    HW248804   0.992   9.826   1.810
15658SOL     OW48805   7.646   3.097   1.067
15658SOL    HW148806   7.609   3.130   0.985
15658SOL    HW248807   7.576   3.109   1.131
15659SOL     OW48808   6.319   8.383   3.412
15659SOL    HW148809   6.359   8.296   3.409
15659SOL    HW248810   6.297   8.403   3.321
15660SOL     OW48811  12.239   8.339  14.176
15660SOL    HW148812  12.224   8.315  14.267
15660SOL    HW248813  12.330   8.369  14.174
15661SOL     OW48814   2.314  12.338   1.685
15661SOL    HW148815   2.257  12.283   1.631
15661SOL    HW248816   2.255  12.388   1.740
15662SOL     OW48817   6.531   8.753   6.365
15662SOL    HW148818   6.527   8.662   6.395
15662SOL    HW248819   6.494   8.751   6.277
15663SOL     OW48820  12.492   2.370   9.740
15663SOL    HW148821  12.459   2.296   9.690
15663SOL    HW248822  12.563   2.406   9.687
15664SOL     OW48823  10.757   0.010   0.983
15664SOL    HW148824  10.767   0.008   1.078
15664SOL    HW248825  10.813   0.082   0.955
15665SOL     OW48826   4.982   5.777   8.005
15665SOL    HW148827   4.946   5.718   7.938
15665SOL    HW248828   4.906   5.823   8.040
15666SOL     OW48829   2.054   7.687  11.865
15666SOL    HW148830   1.973   7.666  11.818
15666SOL    HW248831   2.075   7.608  11.915
15667SOL     OW48832   7.511   0.343  10.489
15667SOL    HW148833   7.436   0.331  10.430
15667SOL    HW248834   7.539   0.434  10.474
15668SOL     OW48835   4.022  13.933  13.057
15668SOL    HW148836   3.968  13.867  13.014
15668SOL    HW248837   3.989  14.017  13.024
15669SOL     OW48838   3.376   7.889   8.842
15669SOL    HW148839   3.427   7.862   8.766
15669SOL    HW248840   3.285   7.876   8.815
15670SOL     OW48841   4.926   4.628   9.037
15670SOL    HW148842   4.893   4.549   8.995
15670SOL    HW248843   5.017   4.633   9.009
15671SOL     OW48844   7.934   6.020   1.462
15671SOL    HW148845   7.882   6.100   1.455
15671SOL    HW248846   7.936   5.984   1.373
15672SOL     OW48847   3.455   9.824  14.657
15672SOL    HW148848   3.494   9.880  14.589
15672SOL    HW248849   3.366   9.860  14.668
15673SOL     OW48850   4.250   7.948   0.082
15673SOL    HW148851   4.329   7.981   0.038
15673SOL    HW248852   4.178   7.991   0.036
15674SOL     OW48853   2.677   5.587  13.772
15674SOL    HW148854   2.635   5.519  13.824
15674SOL    HW248855   2.759   5.606  13.819
15675SOL     OW48856   9.566   2.444   4.471
15675SOL    HW148857   9.660   2.438   4.453
15675SOL    HW248858   9.560   2.452   4.566
15676SOL     OW48859   1.510  14.734  12.125
15676SOL    HW148860   1.563  14.712  12.202
15676SOL    HW248861   1.424  14.695  12.143
15677SOL     OW48862  14.266  11.658  10.953
15677SOL    HW148863  14.281  11.588  11.016
15677SOL    HW248864  14.171  11.662  10.944
15678SOL     OW48865  10.738  12.360  12.009
15678SOL    HW148866  10.760  12.282  12.060
15678SOL    HW248867  10.710  12.424  12.075
15679SOL     OW48868   6.760   3.693  11.715
15679SOL    HW148869   6.750   3.770  11.771
15679SOL    HW248870   6.833   3.645  11.752
15680SOL     OW48871  13.297   4.068   4.205
15680SOL    HW148872  13.309   4.140   4.143
15680SOL    HW248873  13.371   4.076   4.265
15681SOL     OW48874   8.584   6.168  10.822
15681SOL    HW148875   8.504   6.138  10.778
15681SOL    HW248876   8.605   6.250  10.778
15682SOL     OW48877  13.396   4.943  12.244
15682SOL    HW148878  13.459   5.015  12.246
15682SOL    HW248879  13.348   4.951  12.327
15683SOL     OW48880   5.396   1.112  13.880
15683SOL    HW148881   5.310   1.075  13.859
15683SOL    HW248882   5.378   1.172  13.953
15684SOL     OW48883   0.641   6.199   5.493
15684SOL    HW148884   0.732   6.204   5.463
15684SOL    HW248885   0.591   6.244   5.426
15685SOL     OW48886   9.290  10.389  13.092
15685SOL    HW148887   9.208  10.348  13.065
15685SOL    HW248888   9.314  10.446  13.018
15686SOL     OW48889   8.396   2.993   7.980
15686SOL    HW148890   8.379   3.082   7.950
15686SOL    HW248891   8.490   2.981   7.970
15687SOL     OW48892   4.716   5.777  12.110
15687SOL    HW148893   4.647   5.793  12.046
15687SOL    HW248894   4.751   5.864  12.129
15688SOL     OW48895  11.638   0.284   2.593
15688SOL    HW148896  11.634   0.327   2.508
15688SOL    HW248897  11.707   0.331   2.640
15689SOL     OW48898   2.866  13.520  13.076
15689SOL    HW148899   2.942  13.572  13.102
15689SOL    HW248900   2.790  13.573  13.099
15690SOL     OW48901   2.956  13.219   0.867
15690SOL    HW148902   3.003  13.175   0.938
15690SOL    HW248903   2.867  13.231   0.902
15691SOL     OW48904  11.997   1.892   7.398
15691SOL    HW148905  11.996   1.980   7.435
15691SOL    HW248906  12.026   1.837   7.471
15692SOL     OW48907   1.900   4.375  11.418
15692SOL    HW148908   1.933   4.337  11.499
15692SOL    HW248909   1.805   4.361  11.421
15693SOL     OW48910   8.135   0.481   0.538
15693SOL    HW148911   8.100   0.458   0.624
15693SOL    HW248912   8.058   0.504   0.486
15694SOL     OW48913   5.295  13.111   2.010
15694SOL    HW148914   5.264  13.116   1.920
15694SOL    HW248915   5.334  13.197   2.027
15695SOL     OW48916   7.894   5.880  12.559
15695SOL    HW148917   7.899   5.897  12.465
15695SOL    HW248918   7.905   5.966  12.599
15696SOL     OW48919   1.628  11.220  12.638
15696SOL    HW148920   1.547  11.209  12.688
15696SOL    HW248921   1.677  11.139  12.653
15697SOL     OW48922  13.133   0.646   2.361
15697SOL    HW148923  13.210   0.681   2.405
15697SOL    HW248924  13.074   0.621   2.432
15698SOL     OW48925   3.786  12.862  11.560
15698SOL    HW148926   3.786  12.948  11.519
15698SOL    HW248927   3.763  12.879  11.651
15699SOL     OW48928   9.770   1.981  13.607
15699SOL    HW148929   9.864   1.995  13.615
15699SOL    HW248930   9.731   2.065  13.629
15700SOL     OW48931  14.316  12.516   8.173
15700SOL    HW148932  14.375  12.452   8.133
15700SOL    HW248933  14.373  12.577   8.219
15701SOL     OW48934   3.866   5.753   5.384
15701SOL    HW148935   3.943   5.788   5.339
15701SOL    HW248936   3.793   5.805   5.349
15702SOL     OW48937   7.317   8.343   0.952
15702SOL    HW148938   7.251   8.412   0.963
15702SOL    HW248939   7.400   8.390   0.953
15703SOL     OW48940   2.036   2.905   8.321
15703SOL    HW148941   1.959   2.906   8.263
15703SOL    HW248942   2.009   2.850   8.395
15704SOL     OW48943  14.263   9.622  10.395
15704SOL    HW148944  14.236   9.660  10.478
15704SOL    HW248945  14.246   9.528  10.404
15705SOL     OW48946  10.226   1.911  14.555
15705SOL    HW148947  10.309   1.934  14.512
15705SOL    HW248948  10.231   1.816  14.567
15706SOL     OW48949  13.370   1.097   9.440
15706SOL    HW148950  13.366   1.054   9.354
15706SOL    HW248951  13.462   1.088   9.467
15707SOL     OW48952   3.773   4.424   5.633
15707SOL    HW148953   3.759   4.382   5.718
15707SOL    HW248954   3.803   4.512   5.654
15708SOL     OW48955   6.292   5.968   2.082
15708SOL    HW148956   6.353   6.041   2.077
15708SOL    HW248957   6.282   5.952   2.176
15709SOL     OW48958   1.360  13.387   2.658
15709SOL    HW148959   1.452  13.395   2.682
15709SOL    HW248960   1.346  13.457   2.594
15710SOL     OW48961  10.107  14.469   0.031
15710SOL    HW148962  10.153  14.511   0.104
15710SOL    HW248963  10.120  14.375   0.045
15711SOL     OW48964   5.738  10.629   0.513
15711SOL    HW148965   5.672  10.645   0.580
15711SOL    HW248966   5.700  10.561   0.457
15712SOL     OW48967   9.803   1.911   4.232
15712SOL    HW148968   9.872   1.970   4.202
15712SOL    HW248969   9.782   1.942   4.321
15713SOL     OW48970  14.791   4.927   0.899
15713SOL    HW148971  14.779   5.020   0.917
15713SOL    HW248972  14.707   4.886   0.920
15714SOL     OW48973  13.227  12.121   6.867
15714SOL    HW148974  13.301  12.099   6.925
15714SOL    HW248975  13.211  12.214   6.884
15715SOL     OW48976   3.453   8.748   0.445
15715SOL    HW148977   3.409   8.724   0.363
15715SOL    HW248978   3.430   8.678   0.505
15716SOL     OW48979   4.364  11.156   6.409
15716SOL    HW148980   4.363  11.084   6.472
15716SOL    HW248981   4.284  11.206   6.428
15717SOL     OW48982   3.732  10.415   2.490
15717SOL    HW148983   3.795  10.343   2.493
15717SOL    HW248984   3.648  10.373   2.507
15718SOL     OW48985   7.327   9.602   4.059
15718SOL    HW148986   7.367   9.668   4.115
15718SOL    HW248987   7.401   9.556   4.019
15719SOL     OW48988  10.077  14.268   1.179
15719SOL    HW148989  10.137  14.243   1.250
15719SOL    HW248990  10.123  14.241   1.100
15720SOL     OW48991   3.450   7.929   1.171
15720SOL    HW148992   3.356   7.915   1.172
15720SOL    HW248993   3.473   7.931   1.078
15721SOL     OW48994   9.652   7.426   8.172
15721SOL    HW148995   9.699   7.478   8.107
15721SOL    HW248996   9.560   7.449   8.160
15722SOL     OW48997  11.225   8.723   3.234
15722SOL    HW148998  11.209   8.709   3.141
15722SOL    HW248999  11.214   8.636   3.273
15723SOL     OW49000   7.657  13.018   5.012
15723SOL    HW149001   7.589  13.062   5.063
15723SOL    HW249002   7.644  12.925   5.030
15724SOL     OW49003   4.577   3.376  12.089
15724SOL    HW149004   4.569   3.432  12.167
15724SOL    HW249005   4.598   3.437  12.018
15725SOL     OW49006  11.644   3.213  10.105
15725SOL    HW149007  11.561   3.258  10.123
15725SOL    HW249008  11.660   3.230  10.012
15726SOL     OW49009  10.322   3.430   9.024
15726SOL    HW149010  10.379   3.418   9.100
15726SOL    HW249011  10.357   3.371   8.958
15727SOL     OW49012   8.433  13.142   6.146
15727SOL    HW149013   8.402  13.221   6.190
15727SOL    HW249014   8.512  13.117   6.194
15728SOL     OW49015  12.003   5.440   1.502
15728SOL    HW149016  11.961   5.354   1.502
15728SOL    HW249017  12.046   5.447   1.417
15729SOL     OW49018  13.329   0.833   5.275
15729SOL    HW149019  13.261   0.875   5.327
15729SOL    HW249020  13.313   0.863   5.186
15730SOL     OW49021   6.140   8.728   9.898
15730SOL    HW149022   6.065   8.736   9.957
15730SOL    HW249023   6.151   8.816   9.862
15731SOL     OW49024  12.453   7.783   9.201
15731SOL    HW149025  12.412   7.843   9.264
15731SOL    HW249026  12.547   7.795   9.214
15732SOL     OW49027  13.846   5.081   1.088
15732SOL    HW149028  13.797   5.099   1.008
15732SOL    HW249029  13.790   5.114   1.158
15733SOL     OW49030  12.440   8.446   5.466
15733SOL    HW149031  12.348   8.468   5.480
15733SOL    HW249032  12.476   8.520   5.418
15734SOL     OW49033   7.146   1.928   0.182
15734SOL    HW149034   7.169   1.875   0.106
15734SOL    HW249035   7.230   1.951   0.222
15735SOL     OW49036  12.037   1.862   2.195
15735SOL    HW149037  11.984   1.940   2.211
15735SOL    HW249038  12.059   1.867   2.102
15736SOL     OW49039   8.986   9.369  14.375
15736SOL    HW149040   9.048   9.425  14.422
15736SOL    HW249041   9.005   9.385  14.283
15737SOL     OW49042   2.415   2.973  11.182
15737SOL    HW149043   2.486   3.007  11.128
15737SOL    HW249044   2.429   3.012  11.269
15738SOL     OW49045   0.674  14.052   5.806
15738SOL    HW149046   0.755  14.101   5.789
15738SOL    HW249047   0.681  14.025   5.897
15739SOL     OW49048   6.073   9.954  10.768
15739SOL    HW149049   6.052   9.897  10.842
15739SOL    HW249050   6.068  10.043  10.804
15740SOL     OW49051   1.014   6.227   0.135
15740SOL    HW149052   1.063   6.212   0.054
15740SOL    HW249053   0.994   6.320   0.134
15741SOL     OW49054   2.709  14.432  12.640
15741SOL    HW149055   2.687  14.451  12.731
15741SOL    HW249056   2.754  14.348  12.643
15742SOL     OW49057   4.997   6.734  13.503
15742SOL    HW149058   4.962   6.752  13.590
15742SOL    HW249059   4.921   6.738  13.445
15743SOL     OW49060   7.780   0.271  13.163
15743SOL    HW149061   7.727   0.350  13.170
15743SOL    HW249062   7.784   0.252  13.070
15744SOL     OW49063   4.781  10.468   6.266
15744SOL    HW149064   4.865  10.509   6.246
15744SOL    HW249065   4.720  10.506   6.203
15745SOL     OW49066  14.066  10.610   3.992
15745SOL    HW149067  13.993  10.597   4.053
15745SOL    HW249068  14.108  10.525   3.986
15746SOL     OW49069  13.991   5.078   8.838
15746SOL    HW149070  14.034   5.004   8.882
15746SOL    HW249071  13.897   5.062   8.851
15747SOL     OW49072   0.414   4.318  12.294
15747SOL    HW149073   0.354   4.244  12.282
15747SOL    HW249074   0.452   4.332  12.208
15748SOL     OW49075  11.203  13.616   8.347
15748SOL    HW149076  11.291  13.579   8.350
15748SOL    HW249077  11.213  13.703   8.387
15749SOL     OW49078  11.276   0.257   5.211
15749SOL    HW149079  11.240   0.234   5.297
15749SOL    HW249080  11.354   0.202   5.203
15750SOL     OW49081   5.376   3.607  11.202
15750SOL    HW149082   5.388   3.593  11.296
15750SOL    HW249083   5.291   3.568  11.182
15751SOL     OW49084  10.136  13.761   4.027
15751SOL    HW149085  10.212  13.778   3.971
15751SOL    HW249086  10.144  13.825   4.098
15752SOL     OW49087   6.434  14.425   5.102
15752SOL    HW149088   6.489  14.372   5.045
15752SOL    HW249089   6.456  14.396   5.190
15753SOL     OW49090   0.714   5.787  12.783
15753SOL    HW149091   0.652   5.832  12.841
15753SOL    HW249092   0.775   5.743  12.842
15754SOL     OW49093  10.930   9.902  11.416
15754SOL    HW149094  11.019   9.873  11.399
15754SOL    HW249095  10.919   9.891  11.511
15755SOL     OW49096   1.873  12.197  10.637
15755SOL    HW149097   1.787  12.155  10.630
15755SOL    HW249098   1.857  12.279  10.683
15756SOL     OW49099  13.717   9.055  14.700
15756SOL    HW149100  13.669   8.995  14.643
15756SOL    HW249101  13.808   9.044  14.675
15757SOL     OW49102   0.964   5.328  13.034
15757SOL    HW149103   0.996   5.311  12.945
15757SOL    HW249104   0.955   5.241  13.073
15758SOL     OW49105   0.387  14.487   0.312
15758SOL    HW149106   0.418  14.406   0.272
15758SOL    HW249107   0.466  14.540   0.324
15759SOL     OW49108   5.273   7.689   8.073
15759SOL    HW149109   5.297   7.621   8.136
15759SOL    HW249110   5.357   7.717   8.035
15760SOL     OW49111  10.181   7.194   1.020
15760SOL    HW149112  10.167   7.114   0.970
15760SOL    HW249113  10.097   7.211   1.062
15761SOL     OW49114  11.392   5.128   6.224
15761SOL    HW149115  11.344   5.092   6.299
15761SOL    HW249116  11.442   5.053   6.190
15762SOL     OW49117   3.177   8.976   8.989
15762SOL    HW149118   3.234   9.048   8.961
15762SOL    HW249119   3.109   8.972   8.922
15763SOL     OW49120   6.658  10.739   0.391
15763SOL    HW149121   6.620  10.691   0.465
15763SOL    HW249122   6.743  10.769   0.424
15764SOL     OW49123  10.964   8.963   1.392
15764SOL    HW149124  10.933   9.045   1.431
15764SOL    HW249125  11.058   8.977   1.379
15765SOL     OW49126  11.141  11.875  13.797
15765SOL    HW149127  11.165  11.957  13.753
15765SOL    HW249128  11.203  11.869  13.870
15766SOL     OW49129  10.569  13.895  14.526
15766SOL    HW149130  10.639  13.956  14.500
15766SOL    HW249131  10.488  13.941  14.504
15767SOL     OW49132   4.674   3.551  12.291
15767SOL    HW149133   4.743   3.599  12.246
15767SOL    HW249134   4.636   3.615  12.352
15768SOL     OW49135   0.746  10.253   1.001
15768SOL    HW149136   0.658  10.265   0.965
15768SOL    HW249137   0.746  10.307   1.080
15769SOL     OW49138   6.542   0.988  13.890
15769SOL    HW149139   6.549   1.069  13.839
15769SOL    HW249140   6.476   1.007  13.956
15770SOL     OW49141   4.632  11.532  11.070
15770SOL    HW149142   4.709  11.530  11.127
15770SOL    HW249143   4.637  11.450  11.021
15771SOL     OW49144  14.699   6.587   2.623
15771SOL    HW149145  14.637   6.533   2.672
15771SOL    HW249146  14.673   6.577   2.532
15772SOL     OW49147   3.682   1.998  14.172
15772SOL    HW149148   3.681   2.078  14.224
15772SOL    HW249149   3.612   2.011  14.108
15773SOL     OW49150   3.487   3.945  11.706
15773SOL    HW149151   3.511   3.907  11.622
15773SOL    HW249152   3.391   3.942  11.707
15774SOL     OW49153   0.404   8.471  12.989
15774SOL    HW149154   0.498   8.486  12.978
15774SOL    HW249155   0.375   8.437  12.904
15775SOL     OW49156   9.246  12.476   1.148
15775SOL    HW149157   9.160  12.503   1.179
15775SOL    HW249158   9.235  12.385   1.121
15776SOL     OW49159   7.148   7.576   4.262
15776SOL    HW149160   7.179   7.562   4.173
15776SOL    HW249161   7.149   7.489   4.302
15777SOL     OW49162   5.109   4.884   5.406
15777SOL    HW149163   5.045   4.910   5.473
15777SOL    HW249164   5.194   4.892   5.450
15778SOL     OW49165   2.824   2.112   7.342
15778SOL    HW149166   2.801   2.058   7.267
15778SOL    HW249167   2.750   2.172   7.352
15779SOL     OW49168   6.873  12.107   9.916
15779SOL    HW149169   6.960  12.092   9.955
15779SOL    HW249170   6.840  12.020   9.896
15780SOL     OW49171  11.773  10.418  12.855
15780SOL    HW149172  11.731  10.349  12.804
15780SOL    HW249173  11.862  10.386  12.870
15781SOL     OW49174   9.020   6.753  13.933
15781SOL    HW149175   8.956   6.799  13.879
15781SOL    HW249176   9.063   6.822  13.983
15782SOL     OW49177   2.417  11.903  13.159
15782SOL    HW149178   2.445  11.926  13.248
15782SOL    HW249179   2.390  11.985  13.120
15783SOL     OW49180  12.211  13.092  10.907
15783SOL    HW149181  12.144  13.044  10.858
15783SOL    HW249182  12.266  13.023  10.946
15784SOL     OW49183  10.771  11.393   6.728
15784SOL    HW149184  10.682  11.424   6.741
15784SOL    HW249185  10.791  11.344   6.808
15785SOL     OW49186   4.141  10.295   0.122
15785SOL    HW149187   4.047  10.295   0.139
15785SOL    HW249188   4.159  10.207   0.087
15786SOL     OW49189  11.303   9.868   0.920
15786SOL    HW149190  11.366   9.895   0.987
15786SOL    HW249191  11.219   9.903   0.950
15787SOL     OW49192   3.142  14.739  12.889
15787SOL    HW149193   3.153  14.671  12.956
15787SOL    HW249194   3.087  14.699  12.822
15788SOL     OW49195   7.203   2.166   6.382
15788SOL    HW149196   7.222   2.179   6.475
15788SOL    HW249197   7.249   2.085   6.359
15789SOL     OW49198   5.497   5.401  12.080
15789SOL    HW149199   5.487   5.496  12.086
15789SOL    HW249200   5.476   5.369  12.167
15790SOL     OW49201   5.163  10.104   7.384
15790SOL    HW149202   5.156  10.142   7.472
15790SOL    HW249203   5.089  10.044   7.378
15791SOL     OW49204   6.500   9.619   7.661
15791SOL    HW149205   6.460   9.592   7.744
15791SOL    HW249206   6.437   9.680   7.623
15792SOL     OW49207  13.274  13.171   7.306
15792SOL    HW149208  13.228  13.131   7.380
15792SOL    HW249209  13.233  13.132   7.228
15793SOL     OW49210  11.407  12.244  14.310
15793SOL    HW149211  11.387  12.153  14.290
15793SOL    HW249212  11.498  12.256  14.281
15794SOL     OW49213  12.050   6.353  13.364
15794SOL    HW149214  12.092   6.355  13.450
15794SOL    HW249215  11.981   6.419  13.369
15795SOL     OW49216  11.802   0.605  11.234
15795SOL    HW149217  11.805   0.617  11.139
15795SOL    HW249218  11.891   0.578  11.257
15796SOL     OW49219   2.298  10.228   5.295
15796SOL    HW149220   2.258  10.185   5.371
15796SOL    HW249221   2.262  10.182   5.219
15797SOL     OW49222   0.371  10.349   9.727
15797SOL    HW149223   0.369  10.315   9.817
15797SOL    HW249224   0.462  10.339   9.700
15798SOL     OW49225  10.243   4.262   2.139
15798SOL    HW149226  10.174   4.283   2.075
15798SOL    HW249227  10.237   4.167   2.150
15799SOL     OW49228  11.149  11.147   8.801
15799SOL    HW149229  11.239  11.176   8.786
15799SOL    HW249230  11.143  11.137   8.896
15800SOL     OW49231   4.589   3.963   7.888
15800SOL    HW149232   4.637   3.892   7.845
15800SOL    HW249233   4.507   3.970   7.839
15801SOL     OW49234   8.222  11.556  11.862
15801SOL    HW149235   8.140  11.513  11.889
15801SOL    HW249236   8.290  11.494  11.888
15802SOL     OW49237   7.022  11.879   0.846
15802SOL    HW149238   6.961  11.860   0.918
15802SOL    HW249239   7.020  11.974   0.838
15803SOL     OW49240   5.555  13.226  10.811
15803SOL    HW149241   5.627  13.171  10.843
15803SOL    HW249242   5.517  13.176  10.739
15804SOL     OW49243  10.881  12.637  11.922
15804SOL    HW149244  10.966  12.654  11.962
15804SOL    HW249245  10.868  12.543  11.933
15805SOL     OW49246  10.467  11.677   9.423
15805SOL    HW149247  10.477  11.605   9.361
15805SOL    HW249248  10.457  11.634   9.508
15806SOL     OW49249  14.058  12.619   1.754
15806SOL    HW149250  14.095  12.550   1.699
15806SOL    HW249251  13.995  12.572   1.809
15807SOL     OW49252   3.206  13.663   7.908
15807SOL    HW149253   3.262  13.649   7.833
15807SOL    HW249254   3.265  13.664   7.983
15808SOL     OW49255  14.318   2.821  12.219
15808SOL    HW149256  14.339   2.817  12.126
15808SOL    HW249257  14.310   2.914  12.238
15809SOL     OW49258   7.757  11.521   1.782
15809SOL    HW149259   7.790  11.498   1.869
15809SOL    HW249260   7.719  11.439   1.749
15810SOL     OW49261   3.916  12.718  13.067
15810SOL    HW149262   3.941  12.800  13.026
15810SOL    HW249263   3.956  12.651  13.012
15811SOL     OW49264   3.847   1.569   2.462
15811SOL    HW149265   3.760   1.539   2.439
15811SOL    HW249266   3.833   1.652   2.508
15812SOL     OW49267   7.040   2.081   9.025
15812SOL    HW149268   6.964   2.105   9.077
15812SOL    HW249269   7.109   2.064   9.089
15813SOL     OW49270  11.705  11.239  11.709
15813SOL    HW149271  11.639  11.301  11.677
15813SOL    HW249272  11.685  11.228  11.802
15814SOL     OW49273   6.515   2.874  14.332
15814SOL    HW149274   6.442   2.935  14.344
15814SOL    HW249275   6.584   2.908  14.389
15815SOL     OW49276   6.869   8.087  11.081
15815SOL    HW149277   6.908   8.076  11.167
15815SOL    HW249278   6.795   8.026  11.079
15816SOL     OW49279   0.968   9.621   0.807
15816SOL    HW149280   0.939   9.530   0.795
15816SOL    HW249281   1.043   9.630   0.747
15817SOL     OW49282  12.591   0.951   4.205
15817SOL    HW149283  12.661   1.013   4.227
15817SOL    HW249284  12.616   0.870   4.248
15818SOL     OW49285  14.817   2.224   0.392
15818SOL    HW149286  14.869   2.250   0.468
15818SOL    HW249287  14.802   2.130   0.403
15819SOL     OW49288  11.867   5.014  10.904
15819SOL    HW149289  11.782   4.979  10.930
15819SOL    HW249290  11.903   4.949  10.844
15820SOL     OW49291  14.429  11.753   0.384
15820SOL    HW149292  14.401  11.842   0.361
15820SOL    HW249293  14.370  11.728   0.455
15821SOL     OW49294   9.096  10.793   0.156
15821SOL    HW149295   9.054  10.835   0.081
15821SOL    HW249296   9.024  10.770   0.214
15822SOL     OW49297   1.408   1.382   3.476
15822SOL    HW149298   1.396   1.405   3.383
15822SOL    HW249299   1.458   1.455   3.512
15823SOL     OW49300   2.250  11.729   2.322
15823SOL    HW149301   2.243  11.821   2.350
15823SOL    HW249302   2.240  11.678   2.402
15824SOL     OW49303  12.781   1.461  14.559
15824SOL    HW149304  12.700   1.494  14.597
15824SOL    HW249305  12.802   1.383  14.611
15825SOL     OW49306   0.936  14.037   3.865
15825SOL    HW149307   0.883  14.042   3.786
15825SOL    HW249308   0.873  14.027   3.936
15826SOL     OW49309   5.195  13.102   5.880
15826SOL    HW149310   5.175  13.057   5.962
15826SOL    HW249311   5.217  13.191   5.906
15827SOL     OW49312   3.097  10.729   6.444
15827SOL    HW149313   3.188  10.709   6.426
15827SOL    HW249314   3.099  10.810   6.494
15828SOL     OW49315   1.254  11.245   2.044
15828SOL    HW149316   1.285  11.209   2.127
15828SOL    HW249317   1.204  11.323   2.070
15829SOL     OW49318  10.249   6.440  12.744
15829SOL    HW149319  10.201   6.408  12.820
15829SOL    HW249320  10.336   6.402  12.753
15830SOL     OW49321  12.455  11.421   6.741
15830SOL    HW149322  12.477  11.360   6.670
15830SOL    HW249323  12.362  11.405   6.757
15831SOL     OW49324  13.467  13.828   6.945
15831SOL    HW149325  13.439  13.904   6.996
15831SOL    HW249326  13.556  13.811   6.976
15832SOL     OW49327  14.493   5.570   4.807
15832SOL    HW149328  14.498   5.608   4.895
15832SOL    HW249329  14.561   5.502   4.807
15833SOL     OW49330   3.414   5.790  14.395
15833SOL    HW149331   3.431   5.880  14.423
15833SOL    HW249332   3.458   5.783  14.310
15834SOL     OW49333   7.876  14.278   4.322
15834SOL    HW149334   7.830  14.336   4.261
15834SOL    HW249335   7.932  14.336   4.373
15835SOL     OW49336  11.379   1.863   4.605
15835SOL    HW149337  11.440   1.841   4.534
15835SOL    HW249338  11.331   1.782   4.622
15836SOL     OW49339  14.076  12.597   8.241
15836SOL    HW149340  14.037  12.598   8.154
15836SOL    HW249341  14.164  12.562   8.228
15837SOL     OW49342   2.879  14.849  10.454
15837SOL    HW149343   2.858   0.016  10.371
15837SOL    HW249344   2.824   0.018  10.519
15838SOL     OW49345   9.587   1.384  10.093
15838SOL    HW149346   9.663   1.355  10.144
15838SOL    HW249347   9.548   1.453  10.147
15839SOL     OW49348   7.035   6.267   7.266
15839SOL    HW149349   7.086   6.343   7.296
15839SOL    HW249350   6.954   6.271   7.318
15840SOL     OW49351   9.288  14.622  10.090
15840SOL    HW149352   9.365  14.566  10.084
15840SOL    HW249353   9.267  14.625  10.183
15841SOL     OW49354   4.209   5.761   3.485
15841SOL    HW149355   4.140   5.820   3.515
15841SOL    HW249356   4.186   5.676   3.522
15842SOL     OW49357   4.578   6.936   7.358
15842SOL    HW149358   4.667   6.902   7.348
15842SOL    HW249359   4.564   6.937   7.453
15843SOL     OW49360   2.354  10.274   0.869
15843SOL    HW149361   2.344  10.358   0.914
15843SOL    HW249362   2.320  10.290   0.781
15844SOL     OW49363   9.937  13.512  11.214
15844SOL    HW149364  10.011  13.476  11.164
15844SOL    HW249365   9.956  13.487  11.304
15845SOL     OW49366   0.652   8.296   2.683
15845SOL    HW149367   0.570   8.248   2.668
15845SOL    HW249368   0.676   8.329   2.596
15846SOL     OW49369   1.209  12.816   5.097
15846SOL    HW149370   1.256  12.885   5.144
15846SOL    HW249371   1.156  12.772   5.164
15847SOL     OW49372  13.069   4.894   6.795
15847SOL    HW149373  13.097   4.865   6.708
15847SOL    HW249374  12.976   4.912   6.786
15848SOL     OW49375  10.436   0.573  12.862
15848SOL    HW149376  10.401   0.489  12.893
15848SOL    HW249377  10.434   0.566  12.767
15849SOL     OW49378   3.477  13.697  13.612
15849SOL    HW149379   3.486  13.709  13.518
15849SOL    HW249380   3.522  13.615  13.630
15850SOL     OW49381   0.640   9.268   1.817
15850SOL    HW149382   0.583   9.285   1.742
15850SOL    HW249383   0.696   9.196   1.790
15851SOL     OW49384   9.259   0.344   5.731
15851SOL    HW149385   9.228   0.367   5.644
15851SOL    HW249386   9.289   0.254   5.723
15852SOL     OW49387   6.763   0.197  11.496
15852SOL    HW149388   6.803   0.246  11.424
15852SOL    HW249389   6.833   0.188  11.561
15853SOL     OW49390   4.093  14.270   5.934
15853SOL    HW149391   4.119  14.203   5.871
15853SOL    HW249392   3.998  14.275   5.926
15854SOL     OW49393  12.625  11.002   8.355
15854SOL    HW149394  12.707  10.983   8.310
15854SOL    HW249395  12.573  11.051   8.292
15855SOL     OW49396  10.683  11.849  14.551
15855SOL    HW149397  10.713  11.804  14.471
15855SOL    HW249398  10.597  11.885  14.527
15856SOL     OW49399  10.069   6.778   7.248
15856SOL    HW149400  10.113   6.723   7.313
15856SOL    HW249401   9.982   6.796   7.285
15857SOL     OW49402  12.372   7.517   9.984
15857SOL    HW149403  12.307   7.569   9.939
15857SOL    HW249404  12.408   7.576  10.051
15858SOL     OW49405  10.371   9.504   2.873
15858SOL    HW149406  10.336   9.565   2.808
15858SOL    HW249407  10.318   9.520   2.952
15859SOL     OW49408   2.349   8.401   7.769
15859SOL    HW149409   2.335   8.482   7.721
15859SOL    HW249410   2.314   8.333   7.712
15860SOL     OW49411  10.449  13.652   3.396
15860SOL    HW149412  10.475  13.560   3.386
15860SOL    HW249413  10.519  13.701   3.354
15861SOL     OW49414   3.973   3.303   1.754
15861SOL    HW149415   3.955   3.216   1.792
15861SOL    HW249416   3.886   3.338   1.733
15862SOL     OW49417   0.054   3.028   5.084
15862SOL    HW149418   0.115   3.008   5.155
15862SOL    HW249419  14.852   2.977   5.105
15863SOL     OW49420   0.921   3.396   6.406
15863SOL    HW149421   0.926   3.487   6.435
15863SOL    HW249422   0.856   3.397   6.336
15864SOL     OW49423   7.574   7.605   3.870
15864SOL    HW149424   7.627   7.623   3.792
15864SOL    HW249425   7.596   7.676   3.930
15865SOL     OW49426  10.647   5.372  12.338
15865SOL    HW149427  10.655   5.442  12.273
15865SOL    HW249428  10.708   5.396  12.407
15866SOL     OW49429   5.233   5.631   9.175
15866SOL    HW149430   5.272   5.613   9.089
15866SOL    HW249431   5.146   5.665   9.155
15867SOL     OW49432  10.232   6.605   8.006
15867SOL    HW149433  10.298   6.553   8.053
15867SOL    HW249434  10.165   6.542   7.982
15868SOL     OW49435  13.720   8.017  12.552
15868SOL    HW149436  13.787   7.950  12.565
15868SOL    HW249437  13.695   8.043  12.641
15869SOL     OW49438  12.687   8.001   0.097
15869SOL    HW149439  12.749   7.929   0.093
15869SOL    HW249440  12.602   7.960   0.112
15870SOL     OW49441   0.426   4.063  10.537
15870SOL    HW149442   0.420   4.117  10.616
15870SOL    HW249443   0.500   4.099  10.489
15871SOL     OW49444  14.106   5.442   7.511
15871SOL    HW149445  14.054   5.466   7.587
15871SOL    HW249446  14.140   5.525   7.477
15872SOL     OW49447  12.867  10.377  14.431
15872SOL    HW149448  12.803  10.340  14.492
15872SOL    HW249449  12.922  10.434  14.485
15873SOL     OW49450  14.870   2.045  10.696
15873SOL    HW149451   0.040   2.119  10.735
15873SOL    HW249452  14.817   2.085  10.626
15874SOL     OW49453   5.994   3.709  13.062
15874SOL    HW149454   6.030   3.701  12.974
15874SOL    HW249455   5.926   3.642  13.067
15875SOL     OW49456   4.051  13.464   5.848
15875SOL    HW149457   4.011  13.549   5.866
15875SOL    HW249458   4.031  13.447   5.756
15876SOL     OW49459   0.391  14.217   5.240
15876SOL    HW149460   0.439  14.199   5.159
15876SOL    HW249461   0.305  14.178   5.227
15877SOL     OW49462   3.482   3.745  12.197
15877SOL    HW149463   3.527   3.741  12.113
15877SOL    HW249464   3.551   3.736  12.262
15878SOL     OW49465   2.748  11.146   2.078
15878SOL    HW149466   2.828  11.182   2.041
15878SOL    HW249467   2.778  11.092   2.152
15879SOL     OW49468   4.152   0.213   0.678
15879SOL    HW149469   4.121   0.291   0.634
15879SOL    HW249470   4.214   0.173   0.616
15880SOL     OW49471   2.512  12.026   6.168
15880SOL    HW149472   2.578  11.957   6.169
15880SOL    HW249473   2.436  11.987   6.211
15881SOL     OW49474   0.511  14.798  12.257
15881SOL    HW149475   0.477  14.872  12.206
15881SOL    HW249476   0.490  14.721  12.205
15882SOL     OW49477  11.979  13.987   9.797
15882SOL    HW149478  11.917  13.988   9.869
15882SOL    HW249479  12.065  13.977   9.839
15883SOL     OW49480   4.043   0.765  11.317
15883SOL    HW149481   4.109   0.756  11.248
15883SOL    HW249482   3.978   0.697  11.296
15884SOL     OW49483   4.929   2.332  14.145
15884SOL    HW149484   4.970   2.355  14.228
15884SOL    HW249485   4.836   2.331  14.164
15885SOL     OW49486  10.372  13.562   7.245
15885SOL    HW149487  10.303  13.501   7.220
15885SOL    HW249488  10.335  13.649   7.230
15886SOL     OW49489   9.400   9.643   2.427
15886SOL    HW149490   9.308   9.641   2.451
15886SOL    HW249491   9.427   9.551   2.427
15887SOL     OW49492  10.064   6.492   6.092
15887SOL    HW149493   9.980   6.445   6.095
15887SOL    HW249494  10.099   6.484   6.180
15888SOL     OW49495   7.144   5.874   3.460
15888SOL    HW149496   7.153   5.968   3.449
15888SOL    HW249497   7.082   5.847   3.393
15889SOL     OW49498   2.447   9.272   4.039
15889SOL    HW149499   2.427   9.242   3.950
15889SOL    HW249500   2.441   9.193   4.092
15890SOL     OW49501   6.706   4.926   8.031
15890SOL    HW149502   6.799   4.916   8.052
15890SOL    HW249503   6.691   5.020   8.031
15891SOL     OW49504   0.515   5.537   5.953
15891SOL    HW149505   0.608   5.555   5.936
15891SOL    HW249506   0.514   5.498   6.040
15892SOL     OW49507   2.794   4.007   2.959
15892SOL    HW149508   2.786   4.083   2.901
15892SOL    HW249509   2.810   4.044   3.046
15893SOL     OW49510  12.405  12.931   7.211
15893SOL    HW149511  12.481  12.986   7.229
15893SOL    HW249512  12.394  12.880   7.291
15894SOL     OW49513   3.271   6.935   4.245
15894SOL    HW149514   3.340   6.941   4.312
15894SOL    HW249515   3.229   6.851   4.261
15895SOL     OW49516   8.686   9.301   9.852
15895SOL    HW149517   8.672   9.249   9.773
15895SOL    HW249518   8.631   9.378   9.840
15896SOL     OW49519  12.367  10.853   8.979
15896SOL    HW149520  12.330  10.905   9.050
15896SOL    HW249521  12.431  10.796   9.022
15897SOL     OW49522   8.494  11.744  14.101
15897SOL    HW149523   8.518  11.678  14.166
15897SOL    HW249524   8.512  11.828  14.145
15898SOL     OW49525   5.023   1.926   1.950
15898SOL    HW149526   4.974   1.953   2.028
15898SOL    HW249527   4.971   1.856   1.912
15899SOL     OW49528  14.788  10.198   3.799
15899SOL    HW149529  14.713  10.193   3.859
15899SOL    HW249530  14.864  10.183   3.855
15900SOL     OW49531  11.651  12.924   7.297
15900SOL    HW149532  11.654  13.019   7.300
15900SOL    HW249533  11.736  12.898   7.261
15901SOL     OW49534   5.808  14.420  13.633
15901SOL    HW149535   5.878  14.486  13.639
15901SOL    HW249536   5.733  14.469  13.600
15902SOL     OW49537   1.560   2.755   4.674
15902SOL    HW149538   1.533   2.846   4.659
15902SOL    HW249539   1.580   2.721   4.587
15903SOL     OW49540   9.072   4.917   9.355
15903SOL    HW149541   9.057   4.972   9.432
15903SOL    HW249542   9.129   4.847   9.387
15904SOL     OW49543   6.901   7.672  11.570
15904SOL    HW149544   6.836   7.725  11.524
15904SOL    HW249545   6.938   7.731  11.636
15905SOL     OW49546  14.117   8.182   1.647
15905SOL    HW149547  14.045   8.149   1.701
15905SOL    HW249548  14.160   8.248   1.701
15906SOL     OW49549  12.092   6.527   7.247
15906SOL    HW149550  12.022   6.528   7.182
15906SOL    HW249551  12.048   6.508   7.330
15907SOL     OW49552  12.174   2.643   1.691
15907SOL    HW149553  12.111   2.673   1.756
15907SOL    HW249554  12.188   2.719   1.634
15908SOL     OW49555   7.044   5.999   7.909
15908SOL    HW149556   7.053   5.951   7.991
15908SOL    HW249557   7.133   6.009   7.877
15909SOL     OW49558  11.382  13.221  10.840
15909SOL    HW149559  11.388  13.189  10.750
15909SOL    HW249560  11.466  13.198  10.880
15910SOL     OW49561   7.135   4.041   4.123
15910SOL    HW149562   7.180   4.016   4.042
15910SOL    HW249563   7.153   4.134   4.133
15911SOL     OW49564  14.720   1.574  13.536
15911SOL    HW149565  14.709   1.557  13.630
15911SOL    HW249566  14.648   1.634  13.514
15912SOL     OW49567   8.324   1.326   2.349
15912SOL    HW149568   8.345   1.286   2.265
15912SOL    HW249569   8.327   1.421   2.332
15913SOL     OW49570   4.400   3.981  11.793
15913SOL    HW149571   4.424   3.888  11.795
15913SOL    HW249572   4.482   4.028  11.807
15914SOL     OW49573   0.237  12.106   4.127
15914SOL    HW149574   0.174  12.055   4.076
15914SOL    HW249575   0.202  12.104   4.217
15915SOL     OW49576   6.002   2.772   8.043
15915SOL    HW149577   6.007   2.678   8.055
15915SOL    HW249578   6.036   2.787   7.955
15916SOL     OW49579   2.545   0.522   0.331
15916SOL    HW149580   2.561   0.478   0.415
15916SOL    HW249581   2.450   0.534   0.329
15917SOL     OW49582  10.064   6.460   3.648
15917SOL    HW149583  10.073   6.476   3.741
15917SOL    HW249584  10.011   6.534   3.616
15918SOL     OW49585   5.416   0.917   8.532
15918SOL    HW149586   5.344   0.856   8.513
15918SOL    HW249587   5.415   0.980   8.460
15919SOL     OW49588  13.109   9.006   2.015
15919SOL    HW149589  13.187   8.984   2.066
15919SOL    HW249590  13.124   9.095   1.985
15920SOL     OW49591   2.670   0.053   8.321
15920SOL    HW149592   2.610   0.118   8.357
15920SOL    HW249593   2.707   0.095   8.243
15921SOL     OW49594  11.473   5.879   2.277
15921SOL    HW149595  11.539   5.831   2.327
15921SOL    HW249596  11.467   5.964   2.321
15922SOL     OW49597   6.341   1.382  13.104
15922SOL    HW149598   6.368   1.420  13.020
15922SOL    HW249599   6.246   1.378  13.099
15923SOL     OW49600  11.668  10.719   6.552
15923SOL    HW149601  11.697  10.631   6.529
15923SOL    HW249602  11.744  10.760   6.593
15924SOL     OW49603   9.654  12.480   7.249
15924SOL    HW149604   9.657  12.518   7.161
15924SOL    HW249605   9.745  12.462   7.271
15925SOL     OW49606  13.271   3.540   6.129
15925SOL    HW149607  13.319   3.598   6.187
15925SOL    HW249608  13.195   3.592   6.100
15926SOL     OW49609   0.579   4.717   7.850
15926SOL    HW149610   0.510   4.735   7.787
15926SOL    HW249611   0.581   4.622   7.858
15927SOL     OW49612   7.632   5.245  13.938
15927SOL    HW149613   7.642   5.332  13.901
15927SOL    HW249614   7.716   5.225  13.979
15928SOL     OW49615   5.379   8.537   2.688
15928SOL    HW149616   5.381   8.572   2.599
15928SOL    HW249617   5.434   8.459   2.685
15929SOL     OW49618   2.543   6.473   2.903
15929SOL    HW149619   2.569   6.385   2.876
15929SOL    HW249620   2.470   6.495   2.846
15930SOL     OW49621   6.586   6.904   0.388
15930SOL    HW149622   6.516   6.885   0.451
15930SOL    HW249623   6.575   6.997   0.367
15931SOL     OW49624   4.587   8.162   7.335
15931SOL    HW149625   4.614   8.071   7.322
15931SOL    HW249626   4.524   8.158   7.407
15932SOL     OW49627  14.541  12.157   4.203
15932SOL    HW149628  14.453  12.153   4.241
15932SOL    HW249629  14.565  12.249   4.206
15933SOL     OW49630   8.935   1.754   8.848
15933SOL    HW149631   8.952   1.726   8.758
15933SOL    HW249632   8.886   1.835   8.840
15934SOL     OW49633   9.177   2.569   8.714
15934SOL    HW149634   9.123   2.596   8.640
15934SOL    HW249635   9.209   2.651   8.752
15935SOL     OW49636  13.388  13.990   3.710
15935SOL    HW149637  13.387  14.017   3.801
15935SOL    HW249638  13.475  14.016   3.678
15936SOL     OW49639  11.808   3.543   4.314
15936SOL    HW149640  11.832   3.549   4.222
15936SOL    HW249641  11.884   3.578   4.361
15937SOL     OW49642   3.899   6.945   6.262
15937SOL    HW149643   3.995   6.955   6.263
15937SOL    HW249644   3.874   6.959   6.171
15938SOL     OW49645  10.550   6.389  12.666
15938SOL    HW149646  10.555   6.426  12.578
15938SOL    HW249647  10.585   6.300  12.656
15939SOL     OW49648   3.494   3.196  14.645
15939SOL    HW149649   3.544   3.157  14.574
15939SOL    HW249650   3.465   3.281  14.611
15940SOL     OW49651   6.932   7.768   5.271
15940SOL    HW149652   6.952   7.745   5.362
15940SOL    HW249653   6.848   7.813   5.276
15941SOL     OW49654   0.686  10.825   3.304
15941SOL    HW149655   0.727  10.902   3.265
15941SOL    HW249656   0.662  10.852   3.393
15942SOL     OW49657   3.467   2.642  13.569
15942SOL    HW149658   3.407   2.580  13.526
15942SOL    HW249659   3.466   2.617  13.661
15943SOL     OW49660  10.079   8.411   0.156
15943SOL    HW149661  10.060   8.329   0.111
15943SOL    HW249662  10.001   8.428   0.209
15944SOL     OW49663   6.841   5.707  11.999
15944SOL    HW149664   6.845   5.617  11.965
15944SOL    HW249665   6.752   5.717  12.031
15945SOL     OW49666  11.454   3.964   1.264
15945SOL    HW149667  11.430   3.960   1.356
15945SOL    HW249668  11.455   4.057   1.243
15946SOL     OW49669  11.092   9.347  11.316
15946SOL    HW149670  11.025   9.295  11.271
15946SOL    HW249671  11.047   9.428  11.340
15947SOL     OW49672   7.367  10.377  14.344
15947SOL    HW149673   7.438  10.325  14.306
15947SOL    HW249674   7.399  10.402  14.431
15948SOL     OW49675  10.777  11.215  12.296
15948SOL    HW149676  10.792  11.307  12.272
15948SOL    HW249677  10.855  11.170  12.265
15949SOL     OW49678  14.259   0.022  14.119
15949SOL    HW149679  14.188   0.016  14.182
15949SOL    HW249680  14.319  14.827  14.141
15950SOL     OW49681   6.574   5.733   7.072
15950SOL    HW149682   6.483   5.745   7.098
15950SOL    HW249683   6.577   5.644   7.037
15951SOL     OW49684  11.638   3.419  14.096
15951SOL    HW149685  11.675   3.391  14.180
15951SOL    HW249686  11.586   3.345  14.066
15952SOL     OW49687  10.310   8.513   3.217
15952SOL    HW149688  10.335   8.426   3.187
15952SOL    HW249689  10.383   8.569   3.189
15953SOL     OW49690   6.821  14.128   0.141
15953SOL    HW149691   6.824  14.090   0.229
15953SOL    HW249692   6.840  14.221   0.153
15954SOL     OW49693   5.863   1.379   7.797
15954SOL    HW149694   5.883   1.467   7.830
15954SOL    HW249695   5.848   1.392   7.703
15955SOL     OW49696   1.400   8.260  10.480
15955SOL    HW149697   1.327   8.320  10.493
15955SOL    HW249698   1.474   8.316  10.455
15956SOL     OW49699  12.781  11.373  11.982
15956SOL    HW149700  12.789  11.340  12.072
15956SOL    HW249701  12.690  11.402  11.976
15957SOL     OW49702   1.762   2.280   7.924
15957SOL    HW149703   1.815   2.356   7.899
15957SOL    HW249704   1.732   2.300   8.012
15958SOL     OW49705   0.405  11.511   7.351
15958SOL    HW149706   0.450  11.585   7.390
15958SOL    HW249707   0.374  11.543   7.266
15959SOL     OW49708  14.344   5.164   8.978
15959SOL    HW149709  14.319   5.183   8.888
15959SOL    HW249710  14.407   5.093   8.972
15960SOL     OW49711   8.552  14.249   9.230
15960SOL    HW149712   8.610  14.177   9.253
15960SOL    HW249713   8.583  14.323   9.283
15961SOL     OW49714   9.160   5.262   1.916
15961SOL    HW149715   9.230   5.250   1.852
15961SOL    HW249716   9.200   5.312   1.987
15962SOL     OW49717   4.769  11.656   8.214
15962SOL    HW149718   4.818  11.615   8.286
15962SOL    HW249719   4.778  11.750   8.229
15963SOL     OW49720   4.218   9.682  13.452
15963SOL    HW149721   4.269   9.623  13.396
15963SOL    HW249722   4.179   9.745  13.393
15964SOL     OW49723   5.084   3.443   0.037
15964SOL    HW149724   5.095   3.523  14.862
15964SOL    HW249725   5.172   3.405   0.042
15965SOL     OW49726   8.819   1.357   4.019
15965SOL    HW149727   8.807   1.445   3.983
15965SOL    HW249728   8.906   1.331   3.990
15966SOL     OW49729  10.855   7.394   5.420
15966SOL    HW149730  10.906   7.333   5.473
15966SOL    HW249731  10.793   7.339   5.372
15967SOL     OW49732   0.155  12.533  13.477
15967SOL    HW149733   0.074  12.506  13.434
15967SOL    HW249734   0.164  12.474  13.552
15968SOL     OW49735   2.593   2.857   2.789
15968SOL    HW149736   2.635   2.935   2.752
15968SOL    HW249737   2.632   2.848   2.876
15969SOL     OW49738   2.218   4.164  14.491
15969SOL    HW149739   2.239   4.071  14.501
15969SOL    HW249740   2.127   4.165  14.461
15970SOL     OW49741   5.728   2.698   6.296
15970SOL    HW149742   5.709   2.648   6.217
15970SOL    HW249743   5.786   2.640   6.346
15971SOL     OW49744   6.547   6.214  12.225
15971SOL    HW149745   6.631   6.167  12.231
15971SOL    HW249746   6.571   6.306  12.220
15972SOL     OW49747   1.934  12.182   9.449
15972SOL    HW149748   2.014  12.141   9.482
15972SOL    HW249749   1.952  12.276   9.454
15973SOL     OW49750  13.217   8.365   5.385
15973SOL    HW149751  13.197   8.396   5.474
15973SOL    HW249752  13.308   8.390   5.372
15974SOL     OW49753   0.276   6.748   2.463
15974SOL    HW149754   0.331   6.672   2.443
15974SOL    HW249755   0.187   6.713   2.467
15975SOL     OW49756  13.134   1.001   6.626
15975SOL    HW149757  13.079   1.080   6.622
15975SOL    HW249758  13.207   1.020   6.567
15976SOL     OW49759   6.422   3.154  11.689
15976SOL    HW149760   6.398   3.141  11.780
15976SOL    HW249761   6.341   3.182  11.646
15977SOL     OW49762   7.385   5.433  10.520
15977SOL    HW149763   7.354   5.443  10.610
15977SOL    HW249764   7.462   5.489  10.514
15978SOL     OW49765  12.849  11.123  13.089
15978SOL    HW149766  12.761  11.159  13.103
15978SOL    HW249767  12.893  11.135  13.173
15979SOL     OW49768   8.997   3.413   9.574
15979SOL    HW149769   8.924   3.436   9.517
15979SOL    HW249770   8.971   3.330   9.615
15980SOL     OW49771   3.578  11.525   5.702
15980SOL    HW149772   3.664  11.557   5.673
15980SOL    HW249773   3.583  11.527   5.798
15981SOL     OW49774   4.604  11.648   9.354
15981SOL    HW149775   4.657  11.615   9.282
15981SOL    HW249776   4.655  11.721   9.390
15982SOL     OW49777  12.652   0.511   6.700
15982SOL    HW149778  12.662   0.437   6.760
15982SOL    HW249779  12.719   0.497   6.633
15983SOL     OW49780  13.931   8.707  11.569
15983SOL    HW149781  13.942   8.766  11.495
15983SOL    HW249782  13.885   8.760  11.635
15984SOL     OW49783   4.487  13.902   4.358
15984SOL    HW149784   4.481  13.979   4.414
15984SOL    HW249785   4.571  13.911   4.313
15985SOL     OW49786  14.670   0.237   2.169
15985SOL    HW149787  14.748   0.257   2.117
15985SOL    HW249788  14.640   0.321   2.203
15986SOL     OW49789   6.962   1.536   3.453
15986SOL    HW149790   7.011   1.579   3.523
15986SOL    HW249791   6.927   1.457   3.494
15987SOL     OW49792  14.828  13.202   5.731
15987SOL    HW149793  14.800  13.140   5.798
15987SOL    HW249794  14.826  13.287   5.774
15988SOL     OW49795   5.807  12.472  14.366
15988SOL    HW149796   5.852  12.423  14.436
15988SOL    HW249797   5.715  12.472  14.393
15989SOL     OW49798  13.553  11.150   4.357
15989SOL    HW149799  13.459  11.168   4.357
15989SOL    HW249800  13.578  11.150   4.264
15990SOL     OW49801  10.057   4.766   9.344
15990SOL    HW149802  10.128   4.718   9.302
15990SOL    HW249803   9.981   4.751   9.288
15991SOL     OW49804   6.477  12.922   2.086
15991SOL    HW149805   6.521  12.882   2.011
15991SOL    HW249806   6.394  12.953   2.051
15992SOL     OW49807  14.814   1.135   5.425
15992SOL    HW149808  14.813   1.071   5.354
15992SOL    HW249809   0.025   1.124   5.465
15993SOL     OW49810  12.745   0.129   1.749
15993SOL    HW149811  12.826   0.094   1.786
15993SOL    HW249812  12.676   0.094   1.805
15994SOL     OW49813   1.698   7.286   7.814
15994SOL    HW149814   1.622   7.339   7.835
15994SOL    HW249815   1.772   7.347   7.816
15995SOL     OW49816   9.428   7.808   3.018
15995SOL    HW149817   9.418   7.903   3.019
15995SOL    HW249818   9.500   7.793   2.956
15996SOL     OW49819   4.249  13.504   6.447
15996SOL    HW149820   4.230  13.420   6.488
15996SOL    HW249821   4.307  13.484   6.374
15997SOL     OW49822   8.749   4.048   4.074
15997SOL    HW149823   8.657   4.043   4.097
15997SOL    HW249824   8.796   4.026   4.155
15998SOL     OW49825   3.003   1.289   0.266
15998SOL    HW149826   3.029   1.197   0.269
15998SOL    HW249827   2.915   1.288   0.228
15999SOL     OW49828   8.414   0.307   5.721
15999SOL    HW149829   8.368   0.302   5.637
15999SOL    HW249830   8.402   0.398   5.749
16000SOL     OW49831   9.841  11.953   2.800
16000SOL    HW149832   9.857  11.898   2.723
16000SOL    HW249833   9.870  12.040   2.774
16001SOL     OW49834   5.612   8.881  10.635
16001SOL    HW149835   5.688   8.848  10.682
16001SOL    HW249836   5.539   8.869  10.696
16002SOL     OW49837  13.471   8.161  14.864
16002SOL    HW149838  13.426   8.112  14.796
16002SOL    HW249839  13.403   8.216   0.027
16003SOL     OW49840   6.565  14.678   7.589
16003SOL    HW149841   6.494  14.645   7.644
16003SOL    HW249842   6.525  14.749   7.538
16004SOL     OW49843  14.710   5.355   6.966
16004SOL    HW149844  14.742   5.297   6.897
16004SOL    HW249845  14.787   5.377   7.017
16005SOL     OW49846  14.109  14.375  11.179
16005SOL    HW149847  14.014  14.376  11.193
16005SOL    HW249848  14.123  14.437  11.107
16006SOL     OW49849  11.204   8.627  14.840
16006SOL    HW149850  11.170   8.655  14.755
16006SOL    HW249851  11.287   8.585  14.819
16007SOL     OW49852   8.352  10.279  13.569
16007SOL    HW149853   8.441  10.253  13.594
16007SOL    HW249854   8.310  10.302  13.652
16008SOL     OW49855   4.673  11.164   9.143
16008SOL    HW149856   4.682  11.167   9.239
16008SOL    HW249857   4.749  11.115   9.114
16009SOL     OW49858  14.185   3.880   7.651
16009SOL    HW149859  14.270   3.837   7.653
16009SOL    HW249860  14.204   3.972   7.668
16010SOL     OW49861  11.979  13.226  12.009
16010SOL    HW149862  12.022  13.210  11.925
16010SOL    HW249863  12.045  13.206  12.075
16011SOL     OW49864  11.769   9.790   6.795
16011SOL    HW149865  11.735   9.702   6.778
16011SOL    HW249866  11.834   9.778   6.864
16012SOL     OW49867   8.199   8.977   1.020
16012SOL    HW149868   8.123   9.010   0.974
16012SOL    HW249869   8.274   9.004   0.966
16013SOL     OW49870  13.161  13.334   3.934
16013SOL    HW149871  13.068  13.327   3.957
16013SOL    HW249872  13.166  13.302   3.844
16014SOL     OW49873  14.030   8.228   5.002
16014SOL    HW149874  14.067   8.140   4.998
16014SOL    HW249875  14.105   8.285   5.018
16015SOL     OW49876  10.449   9.145   0.103
16015SOL    HW149877  10.526   9.202   0.104
16015SOL    HW249878  10.427   9.137   0.010
16016SOL     OW49879   9.722   1.318  13.352
16016SOL    HW149880   9.632   1.320  13.383
16016SOL    HW249881   9.717   1.282  13.264
16017SOL     OW49882  14.874  11.513   4.729
16017SOL    HW149883  14.861  11.579   4.797
16017SOL    HW249884   0.023  11.434   4.776
16018SOL     OW49885  12.082  13.036   9.234
16018SOL    HW149886  12.076  13.131   9.241
16018SOL    HW249887  12.160  13.021   9.181
16019SOL     OW49888  10.831  13.943  11.522
16019SOL    HW149889  10.907  13.910  11.474
16019SOL    HW249890  10.866  13.969  11.607
16020SOL     OW49891  10.296   5.647   6.807
16020SOL    HW149892  10.320   5.564   6.848
16020SOL    HW249893  10.250   5.696   6.876
16021SOL     OW49894  14.425   3.084   2.114
16021SOL    HW149895  14.439   3.178   2.101
16021SOL    HW249896  14.330   3.074   2.120
16022SOL     OW49897  13.323  11.152   4.705
16022SOL    HW149898  13.298  11.092   4.775
16022SOL    HW249899  13.247  11.151   4.645
16023SOL     OW49900  10.278   7.687  13.648
16023SOL    HW149901  10.319   7.630  13.713
16023SOL    HW249902  10.185   7.665  13.653
16024SOL     OW49903   5.660  10.726   6.139
16024SOL    HW149904   5.661  10.667   6.215
16024SOL    HW249905   5.573  10.717   6.102
16025SOL     OW49906  14.379  10.853  12.341
16025SOL    HW149907  14.316  10.922  12.320
16025SOL    HW249908  14.441  10.894  12.401
16026SOL     OW49909   5.221   5.113   5.031
16026SOL    HW149910   5.306   5.108   4.987
16026SOL    HW249911   5.239   5.158   5.114
16027SOL     OW49912   0.167  13.198   0.257
16027SOL    HW149913   0.132  13.286   0.275
16027SOL    HW249914   0.182  13.160   0.344
16028SOL     OW49915   3.420  14.150  11.321
16028SOL    HW149916   3.449  14.214  11.256
16028SOL    HW249917   3.364  14.200  11.380
16029SOL     OW49918   6.578  12.716   0.474
16029SOL    HW149919   6.525  12.767   0.412
16029SOL    HW249920   6.544  12.741   0.560
16030SOL     OW49921   0.811   0.019  13.911
16030SOL    HW149922   0.786   0.066  13.991
16030SOL    HW249923   0.861  14.819  13.943
16031SOL     OW49924   4.844   8.900   5.684
16031SOL    HW149925   4.756   8.928   5.660
16031SOL    HW249926   4.884   8.872   5.601
16032SOL     OW49927  10.907   0.188   5.409
16032SOL    HW149928  10.985   0.154   5.454
16032SOL    HW249929  10.833   0.154   5.461
16033SOL     OW49930   4.309   8.367   0.562
16033SOL    HW149931   4.362   8.306   0.512
16033SOL    HW249932   4.230   8.378   0.509
16034SOL     OW49933   8.064   9.951   5.095
16034SOL    HW149934   8.059  10.046   5.108
16034SOL    HW249935   8.135   9.939   5.031
16035SOL     OW49936  12.854   5.094   4.853
16035SOL    HW149937  12.771   5.134   4.879
16035SOL    HW249938  12.878   5.140   4.772
16036SOL     OW49939   8.199   8.947   5.626
16036SOL    HW149940   8.141   8.874   5.607
16036SOL    HW249941   8.163   8.986   5.706
16037SOL     OW49942   2.273   8.892   2.020
16037SOL    HW149943   2.365   8.903   2.045
16037SOL    HW249944   2.261   8.950   1.944
16038SOL     OW49945   5.500  14.257   8.647
16038SOL    HW149946   5.558  14.284   8.718
16038SOL    HW249947   5.543  14.291   8.568
16039SOL     OW49948  13.929  14.534   5.182
16039SOL    HW149949  13.847  14.552   5.229
16039SOL    HW249950  13.983  14.488   5.246
16040SOL     OW49951   6.238   7.044  13.354
16040SOL    HW149952   6.326   7.052  13.318
16040SOL    HW249953   6.199   6.971  13.306
16041SOL     OW49954  12.430   2.290   4.626
16041SOL    HW149955  12.512   2.291   4.674
16041SOL    HW249956  12.442   2.355   4.556
16042SOL     OW49957   3.331   7.454   2.024
16042SOL    HW149958   3.407   7.510   2.038
16042SOL    HW249959   3.367   7.373   1.986
16043SOL     OW49960  10.164   5.396   5.099
16043SOL    HW149961  10.236   5.407   5.036
16043SOL    HW249962  10.103   5.466   5.077
16044SOL     OW49963   1.197   2.999   8.811
16044SOL    HW149964   1.118   2.981   8.862
16044SOL    HW249965   1.247   3.059   8.866
16045SOL     OW49966   8.725   8.495  11.749
16045SOL    HW149967   8.712   8.439  11.826
16045SOL    HW249968   8.648   8.479  11.694
16046SOL     OW49969   4.445   4.509  12.133
16046SOL    HW149970   4.537   4.519  12.109
16046SOL    HW249971   4.408   4.597  12.123
16047SOL     OW49972  14.326   9.552   0.981
16047SOL    HW149973  14.292   9.467   1.010
16047SOL    HW249974  14.349   9.539   0.889
16048SOL     OW49975  10.275   7.687   8.372
16048SOL    HW149976  10.284   7.638   8.290
16048SOL    HW249977  10.310   7.629   8.439
16049SOL     OW49978   0.595   1.657   3.904
16049SOL    HW149979   0.590   1.565   3.879
16049SOL    HW249980   0.587   1.705   3.821
16050SOL     OW49981   3.092   6.359   6.896
16050SOL    HW149982   3.090   6.438   6.951
16050SOL    HW249983   3.186   6.343   6.881
16051SOL     OW49984  14.182   9.457   3.737
16051SOL    HW149985  14.207   9.376   3.693
16051SOL    HW249986  14.087   9.452   3.746
16052SOL     OW49987  12.611  11.784  12.274
16052SOL    HW149988  12.583  11.835  12.351
16052SOL    HW249989  12.633  11.698  12.310
16053SOL     OW49990  10.895  13.769   9.310
16053SOL    HW149991  10.986  13.740   9.306
16053SOL    HW249992  10.847  13.693   9.344
16054SOL     OW49993  10.965  12.690  10.480
16054SOL    HW149994  11.060  12.693  10.488
16054SOL    HW249995  10.936  12.633  10.552
16055SOL     OW49996  13.594   2.086   8.665
16055SOL    HW149997  13.647   2.059   8.740
16055SOL    HW249998  13.602   2.014   8.603
16056SOL     OW49999   7.634   8.244  11.575
16056SOL    HW150000   7.721   8.205  11.586
16056SOL    HW250001   7.646   8.310  11.508
16057SOL     OW50002  10.207  11.172  10.110
16057SOL    HW150003  10.269  11.231  10.153
16057SOL    HW250004  10.157  11.229  10.051
16058SOL     OW50005   3.399  10.344   8.395
16058SOL    HW150006   3.330  10.342   8.329
16058SOL    HW250007   3.356  10.316   8.476
16059SOL     OW50008   1.668  11.346   6.628
16059SOL    HW150009   1.582  11.303   6.629
16059SOL    HW250010   1.664  11.409   6.700
16060SOL     OW50011   4.661   4.600  10.567
16060SOL    HW150012   4.698   4.593  10.656
16060SOL    HW250013   4.718   4.661  10.522
16061SOL     OW50014  11.129   8.467   3.290
16061SOL    HW150015  11.046   8.446   3.333
16061SOL    HW250016  11.196   8.423   3.342
16062SOL     OW50017   2.667   6.329   2.026
16062SOL    HW150018   2.714   6.336   1.943
16062SOL    HW250019   2.602   6.399   2.023
16063SOL     OW50020  14.411   8.493  10.212
16063SOL    HW150021  14.495   8.482  10.255
16063SOL    HW250022  14.433   8.529  10.126
16064SOL     OW50023  13.584   2.612   1.267
16064SOL    HW150024  13.588   2.524   1.229
16064SOL    HW250025  13.657   2.615   1.329
16065SOL     OW50026   6.849   7.754   4.503
16065SOL    HW150027   6.818   7.672   4.542
16065SOL    HW250028   6.780   7.818   4.521
16066SOL     OW50029   5.063   7.483   5.814
16066SOL    HW150030   5.037   7.556   5.871
16066SOL    HW250031   5.047   7.515   5.725
16067SOL     OW50032   9.565   5.236   8.179
16067SOL    HW150033   9.495   5.274   8.232
16067SOL    HW250034   9.580   5.300   8.110
16068SOL     OW50035   4.784   3.944  11.291
16068SOL    HW150036   4.697   3.975  11.319
16068SOL    HW250037   4.813   3.889  11.364
16069SOL     OW50038   3.774   5.233   9.917
16069SOL    HW150039   3.855   5.201   9.879
16069SOL    HW250040   3.761   5.178   9.995
16070SOL     OW50041   4.016   6.750   5.318
16070SOL    HW150042   3.991   6.840   5.295
16070SOL    HW250043   4.035   6.708   5.234
16071SOL     OW50044  13.722   1.010   6.388
16071SOL    HW150045  13.648   0.949   6.390
16071SOL    HW250046  13.784   0.974   6.451
16072SOL     OW50047   2.083   1.889   0.376
16072SOL    HW150048   2.083   1.966   0.434
16072SOL    HW250049   1.993   1.882   0.346
16073SOL     OW50050   2.341  13.532   6.524
16073SOL    HW150051   2.368  13.528   6.432
16073SOL    HW250052   2.412  13.578   6.568
16074SOL     OW50053   4.390  11.271   1.037
16074SOL    HW150054   4.466  11.309   1.080
16074SOL    HW250055   4.324  11.264   1.106
16075SOL     OW50056   6.164   9.809   7.288
16075SOL    HW150057   6.081   9.847   7.260
16075SOL    HW250058   6.185   9.745   7.220
16076SOL     OW50059   1.184   9.807   1.280
16076SOL    HW150060   1.122   9.877   1.262
16076SOL    HW250061   1.172   9.788   1.373
16077SOL     OW50062  12.556   1.544   7.358
16077SOL    HW150063  12.472   1.582   7.385
16077SOL    HW250064  12.593   1.508   7.439
16078SOL     OW50065  14.294  11.126   3.499
16078SOL    HW150066  14.347  11.133   3.420
16078SOL    HW250067  14.210  11.166   3.475
16079SOL     OW50068   4.242   8.295  11.867
16079SOL    HW150069   4.198   8.237  11.804
16079SOL    HW250070   4.171   8.332  11.919
16080SOL     OW50071   8.327  13.526  11.683
16080SOL    HW150072   8.334  13.545  11.777
16080SOL    HW250073   8.233  13.518  11.667
16081SOL     OW50074   5.434   2.157   7.066
16081SOL    HW150075   5.472   2.163   6.978
16081SOL    HW250076   5.343   2.185   7.055
16082SOL     OW50077   0.143  13.857   9.691
16082SOL    HW150078   0.086  13.848   9.614
16082SOL    HW250079   0.161  13.951   9.695
16083SOL     OW50080   2.719   4.285   5.355
16083SOL    HW150081   2.804   4.314   5.322
16083SOL    HW250082   2.691   4.217   5.293
16084SOL     OW50083   3.451   3.706   1.961
16084SOL    HW150084   3.521   3.644   1.983
16084SOL    HW250085   3.491   3.764   1.896
16085SOL     OW50086   9.173   9.411  13.752
16085SOL    HW150087   9.091   9.382  13.713
16085SOL    HW250088   9.220   9.453  13.681
16086SOL     OW50089  12.252  13.442  12.925
16086SOL    HW150090  12.203  13.378  12.873
16086SOL    HW250091  12.293  13.391  12.994
16087SOL     OW50092  14.573   6.627   9.828
16087SOL    HW150093  14.481   6.648   9.843
16087SOL    HW250094  14.572   6.536   9.799
16088SOL     OW50095   9.487   4.524   9.420
16088SOL    HW150096   9.455   4.518   9.330
16088SOL    HW250097   9.470   4.614   9.446
16089SOL     OW50098  11.179   6.149   9.764
16089SOL    HW150099  11.148   6.238   9.784
16089SOL    HW250100  11.150   6.133   9.675
16090SOL     OW50101  10.486  11.880  13.537
16090SOL    HW150102  10.495  11.882  13.632
16090SOL    HW250103  10.401  11.839  13.521
16091SOL     OW50104   7.448   4.174   8.121
16091SOL    HW150105   7.535   4.156   8.156
16091SOL    HW250106   7.418   4.090   8.086
16092SOL     OW50107  12.448  14.349   4.269
16092SOL    HW150108  12.451  14.408   4.344
16092SOL    HW250109  12.415  14.403   4.198
16093SOL     OW50110   4.779   8.557  13.635
16093SOL    HW150111   4.722   8.483  13.653
16093SOL    HW250112   4.827   8.531  13.556
16094SOL     OW50113   8.047   1.955   1.573
16094SOL    HW150114   7.980   1.954   1.641
16094SOL    HW250115   8.075   2.046   1.568
16095SOL     OW50116   3.400  12.152  12.916
16095SOL    HW150117   3.443  12.175  12.834
16095SOL    HW250118   3.339  12.224  12.933
16096SOL     OW50119  14.202   7.073   7.754
16096SOL    HW150120  14.282   7.101   7.709
16096SOL    HW250121  14.179   6.991   7.712
16097SOL     OW50122  11.328  14.030  11.901
16097SOL    HW150123  11.344  14.035  11.807
16097SOL    HW250124  11.416  14.030  11.939
16098SOL     OW50125   4.226   8.174  10.524
16098SOL    HW150126   4.139   8.193  10.490
16098SOL    HW250127   4.240   8.240  10.592
16099SOL     OW50128  10.619  10.898  13.663
16099SOL    HW150129  10.695  10.841  13.651
16099SOL    HW250130  10.577  10.900  13.577
16100SOL     OW50131   8.678   1.151   0.282
16100SOL    HW150132   8.686   1.134   0.188
16100SOL    HW250133   8.610   1.218   0.288
16101SOL     OW50134   1.732   0.250   9.658
16101SOL    HW150135   1.795   0.223   9.724
16101SOL    HW250136   1.784   0.302   9.596
16102SOL     OW50137  10.634   8.699  10.941
16102SOL    HW150138  10.587   8.622  10.973
16102SOL    HW250139  10.692   8.665  10.872
16103SOL     OW50140   5.874  13.289   8.757
16103SOL    HW150141   5.819  13.367   8.768
16103SOL    HW250142   5.962  13.317   8.782
16104SOL     OW50143   4.153   7.186  14.824
16104SOL    HW150144   4.152   7.258  14.761
16104SOL    HW250145   4.223   7.128  14.793
16105SOL     OW50146   4.755  13.077  11.450
16105SOL    HW150147   4.749  13.139  11.523
16105SOL    HW250148   4.698  13.004  11.476
16106SOL     OW50149  14.527  14.343  11.360
16106SOL    HW150150  14.542  14.267  11.305
16106SOL    HW250151  14.485  14.407  11.302
16107SOL     OW50152  11.794   1.195   5.365
16107SOL    HW150153  11.745   1.214   5.444
16107SOL    HW250154  11.876   1.245   5.375
16108SOL     OW50155   9.592   3.743   5.293
16108SOL    HW150156   9.535   3.723   5.219
16108SOL    HW250157   9.532   3.767   5.364
16109SOL     OW50158   8.904   2.814   4.949
16109SOL    HW150159   8.873   2.887   5.003
16109SOL    HW250160   8.828   2.756   4.942
16110SOL     OW50161   5.793   9.680  10.820
16110SOL    HW150162   5.829   9.688  10.731
16110SOL    HW250163   5.860   9.721  10.875
16111SOL     OW50164   8.215   2.743   3.200
16111SOL    HW150165   8.289   2.689   3.172
16111SOL    HW250166   8.220   2.740   3.296
16112SOL     OW50167   7.421   1.025  14.399
16112SOL    HW150168   7.396   1.031  14.307
16112SOL    HW250169   7.507   1.066  14.403
16113SOL     OW50170   6.369   1.609  13.268
16113SOL    HW150171   6.336   1.565  13.347
16113SOL    HW250172   6.357   1.544  13.199
16114SOL     OW50173  13.270  14.740   2.528
16114SOL    HW150174  13.248  14.833   2.532
16114SOL    HW250175  13.230  14.711   2.445
16115SOL     OW50176  10.271   9.971   8.260
16115SOL    HW150177  10.247   9.945   8.349
16115SOL    HW250178  10.350   9.922   8.241
16116SOL     OW50179   3.962   1.171  12.544
16116SOL    HW150180   3.970   1.222  12.625
16116SOL    HW250181   3.871   1.180  12.518
16117SOL     OW50182   9.656   8.297   1.161
16117SOL    HW150183   9.654   8.315   1.255
16117SOL    HW250184   9.567   8.270   1.140
16118SOL     OW50185   7.745   8.408   1.399
16118SOL    HW150186   7.751   8.502   1.410
16118SOL    HW250187   7.687   8.379   1.469
16119SOL     OW50188   2.833   9.524  11.209
16119SOL    HW150189   2.744   9.536  11.240
16119SOL    HW250190   2.876   9.608  11.226
16120SOL     OW50191  11.105   1.304  14.035
16120SOL    HW150192  11.021   1.265  14.012
16120SOL    HW250193  11.104   1.310  14.130
16121SOL     OW50194  11.239  12.406   1.100
16121SOL    HW150195  11.192  12.338   1.052
16121SOL    HW250196  11.233  12.378   1.192
16122SOL     OW50197   2.725   0.489   5.476
16122SOL    HW150198   2.756   0.542   5.402
16122SOL    HW250199   2.631   0.505   5.479
16123SOL     OW50200   2.540   3.072   4.501
16123SOL    HW150201   2.552   3.160   4.466
16123SOL    HW250202   2.524   3.017   4.424
16124SOL     OW50203   6.155   9.030   2.586
16124SOL    HW150204   6.144   8.991   2.500
16124SOL    HW250205   6.196   8.962   2.639
16125SOL     OW50206   6.525   3.594   5.742
16125SOL    HW150207   6.545   3.610   5.834
16125SOL    HW250208   6.606   3.558   5.706
16126SOL     OW50209  10.767   6.443   0.757
16126SOL    HW150210  10.745   6.485   0.840
16126SOL    HW250211  10.785   6.351   0.780
16127SOL     OW50212   4.141   6.517   5.874
16127SOL    HW150213   4.101   6.587   5.823
16127SOL    HW250214   4.223   6.555   5.906
16128SOL     OW50215   9.078   5.862  12.910
16128SOL    HW150216   9.038   5.794  12.963
16128SOL    HW250217   9.164   5.827  12.886
16129SOL     OW50218  10.260   2.782  13.279
16129SOL    HW150219  10.352   2.759  13.288
16129SOL    HW250220  10.231   2.798  13.368
16130SOL     OW50221   0.217  10.695  12.704
16130SOL    HW150222   0.206  10.790  12.715
16130SOL    HW250223   0.257  10.666  12.785
16131SOL     OW50224   9.106  14.038  11.648
16131SOL    HW150225   9.059  14.103  11.701
16131SOL    HW250226   9.165  14.090  11.594
16132SOL     OW50227   2.480   2.888   4.253
16132SOL    HW150228   2.420   2.920   4.186
16132SOL    HW250229   2.509   2.803   4.220
16133SOL     OW50230   5.928  11.338   7.479
16133SOL    HW150231   6.019  11.359   7.460
16133SOL    HW250232   5.925  11.243   7.481
16134SOL     OW50233  12.624   4.592  11.794
16134SOL    HW150234  12.553   4.654  11.774
16134SOL    HW250235  12.624   4.532  11.720
16135SOL     OW50236   8.253   9.071   4.082
16135SOL    HW150237   8.194   9.069   4.158
16135SOL    HW250238   8.239   8.987   4.039
16136SOL     OW50239   9.277   7.428   5.602
16136SOL    HW150240   9.364   7.426   5.642
16136SOL    HW250241   9.222   7.474   5.665
16137SOL     OW50242  14.019   9.901   0.307
16137SOL    HW150243  13.935   9.907   0.262
16137SOL    HW250244  14.034   9.989   0.341
16138SOL     OW50245   7.458   1.559   0.359
16138SOL    HW150246   7.459   1.536   0.267
16138SOL    HW250247   7.385   1.621   0.367
16139SOL     OW50248  10.162   5.926   2.993
16139SOL    HW150249  10.153   5.939   2.898
16139SOL    HW250250  10.085   5.970   3.030
16140SOL     OW50251  10.246   4.965  12.258
16140SOL    HW150252  10.294   4.922  12.329
16140SOL    HW250253  10.170   5.005  12.302
16141SOL     OW50254   7.552   6.423   8.688
16141SOL    HW150255   7.599   6.352   8.732
16141SOL    HW250256   7.588   6.425   8.600
16142SOL     OW50257  10.502   1.679  14.417
16142SOL    HW150258  10.407   1.676  14.423
16142SOL    HW250259  10.522   1.630  14.337
16143SOL     OW50260   8.294  11.086   1.663
16143SOL    HW150261   8.343  11.155   1.708
16143SOL    HW250262   8.210  11.127   1.641
16144SOL     OW50263   5.052   6.841   5.377
16144SOL    HW150264   4.983   6.866   5.439
16144SOL    HW250265   5.123   6.904   5.393
16145SOL     OW50266   1.943   3.769   6.123
16145SOL    HW150267   1.967   3.720   6.202
16145SOL    HW250268   2.027   3.801   6.089
16146SOL     OW50269   7.338  13.357   3.955
16146SOL    HW150270   7.269  13.306   3.912
16146SOL    HW250271   7.299  13.385   4.038
16147SOL     OW50272   0.275   1.051   9.183
16147SOL    HW150273   0.263   1.024   9.092
16147SOL    HW250274   0.315   0.975   9.225
16148SOL     OW50275   8.269  10.430   0.628
16148SOL    HW150276   8.272  10.522   0.654
16148SOL    HW250277   8.292  10.430   0.535
16149SOL     OW50278   7.927  10.636  11.171
16149SOL    HW150279   7.878  10.570  11.122
16149SOL    HW250280   8.010  10.593  11.192
16150SOL     OW50281   3.111  10.057  11.484
16150SOL    HW150282   3.189  10.112  11.497
16150SOL    HW250283   3.093  10.020  11.571
16151SOL     OW50284   2.100   9.455   5.482
16151SOL    HW150285   2.016   9.411   5.499
16151SOL    HW250286   2.144   9.457   5.567
16152SOL     OW50287   2.200  12.273   4.624
16152SOL    HW150288   2.133  12.210   4.597
16152SOL    HW250289   2.224  12.246   4.712
16153SOL     OW50290   0.696  10.826   2.928
16153SOL    HW150291   0.668  10.828   2.837
16153SOL    HW250292   0.719  10.917   2.948
16154SOL     OW50293  12.422   0.311   9.822
16154SOL    HW150294  12.463   0.369   9.758
16154SOL    HW250295  12.370   0.251   9.770
16155SOL     OW50296  13.395   3.070   7.939
16155SOL    HW150297  13.488   3.045   7.938
16155SOL    HW250298  13.353   3.003   7.993
16156SOL     OW50299   5.000  13.771   3.188
16156SOL    HW150300   5.061  13.794   3.119
16156SOL    HW250301   5.029  13.822   3.264
16157SOL     OW50302   0.933  12.350   3.915
16157SOL    HW150303   0.974  12.367   3.830
16157SOL    HW250304   0.862  12.289   3.896
16158SOL     OW50305   8.383   7.514   6.039
16158SOL    HW150306   8.291   7.529   6.015
16158SOL    HW250307   8.384   7.518   6.135
16159SOL     OW50308  14.831   2.402  13.107
16159SOL    HW150309  14.872   2.317  13.123
16159SOL    HW250310  14.805   2.432  13.194
16160SOL     OW50311   1.307  11.072   4.146
16160SOL    HW150312   1.354  11.079   4.063
16160SOL    HW250313   1.215  11.087   4.123
16161SOL     OW50314  10.593   8.489   7.638
16161SOL    HW150315  10.662   8.480   7.705
16161SOL    HW250316  10.639   8.524   7.562
16162SOL     OW50317   2.860  12.952   2.223
16162SOL    HW150318   2.772  12.955   2.260
16162SOL    HW250319   2.914  12.916   2.293
16163SOL     OW50320   9.009   6.626   9.982
16163SOL    HW150321   9.037   6.713  10.009
16163SOL    HW250322   8.914   6.625   9.996
16164SOL     OW50323   2.474   1.924   7.482
16164SOL    HW150324   2.427   1.924   7.399
16164SOL    HW250325   2.539   1.854   7.473
16165SOL     OW50326   1.124   7.542   3.195
16165SOL    HW150327   1.071   7.512   3.269
16165SOL    HW250328   1.072   7.612   3.155
16166SOL     OW50329  13.502   6.934   8.301
16166SOL    HW150330  13.449   7.014   8.299
16166SOL    HW250331  13.494   6.898   8.212
16167SOL     OW50332   9.235  14.659   7.758
16167SOL    HW150333   9.196  14.579   7.724
16167SOL    HW250334   9.303  14.682   7.694
16168SOL     OW50335   7.159   0.446   7.209
16168SOL    HW150336   7.155   0.484   7.121
16168SOL    HW250337   7.084   0.386   7.212
16169SOL     OW50338  10.447  11.158   3.801
16169SOL    HW150339  10.487  11.245   3.791
16169SOL    HW250340  10.511  11.098   3.763
16170SOL     OW50341   9.796   5.717   3.229
16170SOL    HW150342   9.753   5.762   3.302
16170SOL    HW250343   9.771   5.768   3.152
16171SOL     OW50344   4.465   9.296  10.342
16171SOL    HW150345   4.488   9.325  10.254
16171SOL    HW250346   4.515   9.352  10.401
16172SOL     OW50347  11.686  14.372  14.729
16172SOL    HW150348  11.685  14.460  14.690
16172SOL    HW250349  11.622  14.377  14.801
16173SOL     OW50350   4.448   8.646   7.825
16173SOL    HW150351   4.480   8.562   7.857
16173SOL    HW250352   4.422   8.629   7.735
16174SOL     OW50353   5.138  13.928  11.460
16174SOL    HW150354   5.086  13.980  11.399
16174SOL    HW250355   5.210  13.895  11.408
16175SOL     OW50356  12.189  10.488   1.851
16175SOL    HW150357  12.209  10.404   1.810
16175SOL    HW250358  12.162  10.544   1.778
16176SOL     OW50359   1.458   7.621   6.946
16176SOL    HW150360   1.375   7.585   6.975
16176SOL    HW250361   1.524   7.580   7.002
16177SOL     OW50362   2.025  14.586  11.561
16177SOL    HW150363   2.082  14.662  11.553
16177SOL    HW250364   2.074  14.525  11.617
16178SOL     OW50365  11.179  10.427   9.075
16178SOL    HW150366  11.133  10.356   9.029
16178SOL    HW250367  11.194  10.392   9.163
16179SOL     OW50368   0.686   6.662   9.934
16179SOL    HW150369   0.599   6.622   9.935
16179SOL    HW250370   0.670   6.752   9.905
16180SOL     OW50371   1.106   8.054   8.304
16180SOL    HW150372   1.060   8.031   8.385
16180SOL    HW250373   1.062   8.002   8.237
16181SOL     OW50374   1.821  10.769  10.054
16181SOL    HW150375   1.845  10.726  10.136
16181SOL    HW250376   1.725  10.773  10.056
16182SOL     OW50377   1.547  13.977   0.995
16182SOL    HW150378   1.465  13.953   1.038
16182SOL    HW250379   1.615  13.942   1.052
16183SOL     OW50380  11.398  10.768   8.533
16183SOL    HW150381  11.453  10.750   8.610
16183SOL    HW250382  11.458  10.763   8.459
16184SOL     OW50383   6.460   6.141  10.632
16184SOL    HW150384   6.457   6.132  10.537
16184SOL    HW250385   6.387   6.087  10.664
16185SOL     OW50386  10.531   2.338  11.166
16185SOL    HW150387  10.539   2.282  11.088
16185SOL    HW250388  10.621   2.352  11.195
16186SOL     OW50389   0.576   6.095  13.727
16186SOL    HW150390   0.617   6.148  13.796
16186SOL    HW250391   0.485   6.086  13.754
16187SOL     OW50392   8.520  13.644  11.134
16187SOL    HW150393   8.448  13.667  11.192
16187SOL    HW250394   8.598  13.681  11.177
16188SOL     OW50395   7.512  12.517  11.978
16188SOL    HW150396   7.491  12.550  11.891
16188SOL    HW250397   7.463  12.574  12.038
16189SOL     OW50398   2.467  13.318   5.236
16189SOL    HW150399   2.561  13.316   5.255
16189SOL    HW250400   2.461  13.290   5.145
16190SOL     OW50401  13.807   2.816  11.629
16190SOL    HW150402  13.852   2.865  11.560
16190SOL    HW250403  13.793   2.729  11.592
16191SOL     OW50404   0.164  10.312  12.913
16191SOL    HW150405   0.163  10.386  12.974
16191SOL    HW250406   0.249  10.316  12.871
16192SOL     OW50407  10.525   2.536   8.100
16192SOL    HW150408  10.602   2.531   8.043
16192SOL    HW250409  10.451   2.542   8.040
16193SOL     OW50410   0.131  10.383   0.632
16193SOL    HW150411   0.076  10.304   0.626
16193SOL    HW250412   0.206  10.364   0.577
16194SOL     OW50413   3.517   1.069   3.992
16194SOL    HW150414   3.562   1.004   4.045
16194SOL    HW250415   3.565   1.070   3.909
16195SOL     OW50416  13.925   8.790   3.814
16195SOL    HW150417  13.909   8.764   3.723
16195SOL    HW250418  13.853   8.751   3.863
16196SOL     OW50419   3.868  13.861   7.131
16196SOL    HW150420   3.953  13.841   7.091
16196SOL    HW250421   3.839  13.941   7.087
16197SOL     OW50422   4.087   2.960   5.732
16197SOL    HW150423   4.167   2.999   5.697
16197SOL    HW250424   4.104   2.950   5.826
16198SOL     OW50425   8.003   2.830   9.574
16198SOL    HW150426   8.080   2.792   9.532
16198SOL    HW250427   7.930   2.775   9.546
16199SOL     OW50428   3.085   0.684  12.316
16199SOL    HW150429   3.064   0.596  12.345
16199SOL    HW250430   3.181   0.685  12.308
16200SOL     OW50431   9.461  14.445   5.916
16200SOL    HW150432   9.402  14.501   5.867
16200SOL    HW250433   9.510  14.397   5.848
16201SOL     OW50434   3.476  13.149   7.737
16201SOL    HW150435   3.464  13.093   7.814
16201SOL    HW250436   3.449  13.236   7.767
16202SOL     OW50437   7.880   4.797   1.618
16202SOL    HW150438   7.879   4.799   1.522
16202SOL    HW250439   7.887   4.889   1.644
16203SOL     OW50440  12.959   7.905   2.869
16203SOL    HW150441  12.868   7.879   2.882
16203SOL    HW250442  13.007   7.861   2.939
16204SOL     OW50443  11.839  10.874  12.748
16204SOL    HW150444  11.859  10.966  12.732
16204SOL    HW250445  11.754  10.860  12.707
16205SOL     OW50446   4.397   4.991   6.625
16205SOL    HW150447   4.414   4.912   6.573
16205SOL    HW250448   4.455   4.982   6.700
16206SOL     OW50449   4.334  10.245  13.494
16206SOL    HW150450   4.369  10.266  13.580
16206SOL    HW250451   4.272  10.316  13.475
16207SOL     OW50452   2.315   6.897  14.578
16207SOL    HW150453   2.404   6.907  14.544
16207SOL    HW250454   2.306   6.803  14.592
16208SOL     OW50455   1.706  14.697  12.311
16208SOL    HW150456   1.782  14.753  12.297
16208SOL    HW250457   1.741  14.619  12.354
16209SOL     OW50458  10.998   9.357   7.615
16209SOL    HW150459  10.996   9.419   7.542
16209SOL    HW250460  11.048   9.283   7.582
16210SOL     OW50461   4.219   4.876   7.401
16210SOL    HW150462   4.133   4.917   7.410
16210SOL    HW250463   4.282   4.947   7.417
16211SOL     OW50464   5.063   8.535   9.609
16211SOL    HW150465   5.132   8.499   9.665
16211SOL    HW250466   5.036   8.615   9.654
16212SOL     OW50467   8.579   7.501   2.798
16212SOL    HW150468   8.508   7.565   2.789
16212SOL    HW250469   8.554   7.428   2.741
16213SOL     OW50470   9.699   8.243  10.402
16213SOL    HW150471   9.685   8.314  10.465
16213SOL    HW250472   9.701   8.286  10.317
16214SOL     OW50473   6.685   2.708   4.560
16214SOL    HW150474   6.729   2.779   4.513
16214SOL    HW250475   6.666   2.745   4.647
16215SOL     OW50476  10.753  14.415   7.858
16215SOL    HW150477  10.830  14.428   7.803
16215SOL    HW250478  10.774  14.460   7.940
16216SOL     OW50479  11.591   2.596   6.548
16216SOL    HW150480  11.595   2.617   6.455
16216SOL    HW250481  11.657   2.528   6.560
16217SOL     OW50482   2.680   7.100   1.421
16217SOL    HW150483   2.650   7.095   1.512
16217SOL    HW250484   2.723   7.015   1.406
16218SOL     OW50485  14.404   7.657  13.623
16218SOL    HW150486  14.438   7.577  13.665
16218SOL    HW250487  14.453   7.664  13.541
16219SOL     OW50488   6.082  14.378  13.149
16219SOL    HW150489   6.172  14.346  13.153
16219SOL    HW250490   6.064  14.409  13.238
16220SOL     OW50491   4.537  14.422  10.833
16220SOL    HW150492   4.529  14.387  10.921
16220SOL    HW250493   4.497  14.355  10.777
16221SOL     OW50494   3.992   5.022  12.109
16221SOL    HW150495   4.080   5.035  12.073
16221SOL    HW250496   4.004   4.964  12.184
16222SOL     OW50497   5.746   1.593   5.774
16222SOL    HW150498   5.823   1.597   5.830
16222SOL    HW250499   5.766   1.651   5.701
16223SOL     OW50500  11.793  10.688   4.279
16223SOL    HW150501  11.849  10.765   4.274
16223SOL    HW250502  11.711  10.720   4.316
16224SOL     OW50503   5.948  12.766   5.059
16224SOL    HW150504   5.969  12.675   5.078
16224SOL    HW250505   5.941  12.769   4.963
16225SOL     OW50506   4.140   4.285  14.366
16225SOL    HW150507   4.215   4.283  14.426
16225SOL    HW250508   4.125   4.378  14.349
16226SOL     OW50509  12.386  10.476  11.906
16226SOL    HW150510  12.378  10.423  11.986
16226SOL    HW250511  12.342  10.425  11.839
16227SOL     OW50512   1.792   5.104   7.397
16227SOL    HW150513   1.833   5.177   7.443
16227SOL    HW250514   1.842   5.096   7.316
16228SOL     OW50515  10.539  12.141   9.263
16228SOL    HW150516  10.609  12.080   9.238
16228SOL    HW250517  10.585  12.217   9.298
16229SOL     OW50518  14.515   5.316   1.166
16229SOL    HW150519  14.442   5.360   1.123
16229SOL    HW250520  14.578   5.386   1.183
16230SOL     OW50521   0.613  12.040  12.780
16230SOL    HW150522   0.553  12.098  12.734
16230SOL    HW250523   0.685  12.096  12.806
16231SOL     OW50524   3.770   9.532   3.137
16231SOL    HW150525   3.840   9.586   3.173
16231SOL    HW250526   3.702   9.531   3.205
16232SOL     OW50527  14.446   9.974   7.943
16232SOL    HW150528  14.494   9.995   7.862
16232SOL    HW250529  14.372   9.921   7.913
16233SOL     OW50530   7.695   8.862   3.566
16233SOL    HW150531   7.633   8.906   3.509
16233SOL    HW250532   7.723   8.785   3.516
16234SOL     OW50533   1.054   5.879   1.973
16234SOL    HW150534   1.029   5.908   2.061
16234SOL    HW250535   1.126   5.936   1.948
16235SOL     OW50536   8.262   3.279   3.615
16235SOL    HW150537   8.232   3.282   3.525
16235SOL    HW250538   8.325   3.207   3.618
16236SOL     OW50539  14.484   4.419   3.629
16236SOL    HW150540  14.438   4.443   3.709
16236SOL    HW250541  14.570   4.388   3.658
16237SOL     OW50542   9.621   0.318   9.324
16237SOL    HW150543   9.574   0.246   9.365
16237SOL    HW250544   9.574   0.333   9.242
16238SOL     OW50545  13.231   6.027   0.424
16238SOL    HW150546  13.238   6.021   0.328
16238SOL    HW250547  13.258   5.940   0.455
16239SOL     OW50548   2.302   9.888   6.440
16239SOL    HW150549   2.217   9.927   6.421
16239SOL    HW250550   2.362   9.963   6.441
16240SOL     OW50551  13.357   8.184   6.167
16240SOL    HW150552  13.274   8.210   6.207
16240SOL    HW250553  13.394   8.119   6.226
16241SOL     OW50554  12.900  11.549   6.925
16241SOL    HW150555  12.873  11.565   7.015
16241SOL    HW250556  12.820  11.564   6.873
16242SOL     OW50557   3.625   0.609  10.512
16242SOL    HW150558   3.627   0.689  10.459
16242SOL    HW250559   3.717   0.582  10.518
16243SOL     OW50560  13.504   7.688   8.567
16243SOL    HW150561  13.552   7.609   8.591
16243SOL    HW250562  13.553   7.759   8.607
16244SOL     OW50563   2.416  11.611   1.406
16244SOL    HW150564   2.481  11.680   1.419
16244SOL    HW250565   2.418  11.560   1.487
16245SOL     OW50566  13.269   3.579  14.110
16245SOL    HW150567  13.339   3.645  14.108
16245SOL    HW250568  13.188   3.630  14.108
16246SOL     OW50569   1.235   1.426  10.808
16246SOL    HW150570   1.175   1.352  10.812
16246SOL    HW250571   1.249   1.451  10.899
16247SOL     OW50572  14.085  13.110   9.580
16247SOL    HW150573  14.055  13.099   9.490
16247SOL    HW250574  14.087  13.204   9.594
16248SOL     OW50575  14.762   0.121   9.701
16248SOL    HW150576  14.693   0.060   9.727
16248SOL    HW250577  14.734   0.205   9.738
16249SOL     OW50578   4.103   4.036   4.041
16249SOL    HW150579   4.044   3.975   4.086
16249SOL    HW250580   4.093   4.015   3.948
16250SOL     OW50581   4.151  10.177   9.339
16250SOL    HW150582   4.222  10.166   9.402
16250SOL    HW250583   4.072  10.149   9.386
16251SOL     OW50584   0.361  11.869   2.095
16251SOL    HW150585   0.416  11.831   2.026
16251SOL    HW250586   0.351  11.961   2.070
16252SOL     OW50587   7.008  12.770   1.685
16252SOL    HW150588   7.020  12.865   1.687
16252SOL    HW250589   7.018  12.748   1.592
16253SOL     OW50590   8.834  10.676   9.105
16253SOL    HW150591   8.802  10.586   9.097
16253SOL    HW250592   8.866  10.697   9.017
16254SOL     OW50593  10.528  14.317   9.664
16254SOL    HW150594  10.511  14.411   9.653
16254SOL    HW250595  10.449  14.284   9.707
16255SOL     OW50596  13.625   6.748  13.769
16255SOL    HW150597  13.711   6.719  13.740
16255SOL    HW250598  13.633   6.755  13.865
16256SOL     OW50599   6.785   9.427   6.948
16256SOL    HW150600   6.821   9.444   6.861
16256SOL    HW250601   6.715   9.492   6.958
16257SOL     OW50602  12.437   2.108   7.000
16257SOL    HW150603  12.452   2.155   6.918
16257SOL    HW250604  12.343   2.094   7.004
16258SOL     OW50605   0.507  10.316   0.895
16258SOL    HW150606   0.418  10.310   0.928
16258SOL    HW250607   0.507  10.394   0.840
16259SOL     OW50608  14.759  10.904   8.224
16259SOL    HW150609  14.843  10.874   8.258
16259SOL    HW250610  14.694  10.856   8.276
16260SOL     OW50611   9.627   0.854   8.058
16260SOL    HW150612   9.644   0.853   8.152
16260SOL    HW250613   9.699   0.805   8.019
16261SOL     OW50614   7.665   4.275   0.747
16261SOL    HW150615   7.617   4.249   0.668
16261SOL    HW250616   7.735   4.211   0.755
16262SOL     OW50617  13.547   8.690   6.797
16262SOL    HW150618  13.635   8.658   6.779
16262SOL    HW250619  13.505   8.698   6.711
16263SOL     OW50620   4.237  14.207  14.265
16263SOL    HW150621   4.283  14.124  14.267
16263SOL    HW250622   4.304  14.272  14.289
16264SOL     OW50623   6.703   1.978  14.016
16264SOL    HW150624   6.703   1.983  13.920
16264SOL    HW250625   6.728   1.887  14.035
16265SOL     OW50626  10.212   4.005   1.841
16265SOL    HW150627  10.217   4.017   1.936
16265SOL    HW250628  10.301   3.981   1.815
16266SOL     OW50629   9.865  12.221   3.880
16266SOL    HW150630   9.866  12.155   3.948
16266SOL    HW250631   9.793  12.196   3.822
16267SOL     OW50632   9.414   7.710  14.118
16267SOL    HW150633   9.346   7.762  14.161
16267SOL    HW250634   9.366   7.642  14.070
16268SOL     OW50635  10.373   3.657   0.604
16268SOL    HW150636  10.459   3.621   0.623
16268SOL    HW250637  10.357   3.635   0.512
16269SOL     OW50638  12.305   9.669   1.852
16269SOL    HW150639  12.250   9.735   1.809
16269SOL    HW250640  12.379   9.657   1.792
16270SOL     OW50641   1.017   8.376   3.756
16270SOL    HW150642   0.974   8.435   3.694
16270SOL    HW250643   1.092   8.341   3.707
16271SOL     OW50644   3.723   8.129  12.704
16271SOL    HW150645   3.704   8.055  12.646
16271SOL    HW250646   3.762   8.090  12.782
16272SOL     OW50647  13.812   6.368   6.369
16272SOL    HW150648  13.723   6.365   6.404
16272SOL    HW250649  13.808   6.318   6.288
16273SOL     OW50650   1.575  13.630  14.058
16273SOL    HW150651   1.531  13.606  14.140
16273SOL    HW250652   1.653  13.575  14.057
16274SOL     OW50653  11.052   5.715  12.650
16274SOL    HW150654  11.090   5.635  12.685
16274SOL    HW250655  10.958   5.703  12.658
16275SOL     OW50656   3.239   9.791   0.724
16275SOL    HW150657   3.300   9.859   0.694
16275SOL    HW250658   3.166   9.795   0.662
16276SOL     OW50659  13.158   0.505   9.961
16276SOL    HW150660  13.107   0.505   9.880
16276SOL    HW250661  13.243   0.470   9.935
16277SOL     OW50662   6.215   0.488   1.076
16277SOL    HW150663   6.164   0.568   1.063
16277SOL    HW250664   6.156   0.431   1.126
16278SOL     OW50665  10.488   0.090   5.000
16278SOL    HW150666  10.539   0.050   4.930
16278SOL    HW250667  10.490   0.184   4.980
16279SOL     OW50668  11.651   0.890  10.369
16279SOL    HW150669  11.726   0.949  10.362
16279SOL    HW250670  11.576   0.944  10.344
16280SOL     OW50671  13.758   8.756   7.147
16280SOL    HW150672  13.704   8.792   7.077
16280SOL    HW250673  13.741   8.814   7.222
16281SOL     OW50674   3.038   4.085   5.434
16281SOL    HW150675   3.018   4.128   5.517
16281SOL    HW250676   3.133   4.088   5.427
16282SOL     OW50677   1.380  13.915   9.986
16282SOL    HW150678   1.287  13.898   9.972
16282SOL    HW250679   1.383  13.983  10.052
16283SOL     OW50680  12.480  14.386  10.345
16283SOL    HW150681  12.549  14.427  10.398
16283SOL    HW250682  12.517  14.384  10.257
16284SOL     OW50683   3.681   8.191   8.848
16284SOL    HW150684   3.638   8.156   8.926
16284SOL    HW250685   3.774   8.181   8.866
16285SOL     OW50686   7.917   3.764   1.106
16285SOL    HW150687   8.003   3.788   1.072
16285SOL    HW250688   7.921   3.668   1.113
16286SOL     OW50689  12.511   2.630   6.628
16286SOL    HW150690  12.512   2.720   6.660
16286SOL    HW250691  12.485   2.638   6.536
16287SOL     OW50692   2.348   6.305  13.186
16287SOL    HW150693   2.296   6.233  13.221
16287SOL    HW250694   2.379   6.274  13.101
16288SOL     OW50695   3.574   2.484   2.009
16288SOL    HW150696   3.616   2.444   2.085
16288SOL    HW250697   3.481   2.461   2.017
16289SOL     OW50698   3.873   1.419   3.657
16289SOL    HW150699   3.963   1.424   3.626
16289SOL    HW250700   3.873   1.347   3.720
16290SOL     OW50701   7.020   3.388   9.984
16290SOL    HW150702   7.023   3.348   9.897
16290SOL    HW250703   6.937   3.437   9.985
16291SOL     OW50704  10.895   2.249   2.295
16291SOL    HW150705  10.863   2.316   2.235
16291SOL    HW250706  10.901   2.169   2.242
16292SOL     OW50707   3.223   2.595  10.069
16292SOL    HW150708   3.230   2.635   9.982
16292SOL    HW250709   3.165   2.520  10.057
16293SOL     OW50710   1.313  12.690   2.683
16293SOL    HW150711   1.345  12.628   2.617
16293SOL    HW250712   1.393  12.728   2.720
16294SOL     OW50713   1.398   3.802   9.510
16294SOL    HW150714   1.416   3.876   9.453
16294SOL    HW250715   1.429   3.726   9.460
16295SOL     OW50716   6.062   3.358   0.735
16295SOL    HW150717   6.068   3.349   0.640
16295SOL    HW250718   6.101   3.277   0.769
16296SOL     OW50719   7.539  13.915   2.694
16296SOL    HW150720   7.517  14.007   2.709
16296SOL    HW250721   7.502  13.896   2.607
16297SOL     OW50722   3.149   6.020  14.320
16297SOL    HW150723   3.159   6.082  14.249
16297SOL    HW250724   3.236   5.980  14.330
16298SOL     OW50725   7.918  10.606   0.176
16298SOL    HW150726   7.994  10.651   0.138
16298SOL    HW250727   7.922  10.625   0.269
16299SOL     OW50728   4.542   0.235  10.013
16299SOL    HW150729   4.450   0.246  10.037
16299SOL    HW250730   4.587   0.307  10.056
16300SOL     OW50731   0.464   2.969   1.140
16300SOL    HW150732   0.463   2.925   1.055
16300SOL    HW250733   0.374   2.963   1.172
16301SOL     OW50734   9.484   3.919  10.139
16301SOL    HW150735   9.506   3.887  10.052
16301SOL    HW250736   9.403   3.967  10.127
16302SOL     OW50737   5.405  12.014  12.649
16302SOL    HW150738   5.353  11.972  12.717
16302SOL    HW250739   5.494  12.016  12.684
16303SOL     OW50740   9.076  12.805   4.112
16303SOL    HW150741   8.994  12.768   4.080
16303SOL    HW250742   9.128  12.729   4.138
16304SOL     OW50743   2.564  12.401   4.828
16304SOL    HW150744   2.475  12.382   4.857
16304SOL    HW250745   2.553  12.450   4.746
16305SOL     OW50746  13.305   2.915   8.221
16305SOL    HW150747  13.231   2.929   8.279
16305SOL    HW250748  13.367   2.985   8.243
16306SOL     OW50749   7.242   1.092  10.159
16306SOL    HW150750   7.325   1.133  10.134
16306SOL    HW250751   7.177   1.162  10.154
16307SOL     OW50752   6.544  11.207  11.751
16307SOL    HW150753   6.616  11.259  11.718
16307SOL    HW250754   6.468  11.266  11.749
16308SOL     OW50755   8.743   7.231  13.548
16308SOL    HW150756   8.794   7.199  13.473
16308SOL    HW250757   8.668   7.275  13.509
16309SOL     OW50758   9.996   1.406  12.438
16309SOL    HW150759   9.950   1.328  12.408
16309SOL    HW250760   9.937   1.444  12.503
16310SOL     OW50761  13.173   3.950   7.978
16310SOL    HW150762  13.251   3.900   8.002
16310SOL    HW250763  13.145   3.990   8.060
16311SOL     OW50764  10.961   3.267   7.673
16311SOL    HW150765  10.935   3.270   7.765
16311SOL    HW250766  10.885   3.231   7.628
16312SOL     OW50767  13.019   3.888  10.277
16312SOL    HW150768  13.028   3.884  10.372
16312SOL    HW250769  13.089   3.831  10.244
16313SOL     OW50770   1.320   0.756   7.242
16313SOL    HW150771   1.276   0.741   7.326
16313SOL    HW250772   1.272   0.701   7.180
16314SOL     OW50773   2.926   1.567   0.842
16314SOL    HW150774   2.882   1.579   0.758
16314SOL    HW250775   2.944   1.473   0.847
16315SOL     OW50776   9.011   5.634   3.421
16315SOL    HW150777   8.939   5.573   3.441
16315SOL    HW250778   9.090   5.580   3.426
16316SOL     OW50779   7.570  13.171   0.015
16316SOL    HW150780   7.563  13.142  14.800
16316SOL    HW250781   7.555  13.092   0.067
16317SOL     OW50782   1.514  13.443   5.654
16317SOL    HW150783   1.580  13.376   5.674
16317SOL    HW250784   1.431  13.403   5.681
16318SOL     OW50785  12.579  14.041  14.227
16318SOL    HW150786  12.632  13.964  14.206
16318SOL    HW250787  12.520  14.051  14.152
16319SOL     OW50788   5.315   9.389   4.967
16319SOL    HW150789   5.354   9.302   4.973
16319SOL    HW250790   5.220   9.373   4.971
16320SOL     OW50791   6.346   2.435   2.594
16320SOL    HW150792   6.308   2.347   2.601
16320SOL    HW250793   6.390   2.448   2.678
16321SOL     OW50794  10.315   7.800   7.049
16321SOL    HW150795  10.269   7.733   7.000
16321SOL    HW250796  10.252   7.831   7.114
16322SOL     OW50797   0.376  13.877   7.270
16322SOL    HW150798   0.303  13.907   7.325
16322SOL    HW250799   0.395  13.789   7.300
16323SOL     OW50800   6.788   9.467  11.869
16323SOL    HW150801   6.842   9.390  11.887
16323SOL    HW250802   6.758   9.456  11.779
16324SOL     OW50803   4.053  12.589  12.195
16324SOL    HW150804   4.032  12.589  12.102
16324SOL    HW250805   4.144  12.559  12.200
16325SOL     OW50806   7.254  11.668   9.551
16325SOL    HW150807   7.160  11.677   9.566
16325SOL    HW250808   7.279  11.588   9.598
16326SOL     OW50809  13.548   2.183  13.519
16326SOL    HW150810  13.602   2.173  13.441
16326SOL    HW250811  13.473   2.235  13.490
16327SOL     OW50812   4.272  14.266   2.991
16327SOL    HW150813   4.209  14.287   2.923
16327SOL    HW250814   4.238  14.187   3.032
16328SOL     OW50815   6.121   2.231   9.915
16328SOL    HW150816   6.186   2.163   9.895
16328SOL    HW250817   6.098   2.267   9.830
16329SOL     OW50818   4.605   6.582   2.585
16329SOL    HW150819   4.551   6.544   2.515
16329SOL    HW250820   4.542   6.625   2.643
16330SOL     OW50821   1.312  13.580   6.382
16330SOL    HW150822   1.389  13.633   6.402
16330SOL    HW250823   1.349  13.496   6.353
16331SOL     OW50824  11.889   5.770   8.533
16331SOL    HW150825  11.930   5.848   8.495
16331SOL    HW250826  11.796   5.791   8.535
16332SOL     OW50827   5.338  11.043  12.616
16332SOL    HW150828   5.413  11.073  12.566
16332SOL    HW250829   5.289  10.987  12.556
16333SOL     OW50830  13.787   4.329   8.193
16333SOL    HW150831  13.742   4.265   8.137
16333SOL    HW250832  13.830   4.388   8.131
16334SOL     OW50833   6.381   3.212   6.054
16334SOL    HW150834   6.369   3.118   6.047
16334SOL    HW250835   6.341   3.234   6.139
16335SOL     OW50836   7.095  10.781  13.923
16335SOL    HW150837   7.043  10.704  13.947
16335SOL    HW250838   7.150  10.750  13.851
16336SOL     OW50839   7.548  14.854   0.324
16336SOL    HW150840   7.465  14.807   0.335
16336SOL    HW250841   7.585  14.818   0.243
16337SOL     OW50842   1.735   8.021   5.053
16337SOL    HW150843   1.806   8.056   5.106
16337SOL    HW250844   1.717   8.090   4.988
16338SOL     OW50845  12.009   7.974   4.782
16338SOL    HW150846  12.029   7.901   4.723
16338SOL    HW250847  11.918   7.960   4.809
16339SOL     OW50848   5.487  10.357  10.109
16339SOL    HW150849   5.525  10.425  10.053
16339SOL    HW250850   5.561  10.304  10.136
16340SOL     OW50851   5.213  11.972   7.764
16340SOL    HW150852   5.148  11.968   7.834
16340SOL    HW250853   5.261  12.053   7.781
16341SOL     OW50854   4.826   4.571   7.026
16341SOL    HW150855   4.905   4.520   7.045
16341SOL    HW250856   4.779   4.575   7.110
16342SOL     OW50857  10.657   5.143   7.930
16342SOL    HW150858  10.635   5.192   7.851
16342SOL    HW250859  10.592   5.172   7.994
16343SOL     OW50860  10.018   7.672  10.329
16343SOL    HW150861   9.934   7.684  10.287
16343SOL    HW250862  10.010   7.717  10.413
16344SOL     OW50863  10.763   6.555   1.684
16344SOL    HW150864  10.748   6.594   1.770
16344SOL    HW250865  10.809   6.622   1.634
16345SOL     OW50866   7.851   4.942   6.782
16345SOL    HW150867   7.885   4.883   6.849
16345SOL    HW250868   7.927   4.994   6.755
16346SOL     OW50869   2.539  13.501   1.562
16346SOL    HW150870   2.484  13.423   1.554
16346SOL    HW250871   2.525  13.531   1.652
16347SOL     OW50872  11.860  12.611   5.449
16347SOL    HW150873  11.922  12.538   5.447
16347SOL    HW250874  11.914  12.688   5.468
16348SOL     OW50875   8.718   4.256   9.721
16348SOL    HW150876   8.773   4.252   9.643
16348SOL    HW250877   8.727   4.170   9.762
16349SOL     OW50878  13.366   6.193  11.200
16349SOL    HW150879  13.318   6.126  11.151
16349SOL    HW250880  13.359   6.165  11.292
16350SOL     OW50881   6.377  12.378  10.282
16350SOL    HW150882   6.322  12.455  10.295
16350SOL    HW250883   6.404  12.384  10.190
16351SOL     OW50884   6.651   7.917  11.042
16351SOL    HW150885   6.698   7.836  11.021
16351SOL    HW250886   6.590   7.892  11.112
16352SOL     OW50887   1.990  14.359   6.610
16352SOL    HW150888   1.917  14.417   6.629
16352SOL    HW250889   1.966  14.276   6.649
16353SOL     OW50890   6.180  11.620  14.169
16353SOL    HW150891   6.264  11.573  14.174
16353SOL    HW250892   6.164  11.649  14.258
16354SOL     OW50893  13.452  14.447  12.539
16354SOL    HW150894  13.546  14.463  12.531
16354SOL    HW250895  13.440  14.355  12.517
16355SOL     OW50896  14.586   0.952   0.708
16355SOL    HW150897  14.554   0.979   0.622
16355SOL    HW250898  14.580   1.031   0.762
16356SOL     OW50899   5.060  12.632   6.361
16356SOL    HW150900   4.990  12.616   6.297
16356SOL    HW250901   5.140  12.638   6.308
16357SOL     OW50902  13.193   4.723   5.421
16357SOL    HW150903  13.113   4.748   5.468
16357SOL    HW250904  13.162   4.671   5.347
16358SOL     OW50905  12.493   3.570   9.551
16358SOL    HW150906  12.472   3.656   9.587
16358SOL    HW250907  12.471   3.509   9.622
16359SOL     OW50908   7.205   6.444   3.371
16359SOL    HW150909   7.243   6.392   3.301
16359SOL    HW250910   7.117   6.466   3.341
16360SOL     OW50911   4.797   1.902  10.675
16360SOL    HW150912   4.808   1.952  10.594
16360SOL    HW250913   4.886   1.887  10.706
16361SOL     OW50914   7.334   3.165  10.669
16361SOL    HW150915   7.369   3.188  10.755
16361SOL    HW250916   7.266   3.231  10.653
16362SOL     OW50917   2.684   7.424  10.633
16362SOL    HW150918   2.656   7.515  10.623
16362SOL    HW250919   2.756   7.414  10.571
16363SOL     OW50920   1.963   7.619  14.027
16363SOL    HW150921   2.006   7.681  14.086
16363SOL    HW250922   2.032   7.591  13.967
16364SOL     OW50923  11.844   6.754  10.200
16364SOL    HW150924  11.753   6.773  10.177
16364SOL    HW250925  11.867   6.678  10.146
16365SOL     OW50926   8.241  11.913   6.820
16365SOL    HW150927   8.283  11.960   6.749
16365SOL    HW250928   8.190  11.979   6.867
16366SOL     OW50929  13.836   1.848   2.439
16366SOL    HW150930  13.888   1.893   2.506
16366SOL    HW250931  13.781   1.917   2.401
16367SOL     OW50932   9.003   3.738   8.844
16367SOL    HW150933   9.090   3.750   8.805
16367SOL    HW250934   9.001   3.645   8.867
16368SOL     OW50935   5.899   1.998  13.398
16368SOL    HW150936   5.973   1.996  13.337
16368SOL    HW250937   5.831   2.046  13.352
16369SOL     OW50938   4.214  11.895   7.324
16369SOL    HW150939   4.266  11.906   7.404
16369SOL    HW250940   4.125  11.876   7.356
16370SOL     OW50941   9.699  13.824  10.789
16370SOL    HW150942   9.698  13.918  10.771
16370SOL    HW250943   9.748  13.786  10.716
16371SOL     OW50944  14.094   3.538   9.401
16371SOL    HW150945  14.009   3.515   9.364
16371SOL    HW250946  14.132   3.455   9.429
16372SOL     OW50947  13.258   9.784  12.922
16372SOL    HW150948  13.247   9.807  12.830
16372SOL    HW250949  13.352   9.797  12.939
16373SOL     OW50950   0.105   8.420   6.406
16373SOL    HW150951   0.137   8.499   6.363
16373SOL    HW250952   0.179   8.359   6.403
16374SOL     OW50953   7.651  12.066   6.634
16374SOL    HW150954   7.735  12.066   6.678
16374SOL    HW250955   7.622  11.975   6.638
16375SOL     OW50956  11.865   1.910   4.800
16375SOL    HW150957  11.948   1.870   4.828
16375SOL    HW250958  11.887   2.001   4.780
16376SOL     OW50959   1.120  13.846  13.516
16376SOL    HW150960   1.064  13.813  13.586
16376SOL    HW250961   1.059  13.870  13.446
16377SOL     OW50962  12.268   3.194   4.264
16377SOL    HW150963  12.255   3.271   4.208
16377SOL    HW250964  12.182   3.153   4.267
16378SOL     OW50965  11.075  10.332   1.150
16378SOL    HW150966  11.058  10.316   1.243
16378SOL    HW250967  11.050  10.423   1.136
16379SOL     OW50968   8.178   9.906  11.103
16379SOL    HW150969   8.273   9.917  11.112
16379SOL    HW250970   8.150   9.874  11.189
16380SOL     OW50971   2.647   7.735  14.605
16380SOL    HW150972   2.683   7.781  14.680
16380SOL    HW250973   2.716   7.740  14.538
16381SOL     OW50974   6.166   0.060  14.852
16381SOL    HW150975   6.227   0.063  14.779
16381SOL    HW250976   6.079   0.061  14.811
16382SOL     OW50977   2.074  11.679   9.280
16382SOL    HW150978   2.051  11.637   9.198
16382SOL    HW250979   2.156  11.636   9.306
16383SOL     OW50980  10.680  14.360  10.706
16383SOL    HW150981  10.663  14.431  10.768
16383SOL    HW250982  10.604  14.359  10.648
16384SOL     OW50983   4.839  11.582   0.733
16384SOL    HW150984   4.744  11.572   0.741
16384SOL    HW250985   4.855  11.585   0.638
16385SOL     OW50986  11.416   2.748   0.732
16385SOL    HW150987  11.485   2.683   0.742
16385SOL    HW250988  11.400   2.780   0.821
16386SOL     OW50989  13.731  12.434  10.033
16386SOL    HW150990  13.640  12.431  10.063
16386SOL    HW250991  13.776  12.370  10.088
16387SOL     OW50992   1.297   3.678  10.415
16387SOL    HW150993   1.211   3.649  10.443
16387SOL    HW250994   1.282   3.764  10.376
16388SOL     OW50995   9.776   8.567   2.203
16388SOL    HW150996   9.686   8.573   2.236
16388SOL    HW250997   9.779   8.483   2.157
16389SOL     OW50998  11.159   5.088   1.140
16389SOL    HW150999  11.119   5.131   1.064
16389SOL    HW251000  11.247   5.124   1.145
16390SOL     OW51001  12.377  11.518   8.570
16390SOL    HW151002  12.434  11.506   8.645
16390SOL    HW251003  12.300  11.564   8.605
16391SOL     OW51004   8.580  10.605   6.801
16391SOL    HW151005   8.649  10.645   6.748
16391SOL    HW251006   8.520  10.566   6.738
16392SOL     OW51007  12.765  14.515  12.670
16392SOL    HW151008  12.764  14.584  12.737
16392SOL    HW251009  12.724  14.440  12.713
16393SOL     OW51010  12.289  14.250   8.587
16393SOL    HW151011  12.267  14.211   8.672
16393SOL    HW251012  12.334  14.179   8.540
16394SOL     OW51013  13.238   6.563  10.572
16394SOL    HW151014  13.283   6.646  10.556
16394SOL    HW251015  13.293   6.519  10.637
16395SOL     OW51016   9.638   6.227  14.408
16395SOL    HW151017   9.564   6.288  14.402
16395SOL    HW251018   9.709   6.279  14.445
16396SOL     OW51019   1.057   6.801   4.859
16396SOL    HW151020   1.006   6.831   4.935
16396SOL    HW251021   1.148   6.805   4.888
16397SOL     OW51022  12.036  12.047  14.828
16397SOL    HW151023  12.084  12.125  14.799
16397SOL    HW251024  11.946  12.062  14.801
16398SOL     OW51025   0.865  11.076  10.090
16398SOL    HW151026   0.914  11.156  10.072
16398SOL    HW251027   0.902  11.044  10.173
16399SOL     OW51028   0.827   5.237   7.867
16399SOL    HW151029   0.779   5.255   7.948
16399SOL    HW251030   0.904   5.293   7.873
16400SOL     OW51031   5.216  10.188   6.636
16400SOL    HW151032   5.152  10.165   6.703
16400SOL    HW251033   5.227  10.283   6.644
16401SOL     OW51034   9.912   0.554   5.443
16401SOL    HW151035   9.822   0.575   5.416
16401SOL    HW251036   9.905   0.468   5.483
16402SOL     OW51037   1.485  13.514   5.360
16402SOL    HW151038   1.461  13.549   5.446
16402SOL    HW251039   1.574  13.481   5.371
16403SOL     OW51040   5.934  13.203   5.273
16403SOL    HW151041   5.981  13.269   5.324
16403SOL    HW251042   6.003  13.151   5.232
16404SOL     OW51043   8.813   8.843  14.477
16404SOL    HW151044   8.786   8.909  14.414
16404SOL    HW251045   8.907   8.834  14.464
16405SOL     OW51046   6.399   1.733   7.066
16405SOL    HW151047   6.307   1.712   7.080
16405SOL    HW251048   6.399   1.824   7.035
16406SOL     OW51049   2.327  12.394   9.036
16406SOL    HW151050   2.254  12.371   9.094
16406SOL    HW251051   2.304  12.481   9.003
16407SOL     OW51052   7.978   7.150   7.888
16407SOL    HW151053   7.996   7.229   7.837
16407SOL    HW251054   7.903   7.109   7.844
16408SOL     OW51055   4.730   9.077  12.888
16408SOL    HW151056   4.672   9.006  12.860
16408SOL    HW251057   4.679   9.126  12.952
16409SOL     OW51058  11.368   2.504   0.253
16409SOL    HW151059  11.292   2.560   0.273
16409SOL    HW251060  11.333   2.439   0.191
16410SOL     OW51061   9.705   7.225  13.610
16410SOL    HW151062   9.694   7.313  13.647
16410SOL    HW251063   9.789   7.195  13.646
16411SOL     OW51064  13.990   3.975   7.097
16411SOL    HW151065  14.031   3.905   7.148
16411SOL    HW251066  13.974   4.044   7.160
16412SOL     OW51067   5.193   5.415   9.393
16412SOL    HW151068   5.179   5.495   9.342
16412SOL    HW251069   5.177   5.344   9.330
16413SOL     OW51070   2.236   9.513   8.889
16413SOL    HW151071   2.179   9.437   8.898
16413SOL    HW251072   2.242   9.526   8.794
16414SOL     OW51073  10.393   0.704   0.115
16414SOL    HW151074  10.380   0.610   0.106
16414SOL    HW251075  10.488   0.715   0.113
16415SOL     OW51076  12.742   2.641  14.300
16415SOL    HW151077  12.654   2.654  14.336
16415SOL    HW251078  12.800   2.688  14.360
16416SOL     OW51079   7.481   9.118   4.096
16416SOL    HW151080   7.388   9.098   4.109
16416SOL    HW251081   7.513   9.048   4.039
16417SOL     OW51082  13.994  13.878   9.222
16417SOL    HW151083  14.074  13.924   9.248
16417SOL    HW251084  13.926  13.945   9.225
16418SOL     OW51085   4.316   7.956   0.347
16418SOL    HW151086   4.231   7.942   0.389
16418SOL    HW251087   4.299   7.946   0.254
16419SOL     OW51088  11.851   7.683  14.650
16419SOL    HW151089  11.848   7.598  14.693
16419SOL    HW251090  11.867   7.745  14.721
16420SOL     OW51091   6.780   9.742   8.699
16420SOL    HW151092   6.755   9.823   8.744
16420SOL    HW251093   6.732   9.745   8.616
16421SOL     OW51094  13.073   4.347  14.607
16421SOL    HW151095  13.102   4.420  14.661
16421SOL    HW251096  12.983   4.330  14.634
16422SOL     OW51097  13.406   3.348  10.438
16422SOL    HW151098  13.495   3.383  10.436
16422SOL    HW251099  13.350   3.425  10.432
16423SOL     OW51100   5.108   8.569   2.626
16423SOL    HW151101   5.200   8.553   2.646
16423SOL    HW251102   5.087   8.506   2.558
16424SOL     OW51103  14.626   5.346  13.584
16424SOL    HW151104  14.602   5.410  13.651
16424SOL    HW251105  14.708   5.308  13.615
16425SOL     OW51106   6.522   5.496  14.549
16425SOL    HW151107   6.577   5.544  14.487
16425SOL    HW251108   6.569   5.414  14.564
16426SOL     OW51109  10.895   2.152  10.991
16426SOL    HW151110  10.980   2.193  11.007
16426SOL    HW251111  10.842   2.221  10.952
16427SOL     OW51112  14.146   7.386  11.411
16427SOL    HW151113  14.125   7.381  11.504
16427SOL    HW251114  14.063   7.369  11.366
16428SOL     OW51115   2.191  11.244   6.658
16428SOL    HW151116   2.188  11.305   6.732
16428SOL    HW251117   2.127  11.278   6.596
16429SOL     OW51118   6.564   0.529   7.304
16429SOL    HW151119   6.606   0.610   7.332
16429SOL    HW251120   6.481   0.527   7.351
16430SOL     OW51121   3.352  10.149   3.021
16430SOL    HW151122   3.415  10.219   3.038
16430SOL    HW251123   3.383  10.110   2.939
16431SOL     OW51124   2.597   8.483   9.236
16431SOL    HW151125   2.639   8.502   9.319
16431SOL    HW251126   2.583   8.388   9.237
16432SOL     OW51127  10.671   9.875   1.123
16432SOL    HW151128  10.673   9.859   1.217
16432SOL    HW251129  10.707   9.963   1.113
16433SOL     OW51130   6.031  12.792   7.515
16433SOL    HW151131   5.955  12.773   7.460
16433SOL    HW251132   6.008  12.757   7.601
16434SOL     OW51133   2.300   5.644   7.531
16434SOL    HW151134   2.274   5.556   7.558
16434SOL    HW251135   2.220   5.684   7.499
16435SOL     OW51136   9.853   2.281   5.327
16435SOL    HW151137   9.913   2.237   5.267
16435SOL    HW251138   9.775   2.225   5.329
16436SOL     OW51139   2.925  13.704   9.515
16436SOL    HW151140   2.874  13.660   9.447
16436SOL    HW251141   2.861  13.726   9.583
16437SOL     OW51142   7.980   3.796   7.622
16437SOL    HW151143   8.004   3.767   7.534
16437SOL    HW251144   7.957   3.889   7.612
16438SOL     OW51145   6.394   9.794   9.467
16438SOL    HW151146   6.383   9.889   9.468
16438SOL    HW251147   6.484   9.781   9.437
16439SOL     OW51148  12.720  13.239   5.632
16439SOL    HW151149  12.640  13.213   5.679
16439SOL    HW251150  12.786  13.176   5.661
16440SOL     OW51151  12.812   6.049   6.345
16440SOL    HW151152  12.905   6.070   6.349
16440SOL    HW251153  12.768   6.133   6.332
16441SOL     OW51154  11.282   9.237  11.455
16441SOL    HW151155  11.298   9.161  11.398
16441SOL    HW251156  11.211   9.284  11.411
16442SOL     OW51157  12.911   3.577  12.456
16442SOL    HW151158  12.920   3.651  12.516
16442SOL    HW251159  12.946   3.503  12.504
16443SOL     OW51160   7.697  10.986   2.481
16443SOL    HW151161   7.630  11.052   2.463
16443SOL    HW251162   7.703  10.984   2.577
16444SOL     OW51163   1.573   0.233   3.288
16444SOL    HW151164   1.497   0.291   3.286
16444SOL    HW251165   1.546   0.159   3.342
16445SOL     OW51166   8.580  12.181   0.018
16445SOL    HW151167   8.612  12.232  14.820
16445SOL    HW251168   8.486  12.200   0.022
16446SOL     OW51169   7.772   9.314   4.330
16446SOL    HW151170   7.747   9.224   4.308
16446SOL    HW251171   7.709   9.368   4.283
16447SOL     OW51172   3.085   4.595   2.263
16447SOL    HW151173   3.104   4.592   2.170
16447SOL    HW251174   3.170   4.611   2.305
16448SOL     OW51175   1.695   9.257   8.165
16448SOL    HW151176   1.653   9.332   8.122
16448SOL    HW251177   1.751   9.219   8.097
16449SOL     OW51178  13.488   3.067   1.504
16449SOL    HW151179  13.497   2.972   1.505
16449SOL    HW251180  13.552   3.097   1.440
16450SOL     OW51181  10.017  13.782   0.015
16450SOL    HW151182  10.003  13.741  14.805
16450SOL    HW251183   9.939  13.759   0.066
16451SOL     OW51184   5.504  14.811   3.945
16451SOL    HW151185   5.427  14.806   3.888
16451SOL    HW251186   5.573  14.845   3.889
16452SOL     OW51187   8.637   3.452   5.639
16452SOL    HW151188   8.594   3.398   5.704
16452SOL    HW251189   8.722   3.409   5.624
16453SOL     OW51190   1.337   6.167   3.156
16453SOL    HW151191   1.256   6.200   3.195
16453SOL    HW251192   1.404   6.228   3.187
16454SOL     OW51193   5.505   7.631   2.571
16454SOL    HW151194   5.432   7.673   2.617
16454SOL    HW251195   5.562   7.703   2.544
16455SOL     OW51196   3.670  14.029  13.211
16455SOL    HW151197   3.692  14.023  13.304
16455SOL    HW251198   3.746  14.070  13.171
16456SOL     OW51199   6.897   6.032  13.910
16456SOL    HW151200   6.867   6.020  13.820
16456SOL    HW251201   6.835   6.095  13.947
16457SOL     OW51202   2.399   4.649  13.690
16457SOL    HW151203   2.472   4.658  13.752
16457SOL    HW251204   2.438   4.605  13.614
16458SOL     OW51205   8.079  13.965  14.301
16458SOL    HW151206   7.999  13.919  14.277
16458SOL    HW251207   8.048  14.044  14.346
16459SOL     OW51208  13.520   8.925   4.529
16459SOL    HW151209  13.566   8.952   4.449
16459SOL    HW251210  13.576   8.858   4.567
16460SOL     OW51211   4.280  10.350  11.836
16460SOL    HW151212   4.208  10.307  11.881
16460SOL    HW251213   4.354  10.342  11.897
16461SOL     OW51214   9.159   9.499  13.292
16461SOL    HW151215   9.067   9.522  13.285
16461SOL    HW251216   9.188   9.539  13.374
16462SOL     OW51217   4.709   7.933   2.058
16462SOL    HW151218   4.725   7.983   2.138
16462SOL    HW251219   4.751   7.983   1.989
16463SOL     OW51220  13.651  13.117   2.093
16463SOL    HW151221  13.704  13.152   2.164
16463SOL    HW251222  13.643  13.191   2.031
16464SOL     OW51223   4.386   2.781   3.231
16464SOL    HW151224   4.392   2.689   3.257
16464SOL    HW251225   4.344   2.824   3.306
16465SOL     OW51226   5.745   6.894   5.000
16465SOL    HW151227   5.665   6.923   4.956
16465SOL    HW251228   5.739   6.799   5.001
16466SOL     OW51229   3.449   5.432   0.162
16466SOL    HW151230   3.410   5.520   0.162
16466SOL    HW251231   3.454   5.408   0.070
16467SOL     OW51232   1.001   0.876  11.999
16467SOL    HW151233   0.953   0.918  11.927
16467SOL    HW251234   1.093   0.885  11.974
16468SOL     OW51235  14.847   1.214  14.541
16468SOL    HW151236   0.041   1.205  14.477
16468SOL    HW251237  14.860   1.302  14.579
16469SOL     OW51238  12.070   7.144  13.124
16469SOL    HW151239  12.007   7.113  13.189
16469SOL    HW251240  12.156   7.120  13.160
16470SOL     OW51241   5.327  12.581  13.105
16470SOL    HW151242   5.355  12.491  13.118
16470SOL    HW251243   5.366  12.607  13.022
16471SOL     OW51244  13.933   1.366   1.447
16471SOL    HW151245  13.965   1.452   1.476
16471SOL    HW251246  13.838   1.373   1.454
16472SOL     OW51247   8.728   9.506   9.383
16472SOL    HW151248   8.634   9.489   9.385
16472SOL    HW251249   8.766   9.445   9.446
16473SOL     OW51250   5.746  11.109   9.010
16473SOL    HW151251   5.710  11.162   9.082
16473SOL    HW251252   5.690  11.130   8.935
16474SOL     OW51253   6.644   5.127  13.070
16474SOL    HW151254   6.568   5.183  13.086
16474SOL    HW251255   6.628   5.049  13.122
16475SOL     OW51256   0.274   9.267  14.458
16475SOL    HW151257   0.227   9.346  14.486
16475SOL    HW251258   0.288   9.279  14.364
16476SOL     OW51259   8.061   4.591  11.474
16476SOL    HW151260   8.118   4.518  11.498
16476SOL    HW251261   7.993   4.552  11.419
16477SOL     OW51262  14.202   9.877  12.127
16477SOL    HW151263  14.147   9.948  12.094
16477SOL    HW251264  14.274   9.921  12.172
16478SOL     OW51265   5.934   3.240   6.514
16478SOL    HW151266   5.925   3.295   6.436
16478SOL    HW251267   5.892   3.291   6.584
16479SOL     OW51268   1.633   8.057   0.975
16479SOL    HW151269   1.707   8.108   0.940
16479SOL    HW251270   1.672   8.003   1.044
16480SOL     OW51271   2.617  10.188  12.390
16480SOL    HW151272   2.669  10.239  12.328
16480SOL    HW251273   2.650  10.215  12.476
16481SOL     OW51274   2.489   8.941   0.622
16481SOL    HW151275   2.400   8.921   0.594
16481SOL    HW251276   2.529   8.985   0.547
16482SOL     OW51277   9.005  10.815   8.587
16482SOL    HW151278   8.923  10.857   8.562
16482SOL    HW251279   9.043  10.785   8.504
16483SOL     OW51280   9.598   3.201   2.111
16483SOL    HW151281   9.676   3.223   2.162
16483SOL    HW251282   9.578   3.280   2.062
16484SOL     OW51283   4.992  14.312  10.842
16484SOL    HW151284   4.980  14.220  10.866
16484SOL    HW251285   4.927  14.359  10.893
16485SOL     OW51286   6.227  12.665   9.379
16485SOL    HW151287   6.300  12.727   9.379
16485SOL    HW251288   6.171  12.692   9.452
16486SOL     OW51289   4.732  12.980   4.089
16486SOL    HW151290   4.684  13.063   4.080
16486SOL    HW251291   4.720  12.955   4.180
16487SOL     OW51292   5.156   7.008  14.789
16487SOL    HW151293   5.095   7.045  14.725
16487SOL    HW251294   5.107   6.939  14.833
16488SOL     OW51295   9.176   7.869  10.674
16488SOL    HW151296   9.229   7.909  10.605
16488SOL    HW251297   9.133   7.795  10.631
16489SOL     OW51298  13.245  12.824   0.727
16489SOL    HW151299  13.259  12.772   0.648
16489SOL    HW251300  13.153  12.810   0.748
16490SOL     OW51301   2.582   2.899   1.229
16490SOL    HW151302   2.502   2.880   1.278
16490SOL    HW251303   2.557   2.969   1.168
16491SOL     OW51304  10.097  11.740   5.619
16491SOL    HW151305  10.077  11.772   5.707
16491SOL    HW251306  10.154  11.806   5.582
16492SOL     OW51307   1.568   5.026   4.832
16492SOL    HW151308   1.632   4.957   4.815
16492SOL    HW251309   1.513   4.991   4.902
16493SOL     OW51310   9.936   6.532   4.005
16493SOL    HW151311   9.901   6.535   4.094
16493SOL    HW251312   9.864   6.564   3.950
16494SOL     OW51313   4.850  12.886   5.291
16494SOL    HW151314   4.819  12.919   5.207
16494SOL    HW251315   4.945  12.879   5.281
16495SOL     OW51316  10.422  14.726   2.698
16495SOL    HW151317  10.363  14.754   2.769
16495SOL    HW251318  10.421  14.800   2.637
16496SOL     OW51319   0.575  13.550  10.251
16496SOL    HW151320   0.542  13.629  10.210
16496SOL    HW251321   0.670  13.561  10.254
16497SOL     OW51322  13.313  12.160   1.128
16497SOL    HW151323  13.354  12.144   1.213
16497SOL    HW251324  13.285  12.251   1.131
16498SOL     OW51325  14.671   7.645   5.060
16498SOL    HW151326  14.686   7.646   4.966
16498SOL    HW251327  14.743   7.697   5.096
16499SOL     OW51328   5.579   2.587  10.896
16499SOL    HW151329   5.531   2.617  10.973
16499SOL    HW251330   5.549   2.497  10.882
16500SOL     OW51331   8.571   9.426  11.744
16500SOL    HW151332   8.644   9.366  11.732
16500SOL    HW251333   8.593   9.502  11.689
16501SOL     OW51334  13.066   9.866   7.294
16501SOL    HW151335  12.994   9.929   7.296
16501SOL    HW251336  13.075   9.835   7.384
16502SOL     OW51337   3.475  10.397   0.156
16502SOL    HW151338   3.399  10.385   0.098
16502SOL    HW251339   3.518  10.312   0.157
16503SOL     OW51340   7.545  10.231   6.356
16503SOL    HW151341   7.624  10.283   6.341
16503SOL    HW251342   7.512  10.213   6.268
16504SOL     OW51343   9.105   4.928   1.383
16504SOL    HW151344   9.057   4.845   1.391
16504SOL    HW251345   9.178   4.908   1.324
16505SOL     OW51346  11.518  12.773   1.192
16505SOL    HW151347  11.601  12.812   1.165
16505SOL    HW251348  11.486  12.728   1.114
16506SOL     OW51349  11.496   6.430  14.815
16506SOL    HW151350  11.404   6.418  14.842
16506SOL    HW251351  11.544   6.365  14.866
16507SOL     OW51352   3.796   1.887   3.303
16507SOL    HW151353   3.776   1.932   3.385
16507SOL    HW251354   3.875   1.837   3.322
16508SOL     OW51355  11.177   7.865  13.180
16508SOL    HW151356  11.176   7.944  13.234
16508SOL    HW251357  11.266   7.830  13.190
16509SOL     OW51358  10.161   2.659  12.406
16509SOL    HW151359  10.166   2.570  12.373
16509SOL    HW251360  10.088   2.658  12.468
16510SOL     OW51361  10.860   3.443  14.270
16510SOL    HW151362  10.907   3.382  14.215
16510SOL    HW251363  10.769   3.437  14.241
16511SOL     OW51364   3.102   1.940   2.421
16511SOL    HW151365   3.013   1.928   2.453
16511SOL    HW251366   3.111   1.875   2.351
16512SOL     OW51367  11.825  14.791   5.678
16512SOL    HW151368  11.913  14.815   5.649
16512SOL    HW251369  11.839  14.734   5.754
16513SOL     OW51370   0.717   8.681  11.732
16513SOL    HW151371   0.738   8.762  11.685
16513SOL    HW251372   0.778   8.616  11.697
16514SOL     OW51373   9.968  10.967   5.831
16514SOL    HW151374  10.019  10.890   5.856
16514SOL    HW251375   9.891  10.964   5.887
16515SOL     OW51376  12.014   0.332   3.352
16515SOL    HW151377  12.089   0.287   3.312
16515SOL    HW251378  12.034   0.425   3.342
16516SOL     OW51379   6.734   6.697  12.298
16516SOL    HW151380   6.690   6.733  12.221
16516SOL    HW251381   6.687   6.734  12.372
16517SOL     OW51382   3.326  11.464   2.530
16517SOL    HW151383   3.361  11.517   2.458
16517SOL    HW251384   3.350  11.374   2.506
16518SOL     OW51385   1.500  11.945   0.813
16518SOL    HW151386   1.418  11.899   0.798
16518SOL    HW251387   1.513  11.941   0.908
16519SOL     OW51388  14.816   3.000   9.435
16519SOL    HW151389  14.726   2.975   9.415
16519SOL    HW251390  14.867   2.964   9.363
16520SOL     OW51391   5.088   8.000   4.176
16520SOL    HW151392   5.146   8.068   4.142
16520SOL    HW251393   5.143   7.921   4.178
16521SOL     OW51394  12.526   1.904  12.797
16521SOL    HW151395  12.511   1.810  12.801
16521SOL    HW251396  12.565   1.919  12.711
16522SOL     OW51397   9.365   7.599   0.161
16522SOL    HW151398   9.270   7.604   0.166
16522SOL    HW251399   9.387   7.514   0.199
16523SOL     OW51400  11.188  13.815  13.698
16523SOL    HW151401  11.207  13.837  13.790
16523SOL    HW251402  11.215  13.724  13.690
16524SOL     OW51403   9.378  10.235   4.739
16524SOL    HW151404   9.386  10.300   4.669
16524SOL    HW251405   9.378  10.151   4.694
16525SOL     OW51406   2.429  14.331  14.096
16525SOL    HW151407   2.387  14.416  14.113
16525SOL    HW251408   2.367  14.284  14.041
16526SOL     OW51409  12.874  11.872   0.173
16526SOL    HW151410  12.875  11.919   0.090
16526SOL    HW251411  12.787  11.831   0.176
16527SOL     OW51412  12.740   9.774   7.774
16527SOL    HW151413  12.778   9.691   7.801
16527SOL    HW251414  12.731   9.825   7.855
16528SOL     OW51415   0.695  12.611  13.513
16528SOL    HW151416   0.752  12.571  13.447
16528SOL    HW251417   0.715  12.705  13.507
16529SOL     OW51418  10.046  14.648  12.669
16529SOL    HW151419  10.024  14.652  12.762
16529SOL    HW251420  10.085  14.562  12.656
16530SOL     OW51421   6.273  13.974   3.862
16530SOL    HW151422   6.339  13.905   3.855
16530SOL    HW251423   6.274  13.998   3.955
16531SOL     OW51424   1.373  12.820   5.875
16531SOL    HW151425   1.333  12.854   5.795
16531SOL    HW251426   1.438  12.757   5.845
16532SOL     OW51427  12.175   0.053   0.879
16532SOL    HW151428  12.199  14.850   0.928
16532SOL    HW251429  12.242   0.117   0.904
16533SOL     OW51430  12.921   8.140   0.761
16533SOL    HW151431  12.999   8.091   0.737
16533SOL    HW251432  12.849   8.093   0.721
16534SOL     OW51433   8.108   5.717   8.281
16534SOL    HW151434   8.058   5.636   8.267
16534SOL    HW251435   8.041   5.786   8.285
16535SOL     OW51436  12.417   8.087  12.880
16535SOL    HW151437  12.489   8.094  12.943
16535SOL    HW251438  12.379   8.175  12.879
16536SOL     OW51439   2.353  10.773   3.674
16536SOL    HW151440   2.326  10.856   3.632
16536SOL    HW251441   2.271  10.723   3.682
16537SOL     OW51442   3.962  11.631   5.374
16537SOL    HW151443   3.979  11.724   5.364
16537SOL    HW251444   4.042  11.588   5.345
16538SOL     OW51445   6.656   4.144   3.364
16538SOL    HW151446   6.628   4.235   3.378
16538SOL    HW251447   6.750   4.150   3.349
16539SOL     OW51448   2.271   3.251   8.923
16539SOL    HW151449   2.226   3.167   8.919
16539SOL    HW251450   2.270   3.274   9.016
16540SOL     OW51451   2.898   2.417  13.716
16540SOL    HW151452   2.935   2.381  13.797
16540SOL    HW251453   2.947   2.498  13.701
16541SOL     OW51454  11.163   5.284   9.799
16541SOL    HW151455  11.248   5.264   9.837
16541SOL    HW251456  11.103   5.222   9.841
16542SOL     OW51457   3.277   5.442   4.216
16542SOL    HW151458   3.326   5.522   4.237
16542SOL    HW251459   3.333   5.371   4.249
16543SOL     OW51460   5.565  12.819   9.356
16543SOL    HW151461   5.569  12.869   9.274
16543SOL    HW251462   5.646  12.769   9.357
16544SOL     OW51463   0.645  12.323   7.026
16544SOL    HW151464   0.740  12.329   7.024
16544SOL    HW251465   0.615  12.411   7.002
16545SOL     OW51466  11.771   8.245  11.050
16545SOL    HW151467  11.705   8.177  11.054
16545SOL    HW251468  11.845   8.210  11.101
16546SOL     OW51469  13.090   0.631   0.114
16546SOL    HW151470  13.035   0.697   0.072
16546SOL    HW251471  13.167   0.624   0.057
16547SOL     OW51472  13.841  14.176   3.123
16547SOL    HW151473  13.762  14.123   3.111
16547SOL    HW251474  13.904  14.115   3.162
16548SOL     OW51475   6.115   9.367   0.745
16548SOL    HW151476   6.071   9.447   0.714
16548SOL    HW251477   6.189   9.355   0.686
16549SOL     OW51478   5.813   6.564   4.720
16549SOL    HW151479   5.890   6.551   4.776
16549SOL    HW251480   5.815   6.657   4.697
16550SOL     OW51481   9.814   9.241   3.596
16550SOL    HW151482   9.851   9.313   3.546
16550SOL    HW251483   9.874   9.228   3.669
16551SOL     OW51484   0.181   2.252  13.680
16551SOL    HW151485   0.122   2.327  13.689
16551SOL    HW251486   0.140   2.183  13.732
16552SOL     OW51487  14.637   0.465   4.801
16552SOL    HW151488  14.679   0.381   4.817
16552SOL    HW251489  14.553   0.443   4.761
16553SOL     OW51490   7.083   5.051   2.281
16553SOL    HW151491   7.150   5.110   2.316
16553SOL    HW251492   7.083   5.070   2.187
16554SOL     OW51493   2.244   4.201   3.299
16554SOL    HW151494   2.293   4.229   3.222
16554SOL    HW251495   2.155   4.234   3.284
16555SOL     OW51496   3.753   3.754   8.160
16555SOL    HW151497   3.841   3.743   8.123
16555SOL    HW251498   3.711   3.668   8.148
16556SOL     OW51499  10.857  14.351  13.598
16556SOL    HW151500  10.769  14.383  13.575
16556SOL    HW251501  10.902  14.344  13.514
16557SOL     OW51502  10.204   2.024   4.376
16557SOL    HW151503  10.296   2.023   4.349
16557SOL    HW251504  10.200   2.089   4.446
16558SOL     OW51505   6.868  12.121   2.229
16558SOL    HW151506   6.812  12.196   2.213
16558SOL    HW251507   6.949  12.158   2.263
16559SOL     OW51508   4.058   8.370   4.098
16559SOL    HW151509   4.073   8.372   4.193
16559SOL    HW251510   3.964   8.383   4.088
16560SOL     OW51511   0.052  10.627  14.842
16560SOL    HW151512  14.844  10.663  14.812
16560SOL    HW251513   0.085  10.578  14.767
16561SOL     OW51514  10.226   9.141  12.039
16561SOL    HW151515  10.134   9.118  12.051
16561SOL    HW251516  10.273   9.058  12.039
16562SOL     OW51517  10.931   4.497   5.712
16562SOL    HW151518  10.914   4.548   5.632
16562SOL    HW251519  10.993   4.551   5.761
16563SOL     OW51520  14.287  12.538  12.534
16563SOL    HW151521  14.222  12.521  12.466
16563SOL    HW251522  14.242  12.517  12.616
16564SOL     OW51523   5.654  12.901  11.391
16564SOL    HW151524   5.613  12.835  11.335
16564SOL    HW251525   5.712  12.949  11.332
16565SOL     OW51526   3.828   2.054   8.714
16565SOL    HW151527   3.875   1.986   8.762
16565SOL    HW251528   3.895   2.119   8.694
16566SOL     OW51529  11.388   7.312  10.487
16566SOL    HW151530  11.323   7.262  10.537
16566SOL    HW251531  11.426   7.247  10.427
16567SOL     OW51532   6.870   7.739   0.142
16567SOL    HW151533   6.936   7.671   0.135
16567SOL    HW251534   6.883   7.794   0.064
16568SOL     OW51535   9.759   7.341   9.723
16568SOL    HW151536   9.706   7.276   9.678
16568SOL    HW251537   9.705   7.371   9.796
16569SOL     OW51538   3.264   1.860   6.070
16569SOL    HW151539   3.182   1.853   6.022
16569SOL    HW251540   3.279   1.772   6.105
16570SOL     OW51541  14.807   4.369   4.532
16570SOL    HW151542  14.713   4.386   4.541
16570SOL    HW251543  14.835   4.345   4.620
16571SOL     OW51544   4.544   5.662   1.467
16571SOL    HW151545   4.458   5.639   1.504
16571SOL    HW251546   4.524   5.728   1.401
16572SOL     OW51547   7.548  13.487  14.751
16572SOL    HW151548   7.532  13.421  14.683
16572SOL    HW251549   7.625  13.534  14.720
16573SOL     OW51550  14.061   6.285  10.263
16573SOL    HW151551  13.967   6.294  10.248
16573SOL    HW251552  14.101   6.347  10.202
16574SOL     OW51553   3.669  10.869   1.354
16574SOL    HW151554   3.679  10.912   1.439
16574SOL    HW251555   3.667  10.942   1.291
16575SOL     OW51556   4.350   3.948   8.588
16575SOL    HW151557   4.309   4.034   8.594
16575SOL    HW251558   4.279   3.890   8.560
16576SOL     OW51559   2.070   6.007   9.572
16576SOL    HW151560   2.153   5.999   9.525
16576SOL    HW251561   2.048   5.917   9.597
16577SOL     OW51562   1.161  12.642   7.057
16577SOL    HW151563   1.134  12.705   7.124
16577SOL    HW251564   1.101  12.656   6.984
16578SOL     OW51565   6.434   7.003   2.808
16578SOL    HW151566   6.483   7.047   2.877
16578SOL    HW251567   6.425   7.068   2.739
16579SOL     OW51568  11.956   1.818   5.353
16579SOL    HW151569  12.049   1.808   5.373
16579SOL    HW251570  11.933   1.905   5.387
16580SOL     OW51571   9.758  12.382   0.059
16580SOL    HW151572   9.729  12.312   0.118
16580SOL    HW251573   9.677  12.414   0.019
16581SOL     OW51574   9.731   1.239  11.173
16581SOL    HW151575   9.734   1.272  11.263
16581SOL    HW251576   9.793   1.294  11.125
16582SOL     OW51577  13.709  11.991   5.625
16582SOL    HW151578  13.647  11.923   5.652
16582SOL    HW251579  13.653  12.065   5.602
16583SOL     OW51580   3.127   6.206   9.358
16583SOL    HW151581   3.078   6.125   9.372
16583SOL    HW251582   3.080   6.271   9.411
16584SOL     OW51583   9.731  11.658   7.205
16584SOL    HW151584   9.808  11.611   7.237
16584SOL    HW251585   9.722  11.732   7.266
16585SOL     OW51586   9.416   0.482  12.363
16585SOL    HW151587   9.496   0.462  12.315
16585SOL    HW251588   9.345   0.461  12.301
16586SOL     OW51589   4.013  10.825   0.527
16586SOL    HW151590   4.099  10.822   0.484
16586SOL    HW251591   3.958  10.766   0.476
16587SOL     OW51592  10.843   4.665   2.352
16587SOL    HW151593  10.934   4.648   2.326
16587SOL    HW251594  10.792   4.645   2.274
16588SOL     OW51595   1.400   9.798   2.985
16588SOL    HW151596   1.373   9.739   3.055
16588SOL    HW251597   1.450   9.866   3.029
16589SOL     OW51598   0.728   0.530   7.218
16589SOL    HW151599   0.780   0.469   7.166
16589SOL    HW251600   0.790   0.600   7.241
16590SOL     OW51601   1.572  11.799  11.738
16590SOL    HW151602   1.498  11.841  11.780
16590SOL    HW251603   1.574  11.834  11.649
16591SOL     OW51604   7.644   6.184  12.751
16591SOL    HW151605   7.629   6.236  12.672
16591SOL    HW251606   7.732   6.207  12.779
16592SOL     OW51607  12.783   8.591   2.338
16592SOL    HW151608  12.853   8.642   2.298
16592SOL    HW251609  12.726   8.656   2.380
16593SOL     OW51610   1.184   3.775   0.010
16593SOL    HW151611   1.260   3.749  14.835
16593SOL    HW251612   1.209   3.859   0.049
16594SOL     OW51613   3.315   7.859  11.948
16594SOL    HW151614   3.400   7.815  11.953
16594SOL    HW251615   3.320   7.927  12.016
16595SOL     OW51616   3.329  14.615  11.387
16595SOL    HW151617   3.331  14.537  11.443
16595SOL    HW251618   3.412  14.612  11.339
16596SOL     OW51619  13.201   1.477   8.382
16596SOL    HW151620  13.201   1.399   8.438
16596SOL    HW251621  13.146   1.453   8.307
16597SOL     OW51622   8.117   8.092   2.422
16597SOL    HW151623   8.073   8.176   2.440
16597SOL    HW251624   8.146   8.099   2.331
16598SOL     OW51625  11.285  12.530  11.634
16598SOL    HW151626  11.292  12.452  11.578
16598SOL    HW251627  11.349  12.515  11.703
16599SOL     OW51628   8.064   8.411  11.982
16599SOL    HW151629   7.980   8.403  12.028
16599SOL    HW251630   8.047   8.473  11.912
16600SOL     OW51631   0.916   8.100   6.142
16600SOL    HW151632   1.007   8.072   6.130
16600SOL    HW251633   0.906   8.173   6.082
16601SOL     OW51634  11.388   3.918   7.749
16601SOL    HW151635  11.300   3.917   7.711
16601SOL    HW251636  11.380   3.867   7.830
16602SOL     OW51637  14.184   3.614   4.610
16602SOL    HW151638  14.220   3.528   4.629
16602SOL    HW251639  14.136   3.638   4.690
16603SOL     OW51640   6.169   4.837   6.267
16603SOL    HW151641   6.153   4.744   6.257
16603SOL    HW251642   6.187   4.868   6.178
16604SOL     OW51643   7.348   5.053   2.957
16604SOL    HW151644   7.376   5.020   3.042
16604SOL    HW251645   7.429   5.069   2.909
16605SOL     OW51646  13.845  12.631   8.624
16605SOL    HW151647  13.864  12.672   8.539
16605SOL    HW251648  13.755  12.659   8.644
16606SOL     OW51649   1.561  11.420   4.732
16606SOL    HW151650   1.653  11.399   4.712
16606SOL    HW251651   1.550  11.395   4.824
16607SOL     OW51652   7.497   7.560  12.821
16607SOL    HW151653   7.421   7.577  12.876
16607SOL    HW251654   7.465   7.571  12.731
16608SOL     OW51655   3.997  10.840   8.218
16608SOL    HW151656   3.934  10.790   8.271
16608SOL    HW251657   4.005  10.923   8.265
16609SOL     OW51658  10.004   2.898   9.292
16609SOL    HW151659   9.937   2.904   9.224
16609SOL    HW251660   9.987   2.972   9.350
16610SOL     OW51661   7.527   8.824   3.188
16610SOL    HW151662   7.551   8.732   3.175
16610SOL    HW251663   7.518   8.859   3.100
16611SOL     OW51664  11.908   0.959   1.273
16611SOL    HW151665  11.865   0.968   1.358
16611SOL    HW251666  11.838   0.975   1.209
16612SOL     OW51667   8.997   5.178   1.336
16612SOL    HW151668   8.913   5.184   1.380
16612SOL    HW251669   9.041   5.103   1.376
16613SOL     OW51670  13.902  12.091  13.345
16613SOL    HW151671  13.921  12.184  13.357
16613SOL    HW251672  13.825  12.075  13.399
16614SOL     OW51673   8.693   7.784   6.200
16614SOL    HW151674   8.725   7.694   6.202
16614SOL    HW251675   8.598   7.775   6.189
16615SOL     OW51676  14.765   3.373   2.709
16615SOL    HW151677  14.715   3.368   2.790
16615SOL    HW251678  14.819   3.294   2.709
16616SOL     OW51679   1.325   4.972   9.835
16616SOL    HW151680   1.272   4.950   9.911
16616SOL    HW251681   1.381   4.896   9.822
16617SOL     OW51682  11.232  12.220   8.256
16617SOL    HW151683  11.235  12.228   8.161
16617SOL    HW251684  11.197  12.132   8.272
16618SOL     OW51685  14.400  13.313   8.519
16618SOL    HW151686  14.320  13.271   8.551
16618SOL    HW251687  14.471  13.272   8.570
16619SOL     OW51688   0.332  14.831   7.543
16619SOL    HW151689   0.251  14.781   7.547
16619SOL    HW251690   0.329   0.011   7.621
16620SOL     OW51691  13.637  12.360  12.959
16620SOL    HW151692  13.547  12.386  12.975
16620SOL    HW251693  13.689  12.412  13.020
16621SOL     OW51694   2.220  11.917   0.742
16621SOL    HW151695   2.312  11.940   0.752
16621SOL    HW251696   2.173  11.976   0.801
16622SOL     OW51697   6.179  10.684   5.752
16622SOL    HW151698   6.152  10.671   5.843
16622SOL    HW251699   6.156  10.603   5.708
16623SOL     OW51700   4.216   2.116   6.554
16623SOL    HW151701   4.204   2.067   6.635
16623SOL    HW251702   4.225   2.207   6.582
16624SOL     OW51703  14.640   2.819   6.423
16624SOL    HW151704  14.590   2.759   6.478
16624SOL    HW251705  14.727   2.780   6.418
16625SOL     OW51706   8.404   2.961   9.111
16625SOL    HW151707   8.363   3.046   9.122
16625SOL    HW251708   8.426   2.933   9.200
16626SOL     OW51709   3.593   7.525   2.106
16626SOL    HW151710   3.598   7.520   2.202
16626SOL    HW251711   3.683   7.541   2.078
16627SOL     OW51712   2.362   9.563   5.042
16627SOL    HW151713   2.282   9.586   5.089
16627SOL    HW251714   2.339   9.567   4.950
16628SOL     OW51715   9.170   5.558   8.884
16628SOL    HW151716   9.206   5.640   8.849
16628SOL    HW251717   9.213   5.489   8.834
16629SOL     OW51718   6.877   1.321   3.849
16629SOL    HW151719   6.899   1.230   3.829
16629SOL    HW251720   6.796   1.338   3.801
16630SOL     OW51721   2.686   5.333   3.704
16630SOL    HW151722   2.603   5.295   3.730
16630SOL    HW251723   2.737   5.337   3.785
16631SOL     OW51724   4.442  12.307   3.442
16631SOL    HW151725   4.412  12.361   3.514
16631SOL    HW251726   4.406  12.220   3.461
16632SOL     OW51727  10.541   3.182   7.977
16632SOL    HW151728  10.599   3.161   8.050
16632SOL    HW251729  10.586   3.253   7.931
16633SOL     OW51730   9.402   1.388   0.691
16633SOL    HW151731   9.373   1.356   0.776
16633SOL    HW251732   9.430   1.309   0.644
16634SOL     OW51733   2.850  13.481   8.592
16634SOL    HW151734   2.878  13.565   8.629
16634SOL    HW251735   2.856  13.494   8.498
16635SOL     OW51736   3.988  10.117  10.377
16635SOL    HW151737   3.998  10.022  10.370
16635SOL    HW251738   4.015  10.138  10.467
16636SOL     OW51739   0.220  10.577   0.314
16636SOL    HW151740   0.262  10.542   0.235
16636SOL    HW251741   0.130  10.594   0.287
16637SOL     OW51742   2.034   0.855  12.053
16637SOL    HW151743   2.042   0.948  12.029
16637SOL    HW251744   1.946   0.847  12.089
16638SOL     OW51745   7.861   7.512   7.846
16638SOL    HW151746   7.918   7.486   7.774
16638SOL    HW251747   7.797   7.441   7.853
16639SOL     OW51748   5.613  12.004   8.528
16639SOL    HW151749   5.636  11.946   8.456
16639SOL    HW251750   5.584  12.085   8.486
16640SOL     OW51751  14.051  12.902   1.843
16640SOL    HW151752  14.031  12.814   1.875
16640SOL    HW251753  14.146  12.909   1.849
16641SOL     OW51754  14.298  11.016  13.275
16641SOL    HW151755  14.311  10.974  13.360
16641SOL    HW251756  14.204  11.034  13.271
16642SOL     OW51757   4.819   3.573   4.978
16642SOL    HW151758   4.913   3.576   4.962
16642SOL    HW251759   4.811   3.544   5.069
16643SOL     OW51760  12.852  12.260  12.432
16643SOL    HW151761  12.852  12.237  12.525
16643SOL    HW251762  12.805  12.188  12.390
16644SOL     OW51763   0.152  14.202  13.909
16644SOL    HW151764   0.079  14.231  13.963
16644SOL    HW251765   0.141  14.247  13.825
16645SOL     OW51766   5.317  14.374  10.306
16645SOL    HW151767   5.274  14.447  10.260
16645SOL    HW251768   5.245  14.317  10.332
16646SOL     OW51769  12.808  12.355   0.630
16646SOL    HW151770  12.884  12.404   0.600
16646SOL    HW251771  12.832  12.325   0.718
16647SOL     OW51772   2.838   9.753   3.459
16647SOL    HW151773   2.804   9.842   3.465
16647SOL    HW251774   2.928   9.760   3.489
16648SOL     OW51775  13.795   6.504   9.363
16648SOL    HW151776  13.788   6.508   9.458
16648SOL    HW251777  13.714   6.460   9.335
16649SOL     OW51778   9.689  10.621   3.292
16649SOL    HW151779   9.772  10.593   3.331
16649SOL    HW251780   9.631  10.637   3.367
16650SOL     OW51781   9.516  10.137   0.051
16650SOL    HW151782   9.582  10.068   0.046
16650SOL    HW251783   9.472  10.134  14.841
16651SOL     OW51784   3.080   9.665  10.058
16651SOL    HW151785   3.145   9.642   9.992
16651SOL    HW251786   3.125   9.730  10.114
16652SOL     OW51787   3.081  13.489  12.632
16652SOL    HW151788   3.019  13.489  12.560
16652SOL    HW251789   3.075  13.400  12.668
16653SOL     OW51790   1.608   5.216   9.520
16653SOL    HW151791   1.529   5.163   9.527
16653SOL    HW251792   1.679   5.156   9.545
16654SOL     OW51793   6.397   5.390  13.397
16654SOL    HW151794   6.470   5.401  13.457
16654SOL    HW251795   6.319   5.390  13.453
16655SOL     OW51796  14.238   1.077  13.386
16655SOL    HW151797  14.167   1.112  13.331
16655SOL    HW251798  14.270   1.153  13.435
16656SOL     OW51799  13.954  13.311  10.133
16656SOL    HW151800  13.950  13.313  10.228
16656SOL    HW251801  14.008  13.234  10.113
16657SOL     OW51802   7.876  11.620   0.659
16657SOL    HW151803   7.841  11.557   0.723
16657SOL    HW251804   7.954  11.577   0.624
16658SOL     OW51805  12.519   3.540   8.154
16658SOL    HW151806  12.533   3.549   8.060
16658SOL    HW251807  12.562   3.616   8.192
16659SOL     OW51808   9.869   8.290   3.292
16659SOL    HW151809   9.884   8.217   3.351
16659SOL    HW251810   9.807   8.257   3.227
16660SOL     OW51811  12.744   7.969  11.753
16660SOL    HW151812  12.800   7.891  11.761
16660SOL    HW251813  12.738   8.002  11.843
16661SOL     OW51814   6.620  12.169  13.329
16661SOL    HW151815   6.713  12.150  13.319
16661SOL    HW251816   6.602  12.152  13.422
16662SOL     OW51817   5.616   5.679   1.848
16662SOL    HW151818   5.597   5.608   1.910
16662SOL    HW251819   5.689   5.727   1.887
16663SOL     OW51820   6.606  13.098   2.730
16663SOL    HW151821   6.540  13.029   2.720
16663SOL    HW251822   6.558  13.179   2.714
16664SOL     OW51823   1.380   0.343   2.184
16664SOL    HW151824   1.359   0.286   2.258
16664SOL    HW251825   1.297   0.353   2.137
16665SOL     OW51826   2.018  14.679   5.375
16665SOL    HW151827   2.095  14.712   5.329
16665SOL    HW251828   2.053  14.614   5.436
16666SOL     OW51829  10.710   3.995  10.955
16666SOL    HW151830  10.717   3.923  10.893
16666SOL    HW251831  10.763   4.065  10.917
16667SOL     OW51832   2.745   9.459   4.679
16667SOL    HW151833   2.733   9.512   4.758
16667SOL    HW251834   2.660   9.418   4.664
16668SOL     OW51835   6.568   1.940  13.742
16668SOL    HW151836   6.625   1.935  13.665
16668SOL    HW251837   6.515   1.860  13.738
16669SOL     OW51838   0.162   2.267   2.239
16669SOL    HW151839   0.107   2.253   2.161
16669SOL    HW251840   0.229   2.198   2.234
16670SOL     OW51841  10.152   8.638  14.145
16670SOL    HW151842  10.171   8.553  14.186
16670SOL    HW251843  10.104   8.687  14.212
16671SOL     OW51844   1.401   5.637  14.251
16671SOL    HW151845   1.349   5.710  14.284
16671SOL    HW251846   1.406   5.576  14.324
16672SOL     OW51847   4.012   1.793  10.872
16672SOL    HW151848   3.975   1.801  10.784
16672SOL    HW251849   4.071   1.868  10.880
16673SOL     OW51850   0.142   3.044   8.799
16673SOL    HW151851   0.197   3.108   8.844
16673SOL    HW251852   0.106   3.093   8.725
16674SOL     OW51853  12.902   3.589   2.000
16674SOL    HW151854  12.972   3.549   2.051
16674SOL    HW251855  12.937   3.674   1.974
16675SOL     OW51856  14.167   6.423   3.430
16675SOL    HW151857  14.173   6.333   3.462
16675SOL    HW251858  14.074   6.445   3.438
16676SOL     OW51859   3.749   3.097   3.314
16676SOL    HW151860   3.720   3.068   3.227
16676SOL    HW251861   3.669   3.127   3.358
16677SOL     OW51862   1.178   3.062   3.605
16677SOL    HW151863   1.189   3.132   3.541
16677SOL    HW251864   1.261   3.015   3.604
16678SOL     OW51865   8.937   5.974   2.854
16678SOL    HW151866   8.865   5.982   2.791
16678SOL    HW251867   8.986   6.056   2.846
16679SOL     OW51868  11.613  10.631   2.942
16679SOL    HW151869  11.582  10.719   2.922
16679SOL    HW251870  11.708  10.641   2.955
16680SOL     OW51871   9.009   0.622  13.686
16680SOL    HW151872   9.017   0.592  13.596
16680SOL    HW251873   9.012   0.542  13.739
16681SOL     OW51874   3.207   0.997   4.608
16681SOL    HW151875   3.150   0.958   4.541
16681SOL    HW251876   3.235   0.923   4.662
16682SOL     OW51877  10.304   8.054   3.034
16682SOL    HW151878  10.364   8.026   2.965
16682SOL    HW251879  10.251   7.976   3.052
16683SOL     OW51880   8.242  12.674   1.039
16683SOL    HW151881   8.260  12.745   1.101
16683SOL    HW251882   8.183  12.615   1.087
16684SOL     OW51883   2.754   4.810  12.281
16684SOL    HW151884   2.806   4.881  12.319
16684SOL    HW251885   2.749   4.831  12.188
16685SOL     OW51886   1.218   2.763   2.331
16685SOL    HW151887   1.161   2.730   2.262
16685SOL    HW251888   1.275   2.688   2.352
16686SOL     OW51889   1.568   5.708   5.672
16686SOL    HW151890   1.602   5.708   5.582
16686SOL    HW251891   1.550   5.616   5.690
16687SOL     OW51892   7.078  12.558   9.319
16687SOL    HW151893   7.141  12.503   9.271
16687SOL    HW251894   6.993  12.531   9.285
16688SOL     OW51895   6.327   5.196   3.329
16688SOL    HW151896   6.412   5.199   3.374
16688SOL    HW251897   6.264   5.221   3.396
16689SOL     OW51898  14.024   0.376   5.906
16689SOL    HW151899  13.962   0.444   5.880
16689SOL    HW251900  14.080   0.364   5.830
16690SOL     OW51901   5.959   4.638   5.602
16690SOL    HW151902   5.893   4.651   5.671
16690SOL    HW251903   5.996   4.551   5.621
16691SOL     OW51904  13.615   0.845   2.448
16691SOL    HW151905  13.585   0.858   2.358
16691SOL    HW251906  13.537   0.817   2.496
16692SOL     OW51907   1.023   3.629   6.050
16692SOL    HW151908   0.992   3.616   5.960
16692SOL    HW251909   0.959   3.687   6.089
16693SOL     OW51910  12.672   2.751  10.370
16693SOL    HW151911  12.736   2.811  10.410
16693SOL    HW251912  12.714   2.665  10.375
16694SOL     OW51913   5.525  14.747   6.735
16694SOL    HW151914   5.554  14.834   6.765
16694SOL    HW251915   5.432  14.744   6.759
16695SOL     OW51916  10.946   8.954   9.199
16695SOL    HW151917  10.880   8.916   9.141
16695SOL    HW251918  11.022   8.896   9.191
16696SOL     OW51919   4.756   1.748   7.190
16696SOL    HW151920   4.792   1.712   7.109
16696SOL    HW251921   4.714   1.673   7.233
16697SOL     OW51922   8.057  12.587   4.097
16697SOL    HW151923   7.975  12.549   4.128
16697SOL    HW251924   8.098  12.516   4.046
16698SOL     OW51925   7.918   1.276  14.217
16698SOL    HW151926   7.914   1.181  14.229
16698SOL    HW251927   7.914   1.312  14.306
16699SOL     OW51928   2.358  12.714   1.883
16699SOL    HW151929   2.343  12.621   1.900
16699SOL    HW251930   2.357  12.756   1.969
16700SOL     OW51931  14.795  10.121   4.800
16700SOL    HW151932  14.739  10.128   4.877
16700SOL    HW251933  14.871  10.070   4.830
16701SOL     OW51934   8.205   4.345   7.554
16701SOL    HW151935   8.149   4.276   7.519
16701SOL    HW251936   8.176   4.424   7.508
16702SOL     OW51937   2.529   9.401   9.238
16702SOL    HW151938   2.552   9.327   9.293
16702SOL    HW251939   2.462   9.448   9.288
16703SOL     OW51940   8.489   6.836   4.393
16703SOL    HW151941   8.507   6.887   4.314
16703SOL    HW251942   8.538   6.881   4.462
16704SOL     OW51943  13.723  14.721  11.470
16704SOL    HW151944  13.805  14.764  11.445
16704SOL    HW251945  13.703  14.756  11.557
16705SOL     OW51946  10.575   6.495   0.572
16705SOL    HW151947  10.586   6.588   0.552
16705SOL    HW251948  10.645   6.476   0.635
16706SOL     OW51949  13.518  10.856   9.460
16706SOL    HW151950  13.600  10.818   9.492
16706SOL    HW251951  13.453  10.787   9.473
16707SOL     OW51952   3.482   6.973  11.273
16707SOL    HW151953   3.425   7.050  11.280
16707SOL    HW251954   3.566   7.008  11.243
16708SOL     OW51955   6.024  13.060   7.683
16708SOL    HW151956   6.066  13.131   7.635
16708SOL    HW251957   6.013  12.990   7.619
16709SOL     OW51958   5.160   4.670  13.946
16709SOL    HW151959   5.132   4.699  14.033
16709SOL    HW251960   5.139   4.743  13.888
16710SOL     OW51961  12.450   3.554   0.967
16710SOL    HW151962  12.428   3.593   0.882
16710SOL    HW251963  12.367   3.549   1.014
16711SOL     OW51964  12.725  11.726   4.615
16711SOL    HW151965  12.657  11.659   4.618
16711SOL    HW251966  12.773  11.708   4.535
16712SOL     OW51967  11.089   3.702  12.422
16712SOL    HW151968  11.076   3.717  12.516
16712SOL    HW251969  11.173   3.656  12.417
16713SOL     OW51970   0.764   8.960   4.955
16713SOL    HW151971   0.834   8.946   5.019
16713SOL    HW251972   0.740   8.872   4.926
16714SOL     OW51973   6.357   5.919   9.304
16714SOL    HW151974   6.289   5.934   9.238
16714SOL    HW251975   6.397   5.835   9.279
16715SOL     OW51976   3.196  14.166   9.939
16715SOL    HW151977   3.212  14.154  10.033
16715SOL    HW251978   3.101  14.165   9.931
16716SOL     OW51979   0.183   5.159   8.561
16716SOL    HW151980   0.160   5.246   8.529
16716SOL    HW251981   0.200   5.171   8.654
16717SOL     OW51982   2.886   8.495  10.769
16717SOL    HW151983   2.837   8.508  10.850
16717SOL    HW251984   2.826   8.445  10.713
16718SOL     OW51985   4.128   7.707   2.736
16718SOL    HW151986   4.179   7.650   2.678
16718SOL    HW251987   4.063   7.747   2.678
16719SOL     OW51988   2.403   0.310  12.728
16719SOL    HW151989   2.486   0.278  12.693
16719SOL    HW251990   2.422   0.336  12.818
16720SOL     OW51991  11.033   6.464   1.081
16720SOL    HW151992  11.003   6.551   1.056
16720SOL    HW251993  11.010   6.456   1.174
16721SOL     OW51994  13.014   8.134   2.702
16721SOL    HW151995  13.082   8.102   2.642
16721SOL    HW251996  12.998   8.060   2.761
16722SOL     OW51997   3.653  10.245   6.023
16722SOL    HW151998   3.597  10.220   6.097
16722SOL    HW251999   3.734  10.195   6.036
16723SOL     OW52000   1.704   7.722  13.711
16723SOL    HW152001   1.773   7.709  13.777
16723SOL    HW252002   1.707   7.644  13.657
16724SOL     OW52003  14.357   6.235   8.463
16724SOL    HW152004  14.311   6.152   8.448
16724SOL    HW252005  14.349   6.250   8.557
16725SOL     OW52006   2.979   4.219   8.464
16725SOL    HW152007   3.044   4.223   8.394
16725SOL    HW252008   3.019   4.268   8.536
16726SOL     OW52009   4.154   5.519   3.629
16726SOL    HW152010   4.233   5.468   3.646
16726SOL    HW252011   4.125   5.547   3.716
16727SOL     OW52012  12.176   6.799  13.368
16727SOL    HW152013  12.169   6.827  13.277
16727SOL    HW252014  12.227   6.719  13.365
16728SOL     OW52015  14.419  11.386  13.260
16728SOL    HW152016  14.349  11.450  13.246
16728SOL    HW252017  14.397  11.345  13.344
16729SOL     OW52018   1.473   3.739   4.394
16729SOL    HW152019   1.408   3.677   4.426
16729SOL    HW252020   1.429   3.824   4.399
16730SOL     OW52021   9.487  13.588  13.504
16730SOL    HW152022   9.399  13.625  13.514
16730SOL    HW252023   9.529  13.603  13.589
16731SOL     OW52024   2.882   2.280  12.064
16731SOL    HW152025   2.838   2.211  12.015
16731SOL    HW252026   2.936   2.326  11.999
16732SOL     OW52027  14.817  10.372   2.693
16732SOL    HW152028  14.811  10.386   2.787
16732SOL    HW252029  14.728  10.385   2.661
16733SOL     OW52030   7.168   3.189   8.707
16733SOL    HW152031   7.166   3.248   8.632
16733SOL    HW252032   7.099   3.125   8.689
16734SOL     OW52033   3.038   7.835  11.911
16734SOL    HW152034   3.128   7.866  11.921
16734SOL    HW252035   3.026   7.771  11.981
16735SOL     OW52036  13.033   7.555  12.247
16735SOL    HW152037  13.121   7.593  12.255
16735SOL    HW252038  12.975   7.622  12.282
16736SOL     OW52039   7.971   7.928  10.761
16736SOL    HW152040   7.911   7.907  10.833
16736SOL    HW252041   8.020   8.004  10.793
16737SOL     OW52042  12.999  12.412   1.284
16737SOL    HW152043  13.080  12.370   1.315
16737SOL    HW252044  12.983  12.482   1.347
16738SOL     OW52045   0.494   9.391   9.670
16738SOL    HW152046   0.517   9.312   9.718
16738SOL    HW252047   0.404   9.411   9.697
16739SOL     OW52048   0.050   6.915  12.079
16739SOL    HW152049   0.088   7.002  12.081
16739SOL    HW252050   0.018   6.903  11.990
16740SOL     OW52051  12.417  11.100   0.116
16740SOL    HW152052  12.414  11.161   0.190
16740SOL    HW252053  12.424  11.013   0.157
16741SOL     OW52054   4.897   4.050   2.264
16741SOL    HW152055   4.943   3.966   2.261
16741SOL    HW252056   4.851   4.055   2.181
16742SOL     OW52057   3.466   1.226   9.369
16742SOL    HW152058   3.550   1.217   9.414
16742SOL    HW252059   3.485   1.205   9.278
16743SOL     OW52060   1.801   4.734  14.129
16743SOL    HW152061   1.788   4.696  14.042
16743SOL    HW252062   1.846   4.817  14.113
16744SOL     OW52063   6.222   9.208   9.850
16744SOL    HW152064   6.264   9.200   9.936
16744SOL    HW252065   6.140   9.255   9.867
16745SOL     OW52066   3.823  12.227  10.299
16745SOL    HW152067   3.888  12.232  10.370
16745SOL    HW252068   3.739  12.226  10.344
16746SOL     OW52069   6.608   5.448  13.574
16746SOL    HW152070   6.694   5.406  13.579
16746SOL    HW252071   6.614   5.522  13.634
16747SOL     OW52072   4.988   6.667  12.938
16747SOL    HW152073   4.970   6.577  12.911
16747SOL    HW252074   5.013   6.659  13.030
16748SOL     OW52075   9.894  13.445   4.895
16748SOL    HW152076   9.976  13.415   4.855
16748SOL    HW252077   9.827  13.389   4.855
16749SOL     OW52078   3.265  11.716   7.700
16749SOL    HW152079   3.327  11.762   7.757
16749SOL    HW252080   3.279  11.623   7.719
16750SOL     OW52081  14.532   2.561   4.547
16750SOL    HW152082  14.615   2.585   4.506
16750SOL    HW252083  14.512   2.634   4.606
16751SOL     OW52084   5.552  11.710   5.659
16751SOL    HW152085   5.583  11.745   5.575
16751SOL    HW252086   5.604  11.756   5.724
16752SOL     OW52087   4.945   0.845   1.150
16752SOL    HW152088   4.866   0.858   1.098
16752SOL    HW252089   4.917   0.790   1.224
16753SOL     OW52090  12.779  10.825  10.574
16753SOL    HW152091  12.825  10.896  10.618
16753SOL    HW252092  12.824  10.746  10.603
16754SOL     OW52093  12.521  10.842   2.451
16754SOL    HW152094  12.440  10.792   2.453
16754SOL    HW252095  12.576  10.797   2.387
16755SOL     OW52096  12.820   4.790  10.727
16755SOL    HW152097  12.853   4.770  10.815
16755SOL    HW252098  12.839   4.883  10.715
16756SOL     OW52099   6.023   1.700   9.271
16756SOL    HW152100   5.971   1.621   9.277
16756SOL    HW252101   6.034   1.729   9.361
16757SOL     OW52102  12.161  13.955   4.489
16757SOL    HW152103  12.185  14.001   4.408
16757SOL    HW252104  12.226  13.885   4.497
16758SOL     OW52105  11.108   1.538   0.656
16758SOL    HW152106  11.119   1.562   0.564
16758SOL    HW252107  11.014   1.551   0.673
16759SOL     OW52108   7.432   4.019   4.659
16759SOL    HW152109   7.435   4.010   4.563
16759SOL    HW252110   7.367   4.087   4.674
16760SOL     OW52111   3.095   5.794   0.573
16760SOL    HW152112   3.117   5.834   0.489
16760SOL    HW252113   3.177   5.754   0.603
16761SOL     OW52114   6.456   3.215   5.794
16761SOL    HW152115   6.472   3.218   5.888
16761SOL    HW252116   6.494   3.297   5.761
16762SOL     OW52117  13.896   1.865   5.488
16762SOL    HW152118  13.970   1.834   5.539
16762SOL    HW252119  13.919   1.845   5.397
16763SOL     OW52120  14.092   7.529  13.589
16763SOL    HW152121  14.135   7.611  13.609
16763SOL    HW252122  14.023   7.552  13.526
16764SOL     OW52123   5.818  13.910   5.559
16764SOL    HW152124   5.734  13.892   5.600
16764SOL    HW252125   5.870  13.952   5.628
16765SOL     OW52126  11.066   0.502   0.971
16765SOL    HW152127  10.974   0.490   0.990
16765SOL    HW252128  11.087   0.435   0.906
16766SOL     OW52129   0.440   7.534   1.231
16766SOL    HW152130   0.416   7.570   1.316
16766SOL    HW252131   0.407   7.444   1.232
16767SOL     OW52132   9.822  14.522   6.045
16767SOL    HW152133   9.885  14.450   6.049
16767SOL    HW252134   9.834  14.559   5.958
16768SOL     OW52135   2.804   0.147  13.510
16768SOL    HW152136   2.796   0.066  13.459
16768SOL    HW252137   2.767   0.126  13.595
16769SOL     OW52138   7.018   5.841   0.855
16769SOL    HW152139   6.933   5.874   0.825
16769SOL    HW252140   7.057   5.802   0.777
16770SOL     OW52141   7.241   8.162   2.306
16770SOL    HW152142   7.174   8.216   2.265
16770SOL    HW252143   7.293   8.128   2.232
16771SOL     OW52144   3.399   7.177  13.498
16771SOL    HW152145   3.488   7.158  13.470
16771SOL    HW252146   3.370   7.096  13.541
16772SOL     OW52147   9.536   5.492   5.065
16772SOL    HW152148   9.535   5.585   5.045
16772SOL    HW252149   9.504   5.450   4.984
16773SOL     OW52150   6.433   1.314  11.192
16773SOL    HW152151   6.446   1.267  11.274
16773SOL    HW252152   6.491   1.390  11.199
16774SOL     OW52153   1.308   0.890  10.651
16774SOL    HW152154   1.350   0.888  10.737
16774SOL    HW252155   1.221   0.927  10.668
16775SOL     OW52156   1.313   1.008   0.050
16775SOL    HW152157   1.395   1.013   0.098
16775SOL    HW252158   1.245   1.028   0.115
16776SOL     OW52159  11.920  13.143  12.462
16776SOL    HW152160  11.965  13.073  12.508
16776SOL    HW252161  11.827  13.120  12.467
16777SOL     OW52162  11.838   1.664   8.937
16777SOL    HW152163  11.769   1.635   8.878
16777SOL    HW252164  11.831   1.759   8.937
16778SOL     OW52165   4.549   7.347   8.481
16778SOL    HW152166   4.568   7.364   8.574
16778SOL    HW252167   4.454   7.343   8.476
16779SOL     OW52168   0.064   6.161   3.110
16779SOL    HW152169   0.064   6.128   3.200
16779SOL    HW252170   0.029   6.089   3.058
16780SOL     OW52171  10.616   6.892   9.321
16780SOL    HW152172  10.613   6.968   9.264
16780SOL    HW252173  10.551   6.831   9.284
16781SOL     OW52174  14.754   8.453   6.740
16781SOL    HW152175  14.847   8.476   6.731
16781SOL    HW252176  14.711   8.536   6.761
16782SOL     OW52177   5.731  11.678   1.873
16782SOL    HW152178   5.758  11.669   1.781
16782SOL    HW252179   5.811  11.696   1.921
16783SOL     OW52180   1.385   5.332   6.054
16783SOL    HW152181   1.418   5.273   6.121
16783SOL    HW252182   1.334   5.275   5.995
16784SOL     OW52183  11.774   1.634  11.962
16784SOL    HW152184  11.746   1.555  11.916
16784SOL    HW252185  11.833   1.603  12.031
16785SOL     OW52186   1.534   7.218   1.490
16785SOL    HW152187   1.599   7.179   1.431
16785SOL    HW252188   1.584   7.280   1.543
16786SOL     OW52189  10.779  13.295   0.247
16786SOL    HW152190  10.863  13.339   0.260
16786SOL    HW252191  10.775  13.279   0.153
16787SOL     OW52192  12.519   8.786   0.837
16787SOL    HW152193  12.433   8.769   0.797
16787SOL    HW252194  12.533   8.711   0.895
16788SOL     OW52195   5.756  10.132  14.330
16788SOL    HW152196   5.805  10.122  14.248
16788SOL    HW252197   5.665  10.118  14.305
16789SOL     OW52198   7.680   2.772  14.800
16789SOL    HW152199   7.590   2.751  14.822
16789SOL    HW252200   7.693   2.862  14.830
16790SOL     OW52201   8.017   1.217  10.724
16790SOL    HW152202   8.094   1.275  10.724
16790SOL    HW252203   8.024   1.169  10.807
16791SOL     OW52204   2.022   4.245   1.829
16791SOL    HW152205   2.116   4.229   1.838
16791SOL    HW252206   2.006   4.244   1.735
16792SOL     OW52207   4.607   8.873  12.750
16792SOL    HW152208   4.609   8.874  12.654
16792SOL    HW252209   4.536   8.812  12.772
16793SOL     OW52210   6.805   0.147   7.706
16793SOL    HW152211   6.870   0.091   7.747
16793SOL    HW252212   6.738   0.160   7.774
16794SOL     OW52213  12.166   9.935   3.802
16794SOL    HW152214  12.118   9.856   3.827
16794SOL    HW252215  12.152   9.943   3.708
16795SOL     OW52216   9.765  12.825  12.800
16795SOL    HW152217   9.782  12.907  12.846
16795SOL    HW252218   9.724  12.851  12.718
16796SOL     OW52219   2.080  10.485   1.671
16796SOL    HW152220   2.111  10.567   1.709
16796SOL    HW252221   2.150  10.457   1.613
16797SOL     OW52222   7.426   5.874   6.870
16797SOL    HW152223   7.426   5.803   6.806
16797SOL    HW252224   7.486   5.939   6.835
16798SOL     OW52225  10.549  12.456  10.612
16798SOL    HW152226  10.569  12.366  10.635
16798SOL    HW252227  10.495  12.487  10.685
16799SOL     OW52228   3.356  11.611   6.981
16799SOL    HW152229   3.383  11.540   6.924
16799SOL    HW252230   3.287  11.657   6.933
16800SOL     OW52231  10.317   2.206   4.564
16800SOL    HW152232  10.294   2.299   4.556
16800SOL    HW252233  10.412   2.207   4.575
16801SOL     OW52234   9.876   4.673   0.194
16801SOL    HW152235   9.789   4.704   0.220
16801SOL    HW252236   9.897   4.722   0.115
16802SOL     OW52237   2.043  13.102   8.143
16802SOL    HW152238   2.102  13.112   8.217
16802SOL    HW252239   1.955  13.107   8.180
16803SOL     OW52240   1.591   6.709   3.054
16803SOL    HW152241   1.643   6.663   3.120
16803SOL    HW252242   1.521   6.751   3.105
16804SOL     OW52243   2.499   9.986   5.809
16804SOL    HW152244   2.538   9.980   5.897
16804SOL    HW252245   2.574   9.995   5.750
16805SOL     OW52246   2.834   6.264   2.452
16805SOL    HW152247   2.902   6.327   2.477
16805SOL    HW252248   2.822   6.277   2.358
16806SOL     OW52249   2.266   1.759   4.902
16806SOL    HW152250   2.201   1.812   4.857
16806SOL    HW252251   2.261   1.787   4.994
16807SOL     OW52252   5.339  11.795   0.105
16807SOL    HW152253   5.293  11.765   0.027
16807SOL    HW252254   5.332  11.891   0.102
16808SOL     OW52255   5.724   6.186   5.012
16808SOL    HW152256   5.816   6.191   5.038
16808SOL    HW252257   5.703   6.273   4.978
16809SOL     OW52258   5.014   1.874   8.048
16809SOL    HW152259   4.939   1.817   8.036
16809SOL    HW252260   5.020   1.924   7.967
16810SOL     OW52261   6.904  12.452   5.034
16810SOL    HW152262   6.877  12.544   5.029
16810SOL    HW252263   6.871  12.422   5.119
16811SOL     OW52264  10.757  13.482   8.533
16811SOL    HW152265  10.766  13.410   8.470
16811SOL    HW252266  10.837  13.476   8.586
16812SOL     OW52267  12.935   5.272   3.510
16812SOL    HW152268  12.883   5.352   3.506
16812SOL    HW252269  12.887   5.215   3.570
16813SOL     OW52270   0.273   2.463   8.729
16813SOL    HW152271   0.305   2.416   8.806
16813SOL    HW252272   0.192   2.504   8.758
16814SOL     OW52273  10.482   1.858   5.995
16814SOL    HW152274  10.414   1.836   6.059
16814SOL    HW252275  10.537   1.780   5.991
16815SOL     OW52276   7.734   4.615   9.605
16815SOL    HW152277   7.663   4.676   9.584
16815SOL    HW252278   7.744   4.563   9.525
16816SOL     OW52279   9.262   7.352   2.688
16816SOL    HW152280   9.293   7.358   2.598
16816SOL    HW252281   9.302   7.272   2.722
16817SOL     OW52282   8.632   5.097   4.681
16817SOL    HW152283   8.701   5.040   4.717
16817SOL    HW252284   8.610   5.156   4.754
16818SOL     OW52285   4.061   0.358   7.553
16818SOL    HW152286   4.014   0.407   7.486
16818SOL    HW252287   4.003   0.286   7.576
16819SOL     OW52288   3.897   8.864  13.473
16819SOL    HW152289   3.809   8.830  13.454
16819SOL    HW252290   3.882   8.938  13.531
16820SOL     OW52291  13.157   5.528   5.754
16820SOL    HW152292  13.210   5.601   5.723
16820SOL    HW252293  13.209   5.450   5.732
16821SOL     OW52294   7.432   0.382   8.246
16821SOL    HW152295   7.362   0.390   8.311
16821SOL    HW252296   7.511   0.411   8.291
16822SOL     OW52297   1.398  12.437   6.815
16822SOL    HW152298   1.468  12.486   6.858
16822SOL    HW252299   1.439  12.401   6.736
16823SOL     OW52300  10.229  11.083   5.801
16823SOL    HW152301  10.190  11.163   5.766
16823SOL    HW252302  10.209  11.016   5.735
16824SOL     OW52303   2.144   3.425   1.564
16824SOL    HW152304   2.081   3.497   1.558
16824SOL    HW252305   2.181   3.418   1.476
16825SOL     OW52306   9.700  10.165   7.167
16825SOL    HW152307   9.786  10.202   7.190
16825SOL    HW252308   9.673  10.213   7.089
16826SOL     OW52309   4.667   7.040  14.226
16826SOL    HW152310   4.571   7.042  14.233
16826SOL    HW252311   4.684   7.028  14.133
16827SOL     OW52312   5.789   3.640   9.709
16827SOL    HW152313   5.880   3.626   9.683
16827SOL    HW252314   5.785   3.610   9.800
16828SOL     OW52315   0.663   8.902   7.200
16828SOL    HW152316   0.724   8.920   7.271
16828SOL    HW252317   0.579   8.935   7.232
16829SOL     OW52318   5.560   4.581  11.621
16829SOL    HW152319   5.601   4.667  11.618
16829SOL    HW252320   5.483   4.589  11.565
16830SOL     OW52321   9.608   4.143   2.742
16830SOL    HW152322   9.576   4.225   2.704
16830SOL    HW252323   9.701   4.158   2.757
16831SOL     OW52324   7.658   0.187  13.879
16831SOL    HW152325   7.680   0.175  13.971
16831SOL    HW252326   7.622   0.103  13.851
16832SOL     OW52327   1.898  11.489   7.173
16832SOL    HW152328   1.921  11.476   7.265
16832SOL    HW252329   1.893  11.401   7.136
16833SOL     OW52330   4.034  14.174   3.185
16833SOL    HW152331   4.043  14.267   3.207
16833SOL    HW252332   4.025  14.130   3.269
16834SOL     OW52333  13.548   4.459   2.516
16834SOL    HW152334  13.540   4.382   2.461
16834SOL    HW252335  13.545   4.533   2.455
16835SOL     OW52336  12.364   2.693   6.402
16835SOL    HW152337  12.352   2.615   6.348
16835SOL    HW252338  12.289   2.749   6.380
16836SOL     OW52339  14.200  13.933   7.687
16836SOL    HW152340  14.151  14.012   7.709
16836SOL    HW252341  14.259  13.961   7.616
16837SOL     OW52342   1.368  10.646   6.361
16837SOL    HW152343   1.316  10.584   6.310
16837SOL    HW252344   1.453  10.604   6.371
16838SOL     OW52345  14.357   4.515   3.868
16838SOL    HW152346  14.280   4.553   3.910
16838SOL    HW252347  14.430   4.571   3.896
16839SOL     OW52348  10.901  13.102   4.483
16839SOL    HW152349  10.867  13.173   4.538
16839SOL    HW252350  10.969  13.143   4.430
16840SOL     OW52351   7.575   5.580  11.632
16840SOL    HW152352   7.492   5.621  11.608
16840SOL    HW252353   7.579   5.587  11.727
16841SOL     OW52354  11.168   5.336   6.437
16841SOL    HW152355  11.212   5.311   6.518
16841SOL    HW252356  11.197   5.426   6.421
16842SOL     OW52357   1.917  10.368  12.322
16842SOL    HW152358   1.857  10.297  12.302
16842SOL    HW252359   1.903  10.432  12.251
16843SOL     OW52360   9.239   1.092   8.685
16843SOL    HW152361   9.149   1.060   8.698
16843SOL    HW252362   9.267   1.119   8.773
16844SOL     OW52363   0.297   5.162  14.049
16844SOL    HW152364   0.215   5.137  14.092
16844SOL    HW252365   0.300   5.108  13.970
16845SOL     OW52366   3.949  11.510   1.370
16845SOL    HW152367   3.971  11.601   1.390
16845SOL    HW252368   4.026  11.460   1.399
16846SOL     OW52369   7.683   2.347   6.071
16846SOL    HW152370   7.772   2.381   6.063
16846SOL    HW252371   7.686   2.263   6.025
16847SOL     OW52372   6.952   6.856   6.403
16847SOL    HW152373   6.919   6.877   6.315
16847SOL    HW252374   6.875   6.821   6.449
16848SOL     OW52375  12.520   2.074   0.732
16848SOL    HW152376  12.594   2.024   0.698
16848SOL    HW252377  12.559   2.153   0.770
16849SOL     OW52378   6.572   7.164   3.122
16849SOL    HW152379   6.619   7.155   3.039
16849SOL    HW252380   6.582   7.079   3.165
16850SOL     OW52381  12.459   4.608   1.131
16850SOL    HW152382  12.555   4.609   1.126
16850SOL    HW252383  12.439   4.547   1.202
16851SOL     OW52384   9.452  10.518   7.142
16851SOL    HW152385   9.526  10.490   7.197
16851SOL    HW252386   9.441  10.611   7.161
16852SOL     OW52387  10.019  10.474   6.726
16852SOL    HW152388  10.098  10.429   6.757
16852SOL    HW252389  10.017  10.456   6.632
16853SOL     OW52390  11.031  13.557  11.575
16853SOL    HW152391  10.952  13.564  11.628
16853SOL    HW252392  11.076  13.480  11.609
16854SOL     OW52393   5.650   8.387  10.381
16854SOL    HW152394   5.611   8.427  10.304
16854SOL    HW252395   5.611   8.299  10.386
16855SOL     OW52396   7.825   3.271   2.678
16855SOL    HW152397   7.849   3.256   2.586
16855SOL    HW252398   7.765   3.199   2.698
16856SOL     OW52399  10.014  10.873  10.871
16856SOL    HW152400  10.075  10.811  10.831
16856SOL    HW252401   9.988  10.930  10.799
16857SOL     OW52402   8.975  12.129   8.312
16857SOL    HW152403   8.977  12.224   8.326
16857SOL    HW252404   9.047  12.095   8.364
16858SOL     OW52405   7.099   4.192  12.603
16858SOL    HW152406   7.129   4.239  12.681
16858SOL    HW252407   7.125   4.249  12.530
16859SOL     OW52408  12.991   1.162   2.602
16859SOL    HW152409  13.016   1.149   2.510
16859SOL    HW252410  13.014   1.080   2.645
16860SOL     OW52411   7.647   2.401  14.862
16860SOL    HW152412   7.678   2.432  14.776
16860SOL    HW252413   7.589   2.328  14.842
16861SOL     OW52414   5.218   6.302   8.769
16861SOL    HW152415   5.193   6.375   8.826
16861SOL    HW252416   5.302   6.328   8.732
16862SOL     OW52417  11.490  11.531   2.005
16862SOL    HW152418  11.521  11.620   2.023
16862SOL    HW252419  11.410  11.523   2.057
16863SOL     OW52420   2.250   8.451   6.207
16863SOL    HW152421   2.312   8.522   6.189
16863SOL    HW252422   2.298   8.371   6.187
16864SOL     OW52423  12.073  12.981   4.563
16864SOL    HW152424  12.053  12.901   4.611
16864SOL    HW252425  12.006  12.985   4.495
16865SOL     OW52426   1.852  11.921  14.510
16865SOL    HW152427   1.860  11.828  14.532
16865SOL    HW252428   1.915  11.934  14.439
16866SOL     OW52429  11.319   8.138   6.742
16866SOL    HW152430  11.238   8.117   6.695
16866SOL    HW252431  11.317   8.083   6.820
16867SOL     OW52432  10.776   1.409   6.435
16867SOL    HW152433  10.729   1.452   6.363
16867SOL    HW252434  10.838   1.350   6.391
16868SOL     OW52435   7.423   3.857   7.004
16868SOL    HW152436   7.394   3.803   6.930
16868SOL    HW252437   7.443   3.942   6.965
16869SOL     OW52438   1.490  11.430   2.923
16869SOL    HW152439   1.539  11.362   2.969
16869SOL    HW252440   1.534  11.511   2.946
16870SOL     OW52441   7.121   9.636  10.704
16870SOL    HW152442   7.111   9.551  10.662
16870SOL    HW252443   7.040   9.683  10.683
16871SOL     OW52444   3.406   3.127   8.928
16871SOL    HW152445   3.393   3.044   8.882
16871SOL    HW252446   3.380   3.194   8.865
16872SOL     OW52447   6.080   9.706   4.702
16872SOL    HW152448   6.092   9.682   4.793
16872SOL    HW252449   6.001   9.762   4.702
16873SOL     OW52450   2.805   8.550   2.876
16873SOL    HW152451   2.720   8.584   2.848
16873SOL    HW252452   2.797   8.455   2.867
16874SOL     OW52453  12.515   3.378   4.560
16874SOL    HW152454  12.434   3.374   4.612
16874SOL    HW252455  12.565   3.301   4.588
16875SOL     OW52456  14.125  13.475   2.574
16875SOL    HW152457  14.204  13.502   2.620
16875SOL    HW252458  14.146  13.388   2.540
16876SOL     OW52459   3.611  14.724  10.749
16876SOL    HW152460   3.538  14.663  10.737
16876SOL    HW252461   3.625  14.761  10.662
16877SOL     OW52462  13.435  10.875   0.480
16877SOL    HW152463  13.408  10.893   0.390
16877SOL    HW252464  13.530  10.873   0.476
16878SOL     OW52465   5.753   3.959   2.953
16878SOL    HW152466   5.659   3.946   2.944
16878SOL    HW252467   5.781   3.989   2.866
16879SOL     OW52468  10.218  11.061  14.129
16879SOL    HW152469  10.134  11.031  14.095
16879SOL    HW252470  10.267  10.980  14.145
16880SOL     OW52471   3.229   9.667   8.347
16880SOL    HW152472   3.218   9.751   8.391
16880SOL    HW252473   3.168   9.670   8.273
16881SOL     OW52474  14.460  10.705   0.468
16881SOL    HW152475  14.552  10.730   0.468
16881SOL    HW252476  14.439  10.690   0.560
16882SOL     OW52477   6.538  12.883   3.821
16882SOL    HW152478   6.474  12.944   3.857
16882SOL    HW252479   6.499  12.796   3.834
16883SOL     OW52480   3.121   4.759   0.343
16883SOL    HW152481   3.035   4.724   0.321
16883SOL    HW252482   3.113   4.788   0.434
16884SOL     OW52483  13.439   1.780   5.432
16884SOL    HW152484  13.392   1.836   5.371
16884SOL    HW252485  13.485   1.841   5.490
16885SOL     OW52486  10.566  10.225   9.430
16885SOL    HW152487  10.497  10.269   9.479
16885SOL    HW252488  10.524  10.147   9.393
16886SOL     OW52489   5.010  11.473   7.580
16886SOL    HW152490   5.067  11.453   7.506
16886SOL    HW252491   5.034  11.562   7.605
16887SOL     OW52492   3.491   3.804  12.958
16887SOL    HW152493   3.485   3.796  12.862
16887SOL    HW252494   3.407   3.771  12.990
16888SOL     OW52495   4.609  10.545   6.059
16888SOL    HW152496   4.640  10.548   5.969
16888SOL    HW252497   4.534  10.485   6.056
16889SOL     OW52498   9.537   8.244   5.925
16889SOL    HW152499   9.513   8.152   5.932
16889SOL    HW252500   9.525   8.265   5.832
16890SOL     OW52501  13.736   9.293  13.537
16890SOL    HW152502  13.707   9.333  13.620
16890SOL    HW252503  13.831   9.283  13.548
16891SOL     OW52504   5.275   3.785   0.686
16891SOL    HW152505   5.348   3.770   0.747
16891SOL    HW252506   5.233   3.864   0.720
16892SOL     OW52507   8.275   5.030  13.467
16892SOL    HW152508   8.250   5.052  13.556
16892SOL    HW252509   8.203   5.063  13.413
16893SOL     OW52510   6.000   2.186   7.241
16893SOL    HW152511   5.928   2.123   7.254
16893SOL    HW252512   5.956   2.269   7.226
16894SOL     OW52513   1.422   8.540   4.172
16894SOL    HW152514   1.393   8.628   4.147
16894SOL    HW252515   1.342   8.495   4.199
16895SOL     OW52516   1.059   1.728   7.265
16895SOL    HW152517   1.152   1.730   7.242
16895SOL    HW252518   1.029   1.818   7.251
16896SOL     OW52519  13.953   1.922  14.043
16896SOL    HW152520  13.940   2.013  14.070
16896SOL    HW252521  13.870   1.879  14.063
16897SOL     OW52522   7.800   9.067   3.918
16897SOL    HW152523   7.849   9.137   3.961
16897SOL    HW252524   7.867   9.013   3.875
16898SOL     OW52525   7.947   9.249  12.188
16898SOL    HW152526   7.905   9.306  12.123
16898SOL    HW252527   7.874   9.216  12.241
16899SOL     OW52528  12.791   7.893  12.798
16899SOL    HW152529  12.730   7.861  12.864
16899SOL    HW252530  12.786   7.988  12.804
16900SOL     OW52531  10.667   1.016   9.802
16900SOL    HW152532  10.621   0.985   9.723
16900SOL    HW252533  10.611   1.086   9.836
16901SOL     OW52534   0.036  13.958   1.960
16901SOL    HW152535   0.115  14.012   1.955
16901SOL    HW252536   0.042  13.901   1.883
16902SOL     OW52537  10.254   7.552   3.817
16902SOL    HW152538  10.244   7.547   3.912
16902SOL    HW252539  10.312   7.479   3.794
16903SOL     OW52540   1.311  11.003   1.463
16903SOL    HW152541   1.390  10.970   1.421
16903SOL    HW252542   1.240  10.979   1.404
16904SOL     OW52543   3.558  13.984  11.482
16904SOL    HW152544   3.565  14.006  11.574
16904SOL    HW252545   3.544  14.068  11.438
16905SOL     OW52546  11.575   8.905  13.514
16905SOL    HW152547  11.527   8.977  13.473
16905SOL    HW252548  11.651   8.890  13.457
16906SOL     OW52549  14.275   2.395   3.338
16906SOL    HW152550  14.366   2.423   3.330
16906SOL    HW252551  14.238   2.409   3.251
16907SOL     OW52552   0.083   9.270   7.766
16907SOL    HW152553   0.176   9.259   7.785
16907SOL    HW252554   0.044   9.291   7.851
16908SOL     OW52555   6.156   7.179   8.625
16908SOL    HW152556   6.235   7.156   8.575
16908SOL    HW252557   6.164   7.128   8.706
16909SOL     OW52558  12.186   1.819   6.397
16909SOL    HW152559  12.243   1.834   6.321
16909SOL    HW252560  12.246   1.789   6.465
16910SOL     OW52561  13.321   1.529   7.086
16910SOL    HW152562  13.240   1.579   7.075
16910SOL    HW252563  13.361   1.564   7.165
16911SOL     OW52564   1.249   3.789  14.377
16911SOL    HW152565   1.193   3.861  14.349
16911SOL    HW252566   1.199   3.744  14.445
16912SOL     OW52567   8.139  10.345   6.380
16912SOL    HW152568   8.121  10.303   6.464
16912SOL    HW252569   8.052  10.359   6.341
16913SOL     OW52570  13.698  10.841   3.720
16913SOL    HW152571  13.692  10.936   3.720
16913SOL    HW252572  13.792  10.823   3.722
16914SOL     OW52573   7.388   1.416   6.237
16914SOL    HW152574   7.423   1.342   6.188
16914SOL    HW252575   7.384   1.487   6.173
16915SOL     OW52576  10.400  11.214   6.967
16915SOL    HW152577  10.361  11.253   6.889
16915SOL    HW252578  10.462  11.281   6.998
16916SOL     OW52579  14.392   0.681  13.627
16916SOL    HW152580  14.398   0.766  13.672
16916SOL    HW252581  14.331   0.696  13.555
16917SOL     OW52582   6.746   2.578   7.575
16917SOL    HW152583   6.769   2.669   7.558
16917SOL    HW252584   6.800   2.528   7.513
16918SOL     OW52585   6.145   1.177   2.506
16918SOL    HW152586   6.086   1.198   2.579
16918SOL    HW252587   6.182   1.092   2.529
16919SOL     OW52588  11.447  10.027  14.346
16919SOL    HW152589  11.489  10.028  14.433
16919SOL    HW252590  11.361  10.066  14.361
16920SOL     OW52591   2.832  11.690  10.794
16920SOL    HW152592   2.909  11.661  10.843
16920SOL    HW252593   2.859  11.685  10.702
16921SOL     OW52594  12.510   8.011   7.626
16921SOL    HW152595  12.602   8.029   7.608
16921SOL    HW252596  12.510   7.974   7.715
16922SOL     OW52597   0.660   7.833  13.151
16922SOL    HW152598   0.599   7.873  13.089
16922SOL    HW252599   0.746   7.841  13.108
16923SOL     OW52600   9.259  14.584   4.527
16923SOL    HW152601   9.247  14.675   4.500
16923SOL    HW252602   9.260  14.535   4.445
16924SOL     OW52603  11.902  11.253   0.040
16924SOL    HW152604  11.908  11.308  14.837
16924SOL    HW252605  11.970  11.187   0.027
16925SOL     OW52606   1.949   4.370  11.858
16925SOL    HW152607   1.935   4.381  11.952
16925SOL    HW252608   1.876   4.417  11.817
16926SOL     OW52609  13.050   7.314   8.973
16926SOL    HW152610  13.004   7.266   8.904
16926SOL    HW252611  13.035   7.406   8.952
16927SOL     OW52612   3.097  10.719   1.488
16927SOL    HW152613   3.169  10.777   1.512
16927SOL    HW252614   3.026  10.778   1.463
16928SOL     OW52615   3.431   0.684  14.669
16928SOL    HW152616   3.486   0.761  14.685
16928SOL    HW252617   3.418   0.646  14.756
16929SOL     OW52618  11.462   5.725   4.742
16929SOL    HW152619  11.416   5.698   4.821
16929SOL    HW252620  11.554   5.705   4.759
16930SOL     OW52621   7.946   5.264   0.490
16930SOL    HW152622   7.976   5.305   0.409
16930SOL    HW252623   7.935   5.338   0.551
16931SOL     OW52624  14.511  11.554   1.018
16931SOL    HW152625  14.564  11.542   0.939
16931SOL    HW252626  14.517  11.470   1.064
16932SOL     OW52627   2.636   6.188   8.698
16932SOL    HW152628   2.717   6.214   8.653
16932SOL    HW252629   2.612   6.105   8.659
16933SOL     OW52630  10.643   8.387   1.791
16933SOL    HW152631  10.658   8.319   1.725
16933SOL    HW252632  10.723   8.438   1.791
16934SOL     OW52633   1.860  14.566   9.768
16934SOL    HW152634   1.866  14.545   9.861
16934SOL    HW252635   1.774  14.606   9.758
16935SOL     OW52636  14.224   4.089   4.071
16935SOL    HW152637  14.185   4.170   4.103
16935SOL    HW252638  14.303   4.117   4.024
16936SOL     OW52639   1.989   9.327  10.763
16936SOL    HW152640   1.936   9.380  10.703
16936SOL    HW252641   2.075   9.321  10.721
16937SOL     OW52642   9.955   7.964   5.578
16937SOL    HW152643  10.000   7.929   5.501
16937SOL    HW252644   9.863   7.970   5.551
16938SOL     OW52645   4.701   4.150   5.441
16938SOL    HW152646   4.783   4.109   5.414
16938SOL    HW252647   4.700   4.234   5.394
16939SOL     OW52648   9.429  13.180  14.676
16939SOL    HW152649   9.357  13.240  14.695
16939SOL    HW252650   9.507  13.236  14.679
16940SOL     OW52651  11.823   2.609   1.624
16940SOL    HW152652  11.867   2.658   1.693
16940SOL    HW252653  11.730   2.630   1.634
16941SOL     OW52654   6.636  11.946   3.298
16941SOL    HW152655   6.693  12.022   3.304
16941SOL    HW252656   6.637  11.908   3.386
16942SOL     OW52657  11.816  14.150   9.631
16942SOL    HW152658  11.758  14.192   9.694
16942SOL    HW252659  11.879  14.102   9.684
16943SOL     OW52660  11.291   7.066   4.090
16943SOL    HW152661  11.247   7.149   4.102
16943SOL    HW252662  11.282   7.046   3.997
16944SOL     OW52663  10.094   5.981   4.054
16944SOL    HW152664  10.151   6.057   4.043
16944SOL    HW252665  10.152   5.912   4.087
16945SOL     OW52666  12.599   9.888  13.208
16945SOL    HW152667  12.510   9.879  13.173
16945SOL    HW252668  12.656   9.878  13.133
16946SOL     OW52669   6.490  14.134  12.188
16946SOL    HW152670   6.466  14.111  12.278
16946SOL    HW252671   6.513  14.051  12.147
16947SOL     OW52672   8.586   6.251   0.260
16947SOL    HW152673   8.658   6.229   0.319
16947SOL    HW252674   8.617   6.223   0.174
16948SOL     OW52675   2.990  13.813   9.056
16948SOL    HW152676   3.067  13.770   9.095
16948SOL    HW252677   3.014  13.906   9.057
16949SOL     OW52678  10.424   4.305   9.899
16949SOL    HW152679  10.335   4.318   9.930
16949SOL    HW252680  10.459   4.393   9.887
16950SOL     OW52681  10.725   4.141   8.461
16950SOL    HW152682  10.747   4.067   8.404
16950SOL    HW252683  10.799   4.148   8.521
16951SOL     OW52684   9.483   8.895  11.826
16951SOL    HW152685   9.557   8.850  11.785
16951SOL    HW252686   9.523   8.962  11.881
16952SOL     OW52687   9.002   0.901  13.334
16952SOL    HW152688   8.982   0.817  13.292
16952SOL    HW252689   9.062   0.945  13.273
16953SOL     OW52690  12.527   5.433   3.553
16953SOL    HW152691  12.437   5.465   3.554
16953SOL    HW252692  12.532   5.373   3.628
16954SOL     OW52693  14.010   3.630  10.700
16954SOL    HW152694  13.979   3.606  10.613
16954SOL    HW252695  14.100   3.659  10.687
16955SOL     OW52696   8.507  10.159  10.178
16955SOL    HW152697   8.535  10.078  10.221
16955SOL    HW252698   8.532  10.228  10.240
16956SOL     OW52699   0.668   8.557   3.683
16956SOL    HW152700   0.682   8.462   3.684
16956SOL    HW252701   0.665   8.582   3.775
16957SOL     OW52702   6.309   1.321   2.325
16957SOL    HW152703   6.275   1.290   2.242
16957SOL    HW252704   6.246   1.290   2.390
16958SOL     OW52705   9.543  12.386  10.202
16958SOL    HW152706   9.518  12.383  10.294
16958SOL    HW252707   9.635  12.410  10.202
16959SOL     OW52708  10.083   6.187  12.609
16959SOL    HW152709  10.173   6.218  12.598
16959SOL    HW252710  10.031   6.268  12.617
16960SOL     OW52711   8.443  13.208  10.229
16960SOL    HW152712   8.522  13.210  10.175
16960SOL    HW252713   8.462  13.143  10.297
16961SOL     OW52714   1.412   9.300   8.572
16961SOL    HW152715   1.387   9.273   8.660
16961SOL    HW252716   1.443   9.390   8.582
16962SOL     OW52717   0.050   1.801   9.216
16962SOL    HW152718   0.015   1.713   9.230
16962SOL    HW252719   0.016   1.853   9.289
16963SOL     OW52720  14.593   7.990  13.927
16963SOL    HW152721  14.551   7.905  13.915
16963SOL    HW252722  14.547   8.029  14.001
16964SOL     OW52723  10.385  14.854   3.572
16964SOL    HW152724  10.363   0.038   3.500
16964SOL    HW252725  10.303  14.807   3.589
16965SOL     OW52726   4.659   7.975   9.538
16965SOL    HW152727   4.728   7.997   9.600
16965SOL    HW252728   4.652   7.880   9.542
16966SOL     OW52729  13.915  10.014   8.325
16966SOL    HW152730  13.825  10.037   8.350
16966SOL    HW252731  13.963  10.097   8.330
16967SOL     OW52732   8.464  14.599  10.156
16967SOL    HW152733   8.558  14.590  10.137
16967SOL    HW252734   8.452  14.692  10.175
16968SOL     OW52735   7.634   2.711   5.914
16968SOL    HW152736   7.688   2.779   5.955
16968SOL    HW252737   7.697   2.646   5.884
16969SOL     OW52738   7.605  10.238   9.214
16969SOL    HW152739   7.568  10.284   9.290
16969SOL    HW252740   7.592  10.145   9.233
16970SOL     OW52741  11.842   0.364   5.987
16970SOL    HW152742  11.819   0.420   5.913
16970SOL    HW252743  11.897   0.419   6.043
16971SOL     OW52744   9.407  11.715  12.506
16971SOL    HW152745   9.439  11.768  12.579
16971SOL    HW252746   9.329  11.672  12.541
16972SOL     OW52747   4.687   0.125   2.728
16972SOL    HW152748   4.695   0.034   2.699
16972SOL    HW252749   4.678   0.175   2.647
16973SOL     OW52750   0.565   5.158  10.876
16973SOL    HW152751   0.525   5.233  10.920
16973SOL    HW252752   0.649   5.146  10.920
16974SOL     OW52753  10.208   1.683  11.427
16974SOL    HW152754  10.186   1.756  11.485
16974SOL    HW252755  10.208   1.721  11.339
16975SOL     OW52756   3.053   9.921   5.341
16975SOL    HW152757   2.996   9.944   5.268
16975SOL    HW252758   3.141   9.916   5.302
16976SOL     OW52759   1.772   3.704   5.935
16976SOL    HW152760   1.688   3.683   5.976
16976SOL    HW252761   1.836   3.702   6.007
16977SOL     OW52762   6.397  12.549   8.814
16977SOL    HW152763   6.305  12.536   8.793
16977SOL    HW252764   6.443  12.530   8.732
16978SOL     OW52765   8.793   0.042   8.415
16978SOL    HW152766   8.774   0.124   8.368
16978SOL    HW252767   8.827  14.859   8.348
16979SOL     OW52768   0.342   1.137  11.674
16979SOL    HW152769   0.372   1.048  11.689
16979SOL    HW252770   0.280   1.129  11.601
16980SOL     OW52771   8.579  13.198   9.767
16980SOL    HW152772   8.629  13.266   9.813
16980SOL    HW252773   8.646  13.137   9.736
16981SOL     OW52774  11.313   5.492  14.735
16981SOL    HW152775  11.391   5.487  14.790
16981SOL    HW252776  11.322   5.574  14.687
16982SOL     OW52777  11.490   8.410   1.362
16982SOL    HW152778  11.533   8.386   1.444
16982SOL    HW252779  11.397   8.399   1.379
16983SOL     OW52780   7.781   0.463   4.776
16983SOL    HW152781   7.714   0.488   4.838
16983SOL    HW252782   7.740   0.393   4.724
16984SOL     OW52783  10.444  11.052   3.226
16984SOL    HW152784  10.374  11.091   3.174
16984SOL    HW252785  10.521  11.055   3.170
16985SOL     OW52786  10.288   0.993  13.310
16985SOL    HW152787  10.289   0.898  13.300
16985SOL    HW252788  10.196   1.018  13.294
16986SOL     OW52789   3.779   9.319   5.013
16986SOL    HW152790   3.782   9.228   4.981
16986SOL    HW252791   3.795   9.312   5.107
16987SOL     OW52792  13.918   1.306   5.823
16987SOL    HW152793  13.988   1.246   5.848
16987SOL    HW252794  13.949   1.346   5.741
16988SOL     OW52795   0.880   1.381  13.589
16988SOL    HW152796   0.864   1.317  13.658
16988SOL    HW252797   0.860   1.465  13.630
16989SOL     OW52798   2.307   5.662  13.100
16989SOL    HW152799   2.259   5.588  13.064
16989SOL    HW252800   2.338   5.631  13.185
16990SOL     OW52801   3.868   7.180   1.367
16990SOL    HW152802   3.861   7.129   1.448
16990SOL    HW252803   3.779   7.181   1.332
16991SOL     OW52804  12.234  13.972  13.623
16991SOL    HW152805  12.170  14.001  13.557
16991SOL    HW252806  12.207  14.016  13.703
16992SOL     OW52807   4.458   4.632   8.941
16992SOL    HW152808   4.383   4.659   8.993
16992SOL    HW252809   4.464   4.537   8.956
16993SOL     OW52810  12.906   3.053   4.556
16993SOL    HW152811  12.949   3.131   4.590
16993SOL    HW252812  12.936   3.047   4.465
16994SOL     OW52813  11.525  14.555   8.114
16994SOL    HW152814  11.528  14.588   8.204
16994SOL    HW252815  11.605  14.589   8.074
16995SOL     OW52816   6.773   1.796   5.548
16995SOL    HW152817   6.858   1.801   5.505
16995SOL    HW252818   6.786   1.836   5.634
16996SOL     OW52819   6.300  12.871   3.497
16996SOL    HW152820   6.217  12.825   3.484
16996SOL    HW252821   6.365  12.802   3.510
16997SOL     OW52822  11.393   1.129  11.176
16997SOL    HW152823  11.385   1.159  11.267
16997SOL    HW252824  11.303   1.112  11.148
16998SOL     OW52825  14.047  14.829   1.431
16998SOL    HW152826  14.025   0.039   1.393
16998SOL    HW252827  14.109  14.790   1.370
16999SOL     OW52828   1.613   9.691  10.700
16999SOL    HW152829   1.577   9.609  10.667
16999SOL    HW252830   1.560   9.710  10.778
17000SOL     OW52831   7.455   8.892  10.055
17000SOL    HW152832   7.447   8.799  10.035
17000SOL    HW252833   7.535   8.920  10.010
17001SOL     OW52834  13.736   5.185   0.849
17001SOL    HW152835  13.690   5.268   0.860
17001SOL    HW252836  13.823   5.210   0.817
17002SOL     OW52837   2.087   1.342  10.960
17002SOL    HW152838   2.153   1.361  11.026
17002SOL    HW252839   2.009   1.317  11.010
17003SOL     OW52840  13.985  11.021  10.433
17003SOL    HW152841  13.990  11.110  10.399
17003SOL    HW252842  13.942  10.971  10.363
17004SOL     OW52843   0.664   4.935   6.986
17004SOL    HW152844   0.603   4.895   6.924
17004SOL    HW252845   0.707   4.861   7.028
17005SOL     OW52846  11.114  14.245  13.456
17005SOL    HW152847  11.051  14.254  13.385
17005SOL    HW252848  11.175  14.318  13.444
17006SOL     OW52849   2.021   9.417   6.837
17006SOL    HW152850   1.973   9.484   6.886
17006SOL    HW252851   2.020   9.449   6.747
17007SOL     OW52852  12.496   1.548   2.246
17007SOL    HW152853  12.419   1.581   2.200
17007SOL    HW252854  12.523   1.620   2.303
17008SOL     OW52855   2.801   6.566   2.303
17008SOL    HW152856   2.741   6.546   2.375
17008SOL    HW252857   2.818   6.481   2.262
17009SOL     OW52858   4.208   8.227  13.704
17009SOL    HW152859   4.284   8.225  13.762
17009SOL    HW252860   4.184   8.135  13.693
17010SOL     OW52861  12.012   4.349   2.113
17010SOL    HW152862  12.025   4.438   2.146
17010SOL    HW252863  12.088   4.334   2.057
17011SOL     OW52864  11.312   4.586   6.246
17011SOL    HW152865  11.216   4.584   6.252
17011SOL    HW252866  11.333   4.509   6.192
17012SOL     OW52867   2.652  13.467  13.319
17012SOL    HW152868   2.744  13.453  13.340
17012SOL    HW252869   2.651  13.483  13.224
17013SOL     OW52870  14.447  12.196  10.972
17013SOL    HW152871  14.422  12.106  10.994
17013SOL    HW252872  14.364  12.242  10.963
17014SOL     OW52873   8.668   5.078  12.016
17014SOL    HW152874   8.752   5.096  12.059
17014SOL    HW252875   8.609   5.145  12.050
17015SOL     OW52876   6.987   8.396  10.161
17015SOL    HW152877   6.980   8.355  10.074
17015SOL    HW252878   7.003   8.323  10.220
17016SOL     OW52879  14.602  13.863   6.591
17016SOL    HW152880  14.611  13.930   6.523
17016SOL    HW252881  14.598  13.781   6.542
17017SOL     OW52882   8.358  13.672  11.364
17017SOL    HW152883   8.286  13.733  11.371
17017SOL    HW252884   8.346  13.611  11.436
17018SOL     OW52885   5.728   3.498   1.060
17018SOL    HW152886   5.787   3.534   0.993
17018SOL    HW252887   5.763   3.531   1.143
17019SOL     OW52888   4.509   8.843   3.150
17019SOL    HW152889   4.453   8.772   3.181
17019SOL    HW252890   4.589   8.835   3.202
17020SOL     OW52891   4.367   8.236   8.812
17020SOL    HW152892   4.450   8.283   8.807
17020SOL    HW252893   4.389   8.145   8.789
17021SOL     OW52894   7.773   0.083  14.114
17021SOL    HW152895   7.764   0.004  14.060
17021SOL    HW252896   7.715   0.068  14.189
17022SOL     OW52897  10.145   4.717  10.687
17022SOL    HW152898  10.152   4.742  10.779
17022SOL    HW252899  10.234   4.693  10.662
17023SOL     OW52900  10.569  13.701  13.586
17023SOL    HW152901  10.650  13.654  13.608
17023SOL    HW252902  10.582  13.789  13.622
17024SOL     OW52903  10.242   0.066  11.968
17024SOL    HW152904  10.291   0.045  12.047
17024SOL    HW252905  10.160   0.018  11.976
17025SOL     OW52906   7.067   0.795   6.771
17025SOL    HW152907   6.982   0.818   6.733
17025SOL    HW252908   7.099   0.876   6.809
17026SOL     OW52909   9.423  14.371   7.667
17026SOL    HW152910   9.347  14.423   7.644
17026SOL    HW252911   9.474  14.427   7.726
17027SOL     OW52912  10.847   5.169  11.157
17027SOL    HW152913  10.925   5.207  11.117
17027SOL    HW252914  10.863   5.075  11.158
17028SOL     OW52915   9.346   4.548  12.346
17028SOL    HW152916   9.390   4.600  12.413
17028SOL    HW252917   9.311   4.613  12.284
17029SOL     OW52918   3.499  11.210   9.806
17029SOL    HW152919   3.489  11.248   9.719
17029SOL    HW252920   3.592  11.219   9.825
17030SOL     OW52921   0.276  11.057  13.226
17030SOL    HW152922   0.275  10.966  13.253
17030SOL    HW252923   0.360  11.091  13.258
17031SOL     OW52924  13.628   4.444   9.073
17031SOL    HW152925  13.600   4.477   9.158
17031SOL    HW252926  13.692   4.508   9.042
17032SOL     OW52927  12.676   6.818   6.537
17032SOL    HW152928  12.689   6.724   6.538
17032SOL    HW252929  12.760   6.854   6.508
17033SOL     OW52930  11.676   6.334   4.693
17033SOL    HW152931  11.699   6.297   4.778
17033SOL    HW252932  11.745   6.305   4.633
17034SOL     OW52933   0.321   4.747   9.656
17034SOL    HW152934   0.270   4.757   9.737
17034SOL    HW252935   0.295   4.821   9.602
17035SOL     OW52936  12.677  13.566   8.925
17035SOL    HW152937  12.637  13.652   8.912
17035SOL    HW252938  12.625  13.526   8.995
17036SOL     OW52939   9.094   4.902   1.904
17036SOL    HW152940   9.138   4.985   1.883
17036SOL    HW252941   9.045   4.921   1.985
17037SOL     OW52942   9.615   3.268   7.514
17037SOL    HW152943   9.604   3.232   7.426
17037SOL    HW252944   9.596   3.361   7.504
17038SOL     OW52945   4.144  11.952   4.101
17038SOL    HW152946   4.057  11.971   4.065
17038SOL    HW252947   4.205  11.989   4.038
17039SOL     OW52948  14.592   3.801  10.675
17039SOL    HW152949  14.504   3.777  10.705
17039SOL    HW252950  14.611   3.883  10.720
17040SOL     OW52951   0.842  13.387  13.951
17040SOL    HW152952   0.826  13.388  13.857
17040SOL    HW252953   0.785  13.319  13.985
17041SOL     OW52954   1.908   6.046   7.011
17041SOL    HW152955   1.903   6.097   7.092
17041SOL    HW252956   1.892   6.110   6.942
17042SOL     OW52957  13.219  11.239   5.743
17042SOL    HW152958  13.286  11.208   5.682
17042SOL    HW252959  13.138  11.237   5.693
17043SOL     OW52960   4.363   1.824   5.322
17043SOL    HW152961   4.319   1.745   5.292
17043SOL    HW252962   4.393   1.867   5.242
17044SOL     OW52963  14.748   4.476   1.940
17044SOL    HW152964  14.810   4.540   1.976
17044SOL    HW252965  14.682   4.529   1.896
17045SOL     OW52966   5.723   7.768   2.420
17045SOL    HW152967   5.661   7.835   2.394
17045SOL    HW252968   5.801   7.785   2.367
17046SOL     OW52969   6.962   7.068   1.483
17046SOL    HW152970   6.875   7.104   1.492
17046SOL    HW252971   6.976   7.061   1.389
17047SOL     OW52972   1.882   1.882  11.899
17047SOL    HW152973   1.916   1.950  11.958
17047SOL    HW252974   1.804   1.849  11.944
17048SOL     OW52975  13.397   7.268  10.474
17048SOL    HW152976  13.327   7.318  10.517
17048SOL    HW252977  13.478   7.304  10.510
17049SOL     OW52978   7.220  11.111  14.441
17049SOL    HW152979   7.202  11.109  14.535
17049SOL    HW252980   7.149  11.060  14.402
17050SOL     OW52981   3.871  11.657   8.741
17050SOL    HW152982   3.857  11.577   8.690
17050SOL    HW252983   3.966  11.670   8.739
17051SOL     OW52984  12.144   0.255   1.242
17051SOL    HW152985  12.049   0.263   1.236
17051SOL    HW252986  12.162   0.254   1.336
17052SOL     OW52987   7.349   6.835   2.108
17052SOL    HW152988   7.333   6.879   2.191
17052SOL    HW252989   7.349   6.741   2.130
17053SOL     OW52990   9.993   6.369   5.758
17053SOL    HW152991  10.042   6.443   5.722
17053SOL    HW252992  10.055   6.326   5.817
17054SOL     OW52993   3.449   7.421   4.564
17054SOL    HW152994   3.473   7.391   4.476
17054SOL    HW252995   3.354   7.420   4.565
17055SOL     OW52996   3.144   2.980  10.027
17055SOL    HW152997   3.049   2.970  10.033
17055SOL    HW252998   3.165   2.963   9.935
17056SOL     OW52999   2.806  11.617   1.210
17056SOL    HW153000   2.899  11.599   1.223
17056SOL    HW253001   2.804  11.700   1.163
17057SOL     OW53002  13.845   6.758   5.191
17057SOL    HW153003  13.877   6.805   5.269
17057SOL    HW253004  13.892   6.675   5.192
17058SOL     OW53005  11.851   3.380  13.888
17058SOL    HW153006  11.883   3.460  13.847
17058SOL    HW253007  11.798   3.411  13.962
17059SOL     OW53008  13.728  11.536  13.560
17059SOL    HW153009  13.716  11.497  13.646
17059SOL    HW253010  13.726  11.462  13.499
17060SOL     OW53011   5.159   8.390   6.172
17060SOL    HW153012   5.129   8.464   6.225
17060SOL    HW253013   5.230   8.351   6.222
17061SOL     OW53014   3.440   5.784   8.618
17061SOL    HW153015   3.482   5.729   8.683
17061SOL    HW253016   3.459   5.741   8.534
17062SOL     OW53017  11.685  14.588   8.727
17062SOL    HW153018  11.713  14.521   8.665
17062SOL    HW253019  11.723  14.670   8.694
17063SOL     OW53020   6.721   0.210   2.362
17063SOL    HW153021   6.807   0.192   2.398
17063SOL    HW253022   6.675   0.126   2.364
17064SOL     OW53023   5.961   9.533   7.287
17064SOL    HW153024   6.049   9.559   7.259
17064SOL    HW253025   5.976   9.473   7.360
17065SOL     OW53026   9.380   3.768   7.759
17065SOL    HW153027   9.416   3.856   7.745
17065SOL    HW253028   9.342   3.772   7.847
17066SOL     OW53029   1.521  13.786   2.614
17066SOL    HW153030   1.450  13.761   2.673
17066SOL    HW253031   1.586  13.828   2.670
17067SOL     OW53032  13.261   9.692   0.572
17067SOL    HW153033  13.193   9.758   0.566
17067SOL    HW253034  13.332   9.725   0.517
17068SOL     OW53035   0.113   4.420   3.848
17068SOL    HW153036   0.068   4.504   3.847
17068SOL    HW253037   0.180   4.430   3.916
17069SOL     OW53038  12.968  14.749   1.488
17069SOL    HW153039  13.009  14.790   1.564
17069SOL    HW253040  12.917  14.677   1.525
17070SOL     OW53041  11.929  10.631   3.783
17070SOL    HW153042  11.956  10.720   3.806
17070SOL    HW253043  11.911  10.589   3.867
17071SOL     OW53044  11.208  12.578  13.587
17071SOL    HW153045  11.232  12.544  13.501
17071SOL    HW253046  11.240  12.511  13.648
17072SOL     OW53047   1.013  13.512  13.454
17072SOL    HW153048   0.981  13.484  13.539
17072SOL    HW253049   1.108  13.517  13.464
17073SOL     OW53050   5.354  11.082  12.024
17073SOL    HW153051   5.340  10.995  11.987
17073SOL    HW253052   5.434  11.073  12.076
17074SOL     OW53053   0.996   0.619   0.630
17074SOL    HW153054   0.965   0.529   0.619
17074SOL    HW253055   1.006   0.629   0.725
17075SOL     OW53056   4.602   1.104   7.403
17075SOL    HW153057   4.526   1.160   7.387
17075SOL    HW253058   4.657   1.154   7.464
17076SOL     OW53059   2.150  14.500   0.811
17076SOL    HW153060   2.172  14.592   0.828
17076SOL    HW253061   2.101  14.473   0.889
17077SOL     OW53062   0.781   6.019   6.104
17077SOL    HW153063   0.807   5.972   6.184
17077SOL    HW253064   0.808   6.110   6.120
17078SOL     OW53065   3.984  13.294   0.672
17078SOL    HW153066   4.064  13.305   0.722
17078SOL    HW253067   4.014  13.264   0.586
17079SOL     OW53068   6.146   1.753   0.935
17079SOL    HW153069   6.228   1.752   0.983
17079SOL    HW253070   6.146   1.837   0.889
17080SOL     OW53071   8.096  13.299   5.225
17080SOL    HW153072   8.147  13.365   5.178
17080SOL    HW253073   8.159  13.231   5.248
17081SOL     OW53074   1.017  12.954   0.009
17081SOL    HW153075   0.975  12.936   0.093
17081SOL    HW253076   0.963  13.023  14.846
17082SOL     OW53077  14.757   6.420   3.047
17082SOL    HW153078  14.688   6.386   2.989
17082SOL    HW253079  14.794   6.342   3.088
17083SOL     OW53080  12.857  10.857  14.719
17083SOL    HW153081  12.925  10.828  14.659
17083SOL    HW253082  12.880  10.948  14.740
17084SOL     OW53083   4.248  12.746  13.858
17084SOL    HW153084   4.203  12.829  13.875
17084SOL    HW253085   4.341  12.768  13.857
17085SOL     OW53086   2.249   3.593  13.971
17085SOL    HW153087   2.342   3.575  13.984
17085SOL    HW253088   2.227   3.544  13.892
17086SOL     OW53089   6.417   3.073  11.174
17086SOL    HW153090   6.385   3.163  11.185
17086SOL    HW253091   6.443   3.068  11.082
17087SOL     OW53092   8.287   0.943  13.105
17087SOL    HW153093   8.252   0.867  13.059
17087SOL    HW253094   8.354   0.907  13.163
17088SOL     OW53095   7.953  10.058   9.082
17088SOL    HW153096   7.934  10.042   9.174
17088SOL    HW253097   7.997   9.978   9.053
17089SOL     OW53098  10.054  10.376   0.579
17089SOL    HW153099  10.057  10.323   0.659
17089SOL    HW253100   9.961  10.379   0.556
17090SOL     OW53101   4.595   8.773  10.656
17090SOL    HW153102   4.620   8.691  10.699
17090SOL    HW253103   4.604   8.755  10.563
17091SOL     OW53104   1.953   3.020   4.739
17091SOL    HW153105   1.873   2.971   4.761
17091SOL    HW253106   2.003   3.023   4.820
17092SOL     OW53107   2.890   7.960   0.722
17092SOL    HW153108   2.876   7.963   0.817
17092SOL    HW253109   2.881   7.867   0.700
17093SOL     OW53110   3.230   3.595   0.134
17093SOL    HW153111   3.155   3.566   0.082
17093SOL    HW253112   3.195   3.605   0.223
17094SOL     OW53113   4.894   7.330  10.960
17094SOL    HW153114   4.927   7.309  10.873
17094SOL    HW253115   4.888   7.426  10.961
17095SOL     OW53116   4.761   0.018   5.643
17095SOL    HW153117   4.796  14.820   5.692
17095SOL    HW253118   4.838   0.063   5.608
17096SOL     OW53119   1.896  10.663   6.678
17096SOL    HW153120   1.829  10.727   6.703
17096SOL    HW253121   1.940  10.703   6.604
17097SOL     OW53122  12.596   3.421   4.964
17097SOL    HW153123  12.522   3.408   5.024
17097SOL    HW253124  12.611   3.334   4.926
17098SOL     OW53125   1.435   8.149   2.093
17098SOL    HW153126   1.517   8.101   2.077
17098SOL    HW253127   1.383   8.089   2.147
17099SOL     OW53128   4.965   1.177   5.036
17099SOL    HW153129   4.976   1.103   5.095
17099SOL    HW253130   4.913   1.240   5.086
17100SOL     OW53131   8.818   0.524   1.590
17100SOL    HW153132   8.762   0.555   1.519
17100SOL    HW253133   8.779   0.440   1.616
17101SOL     OW53134  10.704   0.029  10.127
17101SOL    HW153135  10.632   0.003  10.184
17101SOL    HW253136  10.662   0.055  10.045
17102SOL     OW53137   0.340   0.274   8.024
17102SOL    HW153138   0.410   0.335   8.047
17102SOL    HW253139   0.272   0.329   7.985
17103SOL     OW53140  13.955   1.714  12.472
17103SOL    HW153141  14.005   1.687  12.550
17103SOL    HW253142  14.010   1.685  12.398
17104SOL     OW53143   6.718   2.400   3.401
17104SOL    HW153144   6.660   2.339   3.355
17104SOL    HW253145   6.664   2.478   3.415
17105SOL     OW53146   9.519  14.299  10.728
17105SOL    HW153147   9.538  14.393  10.731
17105SOL    HW253148   9.554  14.265  10.811
17106SOL     OW53149  11.167  11.126   3.511
17106SOL    HW153150  11.260  11.104   3.523
17106SOL    HW253151  11.135  11.141   3.600
17107SOL     OW53152   1.834   8.552   9.025
17107SOL    HW153153   1.920   8.516   9.003
17107SOL    HW253154   1.782   8.477   9.052
17108SOL     OW53155  14.637  11.979   3.522
17108SOL    HW153156  14.624  12.064   3.480
17108SOL    HW253157  14.691  11.930   3.460
17109SOL     OW53158   7.305  11.641   2.854
17109SOL    HW153159   7.343  11.691   2.926
17109SOL    HW253160   7.328  11.550   2.874
17110SOL     OW53161  12.857   4.297   1.644
17110SOL    HW153162  12.913   4.375   1.648
17110SOL    HW253163  12.839   4.286   1.551
17111SOL     OW53164   4.570  13.320   3.066
17111SOL    HW153165   4.559  13.412   3.043
17111SOL    HW253166   4.483  13.292   3.095
17112SOL     OW53167   1.561   2.066  12.221
17112SOL    HW153168   1.614   2.146  12.214
17112SOL    HW253169   1.622   1.995  12.198
17113SOL     OW53170   6.829  10.086   7.241
17113SOL    HW153171   6.832  10.041   7.325
17113SOL    HW253172   6.820  10.016   7.177
17114SOL     OW53173   9.962   0.273  12.603
17114SOL    HW153174   9.882   0.314  12.571
17114SOL    HW253175   9.945   0.179  12.595
17115SOL     OW53176  10.824   8.089  11.195
17115SOL    HW153177  10.791   8.041  11.271
17115SOL    HW253178  10.798   8.035  11.120
17116SOL     OW53179  11.025  12.992  13.805
17116SOL    HW153180  11.068  12.971  13.722
17116SOL    HW253181  11.089  12.967  13.872
17117SOL     OW53182   1.334  13.277   5.303
17117SOL    HW153183   1.400  13.246   5.364
17117SOL    HW253184   1.326  13.370   5.322
17118SOL     OW53185   4.333  14.170  13.940
17118SOL    HW153186   4.320  14.081  13.972
17118SOL    HW253187   4.247  14.197  13.907
17119SOL     OW53188   5.346   0.888   0.149
17119SOL    HW153189   5.377   0.797   0.145
17119SOL    HW253190   5.425   0.940   0.139
17120SOL     OW53191   3.435   4.036   9.911
17120SOL    HW153192   3.485   4.045   9.830
17120SOL    HW253193   3.416   3.942   9.916
17121SOL     OW53194  10.225   4.007   9.932
17121SOL    HW153195  10.292   3.995   9.999
17121SOL    HW253196  10.154   3.947   9.956
17122SOL     OW53197   9.923   9.508  12.724
17122SOL    HW153198   9.966   9.558  12.655
17122SOL    HW253199   9.922   9.568  12.799
17123SOL     OW53200   1.162  14.266  10.915
17123SOL    HW153201   1.147  14.195  10.853
17123SOL    HW253202   1.243  14.308  10.884
17124SOL     OW53203   2.727  14.763  13.391
17124SOL    HW153204   2.692  14.728  13.309
17124SOL    HW253205   2.650  14.792  13.439
17125SOL     OW53206  10.715  11.209  13.314
17125SOL    HW153207  10.711  11.299  13.348
17125SOL    HW253208  10.776  11.164  13.373
17126SOL     OW53209   2.479   4.977   2.672
17126SOL    HW153210   2.398   4.972   2.722
17126SOL    HW253211   2.534   4.908   2.708
17127SOL     OW53212  10.808   0.845  11.470
17127SOL    HW153213  10.893   0.888  11.482
17127SOL    HW253214  10.819   0.759  11.510
17128SOL     OW53215   7.448   1.028   8.134
17128SOL    HW153216   7.417   0.937   8.131
17128SOL    HW253217   7.543   1.020   8.132
17129SOL     OW53218  12.830  11.150  13.867
17129SOL    HW153219  12.875  11.071  13.839
17129SOL    HW253220  12.871  11.221  13.817
17130SOL     OW53221   2.084   3.111   9.531
17130SOL    HW153222   2.147   3.138   9.464
17130SOL    HW253223   2.070   3.190   9.583
17131SOL     OW53224   0.956  10.158  14.713
17131SOL    HW153225   0.901  10.178  14.637
17131SOL    HW253226   0.897  10.115  14.775
17132SOL     OW53227   5.967   5.214  13.091
17132SOL    HW153228   6.057   5.196  13.064
17132SOL    HW253229   5.971   5.220  13.187
17133SOL     OW53230   8.602   3.249  14.293
17133SOL    HW153231   8.569   3.308  14.226
17133SOL    HW253232   8.565   3.283  14.375
17134SOL     OW53233   7.793  13.196   1.408
17134SOL    HW153234   7.885  13.185   1.385
17134SOL    HW253235   7.759  13.107   1.416
17135SOL     OW53236  14.481   6.247   0.938
17135SOL    HW153237  14.461   6.300   1.016
17135SOL    HW253238  14.525   6.307   0.879
17136SOL     OW53239   8.001   9.260  13.249
17136SOL    HW153240   7.953   9.315  13.187
17136SOL    HW253241   7.934   9.228  13.309
17137SOL     OW53242   0.029  10.963  13.082
17137SOL    HW153243  14.875  11.021  13.012
17137SOL    HW253244   0.099  11.011  13.126
17138SOL     OW53245   1.220   7.345   3.733
17138SOL    HW153246   1.304   7.314   3.768
17138SOL    HW253247   1.233   7.439   3.720
17139SOL     OW53248   0.854   0.485  12.645
17139SOL    HW153249   0.879   0.510  12.556
17139SOL    HW253250   0.760   0.502  12.650
17140SOL     OW53251  12.995   7.159   7.845
17140SOL    HW153252  12.978   7.117   7.760
17140SOL    HW253253  13.009   7.251   7.823
17141SOL     OW53254   4.977  14.114  14.685
17141SOL    HW153255   4.894  14.158  14.670
17141SOL    HW253256   4.974  14.087  14.777
17142SOL     OW53257   8.506  11.066   0.824
17142SOL    HW153258   8.455  11.133   0.778
17142SOL    HW253259   8.597  11.092   0.812
17143SOL     OW53260   1.368   5.150  10.675
17143SOL    HW153261   1.286   5.125  10.632
17143SOL    HW253262   1.344   5.158  10.768
17144SOL     OW53263   1.190   7.441  11.195
17144SOL    HW153264   1.170   7.534  11.198
17144SOL    HW253265   1.279   7.437  11.159
17145SOL     OW53266   8.158  12.579   5.403
17145SOL    HW153267   8.140  12.523   5.328
17145SOL    HW253268   8.154  12.521   5.478
17146SOL     OW53269   9.182   2.335   1.731
17146SOL    HW153270   9.179   2.251   1.685
17146SOL    HW253271   9.199   2.400   1.663
17147SOL     OW53272   7.619   3.808   7.768
17147SOL    HW153273   7.611   3.903   7.764
17147SOL    HW253274   7.681   3.792   7.839
17148SOL     OW53275   9.389  13.354   0.501
17148SOL    HW153276   9.314  13.370   0.443
17148SOL    HW253277   9.384  13.261   0.522
17149SOL     OW53278   4.880  13.484   8.675
17149SOL    HW153279   4.890  13.400   8.630
17149SOL    HW253280   4.793  13.514   8.650
17150SOL     OW53281   3.794  10.839  13.094
17150SOL    HW153282   3.782  10.756  13.140
17150SOL    HW253283   3.845  10.815  13.016
17151SOL     OW53284   5.046   3.285   0.659
17151SOL    HW153285   5.033   3.366   0.708
17151SOL    HW253286   5.051   3.217   0.725
17152SOL     OW53287  14.043   9.873   5.372
17152SOL    HW153288  14.031   9.967   5.359
17152SOL    HW253289  14.053   9.837   5.283
17153SOL     OW53290  12.845  13.436   5.014
17153SOL    HW153291  12.820  13.502   5.079
17153SOL    HW253292  12.765  13.423   4.962
17154SOL     OW53293  11.033   8.104  12.153
17154SOL    HW153294  11.121   8.132  12.179
17154SOL    HW253295  10.979   8.116  12.231
17155SOL     OW53296   3.380   4.933   4.071
17155SOL    HW153297   3.366   5.011   4.017
17155SOL    HW253298   3.451   4.886   4.027
17156SOL     OW53299   9.795   2.284  12.482
17156SOL    HW153300   9.773   2.375  12.463
17156SOL    HW253301   9.806   2.244  12.396
17157SOL     OW53302   1.925  13.865   4.499
17157SOL    HW153303   1.969  13.851   4.583
17157SOL    HW253304   1.992  13.845   4.434
17158SOL     OW53305   3.020   4.261   4.295
17158SOL    HW153306   3.094   4.227   4.245
17158SOL    HW253307   3.018   4.354   4.274
17159SOL     OW53308   9.911  13.285   1.270
17159SOL    HW153309   9.931  13.201   1.312
17159SOL    HW253310   9.993  13.334   1.275
17160SOL     OW53311  10.985  12.810  10.237
17160SOL    HW153312  10.987  12.778  10.328
17160SOL    HW253313  10.923  12.883  10.239
17161SOL     OW53314  12.256   9.795   2.497
17161SOL    HW153315  12.311   9.831   2.567
17161SOL    HW253316  12.174   9.844   2.503
17162SOL     OW53317   6.375   7.592   2.608
17162SOL    HW153318   6.347   7.653   2.676
17162SOL    HW253319   6.429   7.528   2.654
17163SOL     OW53320   1.433   5.759  12.936
17163SOL    HW153321   1.493   5.799  12.998
17163SOL    HW253322   1.474   5.772  12.851
17164SOL     OW53323  12.648   9.382  12.906
17164SOL    HW153324  12.631   9.335  12.987
17164SOL    HW253325  12.679   9.315  12.845
17165SOL     OW53326  10.779  10.259   6.612
17165SOL    HW153327  10.860  10.260   6.561
17165SOL    HW253328  10.710  10.254   6.545
17166SOL     OW53329  10.177  14.408  12.711
17166SOL    HW153330  10.213  14.429  12.797
17166SOL    HW253331  10.252  14.376  12.661
17167SOL     OW53332  14.316  10.595  11.710
17167SOL    HW153333  14.254  10.525  11.731
17167SOL    HW253334  14.271  10.675  11.738
17168SOL     OW53335   4.488   2.413  12.056
17168SOL    HW153336   4.422   2.373  11.999
17168SOL    HW253337   4.521   2.340  12.109
17169SOL     OW53338   0.201   4.110  12.352
17169SOL    HW153339   0.170   4.156  12.273
17169SOL    HW253340   0.203   4.018  12.326
17170SOL     OW53341   0.398  12.763  14.770
17170SOL    HW153342   0.477  12.779  14.718
17170SOL    HW253343   0.427  12.774  14.861
17171SOL     OW53344   9.090   7.419   4.285
17171SOL    HW153345   9.030   7.477   4.333
17171SOL    HW253346   9.173   7.467   4.282
17172SOL     OW53347  11.834   8.938  11.347
17172SOL    HW153348  11.855   8.908  11.436
17172SOL    HW253349  11.803   8.858  11.303
17173SOL     OW53350   8.615   3.906  12.367
17173SOL    HW153351   8.616   3.832  12.427
17173SOL    HW253352   8.522   3.924  12.352
17174SOL     OW53353   4.560   3.962   4.121
17174SOL    HW153354   4.511   3.882   4.103
17174SOL    HW253355   4.493   4.031   4.122
17175SOL     OW53356  14.540   7.577   3.261
17175SOL    HW153357  14.478   7.602   3.193
17175SOL    HW253358  14.489   7.580   3.342
17176SOL     OW53359   7.028  13.992  13.096
17176SOL    HW153360   7.000  14.002  13.186
17176SOL    HW253361   6.973  14.053  13.047
17177SOL     OW53362  14.406   9.862   4.455
17177SOL    HW153363  14.344   9.934   4.460
17177SOL    HW253364  14.455   9.878   4.374
17178SOL     OW53365   8.894  12.917   0.137
17178SOL    HW153366   8.837  12.982   0.096
17178SOL    HW253367   8.942  12.967   0.204
17179SOL     OW53368   4.515   0.073   2.073
17179SOL    HW153369   4.561  14.869   2.097
17179SOL    HW253370   4.583   0.141   2.074
17180SOL     OW53371   5.683  14.112   9.285
17180SOL    HW153372   5.737  14.170   9.232
17180SOL    HW253373   5.600  14.160   9.296
17181SOL     OW53374   2.895   3.175   9.330
17181SOL    HW153375   2.800   3.167   9.337
17181SOL    HW253376   2.924   3.088   9.301
17182SOL     OW53377   4.548   5.714   3.640
17182SOL    HW153378   4.471   5.770   3.651
17182SOL    HW253379   4.530   5.638   3.696
17183SOL     OW53380   6.375   9.811   3.922
17183SOL    HW153381   6.383   9.779   4.012
17183SOL    HW253382   6.345   9.901   3.931
17184SOL     OW53383   6.942   9.867   7.927
17184SOL    HW153384   6.867   9.926   7.921
17184SOL    HW253385   6.905   9.785   7.961
17185SOL     OW53386   0.332   3.013   1.456
17185SOL    HW153387   0.393   2.957   1.409
17185SOL    HW253388   0.356   3.004   1.548
17186SOL     OW53389   2.800  14.384   6.803
17186SOL    HW153390   2.832  14.408   6.717
17186SOL    HW253391   2.707  14.367   6.790
17187SOL     OW53392  14.760   0.633   9.805
17187SOL    HW153393  14.756   0.728   9.797
17187SOL    HW253394  14.853   0.611   9.799
17188SOL     OW53395  14.380   7.392   1.781
17188SOL    HW153396  14.465   7.433   1.763
17188SOL    HW253397  14.401   7.301   1.801
17189SOL     OW53398   0.971   0.279   3.245
17189SOL    HW153399   0.954   0.257   3.154
17189SOL    HW253400   0.907   0.347   3.266
17190SOL     OW53401  10.240  11.041  14.656
17190SOL    HW153402  10.266  11.117  14.708
17190SOL    HW253403  10.223  11.075  14.569
17191SOL     OW53404  10.878   5.343   3.006
17191SOL    HW153405  10.809   5.409   3.008
17191SOL    HW253406  10.841   5.271   2.956
17192SOL     OW53407  13.761   5.960  12.157
17192SOL    HW153408  13.720   5.985  12.240
17192SOL    HW253409  13.765   6.042  12.107
17193SOL     OW53410   4.285  13.030   4.420
17193SOL    HW153411   4.212  13.081   4.455
17193SOL    HW253412   4.289  12.953   4.476
17194SOL     OW53413  14.414  14.494  10.447
17194SOL    HW153414  14.357  14.423  10.476
17194SOL    HW253415  14.354  14.562  10.417
17195SOL     OW53416   9.694   7.416   6.720
17195SOL    HW153417   9.724   7.460   6.800
17195SOL    HW253418   9.771   7.412   6.664
17196SOL     OW53419   3.892   8.042   3.321
17196SOL    HW153420   3.981   8.016   3.299
17196SOL    HW253421   3.844   8.033   3.238
17197SOL     OW53422   5.248  14.866  14.416
17197SOL    HW153423   5.281   0.079  14.426
17197SOL    HW253424   5.282  14.819  14.493
17198SOL     OW53425  10.050  11.890   2.248
17198SOL    HW153426  10.065  11.801   2.216
17198SOL    HW253427  10.137  11.928   2.259
17199SOL     OW53428   4.840   9.716   8.184
17199SOL    HW153429   4.769   9.655   8.164
17199SOL    HW253430   4.828   9.737   8.277
17200SOL     OW53431   7.493   6.129   7.608
17200SOL    HW153432   7.487   6.102   7.700
17200SOL    HW253433   7.469   6.051   7.558
17201SOL     OW53434   8.779   4.174   8.036
17201SOL    HW153435   8.697   4.125   8.039
17201SOL    HW253436   8.771   4.230   7.959
17202SOL     OW53437   9.652  11.842   3.690
17202SOL    HW153438   9.614  11.803   3.769
17202SOL    HW253439   9.747  11.830   3.701
17203SOL     OW53440   4.732   1.726  13.352
17203SOL    HW153441   4.641   1.698  13.361
17203SOL    HW253442   4.731   1.787  13.278
17204SOL     OW53443   6.635  14.562   2.963
17204SOL    HW153444   6.563  14.501   2.979
17204SOL    HW253445   6.695  14.514   2.908
17205SOL     OW53446   2.643   8.624   9.019
17205SOL    HW153447   2.630   8.564   9.093
17205SOL    HW253448   2.566   8.609   8.963
17206SOL     OW53449  14.383   5.102   9.773
17206SOL    HW153450  14.360   5.188   9.807
17206SOL    HW253451  14.348   5.102   9.683
17207SOL     OW53452   8.537   9.258   1.449
17207SOL    HW153453   8.524   9.188   1.386
17207SOL    HW253454   8.449   9.289   1.469
17208SOL     OW53455   7.325   8.647   2.107
17208SOL    HW153456   7.303   8.600   2.027
17208SOL    HW253457   7.261   8.616   2.171
17209SOL     OW53458  10.765  12.527   6.981
17209SOL    HW153459  10.775  12.505   7.074
17209SOL    HW253460  10.841  12.583   6.962
17210SOL     OW53461  10.303   9.351  14.401
17210SOL    HW153462  10.362   9.399  14.460
17210SOL    HW253463  10.265   9.419  14.345
17211SOL     OW53464   7.082   2.294   7.065
17211SOL    HW153465   7.110   2.214   7.110
17211SOL    HW253466   7.145   2.360   7.094
17212SOL     OW53467   5.266   6.431   7.998
17212SOL    HW153468   5.236   6.522   7.990
17212SOL    HW253469   5.261   6.412   8.091
17213SOL     OW53470  10.432  12.953   8.467
17213SOL    HW153471  10.460  12.906   8.388
17213SOL    HW253472  10.417  12.885   8.532
17214SOL     OW53473   9.386   8.726   8.764
17214SOL    HW153474   9.326   8.709   8.692
17214SOL    HW253475   9.330   8.755   8.836
17215SOL     OW53476  13.144   2.422   3.231
17215SOL    HW153477  13.119   2.506   3.193
17215SOL    HW253478  13.087   2.358   3.189
17216SOL     OW53479   0.425   3.056   9.279
17216SOL    HW153480   0.351   3.099   9.236
17216SOL    HW253481   0.449   2.986   9.219
17217SOL     OW53482   2.830  11.519   9.583
17217SOL    HW153483   2.880  11.578   9.526
17217SOL    HW253484   2.895  11.456   9.615
17218SOL     OW53485   8.997   0.501   2.325
17218SOL    HW153486   8.954   0.429   2.278
17218SOL    HW253487   9.067   0.529   2.266
17219SOL     OW53488  13.576   4.667   2.339
17219SOL    HW153489  13.604   4.695   2.426
17219SOL    HW253490  13.507   4.729   2.315
17220SOL     OW53491   5.489   6.133  13.122
17220SOL    HW153492   5.489   6.225  13.147
17220SOL    HW253493   5.437   6.090  13.189
17221SOL     OW53494   2.558   2.843   9.498
17221SOL    HW153495   2.502   2.852   9.574
17221SOL    HW253496   2.646   2.866   9.529
17222SOL     OW53497  10.221  14.341  12.282
17222SOL    HW153498  10.250  14.428  12.309
17222SOL    HW253499  10.176  14.355  12.199
17223SOL     OW53500   6.095   4.726   5.051
17223SOL    HW153501   6.091   4.778   5.132
17223SOL    HW253502   6.179   4.749   5.012
17224SOL     OW53503   5.176   8.758   6.451
17224SOL    HW153504   5.193   8.847   6.418
17224SOL    HW253505   5.164   8.770   6.545
17225SOL     OW53506  14.526   6.596   9.260
17225SOL    HW153507  14.436   6.601   9.228
17225SOL    HW253508  14.558   6.511   9.231
17226SOL     OW53509   3.850   9.973  13.111
17226SOL    HW153510   3.856  10.046  13.049
17226SOL    HW253511   3.807   9.904  13.062
17227SOL     OW53512   4.596   8.672   3.849
17227SOL    HW153513   4.519   8.722   3.875
17227SOL    HW253514   4.567   8.581   3.849
17228SOL     OW53515   0.358  13.138   5.654
17228SOL    HW153516   0.351  13.227   5.620
17228SOL    HW253517   0.396  13.148   5.741
17229SOL     OW53518  10.903   0.377   4.183
17229SOL    HW153519  10.905   0.342   4.272
17229SOL    HW253520  10.826   0.434   4.181
17230SOL     OW53521   6.264  13.377  12.470
17230SOL    HW153522   6.355  13.355  12.490
17230SOL    HW253523   6.224  13.293  12.447
17231SOL     OW53524  12.471   5.180   0.023
17231SOL    HW153525  12.444   5.268  14.873
17231SOL    HW253526  12.482   5.133  14.816
17232SOL     OW53527   4.204   0.958   0.490
17232SOL    HW153528   4.197   0.907   0.410
17232SOL    HW253529   4.203   1.049   0.460
17233SOL     OW53530  11.703   4.073   6.002
17233SOL    HW153531  11.726   3.986   6.035
17233SOL    HW253532  11.701   4.129   6.079
17234SOL     OW53533   7.701   3.442  13.743
17234SOL    HW153534   7.706   3.383  13.818
17234SOL    HW253535   7.614   3.428  13.707
17235SOL     OW53536   2.368   0.733  12.958
17235SOL    HW153537   2.453   0.751  12.998
17235SOL    HW253538   2.386   0.731  12.864
17236SOL     OW53539   5.595   3.285   1.196
17236SOL    HW153540   5.637   3.349   1.138
17236SOL    HW253541   5.635   3.301   1.282
17237SOL     OW53542  13.361   3.807  11.442
17237SOL    HW153543  13.384   3.896  11.469
17237SOL    HW253544  13.378   3.805  11.348
17238SOL     OW53545  11.101   2.264  11.101
17238SOL    HW153546  11.160   2.194  11.128
17238SOL    HW253547  11.124   2.281  11.010
17239SOL     OW53548   5.177   8.742   7.348
17239SOL    HW153549   5.259   8.759   7.395
17239SOL    HW253550   5.192   8.777   7.260
17240SOL     OW53551  13.674   8.074   8.158
17240SOL    HW153552  13.634   7.988   8.152
17240SOL    HW253553  13.765   8.057   8.181
17241SOL     OW53554   0.239   1.254   6.341
17241SOL    HW153555   0.153   1.260   6.383
17241SOL    HW253556   0.290   1.323   6.383
17242SOL     OW53557   3.955  13.094  14.471
17242SOL    HW153558   3.890  13.129  14.409
17242SOL    HW253559   3.919  13.009  14.498
17243SOL     OW53560   5.240   1.396   9.844
17243SOL    HW153561   5.171   1.459   9.861
17243SOL    HW253562   5.318   1.435   9.884
17244SOL     OW53563   3.016  14.451   5.863
17244SOL    HW153564   3.048  14.436   5.952
17244SOL    HW253565   3.005  14.546   5.857
17245SOL     OW53566  12.165   7.871  11.883
17245SOL    HW153567  12.106   7.882  11.957
17245SOL    HW253568  12.115   7.898  11.806
17246SOL     OW53569  10.699   5.433   8.006
17246SOL    HW153570  10.700   5.497   7.934
17246SOL    HW253571  10.607   5.409   8.015
17247SOL     OW53572   5.527   3.247   6.435
17247SOL    HW153573   5.536   3.242   6.339
17247SOL    HW253574   5.605   3.203   6.468
17248SOL     OW53575  13.373   1.497   1.473
17248SOL    HW153576  13.301   1.458   1.522
17248SOL    HW253577  13.444   1.504   1.537
17249SOL     OW53578  11.308   9.681   2.340
17249SOL    HW153579  11.255   9.718   2.410
17249SOL    HW253580  11.252   9.682   2.262
17250SOL     OW53581   8.921  12.335   2.788
17250SOL    HW153582   8.987  12.329   2.719
17250SOL    HW253583   8.943  12.415   2.836
17251SOL     OW53584   8.375  10.005   3.773
17251SOL    HW153585   8.313   9.984   3.843
17251SOL    HW253586   8.324   9.998   3.693
17252SOL     OW53587   5.147   1.024   2.415
17252SOL    HW153588   5.131   1.015   2.321
17252SOL    HW253589   5.082   0.966   2.456
17253SOL     OW53590   5.495   4.336  10.869
17253SOL    HW153591   5.454   4.393  10.804
17253SOL    HW253592   5.501   4.251  10.826
17254SOL     OW53593   4.372   6.847   8.534
17254SOL    HW153594   4.312   6.824   8.462
17254SOL    HW253595   4.449   6.884   8.490
17255SOL     OW53596   6.726   4.767   3.278
17255SOL    HW153597   6.815   4.763   3.314
17255SOL    HW253598   6.725   4.845   3.223
17256SOL     OW53599  10.130   6.174  13.894
17256SOL    HW153600  10.132   6.080  13.914
17256SOL    HW253601  10.049   6.205  13.934
17257SOL     OW53602  14.679   8.758  13.692
17257SOL    HW153603  14.613   8.694  13.721
17257SOL    HW253604  14.762   8.713  13.703
17258SOL     OW53605  10.290   5.757   4.571
17258SOL    HW153606  10.240   5.798   4.642
17258SOL    HW253607  10.233   5.765   4.494
17259SOL     OW53608   7.227  10.585   4.425
17259SOL    HW153609   7.265  10.627   4.348
17259SOL    HW253610   7.225  10.492   4.403
17260SOL     OW53611   9.585   7.660   1.896
17260SOL    HW153612   9.614   7.710   1.973
17260SOL    HW253613   9.491   7.679   1.889
17261SOL     OW53614   4.169   3.306   6.060
17261SOL    HW153615   4.259   3.274   6.061
17261SOL    HW253616   4.115   3.227   6.064
17262SOL     OW53617  13.877   1.513   4.879
17262SOL    HW153618  13.793   1.511   4.926
17262SOL    HW253619  13.852   1.523   4.787
17263SOL     OW53620   7.852  12.467   7.850
17263SOL    HW153621   7.758  12.455   7.832
17263SOL    HW253622   7.872  12.554   7.818
17264SOL     OW53623   2.963  14.698   6.522
17264SOL    HW153624   2.963  14.713   6.616
17264SOL    HW253625   3.018  14.767   6.486
17265SOL     OW53626   4.447   8.386   9.837
17265SOL    HW153627   4.512   8.316   9.843
17265SOL    HW253628   4.494   8.458   9.795
17266SOL     OW53629   8.126   5.407   6.104
17266SOL    HW153630   8.149   5.343   6.171
17266SOL    HW253631   8.113   5.355   6.024
17267SOL     OW53632  10.297   6.849   9.576
17267SOL    HW153633  10.272   6.941   9.575
17267SOL    HW253634  10.393   6.849   9.575
17268SOL     OW53635   9.828  12.058   9.626
17268SOL    HW153636   9.763  12.116   9.586
17268SOL    HW253637   9.853  11.997   9.556
17269SOL     OW53638   0.496   2.441   6.864
17269SOL    HW153639   0.559   2.402   6.924
17269SOL    HW253640   0.425   2.377   6.859
17270SOL     OW53641   2.009   0.966   3.871
17270SOL    HW153642   1.941   0.907   3.902
17270SOL    HW253643   2.021   0.944   3.778
17271SOL     OW53644   4.814   5.916  14.632
17271SOL    HW153645   4.815   5.821  14.641
17271SOL    HW253646   4.742   5.944  14.690
17272SOL     OW53647  12.678  10.716   6.897
17272SOL    HW153648  12.680  10.655   6.970
17272SOL    HW253649  12.763  10.705   6.855
17273SOL     OW53650   0.268   4.567  11.724
17273SOL    HW153651   0.293   4.650  11.765
17273SOL    HW253652   0.197   4.590  11.664
17274SOL     OW53653   3.265   5.736  13.109
17274SOL    HW153654   3.290   5.825  13.083
17274SOL    HW253655   3.174   5.728  13.082
17275SOL     OW53656   7.246   6.074  12.235
17275SOL    HW153657   7.308   6.064  12.162
17275SOL    HW253658   7.269   6.158  12.274
17276SOL     OW53659   0.918  11.005   5.303
17276SOL    HW153660   0.838  11.001   5.356
17276SOL    HW253661   0.930  10.915   5.271
17277SOL     OW53662   9.126   1.599  10.520
17277SOL    HW153663   9.125   1.687  10.557
17277SOL    HW253664   9.097   1.542  10.592
17278SOL     OW53665   0.350   1.254  14.709
17278SOL    HW153666   0.288   1.271  14.638
17278SOL    HW253667   0.353   1.337  14.757
17279SOL     OW53668   4.298   4.893   3.309
17279SOL    HW153669   4.236   4.822   3.328
17279SOL    HW253670   4.272   4.923   3.221
17280SOL     OW53671   3.470   7.322  14.739
17280SOL    HW153672   3.488   7.290  14.650
17280SOL    HW253673   3.468   7.417  14.730
17281SOL     OW53674   9.361   4.882  13.955
17281SOL    HW153675   9.373   4.895  13.861
17281SOL    HW253676   9.356   4.971  13.991
17282SOL     OW53677   4.592  14.035  12.548
17282SOL    HW153678   4.586  14.030  12.453
17282SOL    HW253679   4.685  14.047  12.566
17283SOL     OW53680   3.771   0.662   9.409
17283SOL    HW153681   3.853   0.630   9.371
17283SOL    HW253682   3.798   0.701   9.492
17284SOL     OW53683   0.649  13.842  13.885
17284SOL    HW153684   0.570  13.861  13.833
17284SOL    HW253685   0.641  13.750  13.909
17285SOL     OW53686   9.944  13.619   7.593
17285SOL    HW153687   9.943  13.554   7.663
17285SOL    HW253688   9.853  13.643   7.580
17286SOL     OW53689   3.358   0.192   7.841
17286SOL    HW153690   3.353   0.101   7.873
17286SOL    HW253691   3.354   0.245   7.921
17287SOL     OW53692  12.148   3.696  12.735
17287SOL    HW153693  12.081   3.628  12.736
17287SOL    HW253694  12.178   3.699  12.644
17288SOL     OW53695   3.314   8.603   0.245
17288SOL    HW153696   3.252   8.531   0.259
17288SOL    HW253697   3.259   8.678   0.221
17289SOL     OW53698  11.975   2.054  10.014
17289SOL    HW153699  11.991   2.114  10.087
17289SOL    HW253700  11.976   1.967  10.055
17290SOL     OW53701   8.166   4.536   6.763
17290SOL    HW153702   8.173   4.631   6.755
17290SOL    HW253703   8.172   4.520   6.858
17291SOL     OW53704   9.325   0.695   2.486
17291SOL    HW153705   9.384   0.712   2.560
17291SOL    HW253706   9.352   0.757   2.419
17292SOL     OW53707   0.768   1.705  13.337
17292SOL    HW153708   0.703   1.711  13.267
17292SOL    HW253709   0.771   1.792  13.376
17293SOL     OW53710   2.261   3.639   1.835
17293SOL    HW153711   2.341   3.690   1.824
17293SOL    HW253712   2.244   3.603   1.748
17294SOL     OW53713   2.353   0.335  11.365
17294SOL    HW153714   2.357   0.326  11.270
17294SOL    HW253715   2.264   0.366  11.382
17295SOL     OW53716   2.099  10.135   3.367
17295SOL    HW153717   2.167  10.069   3.381
17295SOL    HW253718   2.107  10.157   3.274
17296SOL     OW53719  14.662   2.841  12.642
17296SOL    HW153720  14.694   2.931  12.649
17296SOL    HW253721  14.733   2.794  12.598
17297SOL     OW53722   6.196   5.073   2.125
17297SOL    HW153723   6.240   5.137   2.069
17297SOL    HW253724   6.258   5.001   2.133
17298SOL     OW53725  12.140  14.172   4.708
17298SOL    HW153726  12.174  14.097   4.660
17298SOL    HW253727  12.190  14.247   4.674
17299SOL     OW53728   4.616   7.348   6.860
17299SOL    HW153729   4.693   7.338   6.915
17299SOL    HW253730   4.628   7.433   6.817
17300SOL     OW53731   0.941   9.177   0.488
17300SOL    HW153732   0.944   9.135   0.402
17300SOL    HW253733   0.900   9.113   0.545
17301SOL     OW53734  12.137   2.236   3.504
17301SOL    HW153735  12.174   2.255   3.418
17301SOL    HW253736  12.050   2.276   3.503
17302SOL     OW53737   7.315   7.177  12.997
17302SOL    HW153738   7.380   7.160  13.065
17302SOL    HW253739   7.320   7.101  12.939
17303SOL     OW53740   2.152   0.222  10.824
17303SOL    HW153741   2.199   0.179  10.895
17303SOL    HW253742   2.070   0.250  10.863
17304SOL     OW53743   6.632   4.575   9.973
17304SOL    HW153744   6.706   4.602   9.919
17304SOL    HW253745   6.561   4.633   9.945
17305SOL     OW53746  10.538   3.851   0.846
17305SOL    HW153747  10.617   3.905   0.841
17305SOL    HW253748  10.477   3.892   0.784
17306SOL     OW53749   8.631   8.628   0.721
17306SOL    HW153750   8.566   8.570   0.682
17306SOL    HW253751   8.682   8.570   0.779
17307SOL     OW53752   6.452   5.911   9.546
17307SOL    HW153753   6.440   5.912   9.451
17307SOL    HW253754   6.541   5.878   9.558
17308SOL     OW53755   7.464   5.576  11.914
17308SOL    HW153756   7.394   5.563  11.850
17308SOL    HW253757   7.505   5.490  11.921
17309SOL     OW53758   2.028   9.260   8.534
17309SOL    HW153759   2.006   9.187   8.476
17309SOL    HW253760   1.954   9.320   8.527
17310SOL     OW53761   9.769   7.779   0.817
17310SOL    HW153762   9.831   7.845   0.849
17310SOL    HW253763   9.812   7.696   0.836
17311SOL     OW53764   9.991   7.416   8.133
17311SOL    HW153765   9.940   7.402   8.213
17311SOL    HW253766   9.932   7.465   8.076
17312SOL     OW53767   3.383  14.754   9.384
17312SOL    HW153768   3.435  14.713   9.453
17312SOL    HW253769   3.292  14.733   9.407
17313SOL     OW53770   9.181   1.982  11.472
17313SOL    HW153771   9.146   2.058  11.426
17313SOL    HW253772   9.170   2.003  11.565
17314SOL     OW53773   4.774  10.770   7.308
17314SOL    HW153774   4.765  10.713   7.384
17314SOL    HW253775   4.869  10.775   7.294
17315SOL     OW53776   6.914   7.154  13.606
17315SOL    HW153777   6.919   7.229  13.547
17315SOL    HW253778   6.839   7.173  13.663
17316SOL     OW53779  10.370  13.707   6.901
17316SOL    HW153780  10.332  13.759   6.973
17316SOL    HW253781  10.406  13.629   6.944
17317SOL     OW53782   1.458  11.881  11.104
17317SOL    HW153783   1.469  11.849  11.014
17317SOL    HW253784   1.457  11.802  11.157
17318SOL     OW53785   2.856   5.771   0.437
17318SOL    HW153786   2.866   5.850   0.383
17318SOL    HW253787   2.937   5.766   0.488
17319SOL     OW53788   8.815   2.747   8.200
17319SOL    HW153789   8.734   2.768   8.155
17319SOL    HW253790   8.881   2.744   8.131
17320SOL     OW53791   4.084   0.598   0.177
17320SOL    HW153792   4.017   0.583   0.244
17320SOL    HW253793   4.045   0.564   0.096
17321SOL     OW53794   3.478   3.884  13.443
17321SOL    HW153795   3.564   3.925  13.430
17321SOL    HW253796   3.425   3.920  13.372
17322SOL     OW53797  10.605   0.029   4.170
17322SOL    HW153798  10.662   0.076   4.108
17322SOL    HW253799  10.613   0.080   4.251
17323SOL     OW53800   0.655   5.432  13.783
17323SOL    HW153801   0.692   5.451  13.696
17323SOL    HW253802   0.725   5.453  13.844
17324SOL     OW53803   5.136  13.084  11.053
17324SOL    HW153804   5.095  13.156  11.101
17324SOL    HW253805   5.067  13.019  11.042
17325SOL     OW53806  10.922  11.169   1.515
17325SOL    HW153807  10.962  11.082   1.512
17325SOL    HW253808  10.960  11.210   1.593
17326SOL     OW53809   6.829   9.949  11.844
17326SOL    HW153810   6.881  10.027  11.827
17326SOL    HW253811   6.811   9.912  11.758
17327SOL     OW53812   6.789  12.546   1.929
17327SOL    HW153813   6.865  12.488   1.927
17327SOL    HW253814   6.775  12.571   1.838
17328SOL     OW53815   9.500   6.229   5.276
17328SOL    HW153816   9.584   6.273   5.263
17328SOL    HW253817   9.523   6.139   5.300
17329SOL     OW53818   7.729  12.551   9.142
17329SOL    HW153819   7.672  12.476   9.127
17329SOL    HW253820   7.806  12.513   9.185
17330SOL     OW53821   0.526   6.385   1.430
17330SOL    HW153822   0.450   6.327   1.441
17330SOL    HW253823   0.488   6.473   1.431
17331SOL     OW53824  11.457  10.276   8.872
17331SOL    HW153825  11.433  10.369   8.875
17331SOL    HW253826  11.509  10.263   8.952
17332SOL     OW53827  14.702   7.402   5.976
17332SOL    HW153828  14.697   7.396   5.881
17332SOL    HW253829  14.779   7.350   5.999
17333SOL     OW53830   2.202   5.043  11.401
17333SOL    HW153831   2.272   5.097  11.364
17333SOL    HW253832   2.191   4.971  11.339
17334SOL     OW53833   6.292   1.213   0.933
17334SOL    HW153834   6.273   1.143   0.995
17334SOL    HW253835   6.332   1.168   0.858
17335SOL     OW53836   9.529   7.957   0.967
17335SOL    HW153837   9.585   7.911   1.029
17335SOL    HW253838   9.580   8.034   0.941
17336SOL     OW53839   6.031   0.236   9.588
17336SOL    HW153840   6.027   0.331   9.599
17336SOL    HW253841   5.939   0.208   9.592
17337SOL     OW53842   8.493   7.911  14.552
17337SOL    HW153843   8.534   7.905  14.639
17337SOL    HW253844   8.561   7.947  14.496
17338SOL     OW53845   9.693   1.928  11.410
17338SOL    HW153846   9.689   2.004  11.468
17338SOL    HW253847   9.601   1.902  11.400
17339SOL     OW53848   7.188   2.327  10.917
17339SOL    HW153849   7.176   2.326  11.011
17339SOL    HW253850   7.181   2.420  10.893
17340SOL     OW53851  10.345   7.846   0.910
17340SOL    HW153852  10.409   7.879   0.973
17340SOL    HW253853  10.260   7.863   0.951
17341SOL     OW53854  14.358  14.362   9.905
17341SOL    HW153855  14.384  14.390   9.817
17341SOL    HW253856  14.348  14.267   9.898
17342SOL     OW53857   6.464   1.190   5.412
17342SOL    HW153858   6.420   1.149   5.338
17342SOL    HW253859   6.553   1.207   5.380
17343SOL     OW53860  10.843   9.864   4.850
17343SOL    HW153861  10.787   9.933   4.815
17343SOL    HW253862  10.858   9.890   4.941
17344SOL     OW53863  12.634   2.662  12.282
17344SOL    HW153864  12.586   2.730  12.234
17344SOL    HW253865  12.721   2.662  12.242
17345SOL     OW53866   9.029  12.928   4.927
17345SOL    HW153867   8.969  12.941   4.854
17345SOL    HW253868   9.113  12.911   4.886
17346SOL     OW53869   5.851  10.442   0.045
17346SOL    HW153870   5.864  10.351   0.019
17346SOL    HW253871   5.917  10.456   0.114
17347SOL     OW53872   3.409   3.313   7.912
17347SOL    HW153873   3.452   3.349   7.990
17347SOL    HW253874   3.396   3.388   7.855
17348SOL     OW53875   2.830  10.017   3.543
17348SOL    HW153876   2.807  10.061   3.625
17348SOL    HW253877   2.925  10.012   3.543
17349SOL     OW53878   5.471  10.513   8.735
17349SOL    HW153879   5.495  10.433   8.782
17349SOL    HW253880   5.538  10.522   8.667
17350SOL     OW53881   9.496  13.105   7.028
17350SOL    HW153882   9.551  13.124   6.952
17350SOL    HW253883   9.471  13.013   7.017
17351SOL     OW53884   7.593   3.232  11.028
17351SOL    HW153885   7.638   3.222  11.112
17351SOL    HW253886   7.651   3.190  10.965
17352SOL     OW53887  12.854   8.152   4.151
17352SOL    HW153888  12.870   8.093   4.077
17352SOL    HW253889  12.781   8.206   4.123
17353SOL     OW53890   4.253  14.465   6.962
17353SOL    HW153891   4.293  14.443   6.878
17353SOL    HW253892   4.167  14.424   6.958
17354SOL     OW53893   5.634  12.237   1.980
17354SOL    HW153894   5.553  12.259   1.934
17354SOL    HW253895   5.609  12.235   2.072
17355SOL     OW53896  13.722   5.116   3.084
17355SOL    HW153897  13.780   5.170   3.137
17355SOL    HW253898  13.742   5.140   2.993
17356SOL     OW53899  12.755  12.427   9.567
17356SOL    HW153900  12.838  12.462   9.534
17356SOL    HW253901  12.733  12.357   9.506
17357SOL     OW53902   8.373   5.515   1.083
17357SOL    HW153903   8.391   5.429   1.045
17357SOL    HW253904   8.445   5.529   1.145
17358SOL     OW53905   3.907   8.913  11.806
17358SOL    HW153906   3.951   8.845  11.755
17358SOL    HW253907   3.885   8.980  11.743
17359SOL     OW53908  11.257   8.109   9.352
17359SOL    HW153909  11.268   8.194   9.393
17359SOL    HW253910  11.223   8.129   9.264
17360SOL     OW53911   8.151  11.358   7.607
17360SOL    HW153912   8.246  11.356   7.621
17360SOL    HW253913   8.115  11.385   7.692
17361SOL     OW53914  13.044   6.244  11.446
17361SOL    HW153915  12.992   6.203  11.377
17361SOL    HW253916  13.125   6.193  11.448
17362SOL     OW53917   5.022  14.826   9.296
17362SOL    HW153918   5.072  14.827   9.377
17362SOL    HW253919   5.069   0.010   9.238
17363SOL     OW53920   4.587  14.336   9.253
17363SOL    HW153921   4.506  14.285   9.259
17363SOL    HW253922   4.564  14.422   9.287
17364SOL     OW53923   0.502   4.926   3.926
17364SOL    HW153924   0.590   4.892   3.905
17364SOL    HW253925   0.447   4.897   3.853
17365SOL     OW53926  14.145   6.721  11.219
17365SOL    HW153927  14.051   6.705  11.227
17365SOL    HW253928  14.183   6.682  11.298
17366SOL     OW53929   7.595   1.703   8.508
17366SOL    HW153930   7.507   1.674   8.531
17366SOL    HW253931   7.612   1.778   8.566
17367SOL     OW53932  14.248   0.652   6.998
17367SOL    HW153933  14.302   0.691   6.929
17367SOL    HW253934  14.289   0.567   7.015
17368SOL     OW53935   9.452  10.316   8.146
17368SOL    HW153936   9.494  10.402   8.155
17368SOL    HW253937   9.523  10.253   8.160
17369SOL     OW53938   8.602   2.378   7.232
17369SOL    HW153939   8.557   2.337   7.306
17369SOL    HW253940   8.682   2.415   7.270
17370SOL     OW53941   4.769  12.522   6.472
17370SOL    HW153942   4.814  12.516   6.388
17370SOL    HW253943   4.833  12.490   6.536
17371SOL     OW53944  11.404  13.242  11.904
17371SOL    HW153945  11.412  13.230  11.810
17371SOL    HW253946  11.449  13.326  11.921
17372SOL     OW53947   5.955  12.370  10.316
17372SOL    HW153948   5.860  12.367  10.330
17372SOL    HW253949   5.979  12.280  10.293
17373SOL     OW53950   2.762  14.765  11.558
17373SOL    HW153951   2.809  14.684  11.581
17373SOL    HW253952   2.789  14.783  11.468
17374SOL     OW53953  13.678  13.689   1.417
17374SOL    HW153954  13.653  13.706   1.507
17374SOL    HW253955  13.700  13.596   1.415
17375SOL     OW53956  12.390   6.788   4.078
17375SOL    HW153957  12.322   6.803   4.144
17375SOL    HW253958  12.366   6.705   4.037
17376SOL     OW53959   2.317   6.307   8.983
17376SOL    HW153960   2.241   6.251   8.974
17376SOL    HW253961   2.281   6.396   8.990
17377SOL     OW53962   3.412   2.371   7.821
17377SOL    HW153963   3.485   2.405   7.872
17377SOL    HW253964   3.398   2.282   7.855
17378SOL     OW53965   3.454   9.217  14.334
17378SOL    HW153966   3.419   9.245  14.419
17378SOL    HW253967   3.385   9.162  14.297
17379SOL     OW53968  14.248   7.162   4.706
17379SOL    HW153969  14.229   7.079   4.662
17379SOL    HW253970  14.331   7.147   4.752
17380SOL     OW53971  10.885  12.796   4.013
17380SOL    HW153972  10.892  12.779   4.107
17380SOL    HW253973  10.913  12.887   4.003
17381SOL     OW53974   7.694   3.319   7.465
17381SOL    HW153975   7.705   3.272   7.548
17381SOL    HW253976   7.699   3.411   7.490
17382SOL     OW53977  12.642   1.194   8.215
17382SOL    HW153978  12.605   1.121   8.265
17382SOL    HW253979  12.704   1.152   8.155
17383SOL     OW53980   0.761   5.479  12.818
17383SOL    HW153981   0.707   5.449  12.892
17383SOL    HW253982   0.834   5.526  12.858
17384SOL     OW53983   9.959   4.857   5.956
17384SOL    HW153984   9.993   4.947   5.960
17384SOL    HW253985  10.029   4.803   5.993
17385SOL     OW53986   0.282   6.442   9.284
17385SOL    HW153987   0.235   6.524   9.269
17385SOL    HW253988   0.334   6.430   9.204
17386SOL     OW53989   3.674   0.537   5.270
17386SOL    HW153990   3.683   0.627   5.301
17386SOL    HW253991   3.747   0.490   5.310
17387SOL     OW53992  13.779  11.307   4.482
17387SOL    HW153993  13.701  11.259   4.458
17387SOL    HW253994  13.838  11.241   4.520
17388SOL     OW53995   0.842   5.155   5.729
17388SOL    HW153996   0.822   5.245   5.756
17388SOL    HW253997   0.768   5.104   5.762
17389SOL     OW53998  11.571   3.375   6.117
17389SOL    HW153999  11.590   3.468   6.135
17389SOL    HW254000  11.530   3.344   6.198
17390SOL     OW54001   4.327   5.936   0.989
17390SOL    HW154002   4.279   6.014   1.016
17390SOL    HW254003   4.413   5.969   0.962
17391SOL     OW54004  12.418   5.575  12.214
17391SOL    HW154005  12.420   5.617  12.128
17391SOL    HW254006  12.494   5.611  12.260
17392SOL     OW54007  11.847   5.579   7.028
17392SOL    HW154008  11.768   5.562   7.080
17392SOL    HW254009  11.917   5.583   7.093
17393SOL     OW54010   3.592  10.401   3.913
17393SOL    HW154011   3.685  10.425   3.908
17393SOL    HW254012   3.547  10.484   3.931
17394SOL     OW54013  14.155   7.715  12.770
17394SOL    HW154014  14.220   7.646  12.783
17394SOL    HW254015  14.072   7.669  12.761
17395SOL     OW54016   8.030   8.174   5.391
17395SOL    HW154017   8.081   8.209   5.463
17395SOL    HW254018   8.062   8.085   5.379
17396SOL     OW54019  14.576  10.754   6.315
17396SOL    HW154020  14.621  10.692   6.259
17396SOL    HW254021  14.550  10.703   6.392
17397SOL     OW54022   3.845   9.319   2.934
17397SOL    HW154023   3.936   9.305   2.908
17397SOL    HW254024   3.849   9.387   3.002
17398SOL     OW54025   1.908   1.598  12.994
17398SOL    HW154026   1.843   1.529  12.983
17398SOL    HW254027   1.988   1.551  13.020
17399SOL     OW54028   1.146  11.685  13.154
17399SOL    HW154029   1.059  11.697  13.116
17399SOL    HW254030   1.189  11.621  13.097
17400SOL     OW54031  14.209  11.521   6.353
17400SOL    HW154032  14.264  11.477   6.288
17400SOL    HW254033  14.147  11.453   6.381
17401SOL     OW54034   0.858   5.376   1.545
17401SOL    HW154035   0.849   5.286   1.578
17401SOL    HW254036   0.908   5.366   1.464
17402SOL     OW54037  13.611  10.298   4.180
17402SOL    HW154038  13.674  10.232   4.154
17402SOL    HW254039  13.625  10.310   4.274
17403SOL     OW54040  12.731   6.196   9.483
17403SOL    HW154041  12.762   6.227   9.568
17403SOL    HW254042  12.783   6.117   9.465
17404SOL     OW54043   2.281   1.255   0.947
17404SOL    HW154044   2.291   1.196   1.021
17404SOL    HW254045   2.200   1.227   0.904
17405SOL     OW54046   1.219   6.695   8.922
17405SOL    HW154047   1.143   6.735   8.879
17405SOL    HW254048   1.284   6.685   8.851
17406SOL     OW54049   5.514   6.915   7.315
17406SOL    HW154050   5.574   6.962   7.257
17406SOL    HW254051   5.429   6.921   7.271
17407SOL     OW54052   2.835   8.110  13.640
17407SOL    HW154053   2.834   8.100  13.545
17407SOL    HW254054   2.765   8.173  13.658
17408SOL     OW54055  14.659   5.861   9.901
17408SOL    HW154056  14.677   5.789   9.841
17408SOL    HW254057  14.568   5.849   9.927
17409SOL     OW54058   4.836   0.812   3.332
17409SOL    HW154059   4.864   0.796   3.242
17409SOL    HW254060   4.758   0.758   3.343
17410SOL     OW54061   1.728   8.327   4.593
17410SOL    HW154062   1.814   8.366   4.607
17410SOL    HW254063   1.669   8.377   4.650
17411SOL     OW54064  14.704   7.959   4.823
17411SOL    HW154065  14.680   7.958   4.915
17411SOL    HW254066  14.627   7.995   4.778
17412SOL     OW54067   9.222   0.008  10.796
17412SOL    HW154068   9.206  14.875  10.702
17412SOL    HW254069   9.317   0.004  10.804
17413SOL     OW54070   5.248  12.170   9.525
17413SOL    HW154071   5.327  12.134   9.484
17413SOL    HW254072   5.207  12.224   9.457
17414SOL     OW54073   7.254   4.415   2.672
17414SOL    HW154074   7.301   4.475   2.729
17414SOL    HW254075   7.232   4.467   2.595
17415SOL     OW54076   4.007   0.148   1.010
17415SOL    HW154077   4.051   0.091   1.074
17415SOL    HW254078   4.059   0.228   1.010
17416SOL     OW54079   2.683   8.530   7.681
17416SOL    HW154080   2.648   8.616   7.704
17416SOL    HW254081   2.692   8.533   7.586
17417SOL     OW54082  12.246  12.787   9.083
17417SOL    HW154083  12.151  12.777   9.083
17417SOL    HW254084  12.262  12.870   9.037
17418SOL     OW54085   3.787   4.502  13.733
17418SOL    HW154086   3.734   4.524  13.656
17418SOL    HW254087   3.877   4.501  13.700
17419SOL     OW54088   8.901   9.317   3.069
17419SOL    HW154089   8.978   9.322   3.124
17419SOL    HW254090   8.829   9.349   3.124
17420SOL     OW54091   8.342   8.243  13.111
17420SOL    HW154092   8.285   8.243  13.188
17420SOL    HW254093   8.373   8.152  13.105
17421SOL     OW54094   0.581   3.001   6.811
17421SOL    HW154095   0.649   2.939   6.839
17421SOL    HW254096   0.623   3.087   6.816
17422SOL     OW54097  14.462  11.143   5.338
17422SOL    HW154098  14.377  11.105   5.315
17422SOL    HW254099  14.445  11.190   5.420
17423SOL     OW54100  12.939   6.316   1.967
17423SOL    HW154101  12.967   6.386   1.908
17423SOL    HW254102  12.920   6.360   2.050
17424SOL     OW54103   8.260   6.160  12.537
17424SOL    HW154104   8.302   6.203  12.610
17424SOL    HW254105   8.276   6.066  12.552
17425SOL     OW54106   4.197   0.693   5.851
17425SOL    HW154107   4.117   0.720   5.895
17425SOL    HW254108   4.185   0.600   5.833
17426SOL     OW54109  13.553   8.216   8.858
17426SOL    HW154110  13.504   8.296   8.873
17426SOL    HW254111  13.492   8.145   8.878
17427SOL     OW54112  10.445   8.244   1.911
17427SOL    HW154113  10.504   8.171   1.890
17427SOL    HW254114  10.474   8.316   1.855
17428SOL     OW54115   2.694  14.101  10.154
17428SOL    HW154116   2.632  14.028  10.167
17428SOL    HW254117   2.666  14.167  10.218
17429SOL     OW54118   8.145   1.845  11.349
17429SOL    HW154119   8.184   1.781  11.409
17429SOL    HW254120   8.165   1.810  11.262
17430SOL     OW54121  12.591   5.966   3.137
17430SOL    HW154122  12.545   5.895   3.091
17430SOL    HW254123  12.589   6.039   3.075
17431SOL     OW54124   8.033   8.055  13.321
17431SOL    HW154125   8.073   8.142  13.321
17431SOL    HW254126   7.981   8.052  13.402
17432SOL     OW54127   4.428   5.344  10.566
17432SOL    HW154128   4.383   5.429  10.562
17432SOL    HW254129   4.444   5.321  10.474
17433SOL     OW54130   2.160  11.734   8.266
17433SOL    HW154131   2.208  11.760   8.188
17433SOL    HW254132   2.227  11.697   8.324
17434SOL     OW54133   0.113   0.169   6.370
17434SOL    HW154134   0.080   0.098   6.425
17434SOL    HW254135   0.186   0.206   6.418
17435SOL     OW54136   5.612   4.451   3.020
17435SOL    HW154137   5.649   4.463   2.932
17435SOL    HW254138   5.638   4.363   3.045
17436SOL     OW54139   0.312   5.298   5.152
17436SOL    HW154140   0.373   5.309   5.079
17436SOL    HW254141   0.351   5.228   5.205
17437SOL     OW54142  14.727  11.918  14.540
17437SOL    HW154143  14.640  11.880  14.550
17437SOL    HW254144  14.783  11.862  14.594
17438SOL     OW54145   0.863   5.902  10.675
17438SOL    HW154146   0.815   5.968  10.625
17438SOL    HW254147   0.934   5.875  10.618
17439SOL     OW54148   0.678   5.567   1.650
17439SOL    HW154149   0.742   5.497   1.641
17439SOL    HW254150   0.723   5.635   1.701
17440SOL     OW54151  14.681   8.676  10.477
17440SOL    HW154152  14.715   8.691  10.565
17440SOL    HW254153  14.657   8.763  10.445
17441SOL     OW54154   7.652  11.166   0.987
17441SOL    HW154155   7.597  11.168   1.066
17441SOL    HW254156   7.702  11.248   0.991
17442SOL     OW54157   8.228   2.111  11.249
17442SOL    HW154158   8.251   2.080  11.162
17442SOL    HW254159   8.234   2.033  11.305
17443SOL     OW54160   2.345   0.940   8.760
17443SOL    HW154161   2.360   1.033   8.747
17443SOL    HW254162   2.329   0.905   8.672
17444SOL     OW54163   2.711  10.058   7.060
17444SOL    HW154164   2.689  10.001   6.986
17444SOL    HW254165   2.804  10.079   7.047
17445SOL     OW54166   7.318   7.644   2.113
17445SOL    HW154167   7.259   7.660   2.187
17445SOL    HW254168   7.304   7.552   2.091
17446SOL     OW54169   5.782  13.736   0.520
17446SOL    HW154170   5.734  13.800   0.572
17446SOL    HW254171   5.760  13.651   0.558
17447SOL     OW54172   8.637   5.234   2.985
17447SOL    HW154173   8.619   5.140   2.990
17447SOL    HW254174   8.624   5.267   3.074
17448SOL     OW54175   1.307   8.909   1.103
17448SOL    HW154176   1.283   8.841   1.165
17448SOL    HW254177   1.387   8.878   1.062
17449SOL     OW54178   3.742   8.323  13.408
17449SOL    HW154179   3.775   8.398  13.458
17449SOL    HW254180   3.804   8.313  13.336
17450SOL     OW54181   1.475  13.286   4.673
17450SOL    HW154182   1.426  13.326   4.745
17450SOL    HW254183   1.415  13.222   4.635
17451SOL     OW54184  13.562   5.844  11.595
17451SOL    HW154185  13.613   5.853  11.675
17451SOL    HW254186  13.477   5.884  11.616
17452SOL     OW54187   0.349   2.483  11.896
17452SOL    HW154188   0.444   2.493  11.890
17452SOL    HW254189   0.333   2.394  11.864
17453SOL     OW54190  13.751  13.222   5.474
17453SOL    HW154191  13.681  13.171   5.515
17453SOL    HW254192  13.705  13.283   5.417
17454SOL     OW54193   5.184   4.680   7.737
17454SOL    HW154194   5.144   4.730   7.808
17454SOL    HW254195   5.264   4.644   7.775
17455SOL     OW54196   7.923   6.661   5.572
17455SOL    HW154197   7.845   6.609   5.555
17455SOL    HW254198   7.995   6.598   5.567
17456SOL     OW54199   0.569  13.718   1.497
17456SOL    HW154200   0.656  13.687   1.522
17456SOL    HW254201   0.545  13.664   1.422
17457SOL     OW54202   5.766  11.557  11.540
17457SOL    HW154203   5.816  11.476  11.528
17457SOL    HW254204   5.744  11.586  11.452
17458SOL     OW54205   9.155  11.593  11.390
17458SOL    HW154206   9.234  11.540  11.399
17458SOL    HW254207   9.150  11.641  11.473
17459SOL     OW54208  13.639  13.380   4.198
17459SOL    HW154209  13.676  13.423   4.121
17459SOL    HW254210  13.616  13.293   4.167
17460SOL     OW54211   7.078   2.681   6.798
17460SOL    HW154212   7.016   2.618   6.760
17460SOL    HW254213   7.096   2.742   6.726
17461SOL     OW54214  12.235  12.947   3.652
17461SOL    HW154215  12.287  12.979   3.726
17461SOL    HW254216  12.255  13.009   3.581
17462SOL     OW54217   8.063   7.478   9.719
17462SOL    HW154218   8.020   7.548   9.769
17462SOL    HW254219   8.017   7.477   9.636
17463SOL     OW54220  13.537   8.405   6.871
17463SOL    HW154221  13.611   8.344   6.865
17463SOL    HW254222  13.577   8.492   6.865
17464SOL     OW54223   2.733   9.659  11.513
17464SOL    HW154224   2.827   9.664  11.493
17464SOL    HW254225   2.707   9.572  11.481
17465SOL     OW54226   5.465   2.184   2.933
17465SOL    HW154227   5.373   2.160   2.935
17465SOL    HW254228   5.488   2.186   2.840
17466SOL     OW54229   1.881   2.051   9.410
17466SOL    HW154230   1.954   2.112   9.410
17466SOL    HW254231   1.886   2.008   9.324
17467SOL     OW54232   7.243   0.464   3.617
17467SOL    HW154233   7.200   0.412   3.685
17467SOL    HW254234   7.172   0.495   3.562
17468SOL     OW54235   4.896  13.841   2.884
17468SOL    HW154236   4.880  13.880   2.970
17468SOL    HW254237   4.871  13.910   2.822
17469SOL     OW54238  11.591   7.257   9.722
17469SOL    HW154239  11.681   7.284   9.702
17469SOL    HW254240  11.600   7.192   9.792
17470SOL     OW54241  11.979  11.655  10.536
17470SOL    HW154242  11.995  11.632  10.445
17470SOL    HW254243  12.065  11.679  10.571
17471SOL     OW54244   6.864   1.682  12.931
17471SOL    HW154245   6.902   1.770  12.932
17471SOL    HW254246   6.905   1.636  13.004
17472SOL     OW54247   4.012   5.233   4.785
17472SOL    HW154248   4.059   5.300   4.835
17472SOL    HW254249   3.933   5.277   4.754
17473SOL     OW54250   5.631   9.112  12.789
17473SOL    HW154251   5.666   9.040  12.738
17473SOL    HW254252   5.557   9.145  12.738
17474SOL     OW54253   5.667  13.943  12.411
17474SOL    HW154254   5.601  13.897  12.358
17474SOL    HW254255   5.742  13.954  12.352
17475SOL     OW54256   5.255   0.528   7.691
17475SOL    HW154257   5.200   0.466   7.738
17475SOL    HW254258   5.200   0.559   7.619
17476SOL     OW54259   5.309  10.517  14.679
17476SOL    HW154260   5.344  10.523  14.768
17476SOL    HW254261   5.385  10.500  14.624
17477SOL     OW54262  10.671   9.959  12.898
17477SOL    HW154263  10.717   9.976  12.816
17477SOL    HW254264  10.676   9.864  12.909
17478SOL     OW54265   8.616   8.153  11.647
17478SOL    HW154266   8.602   8.223  11.584
17478SOL    HW254267   8.708   8.163  11.674
17479SOL     OW54268   0.131   0.650  11.525
17479SOL    HW154269   0.148   0.642  11.431
17479SOL    HW254270   0.071   0.724  11.533
17480SOL     OW54271  12.066   7.467   8.582
17480SOL    HW154272  12.043   7.375   8.589
17480SOL    HW254273  11.987   7.509   8.547
17481SOL     OW54274   5.985  14.719  14.457
17481SOL    HW154275   5.977  14.658  14.383
17481SOL    HW254276   5.897  14.754  14.469
17482SOL     OW54277  13.215  14.453   5.801
17482SOL    HW154278  13.297  14.496   5.824
17482SOL    HW254279  13.179  14.507   5.730
17483SOL     OW54280  11.001  10.713  13.255
17483SOL    HW154281  11.047  10.664  13.323
17483SOL    HW254282  10.909  10.697  13.272
17484SOL     OW54283   3.583   0.777  10.086
17484SOL    HW154284   3.645   0.733  10.029
17484SOL    HW254285   3.516   0.711  10.105
17485SOL     OW54286   9.420   4.126   1.640
17485SOL    HW154287   9.358   4.130   1.567
17485SOL    HW254288   9.445   4.034   1.645
17486SOL     OW54289   8.973  10.472   5.723
17486SOL    HW154290   9.019  10.498   5.802
17486SOL    HW254291   8.883  10.504   5.736
17487SOL     OW54292  13.028   4.200  12.183
17487SOL    HW154293  13.046   4.146  12.106
17487SOL    HW254294  12.942   4.172  12.212
17488SOL     OW54295   6.162  14.662   7.887
17488SOL    HW154296   6.238  14.718   7.875
17488SOL    HW254297   6.094  14.721   7.922
17489SOL     OW54298   2.616  10.820   5.513
17489SOL    HW154299   2.633  10.905   5.472
17489SOL    HW254300   2.698  10.771   5.501
17490SOL     OW54301   6.613   2.241  11.949
17490SOL    HW154302   6.521   2.234  11.972
17490SOL    HW254303   6.618   2.316  11.891
17491SOL     OW54304   4.564   2.038   4.727
17491SOL    HW154305   4.655   2.062   4.746
17491SOL    HW254306   4.512   2.102   4.777
17492SOL     OW54307   1.736  12.056  10.348
17492SOL    HW154308   1.705  12.123  10.410
17492SOL    HW254309   1.726  12.097  10.262
17493SOL     OW54310  12.524   0.096   0.965
17493SOL    HW154311  12.528   0.056   1.052
17493SOL    HW254312  12.537   0.189   0.982
17494SOL     OW54313   5.557  10.577  12.229
17494SOL    HW154314   5.533  10.533  12.310
17494SOL    HW254315   5.619  10.645  12.256
17495SOL     OW54316   2.568  12.104   8.021
17495SOL    HW154317   2.624  12.178   8.046
17495SOL    HW254318   2.610  12.028   8.062
17496SOL     OW54319  13.915   5.814   5.057
17496SOL    HW154320  13.995   5.856   5.089
17496SOL    HW254321  13.857   5.811   5.133
17497SOL     OW54322   6.501   7.125   2.483
17497SOL    HW154323   6.416   7.154   2.516
17497SOL    HW254324   6.530   7.197   2.426
17498SOL     OW54325   1.977   1.440   7.945
17498SOL    HW154326   2.070   1.422   7.935
17498SOL    HW254327   1.959   1.420   8.037
17499SOL     OW54328  13.218   3.550   9.568
17499SOL    HW154329  13.153   3.620   9.560
17499SOL    HW254330  13.292   3.581   9.516
17500SOL     OW54331  13.588  14.469   3.034
17500SOL    HW154332  13.680  14.467   3.062
17500SOL    HW254333  13.574  14.559   3.006
17501SOL     OW54334   3.223   4.882   4.294
17501SOL    HW154335   3.284   4.860   4.365
17501SOL    HW254336   3.279   4.902   4.219
17502SOL     OW54337   1.525   3.901   2.583
17502SOL    HW154338   1.575   3.946   2.514
17502SOL    HW254339   1.578   3.914   2.662
17503SOL     OW54340  11.561   1.535  13.869
17503SOL    HW154341  11.539   1.488  13.949
17503SOL    HW254342  11.545   1.627  13.890
17504SOL     OW54343  11.007  10.269   8.351
17504SOL    HW154344  11.087  10.217   8.340
17504SOL    HW254345  11.016  10.340   8.287
17505SOL     OW54346   9.025   6.771   6.834
17505SOL    HW154347   8.988   6.713   6.768
17505SOL    HW254348   9.104   6.725   6.865
17506SOL     OW54349   7.974   5.828  11.164
17506SOL    HW154350   7.893   5.825  11.114
17506SOL    HW254351   8.001   5.920  11.160
17507SOL     OW54352   9.222  14.008   0.607
17507SOL    HW154353   9.241  14.080   0.546
17507SOL    HW254354   9.129  14.017   0.626
17508SOL     OW54355   7.430  12.977   8.217
17508SOL    HW154356   7.352  13.025   8.243
17508SOL    HW254357   7.456  12.928   8.295
17509SOL     OW54358   0.567   8.255   0.454
17509SOL    HW154359   0.557   8.162   0.471
17509SOL    HW254360   0.620   8.259   0.374
17510SOL     OW54361   2.963   0.772  12.092
17510SOL    HW154362   3.042   0.765  12.039
17510SOL    HW254363   2.991   0.745  12.180
17511SOL     OW54364   0.206   5.711   1.873
17511SOL    HW154365   0.146   5.671   1.811
17511SOL    HW254366   0.283   5.654   1.873
17512SOL     OW54367  11.655   5.856  12.682
17512SOL    HW154368  11.635   5.827  12.593
17512SOL    HW254369  11.750   5.857  12.687
17513SOL     OW54370   7.837   0.523   8.712
17513SOL    HW154371   7.841   0.469   8.791
17513SOL    HW254372   7.789   0.469   8.649
17514SOL     OW54373   2.440   4.830  12.600
17514SOL    HW154374   2.477   4.881  12.672
17514SOL    HW254375   2.361   4.790  12.638
17515SOL     OW54376   3.615  13.437   0.848
17515SOL    HW154377   3.559  13.376   0.897
17515SOL    HW254378   3.655  13.492   0.915
17516SOL     OW54379   2.071   1.244  14.613
17516SOL    HW154380   2.123   1.175  14.655
17516SOL    HW254381   2.062   1.214  14.522
17517SOL     OW54382  14.577   6.418  13.102
17517SOL    HW154383  14.619   6.361  13.038
17517SOL    HW254384  14.615   6.391  13.186
17518SOL     OW54385   1.943  12.925   3.417
17518SOL    HW154386   1.918  13.014   3.393
17518SOL    HW254387   1.922  12.873   3.340
17519SOL     OW54388   2.687   0.305   5.688
17519SOL    HW154389   2.641   0.348   5.760
17519SOL    HW254390   2.673   0.362   5.613
17520SOL     OW54391  10.405   7.867   9.046
17520SOL    HW154392  10.477   7.833   8.992
17520SOL    HW254393  10.448   7.910   9.120
17521SOL     OW54394   9.509  13.095  12.866
17521SOL    HW154395   9.598  13.091  12.902
17521SOL    HW254396   9.460  13.146  12.930
17522SOL     OW54397   4.546  12.300  14.846
17522SOL    HW154398   4.492  12.361   0.020
17522SOL    HW254399   4.630  12.297   0.017
17523SOL     OW54400   3.012   7.180  12.191
17523SOL    HW154401   3.083   7.240  12.215
17523SOL    HW254402   3.006   7.120  12.265
17524SOL     OW54403  13.372   2.188   8.197
17524SOL    HW154404  13.375   2.134   8.276
17524SOL    HW254405  13.463   2.208   8.177
17525SOL     OW54406   3.414   6.138  14.360
17525SOL    HW154407   3.388   6.214  14.309
17525SOL    HW254408   3.497   6.110  14.322
17526SOL     OW54409   0.223   0.021   4.275
17526SOL    HW154410   0.196   0.112   4.287
17526SOL    HW254411   0.189  14.872   4.189
17527SOL     OW54412  11.492   9.023   9.778
17527SOL    HW154413  11.515   8.980   9.860
17527SOL    HW254414  11.533   9.109   9.783
17528SOL     OW54415   9.779   3.179   8.898
17528SOL    HW154416   9.812   3.258   8.856
17528SOL    HW254417   9.709   3.148   8.840
17529SOL     OW54418  12.824   4.095  11.841
17529SOL    HW154419  12.819   4.182  11.802
17529SOL    HW254420  12.742   4.087  11.890
17530SOL     OW54421   0.842   3.906   6.940
17530SOL    HW154422   0.837   4.001   6.948
17530SOL    HW254423   0.758   3.874   6.974
17531SOL     OW54424   1.752   4.692   5.335
17531SOL    HW154425   1.766   4.770   5.281
17531SOL    HW254426   1.777   4.619   5.278
17532SOL     OW54427   9.645  12.232   2.979
17532SOL    HW154428   9.667  12.253   3.069
17532SOL    HW254429   9.637  12.136   2.977
17533SOL     OW54430  12.432   1.872  14.335
17533SOL    HW154431  12.481   1.793  14.358
17533SOL    HW254432  12.408   1.911  14.419
17534SOL     OW54433   8.623  11.153   8.438
17534SOL    HW154434   8.576  11.202   8.505
17534SOL    HW254435   8.554  11.110   8.387
17535SOL     OW54436   4.556   3.523   5.529
17535SOL    HW154437   4.558   3.610   5.570
17535SOL    HW254438   4.472   3.522   5.482
17536SOL     OW54439  10.433   3.271   8.812
17536SOL    HW154440  10.521   3.276   8.850
17536SOL    HW254441  10.446   3.294   8.720
17537SOL     OW54442  12.771   8.078   7.612
17537SOL    HW154443  12.821   8.019   7.668
17537SOL    HW254444  12.770   8.161   7.659
17538SOL     OW54445   2.165   8.246   5.053
17538SOL    HW154446   2.083   8.218   5.013
17538SOL    HW254447   2.232   8.195   5.007
17539SOL     OW54448   2.659  14.759   5.572
17539SOL    HW154449   2.719  14.779   5.643
17539SOL    HW254450   2.682  14.670   5.545
17540SOL     OW54451  12.187  11.788   1.588
17540SOL    HW154452  12.158  11.733   1.515
17540SOL    HW254453  12.111  11.841   1.611
17541SOL     OW54454  14.615   7.419   1.231
17541SOL    HW154455  14.598   7.342   1.285
17541SOL    HW254456  14.577   7.491   1.281
17542SOL     OW54457  10.778   4.847  13.420
17542SOL    HW154458  10.853   4.843  13.479
17542SOL    HW254459  10.702   4.856  13.477
17543SOL     OW54460   1.609  12.024   6.520
17543SOL    HW154461   1.689  12.075   6.531
17543SOL    HW254462   1.542  12.089   6.502
17544SOL     OW54463   6.632   0.614   8.453
17544SOL    HW154464   6.554   0.608   8.508
17544SOL    HW254465   6.682   0.535   8.474
17545SOL     OW54466   7.485   2.538  13.177
17545SOL    HW154467   7.511   2.524  13.086
17545SOL    HW254468   7.435   2.619  13.176
17546SOL     OW54469  12.904  14.403   0.419
17546SOL    HW154470  12.877  14.474   0.361
17546SOL    HW254471  12.950  14.342   0.361
17547SOL     OW54472   5.849   8.493  11.640
17547SOL    HW154473   5.841   8.499  11.545
17547SOL    HW254474   5.774   8.439  11.667
17548SOL     OW54475   3.274  13.523   4.289
17548SOL    HW154476   3.276  13.450   4.351
17548SOL    HW254477   3.248  13.598   4.341
17549SOL     OW54478   2.896   3.629   8.422
17549SOL    HW154479   2.931   3.638   8.334
17549SOL    HW254480   2.802   3.625   8.410
17550SOL     OW54481   1.450   5.916   5.446
17550SOL    HW154482   1.464   5.822   5.439
17550SOL    HW254483   1.460   5.948   5.356
17551SOL     OW54484  11.792  12.392   8.905
17551SOL    HW154485  11.869  12.428   8.948
17551SOL    HW254486  11.795  12.429   8.816
17552SOL     OW54487   5.548  11.662   8.904
17552SOL    HW154488   5.559  11.642   8.998
17552SOL    HW254489   5.612  11.731   8.887
17553SOL     OW54490  14.000   8.019  10.034
17553SOL    HW154491  14.041   7.942   9.996
17553SOL    HW254492  14.063   8.090  10.020
17554SOL     OW54493   4.396  13.634   1.541
17554SOL    HW154494   4.320  13.686   1.512
17554SOL    HW254495   4.371  13.602   1.628
17555SOL     OW54496   1.298   4.420  11.573
17555SOL    HW154497   1.340   4.344  11.535
17555SOL    HW254498   1.305   4.406  11.668
17556SOL     OW54499  13.674   1.921   1.607
17556SOL    HW154500  13.664   1.995   1.667
17556SOL    HW254501  13.724   1.856   1.657
17557SOL     OW54502   5.131   2.459   0.648
17557SOL    HW154503   5.121   2.483   0.556
17557SOL    HW254504   5.043   2.435   0.676
17558SOL     OW54505   4.208   5.148   3.433
17558SOL    HW154506   4.293   5.108   3.414
17558SOL    HW254507   4.204   5.225   3.376
17559SOL     OW54508   3.145   3.848  13.320
17559SOL    HW154509   3.066   3.873  13.368
17559SOL    HW254510   3.190   3.931  13.303
17560SOL     OW54511  13.678   3.112   1.293
17560SOL    HW154512  13.733   3.038   1.320
17560SOL    HW254513  13.738   3.169   1.245
17561SOL     OW54514   0.181   9.337   6.222
17561SOL    HW154515   0.235   9.379   6.155
17561SOL    HW254516   0.195   9.243   6.209
17562SOL     OW54517   7.183   2.140  13.000
17562SOL    HW154518   7.142   2.225  13.014
17562SOL    HW254519   7.214   2.143  12.909
17563SOL     OW54520   0.856  14.729   0.744
17563SOL    HW154521   0.768  14.707   0.773
17563SOL    HW254522   0.895  14.774   0.819
17564SOL     OW54523   9.230   5.208   4.422
17564SOL    HW154524   9.194   5.264   4.490
17564SOL    HW254525   9.169   5.216   4.348
17565SOL     OW54526   6.428   2.834   8.410
17565SOL    HW154527   6.511   2.849   8.454
17565SOL    HW254528   6.446   2.765   8.346
17566SOL     OW54529   3.724   1.010   1.528
17566SOL    HW154530   3.784   0.975   1.461
17566SOL    HW254531   3.709   1.100   1.500
17567SOL     OW54532  11.594  11.363  12.966
17567SOL    HW154533  11.582  11.458  12.962
17567SOL    HW254534  11.505  11.328  12.975
17568SOL     OW54535   1.061   3.731  12.271
17568SOL    HW154536   1.047   3.784  12.350
17568SOL    HW254537   1.050   3.793  12.199
17569SOL     OW54538   9.432   1.835  11.422
17569SOL    HW154539   9.346   1.877  11.412
17569SOL    HW254540   9.425   1.787  11.505
17570SOL     OW54541   7.252   0.454  13.388
17570SOL    HW154542   7.286   0.477  13.302
17570SOL    HW254543   7.283   0.365  13.404
17571SOL     OW54544  12.284   8.812   7.126
17571SOL    HW154545  12.280   8.784   7.217
17571SOL    HW254546  12.268   8.906   7.128
17572SOL     OW54547  11.152   1.197   1.514
17572SOL    HW154548  11.166   1.249   1.594
17572SOL    HW254549  11.066   1.158   1.526
17573SOL     OW54550   6.636  10.439  11.345
17573SOL    HW154551   6.587  10.383  11.285
17573SOL    HW254552   6.575  10.457  11.417
17574SOL     OW54553   2.602  11.517   8.564
17574SOL    HW154554   2.643  11.585   8.618
17574SOL    HW254555   2.671  11.487   8.505
17575SOL     OW54556   1.656   0.864   1.919
17575SOL    HW154557   1.561   0.849   1.910
17575SOL    HW254558   1.685   0.889   1.832
17576SOL     OW54559   2.713   8.537   9.476
17576SOL    HW154560   2.649   8.587   9.525
17576SOL    HW254561   2.796   8.583   9.490
17577SOL     OW54562  11.647   7.296   1.368
17577SOL    HW154563  11.695   7.270   1.447
17577SOL    HW254564  11.572   7.236   1.365
17578SOL     OW54565   8.580  12.724   3.717
17578SOL    HW154566   8.493  12.691   3.692
17578SOL    HW254567   8.582  12.813   3.683
17579SOL     OW54568   0.462   1.828  11.632
17579SOL    HW154569   0.492   1.740  11.656
17579SOL    HW254570   0.533   1.885  11.660
17580SOL     OW54571   2.610   6.731   2.133
17580SOL    HW154572   2.544   6.671   2.098
17580SOL    HW254573   2.666   6.675   2.187
17581SOL     OW54574   6.472   3.455   6.008
17581SOL    HW154575   6.429   3.371   6.022
17581SOL    HW254576   6.562   3.432   5.985
17582SOL     OW54577   2.442   7.397   0.460
17582SOL    HW154578   2.379   7.468   0.472
17582SOL    HW254579   2.526   7.441   0.451
17583SOL     OW54580   1.834   5.211   5.971
17583SOL    HW154581   1.821   5.130   5.921
17583SOL    HW254582   1.929   5.222   5.974
17584SOL     OW54583   2.280  12.002   1.889
17584SOL    HW154584   2.350  11.980   1.827
17584SOL    HW254585   2.226  11.923   1.892
17585SOL     OW54586   2.421   0.117  10.096
17585SOL    HW154587   2.366   0.116  10.174
17585SOL    HW254588   2.459   0.030  10.092
17586SOL     OW54589  14.060  14.459   0.519
17586SOL    HW154590  13.976  14.457   0.473
17586SOL    HW254591  14.106  14.532   0.480
17587SOL     OW54592   2.502   0.347   0.583
17587SOL    HW154593   2.559   0.270   0.589
17587SOL    HW254594   2.474   0.362   0.673
17588SOL     OW54595   5.377   0.733   5.733
17588SOL    HW154596   5.377   0.659   5.672
17588SOL    HW254597   5.287   0.739   5.763
17589SOL     OW54598  13.512   4.251   9.942
17589SOL    HW154599  13.564   4.175   9.967
17589SOL    HW254600  13.502   4.243   9.847
17590SOL     OW54601   8.225   2.177   1.552
17590SOL    HW154602   8.258   2.158   1.640
17590SOL    HW254603   8.247   2.269   1.538
17591SOL     OW54604   6.131   9.126  12.470
17591SOL    HW154605   6.110   9.216  12.496
17591SOL    HW254606   6.046   9.081  12.473
17592SOL     OW54607   9.310  10.993   0.086
17592SOL    HW154608   9.266  10.914   0.119
17592SOL    HW254609   9.403  10.976   0.099
17593SOL     OW54610   6.517  12.080   8.332
17593SOL    HW154611   6.594  12.028   8.353
17593SOL    HW254612   6.455  12.018   8.293
17594SOL     OW54613   3.871   7.650  12.910
17594SOL    HW154614   3.843   7.700  12.832
17594SOL    HW254615   3.798   7.659  12.971
17595SOL     OW54616   3.049   8.531   3.340
17595SOL    HW154617   2.969   8.483   3.360
17595SOL    HW254618   3.088   8.550   3.425
17596SOL     OW54619   5.662   3.198  11.782
17596SOL    HW154620   5.591   3.135  11.773
17596SOL    HW254621   5.707   3.195  11.698
17597SOL     OW54622   3.226   8.115   3.392
17597SOL    HW154623   3.232   8.153   3.480
17597SOL    HW254624   3.243   8.188   3.333
17598SOL     OW54625   6.574   5.327   6.072
17598SOL    HW154626   6.504   5.347   6.010
17598SOL    HW254627   6.534   5.268   6.136
17599SOL     OW54628   3.861  12.132   8.193
17599SOL    HW154629   3.892  12.216   8.160
17599SOL    HW254630   3.847  12.147   8.287
17600SOL     OW54631   0.813   8.450   8.035
17600SOL    HW154632   0.876   8.409   8.095
17600SOL    HW254633   0.737   8.392   8.037
17601SOL     OW54634   7.890   4.234   3.513
17601SOL    HW154635   7.813   4.207   3.464
17601SOL    HW254636   7.954   4.257   3.446
17602SOL     OW54637   8.978  12.591   1.935
17602SOL    HW154638   8.982  12.515   1.877
17602SOL    HW254639   8.953  12.663   1.879
17603SOL     OW54640   6.293   7.658   9.156
17603SOL    HW154641   6.304   7.695   9.069
17603SOL    HW254642   6.258   7.570   9.140
17604SOL     OW54643   4.017   9.082   0.483
17604SOL    HW154644   3.924   9.067   0.467
17604SOL    HW254645   4.042   9.147   0.417
17605SOL     OW54646  14.726  13.848   4.503
17605SOL    HW154647  14.797  13.833   4.441
17605SOL    HW254648  14.769  13.845   4.589
17606SOL     OW54649  14.710   2.051  11.094
17606SOL    HW154650  14.703   2.029  11.187
17606SOL    HW254651  14.796   2.016  11.068
17607SOL     OW54652   4.553   4.954   2.125
17607SOL    HW154653   4.503   5.007   2.188
17607SOL    HW254654   4.642   4.951   2.160
17608SOL     OW54655   2.298   8.959   6.794
17608SOL    HW154656   2.339   9.009   6.724
17608SOL    HW254657   2.241   9.022   6.838
17609SOL     OW54658  10.029  14.485   9.420
17609SOL    HW154659  10.066  14.483   9.332
17609SOL    HW254660  10.037  14.394   9.451
17610SOL     OW54661   6.144  11.855   0.294
17610SOL    HW154662   6.178  11.818   0.375
17610SOL    HW254663   6.051  11.868   0.311
17611SOL     OW54664  14.494  10.649  10.192
17611SOL    HW154665  14.562  10.705  10.153
17611SOL    HW254666  14.483  10.683  10.281
17612SOL     OW54667  12.154   9.096   5.720
17612SOL    HW154668  12.212   9.028   5.688
17612SOL    HW254669  12.137   9.073   5.812
17613SOL     OW54670   5.263  14.059  14.219
17613SOL    HW154671   5.200  14.076  14.289
17613SOL    HW254672   5.329  14.128  14.229
17614SOL     OW54673   6.578  13.017   3.566
17614SOL    HW154674   6.587  12.932   3.524
17614SOL    HW254675   6.568  12.998   3.659
17615SOL     OW54676   3.142   8.473   7.471
17615SOL    HW154677   3.092   8.537   7.522
17615SOL    HW254678   3.120   8.389   7.510
17616SOL     OW54679  10.838   9.649   1.106
17616SOL    HW154680  10.800   9.727   1.067
17616SOL    HW254681  10.803   9.647   1.196
17617SOL     OW54682  10.635   3.652   1.731
17617SOL    HW154683  10.710   3.653   1.671
17617SOL    HW254684  10.590   3.569   1.712
17618SOL     OW54685   8.696  14.047   4.206
17618SOL    HW154686   8.714  14.141   4.216
17618SOL    HW254687   8.783  14.008   4.195
17619SOL     OW54688   8.330   1.989   2.731
17619SOL    HW154689   8.246   1.948   2.709
17619SOL    HW254690   8.307   2.065   2.785
17620SOL     OW54691   5.026  10.834  13.614
17620SOL    HW154692   4.981  10.840  13.699
17620SOL    HW254693   5.001  10.748  13.580
17621SOL     OW54694  11.932   5.567   7.808
17621SOL    HW154695  11.909   5.547   7.717
17621SOL    HW254696  12.027   5.579   7.807
17622SOL     OW54697   6.430  11.147  11.039
17622SOL    HW154698   6.496  11.112  11.099
17622SOL    HW254699   6.364  11.187  11.097
17623SOL     OW54700   7.380   4.682  12.966
17623SOL    HW154701   7.296   4.647  12.935
17623SOL    HW254702   7.364   4.775  12.978
17624SOL     OW54703  12.059  10.387   6.299
17624SOL    HW154704  12.106  10.321   6.351
17624SOL    HW254705  12.070  10.359   6.208
17625SOL     OW54706   5.543   3.871   0.546
17625SOL    HW154707   5.616   3.848   0.487
17625SOL    HW254708   5.508   3.952   0.509
17626SOL     OW54709  11.916  13.309   4.791
17626SOL    HW154710  11.894  13.312   4.698
17626SOL    HW254711  11.894  13.220   4.818
17627SOL     OW54712   8.493   3.266   8.426
17627SOL    HW154713   8.437   3.207   8.377
17627SOL    HW254714   8.498   3.345   8.372
17628SOL     OW54715   6.543  12.309   8.980
17628SOL    HW154716   6.563  12.388   8.931
17628SOL    HW254717   6.521  12.340   9.068
17629SOL     OW54718   9.870   8.130  13.966
17629SOL    HW154719   9.914   8.052  14.000
17629SOL    HW254720   9.847   8.181  14.044
17630SOL     OW54721   4.562  10.636  14.367
17630SOL    HW154722   4.535  10.554  14.407
17630SOL    HW254723   4.518  10.704  14.417
17631SOL     OW54724   4.666  10.913   0.572
17631SOL    HW154725   4.756  10.887   0.556
17631SOL    HW254726   4.654  10.993   0.520
17632SOL     OW54727   8.445  10.973  14.002
17632SOL    HW154728   8.356  10.985  13.970
17632SOL    HW254729   8.467  10.883  13.979
17633SOL     OW54730   1.574  13.346   4.152
17633SOL    HW154731   1.598  13.256   4.176
17633SOL    HW254732   1.479  13.345   4.150
17634SOL     OW54733  13.232   5.930   3.369
17634SOL    HW154734  13.267   5.841   3.364
17634SOL    HW254735  13.138   5.919   3.378
17635SOL     OW54736   8.818   1.041  12.571
17635SOL    HW154737   8.838   0.991  12.492
17635SOL    HW254738   8.722   1.039  12.576
17636SOL     OW54739  11.715  12.076   3.815
17636SOL    HW154740  11.732  12.136   3.742
17636SOL    HW254741  11.781  12.007   3.805
17637SOL     OW54742  11.546   6.899   2.325
17637SOL    HW154743  11.561   6.941   2.410
17637SOL    HW254744  11.451   6.907   2.310
17638SOL     OW54745  11.953   4.247   4.522
17638SOL    HW154746  11.977   4.266   4.613
17638SOL    HW254747  11.888   4.313   4.499
17639SOL     OW54748   5.197   4.646   6.859
17639SOL    HW154749   5.165   4.589   6.929
17639SOL    HW254750   5.150   4.617   6.781
17640SOL     OW54751   5.996  13.531  10.450
17640SOL    HW154752   5.944  13.473  10.506
17640SOL    HW254753   5.939  13.549  10.376
17641SOL     OW54754  14.866  10.513  12.255
17641SOL    HW154755  14.827  10.502  12.168
17641SOL    HW254756  14.835  10.598  12.285
17642SOL     OW54757   4.628   1.814   4.937
17642SOL    HW154758   4.707   1.853   4.900
17642SOL    HW254759   4.625   1.726   4.901
17643SOL     OW54760   9.226   4.288   7.612
17643SOL    HW154761   9.276   4.370   7.617
17643SOL    HW254762   9.183   4.281   7.698
17644SOL     OW54763  13.473   2.994   3.108
17644SOL    HW154764  13.540   2.995   3.038
17644SOL    HW254765  13.391   3.009   3.062
17645SOL     OW54766   7.868  10.734  10.191
17645SOL    HW154767   7.871  10.784  10.273
17645SOL    HW254768   7.822  10.790  10.130
17646SOL     OW54769  12.329   2.224  10.641
17646SOL    HW154770  12.379   2.176  10.576
17646SOL    HW254771  12.248   2.249  10.596
17647SOL     OW54772   0.521   4.807   5.875
17647SOL    HW154773   0.442   4.757   5.856
17647SOL    HW254774   0.562   4.760   5.947
17648SOL     OW54775   0.359   3.143   0.334
17648SOL    HW154776   0.266   3.164   0.345
17648SOL    HW254777   0.370   3.061   0.383
17649SOL     OW54778   6.117  13.767   5.000
17649SOL    HW154779   6.201  13.810   5.011
17649SOL    HW254780   6.052  13.837   5.011
17650SOL     OW54781   6.828   2.640   0.916
17650SOL    HW154782   6.827   2.548   0.943
17650SOL    HW254783   6.867   2.686   0.990
17651SOL     OW54784   0.249   0.311  12.768
17651SOL    HW154785   0.269   0.272  12.853
17651SOL    HW254786   0.275   0.243  12.705
17652SOL     OW54787  14.655   9.609   6.684
17652SOL    HW154788  14.649   9.703   6.699
17652SOL    HW254789  14.679   9.600   6.592
17653SOL     OW54790  13.984   9.338  10.381
17653SOL    HW154791  13.949   9.414  10.427
17653SOL    HW254792  14.078   9.355  10.376
17654SOL     OW54793   7.812  11.528   9.784
17654SOL    HW154794   7.760  11.608   9.781
17654SOL    HW254795   7.769  11.468   9.723
17655SOL     OW54796  13.093   5.970   7.581
17655SOL    HW154797  13.083   6.064   7.595
17655SOL    HW254798  13.100   5.933   7.669
17656SOL     OW54799   0.687  14.664   4.812
17656SOL    HW154800   0.743  14.741   4.821
17656SOL    HW254801   0.599  14.698   4.798
17657SOL     OW54802   9.101   7.177  10.214
17657SOL    HW154803   9.150   7.119  10.156
17657SOL    HW254804   9.132   7.265  10.193
17658SOL     OW54805  12.415   3.824   6.071
17658SOL    HW154806  12.486   3.831   6.135
17658SOL    HW254807  12.367   3.907   6.079
17659SOL     OW54808   9.666   2.710   9.728
17659SOL    HW154809   9.631   2.656   9.799
17659SOL    HW254810   9.589   2.742   9.682
17660SOL     OW54811   6.335  13.034  11.738
17660SOL    HW154812   6.279  13.058  11.664
17660SOL    HW254813   6.419  13.075  11.718
17661SOL     OW54814  13.443   7.897  12.538
17661SOL    HW154815  13.421   7.866  12.626
17661SOL    HW254816  13.509   7.964  12.552
17662SOL     OW54817  12.193   4.166   2.611
17662SOL    HW154818  12.189   4.086   2.559
17662SOL    HW254819  12.285   4.192   2.609
17663SOL     OW54820   9.011  10.221  11.554
17663SOL    HW154821   9.082  10.199  11.494
17663SOL    HW254822   9.051  10.221  11.641
17664SOL     OW54823   2.527  12.502   3.597
17664SOL    HW154824   2.595  12.448   3.638
17664SOL    HW254825   2.533  12.482   3.504
17665SOL     OW54826  12.262   2.810   9.230
17665SOL    HW154827  12.172   2.798   9.200
17665SOL    HW254828  12.274   2.743   9.297
17666SOL     OW54829  10.539   0.658   2.455
17666SOL    HW154830  10.498   0.723   2.398
17666SOL    HW254831  10.466   0.616   2.500
17667SOL     OW54832   4.146   5.552  12.567
17667SOL    HW154833   4.233   5.587  12.588
17667SOL    HW254834   4.141   5.470  12.617
17668SOL     OW54835   6.052   7.639   1.795
17668SOL    HW154836   5.957   7.637   1.804
17668SOL    HW254837   6.084   7.607   1.879
17669SOL     OW54838  10.930  10.365   0.067
17669SOL    HW154839  10.916  10.300   0.137
17669SOL    HW254840  10.882  10.329  14.868
17670SOL     OW54841   8.487   5.174  12.546
17670SOL    HW154842   8.508   5.082  12.566
17670SOL    HW254843   8.426   5.168  12.472
17671SOL     OW54844   7.863  13.888  11.734
17671SOL    HW154845   7.785  13.941  11.715
17671SOL    HW254846   7.839  13.837  11.811
17672SOL     OW54847   4.004   0.938   8.380
17672SOL    HW154848   4.022   1.025   8.345
17672SOL    HW254849   4.061   0.879   8.330
17673SOL     OW54850  13.329  14.011   7.078
17673SOL    HW154851  13.239  14.023   7.051
17673SOL    HW254852  13.324  14.000   7.173
17674SOL     OW54853   2.873   9.955  12.081
17674SOL    HW154854   2.893   9.864  12.061
17674SOL    HW254855   2.818   9.984  12.008
17675SOL     OW54856  12.412   4.135   7.858
17675SOL    HW154857  12.411   4.210   7.799
17675SOL    HW254858  12.412   4.059   7.799
17676SOL     OW54859  13.815   5.851  13.335
17676SOL    HW154860  13.767   5.810  13.407
17676SOL    HW254861  13.772   5.817  13.256
17677SOL     OW54862   5.630   9.216  13.893
17677SOL    HW154863   5.695   9.151  13.867
17677SOL    HW254864   5.640   9.286  13.829
17678SOL     OW54865   1.511  13.113   9.299
17678SOL    HW154866   1.463  13.182   9.345
17678SOL    HW254867   1.586  13.093   9.355
17679SOL     OW54868  11.513   0.902   3.693
17679SOL    HW154869  11.531   0.991   3.662
17679SOL    HW254870  11.600   0.864   3.705
17680SOL     OW54871   9.568   8.723   9.886
17680SOL    HW154872   9.614   8.639   9.886
17680SOL    HW254873   9.486   8.705   9.841
17681SOL     OW54874   5.047  10.222   4.907
17681SOL    HW154875   5.025  10.213   5.000
17681SOL    HW254876   5.073  10.313   4.897
17682SOL     OW54877   3.603   9.068  13.608
17682SOL    HW154878   3.549   9.000  13.567
17682SOL    HW254879   3.617   9.036  13.697
17683SOL     OW54880   7.208   9.088   8.991
17683SOL    HW154881   7.163   9.030   8.929
17683SOL    HW254882   7.161   9.076   9.073
17684SOL     OW54883   8.327  12.933  11.901
17684SOL    HW154884   8.396  12.984  11.860
17684SOL    HW254885   8.373  12.867  11.953
17685SOL     OW54886  10.215   5.840   1.033
17685SOL    HW154887  10.171   5.919   1.063
17685SOL    HW254888  10.261   5.866   0.954
17686SOL     OW54889   3.387   5.725   0.219
17686SOL    HW154890   3.305   5.757   0.182
17686SOL    HW254891   3.393   5.769   0.304
17687SOL     OW54892  11.420   3.230   9.187
17687SOL    HW154893  11.456   3.161   9.131
17687SOL    HW254894  11.474   3.228   9.266
17688SOL     OW54895   5.258   0.331   3.865
17688SOL    HW154896   5.351   0.354   3.862
17688SOL    HW254897   5.244   0.302   3.956
17689SOL     OW54898   3.136   5.090   8.047
17689SOL    HW154899   3.148   5.156   8.115
17689SOL    HW254900   3.055   5.114   8.004
17690SOL     OW54901  14.618   9.544   3.045
17690SOL    HW154902  14.655   9.456   3.047
17690SOL    HW254903  14.605   9.562   2.952
17691SOL     OW54904   7.526   5.115  14.696
17691SOL    HW154905   7.483   5.051  14.753
17691SOL    HW254906   7.472   5.118  14.617
17692SOL     OW54907   0.217   6.006   2.439
17692SOL    HW154908   0.243   6.090   2.477
17692SOL    HW254909   0.258   6.004   2.353
17693SOL     OW54910   7.225   6.397  13.555
17693SOL    HW154911   7.234   6.492  13.565
17693SOL    HW254912   7.132   6.384  13.538
17694SOL     OW54913   1.102   7.842   9.514
17694SOL    HW154914   1.153   7.921   9.532
17694SOL    HW254915   1.126   7.782   9.585
17695SOL     OW54916   6.956   2.037   8.737
17695SOL    HW154917   6.930   2.005   8.823
17695SOL    HW254918   7.050   2.054   8.745
17696SOL     OW54919  11.084   4.988  12.516
17696SOL    HW154920  11.129   5.019  12.594
17696SOL    HW254921  10.999   5.031  12.519
17697SOL     OW54922  10.035   4.285   6.488
17697SOL    HW154923   9.994   4.312   6.406
17697SOL    HW254924  10.025   4.190   6.490
17698SOL     OW54925   7.245  10.511  14.134
17698SOL    HW154926   7.299  10.513  14.055
17698SOL    HW254927   7.301  10.471  14.201
17699SOL     OW54928   2.403   2.180   1.342
17699SOL    HW154929   2.338   2.228   1.291
17699SOL    HW254930   2.456   2.248   1.384
17700SOL     OW54931   1.220  10.363   3.394
17700SOL    HW154932   1.193  10.326   3.310
17700SOL    HW254933   1.290  10.306   3.424
17701SOL     OW54934  13.421  12.399  11.703
17701SOL    HW154935  13.400  12.447  11.783
17701SOL    HW254936  13.340  12.398  11.653
17702SOL     OW54937   5.756   1.910   1.460
17702SOL    HW154938   5.773   1.821   1.430
17702SOL    HW254939   5.795   1.914   1.548
17703SOL     OW54940   4.277   8.727   3.841
17703SOL    HW154941   4.288   8.646   3.890
17703SOL    HW254942   4.242   8.789   3.905
17704SOL     OW54943  12.375   4.559   4.612
17704SOL    HW154944  12.461   4.519   4.601
17704SOL    HW254945  12.392   4.640   4.659
17705SOL     OW54946   9.897  13.706  10.051
17705SOL    HW154947   9.959  13.764  10.096
17705SOL    HW254948   9.952  13.637  10.013
17706SOL     OW54949   0.424  13.470   7.393
17706SOL    HW154950   0.466  13.540   7.443
17706SOL    HW254951   0.431  13.393   7.450
17707SOL     OW54952   2.020  10.407   9.644
17707SOL    HW154953   1.953  10.468   9.674
17707SOL    HW254954   2.061  10.375   9.724
17708SOL     OW54955  10.957   9.155  14.127
17708SOL    HW154956  10.995   9.227  14.178
17708SOL    HW254957  10.905   9.198  14.060
17709SOL     OW54958   7.504   0.176   8.068
17709SOL    HW154959   7.589   0.192   8.108
17709SOL    HW254960   7.452   0.253   8.091
17710SOL     OW54961  11.788  12.735   4.390
17710SOL    HW154962  11.707  12.692   4.365
17710SOL    HW254963  11.856  12.668   4.380
17711SOL     OW54964  10.774   5.146  10.233
17711SOL    HW154965  10.826   5.186  10.164
17711SOL    HW254966  10.706   5.096  10.187
17712SOL     OW54967   4.248   3.622   7.724
17712SOL    HW154968   4.237   3.557   7.794
17712SOL    HW254969   4.159   3.653   7.705
17713SOL     OW54970   6.761   9.157  13.111
17713SOL    HW154971   6.683   9.108  13.083
17713SOL    HW254972   6.735   9.249  13.103
17714SOL     OW54973  13.789   9.434   0.359
17714SOL    HW154974  13.842   9.512   0.379
17714SOL    HW254975  13.738   9.419   0.439
17715SOL     OW54976   5.854  13.431   4.967
17715SOL    HW154977   5.915  13.446   4.895
17715SOL    HW254978   5.897  13.365   5.022
17716SOL     OW54979   1.114  14.803   4.111
17716SOL    HW154980   1.089  14.875   4.054
17716SOL    HW254981   1.187  14.837   4.163
17717SOL     OW54982  12.505  14.231  11.298
17717SOL    HW154983  12.523  14.141  11.269
17717SOL    HW254984  12.429  14.257  11.246
17718SOL     OW54985   7.075   0.246   3.434
17718SOL    HW154986   7.010   0.266   3.367
17718SOL    HW254987   7.158   0.277   3.397
17719SOL     OW54988  11.021   0.347  14.161
17719SOL    HW154989  10.966   0.275  14.132
17719SOL    HW254990  10.996   0.361  14.253
17720SOL     OW54991   0.876   7.265   6.798
17720SOL    HW154992   0.956   7.231   6.756
17720SOL    HW254993   0.805   7.232   6.743
17721SOL     OW54994  12.342   8.221   0.911
17721SOL    HW154995  12.287   8.204   0.834
17721SOL    HW254996  12.402   8.289   0.883
17722SOL     OW54997   9.067   8.179  13.981
17722SOL    HW154998   9.017   8.239  13.927
17722SOL    HW254999   9.090   8.107  13.922
17723SOL     OW55000  12.901  13.675   3.422
17723SOL    HW155001  12.907  13.769   3.435
17723SOL    HW255002  12.953  13.637   3.493
17724SOL     OW55003   3.450   3.864   0.958
17724SOL    HW155004   3.382   3.876   0.891
17724SOL    HW255005   3.532   3.866   0.909
17725SOL     OW55006  12.935   6.319   2.748
17725SOL    HW155007  12.881   6.384   2.703
17725SOL    HW255008  13.015   6.366   2.770
17726SOL     OW55009   2.042   8.689  12.291
17726SOL    HW155010   2.116   8.630  12.306
17726SOL    HW255011   2.083   8.773  12.270
17727SOL     OW55012   1.740   6.623  14.204
17727SOL    HW155013   1.733   6.638  14.298
17727SOL    HW255014   1.820   6.573  14.193
17728SOL     OW55015   2.444  14.528   6.786
17728SOL    HW155016   2.353  14.500   6.772
17728SOL    HW255017   2.496  14.449   6.772
17729SOL     OW55018  12.816   7.224  11.492
17729SOL    HW155019  12.886   7.276  11.531
17729SOL    HW255020  12.781   7.280  11.422
17730SOL     OW55021  14.285  12.726   8.003
17730SOL    HW155022  14.338  12.695   7.930
17730SOL    HW255023  14.285  12.654   8.066
17731SOL     OW55024   1.747   8.170  13.946
17731SOL    HW155025   1.805   8.138  13.877
17731SOL    HW255026   1.790   8.144  14.027
17732SOL     OW55027  14.798   8.987  14.364
17732SOL    HW155028   0.018   8.984  14.364
17732SOL    HW255029  14.773   8.986  14.272
17733SOL     OW55030  10.042   8.558   2.659
17733SOL    HW155031  10.133   8.580   2.682
17733SOL    HW255032  10.008   8.513   2.736
17734SOL     OW55033   6.209   4.924  12.351
17734SOL    HW155034   6.295   4.958  12.373
17734SOL    HW255035   6.206   4.928  12.255
17735SOL     OW55036  12.788   4.154   8.403
17735SOL    HW155037  12.746   4.173   8.487
17735SOL    HW255038  12.843   4.231   8.385
17736SOL     OW55039   4.083  10.584  13.768
17736SOL    HW155040   4.031  10.522  13.820
17736SOL    HW255041   4.143  10.528  13.718
17737SOL     OW55042   0.764   6.813   9.420
17737SOL    HW155043   0.843   6.772   9.456
17737SOL    HW255044   0.775   6.806   9.325
17738SOL     OW55045  14.757  12.087  11.680
17738SOL    HW155046  14.841  12.131  11.689
17738SOL    HW255047  14.779  11.993  11.677
17739SOL     OW55048   6.232  11.420  10.618
17739SOL    HW155049   6.273  11.410  10.532
17739SOL    HW255050   6.245  11.512  10.641
17740SOL     OW55051  14.303  12.763  14.457
17740SOL    HW155052  14.232  12.709  14.490
17740SOL    HW255053  14.282  12.778  14.365
17741SOL     OW55054   5.099   7.323  14.847
17741SOL    HW155055   5.148   7.307  14.767
17741SOL    HW255056   5.033   7.254  14.849
17742SOL     OW55057   3.171   3.348   7.158
17742SOL    HW155058   3.086   3.376   7.125
17742SOL    HW255059   3.196   3.275   7.102
17743SOL     OW55060   7.881   8.159   8.790
17743SOL    HW155061   7.908   8.098   8.721
17743SOL    HW255062   7.799   8.123   8.823
17744SOL     OW55063   0.055  12.082  14.461
17744SOL    HW155064   0.020  12.151  14.404
17744SOL    HW255065  14.853  12.045  14.503
17745SOL     OW55066   5.466  10.631   2.936
17745SOL    HW155067   5.470  10.541   2.904
17745SOL    HW255068   5.509  10.628   3.022
17746SOL     OW55069   8.199   6.344  11.362
17746SOL    HW155070   8.142   6.412  11.325
17746SOL    HW255071   8.141   6.269  11.374
17747SOL     OW55072   1.772  10.232   8.537
17747SOL    HW155073   1.777  10.170   8.610
17747SOL    HW255074   1.853  10.282   8.543
17748SOL     OW55075   7.842   4.964  10.787
17748SOL    HW155076   7.910   5.031  10.792
17748SOL    HW255077   7.856   4.921  10.702
17749SOL     OW55078  13.353   2.477   9.987
17749SOL    HW155079  13.379   2.400   9.936
17749SOL    HW255080  13.393   2.462  10.073
17750SOL     OW55081  10.784  10.290   7.914
17750SOL    HW155082  10.755  10.380   7.896
17750SOL    HW255083  10.727  10.235   7.861
17751SOL     OW55084  14.407  10.991   0.351
17751SOL    HW155085  14.356  10.912   0.329
17751SOL    HW255086  14.482  10.988   0.292
17752SOL     OW55087   0.575   1.596  12.677
17752SOL    HW155088   0.582   1.586  12.582
17752SOL    HW255089   0.481   1.607  12.694
17753SOL     OW55090   0.774   8.254  10.650
17753SOL    HW155091   0.733   8.168  10.650
17753SOL    HW255092   0.850   8.244  10.592
17754SOL     OW55093   1.967   6.080   5.401
17754SOL    HW155094   1.872   6.071   5.409
17754SOL    HW255095   1.997   6.097   5.490
17755SOL     OW55096  11.352  11.731   1.770
17755SOL    HW155097  11.400  11.648   1.777
17755SOL    HW255098  11.415  11.791   1.730
17756SOL     OW55099   6.813   3.460   5.247
17756SOL    HW155100   6.810   3.479   5.154
17756SOL    HW255101   6.811   3.365   5.253
17757SOL     OW55102  12.151   6.126   3.574
17757SOL    HW155103  12.174   6.034   3.585
17757SOL    HW255104  12.106   6.150   3.656
17758SOL     OW55105   1.252   4.800  14.140
17758SOL    HW155106   1.249   4.831  14.050
17758SOL    HW255107   1.267   4.706  14.133
17759SOL     OW55108   8.231   2.290  13.056
17759SOL    HW155109   8.191   2.264  13.139
17759SOL    HW255110   8.309   2.236  13.048
17760SOL     OW55111   5.922   0.366   1.600
17760SOL    HW155112   5.914   0.440   1.660
17760SOL    HW255113   5.958   0.404   1.520
17761SOL     OW55114   1.885   1.728   4.844
17761SOL    HW155115   1.950   1.658   4.847
17761SOL    HW255116   1.867   1.748   4.935
17762SOL     OW55117   8.185  11.899   2.280
17762SOL    HW155118   8.130  11.952   2.221
17762SOL    HW255119   8.193  11.953   2.359
17763SOL     OW55120  11.120   7.202   5.219
17763SOL    HW155121  11.049   7.250   5.261
17763SOL    HW255122  11.196   7.217   5.276
17764SOL     OW55123   0.347  10.568  10.526
17764SOL    HW155124   0.427  10.615  10.549
17764SOL    HW255125   0.332  10.590  10.434
17765SOL     OW55126  10.456   3.394   6.502
17765SOL    HW155127  10.547   3.421   6.503
17765SOL    HW255128  10.430   3.397   6.410
17766SOL     OW55129   1.961   2.854  12.818
17766SOL    HW155130   1.935   2.772  12.778
17766SOL    HW255131   1.957   2.918  12.747
17767SOL     OW55132   5.207   7.797   0.951
17767SOL    HW155133   5.211   7.883   0.992
17767SOL    HW255134   5.262   7.742   1.007
17768SOL     OW55135  14.873   1.489  14.608
17768SOL    HW155136  14.806   1.557  14.602
17768SOL    HW255137   0.076   1.531  14.573
17769SOL     OW55138   3.437   9.116   2.243
17769SOL    HW155139   3.481   9.099   2.326
17769SOL    HW255140   3.508   9.141   2.183
17770SOL     OW55141  11.340   0.263   0.331
17770SOL    HW155142  11.302   0.300   0.410
17770SOL    HW255143  11.404   0.199   0.363
17771SOL     OW55144   7.621   9.978   1.557
17771SOL    HW155145   7.567   9.986   1.635
17771SOL    HW255146   7.628   9.884   1.541
17772SOL     OW55147   5.562   7.995   2.427
17772SOL    HW155148   5.607   8.025   2.506
17772SOL    HW255149   5.469   8.003   2.448
17773SOL     OW55150   0.695   1.631   7.735
17773SOL    HW155151   0.745   1.591   7.807
17773SOL    HW255152   0.738   1.715   7.720
17774SOL     OW55153   9.380   9.223  13.459
17774SOL    HW155154   9.320   9.149  13.458
17774SOL    HW255155   9.382   9.250  13.551
17775SOL     OW55156   8.767   8.171  13.899
17775SOL    HW155157   8.709   8.216  13.838
17775SOL    HW255158   8.795   8.238  13.960
17776SOL     OW55159   4.622   9.265   1.454
17776SOL    HW155160   4.656   9.318   1.383
17776SOL    HW255161   4.527   9.266   1.442
17777SOL     OW55162  14.660   6.753  10.636
17777SOL    HW155163  14.678   6.695  10.562
17777SOL    HW255164  14.600   6.703  10.692
17778SOL     OW55165   1.969   2.557   7.200
17778SOL    HW155166   2.052   2.522   7.168
17778SOL    HW255167   1.960   2.521   7.288
17779SOL     OW55168   3.025  13.377   4.140
17779SOL    HW155169   3.045  13.310   4.206
17779SOL    HW255170   3.105  13.429   4.135
17780SOL     OW55171  14.655  10.114   1.358
17780SOL    HW155172  14.741  10.131   1.319
17780SOL    HW255173  14.601  10.188   1.330
17781SOL     OW55174   3.486   3.065   7.806
17781SOL    HW155175   3.464   3.151   7.841
17781SOL    HW255176   3.567   3.041   7.850
17782SOL     OW55177   9.941   5.917   3.540
17782SOL    HW155178  10.032   5.923   3.512
17782SOL    HW255179   9.944   5.930   3.635
17783SOL     OW55180  14.199  11.599   5.310
17783SOL    HW155181  14.281  11.641   5.335
17783SOL    HW255182  14.226  11.525   5.255
17784SOL     OW55183   9.152  14.551   1.367
17784SOL    HW155184   9.169  14.511   1.282
17784SOL    HW255185   9.237  14.586   1.394
17785SOL     OW55186   5.520   8.791   8.888
17785SOL    HW155187   5.529   8.696   8.900
17785SOL    HW255188   5.607   8.826   8.909
17786SOL     OW55189  14.419  10.995   6.970
17786SOL    HW155190  14.408  10.918   7.026
17786SOL    HW255191  14.513  11.009   6.967
17787SOL     OW55192  12.220   5.733   7.219
17787SOL    HW155193  12.243   5.826   7.218
17787SOL    HW255194  12.165   5.721   7.141
17788SOL     OW55195   0.635   7.139   0.507
17788SOL    HW155196   0.558   7.195   0.493
17788SOL    HW255197   0.622   7.102   0.595
17789SOL     OW55198   3.615   4.948  14.355
17789SOL    HW155199   3.631   4.947  14.260
17789SOL    HW255200   3.702   4.938  14.394
17790SOL     OW55201   4.197  10.276   2.985
17790SOL    HW155202   4.200  10.209   3.054
17790SOL    HW255203   4.118  10.256   2.935
17791SOL     OW55204   5.515   1.880   4.681
17791SOL    HW155205   5.601   1.909   4.709
17791SOL    HW255206   5.532   1.799   4.632
17792SOL     OW55207   2.761   6.353  11.270
17792SOL    HW155208   2.747   6.267  11.228
17792SOL    HW255209   2.817   6.401  11.209
17793SOL     OW55210   2.276  13.397  13.815
17793SOL    HW155211   2.335  13.325  13.796
17793SOL    HW255212   2.319  13.474  13.778
17794SOL     OW55213   9.409   2.930   2.822
17794SOL    HW155214   9.469   2.855   2.824
17794SOL    HW255215   9.327   2.895   2.858
17795SOL     OW55216   2.141   5.737   3.884
17795SOL    HW155217   2.184   5.744   3.799
17795SOL    HW255218   2.057   5.694   3.865
17796SOL     OW55219  11.537   8.503  14.118
17796SOL    HW155220  11.477   8.556  14.066
17796SOL    HW255221  11.480   8.444  14.167
17797SOL     OW55222   9.121   0.773  10.892
17797SOL    HW155223   9.193   0.801  10.836
17797SOL    HW255224   9.084   0.854  10.927
17798SOL     OW55225   4.074   3.234   4.269
17798SOL    HW155226   4.093   3.146   4.301
17798SOL    HW255227   4.103   3.292   4.339
17799SOL     OW55228   2.143  10.965   8.669
17799SOL    HW155229   2.111  11.004   8.750
17799SOL    HW255230   2.228  11.007   8.654
17800SOL     OW55231  13.904   6.490   7.860
17800SOL    HW155232  13.848   6.540   7.802
17800SOL    HW255233  13.886   6.398   7.838
17801SOL     OW55234   8.867  13.948  11.513
17801SOL    HW155235   8.951  13.977  11.550
17801SOL    HW255236   8.862  13.855  11.535
17802SOL     OW55237   6.095  11.576   1.404
17802SOL    HW155238   6.116  11.669   1.396
17802SOL    HW255239   6.111  11.556   1.496
17803SOL     OW55240   2.033  11.440  12.119
17803SOL    HW155241   2.005  11.419  12.030
17803SOL    HW255242   2.026  11.358  12.167
17804SOL     OW55243   1.433  13.414   8.071
17804SOL    HW155244   1.355  13.413   8.126
17804SOL    HW255245   1.428  13.496   8.022
17805SOL     OW55246  13.546   0.743   9.238
17805SOL    HW155247  13.510   0.781   9.158
17805SOL    HW255248  13.641   0.747   9.226
17806SOL     OW55249  13.201   0.568   9.173
17806SOL    HW155250  13.243   0.627   9.235
17806SOL    HW255251  13.171   0.495   9.227
17807SOL     OW55252  14.480   7.576   1.477
17807SOL    HW155253  14.412   7.510   1.466
17807SOL    HW255254  14.447   7.652   1.429
17808SOL     OW55255   3.163   0.800   3.481
17808SOL    HW155256   3.235   0.783   3.542
17808SOL    HW255257   3.188   0.756   3.400
17809SOL     OW55258   9.653   8.507   2.737
17809SOL    HW155259   9.735   8.508   2.787
17809SOL    HW255260   9.680   8.490   2.647
17810SOL     OW55261  10.078  12.612   4.779
17810SOL    HW155262  10.094  12.556   4.703
17810SOL    HW255263  10.121  12.567   4.851
17811SOL     OW55264   8.847   1.420   2.222
17811SOL    HW155265   8.772   1.470   2.192
17811SOL    HW255266   8.825   1.329   2.200
17812SOL     OW55267   7.740   8.272   3.883
17812SOL    HW155268   7.778   8.229   3.959
17812SOL    HW255269   7.745   8.206   3.813
17813SOL     OW55270   2.371   6.439   3.456
17813SOL    HW155271   2.418   6.462   3.536
17813SOL    HW255272   2.303   6.507   3.448
17814SOL     OW55273  12.080   2.779  10.599
17814SOL    HW155274  12.057   2.788  10.507
17814SOL    HW255275  12.172   2.804  10.604
17815SOL     OW55276  11.918   7.600   2.955
17815SOL    HW155277  11.979   7.665   2.992
17815SOL    HW255278  11.974   7.531   2.921
17816SOL     OW55279   7.850   2.818   7.846
17816SOL    HW155280   7.891   2.749   7.898
17816SOL    HW255281   7.842   2.892   7.906
17817SOL     OW55282   8.901  11.222   6.374
17817SOL    HW155283   8.955  11.267   6.439
17817SOL    HW255284   8.937  11.134   6.369
17818SOL     OW55285   9.253   5.994  11.117
17818SOL    HW155286   9.181   5.973  11.176
17818SOL    HW255287   9.330   6.000  11.174
17819SOL     OW55288   8.399   9.042  14.046
17819SOL    HW155289   8.430   8.962  14.003
17819SOL    HW255290   8.306   9.046  14.026
17820SOL     OW55291  12.160   2.635   4.232
17820SOL    HW155292  12.196   2.720   4.206
17820SOL    HW255293  12.156   2.585   4.150
17821SOL     OW55294   3.373   9.281  11.219
17821SOL    HW155295   3.327   9.245  11.143
17821SOL    HW255296   3.303   9.316  11.274
17822SOL     OW55297   5.919  13.292   7.106
17822SOL    HW155298   5.901  13.240   7.028
17822SOL    HW255299   5.857  13.364   7.102
17823SOL     OW55300  10.276   7.398   4.824
17823SOL    HW155301  10.211   7.354   4.879
17823SOL    HW255302  10.228   7.472   4.786
17824SOL     OW55303   4.780  11.198  10.150
17824SOL    HW155304   4.844  11.150  10.097
17824SOL    HW255305   4.792  11.290  10.124
17825SOL     OW55306  10.178   4.738  11.285
17825SOL    HW155307  10.260   4.743  11.235
17825SOL    HW255308  10.203   4.761  11.374
17826SOL     OW55309   6.580   5.488  12.545
17826SOL    HW155310   6.602   5.523  12.459
17826SOL    HW255311   6.661   5.447  12.576
17827SOL     OW55312   6.335  12.765  11.052
17827SOL    HW155313   6.371  12.680  11.077
17827SOL    HW255314   6.245  12.746  11.027
17828SOL     OW55315   2.548   9.817   3.969
17828SOL    HW155316   2.506   9.825   4.055
17828SOL    HW255317   2.500   9.747   3.925
17829SOL     OW55318   0.160   1.488   2.745
17829SOL    HW155319   0.081   1.473   2.796
17829SOL    HW255320   0.133   1.551   2.678
17830SOL     OW55321  12.912   8.650   5.488
17830SOL    HW155322  12.969   8.628   5.414
17830SOL    HW255323  12.912   8.746   5.490
17831SOL     OW55324   6.750  13.711   9.263
17831SOL    HW155325   6.780  13.620   9.254
17831SOL    HW255326   6.826  13.757   9.299
17832SOL     OW55327   5.363   6.018   5.240
17832SOL    HW155328   5.274   6.024   5.274
17832SOL    HW255329   5.416   6.068   5.301
17833SOL     OW55330  11.687   8.450   3.990
17833SOL    HW155331  11.643   8.529   3.958
17833SOL    HW255332  11.621   8.407   4.044
17834SOL     OW55333   8.224  13.344   5.569
17834SOL    HW155334   8.157  13.278   5.589
17834SOL    HW255335   8.276  13.303   5.499
17835SOL     OW55336  10.255   7.206  11.229
17835SOL    HW155337  10.282   7.298  11.224
17835SOL    HW255338  10.327   7.158  11.187
17836SOL     OW55339   6.042   2.239   5.721
17836SOL    HW155340   6.104   2.235   5.649
17836SOL    HW255341   5.986   2.162   5.709
17837SOL     OW55342  14.612   7.038  12.606
17837SOL    HW155343  14.539   7.017  12.664
17837SOL    HW255344  14.646   7.121  12.639
17838SOL     OW55345   3.106   7.771   5.669
17838SOL    HW155346   3.039   7.728   5.721
17838SOL    HW255347   3.168   7.807   5.733
17839SOL     OW55348   9.911   7.242  11.765
17839SOL    HW155349   9.981   7.205  11.818
17839SOL    HW255350   9.951   7.318  11.723
17840SOL     OW55351  10.520  11.475   0.654
17840SOL    HW155352  10.441  11.476   0.601
17840SOL    HW255353  10.553  11.386   0.647
17841SOL     OW55354  12.458  10.052   0.486
17841SOL    HW155355  12.436  10.041   0.578
17841SOL    HW255356  12.399   9.993   0.440
17842SOL     OW55357  11.907   4.197   4.194
17842SOL    HW155358  11.917   4.267   4.130
17842SOL    HW255359  11.997   4.168   4.212
17843SOL     OW55360   4.503   3.332  11.733
17843SOL    HW155361   4.554   3.253  11.750
17843SOL    HW255362   4.553   3.402  11.774
17844SOL     OW55363   9.193  10.235   9.738
17844SOL    HW155364   9.122  10.240   9.675
17844SOL    HW255365   9.213  10.142   9.745
17845SOL     OW55366   6.656   3.236   1.675
17845SOL    HW155367   6.628   3.309   1.729
17845SOL    HW255368   6.713   3.275   1.609
17846SOL     OW55369   8.573   3.533   1.079
17846SOL    HW155370   8.593   3.624   1.056
17846SOL    HW255371   8.647   3.506   1.133
17847SOL     OW55372  10.838  12.986  11.145
17847SOL    HW155373  10.832  12.909  11.201
17847SOL    HW255374  10.749  12.998  11.111
17848SOL     OW55375   9.585   4.681  12.753
17848SOL    HW155376   9.556   4.757  12.803
17848SOL    HW255377   9.518   4.670  12.685
17849SOL     OW55378   3.453   0.235   0.242
17849SOL    HW155379   3.518   0.167   0.262
17849SOL    HW255380   3.380   0.215   0.301
17850SOL     OW55381   7.775   7.575  11.145
17850SOL    HW155382   7.764   7.667  11.167
17850SOL    HW255383   7.773   7.530  11.230
17851SOL     OW55384   1.010   5.113  13.917
17851SOL    HW155385   1.027   5.019  13.924
17851SOL    HW255386   0.934   5.119  13.860
17852SOL     OW55387  12.061   5.845  10.950
17852SOL    HW155388  12.035   5.775  10.891
17852SOL    HW255389  12.063   5.804  11.037
17853SOL     OW55390  14.406  10.190   2.919
17853SOL    HW155391  14.361  10.115   2.956
17853SOL    HW255392  14.462  10.222   2.990
17854SOL     OW55393   4.918   0.065   3.782
17854SOL    HW155394   4.965   0.068   3.866
17854SOL    HW255395   4.855   0.137   3.788
17855SOL     OW55396  11.812  10.202  13.133
17855SOL    HW155397  11.792  10.272  13.196
17855SOL    HW255398  11.907  10.207  13.122
17856SOL     OW55399  11.541   0.375  13.238
17856SOL    HW155400  11.602   0.410  13.172
17856SOL    HW255401  11.576   0.407  13.321
17857SOL     OW55402   8.303   3.801   9.373
17857SOL    HW155403   8.273   3.771   9.288
17857SOL    HW255404   8.225   3.835   9.417
17858SOL     OW55405   6.224  12.061  12.602
17858SOL    HW155406   6.314  12.048  12.573
17858SOL    HW255407   6.173  12.002  12.546
17859SOL     OW55408   0.939   3.564  11.875
17859SOL    HW155409   0.918   3.528  11.961
17859SOL    HW255410   1.032   3.587  11.881
17860SOL     OW55411   6.611  14.398   7.168
17860SOL    HW155412   6.624  14.383   7.074
17860SOL    HW255413   6.696  14.380   7.207
17861SOL     OW55414  14.016   2.850   7.714
17861SOL    HW155415  14.083   2.788   7.684
17861SOL    HW255416  13.948   2.847   7.647
17862SOL     OW55417  13.847   4.577   6.059
17862SOL    HW155418  13.756   4.585   6.031
17862SOL    HW255419  13.897   4.577   5.977
17863SOL     OW55420  13.825   5.429   3.522
17863SOL    HW155421  13.791   5.355   3.472
17863SOL    HW255422  13.776   5.428   3.604
17864SOL     OW55423   0.612  12.964   9.912
17864SOL    HW155424   0.533  12.939   9.865
17864SOL    HW255425   0.676  12.897   9.889
17865SOL     OW55426  14.819  11.792   9.742
17865SOL    HW155427  14.781  11.759   9.823
17865SOL    HW255428   0.028  11.829   9.768
17866SOL     OW55429  11.714   3.400  13.128
17866SOL    HW155430  11.766   3.478  13.110
17866SOL    HW255431  11.706   3.356  13.043
17867SOL     OW55432   5.212   9.963  10.200
17867SOL    HW155433   5.252  10.050  10.198
17867SOL    HW255434   5.146   9.965  10.131
17868SOL     OW55435   5.281   3.141  12.166
17868SOL    HW155436   5.254   3.232  12.176
17868SOL    HW255437   5.361   3.146  12.113
17869SOL     OW55438   0.203   2.831  12.759
17869SOL    HW155439   0.179   2.923  12.775
17869SOL    HW255440   0.159   2.783  12.829
17870SOL     OW55441   1.719  14.512   7.506
17870SOL    HW155442   1.805  14.527   7.466
17870SOL    HW255443   1.704  14.418   7.497
17871SOL     OW55444   3.034   9.421   3.683
17871SOL    HW155445   2.951   9.379   3.705
17871SOL    HW255446   3.027   9.510   3.717
17872SOL     OW55447   0.944  12.628  11.913
17872SOL    HW155448   1.036  12.631  11.886
17872SOL    HW255449   0.939  12.554  11.974
17873SOL     OW55450  14.149   8.992  13.227
17873SOL    HW155451  14.195   9.033  13.153
17873SOL    HW255452  14.140   8.900  13.201
17874SOL     OW55453   4.469  13.887  11.165
17874SOL    HW155454   4.510  13.870  11.080
17874SOL    HW255455   4.495  13.812  11.219
17875SOL     OW55456  14.098   8.026  13.371
17875SOL    HW155457  14.188   7.998  13.386
17875SOL    HW255458  14.065   7.966  13.304
17876SOL     OW55459  14.380   7.210  11.875
17876SOL    HW155460  14.315   7.269  11.837
17876SOL    HW255461  14.402   7.249  11.959
17877SOL     OW55462  13.637   7.314   4.469
17877SOL    HW155463  13.663   7.347   4.555
17877SOL    HW255464  13.694   7.360   4.407
17878SOL     OW55465   0.322   0.610   1.185
17878SOL    HW155466   0.396   0.550   1.183
17878SOL    HW255467   0.247   0.558   1.155
17879SOL     OW55468  13.870  11.178   6.128
17879SOL    HW155469  13.958  11.143   6.119
17879SOL    HW255470  13.828  11.121   6.193
17880SOL     OW55471   5.475   1.777  14.740
17880SOL    HW155472   5.502   1.856  14.693
17880SOL    HW255473   5.388   1.799  14.774
17881SOL     OW55474   4.738   1.258  13.094
17881SOL    HW155475   4.786   1.193  13.146
17881SOL    HW255476   4.800   1.331  13.085
17882SOL     OW55477   2.626   0.691   6.740
17882SOL    HW155478   2.559   0.729   6.683
17882SOL    HW255479   2.630   0.598   6.715
17883SOL     OW55480  13.888   3.843   6.420
17883SOL    HW155481  13.878   3.839   6.515
17883SOL    HW255482  13.821   3.905   6.392
17884SOL     OW55483   5.593  14.484   2.149
17884SOL    HW155484   5.503  14.489   2.180
17884SOL    HW255485   5.587  14.495   2.054
17885SOL     OW55486  13.663   3.010   2.912
17885SOL    HW155487  13.685   3.102   2.927
17885SOL    HW255488  13.744   2.969   2.883
17886SOL     OW55489   8.944   2.965   0.981
17886SOL    HW155490   8.965   2.926   1.065
17886SOL    HW255491   9.024   2.956   0.929
17887SOL     OW55492   3.925   7.895   2.607
17887SOL    HW155493   3.844   7.947   2.613
17887SOL    HW255494   3.995   7.957   2.628
17888SOL     OW55495   2.349   4.112  14.041
17888SOL    HW155496   2.272   4.070  14.079
17888SOL    HW255497   2.356   4.075  13.953
17889SOL     OW55498   7.530   8.388   5.316
17889SOL    HW155499   7.532   8.316   5.379
17889SOL    HW255500   7.461   8.363   5.254
17890SOL     OW55501   3.136   8.564   4.062
17890SOL    HW155502   3.213   8.546   4.008
17890SOL    HW255503   3.168   8.626   4.128
17891SOL     OW55504   8.996   8.622   6.044
17891SOL    HW155505   9.001   8.713   6.015
17891SOL    HW255506   9.070   8.612   6.103
17892SOL     OW55507   2.104   4.512   7.560
17892SOL    HW155508   2.019   4.468   7.556
17892SOL    HW255509   2.161   4.449   7.605
17893SOL     OW55510   3.984   9.617   9.793
17893SOL    HW155511   4.037   9.649   9.866
17893SOL    HW255512   4.029   9.650   9.715
17894SOL     OW55513   7.938  12.579   1.861
17894SOL    HW155514   7.851  12.571   1.901
17894SOL    HW255515   7.963  12.488   1.841
17895SOL     OW55516   9.209   1.789   2.042
17895SOL    HW155517   9.150   1.714   2.050
17895SOL    HW255518   9.296   1.751   2.048
17896SOL     OW55519   3.073   5.514  14.672
17896SOL    HW155520   3.157   5.532  14.628
17896SOL    HW255521   3.009   5.510  14.601
17897SOL     OW55522   5.699   8.764  11.371
17897SOL    HW155523   5.714   8.785  11.279
17897SOL    HW255524   5.604   8.750  11.378
17898SOL     OW55525   0.545   5.753   6.601
17898SOL    HW155526   0.463   5.708   6.623
17898SOL    HW255527   0.580   5.781   6.685
17899SOL     OW55528   5.899  11.065   7.364
17899SOL    HW155529   5.977  11.095   7.317
17899SOL    HW255530   5.858  11.002   7.305
17900SOL     OW55531   0.662   5.074   3.104
17900SOL    HW155532   0.570   5.097   3.091
17900SOL    HW255533   0.710   5.151   3.073
17901SOL     OW55534   5.683  10.524   6.329
17901SOL    HW155535   5.611  10.462   6.340
17901SOL    HW255536   5.749  10.497   6.393
17902SOL     OW55537   4.516  13.729  14.386
17902SOL    HW155538   4.534  13.686  14.302
17902SOL    HW255539   4.530  13.822  14.369
17903SOL     OW55540   4.286   0.250  12.719
17903SOL    HW155541   4.243   0.175  12.679
17903SOL    HW255542   4.283   0.233  12.813
17904SOL     OW55543   8.683   5.709   1.942
17904SOL    HW155544   8.614   5.775   1.940
17904SOL    HW255545   8.738   5.733   2.017
17905SOL     OW55546  13.279  13.945   6.349
17905SOL    HW155547  13.196  13.926   6.391
17905SOL    HW255548  13.283  13.884   6.275
17906SOL     OW55549  13.078   8.898   2.902
17906SOL    HW155550  13.144   8.891   2.832
17906SOL    HW255551  13.079   8.991   2.926
17907SOL     OW55552   4.845  14.495   7.865
17907SOL    HW155553   4.897  14.441   7.806
17907SOL    HW255554   4.776  14.436   7.897
17908SOL     OW55555   5.379   9.726   1.041
17908SOL    HW155556   5.436   9.691   0.973
17908SOL    HW255557   5.437   9.778   1.097
17909SOL     OW55558   1.288   3.906   8.751
17909SOL    HW155559   1.225   3.838   8.727
17909SOL    HW255560   1.274   3.976   8.687
17910SOL     OW55561   1.349   6.967   5.686
17910SOL    HW155562   1.441   6.993   5.691
17910SOL    HW255563   1.329   6.934   5.773
17911SOL     OW55564   6.591  10.916   2.680
17911SOL    HW155565   6.617  10.929   2.589
17911SOL    HW255566   6.665  10.948   2.731
17912SOL     OW55567  10.016   9.073   1.330
17912SOL    HW155568  10.044   9.047   1.418
17912SOL    HW255569   9.995   9.166   1.338
17913SOL     OW55570  10.339   5.993   1.315
17913SOL    HW155571  10.423   5.948   1.312
17913SOL    HW255572  10.357   6.080   1.278
17914SOL     OW55573  13.864   8.839   1.247
17914SOL    HW155574  13.786   8.787   1.267
17914SOL    HW255575  13.833   8.907   1.188
17915SOL     OW55576   1.761   9.606  11.556
17915SOL    HW155577   1.719   9.593  11.641
17915SOL    HW255578   1.699   9.567  11.493
17916SOL     OW55579  12.253   8.859   6.410
17916SOL    HW155580  12.268   8.950   6.437
17916SOL    HW255581  12.338   8.829   6.380
17917SOL     OW55582  12.394   0.227   9.007
17917SOL    HW155583  12.454   0.167   9.051
17917SOL    HW255584  12.306   0.195   9.030
17918SOL     OW55585  12.150   3.846  11.748
17918SOL    HW155586  12.131   3.859  11.841
17918SOL    HW255587  12.159   3.935  11.714
17919SOL     OW55588  14.096   8.308   9.446
17919SOL    HW155589  14.115   8.284   9.537
17919SOL    HW255590  14.017   8.362   9.452
17920SOL     OW55591  13.831   5.763  13.833
17920SOL    HW155592  13.893   5.800  13.769
17920SOL    HW255593  13.769   5.834  13.849
17921SOL     OW55594   5.244   1.216  13.051
17921SOL    HW155595   5.200   1.170  12.980
17921SOL    HW255596   5.173   1.262  13.097
17922SOL     OW55597   9.722   3.194   7.971
17922SOL    HW155598   9.672   3.158   7.897
17922SOL    HW255599   9.807   3.149   7.966
17923SOL     OW55600  12.574   0.765   6.403
17923SOL    HW155601  12.505   0.807   6.455
17923SOL    HW255602  12.655   0.808   6.431
17924SOL     OW55603   2.408   7.212  14.863
17924SOL    HW155604   2.417   7.214   0.082
17924SOL    HW255605   2.380   7.301  14.839
17925SOL     OW55606   6.573   6.328   7.622
17925SOL    HW155607   6.580   6.418   7.591
17925SOL    HW255608   6.478   6.314   7.632
17926SOL     OW55609   4.179  12.940   0.810
17926SOL    HW155610   4.255  12.977   0.853
17926SOL    HW255611   4.112  12.935   0.879
17927SOL     OW55612   4.985   1.383   9.000
17927SOL    HW155613   5.044   1.364   9.073
17927SOL    HW255614   4.898   1.357   9.032
17928SOL     OW55615   0.832   9.280  10.736
17928SOL    HW155616   0.780   9.354  10.706
17928SOL    HW255617   0.790   9.203  10.696
17929SOL     OW55618   8.817   3.497  12.963
17929SOL    HW155619   8.912   3.496  12.972
17929SOL    HW255620   8.801   3.464  12.874
17930SOL     OW55621   6.069   0.559  12.987
17930SOL    HW155622   6.147   0.504  12.995
17930SOL    HW255623   6.099   0.636  12.938
17931SOL     OW55624  14.156   1.432  10.834
17931SOL    HW155625  14.134   1.354  10.885
17931SOL    HW255626  14.241   1.459  10.868
17932SOL     OW55627   4.285   2.842   8.206
17932SOL    HW155628   4.321   2.787   8.135
17932SOL    HW255629   4.361   2.892   8.237
17933SOL     OW55630   2.594  14.146   9.906
17933SOL    HW155631   2.672  14.161   9.854
17933SOL    HW255632   2.626  14.124   9.994
17934SOL     OW55633   4.935   2.870   8.424
17934SOL    HW155634   4.950   2.848   8.332
17934SOL    HW255635   5.010   2.832   8.470
17935SOL     OW55636   0.265  14.009   2.395
17935SOL    HW155637   0.236  13.997   2.486
17935SOL    HW255638   0.360  14.005   2.400
17936SOL     OW55639  14.444   9.923   6.897
17936SOL    HW155640  14.435   9.965   6.983
17936SOL    HW255641  14.400   9.839   6.907
17937SOL     OW55642   3.784   8.042  11.933
17937SOL    HW155643   3.690   8.055  11.943
17937SOL    HW255644   3.805   7.970  11.993
17938SOL     OW55645   8.008   8.262  10.297
17938SOL    HW155646   8.083   8.320  10.294
17938SOL    HW255647   7.964   8.273  10.213
17939SOL     OW55648   3.063  13.992   8.752
17939SOL    HW155649   3.047  14.050   8.827
17939SOL    HW255650   3.153  13.962   8.764
17940SOL     OW55651   4.284   8.116  10.877
17940SOL    HW155652   4.300   8.209  10.859
17940SOL    HW255653   4.189   8.106  10.868
17941SOL     OW55654   1.115   4.680  11.063
17941SOL    HW155655   1.134   4.660  10.971
17941SOL    HW255656   1.027   4.643  11.077
17942SOL     OW55657   5.138   9.745   7.236
17942SOL    HW155658   5.139   9.676   7.170
17942SOL    HW255659   5.121   9.825   7.186
17943SOL     OW55660   4.967  11.677  10.071
17943SOL    HW155661   4.957  11.614  10.143
17943SOL    HW255662   4.979  11.622   9.993
17944SOL     OW55663   0.131  13.510   3.182
17944SOL    HW155664   0.051  13.558   3.159
17944SOL    HW255665   0.173  13.564   3.249
17945SOL     OW55666   8.807   4.684   6.504
17945SOL    HW155667   8.787   4.714   6.416
17945SOL    HW255668   8.779   4.755   6.561
17946SOL     OW55669   0.121  12.261  11.281
17946SOL    HW155670   0.137  12.174  11.316
17946SOL    HW255671   0.051  12.297  11.337
17947SOL     OW55672   1.691  12.986   1.665
17947SOL    HW155673   1.780  13.016   1.678
17947SOL    HW255674   1.699  12.904   1.616
17948SOL     OW55675   0.641   5.400   3.083
17948SOL    HW155676   0.718   5.455   3.072
17948SOL    HW255677   0.650   5.363   3.172
17949SOL     OW55678   4.301   5.085   5.768
17949SOL    HW155679   4.212   5.111   5.792
17949SOL    HW255680   4.333   5.155   5.712
17950SOL     OW55681   9.196  13.212  10.110
17950SOL    HW155682   9.102  13.201  10.097
17950SOL    HW255683   9.235  13.191  10.025
17951SOL     OW55684   2.234   4.360   7.730
17951SOL    HW155685   2.178   4.308   7.788
17951SOL    HW255686   2.269   4.429   7.786
17952SOL     OW55687  12.280  14.624   0.600
17952SOL    HW155688  12.189  14.638   0.629
17952SOL    HW255689  12.326  14.703   0.629
17953SOL     OW55690   2.331  14.485  10.345
17953SOL    HW155691   2.310  14.392  10.346
17953SOL    HW255692   2.418  14.489  10.305
17954SOL     OW55693   2.092  12.256  13.555
17954SOL    HW155694   2.012  12.208  13.576
17954SOL    HW255695   2.155  12.231  13.623
17955SOL     OW55696  13.846   1.317   8.616
17955SOL    HW155697  13.869   1.401   8.657
17955SOL    HW255698  13.823   1.340   8.526
17956SOL     OW55699   4.410   2.236   5.008
17956SOL    HW155700   4.354   2.312   5.027
17956SOL    HW255701   4.365   2.188   4.940
17957SOL     OW55702  13.584   3.766   5.778
17957SOL    HW155703  13.670   3.735   5.805
17957SOL    HW255704  13.601   3.832   5.711
17958SOL     OW55705   2.148  14.244   0.701
17958SOL    HW155706   2.143  14.330   0.743
17958SOL    HW255707   2.152  14.182   0.773
17959SOL     OW55708  12.610   1.280  12.441
17959SOL    HW155709  12.520   1.269  12.410
17959SOL    HW255710  12.652   1.196  12.423
17960SOL     OW55711  13.585  12.466   7.710
17960SOL    HW155712  13.523  12.444   7.640
17960SOL    HW255713  13.529  12.491   7.784
17961SOL     OW55714   1.511   7.740   9.518
17961SOL    HW155715   1.600   7.772   9.504
17961SOL    HW255716   1.523   7.647   9.541
17962SOL     OW55717   5.056   2.459   9.991
17962SOL    HW155718   5.128   2.517  10.017
17962SOL    HW255719   4.981   2.517   9.981
17963SOL     OW55720   8.478  10.279   2.822
17963SOL    HW155721   8.534  10.262   2.746
17963SOL    HW255722   8.507  10.364   2.855
17964SOL     OW55723  11.537   5.551   8.621
17964SOL    HW155724  11.631   5.532   8.614
17964SOL    HW255725  11.496   5.466   8.630
17965SOL     OW55726  14.867  14.727   3.172
17965SOL    HW155727   0.012  14.803   3.118
17965SOL    HW255728  14.818  14.762   3.246
17966SOL     OW55729   4.897   8.333   4.165
17966SOL    HW155730   4.831   8.399   4.186
17966SOL    HW255731   4.917   8.348   4.072
17967SOL     OW55732   1.791   5.946   5.799
17967SOL    HW155733   1.755   5.885   5.864
17967SOL    HW255734   1.879   5.912   5.781
17968SOL     OW55735  13.689   4.213   7.705
17968SOL    HW155736  13.765   4.252   7.749
17968SOL    HW255737  13.655   4.283   7.648
17969SOL     OW55738   8.336   4.874   0.141
17969SOL    HW155739   8.256   4.839   0.103
17969SOL    HW255740   8.394   4.799   0.151
17970SOL     OW55741  13.874   7.526   1.195
17970SOL    HW155742  13.918   7.481   1.267
17970SOL    HW255743  13.940   7.586   1.161
17971SOL     OW55744  14.472   6.061  11.364
17971SOL    HW155745  14.387   6.030  11.396
17971SOL    HW255746  14.463   6.060  11.268
17972SOL     OW55747   8.546   8.452   4.695
17972SOL    HW155748   8.522   8.544   4.681
17972SOL    HW255749   8.641   8.453   4.702
17973SOL     OW55750   9.380   7.469   1.908
17973SOL    HW155751   9.450   7.507   1.855
17973SOL    HW255752   9.418   7.462   1.995
17974SOL     OW55753  11.825   4.424  14.673
17974SOL    HW155754  11.854   4.493  14.613
17974SOL    HW255755  11.906   4.391  14.711
17975SOL     OW55756   7.516   5.665  10.109
17975SOL    HW155757   7.553   5.752  10.099
17975SOL    HW255758   7.430   5.670  10.070
17976SOL     OW55759   1.102   9.303  14.047
17976SOL    HW155760   1.176   9.341  14.094
17976SOL    HW255761   1.076   9.372  13.985
17977SOL     OW55762   9.192   0.112   6.893
17977SOL    HW155763   9.237   0.030   6.872
17977SOL    HW255764   9.189   0.114   6.989
17978SOL     OW55765   1.026   2.223   9.826
17978SOL    HW155766   1.043   2.309   9.865
17978SOL    HW255767   0.944   2.194   9.865
17979SOL     OW55768   3.502   5.062   2.654
17979SOL    HW155769   3.440   5.042   2.724
17979SOL    HW255770   3.559   5.129   2.690
17980SOL     OW55771   8.315   9.198   4.385
17980SOL    HW155772   8.280   9.151   4.460
17980SOL    HW255773   8.238   9.237   4.343
17981SOL     OW55774  13.495   3.092   6.701
17981SOL    HW155775  13.405   3.106   6.671
17981SOL    HW255776  13.491   3.101   6.796
17982SOL     OW55777  10.061  11.327   2.226
17982SOL    HW155778  10.014  11.273   2.290
17982SOL    HW255779   9.992  11.375   2.180
17983SOL     OW55780   3.519   1.629  10.697
17983SOL    HW155781   3.445   1.571  10.710
17983SOL    HW255782   3.509   1.697  10.763
17984SOL     OW55783  12.845   1.346   9.900
17984SOL    HW155784  12.762   1.377   9.936
17984SOL    HW255785  12.911   1.379   9.961
17985SOL     OW55786   6.408   6.393  14.263
17985SOL    HW155787   6.461   6.375  14.185
17985SOL    HW255788   6.358   6.470  14.241
17986SOL     OW55789   7.691   8.808   5.868
17986SOL    HW155790   7.675   8.720   5.903
17986SOL    HW255791   7.748   8.850   5.933
17987SOL     OW55792   2.170   1.680   4.121
17987SOL    HW155793   2.169   1.775   4.131
17987SOL    HW255794   2.129   1.665   4.035
17988SOL     OW55795   0.173   8.523  12.250
17988SOL    HW155796   0.254   8.570  12.232
17988SOL    HW255797   0.201   8.443  12.294
17989SOL     OW55798  10.961   9.026   9.927
17989SOL    HW155799  11.032   9.070   9.973
17989SOL    HW255800  10.980   8.933   9.936
17990SOL     OW55801  10.286   7.468   9.332
17990SOL    HW155802  10.282   7.519   9.251
17990SOL    HW255803  10.288   7.533   9.402
17991SOL     OW55804   9.250   0.984   7.564
17991SOL    HW155805   9.193   1.046   7.608
17991SOL    HW255806   9.191   0.927   7.515
17992SOL     OW55807   3.523   1.594  13.175
17992SOL    HW155808   3.602   1.643  13.197
17992SOL    HW255809   3.543   1.553  13.090
17993SOL     OW55810   5.197   2.837   3.137
17993SOL    HW155811   5.283   2.841   3.095
17993SOL    HW255812   5.157   2.758   3.102
17994SOL     OW55813   4.043   0.580   6.851
17994SOL    HW155814   3.958   0.623   6.844
17994SOL    HW255815   4.042   0.512   6.785
17995SOL     OW55816   4.407   4.082   1.564
17995SOL    HW155817   4.488   4.032   1.575
17995SOL    HW255818   4.349   4.023   1.517
17996SOL     OW55819   4.655  12.350  13.468
17996SOL    HW155820   4.634  12.419  13.405
17996SOL    HW255821   4.726  12.387  13.521
17997SOL     OW55822   2.590   9.759  12.971
17997SOL    HW155823   2.509   9.759  12.920
17997SOL    HW255824   2.647   9.821  12.926
17998SOL     OW55825  14.799   9.078  14.087
17998SOL    HW155826  14.798   8.989  14.052
17998SOL    HW255827  14.729   9.123  14.039
17999SOL     OW55828  12.003   7.189   8.568
17999SOL    HW155829  11.942   7.116   8.566
17999SOL    HW255830  12.077   7.157   8.619
18000SOL     OW55831  13.657  12.219  12.244
18000SOL    HW155832  13.643  12.217  12.150
18000SOL    HW255833  13.585  12.168  12.281
18001SOL     OW55834   8.392   0.004   1.078
18001SOL    HW155835   8.367   0.059   1.004
18001SOL    HW255836   8.349  14.796   1.061
18002SOL     OW55837   1.673   6.845  10.024
18002SOL    HW155838   1.591   6.814  10.063
18002SOL    HW255839   1.652   6.933   9.991
18003SOL     OW55840  12.838   8.235  11.680
18003SOL    HW155841  12.770   8.194  11.733
18003SOL    HW255842  12.889   8.162  11.645
18004SOL     OW55843   2.416  12.336   4.429
18004SOL    HW155844   2.388  12.287   4.352
18004SOL    HW255845   2.356  12.308   4.498
18005SOL     OW55846  14.606   9.567   2.736
18005SOL    HW155847  14.610   9.656   2.702
18005SOL    HW255848  14.533   9.527   2.689
18006SOL     OW55849   2.529  13.893   6.628
18006SOL    HW155850   2.564  13.977   6.596
18006SOL    HW255851   2.449  13.917   6.674
18007SOL     OW55852   0.259   0.349   8.981
18007SOL    HW155853   0.253   0.292   8.904
18007SOL    HW255854   0.303   0.428   8.950
18008SOL     OW55855   4.093   8.077  14.792
18008SOL    HW155856   4.153   8.056  14.720
18008SOL    HW255857   4.090   8.173  14.794
18009SOL     OW55858   9.844   7.749  10.597
18009SOL    HW155859   9.749   7.756  10.608
18009SOL    HW255860   9.873   7.698  10.673
18010SOL     OW55861   4.823   5.975   7.627
18010SOL    HW155862   4.751   6.033   7.602
18010SOL    HW255863   4.874   6.027   7.690
18011SOL     OW55864  13.552   9.944  12.137
18011SOL    HW155865  13.493   9.980  12.071
18011SOL    HW255866  13.519   9.856  12.153
18012SOL     OW55867   2.586   0.690   1.120
18012SOL    HW155868   2.558   0.600   1.105
18012SOL    HW255869   2.656   0.705   1.057
18013SOL     OW55870   5.396   4.882   3.569
18013SOL    HW155871   5.455   4.878   3.494
18013SOL    HW255872   5.449   4.922   3.639
18014SOL     OW55873   7.318  12.033   1.772
18014SOL    HW155874   7.294  12.035   1.679
18014SOL    HW255875   7.375  11.957   1.781
18015SOL     OW55876   4.969   1.952  11.152
18015SOL    HW155877   5.016   1.874  11.122
18015SOL    HW255878   4.923   1.984  11.075
18016SOL     OW55879   0.621   0.647  11.022
18016SOL    HW155880   0.616   0.564  11.070
18016SOL    HW255881   0.707   0.645  10.980
18017SOL     OW55882   9.557   3.871   3.041
18017SOL    HW155883   9.598   3.923   2.972
18017SOL    HW255884   9.516   3.798   2.994
18018SOL     OW55885   9.994   4.725  10.459
18018SOL    HW155886   9.981   4.630  10.462
18018SOL    HW255887  10.059   4.743  10.527
18019SOL     OW55888   7.582  14.197  12.626
18019SOL    HW155889   7.634  14.186  12.546
18019SOL    HW255890   7.551  14.108  12.646
18020SOL     OW55891  14.627   0.552   1.232
18020SOL    HW155892  14.593   0.621   1.176
18020SOL    HW255893  14.555   0.489   1.239
18021SOL     OW55894   5.360   7.997   3.736
18021SOL    HW155895   5.305   7.967   3.663
18021SOL    HW255896   5.446   7.960   3.717
18022SOL     OW55897  10.646   2.688   5.707
18022SOL    HW155898  10.703   2.698   5.631
18022SOL    HW255899  10.564   2.655   5.672
18023SOL     OW55900   6.467   7.878   2.634
18023SOL    HW155901   6.372   7.869   2.627
18023SOL    HW255902   6.481   7.935   2.710
18024SOL     OW55903   2.608   2.385  12.406
18024SOL    HW155904   2.688   2.332  12.413
18024SOL    HW255905   2.610   2.419  12.317
18025SOL     OW55906   5.043  13.454   5.059
18025SOL    HW155907   5.019  13.361   5.055
18025SOL    HW255908   5.031  13.486   4.969
18026SOL     OW55909   5.088  11.870  10.217
18026SOL    HW155910   5.005  11.908  10.244
18026SOL    HW255911   5.067  11.818  10.140
18027SOL     OW55912  11.962   6.334   0.420
18027SOL    HW155913  11.989   6.425   0.433
18027SOL    HW255914  11.867   6.337   0.418
18028SOL     OW55915  10.000   1.188  14.272
18028SOL    HW155916  10.036   1.171  14.359
18028SOL    HW255917   9.907   1.169  14.280
18029SOL     OW55918  13.532  11.720   8.458
18029SOL    HW155919  13.517  11.797   8.405
18029SOL    HW255920  13.474  11.653   8.421
18030SOL     OW55921   1.870  13.143   6.800
18030SOL    HW155922   1.806  13.087   6.845
18030SOL    HW255923   1.952  13.126   6.846
18031SOL     OW55924   0.764   2.581   9.766
18031SOL    HW155925   0.751   2.497   9.809
18031SOL    HW255926   0.812   2.634   9.830
18032SOL     OW55927   5.826   8.256   2.259
18032SOL    HW155928   5.918   8.236   2.242
18032SOL    HW255929   5.779   8.175   2.239
18033SOL     OW55930   1.022   9.211  13.197
18033SOL    HW155931   1.030   9.241  13.106
18033SOL    HW255932   1.078   9.271  13.246
18034SOL     OW55933   1.952  12.936  12.008
18034SOL    HW155934   1.948  12.846  11.975
18034SOL    HW255935   2.036  12.969  11.975
18035SOL     OW55936  11.150   6.462  12.835
18035SOL    HW155937  11.123   6.381  12.791
18035SOL    HW255938  11.074   6.519  12.830
18036SOL     OW55939  14.474   8.179  14.330
18036SOL    HW155940  14.440   8.110  14.274
18036SOL    HW255941  14.544   8.219  14.279
18037SOL     OW55942   2.014   8.024  14.685
18037SOL    HW155943   2.110   8.027  14.687
18037SOL    HW255944   1.992   7.932  14.697
18038SOL     OW55945  12.503   1.704   7.669
18038SOL    HW155946  12.521   1.702   7.763
18038SOL    HW255947  12.450   1.626   7.653
18039SOL     OW55948   3.940   0.795   9.665
18039SOL    HW155949   3.994   0.729   9.622
18039SOL    HW255950   3.964   0.878   9.623
18040SOL     OW55951   4.790   6.995  11.471
18040SOL    HW155952   4.802   7.089  11.460
18040SOL    HW255953   4.857   6.955  11.416
18041SOL     OW55954  13.893  13.583  12.569
18041SOL    HW155955  13.928  13.652  12.625
18041SOL    HW255956  13.949  13.584  12.491
18042SOL     OW55957  10.892   6.401   3.622
18042SOL    HW155958  10.946   6.334   3.663
18042SOL    HW255959  10.856   6.359   3.544
18043SOL     OW55960   1.359   9.637   8.449
18043SOL    HW155961   1.427   9.699   8.422
18043SOL    HW255962   1.297   9.689   8.500
18044SOL     OW55963  12.387   7.489  13.556
18044SOL    HW155964  12.373   7.582  13.575
18044SOL    HW255965  12.470   7.468  13.599
18045SOL     OW55966  11.083   0.196   1.105
18045SOL    HW155967  11.144   0.126   1.083
18045SOL    HW255968  11.082   0.197   1.201
18046SOL     OW55969  12.647   1.653   7.101
18046SOL    HW155970  12.665   1.604   7.182
18046SOL    HW255971  12.555   1.634   7.082
18047SOL     OW55972   5.558   5.931   1.310
18047SOL    HW155973   5.637   5.981   1.293
18047SOL    HW255974   5.589   5.847   1.344
18048SOL     OW55975  11.599   6.747  10.068
18048SOL    HW155976  11.554   6.671  10.105
18048SOL    HW255977  11.530   6.801  10.031
18049SOL     OW55978   2.496   0.470   5.815
18049SOL    HW155979   2.471   0.553   5.774
18049SOL    HW255980   2.448   0.468   5.898
18050SOL     OW55981  14.786  11.133  11.545
18050SOL    HW155982  14.837  11.183  11.481
18050SOL    HW255983  14.847  11.067  11.578
18051SOL     OW55984   6.145   9.235   5.496
18051SOL    HW155985   6.209   9.178   5.539
18051SOL    HW255986   6.093   9.176   5.442
18052SOL     OW55987   0.863   0.165  14.639
18052SOL    HW155988   0.955   0.160  14.665
18052SOL    HW255989   0.820   0.095  14.688
18053SOL     OW55990   4.643  11.004   3.190
18053SOL    HW155991   4.566  10.951   3.169
18053SOL    HW255992   4.687  11.017   3.106
18054SOL     OW55993   7.720   3.761   2.737
18054SOL    HW155994   7.666   3.695   2.694
18054SOL    HW255995   7.661   3.803   2.799
18055SOL     OW55996   8.880   2.922   9.460
18055SOL    HW155997   8.909   2.974   9.385
18055SOL    HW255998   8.801   2.966   9.490
18056SOL     OW55999  14.193  12.807   1.295
18056SOL    HW156000  14.192  12.820   1.390
18056SOL    HW256001  14.268  12.859   1.265
18057SOL     OW56002  11.523  12.924  11.376
18057SOL    HW156003  11.541  12.942  11.284
18057SOL    HW256004  11.432  12.896  11.378
18058SOL     OW56005   1.398   7.826  14.344
18058SOL    HW156006   1.331   7.894  14.341
18058SOL    HW256007   1.471   7.861  14.293
18059SOL     OW56008   7.424   7.910  12.907
18059SOL    HW156009   7.371   7.847  12.859
18059SOL    HW256010   7.437   7.870  12.993
18060SOL     OW56011   3.752  14.678   4.232
18060SOL    HW156012   3.679  14.619   4.254
18060SOL    HW256013   3.720  14.765   4.254
18061SOL     OW56014   0.335   3.262   6.475
18061SOL    HW156015   0.249   3.221   6.462
18061SOL    HW256016   0.331   3.300   6.562
18062SOL     OW56017   8.216   2.449   2.143
18062SOL    HW156018   8.227   2.359   2.110
18062SOL    HW256019   8.220   2.503   2.064
18063SOL     OW56020   0.648   0.962  11.324
18063SOL    HW156021   0.595   0.883  11.317
18063SOL    HW256022   0.588   1.029  11.357
18064SOL     OW56023   2.620  11.777   1.368
18064SOL    HW156024   2.684  11.724   1.322
18064SOL    HW256025   2.648  11.868   1.352
18065SOL     OW56026  11.302   3.504  11.058
18065SOL    HW156027  11.319   3.591  11.022
18065SOL    HW256028  11.366   3.447  11.015
18066SOL     OW56029   2.514   6.011  13.806
18066SOL    HW156030   2.484   5.939  13.752
18066SOL    HW256031   2.538   6.080  13.743
18067SOL     OW56032   6.769   7.517  11.197
18067SOL    HW156033   6.773   7.424  11.219
18067SOL    HW256034   6.676   7.539  11.202
18068SOL     OW56035  11.800   7.468   9.257
18068SOL    HW156036  11.844   7.518   9.325
18068SOL    HW256037  11.843   7.383   9.258
18069SOL     OW56038   0.139   3.644   0.492
18069SOL    HW156039   0.140   3.655   0.587
18069SOL    HW256040   0.183   3.560   0.477
18070SOL     OW56041   1.630   3.717   7.921
18070SOL    HW156042   1.599   3.661   7.992
18070SOL    HW256043   1.572   3.697   7.848
18071SOL     OW56044   8.394  11.282   6.561
18071SOL    HW156045   8.365  11.332   6.485
18071SOL    HW256046   8.476  11.242   6.534
18072SOL     OW56047   7.026   1.958   0.431
18072SOL    HW156048   7.028   1.869   0.468
18072SOL    HW256049   7.072   1.951   0.348
18073SOL     OW56050  11.431   4.455   9.466
18073SOL    HW156051  11.412   4.542   9.430
18073SOL    HW256052  11.460   4.404   9.390
18074SOL     OW56053  13.743   6.557   7.653
18074SOL    HW156054  13.757   6.551   7.558
18074SOL    HW256055  13.673   6.494   7.671
18075SOL     OW56056   2.323   1.267   4.384
18075SOL    HW156057   2.297   1.177   4.404
18075SOL    HW256058   2.308   1.276   4.290
18076SOL     OW56059   8.215   1.574   9.247
18076SOL    HW156060   8.253   1.505   9.193
18076SOL    HW256061   8.131   1.539   9.276
18077SOL     OW56062   9.547  14.830   7.033
18077SOL    HW156063   9.524   0.010   6.959
18077SOL    HW256064   9.467  14.825   7.085
18078SOL     OW56065   3.634   3.102   1.973
18078SOL    HW156066   3.603   3.167   1.910
18078SOL    HW256067   3.555   3.069   2.016
18079SOL     OW56068   0.876   0.459  11.982
18079SOL    HW156069   0.805   0.524  11.976
18079SOL    HW256070   0.923   0.484  12.062
18080SOL     OW56071   9.242   9.292  11.105
18080SOL    HW156072   9.271   9.265  11.192
18080SOL    HW256073   9.149   9.310  11.116
18081SOL     OW56074  11.989   4.126  12.186
18081SOL    HW156075  12.045   4.114  12.263
18081SOL    HW256076  11.950   4.213  12.197
18082SOL     OW56077  12.323   7.899  12.286
18082SOL    HW156078  12.262   7.970  12.304
18082SOL    HW256079  12.268   7.821  12.281
18083SOL     OW56080   0.810   0.832  14.519
18083SOL    HW156081   0.788   0.869  14.604
18083SOL    HW256082   0.727   0.799  14.485
18084SOL     OW56083   6.542   9.385   4.882
18084SOL    HW156084   6.552   9.473   4.847
18084SOL    HW256085   6.474   9.345   4.828
18085SOL     OW56086   0.989   7.763   3.457
18085SOL    HW156087   1.057   7.773   3.524
18085SOL    HW256088   1.030   7.794   3.377
18086SOL     OW56089   8.717   6.221   4.145
18086SOL    HW156090   8.712   6.317   4.151
18086SOL    HW256091   8.636   6.196   4.101
18087SOL     OW56092  14.060  12.776  13.472
18087SOL    HW156093  14.065  12.867  13.500
18087SOL    HW256094  13.990  12.774  13.408
18088SOL     OW56095  12.612   3.913   0.952
18088SOL    HW156096  12.527   3.874   0.973
18088SOL    HW256097  12.591   3.989   0.899
18089SOL     OW56098   6.773   6.535  11.328
18089SOL    HW156099   6.735   6.595  11.392
18089SOL    HW256100   6.807   6.593  11.259
18090SOL     OW56101   4.174  13.045   4.728
18090SOL    HW156102   4.203  12.957   4.749
18090SOL    HW256103   4.103  13.033   4.665
18091SOL     OW56104   2.906  13.559   5.087
18091SOL    HW156105   2.856  13.548   5.168
18091SOL    HW256106   2.986  13.603   5.113
18092SOL     OW56107   9.828   3.423   7.791
18092SOL    HW156108   9.861   3.381   7.870
18092SOL    HW256109   9.750   3.470   7.819
18093SOL     OW56110   4.053   1.372   2.429
18093SOL    HW156111   3.989   1.441   2.444
18093SOL    HW256112   4.113   1.409   2.363
18094SOL     OW56113   5.002   3.944  10.276
18094SOL    HW156114   4.991   3.919  10.184
18094SOL    HW256115   4.919   3.986  10.300
18095SOL     OW56116   1.918   1.214   1.959
18095SOL    HW156117   1.866   1.294   1.957
18095SOL    HW256118   1.875   1.159   2.024
18096SOL     OW56119   2.106  13.608   5.009
18096SOL    HW156120   2.012  13.597   5.020
18096SOL    HW256121   2.139  13.519   4.995
18097SOL     OW56122   5.547   3.184   5.654
18097SOL    HW156123   5.488   3.255   5.628
18097SOL    HW256124   5.493   3.105   5.647
18098SOL     OW56125  11.447   3.102   9.532
18098SOL    HW156126  11.473   3.168   9.468
18098SOL    HW256127  11.392   3.149   9.595
18099SOL     OW56128   0.829   9.132   1.641
18099SOL    HW156129   0.833   9.114   1.547
18099SOL    HW256130   0.882   9.064   1.682
18100SOL     OW56131  10.931  12.569   2.508
18100SOL    HW156132  10.850  12.613   2.535
18100SOL    HW256133  10.968  12.626   2.441
18101SOL     OW56134   7.945   4.001  12.163
18101SOL    HW156135   7.938   4.088  12.124
18101SOL    HW256136   7.870   3.997  12.224
18102SOL     OW56137  14.144   9.057   9.536
18102SOL    HW156138  14.136   9.049   9.441
18102SOL    HW256139  14.237   9.043   9.554
18103SOL     OW56140   5.105   3.735  14.829
18103SOL    HW156141   5.195   3.756  14.856
18103SOL    HW256142   5.052   3.804  14.869
18104SOL     OW56143  13.694   2.005  12.290
18104SOL    HW156144  13.626   2.067  12.263
18104SOL    HW256145  13.701   1.944  12.217
18105SOL     OW56146  13.235   6.192   1.954
18105SOL    HW156147  13.178   6.253   2.002
18105SOL    HW256148  13.302   6.166   2.017
18106SOL     OW56149  10.454   8.938   3.871
18106SOL    HW156150  10.457   9.029   3.842
18106SOL    HW256151  10.440   8.887   3.791
18107SOL     OW56152   9.656   3.961  14.101
18107SOL    HW156153   9.613   3.949  14.016
18107SOL    HW256154   9.613   4.037  14.139
18108SOL     OW56155   6.940   3.367   1.929
18108SOL    HW156156   6.968   3.444   1.881
18108SOL    HW256157   6.884   3.402   1.999
18109SOL     OW56158  12.435   1.341   0.695
18109SOL    HW156159  12.364   1.366   0.754
18109SOL    HW256160  12.509   1.323   0.753
18110SOL     OW56161   1.593   1.892  10.215
18110SOL    HW156162   1.627   1.820  10.268
18110SOL    HW256163   1.609   1.865  10.124
18111SOL     OW56164   5.262   0.213   4.107
18111SOL    HW156165   5.190   0.225   4.169
18111SOL    HW256166   5.340   0.205   4.161
18112SOL     OW56167  10.437   6.903   9.068
18112SOL    HW156168  10.349   6.867   9.079
18112SOL    HW256169  10.487   6.832   9.028
18113SOL     OW56170   9.309   8.267   3.672
18113SOL    HW156171   9.354   8.274   3.756
18113SOL    HW256172   9.257   8.186   3.680
18114SOL     OW56173   8.153   2.280   4.315
18114SOL    HW156174   8.076   2.229   4.337
18114SOL    HW256175   8.184   2.315   4.398
18115SOL     OW56176   7.563  13.961   6.351
18115SOL    HW156177   7.517  13.882   6.322
18115SOL    HW256178   7.503  14.033   6.333
18116SOL     OW56179   6.935  12.861   7.061
18116SOL    HW156180   6.991  12.799   7.108
18116SOL    HW256181   6.903  12.812   6.985
18117SOL     OW56182  13.106  10.916  13.891
18117SOL    HW156183  13.173  10.980  13.915
18117SOL    HW256184  13.139  10.833  13.924
18118SOL     OW56185   3.720  14.723  11.029
18118SOL    HW156186   3.674  14.800  11.063
18118SOL    HW256187   3.675  14.702  10.947
18119SOL     OW56188   6.867  13.251   1.867
18119SOL    HW156189   6.791  13.206   1.903
18119SOL    HW256190   6.940  13.225   1.923
18120SOL     OW56191  12.844   1.182  13.726
18120SOL    HW156192  12.913   1.248  13.721
18120SOL    HW256193  12.763   1.232  13.724
18121SOL     OW56194  10.869  11.805   9.632
18121SOL    HW156195  10.867  11.877   9.569
18121SOL    HW256196  10.813  11.836   9.704
18122SOL     OW56197  14.568   0.757  10.919
18122SOL    HW156198  14.544   0.800  10.837
18122SOL    HW256199  14.547   0.822  10.986
18123SOL     OW56200  13.123   2.795  13.710
18123SOL    HW156201  13.138   2.860  13.778
18123SOL    HW256202  13.104   2.714  13.757
18124SOL     OW56203   9.078   9.613   5.328
18124SOL    HW156204   9.080   9.679   5.258
18124SOL    HW256205   9.125   9.538   5.291
18125SOL     OW56206   7.449  12.894   3.071
18125SOL    HW156207   7.477  12.823   3.128
18125SOL    HW256208   7.360  12.914   3.100
18126SOL     OW56209   6.737   9.684   2.821
18126SOL    HW156210   6.791   9.727   2.888
18126SOL    HW256211   6.789   9.607   2.795
18127SOL     OW56212   2.986  11.506   0.098
18127SOL    HW156213   2.956  11.483   0.010
18127SOL    HW256214   2.937  11.585   0.120
18128SOL     OW56215   3.058   0.590   2.182
18128SOL    HW156216   3.123   0.659   2.193
18128SOL    HW256217   3.005   0.619   2.108
18129SOL     OW56218   9.851  11.464   1.186
18129SOL    HW156219   9.846  11.493   1.277
18129SOL    HW256220   9.929  11.408   1.182
18130SOL     OW56221   0.127   7.359   8.549
18130SOL    HW156222   0.073   7.429   8.585
18130SOL    HW256223   0.068   7.284   8.543
18131SOL     OW56224   2.545   9.595  11.265
18131SOL    HW156225   2.536   9.538  11.188
18131SOL    HW256226   2.467   9.576  11.317
18132SOL     OW56227   9.819   5.344  13.686
18132SOL    HW156228   9.911   5.328  13.703
18132SOL    HW256229   9.818   5.424  13.633
18133SOL     OW56230   9.871   5.427   9.000
18133SOL    HW156231   9.855   5.355   8.939
18133SOL    HW256232   9.795   5.426   9.059
18134SOL     OW56233  11.340  11.637   4.701
18134SOL    HW156234  11.282  11.688   4.645
18134SOL    HW256235  11.428  11.670   4.680
18135SOL     OW56236  13.437   0.549   3.244
18135SOL    HW156237  13.514   0.569   3.298
18135SOL    HW256238  13.367   0.603   3.283
18136SOL     OW56239   0.004   7.689   3.185
18136SOL    HW156240  14.801   7.720   3.140
18136SOL    HW256241  14.875   7.593   3.179
18137SOL     OW56242  10.895  13.525   5.204
18137SOL    HW156243  10.863  13.612   5.230
18137SOL    HW256244  10.818  13.480   5.169
18138SOL     OW56245   9.915   1.935   9.548
18138SOL    HW156246   9.891   2.003   9.611
18138SOL    HW256247   9.836   1.924   9.494
18139SOL     OW56248   4.520   3.570  14.828
18139SOL    HW156249   4.468   3.548  14.751
18139SOL    HW256250   4.546   3.485  14.864
18140SOL     OW56251   5.664   7.740   4.048
18140SOL    HW156252   5.581   7.721   4.092
18140SOL    HW256253   5.687   7.828   4.079
18141SOL     OW56254   0.435   2.697   8.638
18141SOL    HW156255   0.521   2.666   8.612
18141SOL    HW256256   0.386   2.618   8.659
18142SOL     OW56257   1.478   8.822  13.854
18142SOL    HW156258   1.563   8.797  13.818
18142SOL    HW256259   1.432   8.739  13.868
18143SOL     OW56260   9.957   0.954  13.141
18143SOL    HW156261   9.985   0.871  13.179
18143SOL    HW256262   9.901   0.994  13.208
18144SOL     OW56263  10.411  10.331   2.808
18144SOL    HW156264  10.493  10.349   2.854
18144SOL    HW256265  10.387  10.242   2.836
18145SOL     OW56266   5.697   1.191   8.472
18145SOL    HW156267   5.639   1.243   8.417
18145SOL    HW256268   5.739   1.255   8.530
18146SOL     OW56269   2.364   7.159  14.479
18146SOL    HW156270   2.325   7.078  14.513
18146SOL    HW256271   2.326   7.228  14.533
18147SOL     OW56272   4.923   8.205  14.232
18147SOL    HW156273   4.944   8.125  14.184
18147SOL    HW256274   4.906   8.176  14.321
18148SOL     OW56275  13.181  11.706   4.839
18148SOL    HW156276  13.238  11.769   4.796
18148SOL    HW256277  13.092  11.735   4.817
18149SOL     OW56278  13.779  12.711  10.250
18149SOL    HW156279  13.869  12.701  10.220
18149SOL    HW256280  13.779  12.791  10.301
18150SOL     OW56281   2.242   0.318   6.779
18150SOL    HW156282   2.172   0.296   6.841
18150SOL    HW256283   2.317   0.338   6.835
18151SOL     OW56284   6.093   1.784   5.173
18151SOL    HW156285   6.060   1.699   5.200
18151SOL    HW256286   6.188   1.779   5.188
18152SOL     OW56287   1.462  13.408  12.698
18152SOL    HW156288   1.385  13.354  12.679
18152SOL    HW256289   1.536  13.348  12.686
18153SOL     OW56290  11.712  13.165   8.018
18153SOL    HW156291  11.704  13.080   8.059
18153SOL    HW256292  11.680  13.152   7.929
18154SOL     OW56293  10.174   7.542  14.682
18154SOL    HW156294  10.219   7.485  14.745
18154SOL    HW256295  10.212   7.628  14.697
18155SOL     OW56296  12.358   8.923   5.692
18155SOL    HW156297  12.356   8.914   5.788
18155SOL    HW256298  12.346   8.834   5.660
18156SOL     OW56299   4.706  10.060   7.858
18156SOL    HW156300   4.719   9.965   7.863
18156SOL    HW256301   4.713  10.081   7.765
18157SOL     OW56302   3.476   2.635  10.608
18157SOL    HW156303   3.547   2.687  10.647
18157SOL    HW256304   3.502   2.544  10.623
18158SOL     OW56305  10.133   0.005   3.271
18158SOL    HW156306  10.158  14.822   3.342
18158SOL    HW256307  10.099   0.083   3.315
18159SOL     OW56308   5.122   3.754  14.314
18159SOL    HW156309   5.200   3.803  14.286
18159SOL    HW256310   5.153   3.699  14.386
18160SOL     OW56311  13.472  11.536   5.960
18160SOL    HW156312  13.543  11.579   5.914
18160SOL    HW256313  13.505  11.448   5.979
18161SOL     OW56314  14.709   6.465  12.797
18161SOL    HW156315  14.763   6.483  12.719
18161SOL    HW256316  14.749   6.517  12.866
18162SOL     OW56317   5.003   0.867  11.089
18162SOL    HW156318   5.082   0.853  11.142
18162SOL    HW256319   4.947   0.791  11.107
18163SOL     OW56320   9.750   8.181   9.520
18163SOL    HW156321   9.780   8.141   9.439
18163SOL    HW256322   9.659   8.206   9.503
18164SOL     OW56323   8.192   6.988   2.291
18164SOL    HW156324   8.224   7.066   2.245
18164SOL    HW256325   8.132   6.946   2.229
18165SOL     OW56326  12.058   7.637  11.681
18165SOL    HW156327  11.989   7.574  11.659
18165SOL    HW256328  12.029   7.719  11.641
18166SOL     OW56329   4.456  11.568   5.929
18166SOL    HW156330   4.408  11.490   5.956
18166SOL    HW256331   4.470  11.618   6.010
18167SOL     OW56332   6.349  14.814   9.892
18167SOL    HW156333   6.293  14.827   9.815
18167SOL    HW256334   6.303  14.749   9.944
18168SOL     OW56335  12.587   4.381   7.820
18168SOL    HW156336  12.598   4.293   7.856
18168SOL    HW256337  12.634   4.380   7.737
18169SOL     OW56338   6.882   6.512  11.697
18169SOL    HW156339   6.849   6.595  11.664
18169SOL    HW256340   6.953   6.488  11.637
18170SOL     OW56341   9.203  13.006  12.706
18170SOL    HW156342   9.242  12.928  12.746
18170SOL    HW256343   9.222  12.997  12.612
18171SOL     OW56344  11.459  12.585   4.041
18171SOL    HW156345  11.500  12.661   3.999
18171SOL    HW256346  11.532  12.526   4.060
18172SOL     OW56347   7.672   7.713   8.679
18172SOL    HW156348   7.639   7.625   8.696
18172SOL    HW256349   7.687   7.715   8.584
18173SOL     OW56350  13.479   9.545  10.972
18173SOL    HW156351  13.470   9.505  11.059
18173SOL    HW256352  13.473   9.639  10.988
18174SOL     OW56353  10.076   2.971   4.789
18174SOL    HW156354  10.063   3.002   4.878
18174SOL    HW256355  10.044   3.042   4.734
18175SOL     OW56356   9.567   3.989   3.301
18175SOL    HW156357   9.597   3.958   3.216
18175SOL    HW256358   9.540   4.079   3.285
18176SOL     OW56359  10.873  11.478  11.221
18176SOL    HW156360  10.789  11.514  11.250
18176SOL    HW256361  10.900  11.534  11.149
18177SOL     OW56362   7.197   3.105  13.497
18177SOL    HW156363   7.177   3.198  13.508
18177SOL    HW256364   7.289   3.097  13.520
18178SOL     OW56365  12.830   2.491   4.074
18178SOL    HW156366  12.926   2.492   4.068
18178SOL    HW256367  12.802   2.550   4.005
18179SOL     OW56368  12.696   4.185   8.645
18179SOL    HW156369  12.668   4.276   8.631
18179SOL    HW256370  12.636   4.152   8.711
18180SOL     OW56371   8.885   3.371   3.137
18180SOL    HW156372   8.851   3.298   3.085
18180SOL    HW256373   8.808   3.426   3.153
18181SOL     OW56374   6.079   2.587   7.509
18181SOL    HW156375   6.015   2.530   7.553
18181SOL    HW256376   6.099   2.543   7.427
18182SOL     OW56377   1.243   2.882   0.868
18182SOL    HW156378   1.289   2.947   0.815
18182SOL    HW256379   1.196   2.934   0.933
18183SOL     OW56380  10.878   9.856   2.897
18183SOL    HW156381  10.874   9.789   2.828
18183SOL    HW256382  10.884   9.806   2.979
18184SOL     OW56383  10.931  11.661  13.066
18184SOL    HW156384  10.944  11.746  13.024
18184SOL    HW256385  10.905  11.602  12.995
18185SOL     OW56386   9.048   5.095   3.687
18185SOL    HW156387   9.026   5.066   3.598
18185SOL    HW256388   9.135   5.058   3.704
18186SOL     OW56389   9.956  14.204   9.838
18186SOL    HW156390   9.884  14.265   9.825
18186SOL    HW256391   9.916  14.117   9.831
18187SOL     OW56392   5.926   2.616  12.009
18187SOL    HW156393   5.999   2.649  11.956
18187SOL    HW256394   5.852   2.612  11.949
18188SOL     OW56395   9.577  14.772   8.732
18188SOL    HW156396   9.607  14.703   8.673
18188SOL    HW256397   9.485  14.751   8.749
18189SOL     OW56398   5.263  11.150   6.834
18189SOL    HW156399   5.277  11.064   6.873
18189SOL    HW256400   5.342  11.199   6.857
18190SOL     OW56401  12.734   7.672  12.146
18190SOL    HW156402  12.646   7.689  12.180
18190SOL    HW256403  12.793   7.702  12.215
18191SOL     OW56404   5.205  12.189   2.918
18191SOL    HW156405   5.112  12.207   2.908
18191SOL    HW256406   5.214  12.160   3.009
18192SOL     OW56407   7.065   6.580   0.193
18192SOL    HW156408   6.985   6.534   0.217
18192SOL    HW256409   7.135   6.517   0.207
18193SOL     OW56410  12.243  11.633   4.704
18193SOL    HW156411  12.311  11.607   4.766
18193SOL    HW256412  12.173  11.667   4.760
18194SOL     OW56413   5.528   9.565   1.349
18194SOL    HW156414   5.481   9.564   1.433
18194SOL    HW256415   5.465   9.531   1.286
18195SOL     OW56416   3.694  14.510   8.464
18195SOL    HW156417   3.670  14.548   8.549
18195SOL    HW256418   3.789  14.516   8.461
18196SOL     OW56419  13.369  13.051   9.645
18196SOL    HW156420  13.335  13.036   9.557
18196SOL    HW256421  13.298  13.024   9.703
18197SOL     OW56422   1.986   6.090  10.621
18197SOL    HW156423   1.983   6.111  10.714
18197SOL    HW256424   1.994   6.175  10.577
18198SOL     OW56425   3.988   8.161   5.625
18198SOL    HW156426   3.917   8.132   5.681
18198SOL    HW256427   4.029   8.080   5.594
18199SOL     OW56428  13.131   2.157   3.577
18199SOL    HW156429  13.106   2.236   3.529
18199SOL    HW256430  13.178   2.104   3.513
18200SOL     OW56431  10.992   0.714   3.076
18200SOL    HW156432  10.971   0.801   3.109
18200SOL    HW256433  11.063   0.682   3.133
18201SOL     OW56434   3.917   0.134   6.200
18201SOL    HW156435   3.914   0.075   6.276
18201SOL    HW256436   3.879   0.082   6.129
18202SOL     OW56437   2.791   6.497   1.792
18202SOL    HW156438   2.844   6.528   1.719
18202SOL    HW256439   2.814   6.555   1.865
18203SOL     OW56440   5.075   6.111   1.413
18203SOL    HW156441   5.080   6.171   1.487
18203SOL    HW256442   5.154   6.058   1.420
18204SOL     OW56443   7.884   4.394  10.247
18204SOL    HW156444   7.810   4.335  10.264
18204SOL    HW256445   7.918   4.414  10.334
18205SOL     OW56446   0.767   0.399  14.325
18205SOL    HW156447   0.674   0.405  14.305
18205SOL    HW256448   0.773   0.422  14.418
18206SOL     OW56449   6.070  10.569   2.652
18206SOL    HW156450   6.101  10.565   2.743
18206SOL    HW256451   6.138  10.619   2.606
18207SOL     OW56452   3.664   5.893   9.738
18207SOL    HW156453   3.612   5.908   9.817
18207SOL    HW256454   3.754   5.914   9.765
18208SOL     OW56455  13.148   3.572   1.580
18208SOL    HW156456  13.242   3.557   1.588
18208SOL    HW256457  13.111   3.485   1.571
18209SOL     OW56458   1.601  11.200   3.031
18209SOL    HW156459   1.627  11.171   2.944
18209SOL    HW256460   1.524  11.147   3.053
18210SOL     OW56461   2.959   0.001   0.178
18210SOL    HW156462   3.042   0.021   0.135
18210SOL    HW256463   2.985  14.845   0.265
18211SOL     OW56464   2.383   8.165   5.430
18211SOL    HW156465   2.358   8.093   5.488
18211SOL    HW256466   2.411   8.234   5.489
18212SOL     OW56467   8.213   3.775  12.560
18212SOL    HW156468   8.248   3.845  12.505
18212SOL    HW256469   8.181   3.709  12.498
18213SOL     OW56470   7.593  10.699   9.417
18213SOL    HW156471   7.553  10.619   9.383
18213SOL    HW256472   7.662  10.720   9.353
18214SOL     OW56473  12.230   0.208   3.207
18214SOL    HW156474  12.262   0.119   3.224
18214SOL    HW256475  12.298   0.265   3.240
18215SOL     OW56476   3.835   3.590  10.192
18215SOL    HW156477   3.833   3.543  10.276
18215SOL    HW256478   3.800   3.677  10.212
18216SOL     OW56479   1.253   2.028   6.345
18216SOL    HW156480   1.251   2.093   6.415
18216SOL    HW256481   1.339   2.038   6.304
18217SOL     OW56482   0.085  13.613   9.118
18217SOL    HW156483   0.018  13.633   9.052
18217SOL    HW256484   0.037  13.569   9.188
18218SOL     OW56485   1.585   2.015  13.674
18218SOL    HW156486   1.659   1.958  13.651
18218SOL    HW256487   1.508   1.964  13.652
18219SOL     OW56488   9.655  11.536  10.245
18219SOL    HW156489   9.608  11.473  10.300
18219SOL    HW256490   9.747  11.529  10.273
18220SOL     OW56491   0.443   3.355  11.615
18220SOL    HW156492   0.419   3.345  11.708
18220SOL    HW256493   0.535   3.380  11.617
18221SOL     OW56494   9.166   3.337   7.487
18221SOL    HW156495   9.199   3.408   7.432
18221SOL    HW256496   9.143   3.379   7.570
18222SOL     OW56497   2.705   5.074  11.789
18222SOL    HW156498   2.708   5.165  11.759
18222SOL    HW256499   2.747   5.024  11.719
18223SOL     OW56500   3.068  12.832  14.843
18223SOL    HW156501   3.027  12.889   0.031
18223SOL    HW256502   3.138  12.787   0.016
18224SOL     OW56503   1.609   9.178   0.864
18224SOL    HW156504   1.517   9.194   0.884
18224SOL    HW256505   1.652   9.263   0.877
18225SOL     OW56506   5.859  13.808  12.564
18225SOL    HW156507   5.772  13.837  12.538
18225SOL    HW256508   5.907  13.800  12.482
18226SOL     OW56509   3.688  10.337  10.384
18226SOL    HW156510   3.616  10.384  10.427
18226SOL    HW256511   3.695  10.255  10.433
18227SOL     OW56512   0.724   5.414  13.135
18227SOL    HW156513   0.801   5.380  13.091
18227SOL    HW256514   0.658   5.346  13.125
18228SOL     OW56515   0.070   0.172   9.916
18228SOL    HW156516   0.011   0.162   9.841
18228SOL    HW256517   0.034   0.246   9.965
18229SOL     OW56518   3.565   3.583   8.077
18229SOL    HW156519   3.595   3.565   7.988
18229SOL    HW256520   3.519   3.667   8.070
18230SOL     OW56521   2.873   5.495  12.307
18230SOL    HW156522   2.829   5.416  12.275
18230SOL    HW256523   2.957   5.496  12.262
18231SOL     OW56524  14.345  12.815  10.402
18231SOL    HW156525  14.417  12.756  10.425
18231SOL    HW256526  14.370  12.850  10.317
18232SOL     OW56527  11.364   9.626  13.039
18232SOL    HW156528  11.437   9.624  12.977
18232SOL    HW256529  11.302   9.560  13.006
18233SOL     OW56530  14.333   8.739   2.650
18233SOL    HW156531  14.414   8.758   2.601
18233SOL    HW256532  14.306   8.823   2.686
18234SOL     OW56533   3.622   4.672  13.251
18234SOL    HW156534   3.616   4.644  13.160
18234SOL    HW256535   3.648   4.764  13.247
18235SOL     OW56536   8.775   3.531  11.117
18235SOL    HW156537   8.825   3.610  11.098
18235SOL    HW256538   8.703   3.532  11.055
18236SOL     OW56539   0.583   5.660  12.492
18236SOL    HW156540   0.518   5.626  12.554
18236SOL    HW256541   0.643   5.587  12.478
18237SOL     OW56542   9.058  11.070   7.175
18237SOL    HW156543   9.009  11.039   7.251
18237SOL    HW256544   9.001  11.135   7.134
18238SOL     OW56545   5.236  11.505   1.680
18238SOL    HW156546   5.151  11.464   1.696
18238SOL    HW256547   5.239  11.579   1.741
18239SOL     OW56548   3.477   6.917  13.655
18239SOL    HW156549   3.498   7.003  13.691
18239SOL    HW256550   3.529   6.856  13.706
18240SOL     OW56551  13.088   5.466   8.368
18240SOL    HW156552  13.008   5.442   8.415
18240SOL    HW256553  13.114   5.386   8.322
18241SOL     OW56554   3.165   2.418   5.011
18241SOL    HW156555   3.218   2.385   4.939
18241SOL    HW256556   3.079   2.378   4.998
18242SOL     OW56557   5.295  11.698  11.808
18242SOL    HW156558   5.350  11.743  11.871
18242SOL    HW256559   5.356  11.644  11.757
18243SOL     OW56560   3.544   2.475   7.617
18243SOL    HW156561   3.636   2.497   7.632
18243SOL    HW256562   3.514   2.443   7.702
18244SOL     OW56563   9.484  10.530  11.364
18244SOL    HW156564   9.521  10.444  11.385
18244SOL    HW256565   9.507  10.544  11.272
18245SOL     OW56566  13.914   5.332   2.655
18245SOL    HW156567  13.845   5.385   2.616
18245SOL    HW256568  13.979   5.321   2.586
18246SOL     OW56569   9.234   2.951   7.601
18246SOL    HW156570   9.227   3.032   7.651
18246SOL    HW256571   9.329   2.938   7.591
18247SOL     OW56572   6.581   9.235   7.288
18247SOL    HW156573   6.570   9.161   7.348
18247SOL    HW256574   6.615   9.306   7.343
18248SOL     OW56575  14.045   5.080  12.659
18248SOL    HW156576  14.051   4.985  12.649
18248SOL    HW256577  14.135   5.111  12.647
18249SOL     OW56578   2.817   4.724   8.535
18249SOL    HW156579   2.753   4.653   8.540
18249SOL    HW256580   2.887   4.698   8.595
18250SOL     OW56581   2.445   5.053  14.034
18250SOL    HW156582   2.480   4.971  14.068
18250SOL    HW256583   2.446   5.113  14.109
18251SOL     OW56584   9.705   0.964   0.476
18251SOL    HW156585   9.789   0.998   0.445
18251SOL    HW256586   9.678   1.024   0.545
18252SOL     OW56587  10.584  14.375   6.701
18252SOL    HW156588  10.659  14.371   6.761
18252SOL    HW256589  10.593  14.297   6.646
18253SOL     OW56590   1.299  10.525   1.720
18253SOL    HW156591   1.271  10.441   1.757
18253SOL    HW256592   1.222  10.556   1.672
18254SOL     OW56593   9.512   8.211   9.358
18254SOL    HW156594   9.517   8.121   9.326
18254SOL    HW256595   9.420   8.225   9.378
18255SOL     OW56596  12.318  12.062   2.249
18255SOL    HW156597  12.353  11.978   2.219
18255SOL    HW256598  12.233  12.069   2.206
18256SOL     OW56599  11.755   0.779   5.910
18256SOL    HW156600  11.729   0.846   5.972
18256SOL    HW256601  11.800   0.712   5.963
18257SOL     OW56602   5.275   4.271   8.063
18257SOL    HW156603   5.244   4.346   8.114
18257SOL    HW256604   5.371   4.280   8.063
18258SOL     OW56605   0.513  14.143   5.013
18258SOL    HW156606   0.591  14.110   5.057
18258SOL    HW256607   0.547  14.198   4.942
18259SOL     OW56608  13.915  13.439   3.047
18259SOL    HW156609  13.884  13.514   3.099
18259SOL    HW256610  13.837  13.411   2.998
18260SOL     OW56611   7.223   4.403  13.502
18260SOL    HW156612   7.219   4.399  13.406
18260SOL    HW256613   7.309   4.368  13.524
18261SOL     OW56614   6.328   5.772   6.281
18261SOL    HW156615   6.313   5.799   6.191
18261SOL    HW256616   6.396   5.831   6.313
18262SOL     OW56617   5.732  13.335   4.108
18262SOL    HW156618   5.701  13.403   4.168
18262SOL    HW256619   5.659  13.323   4.046
18263SOL     OW56620  13.359   2.114   7.739
18263SOL    HW156621  13.393   2.194   7.699
18263SOL    HW256622  13.433   2.053   7.735
18264SOL     OW56623   4.023  10.485   2.762
18264SOL    HW156624   4.067  10.459   2.843
18264SOL    HW256625   4.073  10.442   2.693
18265SOL     OW56626   0.730   5.898   2.224
18265SOL    HW156627   0.670   5.909   2.151
18265SOL    HW256628   0.676   5.908   2.302
18266SOL     OW56629   1.862  10.026  12.719
18266SOL    HW156630   1.849   9.961  12.650
18266SOL    HW256631   1.953  10.015  12.747
18267SOL     OW56632   3.077   5.512  11.897
18267SOL    HW156633   3.080   5.501  11.992
18267SOL    HW256634   3.036   5.598  11.885
18268SOL     OW56635   6.089  10.234  11.289
18268SOL    HW156636   6.088  10.156  11.233
18268SOL    HW256637   6.099  10.199  11.377
18269SOL     OW56638  12.371   0.518  14.172
18269SOL    HW156639  12.425   0.590  14.141
18269SOL    HW256640  12.283   0.554  14.178
18270SOL     OW56641   2.054  14.838   1.637
18270SOL    HW156642   1.978  14.781   1.645
18270SOL    HW256643   2.054   0.015   1.717
18271SOL     OW56644   7.207   3.630   2.097
18271SOL    HW156645   7.190   3.571   2.024
18271SOL    HW256646   7.232   3.573   2.170
18272SOL     OW56647   8.960   1.985   5.706
18272SOL    HW156648   9.008   1.960   5.627
18272SOL    HW256649   8.869   1.989   5.679
18273SOL     OW56650  10.574   8.135   3.394
18273SOL    HW156651  10.546   8.061   3.448
18273SOL    HW256652  10.584   8.208   3.456
18274SOL     OW56653   1.470   2.512  13.154
18274SOL    HW156654   1.435   2.581  13.098
18274SOL    HW256655   1.501   2.446  13.092
18275SOL     OW56656   0.381   5.028   6.297
18275SOL    HW156657   0.314   5.046   6.363
18275SOL    HW256658   0.332   4.992   6.223
18276SOL     OW56659   6.571   6.942  13.485
18276SOL    HW156660   6.643   6.989  13.443
18276SOL    HW256661   6.525   6.900  13.413
18277SOL     OW56662   4.745  10.918   1.074
18277SOL    HW156663   4.688  10.987   1.038
18277SOL    HW256664   4.829  10.961   1.087
18278SOL     OW56665   1.242   0.176   7.500
18278SOL    HW156666   1.158   0.131   7.490
18278SOL    HW256667   1.293   0.150   7.424
18279SOL     OW56668   1.746  12.588   9.238
18279SOL    HW156669   1.683  12.528   9.199
18279SOL    HW256670   1.819  12.589   9.175
18280SOL     OW56671   4.774   8.399   1.232
18280SOL    HW156672   4.706   8.402   1.299
18280SOL    HW256673   4.821   8.482   1.242
18281SOL     OW56674  13.744  11.469  13.887
18281SOL    HW156675  13.786  11.409  13.825
18281SOL    HW256676  13.794  11.459  13.968
18282SOL     OW56677   5.193  11.046   7.724
18282SOL    HW156678   5.146  11.129   7.727
18282SOL    HW256679   5.267  11.062   7.666
18283SOL     OW56680   9.282  13.825  11.739
18283SOL    HW156681   9.204  13.850  11.690
18283SOL    HW256682   9.248  13.784  11.819
18284SOL     OW56683  13.005   8.217   8.761
18284SOL    HW156684  13.085   8.210   8.814
18284SOL    HW256685  12.978   8.308   8.772
18285SOL     OW56686  11.309  11.779   7.780
18285SOL    HW156687  11.338  11.727   7.706
18285SOL    HW256688  11.257  11.718   7.833
18286SOL     OW56689   4.435  14.146  10.375
18286SOL    HW156690   4.514  14.187  10.409
18286SOL    HW256691   4.371  14.216  10.371
18287SOL     OW56692   6.755  13.970   1.401
18287SOL    HW156693   6.809  14.047   1.423
18287SOL    HW256694   6.694  13.962   1.474
18288SOL     OW56695  12.505   6.204   9.134
18288SOL    HW156696  12.576   6.251   9.177
18288SOL    HW256697  12.510   6.115   9.169
18289SOL     OW56698  12.727   8.723  11.268
18289SOL    HW156699  12.646   8.732  11.318
18289SOL    HW256700  12.701   8.677  11.188
18290SOL     OW56701  12.538   9.710   2.906
18290SOL    HW156702  12.565   9.756   2.826
18290SOL    HW256703  12.504   9.780   2.962
18291SOL     OW56704  10.476   2.703   2.136
18291SOL    HW156705  10.401   2.649   2.114
18291SOL    HW256706  10.538   2.688   2.065
18292SOL     OW56707  11.752  11.217   3.825
18292SOL    HW156708  11.757  11.139   3.769
18292SOL    HW256709  11.839  11.223   3.865
18293SOL     OW56710   3.086   3.024  11.805
18293SOL    HW156711   3.166   3.071  11.780
18293SOL    HW256712   3.117   2.948  11.854
18294SOL     OW56713  10.785   0.246  10.888
18294SOL    HW156714  10.770   0.164  10.934
18294SOL    HW256715  10.752   0.314  10.946
18295SOL     OW56716   5.307   9.005   6.338
18295SOL    HW156717   5.334   9.097   6.332
18295SOL    HW256718   5.374   8.963   6.392
18296SOL     OW56719   4.726   0.854  12.953
18296SOL    HW156720   4.766   0.941  12.964
18296SOL    HW256721   4.756   0.804  13.028
18297SOL     OW56722   7.421   0.478   4.532
18297SOL    HW156723   7.392   0.551   4.587
18297SOL    HW256724   7.344   0.456   4.480
18298SOL     OW56725  10.553   9.350   1.629
18298SOL    HW156726  10.544   9.266   1.673
18298SOL    HW256727  10.467   9.392   1.640
18299SOL     OW56728   3.597  12.462   9.202
18299SOL    HW156729   3.667  12.423   9.254
18299SOL    HW256730   3.641  12.496   9.124
18300SOL     OW56731   1.493   1.905  13.282
18300SOL    HW156732   1.433   1.977  13.301
18300SOL    HW256733   1.481   1.888  13.189
18301SOL     OW56734   1.443   3.639  10.700
18301SOL    HW156735   1.448   3.544  10.710
18301SOL    HW256736   1.419   3.653  10.609
18302SOL     OW56737  12.033   2.367  11.174
18302SOL    HW156738  11.974   2.326  11.238
18302SOL    HW256739  12.116   2.320  11.186
18303SOL     OW56740  13.852   1.228  13.620
18303SOL    HW156741  13.911   1.154  13.609
18303SOL    HW256742  13.854   1.246  13.715
18304SOL     OW56743   4.109   8.563   8.353
18304SOL    HW156744   4.136   8.604   8.435
18304SOL    HW256745   4.141   8.473   8.359
18305SOL     OW56746   1.555   9.182   8.962
18305SOL    HW156747   1.540   9.094   8.995
18305SOL    HW256748   1.565   9.236   9.041
18306SOL     OW56749  14.412   1.765  14.038
18306SOL    HW156750  14.445   1.754  14.127
18306SOL    HW256751  14.460   1.701  13.986
18307SOL     OW56752  12.584   8.424   1.575
18307SOL    HW156753  12.580   8.453   1.666
18307SOL    HW256754  12.537   8.341   1.573
18308SOL     OW56755   7.433   0.886   3.884
18308SOL    HW156756   7.485   0.853   3.957
18308SOL    HW256757   7.364   0.821   3.873
18309SOL     OW56758  12.562   5.369   4.603
18309SOL    HW156759  12.516   5.290   4.633
18309SOL    HW256760  12.492   5.425   4.568
18310SOL     OW56761  12.299   2.002   4.009
18310SOL    HW156762  12.289   1.969   3.920
18310SOL    HW256763  12.323   2.094   3.999
18311SOL     OW56764   9.098   8.412   1.298
18311SOL    HW156765   9.136   8.371   1.376
18311SOL    HW256766   9.004   8.406   1.311
18312SOL     OW56767   9.417   8.293   1.648
18312SOL    HW156768   9.438   8.328   1.734
18312SOL    HW256769   9.328   8.324   1.631
18313SOL     OW56770   0.879   8.043   6.759
18313SOL    HW156771   0.949   8.071   6.701
18313SOL    HW256772   0.911   8.063   6.847
18314SOL     OW56773  14.404   6.242  10.261
18314SOL    HW156774  14.358   6.281  10.187
18314SOL    HW256775  14.433   6.156  10.230
18315SOL     OW56776   6.124   4.165   4.543
18315SOL    HW156777   6.124   4.250   4.501
18315SOL    HW256778   6.121   4.184   4.637
18316SOL     OW56779   6.050   9.074  10.290
18316SOL    HW156780   6.012   9.126  10.361
18316SOL    HW256781   6.058   8.986  10.328
18317SOL     OW56782   1.248   3.578   4.405
18317SOL    HW156783   1.236   3.487   4.432
18317SOL    HW256784   1.204   3.584   4.320
18318SOL     OW56785   3.149  13.387   8.171
18318SOL    HW156786   3.059  13.372   8.142
18318SOL    HW256787   3.147  13.474   8.212
18319SOL     OW56788  10.760   7.969   8.790
18319SOL    HW156789  10.843   8.013   8.774
18319SOL    HW256790  10.716   7.969   8.705
18320SOL     OW56791  14.432  13.596  11.253
18320SOL    HW156792  14.444  13.505  11.225
18320SOL    HW256793  14.368  13.632  11.191
18321SOL     OW56794  12.070  12.111   9.068
18321SOL    HW156795  11.998  12.111   9.006
18321SOL    HW256796  12.145  12.143   9.018
18322SOL     OW56797  13.663   6.297  13.292
18322SOL    HW156798  13.756   6.276  13.301
18322SOL    HW256799  13.661   6.391  13.273
18323SOL     OW56800   2.678   4.627   9.002
18323SOL    HW156801   2.724   4.563   8.948
18323SOL    HW256802   2.704   4.712   8.966
18324SOL     OW56803   3.573  10.084   4.407
18324SOL    HW156804   3.519  10.116   4.480
18324SOL    HW256805   3.608  10.164   4.367
18325SOL     OW56806   2.426  13.461   3.190
18325SOL    HW156807   2.397  13.386   3.138
18325SOL    HW256808   2.521  13.453   3.192
18326SOL     OW56809  11.358   9.763  14.642
18326SOL    HW156810  11.265   9.740  14.646
18326SOL    HW256811  11.402   9.693  14.691
18327SOL     OW56812   8.625   8.316  12.684
18327SOL    HW156813   8.586   8.240  12.729
18327SOL    HW256814   8.550   8.369  12.658
18328SOL     OW56815  10.227   7.675   3.563
18328SOL    HW156816  10.154   7.656   3.504
18328SOL    HW256817  10.198   7.639   3.647
18329SOL     OW56818  13.668  13.116  10.593
18329SOL    HW156819  13.728  13.076  10.656
18329SOL    HW256820  13.661  13.207  10.621
18330SOL     OW56821  10.740   2.189   6.160
18330SOL    HW156822  10.650   2.202   6.130
18330SOL    HW256823  10.788   2.164   6.081
18331SOL     OW56824   9.795   3.678   6.295
18331SOL    HW156825   9.722   3.739   6.289
18331SOL    HW256826   9.862   3.725   6.344
18332SOL     OW56827  11.389  14.177   5.002
18332SOL    HW156828  11.314  14.179   5.062
18332SOL    HW256829  11.445  14.249   5.031
18333SOL     OW56830  10.688   2.390   0.572
18333SOL    HW156831  10.633   2.312   0.576
18333SOL    HW256832  10.717   2.404   0.663
18334SOL     OW56833  13.200   9.261   7.426
18334SOL    HW156834  13.157   9.176   7.429
18334SOL    HW256835  13.291   9.243   7.450
18335SOL     OW56836   2.256   9.514  10.868
18335SOL    HW156837   2.268   9.450  10.798
18335SOL    HW256838   2.245   9.461  10.947
18336SOL     OW56839   4.817   6.816   4.593
18336SOL    HW156840   4.735   6.766   4.593
18336SOL    HW256841   4.883   6.753   4.625
18337SOL     OW56842  11.270   2.336   9.023
18337SOL    HW156843  11.351   2.285   9.023
18337SOL    HW256844  11.299   2.426   9.038
18338SOL     OW56845  13.857  11.548   1.189
18338SOL    HW156846  13.891  11.602   1.261
18338SOL    HW256847  13.897  11.462   1.203
18339SOL     OW56848  14.818   5.906  12.741
18339SOL    HW156849  14.750   5.845  12.768
18339SOL    HW256850  14.837   5.883  12.650
18340SOL     OW56851   8.793  11.557  13.977
18340SOL    HW156852   8.847  11.551  14.056
18340SOL    HW256853   8.783  11.650  13.961
18341SOL     OW56854  10.945   0.989   9.744
18341SOL    HW156855  10.976   0.913   9.695
18341SOL    HW256856  10.851   0.993   9.724
18342SOL     OW56857   4.045   6.600   9.134
18342SOL    HW156858   4.088   6.562   9.210
18342SOL    HW256859   3.964   6.551   9.125
18343SOL     OW56860   5.242   3.371   1.972
18343SOL    HW156861   5.254   3.379   2.067
18343SOL    HW256862   5.158   3.414   1.955
18344SOL     OW56863  12.380  13.900   4.048
18344SOL    HW156864  12.462  13.888   4.000
18344SOL    HW256865  12.400  13.966   4.114
18345SOL     OW56866   9.996  14.734   1.542
18345SOL    HW156867  10.008  14.760   1.450
18345SOL    HW256868  10.033  14.647   1.548
18346SOL     OW56869   7.311   6.086   1.932
18346SOL    HW156870   7.385   6.132   1.892
18346SOL    HW256871   7.255   6.063   1.858
18347SOL     OW56872  10.076   0.372   2.993
18347SOL    HW156873  10.046   0.463   2.985
18347SOL    HW256874  10.039   0.342   3.075
18348SOL     OW56875   9.650  10.908   1.011
18348SOL    HW156876   9.615  10.819   1.012
18348SOL    HW256877   9.643  10.937   1.101
18349SOL     OW56878   0.738  14.582  10.990
18349SOL    HW156879   0.787  14.592  11.072
18349SOL    HW256880   0.715  14.671  10.965
18350SOL     OW56881   1.135   2.022   5.535
18350SOL    HW156882   1.223   2.046   5.506
18350SOL    HW256883   1.093   1.986   5.456
18351SOL     OW56884   9.725   7.038   8.417
18351SOL    HW156885   9.652   6.998   8.464
18351SOL    HW256886   9.756   7.108   8.475
18352SOL     OW56887   4.243  11.980   3.643
18352SOL    HW156888   4.189  12.023   3.576
18352SOL    HW256889   4.307  11.928   3.593
18353SOL     OW56890   7.768  12.283   9.567
18353SOL    HW156891   7.736  12.199   9.537
18353SOL    HW256892   7.691  12.328   9.602
18354SOL     OW56893  10.894   4.723   5.562
18354SOL    HW156894  10.922   4.759   5.478
18354SOL    HW256895  10.954   4.762   5.626
18355SOL     OW56896   5.533  13.687   9.517
18355SOL    HW156897   5.438  13.684   9.524
18355SOL    HW256898   5.550  13.741   9.440
18356SOL     OW56899  13.944   1.071   7.052
18356SOL    HW156900  13.904   0.991   7.018
18356SOL    HW256901  13.986   1.112   6.976
18357SOL     OW56902   4.217   9.329   1.760
18357SOL    HW156903   4.292   9.302   1.813
18357SOL    HW256904   4.150   9.354   1.824
18358SOL     OW56905  12.701  10.890  13.448
18358SOL    HW156906  12.668  10.924  13.531
18358SOL    HW256907  12.663  10.949  13.382
18359SOL     OW56908   9.149   8.415   3.984
18359SOL    HW156909   9.173   8.462   4.065
18359SOL    HW256910   9.143   8.324   4.011
18360SOL     OW56911  14.557   2.797  10.293
18360SOL    HW156912  14.633   2.801  10.235
18360SOL    HW256913  14.594   2.796  10.381
18361SOL     OW56914   4.114   5.315   0.758
18361SOL    HW156915   4.035   5.300   0.705
18361SOL    HW256916   4.167   5.237   0.745
18362SOL     OW56917   7.106  13.127   5.841
18362SOL    HW156918   7.185  13.127   5.787
18362SOL    HW256919   7.105  13.214   5.881
18363SOL     OW56920   9.306   7.465   4.534
18363SOL    HW156921   9.328   7.546   4.488
18363SOL    HW256922   9.213   7.472   4.553
18364SOL     OW56923   1.975   6.670  11.101
18364SOL    HW156924   2.042   6.638  11.161
18364SOL    HW256925   1.971   6.765  11.117
18365SOL     OW56926   5.191   2.492  10.917
18365SOL    HW156927   5.184   2.438  10.838
18365SOL    HW256928   5.278   2.474  10.950
18366SOL     OW56929   4.455  10.531   9.614
18366SOL    HW156930   4.379  10.520   9.671
18366SOL    HW256931   4.430  10.602   9.554
18367SOL     OW56932   1.917   0.978   6.663
18367SOL    HW156933   1.915   1.066   6.698
18367SOL    HW256934   1.950   0.988   6.573
18368SOL     OW56935  13.257   6.029   9.305
18368SOL    HW156936  13.351   6.048   9.307
18368SOL    HW256937  13.252   5.934   9.318
18369SOL     OW56938   0.553   0.771  10.660
18369SOL    HW156939   0.461   0.755  10.682
18369SOL    HW256940   0.585   0.686  10.630
18370SOL     OW56941   9.867   8.840   6.527
18370SOL    HW156942   9.803   8.777   6.492
18370SOL    HW256943   9.872   8.908   6.460
18371SOL     OW56944   0.922   1.287   7.576
18371SOL    HW156945   1.008   1.327   7.589
18371SOL    HW256946   0.887   1.332   7.499
18372SOL     OW56947   6.872   5.708   3.473
18372SOL    HW156948   6.911   5.621   3.465
18372SOL    HW256949   6.884   5.747   3.387
18373SOL     OW56950   2.350   0.721  14.404
18373SOL    HW156951   2.366   0.786  14.335
18373SOL    HW256952   2.376   0.766  14.485
18374SOL     OW56953   2.066  10.142   1.733
18374SOL    HW156954   2.110  10.192   1.801
18374SOL    HW256955   2.078  10.050   1.759
18375SOL     OW56956   0.652   2.020  13.076
18375SOL    HW156957   0.708   2.050  13.005
18375SOL    HW256958   0.669   2.081  13.148
18376SOL     OW56959   5.451   8.714   2.935
18376SOL    HW156960   5.433   8.657   2.861
18376SOL    HW256961   5.370   8.764   2.947
18377SOL     OW56962   8.786   7.147   1.803
18377SOL    HW156963   8.694   7.121   1.813
18377SOL    HW256964   8.786   7.241   1.821
18378SOL     OW56965  14.787   2.329   4.667
18378SOL    HW156966  14.867   2.286   4.636
18378SOL    HW256967  14.806   2.423   4.662
18379SOL     OW56968  11.032   3.356   3.493
18379SOL    HW156969  10.964   3.291   3.477
18379SOL    HW256970  10.989   3.440   3.477
18380SOL     OW56971   8.000   7.123  13.952
18380SOL    HW156972   8.056   7.149  14.025
18380SOL    HW256973   7.912   7.122  13.989
18381SOL     OW56974  14.338  10.936   2.506
18381SOL    HW156975  14.333  10.860   2.564
18381SOL    HW256976  14.250  10.973   2.508
18382SOL     OW56977  11.665   1.274  10.049
18382SOL    HW156978  11.581   1.267  10.095
18382SOL    HW256979  11.667   1.365  10.018
18383SOL     OW56980   1.193   1.351   1.019
18383SOL    HW156981   1.167   1.275   1.071
18383SOL    HW256982   1.285   1.334   0.996
18384SOL     OW56983   2.033   0.163   6.225
18384SOL    HW156984   2.066   0.155   6.314
18384SOL    HW256985   2.107   0.140   6.169
18385SOL     OW56986   4.890  12.224  13.060
18385SOL    HW156987   4.968  12.246  13.111
18385SOL    HW256988   4.914  12.247  12.970
18386SOL     OW56989  10.743  11.304  14.369
18386SOL    HW156990  10.806  11.232  14.375
18386SOL    HW256991  10.686  11.292  14.445
18387SOL     OW56992   6.217  11.136  13.209
18387SOL    HW156993   6.225  11.042  13.224
18387SOL    HW256994   6.306  11.170  13.221
18388SOL     OW56995  10.699  12.596  12.203
18388SOL    HW156996  10.685  12.675  12.151
18388SOL    HW256997  10.616  12.581  12.248
18389SOL     OW56998   2.893   2.475   4.609
18389SOL    HW156999   2.951   2.544   4.643
18389SOL    HW257000   2.868   2.425   4.686
18390SOL     OW57001   3.651   1.154   6.510
18390SOL    HW157002   3.680   1.067   6.539
18390SOL    HW257003   3.683   1.161   6.421
18391SOL     OW57004   9.220   5.688  10.580
18391SOL    HW157005   9.210   5.732  10.665
18391SOL    HW257006   9.145   5.629  10.575
18392SOL     OW57007   5.321  13.012   8.252
18392SOL    HW157008   5.243  13.033   8.200
18392SOL    HW257009   5.293  13.023   8.343
18393SOL     OW57010   6.249  14.376   0.187
18393SOL    HW157011   6.344  14.367   0.181
18393SOL    HW257012   6.235  14.462   0.228
18394SOL     OW57013   3.246   6.804  13.518
18394SOL    HW157014   3.316   6.869  13.530
18394SOL    HW257015   3.289   6.720  13.535
18395SOL     OW57016   9.755  10.898  14.111
18395SOL    HW157017   9.687  10.876  14.048
18395SOL    HW257018   9.732  10.987  14.141
18396SOL     OW57019   9.928  12.338  13.651
18396SOL    HW157020   9.914  12.264  13.592
18396SOL    HW257021   9.865  12.325  13.722
18397SOL     OW57022   3.863  13.805  11.771
18397SOL    HW157023   3.835  13.895  11.785
18397SOL    HW257024   3.905  13.805  11.685
18398SOL     OW57025   5.088  13.207   9.580
18398SOL    HW157026   5.072  13.131   9.524
18398SOL    HW257027   5.055  13.282   9.530
18399SOL     OW57028   7.292   4.567   9.599
18399SOL    HW157029   7.343   4.540   9.676
18399SOL    HW257030   7.212   4.515   9.604
18400SOL     OW57031  13.703   8.343   2.859
18400SOL    HW157032  13.634   8.391   2.814
18400SOL    HW257033  13.718   8.392   2.940
18401SOL     OW57034   8.300  10.754   6.265
18401SOL    HW157035   8.294  10.843   6.300
18401SOL    HW257036   8.209  10.724   6.261
18402SOL     OW57037   3.689  12.821  13.141
18402SOL    HW157038   3.719  12.903  13.179
18402SOL    HW257039   3.769  12.770  13.126
18403SOL     OW57040   1.998   5.666   5.301
18403SOL    HW157041   1.953   5.714   5.371
18403SOL    HW257042   2.067   5.617   5.346
18404SOL     OW57043   5.098   2.136  13.997
18404SOL    HW157044   5.035   2.135  14.069
18404SOL    HW257045   5.047   2.113  13.920
18405SOL     OW57046   3.614   1.988   7.407
18405SOL    HW157047   3.578   2.064   7.360
18405SOL    HW257048   3.578   1.994   7.495
18406SOL     OW57049   1.281   4.758   9.515
18406SOL    HW157050   1.263   4.699   9.588
18406SOL    HW257051   1.208   4.820   9.516
18407SOL     OW57052   1.171   0.450  13.396
18407SOL    HW157053   1.175   0.542  13.373
18407SOL    HW257054   1.105   0.413  13.337
18408SOL     OW57055  13.588   0.437   6.722
18408SOL    HW157056  13.613   0.513   6.669
18408SOL    HW257057  13.668   0.413   6.768
18409SOL     OW57058  11.729   1.770  13.543
18409SOL    HW157059  11.732   1.866  13.537
18409SOL    HW257060  11.717   1.741  13.453
18410SOL     OW57061  10.635  11.885   4.802
18410SOL    HW157062  10.594  11.896   4.888
18410SOL    HW257063  10.705  11.950   4.801
18411SOL     OW57064  13.059   8.956   6.962
18411SOL    HW157065  13.006   8.986   6.888
18411SOL    HW257066  13.133   8.910   6.921
18412SOL     OW57067   5.913  10.559   5.176
18412SOL    HW157068   5.925  10.518   5.091
18412SOL    HW257069   5.880  10.489   5.232
18413SOL     OW57070   8.469   2.620   4.714
18413SOL    HW157071   8.419   2.609   4.633
18413SOL    HW257072   8.555   2.649   4.684
18414SOL     OW57073   5.211  10.289  10.117
18414SOL    HW157074   5.295  10.332  10.102
18414SOL    HW257075   5.152  10.327  10.052
18415SOL     OW57076   0.954  12.394   2.582
18415SOL    HW157077   0.904  12.319   2.615
18415SOL    HW257078   0.991  12.435   2.661
18416SOL     OW57079  12.231  12.926   4.325
18416SOL    HW157080  12.176  12.979   4.383
18416SOL    HW257081  12.289  12.878   4.384
18417SOL     OW57082  10.163   4.119  11.710
18417SOL    HW157083  10.073   4.094  11.689
18417SOL    HW257084  10.215   4.040  11.694
18418SOL     OW57085   1.671   9.923  11.143
18418SOL    HW157086   1.649   9.914  11.236
18418SOL    HW257087   1.759   9.886  11.135
18419SOL     OW57088  11.167   5.427   3.896
18419SOL    HW157089  11.209   5.443   3.981
18419SOL    HW257090  11.205   5.493   3.838
18420SOL     OW57091   0.388  14.348   6.510
18420SOL    HW157092   0.437  14.411   6.563
18420SOL    HW257093   0.354  14.284   6.572
18421SOL     OW57094   8.844  12.942   4.737
18421SOL    HW157095   8.869  13.006   4.670
18421SOL    HW257096   8.773  12.983   4.785
18422SOL     OW57097   6.571  14.836   2.373
18422SOL    HW157098   6.594  14.773   2.305
18422SOL    HW257099   6.587  14.790   2.455
18423SOL     OW57100   2.065   8.995  12.203
18423SOL    HW157101   2.002   9.021  12.270
18423SOL    HW257102   2.014   8.942  12.142
18424SOL     OW57103   6.625  11.110  11.231
18424SOL    HW157104   6.632  11.085  11.323
18424SOL    HW257105   6.708  11.153  11.212
18425SOL     OW57106   9.927   7.721   2.832
18425SOL    HW157107   9.947   7.649   2.892
18425SOL    HW257108   9.988   7.708   2.759
18426SOL     OW57109   2.684   1.067  12.841
18426SOL    HW157110   2.608   1.109  12.882
18426SOL    HW257111   2.701   1.120  12.763
18427SOL     OW57112  13.378  13.066   2.202
18427SOL    HW157113  13.351  13.132   2.139
18427SOL    HW257114  13.473  13.056   2.188
18428SOL     OW57115   0.005   2.497   2.734
18428SOL    HW157116   0.089   2.518   2.776
18428SOL    HW257117   0.027   2.488   2.641
18429SOL     OW57118   7.683   3.059  11.715
18429SOL    HW157119   7.653   3.018  11.796
18429SOL    HW257120   7.777   3.069  11.726
18430SOL     OW57121  13.191   1.278   3.049
18430SOL    HW157122  13.283   1.306   3.042
18430SOL    HW257123  13.149   1.314   2.971
18431SOL     OW57124   7.077   0.130  14.311
18431SOL    HW157125   7.074   0.178  14.229
18431SOL    HW257126   7.119   0.047  14.288
18432SOL     OW57127  14.010  12.642   9.379
18432SOL    HW157128  13.975  12.555   9.360
18432SOL    HW257129  13.954  12.701   9.328
18433SOL     OW57130   4.368   9.398   2.583
18433SOL    HW157131   4.288   9.378   2.533
18433SOL    HW257132   4.366   9.336   2.656
18434SOL     OW57133  10.517   6.764   3.429
18434SOL    HW157134  10.555   6.677   3.440
18434SOL    HW257135  10.510   6.777   3.335
18435SOL     OW57136  13.709   0.010  10.247
18435SOL    HW157137  13.773   0.080  10.239
18435SOL    HW257138  13.654   0.035  10.321
18436SOL     OW57139   2.295   1.592  10.950
18436SOL    HW157140   2.317   1.516  10.896
18436SOL    HW257141   2.200   1.598  10.946
18437SOL     OW57142   9.040  11.892   1.722
18437SOL    HW157143   8.966  11.880   1.781
18437SOL    HW257144   9.002  11.892   1.634
18438SOL     OW57145   8.862  11.919   1.945
18438SOL    HW157146   8.829  11.995   1.992
18438SOL    HW257147   8.838  11.844   1.999
18439SOL     OW57148   0.506   7.120  10.760
18439SOL    HW157149   0.476   7.154  10.844
18439SOL    HW257150   0.442   7.053  10.737
18440SOL     OW57151   5.372  14.243  10.030
18440SOL    HW157152   5.458  14.235  10.073
18440SOL    HW257153   5.381  14.318   9.972
18441SOL     OW57154   1.499   2.126   6.262
18441SOL    HW157155   1.492   2.221   6.274
18441SOL    HW257156   1.536   2.115   6.174
18442SOL     OW57157   6.970  13.687   2.986
18442SOL    HW157158   6.881  13.659   2.964
18442SOL    HW257159   6.958  13.748   3.059
18443SOL     OW57160  11.075   7.211   1.509
18443SOL    HW157161  11.077   7.307   1.501
18443SOL    HW257162  11.062   7.195   1.602
18444SOL     OW57163   5.882   6.070   6.077
18444SOL    HW157164   5.929   6.008   6.133
18444SOL    HW257165   5.822   6.115   6.137
18445SOL     OW57166   5.919   1.124   0.360
18445SOL    HW157167   5.905   1.035   0.393
18445SOL    HW257168   5.834   1.150   0.326
18446SOL     OW57169   0.058   4.051   4.475
18446SOL    HW157170   0.075   4.142   4.450
18446SOL    HW257171   0.064   4.002   4.392
18447SOL     OW57172   2.545  14.255  13.348
18447SOL    HW157173   2.572  14.180  13.401
18447SOL    HW257174   2.607  14.324  13.371
18448SOL     OW57175   3.647   8.734   8.834
18448SOL    HW157176   3.617   8.667   8.895
18448SOL    HW257177   3.729   8.766   8.872
18449SOL     OW57178   9.024   2.068   4.845
18449SOL    HW157179   8.952   2.059   4.782
18449SOL    HW257180   9.103   2.066   4.792
18450SOL     OW57181   3.102  13.665   2.004
18450SOL    HW157182   3.049  13.593   1.968
18450SOL    HW257183   3.044  13.707   2.067
18451SOL     OW57184  10.987   2.283   5.068
18451SOL    HW157185  11.060   2.264   5.128
18451SOL    HW257186  10.929   2.339   5.119
18452SOL     OW57187   7.086   6.975   7.810
18452SOL    HW157188   7.000   6.933   7.812
18452SOL    HW257189   7.068   7.068   7.827
18453SOL     OW57190  13.713   7.550   1.460
18453SOL    HW157191  13.625   7.531   1.427
18453SOL    HW257192  13.735   7.475   1.515
18454SOL     OW57193   4.998   5.913   1.189
18454SOL    HW157194   4.939   5.943   1.258
18454SOL    HW257195   5.085   5.913   1.230
18455SOL     OW57196  13.199   5.753  10.251
18455SOL    HW157197  13.194   5.804  10.332
18455SOL    HW257198  13.236   5.669  10.277
18456SOL     OW57199   2.622   9.540  13.718
18456SOL    HW157200   2.711   9.535  13.682
18456SOL    HW257201   2.631   9.593  13.797
18457SOL     OW57202   6.965  11.391   2.430
18457SOL    HW157203   6.978  11.483   2.405
18457SOL    HW257204   6.891  11.362   2.378
18458SOL     OW57205   8.938   4.193  10.836
18458SOL    HW157206   8.924   4.204  10.930
18458SOL    HW257207   8.850   4.177  10.801
18459SOL     OW57208  14.831   9.482   3.437
18459SOL    HW157209  14.755   9.459   3.492
18459SOL    HW257210  14.862   9.565   3.473
18460SOL     OW57211  12.386   7.672   2.751
18460SOL    HW157212  12.467   7.642   2.790
18460SOL    HW257213  12.413   7.734   2.683
18461SOL     OW57214   9.433   2.995   2.004
18461SOL    HW157215   9.453   2.985   1.911
18461SOL    HW257216   9.495   3.061   2.034
18462SOL     OW57217  12.001   6.734   8.506
18462SOL    HW157218  11.974   6.657   8.556
18462SOL    HW257219  12.096   6.738   8.518
18463SOL     OW57220   3.641   2.787   2.890
18463SOL    HW157221   3.560   2.797   2.939
18463SOL    HW257222   3.621   2.821   2.803
18464SOL     OW57223   8.731  14.617   8.829
18464SOL    HW157224   8.786  14.693   8.849
18464SOL    HW257225   8.708  14.628   8.737
18465SOL     OW57226  11.215   6.820   1.843
18465SOL    HW157227  11.278   6.797   1.911
18465SOL    HW257228  11.170   6.739   1.822
18466SOL     OW57229   9.595   4.727   0.611
18466SOL    HW157230   9.663   4.794   0.604
18466SOL    HW257231   9.603   4.676   0.530
18467SOL     OW57232   1.276  14.771  10.067
18467SOL    HW157233   1.265  14.850  10.119
18467SOL    HW257234   1.371  14.754  10.068
18468SOL     OW57235   8.478   8.194   7.167
18468SOL    HW157236   8.431   8.171   7.247
18468SOL    HW257237   8.410   8.221   7.106
18469SOL     OW57238  11.275  13.024  14.465
18469SOL    HW157239  11.277  13.101  14.408
18469SOL    HW257240  11.363  13.021  14.503
18470SOL     OW57241   3.275  13.345  12.415
18470SOL    HW157242   3.365  13.356  12.447
18470SOL    HW257243   3.223  13.407  12.466
18471SOL     OW57244   3.318   5.420   5.759
18471SOL    HW157245   3.298   5.508   5.727
18471SOL    HW257246   3.321   5.366   5.680
18472SOL     OW57247  12.975  11.941  10.585
18472SOL    HW157248  12.936  11.928  10.498
18472SOL    HW257249  12.900  11.956  10.643
18473SOL     OW57250   2.980   5.079   8.898
18473SOL    HW157251   2.999   5.085   8.991
18473SOL    HW257252   3.064   5.055   8.858
18474SOL     OW57253   7.892  10.125   4.778
18474SOL    HW157254   7.937  10.202   4.813
18474SOL    HW257255   7.803  10.132   4.812
18475SOL     OW57256   8.055   4.367   2.584
18475SOL    HW157257   8.002   4.290   2.566
18475SOL    HW257258   7.997   4.426   2.632
18476SOL     OW57259   1.870   6.935  10.727
18476SOL    HW157260   1.849   6.931  10.634
18476SOL    HW257261   1.847   6.849  10.761
18477SOL     OW57262  11.734   3.324  13.441
18477SOL    HW157263  11.686   3.366  13.512
18477SOL    HW257264  11.780   3.252  13.484
18478SOL     OW57265   4.790   7.162   6.659
18478SOL    HW157266   4.790   7.258   6.659
18478SOL    HW257267   4.879   7.138   6.631
18479SOL     OW57268   1.789   1.261   1.535
18479SOL    HW157269   1.788   1.337   1.477
18479SOL    HW257270   1.714   1.275   1.593
18480SOL     OW57271   6.927   9.694  14.661
18480SOL    HW157272   6.940   9.781  14.623
18480SOL    HW257273   6.841   9.698  14.702
18481SOL     OW57274  14.277  11.078   5.716
18481SOL    HW157275  14.309  11.145   5.776
18481SOL    HW257276  14.281  10.996   5.766
18482SOL     OW57277  12.914   8.851  14.436
18482SOL    HW157278  12.858   8.820  14.507
18482SOL    HW257279  12.911   8.781  14.370
18483SOL     OW57280  14.445  10.963   6.403
18483SOL    HW157281  14.457  10.946   6.496
18483SOL    HW257282  14.494  10.893   6.359
18484SOL     OW57283   0.671  10.435  14.793
18484SOL    HW157284   0.761  10.410  14.770
18484SOL    HW257285   0.666  10.528  14.772
18485SOL     OW57286   5.218   3.054   0.254
18485SOL    HW157287   5.282   2.995   0.214
18485SOL    HW257288   5.248   3.064   0.344
18486SOL     OW57289  10.452  12.092  14.614
18486SOL    HW157290  10.421  12.060  14.698
18486SOL    HW257291  10.372  12.108  14.563
18487SOL     OW57292   5.295   4.465   0.552
18487SOL    HW157293   5.216   4.437   0.597
18487SOL    HW257294   5.344   4.384   0.535
18488SOL     OW57295  11.191  10.966   5.507
18488SOL    HW157296  11.222  10.914   5.433
18488SOL    HW257297  11.209  11.057   5.481
18489SOL     OW57298   1.862   2.898   8.811
18489SOL    HW157299   1.780   2.863   8.776
18489SOL    HW257300   1.835   2.950   8.887
18490SOL     OW57301   6.358  13.962   9.114
18490SOL    HW157302   6.373  13.995   9.026
18490SOL    HW257303   6.343  14.040   9.167
18491SOL     OW57304  12.481   8.694   3.292
18491SOL    HW157305  12.421   8.651   3.232
18491SOL    HW257306  12.540   8.745   3.236
18492SOL     OW57307  10.066   4.627   9.784
18492SOL    HW157308  10.042   4.719   9.769
18492SOL    HW257309  10.149   4.632   9.830
18493SOL     OW57310  14.868  12.499   4.676
18493SOL    HW157311   0.002  12.585   4.636
18493SOL    HW257312  14.844  12.441   4.603
18494SOL     OW57313  13.705   6.029   0.494
18494SOL    HW157314  13.788   6.060   0.457
18494SOL    HW257315  13.669   6.106   0.540
18495SOL     OW57316   9.534   2.887   3.792
18495SOL    HW157317   9.476   2.937   3.849
18495SOL    HW257318   9.479   2.863   3.717
18496SOL     OW57319   0.600  12.649   3.786
18496SOL    HW157320   0.546  12.573   3.807
18496SOL    HW257321   0.690  12.617   3.792
18497SOL     OW57322   9.198   4.068  12.339
18497SOL    HW157323   9.227   4.089  12.250
18497SOL    HW257324   9.190   4.153  12.382
18498SOL     OW57325   7.761  10.231   8.124
18498SOL    HW157326   7.682  10.279   8.097
18498SOL    HW257327   7.770  10.162   8.059
18499SOL     OW57328   9.049   8.591  13.561
18499SOL    HW157329   8.963   8.632  13.551
18499SOL    HW257330   9.036   8.500  13.535
18500SOL     OW57331   6.452   9.340  11.979
18500SOL    HW157332   6.498   9.279  11.922
18500SOL    HW257333   6.509   9.417  11.982
18501SOL     OW57334  10.100  13.376   6.125
18501SOL    HW157335  10.125  13.347   6.038
18501SOL    HW257336  10.040  13.309   6.157
18502SOL     OW57337   7.948   9.021   9.127
18502SOL    HW157338   7.899   8.939   9.123
18502SOL    HW257339   7.893   9.080   9.178
18503SOL     OW57340   9.314   5.200  11.058
18503SOL    HW157341   9.260   5.122  11.045
18503SOL    HW257342   9.393   5.167  11.101
18504SOL     OW57343   8.549   4.543   2.143
18504SOL    HW157344   8.598   4.464   2.162
18504SOL    HW257345   8.548   4.549   2.047
18505SOL     OW57346   8.712  10.646   4.662
18505SOL    HW157347   8.645  10.705   4.626
18505SOL    HW257348   8.719  10.575   4.599
18506SOL     OW57349  12.114   2.986  10.084
18506SOL    HW157350  12.081   2.947  10.003
18506SOL    HW257351  12.072   3.072  10.089
18507SOL     OW57352   6.164   5.267   2.546
18507SOL    HW157353   6.127   5.185   2.511
18507SOL    HW257354   6.115   5.336   2.502
18508SOL     OW57355   6.270  12.474   2.907
18508SOL    HW157356   6.258  12.552   2.962
18508SOL    HW257357   6.182  12.437   2.900
18509SOL     OW57358  12.338   9.494   6.081
18509SOL    HW157359  12.362   9.491   6.173
18509SOL    HW257360  12.258   9.548   6.079
18510SOL     OW57361   9.198   5.634   8.184
18510SOL    HW157362   9.153   5.564   8.231
18510SOL    HW257363   9.135   5.665   8.120
18511SOL     OW57364   4.803  12.115   9.794
18511SOL    HW157365   4.772  12.187   9.740
18511SOL    HW257366   4.898  12.115   9.780
18512SOL     OW57367   1.102   3.778   7.573
18512SOL    HW157368   1.106   3.874   7.579
18512SOL    HW257369   1.162   3.756   7.502
18513SOL     OW57370   9.541   6.486   6.088
18513SOL    HW157371   9.464   6.490   6.032
18513SOL    HW257372   9.540   6.568   6.138
18514SOL     OW57373   8.669   3.750  13.543
18514SOL    HW157374   8.601   3.815  13.528
18514SOL    HW257375   8.736   3.796  13.593
18515SOL     OW57376   6.205  12.069   4.268
18515SOL    HW157377   6.221  12.160   4.243
18515SOL    HW257378   6.269  12.051   4.336
18516SOL     OW57379  10.326   7.497   6.928
18516SOL    HW157380  10.342   7.487   6.834
18516SOL    HW257381  10.231   7.511   6.934
18517SOL     OW57382   9.376  14.006   6.287
18517SOL    HW157383   9.292  14.051   6.296
18517SOL    HW257384   9.428  14.063   6.230
18518SOL     OW57385  13.764   8.414  12.814
18518SOL    HW157386  13.832   8.441  12.876
18518SOL    HW257387  13.707   8.491  12.807
18519SOL     OW57388   5.513   1.369   3.070
18519SOL    HW157389   5.559   1.337   3.148
18519SOL    HW257390   5.427   1.395   3.101
18520SOL     OW57391  12.794   2.104   2.206
18520SOL    HW157392  12.884   2.070   2.207
18520SOL    HW257393  12.739   2.026   2.193
18521SOL     OW57394   4.955   9.758  11.422
18521SOL    HW157395   4.946   9.731  11.331
18521SOL    HW257396   5.049   9.748  11.441
18522SOL     OW57397   7.278   1.167  13.926
18522SOL    HW157398   7.359   1.212  13.950
18522SOL    HW257399   7.284   1.157  13.831
18523SOL     OW57400   9.415   8.912   4.498
18523SOL    HW157401   9.442   8.930   4.589
18523SOL    HW257402   9.480   8.849   4.467
18524SOL     OW57403   5.138   0.152   9.156
18524SOL    HW157404   5.164   0.225   9.100
18524SOL    HW257405   5.220   0.108   9.178
18525SOL     OW57406   8.164  10.786  12.109
18525SOL    HW157407   8.075  10.751  12.110
18525SOL    HW257408   8.209  10.739  12.179
18526SOL     OW57409   0.527   8.297   7.784
18526SOL    HW157410   0.436   8.273   7.764
18526SOL    HW257411   0.536   8.283   7.878
18527SOL     OW57412   1.749   4.050   9.157
18527SOL    HW157413   1.693   4.126   9.169
18527SOL    HW257414   1.722   3.988   9.225
18528SOL     OW57415   6.194  13.471   0.534
18528SOL    HW157416   6.125  13.513   0.483
18528SOL    HW257417   6.179  13.501   0.624
18529SOL     OW57418   2.078  14.276  13.412
18529SOL    HW157419   2.117  14.242  13.332
18529SOL    HW257420   2.041  14.199  13.456
18530SOL     OW57421   9.076  12.861   8.635
18530SOL    HW157422   9.030  12.802   8.694
18530SOL    HW257423   9.082  12.943   8.684
18531SOL     OW57424   8.632   4.664   4.769
18531SOL    HW157425   8.623   4.583   4.718
18531SOL    HW257426   8.695   4.717   4.719
18532SOL     OW57427  10.071   7.386   9.917
18532SOL    HW157428  10.025   7.444   9.978
18532SOL    HW257429  10.148   7.436   9.889
18533SOL     OW57430   7.158   6.924  12.936
18533SOL    HW157431   7.090   6.861  12.958
18533SOL    HW257432   7.210   6.932  13.016
18534SOL     OW57433   0.402  11.791   3.069
18534SOL    HW157434   0.387  11.698   3.056
18534SOL    HW257435   0.346  11.834   3.005
18535SOL     OW57436   7.871   6.927  12.438
18535SOL    HW157437   7.958   6.935  12.478
18535SOL    HW257438   7.818   6.993  12.482
18536SOL     OW57439   2.135  14.595   3.922
18536SOL    HW157440   2.174  14.508   3.929
18536SOL    HW257441   2.052  14.588   3.969
18537SOL     OW57442  11.414   2.812   2.355
18537SOL    HW157443  11.343   2.751   2.337
18537SOL    HW257444  11.454   2.827   2.269
18538SOL     OW57445   8.577  11.165  12.106
18538SOL    HW157446   8.672  11.160  12.109
18538SOL    HW257447   8.549  11.154  12.197
18539SOL     OW57448   7.743  10.394  10.112
18539SOL    HW157449   7.821  10.378  10.165
18539SOL    HW257450   7.711  10.307  10.088
18540SOL     OW57451   3.736   5.753   9.036
18540SOL    HW157452   3.792   5.828   9.012
18540SOL    HW257453   3.779   5.715   9.112
18541SOL     OW57454  12.891  10.143   1.801
18541SOL    HW157455  12.868  10.160   1.710
18541SOL    HW257456  12.861  10.221   1.848
18542SOL     OW57457  13.177   5.125   2.547
18542SOL    HW157458  13.177   5.207   2.597
18542SOL    HW257459  13.098   5.129   2.495
18543SOL     OW57460   8.280   0.700   5.942
18543SOL    HW157461   8.323   0.658   6.016
18543SOL    HW257462   8.341   0.769   5.914
18544SOL     OW57463   7.560   2.990  12.554
18544SOL    HW157464   7.495   3.053  12.584
18544SOL    HW257465   7.621   2.982  12.627
18545SOL     OW57466  14.065  11.724   1.577
18545SOL    HW157467  14.134  11.674   1.620
18545SOL    HW257468  14.030  11.781   1.646
18546SOL     OW57469   3.955   3.142   0.951
18546SOL    HW157470   3.907   3.068   0.988
18546SOL    HW257471   3.888   3.197   0.912
18547SOL     OW57472  14.273   7.119  14.083
18547SOL    HW157473  14.281   7.051  14.149
18547SOL    HW257474  14.360   7.125  14.044
18548SOL     OW57475  10.138   1.994  10.807
18548SOL    HW157476  10.163   2.004  10.715
18548SOL    HW257477  10.146   1.900  10.824
18549SOL     OW57478   6.379  14.525   9.530
18549SOL    HW157479   6.402  14.612   9.562
18549SOL    HW257480   6.456  14.495   9.482
18550SOL     OW57481   9.978   6.283   2.029
18550SOL    HW157482  10.047   6.255   2.089
18550SOL    HW257483   9.986   6.224   1.954
18551SOL     OW57484   1.855  14.763   4.896
18551SOL    HW157485   1.797  14.688   4.885
18551SOL    HW257486   1.934  14.739   4.847
18552SOL     OW57487   8.243   8.155   6.681
18552SOL    HW157488   8.331   8.175   6.650
18552SOL    HW257489   8.208   8.093   6.617
18553SOL     OW57490   9.838  12.886   2.463
18553SOL    HW157491   9.829  12.941   2.385
18553SOL    HW257492   9.750  12.852   2.479
18554SOL     OW57493   7.730   5.800   5.898
18554SOL    HW157494   7.775   5.875   5.859
18554SOL    HW257495   7.795   5.760   5.955
18555SOL     OW57496  11.368  14.105   9.185
18555SOL    HW157497  11.453  14.096   9.141
18555SOL    HW257498  11.390  14.142   9.271
18556SOL     OW57499  13.009   5.971  12.502
18556SOL    HW157500  13.041   6.040  12.444
18556SOL    HW257501  12.996   5.895  12.445
18557SOL     OW57502   2.766   1.568   2.248
18557SOL    HW157503   2.804   1.619   2.177
18557SOL    HW257504   2.768   1.478   2.216
18558SOL     OW57505   1.375   4.797   2.339
18558SOL    HW157506   1.296   4.801   2.285
18558SOL    HW257507   1.446   4.783   2.276
18559SOL     OW57508   7.063  13.193  12.069
18559SOL    HW157509   7.077  13.101  12.046
18559SOL    HW257510   7.127  13.211  12.138
18560SOL     OW57511  12.412   7.117   1.856
18560SOL    HW157512  12.450   7.099   1.942
18560SOL    HW257513  12.488   7.119   1.797
18561SOL     OW57514   6.616  10.345  10.819
18561SOL    HW157515   6.559  10.418  10.845
18561SOL    HW257516   6.558  10.269  10.820
18562SOL     OW57517   6.610   6.785   7.688
18562SOL    HW157518   6.551   6.803   7.615
18562SOL    HW257519   6.561   6.724   7.744
18563SOL     OW57520   4.242   4.325   0.684
18563SOL    HW157521   4.250   4.230   0.694
18563SOL    HW257522   4.219   4.337   0.592
18564SOL     OW57523   6.310   4.173   0.160
18564SOL    HW157524   6.215   4.164   0.159
18564SOL    HW257525   6.326   4.252   0.211
18565SOL     OW57526  13.582   0.364   5.524
18565SOL    HW157527  13.615   0.433   5.465
18565SOL    HW257528  13.560   0.410   5.605
18566SOL     OW57529   6.950   9.546  12.115
18566SOL    HW157530   6.887   9.531  12.045
18566SOL    HW257531   6.902   9.528  12.195
18567SOL     OW57532   7.917   5.429   6.381
18567SOL    HW157533   7.926   5.512   6.428
18567SOL    HW257534   8.007   5.399   6.369
18568SOL     OW57535   8.365  13.643  10.567
18568SOL    HW157536   8.344  13.559  10.609
18568SOL    HW257537   8.306  13.706  10.608
18569SOL     OW57538   7.275   9.603   8.234
18569SOL    HW157539   7.287   9.617   8.328
18569SOL    HW257540   7.240   9.514   8.227
18570SOL     OW57541   6.608  12.488   4.698
18570SOL    HW157542   6.611  12.473   4.793
18570SOL    HW257543   6.680  12.550   4.682
18571SOL     OW57544   1.972   7.606   6.990
18571SOL    HW157545   2.026   7.598   6.911
18571SOL    HW257546   1.999   7.689   7.029
18572SOL     OW57547   3.540   9.293  12.146
18572SOL    HW157548   3.585   9.256  12.221
18572SOL    HW257549   3.606   9.295  12.077
18573SOL     OW57550   4.299  11.090   8.746
18573SOL    HW157551   4.276  11.009   8.790
18573SOL    HW257552   4.314  11.153   8.817
18574SOL     OW57553   6.184  14.681   4.926
18574SOL    HW157554   6.098  14.722   4.910
18574SOL    HW257555   6.219  14.666   4.838
18575SOL     OW57556   7.361  12.905  13.570
18575SOL    HW157557   7.388  12.963  13.499
18575SOL    HW257558   7.266  12.902  13.564
18576SOL     OW57559  12.753   0.569  14.229
18576SOL    HW157560  12.826   0.539  14.175
18576SOL    HW257561  12.714   0.640  14.179
18577SOL     OW57562   9.730   4.779   3.287
18577SOL    HW157563   9.643   4.743   3.307
18577SOL    HW257564   9.718   4.874   3.290
18578SOL     OW57565  12.006   4.111  11.033
18578SOL    HW157566  12.029   4.201  11.058
18578SOL    HW257567  12.087   4.062  11.044
18579SOL     OW57568   8.158  13.075   7.008
18579SOL    HW157569   8.112  13.156   7.031
18579SOL    HW257570   8.190  13.042   7.092
18580SOL     OW57571  14.490   9.346   1.123
18580SOL    HW157572  14.533   9.420   1.080
18580SOL    HW257573  14.463   9.380   1.209
18581SOL     OW57574   8.476   0.761  13.722
18581SOL    HW157575   8.549   0.741  13.782
18581SOL    HW257576   8.471   0.856  13.722
18582SOL     OW57577  12.783  12.866   4.875
18582SOL    HW157578  12.747  12.926   4.940
18582SOL    HW257579  12.851  12.917   4.831
18583SOL     OW57580   3.844  13.213  12.005
18583SOL    HW157581   3.757  13.206  12.046
18583SOL    HW257582   3.832  13.275  11.934
18584SOL     OW57583   7.843   8.064   6.441
18584SOL    HW157584   7.857   8.124   6.368
18584SOL    HW257585   7.748   8.056   6.449
18585SOL     OW57586  13.238   7.946   8.153
18585SOL    HW157587  13.229   7.876   8.088
18585SOL    HW257588  13.149   7.963   8.183
18586SOL     OW57589   1.645   9.472   5.029
18586SOL    HW157590   1.554   9.501   5.028
18586SOL    HW257591   1.675   9.484   4.939
18587SOL     OW57592   9.961   3.780   8.261
18587SOL    HW157593   9.996   3.869   8.259
18587SOL    HW257594   9.953   3.760   8.355
18588SOL     OW57595   8.114   0.807   0.185
18588SOL    HW157596   8.129   0.843   0.273
18588SOL    HW257597   8.189   0.838   0.135
18589SOL     OW57598   9.108   2.799   0.816
18589SOL    HW157599   9.043   2.840   0.759
18589SOL    HW257600   9.130   2.717   0.771
18590SOL     OW57601  11.861   4.953   4.176
18590SOL    HW157602  11.893   4.876   4.129
18590SOL    HW257603  11.940   5.005   4.192
18591SOL     OW57604  12.967  13.164   9.354
18591SOL    HW157605  12.979  13.069   9.353
18591SOL    HW257606  13.022  13.195   9.426
18592SOL     OW57607   3.051  14.851   5.024
18592SOL    HW157608   3.016  14.767   5.053
18592SOL    HW257609   2.984   0.038   5.049
18593SOL     OW57610   6.802  14.026  10.879
18593SOL    HW157611   6.895  14.008  10.894
18593SOL    HW257612   6.790  14.116  10.908
18594SOL     OW57613   0.740  10.069   5.587
18594SOL    HW157614   0.809  10.002   5.580
18594SOL    HW257615   0.665  10.029   5.543
18595SOL     OW57616  14.127  13.197   8.363
18595SOL    HW157617  14.158  13.141   8.292
18595SOL    HW257618  14.119  13.284   8.323
18596SOL     OW57619   8.448   2.521   7.792
18596SOL    HW157620   8.406   2.607   7.790
18596SOL    HW257621   8.489   2.516   7.878
18597SOL     OW57622   5.166   4.129   1.198
18597SOL    HW157623   5.109   4.087   1.134
18597SOL    HW257624   5.254   4.102   1.172
18598SOL     OW57625   3.661   6.700   8.606
18598SOL    HW157626   3.729   6.761   8.634
18598SOL    HW257627   3.682   6.619   8.652
18599SOL     OW57628   0.113  12.613   3.877
18599SOL    HW157629   0.106  12.708   3.881
18599SOL    HW257630   0.156  12.588   3.959
18600SOL     OW57631   5.559   9.820   8.962
18600SOL    HW157632   5.554   9.724   8.963
18600SOL    HW257633   5.473   9.849   8.994
18601SOL     OW57634   0.012  11.778   5.903
18601SOL    HW157635  14.818  11.797   5.967
18601SOL    HW257636   0.090  11.818   5.941
18602SOL     OW57637   6.991  12.015   9.544
18602SOL    HW157638   7.085  12.021   9.527
18602SOL    HW257639   6.952  12.081   9.486
18603SOL     OW57640  10.420  12.345   4.294
18603SOL    HW157641  10.463  12.269   4.256
18603SOL    HW257642  10.354  12.370   4.229
18604SOL     OW57643   4.850   7.765   8.843
18604SOL    HW157644   4.929   7.753   8.790
18604SOL    HW257645   4.877   7.739   8.931
18605SOL     OW57646   7.595  14.811   7.341
18605SOL    HW157647   7.544  14.856   7.409
18605SOL    HW257648   7.540  14.738   7.314
18606SOL     OW57649   8.555   5.594   9.761
18606SOL    HW157650   8.576   5.684   9.788
18606SOL    HW257651   8.468   5.578   9.799
18607SOL     OW57652   7.105   4.429   1.890
18607SOL    HW157653   7.111   4.388   1.977
18607SOL    HW257654   7.186   4.403   1.846
18608SOL     OW57655   3.204   1.388   2.177
18608SOL    HW157656   3.252   1.456   2.224
18608SOL    HW257657   3.191   1.423   2.089
18609SOL     OW57658   7.034  10.090  13.537
18609SOL    HW157659   7.119  10.051  13.518
18609SOL    HW257660   6.985  10.021  13.581
18610SOL     OW57661   0.274   8.794   0.221
18610SOL    HW157662   0.207   8.816   0.286
18610SOL    HW257663   0.335   8.736   0.267
18611SOL     OW57664  10.460   0.678   6.844
18611SOL    HW157665  10.426   0.752   6.793
18611SOL    HW257666  10.555   0.691   6.846
18612SOL     OW57667   4.168   4.984  11.654
18612SOL    HW157668   4.256   5.022  11.650
18612SOL    HW257669   4.110   5.060  11.656
18613SOL     OW57670   0.592   7.870   3.806
18613SOL    HW157671   0.538   7.939   3.844
18613SOL    HW257672   0.533   7.795   3.800
18614SOL     OW57673  12.585   8.123  13.094
18614SOL    HW157674  12.656   8.153  13.037
18614SOL    HW257675  12.569   8.198  13.152
18615SOL     OW57676  11.251  11.222   5.447
18615SOL    HW157677  11.226  11.265   5.365
18615SOL    HW257678  11.346  11.232   5.450
18616SOL     OW57679   1.506  12.118   7.414
18616SOL    HW157680   1.440  12.158   7.357
18616SOL    HW257681   1.456  12.065   7.476
18617SOL     OW57682   0.553   3.262   5.644
18617SOL    HW157683   0.600   3.320   5.585
18617SOL    HW257684   0.576   3.292   5.732
18618SOL     OW57685   0.692   4.332  12.450
18618SOL    HW157686   0.596   4.337  12.441
18618SOL    HW257687   0.725   4.392  12.383
18619SOL     OW57688   6.793   2.916   7.302
18619SOL    HW157689   6.812   2.938   7.211
18619SOL    HW257690   6.840   2.835   7.318
18620SOL     OW57691   1.734   8.207   5.675
18620SOL    HW157692   1.657   8.239   5.627
18620SOL    HW257693   1.701   8.133   5.727
18621SOL     OW57694   8.074   0.560   5.842
18621SOL    HW157695   8.009   0.558   5.913
18621SOL    HW257696   8.155   0.591   5.884
18622SOL     OW57697   4.745  11.750  10.382
18622SOL    HW157698   4.784  11.820  10.330
18622SOL    HW257699   4.797  11.672  10.361
18623SOL     OW57700  14.266   1.453   5.726
18623SOL    HW157701  14.340   1.432   5.669
18623SOL    HW257702  14.237   1.368   5.759
18624SOL     OW57703   0.121   6.375  10.788
18624SOL    HW157704   0.044   6.429  10.770
18624SOL    HW257705   0.121   6.366  10.884
18625SOL     OW57706  14.439   5.196  12.845
18625SOL    HW157707  14.472   5.130  12.784
18625SOL    HW257708  14.498   5.191  12.920
18626SOL     OW57709   2.906   8.719   2.437
18626SOL    HW157710   2.855   8.661   2.494
18626SOL    HW257711   2.919   8.668   2.357
18627SOL     OW57712  13.028  11.978   3.723
18627SOL    HW157713  12.994  12.020   3.803
18627SOL    HW257714  13.120  12.004   3.721
18628SOL     OW57715  14.020   1.359   8.913
18628SOL    HW157716  14.011   1.423   8.843
18628SOL    HW257717  13.955   1.292   8.892
18629SOL     OW57718   3.290   7.804   3.210
18629SOL    HW157719   3.219   7.866   3.194
18629SOL    HW257720   3.337   7.839   3.285
18630SOL     OW57721   6.679   4.965  10.063
18630SOL    HW157722   6.662   4.927   9.977
18630SOL    HW257723   6.640   5.052  10.059
18631SOL     OW57724   3.762   5.624   3.989
18631SOL    HW157725   3.717   5.649   3.909
18631SOL    HW257726   3.701   5.566   4.034
18632SOL     OW57727   2.110   8.695   3.197
18632SOL    HW157728   2.080   8.644   3.121
18632SOL    HW257729   2.148   8.774   3.159
18633SOL     OW57730   5.130   6.676   1.654
18633SOL    HW157731   5.038   6.694   1.635
18633SOL    HW257732   5.141   6.698   1.746
18634SOL     OW57733   6.687   4.744  12.238
18634SOL    HW157734   6.619   4.807  12.263
18634SOL    HW257735   6.754   4.797  12.195
18635SOL     OW57736   9.209   4.302   9.292
18635SOL    HW157737   9.284   4.255   9.256
18635SOL    HW257738   9.135   4.275   9.237
18636SOL     OW57739   9.007   5.375   7.071
18636SOL    HW157740   9.042   5.286   7.066
18636SOL    HW257741   9.004   5.405   6.979
18637SOL     OW57742   5.378  13.246   5.642
18637SOL    HW157743   5.430  13.181   5.594
18637SOL    HW257744   5.441  13.313   5.666
18638SOL     OW57745  13.125   7.294   2.884
18638SOL    HW157746  13.119   7.205   2.851
18638SOL    HW257747  13.034   7.324   2.889
18639SOL     OW57748   2.743   2.477  11.298
18639SOL    HW157749   2.684   2.551  11.282
18639SOL    HW257750   2.695   2.422  11.360
18640SOL     OW57751  10.444   3.916  14.015
18640SOL    HW157752  10.385   3.859  13.967
18640SOL    HW257753  10.392   3.993  14.036
18641SOL     OW57754   7.008   6.264  10.971
18641SOL    HW157755   7.001   6.354  11.002
18641SOL    HW257756   6.990   6.269  10.877
18642SOL     OW57757   5.330   0.416   5.189
18642SOL    HW157758   5.374   0.339   5.153
18642SOL    HW257759   5.370   0.490   5.144
18643SOL     OW57760   4.118   7.448   5.249
18643SOL    HW157761   4.113   7.503   5.327
18643SOL    HW257762   4.201   7.472   5.208
18644SOL     OW57763   2.251   4.337   7.120
18644SOL    HW157764   2.263   4.269   7.187
18644SOL    HW257765   2.174   4.309   7.071
18645SOL     OW57766   5.104   8.073  14.687
18645SOL    HW157767   5.085   7.984  14.715
18645SOL    HW257768   5.122   8.120  14.769
18646SOL     OW57769  11.832   5.384   0.386
18646SOL    HW157770  11.837   5.477   0.363
18646SOL    HW257771  11.739   5.363   0.381
18647SOL     OW57772  10.341   5.657  11.440
18647SOL    HW157773  10.337   5.726  11.373
18647SOL    HW257774  10.402   5.593  11.404
18648SOL     OW57775   3.194   8.077  13.319
18648SOL    HW157776   3.173   8.007  13.257
18648SOL    HW257777   3.213   8.032  13.401
18649SOL     OW57778   9.102   3.667   5.524
18649SOL    HW157779   9.056   3.596   5.479
18649SOL    HW257780   9.077   3.746   5.476
18650SOL     OW57781   4.789  12.840  13.915
18650SOL    HW157782   4.753  12.797  13.992
18650SOL    HW257783   4.812  12.928  13.944
18651SOL     OW57784  12.671   4.201   0.727
18651SOL    HW157785  12.748   4.219   0.781
18651SOL    HW257786  12.597   4.214   0.786
18652SOL     OW57787   4.479  13.300  12.350
18652SOL    HW157788   4.406  13.323  12.293
18652SOL    HW257789   4.451  13.218  12.393
18653SOL     OW57790   5.199   4.131  12.789
18653SOL    HW157791   5.216   4.043  12.754
18653SOL    HW257792   5.250   4.135  12.870
18654SOL     OW57793   7.848  12.363   3.322
18654SOL    HW157794   7.864  12.306   3.247
18654SOL    HW257795   7.817  12.304   3.391
18655SOL     OW57796   1.225   8.733   4.272
18655SOL    HW157797   1.155   8.748   4.209
18655SOL    HW257798   1.254   8.820   4.297
18656SOL     OW57799   8.727  12.284  11.833
18656SOL    HW157800   8.661  12.334  11.787
18656SOL    HW257801   8.681  12.206  11.865
18657SOL     OW57802   4.878  12.683  11.251
18657SOL    HW157803   4.969  12.658  11.234
18657SOL    HW257804   4.883  12.773  11.282
18658SOL     OW57805   4.652   1.478  10.903
18658SOL    HW157806   4.708   1.523  10.967
18658SOL    HW257807   4.711   1.454  10.832
18659SOL     OW57808  11.248  12.552   7.438
18659SOL    HW157809  11.200  12.528   7.517
18659SOL    HW257810  11.295  12.471   7.414
18660SOL     OW57811   3.667  14.387  14.864
18660SOL    HW157812   3.679  14.482  14.858
18660SOL    HW257813   3.725  14.352  14.796
18661SOL     OW57814  12.942   0.633   3.542
18661SOL    HW157815  13.004   0.646   3.613
18661SOL    HW257816  12.941   0.717   3.496
18662SOL     OW57817   1.259  14.559   1.676
18662SOL    HW157818   1.308  14.505   1.614
18662SOL    HW257819   1.266  14.513   1.759
18663SOL     OW57820  11.127  12.281   9.143
18663SOL    HW157821  11.115  12.240   9.057
18663SOL    HW257822  11.219  12.268   9.163
18664SOL     OW57823  12.677   7.065   0.996
18664SOL    HW157824  12.686   7.004   0.922
18664SOL    HW257825  12.766   7.099   1.011
18665SOL     OW57826   9.567  11.561   4.083
18665SOL    HW157827   9.583  11.618   4.158
18665SOL    HW257828   9.514  11.614   4.023
18666SOL     OW57829   7.841   2.724  11.118
18666SOL    HW157830   7.795   2.658  11.066
18666SOL    HW257831   7.779   2.747  11.187
18667SOL     OW57832  12.604   4.953   1.487
18667SOL    HW157833  12.526   4.911   1.524
18667SOL    HW257834  12.589   4.954   1.393
18668SOL     OW57835   3.751  14.436  14.178
18668SOL    HW157836   3.837  14.404  14.152
18668SOL    HW257837   3.691  14.400  14.113
18669SOL     OW57838  11.531   4.910  13.424
18669SOL    HW157839  11.446   4.882  13.391
18669SOL    HW257840  11.545   4.996  13.386
18670SOL     OW57841   6.516   3.683   5.093
18670SOL    HW157842   6.458   3.681   5.017
18670SOL    HW257843   6.588   3.626   5.070
18671SOL     OW57844   5.938  10.020  12.184
18671SOL    HW157845   5.892  10.061  12.111
18671SOL    HW257846   5.946   9.928  12.159
18672SOL     OW57847   9.334   8.112  14.508
18672SOL    HW157848   9.301   8.023  14.518
18672SOL    HW257849   9.427   8.101  14.488
18673SOL     OW57850   3.068   8.215   7.232
18673SOL    HW157851   3.151   8.210   7.278
18673SOL    HW257852   3.051   8.308   7.222
18674SOL     OW57853   9.597   1.100   2.662
18674SOL    HW157854   9.663   1.114   2.730
18674SOL    HW257855   9.629   1.151   2.588
18675SOL     OW57856   0.016  14.304   9.746
18675SOL    HW157857   0.067  14.282   9.824
18675SOL    HW257858  14.827  14.234   9.739
18676SOL     OW57859   1.307   8.892   8.292
18676SOL    HW157860   1.328   8.957   8.359
18676SOL    HW257861   1.347   8.927   8.212
18677SOL     OW57862   4.394  14.767   4.539
18677SOL    HW157863   4.478  14.722   4.531
18677SOL    HW257864   4.351  14.753   4.454
18678SOL     OW57865   1.952   5.789   1.093
18678SOL    HW157866   1.879   5.733   1.121
18678SOL    HW257867   1.927   5.821   1.007
18679SOL     OW57868  13.727   9.260  12.732
18679SOL    HW157869  13.714   9.345  12.775
18679SOL    HW257870  13.651   9.209  12.757
18680SOL     OW57871   2.122   2.249   5.538
18680SOL    HW157872   2.172   2.292   5.608
18680SOL    HW257873   2.067   2.186   5.585
18681SOL     OW57874  12.924   2.131   5.185
18681SOL    HW157875  12.858   2.123   5.253
18681SOL    HW257876  12.989   2.191   5.222
18682SOL     OW57877   3.976   4.984   2.242
18682SOL    HW157878   3.990   5.076   2.264
18682SOL    HW257879   3.925   4.949   2.315
18683SOL     OW57880   5.810   9.752   6.095
18683SOL    HW157881   5.815   9.665   6.135
18683SOL    HW257882   5.891   9.795   6.124
18684SOL     OW57883   4.950  13.536   6.783
18684SOL    HW157884   4.908  13.611   6.741
18684SOL    HW257885   4.895  13.461   6.758
18685SOL     OW57886  12.592   5.484   4.926
18685SOL    HW157887  12.523   5.505   4.863
18685SOL    HW257888  12.647   5.562   4.929
18686SOL     OW57889  14.288   2.888   0.972
18686SOL    HW157890  14.245   2.810   1.008
18686SOL    HW257891  14.234   2.912   0.896
18687SOL     OW57892   5.355   0.429   2.430
18687SOL    HW157893   5.324   0.509   2.472
18687SOL    HW257894   5.275   0.383   2.403
18688SOL     OW57895  12.049   6.017   9.619
18688SOL    HW157896  12.001   5.934   9.623
18688SOL    HW257897  12.105   6.017   9.697
18689SOL     OW57898   0.086  11.812   0.342
18689SOL    HW157899   0.131  11.890   0.377
18689SOL    HW257900   0.009  11.847   0.298
18690SOL     OW57901   7.704   3.492  12.247
18690SOL    HW157902   7.797   3.497  12.224
18690SOL    HW257903   7.668   3.577  12.219
18691SOL     OW57904   5.691  10.976   6.010
18691SOL    HW157905   5.689  10.893   6.057
18691SOL    HW257906   5.661  11.040   6.075
18692SOL     OW57907   8.461   8.419   1.375
18692SOL    HW157908   8.423   8.423   1.462
18692SOL    HW257909   8.407   8.477   1.322
18693SOL     OW57910   5.208  13.362   2.431
18693SOL    HW157911   5.295  13.353   2.469
18693SOL    HW257912   5.176  13.446   2.462
18694SOL     OW57913   0.201  10.592  11.655
18694SOL    HW157914   0.278  10.559  11.609
18694SOL    HW257915   0.151  10.639  11.587
18695SOL     OW57916  12.185   6.292   2.289
18695SOL    HW157917  12.177   6.206   2.329
18695SOL    HW257918  12.257   6.334   2.336
18696SOL     OW57919   0.342   9.127   0.945
18696SOL    HW157920   0.412   9.116   1.010
18696SOL    HW257921   0.272   9.172   0.993
18697SOL     OW57922   4.454   7.549  10.386
18697SOL    HW157923   4.418   7.484  10.326
18697SOL    HW257924   4.492   7.617  10.328
18698SOL     OW57925   9.227  12.658   5.090
18698SOL    HW157926   9.148  12.686   5.045
18698SOL    HW257927   9.259  12.584   5.038
18699SOL     OW57928   2.557  12.604  14.136
18699SOL    HW157929   2.575  12.527  14.082
18699SOL    HW257930   2.559  12.570  14.226
18700SOL     OW57931  14.466   3.288   0.959
18700SOL    HW157932  14.534   3.222   0.972
18700SOL    HW257933  14.401   3.269   1.028
18701SOL     OW57934   7.069   1.333   9.497
18701SOL    HW157935   7.003   1.370   9.555
18701SOL    HW257936   7.027   1.256   9.459
18702SOL     OW57937  11.070   3.423   4.193
18702SOL    HW157938  11.058   3.357   4.262
18702SOL    HW257939  11.158   3.406   4.159
18703SOL     OW57940   7.562   9.489   2.101
18703SOL    HW157941   7.472   9.486   2.134
18703SOL    HW257942   7.588   9.581   2.111
18704SOL     OW57943   3.758   1.175   2.581
18704SOL    HW157944   3.824   1.109   2.560
18704SOL    HW257945   3.803   1.238   2.637
18705SOL     OW57946   6.146  10.418   1.406
18705SOL    HW157947   6.195  10.469   1.470
18705SOL    HW257948   6.054  10.443   1.421
18706SOL     OW57949   7.404   1.648   6.110
18706SOL    HW157950   7.418   1.667   6.018
18706SOL    HW257951   7.485   1.679   6.153
18707SOL     OW57952   5.496   2.285  11.708
18707SOL    HW157953   5.545   2.261  11.630
18707SOL    HW257954   5.407   2.257  11.690
18708SOL     OW57955   7.630   3.730   1.622
18708SOL    HW157956   7.606   3.815   1.660
18708SOL    HW257957   7.687   3.753   1.549
18709SOL     OW57958   0.014  11.839  11.620
18709SOL    HW157959   0.005  11.834  11.525
18709SOL    HW257960   0.053  11.756  11.645
18710SOL     OW57961   6.651   9.591   8.914
18710SOL    HW157962   6.711   9.528   8.954
18710SOL    HW257963   6.695   9.619   8.833
18711SOL     OW57964   4.519   1.280   7.049
18711SOL    HW157965   4.462   1.244   6.981
18711SOL    HW257966   4.588   1.325   7.001
18712SOL     OW57967   1.211  10.094  14.623
18712SOL    HW157968   1.246  10.172  14.667
18712SOL    HW257969   1.117  10.097  14.642
18713SOL     OW57970   8.907  10.770  10.977
18713SOL    HW157971   8.880  10.766  10.885
18713SOL    HW257972   8.999  10.798  10.973
18714SOL     OW57973  14.736  13.571   4.919
18714SOL    HW157974  14.654  13.522   4.916
18714SOL    HW257975  14.736  13.612   5.005
18715SOL     OW57976  11.207   7.436   0.420
18715SOL    HW157977  11.151   7.389   0.482
18715SOL    HW257978  11.153   7.510   0.391
18716SOL     OW57979   8.475  13.156  12.502
18716SOL    HW157980   8.473  13.246  12.535
18716SOL    HW257981   8.394  13.116  12.535
18717SOL     OW57982   9.627   4.455   3.890
18717SOL    HW157983   9.671   4.378   3.925
18717SOL    HW257984   9.696   4.521   3.880
18718SOL     OW57985   9.125  12.556   6.062
18718SOL    HW157986   9.062  12.485   6.048
18718SOL    HW257987   9.098  12.624   6.001
18719SOL     OW57988  12.785   1.235  14.790
18719SOL    HW157989  12.713   1.173  14.799
18719SOL    HW257990  12.856   1.183  14.751
18720SOL     OW57991  14.209  10.965  10.027
18720SOL    HW157992  14.180  10.885  10.071
18720SOL    HW257993  14.279  10.936   9.968
18721SOL     OW57994  14.457  14.827   2.746
18721SOL    HW157995  14.397  14.853   2.816
18721SOL    HW257996  14.400  14.803   2.674
18722SOL     OW57997  13.725  13.661   2.592
18722SOL    HW157998  13.817  13.649   2.569
18722SOL    HW257999  13.719  13.638   2.684
18723SOL     OW58000   3.000   5.368   0.011
18723SOL    HW158001   2.940   5.428   0.056
18723SOL    HW258002   3.032   5.417  14.812
18724SOL     OW58003  11.859  13.534   6.416
18724SOL    HW158004  11.881  13.553   6.507
18724SOL    HW258005  11.782  13.587   6.399
18725SOL     OW58006   4.135   3.785   8.485
18725SOL    HW158007   4.157   3.695   8.506
18725SOL    HW258008   4.106   3.782   8.394
18726SOL     OW58009   2.671   9.201  14.593
18726SOL    HW158010   2.705   9.194  14.504
18726SOL    HW258011   2.577   9.209  14.582
18727SOL     OW58012   5.543   9.282  12.412
18727SOL    HW158013   5.527   9.377  12.416
18727SOL    HW258014   5.516   9.250  12.498
18728SOL     OW58015   7.884   9.991   2.452
18728SOL    HW158016   7.808  10.009   2.396
18728SOL    HW258017   7.852   9.929   2.517
18729SOL     OW58018   6.052   1.497   6.214
18729SOL    HW158019   6.122   1.484   6.150
18729SOL    HW258020   6.065   1.428   6.278
18730SOL     OW58021   1.050   9.672   6.897
18730SOL    HW158022   1.075   9.622   6.976
18730SOL    HW258023   1.072   9.614   6.825
18731SOL     OW58024   3.026   3.141   1.581
18731SOL    HW158025   2.950   3.179   1.537
18731SOL    HW258026   3.014   3.047   1.571
18732SOL     OW58027  12.225   7.435  11.278
18732SOL    HW158028  12.206   7.344  11.254
18732SOL    HW258029  12.264   7.430  11.365
18733SOL     OW58030   8.463   6.951   4.972
18733SOL    HW158031   8.526   6.879   4.970
18733SOL    HW258032   8.508   7.024   4.930
18734SOL     OW58033   1.837   9.335   1.964
18734SOL    HW158034   1.863   9.417   2.005
18734SOL    HW258035   1.764   9.303   2.018
18735SOL     OW58036   8.139   0.940  11.894
18735SOL    HW158037   8.220   0.991  11.894
18735SOL    HW258038   8.096   0.963  11.976
18736SOL     OW58039  10.998   5.990  13.899
18736SOL    HW158040  10.984   5.958  13.989
18736SOL    HW258041  11.054   5.924  13.859
18737SOL     OW58042   5.875   6.578  12.832
18737SOL    HW158043   5.887   6.492  12.791
18737SOL    HW258044   5.956   6.594  12.880
18738SOL     OW58045   5.992   0.816   5.583
18738SOL    HW158046   6.038   0.898   5.597
18738SOL    HW258047   6.059   0.748   5.590
18739SOL     OW58048  11.406   2.238   3.065
18739SOL    HW158049  11.471   2.244   2.995
18739SOL    HW258050  11.456   2.256   3.145
18740SOL     OW58051   0.955   3.930   5.877
18740SOL    HW158052   0.898   4.007   5.886
18740SOL    HW258053   0.990   3.916   5.965
18741SOL     OW58054   6.492   8.703  11.312
18741SOL    HW158055   6.415   8.710  11.256
18741SOL    HW258056   6.478   8.622  11.361
18742SOL     OW58057   1.409   5.251  14.253
18742SOL    HW158058   1.493   5.224  14.215
18742SOL    HW258059   1.369   5.169  14.284
18743SOL     OW58060  10.543  13.797  14.805
18743SOL    HW158061  10.584  13.819  14.721
18743SOL    HW258062  10.614  13.759  14.857
18744SOL     OW58063   9.184   8.107  10.455
18744SOL    HW158064   9.259   8.155  10.491
18744SOL    HW258065   9.111   8.167  10.465
18745SOL     OW58066  13.688  11.128   9.414
18745SOL    HW158067  13.706  11.211   9.370
18745SOL    HW258068  13.610  11.095   9.370
18746SOL     OW58069   4.114   5.137   8.965
18746SOL    HW158070   4.151   5.052   8.987
18746SOL    HW258071   4.182   5.201   8.988
18747SOL     OW58072   3.765  11.583   2.648
18747SOL    HW158073   3.685  11.545   2.684
18747SOL    HW258074   3.830  11.573   2.717
18748SOL     OW58075  14.258  14.630  11.749
18748SOL    HW158076  14.285  14.541  11.774
18748SOL    HW258077  14.252  14.627  11.654
18749SOL     OW58078   7.601  10.151   0.565
18749SOL    HW158079   7.666  10.168   0.496
18749SOL    HW258080   7.550  10.231   0.571
18750SOL     OW58081  10.070   0.315   4.341
18750SOL    HW158082   9.989   0.304   4.291
18750SOL    HW258083  10.100   0.404   4.319
18751SOL     OW58084   3.056   5.846  12.397
18751SOL    HW158085   3.015   5.852  12.483
18751SOL    HW258086   2.983   5.833  12.337
18752SOL     OW58087  13.819  14.802   2.336
18752SOL    HW158088  13.753  14.819   2.404
18752SOL    HW258089  13.898  14.779   2.384
18753SOL     OW58090   4.415   8.835   8.351
18753SOL    HW158091   4.450   8.867   8.434
18753SOL    HW258092   4.404   8.741   8.364
18754SOL     OW58093   9.963  10.213  14.434
18754SOL    HW158094   9.869  10.197  14.439
18754SOL    HW258095   9.995  10.151  14.368
18755SOL     OW58096   7.302   2.054   1.977
18755SOL    HW158097   7.264   1.967   1.964
18755SOL    HW258098   7.227   2.111   1.995
18756SOL     OW58099   0.345  12.890  11.711
18756SOL    HW158100   0.280  12.885  11.641
18756SOL    HW258101   0.381  12.801  11.717
18757SOL     OW58102   3.546   2.167   2.632
18757SOL    HW158103   3.625   2.112   2.635
18757SOL    HW258104   3.474   2.107   2.648
18758SOL     OW58105   5.855  10.983   6.889
18758SOL    HW158106   5.918  11.003   6.959
18758SOL    HW258107   5.801  11.062   6.883
18759SOL     OW58108   9.174  14.864   3.529
18759SOL    HW158109   9.086  14.834   3.505
18759SOL    HW258110   9.215   0.008   3.445
18760SOL     OW58111  11.303   9.227  13.745
18760SOL    HW158112  11.260   9.200  13.663
18760SOL    HW258113  11.395   9.238  13.721
18761SOL     OW58114  11.112   8.745   7.488
18761SOL    HW158115  11.055   8.797   7.431
18761SOL    HW258116  11.186   8.802   7.506
18762SOL     OW58117   3.024  12.593  14.684
18762SOL    HW158118   3.049  12.591  14.777
18762SOL    HW258119   3.079  12.525  14.643
18763SOL     OW58120  11.318   4.375  14.800
18763SOL    HW158121  11.411   4.353  14.800
18763SOL    HW258122  11.315   4.468  14.781
18764SOL     OW58123   5.338  10.558   6.334
18764SOL    HW158124   5.354  10.542   6.241
18764SOL    HW258125   5.348  10.653   6.344
18765SOL     OW58126  14.157   9.767   1.073
18765SOL    HW158127  14.103   9.690   1.093
18765SOL    HW258128  14.234   9.731   1.029
18766SOL     OW58129   2.270   4.364   9.758
18766SOL    HW158130   2.180   4.393   9.748
18766SOL    HW258131   2.305   4.360   9.669
18767SOL     OW58132  14.680   6.806   5.102
18767SOL    HW158133  14.724   6.724   5.079
18767SOL    HW258134  14.749   6.872   5.099
18768SOL     OW58135   4.857   8.313  10.408
18768SOL    HW158136   4.784   8.307  10.469
18768SOL    HW258137   4.816   8.329  10.323
18769SOL     OW58138   2.337  14.419   0.344
18769SOL    HW158139   2.350  14.418   0.249
18769SOL    HW258140   2.306  14.330   0.364
18770SOL     OW58141  12.277  14.238  11.159
18770SOL    HW158142  12.193  14.194  11.147
18770SOL    HW258143  12.314  14.241  11.071
18771SOL     OW58144   3.462   3.447   4.628
18771SOL    HW158145   3.486   3.365   4.585
18771SOL    HW258146   3.488   3.434   4.719
18772SOL     OW58147  14.830  11.430   6.498
18772SOL    HW158148  14.776  11.369   6.447
18772SOL    HW258149   0.017  11.465   6.435
18773SOL     OW58150  12.144   5.073   6.504
18773SOL    HW158151  12.076   5.117   6.453
18773SOL    HW258152  12.136   4.980   6.480
18774SOL     OW58153   3.133  13.968   3.596
18774SOL    HW158154   3.044  13.933   3.602
18774SOL    HW258155   3.175  13.942   3.678
18775SOL     OW58156   0.750  10.330  12.507
18775SOL    HW158157   0.658  10.346  12.529
18775SOL    HW258158   0.787  10.292  12.586
18776SOL     OW58159  12.291   4.470  10.295
18776SOL    HW158160  12.236   4.448  10.371
18776SOL    HW258161  12.316   4.386  10.258
18777SOL     OW58162  14.837   6.245   6.571
18777SOL    HW158163   0.029   6.224   6.506
18777SOL    HW258164  14.875   6.318   6.620
18778SOL     OW58165  14.666   6.098  10.633
18778SOL    HW158166  14.636   6.015  10.671
18778SOL    HW258167  14.754   6.079  10.602
18779SOL     OW58168   2.982   2.024  14.114
18779SOL    HW158169   3.008   1.934  14.131
18779SOL    HW258170   2.948   2.024  14.024
18780SOL     OW58171   7.739   4.454   2.571
18780SOL    HW158172   7.674   4.523   2.568
18780SOL    HW258173   7.770   4.445   2.481
18781SOL     OW58174   0.016   2.116   4.132
18781SOL    HW158175  14.812   2.084   4.090
18781SOL    HW258176  14.870   2.205   4.159
18782SOL     OW58177   6.625  14.503   9.387
18782SOL    HW158178   6.688  14.432   9.371
18782SOL    HW258179   6.669  14.561   9.449
18783SOL     OW58180  13.586  10.082  14.683
18783SOL    HW158181  13.549  10.114  14.601
18783SOL    HW258182  13.583   9.987  14.676
18784SOL     OW58183   1.770   3.328  14.784
18784SOL    HW158184   1.834   3.258  14.771
18784SOL    HW258185   1.687   3.282  14.800
18785SOL     OW58186   6.188   1.955   2.344
18785SOL    HW158187   6.192   1.953   2.440
18785SOL    HW258188   6.271   1.916   2.317
18786SOL     OW58189  10.481   2.693  14.192
18786SOL    HW158190  10.541   2.646  14.134
18786SOL    HW258191  10.525   2.775  14.210
18787SOL     OW58192   4.561   9.251   2.498
18787SOL    HW158193   4.577   9.264   2.404
18787SOL    HW258194   4.494   9.317   2.520
18788SOL     OW58195  12.850  11.612  14.751
18788SOL    HW158196  12.775  11.582  14.700
18788SOL    HW258197  12.894  11.675  14.694
18789SOL     OW58198   4.649   6.202  14.725
18789SOL    HW158199   4.675   6.264  14.657
18789SOL    HW258200   4.565   6.166  14.693
18790SOL     OW58201   5.239   5.618  12.583
18790SOL    HW158202   5.173   5.626  12.515
18790SOL    HW258203   5.189   5.604  12.664
18791SOL     OW58204  12.335  11.291   5.687
18791SOL    HW158205  12.304  11.314   5.775
18791SOL    HW258206  12.357  11.375   5.646
18792SOL     OW58207   8.326   8.754   0.285
18792SOL    HW158208   8.342   8.848   0.272
18792SOL    HW258209   8.399   8.712   0.239
18793SOL     OW58210   7.743   3.221  12.248
18793SOL    HW158211   7.703   3.307  12.258
18793SOL    HW258212   7.829   3.230  12.289
18794SOL     OW58213  10.318   2.116  12.660
18794SOL    HW158214  10.356   2.201  12.640
18794SOL    HW258215  10.269   2.092  12.581
18795SOL     OW58216   4.462   5.127   6.013
18795SOL    HW158217   4.380   5.126   5.964
18795SOL    HW258218   4.519   5.186   5.963
18796SOL     OW58219   9.220   4.404  10.982
18796SOL    HW158220   9.124   4.396  10.977
18796SOL    HW258221   9.249   4.402  10.891
18797SOL     OW58222   4.044  10.039   4.188
18797SOL    HW158223   3.977  10.107   4.183
18797SOL    HW258224   4.119  10.083   4.228
18798SOL     OW58225   3.363   3.477  12.904
18798SOL    HW158226   3.368   3.431  12.987
18798SOL    HW258227   3.346   3.568  12.927
18799SOL     OW58228   6.146   7.410   5.075
18799SOL    HW158229   6.095   7.488   5.053
18799SOL    HW258230   6.085   7.352   5.120
18800SOL     OW58231  13.453   9.566   2.137
18800SOL    HW158232  13.539   9.582   2.175
18800SOL    HW258233  13.440   9.638   2.075
18801SOL     OW58234  14.551   9.675   5.825
18801SOL    HW158235  14.599   9.700   5.904
18801SOL    HW258236  14.616   9.678   5.755
18802SOL     OW58237  13.676  14.799   3.811
18802SOL    HW158238  13.703  14.754   3.731
18802SOL    HW258239  13.596  14.755   3.839
18803SOL     OW58240   2.998  12.481   0.284
18803SOL    HW158241   2.908  12.452   0.297
18803SOL    HW258242   3.046  12.403   0.257
18804SOL     OW58243   0.042   9.091   8.152
18804SOL    HW158244   0.113   9.127   8.099
18804SOL    HW258245  14.838   9.126   8.111
18805SOL     OW58246   7.542   9.273  10.563
18805SOL    HW158247   7.636   9.273  10.579
18805SOL    HW258248   7.503   9.260  10.649
18806SOL     OW58249   1.763   2.919   9.239
18806SOL    HW158250   1.691   2.857   9.255
18806SOL    HW258251   1.729   3.003   9.269
18807SOL     OW58252  12.249   9.093  11.008
18807SOL    HW158253  12.155   9.080  11.021
18807SOL    HW258254  12.288   9.007  11.022
18808SOL     OW58255  11.861   4.765   5.730
18808SOL    HW158256  11.838   4.726   5.646
18808SOL    HW258257  11.883   4.856   5.708
18809SOL     OW58258   2.748   5.325   2.529
18809SOL    HW158259   2.832   5.315   2.484
18809SOL    HW258260   2.724   5.416   2.514
18810SOL     OW58261  13.170   5.193  10.301
18810SOL    HW158262  13.107   5.252  10.344
18810SOL    HW258263  13.148   5.106  10.335
18811SOL     OW58264   1.307   5.310   0.839
18811SOL    HW158265   1.364   5.279   0.767
18811SOL    HW258266   1.269   5.391   0.806
18812SOL     OW58267   7.913  12.651   5.096
18812SOL    HW158268   7.924  12.731   5.045
18812SOL    HW258269   7.824  12.656   5.131
18813SOL     OW58270   8.111  11.128  14.246
18813SOL    HW158271   8.031  11.155  14.292
18813SOL    HW258272   8.163  11.208  14.241
18814SOL     OW58273   4.358   6.390   2.009
18814SOL    HW158274   4.301   6.422   2.079
18814SOL    HW258275   4.298   6.358   1.941
18815SOL     OW58276   5.828  10.609  11.319
18815SOL    HW158277   5.875  10.579  11.396
18815SOL    HW258278   5.829  10.534  11.259
18816SOL     OW58279   7.593   1.932  13.044
18816SOL    HW158280   7.538   1.887  12.979
18816SOL    HW258281   7.543   2.011  13.067
18817SOL     OW58282  11.781  10.414  13.735
18817SOL    HW158283  11.749  10.347  13.675
18817SOL    HW258284  11.749  10.388  13.821
18818SOL     OW58285   9.454   9.477   6.007
18818SOL    HW158286   9.463   9.446   5.917
18818SOL    HW258287   9.538   9.459   6.047
18819SOL     OW58288  10.557   6.813   7.607
18819SOL    HW158289  10.645   6.778   7.616
18819SOL    HW258290  10.570   6.905   7.585
18820SOL     OW58291   9.410   6.344   7.880
18820SOL    HW158292   9.470   6.360   7.953
18820SOL    HW258293   9.343   6.412   7.889
18821SOL     OW58294  12.353  14.783   2.783
18821SOL    HW158295  12.363   0.000   2.805
18821SOL    HW258296  12.260  14.765   2.799
18822SOL     OW58297   5.833   4.144   7.085
18822SOL    HW158298   5.876   4.088   7.149
18822SOL    HW258299   5.902   4.169   7.025
18823SOL     OW58300   0.664   6.339  10.140
18823SOL    HW158301   0.598   6.341  10.210
18823SOL    HW258302   0.615   6.311  10.062
18824SOL     OW58303   4.365   4.453   4.053
18824SOL    HW158304   4.311   4.511   4.000
18824SOL    HW258305   4.305   4.384   4.082
18825SOL     OW58306   3.765  10.184  10.758
18825SOL    HW158307   3.688  10.130  10.741
18825SOL    HW258308   3.774  10.183  10.853
18826SOL     OW58309   7.449   8.382   9.982
18826SOL    HW158310   7.399   8.322   9.927
18826SOL    HW258311   7.408   8.377  10.068
18827SOL     OW58312   9.838  13.605   4.519
18827SOL    HW158313   9.875  13.680   4.471
18827SOL    HW258314   9.908  13.579   4.579
18828SOL     OW58315   6.712  13.867   0.831
18828SOL    HW158316   6.776  13.891   0.764
18828SOL    HW258317   6.749  13.899   0.913
18829SOL     OW58318   9.586   5.880  11.383
18829SOL    HW158319   9.492   5.873  11.365
18829SOL    HW258320   9.626   5.897  11.298
18830SOL     OW58321   1.347  14.644   9.052
18830SOL    HW158322   1.368  14.675   9.140
18830SOL    HW258323   1.263  14.599   9.062
18831SOL     OW58324  10.899   6.538   6.792
18831SOL    HW158325  10.922   6.458   6.745
18831SOL    HW258326  10.980   6.566   6.834
18832SOL     OW58327   1.665   1.809   8.408
18832SOL    HW158328   1.755   1.834   8.386
18832SOL    HW258329   1.655   1.721   8.371
18833SOL     OW58330   0.048  10.773  10.793
18833SOL    HW158331   0.063  10.777  10.698
18833SOL    HW258332   0.111  10.709  10.825
18834SOL     OW58333  13.634   5.107  10.705
18834SOL    HW158334  13.703   5.149  10.653
18834SOL    HW258335  13.677   5.087  10.789
18835SOL     OW58336   2.746  12.981  12.645
18835SOL    HW158337   2.667  13.011  12.690
18835SOL    HW258338   2.784  12.917  12.705
18836SOL     OW58339   3.520   2.664  11.102
18836SOL    HW158340   3.442   2.626  11.142
18836SOL    HW258341   3.589   2.651  11.167
18837SOL     OW58342   6.878   1.753   9.897
18837SOL    HW158343   6.812   1.822   9.890
18837SOL    HW258344   6.946   1.791   9.953
18838SOL     OW58345  13.096   4.489   4.169
18838SOL    HW158346  13.054   4.574   4.152
18838SOL    HW258347  13.160   4.508   4.238
18839SOL     OW58348   9.948   9.722   8.534
18839SOL    HW158349   9.871   9.665   8.531
18839SOL    HW258350   9.992   9.698   8.615
18840SOL     OW58351   3.433  10.070   3.663
18840SOL    HW158352   3.445  10.042   3.753
18840SOL    HW258353   3.351  10.030   3.636
18841SOL     OW58354   6.345   0.199  13.632
18841SOL    HW158355   6.391   0.280  13.610
18841SOL    HW258356   6.309   0.215  13.720
18842SOL     OW58357  11.521  13.885  14.492
18842SOL    HW158358  11.452  13.818  14.500
18842SOL    HW258359  11.487  13.960  14.540
18843SOL     OW58360  13.107  14.215   0.391
18843SOL    HW158361  13.092  14.124   0.365
18843SOL    HW258362  13.112  14.212   0.487
18844SOL     OW58363  11.641   3.943   8.630
18844SOL    HW158364  11.556   3.904   8.610
18844SOL    HW258365  11.692   3.870   8.667
18845SOL     OW58366  13.140  14.748   9.379
18845SOL    HW158367  13.066  14.804   9.354
18845SOL    HW258368  13.188  14.799   9.444
18846SOL     OW58369   4.819  13.943   6.956
18846SOL    HW158370   4.821  13.980   6.868
18846SOL    HW258371   4.893  13.983   7.001
18847SOL     OW58372  12.646   1.243   3.421
18847SOL    HW158373  12.660   1.326   3.467
18847SOL    HW258374  12.649   1.177   3.490
18848SOL     OW58375  11.728   8.642   3.366
18848SOL    HW158376  11.738   8.549   3.347
18848SOL    HW258377  11.652   8.669   3.315
18849SOL     OW58378   0.099   3.518   1.142
18849SOL    HW158379   0.009   3.513   1.111
18849SOL    HW258380   0.096   3.488   1.232
18850SOL     OW58381   5.632   7.388   3.970
18850SOL    HW158382   5.589   7.316   3.923
18850SOL    HW258383   5.688   7.429   3.904
18851SOL     OW58384  10.928  13.220   7.767
18851SOL    HW158385  10.925  13.232   7.862
18851SOL    HW258386  10.848  13.173   7.746
18852SOL     OW58387   4.967   9.092   7.433
18852SOL    HW158388   5.005   9.141   7.360
18852SOL    HW258389   4.960   9.156   7.504
18853SOL     OW58390  10.924  12.589   3.462
18853SOL    HW158391  10.834  12.593   3.495
18853SOL    HW258392  10.941  12.496   3.448
18854SOL     OW58393   9.140   6.482   4.064
18854SOL    HW158394   9.102   6.492   4.152
18854SOL    HW258395   9.139   6.571   4.028
18855SOL     OW58396  14.446  14.323  10.751
18855SOL    HW158397  14.376  14.265  10.782
18855SOL    HW258398  14.510  14.264  10.711
18856SOL     OW58399   3.109  14.631  13.595
18856SOL    HW158400   3.026  14.657  13.636
18856SOL    HW258401   3.130  14.547  13.635
18857SOL     OW58402  11.722  11.525   4.945
18857SOL    HW158403  11.712  11.590   5.014
18857SOL    HW258404  11.779  11.458   4.983
18858SOL     OW58405   6.709   4.312   1.389
18858SOL    HW158406   6.619   4.321   1.420
18858SOL    HW258407   6.742   4.402   1.383
18859SOL     OW58408   9.330   0.115  10.540
18859SOL    HW158409   9.256   0.158  10.499
18859SOL    HW258410   9.357   0.048  10.477
18860SOL     OW58411  13.017   1.611   4.963
18860SOL    HW158412  13.090   1.555   4.935
18860SOL    HW258413  13.060   1.691   4.996
18861SOL     OW58414   3.793   6.636   0.629
18861SOL    HW158415   3.832   6.716   0.594
18861SOL    HW258416   3.720   6.666   0.683
18862SOL     OW58417   7.231  13.408   1.863
18862SOL    HW158418   7.317  13.391   1.824
18862SOL    HW258419   7.196  13.322   1.884
18863SOL     OW58420   1.601   1.389  13.275
18863SOL    HW158421   1.633   1.389  13.365
18863SOL    HW258422   1.539   1.316  13.272
18864SOL     OW58423  11.730   7.357   4.621
18864SOL    HW158424  11.805   7.412   4.600
18864SOL    HW258425  11.655   7.403   4.584
18865SOL     OW58426   0.914  11.755   4.698
18865SOL    HW158427   0.882  11.818   4.634
18865SOL    HW258428   0.963  11.807   4.762
18866SOL     OW58429   5.802  11.209  14.855
18866SOL    HW158430   5.882  11.260  14.865
18866SOL    HW258431   5.749  11.259  14.792
18867SOL     OW58432  13.820   5.096   2.797
18867SOL    HW158433  13.866   5.159   2.742
18867SOL    HW258434  13.829   5.013   2.751
18868SOL     OW58435  13.933   3.143   4.175
18868SOL    HW158436  13.887   3.203   4.234
18868SOL    HW258437  13.979   3.083   4.233
18869SOL     OW58438  10.479  12.123  10.551
18869SOL    HW158439  10.521  12.039  10.534
18869SOL    HW258440  10.497  12.141  10.643
18870SOL     OW58441   7.329   5.165   3.495
18870SOL    HW158442   7.338   5.200   3.583
18870SOL    HW258443   7.405   5.200   3.448
18871SOL     OW58444   2.775  14.427   2.166
18871SOL    HW158445   2.726  14.505   2.140
18871SOL    HW258446   2.828  14.405   2.089
18872SOL     OW58447  10.115  13.230   8.639
18872SOL    HW158448  10.138  13.165   8.573
18872SOL    HW258449  10.195  13.239   8.692
18873SOL     OW58450   2.699  11.755  10.053
18873SOL    HW158451   2.686  11.664  10.078
18873SOL    HW258452   2.610  11.791  10.048
18874SOL     OW58453  12.682   4.234  13.300
18874SOL    HW158454  12.610   4.172  13.290
18874SOL    HW258455  12.697   4.238  13.394
18875SOL     OW58456  13.512   0.714  11.696
18875SOL    HW158457  13.450   0.690  11.765
18875SOL    HW258458  13.553   0.794  11.726
18876SOL     OW58459   1.980   1.139   5.670
18876SOL    HW158460   1.897   1.182   5.647
18876SOL    HW258461   1.967   1.107   5.759
18877SOL     OW58462   6.206   9.007   3.595
18877SOL    HW158463   6.124   9.026   3.641
18877SOL    HW258464   6.266   8.979   3.664
18878SOL     OW58465   2.603   9.192   0.958
18878SOL    HW158466   2.628   9.153   1.042
18878SOL    HW258467   2.659   9.269   0.949
18879SOL     OW58468  14.274   1.742   0.724
18879SOL    HW158469  14.321   1.661   0.705
18879SOL    HW258470  14.183   1.722   0.702
18880SOL     OW58471   1.963   2.729   4.925
18880SOL    HW158472   2.019   2.651   4.931
18880SOL    HW258473   2.010   2.796   4.975
18881SOL     OW58474  14.479   0.124   4.690
18881SOL    HW158475  14.554   0.177   4.714
18881SOL    HW258476  14.404   0.171   4.726
18882SOL     OW58477   0.624   2.198   8.675
18882SOL    HW158478   0.648   2.229   8.762
18882SOL    HW258479   0.671   2.115   8.665
18883SOL     OW58480   4.945  11.180  11.644
18883SOL    HW158481   4.950  11.184  11.549
18883SOL    HW258482   5.034  11.161  11.672
18884SOL     OW58483   4.737   5.279   4.171
18884SOL    HW158484   4.742   5.336   4.247
18884SOL    HW258485   4.783   5.199   4.197
18885SOL     OW58486  11.993   3.136   8.286
18885SOL    HW158487  11.996   3.139   8.191
18885SOL    HW258488  12.085   3.126   8.313
18886SOL     OW58489   1.221   5.323   1.599
18886SOL    HW158490   1.185   5.365   1.677
18886SOL    HW258491   1.174   5.364   1.526
18887SOL     OW58492   2.205   9.282  12.431
18887SOL    HW158493   2.245   9.195  12.429
18887SOL    HW258494   2.132   9.274  12.492
18888SOL     OW58495  12.826   6.010   7.117
18888SOL    HW158496  12.762   6.052   7.060
18888SOL    HW258497  12.851   5.930   7.070
18889SOL     OW58498   3.900   9.784  11.424
18889SOL    HW158499   3.985   9.817  11.452
18889SOL    HW258500   3.879   9.715  11.487
18890SOL     OW58501  11.298  14.843   6.842
18890SOL    HW158502  11.371  14.834   6.780
18890SOL    HW258503  11.331   0.025   6.910
18891SOL     OW58504   0.344  12.933   2.148
18891SOL    HW158505   0.279  12.874   2.110
18891SOL    HW258506   0.425  12.912   2.102
18892SOL     OW58507   9.102   1.730   7.312
18892SOL    HW158508   9.040   1.788   7.356
18892SOL    HW258509   9.185   1.745   7.357
18893SOL     OW58510   4.339   1.409   5.834
18893SOL    HW158511   4.293   1.394   5.916
18893SOL    HW258512   4.430   1.386   5.854
18894SOL     OW58513  11.137   4.225   5.437
18894SOL    HW158514  11.192   4.221   5.358
18894SOL    HW258515  11.072   4.157   5.424
18895SOL     OW58516   0.858   8.522   4.862
18895SOL    HW158517   0.813   8.437   4.855
18895SOL    HW258518   0.795   8.585   4.827
18896SOL     OW58519   8.125   9.832   9.251
18896SOL    HW158520   8.066   9.795   9.185
18896SOL    HW258521   8.089   9.803   9.334
18897SOL     OW58522  12.666   1.201   2.957
18897SOL    HW158523  12.740   1.185   2.898
18897SOL    HW258524  12.679   1.139   3.029
18898SOL     OW58525  10.577   9.823  13.614
18898SOL    HW158526  10.590   9.861  13.528
18898SOL    HW258527  10.568   9.898  13.673
18899SOL     OW58528   5.545   1.606  14.518
18899SOL    HW158529   5.604   1.540  14.554
18899SOL    HW258530   5.522   1.661  14.594
18900SOL     OW58531   2.599  14.568   0.529
18900SOL    HW158532   2.583  14.498   0.593
18900SOL    HW258533   2.594  14.524   0.444
18901SOL     OW58534   0.519  10.166   1.235
18901SOL    HW158535   0.563  10.099   1.288
18901SOL    HW258536   0.460  10.116   1.177
18902SOL     OW58537  12.625   2.845  14.690
18902SOL    HW158538  12.642   2.751  14.692
18902SOL    HW258539  12.619   2.870  14.782
18903SOL     OW58540  11.160  13.890   3.053
18903SOL    HW158541  11.171  13.896   3.148
18903SOL    HW258542  11.247  13.912   3.018
18904SOL     OW58543  11.725  10.179   1.740
18904SOL    HW158544  11.730  10.272   1.717
18904SOL    HW258545  11.635  10.154   1.716
18905SOL     OW58546   4.678   8.643   0.769
18905SOL    HW158547   4.610   8.585   0.734
18905SOL    HW258548   4.696   8.705   0.699
18906SOL     OW58549   7.524  10.548   9.953
18906SOL    HW158550   7.461  10.477   9.938
18906SOL    HW258551   7.570  10.522  10.033
18907SOL     OW58552  13.861   7.551  11.357
18907SOL    HW158553  13.914   7.565  11.278
18907SOL    HW258554  13.830   7.638  11.381
18908SOL     OW58555   2.067   9.177  12.634
18908SOL    HW158556   2.158   9.171  12.664
18908SOL    HW258557   2.035   9.087  12.639
18909SOL     OW58558   6.020   3.891   9.071
18909SOL    HW158559   5.988   3.971   9.113
18909SOL    HW258560   6.093   3.920   9.016
18910SOL     OW58561   1.145  14.773   8.115
18910SOL    HW158562   1.190  14.829   8.052
18910SOL    HW258563   1.054  14.773   8.086
18911SOL     OW58564   2.220  12.128  12.633
18911SOL    HW158565   2.159  12.156  12.701
18911SOL    HW258566   2.275  12.205  12.617
18912SOL     OW58567  14.488   8.888  14.050
18912SOL    HW158568  14.429   8.820  14.015
18912SOL    HW258569  14.539   8.917  13.975
18913SOL     OW58570   5.103   8.898   8.430
18913SOL    HW158571   5.143   8.924   8.513
18913SOL    HW258572   5.177   8.881   8.372
18914SOL     OW58573  12.589  12.851   1.677
18914SOL    HW158574  12.649  12.917   1.711
18914SOL    HW258575  12.502  12.888   1.692
18915SOL     OW58576   8.336   3.375   8.665
18915SOL    HW158577   8.397   3.343   8.732
18915SOL    HW258578   8.388   3.382   8.586
18916SOL     OW58579   7.562   9.300   9.120
18916SOL    HW158580   7.544   9.317   9.212
18916SOL    HW258581   7.657   9.287   9.115
18917SOL     OW58582   5.989   8.255   3.610
18917SOL    HW158583   5.996   8.296   3.696
18917SOL    HW258584   5.944   8.320   3.556
18918SOL     OW58585   4.513   6.730   9.612
18918SOL    HW158586   4.605   6.754   9.612
18918SOL    HW258587   4.471   6.796   9.556
18919SOL     OW58588  13.518  10.966  13.725
18919SOL    HW158589  13.574  10.941  13.652
18919SOL    HW258590  13.436  10.994  13.685
18920SOL     OW58591   7.494   9.010  14.712
18920SOL    HW158592   7.453   8.925  14.699
18920SOL    HW258593   7.559   9.016  14.642
18921SOL     OW58594  11.070  11.064  11.655
18921SOL    HW158595  10.999  11.000  11.653
18921SOL    HW258596  11.025  11.149  11.664
18922SOL     OW58597   6.152   9.865   9.710
18922SOL    HW158598   6.210   9.812   9.656
18922SOL    HW258599   6.201   9.946   9.726
18923SOL     OW58600   1.571  12.414  10.853
18923SOL    HW158601   1.556  12.320  10.850
18923SOL    HW258602   1.488  12.453  10.825
18924SOL     OW58603  14.199  14.606  14.620
18924SOL    HW158604  14.196  14.562  14.705
18924SOL    HW258605  14.286  14.648  14.618
18925SOL     OW58606   5.973   6.084  11.123
18925SOL    HW158607   5.966   6.178  11.104
18925SOL    HW258608   6.064   6.062  11.103
18926SOL     OW58609   5.806   9.931   4.150
18926SOL    HW158610   5.747   9.996   4.187
18926SOL    HW258611   5.821   9.869   4.221
18927SOL     OW58612  11.404   3.977   1.527
18927SOL    HW158613  11.434   4.049   1.582
18927SOL    HW258614  11.461   3.904   1.550
18928SOL     OW58615  10.815  13.659  13.353
18928SOL    HW158616  10.849  13.572  13.374
18928SOL    HW258617  10.844  13.714  13.427
18929SOL     OW58618   0.983   1.585  10.103
18929SOL    HW158619   0.937   1.503  10.084
18929SOL    HW258620   1.059   1.558  10.155
18930SOL     OW58621   1.597   2.025   7.773
18930SOL    HW158622   1.549   2.095   7.818
18930SOL    HW258623   1.663   1.997   7.836
18931SOL     OW58624   8.748   8.797  10.028
18931SOL    HW158625   8.682   8.863  10.008
18931SOL    HW258626   8.832   8.838  10.004
18932SOL     OW58627  13.579  12.861   0.495
18932SOL    HW158628  13.646  12.873   0.427
18932SOL    HW258629  13.571  12.947   0.536
18933SOL     OW58630   3.572  11.213   4.238
18933SOL    HW158631   3.495  11.170   4.201
18933SOL    HW258632   3.539  11.293   4.278
18934SOL     OW58633   9.824   3.713   4.608
18934SOL    HW158634   9.804   3.620   4.617
18934SOL    HW258635   9.764   3.744   4.541
18935SOL     OW58636   0.923   2.697   5.935
18935SOL    HW158637   0.849   2.738   5.979
18935SOL    HW258638   0.924   2.607   5.969
18936SOL     OW58639   9.223   9.865   7.478
18936SOL    HW158640   9.253   9.910   7.399
18936SOL    HW258641   9.163   9.927   7.520
18937SOL     OW58642   2.993   2.345   8.626
18937SOL    HW158643   3.033   2.381   8.705
18937SOL    HW258644   2.959   2.421   8.580
18938SOL     OW58645   9.552   7.545  13.312
18938SOL    HW158646   9.505   7.466  13.340
18938SOL    HW258647   9.599   7.574  13.390
18939SOL     OW58648   9.046   6.520   9.196
18939SOL    HW158649   8.965   6.566   9.174
18939SOL    HW258650   9.089   6.506   9.112
18940SOL     OW58651   6.416   2.412  14.046
18940SOL    HW158652   6.440   2.320  14.057
18940SOL    HW258653   6.343   2.425  14.107
18941SOL     OW58654   8.484   7.680   1.103
18941SOL    HW158655   8.501   7.774   1.093
18941SOL    HW258656   8.405   7.675   1.156
18942SOL     OW58657   1.228   7.211   8.411
18942SOL    HW158658   1.256   7.210   8.320
18942SOL    HW258659   1.204   7.121   8.430
18943SOL     OW58660   5.226   4.933   7.551
18943SOL    HW158661   5.246   4.879   7.627
18943SOL    HW258662   5.148   4.893   7.513
18944SOL     OW58663   0.496  11.568   5.023
18944SOL    HW158664   0.547  11.616   4.958
18944SOL    HW258665   0.407  11.602   5.014
18945SOL     OW58666  13.584   4.579  13.731
18945SOL    HW158667  13.524   4.596  13.658
18945SOL    HW258668  13.617   4.491  13.714
18946SOL     OW58669   6.683  11.452  14.140
18946SOL    HW158670   6.709  11.367  14.104
18946SOL    HW258671   6.723  11.516  14.081
18947SOL     OW58672  11.850   6.093   1.639
18947SOL    HW158673  11.837   6.067   1.730
18947SOL    HW258674  11.876   6.013   1.594
18948SOL     OW58675  13.023   0.889   4.712
18948SOL    HW158676  12.991   0.802   4.687
18948SOL    HW258677  13.085   0.872   4.783
18949SOL     OW58678   4.137   7.064  10.100
18949SOL    HW158679   4.210   7.118  10.130
18949SOL    HW258680   4.179   6.990  10.056
18950SOL     OW58681   5.122  13.964   2.433
18950SOL    HW158682   5.046  13.970   2.492
18950SOL    HW258683   5.189  14.015   2.477
18951SOL     OW58684   2.260   5.221   9.859
18951SOL    HW158685   2.338   5.237   9.806
18951SOL    HW258686   2.202   5.294   9.839
18952SOL     OW58687   1.334   4.334   7.570
18952SOL    HW158688   1.244   4.331   7.601
18952SOL    HW258689   1.386   4.349   7.649
18953SOL     OW58690   9.578   7.802   7.030
18953SOL    HW158691   9.557   7.869   7.096
18953SOL    HW258692   9.574   7.850   6.947
18954SOL     OW58693  11.965   8.659   4.606
18954SOL    HW158694  11.917   8.686   4.528
18954SOL    HW258695  11.931   8.572   4.626
18955SOL     OW58696  10.557  14.368  13.082
18955SOL    HW158697  10.544  14.279  13.115
18955SOL    HW258698  10.635  14.363  13.028
18956SOL     OW58699   9.413   7.522   2.195
18956SOL    HW158700   9.509   7.520   2.199
18956SOL    HW258701   9.392   7.611   2.167
18957SOL     OW58702  14.104   5.526   5.434
18957SOL    HW158703  14.144   5.441   5.454
18957SOL    HW258704  14.054   5.509   5.354
18958SOL     OW58705   4.038   9.496  14.479
18958SOL    HW158706   4.085   9.522  14.558
18958SOL    HW258707   3.964   9.443  14.512
18959SOL     OW58708   0.382   6.585   5.099
18959SOL    HW158709   0.452   6.613   5.040
18959SOL    HW258710   0.318   6.543   5.043
18960SOL     OW58711   4.044  10.227  11.933
18960SOL    HW158712   3.977  10.276  11.981
18960SOL    HW258713   4.102  10.194  12.001
18961SOL     OW58714   9.840   4.610   0.666
18961SOL    HW158715   9.816   4.534   0.612
18961SOL    HW258716   9.758   4.657   0.680
18962SOL     OW58717  13.034   3.876   9.846
18962SOL    HW158718  13.028   3.781   9.832
18962SOL    HW258719  13.127   3.893   9.856
18963SOL     OW58720   3.416   6.985   4.769
18963SOL    HW158721   3.332   6.948   4.742
18963SOL    HW258722   3.480   6.918   4.745
18964SOL     OW58723   3.065   9.168   1.222
18964SOL    HW158724   3.009   9.222   1.278
18964SOL    HW258725   3.049   9.200   1.133
18965SOL     OW58726   9.147  12.920   2.691
18965SOL    HW158727   9.067  12.869   2.707
18965SOL    HW258728   9.137  12.996   2.748
18966SOL     OW58729  12.711   6.163   1.933
18966SOL    HW158730  12.635   6.213   1.906
18966SOL    HW258731  12.783   6.227   1.934
18967SOL     OW58732  14.238   4.746   2.099
18967SOL    HW158733  14.249   4.773   2.008
18967SOL    HW258734  14.197   4.660   2.094
18968SOL     OW58735  12.037  11.585   4.354
18968SOL    HW158736  12.061  11.523   4.423
18968SOL    HW258737  12.116  11.592   4.300
18969SOL     OW58738   4.209   0.033  14.796
18969SOL    HW158739   4.290  14.871  14.762
18969SOL    HW258740   4.206   0.004   0.011
18970SOL     OW58741   1.366   1.731   1.592
18970SOL    HW158742   1.373   1.824   1.611
18970SOL    HW258743   1.324   1.694   1.670
18971SOL     OW58744   0.595   4.879   2.483
18971SOL    HW158745   0.588   4.784   2.492
18971SOL    HW258746   0.682   4.900   2.517
18972SOL     OW58747   7.538  12.155   4.471
18972SOL    HW158748   7.519  12.072   4.427
18972SOL    HW258749   7.463  12.211   4.452
18973SOL     OW58750   3.452   5.399  14.782
18973SOL    HW158751   3.437   5.384  14.689
18973SOL    HW258752   3.547   5.395  14.792
18974SOL     OW58753  13.951  13.627  10.256
18974SOL    HW158754  13.994  13.567  10.317
18974SOL    HW258755  13.996  13.711  10.269
18975SOL     OW58756  14.292   1.810   4.106
18975SOL    HW158757  14.375   1.855   4.096
18975SOL    HW258758  14.225   1.878   4.096
18976SOL     OW58759  11.881   8.116  13.382
18976SOL    HW158760  11.871   8.022  13.401
18976SOL    HW258761  11.943   8.148  13.448
18977SOL     OW58762   8.017   7.188  11.670
18977SOL    HW158763   8.104   7.207  11.705
18977SOL    HW258764   8.018   7.228  11.583
18978SOL     OW58765   2.271  13.966  14.773
18978SOL    HW158766   2.250  13.891  14.829
18978SOL    HW258767   2.351  13.940  14.727
18979SOL     OW58768   7.219   2.810   6.427
18979SOL    HW158769   7.139   2.841   6.470
18979SOL    HW258770   7.290   2.859   6.471
18980SOL     OW58771   5.182   2.587   9.256
18980SOL    HW158772   5.235   2.525   9.307
18980SOL    HW258773   5.144   2.533   9.186
18981SOL     OW58774  14.398  14.610   6.911
18981SOL    HW158775  14.437  14.532   6.870
18981SOL    HW258776  14.322  14.630   6.857
18982SOL     OW58777   0.967  11.102  14.581
18982SOL    HW158778   0.888  11.138  14.621
18982SOL    HW258779   0.938  11.061  14.500
18983SOL     OW58780   7.826   2.448  13.050
18983SOL    HW158781   7.906   2.396  13.048
18983SOL    HW258782   7.823   2.486  13.138
18984SOL     OW58783   4.747   5.210  12.477
18984SOL    HW158784   4.788   5.173  12.555
18984SOL    HW258785   4.662   5.242  12.508
18985SOL     OW58786  12.088   6.158  14.712
18985SOL    HW158787  12.151   6.088  14.694
18985SOL    HW258788  12.004   6.113  14.725
18986SOL     OW58789   7.863   3.747  13.471
18986SOL    HW158790   7.837   3.688  13.401
18986SOL    HW258791   7.788   3.806  13.482
18987SOL     OW58792   1.811  11.099   6.713
18987SOL    HW158793   1.801  11.139   6.626
18987SOL    HW258794   1.726  11.061   6.732
18988SOL     OW58795  14.514   5.604   2.606
18988SOL    HW158796  14.561   5.569   2.530
18988SOL    HW258797  14.426   5.568   2.598
18989SOL     OW58798   5.290   6.229  14.821
18989SOL    HW158799   5.290   6.140  14.784
18989SOL    HW258800   5.354   6.277  14.768
18990SOL     OW58801   1.945   7.075   5.496
18990SOL    HW158802   1.945   6.979   5.507
18990SOL    HW258803   2.036   7.095   5.472
18991SOL     OW58804   9.514   8.535   2.246
18991SOL    HW158805   9.458   8.545   2.323
18991SOL    HW258806   9.525   8.624   2.212
18992SOL     OW58807  10.133   6.561   5.123
18992SOL    HW158808  10.153   6.649   5.155
18992SOL    HW258809  10.168   6.559   5.034
18993SOL     OW58810  14.668  13.665   1.844
18993SOL    HW158811  14.597  13.720   1.877
18993SOL    HW258812  14.738  13.727   1.822
18994SOL     OW58813   8.415  12.182   5.906
18994SOL    HW158814   8.408  12.160   5.813
18994SOL    HW258815   8.325  12.202   5.933
18995SOL     OW58816   3.989   0.532  10.981
18995SOL    HW158817   3.929   0.571  10.917
18995SOL    HW258818   4.036   0.465  10.932
18996SOL     OW58819   1.827   2.339   1.165
18996SOL    HW158820   1.878   2.311   1.241
18996SOL    HW258821   1.737   2.315   1.186
18997SOL     OW58822   2.146   0.353  13.602
18997SOL    HW158823   2.086   0.426  13.619
18997SOL    HW258824   2.233   0.394  13.601
18998SOL     OW58825   2.582  11.677  10.975
18998SOL    HW158826   2.529  11.717  10.906
18998SOL    HW258827   2.672  11.701  10.954
18999SOL     OW58828  11.221  12.581   5.375
18999SOL    HW158829  11.129  12.574   5.350
18999SOL    HW258830  11.225  12.660   5.429
19000SOL     OW58831  11.715   8.660  10.653
19000SOL    HW158832  11.636   8.711  10.673
19000SOL    HW258833  11.736   8.683  10.563
19001SOL     OW58834   4.702   6.111   5.536
19001SOL    HW158835   4.648   6.150   5.467
19001SOL    HW258836   4.670   6.152   5.617
19002SOL     OW58837   2.219  13.915   9.471
19002SOL    HW158838   2.132  13.898   9.433
19002SOL    HW258839   2.204  13.916   9.566
19003SOL     OW58840   0.993   5.281   6.739
19003SOL    HW158841   0.934   5.205   6.744
19003SOL    HW258842   0.992   5.318   6.827
19004SOL     OW58843   8.614   3.276  13.393
19004SOL    HW158844   8.583   3.339  13.458
19004SOL    HW258845   8.686   3.321  13.349
19005SOL     OW58846   1.196  13.530  10.933
19005SOL    HW158847   1.256  13.518  10.859
19005SOL    HW258848   1.248  13.576  10.999
19006SOL     OW58849  10.341   9.491   1.672
19006SOL    HW158850  10.324   9.581   1.699
19006SOL    HW258851  10.284   9.476   1.597
19007SOL     OW58852   2.190   3.747  11.765
19007SOL    HW158853   2.134   3.823  11.753
19007SOL    HW258854   2.140   3.674  11.729
19008SOL     OW58855  12.334  13.895   6.784
19008SOL    HW158856  12.423  13.860   6.794
19008SOL    HW258857  12.304  13.859   6.701
19009SOL     OW58858   8.758   9.874   7.962
19009SOL    HW158859   8.691   9.826   8.012
19009SOL    HW258860   8.722   9.882   7.874
19010SOL     OW58861   9.374  12.913   5.015
19010SOL    HW158862   9.338  12.827   4.994
19010SOL    HW258863   9.303  12.957   5.062
19011SOL     OW58864   6.996   0.833   8.800
19011SOL    HW158865   7.050   0.859   8.874
19011SOL    HW258866   6.998   0.908   8.741
19012SOL     OW58867   2.840  10.944   1.032
19012SOL    HW158868   2.811  10.974   1.118
19012SOL    HW258869   2.857  11.024   0.983
19013SOL     OW58870   3.840   5.549  10.131
19013SOL    HW158871   3.894   5.479  10.167
19013SOL    HW258872   3.755   5.538  10.173
19014SOL     OW58873   4.714  13.059  13.617
19014SOL    HW158874   4.673  13.121  13.556
19014SOL    HW258875   4.778  13.112  13.665
19015SOL     OW58876   2.585   2.021   5.909
19015SOL    HW158877   2.539   1.951   5.954
19015SOL    HW258878   2.594   1.989   5.819
19016SOL     OW58879   7.762   9.845  10.089
19016SOL    HW158880   7.724   9.763  10.120
19016SOL    HW258881   7.735   9.910  10.153
19017SOL     OW58882  13.635   7.968   9.575
19017SOL    HW158883  13.720   7.968   9.619
19017SOL    HW258884  13.611   8.061   9.570
19018SOL     OW58885   7.744  10.916   5.510
19018SOL    HW158886   7.800  10.839   5.506
19018SOL    HW258887   7.662  10.885   5.549
19019SOL     OW58888   5.837   6.413   6.586
19019SOL    HW158889   5.837   6.501   6.549
19019SOL    HW258890   5.761   6.411   6.644
19020SOL     OW58891  13.960   7.048   0.105
19020SOL    HW158892  13.935   7.045   0.012
19020SOL    HW258893  14.017   7.124   0.112
19021SOL     OW58894   3.074   3.999   0.036
19021SOL    HW158895   3.044   4.072  14.859
19021SOL    HW258896   3.169   4.011   0.042
19022SOL     OW58897  13.988  10.141  14.624
19022SOL    HW158898  14.067  10.192  14.640
19022SOL    HW258899  13.917  10.195  14.658
19023SOL     OW58900   8.838   7.814  14.287
19023SOL    HW158901   8.810   7.723  14.273
19023SOL    HW258902   8.828   7.855  14.201
19024SOL     OW58903   9.905   8.152  10.527
19024SOL    HW158904   9.821   8.165  10.482
19024SOL    HW258905   9.970   8.151  10.457
19025SOL     OW58906   1.647  12.689   8.010
19025SOL    HW158907   1.682  12.680   7.921
19025SOL    HW258908   1.560  12.726   7.997
19026SOL     OW58909   6.589  11.988  11.674
19026SOL    HW158910   6.674  11.944  11.676
19026SOL    HW258911   6.570  12.006  11.766
19027SOL     OW58912   9.285   8.264   7.589
19027SOL    HW158913   9.349   8.217   7.537
19027SOL    HW258914   9.337   8.315   7.651
19028SOL     OW58915   1.573  11.795  13.298
19028SOL    HW158916   1.520  11.723  13.332
19028SOL    HW258917   1.527  11.874  13.327
19029SOL     OW58918   2.247   8.265   2.841
19029SOL    HW158919   2.167   8.270   2.893
19029SOL    HW258920   2.235   8.331   2.772
19030SOL     OW58921   6.512   3.487  11.747
19030SOL    HW158922   6.594   3.527  11.718
19030SOL    HW258923   6.535   3.444  11.830
19031SOL     OW58924  13.387   5.941   0.170
19031SOL    HW158925  13.425   6.023   0.139
19031SOL    HW258926  13.372   5.890   0.090
19032SOL     OW58927   3.025  11.486   7.948
19032SOL    HW158928   2.995  11.488   7.857
19032SOL    HW258929   3.116  11.516   7.944
19033SOL     OW58930   8.767  13.101   7.888
19033SOL    HW158931   8.855  13.125   7.858
19033SOL    HW258932   8.768  13.005   7.892
19034SOL     OW58933   0.398  14.651  11.398
19034SOL    HW158934   0.425  14.560  11.392
19034SOL    HW258935   0.476  14.698  11.426
19035SOL     OW58936  14.187  13.610   6.937
19035SOL    HW158937  14.250  13.653   6.996
19035SOL    HW258938  14.227  13.618   6.850
19036SOL     OW58939  13.537  14.623  10.535
19036SOL    HW158940  13.543  14.709  10.577
19036SOL    HW258941  13.581  14.564  10.595
19037SOL     OW58942  10.052   9.417  11.414
19037SOL    HW158943  10.107   9.388  11.487
19037SOL    HW258944  10.094   9.496  11.382
19038SOL     OW58945   3.191  14.649   0.907
19038SOL    HW158946   3.164  14.699   0.984
19038SOL    HW258947   3.272  14.606   0.934
19039SOL     OW58948  14.792  11.592   3.119
19039SOL    HW158949  14.818  11.515   3.171
19039SOL    HW258950  14.706  11.616   3.154
19040SOL     OW58951   4.848   1.574   7.958
19040SOL    HW158952   4.830   1.660   7.997
19040SOL    HW258953   4.771   1.555   7.905
19041SOL     OW58954   8.937  13.846   9.250
19041SOL    HW158955   8.932  13.942   9.255
19041SOL    HW258956   8.868  13.816   9.308
19042SOL     OW58957   0.999  12.666   3.944
19042SOL    HW158958   0.943  12.632   4.014
19042SOL    HW258959   1.029  12.751   3.976
19043SOL     OW58960  14.124  13.394   4.551
19043SOL    HW158961  14.158  13.458   4.614
19043SOL    HW258962  14.100  13.447   4.475
19044SOL     OW58963   4.128   6.865  10.786
19044SOL    HW158964   4.060   6.879  10.851
19044SOL    HW258965   4.210   6.885  10.832
19045SOL     OW58966   2.577   7.748  10.362
19045SOL    HW158967   2.621   7.784  10.285
19045SOL    HW258968   2.628   7.670  10.385
19046SOL     OW58969   5.318  14.339   1.161
19046SOL    HW158970   5.258  14.405   1.129
19046SOL    HW258971   5.384  14.388   1.210
19047SOL     OW58972  13.821   9.506   8.873
19047SOL    HW158973  13.793   9.587   8.916
19047SOL    HW258974  13.786   9.436   8.929
19048SOL     OW58975   0.490   4.281  12.028
19048SOL    HW158976   0.535   4.200  12.006
19048SOL    HW258977   0.397   4.260  12.020
19049SOL     OW58978   7.919   4.810  14.555
19049SOL    HW158979   8.008   4.838  14.534
19049SOL    HW258980   7.898   4.855  14.637
19050SOL     OW58981   5.600   9.194   3.688
19050SOL    HW158982   5.555   9.248   3.624
19050SOL    HW258983   5.553   9.110   3.686
19051SOL     OW58984   7.955   4.820  13.573
19051SOL    HW158985   7.980   4.747  13.629
19051SOL    HW258986   8.028   4.882  13.581
19052SOL     OW58987  12.755   5.326   3.914
19052SOL    HW158988  12.738   5.393   3.848
19052SOL    HW258989  12.790   5.375   3.989
19053SOL     OW58990   1.947   9.856   4.587
19053SOL    HW158991   1.889   9.929   4.607
19053SOL    HW258992   1.938   9.844   4.492
19054SOL     OW58993   1.332   4.104   3.095
19054SOL    HW158994   1.262   4.058   3.141
19054SOL    HW258995   1.290   4.180   3.056
19055SOL     OW58996   0.034  14.503  10.482
19055SOL    HW158997   0.052  14.490  10.389
19055SOL    HW258998   0.082  14.433  10.526
19056SOL     OW58999  11.233   8.977   1.435
19056SOL    HW159000  11.270   8.949   1.352
19056SOL    HW259001  11.227   8.897   1.487
19057SOL     OW59002  10.470   5.064   4.757
19057SOL    HW159003  10.411   5.128   4.718
19057SOL    HW259004  10.447   5.062   4.849
19058SOL     OW59005   6.334  12.728  12.831
19058SOL    HW159006   6.386  12.805  12.809
19058SOL    HW259007   6.274  12.758  12.900
19059SOL     OW59008   9.728  12.766   7.961
19059SOL    HW159009   9.810  12.804   7.929
19059SOL    HW259010   9.752  12.715   8.038
19060SOL     OW59011  13.772  10.803  11.965
19060SOL    HW159012  13.822  10.727  11.994
19060SOL    HW259013  13.737  10.842  12.045
19061SOL     OW59014   2.116  12.694   5.412
19061SOL    HW159015   2.044  12.632   5.420
19061SOL    HW259016   2.083  12.775   5.449
19062SOL     OW59017   5.379   0.541   6.368
19062SOL    HW159018   5.382   0.481   6.294
19062SOL    HW259019   5.343   0.488   6.440
19063SOL     OW59020   4.400   8.989  14.743
19063SOL    HW159021   4.405   8.943  14.826
19063SOL    HW259022   4.490   9.012  14.723
19064SOL     OW59023   4.441   2.492   3.233
19064SOL    HW159024   4.487   2.425   3.284
19064SOL    HW259025   4.374   2.443   3.184
19065SOL     OW59026   6.600   9.741   1.372
19065SOL    HW159027   6.509   9.761   1.396
19065SOL    HW259028   6.598   9.731   1.277
19066SOL     OW59029   4.248  14.851   6.678
19066SOL    HW159030   4.316   0.038   6.654
19066SOL    HW259031   4.275  14.769   6.637
19067SOL     OW59032   4.768   6.144  11.227
19067SOL    HW159033   4.764   6.204  11.302
19067SOL    HW259034   4.697   6.173  11.170
19068SOL     OW59035  11.410  11.683   7.539
19068SOL    HW159036  11.388  11.627   7.464
19068SOL    HW259037  11.462  11.754   7.501
19069SOL     OW59038   5.728  10.008  12.463
19069SOL    HW159039   5.724  10.005  12.368
19069SOL    HW259040   5.664  10.075  12.488
19070SOL     OW59041   7.016   1.894  14.688
19070SOL    HW159042   6.939   1.930  14.644
19070SOL    HW259043   7.088   1.951  14.662
19071SOL     OW59044   2.430   2.028   5.504
19071SOL    HW159045   2.384   2.097   5.550
19071SOL    HW259046   2.382   1.948   5.526
19072SOL     OW59047   2.302   9.049  13.432
19072SOL    HW159048   2.266   8.961  13.438
19072SOL    HW259049   2.397   9.037  13.431
19073SOL     OW59050   9.702   0.368  13.125
19073SOL    HW159051   9.746   0.320  13.195
19073SOL    HW259052   9.768   0.376  13.056
19074SOL     OW59053  11.720   8.601   8.869
19074SOL    HW159054  11.707   8.561   8.955
19074SOL    HW259055  11.724   8.527   8.809
19075SOL     OW59056   4.085  14.628  12.046
19075SOL    HW159057   4.055  14.582  11.968
19075SOL    HW259058   4.019  14.607  12.112
19076SOL     OW59059   7.238  13.305   0.470
19076SOL    HW159060   7.177  13.237   0.499
19076SOL    HW259061   7.323  13.262   0.467
19077SOL     OW59062   5.858  14.810   8.902
19077SOL    HW159063   5.799   0.000   8.940
19077SOL    HW259064   5.890  14.850   8.821
19078SOL     OW59065   4.526   0.025  12.406
19078SOL    HW159066   4.594  14.869  12.466
19078SOL    HW259067   4.568   0.097  12.359
19079SOL     OW59068  12.563  10.626   1.189
19079SOL    HW159069  12.496  10.693   1.178
19079SOL    HW259070  12.599  10.643   1.276
19080SOL     OW59071  13.094   2.564   9.939
19080SOL    HW159072  13.111   2.647   9.982
19080SOL    HW259073  13.180   2.525   9.925
19081SOL     OW59074   9.267   2.242   2.198
19081SOL    HW159075   9.304   2.298   2.130
19081SOL    HW259076   9.208   2.183   2.151
19082SOL     OW59077   8.749   3.854   0.415
19082SOL    HW159078   8.823   3.880   0.361
19082SOL    HW259079   8.672   3.880   0.365
19083SOL     OW59080   9.049   5.314  14.720
19083SOL    HW159081   9.045   5.250  14.650
19083SOL    HW259082   9.089   5.391  14.680
19084SOL     OW59083  10.370   6.288  13.988
19084SOL    HW159084  10.285   6.305  13.948
19084SOL    HW259085  10.416   6.233  13.925
19085SOL     OW59086   6.761   6.170   0.237
19085SOL    HW159087   6.789   6.119   0.161
19085SOL    HW259088   6.668   6.186   0.223
19086SOL     OW59089   9.890   6.429  10.005
19086SOL    HW159090   9.819   6.410   9.943
19086SOL    HW259091   9.847   6.448  10.088
19087SOL     OW59092   8.044  12.247   1.597
19087SOL    HW159093   8.102  12.244   1.673
19087SOL    HW259094   8.064  12.167   1.548
19088SOL     OW59095   7.067  11.302   9.240
19088SOL    HW159096   7.001  11.334   9.178
19088SOL    HW259097   7.132  11.372   9.244
19089SOL     OW59098   3.541   9.158   7.590
19089SOL    HW159099   3.621   9.189   7.549
19089SOL    HW259100   3.569   9.127   7.677
19090SOL     OW59101  13.854   4.052   1.270
19090SOL    HW159102  13.930   4.052   1.212
19090SOL    HW259103  13.869   4.126   1.329
19091SOL     OW59104   1.596   8.790   4.884
19091SOL    HW159105   1.639   8.740   4.954
19091SOL    HW259106   1.635   8.758   4.803
19092SOL     OW59107  13.037  10.408  11.707
19092SOL    HW159108  13.011  10.367  11.790
19092SOL    HW259109  13.132  10.400  11.705
19093SOL     OW59110  11.618  12.725   5.437
19093SOL    HW159111  11.554  12.654   5.438
19093SOL    HW259112  11.702  12.682   5.452
19094SOL     OW59113   9.486  12.150   7.529
19094SOL    HW159114   9.488  12.067   7.576
19094SOL    HW259115   9.392  12.170   7.521
19095SOL     OW59116   9.076  11.108  12.538
19095SOL    HW159117   9.084  11.039  12.473
19095SOL    HW259118   9.047  11.185  12.489
19096SOL     OW59119   0.660  12.040   4.935
19096SOL    HW159120   0.568  12.045   4.910
19096SOL    HW259121   0.703  12.105   4.880
19097SOL     OW59122   8.617  14.214   8.434
19097SOL    HW159123   8.556  14.142   8.421
19097SOL    HW259124   8.648  14.204   8.524
19098SOL     OW59125   9.313  11.444   8.157
19098SOL    HW159126   9.382  11.459   8.222
19098SOL    HW259127   9.270  11.363   8.186
19099SOL     OW59128  14.135  10.396  11.659
19099SOL    HW159129  14.114  10.324  11.719
19099SOL    HW259130  14.054  10.446  11.652
19100SOL     OW59131  12.868   9.665   5.159
19100SOL    HW159132  12.961   9.655   5.183
19100SOL    HW259133  12.830   9.578   5.171
19101SOL     OW59134   0.167  14.532   1.418
19101SOL    HW159135   0.179  14.584   1.339
19101SOL    HW259136   0.149  14.444   1.385
19102SOL     OW59137   6.803  14.203   7.680
19102SOL    HW159138   6.892  14.181   7.653
19102SOL    HW259139   6.785  14.287   7.638
19103SOL     OW59140   0.003   6.480  14.038
19103SOL    HW159141   0.038   6.562  14.003
19103SOL    HW259142   0.033   6.478  14.129
19104SOL     OW59143   7.962  12.689  13.953
19104SOL    HW159144   7.892  12.630  13.980
19104SOL    HW259145   7.999  12.721  14.035
19105SOL     OW59146   0.494   0.048   5.009
19105SOL    HW159147   0.588   0.063   5.023
19105SOL    HW259148   0.452   0.130   5.036
19106SOL     OW59149  12.935   0.456  12.575
19106SOL    HW159150  12.992   0.497  12.509
19106SOL    HW259151  12.979   0.374  12.596
19107SOL     OW59152   9.047  10.248  11.818
19107SOL    HW159153   9.042  10.337  11.852
19107SOL    HW259154   9.003  10.194  11.884
19108SOL     OW59155   1.729   6.873  13.092
19108SOL    HW159156   1.734   6.800  13.030
19108SOL    HW259157   1.802   6.930  13.068
19109SOL     OW59158  10.160  10.047   3.338
19109SOL    HW159159  10.234  10.080   3.390
19109SOL    HW259160  10.085  10.053   3.397
19110SOL     OW59161   3.778   8.659   4.272
19110SOL    HW159162   3.749   8.677   4.183
19110SOL    HW259163   3.856   8.606   4.262
19111SOL     OW59164   4.167   1.330   8.052
19111SOL    HW159165   4.157   1.422   8.027
19111SOL    HW259166   4.214   1.290   7.979
19112SOL     OW59167   1.077   8.082   6.603
19112SOL    HW159168   1.076   8.026   6.525
19112SOL    HW259169   1.163   8.067   6.642
19113SOL     OW59170  11.083  14.793   8.973
19113SOL    HW159171  11.025  14.719   8.955
19113SOL    HW259172  11.090  14.795   9.069
19114SOL     OW59173   4.200  10.476   8.965
19114SOL    HW159174   4.279  10.465   9.018
19114SOL    HW259175   4.208  10.409   8.897
19115SOL     OW59176   7.743  12.927   1.416
19115SOL    HW159177   7.814  12.926   1.352
19115SOL    HW259178   7.758  12.849   1.470
19116SOL     OW59179   2.496   4.035   7.107
19116SOL    HW159180   2.415   3.985   7.102
19116SOL    HW259181   2.513   4.062   7.017
19117SOL     OW59182  14.251  10.480   4.624
19117SOL    HW159183  14.260  10.509   4.533
19117SOL    HW259184  14.231  10.560   4.673
19118SOL     OW59185   5.911  11.588   5.863
19118SOL    HW159186   5.891  11.587   5.770
19118SOL    HW259187   5.993  11.538   5.871
19119SOL     OW59188  12.227  13.812   6.517
19119SOL    HW159189  12.265  13.849   6.438
19119SOL    HW259190  12.181  13.885   6.559
19120SOL     OW59191   2.473   7.561   8.352
19120SOL    HW159192   2.505   7.487   8.404
19120SOL    HW259193   2.550   7.594   8.307
19121SOL     OW59194   4.609   9.035   2.662
19121SOL    HW159195   4.565   9.019   2.745
19121SOL    HW259196   4.585   9.125   2.638
19122SOL     OW59197  14.271   2.001  14.048
19122SOL    HW159198  14.221   1.970  13.973
19122SOL    HW259199  14.332   1.929  14.068
19123SOL     OW59200  10.289  12.373  12.425
19123SOL    HW159201  10.280  12.287  12.466
19123SOL    HW259202  10.300  12.434  12.498
19124SOL     OW59203   7.646   7.141   0.595
19124SOL    HW159204   7.693   7.079   0.651
19124SOL    HW259205   7.554   7.121   0.609
19125SOL     OW59206  13.964   5.558  10.541
19125SOL    HW159207  14.039   5.614  10.521
19125SOL    HW259208  13.986   5.519  10.625
19126SOL     OW59209  14.152   6.185  12.425
19126SOL    HW159210  14.063   6.154  12.412
19126SOL    HW259211  14.142   6.267  12.472
19127SOL     OW59212   4.399  11.941  14.220
19127SOL    HW159213   4.490  11.970  14.229
19127SOL    HW259214   4.370  11.925  14.310
19128SOL     OW59215   1.380  12.962  12.553
19128SOL    HW159216   1.443  12.988  12.620
19128SOL    HW259217   1.375  13.036  12.493
19129SOL     OW59218  10.920  13.762   4.951
19129SOL    HW159219  10.884  13.805   5.029
19129SOL    HW259220  11.009  13.796   4.943
19130SOL     OW59221   7.157  11.853   2.335
19130SOL    HW159222   7.101  11.776   2.337
19130SOL    HW259223   7.155  11.887   2.424
19131SOL     OW59224   4.170   8.682  12.498
19131SOL    HW159225   4.231   8.713  12.431
19131SOL    HW259226   4.148   8.593  12.471
19132SOL     OW59227   6.821  13.142   8.811
19132SOL    HW159228   6.772  13.170   8.734
19132SOL    HW259229   6.873  13.068   8.781
19133SOL     OW59230  10.166   0.613  14.707
19133SOL    HW159231  10.095   0.670  14.677
19133SOL    HW259232  10.121   0.541  14.753
19134SOL     OW59233  12.163   1.527   2.237
19134SOL    HW159234  12.178   1.433   2.241
19134SOL    HW259235  12.073   1.536   2.205
19135SOL     OW59236  13.627   3.595   6.938
19135SOL    HW159237  13.679   3.673   6.959
19135SOL    HW259238  13.542   3.631   6.912
19136SOL     OW59239  14.490   4.895  14.309
19136SOL    HW159240  14.505   4.953  14.384
19136SOL    HW259241  14.567   4.906  14.254
19137SOL     OW59242  11.421  11.972   6.454
19137SOL    HW159243  11.450  12.057   6.484
19137SOL    HW259244  11.361  11.991   6.382
19138SOL     OW59245   2.973   7.497  14.338
19138SOL    HW159246   2.958   7.459  14.251
19138SOL    HW259247   3.068   7.489  14.351
19139SOL     OW59248   7.787   2.389  12.073
19139SOL    HW159249   7.839   2.397  12.153
19139SOL    HW259250   7.707   2.345  12.101
19140SOL     OW59251  10.633  12.166  12.504
19140SOL    HW159252  10.604  12.108  12.434
19140SOL    HW259253  10.644  12.109  12.579
19141SOL     OW59254  13.486   2.161   0.603
19141SOL    HW159255  13.575   2.196   0.611
19141SOL    HW259256  13.488   2.080   0.653
19142SOL     OW59257   1.072   3.178  13.429
19142SOL    HW159258   1.134   3.227  13.374
19142SOL    HW259259   1.127   3.115  13.475
19143SOL     OW59260   4.657   0.375   3.218
19143SOL    HW159261   4.686   0.324   3.143
19143SOL    HW259262   4.734   0.380   3.275
19144SOL     OW59263   2.696   5.113   3.493
19144SOL    HW159264   2.640   5.173   3.445
19144SOL    HW259265   2.700   5.150   3.582
19145SOL     OW59266  10.953   5.735   4.424
19145SOL    HW159267  10.880   5.763   4.369
19145SOL    HW259268  10.918   5.739   4.513
19146SOL     OW59269   6.880   0.439   4.525
19146SOL    HW159270   6.815   0.455   4.457
19146SOL    HW259271   6.963   0.432   4.478
19147SOL     OW59272   7.813  10.397   9.390
19147SOL    HW159273   7.746  10.428   9.328
19147SOL    HW259274   7.881  10.361   9.334
19148SOL     OW59275   6.400   5.860   2.335
19148SOL    HW159276   6.387   5.878   2.429
19148SOL    HW259277   6.485   5.898   2.315
19149SOL     OW59278   4.851   5.291   9.461
19149SOL    HW159279   4.843   5.335   9.376
19149SOL    HW259280   4.811   5.353   9.523
19150SOL     OW59281  14.291   2.712   8.217
19150SOL    HW159282  14.263   2.732   8.127
19150SOL    HW259283  14.354   2.781   8.238
19151SOL     OW59284   9.585  11.538  13.331
19151SOL    HW159285   9.544  11.453  13.345
19151SOL    HW259286   9.596  11.573  13.419
19152SOL     OW59287  13.222   1.291   7.282
19152SOL    HW159288  13.311   1.274   7.254
19152SOL    HW259289  13.198   1.374   7.241
19153SOL     OW59290  13.291  10.700   6.088
19153SOL    HW159291  13.368  10.718   6.034
19153SOL    HW259292  13.303  10.610   6.117
19154SOL     OW59293   8.767   2.287   3.861
19154SOL    HW159294   8.715   2.354   3.906
19154SOL    HW259295   8.782   2.219   3.926
19155SOL     OW59296  10.395   4.469  14.423
19155SOL    HW159297  10.388   4.564  14.432
19155SOL    HW259298  10.453   4.443  14.495
19156SOL     OW59299   5.069  14.343   0.203
19156SOL    HW159300   4.993  14.395   0.175
19156SOL    HW259301   5.145  14.392   0.170
19157SOL     OW59302  13.297  10.226  12.317
19157SOL    HW159303  13.239  10.229  12.393
19157SOL    HW259304  13.253  10.167  12.256
19158SOL     OW59305  11.774   8.008   3.125
19158SOL    HW159306  11.701   8.034   3.182
19158SOL    HW259307  11.852   8.034   3.173
19159SOL     OW59308   0.352   7.280   1.264
19159SOL    HW159309   0.358   7.253   1.356
19159SOL    HW259310   0.319   7.202   1.219
19160SOL     OW59311   4.361  12.087   0.049
19160SOL    HW159312   4.434  12.149   0.037
19160SOL    HW259313   4.373  12.053   0.137
19161SOL     OW59314   7.919   7.857   0.853
19161SOL    HW159315   7.999   7.907   0.836
19161SOL    HW259316   7.858   7.885   0.784
19162SOL     OW59317   5.434   7.538   8.290
19162SOL    HW159318   5.519   7.541   8.248
19162SOL    HW259319   5.432   7.453   8.334
19163SOL     OW59320  13.569   9.616   1.413
19163SOL    HW159321  13.578   9.668   1.492
19163SOL    HW259322  13.576   9.525   1.443
19164SOL     OW59323   5.119   4.204   9.892
19164SOL    HW159324   5.112   4.221   9.986
19164SOL    HW259325   5.213   4.208   9.874
19165SOL     OW59326  11.220   3.873   9.734
19165SOL    HW159327  11.207   3.787   9.774
19165SOL    HW259328  11.283   3.917   9.792
19166SOL     OW59329   0.879   3.977  11.363
19166SOL    HW159330   0.937   3.976  11.287
19166SOL    HW259331   0.938   3.978  11.438
19167SOL     OW59332   1.007   0.261   0.783
19167SOL    HW159333   1.042   0.330   0.839
19167SOL    HW259334   1.014   0.181   0.834
19168SOL     OW59335   3.186  12.251   5.826
19168SOL    HW159336   3.242  12.202   5.765
19168SOL    HW259337   3.135  12.309   5.770
19169SOL     OW59338   2.040   8.502  14.130
19169SOL    HW159339   2.092   8.427  14.101
19169SOL    HW259340   1.979   8.466  14.195
19170SOL     OW59341   4.017   6.060  11.903
19170SOL    HW159342   4.098   6.085  11.948
19170SOL    HW259343   3.984   5.986  11.953
19171SOL     OW59344   9.209   9.011  13.492
19171SOL    HW159345   9.207   8.922  13.457
19171SOL    HW259346   9.215   9.000  13.587
19172SOL     OW59347   7.290   9.854   5.798
19172SOL    HW159348   7.305   9.795   5.872
19172SOL    HW259349   7.210   9.901   5.821
19173SOL     OW59350   2.611  10.140   0.616
19173SOL    HW159351   2.578  10.230   0.617
19173SOL    HW259352   2.539  10.088   0.582
19174SOL     OW59353   0.515   5.625   4.994
19174SOL    HW159354   0.565   5.558   5.040
19174SOL    HW259355   0.564   5.706   5.009
19175SOL     OW59356   7.159   6.432  12.371
19175SOL    HW159357   7.150   6.429  12.276
19175SOL    HW259358   7.070   6.433  12.404
19176SOL     OW59359   6.963   1.819   3.898
19176SOL    HW159360   6.986   1.845   3.987
19176SOL    HW259361   6.933   1.900   3.856
19177SOL     OW59362   9.991   7.530  12.988
19177SOL    HW159363  10.030   7.508  13.073
19177SOL    HW259364   9.908   7.573  13.011
19178SOL     OW59365  14.186   0.968   9.361
19178SOL    HW159366  14.139   0.930   9.287
19178SOL    HW259367  14.121   1.020   9.408
19179SOL     OW59368   9.950   8.447   8.317
19179SOL    HW159369   9.932   8.481   8.405
19179SOL    HW259370  10.040   8.472   8.299
19180SOL     OW59371   2.191   9.319   1.463
19180SOL    HW159372   2.265   9.259   1.468
19180SOL    HW259373   2.121   9.268   1.423
19181SOL     OW59374   9.203  11.778  11.194
19181SOL    HW159375   9.237  11.717  11.128
19181SOL    HW259376   9.212  11.730  11.277
19182SOL     OW59377   0.275   9.260  11.336
19182SOL    HW159378   0.268   9.166  11.316
19182SOL    HW259379   0.289   9.301  11.250
19183SOL     OW59380   9.118   7.097  12.572
19183SOL    HW159381   9.059   7.088  12.647
19183SOL    HW259382   9.061   7.092  12.495
19184SOL     OW59383   6.257  12.349  13.605
19184SOL    HW159384   6.221  12.428  13.645
19184SOL    HW259385   6.183  12.289  13.597
19185SOL     OW59386   9.786  12.374   0.575
19185SOL    HW159387   9.716  12.387   0.639
19185SOL    HW259388   9.836  12.299   0.610
19186SOL     OW59389   8.734   4.425   6.687
19186SOL    HW159390   8.670   4.367   6.727
19186SOL    HW259391   8.730   4.506   6.738
19187SOL     OW59392   2.933   0.912  12.741
19187SOL    HW159393   2.858   0.969  12.761
19187SOL    HW259394   2.915   0.879  12.653
19188SOL     OW59395   5.965   2.530  14.319
19188SOL    HW159396   6.061   2.535  14.322
19188SOL    HW259397   5.946   2.466  14.251
19189SOL     OW59398  10.048   5.435   6.793
19189SOL    HW159399  10.092   5.511   6.831
19189SOL    HW259400  10.012   5.388   6.869
19190SOL     OW59401   0.164  10.894   7.551
19190SOL    HW159402   0.190  10.804   7.534
19190SOL    HW259403   0.069  10.894   7.544
19191SOL     OW59404   0.722   6.411   9.722
19191SOL    HW159405   0.660   6.386   9.790
19191SOL    HW259406   0.694   6.360   9.645
19192SOL     OW59407   0.177  12.253  13.211
19192SOL    HW159408   0.199  12.193  13.139
19192SOL    HW259409   0.205  12.339  13.179
19193SOL     OW59410   2.679   0.225   2.814
19193SOL    HW159411   2.682   0.131   2.798
19193SOL    HW259412   2.615   0.258   2.751
19194SOL     OW59413   3.626  10.925  12.618
19194SOL    HW159414   3.546  10.876  12.600
19194SOL    HW259415   3.654  10.957  12.532
19195SOL     OW59416  11.300  12.195  13.958
19195SOL    HW159417  11.246  12.179  14.036
19195SOL    HW259418  11.388  12.167  13.984
19196SOL     OW59419  14.540  10.397   1.406
19196SOL    HW159420  14.616  10.395   1.463
19196SOL    HW259421  14.555  10.473   1.349
19197SOL     OW59422  10.502   6.959   2.087
19197SOL    HW159423  10.455   6.924   2.162
19197SOL    HW259424  10.462   6.916   2.011
19198SOL     OW59425  13.420   4.187   7.755
19198SOL    HW159426  13.365   4.202   7.832
19198SOL    HW259427  13.510   4.183   7.790
19199SOL     OW59428   3.165  12.113   3.910
19199SOL    HW159429   3.118  12.049   3.856
19199SOL    HW259430   3.214  12.059   3.973
19200SOL     OW59431  13.733   1.809  13.324
19200SOL    HW159432  13.679   1.730  13.334
19200SOL    HW259433  13.820   1.775  13.302
19201SOL     OW59434  10.060  13.331   1.611
19201SOL    HW159435   9.967  13.308   1.613
19201SOL    HW259436  10.102  13.266   1.668
19202SOL     OW59437   0.830   5.897   9.946
19202SOL    HW159438   0.820   5.979   9.994
19202SOL    HW259439   0.775   5.907   9.869
19203SOL     OW59440   4.851   6.771  14.850
19203SOL    HW159441   4.864   6.801  14.760
19203SOL    HW259442   4.939   6.748   0.004
19204SOL     OW59443   7.864   5.055   1.718
19204SOL    HW159444   7.909   5.104   1.649
19204SOL    HW259445   7.934   5.028   1.778
19205SOL     OW59446   6.512   0.058  13.941
19205SOL    HW159447   6.451   0.103  13.883
19205SOL    HW259448   6.491   0.091  14.028
19206SOL     OW59449  10.017   7.289   6.884
19206SOL    HW159450   9.923   7.287   6.902
19206SOL    HW259451  10.046   7.373   6.918
19207SOL     OW59452   4.313   9.244   1.520
19207SOL    HW159453   4.267   9.320   1.483
19207SOL    HW259454   4.290   9.245   1.613
19208SOL     OW59455  11.901   7.341  13.447
19208SOL    HW159456  11.903   7.250  13.416
19208SOL    HW259457  11.974   7.383  13.402
19209SOL     OW59458   2.207   9.868   5.083
19209SOL    HW159459   2.176   9.958   5.089
19209SOL    HW259460   2.129   9.814   5.091
19210SOL     OW59461   5.241  11.123   7.317
19210SOL    HW159462   5.148  11.104   7.304
19210SOL    HW259463   5.254  11.118   7.412
19211SOL     OW59464  14.278  13.315   2.379
19211SOL    HW159465  14.348  13.332   2.316
19211SOL    HW259466  14.201  13.357   2.340
19212SOL     OW59467  13.275   8.502  10.497
19212SOL    HW159468  13.210   8.432  10.488
19212SOL    HW259469  13.268   8.551  10.415
19213SOL     OW59470  10.145   6.234  10.423
19213SOL    HW159471  10.102   6.165  10.474
19213SOL    HW259472  10.228   6.196  10.395
19214SOL     OW59473   4.010   7.969   9.103
19214SOL    HW159474   3.921   7.943   9.078
19214SOL    HW259475   4.061   7.959   9.023
19215SOL     OW59476  12.711  12.261   8.915
19215SOL    HW159477  12.784  12.200   8.899
19215SOL    HW259478  12.752  12.337   8.956
19216SOL     OW59479   7.840   6.715   3.032
19216SOL    HW159480   7.854   6.628   3.069
19216SOL    HW259481   7.808   6.768   3.105
19217SOL     OW59482  14.598   3.472  13.110
19217SOL    HW159483  14.677   3.463  13.056
19217SOL    HW259484  14.597   3.564  13.136
19218SOL     OW59485   4.318   5.684   1.055
19218SOL    HW159486   4.257   5.651   0.988
19218SOL    HW259487   4.334   5.775   1.031
19219SOL     OW59488   1.425   9.801   0.386
19219SOL    HW159489   1.388   9.808   0.298
19219SOL    HW259490   1.365   9.851   0.441
19220SOL     OW59491   7.401  10.303  11.324
19220SOL    HW159492   7.375  10.212  11.336
19220SOL    HW259493   7.354  10.330  11.245
19221SOL     OW59494  13.298   8.567  14.245
19221SOL    HW159495  13.309   8.536  14.335
19221SOL    HW259496  13.383   8.551  14.204
19222SOL     OW59497   5.579   7.964   4.883
19222SOL    HW159498   5.549   7.995   4.797
19222SOL    HW259499   5.499   7.930   4.925
19223SOL     OW59500  14.798   4.231  12.475
19223SOL    HW159501  14.787   4.198  12.564
19223SOL    HW259502   0.007   4.197  12.448
19224SOL     OW59503   5.410   2.765   9.232
19224SOL    HW159504   5.435   2.697   9.293
19224SOL    HW259505   5.336   2.728   9.184
19225SOL     OW59506  10.467   3.020   2.512
19225SOL    HW159507  10.516   3.058   2.438
19225SOL    HW259508  10.482   3.081   2.584
19226SOL     OW59509  12.673   3.619  10.629
19226SOL    HW159510  12.629   3.547  10.675
19226SOL    HW259511  12.709   3.578  10.550
19227SOL     OW59512   8.228   2.049   1.813
19227SOL    HW159513   8.311   2.004   1.799
19227SOL    HW259514   8.167   1.980   1.838
19228SOL     OW59515   3.850   5.523   5.892
19228SOL    HW159516   3.923   5.475   5.932
19228SOL    HW259517   3.891   5.573   5.822
19229SOL     OW59518   0.278   2.269   6.915
19229SOL    HW159519   0.281   2.179   6.947
19229SOL    HW259520   0.195   2.275   6.868
19230SOL     OW59521  12.147   0.817  13.525
19230SOL    HW159522  12.087   0.858  13.588
19230SOL    HW259523  12.157   0.882  13.456
19231SOL     OW59524  10.445  12.547  13.296
19231SOL    HW159525  10.422  12.628  13.250
19231SOL    HW259526  10.361  12.503  13.310
19232SOL     OW59527   5.909   1.651  13.225
19232SOL    HW159528   5.863   1.594  13.286
19232SOL    HW259529   5.885   1.617  13.138
19233SOL     OW59530   7.984   1.764   2.243
19233SOL    HW159531   7.995   1.668   2.241
19233SOL    HW259532   8.030   1.791   2.323
19234SOL     OW59533   1.068   4.354   0.032
19234SOL    HW159534   1.123   4.359   0.110
19234SOL    HW259535   1.072   4.262   0.006
19235SOL     OW59536   0.585   5.192   7.046
19235SOL    HW159537   0.668   5.203   7.093
19235SOL    HW259538   0.585   5.101   7.018
19236SOL     OW59539   0.875   6.707   8.173
19236SOL    HW159540   0.807   6.767   8.143
19236SOL    HW259541   0.856   6.625   8.128
19237SOL     OW59542  12.085  13.050   2.980
19237SOL    HW159543  12.152  13.115   3.002
19237SOL    HW259544  12.132  12.967   2.977
19238SOL     OW59545   1.768   2.977  14.544
19238SOL    HW159546   1.795   2.999  14.633
19238SOL    HW259547   1.821   2.901  14.521
19239SOL     OW59548   0.729   1.186   0.493
19239SOL    HW159549   0.657   1.219   0.439
19239SOL    HW259550   0.738   1.250   0.563
19240SOL     OW59551   7.908   7.897  14.763
19240SOL    HW159552   7.944   7.884  14.675
19240SOL    HW259553   7.983   7.883  14.821
19241SOL     OW59554   4.508   3.821  10.425
19241SOL    HW159555   4.555   3.841  10.506
19241SOL    HW259556   4.497   3.726  10.426
19242SOL     OW59557   8.298   0.477  11.342
19242SOL    HW159558   8.363   0.470  11.272
19242SOL    HW259559   8.275   0.387  11.364
19243SOL     OW59560  14.691  13.267  13.786
19243SOL    HW159561  14.681  13.269  13.881
19243SOL    HW259562  14.606  13.236  13.754
19244SOL     OW59563   2.485   4.394   4.121
19244SOL    HW159564   2.550   4.372   4.188
19244SOL    HW259565   2.461   4.485   4.140
19245SOL     OW59566   1.063  13.015   3.345
19245SOL    HW159567   1.052  12.920   3.349
19245SOL    HW259568   1.074  13.041   3.436
19246SOL     OW59569  14.344   9.374   9.633
19246SOL    HW159570  14.398   9.339   9.562
19246SOL    HW259571  14.255   9.342   9.613
19247SOL     OW59572  11.781   1.416   7.623
19247SOL    HW159573  11.710   1.454   7.571
19247SOL    HW259574  11.861   1.437   7.574
19248SOL     OW59575  11.862   8.410   3.183
19248SOL    HW159576  11.768   8.394   3.173
19248SOL    HW259577  11.888   8.449   3.100
19249SOL     OW59578   9.581   4.152   4.128
19249SOL    HW159579   9.490   4.160   4.097
19249SOL    HW259580   9.634   4.168   4.050
19250SOL     OW59581   2.310   5.026   9.379
19250SOL    HW159582   2.325   4.976   9.299
19250SOL    HW259583   2.377   5.094   9.378
19251SOL     OW59584   5.684   2.173   4.924
19251SOL    HW159585   5.711   2.103   4.864
19251SOL    HW259586   5.648   2.127   5.000
19252SOL     OW59587   2.589   0.160   6.083
19252SOL    HW159588   2.560   0.085   6.030
19252SOL    HW259589   2.666   0.193   6.037
19253SOL     OW59590  10.957  14.300   5.218
19253SOL    HW159591  10.871  14.274   5.253
19253SOL    HW259592  10.978  14.381   5.266
19254SOL     OW59593   1.335  10.957   7.716
19254SOL    HW159594   1.264  10.949   7.780
19254SOL    HW259595   1.410  10.988   7.767
19255SOL     OW59596   0.883  14.385   9.133
19255SOL    HW159597   0.803  14.365   9.084
19255SOL    HW259598   0.872  14.339   9.217
19256SOL     OW59599   1.586   9.316   3.433
19256SOL    HW159600   1.521   9.339   3.499
19256SOL    HW259601   1.539   9.259   3.372
19257SOL     OW59602   3.450  14.049   9.583
19257SOL    HW159603   3.520  14.011   9.530
19257SOL    HW259604   3.411  13.975   9.628
19258SOL     OW59605  12.119  10.508  12.724
19258SOL    HW159606  12.078  10.589  12.756
19258SOL    HW259607  12.199  10.536  12.680
19259SOL     OW59608   6.697  13.120  10.500
19259SOL    HW159609   6.730  13.171  10.426
19259SOL    HW259610   6.621  13.074  10.466
19260SOL     OW59611   4.510   8.013  14.398
19260SOL    HW159612   4.570   7.940  14.411
19260SOL    HW259613   4.565   8.090  14.396
19261SOL     OW59614   6.424   2.629   9.031
19261SOL    HW159615   6.364   2.688   8.985
19261SOL    HW259616   6.419   2.657   9.122
19262SOL     OW59617   0.054  10.436   1.056
19262SOL    HW159618  14.869  10.369   1.024
19262SOL    HW259619   0.138  10.413   1.015
19263SOL     OW59620  10.518   6.867  13.845
19263SOL    HW159621  10.514   6.838  13.936
19263SOL    HW259622  10.471   6.799  13.796
19264SOL     OW59623   9.361   6.483  10.237
19264SOL    HW159624   9.275   6.523  10.239
19264SOL    HW259625   9.380   6.461  10.328
19265SOL     OW59626  13.988  12.637   5.887
19265SOL    HW159627  13.929  12.563   5.876
19265SOL    HW259628  14.075  12.603   5.863
19266SOL     OW59629   2.805  10.348  12.238
19266SOL    HW159630   2.831  10.404  12.311
19266SOL    HW259631   2.882  10.344  12.182
19267SOL     OW59632  14.783   5.353   5.489
19267SOL    HW159633  14.836   5.285   5.448
19267SOL    HW259634  14.846   5.422   5.511
19268SOL     OW59635  12.588   6.358  14.457
19268SOL    HW159636  12.597   6.265  14.436
19268SOL    HW259637  12.502   6.365  14.498
19269SOL     OW59638   7.356   5.038  11.711
19269SOL    HW159639   7.336   4.945  11.697
19269SOL    HW259640   7.271   5.078  11.731
19270SOL     OW59641   6.803   7.239  11.817
19270SOL    HW159642   6.868   7.249  11.747
19270SOL    HW259643   6.829   7.304  11.883
19271SOL     OW59644   6.257   1.242  14.635
19271SOL    HW159645   6.352   1.249  14.622
19271SOL    HW259646   6.246   1.170  14.697
19272SOL     OW59647   7.275   5.488  11.741
19272SOL    HW159648   7.273   5.533  11.656
19272SOL    HW259649   7.247   5.399  11.720
19273SOL     OW59650   7.729   7.825   9.193
19273SOL    HW159651   7.675   7.774   9.131
19273SOL    HW259652   7.667   7.885   9.235
19274SOL     OW59653  13.887  14.533  12.308
19274SOL    HW159654  13.974  14.563  12.335
19274SOL    HW259655  13.832  14.547  12.385
19275SOL     OW59656   1.862   9.453  11.217
19275SOL    HW159657   1.953   9.478  11.230
19275SOL    HW259658   1.847   9.380  11.277
19276SOL     OW59659   0.644  12.753   4.836
19276SOL    HW159660   0.689  12.726   4.916
19276SOL    HW259661   0.553  12.727   4.849
19277SOL     OW59662   3.096  11.136   5.545
19277SOL    HW159663   3.160  11.126   5.474
19277SOL    HW259664   3.114  11.222   5.581
19278SOL     OW59665   5.909   0.456   9.981
19278SOL    HW159666   5.841   0.512   9.944
19278SOL    HW259667   5.954   0.512  10.045
19279SOL     OW59668   0.808   4.025   6.298
19279SOL    HW159669   0.891   4.024   6.344
19279SOL    HW259670   0.744   3.993   6.362
19280SOL     OW59671   2.832  12.289   8.963
19280SOL    HW159672   2.848  12.208   9.011
19280SOL    HW259673   2.737  12.292   8.950
19281SOL     OW59674  11.913   8.729   0.091
19281SOL    HW159675  11.845   8.695   0.149
19281SOL    HW259676  11.877   8.810   0.056
19282SOL     OW59677   9.670   3.913   6.271
19282SOL    HW159678   9.636   3.935   6.184
19282SOL    HW259679   9.604   3.945   6.331
19283SOL     OW59680  13.588  14.096  13.976
19283SOL    HW159681  13.578  14.050  14.060
19283SOL    HW259682  13.683  14.101  13.963
19284SOL     OW59683   5.397   3.952   7.791
19284SOL    HW159684   5.454   4.029   7.788
19284SOL    HW259685   5.447   3.887   7.840
19285SOL     OW59686   2.509  14.313   7.847
19285SOL    HW159687   2.551  14.273   7.771
19285SOL    HW259688   2.541  14.262   7.921
19286SOL     OW59689  12.463  12.951   8.020
19286SOL    HW159690  12.379  12.922   7.982
19286SOL    HW259691  12.438  13.010   8.091
19287SOL     OW59692   8.741  12.772   2.888
19287SOL    HW159693   8.733  12.860   2.925
19287SOL    HW259694   8.663  12.761   2.834
19288SOL     OW59695   1.731  13.604  11.947
19288SOL    HW159696   1.748  13.625  11.855
19288SOL    HW259697   1.659  13.662  11.972
19289SOL     OW59698   1.138  10.407   1.954
19289SOL    HW159699   1.079  10.464   2.004
19289SOL    HW259700   1.097  10.400   1.868
19290SOL     OW59701  12.810   8.448  14.652
19290SOL    HW159702  12.756   8.371  14.637
19290SOL    HW259703  12.856   8.431  14.734
19291SOL     OW59704   2.938   0.761   1.084
19291SOL    HW159705   2.956   0.774   1.177
19291SOL    HW259706   2.949   0.848   1.045
19292SOL     OW59707   3.586   7.682  12.844
19292SOL    HW159708   3.589   7.758  12.786
19292SOL    HW259709   3.536   7.616  12.796
19293SOL     OW59710   0.030   9.643  10.797
19293SOL    HW159711  14.834   9.692  10.837
19293SOL    HW259712  14.865   9.594  10.726
19294SOL     OW59713   6.229   6.557  12.505
19294SOL    HW159714   6.226   6.550  12.410
19294SOL    HW259715   6.195   6.645  12.523
19295SOL     OW59716   2.553   3.268   3.093
19295SOL    HW159717   2.483   3.299   3.150
19295SOL    HW259718   2.626   3.326   3.111
19296SOL     OW59719   4.146   0.490   6.225
19296SOL    HW159720   4.183   0.570   6.188
19296SOL    HW259721   4.054   0.492   6.198
19297SOL     OW59722   4.420  12.456  11.994
19297SOL    HW159723   4.347  12.464  12.055
19297SOL    HW259724   4.499  12.467  12.048
19298SOL     OW59725  11.812   3.801   8.471
19298SOL    HW159726  11.746   3.754   8.421
19298SOL    HW259727  11.820   3.752   8.553
19299SOL     OW59728   4.242   1.920  12.854
19299SOL    HW159729   4.204   1.833  12.863
19299SOL    HW259730   4.187   1.976  12.909
19300SOL     OW59731   3.275   4.242   0.425
19300SOL    HW159732   3.301   4.228   0.516
19300SOL    HW259733   3.216   4.317   0.428
19301SOL     OW59734   3.177   4.213   8.250
19301SOL    HW159735   3.237   4.139   8.257
19301SOL    HW259736   3.215   4.269   8.183
19302SOL     OW59737   4.911   8.269   4.729
19302SOL    HW159738   4.979   8.230   4.783
19302SOL    HW259739   4.932   8.242   4.640
19303SOL     OW59740  10.847   9.775  14.762
19303SOL    HW159741  10.911   9.838  14.794
19303SOL    HW259742  10.762   9.815  14.779
19304SOL     OW59743   8.326   1.005  10.736
19304SOL    HW159744   8.366   1.038  10.816
19304SOL    HW259745   8.322   1.081  10.677
19305SOL     OW59746  10.050  14.414  11.808
19305SOL    HW159747  10.114  14.475  11.771
19305SOL    HW259748  10.030  14.451  11.895
19306SOL     OW59749  12.223   9.391   8.936
19306SOL    HW159750  12.317   9.400   8.920
19306SOL    HW259751  12.183   9.456   8.877
19307SOL     OW59752   1.058   6.883   7.415
19307SOL    HW159753   0.992   6.943   7.380
19307SOL    HW259754   1.058   6.898   7.509
19308SOL     OW59755   7.290   6.588  10.142
19308SOL    HW159756   7.248   6.511  10.181
19308SOL    HW259757   7.227   6.659  10.156
19309SOL     OW59758  14.499   5.059   5.281
19309SOL    HW159759  14.492   5.025   5.370
19309SOL    HW259760  14.545   4.991   5.232
19310SOL     OW59761  11.014   9.647  13.442
19310SOL    HW159762  11.083   9.624  13.380
19310SOL    HW259763  10.934   9.614  13.401
19311SOL     OW59764  11.825  10.360  14.857
19311SOL    HW159765  11.775  10.323   0.054
19311SOL    HW259766  11.916  10.342   0.003
19312SOL     OW59767   0.815  11.813   2.663
19312SOL    HW159768   0.745  11.769   2.710
19312SOL    HW259769   0.838  11.752   2.592
19313SOL     OW59770  13.925  10.890   4.576
19313SOL    HW159771  13.920  10.918   4.667
19313SOL    HW259772  14.015  10.908   4.550
19314SOL     OW59773   0.986  13.647   3.165
19314SOL    HW159774   1.035  13.596   3.229
19314SOL    HW259775   0.998  13.738   3.193
19315SOL     OW59776   3.451   2.756   7.891
19315SOL    HW159777   3.463   2.827   7.955
19315SOL    HW259778   3.358   2.735   7.897
19316SOL     OW59779   0.531   7.898   9.467
19316SOL    HW159780   0.619   7.867   9.446
19316SOL    HW259781   0.492   7.827   9.518
19317SOL     OW59782   7.133  12.215   2.361
19317SOL    HW159783   7.194  12.246   2.427
19317SOL    HW259784   7.100  12.132   2.397
19318SOL     OW59785  10.475   2.329   2.758
19318SOL    HW159786  10.514   2.362   2.839
19318SOL    HW259787  10.524   2.373   2.689
19319SOL     OW59788   4.624   6.443   7.995
19319SOL    HW159789   4.691   6.384   8.029
19319SOL    HW259790   4.648   6.456   7.903
19320SOL     OW59791  10.741  14.492   2.188
19320SOL    HW159792  10.762  14.401   2.211
19320SOL    HW259793  10.737  14.492   2.092
19321SOL     OW59794   0.689   2.585  14.102
19321SOL    HW159795   0.677   2.678  14.084
19321SOL    HW259796   0.691   2.579  14.198
19322SOL     OW59797  13.507   5.769   7.763
19322SOL    HW159798  13.592   5.794   7.726
19322SOL    HW259799  13.444   5.794   7.695
19323SOL     OW59800   2.864  12.829   1.225
19323SOL    HW159801   2.830  12.777   1.152
19323SOL    HW259802   2.921  12.769   1.273
19324SOL     OW59803   8.885   8.418   7.287
19324SOL    HW159804   8.952   8.354   7.311
19324SOL    HW259805   8.932   8.501   7.282
19325SOL     OW59806  13.313  11.742   1.878
19325SOL    HW159807  13.398  11.702   1.895
19325SOL    HW259808  13.256  11.706   1.945
19326SOL     OW59809   3.321  11.507   8.313
19326SOL    HW159810   3.253  11.454   8.269
19326SOL    HW259811   3.402  11.480   8.271
19327SOL     OW59812   2.757   3.762   0.852
19327SOL    HW159813   2.795   3.849   0.851
19327SOL    HW259814   2.827   3.704   0.821
19328SOL     OW59815   2.848   9.882   8.865
19328SOL    HW159816   2.831   9.920   8.952
19328SOL    HW259817   2.858   9.958   8.808
19329SOL     OW59818   3.945   3.110   7.611
19329SOL    HW159819   3.981   3.065   7.535
19329SOL    HW259820   3.877   3.050   7.643
19330SOL     OW59821  11.845  14.592  12.807
19330SOL    HW159822  11.838  14.497  12.817
19330SOL    HW259823  11.891  14.622  12.885
19331SOL     OW59824   3.652  12.434   3.310
19331SOL    HW159825   3.575  12.488   3.290
19331SOL    HW259826   3.726  12.487   3.280
19332SOL     OW59827  11.555   3.820  11.391
19332SOL    HW159828  11.517   3.846  11.307
19332SOL    HW259829  11.650   3.817  11.374
19333SOL     OW59830   4.499   4.225   6.741
19333SOL    HW159831   4.562   4.293   6.719
19333SOL    HW259832   4.462   4.253   6.825
19334SOL     OW59833   2.159   9.013   5.308
19334SOL    HW159834   2.180   9.072   5.235
19334SOL    HW259835   2.244   8.978   5.335
19335SOL     OW59836   5.773   6.401   3.227
19335SOL    HW159837   5.694   6.366   3.269
19335SOL    HW259838   5.740   6.440   3.146
19336SOL     OW59839   3.592   9.137   9.271
19336SOL    HW159840   3.600   9.137   9.176
19336SOL    HW259841   3.660   9.077   9.302
19337SOL     OW59842   0.216   2.635   7.818
19337SOL    HW159843   0.197   2.727   7.836
19337SOL    HW259844   0.133   2.599   7.785
19338SOL     OW59845  13.931  14.707   3.254
19338SOL    HW159846  13.877  14.640   3.212
19338SOL    HW259847  13.897  14.711   3.344
19339SOL     OW59848   1.205  11.137   8.860
19339SOL    HW159849   1.282  11.190   8.883
19339SOL    HW259850   1.210  11.061   8.918
19340SOL     OW59851   8.404   5.451   4.957
19340SOL    HW159852   8.353   5.370   4.953
19340SOL    HW259853   8.414   5.469   5.050
19341SOL     OW59854  12.789   6.498   8.503
19341SOL    HW159855  12.837   6.464   8.428
19341SOL    HW259856  12.790   6.427   8.567
19342SOL     OW59857  10.309   4.522   2.625
19342SOL    HW159858  10.249   4.582   2.582
19342SOL    HW259859  10.370   4.579   2.673
19343SOL     OW59860   8.008   8.345  12.896
19343SOL    HW159861   8.086   8.292  12.885
19343SOL    HW259862   8.021   8.390  12.980
19344SOL     OW59863   2.117   1.693   7.338
19344SOL    HW159864   2.097   1.785   7.354
19344SOL    HW259865   2.057   1.645   7.396
19345SOL     OW59866  11.133  11.212   7.647
19345SOL    HW159867  11.130  11.117   7.650
19345SOL    HW259868  11.186  11.237   7.724
19346SOL     OW59869   4.384  13.321   3.519
19346SOL    HW159870   4.289  13.335   3.518
19346SOL    HW259871   4.396  13.240   3.568
19347SOL     OW59872  14.517  13.570  12.909
19347SOL    HW159873  14.567  13.606  12.983
19347SOL    HW259874  14.448  13.634  12.894
19348SOL     OW59875  12.690  13.159   2.823
19348SOL    HW159876  12.769  13.119   2.786
19348SOL    HW259877  12.655  13.213   2.753
19349SOL     OW59878   8.259   3.168   5.957
19349SOL    HW159879   8.325   3.099   5.947
19349SOL    HW259880   8.183   3.124   5.995
19350SOL     OW59881  11.821  12.957   5.090
19350SOL    HW159882  11.843  12.864   5.079
19350SOL    HW259883  11.736  12.957   5.133
19351SOL     OW59884   3.563   4.986   7.566
19351SOL    HW159885   3.586   5.069   7.607
19351SOL    HW259886   3.482   5.003   7.519
19352SOL     OW59887   7.512   3.439  14.464
19352SOL    HW159888   7.604   3.435  14.439
19352SOL    HW259889   7.512   3.436  14.560
19353SOL     OW59890   4.096   1.303   2.865
19353SOL    HW159891   4.104   1.372   2.931
19353SOL    HW259892   4.025   1.334   2.808
19354SOL     OW59893   3.124  12.371   4.964
19354SOL    HW159894   3.138  12.396   5.056
19354SOL    HW259895   3.121  12.275   4.965
19355SOL     OW59896   4.795  11.172   4.520
19355SOL    HW159897   4.870  11.221   4.553
19355SOL    HW259898   4.721  11.233   4.529
19356SOL     OW59899   4.718   2.905   2.286
19356SOL    HW159900   4.657   2.950   2.345
19356SOL    HW259901   4.666   2.884   2.209
19357SOL     OW59902   5.160   3.763   9.098
19357SOL    HW159903   5.178   3.731   9.186
19357SOL    HW259904   5.089   3.825   9.108
19358SOL     OW59905   9.031   1.079   2.249
19358SOL    HW159906   9.104   1.028   2.214
19358SOL    HW259907   9.033   1.062   2.343
19359SOL     OW59908  11.158  11.619   3.950
19359SOL    HW159909  11.122  11.531   3.957
19359SOL    HW259910  11.249  11.606   3.921
19360SOL     OW59911  12.566  12.494  12.691
19360SOL    HW159912  12.499  12.488  12.759
19360SOL    HW259913  12.523  12.541  12.619
19361SOL     OW59914  11.030   8.237   7.549
19361SOL    HW159915  10.990   8.318   7.581
19361SOL    HW259916  11.102   8.267   7.493
19362SOL     OW59917  10.079   6.729   0.888
19362SOL    HW159918  10.117   6.661   0.942
19362SOL    HW259919  10.026   6.682   0.823
19363SOL     OW59920   0.431   0.990  12.675
19363SOL    HW159921   0.422   0.915  12.617
19363SOL    HW259922   0.341   1.014  12.699
19364SOL     OW59923   4.207   0.122   3.600
19364SOL    HW159924   4.193   0.083   3.514
19364SOL    HW259925   4.132   0.091   3.652
19365SOL     OW59926   2.471   4.966   9.604
19365SOL    HW159927   2.529   5.040   9.626
19365SOL    HW259928   2.432   4.991   9.520
19366SOL     OW59929   9.674   1.138   4.712
19366SOL    HW159930   9.613   1.093   4.769
19366SOL    HW259931   9.619   1.179   4.645
19367SOL     OW59932   9.165  10.519   3.127
19367SOL    HW159933   9.204  10.511   3.214
19367SOL    HW259934   9.100  10.449   3.123
19368SOL     OW59935  12.350   2.840  10.512
19368SOL    HW159936  12.292   2.884  10.450
19368SOL    HW259937  12.352   2.749  10.483
19369SOL     OW59938   6.135   5.248   5.405
19369SOL    HW159939   6.138   5.281   5.315
19369SOL    HW259940   6.098   5.320   5.456
19370SOL     OW59941   3.762   0.297  11.071
19370SOL    HW159942   3.746   0.353  10.995
19370SOL    HW259943   3.699   0.225  11.061
19371SOL     OW59944   2.022  14.276   2.382
19371SOL    HW159945   2.090  14.281   2.314
19371SOL    HW259946   2.017  14.365   2.417
19372SOL     OW59947  10.793   1.740  13.805
19372SOL    HW159948  10.850   1.810  13.775
19372SOL    HW259949  10.739   1.718  13.730
19373SOL     OW59950   4.465  13.744   6.366
19373SOL    HW159951   4.423  13.674   6.316
19373SOL    HW259952   4.559  13.725   6.358
19374SOL     OW59953   6.002   4.707   8.568
19374SOL    HW159954   5.961   4.660   8.640
19374SOL    HW259955   5.999   4.799   8.594
19375SOL     OW59956  12.880  12.925   8.969
19375SOL    HW159957  12.845  12.974   8.895
19375SOL    HW259958  12.869  12.984   9.044
19376SOL     OW59959   9.597   3.708  11.192
19376SOL    HW159960   9.661   3.740  11.256
19376SOL    HW259961   9.591   3.614  11.209
19377SOL     OW59962   9.961  11.508  13.644
19377SOL    HW159963   9.922  11.570  13.706
19377SOL    HW259964   9.984  11.432  13.697
19378SOL     OW59965  11.194   0.112   7.387
19378SOL    HW159966  11.256   0.183   7.369
19378SOL    HW259967  11.208   0.050   7.315
19379SOL     OW59968  10.237   5.517   5.936
19379SOL    HW159969  10.171   5.566   5.887
19379SOL    HW259970  10.321   5.551   5.904
19380SOL     OW59971   6.702   8.752   9.474
19380SOL    HW159972   6.696   8.698   9.395
19380SOL    HW259973   6.623   8.730   9.523
19381SOL     OW59974   6.096  13.080  10.058
19381SOL    HW159975   6.040  13.101   9.984
19381SOL    HW259976   6.113  12.986  10.050
19382SOL     OW59977   0.791   5.651   8.893
19382SOL    HW159978   0.838   5.686   8.969
19382SOL    HW259979   0.739   5.579   8.928
19383SOL     OW59980  14.602  11.730   4.713
19383SOL    HW159981  14.551  11.649   4.706
19383SOL    HW259982  14.538  11.799   4.697
19384SOL     OW59983   1.129  11.860   1.085
19384SOL    HW159984   1.083  11.798   1.029
19384SOL    HW259985   1.070  11.935   1.093
19385SOL     OW59986  12.434   4.485   5.790
19385SOL    HW159987  12.363   4.422   5.776
19385SOL    HW259988  12.469   4.500   5.702
19386SOL     OW59989  11.772   8.212   5.596
19386SOL    HW159990  11.718   8.291   5.595
19386SOL    HW259991  11.716   8.146   5.637
19387SOL     OW59992   4.999   0.248  11.778
19387SOL    HW159993   5.016   0.305  11.853
19387SOL    HW259994   5.066   0.180  11.784
19388SOL     OW59995   8.169   0.610   3.055
19388SOL    HW159996   8.160   0.696   3.015
19388SOL    HW259997   8.247   0.618   3.111
19389SOL     OW59998   4.994   8.392   3.633
19389SOL    HW159999   4.971   8.353   3.718
19389SOL    HW260000   5.036   8.475   3.656
19390SOL     OW60001   8.772   5.532  14.077
19390SOL    HW160002   8.801   5.604  14.133
19390SOL    HW260003   8.819   5.545  13.995
19391SOL     OW60004   1.104   1.187   8.556
19391SOL    HW160005   1.050   1.183   8.635
19391SOL    HW260006   1.168   1.256   8.575
19392SOL     OW60007   7.158   5.469   6.160
19392SOL    HW160008   7.070   5.455   6.196
19392SOL    HW260009   7.144   5.531   6.088
19393SOL     OW60010   1.089   3.588   7.790
19393SOL    HW160011   1.097   3.632   7.706
19393SOL    HW260012   1.168   3.612   7.838
19394SOL     OW60013   1.844   5.756   3.616
19394SOL    HW160014   1.821   5.699   3.543
19394SOL    HW260015   1.771   5.818   3.623
19395SOL     OW60016   7.582  14.771  13.730
19395SOL    HW160017   7.566  14.795  13.638
19395SOL    HW260018   7.674  14.746  13.732
19396SOL     OW60019   1.885  10.802  13.805
19396SOL    HW160020   1.924  10.719  13.776
19396SOL    HW260021   1.932  10.824  13.885
19397SOL     OW60022   5.329  14.487  11.394
19397SOL    HW160023   5.424  14.495  11.394
19397SOL    HW260024   5.313  14.398  11.426
19398SOL     OW60025  10.627   8.019   8.006
19398SOL    HW160026  10.573   8.061   7.939
19398SOL    HW260027  10.626   7.927   7.982
19399SOL     OW60028   3.454   7.782   2.966
19399SOL    HW160029   3.403   7.813   3.040
19399SOL    HW260030   3.393   7.725   2.918
19400SOL     OW60031  11.936   1.545  10.165
19400SOL    HW160032  11.852   1.525  10.207
19400SOL    HW260033  11.953   1.469  10.110
19401SOL     OW60034  10.278   0.523   1.665
19401SOL    HW160035  10.347   0.566   1.716
19401SOL    HW260036  10.201   0.526   1.722
19402SOL     OW60037   6.390   0.922  12.256
19402SOL    HW160038   6.406   0.851  12.318
19402SOL    HW260039   6.335   0.883  12.188
19403SOL     OW60040   9.632   4.240   5.051
19403SOL    HW160041   9.621   4.197   4.966
19403SOL    HW260042   9.695   4.185   5.098
19404SOL     OW60043  13.391   2.942  13.473
19404SOL    HW160044  13.477   2.972  13.503
19404SOL    HW260045  13.408   2.904  13.387
19405SOL     OW60046  12.201   4.837   3.625
19405SOL    HW160047  12.122   4.850   3.574
19405SOL    HW260048  12.225   4.924   3.655
19406SOL     OW60049   3.914   3.672  12.121
19406SOL    HW160050   3.884   3.760  12.098
19406SOL    HW260051   3.985   3.687  12.184
19407SOL     OW60052  11.157   3.834   0.880
19407SOL    HW160053  11.108   3.904   0.838
19407SOL    HW260054  11.246   3.868   0.889
19408SOL     OW60055  11.941  11.715  13.117
19408SOL    HW160056  11.945  11.694  13.210
19408SOL    HW260057  11.847  11.719  13.098
19409SOL     OW60058   5.662   3.104   7.190
19409SOL    HW160059   5.636   3.118   7.099
19409SOL    HW260060   5.751   3.069   7.185
19410SOL     OW60061   1.391  14.734   1.228
19410SOL    HW160062   1.364  14.820   1.258
19410SOL    HW260063   1.475  14.749   1.184
19411SOL     OW60064   5.097   5.701   4.898
19411SOL    HW160065   5.015   5.749   4.910
19411SOL    HW260066   5.126   5.725   4.809
19412SOL     OW60067  14.243   2.951  11.355
19412SOL    HW160068  14.291   3.026  11.391
19412SOL    HW260069  14.240   2.968  11.261
19413SOL     OW60070   7.060   6.595   0.475
19413SOL    HW160071   7.108   6.641   0.544
19413SOL    HW260072   7.084   6.640   0.394
19414SOL     OW60073  12.749   0.932   2.559
19414SOL    HW160074  12.768   0.897   2.472
19414SOL    HW260075  12.805   0.881   2.618
19415SOL     OW60076   8.481  10.678  12.982
19415SOL    HW160077   8.449  10.761  12.947
19415SOL    HW260078   8.462  10.682  13.076
19416SOL     OW60079   6.637   4.832   2.162
19416SOL    HW160080   6.685   4.767   2.214
19416SOL    HW260081   6.653   4.915   2.206
19417SOL     OW60082  14.869   6.515  13.713
19417SOL    HW160083  14.795   6.539  13.768
19417SOL    HW260084   0.029   6.436  13.753
19418SOL     OW60085  12.179   2.068   6.973
19418SOL    HW160086  12.134   2.152   6.965
19418SOL    HW260087  12.118   2.012   7.019
19419SOL     OW60088  10.735  12.221   5.054
19419SOL    HW160089  10.691  12.302   5.080
19419SOL    HW260090  10.816  12.221   5.107
19420SOL     OW60091  12.443  10.063   3.448
19420SOL    HW160092  12.495  10.135   3.413
19420SOL    HW260093  12.456  10.067   3.542
19421SOL     OW60094   5.342   3.048   2.165
19421SOL    HW160095   5.404   3.010   2.103
19421SOL    HW260096   5.259   3.053   2.117
19422SOL     OW60097   4.570  12.639   4.045
19422SOL    HW160098   4.635  12.687   3.993
19422SOL    HW260099   4.587  12.666   4.135
19423SOL     OW60100   3.921   6.897   0.635
19423SOL    HW160101   4.013   6.868   0.637
19423SOL    HW260102   3.926   6.992   0.647
19424SOL     OW60103   0.386   9.876   7.171
19424SOL    HW160104   0.418   9.934   7.102
19424SOL    HW260105   0.360   9.796   7.125
19425SOL     OW60106   1.654   4.131   7.605
19425SOL    HW160107   1.590   4.064   7.580
19425SOL    HW260108   1.645   4.140   7.699
19426SOL     OW60109   7.285  12.495   5.738
19426SOL    HW160110   7.300  12.513   5.645
19426SOL    HW260111   7.269  12.401   5.742
19427SOL     OW60112   8.597   1.139   4.613
19427SOL    HW160113   8.560   1.130   4.701
19427SOL    HW260114   8.542   1.206   4.571
19428SOL     OW60115  11.501   4.722   2.875
19428SOL    HW160116  11.541   4.686   2.954
19428SOL    HW260117  11.478   4.645   2.823
19429SOL     OW60118   4.478   6.359   6.556
19429SOL    HW160119   4.523   6.442   6.538
19429SOL    HW260120   4.389   6.384   6.580
19430SOL     OW60121  14.291   9.432  14.284
19430SOL    HW160122  14.265   9.360  14.342
19430SOL    HW260123  14.347   9.390  14.219
19431SOL     OW60124  12.387   3.504  11.897
19431SOL    HW160125  12.456   3.497  11.963
19431SOL    HW260126  12.415   3.576  11.840
19432SOL     OW60127   9.279   6.637  12.652
19432SOL    HW160128   9.254   6.702  12.586
19432SOL    HW260129   9.305   6.690  12.728
19433SOL     OW60130  14.365   7.182   1.006
19433SOL    HW160131  14.319   7.207   1.087
19433SOL    HW260132  14.435   7.247   0.997
19434SOL     OW60133   4.490  12.957   7.660
19434SOL    HW160134   4.445  13.007   7.592
19434SOL    HW260135   4.421  12.910   7.705
19435SOL     OW60136   8.266   4.133   0.628
19435SOL    HW160137   8.272   4.039   0.613
19435SOL    HW260138   8.260   4.171   0.541
19436SOL     OW60139   9.634   1.701   4.214
19436SOL    HW160140   9.694   1.775   4.207
19436SOL    HW260141   9.683   1.628   4.176
19437SOL     OW60142   2.267  10.685   1.192
19437SOL    HW160143   2.346  10.656   1.238
19437SOL    HW260144   2.202  10.695   1.261
19438SOL     OW60145  12.133  12.324  10.422
19438SOL    HW160146  12.085  12.248  10.389
19438SOL    HW260147  12.201  12.339  10.356
19439SOL     OW60148   9.749  12.829   4.473
19439SOL    HW160149   9.832  12.781   4.470
19439SOL    HW260150   9.771  12.917   4.444
19440SOL     OW60151  12.575  13.513   5.404
19440SOL    HW160152  12.631  13.445   5.366
19440SOL    HW260153  12.519  13.466   5.465
19441SOL     OW60154   2.671   5.650   4.460
19441SOL    HW160155   2.700   5.704   4.533
19441SOL    HW260156   2.633   5.572   4.501
19442SOL     OW60157  10.434   9.883  11.499
19442SOL    HW160158  10.441   9.958  11.559
19442SOL    HW260159  10.413   9.809  11.556
19443SOL     OW60160   7.517  12.549  10.598
19443SOL    HW160161   7.598  12.600  10.599
19443SOL    HW260162   7.488  12.551  10.506
19444SOL     OW60163   0.274   6.269  14.011
19444SOL    HW160164   0.303   6.359  14.026
19444SOL    HW260165   0.342   6.231  13.956
19445SOL     OW60166   5.504   3.689   6.678
19445SOL    HW160167   5.560   3.644   6.742
19445SOL    HW260168   5.427   3.714   6.729
19446SOL     OW60169  14.720   3.366  13.356
19446SOL    HW160170  14.733   3.382  13.263
19446SOL    HW260171  14.627   3.383  13.371
19447SOL     OW60172  11.368   9.324  13.391
19447SOL    HW160173  11.412   9.382  13.453
19447SOL    HW260174  11.361   9.241  13.437
19448SOL     OW60175  14.647   4.011  13.805
19448SOL    HW160176  14.729   3.963  13.794
19448SOL    HW260177  14.622   3.995  13.897
19449SOL     OW60178  14.496   4.638  14.610
19449SOL    HW160179  14.516   4.545  14.598
19449SOL    HW260180  14.582   4.681  14.609
19450SOL     OW60181   4.143   7.312  10.349
19450SOL    HW160182   4.049   7.297  10.348
19450SOL    HW260183   4.153   7.405  10.331
19451SOL     OW60184  12.925   7.943   3.864
19451SOL    HW160185  13.020   7.957   3.865
19451SOL    HW260186  12.915   7.855   3.829
19452SOL     OW60187   0.907   4.463   9.527
19452SOL    HW160188   0.939   4.543   9.568
19452SOL    HW260189   0.858   4.418   9.596
19453SOL     OW60190   3.450  11.334   9.574
19453SOL    HW160191   3.449  11.326   9.479
19453SOL    HW260192   3.399  11.414   9.592
19454SOL     OW60193  14.421   7.892  11.017
19454SOL    HW160194  14.376   7.952  10.958
19454SOL    HW260195  14.379   7.807  11.002
19455SOL     OW60196   0.131   1.700   1.437
19455SOL    HW160197   0.214   1.746   1.423
19455SOL    HW260198   0.065   1.758   1.399
19456SOL     OW60199   0.790   2.797   7.315
19456SOL    HW160200   0.739   2.842   7.383
19456SOL    HW260201   0.727   2.783   7.244
19457SOL     OW60202   0.733  14.541   5.946
19457SOL    HW160203   0.779  14.507   5.869
19457SOL    HW260204   0.641  14.544   5.920
19458SOL     OW60205   1.244   1.605   3.203
19458SOL    HW160206   1.151   1.617   3.221
19458SOL    HW260207   1.275   1.692   3.179
19459SOL     OW60208   6.950  12.508  14.680
19459SOL    HW160209   6.973  12.589  14.725
19459SOL    HW260210   7.009  12.442  14.718
19460SOL     OW60211   9.178   0.135   7.832
19460SOL    HW160212   9.197   0.187   7.753
19460SOL    HW260213   9.258   0.084   7.846
19461SOL     OW60214  14.553  10.136   1.686
19461SOL    HW160215  14.586  10.194   1.618
19461SOL    HW260216  14.472  10.100   1.649
19462SOL     OW60217   8.821   2.404  14.212
19462SOL    HW160218   8.842   2.483  14.261
19462SOL    HW260219   8.756   2.432  14.147
19463SOL     OW60220   9.114   4.337   7.967
19463SOL    HW160221   9.067   4.414   7.934
19463SOL    HW260222   9.163   4.369   8.043
19464SOL     OW60223   5.261   0.729   6.041
19464SOL    HW160224   5.243   0.771   5.957
19464SOL    HW260225   5.175   0.725   6.084
19465SOL     OW60226  10.445  14.801   7.994
19465SOL    HW160227  10.428  14.819   7.902
19465SOL    HW260228  10.359  14.783   8.032
19466SOL     OW60229   8.777   5.944   5.722
19466SOL    HW160230   8.800   6.003   5.794
19466SOL    HW260231   8.686   5.920   5.739
19467SOL     OW60232   7.401   6.381   4.111
19467SOL    HW160233   7.357   6.383   4.196
19467SOL    HW260234   7.482   6.429   4.124
19468SOL     OW60235   5.669   2.483   2.355
19468SOL    HW160236   5.660   2.434   2.437
19468SOL    HW260237   5.698   2.418   2.291
19469SOL     OW60238   3.362   4.346   3.824
19469SOL    HW160239   3.366   4.333   3.729
19469SOL    HW260240   3.396   4.265   3.861
19470SOL     OW60241  13.305   3.927   1.903
19470SOL    HW160242  13.213   3.929   1.932
19470SOL    HW260243  13.322   4.016   1.873
19471SOL     OW60244   6.590  10.893   9.047
19471SOL    HW160245   6.640  10.913   8.969
19471SOL    HW260246   6.615  10.960   9.110
19472SOL     OW60247  12.987   1.530  10.806
19472SOL    HW160248  12.937   1.537  10.725
19472SOL    HW260249  12.979   1.616  10.847
19473SOL     OW60250   5.671  10.217   3.010
19473SOL    HW160251   5.628  10.247   3.090
19473SOL    HW260252   5.635  10.274   2.941
19474SOL     OW60253  10.467   9.979   7.593
19474SOL    HW160254  10.492   9.892   7.562
19474SOL    HW260255  10.374   9.972   7.614
19475SOL     OW60256  10.181   5.040   7.640
19475SOL    HW160257  10.169   4.974   7.709
19475SOL    HW260258  10.275   5.037   7.621
19476SOL     OW60259   0.119   4.832   8.518
19476SOL    HW160260   0.213   4.846   8.524
19476SOL    HW260261   0.104   4.749   8.563
19477SOL     OW60262   8.439   6.933   1.033
19477SOL    HW160263   8.479   6.940   0.946
19477SOL    HW260264   8.394   6.848   1.031
19478SOL     OW60265   6.309  11.185   2.804
19478SOL    HW160266   6.393  11.185   2.850
19478SOL    HW260267   6.245  11.164   2.872
19479SOL     OW60268   3.019  13.391   9.778
19479SOL    HW160269   2.945  13.452   9.783
19479SOL    HW260270   3.096  13.447   9.782
19480SOL     OW60271   6.160   2.383  13.363
19480SOL    HW160272   6.189   2.317  13.427
19480SOL    HW260273   6.179   2.344  13.278
19481SOL     OW60274  12.208   2.615   3.469
19481SOL    HW160275  12.192   2.592   3.561
19481SOL    HW260276  12.272   2.550   3.440
19482SOL     OW60277   1.975  12.589   3.449
19482SOL    HW160278   1.954  12.617   3.359
19482SOL    HW260279   1.898  12.541   3.477
19483SOL     OW60280  10.554  14.214   7.412
19483SOL    HW160281  10.604  14.262   7.478
19483SOL    HW260282  10.463  14.217   7.444
19484SOL     OW60283  10.598   1.442   7.934
19484SOL    HW160284  10.503   1.432   7.944
19484SOL    HW260285  10.617   1.527   7.973
19485SOL     OW60286   0.284   3.581   3.597
19485SOL    HW160287   0.296   3.648   3.664
19485SOL    HW260288   0.372   3.545   3.584
19486SOL     OW60289   4.326  14.557  12.614
19486SOL    HW160290   4.359  14.609  12.687
19486SOL    HW260291   4.396  14.559  12.549
19487SOL     OW60292  13.087   0.374  10.819
19487SOL    HW160293  13.144   0.436  10.865
19487SOL    HW260294  12.998   0.404  10.839
19488SOL     OW60295  14.857   4.993   4.014
19488SOL    HW160296  14.847   4.911   3.965
19488SOL    HW260297   0.076   5.007   4.019
19489SOL     OW60298  13.281   2.372   6.311
19489SOL    HW160299  13.297   2.463   6.285
19489SOL    HW260300  13.345   2.354   6.380
19490SOL     OW60301  13.408   4.275   6.793
19490SOL    HW160302  13.413   4.209   6.862
19490SOL    HW260303  13.318   4.270   6.761
19491SOL     OW60304   6.033   4.738   7.458
19491SOL    HW160305   6.000   4.719   7.370
19491SOL    HW260306   5.957   4.771   7.506
19492SOL     OW60307   8.712   8.615   2.980
19492SOL    HW160308   8.705   8.685   2.915
19492SOL    HW260309   8.698   8.659   3.064
19493SOL     OW60310   4.291  11.952   9.341
19493SOL    HW160311   4.347  12.006   9.396
19493SOL    HW260312   4.330  11.958   9.254
19494SOL     OW60313   3.337   8.246   9.831
19494SOL    HW160314   3.419   8.265   9.786
19494SOL    HW260315   3.357   8.263   9.923
19495SOL     OW60316  11.804   7.171   8.004
19495SOL    HW160317  11.788   7.084   8.040
19495SOL    HW260318  11.851   7.217   8.074
19496SOL     OW60319   2.893   8.529   1.356
19496SOL    HW160320   2.892   8.434   1.370
19496SOL    HW260321   2.904   8.540   1.262
19497SOL     OW60322   7.962   9.050   3.346
19497SOL    HW160323   8.024   9.116   3.314
19497SOL    HW260324   7.954   8.988   3.273
19498SOL     OW60325  13.776  11.878   0.102
19498SOL    HW160326  13.824  11.958   0.078
19498SOL    HW260327  13.718  11.905   0.172
19499SOL     OW60328   9.013   3.127   5.734
19499SOL    HW160329   9.056   3.115   5.650
19499SOL    HW260330   8.935   3.072   5.730
19500SOL     OW60331   9.002   4.942  13.820
19500SOL    HW160332   9.047   4.917  13.901
19500SOL    HW260333   9.037   5.028  13.798
19501SOL     OW60334  10.054   6.642   6.993
19501SOL    HW160335  10.051   6.674   7.083
19501SOL    HW260336  10.103   6.560   6.997
19502SOL     OW60337   9.433   0.686   7.884
19502SOL    HW160338   9.501   0.637   7.838
19502SOL    HW260339   9.472   0.772   7.900
19503SOL     OW60340   8.189   7.530  10.633
19503SOL    HW160341   8.275   7.502  10.664
19503SOL    HW260342   8.158   7.458  10.578
19504SOL     OW60343   3.788  12.898   4.224
19504SOL    HW160344   3.800  12.818   4.275
19504SOL    HW260345   3.701  12.930   4.250
19505SOL     OW60346   4.651  10.551  12.934
19505SOL    HW160347   4.653  10.610  12.858
19505SOL    HW260348   4.743  10.537  12.956
19506SOL     OW60349   9.107   7.768  10.043
19506SOL    HW160350   9.039   7.830  10.069
19506SOL    HW260351   9.060   7.699   9.997
19507SOL     OW60352   3.541   0.700   4.431
19507SOL    HW160353   3.571   0.618   4.391
19507SOL    HW260354   3.475   0.673   4.495
19508SOL     OW60355   2.997  11.020  10.498
19508SOL    HW160356   2.911  11.055  10.521
19508SOL    HW260357   3.058  11.093  10.516
19509SOL     OW60358   8.141   4.372   0.758
19509SOL    HW160359   8.187   4.322   0.690
19509SOL    HW260360   8.071   4.417   0.711
19510SOL     OW60361   9.076   9.618   5.734
19510SOL    HW160362   9.112   9.557   5.798
19510SOL    HW260363   9.009   9.667   5.781
19511SOL     OW60364   0.163  14.708  11.566
19511SOL    HW160365   0.151  14.650  11.641
19511SOL    HW260366   0.248  14.682  11.529
19512SOL     OW60367  10.449   2.868   5.187
19512SOL    HW160368  10.472   2.959   5.210
19512SOL    HW260369  10.473   2.860   5.095
19513SOL     OW60370   1.265   4.025   5.457
19513SOL    HW160371   1.268   3.997   5.549
19513SOL    HW260372   1.317   4.106   5.455
19514SOL     OW60373   6.750   8.906   7.363
19514SOL    HW160374   6.674   8.855   7.337
19514SOL    HW260375   6.822   8.843   7.369
19515SOL     OW60376   6.111  12.630   4.209
19515SOL    HW160377   6.054  12.681   4.266
19515SOL    HW260378   6.153  12.566   4.267
19516SOL     OW60379  11.132   7.564   3.470
19516SOL    HW160380  11.047   7.589   3.435
19516SOL    HW260381  11.179   7.527   3.395
19517SOL     OW60382   9.273  14.391   5.446
19517SOL    HW160383   9.279  14.325   5.514
19517SOL    HW260384   9.347  14.373   5.388
19518SOL     OW60385   3.616   1.397   2.467
19518SOL    HW160386   3.525   1.379   2.487
19518SOL    HW260387   3.664   1.319   2.494
19519SOL     OW60388  13.138   5.549  11.918
19519SOL    HW160389  13.193   5.577  11.845
19519SOL    HW260390  13.065   5.502  11.877
19520SOL     OW60391   7.572  14.638   5.048
19520SOL    HW160392   7.575  14.570   4.982
19520SOL    HW260393   7.662  14.669   5.057
19521SOL     OW60394   1.144  10.434  11.471
19521SOL    HW160395   1.176  10.378  11.400
19521SOL    HW260396   1.176  10.393  11.551
19522SOL     OW60397  10.968  12.504   4.148
19522SOL    HW160398  10.971  12.595   4.178
19522SOL    HW260399  11.060  12.479   4.139
19523SOL     OW60400   4.703   4.154   0.125
19523SOL    HW160401   4.744   4.140   0.040
19523SOL    HW260402   4.695   4.066   0.163
19524SOL     OW60403  10.858  10.141   3.633
19524SOL    HW160404  10.935  10.085   3.642
19524SOL    HW260405  10.843  10.175   3.721
19525SOL     OW60406  11.254   7.155   3.824
19525SOL    HW160407  11.171   7.194   3.796
19525SOL    HW260408  11.320   7.195   3.767
19526SOL     OW60409   7.246   7.694  13.948
19526SOL    HW160410   7.253   7.728  13.858
19526SOL    HW260411   7.300   7.615  13.948
19527SOL     OW60412  13.082  11.101   3.283
19527SOL    HW160413  12.998  11.126   3.321
19527SOL    HW260414  13.141  11.094   3.359
19528SOL     OW60415   4.470  13.575   8.837
19528SOL    HW160416   4.504  13.497   8.794
19528SOL    HW260417   4.437  13.544   8.921
19529SOL     OW60418   1.386   3.417  14.652
19529SOL    HW160419   1.441   3.348  14.689
19529SOL    HW260420   1.404   3.494  14.706
19530SOL     OW60421  14.035   7.639   0.174
19530SOL    HW160422  14.061   7.577   0.105
19530SOL    HW260423  13.976   7.589   0.230
19531SOL     OW60424   0.484   0.801   6.210
19531SOL    HW160425   0.491   0.803   6.306
19531SOL    HW260426   0.391   0.792   6.193
19532SOL     OW60427  11.392   9.195   4.905
19532SOL    HW160428  11.478   9.164   4.933
19532SOL    HW260429  11.394   9.189   4.810
19533SOL     OW60430   4.145   8.529  10.315
19533SOL    HW160431   4.157   8.593  10.244
19533SOL    HW260432   4.138   8.445  10.270
19534SOL     OW60433   6.299  10.691  14.596
19534SOL    HW160434   6.366  10.623  14.606
19534SOL    HW260435   6.234  10.671  14.663
19535SOL     OW60436   4.823   7.989  10.411
19535SOL    HW160437   4.729   8.009  10.418
19535SOL    HW260438   4.828   7.929  10.336
19536SOL     OW60439  12.218   7.742   5.851
19536SOL    HW160440  12.231   7.774   5.762
19536SOL    HW260441  12.125   7.755   5.868
19537SOL     OW60442   3.383   6.408   2.224
19537SOL    HW160443   3.400   6.490   2.271
19537SOL    HW260444   3.424   6.341   2.279
19538SOL     OW60445   8.352   3.284   6.430
19538SOL    HW160446   8.416   3.334   6.482
19538SOL    HW260447   8.323   3.214   6.488
19539SOL     OW60448   9.200   3.953  12.853
19539SOL    HW160449   9.197   3.882  12.789
19539SOL    HW260450   9.255   4.020  12.811
19540SOL     OW60451   6.534   4.592  14.570
19540SOL    HW160452   6.455   4.645  14.577
19540SOL    HW260453   6.519   4.517  14.629
19541SOL     OW60454   6.515   0.295  12.135
19541SOL    HW160455   6.487   0.205  12.122
19541SOL    HW260456   6.585   0.308  12.071
19542SOL     OW60457   5.019   1.617  11.167
19542SOL    HW160458   5.068   1.541  11.199
19542SOL    HW260459   4.933   1.583  11.144
19543SOL     OW60460  10.897   2.180   6.617
19543SOL    HW160461  10.903   2.213   6.706
19543SOL    HW260462  10.806   2.150   6.608
19544SOL     OW60463   0.340  13.803   5.372
19544SOL    HW160464   0.321  13.722   5.324
19544SOL    HW260465   0.255  13.839   5.395
19545SOL     OW60466  10.273  10.985   6.895
19545SOL    HW160467  10.329  10.912   6.919
19545SOL    HW260468  10.326  11.063   6.913
19546SOL     OW60469   5.532  10.196   2.201
19546SOL    HW160470   5.494  10.117   2.239
19546SOL    HW260471   5.593  10.163   2.134
19547SOL     OW60472   4.648   8.050   5.891
19547SOL    HW160473   4.699   8.128   5.865
19547SOL    HW260474   4.708   8.000   5.945
19548SOL     OW60475   5.127  14.447  12.056
19548SOL    HW160476   5.135  14.500  11.977
19548SOL    HW260477   5.032  14.437  12.069
19549SOL     OW60478   5.658  14.129  14.644
19549SOL    HW160479   5.650  14.048  14.695
19549SOL    HW260480   5.638  14.103  14.554
19550SOL     OW60481   8.722   3.175  13.837
19550SOL    HW160482   8.810   3.174  13.800
19550SOL    HW260483   8.737   3.175  13.932
19551SOL     OW60484   3.410   2.518  11.519
19551SOL    HW160485   3.351   2.443  11.514
19551SOL    HW260486   3.484   2.488  11.571
19552SOL     OW60487   4.888  11.923   5.413
19552SOL    HW160488   4.876  12.009   5.374
19552SOL    HW260489   4.828  11.866   5.365
19553SOL     OW60490  14.635   9.159   1.968
19553SOL    HW160491  14.544   9.170   1.941
19553SOL    HW260492  14.681   9.233   1.928
19554SOL     OW60493   5.664  13.371   6.733
19554SOL    HW160494   5.623  13.430   6.796
19554SOL    HW260495   5.734  13.423   6.693
19555SOL     OW60496  12.434  13.697   1.768
19555SOL    HW160497  12.464  13.665   1.683
19555SOL    HW260498  12.464  13.788   1.771
19556SOL     OW60499   7.667  10.577   7.738
19556SOL    HW160500   7.639  10.666   7.759
19556SOL    HW260501   7.586  10.526   7.741
19557SOL     OW60502   8.959   1.319   6.485
19557SOL    HW160503   8.921   1.401   6.455
19557SOL    HW260504   8.971   1.331   6.579
19558SOL     OW60505  11.565  13.750   3.728
19558SOL    HW160506  11.613  13.790   3.801
19558SOL    HW260507  11.601  13.792   3.650
19559SOL     OW60508   9.280   4.428   8.914
19559SOL    HW160509   9.222   4.381   8.854
19559SOL    HW260510   9.348   4.364   8.936
19560SOL     OW60511  11.701   5.055   0.776
19560SOL    HW160512  11.613   5.033   0.806
19560SOL    HW260513  11.693   5.143   0.739
19561SOL     OW60514   3.087   0.221   8.985
19561SOL    HW160515   3.103   0.127   8.993
19561SOL    HW260516   3.028   0.241   9.058
19562SOL     OW60517   5.409  12.880  12.250
19562SOL    HW160518   5.471  12.884  12.178
19562SOL    HW260519   5.392  12.972  12.272
19563SOL     OW60520   7.640   4.995  11.421
19563SOL    HW160521   7.598   4.909  11.425
19563SOL    HW260522   7.572   5.055  11.391
19564SOL     OW60523   2.451  13.067   3.804
19564SOL    HW160524   2.528  13.011   3.799
19564SOL    HW260525   2.486  13.156   3.802
19565SOL     OW60526   4.341   2.943   0.794
19565SOL    HW160527   4.397   2.933   0.872
19565SOL    HW260528   4.403   2.958   0.723
19566SOL     OW60529   2.271  13.997  10.441
19566SOL    HW160530   2.230  13.936  10.380
19566SOL    HW260531   2.362  13.968  10.446
19567SOL     OW60532   7.755  12.304   1.924
19567SOL    HW160533   7.744  12.279   1.832
19567SOL    HW260534   7.764  12.221   1.971
19568SOL     OW60535  11.789   6.899  10.544
19568SOL    HW160536  11.866   6.841  10.544
19568SOL    HW260537  11.730   6.859  10.608
19569SOL     OW60538  11.309   1.853   8.939
19569SOL    HW160539  11.350   1.938   8.950
19569SOL    HW260540  11.319   1.810   9.024
19570SOL     OW60541   1.889   4.129   5.166
19570SOL    HW160542   1.817   4.066   5.156
19570SOL    HW260543   1.864   4.182   5.242
19571SOL     OW60544   5.176   9.007  10.921
19571SOL    HW160545   5.250   9.050  10.963
19571SOL    HW260546   5.100   9.060  10.946
19572SOL     OW60547   2.286  14.017   3.567
19572SOL    HW160548   2.345  13.998   3.494
19572SOL    HW260549   2.291  13.940   3.623
19573SOL     OW60550  11.202   0.708  11.483
19573SOL    HW160551  11.233   0.760  11.557
19573SOL    HW260552  11.139   0.646  11.521
19574SOL     OW60553   1.838   2.519   8.967
19574SOL    HW160554   1.880   2.593   9.010
19574SOL    HW260555   1.773   2.487   9.030
19575SOL     OW60556   5.464  13.913  10.584
19575SOL    HW160557   5.432  13.998  10.554
19575SOL    HW260558   5.468  13.921  10.679
19576SOL     OW60559  12.333  12.346   8.627
19576SOL    HW160560  12.323  12.441   8.617
19576SOL    HW260561  12.425  12.334   8.652
19577SOL     OW60562   5.164  10.918   0.270
19577SOL    HW160563   5.187  11.001   0.311
19577SOL    HW260564   5.237  10.859   0.291
19578SOL     OW60565   0.047   7.935   4.670
19578SOL    HW160566  14.833   7.908   4.691
19578SOL    HW260567   0.088   7.947   4.756
19579SOL     OW60568   8.428   5.032  11.320
19579SOL    HW160569   8.446   5.047  11.412
19579SOL    HW260570   8.333   5.018  11.316
19580SOL     OW60571  10.706  12.948  12.607
19580SOL    HW160572  10.679  12.959  12.516
19580SOL    HW260573  10.649  13.007  12.656
19581SOL     OW60574   3.321   0.431   9.353
19581SOL    HW160575   3.398   0.377   9.338
19581SOL    HW260576   3.271   0.425   9.272
19582SOL     OW60577  11.032  12.733   2.315
19582SOL    HW160578  10.966  12.769   2.254
19582SOL    HW260579  11.116  12.760   2.277
19583SOL     OW60580  12.421   9.147   2.039
19583SOL    HW160581  12.336   9.177   2.007
19583SOL    HW260582  12.479   9.155   1.964
19584SOL     OW60583   4.622   0.036  12.842
19584SOL    HW160584   4.673  14.831  12.838
19584SOL    HW260585   4.543   0.018  12.791
19585SOL     OW60586   6.438   8.920   0.396
19585SOL    HW160587   6.517   8.974   0.394
19585SOL    HW260588   6.383   8.962   0.461
19586SOL     OW60589   0.887   7.314  12.649
19586SOL    HW160590   0.981   7.327  12.644
19586SOL    HW260591   0.875   7.220  12.633
19587SOL     OW60592   1.426   2.943   4.403
19587SOL    HW160593   1.343   2.904   4.375
19587SOL    HW260594   1.491   2.874   4.387
19588SOL     OW60595  11.248   5.475  11.965
19588SOL    HW160596  11.175   5.509  11.913
19588SOL    HW260597  11.297   5.419  11.904
19589SOL     OW60598   6.609  12.891  14.265
19589SOL    HW160599   6.676  12.905  14.198
19589SOL    HW260600   6.527  12.886  14.216
19590SOL     OW60601  14.432  11.716   5.184
19590SOL    HW160602  14.487  11.780   5.139
19590SOL    HW260603  14.488  11.680   5.253
19591SOL     OW60604   7.401  13.786   8.046
19591SOL    HW160605   7.426  13.871   8.081
19591SOL    HW260606   7.352  13.806   7.967
19592SOL     OW60607   2.177   3.253  11.859
19592SOL    HW160608   2.157   3.178  11.915
19592SOL    HW260609   2.223   3.315  11.916
19593SOL     OW60610  11.710  11.550  11.388
19593SOL    HW160611  11.730  11.626  11.332
19593SOL    HW260612  11.677  11.589  11.469
19594SOL     OW60613   2.540   9.259   6.231
19594SOL    HW160614   2.598   9.187   6.258
19594SOL    HW260615   2.463   9.249   6.287
19595SOL     OW60616   8.629   3.333  11.257
19595SOL    HW160617   8.544   3.315  11.217
19595SOL    HW260618   8.678   3.379  11.188
19596SOL     OW60619   5.873   5.270  13.968
19596SOL    HW160620   5.840   5.186  14.001
19596SOL    HW260621   5.958   5.249  13.928
19597SOL     OW60622  12.144  11.648   2.489
19597SOL    HW160623  12.065  11.599   2.466
19597SOL    HW260624  12.210  11.581   2.507
19598SOL     OW60625   6.569  13.223  14.188
19598SOL    HW160626   6.648  13.270  14.213
19598SOL    HW260627   6.559  13.154  14.254
19599SOL     OW60628   9.242   7.405   5.332
19599SOL    HW160629   9.275   7.426   5.419
19599SOL    HW260630   9.158   7.364   5.346
19600SOL     OW60631   1.360  11.598   3.517
19600SOL    HW160632   1.412  11.678   3.508
19600SOL    HW260633   1.338  11.574   3.427
19601SOL     OW60634  10.284   6.443   1.678
19601SOL    HW160635  10.216   6.468   1.741
19601SOL    HW260636  10.338   6.522   1.669
19602SOL     OW60637   7.767   1.658   5.443
19602SOL    HW160638   7.767   1.663   5.348
19602SOL    HW260639   7.787   1.566   5.462
19603SOL     OW60640   4.138   6.296   1.376
19603SOL    HW160641   4.169   6.224   1.431
19603SOL    HW260642   4.211   6.358   1.374
19604SOL     OW60643   1.373   9.095  12.824
19604SOL    HW160644   1.412   9.019  12.780
19604SOL    HW260645   1.443   9.161  12.823
19605SOL     OW60646   1.339   0.227  10.221
19605SOL    HW160647   1.369   0.300  10.276
19605SOL    HW260648   1.389   0.151  10.253
19606SOL     OW60649  10.807  11.719  14.767
19606SOL    HW160650  10.780  11.769  14.690
19606SOL    HW260651  10.836  11.635  14.731
19607SOL     OW60652   5.178   4.311  10.994
19607SOL    HW160653   5.223   4.295  10.911
19607SOL    HW260654   5.089   4.278  10.979
19608SOL     OW60655   8.531   8.525   6.593
19608SOL    HW160656   8.483   8.596   6.635
19608SOL    HW260657   8.467   8.483   6.535
19609SOL     OW60658  10.490   4.083  11.898
19609SOL    HW160659  10.585   4.076  11.908
19609SOL    HW260660  10.458   4.108  11.985
19610SOL     OW60661  13.075   4.949  13.662
19610SOL    HW160662  13.007   4.882  13.664
19610SOL    HW260663  13.051   5.009  13.732
19611SOL     OW60664   9.050   5.652  13.064
19611SOL    HW160665   9.142   5.640  13.087
19611SOL    HW260666   9.005   5.576  13.101
19612SOL     OW60667  10.573  14.784   5.943
19612SOL    HW160668  10.629  14.706   5.939
19612SOL    HW260669  10.603  14.831   6.021
19613SOL     OW60670  14.101   2.490   2.809
19613SOL    HW160671  14.036   2.552   2.775
19613SOL    HW260672  14.102   2.419   2.745
19614SOL     OW60673   4.463  13.571  13.724
19614SOL    HW160674   4.403  13.507  13.762
19614SOL    HW260675   4.457  13.556  13.629
19615SOL     OW60676  11.285   6.725   4.631
19615SOL    HW160677  11.355   6.778   4.594
19615SOL    HW260678  11.225   6.788   4.670
19616SOL     OW60679  13.968   6.372   2.738
19616SOL    HW160680  13.976   6.408   2.827
19616SOL    HW260681  14.057   6.374   2.703
19617SOL     OW60682  10.204  14.328   9.698
19617SOL    HW160683  10.112  14.300   9.704
19617SOL    HW260684  10.253  14.257   9.738
19618SOL     OW60685   9.250  12.290   8.586
19618SOL    HW160686   9.167  12.336   8.593
19618SOL    HW260687   9.258  12.268   8.494
19619SOL     OW60688   7.095  11.664   3.879
19619SOL    HW160689   7.154  11.704   3.816
19619SOL    HW260690   7.092  11.572   3.854
19620SOL     OW60691   1.040  12.505  12.722
19620SOL    HW160692   1.101  12.578  12.712
19620SOL    HW260693   1.086  12.429  12.686
19621SOL     OW60694  13.143  11.164   3.044
19621SOL    HW160695  13.191  11.088   3.010
19621SOL    HW260696  13.140  11.150   3.138
19622SOL     OW60697  13.002  14.378   1.363
19622SOL    HW160698  13.047  14.422   1.291
19622SOL    HW260699  13.069  14.369   1.431
19623SOL     OW60700   2.592   7.277  12.355
19623SOL    HW160701   2.612   7.235  12.439
19623SOL    HW260702   2.651   7.235  12.292
19624SOL     OW60703   9.068   9.678  12.357
19624SOL    HW160704   9.009   9.610  12.389
19624SOL    HW260705   9.156   9.641  12.370
19625SOL     OW60706  12.627  11.895   2.240
19625SOL    HW160707  12.668  11.810   2.222
19625SOL    HW260708  12.535  11.882   2.217
19626SOL     OW60709   6.495   8.507   9.697
19626SOL    HW160710   6.463   8.579   9.642
19626SOL    HW260711   6.444   8.515   9.778
19627SOL     OW60712  10.266   5.797   3.194
19627SOL    HW160713  10.208   5.722   3.208
19627SOL    HW260714  10.232   5.840   3.115
19628SOL     OW60715   2.632   9.657   2.365
19628SOL    HW160716   2.704   9.597   2.344
19628SOL    HW260717   2.614   9.702   2.283
19629SOL     OW60718  12.947   0.812   4.257
19629SOL    HW160719  12.870   0.757   4.243
19629SOL    HW260720  12.952   0.867   4.179
19630SOL     OW60721  13.976  14.482  12.724
19630SOL    HW160722  13.899  14.433  12.755
19630SOL    HW260723  14.023  14.504  12.805
19631SOL     OW60724   1.814   2.832   3.887
19631SOL    HW160725   1.819   2.923   3.856
19631SOL    HW260726   1.744   2.833   3.952
19632SOL     OW60727   6.883   6.286  12.829
19632SOL    HW160728   6.976   6.266  12.825
19632SOL    HW260729   6.840   6.200  12.832
19633SOL     OW60730   7.223  11.642   0.232
19633SOL    HW160731   7.128  11.657   0.231
19633SOL    HW260732   7.242  11.612   0.321
19634SOL     OW60733   8.619   0.697  11.295
19634SOL    HW160734   8.645   0.614  11.256
19634SOL    HW260735   8.685   0.715  11.362
19635SOL     OW60736   5.284  11.244  10.004
19635SOL    HW160737   5.273  11.312   9.937
19635SOL    HW260738   5.377  11.224  10.003
19636SOL     OW60739   7.855   4.417   0.173
19636SOL    HW160740   7.899   4.332   0.163
19636SOL    HW260741   7.811   4.430   0.089
19637SOL     OW60742   4.370  10.744   2.594
19637SOL    HW160743   4.333  10.804   2.658
19637SOL    HW260744   4.383  10.797   2.516
19638SOL     OW60745  14.213   6.031  14.327
19638SOL    HW160746  14.239   6.123  14.327
19638SOL    HW260747  14.141   6.026  14.390
19639SOL     OW60748  12.814  13.145  12.898
19639SOL    HW160749  12.731  13.103  12.877
19639SOL    HW260750  12.792  13.237  12.910
19640SOL     OW60751   0.699   9.956   1.763
19640SOL    HW160752   0.723  10.023   1.827
19640SOL    HW260753   0.736   9.875   1.798
19641SOL     OW60754  11.199  10.358   3.376
19641SOL    HW160755  11.123  10.350   3.434
19641SOL    HW260756  11.162  10.386   3.293
19642SOL     OW60757   6.605   2.759  12.514
19642SOL    HW160758   6.533   2.698  12.498
19642SOL    HW260759   6.593   2.828  12.449
19643SOL     OW60760  13.494  11.802   6.587
19643SOL    HW160761  13.567  11.772   6.533
19643SOL    HW260762  13.449  11.722   6.614
19644SOL     OW60763   8.566  10.245  10.423
19644SOL    HW160764   8.567  10.171  10.483
19644SOL    HW260765   8.485  10.292  10.444
19645SOL     OW60766   5.446  11.488  13.984
19645SOL    HW160767   5.400  11.569  14.009
19645SOL    HW260768   5.379  11.434  13.942
19646SOL     OW60769   9.083  12.968   0.372
19646SOL    HW160770   9.022  12.932   0.436
19646SOL    HW260771   9.157  12.907   0.373
19647SOL     OW60772   4.060  12.332   7.825
19647SOL    HW160773   4.155  12.328   7.817
19647SOL    HW260774   4.045  12.381   7.906
19648SOL     OW60775   3.384   0.162  11.235
19648SOL    HW160776   3.313   0.184  11.174
19648SOL    HW260777   3.342   0.109  11.302
19649SOL     OW60778   5.255  14.142   8.696
19649SOL    HW160779   5.196  14.153   8.622
19649SOL    HW260780   5.337  14.181   8.667
19650SOL     OW60781   4.696  14.491  14.443
19650SOL    HW160782   4.756  14.419  14.422
19650SOL    HW260783   4.719  14.560  14.380
19651SOL     OW60784   3.573   7.420   5.156
19651SOL    HW160785   3.505   7.487   5.152
19651SOL    HW260786   3.559   7.367   5.078
19652SOL     OW60787   8.118   3.845   7.168
19652SOL    HW160788   8.132   3.750   7.164
19652SOL    HW260789   8.121   3.873   7.076
19653SOL     OW60790   1.333  13.865   4.450
19653SOL    HW160791   1.270  13.848   4.520
19653SOL    HW260792   1.391  13.932   4.486
19654SOL     OW60793  12.255   6.012   2.232
19654SOL    HW160794  12.338   6.053   2.211
19654SOL    HW260795  12.254   6.007   2.328
19655SOL     OW60796   2.578   1.651  11.345
19655SOL    HW160797   2.592   1.701  11.425
19655SOL    HW260798   2.484   1.661  11.327
19656SOL     OW60799   3.769   1.867   8.289
19656SOL    HW160800   3.862   1.870   8.312
19656SOL    HW260801   3.766   1.894   8.198
19657SOL     OW60802   4.954  12.230   3.677
19657SOL    HW160803   4.995  12.313   3.653
19657SOL    HW260804   4.995  12.206   3.760
19658SOL     OW60805   9.605   0.099  14.477
19658SOL    HW160806   9.626   0.045  14.400
19658SOL    HW260807   9.613   0.189  14.446
19659SOL     OW60808   0.943   5.220   5.087
19659SOL    HW160809   0.951   5.308   5.051
19659SOL    HW260810   0.932   5.164   5.010
19660SOL     OW60811   6.848   1.223  10.968
19660SOL    HW160812   6.908   1.294  10.947
19660SOL    HW260813   6.802   1.206  10.886
19661SOL     OW60814  13.402   0.115   9.130
19661SOL    HW160815  13.412   0.117   9.225
19661SOL    HW260816  13.466   0.051   9.100
19662SOL     OW60817   5.458   3.131  14.181
19662SOL    HW160818   5.386   3.168  14.130
19662SOL    HW260819   5.501   3.071  14.120
19663SOL     OW60820   7.651   0.319   4.562
19663SOL    HW160821   7.619   0.241   4.517
19663SOL    HW260822   7.583   0.385   4.547
19664SOL     OW60823   5.041   0.342   4.239
19664SOL    HW160824   5.002   0.380   4.160
19664SOL    HW260825   4.967   0.306   4.288
19665SOL     OW60826   7.610  14.013  11.789
19665SOL    HW160827   7.637  14.094  11.832
19665SOL    HW260828   7.518  14.028  11.765
19666SOL     OW60829  14.529  10.689  10.508
19666SOL    HW160830  14.576  10.743  10.571
19666SOL    HW260831  14.437  10.715  10.517
19667SOL     OW60832  10.343  11.233   4.023
19667SOL    HW160833  10.398  11.198   3.953
19667SOL    HW260834  10.398  11.231   4.101
19668SOL     OW60835   5.767  10.805  12.254
19668SOL    HW160836   5.709  10.880  12.242
19668SOL    HW260837   5.784  10.774  12.165
19669SOL     OW60838   4.530  11.726   6.134
19669SOL    HW160839   4.588  11.712   6.209
19669SOL    HW260840   4.476  11.802   6.159
19670SOL     OW60841   2.458   2.109  13.510
19670SOL    HW160842   2.389   2.043  13.508
19670SOL    HW260843   2.467   2.131  13.603
19671SOL     OW60844   6.611  13.718   1.781
19671SOL    HW160845   6.647  13.630   1.789
19671SOL    HW260846   6.652  13.768   1.851
19672SOL     OW60847   6.535   2.689   6.251
19672SOL    HW160848   6.467   2.644   6.201
19672SOL    HW260849   6.550   2.771   6.204
19673SOL     OW60850  12.759   7.178  10.712
19673SOL    HW160851  12.688   7.123  10.746
19673SOL    HW260852  12.725   7.212  10.629
19674SOL     OW60853   4.178  13.480   6.934
19674SOL    HW160854   4.100  13.536   6.939
19674SOL    HW260855   4.246  13.537   6.899
19675SOL     OW60856   8.335   2.721   7.145
19675SOL    HW160857   8.284   2.643   7.125
19675SOL    HW260858   8.270   2.785   7.175
19676SOL     OW60859   6.332   7.374  13.845
19676SOL    HW160860   6.266   7.443  13.846
19676SOL    HW260861   6.322   7.332  13.760
19677SOL     OW60862   5.803   9.124   5.995
19677SOL    HW160863   5.825   9.163   6.080
19677SOL    HW260864   5.774   9.198   5.942
19678SOL     OW60865   3.902  11.700  14.568
19678SOL    HW160866   3.901  11.760  14.642
19678SOL    HW260867   3.979  11.645  14.583
19679SOL     OW60868   0.876  10.722   0.063
19679SOL    HW160869   0.963  10.690   0.039
19679SOL    HW260870   0.882  10.817   0.058
19680SOL     OW60871  14.277   2.394  11.899
19680SOL    HW160872  14.298   2.319  11.844
19680SOL    HW260873  14.242   2.355  11.980
19681SOL     OW60874  11.423   0.535  11.701
19681SOL    HW160875  11.472   0.457  11.727
19681SOL    HW260876  11.363   0.504  11.633
19682SOL     OW60877   0.918   6.258   5.410
19682SOL    HW160878   0.987   6.199   5.379
19682SOL    HW260879   0.954   6.295   5.490
19683SOL     OW60880   4.251  10.773   0.427
19683SOL    HW160881   4.294  10.739   0.506
19683SOL    HW260882   4.276  10.711   0.358
19684SOL     OW60883   6.843   4.641  10.942
19684SOL    HW160884   6.827   4.702  11.013
19684SOL    HW260885   6.770   4.579  10.947
19685SOL     OW60886  11.732   7.172   2.252
19685SOL    HW160887  11.753   7.118   2.328
19685SOL    HW260888  11.642   7.202   2.268
19686SOL     OW60889   4.540   1.949  12.996
19686SOL    HW160890   4.519   1.878  12.935
19686SOL    HW260891   4.462   1.957  13.051
19687SOL     OW60892  13.753   9.155  10.771
19687SOL    HW160893  13.803   9.140  10.691
19687SOL    HW260894  13.796   9.099  10.837
19688SOL     OW60895   9.168   7.377   0.500
19688SOL    HW160896   9.194   7.454   0.551
19688SOL    HW260897   9.221   7.382   0.420
19689SOL     OW60898  10.100   2.392   1.657
19689SOL    HW160899  10.076   2.334   1.729
19689SOL    HW260900  10.107   2.478   1.698
19690SOL     OW60901   0.522   5.852   2.675
19690SOL    HW160902   0.441   5.869   2.723
19690SOL    HW260903   0.586   5.912   2.714
19691SOL     OW60904   3.698   8.410   6.353
19691SOL    HW160905   3.761   8.410   6.425
19691SOL    HW260906   3.751   8.409   6.274
19692SOL     OW60907  13.894   4.852   9.959
19692SOL    HW160908  13.908   4.758   9.957
19692SOL    HW260909  13.918   4.879  10.048
19693SOL     OW60910   2.067   6.226  12.376
19693SOL    HW160911   1.987   6.201  12.423
19693SOL    HW260912   2.136   6.217  12.441
19694SOL     OW60913   3.453   4.671  12.269
19694SOL    HW160914   3.434   4.647  12.179
19694SOL    HW260915   3.368   4.665  12.313
19695SOL     OW60916   5.128   5.925   9.308
19695SOL    HW160917   5.145   6.013   9.342
19695SOL    HW260918   5.208   5.902   9.262
19696SOL     OW60919   8.828  10.854   6.788
19696SOL    HW160920   8.747  10.855   6.737
19696SOL    HW260921   8.805  10.807   6.868
19697SOL     OW60922   8.076  10.769  10.954
19697SOL    HW160923   8.040  10.756  10.867
19697SOL    HW260924   8.031  10.704  11.009
19698SOL     OW60925  13.769   4.175  11.586
19698SOL    HW160926  13.785   4.210  11.499
19698SOL    HW260927  13.726   4.091  11.571
19699SOL     OW60928  14.592   2.227   3.693
19699SOL    HW160929  14.507   2.242   3.735
19699SOL    HW260930  14.619   2.314   3.663
19700SOL     OW60931  10.004   1.288   1.667
19700SOL    HW160932  10.025   1.379   1.645
19700SOL    HW260933  10.090   1.248   1.683
19701SOL     OW60934   2.901  14.584   9.662
19701SOL    HW160935   2.940  14.511   9.709
19701SOL    HW260936   2.879  14.549   9.576
19702SOL     OW60937   0.470  11.814   2.423
19702SOL    HW160938   0.442  11.825   2.332
19702SOL    HW260939   0.439  11.893   2.467
19703SOL     OW60940   3.045   7.399  13.834
19703SOL    HW160941   3.098   7.319  13.835
19703SOL    HW260942   2.996   7.396  13.916
19704SOL     OW60943   9.101  10.956   5.003
19704SOL    HW160944   9.088  10.988   4.913
19704SOL    HW260945   9.178  11.004   5.034
19705SOL     OW60946  11.629   9.625   8.834
19705SOL    HW160947  11.579   9.544   8.827
19705SOL    HW260948  11.659   9.644   8.745
19706SOL     OW60949   9.684  11.624   2.365
19706SOL    HW160950   9.747  11.691   2.393
19706SOL    HW260951   9.637  11.664   2.292
19707SOL     OW60952  11.671   6.759   1.292
19707SOL    HW160953  11.655   6.696   1.362
19707SOL    HW260954  11.714   6.833   1.335
19708SOL     OW60955   1.459   2.645   2.165
19708SOL    HW160956   1.414   2.708   2.110
19708SOL    HW260957   1.448   2.678   2.254
19709SOL     OW60958   2.294   6.109  11.702
19709SOL    HW160959   2.355   6.039  11.725
19709SOL    HW260960   2.332   6.148  11.623
19710SOL     OW60961   1.528   9.946   6.423
19710SOL    HW160962   1.442   9.970   6.387
19710SOL    HW260963   1.589   9.960   6.350
19711SOL     OW60964   0.538  11.736   1.499
19711SOL    HW160965   0.621  11.754   1.543
19711SOL    HW260966   0.562  11.685   1.422
19712SOL     OW60967  10.265   7.636   2.028
19712SOL    HW160968  10.211   7.624   1.949
19712SOL    HW260969  10.352   7.657   1.994
19713SOL     OW60970  12.120   4.033   6.789
19713SOL    HW160971  12.168   3.951   6.790
19713SOL    HW260972  12.185   4.099   6.811
19714SOL     OW60973   3.240  11.078   4.821
19714SOL    HW160974   3.247  11.122   4.906
19714SOL    HW260975   3.228  10.986   4.842
19715SOL     OW60976   2.002   9.063   8.361
19715SOL    HW160977   2.039   9.025   8.282
19715SOL    HW260978   1.926   9.008   8.380
19716SOL     OW60979   2.418   6.131  13.458
19716SOL    HW160980   2.327   6.106  13.444
19716SOL    HW260981   2.465   6.096  13.382
19717SOL     OW60982   8.229   5.085  13.740
19717SOL    HW160983   8.156   5.055  13.794
19717SOL    HW260984   8.234   5.180  13.756
19718SOL     OW60985  14.090  12.027  14.667
19718SOL    HW160986  14.086  12.122  14.662
19718SOL    HW260987  14.058  11.997  14.582
19719SOL     OW60988   2.043   4.868  14.326
19719SOL    HW160989   1.955   4.874  14.364
19719SOL    HW260990   2.068   4.777  14.336
19720SOL     OW60991   2.307   8.342  10.049
19720SOL    HW160992   2.239   8.387  10.099
19720SOL    HW260993   2.272   8.338   9.960
19721SOL     OW60994   2.807   6.307  14.408
19721SOL    HW160995   2.834   6.219  14.382
19721SOL    HW260996   2.881   6.340  14.460
19722SOL     OW60997   7.085   4.491  10.838
19722SOL    HW160998   7.034   4.432  10.894
19722SOL    HW260999   7.023   4.558  10.811
19723SOL     OW61000  13.489   5.609  10.097
19723SOL    HW161001  13.527   5.601  10.010
19723SOL    HW261002  13.446   5.694  10.097
19724SOL     OW61003  10.473   9.771   2.470
19724SOL    HW161004  10.422   9.840   2.428
19724SOL    HW261005  10.417   9.739   2.541
19725SOL     OW61006  12.687   1.023   3.584
19725SOL    HW161007  12.723   0.942   3.619
19725SOL    HW261008  12.592   1.008   3.581
19726SOL     OW61009  14.443  10.591   8.356
19726SOL    HW161010  14.351  10.615   8.354
19726SOL    HW261011  14.447  10.507   8.310
19727SOL     OW61012  10.584   7.446   8.076
19727SOL    HW161013  10.624   7.410   7.997
19727SOL    HW261014  10.520   7.510   8.044
19728SOL     OW61015   0.683   1.635   7.275
19728SOL    HW161016   0.732   1.683   7.208
19728SOL    HW261017   0.621   1.699   7.309
19729SOL     OW61018   5.045   3.504  13.734
19729SOL    HW161019   4.998   3.506  13.818
19729SOL    HW261020   5.084   3.416  13.731
19730SOL     OW61021   1.253  11.571   7.420
19730SOL    HW161022   1.173  11.522   7.400
19730SOL    HW261023   1.229  11.662   7.408
19731SOL     OW61024   2.606   8.864  12.864
19731SOL    HW161025   2.589   8.788  12.919
19731SOL    HW261026   2.568   8.938  12.912
19732SOL     OW61027   1.837  13.736  13.782
19732SOL    HW161028   1.929  13.736  13.756
19732SOL    HW261029   1.802  13.655  13.745
19733SOL     OW61030   2.704  13.719  13.905
19733SOL    HW161031   2.755  13.691  13.829
19733SOL    HW261032   2.706  13.815  13.901
19734SOL     OW61033   4.180   2.858   4.636
19734SOL    HW161034   4.168   2.886   4.726
19734SOL    HW261035   4.274   2.840   4.629
19735SOL     OW61036   4.633  11.008  14.327
19735SOL    HW161037   4.651  11.014  14.421
19735SOL    HW261038   4.572  11.080  14.310
19736SOL     OW61039   5.364   6.541  14.037
19736SOL    HW161040   5.289   6.514  13.984
19736SOL    HW261041   5.325   6.572  14.119
19737SOL     OW61042   9.881   8.457   7.904
19737SOL    HW161043   9.821   8.507   7.959
19737SOL    HW261044   9.834   8.445   7.822
19738SOL     OW61045  14.092  14.846  11.832
19738SOL    HW161046  14.154  14.773  11.824
19738SOL    HW261047  14.032  14.817  11.901
19739SOL     OW61048   7.012   8.166   0.384
19739SOL    HW161049   7.026   8.166   0.290
19739SOL    HW261050   6.928   8.121   0.396
19740SOL     OW61051   9.445   1.964   2.130
19740SOL    HW161052   9.405   2.047   2.157
19740SOL    HW261053   9.536   1.971   2.158
19741SOL     OW61054   0.557   4.828   9.424
19741SOL    HW161055   0.624   4.781   9.475
19741SOL    HW261056   0.536   4.768   9.353
19742SOL     OW61057  13.663   1.889   5.642
19742SOL    HW161058  13.715   1.886   5.562
19742SOL    HW261059  13.644   1.797   5.662
19743SOL     OW61060   4.774   5.941   9.726
19743SOL    HW161061   4.692   5.991   9.729
19743SOL    HW261062   4.816   5.968   9.645
19744SOL     OW61063   2.866   8.630   1.593
19744SOL    HW161064   2.901   8.557   1.645
19744SOL    HW261065   2.866   8.598   1.503
19745SOL     OW61066   4.936   1.875   0.307
19745SOL    HW161067   4.864   1.868   0.370
19745SOL    HW261068   4.988   1.796   0.320
19746SOL     OW61069   9.205   7.135   4.725
19746SOL    HW161070   9.237   7.201   4.786
19746SOL    HW261071   9.122   7.106   4.763
19747SOL     OW61072   3.216   4.046   9.403
19747SOL    HW161073   3.292   4.002   9.366
19747SOL    HW261074   3.195   4.116   9.341
19748SOL     OW61075   6.965  11.334   8.522
19748SOL    HW161076   6.967  11.238   8.514
19748SOL    HW261077   6.872  11.355   8.532
19749SOL     OW61078   5.662   7.828  14.505
19749SOL    HW161079   5.718   7.754  14.527
19749SOL    HW261080   5.723   7.902  14.498
19750SOL     OW61081  11.814  14.322   6.583
19750SOL    HW161082  11.823  14.273   6.502
19750SOL    HW261083  11.895  14.374   6.589
19751SOL     OW61084  10.561   9.201  12.387
19751SOL    HW161085  10.501   9.128  12.401
19751SOL    HW261086  10.539   9.264  12.456
19752SOL     OW61087   2.881   6.060   2.634
19752SOL    HW161088   2.969   6.087   2.660
19752SOL    HW261089   2.852   6.130   2.575
19753SOL     OW61090   3.542   0.198   6.385
19753SOL    HW161091   3.538   0.110   6.423
19753SOL    HW261092   3.454   0.212   6.348
19754SOL     OW61093   4.812   5.403   5.066
19754SOL    HW161094   4.810   5.358   5.150
19754SOL    HW261095   4.872   5.476   5.080
19755SOL     OW61096   4.670   3.040   4.567
19755SOL    HW161097   4.581   3.030   4.534
19755SOL    HW261098   4.675   3.132   4.595
19756SOL     OW61099   4.750  10.354   6.963
19756SOL    HW161100   4.757  10.417   7.034
19756SOL    HW261101   4.702  10.402   6.894
19757SOL     OW61102  10.806   9.856   5.858
19757SOL    HW161103  10.772   9.931   5.907
19757SOL    HW261104  10.854   9.895   5.785
19758SOL     OW61105  10.925   1.375   9.751
19758SOL    HW161106  10.908   1.307   9.686
19758SOL    HW261107  10.898   1.336   9.834
19759SOL     OW61108  13.654   7.907  10.601
19759SOL    HW161109  13.703   7.987  10.622
19759SOL    HW261110  13.623   7.920  10.512
19760SOL     OW61111   4.927  12.449  10.440
19760SOL    HW161112   4.929  12.397  10.521
19760SOL    HW261113   4.987  12.521  10.456
19761SOL     OW61114   9.553   4.584  14.786
19761SOL    HW161115   9.490   4.561  14.854
19761SOL    HW261116   9.602   4.504  14.770
19762SOL     OW61117  12.000   9.686   0.459
19762SOL    HW161118  12.041   9.757   0.411
19762SOL    HW261119  11.911   9.717   0.476
19763SOL     OW61120   6.285   2.855   9.850
19763SOL    HW161121   6.285   2.928   9.912
19763SOL    HW261122   6.194   2.848   9.820
19764SOL     OW61123  14.516  10.995  13.072
19764SOL    HW161124  14.575  10.923  13.093
19764SOL    HW261125  14.455  10.999  13.145
19765SOL     OW61126  12.212   6.325   4.636
19765SOL    HW161127  12.307   6.334   4.626
19765SOL    HW261128  12.199   6.311   4.730
19766SOL     OW61129   4.839   6.420   6.654
19766SOL    HW161130   4.781   6.464   6.592
19766SOL    HW261131   4.833   6.471   6.734
19767SOL     OW61132  14.097   6.279   8.694
19767SOL    HW161133  14.010   6.316   8.706
19767SOL    HW261134  14.139   6.335   8.629
19768SOL     OW61135   2.537   0.146   5.235
19768SOL    HW161136   2.495   0.113   5.314
19768SOL    HW261137   2.487   0.223   5.210
19769SOL     OW61138   6.647  12.896  12.077
19769SOL    HW161139   6.600  12.975  12.051
19769SOL    HW261140   6.587  12.824  12.057
19770SOL     OW61141  14.241   6.937   8.827
19770SOL    HW161142  14.284   7.022   8.836
19770SOL    HW261143  14.313   6.874   8.822
19771SOL     OW61144   5.789  10.494   5.580
19771SOL    HW161145   5.795  10.584   5.613
19771SOL    HW261146   5.705  10.491   5.534
19772SOL     OW61147   3.725   2.125   0.377
19772SOL    HW161148   3.656   2.124   0.310
19772SOL    HW261149   3.763   2.213   0.371
19773SOL     OW61150  14.481  11.463   4.395
19773SOL    HW161151  14.559  11.498   4.351
19773SOL    HW261152  14.408  11.513   4.359
19774SOL     OW61153  14.767   5.773   6.538
19774SOL    HW161154  14.860   5.793   6.534
19774SOL    HW261155  14.726   5.837   6.479
19775SOL     OW61156   2.148  10.329   1.977
19775SOL    HW161157   2.217  10.267   2.001
19775SOL    HW261158   2.187  10.415   1.992
19776SOL     OW61159   7.409  11.983   2.799
19776SOL    HW161160   7.390  12.073   2.774
19776SOL    HW261161   7.496  11.965   2.763
19777SOL     OW61162   4.425  12.778  11.027
19777SOL    HW161163   4.485  12.792  11.100
19777SOL    HW261164   4.371  12.857  11.024
19778SOL     OW61165   1.725   3.337  11.201
19778SOL    HW161166   1.671   3.384  11.137
19778SOL    HW261167   1.728   3.247  11.169
19779SOL     OW61168   6.306   1.379   6.121
19779SOL    HW161169   6.270   1.362   6.034
19779SOL    HW261170   6.395   1.410   6.104
19780SOL     OW61171   7.129  14.154   3.846
19780SOL    HW161172   7.050  14.100   3.848
19780SOL    HW261173   7.103  14.233   3.798
19781SOL     OW61174   5.566   0.703  11.070
19781SOL    HW161175   5.529   0.790  11.075
19781SOL    HW261176   5.564   0.681  10.977
19782SOL     OW61177   8.037   1.664   0.756
19782SOL    HW161178   7.998   1.749   0.775
19782SOL    HW261179   7.968   1.615   0.713
19783SOL     OW61180   8.627   9.599  12.670
19783SOL    HW161181   8.718   9.586  12.698
19783SOL    HW261182   8.576   9.591  12.750
19784SOL     OW61183   1.249   6.189   5.665
19784SOL    HW161184   1.308   6.222   5.734
19784SOL    HW261185   1.166   6.233   5.682
19785SOL     OW61186  14.234   0.279   4.768
19785SOL    HW161187  14.202   0.364   4.799
19785SOL    HW261188  14.200   0.272   4.679
19786SOL     OW61189   6.593   0.613   9.406
19786SOL    HW161190   6.654   0.620   9.479
19786SOL    HW261191   6.509   0.590   9.447
19787SOL     OW61192   2.233   5.002  14.536
19787SOL    HW161193   2.158   5.003  14.596
19787SOL    HW261194   2.216   5.074  14.475
19788SOL     OW61195   6.151   0.685   6.377
19788SOL    HW161196   6.166   0.768   6.424
19788SOL    HW261197   6.149   0.710   6.285
19789SOL     OW61198  13.562   5.114   6.219
19789SOL    HW161199  13.625   5.183   6.199
19789SOL    HW261200  13.610   5.053   6.274
19790SOL     OW61201   5.771  12.237   8.271
19790SOL    HW161202   5.709  12.266   8.338
19790SOL    HW261203   5.787  12.145   8.292
19791SOL     OW61204   5.808   3.163   2.922
19791SOL    HW161205   5.861   3.186   2.998
19791SOL    HW261206   5.867   3.174   2.847
19792SOL     OW61207   1.858   3.155   1.986
19792SOL    HW161208   1.839   3.183   1.896
19792SOL    HW261209   1.951   3.174   1.997
19793SOL     OW61210   4.014   4.471   6.889
19793SOL    HW161211   3.986   4.558   6.916
19793SOL    HW261212   4.002   4.470   6.794
19794SOL     OW61213   5.877  12.734   1.322
19794SOL    HW161214   5.940  12.743   1.250
19794SOL    HW261215   5.931  12.735   1.401
19795SOL     OW61216  13.874   9.122   6.351
19795SOL    HW161217  13.854   9.095   6.441
19795SOL    HW261218  13.788   9.129   6.309
19796SOL     OW61219   6.851   4.987  13.312
19796SOL    HW161220   6.851   5.035  13.229
19796SOL    HW261221   6.776   5.021  13.360
19797SOL     OW61222   1.093  12.363  14.719
19797SOL    HW161223   1.041  12.422  14.665
19797SOL    HW261224   1.089  12.279  14.673
19798SOL     OW61225   2.823   0.310   1.113
19798SOL    HW161226   2.733   0.303   1.146
19798SOL    HW261227   2.863   0.226   1.135
19799SOL     OW61228   3.298   9.111   1.364
19799SOL    HW161229   3.373   9.161   1.332
19799SOL    HW261230   3.225   9.138   1.308
19800SOL     OW61231   8.929   3.808   3.132
19800SOL    HW161232   8.913   3.726   3.084
19800SOL    HW261233   8.972   3.865   3.069
19801SOL     OW61234   0.680  11.349   4.005
19801SOL    HW161235   0.723  11.337   3.920
19801SOL    HW261236   0.751  11.375   4.064
19802SOL     OW61237   1.047   7.708   4.563
19802SOL    HW161238   0.999   7.789   4.579
19802SOL    HW261239   0.986   7.638   4.587
19803SOL     OW61240   9.722   3.313   1.045
19803SOL    HW161241   9.783   3.338   1.114
19803SOL    HW261242   9.672   3.393   1.026
19804SOL     OW61243   9.757   3.865   1.767
19804SOL    HW161244   9.768   3.806   1.692
19804SOL    HW261245   9.835   3.920   1.766
19805SOL     OW61246   3.651   3.078  10.862
19805SOL    HW161247   3.590   3.006  10.874
19805SOL    HW261248   3.653   3.092  10.767
19806SOL     OW61249   6.932   3.619  13.910
19806SOL    HW161250   6.901   3.709  13.899
19806SOL    HW261251   7.023   3.622  13.879
19807SOL     OW61252   2.165   7.558  12.230
19807SOL    HW161253   2.171   7.502  12.153
19807SOL    HW261254   2.242   7.536  12.282
19808SOL     OW61255   6.846   9.781  13.360
19808SOL    HW161256   6.768   9.783  13.305
19808SOL    HW261257   6.815   9.753  13.446
19809SOL     OW61258   2.287   2.418   9.501
19809SOL    HW161259   2.321   2.481   9.437
19809SOL    HW261260   2.365   2.369   9.529
19810SOL     OW61261  14.106   3.837   8.525
19810SOL    HW161262  14.126   3.896   8.597
19810SOL    HW261263  14.191   3.821   8.483
19811SOL     OW61264   7.578   9.753   6.835
19811SOL    HW161265   7.647   9.806   6.874
19811SOL    HW261266   7.526   9.721   6.909
19812SOL     OW61267   6.091   2.090   2.811
19812SOL    HW161268   6.005   2.049   2.810
19812SOL    HW261269   6.099   2.132   2.725
19813SOL     OW61270  11.945   8.509   2.274
19813SOL    HW161271  11.907   8.595   2.290
19813SOL    HW261272  12.021   8.505   2.331
19814SOL     OW61273   3.387   2.526   6.530
19814SOL    HW161274   3.479   2.549   6.538
19814SOL    HW261275   3.381   2.477   6.448
19815SOL     OW61276   5.763   9.027   4.140
19815SOL    HW161277   5.692   9.088   4.159
19815SOL    HW261278   5.834   9.055   4.198
19816SOL     OW61279   9.918   4.045  13.095
19816SOL    HW161280   9.881   3.957  13.092
19816SOL    HW261281   9.843   4.103  13.113
19817SOL     OW61282  10.211   7.810   3.127
19817SOL    HW161283  10.259   7.826   3.208
19817SOL    HW261284  10.125   7.778   3.155
19818SOL     OW61285   3.339   9.663  11.751
19818SOL    HW161286   3.406   9.688  11.814
19818SOL    HW261287   3.341   9.567  11.751
19819SOL     OW61288   8.363   7.381   6.353
19819SOL    HW161289   8.287   7.326   6.373
19819SOL    HW261290   8.337   7.468   6.382
19820SOL     OW61291  14.452   5.058  14.082
19820SOL    HW161292  14.533   5.016  14.053
19820SOL    HW261293  14.451   5.046  14.176
19821SOL     OW61294   0.531   0.911   5.149
19821SOL    HW161295   0.615   0.955   5.137
19821SOL    HW261296   0.547   0.822   5.118
19822SOL     OW61297  12.931   1.669  12.181
19822SOL    HW161298  12.930   1.745  12.122
19822SOL    HW261299  12.839   1.657  12.206
19823SOL     OW61300   1.472  10.421   8.707
19823SOL    HW161301   1.546  10.439   8.649
19823SOL    HW261302   1.495  10.464   8.790
19824SOL     OW61303   6.838   9.900  12.857
19824SOL    HW161304   6.874   9.824  12.812
19824SOL    HW261305   6.914   9.947  12.892
19825SOL     OW61306   2.931   7.113   1.525
19825SOL    HW161307   2.884   7.106   1.442
19825SOL    HW261308   2.868   7.085   1.591
19826SOL     OW61309  13.095   1.708  12.818
19826SOL    HW161310  13.130   1.619  12.829
19826SOL    HW261311  13.147   1.746  12.747
19827SOL     OW61312   1.532  14.490   2.833
19827SOL    HW161313   1.562  14.425   2.897
19827SOL    HW261314   1.449  14.456   2.800
19828SOL     OW61315   6.989   3.004   2.063
19828SOL    HW161316   7.081   3.023   2.044
19828SOL    HW261317   6.944   3.013   1.979
19829SOL     OW61318  13.971   1.154  12.768
19829SOL    HW161319  13.885   1.188  12.793
19829SOL    HW261320  14.032   1.226  12.784
19830SOL     OW61321   0.243   2.594   5.928
19830SOL    HW161322   0.273   2.520   5.875
19830SOL    HW261323   0.317   2.656   5.926
19831SOL     OW61324   7.448   8.289   5.754
19831SOL    HW161325   7.389   8.287   5.679
19831SOL    HW261326   7.529   8.327   5.720
19832SOL     OW61327   4.353   7.947   2.794
19832SOL    HW161328   4.338   7.909   2.707
19832SOL    HW261329   4.290   7.904   2.851
19833SOL     OW61330   9.857   8.725  12.021
19833SOL    HW161331   9.804   8.688  12.091
19833SOL    HW261332   9.809   8.702  11.941
19834SOL     OW61333  11.416   5.782   2.675
19834SOL    HW161334  11.393   5.700   2.720
19834SOL    HW261335  11.361   5.783   2.597
19835SOL     OW61336  13.812   0.516  11.385
19835SOL    HW161337  13.815   0.466  11.466
19835SOL    HW261338  13.879   0.477  11.329
19836SOL     OW61339  12.582   9.003   3.807
19836SOL    HW161340  12.511   8.984   3.868
19836SOL    HW261341  12.539   9.037   3.729
19837SOL     OW61342   3.437   3.204  12.210
19837SOL    HW161343   3.406   3.143  12.277
19837SOL    HW261344   3.440   3.152  12.130
19838SOL     OW61345   1.740  10.516   2.646
19838SOL    HW161346   1.829  10.493   2.673
19838SOL    HW261347   1.750  10.593   2.590
19839SOL     OW61348   8.629   0.039   7.581
19839SOL    HW161349   8.552   0.084   7.616
19839SOL    HW261350   8.625   0.055   7.487
19840SOL     OW61351  12.414   3.465  13.544
19840SOL    HW161352  12.333   3.432  13.505
19840SOL    HW261353  12.463   3.386  13.568
19841SOL     OW61354   0.535  10.518   4.938
19841SOL    HW161355   0.461  10.467   4.971
19841SOL    HW261356   0.544  10.590   5.000
19842SOL     OW61357   1.931   7.802  10.723
19842SOL    HW161358   1.971   7.761  10.646
19842SOL    HW261359   1.953   7.895  10.714
19843SOL     OW61360   0.506   7.715   1.033
19843SOL    HW161361   0.484   7.672   1.116
19843SOL    HW261362   0.602   7.715   1.031
19844SOL     OW61363  14.873  10.535   8.937
19844SOL    HW161364  14.790  10.583   8.945
19844SOL    HW261365  14.856  10.470   8.869
19845SOL     OW61366   3.827   4.247   0.212
19845SOL    HW161367   3.757   4.198   0.168
19845SOL    HW261368   3.849   4.195   0.288
19846SOL     OW61369   3.783   2.149   7.579
19846SOL    HW161370   3.744   2.134   7.492
19846SOL    HW261371   3.855   2.209   7.562
19847SOL     OW61372   1.938  13.503  12.928
19847SOL    HW161373   1.868  13.468  12.982
19847SOL    HW261374   1.918  13.472  12.839
19848SOL     OW61375   1.023   3.447   3.843
19848SOL    HW161376   1.058   3.448   3.754
19848SOL    HW261377   1.089   3.494   3.895
19849SOL     OW61378   4.984   9.809  12.104
19849SOL    HW161379   4.962   9.870  12.034
19849SOL    HW261380   4.916   9.741  12.099
19850SOL     OW61381   6.358  14.540   7.733
19850SOL    HW161382   6.287  14.569   7.790
19850SOL    HW261383   6.380  14.452   7.764
19851SOL     OW61384   8.589   9.710   7.027
19851SOL    HW161385   8.593   9.722   6.932
19851SOL    HW261386   8.544   9.788   7.060
19852SOL     OW61387   3.097  14.777   3.066
19852SOL    HW161388   3.186  14.770   3.100
19852SOL    HW261389   3.086  14.699   3.011
19853SOL     OW61390   3.638   4.131  10.845
19853SOL    HW161391   3.667   4.209  10.894
19853SOL    HW261392   3.674   4.058  10.895
19854SOL     OW61393  10.895   4.455   3.140
19854SOL    HW161394  10.823   4.394   3.157
19854SOL    HW261395  10.933   4.426   3.057
19855SOL     OW61396   9.489   8.588   6.639
19855SOL    HW161397   9.450   8.670   6.670
19855SOL    HW261398   9.468   8.585   6.546
19856SOL     OW61399  10.882   8.258  12.762
19856SOL    HW161400  10.850   8.187  12.817
19856SOL    HW261401  10.946   8.304  12.816
19857SOL     OW61402  13.080   6.778   6.947
19857SOL    HW161403  13.099   6.860   6.993
19857SOL    HW261404  13.021   6.731   7.005
19858SOL     OW61405   6.496   3.094   1.291
19858SOL    HW161406   6.513   3.072   1.383
19858SOL    HW261407   6.556   3.038   1.242
19859SOL     OW61408   5.284  11.177  13.199
19859SOL    HW161409   5.257  11.126  13.275
19859SOL    HW261410   5.303  11.113  13.131
19860SOL     OW61411   2.043   9.115   2.669
19860SOL    HW161412   1.972   9.067   2.625
19860SOL    HW261413   2.105   9.135   2.600
19861SOL     OW61414   5.573  11.156   3.803
19861SOL    HW161415   5.516  11.219   3.847
19861SOL    HW261416   5.609  11.103   3.874
19862SOL     OW61417   5.002   0.783   2.611
19862SOL    HW161418   4.908   0.801   2.615
19862SOL    HW261419   5.038   0.830   2.687
19863SOL     OW61420  12.233   4.075   9.504
19863SOL    HW161421  12.166   4.143   9.500
19863SOL    HW261422  12.191   4.002   9.548
19864SOL     OW61423   7.389   0.352   4.778
19864SOL    HW161424   7.298   0.325   4.785
19864SOL    HW261425   7.399   0.382   4.687
19865SOL     OW61426   1.764   0.837  11.815
19865SOL    HW161427   1.837   0.870  11.867
19865SOL    HW261428   1.789   0.855  11.725
19866SOL     OW61429   2.975  14.727   8.152
19866SOL    HW161430   2.946  14.751   8.240
19866SOL    HW261431   2.968  14.809   8.102
19867SOL     OW61432  13.532   2.822   6.240
19867SOL    HW161433  13.625   2.803   6.228
19867SOL    HW261434  13.526   2.852   6.330
19868SOL     OW61435   8.254   2.026  10.130
19868SOL    HW161436   8.256   1.934  10.105
19868SOL    HW261437   8.273   2.073  10.048
19869SOL     OW61438   7.734   3.621   0.510
19869SOL    HW161439   7.798   3.586   0.573
19869SOL    HW261440   7.748   3.570   0.431
19870SOL     OW61441   5.537  14.106   8.948
19870SOL    HW161442   5.504  14.017   8.955
19870SOL    HW261443   5.472  14.160   8.993
19871SOL     OW61444   9.555  13.707  13.228
19871SOL    HW161445   9.594  13.620  13.234
19871SOL    HW261446   9.460  13.691  13.228
19872SOL     OW61447   7.860   3.429   6.619
19872SOL    HW161448   7.950   3.436   6.590
19872SOL    HW261449   7.817   3.507   6.585
19873SOL     OW61450   8.202  10.523   7.386
19873SOL    HW161451   8.276  10.582   7.373
19873SOL    HW261452   8.125  10.579   7.379
19874SOL     OW61453   1.539   7.388   4.289
19874SOL    HW161454   1.537   7.412   4.382
19874SOL    HW261455   1.624   7.419   4.259
19875SOL     OW61456   6.804   1.477   1.869
19875SOL    HW161457   6.850   1.458   1.951
19875SOL    HW261458   6.854   1.431   1.802
19876SOL     OW61459   2.389   9.878   4.370
19876SOL    HW161460   2.474   9.833   4.375
19876SOL    HW261461   2.347   9.840   4.293
19877SOL     OW61462   3.186   9.720  11.336
19877SOL    HW161463   3.250   9.746  11.402
19877SOL    HW261464   3.187   9.792  11.272
19878SOL     OW61465  13.029   7.787   3.093
19878SOL    HW161466  12.967   7.768   3.163
19878SOL    HW261467  13.080   7.706   3.083
19879SOL     OW61468   9.716  11.147  13.888
19879SOL    HW161469   9.670  11.176  13.809
19879SOL    HW261470   9.785  11.089  13.856
19880SOL     OW61471   6.893   4.874   5.839
19880SOL    HW161472   6.955   4.807   5.869
19880SOL    HW261473   6.908   4.948   5.897
19881SOL     OW61474   4.415   1.444  13.258
19881SOL    HW161475   4.374   1.450  13.344
19881SOL    HW261476   4.463   1.526  13.248
19882SOL     OW61477   1.212   8.101   9.293
19882SOL    HW161478   1.137   8.045   9.273
19882SOL    HW261479   1.273   8.045   9.341
19883SOL     OW61480   5.636  10.556  13.356
19883SOL    HW161481   5.615  10.483  13.298
19883SOL    HW261482   5.689  10.518  13.426
19884SOL     OW61483   7.696   2.799  12.396
19884SOL    HW161484   7.668   2.888  12.419
19884SOL    HW261485   7.691   2.797  12.300
19885SOL     OW61486   8.092   2.903  10.693
19885SOL    HW161487   8.108   2.976  10.634
19885SOL    HW261488   8.060   2.943  10.774
19886SOL     OW61489  12.152   8.901  12.162
19886SOL    HW161490  12.201   8.983  12.167
19886SOL    HW261491  12.141   8.875  12.253
19887SOL     OW61492  14.734  10.159   6.651
19887SOL    HW161493  14.732  10.220   6.577
19887SOL    HW261494  14.712  10.213   6.727
19888SOL     OW61495   0.076   1.410  13.865
19888SOL    HW161496   0.132   1.380  13.937
19888SOL    HW261497   0.105   1.359  13.790
19889SOL     OW61498  13.907   7.401   5.562
19889SOL    HW161499  13.873   7.366   5.644
19889SOL    HW261500  13.836   7.455   5.527
19890SOL     OW61501  13.114   9.297  12.491
19890SOL    HW161502  13.193   9.351  12.498
19890SOL    HW261503  13.143   9.209  12.511
19891SOL     OW61504   7.036   6.244  10.700
19891SOL    HW161505   7.001   6.212  10.617
19891SOL    HW261506   7.105   6.305  10.676
19892SOL     OW61507   5.934   4.803  13.991
19892SOL    HW161508   5.961   4.714  14.012
19892SOL    HW261509   6.016   4.850  13.976
19893SOL     OW61510   7.914  12.922   9.550
19893SOL    HW161511   7.839  12.964   9.509
19893SOL    HW261512   7.988  12.947   9.494
19894SOL     OW61513   1.751   6.805  13.548
19894SOL    HW161514   1.818   6.863  13.512
19894SOL    HW261515   1.678   6.810  13.485
19895SOL     OW61516   4.112   8.756  13.580
19895SOL    HW161517   4.157   8.710  13.508
19895SOL    HW261518   4.042   8.805  13.537
19896SOL     OW61519   7.247  13.591  13.150
19896SOL    HW161520   7.270  13.637  13.230
19896SOL    HW261521   7.224  13.661  13.088
19897SOL     OW61522  14.548   8.435  11.734
19897SOL    HW161523  14.469   8.447  11.682
19897SOL    HW261524  14.612   8.398  11.673
19898SOL     OW61525   6.679   4.474   4.515
19898SOL    HW161526   6.715   4.388   4.537
19898SOL    HW261527   6.746   4.515   4.460
19899SOL     OW61528   8.287  13.792   1.487
19899SOL    HW161529   8.225  13.755   1.424
19899SOL    HW261530   8.265  13.749   1.570
19900SOL     OW61531  10.983   1.878  10.844
19900SOL    HW161532  10.958   1.799  10.892
19900SOL    HW261533  11.008   1.941  10.912
19901SOL     OW61534   2.178   1.001  14.643
19901SOL    HW161535   2.264   0.960  14.648
19901SOL    HW261536   2.118   0.937  14.681
19902SOL     OW61537  10.715   7.911   1.427
19902SOL    HW161538  10.799   7.891   1.468
19902SOL    HW261539  10.736   7.971   1.356
19903SOL     OW61540   4.867  12.114   9.466
19903SOL    HW161541   4.852  12.194   9.517
19903SOL    HW261542   4.940  12.071   9.510
19904SOL     OW61543   4.953  11.627   5.461
19904SOL    HW161544   4.911  11.611   5.545
19904SOL    HW261545   4.998  11.711   5.472
19905SOL     OW61546   3.038   6.415  13.168
19905SOL    HW161547   3.132   6.403  13.183
19905SOL    HW261548   3.033   6.457  13.082
19906SOL     OW61549   2.299   5.747   7.783
19906SOL    HW161550   2.307   5.711   7.695
19906SOL    HW261551   2.241   5.686   7.829
19907SOL     OW61552   9.476   1.056   8.587
19907SOL    HW161553   9.385   1.071   8.615
19907SOL    HW261554   9.524   1.133   8.617
19908SOL     OW61555   1.964   2.171  12.709
19908SOL    HW161556   2.006   2.202  12.790
19908SOL    HW261557   1.881   2.134  12.738
19909SOL     OW61558   1.639   5.440  12.730
19909SOL    HW161559   1.569   5.438  12.665
19909SOL    HW261560   1.598   5.410  12.811
19910SOL     OW61561  14.509   8.608   9.987
19910SOL    HW161562  14.425   8.615   9.941
19910SOL    HW261563  14.575   8.622   9.918
19911SOL     OW61564  12.667   1.039   7.515
19911SOL    HW161565  12.627   1.060   7.600
19911SOL    HW261566  12.750   1.086   7.517
19912SOL     OW61567   7.088  14.474   8.111
19912SOL    HW161568   7.082  14.381   8.129
19912SOL    HW261569   7.076  14.516   8.196
19913SOL     OW61570  14.060  10.221   6.962
19913SOL    HW161571  13.988  10.161   6.985
19913SOL    HW261572  14.021  10.283   6.900
19914SOL     OW61573   7.385  14.138  11.722
19914SOL    HW161574   7.331  14.144  11.800
19914SOL    HW261575   7.357  14.056  11.680
19915SOL     OW61576  10.722   3.349   4.208
19915SOL    HW161577  10.742   3.430   4.160
19915SOL    HW261578  10.686   3.379   4.291
19916SOL     OW61579  12.694  11.070   1.721
19916SOL    HW161580  12.663  11.094   1.808
19916SOL    HW261581  12.629  11.007   1.689
19917SOL     OW61582   1.263   3.026  10.736
19917SOL    HW161583   1.225   2.940  10.750
19917SOL    HW261584   1.319   3.016  10.659
19918SOL     OW61585   4.019   2.112  14.010
19918SOL    HW161586   4.014   2.076  13.922
19918SOL    HW261587   4.038   2.037  14.066
19919SOL     OW61588   6.028   9.890   6.221
19919SOL    HW161589   6.120   9.891   6.247
19919SOL    HW261590   6.013   9.977   6.184
19920SOL     OW61591   1.319  11.546  14.337
19920SOL    HW161592   1.363  11.480  14.284
19920SOL    HW261593   1.325  11.626  14.285
19921SOL     OW61594   6.621  11.337  12.465
19921SOL    HW161595   6.643  11.295  12.382
19921SOL    HW261596   6.670  11.288  12.531
19922SOL     OW61597   9.722   1.724   0.501
19922SOL    HW161598   9.645   1.680   0.465
19922SOL    HW261599   9.704   1.817   0.488
19923SOL     OW61600   3.734   8.954  13.011
19923SOL    HW161601   3.822   8.985  13.035
19923SOL    HW261602   3.751   8.878  12.955
19924SOL     OW61603   6.894   4.565   5.050
19924SOL    HW161604   6.839   4.531   5.120
19924SOL    HW261605   6.910   4.656   5.072
19925SOL     OW61606  11.142  10.388  14.366
19925SOL    HW161607  11.069  10.417  14.312
19925SOL    HW261608  11.148  10.294  14.349
19926SOL     OW61609   9.457   5.411   4.819
19926SOL    HW161610   9.462   5.334   4.761
19926SOL    HW261611   9.364   5.436   4.816
19927SOL     OW61612   4.096  14.833   0.342
19927SOL    HW161613   4.114   0.047   0.315
19927SOL    HW261614   4.114  14.780   0.264
19928SOL     OW61615  10.941   1.271   4.734
19928SOL    HW161616  10.858   1.295   4.775
19928SOL    HW261617  10.976   1.201   4.790
19929SOL     OW61618  12.438   4.698   8.141
19929SOL    HW161619  12.502   4.684   8.072
19929SOL    HW261620  12.355   4.709   8.094
19930SOL     OW61621  13.337   8.602  10.128
19930SOL    HW161622  13.242   8.608  10.117
19930SOL    HW261623  13.350   8.518  10.171
19931SOL     OW61624  13.535   7.594   4.557
19931SOL    HW161625  13.519   7.503   4.585
19931SOL    HW261626  13.495   7.647   4.626
19932SOL     OW61627  11.965   0.496  10.473
19932SOL    HW161628  12.060   0.489  10.470
19932SOL    HW261629  11.946   0.528  10.562
19933SOL     OW61630   8.104   3.196  14.114
19933SOL    HW161631   8.067   3.139  14.046
19933SOL    HW261632   8.171   3.143  14.156
19934SOL     OW61633  11.674  13.387   3.216
19934SOL    HW161634  11.689  13.327   3.288
19934SOL    HW261635  11.583  13.415   3.225
19935SOL     OW61636  10.011   4.255   9.645
19935SOL    HW161637   9.951   4.321   9.681
19935SOL    HW261638  10.067   4.304   9.585
19936SOL     OW61639   7.077  10.573   2.825
19936SOL    HW161640   7.145  10.549   2.888
19936SOL    HW261641   7.117  10.643   2.772
19937SOL     OW61642  14.374   0.668   7.955
19937SOL    HW161643  14.334   0.589   7.919
19937SOL    HW261644  14.302   0.715   7.997
19938SOL     OW61645   7.373   5.162   7.527
19938SOL    HW161646   7.384   5.169   7.433
19938SOL    HW261647   7.314   5.235   7.550
19939SOL     OW61648   2.171  14.411  11.689
19939SOL    HW161649   2.246  14.363  11.653
19939SOL    HW261650   2.099  14.349  11.685
19940SOL     OW61651   7.400   0.562  13.175
19940SOL    HW161652   7.372   0.644  13.134
19940SOL    HW261653   7.469   0.529  13.117
19941SOL     OW61654  11.742  13.067   9.775
19941SOL    HW161655  11.786  13.095   9.855
19941SOL    HW261656  11.796  13.103   9.704
19942SOL     OW61657   0.476  11.408  12.688
19942SOL    HW161658   0.396  11.360  12.666
19942SOL    HW261659   0.507  11.443  12.604
19943SOL     OW61660  14.757  10.665  12.862
19943SOL    HW161661  14.832  10.637  12.809
19943SOL    HW261662  14.713  10.731  12.810
19944SOL     OW61663   9.235   6.169   3.360
19944SOL    HW161664   9.315   6.217   3.336
19944SOL    HW261665   9.169   6.237   3.371
19945SOL     OW61666   7.184  13.895   1.905
19945SOL    HW161667   7.179  13.866   1.814
19945SOL    HW261668   7.116  13.845   1.950
19946SOL     OW61669  10.386  10.802  12.026
19946SOL    HW161670  10.312  10.768  12.077
19946SOL    HW261671  10.464  10.771  12.072
19947SOL     OW61672  11.962   6.888   4.289
19947SOL    HW161673  11.978   6.961   4.349
19947SOL    HW261674  12.025   6.901   4.218
19948SOL     OW61675  12.525   7.326   6.679
19948SOL    HW161676  12.519   7.345   6.586
19948SOL    HW261677  12.453   7.265   6.696
19949SOL     OW61678   2.717   7.717   5.372
19949SOL    HW161679   2.798   7.766   5.386
19949SOL    HW261680   2.650   7.784   5.362
19950SOL     OW61681   0.801   8.267  11.190
19950SOL    HW161682   0.745   8.342  11.212
19950SOL    HW261683   0.762   8.194  11.238
19951SOL     OW61684  14.057  10.759   0.336
19951SOL    HW161685  14.028  10.835   0.388
19951SOL    HW261686  13.986  10.745   0.273
19952SOL     OW61687   2.443   2.838   1.710
19952SOL    HW161688   2.369   2.896   1.727
19952SOL    HW261689   2.508   2.862   1.777
19953SOL     OW61690  14.763   7.423  14.419
19953SOL    HW161691  14.695   7.357  14.434
19953SOL    HW261692  14.755   7.483  14.494
19954SOL     OW61693   0.248  14.394   5.837
19954SOL    HW161694   0.229  14.308   5.873
19954SOL    HW261695   0.213  14.393   5.748
19955SOL     OW61696  12.014  13.438  13.575
19955SOL    HW161697  12.033  13.532  13.570
19955SOL    HW261698  12.085  13.402  13.628
19956SOL     OW61699   0.497   8.960  11.565
19956SOL    HW161700   0.536   9.031  11.514
19956SOL    HW261701   0.485   8.889  11.502
19957SOL     OW61702  10.210  13.095   6.204
19957SOL    HW161703  10.118  13.113   6.224
19957SOL    HW261704  10.249  13.182   6.191
19958SOL     OW61705   6.398   0.029  13.435
19958SOL    HW161706   6.388  14.823  13.483
19958SOL    HW261707   6.396   0.097  13.503
19959SOL     OW61708   2.562   9.929   8.675
19959SOL    HW161709   2.620   9.854   8.659
19959SOL    HW261710   2.602  10.001   8.627
19960SOL     OW61711   5.443  12.464   6.940
19960SOL    HW161712   5.460  12.397   6.874
19960SOL    HW261713   5.367  12.511   6.907
19961SOL     OW61714   5.082  12.631  13.502
19961SOL    HW161715   5.068  12.700  13.567
19961SOL    HW261716   5.100  12.678  13.420
19962SOL     OW61717   1.871   6.921   0.216
19962SOL    HW161718   1.822   6.874   0.284
19962SOL    HW261719   1.821   6.906   0.136
19963SOL     OW61720   7.182   9.593   0.437
19963SOL    HW161721   7.122   9.539   0.385
19963SOL    HW261722   7.182   9.677   0.393
19964SOL     OW61723   4.252   0.401   5.225
19964SOL    HW161724   4.283   0.335   5.287
19964SOL    HW261725   4.302   0.384   5.145
19965SOL     OW61726   5.688   2.103   6.317
19965SOL    HW161727   5.604   2.097   6.270
19965SOL    HW261728   5.744   2.040   6.273
19966SOL     OW61729  13.363   9.740  10.709
19966SOL    HW161730  13.419   9.664  10.720
19966SOL    HW261731  13.371   9.764  10.617
19967SOL     OW61732   1.771  14.798   7.056
19967SOL    HW161733   1.705  14.849   7.009
19967SOL    HW261734   1.759  14.823   7.148
19968SOL     OW61735   5.742   2.811   7.955
19968SOL    HW161736   5.828   2.783   7.986
19968SOL    HW261737   5.756   2.903   7.929
19969SOL     OW61738  12.067   1.395   4.754
19969SOL    HW161739  12.044   1.309   4.789
19969SOL    HW261740  12.025   1.397   4.668
19970SOL     OW61741   3.131  14.353  11.164
19970SOL    HW161742   3.164  14.388  11.082
19970SOL    HW261743   3.093  14.268  11.141
19971SOL     OW61744  13.597  11.808   0.584
19971SOL    HW161745  13.516  11.850   0.553
19971SOL    HW261746  13.567  11.743   0.648
19972SOL     OW61747   4.034   8.020   1.522
19972SOL    HW161748   3.942   7.998   1.535
19972SOL    HW261749   4.077   7.936   1.508
19973SOL     OW61750   5.576  10.592   3.186
19973SOL    HW161751   5.521  10.605   3.264
19973SOL    HW261752   5.633  10.518   3.209
19974SOL     OW61753  10.834  12.388   1.621
19974SOL    HW161754  10.877  12.415   1.702
19974SOL    HW261755  10.880  12.436   1.552
19975SOL     OW61756  11.226   1.588   3.012
19975SOL    HW161757  11.137   1.603   3.044
19975SOL    HW261758  11.223   1.612   2.919
19976SOL     OW61759   9.252   5.081   2.465
19976SOL    HW161760   9.278   4.993   2.491
19976SOL    HW261761   9.283   5.089   2.375
19977SOL     OW61762   1.389  14.683   7.442
19977SOL    HW161763   1.305  14.701   7.399
19977SOL    HW261764   1.427  14.611   7.392
19978SOL     OW61765   8.468   1.271   8.345
19978SOL    HW161766   8.437   1.180   8.346
19978SOL    HW261767   8.460   1.300   8.436
19979SOL     OW61768   3.688   2.277   4.439
19979SOL    HW161769   3.743   2.206   4.471
19979SOL    HW261770   3.618   2.285   4.504
19980SOL     OW61771   0.598  10.522  13.671
19980SOL    HW161772   0.626  10.553  13.757
19980SOL    HW261773   0.644  10.577  13.609
19981SOL     OW61774  11.956   8.488  13.020
19981SOL    HW161775  11.873   8.468  12.975
19981SOL    HW261776  11.936   8.566  13.071
19982SOL     OW61777   8.962   3.810  10.604
19982SOL    HW161778   8.979   3.865  10.681
19982SOL    HW261779   8.994   3.863  10.531
19983SOL     OW61780  13.819   8.723   2.651
19983SOL    HW161781  13.745   8.779   2.630
19983SOL    HW261782  13.865   8.712   2.568
19984SOL     OW61783   0.582   9.888   4.946
19984SOL    HW161784   0.569   9.979   4.973
19984SOL    HW261785   0.640   9.893   4.870
19985SOL     OW61786  10.986  11.761  14.073
19985SOL    HW161787  11.024  11.789  13.989
19985SOL    HW261788  10.964  11.669  14.060
19986SOL     OW61789   3.287  10.211  14.558
19986SOL    HW161790   3.371  10.250  14.533
19986SOL    HW261791   3.249  10.272  14.621
19987SOL     OW61792   9.332   8.535   4.175
19987SOL    HW161793   9.265   8.566   4.235
19987SOL    HW261794   9.380   8.614   4.149
19988SOL     OW61795   4.995   7.717   0.529
19988SOL    HW161796   5.060   7.729   0.598
19988SOL    HW261797   4.953   7.803   0.519
19989SOL     OW61798   3.478   1.064   4.616
19989SOL    HW161799   3.384   1.044   4.612
19989SOL    HW261800   3.503   1.076   4.524
19990SOL     OW61801  11.079   8.465  13.324
19990SOL    HW161802  11.014   8.406  13.286
19990SOL    HW261803  11.089   8.435  13.414
19991SOL     OW61804   9.485   4.475   3.582
19991SOL    HW161805   9.524   4.494   3.667
19991SOL    HW261806   9.458   4.383   3.587
19992SOL     OW61807   0.329   8.288  10.535
19992SOL    HW161808   0.391   8.358  10.513
19992SOL    HW261809   0.384   8.211  10.552
19993SOL     OW61810  12.967   6.363  12.956
19993SOL    HW161811  13.041   6.301  12.964
19993SOL    HW261812  12.943   6.359  12.863
19994SOL     OW61813  14.061   2.327  14.397
19994SOL    HW161814  14.090   2.275  14.322
19994SOL    HW261815  14.016   2.264  14.453
19995SOL     OW61816   0.269  13.350   6.945
19995SOL    HW161817   0.324  13.427   6.929
19995SOL    HW261818   0.324  13.291   6.997
19996SOL     OW61819   6.354   0.519   6.423
19996SOL    HW161820   6.272   0.565   6.406
19996SOL    HW261821   6.354   0.447   6.359
19997SOL     OW61822   1.552   1.882  11.235
19997SOL    HW161823   1.636   1.890  11.190
19997SOL    HW261824   1.556   1.948  11.304
19998SOL     OW61825   0.824   0.685   5.850
19998SOL    HW161826   0.738   0.659   5.883
19998SOL    HW261827   0.868   0.603   5.828
19999SOL     OW61828  10.357  14.513   6.224
19999SOL    HW161829  10.364  14.501   6.319
19999SOL    HW261830  10.330  14.604   6.213
20000SOL     OW61831   0.558   1.264   7.671
20000SOL    HW161832   0.464   1.245   7.662
20000SOL    HW261833   0.578   1.320   7.596
20001SOL     OW61834  12.707  13.034   5.089
20001SOL    HW161835  12.642  12.972   5.121
20001SOL    HW261836  12.682  13.117   5.130
20002SOL     OW61837  10.278   0.402   4.819
20002SOL    HW161838  10.274   0.318   4.772
20002SOL    HW261839  10.297   0.378   4.909
20003SOL     OW61840   2.673  14.149   9.335
20003SOL    HW161841   2.584  14.115   9.345
20003SOL    HW261842   2.711  14.098   9.263
20004SOL     OW61843   7.751   0.605   4.392
20004SOL    HW161844   7.799   0.679   4.355
20004SOL    HW261845   7.688   0.645   4.451
20005SOL     OW61846   3.387  11.409   1.411
20005SOL    HW161847   3.476  11.438   1.431
20005SOL    HW261848   3.360  11.464   1.337
20006SOL     OW61849   5.517   7.331  12.733
20006SOL    HW161850   5.488   7.317  12.642
20006SOL    HW261851   5.464   7.405  12.763
20007SOL     OW61852   2.264  10.898   3.290
20007SOL    HW161853   2.334  10.833   3.297
20007SOL    HW261854   2.185  10.851   3.316
20008SOL     OW61855   7.695   5.077  10.013
20008SOL    HW161856   7.786   5.061  10.037
20008SOL    HW261857   7.645   5.056  10.092
20009SOL     OW61858   0.385  10.529   0.522
20009SOL    HW161859   0.306  10.551   0.472
20009SOL    HW261860   0.424  10.456   0.474
20010SOL     OW61861   3.443   0.994   0.846
20010SOL    HW161862   3.493   0.915   0.866
20010SOL    HW261863   3.464   1.055   0.918
20011SOL     OW61864   1.443   9.761  13.835
20011SOL    HW161865   1.470   9.850  13.858
20011SOL    HW261866   1.354   9.753  13.870
20012SOL     OW61867   8.260   5.697  14.077
20012SOL    HW161868   8.243   5.711  14.170
20012SOL    HW261869   8.304   5.612  14.073
20013SOL     OW61870  12.155  10.085   1.982
20013SOL    HW161871  12.069  10.044   1.979
20013SOL    HW261872  12.200  10.043   2.056
20014SOL     OW61873  11.218   4.277   2.733
20014SOL    HW161874  11.283   4.260   2.665
20014SOL    HW261875  11.250   4.228   2.809
20015SOL     OW61876  13.914  11.725   8.288
20015SOL    HW161877  13.876  11.714   8.201
20015SOL    HW261878  14.006  11.744   8.272
20016SOL     OW61879  13.957   5.368   6.721
20016SOL    HW161880  13.999   5.444   6.761
20016SOL    HW261881  13.962   5.300   6.788
20017SOL     OW61882   1.936   3.877  13.394
20017SOL    HW161883   1.873   3.809  13.370
20017SOL    HW261884   2.008   3.867  13.331
20018SOL     OW61885   8.533   9.024   1.731
20018SOL    HW161886   8.601   9.088   1.752
20018SOL    HW261887   8.573   8.967   1.666
20019SOL     OW61888   8.453   8.974  13.175
20019SOL    HW161889   8.374   9.015  13.209
20019SOL    HW261890   8.429   8.883  13.159
20020SOL     OW61891   3.982  13.526   0.458
20020SOL    HW161892   3.922  13.471   0.509
20020SOL    HW261893   4.018  13.468   0.391
20021SOL     OW61894   4.115   9.415   1.338
20021SOL    HW161895   4.076   9.441   1.254
20021SOL    HW261896   4.160   9.493   1.369
20022SOL     OW61897   9.928  11.974   3.378
20022SOL    HW161898  10.007  11.925   3.398
20022SOL    HW261899   9.865  11.908   3.351
20023SOL     OW61900   2.352   8.092   2.475
20023SOL    HW161901   2.266   8.129   2.493
20023SOL    HW261902   2.353   8.009   2.523
20024SOL     OW61903   6.239  12.968   3.756
20024SOL    HW161904   6.158  12.919   3.757
20024SOL    HW261905   6.282  12.943   3.674
20025SOL     OW61906  11.020   4.026  14.291
20025SOL    HW161907  11.081   4.044  14.363
20025SOL    HW261908  11.031   3.933  14.273
20026SOL     OW61909   8.887  11.785   3.499
20026SOL    HW161910   8.900  11.691   3.491
20026SOL    HW261911   8.941  11.823   3.429
20027SOL     OW61912   0.810  12.863   8.344
20027SOL    HW161913   0.736  12.822   8.389
20027SOL    HW261914   0.840  12.797   8.282
20028SOL     OW61915   6.365   9.990  10.761
20028SOL    HW161916   6.312   9.916  10.731
20028SOL    HW261917   6.365   9.983  10.856
20029SOL     OW61918   4.350   9.624   8.381
20029SOL    HW161919   4.288   9.616   8.453
20029SOL    HW261920   4.416   9.557   8.398
20030SOL     OW61921  14.045   7.910   1.967
20030SOL    HW161922  14.086   7.975   2.024
20030SOL    HW261923  14.008   7.845   2.027
20031SOL     OW61924   0.697   9.791  10.121
20031SOL    HW161925   0.695   9.880  10.086
20031SOL    HW261926   0.667   9.736  10.048
20032SOL     OW61927  12.263  10.564   9.459
20032SOL    HW161928  12.202  10.591   9.527
20032SOL    HW261929  12.326  10.508   9.504
20033SOL     OW61930   4.588  11.508   5.697
20033SOL    HW161931   4.559  11.418   5.681
20033SOL    HW261932   4.534  11.538   5.770
20034SOL     OW61933   0.053   4.753   2.279
20034SOL    HW161934   0.033   4.833   2.327
20034SOL    HW261935   0.025   4.770   2.189
20035SOL     OW61936  10.077   7.494  13.929
20035SOL    HW161937  10.039   7.438  13.861
20035SOL    HW261938  10.002   7.545  13.963
20036SOL     OW61939   3.797   6.225  14.346
20036SOL    HW161940   3.735   6.165  14.304
20036SOL    HW261941   3.834   6.275  14.273
20037SOL     OW61942  12.161  12.247  12.877
20037SOL    HW161943  12.105  12.259  12.954
20037SOL    HW261944  12.222  12.178  12.901
20038SOL     OW61945  11.046  12.009   5.319
20038SOL    HW161946  10.982  11.939   5.335
20038SOL    HW261947  11.083  12.028   5.405
20039SOL     OW61948  11.541  14.564  13.262
20039SOL    HW161949  11.563  14.644  13.309
20039SOL    HW261950  11.531  14.592  13.171
20040SOL     OW61951   0.416   7.406  12.499
20040SOL    HW161952   0.343   7.429  12.557
20040SOL    HW261953   0.494   7.433  12.547
20041SOL     OW61954   4.087   4.045  14.117
20041SOL    HW161955   4.160   3.983  14.123
20041SOL    HW261956   4.120   4.125  14.159
20042SOL     OW61957   6.580  10.992   0.030
20042SOL    HW161958   6.659  10.974  14.855
20042SOL    HW261959   6.549  11.076  14.873
20043SOL     OW61960   7.219   7.187  14.730
20043SOL    HW161961   7.301   7.158  14.690
20043SOL    HW261962   7.230   7.281  14.742
20044SOL     OW61963   2.550   5.612  14.304
20044SOL    HW161964   2.581   5.702  14.292
20044SOL    HW261965   2.628   5.558  14.289
20045SOL     OW61966   7.469  14.505   0.311
20045SOL    HW161967   7.555  14.470   0.335
20045SOL    HW261968   7.477  14.524   0.218
20046SOL     OW61969   7.951   5.178   5.785
20046SOL    HW161970   7.919   5.239   5.850
20046SOL    HW261971   7.993   5.233   5.719
20047SOL     OW61972   2.882  12.728   4.985
20047SOL    HW161973   2.883  12.730   4.889
20047SOL    HW261974   2.832  12.649   5.007
20048SOL     OW61975  14.204   5.725   4.148
20048SOL    HW161976  14.243   5.775   4.076
20048SOL    HW261977  14.189   5.790   4.217
20049SOL     OW61978   3.987   5.824   7.328
20049SOL    HW161979   3.915   5.886   7.321
20049SOL    HW261980   3.973   5.762   7.257
20050SOL     OW61981   4.980   2.655  12.211
20050SOL    HW161982   4.966   2.749  12.220
20050SOL    HW261983   4.907   2.625  12.156
20051SOL     OW61984   7.491   2.366   6.891
20051SOL    HW161985   7.553   2.422   6.938
20051SOL    HW261986   7.433   2.427   6.846
20052SOL     OW61987  11.996  11.421   1.866
20052SOL    HW161988  11.974  11.361   1.795
20052SOL    HW261989  12.010  11.506   1.823
20053SOL     OW61990  13.470  12.889   3.265
20053SOL    HW161991  13.558  12.863   3.291
20053SOL    HW261992  13.457  12.975   3.306
20054SOL     OW61993   0.266   2.766  11.562
20054SOL    HW161994   0.330   2.699  11.586
20054SOL    HW261995   0.205   2.721  11.504
20055SOL     OW61996   7.912  13.438  13.666
20055SOL    HW161997   7.972  13.366  13.684
20055SOL    HW261998   7.961  13.517  13.688
20056SOL     OW61999  14.132   6.741   8.400
20056SOL    HW162000  14.180   6.741   8.317
20056SOL    HW262001  14.063   6.806   8.389
20057SOL     OW62002  10.238  11.926   5.505
20057SOL    HW162003  10.325  11.964   5.495
20057SOL    HW262004  10.178  11.997   5.483
20058SOL     OW62005   2.961   2.457   3.664
20058SOL    HW162006   2.937   2.378   3.712
20058SOL    HW262007   3.056   2.460   3.668
20059SOL     OW62008   5.954   2.137   0.926
20059SOL    HW162009   5.873   2.111   0.969
20059SOL    HW262010   6.022   2.118   0.990
20060SOL     OW62011   8.501  11.396   2.264
20060SOL    HW162012   8.531  11.306   2.269
20060SOL    HW262013   8.475  11.418   2.353
20061SOL     OW62014   6.377  11.721  13.501
20061SOL    HW162015   6.299  11.728  13.445
20061SOL    HW262016   6.343  11.727  13.590
20062SOL     OW62017   0.211  13.240  10.646
20062SOL    HW162018   0.276  13.289  10.695
20062SOL    HW262019   0.190  13.165  10.702
20063SOL     OW62020  14.326   1.938   1.101
20063SOL    HW162021  14.295   1.847   1.106
20063SOL    HW262022  14.373   1.942   1.017
20064SOL     OW62023   1.259   3.987   0.194
20064SOL    HW162024   1.225   4.013   0.280
20064SOL    HW262025   1.326   3.921   0.214
20065SOL     OW62026   3.932   1.683  10.412
20065SOL    HW162027   3.933   1.774  10.380
20065SOL    HW262028   3.999   1.682  10.481
20066SOL     OW62029   0.530   2.370  14.872
20066SOL    HW162030   0.539   2.276  14.856
20066SOL    HW262031   0.596   2.390   0.062
20067SOL     OW62032  11.168   6.946   4.750
20067SOL    HW162033  11.134   7.000   4.823
20067SOL    HW262034  11.177   7.008   4.678
20068SOL     OW62035   6.350   7.847  14.808
20068SOL    HW162036   6.402   7.779  14.766
20068SOL    HW262037   6.295   7.800  14.871
20069SOL     OW62038   3.719   8.875   5.521
20069SOL    HW162039   3.723   8.969   5.538
20069SOL    HW262040   3.809   8.845   5.531
20070SOL     OW62041  11.832   4.766   6.133
20070SOL    HW162042  11.891   4.691   6.121
20070SOL    HW262043  11.845   4.792   6.224
20071SOL     OW62044   3.463   6.304   3.672
20071SOL    HW162045   3.395   6.238   3.682
20071SOL    HW262046   3.436   6.356   3.596
20072SOL     OW62047   0.084  13.384  11.179
20072SOL    HW162048   0.042  13.357  11.097
20072SOL    HW262049   0.043  13.329  11.246
20073SOL     OW62050  14.840   6.798   5.416
20073SOL    HW162051  14.761   6.847   5.390
20073SOL    HW262052   0.036   6.857   5.397
20074SOL     OW62053  11.499   6.003   0.729
20074SOL    HW162054  11.489   6.086   0.775
20074SOL    HW262055  11.484   6.025   0.637
20075SOL     OW62056   8.446  14.111  11.305
20075SOL    HW162057   8.351  14.097  11.310
20075SOL    HW262058   8.457  14.206  11.304
20076SOL     OW62059   3.319   5.261  13.015
20076SOL    HW162060   3.369   5.252  13.097
20076SOL    HW262061   3.331   5.352  12.989
20077SOL     OW62062   9.128  11.491   4.602
20077SOL    HW162063   9.052  11.548   4.586
20077SOL    HW262064   9.101  11.406   4.568
20078SOL     OW62065   9.566  10.756   8.569
20078SOL    HW162066   9.550  10.814   8.495
20078SOL    HW262067   9.656  10.726   8.556
20079SOL     OW62068  14.689   3.790  14.677
20079SOL    HW162069  14.754   3.726  14.706
20079SOL    HW262070  14.655   3.828  14.758
20080SOL     OW62071   2.774   8.804   9.971
20080SOL    HW162072   2.761   8.730   9.912
20080SOL    HW262073   2.820   8.766  10.047
20081SOL     OW62074   5.150   8.749   9.894
20081SOL    HW162075   5.111   8.774   9.811
20081SOL    HW262076   5.235   8.794   9.896
20082SOL     OW62077  10.695   2.426   7.928
20082SOL    HW162078  10.790   2.419   7.914
20082SOL    HW262079  10.658   2.357   7.874
20083SOL     OW62080   5.241   7.082  13.348
20083SOL    HW162081   5.293   7.147  13.302
20083SOL    HW262082   5.275   6.998  13.318
20084SOL     OW62083   1.049   2.268   5.794
20084SOL    HW162084   1.002   2.186   5.807
20084SOL    HW262085   0.982   2.336   5.801
20085SOL     OW62086  13.227   7.686   1.059
20085SOL    HW162087  13.157   7.671   0.996
20085SOL    HW262088  13.188   7.667   1.144
20086SOL     OW62089   3.389   0.379   2.764
20086SOL    HW162090   3.451   0.451   2.755
20086SOL    HW262091   3.333   0.385   2.687
20087SOL     OW62092   0.335  12.842   1.051
20087SOL    HW162093   0.359  12.921   1.100
20087SOL    HW262094   0.412  12.785   1.059
20088SOL     OW62095  14.621   2.823  13.367
20088SOL    HW162096  14.538   2.777  13.353
20088SOL    HW262097  14.595   2.905  13.410
20089SOL     OW62098  10.701   5.354   5.289
20089SOL    HW162099  10.718   5.328   5.380
20089SOL    HW262100  10.609   5.384   5.290
20090SOL     OW62101  13.313   3.267   2.564
20090SOL    HW162102  13.388   3.279   2.623
20090SOL    HW262103  13.269   3.352   2.565
20091SOL     OW62104   2.916   1.744   5.565
20091SOL    HW162105   2.825   1.722   5.584
20091SOL    HW262106   2.922   1.742   5.470
20092SOL     OW62107  10.529   6.068   0.171
20092SOL    HW162108  10.540   5.973   0.181
20092SOL    HW262109  10.543   6.084   0.078
20093SOL     OW62110   1.862   1.945   2.599
20093SOL    HW162111   1.855   2.033   2.563
20093SOL    HW262112   1.952   1.918   2.580
20094SOL     OW62113  11.702   0.957   4.138
20094SOL    HW162114  11.733   1.042   4.170
20094SOL    HW262115  11.612   0.973   4.110
20095SOL     OW62116   5.149   1.141   3.885
20095SOL    HW162117   5.106   1.219   3.918
20095SOL    HW262118   5.077   1.084   3.857
20096SOL     OW62119  10.009   1.071   8.080
20096SOL    HW162120   9.951   1.095   8.007
20096SOL    HW262121   9.954   1.079   8.158
20097SOL     OW62122   0.244   0.525   9.670
20097SOL    HW162123   0.291   0.542   9.752
20097SOL    HW262124   0.229   0.612   9.633
20098SOL     OW62125   7.743  13.119   0.530
20098SOL    HW162126   7.757  13.078   0.615
20098SOL    HW262127   7.786  13.204   0.537
20099SOL     OW62128   4.681   2.637  14.529
20099SOL    HW162129   4.635   2.560  14.495
20099SOL    HW262130   4.690   2.620  14.623
20100SOL     OW62131   3.807  13.959   5.147
20100SOL    HW162132   3.837  13.981   5.235
20100SOL    HW262133   3.877  13.904   5.112
20101SOL     OW62134   6.642   0.481   5.403
20101SOL    HW162135   6.547   0.488   5.391
20101SOL    HW262136   6.655   0.400   5.452
20102SOL     OW62137   6.405  10.846   5.833
20102SOL    HW162138   6.412  10.910   5.762
20102SOL    HW262139   6.319  10.806   5.822
20103SOL     OW62140   6.241  10.852   2.625
20103SOL    HW162141   6.310  10.893   2.678
20103SOL    HW262142   6.281  10.771   2.593
20104SOL     OW62143   8.502   0.214   9.883
20104SOL    HW162144   8.498   0.121   9.859
20104SOL    HW262145   8.426   0.253   9.840
20105SOL     OW62146  11.167   6.627  14.748
20105SOL    HW162147  11.246   6.624  14.694
20105SOL    HW262148  11.096   6.610  14.687
20106SOL     OW62149   6.739   4.757   1.809
20106SOL    HW162150   6.786   4.695   1.752
20106SOL    HW262151   6.665   4.707   1.842
20107SOL     OW62152   7.079   3.231  10.228
20107SOL    HW162153   7.115   3.301  10.281
20107SOL    HW262154   7.052   3.274  10.147
20108SOL     OW62155  11.972   6.354   9.392
20108SOL    HW162156  11.927   6.401   9.322
20108SOL    HW262157  11.915   6.280   9.413
20109SOL     OW62158   7.070   4.850   7.488
20109SOL    HW162159   7.112   4.812   7.411
20109SOL    HW262160   6.976   4.841   7.471
20110SOL     OW62161   9.837   2.869   2.637
20110SOL    HW162162   9.801   2.881   2.725
20110SOL    HW262163   9.775   2.810   2.593
20111SOL     OW62164  10.772  12.925  13.867
20111SOL    HW162165  10.735  12.955  13.784
20111SOL    HW262166  10.866  12.941  13.859
20112SOL     OW62167   0.683   4.619  13.367
20112SOL    HW162168   0.719   4.555  13.428
20112SOL    HW262169   0.717   4.593  13.282
20113SOL     OW62170  14.057   5.733   0.030
20113SOL    HW162171  14.009   5.655   0.002
20113SOL    HW262172  14.143   5.725  14.864
20114SOL     OW62173   3.475   5.293  12.262
20114SOL    HW162174   3.452   5.321  12.350
20114SOL    HW262175   3.563   5.328  12.248
20115SOL     OW62176   3.697  11.467   7.811
20115SOL    HW162177   3.621  11.504   7.856
20115SOL    HW262178   3.695  11.374   7.834
20116SOL     OW62179   2.467  11.852   5.142
20116SOL    HW162180   2.416  11.772   5.131
20116SOL    HW262181   2.449  11.881   5.231
20117SOL     OW62182   1.495   1.215   1.266
20117SOL    HW162183   1.487   1.282   1.199
20117SOL    HW262184   1.413   1.220   1.316
20118SOL     OW62185   4.061  14.047   6.424
20118SOL    HW162186   4.153  14.026   6.409
20118SOL    HW262187   4.036  14.100   6.348
20119SOL     OW62188   9.121   4.212   1.687
20119SOL    HW162189   9.030   4.241   1.680
20119SOL    HW262190   9.172   4.284   1.650
20120SOL     OW62191   0.320   0.033  11.871
20120SOL    HW162192   0.236   0.040  11.918
20120SOL    HW262193   0.361  14.831  11.908
20121SOL     OW62194   3.529   9.616   3.318
20121SOL    HW162195   3.487   9.592   3.235
20121SOL    HW262196   3.494   9.553   3.382
20122SOL     OW62197  12.045   1.737   3.372
20122SOL    HW162198  12.029   1.695   3.457
20122SOL    HW262199  11.963   1.785   3.354
20123SOL     OW62200   3.476  14.796   0.365
20123SOL    HW162201   3.430  14.795   0.281
20123SOL    HW262202   3.432  14.864   0.416
20124SOL     OW62203   8.863   8.865  11.398
20124SOL    HW162204   8.957   8.867  11.418
20124SOL    HW262205   8.856   8.812  11.319
20125SOL     OW62206   6.725  11.015   0.276
20125SOL    HW162207   6.684  10.929   0.278
20125SOL    HW262208   6.680  11.062   0.205
20126SOL     OW62209   6.759  13.880   1.139
20126SOL    HW162210   6.760  13.904   1.232
20126SOL    HW262211   6.811  13.947   1.096
20127SOL     OW62212   7.211  14.537   1.102
20127SOL    HW162213   7.280  14.481   1.066
20127SOL    HW262214   7.132  14.514   1.053
20128SOL     OW62215   2.253  12.786   3.825
20128SOL    HW162216   2.202  12.723   3.774
20128SOL    HW262217   2.344  12.763   3.809
20129SOL     OW62218   2.476   5.250   0.065
20129SOL    HW162219   2.400   5.272   0.119
20129SOL    HW262220   2.477   5.318  14.873
20130SOL     OW62221   1.894   2.000   3.921
20130SOL    HW162222   1.885   1.949   4.001
20130SOL    HW262223   1.812   2.050   3.915
20131SOL     OW62224   2.958   1.001   8.952
20131SOL    HW162225   2.975   1.050   8.871
20131SOL    HW262226   2.941   0.911   8.922
20132SOL     OW62227  12.152   6.546   2.949
20132SOL    HW162228  12.123   6.540   2.858
20132SOL    HW262229  12.245   6.522   2.946
20133SOL     OW62230  13.148   4.994   4.685
20133SOL    HW162231  13.114   4.949   4.762
20133SOL    HW262232  13.071   5.031   4.642
20134SOL     OW62233   6.270   2.195  12.919
20134SOL    HW162234   6.350   2.175  12.968
20134SOL    HW262235   6.299   2.204  12.829
20135SOL     OW62236  14.711   0.712  11.757
20135SOL    HW162237  14.618   0.687  11.756
20135SOL    HW262238  14.755   0.637  11.796
20136SOL     OW62239   7.682   1.415   0.450
20136SOL    HW162240   7.602   1.451   0.411
20136SOL    HW262241   7.749   1.428   0.382
20137SOL     OW62242   0.724   6.959   1.434
20137SOL    HW162243   0.730   6.885   1.493
20137SOL    HW262244   0.793   7.019   1.464
20138SOL     OW62245   4.197   1.049   6.655
20138SOL    HW162246   4.135   1.019   6.721
20138SOL    HW262247   4.165   1.135   6.628
20139SOL     OW62248   6.209  10.956   9.230
20139SOL    HW162249   6.238  10.988   9.315
20139SOL    HW262250   6.116  10.980   9.226
20140SOL     OW62251   8.932  10.951  14.772
20140SOL    HW162252   9.013  10.987  14.736
20140SOL    HW262253   8.869  11.022  14.765
20141SOL     OW62254  11.411   5.559  10.607
20141SOL    HW162255  11.340   5.616  10.638
20141SOL    HW262256  11.367   5.475  10.589
20142SOL     OW62257  10.537  10.712   2.115
20142SOL    HW162258  10.517  10.680   2.027
20142SOL    HW262259  10.550  10.807   2.103
20143SOL     OW62260   4.091   0.229   0.291
20143SOL    HW162261   4.027   0.293   0.321
20143SOL    HW262262   4.167   0.281   0.265
20144SOL     OW62263   1.709   5.537   0.735
20144SOL    HW162264   1.677   5.498   0.816
20144SOL    HW262265   1.799   5.507   0.727
20145SOL     OW62266   6.880   3.811  10.561
20145SOL    HW162267   6.865   3.904  10.545
20145SOL    HW262268   6.956   3.809  10.619
20146SOL     OW62269   9.232   8.035   0.450
20146SOL    HW162270   9.230   8.104   0.383
20146SOL    HW262271   9.157   7.979   0.429
20147SOL     OW62272   4.997   4.019  14.178
20147SOL    HW162273   5.067   3.954  14.185
20147SOL    HW262274   4.941   3.986  14.107
20148SOL     OW62275   6.995  14.248  13.676
20148SOL    HW162276   6.975  14.316  13.612
20148SOL    HW262277   7.003  14.168  13.624
20149SOL     OW62278   3.114  11.347  10.066
20149SOL    HW162279   3.125  11.287  10.140
20149SOL    HW262280   3.178  11.316  10.001
20150SOL     OW62281   5.637   5.997   3.951
20150SOL    HW162282   5.645   6.007   4.046
20150SOL    HW262283   5.668   5.907   3.935
20151SOL     OW62284   4.672   5.468   3.501
20151SOL    HW162285   4.692   5.555   3.537
20151SOL    HW262286   4.637   5.419   3.575
20152SOL     OW62287  13.347   0.301   7.976
20152SOL    HW162288  13.307   0.223   8.015
20152SOL    HW262289  13.371   0.356   8.051
20153SOL     OW62290  10.562   8.971  10.709
20153SOL    HW162291  10.519   8.966  10.795
20153SOL    HW262292  10.491   8.960  10.646
20154SOL     OW62293  12.071   3.319   9.507
20154SOL    HW162294  12.031   3.248   9.456
20154SOL    HW262295  12.149   3.278   9.545
20155SOL     OW62296   4.730  10.199  14.430
20155SOL    HW162297   4.694  10.152  14.356
20155SOL    HW262298   4.792  10.138  14.470
20156SOL     OW62299  10.051   9.659  12.501
20156SOL    HW162300   9.983   9.719  12.468
20156SOL    HW262301  10.114   9.653  12.430
20157SOL     OW62302  11.529   2.794  14.810
20157SOL    HW162303  11.622   2.783  14.789
20157SOL    HW262304  11.488   2.815  14.727
20158SOL     OW62305  14.811   6.783   8.191
20158SOL    HW162306  14.725   6.809   8.222
20158SOL    HW262307  14.864   6.862   8.195
20159SOL     OW62308  10.119  11.879   8.147
20159SOL    HW162309  10.026  11.903   8.151
20159SOL    HW262310  10.121  11.802   8.090
20160SOL     OW62311  14.490  13.428   9.919
20160SOL    HW162312  14.539  13.429  10.002
20160SOL    HW262313  14.555  13.403   9.853
20161SOL     OW62314   5.582   1.233   1.818
20161SOL    HW162315   5.651   1.265   1.761
20161SOL    HW262316   5.611   1.256   1.906
20162SOL     OW62317   4.212   1.823   3.280
20162SOL    HW162318   4.193   1.917   3.278
20162SOL    HW262319   4.297   1.816   3.323
20163SOL     OW62320   0.640  12.891  13.493
20163SOL    HW162321   0.614  12.935  13.573
20163SOL    HW262322   0.706  12.948  13.454
20164SOL     OW62323   7.277   3.158   1.507
20164SOL    HW162324   7.186   3.184   1.520
20164SOL    HW262325   7.328   3.237   1.524
20165SOL     OW62326   3.487   6.469  10.534
20165SOL    HW162327   3.506   6.456  10.441
20165SOL    HW262328   3.573   6.468  10.576
20166SOL     OW62329  11.878   3.668   2.085
20166SOL    HW162330  11.897   3.675   2.178
20166SOL    HW262331  11.793   3.624   2.081
20167SOL     OW62332   7.038   4.014   2.782
20167SOL    HW162333   6.984   4.033   2.705
20167SOL    HW262334   7.025   4.089   2.840
20168SOL     OW62335   0.670   3.189   5.290
20168SOL    HW162336   0.693   3.114   5.346
20168SOL    HW262337   0.745   3.248   5.298
20169SOL     OW62338  13.414  13.415   5.617
20169SOL    HW162339  13.355  13.456   5.554
20169SOL    HW262340  13.448  13.338   5.571
20170SOL     OW62341   6.407   8.451  10.940
20170SOL    HW162342   6.337   8.416  10.885
20170SOL    HW262343   6.488   8.431  10.892
20171SOL     OW62344   5.353  10.996   0.611
20171SOL    HW162345   5.371  10.923   0.671
20171SOL    HW262346   5.421  10.991   0.545
20172SOL     OW62347   8.031   1.460   0.449
20172SOL    HW162348   8.096   1.450   0.379
20172SOL    HW262349   7.981   1.538   0.425
20173SOL     OW62350  10.372  13.925  12.206
20173SOL    HW162351  10.394  13.899  12.117
20173SOL    HW262352  10.456  13.939  12.249
20174SOL     OW62353  13.474   8.999   3.770
20174SOL    HW162354  13.416   8.926   3.793
20174SOL    HW262355  13.473   9.001   3.674
20175SOL     OW62356  12.721  12.975   0.178
20175SOL    HW162357  12.763  12.898   0.139
20175SOL    HW262358  12.779  13.048   0.154
20176SOL     OW62359  13.686   2.713  13.788
20176SOL    HW162360  13.648   2.800  13.806
20176SOL    HW262361  13.752   2.730  13.720
20177SOL     OW62362   5.981  14.049   2.809
20177SOL    HW162363   6.058  14.001   2.781
20177SOL    HW262364   5.920  14.043   2.735
20178SOL     OW62365  14.077   9.292   6.380
20178SOL    HW162366  14.025   9.358   6.426
20178SOL    HW262367  14.017   9.219   6.366
20179SOL     OW62368   0.881   4.554  11.046
20179SOL    HW162369   0.842   4.584  10.964
20179SOL    HW262370   0.848   4.464  11.057
20180SOL     OW62371   3.544   5.030   3.690
20180SOL    HW162372   3.520   4.942   3.718
20180SOL    HW262373   3.481   5.052   3.622
20181SOL     OW62374   7.103   6.478   2.973
20181SOL    HW162375   7.060   6.471   3.058
20181SOL    HW262376   7.131   6.569   2.967
20182SOL     OW62377   2.410  13.463  10.012
20182SOL    HW162378   2.417  13.392   9.948
20182SOL    HW262379   2.321  13.496  10.002
20183SOL     OW62380   2.412   8.366  12.476
20183SOL    HW162381   2.470   8.398  12.545
20183SOL    HW262382   2.423   8.271  12.477
20184SOL     OW62383   4.468   2.234  14.778
20184SOL    HW162384   4.548   2.248  14.828
20184SOL    HW262385   4.415   2.313  14.794
20185SOL     OW62386   8.327  10.437   2.603
20185SOL    HW162387   8.313  10.483   2.685
20185SOL    HW262388   8.307  10.346   2.623
20186SOL     OW62389  12.779  11.878   1.017
20186SOL    HW162390  12.845  11.907   1.080
20186SOL    HW262391  12.696  11.893   1.063
20187SOL     OW62392   3.542   9.528   2.209
20187SOL    HW162393   3.556   9.505   2.117
20187SOL    HW262394   3.455   9.568   2.210
20188SOL     OW62395   3.252   7.083   6.173
20188SOL    HW162396   3.270   7.047   6.086
20188SOL    HW262397   3.234   7.176   6.157
20189SOL     OW62398  14.493   3.193   9.472
20189SOL    HW162399  14.413   3.197   9.421
20189SOL    HW262400  14.522   3.102   9.465
20190SOL     OW62401  10.975   1.277   6.703
20190SOL    HW162402  10.885   1.248   6.718
20190SOL    HW262403  11.029   1.203   6.730
20191SOL     OW62404  10.149   3.817  10.216
20191SOL    HW162405  10.200   3.808  10.135
20191SOL    HW262406  10.196   3.883  10.267
20192SOL     OW62407  13.380  14.292   3.113
20192SOL    HW162408  13.474  14.296   3.131
20192SOL    HW262409  13.365  14.362   3.049
20193SOL     OW62410   8.062   8.257   7.457
20193SOL    HW162411   7.978   8.217   7.480
20193SOL    HW262412   8.065   8.338   7.509
20194SOL     OW62413  13.358  13.270   6.029
20194SOL    HW162414  13.328  13.204   5.966
20194SOL    HW262415  13.278  13.316   6.054
20195SOL     OW62416  11.235   5.552   5.717
20195SOL    HW162417  11.165   5.613   5.694
20195SOL    HW262418  11.263   5.515   5.633
20196SOL     OW62419  10.027  12.665   2.914
20196SOL    HW162420   9.945  12.712   2.930
20196SOL    HW262421  10.016  12.626   2.827
20197SOL     OW62422   7.140  14.526   3.920
20197SOL    HW162423   7.077  14.590   3.888
20197SOL    HW262424   7.087  14.461   3.967
20198SOL     OW62425  10.390  13.683   8.954
20198SOL    HW162426  10.459  13.697   8.889
20198SOL    HW262427  10.308  13.697   8.905
20199SOL     OW62428   6.025   0.076   5.053
20199SOL    HW162429   6.032   0.096   4.960
20199SOL    HW262430   6.105   0.111   5.092
20200SOL     OW62431   9.727   2.620  11.605
20200SOL    HW162432   9.715   2.649  11.696
20200SOL    HW262433   9.740   2.701  11.556
20201SOL     OW62434   0.837   1.124   1.540
20201SOL    HW162435   0.833   1.106   1.446
20201SOL    HW262436   0.870   1.043   1.579
20202SOL     OW62437   0.583   7.474   5.955
20202SOL    HW162438   0.652   7.540   5.963
20202SOL    HW262439   0.502   7.526   5.948
20203SOL     OW62440   9.364  12.084  10.838
20203SOL    HW162441   9.306  12.158  10.856
20203SOL    HW262442   9.305  12.016  10.805
20204SOL     OW62443   8.414   8.455   0.573
20204SOL    HW162444   8.407   8.465   0.668
20204SOL    HW262445   8.333   8.495   0.540
20205SOL     OW62446   7.515  14.021   3.595
20205SOL    HW162447   7.575  14.023   3.670
20205SOL    HW262448   7.479  14.110   3.591
20206SOL     OW62449   9.151   0.195  11.506
20206SOL    HW162450   9.095   0.262  11.546
20206SOL    HW262451   9.174   0.231  11.421
20207SOL     OW62452  14.314   5.243   8.511
20207SOL    HW162453  14.394   5.191   8.499
20207SOL    HW262454  14.279   5.215   8.595
20208SOL     OW62455   9.732  12.506   4.466
20208SOL    HW162456   9.818  12.526   4.503
20208SOL    HW262457   9.751  12.479   4.376
20209SOL     OW62458  11.568   3.752   9.331
20209SOL    HW162459  11.508   3.786   9.265
20209SOL    HW262460  11.526   3.773   9.414
20210SOL     OW62461  10.585   1.843  10.393
20210SOL    HW162462  10.627   1.788  10.460
20210SOL    HW262463  10.497   1.808  10.385
20211SOL     OW62464  12.316   5.115  12.449
20211SOL    HW162465  12.231   5.156  12.433
20211SOL    HW262466  12.379   5.186  12.434
20212SOL     OW62467  10.445   5.810  10.052
20212SOL    HW162468  10.406   5.767   9.976
20212SOL    HW262469  10.524   5.759  10.071
20213SOL     OW62470   0.306   7.916   7.079
20213SOL    HW162471   0.263   7.831   7.087
20213SOL    HW262472   0.363   7.921   7.156
20214SOL     OW62473   3.035   6.419  12.887
20214SOL    HW162474   2.956   6.405  12.835
20214SOL    HW262475   3.100   6.361  12.847
20215SOL     OW62476  14.818  13.463   4.502
20215SOL    HW162477  14.740  13.475   4.556
20215SOL    HW262478  14.802  13.517   4.425
20216SOL     OW62479   7.621  13.296  13.956
20216SOL    HW162480   7.544  13.324  13.906
20216SOL    HW262481   7.640  13.371  14.013
20217SOL     OW62482   7.434   2.753   1.994
20217SOL    HW162483   7.353   2.703   2.009
20217SOL    HW262484   7.425   2.784   1.903
20218SOL     OW62485   8.086   3.656   1.443
20218SOL    HW162486   8.174   3.660   1.407
20218SOL    HW262487   8.043   3.585   1.395
20219SOL     OW62488  10.926  10.022   1.562
20219SOL    HW162489  10.878   9.975   1.630
20219SOL    HW262490  11.016  10.025   1.593
20220SOL     OW62491   0.086   5.637   8.293
20220SOL    HW162492   0.061   5.588   8.214
20220SOL    HW262493   0.176   5.609   8.310
20221SOL     OW62494   4.952   0.045   3.156
20221SOL    HW162495   4.913   0.118   3.108
20221SOL    HW262496   4.911  14.842   3.119
20222SOL     OW62497   6.489   7.912   9.050
20222SOL    HW162498   6.481   7.843   8.984
20222SOL    HW262499   6.582   7.936   9.049
20223SOL     OW62500   5.475   2.219  13.125
20223SOL    HW162501   5.419   2.160  13.175
20223SOL    HW262502   5.487   2.295  13.182
20224SOL     OW62503   4.651  13.262   6.866
20224SOL    HW162504   4.568  13.297   6.835
20224SOL    HW262505   4.691  13.334   6.914
20225SOL     OW62506   7.298  11.245   8.980
20225SOL    HW162507   7.209  11.257   8.946
20225SOL    HW262508   7.301  11.303   9.057
20226SOL     OW62509   9.778  12.578  14.107
20226SOL    HW162510   9.848  12.600  14.045
20226SOL    HW262511   9.699  12.613  14.067
20227SOL     OW62512   2.508   7.100  13.332
20227SOL    HW162513   2.539   7.157  13.402
20227SOL    HW262514   2.584   7.046  13.310
20228SOL     OW62515   2.871   6.990   7.556
20228SOL    HW162516   2.903   7.075   7.585
20228SOL    HW262517   2.884   6.932   7.631
20229SOL     OW62518  13.170  11.564   7.474
20229SOL    HW162519  13.137  11.513   7.400
20229SOL    HW262520  13.107  11.636   7.483
20230SOL     OW62521  10.803  13.592  12.713
20230SOL    HW162522  10.878  13.648  12.733
20230SOL    HW262523  10.757  13.582  12.796
20231SOL     OW62524   3.832   4.663  10.111
20231SOL    HW162525   3.798   4.700  10.192
20231SOL    HW262526   3.766   4.684  10.045
20232SOL     OW62527  11.240   1.538  13.026
20232SOL    HW162528  11.199   1.468  12.975
20232SOL    HW262529  11.253   1.500  13.113
20233SOL     OW62530   2.830  12.136   2.213
20233SOL    HW162531   2.783  12.165   2.135
20233SOL    HW262532   2.761  12.110   2.274
20234SOL     OW62533  11.226  11.521   5.429
20234SOL    HW162534  11.188  11.441   5.465
20234SOL    HW262535  11.241  11.577   5.505
20235SOL     OW62536  10.034   0.303  12.180
20235SOL    HW162537  10.065   0.242  12.247
20235SOL    HW262538   9.942   0.319  12.203
20236SOL     OW62539  13.919   6.970   1.950
20236SOL    HW162540  13.839   6.928   1.918
20236SOL    HW262541  13.941   7.034   1.882
20237SOL     OW62542   1.744   6.341   7.986
20237SOL    HW162543   1.819   6.391   8.019
20237SOL    HW262544   1.678   6.348   8.055
20238SOL     OW62545  13.978   8.915   5.970
20238SOL    HW162546  13.907   8.853   5.951
20238SOL    HW262547  14.058   8.864   5.961
20239SOL     OW62548  14.145  14.534   4.403
20239SOL    HW162549  14.177  14.513   4.315
20239SOL    HW262550  14.211  14.496   4.462
20240SOL     OW62551   5.339  13.279  11.086
20240SOL    HW162552   5.345  13.356  11.029
20240SOL    HW262553   5.254  13.240  11.066
20241SOL     OW62554   9.250  13.671   6.130
20241SOL    HW162555   9.293  13.592   6.161
20241SOL    HW262556   9.304  13.701   6.057
20242SOL     OW62557   4.552   4.585   2.415
20242SOL    HW162558   4.512   4.521   2.355
20242SOL    HW262559   4.594   4.531   2.482
20243SOL     OW62560   0.216   4.942   2.923
20243SOL    HW162561   0.184   4.980   3.004
20243SOL    HW262562   0.143   4.890   2.890
20244SOL     OW62563   9.516   6.149   7.359
20244SOL    HW162564   9.602   6.109   7.344
20244SOL    HW262565   9.476   6.152   7.272
20245SOL     OW62566  14.548   3.946   8.301
20245SOL    HW162567  14.473   3.933   8.242
20245SOL    HW262568  14.624   3.943   8.243
20246SOL     OW62569   2.943  13.173   5.152
20246SOL    HW162570   2.997  13.244   5.118
20246SOL    HW262571   2.900  13.136   5.075
20247SOL     OW62572   4.338  11.275  10.760
20247SOL    HW162573   4.432  11.262  10.760
20247SOL    HW262574   4.302  11.193  10.793
20248SOL     OW62575   2.734   4.801   5.718
20248SOL    HW162576   2.828   4.820   5.714
20248SOL    HW262577   2.729   4.712   5.754
20249SOL     OW62578  11.241   2.124  13.604
20249SOL    HW162579  11.153   2.087  13.613
20249SOL    HW262580  11.227   2.211  13.566
20250SOL     OW62581   7.227   1.135   7.876
20250SOL    HW162582   7.207   1.067   7.812
20250SOL    HW262583   7.177   1.211   7.846
20251SOL     OW62584  10.230   0.476  10.022
20251SOL    HW162585  10.183   0.432  10.092
20251SOL    HW262586  10.162   0.523   9.974
20252SOL     OW62587  10.530  14.816  13.305
20252SOL    HW162588  10.586  14.744  13.336
20252SOL    HW262589  10.516  14.871  13.382
20253SOL     OW62590  11.361   2.511   7.768
20253SOL    HW162591  11.385   2.441   7.829
20253SOL    HW262592  11.313   2.467   7.699
20254SOL     OW62593   9.893   9.825   7.497
20254SOL    HW162594   9.912   9.859   7.410
20254SOL    HW262595   9.939   9.741   7.501
20255SOL     OW62596   6.708   0.742   7.372
20255SOL    HW162597   6.775   0.687   7.331
20255SOL    HW262598   6.719   0.828   7.331
20256SOL     OW62599  11.313   9.298  11.044
20256SOL    HW162600  11.325   9.212  11.085
20256SOL    HW262601  11.224   9.323  11.068
20257SOL     OW62602   3.491   9.497   6.568
20257SOL    HW162603   3.468   9.417   6.521
20257SOL    HW262604   3.572   9.474   6.614
20258SOL     OW62605  11.984   9.914   4.378
20258SOL    HW162606  11.954   9.892   4.291
20258SOL    HW262607  12.033   9.996   4.367
20259SOL     OW62608   0.129  10.362  14.107
20259SOL    HW162609   0.168  10.425  14.046
20259SOL    HW262610   0.176  10.281  14.090
20260SOL     OW62611   7.652   5.608  13.994
20260SOL    HW162612   7.637   5.702  13.997
20260SOL    HW262613   7.596   5.577  13.922
20261SOL     OW62614   4.174   3.261  12.902
20261SOL    HW162615   4.187   3.255  12.996
20261SOL    HW262616   4.234   3.330  12.874
20262SOL     OW62617   6.869  14.668   8.080
20262SOL    HW162618   6.945  14.611   8.093
20262SOL    HW262619   6.867  14.685   7.986
20263SOL     OW62620  10.763   0.024   1.255
20263SOL    HW162621  10.735  14.819   1.297
20263SOL    HW262622  10.823   0.064   1.319
20264SOL     OW62623   7.235   9.745  11.726
20264SOL    HW162624   7.151   9.775  11.690
20264SOL    HW262625   7.223   9.749  11.821
20265SOL     OW62626  11.834   8.991   0.030
20265SOL    HW162627  11.858   9.066  14.850
20265SOL    HW262628  11.761   9.023   0.083
20266SOL     OW62629   6.166   9.289   9.363
20266SOL    HW162630   6.185   9.280   9.456
20266SOL    HW262631   6.187   9.380   9.342
20267SOL     OW62632   2.370  10.129   2.028
20267SOL    HW162633   2.427  10.194   2.069
20267SOL    HW262634   2.418  10.102   1.949
20268SOL     OW62635   7.583   2.506   3.364
20268SOL    HW162636   7.636   2.585   3.369
20268SOL    HW262637   7.605   2.457   3.444
20269SOL     OW62638   8.712   1.237  14.389
20269SOL    HW162639   8.731   1.315  14.335
20269SOL    HW262640   8.625   1.254  14.425
20270SOL     OW62641   5.792  14.084   4.264
20270SOL    HW162642   5.778  14.140   4.188
20270SOL    HW262643   5.887  14.068   4.265
20271SOL     OW62644  10.355   0.260  11.542
20271SOL    HW162645  10.312   0.292  11.462
20271SOL    HW262646  10.410   0.188  11.512
20272SOL     OW62647   6.686  12.776   2.997
20272SOL    HW162648   6.606  12.775   2.945
20272SOL    HW262649   6.725  12.862   2.980
20273SOL     OW62650  11.893  14.680  11.620
20273SOL    HW162651  11.873  14.636  11.537
20273SOL    HW262652  11.957  14.747  11.596
20274SOL     OW62653   3.204  13.760  10.007
20274SOL    HW162654   3.184  13.819  10.080
20274SOL    HW262655   3.180  13.673  10.039
20275SOL     OW62656   8.276   3.738   0.887
20275SOL    HW162657   8.199   3.681   0.885
20275SOL    HW262658   8.244   3.820   0.925
20276SOL     OW62659   9.738   5.746  11.146
20276SOL    HW162660   9.830   5.761  11.168
20276SOL    HW262661   9.739   5.668  11.091
20277SOL     OW62662   5.854  12.508  12.240
20277SOL    HW162663   5.764  12.533  12.217
20277SOL    HW262664   5.855  12.508  12.336
20278SOL     OW62665   2.324   1.047   5.312
20278SOL    HW162666   2.358   1.044   5.222
20278SOL    HW262667   2.345   0.961   5.348
20279SOL     OW62668   1.683  12.282   8.652
20279SOL    HW162669   1.628  12.207   8.630
20279SOL    HW262670   1.766  12.243   8.679
20280SOL     OW62671   5.009  10.880   7.835
20280SOL    HW162672   4.922  10.877   7.795
20280SOL    HW262673   5.062  10.932   7.774
20281SOL     OW62674   2.994   2.958   3.976
20281SOL    HW162675   2.900   2.937   3.980
20281SOL    HW262676   3.037   2.873   3.968
20282SOL     OW62677   1.902   4.726   7.608
20282SOL    HW162678   1.980   4.674   7.591
20282SOL    HW262679   1.830   4.670   7.579
20283SOL     OW62680   4.381   2.645  10.680
20283SOL    HW162681   4.454   2.629  10.739
20283SOL    HW262682   4.311   2.588  10.711
20284SOL     OW62683  13.211   4.632  10.882
20284SOL    HW162684  13.268   4.597  10.813
20284SOL    HW262685  13.198   4.724  10.858
20285SOL     OW62686  12.150   0.099   3.511
20285SOL    HW162687  12.094   0.054   3.449
20285SOL    HW262688  12.099   0.104   3.592
20286SOL     OW62689   2.125   1.713   5.407
20286SOL    HW162690   2.090   1.632   5.445
20286SOL    HW262691   2.048   1.770   5.399
20287SOL     OW62692   6.964   7.338   5.702
20287SOL    HW162693   6.975   7.307   5.792
20287SOL    HW262694   6.895   7.404   5.707
20288SOL     OW62695   1.316   8.712   7.928
20288SOL    HW162696   1.338   8.803   7.947
20288SOL    HW262697   1.224   8.715   7.903
20289SOL     OW62698   7.414  13.308   9.812
20289SOL    HW162699   7.502  13.275   9.832
20289SOL    HW262700   7.402  13.289   9.719
20290SOL     OW62701   9.912  14.809   6.195
20290SOL    HW162702   9.873  14.724   6.215
20290SOL    HW262703   9.948  14.799   6.107
20291SOL     OW62704  11.978   9.251  11.706
20291SOL    HW162705  11.917   9.218  11.640
20291SOL    HW262706  11.984   9.180  11.770
20292SOL     OW62707  14.086  14.834  10.641
20292SOL    HW162708  14.094  14.772  10.569
20292SOL    HW262709  14.033  14.788  10.707
20293SOL     OW62710  10.470   6.428   7.636
20293SOL    HW162711  10.493   6.486   7.708
20293SOL    HW262712  10.465   6.486   7.560
20294SOL     OW62713   9.791  14.642   1.290
20294SOL    HW162714   9.727  14.613   1.355
20294SOL    HW262715   9.773  14.735   1.279
20295SOL     OW62716   2.908  14.127   5.801
20295SOL    HW162717   2.946  14.210   5.772
20295SOL    HW262718   2.847  14.151   5.871
20296SOL     OW62719  11.939  11.358   4.996
20296SOL    HW162720  12.020  11.403   5.018
20296SOL    HW262721  11.919  11.304   5.073
20297SOL     OW62722   4.131   5.146   8.481
20297SOL    HW162723   4.101   5.106   8.563
20297SOL    HW262724   4.051   5.169   8.434
20298SOL     OW62725   2.246  13.339  14.186
20298SOL    HW162726   2.255  13.326  14.280
20298SOL    HW262727   2.326  13.303  14.149
20299SOL     OW62728  10.022   0.070  10.886
20299SOL    HW162729  10.029   0.113  10.971
20299SOL    HW262730  10.066   0.130  10.825
20300SOL     OW62731  10.778   7.390   8.547
20300SOL    HW162732  10.781   7.307   8.593
20300SOL    HW262733  10.689   7.423   8.563
20301SOL     OW62734   6.356   1.573  14.023
20301SOL    HW162735   6.395   1.628  14.090
20301SOL    HW262736   6.266   1.558  14.053
20302SOL     OW62737   0.669  14.223   7.109
20302SOL    HW162738   0.672  14.156   7.176
20302SOL    HW262739   0.666  14.306   7.157
20303SOL     OW62740  13.225   0.558  11.225
20303SOL    HW162741  13.145   0.604  11.248
20303SOL    HW262742  13.259   0.524  11.309
20304SOL     OW62743   3.100   0.181   9.464
20304SOL    HW162744   3.168   0.154   9.401
20304SOL    HW262745   3.020   0.184   9.412
20305SOL     OW62746   0.224  11.106   6.174
20305SOL    HW162747   0.218  11.163   6.250
20305SOL    HW262748   0.314  11.072   6.178
20306SOL     OW62749   5.393  14.675   5.657
20306SOL    HW162750   5.436  14.636   5.733
20306SOL    HW262751   5.461  14.680   5.590
20307SOL     OW62752  12.280   3.355   4.751
20307SOL    HW162753  12.333   3.409   4.809
20307SOL    HW262754  12.229   3.299   4.809
20308SOL     OW62755  10.845  12.086   2.993
20308SOL    HW162756  10.785  12.076   3.067
20308SOL    HW262757  10.891  12.168   3.010
20309SOL     OW62758  11.443  13.252   8.583
20309SOL    HW162759  11.397  13.333   8.602
20309SOL    HW262760  11.531  13.265   8.617
20310SOL     OW62761  13.477   1.060  11.212
20310SOL    HW162762  13.471   1.149  11.247
20310SOL    HW262763  13.487   1.072  11.118
20311SOL     OW62764   6.306  14.850   9.140
20311SOL    HW162765   6.212  14.850   9.160
20311SOL    HW262766   6.316  14.780   9.076
20312SOL     OW62767   3.594  13.726   2.796
20312SOL    HW162768   3.569  13.818   2.791
20312SOL    HW262769   3.689  13.727   2.804
20313SOL     OW62770   7.991   4.452   9.982
20313SOL    HW162771   7.902   4.447   9.946
20313SOL    HW262772   7.988   4.527  10.042
20314SOL     OW62773  10.371   6.717   1.888
20314SOL    HW162774  10.277   6.730   1.875
20314SOL    HW262775  10.404   6.694   1.801
20315SOL     OW62776   9.193  11.560  12.624
20315SOL    HW162777   9.195  11.465  12.622
20315SOL    HW262778   9.153  11.582  12.709
20316SOL     OW62779  14.656  10.024  11.262
20316SOL    HW162780  14.583  10.047  11.204
20316SOL    HW262781  14.704  10.106  11.275
20317SOL     OW62782   5.497   4.245  11.666
20317SOL    HW162783   5.588   4.230  11.691
20317SOL    HW262784   5.469   4.319  11.720
20318SOL     OW62785  14.026   1.694   3.557
20318SOL    HW162786  13.987   1.616   3.597
20318SOL    HW262787  14.118   1.689   3.580
20319SOL     OW62788  14.531   1.761  11.039
20319SOL    HW162789  14.543   1.773  10.945
20319SOL    HW262790  14.440   1.786  11.055
20320SOL     OW62791  12.728   2.944  12.951
20320SOL    HW162792  12.666   3.013  12.929
20320SOL    HW262793  12.673   2.867  12.966
20321SOL     OW62794   2.743   1.571   2.994
20321SOL    HW162795   2.724   1.665   2.990
20321SOL    HW262796   2.680   1.532   2.933
20322SOL     OW62797   5.567  11.495  13.421
20322SOL    HW162798   5.628  11.568  13.413
20322SOL    HW262799   5.484  11.536  13.447
20323SOL     OW62800   5.233  13.801   9.038
20323SOL    HW162801   5.172  13.854   9.090
20323SOL    HW262802   5.243  13.850   8.956
20324SOL     OW62803  13.952   4.042   7.973
20324SOL    HW162804  13.889   4.013   8.038
20324SOL    HW262805  14.027   4.073   8.024
20325SOL     OW62806  14.450  11.002  10.656
20325SOL    HW162807  14.378  10.998  10.593
20325SOL    HW262808  14.407  11.011  10.741
20326SOL     OW62809   1.489   4.195   8.941
20326SOL    HW162810   1.515   4.231   9.026
20326SOL    HW262811   1.571   4.175   8.897
20327SOL     OW62812  11.100   9.730   6.769
20327SOL    HW162813  11.008   9.719   6.793
20327SOL    HW262814  11.100   9.803   6.707
20328SOL     OW62815   2.288   1.301   8.995
20328SOL    HW162816   2.255   1.237   9.058
20328SOL    HW262817   2.235   1.379   9.009
20329SOL     OW62818   7.929  11.018  13.736
20329SOL    HW162819   7.895  10.933  13.708
20329SOL    HW262820   7.999  10.997  13.798
20330SOL     OW62821   5.131   7.293   7.178
20330SOL    HW162822   5.134   7.389   7.173
20330SOL    HW262823   5.221   7.267   7.193
20331SOL     OW62824   6.096  10.872  13.014
20331SOL    HW162825   6.055  10.855  13.099
20331SOL    HW262826   6.176  10.819  13.016
20332SOL     OW62827   3.087   3.483  13.591
20332SOL    HW162828   3.115   3.514  13.505
20332SOL    HW262829   2.999   3.447  13.576
20333SOL     OW62830  10.587   3.165   2.719
20333SOL    HW162831  10.521   3.223   2.757
20333SOL    HW262832  10.650   3.151   2.790
20334SOL     OW62833   1.631   8.521   8.839
20334SOL    HW162834   1.718   8.557   8.857
20334SOL    HW262835   1.600   8.569   8.762
20335SOL     OW62836   9.081   7.975  13.440
20335SOL    HW162837   9.049   8.016  13.520
20335SOL    HW262838   9.113   8.047  13.386
20336SOL     OW62839   3.393   8.574  11.688
20336SOL    HW162840   3.484   8.553  11.710
20336SOL    HW262841   3.395   8.590  11.593
20337SOL     OW62842   5.300  13.317   6.025
20337SOL    HW162843   5.254  13.326   6.109
20337SOL    HW262844   5.391  13.341   6.044
20338SOL     OW62845   3.452  11.596  12.551
20338SOL    HW162846   3.382  11.656  12.524
20338SOL    HW262847   3.503  11.645  12.615
20339SOL     OW62848   7.151  14.091   4.146
20339SOL    HW162849   7.133  14.161   4.209
20339SOL    HW262850   7.149  14.134   4.061
20340SOL     OW62851   6.554   4.701   7.916
20340SOL    HW162852   6.609   4.637   7.870
20340SOL    HW262853   6.616   4.752   7.968
20341SOL     OW62854   4.372   6.052   3.331
20341SOL    HW162855   4.409   6.137   3.307
20341SOL    HW262856   4.447   5.992   3.333
20342SOL     OW62857   4.593   0.773  10.391
20342SOL    HW162858   4.558   0.778  10.302
20342SOL    HW262859   4.688   0.768  10.379
20343SOL     OW62860   8.397   4.656  10.070
20343SOL    HW162861   8.356   4.714  10.135
20343SOL    HW262862   8.377   4.568  10.100
20344SOL     OW62863   9.177   8.819   8.923
20344SOL    HW162864   9.130   8.740   8.896
20344SOL    HW262865   9.219   8.795   9.006
20345SOL     OW62866   8.277  12.833  12.518
20345SOL    HW162867   8.279  12.903  12.583
20345SOL    HW262868   8.228  12.762  12.561
20346SOL     OW62869   8.822   6.483  12.229
20346SOL    HW162870   8.770   6.550  12.273
20346SOL    HW262871   8.783   6.400  12.256
20347SOL     OW62872  13.682   6.158   3.891
20347SOL    HW162873  13.744   6.085   3.897
20347SOL    HW262874  13.733   6.235   3.917
20348SOL     OW62875   7.513   5.956   1.168
20348SOL    HW162876   7.499   6.007   1.247
20348SOL    HW262877   7.533   6.022   1.101
20349SOL     OW62878  14.569  14.388  12.671
20349SOL    HW162879  14.536  14.334  12.743
20349SOL    HW262880  14.496  14.393  12.609
20350SOL     OW62881   8.355   3.805   8.034
20350SOL    HW162882   8.288   3.841   7.977
20350SOL    HW262883   8.342   3.710   8.030
20351SOL     OW62884  11.302   4.388   2.110
20351SOL    HW162885  11.296   4.436   2.028
20351SOL    HW262886  11.392   4.399   2.138
20352SOL     OW62887  13.903   3.029  13.303
20352SOL    HW162888  13.959   3.086  13.356
20352SOL    HW262889  13.941   2.942  13.313
20353SOL     OW62890  11.513  11.498  11.974
20353SOL    HW162891  11.455  11.485  11.899
20353SOL    HW262892  11.454  11.511  12.048
20354SOL     OW62893   0.862   4.351   3.111
20354SOL    HW162894   0.925   4.331   3.180
20354SOL    HW262895   0.886   4.438   3.080
20355SOL     OW62896   7.653  11.993   9.464
20355SOL    HW162897   7.560  11.973   9.470
20355SOL    HW262898   7.674  11.982   9.372
20356SOL     OW62899  11.013  11.616   3.187
20356SOL    HW162900  11.002  11.528   3.222
20356SOL    HW262901  10.941  11.666   3.226
20357SOL     OW62902  10.031   3.243   3.736
20357SOL    HW162903  10.019   3.338   3.727
20357SOL    HW262904  10.008   3.208   3.650
20358SOL     OW62905   4.673  13.307   9.871
20358SOL    HW162906   4.607  13.253   9.915
20358SOL    HW262907   4.693  13.260   9.790
20359SOL     OW62908   0.822  11.708   7.110
20359SOL    HW162909   0.763  11.751   7.047
20359SOL    HW262910   0.906  11.751   7.098
20360SOL     OW62911   2.210   2.225  10.418
20360SOL    HW162912   2.263   2.304  10.425
20360SOL    HW262913   2.266   2.155  10.448
20361SOL     OW62914   0.970  13.897   5.877
20361SOL    HW162915   0.954  13.992   5.884
20361SOL    HW262916   0.954  13.864   5.966
20362SOL     OW62917   5.043   8.879   8.004
20362SOL    HW162918   5.113   8.815   7.990
20362SOL    HW262919   5.035   8.926   7.921
20363SOL     OW62920  11.448   3.916   3.179
20363SOL    HW162921  11.504   3.975   3.128
20363SOL    HW262922  11.408   3.972   3.245
20364SOL     OW62923   3.870   2.728   4.024
20364SOL    HW162924   3.782   2.720   4.059
20364SOL    HW262925   3.894   2.639   3.998
20365SOL     OW62926   8.648   9.318  12.882
20365SOL    HW162927   8.567   9.270  12.903
20365SOL    HW262928   8.653   9.385  12.950
20366SOL     OW62929  14.541   5.030  14.534
20366SOL    HW162930  14.558   4.993  14.620
20366SOL    HW262931  14.522   5.123  14.550
20367SOL     OW62932   6.456   1.358  10.901
20367SOL    HW162933   6.411   1.383  10.981
20367SOL    HW262934   6.544   1.394  10.910
20368SOL     OW62935   7.305   5.780   4.186
20368SOL    HW162936   7.329   5.688   4.187
20368SOL    HW262937   7.353   5.818   4.260
20369SOL     OW62938   0.122  11.299  14.268
20369SOL    HW162939   0.097  11.214  14.230
20369SOL    HW262940   0.152  11.278  14.356
20370SOL     OW62941   3.125   6.406   2.093
20370SOL    HW162942   3.142   6.337   2.028
20370SOL    HW262943   3.200   6.401   2.153
20371SOL     OW62944  12.858  10.238   0.003
20371SOL    HW162945  12.951  10.231  14.860
20371SOL    HW262946  12.845  10.183   0.080
20372SOL     OW62947  13.361  12.083   9.934
20372SOL    HW162948  13.334  12.028   9.861
20372SOL    HW262949  13.457  12.086   9.928
20373SOL     OW62950  14.452  11.380   6.794
20373SOL    HW162951  14.370  11.356   6.839
20373SOL    HW262952  14.467  11.308   6.732
20374SOL     OW62953  11.249  13.039  13.991
20374SOL    HW162954  11.314  12.972  14.011
20374SOL    HW262955  11.300  13.115  13.962
20375SOL     OW62956   5.777   6.345   1.379
20375SOL    HW162957   5.720   6.400   1.325
20375SOL    HW262958   5.734   6.345   1.465
20376SOL     OW62959  14.142   3.920   6.328
20376SOL    HW162960  14.050   3.917   6.354
20376SOL    HW262961  14.149   3.998   6.274
20377SOL     OW62962   4.033   2.009  11.737
20377SOL    HW162963   4.078   1.955  11.803
20377SOL    HW262964   4.034   1.956  11.658
20378SOL     OW62965  10.104  13.465   5.123
20378SOL    HW162966  10.112  13.560   5.119
20378SOL    HW262967  10.084  13.439   5.033
20379SOL     OW62968  11.293  13.242   1.589
20379SOL    HW162969  11.358  13.220   1.523
20379SOL    HW262970  11.241  13.162   1.600
20380SOL     OW62971   4.858   9.399   5.227
20380SOL    HW162972   4.886   9.309   5.246
20380SOL    HW262973   4.804   9.424   5.302
20381SOL     OW62974   6.388   8.648   1.507
20381SOL    HW162975   6.323   8.638   1.438
20381SOL    HW262976   6.448   8.574   1.495
20382SOL     OW62977   2.641   4.943   1.472
20382SOL    HW162978   2.652   5.010   1.404
20382SOL    HW262979   2.590   4.987   1.540
20383SOL     OW62980   6.207   0.978   1.087
20383SOL    HW162981   6.197   1.002   1.178
20383SOL    HW262982   6.146   0.905   1.074
20384SOL     OW62983   7.228  10.771   2.743
20384SOL    HW162984   7.256  10.759   2.653
20384SOL    HW262985   7.201  10.862   2.749
20385SOL     OW62986   6.725   8.004  10.629
20385SOL    HW162987   6.821   8.006  10.626
20385SOL    HW262988   6.704   8.029  10.719
20386SOL     OW62989   8.571  12.925  14.647
20386SOL    HW162990   8.512  12.968  14.709
20386SOL    HW262991   8.659  12.951  14.675
20387SOL     OW62992  13.386   9.012   6.805
20387SOL    HW162993  13.457   9.071   6.780
20387SOL    HW262994  13.350   8.982   6.722
20388SOL     OW62995  12.613   9.778   0.164
20388SOL    HW162996  12.652   9.691   0.172
20388SOL    HW262997  12.519   9.762   0.159
20389SOL     OW62998   1.062  13.925   8.211
20389SOL    HW162999   1.045  13.906   8.303
20389SOL    HW263000   0.987  13.978   8.183
20390SOL     OW63001  11.092  14.061   6.819
20390SOL    HW163002  11.167  14.004   6.836
20390SOL    HW263003  11.107  14.139   6.872
20391SOL     OW63004  12.722   2.863   5.050
20391SOL    HW163005  12.790   2.923   5.019
20391SOL    HW263006  12.726   2.789   4.989
20392SOL     OW63007  10.765   9.568  10.040
20392SOL    HW163008  10.757   9.490  10.093
20392SOL    HW263009  10.839   9.550   9.982
20393SOL     OW63010   3.041   7.767   7.797
20393SOL    HW163011   2.990   7.689   7.774
20393SOL    HW263012   2.978   7.824   7.842
20394SOL     OW63013  10.335  10.392   6.176
20394SOL    HW163014  10.304  10.476   6.209
20394SOL    HW263015  10.272  10.369   6.108
20395SOL     OW63016  11.670   0.645   2.048
20395SOL    HW163017  11.758   0.668   2.076
20395SOL    HW263018  11.656   0.557   2.082
20396SOL     OW63019  14.667   4.933   8.129
20396SOL    HW163020  14.635   5.009   8.178
20396SOL    HW263021  14.711   4.879   8.195
20397SOL     OW63022   0.657   9.425   2.229
20397SOL    HW163023   0.737   9.421   2.176
20397SOL    HW263024   0.652   9.515   2.259
20398SOL     OW63025  11.478   8.328   1.101
20398SOL    HW163026  11.507   8.369   1.182
20398SOL    HW263027  11.457   8.238   1.125
20399SOL     OW63028   2.809   9.188  14.329
20399SOL    HW163029   2.850   9.102  14.330
20399SOL    HW263030   2.846   9.232  14.252
20400SOL     OW63031   0.084   9.467   8.252
20400SOL    HW163032   0.066   9.434   8.164
20400SOL    HW263033   0.048   9.401   8.311
20401SOL     OW63034   5.531   3.333   2.371
20401SOL    HW163035   5.519   3.298   2.282
20401SOL    HW263036   5.563   3.422   2.357
20402SOL     OW63037   9.707   6.546  12.747
20402SOL    HW163038   9.772   6.578  12.809
20402SOL    HW263039   9.623   6.554  12.792
20403SOL     OW63040   0.314   7.362   5.826
20403SOL    HW163041   0.399   7.339   5.788
20403SOL    HW263042   0.329   7.446   5.870
20404SOL     OW63043   3.824  14.283   2.241
20404SOL    HW163044   3.751  14.344   2.250
20404SOL    HW263045   3.783  14.196   2.239
20405SOL     OW63046   4.577  14.396   2.390
20405SOL    HW163047   4.517  14.445   2.334
20405SOL    HW263048   4.663  14.408   2.351
20406SOL     OW63049  14.099  11.952  14.381
20406SOL    HW163050  14.186  11.979  14.412
20406SOL    HW263051  14.067  12.027  14.330
20407SOL     OW63052  10.685   3.921   0.497
20407SOL    HW163053  10.609   3.955   0.544
20407SOL    HW263054  10.648   3.870   0.425
20408SOL     OW63055   9.248  11.552   9.082
20408SOL    HW163056   9.323  11.599   9.119
20408SOL    HW263057   9.199  11.618   9.034
20409SOL     OW63058   5.448   7.499   4.405
20409SOL    HW163059   5.381   7.433   4.422
20409SOL    HW263060   5.405   7.563   4.348
20410SOL     OW63061  11.877  13.253   4.521
20410SOL    HW163062  11.855  13.171   4.477
20410SOL    HW263063  11.946  13.292   4.467
20411SOL     OW63064  12.124  10.775  10.473
20411SOL    HW163065  12.185  10.718  10.427
20411SOL    HW263066  12.170  10.859  10.480
20412SOL     OW63067   8.411   0.705   7.185
20412SOL    HW163068   8.453   0.641   7.241
20412SOL    HW263069   8.391   0.657   7.104
20413SOL     OW63070   8.884  11.871  11.675
20413SOL    HW163071   8.876  11.867  11.770
20413SOL    HW263072   8.856  11.785  11.644
20414SOL     OW63073   0.519   4.332   5.455
20414SOL    HW163074   0.441   4.381   5.482
20414SOL    HW263075   0.496   4.240   5.471
20415SOL     OW63076   2.707  13.212   3.592
20415SOL    HW163077   2.700  13.208   3.687
20415SOL    HW263078   2.622  13.183   3.560
20416SOL     OW63079   4.650   2.233  12.210
20416SOL    HW163080   4.637   2.282  12.291
20416SOL    HW263081   4.603   2.151  12.224
20417SOL     OW63082  13.522  12.285   4.985
20417SOL    HW163083  13.593  12.324   5.036
20417SOL    HW263084  13.445  12.337   5.008
20418SOL     OW63085  12.056   9.067   1.412
20418SOL    HW163086  12.101   9.118   1.479
20418SOL    HW263087  11.997   9.129   1.370
20419SOL     OW63088   1.262   8.499   9.519
20419SOL    HW163089   1.195   8.443   9.478
20419SOL    HW263090   1.342   8.480   9.470
20420SOL     OW63091  13.934  10.542  10.556
20420SOL    HW163092  13.908  10.584  10.638
20420SOL    HW263093  13.855  10.544  10.502
20421SOL     OW63094   1.513   3.671   9.941
20421SOL    HW163095   1.499   3.727  10.018
20421SOL    HW263096   1.428   3.670   9.897
20422SOL     OW63097   7.921   1.439  13.994
20422SOL    HW163098   7.969   1.412  13.916
20422SOL    HW263099   7.901   1.358  14.040
20423SOL     OW63100   1.339   2.309   7.463
20423SOL    HW163101   1.399   2.280   7.394
20423SOL    HW263102   1.255   2.321   7.419
20424SOL     OW63103  11.775   9.887   3.902
20424SOL    HW163104  11.867   9.877   3.876
20424SOL    HW263105  11.729   9.903   3.819
20425SOL     OW63106   7.290  10.505   2.976
20425SOL    HW163107   7.348  10.581   2.974
20425SOL    HW263108   7.324  10.446   2.908
20426SOL     OW63109  13.952  10.267   7.983
20426SOL    HW163110  14.009  10.231   7.915
20426SOL    HW263111  13.909  10.342   7.942
20427SOL     OW63112   4.378  11.955  13.495
20427SOL    HW163113   4.331  11.874  13.514
20427SOL    HW263114   4.310  12.022  13.493
20428SOL     OW63115  13.743   2.039   8.089
20428SOL    HW163116  13.705   2.122   8.118
20428SOL    HW263117  13.747   1.986   8.169
20429SOL     OW63118  12.645  10.813  14.868
20429SOL    HW163119  12.715  10.824  14.804
20429SOL    HW263120  12.690  10.787   0.072
20430SOL     OW63121   9.005   4.552   2.229
20430SOL    HW163122   8.954   4.560   2.148
20430SOL    HW263123   9.062   4.476   2.213
20431SOL     OW63124  14.104  14.687   8.394
20431SOL    HW163125  14.067  14.731   8.318
20431SOL    HW263126  14.135  14.758   8.450
20432SOL     OW63127   0.599   9.379  13.920
20432SOL    HW163128   0.635   9.467  13.932
20432SOL    HW263129   0.544   9.365  13.997
20433SOL     OW63130   5.123   5.618   0.777
20433SOL    HW163131   5.210   5.581   0.767
20433SOL    HW263132   5.134   5.690   0.839
20434SOL     OW63133   0.036   3.798  10.849
20434SOL    HW163134  14.825   3.794  10.888
20434SOL    HW263135   0.039   3.883  10.804
20435SOL     OW63136  11.941   8.892  14.118
20435SOL    HW163137  12.016   8.851  14.075
20435SOL    HW263138  11.978   8.934  14.195
20436SOL     OW63139   1.845  13.196  10.452
20436SOL    HW163140   1.885  13.272  10.495
20436SOL    HW263141   1.898  13.122  10.481
20437SOL     OW63142  11.651   8.344   8.353
20437SOL    HW163143  11.563   8.373   8.377
20437SOL    HW263144  11.667   8.383   8.267
20438SOL     OW63145   6.788  12.660   4.617
20438SOL    HW163146   6.796  12.604   4.540
20438SOL    HW263147   6.879  12.679   4.641
20439SOL     OW63148   3.179   7.663  13.937
20439SOL    HW163149   3.093   7.704  13.940
20439SOL    HW263150   3.190   7.622  14.023
20440SOL     OW63151   4.558   4.692   9.530
20440SOL    HW163152   4.619   4.624   9.558
20440SOL    HW263153   4.607   4.774   9.538
20441SOL     OW63154   7.303   5.873   7.975
20441SOL    HW163155   7.370   5.920   7.926
20441SOL    HW263156   7.291   5.925   8.055
20442SOL     OW63157   7.328   9.343   9.825
20442SOL    HW163158   7.352   9.250   9.821
20442SOL    HW263159   7.243   9.344   9.868
20443SOL     OW63160  14.427  14.613  13.965
20443SOL    HW163161  14.376  14.641  13.889
20443SOL    HW263162  14.367  14.561  14.017
20444SOL     OW63163   7.440  14.028   4.925
20444SOL    HW163164   7.522  14.030   4.975
20444SOL    HW263165   7.373  14.011   4.991
20445SOL     OW63166   3.763  10.878   4.182
20445SOL    HW163167   3.840  10.821   4.182
20445SOL    HW263168   3.796  10.963   4.208
20446SOL     OW63169   3.120   3.351   5.753
20446SOL    HW163170   3.090   3.277   5.806
20446SOL    HW263171   3.203   3.323   5.717
20447SOL     OW63172   9.312   6.987  12.099
20447SOL    HW163173   9.373   7.001  12.027
20447SOL    HW263174   9.320   7.065  12.153
20448SOL     OW63175  11.562   0.397   1.172
20448SOL    HW163176  11.646   0.377   1.213
20448SOL    HW263177  11.562   0.492   1.160
20449SOL     OW63178   1.956  13.998   7.980
20449SOL    HW163179   1.927  14.021   8.069
20449SOL    HW263180   1.878  13.962   7.938
20450SOL     OW63181   4.724   4.212   1.846
20450SOL    HW163182   4.705   4.217   1.752
20450SOL    HW263183   4.788   4.281   1.862
20451SOL     OW63184   3.828   6.760  10.406
20451SOL    HW163185   3.897   6.766  10.340
20451SOL    HW263186   3.783   6.844  10.402
20452SOL     OW63187   8.253   0.329   3.833
20452SOL    HW163188   8.336   0.359   3.871
20452SOL    HW263189   8.198   0.308   3.909
20453SOL     OW63190   3.693  13.050   0.992
20453SOL    HW163191   3.627  12.983   0.974
20453SOL    HW263192   3.719  13.082   0.905
20454SOL     OW63193  14.261   8.200   6.854
20454SOL    HW163194  14.268   8.270   6.789
20454SOL    HW263195  14.190   8.228   6.912
20455SOL     OW63196  12.957  14.380  14.409
20455SOL    HW163197  12.993  14.461  14.373
20455SOL    HW263198  12.885  14.358  14.351
20456SOL     OW63199  14.744   6.270   4.479
20456SOL    HW163200  14.768   6.301   4.392
20456SOL    HW263201  14.740   6.349   4.533
20457SOL     OW63202  14.419  11.529   9.432
20457SOL    HW163203  14.366  11.581   9.372
20457SOL    HW263204  14.365  11.452   9.452
20458SOL     OW63205   4.856   7.714   2.016
20458SOL    HW163206   4.816   7.797   2.042
20458SOL    HW263207   4.782   7.658   1.991
20459SOL     OW63208   8.796   1.354   5.577
20459SOL    HW163209   8.846   1.329   5.654
20459SOL    HW263210   8.826   1.295   5.508
20460SOL     OW63211  10.868   4.911   6.288
20460SOL    HW163212  10.808   4.869   6.350
20460SOL    HW263213  10.860   4.858   6.209
20461SOL     OW63214   9.604   9.597   5.007
20461SOL    HW163215   9.682   9.545   4.987
20461SOL    HW263216   9.538   9.563   4.947
20462SOL     OW63217   2.492   7.604   4.597
20462SOL    HW163218   2.528   7.687   4.628
20462SOL    HW263219   2.462   7.622   4.508
20463SOL     OW63220   7.108   9.143   4.680
20463SOL    HW163221   7.154   9.220   4.648
20463SOL    HW263222   7.055   9.174   4.753
20464SOL     OW63223  12.798   5.288  12.165
20464SOL    HW163224  12.771   5.211  12.216
20464SOL    HW263225  12.720   5.315  12.118
20465SOL     OW63226  11.383   5.832  14.280
20465SOL    HW163227  11.369   5.894  14.352
20465SOL    HW263228  11.474   5.805  14.288
20466SOL     OW63229  10.698   0.011   2.533
20466SOL    HW163230  10.718  14.819   2.469
20466SOL    HW263231  10.714  14.846   2.617
20467SOL     OW63232   0.485   6.340  11.689
20467SOL    HW163233   0.434   6.288  11.751
20467SOL    HW263234   0.573   6.302  11.693
20468SOL     OW63235   4.829   2.451  10.769
20468SOL    HW163236   4.860   2.459  10.679
20468SOL    HW263237   4.759   2.517  10.776
20469SOL     OW63238  14.842  11.357   0.015
20469SOL    HW163239  14.842  11.410  14.811
20469SOL    HW263240  14.853  11.420   0.086
20470SOL     OW63241   4.736   7.105   4.326
20470SOL    HW163242   4.674   7.032   4.336
20470SOL    HW263243   4.785   7.084   4.246
20471SOL     OW63244   7.507  11.047   0.038
20471SOL    HW163245   7.547  11.110  14.855
20471SOL    HW263246   7.420  11.083   0.058
20472SOL     OW63247  11.932   5.840   1.466
20472SOL    HW163248  12.000   5.875   1.409
20472SOL    HW263249  11.881   5.780   1.411
20473SOL     OW63250   5.095  13.232   8.319
20473SOL    HW163251   5.020  13.278   8.357
20473SOL    HW263252   5.058  13.181   8.247
20474SOL     OW63253   8.301   6.218   4.533
20474SOL    HW163254   8.250   6.299   4.526
20474SOL    HW263255   8.359   6.233   4.609
20475SOL     OW63256  13.837   2.840   8.737
20475SOL    HW163257  13.885   2.906   8.686
20475SOL    HW263258  13.794   2.890   8.806
20476SOL     OW63259  10.874   9.263  11.546
20476SOL    HW163260  10.940   9.236  11.610
20476SOL    HW263261  10.849   9.351  11.572
20477SOL     OW63262   5.857  14.782  11.775
20477SOL    HW163263   5.900  14.714  11.724
20477SOL    HW263264   5.771  14.746  11.795
20478SOL     OW63265   8.696  13.646   3.701
20478SOL    HW163266   8.662  13.562   3.731
20478SOL    HW263267   8.730  13.629   3.614
20479SOL     OW63268   1.277  12.995  11.803
20479SOL    HW163269   1.280  13.057  11.876
20479SOL    HW263270   1.281  13.050  11.725
20480SOL     OW63271   0.824   8.231   0.838
20480SOL    HW163272   0.740   8.188   0.821
20480SOL    HW263273   0.888   8.160   0.830
20481SOL     OW63274   1.393   8.290   2.427
20481SOL    HW163275   1.347   8.365   2.390
20481SOL    HW263276   1.485   8.305   2.405
20482SOL     OW63277   1.986   0.266  10.230
20482SOL    HW163278   2.032   0.330  10.284
20482SOL    HW263279   2.032   0.183  10.247
20483SOL     OW63280   5.486   9.738  13.509
20483SOL    HW163281   5.546   9.708  13.441
20483SOL    HW263282   5.445   9.658  13.542
20484SOL     OW63283   4.420   7.476  13.043
20484SOL    HW163284   4.407   7.568  13.021
20484SOL    HW263285   4.501   7.452  12.997
20485SOL     OW63286   4.613   3.664   4.021
20485SOL    HW163287   4.541   3.601   4.019
20485SOL    HW263288   4.691   3.612   4.003
20486SOL     OW63289  11.024   7.030   8.187
20486SOL    HW163290  10.944   7.069   8.223
20486SOL    HW263291  11.061   6.981   8.261
20487SOL     OW63292   9.830   5.679   0.334
20487SOL    HW163293   9.832   5.621   0.410
20487SOL    HW263294   9.921   5.704   0.319
20488SOL     OW63295   0.177  13.952   8.809
20488SOL    HW163296   0.181  13.891   8.883
20488SOL    HW263297   0.097  13.928   8.762
20489SOL     OW63298   8.524   1.846   5.777
20489SOL    HW163299   8.595   1.856   5.714
20489SOL    HW263300   8.506   1.752   5.779
20490SOL     OW63301   8.939  13.332   3.183
20490SOL    HW163302   8.889  13.391   3.239
20490SOL    HW263303   8.963  13.259   3.240
20491SOL     OW63304   1.546  12.930  13.759
20491SOL    HW163305   1.573  12.898  13.845
20491SOL    HW263306   1.607  12.888  13.698
20492SOL     OW63307   9.113   5.699   9.880
20492SOL    HW163308   9.174   5.749   9.933
20492SOL    HW263309   9.131   5.608   9.903
20493SOL     OW63310  10.751   3.654   2.000
20493SOL    HW163311  10.800   3.735   1.991
20493SOL    HW263312  10.730   3.628   1.910
20494SOL     OW63313   4.124   3.988   1.872
20494SOL    HW163314   4.060   4.045   1.915
20494SOL    HW263315   4.074   3.946   1.801
20495SOL     OW63316   1.080   6.010  13.118
20495SOL    HW163317   1.008   5.967  13.163
20495SOL    HW263318   1.049   6.098  13.101
20496SOL     OW63319   2.102   5.483   4.009
20496SOL    HW163320   2.123   5.573   4.037
20496SOL    HW263321   2.077   5.492   3.917
20497SOL     OW63322   9.027  10.722   4.594
20497SOL    HW163323   8.983  10.734   4.679
20497SOL    HW263324   8.963  10.752   4.530
20498SOL     OW63325   5.835  10.307   5.289
20498SOL    HW163326   5.917  10.316   5.338
20498SOL    HW263327   5.801  10.222   5.314
20499SOL     OW63328   6.693   1.087   6.129
20499SOL    HW163329   6.718   1.024   6.061
20499SOL    HW263330   6.726   1.171   6.097
20500SOL     OW63331   3.124  14.335  12.982
20500SOL    HW163332   3.218  14.324  12.966
20500SOL    HW263333   3.115  14.421  13.022
20501SOL     OW63334   4.703   3.889   8.816
20501SOL    HW163335   4.797   3.876   8.809
20501SOL    HW263336   4.673   3.899   8.725
20502SOL     OW63337  12.641   1.056  12.144
20502SOL    HW163338  12.581   1.020  12.079
20502SOL    HW263339  12.585   1.086  12.215
20503SOL     OW63340   1.235  10.337  11.217
20503SOL    HW163341   1.163  10.363  11.160
20503SOL    HW263342   1.226  10.241  11.223
20504SOL     OW63343  13.844   4.768   5.137
20504SOL    HW163344  13.938   4.780   5.120
20504SOL    HW263345  13.829   4.814   5.219
20505SOL     OW63346   3.597   1.900  14.636
20505SOL    HW163347   3.667   1.946  14.682
20505SOL    HW263348   3.533   1.880  14.704
20506SOL     OW63349   6.741  11.905   9.659
20506SOL    HW163350   6.762  11.892   9.752
20506SOL    HW263351   6.821  11.941   9.621
20507SOL     OW63352   9.370   2.520   7.945
20507SOL    HW163353   9.364   2.429   7.916
20507SOL    HW263354   9.300   2.528   8.010
20508SOL     OW63355  13.157  10.264   2.502
20508SOL    HW163356  13.090  10.209   2.463
20508SOL    HW263357  13.178  10.329   2.435
20509SOL     OW63358  13.797  12.241  12.780
20509SOL    HW163359  13.741  12.274  12.851
20509SOL    HW263360  13.748  12.261  12.700
20510SOL     OW63361  10.676   2.888  13.544
20510SOL    HW163362  10.695   2.981  13.541
20510SOL    HW263363  10.582   2.882  13.523
20511SOL     OW63364  13.805   0.901   8.245
20511SOL    HW163365  13.864   0.840   8.291
20511SOL    HW263366  13.722   0.853   8.239
20512SOL     OW63367   7.742   6.556   5.912
20512SOL    HW163368   7.722   6.463   5.918
20512SOL    HW263369   7.717   6.580   5.822
20513SOL     OW63370   7.845  11.525   6.788
20513SOL    HW163371   7.872  11.484   6.706
20513SOL    HW263372   7.774  11.470   6.820
20514SOL     OW63373   9.243   1.826  10.058
20514SOL    HW163374   9.169   1.779  10.095
20514SOL    HW263375   9.315   1.763  10.059
20515SOL     OW63376   6.705  12.081   1.767
20515SOL    HW163377   6.735  12.027   1.840
20515SOL    HW263378   6.784  12.124   1.735
20516SOL     OW63379  11.381   2.161   1.884
20516SOL    HW163380  11.374   2.084   1.828
20516SOL    HW263381  11.460   2.207   1.853
20517SOL     OW63382  13.097   1.966   6.057
20517SOL    HW163383  13.089   1.943   6.150
20517SOL    HW263384  13.013   1.939   6.019
20518SOL     OW63385   0.493   2.870  12.205
20518SOL    HW163386   0.537   2.855  12.289
20518SOL    HW263387   0.484   2.783  12.166
20519SOL     OW63388   4.332  13.555   4.086
20519SOL    HW163389   4.320  13.546   4.181
20519SOL    HW263390   4.418  13.596   4.077
20520SOL     OW63391   1.232  13.311  14.300
20520SOL    HW163392   1.269  13.355  14.224
20520SOL    HW263393   1.244  13.374  14.372
20521SOL     OW63394   2.979   4.917   5.704
20521SOL    HW163395   2.970   4.975   5.780
20521SOL    HW263396   2.982   4.977   5.629
20522SOL     OW63397   3.850   1.998   5.082
20522SOL    HW163398   3.800   1.931   5.130
20522SOL    HW263399   3.924   2.018   5.139
20523SOL     OW63400  11.564  10.929  11.477
20523SOL    HW163401  11.639  10.965  11.524
20523SOL    HW263402  11.492  10.987  11.499
20524SOL     OW63403   8.534   8.769  11.251
20524SOL    HW163404   8.541   8.864  11.248
20524SOL    HW263405   8.440   8.751  11.250
20525SOL     OW63406  14.460   3.338   2.021
20525SOL    HW163407  14.391   3.392   2.059
20525SOL    HW263408  14.541   3.383   2.043
20526SOL     OW63409   0.180   7.443  12.347
20526SOL    HW163410   0.108   7.384  12.369
20526SOL    HW263411   0.259   7.396  12.373
20527SOL     OW63412  11.319  10.798  11.850
20527SOL    HW163413  11.291  10.767  11.764
20527SOL    HW263414  11.414  10.804  11.843
20528SOL     OW63415  13.292   3.260   7.775
20528SOL    HW163416  13.299   3.202   7.851
20528SOL    HW263417  13.373   3.311   7.775
20529SOL     OW63418   6.567  11.687   2.626
20529SOL    HW163419   6.539  11.778   2.616
20529SOL    HW263420   6.650  11.691   2.673
20530SOL     OW63421   7.777   6.203   3.647
20530SOL    HW163422   7.705   6.201   3.710
20530SOL    HW263423   7.750   6.145   3.576
20531SOL     OW63424   6.242  10.340  12.586
20531SOL    HW163425   6.222  10.294  12.668
20531SOL    HW263426   6.176  10.309  12.524
20532SOL     OW63427   7.612   1.400   0.788
20532SOL    HW163428   7.650   1.320   0.752
20532SOL    HW263429   7.529   1.411   0.741
20533SOL     OW63430  12.626   8.645  10.072
20533SOL    HW163431  12.609   8.715  10.008
20533SOL    HW263432  12.651   8.692  10.151
20534SOL     OW63433   5.794  10.763   1.227
20534SOL    HW163434   5.832  10.703   1.291
20534SOL    HW263435   5.867  10.786   1.169
20535SOL     OW63436   8.942   5.738   7.736
20535SOL    HW163437   8.882   5.811   7.722
20535SOL    HW263438   9.020   5.761   7.687
20536SOL     OW63439   9.774   6.046   8.076
20536SOL    HW163440   9.758   6.045   7.982
20536SOL    HW263441   9.856   5.998   8.087
20537SOL     OW63442  13.293   3.431  10.690
20537SOL    HW163443  13.319   3.418  10.599
20537SOL    HW263444  13.364   3.484  10.728
20538SOL     OW63445  11.745  11.164   6.729
20538SOL    HW163446  11.761  11.096   6.794
20538SOL    HW263447  11.832  11.183   6.693
20539SOL     OW63448   1.689   4.616  10.510
20539SOL    HW163449   1.771   4.657  10.536
20539SOL    HW263450   1.673   4.647  10.422
20540SOL     OW63451   3.848  10.960   4.643
20540SOL    HW163452   3.776  11.002   4.595
20540SOL    HW263453   3.853  11.009   4.725
20541SOL     OW63454   5.610   4.904  11.523
20541SOL    HW163455   5.631   4.998  11.521
20541SOL    HW263456   5.696   4.862  11.531
20542SOL     OW63457   4.969   4.959  14.651
20542SOL    HW163458   5.003   5.021  14.716
20542SOL    HW263459   4.874   4.971  14.654
20543SOL     OW63460   5.329   0.074  10.761
20543SOL    HW163461   5.359   0.150  10.812
20543SOL    HW263462   5.375   0.082  10.677
20544SOL     OW63463   6.564   4.930   6.942
20544SOL    HW163464   6.625   5.002   6.924
20544SOL    HW263465   6.506   4.929   6.865
20545SOL     OW63466   5.520   0.576   8.315
20545SOL    HW163467   5.501   0.617   8.400
20545SOL    HW263468   5.531   0.649   8.255
20546SOL     OW63469  10.557  12.023   5.029
20546SOL    HW163470  10.596  11.954   5.084
20546SOL    HW263471  10.619  12.096   5.035
20547SOL     OW63472   9.366  13.745  10.000
20547SOL    HW163473   9.330  13.659  10.023
20547SOL    HW263474   9.460  13.736  10.015
20548SOL     OW63475   3.127   9.408   2.646
20548SOL    HW163476   3.058   9.475   2.647
20548SOL    HW263477   3.150   9.397   2.738
20549SOL     OW63478  14.554   9.889   7.684
20549SOL    HW163479  14.467   9.896   7.643
20549SOL    HW263480  14.582   9.799   7.665
20550SOL     OW63481  13.806   2.611  11.441
20550SOL    HW163482  13.779   2.630  11.351
20550SOL    HW263483  13.814   2.515  11.444
20551SOL     OW63484   0.094   6.301   2.110
20551SOL    HW163485   0.158   6.372   2.121
20551SOL    HW263486   0.013   6.346   2.084
20552SOL     OW63487   0.102   3.912  12.599
20552SOL    HW163488   0.162   3.855  12.552
20552SOL    HW263489   0.016   3.873  12.586
20553SOL     OW63490  12.628  13.084  13.931
20553SOL    HW163491  12.626  13.107  14.024
20553SOL    HW263492  12.541  13.046  13.914
20554SOL     OW63493  12.681  14.324  12.853
20554SOL    HW163494  12.729  14.267  12.913
20554SOL    HW263495  12.662  14.403  12.903
20555SOL     OW63496   9.873   7.610  11.090
20555SOL    HW163497   9.966   7.591  11.104
20555SOL    HW263498   9.866   7.704  11.104
20556SOL     OW63499  10.078   5.687   5.815
20556SOL    HW163500  10.035   5.757   5.865
20556SOL    HW263501  10.146   5.731   5.765
20557SOL     OW63502   5.949   7.985  14.468
20557SOL    HW163503   6.024   7.926  14.453
20557SOL    HW263504   5.969   8.028  14.551
20558SOL     OW63505   8.876   5.211   7.410
20558SOL    HW163506   8.905   5.301   7.394
20558SOL    HW263507   8.909   5.191   7.498
20559SOL     OW63508   3.753   7.494   5.957
20559SOL    HW163509   3.686   7.453   6.013
20559SOL    HW263510   3.836   7.463   5.992
20560SOL     OW63511   9.346   9.706   8.120
20560SOL    HW163512   9.365   9.639   8.054
20560SOL    HW263513   9.401   9.780   8.095
20561SOL     OW63514   7.426  11.791   6.775
20561SOL    HW163515   7.357  11.857   6.786
20561SOL    HW263516   7.508  11.841   6.773
20562SOL     OW63517   1.334   0.799  14.365
20562SOL    HW163518   1.328   0.714  14.408
20562SOL    HW263519   1.245   0.818  14.335
20563SOL     OW63520   6.115   8.808   1.872
20563SOL    HW163521   6.084   8.891   1.837
20563SOL    HW263522   6.154   8.764   1.796
20564SOL     OW63523   6.691   5.505   2.710
20564SOL    HW163524   6.747   5.581   2.727
20564SOL    HW263525   6.640   5.530   2.633
20565SOL     OW63526   0.032   9.720   3.540
20565SOL    HW163527   0.128   9.710   3.544
20565SOL    HW263528   0.001   9.694   3.626
20566SOL     OW63529   5.956   3.981   9.506
20566SOL    HW163530   6.012   4.037   9.452
20566SOL    HW263531   6.005   3.898   9.513
20567SOL     OW63532  13.062   6.903  10.068
20567SOL    HW163533  13.037   6.986  10.026
20567SOL    HW263534  12.980   6.855  10.077
20568SOL     OW63535   3.109   3.433   2.009
20568SOL    HW163536   3.186   3.469   1.965
20568SOL    HW263537   3.057   3.396   1.938
20569SOL     OW63538   5.094  11.471   2.289
20569SOL    HW163539   5.043  11.471   2.208
20569SOL    HW263540   5.032  11.445   2.357
20570SOL     OW63541   8.651   1.943  12.304
20570SOL    HW163542   8.746   1.935  12.294
20570SOL    HW263543   8.639   1.992  12.385
20571SOL     OW63544   2.725  14.213   5.999
20571SOL    HW163545   2.699  14.303   5.982
20571SOL    HW263546   2.703  14.198   6.092
20572SOL     OW63547   7.404   6.059  14.403
20572SOL    HW163548   7.414   6.122  14.332
20572SOL    HW263549   7.439   5.977  14.368
20573SOL     OW63550  10.938   9.330   8.703
20573SOL    HW163551  10.987   9.251   8.726
20573SOL    HW263552  11.000   9.383   8.654
20574SOL     OW63553   4.777   2.340  10.424
20574SOL    HW163554   4.805   2.361  10.335
20574SOL    HW263555   4.684   2.365  10.426
20575SOL     OW63556   0.302   4.355   6.597
20575SOL    HW163557   0.276   4.352   6.505
20575SOL    HW263558   0.238   4.414   6.638
20576SOL     OW63559   6.843   2.968  12.309
20576SOL    HW163560   6.774   3.031  12.287
20576SOL    HW263561   6.923   3.019  12.311
20577SOL     OW63562   4.296  11.535  14.268
20577SOL    HW163563   4.310  11.593  14.193
20577SOL    HW263564   4.276  11.450  14.228
20578SOL     OW63565   7.771  12.941   7.377
20578SOL    HW163566   7.794  12.851   7.354
20578SOL    HW263567   7.678  12.936   7.399
20579SOL     OW63568   2.877   6.604   8.173
20579SOL    HW163569   2.842   6.526   8.214
20579SOL    HW263570   2.970   6.585   8.160
20580SOL     OW63571  11.945   9.080   8.682
20580SOL    HW163572  11.878   9.012   8.685
20580SOL    HW263573  12.007   9.050   8.616
20581SOL     OW63574  11.445  10.015  11.761
20581SOL    HW163575  11.430  10.109  11.770
20581SOL    HW263576  11.522  10.009  11.704
20582SOL     OW63577   5.492  14.608   5.932
20582SOL    HW163578   5.434  14.604   6.009
20582SOL    HW263579   5.568  14.657   5.962
20583SOL     OW63580  13.198   3.538  11.235
20583SOL    HW163581  13.156   3.457  11.208
20583SOL    HW263582  13.126   3.596  11.259
20584SOL     OW63583   7.080   5.313   0.478
20584SOL    HW163584   7.144   5.381   0.501
20584SOL    HW263585   7.004   5.332   0.532
20585SOL     OW63586   0.899   2.039  14.059
20585SOL    HW163587   0.853   2.026  14.142
20585SOL    HW263588   0.893   1.954  14.015
20586SOL     OW63589  11.632   6.392  13.270
20586SOL    HW163590  11.633   6.488  13.277
20586SOL    HW263591  11.653   6.374  13.178
20587SOL     OW63592  10.857   0.280   4.905
20587SOL    HW163593  10.903   0.219   4.849
20587SOL    HW263594  10.863   0.241   4.993
20588SOL     OW63595   2.812  11.334  14.277
20588SOL    HW163596   2.725  11.307  14.248
20588SOL    HW263597   2.822  11.295  14.363
20589SOL     OW63598  11.502   7.442   4.777
20589SOL    HW163599  11.450   7.443   4.696
20589SOL    HW263600  11.465   7.369   4.827
20590SOL     OW63601  14.021   5.995   0.187
20590SOL    HW163602  13.930   6.024   0.194
20590SOL    HW263603  14.017   5.914   0.135
20591SOL     OW63604   3.449   6.981   4.054
20591SOL    HW163605   3.469   6.903   4.002
20591SOL    HW263606   3.364   6.963   4.093
20592SOL     OW63607   7.581  14.527  12.388
20592SOL    HW163608   7.620  14.454  12.340
20592SOL    HW263609   7.527  14.573  12.324
20593SOL     OW63610  12.801   8.713  12.780
20593SOL    HW163611  12.838   8.625  12.771
20593SOL    HW263612  12.712   8.705  12.744
20594SOL     OW63613   8.488   3.537   6.151
20594SOL    HW163614   8.410   3.481   6.154
20594SOL    HW263615   8.555   3.487   6.199
20595SOL     OW63616   7.131  11.330  11.479
20595SOL    HW163617   7.104  11.419  11.457
20595SOL    HW263618   7.088  11.311  11.562
20596SOL     OW63619   5.904  14.683   4.314
20596SOL    HW163620   5.899  14.778   4.324
20596SOL    HW263621   5.826  14.661   4.263
20597SOL     OW63622   9.912  10.944  13.349
20597SOL    HW163623   9.844  10.906  13.293
20597SOL    HW263624   9.978  10.874  13.357
20598SOL     OW63625   2.635   7.722  10.055
20598SOL    HW163626   2.654   7.813  10.036
20598SOL    HW263627   2.568   7.697   9.991
20599SOL     OW63628  11.843   3.298   9.312
20599SOL    HW163629  11.906   3.371   9.319
20599SOL    HW263630  11.898   3.220   9.308
20600SOL     OW63631   6.861   7.169   5.932
20600SOL    HW163632   6.846   7.105   6.002
20600SOL    HW263633   6.811   7.246   5.959
20601SOL     OW63634   1.767   4.261  11.649
20601SOL    HW163635   1.756   4.220  11.735
20601SOL    HW263636   1.861   4.271  11.639
20602SOL     OW63637  10.585   5.470   4.119
20602SOL    HW163638  10.640   5.405   4.165
20602SOL    HW263639  10.638   5.549   4.118
20603SOL     OW63640   4.226   6.827   4.163
20603SOL    HW163641   4.188   6.901   4.211
20603SOL    HW263642   4.314   6.856   4.140
20604SOL     OW63643   3.317   9.740   3.683
20604SOL    HW163644   3.276   9.783   3.759
20604SOL    HW263645   3.388   9.688   3.721
20605SOL     OW63646   2.700   8.532   3.155
20605SOL    HW163647   2.607   8.523   3.131
20605SOL    HW263648   2.747   8.511   3.074
20606SOL     OW63649   9.026   2.914  11.170
20606SOL    HW163650   8.944   2.956  11.198
20606SOL    HW263651   9.062   2.975  11.106
20607SOL     OW63652   7.182   6.432   7.046
20607SOL    HW163653   7.089   6.416   7.060
20607SOL    HW263654   7.220   6.436   7.133
20608SOL     OW63655   1.745   3.906   3.668
20608SOL    HW163656   1.728   3.990   3.710
20608SOL    HW263657   1.665   3.856   3.682
20609SOL     OW63658   6.508  11.726   8.661
20609SOL    HW163659   6.455  11.648   8.678
20609SOL    HW263660   6.567  11.699   8.591
20610SOL     OW63661   6.584   7.684  12.542
20610SOL    HW163662   6.672   7.651  12.558
20610SOL    HW263663   6.535   7.608  12.511
20611SOL     OW63664   3.898  13.054   7.423
20611SOL    HW163665   3.905  13.131   7.367
20611SOL    HW263666   3.806  13.031   7.422
20612SOL     OW63667  14.359   3.098   7.437
20612SOL    HW163668  14.451   3.112   7.415
20612SOL    HW263669  14.348   3.143   7.521
20613SOL     OW63670   5.207   3.896  11.318
20613SOL    HW163671   5.205   3.888  11.222
20613SOL    HW263672   5.298   3.917  11.337
20614SOL     OW63673  12.214   5.048   6.194
20614SOL    HW163674  12.244   4.986   6.128
20614SOL    HW263675  12.197   4.995   6.272
20615SOL     OW63676  14.645   6.867   7.646
20615SOL    HW163677  14.625   6.829   7.560
20615SOL    HW263678  14.646   6.793   7.706
20616SOL     OW63679   7.358   9.612   4.940
20616SOL    HW163680   7.313   9.633   5.022
20616SOL    HW263681   7.451   9.607   4.964
20617SOL     OW63682   3.816  10.420   6.947
20617SOL    HW163683   3.774  10.501   6.917
20617SOL    HW263684   3.841  10.439   7.037
20618SOL     OW63685   4.170   5.699  10.040
20618SOL    HW163686   4.077   5.693  10.018
20618SOL    HW263687   4.200   5.779   9.998
20619SOL     OW63688   6.875   4.640   4.442
20619SOL    HW163689   6.955   4.616   4.487
20619SOL    HW263690   6.898   4.719   4.392
20620SOL     OW63691   0.051  14.500  14.522
20620SOL    HW163692  14.848  14.483  14.471
20620SOL    HW263693   0.114  14.533  14.458
20621SOL     OW63694   0.713   5.595   0.604
20621SOL    HW163695   0.775   5.543   0.552
20621SOL    HW263696   0.704   5.547   0.686
20622SOL     OW63697   5.585   4.331  12.917
20622SOL    HW163698   5.570   4.399  12.983
20622SOL    HW263699   5.640   4.375  12.852
20623SOL     OW63700   3.379  10.325   2.268
20623SOL    HW163701   3.337  10.377   2.337
20623SOL    HW263702   3.464  10.366   2.256
20624SOL     OW63703   1.002   6.483   0.079
20624SOL    HW163704   0.938   6.448   0.017
20624SOL    HW263705   1.052   6.547   0.029
20625SOL     OW63706  11.457   6.489   7.072
20625SOL    HW163707  11.483   6.525   7.156
20625SOL    HW263708  11.468   6.562   7.010
20626SOL     OW63709   6.991  14.154   5.779
20626SOL    HW163710   7.024  14.098   5.849
20626SOL    HW263711   7.037  14.124   5.700
20627SOL     OW63712   4.535   8.091   3.610
20627SOL    HW163713   4.527   8.045   3.526
20627SOL    HW263714   4.551   8.182   3.586
20628SOL     OW63715  14.608  13.710  11.038
20628SOL    HW163716  14.588  13.619  11.014
20628SOL    HW263717  14.626  13.753  10.954
20629SOL     OW63718   6.893  11.336   1.031
20629SOL    HW163719   6.938  11.267   0.982
20629SOL    HW263720   6.858  11.394   0.964
20630SOL     OW63721  12.791  14.509   8.854
20630SOL    HW163722  12.883  14.533   8.841
20630SOL    HW263723  12.789  14.414   8.848
20631SOL     OW63724   9.518  13.583   4.937
20631SOL    HW163725   9.571  13.550   4.865
20631SOL    HW263726   9.514  13.510   4.999
20632SOL     OW63727   3.540   7.507   8.885
20632SOL    HW163728   3.488   7.537   8.810
20632SOL    HW263729   3.615   7.567   8.888
20633SOL     OW63730   2.507   6.852   6.503
20633SOL    HW163731   2.546   6.821   6.422
20633SOL    HW263732   2.513   6.777   6.563
20634SOL     OW63733  13.589  13.137   0.605
20634SOL    HW163734  13.561  13.152   0.695
20634SOL    HW263735  13.555  13.212   0.557
20635SOL     OW63736   1.227   0.673  13.815
20635SOL    HW163737   1.286   0.618  13.764
20635SOL    HW263738   1.201   0.742  13.755
20636SOL     OW63739   1.216   5.237  11.975
20636SOL    HW163740   1.207   5.331  11.992
20636SOL    HW263741   1.127   5.204  11.976
20637SOL     OW63742  14.433   6.357   0.068
20637SOL    HW163743  14.365   6.368   0.135
20637SOL    HW263744  14.471   6.444   0.058
20638SOL     OW63745   3.890  10.565  11.031
20638SOL    HW163746   3.863  10.485  11.075
20638SOL    HW263747   3.872  10.549  10.938
20639SOL     OW63748   5.932  12.122  12.780
20639SOL    HW163749   5.992  12.050  12.797
20639SOL    HW263750   5.956  12.155  12.694
20640SOL     OW63751   5.053   5.067   7.187
20640SOL    HW163752   5.106   5.030   7.116
20640SOL    HW263753   5.066   5.007   7.261
20641SOL     OW63754   3.962   0.745   1.758
20641SOL    HW163755   3.984   0.755   1.666
20641SOL    HW263756   3.870   0.719   1.759
20642SOL     OW63757  13.799  10.016   6.364
20642SOL    HW163758  13.870  10.061   6.410
20642SOL    HW263759  13.786  10.067   6.284
20643SOL     OW63760  12.607  14.124  10.513
20643SOL    HW163761  12.625  14.129  10.419
20643SOL    HW263762  12.551  14.048  10.523
20644SOL     OW63763   9.304   1.915   4.771
20644SOL    HW163764   9.382   1.971   4.773
20644SOL    HW263765   9.335   1.829   4.744
20645SOL     OW63766  12.589   4.022   1.948
20645SOL    HW163767  12.656   4.072   1.902
20645SOL    HW263768  12.514   4.021   1.889
20646SOL     OW63769   0.322   0.958  14.609
20646SOL    HW163770   0.320   1.047  14.645
20646SOL    HW263771   0.326   0.901  14.686
20647SOL     OW63772   5.874  14.337   0.592
20647SOL    HW163773   5.941  14.306   0.530
20647SOL    HW263774   5.908  14.420   0.624
20648SOL     OW63775   9.749  10.374   6.971
20648SOL    HW163776   9.812  10.440   6.997
20648SOL    HW263777   9.782  10.341   6.887
20649SOL     OW63778   2.813  11.753   6.240
20649SOL    HW163779   2.887  11.694   6.258
20649SOL    HW263780   2.745  11.695   6.205
20650SOL     OW63781   9.575  14.417   3.117
20650SOL    HW163782   9.500  14.357   3.116
20650SOL    HW263783   9.637  14.378   3.055
20651SOL     OW63784   0.807  11.475   9.554
20651SOL    HW163785   0.755  11.478   9.474
20651SOL    HW263786   0.752  11.517   9.620
20652SOL     OW63787   9.761  13.774   8.404
20652SOL    HW163788   9.818  13.851   8.402
20652SOL    HW263789   9.676  13.807   8.376
20653SOL     OW63790  11.801   8.966   9.064
20653SOL    HW163791  11.757   9.006   8.989
20653SOL    HW263792  11.889   9.004   9.063
20654SOL     OW63793   6.701  14.038   2.863
20654SOL    HW163794   6.697  13.957   2.813
20654SOL    HW263795   6.793  14.066   2.857
20655SOL     OW63796   0.428  12.454   1.458
20655SOL    HW163797   0.390  12.538   1.432
20655SOL    HW263798   0.410  12.449   1.552
20656SOL     OW63799   7.382  12.593   0.972
20656SOL    HW163800   7.448  12.600   0.903
20656SOL    HW263801   7.304  12.633   0.934
20657SOL     OW63802   9.036   8.473   1.784
20657SOL    HW163803   9.033   8.414   1.860
20657SOL    HW263804   8.975   8.543   1.805
20658SOL     OW63805   3.761   1.713  13.172
20658SOL    HW163806   3.702   1.788  13.179
20658SOL    HW263807   3.849   1.752  13.165
20659SOL     OW63808   1.362   1.236  12.929
20659SOL    HW163809   1.367   1.235  13.025
20659SOL    HW263810   1.381   1.146  12.903
20660SOL     OW63811   2.423   4.644   5.696
20660SOL    HW163812   2.430   4.634   5.601
20660SOL    HW263813   2.466   4.566   5.731
20661SOL     OW63814   2.620   1.366  13.997
20661SOL    HW163815   2.559   1.293  13.998
20661SOL    HW263816   2.678   1.348  13.923
20662SOL     OW63817  12.985   1.203   0.877
20662SOL    HW163818  13.080   1.197   0.877
20662SOL    HW263819  12.957   1.146   0.949
20663SOL     OW63820  12.860   7.284  10.210
20663SOL    HW163821  12.819   7.299  10.125
20663SOL    HW263822  12.803   7.220  10.253
20664SOL     OW63823   6.048   3.506   0.200
20664SOL    HW163824   6.079   3.429   0.153
20664SOL    HW263825   6.091   3.501   0.286
20665SOL     OW63826   7.889   2.522  10.532
20665SOL    HW163827   7.982   2.540  10.516
20665SOL    HW263828   7.889   2.456  10.602
20666SOL     OW63829  10.445  13.925   5.791
20666SOL    HW163830  10.456  13.880   5.875
20666SOL    HW263831  10.358  13.965   5.797
20667SOL     OW63832   2.055   5.672   0.465
20667SOL    HW163833   2.093   5.664   0.377
20667SOL    HW263834   1.988   5.740   0.456
20668SOL     OW63835   0.230  10.312   4.764
20668SOL    HW163836   0.240  10.291   4.672
20668SOL    HW263837   0.196  10.402   4.764
20669SOL     OW63838  12.478   2.461  14.677
20669SOL    HW163839  12.419   2.455  14.752
20669SOL    HW263840  12.486   2.555  14.660
20670SOL     OW63841   7.869   0.017  10.563
20670SOL    HW163842   7.787  14.848  10.584
20670SOL    HW263843   7.862   0.100  10.609
20671SOL     OW63844  10.632   4.779   0.996
20671SOL    HW163845  10.648   4.730   0.915
20671SOL    HW263846  10.607   4.712   1.060
20672SOL     OW63847  13.686   0.911  11.754
20672SOL    HW163848  13.622   0.978  11.729
20672SOL    HW263849  13.732   0.950  11.829
20673SOL     OW63850   4.461   2.282  11.380
20673SOL    HW163851   4.376   2.317  11.353
20673SOL    HW263852   4.512   2.358  11.407
20674SOL     OW63853   5.376   3.407   8.377
20674SOL    HW163854   5.434   3.417   8.302
20674SOL    HW263855   5.351   3.496   8.401
20675SOL     OW63856   7.827   0.453   2.896
20675SOL    HW163857   7.862   0.467   2.984
20675SOL    HW263858   7.816   0.541   2.860
20676SOL     OW63859   8.968   4.385   6.953
20676SOL    HW163860   9.058   4.418   6.957
20676SOL    HW263861   8.959   4.346   6.866
20677SOL     OW63862   2.776   2.928   2.186
20677SOL    HW163863   2.717   2.879   2.129
20677SOL    HW263864   2.795   3.009   2.137
20678SOL     OW63865   9.417  12.093  10.212
20678SOL    HW163866   9.488  12.129  10.265
20678SOL    HW263867   9.402  12.006  10.249
20679SOL     OW63868   9.189   5.480   2.773
20679SOL    HW163869   9.112   5.498   2.827
20679SOL    HW263870   9.206   5.387   2.786
20680SOL     OW63871  11.567   8.871  14.351
20680SOL    HW163872  11.481   8.830  14.348
20680SOL    HW263873  11.608   8.837  14.430
20681SOL     OW63874   0.575   9.148   8.822
20681SOL    HW163875   0.509   9.161   8.754
20681SOL    HW263876   0.597   9.236   8.852
20682SOL     OW63877   1.747   6.386   4.241
20682SOL    HW163878   1.712   6.379   4.152
20682SOL    HW263879   1.670   6.396   4.297
20683SOL     OW63880  12.824   2.208   4.375
20683SOL    HW163881  12.832   2.125   4.421
20683SOL    HW263882  12.901   2.258   4.402
20684SOL     OW63883  13.583   7.183  12.159
20684SOL    HW163884  13.547   7.139  12.083
20684SOL    HW263885  13.516   7.247  12.184
20685SOL     OW63886   9.739   7.565   1.662
20685SOL    HW163887   9.665   7.510   1.637
20685SOL    HW263888   9.755   7.545   1.754
20686SOL     OW63889   1.041  11.011   0.616
20686SOL    HW163890   1.069  10.924   0.646
20686SOL    HW263891   0.953  10.996   0.580
20687SOL     OW63892   2.628   6.630   5.646
20687SOL    HW163893   2.677   6.622   5.728
20687SOL    HW263894   2.647   6.549   5.598
20688SOL     OW63895   2.249   7.108  10.534
20688SOL    HW163896   2.336   7.118  10.495
20688SOL    HW263897   2.233   7.191  10.578
20689SOL     OW63898  10.958  11.447   4.946
20689SOL    HW163899  10.976  11.511   4.877
20689SOL    HW263900  10.865  11.427   4.938
20690SOL     OW63901  14.758  12.799   9.178
20690SOL    HW163902  14.819  12.743   9.226
20690SOL    HW263903  14.683  12.808   9.237
20691SOL     OW63904  14.586   2.444   0.656
20691SOL    HW163905  14.551   2.471   0.571
20691SOL    HW263906  14.516   2.390   0.694
20692SOL     OW63907  12.274   3.488  11.476
20692SOL    HW163908  12.288   3.581  11.493
20692SOL    HW263909  12.283   3.446  11.561
20693SOL     OW63910   6.129   8.511   7.282
20693SOL    HW163911   6.098   8.523   7.192
20693SOL    HW263912   6.096   8.587   7.329
20694SOL     OW63913  14.868   0.267   3.637
20694SOL    HW163914   0.017   0.200   3.701
20694SOL    HW263915   0.076   0.295   3.598
20695SOL     OW63916   5.070   7.820   1.225
20695SOL    HW163917   4.992   7.812   1.280
20695SOL    HW263918   5.072   7.738   1.175
20696SOL     OW63919  12.027  10.580   9.620
20696SOL    HW163920  11.964  10.508   9.619
20696SOL    HW263921  12.001  10.636   9.546
20697SOL     OW63922  11.184   3.328   5.239
20697SOL    HW163923  11.195   3.270   5.163
20697SOL    HW263924  11.225   3.280   5.311
20698SOL     OW63925  13.838   2.830  11.917
20698SOL    HW163926  13.754   2.868  11.941
20698SOL    HW263927  13.844   2.842  11.822
20699SOL     OW63928   6.494   1.838   6.097
20699SOL    HW163929   6.474   1.764   6.040
20699SOL    HW263930   6.410   1.880   6.113
20700SOL     OW63931   5.891   1.667   7.750
20700SOL    HW163932   5.981   1.653   7.721
20700SOL    HW263933   5.845   1.696   7.671
20701SOL     OW63934  10.287   0.935   8.622
20701SOL    HW163935  10.312   0.905   8.535
20701SOL    HW263936  10.284   0.856   8.675
20702SOL     OW63937  11.958   4.203   5.634
20702SOL    HW163938  12.019   4.228   5.704
20702SOL    HW263939  11.896   4.144   5.677
20703SOL     OW63940   6.661  11.192   6.297
20703SOL    HW163941   6.643  11.250   6.371
20703SOL    HW263942   6.700  11.114   6.336
20704SOL     OW63943  13.459   4.460  12.422
20704SOL    HW163944  13.551   4.452  12.450
20704SOL    HW263945  13.451   4.552  12.395
20705SOL     OW63946   5.590  12.571   7.933
20705SOL    HW163947   5.648  12.593   8.005
20705SOL    HW263948   5.548  12.654   7.910
20706SOL     OW63949   5.111  14.337   2.581
20706SOL    HW163950   5.111  14.416   2.526
20706SOL    HW263951   5.046  14.355   2.648
20707SOL     OW63952   8.296   4.603  12.518
20707SOL    HW163953   8.321   4.620  12.609
20707SOL    HW263954   8.305   4.508  12.507
20708SOL     OW63955   4.609   2.290   3.883
20708SOL    HW163956   4.620   2.195   3.885
20708SOL    HW263957   4.674   2.321   3.819
20709SOL     OW63958  14.201  14.452   8.431
20709SOL    HW163959  14.215  14.438   8.525
20709SOL    HW263960  14.174  14.543   8.424
20710SOL     OW63961   7.137   6.581   9.028
20710SOL    HW163962   7.168   6.624   9.108
20710SOL    HW263963   7.209   6.590   8.966
20711SOL     OW63964   7.394   6.274   9.279
20711SOL    HW163965   7.324   6.245   9.338
20711SOL    HW263966   7.357   6.264   9.192
20712SOL     OW63967   5.749  14.580   8.291
20712SOL    HW163968   5.818  14.532   8.245
20712SOL    HW263969   5.673  14.574   8.233
20713SOL     OW63970  14.523   2.299   2.804
20713SOL    HW163971  14.466   2.223   2.792
20713SOL    HW263972  14.580   2.273   2.877
20714SOL     OW63973  12.074   4.048  13.106
20714SOL    HW163974  12.122   4.056  13.024
20714SOL    HW263975  12.056   4.138  13.133
20715SOL     OW63976   9.951   6.966   8.583
20715SOL    HW163977  10.009   7.019   8.637
20715SOL    HW263978   9.973   6.991   8.493
20716SOL     OW63979   8.999   9.316   4.365
20716SOL    HW163980   8.912   9.289   4.337
20716SOL    HW263981   8.986   9.352   4.453
20717SOL     OW63982  12.478   4.694   3.911
20717SOL    HW163983  12.541   4.741   3.965
20717SOL    HW263984  12.393   4.732   3.935
20718SOL     OW63985  11.446   3.582   7.810
20718SOL    HW163986  11.518   3.535   7.768
20718SOL    HW263987  11.369   3.564   7.755
20719SOL     OW63988  10.848   1.789   5.988
20719SOL    HW163989  10.875   1.821   6.074
20719SOL    HW263990  10.809   1.704   6.005
20720SOL     OW63991   9.120  13.851   8.763
20720SOL    HW163992   9.203  13.898   8.757
20720SOL    HW263993   9.141  13.761   8.739
20721SOL     OW63994  13.600   3.107  11.345
20721SOL    HW163995  13.510   3.135  11.327
20721SOL    HW263996  13.608   3.111  11.440
20722SOL     OW63997  13.794   1.565   5.402
20722SOL    HW163998  13.823   1.494   5.459
20722SOL    HW263999  13.748   1.626   5.460
20723SOL     OW64000  10.200  10.664   3.436
20723SOL    HW164001  10.111  10.632   3.423
20723SOL    HW264002  10.215  10.725   3.363
20724SOL     OW64003   3.327   3.182   4.738
20724SOL    HW164004   3.302   3.145   4.823
20724SOL    HW264005   3.294   3.271   4.739
20725SOL     OW64006   4.361   4.118   4.183
20725SOL    HW164007   4.311   4.092   4.105
20725SOL    HW264008   4.294   4.147   4.245
20726SOL     OW64009   6.805   8.280  12.356
20726SOL    HW164010   6.710   8.280  12.362
20726SOL    HW264011   6.828   8.191  12.329
20727SOL     OW64012   2.590  10.161   8.277
20727SOL    HW164013   2.608  10.248   8.313
20727SOL    HW264014   2.670  10.110   8.296
20728SOL     OW64015  13.387   5.089   0.605
20728SOL    HW164016  13.346   5.175   0.596
20728SOL    HW264017  13.371   5.064   0.696
20729SOL     OW64018   1.439  12.619   3.183
20729SOL    HW164019   1.367  12.636   3.122
20729SOL    HW264020   1.415  12.667   3.262
20730SOL     OW64021  13.188   1.271  11.011
20730SOL    HW164022  13.203   1.252  10.918
20730SOL    HW264023  13.221   1.361  11.023
20731SOL     OW64024   0.593  10.721   1.557
20731SOL    HW164025   0.532  10.730   1.630
20731SOL    HW264026   0.629  10.809   1.544
20732SOL     OW64027  13.167   4.534   2.721
20732SOL    HW164028  13.226   4.562   2.790
20732SOL    HW264029  13.081   4.568   2.748
20733SOL     OW64030  13.304   7.402  13.203
20733SOL    HW164031  13.350   7.326  13.238
20733SOL    HW264032  13.324   7.473  13.264
20734SOL     OW64033  10.942   1.357   1.721
20734SOL    HW164034  10.974   1.340   1.810
20734SOL    HW264035  10.907   1.272   1.692
20735SOL     OW64036   5.191  13.916   9.302
20735SOL    HW164037   5.099  13.937   9.319
20735SOL    HW264038   5.193  13.820   9.294
20736SOL     OW64039   8.539   2.503   6.924
20736SOL    HW164040   8.534   2.423   6.872
20736SOL    HW264041   8.539   2.472   7.015
20737SOL     OW64042  13.394   5.226   1.241
20737SOL    HW164043  13.412   5.309   1.198
20737SOL    HW264044  13.338   5.250   1.315
20738SOL     OW64045  13.019  12.791   6.896
20738SOL    HW164046  12.936  12.750   6.871
20738SOL    HW264047  12.994  12.865   6.951
20739SOL     OW64048   3.421   1.235   2.224
20739SOL    HW164049   3.490   1.298   2.201
20739SOL    HW264050   3.340   1.277   2.195
20740SOL     OW64051   1.697   7.842  11.750
20740SOL    HW164052   1.632   7.813  11.686
20740SOL    HW264053   1.742   7.915  11.707
20741SOL     OW64054   4.380   1.841   9.706
20741SOL    HW164055   4.420   1.830   9.620
20741SOL    HW264056   4.442   1.895   9.755
20742SOL     OW64057   0.565   5.636   1.275
20742SOL    HW164058   0.526   5.640   1.188
20742SOL    HW264059   0.620   5.557   1.272
20743SOL     OW64060   7.540   9.732   4.606
20743SOL    HW164061   7.617   9.776   4.642
20743SOL    HW264062   7.479   9.802   4.585
20744SOL     OW64063  12.686   5.293  11.247
20744SOL    HW164064  12.625   5.237  11.200
20744SOL    HW264065  12.770   5.248  11.243
20745SOL     OW64066   1.886  14.629   7.275
20745SOL    HW164067   1.823  14.665   7.212
20745SOL    HW264068   1.950  14.699   7.287
20746SOL     OW64069  13.984  10.429   1.954
20746SOL    HW164070  14.014  10.444   2.044
20746SOL    HW264071  13.937  10.509   1.930
20747SOL     OW64072   1.270   1.302   5.729
20747SOL    HW164073   1.221   1.309   5.648
20747SOL    HW264074   1.234   1.225   5.773
20748SOL     OW64075  14.488   1.328   0.030
20748SOL    HW164076  14.454   1.357   0.115
20748SOL    HW264077  14.503   1.234   0.041
20749SOL     OW64078   7.906   6.163   4.754
20749SOL    HW164079   7.999   6.183   4.741
20749SOL    HW264080   7.878   6.225   4.821
20750SOL     OW64081   6.960  14.037   2.322
20750SOL    HW164082   6.887  14.054   2.382
20750SOL    HW264083   6.955  14.107   2.257
20751SOL     OW64084   4.976   9.432  10.201
20751SOL    HW164085   4.970   9.528  10.198
20751SOL    HW264086   5.044   9.410  10.138
20752SOL     OW64087   6.213  14.206   9.552
20752SOL    HW164088   6.304  14.235   9.558
20752SOL    HW264089   6.162  14.287   9.550
20753SOL     OW64090  12.699  13.274  14.792
20753SOL    HW164091  12.739  13.187  14.791
20753SOL    HW264092  12.749  13.324  14.727
20754SOL     OW64093   6.706  13.622   2.930
20754SOL    HW164094   6.677  13.536   2.899
20754SOL    HW264095   6.635  13.652   2.987
20755SOL     OW64096   4.131   9.880  11.536
20755SOL    HW164097   4.098   9.922  11.615
20755SOL    HW264098   4.181   9.948  11.491
20756SOL     OW64099  10.507  12.076  12.237
20756SOL    HW164100  10.509  12.171  12.251
20756SOL    HW264101  10.414  12.054  12.241
20757SOL     OW64102   8.492   2.650   5.874
20757SOL    HW164103   8.529   2.570   5.836
20757SOL    HW264104   8.460   2.623   5.960
20758SOL     OW64105  10.985  11.700  11.435
20758SOL    HW164106  10.979  11.764  11.364
20758SOL    HW264107  11.060  11.646  11.413
20759SOL     OW64108  10.510  13.352   9.175
20759SOL    HW164109  10.435  13.357   9.116
20759SOL    HW264110  10.516  13.259   9.199
20760SOL     OW64111  14.608  10.538  14.357
20760SOL    HW164112  14.534  10.479  14.370
20760SOL    HW264113  14.607  10.558  14.264
20761SOL     OW64114   7.727  12.877   6.277
20761SOL    HW164115   7.730  12.956   6.332
20761SOL    HW264116   7.640  12.840   6.294
20762SOL     OW64117   5.380   7.236   7.192
20762SOL    HW164118   5.370   7.168   7.125
20762SOL    HW264119   5.472   7.230   7.218
20763SOL     OW64120  11.581   5.734  11.938
20763SOL    HW164121  11.563   5.806  11.998
20763SOL    HW264122  11.503   5.729  11.882
20764SOL     OW64123   0.853   1.536   0.321
20764SOL    HW164124   0.860   1.582   0.238
20764SOL    HW264125   0.935   1.557   0.367
20765SOL     OW64126  11.220   3.006  10.008
20765SOL    HW164127  11.153   2.943   9.979
20765SOL    HW264128  11.183   3.091   9.985
20766SOL     OW64129   2.568   3.744   8.546
20766SOL    HW164130   2.478   3.772   8.563
20766SOL    HW264131   2.602   3.809   8.485
20767SOL     OW64132   4.131   7.670   3.951
20767SOL    HW164133   4.129   7.756   3.994
20767SOL    HW264134   4.163   7.610   4.019
20768SOL     OW64135   3.471  12.997  11.459
20768SOL    HW164136   3.558  13.036  11.470
20768SOL    HW264137   3.410  13.068  11.481
20769SOL     OW64138   3.900   4.033  14.867
20769SOL    HW164139   3.809   4.047  14.841
20769SOL    HW264140   3.908   4.081   0.074
20770SOL     OW64141  10.065  13.378   4.203
20770SOL    HW164142  10.088  13.299   4.252
20770SOL    HW264143  10.076  13.449   4.267
20771SOL     OW64144  11.538  12.149   0.735
20771SOL    HW164145  11.455  12.146   0.687
20771SOL    HW264146  11.532  12.228   0.788
20772SOL     OW64147   3.003   7.758  11.245
20772SOL    HW164148   3.061   7.788  11.175
20772SOL    HW264149   3.055   7.694  11.294
20773SOL     OW64150   6.107   1.006   2.858
20773SOL    HW164151   6.073   0.929   2.812
20773SOL    HW264152   6.088   0.990   2.950
20774SOL     OW64153   5.588  11.416   9.527
20774SOL    HW164154   5.643  11.343   9.555
20774SOL    HW264155   5.650  11.487   9.509
20775SOL     OW64156   5.509   5.178  12.836
20775SOL    HW164157   5.560   5.192  12.916
20775SOL    HW264158   5.514   5.084  12.820
20776SOL     OW64159   3.976   6.387   0.681
20776SOL    HW164160   3.986   6.332   0.603
20776SOL    HW264161   3.904   6.446   0.659
20777SOL     OW64162   2.256   0.209  14.340
20777SOL    HW164163   2.301   0.268  14.279
20777SOL    HW264164   2.325   0.180  14.400
20778SOL     OW64165   8.321   2.193   9.218
20778SOL    HW164166   8.260   2.262   9.190
20778SOL    HW264167   8.406   2.237   9.222
20779SOL     OW64168   8.362   4.738   4.172
20779SOL    HW164169   8.366   4.820   4.222
20779SOL    HW264170   8.394   4.761   4.085
20780SOL     OW64171   0.414   9.656   3.030
20780SOL    HW164172   0.350   9.585   3.037
20780SOL    HW264173   0.387   9.719   3.097
20781SOL     OW64174  14.049   1.203   7.859
20781SOL    HW164175  14.100   1.195   7.778
20781SOL    HW264176  14.071   1.289   7.893
20782SOL     OW64177   7.408  12.038   2.214
20782SOL    HW164178   7.349  12.016   2.287
20782SOL    HW264179   7.494  12.006   2.242
20783SOL     OW64180   4.585  13.882   6.585
20783SOL    HW164181   4.519  13.825   6.545
20783SOL    HW264182   4.537  13.931   6.652
20784SOL     OW64183   5.347   8.693  13.024
20784SOL    HW164184   5.371   8.733  12.940
20784SOL    HW264185   5.300   8.761  13.071
20785SOL     OW64186   4.787   5.462   3.257
20785SOL    HW164187   4.719   5.496   3.199
20785SOL    HW264188   4.745   5.460   3.344
20786SOL     OW64189   2.441   2.119   2.223
20786SOL    HW164190   2.355   2.077   2.224
20786SOL    HW264191   2.444   2.170   2.304
20787SOL     OW64192   9.588  11.485   6.762
20787SOL    HW164193   9.630  11.559   6.717
20787SOL    HW264194   9.540  11.525   6.835
20788SOL     OW64195   2.599   2.679  13.985
20788SOL    HW164196   2.682   2.720  14.009
20788SOL    HW264197   2.540   2.752  13.967
20789SOL     OW64198   6.149   2.288  12.423
20789SOL    HW164199   6.159   2.383  12.430
20789SOL    HW264200   6.055   2.275  12.414
20790SOL     OW64201  14.627   2.290   5.388
20790SOL    HW164202  14.671   2.289   5.473
20790SOL    HW264203  14.663   2.215   5.341
20791SOL     OW64204  11.112   4.433  11.981
20791SOL    HW164205  11.134   4.493  11.910
20791SOL    HW264206  11.196   4.397  12.009
20792SOL     OW64207  10.220   6.679   7.468
20792SOL    HW164208  10.246   6.644   7.554
20792SOL    HW264209  10.299   6.720   7.434
20793SOL     OW64210   6.922   0.466   1.002
20793SOL    HW164211   7.018   0.465   1.004
20793SOL    HW264212   6.896   0.409   1.075
20794SOL     OW64213   7.414   4.509   9.854
20794SOL    HW164214   7.417   4.423   9.896
20794SOL    HW264215   7.504   4.541   9.860
20795SOL     OW64216  13.489   0.454  13.777
20795SOL    HW164217  13.497   0.380  13.837
20795SOL    HW264218  13.462   0.414  13.694
20796SOL     OW64219   0.470   1.446  14.334
20796SOL    HW164220   0.470   1.474  14.242
20796SOL    HW264221   0.554   1.477  14.368
20797SOL     OW64222   6.064  13.082   1.291
20797SOL    HW164223   6.105  13.164   1.264
20797SOL    HW264224   6.094  13.069   1.381
20798SOL     OW64225  10.807   0.429  14.357
20798SOL    HW164226  10.763   0.458  14.437
20798SOL    HW264227  10.746   0.366  14.318
20799SOL     OW64228   5.349  12.191  12.030
20799SOL    HW164229   5.431  12.234  12.053
20799SOL    HW264230   5.374  12.120  11.971
20800SOL     OW64231  12.053   8.353   0.749
20800SOL    HW164232  12.000   8.373   0.827
20800SOL    HW264233  12.114   8.426   0.743
20801SOL     OW64234  11.670   9.565  13.764
20801SOL    HW164235  11.639   9.516  13.839
20801SOL    HW264236  11.707   9.645  13.801
20802SOL     OW64237  13.607   7.459   3.717
20802SOL    HW164238  13.576   7.378   3.759
20802SOL    HW264239  13.554   7.528   3.757
20803SOL     OW64240  10.531   6.231  12.261
20803SOL    HW164241  10.597   6.300  12.257
20803SOL    HW264242  10.581   6.149  12.257
20804SOL     OW64243  10.558   2.013   0.808
20804SOL    HW164244  10.531   2.075   0.741
20804SOL    HW264245  10.555   2.063   0.890
20805SOL     OW64246   4.843   5.432  10.617
20805SOL    HW164247   4.925   5.422  10.570
20805SOL    HW264248   4.856   5.385  10.699
20806SOL     OW64249   6.941   9.604   9.747
20806SOL    HW164250   6.990   9.560   9.678
20806SOL    HW264251   6.905   9.533   9.800
20807SOL     OW64252   0.998   9.920   7.988
20807SOL    HW164253   0.914   9.945   8.026
20807SOL    HW264254   0.994   9.824   7.983
20808SOL     OW64255   5.805   2.415   4.860
20808SOL    HW164256   5.785   2.324   4.882
20808SOL    HW264257   5.860   2.409   4.782
20809SOL     OW64258  12.850  14.776  12.855
20809SOL    HW164259  12.757  14.790  12.836
20809SOL    HW264260  12.886  14.864  12.868
20810SOL     OW64261  13.918   5.108  14.590
20810SOL    HW164262  13.994   5.119  14.532
20810SOL    HW264263  13.929   5.021  14.628
20811SOL     OW64264   4.798   6.891   2.699
20811SOL    HW164265   4.748   6.830   2.753
20811SOL    HW264266   4.878   6.844   2.677
20812SOL     OW64267   4.735   9.886   3.394
20812SOL    HW164268   4.752   9.912   3.303
20812SOL    HW264269   4.720   9.792   3.389
20813SOL     OW64270   7.769   6.138   7.689
20813SOL    HW164271   7.692   6.093   7.654
20813SOL    HW264272   7.842   6.078   7.669
20814SOL     OW64273   7.178  11.515  13.729
20814SOL    HW164274   7.262  11.477  13.705
20814SOL    HW264275   7.197  11.570  13.805
20815SOL     OW64276   6.236   2.853   1.055
20815SOL    HW164277   6.175   2.861   1.128
20815SOL    HW264278   6.320   2.835   1.097
20816SOL     OW64279   3.164   6.549   8.995
20816SOL    HW164280   3.189   6.551   9.087
20816SOL    HW264281   3.076   6.588   8.993
20817SOL     OW64282  12.495  10.810  10.547
20817SOL    HW164283  12.590  10.798  10.557
20817SOL    HW264284  12.484  10.905  10.540
20818SOL     OW64285   4.982   7.451  13.271
20818SOL    HW164286   5.061   7.499  13.294
20818SOL    HW264287   4.987   7.439  13.176
20819SOL     OW64288   0.082   3.557   4.917
20819SOL    HW164289   0.047   3.549   5.006
20819SOL    HW264290   0.046   3.482   4.870
20820SOL     OW64291   1.460  11.798   7.729
20820SOL    HW164292   1.421  11.762   7.808
20820SOL    HW264293   1.463  11.892   7.744
20821SOL     OW64294   6.597   8.992  12.844
20821SOL    HW164295   6.502   8.997  12.837
20821SOL    HW264296   6.621   9.065  12.901
20822SOL     OW64297  11.770   4.026   9.351
20822SOL    HW164298  11.702   3.958   9.352
20822SOL    HW264299  11.796   4.032   9.259
20823SOL     OW64300   3.263  12.816   8.728
20823SOL    HW164301   3.247  12.910   8.719
20823SOL    HW264302   3.220  12.777   8.652
20824SOL     OW64303   0.678   4.573   8.941
20824SOL    HW164304   0.699   4.660   8.974
20824SOL    HW264305   0.647   4.525   9.018
20825SOL     OW64306   0.063   6.722   3.178
20825SOL    HW164307   0.150   6.687   3.162
20825SOL    HW264308   0.033   6.678   3.258
20826SOL     OW64309  10.065   2.446  11.858
20826SOL    HW164310  10.027   2.433  11.771
20826SOL    HW264311  10.037   2.534  11.884
20827SOL     OW64312   6.559   6.058   9.796
20827SOL    HW164313   6.503   6.074   9.720
20827SOL    HW264314   6.597   6.144   9.816
20828SOL     OW64315   8.701   9.115  14.424
20828SOL    HW164316   8.721   9.200  14.463
20828SOL    HW264317   8.649   9.135  14.346
20829SOL     OW64318   4.038  12.512  13.915
20829SOL    HW164319   4.086  12.574  13.860
20829SOL    HW264320   4.066  12.532  14.004
20830SOL     OW64321   3.181   4.758   2.629
20830SOL    HW164322   3.109   4.695   2.623
20830SOL    HW264323   3.150   4.834   2.581
20831SOL     OW64324   9.761   9.404   3.993
20831SOL    HW164325   9.814   9.436   3.920
20831SOL    HW264326   9.818   9.340   4.037
20832SOL     OW64327   0.648  14.067   3.356
20832SOL    HW164328   0.588  14.000   3.389
20832SOL    HW264329   0.728  14.020   3.335
20833SOL     OW64330   1.468   5.955   3.038
20833SOL    HW164331   1.512   6.002   2.967
20833SOL    HW264332   1.403   6.017   3.071
20834SOL     OW64333  14.444  12.457   2.769
20834SOL    HW164334  14.532  12.482   2.799
20834SOL    HW264335  14.448  12.362   2.759
20835SOL     OW64336  12.116   3.806   0.496
20835SOL    HW164337  12.112   3.874   0.563
20835SOL    HW264338  12.026   3.773   0.489
20836SOL     OW64339   0.824   9.176  13.439
20836SOL    HW164340   0.872   9.130  13.369
20836SOL    HW264341   0.800   9.260  13.400
20837SOL     OW64342   0.928   8.275   1.505
20837SOL    HW164343   0.994   8.207   1.490
20837SOL    HW264344   0.913   8.313   1.419
20838SOL     OW64345   8.352  11.336   4.098
20838SOL    HW164346   8.286  11.327   4.029
20838SOL    HW264347   8.436  11.338   4.050
20839SOL     OW64348   8.406   9.921  14.834
20839SOL    HW164349   8.382   9.899   0.048
20839SOL    HW264350   8.457   9.846  14.804
20840SOL     OW64351  11.197   6.288   3.353
20840SOL    HW164352  11.240   6.361   3.309
20840SOL    HW264353  11.240   6.284   3.439
20841SOL     OW64354   1.401   5.653  13.582
20841SOL    HW164355   1.404   5.734  13.632
20841SOL    HW264356   1.320   5.658  13.532
20842SOL     OW64357  12.654   6.354   2.201
20842SOL    HW164358  12.733   6.406   2.185
20842SOL    HW264359  12.582   6.409   2.169
20843SOL     OW64360  10.478   2.763  10.743
20843SOL    HW164361  10.510   2.842  10.787
20843SOL    HW264362  10.401   2.738  10.794
20844SOL     OW64363   3.597   3.712   0.501
20844SOL    HW164364   3.569   3.776   0.436
20844SOL    HW264365   3.687   3.734   0.521
20845SOL     OW64366  11.651  11.398   4.472
20845SOL    HW164367  11.740  11.398   4.506
20845SOL    HW264368  11.662  11.394   4.377
20846SOL     OW64369   8.911   1.818   3.908
20846SOL    HW164370   8.916   1.787   3.999
20846SOL    HW264371   8.996   1.796   3.871
20847SOL     OW64372   6.445  14.273  13.042
20847SOL    HW164373   6.386  14.303  12.973
20847SOL    HW264374   6.432  14.178  13.046
20848SOL     OW64375   1.035   6.126   6.753
20848SOL    HW164376   1.078   6.041   6.742
20848SOL    HW264377   1.056   6.152   6.843
20849SOL     OW64378  11.317   0.687  14.468
20849SOL    HW164379  11.309   0.733  14.552
20849SOL    HW264380  11.227   0.670  14.442
20850SOL     OW64381   7.316   4.619  11.972
20850SOL    HW164382   7.393   4.649  11.923
20850SOL    HW264383   7.322   4.663  12.056
20851SOL     OW64384  11.845   7.689  11.399
20851SOL    HW164385  11.927   7.697  11.350
20851SOL    HW264386  11.808   7.606  11.370
20852SOL     OW64387  14.601  11.094   1.171
20852SOL    HW164388  14.510  11.067   1.155
20852SOL    HW264389  14.604  11.111   1.265
20853SOL     OW64390   4.106  12.254   8.512
20853SOL    HW164391   4.014  12.245   8.489
20853SOL    HW264392   4.106  12.260   8.608
20854SOL     OW64393   7.155  13.022  14.595
20854SOL    HW164394   7.065  13.013  14.563
20854SOL    HW264395   7.159  13.111  14.629
20855SOL     OW64396   0.269  13.510   8.244
20855SOL    HW164397   0.243  13.570   8.173
20855SOL    HW264398   0.348  13.549   8.280
20856SOL     OW64399  13.120   0.911   0.542
20856SOL    HW164400  13.122   0.829   0.591
20856SOL    HW264401  13.153   0.887   0.455
20857SOL     OW64402   5.152  11.384   6.793
20857SOL    HW164403   5.102  11.365   6.714
20857SOL    HW264404   5.184  11.299   6.822
20858SOL     OW64405   1.410   6.455  13.314
20858SOL    HW164406   1.399   6.550  13.303
20858SOL    HW264407   1.368   6.417  13.236
20859SOL     OW64408   9.168   1.033   9.911
20859SOL    HW164409   9.144   1.046   9.819
20859SOL    HW264410   9.180   0.939   9.920
20860SOL     OW64411   4.649   5.846  11.005
20860SOL    HW164412   4.730   5.895  11.019
20860SOL    HW264413   4.673   5.774  10.947
20861SOL     OW64414   6.928   0.141   8.551
20861SOL    HW164415   6.969   0.088   8.482
20861SOL    HW264416   6.989   0.138   8.624
20862SOL     OW64417   3.628   6.129   6.937
20862SOL    HW164418   3.582   6.171   7.009
20862SOL    HW264419   3.662   6.202   6.885
20863SOL     OW64420   3.731   0.940   0.153
20863SOL    HW164421   3.702   0.876   0.089
20863SOL    HW264422   3.659   0.947   0.215
20864SOL     OW64423   6.279   0.658  10.323
20864SOL    HW164424   6.336   0.586  10.294
20864SOL    HW264425   6.277   0.650  10.419
20865SOL     OW64426   4.505   0.339   2.811
20865SOL    HW164427   4.556   0.264   2.779
20865SOL    HW264428   4.424   0.337   2.759
20866SOL     OW64429   1.254   7.930   9.005
20866SOL    HW164430   1.322   7.996   8.994
20866SOL    HW264431   1.174   7.980   9.022
20867SOL     OW64432  12.967   5.300   1.578
20867SOL    HW164433  12.966   5.363   1.651
20867SOL    HW264434  12.959   5.215   1.620
20868SOL     OW64435   6.442   1.598   5.821
20868SOL    HW164436   6.360   1.616   5.866
20868SOL    HW264437   6.472   1.515   5.859
20869SOL     OW64438   8.222  10.592  13.323
20869SOL    HW164439   8.218  10.645  13.244
20869SOL    HW264440   8.146  10.534  13.318
20870SOL     OW64441   7.242   0.728   7.303
20870SOL    HW164442   7.237   0.637   7.273
20870SOL    HW264443   7.173   0.773   7.255
20871SOL     OW64444   3.074  11.512   9.839
20871SOL    HW164445   3.101  11.491   9.928
20871SOL    HW264446   3.070  11.607   9.837
20872SOL     OW64447  13.853  14.186   4.837
20872SOL    HW164448  13.765  14.167   4.805
20872SOL    HW264449  13.861  14.281   4.829
20873SOL     OW64450   3.020   6.881   5.142
20873SOL    HW164451   2.974   6.934   5.076
20873SOL    HW264452   3.072   6.819   5.091
20874SOL     OW64453   6.550   2.231   3.574
20874SOL    HW164454   6.626   2.277   3.539
20874SOL    HW264455   6.585   2.178   3.645
20875SOL     OW64456   8.716   7.772   4.168
20875SOL    HW164457   8.744   7.845   4.113
20875SOL    HW264458   8.622   7.788   4.182
20876SOL     OW64459   2.194   8.271   4.515
20876SOL    HW164460   2.118   8.320   4.545
20876SOL    HW264461   2.166   8.180   4.513
20877SOL     OW64462   4.951  12.655  12.819
20877SOL    HW164463   4.994  12.738  12.838
20877SOL    HW264464   4.973  12.635  12.728
20878SOL     OW64465   3.110   6.180   2.742
20878SOL    HW164466   3.199   6.158   2.771
20878SOL    HW264467   3.124   6.245   2.673
20879SOL     OW64468   4.288   7.530  11.082
20879SOL    HW164469   4.307   7.519  10.989
20879SOL    HW264470   4.273   7.624  11.092
20880SOL     OW64471   4.951   8.281  10.790
20880SOL    HW164472   4.994   8.367  10.797
20880SOL    HW264473   4.993   8.239  10.715
20881SOL     OW64474  13.575   0.015  13.588
20881SOL    HW164475  13.640   0.053  13.647
20881SOL    HW264476  13.594  14.797  13.589
20882SOL     OW64477   8.606   9.325   7.381
20882SOL    HW164478   8.659   9.372   7.317
20882SOL    HW264479   8.520   9.367   7.377
20883SOL     OW64480   0.374   0.124   2.172
20883SOL    HW164481   0.355   0.210   2.210
20883SOL    HW264482   0.288   0.087   2.151
20884SOL     OW64483   8.106   4.061   4.329
20884SOL    HW164484   8.202   4.054   4.323
20884SOL    HW264485   8.087   4.145   4.287
20885SOL     OW64486  10.779   9.121   3.178
20885SOL    HW164487  10.872   9.100   3.177
20885SOL    HW264488  10.775   9.214   3.155
20886SOL     OW64489   1.528   9.775  10.963
20886SOL    HW164490   1.560   9.823  11.040
20886SOL    HW264491   1.542   9.683  10.985
20887SOL     OW64492   2.989  14.194  13.721
20887SOL    HW164493   2.904  14.164  13.753
20887SOL    HW264494   3.051  14.129  13.754
20888SOL     OW64495   6.775  12.943   2.033
20888SOL    HW164496   6.745  12.865   1.986
20888SOL    HW264497   6.721  13.014   1.998
20889SOL     OW64498   4.074   4.059  12.489
20889SOL    HW164499   4.161   4.079  12.522
20889SOL    HW264500   4.051   3.976  12.530
20890SOL     OW64501  13.198   3.668  10.200
20890SOL    HW164502  13.292   3.677  10.184
20890SOL    HW264503  13.170   3.599  10.139
20891SOL     OW64504   4.830   8.903   0.900
20891SOL    HW164505   4.811   8.809   0.899
20891SOL    HW264506   4.892   8.915   0.971
20892SOL     OW64507   9.435  12.162   0.237
20892SOL    HW164508   9.441  12.104   0.161
20892SOL    HW264509   9.376  12.232   0.210
20893SOL     OW64510   7.087   0.162  11.201
20893SOL    HW164511   7.173   0.174  11.163
20893SOL    HW264512   7.102   0.105  11.277
20894SOL     OW64513   5.586   2.425   5.198
20894SOL    HW164514   5.663   2.444   5.252
20894SOL    HW264515   5.512   2.453   5.253
20895SOL     OW64516   9.963   0.658   2.978
20895SOL    HW164517  10.032   0.689   2.920
20895SOL    HW264518   9.892   0.634   2.919
20896SOL     OW64519  10.275  10.572  11.493
20896SOL    HW164520  10.287  10.666  11.483
20896SOL    HW264521  10.238  10.543  11.409
20897SOL     OW64522   1.768   7.832   2.919
20897SOL    HW164523   1.692   7.886   2.896
20897SOL    HW264524   1.822   7.833   2.840
20898SOL     OW64525   0.313  12.200   3.028
20898SOL    HW164526   0.296  12.283   3.072
20898SOL    HW264527   0.391  12.166   3.072
20899SOL     OW64528  13.935   9.779   7.112
20899SOL    HW164529  14.028   9.759   7.117
20899SOL    HW264530  13.916   9.784   7.019
20900SOL     OW64531   2.482   9.891   9.614
20900SOL    HW164532   2.569   9.931   9.608
20900SOL    HW264533   2.485   9.817   9.554
20901SOL     OW64534   3.006  10.748  14.740
20901SOL    HW164535   3.063  10.698  14.798
20901SOL    HW264536   3.054  10.752  14.657
20902SOL     OW64537   1.929   9.639   1.825
20902SOL    HW164538   1.843   9.668   1.794
20902SOL    HW264539   1.912   9.605   1.913
20903SOL     OW64540   8.416   5.424  12.594
20903SOL    HW164541   8.335   5.401  12.639
20903SOL    HW264542   8.468   5.343  12.595
20904SOL     OW64543   2.443   0.223   9.285
20904SOL    HW164544   2.406   0.171   9.214
20904SOL    HW264545   2.473   0.159   9.349
20905SOL     OW64546  12.484  14.191   4.545
20905SOL    HW164547  12.427  14.166   4.472
20905SOL    HW264548  12.495  14.110   4.595
20906SOL     OW64549  11.300   1.587   4.125
20906SOL    HW164550  11.271   1.676   4.105
20906SOL    HW264551  11.393   1.595   4.146
20907SOL     OW64552  12.965   1.932   1.019
20907SOL    HW164553  12.872   1.919   0.998
20907SOL    HW264554  13.011   1.862   0.974
20908SOL     OW64555   8.231   1.715   3.799
20908SOL    HW164556   8.213   1.777   3.728
20908SOL    HW264557   8.248   1.771   3.875
20909SOL     OW64558   4.611   5.338   1.572
20909SOL    HW164559   4.652   5.276   1.511
20909SOL    HW264560   4.580   5.410   1.516
20910SOL     OW64561   1.624   1.355  10.469
20910SOL    HW164562   1.613   1.421  10.400
20910SOL    HW264563   1.566   1.383  10.539
20911SOL     OW64564  12.438   4.787   7.123
20911SOL    HW164565  12.348   4.777   7.156
20911SOL    HW264566  12.466   4.872   7.157
20912SOL     OW64567  13.337   8.475   0.064
20912SOL    HW164568  13.291   8.441   0.141
20912SOL    HW264569  13.297   8.561   0.049
20913SOL     OW64570   7.092   6.016   8.651
20913SOL    HW164571   7.093   5.978   8.739
20913SOL    HW264572   7.000   6.040   8.636
20914SOL     OW64573  13.300   8.623   8.710
20914SOL    HW164574  13.304   8.711   8.673
20914SOL    HW264575  13.385   8.611   8.753
20915SOL     OW64576  13.934  12.319  14.776
20915SOL    HW164577  13.969  12.388  14.720
20915SOL    HW264578  13.906  12.365  14.856
20916SOL     OW64579   0.925  12.611   4.627
20916SOL    HW164580   0.928  12.579   4.537
20916SOL    HW264581   0.879  12.543   4.675
20917SOL     OW64582   9.203  13.236  10.963
20917SOL    HW164583   9.195  13.156  11.015
20917SOL    HW264584   9.112  13.259  10.940
20918SOL     OW64585   1.225   2.690  11.320
20918SOL    HW164586   1.184   2.663  11.403
20918SOL    HW264587   1.284   2.761  11.345
20919SOL     OW64588   3.702   7.076   7.625
20919SOL    HW164589   3.682   7.169   7.613
20919SOL    HW264590   3.616   7.034   7.632
20920SOL     OW64591   3.816   3.433   9.823
20920SOL    HW164592   3.818   3.354   9.769
20920SOL    HW264593   3.891   3.485   9.792
20921SOL     OW64594  11.995   1.416  14.289
20921SOL    HW164595  12.022   1.507  14.276
20921SOL    HW264596  11.907   1.411  14.251
20922SOL     OW64597  13.426   8.770   3.214
20922SOL    HW164598  13.506   8.719   3.227
20922SOL    HW264599  13.425   8.793   3.121
20923SOL     OW64600   3.473   2.618  13.828
20923SOL    HW164601   3.545   2.615  13.890
20923SOL    HW264602   3.431   2.703  13.844
20924SOL     OW64603  11.435   6.407  12.740
20924SOL    HW164604  11.407   6.347  12.671
20924SOL    HW264605  11.530   6.395  12.745
20925SOL     OW64606  10.011  12.486   3.109
20925SOL    HW164607   9.968  12.543   3.046
20925SOL    HW264608  10.047  12.545   3.175
20926SOL     OW64609  11.697  10.063   8.113
20926SOL    HW164610  11.606  10.050   8.088
20926SOL    HW264611  11.719   9.986   8.165
20927SOL     OW64612  14.013   7.908   8.767
20927SOL    HW164613  13.972   7.868   8.844
20927SOL    HW264614  14.099   7.938   8.799
20928SOL     OW64615   2.002  12.890  10.296
20928SOL    HW164616   2.020  12.799  10.317
20928SOL    HW264617   1.918  12.888  10.250
20929SOL     OW64618  10.158   2.061   8.103
20929SOL    HW164619  10.111   2.123   8.159
20929SOL    HW264620  10.094   1.994   8.082
20930SOL     OW64621  13.623   1.037   2.644
20930SOL    HW164622  13.626   1.126   2.608
20930SOL    HW264623  13.651   0.981   2.572
20931SOL     OW64624  11.972   4.715   7.298
20931SOL    HW164625  11.917   4.639   7.275
20931SOL    HW264626  11.909   4.782   7.326
20932SOL     OW64627  10.637   4.177   9.990
20932SOL    HW164628  10.566   4.239   9.974
20932SOL    HW264629  10.613   4.100   9.938
20933SOL     OW64630   0.390   6.877  13.298
20933SOL    HW164631   0.480   6.847  13.312
20933SOL    HW264632   0.395   6.934  13.222
20934SOL     OW64633  11.542   2.912   9.192
20934SOL    HW164634  11.603   2.944   9.258
20934SOL    HW264635  11.456   2.920   9.232
20935SOL     OW64636  13.350   3.295   4.291
20935SOL    HW164637  13.303   3.212   4.303
20935SOL    HW264638  13.305   3.337   4.218
20936SOL     OW64639   2.060   4.454   9.527
20936SOL    HW164640   2.103   4.377   9.491
20936SOL    HW264641   2.131   4.515   9.546
20937SOL     OW64642   5.483   8.389   9.279
20937SOL    HW164643   5.416   8.376   9.346
20937SOL    HW264644   5.436   8.382   9.196
20938SOL     OW64645   3.353   5.060   3.462
20938SOL    HW164646   3.296   5.084   3.389
20938SOL    HW264647   3.434   5.031   3.421
20939SOL     OW64648   5.691  11.639   1.348
20939SOL    HW164649   5.611  11.594   1.374
20939SOL    HW264650   5.749  11.568   1.317
20940SOL     OW64651   7.691   1.613  10.180
20940SOL    HW164652   7.780   1.645  10.196
20940SOL    HW264653   7.673   1.638  10.090
20941SOL     OW64654  13.648   8.507  11.837
20941SOL    HW164655  13.732   8.523  11.880
20941SOL    HW264656  13.669   8.509  11.743
20942SOL     OW64657   9.167  13.305   0.104
20942SOL    HW164658   9.247  13.358   0.110
20942SOL    HW264659   9.105  13.361   0.056
20943SOL     OW64660   4.953   9.270  11.375
20943SOL    HW164661   4.860   9.263  11.351
20943SOL    HW264662   4.997   9.295  11.293
20944SOL     OW64663   4.441   8.721  10.065
20944SOL    HW164664   4.461   8.772   9.986
20944SOL    HW264665   4.346   8.727  10.073
20945SOL     OW64666  12.939   4.612   5.846
20945SOL    HW164667  12.968   4.702   5.863
20945SOL    HW264668  13.001   4.579   5.781
20946SOL     OW64669  11.746   7.177   7.037
20946SOL    HW164670  11.818   7.206   6.980
20946SOL    HW264671  11.668   7.187   6.983
20947SOL     OW64672   8.047   7.337   7.666
20947SOL    HW164673   8.131   7.371   7.635
20947SOL    HW264674   8.023   7.271   7.601
20948SOL     OW64675   6.233  13.476  10.874
20948SOL    HW164676   6.292  13.465  10.799
20948SOL    HW264677   6.233  13.390  10.917
20949SOL     OW64678  10.728  13.205  14.066
20949SOL    HW164679  10.702  13.284  14.113
20949SOL    HW264680  10.763  13.147  14.134
20950SOL     OW64681  10.230   7.245   8.932
20950SOL    HW164682  10.258   7.237   9.023
20950SOL    HW264683  10.290   7.188   8.883
20951SOL     OW64684   5.604   4.275   7.197
20951SOL    HW164685   5.677   4.214   7.197
20951SOL    HW264686   5.581   4.285   7.290
20952SOL     OW64687  11.747   5.984   7.839
20952SOL    HW164688  11.814   5.968   7.905
20952SOL    HW264689  11.715   5.898   7.815
20953SOL     OW64690   7.942   7.861   8.666
20953SOL    HW164691   7.869   7.805   8.695
20953SOL    HW264692   8.016   7.834   8.720
20954SOL     OW64693   7.624  11.352  13.016
20954SOL    HW164694   7.685  11.326  12.947
20954SOL    HW264695   7.599  11.441  12.994
20955SOL     OW64696   2.402  11.630   2.592
20955SOL    HW164697   2.365  11.657   2.676
20955SOL    HW264698   2.343  11.560   2.562
20956SOL     OW64699  10.195   9.569   8.995
20956SOL    HW164700  10.238   9.486   8.977
20956SOL    HW264701  10.131   9.549   9.063
20957SOL     OW64702   5.383  10.864  11.886
20957SOL    HW164703   5.417  10.866  11.797
20957SOL    HW264704   5.428  10.790  11.927
20958SOL     OW64705  12.953   5.732   6.591
20958SOL    HW164706  12.982   5.702   6.677
20958SOL    HW264707  13.027   5.781   6.557
20959SOL     OW64708   5.621   6.926  14.046
20959SOL    HW164709   5.619   6.858  13.980
20959SOL    HW264710   5.533   6.964  14.045
20960SOL     OW64711  14.414  12.465  10.013
20960SOL    HW164712  14.341  12.471  10.074
20960SOL    HW264713  14.419  12.552   9.974
20961SOL     OW64714  13.782  14.866   7.839
20961SOL    HW164715  13.708  14.806   7.837
20961SOL    HW264716  13.859  14.809   7.831
20962SOL     OW64717  13.480   2.445  14.641
20962SOL    HW164718  13.468   2.459  14.548
20962SOL    HW264719  13.502   2.352  14.649
20963SOL     OW64720   8.235  12.058   0.788
20963SOL    HW164721   8.170  12.129   0.788
20963SOL    HW264722   8.230  12.022   0.699
20964SOL     OW64723   8.742   2.927   4.044
20964SOL    HW164724   8.778   2.848   4.004
20964SOL    HW264725   8.649   2.924   4.025
20965SOL     OW64726  12.901  13.228   1.589
20965SOL    HW164727  12.913  13.312   1.545
20965SOL    HW264728  12.947  13.165   1.533
20966SOL     OW64729   5.363  10.535   0.882
20966SOL    HW164730   5.388  10.480   0.955
20966SOL    HW264731   5.268  10.543   0.888
20967SOL     OW64732  13.245   9.452   1.104
20967SOL    HW164733  13.273   9.361   1.095
20967SOL    HW264734  13.326   9.503   1.098
20968SOL     OW64735   6.518   0.778   3.080
20968SOL    HW164736   6.455   0.845   3.107
20968SOL    HW264737   6.472   0.695   3.092
20969SOL     OW64738   6.130  10.119   3.620
20969SOL    HW164739   6.153  10.074   3.701
20969SOL    HW264740   6.211  10.122   3.570
20970SOL     OW64741   3.526   9.515   9.329
20970SOL    HW164742   3.551   9.592   9.379
20970SOL    HW264743   3.527   9.443   9.393
20971SOL     OW64744   9.908   1.453  14.196
20971SOL    HW164745   9.819   1.425  14.218
20971SOL    HW264746   9.962   1.376  14.215
20972SOL     OW64747   1.362   1.367  10.115
20972SOL    HW164748   1.340   1.386  10.024
20972SOL    HW264749   1.329   1.278  10.130
20973SOL     OW64750  12.107  14.829   5.811
20973SOL    HW164751  12.107   0.030   5.868
20973SOL    HW264752  12.183  14.779   5.839
20974SOL     OW64753   9.576   6.033   9.189
20974SOL    HW164754   9.564   6.061   9.098
20974SOL    HW264755   9.639   5.960   9.183
20975SOL     OW64756   2.362   6.254   2.287
20975SOL    HW164757   2.404   6.195   2.349
20975SOL    HW264758   2.326   6.197   2.219
20976SOL     OW64759   5.727  12.215   2.678
20976SOL    HW164760   5.663  12.174   2.736
20976SOL    HW264761   5.674  12.265   2.615
20977SOL     OW64762  13.555   5.832   0.361
20977SOL    HW164763  13.611   5.909   0.375
20977SOL    HW264764  13.501   5.855   0.286
20978SOL     OW64765   3.872  12.295   1.001
20978SOL    HW164766   3.952  12.341   0.977
20978SOL    HW264767   3.829  12.352   1.064
20979SOL     OW64768   4.529  14.456   5.069
20979SOL    HW164769   4.512  14.391   5.138
20979SOL    HW264770   4.466  14.434   5.000
20980SOL     OW64771  12.590   8.291   5.101
20980SOL    HW164772  12.662   8.295   5.164
20980SOL    HW264773  12.511   8.289   5.156
20981SOL     OW64774  10.597   1.141   1.726
20981SOL    HW164775  10.611   1.053   1.760
20981SOL    HW264776  10.593   1.197   1.803
20982SOL     OW64777   8.989   4.587   3.765
20982SOL    HW164778   8.993   4.675   3.727
20982SOL    HW264779   8.945   4.599   3.849
20983SOL     OW64780   4.798  12.210  14.375
20983SOL    HW164781   4.748  12.193  14.456
20983SOL    HW264782   4.820  12.123  14.342
20984SOL     OW64783   6.103   1.899   1.228
20984SOL    HW164784   6.168   1.924   1.162
20984SOL    HW264785   6.025   1.950   1.205
20985SOL     OW64786   2.717  13.901   3.959
20985SOL    HW164787   2.803  13.938   3.979
20985SOL    HW264788   2.663  13.924   4.034
20986SOL     OW64789   5.567   0.139   7.803
20986SOL    HW164790   5.530   0.194   7.734
20986SOL    HW264791   5.492   0.098   7.845
20987SOL     OW64792   5.556  10.637   0.702
20987SOL    HW164793   5.575  10.723   0.739
20987SOL    HW264794   5.500  10.594   0.768
20988SOL     OW64795   3.384  14.568  10.685
20988SOL    HW164796   3.404  14.508  10.614
20988SOL    HW264797   3.324  14.632  10.647
20989SOL     OW64798   6.929   1.217   4.492
20989SOL    HW164799   6.851   1.259   4.528
20989SOL    HW264800   6.992   1.288   4.482
20990SOL     OW64801  14.436   0.653  12.943
20990SOL    HW164802  14.494   0.727  12.960
20990SOL    HW264803  14.422   0.613  13.028
20991SOL     OW64804   3.697   6.175   8.459
20991SOL    HW164805   3.698   6.224   8.377
20991SOL    HW264806   3.604   6.168   8.482
20992SOL     OW64807   5.636  10.731   0.973
20992SOL    HW164808   5.543  10.730   0.993
20992SOL    HW264809   5.678  10.763   1.053
20993SOL     OW64810   0.380  11.764   0.042
20993SOL    HW164811   0.468  11.802   0.044
20993SOL    HW264812   0.394  11.671   0.061
20994SOL     OW64813   5.350  12.512   9.653
20994SOL    HW164814   5.316  12.425   9.674
20994SOL    HW264815   5.401  12.500   9.573
20995SOL     OW64816   2.235   8.001   6.350
20995SOL    HW164817   2.145   8.034   6.352
20995SOL    HW264818   2.226   7.906   6.340
20996SOL     OW64819   7.086   4.829  13.780
20996SOL    HW164820   7.036   4.904  13.812
20996SOL    HW264821   7.030   4.789  13.714
20997SOL     OW64822  12.616   2.737   8.336
20997SOL    HW164823  12.686   2.696   8.387
20997SOL    HW264824  12.587   2.669   8.276
20998SOL     OW64825   5.139   7.599  12.929
20998SOL    HW164826   5.141   7.692  12.907
20998SOL    HW264827   5.049   7.572  12.913
20999SOL     OW64828  10.413  14.286   1.956
20999SOL    HW164829  10.369  14.362   1.917
20999SOL    HW264830  10.497  14.280   1.911
21000SOL     OW64831   4.831   7.840   9.252
21000SOL    HW164832   4.791   7.891   9.182
21000SOL    HW264833   4.759   7.825   9.314
21001SOL     OW64834   5.785   6.252  12.950
21001SOL    HW164835   5.879   6.267  12.938
21001SOL    HW264836   5.776   6.157  12.954
21002SOL     OW64837   5.584   0.740   5.962
21002SOL    HW164838   5.549   0.819   6.003
21002SOL    HW264839   5.522   0.721   5.892
21003SOL     OW64840   8.482   7.199   7.296
21003SOL    HW164841   8.532   7.134   7.247
21003SOL    HW264842   8.486   7.278   7.241
21004SOL     OW64843   3.191  12.513  10.659
21004SOL    HW164844   3.127  12.566  10.612
21004SOL    HW264845   3.146  12.431  10.677
21005SOL     OW64846   7.532   5.877   8.496
21005SOL    HW164847   7.504   5.791   8.463
21005SOL    HW264848   7.596   5.908   8.431
21006SOL     OW64849   7.215   4.889  14.048
21006SOL    HW164850   7.158   4.962  14.025
21006SOL    HW264851   7.155   4.820  14.076
21007SOL     OW64852   3.840   8.405  14.505
21007SOL    HW164853   3.830   8.422  14.412
21007SOL    HW264854   3.784   8.329  14.522
21008SOL     OW64855   3.439   5.996   3.976
21008SOL    HW164856   3.388   6.053   3.919
21008SOL    HW264857   3.511   6.051   4.008
21009SOL     OW64858   4.165  11.541  14.522
21009SOL    HW164859   4.215  11.545  14.440
21009SOL    HW264860   4.153  11.447  14.538
21010SOL     OW64861  10.177   0.493   1.400
21010SOL    HW164862  10.192   0.499   1.494
21010SOL    HW264863  10.225   0.568   1.364
21011SOL     OW64864   6.054   4.576   1.003
21011SOL    HW164865   6.033   4.492   0.961
21011SOL    HW264866   6.016   4.569   1.091
21012SOL     OW64867   6.386   6.780   3.385
21012SOL    HW164868   6.412   6.713   3.449
21012SOL    HW264869   6.294   6.798   3.405
21013SOL     OW64870   7.756  11.289  12.463
21013SOL    HW164871   7.763  11.362  12.403
21013SOL    HW264872   7.699  11.226  12.419
21014SOL     OW64873   8.906   8.539  10.922
21014SOL    HW164874   8.942   8.625  10.900
21014SOL    HW264875   8.906   8.491  10.839
21015SOL     OW64876  11.644   7.729  14.197
21015SOL    HW164877  11.635   7.637  14.172
21015SOL    HW264878  11.599   7.777  14.127
21016SOL     OW64879  14.566   8.589  12.411
21016SOL    HW164880  14.512   8.511  12.425
21016SOL    HW264881  14.657   8.557  12.418
21017SOL     OW64882   9.127  12.783   6.619
21017SOL    HW164883   9.172  12.725   6.680
21017SOL    HW264884   9.057  12.730   6.582
21018SOL     OW64885   8.377   1.633  12.857
21018SOL    HW164886   8.445   1.581  12.900
21018SOL    HW264887   8.388   1.614  12.764
21019SOL     OW64888   1.571  14.876  14.405
21019SOL    HW164889   1.567  14.869  14.501
21019SOL    HW264890   1.566  14.785  14.375
21020SOL     OW64891  14.817   9.170  10.818
21020SOL    HW164892  14.832   9.084  10.858
21020SOL    HW264893  14.822   9.153  10.724
21021SOL     OW64894   1.017   2.214   3.181
21021SOL    HW164895   1.042   2.292   3.232
21021SOL    HW264896   0.926   2.231   3.155
21022SOL     OW64897   3.120   6.831   1.352
21022SOL    HW164898   3.166   6.823   1.436
21022SOL    HW264899   3.142   6.919   1.322
21023SOL     OW64900   1.162   1.266  10.512
21023SOL    HW164901   1.133   1.351  10.479
21023SOL    HW264902   1.143   1.269  10.606
21024SOL     OW64903   7.647   0.479   8.370
21024SOL    HW164904   7.701   0.555   8.349
21024SOL    HW264905   7.586   0.510   8.436
21025SOL     OW64906   3.975   6.877  11.225
21025SOL    HW164907   3.921   6.899  11.301
21025SOL    HW264908   4.010   6.790  11.246
21026SOL     OW64909  14.583  12.157   4.620
21026SOL    HW164910  14.497  12.173   4.582
21026SOL    HW264911  14.575  12.185   4.711
21027SOL     OW64912   6.543   3.070   5.071
21027SOL    HW164913   6.625   3.027   5.097
21027SOL    HW264914   6.506   3.013   5.003
21028SOL     OW64915   6.935   9.072   7.740
21028SOL    HW164916   6.845   9.076   7.773
21028SOL    HW264917   6.933   9.124   7.660
21029SOL     OW64918   0.027   4.143   8.297
21029SOL    HW164919   0.001   4.077   8.361
21029SOL    HW264920   0.122   4.152   8.310
21030SOL     OW64921   6.766   7.915   9.058
21030SOL    HW164922   6.826   7.915   8.983
21030SOL    HW264923   6.808   7.856   9.121
21031SOL     OW64924   2.985  13.771   6.694
21031SOL    HW164925   3.012  13.741   6.781
21031SOL    HW264926   2.944  13.694   6.654
21032SOL     OW64927   8.279   2.709   9.516
21032SOL    HW164928   8.253   2.719   9.608
21032SOL    HW264929   8.287   2.614   9.504
21033SOL     OW64930   0.463  14.145   3.950
21033SOL    HW164931   0.469  14.216   4.015
21033SOL    HW264932   0.392  14.172   3.892
21034SOL     OW64933  13.670  12.927   7.482
21034SOL    HW164934  13.730  12.881   7.541
21034SOL    HW264935  13.583  12.895   7.507
21035SOL     OW64936  13.875   7.080  11.053
21035SOL    HW164937  13.823   7.006  11.084
21035SOL    HW264938  13.937   7.041  10.992
21036SOL     OW64939   8.063   2.723   0.784
21036SOL    HW164940   8.126   2.792   0.803
21036SOL    HW264941   8.115   2.652   0.745
21037SOL     OW64942   6.818   8.188  11.755
21037SOL    HW164943   6.801   8.148  11.669
21037SOL    HW264944   6.743   8.246  11.769
21038SOL     OW64945   4.667   9.005   6.659
21038SOL    HW164946   4.720   8.982   6.583
21038SOL    HW264947   4.616   8.926   6.677
21039SOL     OW64948   8.149   4.991   6.790
21039SOL    HW164949   8.141   5.085   6.807
21039SOL    HW264950   8.196   4.986   6.706
21040SOL     OW64951   1.330  11.900   6.907
21040SOL    HW164952   1.275  11.978   6.900
21040SOL    HW264953   1.336  11.885   7.002
21041SOL     OW64954   8.418   4.715   7.585
21041SOL    HW164955   8.427   4.772   7.661
21041SOL    HW264956   8.468   4.636   7.608
21042SOL     OW64957  11.667   9.330   7.860
21042SOL    HW164958  11.630   9.354   7.945
21042SOL    HW264959  11.706   9.244   7.874
21043SOL     OW64960  11.310  11.498  11.806
21043SOL    HW164961  11.302  11.450  11.724
21043SOL    HW264962  11.284  11.435  11.873
21044SOL     OW64963   5.449   1.053  11.246
21044SOL    HW164964   5.422   1.076  11.335
21044SOL    HW264965   5.392   1.106  11.190
21045SOL     OW64966   1.390   6.684  12.987
21045SOL    HW164967   1.442   6.762  12.968
21045SOL    HW264968   1.323   6.682  12.918
21046SOL     OW64969   8.422  11.928   7.726
21046SOL    HW164970   8.387  11.938   7.815
21046SOL    HW264971   8.364  11.863   7.685
21047SOL     OW64972  11.607   6.093  11.956
21047SOL    HW164973  11.587   6.107  11.863
21047SOL    HW264974  11.669   6.163  11.977
21048SOL     OW64975   7.852   0.325   1.864
21048SOL    HW164976   7.947   0.331   1.862
21048SOL    HW264977   7.827   0.315   1.772
21049SOL     OW64978   7.290  14.731   9.754
21049SOL    HW164979   7.292  14.765   9.665
21049SOL    HW264980   7.202  14.694   9.764
21050SOL     OW64981   6.945   1.613   0.975
21050SOL    HW164982   6.879   1.562   0.928
21050SOL    HW264983   6.903   1.697   0.991
21051SOL     OW64984   8.362   9.045   6.006
21051SOL    HW164985   8.291   9.097   6.043
21051SOL    HW264986   8.330   8.955   6.010
21052SOL     OW64987  10.884   1.760  14.824
21052SOL    HW164988  10.794   1.793  14.819
21052SOL    HW264989  10.935   1.833  14.859
21053SOL     OW64990   8.879   5.245   4.508
21053SOL    HW164991   8.927   5.230   4.428
21053SOL    HW264992   8.923   5.191   4.574
21054SOL     OW64993  13.921   8.053   0.196
21054SOL    HW164994  13.872   7.974   0.220
21054SOL    HW264995  13.858   8.106   0.148
21055SOL     OW64996  13.330   0.094   3.453
21055SOL    HW164997  13.311   0.187   3.445
21055SOL    HW264998  13.361   0.083   3.543
21056SOL     OW64999   7.837  14.647  12.836
21056SOL    HW165000   7.850  14.553  12.842
21056SOL    HW265001   7.883  14.683  12.912
21057SOL     OW65002  12.593   5.186   8.386
21057SOL    HW165003  12.655   5.118   8.360
21057SOL    HW265004  12.512   5.163   8.340
21058SOL     OW65005  14.247   0.534   2.993
21058SOL    HW165006  14.172   0.494   3.038
21058SOL    HW265007  14.278   0.466   2.933
21059SOL     OW65008   3.384   5.321   3.594
21059SOL    HW165009   3.438   5.295   3.520
21059SOL    HW265010   3.343   5.240   3.624
21060SOL     OW65011   1.173   7.865   2.414
21060SOL    HW165012   1.098   7.824   2.370
21060SOL    HW265013   1.133   7.921   2.481
21061SOL     OW65014   8.274   9.323  12.567
21061SOL    HW165015   8.320   9.316  12.483
21061SOL    HW265016   8.251   9.415  12.574
21062SOL     OW65017   9.192   4.835   5.483
21062SOL    HW165018   9.247   4.899   5.437
21062SOL    HW265019   9.185   4.762   5.422
21063SOL     OW65020  10.396   1.711   9.188
21063SOL    HW165021  10.454   1.787   9.193
21063SOL    HW265022  10.308   1.749   9.179
21064SOL     OW65023   1.901  12.227  13.996
21064SOL    HW165024   1.953  12.292  14.043
21064SOL    HW265025   1.831  12.277  13.955
21065SOL     OW65026  13.389   6.136   5.273
21065SOL    HW165027  13.402   6.147   5.179
21065SOL    HW265028  13.432   6.211   5.313
21066SOL     OW65029   1.306  13.797   0.386
21066SOL    HW165030   1.305  13.887   0.355
21066SOL    HW265031   1.326  13.804   0.479
21067SOL     OW65032   5.100   8.556  11.109
21067SOL    HW165033   5.038   8.606  11.055
21067SOL    HW265034   5.131   8.486  11.053
21068SOL     OW65035   4.821   6.226   0.647
21068SOL    HW165036   4.880   6.164   0.691
21068SOL    HW265037   4.833   6.308   0.695
21069SOL     OW65038  12.386   9.896   2.047
21069SOL    HW165039  12.435   9.970   2.011
21069SOL    HW265040  12.404   9.824   1.987
21070SOL     OW65041  12.327   6.437   0.471
21070SOL    HW165042  12.409   6.388   0.468
21070SOL    HW265043  12.266   6.378   0.516
21071SOL     OW65044   5.175  12.128   3.396
21071SOL    HW165045   5.100  12.183   3.376
21071SOL    HW265046   5.192  12.080   3.314
21072SOL     OW65047  12.414   0.987  11.957
21072SOL    HW165048  12.372   0.922  12.013
21072SOL    HW265049  12.372   0.976  11.872
21073SOL     OW65050  11.158   9.775   0.713
21073SOL    HW165051  11.147   9.694   0.762
21073SOL    HW265052  11.225   9.824   0.760
21074SOL     OW65053  13.989  12.618   7.260
21074SOL    HW165054  14.043  12.670   7.320
21074SOL    HW265055  13.982  12.670   7.181
21075SOL     OW65056   0.400   9.979   1.077
21075SOL    HW165057   0.327   9.933   1.037
21075SOL    HW265058   0.473   9.916   1.074
21076SOL     OW65059   8.753  14.631   1.238
21076SOL    HW165060   8.687  14.700   1.249
21076SOL    HW265061   8.785  14.615   1.326
21077SOL     OW65062  10.262  14.644   4.725
21077SOL    HW165063  10.240  14.689   4.807
21077SOL    HW265064  10.319  14.705   4.679
21078SOL     OW65065   0.366  13.409  10.808
21078SOL    HW165066   0.365  13.450  10.895
21078SOL    HW265067   0.370  13.483  10.747
21079SOL     OW65068   0.713   6.820   7.874
21079SOL    HW165069   0.688   6.846   7.963
21079SOL    HW265070   0.691   6.896   7.821
21080SOL     OW65071   1.753   7.571   1.959
21080SOL    HW165072   1.663   7.539   1.960
21080SOL    HW265073   1.758   7.629   2.035
21081SOL     OW65074   0.787  13.365   6.456
21081SOL    HW165075   0.772  13.283   6.503
21081SOL    HW265076   0.778  13.341   6.364
21082SOL     OW65077   0.698   3.425  13.940
21082SOL    HW165078   0.703   3.506  13.991
21082SOL    HW265079   0.758   3.438  13.867
21083SOL     OW65080   2.554   7.071  14.306
21083SOL    HW165081   2.613   7.029  14.369
21083SOL    HW265082   2.478   7.097  14.359
21084SOL     OW65083   5.173   7.035   4.421
21084SOL    HW165084   5.170   6.984   4.339
21084SOL    HW265085   5.089   7.080   4.424
21085SOL     OW65086   8.328  11.287  14.840
21085SOL    HW165087   8.364  11.319  14.757
21085SOL    HW265088   8.404  11.282   0.022
21086SOL     OW65089   2.814  12.201   9.805
21086SOL    HW165090   2.731  12.184   9.761
21086SOL    HW265091   2.791  12.249   9.884
21087SOL     OW65092   6.511  10.093   2.713
21087SOL    HW165093   6.598  10.058   2.727
21087SOL    HW265094   6.466  10.028   2.659
21088SOL     OW65095   5.865   9.627  12.356
21088SOL    HW165096   5.943   9.681  12.348
21088SOL    HW265097   5.792   9.688  12.355
21089SOL     OW65098   1.290   7.404   0.583
21089SOL    HW165099   1.202   7.365   0.578
21089SOL    HW265100   1.282   7.473   0.648
21090SOL     OW65101   4.397   2.619   0.593
21090SOL    HW165102   4.406   2.556   0.665
21090SOL    HW265103   4.304   2.638   0.590
21091SOL     OW65104  12.719   1.806   9.435
21091SOL    HW165105  12.681   1.889   9.406
21091SOL    HW265106  12.670   1.784   9.515
21092SOL     OW65107   5.523  10.989   0.384
21092SOL    HW165108   5.551  10.994   0.293
21092SOL    HW265109   5.554  11.070   0.424
21093SOL     OW65110  13.763  14.098   0.321
21093SOL    HW165111  13.746  14.071   0.231
21093SOL    HW265112  13.733  14.189   0.325
21094SOL     OW65113  11.931   4.005  14.656
21094SOL    HW165114  11.883   4.003  14.573
21094SOL    HW265115  11.989   3.928  14.651
21095SOL     OW65116  11.749   7.291   2.779
21095SOL    HW165117  11.738   7.383   2.756
21095SOL    HW265118  11.756   7.290   2.874
21096SOL     OW65119   6.989   7.845  12.414
21096SOL    HW165120   6.990   7.753  12.387
21096SOL    HW265121   7.010   7.843  12.507
21097SOL     OW65122   0.776  10.353  12.935
21097SOL    HW165123   0.727  10.434  12.922
21097SOL    HW265124   0.862  10.382  12.965
21098SOL     OW65125   6.007   3.741   4.477
21098SOL    HW165126   6.033   3.677   4.410
21098SOL    HW265127   6.084   3.750   4.533
21099SOL     OW65128   2.342   0.790   5.374
21099SOL    HW165129   2.362   0.733   5.299
21099SOL    HW265130   2.255   0.763   5.402
21100SOL     OW65131   1.578   8.299   4.337
21100SOL    HW165132   1.560   8.211   4.304
21100SOL    HW265133   1.627   8.284   4.418
21101SOL     OW65134  10.841   8.066   6.374
21101SOL    HW165135  10.794   7.995   6.417
21101SOL    HW265136  10.803   8.071   6.286
21102SOL     OW65137   1.221   2.556   4.297
21102SOL    HW165138   1.142   2.517   4.260
21102SOL    HW265139   1.267   2.482   4.336
21103SOL     OW65140   7.681   3.156  14.429
21103SOL    HW165141   7.710   3.072  14.465
21103SOL    HW265142   7.621   3.132  14.359
21104SOL     OW65143   4.199   6.727   9.400
21104SOL    HW165144   4.121   6.759   9.356
21104SOL    HW265145   4.262   6.712   9.329
21105SOL     OW65146   5.361  13.165   3.477
21105SOL    HW165147   5.399  13.236   3.427
21105SOL    HW265148   5.285  13.204   3.520
21106SOL     OW65149   8.146  13.324   9.788
21106SOL    HW165150   8.214  13.338   9.854
21106SOL    HW265151   8.067  13.305   9.838
21107SOL     OW65152   0.393   7.069  14.684
21107SOL    HW165153   0.348   7.078  14.768
21107SOL    HW265154   0.371   7.150  14.637
21108SOL     OW65155  12.024   8.730   5.041
21108SOL    HW165156  11.939   8.728   5.085
21108SOL    HW265157  12.068   8.807   5.075
21109SOL     OW65158   3.322  10.662   5.507
21109SOL    HW165159   3.297  10.667   5.415
21109SOL    HW265160   3.298  10.747   5.544
21110SOL     OW65161  12.229  10.083   8.040
21110SOL    HW165162  12.200  10.067   7.950
21110SOL    HW265163  12.151  10.113   8.086
21111SOL     OW65164  12.676   7.101  10.294
21111SOL    HW165165  12.618   7.096  10.218
21111SOL    HW265166  12.669   7.015  10.336
21112SOL     OW65167   3.495   2.572   2.618
21112SOL    HW165168   3.463   2.538   2.535
21112SOL    HW265169   3.485   2.667   2.610
21113SOL     OW65170  13.798   8.870   5.180
21113SOL    HW165171  13.843   8.953   5.167
21113SOL    HW265172  13.712   8.893   5.214
21114SOL     OW65173   7.382   0.939   9.288
21114SOL    HW165174   7.373   0.877   9.216
21114SOL    HW265175   7.385   0.883   9.366
21115SOL     OW65176   1.660   9.627   1.688
21115SOL    HW165177   1.611   9.686   1.745
21115SOL    HW265178   1.618   9.637   1.602
21116SOL     OW65179   0.494   8.495  10.518
21116SOL    HW165180   0.561   8.505  10.585
21116SOL    HW265181   0.524   8.551  10.446
21117SOL     OW65182  10.209   4.352  13.018
21117SOL    HW165183  10.209   4.359  12.922
21117SOL    HW265184  10.298   4.324  13.039
21118SOL     OW65185  13.744   7.670  10.788
21118SOL    HW165186  13.778   7.609  10.723
21118SOL    HW265187  13.670   7.713  10.745
21119SOL     OW65188   8.192   0.559   8.260
21119SOL    HW165189   8.184   0.647   8.223
21119SOL    HW265190   8.265   0.519   8.213
21120SOL     OW65191   2.277   2.272   6.565
21120SOL    HW165192   2.298   2.200   6.504
21120SOL    HW265193   2.190   2.249   6.599
21121SOL     OW65194  13.652   4.911   6.769
21121SOL    HW165195  13.737   4.871   6.787
21121SOL    HW265196  13.643   4.980   6.835
21122SOL     OW65197  14.296  13.471   1.622
21122SOL    HW165198  14.385  13.470   1.658
21122SOL    HW265199  14.249  13.534   1.677
21123SOL     OW65200   3.243   1.520   4.412
21123SOL    HW165201   3.244   1.447   4.474
21123SOL    HW265202   3.306   1.582   4.446
21124SOL     OW65203  13.659  13.417   5.786
21124SOL    HW165204  13.656  13.322   5.787
21124SOL    HW265205  13.578  13.443   5.742
21125SOL     OW65206   6.921  12.507  12.229
21125SOL    HW165207   6.849  12.444  12.223
21125SOL    HW265208   6.901  12.558  12.308
21126SOL     OW65209  10.254   9.256   4.695
21126SOL    HW165210  10.276   9.294   4.780
21126SOL    HW265211  10.329   9.276   4.639
21127SOL     OW65212   3.444   9.671  11.108
21127SOL    HW165213   3.489   9.612  11.168
21127SOL    HW265214   3.351   9.648  11.117
21128SOL     OW65215   8.135   4.098   9.134
21128SOL    HW165216   8.114   4.114   9.042
21128SOL    HW265217   8.183   4.175   9.162
21129SOL     OW65218   5.606   8.448  11.243
21129SOL    HW165219   5.572   8.536  11.258
21129SOL    HW265220   5.529   8.396  11.220
21130SOL     OW65221   6.264   3.003  13.279
21130SOL    HW165222   6.180   3.043  13.253
21130SOL    HW265223   6.298   2.964  13.199
21131SOL     OW65224  12.156   6.090   9.927
21131SOL    HW165225  12.245   6.073   9.956
21131SOL    HW265226  12.139   6.181   9.952
21132SOL     OW65227   1.051  13.017   2.054
21132SOL    HW165228   1.135  12.986   2.020
21132SOL    HW265229   1.068  13.037   2.146
21133SOL     OW65230   0.730   7.545   8.322
21133SOL    HW165231   0.771   7.464   8.352
21133SOL    HW265232   0.636   7.529   8.330
21134SOL     OW65233  12.362   0.947  13.349
21134SOL    HW165234  12.321   1.029  13.321
21134SOL    HW265235  12.431   0.931  13.284
21135SOL     OW65236   2.665   7.104   7.816
21135SOL    HW165237   2.638   7.121   7.726
21135SOL    HW265238   2.757   7.080   7.810
21136SOL     OW65239  14.079   4.763   2.870
21136SOL    HW165240  13.996   4.717   2.855
21136SOL    HW265241  14.111   4.785   2.782
21137SOL     OW65242  12.948   0.605  13.065
21137SOL    HW165243  12.865   0.563  13.088
21137SOL    HW265244  12.935   0.637  12.976
21138SOL     OW65245   6.855   1.367   8.336
21138SOL    HW165246   6.918   1.430   8.370
21138SOL    HW265247   6.891   1.282   8.360
21139SOL     OW65248   0.780   7.647   7.327
21139SOL    HW165249   0.869   7.672   7.304
21139SOL    HW265250   0.763   7.568   7.276
21140SOL     OW65251  12.143  14.278  12.198
21140SOL    HW165252  12.210  14.304  12.261
21140SOL    HW265253  12.127  14.357  12.145
21141SOL     OW65254   7.981   5.884   7.819
21141SOL    HW165255   8.023   5.966   7.793
21141SOL    HW265256   8.054   5.824   7.836
21142SOL     OW65257   8.013   7.702   4.275
21142SOL    HW165258   8.037   7.609   4.280
21142SOL    HW265259   8.061   7.735   4.200
21143SOL     OW65260  11.248   1.098  13.400
21143SOL    HW165261  11.223   1.045  13.476
21143SOL    HW265262  11.208   1.054  13.326
21144SOL     OW65263   1.772   3.066   0.287
21144SOL    HW165264   1.739   3.150   0.320
21144SOL    HW265265   1.847   3.089   0.233
21145SOL     OW65266   2.506   2.534   9.089
21145SOL    HW165267   2.448   2.513   9.016
21145SOL    HW265268   2.572   2.465   9.090
21146SOL     OW65269   2.600  13.275   0.970
21146SOL    HW165270   2.545  13.320   1.034
21146SOL    HW265271   2.624  13.193   1.011
21147SOL     OW65272  11.539   1.666   1.603
21147SOL    HW165273  11.548   1.604   1.531
21147SOL    HW265274  11.446   1.690   1.603
21148SOL     OW65275  14.055   4.033  13.162
21148SOL    HW165276  14.060   3.994  13.075
21148SOL    HW265277  14.041   3.959  13.222
21149SOL     OW65278   7.845   2.879  10.458
21149SOL    HW165279   7.805   2.798  10.490
21149SOL    HW265280   7.939   2.862  10.464
21150SOL     OW65281   1.122   0.370   8.744
21150SOL    HW165282   1.191   0.304   8.742
21150SOL    HW265283   1.127   0.414   8.659
21151SOL     OW65284  13.144   6.929   9.135
21151SOL    HW165285  13.166   6.993   9.067
21151SOL    HW265286  13.229   6.906   9.174
21152SOL     OW65287  10.007   2.060   4.155
21152SOL    HW165288  10.054   2.011   4.223
21152SOL    HW265289  10.037   2.021   4.073
21153SOL     OW65290   6.848   1.500   7.591
21153SOL    HW165291   6.902   1.577   7.609
21153SOL    HW265292   6.911   1.433   7.564
21154SOL     OW65293   9.242   2.262   7.542
21154SOL    HW165294   9.199   2.180   7.565
21154SOL    HW265295   9.217   2.323   7.611
21155SOL     OW65296   3.455  14.575   0.936
21155SOL    HW165297   3.480  14.665   0.915
21155SOL    HW265298   3.510  14.552   1.011
21156SOL     OW65299  10.734   3.245   1.383
21156SOL    HW165300  10.742   3.224   1.476
21156SOL    HW265301  10.771   3.169   1.338
21157SOL     OW65302   0.001   8.470  13.023
21157SOL    HW165303   0.021   8.380  12.995
21157SOL    HW265304  14.804   8.497  12.968
21158SOL     OW65305   4.867   4.410   9.304
21158SOL    HW165306   4.961   4.399   9.318
21158SOL    HW265307   4.855   4.393   9.211
21159SOL     OW65308   8.360   8.260   8.363
21159SOL    HW165309   8.265   8.252   8.355
21159SOL    HW265310   8.394   8.204   8.294
21160SOL     OW65311   0.711  14.242  11.205
21160SOL    HW165312   0.738  14.238  11.297
21160SOL    HW265313   0.789  14.218  11.155
21161SOL     OW65314   9.678  13.389   1.874
21161SOL    HW165315   9.736  13.463   1.852
21161SOL    HW265316   9.590  13.422   1.858
21162SOL     OW65317  14.515   7.920   7.766
21162SOL    HW165318  14.534   7.828   7.781
21162SOL    HW265319  14.495   7.926   7.672
21163SOL     OW65320  12.879  11.623  11.073
21163SOL    HW165321  12.894  11.717  11.063
21163SOL    HW265322  12.821  11.599  11.001
21164SOL     OW65323   7.490   3.314   0.618
21164SOL    HW165324   7.433   3.334   0.544
21164SOL    HW265325   7.553   3.250   0.584
21165SOL     OW65326   9.961   1.881   3.893
21165SOL    HW165327   9.874   1.871   3.933
21165SOL    HW265328   9.998   1.793   3.896
21166SOL     OW65329   9.579  11.451  13.741
21166SOL    HW165330   9.635  11.471  13.815
21166SOL    HW265331   9.577  11.532  13.690
21167SOL     OW65332   2.667  13.261   8.081
21167SOL    HW165333   2.592  13.321   8.076
21167SOL    HW265334   2.639  13.183   8.034
21168SOL     OW65335   0.698   5.977   7.787
21168SOL    HW165336   0.685   5.902   7.730
21168SOL    HW265337   0.609   6.005   7.811
21169SOL     OW65338  11.307   3.533  12.439
21169SOL    HW165339  11.342   3.478  12.368
21169SOL    HW265340  11.385   3.562  12.487
21170SOL     OW65341   0.406  10.143   8.133
21170SOL    HW165342   0.456  10.205   8.080
21170SOL    HW265343   0.334  10.115   8.076
21171SOL     OW65344   3.112   7.981   3.645
21171SOL    HW165345   3.073   7.998   3.559
21171SOL    HW265346   3.083   7.893   3.667
21172SOL     OW65347  13.278  10.683  10.531
21172SOL    HW165348  13.314  10.757  10.481
21172SOL    HW265349  13.216  10.642  10.470
21173SOL     OW65350  11.315   2.492   7.496
21173SOL    HW165351  11.232   2.446   7.490
21173SOL    HW265352  11.291   2.585   7.499
21174SOL     OW65353   7.104  14.310  13.237
21174SOL    HW165354   7.103  14.362  13.157
21174SOL    HW265355   7.164  14.356  13.295
21175SOL     OW65356   8.269  10.571   9.737
21175SOL    HW165357   8.339  10.604   9.793
21175SOL    HW265358   8.198  10.634   9.747
21176SOL     OW65359   0.163   1.797   4.439
21176SOL    HW165360   0.203   1.843   4.513
21176SOL    HW265361   0.184   1.851   4.363
21177SOL     OW65362   7.216  14.422   0.097
21177SOL    HW165363   7.222  14.479   0.020
21177SOL    HW265364   7.220  14.483   0.171
21178SOL     OW65365  12.551  13.817  13.434
21178SOL    HW165366  12.540  13.888  13.370
21178SOL    HW265367  12.481  13.831  13.497
21179SOL     OW65368   9.034  11.295   5.360
21179SOL    HW165369   9.018  11.214   5.408
21179SOL    HW265370   8.998  11.279   5.273
21180SOL     OW65371  10.014  11.234   7.173
21180SOL    HW165372   9.960  11.157   7.156
21180SOL    HW265373  10.103  11.201   7.175
21181SOL     OW65374   1.560   4.338   1.399
21181SOL    HW165375   1.546   4.377   1.486
21181SOL    HW265376   1.588   4.412   1.344
21182SOL     OW65377   8.960  14.250  11.869
21182SOL    HW165378   8.952  14.320  11.805
21182SOL    HW265379   9.051  14.255  11.900
21183SOL     OW65380   0.773  10.405   5.359
21183SOL    HW165381   0.713  10.343   5.319
21183SOL    HW265382   0.847  10.411   5.299
21184SOL     OW65383   4.137  13.192   9.989
21184SOL    HW165384   4.062  13.251   9.982
21184SOL    HW265385   4.190  13.228  10.059
21185SOL     OW65386  14.205   5.014  11.016
21185SOL    HW165387  14.285   5.062  11.037
21185SOL    HW265388  14.147   5.081  10.979
21186SOL     OW65389   4.738   3.614  10.640
21186SOL    HW165390   4.664   3.554  10.626
21186SOL    HW265391   4.710   3.670  10.712
21187SOL     OW65392   9.481   0.568   8.804
21187SOL    HW165393   9.465   0.662   8.817
21187SOL    HW265394   9.394   0.531   8.788
21188SOL     OW65395   3.384  13.657   0.154
21188SOL    HW165396   3.386  13.625   0.245
21188SOL    HW265397   3.312  13.720   0.152
21189SOL     OW65398   7.443   8.732  12.928
21189SOL    HW165399   7.415   8.641  12.921
21189SOL    HW265400   7.465   8.757  12.838
21190SOL     OW65401  12.093   3.562   2.547
21190SOL    HW165402  12.163   3.563   2.612
21190SOL    HW265403  12.135   3.535   2.466
21191SOL     OW65404   8.967   5.900   8.952
21191SOL    HW165405   8.891   5.867   8.904
21191SOL    HW265406   8.930   5.943   9.029
21192SOL     OW65407   7.036  13.124   0.523
21192SOL    HW165408   6.996  13.171   0.596
21192SOL    HW265409   6.966  13.113   0.459
21193SOL     OW65410   8.731   5.340   4.051
21193SOL    HW165411   8.707   5.314   4.140
21193SOL    HW265412   8.826   5.353   4.055
21194SOL     OW65413   1.315   5.377   0.491
21194SOL    HW165414   1.292   5.469   0.502
21194SOL    HW265415   1.403   5.370   0.528
21195SOL     OW65416   9.604  10.271   3.653
21195SOL    HW165417   9.648  10.326   3.719
21195SOL    HW265418   9.511  10.293   3.664
21196SOL     OW65419   8.774   7.575   7.369
21196SOL    HW165420   8.852   7.585   7.314
21196SOL    HW265421   8.809   7.553   7.455
21197SOL     OW65422   6.806   2.972   9.795
21197SOL    HW165423   6.894   2.945   9.822
21197SOL    HW265424   6.757   2.976   9.877
21198SOL     OW65425   3.108  11.980   1.983
21198SOL    HW165426   3.192  12.024   1.968
21198SOL    HW265427   3.092  11.991   2.077
21199SOL     OW65428   2.286   4.703   7.444
21199SOL    HW165429   2.270   4.774   7.506
21199SOL    HW265430   2.219   4.638   7.465
21200SOL     OW65431  12.719   7.891  10.778
21200SOL    HW165432  12.653   7.876  10.845
21200SOL    HW265433  12.778   7.956  10.817
21201SOL     OW65434   3.523   1.552   5.110
21201SOL    HW165435   3.439   1.507   5.121
21201SOL    HW265436   3.589   1.485   5.126
21202SOL     OW65437  13.508  12.111   8.376
21202SOL    HW165438  13.570  12.109   8.449
21202SOL    HW265439  13.534  12.037   8.321
21203SOL     OW65440  10.727   2.427  10.021
21203SOL    HW165441  10.748   2.394  10.109
21203SOL    HW265442  10.754   2.357   9.962
21204SOL     OW65443   8.447  12.424   1.568
21204SOL    HW165444   8.366  12.474   1.564
21204SOL    HW265445   8.490  12.457   1.648
21205SOL     OW65446   0.837  11.080   1.891
21205SOL    HW165447   0.824  11.142   1.820
21205SOL    HW265448   0.884  11.007   1.851
21206SOL     OW65449   3.949  11.470   7.667
21206SOL    HW165450   3.875  11.502   7.717
21206SOL    HW265451   3.988  11.402   7.722
21207SOL     OW65452   0.906   5.995   6.992
21207SOL    HW165453   0.894   6.090   6.992
21207SOL    HW265454   0.817   5.960   6.998
21208SOL     OW65455  11.886   5.041  11.485
21208SOL    HW165456  11.865   5.104  11.554
21208SOL    HW265457  11.803   4.998  11.466
21209SOL     OW65458   1.827   7.548  11.531
21209SOL    HW165459   1.763   7.480  11.510
21209SOL    HW265460   1.908   7.518  11.491
21210SOL     OW65461  14.794   3.055   3.044
21210SOL    HW165462  14.719   3.041   3.102
21210SOL    HW265463  14.784   3.145   3.013
21211SOL     OW65464  10.558   7.056  13.041
21211SOL    HW165465  10.490   7.050  12.974
21211SOL    HW265466  10.640   7.055  12.991
21212SOL     OW65467   5.624   9.308   2.712
21212SOL    HW165468   5.644   9.364   2.637
21212SOL    HW265469   5.597   9.225   2.674
21213SOL     OW65470   6.321  10.540   6.053
21213SOL    HW165471   6.405  10.573   6.085
21213SOL    HW265472   6.344  10.482   5.980
21214SOL     OW65473   4.136  12.714   8.012
21214SOL    HW165474   4.068  12.649   8.028
21214SOL    HW265475   4.199  12.700   8.083
21215SOL     OW65476   6.714   7.127   2.904
21215SOL    HW165477   6.789   7.167   2.948
21215SOL    HW265478   6.738   7.125   2.811
21216SOL     OW65479   8.924   6.594   7.195
21216SOL    HW165480   8.903   6.598   7.289
21216SOL    HW265481   8.852   6.544   7.157
21217SOL     OW65482   9.039   0.772  14.713
21217SOL    HW165483   9.103   0.726  14.768
21217SOL    HW265484   9.045   0.864  14.741
21218SOL     OW65485   5.319   1.297  13.628
21218SOL    HW165486   5.364   1.356  13.689
21218SOL    HW265487   5.344   1.209  13.657
21219SOL     OW65488   3.657  12.445   8.223
21219SOL    HW165489   3.635  12.483   8.138
21219SOL    HW265490   3.577  12.452   8.275
21220SOL     OW65491   5.205   6.169   6.279
21220SOL    HW165492   5.187   6.241   6.339
21220SOL    HW265493   5.126   6.161   6.225
21221SOL     OW65494   0.159  12.420   3.156
21221SOL    HW165495   0.248  12.450   3.172
21221SOL    HW265496   0.117  12.424   3.242
21222SOL     OW65497  10.348   1.083   8.280
21222SOL    HW165498  10.432   1.127   8.270
21222SOL    HW265499  10.367   1.004   8.331
21223SOL     OW65500  10.853  12.162  10.801
21223SOL    HW165501  10.812  12.184  10.717
21223SOL    HW265502  10.917  12.231  10.815
21224SOL     OW65503  11.755   1.932   1.802
21224SOL    HW165504  11.714   1.907   1.885
21224SOL    HW265505  11.832   1.875   1.795
21225SOL     OW65506  12.411   5.261   9.645
21225SOL    HW165507  12.427   5.231   9.556
21225SOL    HW265508  12.344   5.202   9.679
21226SOL     OW65509   7.663   2.978   6.078
21226SOL    HW165510   7.647   2.954   6.170
21226SOL    HW265511   7.581   3.019   6.050
21227SOL     OW65512   3.427   1.798   5.284
21227SOL    HW165513   3.377   1.717   5.276
21227SOL    HW265514   3.519   1.771   5.275
21228SOL     OW65515  10.924  11.914  10.084
21228SOL    HW165516  10.992  11.912  10.151
21228SOL    HW265517  10.842  11.923  10.133
21229SOL     OW65518   4.070   9.435  13.222
21229SOL    HW165519   4.165   9.445  13.236
21229SOL    HW265520   4.033   9.517  13.252
21230SOL     OW65521   4.523   6.079  14.113
21230SOL    HW165522   4.539   6.147  14.179
21230SOL    HW265523   4.448   6.030  14.146
21231SOL     OW65524   9.083   9.568   0.855
21231SOL    HW165525   9.018   9.570   0.785
21231SOL    HW265526   9.036   9.599   0.932
21232SOL     OW65527   9.377   3.131   8.233
21232SOL    HW165528   9.456   3.082   8.255
21232SOL    HW265529   9.307   3.065   8.232
21233SOL     OW65530   7.053   6.526   8.000
21233SOL    HW165531   7.078   6.592   7.936
21233SOL    HW265532   7.031   6.576   8.079
21234SOL     OW65533   0.498   6.692   9.663
21234SOL    HW165534   0.501   6.647   9.578
21234SOL    HW265535   0.590   6.708   9.684
21235SOL     OW65536   8.782   2.950   2.105
21235SOL    HW165537   8.824   3.026   2.064
21235SOL    HW265538   8.770   2.888   2.033
21236SOL     OW65539   4.435   8.000  13.390
21236SOL    HW165540   4.500   8.069  13.403
21236SOL    HW265541   4.476   7.940  13.328
21237SOL     OW65542  13.042   0.718   8.985
21237SOL    HW165543  12.949   0.697   8.992
21237SOL    HW265544  13.084   0.660   9.048
21238SOL     OW65545   6.927  11.114   3.797
21238SOL    HW165546   6.985  11.039   3.801
21238SOL    HW265547   6.866  11.094   3.726
21239SOL     OW65548   5.743  12.310  13.713
21239SOL    HW165549   5.759  12.236  13.772
21239SOL    HW265550   5.809  12.301  13.644
21240SOL     OW65551  13.304   1.288   3.657
21240SOL    HW165552  13.317   1.305   3.750
21240SOL    HW265553  13.266   1.369   3.623
21241SOL     OW65554  10.358   4.957  11.233
21241SOL    HW165555  10.404   5.015  11.294
21241SOL    HW265556  10.266   4.980  11.242
21242SOL     OW65557   1.668   8.102   4.023
21242SOL    HW165558   1.644   8.114   3.931
21242SOL    HW265559   1.586   8.115   4.070
21243SOL     OW65560   6.634   7.812   5.925
21243SOL    HW165561   6.666   7.733   5.969
21243SOL    HW265562   6.560   7.781   5.873
21244SOL     OW65563   9.360   6.462   2.305
21244SOL    HW165564   9.271   6.426   2.301
21244SOL    HW265565   9.382   6.460   2.398
21245SOL     OW65566   6.036   5.421   6.144
21245SOL    HW165567   6.057   5.488   6.209
21245SOL    HW265568   6.053   5.463   6.059
21246SOL     OW65569  11.179   7.886   9.563
21246SOL    HW165570  11.178   7.958   9.500
21246SOL    HW265571  11.139   7.923   9.641
21247SOL     OW65572   5.945   5.862   9.450
21247SOL    HW165573   6.018   5.874   9.389
21247SOL    HW265574   5.920   5.770   9.440
21248SOL     OW65575   5.763  11.844  14.600
21248SOL    HW165576   5.806  11.930  14.594
21248SOL    HW265577   5.671  11.863  14.579
21249SOL     OW65578  14.348  10.318  13.104
21249SOL    HW165579  14.299  10.399  13.086
21249SOL    HW265580  14.426  10.325  13.049
21250SOL     OW65581  12.429   6.089  11.346
21250SOL    HW165582  12.409   6.071  11.438
21250SOL    HW265583  12.442   6.184  11.343
21251SOL     OW65584  10.608  12.164  14.850
21251SOL    HW165585  10.669  12.091  14.861
21251SOL    HW265586  10.615  12.187  14.757
21252SOL     OW65587   3.892   2.065  10.842
21252SOL    HW165588   3.867   2.021  10.761
21252SOL    HW265589   3.978   2.028  10.864
21253SOL     OW65590   8.369   5.743   8.869
21253SOL    HW165591   8.464   5.731   8.869
21253SOL    HW265592   8.352   5.801   8.943
21254SOL     OW65593   7.242   7.934   5.968
21254SOL    HW165594   7.271   7.844   5.951
21254SOL    HW265595   7.314   7.973   6.018
21255SOL     OW65596  12.631   4.983   2.491
21255SOL    HW165597  12.552   4.963   2.540
21255SOL    HW265598  12.643   4.907   2.433
21256SOL     OW65599   0.130  11.630   0.000
21256SOL    HW165600   0.100  11.579   0.075
21256SOL    HW265601   0.205  11.680   0.033
21257SOL     OW65602   9.352  13.114   2.477
21257SOL    HW165603   9.278  13.083   2.425
21257SOL    HW265604   9.312  13.161   2.550
21258SOL     OW65605   1.868   9.589   7.002
21258SOL    HW165606   1.901   9.628   7.083
21258SOL    HW265607   1.844   9.664   6.948
21259SOL     OW65608   6.486   7.874  11.992
21259SOL    HW165609   6.499   7.782  11.968
21259SOL    HW265610   6.426   7.908  11.926
21260SOL     OW65611   5.349  12.068  13.613
21260SOL    HW165612   5.288  12.138  13.634
21260SOL    HW265613   5.416  12.110  13.559
21261SOL     OW65614   4.128   2.695   1.753
21261SOL    HW165615   4.083   2.628   1.703
21261SOL    HW265616   4.140   2.657   1.839
21262SOL     OW65617   8.911   6.914   9.542
21262SOL    HW165618   8.904   6.982   9.609
21262SOL    HW265619   8.864   6.949   9.466
21263SOL     OW65620  11.116   5.413   2.911
21263SOL    HW165621  11.107   5.504   2.937
21263SOL    HW265622  11.031   5.373   2.932
21264SOL     OW65623   7.199   0.912  11.861
21264SOL    HW165624   7.226   0.822  11.845
21264SOL    HW265625   7.134   0.929  11.792
21265SOL     OW65626   2.824   0.968  12.245
21265SOL    HW165627   2.876   0.912  12.187
21265SOL    HW265628   2.888   1.032  12.279
21266SOL     OW65629  14.687   1.224   7.538
21266SOL    HW165630  14.755   1.274   7.584
21266SOL    HW265631  14.605   1.256   7.575
21267SOL     OW65632   5.821   1.852  13.930
21267SOL    HW165633   5.787   1.765  13.910
21267SOL    HW265634   5.756   1.912  13.894
21268SOL     OW65635  12.657  13.991   3.511
21268SOL    HW165636  12.598  13.916   3.516
21268SOL    HW265637  12.742  13.954   3.489
21269SOL     OW65638  12.162   8.367   6.197
21269SOL    HW165639  12.171   8.405   6.284
21269SOL    HW265640  12.250   8.371   6.159
21270SOL     OW65641  11.604   9.448   8.517
21270SOL    HW165642  11.567   9.442   8.606
21270SOL    HW265643  11.631   9.539   8.508
21271SOL     OW65644   1.042  10.685  13.073
21271SOL    HW165645   0.951  10.663  13.090
21271SOL    HW265646   1.045  10.780  13.075
21272SOL     OW65647  11.727   4.299   4.872
21272SOL    HW165648  11.696   4.245   4.800
21272SOL    HW265649  11.658   4.364   4.886
21273SOL     OW65650   5.060  10.364  13.208
21273SOL    HW165651   5.008  10.355  13.128
21273SOL    HW265652   5.089  10.275  13.229
21274SOL     OW65653   7.281  13.225   0.926
21274SOL    HW165654   7.309  13.142   0.888
21274SOL    HW265655   7.364  13.270   0.946
21275SOL     OW65656   3.723   9.850   6.235
21275SOL    HW165657   3.758   9.924   6.286
21275SOL    HW265658   3.665   9.891   6.171
21276SOL     OW65659  12.161  14.798   1.464
21276SOL    HW165660  12.166  14.818   1.557
21276SOL    HW265661  12.250  14.776   1.439
21277SOL     OW65662   9.036  10.276   1.623
21277SOL    HW165663   9.116  10.260   1.673
21277SOL    HW265664   8.966  10.274   1.688
21278SOL     OW65665  14.202   1.435   0.927
21278SOL    HW165666  14.167   1.346   0.925
21278SOL    HW265667  14.294   1.424   0.951
21279SOL     OW65668   7.441  14.748  12.575
21279SOL    HW165669   7.384  14.794  12.514
21279SOL    HW265670   7.498  14.695  12.520
21280SOL     OW65671   2.553  12.795   7.105
21280SOL    HW165672   2.620  12.781   7.038
21280SOL    HW265673   2.577  12.878   7.146
21281SOL     OW65674   5.742   6.649   4.283
21281SOL    HW165675   5.831   6.664   4.316
21281SOL    HW265676   5.700   6.735   4.288
21282SOL     OW65677   7.687   0.047   4.861
21282SOL    HW165678   7.615   0.054   4.924
21282SOL    HW265679   7.679   0.127   4.809
21283SOL     OW65680   8.755   1.956   6.120
21283SOL    HW165681   8.832   1.913   6.158
21283SOL    HW265682   8.791   2.022   6.061
21284SOL     OW65683   8.683   3.218   0.225
21284SOL    HW165684   8.614   3.284   0.215
21284SOL    HW265685   8.761   3.260   0.189
21285SOL     OW65686  11.036   7.857  14.566
21285SOL    HW165687  11.022   7.839  14.659
21285SOL    HW265688  11.115   7.807  14.543
21286SOL     OW65689  11.201   1.917  11.063
21286SOL    HW165690  11.252   1.998  11.058
21286SOL    HW265691  11.253   1.853  11.015
21287SOL     OW65692   7.469   7.809  11.899
21287SOL    HW165693   7.504   7.765  11.977
21287SOL    HW265694   7.451   7.738  11.838
21288SOL     OW65695   0.245   4.789   8.020
21288SOL    HW165696   0.240   4.793   7.925
21288SOL    HW265697   0.219   4.699   8.042
21289SOL     OW65698   2.198   6.351   4.082
21289SOL    HW165699   2.166   6.434   4.046
21289SOL    HW265700   2.188   6.289   4.010
21290SOL     OW65701   7.661   4.471   9.335
21290SOL    HW165702   7.708   4.498   9.256
21290SOL    HW265703   7.703   4.388   9.360
21291SOL     OW65704   4.167   1.761  11.539
21291SOL    HW165705   4.221   1.744  11.616
21291SOL    HW265706   4.194   1.695  11.475
21292SOL     OW65707  12.186   3.762   7.555
21292SOL    HW165708  12.135   3.691   7.517
21292SOL    HW265709  12.173   3.753   7.650
21293SOL     OW65710  14.161   9.977   7.252
21293SOL    HW165711  14.249  10.011   7.268
21293SOL    HW265712  14.165   9.941   7.164
21294SOL     OW65713   3.475   0.489   2.215
21294SOL    HW165714   3.490   0.572   2.260
21294SOL    HW265715   3.560   0.445   2.220
21295SOL     OW65716  12.555   3.933   2.643
21295SOL    HW165717  12.480   3.971   2.689
21295SOL    HW265718  12.630   3.987   2.669
21296SOL     OW65719   8.815   4.169  12.621
21296SOL    HW165720   8.887   4.226  12.647
21296SOL    HW265721   8.822   4.163  12.526
21297SOL     OW65722  10.488   0.709  12.168
21297SOL    HW165723  10.506   0.782  12.227
21297SOL    HW265724  10.398   0.722  12.141
21298SOL     OW65725  12.055  10.703  12.483
21298SOL    HW165726  12.082  10.729  12.572
21298SOL    HW265727  12.129  10.654  12.449
21299SOL     OW65728   0.436  11.894  13.942
21299SOL    HW165729   0.359  11.857  13.898
21299SOL    HW265730   0.488  11.932  13.871
21300SOL     OW65731   9.717   1.313  10.744
21300SOL    HW165732   9.761   1.394  10.767
21300SOL    HW265733   9.640   1.341  10.693
21301SOL     OW65734   5.108  12.225   3.901
21301SOL    HW165735   5.106  12.290   3.971
21301SOL    HW265736   5.158  12.152   3.936
21302SOL     OW65737  11.994   0.035   8.022
21302SOL    HW165738  11.966   0.099   8.087
21302SOL    HW265739  12.059   0.082   7.969
21303SOL     OW65740  12.748   3.361  12.614
21303SOL    HW165741  12.745   3.456  12.617
21303SOL    HW265742  12.823   3.337  12.669
21304SOL     OW65743   9.260  12.328  10.040
21304SOL    HW165744   9.299  12.385   9.974
21304SOL    HW265745   9.334  12.277  10.074
21305SOL     OW65746   0.982   5.377  11.467
21305SOL    HW165747   0.891   5.371  11.497
21305SOL    HW265748   1.017   5.453  11.513
21306SOL     OW65749   1.984   3.133   0.682
21306SOL    HW165750   2.027   3.198   0.736
21306SOL    HW265751   2.022   3.049   0.710
21307SOL     OW65752  13.803   2.432  14.685
21307SOL    HW165753  13.851   2.355  14.655
21307SOL    HW265754  13.754   2.402  14.762
21308SOL     OW65755  10.425   5.883   1.668
21308SOL    HW165756  10.466   5.969   1.680
21308SOL    HW265757  10.341   5.903   1.627
21309SOL     OW65758   7.323  13.777  10.501
21309SOL    HW165759   7.399  13.791  10.445
21309SOL    HW265760   7.263  13.848  10.478
21310SOL     OW65761  14.797   2.313  14.334
21310SOL    HW165762  14.869   2.326  14.396
21310SOL    HW265763  14.771   2.222  14.346
21311SOL     OW65764   9.224   6.688  13.598
21311SOL    HW165765   9.253   6.687  13.690
21311SOL    HW265766   9.234   6.597  13.570
21312SOL     OW65767  12.063  10.803   7.522
21312SOL    HW165768  12.058  10.721   7.474
21312SOL    HW265769  12.050  10.779   7.613
21313SOL     OW65770   8.855   7.691  11.314
21313SOL    HW165771   8.845   7.768  11.370
21313SOL    HW265772   8.928   7.713  11.255
21314SOL     OW65773   2.432   3.700   6.230
21314SOL    HW165774   2.433   3.678   6.137
21314SOL    HW265775   2.524   3.701   6.256
21315SOL     OW65776   7.138  13.784   0.820
21315SOL    HW165777   7.138  13.793   0.915
21315SOL    HW265778   7.079  13.711   0.803
21316SOL     OW65779   3.747  12.700   2.955
21316SOL    HW165780   3.835  12.710   2.991
21316SOL    HW265781   3.742  12.765   2.884
21317SOL     OW65782  10.274   2.490   5.357
21317SOL    HW165783  10.224   2.465   5.279
21317SOL    HW265784  10.356   2.442   5.350
21318SOL     OW65785   2.267   7.032   7.967
21318SOL    HW165786   2.297   6.958   8.019
21318SOL    HW265787   2.250   6.996   7.881
21319SOL     OW65788   4.358   8.888   2.666
21319SOL    HW165789   4.281   8.900   2.611
21319SOL    HW265790   4.398   8.975   2.673
21320SOL     OW65791   0.686   4.722   3.238
21320SOL    HW165792   0.600   4.757   3.259
21320SOL    HW265793   0.674   4.627   3.242
21321SOL     OW65794   8.288  14.235   6.560
21321SOL    HW165795   8.226  14.162   6.553
21321SOL    HW265796   8.233  14.311   6.578
21322SOL     OW65797  11.062  14.232   9.382
21322SOL    HW165798  10.984  14.186   9.351
21322SOL    HW265799  11.130  14.165   9.385
21323SOL     OW65800   2.997   7.765   3.802
21323SOL    HW165801   2.927   7.830   3.803
21323SOL    HW265802   3.011   7.743   3.894
21324SOL     OW65803   8.440   3.748   4.866
21324SOL    HW165804   8.514   3.701   4.827
21324SOL    HW265805   8.408   3.689   4.935
21325SOL     OW65806  14.522   2.241   6.920
21325SOL    HW165807  14.509   2.235   6.825
21325SOL    HW265808  14.594   2.303   6.930
21326SOL     OW65809  13.820  11.545   0.116
21326SOL    HW165810  13.733  11.516   0.145
21326SOL    HW265811  13.818  11.536   0.021
21327SOL     OW65812   1.806  10.061   8.752
21327SOL    HW165813   1.722  10.079   8.795
21327SOL    HW265814   1.868  10.048   8.823
21328SOL     OW65815  13.652   3.604   1.752
21328SOL    HW165816  13.637   3.689   1.792
21328SOL    HW265817  13.735   3.613   1.705
21329SOL     OW65818   4.914  10.212   9.806
21329SOL    HW165819   4.871  10.126   9.798
21329SOL    HW265820   4.976  10.214   9.733
21330SOL     OW65821   6.411   4.659   1.028
21330SOL    HW165822   6.487   4.626   1.076
21330SOL    HW265823   6.439   4.659   0.937
21331SOL     OW65824   4.801  12.891  10.005
21331SOL    HW165825   4.790  12.842   9.924
21331SOL    HW265826   4.870  12.955   9.985
21332SOL     OW65827  14.553   2.446   5.971
21332SOL    HW165828  14.640   2.437   6.010
21332SOL    HW265829  14.528   2.357   5.947
21333SOL     OW65830   2.652  14.491   0.255
21333SOL    HW165831   2.604  14.523   0.178
21333SOL    HW265832   2.639  14.396   0.253
21334SOL     OW65833  13.711   4.484   4.652
21334SOL    HW165834  13.779   4.550   4.662
21334SOL    HW265835  13.630   4.530   4.675
21335SOL     OW65836  10.434  12.335   5.962
21335SOL    HW165837  10.461  12.255   6.004
21335SOL    HW265838  10.392  12.307   5.881
21336SOL     OW65839   4.970   8.887  10.060
21336SOL    HW165840   5.039   8.848  10.007
21336SOL    HW265841   4.980   8.981  10.047
21337SOL     OW65842  14.308   5.698   6.828
21337SOL    HW165843  14.343   5.614   6.796
21337SOL    HW265844  14.303   5.753   6.750
21338SOL     OW65845  13.470  14.604   1.896
21338SOL    HW165846  13.400  14.542   1.876
21338SOL    HW265847  13.544  14.574   1.844
21339SOL     OW65848   7.643   2.596  11.974
21339SOL    HW165849   7.682   2.581  11.888
21339SOL    HW265850   7.700   2.549  12.034
21340SOL     OW65851   8.107   3.732  12.813
21340SOL    HW165852   8.052   3.806  12.839
21340SOL    HW265853   8.103   3.732  12.717
21341SOL     OW65854   3.636   6.756   2.842
21341SOL    HW165855   3.686   6.742   2.923
21341SOL    HW265856   3.546   6.768   2.871
21342SOL     OW65857   1.262  10.208   0.396
21342SOL    HW165858   1.346  10.190   0.354
21342SOL    HW265859   1.280  10.283   0.453
21343SOL     OW65860   7.431   8.336   8.520
21343SOL    HW165861   7.352   8.337   8.574
21343SOL    HW265862   7.456   8.244   8.516
21344SOL     OW65863   1.520   3.292  13.957
21344SOL    HW165864   1.553   3.363  14.013
21344SOL    HW265865   1.525   3.214  14.013
21345SOL     OW65866   1.408   6.303   3.994
21345SOL    HW165867   1.367   6.369   4.049
21345SOL    HW265868   1.342   6.235   3.983
21346SOL     OW65869   0.390   7.584   6.926
21346SOL    HW165870   0.402   7.491   6.907
21346SOL    HW265871   0.296   7.593   6.942
21347SOL     OW65872   5.359  10.674   0.063
21347SOL    HW165873   5.362  10.738  14.868
21347SOL    HW265874   5.451  10.660   0.086
21348SOL     OW65875   2.270   8.223   3.634
21348SOL    HW165876   2.198   8.190   3.687
21348SOL    HW265877   2.228   8.258   3.555
21349SOL     OW65878   8.339  11.558   8.365
21349SOL    HW165879   8.412  11.604   8.407
21349SOL    HW265880   8.264  11.576   8.421
21350SOL     OW65881   1.239   8.045   3.937
21350SOL    HW165882   1.157   8.071   3.979
21350SOL    HW265883   1.299   8.117   3.954
21351SOL     OW65884   6.195   0.535   0.153
21351SOL    HW165885   6.132   0.561   0.086
21351SOL    HW265886   6.278   0.529   0.106
21352SOL     OW65887   9.101  14.793   4.993
21352SOL    HW165888   9.080  14.816   4.902
21352SOL    HW265889   9.045  14.851   5.045
21353SOL     OW65890  10.641   4.699   5.571
21353SOL    HW165891  10.732   4.700   5.598
21353SOL    HW265892  10.592   4.680   5.652
21354SOL     OW65893   4.440   5.376  11.464
21354SOL    HW165894   4.497   5.305  11.434
21354SOL    HW265895   4.479   5.455  11.426
21355SOL     OW65896   0.110  12.872   1.634
21355SOL    HW165897   0.031  12.818   1.626
21355SOL    HW265898   0.110  12.900   1.725
21356SOL     OW65899   3.563  11.722  11.736
21356SOL    HW165900   3.471  11.732  11.759
21356SOL    HW265901   3.608  11.787  11.790
21357SOL     OW65902   8.112   2.868   7.260
21357SOL    HW165903   8.044   2.810   7.294
21357SOL    HW265904   8.145   2.915   7.336
21358SOL     OW65905   4.544  14.621  12.915
21358SOL    HW165906   4.548  14.636  13.010
21358SOL    HW265907   4.469  14.673  12.886
21359SOL     OW65908   7.235  13.158   4.908
21359SOL    HW165909   7.327  13.180   4.919
21359SOL    HW265910   7.224  13.143   4.814
21360SOL     OW65911   8.161  11.358   1.979
21360SOL    HW165912   8.119  11.385   2.061
21360SOL    HW265913   8.220  11.287   2.004
21361SOL     OW65914   4.002   6.948   2.834
21361SOL    HW165915   4.083   6.984   2.797
21361SOL    HW265916   4.020   6.854   2.845
21362SOL     OW65917   7.343   1.663   2.257
21362SOL    HW165918   7.408   1.625   2.198
21362SOL    HW265919   7.290   1.589   2.286
21363SOL     OW65920  11.925   7.964   8.349
21363SOL    HW165921  12.011   7.946   8.312
21363SOL    HW265922  11.933   7.942   8.442
21364SOL     OW65923   0.399  10.637  12.401
21364SOL    HW165924   0.350  10.611  12.479
21364SOL    HW265925   0.390  10.563  12.341
21365SOL     OW65926   0.256  11.838   5.151
21365SOL    HW165927   0.225  11.905   5.089
21365SOL    HW265928   0.259  11.758   5.099
21366SOL     OW65929  14.314   3.923   2.398
21366SOL    HW165930  14.385   3.988   2.397
21366SOL    HW265931  14.250   3.955   2.335
21367SOL     OW65932   6.160   4.013   2.142
21367SOL    HW165933   6.110   4.029   2.062
21367SOL    HW265934   6.250   3.999   2.112
21368SOL     OW65935  11.276   1.179  10.732
21368SOL    HW165936  11.369   1.192  10.711
21368SOL    HW265937  11.276   1.149  10.823
21369SOL     OW65938   6.735  13.798   3.368
21369SOL    HW165939   6.656  13.852   3.358
21369SOL    HW265940   6.774  13.829   3.450
21370SOL     OW65941  14.479   7.301   3.687
21370SOL    HW165942  14.530   7.309   3.767
21370SOL    HW265943  14.388   7.300   3.716
21371SOL     OW65944   4.896   3.322  10.795
21371SOL    HW165945   4.917   3.270  10.873
21371SOL    HW265946   4.862   3.404  10.830
21372SOL     OW65947  11.729  12.856  12.065
21372SOL    HW165948  11.703  12.865  12.157
21372SOL    HW265949  11.709  12.941  12.025
21373SOL     OW65950   2.654  11.699   9.754
21373SOL    HW165951   2.718  11.678   9.685
21373SOL    HW265952   2.707  11.710   9.833
21374SOL     OW65953  10.110  14.624   1.965
21374SOL    HW165954  10.015  14.626   1.962
21374SOL    HW265955  10.132  14.631   2.058
21375SOL     OW65956   6.179   4.303  10.699
21375SOL    HW165957   6.251   4.339  10.647
21375SOL    HW265958   6.218   4.233  10.750
21376SOL     OW65959   2.690   1.900  11.658
21376SOL    HW165960   2.775   1.856  11.660
21376SOL    HW265961   2.648   1.876  11.741
21377SOL     OW65962   3.908   6.408  10.501
21377SOL    HW165963   3.990   6.394  10.455
21377SOL    HW265964   3.904   6.337  10.565
21378SOL     OW65965   2.043  10.177  12.042
21378SOL    HW165966   2.099  10.103  12.064
21378SOL    HW265967   2.101  10.254  12.048
21379SOL     OW65968   7.134  12.888   3.382
21379SOL    HW165969   7.176  12.951   3.440
21379SOL    HW265970   7.043  12.884   3.412
21380SOL     OW65971   6.986  11.643   9.616
21380SOL    HW165972   6.921  11.575   9.631
21380SOL    HW265973   6.944  11.705   9.557
21381SOL     OW65974   2.062  13.115  11.305
21381SOL    HW165975   2.041  13.162  11.385
21381SOL    HW265976   2.113  13.177  11.253
21382SOL     OW65977   7.470   7.320   8.944
21382SOL    HW165978   7.391   7.308   8.996
21382SOL    HW265979   7.451   7.275   8.861
21383SOL     OW65980   0.233   7.064   0.555
21383SOL    HW165981   0.160   7.080   0.495
21383SOL    HW265982   0.214   6.978   0.593
21384SOL     OW65983  11.645   7.949   7.554
21384SOL    HW165984  11.720   7.907   7.596
21384SOL    HW265985  11.678   7.976   7.468
21385SOL     OW65986   8.514  10.803   1.894
21385SOL    HW165987   8.554  10.757   1.967
21385SOL    HW265988   8.507  10.737   1.825
21386SOL     OW65989   3.444   7.233   7.542
21386SOL    HW165990   3.397   7.309   7.577
21386SOL    HW265991   3.399   7.212   7.460
21387SOL     OW65992  11.554  11.241  11.316
21387SOL    HW165993  11.460  11.241  11.333
21387SOL    HW265994  11.564  11.295  11.238
21388SOL     OW65995   5.433   4.003  12.466
21388SOL    HW165996   5.399   3.914  12.462
21388SOL    HW265997   5.363   4.057  12.428
21389SOL     OW65998   8.638   2.910   4.541
21389SOL    HW165999   8.664   2.818   4.532
21389SOL    HW266000   8.700   2.957   4.484
21390SOL     OW66001   1.379   9.099  14.520
21390SOL    HW166002   1.299   9.122  14.473
21390SOL    HW266003   1.440   9.072  14.452
21391SOL     OW66004   1.167  10.073  12.624
21391SOL    HW166005   1.170   9.980  12.646
21391SOL    HW266006   1.257  10.094  12.596
21392SOL     OW66007   1.097   4.584  12.695
21392SOL    HW166008   1.017   4.595  12.643
21392SOL    HW266009   1.107   4.668  12.741
21393SOL     OW66010   0.078   5.324   7.150
21393SOL    HW166011   0.106   5.413   7.128
21393SOL    HW266012   0.104   5.313   7.242
21394SOL     OW66013  14.779   3.300  11.861
21394SOL    HW166014  14.816   3.341  11.939
21394SOL    HW266015  14.853   3.294  11.800
21395SOL     OW66016  14.644   4.819   5.185
21395SOL    HW166017  14.682   4.753   5.243
21395SOL    HW266018  14.720   4.867   5.152
21396SOL     OW66019   4.892  14.225   2.434
21396SOL    HW166020   4.963  14.237   2.497
21396SOL    HW266021   4.865  14.314   2.411
21397SOL     OW66022   7.794  12.224  14.567
21397SOL    HW166023   7.731  12.235  14.638
21397SOL    HW266024   7.814  12.130  14.566
21398SOL     OW66025  10.126   7.939   1.073
21398SOL    HW166026  10.060   7.991   1.027
21398SOL    HW266027  10.082   7.910   1.153
21399SOL     OW66028   5.390   7.496   1.821
21399SOL    HW166029   5.325   7.465   1.758
21399SOL    HW266030   5.437   7.418   1.848
21400SOL     OW66031   7.759  13.667   6.916
21400SOL    HW166032   7.802  13.682   6.832
21400SOL    HW266033   7.818  13.609   6.963
21401SOL     OW66034  14.746   5.453   0.442
21401SOL    HW166035  14.746   5.459   0.538
21401SOL    HW266036  14.675   5.392   0.423
21402SOL     OW66037   9.016  13.522   7.894
21402SOL    HW166038   8.939  13.549   7.944
21402SOL    HW266039   9.012  13.575   7.815
21403SOL     OW66040  14.206   9.400  11.305
21403SOL    HW166041  14.206   9.366  11.215
21403SOL    HW266042  14.201   9.321  11.360
21404SOL     OW66043   4.730  10.709   2.144
21404SOL    HW166044   4.764  10.797   2.161
21404SOL    HW266045   4.803  10.651   2.164
21405SOL     OW66046  10.924   5.138   8.232
21405SOL    HW166047  10.893   5.228   8.238
21405SOL    HW266048  10.971   5.134   8.149
21406SOL     OW66049   9.000  13.323  13.418
21406SOL    HW166050   8.999  13.235  13.381
21406SOL    HW266051   8.947  13.375  13.357
21407SOL     OW66052   7.372  10.052   7.457
21407SOL    HW166053   7.283  10.088   7.461
21407SOL    HW266054   7.427  10.121   7.494
21408SOL     OW66055   6.727   1.179  10.713
21408SOL    HW166056   6.639   1.193  10.679
21408SOL    HW266057   6.785   1.208  10.643
21409SOL     OW66058   9.556   2.094   5.995
21409SOL    HW166059   9.589   2.184   5.997
21409SOL    HW266060   9.509   2.085   6.078
21410SOL     OW66061   7.509  12.506   9.841
21410SOL    HW166062   7.593  12.528   9.881
21410SOL    HW266063   7.444  12.540   9.902
21411SOL     OW66064  11.295   8.822   1.947
21411SOL    HW166065  11.213   8.828   1.997
21411SOL    HW266066  11.347   8.896   1.977
21412SOL     OW66067   6.301   5.817  13.912
21412SOL    HW166068   6.341   5.730  13.910
21412SOL    HW266069   6.216   5.805  13.871
21413SOL     OW66070   9.334   2.150   1.479
21413SOL    HW166071   9.248   2.189   1.463
21413SOL    HW266072   9.397   2.217   1.449
21414SOL     OW66073   6.283   4.062   7.566
21414SOL    HW166074   6.354   4.077   7.629
21414SOL    HW266075   6.315   3.991   7.511
21415SOL     OW66076   5.454   7.872   1.369
21415SOL    HW166077   5.465   7.861   1.464
21415SOL    HW266078   5.516   7.941   1.345
21416SOL     OW66079  12.232   4.862   8.011
21416SOL    HW166080  12.317   4.903   7.995
21416SOL    HW266081  12.183   4.876   7.930
21417SOL     OW66082   6.028  10.437   3.166
21417SOL    HW166083   6.062  10.368   3.223
21417SOL    HW266084   6.104  10.488   3.141
21418SOL     OW66085  13.096  14.798   5.808
21418SOL    HW166086  13.122  14.750   5.886
21418SOL    HW266087  13.001  14.805   5.814
21419SOL     OW66088  14.024  10.472  11.132
21419SOL    HW166089  13.938  10.513  11.139
21419SOL    HW266090  14.011  10.401  11.069
21420SOL     OW66091   5.895   8.053  10.391
21420SOL    HW166092   5.806   8.087  10.396
21420SOL    HW266093   5.888   7.973  10.340
21421SOL     OW66094   6.692   6.986   8.590
21421SOL    HW166095   6.691   6.921   8.660
21421SOL    HW266096   6.757   7.050   8.618
21422SOL     OW66097   0.703  13.487   4.982
21422SOL    HW166098   0.613  13.456   4.996
21422SOL    HW266099   0.734  13.508   5.070
21423SOL     OW66100  13.243   7.233   9.112
21423SOL    HW166101  13.317   7.225   9.051
21423SOL    HW266102  13.174   7.274   9.059
21424SOL     OW66103   3.595   5.155  11.078
21424SOL    HW166104   3.559   5.140  10.991
21424SOL    HW266105   3.523   5.131  11.137
21425SOL     OW66106   8.119   5.577   1.006
21425SOL    HW166107   8.205   5.542   1.025
21425SOL    HW266108   8.135   5.649   0.944
21426SOL     OW66109   6.049   1.245   2.752
21426SOL    HW166110   6.088   1.168   2.793
21426SOL    HW266111   5.969   1.261   2.801
21427SOL     OW66112  11.435  12.125   3.798
21427SOL    HW166113  11.525  12.095   3.802
21427SOL    HW266114  11.441  12.219   3.781
21428SOL     OW66115   3.278  11.205   3.263
21428SOL    HW166116   3.201  11.240   3.218
21428SOL    HW266117   3.352  11.242   3.216
21429SOL     OW66118   4.131   9.767   5.681
21429SOL    HW166119   4.049   9.816   5.687
21429SOL    HW266120   4.111   9.692   5.625
21430SOL     OW66121   2.461   3.674   5.952
21430SOL    HW166122   2.395   3.665   5.883
21430SOL    HW266123   2.500   3.587   5.960
21431SOL     OW66124  12.004  14.210   0.571
21431SOL    HW166125  11.935  14.231   0.508
21431SOL    HW266126  12.015  14.115   0.563
21432SOL     OW66127   5.801   8.410  12.715
21432SOL    HW166128   5.772   8.347  12.648
21432SOL    HW266129   5.761   8.378  12.796
21433SOL     OW66130  12.925   6.946   3.139
21433SOL    HW166131  12.834   6.930   3.112
21433SOL    HW266132  12.932   7.041   3.144
21434SOL     OW66133  14.080  12.113   0.467
21434SOL    HW166134  14.091  12.208   0.460
21434SOL    HW266135  14.165  12.078   0.443
21435SOL     OW66136  11.151  10.762   2.854
21435SOL    HW166137  11.173  10.764   2.947
21435SOL    HW266138  11.234  10.780   2.809
21436SOL     OW66139   8.373   6.174   7.672
21436SOL    HW166140   8.369   6.206   7.762
21436SOL    HW266141   8.425   6.239   7.626
21437SOL     OW66142   0.230   5.928   8.185
21437SOL    HW166143   0.306   5.943   8.241
21437SOL    HW266144   0.179   5.861   8.230
21438SOL     OW66145   9.116  10.802  11.932
21438SOL    HW166146   9.150  10.864  11.869
21438SOL    HW266147   9.193  10.753  11.961
21439SOL     OW66148   2.100   3.862  13.204
21439SOL    HW166149   2.083   3.881  13.111
21439SOL    HW266150   2.149   3.780  13.203
21440SOL     OW66151   0.045   4.737   1.631
21440SOL    HW166152   0.028   4.794   1.556
21440SOL    HW266153  14.839   4.689   1.644
21441SOL     OW66154   6.918   8.545   1.427
21441SOL    HW166155   6.874   8.471   1.386
21441SOL    HW266156   7.004   8.511   1.453
21442SOL     OW66157  13.411   9.811  10.969
21442SOL    HW166158  13.322   9.789  10.997
21442SOL    HW266159  13.402   9.835  10.876
21443SOL     OW66160  12.186   3.666  10.696
21443SOL    HW166161  12.148   3.747  10.663
21443SOL    HW266162  12.248   3.639  10.628
21444SOL     OW66163   6.634  10.051  10.754
21444SOL    HW166164   6.660  10.092  10.671
21444SOL    HW266165   6.549  10.012  10.735
21445SOL     OW66166   9.432   0.315   9.076
21445SOL    HW166167   9.465   0.237   9.030
21445SOL    HW266168   9.419   0.380   9.007
21446SOL     OW66169   1.083   2.160  13.615
21446SOL    HW166170   1.122   2.247  13.599
21446SOL    HW266171   1.010   2.178  13.674
21447SOL     OW66172   7.931   8.209   6.656
21447SOL    HW166173   7.990   8.177   6.724
21447SOL    HW266174   7.910   8.131   6.604
21448SOL     OW66175  13.338   5.956  12.024
21448SOL    HW166176  13.403   5.887  12.039
21448SOL    HW266177  13.261   5.909  11.991
21449SOL     OW66178   3.348  12.258   2.367
21449SOL    HW166179   3.279  12.307   2.321
21449SOL    HW266180   3.307  12.230   2.449
21450SOL     OW66181  11.473  14.462   0.599
21450SOL    HW166182  11.454  14.546   0.640
21450SOL    HW266183  11.553  14.431   0.643
21451SOL     OW66184   6.546   8.732   8.372
21451SOL    HW166185   6.600   8.673   8.425
21451SOL    HW266186   6.602   8.754   8.297
21452SOL     OW66187  12.044  13.170   3.678
21452SOL    HW166188  12.030  13.174   3.583
21452SOL    HW266189  12.058  13.078   3.696
21453SOL     OW66190  12.738   1.770   3.492
21453SOL    HW166191  12.808   1.832   3.471
21453SOL    HW266192  12.679   1.775   3.417
21454SOL     OW66193   5.113  13.854   4.104
21454SOL    HW166194   5.041  13.885   4.158
21454SOL    HW266195   5.187  13.847   4.164
21455SOL     OW66196  14.598   7.223  14.459
21455SOL    HW166197  14.536   7.160  14.495
21455SOL    HW266198  14.582   7.221  14.365
21456SOL     OW66199   6.976   1.581   3.110
21456SOL    HW166200   6.999   1.635   3.034
21456SOL    HW266201   6.972   1.643   3.183
21457SOL     OW66202   9.370   9.442   5.503
21457SOL    HW166203   9.313   9.518   5.517
21457SOL    HW266204   9.458   9.479   5.497
21458SOL     OW66205  13.523  13.200   0.879
21458SOL    HW166206  13.448  13.150   0.909
21458SOL    HW266207  13.577  13.212   0.957
21459SOL     OW66208  14.270  12.486   4.977
21459SOL    HW166209  14.327  12.559   4.953
21459SOL    HW266210  14.194  12.496   4.919
21460SOL     OW66211   1.947   5.289   4.100
21460SOL    HW166212   2.016   5.353   4.083
21460SOL    HW266213   1.978   5.209   4.057
21461SOL     OW66214  10.520   0.690   6.536
21461SOL    HW166215  10.555   0.778   6.521
21461SOL    HW266216  10.425   0.702   6.535
21462SOL     OW66217  10.120   8.607  13.162
21462SOL    HW166218  10.135   8.543  13.093
21462SOL    HW266219  10.123   8.556  13.243
21463SOL     OW66220   1.931   6.487   7.464
21463SOL    HW166221   1.986   6.411   7.482
21463SOL    HW266222   1.867   6.487   7.535
21464SOL     OW66223   2.227   9.654   0.167
21464SOL    HW166224   2.208   9.740   0.205
21464SOL    HW266225   2.226   9.594   0.241
21465SOL     OW66226  12.096   4.807   7.721
21465SOL    HW166227  12.169   4.788   7.662
21465SOL    HW266228  12.039   4.730   7.714
21466SOL     OW66229   7.164  11.465  11.935
21466SOL    HW166230   7.161  11.497  12.026
21466SOL    HW266231   7.200  11.537  11.885
21467SOL     OW66232  10.639   1.488   4.313
21467SOL    HW166233  10.577   1.531   4.254
21467SOL    HW266234  10.674   1.416   4.262
21468SOL     OW66235   4.469   8.366  10.950
21468SOL    HW166236   4.520   8.420  11.012
21468SOL    HW266237   4.531   8.299  10.921
21469SOL     OW66238   8.944   6.152   1.570
21469SOL    HW166239   8.947   6.068   1.615
21469SOL    HW266240   8.883   6.139   1.498
21470SOL     OW66241   8.981  10.870  14.101
21470SOL    HW166242   8.915  10.898  14.037
21470SOL    HW266243   8.975  10.775  14.101
21471SOL     OW66244   0.548   0.067   4.521
21471SOL    HW166245   0.536  14.872   4.584
21471SOL    HW266246   0.511   0.144   4.564
21472SOL     OW66247   3.033   0.103   7.988
21472SOL    HW166248   3.005   0.187   8.025
21472SOL    HW266249   3.061   0.125   7.899
21473SOL     OW66250   5.792   2.575   7.583
21473SOL    HW166251   5.725   2.639   7.559
21473SOL    HW266252   5.805   2.524   7.503
21474SOL     OW66253  13.561   0.501   9.362
21474SOL    HW166254  13.548   0.590   9.330
21474SOL    HW266255  13.623   0.511   9.435
21475SOL     OW66256  13.178   8.943   4.483
21475SOL    HW166257  13.178   8.857   4.523
21475SOL    HW266258  13.130   8.999   4.545
21476SOL     OW66259   3.296   8.232   3.920
21476SOL    HW166260   3.338   8.316   3.904
21476SOL    HW266261   3.346   8.170   3.867
21477SOL     OW66262   5.955   3.237   8.862
21477SOL    HW166263   5.913   3.323   8.859
21477SOL    HW266264   5.968   3.219   8.955
21478SOL     OW66265   0.153  12.237   7.357
21478SOL    HW166266   0.086  12.176   7.388
21478SOL    HW266267   0.230  12.219   7.411
21479SOL     OW66268  13.314   2.158   6.556
21479SOL    HW166269  13.295   2.106   6.634
21479SOL    HW266270  13.242   2.138   6.496
21480SOL     OW66271   4.611   9.226  13.085
21480SOL    HW166272   4.696   9.252  13.123
21480SOL    HW266273   4.567   9.179  13.156
21481SOL     OW66274   9.441  13.742   5.953
21481SOL    HW166275   9.480  13.782   5.876
21481SOL    HW266276   9.496  13.665   5.971
21482SOL     OW66277  12.324  10.168   4.329
21482SOL    HW166278  12.366  10.248   4.298
21482SOL    HW266279  12.230  10.184   4.319
21483SOL     OW66280   9.597  12.091   9.818
21483SOL    HW166281   9.651  12.152   9.868
21483SOL    HW266282   9.647  12.076   9.737
21484SOL     OW66283   7.868   6.489  13.092
21484SOL    HW166284   7.897   6.490  13.001
21484SOL    HW266285   7.772   6.488  13.086
21485SOL     OW66286   3.653   8.477   9.431
21485SOL    HW166287   3.571   8.519   9.405
21485SOL    HW266288   3.661   8.495   9.525
21486SOL     OW66289  11.993   2.645  11.099
21486SOL    HW166290  12.019   2.560  11.062
21486SOL    HW266291  11.973   2.699  11.022
21487SOL     OW66292  14.103   8.549  12.230
21487SOL    HW166293  14.063   8.623  12.183
21487SOL    HW266294  14.134   8.491  12.161
21488SOL     OW66295  10.558  10.842   5.600
21488SOL    HW166296  10.609  10.864   5.679
21488SOL    HW266297  10.602  10.766   5.564
21489SOL     OW66298  10.351   2.801   1.865
21489SOL    HW166299  10.402   2.882   1.864
21489SOL    HW266300  10.286   2.815   1.933
21490SOL     OW66301   4.289   3.153   7.929
21490SOL    HW166302   4.245   3.227   7.887
21490SOL    HW266303   4.382   3.165   7.910
21491SOL     OW66304  13.166  12.746  10.703
21491SOL    HW166305  13.136  12.792  10.781
21491SOL    HW266306  13.256  12.720  10.722
21492SOL     OW66307   6.672   4.429  13.943
21492SOL    HW166308   6.643   4.383  13.864
21492SOL    HW266309   6.750   4.476  13.915
21493SOL     OW66310   1.160   6.073   1.016
21493SOL    HW166311   1.250   6.106   1.023
21493SOL    HW266312   1.169   5.992   0.966
21494SOL     OW66313   8.624   4.059   7.164
21494SOL    HW166314   8.571   4.123   7.212
21494SOL    HW266315   8.703   4.108   7.140
21495SOL     OW66316   6.479   6.881   0.091
21495SOL    HW166317   6.422   6.804   0.103
21495SOL    HW266318   6.567   6.849   0.112
21496SOL     OW66319   4.328   9.305  13.834
21496SOL    HW166320   4.258   9.305  13.899
21496SOL    HW266321   4.291   9.351  13.758
21497SOL     OW66322   3.162   8.543   5.674
21497SOL    HW166323   3.225   8.477   5.700
21497SOL    HW266324   3.188   8.622   5.721
21498SOL     OW66325   5.446   7.138  14.813
21498SOL    HW166326   5.515   7.074  14.795
21498SOL    HW266327   5.367   7.085  14.828
21499SOL     OW66328   9.713   0.505   0.979
21499SOL    HW166329   9.791   0.472   1.023
21499SOL    HW266330   9.708   0.455   0.898
21500SOL     OW66331  10.393   9.277   5.133
21500SOL    HW166332  10.448   9.329   5.192
21500SOL    HW266333  10.455   9.224   5.083
21501SOL     OW66334   6.768   1.230  11.444
21501SOL    HW166335   6.685   1.184  11.433
21501SOL    HW266336   6.769   1.253  11.537
21502SOL     OW66337   6.974  10.110   1.053
21502SOL    HW166338   7.017  10.193   1.073
21502SOL    HW266339   6.934  10.082   1.135
21503SOL     OW66340   8.559  11.616   5.648
21503SOL    HW166341   8.465  11.596   5.643
21503SOL    HW266342   8.571  11.650   5.737
21504SOL     OW66343  12.981   3.674  10.692
21504SOL    HW166344  12.886   3.680  10.685
21504SOL    HW266345  12.999   3.580  10.694
21505SOL     OW66346  14.815  13.787  12.782
21505SOL    HW166347  14.781  13.755  12.866
21505SOL    HW266348   0.031  13.809  12.800
21506SOL     OW66349   8.004  12.083  12.607
21506SOL    HW166350   8.014  12.098  12.513
21506SOL    HW266351   7.928  12.137  12.631
21507SOL     OW66352   1.797  11.645  14.266
21507SOL    HW166353   1.749  11.718  14.227
21507SOL    HW266354   1.865  11.625  14.202
21508SOL     OW66355   5.632   5.224   9.129
21508SOL    HW166356   5.599   5.311   9.152
21508SOL    HW266357   5.562   5.185   9.077
21509SOL     OW66358   5.776   5.563   4.593
21509SOL    HW166359   5.721   5.552   4.671
21509SOL    HW266360   5.757   5.652   4.563
21510SOL     OW66361   5.805  10.257  10.615
21510SOL    HW166362   5.900  10.264  10.615
21510SOL    HW266363   5.788  10.170  10.580
21511SOL     OW66364   1.419   2.571   7.456
21511SOL    HW166365   1.496   2.580   7.512
21511SOL    HW266366   1.395   2.479   7.464
21512SOL     OW66367   9.521  12.510   6.235
21512SOL    HW166368   9.553  12.572   6.300
21512SOL    HW266369   9.486  12.564   6.165
21513SOL     OW66370   5.168  14.747   4.290
21513SOL    HW166371   5.124  14.684   4.233
21513SOL    HW266372   5.098  14.782   4.345
21514SOL     OW66373   1.889   7.041   5.823
21514SOL    HW166374   1.840   6.966   5.789
21514SOL    HW266375   1.979   7.023   5.798
21515SOL     OW66376   8.548   5.472   6.539
21515SOL    HW166377   8.538   5.565   6.555
21515SOL    HW266378   8.606   5.467   6.464
21516SOL     OW66379  10.848   9.014  10.688
21516SOL    HW166380  10.873   9.093  10.736
21516SOL    HW266381  10.752   9.018  10.684
21517SOL     OW66382  13.164  11.829   3.537
21517SOL    HW166383  13.188  11.911   3.493
21517SOL    HW266384  13.088  11.851   3.590
21518SOL     OW66385  12.639   2.719   1.953
21518SOL    HW166386  12.657   2.813   1.962
21518SOL    HW266387  12.579   2.713   1.878
21519SOL     OW66388  11.923   2.063   7.763
21519SOL    HW166389  11.885   2.130   7.821
21519SOL    HW266390  12.003   2.104   7.729
21520SOL     OW66391  13.362  11.743  14.123
21520SOL    HW166392  13.402  11.811  14.177
21520SOL    HW266393  13.416  11.740  14.044
21521SOL     OW66394  13.329   5.823   8.337
21521SOL    HW166395  13.323   5.897   8.397
21521SOL    HW266396  13.376   5.756   8.386
21522SOL     OW66397  10.765  14.770   2.817
21522SOL    HW166398  10.764  14.863   2.841
21522SOL    HW266399  10.827  14.730   2.878
21523SOL     OW66400   7.224  12.771   5.062
21523SOL    HW166401   7.278  12.814   5.129
21523SOL    HW266402   7.199  12.687   5.102
21524SOL     OW66403   6.056   4.844  12.753
21524SOL    HW166404   6.118   4.914  12.774
21524SOL    HW266405   6.106   4.785  12.696
21525SOL     OW66406   6.317   0.326   2.625
21525SOL    HW166407   6.306   0.231   2.614
21525SOL    HW266408   6.412   0.339   2.622
21526SOL     OW66409  13.722   3.031   6.953
21526SOL    HW166410  13.681   2.959   6.906
21526SOL    HW266411  13.650   3.088   6.978
21527SOL     OW66412  11.823  13.425  10.243
21527SOL    HW166413  11.787  13.343  10.209
21527SOL    HW266414  11.765  13.493  10.209
21528SOL     OW66415   9.811  10.117   3.049
21528SOL    HW166416   9.862  10.181   3.100
21528SOL    HW266417   9.752  10.171   2.996
21529SOL     OW66418   1.762   2.121   0.197
21529SOL    HW166419   1.784   2.046   0.142
21529SOL    HW266420   1.803   2.196   0.152
21530SOL     OW66421   6.101   2.676   2.631
21530SOL    HW166422   6.138   2.736   2.696
21530SOL    HW266423   6.173   2.618   2.608
21531SOL     OW66424   0.560   8.683   9.852
21531SOL    HW166425   0.507   8.746   9.804
21531SOL    HW266426   0.638   8.733   9.879
21532SOL     OW66427   9.983   7.506   9.221
21532SOL    HW166428   9.957   7.431   9.274
21532SOL    HW266429  10.029   7.468   9.147
21533SOL     OW66430   7.392   4.790   8.634
21533SOL    HW166431   7.440   4.823   8.558
21533SOL    HW266432   7.461   4.765   8.697
21534SOL     OW66433   5.940   1.001   5.009
21534SOL    HW166434   5.861   1.024   4.961
21534SOL    HW266435   6.009   1.001   4.942
21535SOL     OW66436   2.753   7.341   0.521
21535SOL    HW166437   2.764   7.316   0.429
21535SOL    HW266438   2.779   7.263   0.571
21536SOL     OW66439   2.287   9.517  12.544
21536SOL    HW166440   2.278   9.500  12.638
21536SOL    HW266441   2.272   9.433  12.502
21537SOL     OW66442   5.752   2.179   4.618
21537SOL    HW166443   5.741   2.127   4.539
21537SOL    HW266444   5.672   2.233   4.622
21538SOL     OW66445  10.607   3.391   3.591
21538SOL    HW166446  10.668   3.326   3.556
21538SOL    HW266447  10.569   3.431   3.513
21539SOL     OW66448   1.884   2.236   6.195
21539SOL    HW166449   1.922   2.264   6.112
21539SOL    HW266450   1.819   2.170   6.171
21540SOL     OW66451  14.480   7.210   6.934
21540SOL    HW166452  14.475   7.154   7.011
21540SOL    HW266453  14.390   7.220   6.905
21541SOL     OW66454   5.880   9.857   1.458
21541SOL    HW166455   5.802   9.824   1.503
21541SOL    HW266456   5.864   9.839   1.365
21542SOL     OW66457  10.027  10.988   7.017
21542SOL    HW166458  10.024  10.904   7.063
21542SOL    HW266459  10.109  10.986   6.968
21543SOL     OW66460   1.881  14.172  11.113
21543SOL    HW166461   1.945  14.164  11.042
21543SOL    HW266462   1.821  14.240  11.083
21544SOL     OW66463  14.291  10.125  14.843
21544SOL    HW166464  14.264  10.088   0.051
21544SOL    HW266465  14.332  10.053  14.796
21545SOL     OW66466  10.176   6.597   5.857
21545SOL    HW166467  10.270   6.583   5.866
21545SOL    HW266468  10.138   6.557   5.935
21546SOL     OW66469   6.766   0.470   7.708
21546SOL    HW166470   6.681   0.437   7.678
21546SOL    HW266471   6.745   0.521   7.787
21547SOL     OW66472  10.179   8.235   3.234
21547SOL    HW166473  10.194   8.166   3.169
21547SOL    HW266474  10.109   8.288   3.196
21548SOL     OW66475   0.042   6.522  11.496
21548SOL    HW166476   0.127   6.506  11.536
21548SOL    HW266477  14.855   6.484  11.558
21549SOL     OW66478  10.743  11.237  12.969
21549SOL    HW166479  10.740  11.242  12.873
21549SOL    HW266480  10.656  11.205  12.994
21550SOL     OW66481  13.003   5.694  10.856
21550SOL    HW166482  13.020   5.643  10.777
21550SOL    HW266483  12.925   5.654  10.895
21551SOL     OW66484   3.429  10.040   7.752
21551SOL    HW166485   3.401   9.987   7.678
21551SOL    HW266486   3.377  10.120   7.746
21552SOL     OW66487   1.256  12.092  11.059
21552SOL    HW166488   1.217  12.008  11.035
21552SOL    HW266489   1.347  12.071  11.079
21553SOL     OW66490   1.476  13.629   8.359
21553SOL    HW166491   1.486  13.625   8.454
21553SOL    HW266492   1.382  13.617   8.344
21554SOL     OW66493   7.227   5.728   7.759
21554SOL    HW166494   7.225   5.755   7.851
21554SOL    HW266495   7.320   5.732   7.735
21555SOL     OW66496   9.808   3.027  11.728
21555SOL    HW166497   9.748   3.071  11.788
21555SOL    HW266498   9.894   3.059  11.751
21556SOL     OW66499  14.398   8.527   6.706
21556SOL    HW166500  14.458   8.569   6.769
21556SOL    HW266501  14.369   8.599   6.650
21557SOL     OW66502   9.302   6.233   5.762
21557SOL    HW166503   9.223   6.256   5.712
21557SOL    HW266504   9.322   6.143   5.734
21558SOL     OW66505   4.477  12.944   9.446
21558SOL    HW166506   4.522  12.946   9.530
21558SOL    HW266507   4.407  12.879   9.458
21559SOL     OW66508   6.192  13.861  10.850
21559SOL    HW166509   6.273  13.868  10.799
21559SOL    HW266510   6.153  13.778  10.822
21560SOL     OW66511   7.889   7.587   0.791
21560SOL    HW166512   7.971   7.562   0.749
21560SOL    HW266513   7.897   7.681   0.806
21561SOL     OW66514   1.614   5.111   2.657
21561SOL    HW166515   1.519   5.118   2.656
21561SOL    HW266516   1.635   5.059   2.580
21562SOL     OW66517   1.466  12.167  14.188
21562SOL    HW166518   1.405  12.129  14.251
21562SOL    HW266519   1.413  12.228  14.137
21563SOL     OW66520   5.646  14.720   8.761
21563SOL    HW166521   5.711  14.755   8.821
21563SOL    HW266522   5.615  14.796   8.712
21564SOL     OW66523   3.681   5.533   5.348
21564SOL    HW166524   3.643   5.552   5.263
21564SOL    HW266525   3.730   5.613   5.370
21565SOL     OW66526   4.969   5.904   0.668
21565SOL    HW166527   4.875   5.910   0.682
21565SOL    HW266528   5.006   5.899   0.756
21566SOL     OW66529   4.002  14.184   6.207
21566SOL    HW166530   3.942  14.245   6.165
21566SOL    HW266531   4.013  14.114   6.142
21567SOL     OW66532  12.303   2.692   2.955
21567SOL    HW166533  12.353   2.764   2.916
21567SOL    HW266534  12.231   2.677   2.894
21568SOL     OW66535  13.944   3.409   1.543
21568SOL    HW166536  13.956   3.491   1.589
21568SOL    HW266537  13.876   3.427   1.478
21569SOL     OW66538   5.296   4.258  11.220
21569SOL    HW166539   5.214   4.224  11.257
21569SOL    HW266540   5.276   4.271  11.127
21570SOL     OW66541   6.906   6.339   4.082
21570SOL    HW166542   6.918   6.395   4.158
21570SOL    HW266543   6.842   6.385   4.027
21571SOL     OW66544   5.336   9.657   3.614
21571SOL    HW166545   5.361   9.629   3.702
21571SOL    HW266546   5.371   9.746   3.606
21572SOL     OW66547   9.566   9.996   5.353
21572SOL    HW166548   9.540   9.979   5.444
21572SOL    HW266549   9.605   9.913   5.324
21573SOL     OW66550   8.324  12.826   1.243
21573SOL    HW166551   8.276  12.775   1.309
21573SOL    HW266552   8.279  12.910   1.241
21574SOL     OW66553  11.646  10.079  13.320
21574SOL    HW166554  11.560  10.103  13.284
21574SOL    HW266555  11.705  10.081  13.244
21575SOL     OW66556   0.704   3.907   2.423
21575SOL    HW166557   0.762   3.851   2.474
21575SOL    HW266558   0.616   3.875   2.444
21576SOL     OW66559   2.437   7.977  10.310
21576SOL    HW166560   2.475   7.900  10.352
21576SOL    HW266561   2.503   8.005  10.247
21577SOL     OW66562   4.792   5.600   8.466
21577SOL    HW166563   4.763   5.646   8.387
21577SOL    HW266564   4.742   5.518   8.466
21578SOL     OW66565   4.791   1.479   0.426
21578SOL    HW166566   4.800   1.476   0.522
21578SOL    HW266567   4.796   1.387   0.399
21579SOL     OW66568   5.998   2.335  14.134
21579SOL    HW166569   5.931   2.313  14.070
21579SOL    HW266570   6.054   2.257  14.139
21580SOL     OW66571  10.871  10.458  13.353
21580SOL    HW166572  10.860  10.365  13.375
21580SOL    HW266573  10.955  10.461  13.307
21581SOL     OW66574   2.056   7.124  12.563
21581SOL    HW166575   2.144   7.121  12.601
21581SOL    HW266576   2.064   7.183  12.488
21582SOL     OW66577   0.677  12.615   9.502
21582SOL    HW166578   0.757  12.568   9.482
21582SOL    HW266579   0.702  12.708   9.501
21583SOL     OW66580   7.993   2.618   9.921
21583SOL    HW166581   7.983   2.701   9.968
21583SOL    HW266582   7.962   2.552   9.983
21584SOL     OW66583   1.343   7.942   1.193
21584SOL    HW166584   1.349   8.029   1.154
21584SOL    HW266585   1.362   7.882   1.121
21585SOL     OW66586  13.643   7.422   9.384
21585SOL    HW166587  13.599   7.507   9.394
21585SOL    HW266588  13.584   7.360   9.427
21586SOL     OW66589  14.736  12.902  11.108
21586SOL    HW166590  14.702  12.836  11.168
21586SOL    HW266591  14.750  12.854  11.026
21587SOL     OW66592   8.427   4.203   3.647
21587SOL    HW166593   8.404   4.175   3.735
21587SOL    HW266594   8.509   4.158   3.628
21588SOL     OW66595   0.893   8.189   8.673
21588SOL    HW166596   0.849   8.257   8.724
21588SOL    HW266597   0.963   8.235   8.628
21589SOL     OW66598   7.131  10.148   7.414
21589SOL    HW166599   7.129  10.238   7.448
21589SOL    HW266600   7.053  10.107   7.451
21590SOL     OW66601   4.686   9.854   3.710
21590SOL    HW166602   4.599   9.881   3.741
21590SOL    HW266603   4.677   9.847   3.615
21591SOL     OW66604   2.654   7.439   7.655
21591SOL    HW166605   2.568   7.448   7.613
21591SOL    HW266606   2.639   7.382   7.730
21592SOL     OW66607   6.699   9.238  14.875
21592SOL    HW166608   6.762   9.310   0.007
21592SOL    HW266609   6.673   9.239  14.783
21593SOL     OW66610  10.983   4.815   4.846
21593SOL    HW166611  11.060   4.797   4.793
21593SOL    HW266612  11.018   4.851   4.928
21594SOL     OW66613   3.699  12.810  11.219
21594SOL    HW166614   3.616  12.853  11.197
21594SOL    HW266615   3.707  12.821  11.313
21595SOL     OW66616   4.826   5.074  12.687
21595SOL    HW166617   4.900   5.014  12.689
21595SOL    HW266618   4.773   5.048  12.763
21596SOL     OW66619  10.950  11.115  14.370
21596SOL    HW166620  11.012  11.188  14.365
21596SOL    HW266621  10.991  11.046  14.318
21597SOL     OW66622  13.007   7.886   9.681
21597SOL    HW166623  12.958   7.816   9.637
21597SOL    HW266624  12.970   7.889   9.770
21598SOL     OW66625   9.931   3.903  13.683
21598SOL    HW166626   9.872   3.889  13.608
21598SOL    HW266627   9.908   3.833  13.745
21599SOL     OW66628   1.474   6.684   7.121
21599SOL    HW166629   1.492   6.681   7.215
21599SOL    HW266630   1.403   6.746   7.112
21600SOL     OW66631  13.838   9.455  10.831
21600SOL    HW166632  13.926   9.418  10.841
21600SOL    HW266633  13.779   9.381  10.848
21601SOL     OW66634  11.912   0.900  12.710
21601SOL    HW166635  11.975   0.863  12.772
21601SOL    HW266636  11.828   0.864  12.738
21602SOL     OW66637   3.945   5.044   2.896
21602SOL    HW166638   3.985   5.025   2.811
21602SOL    HW266639   3.978   5.130   2.920
21603SOL     OW66640   5.088   8.893   7.730
21603SOL    HW166641   5.172   8.936   7.720
21603SOL    HW266642   5.064   8.863   7.642
21604SOL     OW66643   2.207   7.738   4.620
21604SOL    HW166644   2.223   7.716   4.528
21604SOL    HW266645   2.289   7.778   4.650
21605SOL     OW66646   7.287   8.566   1.796
21605SOL    HW166647   7.333   8.586   1.715
21605SOL    HW266648   7.211   8.624   1.795
21606SOL     OW66649   8.946   8.088   1.905
21606SOL    HW166650   9.018   8.147   1.929
21606SOL    HW266651   8.988   8.018   1.855
21607SOL     OW66652   0.332   5.034   7.794
21607SOL    HW166653   0.270   4.963   7.808
21607SOL    HW266654   0.411   5.006   7.842
21608SOL     OW66655   3.618   5.894   1.622
21608SOL    HW166656   3.598   5.801   1.616
21608SOL    HW266657   3.685   5.909   1.556
21609SOL     OW66658   1.990   2.307   4.673
21609SOL    HW166659   1.931   2.382   4.675
21609SOL    HW266660   1.932   2.231   4.678
21610SOL     OW66661   1.411   7.669   5.114
21610SOL    HW166662   1.503   7.681   5.136
21610SOL    HW266663   1.411   7.642   5.022
21611SOL     OW66664   2.810   9.241   5.415
21611SOL    HW166665   2.902   9.241   5.443
21611SOL    HW266666   2.760   9.250   5.496
21612SOL     OW66667   5.178   3.151  13.931
21612SOL    HW166668   5.194   3.094  13.855
21612SOL    HW266669   5.226   3.232  13.911
21613SOL     OW66670   3.364  10.085  12.228
21613SOL    HW166671   3.369  10.074  12.133
21613SOL    HW266672   3.322  10.170  12.240
21614SOL     OW66673  14.134  11.174   7.558
21614SOL    HW166674  14.047  11.134   7.554
21614SOL    HW266675  14.116  11.269   7.557
21615SOL     OW66676  12.334   9.468  14.468
21615SOL    HW166677  12.392   9.405  14.424
21615SOL    HW266678  12.246   9.445  14.438
21616SOL     OW66679  12.498   3.104   5.966
21616SOL    HW166680  12.515   3.012   5.945
21616SOL    HW266681  12.584   3.146   5.960
21617SOL     OW66682  12.877  11.576   6.547
21617SOL    HW166683  12.796  11.600   6.593
21617SOL    HW266684  12.909  11.659   6.510
21618SOL     OW66685   6.494  12.217   5.110
21618SOL    HW166686   6.510  12.137   5.161
21618SOL    HW266687   6.430  12.266   5.162
21619SOL     OW66688   8.585  12.294   3.434
21619SOL    HW166689   8.603  12.291   3.528
21619SOL    HW266690   8.505  12.347   3.427
21620SOL     OW66691   1.039  12.898  12.631
21620SOL    HW166692   1.105  12.840  12.669
21620SOL    HW266693   1.089  12.974  12.601
21621SOL     OW66694  14.228   6.258   5.961
21621SOL    HW166695  14.230   6.197   5.888
21621SOL    HW266696  14.244   6.344   5.921
21622SOL     OW66697   1.674   3.008   9.638
21622SOL    HW166698   1.752   2.964   9.604
21622SOL    HW266699   1.703   3.047   9.720
21623SOL     OW66700   5.484  12.207   4.515
21623SOL    HW166701   5.575  12.209   4.485
21623SOL    HW266702   5.487  12.244   4.603
21624SOL     OW66703  10.024   6.181   0.121
21624SOL    HW166704  10.109   6.191   0.162
21624SOL    HW266705   9.967   6.244   0.165
21625SOL     OW66706   6.447   9.321  11.415
21625SOL    HW166707   6.401   9.237  11.425
21625SOL    HW266708   6.460   9.330  11.321
21626SOL     OW66709   9.061  13.700  10.901
21626SOL    HW166710   9.059  13.735  10.812
21626SOL    HW266711   9.138  13.740  10.941
21627SOL     OW66712   0.282   8.699  12.890
21627SOL    HW166713   0.312   8.626  12.944
21627SOL    HW266714   0.323   8.684  12.805
21628SOL     OW66715  12.674   5.210  10.584
21628SOL    HW166716  12.680   5.114  10.581
21628SOL    HW266717  12.590   5.229  10.542
21629SOL     OW66718   1.939   3.544  14.221
21629SOL    HW166719   2.018   3.542  14.276
21629SOL    HW266720   1.950   3.621  14.165
21630SOL     OW66721   2.474   6.245   1.256
21630SOL    HW166722   2.506   6.303   1.187
21630SOL    HW266723   2.518   6.162   1.239
21631SOL     OW66724   1.819   8.421   2.917
21631SOL    HW166725   1.751   8.484   2.939
21631SOL    HW266726   1.897   8.474   2.900
21632SOL     OW66727   6.864   6.379   2.863
21632SOL    HW166728   6.945   6.419   2.892
21632SOL    HW266729   6.795   6.439   2.891
21633SOL     OW66730   6.552   4.397   6.148
21633SOL    HW166731   6.502   4.420   6.227
21633SOL    HW266732   6.644   4.402   6.176
21634SOL     OW66733  12.725   3.978   3.048
21634SOL    HW166734  12.754   4.015   3.131
21634SOL    HW266735  12.630   3.989   3.048
21635SOL     OW66736   6.761  12.366   7.305
21635SOL    HW166737   6.834  12.424   7.325
21635SOL    HW266738   6.704  12.371   7.382
21636SOL     OW66739   5.965  13.245   6.095
21636SOL    HW166740   5.965  13.276   6.186
21636SOL    HW266741   6.055  13.217   6.079
21637SOL     OW66742   5.417   4.357  12.466
21637SOL    HW166743   5.435   4.386  12.555
21637SOL    HW266744   5.322   4.364  12.458
21638SOL     OW66745  10.608   3.493   4.440
21638SOL    HW166746  10.574   3.553   4.374
21638SOL    HW266747  10.634   3.550   4.512
21639SOL     OW66748   9.185   6.079   3.092
21639SOL    HW166749   9.091   6.088   3.108
21639SOL    HW266750   9.223   6.065   3.178
21640SOL     OW66751   3.508   8.359  11.987
21640SOL    HW166752   3.498   8.286  12.047
21640SOL    HW266753   3.500   8.320  11.900
21641SOL     OW66754   7.961   2.546   3.900
21641SOL    HW166755   7.972   2.451   3.897
21641SOL    HW266756   7.989   2.570   3.989
21642SOL     OW66757  14.613   9.638   7.611
21642SOL    HW166758  14.706   9.618   7.596
21642SOL    HW266759  14.566   9.579   7.551
21643SOL     OW66760  13.016   3.332  14.796
21643SOL    HW166761  13.108   3.358  14.790
21643SOL    HW266762  12.969   3.414  14.813
21644SOL     OW66763   9.164   4.403   3.684
21644SOL    HW166764   9.187   4.415   3.592
21644SOL    HW266765   9.089   4.461   3.698
21645SOL     OW66766  13.389   5.914  10.675
21645SOL    HW166767  13.398   5.909  10.771
21645SOL    HW266768  13.471   5.954  10.646
21646SOL     OW66769  14.163  12.668   2.043
21646SOL    HW166770  14.226  12.646   1.974
21646SOL    HW266771  14.142  12.585   2.085
21647SOL     OW66772   4.421   8.933   9.308
21647SOL    HW166773   4.491   8.906   9.248
21647SOL    HW266774   4.400   8.854   9.358
21648SOL     OW66775   4.641  12.215   9.302
21648SOL    HW166776   4.670  12.305   9.290
21648SOL    HW266777   4.700  12.179   9.367
21649SOL     OW66778   7.687   9.773   9.816
21649SOL    HW166779   7.603   9.814   9.795
21649SOL    HW266780   7.719   9.823   9.891
21650SOL     OW66781   0.306   1.912   2.197
21650SOL    HW166782   0.385   1.914   2.143
21650SOL    HW266783   0.339   1.925   2.286
21651SOL     OW66784   6.777  11.390  10.485
21651SOL    HW166785   6.844  11.373  10.419
21651SOL    HW266786   6.792  11.323  10.552
21652SOL     OW66787   2.694  10.082   9.849
21652SOL    HW166788   2.720  10.071   9.758
21652SOL    HW266789   2.654  10.169   9.853
21653SOL     OW66790  10.952   0.968   0.413
21653SOL    HW166791  10.960   1.056   0.377
21653SOL    HW266792  11.023   0.961   0.477
21654SOL     OW66793  13.951   0.487   6.567
21654SOL    HW166794  13.983   0.502   6.478
21654SOL    HW266795  14.025   0.510   6.623
21655SOL     OW66796   2.615  11.114   5.126
21655SOL    HW166797   2.522  11.097   5.114
21655SOL    HW266798   2.659  11.059   5.061
21656SOL     OW66799   9.235  11.416   7.240
21656SOL    HW166800   9.261  11.376   7.157
21656SOL    HW266801   9.139  11.410   7.240
21657SOL     OW66802  12.089   4.984   8.234
21657SOL    HW166803  12.152   4.963   8.164
21657SOL    HW266804  12.004   4.961   8.197
21658SOL     OW66805   8.439  11.924   2.545
21658SOL    HW166806   8.490  12.005   2.543
21658SOL    HW266807   8.442  11.890   2.456
21659SOL     OW66808   5.399   8.432   5.101
21659SOL    HW166809   5.307   8.454   5.111
21659SOL    HW266810   5.413   8.361   5.164
21660SOL     OW66811  13.241   6.439   3.056
21660SOL    HW166812  13.284   6.384   3.121
21660SOL    HW266813  13.264   6.529   3.082
21661SOL     OW66814   5.037  10.857   2.206
21661SOL    HW166815   5.132  10.857   2.212
21661SOL    HW266816   5.007  10.884   2.293
21662SOL     OW66817   8.354   3.093   4.960
21662SOL    HW166818   8.314   3.049   4.885
21662SOL    HW266819   8.421   3.149   4.922
21663SOL     OW66820   1.943  12.958  14.623
21663SOL    HW166821   1.982  12.878  14.660
21663SOL    HW266822   1.897  12.928  14.545
21664SOL     OW66823  13.155   1.882  14.281
21664SOL    HW166824  13.152   1.821  14.354
21664SOL    HW266825  13.081   1.941  14.295
21665SOL     OW66826   3.941  10.544  10.127
21665SOL    HW166827   3.862  10.579  10.169
21665SOL    HW266828   3.935  10.449  10.140
21666SOL     OW66829   5.557  11.675   8.355
21666SOL    HW166830   5.537  11.601   8.411
21666SOL    HW266831   5.471  11.714   8.337
21667SOL     OW66832  14.311   6.277  13.719
21667SOL    HW166833  14.359   6.302  13.798
21667SOL    HW266834  14.262   6.356  13.695
21668SOL     OW66835  11.898  13.928   4.573
21668SOL    HW166836  11.867  13.838   4.559
21668SOL    HW266837  11.986  13.929   4.534
21669SOL     OW66838  12.275   3.097   6.535
21669SOL    HW166839  12.228   3.176   6.508
21669SOL    HW266840  12.206   3.032   6.549
21670SOL     OW66841  10.475  12.246  11.825
21670SOL    HW166842  10.444  12.305  11.894
21670SOL    HW266843  10.406  12.249  11.758
21671SOL     OW66844   3.111   6.151  14.623
21671SOL    HW166845   3.201   6.121  14.633
21671SOL    HW266846   3.114   6.212  14.550
21672SOL     OW66847   3.841  14.165   3.008
21672SOL    HW166848   3.901  14.177   3.082
21672SOL    HW266849   3.848  14.072   2.987
21673SOL     OW66850  14.268  10.604   6.517
21673SOL    HW166851  14.355  10.573   6.541
21673SOL    HW266852  14.255  10.683   6.570
21674SOL     OW66853   8.414  12.814   1.608
21674SOL    HW166854   8.379  12.811   1.697
21674SOL    HW266855   8.350  12.767   1.555
21675SOL     OW66856  11.631   3.728   9.824
21675SOL    HW166857  11.621   3.795   9.891
21675SOL    HW266858  11.679   3.771   9.753
21676SOL     OW66859   2.188   4.358  12.188
21676SOL    HW166860   2.265   4.303  12.201
21676SOL    HW266861   2.222   4.440  12.155
21677SOL     OW66862  10.088   5.192   6.601
21677SOL    HW166863  10.041   5.272   6.625
21677SOL    HW266864  10.180   5.217   6.604
21678SOL     OW66865  12.696  12.194   9.427
21678SOL    HW166866  12.765  12.143   9.385
21678SOL    HW266867  12.675  12.145   9.507
21679SOL     OW66868   5.183   9.622  14.765
21679SOL    HW166869   5.207   9.542  14.719
21679SOL    HW266870   5.098   9.603  14.806
21680SOL     OW66871   0.129   8.310   5.210
21680SOL    HW166872   0.142   8.334   5.118
21680SOL    HW266873   0.192   8.364   5.258
21681SOL     OW66874   4.642   9.190  12.613
21681SOL    HW166875   4.630   9.120  12.548
21681SOL    HW266876   4.596   9.159  12.691
21682SOL     OW66877   1.070  14.316   8.562
21682SOL    HW166878   0.984  14.284   8.535
21682SOL    HW266879   1.132  14.267   8.508
21683SOL     OW66880   9.312  13.432   0.765
21683SOL    HW166881   9.224  13.432   0.727
21683SOL    HW266882   9.371  13.433   0.689
21684SOL     OW66883   5.365   2.907   9.935
21684SOL    HW166884   5.299   2.976   9.940
21684SOL    HW266885   5.445   2.952   9.909
21685SOL     OW66886   6.208  13.347   2.787
21685SOL    HW166887   6.154  13.390   2.853
21685SOL    HW266888   6.223  13.259   2.822
21686SOL     OW66889   8.707  13.875   8.224
21686SOL    HW166890   8.702  13.779   8.234
21686SOL    HW266891   8.639  13.908   8.283
21687SOL     OW66892   5.086  11.025   3.326
21687SOL    HW166893   5.178  11.053   3.320
21687SOL    HW266894   5.084  10.967   3.402
21688SOL     OW66895  12.712   9.221   2.667
21688SOL    HW166896  12.788   9.240   2.723
21688SOL    HW266897  12.745   9.234   2.578
21689SOL     OW66898   4.381   4.426  11.122
21689SOL    HW166899   4.306   4.445  11.067
21689SOL    HW266900   4.435   4.505  11.119
21690SOL     OW66901   3.282  13.530   9.782
21690SOL    HW166902   3.328  13.509   9.863
21690SOL    HW266903   3.322  13.475   9.715
21691SOL     OW66904  12.609   3.744  11.232
21691SOL    HW166905  12.650   3.689  11.299
21691SOL    HW266906  12.663   3.732  11.155
21692SOL     OW66907   9.532  11.803  10.262
21692SOL    HW166908   9.456  11.781  10.207
21692SOL    HW266909   9.571  11.718  10.285
21693SOL     OW66910   4.127  12.543   2.128
21693SOL    HW166911   4.111  12.570   2.218
21693SOL    HW266912   4.207  12.589   2.104
21694SOL     OW66913  13.145   4.749   6.259
21694SOL    HW166914  13.211   4.789   6.203
21694SOL    HW266915  13.077   4.815   6.267
21695SOL     OW66916   7.579   2.672   4.875
21695SOL    HW166917   7.504   2.694   4.821
21695SOL    HW266918   7.557   2.588   4.916
21696SOL     OW66919   8.103  11.646   7.496
21696SOL    HW166920   8.123  11.555   7.516
21696SOL    HW266921   8.139  11.659   7.408
21697SOL     OW66922  12.719   7.001   7.865
21697SOL    HW166923  12.729   6.919   7.817
21697SOL    HW266924  12.796   7.052   7.841
21698SOL     OW66925   8.118   0.791  10.352
21698SOL    HW166926   8.134   0.852  10.424
21698SOL    HW266927   8.137   0.705  10.389
21699SOL     OW66928   6.820   1.912   1.515
21699SOL    HW166929   6.834   1.947   1.603
21699SOL    HW266930   6.788   1.986   1.464
21700SOL     OW66931   2.613   5.918  14.357
21700SOL    HW166932   2.688   5.976  14.372
21700SOL    HW266933   2.600   5.921  14.262
21701SOL     OW66934   6.097  12.867   1.848
21701SOL    HW166935   6.113  12.949   1.895
21701SOL    HW266936   6.182  12.843   1.811
21702SOL     OW66937   6.434   0.837  14.384
21702SOL    HW166938   6.352   0.877  14.357
21702SOL    HW266939   6.471   0.801  14.304
21703SOL     OW66940  13.961   8.552   9.026
21703SOL    HW166941  13.874   8.578   8.995
21703SOL    HW266942  13.950   8.463   9.058
21704SOL     OW66943   6.529   1.587   6.712
21704SOL    HW166944   6.576   1.668   6.690
21704SOL    HW266945   6.586   1.517   6.681
21705SOL     OW66946   1.892   4.636   6.619
21705SOL    HW166947   1.941   4.653   6.539
21705SOL    HW266948   1.948   4.669   6.689
21706SOL     OW66949  13.517  13.289  13.645
21706SOL    HW166950  13.495  13.279  13.737
21706SOL    HW266951  13.611  13.308  13.644
21707SOL     OW66952   0.935  12.610  10.494
21707SOL    HW166953   0.893  12.564  10.422
21707SOL    HW266954   0.864  12.629  10.555
21708SOL     OW66955   0.552   3.118   1.689
21708SOL    HW166956   0.647   3.113   1.676
21708SOL    HW266957   0.521   3.029   1.672
21709SOL     OW66958   4.504   5.905   4.883
21709SOL    HW166959   4.512   5.842   4.955
21709SOL    HW266960   4.541   5.860   4.807
21710SOL     OW66961   0.148   7.735  13.617
21710SOL    HW166962   0.062   7.774  13.600
21710SOL    HW266963   0.210   7.790  13.569
21711SOL     OW66964   9.968  12.574  13.461
21711SOL    HW166965   9.912  12.540  13.530
21711SOL    HW266966   9.909  12.587  13.387
21712SOL     OW66967  12.092  12.981  13.424
21712SOL    HW166968  12.162  12.987  13.488
21712SOL    HW266969  12.136  12.985  13.339
21713SOL     OW66970  14.000   6.858   9.478
21713SOL    HW166971  14.086   6.827   9.449
21713SOL    HW266972  14.015   6.946   9.511
21714SOL     OW66973  13.099   6.728   0.389
21714SOL    HW166974  13.097   6.747   0.483
21714SOL    HW266975  13.175   6.670   0.378
21715SOL     OW66976  14.290  10.584   4.346
21715SOL    HW166977  14.286  10.643   4.271
21715SOL    HW266978  14.226  10.516   4.326
21716SOL     OW66979   6.261   8.259   1.690
21716SOL    HW166980   6.267   8.175   1.644
21716SOL    HW266981   6.177   8.296   1.661
21717SOL     OW66982   0.609   8.029  10.652
21717SOL    HW166983   0.579   8.022  10.743
21717SOL    HW266984   0.562   7.959  10.606
21718SOL     OW66985   9.237  10.958   1.104
21718SOL    HW166986   9.178  11.010   1.051
21718SOL    HW266987   9.288  11.022   1.154
21719SOL     OW66988  12.493   2.279   1.066
21719SOL    HW166989  12.457   2.278   1.155
21719SOL    HW266990  12.578   2.236   1.074
21720SOL     OW66991  13.742   2.668  14.536
21720SOL    HW166992  13.721   2.593  14.591
21720SOL    HW266993  13.833   2.654  14.510
21721SOL     OW66994   3.606  11.355  11.406
21721SOL    HW166995   3.577  11.320  11.322
21721SOL    HW266996   3.617  11.449  11.390
21722SOL     OW66997   2.497  10.068   1.769
21722SOL    HW166998   2.467  10.113   1.690
21722SOL    HW266999   2.481   9.975   1.752
21723SOL     OW67000  10.171   5.992   2.347
21723SOL    HW167001  10.192   6.035   2.264
21723SOL    HW267002  10.255   5.978   2.389
21724SOL     OW67003  10.677   5.383   3.402
21724SOL    HW167004  10.631   5.359   3.322
21724SOL    HW267005  10.753   5.433   3.372
21725SOL     OW67006   5.471   1.092   6.818
21725SOL    HW167007   5.452   1.014   6.766
21725SOL    HW267008   5.500   1.157   6.754
21726SOL     OW67009   8.196  13.681   9.346
21726SOL    HW167010   8.141  13.742   9.394
21726SOL    HW267011   8.148  13.598   9.347
21727SOL     OW67012   2.291   6.400   9.807
21727SOL    HW167013   2.366   6.371   9.755
21727SOL    HW267014   2.216   6.357   9.767
21728SOL     OW67015   9.787   3.686   1.550
21728SOL    HW167016   9.838   3.615   1.510
21728SOL    HW267017   9.717   3.703   1.487
21729SOL     OW67018  12.166  14.552  14.272
21729SOL    HW167019  12.259  14.541  14.254
21729SOL    HW267020  12.147  14.643  14.248
21730SOL     OW67021   8.590   0.141   3.315
21730SOL    HW167022   8.529   0.148   3.388
21730SOL    HW267023   8.624   0.052   3.321
21731SOL     OW67024   8.069  14.678  12.538
21731SOL    HW167025   8.115  14.623  12.475
21731SOL    HW267026   7.976  14.668  12.516
21732SOL     OW67027   3.031   9.724   1.943
21732SOL    HW167028   3.123   9.750   1.946
21732SOL    HW267029   2.982   9.804   1.963
21733SOL     OW67030   8.245   9.076   7.885
21733SOL    HW167031   8.151   9.089   7.878
21733SOL    HW267032   8.267   9.106   7.973
21734SOL     OW67033   6.970   0.836   5.688
21734SOL    HW167034   6.909   0.785   5.741
21734SOL    HW267035   7.025   0.882   5.751
21735SOL     OW67036   7.249  11.796   0.708
21735SOL    HW167037   7.249  11.816   0.614
21735SOL    HW267038   7.162  11.822   0.738
21736SOL     OW67039   9.854   3.751  12.455
21736SOL    HW167040   9.815   3.671  12.489
21736SOL    HW267041   9.817   3.821  12.509
21737SOL     OW67042  12.394   1.154  10.839
21737SOL    HW167043  12.310   1.175  10.880
21737SOL    HW267044  12.400   1.214  10.765
21738SOL     OW67045   0.818  11.053   3.844
21738SOL    HW167046   0.854  10.970   3.875
21738SOL    HW267047   0.735  11.031   3.804
21739SOL     OW67048   5.314   8.402  13.946
21739SOL    HW167049   5.241   8.395  13.884
21739SOL    HW267050   5.379   8.456  13.902
21740SOL     OW67051  10.486   2.358  13.988
21740SOL    HW167052  10.511   2.318  13.905
21740SOL    HW267053  10.557   2.419  14.008
21741SOL     OW67054   8.256   7.756   7.933
21741SOL    HW167055   8.190   7.693   7.962
21741SOL    HW267056   8.335   7.732   7.982
21742SOL     OW67057   0.284   2.570  12.607
21742SOL    HW167058   0.313   2.550  12.696
21742SOL    HW267059   0.189   2.558  12.609
21743SOL     OW67060   2.497  12.998   2.892
21743SOL    HW167061   2.499  13.005   2.987
21743SOL    HW267062   2.457  12.913   2.874
21744SOL     OW67063  13.689   2.344  11.810
21744SOL    HW167064  13.697   2.389  11.726
21744SOL    HW267065  13.619   2.390  11.856
21745SOL     OW67066   2.478   6.648  13.078
21745SOL    HW167067   2.458   6.595  13.001
21745SOL    HW267068   2.400   6.700  13.093
21746SOL     OW67069   8.978   6.032  14.330
21746SOL    HW167070   8.968   6.023  14.425
21746SOL    HW267071   9.072   6.048  14.318
21747SOL     OW67072   9.206   7.990   7.239
21747SOL    HW167073   9.216   7.896   7.225
21747SOL    HW267074   9.129   7.997   7.296
21748SOL     OW67075  12.876   6.503   5.428
21748SOL    HW167076  12.789   6.507   5.467
21748SOL    HW267077  12.923   6.577   5.465
21749SOL     OW67078  11.119   9.574   1.154
21749SOL    HW167079  11.043   9.604   1.105
21749SOL    HW267080  11.159   9.654   1.189
21750SOL     OW67081  12.342   4.475  11.544
21750SOL    HW167082  12.352   4.437  11.457
21750SOL    HW267083  12.369   4.406  11.605
21751SOL     OW67084   1.748  10.529   0.691
21751SOL    HW167085   1.686  10.459   0.710
21751SOL    HW267086   1.722  10.600   0.750
21752SOL     OW67087  12.072   7.039   2.266
21752SOL    HW167088  12.038   7.000   2.346
21752SOL    HW267089  12.157   6.997   2.254
21753SOL     OW67090   3.170   9.184   3.740
21753SOL    HW167091   3.230   9.160   3.669
21753SOL    HW267092   3.142   9.273   3.719
21754SOL     OW67093   4.153  13.055  12.272
21754SOL    HW167094   4.085  12.988  12.283
21754SOL    HW267095   4.152  13.104  12.355
21755SOL     OW67096   0.553   8.283  13.848
21755SOL    HW167097   0.628   8.246  13.803
21755SOL    HW267098   0.522   8.213  13.905
21756SOL     OW67099   3.904  14.467   7.108
21756SOL    HW167100   3.912  14.553   7.149
21756SOL    HW267101   3.859  14.484   7.025
21757SOL     OW67102   6.820   8.463   5.866
21757SOL    HW167103   6.861   8.391   5.818
21757SOL    HW267104   6.780   8.517   5.799
21758SOL     OW67105   9.742   2.687   0.786
21758SOL    HW167106   9.679   2.673   0.857
21758SOL    HW267107   9.780   2.600   0.771
21759SOL     OW67108   7.144  13.111   9.083
21759SOL    HW167109   7.110  13.115   9.173
21759SOL    HW267110   7.177  13.199   9.067
21760SOL     OW67111  10.192   3.587  12.277
21760SOL    HW167112  10.107   3.546  12.264
21760SOL    HW267113  10.186   3.671  12.234
21761SOL     OW67114  14.570  13.083   3.307
21761SOL    HW167115  14.490  13.130   3.329
21761SOL    HW267116  14.605  13.129   3.231
21762SOL     OW67117   7.803  14.006   3.281
21762SOL    HW167118   7.797  14.048   3.367
21762SOL    HW267119   7.722  13.956   3.272
21763SOL     OW67120   5.515  12.414   9.153
21763SOL    HW167121   5.605  12.383   9.147
21763SOL    HW267122   5.484  12.418   9.062
21764SOL     OW67123  12.371  12.801   0.982
21764SOL    HW167124  12.277  12.813   0.965
21764SOL    HW267125  12.374  12.750   1.063
21765SOL     OW67126   5.554  13.316   8.670
21765SOL    HW167127   5.558  13.386   8.735
21765SOL    HW267128   5.463  13.317   8.639
21766SOL     OW67129  12.882  11.780   4.062
21766SOL    HW167130  12.798  11.735   4.065
21766SOL    HW267131  12.942  11.715   4.024
21767SOL     OW67132  14.300   8.788  12.599
21767SOL    HW167133  14.307   8.884  12.603
21767SOL    HW267134  14.260   8.771  12.514
21768SOL     OW67135   6.647   8.910   2.567
21768SOL    HW167136   6.641   8.899   2.472
21768SOL    HW267137   6.700   8.989   2.578
21769SOL     OW67138  14.698   2.767  13.912
21769SOL    HW167139  14.731   2.851  13.942
21769SOL    HW267140  14.703   2.710  13.988
21770SOL     OW67141  10.457  13.749   9.211
21770SOL    HW167142  10.455  13.672   9.268
21770SOL    HW267143  10.457  13.713   9.122
21771SOL     OW67144   4.047   5.466   1.144
21771SOL    HW167145   4.099   5.488   1.066
21771SOL    HW267146   3.973   5.415   1.110
21772SOL     OW67147   1.407   2.914  14.318
21772SOL    HW167148   1.332   2.913  14.378
21772SOL    HW267149   1.409   2.827  14.280
21773SOL     OW67150   9.142  14.666   0.148
21773SOL    HW167151   9.148  14.758   0.119
21773SOL    HW267152   9.201  14.661   0.224
21774SOL     OW67153   0.109   6.955  13.753
21774SOL    HW167154   0.062   6.963  13.670
21774SOL    HW267155   0.042   6.933  13.817
21775SOL     OW67156   6.459   4.685   9.499
21775SOL    HW167157   6.509   4.608   9.525
21775SOL    HW267158   6.436   4.669   9.408
21776SOL     OW67159   6.892   2.628   3.804
21776SOL    HW167160   6.897   2.598   3.895
21776SOL    HW267161   6.866   2.550   3.755
21777SOL     OW67162  14.656   3.906   6.915
21777SOL    HW167163  14.602   3.973   6.956
21777SOL    HW267164  14.600   3.869   6.846
21778SOL     OW67165  11.676   2.331   1.328
21778SOL    HW167166  11.689   2.425   1.334
21778SOL    HW267167  11.763   2.295   1.308
21779SOL     OW67168  14.168   3.050   2.256
21779SOL    HW167169  14.184   3.102   2.335
21779SOL    HW267170  14.146   3.115   2.189
21780SOL     OW67171   4.882   9.776   5.473
21780SOL    HW167172   4.835   9.818   5.545
21780SOL    HW267173   4.832   9.799   5.395
21781SOL     OW67174   4.106   4.841   1.083
21781SOL    HW167175   4.051   4.828   1.160
21781SOL    HW267176   4.051   4.887   1.021
21782SOL     OW67177   4.478   2.777   1.436
21782SOL    HW167178   4.546   2.728   1.482
21782SOL    HW267179   4.504   2.772   1.343
21783SOL     OW67180   6.615   6.527  13.832
21783SOL    HW167181   6.635   6.437  13.807
21783SOL    HW267182   6.700   6.564  13.858
21784SOL     OW67183  14.800  11.192   6.054
21784SOL    HW167184  14.842  11.242   6.124
21784SOL    HW267185  14.721  11.242   6.034
21785SOL     OW67186  14.727   1.854   1.624
21785SOL    HW167187  14.695   1.771   1.659
21785SOL    HW267188  14.760   1.902   1.700
21786SOL     OW67189   0.796   8.094  14.476
21786SOL    HW167190   0.735   8.054  14.414
21786SOL    HW267191   0.740   8.127  14.546
21787SOL     OW67192   8.908  14.706   8.205
21787SOL    HW167193   8.926  14.622   8.247
21787SOL    HW267194   8.951  14.701   8.120
21788SOL     OW67195   9.809  12.959   3.625
21788SOL    HW167196   9.720  12.993   3.632
21788SOL    HW267197   9.836  12.981   3.536
21789SOL     OW67198  14.828   2.135   3.439
21789SOL    HW167199   0.031   2.082   3.429
21789SOL    HW267200  14.841   2.208   3.379
21790SOL     OW67201  10.221  12.419   2.631
21790SOL    HW167202  10.140  12.386   2.592
21790SOL    HW267203  10.227  12.510   2.602
21791SOL     OW67204   5.253   8.350  11.885
21791SOL    HW167205   5.256   8.256  11.871
21791SOL    HW267206   5.288   8.388  11.804
21792SOL     OW67207   4.856  14.828   5.025
21792SOL    HW167208   4.911  14.752   5.045
21792SOL    HW267209   4.767  14.793   5.023
21793SOL     OW67210   8.786  11.338   3.048
21793SOL    HW167211   8.835  11.257   3.064
21793SOL    HW267212   8.700  11.308   3.019
21794SOL     OW67213   4.537   8.338   6.535
21794SOL    HW167214   4.449   8.301   6.530
21794SOL    HW267215   4.535   8.413   6.475
21795SOL     OW67216   5.443   3.668  10.166
21795SOL    HW167217   5.404   3.599  10.221
21795SOL    HW267218   5.481   3.621  10.092
21796SOL     OW67219   8.763   6.096   5.483
21796SOL    HW167220   8.777   6.069   5.574
21796SOL    HW267221   8.816   6.036   5.432
21797SOL     OW67222   1.291   3.658   5.983
21797SOL    HW167223   1.222   3.659   6.050
21797SOL    HW267224   1.256   3.600   5.915
21798SOL     OW67225   4.747   4.247  13.698
21798SOL    HW167226   4.835   4.212  13.706
21798SOL    HW267227   4.707   4.233  13.784
21799SOL     OW67228  14.138   3.227   2.475
21799SOL    HW167229  14.070   3.178   2.522
21799SOL    HW267230  14.150   3.307   2.527
21800SOL     OW67231   1.718   8.675   2.047
21800SOL    HW167232   1.709   8.719   1.963
21800SOL    HW267233   1.641   8.619   2.054
21801SOL     OW67234   7.422   9.456  14.845
21801SOL    HW167235   7.517   9.443  14.839
21801SOL    HW267236   7.389   9.375   0.008
21802SOL     OW67237   7.648   4.933   1.829
21802SOL    HW167238   7.726   4.980   1.799
21802SOL    HW267239   7.631   4.870   1.759
21803SOL     OW67240  10.545   8.035   6.867
21803SOL    HW167241  10.537   7.940   6.869
21803SOL    HW267242  10.482   8.065   6.933
21804SOL     OW67243   5.900   3.525   7.763
21804SOL    HW167244   5.824   3.539   7.708
21804SOL    HW267245   5.871   3.550   7.851
21805SOL     OW67246   8.864   1.294   0.059
21805SOL    HW167247   8.879   1.203   0.033
21805SOL    HW267248   8.892   1.297   0.151
21806SOL     OW67249  13.720   2.991   9.350
21806SOL    HW167250  13.653   3.031   9.294
21806SOL    HW267251  13.743   3.060   9.413
21807SOL     OW67252  10.415  13.366  11.854
21807SOL    HW167253  10.482  13.378  11.786
21807SOL    HW267254  10.452  13.408  11.931
21808SOL     OW67255   1.288   7.329   6.636
21808SOL    HW167256   1.369   7.348   6.684
21808SOL    HW267257   1.310   7.255   6.580
21809SOL     OW67258  11.440   7.802   9.745
21809SOL    HW167259  11.450   7.836   9.656
21809SOL    HW267260  11.417   7.710   9.734
21810SOL     OW67261   7.292   5.442  12.317
21810SOL    HW167262   7.270   5.458  12.409
21810SOL    HW267263   7.375   5.487  12.304
21811SOL     OW67264  14.796   4.592   2.645
21811SOL    HW167265  14.862   4.525   2.628
21811SOL    HW267266  14.726   4.545   2.691
21812SOL     OW67267  14.410  10.507   0.149
21812SOL    HW167268  14.386  10.505   0.057
21812SOL    HW267269  14.337  10.464   0.194
21813SOL     OW67270  12.793   8.241   4.405
21813SOL    HW167271  12.764   8.315   4.350
21813SOL    HW267272  12.824   8.175   4.343
21814SOL     OW67273   7.450   0.755   9.480
21814SOL    HW167274   7.375   0.699   9.502
21814SOL    HW267275   7.475   0.794   9.564
21815SOL     OW67276  10.799   2.911   4.995
21815SOL    HW167277  10.868   2.854   4.960
21815SOL    HW267278  10.743   2.929   4.920
21816SOL     OW67279   1.619   1.797  11.639
21816SOL    HW167280   1.607   1.850  11.717
21816SOL    HW267281   1.713   1.802  11.622
21817SOL     OW67282  11.549  13.544  13.824
21817SOL    HW167283  11.618  13.536  13.759
21817SOL    HW267284  11.582  13.498  13.901
21818SOL     OW67285  10.810   7.493  10.535
21818SOL    HW167286  10.731   7.543  10.556
21818SOL    HW267287  10.882   7.554  10.554
21819SOL     OW67288   7.731   5.461   6.174
21819SOL    HW167289   7.801   5.450   6.239
21819SOL    HW267290   7.663   5.509   6.221
21820SOL     OW67291   5.266  10.040   1.518
21820SOL    HW167292   5.251  10.096   1.595
21820SOL    HW267293   5.184  10.042   1.470
21821SOL     OW67294   3.097   7.097  12.468
21821SOL    HW167295   3.073   7.011  12.434
21821SOL    HW267296   3.191   7.104  12.452
21822SOL     OW67297   6.393   4.197   1.592
21822SOL    HW167298   6.323   4.138   1.565
21822SOL    HW267299   6.356   4.248   1.664
21823SOL     OW67300  12.980   2.675   1.260
21823SOL    HW167301  13.046   2.615   1.224
21823SOL    HW267302  12.971   2.743   1.193
21824SOL     OW67303   2.294  10.035  14.499
21824SOL    HW167304   2.264   9.946  14.484
21824SOL    HW267305   2.237  10.069  14.568
21825SOL     OW67306   5.213  14.223   6.006
21825SOL    HW167307   5.255  14.295   5.960
21825SOL    HW267308   5.257  14.144   5.973
21826SOL     OW67309   1.420   6.144   1.089
21826SOL    HW167310   1.438   6.214   1.152
21826SOL    HW267311   1.505   6.105   1.071
21827SOL     OW67312  12.434   4.211  10.574
21827SOL    HW167313  12.504   4.164  10.620
21827SOL    HW267314  12.460   4.207  10.482
21828SOL     OW67315   3.410   0.318  13.758
21828SOL    HW167316   3.468   0.297  13.831
21828SOL    HW267317   3.451   0.277  13.682
21829SOL     OW67318   8.181  10.448   7.947
21829SOL    HW167319   8.235  10.388   7.999
21829SOL    HW267320   8.093  10.410   7.951
21830SOL     OW67321   0.549   0.203  14.502
21830SOL    HW167322   0.504   0.286  14.491
21830SOL    HW267323   0.549   0.188  14.597
21831SOL     OW67324   3.492   4.633   1.790
21831SOL    HW167325   3.481   4.639   1.885
21831SOL    HW267326   3.585   4.647   1.775
21832SOL     OW67327  10.163  10.683   1.943
21832SOL    HW167328  10.115  10.641   1.872
21832SOL    HW267329  10.131  10.641   2.022
21833SOL     OW67330  14.700  10.306   0.983
21833SOL    HW167331  14.693  10.292   0.889
21833SOL    HW267332  14.627  10.365   1.004
21834SOL     OW67333   0.299  14.368  10.552
21834SOL    HW167334   0.353  14.384  10.630
21834SOL    HW267335   0.268  14.278  10.563
21835SOL     OW67336   6.911   9.788  10.628
21835SOL    HW167337   6.818   9.802  10.645
21835SOL    HW267338   6.915   9.760  10.537
21836SOL     OW67339   8.417  10.043  13.187
21836SOL    HW167340   8.385  10.075  13.103
21836SOL    HW267341   8.338  10.020  13.236
21837SOL     OW67342   3.359   5.363   3.054
21837SOL    HW167343   3.413   5.408   3.119
21837SOL    HW267344   3.374   5.270   3.070
21838SOL     OW67345   2.530   6.490   8.274
21838SOL    HW167346   2.556   6.487   8.366
21838SOL    HW267347   2.449   6.440   8.270
21839SOL     OW67348   5.862   0.354   6.104
21839SOL    HW167349   5.956   0.349   6.120
21839SOL    HW267350   5.828   0.269   6.132
21840SOL     OW67351  12.598   1.440   2.579
21840SOL    HW167352  12.509   1.422   2.548
21840SOL    HW267353  12.650   1.366   2.547
21841SOL     OW67354   2.502  14.335  11.930
21841SOL    HW167355   2.453  14.407  11.891
21841SOL    HW267356   2.527  14.366  12.017
21842SOL     OW67357   6.108   3.940   7.114
21842SOL    HW167358   6.109   3.932   7.209
21842SOL    HW267359   6.077   3.855   7.083
21843SOL     OW67360   9.775  14.041  10.255
21843SOL    HW167361   9.724  14.091  10.319
21843SOL    HW267362   9.738  14.066  10.171
21844SOL     OW67363   6.006   0.599  14.443
21844SOL    HW167364   6.031   0.673  14.498
21844SOL    HW267365   5.916   0.619  14.417
21845SOL     OW67366   1.107   2.093   1.764
21845SOL    HW167367   1.144   2.059   1.846
21845SOL    HW267368   1.017   2.061   1.764
21846SOL     OW67369   9.072   7.597   1.393
21846SOL    HW167370   8.984   7.587   1.429
21846SOL    HW267371   9.130   7.561   1.460
21847SOL     OW67372  11.179   7.994   8.330
21847SOL    HW167373  11.257   8.044   8.353
21847SOL    HW267374  11.169   7.931   8.401
21848SOL     OW67375   1.988   8.841   9.276
21848SOL    HW167376   1.983   8.890   9.358
21848SOL    HW267377   2.081   8.826   9.263
21849SOL     OW67378   3.187   7.640   1.840
21849SOL    HW167379   3.219   7.559   1.880
21849SOL    HW267380   3.113   7.667   1.895
21850SOL     OW67381   8.231   0.707  13.009
21850SOL    HW167382   8.285   0.638  13.048
21850SOL    HW267383   8.165   0.659  12.958
21851SOL     OW67384   0.724   5.794  14.293
21851SOL    HW167385   0.694   5.781  14.203
21851SOL    HW267386   0.644   5.789  14.346
21852SOL     OW67387   5.684   2.229  10.923
21852SOL    HW167388   5.688   2.134  10.909
21852SOL    HW267389   5.591   2.251  10.911
21853SOL     OW67390  11.485  14.208   4.546
21853SOL    HW167391  11.579  14.194   4.563
21853SOL    HW267392  11.447  14.217   4.633
21854SOL     OW67393   3.756  11.550   4.094
21854SOL    HW167394   3.769  11.456   4.078
21854SOL    HW267395   3.844  11.587   4.085
21855SOL     OW67396   0.274   3.244   8.922
21855SOL    HW167397   0.354   3.288   8.892
21855SOL    HW267398   0.267   3.267   9.015
21856SOL     OW67399   0.775   1.304   0.995
21856SOL    HW167400   0.746   1.288   0.905
21856SOL    HW267401   0.777   1.399   1.003
21857SOL     OW67402   4.140  10.145  13.997
21857SOL    HW167403   4.197  10.081  14.040
21857SOL    HW267404   4.200  10.208  13.958
21858SOL     OW67405  10.825  10.185  13.386
21858SOL    HW167406  10.775  10.173  13.305
21858SOL    HW267407  10.916  10.170  13.360
21859SOL     OW67408  10.091   9.330  12.324
21859SOL    HW167409  10.108   9.300  12.234
21859SOL    HW267410  10.179   9.343  12.361
21860SOL     OW67411   0.034   8.165   3.032
21860SOL    HW167412   0.076   8.117   3.104
21860SOL    HW267413   0.006   8.247   3.072
21861SOL     OW67414   1.865   0.555   8.126
21861SOL    HW167415   1.846   0.462   8.118
21861SOL    HW267416   1.863   0.587   8.036
21862SOL     OW67417   2.477   8.158  10.526
21862SOL    HW167418   2.562   8.118  10.504
21862SOL    HW267419   2.416   8.120  10.463
21863SOL     OW67420   5.013  14.067  11.138
21863SOL    HW167421   4.926  14.102  11.156
21863SOL    HW267422   4.997  13.982  11.096
21864SOL     OW67423  11.491  13.614   0.884
21864SOL    HW167424  11.536  13.678   0.829
21864SOL    HW267425  11.436  13.666   0.941
21865SOL     OW67426   3.436   2.848  12.383
21865SOL    HW167427   3.367   2.878  12.323
21865SOL    HW267428   3.390   2.821  12.462
21866SOL     OW67429   6.117   9.946  11.213
21866SOL    HW167430   6.189   9.912  11.265
21866SOL    HW267431   6.038   9.925  11.263
21867SOL     OW67432   7.403   4.319   1.430
21867SOL    HW167433   7.429   4.300   1.340
21867SOL    HW267434   7.485   4.339   1.475
21868SOL     OW67435  13.047   3.551   4.334
21868SOL    HW167436  13.068   3.463   4.364
21868SOL    HW267437  13.094   3.609   4.394
21869SOL     OW67438   8.561  12.552  12.466
21869SOL    HW167439   8.651  12.551  12.497
21869SOL    HW267440   8.540  12.644  12.456
21870SOL     OW67441  10.956  12.942   7.299
21870SOL    HW167442  10.910  13.024   7.284
21870SOL    HW267443  11.005  12.956   7.380
21871SOL     OW67444  13.209   8.179   8.354
21871SOL    HW167445  13.303   8.199   8.348
21871SOL    HW267446  13.199   8.098   8.304
21872SOL     OW67447  10.537  11.683   5.066
21872SOL    HW167448  10.467  11.745   5.047
21872SOL    HW267449  10.493  11.607   5.103
21873SOL     OW67450   2.226  11.962   9.923
21873SOL    HW167451   2.233  11.891   9.858
21873SOL    HW267452   2.304  11.951   9.978
21874SOL     OW67453   6.328   3.843  13.178
21874SOL    HW167454   6.416   3.860  13.143
21874SOL    HW267455   6.300   3.763  13.133
21875SOL     OW67456   3.282  11.148   7.998
21875SOL    HW167457   3.232  11.199   8.063
21875SOL    HW267458   3.217  11.122   7.933
21876SOL     OW67459   2.422   8.411  10.872
21876SOL    HW167460   2.455   8.323  10.854
21876SOL    HW267461   2.448   8.462  10.795
21877SOL     OW67462   3.201   6.583   5.793
21877SOL    HW167463   3.269   6.587   5.725
21877SOL    HW267464   3.179   6.490   5.798
21878SOL     OW67465   5.942  12.766  10.694
21878SOL    HW167466   5.947  12.722  10.610
21878SOL    HW267467   5.991  12.847  10.682
21879SOL     OW67468  12.733  10.905   4.976
21879SOL    HW167469  12.719  10.915   5.071
21879SOL    HW267470  12.655  10.943   4.936
21880SOL     OW67471   2.647   1.882  14.236
21880SOL    HW167472   2.620   1.850  14.150
21880SOL    HW267473   2.579   1.944  14.261
21881SOL     OW67474   3.470  14.782   0.775
21881SOL    HW167475   3.486  14.875   0.787
21881SOL    HW267476   3.375  14.774   0.772
21882SOL     OW67477   6.350   2.546   0.966
21882SOL    HW167478   6.397   2.618   0.925
21882SOL    HW267479   6.397   2.467   0.940
21883SOL     OW67480  11.659  14.568   7.013
21883SOL    HW167481  11.681  14.561   6.920
21883SOL    HW267482  11.592  14.501   7.027
21884SOL     OW67483   7.233  10.889  10.290
21884SOL    HW167484   7.284  10.819  10.249
21884SOL    HW267485   7.172  10.918  10.222
21885SOL     OW67486   5.356   9.837   9.814
21885SOL    HW167487   5.421   9.897   9.852
21885SOL    HW267488   5.397   9.805   9.734
21886SOL     OW67489   5.187  10.931   9.096
21886SOL    HW167490   5.278  10.919   9.071
21886SOL    HW267491   5.152  10.994   9.033
21887SOL     OW67492   1.177   9.786   4.172
21887SOL    HW167493   1.271   9.784   4.188
21887SOL    HW267494   1.169   9.783   4.076
21888SOL     OW67495   4.490   7.393  13.770
21888SOL    HW167496   4.439   7.340  13.832
21888SOL    HW267497   4.459   7.483  13.785
21889SOL     OW67498  11.618  11.470  11.148
21889SOL    HW167499  11.539  11.510  11.111
21889SOL    HW267500  11.608  11.481  11.243
21890SOL     OW67501  11.110   1.124   9.317
21890SOL    HW167502  11.067   1.052   9.362
21890SOL    HW267503  11.041   1.164   9.264
21891SOL     OW67504   7.629  14.363   5.390
21891SOL    HW167505   7.672  14.313   5.321
21891SOL    HW267506   7.567  14.419   5.344
21892SOL     OW67507   9.263  10.301  13.350
21892SOL    HW167508   9.307  10.328  13.270
21892SOL    HW267509   9.203  10.373  13.370
21893SOL     OW67510  10.469   4.355   7.109
21893SOL    HW167511  10.550   4.307   7.127
21893SOL    HW267512  10.458   4.349   7.014
21894SOL     OW67513  11.548   0.257   7.088
21894SOL    HW167514  11.564   0.167   7.059
21894SOL    HW267515  11.589   0.262   7.174
21895SOL     OW67516   8.224  10.103  10.083
21895SOL    HW167517   8.228  10.039  10.155
21895SOL    HW267518   8.310  10.144  10.082
21896SOL     OW67519  12.366   0.479   6.156
21896SOL    HW167520  12.425   0.411   6.125
21896SOL    HW267521  12.417   0.560   6.151
21897SOL     OW67522  12.316   3.529   1.559
21897SOL    HW167523  12.404   3.503   1.584
21897SOL    HW267524  12.296   3.604   1.615
21898SOL     OW67525   7.543   8.586  10.894
21898SOL    HW167526   7.451   8.562  10.891
21898SOL    HW267527   7.571   8.585  10.803
21899SOL     OW67528   3.127  11.653   6.170
21899SOL    HW167529   3.155  11.742   6.191
21899SOL    HW267530   3.112  11.611   6.255
21900SOL     OW67531   5.405  12.627   0.548
21900SOL    HW167532   5.327  12.583   0.582
21900SOL    HW267533   5.476  12.564   0.562
21901SOL     OW67534   3.070   0.721   9.177
21901SOL    HW167535   3.164   0.739   9.174
21901SOL    HW267536   3.063   0.629   9.151
21902SOL     OW67537   2.834   4.109  12.023
21902SOL    HW167538   2.778   4.120  12.100
21902SOL    HW267539   2.839   4.014  12.010
21903SOL     OW67540   4.194   9.855   0.294
21903SOL    HW167541   4.201   9.812   0.380
21903SOL    HW267542   4.216   9.947   0.312
21904SOL     OW67543   8.712  10.436   4.084
21904SOL    HW167544   8.617  10.432   4.084
21904SOL    HW267545   8.738  10.411   4.172
21905SOL     OW67546   4.170   3.925  14.384
21905SOL    HW167547   4.144   3.838  14.353
21905SOL    HW267548   4.107   3.984  14.342
21906SOL     OW67549  10.070  12.684   3.347
21906SOL    HW167550  10.005  12.615   3.362
21906SOL    HW267551  10.018  12.765   3.340
21907SOL     OW67552   3.571   6.531   9.456
21907SOL    HW167553   3.493   6.474   9.456
21907SOL    HW267554   3.615   6.512   9.539
21908SOL     OW67555  11.206   4.924   7.766
21908SOL    HW167556  11.262   4.990   7.806
21908SOL    HW267557  11.177   4.869   7.839
21909SOL     OW67558   5.559   0.243   0.911
21909SOL    HW167559   5.490   0.222   0.848
21909SOL    HW267560   5.548   0.336   0.929
21910SOL     OW67561   6.143   6.496  13.504
21910SOL    HW167562   6.225   6.515  13.550
21910SOL    HW267563   6.138   6.401  13.500
21911SOL     OW67564   2.123   0.178   1.461
21911SOL    HW167565   2.126   0.260   1.511
21911SOL    HW267566   2.091   0.113   1.524
21912SOL     OW67567   8.900   7.403  10.453
21912SOL    HW167568   8.874   7.426  10.542
21912SOL    HW267569   8.821   7.368  10.413
21913SOL     OW67570   8.597   3.725  12.550
21913SOL    HW167571   8.658   3.670  12.600
21913SOL    HW267572   8.545   3.769  12.617
21914SOL     OW67573   2.340   8.882   4.577
21914SOL    HW167574   2.406   8.884   4.508
21914SOL    HW267575   2.386   8.906   4.657
21915SOL     OW67576   1.463  14.551   6.117
21915SOL    HW167577   1.462  14.458   6.096
21915SOL    HW267578   1.554  14.578   6.106
21916SOL     OW67579  14.079  14.461   9.506
21916SOL    HW167580  13.995  14.465   9.552
21916SOL    HW267581  14.082  14.540   9.453
21917SOL     OW67582   7.135   2.057  13.280
21917SOL    HW167583   7.146   2.074  13.187
21917SOL    HW267584   7.079   1.979  13.284
21918SOL     OW67585   6.856   2.151   8.497
21918SOL    HW167586   6.865   2.246   8.503
21918SOL    HW267587   6.905   2.117   8.573
21919SOL     OW67588  14.613   5.645   3.286
21919SOL    HW167589  14.648   5.727   3.251
21919SOL    HW267590  14.682   5.611   3.343
21920SOL     OW67591   8.175   0.656   2.583
21920SOL    HW167592   8.141   0.589   2.524
21920SOL    HW267593   8.096   0.702   2.614
21921SOL     OW67594   0.639   5.345  10.700
21921SOL    HW167595   0.732   5.362  10.718
21921SOL    HW267596   0.616   5.274  10.760
21922SOL     OW67597   9.798  14.578  10.025
21922SOL    HW167598   9.881  14.531  10.031
21922SOL    HW267599   9.787  14.620  10.110
21923SOL     OW67600   9.934   5.416  14.250
21923SOL    HW167601   9.960   5.449  14.164
21923SOL    HW267602   9.844   5.448  14.262
21924SOL     OW67603   8.515   3.509   2.157
21924SOL    HW167604   8.476   3.563   2.089
21924SOL    HW267605   8.523   3.566   2.233
21925SOL     OW67606   7.266  10.195  10.797
21925SOL    HW167607   7.360  10.183  10.809
21925SOL    HW267608   7.236  10.113  10.759
21926SOL     OW67609  11.006   1.304  11.199
21926SOL    HW167610  11.018   1.328  11.107
21926SOL    HW267611  11.080   1.346  11.244
21927SOL     OW67612  11.015   2.866  13.917
21927SOL    HW167613  11.093   2.888  13.968
21927SOL    HW267614  11.048   2.854  13.828
21928SOL     OW67615   5.778   5.171   2.176
21928SOL    HW167616   5.755   5.100   2.117
21928SOL    HW267617   5.800   5.128   2.259
21929SOL     OW67618  11.801  12.670   0.765
21929SOL    HW167619  11.891  12.638   0.758
21929SOL    HW267620  11.792  12.732   0.692
21930SOL     OW67621   4.729   4.468   9.550
21930SOL    HW167622   4.707   4.396   9.609
21930SOL    HW267623   4.799   4.432   9.494
21931SOL     OW67624   4.054   8.214   2.696
21931SOL    HW167625   4.088   8.303   2.695
21931SOL    HW267626   4.003   8.208   2.777
21932SOL     OW67627   4.956   2.485   5.610
21932SOL    HW167628   5.039   2.511   5.650
21932SOL    HW267629   4.892   2.547   5.645
21933SOL     OW67630   8.529  13.926  11.502
21933SOL    HW167631   8.494  13.970  11.424
21933SOL    HW267632   8.461  13.937  11.568
21934SOL     OW67633   5.126   3.031  11.691
21934SOL    HW167634   5.076   3.008  11.769
21934SOL    HW267635   5.177   3.107  11.717
21935SOL     OW67636  11.020   8.550   9.329
21935SOL    HW167637  11.076   8.587   9.398
21935SOL    HW267638  11.080   8.502   9.273
21936SOL     OW67639  14.781   7.105   6.452
21936SOL    HW167640  14.739   7.144   6.376
21936SOL    HW267641  14.716   7.112   6.522
21937SOL     OW67642   6.096   1.458   1.184
21937SOL    HW167643   6.029   1.517   1.149
21937SOL    HW267644   6.068   1.371   1.156
21938SOL     OW67645   0.342   7.947   6.804
21938SOL    HW167646   0.340   7.933   6.898
21938SOL    HW267647   0.374   7.864   6.768
21939SOL     OW67648   0.179  10.201   4.466
21939SOL    HW167649   0.150  10.176   4.379
21939SOL    HW267650   0.103  10.245   4.505
21940SOL     OW67651   5.257   6.296   1.022
21940SOL    HW167652   5.294   6.217   0.982
21940SOL    HW267653   5.324   6.363   1.011
21941SOL     OW67654  13.129   7.556   1.326
21941SOL    HW167655  13.098   7.466   1.317
21941SOL    HW267656  13.052   7.610   1.309
21942SOL     OW67657   2.371   2.690  12.319
21942SOL    HW167658   2.454   2.734  12.335
21942SOL    HW267659   2.396   2.599  12.301
21943SOL     OW67660   1.638   4.689  10.249
21943SOL    HW167661   1.687   4.750  10.194
21943SOL    HW267662   1.567   4.657  10.193
21944SOL     OW67663   7.734  13.443   2.181
21944SOL    HW167664   7.776  13.479   2.103
21944SOL    HW267665   7.662  13.390   2.146
21945SOL     OW67666   9.785   0.649  12.945
21945SOL    HW167667   9.808   0.580  12.883
21945SOL    HW267668   9.869   0.676  12.983
21946SOL     OW67669   5.650   7.008  14.669
21946SOL    HW167670   5.647   7.082  14.608
21946SOL    HW267671   5.744   6.996  14.686
21947SOL     OW67672  11.395  11.885  14.257
21947SOL    HW167673  11.301  11.904  14.249
21947SOL    HW267674  11.408  11.870  14.350
21948SOL     OW67675   6.167   3.508   3.640
21948SOL    HW167676   6.150   3.535   3.730
21948SOL    HW267677   6.257   3.476   3.640
21949SOL     OW67678   5.411  12.419  14.562
21949SOL    HW167679   5.464  12.474  14.504
21949SOL    HW267680   5.338  12.389  14.508
21950SOL     OW67681   6.984   4.643   9.112
21950SOL    HW167682   6.946   4.725   9.143
21950SOL    HW267683   6.984   4.651   9.016
21951SOL     OW67684  11.968   8.891   4.080
21951SOL    HW167685  11.918   8.826   4.128
21951SOL    HW267686  11.965   8.970   4.134
21952SOL     OW67687   9.590  13.155   2.371
21952SOL    HW167688   9.648  13.133   2.444
21952SOL    HW267689   9.502  13.147   2.406
21953SOL     OW67690   6.052  10.589   9.818
21953SOL    HW167691   6.012  10.639   9.890
21953SOL    HW267692   6.016  10.627   9.739
21954SOL     OW67693   8.365   6.663   7.084
21954SOL    HW167694   8.313   6.606   7.028
21954SOL    HW267695   8.403   6.605   7.150
21955SOL     OW67696   2.491  12.419   4.002
21955SOL    HW167697   2.539  12.346   4.041
21955SOL    HW267698   2.400  12.391   4.002
21956SOL     OW67699   3.808   1.863   2.473
21956SOL    HW167700   3.776   1.912   2.549
21956SOL    HW267701   3.899   1.842   2.495
21957SOL     OW67702   8.067   9.862   1.942
21957SOL    HW167703   8.042   9.848   2.033
21957SOL    HW267704   8.159   9.837   1.937
21958SOL     OW67705   7.300   9.952  12.648
21958SOL    HW167706   7.291   9.872  12.596
21958SOL    HW267707   7.344   9.923  12.728
21959SOL     OW67708   7.595  10.268  14.261
21959SOL    HW167709   7.615  10.311  14.178
21959SOL    HW267710   7.670  10.288  14.317
21960SOL     OW67711  13.836  11.422   8.451
21960SOL    HW167712  13.832  11.359   8.523
21960SOL    HW267713  13.800  11.503   8.488
21961SOL     OW67714   3.560   3.149   2.258
21961SOL    HW167715   3.490   3.085   2.244
21961SOL    HW267716   3.618   3.139   2.182
21962SOL     OW67717   1.578   4.172   7.877
21962SOL    HW167718   1.515   4.235   7.843
21962SOL    HW267719   1.600   4.204   7.964
21963SOL     OW67720   9.641  13.772   0.478
21963SOL    HW167721   9.702  13.843   0.501
21963SOL    HW267722   9.652  13.707   0.548
21964SOL     OW67723   0.323  12.586  10.574
21964SOL    HW167724   0.233  12.574  10.543
21964SOL    HW267725   0.326  12.537  10.656
21965SOL     OW67726  11.463   0.959   4.372
21965SOL    HW167727  11.388   1.016   4.388
21965SOL    HW267728  11.539   1.008   4.404
21966SOL     OW67729   6.527   4.841   7.305
21966SOL    HW167730   6.484   4.831   7.389
21966SOL    HW267731   6.617   4.867   7.327
21967SOL     OW67732  10.387   1.426  13.102
21967SOL    HW167733  10.319   1.422  13.169
21967SOL    HW267734  10.429   1.340  13.104
21968SOL     OW67735   0.604   2.518  11.824
21968SOL    HW167736   0.662   2.590  11.850
21968SOL    HW267737   0.660   2.458  11.775
21969SOL     OW67738  13.340  14.682   8.086
21969SOL    HW167739  13.400  14.637   8.146
21969SOL    HW267740  13.274  14.617   8.064
21970SOL     OW67741   5.903   4.175   6.137
21970SOL    HW167742   5.912   4.081   6.153
21970SOL    HW267743   5.971   4.196   6.073
21971SOL     OW67744   9.730   9.057  11.446
21971SOL    HW167745   9.644   9.100  11.452
21971SOL    HW267746   9.754   9.038  11.536
21972SOL     OW67747  14.490  14.796   8.000
21972SOL    HW167748  14.454  14.736   8.065
21972SOL    HW267749  14.553  14.850   8.048
21973SOL     OW67750  10.552   6.449   3.944
21973SOL    HW167751  10.606   6.381   3.985
21973SOL    HW267752  10.473   6.452   3.997
21974SOL     OW67753   9.165  10.540  12.706
21974SOL    HW167754   9.091  10.483  12.685
21974SOL    HW267755   9.236  10.507  12.651
21975SOL     OW67756  11.863   7.019  13.319
21975SOL    HW167757  11.771   7.047  13.326
21975SOL    HW267758  11.861   6.949  13.253
21976SOL     OW67759  14.868   5.343   5.028
21976SOL    HW167760   0.025   5.374   5.112
21976SOL    HW267761   0.003   5.417   4.968
21977SOL     OW67762   0.344   1.310   8.824
21977SOL    HW167763   0.393   1.392   8.825
21977SOL    HW267764   0.410   1.242   8.835
21978SOL     OW67765   2.348  14.576   3.204
21978SOL    HW167766   2.398  14.652   3.231
21978SOL    HW267767   2.389  14.502   3.250
21979SOL     OW67768  13.655   7.207  13.119
21979SOL    HW167769  13.612   7.269  13.178
21979SOL    HW267770  13.694   7.141  13.176
21980SOL     OW67771  13.128  11.897   7.376
21980SOL    HW167772  13.187  11.914   7.449
21980SOL    HW267773  13.041  11.916   7.410
21981SOL     OW67774   8.073   3.282   8.439
21981SOL    HW167775   8.097   3.218   8.506
21981SOL    HW267776   8.153   3.334   8.425
21982SOL     OW67777   0.535   1.489   8.763
21982SOL    HW167778   0.530   1.576   8.804
21982SOL    HW267779   0.599   1.500   8.693
21983SOL     OW67780  12.785  12.636   5.929
21983SOL    HW167781  12.756  12.697   5.997
21983SOL    HW267782  12.797  12.553   5.975
21984SOL     OW67783   0.776   4.712   7.061
21984SOL    HW167784   0.866   4.691   7.085
21984SOL    HW267785   0.767   4.680   6.971
21985SOL     OW67786   5.190   3.966   0.240
21985SOL    HW167787   5.214   3.894   0.298
21985SOL    HW267788   5.237   3.947   0.158
21986SOL     OW67789  11.892  11.908   4.546
21986SOL    HW167790  11.796  11.915   4.540
21986SOL    HW267791  11.907  11.840   4.611
21987SOL     OW67792  14.354  11.263  12.426
21987SOL    HW167793  14.296  11.284  12.499
21987SOL    HW267794  14.434  11.231  12.467
21988SOL     OW67795  14.400  13.229   3.027
21988SOL    HW167796  14.384  13.257   2.937
21988SOL    HW267797  14.496  13.230   3.035
21989SOL     OW67798  14.520  10.558   2.864
21989SOL    HW167799  14.458  10.597   2.926
21989SOL    HW267800  14.606  10.577   2.900
21990SOL     OW67801  12.984   8.347  13.461
21990SOL    HW167802  13.039   8.285  13.413
21990SOL    HW267803  13.038   8.426  13.470
21991SOL     OW67804   5.784   7.365  14.580
21991SOL    HW167805   5.757   7.301  14.514
21991SOL    HW267806   5.872   7.338  14.605
21992SOL     OW67807   9.293   5.321   3.649
21992SOL    HW167808   9.282   5.385   3.579
21992SOL    HW267809   9.356   5.362   3.710
21993SOL     OW67810   1.292   2.600  10.033
21993SOL    HW167811   1.245   2.638  10.106
21993SOL    HW267812   1.321   2.675   9.981
21994SOL     OW67813  12.763   8.447   1.347
21994SOL    HW167814  12.688   8.463   1.289
21994SOL    HW267815  12.724   8.412   1.427
21995SOL     OW67816   9.988   0.145   6.924
21995SOL    HW167817  10.043   0.182   6.854
21995SOL    HW267818   9.917   0.208   6.935
21996SOL     OW67819  14.164   6.724  12.137
21996SOL    HW167820  14.188   6.655  12.199
21996SOL    HW267821  14.129   6.677  12.061
21997SOL     OW67822   1.239   0.877   5.294
21997SOL    HW167823   1.303   0.863   5.224
21997SOL    HW267824   1.269   0.821   5.366
21998SOL     OW67825   1.108  12.569   0.547
21998SOL    HW167826   1.131  12.492   0.599
21998SOL    HW267827   1.016  12.557   0.525
21999SOL     OW67828  13.307  11.755   8.682
21999SOL    HW167829  13.366  11.804   8.740
21999SOL    HW267830  13.364  11.690   8.640
22000SOL     OW67831  12.098  10.288   0.024
22000SOL    HW167832  12.133  10.200   0.039
22000SOL    HW267833  12.166  10.347   0.058
22001SOL     OW67834   6.768  11.611   3.136
22001SOL    HW167835   6.706  11.626   3.207
22001SOL    HW267836   6.836  11.678   3.148
22002SOL     OW67837   3.514   3.728   4.296
22002SOL    HW167838   3.600   3.689   4.280
22002SOL    HW267839   3.454   3.654   4.303
22003SOL     OW67840   3.266   3.526   4.400
22003SOL    HW167841   3.310   3.533   4.485
22003SOL    HW267842   3.180   3.564   4.414
22004SOL     OW67843   5.279  10.122   6.380
22004SOL    HW167844   5.368  10.156   6.378
22004SOL    HW267845   5.243  10.154   6.462
22005SOL     OW67846   2.257  10.618   7.091
22005SOL    HW167847   2.234  10.703   7.130
22005SOL    HW267848   2.352  10.614   7.099
22006SOL     OW67849  14.443  10.965   8.973
22006SOL    HW167850  14.535  10.991   8.977
22006SOL    HW267851  14.440  10.883   9.022
22007SOL     OW67852   1.225   8.490   7.633
22007SOL    HW167853   1.219   8.579   7.597
22007SOL    HW267854   1.151   8.484   7.694
22008SOL     OW67855  10.359  13.813   7.483
22008SOL    HW167856  10.341  13.900   7.447
22008SOL    HW267857  10.279  13.763   7.466
22009SOL     OW67858   6.963   8.655   3.328
22009SOL    HW167859   6.889   8.614   3.372
22009SOL    HW267860   7.006   8.706   3.397
22010SOL     OW67861  13.741  10.034   8.992
22010SOL    HW167862  13.690  10.080   8.925
22010SOL    HW267863  13.817  10.090   9.008
22011SOL     OW67864   9.138  12.019   3.127
22011SOL    HW167865   9.121  11.985   3.039
22011SOL    HW267866   9.206  12.085   3.114
22012SOL     OW67867   4.645  13.319   6.221
22012SOL    HW167868   4.586  13.321   6.296
22012SOL    HW267869   4.638  13.230   6.186
22013SOL     OW67870   1.640   5.340   2.991
22013SOL    HW167871   1.589   5.286   3.052
22013SOL    HW267872   1.685   5.403   3.047
22014SOL     OW67873  12.375   5.271   7.071
22014SOL    HW167874  12.402   5.179   7.073
22014SOL    HW267875  12.296   5.274   7.124
22015SOL     OW67876   0.932   1.309   2.130
22015SOL    HW167877   1.024   1.316   2.155
22015SOL    HW267878   0.884   1.335   2.208
22016SOL     OW67879  14.870   5.303  14.435
22016SOL    HW167880   0.060   5.373  14.430
22016SOL    HW267881   0.046   5.223  14.436
22017SOL     OW67882   8.103  14.412   0.961
22017SOL    HW167883   8.070  14.371   1.040
22017SOL    HW267884   8.122  14.339   0.902
22018SOL     OW67885   9.320   7.570   8.141
22018SOL    HW167886   9.371   7.649   8.125
22018SOL    HW267887   9.237   7.601   8.178
22019SOL     OW67888  12.446   8.720   1.950
22019SOL    HW167889  12.358   8.715   1.913
22019SOL    HW267890  12.487   8.792   1.902
22020SOL     OW67891   9.075   7.614   8.272
22020SOL    HW167892   9.113   7.556   8.338
22020SOL    HW267893   9.038   7.686   8.323
22021SOL     OW67894   1.015  10.048  10.820
22021SOL    HW167895   0.931  10.092  10.828
22021SOL    HW267896   1.069  10.107  10.767
22022SOL     OW67897  14.551   8.348   1.058
22022SOL    HW167898  14.610   8.381   0.990
22022SOL    HW267899  14.577   8.257   1.070
22023SOL     OW67900   5.621  10.624   0.126
22023SOL    HW167901   5.680  10.556   0.093
22023SOL    HW267902   5.678  10.681   0.178
22024SOL     OW67903  12.332   0.233   5.884
22024SOL    HW167904  12.268   0.280   5.831
22024SOL    HW267905  12.279   0.175   5.940
22025SOL     OW67906   2.776   1.470  14.185
22025SOL    HW167907   2.788   1.547  14.128
22025SOL    HW267908   2.710   1.418  14.141
22026SOL     OW67909  13.026  13.952   3.144
22026SOL    HW167910  13.079  13.988   3.073
22026SOL    HW267911  13.090  13.917   3.206
22027SOL     OW67912   6.353   3.592  10.537
22027SOL    HW167913   6.443   3.625  10.539
22027SOL    HW267914   6.299   3.669  10.526
22028SOL     OW67915   1.650   3.370  11.779
22028SOL    HW167916   1.631   3.463  11.791
22028SOL    HW267917   1.742   3.360  11.804
22029SOL     OW67918   0.798   8.911   7.433
22029SOL    HW167919   0.732   8.929   7.499
22029SOL    HW267920   0.881   8.935   7.474
22030SOL     OW67921  10.602   7.045   3.844
22030SOL    HW167922  10.537   7.006   3.786
22030SOL    HW267923  10.551   7.082   3.916
22031SOL     OW67924   0.782  11.454  11.138
22031SOL    HW167925   0.853  11.389  11.137
22031SOL    HW267926   0.777  11.483  11.229
22032SOL     OW67927   1.055   1.081   5.084
22032SOL    HW167928   1.109   1.040   5.017
22032SOL    HW267929   1.015   1.156   5.039
22033SOL     OW67930   8.144   0.883   6.316
22033SOL    HW167931   8.115   0.831   6.391
22033SOL    HW267932   8.220   0.931   6.348
22034SOL     OW67933   8.307   1.268   9.901
22034SOL    HW167934   8.213   1.287   9.905
22034SOL    HW267935   8.324   1.248   9.809
22035SOL     OW67936   9.956  10.670   7.839
22035SOL    HW167937   9.968  10.724   7.761
22035SOL    HW267938   9.902  10.596   7.809
22036SOL     OW67939   4.020   9.917   4.464
22036SOL    HW167940   4.010   9.898   4.371
22036SOL    HW267941   4.111   9.945   4.473
22037SOL     OW67942  10.723  13.353   1.008
22037SOL    HW167943  10.634  13.321   1.023
22037SOL    HW267944  10.713  13.445   0.988
22038SOL     OW67945   2.466   2.863   8.356
22038SOL    HW167946   2.441   2.880   8.446
22038SOL    HW267947   2.495   2.948   8.322
22039SOL     OW67948   6.503  12.035   7.421
22039SOL    HW167949   6.491  11.945   7.393
22039SOL    HW267950   6.526  12.082   7.341
22040SOL     OW67951   5.286   8.735   8.983
22040SOL    HW167952   5.377   8.751   8.960
22040SOL    HW267953   5.290   8.690   9.068
22041SOL     OW67954   8.517   2.113  12.721
22041SOL    HW167955   8.486   2.052  12.788
22041SOL    HW267956   8.451   2.182  12.719
22042SOL     OW67957   3.194  11.501   6.654
22042SOL    HW167958   3.198  11.573   6.717
22042SOL    HW267959   3.120  11.447   6.683
22043SOL     OW67960   5.395  12.284   4.781
22043SOL    HW167961   5.451  12.355   4.814
22043SOL    HW267962   5.306  12.315   4.797
22044SOL     OW67963   4.191   3.951   0.154
22044SOL    HW167964   4.269   3.947   0.100
22044SOL    HW267965   4.143   3.871   0.132
22045SOL     OW67966   1.728  10.279   4.919
22045SOL    HW167967   1.799  10.340   4.898
22045SOL    HW267968   1.682  10.265   4.837
22046SOL     OW67969   7.071  13.034   1.713
22046SOL    HW167970   7.115  13.045   1.797
22046SOL    HW267971   7.074  13.120   1.672
22047SOL     OW67972   4.662   1.543  11.465
22047SOL    HW167973   4.630   1.454  11.480
22047SOL    HW267974   4.754   1.540  11.492
22048SOL     OW67975  14.059   6.304  11.678
22048SOL    HW167976  14.011   6.244  11.621
22048SOL    HW267977  13.992   6.341  11.736
22049SOL     OW67978   0.565  13.385  11.349
22049SOL    HW167979   0.514  13.419  11.275
22049SOL    HW267980   0.649  13.360  11.311
22050SOL     OW67981  13.767  10.039  12.733
22050SOL    HW167982  13.692   9.980  12.729
22050SOL    HW267983  13.753  10.101  12.661
22051SOL     OW67984   2.638   1.781  11.886
22051SOL    HW167985   2.593   1.710  11.839
22051SOL    HW267986   2.613   1.768  11.977
22052SOL     OW67987   6.398   1.649   3.342
22052SOL    HW167988   6.471   1.640   3.281
22052SOL    HW267989   6.434   1.625   3.427
22053SOL     OW67990  14.614   7.070  13.581
22053SOL    HW167991  14.607   7.108  13.493
22053SOL    HW267992  14.686   7.008  13.574
22054SOL     OW67993   4.648   0.368   6.467
22054SOL    HW167994   4.717   0.420   6.507
22054SOL    HW267995   4.569   0.422   6.475
22055SOL     OW67996  11.656   4.603   3.108
22055SOL    HW167997  11.741   4.568   3.078
22055SOL    HW267998  11.625   4.538   3.172
22056SOL     OW67999   2.420  13.260   4.226
22056SOL    HW168000   2.375  13.341   4.204
22056SOL    HW268001   2.392  13.198   4.159
22057SOL     OW68002  10.511  13.689   5.197
22057SOL    HW168003  10.421  13.716   5.214
22057SOL    HW268004  10.522  13.700   5.103
22058SOL     OW68005   1.411   3.880   4.051
22058SOL    HW168006   1.472   3.810   4.076
22058SOL    HW268007   1.431   3.951   4.112
22059SOL     OW68008   4.537   4.163   7.411
22059SOL    HW168009   4.566   4.128   7.326
22059SOL    HW268010   4.586   4.245   7.420
22060SOL     OW68011   1.148   7.730  10.853
22060SOL    HW168012   1.215   7.786  10.893
22060SOL    HW268013   1.121   7.777  10.774
22061SOL     OW68014  12.040  10.097  14.675
22061SOL    HW168015  11.975  10.027  14.664
22061SOL    HW268016  12.030  10.125  14.766
22062SOL     OW68017   9.469  11.465  11.146
22062SOL    HW168018   9.443  11.557  11.141
22062SOL    HW268019   9.405  11.419  11.090
22063SOL     OW68020   2.634   4.339   9.697
22063SOL    HW168021   2.725   4.327   9.672
22063SOL    HW268022   2.588   4.266   9.656
22064SOL     OW68023   0.945  14.188   0.464
22064SOL    HW168024   0.856  14.213   0.439
22064SOL    HW268025   0.934  14.108   0.516
22065SOL     OW68026   0.453   0.850  11.684
22065SOL    HW168027   0.373   0.804  11.710
22065SOL    HW268028   0.505   0.854  11.763
22066SOL     OW68029   2.545   1.224   2.285
22066SOL    HW168030   2.577   1.313   2.275
22066SOL    HW268031   2.613   1.180   2.337
22067SOL     OW68032   7.074   1.314  10.112
22067SOL    HW168033   6.985   1.307  10.147
22067SOL    HW268034   7.063   1.302  10.018
22068SOL     OW68035   4.033  14.796   6.888
22068SOL    HW168036   3.962  14.859   6.898
22068SOL    HW268037   4.038  14.781   6.794
22069SOL     OW68038  12.682   6.246   7.377
22069SOL    HW168039  12.769   6.276   7.347
22069SOL    HW268040  12.646   6.321   7.424
22070SOL     OW68041  10.345  11.524   9.960
22070SOL    HW168042  10.415  11.518   9.895
22070SOL    HW268043  10.358  11.610  10.001
22071SOL     OW68044   6.436   9.783   4.943
22071SOL    HW168045   6.383   9.716   4.984
22071SOL    HW268046   6.511   9.736   4.906
22072SOL     OW68047  12.091  13.039   8.166
22072SOL    HW168048  12.114  13.103   8.234
22072SOL    HW268049  12.003  13.010   8.189
22073SOL     OW68050   0.682   5.666  13.169
22073SOL    HW168051   0.608   5.686  13.111
22073SOL    HW268052   0.711   5.579  13.140
22074SOL     OW68053   9.698  14.531   0.961
22074SOL    HW168054   9.724  14.572   0.879
22074SOL    HW268055   9.758  14.568   1.026
22075SOL     OW68056   7.006   7.748   8.703
22075SOL    HW168057   6.934   7.684   8.706
22075SOL    HW268058   7.068   7.710   8.641
22076SOL     OW68059   4.106   8.699   0.108
22076SOL    HW168060   4.113   8.706   0.013
22076SOL    HW268061   4.065   8.613   0.123
22077SOL     OW68062   7.214   2.019   9.666
22077SOL    HW168063   7.267   2.096   9.648
22077SOL    HW268064   7.273   1.959   9.710
22078SOL     OW68065  10.658   3.348  10.886
22078SOL    HW168066  10.589   3.283  10.869
22078SOL    HW268067  10.612   3.423  10.924
22079SOL     OW68068   8.686   6.342   8.879
22079SOL    HW168069   8.684   6.337   8.974
22079SOL    HW268070   8.771   6.383   8.859
22080SOL     OW68071   6.950   3.469  11.694
22080SOL    HW168072   7.033   3.457  11.649
22080SOL    HW268073   6.956   3.416  11.773
22081SOL     OW68074   8.659   2.873  12.042
22081SOL    HW168075   8.657   2.788  11.998
22081SOL    HW268076   8.616   2.858  12.126
22082SOL     OW68077   2.293   6.263   7.586
22082SOL    HW168078   2.202   6.233   7.586
22082SOL    HW268079   2.288   6.354   7.556
22083SOL     OW68080   5.659  13.009   3.516
22083SOL    HW168081   5.581  13.047   3.556
22083SOL    HW268082   5.636  12.996   3.424
22084SOL     OW68083  12.616   2.249  14.619
22084SOL    HW168084  12.565   2.330  14.626
22084SOL    HW268085  12.672   2.249  14.697
22085SOL     OW68086   7.461  12.914   4.141
22085SOL    HW168087   7.383  12.889   4.093
22085SOL    HW268088   7.437  12.995   4.186
22086SOL     OW68089   7.313   9.646   7.830
22086SOL    HW168090   7.280   9.705   7.762
22086SOL    HW268091   7.385   9.695   7.870
22087SOL     OW68092  10.327  13.057  14.070
22087SOL    HW168093  10.270  13.134  14.076
22087SOL    HW268094  10.332  13.025  14.160
22088SOL     OW68095   2.278  14.046   3.112
22088SOL    HW168096   2.309  14.033   3.202
22088SOL    HW268097   2.205  14.108   3.121
22089SOL     OW68098  13.398   3.349   5.060
22089SOL    HW168099  13.410   3.390   5.145
22089SOL    HW268100  13.355   3.415   5.006
22090SOL     OW68101  12.333   9.946   4.527
22090SOL    HW168102  12.347  10.001   4.604
22090SOL    HW268103  12.318  10.007   4.455
22091SOL     OW68104  10.263   3.982   1.119
22091SOL    HW168105  10.236   3.991   1.028
22091SOL    HW268106  10.321   3.906   1.119
22092SOL     OW68107  10.177   8.513  11.134
22092SOL    HW168108  10.113   8.444  11.148
22092SOL    HW268109  10.141   8.589  11.179
22093SOL     OW68110  12.339   4.297   4.154
22093SOL    HW168111  12.250   4.302   4.189
22093SOL    HW268112  12.340   4.218   4.100
22094SOL     OW68113  12.432   1.038   5.447
22094SOL    HW168114  12.359   1.046   5.386
22094SOL    HW268115  12.427   1.117   5.501
22095SOL     OW68116  11.536  12.265   2.077
22095SOL    HW168117  11.512  12.191   2.021
22095SOL    HW268118  11.452  12.306   2.099
22096SOL     OW68119   8.815   2.717   0.777
22096SOL    HW168120   8.861   2.783   0.726
22096SOL    HW268121   8.752   2.679   0.714
22097SOL     OW68122  11.604  11.657   4.631
22097SOL    HW168123  11.699  11.650   4.632
22097SOL    HW268124  11.575  11.589   4.571
22098SOL     OW68125  11.681   6.561   3.374
22098SOL    HW168126  11.683   6.517   3.459
22098SOL    HW268127  11.773   6.577   3.352
22099SOL     OW68128  13.044  13.697   0.245
22099SOL    HW168129  13.038  13.620   0.190
22099SOL    HW268130  12.959  13.741   0.233
22100SOL     OW68131   8.905   3.549   3.476
22100SOL    HW168132   8.957   3.616   3.433
22100SOL    HW268133   8.830   3.535   3.418
22101SOL     OW68134  10.562  11.260  14.606
22101SOL    HW168135  10.488  11.291  14.553
22101SOL    HW268136  10.559  11.313  14.685
22102SOL     OW68137  12.145  12.117   2.824
22102SOL    HW168138  12.140  12.022   2.823
22102SOL    HW268139  12.100  12.143   2.904
22103SOL     OW68140   3.852   8.923   4.903
22103SOL    HW168141   3.765   8.964   4.898
22103SOL    HW268142   3.908   8.991   4.940
22104SOL     OW68143  14.620   5.006   4.152
22104SOL    HW168144  14.662   5.078   4.199
22104SOL    HW268145  14.682   4.982   4.084
22105SOL     OW68146  11.372  10.981   2.655
22105SOL    HW168147  11.350  10.903   2.604
22105SOL    HW268148  11.386  11.050   2.590
22106SOL     OW68149   2.079  11.291   9.113
22106SOL    HW168150   2.162  11.285   9.161
22106SOL    HW268151   2.015  11.318   9.179
22107SOL     OW68152   1.135   5.918   1.698
22107SOL    HW168153   1.048   5.878   1.693
22107SOL    HW268154   1.181   5.867   1.765
22108SOL     OW68155   3.619   5.483  10.301
22108SOL    HW168156   3.564   5.522  10.370
22108SOL    HW268157   3.629   5.392  10.328
22109SOL     OW68158   4.910   3.342  11.635
22109SOL    HW168159   4.830   3.375  11.594
22109SOL    HW268160   4.949   3.285  11.568
22110SOL     OW68161   1.641  14.199   4.344
22110SOL    HW168162   1.687  14.246   4.413
22110SOL    HW268163   1.641  14.259   4.269
22111SOL     OW68164   3.074   0.063   5.805
22111SOL    HW168165   3.133   0.110   5.863
22111SOL    HW268166   3.088   0.104   5.719
22112SOL     OW68167   3.450   6.833   7.409
22112SOL    HW168168   3.532   6.786   7.427
22112SOL    HW268169   3.477   6.909   7.357
22113SOL     OW68170  12.118   0.110   9.052
22113SOL    HW168171  12.025   0.128   9.061
22113SOL    HW268172  12.124   0.053   8.976
22114SOL     OW68173   3.911   8.835  12.355
22114SOL    HW168174   3.887   8.745  12.332
22114SOL    HW268175   3.930   8.831  12.449
22115SOL     OW68176   4.277   2.012   3.016
22115SOL    HW168177   4.252   1.921   3.003
22115SOL    HW268178   4.199   2.063   2.990
22116SOL     OW68179   7.181   0.979   2.983
22116SOL    HW168180   7.119   1.038   2.940
22116SOL    HW268181   7.173   1.001   3.076
22117SOL     OW68182   1.889   4.455   5.947
22117SOL    HW168183   1.870   4.542   5.912
22117SOL    HW268184   1.967   4.427   5.899
22118SOL     OW68185  10.974   0.771   8.447
22118SOL    HW168186  10.964   0.676   8.456
22118SOL    HW268187  10.999   0.785   8.356
22119SOL     OW68188  11.078   7.408   0.997
22119SOL    HW168189  11.056   7.324   0.959
22119SOL    HW268190  10.996   7.439   1.036
22120SOL     OW68191   4.620   7.421   9.587
22120SOL    HW168192   4.606   7.418   9.681
22120SOL    HW268193   4.650   7.333   9.564
22121SOL     OW68194   9.591  13.898   0.734
22121SOL    HW168195   9.597  13.962   0.663
22121SOL    HW268196   9.505  13.914   0.773
22122SOL     OW68197  11.045   8.063   5.997
22122SOL    HW168198  10.993   8.118   6.056
22122SOL    HW268199  11.122   8.117   5.975
22123SOL     OW68200  14.862   5.941  14.214
22123SOL    HW168201   0.002   5.847  14.221
22123SOL    HW268202   0.060   5.973  14.161
22124SOL     OW68203   3.273   2.908   9.361
22124SOL    HW168204   3.248   2.928   9.271
22124SOL    HW268205   3.361   2.945   9.370
22125SOL     OW68206  10.848  11.961  13.738
22125SOL    HW168207  10.832  12.044  13.692
22125SOL    HW268208  10.815  11.976  13.826
22126SOL     OW68209   4.456  11.040   1.274
22126SOL    HW168210   4.379  11.093   1.295
22126SOL    HW268211   4.478  11.065   1.184
22127SOL     OW68212   3.526   5.404   4.382
22127SOL    HW168213   3.530   5.315   4.347
22127SOL    HW268214   3.569   5.458   4.315
22128SOL     OW68215   6.328  12.137   5.710
22128SOL    HW168216   6.372  12.209   5.756
22128SOL    HW268217   6.368  12.058   5.747
22129SOL     OW68218   1.059   7.745   8.717
22129SOL    HW168219   0.983   7.801   8.731
22129SOL    HW268220   1.023   7.662   8.685
22130SOL     OW68221   5.328   7.695   0.277
22130SOL    HW168222   5.351   7.624   0.336
22130SOL    HW268223   5.249   7.665   0.232
22131SOL     OW68224   2.845   1.953   0.280
22131SOL    HW168225   2.788   1.877   0.281
22131SOL    HW268226   2.897   1.946   0.360
22132SOL     OW68227   5.879   8.294   1.716
22132SOL    HW168228   5.896   8.329   1.804
22132SOL    HW268229   5.786   8.269   1.718
22133SOL     OW68230  10.609   2.201   6.436
22133SOL    HW168231  10.591   2.108   6.454
22133SOL    HW268232  10.585   2.212   6.344
22134SOL     OW68233  13.796   3.081  13.019
22134SOL    HW168234  13.730   3.012  13.025
22134SOL    HW268235  13.835   3.083  13.106
22135SOL     OW68236   2.913   2.919   9.203
22135SOL    HW168237   2.992   2.910   9.151
22135SOL    HW268238   2.845   2.943   9.140
22136SOL     OW68239  10.492  12.439  10.061
22136SOL    HW168240  10.543  12.493  10.121
22136SOL    HW268241  10.413  12.491  10.044
22137SOL     OW68242   7.120  11.381   6.717
22137SOL    HW168243   7.192  11.347   6.663
22137SOL    HW268244   7.043  11.373   6.660
22138SOL     OW68245   3.322  12.596   6.512
22138SOL    HW168246   3.284  12.530   6.455
22138SOL    HW268247   3.273  12.676   6.493
22139SOL     OW68248   8.162   1.882  13.612
22139SOL    HW168249   8.156   1.869  13.706
22139SOL    HW268250   8.164   1.977  13.601
22140SOL     OW68251  13.510  10.975   6.204
22140SOL    HW168252  13.553  10.926   6.134
22140SOL    HW268253  13.417  10.957   6.191
22141SOL     OW68254  11.330   4.646  13.348
22141SOL    HW168255  11.319   4.698  13.428
22141SOL    HW268256  11.420   4.614  13.352
22142SOL     OW68257  11.774  14.059  12.687
22142SOL    HW168258  11.777  14.039  12.594
22142SOL    HW268259  11.849  14.013  12.724
22143SOL     OW68260  14.386  12.048   6.307
22143SOL    HW168261  14.424  12.067   6.222
22143SOL    HW268262  14.349  11.960   6.299
22144SOL     OW68263   2.978   2.502   1.015
22144SOL    HW168264   2.898   2.449   1.013
22144SOL    HW268265   2.964   2.568   0.947
22145SOL     OW68266   6.510   2.529   6.455
22145SOL    HW168267   6.516   2.608   6.402
22145SOL    HW268268   6.588   2.478   6.431
22146SOL     OW68269   8.815  11.204   8.747
22146SOL    HW168270   8.843  11.255   8.670
22146SOL    HW268271   8.719  11.215   8.749
22147SOL     OW68272   5.947   2.108   8.450
22147SOL    HW168273   6.012   2.040   8.435
22147SOL    HW268274   5.910   2.125   8.363
22148SOL     OW68275   3.190   8.301   6.934
22148SOL    HW168276   3.260   8.238   6.951
22148SOL    HW268277   3.233   8.373   6.887
22149SOL     OW68278  11.746   7.260   5.477
22149SOL    HW168279  11.703   7.188   5.431
22149SOL    HW268280  11.698   7.268   5.559
22150SOL     OW68281  13.587   6.248   1.436
22150SOL    HW168282  13.493   6.260   1.423
22150SOL    HW268283  13.595   6.159   1.471
22151SOL     OW68284  10.614   5.575   7.804
22151SOL    HW168285  10.666   5.644   7.764
22151SOL    HW268286  10.524   5.597   7.784
22152SOL     OW68287   2.077  13.427  11.370
22152SOL    HW168288   2.051  13.503  11.422
22152SOL    HW268289   2.007  13.416  11.305
22153SOL     OW68290  10.793   2.032   8.367
22153SOL    HW168291  10.843   2.102   8.325
22153SOL    HW268292  10.813   2.040   8.460
22154SOL     OW68293   7.956   7.345  13.363
22154SOL    HW168294   7.935   7.436  13.339
22154SOL    HW268295   7.902   7.292  13.304
22155SOL     OW68296  12.009   7.419   2.711
22155SOL    HW168297  11.961   7.340   2.735
22155SOL    HW268298  12.008   7.421   2.616
22156SOL     OW68299   7.995   0.500  11.235
22156SOL    HW168300   8.065   0.534  11.179
22156SOL    HW268301   7.987   0.566  11.305
22157SOL     OW68302  10.973  13.977  12.385
22157SOL    HW168303  10.994  14.019  12.469
22157SOL    HW268304  10.989  14.045  12.320
22158SOL     OW68305   3.279   4.045   4.591
22158SOL    HW168306   3.319   4.067   4.507
22158SOL    HW268307   3.352   4.046   4.653
22159SOL     OW68308   1.096   7.393  11.619
22159SOL    HW168309   1.096   7.373  11.525
22159SOL    HW268310   1.008   7.366  11.648
22160SOL     OW68311   6.760   1.747   0.785
22160SOL    HW168312   6.704   1.775   0.712
22160SOL    HW268313   6.775   1.654   0.769
22161SOL     OW68314   0.806   1.641   9.539
22161SOL    HW168315   0.843   1.572   9.483
22161SOL    HW268316   0.779   1.709   9.477
22162SOL     OW68317  10.770   6.115   9.577
22162SOL    HW168318  10.829   6.190   9.564
22162SOL    HW268319  10.798   6.076   9.660
22163SOL     OW68320   5.302   6.055   4.256
22163SOL    HW168321   5.394   6.045   4.234
22163SOL    HW268322   5.277   6.139   4.217
22164SOL     OW68323   2.470   2.252   8.825
22164SOL    HW168324   2.378   2.240   8.800
22164SOL    HW268325   2.520   2.214   8.752
22165SOL     OW68326   4.698   4.452   8.568
22165SOL    HW168327   4.709   4.529   8.513
22165SOL    HW268328   4.622   4.471   8.622
22166SOL     OW68329  11.672  12.669  11.149
22166SOL    HW168330  11.717  12.589  11.175
22166SOL    HW268331  11.586  12.663  11.193
22167SOL     OW68332  12.231   7.704   9.815
22167SOL    HW168333  12.321   7.723   9.788
22167SOL    HW268334  12.182   7.697   9.734
22168SOL     OW68335  10.751   8.026   6.096
22168SOL    HW168336  10.678   8.088   6.101
22168SOL    HW268337  10.756   8.002   6.004
22169SOL     OW68338   8.065   8.339   6.451
22169SOL    HW168339   8.015   8.296   6.521
22169SOL    HW268340   8.067   8.431   6.476
22170SOL     OW68341  12.189  12.307   8.403
22170SOL    HW168342  12.235  12.314   8.487
22170SOL    HW268343  12.180  12.213   8.389
22171SOL     OW68344   9.909   9.045   5.622
22171SOL    HW168345   9.844   8.978   5.600
22171SOL    HW268346   9.985   8.996   5.652
22172SOL     OW68347   9.342  10.248  12.337
22172SOL    HW168348   9.270  10.204  12.292
22172SOL    HW268349   9.414  10.185  12.336
22173SOL     OW68350  10.043  13.078  11.222
22173SOL    HW168351   9.998  13.094  11.305
22173SOL    HW268352   9.983  13.112  11.155
22174SOL     OW68353   8.696   0.988  13.958
22174SOL    HW168354   8.739   1.005  14.042
22174SOL    HW268355   8.765   0.954  13.902
22175SOL     OW68356   6.649   3.634   2.395
22175SOL    HW168357   6.729   3.602   2.354
22175SOL    HW268358   6.638   3.579   2.473
22176SOL     OW68359   7.392  10.959   2.592
22176SOL    HW168360   7.369  10.876   2.550
22176SOL    HW268361   7.425  11.014   2.520
22177SOL     OW68362   3.164  12.970  13.357
22177SOL    HW168363   3.244  13.019  13.379
22177SOL    HW268364   3.104  13.037  13.323
22178SOL     OW68365   1.546   4.304   0.173
22178SOL    HW168366   1.498   4.314   0.090
22178SOL    HW268367   1.496   4.239   0.222
22179SOL     OW68368   6.246  10.009   0.637
22179SOL    HW168369   6.163  10.056   0.644
22179SOL    HW268370   6.238   9.938   0.701
22180SOL     OW68371   4.852  11.845   3.384
22180SOL    HW168372   4.947  11.834   3.385
22180SOL    HW268373   4.837  11.928   3.429
22181SOL     OW68374   6.443   1.495   0.519
22181SOL    HW168375   6.430   1.504   0.424
22181SOL    HW268376   6.525   1.541   0.537
22182SOL     OW68377  10.749   8.732   5.339
22182SOL    HW168378  10.795   8.745   5.422
22182SOL    HW268379  10.657   8.724   5.364
22183SOL     OW68380   1.584  11.174  11.801
22183SOL    HW168381   1.603  11.209  11.888
22183SOL    HW268382   1.492  11.195  11.786
22184SOL     OW68383   2.442   7.947   3.199
22184SOL    HW168384   2.452   7.991   3.115
22184SOL    HW268385   2.368   7.991   3.241
22185SOL     OW68386   3.127  14.658   1.582
22185SOL    HW168387   3.047  14.667   1.531
22185SOL    HW268388   3.103  14.688   1.670
22186SOL     OW68389   2.158   0.548   3.231
22186SOL    HW168390   2.081   0.492   3.241
22186SOL    HW268391   2.233   0.488   3.236
22187SOL     OW68392  13.904   3.701  13.525
22187SOL    HW168393  13.841   3.773  13.531
22187SOL    HW268394  13.977   3.737  13.475
22188SOL     OW68395   4.440   2.011   5.780
22188SOL    HW168396   4.406   1.937   5.829
22188SOL    HW268397   4.391   2.011   5.698
22189SOL     OW68398   0.532   6.373  11.000
22189SOL    HW168399   0.450   6.422  11.009
22189SOL    HW268400   0.511   6.305  10.936
22190SOL     OW68401  11.977  10.066   3.592
22190SOL    HW168402  11.990  10.026   3.506
22190SOL    HW268403  11.893  10.032   3.622
22191SOL     OW68404   3.904   2.868  12.794
22191SOL    HW168405   3.913   2.773  12.800
22191SOL    HW268406   3.972   2.902  12.853
22192SOL     OW68407   1.050   4.721   2.143
22192SOL    HW168408   0.979   4.752   2.200
22192SOL    HW268409   1.106   4.798   2.131
22193SOL     OW68410  14.689   2.463   3.186
22193SOL    HW168411  14.633   2.495   3.257
22193SOL    HW268412  14.648   2.381   3.159
22194SOL     OW68413   5.680  10.196  10.166
22194SOL    HW168414   5.676  10.112  10.120
22194SOL    HW268415   5.769  10.198  10.203
22195SOL     OW68416   7.102  14.268   8.308
22195SOL    HW168417   7.080  14.296   8.397
22195SOL    HW268418   7.056  14.185   8.297
22196SOL     OW68419  13.855   6.608  12.450
22196SOL    HW168420  13.912   6.562  12.512
22196SOL    HW268421  13.822   6.539  12.393
22197SOL     OW68422   5.776   6.940   5.272
22197SOL    HW168423   5.714   6.888   5.323
22197SOL    HW268424   5.768   6.906   5.183
22198SOL     OW68425   6.668  11.728  10.246
22198SOL    HW168426   6.754  11.762  10.219
22198SOL    HW268427   6.656  11.649  10.193
22199SOL     OW68428  14.396   2.181   5.975
22199SOL    HW168429  14.371   2.167   5.883
22199SOL    HW268430  14.417   2.093   6.008
22200SOL     OW68431   3.697  14.683  14.259
22200SOL    HW168432   3.785  14.709  14.284
22200SOL    HW268433   3.707  14.595  14.224
22201SOL     OW68434   3.807   6.369   6.103
22201SOL    HW168435   3.831   6.461   6.115
22201SOL    HW268436   3.711   6.369   6.104
22202SOL     OW68437  13.525  13.258   0.167
22202SOL    HW168438  13.620  13.260   0.166
22202SOL    HW268439  13.499  13.347   0.192
22203SOL     OW68440   8.368   8.684   9.243
22203SOL    HW168441   8.298   8.743   9.213
22203SOL    HW268442   8.373   8.617   9.175
22204SOL     OW68443   3.049   0.468  12.614
22204SOL    HW168444   3.002   0.454  12.531
22204SOL    HW268445   3.087   0.556  12.605
22205SOL     OW68446   4.213   1.679   1.165
22205SOL    HW168447   4.194   1.600   1.114
22205SOL    HW268448   4.297   1.709   1.131
22206SOL     OW68449   9.785  10.673   1.824
22206SOL    HW168450   9.767  10.590   1.779
22206SOL    HW268451   9.861  10.709   1.777
22207SOL     OW68452   7.787   1.881   2.122
22207SOL    HW168453   7.850   1.847   2.184
22207SOL    HW268454   7.722   1.927   2.176
22208SOL     OW68455   9.260  12.958  10.614
22208SOL    HW168456   9.278  12.979  10.522
22208SOL    HW268457   9.253  12.863  10.616
22209SOL     OW68458   6.369   9.492   2.858
22209SOL    HW168459   6.411   9.516   2.941
22209SOL    HW268460   6.377   9.570   2.804
22210SOL     OW68461   6.159   7.016   8.862
22210SOL    HW168462   6.117   6.934   8.889
22210SOL    HW268463   6.247   7.010   8.899
22211SOL     OW68464  12.904   3.812   7.320
22211SOL    HW168465  12.974   3.827   7.257
22211SOL    HW268466  12.945   3.761   7.390
22212SOL     OW68467   8.971   3.903  10.868
22212SOL    HW168468   8.933   3.990  10.875
22212SOL    HW268469   9.012   3.887  10.952
22213SOL     OW68470   4.636   9.746   9.112
22213SOL    HW168471   4.674   9.789   9.035
22213SOL    HW268472   4.699   9.677   9.135
22214SOL     OW68473   9.510  10.087   5.056
22214SOL    HW168474   9.482  10.028   4.986
22214SOL    HW268475   9.502  10.036   5.136
22215SOL     OW68476   3.737  12.462   1.162
22215SOL    HW168477   3.666  12.410   1.202
22215SOL    HW268478   3.798  12.477   1.234
22216SOL     OW68479   2.651   9.149  11.659
22216SOL    HW168480   2.602   9.090  11.716
22216SOL    HW268481   2.724   9.096  11.627
22217SOL     OW68482  14.820  11.520  14.273
22217SOL    HW168483   0.025  11.468  14.268
22217SOL    HW268484  14.840  11.600  14.224
22218SOL     OW68485  11.389  13.236  12.917
22218SOL    HW168486  11.320  13.171  12.907
22218SOL    HW268487  11.434  13.239  12.833
22219SOL     OW68488   3.354   7.200  12.683
22219SOL    HW168489   3.286   7.133  12.690
22219SOL    HW268490   3.367   7.211  12.589
22220SOL     OW68491   4.020   3.749   0.371
22220SOL    HW168492   4.017   3.696   0.292
22220SOL    HW268493   4.083   3.704   0.428
22221SOL     OW68494   8.562   5.855   9.859
22221SOL    HW168495   8.480   5.892   9.825
22221SOL    HW268496   8.630   5.910   9.821
22222SOL     OW68497   7.012   2.658   4.447
22222SOL    HW168498   7.013   2.743   4.491
22222SOL    HW268499   6.954   2.670   4.372
22223SOL     OW68500   6.071   2.372   5.050
22223SOL    HW168501   6.009   2.443   5.068
22223SOL    HW268502   6.019   2.292   5.053
22224SOL     OW68503  12.883   2.861  10.508
22224SOL    HW168504  12.933   2.912  10.571
22224SOL    HW268505  12.948   2.806  10.464
22225SOL     OW68506   0.424  10.550  11.508
22225SOL    HW168507   0.473  10.613  11.561
22225SOL    HW268508   0.409  10.595  11.425
22226SOL     OW68509  12.237   9.948   6.032
22226SOL    HW168510  12.272  10.035   6.052
22226SOL    HW268511  12.270   9.929   5.945
22227SOL     OW68512   2.059   8.198   1.475
22227SOL    HW168513   1.991   8.198   1.407
22227SOL    HW268514   2.113   8.121   1.455
22228SOL     OW68515  10.478   3.343   0.321
22228SOL    HW168516  10.422   3.345   0.243
22228SOL    HW268517  10.538   3.418   0.310
22229SOL     OW68518   4.249  11.215   5.111
22229SOL    HW168519   4.314  11.210   5.181
22229SOL    HW268520   4.231  11.308   5.100
22230SOL     OW68521  12.765  13.827  14.163
22230SOL    HW168522  12.783  13.745  14.116
22230SOL    HW268523  12.851  13.855  14.195
22231SOL     OW68524   6.131   2.350  13.110
22231SOL    HW168525   6.164   2.299  13.036
22231SOL    HW268526   6.114   2.437  13.073
22232SOL     OW68527   2.530   8.317   7.463
22232SOL    HW168528   2.622   8.293   7.457
22232SOL    HW268529   2.529   8.394   7.520
22233SOL     OW68530  12.210   2.437   8.108
22233SOL    HW168531  12.205   2.437   8.012
22233SOL    HW268532  12.146   2.371   8.135
22234SOL     OW68533   6.479  14.792  10.394
22234SOL    HW168534   6.461  14.721  10.332
22234SOL    HW268535   6.564  14.826  10.366
22235SOL     OW68536   2.828   6.851   1.360
22235SOL    HW168537   2.828   6.798   1.440
22235SOL    HW268538   2.919   6.854   1.332
22236SOL     OW68539   9.570   2.255   8.608
22236SOL    HW168540   9.623   2.245   8.687
22236SOL    HW268541   9.497   2.311   8.635
22237SOL     OW68542  13.460  11.094   7.693
22237SOL    HW168543  13.378  11.088   7.643
22237SOL    HW268544  13.434  11.135   7.776
22238SOL     OW68545   4.801   2.213   7.406
22238SOL    HW168546   4.759   2.227   7.321
22238SOL    HW268547   4.731   2.178   7.462
22239SOL     OW68548   1.835   2.557   3.453
22239SOL    HW168549   1.841   2.478   3.399
22239SOL    HW268550   1.899   2.617   3.414
22240SOL     OW68551   0.601   6.578   3.684
22240SOL    HW168552   0.532   6.563   3.619
22240SOL    HW268553   0.643   6.493   3.694
22241SOL     OW68554   7.361   8.030   5.075
22241SOL    HW168555   7.280   8.080   5.087
22241SOL    HW268556   7.361   8.005   4.983
22242SOL     OW68557   5.958   0.523  11.802
22242SOL    HW168558   5.895   0.570  11.857
22242SOL    HW268559   6.023   0.589  11.779
22243SOL     OW68560   8.226   5.071   4.047
22243SOL    HW168561   8.160   5.132   4.014
22243SOL    HW268562   8.299   5.126   4.074
22244SOL     OW68563   9.328  11.305   9.183
22244SOL    HW168564   9.289  11.391   9.168
22244SOL    HW268565   9.422  11.319   9.173
22245SOL     OW68566   4.054   4.956  12.798
22245SOL    HW168567   4.028   4.888  12.736
22245SOL    HW268568   3.975   4.975  12.847
22246SOL     OW68569  13.420  12.146   8.789
22246SOL    HW168570  13.511  12.153   8.758
22246SOL    HW268571  13.426  12.089   8.865
22247SOL     OW68572  11.766  10.962   3.698
22247SOL    HW168573  11.842  10.949   3.755
22247SOL    HW268574  11.701  10.900   3.730
22248SOL     OW68575   5.497   5.078  12.057
22248SOL    HW168576   5.483   5.100  12.149
22248SOL    HW268577   5.589   5.096  12.041
22249SOL     OW68578  14.360  14.085   5.174
22249SOL    HW168579  14.274  14.093   5.132
22249SOL    HW268580  14.372  13.990   5.185
22250SOL     OW68581   4.337   9.838   0.970
22250SOL    HW168582   4.427   9.870   0.964
22250SOL    HW268583   4.341   9.750   0.932
22251SOL     OW68584   1.158  13.619   7.025
22251SOL    HW168585   1.102  13.652   6.955
22251SOL    HW268586   1.116  13.538   7.053
22252SOL     OW68587   8.099  14.043   0.349
22252SOL    HW168588   8.167  13.986   0.313
22252SOL    HW268589   8.142  14.127   0.361
22253SOL     OW68590   4.467   7.124   6.235
22253SOL    HW168591   4.447   7.207   6.278
22253SOL    HW268592   4.529   7.148   6.166
22254SOL     OW68593   7.871   1.969  12.990
22254SOL    HW168594   7.912   1.883  12.985
22254SOL    HW268595   7.792   1.956  13.042
22255SOL     OW68596   6.009  12.325  14.551
22255SOL    HW168597   6.068  12.339  14.476
22255SOL    HW268598   6.034  12.393  14.614
22256SOL     OW68599  11.307   0.459  13.153
22256SOL    HW168600  11.389   0.422  13.187
22256SOL    HW268601  11.266   0.386  13.105
22257SOL     OW68602  12.954   2.212   8.017
22257SOL    HW168603  13.049   2.202   8.005
22257SOL    HW268604  12.945   2.271   8.091
22258SOL     OW68605  14.859  10.328   7.053
22258SOL    HW168606  14.858  10.234   7.072
22258SOL    HW268607   0.074  10.354   7.065
22259SOL     OW68608   0.837   6.343  14.123
22259SOL    HW168609   0.873   6.430  14.141
22259SOL    HW268610   0.911   6.293  14.089
22260SOL     OW68611   0.301   1.606  12.648
22260SOL    HW168612   0.306   1.700  12.662
22260SOL    HW268613   0.212   1.591  12.615
22261SOL     OW68614  14.406   8.806  12.917
22261SOL    HW168615  14.367   8.754  12.987
22261SOL    HW268616  14.458   8.742  12.867
22262SOL     OW68617  14.016   0.697   8.193
22262SOL    HW168618  13.970   0.719   8.111
22262SOL    HW268619  14.101   0.741   8.185
22263SOL     OW68620  13.283  14.330   2.059
22263SOL    HW168621  13.376  14.311   2.065
22263SOL    HW268622  13.262  14.378   2.139
22264SOL     OW68623  13.357  10.369  11.512
22264SOL    HW168624  13.266  10.380  11.539
22264SOL    HW268625  13.373  10.443  11.453
22265SOL     OW68626   0.251   4.879   5.574
22265SOL    HW168627   0.216   4.868   5.662
22265SOL    HW268628   0.318   4.947   5.583
22266SOL     OW68629   9.552   8.259   2.169
22266SOL    HW168630   9.539   8.349   2.201
22266SOL    HW268631   9.594   8.214   2.242
22267SOL     OW68632   1.333   6.752  12.145
22267SOL    HW168633   1.327   6.701  12.064
22267SOL    HW268634   1.427   6.769  12.155
22268SOL     OW68635   0.021  14.650   3.805
22268SOL    HW168636   0.071  14.635   3.724
22268SOL    HW268637   0.081  14.628   3.875
22269SOL     OW68638  14.082   6.574   0.065
22269SOL    HW168639  14.168   6.608   0.041
22269SOL    HW268640  14.061   6.615   0.149
22270SOL     OW68641   4.982  14.283   8.591
22270SOL    HW168642   5.043  14.309   8.522
22270SOL    HW268643   4.990  14.352   8.657
22271SOL     OW68644  10.186   9.888   7.615
22271SOL    HW168645  10.125   9.828   7.572
22271SOL    HW268646  10.204   9.848   7.700
22272SOL     OW68647  12.958   6.632   9.416
22272SOL    HW168648  12.993   6.586   9.492
22272SOL    HW268649  12.992   6.721   9.425
22273SOL     OW68650   2.354  10.923   2.772
22273SOL    HW168651   2.267  10.895   2.801
22273SOL    HW268652   2.405  10.928   2.853
22274SOL     OW68653  13.418  13.354   3.440
22274SOL    HW168654  13.491  13.406   3.406
22274SOL    HW268655  13.444  13.263   3.423
22275SOL     OW68656  12.309  13.213  14.128
22275SOL    HW168657  12.336  13.271  14.056
22275SOL    HW268658  12.359  13.243  14.203
22276SOL     OW68659   9.946   1.619   2.899
22276SOL    HW168660   9.911   1.593   2.814
22276SOL    HW268661   9.897   1.699   2.921
22277SOL     OW68662  10.303  10.227   8.393
22277SOL    HW168663  10.366  10.199   8.459
22277SOL    HW268664  10.312  10.163   8.322
22278SOL     OW68665   4.356  10.662   6.791
22278SOL    HW168666   4.308  10.633   6.714
22278SOL    HW268667   4.350  10.758   6.789
22279SOL     OW68668   7.993   5.755   3.067
22279SOL    HW168669   7.948   5.681   3.026
22279SOL    HW268670   8.007   5.727   3.157
22280SOL     OW68671  14.158  10.522  13.018
22280SOL    HW168672  14.094  10.530  12.947
22280SOL    HW268673  14.198  10.609  13.024
22281SOL     OW68674   3.985   3.864   3.469
22281SOL    HW168675   4.001   3.907   3.385
22281SOL    HW268676   4.057   3.801   3.477
22282SOL     OW68677   7.883   1.155   8.029
22282SOL    HW168678   7.858   1.143   7.937
22282SOL    HW268679   7.946   1.228   8.027
22283SOL     OW68680   8.451   2.773   3.683
22283SOL    HW168681   8.464   2.696   3.628
22283SOL    HW268682   8.420   2.738   3.767
22284SOL     OW68683   7.625  12.580   2.988
22284SOL    HW168684   7.545  12.618   2.952
22284SOL    HW268685   7.642  12.631   3.068
22285SOL     OW68686   1.984   8.876  12.669
22285SOL    HW168687   2.002   8.782  12.680
22285SOL    HW268688   1.890   8.884  12.688
22286SOL     OW68689   8.235   4.432   0.001
22286SOL    HW168690   8.326   4.421  14.847
22286SOL    HW268691   8.186   4.366  14.827
22287SOL     OW68692   7.721   3.350   8.948
22287SOL    HW168693   7.750   3.259   8.941
22287SOL    HW268694   7.716   3.381   8.858
22288SOL     OW68695  11.261   7.695   1.767
22288SOL    HW168696  11.239   7.606   1.797
22288SOL    HW268697  11.329   7.681   1.701
22289SOL     OW68698   9.546   5.521  12.587
22289SOL    HW168699   9.452   5.533  12.578
22289SOL    HW268700   9.584   5.606  12.567
22290SOL     OW68701   1.722   0.685   9.679
22290SOL    HW168702   1.632   0.655   9.665
22290SOL    HW268703   1.756   0.626   9.746
22291SOL     OW68704   4.017   5.054   7.480
22291SOL    HW168705   4.069   5.114   7.427
22291SOL    HW268706   4.044   5.071   7.570
22292SOL     OW68707  14.412  13.531  10.805
22292SOL    HW168708  14.483  13.488  10.853
22292SOL    HW268709  14.420  13.624  10.829
22293SOL     OW68710   8.118   4.570   4.254
22293SOL    HW168711   8.120   4.541   4.345
22293SOL    HW268712   8.192   4.630   4.246
22294SOL     OW68713   5.761   9.208  14.447
22294SOL    HW168714   5.826   9.211  14.376
22294SOL    HW268715   5.714   9.125  14.433
22295SOL     OW68716   3.105   7.244   4.962
22295SOL    HW168717   3.197   7.238   4.989
22295SOL    HW268718   3.061   7.285   5.036
22296SOL     OW68719  14.664   0.058   9.430
22296SOL    HW168720  14.651   0.148   9.458
22296SOL    HW268721  14.661   0.007   9.511
22297SOL     OW68722   5.139  10.248   8.402
22297SOL    HW168723   5.232  10.227   8.415
22297SOL    HW268724   5.125  10.236   8.308
22298SOL     OW68725  14.464   8.810   5.377
22298SOL    HW168726  14.552   8.832   5.345
22298SOL    HW268727  14.413   8.794   5.298
22299SOL     OW68728   9.566   6.078   0.465
22299SOL    HW168729   9.599   6.093   0.554
22299SOL    HW268730   9.602   6.151   0.414
22300SOL     OW68731   2.016   0.963   7.775
22300SOL    HW168732   2.088   0.901   7.782
22300SOL    HW268733   2.034   1.011   7.694
22301SOL     OW68734  13.102   6.281   8.514
22301SOL    HW168735  13.167   6.281   8.584
22301SOL    HW268736  13.154   6.285   8.433
22302SOL     OW68737  13.976   4.908  13.283
22302SOL    HW168738  14.011   4.992  13.313
22302SOL    HW268739  13.882   4.922  13.274
22303SOL     OW68740   9.319   2.218   6.516
22303SOL    HW168741   9.293   2.247   6.603
22303SOL    HW268742   9.236   2.208   6.468
22304SOL     OW68743  14.685   9.058   2.771
22304SOL    HW168744  14.686   9.099   2.684
22304SOL    HW268745  14.738   8.979   2.760
22305SOL     OW68746   2.774   7.880   2.243
22305SOL    HW168747   2.700   7.836   2.201
22305SOL    HW268748   2.844   7.877   2.177
22306SOL     OW68749   8.778   1.513  10.527
22306SOL    HW168750   8.859   1.519  10.578
22306SOL    HW268751   8.806   1.489  10.439
22307SOL     OW68752   0.167   1.559   8.582
22307SOL    HW168753   0.192   1.617   8.653
22307SOL    HW268754   0.248   1.517   8.555
22308SOL     OW68755  14.169  10.219  11.463
22308SOL    HW168756  14.189  10.294  11.519
22308SOL    HW268757  14.074  10.225  11.449
22309SOL     OW68758   5.564   0.297   2.650
22309SOL    HW168759   5.593   0.386   2.631
22309SOL    HW268760   5.554   0.256   2.565
22310SOL     OW68761   9.415  14.729   6.625
22310SOL    HW168762   9.432  14.636   6.611
22310SOL    HW268763   9.421  14.768   6.537
22311SOL     OW68764   3.161   5.837   8.019
22311SOL    HW168765   3.107   5.765   7.985
22311SOL    HW268766   3.098   5.905   8.041
22312SOL     OW68767  11.766   0.245  14.873
22312SOL    HW168768  11.757   0.278  14.784
22312SOL    HW268769  11.751   0.321   0.053
22313SOL     OW68770   2.515   1.565  12.869
22313SOL    HW168771   2.438   1.619  12.887
22313SOL    HW268772   2.582   1.627  12.841
22314SOL     OW68773   1.540   4.920  10.410
22314SOL    HW168774   1.625   4.917  10.365
22314SOL    HW268775   1.501   4.834  10.391
22315SOL     OW68776   6.793  14.073  10.425
22315SOL    HW168777   6.801  14.017  10.348
22315SOL    HW268778   6.820  14.160  10.395
22316SOL     OW68779   4.001  11.281   4.866
22316SOL    HW168780   3.997  11.337   4.944
22316SOL    HW268781   3.920  11.301   4.819
22317SOL     OW68782   8.239   0.292  14.863
22317SOL    HW168783   8.196   0.370   0.023
22317SOL    HW268784   8.230   0.302  14.768
22318SOL     OW68785   9.191   9.052  13.011
22318SOL    HW168786   9.194   9.130  13.067
22318SOL    HW268787   9.278   9.048  12.971
22319SOL     OW68788  12.843   5.944   5.100
22319SOL    HW168789  12.926   5.966   5.057
22319SOL    HW268790  12.776   5.986   5.046
22320SOL     OW68791   1.475  10.781   3.881
22320SOL    HW168792   1.457  10.726   3.957
22320SOL    HW268793   1.545  10.840   3.910
22321SOL     OW68794   4.373   4.420   5.616
22321SOL    HW168795   4.405   4.337   5.579
22321SOL    HW268796   4.305   4.449   5.555
22322SOL     OW68797   2.665   2.973   7.915
22322SOL    HW168798   2.735   3.014   7.863
22322SOL    HW268799   2.607   3.046   7.939
22323SOL     OW68800  10.707  12.083   2.063
22323SOL    HW168801  10.645  12.136   2.114
22323SOL    HW268802  10.652  12.038   1.998
22324SOL     OW68803  10.948  11.132   5.573
22324SOL    HW168804  10.973  11.165   5.659
22324SOL    HW268805  11.012  11.064   5.553
22325SOL     OW68806  12.138   8.477   4.218
22325SOL    HW168807  12.120   8.571   4.220
22325SOL    HW268808  12.158   8.453   4.308
22326SOL     OW68809   5.877  10.712   9.981
22326SOL    HW168810   5.910  10.685  10.067
22326SOL    HW268811   5.883  10.808   9.982
22327SOL     OW68812   1.356   8.859   3.300
22327SOL    HW168813   1.274   8.857   3.250
22327SOL    HW268814   1.332   8.827   3.387
22328SOL     OW68815   6.017   1.277   1.407
22328SOL    HW168816   5.951   1.320   1.462
22328SOL    HW268817   6.034   1.340   1.336
22329SOL     OW68818  12.085   6.049   5.822
22329SOL    HW168819  12.151   6.077   5.759
22329SOL    HW268820  12.112   6.088   5.905
22330SOL     OW68821   5.457   6.998   5.112
22330SOL    HW168822   5.522   7.069   5.107
22330SOL    HW268823   5.457   6.960   5.024
22331SOL     OW68824   4.677   5.783   2.206
22331SOL    HW168825   4.748   5.755   2.149
22331SOL    HW268826   4.675   5.717   2.276
22332SOL     OW68827  10.857  10.150  11.255
22332SOL    HW168828  10.828  10.229  11.300
22332SOL    HW268829  10.862  10.084  11.323
22333SOL     OW68830   8.282   3.352   0.454
22333SOL    HW168831   8.198   3.316   0.484
22333SOL    HW268832   8.262   3.394   0.371
22334SOL     OW68833   8.021   4.725  14.279
22334SOL    HW168834   7.931   4.703  14.304
22334SOL    HW268835   8.076   4.674  14.339
22335SOL     OW68836   1.513   4.635   5.776
22335SOL    HW168837   1.443   4.695   5.751
22335SOL    HW268838   1.588   4.661   5.723
22336SOL     OW68839   6.491   2.187   7.786
22336SOL    HW168840   6.436   2.263   7.763
22336SOL    HW268841   6.433   2.112   7.776
22337SOL     OW68842   2.715  12.584   6.607
22337SOL    HW168843   2.762  12.592   6.525
22337SOL    HW268844   2.638  12.641   6.597
22338SOL     OW68845   0.006  13.800   7.282
22338SOL    HW168846   0.074  13.816   7.347
22338SOL    HW268847  14.800  13.822   7.326
22339SOL     OW68848  10.941  13.332   9.849
22339SOL    HW168849  10.993  13.298   9.776
22339SOL    HW268850  10.919  13.422   9.823
22340SOL     OW68851   1.231   6.351   2.323
22340SOL    HW168852   1.140   6.327   2.340
22340SOL    HW268853   1.236   6.443   2.346
22341SOL     OW68854  13.850   3.769  14.451
22341SOL    HW168855  13.920   3.742  14.391
22341SOL    HW268856  13.809   3.688  14.479
22342SOL     OW68857   7.859  13.751  10.947
22342SOL    HW168858   7.852  13.844  10.926
22342SOL    HW268859   7.783  13.733  11.003
22343SOL     OW68860  12.161   7.577  14.402
22343SOL    HW168861  12.066   7.574  14.406
22343SOL    HW268862  12.185   7.653  14.454
22344SOL     OW68863   1.074   7.980   1.234
22344SOL    HW168864   1.164   8.002   1.210
22344SOL    HW268865   1.067   8.002   1.326
22345SOL     OW68866  10.772  10.224  14.250
22345SOL    HW168867  10.778  10.227  14.346
22345SOL    HW268868  10.790  10.314  14.223
22346SOL     OW68869   3.675  11.867   8.657
22346SOL    HW168870   3.581  11.849   8.648
22346SOL    HW268871   3.713  11.783   8.683
22347SOL     OW68872  11.332  11.039  13.311
22347SOL    HW168873  11.237  11.047  13.306
22347SOL    HW268874  11.358  11.096  13.383
22348SOL     OW68875   2.952   7.875   5.425
22348SOL    HW168876   3.020   7.843   5.484
22348SOL    HW268877   2.918   7.953   5.467
22349SOL     OW68878   1.222   4.779   6.856
22349SOL    HW168879   1.207   4.686   6.838
22349SOL    HW268880   1.258   4.814   6.774
22350SOL     OW68881   0.865  11.029   8.688
22350SOL    HW168882   0.892  11.020   8.779
22350SOL    HW268883   0.931  11.086   8.648
22351SOL     OW68884   5.991  13.396   1.540
22351SOL    HW168885   5.912  13.447   1.519
22351SOL    HW268886   5.966  13.343   1.616
22352SOL     OW68887   7.944  11.101  12.173
22352SOL    HW168888   7.892  11.161  12.119
22352SOL    HW268889   8.013  11.070  12.114
22353SOL     OW68890   5.541   5.730  13.020
22353SOL    HW168891   5.460   5.749  13.066
22353SOL    HW268892   5.534   5.777  12.937
22354SOL     OW68893   1.315  11.465  12.709
22354SOL    HW168894   1.236  11.500  12.667
22354SOL    HW268895   1.385  11.523  12.679
22355SOL     OW68896   7.863   4.775   5.614
22355SOL    HW168897   7.781   4.747   5.654
22355SOL    HW268898   7.917   4.696   5.612
22356SOL     OW68899   6.697   0.808  13.775
22356SOL    HW168900   6.636   0.874  13.807
22356SOL    HW268901   6.779   0.856  13.762
22357SOL     OW68902   2.155  13.784  10.751
22357SOL    HW168903   2.065  13.794  10.720
22357SOL    HW268904   2.156  13.828  10.836
22358SOL     OW68905   2.041   3.766  14.053
22358SOL    HW168906   1.996   3.783  13.971
22358SOL    HW268907   2.114   3.708  14.029
22359SOL     OW68908   2.520   8.861   2.358
22359SOL    HW168909   2.593   8.832   2.304
22359SOL    HW268910   2.462   8.785   2.365
22360SOL     OW68911   9.201   2.105   5.781
22360SOL    HW168912   9.107   2.091   5.771
22360SOL    HW268913   9.232   2.026   5.826
22361SOL     OW68914  10.632   5.877  12.924
22361SOL    HW168915  10.723   5.893  12.949
22361SOL    HW268916  10.609   5.952  12.869
22362SOL     OW68917   7.504   3.259   2.193
22362SOL    HW168918   7.422   3.263   2.144
22362SOL    HW268919   7.478   3.277   2.284
22363SOL     OW68920   6.157  13.523   9.254
22363SOL    HW168921   6.215  13.582   9.205
22363SOL    HW268922   6.148  13.446   9.198
22364SOL     OW68923   2.480   0.047   1.037
22364SOL    HW168924   2.554   0.034   0.978
22364SOL    HW268925   2.443  14.835   1.049
22365SOL     OW68926   8.717   8.838   0.507
22365SOL    HW168927   8.733   8.803   0.420
22365SOL    HW268928   8.715   8.761   0.564
22366SOL     OW68929   2.696   3.940   5.718
22366SOL    HW168930   2.629   3.931   5.649
22366SOL    HW268931   2.651   3.987   5.788
22367SOL     OW68932   0.897   8.173   3.531
22367SOL    HW168933   0.949   8.146   3.608
22367SOL    HW268934   0.810   8.136   3.547
22368SOL     OW68935   5.765   5.100   6.711
22368SOL    HW168936   5.701   5.145   6.655
22368SOL    HW268937   5.778   5.160   6.785
22369SOL     OW68938   5.944  11.658   8.977
22369SOL    HW168939   6.019  11.683   8.924
22369SOL    HW268940   5.939  11.725   9.046
22370SOL     OW68941  10.963   8.137   0.064
22370SOL    HW168942  10.941   8.189  14.862
22370SOL    HW268943  10.904   8.170   0.132
22371SOL     OW68944   3.024  14.084  11.110
22371SOL    HW168945   3.046  14.015  11.173
22371SOL    HW268946   2.944  14.054  11.068
22372SOL     OW68947   2.401   1.927   9.764
22372SOL    HW168948   2.478   1.870   9.776
22372SOL    HW268949   2.343   1.876   9.707
22373SOL     OW68950   7.069  13.947  11.884
22373SOL    HW168951   7.075  14.041  11.868
22373SOL    HW268952   7.157  13.922  11.912
22374SOL     OW68953   5.167   3.884  12.416
22374SOL    HW168954   5.205   3.839  12.341
22374SOL    HW268955   5.177   3.977  12.397
22375SOL     OW68956  12.506   0.112   5.606
22375SOL    HW168957  12.520   0.202   5.634
22375SOL    HW268958  12.412   0.106   5.589
22376SOL     OW68959  10.821  10.422   8.474
22376SOL    HW168960  10.842  10.457   8.560
22376SOL    HW268961  10.895  10.366   8.452
22377SOL     OW68962   3.202   9.421  13.248
22377SOL    HW168963   3.226   9.409  13.156
22377SOL    HW268964   3.122   9.474  13.244
22378SOL     OW68965   8.508   5.472  13.990
22378SOL    HW168966   8.576   5.500  14.052
22378SOL    HW268967   8.470   5.394  14.029
22379SOL     OW68968  11.690  12.178  13.023
22379SOL    HW168969  11.626  12.189  12.952
22379SOL    HW268970  11.764  12.234  12.997
22380SOL     OW68971  11.957   9.303   7.519
22380SOL    HW168972  11.957   9.226   7.576
22380SOL    HW268973  11.914   9.371   7.570
22381SOL     OW68974   7.563   9.334   4.521
22381SOL    HW168975   7.647   9.289   4.517
22381SOL    HW268976   7.579   9.411   4.575
22382SOL     OW68977   0.426  10.077  11.532
22382SOL    HW168978   0.514  10.065  11.497
22382SOL    HW268979   0.397   9.988  11.553
22383SOL     OW68980   2.433   4.537  11.654
22383SOL    HW168981   2.410   4.557  11.563
22383SOL    HW268982   2.356   4.563  11.704
22384SOL     OW68983   6.866   4.560   6.595
22384SOL    HW168984   6.950   4.577   6.552
22384SOL    HW268985   6.835   4.647   6.622
22385SOL     OW68986   7.963  14.571  12.238
22385SOL    HW168987   8.003  14.657  12.251
22385SOL    HW268988   8.034  14.509  12.252
22386SOL     OW68989   7.110   2.476   8.339
22386SOL    HW168990   7.019   2.468   8.368
22386SOL    HW268991   7.162   2.440   8.410
22387SOL     OW68992   6.337   4.227   1.144
22387SOL    HW168993   6.246   4.229   1.173
22387SOL    HW268994   6.375   4.150   1.186
22388SOL     OW68995  14.072   2.263  10.048
22388SOL    HW168996  14.129   2.188  10.030
22388SOL    HW268997  13.983   2.228  10.037
22389SOL     OW68998   5.686   8.583   1.600
22389SOL    HW168999   5.668   8.492   1.623
22389SOL    HW269000   5.601   8.619   1.577
22390SOL     OW69001   6.721   9.550   1.579
22390SOL    HW169002   6.709   9.626   1.636
22390SOL    HW269003   6.721   9.587   1.490
22391SOL     OW69004  13.268   8.356   9.602
22391SOL    HW169005  13.307   8.434   9.642
22391SOL    HW269006  13.204   8.325   9.666
22392SOL     OW69007   6.473  11.754   7.333
22392SOL    HW169008   6.454  11.670   7.373
22392SOL    HW269009   6.539  11.734   7.266
22393SOL     OW69010  10.703   7.349   7.828
22393SOL    HW169011  10.758   7.272   7.812
22393SOL    HW269012  10.653   7.360   7.747
22394SOL     OW69013  10.063   6.373  11.930
22394SOL    HW169014   9.975   6.412  11.935
22394SOL    HW269015  10.093   6.392  11.841
22395SOL     OW69016  13.548   1.279   7.236
22395SOL    HW169017  13.614   1.334   7.192
22395SOL    HW269018  13.504   1.233   7.164
22396SOL     OW69019   9.497   4.749   3.854
22396SOL    HW169020   9.432   4.684   3.828
22396SOL    HW269021   9.470   4.776   3.941
22397SOL     OW69022   4.971   4.829  13.505
22397SOL    HW169023   4.978   4.807  13.412
22397SOL    HW269024   4.887   4.873  13.513
22398SOL     OW69025  12.512   8.105  13.527
22398SOL    HW169026  12.457   8.150  13.463
22398SOL    HW269027  12.602   8.122  13.496
22399SOL     OW69028  14.133   8.943   8.934
22399SOL    HW169029  14.199   8.922   8.868
22399SOL    HW269030  14.118   9.037   8.924
22400SOL     OW69031   1.949   2.046  10.931
22400SOL    HW169032   1.939   2.074  10.840
22400SOL    HW269033   1.974   2.126  10.978
22401SOL     OW69034   7.518   2.179  14.787
22401SOL    HW169035   7.510   2.092  14.826
22401SOL    HW269036   7.519   2.163  14.692
22402SOL     OW69037   5.717  10.512  14.699
22402SOL    HW169038   5.751  10.600  14.688
22402SOL    HW269039   5.745  10.486  14.787
22403SOL     OW69040  14.389   7.261  12.179
22403SOL    HW169041  14.334   7.330  12.215
22403SOL    HW269042  14.342   7.180  12.197
22404SOL     OW69043   5.668   8.024   2.184
22404SOL    HW169044   5.650   8.013   2.277
22404SOL    HW269045   5.715   7.944   2.159
22405SOL     OW69046   4.723  14.031   7.382
22405SOL    HW169047   4.745  14.019   7.475
22405SOL    HW269048   4.757  13.953   7.339
22406SOL     OW69049   0.571   1.085   3.473
22406SOL    HW169050   0.523   1.131   3.542
22406SOL    HW269051   0.557   1.137   3.395
22407SOL     OW69052   7.448   2.404  14.448
22407SOL    HW169053   7.416   2.493  14.464
22407SOL    HW269054   7.374   2.348  14.469
22408SOL     OW69055   7.599   7.718  10.821
22408SOL    HW169056   7.569   7.763  10.901
22408SOL    HW269057   7.582   7.625  10.839
22409SOL     OW69058  10.900   2.101   8.614
22409SOL    HW169059  10.968   2.075   8.676
22409SOL    HW269060  10.841   2.157   8.664
22410SOL     OW69061   0.443   6.809   1.159
22410SOL    HW169062   0.396   6.819   1.076
22410SOL    HW269063   0.507   6.740   1.142
22411SOL     OW69064  11.179   3.112   8.715
22411SOL    HW169065  11.274   3.120   8.712
22411SOL    HW269066  11.163   3.017   8.723
22412SOL     OW69067   2.483  10.337  13.477
22412SOL    HW169068   2.435  10.386  13.410
22412SOL    HW269069   2.512  10.257  13.433
22413SOL     OW69070   1.493   9.301   7.826
22413SOL    HW169071   1.570   9.334   7.780
22413SOL    HW269072   1.460   9.376   7.875
22414SOL     OW69073  14.077   0.916  12.673
22414SOL    HW169074  14.056   1.002  12.707
22414SOL    HW269075  14.121   0.871  12.746
22415SOL     OW69076   6.969   8.395   5.167
22415SOL    HW169077   7.025   8.464   5.131
22415SOL    HW269078   6.937   8.431   5.250
22416SOL     OW69079  13.425   7.858   8.834
22416SOL    HW169080  13.381   7.776   8.815
22416SOL    HW269081  13.392   7.919   8.769
22417SOL     OW69082   0.880   7.192   9.947
22417SOL    HW169083   0.884   7.284   9.974
22417SOL    HW269084   0.960   7.179   9.896
22418SOL     OW69085  12.440   1.643  12.882
22418SOL    HW169086  12.514   1.586  12.904
22418SOL    HW269087  12.363   1.595  12.913
22419SOL     OW69088  12.964   1.865   3.756
22419SOL    HW169089  12.927   1.915   3.829
22419SOL    HW269090  12.889   1.826   3.713
22420SOL     OW69091  11.238   0.198   1.930
22420SOL    HW169092  11.271   0.156   1.850
22420SOL    HW269093  11.265   0.289   1.923
22421SOL     OW69094  14.071   7.746   8.554
22421SOL    HW169095  14.165   7.760   8.550
22421SOL    HW269096  14.038   7.821   8.605
22422SOL     OW69097   6.233  14.412  14.561
22422SOL    HW169098   6.160  14.350  14.559
22422SOL    HW269099   6.197  14.491  14.602
22423SOL     OW69100  12.591   1.746   3.718
22423SOL    HW169101  12.509   1.713   3.682
22423SOL    HW269102  12.651   1.748   3.643
22424SOL     OW69103  12.822   8.470  11.100
22424SOL    HW169104  12.825   8.416  11.179
22424SOL    HW269105  12.906   8.515  11.098
22425SOL     OW69106   3.713  13.112   3.642
22425SOL    HW169107   3.745  13.188   3.689
22425SOL    HW269108   3.649  13.147   3.580
22426SOL     OW69109   5.084   4.502   4.464
22426SOL    HW169110   5.136   4.556   4.523
22426SOL    HW269111   5.063   4.424   4.515
22427SOL     OW69112  12.971   4.471   4.697
22427SOL    HW169113  12.989   4.410   4.626
22427SOL    HW269114  13.058   4.503   4.723
22428SOL     OW69115  14.351   9.863   0.427
22428SOL    HW169116  14.313   9.810   0.496
22428SOL    HW269117  14.385   9.940   0.472
22429SOL     OW69118   2.479  12.440  10.040
22429SOL    HW169119   2.439  12.510   9.988
22429SOL    HW269120   2.472  12.362   9.984
22430SOL     OW69121  13.726   1.791   7.951
22430SOL    HW169122  13.806   1.842   7.966
22430SOL    HW269123  13.658   1.838   7.999
22431SOL     OW69124   8.393   6.142   9.412
22431SOL    HW169125   8.381   6.235   9.396
22431SOL    HW269126   8.428   6.108   9.330
22432SOL     OW69127   5.437  13.046  13.208
22432SOL    HW169128   5.352  13.041  13.253
22432SOL    HW269129   5.435  12.974  13.145
22433SOL     OW69130   1.050   1.858   5.730
22433SOL    HW169131   1.128   1.812   5.762
22433SOL    HW269132   1.085   1.935   5.685
22434SOL     OW69133   0.741   7.054  10.613
22434SOL    HW169134   0.661   7.074  10.662
22434SOL    HW269135   0.719   7.072  10.522
22435SOL     OW69136  13.723   5.959   6.864
22435SOL    HW169137  13.788   5.893   6.839
22435SOL    HW269138  13.768   6.015   6.927
22436SOL     OW69139  14.439   6.303   7.726
22436SOL    HW169140  14.425   6.243   7.799
22436SOL    HW269141  14.525   6.278   7.690
22437SOL     OW69142  10.201   3.414   1.287
22437SOL    HW169143  10.290   3.385   1.305
22437SOL    HW269144  10.211   3.485   1.224
22438SOL     OW69145  11.321   5.974   7.345
22438SOL    HW169146  11.260   5.964   7.272
22438SOL    HW269147  11.274   6.029   7.408
22439SOL     OW69148   3.548   8.713  11.215
22439SOL    HW169149   3.579   8.628  11.186
22439SOL    HW269150   3.622   8.751  11.263
22440SOL     OW69151   8.256   7.847   1.178
22440SOL    HW169152   8.207   7.766   1.162
22440SOL    HW269153   8.189   7.911   1.202
22441SOL     OW69154   2.412  12.329   5.605
22441SOL    HW169155   2.503  12.339   5.631
22441SOL    HW269156   2.379  12.418   5.594
22442SOL     OW69157   2.384   9.085   1.508
22442SOL    HW169158   2.476   9.071   1.532
22442SOL    HW269159   2.363   9.011   1.452
22443SOL     OW69160  11.309   4.756   5.990
22443SOL    HW169161  11.362   4.835   6.001
22443SOL    HW269162  11.308   4.715   6.076
22444SOL     OW69163   4.428  12.068  12.603
22444SOL    HW169164   4.495  12.128  12.636
22444SOL    HW269165   4.469  11.982  12.605
22445SOL     OW69166   9.518  10.190   1.208
22445SOL    HW169167   9.520  10.133   1.131
22445SOL    HW269168   9.575  10.263   1.185
22446SOL     OW69169   9.885   1.729  14.627
22446SOL    HW169170   9.960   1.721  14.569
22446SOL    HW269171   9.817   1.675  14.585
22447SOL     OW69172   2.947   1.915   4.562
22447SOL    HW169173   2.937   2.010   4.553
22447SOL    HW269174   3.032   1.904   4.604
22448SOL     OW69175  14.348   5.373   0.251
22448SOL    HW169176  14.395   5.407   0.176
22448SOL    HW269177  14.260   5.408   0.242
22449SOL     OW69178  13.788   7.641   9.000
22449SOL    HW169179  13.764   7.553   9.029
22449SOL    HW269180  13.750   7.648   8.912
22450SOL     OW69181   4.733   5.391   6.691
22450SOL    HW169182   4.789   5.364   6.618
22450SOL    HW269183   4.648   5.349   6.673
22451SOL     OW69184   0.219  11.703  14.308
22451SOL    HW169185   0.223  11.773  14.372
22451SOL    HW269186   0.274  11.633  14.345
22452SOL     OW69187  10.074  11.786   2.536
22452SOL    HW169188  10.065  11.712   2.476
22452SOL    HW269189  10.149  11.763   2.591
22453SOL     OW69190   5.835  10.946  13.109
22453SOL    HW169191   5.768  11.012  13.126
22453SOL    HW269192   5.846  10.900  13.193
22454SOL     OW69193  11.720   3.175   5.388
22454SOL    HW169194  11.706   3.185   5.294
22454SOL    HW269195  11.756   3.087   5.399
22455SOL     OW69196   4.799  11.548   4.007
22455SOL    HW169197   4.860  11.550   3.933
22455SOL    HW269198   4.713  11.537   3.967
22456SOL     OW69199   1.492   6.015  13.469
22456SOL    HW169200   1.466   6.106  13.484
22456SOL    HW269201   1.585   6.020  13.448
22457SOL     OW69202   4.899   8.715   8.693
22457SOL    HW169203   4.890   8.664   8.613
22457SOL    HW269204   4.973   8.773   8.677
22458SOL     OW69205  11.616   6.562   5.350
22458SOL    HW169206  11.590   6.565   5.258
22458SOL    HW269207  11.554   6.620   5.395
22459SOL     OW69208  11.149   3.448   2.552
22459SOL    HW169209  11.101   3.477   2.474
22459SOL    HW269210  11.200   3.373   2.522
22460SOL     OW69211  14.550   2.639   0.858
22460SOL    HW169212  14.586   2.563   0.813
22460SOL    HW269213  14.625   2.698   0.870
22461SOL     OW69214  14.274  14.554   7.199
22461SOL    HW169215  14.222  14.473   7.199
22461SOL    HW269216  14.294  14.569   7.106
22462SOL     OW69217   9.427   6.128   2.174
22462SOL    HW169218   9.401   6.163   2.259
22462SOL    HW269219   9.344   6.118   2.126
22463SOL     OW69220   6.345   5.774   4.683
22463SOL    HW169221   6.287   5.738   4.616
22463SOL    HW269222   6.374   5.698   4.733
22464SOL     OW69223  12.711   5.901   6.539
22464SOL    HW169224  12.762   5.945   6.471
22464SOL    HW269225  12.773   5.839   6.578
22465SOL     OW69226   2.604  11.768  13.408
22465SOL    HW169227   2.648  11.806  13.332
22465SOL    HW269228   2.660  11.694  13.433
22466SOL     OW69229  14.193  14.384   0.817
22466SOL    HW169230  14.147  14.355   0.738
22466SOL    HW269231  14.146  14.463   0.844
22467SOL     OW69232   8.877   0.758   0.960
22467SOL    HW169233   8.840   0.785   0.876
22467SOL    HW269234   8.800   0.735   1.012
22468SOL     OW69235  11.685   9.913   7.592
22468SOL    HW169236  11.659   9.968   7.519
22468SOL    HW269237  11.745   9.967   7.643
22469SOL     OW69238   9.796   8.232  13.660
22469SOL    HW169239   9.809   8.285  13.738
22469SOL    HW269240   9.882   8.194  13.642
22470SOL     OW69241   8.770   4.845   0.125
22470SOL    HW169242   8.845   4.893   0.090
22470SOL    HW269243   8.711   4.834   0.051
22471SOL     OW69244   9.234   3.064   0.891
22471SOL    HW169245   9.306   3.010   0.857
22471SOL    HW269246   9.185   3.089   0.813
22472SOL     OW69247   2.777   8.812  13.782
22472SOL    HW169248   2.699   8.760  13.802
22472SOL    HW269249   2.842   8.783  13.846
22473SOL     OW69250  11.696  10.550   1.766
22473SOL    HW169251  11.606  10.518   1.775
22473SOL    HW269252  11.741  10.518   1.844
22474SOL     OW69253  12.102   9.997  13.011
22474SOL    HW169254  12.079  10.006  12.919
22474SOL    HW269255  12.130  10.084  13.038
22475SOL     OW69256  13.597   3.513  11.208
22475SOL    HW169257  13.540   3.481  11.137
22475SOL    HW269258  13.536   3.545  11.274
22476SOL     OW69259   5.407   9.902   2.657
22476SOL    HW169260   5.394   9.817   2.700
22476SOL    HW269261   5.453   9.955   2.723
22477SOL     OW69262  11.652  13.843  10.523
22477SOL    HW169263  11.716  13.781  10.557
22477SOL    HW269264  11.574  13.831  10.577
22478SOL     OW69265  13.403  11.551   6.668
22478SOL    HW169266  13.318  11.520   6.635
22478SOL    HW269267  13.407  11.518   6.758
22479SOL     OW69268  14.571  10.742  12.188
22479SOL    HW169269  14.652  10.764  12.234
22479SOL    HW269270  14.502  10.780  12.242
22480SOL     OW69271  11.038   5.610  14.132
22480SOL    HW169272  11.130   5.634  14.122
22480SOL    HW269273  11.034   5.562  14.214
22481SOL     OW69274  10.535  10.655   7.412
22481SOL    HW169275  10.442  10.658   7.437
22481SOL    HW269276  10.552  10.741   7.375
22482SOL     OW69277   9.207  10.595  10.992
22482SOL    HW169278   9.206  10.688  10.969
22482SOL    HW269279   9.161  10.551  10.921
22483SOL     OW69280   9.040   6.478   5.210
22483SOL    HW169281   8.954   6.439   5.198
22483SOL    HW269282   9.028   6.539   5.283
22484SOL     OW69283   9.451   5.490   8.445
22484SOL    HW169284   9.546   5.497   8.459
22484SOL    HW269285   9.433   5.552   8.374
22485SOL     OW69286   5.440  10.104   3.891
22485SOL    HW169287   5.531  10.119   3.865
22485SOL    HW269288   5.446  10.043   3.965
22486SOL     OW69289  10.889   3.594   3.515
22486SOL    HW169290  10.843   3.659   3.462
22486SOL    HW269291  10.828   3.573   3.586
22487SOL     OW69292   4.910   2.370   6.103
22487SOL    HW169293   4.855   2.296   6.127
22487SOL    HW269294   4.865   2.447   6.139
22488SOL     OW69295   1.155   6.222  14.441
22488SOL    HW169296   1.104   6.259  14.369
22488SOL    HW269297   1.213   6.158  14.399
22489SOL     OW69298  12.470   8.172   5.476
22489SOL    HW169299  12.536   8.158   5.543
22489SOL    HW269300  12.449   8.266   5.481
22490SOL     OW69301   0.302   7.233   2.309
22490SOL    HW169302   0.350   7.280   2.241
22490SOL    HW269303   0.361   7.234   2.384
22491SOL     OW69304   2.211   7.622   2.626
22491SOL    HW169305   2.256   7.551   2.582
22491SOL    HW269306   2.125   7.626   2.585
22492SOL     OW69307   3.032  10.027  10.519
22492SOL    HW169308   3.102   9.971  10.551
22492SOL    HW269309   3.020  10.092  10.589
22493SOL     OW69310  14.740   0.323   8.059
22493SOL    HW169311  14.718   0.403   8.106
22493SOL    HW269312  14.706   0.338   7.970
22494SOL     OW69313   8.567   1.825  12.000
22494SOL    HW169314   8.566   1.916  11.971
22494SOL    HW269315   8.567   1.831  12.096
22495SOL     OW69316   9.842  11.240   3.465
22495SOL    HW169317   9.882  11.279   3.543
22495SOL    HW269318   9.911  11.187   3.427
22496SOL     OW69319  12.796   9.993   0.795
22496SOL    HW169320  12.861   9.939   0.841
22496SOL    HW269321  12.777  10.064   0.857
22497SOL     OW69322   5.065   0.172  12.400
22497SOL    HW169323   5.156   0.151  12.382
22497SOL    HW269324   5.019   0.153  12.318
22498SOL     OW69325   2.161  14.674   7.361
22498SOL    HW169326   2.125  14.763   7.359
22498SOL    HW269327   2.227  14.677   7.430
22499SOL     OW69328  14.450   1.250   5.910
22499SOL    HW169329  14.509   1.231   5.983
22499SOL    HW269330  14.508   1.257   5.834
22500SOL     OW69331   9.308   4.108   4.458
22500SOL    HW169332   9.297   4.023   4.415
22500SOL    HW269333   9.279   4.172   4.393
22501SOL     OW69334  10.258  12.776   1.335
22501SOL    HW169335  10.277  12.852   1.280
22501SOL    HW269336  10.212  12.715   1.278
22502SOL     OW69337   3.403   4.786  10.846
22502SOL    HW169338   3.429   4.774  10.938
22502SOL    HW269339   3.311   4.758  10.844
22503SOL     OW69340  12.387   4.540  12.697
22503SOL    HW169341  12.410   4.612  12.638
22503SOL    HW269342  12.445   4.552  12.772
22504SOL     OW69343   6.856  13.949   8.641
22504SOL    HW169344   6.819  13.998   8.568
22504SOL    HW269345   6.850  13.857   8.613
22505SOL     OW69346   5.791   1.712   6.840
22505SOL    HW169347   5.883   1.688   6.848
22505SOL    HW269348   5.751   1.682   6.922
22506SOL     OW69349   4.384   1.344   2.021
22506SOL    HW169350   4.415   1.368   1.934
22506SOL    HW269351   4.354   1.253   2.012
22507SOL     OW69352   3.995   0.878   7.242
22507SOL    HW169353   4.051   0.939   7.195
22507SOL    HW269354   4.051   0.802   7.259
22508SOL     OW69355   1.299  14.415   2.663
22508SOL    HW169356   1.334  14.466   2.591
22508SOL    HW269357   1.272  14.332   2.623
22509SOL     OW69358  10.019  13.043  12.026
22509SOL    HW169359  10.072  13.110  12.069
22509SOL    HW269360  10.065  13.027  11.943
22510SOL     OW69361  12.567   7.493   1.457
22510SOL    HW169362  12.498   7.559   1.463
22510SOL    HW269363  12.579   7.480   1.362
22511SOL     OW69364  10.194   0.333  12.481
22511SOL    HW169365  10.114   0.328  12.533
22511SOL    HW269366  10.199   0.248  12.436
22512SOL     OW69367   5.294   2.792  10.492
22512SOL    HW169368   5.216   2.802  10.547
22512SOL    HW269369   5.308   2.698  10.487
22513SOL     OW69370   3.015  12.252   2.742
22513SOL    HW169371   3.110  12.261   2.753
22513SOL    HW269372   3.004  12.177   2.684
22514SOL     OW69373   7.401   7.063   4.512
22514SOL    HW169374   7.331   7.094   4.455
22514SOL    HW269375   7.480   7.102   4.476
22515SOL     OW69376   1.861   4.931   3.054
22515SOL    HW169377   1.897   4.970   2.974
22515SOL    HW269378   1.767   4.931   3.041
22516SOL     OW69379   5.811   7.317  12.705
22516SOL    HW169380   5.824   7.388  12.642
22516SOL    HW269381   5.716   7.316  12.721
22517SOL     OW69382   2.690   5.956   3.495
22517SOL    HW169383   2.647   6.025   3.445
22517SOL    HW269384   2.709   5.888   3.431
22518SOL     OW69385   2.220  12.274   0.859
22518SOL    HW169386   2.243  12.262   0.951
22518SOL    HW269387   2.155  12.206   0.841
22519SOL     OW69388   5.715   6.015  11.899
22519SOL    HW169389   5.676   6.019  11.987
22519SOL    HW269390   5.661   5.951  11.853
22520SOL     OW69391   9.370   7.215  14.865
22520SOL    HW169392   9.432   7.251  14.802
22520SOL    HW269393   9.395   7.122  14.872
22521SOL     OW69394   4.226   4.685   8.648
22521SOL    HW169395   4.310   4.691   8.693
22521SOL    HW269396   4.217   4.591   8.629
22522SOL     OW69397   3.567   1.903  13.144
22522SOL    HW169398   3.593   1.963  13.074
22522SOL    HW269399   3.476   1.882  13.124
22523SOL     OW69400   1.398   9.552   5.055
22523SOL    HW169401   1.432   9.619   5.116
22523SOL    HW269402   1.331   9.598   5.005
22524SOL     OW69403   6.669  13.287  11.410
22524SOL    HW169404   6.742  13.331  11.366
22524SOL    HW269405   6.599  13.353  11.414
22525SOL     OW69406  11.438  11.813   8.204
22525SOL    HW169407  11.456  11.779   8.292
22525SOL    HW269408  11.491  11.758   8.146
22526SOL     OW69409   8.657  14.406   3.881
22526SOL    HW169410   8.748  14.397   3.910
22526SOL    HW269411   8.606  14.414   3.962
22527SOL     OW69412   0.383  11.338  10.272
22527SOL    HW169413   0.300  11.362  10.313
22527SOL    HW269414   0.425  11.279  10.335
22528SOL     OW69415   0.583   6.714   2.787
22528SOL    HW169416   0.509   6.664   2.820
22528SOL    HW269417   0.656   6.653   2.787
22529SOL     OW69418   3.238  14.115   3.989
22529SOL    HW169419   3.169  14.110   4.055
22529SOL    HW269420   3.315  14.146   4.036
22530SOL     OW69421   5.692   9.067  11.971
22530SOL    HW169422   5.732   9.126  12.034
22530SOL    HW269423   5.645   9.002  12.024
22531SOL     OW69424   7.601   9.623   5.042
22531SOL    HW169425   7.668   9.690   5.027
22531SOL    HW269426   7.593   9.619   5.137
22532SOL     OW69427   9.178   5.745  13.729
22532SOL    HW169428   9.207   5.744  13.821
22532SOL    HW269429   9.083   5.734  13.734
22533SOL     OW69430   8.842  14.209  10.714
22533SOL    HW169431   8.877  14.204  10.625
22533SOL    HW269432   8.747  14.202  10.704
22534SOL     OW69433  11.705   2.811   6.934
22534SOL    HW169434  11.636   2.821   6.868
22534SOL    HW269435  11.661   2.771   7.008
22535SOL     OW69436   0.687   7.560   3.940
22535SOL    HW169437   0.690   7.489   4.005
22535SOL    HW269438   0.705   7.639   3.991
22536SOL     OW69439   3.469  12.636   9.816
22536SOL    HW169440   3.420  12.654   9.736
22536SOL    HW269441   3.408  12.587   9.871
22537SOL     OW69442  12.506  11.755  13.442
22537SOL    HW169443  12.514  11.819  13.512
22537SOL    HW269444  12.557  11.680  13.472
22538SOL     OW69445   8.933   4.177   2.250
22538SOL    HW169446   8.987   4.224   2.187
22538SOL    HW269447   8.965   4.205   2.336
22539SOL     OW69448   4.474   0.373  11.813
22539SOL    HW169449   4.430   0.454  11.841
22539SOL    HW269450   4.546   0.362  11.876
22540SOL     OW69451   8.291   7.736   5.603
22540SOL    HW169452   8.366   7.771   5.557
22540SOL    HW269453   8.260   7.808   5.658
22541SOL     OW69454  11.797   1.004   2.503
22541SOL    HW169455  11.756   0.975   2.422
22541SOL    HW269456  11.834   1.090   2.483
22542SOL     OW69457   7.538   8.956  14.004
22542SOL    HW169458   7.458   8.938  14.054
22542SOL    HW269459   7.608   8.957  14.069
22543SOL     OW69460   3.871   6.314   2.193
22543SOL    HW169461   3.817   6.299   2.116
22543SOL    HW269462   3.959   6.289   2.165
22544SOL     OW69463   4.055   5.730  11.065
22544SOL    HW169464   4.078   5.650  11.017
22544SOL    HW269465   3.960   5.726  11.074
22545SOL     OW69466  14.702   6.580   4.157
22545SOL    HW169467  14.666   6.555   4.072
22545SOL    HW269468  14.776   6.522   4.171
22546SOL     OW69469   3.157   9.261   1.740
22546SOL    HW169470   3.208   9.290   1.816
22546SOL    HW269471   3.223   9.231   1.677
22547SOL     OW69472   1.052  10.182   6.684
22547SOL    HW169473   1.027  10.109   6.741
22547SOL    HW269474   1.148  10.182   6.684
22548SOL     OW69475   3.060   9.188   4.233
22548SOL    HW169476   2.974   9.170   4.194
22548SOL    HW269477   3.046   9.174   4.327
22549SOL     OW69478   4.708   2.819   8.159
22549SOL    HW169479   4.755   2.739   8.135
22549SOL    HW269480   4.642   2.829   8.090
22550SOL     OW69481   1.702   1.705  10.359
22550SOL    HW169482   1.726   1.677  10.447
22550SOL    HW269483   1.653   1.631  10.323
22551SOL     OW69484   2.792  12.621   9.779
22551SOL    HW169485   2.778  12.618   9.874
22551SOL    HW269486   2.710  12.589   9.742
22552SOL     OW69487   0.785  11.550   9.994
22552SOL    HW169488   0.831  11.621  10.039
22552SOL    HW269489   0.741  11.502  10.065
22553SOL     OW69490   1.161   6.112  12.396
22553SOL    HW169491   1.121   6.060  12.466
22553SOL    HW269492   1.109   6.192  12.392
22554SOL     OW69493   4.560   3.352   1.018
22554SOL    HW169494   4.547   3.447   1.024
22554SOL    HW269495   4.622   3.332   1.088
22555SOL     OW69496   9.125   4.305   2.116
22555SOL    HW169497   9.187   4.242   2.080
22555SOL    HW269498   9.086   4.347   2.039
22556SOL     OW69499   5.982  13.520  12.041
22556SOL    HW169500   6.057  13.573  12.014
22556SOL    HW269501   6.020  13.447  12.089
22557SOL     OW69502  14.510   5.985  10.199
22557SOL    HW169503  14.605   5.984  10.187
22557SOL    HW269504  14.486   5.893  10.209
22558SOL     OW69505  10.178  13.263  10.570
22558SOL    HW169506  10.223  13.298  10.493
22558SOL    HW269507  10.134  13.184  10.538
22559SOL     OW69508   1.221  14.162  11.409
22559SOL    HW169509   1.132  14.130  11.398
22559SOL    HW269510   1.229  14.234  11.347
22560SOL     OW69511  11.467   4.935  10.432
22560SOL    HW169512  11.421   4.961  10.352
22560SOL    HW269513  11.543   4.886  10.399
22561SOL     OW69514  10.847   9.831  11.076
22561SOL    HW169515  10.893   9.866  11.152
22561SOL    HW269516  10.913   9.829  11.006
22562SOL     OW69517   9.378   2.796  11.586
22562SOL    HW169518   9.425   2.774  11.506
22562SOL    HW269519   9.300   2.844  11.557
22563SOL     OW69520   6.836   9.250   8.132
22563SOL    HW169521   6.774   9.311   8.171
22563SOL    HW269522   6.896   9.227   8.202
22564SOL     OW69523  11.000   8.743   6.255
22564SOL    HW169524  10.993   8.791   6.173
22564SOL    HW269525  10.944   8.790   6.316
22565SOL     OW69526   8.527   9.845   7.772
22565SOL    HW169527   8.575   9.825   7.692
22565SOL    HW269528   8.454   9.782   7.773
22566SOL     OW69529   0.061   5.167   5.331
22566SOL    HW169530   0.128   5.208   5.276
22566SOL    HW269531   0.018   5.104   5.274
22567SOL     OW69532   3.155  11.208   9.799
22567SOL    HW169533   3.064  11.223   9.772
22567SOL    HW269534   3.206  11.228   9.721
22568SOL     OW69535   1.316   3.090   7.513
22568SOL    HW169536   1.288   3.098   7.604
22568SOL    HW269537   1.405   3.126   7.511
22569SOL     OW69538   7.864   8.724   2.559
22569SOL    HW169539   7.871   8.749   2.651
22569SOL    HW269540   7.839   8.805   2.514
22570SOL     OW69541   4.720   3.061   3.179
22570SOL    HW169542   4.670   3.021   3.109
22570SOL    HW269543   4.810   3.063   3.146
22571SOL     OW69544   6.942  12.923   0.144
22571SOL    HW169545   6.894  12.896   0.223
22571SOL    HW269546   6.905  12.870   0.074
22572SOL     OW69547  12.527  14.318   6.575
22572SOL    HW169548  12.558  14.364   6.653
22572SOL    HW269549  12.469  14.250   6.609
22573SOL     OW69550   9.297   7.979   1.139
22573SOL    HW169551   9.259   7.905   1.185
22573SOL    HW269552   9.344   7.939   1.065
22574SOL     OW69553   8.656   5.040   7.450
22574SOL    HW169554   8.704   4.996   7.519
22574SOL    HW269555   8.722   5.088   7.400
22575SOL     OW69556   2.748  11.542   6.486
22575SOL    HW169557   2.706  11.511   6.567
22575SOL    HW269558   2.726  11.635   6.481
22576SOL     OW69559   0.558   3.186   5.029
22576SOL    HW169560   0.584   3.172   5.120
22576SOL    HW269561   0.466   3.161   5.026
22577SOL     OW69562   3.959   3.282   6.472
22577SOL    HW169563   4.020   3.355   6.465
22577SOL    HW269564   4.014   3.207   6.495
22578SOL     OW69565   8.149   8.266  13.795
22578SOL    HW169566   8.059   8.289  13.819
22578SOL    HW269567   8.190   8.241  13.878
22579SOL     OW69568   2.138  13.397   8.273
22579SOL    HW169569   2.120  13.421   8.182
22579SOL    HW269570   2.168  13.478   8.314
22580SOL     OW69571   0.105  10.600   3.901
22580SOL    HW169572   0.122  10.517   3.946
22580SOL    HW269573   0.166  10.600   3.828
22581SOL     OW69574  11.149   7.952  14.822
22581SOL    HW169575  11.157   7.981  14.731
22581SOL    HW269576  11.088   8.013  14.862
22582SOL     OW69577   7.102   2.026  11.862
22582SOL    HW169578   7.152   2.108  11.858
22582SOL    HW269579   7.060   2.020  11.776
22583SOL     OW69580  11.910   1.978   0.409
22583SOL    HW169581  11.891   1.886   0.427
22583SOL    HW269582  11.888   2.024   0.490
22584SOL     OW69583  12.109  10.899   9.654
22584SOL    HW169584  12.091  10.805   9.648
22584SOL    HW269585  12.055  10.929   9.727
22585SOL     OW69586  11.666   7.615   4.035
22585SOL    HW169587  11.617   7.645   3.959
22585SOL    HW269588  11.693   7.526   4.013
22586SOL     OW69589  14.271  13.996   2.012
22586SOL    HW169590  14.239  14.080   2.042
22586SOL    HW269591  14.293  14.010   1.920
22587SOL     OW69592   6.268   2.995  10.644
22587SOL    HW169593   6.189   3.047  10.634
22587SOL    HW269594   6.335   3.044  10.595
22588SOL     OW69595  13.834   9.571  14.758
22588SOL    HW169596  13.768   9.631  14.724
22588SOL    HW269597  13.795   9.484  14.748
22589SOL     OW69598  11.739   5.625  13.815
22589SOL    HW169599  11.727   5.561  13.884
22589SOL    HW269600  11.678   5.598  13.746
22590SOL     OW69601   6.504   6.238   0.216
22590SOL    HW169602   6.457   6.319   0.197
22590SOL    HW269603   6.497   6.187   0.135
22591SOL     OW69604   9.196   9.468  14.540
22591SOL    HW169605   9.286   9.492  14.515
22591SOL    HW269606   9.164   9.543  14.591
22592SOL     OW69607  14.070  14.046  10.029
22592SOL    HW169608  14.053  14.050   9.934
22592SOL    HW269609  14.161  14.018  10.035
22593SOL     OW69610  13.066  10.077   4.585
22593SOL    HW169611  13.005  10.053   4.655
22593SOL    HW269612  13.024  10.150   4.540
22594SOL     OW69613   3.939   2.900  13.369
22594SOL    HW169614   3.953   2.859  13.284
22594SOL    HW269615   3.897   2.984  13.349
22595SOL     OW69616   0.893   1.857   2.837
22595SOL    HW169617   0.962   1.846   2.771
22595SOL    HW269618   0.939   1.849   2.921
22596SOL     OW69619   9.808   1.988   8.253
22596SOL    HW169620   9.745   1.936   8.304
22596SOL    HW269621   9.840   2.054   8.315
22597SOL     OW69622   5.970   2.308   9.134
22597SOL    HW169623   6.023   2.240   9.092
22597SOL    HW269624   6.000   2.390   9.095
22598SOL     OW69625   4.154  11.398   2.635
22598SOL    HW169626   4.240  11.423   2.599
22598SOL    HW269627   4.096  11.396   2.559
22599SOL     OW69628  10.263   7.531  10.334
22599SOL    HW169629  10.254   7.440  10.305
22599SOL    HW269630  10.176   7.569  10.321
22600SOL     OW69631   0.942   3.938   9.625
22600SOL    HW169632   0.912   4.001   9.560
22600SOL    HW269633   0.911   3.972   9.709
22601SOL     OW69634   1.494  10.402   7.571
22601SOL    HW169635   1.416  10.421   7.519
22601SOL    HW269636   1.504  10.307   7.565
22602SOL     OW69637   9.048   8.840  14.075
22602SOL    HW169638   9.120   8.881  14.122
22602SOL    HW269639   9.076   8.750  14.061
22603SOL     OW69640   5.411   0.256   8.641
22603SOL    HW169641   5.481   0.321   8.642
22603SOL    HW269642   5.347   0.290   8.579
22604SOL     OW69643   8.722   3.778   7.499
22604SOL    HW169644   8.772   3.697   7.504
22604SOL    HW269645   8.635   3.751   7.470
22605SOL     OW69646   9.752   9.846   4.333
22605SOL    HW169647   9.717   9.768   4.290
22605SOL    HW269648   9.686   9.914   4.318
22606SOL     OW69649   6.831   3.138   3.673
22606SOL    HW169650   6.790   3.054   3.693
22606SOL    HW269651   6.878   3.123   3.591
22607SOL     OW69652   0.142   3.182   1.333
22607SOL    HW169653   0.209   3.126   1.373
22607SOL    HW269654   0.114   3.239   1.405
22608SOL     OW69655   2.045   7.004   2.249
22608SOL    HW169656   2.017   6.917   2.276
22608SOL    HW269657   1.999   7.064   2.309
22609SOL     OW69658   0.138   7.238  13.529
22609SOL    HW169659   0.121   7.161  13.474
22609SOL    HW269660   0.233   7.250  13.523
22610SOL     OW69661   8.884  11.208   5.158
22610SOL    HW169662   8.856  11.152   5.086
22610SOL    HW269663   8.811  11.207   5.219
22611SOL     OW69664   9.741  14.062  13.550
22611SOL    HW169665   9.696  14.143  13.525
22611SOL    HW269666   9.833  14.086  13.554
22612SOL     OW69667  11.942   2.454   5.685
22612SOL    HW169668  11.868   2.456   5.746
22612SOL    HW269669  12.019   2.453   5.742
22613SOL     OW69670   8.454   6.451   7.575
22613SOL    HW169671   8.370   6.497   7.577
22613SOL    HW269672   8.512   6.506   7.629
22614SOL     OW69673   7.353   6.318  13.297
22614SOL    HW169674   7.435   6.319  13.346
22614SOL    HW269675   7.286   6.340  13.362
22615SOL     OW69676   0.042   0.906   6.769
22615SOL    HW169677   0.048   0.866   6.682
22615SOL    HW269678   0.106   0.858   6.821
22616SOL     OW69679  10.452   0.742  12.543
22616SOL    HW169680  10.361   0.721  12.520
22616SOL    HW269681  10.476   0.810  12.480
22617SOL     OW69682  10.242  11.379   4.745
22617SOL    HW169683  10.224  11.300   4.694
22617SOL    HW269684  10.331  11.404   4.721
22618SOL     OW69685   6.111  10.808   0.548
22618SOL    HW169686   6.205  10.824   0.562
22618SOL    HW269687   6.094  10.844   0.461
22619SOL     OW69688   2.089  11.294   7.826
22619SOL    HW169689   2.034  11.224   7.791
22619SOL    HW269690   2.140  11.324   7.751
22620SOL     OW69691   9.465   5.825  11.779
22620SOL    HW169692   9.516   5.799  11.702
22620SOL    HW269693   9.515   5.792  11.853
22621SOL     OW69694  13.673   0.571   2.171
22621SOL    HW169695  13.768   0.585   2.173
22621SOL    HW269696  13.663   0.478   2.149
22622SOL     OW69697  11.691  11.608   1.736
22622SOL    HW169698  11.779  11.645   1.723
22622SOL    HW269699  11.704  11.538   1.800
22623SOL     OW69700  11.332   0.875   3.510
22623SOL    HW169701  11.336   0.783   3.484
22623SOL    HW269702  11.409   0.888   3.565
22624SOL     OW69703   3.042   6.609   2.860
22624SOL    HW169704   3.050   6.672   2.789
22624SOL    HW269705   2.964   6.558   2.838
22625SOL     OW69706   2.063  14.434   3.655
22625SOL    HW169707   2.097  14.345   3.660
22625SOL    HW269708   1.982  14.432   3.705
22626SOL     OW69709   9.143  10.784  12.535
22626SOL    HW169710   9.137  10.719  12.605
22626SOL    HW269711   9.226  10.829  12.550
22627SOL     OW69712   4.425   2.595  13.921
22627SOL    HW169713   4.487   2.657  13.882
22627SOL    HW269714   4.341   2.641  13.921
22628SOL     OW69715   0.034  12.476   8.513
22628SOL    HW169716   0.110  12.427   8.544
22628SOL    HW269717   0.003  12.524   8.590
22629SOL     OW69718   8.410   0.850  12.422
22629SOL    HW169719   8.489   0.902  12.431
22629SOL    HW269720   8.370   0.880  12.340
22630SOL     OW69721  10.236  10.390   7.857
22630SOL    HW169722  10.177  10.346   7.795
22630SOL    HW269723  10.236  10.334   7.934
22631SOL     OW69724  14.460   1.147  12.184
22631SOL    HW169725  14.478   1.059  12.217
22631SOL    HW269726  14.466   1.204  12.261
22632SOL     OW69727   8.231   4.421   7.920
22632SOL    HW169728   8.230   4.325   7.920
22632SOL    HW269729   8.235   4.445   8.012
22633SOL     OW69730  11.139   3.333   0.979
22633SOL    HW169731  11.080   3.337   1.055
22633SOL    HW269732  11.098   3.388   0.913
22634SOL     OW69733   6.490   1.793   3.015
22634SOL    HW169734   6.422   1.739   2.974
22634SOL    HW269735   6.558   1.801   2.948
22635SOL     OW69736   0.977   4.406   5.936
22635SOL    HW169737   0.899   4.461   5.947
22635SOL    HW269738   1.013   4.433   5.851
22636SOL     OW69739   3.386   3.260  11.440
22636SOL    HW169740   3.469   3.212  11.440
22636SOL    HW269741   3.403   3.336  11.385
22637SOL     OW69742  14.746  11.301   7.591
22637SOL    HW169743  14.660  11.337   7.617
22637SOL    HW269744  14.746  11.212   7.625
22638SOL     OW69745  10.269  13.501   3.150
22638SOL    HW169746  10.204  13.531   3.213
22638SOL    HW269747  10.344  13.474   3.204
22639SOL     OW69748   7.166   7.394  10.866
22639SOL    HW169749   7.171   7.485  10.894
22639SOL    HW269750   7.073   7.372  10.872
22640SOL     OW69751   2.595   7.420  10.310
22640SOL    HW169752   2.676   7.457  10.276
22640SOL    HW269753   2.548   7.389  10.232
22641SOL     OW69754   8.595   0.690   1.805
22641SOL    HW169755   8.598   0.598   1.830
22641SOL    HW269756   8.514   0.699   1.755
22642SOL     OW69757   0.543  13.936  14.783
22642SOL    HW169758   0.516  14.012  14.835
22642SOL    HW269759   0.463  13.885  14.772
22643SOL     OW69760   3.571   4.127   7.797
22643SOL    HW169761   3.602   4.197   7.853
22643SOL    HW269762   3.609   4.146   7.711
22644SOL     OW69763   8.385   8.335  12.242
22644SOL    HW169764   8.385   8.240  12.252
22644SOL    HW269765   8.301   8.363  12.278
22645SOL     OW69766   2.904   9.779  14.464
22645SOL    HW169767   2.980   9.722  14.449
22645SOL    HW269768   2.829   9.719  14.466
22646SOL     OW69769   5.245   2.575  13.316
22646SOL    HW169770   5.310   2.523  13.364
22646SOL    HW269771   5.261   2.554  13.224
22647SOL     OW69772  12.173   2.154  12.371
22647SOL    HW169773  12.091   2.140  12.417
22647SOL    HW269774  12.241   2.147  12.438
22648SOL     OW69775  13.614   8.216  11.600
22648SOL    HW169776  13.696   8.263  11.587
22648SOL    HW269777  13.629   8.163  11.679
22649SOL     OW69778  11.405   1.668  11.982
22649SOL    HW169779  11.439   1.697  11.897
22649SOL    HW269780  11.419   1.573  11.982
22650SOL     OW69781   6.492   0.282   5.068
22650SOL    HW169782   6.495   0.216   5.137
22650SOL    HW269783   6.514   0.234   4.987
22651SOL     OW69784   7.793  11.116   3.014
22651SOL    HW169785   7.818  11.037   3.063
22651SOL    HW269786   7.703  11.134   3.042
22652SOL     OW69787   6.416  11.499  14.204
22652SOL    HW169788   6.468  11.532  14.278
22652SOL    HW269789   6.480  11.484  14.135
22653SOL     OW69790  14.781   5.211   5.742
22653SOL    HW169791  14.718   5.240   5.676
22653SOL    HW269792  14.865   5.247   5.713
22654SOL     OW69793   2.189   3.078  13.192
22654SOL    HW169794   2.113   3.030  13.224
22654SOL    HW269795   2.208   3.040  13.106
22655SOL     OW69796   9.277   1.321  10.444
22655SOL    HW169797   9.237   1.407  10.437
22655SOL    HW269798   9.369   1.339  10.466
22656SOL     OW69799   1.510  12.163  10.806
22656SOL    HW169800   1.556  12.096  10.755
22656SOL    HW269801   1.418  12.142  10.796
22657SOL     OW69802   7.852   9.302   9.112
22657SOL    HW169803   7.867   9.266   9.200
22657SOL    HW269804   7.939   9.305   9.073
22658SOL     OW69805   0.145   4.296  11.833
22658SOL    HW169806   0.150   4.373  11.775
22658SOL    HW269807   0.227   4.249  11.818
22659SOL     OW69808  10.867   7.230   4.918
22659SOL    HW169809  10.779   7.214   4.884
22659SOL    HW269810  10.853   7.276   5.001
22660SOL     OW69811   2.805  10.942   5.852
22660SOL    HW169812   2.882  10.988   5.886
22660SOL    HW269813   2.841  10.868   5.803
22661SOL     OW69814   4.057   1.840   7.369
22661SOL    HW169815   4.090   1.790   7.294
22661SOL    HW269816   3.980   1.886   7.335
22662SOL     OW69817  13.251   5.078   8.048
22662SOL    HW169818  13.301   5.075   7.966
22662SOL    HW269819  13.232   4.986   8.067
22663SOL     OW69820  12.276  14.609   3.644
22663SOL    HW169821  12.220  14.579   3.572
22663SOL    HW269822  12.225  14.678   3.687
22664SOL     OW69823   8.168   9.493   7.540
22664SOL    HW169824   8.154   9.585   7.561
22664SOL    HW269825   8.170   9.448   7.624
22665SOL     OW69826  12.256  11.217   3.152
22665SOL    HW169827  12.341  11.262   3.159
22665SOL    HW269828  12.207  11.248   3.228
22666SOL     OW69829  11.242   1.427  11.354
22666SOL    HW169830  11.304   1.364  11.390
22666SOL    HW269831  11.229   1.491  11.424
22667SOL     OW69832   2.292  13.043   5.083
22667SOL    HW169833   2.384  13.047   5.056
22667SOL    HW269834   2.285  12.962   5.134
22668SOL     OW69835   2.107   7.854   3.688
22668SOL    HW169836   2.063   7.879   3.769
22668SOL    HW269837   2.163   7.780   3.713
22669SOL     OW69838  13.388   7.740   6.290
22669SOL    HW169839  13.423   7.659   6.327
22669SOL    HW269840  13.301   7.715   6.257
22670SOL     OW69841   6.621   7.364   3.318
22670SOL    HW169842   6.596   7.303   3.249
22670SOL    HW269843   6.660   7.438   3.271
22671SOL     OW69844   7.091  10.338   4.013
22671SOL    HW169845   7.052  10.362   3.929
22671SOL    HW269846   7.184  10.356   4.003
22672SOL     OW69847   8.612   7.840   9.598
22672SOL    HW169848   8.590   7.863   9.688
22672SOL    HW269849   8.587   7.748   9.589
22673SOL     OW69850   1.149   3.561  11.613
22673SOL    HW169851   1.226   3.536  11.562
22673SOL    HW269852   1.148   3.500  11.686
22674SOL     OW69853   0.817  10.919   9.248
22674SOL    HW169854   0.837  10.828   9.267
22674SOL    HW269855   0.727  10.918   9.216
22675SOL     OW69856   4.886   2.625  13.193
22675SOL    HW169857   4.947   2.697  13.180
22675SOL    HW269858   4.832   2.653  13.268
22676SOL     OW69859  10.711  11.070   7.085
22676SOL    HW169860  10.761  10.990   7.100
22676SOL    HW269861  10.682  11.097   7.173
22677SOL     OW69862   9.400  11.737  11.514
22677SOL    HW169863   9.312  11.763  11.539
22677SOL    HW269864   9.394  11.642  11.504
22678SOL     OW69865   9.197   4.372  12.492
22678SOL    HW169866   9.259   4.425  12.443
22678SOL    HW269867   9.121   4.365  12.435
22679SOL     OW69868  11.724   8.795   9.252
22679SOL    HW169869  11.663   8.820   9.321
22679SOL    HW269870  11.732   8.873   9.197
22680SOL     OW69871   2.368   1.484   5.109
22680SOL    HW169872   2.440   1.425   5.132
22680SOL    HW269873   2.409   1.553   5.057
22681SOL     OW69874   1.219  10.601  13.277
22681SOL    HW169875   1.239  10.678  13.330
22681SOL    HW269876   1.151  10.631  13.216
22682SOL     OW69877   1.643   9.371  12.125
22682SOL    HW169878   1.655   9.285  12.086
22682SOL    HW269879   1.580   9.415  12.069
22683SOL     OW69880  13.061  13.284   4.991
22683SOL    HW169881  13.122  13.334   4.937
22683SOL    HW269882  12.982  13.338   4.993
22684SOL     OW69883  10.826   0.155  12.815
22684SOL    HW169884  10.820   0.191  12.903
22684SOL    HW269885  10.748   0.189  12.770
22685SOL     OW69886  12.950   9.563   0.719
22685SOL    HW169887  12.988   9.643   0.683
22685SOL    HW269888  13.008   9.493   0.688
22686SOL     OW69889  10.886   3.339   6.152
22686SOL    HW169890  10.965   3.328   6.098
22686SOL    HW269891  10.840   3.256   6.145
22687SOL     OW69892   6.877   1.794   2.662
22687SOL    HW169893   6.895   1.712   2.616
22687SOL    HW269894   6.884   1.861   2.594
22688SOL     OW69895   0.813  13.120  11.985
22688SOL    HW169896   0.874  13.193  11.985
22688SOL    HW269897   0.841  13.065  11.912
22689SOL     OW69898   0.568  13.933   8.692
22689SOL    HW169899   0.535  13.863   8.749
22689SOL    HW269900   0.631  13.889   8.636
22690SOL     OW69901  14.166   3.297   8.065
22690SOL    HW169902  14.189   3.381   8.026
22690SOL    HW269903  14.119   3.320   8.145
22691SOL     OW69904  11.775  12.257   3.604
22691SOL    HW169905  11.745  12.248   3.513
22691SOL    HW269906  11.870  12.247   3.599
22692SOL     OW69907   4.729  11.403  14.197
22692SOL    HW169908   4.756  11.337  14.133
22692SOL    HW269909   4.765  11.373  14.280
22693SOL     OW69910  14.012   4.773   7.055
22693SOL    HW169911  13.953   4.727   7.114
22693SOL    HW269912  13.965   4.774   6.971
22694SOL     OW69913  13.372   8.092   3.893
22694SOL    HW169914  13.297   8.076   3.951
22694SOL    HW269915  13.356   8.178   3.855
22695SOL     OW69916   4.960  14.834   1.154
22695SOL    HW169917   4.883   0.015   1.145
22695SOL    HW269918   4.932  14.750   1.117
22696SOL     OW69919  14.720   1.611   1.731
22696SOL    HW169920  14.714   1.515   1.726
22696SOL    HW269921  14.761   1.628   1.816
22697SOL     OW69922   7.442   1.726  11.061
22697SOL    HW169923   7.420   1.776  11.139
22697SOL    HW269924   7.465   1.639  11.093
22698SOL     OW69925   2.654  11.227   3.206
22698SOL    HW169926   2.602  11.290   3.156
22698SOL    HW269927   2.624  11.142   3.174
22699SOL     OW69928   4.242   2.105   9.767
22699SOL    HW169929   4.228   2.060   9.684
22699SOL    HW269930   4.334   2.089   9.788
22700SOL     OW69931   1.463   1.017   6.871
22700SOL    HW169932   1.403   0.991   6.941
22700SOL    HW269933   1.465   1.113   6.875
22701SOL     OW69934  13.100   0.289   4.667
22701SOL    HW169935  13.133   0.378   4.655
22701SOL    HW269936  13.119   0.269   4.759
22702SOL     OW69937   6.107   0.260   1.242
22702SOL    HW169938   6.187   0.256   1.295
22702SOL    HW269939   6.113   0.184   1.184
22703SOL     OW69940   8.035   1.776  13.386
22703SOL    HW169941   7.950   1.814  13.363
22703SOL    HW269942   8.078   1.843  13.439
22704SOL     OW69943  12.847  10.800  13.989
22704SOL    HW169944  12.880  10.710  13.981
22704SOL    HW269945  12.924  10.855  13.972
22705SOL     OW69946   0.561   1.988   8.140
22705SOL    HW169947   0.488   2.021   8.192
22705SOL    HW269948   0.625   2.059   8.140
22706SOL     OW69949   9.055   3.858   1.159
22706SOL    HW169950   9.144   3.846   1.192
22706SOL    HW269951   9.064   3.850   1.064
22707SOL     OW69952   3.066   9.590  10.387
22707SOL    HW169953   2.979   9.604  10.423
22707SOL    HW269954   3.054   9.591  10.292
22708SOL     OW69955   5.792   6.994   7.542
22708SOL    HW169956   5.758   7.073   7.585
22708SOL    HW269957   5.782   7.011   7.449
22709SOL     OW69958   8.593  13.811   0.271
22709SOL    HW169959   8.632  13.724   0.273
22709SOL    HW269960   8.661  13.867   0.234
22710SOL     OW69961   9.693   9.165  14.860
22710SOL    HW169962   9.766   9.213  14.821
22710SOL    HW269963   9.724   9.075  14.866
22711SOL     OW69964   6.475  13.873   7.735
22711SOL    HW169965   6.443  13.962   7.725
22711SOL    HW269966   6.523  13.874   7.818
22712SOL     OW69967   0.439   4.566   4.410
22712SOL    HW169968   0.357   4.590   4.369
22712SOL    HW269969   0.415   4.544   4.500
22713SOL     OW69970  14.600   1.040   9.186
22713SOL    HW169971  14.559   1.045   9.100
22713SOL    HW269972  14.534   1.074   9.247
22714SOL     OW69973   7.894   7.935  14.311
22714SOL    HW169974   7.974   7.911  14.265
22714SOL    HW269975   7.906   7.902  14.400
22715SOL     OW69976   7.737   4.760  14.820
22715SOL    HW169977   7.724   4.849  14.788
22715SOL    HW269978   7.651   4.733  14.853
22716SOL     OW69979  12.167  12.312   0.452
22716SOL    HW169980  12.097  12.376   0.463
22716SOL    HW269981  12.173  12.299   0.358
22717SOL     OW69982   9.355  13.220  10.735
22717SOL    HW169983   9.321  13.239  10.822
22717SOL    HW269984   9.321  13.133  10.714
22718SOL     OW69985   3.785   0.285   6.546
22718SOL    HW169986   3.734   0.313   6.621
22718SOL    HW269987   3.720   0.263   6.479
22719SOL     OW69988  12.653   3.441  14.656
22719SOL    HW169989  12.718   3.496  14.613
22719SOL    HW269990  12.657   3.468  14.748
22720SOL     OW69991   4.117   4.041  13.157
22720SOL    HW169992   4.195   4.073  13.111
22720SOL    HW269993   4.066   3.996  13.090
22721SOL     OW69994  13.490  12.371   8.236
22721SOL    HW169995  13.514  12.296   8.290
22721SOL    HW269996  13.542  12.444   8.270
22722SOL     OW69997  13.497   2.724   4.917
22722SOL    HW169998  13.536   2.809   4.896
22722SOL    HW269999  13.535   2.700   5.001
22723SOL     OW70000   0.166   0.247  14.236
22723SOL    HW170001   0.179   0.318  14.298
22723SOL    HW270002   0.186   0.167  14.285
22724SOL     OW70003   7.923   1.844   7.326
22724SOL    HW170004   7.909   1.936   7.348
22724SOL    HW270005   7.981   1.846   7.250
22725SOL     OW70006   8.065  14.585   3.102
22725SOL    HW170007   8.100  14.635   3.175
22725SOL    HW270008   7.974  14.614   3.094
22726SOL     OW70009   7.195   2.578   2.294
22726SOL    HW170010   7.108   2.619   2.295
22726SOL    HW270011   7.247   2.632   2.354
22727SOL     OW70012   5.801  11.241   8.594
22727SOL    HW170013   5.791  11.306   8.524
22727SOL    HW270014   5.762  11.162   8.558
22728SOL     OW70015   7.439   8.716   1.597
22728SOL    HW170016   7.477   8.804   1.601
22728SOL    HW270017   7.385   8.717   1.518
22729SOL     OW70018   4.135   8.560  10.806
22729SOL    HW170019   4.101   8.488  10.751
22729SOL    HW270020   4.109   8.639  10.760
22730SOL     OW70021   9.070  14.642   7.977
22730SOL    HW170022   9.101  14.556   8.004
22730SOL    HW270023   9.107  14.655   7.889
22731SOL     OW70024  12.270   8.277  11.411
22731SOL    HW170025  12.252   8.268  11.317
22731SOL    HW270026  12.307   8.365  11.420
22732SOL     OW70027  13.910  12.088   2.115
22732SOL    HW170028  13.916  12.169   2.166
22732SOL    HW270029  13.828  12.097   2.066
22733SOL     OW70030  12.223   3.317  13.892
22733SOL    HW170031  12.181   3.394  13.854
22733SOL    HW270032  12.188   3.313  13.982
22734SOL     OW70033  14.341   6.840   4.139
22734SOL    HW170034  14.262   6.894   4.145
22734SOL    HW270035  14.411   6.898   4.168
22735SOL     OW70036  11.396   0.008  14.170
22735SOL    HW170037  11.436   0.072  14.111
22735SOL    HW270038  11.464  14.819  14.185
22736SOL     OW70039   7.872   3.183   3.279
22736SOL    HW170040   7.805   3.238   3.322
22736SOL    HW270041   7.841   3.175   3.189
22737SOL     OW70042   4.528  10.955   3.648
22737SOL    HW170043   4.600  11.017   3.664
22737SOL    HW270044   4.461  10.979   3.712
22738SOL     OW70045   1.900  11.847  12.163
22738SOL    HW170046   1.839  11.856  12.090
22738SOL    HW270047   1.880  11.762  12.201
22739SOL     OW70048  10.271  11.350   3.557
22739SOL    HW170049  10.234  11.262   3.569
22739SOL    HW270050  10.253  11.395   3.639
22740SOL     OW70051   3.358   5.996   4.992
22740SOL    HW170052   3.295   6.015   4.922
22740SOL    HW270053   3.415   6.072   4.995
22741SOL     OW70054   6.334   3.415   2.910
22741SOL    HW170055   6.268   3.480   2.931
22741SOL    HW270056   6.341   3.416   2.815
22742SOL     OW70057  13.936   9.145   7.656
22742SOL    HW170058  14.010   9.202   7.676
22742SOL    HW270059  13.882   9.147   7.735
22743SOL     OW70060  12.122  10.247   2.657
22743SOL    HW170061  12.050  10.294   2.616
22743SOL    HW270062  12.087  10.218   2.741
22744SOL     OW70063   9.267   2.998   0.565
22744SOL    HW170064   9.345   3.053   0.566
22744SOL    HW270065   9.197   3.055   0.598
22745SOL     OW70066   0.541  14.519   8.748
22745SOL    HW170067   0.606  14.575   8.790
22745SOL    HW270068   0.575  14.430   8.758
22746SOL     OW70069  10.669   2.176   0.200
22746SOL    HW170070  10.651   2.264   0.232
22746SOL    HW270071  10.600   2.122   0.238
22747SOL     OW70072   0.413   7.870  11.647
22747SOL    HW170073   0.394   7.788  11.691
22747SOL    HW270074   0.454   7.925  11.714
22748SOL     OW70075   6.712   0.674  12.514
22748SOL    HW170076   6.724   0.688  12.608
22748SOL    HW270077   6.723   0.761  12.475
22749SOL     OW70078   9.569   1.417   6.993
22749SOL    HW170079   9.548   1.511   6.995
22749SOL    HW270080   9.507   1.378   7.055
22750SOL     OW70081   9.073   1.515   8.457
22750SOL    HW170082   8.997   1.484   8.506
22750SOL    HW270083   9.143   1.517   8.521
22751SOL     OW70084  10.864   9.705   6.905
22751SOL    HW170085  10.795   9.742   6.961
22751SOL    HW270086  10.863   9.611   6.925
22752SOL     OW70087  13.521   2.958   7.263
22752SOL    HW170088  13.613   2.973   7.239
22752SOL    HW270089  13.516   2.863   7.279
22753SOL     OW70090  13.174  10.287   5.192
22753SOL    HW170091  13.101  10.227   5.177
22753SOL    HW270092  13.134  10.364   5.234
22754SOL     OW70093  11.123  14.556   9.818
22754SOL    HW170094  11.143  14.649   9.812
22754SOL    HW270095  11.127  14.536   9.911
22755SOL     OW70096   1.620   6.651   7.386
22755SOL    HW170097   1.690   6.689   7.438
22755SOL    HW270098   1.539   6.680   7.428
22756SOL     OW70099   8.454  13.202   8.540
22756SOL    HW170100   8.530  13.203   8.481
22756SOL    HW270101   8.425  13.111   8.540
22757SOL     OW70102   7.715   9.637  12.998
22757SOL    HW170103   7.688   9.726  13.022
22757SOL    HW270104   7.710   9.635  12.903
22758SOL     OW70105   4.287  11.473   6.750
22758SOL    HW170106   4.358  11.526   6.714
22758SOL    HW270107   4.230  11.536   6.795
22759SOL     OW70108  12.943  11.206   7.470
22759SOL    HW170109  12.861  11.245   7.440
22759SOL    HW270110  12.920  11.115   7.491
22760SOL     OW70111  12.125  14.375  13.763
22760SOL    HW170112  12.204  14.429  13.757
22760SOL    HW270113  12.081  14.408  13.842
22761SOL     OW70114   4.621   0.336   0.883
22761SOL    HW170115   4.620   0.247   0.919
22761SOL    HW270116   4.530   0.352   0.858
22762SOL     OW70117  10.430   0.085   2.527
22762SOL    HW170118  10.431   0.146   2.601
22762SOL    HW270119  10.523   0.069   2.508
22763SOL     OW70120   5.480  14.726   6.467
22763SOL    HW170121   5.483  14.735   6.562
22763SOL    HW270122   5.415  14.791   6.439
22764SOL     OW70123  11.771   3.245   2.051
22764SOL    HW170124  11.761   3.175   2.116
22764SOL    HW270125  11.788   3.324   2.103
22765SOL     OW70126   4.641   2.396  12.449
22765SOL    HW170127   4.641   2.476  12.502
22765SOL    HW270128   4.588   2.334  12.498
22766SOL     OW70129  13.803   3.180   0.263
22766SOL    HW170130  13.724   3.199   0.314
22766SOL    HW270131  13.830   3.093   0.292
22767SOL     OW70132   0.964  14.628  11.525
22767SOL    HW170133   1.012  14.611  11.605
22767SOL    HW270134   1.008  14.575  11.458
22768SOL     OW70135   5.930   2.626   6.500
22768SOL    HW170136   6.005   2.584   6.458
22768SOL    HW270137   5.884   2.556   6.545
22769SOL     OW70138  12.173   4.800   6.393
22769SOL    HW170139  12.120   4.729   6.429
22769SOL    HW270140  12.158   4.794   6.298
22770SOL     OW70141   8.996   5.494  12.220
22770SOL    HW170142   8.901   5.490  12.227
22770SOL    HW270143   9.017   5.440  12.144
22771SOL     OW70144   3.125   9.781   3.488
22771SOL    HW170145   3.187   9.724   3.534
22771SOL    HW270146   3.121   9.860   3.542
22772SOL     OW70147  11.971   7.017   6.872
22772SOL    HW170148  11.937   6.940   6.917
22772SOL    HW270149  11.997   7.077   6.942
22773SOL     OW70150   6.755   5.130   0.395
22773SOL    HW170151   6.789   5.181   0.468
22773SOL    HW270152   6.663   5.156   0.389
22774SOL     OW70153   7.726  12.972  11.019
22774SOL    HW170154   7.697  12.905  10.957
22774SOL    HW270155   7.764  13.040  10.964
22775SOL     OW70156   8.947   6.572  14.716
22775SOL    HW170157   8.874   6.540  14.769
22775SOL    HW270158   9.009   6.499  14.713
22776SOL     OW70159   1.492   0.100   8.008
22776SOL    HW170160   1.411   0.080   7.962
22776SOL    HW270161   1.491   0.043   8.085
22777SOL     OW70162   6.071   4.113   3.220
22777SOL    HW170163   6.030   4.198   3.206
22777SOL    HW270164   6.083   4.107   3.315
22778SOL     OW70165   4.680   8.555   3.353
22778SOL    HW170166   4.690   8.589   3.264
22778SOL    HW270167   4.724   8.620   3.408
22779SOL     OW70168   9.441   3.784  14.428
22779SOL    HW170169   9.385   3.753  14.356
22779SOL    HW270170   9.380   3.802  14.499
22780SOL     OW70171   1.796   7.597  11.807
22780SOL    HW170172   1.750   7.681  11.817
22780SOL    HW270173   1.803   7.585  11.713
22781SOL     OW70174   4.789   4.966   3.805
22781SOL    HW170175   4.862   4.919   3.847
22781SOL    HW270176   4.801   4.951   3.712
22782SOL     OW70177   1.392   3.217  10.867
22782SOL    HW170178   1.370   3.139  10.815
22782SOL    HW270179   1.307   3.254  10.890
22783SOL     OW70180   7.625   2.896   7.129
22783SOL    HW170181   7.540   2.856   7.113
22783SOL    HW270182   7.615   2.986   7.098
22784SOL     OW70183   8.851   2.308   4.460
22784SOL    HW170184   8.897   2.378   4.507
22784SOL    HW270185   8.759   2.322   4.481
22785SOL     OW70186   8.459  11.956   7.061
22785SOL    HW170187   8.399  11.930   6.991
22785SOL    HW270188   8.411  12.022   7.110
22786SOL     OW70189   4.891   7.396   0.606
22786SOL    HW170190   4.876   7.478   0.654
22786SOL    HW270191   4.946   7.421   0.532
22787SOL     OW70192   9.155   9.627   1.258
22787SOL    HW170193   9.241   9.586   1.252
22787SOL    HW270194   9.098   9.570   1.205
22788SOL     OW70195   4.073   4.628   5.179
22788SOL    HW170196   4.049   4.571   5.106
22788SOL    HW270197   3.999   4.620   5.240
22789SOL     OW70198  14.526   0.143  10.022
22789SOL    HW170199  14.482   0.068   9.983
22789SOL    HW270200  14.580   0.106  10.092
22790SOL     OW70201  11.999   3.519  11.352
22790SOL    HW170202  11.969   3.553  11.437
22790SOL    HW270203  12.090   3.496  11.367
22791SOL     OW70204   7.298   1.647   6.583
22791SOL    HW170205   7.274   1.617   6.671
22791SOL    HW270206   7.287   1.570   6.527
22792SOL     OW70207  13.914   1.960   2.038
22792SOL    HW170208  13.935   2.051   2.057
22792SOL    HW270209  13.973   1.909   2.094
22793SOL     OW70210   4.015  13.700   0.187
22793SOL    HW170211   4.009  13.736   0.275
22793SOL    HW270212   3.925  13.701   0.154
22794SOL     OW70213   4.214   3.515  14.863
22794SOL    HW170214   4.179   3.572  14.795
22794SOL    HW270215   4.271   3.571   0.039
22795SOL     OW70216   7.070   3.723   3.586
22795SOL    HW170217   7.122   3.643   3.590
22795SOL    HW270218   6.995   3.700   3.531
22796SOL     OW70219  11.516   6.731  11.500
22796SOL    HW170220  11.477   6.654  11.542
22796SOL    HW270221  11.466   6.742  11.419
22797SOL     OW70222  12.259   1.898   5.393
22797SOL    HW170223  12.320   1.937   5.331
22797SOL    HW270224  12.263   1.955   5.470
22798SOL     OW70225   1.838   4.644  11.354
22798SOL    HW170226   1.853   4.581  11.425
22798SOL    HW270227   1.925   4.658  11.316
22799SOL     OW70228  11.636   3.996   8.315
22799SOL    HW170229  11.699   4.028   8.251
22799SOL    HW270230  11.689   3.969   8.390
22800SOL     OW70231   6.082   1.859  14.841
22800SOL    HW170232   6.076   1.905   0.049
22800SOL    HW270233   6.098   1.929  14.777
22801SOL     OW70234  11.441   5.959   1.422
22801SOL    HW170235  11.502   5.932   1.490
22801SOL    HW270236  11.477   6.041   1.389
22802SOL     OW70237   8.897  12.242  14.256
22802SOL    HW170238   8.855  12.192  14.326
22802SOL    HW270239   8.961  12.181  14.218
22803SOL     OW70240   5.466   4.992   9.156
22803SOL    HW170241   5.472   4.939   9.076
22803SOL    HW270242   5.373   5.014   9.163
22804SOL     OW70243  14.552   2.837  11.984
22804SOL    HW170244  14.609   2.768  11.948
22804SOL    HW270245  14.587   2.918  11.947
22805SOL     OW70246   8.709   8.715  13.475
22805SOL    HW170247   8.690   8.809  13.471
22805SOL    HW270248   8.682   8.681  13.389
22806SOL     OW70249  10.250  13.764  11.934
22806SOL    HW170250  10.248  13.857  11.957
22806SOL    HW270251  10.163  13.746  11.898
22807SOL     OW70252   5.484  13.829   2.980
22807SOL    HW170253   5.572  13.858   2.958
22807SOL    HW270254   5.429  13.861   2.909
22808SOL     OW70255  13.928   7.158   2.370
22808SOL    HW170256  13.991   7.229   2.368
22808SOL    HW270257  13.975   7.085   2.411
22809SOL     OW70258   5.492   2.215   3.343
22809SOL    HW170259   5.422   2.155   3.317
22809SOL    HW270260   5.475   2.233   3.436
22810SOL     OW70261  13.490   1.397  11.814
22810SOL    HW170262  13.550   1.439  11.875
22810SOL    HW270263  13.546   1.343  11.758
22811SOL     OW70264   9.464   5.568  11.595
22811SOL    HW170265   9.434   5.519  11.672
22811SOL    HW270266   9.412   5.532  11.523
22812SOL     OW70267   3.475  11.748   2.075
22812SOL    HW170268   3.484  11.655   2.055
22812SOL    HW270269   3.381  11.760   2.090
22813SOL     OW70270   8.936   3.905  14.498
22813SOL    HW170271   8.936   3.866  14.585
22813SOL    HW270272   8.872   3.976  14.503
22814SOL     OW70273   3.300  11.471   1.067
22814SOL    HW170274   3.212  11.507   1.076
22814SOL    HW270275   3.345  11.531   1.009
22815SOL     OW70276   2.526   0.654   1.756
22815SOL    HW170277   2.480   0.614   1.682
22815SOL    HW270278   2.534   0.746   1.731
22816SOL     OW70279   7.531   8.330   7.501
22816SOL    HW170280   7.506   8.366   7.586
22816SOL    HW270281   7.481   8.249   7.494
22817SOL     OW70282  14.673   6.319  13.964
22817SOL    HW170283  14.719   6.261  13.903
22817SOL    HW270284  14.739   6.384  13.989
22818SOL     OW70285  12.870   1.174   1.381
22818SOL    HW170286  12.842   1.165   1.472
22818SOL    HW270287  12.951   1.225   1.386
22819SOL     OW70288  12.022   5.831   3.456
22819SOL    HW170289  12.006   5.737   3.460
22819SOL    HW270290  11.964   5.863   3.387
22820SOL     OW70291   3.668  12.955   0.206
22820SOL    HW170292   3.614  13.010   0.149
22820SOL    HW270293   3.657  12.867   0.173
22821SOL     OW70294   9.276   9.889   9.468
22821SOL    HW170295   9.225   9.808   9.469
22821SOL    HW270296   9.266   9.925   9.556
22822SOL     OW70297   5.981   8.442   4.334
22822SOL    HW170298   5.887   8.455   4.320
22822SOL    HW270299   5.999   8.484   4.418
22823SOL     OW70300  13.736  10.218  12.550
22823SOL    HW170301  13.658  10.189  12.504
22823SOL    HW270302  13.780  10.276  12.488
22824SOL     OW70303   3.748   5.627   1.241
22824SOL    HW170304   3.764   5.720   1.226
22824SOL    HW270305   3.786   5.583   1.164
22825SOL     OW70306   1.290   3.675   7.945
22825SOL    HW170307   1.372   3.663   7.992
22825SOL    HW270308   1.316   3.701   7.857
22826SOL     OW70309  13.457   2.103  12.843
22826SOL    HW170310  13.372   2.086  12.884
22826SOL    HW270311  13.480   2.019  12.801
22827SOL     OW70312   3.732   3.555   5.717
22827SOL    HW170313   3.653   3.607   5.725
22827SOL    HW270314   3.783   3.599   5.649
22828SOL     OW70315   3.026  10.329  11.304
22828SOL    HW170316   3.044  10.418  11.275
22828SOL    HW270317   2.991  10.339  11.392
22829SOL     OW70318   2.241   3.323  11.124
22829SOL    HW170319   2.155   3.365  11.123
22829SOL    HW270320   2.229   3.243  11.073
22830SOL     OW70321  13.724   0.049   8.914
22830SOL    HW170322  13.814   0.046   8.948
22830SOL    HW270323  13.711   0.140   8.887
22831SOL     OW70324  12.230   3.912   3.684
22831SOL    HW170325  12.264   3.911   3.594
22831SOL    HW270326  12.171   3.836   3.688
22832SOL     OW70327   3.368  11.229   1.987
22832SOL    HW170328   3.431  11.218   1.915
22832SOL    HW270329   3.284  11.204   1.949
22833SOL     OW70330   4.107   8.722   1.654
22833SOL    HW170331   4.061   8.640   1.639
22833SOL    HW270332   4.059   8.764   1.725
22834SOL     OW70333  10.383   9.146   5.674
22834SOL    HW170334  10.341   9.106   5.598
22834SOL    HW270335  10.440   9.213   5.638
22835SOL     OW70336   3.258  12.128  14.326
22835SOL    HW170337   3.236  12.042  14.290
22835SOL    HW270338   3.324  12.163  14.266
22836SOL     OW70339   3.774   8.694  10.172
22836SOL    HW170340   3.715   8.714  10.245
22836SOL    HW270341   3.715   8.675  10.098
22837SOL     OW70342  10.486   9.157  13.647
22837SOL    HW170343  10.543   9.214  13.595
22837SOL    HW270344  10.489   9.073  13.602
22838SOL     OW70345   1.782   6.940   3.263
22838SOL    HW170346   1.772   6.989   3.182
22838SOL    HW270347   1.866   6.896   3.254
22839SOL     OW70348   1.809  10.327  10.789
22839SOL    HW170349   1.896  10.312  10.825
22839SOL    HW270350   1.768  10.240  10.789
22840SOL     OW70351   4.129  12.251  12.369
22840SOL    HW170352   4.186  12.223  12.297
22840SOL    HW270353   4.076  12.174  12.389
22841SOL     OW70354   7.821   2.997  14.149
22841SOL    HW170355   7.764   2.960  14.081
22841SOL    HW270356   7.909   2.979  14.118
22842SOL     OW70357   5.352   0.267   3.260
22842SOL    HW170358   5.280   0.204   3.267
22842SOL    HW270359   5.369   0.294   3.351
22843SOL     OW70360   9.110  11.344   4.147
22843SOL    HW170361   9.141  11.409   4.210
22843SOL    HW270362   9.190  11.301   4.115
22844SOL     OW70363  11.347   2.117   0.821
22844SOL    HW170364  11.277   2.054   0.803
22844SOL    HW270365  11.416   2.064   0.861
22845SOL     OW70366  13.450   1.894  13.170
22845SOL    HW170367  13.513   1.829  13.139
22845SOL    HW270368  13.364   1.854  13.153
22846SOL     OW70369   2.804   4.210  13.827
22846SOL    HW170370   2.768   4.208  13.916
22846SOL    HW270371   2.834   4.300  13.816
22847SOL     OW70372  11.278   2.623   9.659
22847SOL    HW170373  11.354   2.681   9.647
22847SOL    HW270374  11.234   2.625   9.574
22848SOL     OW70375   5.925   1.183  10.408
22848SOL    HW170376   5.897   1.091  10.412
22848SOL    HW270377   5.973   1.189  10.325
22849SOL     OW70378   2.032   9.922   3.056
22849SOL    HW170379   2.094   9.866   3.008
22849SOL    HW270380   2.086   9.994   3.089
22850SOL     OW70381   4.540   0.310  10.519
22850SOL    HW170382   4.510   0.286  10.607
22850SOL    HW270383   4.539   0.406  10.519
22851SOL     OW70384   5.102   8.122   6.060
22851SOL    HW170385   5.111   8.215   6.083
22851SOL    HW270386   5.030   8.091   6.115
22852SOL     OW70387  12.688   3.684   2.130
22852SOL    HW170388  12.673   3.629   2.207
22852SOL    HW270389  12.760   3.642   2.083
22853SOL     OW70390   5.021  12.212   4.438
22853SOL    HW170391   4.946  12.252   4.394
22853SOL    HW270392   5.042  12.273   4.509
22854SOL     OW70393   4.146  13.654   9.137
22854SOL    HW170394   4.089  13.661   9.061
22854SOL    HW270395   4.089  13.675   9.212
22855SOL     OW70396   2.585  10.063   3.882
22855SOL    HW170397   2.570   9.971   3.901
22855SOL    HW270398   2.538  10.110   3.951
22856SOL     OW70399   5.514  14.278  11.067
22856SOL    HW170400   5.527  14.361  11.023
22856SOL    HW270401   5.436  14.240  11.025
22857SOL     OW70402  13.663   2.264   2.482
22857SOL    HW170403  13.579   2.234   2.517
22857SOL    HW270404  13.687   2.196   2.418
22858SOL     OW70405  13.573  14.237   5.511
22858SOL    HW170406  13.572  14.150   5.471
22858SOL    HW270407  13.604  14.295   5.441
22859SOL     OW70408   4.499   2.234   3.284
22859SOL    HW170409   4.511   2.214   3.377
22859SOL    HW270410   4.557   2.173   3.239
22860SOL     OW70411  11.216   7.702   5.817
22860SOL    HW170412  11.150   7.661   5.761
22860SOL    HW270413  11.284   7.732   5.757
22861SOL     OW70414   2.062   2.067  14.009
22861SOL    HW170415   1.975   2.100  14.032
22861SOL    HW270416   2.074   1.992  14.067
22862SOL     OW70417  11.954  10.926  12.300
22862SOL    HW170418  11.991  10.853  12.349
22862SOL    HW270419  11.936  10.889  12.213
22863SOL     OW70420   3.883  10.049   6.386
22863SOL    HW170421   3.948   9.982   6.409
22863SOL    HW270422   3.911  10.080   6.300
22864SOL     OW70423   5.276   3.154   8.016
22864SOL    HW170424   5.226   3.151   8.097
22864SOL    HW270425   5.334   3.078   8.021
22865SOL     OW70426   2.887  12.221   3.872
22865SOL    HW170427   2.859  12.143   3.825
22865SOL    HW270428   2.969  12.196   3.914
22866SOL     OW70429   9.189   5.512   4.845
22866SOL    HW170430   9.180   5.497   4.939
22866SOL    HW270431   9.188   5.607   4.836
22867SOL     OW70432   1.766  11.925   0.298
22867SOL    HW170433   1.780  12.020   0.299
22867SOL    HW270434   1.691  11.911   0.355
22868SOL     OW70435  14.564   2.479   6.680
22868SOL    HW170436  14.624   2.451   6.610
22868SOL    HW270437  14.620   2.490   6.757
22869SOL     OW70438   8.926  14.505   7.212
22869SOL    HW170439   8.995  14.451   7.251
22869SOL    HW270440   8.894  14.558   7.285
22870SOL     OW70441  12.683   7.727   0.498
22870SOL    HW170442  12.753   7.704   0.559
22870SOL    HW270443  12.689   7.661   0.428
22871SOL     OW70444   3.964  10.021   5.032
22871SOL    HW170445   3.992  10.028   5.123
22871SOL    HW270446   3.869  10.015   5.036
22872SOL     OW70447   5.027   6.992   4.919
22872SOL    HW170448   5.112   6.982   4.876
22872SOL    HW270449   5.011   6.907   4.960
22873SOL     OW70450  12.521   7.350   7.178
22873SOL    HW170451  12.461   7.326   7.107
22873SOL    HW270452  12.591   7.399   7.135
22874SOL     OW70453   3.034  11.914  10.694
22874SOL    HW170454   2.939  11.918  10.694
22874SOL    HW270455   3.056  11.863  10.616
22875SOL     OW70456   4.293  14.306   6.145
22875SOL    HW170457   4.230  14.302   6.073
22875SOL    HW270458   4.378  14.307   6.103
22876SOL     OW70459   7.381  12.993   9.505
22876SOL    HW170460   7.454  12.991   9.568
22876SOL    HW270461   7.401  13.068   9.448
22877SOL     OW70462   3.839   6.993   5.594
22877SOL    HW170463   3.904   6.987   5.664
22877SOL    HW270464   3.888   7.024   5.518
22878SOL     OW70465   6.579   6.455  14.490
22878SOL    HW170466   6.510   6.410  14.442
22878SOL    HW270467   6.660   6.418  14.455
22879SOL     OW70468  10.994   0.119   4.693
22879SOL    HW170469  11.041   0.189   4.738
22879SOL    HW270470  11.063   0.065   4.654
22880SOL     OW70471   3.874   0.330   9.323
22880SOL    HW170472   3.883   0.415   9.281
22880SOL    HW270473   3.782   0.306   9.309
22881SOL     OW70474  11.074   2.581   7.935
22881SOL    HW170475  11.104   2.501   7.977
22881SOL    HW270476  11.027   2.551   7.857
22882SOL     OW70477   4.630  12.833   8.000
22882SOL    HW170478   4.557  12.890   8.025
22882SOL    HW270479   4.662  12.798   8.084
22883SOL     OW70480   7.863   0.567  13.632
22883SOL    HW170481   7.897   0.589  13.546
22883SOL    HW270482   7.918   0.618  13.693
22884SOL     OW70483   0.300  14.447   9.635
22884SOL    HW170484   0.333  14.536   9.621
22884SOL    HW270485   0.208  14.459   9.658
22885SOL     OW70486  13.697  13.253   8.219
22885SOL    HW170487  13.602  13.261   8.212
22885SOL    HW270488  13.718  13.171   8.175
22886SOL     OW70489   7.426   8.927   8.795
22886SOL    HW170490   7.434   8.920   8.890
22886SOL    HW270491   7.471   8.850   8.761
22887SOL     OW70492   2.029  11.400  10.616
22887SOL    HW170493   2.101  11.386  10.677
22887SOL    HW270494   1.982  11.317  10.616
22888SOL     OW70495   5.866   2.859   9.270
22888SOL    HW170496   5.804   2.917   9.314
22888SOL    HW270497   5.821   2.830   9.191
22889SOL     OW70498  12.443  14.254  10.926
22889SOL    HW170499  12.499  14.183  10.957
22889SOL    HW270500  12.492  14.292  10.853
22890SOL     OW70501   7.762  12.665  11.657
22890SOL    HW170502   7.695  12.617  11.706
22890SOL    HW270503   7.773  12.746  11.707
22891SOL     OW70504   5.160   8.341   3.412
22891SOL    HW170505   5.153   8.248   3.391
22891SOL    HW270506   5.076   8.363   3.452
22892SOL     OW70507  10.857   7.146   7.710
22892SOL    HW170508  10.898   7.099   7.783
22892SOL    HW270509  10.923   7.211   7.684
22893SOL     OW70510   5.328   7.078   4.027
22893SOL    HW170511   5.333   7.023   4.105
22893SOL    HW270512   5.237   7.069   3.997
22894SOL     OW70513   6.798   5.387  13.196
22894SOL    HW170514   6.720   5.441  13.208
22894SOL    HW270515   6.774   5.323  13.130
22895SOL     OW70516   2.451   8.601   6.725
22895SOL    HW170517   2.482   8.522   6.681
22895SOL    HW270518   2.387   8.570   6.789
22896SOL     OW70519   1.309   9.509  10.244
22896SOL    HW170520   1.335   9.572  10.311
22896SOL    HW270521   1.318   9.557  10.161
22897SOL     OW70522   1.074  10.183   2.611
22897SOL    HW170523   1.081  10.111   2.548
22897SOL    HW270524   1.003  10.157   2.669
22898SOL     OW70525   5.573   0.759   7.297
22898SOL    HW170526   5.594   0.846   7.263
22898SOL    HW270527   5.659   0.720   7.315
22899SOL     OW70528   1.382   3.749   0.222
22899SOL    HW170529   1.471   3.765   0.253
22899SOL    HW270530   1.379   3.655   0.205
22900SOL     OW70531  10.680   6.577   0.993
22900SOL    HW170532  10.730   6.644   1.041
22900SOL    HW270533  10.594   6.616   0.982
22901SOL     OW70534   7.842   7.724  10.064
22901SOL    HW170535   7.808   7.745   9.977
22901SOL    HW270536   7.935   7.707  10.050
22902SOL     OW70537   6.568   2.822  10.624
22902SOL    HW170538   6.659   2.810  10.654
22902SOL    HW270539   6.574   2.815  10.529
22903SOL     OW70540   6.945   7.723   5.556
22903SOL    HW170541   6.935   7.645   5.610
22903SOL    HW270542   6.882   7.785   5.593
22904SOL     OW70543  10.122   6.451   2.275
22904SOL    HW170544  10.071   6.403   2.340
22904SOL    HW270545  10.212   6.420   2.288
22905SOL     OW70546   5.478   6.258  11.826
22905SOL    HW170547   5.393   6.302  11.818
22905SOL    HW270548   5.514   6.259  11.738
22906SOL     OW70549   6.832   7.239  11.525
22906SOL    HW170550   6.814   7.265  11.435
22906SOL    HW270551   6.769   7.288  11.577
22907SOL     OW70552   8.466   2.314   2.913
22907SOL    HW170553   8.420   2.370   2.850
22907SOL    HW270554   8.403   2.246   2.935
22908SOL     OW70555  13.798   8.761  12.555
22908SOL    HW170556  13.827   8.674  12.527
22908SOL    HW270557  13.878   8.814  12.554
22909SOL     OW70558   8.708  13.133   0.069
22909SOL    HW170559   8.615  13.131   0.047
22909SOL    HW270560   8.729  13.226   0.077
22910SOL     OW70561   6.862  14.521   8.965
22910SOL    HW170562   6.804  14.535   8.890
22910SOL    HW270563   6.810  14.547   9.040
22911SOL     OW70564  11.693   1.598   8.699
22911SOL    HW170565  11.784   1.628   8.691
22911SOL    HW270566  11.642   1.661   8.648
22912SOL     OW70567   4.371   8.532  10.516
22912SOL    HW170568   4.429   8.594  10.471
22912SOL    HW270569   4.287   8.542  10.473
22913SOL     OW70570  11.663  12.398  12.615
22913SOL    HW170571  11.685  12.374  12.525
22913SOL    HW270572  11.742  12.442  12.647
22914SOL     OW70573   4.178   7.123   7.990
22914SOL    HW170574   4.269   7.116   7.962
22914SOL    HW270575   4.176   7.199   8.049
22915SOL     OW70576  10.071  12.181   8.303
22915SOL    HW170577  10.053  12.098   8.347
22915SOL    HW270578  10.004  12.188   8.235
22916SOL     OW70579  12.164   6.886  13.623
22916SOL    HW170580  12.254   6.910  13.644
22916SOL    HW270581  12.165   6.867  13.529
22917SOL     OW70582   6.935   3.705   3.173
22917SOL    HW170583   6.890   3.768   3.229
22917SOL    HW270584   6.920   3.738   3.084
22918SOL     OW70585  14.120   0.930  10.012
22918SOL    HW170586  14.123   0.904  10.104
22918SOL    HW270587  14.134   0.848   9.964
22919SOL     OW70588   5.992   5.599   6.732
22919SOL    HW170589   5.954   5.674   6.777
22919SOL    HW270590   6.024   5.634   6.649
22920SOL     OW70591   3.550  14.669   8.265
22920SOL    HW170592   3.573  14.638   8.178
22920SOL    HW270593   3.602  14.615   8.324
22921SOL     OW70594  14.604  13.147   6.253
22921SOL    HW170595  14.682  13.170   6.302
22921SOL    HW270596  14.621  13.059   6.220
22922SOL     OW70597   3.498   0.449  12.237
22922SOL    HW170598   3.510   0.484  12.148
22922SOL    HW270599   3.462   0.362  12.223
22923SOL     OW70600   6.309  12.502  14.561
22923SOL    HW170601   6.358  12.576  14.524
22923SOL    HW270602   6.334  12.427  14.507
22924SOL     OW70603  13.618  13.766  14.776
22924SOL    HW170604  13.526  13.774  14.752
22924SOL    HW270605  13.630  13.672  14.794
22925SOL     OW70606   9.254   5.610   5.362
22925SOL    HW170607   9.238   5.702   5.384
22925SOL    HW270608   9.348   5.599   5.375
22926SOL     OW70609   2.440   2.493   6.908
22926SOL    HW170610   2.485   2.574   6.932
22926SOL    HW270611   2.471   2.472   6.820
22927SOL     OW70612   9.033   6.871   1.550
22927SOL    HW170613   9.071   6.784   1.543
22927SOL    HW270614   8.980   6.880   1.471
22928SOL     OW70615   5.955   9.832  11.430
22928SOL    HW170616   5.952   9.852  11.524
22928SOL    HW270617   5.923   9.741  11.424
22929SOL     OW70618   8.732  10.720   3.678
22929SOL    HW170619   8.733  10.636   3.726
22929SOL    HW270620   8.650  10.718   3.628
22930SOL     OW70621   8.371  10.318   7.215
22930SOL    HW170622   8.406  10.363   7.292
22930SOL    HW270623   8.423  10.351   7.142
22931SOL     OW70624   8.677   8.563  11.111
22931SOL    HW170625   8.770   8.581  11.098
22931SOL    HW270626   8.644   8.642  11.155
22932SOL     OW70627  13.298   7.642  13.755
22932SOL    HW170628  13.221   7.612  13.707
22932SOL    HW270629  13.294   7.738  13.750
22933SOL     OW70630  13.884   6.284   4.598
22933SOL    HW170631  13.822   6.224   4.639
22933SOL    HW270632  13.834   6.365   4.585
22934SOL     OW70633  12.742  11.710  13.870
22934SOL    HW170634  12.792  11.776  13.918
22934SOL    HW270635  12.651  11.727  13.894
22935SOL     OW70636   6.957   3.497  14.520
22935SOL    HW170637   6.999   3.419  14.484
22935SOL    HW270638   6.983   3.568  14.461
22936SOL     OW70639   4.732   1.135   5.954
22936SOL    HW170640   4.652   1.084   5.938
22936SOL    HW270641   4.779   1.084   6.021
22937SOL     OW70642   7.420  14.154  13.786
22937SOL    HW170643   7.372  14.227  13.745
22937SOL    HW270644   7.511  14.184  13.790
22938SOL     OW70645  10.405  10.806  14.851
22938SOL    HW170646  10.373  10.744  14.785
22938SOL    HW270647  10.342  10.877  14.850
22939SOL     OW70648   7.416  10.957   3.173
22939SOL    HW170649   7.397  10.900   3.099
22939SOL    HW270650   7.467  10.903   3.233
22940SOL     OW70651   6.827  13.521   6.749
22940SOL    HW170652   6.817  13.583   6.821
22940SOL    HW270653   6.906  13.551   6.702
22941SOL     OW70654  11.089   3.227   4.390
22941SOL    HW170655  11.116   3.215   4.481
22941SOL    HW270656  11.065   3.139   4.360
22942SOL     OW70657  14.653   3.932  12.934
22942SOL    HW170658  14.632   4.011  12.984
22942SOL    HW270659  14.614   3.948  12.848
22943SOL     OW70660  11.885   1.258   2.424
22943SOL    HW170661  11.841   1.325   2.373
22943SOL    HW270662  11.895   1.296   2.511
22944SOL     OW70663   7.799  12.162   2.825
22944SOL    HW170664   7.746  12.102   2.877
22944SOL    HW270665   7.866  12.107   2.784
22945SOL     OW70666  12.406   8.683  14.795
22945SOL    HW170667  12.320   8.723  14.810
22945SOL    HW270668  12.466   8.757  14.789
22946SOL     OW70669   9.883  11.642   3.616
22946SOL    HW170670   9.891  11.697   3.538
22946SOL    HW270671   9.908  11.699   3.688
22947SOL     OW70672   2.161   6.426  13.309
22947SOL    HW170673   2.240   6.389  13.270
22947SOL    HW270674   2.171   6.521  13.301
22948SOL     OW70675   3.013  11.819   1.456
22948SOL    HW170676   2.974  11.902   1.428
22948SOL    HW270677   3.099  11.818   1.414
22949SOL     OW70678  12.150  10.347   9.936
22949SOL    HW170679  12.074  10.375   9.885
22949SOL    HW270680  12.113  10.294  10.007
22950SOL     OW70681  10.957   4.612   6.798
22950SOL    HW170682  10.975   4.669   6.873
22950SOL    HW270683  10.910   4.538   6.835
22951SOL     OW70684   6.177  11.329   6.674
22951SOL    HW170685   6.122  11.295   6.604
22951SOL    HW270686   6.116  11.372   6.734
22952SOL     OW70687   2.093   8.184   0.437
22952SOL    HW170688   2.044   8.152   0.513
22952SOL    HW270689   2.058   8.134   0.363
22953SOL     OW70690   0.678   9.030  14.176
22953SOL    HW170691   0.631   8.954  14.210
22953SOL    HW270692   0.689   9.012  14.083
22954SOL     OW70693   2.233   9.908  10.979
22954SOL    HW170694   2.163   9.963  11.014
22954SOL    HW270695   2.290   9.891  11.054
22955SOL     OW70696  11.769  13.583   8.622
22955SOL    HW170697  11.769  13.490   8.645
22955SOL    HW270698  11.713  13.624   8.688
22956SOL     OW70699   6.642   1.281  14.825
22956SOL    HW170700   6.626   1.295  14.731
22956SOL    HW270701   6.580   1.339  14.869
22957SOL     OW70702  11.974   8.596  10.045
22957SOL    HW170703  11.955   8.574   9.954
22957SOL    HW270704  11.935   8.526  10.096
22958SOL     OW70705  12.391   9.339   4.609
22958SOL    HW170706  12.481   9.366   4.625
22958SOL    HW270707  12.350   9.414   4.567
22959SOL     OW70708   4.718   2.712  13.396
22959SOL    HW170709   4.635   2.738  13.358
22959SOL    HW270710   4.755   2.793  13.432
22960SOL     OW70711   5.119  13.154   8.780
22960SOL    HW170712   5.206  13.195   8.785
22960SOL    HW270713   5.136  13.060   8.793
22961SOL     OW70714   8.915   6.693   3.189
22961SOL    HW170715   8.854   6.690   3.116
22961SOL    HW270716   8.992   6.644   3.158
22962SOL     OW70717   0.421  12.706  11.259
22962SOL    HW170718   0.327  12.689  11.255
22962SOL    HW270719   0.457  12.660  11.183
22963SOL     OW70720   6.830   7.335   4.336
22963SOL    HW170721   6.926   7.338   4.344
22963SOL    HW270722   6.799   7.321   4.425
22964SOL     OW70723  12.378   7.711   1.799
22964SOL    HW170724  12.461   7.744   1.835
22964SOL    HW270725  12.344   7.653   1.867
22965SOL     OW70726   3.738   3.586  14.860
22965SOL    HW170727   3.738   3.648   0.057
22965SOL    HW270728   3.647   3.582  14.831
22966SOL     OW70729   8.831   9.575   1.213
22966SOL    HW170730   8.779   9.530   1.147
22966SOL    HW270731   8.887   9.507   1.251
22967SOL     OW70732   1.986   8.087   9.732
22967SOL    HW170733   1.932   8.156   9.695
22967SOL    HW270734   2.057   8.075   9.670
22968SOL     OW70735   1.554   9.514   9.889
22968SOL    HW170736   1.548   9.538   9.796
22968SOL    HW270737   1.625   9.568   9.923
22969SOL     OW70738   2.155  14.220  12.606
22969SOL    HW170739   2.112  14.143  12.644
22969SOL    HW270740   2.233  14.233  12.660
22970SOL     OW70741   5.901   9.111   0.497
22970SOL    HW170742   5.944   9.195   0.484
22970SOL    HW270743   5.965   9.058   0.544
22971SOL     OW70744   8.077   3.292   1.175
22971SOL    HW170745   8.011   3.223   1.176
22971SOL    HW270746   8.033   3.369   1.212
22972SOL     OW70747   6.332   6.021  13.509
22972SOL    HW170748   6.389   5.951  13.541
22972SOL    HW270749   6.326   6.006  13.414
22973SOL     OW70750   2.913   6.294   0.381
22973SOL    HW170751   2.862   6.375   0.384
22973SOL    HW270752   2.881   6.249   0.302
22974SOL     OW70753   1.484  12.907   3.999
22974SOL    HW170754   1.433  12.828   4.013
22974SOL    HW270755   1.557  12.879   3.943
22975SOL     OW70756  14.113   0.936   6.187
22975SOL    HW170757  14.127   0.885   6.107
22975SOL    HW270758  14.022   0.917   6.212
22976SOL     OW70759  10.273  13.663   3.605
22976SOL    HW170760  10.310  13.688   3.520
22976SOL    HW270761  10.342  13.684   3.668
22977SOL     OW70762   1.737  10.834   9.443
22977SOL    HW170763   1.732  10.764   9.377
22977SOL    HW270764   1.818  10.880   9.423
22978SOL     OW70765   9.676   9.525   9.403
22978SOL    HW170766   9.737   9.506   9.474
22978SOL    HW270767   9.633   9.606   9.430
22979SOL     OW70768   9.107   2.939  14.653
22979SOL    HW170769   9.200   2.964  14.652
22979SOL    HW270770   9.106   2.854  14.696
22980SOL     OW70771   9.603  10.522  10.274
22980SOL    HW170772   9.668  10.526  10.204
22980SOL    HW270773   9.542  10.593  10.255
22981SOL     OW70774   5.189   4.824   2.854
22981SOL    HW170775   5.104   4.866   2.847
22981SOL    HW270776   5.247   4.877   2.798
22982SOL     OW70777  11.579  13.806   9.876
22982SOL    HW170778  11.597  13.734   9.937
22982SOL    HW270779  11.484  13.807   9.867
22983SOL     OW70780   5.543  12.834   1.134
22983SOL    HW170781   5.455  12.869   1.147
22983SOL    HW270782   5.566  12.795   1.218
22984SOL     OW70783   5.964  14.774  12.266
22984SOL    HW170784   6.046  14.738  12.301
22984SOL    HW270785   5.989  14.819  12.185
22985SOL     OW70786   1.216   3.278  12.895
22985SOL    HW170787   1.284   3.302  12.832
22985SOL    HW270788   1.143   3.337  12.876
22986SOL     OW70789  10.418   0.649   4.187
22986SOL    HW170790  10.497   0.693   4.219
22986SOL    HW270791  10.439   0.626   4.096
22987SOL     OW70792   5.113  13.262  13.912
22987SOL    HW170793   5.110  13.356  13.896
22987SOL    HW270794   5.205  13.244  13.929
22988SOL     OW70795   9.455   4.852   2.894
22988SOL    HW170796   9.445   4.812   2.981
22988SOL    HW270797   9.550   4.851   2.879
22989SOL     OW70798   0.738   5.687   6.243
22989SOL    HW170799   0.697   5.689   6.157
22989SOL    HW270800   0.830   5.707   6.227
22990SOL     OW70801   9.090   8.047  10.854
22990SOL    HW170802   9.105   8.000  10.772
22990SOL    HW270803   9.028   7.993  10.902
22991SOL     OW70804   6.604   7.917   9.411
22991SOL    HW170805   6.596   7.988   9.347
22991SOL    HW270806   6.689   7.932   9.453
22992SOL     OW70807   7.607   6.339  13.443
22992SOL    HW170808   7.686   6.346  13.389
22992SOL    HW270809   7.640   6.316  13.530
22993SOL     OW70810  14.338   5.312   3.429
22993SOL    HW170811  14.247   5.339   3.424
22993SOL    HW270812  14.385   5.391   3.457
22994SOL     OW70813   0.754   1.951  10.531
22994SOL    HW170814   0.800   1.871  10.505
22994SOL    HW270815   0.824   2.012  10.553
22995SOL     OW70816   0.917   2.510  10.978
22995SOL    HW170817   0.949   2.543  11.062
22995SOL    HW270818   0.890   2.588  10.930
22996SOL     OW70819   0.197   7.357   0.842
22996SOL    HW170820   0.273   7.413   0.830
22996SOL    HW270821   0.126   7.417   0.864
22997SOL     OW70822  13.339   5.355  11.281
22997SOL    HW170823  13.319   5.262  11.290
22997SOL    HW270824  13.428   5.364  11.314
22998SOL     OW70825  14.418   5.994  14.572
22998SOL    HW170826  14.456   6.044  14.499
22998SOL    HW270827  14.484   5.999  14.641
22999SOL     OW70828  13.490   9.037  10.979
22999SOL    HW170829  13.507   9.098  10.907
22999SOL    HW270830  13.410   8.992  10.954
23000SOL     OW70831  14.443   5.712   7.859
23000SOL    HW170832  14.459   5.620   7.878
23000SOL    HW270833  14.528   5.747   7.832
23001SOL     OW70834   9.033  10.639   4.136
23001SOL    HW170835   9.025  10.589   4.217
23001SOL    HW270836   9.116  10.610   4.098
23002SOL     OW70837  13.182   9.028   9.885
23002SOL    HW170838  13.214   9.093   9.947
23002SOL    HW270839  13.093   9.007   9.916
23003SOL     OW70840   9.621   6.135   8.689
23003SOL    HW170841   9.621   6.051   8.644
23003SOL    HW270842   9.586   6.116   8.776
23004SOL     OW70843  12.984   3.931   0.264
23004SOL    HW170844  12.932   3.893   0.335
23004SOL    HW270845  13.050   3.984   0.308
23005SOL     OW70846  13.072   7.932   0.572
23005SOL    HW170847  13.051   7.922   0.479
23005SOL    HW270848  13.091   7.843   0.602
23006SOL     OW70849   8.679  14.297   0.685
23006SOL    HW170850   8.722  14.346   0.755
23006SOL    HW270851   8.688  14.205   0.712
23007SOL     OW70852  12.791   2.597   0.319
23007SOL    HW170853  12.790   2.654   0.242
23007SOL    HW270854  12.882   2.600   0.350
23008SOL     OW70855   4.829   4.614   4.820
23008SOL    HW170856   4.782   4.555   4.761
23008SOL    HW270857   4.855   4.559   4.894
23009SOL     OW70858  14.386   6.311   4.849
23009SOL    HW170859  14.386   6.247   4.778
23009SOL    HW270860  14.314   6.285   4.906
23010SOL     OW70861   2.195  13.405   6.712
23010SOL    HW170862   2.244  13.453   6.645
23010SOL    HW270863   2.192  13.315   6.679
23011SOL     OW70864   0.350   6.043   9.305
23011SOL    HW170865   0.284   6.065   9.240
23011SOL    HW270866   0.415   6.113   9.299
23012SOL     OW70867   5.742  13.075   0.544
23012SOL    HW170868   5.749  13.002   0.483
23012SOL    HW270869   5.757  13.037   0.630
23013SOL     OW70870   2.264  10.206  14.298
23013SOL    HW170871   2.268  10.133  14.360
23013SOL    HW270872   2.319  10.274  14.337
23014SOL     OW70873  10.550  12.537   0.866
23014SOL    HW170874  10.561  12.452   0.907
23014SOL    HW270875  10.624  12.589   0.896
23015SOL     OW70876   2.125   0.713   8.092
23015SOL    HW170877   2.123   0.617   8.095
23015SOL    HW270878   2.217   0.735   8.082
23016SOL     OW70879   6.491  14.319  10.382
23016SOL    HW170880   6.429  14.264  10.430
23016SOL    HW270881   6.541  14.257  10.328
23017SOL     OW70882   2.192  11.352  14.778
23017SOL    HW170883   2.193  11.443  14.747
23017SOL    HW270884   2.108  11.344  14.823
23018SOL     OW70885   5.849  12.775   8.421
23018SOL    HW170886   5.788  12.760   8.493
23018SOL    HW270887   5.929  12.805   8.464
23019SOL     OW70888  10.871   7.091   0.253
23019SOL    HW170889  10.790   7.102   0.302
23019SOL    HW270890  10.883   7.174   0.207
23020SOL     OW70891   8.733   4.469  13.473
23020SOL    HW170892   8.760   4.379  13.456
23020SOL    HW270893   8.638   4.468  13.462
23021SOL     OW70894  12.501  14.726  13.285
23021SOL    HW170895  12.527  14.644  13.326
23021SOL    HW270896  12.581  14.760  13.246
23022SOL     OW70897   4.388   8.445  10.098
23022SOL    HW170898   4.395   8.426  10.005
23022SOL    HW270899   4.424   8.533  10.107
23023SOL     OW70900   1.329  10.152   6.660
23023SOL    HW170901   1.375  10.069   6.648
23023SOL    HW270902   1.360  10.207   6.589
23024SOL     OW70903  14.658  11.526   3.758
23024SOL    HW170904  14.589  11.513   3.823
23024SOL    HW270905  14.620  11.587   3.695
23025SOL     OW70906  12.452   8.594   7.835
23025SOL    HW170907  12.407   8.544   7.903
23025SOL    HW270908  12.518   8.534   7.801
23026SOL     OW70909   3.642   4.947  13.260
23026SOL    HW170910   3.670   5.009  13.327
23026SOL    HW270911   3.614   5.002  13.187
23027SOL     OW70912  11.432   7.139   1.329
23027SOL    HW170913  11.371   7.081   1.375
23027SOL    HW270914  11.430   7.108   1.238
23028SOL     OW70915  12.948  11.164  11.896
23028SOL    HW170916  12.877  11.222  11.923
23028SOL    HW270917  12.925  11.079  11.932
23029SOL     OW70918  10.107  12.082   9.287
23029SOL    HW170919  10.084  12.101   9.378
23029SOL    HW270920  10.178  12.142   9.267
23030SOL     OW70921  13.017   1.355   8.208
23030SOL    HW170922  13.063   1.398   8.136
23030SOL    HW270923  13.043   1.263   8.200
23031SOL     OW70924  13.066  12.674  14.078
23031SOL    HW170925  13.000  12.685  14.009
23031SOL    HW270926  13.062  12.581  14.100
23032SOL     OW70927   0.040   7.143   0.841
23032SOL    HW170928   0.093   7.222   0.849
23032SOL    HW270929   0.064   7.107   0.756
23033SOL     OW70930   1.242  14.244   5.088
23033SOL    HW170931   1.203  14.194   5.016
23033SOL    HW270932   1.291  14.314   5.045
23034SOL     OW70933   7.796   5.483  11.884
23034SOL    HW170934   7.776   5.408  11.940
23034SOL    HW270935   7.787   5.559  11.943
23035SOL     OW70936  11.553  11.408   8.421
23035SOL    HW170937  11.520  11.496   8.437
23035SOL    HW270938  11.479  11.360   8.384
23036SOL     OW70939   7.306   8.041   0.201
23036SOL    HW170940   7.283   8.116   0.146
23036SOL    HW270941   7.223   8.005   0.230
23037SOL     OW70942   0.857  11.672   7.695
23037SOL    HW170943   0.833  11.585   7.728
23037SOL    HW270944   0.853  11.662   7.599
23038SOL     OW70945   3.637   5.869  14.605
23038SOL    HW170946   3.550   5.834  14.624
23038SOL    HW270947   3.697   5.798  14.626
23039SOL     OW70948  10.402   4.269   4.409
23039SOL    HW170949  10.315   4.243   4.440
23039SOL    HW270950  10.459   4.196   4.432
23040SOL     OW70951  13.658   7.139   4.808
23040SOL    HW170952  13.740   7.119   4.854
23040SOL    HW270953  13.631   7.056   4.771
23041SOL     OW70954   5.356   9.934  14.580
23041SOL    HW170955   5.309   9.860  14.542
23041SOL    HW270956   5.432   9.894  14.623
23042SOL     OW70957   8.471  12.341   2.688
23042SOL    HW170958   8.427  12.419   2.656
23042SOL    HW270959   8.429  12.322   2.772
23043SOL     OW70960   2.280  11.951  14.020
23043SOL    HW170961   2.375  11.940  14.026
23043SOL    HW270962   2.244  11.881  14.073
23044SOL     OW70963   1.159   8.288  13.350
23044SOL    HW170964   1.119   8.279  13.436
23044SOL    HW270965   1.103   8.236  13.292
23045SOL     OW70966   4.193   6.081   3.924
23045SOL    HW170967   4.203   6.123   3.839
23045SOL    HW270968   4.282   6.073   3.958
23046SOL     OW70969   6.107  13.915   0.251
23046SOL    HW170970   6.181  13.856   0.232
23046SOL    HW270971   6.103  13.919   0.346
23047SOL     OW70972   2.341   5.201   5.619
23047SOL    HW170973   2.315   5.114   5.649
23047SOL    HW270974   2.280   5.260   5.663
23048SOL     OW70975   0.093   4.743   7.431
23048SOL    HW170976   0.061   4.664   7.474
23048SOL    HW270977   0.063   4.815   7.486
23049SOL     OW70978   4.674  13.225  12.794
23049SOL    HW170979   4.632  13.299  12.749
23049SOL    HW270980   4.618  13.150  12.776
23050SOL     OW70981   2.231   7.285   7.730
23050SOL    HW170982   2.192   7.234   7.660
23050SOL    HW270983   2.313   7.318   7.694
23051SOL     OW70984   6.840  13.378   5.914
23051SOL    HW170985   6.789  13.367   5.994
23051SOL    HW270986   6.855  13.288   5.883
23052SOL     OW70987  10.489   0.224   6.837
23052SOL    HW170988  10.569   0.242   6.788
23052SOL    HW270989  10.471   0.306   6.884
23053SOL     OW70990   0.781   3.248   4.125
23053SOL    HW170991   0.815   3.175   4.074
23053SOL    HW270992   0.802   3.225   4.216
23054SOL     OW70993   1.553   2.909  12.846
23054SOL    HW170994   1.553   3.005  12.853
23054SOL    HW270995   1.547   2.879  12.937
23055SOL     OW70996   8.884  10.880   2.044
23055SOL    HW170997   8.924  10.792   2.046
23055SOL    HW270998   8.810  10.873   2.104
23056SOL     OW70999  12.905   6.965   6.097
23056SOL    HW171000  12.986   6.970   6.046
23056SOL    HW271001  12.847   7.029   6.056
23057SOL     OW71002   7.229   5.007   3.315
23057SOL    HW171003   7.268   5.058   3.387
23057SOL    HW271004   7.174   4.942   3.359
23058SOL     OW71005  12.796  11.887  14.210
23058SOL    HW171006  12.720  11.942  14.191
23058SOL    HW271007  12.849  11.892  14.131
23059SOL     OW71008   9.894   1.260  12.048
23059SOL    HW171009   9.859   1.298  11.967
23059SOL    HW271010   9.933   1.177  12.020
23060SOL     OW71011  12.042  14.039  11.780
23060SOL    HW171012  11.952  14.018  11.755
23060SOL    HW271013  12.077  14.088  11.706
23061SOL     OW71014   5.801  14.789  14.025
23061SOL    HW171015   5.731  14.854  14.038
23061SOL    HW271016   5.881  14.833  14.053
23062SOL     OW71017  10.526   6.658  13.151
23062SOL    HW171018  10.545   6.631  13.061
23062SOL    HW271019  10.580   6.601  13.205
23063SOL     OW71020  10.069   3.312  10.560
23063SOL    HW171021   9.990   3.363  10.574
23063SOL    HW271022  10.108   3.348  10.480
23064SOL     OW71023   3.636  12.012  14.755
23064SOL    HW171024   3.659  12.030  14.664
23064SOL    HW271025   3.601  11.923  14.754
23065SOL     OW71026  11.203  10.743  13.719
23065SOL    HW171027  11.213  10.704  13.806
23065SOL    HW271028  11.288  10.783  13.701
23066SOL     OW71029   1.813   2.719  10.303
23066SOL    HW171030   1.755   2.755  10.237
23066SOL    HW271031   1.867   2.793  10.331
23067SOL     OW71032  13.700   7.604   2.219
23067SOL    HW171033  13.698   7.530   2.158
23067SOL    HW271034  13.727   7.565   2.302
23068SOL     OW71035  11.227   6.994   1.461
23068SOL    HW171036  11.173   7.073   1.471
23068SOL    HW271037  11.166   6.926   1.436
23069SOL     OW71038   6.523   4.742   1.334
23069SOL    HW171039   6.554   4.830   1.355
23069SOL    HW271040   6.428   4.747   1.341
23070SOL     OW71041   1.981   5.544   0.734
23070SOL    HW171042   2.034   5.528   0.812
23070SOL    HW271043   1.956   5.637   0.742
23071SOL     OW71044   3.714  12.497  12.936
23071SOL    HW171045   3.692  12.503  13.029
23071SOL    HW271046   3.810  12.502  12.934
23072SOL     OW71047   9.563   7.370   9.963
23072SOL    HW171048   9.633   7.317  10.000
23072SOL    HW271049   9.574   7.457  10.002
23073SOL     OW71050   2.713  11.214   8.622
23073SOL    HW171051   2.803  11.223   8.655
23073SOL    HW271052   2.677  11.140   8.670
23074SOL     OW71053   0.055   7.468   9.326
23074SOL    HW171054   0.063   7.554   9.367
23074SOL    HW271055   0.144   7.447   9.295
23075SOL     OW71056  11.297  10.242  10.190
23075SOL    HW171057  11.255  10.322  10.221
23075SOL    HW271058  11.249  10.171  10.233
23076SOL     OW71059   6.811  12.601  12.508
23076SOL    HW171060   6.852  12.685  12.527
23076SOL    HW271061   6.720  12.612  12.536
23077SOL     OW71062   4.105   2.694  10.470
23077SOL    HW171063   4.181   2.719  10.524
23077SOL    HW271064   4.029   2.726  10.520
23078SOL     OW71065  12.296  11.364   2.222
23078SOL    HW171066  12.293  11.268   2.229
23078SOL    HW271067  12.230  11.385   2.156
23079SOL     OW71068   5.410   2.464  10.048
23079SOL    HW171069   5.480   2.456  10.113
23079SOL    HW271070   5.357   2.537  10.079
23080SOL     OW71071  14.195   7.283   3.682
23080SOL    HW171072  14.189   7.295   3.587
23080SOL    HW271073  14.120   7.228   3.704
23081SOL     OW71074   0.922   7.483   9.663
23081SOL    HW171075   0.845   7.428   9.654
23081SOL    HW271076   0.891   7.572   9.642
23082SOL     OW71077   4.388  11.116   7.529
23082SOL    HW171078   4.434  11.033   7.515
23082SOL    HW271079   4.298  11.099   7.500
23083SOL     OW71080   9.896   8.470   0.392
23083SOL    HW171081   9.971   8.445   0.446
23083SOL    HW271082   9.823   8.478   0.455
23084SOL     OW71083  13.365  12.635   0.556
23084SOL    HW171084  13.452  12.666   0.533
23084SOL    HW271085  13.373  12.540   0.557
23085SOL     OW71086   4.264   2.009   8.725
23085SOL    HW171087   4.240   1.922   8.692
23085SOL    HW271088   4.339   2.035   8.671
23086SOL     OW71089  12.391   7.009  13.781
23086SOL    HW171090  12.432   6.928  13.811
23086SOL    HW271091  12.377   7.060  13.861
23087SOL     OW71092   8.884   0.901  12.788
23087SOL    HW171093   8.868   0.975  12.729
23087SOL    HW271094   8.887   0.825  12.731
23088SOL     OW71095   1.187   3.589   0.505
23088SOL    HW171096   1.128   3.664   0.496
23088SOL    HW271097   1.196   3.555   0.416
23089SOL     OW71098   8.928   9.309   0.399
23089SOL    HW171099   8.859   9.361   0.357
23089SOL    HW271100   8.954   9.246   0.332
23090SOL     OW71101   0.865   9.821  11.740
23090SOL    HW171102   0.951   9.792  11.708
23090SOL    HW271103   0.811   9.742  11.738
23091SOL     OW71104   8.761   5.326  11.108
23091SOL    HW171105   8.821   5.335  11.033
23091SOL    HW271106   8.776   5.405  11.160
23092SOL     OW71107   0.249   5.905  13.351
23092SOL    HW171108   0.248   5.837  13.418
23092SOL    HW271109   0.164   5.898  13.308
23093SOL     OW71110  13.407  12.575   9.865
23093SOL    HW171111  13.480  12.562   9.925
23093SOL    HW271112  13.333  12.531   9.908
23094SOL     OW71113  10.792  13.358  10.872
23094SOL    HW171114  10.808  13.268  10.845
23094SOL    HW271115  10.880  13.395  10.885
23095SOL     OW71116   3.215   2.773  14.230
23095SOL    HW171117   3.259   2.692  14.206
23095SOL    HW271118   3.253   2.796  14.315
23096SOL     OW71119   3.781   1.206   4.079
23096SOL    HW171120   3.690   1.205   4.109
23096SOL    HW271121   3.824   1.270   4.136
23097SOL     OW71122   8.974   4.931   2.402
23097SOL    HW171123   8.933   4.908   2.485
23097SOL    HW271124   9.035   5.002   2.423
23098SOL     OW71125   0.787  12.607   5.758
23098SOL    HW171126   0.851  12.545   5.724
23098SOL    HW271127   0.707  12.589   5.707
23099SOL     OW71128   2.425  13.778   7.017
23099SOL    HW171129   2.386  13.697   7.049
23099SOL    HW271130   2.378  13.797   6.936
23100SOL     OW71131   7.878  12.229   7.620
23100SOL    HW171132   7.925  12.155   7.581
23100SOL    HW271133   7.898  12.223   7.714
23101SOL     OW71134   0.545   9.958   0.780
23101SOL    HW171135   0.501  10.009   0.848
23101SOL    HW271136   0.605   9.901   0.827
23102SOL     OW71137  12.382   9.807  13.540
23102SOL    HW171138  12.301   9.773  13.502
23102SOL    HW271139  12.363   9.814  13.634
23103SOL     OW71140  14.457  11.919   8.575
23103SOL    HW171141  14.444  11.837   8.527
23103SOL    HW271142  14.551  11.934   8.571
23104SOL     OW71143   6.823   4.986  11.837
23104SOL    HW171144   6.752   4.983  11.773
23104SOL    HW271145   6.901   4.965  11.787
23105SOL     OW71146  13.647  11.139   7.515
23105SOL    HW171147  13.606  11.144   7.601
23105SOL    HW271148  13.716  11.206   7.518
23106SOL     OW71149   9.797   1.543  10.890
23106SOL    HW171150   9.874   1.501  10.927
23106SOL    HW271151   9.826   1.631  10.867
23107SOL     OW71152   4.516   0.036  10.459
23107SOL    HW171153   4.479  14.865  10.534
23107SOL    HW271154   4.555   0.115  10.497
23108SOL     OW71155   6.257   6.326   5.821
23108SOL    HW171156   6.221   6.237   5.818
23108SOL    HW271157   6.181   6.383   5.827
23109SOL     OW71158   1.150   1.532  14.122
23109SOL    HW171159   1.127   1.522  14.029
23109SOL    HW271160   1.228   1.478  14.133
23110SOL     OW71161  14.153   1.391   9.480
23110SOL    HW171162  14.119   1.473   9.442
23110SOL    HW271163  14.244   1.388   9.450
23111SOL     OW71164   9.680   2.736   4.495
23111SOL    HW171165   9.636   2.693   4.568
23111SOL    HW271166   9.729   2.666   4.453
23112SOL     OW71167  14.800   4.604  13.583
23112SOL    HW171168  14.842   4.602  13.669
23112SOL    HW271169  14.720   4.655  13.596
23113SOL     OW71170   6.415   9.576  10.495
23113SOL    HW171171   6.327   9.595  10.528
23113SOL    HW271172   6.421   9.481  10.498
23114SOL     OW71173   7.192  11.506   8.319
23114SOL    HW171174   7.147  11.587   8.293
23114SOL    HW271175   7.124  11.452   8.359
23115SOL     OW71176   4.544   6.374   4.675
23115SOL    HW171177   4.634   6.348   4.653
23115SOL    HW271178   4.489   6.307   4.635
23116SOL     OW71179   5.635   1.842  12.723
23116SOL    HW171180   5.553   1.831  12.771
23116SOL    HW271181   5.617   1.805  12.636
23117SOL     OW71182  13.096  11.211  13.539
23117SOL    HW171183  13.041  11.287  13.517
23117SOL    HW271184  13.041  11.156  13.594
23118SOL     OW71185   9.785   9.642  11.519
23118SOL    HW171186   9.695   9.670  11.535
23118SOL    HW271187   9.801   9.665  11.427
23119SOL     OW71188  10.567   5.772  14.541
23119SOL    HW171189  10.601   5.685  14.519
23119SOL    HW271190  10.616   5.797  14.619
23120SOL     OW71191   9.971   1.685  10.457
23120SOL    HW171192  10.049   1.683  10.401
23120SOL    HW271193   9.995   1.632  10.533
23121SOL     OW71194  11.346   0.499   5.098
23121SOL    HW171195  11.358   0.411   5.134
23121SOL    HW271196  11.298   0.546   5.166
23122SOL     OW71197  13.757   2.182   6.685
23122SOL    HW171198  13.742   2.250   6.751
23122SOL    HW271199  13.779   2.230   6.605
23123SOL     OW71200   6.362  13.547   1.261
23123SOL    HW171201   6.454  13.529   1.241
23123SOL    HW271202   6.351  13.517   1.351
23124SOL     OW71203   0.171  10.968   7.214
23124SOL    HW171204   0.243  10.922   7.255
23124SOL    HW271205   0.189  11.061   7.229
23125SOL     OW71206  13.074  13.957  13.702
23125SOL    HW171207  13.037  13.871  13.683
23125SOL    HW271208  13.140  13.971  13.634
23126SOL     OW71209   8.279   8.221   9.920
23126SOL    HW171210   8.274   8.296   9.861
23126SOL    HW271211   8.352   8.241   9.978
23127SOL     OW71212  10.662  13.234   3.405
23127SOL    HW171213  10.719  13.190   3.342
23127SOL    HW271214  10.717  13.247   3.482
23128SOL     OW71215   9.625  12.521  11.290
23128SOL    HW171216   9.611  12.427  11.277
23128SOL    HW271217   9.701  12.541  11.236
23129SOL     OW71218  12.060  12.918   8.665
23129SOL    HW171219  12.111  12.944   8.588
23129SOL    HW271220  12.120  12.931   8.739
23130SOL     OW71221   3.463  14.721  12.883
23130SOL    HW171222   3.514  14.775  12.824
23130SOL    HW271223   3.389  14.776  12.910
23131SOL     OW71224   5.821  10.851  14.379
23131SOL    HW171225   5.912  10.824  14.371
23131SOL    HW271226   5.775  10.801  14.311
23132SOL     OW71227   0.854   9.072   8.725
23132SOL    HW171228   0.781   9.093   8.783
23132SOL    HW271229   0.845   9.133   8.652
23133SOL     OW71230  12.847   3.992   6.928
23133SOL    HW171231  12.894   4.076   6.930
23133SOL    HW271232  12.915   3.926   6.915
23134SOL     OW71233   8.081   5.738   8.882
23134SOL    HW171234   8.165   5.730   8.926
23134SOL    HW271235   8.020   5.766   8.951
23135SOL     OW71236   2.283   7.022   6.397
23135SOL    HW171237   2.246   6.933   6.397
23135SOL    HW271238   2.311   7.036   6.487
23136SOL     OW71239  14.235   8.635   3.764
23136SOL    HW171240  14.227   8.562   3.825
23136SOL    HW271241  14.149   8.677   3.765
23137SOL     OW71242   2.028  13.030   0.085
23137SOL    HW171243   2.009  12.937   0.072
23137SOL    HW271244   1.943  13.073   0.075
23138SOL     OW71245   1.330  12.569   8.655
23138SOL    HW171246   1.326  12.662   8.631
23138SOL    HW271247   1.414  12.539   8.621
23139SOL     OW71248   5.332   4.543  13.782
23139SOL    HW171249   5.288   4.561  13.699
23139SOL    HW271250   5.290   4.602  13.844
23140SOL     OW71251   8.435   8.605  13.532
23140SOL    HW171252   8.384   8.625  13.611
23140SOL    HW271253   8.503   8.672  13.528
23141SOL     OW71254   3.213  11.019   3.676
23141SOL    HW171255   3.275  11.030   3.748
23141SOL    HW271256   3.267  10.996   3.601
23142SOL     OW71257   3.651   8.467   6.926
23142SOL    HW171258   3.599   8.413   6.867
23142SOL    HW271259   3.593   8.483   7.001
23143SOL     OW71260   9.279   8.096   5.648
23143SOL    HW171261   9.308   8.006   5.664
23143SOL    HW271262   9.306   8.114   5.558
23144SOL     OW71263  11.178   9.609   7.807
23144SOL    HW171264  11.273   9.619   7.798
23144SOL    HW271265  11.165   9.519   7.837
23145SOL     OW71266  11.307   7.714   5.232
23145SOL    HW171267  11.329   7.683   5.144
23145SOL    HW271268  11.288   7.807   5.220
23146SOL     OW71269  12.959   1.152   9.533
23146SOL    HW171270  12.879   1.150   9.480
23146SOL    HW271271  12.995   1.240   9.521
23147SOL     OW71272   3.720   4.369   6.211
23147SOL    HW171273   3.796   4.314   6.231
23147SOL    HW271274   3.749   4.423   6.138
23148SOL     OW71275   7.683   1.415   3.141
23148SOL    HW171276   7.659   1.347   3.078
23148SOL    HW271277   7.734   1.369   3.208
23149SOL     OW71278   9.899   0.170   4.900
23149SOL    HW171279   9.883   0.082   4.933
23149SOL    HW271280   9.851   0.175   4.818
23150SOL     OW71281  11.215   1.834   4.072
23150SOL    HW171282  11.135   1.787   4.093
23150SOL    HW271283  11.186   1.923   4.050
23151SOL     OW71284  10.809  14.174  14.736
23151SOL    HW171285  10.901  14.197  14.720
23151SOL    HW271286  10.786  14.219  14.817
23152SOL     OW71287   4.401  11.717   8.802
23152SOL    HW171288   4.469  11.724   8.734
23152SOL    HW271289   4.435  11.767   8.876
23153SOL     OW71290  10.970   5.529   1.568
23153SOL    HW171291  11.019   5.449   1.547
23153SOL    HW271292  11.003   5.555   1.654
23154SOL     OW71293   8.660   4.483   4.532
23154SOL    HW171294   8.678   4.446   4.446
23154SOL    HW271295   8.665   4.408   4.592
23155SOL     OW71296   6.989  11.832   7.675
23155SOL    HW171297   6.986  11.898   7.744
23155SOL    HW271298   7.070  11.850   7.627
23156SOL     OW71299   2.299   9.108  12.725
23156SOL    HW171300   2.287   9.027  12.775
23156SOL    HW271301   2.381   9.096  12.679
23157SOL     OW71302   0.670  12.253  10.816
23157SOL    HW171303   0.726  12.322  10.781
23157SOL    HW271304   0.689  12.251  10.910
23158SOL     OW71305  13.904  11.644   8.013
23158SOL    HW171306  13.833  11.607   7.962
23158SOL    HW271307  13.924  11.727   7.970
23159SOL     OW71308   3.139   8.469   6.207
23159SOL    HW171309   3.200   8.472   6.133
23159SOL    HW271310   3.190   8.431   6.278
23160SOL     OW71311   8.940   3.289   0.182
23160SOL    HW171312   9.023   3.280   0.137
23160SOL    HW271313   8.909   3.377   0.159
23161SOL     OW71314  11.879   6.119  10.221
23161SOL    HW171315  11.844   6.109  10.309
23161SOL    HW271316  11.918   6.207  10.221
23162SOL     OW71317   6.876   4.832  11.163
23162SOL    HW171318   6.872   4.906  11.224
23162SOL    HW271319   6.886   4.755  11.220
23163SOL     OW71320   9.794   3.503  11.037
23163SOL    HW171321   9.700   3.512  11.048
23163SOL    HW271322   9.818   3.575  10.978
23164SOL     OW71323   0.182   8.288   7.944
23164SOL    HW171324   0.218   8.221   7.885
23164SOL    HW271325   0.259   8.329   7.984
23165SOL     OW71326  11.326   1.796   7.126
23165SOL    HW171327  11.255   1.856   7.103
23165SOL    HW271328  11.282   1.722   7.166
23166SOL     OW71329   5.734  11.740   5.437
23166SOL    HW171330   5.826  11.749   5.462
23166SOL    HW271331   5.723  11.645   5.424
23167SOL     OW71332   0.929   9.280  11.406
23167SOL    HW171333   0.939   9.298  11.500
23167SOL    HW271334   0.871   9.349  11.374
23168SOL     OW71335   4.781  10.121   2.810
23168SOL    HW171336   4.801  10.106   2.718
23168SOL    HW271337   4.845  10.069   2.858
23169SOL     OW71338  12.452   2.549   8.138
23169SOL    HW171339  12.364   2.512   8.150
23169SOL    HW271340  12.447   2.598   8.057
23170SOL     OW71341   2.146   2.506  11.560
23170SOL    HW171342   2.172   2.422  11.521
23170SOL    HW271343   2.135   2.564  11.486
23171SOL     OW71344  13.724  12.320   0.663
23171SOL    HW171345  13.667  12.284   0.594
23171SOL    HW271346  13.699  12.272   0.742
23172SOL     OW71347  13.237   8.372  12.417
23172SOL    HW171348  13.310   8.415  12.460
23172SOL    HW271349  13.278   8.306  12.361
23173SOL     OW71350  14.572   1.414  10.370
23173SOL    HW171351  14.507   1.394  10.302
23173SOL    HW271352  14.559   1.507  10.390
23174SOL     OW71353   4.941   6.119  11.681
23174SOL    HW171354   5.024   6.158  11.707
23174SOL    HW271355   4.880   6.192  11.676
23175SOL     OW71356  10.199   9.437  10.809
23175SOL    HW171357  10.276   9.443  10.752
23175SOL    HW271358  10.200   9.347  10.841
23176SOL     OW71359   5.567   4.358   5.366
23176SOL    HW171360   5.575   4.371   5.271
23176SOL    HW271361   5.561   4.263   5.376
23177SOL     OW71362   1.241   1.841   7.532
23177SOL    HW171363   1.239   1.749   7.505
23177SOL    HW271364   1.218   1.839   7.624
23178SOL     OW71365   5.811   6.800   5.586
23178SOL    HW171366   5.788   6.736   5.652
23178SOL    HW271367   5.864   6.865   5.633
23179SOL     OW71368   1.207   5.926   5.612
23179SOL    HW171369   1.208   6.021   5.623
23179SOL    HW271370   1.269   5.909   5.541
23180SOL     OW71371   8.572  12.596   1.754
23180SOL    HW171372   8.600  12.630   1.839
23180SOL    HW271373   8.607  12.659   1.691
23181SOL     OW71374  13.993  11.231  12.364
23181SOL    HW171375  13.921  11.188  12.317
23181SOL    HW271376  13.950  11.303  12.411
23182SOL     OW71377   1.122   4.539  13.316
23182SOL    HW171378   1.160   4.451  13.313
23182SOL    HW271379   1.157   4.577  13.397
23183SOL     OW71380  11.292   8.743   0.906
23183SOL    HW171381  11.343   8.663   0.892
23183SOL    HW271382  11.344   8.812   0.867
23184SOL     OW71383   3.939   0.125  13.501
23184SOL    HW171384   3.949   0.128  13.406
23184SOL    HW271385   4.024   0.095  13.533
23185SOL     OW71386   8.656   5.061   9.636
23185SOL    HW171387   8.736   5.110   9.616
23185SOL    HW271388   8.585   5.124   9.621
23186SOL     OW71389   7.315   3.759   4.694
23186SOL    HW171390   7.363   3.842   4.694
23186SOL    HW271391   7.240   3.776   4.637
23187SOL     OW71392   4.383   9.620   9.088
23187SOL    HW171393   4.448   9.687   9.104
23187SOL    HW271394   4.335   9.613   9.171
23188SOL     OW71395   8.394   2.183  14.513
23188SOL    HW171396   8.409   2.098  14.470
23188SOL    HW271397   8.303   2.204  14.493
23189SOL     OW71398  12.327   8.457   8.047
23189SOL    HW171399  12.258   8.476   8.111
23189SOL    HW271400  12.294   8.381   7.998
23190SOL     OW71401   5.694   4.869   6.548
23190SOL    HW171402   5.717   4.816   6.624
23190SOL    HW271403   5.736   4.954   6.565
23191SOL     OW71404   7.545   3.625   1.881
23191SOL    HW171405   7.603   3.638   1.956
23191SOL    HW271406   7.577   3.686   1.815
23192SOL     OW71407  14.631   2.452  11.452
23192SOL    HW171408  14.706   2.398  11.479
23192SOL    HW271409  14.602   2.495  11.533
23193SOL     OW71410  10.971   0.566  11.300
23193SOL    HW171411  10.996   0.554  11.392
23193SOL    HW271412  11.052   0.552  11.251
23194SOL     OW71413   7.886   6.002   0.207
23194SOL    HW171414   7.912   6.000   0.115
23194SOL    HW271415   7.804   5.951   0.210
23195SOL     OW71416   4.456   2.625   7.362
23195SOL    HW171417   4.373   2.625   7.315
23195SOL    HW271418   4.504   2.550   7.327
23196SOL     OW71419   9.611  11.109   7.143
23196SOL    HW171420   9.517  11.125   7.136
23196SOL    HW271421   9.650  11.172   7.082
23197SOL     OW71422   7.846  14.593   9.823
23197SOL    HW171423   7.931  14.584   9.867
23197SOL    HW271424   7.783  14.590   9.895
23198SOL     OW71425   8.411   6.926   0.518
23198SOL    HW171426   8.408   6.929   0.423
23198SOL    HW271427   8.344   6.989   0.546
23199SOL     OW71428   2.031   8.898   6.520
23199SOL    HW171429   1.981   8.825   6.485
23199SOL    HW271430   2.120   8.864   6.530
23200SOL     OW71431   5.473  13.576   5.328
23200SOL    HW171432   5.402  13.620   5.374
23200SOL    HW271433   5.433  13.541   5.249
23201SOL     OW71434  11.960   2.152   4.784
23201SOL    HW171435  12.050   2.174   4.758
23201SOL    HW271436  11.964   2.144   4.879
23202SOL     OW71437  11.100   0.880   3.912
23202SOL    HW171438  11.161   0.817   3.874
23202SOL    HW271439  11.143   0.910   3.992
23203SOL     OW71440   1.261   6.455   9.324
23203SOL    HW171441   1.303   6.439   9.239
23203SOL    HW271442   1.253   6.368   9.363
23204SOL     OW71443  10.991   7.276   2.087
23204SOL    HW171444  11.028   7.298   2.002
23204SOL    HW271445  10.917   7.219   2.068
23205SOL     OW71446   8.971   1.407   3.162
23205SOL    HW171447   9.007   1.346   3.227
23205SOL    HW271448   8.943   1.482   3.214
23206SOL     OW71449   9.779   1.990   7.164
23206SOL    HW171450   9.784   2.075   7.209
23206SOL    HW271451   9.839   2.000   7.090
23207SOL     OW71452   6.931  13.473  11.761
23207SOL    HW171453   6.945  13.433  11.675
23207SOL    HW271454   6.868  13.543  11.745
23208SOL     OW71455   5.818  14.334   0.077
23208SOL    HW171456   5.878  14.385   0.023
23208SOL    HW271457   5.866  14.254   0.097
23209SOL     OW71458   8.374   9.019   8.521
23209SOL    HW171459   8.324   8.939   8.508
23209SOL    HW271460   8.354   9.045   8.611
23210SOL     OW71461   6.313   2.983   6.296
23210SOL    HW171462   6.332   3.064   6.343
23210SOL    HW271463   6.221   2.965   6.315
23211SOL     OW71464   8.599   3.645  13.982
23211SOL    HW171465   8.631   3.584  13.916
23211SOL    HW271466   8.510   3.667  13.954
23212SOL     OW71467  10.001   7.433   4.625
23212SOL    HW171468  10.074   7.492   4.642
23212SOL    HW271469   9.925   7.477   4.664
23213SOL     OW71470   0.017   7.462   7.136
23213SOL    HW171471  14.843   7.381   7.147
23213SOL    HW271472  14.832   7.531   7.161
23214SOL     OW71473   2.982   9.735   2.298
23214SOL    HW171474   3.076   9.721   2.287
23214SOL    HW271475   2.944   9.647   2.287
23215SOL     OW71476  12.834   1.676  13.849
23215SOL    HW171477  12.752   1.648  13.890
23215SOL    HW271478  12.860   1.754  13.899
23216SOL     OW71479  14.774  11.712  12.734
23216SOL    HW171480  14.710  11.741  12.799
23216SOL    HW271481  14.726  11.712  12.651
23217SOL     OW71482  14.663  14.834  11.378
23217SOL    HW171483  14.653  14.755  11.431
23217SOL    HW271484  14.741  14.817  11.324
23218SOL     OW71485   2.348  11.274   4.863
23218SOL    HW171486   2.398  11.247   4.787
23218SOL    HW271487   2.388  11.356   4.891
23219SOL     OW71488   5.030   3.698   5.949
23219SOL    HW171489   4.975   3.737   5.881
23219SOL    HW271490   5.119   3.707   5.916
23220SOL     OW71491  12.309   9.981   5.762
23220SOL    HW171492  12.288   9.962   5.671
23220SOL    HW271493  12.402   9.962   5.770
23221SOL     OW71494  14.178   2.738   7.139
23221SOL    HW171495  14.112   2.723   7.207
23221SOL    HW271496  14.233   2.808   7.174
23222SOL     OW71497  10.221   7.367   2.607
23222SOL    HW171498  10.202   7.326   2.692
23222SOL    HW271499  10.228   7.460   2.627
23223SOL     OW71500   8.572   5.724   0.455
23223SOL    HW171501   8.658   5.683   0.448
23223SOL    HW271502   8.591   5.816   0.473
23224SOL     OW71503   3.514  11.266  14.495
23224SOL    HW171504   3.422  11.240  14.504
23224SOL    HW271505   3.562  11.184  14.489
23225SOL     OW71506  12.340  11.014   7.983
23225SOL    HW171507  12.431  10.986   7.995
23225SOL    HW271508  12.309  11.034   8.072
23226SOL     OW71509  12.324   7.268   7.363
23226SOL    HW171510  12.400   7.302   7.317
23226SOL    HW271511  12.250   7.319   7.329
23227SOL     OW71512   2.527   2.355   5.559
23227SOL    HW171513   2.523   2.437   5.609
23227SOL    HW271514   2.481   2.291   5.614
23228SOL     OW71515   4.211   0.098  13.581
23228SOL    HW171516   4.294   0.146  13.584
23228SOL    HW271517   4.168   0.118  13.664
23229SOL     OW71518   3.742   4.250   0.766
23229SOL    HW171519   3.748   4.161   0.731
23229SOL    HW271520   3.802   4.250   0.840
23230SOL     OW71521  10.283   9.082   8.997
23230SOL    HW171522  10.195   9.049   8.981
23230SOL    HW271523  10.305   9.051   9.085
23231SOL     OW71524  13.863  11.233   8.037
23231SOL    HW171525  13.888  11.186   8.117
23231SOL    HW271526  13.772  11.260   8.053
23232SOL     OW71527  12.969   4.565   2.313
23232SOL    HW171528  13.063   4.564   2.328
23232SOL    HW271529  12.936   4.491   2.362
23233SOL     OW71530   6.941   6.794   2.133
23233SOL    HW171531   7.013   6.732   2.137
23233SOL    HW271532   6.983   6.877   2.110
23234SOL     OW71533   7.414  13.954  12.637
23234SOL    HW171534   7.445  13.871  12.601
23234SOL    HW271535   7.408  13.939  12.731
23235SOL     OW71536   0.929   0.966  13.097
23235SOL    HW171537   0.921   0.870  13.093
23235SOL    HW271538   0.839   0.997  13.082
23236SOL     OW71539  14.282   1.718  10.315
23236SOL    HW171540  14.252   1.672  10.394
23236SOL    HW271541  14.209   1.775  10.292
23237SOL     OW71542   6.094  14.439  10.150
23237SOL    HW171543   6.140  14.359  10.122
23237SOL    HW271544   6.154  14.510  10.127
23238SOL     OW71545   8.615   5.576  13.198
23238SOL    HW171546   8.540   5.635  13.201
23238SOL    HW271547   8.635   5.566  13.105
23239SOL     OW71548  12.991   8.957   6.609
23239SOL    HW171549  12.947   8.889   6.558
23239SOL    HW271550  12.982   9.036   6.555
23240SOL     OW71551  13.680  11.207  11.171
23240SOL    HW171552  13.661  11.238  11.083
23240SOL    HW271553  13.745  11.269  11.204
23241SOL     OW71554  11.800  12.904   6.751
23241SOL    HW171555  11.778  12.838   6.685
23241SOL    HW271556  11.893  12.920   6.738
23242SOL     OW71557   4.184   3.879   1.398
23242SOL    HW171558   4.220   3.883   1.310
23242SOL    HW271559   4.191   3.787   1.423
23243SOL     OW71560   3.038   0.137  12.878
23243SOL    HW171561   3.056   0.051  12.916
23243SOL    HW271562   3.116   0.157  12.825
23244SOL     OW71563  14.595   7.646  11.422
23244SOL    HW171564  14.592   7.678  11.331
23244SOL    HW271565  14.514   7.679  11.461
23245SOL     OW71566   9.466  11.935   7.315
23245SOL    HW171567   9.516  12.008   7.278
23245SOL    HW271568   9.531  11.879   7.356
23246SOL     OW71569   4.521   6.860   1.742
23246SOL    HW171570   4.484   6.782   1.783
23246SOL    HW271571   4.582   6.894   1.807
23247SOL     OW71572  14.446   4.404   5.741
23247SOL    HW171573  14.532   4.414   5.781
23247SOL    HW271574  14.390   4.374   5.812
23248SOL     OW71575   9.773  12.791  14.307
23248SOL    HW171576   9.709  12.824  14.244
23248SOL    HW271577   9.793  12.703  14.276
23249SOL     OW71578   2.396  11.262   8.183
23249SOL    HW171579   2.335  11.191   8.205
23249SOL    HW271580   2.451  11.271   8.260
23250SOL     OW71581  11.656  13.340   1.367
23250SOL    HW171582  11.664  13.308   1.278
23250SOL    HW271583  11.616  13.427   1.358
23251SOL     OW71584  14.810   7.409  13.465
23251SOL    HW171585   0.008   7.361  13.502
23251SOL    HW271586  14.827   7.501  13.486
23252SOL     OW71587  13.726   4.062  12.059
23252SOL    HW171588  13.686   4.024  12.137
23252SOL    HW271589  13.813   4.023  12.054
23253SOL     OW71590  10.014  11.169   1.046
23253SOL    HW171591  10.068  11.248   1.038
23253SOL    HW271592   9.994  11.144   0.956
23254SOL     OW71593  12.985  10.737   2.353
23254SOL    HW171594  12.890  10.727   2.360
23254SOL    HW271595  12.998  10.828   2.326
23255SOL     OW71596   7.745   5.944   7.979
23255SOL    HW171597   7.832   5.961   7.942
23255SOL    HW271598   7.726   5.853   7.957
23256SOL     OW71599  12.077   7.433   0.802
23256SOL    HW171600  12.047   7.400   0.717
23256SOL    HW271601  11.997   7.446   0.852
23257SOL     OW71602   3.082   1.001  11.558
23257SOL    HW171603   3.089   1.006  11.653
23257SOL    HW271604   3.053   1.088  11.531
23258SOL     OW71605  11.373   7.750  13.858
23258SOL    HW171606  11.328   7.832  13.836
23258SOL    HW271607  11.325   7.715  13.932
23259SOL     OW71608   8.865   1.241   3.450
23259SOL    HW171609   8.858   1.164   3.507
23259SOL    HW271610   8.951   1.234   3.410
23260SOL     OW71611   4.718   2.646  14.149
23260SOL    HW171612   4.666   2.630  14.227
23260SOL    HW271613   4.663   2.616  14.076
23261SOL     OW71614   6.137   1.180   5.508
23261SOL    HW171615   6.085   1.153   5.583
23261SOL    HW271616   6.129   1.108   5.445
23262SOL     OW71617  12.017  11.210  11.031
23262SOL    HW171618  11.937  11.248  10.996
23262SOL    HW271619  12.036  11.136  10.973
23263SOL     OW71620   9.493   7.861   3.512
23263SOL    HW171621   9.532   7.888   3.595
23263SOL    HW271622   9.427   7.795   3.536
23264SOL     OW71623   6.885   8.937   6.040
23264SOL    HW171624   6.944   8.872   6.077
23264SOL    HW271625   6.875   8.911   5.949
23265SOL     OW71626   4.111   8.169  11.228
23265SOL    HW171627   4.206   8.159  11.228
23265SOL    HW271628   4.097   8.263  11.229
23266SOL     OW71629  13.721   9.028   9.921
23266SOL    HW171630  13.697   9.042   9.829
23266SOL    HW271631  13.654   8.968   9.954
23267SOL     OW71632   0.375   3.031   9.849
23267SOL    HW171633   0.322   3.018   9.928
23267SOL    HW271634   0.367   2.949   9.800
23268SOL     OW71635   2.377  12.866  11.496
23268SOL    HW171636   2.330  12.903  11.570
23268SOL    HW271637   2.311  12.814  11.449
23269SOL     OW71638   8.113  12.191   9.334
23269SOL    HW171639   8.175  12.219   9.402
23269SOL    HW271640   8.167  12.175   9.257
23270SOL     OW71641  13.125   5.251   1.091
23270SOL    HW171642  13.096   5.221   1.177
23270SOL    HW271643  13.214   5.217   1.082
23271SOL     OW71644  12.067  11.660   1.379
23271SOL    HW171645  12.078  11.715   1.301
23271SOL    HW271646  12.075  11.571   1.346
23272SOL     OW71647  11.477   0.395   5.757
23272SOL    HW171648  11.488   0.456   5.830
23272SOL    HW271649  11.425   0.323   5.793
23273SOL     OW71650  10.674   1.374   9.419
23273SOL    HW171651  10.608   1.408   9.359
23273SOL    HW271652  10.731   1.448   9.437
23274SOL     OW71653   4.657  14.811   1.453
23274SOL    HW171654   4.620  14.737   1.406
23274SOL    HW271655   4.742  14.780   1.485
23275SOL     OW71656   0.222  14.191   2.651
23275SOL    HW171657   0.170  14.120   2.612
23275SOL    HW271658   0.291  14.146   2.700
23276SOL     OW71659   4.727   0.749   8.195
23276SOL    HW171660   4.686   0.690   8.258
23276SOL    HW271661   4.662   0.819   8.183
23277SOL     OW71662   7.314   0.065   1.447
23277SOL    HW171663   7.282   0.109   1.525
23277SOL    HW271664   7.236   0.047   1.395
23278SOL     OW71665  13.511   6.232  10.279
23278SOL    HW171666  13.451   6.237  10.204
23278SOL    HW271667  13.496   6.315  10.326
23279SOL     OW71668  14.817   8.292  10.480
23279SOL    HW171669  14.768   8.359  10.433
23279SOL    HW271670   0.003   8.341  10.534
23280SOL     OW71671  13.957   6.328   5.985
23280SOL    HW171672  13.976   6.416   6.015
23280SOL    HW271673  14.044   6.287   5.974
23281SOL     OW71674   9.222   8.408   9.560
23281SOL    HW171675   9.211   8.490   9.513
23281SOL    HW271676   9.220   8.341   9.491
23282SOL     OW71677   8.806   2.399   3.222
23282SOL    HW171678   8.817   2.440   3.308
23282SOL    HW271679   8.863   2.323   3.224
23283SOL     OW71680   1.920   3.504   3.165
23283SOL    HW171681   1.963   3.510   3.251
23283SOL    HW271682   1.846   3.445   3.180
23284SOL     OW71683   1.168   3.844   3.454
23284SOL    HW171684   1.217   3.920   3.486
23284SOL    HW271685   1.097   3.833   3.517
23285SOL     OW71686   0.565   3.741   7.986
23285SOL    HW171687   0.624   3.750   7.911
23285SOL    HW271688   0.623   3.731   8.061
23286SOL     OW71689   1.094   1.299   6.092
23286SOL    HW171690   1.060   1.334   6.175
23286SOL    HW271691   1.050   1.215   6.082
23287SOL     OW71692   0.756   1.309  12.881
23287SOL    HW171693   0.842   1.274  12.859
23287SOL    HW271694   0.698   1.274  12.813
23288SOL     OW71695  11.615   2.865  10.960
23288SOL    HW171696  11.668   2.889  11.036
23288SOL    HW271697  11.582   2.778  10.980
23289SOL     OW71698   0.156   4.579   9.027
23289SOL    HW171699   0.221   4.513   9.006
23289SOL    HW271700   0.072   4.534   9.020
23290SOL     OW71701   5.013   0.566   9.130
23290SOL    HW171702   5.106   0.556   9.152
23290SOL    HW271703   4.970   0.578   9.215
23291SOL     OW71704   1.090   4.585  14.591
23291SOL    HW171705   1.022   4.531  14.632
23291SOL    HW271706   1.164   4.524  14.579
23292SOL     OW71707   2.119   6.542   1.362
23292SOL    HW171708   2.085   6.544   1.451
23292SOL    HW271709   2.049   6.503   1.310
23293SOL     OW71710  13.646   8.350   1.833
23293SOL    HW171711  13.575   8.313   1.779
23293SOL    HW271712  13.724   8.342   1.779
23294SOL     OW71713   8.148   4.999  14.300
23294SOL    HW171714   8.086   5.054  14.252
23294SOL    HW271715   8.101   4.916  14.314
23295SOL     OW71716   5.776   2.236  13.556
23295SOL    HW171717   5.828   2.235  13.475
23295SOL    HW271718   5.744   2.325  13.563
23296SOL     OW71719   5.314   4.923   0.423
23296SOL    HW171720   5.241   4.928   0.361
23296SOL    HW271721   5.272   4.901   0.507
23297SOL     OW71722   2.287   6.495   7.406
23297SOL    HW171723   2.245   6.496   7.320
23297SOL    HW271724   2.377   6.522   7.389
23298SOL     OW71725  10.821  14.638   5.997
23298SOL    HW171726  10.881  14.669   6.065
23298SOL    HW271727  10.762  14.578   6.043
23299SOL     OW71728  12.058  10.175   2.932
23299SOL    HW171729  12.133  10.199   2.987
23299SOL    HW271730  11.988  10.232   2.962
23300SOL     OW71731   7.545   9.011   2.689
23300SOL    HW171732   7.530   9.078   2.756
23300SOL    HW271733   7.585   9.058   2.617
23301SOL     OW71734   4.984  11.046   4.883
23301SOL    HW171735   4.914  11.005   4.934
23301SOL    HW271736   5.039  10.973   4.856
23302SOL     OW71737   8.600  11.037  11.565
23302SOL    HW171738   8.517  10.990  11.554
23302SOL    HW271739   8.585  11.121  11.521
23303SOL     OW71740   6.999   3.753   1.002
23303SOL    HW171741   7.088   3.767   0.969
23303SOL    HW271742   6.946   3.820   0.959
23304SOL     OW71743   8.540  13.747   6.241
23304SOL    HW171744   8.608  13.680   6.239
23304SOL    HW271745   8.518  13.757   6.333
23305SOL     OW71746  14.809   6.935   3.513
23305SOL    HW171747  14.784   6.886   3.591
23305SOL    HW271748  14.754   6.899   3.443
23306SOL     OW71749  12.353  13.019   4.107
23306SOL    HW171750  12.267  13.061   4.099
23306SOL    HW271751  12.346  12.966   4.186
23307SOL     OW71752   4.395  11.445   2.160
23307SOL    HW171753   4.302  11.467   2.167
23307SOL    HW271754   4.411  11.438   2.066
23308SOL     OW71755  13.377   4.962   9.471
23308SOL    HW171756  13.401   4.880   9.513
23308SOL    HW271757  13.361   4.938   9.380
23309SOL     OW71758  14.611   6.579   2.361
23309SOL    HW171759  14.612   6.633   2.282
23309SOL    HW271760  14.590   6.491   2.330
23310SOL     OW71761   5.264   8.144   7.695
23310SOL    HW171762   5.300   8.205   7.631
23310SOL    HW271763   5.338   8.089   7.719
23311SOL     OW71764   0.301   2.217   5.876
23311SOL    HW171765   0.259   2.240   5.958
23311SOL    HW271766   0.232   2.177   5.823
23312SOL     OW71767   5.469   6.399   7.557
23312SOL    HW171768   5.479   6.404   7.652
23312SOL    HW271769   5.532   6.462   7.523
23313SOL     OW71770   7.936  14.398  10.161
23313SOL    HW171771   7.948  14.303  10.153
23313SOL    HW271772   7.846  14.413  10.130
23314SOL     OW71773  12.633  11.775   7.616
23314SOL    HW171774  12.662  11.811   7.700
23314SOL    HW271775  12.669  11.687   7.614
23315SOL     OW71776  13.024  14.652  13.592
23315SOL    HW171777  12.975  14.718  13.641
23315SOL    HW271778  13.111  14.652  13.632
23316SOL     OW71779   0.245  10.864   6.573
23316SOL    HW171780   0.230  10.851   6.479
23316SOL    HW271781   0.339  10.854   6.584
23317SOL     OW71782   2.947   9.880   0.792
23317SOL    HW171783   3.004   9.820   0.840
23317SOL    HW271784   2.859   9.864   0.828
23318SOL     OW71785   8.889  13.952   8.759
23318SOL    HW171786   8.835  13.898   8.818
23318SOL    HW271787   8.977  13.916   8.769
23319SOL     OW71788   4.001   2.468   9.596
23319SOL    HW171789   4.045   2.544   9.632
23319SOL    HW271790   4.015   2.399   9.661
23320SOL     OW71791   4.534   9.115   3.090
23320SOL    HW171792   4.506   9.041   3.143
23320SOL    HW271793   4.596   9.077   3.027
23321SOL     OW71794   4.382   9.136  14.287
23321SOL    HW171795   4.344   9.054  14.318
23321SOL    HW271796   4.317   9.203  14.310
23322SOL     OW71797   6.816   5.808   0.537
23322SOL    HW171798   6.823   5.756   0.617
23322SOL    HW271799   6.747   5.767   0.486
23323SOL     OW71800   7.140   7.126  10.670
23323SOL    HW171801   7.148   7.221  10.678
23323SOL    HW271802   7.053   7.113  10.632
23324SOL     OW71803   7.523  11.754  11.154
23324SOL    HW171804   7.539  11.674  11.103
23324SOL    HW271805   7.602  11.807  11.142
23325SOL     OW71806  11.507  11.268   0.907
23325SOL    HW171807  11.504  11.345   0.850
23325SOL    HW271808  11.574  11.212   0.868
23326SOL     OW71809   3.329   4.619   3.860
23326SOL    HW171810   3.258   4.659   3.909
23326SOL    HW271811   3.329   4.527   3.887
23327SOL     OW71812   6.608  12.812  10.565
23327SOL    HW171813   6.609  12.764  10.482
23327SOL    HW271814   6.522  12.792  10.602
23328SOL     OW71815  10.695  10.910   4.451
23328SOL    HW171816  10.629  10.842   4.446
23328SOL    HW271817  10.681  10.950   4.538
23329SOL     OW71818   1.800   3.359   0.209
23329SOL    HW171819   1.812   3.361   0.114
23329SOL    HW271820   1.884   3.388   0.245
23330SOL     OW71821   5.179  13.537   6.454
23330SOL    HW171822   5.115  13.589   6.405
23330SOL    HW271823   5.194  13.587   6.535
23331SOL     OW71824   6.395   6.432   7.032
23331SOL    HW171825   6.459   6.500   7.053
23331SOL    HW271826   6.398   6.425   6.937
23332SOL     OW71827  14.425  10.476  11.494
23332SOL    HW171828  14.391  10.511  11.576
23332SOL    HW271829  14.351  10.482  11.433
23333SOL     OW71830   1.658  11.430  10.664
23333SOL    HW171831   1.728  11.495  10.668
23333SOL    HW271832   1.601  11.452  10.737
23334SOL     OW71833  10.215   1.285   3.286
23334SOL    HW171834  10.196   1.208   3.339
23334SOL    HW271835  10.251   1.251   3.204
23335SOL     OW71836   0.745  10.082   0.339
23335SOL    HW171837   0.833  10.046   0.329
23335SOL    HW271838   0.688  10.021   0.293
23336SOL     OW71839   0.141   7.900   8.484
23336SOL    HW171840   0.050   7.921   8.503
23336SOL    HW271841   0.139   7.809   8.455
23337SOL     OW71842  12.893   3.988   9.183
23337SOL    HW171843  12.883   3.958   9.093
23337SOL    HW271844  12.825   3.941   9.232
23338SOL     OW71845  11.694  13.080  13.123
23338SOL    HW171846  11.730  13.158  13.166
23338SOL    HW271847  11.601  13.083  13.144
23339SOL     OW71848   0.631  13.722   4.477
23339SOL    HW171849   0.665  13.636   4.454
23339SOL    HW271850   0.696  13.758   4.538
23340SOL     OW71851   7.658  12.408  11.331
23340SOL    HW171852   7.720  12.352  11.285
23340SOL    HW271853   7.653  12.487  11.278
23341SOL     OW71854   1.027   4.710   8.923
23341SOL    HW171855   0.968   4.645   8.885
23341SOL    HW271856   1.077   4.661   8.989
23342SOL     OW71857   9.852  11.942   7.640
23342SOL    HW171858   9.799  11.988   7.575
23342SOL    HW271859   9.902  11.878   7.589
23343SOL     OW71860   1.845   1.078   0.388
23343SOL    HW171861   1.765   1.026   0.395
23343SOL    HW271862   1.911   1.015   0.360
23344SOL     OW71863   4.940   1.101   0.805
23344SOL    HW171864   4.967   1.027   0.859
23344SOL    HW271865   4.870   1.143   0.855
23345SOL     OW71866  10.097   5.619  12.721
23345SOL    HW171867  10.125   5.709  12.740
23345SOL    HW271868  10.003   5.620  12.737
23346SOL     OW71869  11.179   2.961   8.100
23346SOL    HW171870  11.214   2.935   8.185
23346SOL    HW271871  11.224   2.904   8.037
23347SOL     OW71872   3.503   5.107  12.050
23347SOL    HW171873   3.595   5.121  12.027
23347SOL    HW271874   3.481   5.181  12.107
23348SOL     OW71875   4.284  14.520   1.644
23348SOL    HW171876   4.223  14.584   1.608
23348SOL    HW271877   4.367  14.566   1.648
23349SOL     OW71878  11.710  14.742   3.186
23349SOL    HW171879  11.629  14.760   3.138
23349SOL    HW271880  11.705  14.798   3.264
23350SOL     OW71881   6.925  11.352   4.634
23350SOL    HW171882   6.924  11.363   4.729
23350SOL    HW271883   6.867  11.420   4.601
23351SOL     OW71884   1.156   9.529   7.403
23351SOL    HW171885   1.241   9.492   7.426
23351SOL    HW271886   1.093   9.461   7.427
23352SOL     OW71887   4.205   6.880   0.713
23352SOL    HW171888   4.202   6.966   0.754
23352SOL    HW271889   4.245   6.823   0.780
23353SOL     OW71890   0.303   8.342  13.199
23353SOL    HW171891   0.311   8.248  13.183
23353SOL    HW271892   0.320   8.383  13.115
23354SOL     OW71893   5.251  14.118   9.479
23354SOL    HW171894   5.241  14.051   9.412
23354SOL    HW271895   5.258  14.069   9.561
23355SOL     OW71896   2.234   1.410   2.405
23355SOL    HW171897   2.253   1.456   2.487
23355SOL    HW271898   2.207   1.480   2.345
23356SOL     OW71899  10.355  14.434   5.841
23356SOL    HW171900  10.414  14.362   5.862
23356SOL    HW271901  10.395  14.476   5.765
23357SOL     OW71902   3.496   4.437   7.608
23357SOL    HW171903   3.475   4.530   7.604
23357SOL    HW271904   3.437   4.401   7.674
23358SOL     OW71905  10.884   2.517   8.767
23358SOL    HW171906  10.868   2.610   8.753
23358SOL    HW271907  10.930   2.488   8.688
23359SOL     OW71908  14.348   6.099   1.566
23359SOL    HW171909  14.379   6.069   1.480
23359SOL    HW271910  14.372   6.028   1.626
23360SOL     OW71911   8.412  14.607   2.189
23360SOL    HW171912   8.335  14.636   2.140
23360SOL    HW271913   8.476  14.585   2.121
23361SOL     OW71914  11.415   6.024  12.386
23361SOL    HW171915  11.377   5.948  12.430
23361SOL    HW271916  11.344   6.058  12.332
23362SOL     OW71917   7.681   3.509   9.776
23362SOL    HW171918   7.622   3.455   9.723
23362SOL    HW271919   7.752   3.532   9.716
23363SOL     OW71920  11.950   3.728   4.451
23363SOL    HW171921  11.946   3.823   4.463
23363SOL    HW271922  11.960   3.693   4.539
23364SOL     OW71923   4.557  11.205  11.193
23364SOL    HW171924   4.651  11.221  11.186
23364SOL    HW271925   4.533  11.237  11.280
23365SOL     OW71926   0.068   5.316   4.556
23365SOL    HW171927   0.098   5.279   4.639
23365SOL    HW271928  14.869   5.261   4.532
23366SOL     OW71929  14.690  14.108  12.141
23366SOL    HW171930  14.619  14.047  12.123
23366SOL    HW271931  14.696  14.110  12.236
23367SOL     OW71932   0.906   1.993   7.213
23367SOL    HW171933   0.879   2.035   7.295
23367SOL    HW271934   0.951   2.062   7.165
23368SOL     OW71935   1.282   8.396  13.031
23368SOL    HW171936   1.258   8.486  13.011
23368SOL    HW271937   1.201   8.346  13.021
23369SOL     OW71938  12.380   8.749  14.523
23369SOL    HW171939  12.318   8.689  14.563
23369SOL    HW271940  12.396   8.816  14.590
23370SOL     OW71941   8.789  12.082   6.571
23370SOL    HW171942   8.808  11.990   6.588
23370SOL    HW271943   8.712  12.080   6.514
23371SOL     OW71944  13.559   4.218   8.035
23371SOL    HW171945  13.487   4.219   8.097
23371SOL    HW271946  13.612   4.142   8.060
23372SOL     OW71947   4.358  13.126  10.401
23372SOL    HW171948   4.416  13.199  10.421
23372SOL    HW271949   4.405  13.049  10.432
23373SOL     OW71950  10.583   0.227   7.154
23373SOL    HW171951  10.489   0.238   7.139
23373SOL    HW271952  10.599   0.271   7.237
23374SOL     OW71953   1.749   5.103  12.043
23374SOL    HW171954   1.786   5.045  12.109
23374SOL    HW271955   1.670   5.058  12.013
23375SOL     OW71956   2.527   1.127   6.739
23375SOL    HW171957   2.563   1.178   6.667
23375SOL    HW271958   2.603   1.110   6.796
23376SOL     OW71959  14.570  13.275  11.508
23376SOL    HW171960  14.531  13.222  11.578
23376SOL    HW271961  14.569  13.364  11.542
23377SOL     OW71962   7.030  13.859   7.536
23377SOL    HW171963   7.024  13.848   7.631
23377SOL    HW271964   7.028  13.953   7.522
23378SOL     OW71965   5.402  13.154   2.784
23378SOL    HW171966   5.307  13.166   2.788
23378SOL    HW271967   5.423  13.160   2.691
23379SOL     OW71968  12.766   6.702   3.860
23379SOL    HW171969  12.772   6.797   3.858
23379SOL    HW271970  12.676   6.682   3.834
23380SOL     OW71971  10.790   1.631   9.735
23380SOL    HW171972  10.845   1.554   9.746
23380SOL    HW271973  10.727   1.626   9.807
23381SOL     OW71974   5.168   4.881   9.654
23381SOL    HW171975   5.130   4.873   9.566
23381SOL    HW271976   5.092   4.879   9.712
23382SOL     OW71977   9.718   6.571   0.654
23382SOL    HW171978   9.708   6.556   0.748
23382SOL    HW271979   9.773   6.499   0.624
23383SOL     OW71980  10.138   6.348  13.694
23383SOL    HW171981  10.076   6.300  13.640
23383SOL    HW271982  10.144   6.297  13.775
23384SOL     OW71983  13.812   5.167   8.286
23384SOL    HW171984  13.836   5.121   8.367
23384SOL    HW271985  13.828   5.260   8.306
23385SOL     OW71986   6.716   1.189   9.421
23385SOL    HW171987   6.679   1.203   9.508
23385SOL    HW271988   6.664   1.118   9.383
23386SOL     OW71989  13.549   7.310  13.331
23386SOL    HW171990  13.541   7.388  13.386
23386SOL    HW271991  13.509   7.240  13.383
23387SOL     OW71992   0.831   7.979   5.167
23387SOL    HW171993   0.915   7.936   5.152
23387SOL    HW271994   0.773   7.944   5.099
23388SOL     OW71995  14.747   8.142   3.337
23388SOL    HW171996  14.705   8.227   3.345
23388SOL    HW271997  14.695   8.096   3.270
23389SOL     OW71998   5.866  11.430   2.400
23389SOL    HW171999   5.859  11.356   2.339
23389SOL    HW272000   5.913  11.497   2.350
23390SOL     OW72001  12.879   9.498   7.380
23390SOL    HW172002  12.798   9.525   7.335
23390SOL    HW272003  12.935   9.465   7.310
23391SOL     OW72004  10.170  14.808   8.087
23391SOL    HW172005  10.195   0.024   8.098
23391SOL    HW272006  10.159  14.775   8.176
23392SOL     OW72007  12.607   9.842   2.403
23392SOL    HW172008  12.615   9.879   2.315
23392SOL    HW272009  12.580   9.751   2.389
23393SOL     OW72010   0.986  12.155   6.713
23393SOL    HW172011   1.020  12.194   6.633
23393SOL    HW272012   0.939  12.077   6.684
23394SOL     OW72013   9.316  10.539   2.386
23394SOL    HW172014   9.383  10.605   2.402
23394SOL    HW272015   9.285  10.514   2.473
23395SOL     OW72016   1.799   8.014  11.028
23395SOL    HW172017   1.873   8.030  10.969
23395SOL    HW272018   1.769   8.101  11.053
23396SOL     OW72019   4.027  14.460   4.669
23396SOL    HW172020   3.960  14.447   4.736
23396SOL    HW272021   4.067  14.545   4.691
23397SOL     OW72022  12.350  12.554  14.493
23397SOL    HW172023  12.387  12.583  14.409
23397SOL    HW272024  12.271  12.505  14.468
23398SOL     OW72025   7.841   2.606  14.621
23398SOL    HW172026   7.785   2.670  14.664
23398SOL    HW272027   7.785   2.528  14.612
23399SOL     OW72028   0.432   1.461   5.298
23399SOL    HW172029   0.429   1.485   5.206
23399SOL    HW272030   0.444   1.544   5.344
23400SOL     OW72031   4.788   7.250   6.360
23400SOL    HW172032   4.813   7.232   6.451
23400SOL    HW272033   4.697   7.279   6.366
23401SOL     OW72034   8.671   1.238  11.634
23401SOL    HW172035   8.699   1.156  11.594
23401SOL    HW272036   8.728   1.304  11.594
23402SOL     OW72037   9.661   8.731   0.464
23402SOL    HW172038   9.753   8.754   0.470
23402SOL    HW272039   9.652   8.652   0.516
23403SOL     OW72040   3.652   6.122   4.709
23403SOL    HW172041   3.724   6.185   4.712
23403SOL    HW272042   3.696   6.036   4.710
23404SOL     OW72043   5.922   8.964  13.634
23404SOL    HW172044   5.940   8.875  13.663
23404SOL    HW272045   5.906   9.013  13.715
23405SOL     OW72046  14.329  14.196   6.874
23405SOL    HW172047  14.425  14.202   6.876
23405SOL    HW272048  14.311  14.112   6.832
23406SOL     OW72049   0.676  13.615  14.653
23406SOL    HW172050   0.650  13.699  14.615
23406SOL    HW272051   0.690  13.634  14.746
23407SOL     OW72052   7.200  12.201  12.009
23407SOL    HW172053   7.210  12.165  12.097
23407SOL    HW272054   7.190  12.125  11.953
23408SOL     OW72055  13.546   8.605  12.825
23408SOL    HW172056  13.588   8.691  12.834
23408SOL    HW272057  13.511   8.586  12.912
23409SOL     OW72058   8.537   9.318  14.763
23409SOL    HW172059   8.606   9.326  14.697
23409SOL    HW272060   8.581   9.338  14.846
23410SOL     OW72061   3.971   2.792  11.330
23410SOL    HW172062   3.911   2.732  11.286
23410SOL    HW272063   3.972   2.764  11.421
23411SOL     OW72064  14.745   9.045   1.608
23411SOL    HW172065  14.759   9.064   1.515
23411SOL    HW272066  14.680   8.974   1.608
23412SOL     OW72067   9.020  11.382   0.480
23412SOL    HW172068   9.101  11.427   0.456
23412SOL    HW272069   9.002  11.325   0.405
23413SOL     OW72070   6.766   6.853  12.584
23413SOL    HW172071   6.750   6.772  12.633
23413SOL    HW272072   6.861   6.861  12.583
23414SOL     OW72073   4.940  13.200   6.071
23414SOL    HW172074   4.910  13.150   5.995
23414SOL    HW272075   5.018  13.153   6.101
23415SOL     OW72076   2.046  14.425   1.054
23415SOL    HW172077   1.972  14.364   1.047
23415SOL    HW272078   2.046  14.452   1.146
23416SOL     OW72079   7.757  14.714  11.685
23416SOL    HW172080   7.818  14.730  11.613
23416SOL    HW272081   7.700  14.644  11.653
23417SOL     OW72082   3.836   2.888  10.971
23417SOL    HW172083   3.775   2.956  10.944
23417SOL    HW272084   3.786   2.835  11.034
23418SOL     OW72085  12.578   2.156   2.659
23418SOL    HW172086  12.535   2.241   2.646
23418SOL    HW272087  12.620   2.137   2.575
23419SOL     OW72088   7.149  14.586  12.048
23419SOL    HW172089   7.056  14.567  12.059
23419SOL    HW272090   7.164  14.581  11.954
23420SOL     OW72091   7.112   5.805  11.422
23420SOL    HW172092   7.023   5.826  11.394
23420SOL    HW272093   7.161   5.797  11.341
23421SOL     OW72094   7.868   4.274   9.179
23421SOL    HW172095   7.861   4.368   9.160
23421SOL    HW272096   7.914   4.238   9.103
23422SOL     OW72097  13.880   4.876   9.101
23422SOL    HW172098  13.916   4.916   9.179
23422SOL    HW272099  13.954   4.831   9.060
23423SOL     OW72100   1.471   8.114   5.906
23423SOL    HW172101   1.448   8.024   5.882
23423SOL    HW272102   1.554   8.107   5.952
23424SOL     OW72103   1.087   9.478   9.375
23424SOL    HW172104   1.121   9.478   9.465
23424SOL    HW272105   1.117   9.561   9.338
23425SOL     OW72106   0.064  13.914   0.750
23425SOL    HW172107  14.873  13.884   0.688
23425SOL    HW272108   0.055  14.010   0.749
23426SOL     OW72109  11.691   0.302   8.806
23426SOL    HW172110  11.691   0.222   8.858
23426SOL    HW272111  11.771   0.348   8.832
23427SOL     OW72112  11.447   7.201   2.292
23427SOL    HW172113  11.388   7.277   2.302
23427SOL    HW272114  11.389   7.125   2.301
23428SOL     OW72115  14.831   3.465  14.064
23428SOL    HW172116  14.826   3.560  14.050
23428SOL    HW272117  14.780   3.451  14.144
23429SOL     OW72118   8.706  14.116   7.764
23429SOL    HW172119   8.791  14.135   7.802
23429SOL    HW272120   8.710  14.023   7.740
23430SOL     OW72121   4.406  12.134  10.517
23430SOL    HW172122   4.427  12.183  10.438
23430SOL    HW272123   4.338  12.072  10.490
23431SOL     OW72124  12.624   6.491   7.483
23431SOL    HW172125  12.565   6.555   7.523
23431SOL    HW272126  12.711   6.522   7.504
23432SOL     OW72127  12.747   8.733  10.303
23432SOL    HW172128  12.750   8.815  10.254
23432SOL    HW272129  12.815   8.742  10.369
23433SOL     OW72130  12.841   2.401   3.741
23433SOL    HW172131  12.853   2.369   3.652
23433SOL    HW272132  12.755   2.367   3.767
23434SOL     OW72133  10.751  11.134   2.569
23434SOL    HW172134  10.740  11.061   2.507
23434SOL    HW272135  10.761  11.091   2.654
23435SOL     OW72136   0.863   6.878   2.583
23435SOL    HW172137   0.858   6.973   2.577
23435SOL    HW272138   0.787   6.852   2.635
23436SOL     OW72139   6.386   2.496   4.030
23436SOL    HW172140   6.393   2.567   4.094
23436SOL    HW272141   6.302   2.512   3.986
23437SOL     OW72142   7.590  14.404   0.049
23437SOL    HW172143   7.665  14.459   0.071
23437SOL    HW272144   7.623  14.314   0.055
23438SOL     OW72145  11.408   2.417   3.514
23438SOL    HW172146  11.398   2.444   3.605
23438SOL    HW272147  11.328   2.448   3.471
23439SOL     OW72148   5.205  13.448   1.046
23439SOL    HW172149   5.240  13.483   0.964
23439SOL    HW272150   5.118  13.487   1.054
23440SOL     OW72151   2.237  11.632   0.675
23440SOL    HW172152   2.196  11.708   0.718
23440SOL    HW272153   2.276  11.583   0.747
23441SOL     OW72154  10.570   9.563  11.254
23441SOL    HW172155  10.617   9.638  11.290
23441SOL    HW272156  10.583   9.570  11.159
23442SOL     OW72157   4.846   2.443  14.734
23442SOL    HW172158   4.852   2.400  14.648
23442SOL    HW272159   4.935   2.438  14.769
23443SOL     OW72160  10.455   3.349   9.413
23443SOL    HW172161  10.364   3.348   9.384
23443SOL    HW272162  10.449   3.346   9.509
23444SOL     OW72163   0.235   1.587   4.946
23444SOL    HW172164   0.329   1.601   4.963
23444SOL    HW272165   0.202   1.674   4.922
23445SOL     OW72166   8.783  14.311   0.250
23445SOL    HW172167   8.806  14.386   0.196
23445SOL    HW272168   8.865  14.285   0.292
23446SOL     OW72169   5.065   5.625  12.813
23446SOL    HW172170   5.036   5.535  12.799
23446SOL    HW272171   5.003   5.679  12.765
23447SOL     OW72172  11.068  14.166   6.283
23447SOL    HW172173  11.002  14.233   6.294
23447SOL    HW272174  11.085  14.132   6.371
23448SOL     OW72175   1.087   5.968   6.377
23448SOL    HW172176   1.125   5.885   6.407
23448SOL    HW272177   0.993   5.949   6.370
23449SOL     OW72178  14.480   2.574  11.714
23449SOL    HW172179  14.469   2.664  11.685
23449SOL    HW272180  14.393   2.546  11.742
23450SOL     OW72181   2.631  14.269   3.971
23450SOL    HW172182   2.548  14.294   4.012
23450SOL    HW272183   2.689  14.249   4.044
23451SOL     OW72184  10.067   6.008  10.611
23451SOL    HW172185  10.144   6.011  10.667
23451SOL    HW272186   9.995   6.031  10.670
23452SOL     OW72187   4.349   8.687   6.935
23452SOL    HW172188   4.307   8.652   7.014
23452SOL    HW272189   4.277   8.699   6.873
23453SOL     OW72190  13.248   8.065   1.987
23453SOL    HW172191  13.230   8.156   1.963
23453SOL    HW272192  13.335   8.047   1.951
23454SOL     OW72193   1.740   4.607  12.438
23454SOL    HW172194   1.668   4.648  12.389
23454SOL    HW272195   1.741   4.516  12.408
23455SOL     OW72196   6.052  10.134  13.368
23455SOL    HW172197   6.119  10.070  13.342
23455SOL    HW272198   6.100  10.216  13.379
23456SOL     OW72199   6.583   8.758  14.689
23456SOL    HW172200   6.514   8.700  14.720
23456SOL    HW272201   6.590   8.741  14.595
23457SOL     OW72202   5.312   6.986   5.357
23457SOL    HW172203   5.351   7.007   5.272
23457SOL    HW272204   5.354   7.047   5.418
23458SOL     OW72205   4.617   5.034  12.901
23458SOL    HW172206   4.564   5.044  12.980
23458SOL    HW272207   4.553   5.033  12.830
23459SOL     OW72208   9.773   0.884  10.661
23459SOL    HW172209   9.709   0.864  10.729
23459SOL    HW272210   9.856   0.896  10.709
23460SOL     OW72211   0.614   0.156   2.768
23460SOL    HW172212   0.570   0.071   2.762
23460SOL    HW272213   0.670   0.149   2.846
23461SOL     OW72214   6.017  10.817  11.442
23461SOL    HW172215   5.961  10.771  11.379
23461SOL    HW272216   6.106  10.801  11.411
23462SOL     OW72217   6.206   6.775  12.035
23462SOL    HW172218   6.266   6.735  12.099
23462SOL    HW272219   6.120   6.767  12.076
23463SOL     OW72220   5.953  11.322   8.792
23463SOL    HW172221   5.911  11.290   8.713
23463SOL    HW272222   6.030  11.369   8.761
23464SOL     OW72223   4.176   8.551   2.016
23464SOL    HW172224   4.247   8.490   2.034
23464SOL    HW272225   4.097   8.497   2.010
23465SOL     OW72226   0.465  11.112   5.141
23465SOL    HW172227   0.505  11.198   5.157
23465SOL    HW272228   0.372  11.125   5.160
23466SOL     OW72229   3.200  11.091   8.744
23466SOL    HW172230   3.246  11.090   8.828
23466SOL    HW272231   3.268  11.112   8.680
23467SOL     OW72232   8.678   6.652  13.860
23467SOL    HW172233   8.734   6.617  13.930
23467SOL    HW272234   8.726   6.726  13.825
23468SOL     OW72235   3.670  13.676   7.096
23468SOL    HW172236   3.724  13.751   7.120
23468SOL    HW272237   3.608  13.667   7.168
23469SOL     OW72238   5.948  10.195  13.113
23469SOL    HW172239   5.993  10.199  13.198
23469SOL    HW272240   5.867  10.146  13.131
23470SOL     OW72241   6.120   8.276   4.643
23470SOL    HW172242   6.044   8.232   4.682
23470SOL    HW272243   6.085   8.354   4.601
23471SOL     OW72244   0.947   2.952   2.876
23471SOL    HW172245   0.862   2.979   2.841
23471SOL    HW272246   1.011   2.993   2.819
23472SOL     OW72247   6.831  13.142  14.410
23472SOL    HW172248   6.815  13.211  14.346
23472SOL    HW272249   6.819  13.185  14.495
23473SOL     OW72250  14.442  10.125   8.743
23473SOL    HW172251  14.464  10.042   8.785
23473SOL    HW272252  14.372  10.162   8.796
23474SOL     OW72253   7.362  14.006  11.992
23474SOL    HW172254   7.295  14.073  12.005
23474SOL    HW272255   7.413  14.007  12.073
23475SOL     OW72256  11.054   6.305   6.051
23475SOL    HW172257  10.967   6.265   6.050
23475SOL    HW272258  11.041   6.391   6.010
23476SOL     OW72259   8.523   1.396   8.589
23476SOL    HW172260   8.436   1.431   8.610
23476SOL    HW272261   8.541   1.334   8.660
23477SOL     OW72262  10.100   4.852  14.011
23477SOL    HW172263  10.107   4.945  13.993
23477SOL    HW272264  10.017   4.825  13.973
23478SOL     OW72265  11.593  10.167   4.546
23478SOL    HW172266  11.627  10.087   4.587
23478SOL    HW272267  11.543  10.209   4.616
23479SOL     OW72268   6.510  10.698  13.831
23479SOL    HW172269   6.522  10.642  13.753
23479SOL    HW272270   6.597  10.704  13.869
23480SOL     OW72271  11.118   6.526   8.140
23480SOL    HW172272  11.059   6.484   8.078
23480SOL    HW272273  11.066   6.536   8.219
23481SOL     OW72274   4.973   0.744  11.443
23481SOL    HW172275   4.980   0.724  11.536
23481SOL    HW272276   5.063   0.762  11.415
23482SOL     OW72277   2.417   1.325   6.366
23482SOL    HW172278   2.406   1.353   6.457
23482SOL    HW272279   2.504   1.287   6.363
23483SOL     OW72280   4.990   6.473   5.749
23483SOL    HW172281   4.924   6.532   5.786
23483SOL    HW272282   4.942   6.421   5.684
23484SOL     OW72283   0.003   9.074   5.100
23484SOL    HW172284   0.043   9.057   5.014
23484SOL    HW272285  14.857   9.167   5.098
23485SOL     OW72286   4.780   9.172   8.734
23485SOL    HW172287   4.734   9.096   8.770
23485SOL    HW272288   4.872   9.150   8.743
23486SOL     OW72289   6.027   4.202   6.904
23486SOL    HW172290   6.041   4.236   6.816
23486SOL    HW272291   6.097   4.138   6.917
23487SOL     OW72292   9.886   7.634   1.161
23487SOL    HW172293   9.939   7.713   1.175
23487SOL    HW272294   9.866   7.603   1.249
23488SOL     OW72295   3.695   7.818   2.236
23488SOL    HW172296   3.603   7.834   2.213
23488SOL    HW272297   3.700   7.840   2.329
23489SOL     OW72298   6.670   6.376  13.539
23489SOL    HW172299   6.589   6.343  13.579
23489SOL    HW272300   6.641   6.424  13.462
23490SOL     OW72301   9.097  13.436  14.529
23490SOL    HW172302   9.172  13.419  14.586
23490SOL    HW272303   9.072  13.526  14.549
23491SOL     OW72304   1.205  14.734   0.532
23491SOL    HW172305   1.158  14.689   0.462
23491SOL    HW272306   1.231  14.664   0.592
23492SOL     OW72307  11.771   6.364  14.465
23492SOL    HW172308  11.756   6.459  14.460
23492SOL    HW272309  11.690   6.329  14.502
23493SOL     OW72310   6.166   9.073   7.004
23493SOL    HW172311   6.245   9.065   7.057
23493SOL    HW272312   6.124   8.987   7.009
23494SOL     OW72313   6.942   2.789   1.117
23494SOL    HW172314   6.991   2.747   1.188
23494SOL    HW272315   7.003   2.851   1.079
23495SOL     OW72316   9.083  11.329   3.351
23495SOL    HW172317   9.107  11.289   3.268
23495SOL    HW272318   9.165  11.361   3.387
23496SOL     OW72319   7.975   0.242   4.315
23496SOL    HW172320   7.944   0.327   4.348
23496SOL    HW272321   7.913   0.178   4.351
23497SOL     OW72322  12.660  14.642  13.777
23497SOL    HW172323  12.738  14.610  13.824
23497SOL    HW272324  12.625  14.564  13.734
23498SOL     OW72325   5.132   1.820  14.024
23498SOL    HW172326   5.153   1.898  14.075
23498SOL    HW272327   5.055   1.783  14.068
23499SOL     OW72328   9.832   5.123   7.571
23499SOL    HW172329   9.814   5.112   7.477
23499SOL    HW272330   9.892   5.052   7.592
23500SOL     OW72331   7.508   3.029  11.935
23500SOL    HW172332   7.462   2.945  11.934
23500SOL    HW272333   7.527   3.045  12.028
23501SOL     OW72334   4.393  13.986  14.238
23501SOL    HW172335   4.449  14.064  14.232
23501SOL    HW272336   4.406  13.941  14.155
23502SOL     OW72337  12.730   3.406   6.359
23502SOL    HW172338  12.748   3.393   6.266
23502SOL    HW272339  12.786   3.479   6.384
23503SOL     OW72340  14.171   6.106   3.918
23503SOL    HW172341  14.089   6.067   3.885
23503SOL    HW272342  14.154   6.200   3.919
23504SOL     OW72343   0.659  13.818  14.460
23504SOL    HW172344   0.733  13.871  14.490
23504SOL    HW272345   0.654  13.834  14.366
23505SOL     OW72346   3.952   9.755  13.938
23505SOL    HW172347   3.873   9.778  13.889
23505SOL    HW272348   3.974   9.834  13.987
23506SOL     OW72349   0.475   7.151   4.178
23506SOL    HW172350   0.482   7.213   4.106
23506SOL    HW272351   0.424   7.078   4.142
23507SOL     OW72352   5.695   9.319  14.128
23507SOL    HW172353   5.788   9.340  14.134
23507SOL    HW272354   5.684   9.285  14.039
23508SOL     OW72355   9.441   8.088   8.472
23508SOL    HW172356   9.353   8.051   8.477
23508SOL    HW272357   9.444   8.129   8.386
23509SOL     OW72358   6.697   3.163   2.887
23509SOL    HW172359   6.779   3.212   2.894
23509SOL    HW272360   6.693   3.111   2.967
23510SOL     OW72361   6.435   6.277   9.074
23510SOL    HW172362   6.416   6.281   9.167
23510SOL    HW272363   6.528   6.300   9.068
23511SOL     OW72364   2.840  11.625  10.470
23511SOL    HW172365   2.885  11.697  10.426
23511SOL    HW272366   2.844  11.553  10.407
23512SOL     OW72367   4.905   1.091  10.416
23512SOL    HW172368   4.819   1.059  10.390
23512SOL    HW272369   4.926   1.160  10.353
23513SOL     OW72370   8.901   9.132  14.780
23513SOL    HW172371   8.933   9.157  14.694
23513SOL    HW272372   8.830   9.071  14.763
23514SOL     OW72373   9.364   2.998  11.804
23514SOL    HW172374   9.412   2.931  11.755
23514SOL    HW272375   9.372   3.077  11.751
23515SOL     OW72376  10.212   3.540  11.026
23515SOL    HW172377  10.182   3.628  11.048
23515SOL    HW272378  10.132   3.489  11.015
23516SOL     OW72379   3.631  13.036   2.687
23516SOL    HW172380   3.554  13.008   2.738
23516SOL    HW272381   3.703  12.984   2.723
23517SOL     OW72382   8.193   2.701   5.881
23517SOL    HW172383   8.183   2.610   5.851
23517SOL    HW272384   8.286   2.721   5.866
23518SOL     OW72385   7.607   1.754   1.947
23518SOL    HW172386   7.520   1.721   1.971
23518SOL    HW272387   7.628   1.819   2.014
23519SOL     OW72388   5.608   6.478   1.794
23519SOL    HW172389   5.667   6.524   1.854
23519SOL    HW272390   5.539   6.542   1.774
23520SOL     OW72391  14.007   8.879  11.927
23520SOL    HW172392  13.951   8.855  11.853
23520SOL    HW272393  14.092   8.898  11.886
23521SOL     OW72394  11.138  13.215   9.708
23521SOL    HW172395  11.143  13.181   9.619
23521SOL    HW272396  11.171  13.144   9.763
23522SOL     OW72397   2.712  10.613   0.191
23522SOL    HW172398   2.697  10.586   0.282
23522SOL    HW272399   2.734  10.532   0.145
23523SOL     OW72400   9.901  13.432   0.440
23523SOL    HW172401   9.931  13.472   0.522
23523SOL    HW272402   9.807  13.418   0.453
23524SOL     OW72403  13.092  10.726   4.955
23524SOL    HW172404  13.176  10.684   4.938
23524SOL    HW272405  13.028  10.655   4.952
23525SOL     OW72406   7.490  14.475  13.762
23525SOL    HW172407   7.582  14.465  13.737
23525SOL    HW272408   7.493  14.512  13.850
23526SOL     OW72409   2.222   5.472   1.207
23526SOL    HW172410   2.259   5.384   1.214
23526SOL    HW272411   2.239   5.512   1.292
23527SOL     OW72412   5.638   6.921  12.584
23527SOL    HW172413   5.654   6.985  12.514
23527SOL    HW272414   5.572   6.963  12.640
23528SOL     OW72415  12.321   2.817  12.629
23528SOL    HW172416  12.317   2.772  12.544
23528SOL    HW272417  12.239   2.795  12.672
23529SOL     OW72418  12.391  12.521   0.207
23529SOL    HW172419  12.331  12.448   0.191
23529SOL    HW272420  12.465  12.505   0.147
23530SOL     OW72421   7.519  10.323   0.988
23530SOL    HW172422   7.500  10.362   1.073
23530SOL    HW272423   7.443  10.266   0.970
23531SOL     OW72424   4.920   8.847  13.959
23531SOL    HW172425   4.954   8.781  13.899
23531SOL    HW272426   4.910   8.801  14.042
23532SOL     OW72427   6.874   0.995  11.097
23532SOL    HW172428   6.858   1.067  11.036
23532SOL    HW272429   6.970   0.991  11.103
23533SOL     OW72430   2.223   2.204   4.561
23533SOL    HW172431   2.220   2.291   4.521
23533SOL    HW272432   2.154   2.205   4.626
23534SOL     OW72433   9.362  13.534  10.388
23534SOL    HW172434   9.273  13.503  10.373
23534SOL    HW272435   9.402  13.466  10.442
23535SOL     OW72436   6.300   3.983   6.524
23535SOL    HW172437   6.269   3.918   6.588
23535SOL    HW272438   6.260   4.065   6.553
23536SOL     OW72439   2.281   5.436  13.515
23536SOL    HW172440   2.334   5.389  13.580
23536SOL    HW272441   2.199   5.455  13.561
23537SOL     OW72442   7.855   6.221   4.105
23537SOL    HW172443   7.849   6.283   4.177
23537SOL    HW272444   7.788   6.249   4.043
23538SOL     OW72445   7.258   3.138  10.030
23538SOL    HW172446   7.197   3.184  10.087
23538SOL    HW272447   7.324   3.102  10.089
23539SOL     OW72448   4.158  12.096   5.518
23539SOL    HW172449   4.190  12.110   5.607
23539SOL    HW272450   4.237  12.099   5.464
23540SOL     OW72451   5.333  13.774  14.199
23540SOL    HW172452   5.427  13.768  14.181
23540SOL    HW272453   5.308  13.861  14.168
23541SOL     OW72454   1.494   1.405   5.400
23541SOL    HW172455   1.481   1.324   5.449
23541SOL    HW272456   1.511   1.376   5.310
23542SOL     OW72457   7.504   2.650  12.824
23542SOL    HW172458   7.517   2.687  12.736
23542SOL    HW272459   7.554   2.568  12.822
23543SOL     OW72460   4.599   6.763   6.767
23543SOL    HW172461   4.511   6.746   6.800
23543SOL    HW272462   4.625   6.846   6.807
23544SOL     OW72463  11.008   4.244  11.301
23544SOL    HW172464  10.916   4.221  11.286
23544SOL    HW272465  11.024   4.318  11.242
23545SOL     OW72466   9.404   7.786  10.030
23545SOL    HW172467   9.425   7.823  10.115
23545SOL    HW272468   9.310   7.803  10.018
23546SOL     OW72469   0.570   3.014  10.366
23546SOL    HW172470   0.646   3.066  10.391
23546SOL    HW272471   0.569   3.018  10.270
23547SOL     OW72472   2.037   8.004  13.436
23547SOL    HW172473   1.943   8.008  13.457
23547SOL    HW272474   2.076   8.074  13.489
23548SOL     OW72475  10.248   1.684   2.148
23548SOL    HW172476  10.169   1.637   2.120
23548SOL    HW272477  10.230   1.775   2.126
23549SOL     OW72478   8.482   2.097  11.778
23549SOL    HW172479   8.450   2.097  11.868
23549SOL    HW272480   8.557   2.156  11.779
23550SOL     OW72481   9.339   5.528   1.558
23550SOL    HW172482   9.266   5.484   1.516
23550SOL    HW272483   9.382   5.577   1.487
23551SOL     OW72484   7.015   6.363   7.761
23551SOL    HW172485   6.937   6.310   7.747
23551SOL    HW272486   7.009   6.391   7.852
23552SOL     OW72487  10.907   6.518   5.365
23552SOL    HW172488  10.813   6.498   5.359
23552SOL    HW272489  10.942   6.495   5.280
23553SOL     OW72490   6.854  11.313  14.821
23553SOL    HW172491   6.866  11.218  14.818
23553SOL    HW272492   6.766  11.328  14.786
23554SOL     OW72493  12.857   1.030   2.131
23554SOL    HW172494  12.832   0.963   2.194
23554SOL    HW272495  12.787   1.095   2.135
23555SOL     OW72496  14.808  10.221   5.234
23555SOL    HW172497  14.852  10.283   5.176
23555SOL    HW272498   0.001  10.158   5.259
23556SOL     OW72499   7.949   1.848   3.303
23556SOL    HW172500   7.902   1.927   3.277
23556SOL    HW272501   7.911   1.825   3.388
23557SOL     OW72502   0.048   1.687  14.272
23557SOL    HW172503  14.858   1.706  14.339
23557SOL    HW272504   0.027   1.747  14.200
23558SOL     OW72505   3.919   8.679   1.424
23558SOL    HW172506   3.852   8.617   1.453
23558SOL    HW272507   3.880   8.722   1.348
23559SOL     OW72508  12.860   3.042  10.060
23559SOL    HW172509  12.927   2.996  10.010
23559SOL    HW272510  12.895   3.046  10.149
23560SOL     OW72511   9.338   4.754   5.184
23560SOL    HW172512   9.396   4.829   5.198
23560SOL    HW272513   9.380   4.706   5.112
23561SOL     OW72514  10.628  13.855   7.374
23561SOL    HW172515  10.588  13.921   7.318
23561SOL    HW272516  10.557  13.795   7.397
23562SOL     OW72517   4.110   3.638  11.371
23562SOL    HW172518   4.144   3.550  11.355
23562SOL    HW272519   4.059   3.630  11.452
23563SOL     OW72520   2.089   0.321   7.016
23563SOL    HW172521   2.123   0.402   7.055
23563SOL    HW272522   2.147   0.253   7.049
23564SOL     OW72523   1.036   4.140   5.365
23564SOL    HW172524   0.978   4.159   5.439
23564SOL    HW272525   1.105   4.085   5.403
23565SOL     OW72526   4.672   8.527  12.742
23565SOL    HW172527   4.696   8.578  12.665
23565SOL    HW272528   4.584   8.557  12.765
23566SOL     OW72529  12.863   0.641  10.897
23566SOL    HW172530  12.795   0.646  10.829
23566SOL    HW272531  12.928   0.706  10.869
23567SOL     OW72532   9.036   8.821  14.694
23567SOL    HW172533   9.086   8.792  14.618
23567SOL    HW272534   8.978   8.889  14.660
23568SOL     OW72535   1.742   8.210   8.063
23568SOL    HW172536   1.813   8.145   8.056
23568SOL    HW272537   1.735   8.246   7.974
23569SOL     OW72538   3.138  10.355   2.523
23569SOL    HW172539   3.136  10.272   2.570
23569SOL    HW272540   3.150  10.421   2.592
23570SOL     OW72541   7.001   9.321  12.380
23570SOL    HW172542   6.986   9.246  12.438
23570SOL    HW272543   6.914   9.351  12.355
23571SOL     OW72544   0.114   6.891   1.918
23571SOL    HW172545   0.118   6.802   1.953
23571SOL    HW272546   0.189   6.935   1.957
23572SOL     OW72547   7.307   2.838   4.560
23572SOL    HW172548   7.213   2.846   4.574
23572SOL    HW272549   7.339   2.794   4.639
23573SOL     OW72550  13.587   7.014   4.483
23573SOL    HW172551  13.582   7.108   4.501
23573SOL    HW272552  13.519   6.999   4.417
23574SOL     OW72553  14.239   1.478   1.526
23574SOL    HW172554  14.289   1.444   1.600
23574SOL    HW272555  14.216   1.400   1.475
23575SOL     OW72556   8.988   6.192   1.178
23575SOL    HW172557   8.922   6.181   1.246
23575SOL    HW272558   8.938   6.199   1.097
23576SOL     OW72559   7.980  10.566  12.776
23576SOL    HW172560   7.979  10.471  12.779
23576SOL    HW272561   8.027  10.588  12.695
23577SOL     OW72562   5.888   2.041  11.862
23577SOL    HW172563   5.812   1.996  11.826
23577SOL    HW272564   5.853   2.093  11.934
23578SOL     OW72565   4.653  12.927   8.899
23578SOL    HW172566   4.575  12.878   8.926
23578SOL    HW272567   4.634  13.018   8.920
23579SOL     OW72568   4.808  11.392  11.741
23579SOL    HW172569   4.833  11.311  11.698
23579SOL    HW272570   4.723  11.374  11.780
23580SOL     OW72571   5.830   7.357   2.032
23580SOL    HW172572   5.925   7.368   2.028
23580SOL    HW272573   5.799   7.435   2.079
23581SOL     OW72574  11.807   6.722   3.897
23581SOL    HW172575  11.796   6.715   3.992
23581SOL    HW272576  11.862   6.799   3.885
23582SOL     OW72577   8.591  10.889  10.095
23582SOL    HW172578   8.657  10.858  10.033
23582SOL    HW272579   8.641  10.937  10.161
23583SOL     OW72580   1.029   1.369  13.149
23583SOL    HW172581   1.014   1.424  13.226
23583SOL    HW272582   1.027   1.280  13.183
23584SOL     OW72583  10.346  12.328  14.287
23584SOL    HW172584  10.323  12.250  14.338
23584SOL    HW272585  10.429  12.305  14.245
23585SOL     OW72586  14.259   5.570   5.831
23585SOL    HW172587  14.207   5.512   5.886
23585SOL    HW272588  14.328   5.603   5.889
23586SOL     OW72589  13.600  11.432  13.089
23586SOL    HW172590  13.584  11.339  13.103
23586SOL    HW272591  13.679  11.451  13.138
23587SOL     OW72592   9.704   8.480   9.112
23587SOL    HW172593   9.752   8.462   9.193
23587SOL    HW272594   9.687   8.394   9.075
23588SOL     OW72595  12.048   7.974  10.191
23588SOL    HW172596  11.968   7.923  10.188
23588SOL    HW272597  12.031   8.050  10.136
23589SOL     OW72598  12.265   2.491   7.589
23589SOL    HW172599  12.343   2.507   7.536
23589SOL    HW272600  12.300   2.483   7.679
23590SOL     OW72601   1.597   4.980  12.347
23590SOL    HW172602   1.689   4.984  12.323
23590SOL    HW272603   1.594   5.010  12.438
23591SOL     OW72604   3.717   5.163   8.927
23591SOL    HW172605   3.664   5.108   8.985
23591SOL    HW272606   3.805   5.160   8.964
23592SOL     OW72607   4.982  14.484   8.788
23592SOL    HW172608   4.983  14.469   8.882
23592SOL    HW272609   4.963  14.577   8.778
23593SOL     OW72610   1.473  14.774   2.818
23593SOL    HW172611   1.503  14.691   2.854
23593SOL    HW272612   1.552  14.828   2.812
23594SOL     OW72613  12.407   6.582   3.224
23594SOL    HW172614  12.447   6.530   3.154
23594SOL    HW272615  12.326   6.615   3.186
23595SOL     OW72616   2.670  12.715   2.905
23595SOL    HW172617   2.721  12.745   2.981
23595SOL    HW272618   2.611  12.649   2.940
23596SOL     OW72619   3.010  13.005   3.499
23596SOL    HW172620   2.931  13.033   3.544
23596SOL    HW272621   3.045  12.934   3.553
23597SOL     OW72622   4.510   1.270  10.991
23597SOL    HW172623   4.532   1.351  10.944
23597SOL    HW272624   4.414   1.267  10.989
23598SOL     OW72625   0.653   7.174   1.885
23598SOL    HW172626   0.621   7.180   1.975
23598SOL    HW272627   0.747   7.155   1.895
23599SOL     OW72628   0.157  12.272   4.751
23599SOL    HW172629   0.119  12.236   4.671
23599SOL    HW272630   0.139  12.366   4.746
23600SOL     OW72631   5.808   9.958  11.234
23600SOL    HW172632   5.728   9.907  11.220
23600SOL    HW272633   5.842   9.928  11.318
23601SOL     OW72634   6.772   6.657   4.648
23601SOL    HW172635   6.708   6.722   4.676
23601SOL    HW272636   6.724   6.575   4.644
23602SOL     OW72637   2.258   6.609   5.466
23602SOL    HW172638   2.344   6.587   5.431
23602SOL    HW272639   2.212   6.650   5.393
23603SOL     OW72640   3.895  12.758   8.362
23603SOL    HW172641   3.894  12.664   8.349
23603SOL    HW272642   3.903  12.795   8.274
23604SOL     OW72643   1.065   6.786  12.213
23604SOL    HW172644   1.153   6.752  12.202
23604SOL    HW272645   1.057   6.854  12.146
23605SOL     OW72646   5.309   3.655   9.379
23605SOL    HW172647   5.277   3.595   9.312
23605SOL    HW272648   5.251   3.641   9.453
23606SOL     OW72649  13.818   1.265  10.835
23606SOL    HW172650  13.821   1.195  10.769
23606SOL    HW272651  13.815   1.218  10.919
23607SOL     OW72652  13.285   7.148  11.960
23607SOL    HW172653  13.212   7.126  12.018
23607SOL    HW272654  13.323   7.063  11.936
23608SOL     OW72655   5.830   6.838  12.872
23608SOL    HW172656   5.836   6.744  12.892
23608SOL    HW272657   5.745   6.847  12.828
23609SOL     OW72658  10.193   6.440   3.977
23609SOL    HW172659  10.099   6.456   3.990
23609SOL    HW272660  10.231   6.526   3.963
23610SOL     OW72661   1.432  10.715   0.593
23610SOL    HW172662   1.498  10.728   0.661
23610SOL    HW272663   1.380  10.796   0.595
23611SOL     OW72664  10.161  14.814   6.820
23611SOL    HW172665  10.179  14.829   6.913
23611SOL    HW272666  10.246  14.795   6.782
23612SOL     OW72667   1.056   0.929   8.020
23612SOL    HW172668   1.059   0.848   8.070
23612SOL    HW272669   0.965   0.958   8.026
23613SOL     OW72670   6.186   6.180  14.010
23613SOL    HW172671   6.262   6.224  13.974
23613SOL    HW272672   6.123   6.250  14.028
23614SOL     OW72673  11.550  13.556   0.173
23614SOL    HW172674  11.537  13.552   0.268
23614SOL    HW272675  11.463  13.576   0.138
23615SOL     OW72676  10.868  13.025   0.461
23615SOL    HW172677  10.897  13.116   0.470
23615SOL    HW272678  10.814  13.009   0.538
23616SOL     OW72679   7.482  12.049   4.178
23616SOL    HW172680   7.497  11.978   4.241
23616SOL    HW272681   7.537  12.121   4.210
23617SOL     OW72682   0.455  12.781   0.151
23617SOL    HW172683   0.439  12.824   0.235
23617SOL    HW272684   0.447  12.687   0.170
23618SOL     OW72685  12.973   3.843   1.882
23618SOL    HW172686  12.918   3.910   1.841
23618SOL    HW272687  13.017   3.889   1.953
23619SOL     OW72688   9.192  12.231   1.033
23619SOL    HW172689   9.155  12.150   1.069
23619SOL    HW272690   9.227  12.206   0.948
23620SOL     OW72691   5.663   4.007  14.758
23620SOL    HW172692   5.633   4.022  14.847
23620SOL    HW272693   5.722   4.080  14.739
23621SOL     OW72694   9.758   4.539  11.862
23621SOL    HW172695   9.834   4.581  11.821
23621SOL    HW272696   9.688   4.548  11.797
23622SOL     OW72697  11.385   1.619   5.374
23622SOL    HW172698  11.368   1.534   5.332
23622SOL    HW272699  11.385   1.682   5.301
23623SOL     OW72700  10.516  10.298   8.980
23623SOL    HW172701  10.455  10.339   9.040
23623SOL    HW272702  10.463  10.236   8.929
23624SOL     OW72703   6.947   9.065  11.341
23624SOL    HW172704   7.010   9.042  11.273
23624SOL    HW272705   6.937   8.986  11.393
23625SOL     OW72706   9.505   4.031  10.456
23625SOL    HW172707   9.591   4.057  10.421
23625SOL    HW272708   9.445   4.040  10.382
23626SOL     OW72709   4.248   9.642  11.406
23626SOL    HW172710   4.324   9.639  11.463
23626SOL    HW272711   4.193   9.711  11.442
23627SOL     OW72712  14.360   9.656   4.792
23627SOL    HW172713  14.447   9.638   4.827
23627SOL    HW272714  14.361   9.620   4.703
23628SOL     OW72715  10.443  11.634  10.962
23628SOL    HW172716  10.504  11.591  10.902
23628SOL    HW272717  10.397  11.562  11.004
23629SOL     OW72718   0.733   3.537  12.756
23629SOL    HW172719   0.815   3.583  12.739
23629SOL    HW272720   0.749   3.488  12.836
23630SOL     OW72721   5.484   5.668  12.083
23630SOL    HW172722   5.470   5.719  12.003
23630SOL    HW272723   5.461   5.727  12.154
23631SOL     OW72724   3.218   8.305   9.402
23631SOL    HW172725   3.159   8.307   9.478
23631SOL    HW272726   3.290   8.249   9.429
23632SOL     OW72727   3.551   0.484   0.031
23632SOL    HW172728   3.600   0.479  14.824
23632SOL    HW272729   3.614   0.458   0.098
23633SOL     OW72730  10.725  10.653  13.466
23633SOL    HW172731  10.675  10.684  13.390
23633SOL    HW272732  10.789  10.592  13.429
23634SOL     OW72733   4.863  12.468   1.219
23634SOL    HW172734   4.895  12.431   1.302
23634SOL    HW272735   4.779  12.507   1.242
23635SOL     OW72736   5.809   7.729  11.971
23635SOL    HW172737   5.736   7.733  12.034
23635SOL    HW272738   5.791   7.798  11.908
23636SOL     OW72739   9.568   0.387   6.762
23636SOL    HW172740   9.537   0.466   6.806
23636SOL    HW272741   9.579   0.412   6.671
23637SOL     OW72742   8.725   1.899   0.056
23637SOL    HW172743   8.737   1.962   0.127
23637SOL    HW272744   8.637   1.865   0.069
23638SOL     OW72745   4.784   0.759   8.781
23638SOL    HW172746   4.727   0.835   8.784
23638SOL    HW272747   4.817   0.750   8.871
23639SOL     OW72748   3.648   5.475  13.685
23639SOL    HW172749   3.578   5.426  13.728
23639SOL    HW272750   3.728   5.449  13.731
23640SOL     OW72751  13.188   8.491   8.375
23640SOL    HW172752  13.111   8.528   8.419
23640SOL    HW272753  13.229   8.436   8.442
23641SOL     OW72754  13.387   1.663  12.696
23641SOL    HW172755  13.373   1.593  12.632
23641SOL    HW272756  13.456   1.629  12.753
23642SOL     OW72757   2.755   3.738   0.571
23642SOL    HW172758   2.843   3.769   0.593
23642SOL    HW272759   2.698   3.812   0.590
23643SOL     OW72760   1.714   0.531   8.966
23643SOL    HW172761   1.753   0.606   9.010
23643SOL    HW272762   1.710   0.463   9.033
23644SOL     OW72763   8.659  13.120   1.434
23644SOL    HW172764   8.713  13.151   1.361
23644SOL    HW272765   8.575  13.163   1.422
23645SOL     OW72766  10.661   4.176   3.825
23645SOL    HW172767  10.575   4.140   3.848
23645SOL    HW272768  10.720   4.142   3.892
23646SOL     OW72769  10.743  13.473   7.877
23646SOL    HW172770  10.687  13.551   7.871
23646SOL    HW272771  10.740  13.435   7.789
23647SOL     OW72772  14.769  13.104   3.969
23647SOL    HW172773  14.693  13.073   3.921
23647SOL    HW272774  14.786  13.036   4.035
23648SOL     OW72775   6.508  11.727   2.308
23648SOL    HW172776   6.524  11.799   2.368
23648SOL    HW272777   6.464  11.767   2.233
23649SOL     OW72778   7.260   6.477   7.319
23649SOL    HW172779   7.240   6.545   7.382
23649SOL    HW272780   7.318   6.417   7.366
23650SOL     OW72781  13.570   4.429  12.156
23650SOL    HW172782  13.520   4.403  12.233
23650SOL    HW272783  13.510   4.418  12.083
23651SOL     OW72784   6.548   7.005   7.108
23651SOL    HW172785   6.464   7.050   7.114
23651SOL    HW272786   6.613   7.073   7.126
23652SOL     OW72787   7.293   8.589   7.210
23652SOL    HW172788   7.387   8.579   7.224
23652SOL    HW272789   7.258   8.613   7.296
23653SOL     OW72790   7.613   8.269   6.337
23653SOL    HW172791   7.585   8.229   6.420
23653SOL    HW272792   7.616   8.363   6.357
23654SOL     OW72793   3.844  10.044   3.225
23654SOL    HW172794   3.807   9.963   3.189
23654SOL    HW272795   3.806  10.050   3.313
23655SOL     OW72796  12.110   3.134   1.031
23655SOL    HW172797  12.080   3.214   0.988
23655SOL    HW272798  12.180   3.101   0.975
23656SOL     OW72799   2.924  12.131  11.859
23656SOL    HW172800   2.865  12.165  11.926
23656SOL    HW272801   2.950  12.045  11.891
23657SOL     OW72802  10.421   4.143   9.688
23657SOL    HW172803  10.458   4.059   9.715
23657SOL    HW272804  10.413   4.194   9.768
23658SOL     OW72805   1.625   4.196  14.309
23658SOL    HW172806   1.560   4.228  14.247
23658SOL    HW272807   1.600   4.105  14.325
23659SOL     OW72808   1.195   8.252   0.069
23659SOL    HW172809   1.123   8.189   0.074
23659SOL    HW272810   1.183   8.309   0.145
23660SOL     OW72811   9.942   8.121   0.154
23660SOL    HW172812   9.971   8.062   0.085
23660SOL    HW272813   9.881   8.069   0.206
23661SOL     OW72814   0.533   7.470   3.409
23661SOL    HW172815   0.569   7.389   3.446
23661SOL    HW272816   0.486   7.442   3.331
23662SOL     OW72817  12.714  10.654   4.915
23662SOL    HW172818  12.742  10.744   4.929
23662SOL    HW272819  12.653  10.637   4.987
23663SOL     OW72820   0.310   8.588   9.931
23663SOL    HW172821   0.390   8.632   9.903
23663SOL    HW272822   0.311   8.592  10.026
23664SOL     OW72823  12.850   7.586   0.673
23664SOL    HW172824  12.774   7.527   0.682
23664SOL    HW272825  12.913   7.535   0.622
23665SOL     OW72826   1.400   8.087   0.234
23665SOL    HW172827   1.347   8.126   0.164
23665SOL    HW272828   1.484   8.068   0.192
23666SOL     OW72829   8.046   0.615   9.593
23666SOL    HW172830   8.071   0.532   9.553
23666SOL    HW272831   8.093   0.682   9.542
23667SOL     OW72832   9.155   5.750  10.212
23667SOL    HW172833   9.186   5.673  10.259
23667SOL    HW272834   9.060   5.739  10.207
23668SOL     OW72835   6.726   5.196   6.459
23668SOL    HW172836   6.803   5.244   6.491
23668SOL    HW272837   6.657   5.262   6.457
23669SOL     OW72838   3.962  12.857  12.273
23669SOL    HW172839   3.868  12.860  12.260
23669SOL    HW272840   3.983  12.763  12.274
23670SOL     OW72841  10.561  14.131  10.916
23670SOL    HW172842  10.525  14.218  10.929
23670SOL    HW272843  10.556  14.116  10.822
23671SOL     OW72844   7.889  12.528   6.223
23671SOL    HW172845   7.909  12.435   6.224
23671SOL    HW272846   7.793  12.532   6.219
23672SOL     OW72847  11.306   5.359   8.112
23672SOL    HW172848  11.259   5.393   8.188
23672SOL    HW272849  11.341   5.437   8.068
23673SOL     OW72850   0.696   4.578   4.441
23673SOL    HW172851   0.602   4.565   4.428
23673SOL    HW272852   0.728   4.493   4.471
23674SOL     OW72853   9.864   9.844   3.034
23674SOL    HW172854   9.841   9.937   3.045
23674SOL    HW272855   9.878   9.813   3.124
23675SOL     OW72856   3.912  13.460   9.268
23675SOL    HW172857   3.984  13.403   9.239
23675SOL    HW272858   3.890  13.511   9.191
23676SOL     OW72859  14.530  14.178   4.152
23676SOL    HW172860  14.618  14.192   4.188
23676SOL    HW272861  14.478  14.151   4.228
23677SOL     OW72862  13.749   3.760  11.287
23677SOL    HW172863  13.705   3.836  11.249
23677SOL    HW272864  13.704   3.685  11.248
23678SOL     OW72865   2.101   3.556   9.073
23678SOL    HW172866   2.116   3.567   8.979
23678SOL    HW272867   2.031   3.618   9.094
23679SOL     OW72868   5.747  13.042  11.893
23679SOL    HW172869   5.829  13.078  11.927
23679SOL    HW272870   5.762  13.034  11.798
23680SOL     OW72871   9.275   1.410   2.184
23680SOL    HW172872   9.232   1.412   2.098
23680SOL    HW272873   9.311   1.498   2.195
23681SOL     OW72874   8.203   0.863   2.948
23681SOL    HW172875   8.239   0.914   3.020
23681SOL    HW272876   8.278   0.845   2.892
23682SOL     OW72877   5.830  13.226   8.198
23682SOL    HW172878   5.924  13.216   8.183
23682SOL    HW272879   5.804  13.145   8.243
23683SOL     OW72880   3.906   8.863   6.111
23683SOL    HW172881   3.877   8.783   6.068
23683SOL    HW272882   3.861   8.933   6.064
23684SOL     OW72883   2.108   3.040  12.605
23684SOL    HW172884   2.138   3.104  12.668
23684SOL    HW272885   2.180   2.976  12.599
23685SOL     OW72886   2.602   8.111   5.292
23685SOL    HW172887   2.519   8.131   5.337
23685SOL    HW272888   2.580   8.115   5.199
23686SOL     OW72889  14.392   6.859  10.338
23686SOL    HW172890  14.354   6.771  10.345
23686SOL    HW272891  14.316   6.917  10.328
23687SOL     OW72892   4.115   2.405  10.511
23687SOL    HW172893   4.112   2.479  10.450
23687SOL    HW272894   4.093   2.443  10.596
23688SOL     OW72895   3.555   9.072   1.900
23688SOL    HW172896   3.618   9.111   1.961
23688SOL    HW272897   3.478   9.129   1.906
23689SOL     OW72898  14.201   4.134   4.800
23689SOL    HW172899  14.139   4.206   4.809
23689SOL    HW272900  14.199   4.111   4.707
23690SOL     OW72901   9.742  10.732   5.010
23690SOL    HW172902   9.664  10.778   4.980
23690SOL    HW272903   9.738  10.646   4.968
23691SOL     OW72904   0.678  12.462   5.286
23691SOL    HW172905   0.713  12.441   5.372
23691SOL    HW272906   0.690  12.382   5.235
23692SOL     OW72907  10.792   1.932   5.339
23692SOL    HW172908  10.875   1.888   5.319
23692SOL    HW272909  10.813   1.990   5.412
23693SOL     OW72910   6.626  13.075   8.571
23693SOL    HW172911   6.597  12.988   8.542
23693SOL    HW272912   6.549  13.114   8.611
23694SOL     OW72913  13.622   6.052   9.030
23694SOL    HW172914  13.674   5.972   9.037
23694SOL    HW272915  13.578   6.059   9.114
23695SOL     OW72916  10.572   8.927   3.063
23695SOL    HW172917  10.484   8.917   3.101
23695SOL    HW272918  10.597   9.017   3.082
23696SOL     OW72919   1.876  13.171   1.058
23696SOL    HW172920   1.897  13.252   1.104
23696SOL    HW272921   1.864  13.197   0.967
23697SOL     OW72922   9.193  12.284  10.801
23697SOL    HW172923   9.138  12.347  10.848
23697SOL    HW272924   9.135  12.248  10.734
23698SOL     OW72925   5.632  12.533   8.827
23698SOL    HW172926   5.596  12.445   8.813
23698SOL    HW272927   5.592  12.586   8.758
23699SOL     OW72928  12.108  14.790  14.133
23699SOL    HW172929  12.161  14.870  14.136
23699SOL    HW272930  12.020  14.818  14.159
23700SOL     OW72931   8.320  13.361   7.092
23700SOL    HW172932   8.337  13.447   7.130
23700SOL    HW272933   8.358  13.299   7.154
23701SOL     OW72934   9.973  14.103   2.198
23701SOL    HW172935  10.041  14.104   2.130
23701SOL    HW272936   9.893  14.126   2.151
23702SOL     OW72937  12.656   0.053   0.730
23702SOL    HW172938  12.680   0.144   0.711
23702SOL    HW272939  12.601   0.059   0.809
23703SOL     OW72940  13.744   3.175  10.065
23703SOL    HW172941  13.683   3.152  10.135
23703SOL    HW272942  13.758   3.092  10.018
23704SOL     OW72943  14.130  11.070   7.161
23704SOL    HW172944  14.073  11.113   7.096
23704SOL    HW272945  14.219  11.092   7.132
23705SOL     OW72946   0.179   1.364   1.115
23705SOL    HW172947   0.091   1.327   1.102
23705SOL    HW272948   0.168   1.458   1.101
23706SOL     OW72949   2.179  13.605  13.437
23706SOL    HW172950   2.273  13.590  13.435
23706SOL    HW272951   2.171  13.699  13.455
23707SOL     OW72952   4.679  10.435  12.619
23707SOL    HW172953   4.597  10.408  12.578
23707SOL    HW272954   4.662  10.523  12.652
23708SOL     OW72955   8.308   7.806   3.519
23708SOL    HW172956   8.291   7.786   3.427
23708SOL    HW272957   8.222   7.804   3.560
23709SOL     OW72958   1.366   7.170   2.704
23709SOL    HW172959   1.403   7.100   2.757
23709SOL    HW272960   1.274   7.146   2.693
23710SOL     OW72961   9.635  12.851   4.033
23710SOL    HW172962   9.588  12.785   3.983
23710SOL    HW272963   9.716  12.865   3.984
23711SOL     OW72964  10.222   4.100   5.015
23711SOL    HW172965  10.202   4.187   4.981
23711SOL    HW272966  10.136   4.062   5.035
23712SOL     OW72967  10.694  14.303   5.337
23712SOL    HW172968  10.621  14.337   5.286
23712SOL    HW272969  10.728  14.380   5.385
23713SOL     OW72970   4.393   5.923   8.064
23713SOL    HW172971   4.309   5.957   8.033
23713SOL    HW272972   4.458   5.965   8.008
23714SOL     OW72973   1.467   8.377   5.803
23714SOL    HW172974   1.456   8.300   5.860
23714SOL    HW272975   1.498   8.341   5.720
23715SOL     OW72976   0.502   6.128   0.056
23715SOL    HW172977   0.578   6.146   0.111
23715SOL    HW272978   0.430   6.175   0.099
23716SOL     OW72979  13.696  12.321  14.251
23716SOL    HW172980  13.736  12.237  14.232
23716SOL    HW272981  13.654  12.347  14.169
23717SOL     OW72982   8.154  12.539   6.085
23717SOL    HW172983   8.100  12.479   6.136
23717SOL    HW272984   8.096  12.574   6.018
23718SOL     OW72985   0.559   1.229   3.218
23718SOL    HW172986   0.617   1.286   3.168
23718SOL    HW272987   0.554   1.149   3.166
23719SOL     OW72988   4.943  14.584   5.074
23719SOL    HW172989   4.874  14.522   5.050
23719SOL    HW272990   4.979  14.549   5.155
23720SOL     OW72991   4.823   6.834  10.181
23720SOL    HW172992   4.908   6.806  10.217
23720SOL    HW272993   4.797   6.908  10.236
23721SOL     OW72994   9.881   7.332   3.343
23721SOL    HW172995   9.793   7.350   3.377
23721SOL    HW272996   9.937   7.329   3.421
23722SOL     OW72997  13.860  12.856   9.239
23722SOL    HW172998  13.799  12.861   9.165
23722SOL    HW272999  13.878  12.948   9.261
23723SOL     OW73000   1.703   9.307   9.595
23723SOL    HW173001   1.724   9.333   9.685
23723SOL    HW273002   1.786   9.309   9.549
23724SOL     OW73003   4.878   3.664   6.160
23724SOL    HW173004   4.803   3.721   6.142
23724SOL    HW273005   4.932   3.670   6.081
23725SOL     OW73006   2.170   8.398  10.941
23725SOL    HW173007   2.170   8.350  11.023
23725SOL    HW273008   2.262   8.407  10.918
23726SOL     OW73009   5.837   7.806   2.065
23726SOL    HW173010   5.805   7.728   2.109
23726SOL    HW273011   5.820   7.790   1.972
23727SOL     OW73012   3.247   9.316   6.573
23727SOL    HW173013   3.245   9.350   6.484
23727SOL    HW273014   3.339   9.292   6.587
23728SOL     OW73015   2.287  13.072  14.006
23728SOL    HW173016   2.355  13.005  13.993
23728SOL    HW273017   2.296  13.099  14.097
23729SOL     OW73018   3.207   0.519   1.891
23729SOL    HW173019   3.189   0.436   1.847
23729SOL    HW273020   3.128   0.536   1.942
23730SOL     OW73021   0.626   2.877  14.111
23730SOL    HW173022   0.636   2.899  14.019
23730SOL    HW273023   0.681   2.940  14.157
23731SOL     OW73024   1.856  13.354   3.916
23731SOL    HW173025   1.762  13.358   3.929
23731SOL    HW273026   1.872  13.407   3.838
23732SOL     OW73027   1.653   3.809   0.439
23732SOL    HW173028   1.638   3.830   0.531
23732SOL    HW273029   1.738   3.848   0.419
23733SOL     OW73030   9.100   6.494   7.017
23733SOL    HW173031   9.035   6.553   7.056
23733SOL    HW273032   9.048   6.435   6.962
23734SOL     OW73033   7.847   9.229   0.126
23734SOL    HW173034   7.890   9.276   0.197
23734SOL    HW273035   7.856   9.137   0.149
23735SOL     OW73036   1.371   8.070  14.553
23735SOL    HW173037   1.277   8.089  14.564
23735SOL    HW273038   1.395   8.116  14.473
23736SOL     OW73039   8.065   0.338   4.775
23736SOL    HW173040   7.972   0.360   4.772
23736SOL    HW273041   8.067   0.242   4.771
23737SOL     OW73042   3.060   8.211  13.971
23737SOL    HW173043   3.097   8.129  14.004
23737SOL    HW273044   3.054   8.267  14.048
23738SOL     OW73045  14.539   2.090  12.109
23738SOL    HW173046  14.528   2.162  12.171
23738SOL    HW273047  14.449   2.064  12.087
23739SOL     OW73048   0.541   3.396   1.169
23739SOL    HW173049   0.555   3.363   1.257
23739SOL    HW273050   0.449   3.376   1.150
23740SOL     OW73051   2.827   9.592  10.713
23740SOL    HW173052   2.883   9.622  10.785
23740SOL    HW273053   2.760   9.659  10.705
23741SOL     OW73054  12.106  12.819   0.926
23741SOL    HW173055  12.069  12.737   0.891
23741SOL    HW273056  12.052  12.888   0.886
23742SOL     OW73057   2.712  10.665   8.826
23742SOL    HW173058   2.711  10.577   8.864
23742SOL    HW273059   2.751  10.720   8.894
23743SOL     OW73060   0.959   0.872  12.466
23743SOL    HW173061   1.012   0.912  12.535
23743SOL    HW273062   0.869   0.892  12.490
23744SOL     OW73063   6.414   9.946   1.448
23744SOL    HW173064   6.436  10.029   1.491
23744SOL    HW273065   6.322   9.956   1.424
23745SOL     OW73066   6.883   8.724  10.476
23745SOL    HW173067   6.938   8.705  10.400
23745SOL    HW273068   6.803   8.762  10.439
23746SOL     OW73069  10.574   9.532  10.871
23746SOL    HW173070  10.567   9.603  10.935
23746SOL    HW273071  10.607   9.458  10.922
23747SOL     OW73072   6.961   2.794   8.190
23747SOL    HW173073   6.917   2.714   8.216
23747SOL    HW273074   6.901   2.864   8.216
23748SOL     OW73075   3.747   5.006   5.551
23748SOL    HW173076   3.750   5.060   5.472
23748SOL    HW273077   3.782   5.063   5.620
23749SOL     OW73078   8.163   3.597   5.377
23749SOL    HW173079   8.138   3.589   5.470
23749SOL    HW273080   8.149   3.509   5.342
23750SOL     OW73081   2.158   1.949   4.029
23750SOL    HW173082   2.209   2.024   4.060
23750SOL    HW273083   2.072   1.986   4.006
23751SOL     OW73084   3.831  13.494   7.427
23751SOL    HW173085   3.740  13.511   7.449
23751SOL    HW273086   3.864  13.440   7.500
23752SOL     OW73087   6.445  11.291   0.150
23752SOL    HW173088   6.471  11.379   0.179
23752SOL    HW273089   6.410  11.250   0.229
23753SOL     OW73090   4.396   2.922   1.789
23753SOL    HW173091   4.339   2.920   1.866
23753SOL    HW273092   4.448   2.841   1.795
23754SOL     OW73093   2.127  12.077  11.087
23754SOL    HW173094   2.135  12.158  11.036
23754SOL    HW273095   2.057  12.095  11.150
23755SOL     OW73096   3.078   5.989   1.273
23755SOL    HW173097   3.114   5.902   1.254
23755SOL    HW273098   2.983   5.976   1.271
23756SOL     OW73099  13.211   4.215   6.195
23756SOL    HW173100  13.164   4.223   6.277
23756SOL    HW273101  13.303   4.216   6.220
23757SOL     OW73102   1.152  11.778   6.615
23757SOL    HW173103   1.189  11.858   6.577
23757SOL    HW273104   1.059  11.783   6.593
23758SOL     OW73105   9.293  13.367   3.641
23758SOL    HW173106   9.242  13.385   3.720
23758SOL    HW273107   9.293  13.272   3.634
23759SOL     OW73108   3.149  10.490   5.722
23759SOL    HW173109   3.073  10.507   5.778
23759SOL    HW273110   3.197  10.420   5.767
23760SOL     OW73111   6.260   8.353  10.115
23760SOL    HW173112   6.224   8.368  10.203
23760SOL    HW273113   6.229   8.265  10.092
23761SOL     OW73114  13.303   8.647   7.891
23761SOL    HW173115  13.240   8.627   7.823
23761SOL    HW273116  13.339   8.563   7.918
23762SOL     OW73117   5.189   9.375   9.001
23762SOL    HW173118   5.259   9.314   8.977
23762SOL    HW273119   5.152   9.403   8.918
23763SOL     OW73120   8.639  14.100  11.101
23763SOL    HW173121   8.575  14.090  11.171
23763SOL    HW273122   8.723  14.076  11.141
23764SOL     OW73123   0.194   8.967  13.808
23764SOL    HW173124   0.119   8.924  13.765
23764SOL    HW273125   0.271   8.923  13.772
23765SOL     OW73126   6.133  10.541  10.486
23765SOL    HW173127   6.170  10.539  10.398
23765SOL    HW273128   6.204  10.571  10.542
23766SOL     OW73129  11.316   1.217   6.657
23766SOL    HW173130  11.253   1.251   6.594
23766SOL    HW273131  11.271   1.221   6.742
23767SOL     OW73132   2.608   3.861   6.839
23767SOL    HW173133   2.623   3.955   6.848
23767SOL    HW273134   2.570   3.851   6.752
23768SOL     OW73135  13.112   2.059  12.746
23768SOL    HW173136  13.141   2.122  12.680
23768SOL    HW273137  13.141   1.974  12.714
23769SOL     OW73138  10.665  11.277  11.135
23769SOL    HW173139  10.615  11.324  11.201
23769SOL    HW273140  10.756  11.306  11.148
23770SOL     OW73141   4.385   9.594   3.311
23770SOL    HW173142   4.425   9.518   3.269
23770SOL    HW273143   4.434   9.605   3.392
23771SOL     OW73144   4.876  10.578   4.421
23771SOL    HW173145   4.781  10.570   4.425
23771SOL    HW273146   4.908  10.531   4.498
23772SOL     OW73147  12.129   5.016   9.006
23772SOL    HW173148  12.110   4.962   8.929
23772SOL    HW273149  12.105   5.105   8.979
23773SOL     OW73150   7.664  11.678   8.968
23773SOL    HW173151   7.683  11.608   8.905
23773SOL    HW273152   7.695  11.644   9.052
23774SOL     OW73153   1.232   8.714  14.378
23774SOL    HW173154   1.181   8.761  14.313
23774SOL    HW273155   1.240   8.775  14.451
23775SOL     OW73156   2.200   2.089   9.150
23775SOL    HW173157   2.113   2.090   9.190
23775SOL    HW273158   2.241   2.010   9.184
23776SOL     OW73159   5.213   1.637   3.654
23776SOL    HW173160   5.184   1.596   3.735
23776SOL    HW273161   5.308   1.637   3.659
23777SOL     OW73162   6.738  10.848   9.498
23777SOL    HW173163   6.820  10.838   9.450
23777SOL    HW273164   6.708  10.759   9.513
23778SOL     OW73165   1.548   6.152  13.897
23778SOL    HW173166   1.532   6.116  13.810
23778SOL    HW273167   1.551   6.076  13.955
23779SOL     OW73168  13.161  10.332   9.839
23779SOL    HW173169  13.148  10.426   9.833
23779SOL    HW273170  13.249  10.322   9.875
23780SOL     OW73171   4.271   8.371  13.197
23780SOL    HW173172   4.295   8.444  13.141
23780SOL    HW273173   4.344   8.309  13.190
23781SOL     OW73174  13.690  12.676   6.272
23781SOL    HW173175  13.679  12.581   6.274
23781SOL    HW273176  13.784  12.690   6.262
23782SOL     OW73177   9.682   8.272   6.562
23782SOL    HW173178   9.690   8.333   6.489
23782SOL    HW273179   9.770   8.270   6.600
23783SOL     OW73180   7.063  14.622  11.366
23783SOL    HW173181   7.064  14.532  11.398
23783SOL    HW273182   7.070  14.615  11.271
23784SOL     OW73183   5.769  10.913   3.169
23784SOL    HW173184   5.709  10.947   3.236
23784SOL    HW273185   5.736  10.825   3.150
23785SOL     OW73186  14.183   2.819   1.564
23785SOL    HW173187  14.190   2.914   1.550
23785SOL    HW273188  14.267   2.794   1.602
23786SOL     OW73189   7.249  10.986  12.392
23786SOL    HW173190   7.291  11.005  12.308
23786SOL    HW273191   7.155  10.996  12.374
23787SOL     OW73192   8.987   3.467   9.901
23787SOL    HW173193   9.024   3.379   9.909
23787SOL    HW273194   8.907   3.455   9.849
23788SOL     OW73195  10.438   5.125  10.369
23788SOL    HW173196  10.407   5.211  10.340
23788SOL    HW273197  10.518   5.144  10.417
23789SOL     OW73198  14.441   3.288  13.444
23789SOL    HW173199  14.481   3.209  13.481
23789SOL    HW273200  14.446   3.275  13.349
23790SOL     OW73201   8.551   6.513   0.777
23790SOL    HW173202   8.477   6.522   0.837
23790SOL    HW273203   8.539   6.427   0.737
23791SOL     OW73204   2.014   3.025   6.048
23791SOL    HW173205   1.924   3.037   6.078
23791SOL    HW273206   2.064   3.093   6.094
23792SOL     OW73207  12.937   4.826   9.629
23792SOL    HW173208  12.858   4.827   9.683
23792SOL    HW273209  12.985   4.748   9.656
23793SOL     OW73210   2.341  12.434  11.577
23793SOL    HW173211   2.298  12.447  11.493
23793SOL    HW273212   2.281  12.379  11.627
23794SOL     OW73213   1.506  12.147   3.403
23794SOL    HW173214   1.417  12.120   3.382
23794SOL    HW273215   1.514  12.236   3.368
23795SOL     OW73216   3.590  12.586   1.870
23795SOL    HW173217   3.614  12.665   1.918
23795SOL    HW273218   3.555  12.526   1.937
23796SOL     OW73219   2.458  14.382   3.013
23796SOL    HW173220   2.381  14.371   2.957
23796SOL    HW273221   2.426  14.430   3.089
23797SOL     OW73222  13.628   6.107   7.903
23797SOL    HW173223  13.638   6.052   7.981
23797SOL    HW273224  13.536   6.136   7.906
23798SOL     OW73225  13.624   0.348  10.024
23798SOL    HW173226  13.555   0.385  10.079
23798SOL    HW273227  13.611   0.253  10.032
23799SOL     OW73228   4.877   0.776   9.761
23799SOL    HW173229   4.831   0.713   9.705
23799SOL    HW273230   4.809   0.810   9.819
23800SOL     OW73231   3.516   3.906   8.463
23800SOL    HW173232   3.600   3.908   8.417
23800SOL    HW273233   3.490   3.814   8.461
23801SOL     OW73234  14.263  12.487   3.375
23801SOL    HW173235  14.192  12.439   3.333
23801SOL    HW273236  14.272  12.567   3.323
23802SOL     OW73237   9.136   6.981  14.034
23802SOL    HW173238   9.079   7.005  14.107
23802SOL    HW273239   9.129   7.055  13.973
23803SOL     OW73240  10.001   3.535   4.898
23803SOL    HW173241   9.935   3.500   4.838
23803SOL    HW273242   9.951   3.560   4.976
23804SOL     OW73243  13.683   7.705   4.127
23804SOL    HW173244  13.743   7.763   4.174
23804SOL    HW273245  13.606   7.700   4.183
23805SOL     OW73246   2.240  14.636   0.433
23805SOL    HW173247   2.307  14.705   0.436
23805SOL    HW273248   2.286  14.559   0.398
23806SOL     OW73249  10.786   7.130  12.908
23806SOL    HW173250  10.832   7.062  12.859
23806SOL    HW273251  10.855   7.183  12.947
23807SOL     OW73252   8.025   0.667  12.576
23807SOL    HW173253   8.074   0.748  12.562
23807SOL    HW273254   7.934   0.696  12.582
23808SOL     OW73255  13.216   7.899  11.056
23808SOL    HW173256  13.266   7.823  11.025
23808SOL    HW273257  13.208   7.955  10.979
23809SOL     OW73258  14.322   0.268  12.444
23809SOL    HW173259  14.273   0.287  12.524
23809SOL    HW273260  14.304   0.176  12.426
23810SOL     OW73261   1.828   2.377  14.211
23810SOL    HW173262   1.774   2.339  14.280
23810SOL    HW273263   1.883   2.441  14.257
23811SOL     OW73264   1.450  14.430   9.838
23811SOL    HW173265   1.375  14.488   9.824
23811SOL    HW273266   1.471  14.396   9.751
23812SOL     OW73267   8.050   6.012   0.416
23812SOL    HW173268   7.990   5.991   0.344
23812SOL    HW273269   8.019   6.096   0.450
23813SOL     OW73270   4.271   0.306   9.624
23813SOL    HW173271   4.202   0.294   9.558
23813SOL    HW273272   4.352   0.312   9.573
23814SOL     OW73273   3.950  11.450  14.806
23814SOL    HW173274   3.919  11.504   0.003
23814SOL    HW273275   4.035  11.488  14.783
23815SOL     OW73276   8.135   5.172  14.084
23815SOL    HW173277   8.209   5.153  14.026
23815SOL    HW273278   8.163   5.249  14.134
23816SOL     OW73279   5.428   9.078  10.151
23816SOL    HW173280   5.433   9.152  10.211
23816SOL    HW273281   5.353   9.097  10.095
23817SOL     OW73282   5.160   5.835   0.935
23817SOL    HW173283   5.252   5.843   0.960
23817SOL    HW273284   5.112   5.874   1.009
23818SOL     OW73285   0.420   2.430  14.593
23818SOL    HW173286   0.458   2.426  14.681
23818SOL    HW273287   0.479   2.378  14.539
23819SOL     OW73288   4.304  10.337   3.640
23819SOL    HW173289   4.292  10.247   3.612
23819SOL    HW273290   4.322  10.386   3.560
23820SOL     OW73291   8.759   8.217   2.529
23820SOL    HW173292   8.749   8.256   2.442
23820SOL    HW273293   8.850   8.234   2.553
23821SOL     OW73294  14.307   8.461   2.570
23821SOL    HW173295  14.303   8.546   2.613
23821SOL    HW273296  14.234   8.462   2.508
23822SOL     OW73297   9.609  13.846   5.715
23822SOL    HW173298   9.700  13.819   5.728
23822SOL    HW273299   9.606  13.876   5.624
23823SOL     OW73300   5.367   0.656   0.710
23823SOL    HW173301   5.294   0.599   0.736
23823SOL    HW273302   5.339   0.744   0.734
23824SOL     OW73303   0.907   1.814   4.544
23824SOL    HW173304   0.927   1.815   4.450
23824SOL    HW273305   0.816   1.786   4.549
23825SOL     OW73306  11.765   7.686   5.660
23825SOL    HW173307  11.722   7.647   5.736
23825SOL    HW273308  11.702   7.678   5.589
23826SOL     OW73309  12.604  13.473   0.954
23826SOL    HW173310  12.602  13.492   0.860
23826SOL    HW273311  12.693  13.442   0.971
23827SOL     OW73312  10.424   2.832  10.220
23827SOL    HW173313  10.424   2.887  10.298
23827SOL    HW273314  10.473   2.754  10.246
23828SOL     OW73315   6.250  10.933   3.731
23828SOL    HW173316   6.323  10.908   3.787
23828SOL    HW273317   6.181  10.870   3.751
23829SOL     OW73318   5.791  12.653   9.300
23829SOL    HW173319   5.727  12.652   9.229
23829SOL    HW273320   5.855  12.587   9.275
23830SOL     OW73321   7.525   8.716  14.471
23830SOL    HW173322   7.464   8.742  14.402
23830SOL    HW273323   7.550   8.627  14.448
23831SOL     OW73324   7.633   0.559  13.342
23831SOL    HW173325   7.630   0.524  13.253
23831SOL    HW273326   7.543   0.581  13.363
23832SOL     OW73327  13.663   1.626  12.496
23832SOL    HW173328  13.754   1.650  12.479
23832SOL    HW273329  13.613   1.702  12.468
23833SOL     OW73330   9.648  13.228  10.299
23833SOL    HW173331   9.683  13.200  10.383
23833SOL    HW273332   9.634  13.322  10.309
23834SOL     OW73333   7.513   6.747   9.048
23834SOL    HW173334   7.420   6.734   9.063
23834SOL    HW273335   7.519   6.830   9.001
23835SOL     OW73336   9.790   2.712  10.407
23835SOL    HW173337   9.819   2.641  10.464
23835SOL    HW273338   9.866   2.730  10.351
23836SOL     OW73339   8.785   1.773   5.071
23836SOL    HW173340   8.745   1.858   5.053
23836SOL    HW273341   8.826   1.747   4.989
23837SOL     OW73342   6.276   6.393   8.435
23837SOL    HW173343   6.365   6.418   8.460
23837SOL    HW273344   6.258   6.447   8.358
23838SOL     OW73345  11.772  13.686  11.306
23838SOL    HW173346  11.728  13.603  11.286
23838SOL    HW273347  11.865  13.666  11.298
23839SOL     OW73348  12.792   1.765   8.821
23839SOL    HW173349  12.873   1.771   8.872
23839SOL    HW273350  12.817   1.792   8.733
23840SOL     OW73351   2.159   2.118   2.467
23840SOL    HW173352   2.120   2.073   2.392
23840SOL    HW273353   2.197   2.048   2.521
23841SOL     OW73354   3.166  12.908   7.821
23841SOL    HW173355   3.075  12.935   7.836
23841SOL    HW273356   3.218  12.977   7.861
23842SOL     OW73357  12.431  13.862   0.469
23842SOL    HW173358  12.512  13.814   0.484
23842SOL    HW273359  12.456  13.954   0.477
23843SOL     OW73360   3.615   4.125  14.112
23843SOL    HW173361   3.679   4.127  14.183
23843SOL    HW273362   3.657   4.171  14.039
23844SOL     OW73363   1.417   5.725   5.925
23844SOL    HW173364   1.451   5.672   5.997
23844SOL    HW273365   1.472   5.702   5.850
23845SOL     OW73366   7.916   2.507   8.546
23845SOL    HW173367   7.950   2.589   8.510
23845SOL    HW273368   7.838   2.533   8.595
23846SOL     OW73369  11.479   1.261   3.936
23846SOL    HW173370  11.497   1.246   3.843
23846SOL    HW273371  11.389   1.292   3.939
23847SOL     OW73372  10.878   8.336   8.301
23847SOL    HW173373  10.900   8.300   8.386
23847SOL    HW273374  10.788   8.308   8.285
23848SOL     OW73375   9.539  10.546   0.783
23848SOL    HW173376   9.507  10.587   0.702
23848SOL    HW273377   9.499  10.459   0.782
23849SOL     OW73378   2.337   0.201   5.760
23849SOL    HW173379   2.288   0.229   5.683
23849SOL    HW273380   2.421   0.246   5.752
23850SOL     OW73381  12.773   1.984  11.450
23850SOL    HW173382  12.724   2.063  11.428
23850SOL    HW273383  12.752   1.967  11.541
23851SOL     OW73384  12.193   5.891   0.393
23851SOL    HW173385  12.277   5.907   0.350
23851SOL    HW273386  12.167   5.804   0.363
23852SOL     OW73387   0.445   7.270   4.865
23852SOL    HW173388   0.457   7.221   4.784
23852SOL    HW273389   0.532   7.304   4.885
23853SOL     OW73390   5.923  12.221   7.158
23853SOL    HW173391   5.900  12.131   7.135
23853SOL    HW273392   5.987  12.212   7.229
23854SOL     OW73393   6.362  12.160   6.145
23854SOL    HW173394   6.435  12.169   6.206
23854SOL    HW273395   6.374  12.072   6.107
23855SOL     OW73396   8.730   9.944   9.785
23855SOL    HW173397   8.742  10.019   9.844
23855SOL    HW273398   8.643   9.957   9.748
23856SOL     OW73399   2.874  11.977   3.449
23856SOL    HW173400   2.970  11.984   3.445
23856SOL    HW273401   2.858  11.893   3.493
23857SOL     OW73402  13.901   5.623   7.564
23857SOL    HW173403  13.867   5.691   7.505
23857SOL    HW273404  13.822   5.588   7.607
23858SOL     OW73405  13.498   4.290  11.613
23858SOL    HW173406  13.570   4.241  11.652
23858SOL    HW273407  13.482   4.362  11.674
23859SOL     OW73408  11.469  13.709  12.575
23859SOL    HW173409  11.557  13.702  12.612
23859SOL    HW273410  11.482  13.744  12.487
23860SOL     OW73411   6.636   0.965   9.321
23860SOL    HW173412   6.624   0.990   9.230
23860SOL    HW273413   6.551   0.930   9.348
23861SOL     OW73414  14.677   8.539   3.937
23861SOL    HW173415  14.597   8.529   3.886
23861SOL    HW273416  14.653   8.603   4.005
23862SOL     OW73417  10.811  12.537  13.642
23862SOL    HW173418  10.728  12.514  13.600
23862SOL    HW273419  10.789  12.607  13.703
23863SOL     OW73420  10.038   1.976  13.648
23863SOL    HW173421  10.075   2.012  13.729
23863SOL    HW273422  10.107   1.987  13.583
23864SOL     OW73423   4.696   1.983  12.554
23864SOL    HW173424   4.620   1.977  12.611
23864SOL    HW273425   4.666   1.947  12.470
23865SOL     OW73426   2.495   4.765   1.052
23865SOL    HW173427   2.426   4.704   1.078
23865SOL    HW273428   2.464   4.851   1.082
23866SOL     OW73429  14.269   7.006  12.138
23866SOL    HW173430  14.289   6.985  12.047
23866SOL    HW273431  14.227   6.927  12.172
23867SOL     OW73432  12.131   0.080  14.571
23867SOL    HW173433  12.087   0.162  14.551
23867SOL    HW273434  12.206   0.106  14.626
23868SOL     OW73435   1.022   8.882  13.181
23868SOL    HW173436   1.091   8.862  13.245
23868SOL    HW273437   0.998   8.973  13.201
23869SOL     OW73438  10.235   2.252  10.307
23869SOL    HW173439  10.243   2.339  10.346
23869SOL    HW273440  10.270   2.193  10.374
23870SOL     OW73441  14.345   8.060   1.185
23870SOL    HW173442  14.286   7.993   1.149
23870SOL    HW273443  14.311   8.143   1.151
23871SOL     OW73444   5.352   3.868   4.580
23871SOL    HW173445   5.407   3.924   4.526
23871SOL    HW273446   5.411   3.798   4.609
23872SOL     OW73447   6.096   1.303  10.196
23872SOL    HW173448   6.066   1.295  10.105
23872SOL    HW273449   6.142   1.221  10.213
23873SOL     OW73450  11.773  14.326  11.656
23873SOL    HW173451  11.680  14.341  11.674
23873SOL    HW273452  11.791  14.377  11.577
23874SOL     OW73453   6.311   0.237  13.953
23874SOL    HW173454   6.228   0.285  13.946
23874SOL    HW273455   6.311   0.201  14.041
23875SOL     OW73456   5.736   6.240   7.704
23875SOL    HW173457   5.805   6.258   7.641
23875SOL    HW273458   5.690   6.323   7.715
23876SOL     OW73459   9.984   9.939   7.208
23876SOL    HW173460  10.057   9.880   7.192
23876SOL    HW273461   9.952   9.962   7.121
23877SOL     OW73462   9.785   1.229   8.441
23877SOL    HW173463   9.829   1.287   8.379
23877SOL    HW273464   9.712   1.192   8.393
23878SOL     OW73465   9.384   9.408   2.128
23878SOL    HW173466   9.371   9.502   2.113
23878SOL    HW273467   9.400   9.402   2.222
23879SOL     OW73468  14.449  11.052   8.399
23879SOL    HW173469  14.366  11.031   8.355
23879SOL    HW273470  14.439  11.015   8.487
23880SOL     OW73471   6.403   3.808  12.865
23880SOL    HW173472   6.477   3.748  12.854
23880SOL    HW273473   6.408   3.868  12.791
23881SOL     OW73474   5.195   8.921   0.850
23881SOL    HW173475   5.224   9.010   0.829
23881SOL    HW273476   5.148   8.931   0.933
23882SOL     OW73477   8.255   9.276   2.558
23882SOL    HW173478   8.180   9.276   2.617
23882SOL    HW273479   8.296   9.362   2.572
23883SOL     OW73480   5.591   6.725  14.275
23883SOL    HW173481   5.505   6.690  14.250
23883SOL    HW273482   5.580   6.820  14.269
23884SOL     OW73483   2.229  11.500   3.191
23884SOL    HW173484   2.273  11.541   3.117
23884SOL    HW273485   2.202  11.415   3.159
23885SOL     OW73486   8.425   6.105  13.997
23885SOL    HW173487   8.414   6.060  14.081
23885SOL    HW273488   8.381   6.190  14.011
23886SOL     OW73489   0.784   8.880   1.763
23886SOL    HW173490   0.861   8.827   1.787
23886SOL    HW273491   0.770   8.861   1.671
23887SOL     OW73492   8.059  12.101  10.344
23887SOL    HW173493   8.153  12.088  10.335
23887SOL    HW273494   8.039  12.077  10.434
23888SOL     OW73495   9.519  11.527   7.976
23888SOL    HW173496   9.528  11.456   7.913
23888SOL    HW273497   9.446  11.499   8.032
23889SOL     OW73498   2.244   9.770  13.056
23889SOL    HW173499   2.293   9.702  13.103
23889SOL    HW273500   2.236   9.736  12.966
23890SOL     OW73501  13.561   8.002   4.802
23890SOL    HW173502  13.494   7.946   4.762
23890SOL    HW273503  13.512   8.079   4.832
23891SOL     OW73504   2.032   3.413   6.577
23891SOL    HW173505   2.107   3.432   6.633
23891SOL    HW273506   2.005   3.325   6.602
23892SOL     OW73507   3.465   4.319  13.641
23892SOL    HW173508   3.547   4.368  13.635
23892SOL    HW273509   3.414   4.348  13.565
23893SOL     OW73510   0.548   7.987   5.881
23893SOL    HW173511   0.511   7.908   5.842
23893SOL    HW273512   0.517   7.986   5.972
23894SOL     OW73513   8.339   3.712   1.358
23894SOL    HW173514   8.415   3.685   1.409
23894SOL    HW273515   8.346   3.807   1.352
23895SOL     OW73516   3.955   4.516   1.483
23895SOL    HW173517   3.893   4.461   1.529
23895SOL    HW273518   3.951   4.487   1.392
23896SOL     OW73519  14.221   4.877   6.313
23896SOL    HW173520  14.192   4.790   6.340
23896SOL    HW273521  14.148   4.911   6.261
23897SOL     OW73522  11.758   9.140  12.363
23897SOL    HW173523  11.670   9.115  12.338
23897SOL    HW273524  11.750   9.229  12.396
23898SOL     OW73525   9.186   2.059   5.450
23898SOL    HW173526   9.098   2.083   5.421
23898SOL    HW273527   9.175   1.975   5.493
23899SOL     OW73528  12.476   7.861   5.097
23899SOL    HW173529  12.381   7.858   5.089
23899SOL    HW273530  12.499   7.781   5.145
23900SOL     OW73531  11.699  14.109   0.814
23900SOL    HW173532  11.685  14.145   0.901
23900SOL    HW273533  11.684  14.183   0.754
23901SOL     OW73534   0.091   0.433   9.260
23901SOL    HW173535   0.010   0.444   9.211
23901SOL    HW273536   0.092   0.342   9.287
23902SOL     OW73537   1.144   4.104   4.861
23902SOL    HW173538   1.174   4.163   4.792
23902SOL    HW273539   1.138   4.160   4.939
23903SOL     OW73540   6.671   8.263   2.685
23903SOL    HW173541   6.646   8.207   2.612
23903SOL    HW273542   6.591   8.308   2.710
23904SOL     OW73543  13.472   4.476  14.334
23904SOL    HW173544  13.474   4.421  14.412
23904SOL    HW273545  13.455   4.416  14.262
23905SOL     OW73546  10.211   3.197   2.245
23905SOL    HW173547  10.296   3.162   2.271
23905SOL    HW273548  10.169   3.224   2.327
23906SOL     OW73549  11.173   5.951   4.495
23906SOL    HW173550  11.236   5.948   4.423
23906SOL    HW273551  11.105   5.889   4.469
23907SOL     OW73552  12.673   4.096  10.748
23907SOL    HW173553  12.680   4.078  10.841
23907SOL    HW273554  12.728   4.173  10.734
23908SOL     OW73555  12.938   8.519   7.905
23908SOL    HW173556  12.987   8.453   7.955
23908SOL    HW273557  12.996   8.542   7.832
23909SOL     OW73558  11.451   0.552   3.711
23909SOL    HW173559  11.467   0.598   3.793
23909SOL    HW273560  11.358   0.528   3.714
23910SOL     OW73561  10.350   1.123  14.240
23910SOL    HW173562  10.436   1.163  14.256
23910SOL    HW273563  10.333   1.072  14.319
23911SOL     OW73564   0.530   4.692   9.180
23911SOL    HW173565   0.445   4.736   9.175
23911SOL    HW273566   0.591   4.750   9.135
23912SOL     OW73567  12.271   9.921   6.979
23912SOL    HW173568  12.222   9.920   7.060
23912SOL    HW273569  12.363   9.912   7.006
23913SOL     OW73570   6.268   4.454   3.718
23913SOL    HW173571   6.286   4.367   3.684
23913SOL    HW273572   6.179   4.474   3.689
23914SOL     OW73573   5.995  12.579  14.206
23914SOL    HW173574   5.995  12.587  14.111
23914SOL    HW273575   5.930  12.511  14.224
23915SOL     OW73576   0.094  10.987   9.982
23915SOL    HW173577   0.183  11.001  10.017
23915SOL    HW273578   0.108  10.936   9.902
23916SOL     OW73579   4.563  11.327   2.984
23916SOL    HW173580   4.521  11.321   2.898
23916SOL    HW273581   4.526  11.254   3.034
23917SOL     OW73582   6.634   4.587   5.241
23917SOL    HW173583   6.659   4.661   5.297
23917SOL    HW273584   6.624   4.514   5.302
23918SOL     OW73585   4.098   7.723   9.313
23918SOL    HW173586   4.066   7.811   9.329
23918SOL    HW273587   4.085   7.708   9.219
23919SOL     OW73588   5.560   8.249  14.006
23919SOL    HW173589   5.476   8.256  13.961
23919SOL    HW273590   5.553   8.169  14.058
23920SOL     OW73591  10.887   7.140  12.119
23920SOL    HW173592  10.830   7.128  12.195
23920SOL    HW273593  10.975   7.140  12.155
23921SOL     OW73594   7.580   7.636   4.963
23921SOL    HW173595   7.520   7.689   5.017
23921SOL    HW273596   7.531   7.616   4.884
23922SOL     OW73597   5.318   2.950  14.517
23922SOL    HW173598   5.295   2.881  14.455
23922SOL    HW273599   5.412   2.963  14.505
23923SOL     OW73600   6.134  10.466   1.144
23923SOL    HW173601   6.145  10.449   1.237
23923SOL    HW273602   6.039  10.474   1.131
23924SOL     OW73603   5.915   7.195   8.525
23924SOL    HW173604   6.004   7.169   8.551
23924SOL    HW273605   5.890   7.130   8.459
23925SOL     OW73606  12.013   4.090   4.977
23925SOL    HW173607  12.097   4.095   5.023
23925SOL    HW273608  11.991   4.181   4.957
23926SOL     OW73609  11.109   9.090   3.212
23926SOL    HW173610  11.142   9.167   3.165
23926SOL    HW273611  11.077   9.124   3.295
23927SOL     OW73612   4.439  14.442   0.953
23927SOL    HW173613   4.476  14.357   0.976
23927SOL    HW273614   4.464  14.455   0.862
23928SOL     OW73615   8.386  11.901   9.299
23928SOL    HW173616   8.307  11.848   9.309
23928SOL    HW273617   8.454  11.838   9.274
23929SOL     OW73618   5.617   4.753   2.438
23929SOL    HW173619   5.611   4.671   2.389
23929SOL    HW273620   5.675   4.808   2.384
23930SOL     OW73621   1.695   8.131   9.463
23930SOL    HW173622   1.710   8.191   9.536
23930SOL    HW273623   1.614   8.161   9.423
23931SOL     OW73624   3.987   8.748   7.280
23931SOL    HW173625   4.079   8.770   7.271
23931SOL    HW273626   3.947   8.779   7.198
23932SOL     OW73627  12.130   5.483  14.508
23932SOL    HW173628  12.041   5.493  14.472
23932SOL    HW273629  12.177   5.560  14.476
23933SOL     OW73630   0.520   4.948  12.623
23933SOL    HW173631   0.465   4.870  12.618
23933SOL    HW273632   0.591   4.931  12.561
23934SOL     OW73633   6.127  10.282   4.504
23934SOL    HW173634   6.137  10.260   4.412
23934SOL    HW273635   6.199  10.237   4.548
23935SOL     OW73636   2.835   8.998  11.319
23935SOL    HW173637   2.866   8.968  11.405
23935SOL    HW273638   2.914   9.032  11.276
23936SOL     OW73639  10.612  10.429  11.660
23936SOL    HW173640  10.519  10.452  11.658
23936SOL    HW273641  10.612  10.333  11.665
23937SOL     OW73642   0.856   1.648   8.114
23937SOL    HW173643   0.871   1.594   8.036
23937SOL    HW273644   0.768   1.681   8.103
23938SOL     OW73645   9.454   2.836  12.058
23938SOL    HW173646   9.482   2.891  11.985
23938SOL    HW273647   9.402   2.894  12.113
23939SOL     OW73648   5.407   9.812   5.147
23939SOL    HW173649   5.464   9.736   5.155
23939SOL    HW273650   5.389   9.839   5.237
23940SOL     OW73651  13.621  14.428  13.459
23940SOL    HW173652  13.655  14.408  13.372
23940SOL    HW273653  13.674  14.375  13.518
23941SOL     OW73654   2.097   9.085   9.995
23941SOL    HW173655   2.152   9.132   9.933
23941SOL    HW273656   2.011   9.078   9.952
23942SOL     OW73657   9.319   4.779  14.210
23942SOL    HW173658   9.295   4.856  14.260
23942SOL    HW273659   9.311   4.806  14.118
23943SOL     OW73660   0.425   2.827   5.052
23943SOL    HW173661   0.411   2.911   5.096
23943SOL    HW273662   0.376   2.764   5.105
23944SOL     OW73663  14.489   5.664   6.301
23944SOL    HW173664  14.545   5.739   6.323
23944SOL    HW273665  14.413   5.674   6.359
23945SOL     OW73666   8.052   8.159   0.048
23945SOL    HW173667   7.963   8.126   0.058
23945SOL    HW273668   8.042   8.241   0.000
23946SOL     OW73669   2.964   4.074   7.172
23946SOL    HW173670   2.954   4.132   7.097
23946SOL    HW273671   2.880   4.079   7.218
23947SOL     OW73672  12.770   4.422  14.160
23947SOL    HW173673  12.787   4.327  14.163
23947SOL    HW273674  12.782   4.445  14.068
23948SOL     OW73675   6.591   3.981  14.577
23948SOL    HW173676   6.509   3.989  14.626
23948SOL    HW273677   6.627   4.070  14.577
23949SOL     OW73678   1.023   5.753  10.998
23949SOL    HW173679   0.985   5.841  10.999
23949SOL    HW273680   1.079   5.753  10.920
23950SOL     OW73681  10.770  11.802   2.561
23950SOL    HW173682  10.756  11.716   2.521
23950SOL    HW273683  10.848  11.836   2.518
23951SOL     OW73684   8.664   4.267   4.699
23951SOL    HW173685   8.618   4.257   4.783
23951SOL    HW273686   8.756   4.272   4.723
23952SOL     OW73687  10.777  14.210   2.039
23952SOL    HW173688  10.842  14.140   2.047
23952SOL    HW273689  10.726  14.204   2.120
23953SOL     OW73690  12.405  10.889  14.270
23953SOL    HW173691  12.356  10.972  14.268
23953SOL    HW273692  12.351  10.830  14.323
23954SOL     OW73693   7.349  14.657   8.444
23954SOL    HW173694   7.391  14.617   8.521
23954SOL    HW273695   7.405  14.731   8.422
23955SOL     OW73696   3.621   3.508  12.405
23955SOL    HW173697   3.550   3.473  12.459
23955SOL    HW273698   3.616   3.460  12.323
23956SOL     OW73699   3.182  12.685  13.165
23956SOL    HW173700   3.145  12.763  13.205
23956SOL    HW273701   3.107  12.637  13.131
23957SOL     OW73702   7.009   4.265   5.666
23957SOL    HW173703   6.964   4.184   5.688
23957SOL    HW273704   7.093   4.259   5.710
23958SOL     OW73705  14.111   3.328   2.804
23958SOL    HW173706  14.152   3.394   2.749
23958SOL    HW273707  14.036   3.297   2.753
23959SOL     OW73708   8.722  12.924  11.528
23959SOL    HW173709   8.642  12.971  11.507
23959SOL    HW273710   8.790  12.967  11.475
23960SOL     OW73711   6.142   1.308   8.762
23960SOL    HW173712   6.139   1.381   8.823
23960SOL    HW273713   6.160   1.348   8.677
23961SOL     OW73714   9.520   9.030   6.083
23961SOL    HW173715   9.490   8.981   6.160
23961SOL    HW273716   9.454   9.098   6.070
23962SOL     OW73717   9.677  12.839  12.031
23962SOL    HW173718   9.612  12.783  11.989
23962SOL    HW273719   9.713  12.891  11.960
23963SOL     OW73720   0.039   6.409   9.098
23963SOL    HW173721   0.002   6.357   9.169
23963SOL    HW273722   0.128   6.430   9.127
23964SOL     OW73723   5.607  11.099  14.143
23964SOL    HW173724   5.653  11.122  14.223
23964SOL    HW273725   5.675  11.066  14.084
23965SOL     OW73726   3.288   7.604   2.850
23965SOL    HW173727   3.357   7.540   2.835
23965SOL    HW273728   3.207   7.557   2.828
23966SOL     OW73729   2.064   8.513  14.526
23966SOL    HW173730   2.143   8.560  14.550
23966SOL    HW273731   2.026   8.484  14.609
23967SOL     OW73732   3.809   1.526  12.970
23967SOL    HW173733   3.765   1.599  13.013
23967SOL    HW273734   3.902   1.550  12.971
23968SOL     OW73735   2.088   0.891  13.850
23968SOL    HW173736   2.147   0.964  13.831
23968SOL    HW273737   2.089   0.839  13.769
23969SOL     OW73738   3.634   9.092   7.846
23969SOL    HW173739   3.641   9.002   7.815
23969SOL    HW273740   3.612   9.084   7.939
23970SOL     OW73741   2.722   2.826  11.159
23970SOL    HW173742   2.659   2.759  11.184
23970SOL    HW273743   2.670   2.895  11.120
23971SOL     OW73744  10.392   0.572   9.443
23971SOL    HW173745  10.337   0.643   9.409
23971SOL    HW273746  10.477   0.586   9.401
23972SOL     OW73747   8.168   5.433  14.211
23972SOL    HW173748   8.125   5.492  14.149
23972SOL    HW273749   8.128   5.454  14.295
23973SOL     OW73750   4.986   9.797   7.797
23973SOL    HW173751   4.998   9.769   7.706
23973SOL    HW273752   4.896   9.775   7.818
23974SOL     OW73753   4.090   6.881   8.707
23974SOL    HW173754   4.163   6.824   8.730
23974SOL    HW273755   4.100   6.896   8.613
23975SOL     OW73756  14.059   6.918  13.199
23975SOL    HW173757  14.133   6.858  13.208
23975SOL    HW273758  14.089   6.984  13.137
23976SOL     OW73759   9.779  14.589   2.853
23976SOL    HW173760   9.748  14.660   2.909
23976SOL    HW273761   9.817  14.525   2.914
23977SOL     OW73762   7.017   5.648   0.371
23977SOL    HW173763   6.982   5.600   0.296
23977SOL    HW273764   6.942   5.699   0.403
23978SOL     OW73765   8.470   2.281   8.602
23978SOL    HW173766   8.558   2.316   8.620
23978SOL    HW273767   8.413   2.358   8.606
23979SOL     OW73768   1.758   7.730   9.282
23979SOL    HW173769   1.742   7.640   9.308
23979SOL    HW273770   1.678   7.757   9.237
23980SOL     OW73771   0.993   2.620  12.261
23980SOL    HW173772   1.013   2.650  12.350
23980SOL    HW273773   0.965   2.700  12.215
23981SOL     OW73774   0.074  13.019   2.917
23981SOL    HW173775   0.137  13.078   2.957
23981SOL    HW273776   0.088  13.028   2.822
23982SOL     OW73777   4.302  14.088   6.945
23982SOL    HW173778   4.357  14.156   6.906
23982SOL    HW273779   4.306  14.104   7.039
23983SOL     OW73780   2.696   1.349   1.180
23983SOL    HW173781   2.682   1.413   1.111
23983SOL    HW273782   2.610   1.334   1.218
23984SOL     OW73783   6.424  12.319   4.581
23984SOL    HW173784   6.492  12.253   4.590
23984SOL    HW273785   6.464  12.400   4.615
23985SOL     OW73786  13.295  13.574   2.548
23985SOL    HW173787  13.268  13.658   2.586
23985SOL    HW273788  13.321  13.596   2.458
23986SOL     OW73789  11.006   3.995   8.365
23986SOL    HW173790  11.043   3.986   8.277
23986SOL    HW273791  11.030   4.083   8.391
23987SOL     OW73792   2.786   5.565   3.059
23987SOL    HW173793   2.728   5.489   3.051
23987SOL    HW273794   2.792   5.601   2.970
23988SOL     OW73795   6.232   7.094   5.796
23988SOL    HW173796   6.185   7.175   5.782
23988SOL    HW273797   6.321   7.121   5.820
23989SOL     OW73798   3.061   2.290   4.453
23989SOL    HW173799   3.003   2.346   4.505
23989SOL    HW273800   3.148   2.304   4.489
23990SOL     OW73801  12.734  14.824  13.141
23990SOL    HW173802  12.683   0.026  13.162
23990SOL    HW273803  12.817  14.835  13.188
23991SOL     OW73804  11.681   5.030   3.575
23991SOL    HW173805  11.753   4.973   3.545
23991SOL    HW273806  11.618   5.028   3.502
23992SOL     OW73807  12.248   9.232   3.578
23992SOL    HW173808  12.206   9.313   3.606
23992SOL    HW273809  12.177   9.180   3.542
23993SOL     OW73810   0.379   1.650   2.838
23993SOL    HW173811   0.333   1.723   2.879
23993SOL    HW273812   0.313   1.582   2.827
23994SOL     OW73813   6.676   5.482   4.404
23994SOL    HW173814   6.691   5.573   4.379
23994SOL    HW273815   6.762   5.441   4.398
23995SOL     OW73816   3.000  10.080  10.255
23995SOL    HW173817   3.063  10.140  10.214
23995SOL    HW273818   3.020  10.083  10.348
23996SOL     OW73819  14.656   0.143   8.765
23996SOL    HW173820  14.725   0.178   8.709
23996SOL    HW273821  14.599   0.218   8.781
23997SOL     OW73822  12.347  12.264   3.898
23997SOL    HW173823  12.372  12.192   3.840
23997SOL    HW273824  12.296  12.323   3.842
23998SOL     OW73825   0.904   0.945   9.399
23998SOL    HW173826   0.905   0.850   9.385
23998SOL    HW273827   0.830   0.976   9.347
23999SOL     OW73828   7.046  11.316   6.171
23999SOL    HW173829   7.010  11.340   6.086
23999SOL    HW273830   7.039  11.221   6.174
24000SOL     OW73831   2.125  10.045   4.244
24000SOL    HW173832   2.054  10.038   4.308
24000SOL    HW273833   2.118  10.134   4.210
24001SOL     OW73834   1.360   4.541  14.178
24001SOL    HW173835   1.318   4.471  14.127
24001SOL    HW273836   1.417   4.495  14.239
24002SOL     OW73837   4.778   7.579   2.544
24002SOL    HW173838   4.739   7.666   2.549
24002SOL    HW273839   4.846   7.587   2.478
24003SOL     OW73840  11.309   1.541   2.256
24003SOL    HW173841  11.246   1.572   2.321
24003SOL    HW273842  11.285   1.585   2.175
24004SOL     OW73843  11.305   1.049   8.866
24004SOL    HW173844  11.371   0.992   8.829
24004SOL    HW273845  11.354   1.124   8.900
24005SOL     OW73846   6.422   7.193   4.183
24005SOL    HW173847   6.469   7.139   4.120
24005SOL    HW273848   6.332   7.197   4.150
24006SOL     OW73849   2.971   0.030   0.760
24006SOL    HW173850   3.047  14.867   0.716
24006SOL    HW273851   2.969   0.120   0.730
24007SOL     OW73852  12.893  14.790   3.043
24007SOL    HW173853  12.809  14.757   3.074
24007SOL    HW273854  12.936  14.714   3.003
24008SOL     OW73855  14.275  14.141  11.882
24008SOL    HW173856  14.324  14.212  11.840
24008SOL    HW273857  14.193  14.182  11.909
24009SOL     OW73858  14.168   2.189  13.092
24009SOL    HW173859  14.182   2.235  13.009
24009SOL    HW273860  14.228   2.114  13.088
24010SOL     OW73861   1.361   2.179  13.160
24010SOL    HW173862   1.292   2.239  13.132
24010SOL    HW273863   1.373   2.198  13.253
24011SOL     OW73864   4.691  13.373   1.206
24011SOL    HW173865   4.701  13.457   1.160
24011SOL    HW273866   4.767  13.369   1.265
24012SOL     OW73867   2.145  14.118   8.298
24012SOL    HW173868   2.069  14.069   8.329
24012SOL    HW273869   2.217  14.089   8.354
24013SOL     OW73870   5.160   3.412  11.422
24013SOL    HW173871   5.254   3.402  11.438
24013SOL    HW273872   5.125   3.323  11.425
24014SOL     OW73873  14.387   1.071   1.834
24014SOL    HW173874  14.373   1.090   1.741
24014SOL    HW273875  14.354   0.982   1.845
24015SOL     OW73876   9.904  11.205   2.425
24015SOL    HW173877   9.817  11.197   2.386
24015SOL    HW273878   9.892  11.175   2.515
24016SOL     OW73879   5.639   5.394   8.872
24016SOL    HW173880   5.626   5.307   8.910
24016SOL    HW273881   5.550   5.428   8.862
24017SOL     OW73882   8.077   6.868   1.045
24017SOL    HW173883   8.146   6.816   1.006
24017SOL    HW273884   8.084   6.851   1.139
24018SOL     OW73885   9.694  11.498   9.953
24018SOL    HW173886   9.721  11.578   9.908
24018SOL    HW273887   9.715  11.513  10.045
24019SOL     OW73888   3.414  11.306  14.162
24019SOL    HW173889   3.319  11.310  14.156
24019SOL    HW273890   3.436  11.360  14.238
24020SOL     OW73891  12.496  12.087   5.630
24020SOL    HW173892  12.437  12.025   5.587
24020SOL    HW273893  12.440  12.161   5.653
24021SOL     OW73894   3.773  12.516  12.224
24021SOL    HW173895   3.734  12.579  12.163
24021SOL    HW273896   3.866  12.537  12.223
24022SOL     OW73897  14.063   0.033   8.174
24022SOL    HW173898  14.029   0.083   8.100
24022SOL    HW273899  14.112   0.097   8.226
24023SOL     OW73900   9.996  11.671  11.605
24023SOL    HW173901   9.945  11.596  11.636
24023SOL    HW273902  10.077  11.667  11.656
24024SOL     OW73903   4.569   8.721  10.389
24024SOL    HW173904   4.631   8.682  10.327
24024SOL    HW273905   4.523   8.788  10.337
24025SOL     OW73906  10.859   1.587   1.046
24025SOL    HW173907  10.840   1.671   1.088
24025SOL    HW273908  10.781   1.569   0.992
24026SOL     OW73909   6.605  13.990  13.706
24026SOL    HW173910   6.642  14.010  13.620
24026SOL    HW273911   6.510  13.999  13.694
24027SOL     OW73912   8.815   5.790   6.676
24027SOL    HW173913   8.853   5.826   6.596
24027SOL    HW273914   8.883   5.801   6.742
24028SOL     OW73915   8.300   8.374  13.547
24028SOL    HW173916   8.327   8.460  13.578
24028SOL    HW273917   8.250   8.337  13.621
24029SOL     OW73918   8.766   0.411   0.604
24029SOL    HW173919   8.746   0.427   0.696
24029SOL    HW273920   8.691   0.446   0.556
24030SOL     OW73921   3.494  11.819  12.252
24030SOL    HW173922   3.435  11.830  12.327
24030SOL    HW273923   3.536  11.735  12.267
24031SOL     OW73924  12.995   9.850  11.227
24031SOL    HW173925  12.998   9.832  11.320
24031SOL    HW273926  12.905   9.829  11.200
24032SOL     OW73927   8.230  12.501   3.173
24032SOL    HW173928   8.207  12.418   3.215
24032SOL    HW273929   8.234  12.563   3.246
24033SOL     OW73930  11.379   2.763  13.247
24033SOL    HW173931  11.452   2.778  13.186
24033SOL    HW273932  11.339   2.682  13.216
24034SOL     OW73933  14.718   9.848  10.163
24034SOL    HW173934  14.763   9.778  10.115
24034SOL    HW273935  14.634   9.809  10.188
24035SOL     OW73936   3.898   4.759   4.723
24035SOL    HW173937   3.814   4.804   4.712
24035SOL    HW273938   3.940   4.805   4.795
24036SOL     OW73939   7.943  10.111   9.550
24036SOL    HW173940   7.904  10.087   9.466
24036SOL    HW273941   7.876  10.090   9.615
24037SOL     OW73942  10.529  14.000  11.467
24037SOL    HW173943  10.618  13.971  11.491
24037SOL    HW273944  10.521  13.978  11.375
24038SOL     OW73945   1.625   8.889   4.255
24038SOL    HW173946   1.553   8.953   4.254
24038SOL    HW273947   1.583   8.805   4.273
24039SOL     OW73948  13.819   6.771   7.229
24039SOL    HW173949  13.792   6.780   7.138
24039SOL    HW273950  13.781   6.847   7.273
24040SOL     OW73951   1.748   2.738   5.918
24040SOL    HW173952   1.743   2.821   5.870
24040SOL    HW273953   1.715   2.759   6.005
24041SOL     OW73954  13.208   3.188   5.887
24041SOL    HW173955  13.262   3.157   5.959
24041SOL    HW273956  13.181   3.276   5.912
24042SOL     OW73957   9.097   4.664  14.477
24042SOL    HW173958   9.171   4.604  14.489
24042SOL    HW273959   9.040   4.619  14.415
24043SOL     OW73960   4.062   8.175   6.697
24043SOL    HW173961   4.076   8.094   6.747
24043SOL    HW273962   4.024   8.236   6.760
24044SOL     OW73963  10.856   8.906  14.519
24044SOL    HW173964  10.772   8.948  14.540
24044SOL    HW273965  10.906   8.911  14.600
24045SOL     OW73966   5.182   7.475   2.218
24045SOL    HW173967   5.222   7.409   2.161
24045SOL    HW273968   5.217   7.558   2.185
24046SOL     OW73969   6.403   4.229  11.769
24046SOL    HW173970   6.427   4.213  11.861
24046SOL    HW273971   6.321   4.278  11.774
24047SOL     OW73972  11.059   1.600  12.767
24047SOL    HW173973  11.113   1.524  12.789
24047SOL    HW273974  11.043   1.643  12.852
24048SOL     OW73975  14.596  13.523   4.645
24048SOL    HW173976  14.560  13.562   4.725
24048SOL    HW273977  14.536  13.452   4.623
24049SOL     OW73978  14.739   7.209  10.558
24049SOL    HW173979  14.793   7.259  10.618
24049SOL    HW273980  14.760   7.117  10.576
24050SOL     OW73981   3.687  12.741  10.130
24050SOL    HW173982   3.771  12.699  10.151
24050SOL    HW273983   3.705  12.835  10.140
24051SOL     OW73984   9.398  14.501   8.177
24051SOL    HW173985   9.354  14.517   8.261
24051SOL    HW273986   9.429  14.588   8.150
24052SOL     OW73987  14.802   6.779   6.021
24052SOL    HW173988  14.865   6.779   5.950
24052SOL    HW273989  14.848   6.819   6.095
24053SOL     OW73990   0.379   9.010   7.705
24053SOL    HW173991   0.313   8.955   7.662
24053SOL    HW273992   0.334   9.044   7.783
24054SOL     OW73993   7.692   7.735   2.535
24054SOL    HW173994   7.698   7.667   2.468
24054SOL    HW273995   7.749   7.805   2.503
24055SOL     OW73996   9.448  11.959  11.738
24055SOL    HW173997   9.388  11.914  11.798
24055SOL    HW273998   9.483  12.032  11.789
24056SOL     OW73999   5.140   4.157   9.060
24056SOL    HW174000   5.133   4.197   8.973
24056SOL    HW274001   5.062   4.101   9.068
24057SOL     OW74002   7.212  12.310   1.375
24057SOL    HW174003   7.206  12.395   1.332
24057SOL    HW274004   7.289  12.269   1.336
24058SOL     OW74005   2.859   5.546  14.486
24058SOL    HW174006   2.886   5.518  14.398
24058SOL    HW274007   2.872   5.641  14.485
24059SOL     OW74008  11.998   1.390   5.317
24059SOL    HW174009  12.023   1.336   5.242
24059SOL    HW274010  12.044   1.473   5.303
24060SOL     OW74011   0.634  10.540  13.279
24060SOL    HW174012   0.568  10.483  13.318
24060SOL    HW274013   0.715  10.517  13.325
24061SOL     OW74014   2.525  10.350   8.729
24061SOL    HW174015   2.549  10.409   8.801
24061SOL    HW274016   2.608  10.326   8.689
24062SOL     OW74017   9.648   6.395   8.653
24062SOL    HW174018   9.615   6.410   8.565
24062SOL    HW274019   9.644   6.299   8.664
24063SOL     OW74020   9.819  12.431   2.147
24063SOL    HW174021   9.896  12.376   2.131
24063SOL    HW274022   9.792  12.409   2.236
24064SOL     OW74023   1.285  10.506   9.093
24064SOL    HW174024   1.268  10.418   9.127
24064SOL    HW274025   1.267  10.499   9.000
24065SOL     OW74026   8.342  13.688   4.157
24065SOL    HW174027   8.419  13.723   4.112
24065SOL    HW274028   8.276  13.757   4.148
24066SOL     OW74029   4.823   5.500   5.391
24066SOL    HW174030   4.843   5.572   5.331
24066SOL    HW274031   4.769   5.540   5.459
24067SOL     OW74032  13.576   1.857   9.271
24067SOL    HW174033  13.571   1.879   9.178
24067SOL    HW274034  13.652   1.905   9.303
24068SOL     OW74035   9.185  12.203   2.678
24068SOL    HW174036   9.157  12.288   2.645
24068SOL    HW274037   9.168  12.142   2.606
24069SOL     OW74038   0.764   0.897   7.591
24069SOL    HW174039   0.828   0.917   7.522
24069SOL    HW274040   0.764   0.974   7.647
24070SOL     OW74041  12.323  10.015  12.226
24070SOL    HW174042  12.255   9.948  12.213
24070SOL    HW274043  12.398   9.984  12.175
24071SOL     OW74044   3.341  11.121   6.814
24071SOL    HW174045   3.405  11.059   6.851
24071SOL    HW274046   3.382  11.207   6.825
24072SOL     OW74047   3.749   5.722   2.535
24072SOL    HW174048   3.829   5.697   2.582
24072SOL    HW274049   3.780   5.763   2.455
24073SOL     OW74050  11.717   0.909   5.100
24073SOL    HW174051  11.758   0.986   5.060
24073SOL    HW274052  11.781   0.839   5.090
24074SOL     OW74053   2.832  13.531   3.820
24074SOL    HW174054   2.905  13.592   3.814
24074SOL    HW274055   2.873  13.444   3.823
24075SOL     OW74056   3.253   6.028  13.039
24075SOL    HW174057   3.168   6.072  13.040
24075SOL    HW274058   3.278   6.025  12.947
24076SOL     OW74059  10.307   9.484   0.792
24076SOL    HW174060  10.354   9.567   0.790
24076SOL    HW274061  10.374   9.419   0.811
24077SOL     OW74062   8.685  13.974   2.007
24077SOL    HW174063   8.749  13.982   2.078
24077SOL    HW274064   8.669  13.880   1.999
24078SOL     OW74065   2.280   9.787   7.049
24078SOL    HW174066   2.373   9.809   7.046
24078SOL    HW274067   2.279   9.695   7.074
24079SOL     OW74068   0.325  14.838   5.334
24079SOL    HW174069   0.362  14.750   5.327
24079SOL    HW274070   0.398   0.017   5.363
24080SOL     OW74071   1.235   4.040   0.513
24080SOL    HW174072   1.213   3.957   0.556
24080SOL    HW274073   1.194   4.107   0.568
24081SOL     OW74074  13.446   2.946   7.661
24081SOL    HW174075  13.541   2.947   7.677
24081SOL    HW274076  13.413   3.025   7.702
24082SOL     OW74077  12.731  14.574   3.560
24082SOL    HW174078  12.797  14.519   3.516
24082SOL    HW274079  12.689  14.622   3.488
24083SOL     OW74080   7.956  12.914   1.277
24083SOL    HW174081   7.956  12.947   1.187
24083SOL    HW274082   8.041  12.942   1.313
24084SOL     OW74083  10.707   4.747   0.186
24084SOL    HW174084  10.710   4.659   0.225
24084SOL    HW274085  10.736   4.733   0.095
24085SOL     OW74086  13.614   5.026   2.207
24085SOL    HW174087  13.688   5.013   2.265
24085SOL    HW274088  13.641   4.989   2.123
24086SOL     OW74089  12.744   6.715   2.321
24086SOL    HW174090  12.738   6.802   2.362
24086SOL    HW274091  12.669   6.667   2.356
24087SOL     OW74092  10.484   4.906  14.803
24087SOL    HW174093  10.403   4.881  14.757
24087SOL    HW274094  10.495   4.840  14.870
24088SOL     OW74095  14.026   7.541  11.134
24088SOL    HW174096  14.033   7.631  11.103
24088SOL    HW274097  14.117   7.510  11.137
24089SOL     OW74098  13.543   2.502   3.000
24089SOL    HW174099  13.630   2.494   3.040
24089SOL    HW274100  13.502   2.575   3.047
24090SOL     OW74101  10.218   8.165   1.233
24090SOL    HW174102  10.217   8.229   1.162
24090SOL    HW274103  10.223   8.080   1.188
24091SOL     OW74104  13.321  11.114   5.152
24091SOL    HW174105  13.264  11.042   5.127
24091SOL    HW274106  13.389  11.115   5.084
24092SOL     OW74107   5.990   3.455   2.490
24092SOL    HW174108   5.986   3.360   2.502
24092SOL    HW274109   5.955   3.491   2.572
24093SOL     OW74110   0.617   4.112   3.222
24093SOL    HW174111   0.559   4.068   3.285
24093SOL    HW274112   0.564   4.184   3.187
24094SOL     OW74113   0.232   5.984   0.310
24094SOL    HW174114   0.316   5.942   0.294
24094SOL    HW274115   0.228   5.996   0.405
24095SOL     OW74116  10.656  13.342   1.587
24095SOL    HW174117  10.638  13.414   1.648
24095SOL    HW274118  10.709  13.280   1.638
24096SOL     OW74119  14.760   9.994   4.402
24096SOL    HW174120  14.693   9.970   4.338
24096SOL    HW274121  14.717  10.059   4.458
24097SOL     OW74122  14.757  14.873   8.404
24097SOL    HW174123  14.843  14.846   8.435
24097SOL    HW274124  14.711  14.790   8.386
24098SOL     OW74125   9.950   1.840  11.286
24098SOL    HW174126   9.871   1.868  11.332
24098SOL    HW274127   9.999   1.921  11.271
24099SOL     OW74128  14.668   5.816   0.841
24099SOL    HW174129  14.735   5.766   0.886
24099SOL    HW274130  14.617   5.857   0.911
24100SOL     OW74131   4.765   9.623   4.148
24100SOL    HW174132   4.697   9.563   4.179
24100SOL    HW274133   4.778   9.599   4.056
24101SOL     OW74134  12.988   3.110   9.504
24101SOL    HW174135  13.051   3.062   9.558
24101SOL    HW274136  13.030   3.116   9.418
24102SOL     OW74137   8.390   6.033  14.253
24102SOL    HW174138   8.480   6.061  14.269
24102SOL    HW274139   8.354   6.016  14.340
24103SOL     OW74140   4.305   9.595   1.404
24103SOL    HW174141   4.291   9.690   1.409
24103SOL    HW274142   4.390   9.586   1.361
24104SOL     OW74143  10.254  14.827   5.310
24104SOL    HW174144  10.281  14.736   5.316
24104SOL    HW274145  10.334  14.874   5.285
24105SOL     OW74146   7.999   7.299   8.184
24105SOL    HW174147   7.907   7.315   8.204
24105SOL    HW274148   7.996   7.243   8.106
24106SOL     OW74149   9.857   6.422  13.548
24106SOL    HW174150   9.792   6.485  13.580
24106SOL    HW274151   9.914   6.472  13.491
24107SOL     OW74152  12.899   8.087  14.715
24107SOL    HW174153  12.914   7.992  14.713
24107SOL    HW274154  12.912   8.116  14.625
24108SOL     OW74155   8.767   1.345   1.822
24108SOL    HW174156   8.816   1.306   1.894
24108SOL    HW274157   8.819   1.326   1.744
24109SOL     OW74158   2.308  11.300   6.044
24109SOL    HW174159   2.337  11.295   6.135
24109SOL    HW274160   2.347  11.380   6.011
24110SOL     OW74161   2.336   0.901   9.037
24110SOL    HW174162   2.311   0.909   8.945
24110SOL    HW274163   2.432   0.894   9.035
24111SOL     OW74164  14.551   1.285   1.915
24111SOL    HW174165  14.633   1.260   1.872
24111SOL    HW274166  14.495   1.207   1.907
24112SOL     OW74167  10.488   0.495   0.727
24112SOL    HW174168  10.400   0.459   0.739
24112SOL    HW274169  10.532   0.481   0.811
24113SOL     OW74170   6.819   2.353   0.959
24113SOL    HW174171   6.896   2.381   1.007
24113SOL    HW274172   6.853   2.308   0.881
24114SOL     OW74173   6.486   6.329  10.011
24114SOL    HW174174   6.580   6.309  10.011
24114SOL    HW274175   6.482   6.424  10.021
24115SOL     OW74176   5.395   6.057  11.369
24115SOL    HW174177   5.337   6.054  11.292
24115SOL    HW274178   5.413   5.965  11.388
24116SOL     OW74179   1.003   1.914   8.150
24116SOL    HW174180   0.927   1.857   8.140
24116SOL    HW274181   1.068   1.859   8.195
24117SOL     OW74182   2.905   0.530   7.163
24117SOL    HW174183   2.903   0.591   7.237
24117SOL    HW274184   2.917   0.585   7.086
24118SOL     OW74185   4.513   8.252   1.012
24118SOL    HW174186   4.495   8.345   1.027
24118SOL    HW274187   4.605   8.249   0.987
24119SOL     OW74188  13.844   9.826   3.146
24119SOL    HW174189  13.870   9.879   3.071
24119SOL    HW274190  13.894   9.862   3.219
24120SOL     OW74191  13.065   0.234   6.204
24120SOL    HW174192  13.109   0.152   6.226
24120SOL    HW274193  12.980   0.207   6.169
24121SOL     OW74194  10.473  14.275   3.657
24121SOL    HW174195  10.496  14.368   3.669
24121SOL    HW274196  10.549  14.227   3.690
24122SOL     OW74197  12.264   8.946  13.439
24122SOL    HW174198  12.207   8.880  13.477
24122SOL    HW274199  12.222   9.029  13.459
24123SOL     OW74200   9.528   3.483   1.308
24123SOL    HW174201   9.441   3.502   1.273
24123SOL    HW274202   9.563   3.568   1.333
24124SOL     OW74203   8.699  10.087  13.903
24124SOL    HW174204   8.739  10.172  13.920
24124SOL    HW274205   8.773  10.027  13.892
24125SOL     OW74206   1.309   7.098  11.523
24125SOL    HW174207   1.250   7.143  11.463
24125SOL    HW274208   1.310   7.007  11.493
24126SOL     OW74209   5.008   7.845   5.818
24126SOL    HW174210   5.013   7.940   5.819
24126SOL    HW274211   5.057   7.819   5.739
24127SOL     OW74212   3.123   9.379  13.747
24127SOL    HW174213   3.049   9.318  13.752
24127SOL    HW274214   3.154   9.372  13.657
24128SOL     OW74215  11.148  13.534  14.280
24128SOL    HW174216  11.208  13.607  14.262
24128SOL    HW274217  11.115  13.508  14.195
24129SOL     OW74218   4.196  12.278   2.110
24129SOL    HW174219   4.165  12.368   2.104
24129SOL    HW274220   4.255  12.278   2.186
24130SOL     OW74221   2.235   0.763   6.055
24130SOL    HW174222   2.218   0.832   5.991
24130SOL    HW274223   2.149   0.734   6.084
24131SOL     OW74224  10.423   2.238   2.431
24131SOL    HW174225  10.492   2.175   2.410
24131SOL    HW274226  10.430   2.252   2.525
24132SOL     OW74227   5.052   2.754  10.637
24132SOL    HW174228   4.964   2.751  10.599
24132SOL    HW274229   5.062   2.669  10.679
24133SOL     OW74230  13.623  10.345   4.462
24133SOL    HW174231  13.541  10.393   4.464
24133SOL    HW274232  13.600  10.256   4.489
24134SOL     OW74233   0.385   1.172   0.414
24134SOL    HW174234   0.407   1.265   0.414
24134SOL    HW274235   0.297   1.168   0.452
24135SOL     OW74236  14.612   3.074  10.836
24135SOL    HW174237  14.648   2.995  10.875
24135SOL    HW274238  14.576   3.123  10.910
24136SOL     OW74239   3.056   3.468   1.491
24136SOL    HW174240   3.037   3.504   1.577
24136SOL    HW274241   3.148   3.440   1.496
24137SOL     OW74242  14.802   2.335   8.337
24137SOL    HW174243  14.862   2.296   8.273
24137SOL    HW274244  14.845   2.416   8.364
24138SOL     OW74245  10.577  11.865   2.372
24138SOL    HW174246  10.613  11.842   2.457
24138SOL    HW274247  10.638  11.828   2.309
24139SOL     OW74248  10.741  10.118   9.754
24139SOL    HW174249  10.690  10.198   9.771
24139SOL    HW274250  10.772  10.091   9.840
24140SOL     OW74251  13.825  12.943   2.941
24140SOL    HW174252  13.917  12.931   2.966
24140SOL    HW274253  13.829  12.980   2.853
24141SOL     OW74254  13.061   9.406   4.353
24141SOL    HW174255  13.097   9.493   4.339
24141SOL    HW274256  13.004   9.390   4.277
24142SOL     OW74257  14.714   5.229   3.069
24142SOL    HW174258  14.696   5.207   3.161
24142SOL    HW274259  14.627   5.244   3.032
24143SOL     OW74260   1.086   6.570  13.217
24143SOL    HW174261   1.017   6.631  13.191
24143SOL    HW274262   1.042   6.508  13.276
24144SOL     OW74263   3.674  14.032   4.288
24144SOL    HW174264   3.610  13.966   4.315
24144SOL    HW274265   3.736  14.036   4.361
24145SOL     OW74266  12.552   7.416   9.811
24145SOL    HW174267  12.480   7.451   9.864
24145SOL    HW274268  12.554   7.323   9.830
24146SOL     OW74269  12.866   8.300   8.233
24146SOL    HW174270  12.944   8.322   8.182
24146SOL    HW274271  12.899   8.259   8.312
24147SOL     OW74272   6.479   5.701   9.164
24147SOL    HW174273   6.481   5.615   9.123
24147SOL    HW274274   6.547   5.751   9.119
24148SOL     OW74275   6.273   6.914   4.775
24148SOL    HW174276   6.232   6.897   4.860
24148SOL    HW274277   6.330   6.989   4.791
24149SOL     OW74278   3.489  12.790   0.063
24149SOL    HW174279   3.499  12.795  14.843
24149SOL    HW274280   3.493  12.697   0.083
24150SOL     OW74281   5.503  11.525   1.946
24150SOL    HW174282   5.434  11.535   1.881
24150SOL    HW274283   5.559  11.602   1.933
24151SOL     OW74284   4.455  12.413  14.424
24151SOL    HW174285   4.417  12.466  14.495
24151SOL    HW274286   4.380  12.389  14.369
24152SOL     OW74287   6.182  10.996   2.415
24152SOL    HW174288   6.179  10.936   2.489
24152SOL    HW274289   6.250  11.059   2.437
24153SOL     OW74290   6.443   0.194   3.824
24153SOL    HW174291   6.456   0.112   3.777
24153SOL    HW274292   6.441   0.261   3.756
24154SOL     OW74293   2.339  11.753   5.861
24154SOL    HW174294   2.281  11.767   5.936
24154SOL    HW274295   2.389  11.674   5.884
24155SOL     OW74296  13.865  13.076   3.219
24155SOL    HW174297  13.846  12.994   3.174
24155SOL    HW274298  13.904  13.049   3.302
24156SOL     OW74299  14.226  11.889   6.767
24156SOL    HW174300  14.155  11.855   6.711
24156SOL    HW274301  14.185  11.900   6.853
24157SOL     OW74302   3.067   7.593  14.696
24157SOL    HW174303   2.991   7.535  14.706
24157SOL    HW274304   3.110   7.564  14.616
24158SOL     OW74305  13.861  13.617   6.709
24158SOL    HW174306  13.813  13.556   6.654
24158SOL    HW274307  13.953  13.593   6.699
24159SOL     OW74308  13.601   6.499  14.095
24159SOL    HW174309  13.516   6.460  14.075
24159SOL    HW274310  13.665   6.437  14.059
24160SOL     OW74311   4.570   1.059   2.866
24160SOL    HW174312   4.657   1.074   2.903
24160SOL    HW274313   4.568   1.115   2.788
24161SOL     OW74314  14.498   9.103  13.603
24161SOL    HW174315  14.534   9.160  13.536
24161SOL    HW274316  14.406   9.130  13.611
24162SOL     OW74317   2.919   7.699   0.703
24162SOL    HW174318   2.958   7.679   0.788
24162SOL    HW274319   2.964   7.639   0.643
24163SOL     OW74320  13.039   0.863  12.132
24163SOL    HW174321  13.004   0.946  12.098
24163SOL    HW274322  13.134   0.874  12.128
24164SOL     OW74323  14.813   4.441   0.575
24164SOL    HW174324   0.028   4.419   0.593
24164SOL    HW274325  14.813   4.479   0.487
24165SOL     OW74326  10.754  12.661   0.394
24165SOL    HW174327  10.701  12.741   0.387
24165SOL    HW274328  10.824  12.684   0.454
24166SOL     OW74329   8.705  12.001   6.936
24166SOL    HW174330   8.618  11.985   6.971
24166SOL    HW274331   8.762  11.939   6.981
24167SOL     OW74332   1.084   1.216   4.719
24167SOL    HW174333   1.040   1.253   4.642
24167SOL    HW274334   1.035   1.251   4.793
24168SOL     OW74335   1.119   8.614   6.976
24168SOL    HW174336   1.195   8.672   6.980
24168SOL    HW274337   1.051   8.666   6.933
24169SOL     OW74338  10.302   9.252   5.914
24169SOL    HW174339  10.221   9.207   5.941
24169SOL    HW274340  10.321   9.216   5.827
24170SOL     OW74341  14.100  13.946   4.168
24170SOL    HW174342  14.104  14.040   4.189
24170SOL    HW274343  14.121  13.902   4.250
24171SOL     OW74344  11.400   1.408   5.185
24171SOL    HW174345  11.404   1.451   5.099
24171SOL    HW274346  11.361   1.322   5.167
24172SOL     OW74347  14.308  10.649   3.030
24172SOL    HW174348  14.230  10.704   3.036
24172SOL    HW274349  14.282  10.566   3.070
24173SOL     OW74350  14.093   4.798   8.957
24173SOL    HW174351  14.151   4.729   8.991
24173SOL    HW274352  14.067   4.767   8.870
24174SOL     OW74353   3.894   1.675  11.814
24174SOL    HW174354   3.983   1.640  11.807
24174SOL    HW274355   3.844   1.626  11.750
24175SOL     OW74356  11.692   5.581   7.262
24175SOL    HW174357  11.625   5.648   7.246
24175SOL    HW274358  11.768   5.631   7.292
24176SOL     OW74359   3.053  14.240   1.471
24176SOL    HW174360   3.079  14.174   1.406
24176SOL    HW274361   3.097  14.320   1.442
24177SOL     OW74362   3.269  13.269   5.499
24177SOL    HW174363   3.178  13.274   5.529
24177SOL    HW274364   3.274  13.331   5.426
24178SOL     OW74365   9.733   9.958   8.496
24178SOL    HW174366   9.658   9.930   8.444
24178SOL    HW274367   9.788   9.881   8.504
24179SOL     OW74368   5.416   4.639   6.660
24179SOL    HW174369   5.367   4.659   6.580
24179SOL    HW274370   5.355   4.661   6.731
24180SOL     OW74371   1.943  12.278   6.036
24180SOL    HW174372   2.036  12.295   6.021
24180SOL    HW274373   1.914  12.233   5.957
24181SOL     OW74374   1.146   5.714  13.519
24181SOL    HW174375   1.180   5.782  13.461
24181SOL    HW274376   1.086   5.663  13.465
24182SOL     OW74377   4.019  11.454   3.191
24182SOL    HW174378   4.110  11.424   3.190
24182SOL    HW274379   4.024  11.547   3.169
24183SOL     OW74380  12.009  10.300  12.866
24183SOL    HW174381  12.058  10.284  12.946
24183SOL    HW274382  12.059  10.367  12.820
24184SOL     OW74383   8.676   5.824   1.692
24184SOL    HW174384   8.690   5.774   1.772
24184SOL    HW274385   8.598   5.784   1.652
24185SOL     OW74386   8.058   1.452   5.410
24185SOL    HW174387   8.044   1.368   5.454
24185SOL    HW274388   8.005   1.446   5.331
24186SOL     OW74389   3.986   1.067   2.415
24186SOL    HW174390   4.008   1.159   2.423
24186SOL    HW274391   3.955   1.057   2.325
24187SOL     OW74392   3.038   4.697   3.900
24187SOL    HW174393   3.073   4.760   3.837
24187SOL    HW274394   2.944   4.694   3.880
24188SOL     OW74395  10.126  10.853  14.826
24188SOL    HW174396  10.161  10.929  14.781
24188SOL    HW274397  10.047  10.830  14.777
24189SOL     OW74398   7.814   3.218   6.111
24189SOL    HW174399   7.738   3.166   6.137
24189SOL    HW274400   7.789   3.258   6.028
24190SOL     OW74401   6.980   6.817   0.063
24190SOL    HW174402   7.012   6.741   0.113
24190SOL    HW274403   7.056   6.845   0.012
24191SOL     OW74404   2.731   4.345  11.027
24191SOL    HW174405   2.821   4.362  10.999
24191SOL    HW274406   2.682   4.422  11.000
24192SOL     OW74407   6.785  13.453   7.811
24192SOL    HW174408   6.743  13.539   7.800
24192SOL    HW274409   6.773  13.433   7.904
24193SOL     OW74410  11.983   6.493   8.660
24193SOL    HW174411  12.004   6.485   8.753
24193SOL    HW274412  12.052   6.446   8.615
24194SOL     OW74413  14.623   3.068  11.859
24194SOL    HW174414  14.672   3.150  11.855
24194SOL    HW274415  14.537   3.089  11.824
24195SOL     OW74416   3.276  12.416  11.711
24195SOL    HW174417   3.258  12.333  11.755
24195SOL    HW274418   3.372  12.417  11.701
24196SOL     OW74419  14.200  13.514  10.064
24196SOL    HW174420  14.146  13.507  10.143
24196SOL    HW274421  14.198  13.426  10.027
24197SOL     OW74422   4.450  12.143   1.459
24197SOL    HW174423   4.356  12.161   1.448
24197SOL    HW274424   4.491  12.177   1.380
24198SOL     OW74425  10.401   9.261   3.200
24198SOL    HW174426  10.472   9.302   3.250
24198SOL    HW274427  10.433   9.263   3.109
24199SOL     OW74428   8.823   0.052  10.082
24199SOL    HW174429   8.772  14.853  10.114
24199SOL    HW274430   8.798   0.124  10.139
24200SOL     OW74431  14.380   4.338  13.387
24200SOL    HW174432  14.363   4.424  13.348
24200SOL    HW274433  14.437   4.356  13.461
24201SOL     OW74434   3.801   1.220  13.004
24201SOL    HW174435   3.781   1.312  12.989
24201SOL    HW274436   3.721   1.185  13.045
24202SOL     OW74437   8.168  12.812   5.989
24202SOL    HW174438   8.096  12.841   5.933
24202SOL    HW274439   8.137  12.827   6.078
24203SOL     OW74440   9.145  10.240   9.251
24203SOL    HW174441   9.050  10.236   9.267
24203SOL    HW274442   9.183  10.245   9.339
24204SOL     OW74443   8.523   4.959   1.121
24204SOL    HW174444   8.454   4.899   1.149
24204SOL    HW274445   8.603   4.905   1.120
24205SOL     OW74446   6.664   1.388   4.247
24205SOL    HW174447   6.589   1.434   4.285
24205SOL    HW274448   6.626   1.314   4.201
24206SOL     OW74449  12.685   6.458   1.514
24206SOL    HW174450  12.743   6.491   1.583
24206SOL    HW274451  12.625   6.531   1.496
24207SOL     OW74452   1.510  11.181   1.747
24207SOL    HW174453   1.596  11.178   1.787
24207SOL    HW274454   1.503  11.100   1.697
24208SOL     OW74455   5.431   6.435  12.168
24208SOL    HW174456   5.419   6.408  12.077
24208SOL    HW274457   5.354   6.401  12.214
24209SOL     OW74458   7.095   4.014   3.187
24209SOL    HW174459   7.063   4.084   3.130
24209SOL    HW274460   7.032   4.012   3.259
24210SOL     OW74461   6.941  10.889  12.626
24210SOL    HW174462   6.964  10.797  12.639
24210SOL    HW274463   6.976  10.934  12.703
24211SOL     OW74464   6.827  11.819   2.469
24211SOL    HW174465   6.740  11.859   2.466
24211SOL    HW274466   6.828  11.769   2.550
24212SOL     OW74467  13.717   4.028   6.324
24212SOL    HW174468  13.750   4.082   6.396
24212SOL    HW274469  13.637   3.989   6.359
24213SOL     OW74470   9.102   7.212   1.146
24213SOL    HW174471   9.037   7.159   1.099
24213SOL    HW274472   9.107   7.294   1.097
24214SOL     OW74473   5.832  12.680   6.355
24214SOL    HW174474   5.755  12.638   6.316
24214SOL    HW274475   5.827  12.771   6.325
24215SOL     OW74476   9.181   9.022   3.147
24215SOL    HW174477   9.208   8.938   3.109
24215SOL    HW274478   9.258   9.078   3.138
24216SOL     OW74479   0.060   6.209   4.999
24216SOL    HW174480  14.862   6.151   4.981
24216SOL    HW274481   0.088   6.240   4.912
24217SOL     OW74482   7.812   5.069   2.654
24217SOL    HW174483   7.808   5.073   2.558
24217SOL    HW274484   7.789   5.157   2.683
24218SOL     OW74485   5.597  13.445   7.557
24218SOL    HW174486   5.692  13.453   7.566
24218SOL    HW274487   5.582  13.437   7.463
24219SOL     OW74488  10.482   5.357   0.893
24219SOL    HW174489  10.528   5.286   0.939
24219SOL    HW274490  10.551   5.417   0.866
24220SOL     OW74491  13.325   8.189   2.943
24220SOL    HW174492  13.303   8.234   2.861
24220SOL    HW274493  13.316   8.096   2.923
24221SOL     OW74494   2.108   7.566  14.290
24221SOL    HW174495   2.180   7.509  14.260
24221SOL    HW274496   2.059   7.512  14.352
24222SOL     OW74497   5.145  13.118   0.805
24222SOL    HW174498   5.121  13.047   0.866
24222SOL    HW274499   5.069  13.176   0.805
24223SOL     OW74500   7.445  11.336  13.705
24223SOL    HW174501   7.488  11.422  13.712
24223SOL    HW274502   7.508  11.275  13.741
24224SOL     OW74503  12.246  10.070   3.228
24224SOL    HW174504  12.262  10.081   3.322
24224SOL    HW274505  12.244  10.159   3.193
24225SOL     OW74506   7.651   5.766   5.362
24225SOL    HW174507   7.572   5.817   5.377
24225SOL    HW274508   7.673   5.782   5.270
24226SOL     OW74509   7.656   2.870   5.049
24226SOL    HW174510   7.624   2.790   5.007
24226SOL    HW274511   7.651   2.937   4.981
24227SOL     OW74512   7.167   4.016  12.254
24227SOL    HW174513   7.179   4.110  12.267
24227SOL    HW274514   7.203   3.975  12.333
24228SOL     OW74515   6.812   3.376   8.853
24228SOL    HW174516   6.829   3.367   8.759
24228SOL    HW274517   6.826   3.469   8.871
24229SOL     OW74518  13.297  13.628   8.757
24229SOL    HW174519  13.237  13.672   8.697
24229SOL    HW274520  13.381  13.628   8.713
24230SOL     OW74521   2.706  12.108   7.456
24230SOL    HW174522   2.736  12.141   7.372
24230SOL    HW274523   2.776  12.050   7.486
24231SOL     OW74524   9.243   2.954   4.744
24231SOL    HW174525   9.250   2.938   4.838
24231SOL    HW274526   9.334   2.957   4.713
24232SOL     OW74527   8.164   0.084  14.615
24232SOL    HW174528   8.080   0.058  14.651
24232SOL    HW274529   8.167   0.042  14.529
24233SOL     OW74530  11.065   6.961   6.041
24233SOL    HW174531  11.125   7.009   5.984
24233SOL    HW274532  10.983   7.011   6.038
24234SOL     OW74533   7.730   7.743  13.429
24234SOL    HW174534   7.733   7.831  13.391
24234SOL    HW274535   7.751   7.756  13.521
24235SOL     OW74536   3.738  11.474   5.287
24235SOL    HW174537   3.686  11.554   5.274
24235SOL    HW274538   3.804  11.499   5.351
24236SOL     OW74539   5.235   0.973  11.906
24236SOL    HW174540   5.161   0.945  11.852
24236SOL    HW274541   5.290   1.025  11.847
24237SOL     OW74542  13.943   1.712  11.579
24237SOL    HW174543  13.938   1.800  11.616
24237SOL    HW274544  13.868   1.707  11.519
24238SOL     OW74545   0.117   9.610   2.535
24238SOL    HW174546   0.180   9.610   2.608
24238SOL    HW274547   0.155   9.552   2.470
24239SOL     OW74548   1.610  13.443   4.991
24239SOL    HW174549   1.610  13.400   4.905
24239SOL    HW274550   1.539  13.400   5.038
24240SOL     OW74551   2.007   2.771  11.113
24240SOL    HW174552   2.033   2.805  11.199
24240SOL    HW274553   1.955   2.693  11.133
24241SOL     OW74554   2.314   7.713   7.371
24241SOL    HW174555   2.363   7.641   7.410
24241SOL    HW274556   2.341   7.713   7.279
24242SOL     OW74557   7.549  12.297   6.924
24242SOL    HW174558   7.558  12.379   6.973
24242SOL    HW274559   7.631  12.287   6.877
24243SOL     OW74560   6.452  11.139   8.750
24243SOL    HW174561   6.430  11.145   8.843
24243SOL    HW274562   6.468  11.045   8.736
24244SOL     OW74563   2.244  10.277   0.220
24244SOL    HW174564   2.201  10.240   0.143
24244SOL    HW274565   2.180  10.269   0.290
24245SOL     OW74566  12.766  13.667  13.455
24245SOL    HW174567  12.816  13.704  13.383
24245SOL    HW274568  12.692  13.726  13.466
24246SOL     OW74569   6.347   2.454  10.072
24246SOL    HW174570   6.271   2.402  10.096
24246SOL    HW274571   6.323   2.544  10.097
24247SOL     OW74572   4.140   4.917   3.592
24247SOL    HW174573   4.204   4.947   3.527
24247SOL    HW274574   4.167   4.827   3.612
24248SOL     OW74575   8.809  10.617  13.164
24248SOL    HW174576   8.790  10.708  13.144
24248SOL    HW274577   8.756  10.598  13.242
24249SOL     OW74578   9.010   4.367  12.685
24249SOL    HW174579   9.060   4.366  12.767
24249SOL    HW274580   9.075   4.381  12.617
24250SOL     OW74581  10.507   2.107  14.557
24250SOL    HW174582  10.458   2.107  14.475
24250SOL    HW274583  10.564   2.184  14.550
24251SOL     OW74584  11.962   3.247   5.021
24251SOL    HW174585  12.048   3.269   4.986
24251SOL    HW274586  11.939   3.164   4.980
24252SOL     OW74587   3.967  11.960   8.664
24252SOL    HW174588   3.967  11.883   8.607
24252SOL    HW274589   4.031  11.940   8.732
24253SOL     OW74590   9.776   3.739   2.138
24253SOL    HW174591   9.751   3.819   2.092
24253SOL    HW274592   9.850   3.704   2.089
24254SOL     OW74593  12.516   5.090  11.187
24254SOL    HW174594  12.443   5.039  11.153
24254SOL    HW274595  12.594   5.045  11.156
24255SOL     OW74596   3.494   3.889   8.031
24255SOL    HW174597   3.464   3.932   8.111
24255SOL    HW274598   3.415   3.881   7.977
24256SOL     OW74599   1.857   9.072   4.174
24256SOL    HW174600   1.805   8.993   4.193
24256SOL    HW274601   1.945   9.039   4.157
24257SOL     OW74602  10.834   5.379   8.219
24257SOL    HW174603  10.872   5.459   8.255
24257SOL    HW274604  10.777   5.409   8.148
24258SOL     OW74605   7.759   5.614  14.812
24258SOL    HW174606   7.742   5.522  14.791
24258SOL    HW274607   7.679   5.644  14.855
24259SOL     OW74608   9.408   1.399  12.232
24259SOL    HW174609   9.352   1.424  12.159
24259SOL    HW274610   9.481   1.352  12.192
24260SOL     OW74611   8.796  12.733  14.657
24260SOL    HW174612   8.766  12.722  14.567
24260SOL    HW274613   8.821  12.825  14.663
24261SOL     OW74614   3.461  12.859   9.124
24261SOL    HW174615   3.450  12.904   9.207
24261SOL    HW274616   3.384  12.885   9.072
24262SOL     OW74617  14.487   7.226   0.668
24262SOL    HW174618  14.441   7.198   0.590
24262SOL    HW274619  14.466   7.160   0.734
24263SOL     OW74620  10.206   3.361   2.650
24263SOL    HW174621  10.140   3.340   2.715
24263SOL    HW274622  10.187   3.303   2.576
24264SOL     OW74623   9.621   3.540  14.420
24264SOL    HW174624   9.575   3.619  14.394
24264SOL    HW274625   9.564   3.500  14.486
24265SOL     OW74626  12.589   9.198  12.395
24265SOL    HW174627  12.669   9.154  12.425
24265SOL    HW274628  12.530   9.195  12.470
24266SOL     OW74629  12.183   6.147  14.045
24266SOL    HW174630  12.125   6.170  14.117
24266SOL    HW274631  12.270   6.148  14.083
24267SOL     OW74632  11.097   9.050   6.410
24267SOL    HW174633  11.155   9.064   6.335
24267SOL    HW274634  11.026   9.113   6.397
24268SOL     OW74635  14.816   9.751  10.521
24268SOL    HW174636  14.822   9.798  10.605
24268SOL    HW274637   0.027   9.713  10.509
24269SOL     OW74638   8.355  11.011  13.641
24269SOL    HW174639   8.423  10.990  13.577
24269SOL    HW274640   8.278  10.963  13.610
24270SOL     OW74641   6.475   7.273   9.276
24270SOL    HW174642   6.463   7.205   9.341
24270SOL    HW274643   6.539   7.333   9.315
24271SOL     OW74644   2.081  13.386  13.578
24271SOL    HW174645   2.112  13.449  13.512
24271SOL    HW274646   2.134  13.404  13.655
24272SOL     OW74647   5.793   7.564   5.220
24272SOL    HW174648   5.799   7.483   5.270
24272SOL    HW274649   5.771   7.536   5.131
24273SOL     OW74650   6.715   1.562  10.922
24273SOL    HW174651   6.769   1.504  10.868
24273SOL    HW274652   6.778   1.624  10.961
24274SOL     OW74653   8.747   2.282   1.869
24274SOL    HW174654   8.730   2.249   1.957
24274SOL    HW274655   8.832   2.246   1.846
24275SOL     OW74656   4.191   3.090   9.361
24275SOL    HW174657   4.245   3.156   9.406
24275SOL    HW274658   4.248   3.054   9.294
24276SOL     OW74659  14.170  13.777   9.666
24276SOL    HW174660  14.201  13.754   9.578
24276SOL    HW274661  14.237  13.742   9.724
24277SOL     OW74662  13.860  14.757  13.618
24277SOL    HW174663  13.907  14.727  13.696
24277SOL    HW274664  13.827  14.844  13.642
24278SOL     OW74665   1.738   6.983  11.516
24278SOL    HW174666   1.763   6.960  11.427
24278SOL    HW274667   1.665   6.924  11.536
24279SOL     OW74668  13.395  12.172  12.353
24279SOL    HW174669  13.345  12.169  12.435
24279SOL    HW274670  13.405  12.080  12.328
24280SOL     OW74671  13.441  14.575  11.612
24280SOL    HW174672  13.514  14.559  11.672
24280SOL    HW274673  13.413  14.664  11.632
24281SOL     OW74674   2.722  10.843  14.330
24281SOL    HW174675   2.764  10.924  14.301
24281SOL    HW274676   2.703  10.796  14.249
24282SOL     OW74677   7.231   0.263  14.750
24282SOL    HW174678   7.155   0.250  14.693
24282SOL    HW274679   7.247   0.357  14.747
24283SOL     OW74680  12.498  11.932  12.482
24283SOL    HW174681  12.539  11.932  12.568
24283SOL    HW274682  12.407  11.907  12.499
24284SOL     OW74683   8.345   6.122   8.922
24284SOL    HW174684   8.357   6.198   8.866
24284SOL    HW274685   8.361   6.047   8.865
24285SOL     OW74686   5.019  13.880  13.637
24285SOL    HW174687   4.936  13.899  13.594
24285SOL    HW274688   4.994  13.844  13.722
24286SOL     OW74689   5.291   4.593   3.367
24286SOL    HW174690   5.374   4.579   3.323
24286SOL    HW274691   5.276   4.688   3.361
24287SOL     OW74692   2.287  13.422  11.070
24287SOL    HW174693   2.324  13.344  11.110
24287SOL    HW274694   2.345  13.493  11.099
24288SOL     OW74695  12.891   6.579   7.573
24288SOL    HW174696  12.922   6.542   7.491
24288SOL    HW274697  12.933   6.527   7.641
24289SOL     OW74698   2.380   7.818  14.160
24289SOL    HW174699   2.474   7.834  14.160
24289SOL    HW274700   2.364   7.773  14.077
24290SOL     OW74701  12.499  13.579   1.531
24290SOL    HW174702  12.510  13.486   1.555
24290SOL    HW274703  12.550  13.589   1.451
24291SOL     OW74704   1.403   7.620   5.925
24291SOL    HW174705   1.443   7.533   5.917
24291SOL    HW274706   1.396   7.635   6.019
24292SOL     OW74707   9.222   1.149  11.350
24292SOL    HW174708   9.281   1.224  11.353
24292SOL    HW274709   9.247   1.096  11.425
24293SOL     OW74710   6.631   2.695  11.898
24293SOL    HW174711   6.576   2.751  11.844
24293SOL    HW274712   6.587   2.692  11.983
24294SOL     OW74713   6.667   3.160  13.677
24294SOL    HW174714   6.597   3.224  13.664
24294SOL    HW274715   6.737   3.210  13.719
24295SOL     OW74716   7.438   8.357   4.055
24295SOL    HW174717   7.490   8.411   4.114
24295SOL    HW274718   7.495   8.282   4.035
24296SOL     OW74719   9.417  13.772   3.771
24296SOL    HW174720   9.370  13.691   3.790
24296SOL    HW274721   9.466  13.753   3.691
24297SOL     OW74722   0.132   7.290  11.028
24297SOL    HW174723   0.101   7.267  11.115
24297SOL    HW274724   0.224   7.263  11.027
24298SOL     OW74725   6.261   2.516   4.704
24298SOL    HW174726   6.322   2.513   4.630
24298SOL    HW274727   6.174   2.512   4.663
24299SOL     OW74728   4.884   7.310   4.040
24299SOL    HW174729   4.799   7.354   4.035
24299SOL    HW274730   4.928   7.352   4.114
24300SOL     OW74731   0.978   7.957   5.765
24300SOL    HW174732   1.065   7.995   5.778
24300SOL    HW274733   0.920   8.013   5.818
24301SOL     OW74734  14.222   0.130   3.678
24301SOL    HW174735  14.154   0.132   3.746
24301SOL    HW274736  14.304   0.140   3.726
24302SOL     OW74737  11.764   0.607   9.892
24302SOL    HW174738  11.770   0.697   9.858
24302SOL    HW274739  11.854   0.585   9.915
24303SOL     OW74740   3.278  13.836   9.117
24303SOL    HW174741   3.337  13.805   9.186
24303SOL    HW274742   3.289  13.931   9.117
24304SOL     OW74743  13.423  12.404   9.136
24304SOL    HW174744  13.421  12.456   9.216
24304SOL    HW274745  13.489  12.336   9.154
24305SOL     OW74746   9.726  14.481  11.609
24305SOL    HW174747   9.668  14.416  11.569
24305SOL    HW274748   9.813  14.458  11.576
24306SOL     OW74749   7.871   5.832   8.446
24306SOL    HW174750   7.828   5.899   8.393
24306SOL    HW274751   7.803   5.768   8.464
24307SOL     OW74752   3.657   4.352   6.638
24307SOL    HW174753   3.745   4.321   6.661
24307SOL    HW274754   3.604   4.273   6.629
24308SOL     OW74755   1.421   3.914  14.619
24308SOL    HW174756   1.512   3.893  14.597
24308SOL    HW274757   1.426   3.954  14.706
24309SOL     OW74758  13.425   6.883   7.453
24309SOL    HW174759  13.431   6.974   7.483
24309SOL    HW274760  13.490   6.876   7.384
24310SOL     OW74761  14.743  10.964   0.949
24310SOL    HW174762  14.681  10.986   1.018
24310SOL    HW274763  14.790  10.888   0.982
24311SOL     OW74764  11.284  14.344   3.531
24311SOL    HW174765  11.336  14.268   3.556
24311SOL    HW274766  11.217  14.351   3.599
24312SOL     OW74767   0.985   6.890  14.612
24312SOL    HW174768   0.997   6.811  14.559
24312SOL    HW274769   1.019   6.961  14.557
24313SOL     OW74770  11.126   1.865  12.181
24313SOL    HW174771  11.133   1.779  12.224
24313SOL    HW274772  11.144   1.928  12.251
24314SOL     OW74773  13.922   5.926  11.319
24314SOL    HW174774  13.983   5.909  11.248
24314SOL    HW274775  13.852   5.862  11.307
24315SOL     OW74776   3.379   5.057  14.449
24315SOL    HW174777   3.446   5.016  14.395
24315SOL    HW274778   3.421   5.137  14.482
24316SOL     OW74779   2.151   4.549   8.790
24316SOL    HW174780   2.072   4.504   8.820
24316SOL    HW274781   2.221   4.515   8.846
24317SOL     OW74782   9.934  11.803   0.999
24317SOL    HW174783  10.015  11.825   0.954
24317SOL    HW274784   9.920  11.710   0.980
24318SOL     OW74785   2.615   4.974   5.529
24318SOL    HW174786   2.676   4.924   5.582
24318SOL    HW274787   2.583   5.043   5.587
24319SOL     OW74788  12.522   2.373   6.205
24319SOL    HW174789  12.426   2.373   6.208
24319SOL    HW274790  12.548   2.440   6.268
24320SOL     OW74791   9.251   7.657   0.566
24320SOL    HW174792   9.342   7.681   0.585
24320SOL    HW274793   9.221   7.724   0.505
24321SOL     OW74794  12.256   7.337  10.179
24321SOL    HW174795  12.303   7.372  10.104
24321SOL    HW274796  12.207   7.262  10.145
24322SOL     OW74797  10.502  13.675   3.743
24322SOL    HW174798  10.513  13.636   3.656
24322SOL    HW274799  10.472  13.602   3.798
24323SOL     OW74800  11.806   7.441   8.067
24323SOL    HW174801  11.746   7.376   8.030
24323SOL    HW274802  11.879   7.444   8.005
24324SOL     OW74803   1.984   5.534   0.088
24324SOL    HW174804   1.977   5.612   0.143
24324SOL    HW274805   1.921   5.472   0.125
24325SOL     OW74806   4.206  11.191   6.820
24325SOL    HW174807   4.147  11.244   6.873
24325SOL    HW274808   4.285  11.245   6.809
24326SOL     OW74809   6.724   1.991   4.190
24326SOL    HW174810   6.816   1.993   4.162
24326SOL    HW274811   6.684   1.923   4.135
24327SOL     OW74812   7.790   8.123   5.269
24327SOL    HW174813   7.713   8.158   5.313
24327SOL    HW274814   7.863   8.144   5.328
24328SOL     OW74815  10.673  10.433   6.771
24328SOL    HW174816  10.705  10.369   6.708
24328SOL    HW274817  10.751  10.471   6.810
24329SOL     OW74818   7.708   2.159   3.545
24329SOL    HW174819   7.685   2.244   3.583
24329SOL    HW274820   7.655   2.153   3.466
24330SOL     OW74821   8.841   6.895   2.463
24330SOL    HW174822   8.838   6.858   2.551
24330SOL    HW274823   8.894   6.974   2.472
24331SOL     OW74824   8.055  12.793   2.369
24331SOL    HW174825   8.066  12.759   2.280
24331SOL    HW274826   7.999  12.870   2.359
24332SOL     OW74827  12.453   4.920  12.142
24332SOL    HW174828  12.511   4.848  12.165
24332SOL    HW274829  12.435   4.908  12.048
24333SOL     OW74830   0.289   9.860  10.176
24333SOL    HW174831   0.210   9.864  10.122
24333SOL    HW274832   0.260   9.892  10.262
24334SOL     OW74833   6.959   3.793  12.303
24334SOL    HW174834   6.868   3.765  12.301
24334SOL    HW274835   6.971   3.829  12.391
24335SOL     OW74836  10.667  14.231  11.316
24335SOL    HW174837  10.585  14.273  11.342
24335SOL    HW274838  10.681  14.162  11.381
24336SOL     OW74839   2.956   6.116  11.088
24336SOL    HW174840   2.941   6.027  11.055
24336SOL    HW274841   3.017   6.155  11.025
24337SOL     OW74842   1.910   3.723  12.735
24337SOL    HW174843   1.861   3.744  12.656
24337SOL    HW274844   1.889   3.631  12.753
24338SOL     OW74845   7.532   1.292  11.644
24338SOL    HW174846   7.499   1.209  11.678
24338SOL    HW274847   7.479   1.308  11.566
24339SOL     OW74848   0.819   6.256   2.444
24339SOL    HW174849   0.745   6.232   2.389
24339SOL    HW274850   0.803   6.347   2.467
24340SOL     OW74851   1.451   5.286   9.924
24340SOL    HW174852   1.429   5.229   9.998
24340SOL    HW274853   1.504   5.231   9.867
24341SOL     OW74854  10.732  14.488   3.874
24341SOL    HW174855  10.824  14.465   3.861
24341SOL    HW274856  10.730  14.530   3.960
24342SOL     OW74857   4.018   3.055   1.435
24342SOL    HW174858   4.088   3.009   1.388
24342SOL    HW274859   3.987   2.991   1.500
24343SOL     OW74860   8.274   8.817   3.889
24343SOL    HW174861   8.354   8.829   3.839
24343SOL    HW274862   8.293   8.747   3.951
24344SOL     OW74863   1.426   2.877   5.300
24344SOL    HW174864   1.332   2.896   5.297
24344SOL    HW274865   1.433   2.783   5.284
24345SOL     OW74866  10.711   7.810   5.450
24345SOL    HW174867  10.721   7.750   5.375
24345SOL    HW274868  10.778   7.877   5.435
24346SOL     OW74869  11.365   8.193  10.282
24346SOL    HW174870  11.384   8.242  10.201
24346SOL    HW274871  11.437   8.130  10.289
24347SOL     OW74872   4.073  13.889   1.941
24347SOL    HW174873   4.018  13.898   1.863
24347SOL    HW274874   4.026  13.826   1.996
24348SOL     OW74875   7.772  13.244   3.689
24348SOL    HW174876   7.739  13.329   3.658
24348SOL    HW274877   7.717  13.223   3.764
24349SOL     OW74878   0.200  14.462   7.062
24349SOL    HW174879   0.129  14.521   7.087
24349SOL    HW274880   0.179  14.379   7.103
24350SOL     OW74881   6.102  10.248   4.874
24350SOL    HW174882   6.033  10.183   4.858
24350SOL    HW274883   6.183  10.203   4.848
24351SOL     OW74884   6.714   4.839   5.388
24351SOL    HW174885   6.747   4.909   5.444
24351SOL    HW274886   6.621   4.859   5.378
24352SOL     OW74887   3.383  10.061  11.936
24352SOL    HW174888   3.437  10.124  11.889
24352SOL    HW274889   3.385   9.982  11.883
24353SOL     OW74890   1.093   3.986   6.876
24353SOL    HW174891   1.146   3.914   6.844
24353SOL    HW274892   1.007   3.947   6.894
24354SOL     OW74893   8.534   4.093  12.001
24354SOL    HW174894   8.522   4.089  11.907
24354SOL    HW274895   8.586   4.016  12.023
24355SOL     OW74896   6.297   5.260  10.518
24355SOL    HW174897   6.378   5.304  10.542
24355SOL    HW274898   6.259   5.316  10.450
24356SOL     OW74899  10.007   1.951   3.132
24356SOL    HW174900   9.930   1.975   3.079
24356SOL    HW274901  10.052   2.033   3.148
24357SOL     OW74902  14.669   8.491   2.142
24357SOL    HW174903  14.752   8.444   2.143
24357SOL    HW274904  14.687   8.572   2.190
24358SOL     OW74905   9.324   4.497  14.104
24358SOL    HW174906   9.274   4.546  14.038
24358SOL    HW274907   9.257   4.451  14.154
24359SOL     OW74908  13.477   3.569  11.509
24359SOL    HW174909  13.452   3.559  11.601
24359SOL    HW274910  13.435   3.650  11.481
24360SOL     OW74911   3.867   6.975  12.134
24360SOL    HW174912   3.955   6.997  12.103
24360SOL    HW274913   3.871   6.990  12.229
24361SOL     OW74914   3.555  12.346  14.760
24361SOL    HW174915   3.572  12.253  14.745
24361SOL    HW274916   3.575  12.388  14.677
24362SOL     OW74917   1.296  13.578  10.640
24362SOL    HW174918   1.211  13.624  10.638
24362SOL    HW274919   1.350  13.627  10.578
24363SOL     OW74920  11.937   4.080  13.719
24363SOL    HW174921  11.984   4.037  13.647
24363SOL    HW274922  11.996   4.149  13.749
24364SOL     OW74923  10.564   2.841   7.528
24364SOL    HW174924  10.649   2.873   7.496
24364SOL    HW274925  10.583   2.755   7.564
24365SOL     OW74926  14.297   8.261   1.426
24365SOL    HW174927  14.262   8.174   1.443
24365SOL    HW274928  14.293   8.306   1.510
24366SOL     OW74929   9.198   6.607   5.410
24366SOL    HW174930   9.199   6.597   5.315
24366SOL    HW274931   9.275   6.661   5.428
24367SOL     OW74932  11.628  10.552   7.091
24367SOL    HW174933  11.555  10.556   7.153
24367SOL    HW274934  11.613  10.626   7.031
24368SOL     OW74935   0.458  11.896   8.460
24368SOL    HW174936   0.539  11.849   8.443
24368SOL    HW274937   0.414  11.901   8.375
24369SOL     OW74938   0.082   9.254  11.507
24369SOL    HW174939   0.131   9.296  11.435
24369SOL    HW274940   0.150   9.221  11.565
24370SOL     OW74941   5.398  13.311  10.553
24370SOL    HW174942   5.309  13.347  10.556
24370SOL    HW274943   5.448  13.375  10.503
24371SOL     OW74944   1.271   8.982   9.010
24371SOL    HW174945   1.366   8.972   9.005
24371SOL    HW274946   1.247   8.936   9.090
24372SOL     OW74947  10.790  14.306  12.858
24372SOL    HW174948  10.741  14.227  12.882
24372SOL    HW274949  10.758  14.328  12.770
24373SOL     OW74950   5.955  14.104   3.962
24373SOL    HW174951   5.992  14.085   4.049
24373SOL    HW274952   5.929  14.018   3.928
24374SOL     OW74953   4.042   1.590   8.039
24374SOL    HW174954   3.959   1.561   8.077
24374SOL    HW274955   4.020   1.614   7.949
24375SOL     OW74956   4.216   0.628  11.114
24375SOL    HW174957   4.130   0.603  11.078
24375SOL    HW274958   4.265   0.659  11.038
24376SOL     OW74959   6.910  12.468   8.920
24376SOL    HW174960   6.865  12.383   8.925
24376SOL    HW274961   6.855  12.527   8.972
24377SOL     OW74962   5.049   5.521   5.759
24377SOL    HW174963   4.979   5.525   5.694
24377SOL    HW274964   5.006   5.539   5.842
24378SOL     OW74965  11.665   7.775   5.280
24378SOL    HW174966  11.673   7.860   5.323
24378SOL    HW274967  11.649   7.713   5.352
24379SOL     OW74968  11.578   7.354  11.158
24379SOL    HW174969  11.518   7.280  11.172
24379SOL    HW274970  11.531   7.411  11.097
24380SOL     OW74971   1.792   6.061   4.793
24380SOL    HW174972   1.880   6.027   4.810
24380SOL    HW274973   1.805   6.155   4.778
24381SOL     OW74974   9.088  13.992   3.426
24381SOL    HW174975   9.016  13.948   3.472
24381SOL    HW274976   9.050  14.075   3.397
24382SOL     OW74977  12.289   5.658  10.813
24382SOL    HW174978  12.375   5.666  10.854
24382SOL    HW274979  12.267   5.747  10.786
24383SOL     OW74980  10.920   7.314   8.316
24383SOL    HW174981  10.884   7.368   8.387
24383SOL    HW274982  10.843   7.278   8.272
24384SOL     OW74983   9.270  14.482   3.744
24384SOL    HW174984   9.200  14.460   3.682
24384SOL    HW274985   9.306  14.398   3.770
24385SOL     OW74986   0.290   1.515   3.912
24385SOL    HW174987   0.298   1.551   3.823
24385SOL    HW274988   0.247   1.584   3.962
24386SOL     OW74989   9.550   2.778   8.109
24386SOL    HW174990   9.583   2.753   8.024
24386SOL    HW274991   9.619   2.753   8.171
24387SOL     OW74992  13.822  11.526  13.219
24387SOL    HW174993  13.857  11.615  13.221
24387SOL    HW274994  13.899  11.470  13.219
24388SOL     OW74995   8.507   1.217   1.840
24388SOL    HW174996   8.599   1.244   1.835
24388SOL    HW274997   8.472   1.236   1.754
24389SOL     OW74998   2.436   8.912   4.831
24389SOL    HW174999   2.405   8.885   4.918
24389SOL    HW275000   2.513   8.965   4.849
24390SOL     OW75001   0.618  12.217   5.175
24390SOL    HW175002   0.528  12.184   5.179
24390SOL    HW275003   0.666  12.150   5.126
24391SOL     OW75004  10.871  13.559  14.435
24391SOL    HW175005  10.935  13.553  14.364
24391SOL    HW275006  10.843  13.651  14.434
24392SOL     OW75007   8.971  14.563   3.743
24392SOL    HW175008   8.920  14.491   3.782
24392SOL    HW275009   9.007  14.525   3.663
24393SOL     OW75010  10.782   6.720   4.865
24393SOL    HW175011  10.826   6.715   4.950
24393SOL    HW275012  10.729   6.799   4.870
24394SOL     OW75013   7.831   7.237   6.698
24394SOL    HW175014   7.824   7.205   6.608
24394SOL    HW275015   7.793   7.168   6.752
24395SOL     OW75016   5.716  10.970   8.002
24395SOL    HW175017   5.786  10.907   7.987
24395SOL    HW275018   5.677  10.984   7.915
24396SOL     OW75019   4.263   6.780   1.916
24396SOL    HW175020   4.236   6.712   1.854
24396SOL    HW275021   4.357   6.765   1.928
24397SOL     OW75022   7.953  14.827   4.159
24397SOL    HW175023   7.886  14.821   4.090
24397SOL    HW275024   7.909  14.870   4.232
24398SOL     OW75025   2.188   4.589   7.881
24398SOL    HW175026   2.192   4.678   7.846
24398SOL    HW275027   2.095   4.569   7.883
24399SOL     OW75028  11.715  12.921   1.080
24399SOL    HW175029  11.811  12.917   1.082
24399SOL    HW275030  11.693  12.924   0.987
24400SOL     OW75031   5.264  12.435  12.443
24400SOL    HW175032   5.299  12.348  12.425
24400SOL    HW275033   5.339  12.493  12.437
24401SOL     OW75034   7.478  12.805   8.427
24401SOL    HW175035   7.387  12.805   8.457
24401SOL    HW275036   7.529  12.788   8.505
24402SOL     OW75037  13.714   9.522   5.647
24402SOL    HW175038  13.795   9.478   5.671
24402SOL    HW275039  13.738   9.578   5.573
24403SOL     OW75040   3.510  11.854  11.193
24403SOL    HW175041   3.483  11.853  11.284
24403SOL    HW275042   3.571  11.927  11.186
24404SOL     OW75043   7.895  10.926   9.040
24404SOL    HW175044   7.986  10.954   9.043
24404SOL    HW275045   7.874  10.901   9.130
24405SOL     OW75046   5.440   3.577   4.698
24405SOL    HW175047   5.508   3.518   4.665
24405SOL    HW275048   5.359   3.546   4.658
24406SOL     OW75049   1.236  12.036   2.727
24406SOL    HW175050   1.310  12.088   2.696
24406SOL    HW275051   1.187  12.014   2.648
24407SOL     OW75052   9.903   7.282  13.801
24407SOL    HW175053   9.825   7.338  13.797
24407SOL    HW275054   9.878   7.212  13.861
24408SOL     OW75055  13.879  11.771   5.619
24408SOL    HW175056  13.849  11.861   5.636
24408SOL    HW275057  13.967  11.781   5.584
24409SOL     OW75058  12.230  14.438  14.591
24409SOL    HW175059  12.236  14.533  14.585
24409SOL    HW275060  12.146  14.422  14.634
24410SOL     OW75061  10.016   0.225  14.031
24410SOL    HW175062  10.091   0.201  13.976
24410SOL    HW275063   9.975   0.297  13.984
24411SOL     OW75064   1.692   2.010   4.550
24411SOL    HW175065   1.606   2.017   4.507
24411SOL    HW275066   1.755   2.018   4.479
24412SOL     OW75067   1.112   4.556  11.873
24412SOL    HW175068   1.095   4.507  11.793
24412SOL    HW275069   1.206   4.572  11.873
24413SOL     OW75070   8.111   3.695   3.705
24413SOL    HW175071   8.044   3.628   3.719
24413SOL    HW275072   8.190   3.646   3.683
24414SOL     OW75073   3.953  14.833   4.433
24414SOL    HW175074   3.906  14.791   4.362
24414SOL    HW275075   4.036  14.861   4.394
24415SOL     OW75076   6.318   1.059   5.082
24415SOL    HW175077   6.410   1.082   5.092
24415SOL    HW275078   6.299   1.074   4.989
24416SOL     OW75079  12.306   9.196   0.963
24416SOL    HW175080  12.385   9.234   0.923
24416SOL    HW275081  12.261   9.152   0.891
24417SOL     OW75082   9.832  14.554   2.202
24417SOL    HW175083   9.902  14.500   2.239
24417SOL    HW275084   9.752  14.520   2.242
24418SOL     OW75085   7.004   2.857   9.289
24418SOL    HW175086   6.912   2.834   9.294
24418SOL    HW275087   7.023   2.863   9.195
24419SOL     OW75088  13.290  11.473   3.583
24419SOL    HW175089  13.348  11.549   3.574
24419SOL    HW275090  13.316  11.433   3.666
24420SOL     OW75091  10.628  13.925   7.036
24420SOL    HW175092  10.643  13.998   7.096
24420SOL    HW275093  10.713  13.880   7.032
24421SOL     OW75094   2.532   3.560   5.453
24421SOL    HW175095   2.500   3.506   5.381
24421SOL    HW275096   2.452   3.594   5.495
24422SOL     OW75097  11.676   7.138   0.969
24422SOL    HW175098  11.607   7.087   0.926
24422SOL    HW275099  11.734   7.072   1.006
24423SOL     OW75100   1.368  14.113  10.669
24423SOL    HW175101   1.382  14.028  10.710
24423SOL    HW275102   1.272  14.122  10.665
24424SOL     OW75103  11.363   1.405  12.018
24424SOL    HW175104  11.372   1.351  11.940
24424SOL    HW275105  11.357   1.342  12.090
24425SOL     OW75106  12.148   7.030   4.128
24425SOL    HW175107  12.174   7.079   4.050
24425SOL    HW275108  12.192   7.076   4.200
24426SOL     OW75109  14.075  12.356   2.121
24426SOL    HW175110  14.151  12.301   2.102
24426SOL    HW275111  14.074  12.364   2.216
24427SOL     OW75112   7.055   3.778   0.137
24427SOL    HW175113   7.064   3.795   0.043
24427SOL    HW275114   6.963   3.793   0.156
24428SOL     OW75115   4.790  12.721  12.384
24428SOL    HW175116   4.765  12.812  12.400
24428SOL    HW275117   4.855  12.726  12.314
24429SOL     OW75118   9.597  13.840   6.201
24429SOL    HW175119   9.530  13.886   6.251
24429SOL    HW275120   9.554  13.816   6.119
24430SOL     OW75121  11.038   9.361   5.075
24430SOL    HW175122  11.051   9.451   5.104
24430SOL    HW275123  10.968   9.366   5.010
24431SOL     OW75124  13.653   0.794   4.774
24431SOL    HW175125  13.628   0.704   4.755
24431SOL    HW275126  13.586   0.824   4.836
24432SOL     OW75127   0.386   2.544  13.435
24432SOL    HW175128   0.363   2.553  13.342
24432SOL    HW275129   0.333   2.611  13.479
24433SOL     OW75130   2.540   9.636   0.985
24433SOL    HW175131   2.508   9.693   1.055
24433SOL    HW275132   2.599   9.692   0.934
24434SOL     OW75133   6.175  13.856   6.096
24434SOL    HW175134   6.223  13.897   6.025
24434SOL    HW275135   6.195  13.909   6.173
24435SOL     OW75136   2.727   5.993   4.352
24435SOL    HW175137   2.737   5.913   4.404
24435SOL    HW275138   2.810   6.002   4.306
24436SOL     OW75139   6.103   4.180   7.780
24436SOL    HW175140   6.143   4.154   7.862
24436SOL    HW275141   6.159   4.142   7.712
24437SOL     OW75142   3.835  10.326   8.056
24437SOL    HW175143   3.772  10.327   8.128
24437SOL    HW275144   3.902  10.389   8.081
24438SOL     OW75145   2.300   7.749  14.867
24438SOL    HW175146   2.229   7.803   0.025
24438SOL    HW275147   2.380   7.793   0.019
24439SOL     OW75148   5.432   0.556   7.909
24439SOL    HW175149   5.360   0.523   7.963
24439SOL    HW275150   5.398   0.553   7.819
24440SOL     OW75151   9.330   0.128   1.554
24440SOL    HW175152   9.415   0.171   1.550
24440SOL    HW275153   9.273   0.181   1.498
24441SOL     OW75154   2.391  10.611  10.469
24441SOL    HW175155   2.474  10.651  10.444
24441SOL    HW275156   2.377  10.541  10.405
24442SOL     OW75157   5.045   0.056   4.030
24442SOL    HW175158   5.128   0.097   4.057
24442SOL    HW275159   4.978   0.111   4.069
24443SOL     OW75160   2.062   1.687   1.967
24443SOL    HW175161   2.044   1.600   1.929
24443SOL    HW275162   2.112   1.732   1.899
24444SOL     OW75163   1.499  11.172   3.610
24444SOL    HW175164   1.416  11.205   3.575
24444SOL    HW275165   1.498  11.078   3.589
24445SOL     OW75166   0.946   7.542  13.236
24445SOL    HW175167   1.016   7.584  13.186
24445SOL    HW275168   0.896   7.492  13.172
24446SOL     OW75169  10.906   7.046  10.626
24446SOL    HW175170  10.825   7.045  10.574
24446SOL    HW275171  10.877   7.029  10.715
24447SOL     OW75172   2.823   8.943  12.511
24447SOL    HW175173   2.898   8.907  12.463
24447SOL    HW275174   2.800   9.023  12.464
24448SOL     OW75175   7.022   1.859  10.467
24448SOL    HW175176   6.931   1.887  10.466
24448SOL    HW275177   7.018   1.764  10.479
24449SOL     OW75178   1.950   0.651   6.638
24449SOL    HW175179   2.006   0.728   6.639
24449SOL    HW275180   1.893   0.661   6.715
24450SOL     OW75181   0.464   5.519   3.652
24450SOL    HW175182   0.372   5.498   3.667
24450SOL    HW275183   0.504   5.435   3.630
24451SOL     OW75184   5.456  11.308   4.497
24451SOL    HW175185   5.547  11.338   4.496
24451SOL    HW275186   5.406  11.383   4.464
24452SOL     OW75187   9.649   8.481   0.559
24452SOL    HW175188   9.700   8.432   0.624
24452SOL    HW275189   9.571   8.427   0.545
24453SOL     OW75190   6.972  12.123  10.331
24453SOL    HW175191   6.933  12.185  10.269
24453SOL    HW275192   7.066  12.126  10.311
24454SOL     OW75193  12.241   7.301   1.740
24454SOL    HW175194  12.282   7.218   1.765
24454SOL    HW275195  12.298   7.368   1.778
24455SOL     OW75196   3.296   3.056   3.656
24455SOL    HW175197   3.368   3.118   3.666
24455SOL    HW275198   3.229   3.086   3.718
24456SOL     OW75199   8.835   6.577   7.458
24456SOL    HW175200   8.801   6.492   7.487
24456SOL    HW275201   8.768   6.640   7.486
24457SOL     OW75202   8.814   4.038   6.798
24457SOL    HW175203   8.858   3.970   6.850
24457SOL    HW275204   8.884   4.096   6.770
24458SOL     OW75205   6.354   7.509   1.918
24458SOL    HW175206   6.405   7.520   1.838
24458SOL    HW275207   6.348   7.597   1.955
24459SOL     OW75208   5.028   6.104  10.076
24459SOL    HW175209   5.079   6.133  10.152
24459SOL    HW275210   4.943   6.148  10.086
24460SOL     OW75211   4.701   8.192   0.435
24460SOL    HW175212   4.607   8.183   0.452
24460SOL    HW275213   4.736   8.233   0.514
24461SOL     OW75214   4.086  13.218   4.499
24461SOL    HW175215   4.072  13.293   4.442
24461SOL    HW275216   4.131  13.254   4.575
24462SOL     OW75217   7.891  12.597   8.103
24462SOL    HW175218   7.843  12.679   8.089
24462SOL    HW275219   7.869  12.544   8.027
24463SOL     OW75220  10.525   6.018   2.990
24463SOL    HW175221  10.486   5.953   2.930
24463SOL    HW275222  10.464   6.021   3.063
24464SOL     OW75223   1.054   3.163   2.770
24464SOL    HW175224   1.014   3.156   2.684
24464SOL    HW275225   1.112   3.239   2.763
24465SOL     OW75226   9.201  10.284   4.149
24465SOL    HW175227   9.212  10.210   4.208
24465SOL    HW275228   9.106  10.287   4.132
24466SOL     OW75229   8.353  12.490  10.091
24466SOL    HW175230   8.335  12.530  10.005
24466SOL    HW275231   8.325  12.399  10.081
24467SOL     OW75232  12.009  14.468   5.672
24467SOL    HW175233  11.988  14.395   5.614
24467SOL    HW275234  12.017  14.543   5.614
24468SOL     OW75235   5.343   6.498   1.620
24468SOL    HW175236   5.306   6.586   1.624
24468SOL    HW275237   5.329   6.462   1.707
24469SOL     OW75238   5.231   3.309   4.828
24469SOL    HW175239   5.195   3.374   4.768
24469SOL    HW275240   5.184   3.228   4.807
24470SOL     OW75241  11.278  12.263  12.693
24470SOL    HW175242  11.267  12.345  12.645
24470SOL    HW275243  11.210  12.265  12.760
24471SOL     OW75244   4.347   6.466   1.313
24471SOL    HW175245   4.364   6.554   1.279
24471SOL    HW275246   4.398   6.408   1.257
24472SOL     OW75247   4.444  10.921  13.174
24472SOL    HW175248   4.349  10.932  13.170
24472SOL    HW275249   4.463  10.850  13.113
24473SOL     OW75250   4.688   2.616   3.168
24473SOL    HW175251   4.593   2.605   3.180
24473SOL    HW275252   4.712   2.684   3.230
24474SOL     OW75253   0.509  14.393   9.251
24474SOL    HW175254   0.530  14.322   9.312
24474SOL    HW275255   0.568  14.378   9.177
24475SOL     OW75256  13.580  10.150   1.931
24475SOL    HW175257  13.598  10.215   1.863
24475SOL    HW275258  13.603  10.195   2.013
24476SOL     OW75259   8.334   1.488   1.351
24476SOL    HW175260   8.279   1.566   1.337
24476SOL    HW275261   8.364   1.464   1.263
24477SOL     OW75262   0.122  10.022  11.700
24477SOL    HW175263   0.187   9.957  11.672
24477SOL    HW275264   0.040   9.973  11.707
24478SOL     OW75265   0.330   7.876  13.201
24478SOL    HW175266   0.242   7.876  13.241
24478SOL    HW275267   0.383   7.823  13.261
24479SOL     OW75268  14.353   9.781  12.888
24479SOL    HW175269  14.279   9.839  12.909
24479SOL    HW275270  14.354   9.717  12.960
24480SOL     OW75271   9.583   6.890   0.896
24480SOL    HW175272   9.563   6.936   0.978
24480SOL    HW275273   9.604   6.960   0.834
24481SOL     OW75274   3.269   4.305   8.023
24481SOL    HW175275   3.221   4.337   7.946
24481SOL    HW275276   3.361   4.309   7.996
24482SOL     OW75277   7.564   0.028  12.225
24482SOL    HW175278   7.643  14.857  12.197
24482SOL    HW275279   7.573   0.115  12.187
24483SOL     OW75280   0.678   9.857  10.413
24483SOL    HW175281   0.707   9.772  10.444
24483SOL    HW275282   0.670   9.847  10.318
24484SOL     OW75283   8.466   2.850   9.349
24484SOL    HW175284   8.389   2.827   9.400
24484SOL    HW275285   8.521   2.772   9.352
24485SOL     OW75286   7.458   2.772   0.120
24485SOL    HW175287   7.370   2.743   0.146
24485SOL    HW275288   7.447   2.866   0.102
24486SOL     OW75289   1.661  10.683  13.926
24486SOL    HW175290   1.725  10.738  13.881
24486SOL    HW275291   1.673  10.703  14.019
24487SOL     OW75292   1.798  10.601   5.855
24487SOL    HW175293   1.759  10.676   5.809
24487SOL    HW275294   1.782  10.527   5.797
24488SOL     OW75295   9.766   6.190  12.396
24488SOL    HW175296   9.856   6.156  12.392
24488SOL    HW275297   9.773   6.280  12.365
24489SOL     OW75298   3.906  12.093   1.169
24489SOL    HW175299   3.817  12.083   1.203
24489SOL    HW275300   3.904  12.175   1.120
24490SOL     OW75301  10.059   3.093  11.781
24490SOL    HW175302  10.123   3.142  11.730
24490SOL    HW275303  10.105   3.070  11.862
24491SOL     OW75304   2.143   4.330   6.675
24491SOL    HW175305   2.087   4.263   6.714
24491SOL    HW275306   2.184   4.287   6.600
24492SOL     OW75307   7.910  11.371   3.306
24492SOL    HW175308   7.868  11.302   3.358
24492SOL    HW275309   7.850  11.385   3.232
24493SOL     OW75310   3.122   4.478   1.818
24493SOL    HW175311   3.211   4.469   1.852
24493SOL    HW275312   3.067   4.489   1.895
24494SOL     OW75313  13.608   9.241   0.027
24494SOL    HW175314  13.703   9.232   0.036
24494SOL    HW275315  13.585   9.185  14.829
24495SOL     OW75316   2.015  11.749   8.753
24495SOL    HW175317   1.985  11.829   8.796
24495SOL    HW275318   2.035  11.776   8.663
24496SOL     OW75319   5.308   6.858  12.079
24496SOL    HW175320   5.316   6.817  12.166
24496SOL    HW275321   5.397   6.888  12.059
24497SOL     OW75322   6.731  14.606   7.385
24497SOL    HW175323   6.768  14.686   7.421
24497SOL    HW275324   6.661  14.583   7.446
24498SOL     OW75325   5.771   3.290   5.158
24498SOL    HW175326   5.779   3.314   5.066
24498SOL    HW275327   5.834   3.346   5.203
24499SOL     OW75328   8.412   7.164  14.115
24499SOL    HW175329   8.335   7.193  14.066
24499SOL    HW275330   8.419   7.227  14.187
24500SOL     OW75331   0.613   5.576   9.366
24500SOL    HW175332   0.543   5.553   9.305
24500SOL    HW275333   0.606   5.672   9.374
24501SOL     OW75334   0.379  11.002   5.516
24501SOL    HW175335   0.321  10.992   5.592
24501SOL    HW275336   0.467  11.001   5.554
24502SOL     OW75337  14.310  11.498   9.716
24502SOL    HW175338  14.289  11.421   9.768
24502SOL    HW275339  14.391  11.532   9.754
24503SOL     OW75340  12.579  12.722  11.689
24503SOL    HW175341  12.628  12.667  11.627
24503SOL    HW275342  12.646  12.765  11.741
24504SOL     OW75343   2.476  13.607  14.026
24504SOL    HW175344   2.519  13.525  14.000
24504SOL    HW275345   2.528  13.675  13.984
24505SOL     OW75346   4.455  11.392   1.668
24505SOL    HW175347   4.384  11.402   1.605
24505SOL    HW275348   4.513  11.326   1.629
24506SOL     OW75349   2.771   0.419   7.376
24506SOL    HW175350   2.817   0.418   7.293
24506SOL    HW275351   2.812   0.349   7.427
24507SOL     OW75352   8.573  11.486  11.319
24507SOL    HW175353   8.504  11.551  11.307
24507SOL    HW275354   8.571  11.434  11.238
24508SOL     OW75355  14.301   5.901   9.380
24508SOL    HW175356  14.272   5.934   9.465
24508SOL    HW275357  14.222   5.869   9.339
24509SOL     OW75358   7.258   7.960  12.106
24509SOL    HW175359   7.187   7.906  12.073
24509SOL    HW275360   7.338   7.919  12.070
24510SOL     OW75361  11.672   0.497   0.070
24510SOL    HW175362  11.633   0.505  14.859
24510SOL    HW275363  11.622   0.558   0.124
24511SOL     OW75364   9.837   3.002  14.721
24511SOL    HW175365   9.788   2.938  14.670
24511SOL    HW275366   9.916   3.019  14.668
24512SOL     OW75367   3.997   0.289  12.440
24512SOL    HW175368   3.919   0.317  12.391
24512SOL    HW275369   4.071   0.318  12.387
24513SOL     OW75370  12.103   0.227   2.904
24513SOL    HW175371  12.143   0.187   2.981
24513SOL    HW275372  12.176   0.238   2.843
24514SOL     OW75373  11.109   2.723  11.863
24514SOL    HW175374  11.118   2.803  11.811
24514SOL    HW275375  11.022   2.730  11.903
24515SOL     OW75376  12.094   5.389   4.034
24515SOL    HW175377  12.084   5.404   3.940
24515SOL    HW275378  12.125   5.473   4.068
24516SOL     OW75379   5.580   7.020  10.398
24516SOL    HW175380   5.520   6.986  10.465
24516SOL    HW275381   5.558   7.113  10.391
24517SOL     OW75382   6.200   3.830   4.711
24517SOL    HW175383   6.231   3.739   4.709
24517SOL    HW275384   6.179   3.847   4.802
24518SOL     OW75385   3.808   3.414   2.768
24518SOL    HW175386   3.833   3.326   2.796
24518SOL    HW275387   3.889   3.453   2.736
24519SOL     OW75388   0.224   0.923  12.298
24519SOL    HW175389   0.131   0.947  12.305
24519SOL    HW275390   0.247   0.943  12.207
24520SOL     OW75391   6.578  14.530   2.248
24520SOL    HW175392   6.536  14.445   2.257
24520SOL    HW275393   6.507  14.588   2.219
24521SOL     OW75394   3.979  11.929  14.185
24521SOL    HW175395   4.042  11.988  14.227
24521SOL    HW275396   3.896  11.977  14.187
24522SOL     OW75397  12.390   0.903   2.043
24522SOL    HW175398  12.372   0.883   2.134
24522SOL    HW275399  12.441   0.828   2.012
24523SOL     OW75400   0.571   6.989   6.743
24523SOL    HW175401   0.648   7.009   6.690
24523SOL    HW275402   0.531   6.914   6.700
24524SOL     OW75403   0.459   9.920   3.570
24524SOL    HW175404   0.472  10.014   3.559
24524SOL    HW275405   0.526   9.894   3.633
24525SOL     OW75406   5.001   9.038  10.352
24525SOL    HW175407   4.958   8.988  10.422
24525SOL    HW275408   5.011   8.976  10.281
24526SOL     OW75409  11.522   5.321  14.791
24526SOL    HW175410  11.508   5.374  14.869
24526SOL    HW275411  11.590   5.259  14.816
24527SOL     OW75412  14.230   5.701  10.490
24527SOL    HW175413  14.318   5.678  10.461
24527SOL    HW275414  14.243   5.776  10.548
24528SOL     OW75415   1.337  11.619   6.812
24528SOL    HW175416   1.314  11.604   6.720
24528SOL    HW275417   1.317  11.711   6.827
24529SOL     OW75418   4.503   3.035   0.576
24529SOL    HW175419   4.597   3.023   0.590
24529SOL    HW275420   4.478   3.103   0.638
24530SOL     OW75421   1.176   1.792   7.800
24530SOL    HW175422   1.201   1.700   7.800
24530SOL    HW275423   1.213   1.827   7.881
24531SOL     OW75424   4.930  12.047  11.070
24531SOL    HW175425   4.982  12.065  11.148
24531SOL    HW275426   4.841  12.034  11.103
24532SOL     OW75427   8.918   3.777   2.518
24532SOL    HW175428   8.937   3.727   2.597
24532SOL    HW275429   8.898   3.711   2.451
24533SOL     OW75430   4.919   4.004  12.512
24533SOL    HW175431   4.929   4.067  12.582
24533SOL    HW275432   5.006   3.965  12.501
24534SOL     OW75433  10.662   3.722  12.635
24534SOL    HW175434  10.751   3.754  12.648
24534SOL    HW275435  10.657   3.643  12.689
24535SOL     OW75436  14.461   6.458  14.079
24535SOL    HW175437  14.429   6.537  14.035
24535SOL    HW275438  14.542   6.436  14.034
24536SOL     OW75439   1.860   2.075   7.163
24536SOL    HW175440   1.771   2.094   7.190
24536SOL    HW275441   1.907   2.157   7.177
24537SOL     OW75442   1.731  10.454   7.244
24537SOL    HW175443   1.721  10.517   7.316
24537SOL    HW275444   1.651  10.402   7.247
24538SOL     OW75445   4.985   3.666   5.558
24538SOL    HW175446   4.927   3.723   5.609
24538SOL    HW275447   5.071   3.676   5.600
24539SOL     OW75448   1.124  13.149  12.897
24539SOL    HW175449   1.081  13.156  12.812
24539SOL    HW275450   1.092  13.066  12.934
24540SOL     OW75451  13.337  14.439   5.374
24540SOL    HW175452  13.314  14.512   5.431
24540SOL    HW275453  13.357  14.480   5.290
24541SOL     OW75454   7.007   2.138   2.707
24541SOL    HW175455   6.924   2.105   2.673
24541SOL    HW275456   6.982   2.194   2.780
24542SOL     OW75457   2.477  14.658   1.886
24542SOL    HW175458   2.490  14.682   1.795
24542SOL    HW275459   2.410  14.720   1.918
24543SOL     OW75460  12.167   6.372  13.601
24543SOL    HW175461  12.224   6.445  13.626
24543SOL    HW275462  12.140   6.333  13.684
24544SOL     OW75463   8.970  11.848   2.399
24544SOL    HW175464   9.008  11.836   2.312
24544SOL    HW275465   8.875  11.842   2.384
24545SOL     OW75466   8.708   5.192   2.451
24545SOL    HW175467   8.799   5.207   2.478
24545SOL    HW275468   8.661   5.270   2.481
24546SOL     OW75469  14.306   5.496  13.674
24546SOL    HW175470  14.350   5.412  13.684
24546SOL    HW275471  14.377   5.558  13.657
24547SOL     OW75472   0.323  14.175  11.223
24547SOL    HW175473   0.329  14.099  11.281
24547SOL    HW275474   0.330  14.139  11.135
24548SOL     OW75475  13.034  13.119   5.755
24548SOL    HW175476  13.098  13.186   5.729
24548SOL    HW275477  13.082  13.064   5.817
24549SOL     OW75478   4.623   0.602  13.794
24549SOL    HW175479   4.624   0.511  13.765
24549SOL    HW275480   4.555   0.605  13.861
24550SOL     OW75481  12.355  10.833  12.307
24550SOL    HW175482  12.354  10.841  12.212
24550SOL    HW275483  12.337  10.741  12.324
24551SOL     OW75484   5.635   9.524   1.704
24551SOL    HW175485   5.690   9.487   1.635
24551SOL    HW275486   5.546   9.514   1.670
24552SOL     OW75487  11.744   9.794   1.773
24552SOL    HW175488  11.756   9.711   1.728
24552SOL    HW275489  11.666   9.833   1.733
24553SOL     OW75490   5.232   3.718   2.893
24553SOL    HW175491   5.210   3.641   2.946
24553SOL    HW275492   5.217   3.792   2.952
24554SOL     OW75493   4.635  10.218   5.894
24554SOL    HW175494   4.570  10.213   5.964
24554SOL    HW275495   4.720  10.213   5.939
24555SOL     OW75496  12.198   6.087  10.997
24555SOL    HW175497  12.263   6.093  10.926
24555SOL    HW275498  12.152   6.005  10.980
24556SOL     OW75499   4.222  12.050  11.576
24556SOL    HW175500   4.260  12.042  11.664
24556SOL    HW275501   4.295  12.030  11.517
24557SOL     OW75502   2.621   0.800   6.384
24557SOL    HW175503   2.574   0.786   6.467
24557SOL    HW275504   2.552   0.811   6.319
24558SOL     OW75505  10.351   0.310  12.911
24558SOL    HW175506  10.392   0.252  12.847
24558SOL    HW275507  10.321   0.251  12.981
24559SOL     OW75508  14.099   7.553   4.862
24559SOL    HW175509  14.053   7.630   4.827
24559SOL    HW275510  14.163   7.589   4.923
24560SOL     OW75511  14.078   8.117   6.129
24560SOL    HW175512  13.993   8.095   6.091
24560SOL    HW275513  14.139   8.109   6.056
24561SOL     OW75514  11.093  14.385  12.727
24561SOL    HW175515  11.053  14.417  12.808
24561SOL    HW275516  11.184  14.367  12.750
24562SOL     OW75517   3.387   5.013   4.759
24562SOL    HW175518   3.434   5.031   4.678
24562SOL    HW275519   3.320   4.950   4.735
24563SOL     OW75520  13.569   7.629   5.916
24563SOL    HW175521  13.581   7.539   5.886
24563SOL    HW275522  13.564   7.681   5.835
24564SOL     OW75523   7.258   3.577   1.791
24564SOL    HW175524   7.256   3.637   1.716
24564SOL    HW275525   7.347   3.585   1.825
24565SOL     OW75526   6.123   6.767  11.743
24565SOL    HW175527   6.051   6.734  11.798
24565SOL    HW275528   6.095   6.749  11.654
24566SOL     OW75529  13.518   2.109  14.411
24566SOL    HW175530  13.476   2.034  14.368
24566SOL    HW275531  13.496   2.184  14.356
24567SOL     OW75532   0.992   6.041  13.701
24567SOL    HW175533   0.948   5.956  13.700
24567SOL    HW275534   1.078   6.023  13.739
24568SOL     OW75535  13.930   7.920   2.826
24568SOL    HW175536  13.860   7.985   2.817
24568SOL    HW275537  13.953   7.896   2.737
24569SOL     OW75538   3.926  14.200  11.591
24569SOL    HW175539   3.908  14.293  11.604
24569SOL    HW275540   3.988  14.178  11.661
24570SOL     OW75541  12.270  14.327   0.892
24570SOL    HW175542  12.291  14.420   0.898
24570SOL    HW275543  12.288  14.293   0.980
24571SOL     OW75544  11.058  12.900   2.863
24571SOL    HW175545  10.975  12.886   2.817
24571SOL    HW275546  11.106  12.962   2.808
24572SOL     OW75547   7.544   9.367   9.382
24572SOL    HW175548   7.477   9.405   9.438
24572SOL    HW275549   7.620   9.357   9.440
24573SOL     OW75550  14.391   7.227   8.323
24573SOL    HW175551  14.330   7.221   8.249
24573SOL    HW275552  14.336   7.213   8.400
24574SOL     OW75553   9.597   8.554   6.105
24574SOL    HW175554   9.562   8.592   6.025
24574SOL    HW275555   9.640   8.473   6.077
24575SOL     OW75556   1.435   8.602   6.840
24575SOL    HW175557   1.368   8.637   6.781
24575SOL    HW275558   1.454   8.673   6.901
24576SOL     OW75559   4.958  14.386   4.290
24576SOL    HW175560   4.972  14.413   4.381
24576SOL    HW275561   4.967  14.467   4.240
24577SOL     OW75562   0.041   3.884   2.964
24577SOL    HW175563  14.826   3.857   2.950
24577SOL    HW275564   0.076   3.817   3.023
24578SOL     OW75565   7.790   2.376  10.753
24578SOL    HW175566   7.756   2.440  10.815
24578SOL    HW275567   7.835   2.311  10.807
24579SOL     OW75568   7.617   5.259   2.522
24579SOL    HW175569   7.701   5.269   2.477
24579SOL    HW275570   7.558   5.319   2.476
24580SOL     OW75571   8.263   5.748  14.346
24580SOL    HW175572   8.200   5.689  14.387
24580SOL    HW275573   8.264   5.825  14.402
24581SOL     OW75574  10.508  12.573  10.377
24581SOL    HW175575  10.553  12.533  10.451
24581SOL    HW275576  10.526  12.667  10.386
24582SOL     OW75577   2.366  11.970  11.528
24582SOL    HW175578   2.324  12.028  11.465
24582SOL    HW275579   2.386  12.027  11.603
24583SOL     OW75580  13.386   1.898   9.547
24583SOL    HW175581  13.438   1.948   9.610
24583SOL    HW275582  13.299   1.893   9.587
24584SOL     OW75583   1.883   8.514   0.977
24584SOL    HW175584   1.788   8.513   0.969
24584SOL    HW275585   1.908   8.422   0.982
24585SOL     OW75586   2.263  11.691  13.089
24585SOL    HW175587   2.169  11.708  13.097
24585SOL    HW275588   2.304  11.769  13.126
24586SOL     OW75589   5.892  10.394  11.178
24586SOL    HW175590   5.846  10.340  11.114
24586SOL    HW275591   5.943  10.331  11.230
24587SOL     OW75592   6.299   3.863   9.543
24587SOL    HW175593   6.235   3.817   9.488
24587SOL    HW275594   6.303   3.812   9.624
24588SOL     OW75595   9.827  10.625   5.889
24588SOL    HW175596   9.782  10.705   5.862
24588SOL    HW275597   9.776  10.554   5.848
24589SOL     OW75598   2.518   0.840   5.571
24589SOL    HW175599   2.543   0.912   5.513
24589SOL    HW275600   2.481   0.773   5.514
24590SOL     OW75601   1.272  10.156   0.031
24590SOL    HW175602   1.190  10.146   0.080
24590SOL    HW275603   1.322  10.077   0.052
24591SOL     OW75604  11.014   8.128  10.543
24591SOL    HW175605  10.935   8.180  10.529
24591SOL    HW275606  10.989   8.064  10.610
24592SOL     OW75607   3.847   5.944   8.426
24592SOL    HW175608   3.829   6.038   8.433
24592SOL    HW275609   3.785   5.913   8.360
24593SOL     OW75610   2.474   8.510   0.114
24593SOL    HW175611   2.458   8.468   0.199
24593SOL    HW275612   2.501   8.439   0.057
24594SOL     OW75613   7.602   6.258   5.426
24594SOL    HW175614   7.563   6.221   5.347
24594SOL    HW275615   7.542   6.232   5.497
24595SOL     OW75616   7.287  12.856  13.250
24595SOL    HW175617   7.200  12.817  13.245
24595SOL    HW275618   7.279  12.939  13.204
24596SOL     OW75619   6.565   2.802   7.232
24596SOL    HW175620   6.659   2.810   7.216
24596SOL    HW275621   6.524   2.850   7.159
24597SOL     OW75622  10.895   6.209   0.452
24597SOL    HW175623  10.843   6.154   0.511
24597SOL    HW275624  10.849   6.204   0.368
24598SOL     OW75625   4.048   2.286   9.772
24598SOL    HW175626   4.125   2.229   9.766
24598SOL    HW275627   4.002   2.255   9.850
24599SOL     OW75628   8.567   8.808   4.878
24599SOL    HW175629   8.506   8.847   4.941
24599SOL    HW275630   8.585   8.880   4.817
24600SOL     OW75631   5.576  11.217  10.080
24600SOL    HW175632   5.576  11.275  10.156
24600SOL    HW275633   5.640  11.255  10.021
24601SOL     OW75634  14.235  12.715   8.835
24601SOL    HW175635  14.153  12.667   8.825
24601SOL    HW275636  14.209  12.807   8.833
24602SOL     OW75637  12.929   4.709  10.953
24602SOL    HW175638  12.887   4.673  11.031
24602SOL    HW275639  13.017   4.673  10.953
24603SOL     OW75640   6.187   1.046  13.605
24603SOL    HW175641   6.210   0.968  13.655
24603SOL    HW275642   6.147   1.011  13.525
24604SOL     OW75643   4.109  10.376   3.865
24604SOL    HW175644   4.166  10.345   3.795
24604SOL    HW275645   4.110  10.472   3.856
24605SOL     OW75646  12.245   7.242  13.944
24605SOL    HW175647  12.260   7.188  14.022
24605SOL    HW275648  12.165   7.291  13.963
24606SOL     OW75649   5.170  11.015  13.463
24606SOL    HW175650   5.259  10.998  13.495
24606SOL    HW275651   5.116  10.951  13.509
24607SOL     OW75652   0.466   5.172   4.594
24607SOL    HW175653   0.427   5.155   4.509
24607SOL    HW275654   0.559   5.151   4.582
24608SOL     OW75655   0.507   2.115   0.539
24608SOL    HW175656   0.443   2.132   0.469
24608SOL    HW275657   0.483   2.176   0.608
24609SOL     OW75658   6.214  14.416   0.551
24609SOL    HW175659   6.258  14.360   0.487
24609SOL    HW275660   6.203  14.500   0.507
24610SOL     OW75661  11.830   0.959   9.363
24610SOL    HW175662  11.924   0.961   9.380
24610SOL    HW275663  11.793   0.910   9.437
24611SOL     OW75664  12.118   5.781   2.184
24611SOL    HW175665  12.199   5.733   2.164
24611SOL    HW275666  12.145   5.873   2.185
24612SOL     OW75667   9.107  14.315   7.347
24612SOL    HW175668   9.177  14.345   7.288
24612SOL    HW275669   9.081  14.230   7.311
24613SOL     OW75670   3.728   4.115   1.327
24613SOL    HW175671   3.666   4.044   1.344
24613SOL    HW275672   3.672   4.191   1.308
24614SOL     OW75673  11.114   2.589   4.495
24614SOL    HW175674  11.145   2.667   4.451
24614SOL    HW275675  11.085   2.531   4.424
24615SOL     OW75676   2.819   2.972   0.452
24615SOL    HW175677   2.770   3.042   0.409
24615SOL    HW275678   2.854   2.919   0.380
24616SOL     OW75679   5.044   1.636   0.368
24616SOL    HW175680   5.114   1.593   0.318
24616SOL    HW275681   4.974   1.571   0.371
24617SOL     OW75682   5.270  13.782   1.693
24617SOL    HW175683   5.185  13.807   1.729
24617SOL    HW275684   5.250  13.743   1.608
24618SOL     OW75685  12.053   8.063   0.436
24618SOL    HW175686  12.087   8.089   0.521
24618SOL    HW275687  11.969   8.108   0.429
24619SOL     OW75688   4.441   0.784  12.466
24619SOL    HW175689   4.499   0.723  12.510
24619SOL    HW275690   4.389   0.730  12.406
24620SOL     OW75691   3.409   1.859   9.077
24620SOL    HW175692   3.489   1.833   9.123
24620SOL    HW275693   3.431   1.849   8.984
24621SOL     OW75694   7.622   4.348  10.093
24621SOL    HW175695   7.566   4.314  10.024
24621SOL    HW275696   7.680   4.411  10.050
24622SOL     OW75697   8.963   1.517   0.622
24622SOL    HW175698   8.894   1.569   0.581
24622SOL    HW275699   9.001   1.574   0.688
24623SOL     OW75700   5.827  12.520   7.342
24623SOL    HW175701   5.791  12.590   7.397
24623SOL    HW275702   5.759  12.502   7.278
24624SOL     OW75703   6.141  11.191   3.700
24624SOL    HW175704   6.198  11.127   3.745
24624SOL    HW275705   6.131  11.156   3.612
24625SOL     OW75706   4.672   7.030   1.455
24625SOL    HW175707   4.756   7.068   1.430
24625SOL    HW275708   4.653   7.065   1.542
24626SOL     OW75709   8.317   6.428   6.626
24626SOL    HW175710   8.250   6.442   6.692
24626SOL    HW275711   8.400   6.438   6.673
24627SOL     OW75712   0.519   6.641  10.229
24627SOL    HW175713   0.598   6.689  10.256
24627SOL    HW275714   0.451   6.708  10.226
24628SOL     OW75715   8.943  14.113  11.182
24628SOL    HW175716   9.017  14.060  11.211
24628SOL    HW275717   8.944  14.105  11.087
24629SOL     OW75718   0.432   1.555   9.789
24629SOL    HW175719   0.380   1.542   9.710
24629SOL    HW275720   0.519   1.525   9.765
24630SOL     OW75721   6.468   5.416   1.932
24630SOL    HW175722   6.431   5.494   1.973
24630SOL    HW275723   6.549   5.446   1.890
24631SOL     OW75724  11.583  12.996   5.429
24631SOL    HW175725  11.528  13.016   5.354
24631SOL    HW275726  11.587  12.901   5.432
24632SOL     OW75727   2.323  13.918  13.912
24632SOL    HW175728   2.409  13.937  13.949
24632SOL    HW275729   2.274  13.999  13.922
24633SOL     OW75730  11.742   8.903   8.622
24633SOL    HW175731  11.760   8.818   8.581
24633SOL    HW275732  11.676   8.884   8.689
24634SOL     OW75733   0.731  10.039   9.714
24634SOL    HW175734   0.824  10.060   9.711
24634SOL    HW275735   0.722   9.959   9.663
24635SOL     OW75736   6.251  14.498   6.836
24635SOL    HW175737   6.232  14.590   6.819
24635SOL    HW275738   6.313  14.473   6.767
24636SOL     OW75739  14.622  12.493   4.966
24636SOL    HW175740  14.563  12.517   4.894
24636SOL    HW275741  14.708  12.521   4.938
24637SOL     OW75742   0.930   9.378   6.824
24637SOL    HW175743   0.901   9.425   6.901
24637SOL    HW275744   1.006   9.328   6.853
24638SOL     OW75745   4.256   7.324   1.649
24638SOL    HW175746   4.188   7.291   1.590
24638SOL    HW275747   4.278   7.249   1.704
24639SOL     OW75748  10.674  11.101   4.706
24639SOL    HW175749  10.634  11.185   4.683
24639SOL    HW275750  10.766  11.111   4.681
24640SOL     OW75751   8.589   1.546   1.721
24640SOL    HW175752   8.572   1.603   1.796
24640SOL    HW275753   8.664   1.493   1.747
24641SOL     OW75754   9.476   5.443  11.260
24641SOL    HW175755   9.430   5.383  11.319
24641SOL    HW275756   9.537   5.386  11.212
24642SOL     OW75757  10.061   8.710   4.208
24642SOL    HW175758  10.111   8.734   4.130
24642SOL    HW275759   9.977   8.753   4.197
24643SOL     OW75760   9.743   8.398   7.177
24643SOL    HW175761   9.787   8.329   7.227
24643SOL    HW275762   9.790   8.478   7.198
24644SOL     OW75763  11.374   4.064   3.588
24644SOL    HW175764  11.332   4.132   3.640
24644SOL    HW275765  11.366   3.985   3.641
24645SOL     OW75766   7.053   6.226   4.726
24645SOL    HW175767   7.086   6.243   4.638
24645SOL    HW275768   6.958   6.218   4.714
24646SOL     OW75769  10.542   7.535   0.206
24646SOL    HW175770  10.586   7.542   0.121
24646SOL    HW275771  10.498   7.619   0.218
24647SOL     OW75772  11.057   1.425   4.289
24647SOL    HW175773  11.138   1.446   4.242
24647SOL    HW275774  11.087   1.380   4.369
24648SOL     OW75775   0.394  13.894   4.091
24648SOL    HW175776   0.416  13.985   4.074
24648SOL    HW275777   0.471  13.858   4.134
24649SOL     OW75778  10.924   7.681  14.753
24649SOL    HW175779  10.921   7.638  14.668
24649SOL    HW275780  10.841   7.728  14.758
24650SOL     OW75781   6.885   0.273   0.802
24650SOL    HW175782   6.975   0.250   0.826
24650SOL    HW275783   6.864   0.347   0.859
24651SOL     OW75784   5.480   4.083  10.803
24651SOL    HW175785   5.538   4.037  10.743
24651SOL    HW275786   5.392   4.060  10.775
24652SOL     OW75787   3.220  10.856  11.340
24652SOL    HW175788   3.251  10.813  11.420
24652SOL    HW275789   3.144  10.907  11.369
24653SOL     OW75790   9.015   5.367  14.257
24653SOL    HW175791   9.093   5.421  14.274
24653SOL    HW275792   8.990   5.389  14.167
24654SOL     OW75793  12.825   3.981   7.654
24654SOL    HW175794  12.920   3.988   7.664
24654SOL    HW275795  12.803   3.898   7.696
24655SOL     OW75796   2.404   5.043   7.323
24655SOL    HW175797   2.384   4.961   7.278
24655SOL    HW275798   2.372   5.111   7.263
24656SOL     OW75799   3.194   1.065   7.767
24656SOL    HW175800   3.244   1.054   7.848
24656SOL    HW275801   3.106   1.034   7.790
24657SOL     OW75802  11.021   6.550  13.068
24657SOL    HW175803  10.936   6.507  13.057
24657SOL    HW275804  11.085   6.483  13.043
24658SOL     OW75805   6.321   3.803   4.232
24658SOL    HW175806   6.359   3.834   4.314
24658SOL    HW275807   6.255   3.868   4.209
24659SOL     OW75808   5.405  13.603   4.750
24659SOL    HW175809   5.453  13.545   4.809
24659SOL    HW275810   5.473  13.650   4.702
24660SOL     OW75811   2.697  11.416   2.124
24660SOL    HW175812   2.769  11.423   2.187
24660SOL    HW275813   2.707  11.328   2.087
24661SOL     OW75814   2.747   1.565  14.788
24661SOL    HW175815   2.750   1.553   0.007
24661SOL    HW275816   2.834   1.541  14.758
24662SOL     OW75817  10.047   0.873   0.679
24662SOL    HW175818  10.070   0.887   0.587
24662SOL    HW275819   9.983   0.940   0.699
24663SOL     OW75820   6.656  10.916   1.133
24663SOL    HW175821   6.720  10.865   1.184
24663SOL    HW275822   6.692  11.005   1.133
24664SOL     OW75823   4.827   0.109   4.172
24664SOL    HW175824   4.746   0.085   4.127
24664SOL    HW275825   4.833   0.047   4.245
24665SOL     OW75826  11.316   8.768   5.378
24665SOL    HW175827  11.302   8.678   5.350
24665SOL    HW275828  11.341   8.815   5.299
24666SOL     OW75829  10.817   5.636   2.834
24666SOL    HW175830  10.887   5.586   2.875
24666SOL    HW275831  10.744   5.630   2.896
24667SOL     OW75832  13.164   0.944   5.453
24667SOL    HW175833  13.136   1.036   5.460
24667SOL    HW275834  13.190   0.920   5.542
24668SOL     OW75835  12.349   5.780   6.594
24668SOL    HW175836  12.410   5.726   6.545
24668SOL    HW275837  12.308   5.836   6.528
24669SOL     OW75838   2.702   7.474  12.867
24669SOL    HW175839   2.771   7.427  12.819
24669SOL    HW275840   2.697   7.559  12.824
24670SOL     OW75841   1.465   5.433   2.477
24670SOL    HW175842   1.505   5.435   2.564
24670SOL    HW275843   1.468   5.341   2.451
24671SOL     OW75844   7.673  14.078   3.847
24671SOL    HW175845   7.731  14.147   3.878
24671SOL    HW275846   7.715  13.997   3.875
24672SOL     OW75847   8.081  14.368   7.745
24672SOL    HW175848   8.074  14.463   7.738
24672SOL    HW275849   8.163  14.353   7.792
24673SOL     OW75850  14.123   2.712   3.041
24673SOL    HW175851  14.144   2.622   3.016
24673SOL    HW275852  14.033   2.708   3.074
24674SOL     OW75853   3.438  10.143   0.745
24674SOL    HW175854   3.507  10.078   0.730
24674SOL    HW275855   3.466  10.191   0.823
24675SOL     OW75856   4.532  14.216   1.803
24675SOL    HW175857   4.552  14.123   1.808
24675SOL    HW275858   4.601  14.258   1.854
24676SOL     OW75859  10.832   2.993   7.239
24676SOL    HW175860  10.923   2.962   7.233
24676SOL    HW275861  10.785   2.943   7.172
24677SOL     OW75862   0.918  14.694   7.080
24677SOL    HW175863   0.854  14.748   7.125
24677SOL    HW275864   0.866  14.632   7.029
24678SOL     OW75865  14.104   0.980   1.673
24678SOL    HW175866  14.152   0.912   1.720
24678SOL    HW275867  14.012   0.964   1.695
24679SOL     OW75868   8.440   8.741  14.848
24679SOL    HW175869   8.421   8.739  14.755
24679SOL    HW275870   8.449   8.649  14.873
24680SOL     OW75871   5.409  11.232   2.835
24680SOL    HW175872   5.448  11.320   2.840
24680SOL    HW275873   5.337  11.241   2.772
24681SOL     OW75874   9.530  10.608  11.660
24681SOL    HW175875   9.458  10.562  11.704
24681SOL    HW275876   9.549  10.556  11.582
24682SOL     OW75877   5.513   8.990   6.920
24682SOL    HW175878   5.545   8.929   6.853
24682SOL    HW275879   5.474   8.934   6.986
24683SOL     OW75880   7.613   3.055   2.371
24683SOL    HW175881   7.668   2.990   2.327
24683SOL    HW275882   7.548   3.079   2.306
24684SOL     OW75883  12.187   7.140   3.855
24684SOL    HW175884  12.140   7.077   3.801
24684SOL    HW275885  12.279   7.114   3.849
24685SOL     OW75886   1.085  10.107   5.170
24685SOL    HW175887   1.170  10.092   5.210
24685SOL    HW275888   1.055  10.020   5.143
24686SOL     OW75889   2.019  10.915   6.813
24686SOL    HW175890   2.022  10.858   6.736
24686SOL    HW275891   1.972  10.993   6.782
24687SOL     OW75892   2.791   8.093   5.488
24687SOL    HW175893   2.720   8.103   5.425
24687SOL    HW275894   2.821   8.182   5.506
24688SOL     OW75895   2.508   5.218   9.445
24688SOL    HW175896   2.458   5.290   9.407
24688SOL    HW275897   2.554   5.257   9.519
24689SOL     OW75898   1.205   0.962   8.463
24689SOL    HW175899   1.296   0.964   8.494
24689SOL    HW275900   1.163   1.036   8.507
24690SOL     OW75901   6.312  14.049  14.838
24690SOL    HW175902   6.389  13.992  14.841
24690SOL    HW275903   6.344  14.129  14.796
24691SOL     OW75904   3.192   7.650  12.999
24691SOL    HW175905   3.222   7.560  12.993
24691SOL    HW275906   3.234   7.694  12.924
24692SOL     OW75907   8.411   8.500   5.883
24692SOL    HW175908   8.471   8.490   5.809
24692SOL    HW275909   8.326   8.519   5.842
24693SOL     OW75910   0.552   4.937   2.065
24693SOL    HW175911   0.578   4.873   1.999
24693SOL    HW275912   0.469   4.973   2.032
24694SOL     OW75913  14.422   6.050  11.092
24694SOL    HW175914  14.475   5.974  11.069
24694SOL    HW275915  14.440   6.114  11.023
24695SOL     OW75916  11.631  14.198   1.351
24695SOL    HW175917  11.695  14.127   1.357
24695SOL    HW275918  11.683  14.276   1.333
24696SOL     OW75919  10.924   6.128   7.051
24696SOL    HW175920  10.971   6.149   6.970
24696SOL    HW275921  10.979   6.165   7.120
24697SOL     OW75922   7.992   0.865  13.590
24697SOL    HW175923   7.917   0.834  13.539
24697SOL    HW275924   8.067   0.851  13.532
24698SOL     OW75925   6.251  14.541   4.447
24698SOL    HW175926   6.280  14.451   4.438
24698SOL    HW275927   6.280  14.568   4.533
24699SOL     OW75928   1.252  14.279  11.839
24699SOL    HW175929   1.291  14.261  11.925
24699SOL    HW275930   1.294  14.215  11.781
24700SOL     OW75931  12.439   3.861   4.447
24700SOL    HW175932  12.456   3.873   4.354
24700SOL    HW275933  12.420   3.948   4.480
24701SOL     OW75934   1.167  11.107   2.953
24701SOL    HW175935   1.206  11.110   3.041
24701SOL    HW275936   1.183  11.193   2.916
24702SOL     OW75937   7.627   9.244  12.905
24702SOL    HW175938   7.623   9.267  12.812
24702SOL    HW275939   7.710   9.197  12.915
24703SOL     OW75940  10.343  14.152  14.209
24703SOL    HW175941  10.341  14.112  14.295
24703SOL    HW275942  10.307  14.085  14.150
24704SOL     OW75943   9.478   6.550  12.888
24704SOL    HW175944   9.468   6.509  12.974
24704SOL    HW275945   9.434   6.634  12.896
24705SOL     OW75946   9.398   4.071   4.846
24705SOL    HW175947   9.485   4.111   4.843
24705SOL    HW275948   9.411   3.983   4.810
24706SOL     OW75949   9.234   2.330  13.257
24706SOL    HW175950   9.187   2.413  13.255
24706SOL    HW275951   9.324   2.353  13.280
24707SOL     OW75952  14.717  11.150  10.733
24707SOL    HW175953  14.666  11.076  10.699
24707SOL    HW275954  14.805  11.115  10.744
24708SOL     OW75955   3.303  12.844  12.424
24708SOL    HW175956   3.347  12.786  12.486
24708SOL    HW275957   3.214  12.809  12.418
24709SOL     OW75958   5.849   4.903   0.770
24709SOL    HW175959   5.918   4.874   0.830
24709SOL    HW275960   5.820   4.822   0.728
24710SOL     OW75961   3.704  14.129   9.972
24710SOL    HW175962   3.674  14.194   9.909
24710SOL    HW275963   3.625  14.079   9.994
24711SOL     OW75964  13.836  10.825   5.898
24711SOL    HW175965  13.910  10.870   5.859
24711SOL    HW275966  13.866  10.735   5.911
24712SOL     OW75967   7.068   9.073   1.172
24712SOL    HW175968   6.975   9.055   1.161
24712SOL    HW275969   7.106   9.056   1.086
24713SOL     OW75970  12.038  12.507   9.008
24713SOL    HW175971  12.021  12.602   9.012
24713SOL    HW275972  12.092  12.495   8.931
24714SOL     OW75973  12.914   8.281   7.416
24714SOL    HW175974  12.825   8.248   7.433
24714SOL    HW275975  12.905   8.332   7.335
24715SOL     OW75976   1.748   1.560   9.279
24715SOL    HW175977   1.817   1.568   9.346
24715SOL    HW275978   1.759   1.471   9.245
24716SOL     OW75979  12.258  12.708   7.676
24716SOL    HW175980  12.273  12.782   7.733
24716SOL    HW275981  12.162  12.699   7.672
24717SOL     OW75982   4.223   8.277   4.761
24717SOL    HW175983   4.259   8.218   4.694
24717SOL    HW275984   4.254   8.364   4.735
24718SOL     OW75985   4.563   8.736   6.713
24718SOL    HW175986   4.492   8.735   6.778
24718SOL    HW275987   4.611   8.655   6.730
24719SOL     OW75988   3.023   4.840   7.179
24719SOL    HW175989   3.059   4.835   7.268
24719SOL    HW275990   3.079   4.783   7.127
24720SOL     OW75991  13.967   0.506   3.941
24720SOL    HW175992  13.902   0.526   3.874
24720SOL    HW275993  14.051   0.509   3.895
24721SOL     OW75994  11.579   6.083   5.692
24721SOL    HW175995  11.576   5.994   5.657
24721SOL    HW275996  11.672   6.102   5.704
24722SOL     OW75997  11.296  10.535   8.876
24722SOL    HW175998  11.242  10.511   8.952
24722SOL    HW275999  11.240  10.594   8.825
24723SOL     OW76000   1.593   3.693  11.786
24723SOL    HW176001   1.681   3.729  11.792
24723SOL    HW276002   1.551   3.719  11.868
24724SOL     OW76003   5.764   7.685   7.611
24724SOL    HW176004   5.745   7.593   7.593
24724SOL    HW276005   5.859   7.689   7.617
24725SOL     OW76006   6.326   5.120   5.282
24725SOL    HW176007   6.245   5.152   5.322
24725SOL    HW276008   6.370   5.200   5.251
24726SOL     OW76009   0.487   9.057  14.534
24726SOL    HW176010   0.499   9.138  14.484
24726SOL    HW276011   0.576   9.022  14.543
24727SOL     OW76012   7.408   4.574   2.842
24727SOL    HW176013   7.383   4.568   2.934
24727SOL    HW276014   7.437   4.665   2.831
24728SOL     OW76015   7.679  12.888   9.364
24728SOL    HW176016   7.647  12.978   9.368
24728SOL    HW276017   7.691  12.872   9.270
24729SOL     OW76018   9.132   9.587  13.953
24729SOL    HW176019   9.212   9.593  14.005
24729SOL    HW276020   9.162   9.563  13.865
24730SOL     OW76021  12.368  11.726   6.143
24730SOL    HW176022  12.408  11.750   6.060
24730SOL    HW276023  12.281  11.767   6.141
24731SOL     OW76024   1.666   9.764  14.252
24731SOL    HW176025   1.709   9.689  14.293
24731SOL    HW276026   1.731   9.835  14.256
24732SOL     OW76027   1.971   9.020   6.085
24732SOL    HW176028   1.984   9.041   5.992
24732SOL    HW276029   2.055   8.984   6.113
24733SOL     OW76030  10.940   5.524   2.002
24733SOL    HW176031  10.993   5.566   1.934
24733SOL    HW276032  10.852   5.520   1.965
24734SOL     OW76033   3.137   3.340   2.259
24734SOL    HW176034   3.105   3.250   2.267
24734SOL    HW276035   3.133   3.359   2.166
24735SOL     OW76036   0.478  12.258  14.819
24735SOL    HW176037   0.441  12.346  14.818
24735SOL    HW276038   0.446  12.220   0.026
24736SOL     OW76039   8.342   8.699  13.063
24736SOL    HW176040   8.342   8.756  12.986
24736SOL    HW276041   8.336   8.610  13.027
24737SOL     OW76042  14.231   3.165   5.941
24737SOL    HW176043  14.255   3.127   6.025
24737SOL    HW276044  14.313   3.199   5.906
24738SOL     OW76045   3.603   9.705   3.931
24738SOL    HW176046   3.666   9.766   3.969
24738SOL    HW276047   3.521   9.723   3.978
24739SOL     OW76048   2.881   9.328  11.050
24739SOL    HW176049   2.852   9.406  11.098
24739SOL    HW276050   2.962   9.301  11.095
24740SOL     OW76051   9.679   6.270   4.813
24740SOL    HW176052   9.689   6.297   4.722
24740SOL    HW276053   9.702   6.177   4.813
24741SOL     OW76054  10.079   2.229   0.328
24741SOL    HW176055  10.002   2.223   0.272
24741SOL    HW276056  10.089   2.142   0.366
24742SOL     OW76057  13.545  13.036   2.454
24742SOL    HW176058  13.625  13.004   2.413
24742SOL    HW276059  13.479  13.030   2.384
24743SOL     OW76060   9.414   8.991   1.832
24743SOL    HW176061   9.445   9.046   1.760
24743SOL    HW276062   9.323   9.017   1.845
24744SOL     OW76063  14.788   7.438   0.573
24744SOL    HW176064  14.853   7.423   0.642
24744SOL    HW276065  14.712   7.473   0.619
24745SOL     OW76066   3.754   6.451   4.994
24745SOL    HW176067   3.788   6.472   4.907
24745SOL    HW276068   3.709   6.531   5.022
24746SOL     OW76069   0.256   3.438   3.958
24746SOL    HW176070   0.340   3.395   3.973
24746SOL    HW276071   0.272   3.530   3.981
24747SOL     OW76072   4.740   2.824   9.748
24747SOL    HW176073   4.741   2.816   9.653
24747SOL    HW276074   4.712   2.737   9.779
24748SOL     OW76075   2.949   9.770   6.572
24748SOL    HW176076   3.034   9.784   6.614
24748SOL    HW276077   2.967   9.714   6.497
24749SOL     OW76078   5.741   1.967  14.591
24749SOL    HW176079   5.815   2.006  14.544
24749SOL    HW276080   5.774   1.885  14.626
24750SOL     OW76081   8.923   8.788   6.781
24750SOL    HW176082   8.843   8.824   6.744
24750SOL    HW276083   8.894   8.709   6.827
24751SOL     OW76084   2.249   4.829  11.212
24751SOL    HW176085   2.172   4.829  11.156
24751SOL    HW276086   2.322   4.808  11.153
24752SOL     OW76087   7.798  11.509   4.572
24752SOL    HW176088   7.713  11.514   4.526
24752SOL    HW276089   7.862  11.533   4.505
24753SOL     OW76090   1.563   0.257   1.327
24753SOL    HW176091   1.658   0.252   1.328
24753SOL    HW276092   1.536   0.203   1.253
24754SOL     OW76093  12.428  11.789   0.920
24754SOL    HW176094  12.508  11.806   0.870
24754SOL    HW276095  12.359  11.781   0.855
24755SOL     OW76096   1.520   9.800  14.507
24755SOL    HW176097   1.565   9.778  14.425
24755SOL    HW276098   1.575   9.867  14.548
24756SOL     OW76099   4.854  13.774  11.309
24756SOL    HW176100   4.761  13.763  11.289
24756SOL    HW276101   4.859  13.854  11.361
24757SOL     OW76102  13.103   3.656   8.179
24757SOL    HW176103  13.117   3.720   8.249
24757SOL    HW276104  13.190   3.622   8.161
24758SOL     OW76105   2.509  11.082   0.032
24758SOL    HW176106   2.431  11.035   0.004
24758SOL    HW276107   2.580  11.018   0.024
24759SOL     OW76108   1.085   9.257   4.176
24759SOL    HW176109   1.079   9.352   4.192
24759SOL    HW276110   1.155   9.249   4.112
24760SOL     OW76111   3.139  14.254   5.388
24760SOL    HW176112   3.226  14.222   5.361
24760SOL    HW276113   3.150  14.349   5.396
24761SOL     OW76114   3.221   6.121   2.421
24761SOL    HW176115   3.167   6.173   2.361
24761SOL    HW276116   3.195   6.030   2.404
24762SOL     OW76117   5.025   6.863  12.036
24762SOL    HW176118   4.979   6.947  12.046
24762SOL    HW276119   5.113   6.880  12.068
24763SOL     OW76120   0.324  12.062   2.501
24763SOL    HW176121   0.239  12.105   2.489
24763SOL    HW276122   0.330  12.047   2.595
24764SOL     OW76123   0.070  12.998   9.414
24764SOL    HW176124   0.064  13.056   9.337
24764SOL    HW276125   0.093  13.056   9.486
24765SOL     OW76126   5.631   7.516  13.529
24765SOL    HW176127   5.646   7.438  13.475
24765SOL    HW276128   5.577   7.485  13.601
24766SOL     OW76129   4.924  11.463  10.957
24766SOL    HW176130   5.015  11.475  10.930
24766SOL    HW276131   4.873  11.479  10.878
24767SOL     OW76132  10.403   6.299   9.583
24767SOL    HW176133  10.446   6.289   9.498
24767SOL    HW276134  10.464   6.352   9.635
24768SOL     OW76135   3.972   3.009   2.810
24768SOL    HW176136   3.994   3.031   2.719
24768SOL    HW276137   3.967   2.914   2.811
24769SOL     OW76138  11.714   9.464   0.772
24769SOL    HW176139  11.797   9.510   0.785
24769SOL    HW276140  11.662   9.524   0.719
24770SOL     OW76141   9.466  13.300   2.168
24770SOL    HW176142   9.454  13.388   2.204
24770SOL    HW276143   9.513  13.252   2.236
24771SOL     OW76144   9.967   1.562   7.014
24771SOL    HW176145   9.992   1.604   7.096
24771SOL    HW276146   9.949   1.471   7.038
24772SOL     OW76147   4.310   7.579   9.826
24772SOL    HW176148   4.373   7.508   9.843
24772SOL    HW276149   4.299   7.622   9.911
24773SOL     OW76150   4.108  10.885   4.635
24773SOL    HW176151   4.128  10.870   4.727
24773SOL    HW276152   4.021  10.924   4.635
24774SOL     OW76153   7.907   7.504  10.799
24774SOL    HW176154   7.993   7.516  10.757
24774SOL    HW276155   7.844   7.514  10.728
24775SOL     OW76156   1.604  13.540   1.275
24775SOL    HW176157   1.535  13.473   1.278
24775SOL    HW276158   1.670  13.509   1.337
24776SOL     OW76159   9.343   9.791  14.309
24776SOL    HW176160   9.291   9.865  14.278
24776SOL    HW276161   9.327   9.788  14.403
24777SOL     OW76162   6.783   6.497  11.023
24777SOL    HW176163   6.725   6.558  10.979
24777SOL    HW276164   6.848   6.552  11.068
24778SOL     OW76165   4.391   6.523   3.230
24778SOL    HW176166   4.394   6.532   3.325
24778SOL    HW276167   4.472   6.564   3.199
24779SOL     OW76168  12.793   1.455   2.823
24779SOL    HW176169  12.760   1.422   2.906
24779SOL    HW276170  12.716   1.456   2.765
24780SOL     OW76171   4.451   3.399  13.900
24780SOL    HW176172   4.370   3.402  13.951
24780SOL    HW276173   4.432   3.340  13.827
24781SOL     OW76174   3.983   9.417   4.056
24781SOL    HW176175   3.975   9.505   4.018
24781SOL    HW276176   3.979   9.432   4.150
24782SOL     OW76177  11.857   1.267   9.051
24782SOL    HW176178  11.804   1.314   8.986
24782SOL    HW276179  11.795   1.212   9.098
24783SOL     OW76180   1.681   0.125  13.197
24783SOL    HW176181   1.681   0.184  13.122
24783SOL    HW276182   1.705   0.180  13.272
24784SOL     OW76183   4.132   5.426   4.917
24784SOL    HW176184   4.053   5.423   4.972
24784SOL    HW276185   4.131   5.514   4.880
24785SOL     OW76186   8.348   8.456   9.788
24785SOL    HW176187   8.302   8.515   9.728
24785SOL    HW276188   8.441   8.479   9.778
24786SOL     OW76189  14.496   9.796   1.241
24786SOL    HW176190  14.547   9.827   1.166
24786SOL    HW276191  14.561   9.790   1.312
24787SOL     OW76192   4.456   1.074  11.736
24787SOL    HW176193   4.373   1.101  11.698
24787SOL    HW276194   4.439   0.988  11.774
24788SOL     OW76195   4.736  12.157   7.805
24788SOL    HW176196   4.789  12.159   7.725
24788SOL    HW276197   4.648  12.136   7.775
24789SOL     OW76198   6.445   5.624  10.849
24789SOL    HW176199   6.448   5.674  10.768
24789SOL    HW276200   6.460   5.688  10.918
24790SOL     OW76201  12.168   0.274   0.082
24790SOL    HW176202  12.141   0.182   0.082
24790SOL    HW276203  12.175   0.296   0.175
24791SOL     OW76204  13.485   8.220   9.467
24791SOL    HW176205  13.448   8.203   9.381
24791SOL    HW276206  13.412   8.253   9.519
24792SOL     OW76207  12.250   1.237   4.623
24792SOL    HW176208  12.175   1.282   4.660
24792SOL    HW276209  12.325   1.291   4.648
24793SOL     OW76210   9.253   4.581   3.060
24793SOL    HW176211   9.283   4.663   3.099
24793SOL    HW276212   9.189   4.608   2.994
24794SOL     OW76213   0.475  12.400   8.071
24794SOL    HW176214   0.408  12.344   8.033
24794SOL    HW276215   0.556  12.350   8.062
24795SOL     OW76216  11.740   4.771  12.322
24795SOL    HW176217  11.707   4.684  12.344
24795SOL    HW276218  11.836   4.762  12.325
24796SOL     OW76219   2.796   8.975   3.184
24796SOL    HW176220   2.781   8.920   3.107
24796SOL    HW276221   2.838   8.917   3.247
24797SOL     OW76222   1.108   1.739   3.946
24797SOL    HW176223   1.122   1.658   3.994
24797SOL    HW276224   1.022   1.770   3.975
24798SOL     OW76225   7.392   3.511  12.792
24798SOL    HW176226   7.399   3.429  12.841
24798SOL    HW276227   7.352   3.485  12.708
24799SOL     OW76228  10.134   1.665   6.526
24799SOL    HW176229  10.228   1.669   6.507
24799SOL    HW276230  10.129   1.669   6.622
24800SOL     OW76231   9.367  12.391   6.587
24800SOL    HW176232   9.291  12.359   6.636
24800SOL    HW276233   9.403  12.313   6.545
24801SOL     OW76234   8.944   6.793   3.731
24801SOL    HW176235   8.942   6.744   3.649
24801SOL    HW276236   8.923   6.883   3.707
24802SOL     OW76237  11.438  14.060  10.879
24802SOL    HW176238  11.380  14.079  10.805
24802SOL    HW276239  11.378  14.035  10.950
24803SOL     OW76240  13.219   3.256   3.088
24803SOL    HW176241  13.164   3.305   3.149
24803SOL    HW276242  13.285   3.320   3.059
24804SOL     OW76243   7.357   5.127  14.241
24804SOL    HW176244   7.416   5.102  14.170
24804SOL    HW276245   7.355   5.223  14.238
24805SOL     OW76246   5.477  12.701   7.530
24805SOL    HW176247   5.567  12.730   7.513
24805SOL    HW276248   5.423  12.764   7.482
24806SOL     OW76249   2.629   5.730  11.989
24806SOL    HW176250   2.570   5.679  11.932
24806SOL    HW276251   2.596   5.713  12.077
24807SOL     OW76252   2.808   8.340  12.743
24807SOL    HW176253   2.807   8.326  12.648
24807SOL    HW276254   2.866   8.415  12.756
24808SOL     OW76255   0.786  11.518   5.072
24808SOL    HW176256   0.819  11.608   5.069
24808SOL    HW276257   0.700  11.522   5.028
24809SOL     OW76258   5.404   3.450   3.734
24809SOL    HW176259   5.311   3.434   3.723
24809SOL    HW276260   5.438   3.461   3.645
24810SOL     OW76261  13.484   1.213   5.284
24810SOL    HW176262  13.493   1.174   5.370
24810SOL    HW276263  13.565   1.192   5.238
24811SOL     OW76264   5.840   1.636   0.648
24811SOL    HW176265   5.910   1.591   0.697
24811SOL    HW276266   5.845   1.727   0.677
24812SOL     OW76267   2.878   7.722   1.520
24812SOL    HW176268   2.875   7.744   1.613
24812SOL    HW276269   2.944   7.653   1.515
24813SOL     OW76270  14.424   1.717   6.158
24813SOL    HW176271  14.424   1.623   6.140
24813SOL    HW276272  14.442   1.724   6.252
24814SOL     OW76273  14.620   9.240  13.903
24814SOL    HW176274  14.601   9.151  13.873
24814SOL    HW276275  14.607   9.294  13.825
24815SOL     OW76276   4.498   4.700   8.558
24815SOL    HW176277   4.548   4.739   8.629
24815SOL    HW276278   4.551   4.715   8.480
24816SOL     OW76279   5.996  11.160   7.847
24816SOL    HW176280   5.950  11.225   7.793
24816SOL    HW276281   6.075  11.139   7.796
24817SOL     OW76282   2.971   7.216   7.639
24817SOL    HW176283   2.999   7.248   7.724
24817SOL    HW276284   3.024   7.265   7.576
24818SOL     OW76285  13.977  10.334   7.469
24818SOL    HW176286  13.962  10.253   7.421
24818SOL    HW276287  14.073  10.342   7.474
24819SOL     OW76288  11.742   4.283   2.803
24819SOL    HW176289  11.725   4.236   2.885
24819SOL    HW276290  11.823   4.246   2.770
24820SOL     OW76291   0.676  11.917  11.813
24820SOL    HW176292   0.667  11.827  11.843
24820SOL    HW276293   0.607  11.965  11.858
24821SOL     OW76294   8.915  10.483   8.621
24821SOL    HW176295   8.984  10.531   8.575
24821SOL    HW276296   8.935  10.495   8.713
24822SOL     OW76297   0.806  13.812   4.675
24822SOL    HW176298   0.834  13.787   4.763
24822SOL    HW276299   0.745  13.884   4.689
24823SOL     OW76300   2.403  12.927   6.306
24823SOL    HW176301   2.355  12.872   6.244
24823SOL    HW276302   2.400  12.880   6.388
24824SOL     OW76303  13.637  11.735  13.973
24824SOL    HW176304  13.728  11.755  13.994
24824SOL    HW276305  13.640  11.646  13.936
24825SOL     OW76306   4.484   0.965  13.135
24825SOL    HW176307   4.519   0.930  13.217
24825SOL    HW276308   4.531   0.917  13.067
24826SOL     OW76309  13.442   5.132   6.830
24826SOL    HW176310  13.437   5.111   6.923
24826SOL    HW276311  13.404   5.057   6.786
24827SOL     OW76312   4.184  12.213   3.075
24827SOL    HW176313   4.257  12.161   3.042
24827SOL    HW276314   4.106  12.175   3.035
24828SOL     OW76315   1.131   2.187   3.981
24828SOL    HW176316   1.192   2.148   4.043
24828SOL    HW276317   1.045   2.158   4.011
24829SOL     OW76318   8.422   4.094  14.250
24829SOL    HW176319   8.344   4.039  14.248
24829SOL    HW276320   8.457   4.089  14.161
24830SOL     OW76321   1.606  13.746   0.746
24830SOL    HW176322   1.651  13.831   0.749
24830SOL    HW276323   1.520  13.766   0.711
24831SOL     OW76324   5.018  14.430   2.062
24831SOL    HW176325   4.983  14.373   2.130
24831SOL    HW276326   4.967  14.511   2.069
24832SOL     OW76327   8.808   8.586   6.935
24832SOL    HW176328   8.874   8.588   7.005
24832SOL    HW276329   8.726   8.606   6.980
24833SOL     OW76330  11.488  10.709   0.599
24833SOL    HW176331  11.466  10.677   0.686
24833SOL    HW276332  11.581  10.731   0.605
24834SOL     OW76333   2.395   7.535  10.929
24834SOL    HW176334   2.389   7.468  10.861
24834SOL    HW276335   2.481   7.522  10.968
24835SOL     OW76336   9.080   0.747  14.427
24835SOL    HW176337   9.121   0.761  14.512
24835SOL    HW276338   9.095   0.829  14.380
24836SOL     OW76339   0.080  11.850  13.259
24836SOL    HW176340   0.059  11.939  13.289
24836SOL    HW276341   0.167  11.858  13.220
24837SOL     OW76342   8.517   5.962   0.186
24837SOL    HW176343   8.592   5.948   0.244
24837SOL    HW276344   8.441   5.948   0.242
24838SOL     OW76345   9.875   4.896  12.156
24838SOL    HW176346   9.958   4.849  12.148
24838SOL    HW276347   9.808   4.827  12.151
24839SOL     OW76348   9.883   1.007   2.080
24839SOL    HW176349   9.892   1.074   2.011
24839SOL    HW276350   9.803   1.030   2.126
24840SOL     OW76351  10.804   2.383   6.323
24840SOL    HW176352  10.783   2.322   6.252
24840SOL    HW276353  10.755   2.350   6.398
24841SOL     OW76354  12.618   8.971   4.516
24841SOL    HW176355  12.657   8.898   4.565
24841SOL    HW276356  12.683   8.992   4.449
24842SOL     OW76357   3.047   1.391   9.493
24842SOL    HW176358   3.029   1.313   9.440
24842SOL    HW276359   3.089   1.452   9.433
24843SOL     OW76360  12.814   2.004   5.895
24843SOL    HW176361  12.776   2.054   5.822
24843SOL    HW276362  12.874   1.942   5.853
24844SOL     OW76363   2.568   3.004   9.265
24844SOL    HW176364   2.549   2.931   9.324
24844SOL    HW276365   2.570   3.081   9.322
24845SOL     OW76366   9.703  11.925   1.051
24845SOL    HW176367   9.782  11.905   1.000
24845SOL    HW276368   9.692  12.020   1.041
24846SOL     OW76369  12.568  11.323   7.027
24846SOL    HW176370  12.511  11.317   6.950
24846SOL    HW276371  12.654  11.297   6.994
24847SOL     OW76372   7.553   4.062   7.688
24847SOL    HW176373   7.501   3.999   7.639
24847SOL    HW276374   7.497   4.139   7.698
24848SOL     OW76375   1.173   7.412   5.323
24848SOL    HW176376   1.256   7.402   5.277
24848SOL    HW276377   1.130   7.327   5.313
24849SOL     OW76378   6.230   5.516   2.293
24849SOL    HW176379   6.204   5.563   2.373
24849SOL    HW276380   6.154   5.460   2.274
24850SOL     OW76381  14.844   3.127   5.914
24850SOL    HW176382  14.853   3.200   5.975
24850SOL    HW276383  14.763   3.083   5.942
24851SOL     OW76384   1.477  12.621  11.489
24851SOL    HW176385   1.487  12.706  11.445
24851SOL    HW276386   1.541  12.565  11.445
24852SOL     OW76387   6.248   3.911   2.631
24852SOL    HW176388   6.200   3.907   2.548
24852SOL    HW276389   6.183   3.945   2.694
24853SOL     OW76390   2.133   8.379   8.009
24853SOL    HW176391   2.165   8.363   7.920
24853SOL    HW276392   2.090   8.297   8.034
24854SOL     OW76393   3.354   7.861   6.236
24854SOL    HW176394   3.267   7.900   6.228
24854SOL    HW276395   3.414   7.935   6.226
24855SOL     OW76396  13.330   1.065   1.562
24855SOL    HW176397  13.353   1.106   1.645
24855SOL    HW276398  13.406   1.010   1.540
24856SOL     OW76399   0.081   0.174   9.464
24856SOL    HW176400   0.130   0.098   9.432
24856SOL    HW276401  14.871   0.138   9.488
24857SOL     OW76402   3.696   8.737   4.683
24857SOL    HW176403   3.644   8.729   4.764
24857SOL    HW276404   3.784   8.760   4.713
24858SOL     OW76405   1.188   5.930  11.165
24858SOL    HW176406   1.134   5.872  11.112
24858SOL    HW276407   1.252   5.967  11.104
24859SOL     OW76408   0.419   8.763   6.092
24859SOL    HW176409   0.504   8.775   6.134
24859SOL    HW276410   0.439   8.715   6.011
24860SOL     OW76411   6.958   5.006   6.270
24860SOL    HW176412   6.877   4.962   6.292
24860SOL    HW276413   6.931   5.085   6.223
24861SOL     OW76414   3.813  14.606   2.419
24861SOL    HW176415   3.904  14.629   2.402
24861SOL    HW276416   3.769  14.689   2.433
24862SOL     OW76417   2.789   0.859   0.128
24862SOL    HW176418   2.740   0.783   0.096
24862SOL    HW276419   2.872   0.856   0.080
24863SOL     OW76420  14.009  13.731  11.552
24863SOL    HW176421  14.103  13.716  11.552
24863SOL    HW276422  13.987  13.750  11.461
24864SOL     OW76423  11.882  11.210  13.999
24864SOL    HW176424  11.978  11.215  13.998
24864SOL    HW276425  11.853  11.290  13.955
24865SOL     OW76426   5.786   0.147   6.976
24865SOL    HW176427   5.808   0.064   7.019
24865SOL    HW276428   5.828   0.140   6.890
24866SOL     OW76429  14.874   6.226   8.025
24866SOL    HW176430  14.844   6.279   7.950
24866SOL    HW276431  14.801   6.231   8.087
24867SOL     OW76432  10.891   7.045  13.776
24867SOL    HW176433  10.913   7.068  13.866
24867SOL    HW276434  10.876   6.950  13.779
24868SOL     OW76435   5.490   5.436  11.612
24868SOL    HW176436   5.403   5.475  11.614
24868SOL    HW276437   5.514   5.427  11.704
24869SOL     OW76438  10.785   9.977   5.587
24869SOL    HW176439  10.724  10.051   5.588
24869SOL    HW276440  10.865  10.013   5.549
24870SOL     OW76441   2.839   9.724   5.169
24870SOL    HW176442   2.813   9.811   5.138
24870SOL    HW276443   2.765   9.668   5.147
24871SOL     OW76444   6.474  12.937   5.796
24871SOL    HW176445   6.402  12.919   5.857
24871SOL    HW276446   6.553  12.909   5.842
24872SOL     OW76447   9.444  11.709   9.175
24872SOL    HW176448   9.435  11.776   9.242
24872SOL    HW276449   9.537  11.709   9.153
24873SOL     OW76450   4.151  14.216  10.241
24873SOL    HW176451   4.205  14.294  10.234
24873SOL    HW276452   4.062  14.247  10.225
24874SOL     OW76453   8.476   2.794  11.455
24874SOL    HW176454   8.515   2.709  11.436
24874SOL    HW276455   8.488   2.806  11.549
24875SOL     OW76456  10.932   0.135   3.784
24875SOL    HW176457  11.025   0.145   3.805
24875SOL    HW276458  10.910   0.215   3.737
24876SOL     OW76459   9.167  13.127   9.855
24876SOL    HW176460   9.177  13.148   9.762
24876SOL    HW276461   9.075  13.147   9.874
24877SOL     OW76462  11.336  11.104   3.870
24877SOL    HW176463  11.288  11.040   3.922
24877SOL    HW276464  11.298  11.097   3.782
24878SOL     OW76465   3.455   1.250   0.333
24878SOL    HW176466   3.496   1.331   0.304
24878SOL    HW276467   3.364   1.258   0.306
24879SOL     OW76468   1.958  11.369  11.851
24879SOL    HW176469   2.047  11.372  11.817
24879SOL    HW276470   1.905  11.336  11.779
24880SOL     OW76471   6.027  12.899   8.613
24880SOL    HW176472   5.964  12.879   8.682
24880SOL    HW276473   5.999  12.984   8.579
24881SOL     OW76474  14.420   2.725   1.683
24881SOL    HW176475  14.494   2.785   1.675
24881SOL    HW276476  14.437   2.657   1.618
24882SOL     OW76477   2.378   0.719   5.763
24882SOL    HW176478   2.416   0.756   5.843
24882SOL    HW276479   2.413   0.773   5.692
24883SOL     OW76480  12.894   4.881  13.184
24883SOL    HW176481  12.905   4.961  13.235
24883SOL    HW276482  12.983   4.857  13.157
24884SOL     OW76483  11.374   9.820  12.225
24884SOL    HW176484  11.285   9.812  12.193
24884SOL    HW276485  11.423   9.857  12.151
24885SOL     OW76486  10.192   6.007   5.870
24885SOL    HW176487  10.178   5.984   5.778
24885SOL    HW276488  10.112   5.978   5.914
24886SOL     OW76489   3.660   9.376   7.853
24886SOL    HW176490   3.666   9.280   7.844
24886SOL    HW276491   3.595   9.402   7.787
24887SOL     OW76492   0.598   8.302   8.063
24887SOL    HW176493   0.573   8.369   8.127
24887SOL    HW276494   0.567   8.220   8.100
24888SOL     OW76495  13.526   3.678  10.488
24888SOL    HW176496  13.535   3.653  10.580
24888SOL    HW276497  13.432   3.670  10.471
24889SOL     OW76498  13.724   7.533   2.475
24889SOL    HW176499  13.663   7.604   2.493
24889SOL    HW276500  13.679   7.454   2.502
24890SOL     OW76501   8.363   8.014   5.783
24890SOL    HW176502   8.438   7.957   5.765
24890SOL    HW276503   8.363   8.025   5.878
24891SOL     OW76504   6.605   3.390  14.219
24891SOL    HW176505   6.679   3.442  14.188
24891SOL    HW276506   6.629   3.300  14.196
24892SOL     OW76507   3.013   0.382   4.519
24892SOL    HW176508   3.031   0.289   4.503
24892SOL    HW276509   2.918   0.390   4.512
24893SOL     OW76510   2.130   9.163   6.851
24893SOL    HW176511   2.057   9.109   6.820
24893SOL    HW276512   2.092   9.250   6.862
24894SOL     OW76513  14.304  10.559   7.452
24894SOL    HW176514  14.344  10.644   7.469
24894SOL    HW276515  14.227  10.578   7.400
24895SOL     OW76516   6.001   6.875   7.933
24895SOL    HW176517   5.959   6.823   7.864
24895SOL    HW276518   5.978   6.965   7.912
24896SOL     OW76519  13.017  10.997   9.381
24896SOL    HW176520  12.928  10.977   9.351
24896SOL    HW276521  13.074  10.963   9.311
24897SOL     OW76522  14.339  13.894   0.963
24897SOL    HW176523  14.293  13.852   1.036
24897SOL    HW276524  14.409  13.944   1.005
24898SOL     OW76525  12.388   2.254  11.974
24898SOL    HW176526  12.449   2.325  11.991
24898SOL    HW276527  12.421   2.211  11.896
24899SOL     OW76528   8.891   9.613   8.614
24899SOL    HW176529   8.909   9.593   8.522
24899SOL    HW276530   8.960   9.675   8.639
24900SOL     OW76531   9.658  11.244   2.325
24900SOL    HW176532   9.573  11.200   2.316
24900SOL    HW276533   9.643  11.332   2.290
24901SOL     OW76534   7.458   5.787  13.497
24901SOL    HW176535   7.542   5.750  13.470
24901SOL    HW276536   7.448   5.867  13.445
24902SOL     OW76537   7.019   1.909   5.467
24902SOL    HW176538   7.108   1.893   5.499
24902SOL    HW276539   6.996   1.995   5.502
24903SOL     OW76540   5.596   8.393   2.516
24903SOL    HW176541   5.565   8.358   2.432
24903SOL    HW276542   5.644   8.321   2.556
24904SOL     OW76543  11.709  10.607  14.759
24904SOL    HW176544  11.617  10.579  14.769
24904SOL    HW276545  11.760  10.529  14.781
24905SOL     OW76546   7.651  10.012  11.481
24905SOL    HW176547   7.717   9.947  11.456
24905SOL    HW276548   7.584   9.962  11.527
24906SOL     OW76549   9.877   1.553   0.213
24906SOL    HW176550   9.924   1.544   0.296
24906SOL    HW276551   9.943   1.582   0.150
24907SOL     OW76552   7.725  12.390  13.838
24907SOL    HW176553   7.793  12.343  13.790
24907SOL    HW276554   7.692  12.455  13.775
24908SOL     OW76555  14.128  13.249  11.660
24908SOL    HW176556  14.200  13.268  11.720
24908SOL    HW276557  14.126  13.153  11.656
24909SOL     OW76558   4.594  10.096   1.567
24909SOL    HW176559   4.682  10.071   1.594
24909SOL    HW276560   4.536  10.033   1.610
24910SOL     OW76561  10.458   2.178   6.176
24910SOL    HW176562  10.402   2.101   6.186
24910SOL    HW276563  10.398   2.253   6.184
24911SOL     OW76564  12.999  10.840  11.904
24911SOL    HW176565  12.926  10.901  11.887
24911SOL    HW276566  12.992  10.775  11.835
24912SOL     OW76567   2.470  14.254   8.177
24912SOL    HW176568   2.498  14.328   8.232
24912SOL    HW276569   2.386  14.281   8.142
24913SOL     OW76570   1.504  10.301   7.186
24913SOL    HW176571   1.447  10.291   7.110
24913SOL    HW276572   1.509  10.214   7.225
24914SOL     OW76573   6.755  11.967   9.188
24914SOL    HW176574   6.681  11.940   9.243
24914SOL    HW276575   6.765  12.061   9.207
24915SOL     OW76576   7.767  10.018   7.376
24915SOL    HW176577   7.716   9.937   7.376
24915SOL    HW276578   7.788  10.034   7.468
24916SOL     OW76579   7.787   2.973   4.735
24916SOL    HW176580   7.700   2.996   4.768
24916SOL    HW276581   7.842   3.049   4.757
24917SOL     OW76582   3.122   7.743   6.828
24917SOL    HW176583   3.038   7.698   6.826
24917SOL    HW276584   3.183   7.683   6.786
24918SOL     OW76585   7.613   8.599   6.011
24918SOL    HW176586   7.614   8.630   6.102
24918SOL    HW276587   7.535   8.544   6.005
24919SOL     OW76588   8.525  10.926   2.788
24919SOL    HW176589   8.524  11.007   2.839
24919SOL    HW276590   8.440  10.885   2.807
24920SOL     OW76591  10.260   1.047   3.722
24920SOL    HW176592  10.178   0.998   3.720
24920SOL    HW276593  10.304   1.015   3.801
24921SOL     OW76594   3.281  10.577  12.360
24921SOL    HW176595   3.240  10.492  12.341
24921SOL    HW276596   3.212  10.641  12.343
24922SOL     OW76597   7.990  11.423   2.203
24922SOL    HW176598   7.901  11.433   2.169
24922SOL    HW276599   7.980  11.367   2.280
24923SOL     OW76600   6.395   4.868  13.293
24923SOL    HW176601   6.368   4.948  13.338
24923SOL    HW276602   6.401   4.802  13.362
24924SOL     OW76603  13.961   4.944   1.887
24924SOL    HW176604  13.939   4.911   1.800
24924SOL    HW276605  13.907   4.892   1.947
24925SOL     OW76606   1.722  11.293   9.654
24925SOL    HW176607   1.658  11.294   9.583
24925SOL    HW276608   1.806  11.287   9.609
24926SOL     OW76609  14.589   2.318  11.836
24926SOL    HW176610  14.572   2.380  11.766
24926SOL    HW276611  14.518   2.255  11.831
24927SOL     OW76612   7.890   0.446   1.289
24927SOL    HW176613   7.899   0.378   1.223
24927SOL    HW276614   7.853   0.521   1.242
24928SOL     OW76615   5.854   3.162  14.254
24928SOL    HW176616   5.807   3.204  14.182
24928SOL    HW276617   5.810   3.194  14.333
24929SOL     OW76618   2.758   7.017   5.726
24929SOL    HW176619   2.818   6.960   5.773
24929SOL    HW276620   2.724   7.077   5.792
24930SOL     OW76621  11.699   2.476   5.027
24930SOL    HW176622  11.695   2.571   5.042
24930SOL    HW276623  11.608   2.450   5.014
24931SOL     OW76624   4.436   0.970   9.895
24931SOL    HW176625   4.363   0.961   9.834
24931SOL    HW276626   4.395   0.983   9.981
24932SOL     OW76627   5.502   2.476  14.499
24932SOL    HW176628   5.473   2.517  14.580
24932SOL    HW276629   5.596   2.463  14.511
24933SOL     OW76630  10.227   1.065   3.022
24933SOL    HW176631  10.139   1.095   3.042
24933SOL    HW276632  10.255   1.017   3.100
24934SOL     OW76633   2.927   5.809   2.527
24934SOL    HW176634   2.910   5.891   2.572
24934SOL    HW276635   3.015   5.819   2.490
24935SOL     OW76636   7.235  14.215   3.506
24935SOL    HW176637   7.190  14.278   3.449
24935SOL    HW276638   7.199  14.130   3.481
24936SOL     OW76639   5.513   1.218   7.418
24936SOL    HW176640   5.437   1.167   7.389
24936SOL    HW276641   5.566   1.229   7.339
24937SOL     OW76642   2.107   7.314   0.284
24937SOL    HW176643   2.102   7.227   0.324
24937SOL    HW276644   2.198   7.340   0.294
24938SOL     OW76645  10.930   5.445  10.341
24938SOL    HW176646  10.940   5.416  10.251
24938SOL    HW276647  10.849   5.495  10.342
24939SOL     OW76648   8.389   6.920   8.569
24939SOL    HW176649   8.341   6.844   8.537
24939SOL    HW276650   8.479   6.907   8.537
24940SOL     OW76651   0.720   8.656   6.004
24940SOL    HW176652   0.647   8.594   6.007
24940SOL    HW276653   0.726   8.690   6.093
24941SOL     OW76654   5.226   0.712  12.459
24941SOL    HW176655   5.294   0.763  12.504
24941SOL    HW276656   5.175   0.778  12.412
24942SOL     OW76657   3.184   2.417   6.805
24942SOL    HW176658   3.169   2.466   6.724
24942SOL    HW276659   3.213   2.331   6.776
24943SOL     OW76660   4.925   2.265   4.847
24943SOL    HW176661   5.017   2.252   4.823
24943SOL    HW276662   4.925   2.346   4.898
24944SOL     OW76663  13.005   2.091  11.098
24944SOL    HW176664  13.029   2.182  11.116
24944SOL    HW276665  12.949   2.097  11.021
24945SOL     OW76666   5.061   5.126  10.599
24945SOL    HW176667   5.152   5.109  10.578
24945SOL    HW276668   5.023   5.161  10.519
24946SOL     OW76669   6.616   2.451   8.885
24946SOL    HW176670   6.689   2.510   8.863
24946SOL    HW276671   6.543   2.483   8.832
24947SOL     OW76672   0.148  11.303  13.329
24947SOL    HW176673   0.227  11.251  13.341
24947SOL    HW276674   0.078  11.248  13.364
24948SOL     OW76675   9.398   5.361  14.184
24948SOL    HW176676   9.384   5.337  14.093
24948SOL    HW276677   9.470   5.305  14.213
24949SOL     OW76678   8.888   2.532   9.859
24949SOL    HW176679   8.946   2.568   9.791
24949SOL    HW276680   8.947   2.509   9.931
24950SOL     OW76681   7.197  13.197  12.303
24950SOL    HW176682   7.138  13.184  12.377
24950SOL    HW276683   7.279  13.154  12.329
24951SOL     OW76684   3.418   3.136   8.555
24951SOL    HW176685   3.511   3.154   8.566
24951SOL    HW276686   3.376   3.183   8.627
24952SOL     OW76687   0.793  14.148   4.917
24952SOL    HW176688   0.829  14.220   4.866
24952SOL    HW276689   0.867  14.118   4.970
24953SOL     OW76690  12.607  11.024   5.691
24953SOL    HW176691  12.523  11.006   5.649
24953SOL    HW276692  12.657  11.074   5.626
24954SOL     OW76693   7.043   4.524   0.687
24954SOL    HW176694   7.039   4.494   0.778
24954SOL    HW276695   7.045   4.620   0.693
24955SOL     OW76696   8.373   4.103  13.918
24955SOL    HW176697   8.310   4.148  13.974
24955SOL    HW276698   8.319   4.056  13.855
24956SOL     OW76699   7.587   2.365   6.393
24956SOL    HW176700   7.644   2.290   6.410
24956SOL    HW276701   7.599   2.383   6.299
24957SOL     OW76702  11.947   7.071   9.663
24957SOL    HW176703  11.881   7.001   9.656
24957SOL    HW276704  11.916   7.126   9.735
24958SOL     OW76705   8.585  14.169   5.575
24958SOL    HW176706   8.553  14.259   5.585
24958SOL    HW276707   8.675  14.172   5.606
24959SOL     OW76708  11.484   7.863   5.838
24959SOL    HW176709  11.418   7.853   5.907
24959SOL    HW276710  11.541   7.787   5.848
24960SOL     OW76711   0.559  14.249   3.560
24960SOL    HW176712   0.570  14.193   3.483
24960SOL    HW276713   0.566  14.338   3.527
24961SOL     OW76714  12.872  12.901   1.035
24961SOL    HW176715  12.783  12.879   1.008
24961SOL    HW276716  12.863  12.927   1.126
24962SOL     OW76717   8.826   1.297   1.043
24962SOL    HW176718   8.849   1.329   1.131
24962SOL    HW276719   8.737   1.263   1.053
24963SOL     OW76720   4.785  11.540  11.319
24963SOL    HW176721   4.849  11.528  11.389
24963SOL    HW276722   4.711  11.583  11.362
24964SOL     OW76723   0.921  10.889   6.742
24964SOL    HW176724   0.998  10.840   6.712
24964SOL    HW276725   0.924  10.970   6.692
24965SOL     OW76726  13.041   9.310   5.540
24965SOL    HW176727  13.079   9.298   5.628
24965SOL    HW276728  12.959   9.262   5.542
24966SOL     OW76729   1.969   6.759  10.512
24966SOL    HW176730   1.888   6.709  10.526
24966SOL    HW276731   1.999   6.731  10.425
24967SOL     OW76732   5.953   1.245   1.077
24967SOL    HW176733   5.940   1.244   0.982
24967SOL    HW276734   5.866   1.234   1.114
24968SOL     OW76735   3.426   6.590   5.313
24968SOL    HW176736   3.461   6.630   5.233
24968SOL    HW276737   3.451   6.498   5.308
24969SOL     OW76738   5.802  13.617   8.527
24969SOL    HW176739   5.843  13.562   8.459
24969SOL    HW276740   5.866  13.685   8.544
24970SOL     OW76741   7.493   5.310  13.141
24970SOL    HW176742   7.493   5.248  13.213
24970SOL    HW276743   7.515   5.394  13.182
24971SOL     OW76744   7.823   9.687  12.280
24971SOL    HW176745   7.786   9.770  12.251
24971SOL    HW276746   7.750   9.639  12.318
24972SOL     OW76747   3.534   1.476  10.376
24972SOL    HW176748   3.502   1.483  10.286
24972SOL    HW276749   3.628   1.461  10.367
24973SOL     OW76750   8.042   9.863  13.936
24973SOL    HW176751   8.080   9.802  13.873
24973SOL    HW276752   8.010   9.807  14.007
24974SOL     OW76753   4.296   2.439  13.141
24974SOL    HW176754   4.386   2.408  13.150
24974SOL    HW276755   4.264   2.396  13.062
24975SOL     OW76756   1.553  10.244   4.710
24975SOL    HW176757   1.496  10.169   4.695
24975SOL    HW276758   1.512  10.315   4.661
24976SOL     OW76759   8.452   5.370   4.442
24976SOL    HW176760   8.478   5.462   4.441
24976SOL    HW276761   8.380   5.366   4.379
24977SOL     OW76762   6.771   9.441   9.953
24977SOL    HW176763   6.740   9.353   9.978
24977SOL    HW276764   6.863   9.442   9.980
24978SOL     OW76765  14.329   1.027   4.461
24978SOL    HW176766  14.254   1.076   4.497
24978SOL    HW276767  14.368   1.086   4.397
24979SOL     OW76768  14.681  13.610  10.560
24979SOL    HW176769  14.669  13.662  10.640
24979SOL    HW276770  14.727  13.669  10.500
24980SOL     OW76771   4.819  14.385   5.972
24980SOL    HW176772   4.858  14.466   6.003
24980SOL    HW276773   4.858  14.317   6.027
24981SOL     OW76774   8.592   0.305   6.029
24981SOL    HW176775   8.499   0.318   6.015
24981SOL    HW276776   8.605   0.211   6.024
24982SOL     OW76777   7.112   5.333   0.029
24982SOL    HW176778   7.092   5.413  14.855
24982SOL    HW276779   7.034   5.318   0.082
24983SOL     OW76780   8.514   4.202  12.868
24983SOL    HW176781   8.571   4.270  12.832
24983SOL    HW276782   8.571   4.152  12.926
24984SOL     OW76783   0.256   2.311   9.578
24984SOL    HW176784   0.227   2.299   9.668
24984SOL    HW276785   0.177   2.341   9.532
24985SOL     OW76786   2.912  12.815   5.264
24985SOL    HW176787   2.984  12.772   5.311
24985SOL    HW276788   2.919  12.781   5.175
24986SOL     OW76789   2.949  13.124  11.001
24986SOL    HW176790   2.991  13.040  10.981
24986SOL    HW276791   2.976  13.144  11.090
24987SOL     OW76792   5.661   5.609   8.048
24987SOL    HW176793   5.584   5.652   8.086
24987SOL    HW276794   5.641   5.516   8.053
24988SOL     OW76795  13.692   2.123  12.555
24988SOL    HW176796  13.714   2.054  12.493
24988SOL    HW276797  13.694   2.080  12.641
24989SOL     OW76798   8.947  10.552  10.195
24989SOL    HW176799   8.924  10.627  10.250
24989SOL    HW276800   8.862  10.516  10.168
24990SOL     OW76801   0.742  10.839   7.623
24990SOL    HW176802   0.796  10.828   7.701
24990SOL    HW276803   0.658  10.871   7.656
24991SOL     OW76804   7.537   8.507   6.676
24991SOL    HW176805   7.488   8.425   6.668
24991SOL    HW276806   7.619   8.482   6.718
24992SOL     OW76807   8.881   1.656   4.841
24992SOL    HW176808   8.943   1.685   4.774
24992SOL    HW276809   8.859   1.566   4.816
24993SOL     OW76810   3.955   0.508  12.123
24993SOL    HW176811   3.941   0.593  12.081
24993SOL    HW276812   3.877   0.457  12.102
24994SOL     OW76813   3.470   9.201   8.099
24994SOL    HW176814   3.388   9.241   8.072
24994SOL    HW276815   3.537   9.245   8.047
24995SOL     OW76816   3.683   7.694   9.163
24995SOL    HW176817   3.665   7.684   9.257
24995SOL    HW276818   3.604   7.661   9.120
24996SOL     OW76819  11.418   2.810   9.960
24996SOL    HW176820  11.430   2.819   9.866
24996SOL    HW276821  11.354   2.877   9.983
24997SOL     OW76822  14.484  14.730  14.613
24997SOL    HW176823  14.485  14.684  14.696
24997SOL    HW276824  14.510  14.820  14.635
24998SOL     OW76825  10.184  12.143   0.894
24998SOL    HW176826  10.140  12.220   0.856
24998SOL    HW276827  10.271  12.143   0.853
24999SOL     OW76828   8.242  10.275   0.855
24999SOL    HW176829   8.334  10.249   0.854
24999SOL    HW276830   8.233  10.334   0.780
25000SOL     OW76831   1.160  10.963  11.374
25000SOL    HW176832   1.182  10.993  11.463
25000SOL    HW276833   1.208  11.024  11.317
25001SOL     OW76834  11.129   5.983  14.327
25001SOL    HW176835  11.212   5.938  14.309
25001SOL    HW276836  11.153   6.075  14.339
25002SOL     OW76837  10.332   8.011   3.618
25002SOL    HW176838  10.317   8.076   3.686
25002SOL    HW276839  10.376   7.939   3.663
25003SOL     OW76840  11.866  11.609   4.721
25003SOL    HW176841  11.910  11.530   4.688
25003SOL    HW276842  11.811  11.577   4.793
25004SOL     OW76843   0.099   4.834   7.158
25004SOL    HW176844   0.090   4.802   7.248
25004SOL    HW276845   0.171   4.896   7.161
25005SOL     OW76846  12.055   7.051   6.621
25005SOL    HW176847  12.032   7.130   6.572
25005SOL    HW276848  12.005   7.057   6.702
25006SOL     OW76849  11.864   1.507  12.635
25006SOL    HW176850  11.869   1.525  12.541
25006SOL    HW276851  11.782   1.459  12.646
25007SOL     OW76852   2.935   0.259  11.243
25007SOL    HW176853   2.979   0.311  11.175
25007SOL    HW276854   2.873   0.320  11.283
25008SOL     OW76855   6.797   0.587   2.840
25008SOL    HW176856   6.787   0.648   2.914
25008SOL    HW276857   6.712   0.589   2.797
25009SOL     OW76858  11.415   0.178  11.363
25009SOL    HW176859  11.493   0.228  11.387
25009SOL    HW276860  11.437   0.087  11.384
25010SOL     OW76861   6.888  12.264   9.437
25010SOL    HW176862   6.852  12.273   9.349
25010SOL    HW276863   6.964  12.322   9.438
25011SOL     OW76864   9.023   8.402  11.994
25011SOL    HW176865   8.981   8.431  12.075
25011SOL    HW276866   8.961   8.340  11.956
25012SOL     OW76867  12.792   7.360  13.932
25012SOL    HW176868  12.838   7.279  13.953
25012SOL    HW276869  12.727   7.370  14.001
25013SOL     OW76870  14.515   8.652  12.686
25013SOL    HW176871  14.456   8.723  12.660
25013SOL    HW276872  14.545   8.614  12.603
25014SOL     OW76873   8.183  13.743   6.473
25014SOL    HW176874   8.155  13.826   6.513
25014SOL    HW276875   8.101  13.703   6.444
25015SOL     OW76876   3.310  13.778   6.996
25015SOL    HW176877   3.252  13.711   6.959
25015SOL    HW276878   3.340  13.740   7.079
25016SOL     OW76879   0.676   4.830   8.190
25016SOL    HW176880   0.670   4.779   8.271
25016SOL    HW276881   0.585   4.852   8.168
25017SOL     OW76882   5.127   0.618   0.832
25017SOL    HW176883   5.134   0.648   0.922
25017SOL    HW276884   5.118   0.523   0.839
25018SOL     OW76885   8.976  12.327   5.949
25018SOL    HW176886   8.967  12.311   6.043
25018SOL    HW276887   8.904  12.386   5.928
25019SOL     OW76888  12.367   8.066   8.820
25019SOL    HW176889  12.340   7.984   8.861
25019SOL    HW276890  12.348   8.053   8.727
25020SOL     OW76891   8.277  12.092   7.259
25020SOL    HW176892   8.210  12.058   7.200
25020SOL    HW276893   8.282  12.186   7.239
25021SOL     OW76894   5.634   2.861  10.961
25021SOL    HW176895   5.683   2.880  11.041
25021SOL    HW276896   5.698   2.821  10.902
25022SOL     OW76897   4.147  13.312   9.253
25022SOL    HW176898   4.156  13.217   9.254
25022SOL    HW276899   4.229  13.345   9.290
25023SOL     OW76900   3.045  13.237   2.328
25023SOL    HW176901   3.108  13.194   2.385
25023SOL    HW276902   2.979  13.170   2.309
25024SOL     OW76903  12.133   0.558   9.707
25024SOL    HW176904  12.090   0.535   9.789
25024SOL    HW276905  12.183   0.479   9.684
25025SOL     OW76906  14.295  14.058   1.742
25025SOL    HW176907  14.389  14.052   1.725
25025SOL    HW276908  14.276  14.152   1.737
25026SOL     OW76909   7.338  14.769   2.748
25026SOL    HW176910   7.280  14.742   2.677
25026SOL    HW276911   7.296  14.846   2.785
25027SOL     OW76912  13.725   0.391   0.133
25027SOL    HW176913  13.729   0.313   0.188
25027SOL    HW276914  13.768   0.459   0.185
25028SOL     OW76915   2.279   3.405  13.064
25028SOL    HW176916   2.360   3.366  13.098
25028SOL    HW276917   2.209   3.351  13.102
25029SOL     OW76918   4.561   3.147   5.037
25029SOL    HW176919   4.609   3.217   5.081
25029SOL    HW276920   4.628   3.087   5.005
25030SOL     OW76921   8.516  13.335  10.558
25030SOL    HW176922   8.548  13.411  10.508
25030SOL    HW276923   8.588  13.313  10.617
25031SOL     OW76924   2.565   8.500   6.373
25031SOL    HW176925   2.569   8.430   6.438
25031SOL    HW276926   2.585   8.457   6.290
25032SOL     OW76927   8.586   8.773  11.534
25032SOL    HW176928   8.491   8.759  11.525
25032SOL    HW276929   8.616   8.787  11.444
25033SOL     OW76930   4.770   1.879  10.245
25033SOL    HW176931   4.676   1.866  10.254
25033SOL    HW276932   4.778   1.966  10.206
25034SOL     OW76933   4.245  11.206   1.262
25034SOL    HW176934   4.156  11.204   1.227
25034SOL    HW276935   4.240  11.263   1.338
25035SOL     OW76936   4.801   0.708   1.925
25035SOL    HW176937   4.769   0.798   1.930
25035SOL    HW276938   4.781   0.680   1.836
25036SOL     OW76939  13.640   8.804   9.489
25036SOL    HW176940  13.610   8.714   9.477
25036SOL    HW276941  13.693   8.822   9.412
25037SOL     OW76942   5.368   9.547  10.286
25037SOL    HW176943   5.339   9.576  10.200
25037SOL    HW276944   5.343   9.617  10.345
25038SOL     OW76945   7.580   1.614  10.814
25038SOL    HW176946   7.515   1.654  10.872
25038SOL    HW276947   7.564   1.652  10.728
25039SOL     OW76948   4.141   5.947   4.551
25039SOL    HW176949   4.224   5.934   4.504
25039SOL    HW276950   4.157   6.020   4.610
25040SOL     OW76951   3.623  10.276   0.560
25040SOL    HW176952   3.548  10.240   0.607
25040SOL    HW276953   3.652  10.350   0.615
25041SOL     OW76954  11.929  11.030   2.959
25041SOL    HW176955  11.950  10.961   2.896
25041SOL    HW276956  12.014  11.070   2.979
25042SOL     OW76957  13.390   7.653   6.816
25042SOL    HW176958  13.331   7.661   6.891
25042SOL    HW276959  13.332   7.641   6.741
25043SOL     OW76960   9.673   6.846   8.898
25043SOL    HW176961   9.699   6.876   8.985
25043SOL    HW276962   9.578   6.856   8.897
25044SOL     OW76963   5.512   6.314  14.700
25044SOL    HW176964   5.594   6.289  14.658
25044SOL    HW276965   5.476   6.382  14.643
25045SOL     OW76966   6.000  14.063   0.847
25045SOL    HW176967   5.919  14.078   0.799
25045SOL    HW276968   6.049  14.145   0.839
25046SOL     OW76969   1.064   8.515   6.176
25046SOL    HW176970   1.011   8.490   6.100
25046SOL    HW276971   1.006   8.501   6.251
25047SOL     OW76972   8.073   1.518   7.430
25047SOL    HW176973   8.108   1.488   7.515
25047SOL    HW276974   8.031   1.602   7.450
25048SOL     OW76975   2.979   0.211  12.609
25048SOL    HW176976   2.977   0.144  12.678
25048SOL    HW276977   3.009   0.290  12.654
25049SOL     OW76978   6.689   4.087  10.133
25049SOL    HW176979   6.716   4.179  10.128
25049SOL    HW276980   6.595   4.089  10.114
25050SOL     OW76981  14.151   8.677   0.479
25050SOL    HW176982  14.065   8.664   0.440
25050SOL    HW276983  14.213   8.655   0.409
25051SOL     OW76984  10.033   3.073   1.324
25051SOL    HW176985  10.030   3.163   1.291
25051SOL    HW276986   9.943   3.056   1.354
25052SOL     OW76987   7.470   4.985   2.265
25052SOL    HW176988   7.540   4.923   2.246
25052SOL    HW276989   7.454   5.030   2.181
25053SOL     OW76990   1.001   4.550   0.263
25053SOL    HW176991   0.960   4.587   0.341
25053SOL    HW276992   0.940   4.572   0.192
25054SOL     OW76993   7.788   4.031   5.853
25054SOL    HW176994   7.783   3.942   5.889
25054SOL    HW276995   7.757   4.087   5.924
25055SOL     OW76996   8.467  11.608  10.194
25055SOL    HW176997   8.462  11.596  10.099
25055SOL    HW276998   8.382  11.578  10.226
25056SOL     OW76999   6.285   0.234   8.106
25056SOL    HW177000   6.304   0.325   8.129
25056SOL    HW277001   6.192   0.233   8.086
25057SOL     OW77002   3.392  10.170  11.660
25057SOL    HW177003   3.439  10.244  11.620
25057SOL    HW277004   3.454  10.097  11.655
25058SOL     OW77005   9.960   1.201   2.880
25058SOL    HW177006   9.958   1.110   2.849
25058SOL    HW277007   9.938   1.195   2.973
25059SOL     OW77008  10.530  14.413   4.119
25059SOL    HW177009  10.567  14.400   4.206
25059SOL    HW277010  10.522  14.508   4.110
25060SOL     OW77011   1.395   1.019   3.452
25060SOL    HW177012   1.423   1.061   3.371
25060SOL    HW277013   1.324   1.075   3.485
25061SOL     OW77014  13.833   8.374   6.007
25061SOL    HW177015  13.796   8.374   6.095
25061SOL    HW277016  13.767   8.417   5.952
25062SOL     OW77017   6.768   4.749   2.434
25062SOL    HW177018   6.706   4.730   2.505
25062SOL    HW277019   6.797   4.663   2.404
25063SOL     OW77020   8.926   9.302   9.963
25063SOL    HW177021   8.847   9.307   9.908
25063SOL    HW277022   8.909   9.228  10.021
25064SOL     OW77023   1.333   7.916   7.604
25064SOL    HW177024   1.410   7.938   7.553
25064SOL    HW277025   1.302   8.000   7.638
25065SOL     OW77026  10.422   5.423  10.623
25065SOL    HW177027  10.345   5.403  10.677
25065SOL    HW277028  10.485   5.354  10.645
25066SOL     OW77029  14.045   7.370  10.639
25066SOL    HW177030  14.046   7.453  10.591
25066SOL    HW277031  14.112   7.317  10.597
25067SOL     OW77032   3.010  10.921   5.109
25067SOL    HW177033   2.922  10.907   5.076
25067SOL    HW277034   3.026  10.849   5.170
25068SOL     OW77035  13.854   4.293  11.837
25068SOL    HW177036  13.837   4.387  11.831
25068SOL    HW277037  13.824   4.258  11.753
25069SOL     OW77038   3.686   6.788   1.430
25069SOL    HW177039   3.627   6.729   1.384
25069SOL    HW277040   3.743   6.823   1.362
25070SOL     OW77041  14.423   8.572  13.733
25070SOL    HW177042  14.434   8.532  13.820
25070SOL    HW277043  14.465   8.510  13.673
25071SOL     OW77044  11.453   2.210   2.436
25071SOL    HW177045  11.392   2.138   2.424
25071SOL    HW277046  11.455   2.225   2.531
25072SOL     OW77047  10.918  12.750   4.276
25072SOL    HW177048  10.826  12.724   4.278
25072SOL    HW277049  10.937  12.779   4.365
25073SOL     OW77050   7.334   8.355   2.729
25073SOL    HW177051   7.336   8.271   2.776
25073SOL    HW277052   7.360   8.420   2.794
25074SOL     OW77053  12.582   2.703   7.500
25074SOL    HW177054  12.595   2.612   7.473
25074SOL    HW277055  12.575   2.698   7.596
25075SOL     OW77056   6.633  10.559   2.191
25075SOL    HW177057   6.657  10.635   2.244
25075SOL    HW277058   6.606  10.493   2.255
25076SOL     OW77059   4.763   8.339   6.723
25076SOL    HW177060   4.691   8.341   6.660
25076SOL    HW277061   4.840   8.319   6.669
25077SOL     OW77062   1.028   7.068   4.430
25077SOL    HW177063   1.048   7.043   4.520
25077SOL    HW277064   0.955   7.130   4.437
25078SOL     OW77065   9.620   1.754   3.377
25078SOL    HW177066   9.578   1.768   3.461
25078SOL    HW277067   9.610   1.660   3.360
25079SOL     OW77068  13.386   1.093  12.946
25079SOL    HW177069  13.403   1.167  12.886
25079SOL    HW277070  13.355   1.023  12.888
25080SOL     OW77071   7.258   8.848   6.408
25080SOL    HW177072   7.189   8.864   6.472
25080SOL    HW277073   7.312   8.780   6.447
25081SOL     OW77074   5.548  10.442  11.801
25081SOL    HW177075   5.512  10.401  11.722
25081SOL    HW277076   5.624  10.388  11.823
25082SOL     OW77077  13.044   7.114  10.472
25082SOL    HW177078  13.104   7.077  10.407
25082SOL    HW277079  13.007   7.192  10.428
25083SOL     OW77080   1.168   1.070  13.071
25083SOL    HW177081   1.092   1.013  13.057
25083SOL    HW277082   1.243   1.013  13.054
25084SOL     OW77083   4.028   1.191  10.850
25084SOL    HW177084   3.982   1.110  10.871
25084SOL    HW277085   4.069   1.174  10.765
25085SOL     OW77086   7.533   3.733   4.875
25085SOL    HW177087   7.496   3.805   4.925
25085SOL    HW277088   7.478   3.728   4.796
25086SOL     OW77089  14.824   2.681   1.191
25086SOL    HW177090   0.016   2.682   1.259
25086SOL    HW277091  14.753   2.630   1.229
25087SOL     OW77092   7.310  12.621  13.659
25087SOL    HW177093   7.265  12.587  13.582
25087SOL    HW277094   7.326  12.713  13.639
25088SOL     OW77095  14.710  13.467   2.918
25088SOL    HW177096  14.752  13.541   2.962
25088SOL    HW277097  14.634  13.505   2.874
25089SOL     OW77098   3.271  12.574  14.344
25089SOL    HW177099   3.264  12.522  14.424
25089SOL    HW277100   3.218  12.652  14.362
25090SOL     OW77101  13.869  10.438   0.092
25090SOL    HW177102  13.957  10.429   0.130
25090SOL    HW277103  13.867  10.375   0.020
25091SOL     OW77104   3.397   2.257   6.641
25091SOL    HW177105   3.390   2.243   6.547
25091SOL    HW277106   3.452   2.335   6.650
25092SOL     OW77107   6.616   7.336   0.491
25092SOL    HW177108   6.540   7.279   0.496
25092SOL    HW277109   6.588   7.408   0.434
25093SOL     OW77110   4.090  12.023   2.797
25093SOL    HW177111   4.109  11.934   2.826
25093SOL    HW277112   4.099  12.019   2.702
25094SOL     OW77113   5.504   7.909   4.242
25094SOL    HW177114   5.557   7.854   4.299
25094SOL    HW277115   5.552   7.992   4.237
25095SOL     OW77116   8.060  10.220   5.092
25095SOL    HW177117   8.032  10.294   5.038
25095SOL    HW277118   8.012  10.230   5.174
25096SOL     OW77119   8.994   7.896  11.799
25096SOL    HW177120   8.904   7.902  11.830
25096SOL    HW277121   9.045   7.870  11.876
25097SOL     OW77122  10.009   6.482  11.643
25097SOL    HW177123   9.941   6.493  11.576
25097SOL    HW277124  10.001   6.559  11.698
25098SOL     OW77125   5.857   1.671   1.851
25098SOL    HW177126   5.919   1.679   1.923
25098SOL    HW277127   5.884   1.738   1.788
25099SOL     OW77128   7.757   2.872  10.901
25099SOL    HW177129   7.813   2.838  10.831
25099SOL    HW277130   7.775   2.815  10.976
25100SOL     OW77131  13.682   7.847  11.096
25100SOL    HW177132  13.706   7.937  11.122
25100SOL    HW277133  13.625   7.858  11.020
25101SOL     OW77134   8.277  12.575   4.394
25101SOL    HW177135   8.287  12.604   4.485
25101SOL    HW277136   8.195  12.527   4.393
25102SOL     OW77137   9.626   5.907  12.817
25102SOL    HW177138   9.639   5.983  12.761
25102SOL    HW277139   9.632   5.832  12.758
25103SOL     OW77140   1.634  13.379  14.644
25103SOL    HW177141   1.705  13.349  14.587
25103SOL    HW277142   1.632  13.474  14.631
25104SOL     OW77143  12.994   2.201  12.078
25104SOL    HW177144  13.071   2.257  12.091
25104SOL    HW277145  12.963   2.182  12.166
25105SOL     OW77146  10.740  13.868   9.677
25105SOL    HW177147  10.681  13.874   9.603
25105SOL    HW277148  10.760  13.775   9.684
25106SOL     OW77149   6.867   0.124   1.846
25106SOL    HW177150   6.860   0.120   1.941
25106SOL    HW277151   6.779   0.147   1.816
25107SOL     OW77152   7.073  14.367   8.901
25107SOL    HW177153   6.988  14.410   8.887
25107SOL    HW277154   7.135  14.419   8.850
25108SOL     OW77155   1.971   0.898   3.244
25108SOL    HW177156   1.981   0.888   3.149
25108SOL    HW277157   1.876   0.905   3.257
25109SOL     OW77158   4.037   7.230  13.590
25109SOL    HW177159   4.123   7.251  13.627
25109SOL    HW277160   4.056   7.164  13.523
25110SOL     OW77161   3.079  11.868   9.394
25110SOL    HW177162   3.159  11.918   9.412
25110SOL    HW277163   3.019  11.933   9.358
25111SOL     OW77164  11.283   8.450   2.625
25111SOL    HW177165  11.335   8.520   2.664
25111SOL    HW277166  11.328   8.431   2.542
25112SOL     OW77167   3.004   4.414   0.392
25112SOL    HW177168   3.031   4.383   0.305
25112SOL    HW277169   2.951   4.492   0.374
25113SOL     OW77170   3.614   6.719  11.843
25113SOL    HW177171   3.693   6.675  11.812
25113SOL    HW277172   3.625   6.725  11.938
25114SOL     OW77173   4.102   6.890   8.404
25114SOL    HW177174   4.052   6.969   8.381
25114SOL    HW277175   4.163   6.878   8.331
25115SOL     OW77176   5.227  10.245  13.658
25115SOL    HW177177   5.159  10.290  13.708
25115SOL    HW277178   5.213  10.272  13.568
25116SOL     OW77179   3.630   5.245   7.618
25116SOL    HW177180   3.548   5.277   7.581
25116SOL    HW277181   3.696   5.307   7.586
25117SOL     OW77182   2.349   0.220   1.694
25117SOL    HW177183   2.434   0.264   1.686
25117SOL    HW277184   2.370   0.127   1.684
25118SOL     OW77185   2.739   2.004   5.632
25118SOL    HW177186   2.682   1.927   5.636
25118SOL    HW277187   2.753   2.018   5.538
25119SOL     OW77188  11.942   6.417   2.268
25119SOL    HW177189  11.939   6.500   2.315
25119SOL    HW277190  12.030   6.382   2.287
25120SOL     OW77191   7.383   6.716   6.927
25120SOL    HW177192   7.416   6.803   6.950
25120SOL    HW277193   7.288   6.727   6.928
25121SOL     OW77194   0.345   0.039  11.601
25121SOL    HW177195   0.326   0.078  11.686
25121SOL    HW277196   0.263  14.874  11.574
25122SOL     OW77197   3.972  10.615  13.240
25122SOL    HW177198   3.897  10.562  13.212
25122SOL    HW277199   3.946  10.648  13.326
25123SOL     OW77200   8.535   7.346  13.377
25123SOL    HW177201   8.611   7.369  13.323
25123SOL    HW277202   8.476   7.299  13.318
25124SOL     OW77203   5.882  11.846   5.068
25124SOL    HW177204   5.949  11.909   5.095
25124SOL    HW277205   5.932  11.775   5.027
25125SOL     OW77206   5.166   9.335  13.602
25125SOL    HW177207   5.212   9.263  13.644
25125SOL    HW277208   5.084   9.343  13.651
25126SOL     OW77209   5.478  14.517   4.656
25126SOL    HW177210   5.396  14.542   4.612
25126SOL    HW277211   5.521  14.458   4.594
25127SOL     OW77212  14.648  13.851  13.855
25127SOL    HW177213  14.605  13.799  13.787
25127SOL    HW277214  14.720  13.797  13.884
25128SOL     OW77215   1.470   4.465   2.785
25128SOL    HW177216   1.407   4.396   2.763
25128SOL    HW277217   1.550   4.418   2.808
25129SOL     OW77218   9.003   3.268  14.240
25129SOL    HW177219   9.091   3.256  14.278
25129SOL    HW277220   9.017   3.327  14.166
25130SOL     OW77221  10.956   3.347   1.187
25130SOL    HW177222  10.962   3.367   1.281
25130SOL    HW277223  10.940   3.253   1.184
25131SOL     OW77224  10.208   2.459  13.799
25131SOL    HW177225  10.233   2.552  13.801
25131SOL    HW277226  10.250   2.424  13.720
25132SOL     OW77227   0.478  11.712   5.342
25132SOL    HW177228   0.503  11.689   5.431
25132SOL    HW277229   0.394  11.668   5.328
25133SOL     OW77230   9.750   1.203  11.772
25133SOL    HW177231   9.827   1.149  11.753
25133SOL    HW277232   9.779   1.293  11.753
25134SOL     OW77233   5.796   7.609   6.356
25134SOL    HW177234   5.719   7.599   6.300
25134SOL    HW277235   5.782   7.693   6.400
25135SOL     OW77236  13.783   2.164   3.802
25135SOL    HW177237  13.869   2.170   3.845
25135SOL    HW277238  13.802   2.177   3.709
25136SOL     OW77239   3.060   1.263  10.052
25136SOL    HW177240   3.114   1.185  10.050
25136SOL    HW277241   3.059   1.295   9.962
25137SOL     OW77242  14.818  12.275   1.334
25137SOL    HW177243  14.800  12.296   1.425
25137SOL    HW277244   0.013  12.335   1.309
25138SOL     OW77245   6.316   8.689   7.129
25138SOL    HW177246   6.239   8.746   7.130
25138SOL    HW277247   6.281   8.602   7.108
25139SOL     OW77248   7.763   2.383   2.963
25139SOL    HW177249   7.719   2.302   2.936
25139SOL    HW277250   7.692   2.440   2.993
25140SOL     OW77251  12.658   9.852  12.324
25140SOL    HW177252  12.744   9.812  12.337
25140SOL    HW277253  12.649   9.914  12.397
25141SOL     OW77254   2.035   4.149   9.916
25141SOL    HW177255   2.085   4.142   9.834
25141SOL    HW277256   2.016   4.059   9.940
25142SOL     OW77257   0.231   5.048   7.235
25142SOL    HW177258   0.266   5.134   7.211
25142SOL    HW277259   0.256   5.037   7.327
25143SOL     OW77260  10.675   7.765   9.992
25143SOL    HW177261  10.750   7.731  10.039
25143SOL    HW277262  10.599   7.732  10.040
25144SOL     OW77263  11.099   7.873   2.528
25144SOL    HW177264  11.099   7.962   2.494
25144SOL    HW277265  11.017   7.835   2.496
25145SOL     OW77266  11.059   5.546  10.949
25145SOL    HW177267  11.008   5.468  10.974
25145SOL    HW277268  11.076   5.533  10.855
25146SOL     OW77269  11.365  12.671   5.692
25146SOL    HW177270  11.415  12.732   5.746
25146SOL    HW277271  11.325  12.611   5.756
25147SOL     OW77272   3.274   2.281   8.894
25147SOL    HW177273   3.312   2.342   8.831
25147SOL    HW277274   3.347   2.255   8.950
25148SOL     OW77275  14.653   3.737  12.190
25148SOL    HW177276  14.613   3.730  12.276
25148SOL    HW277277  14.580   3.738  12.129
25149SOL     OW77278  12.631   9.332   9.666
25149SOL    HW177279  12.623   9.362   9.757
25149SOL    HW277280  12.639   9.413   9.616
25150SOL     OW77281   9.668   3.166   3.545
25150SOL    HW177282   9.764   3.168   3.542
25150SOL    HW277283   9.645   3.077   3.519
25151SOL     OW77284   6.112  11.449   1.058
25151SOL    HW177285   6.097  11.538   1.091
25151SOL    HW277286   6.188  11.458   1.001
25152SOL     OW77287   2.810  11.734  11.411
25152SOL    HW177288   2.731  11.786  11.428
25152SOL    HW277289   2.794  11.651  11.456
25153SOL     OW77290  13.421   4.250  10.306
25153SOL    HW177291  13.479   4.270  10.380
25153SOL    HW277292  13.440   4.318  10.242
25154SOL     OW77293   9.607   0.383   2.982
25154SOL    HW177294   9.665   0.373   2.906
25154SOL    HW277295   9.580   0.475   2.979
25155SOL     OW77296   9.828   9.943   5.666
25155SOL    HW177297   9.911   9.989   5.682
25155SOL    HW277298   9.849   9.879   5.598
25156SOL     OW77299   7.007  12.639   4.242
25156SOL    HW177300   6.918  12.616   4.271
25156SOL    HW277301   6.999  12.648   4.147
25157SOL     OW77302   4.546  12.413  11.143
25157SOL    HW177303   4.549  12.317  11.143
25157SOL    HW277304   4.484  12.435  11.074
25158SOL     OW77305  11.676  10.518  12.263
25158SOL    HW177306  11.731  10.462  12.318
25158SOL    HW277307  11.605  10.461  12.234
25159SOL     OW77308   4.204   4.165   4.883
25159SOL    HW177309   4.199   4.106   4.808
25159SOL    HW277310   4.279   4.221   4.865
25160SOL     OW77311  13.667   9.813  14.657
25160SOL    HW177312  13.726   9.834  14.584
25160SOL    HW277313  13.631   9.727  14.635
25161SOL     OW77314   3.471  11.642   9.319
25161SOL    HW177315   3.537  11.699   9.277
25161SOL    HW277316   3.492  11.647   9.413
25162SOL     OW77317  12.350  10.161   8.908
25162SOL    HW177318  12.403  10.132   8.835
25162SOL    HW277319  12.275  10.205   8.868
25163SOL     OW77320  14.079   5.445  13.814
25163SOL    HW177321  14.111   5.393  13.888
25163SOL    HW277322  14.159   5.475  13.770
25164SOL     OW77323   7.409   1.110  12.643
25164SOL    HW177324   7.395   1.031  12.591
25164SOL    HW277325   7.453   1.171  12.583
25165SOL     OW77326  11.794   4.838   8.399
25165SOL    HW177327  11.816   4.778   8.328
25165SOL    HW277328  11.702   4.820   8.419
25166SOL     OW77329   1.247   0.228  11.061
25166SOL    HW177330   1.239   0.175  11.140
25166SOL    HW277331   1.326   0.196  11.018
25167SOL     OW77332  12.658   0.534  11.514
25167SOL    HW177333  12.643   0.560  11.605
25167SOL    HW277334  12.571   0.510  11.481
25168SOL     OW77335  14.697   3.177   1.253
25168SOL    HW177336  14.786   3.210   1.247
25168SOL    HW277337  14.645   3.253   1.279
25169SOL     OW77338   1.072   4.225   5.102
25169SOL    HW177339   1.044   4.190   5.187
25169SOL    HW277340   1.002   4.286   5.077
25170SOL     OW77341   9.317   5.679   3.594
25170SOL    HW177342   9.355   5.642   3.514
25170SOL    HW277343   9.264   5.752   3.563
25171SOL     OW77344   2.610   5.234   5.699
25171SOL    HW177345   2.578   5.271   5.782
25171SOL    HW277346   2.532   5.228   5.644
25172SOL     OW77347   0.080   9.383   2.164
25172SOL    HW177348   0.047   9.365   2.076
25172SOL    HW277349   0.031   9.460   2.192
25173SOL     OW77350  11.177  14.571   0.873
25173SOL    HW177351  11.143  14.592   0.960
25173SOL    HW277352  11.107  14.595   0.813
25174SOL     OW77353   3.327   5.149   5.884
25174SOL    HW177354   3.246   5.191   5.912
25174SOL    HW277355   3.319   5.059   5.916
25175SOL     OW77356  12.421   1.475   6.761
25175SOL    HW177357  12.427   1.467   6.856
25175SOL    HW277358  12.334   1.441   6.739
25176SOL     OW77359   6.895   0.984  12.837
25176SOL    HW177360   6.827   1.046  12.811
25176SOL    HW277361   6.875   0.963  12.929
25177SOL     OW77362   8.451  12.410   2.375
25177SOL    HW177363   8.419  12.467   2.445
25177SOL    HW277364   8.378  12.352   2.356
25178SOL     OW77365   6.758  13.629   1.012
25178SOL    HW177366   6.688  13.632   0.946
25178SOL    HW277367   6.753  13.713   1.056
25179SOL     OW77368   8.185  13.913   7.179
25179SOL    HW177369   8.142  13.832   7.208
25179SOL    HW277370   8.195  13.965   7.259
25180SOL     OW77371  13.650  14.338   0.303
25180SOL    HW177372  13.559  14.311   0.285
25180SOL    HW277373  13.682  14.367   0.218
25181SOL     OW77374  10.127  13.185  14.388
25181SOL    HW177375  10.108  13.108  14.441
25181SOL    HW277376  10.072  13.254  14.425
25182SOL     OW77377   6.914   8.330  11.476
25182SOL    HW177378   6.993   8.281  11.458
25182SOL    HW277379   6.843   8.268  11.463
25183SOL     OW77380   8.208   0.022   6.877
25183SOL    HW177381   8.163  14.814   6.871
25183SOL    HW277382   8.143   0.087   6.848
25184SOL     OW77383   0.097   0.437   3.282
25184SOL    HW177384   0.173   0.476   3.240
25184SOL    HW277385   0.080   0.493   3.357
25185SOL     OW77386   3.635  11.156  13.191
25185SOL    HW177387   3.654  11.142  13.098
25185SOL    HW277388   3.719  11.180  13.229
25186SOL     OW77389   9.189   9.209  13.935
25186SOL    HW177390   9.192   9.285  13.877
25186SOL    HW277391   9.096   9.195  13.952
25187SOL     OW77392   5.947   5.062   5.098
25187SOL    HW177393   5.895   5.139   5.119
25187SOL    HW277394   5.986   5.081   5.013
25188SOL     OW77395   1.036  13.074   6.061
25188SOL    HW177396   0.983  12.995   6.066
25188SOL    HW277397   1.063  13.079   5.969
25189SOL     OW77398   8.901   9.046   8.671
25189SOL    HW177399   8.809   9.030   8.649
25189SOL    HW277400   8.916   9.137   8.648
25190SOL     OW77401  12.118   7.164  10.579
25190SOL    HW177402  12.174   7.089  10.597
25190SOL    HW277403  12.142   7.229  10.645
25191SOL     OW77404   6.703   8.978   2.862
25191SOL    HW177405   6.687   8.948   2.773
25191SOL    HW277406   6.779   8.927   2.891
25192SOL     OW77407   3.174   2.691   7.111
25192SOL    HW177408   3.199   2.681   7.203
25192SOL    HW277409   3.250   2.658   7.062
25193SOL     OW77410  11.594  11.027  14.009
25193SOL    HW177411  11.650  11.105  14.013
25193SOL    HW277412  11.552  11.024  14.095
25194SOL     OW77413   7.395  14.539  11.201
25194SOL    HW177414   7.387  14.578  11.287
25194SOL    HW277415   7.401  14.445  11.218
25195SOL     OW77416   4.090   0.247  13.797
25195SOL    HW177417   4.146   0.263  13.873
25195SOL    HW277418   4.001   0.266  13.828
25196SOL     OW77419  12.243   4.795  12.537
25196SOL    HW177420  12.234   4.885  12.567
25196SOL    HW277421  12.172   4.747  12.581
25197SOL     OW77422   0.916  12.707   3.075
25197SOL    HW177423   0.907  12.612   3.088
25197SOL    HW277424   0.974  12.715   2.999
25198SOL     OW77425  14.629   5.387   9.003
25198SOL    HW177426  14.699   5.450   9.024
25198SOL    HW277427  14.548   5.438   9.012
25199SOL     OW77428   1.315   7.522  13.041
25199SOL    HW177429   1.378   7.507  12.972
25199SOL    HW277430   1.342   7.465  13.113
25200SOL     OW77431   3.301   4.742  13.667
25200SOL    HW177432   3.392   4.750  13.697
25200SOL    HW277433   3.309   4.721  13.574
25201SOL     OW77434   6.339   2.095   9.851
25201SOL    HW177435   6.372   2.040   9.780
25201SOL    HW277436   6.415   2.146   9.879
25202SOL     OW77437  13.053   3.745  14.127
25202SOL    HW177438  13.057   3.816  14.063
25202SOL    HW277439  13.019   3.786  14.206
25203SOL     OW77440  10.898  13.612   7.341
25203SOL    HW177441  10.869  13.617   7.250
25203SOL    HW277442  10.969  13.676   7.348
25204SOL     OW77443   2.855   7.031   8.554
25204SOL    HW177444   2.859   6.937   8.572
25204SOL    HW277445   2.921   7.070   8.613
25205SOL     OW77446  12.552   1.311   7.849
25205SOL    HW177447  12.602   1.333   7.928
25205SOL    HW277448  12.461   1.319   7.876
25206SOL     OW77449  14.577  11.271   9.673
25206SOL    HW177450  14.588  11.275   9.768
25206SOL    HW277451  14.510  11.204   9.659
25207SOL     OW77452   2.155   0.301   3.600
25207SOL    HW177453   2.059   0.294   3.593
25207SOL    HW277454   2.177   0.251   3.679
25208SOL     OW77455   5.665   9.967   6.207
25208SOL    HW177456   5.625  10.022   6.139
25208SOL    HW277457   5.701   9.893   6.158
25209SOL     OW77458   9.013   3.563   4.481
25209SOL    HW177459   9.007   3.469   4.497
25209SOL    HW277460   8.982   3.574   4.391
25210SOL     OW77461   9.569   7.700   4.543
25210SOL    HW177462   9.520   7.691   4.625
25210SOL    HW277463   9.585   7.794   4.536
25211SOL     OW77464   5.556  10.955  10.080
25211SOL    HW177465   5.580  11.047  10.067
25211SOL    HW277466   5.490  10.938  10.012
25212SOL     OW77467   8.787   7.393  13.252
25212SOL    HW177468   8.829   7.446  13.184
25212SOL    HW277469   8.856   7.378  13.317
25213SOL     OW77470   0.913  14.457  12.435
25213SOL    HW177471   0.853  14.531  12.425
25213SOL    HW277472   0.855  14.380  12.441
25214SOL     OW77473  13.737   6.113   1.818
25214SOL    HW177474  13.695   6.151   1.741
25214SOL    HW277475  13.674   6.048   1.850
25215SOL     OW77476   0.875   2.358  13.197
25215SOL    HW177477   0.958   2.354  13.148
25215SOL    HW277478   0.812   2.395  13.135
25216SOL     OW77479  13.232   6.415   2.539
25216SOL    HW177480  13.325   6.431   2.522
25216SOL    HW277481  13.228   6.388   2.630
25217SOL     OW77482   6.138   1.212   0.200
25217SOL    HW177483   6.060   1.197   0.254
25217SOL    HW277484   6.128   1.301   0.168
25218SOL     OW77485   0.214  11.876   9.824
25218SOL    HW177486   0.232  11.865   9.917
25218SOL    HW277487   0.241  11.966   9.805
25219SOL     OW77488  13.564  11.260  13.988
25219SOL    HW177489  13.609  11.275  13.905
25219SOL    HW277490  13.629  11.215  14.043
25220SOL     OW77491   4.089   6.599  10.020
25220SOL    HW177492   4.098   6.668   9.954
25220SOL    HW277493   3.995   6.596  10.038
25221SOL     OW77494  14.650   4.229   7.332
25221SOL    HW177495  14.572   4.265   7.373
25221SOL    HW277496  14.622   4.144   7.298
25222SOL     OW77497  14.370   4.108   1.189
25222SOL    HW177498  14.380   4.194   1.229
25222SOL    HW277499  14.278   4.085   1.205
25223SOL     OW77500  13.486   1.945   3.291
25223SOL    HW177501  13.510   1.939   3.199
25223SOL    HW277502  13.566   1.978   3.334
25224SOL     OW77503  13.531   9.064  12.011
25224SOL    HW177504  13.496   9.046  12.098
25224SOL    HW277505  13.515   9.158  11.998
25225SOL     OW77506   6.649   2.664   2.457
25225SOL    HW177507   6.612   2.746   2.425
25225SOL    HW277508   6.600   2.596   2.412
25226SOL     OW77509   0.228   5.802  13.868
25226SOL    HW177510   0.302   5.761  13.824
25226SOL    HW277511   0.156   5.796  13.805
25227SOL     OW77512   5.981  14.526  11.617
25227SOL    HW177513   5.951  14.486  11.698
25227SOL    HW277514   5.927  14.486  11.549
25228SOL     OW77515   6.884   7.054   0.916
25228SOL    HW177516   6.828   7.119   0.958
25228SOL    HW277517   6.849   7.046   0.827
25229SOL     OW77518   1.401  11.998  13.373
25229SOL    HW177519   1.402  12.091  13.350
25229SOL    HW277520   1.334  11.991  13.440
25230SOL     OW77521   6.093  11.564   2.333
25230SOL    HW177522   6.180  11.544   2.367
25230SOL    HW277523   6.100  11.550   2.239
25231SOL     OW77524   7.573   8.454   4.313
25231SOL    HW177525   7.560   8.361   4.333
25231SOL    HW277526   7.551   8.499   4.394
25232SOL     OW77527   8.877   0.515   9.810
25232SOL    HW177528   8.797   0.480   9.850
25232SOL    HW277529   8.920   0.438   9.772
25233SOL     OW77530   5.895   4.274  10.808
25233SOL    HW177531   5.844   4.348  10.775
25233SOL    HW277532   5.886   4.207  10.740
25234SOL     OW77533   3.650  13.944  11.081
25234SOL    HW177534   3.657  14.019  11.022
25234SOL    HW277535   3.631  13.982  11.166
25235SOL     OW77536   8.994  13.071   1.512
25235SOL    HW177537   9.041  12.988   1.521
25235SOL    HW277538   8.940  13.060   1.434
25236SOL     OW77539   2.853  14.483   1.384
25236SOL    HW177540   2.885  14.396   1.362
25236SOL    HW277541   2.899  14.542   1.323
25237SOL     OW77542   5.909   7.034   5.708
25237SOL    HW177543   5.989   6.983   5.699
25237SOL    HW277544   5.923   7.088   5.785
25238SOL     OW77545   0.874   4.635   0.489
25238SOL    HW177546   0.897   4.564   0.549
25238SOL    HW277547   0.902   4.715   0.534
25239SOL     OW77548   5.353  14.354   8.287
25239SOL    HW177549   5.420  14.333   8.353
25239SOL    HW277550   5.385  14.434   8.246
25240SOL     OW77551   3.051   2.119   8.496
25240SOL    HW177552   3.011   2.193   8.541
25240SOL    HW277553   3.134   2.104   8.542
25241SOL     OW77554   1.930   7.815   5.182
25241SOL    HW177555   1.982   7.783   5.108
25241SOL    HW277556   1.955   7.907   5.191
25242SOL     OW77557  12.526   0.312  12.971
25242SOL    HW177558  12.484   0.292  13.055
25242SOL    HW277559  12.571   0.231  12.947
25243SOL     OW77560   2.216  13.367   7.324
25243SOL    HW177561   2.189  13.428   7.393
25243SOL    HW277562   2.143  13.367   7.262
25244SOL     OW77563   2.617   4.757   2.816
25244SOL    HW177564   2.578   4.718   2.894
25244SOL    HW277565   2.705   4.783   2.845
25245SOL     OW77566  10.585   7.576   1.154
25245SOL    HW177567  10.545   7.611   1.233
25245SOL    HW277568  10.532   7.499   1.132
25246SOL     OW77569   7.959  10.868   4.408
25246SOL    HW177570   8.006  10.873   4.325
25246SOL    HW277571   7.948  10.774   4.424
25247SOL     OW77572   9.792   4.016   0.031
25247SOL    HW177573   9.700   3.994   0.043
25247SOL    HW277574   9.794   4.067  14.826
25248SOL     OW77575   0.518  12.690   3.203
25248SOL    HW177576   0.579  12.761   3.223
25248SOL    HW277577   0.440  12.734   3.169
25249SOL     OW77578   9.600   7.032  14.369
25249SOL    HW177579   9.628   7.124  14.372
25249SOL    HW277580   9.679   6.982  14.384
25250SOL     OW77581   1.312  10.697   0.892
25250SOL    HW177582   1.221  10.709   0.921
25250SOL    HW277583   1.363  10.751   0.951
25251SOL     OW77584   1.588   2.095  13.926
25251SOL    HW177585   1.507   2.047  13.941
25251SOL    HW277586   1.610   2.078  13.834
25252SOL     OW77587   7.324  13.731  13.372
25252SOL    HW177588   7.341  13.668  13.443
25252SOL    HW277589   7.397  13.792  13.377
25253SOL     OW77590  10.686   2.101  10.449
25253SOL    HW177591  10.649   2.016  10.426
25253SOL    HW277592  10.765   2.080  10.500
25254SOL     OW77593  12.355  11.383   9.461
25254SOL    HW177594  12.427  11.327   9.490
25254SOL    HW277595  12.392  11.434   9.389
25255SOL     OW77596   0.276  10.246   8.908
25255SOL    HW177597   0.361  10.291   8.913
25255SOL    HW277598   0.281  10.179   8.976
25256SOL     OW77599   8.815  13.734   0.803
25256SOL    HW177600   8.896  13.775   0.832
25256SOL    HW277601   8.752  13.754   0.872
25257SOL     OW77602   3.046   9.591   1.710
25257SOL    HW177603   3.129   9.546   1.695
25257SOL    HW277604   3.050   9.620   1.801
25258SOL     OW77605   6.337  12.003   0.140
25258SOL    HW177606   6.263  11.949   0.169
25258SOL    HW277607   6.386  11.947   0.080
25259SOL     OW77608   9.043   7.616   4.058
25259SOL    HW177609   9.132   7.582   4.058
25259SOL    HW277610   9.024   7.633   4.151
25260SOL     OW77611  10.569   8.034   4.012
25260SOL    HW177612  10.540   8.044   3.921
25260SOL    HW277613  10.551   7.943   4.033
25261SOL     OW77614   6.891   0.735   1.040
25261SOL    HW177615   6.892   0.643   1.011
25261SOL    HW277616   6.817   0.774   0.993
25262SOL     OW77617   9.176  12.287   8.889
25262SOL    HW177618   9.194  12.303   8.796
25262SOL    HW277619   9.087  12.320   8.902
25263SOL     OW77620  11.031   4.277   2.944
25263SOL    HW177621  11.039   4.297   2.850
25263SOL    HW277622  11.115   4.236   2.966
25264SOL     OW77623   0.827  13.797   2.744
25264SOL    HW177624   0.795  13.725   2.799
25264SOL    HW277625   0.917  13.811   2.774
25265SOL     OW77626   8.000   3.064  13.898
25265SOL    HW177627   8.072   3.053  13.837
25265SOL    HW277628   7.944   3.131  13.859
25266SOL     OW77629   7.977   1.868   9.485
25266SOL    HW177630   7.956   1.790   9.537
25266SOL    HW277631   7.898   1.884   9.433
25267SOL     OW77632   7.380   0.541   1.352
25267SOL    HW177633   7.390   0.636   1.344
25267SOL    HW277634   7.451   0.515   1.411
25268SOL     OW77635   7.070   5.458   7.064
25268SOL    HW177636   7.149   5.443   7.013
25268SOL    HW277637   7.042   5.546   7.040
25269SOL     OW77638   9.016   2.796   5.232
25269SOL    HW177639   8.978   2.711   5.212
25269SOL    HW277640   8.964   2.858   5.180
25270SOL     OW77641   2.823  13.691   3.408
25270SOL    HW177642   2.763  13.655   3.473
25270SOL    HW277643   2.837  13.782   3.436
25271SOL     OW77644   2.501  10.853   8.960
25271SOL    HW177645   2.409  10.829   8.950
25271SOL    HW277646   2.544  10.774   8.992
25272SOL     OW77647   3.026   5.648   9.257
25272SOL    HW177648   3.035   5.729   9.208
25272SOL    HW277649   3.110   5.637   9.302
25273SOL     OW77650   7.947   3.637   0.169
25273SOL    HW177651   7.959   3.728   0.199
25273SOL    HW277652   7.855   3.618   0.186
25274SOL     OW77653   8.178  14.066  11.283
25274SOL    HW177654   8.150  13.978  11.307
25274SOL    HW277655   8.126  14.088  11.206
25275SOL     OW77656  10.821   7.395  12.036
25275SOL    HW177657  10.832   7.300  12.035
25275SOL    HW277658  10.910   7.429  12.044
25276SOL     OW77659  12.721   7.930  11.490
25276SOL    HW177660  12.677   8.005  11.451
25276SOL    HW277661  12.729   7.952  11.583
25277SOL     OW77662   4.355   9.905  13.138
25277SOL    HW177663   4.426   9.892  13.200
25277SOL    HW277664   4.393   9.955  13.066
25278SOL     OW77665  11.497   9.675   7.047
25278SOL    HW177666  11.481   9.743   6.982
25278SOL    HW277667  11.455   9.597   7.010
25279SOL     OW77668   4.448   1.630   6.973
25279SOL    HW177669   4.443   1.693   6.901
25279SOL    HW277670   4.381   1.565   6.951
25280SOL     OW77671   6.493  12.478  13.638
25280SOL    HW177672   6.535  12.507  13.719
25280SOL    HW277673   6.426  12.416  13.667
25281SOL     OW77674   3.143   3.235   9.624
25281SOL    HW177675   3.125   3.141   9.630
25281SOL    HW277676   3.150   3.252   9.530
25282SOL     OW77677  12.589   1.353   5.905
25282SOL    HW177678  12.588   1.352   5.809
25282SOL    HW277679  12.618   1.441   5.929
25283SOL     OW77680   0.040   2.817   9.007
25283SOL    HW177681   0.092   2.880   8.957
25283SOL    HW277682  14.826   2.850   9.002
25284SOL     OW77683   2.603  14.177   8.590
25284SOL    HW177684   2.530  14.239   8.599
25284SOL    HW277685   2.674  14.228   8.552
25285SOL     OW77686  13.287   3.320   3.604
25285SOL    HW177687  13.229   3.292   3.533
25285SOL    HW277688  13.249   3.403   3.634
25286SOL     OW77689   0.589   7.710   8.676
25286SOL    HW177690   0.550   7.625   8.695
25286SOL    HW277691   0.521   7.757   8.628
25287SOL     OW77692  13.512   5.164   8.337
25287SOL    HW177693  13.539   5.219   8.263
25287SOL    HW277694  13.581   5.176   8.402
25288SOL     OW77695   3.306  10.737  11.062
25288SOL    HW177696   3.324  10.772  11.149
25288SOL    HW277697   3.345  10.649  11.063
25289SOL     OW77698   6.677   0.725  13.024
25289SOL    HW177699   6.593   0.679  13.016
25289SOL    HW277700   6.703   0.711  13.116
25290SOL     OW77701  12.084   7.656  11.250
25290SOL    HW177702  12.146   7.596  11.291
25290SOL    HW277703  12.042   7.603  11.182
25291SOL     OW77704  11.196  10.862  11.486
25291SOL    HW177705  11.137  10.925  11.528
25291SOL    HW277706  11.230  10.908  11.410
25292SOL     OW77707   5.613   6.365   9.331
25292SOL    HW177708   5.535   6.342   9.382
25292SOL    HW277709   5.684   6.367   9.395
25293SOL     OW77710  11.944   7.251   9.399
25293SOL    HW177711  11.907   7.177   9.446
25293SOL    HW277712  12.035   7.226   9.383
25294SOL     OW77713  13.363  13.059   6.867
25294SOL    HW177714  13.450  13.080   6.834
25294SOL    HW277715  13.308  13.055   6.789
25295SOL     OW77716   4.697   2.131   8.986
25295SOL    HW177717   4.792   2.122   8.983
25295SOL    HW277718   4.678   2.155   9.077
25296SOL     OW77719  14.264   3.198   8.727
25296SOL    HW177720  14.225   3.260   8.790
25296SOL    HW277721  14.290   3.124   8.781
25297SOL     OW77722   1.478   0.028  13.629
25297SOL    HW177723   1.395   0.070  13.608
25297SOL    HW277724   1.532   0.098  13.665
25298SOL     OW77725  14.857   9.151   9.730
25298SOL    HW177726  14.847   9.218   9.663
25298SOL    HW277727  14.799   9.180   9.801
25299SOL     OW77728   3.295   2.417   2.734
25299SOL    HW177729   3.349   2.493   2.712
25299SOL    HW277730   3.348   2.342   2.710
25300SOL     OW77731  13.765  12.108  11.219
25300SOL    HW177732  13.680  12.150  11.204
25300SOL    HW277733  13.829  12.169  11.182
25301SOL     OW77734   7.700   7.127   9.328
25301SOL    HW177735   7.701   7.209   9.378
25301SOL    HW277736   7.733   7.061   9.389
25302SOL     OW77737   3.380  10.521   6.761
25302SOL    HW177738   3.299  10.474   6.780
25302SOL    HW277739   3.355  10.613   6.758
25303SOL     OW77740   6.981   4.833   8.046
25303SOL    HW177741   6.993   4.782   8.126
25303SOL    HW277742   7.027   4.784   7.978
25304SOL     OW77743  14.715   0.651   6.463
25304SOL    HW177744  14.661   0.722   6.428
25304SOL    HW277745  14.693   0.648   6.556
25305SOL     OW77746   8.118   7.550  11.401
25305SOL    HW177747   8.196   7.525  11.351
25305SOL    HW277748   8.148   7.620  11.459
25306SOL     OW77749   9.824   7.944   4.705
25306SOL    HW177750   9.738   7.931   4.665
25306SOL    HW277751   9.852   8.030   4.673
25307SOL     OW77752   6.044  13.118  11.672
25307SOL    HW177753   5.951  13.143  11.669
25307SOL    HW277754   6.088  13.193  11.712
25308SOL     OW77755   4.032  10.063   3.599
25308SOL    HW177756   3.991  10.149   3.604
25308SOL    HW277757   3.976  10.007   3.653
25309SOL     OW77758   2.538  14.171   4.341
25309SOL    HW177759   2.469  14.127   4.390
25309SOL    HW277760   2.492  14.230   4.281
25310SOL     OW77761   6.834  11.378   4.918
25310SOL    HW177762   6.840  11.472   4.902
25310SOL    HW277763   6.836  11.370   5.014
25311SOL     OW77764   3.734   1.239   6.738
25311SOL    HW177765   3.695   1.203   6.658
25311SOL    HW277766   3.669   1.221   6.806
25312SOL     OW77767   2.292   3.195  14.276
25312SOL    HW177768   2.221   3.173  14.336
25312SOL    HW277769   2.370   3.199  14.331
25313SOL     OW77770   2.871   2.283   6.724
25313SOL    HW177771   2.801   2.349   6.728
25313SOL    HW277772   2.901   2.275   6.814
25314SOL     OW77773  13.145  11.524  14.559
25314SOL    HW177774  13.194  11.456  14.512
25314SOL    HW277775  13.213  11.582  14.594
25315SOL     OW77776  11.475   9.316   1.672
25315SOL    HW177777  11.477   9.361   1.756
25315SOL    HW277778  11.415   9.243   1.684
25316SOL     OW77779   1.446   6.283  11.886
25316SOL    HW177780   1.351   6.273  11.883
25316SOL    HW277781   1.470   6.261  11.976
25317SOL     OW77782   7.222  11.380   7.073
25317SOL    HW177783   7.280  11.386   6.997
25317SOL    HW277784   7.151  11.322   7.044
25318SOL     OW77785   7.074   0.741   7.541
25318SOL    HW177786   7.032   0.655   7.534
25318SOL    HW277787   7.087   0.769   7.451
25319SOL     OW77788   1.631   3.849  11.274
25319SOL    HW177789   1.715   3.807  11.258
25319SOL    HW277790   1.651   3.927  11.324
25320SOL     OW77791   4.371   6.705   6.907
25320SOL    HW177792   4.410   6.679   6.991
25320SOL    HW277793   4.286   6.742   6.930
25321SOL     OW77794  10.168   4.725   1.639
25321SOL    HW177795  10.218   4.673   1.576
25321SOL    HW277796  10.179   4.815   1.611
25322SOL     OW77797   5.374   8.876   2.657
25322SOL    HW177798   5.316   8.939   2.616
25322SOL    HW277799   5.367   8.798   2.603
25323SOL     OW77800   9.292   6.243   2.705
25323SOL    HW177801   9.324   6.164   2.748
25323SOL    HW277802   9.255   6.296   2.775
25324SOL     OW77803  13.393   5.111   6.463
25324SOL    HW177804  13.485   5.084   6.452
25324SOL    HW277805  13.349   5.032   6.496
25325SOL     OW77806   5.391  11.707   7.128
25325SOL    HW177807   5.458  11.736   7.190
25325SOL    HW277808   5.388  11.776   7.062
25326SOL     OW77809   1.157  12.721  13.217
25326SOL    HW177810   1.227  12.685  13.272
25326SOL    HW277811   1.076  12.692  13.259
25327SOL     OW77812   1.431   6.791  14.367
25327SOL    HW177813   1.429   6.794  14.462
25327SOL    HW277814   1.382   6.712  14.344
25328SOL     OW77815  10.419   3.943  10.855
25328SOL    HW177816  10.471   3.882  10.803
25328SOL    HW277817  10.437   4.029  10.817
25329SOL     OW77818   6.307   7.881   9.399
25329SOL    HW177819   6.283   7.908   9.488
25329SOL    HW277820   6.249   7.931   9.342
25330SOL     OW77821   6.885   7.507   1.730
25330SOL    HW177822   6.938   7.434   1.700
25330SOL    HW277823   6.832   7.471   1.802
25331SOL     OW77824   2.931   4.277   6.953
25331SOL    HW177825   3.011   4.322   6.926
25331SOL    HW277826   2.860   4.336   6.927
25332SOL     OW77827   6.536  14.535  12.975
25332SOL    HW177828   6.598  14.587  13.025
25332SOL    HW277829   6.543  14.447  13.012
25333SOL     OW77830   8.486   8.187   7.667
25333SOL    HW177831   8.511   8.173   7.576
25333SOL    HW277832   8.530   8.269   7.691
25334SOL     OW77833   4.576   7.418   4.918
25334SOL    HW177834   4.586   7.362   4.841
25334SOL    HW277835   4.660   7.411   4.964
25335SOL     OW77836   5.076   0.091  14.803
25335SOL    HW177837   5.148   0.092  14.866
25335SOL    HW277838   5.001   0.124  14.851
25336SOL     OW77839  10.189   3.632   6.797
25336SOL    HW177840  10.227   3.558   6.843
25336SOL    HW277841  10.095   3.614   6.796
25337SOL     OW77842   7.204   3.957   9.672
25337SOL    HW177843   7.281   3.923   9.717
25337SOL    HW277844   7.182   3.890   9.607
25338SOL     OW77845   2.453  11.468   3.530
25338SOL    HW177846   2.482  11.457   3.621
25338SOL    HW277847   2.369  11.424   3.526
25339SOL     OW77848   7.509   7.319   1.957
25339SOL    HW177849   7.489   7.312   1.864
25339SOL    HW277850   7.583   7.379   1.962
25340SOL     OW77851  13.850   4.163  11.076
25340SOL    HW177852  13.757   4.146  11.088
25340SOL    HW277853  13.856   4.198  10.987
25341SOL     OW77854  10.734  13.088   0.719
25341SOL    HW177855  10.737  13.130   0.805
25341SOL    HW277856  10.644  13.058   0.711
25342SOL     OW77857   0.203   8.183   5.814
25342SOL    HW177858   0.157   8.110   5.854
25342SOL    HW277859   0.137   8.226   5.759
25343SOL     OW77860   7.240  11.714  11.775
25343SOL    HW177861   7.189  11.742  11.699
25343SOL    HW277862   7.240  11.790  11.833
25344SOL     OW77863  13.969   6.430  13.133
25344SOL    HW177864  13.981   6.340  13.105
25344SOL    HW277865  13.996   6.431  13.225
25345SOL     OW77866   9.236  10.575   4.690
25345SOL    HW177867   9.168  10.624   4.645
25345SOL    HW277868   9.214  10.584   4.783
25346SOL     OW77869   2.466  11.994  12.726
25346SOL    HW177870   2.500  11.962  12.643
25346SOL    HW277871   2.371  11.980  12.720
25347SOL     OW77872  10.009   4.819  13.479
25347SOL    HW177873  10.044   4.865  13.555
25347SOL    HW277874  10.056   4.855  13.404
25348SOL     OW77875   0.443   3.832   1.656
25348SOL    HW177876   0.537   3.823   1.640
25348SOL    HW277877   0.438   3.883   1.737
25349SOL     OW77878   4.360  13.681   6.879
25349SOL    HW177879   4.411  13.750   6.922
25349SOL    HW277880   4.335  13.720   6.795
25350SOL     OW77881  13.981   8.734   2.040
25350SOL    HW177882  14.031   8.727   1.959
25350SOL    HW277883  13.920   8.660   2.038
25351SOL     OW77884   6.769  13.556   1.464
25351SOL    HW177885   6.844  13.601   1.425
25351SOL    HW277886   6.711  13.539   1.390
25352SOL     OW77887   4.119  11.654   6.564
25352SOL    HW177888   4.170  11.639   6.484
25352SOL    HW277889   4.164  11.727   6.608
25353SOL     OW77890   6.375   9.589  14.650
25353SOL    HW177891   6.465   9.558  14.659
25353SOL    HW277892   6.377   9.646  14.573
25354SOL     OW77893   9.238   2.532   9.384
25354SOL    HW177894   9.225   2.452   9.332
25354SOL    HW277895   9.150   2.556   9.413
25355SOL     OW77896   0.964  11.600   8.519
25355SOL    HW177897   0.916  11.617   8.599
25355SOL    HW277898   0.998  11.511   8.529
25356SOL     OW77899   1.462   1.562   2.220
25356SOL    HW177900   1.477   1.556   2.126
25356SOL    HW277901   1.495   1.479   2.255
25357SOL     OW77902   3.304   4.790   1.072
25357SOL    HW177903   3.350   4.830   0.999
25357SOL    HW277904   3.284   4.701   1.042
25358SOL     OW77905   0.928   1.197  14.725
25358SOL    HW177906   0.884   1.267  14.677
25358SOL    HW277907   0.885   1.197  14.811
25359SOL     OW77908   1.834  10.279   2.383
25359SOL    HW177909   1.814  10.372   2.370
25359SOL    HW277910   1.851  10.245   2.295
25360SOL     OW77911   0.795  11.062   5.561
25360SOL    HW177912   0.865  11.096   5.616
25360SOL    HW277913   0.715  11.082   5.609
25361SOL     OW77914  13.293   7.119   8.292
25361SOL    HW177915  13.252   7.094   8.375
25361SOL    HW277916  13.223   7.109   8.227
25362SOL     OW77917   7.009   2.889  13.598
25362SOL    HW177918   7.087   2.942  13.581
25362SOL    HW277919   7.043   2.803  13.623
25363SOL     OW77920  11.433  12.920   8.392
25363SOL    HW177921  11.463  12.831   8.377
25363SOL    HW277922  11.362  12.933   8.329
25364SOL     OW77923   3.168   8.778  14.095
25364SOL    HW177924   3.224   8.702  14.084
25364SOL    HW277925   3.190   8.813  14.181
25365SOL     OW77926   6.623   1.426   1.633
25365SOL    HW177927   6.578   1.504   1.601
25365SOL    HW277928   6.614   1.430   1.728
25366SOL     OW77929  13.360   8.357   9.226
25366SOL    HW177930  13.289   8.296   9.209
25366SOL    HW277931  13.320   8.429   9.274
25367SOL     OW77932  14.651   6.663  13.851
25367SOL    HW177933  14.684   6.672  13.941
25367SOL    HW277934  14.556   6.673  13.859
25368SOL     OW77935   6.624  14.423   6.635
25368SOL    HW177936   6.532  14.449   6.647
25368SOL    HW277937   6.619  14.343   6.582
25369SOL     OW77938  11.248   8.426  13.094
25369SOL    HW177939  11.198   8.443  13.173
25369SOL    HW277940  11.332   8.470  13.109
25370SOL     OW77941   7.169   3.007   7.102
25370SOL    HW177942   7.176   3.007   7.197
25370SOL    HW277943   7.259   3.023   7.071
25371SOL     OW77944   4.685   6.193   8.677
25371SOL    HW177945   4.707   6.138   8.752
25371SOL    HW277946   4.746   6.266   8.683
25372SOL     OW77947   5.502  13.150   3.065
25372SOL    HW177948   5.464  13.160   2.978
25372SOL    HW277949   5.461  13.218   3.118
25373SOL     OW77950  14.157  11.327   1.721
25373SOL    HW177951  14.184  11.295   1.807
25373SOL    HW277952  14.153  11.422   1.731
25374SOL     OW77953  12.368   2.170   0.003
25374SOL    HW177954  12.300   2.182   0.069
25374SOL    HW277955  12.446   2.145   0.053
25375SOL     OW77956   1.357   8.134   2.630
25375SOL    HW177957   1.365   8.192   2.555
25375SOL    HW277958   1.409   8.057   2.606
25376SOL     OW77959   7.021   0.351   8.216
25376SOL    HW177960   7.036   0.276   8.274
25376SOL    HW277961   7.036   0.427   8.272
25377SOL     OW77962   9.555   7.539  10.839
25377SOL    HW177963   9.510   7.519  10.921
25377SOL    HW277964   9.525   7.474  10.777
25378SOL     OW77965  14.742  11.499   8.911
25378SOL    HW177966  14.812  11.491   8.846
25378SOL    HW277967  14.787  11.527   8.991
25379SOL     OW77968   9.658   8.225  12.039
25379SOL    HW177969   9.616   8.199  12.121
25379SOL    HW277970   9.592   8.206  11.971
25380SOL     OW77971   6.214  11.050   0.686
25380SOL    HW177972   6.170  11.029   0.603
25380SOL    HW277973   6.305  11.066   0.661
25381SOL     OW77974   8.357  13.570  13.532
25381SOL    HW177975   8.343  13.527  13.448
25381SOL    HW277976   8.341  13.501  13.597
25382SOL     OW77977  12.136   9.211  13.799
25382SOL    HW177978  12.211   9.262  13.832
25382SOL    HW277979  12.070   9.219  13.867
25383SOL     OW77980  12.684   2.452   1.943
25383SOL    HW177981  12.596   2.415   1.952
25383SOL    HW277982  12.672   2.546   1.947
25384SOL     OW77983   8.961   6.606   1.900
25384SOL    HW177984   9.031   6.663   1.932
25384SOL    HW277985   8.986   6.518   1.931
25385SOL     OW77986  10.960   4.948   8.856
25385SOL    HW177987  11.054   4.961   8.872
25385SOL    HW277988  10.954   4.934   8.762
25386SOL     OW77989   4.492  13.915   9.178
25386SOL    HW177990   4.584  13.899   9.198
25386SOL    HW277991   4.487  13.910   9.082
25387SOL     OW77992   4.217   2.967   0.035
25387SOL    HW177993   4.308   2.956   0.063
25387SOL    HW277994   4.213   3.058   0.003
25388SOL     OW77995   8.380   3.929   7.514
25388SOL    HW177996   8.395   3.835   7.501
25388SOL    HW277997   8.330   3.956   7.437
25389SOL     OW77998   5.453   4.409   6.048
25389SOL    HW177999   5.370   4.400   6.001
25389SOL    HW278000   5.447   4.347   6.120
25390SOL     OW78001   4.303  13.240   6.225
25390SOL    HW178002   4.243  13.166   6.236
25390SOL    HW278003   4.295  13.263   6.132
25391SOL     OW78004   6.871   3.567  10.788
25391SOL    HW178005   6.882   3.643  10.845
25391SOL    HW278006   6.912   3.592  10.705
25392SOL     OW78007   7.767   0.945   5.903
25392SOL    HW178008   7.838   0.880   5.897
25392SOL    HW278009   7.731   0.947   5.814
25393SOL     OW78010  12.418  11.140   5.989
25393SOL    HW178011  12.436  11.232   6.009
25393SOL    HW278012  12.372  11.106   6.066
25394SOL     OW78013  10.802  13.008   1.076
25394SOL    HW178014  10.882  12.957   1.090
25394SOL    HW278015  10.747  12.953   1.021
25395SOL     OW78016  13.776  12.006   1.596
25395SOL    HW178017  13.786  12.054   1.514
25395SOL    HW278018  13.860  12.015   1.640
25396SOL     OW78019   8.107  14.710  14.833
25396SOL    HW178020   8.031  14.763  14.810
25396SOL    HW278021   8.173  14.773  14.859
25397SOL     OW78022   4.334  12.591   1.825
25397SOL    HW178023   4.396  12.636   1.768
25397SOL    HW278024   4.384  12.518   1.862
25398SOL     OW78025   2.116   0.312  12.299
25398SOL    HW178026   2.120   0.407  12.306
25398SOL    HW278027   2.177   0.280  12.366
25399SOL     OW78028   4.593   5.516  14.320
25399SOL    HW178029   4.504   5.530  14.353
25399SOL    HW278030   4.581   5.472  14.236
25400SOL     OW78031  14.101  10.916   5.510
25400SOL    HW178032  14.163  10.845   5.491
25400SOL    HW278033  14.153  10.996   5.503
25401SOL     OW78034   5.363   3.540   6.955
25401SOL    HW178035   5.348   3.485   7.032
25401SOL    HW278036   5.281   3.534   6.906
25402SOL     OW78037   8.492  13.133   3.124
25402SOL    HW178038   8.441  13.054   3.106
25402SOL    HW278039   8.487  13.143   3.219
25403SOL     OW78040   1.775  10.056  11.549
25403SOL    HW178041   1.772   9.970  11.508
25403SOL    HW278042   1.823  10.111  11.487
25404SOL     OW78043  11.085  12.698  11.600
25404SOL    HW178044  11.155  12.632  11.596
25404SOL    HW278045  11.032  12.682  11.523
25405SOL     OW78046  12.577   7.221   8.823
25405SOL    HW178047  12.520   7.289   8.858
25405SOL    HW278048  12.567   7.148   8.885
25406SOL     OW78049  12.966   0.258   7.572
25406SOL    HW178050  13.057   0.266   7.602
25406SOL    HW278051  12.972   0.234   7.480
25407SOL     OW78052   9.827   9.462   7.297
25407SOL    HW178053   9.818   9.423   7.384
25407SOL    HW278054   9.807   9.391   7.236
25408SOL     OW78055   5.899   5.417   5.768
25408SOL    HW178056   5.968   5.361   5.804
25408SOL    HW278057   5.825   5.406   5.828
25409SOL     OW78058  12.110  10.785  13.683
25409SOL    HW178059  12.124  10.737  13.765
25409SOL    HW278060  12.015  10.781  13.670
25410SOL     OW78061   2.638   2.886   3.377
25410SOL    HW178062   2.718   2.935   3.359
25410SOL    HW278063   2.604   2.924   3.458
25411SOL     OW78064   5.381   6.708   4.073
25411SOL    HW178065   5.448   6.751   4.020
25411SOL    HW278066   5.372   6.621   4.033
25412SOL     OW78067   7.055  10.044  10.018
25412SOL    HW178068   6.996  10.086   9.955
25412SOL    HW278069   7.105  10.116  10.056
25413SOL     OW78070  10.759   0.024  11.041
25413SOL    HW178071  10.755  14.821  10.986
25413SOL    HW278072  10.786  14.869  11.127
25414SOL     OW78073   6.107   3.657   1.059
25414SOL    HW178074   6.074   3.649   1.148
25414SOL    HW278075   6.033   3.635   1.003
25415SOL     OW78076  12.227  11.538   6.941
25415SOL    HW178077  12.185  11.596   7.005
25415SOL    HW278078  12.274  11.598   6.882
25416SOL     OW78079   0.591   0.192   2.402
25416SOL    HW178080   0.520   0.131   2.424
25416SOL    HW278081   0.622   0.224   2.486
25417SOL     OW78082  12.300  10.240  14.295
25417SOL    HW178083  12.237  10.226  14.366
25417SOL    HW278084  12.294  10.333  14.276
25418SOL     OW78085   2.541   8.584  12.664
25418SOL    HW178086   2.554   8.619  12.576
25418SOL    HW278087   2.627   8.553  12.691
25419SOL     OW78088   5.794   4.624   0.745
25419SOL    HW178089   5.863   4.613   0.679
25419SOL    HW278090   5.747   4.541   0.746
25420SOL     OW78091   2.116  10.606   3.679
25420SOL    HW178092   2.157  10.521   3.664
25420SOL    HW278093   2.022  10.590   3.665
25421SOL     OW78094  11.892  13.408   2.262
25421SOL    HW178095  11.850  13.492   2.243
25421SOL    HW278096  11.973  13.430   2.308
25422SOL     OW78097  14.090   0.425   5.599
25422SOL    HW178098  14.122   0.478   5.525
25422SOL    HW278099  14.122   0.337   5.581
25423SOL     OW78100  12.546   8.551   5.708
25423SOL    HW178101  12.532   8.466   5.666
25423SOL    HW278102  12.604   8.598   5.647
25424SOL     OW78103   6.744  10.970   3.253
25424SOL    HW178104   6.656  10.934   3.242
25424SOL    HW278105   6.803  10.896   3.240
25425SOL     OW78106   7.256   9.318  13.872
25425SOL    HW178107   7.180   9.338  13.817
25425SOL    HW278108   7.223   9.258  13.938
25426SOL     OW78109  12.761  10.376  13.359
25426SOL    HW178110  12.738  10.469  13.356
25426SOL    HW278111  12.677  10.332  13.373
25427SOL     OW78112  11.626  14.385   1.877
25427SOL    HW178113  11.673  14.329   1.939
25427SOL    HW278114  11.669  14.369   1.793
25428SOL     OW78115   3.237   2.522  10.701
25428SOL    HW178116   3.324   2.556  10.680
25428SOL    HW278117   3.250   2.429  10.717
25429SOL     OW78118   3.661   8.531   8.586
25429SOL    HW178119   3.657   8.626   8.586
25429SOL    HW278120   3.736   8.510   8.643
25430SOL     OW78121  13.633  10.237   0.578
25430SOL    HW178122  13.593  10.317   0.611
25430SOL    HW278123  13.726  10.257   0.569
25431SOL     OW78124   2.536   2.391   7.930
25431SOL    HW178125   2.541   2.412   8.023
25431SOL    HW278126   2.540   2.295   7.927
25432SOL     OW78127   5.121   6.202   9.375
25432SOL    HW178128   5.153   6.247   9.297
25432SOL    HW278129   5.187   6.220   9.442
25433SOL     OW78130   4.199  13.581  12.121
25433SOL    HW178131   4.211  13.486  12.112
25433SOL    HW278132   4.135  13.604  12.053
25434SOL     OW78133   2.096   9.412   3.953
25434SOL    HW178134   2.120   9.360   3.876
25434SOL    HW278135   2.112   9.503   3.928
25435SOL     OW78136  12.320   0.585   4.088
25435SOL    HW178137  12.270   0.667   4.087
25435SOL    HW278138  12.281   0.535   4.159
25436SOL     OW78139   0.679   5.120  13.059
25436SOL    HW178140   0.721   5.092  12.978
25436SOL    HW278141   0.678   5.043  13.115
25437SOL     OW78142  13.174   9.000   8.523
25437SOL    HW178143  13.212   8.944   8.455
25437SOL    HW278144  13.214   9.085   8.509
25438SOL     OW78145   1.989  12.295  11.450
25438SOL    HW178146   2.022  12.221  11.399
25438SOL    HW278147   2.033  12.372  11.412
25439SOL     OW78148   2.416   4.022   6.303
25439SOL    HW178149   2.497   4.062   6.335
25439SOL    HW278150   2.445   3.956   6.240
25440SOL     OW78151   8.464   3.442   6.692
25440SOL    HW178152   8.506   3.490   6.763
25440SOL    HW278153   8.460   3.504   6.619
25441SOL     OW78154   5.215   8.597   3.618
25441SOL    HW178155   5.242   8.656   3.688
25441SOL    HW278156   5.296   8.559   3.585
25442SOL     OW78157   2.457   2.964  14.029
25442SOL    HW178158   2.496   3.045  13.996
25442SOL    HW278159   2.363   2.977  14.017
25443SOL     OW78160   5.475   6.746   9.618
25443SOL    HW178161   5.392   6.789   9.641
25443SOL    HW278162   5.541   6.813   9.633
25444SOL     OW78163  12.997  12.775   5.776
25444SOL    HW178164  12.914  12.823   5.781
25444SOL    HW278165  12.979  12.703   5.716
25445SOL     OW78166   9.004   6.222  13.924
25445SOL    HW178167   9.099   6.223  13.912
25445SOL    HW278168   8.971   6.281  13.856
25446SOL     OW78169   8.736   3.600   0.295
25446SOL    HW178170   8.761   3.682   0.338
25446SOL    HW278171   8.721   3.539   0.367
25447SOL     OW78172  12.821   8.839   1.223
25447SOL    HW178173  12.781   8.901   1.284
25447SOL    HW278174  12.854   8.894   1.152
25448SOL     OW78175  13.887   0.917   1.018
25448SOL    HW178176  13.937   0.891   0.940
25448SOL    HW278177  13.803   0.948   0.983
25449SOL     OW78178   7.810   6.401   3.046
25449SOL    HW178179   7.838   6.316   3.081
25449SOL    HW278180   7.715   6.397   3.046
25450SOL     OW78181   3.151   5.512   9.689
25450SOL    HW178182   3.183   5.564   9.615
25450SOL    HW278183   3.223   5.454   9.711
25451SOL     OW78184   2.207   2.292   3.688
25451SOL    HW178185   2.285   2.341   3.661
25451SOL    HW278186   2.134   2.344   3.655
25452SOL     OW78187  13.361  10.345   1.765
25452SOL    HW178188  13.314  10.416   1.721
25452SOL    HW278189  13.325  10.265   1.727
25453SOL     OW78190  14.434   8.940   2.836
25453SOL    HW178191  14.479   8.874   2.889
25453SOL    HW278192  14.502   9.006   2.818
25454SOL     OW78193   4.630   7.592  14.271
25454SOL    HW178194   4.551   7.576  14.219
25454SOL    HW278195   4.664   7.504  14.289
25455SOL     OW78196   8.640   6.013   0.458
25455SOL    HW178197   8.730   6.036   0.434
25455SOL    HW278198   8.632   6.040   0.549
25456SOL     OW78199   5.035   6.359  14.862
25456SOL    HW178200   5.031   6.449   0.018
25456SOL    HW278201   5.129   6.343  14.849
25457SOL     OW78202  14.744   3.454   1.025
25457SOL    HW178203  14.713   3.376   0.978
25457SOL    HW278204  14.681   3.523   1.000
25458SOL     OW78205   6.353  13.166   2.336
25458SOL    HW178206   6.379  13.255   2.313
25458SOL    HW278207   6.433  13.114   2.326
25459SOL     OW78208  11.413  12.613   6.773
25459SOL    HW178209  11.434  12.694   6.820
25459SOL    HW278210  11.335  12.580   6.817
25460SOL     OW78211   0.594  10.235  13.688
25460SOL    HW178212   0.503  10.257  13.710
25460SOL    HW278213   0.630  10.316  13.651
25461SOL     OW78214   5.815   2.498   8.509
25461SOL    HW178215   5.750   2.546   8.560
25461SOL    HW278216   5.767   2.426   8.469
25462SOL     OW78217  11.104   9.719   8.905
25462SOL    HW178218  11.014   9.744   8.922
25462SOL    HW278219  11.112   9.719   8.810
25463SOL     OW78220  14.634  10.593   1.208
25463SOL    HW178221  14.704  10.658   1.217
25463SOL    HW278222  14.557  10.636   1.245
25464SOL     OW78223   1.506  12.664  11.191
25464SOL    HW178224   1.501  12.753  11.157
25464SOL    HW278225   1.415  12.639  11.206
25465SOL     OW78226  12.729   9.518   0.243
25465SOL    HW178227  12.728   9.487   0.334
25465SOL    HW278228  12.807   9.477   0.205
25466SOL     OW78229   7.436   2.162   2.385
25466SOL    HW178230   7.431   2.252   2.351
25466SOL    HW278231   7.445   2.108   2.306
25467SOL     OW78232  10.433   1.845  13.679
25467SOL    HW178233  10.523   1.814  13.664
25467SOL    HW278234  10.381   1.765  13.688
25468SOL     OW78235   8.192  14.555   5.738
25468SOL    HW178236   8.286  14.546   5.753
25468SOL    HW278237   8.185  14.591   5.650
25469SOL     OW78238  13.750  13.855   9.585
25469SOL    HW178239  13.773  13.903   9.664
25469SOL    HW278240  13.676  13.800   9.610
25470SOL     OW78241  14.771   8.067   1.680
25470SOL    HW178242  14.781   8.158   1.654
25470SOL    HW278243  14.800   8.016   1.604
25471SOL     OW78244   1.312   6.606   2.420
25471SOL    HW178245   1.344   6.678   2.366
25471SOL    HW278246   1.222   6.632   2.444
25472SOL     OW78247   4.966  13.106   1.199
25472SOL    HW178248   5.001  13.064   1.278
25472SOL    HW278249   4.983  13.199   1.212
25473SOL     OW78250   2.906   7.360  14.760
25473SOL    HW178251   2.827   7.316  14.790
25473SOL    HW278252   2.978   7.303  14.789
25474SOL     OW78253   5.410   0.218   3.561
25474SOL    HW178254   5.402   0.313   3.569
25474SOL    HW278255   5.428   0.188   3.649
25475SOL     OW78256  12.929   8.493   8.757
25475SOL    HW178257  12.998   8.527   8.813
25475SOL    HW278258  12.852   8.545   8.780
25476SOL     OW78259   0.865   0.758   4.987
25476SOL    HW178260   0.952   0.790   4.964
25476SOL    HW278261   0.855   0.676   4.938
25477SOL     OW78262   6.767   2.138   9.100
25477SOL    HW178263   6.749   2.231   9.095
25477SOL    HW278264   6.712   2.106   9.172
25478SOL     OW78265   4.165  12.978   1.838
25478SOL    HW178266   4.150  13.058   1.787
25478SOL    HW278267   4.088  12.972   1.895
25479SOL     OW78268   0.987   4.556  14.346
25479SOL    HW178269   1.041   4.593  14.415
25479SOL    HW278270   0.972   4.465  14.372
25480SOL     OW78271  13.374  12.138   2.792
25480SOL    HW178272  13.320  12.074   2.746
25480SOL    HW278273  13.463  12.122   2.760
25481SOL     OW78274   4.962   7.851   0.115
25481SOL    HW178275   4.970   7.756   0.126
25481SOL    HW278276   4.896   7.876   0.179
25482SOL     OW78277   9.555   7.530   2.589
25482SOL    HW178278   9.511   7.602   2.545
25482SOL    HW278279   9.526   7.537   2.680
25483SOL     OW78280  11.886   5.468  10.059
25483SOL    HW178281  11.808   5.503  10.015
25483SOL    HW278282  11.852   5.421  10.135
25484SOL     OW78283  11.408   5.513   9.538
25484SOL    HW178284  11.341   5.572   9.574
25484SOL    HW278285  11.374   5.487   9.453
25485SOL     OW78286   5.432   6.973   8.610
25485SOL    HW178287   5.473   7.025   8.679
25485SOL    HW278288   5.468   7.009   8.528
25486SOL     OW78289  12.471   9.019  10.392
25486SOL    HW178290  12.379   9.036  10.376
25486SOL    HW278291  12.494   8.949  10.332
25487SOL     OW78292   0.766  12.410  13.202
25487SOL    HW178293   0.828  12.461  13.254
25487SOL    HW278294   0.785  12.319  13.226
25488SOL     OW78295   1.929   6.407  12.785
25488SOL    HW178296   1.961   6.473  12.723
25488SOL    HW278297   1.839   6.389  12.756
25489SOL     OW78298   5.891   1.168   2.447
25489SOL    HW178299   5.986   1.177   2.439
25489SOL    HW278300   5.859   1.166   2.357
25490SOL     OW78301  14.644   2.654  14.398
25490SOL    HW178302  14.659   2.575  14.451
25490SOL    HW278303  14.720   2.709  14.416
25491SOL     OW78304   8.608  10.840   2.550
25491SOL    HW178305   8.652  10.763   2.584
25491SOL    HW278306   8.575  10.885   2.627
25492SOL     OW78307  13.234  11.743   5.115
25492SOL    HW178308  13.212  11.721   5.025
25492SOL    HW278309  13.299  11.678   5.141
25493SOL     OW78310   2.426  13.578   2.090
25493SOL    HW178311   2.513  13.609   2.116
25493SOL    HW278312   2.417  13.493   2.133
25494SOL     OW78313   4.564  12.438  13.043
25494SOL    HW178314   4.659  12.443  13.026
25494SOL    HW278315   4.554  12.359  13.095
25495SOL     OW78316   5.255   2.353   1.013
25495SOL    HW178317   5.320   2.283   1.008
25495SOL    HW278318   5.299   2.430   0.977
25496SOL     OW78319   2.132   5.861   3.073
25496SOL    HW178320   2.040   5.888   3.067
25496SOL    HW278321   2.179   5.941   3.095
25497SOL     OW78322  12.188  10.593   5.547
25497SOL    HW178323  12.170  10.686   5.564
25497SOL    HW278324  12.125  10.547   5.602
25498SOL     OW78325  13.140  10.610   9.831
25498SOL    HW178326  13.105  10.683   9.780
25498SOL    HW278327  13.226  10.641   9.862
25499SOL     OW78328  10.295   2.333  10.828
25499SOL    HW178329  10.371   2.278  10.849
25499SOL    HW278330  10.242   2.333  10.908
25500SOL     OW78331   0.022   7.706   4.210
25500SOL    HW178332   0.090   7.639   4.220
25500SOL    HW278333   0.034   7.764   4.285
25501SOL     OW78334   6.595   9.952   8.216
25501SOL    HW178335   6.673   9.910   8.253
25501SOL    HW278336   6.594  10.039   8.256
25502SOL     OW78337  14.531  13.110   2.079
25502SOL    HW178338  14.583  13.032   2.098
25502SOL    HW278339  14.538  13.120   1.984
25503SOL     OW78340   4.564  10.724   8.918
25503SOL    HW178341   4.571  10.769   8.834
25503SOL    HW278342   4.543  10.795   8.980
25504SOL     OW78343   9.470   4.275   6.743
25504SOL    HW178344   9.450   4.354   6.794
25504SOL    HW278345   9.390   4.259   6.693
25505SOL     OW78346  11.679   0.200  10.347
25505SOL    HW178347  11.604   0.176  10.293
25505SOL    HW278348  11.664   0.155  10.430
25506SOL     OW78349  11.068   6.069   6.790
25506SOL    HW178350  11.033   5.984   6.819
25506SOL    HW278351  11.150   6.047   6.745
25507SOL     OW78352   3.178  11.329   3.470
25507SOL    HW178353   3.215  11.305   3.385
25507SOL    HW278354   3.232  11.282   3.533
25508SOL     OW78355   8.635   7.475   2.196
25508SOL    HW178356   8.714   7.423   2.198
25508SOL    HW278357   8.630   7.515   2.283
25509SOL     OW78358   3.865   1.668  11.288
25509SOL    HW178359   3.895   1.580  11.312
25509SOL    HW278360   3.794   1.686  11.350
25510SOL     OW78361   4.783  14.389   4.968
25510SOL    HW178362   4.794  14.306   4.921
25510SOL    HW278363   4.692  14.414   4.950
25511SOL     OW78364  10.872   6.502  13.598
25511SOL    HW178365  10.835   6.433  13.543
25511SOL    HW278366  10.856   6.582  13.548
25512SOL     OW78367  12.335   2.817   4.746
25512SOL    HW178368  12.277   2.741   4.744
25512SOL    HW278369  12.391   2.807   4.669
25513SOL     OW78370  10.116  11.744  14.338
25513SOL    HW178371  10.044  11.682  14.349
25513SOL    HW278372  10.108  11.775  14.248
25514SOL     OW78373   6.329   5.856   3.592
25514SOL    HW178374   6.359   5.869   3.502
25514SOL    HW278375   6.244   5.898   3.595
25515SOL     OW78376   6.226  14.213  10.086
25515SOL    HW178377   6.253  14.155  10.157
25515SOL    HW278378   6.188  14.155  10.020
25516SOL     OW78379   8.238   8.485   8.722
25516SOL    HW178380   8.163   8.479   8.662
25516SOL    HW278381   8.231   8.407   8.776
25517SOL     OW78382   8.081  14.627   5.968
25517SOL    HW178383   8.002  14.675   5.946
25517SOL    HW278384   8.126  14.615   5.885
25518SOL     OW78385   6.975  12.908  12.308
25518SOL    HW178386   6.922  12.987  12.314
25518SOL    HW278387   6.955  12.872  12.222
25519SOL     OW78388   3.250   0.822   7.231
25519SOL    HW178389   3.239   0.766   7.154
25519SOL    HW278390   3.180   0.886   7.224
25520SOL     OW78391  13.214   7.229   1.183
25520SOL    HW178392  13.134   7.278   1.165
25520SOL    HW278393  13.246   7.201   1.097
25521SOL     OW78394   9.050   7.730  11.159
25521SOL    HW178395   9.036   7.770  11.073
25521SOL    HW278396   9.134   7.765  11.189
25522SOL     OW78397   7.533  10.889   5.190
25522SOL    HW178398   7.625  10.864   5.178
25522SOL    HW278399   7.506  10.843   5.269
25523SOL     OW78400  10.358   4.346   6.271
25523SOL    HW178401  10.321   4.433   6.289
25523SOL    HW278402  10.291   4.303   6.218
25524SOL     OW78403   6.172  11.364   7.368
25524SOL    HW178404   6.169  11.298   7.299
25524SOL    HW278405   6.169  11.448   7.322
25525SOL     OW78406  11.675   8.876  14.097
25525SOL    HW178407  11.768   8.884  14.115
25525SOL    HW278408  11.633   8.885  14.183
25526SOL     OW78409  14.748   2.182  10.467
25526SOL    HW178410  14.808   2.120  10.425
25526SOL    HW278411  14.748   2.258  10.410
25527SOL     OW78412   0.408   9.036   4.670
25527SOL    HW178413   0.435   9.126   4.656
25527SOL    HW278414   0.438   9.016   4.759
25528SOL     OW78415   4.743   1.519  10.276
25528SOL    HW178416   4.679   1.460  10.316
25528SOL    HW278417   4.699   1.553  10.198
25529SOL     OW78418   8.088   0.981  11.495
25529SOL    HW178419   8.091   1.068  11.455
25529SOL    HW278420   8.005   0.980  11.543
25530SOL     OW78421   5.088  11.788   6.005
25530SOL    HW178422   5.073  11.811   6.097
25530SOL    HW278423   5.038  11.708   5.992
25531SOL     OW78424  14.156   7.598   4.289
25531SOL    HW178425  14.137   7.516   4.243
25531SOL    HW278426  14.194   7.656   4.223
25532SOL     OW78427   5.685   5.812   8.422
25532SOL    HW178428   5.741   5.845   8.351
25532SOL    HW278429   5.743   5.811   8.499
25533SOL     OW78430   9.208   1.838   8.209
25533SOL    HW178431   9.132   1.814   8.262
25533SOL    HW278432   9.283   1.808   8.260
25534SOL     OW78433   4.301   3.792   3.775
25534SOL    HW178434   4.239   3.856   3.809
25534SOL    HW278435   4.373   3.845   3.741
25535SOL     OW78436   3.129   8.148  13.706
25535SOL    HW178437   3.101   8.056  13.703
25535SOL    HW278438   3.085   8.184  13.784
25536SOL     OW78439  14.840   1.310  11.330
25536SOL    HW178440   0.037   1.289  11.389
25536SOL    HW278441  14.874   1.379  11.274
25537SOL     OW78442   5.178  12.038   5.604
25537SOL    HW178443   5.098  11.992   5.631
25537SOL    HW278444   5.249  11.986   5.641
25538SOL     OW78445  12.046   8.168  11.226
25538SOL    HW178446  12.048   8.079  11.260
25538SOL    HW278447  12.114   8.170  11.158
25539SOL     OW78448   3.905   1.959   9.639
25539SOL    HW178449   3.930   2.039   9.592
25539SOL    HW278450   3.970   1.894   9.613
25540SOL     OW78451  10.298   7.046  13.751
25540SOL    HW178452  10.280   7.015  13.840
25540SOL    HW278453  10.286   7.141  13.755
25541SOL     OW78454   0.157   2.136  14.690
25541SOL    HW178455   0.108   2.209  14.729
25541SOL    HW278456   0.093   2.065  14.684
25542SOL     OW78457   1.456   7.529  14.040
25542SOL    HW178458   1.414   7.446  14.016
25542SOL    HW278459   1.450   7.532  14.136
25543SOL     OW78460   1.235  13.163   4.792
25543SOL    HW178461   1.149  13.131   4.819
25543SOL    HW278462   1.232  13.159   4.697
25544SOL     OW78463   3.513  11.832   6.609
25544SOL    HW178464   3.459  11.886   6.666
25544SOL    HW278465   3.602  11.863   6.623
25545SOL     OW78466  14.510   6.430   0.410
25545SOL    HW178467  14.449   6.360   0.386
25545SOL    HW278468  14.593   6.403   0.371
25546SOL     OW78469  11.840   7.017   3.262
25546SOL    HW178470  11.772   7.006   3.196
25546SOL    HW278471  11.839   6.936   3.313
25547SOL     OW78472   3.144   6.435   7.886
25547SOL    HW178473   3.139   6.384   7.804
25547SOL    HW278474   3.129   6.370   7.955
25548SOL     OW78475  13.695   5.986   3.157
25548SOL    HW178476  13.691   5.897   3.193
25548SOL    HW278477  13.759   5.980   3.086
25549SOL     OW78478   7.961   5.966  14.831
25549SOL    HW178479   7.972   5.871  14.838
25549SOL    HW278480   7.896   5.979  14.762
25550SOL     OW78481   8.278   1.863  13.194
25550SOL    HW178482   8.325   1.785  13.225
25550SOL    HW278483   8.246   1.838  13.107
25551SOL     OW78484   4.010   3.257  10.195
25551SOL    HW178485   4.099   3.230  10.218
25551SOL    HW278486   3.954   3.206  10.253
25552SOL     OW78487   9.888   3.475   1.762
25552SOL    HW178488   9.919   3.559   1.794
25552SOL    HW278489   9.932   3.410   1.818
25553SOL     OW78490   6.613   5.684  11.806
25553SOL    HW178491   6.519   5.685  11.789
25553SOL    HW278492   6.648   5.621  11.744
25554SOL     OW78493  13.726   8.502  11.565
25554SOL    HW178494  13.791   8.571  11.548
25554SOL    HW278495  13.675   8.497  11.484
25555SOL     OW78496  12.945  14.874   8.530
25555SOL    HW178497  12.860  14.833   8.515
25555SOL    HW278498  12.924   0.090   8.548
25556SOL     OW78499   3.013  11.112  13.224
25556SOL    HW178500   2.948  11.109  13.293
25556SOL    HW278501   3.093  11.142  13.267
25557SOL     OW78502   6.194  14.729   3.248
25557SOL    HW178503   6.159  14.737   3.336
25557SOL    HW278504   6.186  14.636   3.227
25558SOL     OW78505   7.808   6.268   3.400
25558SOL    HW178506   7.854   6.318   3.466
25558SOL    HW278507   7.719   6.304   3.400
25559SOL     OW78508   6.834   3.186  11.148
25559SOL    HW178509   6.770   3.124  11.183
25559SOL    HW278510   6.796   3.272  11.166
25560SOL     OW78511   3.948  14.121   3.421
25560SOL    HW178512   3.886  14.053   3.398
25560SOL    HW278513   3.980  14.097   3.508
25561SOL     OW78514   3.840   2.619   0.245
25561SOL    HW178515   3.784   2.667   0.183
25561SOL    HW278516   3.854   2.681   0.317
25562SOL     OW78517   3.024   0.398  11.045
25562SOL    HW178518   3.014   0.434  10.957
25562SOL    HW278519   3.069   0.466  11.095
25563SOL     OW78520   8.278  13.827   8.151
25563SOL    HW178521   8.262  13.921   8.141
25563SOL    HW278522   8.359  13.811   8.102
25564SOL     OW78523   5.611  14.208  12.203
25564SOL    HW178524   5.668  14.207  12.280
25564SOL    HW278525   5.529  14.171  12.235
25565SOL     OW78526  14.778   0.412  14.629
25565SOL    HW178527  14.763   0.362  14.710
25565SOL    HW278528  14.778   0.503  14.657
25566SOL     OW78529   9.851  14.064   8.663
25566SOL    HW178530   9.826  14.156   8.668
25566SOL    HW278531   9.770  14.016   8.683
25567SOL     OW78532   2.829   4.906  11.616
25567SOL    HW178533   2.918   4.934  11.595
25567SOL    HW278534   2.815   4.829  11.560
25568SOL     OW78535  11.183   8.558  11.785
25568SOL    HW178536  11.271   8.597  11.785
25568SOL    HW278537  11.140   8.596  11.708
25569SOL     OW78538  10.037   7.269   8.701
25569SOL    HW178539  10.126   7.238   8.684
25569SOL    HW278540  10.007   7.216   8.775
25570SOL     OW78541   1.999   4.933   9.999
25570SOL    HW178542   2.083   4.939   9.954
25570SOL    HW278543   1.980   4.839  10.004
25571SOL     OW78544  10.687   9.785  11.394
25571SOL    HW178545  10.622   9.834  11.445
25571SOL    HW278546  10.771   9.824  11.419
25572SOL     OW78547   7.711  13.391   5.884
25572SOL    HW178548   7.616  13.382   5.892
25572SOL    HW278549   7.745  13.367   5.970
25573SOL     OW78550   2.072  12.793   5.902
25573SOL    HW178551   1.983  12.829   5.904
25573SOL    HW278552   2.060  12.701   5.879
25574SOL     OW78553  13.696   6.314   2.735
25574SOL    HW178554  13.669   6.223   2.728
25574SOL    HW278555  13.791   6.313   2.721
25575SOL     OW78556  10.126  10.244  13.297
25575SOL    HW178557  10.046  10.263  13.347
25575SOL    HW278558  10.188  10.312  13.324
25576SOL     OW78559   8.303  10.455  10.933
25576SOL    HW178560   8.370  10.502  10.884
25576SOL    HW278561   8.331  10.363  10.929
25577SOL     OW78562   9.943  13.312  13.348
25577SOL    HW178563   9.917  13.262  13.426
25577SOL    HW278564   9.984  13.391  13.383
25578SOL     OW78565  11.181   6.466   8.651
25578SOL    HW178566  11.096   6.443   8.687
25578SOL    HW278567  11.204   6.393   8.593
25579SOL     OW78568   4.164  13.174  10.821
25579SOL    HW178569   4.257  13.188  10.800
25579SOL    HW278570   4.120  13.250  10.783
25580SOL     OW78571   7.536  11.909   2.502
25580SOL    HW178572   7.569  11.823   2.477
25580SOL    HW278573   7.451  11.892   2.541
25581SOL     OW78574  10.024  12.197   7.467
25581SOL    HW178575   9.934  12.192   7.500
25581SOL    HW278576  10.031  12.125   7.404
25582SOL     OW78577   4.298   4.273   7.188
25582SOL    HW178578   4.350   4.199   7.159
25582SOL    HW278579   4.280   4.256   7.280
25583SOL     OW78580  12.054   5.683   4.362
25583SOL    HW178581  12.059   5.685   4.457
25583SOL    HW278582  12.083   5.770   4.335
25584SOL     OW78583   6.578   3.080  10.255
25584SOL    HW178584   6.572   3.132  10.335
25584SOL    HW278585   6.635   3.007  10.278
25585SOL     OW78586  10.744  12.843   5.266
25585SOL    HW178587  10.716  12.930   5.295
25585SOL    HW278588  10.791  12.859   5.184
25586SOL     OW78589   1.335   4.675   2.607
25586SOL    HW178590   1.398   4.621   2.655
25586SOL    HW278591   1.388   4.719   2.540
25587SOL     OW78592  12.949   8.369   1.152
25587SOL    HW178593  12.864   8.391   1.189
25587SOL    HW278594  12.929   8.311   1.079
25588SOL     OW78595  14.645  14.294  14.428
25588SOL    HW178596  14.636  14.383  14.395
25588SOL    HW278597  14.676  14.243  14.352
25589SOL     OW78598   5.444   9.947   2.268
25589SOL    HW178599   5.353   9.926   2.291
25589SOL    HW278600   5.483   9.862   2.248
25590SOL     OW78601   5.569  13.989   3.976
25590SOL    HW178602   5.540  14.075   4.007
25590SOL    HW278603   5.607  13.947   4.053
25591SOL     OW78604  14.251   3.537   2.041
25591SOL    HW178605  14.285   3.613   2.088
25591SOL    HW278606  14.213   3.573   1.961
25592SOL     OW78607   5.618   1.677   4.526
25592SOL    HW178608   5.619   1.592   4.482
25592SOL    HW278609   5.593   1.739   4.457
25593SOL     OW78610   9.793   1.047  13.357
25593SOL    HW178611   9.758   1.134  13.376
25593SOL    HW278612   9.716   0.990  13.351
25594SOL     OW78613  13.595   1.365   5.790
25594SOL    HW178614  13.665   1.313   5.749
25594SOL    HW278615  13.601   1.343   5.883
25595SOL     OW78616  13.700  14.591   5.312
25595SOL    HW178617  13.664  14.679   5.306
25595SOL    HW278618  13.707  14.575   5.406
25596SOL     OW78619  11.338   6.787   4.967
25596SOL    HW178620  11.288   6.810   4.889
25596SOL    HW278621  11.415   6.741   4.933
25597SOL     OW78622   9.816   1.739   0.812
25597SOL    HW178623   9.758   1.662   0.816
25597SOL    HW278624   9.838   1.747   0.719
25598SOL     OW78625   2.383   6.502  12.794
25598SOL    HW178626   2.456   6.456  12.752
25598SOL    HW278627   2.337   6.546  12.722
25599SOL     OW78628  13.438  12.077   1.762
25599SOL    HW178629  13.431  12.032   1.677
25599SOL    HW278630  13.458  12.168   1.739
25600SOL     OW78631  13.815  10.140   3.415
25600SOL    HW178632  13.834  10.059   3.367
25600SOL    HW278633  13.778  10.110   3.498
25601SOL     OW78634   0.064   3.095  12.776
25601SOL    HW178635  14.851   3.114  12.806
25601SOL    HW278636   0.120   3.143  12.837
25602SOL     OW78637   0.775  11.797  11.151
25602SOL    HW178638   0.797  11.728  11.088
25602SOL    HW278639   0.797  11.879  11.106
25603SOL     OW78640  14.087   1.275   1.701
25603SOL    HW178641  14.133   1.192   1.686
25603SOL    HW278642  14.033   1.287   1.623
25604SOL     OW78643   8.514   1.660  11.790
25604SOL    HW178644   8.541   1.685  11.878
25604SOL    HW278645   8.435   1.712  11.773
25605SOL     OW78646  14.837  11.351   7.341
25605SOL    HW178647   0.040  11.299   7.351
25605SOL    HW278648  14.788  11.336   7.422
25606SOL     OW78649  14.762  11.453   7.880
25606SOL    HW178650  14.802  11.366   7.869
25606SOL    HW278651  14.672  11.442   7.848
25607SOL     OW78652   7.563   0.025   8.344
25607SOL    HW178653   7.626  14.833   8.371
25607SOL    HW278654   7.616   0.088   8.295
25608SOL     OW78655  13.013  10.845  12.232
25608SOL    HW178656  12.977  10.760  12.207
25608SOL    HW278657  13.108  10.831  12.238
25609SOL     OW78658   2.390   4.099   0.599
25609SOL    HW178659   2.460   4.063   0.654
25609SOL    HW278660   2.432   4.115   0.515
25610SOL     OW78661  11.689   7.934  14.594
25610SOL    HW178662  11.760   7.937  14.659
25610SOL    HW278663  11.616   7.894  14.641
25611SOL     OW78664   6.273   5.389   0.483
25611SOL    HW178665   6.346   5.447   0.504
25611SOL    HW278666   6.242   5.419   0.397
25612SOL     OW78667   0.085   6.082   3.370
25612SOL    HW178668   0.074   6.047   3.458
25612SOL    HW278669   0.120   6.008   3.319
25613SOL     OW78670   7.837   2.488  12.341
25613SOL    HW178671   7.791   2.571  12.335
25613SOL    HW278672   7.795   2.443  12.415
25614SOL     OW78673   6.750  11.160   1.180
25614SOL    HW178674   6.789  11.233   1.134
25614SOL    HW278675   6.764  11.179   1.273
25615SOL     OW78676  11.088   3.844  13.873
25615SOL    HW178677  11.061   3.774  13.813
25615SOL    HW278678  11.157   3.805  13.926
25616SOL     OW78679  13.134  10.886  10.127
25616SOL    HW178680  13.163  10.909  10.039
25616SOL    HW278681  13.076  10.810  10.114
25617SOL     OW78682  12.416   4.892   4.458
25617SOL    HW178683  12.324   4.917   4.459
25617SOL    HW278684  12.431   4.858   4.370
25618SOL     OW78685   7.111   2.989   5.196
25618SOL    HW178686   7.078   2.929   5.129
25618SOL    HW278687   7.051   2.978   5.269
25619SOL     OW78688   3.187   8.579   1.384
25619SOL    HW178689   3.093   8.564   1.398
25619SOL    HW278690   3.200   8.672   1.401
25620SOL     OW78691  11.373   7.794   6.070
25620SOL    HW178692  11.427   7.846   6.130
25620SOL    HW278693  11.298   7.767   6.122
25621SOL     OW78694   5.404   3.766  10.824
25621SOL    HW178695   5.474   3.702  10.813
25621SOL    HW278696   5.357   3.766  10.741
25622SOL     OW78697   4.540   4.207  11.465
25622SOL    HW178698   4.598   4.225  11.540
25622SOL    HW278699   4.492   4.289  11.452
25623SOL     OW78700  13.011  14.479   2.436
25623SOL    HW178701  13.014  14.523   2.521
25623SOL    HW278702  12.947  14.409   2.448
25624SOL     OW78703   0.551   1.700   8.498
25624SOL    HW178704   0.615   1.770   8.490
25624SOL    HW278705   0.466   1.745   8.500
25625SOL     OW78706   3.182   2.503   7.775
25625SOL    HW178707   3.260   2.450   7.790
25625SOL    HW278708   3.153   2.530   7.862
25626SOL     OW78709   9.656   9.895  12.745
25626SOL    HW178710   9.574   9.932  12.778
25626SOL    HW278711   9.720   9.911  12.815
25627SOL     OW78712   9.902   6.023  14.204
25627SOL    HW178713   9.909   5.945  14.150
25627SOL    HW278714   9.818   6.014  14.249
25628SOL     OW78715   5.298   4.166   8.360
25628SOL    HW178716   5.365   4.165   8.291
25628SOL    HW278717   5.216   4.152   8.313
25629SOL     OW78718  11.349   5.906   6.666
25629SOL    HW178719  11.333   5.980   6.607
25629SOL    HW278720  11.444   5.903   6.676
25630SOL     OW78721   3.471   4.524   5.446
25630SOL    HW178722   3.547   4.469   5.464
25630SOL    HW278723   3.507   4.612   5.434
25631SOL     OW78724   2.898   8.249   1.325
25631SOL    HW178725   2.892   8.245   1.230
25631SOL    HW278726   2.992   8.251   1.343
25632SOL     OW78727   9.577   3.991   6.023
25632SOL    HW178728   9.508   4.052   6.047
25632SOL    HW278729   9.572   3.986   5.927
25633SOL     OW78730   9.699   5.454   7.816
25633SOL    HW178731   9.633   5.420   7.876
25633SOL    HW278732   9.649   5.506   7.752
25634SOL     OW78733   5.566   9.207   4.799
25634SOL    HW178734   5.487   9.200   4.852
25634SOL    HW278735   5.546   9.159   4.718
25635SOL     OW78736   5.226   5.866   0.114
25635SOL    HW178737   5.219   5.900   0.203
25635SOL    HW278738   5.184   5.780   0.117
25636SOL     OW78739   0.258   9.377   3.141
25636SOL    HW178740   0.195   9.353   3.209
25636SOL    HW278741   0.338   9.398   3.190
25637SOL     OW78742  13.581   1.470   4.745
25637SOL    HW178743  13.511   1.405   4.754
25637SOL    HW278744  13.641   1.432   4.680
25638SOL     OW78745  13.530   3.688   0.396
25638SOL    HW178746  13.612   3.737   0.406
25638SOL    HW278747  13.478   3.741   0.336
25639SOL     OW78748  13.211  10.706   2.163
25639SOL    HW178749  13.190  10.771   2.097
25639SOL    HW278750  13.126  10.682   2.201
25640SOL     OW78751   1.890   5.066   1.046
25640SOL    HW178752   1.883   5.106   1.133
25640SOL    HW278753   1.973   5.019   1.048
25641SOL     OW78754   8.928   7.533   9.329
25641SOL    HW178755   8.990   7.508   9.260
25641SOL    HW278756   8.861   7.583   9.284
25642SOL     OW78757   4.049  13.126  12.519
25642SOL    HW178758   4.068  13.154  12.608
25642SOL    HW278759   4.028  13.033  12.527
25643SOL     OW78760   8.994  12.695  13.804
25643SOL    HW178761   8.983  12.699  13.709
25643SOL    HW278762   8.998  12.602  13.824
25644SOL     OW78763   9.258   3.022   6.585
25644SOL    HW178764   9.334   3.005   6.641
25644SOL    HW278765   9.293   3.073   6.511
25645SOL     OW78766  10.367   0.708   3.674
25645SOL    HW178767  10.322   0.781   3.631
25645SOL    HW278768  10.325   0.701   3.760
25646SOL     OW78769   4.568  12.876  11.580
25646SOL    HW178770   4.622  12.798  11.593
25646SOL    HW278771   4.497  12.867  11.645
25647SOL     OW78772   7.939   3.418   8.082
25647SOL    HW178773   8.003   3.488   8.069
25647SOL    HW278774   7.904   3.402   7.995
25648SOL     OW78775   5.426   2.886   2.996
25648SOL    HW178776   5.423   2.817   2.930
25648SOL    HW278777   5.515   2.921   2.991
25649SOL     OW78778  10.774   8.404   2.281
25649SOL    HW178779  10.862   8.438   2.269
25649SOL    HW278780  10.785   8.309   2.293
25650SOL     OW78781   1.053   3.123   1.887
25650SOL    HW178782   1.050   3.032   1.918
25650SOL    HW278783   0.990   3.169   1.942
25651SOL     OW78784   9.135   0.385  10.484
25651SOL    HW178785   9.208   0.433  10.523
25651SOL    HW278786   9.057   0.432  10.513
25652SOL     OW78787   7.639  10.267  13.093
25652SOL    HW178788   7.712  10.266  13.155
25652SOL    HW278789   7.645  10.353  13.051
25653SOL     OW78790   4.104   2.605   4.506
25653SOL    HW178791   4.126   2.681   4.559
25653SOL    HW278792   4.081   2.641   4.420
25654SOL     OW78793   2.841   3.313   1.439
25654SOL    HW178794   2.917   3.370   1.447
25654SOL    HW278795   2.805   3.333   1.353
25655SOL     OW78796  12.075   5.799  10.290
25655SOL    HW178797  12.152   5.798  10.232
25655SOL    HW278798  12.022   5.872  10.257
25656SOL     OW78799  11.381   7.151   3.524
25656SOL    HW178800  11.372   7.245   3.537
25656SOL    HW278801  11.476   7.136   3.524
25657SOL     OW78802   8.507   1.033  13.766
25657SOL    HW178803   8.474   1.107  13.818
25657SOL    HW278804   8.578   0.997  13.819
25658SOL     OW78805   8.562   1.793  11.484
25658SOL    HW178806   8.617   1.719  11.508
25658SOL    HW278807   8.602   1.867  11.530
25659SOL     OW78808   8.412   2.270   6.406
25659SOL    HW178809   8.474   2.324   6.357
25659SOL    HW278810   8.463   2.238   6.481
25660SOL     OW78811  11.995   2.341   5.204
25660SOL    HW178812  11.911   2.375   5.235
25660SOL    HW278813  12.058   2.409   5.229
25661SOL     OW78814   5.695   2.347   8.923
25661SOL    HW178815   5.774   2.388   8.958
25661SOL    HW278816   5.718   2.254   8.915
25662SOL     OW78817   2.782   2.571   5.138
25662SOL    HW178818   2.740   2.485   5.138
25662SOL    HW278819   2.773   2.602   5.228
25663SOL     OW78820   2.274   9.940   7.525
25663SOL    HW178821   2.239   9.934   7.437
25663SOL    HW278822   2.280  10.034   7.542
25664SOL     OW78823   3.302   3.462  13.930
25664SOL    HW178824   3.361   3.388  13.918
25664SOL    HW278825   3.357   3.529  13.972
25665SOL     OW78826   8.294   7.752   9.724
25665SOL    HW178827   8.297   7.695   9.646
25665SOL    HW278828   8.346   7.828   9.699
25666SOL     OW78829  11.205   3.612  13.099
25666SOL    HW178830  11.294   3.604  13.132
25666SOL    HW278831  11.164   3.677  13.156
25667SOL     OW78832   4.438   2.620   6.750
25667SOL    HW178833   4.488   2.585   6.676
25667SOL    HW278834   4.358   2.655   6.711
25668SOL     OW78835   8.393   1.005   5.007
25668SOL    HW178836   8.425   0.932   4.954
25668SOL    HW278837   8.352   0.963   5.083
25669SOL     OW78838   8.681   1.369   7.235
25669SOL    HW178839   8.588   1.357   7.214
25669SOL    HW278840   8.727   1.330   7.160
25670SOL     OW78841  12.475   5.586   5.540
25670SOL    HW178842  12.521   5.658   5.584
25670SOL    HW278843  12.428   5.541   5.611
25671SOL     OW78844   3.648   2.532   6.877
25671SOL    HW178845   3.590   2.500   6.946
25671SOL    HW278846   3.734   2.497   6.900
25672SOL     OW78847   2.320   4.097  13.158
25672SOL    HW178848   2.282   4.049  13.083
25672SOL    HW278849   2.349   4.180  13.121
25673SOL     OW78850   8.625  14.172   8.942
25673SOL    HW178851   8.626  14.167   9.038
25673SOL    HW278852   8.588  14.089   8.914
25674SOL     OW78853  14.008  10.493   8.412
25674SOL    HW178854  13.969  10.513   8.497
25674SOL    HW278855  13.944  10.524   8.348
25675SOL     OW78856   5.349   0.543   2.072
25675SOL    HW178857   5.318   0.462   2.032
25675SOL    HW278858   5.271   0.581   2.113
25676SOL     OW78859   4.910  14.791  11.870
25676SOL    HW178860   4.883  14.793  11.778
25676SOL    HW278861   4.853  14.855  11.913
25677SOL     OW78862   1.862   4.163   0.691
25677SOL    HW178863   1.956   4.178   0.700
25677SOL    HW278864   1.841   4.097   0.757
25678SOL     OW78865  10.146   9.646   6.964
25678SOL    HW178866  10.124   9.633   7.056
25678SOL    HW278867  10.221   9.706   6.965
25679SOL     OW78868   7.668   0.287   9.662
25679SOL    HW178869   7.755   0.303   9.700
25679SOL    HW278870   7.685   0.229   9.588
25680SOL     OW78871   8.431   8.651   9.518
25680SOL    HW178872   8.346   8.606   9.517
25680SOL    HW278873   8.454   8.662   9.426
25681SOL     OW78874   9.461  12.283   0.572
25681SOL    HW178875   9.509  12.314   0.649
25681SOL    HW278876   9.370  12.276   0.602
25682SOL     OW78877  14.725   5.825   4.318
25682SOL    HW178878  14.662   5.753   4.321
25682SOL    HW278879  14.694   5.881   4.247
25683SOL     OW78880  11.893  13.234   8.485
25683SOL    HW178881  11.878  13.281   8.403
25683SOL    HW278882  11.846  13.151   8.474
25684SOL     OW78883   4.437   3.629   7.546
25684SOL    HW178884   4.491   3.708   7.547
25684SOL    HW278885   4.374   3.643   7.617
25685SOL     OW78886   0.172   3.690   9.475
25685SOL    HW178887   0.194   3.755   9.408
25685SOL    HW278888   0.241   3.625   9.468
25686SOL     OW78889   6.969   4.034   0.522
25686SOL    HW178890   6.999   4.037   0.431
25686SOL    HW278891   7.038   4.078   0.571
25687SOL     OW78892   0.299  10.671  12.981
25687SOL    HW178893   0.329  10.702  13.066
25687SOL    HW278894   0.230  10.608  13.002
25688SOL     OW78895  10.242   4.126  12.215
25688SOL    HW178896  10.337   4.119  12.203
25688SOL    HW278897  10.210   4.037  12.199
25689SOL     OW78898  14.832  12.057   7.461
25689SOL    HW178899  14.793  11.985   7.511
25689SOL    HW278900  14.793  12.050   7.374
25690SOL     OW78901  14.421   1.778  12.227
25690SOL    HW178902  14.387   1.847  12.170
25690SOL    HW278903  14.476   1.825  12.290
25691SOL     OW78904  10.336   6.851  13.191
25691SOL    HW178905  10.262   6.828  13.134
25691SOL    HW278906  10.407   6.794  13.162
25692SOL     OW78907   3.484   8.752   5.509
25692SOL    HW178908   3.556   8.813   5.523
25692SOL    HW278909   3.512   8.698   5.435
25693SOL     OW78910   9.475   4.424   4.737
25693SOL    HW178911   9.498   4.353   4.677
25693SOL    HW278912   9.557   4.444   4.782
25694SOL     OW78913   3.252   1.377   8.378
25694SOL    HW178914   3.342   1.407   8.367
25694SOL    HW278915   3.215   1.437   8.443
25695SOL     OW78916  11.286   9.449   7.996
25695SOL    HW178917  11.299   9.354   7.989
25695SOL    HW278918  11.235   9.460   8.076
25696SOL     OW78919   6.145   4.944   3.238
25696SOL    HW178920   6.053   4.944   3.268
25696SOL    HW278921   6.190   4.998   3.302
25697SOL     OW78922  12.921  10.323   5.985
25697SOL    HW178923  12.966  10.328   6.069
25697SOL    HW278924  12.839  10.370   5.998
25698SOL     OW78925  14.598   7.227  11.241
25698SOL    HW178926  14.594   7.146  11.292
25698SOL    HW278927  14.555   7.205  11.158
25699SOL     OW78928   8.307  12.044   6.609
25699SOL    HW178929   8.330  12.134   6.634
25699SOL    HW278930   8.318  12.043   6.513
25700SOL     OW78931   0.985   7.799  11.512
25700SOL    HW178932   0.935   7.726  11.549
25700SOL    HW278933   0.926   7.839  11.449
25701SOL     OW78934  12.187   1.015   8.292
25701SOL    HW178935  12.254   0.954   8.261
25701SOL    HW278936  12.117   0.958   8.324
25702SOL     OW78937   9.143   4.535   9.796
25702SOL    HW178938   9.178   4.621   9.819
25702SOL    HW278939   9.216   4.488   9.757
25703SOL     OW78940   4.049   1.775   2.620
25703SOL    HW178941   4.095   1.856   2.599
25703SOL    HW278942   4.013   1.790   2.707
25704SOL     OW78943   8.696   7.348   9.226
25704SOL    HW178944   8.778   7.376   9.265
25704SOL    HW278945   8.668   7.273   9.278
25705SOL     OW78946  14.173   0.807   7.199
25705SOL    HW178947  14.082   0.781   7.211
25705SOL    HW278948  14.201   0.762   7.119
25706SOL     OW78949   5.738   8.881   1.119
25706SOL    HW178950   5.810   8.943   1.107
25706SOL    HW278951   5.703   8.901   1.206
25707SOL     OW78952   1.448   5.844   7.136
25707SOL    HW178953   1.519   5.809   7.082
25707SOL    HW278954   1.466   5.938   7.140
25708SOL     OW78955   0.800  13.417  10.762
25708SOL    HW178956   0.797  13.488  10.698
25708SOL    HW278957   0.718  13.371  10.751
25709SOL     OW78958   1.760   3.915   2.152
25709SOL    HW178959   1.850   3.939   2.176
25709SOL    HW278960   1.727   3.867   2.229
25710SOL     OW78961   1.010   4.561  10.443
25710SOL    HW178962   0.973   4.473  10.433
25710SOL    HW278963   0.935   4.617  10.463
25711SOL     OW78964   6.590   8.102   1.082
25711SOL    HW178965   6.572   8.029   1.140
25711SOL    HW278966   6.670   8.076   1.036
25712SOL     OW78967  10.193   2.389   2.326
25712SOL    HW178968  10.241   2.463   2.363
25712SOL    HW278969  10.246   2.313   2.349
25713SOL     OW78970  10.683   5.899  14.803
25713SOL    HW178971  10.773   5.884  14.776
25713SOL    HW278972  10.664   5.826  14.863
25714SOL     OW78973   6.408   3.235  13.336
25714SOL    HW178974   6.397   3.259  13.428
25714SOL    HW278975   6.361   3.151  13.328
25715SOL     OW78976   4.502  12.779   4.324
25715SOL    HW178977   4.453  12.760   4.404
25715SOL    HW278978   4.574  12.837   4.353
25716SOL     OW78979  10.260   5.021   4.448
25716SOL    HW178980  10.263   5.061   4.361
25716SOL    HW278981  10.175   5.046   4.483
25717SOL     OW78982   6.732   7.885  13.680
25717SOL    HW178983   6.658   7.943  13.664
25717SOL    HW278984   6.808   7.943  13.684
25718SOL     OW78985   5.441   1.845  10.439
25718SOL    HW178986   5.438   1.940  10.425
25718SOL    HW278987   5.521   1.831  10.489
25719SOL     OW78988   2.164   4.943  12.280
25719SOL    HW178989   2.234   4.885  12.308
25719SOL    HW278990   2.208   5.025  12.256
25720SOL     OW78991   0.070   1.423  14.261
25720SOL    HW178992  14.859   1.409  14.224
25720SOL    HW278993   0.090   1.515  14.243
25721SOL     OW78994   4.791   0.535  10.598
25721SOL    HW178995   4.814   0.512  10.688
25721SOL    HW278996   4.706   0.578  10.606
25722SOL     OW78997   9.850  12.149  13.470
25722SOL    HW178998   9.775  12.169  13.413
25722SOL    HW278999   9.821  12.073  13.521
25723SOL     OW79000   2.544  10.957   2.086
25723SOL    HW179001   2.600  11.030   2.059
25723SOL    HW279002   2.550  10.957   2.181
25724SOL     OW79003   7.149   5.115  11.906
25724SOL    HW179004   7.088   5.144  11.973
25724SOL    HW279005   7.121   5.025  11.886
25725SOL     OW79006  13.953  12.153   8.921
25725SOL    HW179007  14.044  12.151   8.950
25725SOL    HW279008  13.919  12.066   8.942
25726SOL     OW79009  11.560   0.906  13.465
25726SOL    HW179010  11.642   0.857  13.454
25726SOL    HW279011  11.588   0.997  13.470
25727SOL     OW79012   8.849   0.193   3.132
25727SOL    HW179013   8.769   0.235   3.165
25727SOL    HW279014   8.887   0.151   3.210
25728SOL     OW79015  14.007  14.772   6.810
25728SOL    HW179016  14.080  14.712   6.794
25728SOL    HW279017  14.011  14.834   6.737
25729SOL     OW79018  11.734   4.321  14.259
25729SOL    HW179019  11.698   4.372  14.187
25729SOL    HW279020  11.731   4.230  14.228
25730SOL     OW79021   3.793   9.547  10.957
25730SOL    HW179022   3.723   9.508  11.009
25730SOL    HW279023   3.860   9.572  11.020
25731SOL     OW79024  10.454   3.878   9.159
25731SOL    HW179025  10.393   3.948   9.179
25731SOL    HW279026  10.415   3.833   9.085
25732SOL     OW79027   1.159   9.288   0.628
25732SOL    HW179028   1.197   9.200   0.631
25732SOL    HW279029   1.077   9.277   0.580
25733SOL     OW79030  11.943   8.871   1.987
25733SOL    HW179031  11.866   8.924   1.966
25733SOL    HW279032  11.991   8.923   2.051
25734SOL     OW79033  13.167   2.158   1.528
25734SOL    HW179034  13.231   2.092   1.502
25734SOL    HW279035  13.175   2.162   1.624
25735SOL     OW79036   3.438  10.901   7.376
25735SOL    HW179037   3.520  10.947   7.356
25735SOL    HW279038   3.457  10.810   7.356
25736SOL     OW79039   4.561  12.581   2.814
25736SOL    HW179040   4.508  12.520   2.865
25736SOL    HW279041   4.646  12.538   2.806
25737SOL     OW79042   0.178   3.002   0.023
25737SOL    HW179043   0.229   3.080   0.047
25737SOL    HW279044   0.106   3.000   0.086
25738SOL     OW79045   9.877  10.096   2.259
25738SOL    HW179046   9.800  10.143   2.228
25738SOL    HW279047   9.892  10.027   2.194
25739SOL     OW79048   8.978   4.437   6.376
25739SOL    HW179049   9.074   4.439   6.378
25739SOL    HW279050   8.951   4.490   6.452
25740SOL     OW79051   3.429  11.353   6.657
25740SOL    HW179052   3.468  11.290   6.597
25740SOL    HW279053   3.349  11.382   6.613
25741SOL     OW79054  13.089   5.926   1.603
25741SOL    HW179055  13.119   5.875   1.679
25741SOL    HW279056  13.019   5.981   1.638
25742SOL     OW79057  10.584   7.306   6.820
25742SOL    HW179058  10.552   7.312   6.910
25742SOL    HW279059  10.627   7.391   6.805
25743SOL     OW79060   4.623   7.924   4.312
25743SOL    HW179061   4.553   7.986   4.290
25743SOL    HW279062   4.703   7.970   4.289
25744SOL     OW79063   8.720   5.227  10.278
25744SOL    HW179064   8.712   5.236  10.183
25744SOL    HW279065   8.775   5.301  10.304
25745SOL     OW79066   5.462   1.763  11.221
25745SOL    HW179067   5.429   1.719  11.143
25745SOL    HW279068   5.423   1.716  11.295
25746SOL     OW79069  13.047   4.576   7.011
25746SOL    HW179070  12.960   4.586   6.974
25746SOL    HW279071  13.068   4.662   7.048
25747SOL     OW79072   5.920   1.618   4.901
25747SOL    HW179073   5.978   1.562   4.953
25747SOL    HW279074   5.882   1.558   4.836
25748SOL     OW79075   9.964   9.123  10.065
25748SOL    HW179076   9.969   9.083   9.978
25748SOL    HW279077   9.976   9.050  10.126
25749SOL     OW79078   6.770   2.368   8.227
25749SOL    HW179079   6.737   2.282   8.251
25749SOL    HW279080   6.825   2.352   8.150
25750SOL     OW79081   1.705  10.649  14.311
25750SOL    HW179082   1.646  10.603  14.371
25750SOL    HW279083   1.749  10.579  14.262
25751SOL     OW79084   2.332  11.033  12.864
25751SOL    HW179085   2.338  11.115  12.816
25751SOL    HW279086   2.303  11.058  12.952
25752SOL     OW79087   2.111  14.575   7.018
25752SOL    HW179088   2.085  14.514   7.087
25752SOL    HW279089   2.202  14.553   6.999
25753SOL     OW79090   1.058   8.389   8.586
25753SOL    HW179091   1.047   8.462   8.648
25753SOL    HW279092   1.102   8.428   8.511
25754SOL     OW79093   7.178   9.325  11.240
25754SOL    HW179094   7.133   9.314  11.324
25754SOL    HW279095   7.261   9.279  11.251
25755SOL     OW79096   8.967  10.293  14.172
25755SOL    HW179097   9.030  10.260  14.109
25755SOL    HW279098   9.002  10.269  14.258
25756SOL     OW79099   2.508   6.285  13.674
25756SOL    HW179100   2.600   6.261  13.660
25756SOL    HW279101   2.465   6.263  13.592
25757SOL     OW79102   3.200  11.583  13.962
25757SOL    HW179103   3.231  11.524  13.894
25757SOL    HW279104   3.136  11.531  14.011
25758SOL     OW79105   9.094  11.124   4.787
25758SOL    HW179106   9.075  11.071   4.710
25758SOL    HW279107   9.029  11.194   4.785
25759SOL     OW79108   9.241   9.733   1.795
25759SOL    HW179109   9.232   9.703   1.705
25759SOL    HW279110   9.187   9.673   1.846
25760SOL     OW79111  12.866   7.463   1.014
25760SOL    HW179112  12.915   7.534   0.972
25760SOL    HW279113  12.841   7.405   0.942
25761SOL     OW79114  12.207  10.825   3.353
25761SOL    HW179115  12.269  10.897   3.361
25761SOL    HW279116  12.147  10.836   3.427
25762SOL     OW79117   2.520   6.531  14.837
25762SOL    HW179118   2.609   6.564  14.825
25762SOL    HW279119   2.482   6.588   0.028
25763SOL     OW79120  13.853   4.511  11.627
25763SOL    HW179121  13.947   4.494  11.618
25763SOL    HW279122  13.813   4.469  11.551
25764SOL     OW79123   9.433   8.682  13.071
25764SOL    HW179124   9.419   8.670  13.165
25764SOL    HW279125   9.516   8.638  13.053
25765SOL     OW79126   8.292   6.687   7.790
25765SOL    HW179127   8.378   6.700   7.829
25765SOL    HW279128   8.267   6.773   7.758
25766SOL     OW79129  12.864  11.866   9.721
25766SOL    HW179130  12.812  11.934   9.765
25766SOL    HW279131  12.883  11.803   9.790
25767SOL     OW79132   7.660  12.719   4.124
25767SOL    HW179133   7.597  12.791   4.125
25767SOL    HW279134   7.631  12.662   4.054
25768SOL     OW79135   6.241   3.759  12.207
25768SOL    HW179136   6.269   3.736  12.119
25768SOL    HW279137   6.320   3.755  12.260
25769SOL     OW79138   9.726   6.877   4.258
25769SOL    HW179139   9.707   6.915   4.344
25769SOL    HW279140   9.668   6.801   4.252
25770SOL     OW79141  14.158  12.688  11.511
25770SOL    HW179142  14.236  12.654  11.467
25770SOL    HW279143  14.163  12.652  11.599
25771SOL     OW79144  10.926   3.146   8.934
25771SOL    HW179145  10.888   3.059   8.923
25771SOL    HW279146  11.006   3.132   8.984
25772SOL     OW79147  11.962   8.403   5.764
25772SOL    HW179148  11.930   8.436   5.848
25772SOL    HW279149  11.900   8.333   5.742
25773SOL     OW79150   6.231   4.918   6.502
25773SOL    HW179151   6.231   4.840   6.557
25773SOL    HW279152   6.209   4.886   6.414
25774SOL     OW79153  11.000   0.553   3.981
25774SOL    HW179154  10.923   0.609   3.987
25774SOL    HW279155  10.972   0.469   4.018
25775SOL     OW79156  14.711   5.443   0.727
25775SOL    HW179157  14.669   5.529   0.728
25775SOL    HW279158  14.639   5.380   0.725
25776SOL     OW79159   0.150   5.920   2.074
25776SOL    HW179160   0.149   5.848   2.011
25776SOL    HW279161   0.057   5.940   2.087
25777SOL     OW79162  13.857   3.419   0.456
25777SOL    HW179163  13.782   3.363   0.433
25777SOL    HW279164  13.898   3.439   0.372
25778SOL     OW79165   6.130   7.826  12.892
25778SOL    HW179166   6.196   7.886  12.926
25778SOL    HW279167   6.047   7.873  12.903
25779SOL     OW79168  10.901   6.124  13.211
25779SOL    HW179169  10.956   6.105  13.287
25779SOL    HW279170  10.962   6.134  13.138
25780SOL     OW79171   9.113   1.478   7.203
25780SOL    HW179172   9.139   1.537   7.132
25780SOL    HW279173   9.102   1.534   7.279
25781SOL     OW79174  11.947   8.490   1.015
25781SOL    HW179175  11.909   8.402   1.018
25781SOL    HW279176  11.873   8.549   1.002
25782SOL     OW79177  13.424   5.503  13.501
25782SOL    HW179178  13.471   5.422  13.481
25782SOL    HW279179  13.383   5.527  13.418
25783SOL     OW79180   5.552   0.204   9.859
25783SOL    HW179181   5.472   0.246   9.893
25783SOL    HW279182   5.521   0.123   9.818
25784SOL     OW79183   0.914   6.183   6.506
25784SOL    HW179184   0.846   6.194   6.571
25784SOL    HW279185   0.983   6.134   6.551
25785SOL     OW79186   6.252  11.624  12.960
25785SOL    HW179187   6.242  11.536  12.996
25785SOL    HW279188   6.162  11.658  12.955
25786SOL     OW79189   8.099   4.327   3.088
25786SOL    HW179190   8.035   4.361   3.026
25786SOL    HW279191   8.083   4.377   3.168
25787SOL     OW79192   9.693  10.568   3.647
25787SOL    HW179193   9.616  10.624   3.636
25787SOL    HW279194   9.732  10.596   3.730
25788SOL     OW79195   3.873   8.347  10.982
25788SOL    HW179196   3.944   8.283  10.984
25788SOL    HW279197   3.824   8.325  10.902
25789SOL     OW79198  12.016   7.822   9.184
25789SOL    HW179199  11.939   7.785   9.141
25789SOL    HW279200  12.012   7.915   9.165
25790SOL     OW79201   7.917   2.925   3.311
25790SOL    HW179202   7.901   3.017   3.291
25790SOL    HW279203   7.980   2.927   3.383
25791SOL     OW79204   1.954   0.558  10.572
25791SOL    HW179205   2.030   0.615  10.576
25791SOL    HW279206   1.899   0.586  10.645
25792SOL     OW79207  11.952   3.197   8.566
25792SOL    HW179208  11.952   3.252   8.488
25792SOL    HW279209  12.044   3.194   8.593
25793SOL     OW79210   5.258   2.838   2.695
25793SOL    HW179211   5.225   2.866   2.610
25793SOL    HW279212   5.222   2.901   2.757
25794SOL     OW79213   3.117   8.025   9.266
25794SOL    HW179214   3.030   8.047   9.298
25794SOL    HW279215   3.171   8.102   9.285
25795SOL     OW79216  13.150   1.627  11.608
25795SOL    HW179217  13.087   1.579  11.661
25795SOL    HW279218  13.224   1.567  11.598
25796SOL     OW79219   8.989   2.335  10.025
25796SOL    HW179220   9.002   2.280   9.948
25796SOL    HW279221   9.076   2.367  10.048
25797SOL     OW79222   5.136   5.569  14.361
25797SOL    HW179223   5.120   5.562  14.455
25797SOL    HW279224   5.049   5.556  14.321
25798SOL     OW79225   2.541   7.354   4.506
25798SOL    HW179226   2.544   7.450   4.500
25798SOL    HW279227   2.628   7.329   4.537
25799SOL     OW79228  10.843  13.116  14.534
25799SOL    HW179229  10.931  13.147  14.559
25799SOL    HW279230  10.798  13.105  14.618
25800SOL     OW79231   5.554  14.032   7.594
25800SOL    HW179232   5.478  14.005   7.543
25800SOL    HW279233   5.590  13.951   7.629
25801SOL     OW79234  11.119  12.387   3.793
25801SOL    HW179235  11.029  12.357   3.776
25801SOL    HW279236  11.162  12.385   3.708
25802SOL     OW79237   2.363  10.705   4.891
25802SOL    HW179238   2.417  10.627   4.904
25802SOL    HW279239   2.279  10.671   4.860
25803SOL     OW79240  11.043  12.075   6.427
25803SOL    HW179241  11.109  12.084   6.358
25803SOL    HW279242  11.044  12.161   6.471
25804SOL     OW79243   9.696  11.528   4.861
25804SOL    HW179244   9.644  11.448   4.873
25804SOL    HW279245   9.654  11.572   4.787
25805SOL     OW79246   1.240   5.698   4.649
25805SOL    HW179247   1.317   5.751   4.665
25805SOL    HW279248   1.167   5.760   4.648
25806SOL     OW79249   8.326  12.551   2.582
25806SOL    HW179250   8.231  12.539   2.581
25806SOL    HW279251   8.338  12.642   2.608
25807SOL     OW79252   2.630   4.468  11.270
25807SOL    HW179253   2.686   4.443  11.197
25807SOL    HW279254   2.643   4.399  11.335
25808SOL     OW79255  14.835   4.094  13.120
25808SOL    HW179256  14.850   4.156  13.049
25808SOL    HW279257  14.771   4.138  13.177
25809SOL     OW79258  11.246   3.563   6.275
25809SOL    HW179259  11.205   3.635   6.228
25809SOL    HW279260  11.261   3.496   6.208
25810SOL     OW79261  13.749   4.470   3.414
25810SOL    HW179262  13.844   4.479   3.426
25810SOL    HW279263  13.711   4.512   3.491
25811SOL     OW79264   4.572   3.942  12.737
25811SOL    HW179265   4.524   3.928  12.819
25811SOL    HW279266   4.515   3.908  12.669
25812SOL     OW79267  12.458   6.950   5.859
25812SOL    HW179268  12.550   6.960   5.836
25812SOL    HW279269  12.448   7.001   5.939
25813SOL     OW79270   4.980  11.431   1.808
25813SOL    HW179271   4.967  11.510   1.755
25813SOL    HW279272   4.911  11.436   1.875
25814SOL     OW79273  14.053   3.152   4.838
25814SOL    HW179274  14.053   3.243   4.868
25814SOL    HW279275  13.989   3.108   4.894
25815SOL     OW79276  11.677  11.687   6.267
25815SOL    HW179277  11.752  11.631   6.253
25815SOL    HW279278  11.700  11.739   6.345
25816SOL     OW79279  10.159   7.677   5.416
25816SOL    HW179280  10.250   7.656   5.439
25816SOL    HW279281  10.109   7.652   5.494
25817SOL     OW79282   1.196   3.168   5.879
25817SOL    HW179283   1.196   3.155   5.974
25817SOL    HW279284   1.230   3.086   5.843
25818SOL     OW79285   4.213  10.208  14.636
25818SOL    HW179286   4.201  10.184  14.728
25818SOL    HW279287   4.125  10.201  14.598
25819SOL     OW79288   3.457   8.139   2.885
25819SOL    HW179289   3.372   8.104   2.859
25819SOL    HW279290   3.468   8.111   2.975
25820SOL     OW79291   1.026   1.055  14.446
25820SOL    HW179292   1.065   1.036  14.532
25820SOL    HW279293   0.942   1.009  14.448
25821SOL     OW79294   6.222   6.141   6.143
25821SOL    HW179295   6.204   6.223   6.190
25821SOL    HW279296   6.165   6.144   6.067
25822SOL     OW79297   9.857  12.215   4.276
25822SOL    HW179298   9.933  12.158   4.268
25822SOL    HW279299   9.894  12.302   4.293
25823SOL     OW79300  13.945  13.831   6.132
25823SOL    HW179301  13.858  13.809   6.166
25823SOL    HW279302  13.935  13.920   6.098
25824SOL     OW79303  13.532   0.647   1.046
25824SOL    HW179304  13.455   0.647   1.103
25824SOL    HW279305  13.550   0.555   1.030
25825SOL     OW79306   6.663   9.339   7.756
25825SOL    HW179307   6.675   9.396   7.831
25825SOL    HW279308   6.684   9.251   7.789
25826SOL     OW79309  14.598   6.304   5.025
25826SOL    HW179310  14.531   6.289   4.958
25826SOL    HW279311  14.648   6.222   5.028
25827SOL     OW79312  11.482   8.836  13.908
25827SOL    HW179313  11.563   8.866  13.949
25827SOL    HW279314  11.438   8.785  13.977
25828SOL     OW79315  11.390   5.912   4.349
25828SOL    HW179316  11.385   5.823   4.384
25828SOL    HW279317  11.374   5.901   4.255
25829SOL     OW79318   9.553   0.783  11.372
25829SOL    HW179319   9.549   0.873  11.339
25829SOL    HW279320   9.534   0.792  11.466
25830SOL     OW79321   0.302   9.681   3.508
25830SOL    HW179322   0.346   9.765   3.497
25830SOL    HW279323   0.372   9.616   3.501
25831SOL     OW79324   6.449   9.766  14.429
25831SOL    HW179325   6.399   9.843  14.404
25831SOL    HW279326   6.541   9.793  14.420
25832SOL     OW79327   4.458   5.768   3.288
25832SOL    HW179328   4.399   5.731   3.355
25832SOL    HW279329   4.524   5.815   3.339
25833SOL     OW79330  13.612  10.672   6.280
25833SOL    HW179331  13.598  10.612   6.207
25833SOL    HW279332  13.703  10.656   6.306
25834SOL     OW79333   2.477   2.179   9.095
25834SOL    HW179334   2.381   2.179   9.097
25834SOL    HW279335   2.499   2.198   9.004
25835SOL     OW79336   7.477   0.204   9.225
25835SOL    HW179337   7.547   0.268   9.216
25835SOL    HW279338   7.416   0.244   9.288
25836SOL     OW79339   9.999  13.260   5.465
25836SOL    HW179340  10.084  13.260   5.422
25836SOL    HW279341   9.945  13.318   5.411
25837SOL     OW79342  13.225   3.713   6.432
25837SOL    HW179343  13.265   3.731   6.516
25837SOL    HW279344  13.224   3.618   6.425
25838SOL     OW79345  14.434   9.456   0.742
25838SOL    HW179346  14.454   9.486   0.654
25838SOL    HW279347  14.405   9.365   0.730
25839SOL     OW79348   8.455   3.219  14.012
25839SOL    HW179349   8.423   3.144  14.062
25839SOL    HW279350   8.426   3.202  13.923
25840SOL     OW79351  12.216   8.855   0.023
25840SOL    HW179352  12.194   8.837   0.114
25840SOL    HW279353  12.276   8.930   0.027
25841SOL     OW79354   4.067  11.950   7.905
25841SOL    HW179355   4.028  11.864   7.886
25841SOL    HW279356   4.025  12.009   7.843
25842SOL     OW79357   2.636   4.044   4.174
25842SOL    HW179358   2.690   4.121   4.157
25842SOL    HW279359   2.586   4.031   4.093
25843SOL     OW79360   5.878  11.042   3.424
25843SOL    HW179361   5.801  11.099   3.421
25843SOL    HW279362   5.866  10.990   3.503
25844SOL     OW79363   6.970   2.785   5.039
25844SOL    HW179364   6.942   2.779   4.948
25844SOL    HW279365   7.005   2.698   5.060
25845SOL     OW79366   8.746  12.792   2.247
25845SOL    HW179367   8.779  12.709   2.282
25845SOL    HW279368   8.824  12.841   2.222
25846SOL     OW79369   1.298   9.785   0.113
25846SOL    HW179370   1.206   9.793   0.086
25846SOL    HW279371   1.330   9.707   0.068
25847SOL     OW79372   8.862   7.633   7.684
25847SOL    HW179373   8.771   7.660   7.697
25847SOL    HW279374   8.902   7.706   7.636
25848SOL     OW79375  11.288  12.555   2.303
25848SOL    HW179376  11.312  12.503   2.227
25848SOL    HW279377  11.274  12.643   2.267
25849SOL     OW79378   0.668   9.996   6.293
25849SOL    HW179379   0.694   9.984   6.201
25849SOL    HW279380   0.731  10.060   6.327
25850SOL     OW79381   7.284  13.191   2.166
25850SOL    HW179382   7.377  13.212   2.179
25850SOL    HW279383   7.250  13.179   2.255
25851SOL     OW79384   8.570  11.070   1.920
25851SOL    HW179385   8.636  11.109   1.863
25851SOL    HW279386   8.563  10.979   1.891
25852SOL     OW79387  12.896   9.908   2.941
25852SOL    HW179388  12.855   9.909   3.027
25852SOL    HW279389  12.862   9.987   2.898
25853SOL     OW79390   2.290   4.305  11.509
25853SOL    HW179391   2.268   4.393  11.478
25853SOL    HW279392   2.385   4.306  11.517
25854SOL     OW79393   1.949  14.526  12.793
25854SOL    HW179394   1.929  14.549  12.702
25854SOL    HW279395   1.932  14.432  12.799
25855SOL     OW79396   4.597  12.307   6.209
25855SOL    HW179397   4.622  12.339   6.123
25855SOL    HW279398   4.681  12.289   6.253
25856SOL     OW79399   7.654   8.040   4.870
25856SOL    HW179400   7.749   8.029   4.867
25856SOL    HW279401   7.640   8.101   4.942
25857SOL     OW79402  14.796   6.512   0.597
25857SOL    HW179403  14.802   6.527   0.503
25857SOL    HW279404  14.858   6.575   0.635
25858SOL     OW79405   1.824  10.219  11.124
25858SOL    HW179406   1.739  10.181  11.100
25858SOL    HW279407   1.820  10.309  11.093
25859SOL     OW79408   7.176   7.794   9.165
25859SOL    HW179409   7.121   7.872   9.162
25859SOL    HW279410   7.239   7.807   9.094
25860SOL     OW79411   1.837   1.327   8.474
25860SOL    HW179412   1.835   1.231   8.480
25860SOL    HW279413   1.756   1.355   8.517
25861SOL     OW79414   7.883  11.761   2.669
25861SOL    HW179415   7.907  11.678   2.628
25861SOL    HW279416   7.828  11.735   2.743
25862SOL     OW79417   6.770   8.340   0.149
25862SOL    HW179418   6.762   8.280   0.224
25862SOL    HW279419   6.679   8.361   0.126
25863SOL     OW79420  10.043  14.678   6.611
25863SOL    HW179421   9.951  14.649   6.616
25863SOL    HW279422  10.054  14.736   6.686
25864SOL     OW79423   7.187  14.231   5.572
25864SOL    HW179424   7.264  14.193   5.614
25864SOL    HW279425   7.223  14.285   5.501
25865SOL     OW79426   8.067   1.812  13.875
25865SOL    HW179427   8.024   1.763  13.805
25865SOL    HW279428   8.145   1.761  13.896
25866SOL     OW79429   4.288   2.275   7.950
25866SOL    HW179430   4.255   2.321   8.027
25866SOL    HW279431   4.381   2.262   7.967
25867SOL     OW79432   0.186  12.057   5.383
25867SOL    HW179433   0.271  12.050   5.340
25867SOL    HW279434   0.192  11.999   5.458
25868SOL     OW79435   4.641   2.289  14.052
25868SOL    HW179436   4.549   2.293  14.028
25868SOL    HW279437   4.688   2.293  13.968
25869SOL     OW79438   4.123  14.067   5.745
25869SOL    HW179439   4.199  14.024   5.785
25869SOL    HW279440   4.064  13.995   5.723
25870SOL     OW79441   6.032   6.501   2.230
25870SOL    HW179442   6.063   6.434   2.170
25870SOL    HW279443   6.103   6.511   2.294
25871SOL     OW79444  12.252   4.854   3.997
25871SOL    HW179445  12.166   4.814   3.983
25871SOL    HW279446  12.255   4.927   3.936
25872SOL     OW79447   4.694   0.963   0.002
25872SOL    HW179448   4.646   0.971  14.795
25872SOL    HW279449   4.626   0.969   0.070
25873SOL     OW79450   5.772   4.702   1.472
25873SOL    HW179451   5.836   4.702   1.543
25873SOL    HW279452   5.788   4.785   1.426
25874SOL     OW79453   6.131   5.908  14.115
25874SOL    HW179454   6.093   5.985  14.074
25874SOL    HW279455   6.199   5.879  14.054
25875SOL     OW79456   8.503   6.784   9.946
25875SOL    HW179457   8.443   6.824  10.010
25875SOL    HW279458   8.472   6.694   9.937
25876SOL     OW79459  11.300  14.383   5.439
25876SOL    HW179460  11.295  14.409   5.531
25876SOL    HW279461  11.385  14.415   5.410
25877SOL     OW79462  13.117  12.844  13.177
25877SOL    HW179463  13.124  12.882  13.089
25877SOL    HW279464  13.129  12.750  13.163
25878SOL     OW79465  11.491   1.701  14.758
25878SOL    HW179466  11.562   1.730  14.815
25878SOL    HW279467  11.510   1.743  14.674
25879SOL     OW79468  13.441  10.191  12.679
25879SOL    HW179469  13.524  10.162  12.642
25879SOL    HW279470  13.378  10.122  12.654
25880SOL     OW79471   8.554  12.742   9.293
25880SOL    HW179472   8.647  12.762   9.285
25880SOL    HW279473   8.538  12.674   9.228
25881SOL     OW79474   1.981   8.587   2.118
25881SOL    HW179475   2.018   8.547   2.039
25881SOL    HW279476   1.898   8.625   2.090
25882SOL     OW79477   3.750   8.227   0.464
25882SOL    HW179478   3.800   8.282   0.524
25882SOL    HW279479   3.766   8.138   0.494
25883SOL     OW79480  12.009   3.858   6.172
25883SOL    HW179481  12.087   3.850   6.118
25883SOL    HW279482  12.039   3.900   6.253
25884SOL     OW79483   0.766   5.913  10.286
25884SOL    HW179484   0.819   5.955  10.219
25884SOL    HW279485   0.700   5.979  10.309
25885SOL     OW79486  12.867   9.102   9.297
25885SOL    HW179487  12.813   9.127   9.222
25885SOL    HW279488  12.874   9.006   9.290
25886SOL     OW79489   7.213  11.855   0.422
25886SOL    HW179490   7.168  11.838   0.339
25886SOL    HW279491   7.298  11.890   0.396
25887SOL     OW79492   6.681   9.434   8.275
25887SOL    HW179493   6.751   9.473   8.327
25887SOL    HW279494   6.634   9.377   8.336
25888SOL     OW79495   2.210  10.938  11.956
25888SOL    HW179496   2.156  10.995  11.901
25888SOL    HW279497   2.294  10.983  11.963
25889SOL     OW79498   4.170   0.157   5.829
25889SOL    HW179499   4.246   0.111   5.866
25889SOL    HW279500   4.156   0.116   5.744
25890SOL     OW79501   4.929   7.142   2.885
25890SOL    HW179502   4.949   7.188   2.967
25890SOL    HW279503   4.966   7.198   2.816
25891SOL     OW79504   0.470  10.070  13.431
25891SOL    HW179505   0.429   9.997  13.385
25891SOL    HW279506   0.552  10.086  13.383
25892SOL     OW79507   6.090  13.427   6.691
25892SOL    HW179508   6.006  13.456   6.656
25892SOL    HW279509   6.151  13.434   6.618
25893SOL     OW79510  12.502   3.173   7.267
25893SOL    HW179511  12.514   3.078   7.269
25893SOL    HW279512  12.460   3.193   7.351
25894SOL     OW79513   8.791   8.752   9.650
25894SOL    HW179514   8.788   8.838   9.608
25894SOL    HW279515   8.709   8.746   9.698
25895SOL     OW79516   3.085   1.942  12.096
25895SOL    HW179517   3.115   1.962  12.007
25895SOL    HW279518   2.992   1.924  12.085
25896SOL     OW79519   4.740   4.054   1.357
25896SOL    HW179520   4.785   4.062   1.441
25896SOL    HW279521   4.740   3.960   1.338
25897SOL     OW79522   8.563  12.262   9.077
25897SOL    HW179523   8.592  12.249   8.987
25897SOL    HW279524   8.617  12.202   9.128
25898SOL     OW79525   2.179  10.904  13.617
25898SOL    HW179526   2.190  10.985  13.568
25898SOL    HW279527   2.179  10.835  13.551
25899SOL     OW79528   4.947   8.454   5.754
25899SOL    HW179529   4.885   8.508   5.706
25899SOL    HW279530   4.994   8.405   5.686
25900SOL     OW79531  14.133   9.097   9.263
25900SOL    HW179532  14.182   9.037   9.208
25900SOL    HW279533  14.113   9.171   9.205
25901SOL     OW79534   0.849   6.035   1.656
25901SOL    HW179535   0.918   6.064   1.596
25901SOL    HW279536   0.776   6.013   1.598
25902SOL     OW79537   4.695   0.270   7.926
25902SOL    HW179538   4.644   0.259   7.846
25902SOL    HW279539   4.735   0.356   7.918
25903SOL     OW79540   0.893  10.997   1.176
25903SOL    HW179541   0.965  10.943   1.209
25903SOL    HW279542   0.878  11.062   1.244
25904SOL     OW79543   0.564  11.502   2.013
25904SOL    HW179544   0.491  11.513   2.075
25904SOL    HW279545   0.521  11.491   1.928
25905SOL     OW79546   0.712   4.111   1.748
25905SOL    HW179547   0.729   4.173   1.818
25905SOL    HW279548   0.619   4.089   1.756
25906SOL     OW79549   3.442  12.140   6.959
25906SOL    HW179550   3.398  12.225   6.965
25906SOL    HW279551   3.533  12.162   6.937
25907SOL     OW79552   8.678   1.172   3.839
25907SOL    HW179553   8.697   1.229   3.913
25907SOL    HW279554   8.648   1.231   3.770
25908SOL     OW79555   0.916  12.316  12.310
25908SOL    HW179556   0.981  12.385  12.302
25908SOL    HW279557   0.886  12.322  12.401
25909SOL     OW79558   9.474   4.041  14.323
25909SOL    HW179559   9.538   4.084  14.380
25909SOL    HW279560   9.476   3.949  14.350
25910SOL     OW79561   3.570   1.855  12.537
25910SOL    HW179562   3.594   1.866  12.445
25910SOL    HW279563   3.491   1.908  12.548
25911SOL     OW79564  11.226   0.180   3.506
25911SOL    HW179565  11.318   0.159   3.488
25911SOL    HW279566  11.188   0.098   3.535
25912SOL     OW79567   4.280  10.119   8.001
25912SOL    HW179568   4.277  10.179   8.075
25912SOL    HW279569   4.288  10.032   8.040
25913SOL     OW79570   7.817   2.479  10.061
25913SOL    HW179571   7.865   2.416  10.116
25913SOL    HW279572   7.759   2.524  10.122
25914SOL     OW79573  12.195   0.945  10.578
25914SOL    HW179574  12.206   0.873  10.639
25914SOL    HW279575  12.160   0.904  10.498
25915SOL     OW79576   8.070   3.878   9.493
25915SOL    HW179577   8.011   3.950   9.513
25915SOL    HW279578   8.056   3.814   9.563
25916SOL     OW79579  10.500   8.256   6.414
25916SOL    HW179580  10.529   8.325   6.474
25916SOL    HW279581  10.525   8.175   6.457
25917SOL     OW79582   8.538   7.852  13.870
25917SOL    HW179583   8.548   7.818  13.959
25917SOL    HW279584   8.455   7.900  13.872
25918SOL     OW79585   5.793   0.492   4.463
25918SOL    HW179586   5.833   0.516   4.379
25918SOL    HW279587   5.704   0.465   4.439
25919SOL     OW79588   2.807   8.145   0.549
25919SOL    HW179589   2.714   8.130   0.533
25919SOL    HW279590   2.833   8.077   0.611
25920SOL     OW79591   8.460   0.925   3.299
25920SOL    HW179592   8.526   0.988   3.326
25920SOL    HW279593   8.510   0.852   3.261
25921SOL     OW79594  12.846   6.021   1.739
25921SOL    HW179595  12.790   6.055   1.670
25921SOL    HW279596  12.807   6.055   1.820
25922SOL     OW79597   8.207  10.900   5.245
25922SOL    HW179598   8.186  10.831   5.307
25922SOL    HW279599   8.139  10.966   5.258
25923SOL     OW79600   1.659   4.115  11.395
25923SOL    HW179601   1.744   4.100  11.436
25923SOL    HW279602   1.667   4.201  11.354
25924SOL     OW79603   9.960   7.615   6.706
25924SOL    HW179604   9.936   7.550   6.641
25924SOL    HW279605   9.914   7.694   6.679
25925SOL     OW79606   3.004   3.201  13.650
25925SOL    HW179607   2.956   3.227  13.572
25925SOL    HW279608   3.068   3.271  13.663
25926SOL     OW79609  11.505   0.506  12.295
25926SOL    HW179610  11.599   0.499  12.278
25926SOL    HW279611  11.498   0.522  12.389
25927SOL     OW79612  13.542  10.230   7.998
25927SOL    HW179613  13.479  10.167   7.962
25927SOL    HW279614  13.488  10.301   8.032
25928SOL     OW79615   3.244  11.442  11.983
25928SOL    HW179616   3.326  11.448  11.936
25928SOL    HW279617   3.197  11.522  11.961
25929SOL     OW79618   1.081   6.554   5.776
25929SOL    HW179619   0.989   6.550   5.750
25929SOL    HW279620   1.093   6.477   5.832
25930SOL     OW79621  14.764   4.606   9.498
25930SOL    HW179622  14.777   4.701   9.494
25930SOL    HW279623  14.798   4.573   9.415
25931SOL     OW79624  12.837   0.347   3.144
25931SOL    HW179625  12.862   0.284   3.076
25931SOL    HW279626  12.920   0.379   3.178
25932SOL     OW79627  11.119   0.123   5.646
25932SOL    HW179628  11.085   0.128   5.735
25932SOL    HW279629  11.156   0.035   5.639
25933SOL     OW79630  13.715   4.352   3.773
25933SOL    HW179631  13.709   4.286   3.704
25933SOL    HW279632  13.809   4.372   3.778
25934SOL     OW79633  10.122   7.217   5.989
25934SOL    HW179634  10.026   7.211   5.987
25934SOL    HW279635  10.143   7.276   5.916
25935SOL     OW79636   8.051   4.306   4.642
25935SOL    HW179637   8.137   4.299   4.600
25935SOL    HW279638   7.995   4.346   4.576
25936SOL     OW79639   1.727  12.007   0.013
25936SOL    HW179640   1.745  12.062   0.089
25936SOL    HW279641   1.791  11.937   0.018
25937SOL     OW79642  13.800   5.715  12.098
25937SOL    HW179643  13.773   5.803  12.125
25937SOL    HW279644  13.886   5.703  12.139
25938SOL     OW79645  11.871   5.345   6.543
25938SOL    HW179646  11.801   5.398   6.504
25938SOL    HW279647  11.927   5.409   6.588
25939SOL     OW79648  12.508   5.943   1.756
25939SOL    HW179649  12.526   5.920   1.847
25939SOL    HW279650  12.414   5.927   1.745
25940SOL     OW79651   2.284   5.749  11.924
25940SOL    HW179652   2.342   5.791  11.861
25940SOL    HW279653   2.207   5.724  11.873
25941SOL     OW79654   1.578  12.465   8.477
25941SOL    HW179655   1.640  12.456   8.405
25941SOL    HW279656   1.611  12.405   8.545
25942SOL     OW79657   0.866   0.192  12.627
25942SOL    HW179658   0.903   0.184  12.715
25942SOL    HW279659   0.849   0.286  12.617
25943SOL     OW79660  10.704   5.685   0.243
25943SOL    HW179661  10.625   5.739   0.247
25943SOL    HW279662  10.709   5.656   0.152
25944SOL     OW79663  14.676   2.403   7.547
25944SOL    HW179664  14.617   2.361   7.486
25944SOL    HW279665  14.655   2.365   7.632
25945SOL     OW79666  10.291   2.610   1.378
25945SOL    HW179667  10.319   2.623   1.469
25945SOL    HW279668  10.360   2.556   1.339
25946SOL     OW79669  14.653  11.514  12.156
25946SOL    HW179670  14.580  11.503  12.217
25946SOL    HW279671  14.697  11.429  12.155
25947SOL     OW79672   5.158   4.550   2.018
25947SOL    HW179673   5.073   4.506   2.009
25947SOL    HW279674   5.146   4.634   1.972
25948SOL     OW79675   3.807   6.798  11.453
25948SOL    HW179676   3.826   6.758  11.538
25948SOL    HW279677   3.728   6.753  11.423
25949SOL     OW79678   1.540   6.784  11.645
25949SOL    HW179679   1.573   6.720  11.708
25949SOL    HW279680   1.501   6.731  11.576
25950SOL     OW79681  14.623   4.381  11.318
25950SOL    HW179682  14.642   4.297  11.277
25950SOL    HW279683  14.707   4.412  11.353
25951SOL     OW79684  10.000   9.778   9.501
25951SOL    HW179685  10.057   9.803   9.428
25951SOL    HW279686  10.043   9.816   9.578
25952SOL     OW79687   7.468   5.805  12.112
25952SOL    HW179688   7.387   5.815  12.162
25952SOL    HW279689   7.442   5.763  12.030
25953SOL     OW79690  10.973  12.393   1.331
25953SOL    HW179691  11.059  12.357   1.355
25953SOL    HW279692  10.910  12.327   1.358
25954SOL     OW79693  13.725   4.141  13.853
25954SOL    HW179694  13.785   4.068  13.836
25954SOL    HW279695  13.675   4.150  13.772
25955SOL     OW79696  13.986  11.009  10.930
25955SOL    HW179697  13.930  11.085  10.944
25955SOL    HW279698  13.974  10.987  10.838
25956SOL     OW79699   0.951  10.218  12.337
25956SOL    HW179700   0.896  10.251  12.408
25956SOL    HW279701   0.955  10.124  12.351
25957SOL     OW79702   5.751  10.364   3.267
25957SOL    HW179703   5.698  10.285   3.265
25957SOL    HW279704   5.820  10.349   3.203
25958SOL     OW79705   7.209   2.683  10.633
25958SOL    HW179706   7.256   2.762  10.657
25958SOL    HW279707   7.177   2.699  10.544
25959SOL     OW79708   3.895   7.469   0.965
25959SOL    HW179709   3.934   7.556   0.959
25959SOL    HW279710   3.802   7.485   0.980
25960SOL     OW79711   6.526  13.475   9.791
25960SOL    HW179712   6.452  13.531   9.766
25960SOL    HW279713   6.570  13.455   9.708
25961SOL     OW79714   0.234  13.503   9.994
25961SOL    HW179715   0.270  13.435  10.052
25961SOL    HW279716   0.143  13.510  10.020
25962SOL     OW79717  12.438  11.720   2.981
25962SOL    HW179718  12.357  11.695   3.025
25962SOL    HW279719  12.418  11.714   2.888
25963SOL     OW79720  12.449   9.211   2.321
25963SOL    HW179721  12.407   9.186   2.239
25963SOL    HW279722  12.538   9.177   2.314
25964SOL     OW79723   1.929   3.538  14.680
25964SOL    HW179724   1.856   3.497  14.727
25964SOL    HW279725   1.919   3.509  14.590
25965SOL     OW79726  14.023   9.281  13.526
25965SOL    HW179727  14.056   9.363  13.563
25965SOL    HW279728  14.073   9.213  13.571
25966SOL     OW79729  13.074   0.021   5.525
25966SOL    HW179730  12.997   0.030   5.582
25966SOL    HW279731  13.134  14.842   5.575
25967SOL     OW79732   4.361   0.145   8.476
25967SOL    HW179733   4.408   0.193   8.544
25967SOL    HW279734   4.337   0.062   8.518
25968SOL     OW79735   4.563   0.077  14.256
25968SOL    HW179736   4.519   0.000  14.291
25968SOL    HW279737   4.646   0.043  14.222
25969SOL     OW79738   4.142   8.010   7.739
25969SOL    HW179739   4.222   8.001   7.791
25969SOL    HW279740   4.100   7.924   7.743
25970SOL     OW79741  14.527   6.506  11.446
25970SOL    HW179742  14.558   6.455  11.520
25970SOL    HW279743  14.455   6.454  11.410
25971SOL     OW79744   3.864   4.791   0.220
25971SOL    HW179745   3.769   4.805   0.224
25971SOL    HW279746   3.874   4.698   0.203
25972SOL     OW79747   0.106   2.849  11.177
25972SOL    HW179748   0.177   2.904  11.211
25972SOL    HW279749   0.030   2.908  11.174
25973SOL     OW79750  13.211   1.698   5.627
25973SOL    HW179751  13.300   1.722   5.602
25973SOL    HW279752  13.188   1.625   5.569
25974SOL     OW79753   2.370  11.331  12.486
25974SOL    HW179754   2.388  11.239  12.467
25974SOL    HW279755   2.411  11.379  12.414
25975SOL     OW79756  10.297   4.288   3.821
25975SOL    HW179757  10.253   4.327   3.896
25975SOL    HW279758  10.362   4.354   3.795
25976SOL     OW79759   6.496   1.585   2.215
25976SOL    HW179760   6.535   1.547   2.136
25976SOL    HW279761   6.447   1.513   2.254
25977SOL     OW79762  12.051   3.329   2.095
25977SOL    HW179763  12.133   3.279   2.090
25977SOL    HW279764  11.983   3.264   2.075
25978SOL     OW79765   8.333  12.642   3.622
25978SOL    HW179766   8.338  12.669   3.530
25978SOL    HW279767   8.247  12.671   3.651
25979SOL     OW79768   0.517   2.110   1.901
25979SOL    HW179769   0.556   2.151   1.978
25979SOL    HW279770   0.453   2.048   1.937
25980SOL     OW79771   5.775  13.015   9.511
25980SOL    HW179772   5.709  13.028   9.580
25980SOL    HW279773   5.727  13.026   9.429
25981SOL     OW79774  11.075  14.564   5.370
25981SOL    HW179775  11.140  14.624   5.332
25981SOL    HW279776  11.122  14.481   5.379
25982SOL     OW79777  12.258   2.817   1.161
25982SOL    HW179778  12.350   2.838   1.145
25982SOL    HW279779  12.255   2.789   1.252
25983SOL     OW79780   3.620   6.488   3.819
25983SOL    HW179781   3.598   6.558   3.757
25983SOL    HW279782   3.584   6.409   3.779
25984SOL     OW79783   1.084   6.548   0.719
25984SOL    HW179784   1.100   6.465   0.763
25984SOL    HW279785   1.167   6.569   0.676
25985SOL     OW79786  13.375   5.430  12.551
25985SOL    HW179787  13.298   5.375  12.538
25985SOL    HW279788  13.440   5.372  12.590
25986SOL     OW79789   1.966   2.324   2.901
25986SOL    HW179790   2.053   2.328   2.860
25986SOL    HW279791   1.943   2.231   2.897
25987SOL     OW79792  10.073   2.425   8.038
25987SOL    HW179793  10.148   2.460   8.086
25987SOL    HW279794  10.046   2.348   8.088
25988SOL     OW79795   4.152   1.717   7.590
25988SOL    HW179796   4.245   1.708   7.571
25988SOL    HW279797   4.114   1.749   7.508
25989SOL     OW79798   0.410   5.293   7.881
25989SOL    HW179799   0.385   5.201   7.868
25989SOL    HW279800   0.468   5.292   7.957
25990SOL     OW79801  14.087   1.074   3.626
25990SOL    HW179802  14.098   1.066   3.721
25990SOL    HW279803  14.152   1.139   3.600
25991SOL     OW79804  14.847   6.958  10.633
25991SOL    HW179805   0.035   6.919  10.693
25991SOL    HW279806  14.778   6.892  10.625
25992SOL     OW79807   7.656   3.815   9.149
25992SOL    HW179808   7.622   3.779   9.231
25992SOL    HW279809   7.745   3.842   9.171
25993SOL     OW79810  10.192  10.395  14.826
25993SOL    HW179811  10.252  10.329  14.860
25993SOL    HW279812  10.161  10.358  14.743
25994SOL     OW79813  13.817   0.783   9.206
25994SOL    HW179814  13.880   0.793   9.277
25994SOL    HW279815  13.871   0.765   9.129
25995SOL     OW79816   1.159   4.906   8.174
25995SOL    HW179817   1.175   4.999   8.161
25995SOL    HW279818   1.085   4.903   8.235
25996SOL     OW79819  13.255   0.018   0.915
25996SOL    HW179820  13.231   0.008   0.823
25996SOL    HW279821  13.333   0.074   0.915
25997SOL     OW79822   7.935  13.418   4.289
25997SOL    HW179823   7.947  13.326   4.309
25997SOL    HW279824   7.886  13.419   4.207
25998SOL     OW79825   8.838   6.001  13.883
25998SOL    HW179826   8.789   5.966  13.957
25998SOL    HW279827   8.892   6.071  13.920
25999SOL     OW79828   0.810  11.586   3.739
25999SOL    HW179829   0.819  11.491   3.751
25999SOL    HW279830   0.891  11.613   3.696
26000SOL     OW79831   4.274  12.703   6.807
26000SOL    HW179832   4.368  12.723   6.817
26000SOL    HW279833   4.271  12.608   6.796
26001SOL     OW79834   9.128   8.584   4.344
26001SOL    HW179835   9.048   8.634   4.357
26001SOL    HW279836   9.115   8.504   4.395
26002SOL     OW79837   3.886   7.200  10.641
26002SOL    HW179838   3.905   7.201  10.548
26002SOL    HW279839   3.915   7.285  10.674
26003SOL     OW79840   6.410   4.939  11.995
26003SOL    HW179841   6.413   4.846  12.016
26003SOL    HW279842   6.335   4.973  12.044
26004SOL     OW79843  14.596   0.210   8.484
26004SOL    HW179844  14.517   0.164   8.456
26004SOL    HW279845  14.666   0.145   8.473
26005SOL     OW79846   1.570  10.524  12.252
26005SOL    HW179847   1.572  10.542  12.346
26005SOL    HW279848   1.493  10.572  12.221
26006SOL     OW79849   1.527  13.403   0.059
26006SOL    HW179850   1.536  13.398  14.840
26006SOL    HW279851   1.439  13.368   0.076
26007SOL     OW79852  12.374  11.380  13.113
26007SOL    HW179853  12.331  11.441  13.172
26007SOL    HW279854  12.467  11.401  13.119
26008SOL     OW79855  12.483  11.377   3.073
26008SOL    HW179856  12.523  11.434   3.139
26008SOL    HW279857  12.425  11.434   3.023
26009SOL     OW79858   4.854   7.792   6.563
26009SOL    HW179859   4.781   7.786   6.625
26009SOL    HW279860   4.892   7.878   6.579
26010SOL     OW79861   0.587   2.245   9.553
26010SOL    HW179862   0.550   2.260   9.640
26010SOL    HW279863   0.511   2.241   9.495
26011SOL     OW79864   1.284   9.020  10.356
26011SOL    HW179865   1.305   9.102  10.311
26011SOL    HW279866   1.369   8.987  10.387
26012SOL     OW79867  12.057  14.817  11.430
26012SOL    HW179868  12.091  14.775  11.351
26012SOL    HW279869  11.980  14.866  11.400
26013SOL     OW79870  11.919   9.177   6.520
26013SOL    HW179871  11.923   9.143   6.610
26013SOL    HW279872  11.829   9.161   6.492
26014SOL     OW79873   9.324   4.824   3.178
26014SOL    HW179874   9.279   4.827   3.262
26014SOL    HW279875   9.268   4.875   3.119
26015SOL     OW79876  12.882   4.929   8.507
26015SOL    HW179877  12.893   5.022   8.525
26015SOL    HW279878  12.905   4.885   8.589
26016SOL     OW79879  11.038   2.895  14.473
26016SOL    HW179880  11.058   2.867  14.562
26016SOL    HW279881  11.025   2.814  14.424
26017SOL     OW79882  11.399   4.485   0.614
26017SOL    HW179883  11.344   4.546   0.663
26017SOL    HW279884  11.458   4.448   0.680
26018SOL     OW79885   9.478   7.109   7.020
26018SOL    HW179886   9.522   7.047   7.078
26018SOL    HW279887   9.526   7.191   7.033
26019SOL     OW79888   3.548  12.325   4.471
26019SOL    HW179889   3.582  12.353   4.556
26019SOL    HW279890   3.606  12.255   4.443
26020SOL     OW79891  14.193   4.925   7.446
26020SOL    HW179892  14.169   4.859   7.512
26020SOL    HW279893  14.226   4.999   7.498
26021SOL     OW79894  14.693   3.902   9.964
26021SOL    HW179895  14.678   3.950   9.882
26021SOL    HW279896  14.625   3.934  10.023
26022SOL     OW79897   8.823   9.215   2.101
26022SOL    HW179898   8.771   9.288   2.135
26022SOL    HW279899   8.914   9.245   2.109
26023SOL     OW79900   2.465  10.749   1.527
26023SOL    HW179901   2.491  10.786   1.443
26023SOL    HW279902   2.501  10.660   1.527
26024SOL     OW79903   3.689   0.464   9.612
26024SOL    HW179904   3.687   0.532   9.545
26024SOL    HW279905   3.781   0.439   9.619
26025SOL     OW79906   5.499   3.598  12.825
26025SOL    HW179907   5.475   3.663  12.891
26025SOL    HW279908   5.503   3.647  12.743
26026SOL     OW79909   3.029  10.282  12.081
26026SOL    HW179910   3.044  10.197  12.041
26026SOL    HW279911   3.057  10.346  12.015
26027SOL     OW79912  12.168  12.903   2.034
26027SOL    HW179913  12.235  12.868   2.092
26027SOL    HW279914  12.161  12.995   2.057
26028SOL     OW79915  14.010   0.890   1.276
26028SOL    HW179916  13.994   0.881   1.182
26028SOL    HW279917  13.999   0.984   1.293
26029SOL     OW79918   0.554  10.052   8.986
26029SOL    HW179919   0.540  10.009   8.901
26029SOL    HW279920   0.571  10.143   8.964
26030SOL     OW79921  13.961  13.510  13.068
26030SOL    HW179922  13.872  13.542  13.049
26030SOL    HW279923  13.994  13.481  12.983
26031SOL     OW79924  10.338   3.479  14.675
26031SOL    HW179925  10.308   3.404  14.623
26031SOL    HW279926  10.355   3.548  14.610
26032SOL     OW79927  14.188   0.537  14.647
26032SOL    HW179928  14.176   0.482  14.570
26032SOL    HW279929  14.278   0.570  14.638
26033SOL     OW79930  11.677  14.363  12.480
26033SOL    HW179931  11.602  14.405  12.524
26033SOL    HW279932  11.638  14.294  12.427
26034SOL     OW79933   9.425  11.717   6.461
26034SOL    HW179934   9.416  11.801   6.417
26034SOL    HW279935   9.337  11.695   6.490
26035SOL     OW79936  14.365   8.226  13.860
26035SOL    HW179937  14.386   8.179  13.780
26035SOL    HW279938  14.312   8.301  13.831
26036SOL     OW79939   6.454   7.734   0.974
26036SOL    HW179940   6.411   7.722   0.889
26036SOL    HW279941   6.387   7.774   1.029
26037SOL     OW79942   0.993   2.670   2.945
26037SOL    HW179943   1.086   2.660   2.966
26037SOL    HW279944   0.988   2.753   2.897
26038SOL     OW79945  11.340   5.237   3.462
26038SOL    HW179946  11.275   5.283   3.515
26038SOL    HW279947  11.421   5.285   3.477
26039SOL     OW79948   3.262  14.816   5.528
26039SOL    HW179949   3.313  14.806   5.608
26039SOL    HW279950   3.213   0.022   5.541
26040SOL     OW79951   9.313   0.939   1.881
26040SOL    HW179952   9.371   1.010   1.854
26040SOL    HW279953   9.238   0.945   1.821
26041SOL     OW79954   8.833   0.696  12.572
26041SOL    HW179955   8.753   0.687  12.625
26041SOL    HW279956   8.852   0.607  12.544
26042SOL     OW79957  13.988   2.524   6.694
26042SOL    HW179958  13.942   2.497   6.615
26042SOL    HW279959  14.070   2.474   6.692
26043SOL     OW79960   8.056   4.304  11.945
26043SOL    HW179961   7.965   4.292  11.973
26043SOL    HW279962   8.078   4.224  11.899
26044SOL     OW79963   3.734  13.328   7.836
26044SOL    HW179964   3.702  13.251   7.884
26044SOL    HW279965   3.717  13.401   7.895
26045SOL     OW79966  13.605  13.630   4.391
26045SOL    HW179967  13.635  13.539   4.396
26045SOL    HW279968  13.598  13.648   4.297
26046SOL     OW79969   9.936   1.127   6.355
26046SOL    HW179970   9.955   1.211   6.314
26046SOL    HW279971   9.841   1.122   6.357
26047SOL     OW79972  11.838  10.544  11.435
26047SOL    HW179973  11.774  10.591  11.488
26047SOL    HW279974  11.923  10.570  11.470
26048SOL     OW79975   3.178  14.617   6.853
26048SOL    HW179976   3.191  14.569   6.771
26048SOL    HW279977   3.242  14.578   6.913
26049SOL     OW79978  13.071  13.664   2.045
26049SOL    HW179979  13.009  13.597   2.016
26049SOL    HW279980  13.054  13.674   2.139
26050SOL     OW79981  11.732   6.996   3.822
26050SOL    HW179982  11.658   7.006   3.762
26050SOL    HW279983  11.695   6.951   3.898
26051SOL     OW79984  13.536  14.737   2.929
26051SOL    HW179985  13.453  14.782   2.946
26051SOL    HW279986  13.601  14.789   2.975
26052SOL     OW79987   0.899  12.629   8.996
26052SOL    HW179988   0.870  12.575   8.922
26052SOL    HW279989   0.993  12.612   9.003
26053SOL     OW79990   9.805   9.939  11.800
26053SOL    HW179991   9.845  10.009  11.748
26053SOL    HW279992   9.730   9.910  11.748
26054SOL     OW79993   2.714   9.013   6.809
26054SOL    HW179994   2.750   8.970   6.886
26054SOL    HW279995   2.784   9.070   6.779
26055SOL     OW79996   3.874   6.278  10.064
26055SOL    HW179997   3.967   6.259  10.080
26055SOL    HW279998   3.863   6.368  10.094
26056SOL     OW79999   3.783   7.742   1.983
26056SOL    HW180000   3.790   7.761   2.076
26056SOL    HW280001   3.819   7.819   1.940
26057SOL     OW80002   6.269  10.905  13.328
26057SOL    HW180003   6.347  10.853  13.313
26057SOL    HW280004   6.199  10.841  13.340
26058SOL     OW80005   5.817   5.702   5.830
26058SOL    HW180006   5.787   5.757   5.903
26058SOL    HW280007   5.751   5.634   5.822
26059SOL     OW80008   3.183   9.569  11.063
26059SOL    HW180009   3.119   9.616  11.116
26059SOL    HW280010   3.175   9.608  10.975
26060SOL     OW80011   6.823  12.468   1.437
26060SOL    HW180012   6.844  12.386   1.482
26060SOL    HW280013   6.890  12.530   1.465
26061SOL     OW80014   2.549   6.570  14.444
26061SOL    HW180015   2.601   6.530  14.513
26061SOL    HW280016   2.548   6.664  14.466
26062SOL     OW80017   4.616   8.553   8.144
26062SOL    HW180018   4.631   8.646   8.125
26062SOL    HW280019   4.702   8.520   8.170
26063SOL     OW80020   0.534   7.448   8.713
26063SOL    HW180021   0.630   7.441   8.720
26063SOL    HW280022   0.510   7.383   8.647
26064SOL     OW80023  10.891   1.105   1.647
26064SOL    HW180024  10.875   1.058   1.565
26064SOL    HW280025  10.897   1.037   1.714
26065SOL     OW80026  13.399  11.373  12.864
26065SOL    HW180027  13.343  11.418  12.800
26065SOL    HW280028  13.429  11.443  12.922
26066SOL     OW80029   4.853   3.370   9.365
26066SOL    HW180030   4.911   3.407   9.298
26066SOL    HW280031   4.781   3.432   9.371
26067SOL     OW80032  14.064   0.732   7.901
26067SOL    HW180033  13.989   0.744   7.843
26067SOL    HW280034  14.067   0.812   7.954
26068SOL     OW80035   2.937  12.446   2.398
26068SOL    HW180036   3.021  12.484   2.373
26068SOL    HW280037   2.888  12.439   2.316
26069SOL     OW80038  11.545   5.832   9.966
26069SOL    HW180039  11.517   5.915  10.005
26069SOL    HW280040  11.638   5.826   9.985
26070SOL     OW80041   3.993  13.406   5.554
26070SOL    HW180042   4.078  13.367   5.533
26070SOL    HW280043   3.929  13.348   5.513
26071SOL     OW80044   3.908   2.420   5.473
26071SOL    HW180045   3.933   2.383   5.558
26071SOL    HW280046   3.884   2.510   5.492
26072SOL     OW80047  13.518   7.770  12.115
26072SOL    HW180048  13.476   7.853  12.094
26072SOL    HW280049  13.462   7.704  12.074
26073SOL     OW80050  14.105  11.227  11.307
26073SOL    HW180051  14.074  11.179  11.230
26073SOL    HW280052  14.199  11.238  11.292
26074SOL     OW80053   4.027  11.415  11.642
26074SOL    HW180054   3.973  11.490  11.667
26074SOL    HW280055   3.993  11.389  11.556
26075SOL     OW80056   1.686  13.310   4.495
26075SOL    HW180057   1.623  13.295   4.566
26075SOL    HW280058   1.683  13.404   4.480
26076SOL     OW80059   3.283   9.039  11.937
26076SOL    HW180060   3.299   8.948  11.965
26076SOL    HW280061   3.227   9.030  11.860
26077SOL     OW80062  11.438   7.995  10.620
26077SOL    HW180063  11.404   7.952  10.542
26077SOL    HW280064  11.377   8.067  10.636
26078SOL     OW80065   8.059  11.378  13.315
26078SOL    HW180066   8.106  11.438  13.256
26078SOL    HW280067   8.083  11.409  13.403
26079SOL     OW80068  11.843   0.719   9.517
26079SOL    HW180069  11.915   0.753   9.571
26079SOL    HW280070  11.878   0.638   9.479
26080SOL     OW80071   0.271   2.314   6.501
26080SOL    HW180072   0.306   2.238   6.454
26080SOL    HW280073   0.272   2.384   6.435
26081SOL     OW80074   9.356  12.337   9.341
26081SOL    HW180075   9.346  12.336   9.436
26081SOL    HW280076   9.325  12.251   9.313
26082SOL     OW80077   6.456   9.635   6.255
26082SOL    HW180078   6.466   9.553   6.303
26082SOL    HW280079   6.488   9.616   6.167
26083SOL     OW80080   0.686  14.563   6.957
26083SOL    HW180081   0.638  14.645   6.943
26083SOL    HW280082   0.628  14.511   7.012
26084SOL     OW80083   0.725   8.318  10.915
26084SOL    HW180084   0.808   8.288  10.952
26084SOL    HW280085   0.728   8.290  10.824
26085SOL     OW80086   8.946  10.516  11.625
26085SOL    HW180087   8.967  10.523  11.718
26085SOL    HW280088   8.952  10.422  11.606
26086SOL     OW80089  10.613   3.759   6.676
26086SOL    HW180090  10.669   3.732   6.603
26086SOL    HW280091  10.641   3.704   6.749
26087SOL     OW80092  10.126   3.390   5.907
26087SOL    HW180093  10.073   3.360   5.981
26087SOL    HW280094  10.086   3.349   5.831
26088SOL     OW80095   3.338   9.352   5.923
26088SOL    HW180096   3.341   9.434   5.972
26088SOL    HW280097   3.316   9.286   5.989
26089SOL     OW80098   8.509   7.256   4.444
26089SOL    HW180099   8.500   7.205   4.364
26089SOL    HW280100   8.486   7.195   4.514
26090SOL     OW80101   1.302   0.621  10.589
26090SOL    HW180102   1.268   0.710  10.582
26090SOL    HW280103   1.226   0.565  10.577
26091SOL     OW80104   6.202  12.983   7.880
26091SOL    HW180105   6.152  12.982   7.798
26091SOL    HW280106   6.279  12.929   7.862
26092SOL     OW80107   4.526   2.228   8.796
26092SOL    HW180108   4.549   2.161   8.731
26092SOL    HW280109   4.585   2.212   8.869
26093SOL     OW80110  11.502  11.903   4.281
26093SOL    HW180111  11.459  11.958   4.215
26093SOL    HW280112  11.467  11.815   4.264
26094SOL     OW80113   1.023   7.329   8.567
26094SOL    HW180114   1.092   7.265   8.550
26094SOL    HW280115   1.065   7.414   8.560
26095SOL     OW80116  14.846   4.094   5.045
26095SOL    HW180117  14.810   4.019   5.093
26095SOL    HW280118   0.065   4.082   5.050
26096SOL     OW80119  11.583  11.760  10.232
26096SOL    HW180120  11.631  11.814  10.169
26096SOL    HW280121  11.499  11.742  10.190
26097SOL     OW80122   7.343  11.343   7.373
26097SOL    HW180123   7.390  11.270   7.414
26097SOL    HW280124   7.285  11.301   7.310
26098SOL     OW80125   7.524   5.637   0.078
26098SOL    HW180126   7.448   5.672   0.124
26098SOL    HW280127   7.558   5.568   0.135
26099SOL     OW80128  14.555   7.202  14.191
26099SOL    HW180129  14.642   7.207  14.150
26099SOL    HW280130  14.514   7.286  14.171
26100SOL     OW80131   1.854   1.018  14.659
26100SOL    HW180132   1.917   0.959  14.699
26100SOL    HW280133   1.884   1.026  14.568
26101SOL     OW80134  13.079   1.126   2.010
26101SOL    HW180135  13.036   1.206   1.978
26101SOL    HW280136  13.007   1.071   2.041
26102SOL     OW80137   3.720   3.354  12.749
26102SOL    HW180138   3.719   3.292  12.823
26102SOL    HW280139   3.628   3.372  12.732
26103SOL     OW80140   0.098   0.336   7.849
26103SOL    HW180141   0.049   0.385   7.783
26103SOL    HW280142   0.033   0.279   7.890
26104SOL     OW80143   1.331  10.705   2.473
26104SOL    HW180144   1.400  10.647   2.506
26104SOL    HW280145   1.310  10.671   2.386
26105SOL     OW80146   7.603   4.780   4.194
26105SOL    HW180147   7.610   4.837   4.118
26105SOL    HW280148   7.694   4.758   4.215
26106SOL     OW80149   8.280   5.784   5.233
26106SOL    HW180150   8.328   5.857   5.271
26106SOL    HW280151   8.200   5.778   5.285
26107SOL     OW80152   9.410   0.551   6.211
26107SOL    HW180153   9.437   0.463   6.185
26107SOL    HW280154   9.471   0.575   6.281
26108SOL     OW80155  14.563   9.907   4.225
26108SOL    HW180156  14.584   9.822   4.187
26108SOL    HW280157  14.483   9.935   4.180
26109SOL     OW80158   5.993   4.679   2.257
26109SOL    HW180159   5.944   4.606   2.294
26109SOL    HW280160   6.063   4.695   2.320
26110SOL     OW80161   8.916  14.698  13.001
26110SOL    HW180162   8.906  14.685  13.095
26110SOL    HW280163   8.829  14.683  12.965
26111SOL     OW80164   2.258   2.589  10.660
26111SOL    HW180165   2.298   2.519  10.712
26111SOL    HW280166   2.284   2.669  10.705
26112SOL     OW80167   2.248   9.014  14.706
26112SOL    HW180168   2.333   9.054  14.725
26112SOL    HW280169   2.184   9.078  14.737
26113SOL     OW80170   1.167  11.498  11.131
26113SOL    HW180171   1.113  11.419  11.129
26113SOL    HW280172   1.132  11.549  11.203
26114SOL     OW80173   0.177   2.003   3.100
26114SOL    HW180174   0.082   2.000   3.089
26114SOL    HW280175   0.202   1.912   3.117
26115SOL     OW80176  12.056   4.727  14.857
26115SOL    HW180177  12.047   4.722  14.762
26115SOL    HW280178  12.047   4.637   0.011
26116SOL     OW80179   2.006   3.725   2.427
26116SOL    HW180180   2.056   3.652   2.464
26116SOL    HW280181   1.915   3.697   2.433
26117SOL     OW80182  11.755   5.125  11.217
26117SOL    HW180183  11.733   5.178  11.293
26117SOL    HW280184  11.738   5.035  11.245
26118SOL     OW80185   0.728   8.680  13.157
26118SOL    HW180186   0.713   8.627  13.079
26118SOL    HW280187   0.718   8.770  13.127
26119SOL     OW80188  12.312   5.091  14.656
26119SOL    HW180189  12.296   5.020  14.719
26119SOL    HW280190  12.381   5.058  14.599
26120SOL     OW80191   7.262  11.941  11.920
26120SOL    HW180192   7.310  11.979  11.847
26120SOL    HW280193   7.329  11.920  11.985
26121SOL     OW80194   2.919  13.434  11.003
26121SOL    HW180195   2.992  13.489  10.975
26121SOL    HW280196   2.942  13.346  10.973
26122SOL     OW80197   1.073  12.956  14.344
26122SOL    HW180198   1.106  12.877  14.300
26122SOL    HW280199   1.143  12.980  14.405
26123SOL     OW80200   6.575   4.954   6.562
26123SOL    HW180201   6.483   4.969   6.585
26123SOL    HW280202   6.613   5.041   6.558
26124SOL     OW80203   2.904  10.802   4.275
26124SOL    HW180204   2.906  10.898   4.278
26124SOL    HW280205   2.907  10.782   4.181
26125SOL     OW80206   8.476  10.990   5.836
26125SOL    HW180207   8.541  10.922   5.857
26125SOL    HW280208   8.527  11.071   5.832
26126SOL     OW80209  10.290   9.820   7.861
26126SOL    HW180210  10.314   9.728   7.877
26126SOL    HW280211  10.373   9.867   7.870
26127SOL     OW80212   6.436   8.430  13.453
26127SOL    HW180213   6.369   8.447  13.519
26127SOL    HW280214   6.503   8.380  13.500
26128SOL     OW80215  11.741  12.054   4.719
26128SOL    HW180216  11.741  12.125   4.783
26128SOL    HW280217  11.728  12.098   4.635
26129SOL     OW80218   3.199  12.852  11.566
26129SOL    HW180219   3.179  12.872  11.475
26129SOL    HW280220   3.180  12.759  11.575
26130SOL     OW80221   0.678  11.698  10.398
26130SOL    HW180222   0.631  11.746  10.465
26130SOL    HW280223   0.770  11.699  10.427
26131SOL     OW80224   3.019  12.825   7.247
26131SOL    HW180225   2.996  12.866   7.331
26131SOL    HW280226   3.058  12.896   7.196
26132SOL     OW80227  13.826   4.850   0.486
26132SOL    HW180228  13.823   4.946   0.482
26132SOL    HW280229  13.743   4.822   0.447
26133SOL     OW80230  14.355  12.470   6.114
26133SOL    HW180231  14.420  12.423   6.166
26133SOL    HW280232  14.280  12.481   6.173
26134SOL     OW80233   4.744   2.936   7.369
26134SOL    HW180234   4.713   2.883   7.442
26134SOL    HW280235   4.826   2.974   7.400
26135SOL     OW80236   4.166   9.868   9.143
26135SOL    HW180237   4.103   9.797   9.156
26135SOL    HW280238   4.230   9.857   9.214
26136SOL     OW80239   9.392   7.036  10.665
26136SOL    HW180240   9.307   6.995  10.648
26136SOL    HW280241   9.454   6.963  10.664
26137SOL     OW80242   3.433  10.355   5.836
26137SOL    HW180243   3.511  10.378   5.887
26137SOL    HW280244   3.431  10.419   5.765
26138SOL     OW80245  11.071   6.588   1.772
26138SOL    HW180246  11.002   6.569   1.835
26138SOL    HW280247  11.055   6.527   1.699
26139SOL     OW80248   1.669   3.336  13.001
26139SOL    HW180249   1.676   3.425  12.965
26139SOL    HW280250   1.759   3.302  12.998
26140SOL     OW80251   9.839  12.037  12.556
26140SOL    HW180252   9.911  12.082  12.512
26140SOL    HW280253   9.782  12.008  12.485
26141SOL     OW80254   8.290  13.373   1.752
26141SOL    HW180255   8.357  13.433   1.721
26141SOL    HW280256   8.324  13.286   1.730
26142SOL     OW80257   4.822   7.099   2.488
26142SOL    HW180258   4.815   7.037   2.561
26142SOL    HW280259   4.854   7.180   2.528
26143SOL     OW80260   7.666  13.376   1.769
26143SOL    HW180261   7.670  13.416   1.682
26143SOL    HW280262   7.742  13.412   1.815
26144SOL     OW80263   7.099   0.150  12.243
26144SOL    HW180264   7.110   0.159  12.149
26144SOL    HW280265   7.020   0.098  12.254
26145SOL     OW80266   0.954   2.935  13.266
26145SOL    HW180267   0.920   2.867  13.325
26145SOL    HW280268   1.039   2.958  13.303
26146SOL     OW80269   3.489   3.800   1.703
26146SOL    HW180270   3.570   3.810   1.652
26146SOL    HW280271   3.422   3.841   1.650
26147SOL     OW80272   5.258   2.062   5.726
26147SOL    HW180273   5.230   2.033   5.639
26147SOL    HW280274   5.182   2.045   5.782
26148SOL     OW80275  10.184  13.177   3.866
26148SOL    HW180276  10.116  13.241   3.889
26148SOL    HW280277  10.201  13.193   3.773
26149SOL     OW80278  11.613   3.757  14.843
26149SOL    HW180279  11.528   3.746   0.010
26149SOL    HW280280  11.592   3.781  14.753
26150SOL     OW80281   3.199   6.401  11.391
26150SOL    HW180282   3.123   6.343  11.379
26150SOL    HW280283   3.254   6.356  11.455
26151SOL     OW80284   1.005   6.241   8.381
26151SOL    HW180285   1.043   6.167   8.428
26151SOL    HW280286   1.079   6.285   8.341
26152SOL     OW80287  13.589  10.457   7.671
26152SOL    HW180288  13.519  10.412   7.718
26152SOL    HW280289  13.548  10.536   7.636
26153SOL     OW80290  13.828  13.352  13.897
26153SOL    HW180291  13.836  13.427  13.839
26153SOL    HW280292  13.822  13.277  13.838
26154SOL     OW80293   8.234   6.123   5.460
26154SOL    HW180294   8.256   6.206   5.418
26154SOL    HW280295   8.318   6.081   5.476
26155SOL     OW80296   5.317   7.696   4.240
26155SOL    HW180297   5.367   7.775   4.257
26155SOL    HW280298   5.349   7.665   4.155
26156SOL     OW80299   5.692   2.268   3.185
26156SOL    HW180300   5.690   2.179   3.150
26156SOL    HW280301   5.635   2.264   3.262
26157SOL     OW80302  10.084   7.015   4.876
26157SOL    HW180303  10.105   7.036   4.966
26157SOL    HW280304  10.033   7.090   4.844
26158SOL     OW80305   1.254   4.124  11.032
26158SOL    HW180306   1.225   4.043  11.074
26158SOL    HW280307   1.181   4.184  11.041
26159SOL     OW80308   2.270  14.332   7.383
26159SOL    HW180309   2.201  14.340   7.317
26159SOL    HW280310   2.247  14.397   7.449
26160SOL     OW80311  13.975  14.530  10.577
26160SOL    HW180312  13.940  14.604  10.627
26160SOL    HW280313  14.051  14.501  10.626
26161SOL     OW80314   6.119  14.259   6.425
26161SOL    HW180315   6.112  14.341   6.475
26161SOL    HW280316   6.153  14.196   6.488
26162SOL     OW80317   8.022  10.669  12.533
26162SOL    HW180318   8.091  10.655  12.468
26162SOL    HW280319   7.995  10.760  12.521
26163SOL     OW80320   9.187   5.320   4.668
26163SOL    HW180321   9.144   5.237   4.691
26163SOL    HW280322   9.162   5.380   4.738
26164SOL     OW80323   3.647  14.188   7.987
26164SOL    HW180324   3.742  14.185   7.975
26164SOL    HW280325   3.635  14.196   8.082
26165SOL     OW80326   1.069  13.501   1.121
26165SOL    HW180327   0.993  13.444   1.107
26165SOL    HW280328   1.035  13.574   1.172
26166SOL     OW80329   4.519   7.831   2.228
26166SOL    HW180330   4.585   7.827   2.158
26166SOL    HW280331   4.503   7.924   2.240
26167SOL     OW80332   1.140  12.393   4.775
26167SOL    HW180333   1.137  12.482   4.810
26167SOL    HW280334   1.224  12.389   4.729
26168SOL     OW80335  13.454  12.684   8.993
26168SOL    HW180336  13.445  12.666   9.086
26168SOL    HW280337  13.496  12.606   8.957
26169SOL     OW80338   0.609   0.476   0.596
26169SOL    HW180339   0.694   0.435   0.609
26169SOL    HW280340   0.624   0.569   0.613
26170SOL     OW80341   4.249   3.751   2.533
26170SOL    HW180342   4.254   3.658   2.555
26170SOL    HW280343   4.161   3.776   2.560
26171SOL     OW80344   7.225   5.038   6.256
26171SOL    HW180345   7.135   5.031   6.288
26171SOL    HW280346   7.248   4.949   6.230
26172SOL     OW80347   0.235   9.576  10.966
26172SOL    HW180348   0.162   9.586  10.904
26172SOL    HW280349   0.310   9.614  10.921
26173SOL     OW80350   5.302   6.960   9.275
26173SOL    HW180351   5.391   6.992   9.282
26173SOL    HW280352   5.253   7.010   9.340
26174SOL     OW80353   4.925  12.351   6.280
26174SOL    HW180354   5.006  12.314   6.245
26174SOL    HW280355   4.921  12.320   6.370
26175SOL     OW80356  11.245   7.719  10.781
26175SOL    HW180357  11.283   7.788  10.836
26175SOL    HW280358  11.229   7.762  10.697
26176SOL     OW80359   0.305   9.473   2.333
26176SOL    HW180360   0.254   9.408   2.284
26176SOL    HW280361   0.339   9.532   2.266
26177SOL     OW80362   3.329  11.891  12.452
26177SOL    HW180363   3.258  11.948  12.483
26177SOL    HW280364   3.409  11.935  12.481
26178SOL     OW80365   0.478  13.184   0.913
26178SOL    HW180366   0.439  13.269   0.930
26178SOL    HW280367   0.545  13.174   0.980
26179SOL     OW80368  12.423  10.292   8.170
26179SOL    HW180369  12.372  10.211   8.181
26179SOL    HW280370  12.361  10.354   8.131
26180SOL     OW80371   2.637   9.860  11.278
26180SOL    HW180372   2.732   9.866  11.285
26180SOL    HW280373   2.615   9.773  11.311
26181SOL     OW80374   8.659  14.021   9.318
26181SOL    HW180375   8.665  13.926   9.310
26181SOL    HW280376   8.632  14.036   9.409
26182SOL     OW80377  10.759   2.892  14.493
26182SOL    HW180378  10.843   2.934  14.470
26182SOL    HW280379  10.758   2.891  14.589
26183SOL     OW80380   9.812   1.927  10.396
26183SOL    HW180381   9.870   1.859  10.429
26183SOL    HW280382   9.750   1.943  10.467
26184SOL     OW80383   4.032   2.889   3.600
26184SOL    HW180384   4.015   2.800   3.631
26184SOL    HW280385   4.027   2.944   3.678
26185SOL     OW80386  13.268   3.418  13.870
26185SOL    HW180387  13.252   3.469  13.949
26185SOL    HW280388  13.240   3.330  13.892
26186SOL     OW80389   2.247  10.217   8.396
26186SOL    HW180390   2.334  10.182   8.412
26186SOL    HW280391   2.207  10.156   8.334
26187SOL     OW80392   2.751  13.830   7.735
26187SOL    HW180393   2.797  13.911   7.716
26187SOL    HW280394   2.690  13.853   7.806
26188SOL     OW80395   5.807  11.914  11.494
26188SOL    HW180396   5.888  11.864  11.503
26188SOL    HW280397   5.834  12.005  11.504
26189SOL     OW80398  12.714   9.810   8.044
26189SOL    HW180399  12.626   9.789   8.011
26189SOL    HW280400  12.701   9.827   8.137
26190SOL     OW80401  11.748  10.667  12.031
26190SOL    HW180402  11.790  10.600  11.977
26190SOL    HW280403  11.743  10.629  12.118
26191SOL     OW80404   0.737   6.063   1.071
26191SOL    HW180405   0.717   6.111   0.990
26191SOL    HW280406   0.826   6.089   1.093
26192SOL     OW80407  14.074   9.558  11.803
26192SOL    HW180408  14.099   9.501  11.876
26192SOL    HW280409  14.120   9.521  11.728
26193SOL     OW80410   6.573   6.622   3.229
26193SOL    HW180411   6.530   6.682   3.290
26193SOL    HW280412   6.665   6.646   3.232
26194SOL     OW80413  11.421  11.977   2.250
26194SOL    HW180414  11.362  11.957   2.177
26194SOL    HW280415  11.372  12.039   2.303
26195SOL     OW80416  11.084   0.112  11.528
26195SOL    HW180417  11.124   0.102  11.615
26195SOL    HW280418  11.144   0.066  11.469
26196SOL     OW80419  11.912  13.414   7.133
26196SOL    HW180420  11.866  13.498   7.135
26196SOL    HW280421  11.980  13.427   7.066
26197SOL     OW80422   3.434   6.375  10.937
26197SOL    HW180423   3.368   6.401  10.872
26197SOL    HW280424   3.385   6.367  11.019
26198SOL     OW80425  11.767  14.611   1.762
26198SOL    HW180426  11.729  14.692   1.795
26198SOL    HW280427  11.725  14.542   1.813
26199SOL     OW80428  12.539  13.275   8.005
26199SOL    HW180429  12.630  13.248   8.018
26199SOL    HW280430  12.513  13.233   7.923
26200SOL     OW80431   8.511   2.200  13.056
26200SOL    HW180432   8.509   2.278  13.000
26200SOL    HW280433   8.581   2.217  13.119
26201SOL     OW80434   3.742   2.228   6.129
26201SOL    HW180435   3.705   2.142   6.150
26201SOL    HW280436   3.720   2.282   6.205
26202SOL     OW80437  13.985   1.417   6.269
26202SOL    HW180438  14.033   1.486   6.313
26202SOL    HW280439  14.000   1.432   6.176
26203SOL     OW80440  13.145  13.404   7.859
26203SOL    HW180441  13.113  13.333   7.915
26203SOL    HW280442  13.079  13.473   7.867
26204SOL     OW80443  13.562   7.419  13.647
26204SOL    HW180444  13.468   7.423  13.630
26204SOL    HW280445  13.602   7.455  13.568
26205SOL     OW80446   8.247   6.102   5.847
26205SOL    HW180447   8.223   6.016   5.814
26205SOL    HW280448   8.310   6.136   5.782
26206SOL     OW80449   5.526   9.806  10.763
26206SOL    HW180450   5.609   9.762  10.780
26206SOL    HW280451   5.464   9.735  10.745
26207SOL     OW80452   9.762  10.739   3.847
26207SOL    HW180453   9.839  10.761   3.899
26207SOL    HW280454   9.688  10.757   3.906
26208SOL     OW80455   0.238   0.119   0.271
26208SOL    HW180456   0.263   0.191   0.213
26208SOL    HW280457   0.219   0.161   0.354
26209SOL     OW80458   5.159   4.494   5.142
26209SOL    HW180459   5.235   4.490   5.084
26209SOL    HW280460   5.185   4.556   5.210
26210SOL     OW80461  11.650   4.526  11.252
26210SOL    HW180462  11.662   4.565  11.339
26210SOL    HW280463  11.720   4.564  11.199
26211SOL     OW80464   6.010  14.584   0.018
26211SOL    HW180465   6.025  14.544   0.104
26211SOL    HW280466   5.995  14.677   0.038
26212SOL     OW80467  10.560   8.616   1.098
26212SOL    HW180468  10.547   8.698   1.050
26212SOL    HW280469  10.520   8.631   1.183
26213SOL     OW80470   1.385   1.580   3.709
26213SOL    HW180471   1.393   1.627   3.626
26213SOL    HW280472   1.474   1.578   3.745
26214SOL     OW80473   6.686   5.693   5.295
26214SOL    HW180474   6.719   5.700   5.385
26214SOL    HW280475   6.715   5.775   5.253
26215SOL     OW80476   6.215   3.030   8.002
26215SOL    HW180477   6.279   2.974   7.957
26215SOL    HW280478   6.132   3.014   7.955
26216SOL     OW80479  13.913   5.341   7.333
26216SOL    HW180480  13.973   5.378   7.398
26216SOL    HW280481  13.928   5.247   7.337
26217SOL     OW80482   2.929   3.064   7.873
26217SOL    HW180483   2.871   3.137   7.896
26217SOL    HW280484   2.932   3.011   7.953
26218SOL     OW80485   3.956  12.679  11.443
26218SOL    HW180486   3.894  12.737  11.488
26218SOL    HW280487   4.038  12.691  11.489
26219SOL     OW80488   5.549   7.420  14.696
26219SOL    HW180489   5.638   7.423  14.661
26219SOL    HW280490   5.547   7.340  14.748
26220SOL     OW80491  12.917   0.848   0.034
26220SOL    HW180492  12.830   0.836  14.870
26220SOL    HW280493  12.912   0.933   0.077
26221SOL     OW80494   9.722   3.756   8.969
26221SOL    HW180495   9.675   3.718   8.895
26221SOL    HW280496   9.743   3.681   9.025
26222SOL     OW80497  10.472   3.224   2.335
26222SOL    HW180498  10.524   3.228   2.254
26222SOL    HW280499  10.464   3.315   2.363
26223SOL     OW80500   6.090   1.961   1.501
26223SOL    HW180501   6.178   1.947   1.536
26223SOL    HW280502   6.099   1.947   1.407
26224SOL     OW80503   2.407   3.252   9.891
26224SOL    HW180504   2.328   3.281   9.937
26224SOL    HW280505   2.434   3.172   9.936
26225SOL     OW80506  11.984  10.241   7.709
26225SOL    HW180507  12.038  10.166   7.686
26225SOL    HW280508  11.984  10.296   7.631
26226SOL     OW80509   7.855   4.743   4.289
26226SOL    HW180510   7.932   4.785   4.252
26226SOL    HW280511   7.882   4.713   4.375
26227SOL     OW80512   3.237   5.085  10.254
26227SOL    HW180513   3.179   5.023  10.210
26227SOL    HW280514   3.229   5.064  10.347
26228SOL     OW80515   1.561   1.389   5.764
26228SOL    HW180516   1.621   1.362   5.694
26228SOL    HW280517   1.474   1.378   5.726
26229SOL     OW80518  11.191   3.781   8.444
26229SOL    HW180519  11.250   3.839   8.396
26229SOL    HW280520  11.106   3.824   8.439
26230SOL     OW80521  11.650   3.965  13.764
26230SOL    HW180522  11.742   3.988  13.753
26230SOL    HW280523  11.618   4.025  13.831
26231SOL     OW80524   6.756  10.999   6.445
26231SOL    HW180525   6.699  10.975   6.518
26231SOL    HW280526   6.840  11.020   6.487
26232SOL     OW80527   7.320   5.322   3.738
26232SOL    HW180528   7.334   5.416   3.745
26232SOL    HW280529   7.240   5.305   3.786
26233SOL     OW80530   2.306   8.997   5.883
26233SOL    HW180531   2.338   8.933   5.819
26233SOL    HW280532   2.244   9.051   5.833
26234SOL     OW80533   0.377   8.248   2.982
26234SOL    HW180534   0.351   8.248   3.074
26234SOL    HW280535   0.454   8.190   2.979
26235SOL     OW80536  13.447   5.808   5.759
26235SOL    HW180537  13.373   5.813   5.698
26235SOL    HW280538  13.415   5.851   5.838
26236SOL     OW80539   8.088   2.188  12.151
26236SOL    HW180540   8.003   2.144  12.160
26236SOL    HW280541   8.069   2.280  12.167
26237SOL     OW80542   3.936  13.122   5.775
26237SOL    HW180543   4.030  13.132   5.758
26237SOL    HW280544   3.908  13.208   5.806
26238SOL     OW80545   5.907   5.141  10.522
26238SOL    HW180546   5.903   5.236  10.512
26238SOL    HW280547   5.834   5.108  10.470
26239SOL     OW80548  11.604   4.295  14.801
26239SOL    HW180549  11.667   4.366  14.795
26239SOL    HW280550  11.656   4.219  14.826
26240SOL     OW80551   6.841   5.890   9.423
26240SOL    HW180552   6.794   5.885   9.506
26240SOL    HW280553   6.873   5.981   9.419
26241SOL     OW80554   0.750  10.032  13.571
26241SOL    HW180555   0.689  10.103  13.589
26241SOL    HW280556   0.694   9.958  13.547
26242SOL     OW80557   4.434  11.716   4.945
26242SOL    HW180558   4.380  11.731   4.868
26242SOL    HW280559   4.434  11.621   4.957
26243SOL     OW80560   7.678   2.932   1.745
26243SOL    HW180561   7.585   2.944   1.725
26243SOL    HW280562   7.705   3.015   1.784
26244SOL     OW80563   5.014   5.542  13.967
26244SOL    HW180564   5.004   5.512  13.876
26244SOL    HW280565   5.102   5.513  13.992
26245SOL     OW80566  12.597  11.907  13.222
26245SOL    HW180567  12.689  11.885  13.228
26245SOL    HW280568  12.560  11.884  13.307
26246SOL     OW80569   0.549   9.745   9.087
26246SOL    HW180570   0.624   9.688   9.104
26246SOL    HW280571   0.571   9.826   9.132
26247SOL     OW80572   9.159  10.452  10.543
26247SOL    HW180573   9.077  10.493  10.516
26247SOL    HW280574   9.204  10.431  10.461
26248SOL     OW80575   1.737   2.656  13.422
26248SOL    HW180576   1.711   2.598  13.351
26248SOL    HW280577   1.806   2.609  13.468
26249SOL     OW80578  12.797   5.665   4.965
26249SOL    HW180579  12.835   5.748   4.993
26249SOL    HW280580  12.771   5.622   5.047
26250SOL     OW80581  14.036   5.841  12.200
26250SOL    HW180582  13.995   5.859  12.115
26250SOL    HW280583  14.105   5.907  12.207
26251SOL     OW80584   6.485  10.391   2.656
26251SOL    HW180585   6.404  10.372   2.704
26251SOL    HW280586   6.545  10.321   2.683
26252SOL     OW80587   5.955   6.846   6.715
26252SOL    HW180588   6.001   6.816   6.793
26252SOL    HW280589   6.003   6.806   6.642
26253SOL     OW80590   4.867   4.021   3.043
26253SOL    HW180591   4.912   4.104   3.025
26253SOL    HW280592   4.787   4.026   2.989
26254SOL     OW80593   5.463   3.724   2.598
26254SOL    HW180594   5.518   3.681   2.532
26254SOL    HW280595   5.482   3.677   2.679
26255SOL     OW80596  13.328   7.537  12.966
26255SOL    HW180597  13.310   7.481  12.890
26255SOL    HW280598  13.308   7.482  13.042
26256SOL     OW80599   7.886  10.450   3.832
26256SOL    HW180600   7.822  10.518   3.809
26256SOL    HW280601   7.925  10.425   3.749
26257SOL     OW80602   1.362  11.934  11.824
26257SOL    HW180603   1.339  11.936  11.917
26257SOL    HW280604   1.285  11.969  11.779
26258SOL     OW80605  13.539  13.575  11.856
26258SOL    HW180606  13.482  13.619  11.794
26258SOL    HW280607  13.587  13.511  11.804
26259SOL     OW80608   3.539   6.654   4.223
26259SOL    HW180609   3.503   6.716   4.287
26259SOL    HW280610   3.513   6.691   4.138
26260SOL     OW80611  10.108   0.158   3.741
26260SOL    HW180612  10.120   0.067   3.714
26260SOL    HW280613  10.188   0.179   3.791
26261SOL     OW80614   9.835  12.228  12.209
26261SOL    HW180615   9.742  12.220  12.227
26261SOL    HW280616   9.845  12.197  12.118
26262SOL     OW80617   4.731   7.993   4.557
26262SOL    HW180618   4.693   7.989   4.470
26262SOL    HW280619   4.806   7.934   4.554
26263SOL     OW80620   2.835   3.757   2.862
26263SOL    HW180621   2.809   3.834   2.912
26263SOL    HW280622   2.890   3.792   2.791
26264SOL     OW80623   3.695   0.993   3.799
26264SOL    HW180624   3.724   1.022   3.713
26264SOL    HW280625   3.774   0.962   3.843
26265SOL     OW80626   5.108   3.363   3.702
26265SOL    HW180627   5.021   3.339   3.732
26265SOL    HW280628   5.093   3.436   3.641
26266SOL     OW80629   8.862  14.792   4.265
26266SOL    HW180630   8.778  14.831   4.238
26266SOL    HW280631   8.900  14.761   4.183
26267SOL     OW80632  10.432   9.396  10.656
26267SOL    HW180633  10.474   9.344  10.587
26267SOL    HW280634  10.504   9.442  10.698
26268SOL     OW80635   8.733   7.282   3.575
26268SOL    HW180636   8.664   7.332   3.531
26268SOL    HW280637   8.694   7.255   3.658
26269SOL     OW80638   3.342  13.839  12.059
26269SOL    HW180639   3.426  13.884  12.052
26269SOL    HW280640   3.350  13.784  12.137
26270SOL     OW80641  11.185  13.176   6.573
26270SOL    HW180642  11.237  13.111   6.620
26270SOL    HW280643  11.249  13.233   6.530
26271SOL     OW80644   6.939  12.138   5.275
26271SOL    HW180645   6.966  12.071   5.338
26271SOL    HW280646   7.006  12.206   5.283
26272SOL     OW80647   9.133  11.900   5.145
26272SOL    HW180648   9.161  11.815   5.113
26272SOL    HW280649   9.048  11.915   5.102
26273SOL     OW80650   4.735   3.639  10.271
26273SOL    HW180651   4.690   3.696  10.209
26273SOL    HW280652   4.666   3.602  10.325
26274SOL     OW80653   7.367   0.604   5.057
26274SOL    HW180654   7.325   0.667   5.115
26274SOL    HW280655   7.346   0.519   5.096
26275SOL     OW80656   4.152   2.707   9.619
26275SOL    HW180657   4.225   2.758   9.654
26275SOL    HW280658   4.135   2.746   9.533
26276SOL     OW80659  10.201   2.866   6.374
26276SOL    HW180660  10.274   2.822   6.330
26276SOL    HW280661  10.134   2.798   6.384
26277SOL     OW80662  12.509   2.161  10.431
26277SOL    HW180663  12.599   2.163  10.465
26277SOL    HW280664  12.515   2.205  10.346
26278SOL     OW80665   7.698   8.250  12.857
26278SOL    HW180666   7.716   8.192  12.784
26278SOL    HW280667   7.776   8.306  12.864
26279SOL     OW80668  10.192   6.503  10.411
26279SOL    HW180669  10.230   6.522  10.325
26279SOL    HW280670  10.195   6.408  10.418
26280SOL     OW80671   6.278  12.571   7.863
26280SOL    HW180672   6.334  12.506   7.906
26280SOL    HW280673   6.270  12.642   7.926
26281SOL     OW80674   8.346  13.418   7.838
26281SOL    HW180675   8.390  13.365   7.903
26281SOL    HW280676   8.412  13.482   7.810
26282SOL     OW80677   3.064   1.665   0.232
26282SOL    HW180678   2.985   1.717   0.249
26282SOL    HW280679   3.084   1.624   0.316
26283SOL     OW80680   2.342  11.058   3.525
26283SOL    HW180681   2.276  11.006   3.479
26283SOL    HW280682   2.298  11.141   3.543
26284SOL     OW80683   6.572   9.418   9.559
26284SOL    HW180684   6.510   9.353   9.593
26284SOL    HW280685   6.589   9.390   9.469
26285SOL     OW80686   7.679  11.051   2.765
26285SOL    HW180687   7.738  11.076   2.836
26285SOL    HW280688   7.594  11.086   2.791
26286SOL     OW80689  10.823  11.508   5.216
26286SOL    HW180690  10.806  11.418   5.242
26286SOL    HW280691  10.901  11.502   5.160
26287SOL     OW80692  14.425   0.136   0.157
26287SOL    HW180693  14.330   0.133   0.165
26287SOL    HW280694  14.446   0.229   0.147
26288SOL     OW80695   6.973   1.582  13.687
26288SOL    HW180696   7.000   1.508  13.633
26288SOL    HW280697   7.040   1.649  13.672
26289SOL     OW80698   9.306  14.650   9.419
26289SOL    HW180699   9.291  14.671   9.511
26289SOL    HW280700   9.290  14.556   9.413
26290SOL     OW80701   6.199   6.724   4.060
26290SOL    HW180702   6.169   6.654   4.002
26290SOL    HW280703   6.139   6.719   4.135
26291SOL     OW80704   7.530   0.097   4.463
26291SOL    HW180705   7.513   0.045   4.384
26291SOL    HW280706   7.449   0.089   4.514
26292SOL     OW80707   9.154  11.697   2.738
26292SOL    HW180708   9.112  11.781   2.754
26292SOL    HW280709   9.179  11.700   2.645
26293SOL     OW80710   0.282   9.125   7.942
26293SOL    HW180711   0.293   9.046   7.994
26293SOL    HW280712   0.351   9.184   7.972
26294SOL     OW80713   6.089   6.970   2.558
26294SOL    HW180714   6.062   6.992   2.469
26294SOL    HW280715   6.155   6.902   2.547
26295SOL     OW80716   1.576  12.657   5.735
26295SOL    HW180717   1.606  12.687   5.649
26295SOL    HW280718   1.640  12.693   5.796
26296SOL     OW80719   7.469   0.945   9.698
26296SOL    HW180720   7.403   0.915   9.761
26296SOL    HW280721   7.441   1.034   9.675
26297SOL     OW80722  14.466  12.303  12.092
26297SOL    HW180723  14.539  12.266  12.043
26297SOL    HW280724  14.495  12.301  12.183
26298SOL     OW80725  10.017   6.023   3.801
26298SOL    HW180726  10.091   6.065   3.757
26298SOL    HW280727  10.048   6.005   3.889
26299SOL     OW80728   0.961  14.251  12.683
26299SOL    HW180729   0.978  14.228  12.774
26299SOL    HW280730   1.021  14.322  12.664
26300SOL     OW80731   7.628   6.023   6.103
26300SOL    HW180732   7.709   5.999   6.059
26300SOL    HW280733   7.645   6.110   6.138
26301SOL     OW80734   3.579   0.857   8.923
26301SOL    HW180735   3.614   0.927   8.868
26301SOL    HW280736   3.534   0.799   8.862
26302SOL     OW80737   6.656  12.946   7.618
26302SOL    HW180738   6.668  13.019   7.678
26302SOL    HW280739   6.583  12.897   7.654
26303SOL     OW80740   7.550   8.665  11.160
26303SOL    HW180741   7.546   8.761  11.159
26303SOL    HW280742   7.544   8.639  11.068
26304SOL     OW80743  10.977   1.597  13.236
26304SOL    HW180744  10.956   1.609  13.143
26304SOL    HW280745  10.965   1.503  13.251
26305SOL     OW80746   9.886  12.801   8.655
26305SOL    HW180747   9.842  12.756   8.583
26305SOL    HW280748   9.977  12.809   8.626
26306SOL     OW80749  10.228   7.035   4.203
26306SOL    HW180750  10.224   7.081   4.287
26306SOL    HW280751  10.190   7.096   4.140
26307SOL     OW80752   0.283   4.312  13.733
26307SOL    HW180753   0.370   4.296  13.771
26307SOL    HW280754   0.288   4.401  13.699
26308SOL     OW80755   6.184  13.506   2.380
26308SOL    HW180756   6.094  13.478   2.359
26308SOL    HW280757   6.176  13.599   2.400
26309SOL     OW80758   8.919   2.110   5.367
26309SOL    HW180759   8.927   2.085   5.276
26309SOL    HW280760   8.828   2.140   5.376
26310SOL     OW80761  11.555  14.226   3.867
26310SOL    HW180762  11.569  14.320   3.856
26310SOL    HW280763  11.492  14.219   3.938
26311SOL     OW80764  11.299   2.447  11.401
26311SOL    HW180765  11.211   2.410  11.405
26311SOL    HW280766  11.357   2.372  11.420
26312SOL     OW80767  12.716  11.956  10.660
26312SOL    HW180768  12.707  12.032  10.603
26312SOL    HW280769  12.643  11.963  10.722
26313SOL     OW80770   9.457  14.303   4.453
26313SOL    HW180771   9.469  14.379   4.396
26313SOL    HW280772   9.370  14.270   4.431
26314SOL     OW80773  10.252   2.040   8.947
26314SOL    HW180774  10.202   2.043   8.866
26314SOL    HW280775  10.340   2.014   8.920
26315SOL     OW80776   1.132  10.727   4.916
26315SOL    HW180777   1.168  10.653   4.965
26315SOL    HW280778   1.038  10.724   4.933
26316SOL     OW80779   3.015   7.941   7.593
26316SOL    HW180780   2.928   7.908   7.568
26316SOL    HW280781   3.046   7.879   7.659
26317SOL     OW80782   9.199  12.449   7.348
26317SOL    HW180783   9.242  12.372   7.386
26317SOL    HW280784   9.108  12.440   7.374
26318SOL     OW80785   3.421   0.391  10.349
26318SOL    HW180786   3.368   0.363  10.424
26318SOL    HW280787   3.508   0.406  10.387
26319SOL     OW80788  14.436   4.902   6.168
26319SOL    HW180789  14.354   4.890   6.216
26319SOL    HW280790  14.484   4.821   6.183
26320SOL     OW80791   3.058  10.575  10.897
26320SOL    HW180792   3.026  10.653  10.853
26320SOL    HW280793   2.980  10.533  10.933
26321SOL     OW80794  10.789  14.743   5.211
26321SOL    HW180795  10.746  14.692   5.142
26321SOL    HW280796  10.802  14.680   5.282
26322SOL     OW80797   2.016   4.381   3.301
26322SOL    HW180798   2.010   4.390   3.396
26322SOL    HW280799   1.926   4.393   3.270
26323SOL     OW80800  14.582  13.166   7.665
26323SOL    HW180801  14.540  13.128   7.588
26323SOL    HW280802  14.635  13.095   7.702
26324SOL     OW80803   8.801   0.086   9.773
26324SOL    HW180804   8.852   0.006   9.761
26324SOL    HW280805   8.784   0.089   9.868
26325SOL     OW80806   9.078   0.091   5.676
26325SOL    HW180807   9.035   0.013   5.641
26325SOL    HW280808   9.171   0.079   5.654
26326SOL     OW80809  12.043   1.421   7.506
26326SOL    HW180810  12.074   1.369   7.433
26326SOL    HW280811  12.054   1.365   7.583
26327SOL     OW80812   5.032   3.534   7.431
26327SOL    HW180813   5.067   3.458   7.478
26327SOL    HW280814   4.940   3.539   7.458
26328SOL     OW80815  14.733  12.917   8.057
26328SOL    HW180816  14.641  12.905   8.034
26328SOL    HW280817  14.750  12.852   8.125
26329SOL     OW80818  10.032   9.116  13.427
26329SOL    HW180819  10.084   9.066  13.490
26329SOL    HW280820  10.056   9.207  13.443
26330SOL     OW80821   6.863  10.393   5.225
26330SOL    HW180822   6.932  10.460   5.225
26330SOL    HW280823   6.845  10.377   5.133
26331SOL     OW80824   8.048   4.059   1.263
26331SOL    HW180825   8.088   4.122   1.323
26331SOL    HW280826   7.954   4.065   1.282
26332SOL     OW80827  13.052  10.499   8.891
26332SOL    HW180828  12.964  10.480   8.857
26332SOL    HW280829  13.083  10.415   8.924
26333SOL     OW80830   2.399  11.503  12.901
26333SOL    HW180831   2.328  11.475  12.843
26333SOL    HW280832   2.359  11.568  12.958
26334SOL     OW80833  14.361  13.590   0.455
26334SOL    HW180834  14.323  13.607   0.541
26334SOL    HW280835  14.435  13.532   0.473
26335SOL     OW80836  13.460  13.616   0.344
26335SOL    HW180837  13.469  13.674   0.420
26335SOL    HW280838  13.401  13.663   0.285
26336SOL     OW80839   7.654   1.335  11.974
26336SOL    HW180840   7.645   1.298  11.886
26336SOL    HW280841   7.628   1.427  11.965
26337SOL     OW80842   1.637   6.688   2.436
26337SOL    HW180843   1.667   6.692   2.527
26337SOL    HW280844   1.562   6.747   2.433
26338SOL     OW80845   6.853   2.660  10.933
26338SOL    HW180846   6.819   2.704  10.855
26338SOL    HW280847   6.946   2.645  10.914
26339SOL     OW80848   8.858   2.222   6.014
26339SOL    HW180849   8.772   2.247   6.048
26339SOL    HW280850   8.920   2.273   6.066
26340SOL     OW80851  14.120  13.421  10.358
26340SOL    HW180852  14.162  13.345  10.318
26340SOL    HW280853  14.188  13.458  10.415
26341SOL     OW80854   0.187  10.886   0.500
26341SOL    HW180855   0.256  10.857   0.559
26341SOL    HW280856   0.233  10.938   0.434
26342SOL     OW80857  13.587   6.215   0.677
26342SOL    HW180858  13.512   6.265   0.645
26342SOL    HW280859  13.602   6.248   0.765
26343SOL     OW80860   7.215  12.788   5.636
26343SOL    HW180861   7.122  12.794   5.617
26343SOL    HW280862   7.247  12.716   5.581
26344SOL     OW80863  12.531   4.900   0.484
26344SOL    HW180864  12.497   4.897   0.574
26344SOL    HW280865  12.535   4.993   0.463
26345SOL     OW80866  13.370   7.294   9.686
26345SOL    HW180867  13.459   7.290   9.722
26345SOL    HW280868  13.373   7.368   9.626
26346SOL     OW80869  12.956  12.155  14.680
26346SOL    HW180870  12.962  12.123  14.590
26346SOL    HW280871  13.011  12.096  14.731
26347SOL     OW80872  11.236   2.958   4.905
26347SOL    HW180873  11.310   2.943   4.847
26347SOL    HW280874  11.264   2.924   4.990
26348SOL     OW80875   5.197   5.038   9.172
26348SOL    HW180876   5.156   5.064   9.089
26348SOL    HW280877   5.124   5.019   9.230
26349SOL     OW80878  14.544   4.062   6.563
26349SOL    HW180879  14.589   3.988   6.603
26349SOL    HW280880  14.492   4.024   6.492
26350SOL     OW80881   8.661   5.744   0.773
26350SOL    HW180882   8.643   5.650   0.765
26350SOL    HW280883   8.757   5.749   0.779
26351SOL     OW80884  11.426  11.132   3.196
26351SOL    HW180885  11.495  11.143   3.131
26351SOL    HW280886  11.426  11.214   3.245
26352SOL     OW80887  10.519  13.566   1.803
26352SOL    HW180888  10.554  13.482   1.834
26352SOL    HW280889  10.438  13.543   1.758
26353SOL     OW80890  11.478   7.118  11.213
26353SOL    HW180891  11.561   7.085  11.247
26353SOL    HW280892  11.411   7.071  11.263
26354SOL     OW80893   2.316   1.025  10.102
26354SOL    HW180894   2.230   0.998  10.135
26354SOL    HW280895   2.297   1.096  10.041
26355SOL     OW80896  10.347   4.544   7.267
26355SOL    HW180897  10.252   4.549   7.266
26355SOL    HW280898  10.370   4.485   7.196
26356SOL     OW80899   0.414   2.831   9.661
26356SOL    HW180900   0.340   2.835   9.600
26356SOL    HW280901   0.480   2.779   9.615
26357SOL     OW80902  14.677  14.135  13.723
26357SOL    HW180903  14.705  14.043  13.721
26357SOL    HW280904  14.584  14.132  13.700
26358SOL     OW80905   3.384  13.318   6.980
26358SOL    HW180906   3.411  13.398   6.935
26358SOL    HW280907   3.332  13.348   7.054
26359SOL     OW80908   2.462   7.793  10.969
26359SOL    HW180909   2.380   7.842  10.979
26359SOL    HW280910   2.435   7.701  10.971
26360SOL     OW80911  13.220   6.613  14.123
26360SOL    HW180912  13.239   6.535  14.176
26360SOL    HW280913  13.124   6.616  14.120
26361SOL     OW80914  13.700  11.381   2.594
26361SOL    HW180915  13.744  11.466   2.601
26361SOL    HW280916  13.607  11.402   2.584
26362SOL     OW80917   4.767   7.439   1.106
26362SOL    HW180918   4.674   7.427   1.126
26362SOL    HW280919   4.776   7.403   1.017
26363SOL     OW80920   4.056   4.685   0.730
26363SOL    HW180921   4.140   4.648   0.703
26363SOL    HW280922   4.076   4.776   0.753
26364SOL     OW80923   5.030   2.770   8.136
26364SOL    HW180924   5.060   2.801   8.050
26364SOL    HW280925   4.982   2.690   8.118
26365SOL     OW80926   3.900   6.092  12.455
26365SOL    HW180927   3.916   6.082  12.549
26365SOL    HW280928   3.817   6.048  12.439
26366SOL     OW80929   6.648   3.834   0.810
26366SOL    HW180930   6.584   3.896   0.776
26366SOL    HW280931   6.691   3.799   0.732
26367SOL     OW80932   3.732   7.617   8.569
26367SOL    HW180933   3.756   7.553   8.501
26367SOL    HW280934   3.637   7.619   8.567
26368SOL     OW80935   6.629   4.334   7.416
26368SOL    HW180936   6.534   4.335   7.422
26368SOL    HW280937   6.648   4.320   7.324
26369SOL     OW80938   9.604   6.858   1.442
26369SOL    HW180939   9.640   6.778   1.480
26369SOL    HW280940   9.515   6.835   1.418
26370SOL     OW80941   6.683   3.266   4.595
26370SOL    HW180942   6.641   3.351   4.584
26370SOL    HW280943   6.765   3.285   4.640
26371SOL     OW80944  13.346   6.259   0.462
26371SOL    HW180945  13.281   6.295   0.403
26371SOL    HW280946  13.330   6.165   0.461
26372SOL     OW80947   3.177   2.746   5.333
26372SOL    HW180948   3.120   2.695   5.391
26372SOL    HW280949   3.246   2.779   5.390
26373SOL     OW80950  14.661   3.786   2.960
26373SOL    HW180951  14.629   3.718   2.900
26373SOL    HW280952  14.626   3.761   3.045
26374SOL     OW80953  12.337  10.452   6.568
26374SOL    HW180954  12.298  10.540   6.573
26374SOL    HW280955  12.417  10.464   6.517
26375SOL     OW80956  11.894   8.243   3.904
26375SOL    HW180957  11.843   8.322   3.921
26375SOL    HW280958  11.985   8.269   3.920
26376SOL     OW80959   2.439   7.167   3.488
26376SOL    HW180960   2.499   7.227   3.533
26376SOL    HW280961   2.378   7.138   3.557
26377SOL     OW80962  12.747   5.269   5.426
26377SOL    HW180963  12.799   5.191   5.410
26377SOL    HW280964  12.668   5.237   5.470
26378SOL     OW80965  13.484   0.986  13.167
26378SOL    HW180966  13.453   1.024  13.085
26378SOL    HW280967  13.405   0.950  13.208
26379SOL     OW80968  11.922  12.970   7.240
26379SOL    HW180969  11.882  13.055   7.254
26379SOL    HW280970  11.989  12.986   7.173
26380SOL     OW80971   1.301   5.527  12.935
26380SOL    HW180972   1.367   5.596  12.931
26380SOL    HW280973   1.305   5.496  13.025
26381SOL     OW80974  10.284   0.783   4.809
26381SOL    HW180975  10.302   0.840   4.734
26381SOL    HW280976  10.363   0.729   4.818
26382SOL     OW80977   1.369  12.836  10.723
26382SOL    HW180978   1.364  12.893  10.646
26382SOL    HW280979   1.460  12.844  10.752
26383SOL     OW80980  11.637   8.363  14.402
26383SOL    HW180981  11.724   8.331  14.378
26383SOL    HW280982  11.583   8.284  14.409
26384SOL     OW80983  11.784   5.851  13.931
26384SOL    HW180984  11.764   5.906  13.856
26384SOL    HW280985  11.756   5.763  13.904
26385SOL     OW80986  13.108   1.246   8.759
26385SOL    HW180987  13.063   1.172   8.719
26385SOL    HW280988  13.124   1.219   8.849
26386SOL     OW80989   8.445   3.635   6.494
26386SOL    HW180990   8.431   3.690   6.572
26386SOL    HW280991   8.509   3.684   6.442
26387SOL     OW80992  14.407  11.226   0.886
26387SOL    HW180993  14.495  11.261   0.874
26387SOL    HW280994  14.386  11.184   0.802
26388SOL     OW80995   0.426   5.812  12.304
26388SOL    HW180996   0.451   5.898  12.339
26388SOL    HW280997   0.476   5.750  12.356
26389SOL     OW80998   0.796   5.856   3.151
26389SOL    HW180999   0.789   5.767   3.115
26389SOL    HW281000   0.887   5.882   3.133
26390SOL     OW81001   7.943   5.815   3.649
26390SOL    HW181002   7.888   5.865   3.590
26390SOL    HW281003   7.903   5.728   3.652
26391SOL     OW81004   6.891   4.513   3.203
26391SOL    HW181005   6.971   4.558   3.177
26391SOL    HW281006   6.833   4.582   3.236
26392SOL     OW81007   2.151   0.616   7.105
26392SOL    HW181008   2.136   0.708   7.125
26392SOL    HW281009   2.205   0.617   7.026
26393SOL     OW81010   3.953   2.396   6.663
26393SOL    HW181011   3.941   2.453   6.739
26393SOL    HW281012   3.927   2.309   6.694
26394SOL     OW81013   5.100   8.038  10.863
26394SOL    HW181014   5.042   8.015  10.791
26394SOL    HW281015   5.094   7.963  10.923
26395SOL     OW81016   6.866   5.713   7.711
26395SOL    HW181017   6.959   5.719   7.732
26395SOL    HW281018   6.851   5.784   7.648
26396SOL     OW81019  14.133   1.324  14.748
26396SOL    HW181020  14.155   1.364  14.832
26396SOL    HW281021  14.069   1.256  14.770
26397SOL     OW81022   4.601  10.554   0.505
26397SOL    HW181023   4.612  10.608   0.427
26397SOL    HW281024   4.682  10.566   0.555
26398SOL     OW81025   9.241   9.294   7.411
26398SOL    HW181026   9.211   9.381   7.436
26398SOL    HW281027   9.285   9.306   7.327
26399SOL     OW81028   3.759  12.776   7.376
26399SOL    HW181029   3.780  12.832   7.302
26399SOL    HW281030   3.813  12.809   7.447
26400SOL     OW81031   8.503   4.865   9.508
26400SOL    HW181032   8.536   4.948   9.544
26400SOL    HW281033   8.565   4.799   9.539
26401SOL     OW81034   7.111   2.786  10.042
26401SOL    HW181035   7.114   2.791   9.946
26401SOL    HW281036   7.051   2.713  10.059
26402SOL     OW81037   2.621   1.137   3.583
26402SOL    HW181038   2.573   1.056   3.567
26402SOL    HW281039   2.705   1.124   3.540
26403SOL     OW81040  14.327   4.539  10.594
26403SOL    HW181041  14.411   4.551  10.639
26403SOL    HW281042  14.344   4.565  10.504
26404SOL     OW81043  11.130   4.368  13.538
26404SOL    HW181044  11.040   4.337  13.525
26404SOL    HW281045  11.120   4.454  13.578
26405SOL     OW81046  12.152   0.701  11.655
26405SOL    HW181047  12.123   0.700  11.746
26405SOL    HW281048  12.237   0.657  11.656
26406SOL     OW81049  11.333  12.799   6.000
26406SOL    HW181050  11.282  12.852   6.062
26406SOL    HW281051  11.420  12.840   6.000
26407SOL     OW81052   2.459   8.248  11.260
26407SOL    HW181053   2.469   8.176  11.322
26407SOL    HW281054   2.383   8.296  11.292
26408SOL     OW81055   6.923   3.075   3.420
26408SOL    HW181056   7.016   3.082   3.439
26408SOL    HW281057   6.917   3.086   3.325
26409SOL     OW81058   5.166  13.536   8.982
26409SOL    HW181059   5.230  13.480   9.025
26409SOL    HW281060   5.195  13.625   8.998
26410SOL     OW81061  14.231   7.599   7.077
26410SOL    HW181062  14.264   7.653   7.005
26410SOL    HW281063  14.183   7.528   7.034
26411SOL     OW81064  11.781   0.952   9.093
26411SOL    HW181065  11.718   1.023   9.105
26411SOL    HW281066  11.820   0.939   9.179
26412SOL     OW81067   7.410  12.865   1.157
26412SOL    HW181068   7.475  12.887   1.090
26412SOL    HW281069   7.450  12.795   1.208
26413SOL     OW81070  11.643   9.845   0.907
26413SOL    HW181071  11.717   9.886   0.951
26413SOL    HW281072  11.597   9.799   0.977
26414SOL     OW81073   2.989   5.439   3.224
26414SOL    HW181074   2.926   5.489   3.171
26414SOL    HW281075   3.039   5.505   3.271
26415SOL     OW81076  10.754   0.704   2.895
26415SOL    HW181077  10.846   0.719   2.916
26415SOL    HW281078  10.745   0.733   2.804
26416SOL     OW81079   7.520   8.466   3.505
26416SOL    HW181080   7.582   8.538   3.519
26416SOL    HW281081   7.492   8.442   3.593
26417SOL     OW81082  11.067  12.495   7.894
26417SOL    HW181083  11.152  12.482   7.936
26417SOL    HW281084  11.012  12.424   7.927
26418SOL     OW81085   0.102  14.701   2.884
26418SOL    HW181086   0.022  14.722   2.932
26418SOL    HW281087   0.090  14.611   2.855
26419SOL     OW81088   1.839   2.897  13.483
26419SOL    HW181089   1.918   2.861  13.522
26419SOL    HW281090   1.793   2.821  13.447
26420SOL     OW81091   3.106   1.616   9.293
26420SOL    HW181092   3.115   1.708   9.266
26420SOL    HW281093   3.194   1.580   9.281
26421SOL     OW81094  10.605  12.824   7.998
26421SOL    HW181095  10.588  12.837   7.904
26421SOL    HW281096  10.681  12.764   8.000
26422SOL     OW81097   2.969  10.895  12.061
26422SOL    HW181098   3.047  10.927  12.105
26422SOL    HW281099   2.984  10.801  12.052
26423SOL     OW81100   4.220  13.405   8.393
26423SOL    HW181101   4.289  13.409   8.327
26423SOL    HW281102   4.239  13.477   8.453
26424SOL     OW81103   3.630  10.902  10.923
26424SOL    HW181104   3.538  10.924  10.938
26424SOL    HW281105   3.638  10.896  10.828
26425SOL     OW81106   7.566  14.033   4.190
26425SOL    HW181107   7.556  13.944   4.155
26425SOL    HW281108   7.484  14.077   4.166
26426SOL     OW81109   0.392   9.913   7.940
26426SOL    HW181110   0.459   9.972   7.905
26426SOL    HW281111   0.314   9.934   7.889
26427SOL     OW81112   2.331  12.812   4.109
26427SOL    HW181113   2.307  12.770   4.026
26427SOL    HW281114   2.426  12.819   4.106
26428SOL     OW81115   5.872   6.471   9.250
26428SOL    HW181116   5.873   6.485   9.155
26428SOL    HW281117   5.787   6.431   9.268
26429SOL     OW81118  13.718   8.070   2.771
26429SOL    HW181119  13.671   8.039   2.694
26429SOL    HW281120  13.672   8.150   2.796
26430SOL     OW81121  10.568   9.784   3.872
26430SOL    HW181122  10.554   9.760   3.964
26430SOL    HW281123  10.566   9.880   3.872
26431SOL     OW81124   9.055   4.496   5.405
26431SOL    HW181125   9.122   4.430   5.388
26431SOL    HW281126   9.049   4.501   5.500
26432SOL     OW81127  12.020   9.771   7.664
26432SOL    HW181128  11.928   9.795   7.668
26432SOL    HW281129  12.031   9.734   7.576
26433SOL     OW81130  14.667   7.161   8.298
26433SOL    HW181131  14.587   7.205   8.327
26433SOL    HW281132  14.642   7.070   8.284
26434SOL     OW81133   6.674   8.308   0.497
26434SOL    HW181134   6.616   8.384   0.488
26434SOL    HW281135   6.738   8.335   0.563
26435SOL     OW81136  11.057  12.121   0.182
26435SOL    HW181137  11.026  12.203   0.144
26435SOL    HW281138  11.114  12.148   0.254
26436SOL     OW81139   2.821   3.877   9.989
26436SOL    HW181140   2.860   3.829  10.062
26436SOL    HW281141   2.823   3.816   9.916
26437SOL     OW81142   4.854   6.638   2.395
26437SOL    HW181143   4.765   6.610   2.417
26437SOL    HW281144   4.899   6.642   2.480
26438SOL     OW81145   1.972   2.935   1.694
26438SOL    HW181146   2.042   2.909   1.754
26438SOL    HW281147   1.919   2.856   1.683
26439SOL     OW81148   2.170   9.537  11.180
26439SOL    HW181149   2.182   9.442  11.188
26439SOL    HW281150   2.215   9.573  11.256
26440SOL     OW81151  13.437   5.177   5.007
26440SOL    HW181152  13.526   5.167   5.041
26440SOL    HW281153  13.445   5.156   4.914
26441SOL     OW81154  14.342   5.335   5.375
26441SOL    HW181155  14.422   5.329   5.323
26441SOL    HW281156  14.371   5.366   5.461
26442SOL     OW81157   1.773   4.458   3.126
26442SOL    HW181158   1.804   4.548   3.137
26442SOL    HW281159   1.742   4.454   3.036
26443SOL     OW81160   8.947   4.584   8.465
26443SOL    HW181161   8.856   4.609   8.482
26443SOL    HW281162   8.951   4.490   8.486
26444SOL     OW81163   5.148  10.007   5.254
26444SOL    HW181164   5.159  10.010   5.159
26444SOL    HW281165   5.134   9.914   5.273
26445SOL     OW81166   1.635   3.531   5.480
26445SOL    HW181167   1.668   3.517   5.569
26445SOL    HW281168   1.686   3.472   5.425
26446SOL     OW81169   5.302  10.523   8.188
26446SOL    HW181170   5.311  10.519   8.284
26446SOL    HW281171   5.328  10.613   8.166
26447SOL     OW81172   2.061   7.802   0.688
26447SOL    HW181173   2.089   7.811   0.779
26447SOL    HW281174   2.142   7.810   0.637
26448SOL     OW81175  10.062   1.686   2.610
26448SOL    HW181176   9.970   1.698   2.636
26448SOL    HW281177  10.098   1.775   2.613
26449SOL     OW81178   9.325   3.127   7.831
26449SOL    HW181179   9.420   3.128   7.837
26449SOL    HW281180   9.300   3.038   7.858
26450SOL     OW81181  13.283   3.529   9.178
26450SOL    HW181182  13.295   3.617   9.214
26450SOL    HW281183  13.195   3.503   9.206
26451SOL     OW81184   1.846   3.838  11.759
26451SOL    HW181185   1.849   3.824  11.854
26451SOL    HW281186   1.884   3.925  11.746
26452SOL     OW81187   3.243  13.211  10.086
26452SOL    HW181188   3.337  13.224  10.092
26452SOL    HW281189   3.206  13.299  10.085
26453SOL     OW81190   2.886   8.819   7.499
26453SOL    HW181191   2.870   8.907   7.534
26453SOL    HW281192   2.943   8.778   7.564
26454SOL     OW81193  13.136   9.641   8.145
26454SOL    HW181194  13.222   9.627   8.184
26454SOL    HW281195  13.081   9.572   8.182
26455SOL     OW81196   0.749  13.130   1.105
26455SOL    HW181197   0.770  13.222   1.089
26455SOL    HW281198   0.832  13.084   1.089
26456SOL     OW81199  10.893  14.376   1.792
26456SOL    HW181200  10.985  14.396   1.812
26456SOL    HW281201  10.873  14.299   1.846
26457SOL     OW81202   6.394   5.439   7.042
26457SOL    HW181203   6.303   5.412   7.026
26457SOL    HW281204   6.425   5.376   7.107
26458SOL     OW81205  10.406   8.716  10.780
26458SOL    HW181206  10.399   8.631  10.737
26458SOL    HW281207  10.490   8.714  10.824
26459SOL     OW81208   5.189   1.308   0.066
26459SOL    HW181209   5.144   1.229   0.036
26459SOL    HW281210   5.259   1.321   0.003
26460SOL     OW81211  14.513   6.469   5.218
26460SOL    HW181212  14.597   6.502   5.250
26460SOL    HW281213  14.534   6.432   5.132
26461SOL     OW81214   2.623  11.311   7.765
26461SOL    HW181215   2.674  11.372   7.819
26461SOL    HW281216   2.689  11.267   7.711
26462SOL     OW81217   0.888  12.984   7.516
26462SOL    HW181218   0.932  13.068   7.505
26462SOL    HW281219   0.801  12.997   7.478
26463SOL     OW81220   1.272  10.641   1.176
26463SOL    HW181221   1.213  10.579   1.219
26463SOL    HW281222   1.282  10.607   1.087
26464SOL     OW81223  10.794   4.017   7.325
26464SOL    HW181224  10.880   3.993   7.290
26464SOL    HW281225  10.756   3.935   7.355
26465SOL     OW81226   6.440  13.163   5.223
26465SOL    HW181227   6.407  13.073   5.225
26465SOL    HW281228   6.452  13.183   5.130
26466SOL     OW81229   2.024   1.222   0.795
26466SOL    HW181230   1.930   1.227   0.812
26466SOL    HW281231   2.039   1.286   0.725
26467SOL     OW81232   4.321   0.796   6.713
26467SOL    HW181233   4.334   0.786   6.619
26467SOL    HW281234   4.248   0.858   6.720
26468SOL     OW81235  13.806  14.119   6.444
26468SOL    HW181236  13.868  14.077   6.504
26468SOL    HW281237  13.730  14.139   6.498
26469SOL     OW81238   5.015   2.933   1.098
26469SOL    HW181239   5.072   2.976   1.162
26469SOL    HW281240   4.968   2.867   1.149
26470SOL     OW81241   1.740   9.622  14.771
26470SOL    HW181242   1.758   9.559  14.701
26470SOL    HW281243   1.731   9.569  14.850
26471SOL     OW81244   1.777   7.957   4.796
26471SOL    HW181245   1.758   7.952   4.890
26471SOL    HW281246   1.871   7.939   4.790
26472SOL     OW81247   6.759  14.521  13.709
26472SOL    HW181248   6.701  14.598  13.710
26472SOL    HW281249   6.777  14.503  13.801
26473SOL     OW81250  10.362  13.258   0.632
26473SOL    HW181251  10.276  13.280   0.598
26473SOL    HW281252  10.384  13.330   0.691
26474SOL     OW81253  11.644   4.277  11.383
26474SOL    HW181254  11.656   4.364  11.345
26474SOL    HW281255  11.711   4.223  11.341
26475SOL     OW81256   4.864   8.663   1.816
26475SOL    HW181257   4.840   8.743   1.770
26475SOL    HW281258   4.865   8.596   1.748
26476SOL     OW81259   6.461  13.494   8.759
26476SOL    HW181260   6.383  13.547   8.747
26476SOL    HW281261   6.500  13.527   8.840
26477SOL     OW81262  12.453   8.762  13.629
26477SOL    HW181263  12.406   8.686  13.662
26477SOL    HW281264  12.410   8.837  13.671
26478SOL     OW81265   5.432  14.535   0.412
26478SOL    HW181266   5.481  14.468   0.365
26478SOL    HW281267   5.433  14.507   0.504
26479SOL     OW81268   1.365   7.461   9.660
26479SOL    HW181269   1.387   7.411   9.738
26479SOL    HW281270   1.450   7.482   9.620
26480SOL     OW81271   4.716   4.025  10.292
26480SOL    HW181272   4.641   3.974  10.323
26480SOL    HW281273   4.684   4.115  10.288
26481SOL     OW81274   4.561  13.540   9.398
26481SOL    HW181275   4.614  13.561   9.475
26481SOL    HW281276   4.622  13.499   9.337
26482SOL     OW81277   5.420   6.457  12.553
26482SOL    HW181278   5.357   6.489  12.488
26482SOL    HW281279   5.444   6.534  12.604
26483SOL     OW81280   2.714  12.147  14.054
26483SOL    HW181281   2.771  12.221  14.034
26483SOL    HW281282   2.633  12.187  14.083
26484SOL     OW81283   8.902   3.023   7.195
26484SOL    HW181284   8.838   2.964   7.234
26484SOL    HW281285   8.974   3.027   7.259
26485SOL     OW81286   3.071   0.711   6.359
26485SOL    HW181287   3.006   0.739   6.424
26485SOL    HW281288   3.115   0.792   6.334
26486SOL     OW81289  12.100   8.051   1.647
26486SOL    HW181290  12.064   7.991   1.581
26486SOL    HW281291  12.151   8.115   1.596
26487SOL     OW81292   0.956   3.515   3.478
26487SOL    HW181293   0.956   3.548   3.388
26487SOL    HW281294   0.957   3.594   3.533
26488SOL     OW81295  10.016   7.402   4.294
26488SOL    HW181296   9.935   7.351   4.303
26488SOL    HW281297  10.037   7.430   4.383
26489SOL     OW81298   9.670   5.064   7.805
26489SOL    HW181299   9.721   5.099   7.732
26489SOL    HW281300   9.736   5.046   7.873
26490SOL     OW81301   2.299   1.035   6.578
26490SOL    HW181302   2.377   1.056   6.629
26490SOL    HW281303   2.258   1.120   6.560
26491SOL     OW81304   0.989   5.677   8.460
26491SOL    HW181305   0.987   5.741   8.389
26491SOL    HW281306   1.033   5.723   8.532
26492SOL     OW81307   4.163  10.340   4.478
26492SOL    HW181308   4.191  10.262   4.526
26492SOL    HW281309   4.157  10.310   4.387
26493SOL     OW81310  14.729   5.864  14.477
26493SOL    HW181311  14.646   5.856  14.429
26493SOL    HW281312  14.795   5.872  14.409
26494SOL     OW81313   8.163   6.850  12.243
26494SOL    HW181314   8.073   6.881  12.242
26494SOL    HW281315   8.156   6.756  12.261
26495SOL     OW81316   2.532  10.551   1.035
26495SOL    HW181317   2.451  10.535   0.985
26495SOL    HW281318   2.542  10.472   1.088
26496SOL     OW81319   2.216   1.167  13.880
26496SOL    HW181320   2.302   1.134  13.907
26496SOL    HW281321   2.199   1.240  13.939
26497SOL     OW81322  10.316  10.151  12.493
26497SOL    HW181323  10.246  10.089  12.473
26497SOL    HW281324  10.273  10.222  12.540
26498SOL     OW81325   1.734   7.436  10.238
26498SOL    HW181326   1.781   7.353  10.247
26498SOL    HW281327   1.642   7.412  10.234
26499SOL     OW81328   9.026   2.834   4.311
26499SOL    HW181329   9.121   2.839   4.322
26499SOL    HW281330   9.007   2.740   4.309
26500SOL     OW81331   2.341   1.919   7.746
26500SOL    HW181332   2.339   1.985   7.678
26500SOL    HW281333   2.282   1.952   7.814
26501SOL     OW81334   2.657   0.211  10.783
26501SOL    HW181335   2.667   0.288  10.839
26501SOL    HW281336   2.578   0.168  10.815
26502SOL     OW81337  11.775  11.229   2.698
26502SOL    HW181338  11.813  11.148   2.734
26502SOL    HW281339  11.728  11.201   2.620
26503SOL     OW81340   8.303   7.257  10.247
26503SOL    HW181341   8.356   7.179  10.267
26503SOL    HW281342   8.255   7.234  10.168
26504SOL     OW81343   0.898   5.194   8.800
26504SOL    HW181344   0.958   5.140   8.851
26504SOL    HW281345   0.952   5.229   8.729
26505SOL     OW81346   0.771   6.916   0.935
26505SOL    HW181347   0.855   6.888   0.898
26505SOL    HW281348   0.775   6.888   1.026
26506SOL     OW81349   6.126  12.806   1.537
26506SOL    HW181350   6.169  12.805   1.451
26506SOL    HW281351   6.195  12.828   1.599
26507SOL     OW81352  10.305  11.636   0.009
26507SOL    HW181353  10.363  11.568  14.849
26507SOL    HW281354  10.362  11.712   0.022
26508SOL     OW81355  10.931   1.367  12.394
26508SOL    HW181356  11.023   1.388  12.404
26508SOL    HW281357  10.895   1.439  12.341
26509SOL     OW81358  12.665  12.030   4.099
26509SOL    HW181359  12.685  12.122   4.078
26509SOL    HW281360  12.632  11.994   4.017
26510SOL     OW81361  12.695   6.602   9.342
26510SOL    HW181362  12.777   6.642   9.370
26510SOL    HW281363  12.644   6.594   9.423
26511SOL     OW81364   4.046   4.504   4.268
26511SOL    HW181365   4.080   4.502   4.178
26511SOL    HW281366   4.083   4.585   4.305
26512SOL     OW81367   6.083   3.019  14.251
26512SOL    HW181368   6.058   2.960  14.180
26512SOL    HW281369   6.006   3.073  14.266
26513SOL     OW81370  10.630   9.670  12.879
26513SOL    HW181371  10.551   9.709  12.842
26513SOL    HW281372  10.600   9.591  12.923
26514SOL     OW81373   7.530   0.565   3.916
26514SOL    HW181374   7.567   0.528   3.836
26514SOL    HW281375   7.571   0.516   3.987
26515SOL     OW81376   7.973   2.236   8.987
26515SOL    HW181377   8.020   2.153   8.985
26515SOL    HW281378   7.962   2.259   8.894
26516SOL     OW81379   6.413  13.461  10.677
26516SOL    HW181380   6.439  13.370  10.695
26516SOL    HW281381   6.387  13.461  10.585
26517SOL     OW81382   4.389   5.627  10.567
26517SOL    HW181383   4.467   5.624  10.623
26517SOL    HW281384   4.393   5.713  10.526
26518SOL     OW81385   6.586   5.434   0.236
26518SOL    HW181386   6.556   5.359   0.287
26518SOL    HW281387   6.586   5.403   0.145
26519SOL     OW81388   2.244   9.153   1.827
26519SOL    HW181389   2.266   9.188   1.913
26519SOL    HW281390   2.163   9.197   1.802
26520SOL     OW81391   0.314  10.577   3.743
26520SOL    HW181392   0.406  10.558   3.759
26520SOL    HW281393   0.307  10.581   3.647
26521SOL     OW81394  10.752  14.632   4.097
26521SOL    HW181395  10.844  14.637   4.072
26521SOL    HW281396  10.746  14.685   4.177
26522SOL     OW81397  11.353  13.789   4.392
26522SOL    HW181398  11.276  13.760   4.441
26522SOL    HW281399  11.336  13.881   4.373
26523SOL     OW81400  10.638  10.582   8.363
26523SOL    HW181401  10.557  10.531   8.370
26523SOL    HW281402  10.707  10.522   8.391
26524SOL     OW81403   2.709   1.394   8.214
26524SOL    HW181404   2.654   1.446   8.273
26524SOL    HW281405   2.797   1.401   8.252
26525SOL     OW81406  12.936  10.757   9.970
26525SOL    HW181407  12.863  10.706  10.003
26525SOL    HW281408  12.957  10.717   9.885
26526SOL     OW81409   1.862  14.180  10.162
26526SOL    HW181410   1.890  14.261  10.204
26526SOL    HW281411   1.804  14.207  10.092
26527SOL     OW81412   1.894   5.239   2.062
26527SOL    HW181413   1.813   5.274   2.099
26527SOL    HW281414   1.908   5.157   2.109
26528SOL     OW81415  10.567   5.886  13.583
26528SOL    HW181416  10.650   5.856  13.545
26528SOL    HW281417  10.576   5.870  13.677
26529SOL     OW81418   1.683   5.031  13.937
26529SOL    HW181419   1.659   5.065  14.024
26529SOL    HW281420   1.751   5.090  13.906
26530SOL     OW81421  12.773  13.345  13.986
26530SOL    HW181422  12.772  13.340  14.081
26530SOL    HW281423  12.730  13.265  13.957
26531SOL     OW81424   6.019  14.238   7.585
26531SOL    HW181425   6.036  14.310   7.525
26531SOL    HW281426   5.953  14.273   7.646
26532SOL     OW81427   0.848  12.921  14.495
26532SOL    HW181428   0.864  12.998  14.551
26532SOL    HW281429   0.913  12.929  14.425
26533SOL     OW81430   8.016   9.081   0.827
26533SOL    HW181431   7.974   8.996   0.812
26533SOL    HW281432   7.944   9.144   0.819
26534SOL     OW81433   0.748   5.879  12.532
26534SOL    HW181434   0.666   5.853  12.491
26534SOL    HW281435   0.743   5.842  12.620
26535SOL     OW81436   3.121   2.154   1.084
26535SOL    HW181437   3.029   2.157   1.059
26535SOL    HW281438   3.153   2.243   1.068
26536SOL     OW81439  14.197   5.341  12.372
26536SOL    HW181440  14.161   5.253  12.360
26536SOL    HW281441  14.242   5.336  12.456
26537SOL     OW81442   5.072  13.727   7.339
26537SOL    HW181443   5.135  13.693   7.276
26537SOL    HW281444   5.114  13.714   7.424
26538SOL     OW81445   0.452  11.105   3.332
26538SOL    HW181446   0.373  11.071   3.290
26538SOL    HW281447   0.479  11.178   3.276
26539SOL     OW81448  13.018   5.989   9.938
26539SOL    HW181449  13.009   6.007  10.031
26539SOL    HW281450  13.076   5.913   9.934
26540SOL     OW81451  12.142   1.259   6.426
26540SOL    HW181452  12.083   1.317   6.378
26540SOL    HW281453  12.173   1.197   6.360
26541SOL     OW81454   4.680  13.671   1.092
26541SOL    HW181455   4.613  13.675   1.024
26541SOL    HW281456   4.644  13.721   1.165
26542SOL     OW81457  12.292   9.214  10.144
26542SOL    HW181458  12.255   9.137  10.101
26542SOL    HW281459  12.288   9.283  10.077
26543SOL     OW81460   0.789  11.622   7.360
26543SOL    HW181461   0.704  11.657   7.386
26543SOL    HW281462   0.799  11.646   7.268
26544SOL     OW81463   7.507   8.436   1.576
26544SOL    HW181464   7.498   8.531   1.584
26544SOL    HW281465   7.523   8.406   1.665
26545SOL     OW81466   3.237   3.698   8.196
26545SOL    HW181467   3.157   3.645   8.206
26545SOL    HW281468   3.260   3.690   8.103
26546SOL     OW81469  12.181   3.500  11.131
26546SOL    HW181470  12.244   3.567  11.156
26546SOL    HW281471  12.096   3.545  11.132
26547SOL     OW81472   5.083   6.853   6.588
26547SOL    HW181473   5.106   6.942   6.562
26547SOL    HW281474   5.049   6.862   6.677
26548SOL     OW81475   5.353   2.076  13.776
26548SOL    HW181476   5.376   2.070  13.868
26548SOL    HW281477   5.278   2.016  13.766
26549SOL     OW81478   1.588   0.035   4.908
26549SOL    HW181479   1.651  14.842   4.890
26549SOL    HW281480   1.509   0.009   4.862
26550SOL     OW81481   2.169   9.898  10.265
26550SOL    HW181482   2.256   9.884  10.302
26550SOL    HW281483   2.152   9.991  10.278
26551SOL     OW81484  11.387  11.318   1.495
26551SOL    HW181485  11.425  11.232   1.478
26551SOL    HW281486  11.421  11.344   1.580
26552SOL     OW81487   3.221   4.232   9.200
26552SOL    HW181488   3.172   4.180   9.137
26552SOL    HW281489   3.276   4.290   9.147
26553SOL     OW81490   2.416  10.201  11.215
26553SOL    HW181491   2.335  10.240  11.250
26553SOL    HW281492   2.393  10.109  11.199
26554SOL     OW81493   2.340  13.955  13.078
26554SOL    HW181494   2.355  13.980  12.987
26554SOL    HW281495   2.246  13.942  13.085
26555SOL     OW81496   5.236  10.898   4.799
26555SOL    HW181497   5.190  10.845   4.735
26555SOL    HW281498   5.290  10.958   4.747
26556SOL     OW81499   9.595  13.563  14.798
26556SOL    HW181500   9.681  13.521  14.805
26556SOL    HW281501   9.615  13.656  14.786
26557SOL     OW81502   6.780  11.690   7.531
26557SOL    HW181503   6.828  11.708   7.451
26557SOL    HW281504   6.830  11.734   7.600
26558SOL     OW81505   6.507   6.584  10.488
26558SOL    HW181506   6.506   6.579  10.393
26558SOL    HW281507   6.449   6.658  10.509
26559SOL     OW81508   6.249   9.924  10.238
26559SOL    HW181509   6.338   9.925  10.274
26559SOL    HW281510   6.194   9.891  10.309
26560SOL     OW81511   8.411  10.542  10.643
26560SOL    HW181512   8.395  10.450  10.667
26560SOL    HW281513   8.398  10.543  10.548
26561SOL     OW81514   5.783  11.092  13.419
26561SOL    HW181515   5.753  11.150  13.489
26561SOL    HW281516   5.858  11.137  13.380
26562SOL     OW81517  12.066  13.975   2.362
26562SOL    HW181518  12.069  13.880   2.351
26562SOL    HW281519  12.108  14.010   2.283
26563SOL     OW81520   6.924  13.417   0.222
26563SOL    HW181521   7.016  13.433   0.242
26563SOL    HW281522   6.898  13.346   0.282
26564SOL     OW81523  14.145   1.340  12.837
26564SOL    HW181524  14.195   1.348  12.918
26564SOL    HW281525  14.209   1.362  12.768
26565SOL     OW81526   0.762   5.119   6.780
26565SOL    HW181527   0.708   5.069   6.719
26565SOL    HW281528   0.764   5.066   6.859
26566SOL     OW81529   3.200   9.783  13.355
26566SOL    HW181530   3.281   9.733  13.342
26566SOL    HW281531   3.208   9.819  13.443
26567SOL     OW81532   2.844   1.637  12.432
26567SOL    HW181533   2.925   1.664  12.390
26567SOL    HW281534   2.799   1.719  12.453
26568SOL     OW81535  10.140  14.129   2.877
26568SOL    HW181536  10.149  14.060   2.943
26568SOL    HW281537  10.228  14.166   2.868
26569SOL     OW81538   0.686  13.289   2.076
26569SOL    HW181539   0.728  13.229   2.139
26569SOL    HW281540   0.730  13.373   2.091
26570SOL     OW81541  10.325  10.027   4.810
26570SOL    HW181542  10.304   9.936   4.789
26570SOL    HW281543  10.248  10.060   4.855
26571SOL     OW81544   7.603   5.706   7.743
26571SOL    HW181545   7.680   5.658   7.713
26571SOL    HW281546   7.579   5.761   7.668
26572SOL     OW81547   2.377   8.840   8.510
26572SOL    HW181548   2.328   8.768   8.470
26572SOL    HW281549   2.311   8.893   8.554
26573SOL     OW81550   4.812   7.067   8.579
26573SOL    HW181551   4.818   7.140   8.640
26573SOL    HW281552   4.768   7.104   8.502
26574SOL     OW81553  12.742  10.301  13.756
26574SOL    HW181554  12.805  10.261  13.695
26574SOL    HW281555  12.690  10.227  13.788
26575SOL     OW81556  10.033   9.830   4.549
26575SOL    HW181557  10.015   9.797   4.637
26575SOL    HW281558   9.964   9.791   4.495
26576SOL     OW81559   2.315   7.745   1.254
26576SOL    HW181560   2.299   7.684   1.326
26576SOL    HW281561   2.345   7.689   1.182
26577SOL     OW81562   0.262   5.668   6.279
26577SOL    HW181563   0.292   5.709   6.360
26577SOL    HW281564   0.302   5.581   6.279
26578SOL     OW81565   0.710  11.088   4.800
26578SOL    HW181566   0.716  11.080   4.895
26578SOL    HW281567   0.617  11.073   4.781
26579SOL     OW81568   0.528  13.368  12.618
26579SOL    HW181569   0.466  13.439  12.634
26579SOL    HW281570   0.480  13.305  12.565
26580SOL     OW81571   3.022   1.408   5.443
26580SOL    HW181572   2.955   1.348   5.477
26580SOL    HW281573   3.025   1.479   5.506
26581SOL     OW81574   2.983  14.723  10.010
26581SOL    HW181575   2.915  14.698   9.947
26581SOL    HW281576   3.037  14.645  10.021
26582SOL     OW81577   7.447  11.592  12.567
26582SOL    HW181578   7.522  11.647  12.548
26582SOL    HW281579   7.448  11.582  12.662
26583SOL     OW81580   0.376   5.599   8.659
26583SOL    HW181581   0.435   5.641   8.596
26583SOL    HW281582   0.394   5.506   8.649
26584SOL     OW81583  14.223  10.436   5.657
26584SOL    HW181584  14.289  10.392   5.604
26584SOL    HW281585  14.250  10.422   5.747
26585SOL     OW81586  13.620  11.562   4.725
26585SOL    HW181587  13.663  11.532   4.806
26585SOL    HW281588  13.592  11.481   4.682
26586SOL     OW81589  14.173  11.167   5.349
26586SOL    HW181590  14.093  11.157   5.297
26586SOL    HW281591  14.163  11.253   5.390
26587SOL     OW81592  10.535   4.566   1.168
26587SOL    HW181593  10.592   4.494   1.140
26587SOL    HW281594  10.450   4.526   1.181
26588SOL     OW81595   6.516  13.535  10.986
26588SOL    HW181596   6.470  13.591  10.924
26588SOL    HW281597   6.603  13.574  10.994
26589SOL     OW81598   9.663  10.310   2.955
26589SOL    HW181599   9.601  10.330   3.026
26589SOL    HW281600   9.613  10.324   2.875
26590SOL     OW81601  13.137   7.438   3.240
26590SOL    HW181602  13.156   7.430   3.334
26590SOL    HW281603  13.185   7.516   3.212
26591SOL     OW81604   6.859   0.351   0.071
26591SOL    HW181605   6.917   0.305   0.132
26591SOL    HW281606   6.864   0.443   0.099
26592SOL     OW81607   9.064  13.195   5.845
26592SOL    HW181608   9.139  13.135   5.849
26592SOL    HW281609   9.091  13.264   5.784
26593SOL     OW81610   2.647  11.770  12.670
26593SOL    HW181611   2.634  11.824  12.747
26593SOL    HW281612   2.607  11.686  12.693
26594SOL     OW81613   9.347   3.134   2.280
26594SOL    HW181614   9.284   3.121   2.208
26594SOL    HW281615   9.423   3.174   2.238
26595SOL     OW81616  12.794   5.756   1.615
26595SOL    HW181617  12.837   5.695   1.675
26595SOL    HW281618  12.822   5.843   1.644
26596SOL     OW81619   3.577  14.664   3.756
26596SOL    HW181620   3.484  14.658   3.780
26596SOL    HW281621   3.621  14.607   3.819
26597SOL     OW81622   6.563  12.602  14.187
26597SOL    HW181623   6.596  12.547  14.258
26597SOL    HW281624   6.468  12.590  14.190
26598SOL     OW81625  12.950  11.267  10.411
26598SOL    HW181626  13.044  11.278  10.400
26598SOL    HW281627  12.916  11.356  10.420
26599SOL     OW81628   7.182   3.216   0.898
26599SOL    HW181629   7.164   3.202   0.991
26599SOL    HW281630   7.270   3.254   0.896
26600SOL     OW81631  11.307  13.268  14.319
26600SOL    HW181632  11.364  13.279  14.395
26600SOL    HW281633  11.237  13.332  14.332
26601SOL     OW81634  11.146  13.626   6.564
26601SOL    HW181635  11.065  13.615   6.615
26601SOL    HW281636  11.116  13.639   6.474
26602SOL     OW81637  13.172   7.325   2.607
26602SOL    HW181638  13.212   7.245   2.574
26602SOL    HW281639  13.227   7.350   2.682
26603SOL     OW81640   0.328   4.156  12.593
26603SOL    HW181641   0.290   4.114  12.516
26603SOL    HW281642   0.273   4.126  12.666
26604SOL     OW81643   0.967   1.373   1.411
26604SOL    HW181644   0.963   1.304   1.477
26604SOL    HW281645   1.051   1.415   1.424
26605SOL     OW81646  12.388  14.464   9.075
26605SOL    HW181647  12.332  14.428   9.144
26605SOL    HW281648  12.406  14.554   9.103
26606SOL     OW81649  10.466   3.832  12.841
26606SOL    HW181650  10.377   3.797  12.841
26606SOL    HW281651  10.519   3.763  12.802
26607SOL     OW81652   1.130  12.100  11.332
26607SOL    HW181653   1.140  12.131  11.242
26607SOL    HW281654   1.206  12.043  11.346
26608SOL     OW81655   2.783  14.506  11.294
26608SOL    HW181656   2.758  14.499  11.386
26608SOL    HW281657   2.877  14.524  11.297
26609SOL     OW81658   4.593  12.260   6.811
26609SOL    HW181659   4.649  12.182   6.813
26609SOL    HW281660   4.625  12.315   6.882
26610SOL     OW81661   8.463   9.830  10.266
26610SOL    HW181662   8.497   9.810  10.179
26610SOL    HW281663   8.434   9.746  10.301
26611SOL     OW81664  14.455  10.350  12.708
26611SOL    HW181665  14.489  10.372  12.795
26611SOL    HW281666  14.509  10.276  12.680
26612SOL     OW81667   4.741  11.607  14.007
26612SOL    HW181668   4.689  11.567  13.936
26612SOL    HW281669   4.730  11.547  14.081
26613SOL     OW81670   5.876  12.451   4.229
26613SOL    HW181671   5.805  12.408   4.183
26613SOL    HW281672   5.879  12.540   4.193
26614SOL     OW81673   4.295  12.047   8.561
26614SOL    HW181674   4.256  11.988   8.626
26614SOL    HW281675   4.226  12.109   8.540
26615SOL     OW81676  13.772  12.494   5.909
26615SOL    HW181677  13.699  12.444   5.947
26615SOL    HW281678  13.735  12.581   5.893
26616SOL     OW81679  14.343   9.849  12.558
26616SOL    HW181680  14.400   9.773  12.556
26616SOL    HW281681  14.323   9.863  12.650
26617SOL     OW81682  12.389  11.321  11.720
26617SOL    HW181683  12.463  11.324  11.659
26617SOL    HW281684  12.429  11.299  11.804
26618SOL     OW81685   1.795   5.630  12.879
26618SOL    HW181686   1.761   5.601  12.964
26618SOL    HW281687   1.741   5.583  12.815
26619SOL     OW81688  13.484   7.383   2.598
26619SOL    HW181689  13.550   7.323   2.562
26619SOL    HW281690  13.440   7.418   2.521
26620SOL     OW81691   1.852   2.816   3.001
26620SOL    HW181692   1.811   2.895   2.965
26620SOL    HW281693   1.944   2.838   3.007
26621SOL     OW81694   5.696   5.874   9.918
26621SOL    HW181695   5.751   5.951   9.907
26621SOL    HW281696   5.710   5.823   9.838
26622SOL     OW81697  10.648  11.118   9.576
26622SOL    HW181698  10.589  11.135   9.650
26622SOL    HW281699  10.615  11.037   9.537
26623SOL     OW81700   0.983   4.800   5.504
26623SOL    HW181701   0.993   4.896   5.506
26623SOL    HW281702   1.047   4.771   5.439
26624SOL     OW81703   7.995  13.773  14.013
26624SOL    HW181704   8.079  13.736  13.984
26624SOL    HW281705   7.933  13.749  13.944
26625SOL     OW81706  14.164   4.167   6.579
26625SOL    HW181707  14.198   4.097   6.635
26625SOL    HW281708  14.232   4.180   6.513
26626SOL     OW81709   2.949   5.085   3.752
26626SOL    HW181710   2.967   5.000   3.713
26626SOL    HW281711   2.866   5.073   3.799
26627SOL     OW81712   4.230   7.263   6.773
26627SOL    HW181713   4.285   7.187   6.794
26627SOL    HW281714   4.143   7.239   6.806
26628SOL     OW81715   5.501  12.792   2.785
26628SOL    HW181716   5.569  12.817   2.847
26628SOL    HW281717   5.429  12.853   2.802
26629SOL     OW81718   3.807   1.658   7.446
26629SOL    HW181719   3.879   1.680   7.385
26629SOL    HW281720   3.809   1.728   7.511
26630SOL     OW81721  10.639  11.745   7.548
26630SOL    HW181722  10.613  11.671   7.603
26630SOL    HW281723  10.557  11.778   7.512
26631SOL     OW81724   9.496   7.780  14.432
26631SOL    HW181725   9.571   7.827  14.468
26631SOL    HW281726   9.520   7.763  14.341
26632SOL     OW81727  12.308   0.954  14.381
26632SOL    HW181728  12.353   1.037  14.397
26632SOL    HW281729  12.377   0.892  14.362
26633SOL     OW81730   4.288   2.176   4.788
26633SOL    HW181731   4.194   2.195   4.787
26633SOL    HW281732   4.309   2.151   4.699
26634SOL     OW81733   2.894  10.236   5.586
26634SOL    HW181734   2.901  10.202   5.675
26634SOL    HW281735   2.856  10.323   5.596
26635SOL     OW81736  13.809   0.187   4.400
26635SOL    HW181737  13.845   0.250   4.338
26635SOL    HW281738  13.772   0.241   4.470
26636SOL     OW81739  14.806  12.112   1.606
26636SOL    HW181740  14.853  12.063   1.539
26636SOL    HW281741  14.783  12.046   1.672
26637SOL     OW81742   7.926   2.638   6.393
26637SOL    HW181743   7.941   2.545   6.409
26637SOL    HW281744   7.832   2.650   6.410
26638SOL     OW81745   5.738  11.527   8.726
26638SOL    HW181746   5.786  11.470   8.786
26638SOL    HW281747   5.665  11.561   8.777
26639SOL     OW81748   6.892   8.735   2.227
26639SOL    HW181749   6.924   8.655   2.186
26639SOL    HW281750   6.805   8.712   2.261
26640SOL     OW81751  11.344   3.679  12.007
26640SOL    HW181752  11.344   3.775  12.004
26640SOL    HW281753  11.251   3.656  12.005
26641SOL     OW81754   1.438   5.461  11.540
26641SOL    HW181755   1.362   5.405  11.525
26641SOL    HW281756   1.408   5.526  11.603
26642SOL     OW81757   2.701  14.587  13.159
26642SOL    HW181758   2.694  14.519  13.093
26642SOL    HW281759   2.702  14.539  13.242
26643SOL     OW81760   3.535   2.791   6.809
26643SOL    HW181761   3.588   2.861   6.848
26643SOL    HW281762   3.591   2.713   6.816
26644SOL     OW81763  13.917   6.761   2.430
26644SOL    HW181764  13.889   6.841   2.475
26644SOL    HW281765  13.896   6.691   2.491
26645SOL     OW81766   6.710   1.733  13.556
26645SOL    HW181767   6.788   1.787  13.539
26645SOL    HW281768   6.741   1.662  13.611
26646SOL     OW81769   4.990  10.073   3.049
26646SOL    HW181770   4.966  10.166   3.045
26646SOL    HW281771   4.927  10.035   3.111
26647SOL     OW81772   8.304   9.116   6.643
26647SOL    HW181773   8.262   9.092   6.560
26647SOL    HW281774   8.234   9.158   6.693
26648SOL     OW81775  14.844   3.982   0.526
26648SOL    HW181776  14.837   4.031   0.444
26648SOL    HW281777   0.012   4.042   0.586
26649SOL     OW81778   2.042  13.313  14.010
26649SOL    HW181779   2.097  13.341  14.083
26649SOL    HW281780   2.104  13.294  13.939
26650SOL     OW81781   4.977   2.328  10.216
26650SOL    HW181782   5.009   2.378  10.291
26650SOL    HW281783   5.025   2.364  10.141
26651SOL     OW81784  10.072   9.840   2.458
26651SOL    HW181785  10.141   9.894   2.418
26651SOL    HW281786  10.015   9.903   2.501
26652SOL     OW81787   6.585   8.377  11.591
26652SOL    HW181788   6.508   8.345  11.639
26652SOL    HW281789   6.635   8.425  11.657
26653SOL     OW81790   6.509   0.232   5.964
26653SOL    HW181791   6.554   0.264   5.885
26653SOL    HW281792   6.570   0.250   6.035
26654SOL     OW81793  14.250  13.500   5.423
26654SOL    HW181794  14.254  13.523   5.330
26654SOL    HW281795  14.334  13.459   5.441
26655SOL     OW81796   1.625  13.285   6.371
26655SOL    HW181797   1.533  13.259   6.374
26655SOL    HW281798   1.624  13.376   6.340
26656SOL     OW81799   9.402  10.327   8.740
26656SOL    HW181800   9.495  10.340   8.761
26656SOL    HW281801   9.396  10.235   8.715
26657SOL     OW81802   6.905   9.626  10.887
26657SOL    HW181803   6.866   9.632  10.800
26657SOL    HW281804   6.998   9.645  10.873
26658SOL     OW81805   4.283  14.582  11.133
26658SOL    HW181806   4.205  14.635  11.121
26658SOL    HW281807   4.307  14.554  11.044
26659SOL     OW81808   2.457  11.691   6.631
26659SOL    HW181809   2.494  11.615   6.586
26659SOL    HW281810   2.369  11.663   6.658
26660SOL     OW81811   0.715  12.203  12.150
26660SOL    HW181812   0.710  12.247  12.065
26660SOL    HW281813   0.799  12.230  12.186
26661SOL     OW81814   7.102  11.889   5.317
26661SOL    HW181815   7.128  11.935   5.237
26661SOL    HW281816   7.082  11.800   5.289
26662SOL     OW81817  14.747   0.394   9.130
26662SOL    HW181818  14.655   0.378   9.151
26662SOL    HW281819  14.782   0.308   9.108
26663SOL     OW81820   2.150   1.864  11.271
26663SOL    HW181821   2.115   1.839  11.186
26663SOL    HW281822   2.080   1.914  11.313
26664SOL     OW81823  11.955   7.149   6.181
26664SOL    HW181824  11.902   7.070   6.188
26664SOL    HW281825  11.964   7.164   6.086
26665SOL     OW81826   4.402   3.158  12.080
26665SOL    HW181827   4.354   3.183  12.159
26665SOL    HW281828   4.474   3.221  12.074
26666SOL     OW81829  12.183   6.849   6.786
26666SOL    HW181830  12.119   6.824   6.852
26666SOL    HW281831  12.151   6.932   6.752
26667SOL     OW81832   9.245   0.972   3.230
26667SOL    HW181833   9.157   1.001   3.208
26667SOL    HW281834   9.285   1.047   3.274
26668SOL     OW81835   7.741   1.143   8.638
26668SOL    HW181836   7.781   1.153   8.552
26668SOL    HW281837   7.764   1.223   8.685
26669SOL     OW81838   5.405   2.670   4.485
26669SOL    HW181839   5.497   2.648   4.500
26669SOL    HW281840   5.358   2.628   4.558
26670SOL     OW81841  14.477  13.198   3.611
26670SOL    HW181842  14.417  13.208   3.536
26670SOL    HW281843  14.502  13.287   3.634
26671SOL     OW81844  12.710  10.703  10.111
26671SOL    HW181845  12.763  10.736  10.183
26671SOL    HW281846  12.625  10.747  10.122
26672SOL     OW81847  11.159   7.488   6.688
26672SOL    HW181848  11.106   7.562   6.660
26672SOL    HW281849  11.100   7.413   6.682
26673SOL     OW81850  12.557   5.992   1.237
26673SOL    HW181851  12.536   6.062   1.175
26673SOL    HW281852  12.647   6.009   1.264
26674SOL     OW81853  12.660  10.010   4.410
26674SOL    HW181854  12.590   9.961   4.368
26674SOL    HW281855  12.719   9.943   4.446
26675SOL     OW81856   2.268  13.610  12.571
26675SOL    HW181857   2.179  13.603  12.537
26675SOL    HW281858   2.268  13.555  12.649
26676SOL     OW81859   5.844   3.153   2.163
26676SOL    HW181860   5.914   3.103   2.122
26676SOL    HW281861   5.835   3.231   2.108
26677SOL     OW81862  10.936   8.103   1.704
26677SOL    HW181863  10.937   8.014   1.668
26677SOL    HW281864  10.869   8.148   1.654
26678SOL     OW81865   2.725  10.947   6.350
26678SOL    HW181866   2.637  10.912   6.361
26678SOL    HW281867   2.779  10.870   6.331
26679SOL     OW81868   8.114  10.952  11.689
26679SOL    HW181869   8.050  10.887  11.660
26679SOL    HW281870   8.086  10.978  11.776
26680SOL     OW81871   7.891  13.474   5.369
26680SOL    HW181872   7.959  13.433   5.316
26680SOL    HW281873   7.913  13.449   5.459
26681SOL     OW81874   2.581   9.858  13.492
26681SOL    HW181875   2.491   9.888  13.479
26681SOL    HW281876   2.632   9.938  13.503
26682SOL     OW81877   9.863  13.892   2.611
26682SOL    HW181878   9.873  13.986   2.629
26682SOL    HW281879   9.836  13.854   2.695
26683SOL     OW81880  13.836   6.133  14.729
26683SOL    HW181881  13.747   6.163  14.711
26683SOL    HW281882  13.887   6.213  14.742
26684SOL     OW81883  11.076  10.408   7.256
26684SOL    HW181884  11.111  10.400   7.344
26684SOL    HW281885  11.123  10.342   7.205
26685SOL     OW81886   7.074  10.382   0.937
26685SOL    HW181887   7.098  10.433   1.014
26685SOL    HW281888   7.110  10.431   0.864
26686SOL     OW81889   7.085  11.332   2.118
26686SOL    HW181890   7.037  11.249   2.119
26686SOL    HW281891   7.017  11.399   2.114
26687SOL     OW81892   9.886   0.969   5.552
26687SOL    HW181893   9.803   1.011   5.577
26687SOL    HW281894   9.953   1.027   5.587
26688SOL     OW81895   4.302   9.069   4.826
26688SOL    HW181896   4.243   9.139   4.799
26688SOL    HW281897   4.330   9.093   4.914
26689SOL     OW81898   2.583  12.291   1.278
26689SOL    HW181899   2.510  12.327   1.327
26689SOL    HW281900   2.649  12.270   1.344
26690SOL     OW81901  10.429   3.496  11.552
26690SOL    HW181902  10.346   3.465  11.587
26690SOL    HW281903  10.404   3.558  11.483
26691SOL     OW81904   4.620   4.190   8.793
26691SOL    HW181905   4.632   4.096   8.806
26691SOL    HW281906   4.623   4.202   8.698
26692SOL     OW81907   3.994  13.987   9.920
26692SOL    HW181908   3.898  13.984   9.916
26692SOL    HW281909   4.019  14.051   9.854
26693SOL     OW81910   8.574  12.347   3.166
26693SOL    HW181911   8.626  12.287   3.113
26693SOL    HW281912   8.586  12.318   3.256
26694SOL     OW81913   1.748  12.808  13.291
26694SOL    HW181914   1.835  12.770  13.276
26694SOL    HW281915   1.734  12.798  13.385
26695SOL     OW81916   6.688  12.844  12.901
26695SOL    HW181917   6.697  12.821  12.808
26695SOL    HW281918   6.604  12.889  12.907
26696SOL     OW81919  11.517  11.684  10.962
26696SOL    HW181920  11.488  11.736  11.037
26696SOL    HW281921  11.607  11.712  10.947
26697SOL     OW81922   6.259  13.381   9.467
26697SOL    HW181923   6.240  13.453   9.407
26697SOL    HW281924   6.229  13.412   9.552
26698SOL     OW81925   6.401   9.368  13.278
26698SOL    HW181926   6.385   9.457  13.249
26698SOL    HW281927   6.497   9.359  13.276
26699SOL     OW81928   2.792   0.916   8.497
26699SOL    HW181929   2.875   0.963   8.496
26699SOL    HW281930   2.749   0.946   8.577
26700SOL     OW81931   9.125  11.609   5.219
26700SOL    HW181932   9.032  11.612   5.243
26700SOL    HW281933   9.169  11.657   5.288
26701SOL     OW81934  12.849  12.481   2.755
26701SOL    HW181935  12.819  12.424   2.684
26701SOL    HW281936  12.884  12.421   2.821
26702SOL     OW81937  11.586   7.985   4.280
26702SOL    HW181938  11.647   7.931   4.329
26702SOL    HW281939  11.641   8.037   4.222
26703SOL     OW81940  13.967   0.284   2.479
26703SOL    HW181941  14.007   0.357   2.526
26703SOL    HW281942  13.883   0.270   2.521
26704SOL     OW81943  13.994   8.013   3.323
26704SOL    HW181944  14.019   7.983   3.410
26704SOL    HW281945  13.920   7.957   3.298
26705SOL     OW81946  10.361  12.494   0.686
26705SOL    HW181947  10.427  12.542   0.736
26705SOL    HW281948  10.285  12.553   0.685
26706SOL     OW81949   0.218  14.661   0.038
26706SOL    HW181950   0.258  14.588  14.866
26706SOL    HW281951   0.182  14.621   0.117
26707SOL     OW81952   4.435   9.468   4.475
26707SOL    HW181953   4.360   9.491   4.421
26707SOL    HW281954   4.433   9.532   4.546
26708SOL     OW81955   4.134   0.022   7.371
26708SOL    HW181956   4.197   0.080   7.328
26708SOL    HW281957   4.049   0.060   7.350
26709SOL     OW81958  13.927   8.422  14.054
26709SOL    HW181959  13.940   8.327  14.052
26709SOL    HW281960  13.909   8.442  14.145
26710SOL     OW81961   7.891  10.922  11.393
26710SOL    HW181962   7.832  10.853  11.363
26710SOL    HW281963   7.947  10.939  11.317
26711SOL     OW81964   7.777   7.037   6.889
26711SOL    HW181965   7.863   7.054   6.927
26711SOL    HW281966   7.770   6.942   6.884
26712SOL     OW81967   3.915  10.356   1.439
26712SOL    HW181968   3.912  10.317   1.526
26712SOL    HW281969   3.959  10.291   1.385
26713SOL     OW81970   5.221   9.123   0.415
26713SOL    HW181971   5.222   9.151   0.506
26713SOL    HW281972   5.129   9.117   0.393
26714SOL     OW81973  13.090   2.687   6.743
26714SOL    HW181974  13.020   2.623   6.730
26714SOL    HW281975  13.140   2.654   6.817
26715SOL     OW81976   9.791  11.418   8.471
26715SOL    HW181977   9.807  11.398   8.564
26715SOL    HW281978   9.836  11.501   8.457
26716SOL     OW81979   8.466  12.472   0.895
26716SOL    HW181980   8.503  12.498   0.979
26716SOL    HW281981   8.505  12.533   0.831
26717SOL     OW81982   9.215   2.797   4.986
26717SOL    HW181983   9.203   2.745   5.065
26717SOL    HW281984   9.131   2.792   4.941
26718SOL     OW81985  10.841  14.200   4.558
26718SOL    HW181986  10.908  14.262   4.527
26718SOL    HW281987  10.794  14.248   4.626
26719SOL     OW81988   8.427  10.561   4.412
26719SOL    HW181989   8.390  10.494   4.355
26719SOL    HW281990   8.374  10.558   4.492
26720SOL     OW81991  11.819  13.246  14.175
26720SOL    HW181992  11.815  13.170  14.233
26720SOL    HW281993  11.812  13.321  14.234
26721SOL     OW81994  13.133  14.121   8.857
26721SOL    HW181995  13.184  14.086   8.784
26721SOL    HW281996  13.147  14.059   8.928
26722SOL     OW81997  11.558  14.127   2.551
26722SOL    HW181998  11.503  14.112   2.474
26722SOL    HW281999  11.622  14.056   2.548
26723SOL     OW82000  13.106   9.726   0.225
26723SOL    HW182001  13.058   9.685   0.297
26723SOL    HW282002  13.181   9.668   0.210
26724SOL     OW82003   4.928  10.746   0.324
26724SOL    HW182004   5.016  10.768   0.292
26724SOL    HW282005   4.929  10.650   0.331
26725SOL     OW82006   6.832   1.760   7.373
26725SOL    HW182007   6.870   1.705   7.304
26725SOL    HW282008   6.896   1.757   7.444
26726SOL     OW82009   9.499   4.655   3.341
26726SOL    HW182010   9.491   4.604   3.421
26726SOL    HW282011   9.409   4.666   3.310
26727SOL     OW82012   3.410  10.369   1.640
26727SOL    HW182013   3.413  10.291   1.585
26727SOL    HW282014   3.498  10.376   1.677
26728SOL     OW82015  11.794   2.867  14.104
26728SOL    HW182016  11.795   2.780  14.064
26728SOL    HW282017  11.804   2.928  14.031
26729SOL     OW82018   0.920  13.285   7.911
26729SOL    HW182019   0.982  13.325   7.851
26729SOL    HW282020   0.864  13.231   7.854
26730SOL     OW82021   6.473   7.439  12.785
26730SOL    HW182022   6.431   7.496  12.722
26730SOL    HW282023   6.511   7.368  12.733
26731SOL     OW82024   2.836   8.487   5.947
26731SOL    HW182025   2.860   8.418   6.009
26731SOL    HW282026   2.769   8.538   5.992
26732SOL     OW82027  10.106  10.538   5.437
26732SOL    HW182028  10.042  10.559   5.370
26732SOL    HW282029  10.062  10.475   5.494
26733SOL     OW82030   1.653   6.951   0.414
26733SOL    HW182031   1.614   6.941   0.327
26733SOL    HW282032   1.645   7.045   0.433
26734SOL     OW82033  13.835   5.165   4.849
26734SOL    HW182034  13.759   5.116   4.883
26734SOL    HW282035  13.864   5.217   4.923
26735SOL     OW82036  13.017   5.747   9.098
26735SOL    HW182037  13.051   5.693   9.170
26735SOL    HW282038  12.924   5.727   9.095
26736SOL     OW82039  12.758  14.815  11.092
26736SOL    HW182040  12.842  14.852  11.066
26736SOL    HW282041  12.734  14.863  11.172
26737SOL     OW82042  12.989   3.432   1.284
26737SOL    HW182043  13.072   3.391   1.257
26737SOL    HW282044  12.925   3.360   1.282
26738SOL     OW82045   7.539   2.637   5.621
26738SOL    HW182046   7.575   2.638   5.709
26738SOL    HW282047   7.591   2.701   5.572
26739SOL     OW82048   5.470   8.071   1.101
26739SOL    HW182049   5.385   8.036   1.125
26739SOL    HW282050   5.461   8.095   1.008
26740SOL     OW82051   5.424  14.838   0.430
26740SOL    HW182052   5.512  14.802   0.426
26740SOL    HW282053   5.369  14.772   0.387
26741SOL     OW82054  12.990   2.884   3.639
26741SOL    HW182055  12.896   2.878   3.658
26741SOL    HW282056  13.029   2.811   3.688
26742SOL     OW82057   8.939   1.417  14.695
26742SOL    HW182058   8.873   1.485  14.699
26742SOL    HW282059   8.940   1.378  14.783
26743SOL     OW82060   5.071   5.687   9.463
26743SOL    HW182061   4.983   5.649   9.456
26743SOL    HW282062   5.079   5.742   9.385
26744SOL     OW82063   9.274   4.280   2.509
26744SOL    HW182064   9.330   4.327   2.571
26744SOL    HW282065   9.197   4.336   2.498
26745SOL     OW82066   6.657  12.829   3.338
26745SOL    HW182067   6.569  12.791   3.334
26745SOL    HW282068   6.703  12.792   3.263
26746SOL     OW82069   3.299  13.481   5.884
26746SOL    HW182070   3.388  13.447   5.883
26746SOL    HW282071   3.276  13.488   5.977
26747SOL     OW82072  11.145   0.154   7.807
26747SOL    HW182073  11.112   0.157   7.897
26747SOL    HW282074  11.204   0.078   7.806
26748SOL     OW82075  10.516   8.829   6.611
26748SOL    HW182076  10.504   8.806   6.703
26748SOL    HW282077  10.562   8.913   6.613
26749SOL     OW82078   2.165  13.538  10.349
26749SOL    HW182079   2.201  13.465  10.299
26749SOL    HW282080   2.204  13.529  10.436
26750SOL     OW82081   5.915  11.498  13.107
26750SOL    HW182082   5.846  11.432  13.105
26750SOL    HW282083   5.948  11.496  13.197
26751SOL     OW82084   8.645   3.112  14.786
26751SOL    HW182085   8.724   3.057  14.786
26751SOL    HW282086   8.573   3.050  14.792
26752SOL     OW82087   0.374   5.461   0.015
26752SOL    HW182088   0.339   5.374  14.872
26752SOL    HW282089   0.314   5.521  14.846
26753SOL     OW82090   9.596   1.439  12.673
26753SOL    HW182091   9.686   1.437  12.704
26753SOL    HW282092   9.595   1.379  12.599
26754SOL     OW82093  10.324   2.771   5.422
26754SOL    HW182094  10.372   2.813   5.350
26754SOL    HW282095  10.324   2.678   5.399
26755SOL     OW82096   3.977   1.696   3.383
26755SOL    HW182097   4.005   1.743   3.461
26755SOL    HW282098   4.055   1.691   3.328
26756SOL     OW82099  10.274  10.451  11.987
26756SOL    HW182100  10.365  10.421  11.981
26756SOL    HW282101  10.244  10.422  12.073
26757SOL     OW82102  10.463  13.973   5.491
26757SOL    HW182103  10.378  13.936   5.465
26757SOL    HW282104  10.455  13.988   5.585
26758SOL     OW82105   9.979   8.768   8.203
26758SOL    HW182106   9.956   8.740   8.292
26758SOL    HW282107   9.902   8.746   8.151
26759SOL     OW82108  12.427   9.035   0.363
26759SOL    HW182109  12.478   8.954   0.356
26759SOL    HW282110  12.336   9.007   0.355
26760SOL     OW82111  10.394   0.837   8.380
26760SOL    HW182112  10.437   0.767   8.429
26760SOL    HW282113  10.388   0.803   8.291
26761SOL     OW82114  10.305   5.877   3.895
26761SOL    HW182115  10.349   5.956   3.863
26761SOL    HW282116  10.374   5.810   3.896
26762SOL     OW82117  13.828   7.103  10.638
26762SOL    HW182118  13.800   7.104  10.546
26762SOL    HW282119  13.807   7.191  10.669
26763SOL     OW82120  10.716   5.865   8.536
26763SOL    HW182121  10.769   5.793   8.501
26763SOL    HW282122  10.726   5.857   8.631
26764SOL     OW82123   2.298   9.297   5.347
26764SOL    HW182124   2.380   9.341   5.325
26764SOL    HW282125   2.250   9.360   5.402
26765SOL     OW82126   4.533   8.421   6.912
26765SOL    HW182127   4.479   8.496   6.938
26765SOL    HW282128   4.620   8.458   6.899
26766SOL     OW82129   0.461   0.518   2.054
26766SOL    HW182130   0.459   0.578   1.979
26766SOL    HW282131   0.420   0.438   2.021
26767SOL     OW82132   1.897  13.888   3.117
26767SOL    HW182133   1.915  13.822   3.184
26767SOL    HW282134   1.811  13.922   3.139
26768SOL     OW82135   9.113   8.736  12.730
26768SOL    HW182136   9.078   8.800  12.791
26768SOL    HW282137   9.038   8.682  12.705
26769SOL     OW82138   4.513  10.883   7.483
26769SOL    HW182139   4.586  10.873   7.422
26769SOL    HW282140   4.485  10.794   7.503
26770SOL     OW82141   1.397  10.049  13.523
26770SOL    HW182142   1.449   9.971  13.545
26770SOL    HW282143   1.307  10.018  13.523
26771SOL     OW82144   6.444   5.776  14.667
26771SOL    HW182145   6.363   5.821  14.642
26771SOL    HW282146   6.437   5.690  14.625
26772SOL     OW82147  10.741   1.021  12.074
26772SOL    HW182148  10.820   1.063  12.107
26772SOL    HW282149  10.671   1.082  12.096
26773SOL     OW82150   8.658   0.907   7.565
26773SOL    HW182151   8.572   0.945   7.583
26773SOL    HW282152   8.708   0.979   7.526
26774SOL     OW82153   3.317   8.101   0.256
26774SOL    HW182154   3.302   8.155   0.334
26774SOL    HW282155   3.372   8.154   0.199
26775SOL     OW82156  11.053   5.562   7.347
26775SOL    HW182157  10.977   5.571   7.405
26775SOL    HW282158  11.127   5.595   7.400
26776SOL     OW82159   6.940   0.998  13.668
26776SOL    HW182160   7.000   1.024  13.598
26776SOL    HW282161   6.878   1.071  13.675
26777SOL     OW82162  11.364   9.193  12.747
26777SOL    HW182163  11.441   9.241  12.715
26777SOL    HW282164  11.320   9.163  12.668
26778SOL     OW82165  11.729   6.689   9.837
26778SOL    HW182166  11.729   6.696   9.933
26778SOL    HW282167  11.703   6.598   9.820
26779SOL     OW82168  13.830   3.779   1.342
26779SOL    HW182169  13.825   3.874   1.354
26779SOL    HW282170  13.924   3.759   1.340
26780SOL     OW82171  13.983   5.963   8.626
26780SOL    HW182172  13.948   6.037   8.675
26780SOL    HW282173  14.042   6.002   8.562
26781SOL     OW82174   4.745   7.462   0.028
26781SOL    HW182175   4.763   7.389   0.088
26781SOL    HW282176   4.726   7.420  14.820
26782SOL     OW82177   3.313   6.447  13.249
26782SOL    HW182178   3.387   6.396  13.216
26782SOL    HW282179   3.346   6.487  13.330
26783SOL     OW82180   1.187   0.137  13.735
26783SOL    HW182181   1.096   0.112  13.720
26783SOL    HW282182   1.231   0.120  13.652
26784SOL     OW82183  14.350  12.462  12.820
26784SOL    HW182184  14.284  12.394  12.833
26784SOL    HW282185  14.419  12.418  12.770
26785SOL     OW82186   6.464   2.919   5.647
26785SOL    HW182187   6.432   3.003   5.679
26785SOL    HW282188   6.482   2.868   5.727
26786SOL     OW82189   0.006  13.483  14.793
26786SOL    HW182190  14.789  13.502  14.805
26786SOL    HW282191   0.011  13.437  14.710
26787SOL     OW82192   5.122   0.244  10.933
26787SOL    HW182193   5.213   0.235  10.903
26787SOL    HW282194   5.069   0.212  10.860
26788SOL     OW82195   1.699  11.877   9.788
26788SOL    HW182196   1.776  11.821   9.800
26788SOL    HW282197   1.701  11.900   9.695
26789SOL     OW82198   4.275   4.216   7.465
26789SOL    HW182199   4.365   4.184   7.452
26789SOL    HW282200   4.280   4.266   7.546
26790SOL     OW82201   9.294  12.778   2.501
26790SOL    HW182202   9.238  12.832   2.556
26790SOL    HW282203   9.295  12.692   2.542
26791SOL     OW82204   3.460   6.842   3.058
26791SOL    HW182205   3.439   6.881   3.143
26791SOL    HW282206   3.388   6.869   3.001
26792SOL     OW82207   1.700   3.074   8.990
26792SOL    HW182208   1.732   3.057   9.079
26792SOL    HW282209   1.673   3.166   8.992
26793SOL     OW82210   2.031   7.844  13.745
26793SOL    HW182211   2.048   7.779  13.813
26793SOL    HW282212   2.101   7.831  13.681
26794SOL     OW82213   1.759   2.708   0.523
26794SOL    HW182214   1.849   2.741   0.522
26794SOL    HW282215   1.761   2.631   0.466
26795SOL     OW82216   4.696   2.797   8.505
26795SOL    HW182217   4.775   2.839   8.472
26795SOL    HW282218   4.664   2.855   8.574
26796SOL     OW82219  13.658   0.454   1.405
26796SOL    HW182220  13.715   0.416   1.472
26796SOL    HW282221  13.569   0.429   1.432
26797SOL     OW82222   2.615   2.000   2.044
26797SOL    HW182223   2.682   1.956   2.096
26797SOL    HW282224   2.554   2.036   2.109
26798SOL     OW82225   8.818   8.207   8.361
26798SOL    HW182226   8.830   8.156   8.441
26798SOL    HW282227   8.906   8.219   8.326
26799SOL     OW82228   7.297   9.911  13.179
26799SOL    HW182229   7.266   9.853  13.248
26799SOL    HW282230   7.298   9.998  13.220
26800SOL     OW82231   7.417   4.220  10.640
26800SOL    HW182232   7.461   4.190  10.719
26800SOL    HW282233   7.424   4.316  10.643
26801SOL     OW82234  13.675  13.052  13.422
26801SOL    HW182235  13.690  13.041  13.516
26801SOL    HW282236  13.711  13.138  13.402
26802SOL     OW82237   2.408   8.210   1.899
26802SOL    HW182238   2.447   8.195   1.984
26802SOL    HW282239   2.442   8.295   1.871
26803SOL     OW82240  12.370   4.048   2.313
26803SOL    HW182241  12.423   3.998   2.251
26803SOL    HW282242  12.317   3.983   2.359
26804SOL     OW82243   3.244   9.627   9.849
26804SOL    HW182244   3.319   9.569   9.840
26804SOL    HW282245   3.260   9.699   9.788
26805SOL     OW82246   4.881   5.495  14.240
26805SOL    HW182247   4.791   5.520  14.262
26805SOL    HW282248   4.890   5.518  14.147
26806SOL     OW82249  12.831   3.474  10.456
26806SOL    HW182250  12.833   3.413  10.383
26806SOL    HW282251  12.900   3.445  10.515
26807SOL     OW82252  10.633  14.871   7.312
26807SOL    HW182253  10.612   0.044   7.233
26807SOL    HW282254  10.729  14.868   7.313
26808SOL     OW82255   6.182   4.182   4.837
26808SOL    HW182256   6.252   4.188   4.902
26808SOL    HW282257   6.101   4.185   4.888
26809SOL     OW82258   2.860   7.122  13.903
26809SOL    HW182259   2.794   7.142  13.971
26809SOL    HW282260   2.900   7.040  13.933
26810SOL     OW82261   9.563   1.493  13.702
26810SOL    HW182262   9.582   1.580  13.668
26810SOL    HW282263   9.638   1.440  13.675
26811SOL     OW82264   7.859   7.791   7.788
26811SOL    HW182265   7.771   7.796   7.750
26811SOL    HW282266   7.867   7.699   7.815
26812SOL     OW82267   3.520  12.989  12.909
26812SOL    HW182268   3.529  12.897  12.934
26812SOL    HW282269   3.526  13.037  12.992
26813SOL     OW82270   2.081   7.868   2.447
26813SOL    HW182271   2.027   7.920   2.386
26813SOL    HW282272   2.027   7.862   2.526
26814SOL     OW82273  13.580   4.700   4.083
26814SOL    HW182274  13.634   4.685   4.161
26814SOL    HW282275  13.619   4.777   4.042
26815SOL     OW82276  11.783   1.061   1.547
26815SOL    HW182277  11.833   1.123   1.600
26815SOL    HW282278  11.761   0.990   1.607
26816SOL     OW82279   2.405  12.732  11.190
26816SOL    HW182280   2.392  12.740  11.096
26816SOL    HW282281   2.323  12.695  11.222
26817SOL     OW82282   4.224   3.947   7.067
26817SOL    HW182283   4.284   3.948   7.142
26817SOL    HW282284   4.251   3.871   7.015
26818SOL     OW82285   7.391   8.166   2.966
26818SOL    HW182286   7.420   8.142   2.879
26818SOL    HW282287   7.351   8.087   3.001
26819SOL     OW82288   5.259   7.611   5.372
26819SOL    HW182289   5.313   7.618   5.450
26819SOL    HW282290   5.185   7.668   5.389
26820SOL     OW82291   7.129  13.152   3.889
26820SOL    HW182292   7.084  13.202   3.820
26820SOL    HW282293   7.082  13.069   3.893
26821SOL     OW82294  12.356  10.266  13.664
26821SOL    HW182295  12.349  10.352  13.704
26821SOL    HW282296  12.312  10.207  13.726
26822SOL     OW82297  10.976   8.892   7.302
26822SOL    HW182298  11.013   8.874   7.216
26822SOL    HW282299  10.882   8.899   7.287
26823SOL     OW82300  10.081   0.620  13.851
26823SOL    HW182301  10.166   0.658  13.869
26823SOL    HW282302  10.019   0.691  13.866
26824SOL     OW82303   0.019   7.387   4.732
26824SOL    HW182304  14.853   7.301   4.729
26824SOL    HW282305   0.071   7.392   4.651
26825SOL     OW82306   1.642  10.840   3.158
26825SOL    HW182307   1.578  10.796   3.102
26825SOL    HW282308   1.604  10.927   3.174
26826SOL     OW82309   0.581  10.467   2.657
26826SOL    HW182310   0.668  10.507   2.652
26826SOL    HW282311   0.526  10.536   2.694
26827SOL     OW82312   8.729   4.969  11.549
26827SOL    HW182313   8.680   4.908  11.494
26827SOL    HW282314   8.684   4.967  11.633
26828SOL     OW82315  11.169  11.631   0.308
26828SOL    HW182316  11.179  11.713   0.356
26828SOL    HW282317  11.129  11.656   0.225
26829SOL     OW82318   1.545  13.780  12.031
26829SOL    HW182319   1.484  13.777  12.104
26829SOL    HW282320   1.507  13.842  11.969
26830SOL     OW82321   7.417   4.251   9.931
26830SOL    HW182322   7.410   4.172   9.984
26830SOL    HW282323   7.396   4.223   9.842
26831SOL     OW82324   6.467   3.658  13.592
26831SOL    HW182325   6.420   3.736  13.563
26831SOL    HW282326   6.542   3.691  13.641
26832SOL     OW82327  11.457  14.636   0.827
26832SOL    HW182328  11.466  14.731   0.816
26832SOL    HW282329  11.363  14.620   0.830
26833SOL     OW82330   0.457  10.487   7.745
26833SOL    HW182331   0.500  10.410   7.707
26833SOL    HW282332   0.368  10.456   7.765
26834SOL     OW82333   6.928   8.031   2.234
26834SOL    HW182334   6.995   8.092   2.266
26834SOL    HW282335   6.922   7.965   2.303
26835SOL     OW82336   1.958   4.133   4.687
26835SOL    HW182337   1.902   4.066   4.647
26835SOL    HW282338   1.896   4.198   4.721
26836SOL     OW82339   6.515   1.273  14.560
26836SOL    HW182340   6.559   1.207  14.507
26836SOL    HW282341   6.560   1.355  14.538
26837SOL     OW82342   4.371   5.182   0.991
26837SOL    HW182343   4.458   5.180   1.031
26837SOL    HW282344   4.312   5.153   1.060
26838SOL     OW82345  14.506   6.776   1.830
26838SOL    HW182346  14.547   6.842   1.774
26838SOL    HW282347  14.504   6.815   1.917
26839SOL     OW82348   5.433   7.830   7.271
26839SOL    HW182349   5.442   7.744   7.312
26839SOL    HW282350   5.373   7.816   7.197
26840SOL     OW82351  10.693   2.193   7.103
26840SOL    HW182352  10.634   2.204   7.029
26840SOL    HW282353  10.636   2.184   7.179
26841SOL     OW82354   8.949   0.828   8.692
26841SOL    HW182355   8.980   0.899   8.748
26841SOL    HW282356   9.025   0.772   8.679
26842SOL     OW82357   2.679  13.701   4.687
26842SOL    HW182358   2.672  13.722   4.780
26842SOL    HW282359   2.657  13.608   4.682
26843SOL     OW82360   2.874  13.973   0.342
26843SOL    HW182361   2.888  14.063   0.371
26843SOL    HW282362   2.804  13.939   0.398
26844SOL     OW82363  11.747  13.747   7.592
26844SOL    HW182364  11.696  13.748   7.672
26844SOL    HW282365  11.685  13.720   7.524
26845SOL     OW82366  13.830   0.351  10.637
26845SOL    HW182367  13.909   0.297  10.637
26845SOL    HW282368  13.771   0.309  10.699
26846SOL     OW82369  10.924  12.676   7.199
26846SOL    HW182370  10.969  12.732   7.263
26846SOL    HW282371  10.966  12.697   7.116
26847SOL     OW82372   4.437   7.238   0.586
26847SOL    HW182373   4.478   7.304   0.531
26847SOL    HW282374   4.376   7.287   0.641
26848SOL     OW82375  10.116   2.007  12.212
26848SOL    HW182376  10.106   1.991  12.118
26848SOL    HW282377  10.193   1.957  12.237
26849SOL     OW82378   6.603  11.868  13.415
26849SOL    HW182379   6.541  11.874  13.342
26849SOL    HW282380   6.570  11.794  13.467
26850SOL     OW82381  14.674   8.541  12.860
26850SOL    HW182382  14.614   8.578  12.796
26850SOL    HW282383  14.651   8.449  12.865
26851SOL     OW82384  13.494  13.301  12.696
26851SOL    HW182385  13.553  13.282  12.769
26851SOL    HW282386  13.551  13.332  12.626
26852SOL     OW82387   1.102  10.333   7.149
26852SOL    HW182388   1.172  10.318   7.085
26852SOL    HW282389   1.048  10.254   7.143
26853SOL     OW82390  12.433  11.487   6.247
26853SOL    HW182391  12.475  11.461   6.165
26853SOL    HW282392  12.398  11.574   6.230
26854SOL     OW82393  10.286   0.658   0.411
26854SOL    HW182394  10.336   0.709   0.347
26854SOL    HW282395  10.331   0.674   0.494
26855SOL     OW82396   0.164   8.508   4.259
26855SOL    HW182397   0.132   8.540   4.175
26855SOL    HW282398   0.174   8.586   4.313
26856SOL     OW82399   4.839  13.245   0.178
26856SOL    HW182400   4.912  13.306   0.192
26856SOL    HW282401   4.817  13.256   0.086
26857SOL     OW82402   8.857   7.135   7.266
26857SOL    HW182403   8.765   7.147   7.243
26857SOL    HW282404   8.877   7.046   7.239
26858SOL     OW82405  11.227  11.112   7.229
26858SOL    HW182406  11.157  11.068   7.181
26858SOL    HW282407  11.278  11.157   7.162
26859SOL     OW82408   5.442   2.400  13.381
26859SOL    HW182409   5.531   2.410  13.415
26859SOL    HW282410   5.391   2.371  13.457
26860SOL     OW82411   8.955   7.250   8.349
26860SOL    HW182412   8.932   7.159   8.328
26860SOL    HW282413   8.963   7.292   8.263
26861SOL     OW82414  13.956   0.597   5.374
26861SOL    HW182415  14.039   0.550   5.368
26861SOL    HW282416  13.907   0.552   5.442
26862SOL     OW82417  10.017   3.925   9.353
26862SOL    HW182418   9.965   3.959   9.280
26862SOL    HW282419   9.965   3.851   9.387
26863SOL     OW82420  14.312   2.432  12.721
26863SOL    HW182421  14.265   2.495  12.776
26863SOL    HW282422  14.404   2.455  12.730
26864SOL     OW82423   8.057   4.960   1.883
26864SOL    HW182424   8.114   4.900   1.931
26864SOL    HW282425   8.023   5.020   1.949
26865SOL     OW82426   6.098  10.878   3.230
26865SOL    HW182427   6.025  10.905   3.174
26865SOL    HW282428   6.058  10.862   3.316
26866SOL     OW82429   0.307  11.075  13.816
26866SOL    HW182430   0.244  11.037  13.877
26866SOL    HW282431   0.272  11.052  13.729
26867SOL     OW82432  12.075   3.211   3.766
26867SOL    HW182433  11.998   3.211   3.823
26867SOL    HW282434  12.092   3.119   3.748
26868SOL     OW82435   6.750  10.382   3.616
26868SOL    HW182436   6.820  10.422   3.668
26868SOL    HW282437   6.701  10.328   3.678
26869SOL     OW82438   1.686  13.785  12.928
26869SOL    HW182439   1.683  13.740  13.012
26869SOL    HW282440   1.615  13.745  12.877
26870SOL     OW82441  12.154   7.388  12.366
26870SOL    HW182442  12.204   7.470  12.361
26870SOL    HW282443  12.202   7.328  12.310
26871SOL     OW82444  10.928  14.030   7.753
26871SOL    HW182445  10.895  13.952   7.709
26871SOL    HW282446  10.858  14.095   7.743
26872SOL     OW82447   8.807   9.319   4.936
26872SOL    HW182448   8.737   9.346   4.996
26872SOL    HW282449   8.802   9.381   4.863
26873SOL     OW82450  11.901   7.226  11.710
26873SOL    HW182451  11.947   7.147  11.739
26873SOL    HW282452  11.894   7.216  11.616
26874SOL     OW82453   9.671   9.592   0.350
26874SOL    HW182454   9.717   9.636   0.422
26874SOL    HW282455   9.653   9.504   0.382
26875SOL     OW82456   2.778   3.258   8.011
26875SOL    HW182457   2.699   3.302   7.980
26875SOL    HW282458   2.797   3.298   8.096
26876SOL     OW82459   1.451   0.817  13.954
26876SOL    HW182460   1.439   0.912  13.949
26876SOL    HW282461   1.368   0.781  13.921
26877SOL     OW82462   2.957  14.502   1.809
26877SOL    HW182463   3.009  14.436   1.763
26877SOL    HW282464   3.009  14.582   1.802
26878SOL     OW82465  10.951   2.310  13.894
26878SOL    HW182466  10.931   2.354  13.977
26878SOL    HW282467  11.006   2.372  13.847
26879SOL     OW82468   6.816   2.866   2.975
26879SOL    HW182469   6.774   2.782   2.956
26879SOL    HW282470   6.756   2.911   3.035
26880SOL     OW82471   4.525   1.065   2.341
26880SOL    HW182472   4.582   0.991   2.362
26880SOL    HW282473   4.443   1.045   2.385
26881SOL     OW82474  11.185  13.140   0.162
26881SOL    HW182475  11.189  13.090   0.243
26881SOL    HW282476  11.232  13.222   0.182
26882SOL     OW82477   1.064  14.664   1.512
26882SOL    HW182478   1.132  14.641   1.576
26882SOL    HW282479   1.069  14.759   1.506
26883SOL     OW82480   4.015  11.922   8.225
26883SOL    HW182481   3.943  11.985   8.216
26883SOL    HW282482   4.084  11.954   8.168
26884SOL     OW82483  13.875   0.048   2.782
26884SOL    HW182484  13.840   0.062   2.870
26884SOL    HW282485  13.816   0.098   2.725
26885SOL     OW82486   7.060  10.915  14.355
26885SOL    HW182487   7.102  10.839  14.315
26885SOL    HW282488   7.020  10.962  14.282
26886SOL     OW82489   2.540  11.950   7.258
26886SOL    HW182490   2.629  11.950   7.223
26886SOL    HW282491   2.550  11.964   7.352
26887SOL     OW82492   1.362   5.099   1.474
26887SOL    HW182493   1.326   5.176   1.517
26887SOL    HW282494   1.457   5.115   1.470
26888SOL     OW82495   3.678   7.002  10.596
26888SOL    HW182496   3.598   7.047  10.569
26888SOL    HW282497   3.747   7.067  10.584
26889SOL     OW82498  11.967  10.992   8.151
26889SOL    HW182499  11.914  11.039   8.215
26889SOL    HW282500  11.908  10.928   8.113
26890SOL     OW82501  14.366   6.021   6.893
26890SOL    HW182502  14.290   5.983   6.848
26890SOL    HW282503  14.329   6.092   6.946
26891SOL     OW82504   1.751   4.570  13.679
26891SOL    HW182505   1.796   4.555  13.762
26891SOL    HW282506   1.700   4.649  13.693
26892SOL     OW82507  12.561  10.602   9.007
26892SOL    HW182508  12.633  10.550   8.970
26892SOL    HW282509  12.485  10.580   8.953
26893SOL     OW82510   9.800  13.286   5.164
26893SOL    HW182511   9.825  13.222   5.097
26893SOL    HW282512   9.803  13.370   5.119
26894SOL     OW82513   1.514   7.454   0.425
26894SOL    HW182514   1.470   7.442   0.510
26894SOL    HW282515   1.513   7.367   0.386
26895SOL     OW82516  11.106   9.349   4.454
26895SOL    HW182517  11.077   9.330   4.543
26895SOL    HW282518  11.200   9.336   4.456
26896SOL     OW82519   0.240   4.784   9.204
26896SOL    HW182520   0.185   4.748   9.133
26896SOL    HW282521   0.257   4.874   9.178
26897SOL     OW82522   0.932   5.553   0.459
26897SOL    HW182523   0.995   5.625   0.463
26897SOL    HW282524   0.917   5.539   0.366
26898SOL     OW82525   0.334  11.889  13.052
26898SOL    HW182526   0.410  11.850  13.009
26898SOL    HW282527   0.316  11.968  13.001
26899SOL     OW82528   5.786  14.223   7.298
26899SOL    HW182529   5.834  14.234   7.216
26899SOL    HW282530   5.824  14.287   7.357
26900SOL     OW82531   4.846   5.019   1.143
26900SOL    HW182532   4.817   5.110   1.140
26900SOL    HW282533   4.875   5.005   1.233
26901SOL     OW82534   5.768   4.110  13.553
26901SOL    HW182535   5.800   4.121  13.463
26901SOL    HW282536   5.841   4.139  13.608
26902SOL     OW82537  11.609   7.413  12.486
26902SOL    HW182538  11.518   7.427  12.462
26902SOL    HW282539  11.658   7.475  12.431
26903SOL     OW82540   4.397   5.727   3.009
26903SOL    HW182541   4.395   5.734   3.104
26903SOL    HW282542   4.416   5.815   2.978
26904SOL     OW82543   2.264  13.330  10.190
26904SOL    HW182544   2.342  13.362  10.146
26904SOL    HW282545   2.216  13.282  10.123
26905SOL     OW82546  13.306   9.069   2.708
26905SOL    HW182547  13.391   9.038   2.738
26905SOL    HW282548  13.273   9.124   2.780
26906SOL     OW82549   0.137   4.500  12.685
26906SOL    HW182550   0.214   4.458  12.646
26906SOL    HW282551   0.126   4.456  12.769
26907SOL     OW82552   4.056   1.689  14.001
26907SOL    HW182553   4.102   1.608  14.022
26907SOL    HW282554   3.982   1.663  13.946
26908SOL     OW82555   4.662   4.744   8.778
26908SOL    HW182556   4.594   4.699   8.829
26908SOL    HW282557   4.667   4.831   8.817
26909SOL     OW82558   0.075  13.594  11.361
26909SOL    HW182559   0.099  13.530  11.294
26909SOL    HW282560  14.855  13.598  11.358
26910SOL     OW82561   8.364   0.876   0.092
26910SOL    HW182562   8.396   0.965   0.102
26910SOL    HW282563   8.350   0.865  14.873
26911SOL     OW82564   7.845   9.584  13.969
26911SOL    HW182565   7.755   9.571  13.996
26911SOL    HW282566   7.885   9.497  13.978
26912SOL     OW82567  11.305   9.730   1.537
26912SOL    HW182568  11.238   9.715   1.604
26912SOL    HW282569  11.386   9.742   1.588
26913SOL     OW82570  11.392   4.152   3.336
26913SOL    HW182571  11.319   4.213   3.329
26913SOL    HW282572  11.388   4.119   3.425
26914SOL     OW82573   6.390  11.887   6.458
26914SOL    HW182574   6.326  11.953   6.432
26914SOL    HW282575   6.349  11.843   6.533
26915SOL     OW82576  10.669   4.588  12.948
26915SOL    HW182577  10.711   4.606  12.864
26915SOL    HW282578  10.726   4.629  13.013
26916SOL     OW82579   8.575   6.979  13.349
26916SOL    HW182580   8.570   6.884  13.341
26916SOL    HW282581   8.590   6.994  13.442
26917SOL     OW82582   3.260  13.902   8.275
26917SOL    HW182583   3.352  13.879   8.266
26917SOL    HW282584   3.241  13.956   8.198
26918SOL     OW82585   3.251  13.715   7.521
26918SOL    HW182586   3.296  13.745   7.442
26918SOL    HW282587   3.158  13.728   7.503
26919SOL     OW82588  12.184   9.313   1.523
26919SOL    HW182589  12.226   9.395   1.548
26919SOL    HW282590  12.228   9.286   1.442
26920SOL     OW82591   6.614   5.171   2.412
26920SOL    HW182592   6.688   5.111   2.422
26920SOL    HW282593   6.566   5.162   2.494
26921SOL     OW82594   4.974   4.125   3.715
26921SOL    HW182595   4.937   4.055   3.769
26921SOL    HW282596   5.027   4.079   3.650
26922SOL     OW82597   2.231   0.585   6.546
26922SOL    HW182598   2.255   0.528   6.473
26922SOL    HW282599   2.201   0.525   6.614
26923SOL     OW82600  10.213  13.223  13.550
26923SOL    HW182601  10.205  13.229  13.455
26923SOL    HW282602  10.299  13.185  13.565
26924SOL     OW82603  10.165   2.572   8.403
26924SOL    HW182604  10.191   2.588   8.494
26924SOL    HW282605  10.221   2.630   8.352
26925SOL     OW82606   9.920   2.546  11.133
26925SOL    HW182607   9.920   2.641  11.146
26925SOL    HW282608   9.827   2.522  11.137
26926SOL     OW82609   4.106  12.636  12.501
26926SOL    HW182610   4.079  12.616  12.412
26926SOL    HW282611   4.171  12.569  12.522
26927SOL     OW82612  13.172   4.231  10.476
26927SOL    HW182613  13.152   4.182  10.397
26927SOL    HW282614  13.256   4.273  10.458
26928SOL     OW82615   7.124   7.876  14.822
26928SOL    HW182616   7.213   7.856  14.795
26928SOL    HW282617   7.073   7.799  14.796
26929SOL     OW82618   9.456  14.434  14.137
26929SOL    HW182619   9.526  14.389  14.184
26929SOL    HW282620   9.439  14.379  14.060
26930SOL     OW82621   0.264   9.288  11.042
26930SOL    HW182622   0.266   9.229  10.967
26930SOL    HW282623   0.203   9.357  11.017
26931SOL     OW82624   5.643  12.789   6.747
26931SOL    HW182625   5.571  12.813   6.806
26931SOL    HW282626   5.688  12.718   6.792
26932SOL     OW82627   7.167   0.633   3.196
26932SOL    HW182628   7.136   0.594   3.114
26932SOL    HW282629   7.148   0.726   3.187
26933SOL     OW82630  14.686  13.738  14.464
26933SOL    HW182631  14.618  13.681  14.427
26933SOL    HW282632  14.638  13.814  14.496
26934SOL     OW82633  10.885   6.616   5.658
26934SOL    HW182634  10.864   6.704   5.626
26934SOL    HW282635  10.883   6.560   5.580
26935SOL     OW82636   2.374  12.845   2.154
26935SOL    HW182637   2.448  12.785   2.154
26935SOL    HW282638   2.323  12.821   2.231
26936SOL     OW82639   2.768   5.551   0.795
26936SOL    HW182640   2.800   5.634   0.829
26936SOL    HW282641   2.801   5.547   0.705
26937SOL     OW82642   2.137   1.095   0.483
26937SOL    HW182643   2.084   1.166   0.447
26937SOL    HW282644   2.213   1.139   0.523
26938SOL     OW82645  13.582   1.862  12.798
26938SOL    HW182646  13.631   1.821  12.868
26938SOL    HW282647  13.583   1.798  12.726
26939SOL     OW82648   6.587   2.309   4.021
26939SOL    HW182649   6.511   2.364   4.004
26939SOL    HW282650   6.556   2.243   4.082
26940SOL     OW82651   7.505  11.087  10.339
26940SOL    HW182652   7.586  11.134  10.318
26940SOL    HW282653   7.494  11.025  10.267
26941SOL     OW82654  11.951   2.682   3.190
26941SOL    HW182655  11.896   2.670   3.267
26941SOL    HW282656  11.919   2.618   3.127
26942SOL     OW82657   5.448  14.511   2.436
26942SOL    HW182658   5.479  14.426   2.465
26942SOL    HW282659   5.398  14.492   2.356
26943SOL     OW82660  12.413  12.823   0.180
26943SOL    HW182661  12.491  12.826   0.234
26943SOL    HW282662  12.381  12.733   0.190
26944SOL     OW82663   5.118  10.547   7.957
26944SOL    HW182664   5.191  10.525   8.014
26944SOL    HW282665   5.083  10.629   7.992
26945SOL     OW82666   7.809   3.368   6.890
26945SOL    HW182667   7.890   3.411   6.919
26945SOL    HW282668   7.800   3.392   6.798
26946SOL     OW82669   7.924   1.442   7.181
26946SOL    HW182670   7.932   1.522   7.129
26946SOL    HW282671   8.004   1.439   7.233
26947SOL     OW82672   7.500   0.374   3.603
26947SOL    HW182673   7.519   0.371   3.509
26947SOL    HW282674   7.410   0.405   3.609
26948SOL     OW82675   2.456   6.810  14.180
26948SOL    HW182676   2.515   6.885  14.170
26948SOL    HW282677   2.501   6.738  14.136
26949SOL     OW82678   2.736   6.701  13.096
26949SOL    HW182679   2.757   6.759  13.023
26949SOL    HW282680   2.640   6.703  13.101
26950SOL     OW82681   9.588  10.378   0.193
26950SOL    HW182682   9.538  10.302   0.163
26950SOL    HW282683   9.679  10.356   0.174
26951SOL     OW82684  14.001   6.047   0.751
26951SOL    HW182685  14.016   6.045   0.657
26951SOL    HW282686  13.967   6.135   0.769
26952SOL     OW82687  12.186   2.133  14.328
26952SOL    HW182688  12.274   2.099  14.307
26952SOL    HW282689  12.203   2.213  14.378
26953SOL     OW82690  14.368   1.481   3.219
26953SOL    HW182691  14.402   1.500   3.306
26953SOL    HW282692  14.273   1.486   3.229
26954SOL     OW82693   5.639   5.765  14.268
26954SOL    HW182694   5.560   5.811  14.295
26954SOL    HW282695   5.682   5.741  14.350
26955SOL     OW82696   5.377  14.452   6.434
26955SOL    HW182697   5.443  14.415   6.374
26955SOL    HW282698   5.417  14.533   6.465
26956SOL     OW82699   2.136   9.397  13.073
26956SOL    HW182700   2.223   9.434  13.092
26956SOL    HW282701   2.075   9.453  13.121
26957SOL     OW82702   7.825   0.293   1.605
26957SOL    HW182703   7.900   0.262   1.555
26957SOL    HW282704   7.758   0.225   1.592
26958SOL     OW82705  12.861   1.369   7.651
26958SOL    HW182706  12.957   1.375   7.652
26958SOL    HW282707  12.836   1.380   7.742
26959SOL     OW82708   9.439   3.195   3.998
26959SOL    HW182709   9.433   3.264   4.064
26959SOL    HW282710   9.351   3.158   3.994
26960SOL     OW82711   7.078   9.417   5.336
26960SOL    HW182712   7.116   9.383   5.255
26960SOL    HW282713   7.079   9.342   5.396
26961SOL     OW82714  10.385   4.246  11.405
26961SOL    HW182715  10.309   4.188  11.403
26961SOL    HW282716  10.451   4.202  11.351
26962SOL     OW82717   3.717  12.930  10.453
26962SOL    HW182718   3.777  12.944  10.379
26962SOL    HW282719   3.746  12.994  10.518
26963SOL     OW82720  12.551   7.215  10.534
26963SOL    HW182721  12.575   7.156  10.462
26963SOL    HW282722  12.517   7.293  10.490
26964SOL     OW82723  14.557   4.090   9.685
26964SOL    HW182724  14.500   4.135   9.747
26964SOL    HW282725  14.646   4.102   9.720
26965SOL     OW82726   5.848   0.611   0.506
26965SOL    HW182727   5.941   0.592   0.501
26965SOL    HW282728   5.815   0.594   0.417
26966SOL     OW82729   0.906   8.582  10.471
26966SOL    HW182730   0.982   8.638  10.485
26966SOL    HW282731   0.942   8.493  10.467
26967SOL     OW82732   3.508   1.209  14.868
26967SOL    HW182733   3.577   1.226   0.056
26967SOL    HW282734   3.427   1.233   0.038
26968SOL     OW82735   9.335   8.062   9.029
26968SOL    HW182736   9.326   8.012   8.948
26968SOL    HW282737   9.249   8.101   9.043
26969SOL     OW82738  13.354  13.971   0.404
26969SOL    HW182739  13.387  13.911   0.470
26969SOL    HW282740  13.268  13.936   0.380
26970SOL     OW82741   7.081  10.193   5.050
26970SOL    HW182742   6.989  10.217   5.045
26970SOL    HW282743   7.127  10.276   5.064
26971SOL     OW82744   8.116  13.440   9.392
26971SOL    HW182745   8.102  13.410   9.303
26971SOL    HW282746   8.067  13.377   9.446
26972SOL     OW82747   3.858  14.828  11.541
26972SOL    HW182748   3.936  14.801  11.492
26972SOL    HW282749   3.827   0.031  11.495
26973SOL     OW82750   9.409  14.802   5.420
26973SOL    HW182751   9.466  14.838   5.352
26973SOL    HW282752   9.328  14.779   5.375
26974SOL     OW82753  13.434   6.818  12.412
26974SOL    HW182754  13.376   6.767  12.469
26974SOL    HW282755  13.376   6.877  12.365
26975SOL     OW82756   1.722   7.530  13.511
26975SOL    HW182757   1.666   7.591  13.462
26975SOL    HW282758   1.759   7.472  13.444
26976SOL     OW82759  13.631   1.584  14.744
26976SOL    HW182760  13.632   1.519  14.673
26976SOL    HW282761  13.607   1.533  14.821
26977SOL     OW82762   0.351  14.069   6.679
26977SOL    HW182763   0.265  14.070   6.720
26977SOL    HW282764   0.408  14.115   6.741
26978SOL     OW82765  14.113   5.160   3.665
26978SOL    HW182766  14.170   5.214   3.719
26978SOL    HW282767  14.026   5.168   3.705
26979SOL     OW82768   2.518   4.452   6.405
26979SOL    HW182769   2.538   4.545   6.410
26979SOL    HW282770   2.470   4.442   6.323
26980SOL     OW82771  12.197  13.617   0.129
26980SOL    HW182772  12.263  13.670   0.174
26980SOL    HW282773  12.119  13.673   0.128
26981SOL     OW82774  12.952   4.352   5.427
26981SOL    HW182775  13.046   4.371   5.422
26981SOL    HW282776  12.940   4.276   5.370
26982SOL     OW82777  12.244   2.289   3.262
26982SOL    HW182778  12.301   2.271   3.188
26982SOL    HW282779  12.223   2.382   3.255
26983SOL     OW82780  10.793   7.035  10.880
26983SOL    HW182781  10.802   7.130  10.874
26983SOL    HW282782  10.749   7.020  10.964
26984SOL     OW82783   5.015   8.953  12.091
26984SOL    HW182784   4.984   9.005  12.017
26984SOL    HW282785   4.993   8.863  12.068
26985SOL     OW82786  10.433   9.228   7.972
26985SOL    HW182787  10.504   9.287   7.997
26985SOL    HW282788  10.399   9.194   8.055
26986SOL     OW82789   8.764   3.414   5.179
26986SOL    HW182790   8.742   3.507   5.188
26986SOL    HW282791   8.686   3.375   5.138
26987SOL     OW82792   0.350   7.166   9.370
26987SOL    HW182793   0.404   7.168   9.291
26987SOL    HW282794   0.375   7.245   9.419
26988SOL     OW82795   3.892  12.579   4.205
26988SOL    HW182796   3.879  12.565   4.111
26988SOL    HW282797   3.985  12.566   4.219
26989SOL     OW82798   8.390   4.493   9.398
26989SOL    HW182799   8.331   4.543   9.342
26989SOL    HW282800   8.477   4.526   9.376
26990SOL     OW82801  12.681   7.060   9.654
26990SOL    HW182802  12.640   7.127   9.600
26990SOL    HW282803  12.746   7.018   9.597
26991SOL     OW82804   6.998   1.230   5.391
26991SOL    HW182805   6.926   1.282   5.424
26991SOL    HW282806   7.009   1.259   5.300
26992SOL     OW82807   9.539   7.356   2.878
26992SOL    HW182808   9.507   7.276   2.838
26992SOL    HW282809   9.495   7.361   2.963
26993SOL     OW82810   6.888   0.662   8.566
26993SOL    HW182811   6.814   0.705   8.523
26993SOL    HW282812   6.904   0.715   8.644
26994SOL     OW82813  11.500  10.884  12.862
26994SOL    HW182814  11.497  10.801  12.909
26994SOL    HW282815  11.509  10.950  12.930
26995SOL     OW82816   9.592   9.149   7.900
26995SOL    HW182817   9.511   9.115   7.861
26995SOL    HW282818   9.563   9.215   7.962
26996SOL     OW82819   5.955   3.622   9.105
26996SOL    HW182820   5.968   3.715   9.084
26996SOL    HW282821   5.899   3.623   9.182
26997SOL     OW82822  12.411   0.887   8.156
26997SOL    HW182823  12.469   0.890   8.080
26997SOL    HW282824  12.458   0.833   8.219
26998SOL     OW82825   7.384  10.737  10.118
26998SOL    HW182826   7.410  10.829  10.114
26998SOL    HW282827   7.440  10.693  10.054
26999SOL     OW82828   7.939  12.184  14.154
26999SOL    HW182829   7.943  12.109  14.214
26999SOL    HW282830   7.859  12.169  14.103
27000SOL     OW82831   1.237  13.360   5.733
27000SOL    HW182832   1.230  13.307   5.653
27000SOL    HW282833   1.186  13.438   5.714
27001SOL     OW82834   5.988   0.461   6.466
27001SOL    HW182835   5.912   0.485   6.412
27001SOL    HW282836   6.057   0.522   6.439
27002SOL     OW82837  11.278   6.461   5.778
27002SOL    HW182838  11.242   6.372   5.782
27002SOL    HW282839  11.368   6.448   5.750
27003SOL     OW82840   9.708   9.766   2.667
27003SOL    HW182841   9.704   9.677   2.703
27003SOL    HW282842   9.737   9.754   2.577
27004SOL     OW82843   3.790   3.534  13.320
27004SOL    HW182844   3.748   3.595  13.259
27004SOL    HW282845   3.881   3.564  13.324
27005SOL     OW82846  14.296   6.583   9.111
27005SOL    HW182847  14.213   6.549   9.077
27005SOL    HW282848  14.337   6.626   9.036
27006SOL     OW82849   8.592  13.085  10.421
27006SOL    HW182850   8.564  13.140  10.494
27006SOL    HW282851   8.525  13.018  10.415
27007SOL     OW82852   9.214   4.044   0.194
27007SOL    HW182853   9.263   4.037   0.277
27007SOL    HW282854   9.237   3.964   0.146
27008SOL     OW82855   4.168   7.219  13.870
27008SOL    HW182856   4.230   7.199  13.939
27008SOL    HW282857   4.083   7.221  13.914
27009SOL     OW82858  14.242   7.158   3.015
27009SOL    HW182859  14.304   7.229   3.004
27009SOL    HW282860  14.213   7.137   2.926
27010SOL     OW82861   7.674   4.174   8.953
27010SOL    HW182862   7.646   4.258   8.917
27010SOL    HW282863   7.712   4.196   9.039
27011SOL     OW82864  13.301  12.385   0.092
27011SOL    HW182865  13.382  12.387   0.143
27011SOL    HW282866  13.249  12.458   0.126
27012SOL     OW82867   0.089  12.087   3.479
27012SOL    HW182868   0.030  12.015   3.499
27012SOL    HW282869   0.060  12.118   3.393
27013SOL     OW82870   2.805  11.400  10.646
27013SOL    HW182871   2.899  11.388  10.660
27013SOL    HW282872   2.797  11.491  10.616
27014SOL     OW82873  14.067   1.817   3.805
27014SOL    HW182874  14.085   1.834   3.898
27014SOL    HW282875  14.011   1.740   3.805
27015SOL     OW82876   6.302   9.664   5.135
27015SOL    HW182877   6.289   9.706   5.220
27015SOL    HW282878   6.345   9.581   5.156
27016SOL     OW82879   7.144  12.288   6.890
27016SOL    HW182880   7.235  12.318   6.887
27016SOL    HW282881   7.092  12.368   6.896
27017SOL     OW82882  12.392  14.565   9.793
27017SOL    HW182883  12.465  14.585   9.734
27017SOL    HW282884  12.364  14.650   9.826
27018SOL     OW82885   3.473   9.531   1.059
27018SOL    HW182886   3.431   9.594   1.118
27018SOL    HW282887   3.523   9.585   0.998
27019SOL     OW82888   6.938   5.858   1.898
27019SOL    HW182889   6.940   5.897   1.986
27019SOL    HW282890   6.935   5.763   1.915
27020SOL     OW82891   4.144  12.527   3.108
27020SOL    HW182892   4.225  12.534   3.158
27020SOL    HW282893   4.138  12.435   3.084
27021SOL     OW82894   2.723   8.303   8.648
27021SOL    HW182895   2.749   8.322   8.738
27021SOL    HW282896   2.717   8.389   8.606
27022SOL     OW82897   0.514  11.589   8.600
27022SOL    HW182898   0.421  11.614   8.603
27022SOL    HW282899   0.540  11.605   8.510
27023SOL     OW82900   3.476   3.816   7.168
27023SOL    HW182901   3.453   3.892   7.115
27023SOL    HW282902   3.393   3.773   7.185
27024SOL     OW82903   2.209  12.642   8.899
27024SOL    HW182904   2.276  12.616   8.837
27024SOL    HW282905   2.205  12.737   8.892
27025SOL     OW82906  11.364   0.092   9.723
27025SOL    HW182907  11.344   0.179   9.688
27025SOL    HW282908  11.450   0.071   9.688
27026SOL     OW82909   9.162  12.088  11.421
27026SOL    HW182910   9.152  12.079  11.326
27026SOL    HW282911   9.256  12.080  11.436
27027SOL     OW82912   9.555  13.786  11.680
27027SOL    HW182913   9.549  13.691  11.695
27027SOL    HW282914   9.467  13.818  11.700
27028SOL     OW82915  10.052   0.595   7.382
27028SOL    HW182916  10.134   0.566   7.342
27028SOL    HW282917   9.990   0.601   7.309
27029SOL     OW82918   2.071   5.962  13.938
27029SOL    HW182919   2.155   5.953  13.892
27029SOL    HW282920   2.036   5.873  13.942
27030SOL     OW82921   9.535   2.132   4.674
27030SOL    HW182922   9.460   2.170   4.719
27030SOL    HW282923   9.594   2.206   4.659
27031SOL     OW82924  14.691   3.467   4.668
27031SOL    HW182925  14.624   3.486   4.733
27031SOL    HW282926  14.653   3.400   4.612
27032SOL     OW82927   9.568   7.769  10.665
27032SOL    HW182928   9.564   7.700  10.731
27032SOL    HW282929   9.529   7.729  10.587
27033SOL     OW82930   8.252   3.307   1.432
27033SOL    HW182931   8.202   3.339   1.357
27033SOL    HW282932   8.286   3.222   1.403
27034SOL     OW82933  10.850   9.174  14.856
27034SOL    HW182934  10.881   9.140   0.064
27034SOL    HW282935  10.871   9.267  14.858
27035SOL     OW82936   8.937   2.962   2.745
27035SOL    HW182937   8.961   2.883   2.696
27035SOL    HW282938   8.842   2.962   2.745
27036SOL     OW82939   8.695   3.450  13.827
27036SOL    HW182940   8.715   3.360  13.853
27036SOL    HW282941   8.660   3.442  13.738
27037SOL     OW82942   2.937   7.856  13.283
27037SOL    HW182943   2.997   7.877  13.211
27037SOL    HW282944   2.926   7.761  13.278
27038SOL     OW82945   1.941   2.962  13.250
27038SOL    HW182946   1.895   2.901  13.192
27038SOL    HW282947   1.906   2.942  13.337
27039SOL     OW82948   8.874   9.441   6.364
27039SOL    HW182949   8.883   9.498   6.440
27039SOL    HW282950   8.912   9.358   6.392
27040SOL     OW82951   1.422  14.094   0.643
27040SOL    HW182952   1.359  14.162   0.620
27040SOL    HW282953   1.488  14.098   0.574
27041SOL     OW82954   6.290   7.471   5.678
27041SOL    HW182955   6.249   7.553   5.649
27041SOL    HW282956   6.220   7.424   5.722
27042SOL     OW82957   0.880   0.990   8.332
27042SOL    HW182958   0.947   1.047   8.295
27042SOL    HW282959   0.927   0.915   8.366
27043SOL     OW82960  14.009   0.612   2.160
27043SOL    HW182961  13.981   0.523   2.185
27043SOL    HW282962  14.030   0.654   2.243
27044SOL     OW82963  13.211  11.004   4.029
27044SOL    HW182964  13.214  10.920   3.983
27044SOL    HW282965  13.287  11.052   3.997
27045SOL     OW82966   0.386  10.958   4.629
27045SOL    HW182967   0.415  10.975   4.539
27045SOL    HW282968   0.401  11.040   4.675
27046SOL     OW82969   0.036   1.802   5.040
27046SOL    HW182970   0.103   1.806   5.108
27046SOL    HW282971  14.864   1.721   5.058
27047SOL     OW82972  11.876  14.764  10.386
27047SOL    HW182973  11.939  14.829  10.419
27047SOL    HW282974  11.885  14.770  10.291
27048SOL     OW82975   3.095   8.349  10.690
27048SOL    HW182976   3.029   8.413  10.716
27048SOL    HW282977   3.088   8.280  10.756
27049SOL     OW82978  13.890   8.846   8.807
27049SOL    HW182979  13.823   8.915   8.803
27049SOL    HW282980  13.971   8.893   8.826
27050SOL     OW82981   5.048  14.720   9.567
27050SOL    HW182982   5.024  14.664   9.494
27050SOL    HW282983   5.142  14.706   9.579
27051SOL     OW82984   6.199   9.918  14.230
27051SOL    HW182985   6.271   9.940  14.170
27051SOL    HW282986   6.135   9.989  14.216
27052SOL     OW82987  10.419   7.121   2.635
27052SOL    HW182988  10.334   7.154   2.664
27052SOL    HW282989  10.449   7.065   2.707
27053SOL     OW82990   5.144  10.738   5.008
27053SOL    HW182991   5.211  10.789   5.054
27053SOL    HW282992   5.133  10.782   4.924
27054SOL     OW82993   0.393  13.653  10.698
27054SOL    HW182994   0.420  13.621  10.612
27054SOL    HW282995   0.389  13.748  10.689
27055SOL     OW82996   8.745   1.401   7.709
27055SOL    HW182997   8.699   1.338   7.654
27055SOL    HW282998   8.683   1.421   7.780
27056SOL     OW82999   9.953   2.723  11.871
27056SOL    HW183000   9.858   2.713  11.879
27056SOL    HW283001   9.975   2.789  11.937
27057SOL     OW83002   7.447  11.417  11.396
27057SOL    HW183003   7.416  11.329  11.416
27057SOL    HW283004   7.506  11.439  11.468
27058SOL     OW83005  11.279   0.264  14.258
27058SOL    HW183006  11.312   0.198  14.197
27058SOL    HW283007  11.206   0.305  14.211
27059SOL     OW83008  13.966  13.892   2.631
27059SOL    HW183009  14.034  13.831   2.603
27059SOL    HW283010  13.896  13.880   2.567
27060SOL     OW83011  11.579   8.771   4.694
27060SOL    HW183012  11.664   8.754   4.734
27060SOL    HW283013  11.579   8.865   4.677
27061SOL     OW83014   5.078  14.031   2.184
27061SOL    HW183015   5.092  14.014   2.277
27061SOL    HW283016   5.062  13.945   2.146
27062SOL     OW83017  10.889  13.906  12.760
27062SOL    HW183018  10.849  13.925  12.845
27062SOL    HW283019  10.820  13.863  12.711
27063SOL     OW83020   3.142   8.058   6.160
27063SOL    HW183021   3.111   8.060   6.070
27063SOL    HW283022   3.082   8.114   6.208
27064SOL     OW83023   3.845   9.225   6.416
27064SOL    HW183024   3.776   9.211   6.351
27064SOL    HW283025   3.871   9.316   6.404
27065SOL     OW83026   3.762   4.310   8.285
27065SOL    HW183027   3.761   4.238   8.223
27065SOL    HW283028   3.851   4.346   8.279
27066SOL     OW83029   8.987   9.253   6.553
27066SOL    HW183030   8.987   9.171   6.601
27066SOL    HW283031   8.978   9.321   6.620
27067SOL     OW83032   1.423   4.573  10.151
27067SOL    HW183033   1.450   4.481  10.149
27067SOL    HW283034   1.330   4.571  10.174
27068SOL     OW83035   1.221   6.981   5.928
27068SOL    HW183036   1.288   7.019   5.985
27068SOL    HW283037   1.194   6.901   5.972
27069SOL     OW83038  11.610   9.051   4.093
27069SOL    HW183039  11.562   9.097   4.024
27069SOL    HW283040  11.657   9.119   4.140
27070SOL     OW83041   7.099  11.829  10.967
27070SOL    HW183042   7.099  11.799  10.877
27070SOL    HW283043   7.104  11.925  10.961
27071SOL     OW83044   7.869   1.127   0.412
27071SOL    HW183045   7.891   1.138   0.504
27071SOL    HW283046   7.808   1.053   0.410
27072SOL     OW83047   8.880   3.719   1.948
27072SOL    HW183048   8.867   3.776   2.024
27072SOL    HW283049   8.843   3.635   1.975
27073SOL     OW83050  13.307  14.231  10.913
27073SOL    HW183051  13.335  14.307  10.964
27073SOL    HW283052  13.257  14.177  10.975
27074SOL     OW83053   2.144  10.109  13.516
27074SOL    HW183054   2.096  10.138  13.594
27074SOL    HW283055   2.077  10.096  13.450
27075SOL     OW83056  12.757  14.302   4.369
27075SOL    HW183057  12.737  14.238   4.437
27075SOL    HW283058  12.674  14.348   4.353
27076SOL     OW83059  13.370   8.835  10.332
27076SOL    HW183060  13.306   8.774  10.295
27076SOL    HW283061  13.451   8.784  10.339
27077SOL     OW83062   3.523   4.019   9.125
27077SOL    HW183063   3.608   4.023   9.080
27077SOL    HW283064   3.529   3.940   9.179
27078SOL     OW83065  12.709   8.262  12.343
27078SOL    HW183066  12.704   8.200  12.270
27078SOL    HW283067  12.796   8.247  12.381
27079SOL     OW83068  11.186   9.453   5.936
27079SOL    HW183069  11.244   9.409   5.873
27079SOL    HW283070  11.243   9.511   5.985
27080SOL     OW83071  12.875   9.232  13.671
27080SOL    HW183072  12.799   9.244  13.614
27080SOL    HW283073  12.885   9.316  13.717
27081SOL     OW83074  13.453  12.594   5.795
27081SOL    HW183075  13.512  12.659   5.833
27081SOL    HW283076  13.370  12.607   5.841
27082SOL     OW83077  10.848  14.145  13.785
27082SOL    HW183078  10.865  14.177  13.696
27082SOL    HW283079  10.824  14.223  13.834
27083SOL     OW83080  13.640   5.923  11.848
27083SOL    HW183081  13.605   5.866  11.916
27083SOL    HW283082  13.734   5.922  11.861
27084SOL     OW83083   3.148   9.626  14.496
27084SOL    HW183084   3.233   9.657  14.527
27084SOL    HW283085   3.099   9.606  14.576
27085SOL     OW83086   2.503  12.349   0.134
27085SOL    HW183087   2.447  12.422   0.159
27085SOL    HW283088   2.466  12.274   0.181
27086SOL     OW83089  11.511   4.146   1.697
27086SOL    HW183090  11.591   4.121   1.742
27086SOL    HW283091  11.501   4.239   1.717
27087SOL     OW83092   3.566   1.755   2.104
27087SOL    HW183093   3.570   1.660   2.115
27087SOL    HW283094   3.569   1.790   2.193
27088SOL     OW83095   9.089  11.753   0.604
27088SOL    HW183096   9.083  11.848   0.590
27088SOL    HW283097   9.043  11.739   0.687
27089SOL     OW83098   6.495  12.691  12.049
27089SOL    HW183099   6.489  12.617  12.109
27089SOL    HW283100   6.551  12.660  11.978
27090SOL     OW83101   9.293   5.985  14.663
27090SOL    HW183102   9.237   5.947  14.731
27090SOL    HW283103   9.246   6.064  14.635
27091SOL     OW83104   1.901  11.649   2.639
27091SOL    HW183105   1.850  11.572   2.661
27091SOL    HW283106   1.865  11.678   2.555
27092SOL     OW83107  13.475   7.472  12.623
27092SOL    HW183108  13.539   7.401  12.615
27092SOL    HW283109  13.398   7.441  12.574
27093SOL     OW83110   9.448   4.517   8.533
27093SOL    HW183111   9.485   4.548   8.615
27093SOL    HW283112   9.414   4.597   8.491
27094SOL     OW83113  12.538   1.674   8.876
27094SOL    HW183114  12.626   1.651   8.846
27094SOL    HW283115  12.520   1.612   8.947
27095SOL     OW83116  12.621  10.432  10.544
27095SOL    HW183117  12.604  10.372  10.471
27095SOL    HW283118  12.716  10.427  10.557
27096SOL     OW83119  10.368   3.617  13.593
27096SOL    HW183120  10.369   3.641  13.686
27096SOL    HW283121  10.456   3.582  13.577
27097SOL     OW83122   6.862   4.916   3.810
27097SOL    HW183123   6.831   5.007   3.804
27097SOL    HW283124   6.809   4.868   3.747
27098SOL     OW83125   7.630   5.275   5.593
27098SOL    HW183126   7.656   5.366   5.582
27098SOL    HW283127   7.685   5.226   5.532
27099SOL     OW83128  10.076  13.583  10.440
27099SOL    HW183129  10.083  13.670  10.402
27099SOL    HW283130  10.161  13.569  10.483
27100SOL     OW83131  10.486  10.521  12.340
27100SOL    HW183132  10.567  10.473  12.319
27100SOL    HW283133  10.497  10.548  12.431
27101SOL     OW83134   1.894   7.107   0.750
27101SOL    HW183135   1.979   7.128   0.712
27101SOL    HW283136   1.832   7.162   0.702
27102SOL     OW83137   0.128   1.684   2.536
27102SOL    HW183138   0.036   1.710   2.549
27102SOL    HW283139   0.179   1.758   2.568
27103SOL     OW83140  11.084   8.903   2.131
27103SOL    HW183141  11.028   8.980   2.115
27103SOL    HW283142  11.023   8.832   2.150
27104SOL     OW83143  13.959   3.416  14.582
27104SOL    HW183144  13.881   3.454  14.542
27104SOL    HW283145  13.936   3.324  14.599
27105SOL     OW83146   9.806   4.704  13.613
27105SOL    HW183147   9.858   4.767  13.564
27105SOL    HW283148   9.729   4.689  13.557
27106SOL     OW83149  13.743  14.008  11.284
27106SOL    HW183150  13.780  14.024  11.198
27106SOL    HW283151  13.817  14.015  11.344
27107SOL     OW83152   2.873   8.110   8.940
27107SOL    HW183153   2.811   8.183   8.947
27107SOL    HW283154   2.957   8.151   8.921
27108SOL     OW83155   3.651  14.145   1.326
27108SOL    HW183156   3.742  14.160   1.354
27108SOL    HW283157   3.653  14.058   1.286
27109SOL     OW83158   8.202  12.039   2.504
27109SOL    HW183159   8.278  12.004   2.551
27109SOL    HW283160   8.187  12.125   2.542
27110SOL     OW83161   9.273   4.084   1.958
27110SOL    HW183162   9.262   3.989   1.965
27110SOL    HW283163   9.335   4.096   1.886
27111SOL     OW83164   3.908  10.013  13.952
27111SOL    HW183165   3.828  10.063  13.970
27111SOL    HW283166   3.979  10.075  13.967
27112SOL     OW83167   5.965   6.357  12.121
27112SOL    HW183168   5.876   6.329  12.100
27112SOL    HW283169   6.013   6.276  12.135
27113SOL     OW83170  14.452   8.833  14.387
27113SOL    HW183171  14.375   8.791  14.348
27113SOL    HW283172  14.448   8.924  14.356
27114SOL     OW83173   1.197  12.648  10.485
27114SOL    HW183174   1.103  12.661  10.498
27114SOL    HW283175   1.212  12.675  10.394
27115SOL     OW83176  12.734   7.790   2.632
27115SOL    HW183177  12.714   7.829   2.546
27115SOL    HW283178  12.702   7.855   2.695
27116SOL     OW83179   1.563   8.600   3.557
27116SOL    HW183180   1.571   8.525   3.498
27116SOL    HW283181   1.585   8.676   3.503
27117SOL     OW83182  14.749   6.706  13.220
27117SOL    HW183183  14.783   6.636  13.164
27117SOL    HW283184  14.713   6.770  13.158
27118SOL     OW83185   6.426   6.218   1.992
27118SOL    HW183186   6.353   6.275   1.965
27118SOL    HW283187   6.459   6.258   2.073
27119SOL     OW83188  11.183   9.599   9.143
27119SOL    HW183189  11.160   9.653   9.067
27119SOL    HW283190  11.141   9.642   9.217
27120SOL     OW83191   0.445  11.312   4.675
27120SOL    HW183192   0.445  11.400   4.637
27120SOL    HW283193   0.453  11.254   4.599
27121SOL     OW83194  11.198  14.598  13.002
27121SOL    HW183195  11.187  14.662  12.932
27121SOL    HW283196  11.126  14.536  12.990
27122SOL     OW83197  12.628   8.934   2.242
27122SOL    HW183198  12.535   8.927   2.221
27122SOL    HW283199  12.666   8.977   2.165
27123SOL     OW83200   9.451   7.268   2.465
27123SOL    HW183201   9.521   7.267   2.399
27123SOL    HW283202   9.487   7.321   2.537
27124SOL     OW83203  10.586   6.382   2.038
27124SOL    HW183204  10.618   6.319   2.103
27124SOL    HW283205  10.654   6.382   1.970
27125SOL     OW83206   8.884  12.815   8.926
27125SOL    HW183207   8.941  12.737   8.926
27125SOL    HW283208   8.797  12.780   8.942
27126SOL     OW83209   8.489   4.905  13.352
27126SOL    HW183210   8.573   4.925  13.392
27126SOL    HW283211   8.425   4.950  13.408
27127SOL     OW83212  12.602   9.542   6.619
27127SOL    HW183213  12.508   9.555   6.623
27127SOL    HW283214  12.628   9.585   6.537
27128SOL     OW83215   2.942   4.871   2.221
27128SOL    HW183216   2.985   4.842   2.141
27128SOL    HW283217   2.891   4.796   2.250
27129SOL     OW83218   3.811   5.899  10.802
27129SOL    HW183219   3.889   5.849  10.826
27129SOL    HW283220   3.753   5.891  10.878
27130SOL     OW83221   9.719   9.414   6.172
27130SOL    HW183222   9.720   9.412   6.268
27130SOL    HW283223   9.737   9.323   6.146
27131SOL     OW83224  12.567   5.822   8.044
27131SOL    HW183225  12.582   5.730   8.062
27131SOL    HW283226  12.475   5.828   8.020
27132SOL     OW83227   7.300   7.863   8.937
27132SOL    HW183228   7.370   7.854   8.873
27132SOL    HW283229   7.241   7.929   8.899
27133SOL     OW83230  13.632   7.000   3.811
27133SOL    HW183231  13.689   6.923   3.809
27133SOL    HW283232  13.580   6.993   3.731
27134SOL     OW83233   2.536  14.441   9.062
27134SOL    HW183234   2.486  14.419   9.141
27134SOL    HW283235   2.565  14.531   9.076
27135SOL     OW83236  10.107   2.519   0.189
27135SOL    HW183237  10.059   2.524   0.107
27135SOL    HW283238  10.098   2.428   0.216
27136SOL     OW83239   8.801  14.367   8.921
27136SOL    HW183240   8.724  14.310   8.931
27136SOL    HW283241   8.765  14.450   8.891
27137SOL     OW83242  14.641   2.283  11.210
27137SOL    HW183243  14.677   2.285  11.299
27137SOL    HW283244  14.696   2.222  11.162
27138SOL     OW83245  11.607  11.092   4.086
27138SOL    HW183246  11.554  11.044   4.151
27138SOL    HW283247  11.556  11.086   4.005
27139SOL     OW83248   5.951   7.227   5.156
27139SOL    HW183249   5.964   7.188   5.069
27139SOL    HW283250   5.983   7.160   5.217
27140SOL     OW83251   8.646   5.811   6.013
27140SOL    HW183252   8.575   5.815   5.949
27140SOL    HW283253   8.646   5.896   6.055
27141SOL     OW83254  11.185   0.578  11.957
27141SOL    HW183255  11.199   0.652  11.899
27141SOL    HW283256  11.233   0.599  12.036
27142SOL     OW83257  10.939  13.017   5.900
27142SOL    HW183258  10.907  12.929   5.884
27142SOL    HW283259  10.924  13.032   5.993
27143SOL     OW83260   8.049  12.451  13.842
27143SOL    HW183261   8.007  12.535  13.863
27143SOL    HW283262   8.103  12.431  13.919
27144SOL     OW83263   7.291  12.940   2.672
27144SOL    HW183264   7.211  12.962   2.623
27144SOL    HW283265   7.354  12.915   2.605
27145SOL     OW83266  14.047  14.437   7.937
27145SOL    HW183267  14.030  14.496   8.011
27145SOL    HW283268  13.974  14.374   7.940
27146SOL     OW83269  11.247   0.820   8.586
27146SOL    HW183270  11.168   0.817   8.531
27146SOL    HW283271  11.294   0.897   8.556
27147SOL     OW83272   2.145  14.797   0.808
27147SOL    HW183273   2.054  14.804   0.780
27147SOL    HW283274   2.184   0.005   0.784
27148SOL     OW83275   0.324   0.107   1.578
27148SOL    HW183276   0.257   0.046   1.547
27148SOL    HW283277   0.406   0.058   1.569
27149SOL     OW83278   9.662  12.674   0.462
27149SOL    HW183279   9.757  12.667   0.450
27149SOL    HW283280   9.639  12.758   0.421
27150SOL     OW83281   6.781  14.283   9.330
27150SOL    HW183282   6.779  14.188   9.339
27150SOL    HW283283   6.858  14.300   9.275
27151SOL     OW83284   6.264   0.266   9.001
27151SOL    HW183285   6.294   0.208   8.931
27151SOL    HW283286   6.323   0.340   8.998
27152SOL     OW83287  12.689  12.477   5.705
27152SOL    HW183288  12.766  12.420   5.699
27152SOL    HW283289  12.716  12.546   5.766
27153SOL     OW83290   5.039  12.835   8.249
27153SOL    HW183291   5.078  12.804   8.330
27153SOL    HW283292   4.990  12.760   8.215
27154SOL     OW83293  11.135  13.024  13.523
27154SOL    HW183294  11.209  12.989  13.573
27154SOL    HW283295  11.175  13.084  13.459
27155SOL     OW83296   2.584   1.189  11.319
27155SOL    HW183297   2.603   1.278  11.290
27155SOL    HW283298   2.582   1.194  11.415
27156SOL     OW83299  12.295  11.047  12.466
27156SOL    HW183300  12.338  11.119  12.420
27156SOL    HW283301  12.316  10.969  12.413
27157SOL     OW83302   0.912   4.678   2.454
27157SOL    HW183303   0.885   4.769   2.470
27157SOL    HW283304   0.832   4.634   2.427
27158SOL     OW83305   5.579  14.228  13.456
27158SOL    HW183306   5.666  14.211  13.421
27158SOL    HW283307   5.587  14.313  13.499
27159SOL     OW83308   2.038  12.447   5.600
27159SOL    HW183309   2.106  12.385   5.571
27159SOL    HW283310   1.973  12.445   5.530
27160SOL     OW83311   7.464  11.822   3.029
27160SOL    HW183312   7.501  11.874   3.100
27160SOL    HW283313   7.471  11.878   2.952
27161SOL     OW83314   7.488  11.178   2.432
27161SOL    HW183315   7.434  11.236   2.485
27161SOL    HW283316   7.483  11.214   2.344
27162SOL     OW83317   0.693  14.085   9.723
27162SOL    HW183318   0.680  14.015   9.660
27162SOL    HW283319   0.622  14.147   9.707
27163SOL     OW83320   3.279   0.808   5.502
27163SOL    HW183321   3.330   0.737   5.463
27163SOL    HW283322   3.317   0.820   5.589
27164SOL     OW83323   1.408  14.080  10.191
27164SOL    HW183324   1.496  14.067  10.228
27164SOL    HW283325   1.351  14.088  10.267
27165SOL     OW83326   9.810   2.953   3.857
27165SOL    HW183327   9.829   2.861   3.873
27165SOL    HW283328   9.724   2.953   3.816
27166SOL     OW83329   2.361   0.956   1.807
27166SOL    HW183330   2.412   0.907   1.871
27166SOL    HW283331   2.275   0.968   1.849
27167SOL     OW83332  10.342   3.001  11.558
27167SOL    HW183333  10.266   3.003  11.500
27167SOL    HW283334  10.320   2.936  11.625
27168SOL     OW83335   5.891   0.664  12.182
27168SOL    HW183336   5.955   0.593  12.192
27168SOL    HW283337   5.927   0.736  12.234
27169SOL     OW83338   2.380   1.639   8.049
27169SOL    HW183339   2.415   1.709   8.105
27169SOL    HW283340   2.389   1.673   7.960
27170SOL     OW83341   3.016   1.999   0.060
27170SOL    HW183342   3.094   1.948   0.084
27170SOL    HW283343   2.950   1.971   0.124
27171SOL     OW83344   8.227  10.767  11.315
27171SOL    HW183345   8.158  10.817  11.272
27171SOL    HW283346   8.218  10.678  11.280
27172SOL     OW83347   3.735  12.719   8.101
27172SOL    HW183348   3.796  12.783   8.063
27172SOL    HW283349   3.666  12.773   8.140
27173SOL     OW83350  10.236   3.572   4.061
27173SOL    HW183351  10.194   3.494   4.024
27173SOL    HW283352  10.173   3.605   4.125
27174SOL     OW83353   8.441   1.473   6.883
27174SOL    HW183354   8.389   1.542   6.923
27174SOL    HW283355   8.404   1.462   6.796
27175SOL     OW83356  12.765   5.276  14.772
27175SOL    HW183357  12.855   5.275  14.740
27175SOL    HW283358  12.741   5.184  14.780
27176SOL     OW83359   8.457   6.269   1.875
27176SOL    HW183360   8.427   6.204   1.811
27176SOL    HW283361   8.498   6.337   1.822
27177SOL     OW83362   0.602  12.743   5.496
27177SOL    HW183363   0.553  12.825   5.508
27177SOL    HW283364   0.634  12.747   5.406
27178SOL     OW83365  11.339   0.368  13.493
27178SOL    HW183366  11.416   0.424  13.482
27178SOL    HW283367  11.354   0.321  13.575
27179SOL     OW83368   0.090  11.542  13.648
27179SOL    HW183369   0.083  11.637  13.637
27179SOL    HW283370   0.140  11.513  13.572
27180SOL     OW83371  13.631   0.468  11.887
27180SOL    HW183372  13.583   0.402  11.937
27180SOL    HW283373  13.638   0.543  11.947
27181SOL     OW83374   3.543   4.267   5.047
27181SOL    HW183375   3.572   4.345   5.095
27181SOL    HW283376   3.619   4.209   5.048
27182SOL     OW83377   9.489   5.329   9.893
27182SOL    HW183378   9.448   5.276   9.825
27182SOL    HW283379   9.470   5.281   9.974
27183SOL     OW83380   5.811  10.098   0.406
27183SOL    HW183381   5.896  10.058   0.390
27183SOL    HW283382   5.766  10.038   0.465
27184SOL     OW83383   6.794   2.097  11.651
27184SOL    HW183384   6.749   2.012  11.645
27184SOL    HW283385   6.887   2.076  11.644
27185SOL     OW83386   0.152  10.957   4.926
27185SOL    HW183387   0.079  10.916   4.879
27185SOL    HW283388   0.225  10.896   4.915
27186SOL     OW83389  11.192   3.349  13.045
27186SOL    HW183390  11.199   3.444  13.053
27186SOL    HW283391  11.143   3.335  12.964
27187SOL     OW83392   5.660  11.845   0.049
27187SOL    HW183393   5.747  11.859   0.087
27187SOL    HW283394   5.627  11.933   0.032
27188SOL     OW83395   5.555  10.527   7.458
27188SOL    HW183396   5.563  10.621   7.443
27188SOL    HW283397   5.570  10.487   7.373
27189SOL     OW83398   6.953   5.331   8.972
27189SOL    HW183399   6.941   5.359   8.881
27189SOL    HW283400   6.871   5.352   9.015
27190SOL     OW83401   7.379   9.535   4.676
27190SOL    HW183402   7.381   9.562   4.768
27190SOL    HW283403   7.432   9.599   4.630
27191SOL     OW83404  12.400  12.758   4.704
27191SOL    HW183405  12.387  12.699   4.630
27191SOL    HW283406  12.490  12.744   4.731
27192SOL     OW83407  10.126   9.522   5.177
27192SOL    HW183408  10.184   9.521   5.101
27192SOL    HW283409  10.179   9.560   5.247
27193SOL     OW83410   6.497  12.491  12.224
27193SOL    HW183411   6.575  12.446  12.191
27193SOL    HW283412   6.446  12.423  12.267
27194SOL     OW83413   9.591  12.881  13.646
27194SOL    HW183414   9.561  12.949  13.706
27194SOL    HW283415   9.522  12.875  13.580
27195SOL     OW83416   7.190  10.830  11.653
27195SOL    HW183417   7.108  10.808  11.698
27195SOL    HW283418   7.255  10.836  11.723
27196SOL     OW83419   6.718  14.075   2.422
27196SOL    HW183420   6.738  14.005   2.485
27196SOL    HW283421   6.628  14.058   2.396
27197SOL     OW83422  12.093   0.045   6.449
27197SOL    HW183423  12.172   0.093   6.472
27197SOL    HW283424  12.104  14.835   6.490
27198SOL     OW83425   0.449  10.182   4.482
27198SOL    HW183426   0.354  10.178   4.476
27198SOL    HW283427   0.480  10.120   4.416
27199SOL     OW83428   8.954   8.602   2.581
27199SOL    HW183429   8.939   8.552   2.501
27199SOL    HW283430   8.984   8.537   2.645
27200SOL     OW83431   8.032  11.841   4.895
27200SOL    HW183432   8.082  11.920   4.875
27200SOL    HW283433   8.083  11.770   4.856
27201SOL     OW83434   1.696   8.764   1.771
27201SOL    HW183435   1.754   8.817   1.716
27201SOL    HW283436   1.674   8.689   1.716
27202SOL     OW83437  14.714  12.959   3.496
27202SOL    HW183438  14.777  13.025   3.526
27202SOL    HW283439  14.659  13.005   3.432
27203SOL     OW83440   5.817  13.304   5.849
27203SOL    HW183441   5.881  13.292   5.919
27203SOL    HW283442   5.869  13.298   5.769
27204SOL     OW83443   1.894  14.430  10.263
27204SOL    HW183444   1.902  14.481  10.183
27204SOL    HW283445   1.974  14.449  10.312
27205SOL     OW83446   7.396   6.648  11.087
27205SOL    HW183447   7.438   6.720  11.040
27205SOL    HW283448   7.358   6.594  11.018
27206SOL     OW83449   1.169   7.897   6.429
27206SOL    HW183450   1.216   7.853   6.359
27206SOL    HW283451   1.076   7.879   6.412
27207SOL     OW83452  11.143   9.652   5.676
27207SOL    HW183453  11.127   9.655   5.771
27207SOL    HW283454  11.064   9.610   5.641
27208SOL     OW83455   9.096   6.246   8.108
27208SOL    HW183456   9.187   6.255   8.136
27208SOL    HW283457   9.073   6.156   8.132
27209SOL     OW83458   0.615   3.903   8.936
27209SOL    HW183459   0.623   3.868   8.847
27209SOL    HW283460   0.685   3.858   8.986
27210SOL     OW83461  14.209   4.733   4.479
27210SOL    HW183462  14.277   4.735   4.547
27210SOL    HW283463  14.254   4.700   4.401
27211SOL     OW83464  10.429  14.261   8.465
27211SOL    HW183465  10.520  14.243   8.491
27211SOL    HW283466  10.430  14.257   8.370
27212SOL     OW83467  11.605  10.832  10.348
27212SOL    HW183468  11.552  10.853  10.425
27212SOL    HW283469  11.691  10.808  10.383
27213SOL     OW83470   5.257   9.639   6.940
27213SOL    HW183471   5.174   9.606   6.974
27213SOL    HW283472   5.285   9.573   6.876
27214SOL     OW83473   2.599  12.588   4.200
27214SOL    HW183474   2.536  12.578   4.271
27214SOL    HW283475   2.592  12.507   4.149
27215SOL     OW83476   7.178   2.610  13.434
27215SOL    HW183477   7.205   2.523  13.462
27215SOL    HW283478   7.225   2.670  13.492
27216SOL     OW83479   5.016   3.402   6.551
27216SOL    HW183480   5.092   3.369   6.503
27216SOL    HW283481   5.053   3.468   6.610
27217SOL     OW83482   6.577   2.927   0.614
27217SOL    HW183483   6.505   2.991   0.609
27217SOL    HW283484   6.630   2.957   0.688
27218SOL     OW83485   9.498   8.680   0.820
27218SOL    HW183486   9.514   8.664   0.913
27218SOL    HW283487   9.447   8.604   0.791
27219SOL     OW83488   1.338   3.662   3.649
27219SOL    HW183489   1.269   3.687   3.587
27219SOL    HW283490   1.353   3.569   3.631
27220SOL     OW83491  14.742   1.446   0.024
27220SOL    HW183492  14.783   1.418  14.819
27220SOL    HW283493  14.648   1.437   0.008
27221SOL     OW83494   7.956  12.714  13.334
27221SOL    HW183495   7.973  12.662  13.256
27221SOL    HW283496   7.975  12.656  13.407
27222SOL     OW83497  14.499  10.336   8.563
27222SOL    HW183498  14.425  10.337   8.504
27222SOL    HW283499  14.499  10.247   8.600
27223SOL     OW83500   5.725  11.780   3.825
27223SOL    HW183501   5.633  11.793   3.847
27223SOL    HW283502   5.771  11.847   3.877
27224SOL     OW83503  10.237   0.480  12.064
27224SOL    HW183504  10.172   0.431  12.114
27224SOL    HW283505  10.314   0.424  12.062
27225SOL     OW83506  14.232   5.598   2.654
27225SOL    HW183507  14.195   5.660   2.717
27225SOL    HW283508  14.231   5.514   2.700
27226SOL     OW83509   5.904  14.563   2.965
27226SOL    HW183510   5.941  14.650   2.956
27226SOL    HW283511   5.966  14.505   2.921
27227SOL     OW83512  12.498  13.825   8.868
27227SOL    HW183513  12.537  13.826   8.781
27227SOL    HW283514  12.481  13.917   8.887
27228SOL     OW83515   9.324  14.707   4.093
27228SOL    HW183516   9.260  14.658   4.040
27228SOL    HW283517   9.346  14.783   4.039
27229SOL     OW83518  12.761   0.069   5.493
27229SOL    HW183519  12.800   0.066   5.581
27229SOL    HW283520  12.676   0.111   5.506
27230SOL     OW83521   3.247   7.861   5.858
27230SOL    HW183522   3.245   7.783   5.913
27230SOL    HW283523   3.328   7.906   5.883
27231SOL     OW83524   0.752  10.952  11.649
27231SOL    HW183525   0.735  11.022  11.586
27231SOL    HW283526   0.802  10.995  11.719
27232SOL     OW83527   0.980   4.309   2.612
27232SOL    HW183528   1.034   4.383   2.585
27232SOL    HW283529   0.896   4.348   2.635
27233SOL     OW83530  12.190   8.260   1.916
27233SOL    HW183531  12.257   8.191   1.911
27233SOL    HW283532  12.211   8.319   1.843
27234SOL     OW83533  11.455   1.394   2.846
27234SOL    HW183534  11.467   1.371   2.753
27234SOL    HW283535  11.447   1.489   2.846
27235SOL     OW83536   8.607   5.224   6.265
27235SOL    HW183537   8.655   5.271   6.196
27235SOL    HW283538   8.628   5.132   6.250
27236SOL     OW83539   4.657  11.413   8.134
27236SOL    HW183540   4.684  11.503   8.150
27236SOL    HW283541   4.598  11.391   8.206
27237SOL     OW83542   4.624  11.324  12.195
27237SOL    HW183543   4.669  11.396  12.152
27237SOL    HW283544   4.537  11.323  12.157
27238SOL     OW83545  10.517   6.681  10.432
27238SOL    HW183546  10.462   6.705  10.358
27238SOL    HW283547  10.456   6.656  10.501
27239SOL     OW83548   5.599  10.200   9.579
27239SOL    HW183549   5.586  10.231   9.490
27239SOL    HW283550   5.526  10.139   9.594
27240SOL     OW83551   9.452   7.944  11.496
27240SOL    HW183552   9.439   7.951  11.590
27240SOL    HW283553   9.547   7.939  11.485
27241SOL     OW83554  14.319   3.400   8.538
27241SOL    HW183555  14.252   3.443   8.590
27241SOL    HW283556  14.317   3.309   8.566
27242SOL     OW83557  14.363   6.587   1.578
27242SOL    HW183558  14.307   6.585   1.501
27242SOL    HW283559  14.435   6.646   1.554
27243SOL     OW83560  14.050   2.249   5.962
27243SOL    HW183561  14.017   2.199   6.037
27243SOL    HW283562  14.038   2.191   5.887
27244SOL     OW83563   2.853   7.660   6.937
27244SOL    HW183564   2.784   7.715   6.974
27244SOL    HW283565   2.813   7.621   6.859
27245SOL     OW83566   1.347   6.554   4.550
27245SOL    HW183567   1.287   6.604   4.496
27245SOL    HW283568   1.380   6.618   4.614
27246SOL     OW83569   0.792  11.383   4.758
27246SOL    HW183570   0.871  11.395   4.810
27246SOL    HW283571   0.763  11.294   4.778
27247SOL     OW83572  14.437  10.759   5.709
27247SOL    HW183573  14.469  10.680   5.752
27247SOL    HW283574  14.406  10.815   5.781
27248SOL     OW83575   4.009  12.319  12.657
27248SOL    HW183576   4.037  12.254  12.722
27248SOL    HW283577   4.078  12.317  12.590
27249SOL     OW83578   1.221   8.770  10.805
27249SOL    HW183579   1.182   8.685  10.825
27249SOL    HW283580   1.315   8.757  10.814
27250SOL     OW83581   1.139   1.459   7.597
27250SOL    HW183582   1.155   1.459   7.503
27250SOL    HW283583   1.224   1.480   7.636
27251SOL     OW83584   1.194  14.600   6.109
27251SOL    HW183585   1.290  14.595   6.104
27251SOL    HW283586   1.164  14.529   6.052
27252SOL     OW83587   5.706   1.382  14.560
27252SOL    HW183588   5.764   1.367  14.635
27252SOL    HW283589   5.638   1.315  14.569
27253SOL     OW83590  11.966   3.080   7.773
27253SOL    HW183591  12.012   3.060   7.854
27253SOL    HW283592  11.900   3.144   7.797
27254SOL     OW83593   6.985   7.992   1.719
27254SOL    HW183594   7.071   8.024   1.695
27254SOL    HW283595   6.975   7.911   1.669
27255SOL     OW83596  10.143  13.674   7.406
27255SOL    HW183597  10.095  13.697   7.326
27255SOL    HW283598  10.074  13.647   7.467
27256SOL     OW83599  13.649   9.425   6.796
27256SOL    HW183600  13.617   9.496   6.741
27256SOL    HW283601  13.610   9.346   6.757
27257SOL     OW83602  13.560   6.179  11.770
27257SOL    HW183603  13.465   6.190  11.778
27257SOL    HW283604  13.575   6.085  11.783
27258SOL     OW83605  12.665  11.321   7.415
27258SOL    HW183606  12.627  11.370   7.342
27258SOL    HW283607  12.609  11.342   7.490
27259SOL     OW83608   0.817   5.003   1.698
27259SOL    HW183609   0.722   4.997   1.682
27259SOL    HW283610   0.846   4.912   1.706
27260SOL     OW83611   1.996   6.563  14.273
27260SOL    HW183612   2.026   6.484  14.316
27260SOL    HW283613   2.059   6.630  14.298
27261SOL     OW83614  14.723  14.810   5.490
27261SOL    HW183615  14.818  14.814   5.496
27261SOL    HW283616  14.698  14.735   5.544
27262SOL     OW83617   0.587   0.740   2.387
27262SOL    HW183618   0.503   0.737   2.342
27262SOL    HW283619   0.569   0.785   2.469
27263SOL     OW83620  12.406   0.640  13.470
27263SOL    HW183621  12.435   0.616  13.558
27263SOL    HW283622  12.337   0.705  13.484
27264SOL     OW83623   8.274  13.159   9.175
27264SOL    HW183624   8.348  13.130   9.228
27264SOL    HW283625   8.281  13.254   9.174
27265SOL     OW83626   7.836   3.407   8.353
27265SOL    HW183627   7.875   3.426   8.268
27265SOL    HW283628   7.910   3.381   8.408
27266SOL     OW83629   4.732   8.365   0.053
27266SOL    HW183630   4.701   8.373  14.839
27266SOL    HW283631   4.825   8.345   0.045
27267SOL     OW83632   9.451   2.563   8.469
27267SOL    HW183633   9.403   2.495   8.515
27267SOL    HW283634   9.470   2.525   8.383
27268SOL     OW83635  12.295  12.864  10.270
27268SOL    HW183636  12.381  12.841  10.234
27268SOL    HW283637  12.250  12.908  10.198
27269SOL     OW83638   3.057   4.798  14.466
27269SOL    HW183639   2.963   4.805  14.447
27269SOL    HW283640   3.062   4.788  14.561
27270SOL     OW83641   1.839  12.538   3.002
27270SOL    HW183642   1.880  12.491   2.930
27270SOL    HW283643   1.789  12.608   2.959
27271SOL     OW83644  13.414   0.694  13.831
27271SOL    HW183645  13.446   0.607  13.807
27271SOL    HW283646  13.352   0.717  13.762
27272SOL     OW83647   6.444  13.789  13.511
27272SOL    HW183648   6.524  13.737  13.498
27272SOL    HW283649   6.386  13.731  13.560
27273SOL     OW83650   6.184  12.575  10.284
27273SOL    HW183651   6.102  12.527  10.299
27273SOL    HW283652   6.161  12.643  10.221
27274SOL     OW83653   2.348   9.212   0.057
27274SOL    HW183654   2.396   9.224   0.139
27274SOL    HW283655   2.376   9.285   0.002
27275SOL     OW83656   6.847   2.734   8.556
27275SOL    HW183657   6.863   2.695   8.470
27275SOL    HW283658   6.875   2.825   8.548
27276SOL     OW83659  11.053   5.153   3.905
27276SOL    HW183660  11.141   5.119   3.888
27276SOL    HW283661  11.060   5.247   3.889
27277SOL     OW83662  12.645  12.863   9.063
27277SOL    HW183663  12.737  12.864   9.037
27277SOL    HW283664  12.634  12.783   9.113
27278SOL     OW83665   5.641  14.775   9.768
27278SOL    HW183666   5.637  14.870   9.763
27278SOL    HW283667   5.735  14.755   9.777
27279SOL     OW83668   7.459   9.937   9.851
27279SOL    HW183669   7.370   9.918   9.881
27279SOL    HW283670   7.449  10.010   9.790
27280SOL     OW83671   8.268  13.352   8.690
27280SOL    HW183672   8.335  13.300   8.646
27280SOL    HW283673   8.185  13.312   8.663
27281SOL     OW83674   7.564   3.158   5.384
27281SOL    HW183675   7.630   3.192   5.323
27281SOL    HW283676   7.485   3.151   5.331
27282SOL     OW83677   5.664   9.481  10.949
27282SOL    HW183678   5.723   9.544  10.907
27282SOL    HW283679   5.591   9.534  10.981
27283SOL     OW83680  11.277  13.816  14.763
27283SOL    HW183681  11.182  13.825  14.754
27283SOL    HW283682  11.310  13.903  14.740
27284SOL     OW83683   9.858  12.504  14.450
27284SOL    HW183684   9.951  12.484  14.444
27284SOL    HW283685   9.819  12.423  14.483
27285SOL     OW83686   1.712   7.266   0.646
27285SOL    HW183687   1.754   7.340   0.689
27285SOL    HW283688   1.732   7.278   0.553
27286SOL     OW83689   8.515   6.821   8.160
27286SOL    HW183690   8.585   6.770   8.202
27286SOL    HW283691   8.492   6.888   8.224
27287SOL     OW83692   7.917   1.109  13.493
27287SOL    HW183693   7.936   1.077  13.405
27287SOL    HW283694   7.999   1.098  13.541
27288SOL     OW83695   8.987   0.869   7.065
27288SOL    HW183696   8.919   0.911   7.118
27288SOL    HW283697   8.951   0.783   7.043
27289SOL     OW83698  14.854   8.093   7.922
27289SOL    HW183699   0.050   8.142   7.963
27289SOL    HW283700   0.000   8.090   7.829
27290SOL     OW83701   8.725   0.302   7.880
27290SOL    HW183702   8.818   0.281   7.881
27290SOL    HW283703   8.709   0.338   7.793
27291SOL     OW83704   1.058   3.018  14.090
27291SOL    HW183705   1.092   2.930  14.096
27291SOL    HW283706   1.134   3.073  14.073
27292SOL     OW83707   9.376  13.264  11.339
27292SOL    HW183708   9.434  13.340  11.346
27292SOL    HW283709   9.327  13.279  11.258
27293SOL     OW83710   7.076   2.113  12.707
27293SOL    HW183711   7.152   2.132  12.652
27293SOL    HW283712   7.043   2.199  12.733
27294SOL     OW83713   4.510  12.516   7.868
27294SOL    HW183714   4.522  12.595   7.816
27294SOL    HW283715   4.419  12.490   7.853
27295SOL     OW83716   7.876  12.156   3.754
27295SOL    HW183717   7.850  12.077   3.801
27295SOL    HW283718   7.949  12.191   3.805
27296SOL     OW83719   2.551  13.775   2.895
27296SOL    HW183720   2.571  13.838   2.826
27296SOL    HW283721   2.625  13.713   2.893
27297SOL     OW83722   3.432  14.451   6.902
27297SOL    HW183723   3.524  14.443   6.930
27297SOL    HW283724   3.435  14.512   6.829
27298SOL     OW83725  13.283   6.635  14.550
27298SOL    HW183726  13.220   6.563  14.545
27298SOL    HW283727  13.318   6.630  14.639
27299SOL     OW83728  12.641  10.297   3.438
27299SOL    HW183729  12.617  10.350   3.514
27299SOL    HW283730  12.653  10.360   3.367
27300SOL     OW83731  10.300  12.466  12.694
27300SOL    HW183732  10.230  12.402  12.679
27300SOL    HW283733  10.331  12.448  12.783
27301SOL     OW83734   6.768  12.408   0.567
27301SOL    HW183735   6.845  12.354   0.554
27301SOL    HW283736   6.741  12.435   0.479
27302SOL     OW83737  12.802   3.283   9.610
27302SOL    HW183738  12.858   3.211   9.581
27302SOL    HW283739  12.765   3.253   9.693
27303SOL     OW83740   5.154  11.397  12.542
27303SOL    HW183741   5.213  11.346  12.486
27303SOL    HW283742   5.153  11.351  12.626
27304SOL     OW83743   4.445  11.137   4.592
27304SOL    HW183744   4.408  11.165   4.676
27304SOL    HW283745   4.506  11.206   4.568
27305SOL     OW83746   7.559   3.181  13.707
27305SOL    HW183747   7.509   3.251  13.666
27305SOL    HW283748   7.621   3.152  13.640
27306SOL     OW83749   0.815   5.901   6.397
27306SOL    HW183750   0.781   5.816   6.371
27306SOL    HW283751   0.823   5.896   6.493
27307SOL     OW83752  13.469   2.673   5.759
27307SOL    HW183753  13.484   2.683   5.853
27307SOL    HW283754  13.449   2.580   5.748
27308SOL     OW83755  12.198  10.181   9.433
27308SOL    HW183756  12.267  10.223   9.484
27308SOL    HW283757  12.241  10.108   9.390
27309SOL     OW83758   7.655  13.480  10.046
27309SOL    HW183759   7.600  13.544  10.001
27309SOL    HW283760   7.700  13.531  10.114
27310SOL     OW83761   1.895   9.915   9.650
27310SOL    HW183762   1.907   9.907   9.556
27310SOL    HW283763   1.949   9.845   9.687
27311SOL     OW83764   5.581   8.549  14.433
27311SOL    HW183765   5.556   8.636  14.465
27311SOL    HW283766   5.517   8.529  14.366
27312SOL     OW83767   3.851  14.071   4.500
27312SOL    HW183768   3.894  13.996   4.542
27312SOL    HW283769   3.923  14.124   4.467
27313SOL     OW83770   1.690   4.136   8.746
27313SOL    HW183771   1.687   4.116   8.652
27313SOL    HW283772   1.737   4.061   8.784
27314SOL     OW83773   3.159  10.351   1.254
27314SOL    HW183774   3.143  10.266   1.295
27314SOL    HW283775   3.223  10.393   1.310
27315SOL     OW83776   7.237   2.064   0.918
27315SOL    HW183777   7.263   1.973   0.933
27315SOL    HW283778   7.320   2.112   0.914
27316SOL     OW83779  11.912  10.178   2.215
27316SOL    HW183780  11.982  10.112   2.208
27316SOL    HW283781  11.847  10.151   2.150
27317SOL     OW83782   1.207   7.711  11.305
27317SOL    HW183783   1.134   7.743  11.358
27317SOL    HW283784   1.284   7.756  11.340
27318SOL     OW83785  10.720  14.627   9.431
27318SOL    HW183786  10.634  14.629   9.473
27318SOL    HW283787  10.720  14.704   9.374
27319SOL     OW83788   2.077   8.266   3.115
27319SOL    HW183789   2.054   8.322   3.189
27319SOL    HW283790   1.999   8.211   3.102
27320SOL     OW83791  11.896  12.298   4.444
27320SOL    HW183792  11.879  12.326   4.534
27320SOL    HW283793  11.820  12.244   4.421
27321SOL     OW83794  10.399   1.037   0.871
27321SOL    HW183795  10.388   1.066   0.780
27321SOL    HW283796  10.328   0.974   0.884
27322SOL     OW83797  12.122  13.132   4.041
27322SOL    HW183798  12.053  13.078   4.078
27322SOL    HW283799  12.078  13.187   3.976
27323SOL     OW83800  13.183   8.431   5.877
27323SOL    HW183801  13.255   8.369   5.889
27323SOL    HW283802  13.200   8.501   5.941
27324SOL     OW83803  13.912  11.734  13.743
27324SOL    HW183804  13.918  11.720  13.838
27324SOL    HW283805  13.831  11.691  13.718
27325SOL     OW83806   7.655   1.625   0.921
27325SOL    HW183807   7.625   1.616   1.012
27325SOL    HW283808   7.640   1.538   0.883
27326SOL     OW83809   1.360  10.367   4.905
27326SOL    HW183810   1.391  10.277   4.918
27326SOL    HW283811   1.441  10.419   4.904
27327SOL     OW83812   4.896  10.935   9.022
27327SOL    HW183813   4.936  10.940   9.109
27327SOL    HW283814   4.925  10.851   8.987
27328SOL     OW83815   8.198   0.332   3.275
27328SOL    HW183816   8.197   0.302   3.366
27328SOL    HW283817   8.112   0.308   3.241
27329SOL     OW83818  12.378   1.265   2.033
27329SOL    HW183819  12.299   1.258   2.088
27329SOL    HW283820  12.346   1.302   1.951
27330SOL     OW83821   7.569   6.065   6.726
27330SOL    HW183822   7.595   6.013   6.651
27330SOL    HW283823   7.540   6.148   6.689
27331SOL     OW83824   0.698  10.157   1.939
27331SOL    HW183825   0.757  10.144   2.013
27331SOL    HW283826   0.628  10.213   1.973
27332SOL     OW83827   4.705   8.568   6.042
27332SOL    HW183828   4.732   8.559   6.134
27332SOL    HW283829   4.769   8.629   6.005
27333SOL     OW83830   8.388   8.044   6.472
27333SOL    HW183831   8.478   8.013   6.486
27333SOL    HW283832   8.350   7.980   6.411
27334SOL     OW83833   0.153   4.869   9.887
27334SOL    HW183834   0.214   4.937   9.858
27334SOL    HW283835   0.068   4.912   9.889
27335SOL     OW83836   0.451   3.994   4.652
27335SOL    HW183837   0.480   3.915   4.606
27335SOL    HW283838   0.358   3.982   4.666
27336SOL     OW83839   4.712   4.638   1.074
27336SOL    HW183840   4.797   4.617   1.111
27336SOL    HW283841   4.673   4.553   1.053
27337SOL     OW83842   1.669   3.620  12.926
27337SOL    HW183843   1.640   3.605  12.836
27337SOL    HW283844   1.667   3.715  12.936
27338SOL     OW83845  11.162   4.368   5.882
27338SOL    HW183846  11.161   4.277   5.911
27338SOL    HW283847  11.129   4.365   5.792
27339SOL     OW83848   3.510  14.876  12.626
27339SOL    HW183849   3.560   0.055  12.567
27339SOL    HW283850   3.467  14.812  12.569
27340SOL     OW83851   8.702   7.726   4.843
27340SOL    HW183852   8.714   7.681   4.927
27340SOL    HW283853   8.783   7.776   4.831
27341SOL     OW83854  13.184  12.210   3.716
27341SOL    HW183855  13.202  12.185   3.807
27341SOL    HW283856  13.103  12.261   3.721
27342SOL     OW83857   2.939  13.735  12.470
27342SOL    HW183858   2.894  13.759  12.551
27342SOL    HW283859   3.026  13.776  12.477
27343SOL     OW83860  10.322   6.931  11.627
27343SOL    HW183861  10.284   6.988  11.561
27343SOL    HW283862  10.249   6.907  11.684
27344SOL     OW83863   3.409   1.405  13.527
27344SOL    HW183864   3.483   1.406  13.467
27344SOL    HW283865   3.433   1.466  13.597
27345SOL     OW83866  11.015   1.981   2.500
27345SOL    HW183867  10.958   1.953   2.429
27345SOL    HW283868  10.957   1.986   2.576
27346SOL     OW83869   8.136   4.198   1.067
27346SOL    HW183870   8.195   4.150   1.009
27346SOL    HW283871   8.111   4.134   1.134
27347SOL     OW83872   1.044   5.769   0.329
27347SOL    HW183873   0.966   5.785   0.274
27347SOL    HW283874   1.059   5.852   0.374
27348SOL     OW83875   1.678  14.276   9.957
27348SOL    HW183876   1.606  14.339   9.954
27348SOL    HW283877   1.640  14.193   9.927
27349SOL     OW83878   9.464  13.314   5.958
27349SOL    HW183879   9.517  13.394   5.957
27349SOL    HW283880   9.501  13.260   5.888
27350SOL     OW83881   3.987  10.392   9.654
27350SOL    HW183882   3.937  10.355   9.581
27350SOL    HW283883   3.943  10.358   9.732
27351SOL     OW83884   5.259   7.700  14.056
27351SOL    HW183885   5.345   7.735  14.032
27351SOL    HW283886   5.220   7.674  13.972
27352SOL     OW83887   8.831   4.838   9.500
27352SOL    HW183888   8.853   4.930   9.508
27352SOL    HW283889   8.880   4.795   9.570
27353SOL     OW83890   1.979   7.046   3.459
27353SOL    HW183891   2.056   6.995   3.437
27353SOL    HW283892   1.910   7.012   3.402
27354SOL     OW83893   6.116   4.796   1.789
27354SOL    HW183894   6.048   4.732   1.771
27354SOL    HW283895   6.070   4.880   1.790
27355SOL     OW83896  10.525  10.855   6.176
27355SOL    HW183897  10.451  10.864   6.237
27355SOL    HW283898  10.597  10.824   6.231
27356SOL     OW83899   9.149   5.228   6.009
27356SOL    HW183900   9.165   5.134   5.997
27356SOL    HW283901   9.235   5.268   6.001
27357SOL     OW83902   0.833  10.336   8.795
27357SOL    HW183903   0.874  10.250   8.802
27357SOL    HW283904   0.834  10.356   8.702
27358SOL     OW83905   5.564  11.693   4.891
27358SOL    HW183906   5.601  11.644   4.964
27358SOL    HW283907   5.639  11.717   4.837
27359SOL     OW83908   6.860  13.238  13.710
27359SOL    HW183909   6.888  13.326  13.733
27359SOL    HW283910   6.766  13.246  13.693
27360SOL     OW83911  13.168   6.632  11.082
27360SOL    HW183912  13.183   6.661  10.992
27360SOL    HW283913  13.094   6.571  11.075
27361SOL     OW83914   1.392   5.046  13.557
27361SOL    HW183915   1.402   5.005  13.643
27361SOL    HW283916   1.458   5.115  13.555
27362SOL     OW83917   8.196   4.834   4.513
27362SOL    HW183918   8.278   4.804   4.553
27362SOL    HW283919   8.221   4.865   4.426
27363SOL     OW83920   4.944  10.709  10.933
27363SOL    HW183921   4.963  10.769  11.006
27363SOL    HW283922   5.015  10.725  10.870
27364SOL     OW83923   4.858   0.628   0.397
27364SOL    HW183924   4.831   0.572   0.470
27364SOL    HW283925   4.947   0.600   0.376
27365SOL     OW83926   4.067  11.762   0.337
27365SOL    HW183927   4.141  11.701   0.337
27365SOL    HW283928   4.013  11.734   0.410
27366SOL     OW83929   0.799   4.720  11.241
27366SOL    HW183930   0.868   4.664  11.206
27366SOL    HW283931   0.721   4.698  11.190
27367SOL     OW83932  12.631   0.016  13.931
27367SOL    HW183933  12.616  14.848  14.015
27367SOL    HW283934  12.651  14.821  13.870
27368SOL     OW83935   9.970   9.266  14.808
27368SOL    HW183936   9.987   9.274   0.026
27368SOL    HW283937  10.053   9.287  14.766
27369SOL     OW83938   3.926   4.634  12.038
27369SOL    HW183939   3.845   4.673  12.005
27369SOL    HW283940   3.904   4.542  12.052
27370SOL     OW83941   1.279   0.521  12.743
27370SOL    HW183942   1.243   0.446  12.697
27370SOL    HW283943   1.352   0.485  12.793
27371SOL     OW83944   9.135   8.484   6.330
27371SOL    HW183945   9.227   8.483   6.356
27371SOL    HW283946   9.088   8.506   6.410
27372SOL     OW83947   2.948   5.769   3.689
27372SOL    HW183948   2.982   5.817   3.613
27372SOL    HW283949   2.894   5.700   3.651
27373SOL     OW83950   4.142  14.631   1.955
27373SOL    HW183951   4.165  14.594   1.869
27373SOL    HW283952   4.094  14.561   1.999
27374SOL     OW83953   4.845  13.926   1.391
27374SOL    HW183954   4.786  13.999   1.374
27374SOL    HW283955   4.790  13.860   1.434
27375SOL     OW83956  10.455   5.780   2.857
27375SOL    HW183957  10.390   5.753   2.793
27375SOL    HW283958  10.455   5.710   2.922
27376SOL     OW83959   6.288  10.124   1.701
27376SOL    HW183960   6.300  10.214   1.730
27376SOL    HW283961   6.239  10.131   1.619
27377SOL     OW83962   0.229  13.330  13.590
27377SOL    HW183963   0.251  13.360  13.678
27377SOL    HW283964   0.160  13.265  13.603
27378SOL     OW83965   4.214  14.287   3.779
27378SOL    HW183966   4.121  14.298   3.799
27378SOL    HW283967   4.219  14.204   3.732
27379SOL     OW83968   0.793   2.404  11.644
27379SOL    HW183969   0.759   2.371  11.561
27379SOL    HW283970   0.841   2.331  11.682
27380SOL     OW83971   2.448   9.840  12.535
27380SOL    HW183972   2.416   9.850  12.445
27380SOL    HW283973   2.541   9.863  12.529
27381SOL     OW83974  12.968  14.632   9.725
27381SOL    HW183975  13.043  14.687   9.748
27381SOL    HW283976  13.006  14.552   9.690
27382SOL     OW83977  13.692   3.210  13.895
27382SOL    HW183978  13.613   3.258  13.918
27382SOL    HW283979  13.722   3.251  13.813
27383SOL     OW83980  13.297   3.663   1.822
27383SOL    HW183981  13.218   3.675   1.769
27383SOL    HW283982  13.318   3.750   1.856
27384SOL     OW83983   6.312   4.235   6.941
27384SOL    HW183984   6.342   4.325   6.930
27384SOL    HW283985   6.374   4.182   6.892
27385SOL     OW83986   5.416  11.409   8.790
27385SOL    HW183987   5.419  11.413   8.695
27385SOL    HW283988   5.431  11.500   8.818
27386SOL     OW83989  11.030   7.680   7.046
27386SOL    HW183990  10.977   7.601   7.047
27386SOL    HW283991  10.981   7.741   6.990
27387SOL     OW83992  13.532  10.470   0.694
27387SOL    HW183993  13.525  10.565   0.695
27387SOL    HW283994  13.446  10.439   0.724
27388SOL     OW83995   8.351   0.463   5.322
27388SOL    HW183996   8.329   0.398   5.388
27388SOL    HW283997   8.284   0.531   5.330
27389SOL     OW83998   7.740   7.761   4.259
27389SOL    HW183999   7.826   7.723   4.243
27389SOL    HW284000   7.747   7.801   4.346
27390SOL     OW84001   5.650   3.266   4.246
27390SOL    HW184002   5.578   3.217   4.286
27390SOL    HW284003   5.728   3.237   4.293
27391SOL     OW84004   9.103   6.368   0.920
27391SOL    HW184005   9.016   6.332   0.938
27391SOL    HW284006   9.136   6.395   1.006
27392SOL     OW84007   9.178  13.049   7.605
27392SOL    HW184008   9.222  13.055   7.520
27392SOL    HW284009   9.243  13.078   7.668
27393SOL     OW84010   8.075  12.671  12.017
27393SOL    HW184011   8.095  12.643  12.107
27393SOL    HW284012   8.018  12.747  12.027
27394SOL     OW84013   2.620   4.357   4.361
27394SOL    HW184014   2.617   4.419   4.434
27394SOL    HW284015   2.616   4.271   4.403
27395SOL     OW84016   7.562   2.057  12.021
27395SOL    HW184017   7.621   2.036  11.949
27395SOL    HW284018   7.500   2.120  11.984
27396SOL     OW84019   8.881   8.621  12.653
27396SOL    HW184020   8.825   8.699  12.654
27396SOL    HW284021   8.826   8.552  12.618
27397SOL     OW84022  11.014  11.911   0.855
27397SOL    HW184023  10.956  11.855   0.803
27397SOL    HW284024  10.964  11.931   0.934
27398SOL     OW84025   0.149   8.155   7.401
27398SOL    HW184026   0.145   8.245   7.433
27398SOL    HW284027   0.205   8.158   7.324
27399SOL     OW84028  14.248  14.811   3.982
27399SOL    HW184029  14.249   0.024   4.017
27399SOL    HW284030  14.268  14.755   4.057
27400SOL     OW84031   1.570   1.994  11.835
27400SOL    HW184032   1.622   2.070  11.862
27400SOL    HW284033   1.483   2.030  11.815
27401SOL     OW84034  13.390   2.143   6.182
27401SOL    HW184035  13.342   2.212   6.228
27401SOL    HW284036  13.369   2.063   6.231
27402SOL     OW84037   7.272  13.936   5.132
27402SOL    HW184038   7.306  13.915   5.219
27402SOL    HW284039   7.177  13.924   5.139
27403SOL     OW84040   4.108   2.386   8.724
27403SOL    HW184041   4.043   2.405   8.656
27403SOL    HW284042   4.136   2.472   8.755
27404SOL     OW84043   7.927   2.210   0.888
27404SOL    HW184044   8.014   2.249   0.894
27404SOL    HW284045   7.887   2.226   0.974
27405SOL     OW84046  11.859  13.699   7.090
27405SOL    HW184047  11.941  13.740   7.061
27405SOL    HW284048  11.841  13.633   7.024
27406SOL     OW84049  14.291   8.037   5.009
27406SOL    HW184050  14.298   8.087   4.928
27406SOL    HW284051  14.211   7.985   4.999
27407SOL     OW84052   9.742   0.176   3.104
27407SOL    HW184053   9.800   0.198   3.177
27407SOL    HW284054   9.723   0.260   3.062
27408SOL     OW84055   7.232   7.626  10.951
27408SOL    HW184056   7.322   7.602  10.931
27408SOL    HW284057   7.233   7.722  10.954
27409SOL     OW84058   3.741   0.741   9.847
27409SOL    HW184059   3.666   0.770   9.795
27409SOL    HW284060   3.815   0.748   9.786
27410SOL     OW84061   5.781   8.891   3.119
27410SOL    HW184062   5.699   8.857   3.157
27410SOL    HW284063   5.752   8.947   3.047
27411SOL     OW84064   8.859  11.030   7.377
27411SOL    HW184065   8.787  11.008   7.318
27411SOL    HW284066   8.820  11.027   7.465
27412SOL     OW84067   9.595   4.350   2.473
27412SOL    HW184068   9.691   4.340   2.477
27412SOL    HW284069   9.568   4.291   2.403
27413SOL     OW84070  13.292  14.814   3.010
27413SOL    HW184071  13.213  14.866   3.027
27413SOL    HW284072  13.311  14.772   3.093
27414SOL     OW84073   6.026   5.113  14.836
27414SOL    HW184074   5.998   5.125  14.745
27414SOL    HW284075   6.027   5.201  14.872
27415SOL     OW84076   2.966   2.626   9.593
27415SOL    HW184077   2.905   2.690   9.629
27415SOL    HW284078   2.910   2.552   9.569
27416SOL     OW84079   3.620   8.908   9.968
27416SOL    HW184080   3.545   8.922  10.025
27416SOL    HW284081   3.695   8.937  10.020
27417SOL     OW84082  14.779   3.971   8.465
27417SOL    HW184083  14.761   3.926   8.548
27417SOL    HW284084  14.708   3.944   8.407
27418SOL     OW84085   1.224   3.174   6.144
27418SOL    HW184086   1.179   3.257   6.161
27418SOL    HW284087   1.203   3.119   6.219
27419SOL     OW84088   3.723  12.540   8.937
27419SOL    HW184089   3.734  12.635   8.945
27419SOL    HW284090   3.647  12.530   8.880
27420SOL     OW84091   0.818  13.613   1.575
27420SOL    HW184092   0.851  13.703   1.578
27420SOL    HW284093   0.883  13.562   1.623
27421SOL     OW84094   8.371   5.036  10.622
27421SOL    HW184095   8.445   5.021  10.564
27421SOL    HW284096   8.396   5.113  10.673
27422SOL     OW84097  11.871   3.851   7.208
27422SOL    HW184098  11.933   3.782   7.184
27422SOL    HW284099  11.887   3.920   7.144
27423SOL     OW84100  10.539   4.637   2.737
27423SOL    HW184101  10.524   4.699   2.666
27423SOL    HW284102  10.627   4.604   2.722
27424SOL     OW84103   8.411  12.295  14.337
27424SOL    HW184104   8.353  12.363  14.371
27424SOL    HW284105   8.491  12.341  14.312
27425SOL     OW84106   8.213   5.906  10.846
27425SOL    HW184107   8.225   5.929  10.938
27425SOL    HW284108   8.124   5.871  10.842
27426SOL     OW84109  12.510   3.610   2.847
27426SOL    HW184110  12.447   3.649   2.908
27426SOL    HW284111  12.594   3.650   2.871
27427SOL     OW84112   7.750  10.591   2.576
27427SOL    HW184113   7.748  10.631   2.489
27427SOL    HW284114   7.673  10.535   2.579
27428SOL     OW84115   2.734   7.066   0.712
27428SOL    HW184116   2.641   7.077   0.694
27428SOL    HW284117   2.770   7.025   0.633
27429SOL     OW84118  14.469   4.722   4.313
27429SOL    HW184119  14.392   4.771   4.287
27429SOL    HW284120  14.540   4.786   4.310
27430SOL     OW84121  10.308   0.407   3.771
27430SOL    HW184122  10.297   0.463   3.847
27430SOL    HW284123  10.221   0.401   3.732
27431SOL     OW84124  10.818   6.743   7.524
27431SOL    HW184125  10.801   6.681   7.453
27431SOL    HW284126  10.842   6.824   7.479
27432SOL     OW84127   9.417   5.869   9.890
27432SOL    HW184128   9.507   5.852   9.916
27432SOL    HW284129   9.418   5.858   9.795
27433SOL     OW84130   3.869   6.084   5.360
27433SOL    HW184131   3.774   6.072   5.362
27433SOL    HW284132   3.886   6.125   5.276
27434SOL     OW84133   2.447   0.150   2.415
27434SOL    HW184134   2.432   0.109   2.500
27434SOL    HW284135   2.542   0.144   2.402
27435SOL     OW84136  12.148  14.543  11.584
27435SOL    HW184137  12.070  14.597  11.597
27435SOL    HW284138  12.143  14.515  11.493
27436SOL     OW84139   7.050  12.386   4.574
27436SOL    HW184140   7.046  12.482   4.568
27436SOL    HW284141   7.000  12.365   4.653
27437SOL     OW84142   2.520   5.297   3.342
27437SOL    HW184143   2.548   5.264   3.257
27437SOL    HW284144   2.514   5.391   3.331
27438SOL     OW84145  13.280   0.344  13.182
27438SOL    HW184146  13.201   0.311  13.223
27438SOL    HW284147  13.257   0.430  13.148
27439SOL     OW84148   9.097   9.302   2.860
27439SOL    HW184149   9.060   9.303   2.949
27439SOL    HW284150   9.045   9.237   2.813
27440SOL     OW84151   7.115  11.619   8.005
27440SOL    HW184152   7.195  11.663   7.976
27440SOL    HW284153   7.104  11.647   8.096
27441SOL     OW84154   9.904   5.939  14.627
27441SOL    HW184155   9.840   5.927  14.697
27441SOL    HW284156   9.984   5.965  14.672
27442SOL     OW84157  10.750   8.864   8.311
27442SOL    HW184158  10.705   8.934   8.359
27442SOL    HW284159  10.699   8.786   8.328
27443SOL     OW84160   8.819  11.751  13.295
27443SOL    HW184161   8.837  11.832  13.247
27443SOL    HW284162   8.749  11.775  13.356
27444SOL     OW84163   6.584   2.280   0.361
27444SOL    HW184164   6.662   2.296   0.309
27444SOL    HW284165   6.514   2.326   0.314
27445SOL     OW84166   9.799   2.164   6.919
27445SOL    HW184167   9.860   2.175   6.992
27445SOL    HW284168   9.755   2.248   6.911
27446SOL     OW84169  14.152  11.556   0.053
27446SOL    HW184170  14.093  11.597   0.116
27446SOL    HW284171  14.101  11.551  14.848
27447SOL     OW84172   7.405  11.822   7.473
27447SOL    HW184173   7.389  11.770   7.393
27447SOL    HW284174   7.493  11.857   7.461
27448SOL     OW84175   3.583   4.658  10.654
27448SOL    HW184176   3.678   4.641  10.653
27448SOL    HW284177   3.566   4.694  10.740
27449SOL     OW84178  13.125   5.934   0.005
27449SOL    HW184179  13.070   5.954   0.081
27449SOL    HW284180  13.175   6.014  14.866
27450SOL     OW84181   1.343   2.532   3.841
27450SOL    HW184182   1.319   2.600   3.778
27450SOL    HW284183   1.350   2.577   3.924
27451SOL     OW84184   6.113   9.156  11.755
27451SOL    HW184185   6.174   9.215  11.800
27451SOL    HW284186   6.043   9.141  11.819
27452SOL     OW84187  10.424  12.356   0.083
27452SOL    HW184188  10.342  12.339   0.037
27452SOL    HW284189  10.473  12.274   0.077
27453SOL     OW84190   7.480   4.104   3.099
27453SOL    HW184191   7.414   4.041   3.072
27453SOL    HW284192   7.439   4.189   3.087
27454SOL     OW84193  11.921  12.172   8.029
27454SOL    HW184194  11.831  12.147   8.052
27454SOL    HW284195  11.924  12.168   7.934
27455SOL     OW84196   9.688   1.917  14.183
27455SOL    HW184197   9.723   2.006  14.186
27455SOL    HW284198   9.649   1.904  14.269
27456SOL     OW84199   7.084   2.673   1.334
27456SOL    HW184200   7.150   2.615   1.297
27456SOL    HW284201   7.121   2.701   1.418
27457SOL     OW84202  10.562   5.156   6.052
27457SOL    HW184203  10.652   5.124   6.047
27457SOL    HW284204  10.569   5.241   6.095
27458SOL     OW84205   0.670   8.258   2.966
27458SOL    HW184206   0.673   8.271   2.871
27458SOL    HW284207   0.670   8.163   2.977
27459SOL     OW84208  11.910  10.187   5.273
27459SOL    HW184209  11.888  10.155   5.185
27459SOL    HW284210  11.838  10.158   5.328
27460SOL     OW84211   7.241  14.026   9.233
27460SOL    HW184212   7.168  13.966   9.216
27460SOL    HW284213   7.243  14.083   9.156
27461SOL     OW84214   9.308  10.229  12.782
27461SOL    HW184215   9.322  10.253  12.691
27461SOL    HW284216   9.222  10.266  12.803
27462SOL     OW84217   0.637  12.108  13.518
27462SOL    HW184218   0.605  12.132  13.431
27462SOL    HW284219   0.714  12.163  13.532
27463SOL     OW84220  10.903   2.739   0.151
27463SOL    HW184221  10.905   2.725   0.245
27463SOL    HW284222  10.982   2.790   0.132
27464SOL     OW84223   1.478   8.243  12.850
27464SOL    HW184224   1.402   8.293  12.878
27464SOL    HW284225   1.551   8.281  12.899
27465SOL     OW84226   6.220  10.629   9.023
27465SOL    HW184227   6.239  10.714   8.984
27465SOL    HW284228   6.251  10.566   8.958
27466SOL     OW84229   6.427   4.952   4.050
27466SOL    HW184230   6.456   5.026   4.102
27466SOL    HW284231   6.487   4.881   4.072
27467SOL     OW84232   7.989   7.069  11.297
27467SOL    HW184233   8.006   7.143  11.355
27467SOL    HW284234   8.073   7.053  11.253
27468SOL     OW84235   0.706   0.421   2.859
27468SOL    HW184236   0.650   0.407   2.935
27468SOL    HW284237   0.777   0.476   2.891
27469SOL     OW84238   4.215   5.342   5.330
27469SOL    HW184239   4.233   5.331   5.423
27469SOL    HW284240   4.159   5.268   5.306
27470SOL     OW84241   1.887   1.926  12.333
27470SOL    HW184242   1.953   1.863  12.363
27470SOL    HW284243   1.819   1.873  12.293
27471SOL     OW84244   0.737   1.789   1.401
27471SOL    HW184245   0.658   1.826   1.362
27471SOL    HW284246   0.756   1.712   1.348
27472SOL     OW84247  10.986   7.213  11.827
27472SOL    HW184248  11.044   7.180  11.757
27472SOL    HW284249  11.035   7.196  11.908
27473SOL     OW84250   0.466   2.126  10.276
27473SOL    HW184251   0.466   2.133  10.372
27473SOL    HW284252   0.557   2.108  10.253
27474SOL     OW84253  14.580  12.272  10.112
27474SOL    HW184254  14.514  12.334  10.081
27474SOL    HW284255  14.565  12.193  10.059
27475SOL     OW84256   1.624   5.174  14.716
27475SOL    HW184257   1.588   5.262  14.730
27475SOL    HW284258   1.554   5.115  14.742
27476SOL     OW84259   4.869   1.492  13.155
27476SOL    HW184260   4.874   1.539  13.072
27476SOL    HW284261   4.813   1.547  13.210
27477SOL     OW84262   5.356   5.319   4.850
27477SOL    HW184263   5.370   5.394   4.909
27477SOL    HW284264   5.264   5.296   4.861
27478SOL     OW84265   3.880  11.310   5.998
27478SOL    HW184266   3.819  11.347   6.061
27478SOL    HW284267   3.828  11.245   5.949
27479SOL     OW84268   9.459  11.678   0.541
27479SOL    HW184269   9.478  11.695   0.634
27479SOL    HW284270   9.440  11.764   0.504
27480SOL     OW84271   7.322   1.570  12.450
27480SOL    HW184272   7.330   1.508  12.377
27480SOL    HW284273   7.238   1.549  12.490
27481SOL     OW84274   2.311   0.146   3.429
27481SOL    HW184275   2.258   0.066   3.435
27481SOL    HW284276   2.274   0.203   3.496
27482SOL     OW84277   8.264   6.371   9.072
27482SOL    HW184278   8.234   6.283   9.097
27482SOL    HW284279   8.229   6.429   9.140
27483SOL     OW84280   8.513  14.043  14.308
27483SOL    HW184281   8.565  14.075  14.235
27483SOL    HW284282   8.426  14.028  14.271
27484SOL     OW84283  12.730  12.353   6.443
27484SOL    HW184284  12.779  12.373   6.523
27484SOL    HW284285  12.643  12.327   6.475
27485SOL     OW84286   7.999   6.952   5.104
27485SOL    HW184287   7.953   7.000   5.035
27485SOL    HW284288   7.952   6.973   5.184
27486SOL     OW84289   9.412   8.522   8.175
27486SOL    HW184290   9.402   8.606   8.220
27486SOL    HW284291   9.323   8.498   8.150
27487SOL     OW84292  11.240  10.686   1.265
27487SOL    HW184293  11.312  10.747   1.249
27487SOL    HW284294  11.173  10.712   1.203
27488SOL     OW84295   2.658   1.010   7.244
27488SOL    HW184296   2.636   1.069   7.316
27488SOL    HW284297   2.754   1.010   7.242
27489SOL     OW84298  14.644   3.079   0.996
27489SOL    HW184299  14.636   3.097   1.089
27489SOL    HW284300  14.665   2.986   0.991
27490SOL     OW84301  12.584   5.432   0.008
27490SOL    HW184302  12.563   5.448   0.100
27490SOL    HW284303  12.626   5.346   0.008
27491SOL     OW84304  11.568  10.395  10.398
27491SOL    HW184305  11.660  10.374  10.415
27491SOL    HW284306  11.569  10.442  10.315
27492SOL     OW84307   4.783   1.466   4.809
27492SOL    HW184308   4.760   1.397   4.871
27492SOL    HW284309   4.878   1.468   4.810
27493SOL     OW84310  14.556  14.182   8.897
27493SOL    HW184311  14.503  14.104   8.876
27493SOL    HW284312  14.638  14.167   8.850
27494SOL     OW84313   2.744   3.355   3.965
27494SOL    HW184314   2.711   3.311   3.887
27494SOL    HW284315   2.708   3.303   4.038
27495SOL     OW84316  11.050  14.105   2.041
27495SOL    HW184317  11.094  14.184   2.009
27495SOL    HW284318  11.114  14.035   2.029
27496SOL     OW84319   9.904   9.540   9.574
27496SOL    HW184320   9.882   9.523   9.666
27496SOL    HW284321   9.914   9.636   9.570
27497SOL     OW84322   6.410   8.910   3.848
27497SOL    HW184323   6.407   8.816   3.870
27497SOL    HW284324   6.497   8.922   3.810
27498SOL     OW84325   5.836   7.874   7.378
27498SOL    HW184326   5.922   7.913   7.363
27498SOL    HW284327   5.854   7.780   7.388
27499SOL     OW84328   1.687   6.298   5.624
27499SOL    HW184329   1.651   6.211   5.607
27499SOL    HW284330   1.774   6.297   5.584
27500SOL     OW84331   7.779   9.917   1.945
27500SOL    HW184332   7.846   9.861   1.907
27500SOL    HW284333   7.781   9.997   1.892
27501SOL     OW84334   7.642  13.143   6.927
27501SOL    HW184335   7.675  13.091   7.000
27501SOL    HW284336   7.699  13.120   6.854
27502SOL     OW84337  11.575   9.394   4.739
27502SOL    HW184338  11.549   9.483   4.763
27502SOL    HW284339  11.670   9.395   4.743
27503SOL     OW84340  14.343   5.841  14.179
27503SOL    HW184341  14.403   5.883  14.117
27503SOL    HW284342  14.308   5.914  14.231
27504SOL     OW84343  12.869   3.597   6.516
27504SOL    HW184344  12.822   3.670   6.556
27504SOL    HW284345  12.864   3.527   6.581
27505SOL     OW84346   7.658   4.003  10.709
27505SOL    HW184347   7.652   3.922  10.761
27505SOL    HW284348   7.614   4.069  10.763
27506SOL     OW84349   6.725   8.976  12.614
27506SOL    HW184350   6.691   9.000  12.701
27506SOL    HW284351   6.665   8.909  12.583
27507SOL     OW84352   7.996   8.102   4.970
27507SOL    HW184353   7.950   8.042   5.028
27507SOL    HW284354   7.978   8.069   4.882
27508SOL     OW84355   3.210   1.026   9.050
27508SOL    HW184356   3.209   1.013   9.144
27508SOL    HW284357   3.118   1.023   9.023
27509SOL     OW84358   5.655   6.899   9.821
27509SOL    HW184359   5.725   6.860   9.873
27509SOL    HW284360   5.670   6.993   9.827
27510SOL     OW84361   8.798   9.583   0.165
27510SOL    HW184362   8.806   9.641   0.240
27510SOL    HW284363   8.730   9.520   0.191
27511SOL     OW84364   4.866   8.886  13.655
27511SOL    HW184365   4.899   8.838  13.732
27511SOL    HW284366   4.795   8.831  13.622
27512SOL     OW84367   8.105  10.616   4.799
27512SOL    HW184368   8.077  10.696   4.756
27512SOL    HW284369   8.149  10.646   4.879
27513SOL     OW84370   3.298  10.278   6.436
27513SOL    HW184371   3.220  10.331   6.447
27513SOL    HW284372   3.268  10.188   6.450
27514SOL     OW84373   1.497   1.934  12.727
27514SOL    HW184374   1.492   1.840  12.744
27514SOL    HW284375   1.508   1.941  12.633
27515SOL     OW84376   0.506   0.660   8.061
27515SOL    HW184377   0.585   0.702   8.095
27515SOL    HW284378   0.508   0.571   8.095
27516SOL     OW84379   5.509  12.003  14.024
27516SOL    HW184380   5.418  11.974  14.017
27516SOL    HW284381   5.560  11.928  13.994
27517SOL     OW84382   4.503  10.115  12.390
27517SOL    HW184383   4.463  10.042  12.342
27517SOL    HW284384   4.429  10.164  12.426
27518SOL     OW84385   0.172  11.391   8.040
27518SOL    HW184386   0.143  11.373   8.130
27518SOL    HW284387   0.121  11.330   7.986
27519SOL     OW84388  14.327   7.353  13.084
27519SOL    HW184389  14.254   7.394  13.038
27519SOL    HW284390  14.405   7.383  13.037
27520SOL     OW84391   8.565   1.270   7.548
27520SOL    HW184392   8.482   1.289   7.504
27520SOL    HW284393   8.540   1.210   7.619
27521SOL     OW84394  12.259  14.576   6.825
27521SOL    HW184395  12.199  14.519   6.874
27521SOL    HW284396  12.342  14.570   6.873
27522SOL     OW84397   3.595   3.897   5.788
27522SOL    HW184398   3.688   3.919   5.787
27522SOL    HW284399   3.569   3.894   5.696
27523SOL     OW84400  11.092   0.762   9.938
27523SOL    HW184401  11.016   0.791   9.888
27523SOL    HW284402  11.164   0.761   9.874
27524SOL     OW84403  14.310  11.908   1.629
27524SOL    HW184404  14.231  11.935   1.582
27524SOL    HW284405  14.381  11.957   1.588
27525SOL     OW84406   2.855   5.882   8.751
27525SOL    HW184407   2.914   5.860   8.679
27525SOL    HW284408   2.836   5.798   8.793
27526SOL     OW84409   3.308  13.893   2.618
27526SOL    HW184410   3.337  13.929   2.702
27526SOL    HW284411   3.382  13.909   2.559
27527SOL     OW84412   9.616   5.233  14.217
27527SOL    HW184413   9.648   5.253  14.128
27527SOL    HW284414   9.643   5.143  14.233
27528SOL     OW84415   3.960   5.281  10.171
27528SOL    HW184416   4.025   5.255  10.236
27528SOL    HW284417   3.892   5.214  10.176
27529SOL     OW84418   4.139   2.529  10.754
27529SOL    HW184419   4.077   2.592  10.790
27529SOL    HW284420   4.134   2.454  10.812
27530SOL     OW84421   8.792  10.520   5.104
27530SOL    HW184422   8.703  10.497   5.128
27530SOL    HW284423   8.821  10.449   5.047
27531SOL     OW84424   7.605   8.721  13.811
27531SOL    HW184425   7.576   8.797  13.861
27531SOL    HW284426   7.700   8.721  13.819
27532SOL     OW84427   0.874  11.101   6.550
27532SOL    HW184428   0.785  11.135   6.557
27532SOL    HW284429   0.928  11.163   6.599
27533SOL     OW84430   2.222   7.958   1.390
27533SOL    HW184431   2.146   7.899   1.393
27533SOL    HW284432   2.291   7.906   1.350
27534SOL     OW84433   8.557   9.852   2.932
27534SOL    HW184434   8.499   9.927   2.914
27534SOL    HW284435   8.505   9.776   2.909
27535SOL     OW84436  13.626  14.499  14.335
27535SOL    HW184437  13.558  14.557  14.371
27535SOL    HW284438  13.678  14.474  14.411
27536SOL     OW84439   6.488   0.915   3.717
27536SOL    HW184440   6.483   0.947   3.627
27536SOL    HW284441   6.569   0.954   3.752
27537SOL     OW84442   0.458   8.313  10.169
27537SOL    HW184443   0.369   8.282  10.188
27537SOL    HW284444   0.514   8.263  10.228
27538SOL     OW84445  11.092   0.034   0.209
27538SOL    HW184446  11.075   0.048   0.302
27538SOL    HW284447  11.162  14.846   0.206
27539SOL     OW84448  14.099   1.454   6.915
27539SOL    HW184449  14.047   1.408   6.849
27539SOL    HW284450  14.084   1.547   6.897
27540SOL     OW84451  13.728   8.182   0.058
27540SOL    HW184452  13.650   8.161   0.006
27540SOL    HW284453  13.701   8.256   0.113
27541SOL     OW84454  12.396  14.864   0.654
27541SOL    HW184455  12.339   0.065   0.653
27541SOL    HW284456  12.478   0.020   0.693
27542SOL     OW84457   4.593   1.352   2.229
27542SOL    HW184458   4.537   1.355   2.152
27542SOL    HW284459   4.607   1.258   2.245
27543SOL     OW84460   3.374   0.573   4.639
27543SOL    HW184461   3.305   0.597   4.577
27543SOL    HW284462   3.393   0.481   4.619
27544SOL     OW84463  11.631   1.186   9.207
27544SOL    HW184464  11.578   1.133   9.268
27544SOL    HW284465  11.618   1.276   9.236
27545SOL     OW84466   4.586  14.167  14.107
27545SOL    HW184467   4.536  14.227  14.051
27545SOL    HW284468   4.658  14.137  14.051
27546SOL     OW84469  13.863   6.416   1.559
27546SOL    HW184470  13.890   6.413   1.651
27546SOL    HW284471  13.837   6.326   1.539
27547SOL     OW84472   1.083   9.491  14.662
27547SOL    HW184473   1.063   9.584  14.650
27547SOL    HW284474   1.178   9.485  14.652
27548SOL     OW84475   2.242   4.702  12.091
27548SOL    HW184476   2.286   4.782  12.061
27548SOL    HW284477   2.163   4.733  12.135
27549SOL     OW84478  11.989   1.733   1.493
27549SOL    HW184479  11.931   1.808   1.479
27549SOL    HW284480  12.076   1.771   1.500
27550SOL     OW84481   8.608   5.123  13.063
27550SOL    HW184482   8.567   5.078  12.990
27550SOL    HW284483   8.565   5.087  13.141
27551SOL     OW84484  10.563   8.901   9.233
27551SOL    HW184485  10.569   8.805   9.228
27551SOL    HW284486  10.631   8.926   9.295
27552SOL     OW84487   2.288   5.577  13.886
27552SOL    HW184488   2.271   5.637  13.959
27552SOL    HW284489   2.375   5.541  13.904
27553SOL     OW84490   1.857  12.516   7.281
27553SOL    HW184491   1.811  12.442   7.242
27553SOL    HW284492   1.950  12.494   7.270
27554SOL     OW84493   2.736  10.469   5.610
27554SOL    HW184494   2.763  10.538   5.671
27554SOL    HW284495   2.644  10.453   5.631
27555SOL     OW84496   6.292   8.758   7.512
27555SOL    HW184497   6.288   8.821   7.584
27555SOL    HW284498   6.347   8.799   7.446
27556SOL     OW84499  14.151  14.356  12.552
27556SOL    HW184500  14.120  14.350  12.461
27556SOL    HW284501  14.073  14.379  12.602
27557SOL     OW84502  11.852   3.217   3.965
27557SOL    HW184503  11.890   3.152   4.023
27557SOL    HW284504  11.759   3.194   3.961
27558SOL     OW84505   7.018   3.510   2.851
27558SOL    HW184506   7.104   3.486   2.819
27558SOL    HW284507   7.026   3.506   2.947
27559SOL     OW84508   3.521   6.748  10.144
27559SOL    HW184509   3.607   6.785  10.126
27559SOL    HW284510   3.519   6.737  10.239
27560SOL     OW84511   8.032  10.319   9.251
27560SOL    HW184512   8.097  10.268   9.299
27560SOL    HW284513   8.024  10.274   9.167
27561SOL     OW84514   8.661   8.349   4.997
27561SOL    HW184515   8.702   8.380   5.078
27561SOL    HW284516   8.665   8.424   4.938
27562SOL     OW84517  14.659  12.923   6.107
27562SOL    HW184518  14.723  12.864   6.146
27562SOL    HW284519  14.586  12.866   6.082
27563SOL     OW84520   9.117   1.535   5.420
27563SOL    HW184521   9.087   1.539   5.329
27563SOL    HW284522   9.208   1.504   5.413
27564SOL     OW84523  14.574  13.184   5.055
27564SOL    HW184524  14.497  13.239   5.071
27564SOL    HW284525  14.546  13.123   4.987
27565SOL     OW84526   4.174   2.924   7.628
27565SOL    HW184527   4.260   2.961   7.644
27565SOL    HW284528   4.187   2.864   7.554
27566SOL     OW84529   8.659  12.474  12.839
27566SOL    HW184530   8.583  12.487  12.782
27566SOL    HW284531   8.702  12.396  12.805
27567SOL     OW84532  12.510   3.941   0.608
27567SOL    HW184533  12.590   3.953   0.557
27567SOL    HW284534  12.457   4.017   0.587
27568SOL     OW84535  14.228   6.388   6.343
27568SOL    HW184536  14.154   6.402   6.403
27568SOL    HW284537  14.244   6.474   6.304
27569SOL     OW84538  11.863   5.789   8.866
27569SOL    HW184539  11.781   5.808   8.912
27569SOL    HW284540  11.865   5.693   8.861
27570SOL     OW84541   8.068   5.415  12.084
27570SOL    HW184542   8.142   5.466  12.117
27570SOL    HW284543   8.034   5.468  12.011
27571SOL     OW84544   2.395   4.542   3.821
27571SOL    HW184545   2.445   4.605   3.770
27571SOL    HW284546   2.330   4.507   3.760
27572SOL     OW84547   5.058  12.470  10.867
27572SOL    HW184548   4.993  12.472  10.937
27572SOL    HW284549   5.123  12.535  10.892
27573SOL     OW84550   0.667   1.625   5.518
27573SOL    HW184551   0.640   1.717   5.525
27573SOL    HW284552   0.744   1.618   5.574
27574SOL     OW84553   8.511  10.029   1.071
27574SOL    HW184554   8.597  10.019   1.111
27574SOL    HW284555   8.454   9.970   1.120
27575SOL     OW84556  10.661   2.608   7.309
27575SOL    HW184557  10.566   2.617   7.309
27575SOL    HW284558  10.686   2.616   7.217
27576SOL     OW84559   0.815   6.429   9.406
27576SOL    HW184560   0.725   6.458   9.423
27576SOL    HW284561   0.870   6.500   9.439
27577SOL     OW84562  14.346   7.619   4.050
27577SOL    HW184563  14.258   7.606   4.014
27577SOL    HW284564  14.393   7.539   4.026
27578SOL     OW84565   4.451  12.748  13.336
27578SOL    HW184566   4.440  12.816  13.402
27578SOL    HW284567   4.522  12.693  13.369
27579SOL     OW84568   7.472   0.324   7.162
27579SOL    HW184569   7.414   0.277   7.222
27579SOL    HW284570   7.415   0.354   7.092
27580SOL     OW84571  12.815  11.285   6.546
27580SOL    HW184572  12.768  11.281   6.463
27580SOL    HW284573  12.857  11.371   6.545
27581SOL     OW84574   0.272  13.057  11.913
27581SOL    HW184575   0.278  12.989  11.979
27581SOL    HW284576   0.278  13.010  11.830
27582SOL     OW84577   9.217  12.865   3.851
27582SOL    HW184578   9.189  12.855   3.941
27582SOL    HW284579   9.232  12.776   3.820
27583SOL     OW84580  13.779  11.324   3.978
27583SOL    HW184581  13.826  11.241   3.970
27583SOL    HW284582  13.762  11.351   3.888
27584SOL     OW84583   8.291  12.943   2.819
27584SOL    HW184584   8.289  12.924   2.913
27584SOL    HW284585   8.226  13.012   2.807
27585SOL     OW84586   0.749   6.894  11.030
27585SOL    HW184587   0.681   6.946  11.073
27585SOL    HW284588   0.702   6.819  10.993
27586SOL     OW84589   3.061  13.822   3.116
27586SOL    HW184590   2.976  13.865   3.102
27586SOL    HW284591   3.100  13.817   3.029
27587SOL     OW84592   2.925   6.930  10.519
27587SOL    HW184593   2.852   6.992  10.510
27587SOL    HW284594   2.959   6.945  10.607
27588SOL     OW84595  13.336   4.760   7.758
27588SOL    HW184596  13.424   4.760   7.796
27588SOL    HW284597  13.351   4.745   7.665
27589SOL     OW84598   7.839   8.596   4.378
27589SOL    HW184599   7.746   8.583   4.355
27589SOL    HW284600   7.885   8.532   4.324
27590SOL     OW84601  12.172  11.490   3.366
27590SOL    HW184602  12.157  11.516   3.457
27590SOL    HW284603  12.186  11.395   3.370
27591SOL     OW84604   0.259   1.459  10.635
27591SOL    HW184605   0.244   1.378  10.684
27591SOL    HW284606   0.183   1.513  10.656
27592SOL     OW84607   2.749   5.362   8.781
27592SOL    HW184608   2.723   5.292   8.722
27592SOL    HW284609   2.708   5.339   8.865
27593SOL     OW84610  10.962   5.952   1.161
27593SOL    HW184611  10.882   5.903   1.144
27593SOL    HW284612  10.941   6.042   1.134
27594SOL     OW84613  11.563  11.938   1.713
27594SOL    HW184614  11.512  12.015   1.688
27594SOL    HW284615  11.642  11.943   1.659
27595SOL     OW84616  10.466  12.399   2.395
27595SOL    HW184617  10.449  12.470   2.457
27595SOL    HW284618  10.559  12.405   2.375
27596SOL     OW84619   9.677  12.392   1.901
27596SOL    HW184620   9.600  12.344   1.931
27596SOL    HW284621   9.719  12.423   1.982
27597SOL     OW84622   4.859  12.816  14.719
27597SOL    HW184623   4.945  12.825  14.760
27597SOL    HW284624   4.863  12.874  14.642
27598SOL     OW84625   5.673  11.203   7.725
27598SOL    HW184626   5.582  11.196   7.751
27598SOL    HW284627   5.692  11.120   7.680
27599SOL     OW84628   2.439  13.048   8.363
27599SOL    HW184629   2.519  13.010   8.326
27599SOL    HW284630   2.448  13.142   8.349
27600SOL     OW84631   6.389   8.204   4.710
27600SOL    HW184632   6.405   8.192   4.804
27600SOL    HW284633   6.296   8.225   4.704
27601SOL     OW84634   9.900  12.978   7.900
27601SOL    HW184635   9.858  13.063   7.914
27601SOL    HW284636   9.982  12.999   7.855
27602SOL     OW84637  11.568   6.971   9.512
27602SOL    HW184638  11.639   6.938   9.566
27602SOL    HW284639  11.500   6.997   9.575
27603SOL     OW84640   8.236   5.871   9.794
27603SOL    HW184641   8.148   5.890   9.827
27603SOL    HW284642   8.223   5.800   9.731
27604SOL     OW84643   3.770  11.428   0.881
27604SOL    HW184644   3.813  11.343   0.865
27604SOL    HW284645   3.691  11.424   0.827
27605SOL     OW84646   4.586  10.494   7.717
27605SOL    HW184647   4.639  10.540   7.782
27605SOL    HW284648   4.553  10.417   7.763
27606SOL     OW84649   4.847   7.263   5.780
27606SOL    HW184650   4.855   7.355   5.808
27606SOL    HW284651   4.928   7.222   5.810
27607SOL     OW84652   1.678  14.593   7.885
27607SOL    HW184653   1.751  14.535   7.866
27607SOL    HW284654   1.606  14.560   7.830
27608SOL     OW84655  11.981   0.234  11.749
27608SOL    HW184656  12.067   0.209  11.716
27608SOL    HW284657  11.999   0.304  11.812
27609SOL     OW84658   4.930   6.011  12.410
27609SOL    HW184659   5.008   6.054  12.446
27609SOL    HW284660   4.866   6.013  12.481
27610SOL     OW84661  11.905   1.615   6.087
27610SOL    HW184662  11.936   1.564   6.012
27610SOL    HW284663  11.836   1.561   6.125
27611SOL     OW84664   1.206   7.328   2.343
27611SOL    HW184665   1.237   7.406   2.296
27611SOL    HW284666   1.264   7.322   2.419
27612SOL     OW84667   6.320   5.773  10.471
27612SOL    HW184668   6.401   5.720  10.472
27612SOL    HW284669   6.255   5.716  10.512
27613SOL     OW84670   9.898   8.190   2.583
27613SOL    HW184671   9.849   8.271   2.597
27613SOL    HW284672   9.988   8.219   2.569
27614SOL     OW84673   8.246  14.020   9.661
27614SOL    HW184674   8.289  14.082   9.720
27614SOL    HW284675   8.220  13.947   9.718
27615SOL     OW84676   0.890  12.100   3.554
27615SOL    HW184677   0.954  12.170   3.539
27615SOL    HW284678   0.842  12.093   3.471
27616SOL     OW84679  11.561   5.614   5.215
27616SOL    HW184680  11.474   5.578   5.197
27616SOL    HW284681  11.544   5.703   5.245
27617SOL     OW84682  13.331  10.878  12.871
27617SOL    HW184683  13.316  10.973  12.869
27617SOL    HW284684  13.261  10.844  12.926
27618SOL     OW84685   7.279  10.193   0.937
27618SOL    HW184686   7.283  10.147   0.853
27618SOL    HW284687   7.192  10.232   0.940
27619SOL     OW84688  10.131   0.915   7.221
27619SOL    HW184689  10.208   0.967   7.198
27619SOL    HW284690  10.167   0.841   7.271
27620SOL     OW84691  13.154  13.880  10.092
27620SOL    HW184692  13.237  13.844  10.059
27620SOL    HW284693  13.166  13.885  10.187
27621SOL     OW84694   0.916   6.719  13.862
27621SOL    HW184695   0.893   6.800  13.908
27621SOL    HW284696   0.918   6.652  13.931
27622SOL     OW84697   5.049   3.818   7.480
27622SOL    HW184698   4.956   3.803   7.498
27622SOL    HW284699   5.082   3.734   7.451
27623SOL     OW84700  14.147   3.764   0.827
27623SOL    HW184701  14.052   3.752   0.820
27623SOL    HW284702  14.182   3.737   0.743
27624SOL     OW84703   2.875  11.101  11.906
27624SOL    HW184704   2.970  11.110  11.896
27624SOL    HW284705   2.864  11.021  11.958
27625SOL     OW84706  10.222   0.228   1.367
27625SOL    HW184707  10.157   0.212   1.436
27625SOL    HW284708  10.232   0.323   1.366
27626SOL     OW84709  11.107   8.909   9.549
27626SOL    HW184710  11.029   8.962   9.564
27626SOL    HW284711  11.077   8.837   9.494
27627SOL     OW84712   8.514   1.595   4.028
27627SOL    HW184713   8.587   1.592   3.966
27627SOL    HW284714   8.459   1.667   3.996
27628SOL     OW84715  11.524   3.496   4.854
27628SOL    HW184716  11.607   3.502   4.807
27628SOL    HW284717  11.531   3.560   4.924
27629SOL     OW84718   0.779   4.614  11.723
27629SOL    HW184719   0.833   4.688  11.751
27629SOL    HW284720   0.836   4.538  11.732
27630SOL     OW84721   0.088  12.013  14.025
27630SOL    HW184722   0.129  11.948  13.967
27630SOL    HW284723   0.156  12.035  14.088
27631SOL     OW84724   0.772  12.489   8.801
27631SOL    HW184725   0.746  12.398   8.802
27631SOL    HW284726   0.805  12.503   8.712
27632SOL     OW84727   7.384  13.753  11.340
27632SOL    HW184728   7.367  13.661  11.317
27632SOL    HW284729   7.344  13.803  11.269
27633SOL     OW84730   2.282   5.809   0.888
27633SOL    HW184731   2.351   5.790   0.952
27633SOL    HW284732   2.277   5.904   0.885
27634SOL     OW84733   9.532  11.349   6.028
27634SOL    HW184734   9.477  11.387   6.097
27634SOL    HW284735   9.604  11.412   6.017
27635SOL     OW84736  12.794   2.627   8.552
27635SOL    HW184737  12.823   2.545   8.513
27635SOL    HW284738  12.720   2.603   8.608
27636SOL     OW84739   1.289   5.271   2.208
27636SOL    HW184740   1.298   5.295   2.116
27636SOL    HW284741   1.204   5.305   2.234
27637SOL     OW84742   7.897   1.844   1.370
27637SOL    HW184743   7.941   1.852   1.454
27637SOL    HW284744   7.855   1.928   1.355
27638SOL     OW84745  12.272   8.618   5.115
27638SOL    HW184746  12.285   8.546   5.054
27638SOL    HW284747  12.205   8.673   5.073
27639SOL     OW84748  10.020   5.892  13.417
27639SOL    HW184749  10.028   5.975  13.369
27639SOL    HW284750  10.043   5.825  13.352
27640SOL     OW84751   3.877  12.200   2.703
27640SOL    HW184752   3.943  12.143   2.741
27640SOL    HW284753   3.818  12.140   2.656
27641SOL     OW84754   9.992  14.026  14.681
27641SOL    HW184755   9.942  14.018  14.763
27641SOL    HW284756  10.007  13.936  14.654
27642SOL     OW84757   2.953   8.746   6.488
27642SOL    HW184758   3.021   8.808   6.461
27642SOL    HW284759   2.953   8.679   6.420
27643SOL     OW84760  14.031   4.118   0.029
27643SOL    HW184761  14.090   4.159   0.092
27643SOL    HW284762  14.086   4.100  14.829
27644SOL     OW84763   4.333   8.189   7.101
27644SOL    HW184764   4.386   8.164   7.025
27644SOL    HW284765   4.396   8.199   7.172
27645SOL     OW84766   7.393   6.578   3.895
27645SOL    HW184767   7.313   6.568   3.843
27645SOL    HW284768   7.397   6.499   3.948
27646SOL     OW84769   7.294   0.054   8.223
27646SOL    HW184770   7.294  14.852   8.168
27646SOL    HW284771   7.381   0.055   8.264
27647SOL     OW84772   4.718   0.800   2.691
27647SOL    HW184773   4.770   0.839   2.761
27647SOL    HW284774   4.631   0.790   2.728
27648SOL     OW84775   1.225   5.033   6.469
27648SOL    HW184776   1.247   5.048   6.377
27648SOL    HW284777   1.291   4.972   6.500
27649SOL     OW84778   8.532   5.238   6.891
27649SOL    HW184779   8.609   5.288   6.863
27649SOL    HW284780   8.568   5.170   6.949
27650SOL     OW84781   1.024   0.705   8.904
27650SOL    HW184782   0.943   0.654   8.900
27650SOL    HW284783   1.042   0.729   8.813
27651SOL     OW84784  10.883   0.605   9.617
27651SOL    HW184785  10.805   0.656   9.599
27651SOL    HW284786  10.923   0.591   9.531
27652SOL     OW84787  11.045   4.052  13.480
27652SOL    HW184788  10.955   4.037  13.508
27652SOL    HW284789  11.042   4.043  13.385
27653SOL     OW84790   3.636  11.759  12.700
27653SOL    HW184791   3.708  11.697  12.705
27653SOL    HW284792   3.657  11.826  12.764
27654SOL     OW84793  11.412   4.927  14.004
27654SOL    HW184794  11.384   4.866  14.072
27654SOL    HW284795  11.458   4.873  13.940
27655SOL     OW84796  11.143   6.208  13.761
27655SOL    HW184797  11.125   6.241  13.673
27655SOL    HW284798  11.066   6.156  13.783
27656SOL     OW84799   7.629   2.482  12.632
27656SOL    HW184800   7.597   2.554  12.578
27656SOL    HW284801   7.596   2.403  12.589
27657SOL     OW84802  10.319   9.113   8.235
27657SOL    HW184803  10.233   9.140   8.266
27657SOL    HW284804  10.304   9.029   8.192
27658SOL     OW84805   2.681   7.628   9.289
27658SOL    HW184806   2.773   7.603   9.302
27658SOL    HW284807   2.666   7.616   9.195
27659SOL     OW84808   6.991   5.103  10.632
27659SOL    HW184809   7.080   5.136  10.634
27659SOL    HW284810   6.995   5.018  10.677
27660SOL     OW84811  10.704   2.112   9.644
27660SOL    HW184812  10.663   2.199   9.643
27660SOL    HW284813  10.663   2.068   9.718
27661SOL     OW84814   5.125   7.440   1.350
27661SOL    HW184815   5.098   7.468   1.262
27661SOL    HW284816   5.136   7.521   1.399
27662SOL     OW84817   0.469   4.859   5.062
27662SOL    HW184818   0.436   4.934   5.111
27662SOL    HW284819   0.516   4.806   5.126
27663SOL     OW84820   6.029   5.339   2.253
27663SOL    HW184821   5.954   5.355   2.309
27663SOL    HW284822   6.015   5.251   2.218
27664SOL     OW84823   6.048   9.435  13.506
27664SOL    HW184824   6.038   9.341  13.493
27664SOL    HW284825   6.080   9.445  13.595
27665SOL     OW84826   8.681  14.475   8.372
27665SOL    HW184827   8.647  14.390   8.401
27665SOL    HW284828   8.672  14.532   8.448
27666SOL     OW84829  11.457   1.084   1.004
27666SOL    HW184830  11.409   1.013   1.047
27666SOL    HW284831  11.412   1.164   1.033
27667SOL     OW84832   0.763   9.661   3.168
27667SOL    HW184833   0.700   9.648   3.239
27667SOL    HW284834   0.756   9.582   3.114
27668SOL     OW84835   2.195  10.540   6.471
27668SOL    HW184836   2.186  10.618   6.526
27668SOL    HW284837   2.162  10.469   6.525
27669SOL     OW84838   6.287   8.157  13.461
27669SOL    HW184839   6.278   8.093  13.390
27669SOL    HW284840   6.358   8.215  13.432
27670SOL     OW84841   8.616  10.171  13.642
27670SOL    HW184842   8.705  10.140  13.625
27670SOL    HW284843   8.597  10.142  13.731
27671SOL     OW84844   4.592  10.601  13.345
27671SOL    HW184845   4.502  10.576  13.327
27671SOL    HW284846   4.645  10.533  13.301
27672SOL     OW84847   0.792  12.670   9.239
27672SOL    HW184848   0.831  12.658   9.153
27672SOL    HW284849   0.837  12.607   9.295
27673SOL     OW84850   9.780  14.314   1.164
27673SOL    HW184851   9.865  14.336   1.127
27673SOL    HW284852   9.728  14.395   1.156
27674SOL     OW84853   2.196   1.754   3.217
27674SOL    HW184854   2.231   1.838   3.245
27674SOL    HW284855   2.270   1.710   3.175
27675SOL     OW84856   6.862   0.751  12.029
27675SOL    HW184857   6.861   0.841  12.064
27675SOL    HW284858   6.943   0.713  12.063
27676SOL     OW84859   1.871   8.939   8.767
27676SOL    HW184860   1.822   9.020   8.753
27676SOL    HW284861   1.827   8.897   8.841
27677SOL     OW84862   6.275  11.635   9.775
27677SOL    HW184863   6.300  11.699   9.842
27677SOL    HW284864   6.302  11.551   9.810
27678SOL     OW84865   9.289   3.811  14.642
27678SOL    HW184866   9.324   3.775  14.724
27678SOL    HW284867   9.282   3.905  14.659
27679SOL     OW84868  13.579  10.233   5.878
27679SOL    HW184869  13.579  10.149   5.833
27679SOL    HW284870  13.511  10.284   5.833
27680SOL     OW84871   5.971  11.125   6.536
27680SOL    HW184872   5.966  11.153   6.445
27680SOL    HW284873   5.934  11.037   6.537
27681SOL     OW84874   4.748   8.137   8.518
27681SOL    HW184875   4.763   8.197   8.592
27681SOL    HW284876   4.821   8.153   8.459
27682SOL     OW84877   3.419   8.902   5.763
27682SOL    HW184878   3.384   8.830   5.711
27682SOL    HW284879   3.503   8.871   5.795
27683SOL     OW84880  10.463  12.743   8.936
27683SOL    HW184881  10.462  12.743   8.841
27683SOL    HW284882  10.536  12.801   8.959
27684SOL     OW84883   6.468  12.973  12.822
27684SOL    HW184884   6.423  12.979  12.737
27684SOL    HW284885   6.501  13.061  12.838
27685SOL     OW84886   2.049   1.939  11.695
27685SOL    HW184887   1.975   1.910  11.749
27685SOL    HW284888   2.124   1.936  11.755
27686SOL     OW84889   4.171   7.946  10.195
27686SOL    HW184890   4.257   7.938  10.155
27686SOL    HW284891   4.171   8.033  10.235
27687SOL     OW84892   4.150   1.979   1.010
27687SOL    HW184893   4.086   1.973   1.080
27687SOL    HW284894   4.232   1.999   1.055
27688SOL     OW84895   4.270   0.391   4.832
27688SOL    HW184896   4.186   0.376   4.790
27688SOL    HW284897   4.329   0.327   4.792
27689SOL     OW84898   2.096   2.853   3.939
27689SOL    HW184899   2.104   2.795   4.015
27689SOL    HW284900   2.002   2.853   3.919
27690SOL     OW84901  12.159  12.407   5.013
27690SOL    HW184902  12.123  12.383   4.927
27690SOL    HW284903  12.188  12.498   5.002
27691SOL     OW84904  13.646   4.483   9.454
27691SOL    HW184905  13.595   4.480   9.535
27691SOL    HW284906  13.587   4.522   9.389
27692SOL     OW84907   9.743   1.106   9.338
27692SOL    HW184908   9.703   1.190   9.363
27692SOL    HW284909   9.794   1.080   9.415
27693SOL     OW84910  14.528   2.545   9.940
27693SOL    HW184911  14.453   2.498   9.976
27693SOL    HW284912  14.519   2.535   9.845
27694SOL     OW84913   9.584   6.220  11.283
27694SOL    HW184914   9.593   6.125  11.286
27694SOL    HW284915   9.491   6.235  11.270
27695SOL     OW84916   0.799   3.075  14.734
27695SOL    HW184917   0.820   3.026  14.814
27695SOL    HW284918   0.718   3.121  14.755
27696SOL     OW84919   3.803   2.771   7.670
27696SOL    HW184920   3.812   2.681   7.703
27696SOL    HW284921   3.793   2.824   7.749
27697SOL     OW84922   7.174   2.428   5.527
27697SOL    HW184923   7.229   2.366   5.575
27697SOL    HW284924   7.233   2.471   5.465
27698SOL     OW84925  12.926  12.046  11.862
27698SOL    HW184926  12.972  11.965  11.882
27698SOL    HW284927  12.910  12.087  11.947
27699SOL     OW84928   2.768  14.603   3.379
27699SOL    HW184929   2.743  14.584   3.289
27699SOL    HW284930   2.689  14.641   3.418
27700SOL     OW84931  14.459  13.821   5.271
27700SOL    HW184932  14.431  13.860   5.354
27700SOL    HW284933  14.552  13.801   5.283
27701SOL     OW84934   9.419   7.215   3.121
27701SOL    HW184935   9.369   7.293   3.146
27701SOL    HW284936   9.429   7.166   3.203
27702SOL     OW84937   4.037   8.202   1.137
27702SOL    HW184938   4.070   8.279   1.090
27702SOL    HW284939   3.982   8.156   1.072
27703SOL     OW84940   7.486   1.777   7.182
27703SOL    HW184941   7.563   1.755   7.234
27703SOL    HW284942   7.462   1.696   7.138
27704SOL     OW84943  12.286   2.917   5.277
27704SOL    HW184944  12.318   2.838   5.319
27704SOL    HW284945  12.318   2.911   5.187
27705SOL     OW84946   0.688   0.542   0.332
27705SOL    HW184947   0.721   0.627   0.302
27705SOL    HW284948   0.686   0.549   0.427
27706SOL     OW84949   4.265   9.312   4.657
27706SOL    HW184950   4.311   9.341   4.579
27706SOL    HW284951   4.173   9.333   4.641
27707SOL     OW84952  10.623  10.514   6.172
27707SOL    HW184953  10.556  10.570   6.132
27707SOL    HW284954  10.575  10.461   6.236
27708SOL     OW84955  13.188   8.035  10.796
27708SOL    HW184956  13.257   8.072  10.741
27708SOL    HW284957  13.198   7.940  10.785
27709SOL     OW84958   2.509   3.478  11.739
27709SOL    HW184959   2.479   3.483  11.830
27709SOL    HW284960   2.447   3.533  11.690
27710SOL     OW84961  14.271   4.285   3.490
27710SOL    HW184962  14.340   4.231   3.452
27710SOL    HW284963  14.315   4.364   3.521
27711SOL     OW84964   2.153   5.372  11.657
27711SOL    HW184965   2.132   5.322  11.578
27711SOL    HW284966   2.234   5.419  11.635
27712SOL     OW84967  11.053   3.545  13.884
27712SOL    HW184968  10.984   3.579  13.941
27712SOL    HW284969  11.112   3.499  13.943
27713SOL     OW84970   6.243   9.483   0.007
27713SOL    HW184971   6.317   9.430   0.038
27713SOL    HW284972   6.272   9.518  14.798
27714SOL     OW84973   4.906  11.954  11.767
27714SOL    HW184974   4.984  11.909  11.735
27714SOL    HW284975   4.925  12.047  11.755
27715SOL     OW84976  13.371   2.890   3.414
27715SOL    HW184977  13.357   2.799   3.388
27715SOL    HW284978  13.405   2.884   3.503
27716SOL     OW84979   7.472  13.159   0.573
27716SOL    HW184980   7.434  13.112   0.648
27716SOL    HW284981   7.567  13.151   0.585
27717SOL     OW84982   3.772   8.118   2.146
27717SOL    HW184983   3.850   8.137   2.198
27717SOL    HW284984   3.745   8.031   2.175
27718SOL     OW84985  13.072   5.088  11.290
27718SOL    HW184986  13.032   5.006  11.318
27718SOL    HW284987  13.163   5.064  11.270
27719SOL     OW84988  10.632   1.566  11.424
27719SOL    HW184989  10.726   1.546  11.423
27719SOL    HW284990  10.627   1.660  11.411
27720SOL     OW84991  12.860   6.068   2.372
27720SOL    HW184992  12.938   6.098   2.419
27720SOL    HW284993  12.884   6.076   2.279
27721SOL     OW84994  11.691   0.988   7.545
27721SOL    HW184995  11.682   0.894   7.560
27721SOL    HW284996  11.691   1.027   7.633
27722SOL     OW84997   5.920   3.037   7.143
27722SOL    HW184998   6.006   3.071   7.168
27722SOL    HW284999   5.930   2.942   7.148
27723SOL     OW85000  12.288   0.042   2.528
27723SOL    HW185001  12.310   0.084   2.611
27723SOL    HW285002  12.337  14.835   2.529
27724SOL     OW85003  12.026  14.557   1.354
27724SOL    HW185004  12.066  14.602   1.429
27724SOL    HW285005  12.029  14.621   1.283
27725SOL     OW85006  10.979  11.015   0.427
27725SOL    HW185007  11.008  11.017   0.336
27725SOL    HW285008  11.032  10.947   0.468
27726SOL     OW85009   9.636  11.250   9.954
27726SOL    HW185010   9.670  11.225  10.040
27726SOL    HW285011   9.669  11.339   9.940
27727SOL     OW85012   7.780  10.490   7.110
27727SOL    HW185013   7.752  10.576   7.142
27727SOL    HW285014   7.708  10.431   7.133
27728SOL     OW85015   7.539   2.067  10.003
27728SOL    HW185016   7.483   2.030  10.072
27728SOL    HW285017   7.610   2.004   9.994
27729SOL     OW85018  12.461  10.712  11.574
27729SOL    HW185019  12.416  10.781  11.623
27729SOL    HW285020  12.553  10.735  11.579
27730SOL     OW85021   8.343   1.041   3.080
27730SOL    HW185022   8.386   1.001   3.155
27730SOL    HW285023   8.402   1.112   3.055
27731SOL     OW85024   0.403   8.740   1.507
27731SOL    HW185025   0.322   8.791   1.511
27731SOL    HW285026   0.438   8.758   1.420
27732SOL     OW85027   0.429  10.246   0.401
27732SOL    HW185028   0.416  10.165   0.449
27732SOL    HW285029   0.410  10.223   0.310
27733SOL     OW85030   0.844   2.213   4.285
27733SOL    HW185031   0.810   2.126   4.264
27733SOL    HW285032   0.827   2.224   4.378
27734SOL     OW85033   8.543   0.801   6.881
27734SOL    HW185034   8.599   0.857   6.827
27734SOL    HW285035   8.532   0.850   6.963
27735SOL     OW85036  11.158   2.542   3.442
27735SOL    HW185037  11.203   2.623   3.420
27735SOL    HW285038  11.070   2.553   3.406
27736SOL     OW85039   5.681  12.130   1.233
27736SOL    HW185040   5.647  12.165   1.150
27736SOL    HW285041   5.732  12.053   1.208
27737SOL     OW85042   1.292  11.972   5.958
27737SOL    HW185043   1.351  11.921   5.904
27737SOL    HW285044   1.329  12.060   5.957
27738SOL     OW85045  13.152  12.491  11.277
27738SOL    HW185046  13.183  12.511  11.189
27738SOL    HW285047  13.107  12.407  11.269
27739SOL     OW85048   8.666  13.335  10.791
27739SOL    HW185049   8.664  13.384  10.873
27739SOL    HW285050   8.733  13.379  10.738
27740SOL     OW85051   2.296   4.204   4.019
27740SOL    HW185052   2.358   4.157   3.962
27740SOL    HW285053   2.350   4.270   4.064
27741SOL     OW85054   9.031  11.655   1.485
27741SOL    HW185055   9.086  11.654   1.563
27741SOL    HW285056   9.077  11.714   1.425
27742SOL     OW85057   9.838   3.565   9.953
27742SOL    HW185058   9.915   3.573   9.897
27742SOL    HW285059   9.874   3.550  10.040
27743SOL     OW85060  10.725  10.382   3.220
27743SOL    HW185061  10.737  10.474   3.245
27743SOL    HW285062  10.814  10.346   3.221
27744SOL     OW85063  10.244   2.446  12.063
27744SOL    HW185064  10.198   2.467  11.982
27744SOL    HW285065  10.334   2.478  12.048
27745SOL     OW85066   3.092   0.723   7.720
27745SOL    HW185067   3.103   0.637   7.679
27745SOL    HW285068   3.152   0.780   7.673
27746SOL     OW85069   1.702  12.602   2.553
27746SOL    HW185070   1.665  12.518   2.526
27746SOL    HW285071   1.635  12.666   2.532
27747SOL     OW85072   9.736   3.343   0.149
27747SOL    HW185073   9.796   3.376   0.216
27747SOL    HW285074   9.652   3.335   0.194
27748SOL     OW85075  14.076  12.197   7.717
27748SOL    HW185076  14.038  12.284   7.729
27748SOL    HW285077  14.008  12.148   7.670
27749SOL     OW85078  14.355   9.351   3.103
27749SOL    HW185079  14.333   9.267   3.063
27749SOL    HW285080  14.451   9.354   3.100
27750SOL     OW85081   7.307   6.893   7.988
27750SOL    HW185082   7.262   6.879   8.072
27750SOL    HW285083   7.265   6.971   7.952
27751SOL     OW85084   9.389   1.881   5.273
27751SOL    HW185085   9.326   1.880   5.201
27751SOL    HW285086   9.462   1.827   5.241
27752SOL     OW85087   4.475   9.639  13.791
27752SOL    HW185088   4.381   9.655  13.779
27752SOL    HW285089   4.489   9.653  13.885
27753SOL     OW85090   0.715   9.108  11.426
27753SOL    HW185091   0.786   9.165  11.398
27753SOL    HW285092   0.692   9.057  11.348
27754SOL     OW85093  11.051  14.683   1.132
27754SOL    HW185094  11.081  14.626   1.203
27754SOL    HW285095  11.105  14.762   1.141
27755SOL     OW85096  11.900   7.688   0.828
27755SOL    HW185097  11.839   7.647   0.890
27755SOL    HW285098  11.985   7.682   0.870
27756SOL     OW85099  12.308   9.569  12.368
27756SOL    HW185100  12.341   9.501  12.310
27756SOL    HW285101  12.316   9.531  12.456
27757SOL     OW85102   7.256   4.576   6.194
27757SOL    HW185103   7.307   4.657   6.186
27757SOL    HW285104   7.167   4.606   6.212
27758SOL     OW85105   8.838  13.807   6.043
27758SOL    HW185106   8.750  13.842   6.028
27758SOL    HW285107   8.866  13.775   5.958
27759SOL     OW85108  13.567   1.888  11.027
27759SOL    HW185109  13.579   1.859  10.937
27759SOL    HW285110  13.486   1.845  11.056
27760SOL     OW85111   2.483  12.963   7.668
27760SOL    HW185112   2.426  12.886   7.665
27760SOL    HW285113   2.435  13.026   7.722
27761SOL     OW85114   0.183   0.670  11.248
27761SOL    HW185115   0.228   0.715  11.178
27761SOL    HW285116   0.116   0.617  11.204
27762SOL     OW85117   4.527   5.745   6.686
27762SOL    HW185118   4.436   5.715   6.691
27762SOL    HW285119   4.577   5.667   6.660
27763SOL     OW85120  14.818   4.429   7.272
27763SOL    HW185121  14.813   4.509   7.325
27763SOL    HW285122  14.750   4.372   7.309
27764SOL     OW85123   0.024   3.544   3.896
27764SOL    HW185124   0.106   3.497   3.911
27764SOL    HW285125  14.847   3.484   3.844
27765SOL     OW85126  12.273   0.227   7.621
27765SOL    HW185127  12.338   0.258   7.684
27765SOL    HW285128  12.278   0.289   7.549
27766SOL     OW85129  10.273  14.368   2.171
27766SOL    HW185130  10.321  14.315   2.108
27766SOL    HW285131  10.337  14.428   2.207
27767SOL     OW85132  14.609   3.437  10.702
27767SOL    HW185133  14.598   3.457  10.795
27767SOL    HW285134  14.700   3.407  10.695
27768SOL     OW85135   3.951  13.167   8.064
27768SOL    HW185136   3.966  13.201   8.152
27768SOL    HW285137   3.957  13.244   8.007
27769SOL     OW85138  12.165  13.042   7.097
27769SOL    HW185139  12.162  13.128   7.055
27769SOL    HW285140  12.257  13.026   7.114
27770SOL     OW85141  13.877   3.770   5.894
27770SOL    HW185142  13.959   3.736   5.860
27770SOL    HW285143  13.878   3.746   5.987
27771SOL     OW85144   1.306   7.640   2.730
27771SOL    HW185145   1.321   7.561   2.782
27771SOL    HW285146   1.221   7.625   2.688
27772SOL     OW85147   6.157   4.867   4.091
27772SOL    HW185148   6.168   4.851   4.185
27772SOL    HW285149   6.245   4.887   4.060
27773SOL     OW85150   0.199   3.066   0.825
27773SOL    HW185151   0.207   3.158   0.800
27773SOL    HW285152   0.277   3.024   0.789
27774SOL     OW85153   9.169   6.973   7.402
27774SOL    HW185154   9.158   7.058   7.443
27774SOL    HW285155   9.168   6.992   7.308
27775SOL     OW85156  14.292   7.652  13.207
27775SOL    HW185157  14.289   7.569  13.160
27775SOL    HW285158  14.310   7.718  13.140
27776SOL     OW85159  12.813  10.979  12.106
27776SOL    HW185160  12.897  10.948  12.139
27776SOL    HW285161  12.793  11.055  12.160
27777SOL     OW85162   0.241   5.786   3.679
27777SOL    HW185163   0.217   5.728   3.606
27777SOL    HW285164   0.336   5.783   3.681
27778SOL     OW85165  13.300   1.482  13.039
27778SOL    HW185166  13.318   1.468  12.947
27778SOL    HW285167  13.262   1.399  13.069
27779SOL     OW85168   1.407   5.600   3.118
27779SOL    HW185169   1.346   5.659   3.072
27779SOL    HW285170   1.360   5.517   3.124
27780SOL     OW85171   1.548   9.267   7.208
27780SOL    HW185172   1.626   9.309   7.244
27780SOL    HW285173   1.543   9.183   7.254
27781SOL     OW85174   6.837   5.127   4.888
27781SOL    HW185175   6.814   5.220   4.891
27781SOL    HW285176   6.832   5.105   4.795
27782SOL     OW85177  12.363  14.423   1.318
27782SOL    HW185178  12.350  14.498   1.260
27782SOL    HW285179  12.302  14.438   1.391
27783SOL     OW85180  11.703   6.110   0.190
27783SOL    HW185181  11.707   6.134   0.098
27783SOL    HW285182  11.794   6.098   0.216
27784SOL     OW85183  11.061  10.422  11.509
27784SOL    HW185184  10.972  10.457  11.512
27784SOL    HW285185  11.080  10.396  11.600
27785SOL     OW85186   1.458   3.254  12.201
27785SOL    HW185187   1.385   3.229  12.258
27785SOL    HW285188   1.480   3.174  12.153
27786SOL     OW85189   7.048   7.231   4.507
27786SOL    HW185190   6.979   7.165   4.516
27786SOL    HW285191   7.130   7.181   4.507
27787SOL     OW85192  11.341   6.574   6.549
27787SOL    HW185193  11.250   6.547   6.542
27787SOL    HW285194  11.383   6.535   6.472
27788SOL     OW85195  13.811   6.018   9.525
27788SOL    HW185196  13.746   6.079   9.559
27788SOL    HW285197  13.802   5.940   9.579
27789SOL     OW85198   7.376  13.992   2.070
27789SOL    HW185199   7.332  13.974   1.987
27789SOL    HW285200   7.360  13.915   2.124
27790SOL     OW85201   6.391   7.706   8.711
27790SOL    HW185202   6.402   7.800   8.700
27790SOL    HW285203   6.395   7.691   8.805
27791SOL     OW85204   3.179  10.831  13.503
27791SOL    HW185205   3.255  10.861  13.553
27791SOL    HW285206   3.201  10.740  13.480
27792SOL     OW85207   9.329   8.917   9.385
27792SOL    HW185208   9.250   8.960   9.419
27792SOL    HW285209   9.317   8.916   9.290
27793SOL     OW85210   9.611   0.011  10.270
27793SOL    HW185211   9.670   0.086  10.276
27793SOL    HW285212   9.575   0.001  10.358
27794SOL     OW85213  14.406   7.030  12.769
27794SOL    HW185214  14.336   7.093  12.784
27794SOL    HW285215  14.363   6.945  12.774
27795SOL     OW85216   4.169   3.523   8.582
27795SOL    HW185217   4.229   3.498   8.652
27795SOL    HW285218   4.084   3.490   8.611
27796SOL     OW85219   6.635   2.538   5.073
27796SOL    HW185220   6.714   2.529   5.126
27796SOL    HW285221   6.564   2.540   5.136
27797SOL     OW85222  12.249   0.612   8.493
27797SOL    HW185223  12.334   0.615   8.538
27797SOL    HW285224  12.188   0.653   8.554
27798SOL     OW85225   7.386   0.911  10.579
27798SOL    HW185226   7.340   0.958  10.649
27798SOL    HW285227   7.320   0.899  10.511
27799SOL     OW85228   2.927   3.247   6.019
27799SOL    HW185229   2.908   3.196   6.098
27799SOL    HW285230   3.016   3.280   6.032
27800SOL     OW85231   3.707   9.429   6.741
27800SOL    HW185232   3.715   9.334   6.739
27800SOL    HW285233   3.654   9.448   6.818
27801SOL     OW85234  10.071   6.732   8.228
27801SOL    HW185235   9.979   6.719   8.206
27801SOL    HW285236  10.116   6.733   8.143
27802SOL     OW85237   2.315   3.317   2.533
27802SOL    HW185238   2.369   3.375   2.586
27802SOL    HW285239   2.289   3.247   2.592
27803SOL     OW85240   8.268   7.752  11.541
27803SOL    HW185241   8.362   7.762  11.557
27803SOL    HW285242   8.233   7.841  11.549
27804SOL     OW85243   1.683  13.101  13.491
27804SOL    HW185244   1.642  13.023  13.455
27804SOL    HW285245   1.763  13.112  13.438
27805SOL     OW85246   6.317   0.937   3.920
27805SOL    HW185247   6.370   0.932   3.840
27805SOL    HW285248   6.371   0.895   3.987
27806SOL     OW85249   8.526   5.802  12.905
27806SOL    HW185250   8.531   5.746  12.827
27806SOL    HW285251   8.561   5.886  12.875
27807SOL     OW85252   2.919   2.145  10.633
27807SOL    HW185253   2.979   2.078  10.599
27807SOL    HW285254   2.947   2.158  10.723
27808SOL     OW85255   0.383   3.382   3.281
27808SOL    HW185256   0.476   3.400   3.268
27808SOL    HW285257   0.381   3.320   3.354
27809SOL     OW85258   5.614  13.746   7.636
27809SOL    HW185259   5.677  13.704   7.696
27809SOL    HW285260   5.538  13.687   7.637
27810SOL     OW85261  11.422   6.882   8.930
27810SOL    HW185262  11.503   6.929   8.915
27810SOL    HW285263  11.390   6.915   9.014
27811SOL     OW85264  12.327  11.784   7.634
27811SOL    HW185265  12.313  11.869   7.592
27811SOL    HW285266  12.421  11.780   7.649
27812SOL     OW85267   7.134  12.913  11.532
27812SOL    HW185268   7.060  12.863  11.499
27812SOL    HW285269   7.169  12.860  11.603
27813SOL     OW85270  10.900  12.339   4.578
27813SOL    HW185271  10.982  12.362   4.534
27813SOL    HW285272  10.854  12.282   4.516
27814SOL     OW85273   4.821   6.689   0.904
27814SOL    HW185274   4.847   6.756   0.967
27814SOL    HW285275   4.751   6.731   0.853
27815SOL     OW85276   3.510  10.243   0.996
27815SOL    HW185277   3.472  10.305   1.057
27815SOL    HW285278   3.578  10.198   1.046
27816SOL     OW85279  13.268  13.905   5.459
27816SOL    HW185280  13.249  13.996   5.437
27816SOL    HW285281  13.345  13.909   5.516
27817SOL     OW85282   0.099   2.845  14.692
27817SOL    HW185283   0.106   2.752  14.712
27817SOL    HW285284   0.160   2.888  14.751
27818SOL     OW85285   6.733   1.817   3.181
27818SOL    HW185286   6.719   1.785   3.091
27818SOL    HW285287   6.747   1.911   3.171
27819SOL     OW85288   6.182   8.966   7.694
27819SOL    HW185289   6.116   9.016   7.743
27819SOL    HW285290   6.264   8.981   7.742
27820SOL     OW85291   4.073  10.466  10.687
27820SOL    HW185292   4.088  10.548  10.732
27820SOL    HW285293   4.125  10.472  10.607
27821SOL     OW85294  10.378   1.036  10.761
27821SOL    HW185295  10.387   1.041  10.666
27821SOL    HW285296  10.283   1.031  10.776
27822SOL     OW85297  11.726   9.893  13.003
27822SOL    HW185298  11.758   9.973  13.044
27822SOL    HW285299  11.805   9.844  12.981
27823SOL     OW85300   7.846   9.036   8.540
27823SOL    HW185301   7.879   9.014   8.452
27823SOL    HW285302   7.851   8.954   8.589
27824SOL     OW85303   1.423  14.639   6.581
27824SOL    HW185304   1.481  14.623   6.656
27824SOL    HW285305   1.443  14.728   6.554
27825SOL     OW85306   1.990  13.710   9.737
27825SOL    HW185307   1.915  13.693   9.680
27825SOL    HW285308   1.952  13.722   9.824
27826SOL     OW85309   3.552   8.539  13.605
27826SOL    HW185310   3.478   8.504  13.654
27826SOL    HW285311   3.629   8.505  13.651
27827SOL     OW85312   0.532  13.981   2.304
27827SOL    HW185313   0.562  14.071   2.316
27827SOL    HW285314   0.599  13.927   2.345
27828SOL     OW85315   6.463   5.971   7.225
27828SOL    HW185316   6.427   5.896   7.178
27828SOL    HW285317   6.553   5.978   7.195
27829SOL     OW85318   2.792   3.280  11.119
27829SOL    HW185319   2.819   3.253  11.207
27829SOL    HW285320   2.744   3.362  11.133
27830SOL     OW85321   5.482   6.903   3.671
27830SOL    HW185322   5.497   6.931   3.580
27830SOL    HW285323   5.488   6.984   3.722
27831SOL     OW85324  12.394   4.869  10.337
27831SOL    HW185325  12.438   4.943  10.296
27831SOL    HW285326  12.465   4.811  10.365
27832SOL     OW85327   8.270   2.491  13.776
27832SOL    HW185328   8.281   2.586  13.785
27832SOL    HW285329   8.326   2.468  13.702
27833SOL     OW85330   2.348   1.200   0.638
27833SOL    HW185331   2.387   1.281   0.604
27833SOL    HW285332   2.311   1.226   0.722
27834SOL     OW85333   7.841   7.525   5.734
27834SOL    HW185334   7.925   7.543   5.692
27834SOL    HW285335   7.840   7.430   5.744
27835SOL     OW85336   0.587  10.190   2.652
27835SOL    HW185337   0.494  10.170   2.651
27835SOL    HW285338   0.591  10.284   2.638
27836SOL     OW85339   2.220   4.103   5.705
27836SOL    HW185340   2.195   4.093   5.614
27836SOL    HW285341   2.190   4.023   5.748
27837SOL     OW85342   0.754   9.268  12.331
27837SOL    HW185343   0.836   9.318  12.340
27837SOL    HW285344   0.778   9.192  12.278
27838SOL     OW85345   1.597   5.571   9.882
27838SOL    HW185346   1.552   5.488   9.901
27838SOL    HW285347   1.533   5.639   9.901
27839SOL     OW85348  12.264  12.785   5.818
27839SOL    HW185349  12.202  12.774   5.890
27839SOL    HW285350  12.264  12.879   5.801
27840SOL     OW85351   3.733   9.120  14.557
27840SOL    HW185352   3.803   9.059  14.582
27840SOL    HW285353   3.769   9.206  14.576
27841SOL     OW85354  11.223   1.724   5.563
27841SOL    HW185355  11.260   1.660   5.502
27841SOL    HW285356  11.238   1.687   5.649
27842SOL     OW85357  12.697   9.914   2.149
27842SOL    HW185358  12.638   9.912   2.073
27842SOL    HW285359  12.767   9.973   2.123
27843SOL     OW85360   9.503  13.144   4.976
27843SOL    HW185361   9.426  13.191   4.944
27843SOL    HW285362   9.473  13.054   4.985
27844SOL     OW85363  12.127   0.454  12.418
27844SOL    HW185364  12.143   0.366  12.452
27844SOL    HW285365  12.191   0.465  12.348
27845SOL     OW85366  13.654   0.183   4.802
27845SOL    HW185367  13.687   0.257   4.854
27845SOL    HW285368  13.731   0.152   4.754
27846SOL     OW85369  11.647   5.724  14.179
27846SOL    HW185370  11.716   5.733  14.113
27846SOL    HW285371  11.687   5.754  14.260
27847SOL     OW85372   4.987  13.006  13.487
27847SOL    HW185373   4.919  12.953  13.530
27847SOL    HW285374   4.938  13.066  13.430
27848SOL     OW85375  12.157   4.975  13.841
27848SOL    HW185376  12.097   4.963  13.914
27848SOL    HW285377  12.125   4.916  13.773
27849SOL     OW85378  13.293  11.781   0.731
27849SOL    HW185379  13.286  11.703   0.787
27849SOL    HW285380  13.220  11.773   0.670
27850SOL     OW85381   0.374   3.464   1.540
27850SOL    HW185382   0.366   3.533   1.474
27850SOL    HW285383   0.444   3.408   1.507
27851SOL     OW85384   2.764   5.563  12.569
27851SOL    HW185385   2.805   5.559  12.482
27851SOL    HW285386   2.824   5.515  12.626
27852SOL     OW85387  11.787   9.497   3.677
27852SOL    HW185388  11.693   9.504   3.694
27852SOL    HW285389  11.804   9.559   3.607
27853SOL     OW85390   7.105   6.322   6.249
27853SOL    HW185391   7.056   6.247   6.283
27853SOL    HW285392   7.193   6.312   6.286
27854SOL     OW85393   7.899   6.333   5.226
27854SOL    HW185394   7.876   6.421   5.254
27854SOL    HW285395   7.830   6.278   5.262
27855SOL     OW85396   2.578   1.277   9.092
27855SOL    HW185397   2.484   1.260   9.083
27855SOL    HW285398   2.601   1.238   9.176
27856SOL     OW85399   8.311   7.663   4.878
27856SOL    HW185400   8.229   7.643   4.923
27856SOL    HW285401   8.289   7.733   4.817
27857SOL     OW85402   3.195   4.494   0.577
27857SOL    HW185403   3.122   4.501   0.516
27857SOL    HW285404   3.179   4.562   0.642
27858SOL     OW85405   5.786   5.482  14.093
27858SOL    HW185406   5.694   5.496  14.068
27858SOL    HW285407   5.815   5.411  14.036
27859SOL     OW85408   1.440   3.718  11.562
27859SOL    HW185409   1.409   3.628  11.550
27859SOL    HW285410   1.501   3.713  11.636
27860SOL     OW85411   3.550   5.575   9.385
27860SOL    HW185412   3.577   5.545   9.298
27860SOL    HW285413   3.592   5.661   9.395
27861SOL     OW85414   3.437   2.776   0.970
27861SOL    HW185415   3.428   2.726   0.889
27861SOL    HW285416   3.354   2.823   0.978
27862SOL     OW85417  11.892  11.976  10.799
27862SOL    HW185418  11.942  12.032  10.739
27862SOL    HW285419  11.852  12.037  10.861
27863SOL     OW85420   8.142  14.867   3.033
27863SOL    HW185421   8.204  14.868   2.960
27863SOL    HW285422   8.195   0.016   3.109
27864SOL     OW85423   9.525  12.926   9.242
27864SOL    HW185424   9.438  12.967   9.243
27864SOL    HW285425   9.535  12.895   9.152
27865SOL     OW85426   9.468  12.500   8.901
27865SOL    HW185427   9.557  12.528   8.920
27865SOL    HW285428   9.454  12.424   8.957
27866SOL     OW85429  11.823   5.552   4.251
27866SOL    HW185430  11.828   5.588   4.162
27866SOL    HW285431  11.893   5.596   4.299
27867SOL     OW85432  13.611   4.592   2.081
27867SOL    HW185433  13.600   4.614   2.173
27867SOL    HW285434  13.610   4.496   2.078
27868SOL     OW85435   5.768  14.559   2.650
27868SOL    HW185436   5.715  14.489   2.613
27868SOL    HW285437   5.723  14.582   2.732
27869SOL     OW85438   7.794   1.768   2.798
27869SOL    HW185439   7.734   1.800   2.731
27869SOL    HW285440   7.782   1.673   2.799
27870SOL     OW85441  10.750   2.440   0.824
27870SOL    HW185442  10.696   2.463   0.900
27870SOL    HW285443  10.800   2.519   0.806
27871SOL     OW85444   1.769  11.152   5.944
27871SOL    HW185445   1.683  11.158   5.903
27871SOL    HW285446   1.790  11.242   5.970
27872SOL     OW85447   0.136   0.858   1.677
27872SOL    HW185448   0.063   0.881   1.735
27872SOL    HW285449   0.107   0.778   1.633
27873SOL     OW85450   1.962   8.487   7.189
27873SOL    HW185451   1.905   8.555   7.226
27873SOL    HW285452   1.951   8.496   7.094
27874SOL     OW85453   6.816  12.132   3.332
27874SOL    HW185454   6.808  12.216   3.286
27874SOL    HW285455   6.907  12.131   3.363
27875SOL     OW85456  14.605  10.634   3.782
27875SOL    HW185457  14.660  10.562   3.750
27875SOL    HW285458  14.559  10.597   3.857
27876SOL     OW85459   5.661  10.871  13.534
27876SOL    HW185460   5.683  10.802  13.471
27876SOL    HW285461   5.720  10.943  13.512
27877SOL     OW85462   5.274   0.906   6.685
27877SOL    HW185463   5.364   0.882   6.664
27877SOL    HW285464   5.265   0.886   6.778
27878SOL     OW85465  10.606   2.668   4.014
27878SOL    HW185466  10.620   2.594   3.955
27878SOL    HW285467  10.619   2.631   4.102
27879SOL     OW85468   2.071   7.246   4.408
27879SOL    HW185469   2.087   7.155   4.431
27879SOL    HW285470   2.152   7.275   4.366
27880SOL     OW85471   2.632   0.540  10.194
27880SOL    HW185472   2.622   0.477  10.123
27880SOL    HW285473   2.590   0.620  10.161
27881SOL     OW85474   6.553   4.994   1.633
27881SOL    HW185475   6.514   4.920   1.680
27881SOL    HW285476   6.625   5.022   1.689
27882SOL     OW85477   8.153   5.301   6.378
27882SOL    HW185478   8.241   5.335   6.395
27882SOL    HW285479   8.144   5.227   6.438
27883SOL     OW85480   6.355   5.293  14.829
27883SOL    HW185481   6.312   5.377  14.811
27883SOL    HW285482   6.336   5.276   0.045
27884SOL     OW85483  13.482   2.068   7.154
27884SOL    HW185484  13.422   1.994   7.147
27884SOL    HW285485  13.463   2.106   7.239
27885SOL     OW85486  11.708  10.372   0.730
27885SOL    HW185487  11.677  10.442   0.789
27885SOL    HW285488  11.712  10.414   0.644
27886SOL     OW85489   1.581   8.944   8.596
27886SOL    HW185490   1.542   8.985   8.519
27886SOL    HW285491   1.618   9.017   8.646
27887SOL     OW85492  12.847   3.604   9.210
27887SOL    HW185493  12.774   3.580   9.153
27887SOL    HW285494  12.816   3.681   9.258
27888SOL     OW85495   1.099  10.334   9.792
27888SOL    HW185496   1.015  10.319   9.747
27888SOL    HW285497   1.078  10.395   9.862
27889SOL     OW85498   9.016   3.293   4.464
27889SOL    HW185499   9.007   3.285   4.369
27889SOL    HW285500   8.928   3.273   4.498
27890SOL     OW85501   7.833   5.435   3.583
27890SOL    HW185502   7.765   5.494   3.615
27890SOL    HW285503   7.915   5.479   3.606
27891SOL     OW85504  11.216   2.164   2.784
27891SOL    HW185505  11.141   2.210   2.748
27891SOL    HW285506  11.181   2.080   2.814
27892SOL     OW85507   9.588   9.666  10.319
27892SOL    HW185508   9.658   9.601  10.307
27892SOL    HW285509   9.611   9.737  10.260
27893SOL     OW85510   1.071   6.393   6.022
27893SOL    HW185511   1.093   6.302   5.998
27893SOL    HW285512   1.142   6.420   6.081
27894SOL     OW85513   8.471   6.374   3.701
27894SOL    HW185514   8.387   6.413   3.728
27894SOL    HW285515   8.488   6.411   3.614
27895SOL     OW85516   9.986   3.104   7.715
27895SOL    HW185517   9.979   3.145   7.629
27895SOL    HW285518  10.030   3.169   7.769
27896SOL     OW85519   4.685   9.965  14.201
27896SOL    HW185520   4.710   9.927  14.286
27896SOL    HW285521   4.766   9.999  14.165
27897SOL     OW85522   0.349   9.806  12.424
27897SOL    HW185523   0.382   9.819  12.335
27897SOL    HW285524   0.421   9.763  12.470
27898SOL     OW85525  11.882   5.702   5.026
27898SOL    HW185526  11.888   5.777   4.967
27898SOL    HW285527  11.930   5.730   5.104
27899SOL     OW85528   0.062   8.604   5.063
27899SOL    HW185529   0.060   8.643   4.976
27899SOL    HW285530   0.155   8.590   5.081
27900SOL     OW85531  11.314  10.394   9.444
27900SOL    HW185532  11.381  10.341   9.400
27900SOL    HW285533  11.261  10.330   9.491
27901SOL     OW85534   5.116   8.410  12.394
27901SOL    HW185535   5.098   8.349  12.466
27901SOL    HW285536   5.096   8.360  12.315
27902SOL     OW85537   3.975   7.887  11.629
27902SOL    HW185538   3.884   7.861  11.613
27902SOL    HW285539   4.019   7.875  11.545
27903SOL     OW85540   8.050   7.248   6.282
27903SOL    HW185541   8.077   7.257   6.373
27903SOL    HW285542   7.971   7.193   6.286
27904SOL     OW85543   4.677   0.323  13.717
27904SOL    HW185544   4.695   0.284  13.803
27904SOL    HW285545   4.597   0.281  13.687
27905SOL     OW85546  14.354   6.920   3.070
27905SOL    HW185547  14.298   6.842   3.074
27905SOL    HW285548  14.294   6.993   3.056
27906SOL     OW85549  10.470   3.497   2.397
27906SOL    HW185550  10.496   3.548   2.320
27906SOL    HW285551  10.396   3.545   2.434
27907SOL     OW85552   4.361   0.057   6.268
27907SOL    HW185553   4.280   0.018   6.234
27907SOL    HW285554   4.338   0.088   6.356
27908SOL     OW85555   3.704   9.869  13.578
27908SOL    HW185556   3.753   9.886  13.498
27908SOL    HW285557   3.687   9.775  13.578
27909SOL     OW85558  12.982   9.440  12.721
27909SOL    HW185559  12.985   9.457  12.627
27909SOL    HW285560  12.966   9.345  12.727
27910SOL     OW85561  10.638   7.344   4.600
27910SOL    HW185562  10.586   7.367   4.677
27910SOL    HW285563  10.610   7.406   4.532
27911SOL     OW85564   9.104   9.421   1.095
27911SOL    HW185565   9.108   9.409   1.001
27911SOL    HW285566   9.112   9.333   1.131
27912SOL     OW85567   3.196   3.096  10.738
27912SOL    HW185568   3.148   3.156  10.796
27912SOL    HW285569   3.246   3.040  10.797
27913SOL     OW85570  13.294  10.697  11.489
27913SOL    HW185571  13.255  10.666  11.407
27913SOL    HW285572  13.356  10.765  11.461
27914SOL     OW85573   1.961  12.293   8.493
27914SOL    HW185574   1.925  12.214   8.531
27914SOL    HW285575   2.001  12.264   8.411
27915SOL     OW85576  10.501   0.654  10.263
27915SOL    HW185577  10.510   0.614  10.176
27915SOL    HW285578  10.412   0.633  10.290
27916SOL     OW85579   0.557  10.791   9.221
27916SOL    HW185580   0.556  10.812   9.128
27916SOL    HW285581   0.531  10.872   9.265
27917SOL     OW85582  12.359   8.626   4.001
27917SOL    HW185583  12.313   8.667   4.074
27917SOL    HW285584  12.320   8.666   3.923
27918SOL     OW85585   4.672   9.671   4.659
27918SOL    HW185586   4.749   9.699   4.708
27918SOL    HW285587   4.680   9.575   4.655
27919SOL     OW85588  11.332   7.484   8.537
27919SOL    HW185589  11.303   7.400   8.500
27919SOL    HW285590  11.300   7.482   8.627
27920SOL     OW85591  12.612   3.820   7.430
27920SOL    HW185592  12.580   3.759   7.364
27920SOL    HW285593  12.708   3.813   7.426
27921SOL     OW85594   3.958   7.559   8.260
27921SOL    HW185595   3.869   7.528   8.273
27921SOL    HW285596   4.009   7.514   8.328
27922SOL     OW85597   0.900  10.349   7.723
27922SOL    HW185598   0.857  10.406   7.787
27922SOL    HW285599   0.993  10.368   7.733
27923SOL     OW85600  12.699   4.520  14.558
27923SOL    HW185601  12.775   4.476  14.595
27923SOL    HW285602  12.735   4.593  14.508
27924SOL     OW85603  14.729  12.799   9.717
27924SOL    HW185604  14.726  12.706   9.695
27924SOL    HW285605  14.675  12.842   9.651
27925SOL     OW85606   0.690  14.682   2.536
27925SOL    HW185607   0.624  14.724   2.481
27925SOL    HW285608   0.774  14.706   2.497
27926SOL     OW85609   5.273   9.605   3.080
27926SOL    HW185610   5.365   9.579   3.074
27926SOL    HW285611   5.252   9.600   3.173
27927SOL     OW85612   8.047   3.564  14.787
27927SOL    HW185613   7.980   3.546  14.720
27927SOL    HW285614   7.998   3.579  14.867
27928SOL     OW85615   2.002   8.443   6.098
27928SOL    HW185616   2.038   8.384   6.031
27928SOL    HW285617   2.069   8.445   6.166
27929SOL     OW85618   5.426   4.516  10.668
27929SOL    HW185619   5.349   4.552  10.711
27929SOL    HW285620   5.391   4.471  10.591
27930SOL     OW85621  12.271   9.854  13.265
27930SOL    HW185622  12.265   9.935  13.315
27930SOL    HW285623  12.226   9.872  13.182
27931SOL     OW85624  11.599   8.768   2.972
27931SOL    HW185625  11.543   8.691   2.963
27931SOL    HW285626  11.576   8.823   2.897
27932SOL     OW85627  13.265   8.862  12.338
27932SOL    HW185628  13.270   8.769  12.314
27932SOL    HW285629  13.246   8.861  12.432
27933SOL     OW85630  13.805  13.863   6.634
27933SOL    HW185631  13.832  13.774   6.658
27933SOL    HW285632  13.789  13.859   6.539
27934SOL     OW85633   9.896   3.990   3.430
27934SOL    HW185634   9.917   3.930   3.358
27934SOL    HW285635   9.847   3.936   3.492
27935SOL     OW85636   1.242   1.831   8.866
27935SOL    HW185637   1.214   1.863   8.780
27935SOL    HW285638   1.208   1.895   8.928
27936SOL     OW85639   7.653   9.904   7.945
27936SOL    HW185640   7.564   9.935   7.929
27936SOL    HW285641   7.647   9.854   8.026
27937SOL     OW85642   7.918   2.772  12.971
27937SOL    HW185643   7.864   2.722  12.910
27937SOL    HW285644   7.968   2.705  13.019
27938SOL     OW85645   3.997  10.652   5.552
27938SOL    HW185646   3.931  10.583   5.541
27938SOL    HW285647   3.946  10.733   5.554
27939SOL     OW85648   6.724   2.649  13.002
27939SOL    HW185649   6.716   2.565  13.049
27939SOL    HW285650   6.654   2.703  13.037
27940SOL     OW85651  12.096   4.349   0.556
27940SOL    HW185652  12.066   4.350   0.465
27940SOL    HW285653  12.153   4.425   0.563
27941SOL     OW85654  10.940   3.189   6.688
27941SOL    HW185655  10.862   3.212   6.739
27941SOL    HW285656  10.975   3.272   6.657
27942SOL     OW85657   9.508  12.024  12.007
27942SOL    HW185658   9.507  11.968  12.084
27942SOL    HW285659   9.456  12.101  12.031
27943SOL     OW85660  14.173  10.148   7.852
27943SOL    HW185661  14.206  10.058   7.848
27943SOL    HW285662  14.181  10.180   7.762
27944SOL     OW85663   8.418   0.709   2.442
27944SOL    HW185664   8.360   0.705   2.518
27944SOL    HW285665   8.381   0.647   2.379
27945SOL     OW85666  13.272   0.746  12.611
27945SOL    HW185667  13.301   0.837  12.603
27945SOL    HW285668  13.188   0.744  12.565
27946SOL     OW85669   5.448   2.214   7.998
27946SOL    HW185670   5.413   2.291   7.953
27946SOL    HW285671   5.411   2.219   8.086
27947SOL     OW85672   4.433  11.456   5.004
27947SOL    HW185673   4.379  11.406   4.943
27947SOL    HW285674   4.518  11.411   5.004
27948SOL     OW85675   0.475   6.780   1.620
27948SOL    HW185676   0.486   6.873   1.640
27948SOL    HW285677   0.533   6.736   1.683
27949SOL     OW85678   0.381   1.342   4.851
27949SOL    HW185679   0.354   1.434   4.850
27949SOL    HW285680   0.378   1.318   4.944
27950SOL     OW85681   3.698  11.168   0.239
27950SOL    HW185682   3.631  11.107   0.270
27950SOL    HW285683   3.780  11.123   0.256
27951SOL     OW85684   5.870   8.997  12.443
27951SOL    HW185685   5.914   8.941  12.379
27951SOL    HW285686   5.798   8.945  12.476
27952SOL     OW85687   9.993   2.014   2.038
27952SOL    HW185688   9.950   1.984   2.118
27952SOL    HW285689   9.957   1.958   1.969
27953SOL     OW85690   9.153   6.999   0.337
27953SOL    HW185691   9.111   6.929   0.385
27953SOL    HW285692   9.081   7.049   0.298
27954SOL     OW85693   8.095   8.440   4.003
27954SOL    HW185694   8.128   8.440   3.913
27954SOL    HW285695   8.028   8.508   4.005
27955SOL     OW85696  13.713   0.770   0.295
27955SOL    HW185697  13.792   0.718   0.294
27955SOL    HW285698  13.692   0.786   0.203
27956SOL     OW85699   0.253   8.026   1.665
27956SOL    HW185700   0.302   8.099   1.626
27956SOL    HW285701   0.213   8.064   1.743
27957SOL     OW85702   3.518   7.922  13.896
27957SOL    HW185703   3.456   7.971  13.843
27957SOL    HW285704   3.595   7.979  13.901
27958SOL     OW85705   8.247  11.560  12.847
27958SOL    HW185706   8.176  11.570  12.910
27958SOL    HW285707   8.230  11.626  12.780
27959SOL     OW85708   9.162   2.069   1.998
27959SOL    HW185709   9.219   1.992   2.003
27959SOL    HW285710   9.140   2.077   1.905
27960SOL     OW85711   5.964  10.924   6.191
27960SOL    HW185712   5.928  10.856   6.247
27960SOL    HW285713   5.939  11.006   6.233
27961SOL     OW85714   1.994   4.244  10.819
27961SOL    HW185715   1.977   4.168  10.875
27961SOL    HW285716   1.907   4.277  10.796
27962SOL     OW85717   9.591   0.816  12.675
27962SOL    HW185718   9.680   0.808  12.708
27962SOL    HW285719   9.538   0.763  12.734
27963SOL     OW85720   6.177   7.695  14.570
27963SOL    HW185721   6.242   7.648  14.622
27963SOL    HW285722   6.128   7.747  14.634
27964SOL     OW85723  12.450   7.302   5.917
27964SOL    HW185724  12.370   7.299   5.865
27964SOL    HW285725  12.450   7.220   5.966
27965SOL     OW85726  12.270   3.389  12.672
27965SOL    HW185727  12.287   3.459  12.608
27965SOL    HW285728  12.342   3.327  12.659
27966SOL     OW85729   3.589   0.740   5.887
27966SOL    HW185730   3.577   0.787   5.804
27966SOL    HW285731   3.502   0.704   5.906
27967SOL     OW85732   1.181   9.118   4.411
27967SOL    HW185733   1.146   9.159   4.490
27967SOL    HW285734   1.147   9.173   4.340
27968SOL     OW85735  11.494  12.339   5.629
27968SOL    HW185736  11.552  12.373   5.561
27968SOL    HW285737  11.410  12.381   5.612
27969SOL     OW85738   6.457   9.957  11.477
27969SOL    HW185739   6.444   9.962  11.572
27969SOL    HW285740   6.387   9.900  11.446
27970SOL     OW85741   0.544   4.247   9.917
27970SOL    HW185742   0.566   4.337   9.940
27970SOL    HW285743   0.489   4.255   9.839
27971SOL     OW85744   5.990  10.537   3.440
27971SOL    HW185745   5.954  10.493   3.363
27971SOL    HW285746   5.968  10.479   3.513
27972SOL     OW85747  10.756   8.126  14.719
27972SOL    HW185748  10.816   8.115  14.646
27972SOL    HW285749  10.742   8.220  14.725
27973SOL     OW85750   8.812  14.554   1.519
27973SOL    HW185751   8.885  14.497   1.541
27973SOL    HW285752   8.844  14.642   1.535
27974SOL     OW85753   9.283   0.092  14.470
27974SOL    HW185754   9.370   0.109  14.435
27974SOL    HW285755   9.227   0.157  14.427
27975SOL     OW85756   2.574   1.478   7.050
27975SOL    HW185757   2.588   1.384   7.041
27975SOL    HW285758   2.606   1.516   6.968
27976SOL     OW85759   4.219   2.710  12.259
27976SOL    HW185760   4.164   2.774  12.304
27976SOL    HW285761   4.268   2.761  12.195
27977SOL     OW85762  11.458   1.845  12.745
27977SOL    HW185763  11.397   1.836  12.818
27977SOL    HW285764  11.526   1.780  12.762
27978SOL     OW85765  10.218   4.060   7.792
27978SOL    HW185766  10.301   4.093   7.824
27978SOL    HW285767  10.192   3.993   7.855
27979SOL     OW85768   1.128   9.008  12.381
27979SOL    HW185769   1.036   9.027  12.366
27979SOL    HW285770   1.158   8.967  12.300
27980SOL     OW85771  12.511   6.334   4.252
27980SOL    HW185772  12.483   6.424   4.232
27980SOL    HW285773  12.606   6.342   4.262
27981SOL     OW85774   1.371   2.716  13.896
27981SOL    HW185775   1.426   2.689  13.969
27981SOL    HW285776   1.431   2.760  13.836
27982SOL     OW85777  13.124   1.464   9.755
27982SOL    HW185778  13.204   1.514   9.769
27982SOL    HW285779  13.104   1.427   9.841
27983SOL     OW85780   8.703   4.794   8.393
27983SOL    HW185781   8.651   4.747   8.327
27983SOL    HW285782   8.746   4.864   8.344
27984SOL     OW85783   8.194   3.892   3.932
27984SOL    HW185784   8.122   3.943   3.895
27984SOL    HW285785   8.195   3.811   3.880
27985SOL     OW85786  14.725  10.468  12.042
27985SOL    HW185787  14.674  10.426  12.111
27985SOL    HW285788  14.660  10.497  11.978
27986SOL     OW85789  13.807  10.750   2.847
27986SOL    HW185790  13.745  10.678   2.858
27986SOL    HW285791  13.786  10.787   2.761
27987SOL     OW85792   3.720  14.649   1.124
27987SOL    HW185793   3.742  14.558   1.101
27987SOL    HW285794   3.729  14.652   1.219
27988SOL     OW85795  12.816   3.425   3.615
27988SOL    HW185796  12.899   3.463   3.644
27988SOL    HW285797  12.750   3.466   3.670
27989SOL     OW85798  13.530   6.726   8.950
27989SOL    HW185799  13.549   6.635   8.926
27989SOL    HW285800  13.486   6.762   8.873
27990SOL     OW85801   3.488   7.646   4.191
27990SOL    HW185802   3.412   7.589   4.205
27990SOL    HW285803   3.558   7.585   4.166
27991SOL     OW85804  13.377   8.291   1.177
27991SOL    HW185805  13.360   8.334   1.093
27991SOL    HW285806  13.422   8.358   1.229
27992SOL     OW85807   1.855  14.365   3.880
27992SOL    HW185808   1.898  14.296   3.830
27992SOL    HW285809   1.762  14.341   3.881
27993SOL     OW85810   4.010   7.503   4.196
27993SOL    HW185811   3.951   7.560   4.147
27993SOL    HW285812   4.016   7.543   4.283
27994SOL     OW85813   2.795   4.271   2.823
27994SOL    HW185814   2.829   4.250   2.736
27994SOL    HW285815   2.704   4.243   2.821
27995SOL     OW85816  10.413  11.874   6.220
27995SOL    HW185817  10.360  11.795   6.224
27995SOL    HW285818  10.500  11.844   6.196
27996SOL     OW85819  13.458  10.448   3.816
27996SOL    HW185820  13.456  10.542   3.834
27996SOL    HW285821  13.505  10.440   3.733
27997SOL     OW85822   7.166   0.231   5.500
27997SOL    HW185823   7.146   0.172   5.573
27997SOL    HW285824   7.085   0.280   5.487
27998SOL     OW85825  11.361   1.389   7.442
27998SOL    HW185826  11.333   1.419   7.529
27998SOL    HW285827  11.380   1.296   7.454
27999SOL     OW85828   5.441   1.233   2.842
27999SOL    HW185829   5.487   1.151   2.825
27999SOL    HW285830   5.495   1.278   2.907
28000SOL     OW85831   5.491   2.352   3.573
28000SOL    HW185832   5.530   2.366   3.660
28000SOL    HW285833   5.407   2.398   3.577
28001SOL     OW85834   0.484   6.393   5.317
28001SOL    HW185835   0.399   6.389   5.359
28001SOL    HW285836   0.469   6.442   5.236
28002SOL     OW85837  12.174   5.325  14.734
28002SOL    HW185838  12.193   5.240  14.695
28002SOL    HW285839  12.157   5.382  14.659
28003SOL     OW85840   1.390   4.390  14.848
28003SOL    HW185841   1.393   4.396  14.753
28003SOL    HW285842   1.300   4.366  14.868
28004SOL     OW85843   1.570  12.410   1.518
28004SOL    HW185844   1.479  12.395   1.491
28004SOL    HW285845   1.575  12.373   1.606
28005SOL     OW85846  11.556   3.973  11.928
28005SOL    HW185847  11.577   4.055  11.972
28005SOL    HW285848  11.460   3.973  11.922
28006SOL     OW85849  11.079   5.295   2.128
28006SOL    HW185850  11.022   5.276   2.054
28006SOL    HW285851  11.144   5.357   2.093
28007SOL     OW85852   2.757  11.540  11.193
28007SOL    HW185853   2.834  11.570  11.242
28007SOL    HW285854   2.703  11.618  11.182
28008SOL     OW85855  13.672   6.701  13.239
28008SOL    HW185856  13.727   6.670  13.167
28008SOL    HW285857  13.703   6.652  13.316
28009SOL     OW85858   4.472   8.142   6.834
28009SOL    HW185859   4.502   8.233   6.837
28009SOL    HW285860   4.544   8.093   6.874
28010SOL     OW85861  14.223   2.717   8.964
28010SOL    HW185862  14.175   2.654   8.910
28010SOL    HW285863  14.155   2.764   9.012
28011SOL     OW85864   1.129   9.853  14.157
28011SOL    HW185865   1.116   9.947  14.142
28011SOL    HW285866   1.078   9.834  14.236
28012SOL     OW85867   7.385   9.738   1.026
28012SOL    HW185868   7.388   9.820   1.075
28012SOL    HW285869   7.423   9.673   1.086
28013SOL     OW85870  11.612  13.930  14.236
28013SOL    HW185871  11.576  14.019  14.242
28013SOL    HW285872  11.595  13.892  14.322
28014SOL     OW85873  10.818   4.633   2.772
28014SOL    HW185874  10.824   4.722   2.807
28014SOL    HW285875  10.908   4.610   2.749
28015SOL     OW85876   9.292   9.344   1.500
28015SOL    HW185877   9.368   9.309   1.453
28015SOL    HW285878   9.322   9.429   1.533
28016SOL     OW85879   8.085  14.518   8.048
28016SOL    HW185880   8.031  14.513   8.127
28016SOL    HW285881   8.096  14.427   8.021
28017SOL     OW85882   3.902   5.942   9.866
28017SOL    HW185883   3.888   5.847   9.873
28017SOL    HW285884   3.996   5.953   9.876
28018SOL     OW85885  11.260   0.645   5.302
28018SOL    HW185886  11.201   0.594   5.356
28018SOL    HW285887  11.204   0.711   5.260
28019SOL     OW85888   8.142   3.636   4.141
28019SOL    HW185889   8.167   3.617   4.050
28019SOL    HW285890   8.217   3.682   4.178
28020SOL     OW85891   0.202   7.723   7.972
28020SOL    HW185892   0.205   7.778   7.894
28020SOL    HW285893   0.290   7.729   8.009
28021SOL     OW85894   3.797   1.518  10.288
28021SOL    HW185895   3.839   1.527  10.202
28021SOL    HW285896   3.838   1.586  10.342
28022SOL     OW85897   0.998   0.359  13.189
28022SOL    HW185898   0.917   0.308  13.194
28022SOL    HW285899   0.989   0.408  13.108
28023SOL     OW85900   2.614   3.841  11.819
28023SOL    HW185901   2.561   3.905  11.771
28023SOL    HW285902   2.558   3.763  11.825
28024SOL     OW85903  10.151   2.458   6.416
28024SOL    HW185904  10.096   2.446   6.339
28024SOL    HW285905  10.100   2.420   6.488
28025SOL     OW85906  13.237  14.565   3.420
28025SOL    HW185907  13.252  14.546   3.513
28025SOL    HW285908  13.200  14.484   3.385
28026SOL     OW85909   8.942  14.437   7.755
28026SOL    HW185910   9.024  14.401   7.788
28026SOL    HW285911   8.878  14.420   7.825
28027SOL     OW85912   8.501  14.755   1.487
28027SOL    HW185913   8.511  14.850   1.484
28027SOL    HW285914   8.407  14.741   1.476
28028SOL     OW85915   3.374   0.790  11.024
28028SOL    HW185916   3.348   0.795  10.932
28028SOL    HW285917   3.302   0.743  11.066
28029SOL     OW85918  11.469   6.519   0.486
28029SOL    HW185919  11.525   6.594   0.506
28029SOL    HW285920  11.403   6.554   0.425
28030SOL     OW85921  10.463   8.061  10.147
28030SOL    HW185922  10.441   8.007  10.224
28030SOL    HW285923  10.442   8.005  10.072
28031SOL     OW85924  14.348   1.988  13.079
28031SOL    HW185925  14.403   2.033  13.015
28031SOL    HW285926  14.409   1.959  13.147
28032SOL     OW85927  13.121   8.577   8.959
28032SOL    HW185928  13.177   8.642   8.918
28032SOL    HW285929  13.088   8.620   9.038
28033SOL     OW85930   4.743   6.813  11.655
28033SOL    HW185931   4.648   6.800  11.661
28033SOL    HW285932   4.753   6.879  11.586
28034SOL     OW85933   9.740   7.212  10.078
28034SOL    HW185934   9.692   7.188  10.157
28034SOL    HW285935   9.819   7.159  10.081
28035SOL     OW85936  10.284   3.874   7.594
28035SOL    HW185937  10.246   3.919   7.670
28035SOL    HW285938  10.303   3.944   7.532
28036SOL     OW85939  12.167  13.505   9.434
28036SOL    HW185940  12.142  13.595   9.414
28036SOL    HW285941  12.165  13.500   9.530
28037SOL     OW85942  13.152  10.934   0.005
28037SOL    HW185943  13.153  11.030   0.011
28037SOL    HW285944  13.125  10.916  14.791
28038SOL     OW85945   7.359  10.245  12.668
28038SOL    HW185946   7.334  10.154  12.654
28038SOL    HW285947   7.312  10.272  12.747
28039SOL     OW85948   9.332   7.281   6.847
28039SOL    HW185949   9.393   7.220   6.889
28039SOL    HW285950   9.383   7.318   6.774
28040SOL     OW85951  14.110   1.765  12.980
28040SOL    HW185952  14.179   1.831  12.976
28040SOL    HW285953  14.088   1.749  12.888
28041SOL     OW85954   1.226   2.111  12.449
28041SOL    HW185955   1.309   2.147  12.481
28041SOL    HW285956   1.162   2.136  12.516
28042SOL     OW85957   2.279   5.795   3.642
28042SOL    HW185958   2.365   5.836   3.634
28042SOL    HW285959   2.219   5.869   3.654
28043SOL     OW85960   9.540   7.449  12.232
28043SOL    HW185961   9.625   7.408  12.251
28043SOL    HW285962   9.484   7.377  12.204
28044SOL     OW85963   2.511   6.188   5.980
28044SOL    HW185964   2.494   6.175   5.886
28044SOL    HW285965   2.600   6.154   5.993
28045SOL     OW85966   7.995   9.673   2.971
28045SOL    HW185967   7.948   9.756   2.956
28045SOL    HW285968   8.008   9.637   2.883
28046SOL     OW85969   0.314   1.566  11.510
28046SOL    HW185970   0.279   1.630  11.572
28046SOL    HW285971   0.363   1.504  11.564
28047SOL     OW85972  12.870   7.884   1.159
28047SOL    HW185973  12.925   7.957   1.130
28047SOL    HW285974  12.834   7.847   1.078
28048SOL     OW85975   1.614   7.166   5.207
28048SOL    HW185976   1.697   7.126   5.181
28048SOL    HW285977   1.565   7.095   5.247
28049SOL     OW85978   2.730   3.606  10.778
28049SOL    HW185979   2.744   3.689  10.824
28049SOL    HW285980   2.807   3.597  10.722
28050SOL     OW85981   7.792   9.118   1.098
28050SOL    HW185982   7.738   9.073   1.163
28050SOL    HW285983   7.757   9.207   1.095
28051SOL     OW85984   1.304   6.383   8.648
28051SOL    HW185985   1.227   6.346   8.693
28051SOL    HW285986   1.345   6.309   8.604
28052SOL     OW85987   0.907  12.560   4.945
28052SOL    HW185988   0.992  12.565   4.990
28052SOL    HW285989   0.847  12.608   5.001
28053SOL     OW85990  13.861   1.996  11.447
28053SOL    HW185991  13.837   2.029  11.534
28053SOL    HW285992  13.780   1.999  11.397
28054SOL     OW85993   9.952   7.210   7.974
28054SOL    HW185994   9.970   7.289   8.024
28054SOL    HW285995   9.897   7.157   8.031
28055SOL     OW85996   4.181   7.582   0.034
28055SOL    HW185997   4.113   7.598  14.845
28055SOL    HW285998   4.142   7.519   0.095
28056SOL     OW85999  10.060   8.014   0.642
28056SOL    HW186000  10.090   7.924   0.626
28056SOL    HW286001  10.077   8.060   0.560
28057SOL     OW86002   9.783   7.973   7.550
28057SOL    HW186003   9.781   8.023   7.632
28057SOL    HW286004   9.838   7.897   7.570
28058SOL     OW86005   1.709   4.388   0.668
28058SOL    HW186006   1.764   4.310   0.672
28058SOL    HW286007   1.723   4.423   0.579
28059SOL     OW86008  10.863  11.761   7.254
28059SOL    HW186009  10.855  11.798   7.342
28059SOL    HW286010  10.876  11.836   7.197
28060SOL     OW86011   0.525   6.353   6.000
28060SOL    HW186012   0.619   6.358   6.019
28060SOL    HW286013   0.520   6.334   5.906
28061SOL     OW86014   8.178  11.283   2.580
28061SOL    HW186015   8.249  11.346   2.567
28061SOL    HW286016   8.159  11.286   2.674
28062SOL     OW86017  14.663   2.036   1.418
28062SOL    HW186018  14.715   2.030   1.337
28062SOL    HW286019  14.699   1.968   1.474
28063SOL     OW86020   9.722  11.966  12.339
28063SOL    HW186021   9.648  11.908  12.324
28063SOL    HW286022   9.784  11.944  12.269
28064SOL     OW86023  14.325   9.615   7.239
28064SOL    HW186024  14.416   9.611   7.208
28064SOL    HW286025  14.333   9.617   7.334
28065SOL     OW86026  11.186   8.078  13.326
28065SOL    HW186027  11.258   8.126  13.367
28065SOL    HW286028  11.143   8.033  13.398
28066SOL     OW86029   5.508   7.963   4.581
28066SOL    HW186030   5.495   8.051   4.545
28066SOL    HW286031   5.567   7.920   4.519
28067SOL     OW86032   5.079   4.716  14.217
28067SOL    HW186033   5.073   4.778  14.290
28067SOL    HW286034   5.110   4.635  14.257
28068SOL     OW86035   8.159   5.254   3.521
28068SOL    HW186036   8.095   5.195   3.561
28068SOL    HW286037   8.235   5.249   3.578
28069SOL     OW86038   1.249  13.713  13.748
28069SOL    HW186039   1.242  13.644  13.815
28069SOL    HW286040   1.306  13.675  13.681
28070SOL     OW86041  14.776   6.774  10.038
28070SOL    HW186042  14.764   6.869  10.038
28070SOL    HW286043  14.704   6.741   9.985
28071SOL     OW86044   0.339   3.641   2.643
28071SOL    HW186045   0.254   3.596   2.642
28071SOL    HW286046   0.402   3.574   2.616
28072SOL     OW86047   2.774  11.314  13.136
28072SOL    HW186048   2.870  11.314  13.140
28072SOL    HW286049   2.754  11.268  13.054
28073SOL     OW86050   4.128   5.341   6.312
28073SOL    HW186051   4.144   5.278   6.383
28073SOL    HW286052   4.115   5.287   6.234
28074SOL     OW86053   0.102   2.146   0.167
28074SOL    HW186054   0.047   2.079   0.126
28074SOL    HW286055   0.043   2.194   0.225
28075SOL     OW86056   9.903  11.248   9.068
28075SOL    HW186057   9.958  11.256   9.146
28075SOL    HW286058   9.840  11.179   9.091
28076SOL     OW86059   0.772  12.652   3.459
28076SOL    HW186060   0.767  12.565   3.499
28076SOL    HW286061   0.710  12.705   3.511
28077SOL     OW86062  14.696   9.165   1.044
28077SOL    HW186063  14.617   9.190   1.091
28077SOL    HW286064  14.669   9.091   0.989
28078SOL     OW86065   4.553   9.170   6.294
28078SOL    HW186066   4.486   9.227   6.255
28078SOL    HW286067   4.630   9.184   6.240
28079SOL     OW86068  10.585   6.408   6.086
28079SOL    HW186069  10.532   6.463   6.028
28079SOL    HW286070  10.574   6.447   6.172
28080SOL     OW86071   4.140   4.698   2.815
28080SOL    HW186072   4.235   4.686   2.820
28080SOL    HW286073   4.129   4.782   2.771
28081SOL     OW86074   9.855   8.338   0.722
28081SOL    HW186075   9.878   8.422   0.761
28081SOL    HW286076   9.932   8.315   0.669
28082SOL     OW86077   7.110   4.588  12.830
28082SOL    HW186078   7.033   4.611  12.882
28082SOL    HW286079   7.086   4.611  12.740
28083SOL     OW86080   8.235   9.562   5.342
28083SOL    HW186081   8.206   9.647   5.309
28083SOL    HW286082   8.161   9.503   5.329
28084SOL     OW86083   3.816   2.534  14.514
28084SOL    HW186084   3.811   2.483  14.595
28084SOL    HW286085   3.909   2.552  14.501
28085SOL     OW86086   8.685  13.931   5.302
28085SOL    HW186087   8.628  13.939   5.378
28085SOL    HW286088   8.626  13.934   5.227
28086SOL     OW86089  14.450   6.584  11.770
28086SOL    HW186090  14.373   6.528  11.778
28086SOL    HW286091  14.476   6.602  11.860
28087SOL     OW86092   2.720  10.938   7.207
28087SOL    HW186093   2.649  10.942   7.144
28087SOL    HW286094   2.744  11.030   7.222
28088SOL     OW86095  10.327   7.613   1.713
28088SOL    HW186096  10.318   7.699   1.672
28088SOL    HW286097  10.237   7.579   1.716
28089SOL     OW86098  12.104   3.984  12.791
28089SOL    HW186099  12.019   3.996  12.750
28089SOL    HW286100  12.122   3.890  12.783
28090SOL     OW86101  13.585   4.044  10.465
28090SOL    HW186102  13.575   3.951  10.483
28090SOL    HW286103  13.660   4.049  10.405
28091SOL     OW86104  10.068  14.613  13.822
28091SOL    HW186105  10.053  14.526  13.860
28091SOL    HW286106  10.044  14.674  13.892
28092SOL     OW86107  10.758   8.802  11.705
28092SOL    HW186108  10.689   8.751  11.749
28092SOL    HW286109  10.745   8.784  11.612
28093SOL     OW86110   9.723   1.130  14.277
28093SOL    HW186111   9.669   1.068  14.327
28093SOL    HW286112   9.667   1.206  14.265
28094SOL     OW86113  10.550  12.450  11.047
28094SOL    HW186114  10.478  12.419  11.101
28094SOL    HW286115  10.577  12.533  11.087
28095SOL     OW86116   4.362  13.141  12.541
28095SOL    HW186117   4.272  13.114  12.560
28095SOL    HW286118   4.416  13.086  12.597
28096SOL     OW86119  11.711  12.825  13.246
28096SOL    HW186120  11.732  12.917  13.230
28096SOL    HW286121  11.663  12.797  13.168
28097SOL     OW86122  11.662   7.857   9.009
28097SOL    HW186123  11.620   7.899   9.084
28097SOL    HW286124  11.590   7.817   8.960
28098SOL     OW86125   2.420   0.526   7.708
28098SOL    HW186126   2.490   0.556   7.650
28098SOL    HW286127   2.440   0.567   7.792
28099SOL     OW86128  11.089   7.143  11.130
28099SOL    HW186129  11.153   7.082  11.095
28099SOL    HW286130  11.075   7.207  11.060
28100SOL     OW86131  12.358   9.677   4.927
28100SOL    HW186132  12.360   9.683   4.831
28100SOL    HW286133  12.281   9.624   4.946
28101SOL     OW86134   7.978   2.136   3.463
28101SOL    HW186135   7.953   2.109   3.374
28101SOL    HW286136   7.896   2.132   3.513
28102SOL     OW86137   1.762   8.266   9.682
28102SOL    HW186138   1.756   8.231   9.771
28102SOL    HW286139   1.827   8.336   9.687
28103SOL     OW86140   7.365   2.987  13.787
28103SOL    HW186141   7.438   3.042  13.762
28103SOL    HW286142   7.291   3.047  13.797
28104SOL     OW86143   6.478   9.495  13.964
28104SOL    HW186144   6.433   9.510  14.047
28104SOL    HW286145   6.562   9.457  13.989
28105SOL     OW86146  13.297   8.873  10.877
28105SOL    HW186147  13.327   8.810  10.812
28105SOL    HW286148  13.207   8.846  10.897
28106SOL     OW86149  10.098   5.902  11.214
28106SOL    HW186150  10.186   5.923  11.245
28106SOL    HW286151  10.068   5.833  11.273
28107SOL     OW86152   0.957   6.675   6.218
28107SOL    HW186153   0.971   6.581   6.231
28107SOL    HW286154   1.033   6.704   6.167
28108SOL     OW86155   9.629  13.241   7.885
28108SOL    HW186156   9.724  13.237   7.889
28108SOL    HW286157   9.608  13.331   7.910
28109SOL     OW86158   3.743   5.052   7.063
28109SOL    HW186159   3.734   5.078   7.155
28109SOL    HW286160   3.674   4.987   7.050
28110SOL     OW86161   3.960  11.962   7.461
28110SOL    HW186162   3.948  12.013   7.541
28110SOL    HW286163   3.932  11.874   7.484
28111SOL     OW86164   9.874   6.349   0.565
28111SOL    HW186165   9.867   6.358   0.470
28111SOL    HW286166   9.950   6.403   0.589
28112SOL     OW86167  14.519   3.423   7.546
28112SOL    HW186168  14.595   3.471   7.580
28112SOL    HW286169  14.490   3.475   7.470
28113SOL     OW86170   0.916   7.624  10.374
28113SOL    HW186171   0.830   7.597  10.342
28113SOL    HW286172   0.901   7.712  10.410
28114SOL     OW86173  13.424   1.959   4.780
28114SOL    HW186174  13.335   1.983   4.805
28114SOL    HW286175  13.412   1.895   4.709
28115SOL     OW86176  12.655   9.853   6.870
28115SOL    HW186177  12.576   9.801   6.884
28115SOL    HW286178  12.701   9.851   6.954
28116SOL     OW86179   5.812  14.218   6.716
28116SOL    HW186180   5.821  14.166   6.796
28116SOL    HW286181   5.838  14.159   6.645
28117SOL     OW86182   1.083   3.880   0.675
28117SOL    HW186183   1.001   3.906   0.717
28117SOL    HW286184   1.055   3.827   0.600
28118SOL     OW86185  11.609  11.939   0.549
28118SOL    HW186186  11.646  11.850   0.546
28118SOL    HW286187  11.644  11.977   0.629
28119SOL     OW86188  12.909   6.238   5.510
28119SOL    HW186189  12.990   6.233   5.460
28119SOL    HW286190  12.887   6.331   5.512
28120SOL     OW86191   6.788   6.319  10.119
28120SOL    HW186192   6.780   6.242  10.175
28120SOL    HW286193   6.807   6.285  10.032
28121SOL     OW86194   4.965   5.900   9.909
28121SOL    HW186195   4.886   5.923   9.859
28121SOL    HW286196   4.968   5.965   9.979
28122SOL     OW86197   0.788  11.443  13.021
28122SOL    HW186198   0.720  11.376  13.011
28122SOL    HW286199   0.868  11.393  13.039
28123SOL     OW86200   8.854  12.972   7.232
28123SOL    HW186201   8.858  12.879   7.207
28123SOL    HW286202   8.929  13.012   7.189
28124SOL     OW86203   0.967   8.339   0.457
28124SOL    HW186204   0.891   8.304   0.410
28124SOL    HW286205   0.998   8.267   0.510
28125SOL     OW86206  10.638   3.822   8.605
28125SOL    HW186207  10.608   3.812   8.696
28125SOL    HW286208  10.580   3.889   8.568
28126SOL     OW86209  11.147  14.746   7.171
28126SOL    HW186210  11.241  14.748   7.153
28126SOL    HW286211  11.107  14.777   7.090
28127SOL     OW86212   7.814   5.145   3.154
28127SOL    HW186213   7.745   5.209   3.173
28127SOL    HW286214   7.768   5.061   3.146
28128SOL     OW86215   4.630   4.089  14.557
28128SOL    HW186216   4.709   4.107  14.607
28128SOL    HW286217   4.618   3.994  14.563
28129SOL     OW86218   8.270   7.925  13.386
28129SOL    HW186219   8.199   7.959  13.331
28129SOL    HW286220   8.252   7.831  13.393
28130SOL     OW86221   6.365  13.798   0.216
28130SOL    HW186222   6.416  13.878   0.226
28130SOL    HW286223   6.406  13.736   0.277
28131SOL     OW86224   1.557   2.967  12.284
28131SOL    HW186225   1.651   2.971  12.264
28131SOL    HW286226   1.528   2.884  12.247
28132SOL     OW86227   8.824   0.972  13.592
28132SOL    HW186228   8.898   0.976  13.531
28132SOL    HW286229   8.862   0.940  13.674
28133SOL     OW86230   9.002   1.060   6.129
28133SOL    HW186231   8.994   0.977   6.082
28133SOL    HW286232   8.922   1.107   6.108
28134SOL     OW86233  11.319   9.106   1.668
28134SOL    HW186234  11.311   9.071   1.580
28134SOL    HW286235  11.287   9.036   1.725
28135SOL     OW86236  10.590   0.129   9.899
28135SOL    HW186237  10.515   0.150   9.843
28135SOL    HW286238  10.604   0.035   9.886
28136SOL     OW86239  10.091   3.488  14.499
28136SOL    HW186240  10.127   3.439  14.425
28136SOL    HW286241  10.137   3.452  14.575
28137SOL     OW86242  12.139  12.265  14.745
28137SOL    HW186243  12.206  12.301  14.686
28137SOL    HW286244  12.116  12.338  14.802
28138SOL     OW86245   6.629  13.642   8.994
28138SOL    HW186246   6.681  13.688   9.060
28138SOL    HW286247   6.653  13.683   8.911
28139SOL     OW86248  13.069  12.414  14.154
28139SOL    HW186249  13.137  12.382  14.094
28139SOL    HW286250  13.115  12.426  14.238
28140SOL     OW86251  11.235  11.351   9.708
28140SOL    HW186252  11.256  11.338   9.616
28140SOL    HW286253  11.140  11.365   9.709
28141SOL     OW86254  11.157  12.065   3.258
28141SOL    HW186255  11.208  12.122   3.316
28141SOL    HW286256  11.099  12.017   3.317
28142SOL     OW86257  12.061  10.792   8.899
28142SOL    HW186258  12.155  10.809   8.906
28142SOL    HW286259  12.032  10.781   8.990
28143SOL     OW86260  12.676   8.676   9.173
28143SOL    HW186261  12.697   8.656   9.082
28143SOL    HW286262  12.715   8.762   9.187
28144SOL     OW86263   2.091   4.203   7.930
28144SOL    HW186264   2.105   4.111   7.910
28144SOL    HW286265   2.030   4.202   8.004
28145SOL     OW86266   0.803   8.839   2.604
28145SOL    HW186267   0.821   8.896   2.678
28145SOL    HW286268   0.772   8.897   2.535
28146SOL     OW86269  11.466   0.265   0.947
28146SOL    HW186270  11.499   0.247   1.035
28146SOL    HW286271  11.508   0.347   0.921
28147SOL     OW86272   9.375   5.433  10.769
28147SOL    HW186273   9.439   5.429  10.698
28147SOL    HW286274   9.413   5.381  10.839
28148SOL     OW86275   1.317   6.789   3.628
28148SOL    HW186276   1.326   6.700   3.661
28148SOL    HW286277   1.276   6.838   3.700
28149SOL     OW86278  12.746   2.932   9.564
28149SOL    HW186279  12.812   3.002   9.568
28149SOL    HW286280  12.671   2.973   9.522
28150SOL     OW86281   4.026  14.313   4.437
28150SOL    HW186282   3.990  14.376   4.375
28150SOL    HW286283   4.029  14.361   4.520
28151SOL     OW86284   0.542  12.137   0.209
28151SOL    HW186285   0.595  12.091   0.145
28151SOL    HW286286   0.461  12.085   0.215
28152SOL     OW86287   1.350   6.071   5.055
28152SOL    HW186288   1.358   6.144   5.116
28152SOL    HW286289   1.398   6.099   4.977
28153SOL     OW86290   7.500  13.152   5.199
28153SOL    HW186291   7.435  13.219   5.221
28153SOL    HW286292   7.584  13.198   5.202
28154SOL     OW86293  13.022   9.258  10.595
28154SOL    HW186294  13.096   9.300  10.551
28154SOL    HW286295  13.062   9.200  10.660
28155SOL     OW86296  12.520   2.204  13.741
28155SOL    HW186297  12.444   2.229  13.690
28155SOL    HW286298  12.594   2.217  13.681
28156SOL     OW86299  14.445   8.328  13.195
28156SOL    HW186300  14.442   8.381  13.115
28156SOL    HW286301  14.486   8.385  13.260
28157SOL     OW86302   1.613   5.586  14.067
28157SOL    HW186303   1.537   5.584  14.126
28157SOL    HW286304   1.576   5.567  13.980
28158SOL     OW86305   9.052   4.925  12.362
28158SOL    HW186306   9.043   4.839  12.319
28158SOL    HW286307   9.083   4.904  12.450
28159SOL     OW86308   4.874   2.031  12.146
28159SOL    HW186309   4.816   1.956  12.148
28159SOL    HW286310   4.816   2.107  12.155
28160SOL     OW86311   3.647   2.628  14.064
28160SOL    HW186312   3.661   2.723  14.062
28160SOL    HW286313   3.707   2.596  14.131
28161SOL     OW86314  13.975   3.341   3.512
28161SOL    HW186315  13.922   3.301   3.442
28161SOL    HW286316  14.043   3.389   3.465
28162SOL     OW86317   9.454   7.043   1.102
28162SOL    HW186318   9.385   7.002   1.155
28162SOL    HW286319   9.507   7.091   1.165
28163SOL     OW86320   1.334   7.899   7.170
28163SOL    HW186321   1.242   7.879   7.149
28163SOL    HW286322   1.354   7.843   7.245
28164SOL     OW86323   8.150   0.595   4.258
28164SOL    HW186324   8.159   0.572   4.166
28164SOL    HW286325   8.220   0.547   4.302
28165SOL     OW86326  13.079   5.620   4.266
28165SOL    HW186327  13.041   5.690   4.318
28165SOL    HW286328  13.026   5.618   4.186
28166SOL     OW86329  14.853   8.350   4.393
28166SOL    HW186330   0.041   8.403   4.346
28166SOL    HW286331  14.846   8.269   4.342
28167SOL     OW86332  12.877   1.960   4.473
28167SOL    HW186333  12.809   1.929   4.413
28167SOL    HW286334  12.959   1.945   4.426
28168SOL     OW86335   8.746  10.082   0.807
28168SOL    HW186336   8.663  10.053   0.843
28168SOL    HW286337   8.749  10.176   0.826
28169SOL     OW86338  12.466   5.288  13.337
28169SOL    HW186339  12.540   5.346  13.353
28169SOL    HW286340  12.470   5.223  13.407
28170SOL     OW86341   3.360   8.083   9.505
28170SOL    HW186342   3.393   7.994   9.497
28170SOL    HW286343   3.437   8.139   9.495
28171SOL     OW86344   8.574   3.689  10.418
28171SOL    HW186345   8.578   3.785  10.414
28171SOL    HW286346   8.486   3.671  10.450
28172SOL     OW86347   9.128   8.751   5.452
28172SOL    HW186348   9.174   8.710   5.525
28172SOL    HW286349   9.055   8.796   5.493
28173SOL     OW86350   7.411   0.812   0.426
28173SOL    HW186351   7.484   0.872   0.413
28173SOL    HW286352   7.347   0.862   0.476
28174SOL     OW86353   3.594   6.418   5.649
28174SOL    HW186354   3.569   6.503   5.686
28174SOL    HW286355   3.688   6.412   5.662
28175SOL     OW86356   1.602  14.556  10.658
28175SOL    HW186357   1.577  14.484  10.601
28175SOL    HW286358   1.695  14.571  10.640
28176SOL     OW86359   0.813   5.755   3.603
28176SOL    HW186360   0.896   5.708   3.613
28176SOL    HW286361   0.812   5.816   3.677
28177SOL     OW86362   9.195  14.367   7.889
28177SOL    HW186363   9.208  14.323   7.973
28177SOL    HW286364   9.279  14.358   7.844
28178SOL     OW86365  13.015  12.816   5.313
28178SOL    HW186366  12.972  12.760   5.249
28178SOL    HW286367  12.995  12.905   5.285
28179SOL     OW86368  12.326  14.818   2.093
28179SOL    HW186369  12.308   0.035   2.082
28179SOL    HW286370  12.358  14.810   2.183
28180SOL     OW86371  11.016   8.426   1.261
28180SOL    HW186372  10.996   8.458   1.173
28180SOL    HW286373  11.077   8.354   1.247
28181SOL     OW86374   9.457   2.593  11.371
28181SOL    HW186375   9.370   2.559  11.348
28181SOL    HW286376   9.501   2.520  11.414
28182SOL     OW86377   9.292   8.750  11.679
28182SOL    HW186378   9.360   8.786  11.736
28182SOL    HW286379   9.340   8.697  11.615
28183SOL     OW86380   4.919   2.495   7.000
28183SOL    HW186381   4.866   2.539   7.067
28183SOL    HW286382   4.963   2.567   6.954
28184SOL     OW86383   2.925  12.369   4.751
28184SOL    HW186384   2.915  12.461   4.725
28184SOL    HW286385   2.983  12.372   4.826
28185SOL     OW86386  13.446  12.557   9.601
28185SOL    HW186387  13.444  12.462   9.612
28185SOL    HW286388  13.447  12.591   9.690
28186SOL     OW86389   1.185   7.119   8.715
28186SOL    HW186390   1.090   7.132   8.711
28186SOL    HW286391   1.219   7.203   8.746
28187SOL     OW86392   1.307   6.581   2.750
28187SOL    HW186393   1.317   6.537   2.835
28187SOL    HW286394   1.393   6.572   2.708
28188SOL     OW86395   4.749  10.006   1.195
28188SOL    HW186396   4.761  10.100   1.205
28188SOL    HW286397   4.818   9.966   1.248
28189SOL     OW86398   2.928  11.524   0.475
28189SOL    HW186399   2.851  11.562   0.432
28189SOL    HW286400   2.915  11.429   0.467
28190SOL     OW86401  10.627   1.897   0.387
28190SOL    HW186402  10.558   1.877   0.450
28190SOL    HW286403  10.697   1.835   0.408
28191SOL     OW86404   9.204  10.002   3.657
28191SOL    HW186405   9.164   9.926   3.699
28191SOL    HW286406   9.296   9.977   3.645
28192SOL     OW86407   6.914  14.157   8.025
28192SOL    HW186408   6.939  14.213   7.952
28192SOL    HW286409   6.833  14.195   8.058
28193SOL     OW86410  12.775   4.293   8.969
28193SOL    HW186411  12.791   4.330   8.882
28193SOL    HW286412  12.755   4.201   8.953
28194SOL     OW86413   6.478  10.401   4.537
28194SOL    HW186414   6.511  10.478   4.583
28194SOL    HW286415   6.467  10.335   4.605
28195SOL     OW86416   2.815   5.101   8.688
28195SOL    HW186417   2.868   5.093   8.768
28195SOL    HW286418   2.873   5.071   8.618
28196SOL     OW86419   1.381  14.411  12.201
28196SOL    HW186420   1.370  14.350  12.127
28196SOL    HW286421   1.312  14.476  12.189
28197SOL     OW86422   5.958  12.159   4.165
28197SOL    HW186423   5.947  12.246   4.203
28197SOL    HW286424   6.040  12.127   4.202
28198SOL     OW86425   0.221   3.611   7.130
28198SOL    HW186426   0.313   3.587   7.139
28198SOL    HW286427   0.212   3.638   7.039
28199SOL     OW86428   1.160   3.880  11.129
28199SOL    HW186429   1.222   3.862  11.199
28199SOL    HW286430   1.138   3.794  11.093
28200SOL     OW86431   0.823  10.117   2.976
28200SOL    HW186432   0.735  10.088   3.001
28200SOL    HW286433   0.882  10.064   3.030
28201SOL     OW86434  12.252   2.057   0.786
28201SOL    HW186435  12.341   2.089   0.773
28201SOL    HW286436  12.245   2.044   0.881
28202SOL     OW86437   1.510   4.170  12.688
28202SOL    HW186438   1.459   4.198  12.612
28202SOL    HW286439   1.563   4.246  12.711
28203SOL     OW86440   3.846   8.411  14.219
28203SOL    HW186441   3.764   8.460  14.220
28203SOL    HW286442   3.845   8.364  14.135
28204SOL     OW86443   3.955  12.101   7.702
28204SOL    HW186444   3.865  12.132   7.711
28204SOL    HW286445   4.009  12.173   7.736
28205SOL     OW86446   7.132  10.931   6.331
28205SOL    HW186447   7.195  10.952   6.399
28205SOL    HW286448   7.122  10.836   6.336
28206SOL     OW86449  10.545   6.089   5.984
28206SOL    HW186450  10.621   6.034   5.965
28206SOL    HW286451  10.581   6.176   6.001
28207SOL     OW86452   1.667   1.493   7.703
28207SOL    HW186453   1.662   1.408   7.658
28207SOL    HW286454   1.629   1.555   7.641
28208SOL     OW86455   3.300   3.899  10.726
28208SOL    HW186456   3.347   3.941  10.654
28208SOL    HW286457   3.328   3.808  10.723
28209SOL     OW86458   6.668   1.245   7.952
28209SOL    HW186459   6.660   1.155   7.982
28209SOL    HW286460   6.642   1.242   7.860
28210SOL     OW86461  12.438   7.732   8.151
28210SOL    HW186462  12.419   7.718   8.244
28210SOL    HW286463  12.396   7.658   8.107
28211SOL     OW86464   7.266   9.295   0.560
28211SOL    HW186465   7.354   9.298   0.598
28211SOL    HW286466   7.273   9.347   0.480
28212SOL     OW86467   2.349   6.577  10.016
28212SOL    HW186468   2.348   6.521   9.939
28212SOL    HW286469   2.269   6.629  10.009
28213SOL     OW86470   8.996   5.431   3.157
28213SOL    HW186471   8.919   5.408   3.208
28213SOL    HW286472   9.012   5.523   3.178
28214SOL     OW86473   1.072   8.020  14.430
28214SOL    HW186474   0.980   8.007  14.405
28214SOL    HW286475   1.121   8.001  14.350
28215SOL     OW86476   3.606   5.872   5.329
28215SOL    HW186477   3.539   5.844   5.266
28215SOL    HW286478   3.595   5.967   5.335
28216SOL     OW86479  11.582   1.138   5.923
28216SOL    HW186480  11.547   1.214   5.877
28216SOL    HW286481  11.505   1.095   5.961
28217SOL     OW86482   6.416   5.086   9.916
28217SOL    HW186483   6.457   5.148   9.976
28217SOL    HW286484   6.357   5.139   9.862
28218SOL     OW86485   7.403   5.382  14.100
28218SOL    HW186486   7.455   5.355  14.024
28218SOL    HW286487   7.464   5.429  14.156
28219SOL     OW86488  10.430   7.539   6.249
28219SOL    HW186489  10.455   7.514   6.338
28219SOL    HW286490  10.383   7.463   6.215
28220SOL     OW86491  11.051   9.450  14.212
28220SOL    HW186492  11.002   9.527  14.182
28220SOL    HW286493  11.122   9.442  14.148
28221SOL     OW86494  14.083   7.520   8.707
28221SOL    HW186495  14.080   7.577   8.630
28221SOL    HW286496  13.993   7.491   8.720
28222SOL     OW86497  13.186   0.452   8.785
28222SOL    HW186498  13.179   0.535   8.833
28222SOL    HW286499  13.206   0.387   8.853
28223SOL     OW86500  14.832   0.655  13.903
28223SOL    HW186501  14.838   0.743  13.865
28223SOL    HW286502  14.769   0.609  13.846
28224SOL     OW86503  10.094   2.017   8.709
28224SOL    HW186504  10.015   1.964   8.702
28224SOL    HW286505  10.092   2.075   8.633
28225SOL     OW86506  12.887  11.933  12.865
28225SOL    HW186507  12.946  11.862  12.888
28225SOL    HW286508  12.875  11.982  12.946
28226SOL     OW86509  14.613   0.734   0.876
28226SOL    HW186510  14.614   0.813   0.822
28226SOL    HW286511  14.566   0.761   0.956
28227SOL     OW86512  13.914   9.079   3.766
28227SOL    HW186513  13.893   8.986   3.775
28227SOL    HW286514  13.954   9.102   3.850
28228SOL     OW86515  12.343   5.123   2.916
28228SOL    HW186516  12.438   5.125   2.905
28228SOL    HW286517  12.313   5.205   2.875
28229SOL     OW86518   3.026   1.442   6.001
28229SOL    HW186519   2.969   1.516   6.025
28229SOL    HW286520   3.020   1.438   5.906
28230SOL     OW86521   2.956   9.017   2.815
28230SOL    HW186522   2.961   8.934   2.863
28230SOL    HW286523   2.884   9.004   2.753
28231SOL     OW86524  12.296  14.222   0.640
28231SOL    HW186525  12.301  14.266   0.725
28231SOL    HW286526  12.202  14.222   0.619
28232SOL     OW86527   3.229  10.791   2.649
28232SOL    HW186528   3.225  10.718   2.712
28232SOL    HW286529   3.158  10.773   2.587
28233SOL     OW86530   6.317  10.449   8.848
28233SOL    HW186531   6.308  10.362   8.888
28233SOL    HW286532   6.261  10.445   8.770
28234SOL     OW86533   7.166  12.116   1.114
28234SOL    HW186534   7.105  12.111   1.188
28234SOL    HW286535   7.249  12.142   1.153
28235SOL     OW86536  10.907   5.507   2.451
28235SOL    HW186537  10.811   5.510   2.453
28235SOL    HW286538  10.933   5.540   2.537
28236SOL     OW86539   6.131  13.984  13.939
28236SOL    HW186540   6.107  14.074  13.961
28236SOL    HW286541   6.083  13.965  13.858
28237SOL     OW86542  10.523   4.131  12.607
28237SOL    HW186543  10.544   4.223  12.588
28237SOL    HW286544  10.432   4.133  12.635
28238SOL     OW86545   7.489  11.704   5.333
28238SOL    HW186546   7.443  11.705   5.250
28238SOL    HW286547   7.446  11.773   5.385
28239SOL     OW86548   1.746   3.501   5.726
28239SOL    HW186549   1.717   3.414   5.753
28239SOL    HW286550   1.773   3.544   5.807
28240SOL     OW86551   5.658   8.703   3.494
28240SOL    HW186552   5.644   8.682   3.401
28240SOL    HW286553   5.684   8.795   3.493
28241SOL     OW86554  10.912  10.396  13.944
28241SOL    HW186555  10.989  10.411  13.889
28241SOL    HW286556  10.915  10.303  13.965
28242SOL     OW86557   3.110   2.374  11.224
28242SOL    HW186558   3.154   2.428  11.158
28242SOL    HW286559   3.070   2.438  11.283
28243SOL     OW86560   2.403  10.913  14.723
28243SOL    HW186561   2.471  10.887  14.661
28243SOL    HW286562   2.363  10.830  14.750
28244SOL     OW86563  11.207   5.969   6.013
28244SOL    HW186564  11.212   5.954   6.108
28244SOL    HW286565  11.219   5.882   5.975
28245SOL     OW86566  14.633   5.996  14.749
28245SOL    HW186567  14.654   6.089  14.756
28245SOL    HW286568  14.639   5.964  14.839
28246SOL     OW86569   4.217   9.254   8.208
28246SOL    HW186570   4.310   9.236   8.192
28246SOL    HW286571   4.177   9.167   8.212
28247SOL     OW86572   9.632  12.360   0.800
28247SOL    HW186573   9.688  12.324   0.869
28247SOL    HW286574   9.560  12.401   0.848
28248SOL     OW86575   9.033   7.245  11.958
28248SOL    HW186576   8.938   7.239  11.965
28248SOL    HW286577   9.064   7.237  12.048
28249SOL     OW86578   3.884  14.103  13.678
28249SOL    HW186579   3.851  14.154  13.604
28249SOL    HW286580   3.855  14.013  13.660
28250SOL     OW86581   6.782  14.737  10.176
28250SOL    HW186582   6.822  14.790  10.107
28250SOL    HW286583   6.825  14.652  10.168
28251SOL     OW86584   2.729   8.243  14.447
28251SOL    HW186585   2.708   8.315  14.388
28251SOL    HW286586   2.795   8.192  14.401
28252SOL     OW86587  12.341   0.861   6.643
28252SOL    HW186588  12.370   0.948   6.667
28252SOL    HW286589  12.390   0.802   6.702
28253SOL     OW86590   1.886  10.500   5.259
28253SOL    HW186591   1.795  10.472   5.256
28253SOL    HW286592   1.892  10.571   5.195
28254SOL     OW86593   2.691   6.267  10.752
28254SOL    HW186594   2.623   6.230  10.809
28254SOL    HW286595   2.643   6.316  10.686
28255SOL     OW86596   5.447  12.733  14.752
28255SOL    HW186597   5.376  12.781  14.794
28255SOL    HW286598   5.404  12.679  14.685
28256SOL     OW86599  10.039  13.663  14.355
28256SOL    HW186600  10.065  13.591  14.298
28256SOL    HW286601  10.061  13.742  14.305
28257SOL     OW86602   6.424  10.660   4.336
28257SOL    HW186603   6.480  10.734   4.361
28257SOL    HW286604   6.437  10.596   4.407
28258SOL     OW86605   1.646  11.110   2.766
28258SOL    HW186606   1.612  11.024   2.746
28258SOL    HW286607   1.656  11.153   2.681
28259SOL     OW86608   4.993   0.515  12.976
28259SOL    HW186609   5.039   0.546  13.055
28259SOL    HW286610   4.966   0.426  12.998
28260SOL     OW86611   6.992   5.641   3.808
28260SOL    HW186612   6.931   5.655   3.881
28260SOL    HW286613   7.001   5.728   3.768
28261SOL     OW86614  11.153  12.128  13.719
28261SOL    HW186615  11.089  12.199  13.710
28261SOL    HW286616  11.221  12.164  13.777
28262SOL     OW86617   0.789   4.816   2.932
28262SOL    HW186618   0.735   4.776   2.865
28262SOL    HW286619   0.735   4.815   3.011
28263SOL     OW86620   7.317   6.767   2.453
28263SOL    HW186621   7.314   6.862   2.437
28263SOL    HW286622   7.364   6.732   2.378
28264SOL     OW86623   5.642   3.839   6.476
28264SOL    HW186624   5.601   3.782   6.541
28264SOL    HW286625   5.583   3.914   6.468
28265SOL     OW86626   6.257   6.298  11.331
28265SOL    HW186627   6.166   6.320  11.349
28265SOL    HW286628   6.252   6.225  11.270
28266SOL     OW86629  13.281   3.381   1.183
28266SOL    HW186630  13.369   3.413   1.205
28266SOL    HW286631  13.287   3.286   1.191
28267SOL     OW86632   8.403  11.437   2.926
28267SOL    HW186633   8.371  11.499   2.992
28267SOL    HW286634   8.484  11.476   2.894
28268SOL     OW86635   2.195   8.439   3.929
28268SOL    HW186636   2.110   8.397   3.936
28268SOL    HW286637   2.256   8.368   3.908
28269SOL     OW86638   8.039  14.287  11.972
28269SOL    HW186639   8.112  14.348  11.969
28269SOL    HW286640   8.036  14.258  12.063
28270SOL     OW86641   6.288   0.239  10.743
28270SOL    HW186642   6.238   0.163  10.712
28270SOL    HW286643   6.335   0.207  10.820
28271SOL     OW86644  11.134   3.893   3.407
28271SOL    HW186645  11.165   3.803   3.398
28271SOL    HW286646  11.107   3.900   3.498
28272SOL     OW86647  13.501  12.322   4.638
28272SOL    HW186648  13.590  12.289   4.622
28272SOL    HW286649  13.487  12.308   4.732
28273SOL     OW86650   2.453   6.973   1.255
28273SOL    HW186651   2.501   6.949   1.335
28273SOL    HW286652   2.521   6.975   1.187
28274SOL     OW86653   2.289   6.926   0.702
28274SOL    HW186654   2.325   6.913   0.790
28274SOL    HW286655   2.195   6.910   0.711
28275SOL     OW86656  11.531   2.111   7.614
28275SOL    HW186657  11.542   2.028   7.566
28275SOL    HW286658  11.589   2.172   7.567
28276SOL     OW86659  10.176  11.157   1.282
28276SOL    HW186660  10.119  11.175   1.206
28276SOL    HW286661  10.177  11.061   1.288
28277SOL     OW86662   3.554  12.003  12.510
28277SOL    HW186663   3.608  12.007  12.431
28277SOL    HW286664   3.597  11.938  12.565
28278SOL     OW86665   8.262   0.318   1.064
28278SOL    HW186666   8.213   0.383   1.013
28278SOL    HW286667   8.199   0.247   1.077
28279SOL     OW86668  11.542   0.918   7.225
28279SOL    HW186669  11.597   0.871   7.287
28279SOL    HW286670  11.602   0.947   7.156
28280SOL     OW86671   1.504  14.158  14.474
28280SOL    HW186672   1.450  14.100  14.528
28280SOL    HW286673   1.498  14.121  14.386
28281SOL     OW86674   8.364   6.313  14.398
28281SOL    HW186675   8.422   6.333  14.325
28281SOL    HW286676   8.416   6.259  14.456
28282SOL     OW86677   8.974   1.216   1.988
28282SOL    HW186678   8.963   1.122   1.974
28282SOL    HW286679   9.002   1.224   2.079
28283SOL     OW86680   0.932   6.703  12.986
28283SOL    HW186681   0.999   6.771  12.980
28283SOL    HW286682   0.870   6.725  12.916
28284SOL     OW86683   5.786   5.544  13.515
28284SOL    HW186684   5.714   5.499  13.470
28284SOL    HW286685   5.756   5.634  13.526
28285SOL     OW86686  14.305  11.499  14.608
28285SOL    HW186687  14.338  11.428  14.662
28285SOL    HW286688  14.227  11.530  14.654
28286SOL     OW86689   8.300  14.267   9.808
28286SOL    HW186690   8.351  14.332   9.857
28286SOL    HW286691   8.238  14.320   9.757
28287SOL     OW86692   4.655   6.622   3.211
28287SOL    HW186693   4.681   6.685   3.279
28287SOL    HW286694   4.683   6.663   3.129
28288SOL     OW86695  14.135  11.271   1.398
28288SOL    HW186696  14.070  11.303   1.460
28288SOL    HW286697  14.211  11.329   1.410
28289SOL     OW86698  11.795   5.702  13.092
28289SOL    HW186699  11.734   5.755  13.041
28289SOL    HW286700  11.763   5.708  13.182
28290SOL     OW86701   0.613   7.318   0.787
28290SOL    HW186702   0.551   7.306   0.715
28290SOL    HW286703   0.559   7.316   0.866
28291SOL     OW86704  12.976   2.766  14.027
28291SOL    HW186705  12.996   2.837  14.089
28291SOL    HW286706  13.039   2.697  14.049
28292SOL     OW86707  10.469  13.936   4.795
28292SOL    HW186708  10.524  13.947   4.718
28292SOL    HW286709  10.402  14.003   4.786
28293SOL     OW86710   1.955   2.854   7.264
28293SOL    HW186711   1.891   2.868   7.333
28293SOL    HW286712   1.953   2.760   7.248
28294SOL     OW86713   3.539   7.350  12.890
28294SOL    HW186714   3.492   7.378  12.811
28294SOL    HW286715   3.502   7.265  12.911
28295SOL     OW86716   4.487   9.856  11.293
28295SOL    HW186717   4.465   9.769  11.326
28295SOL    HW286718   4.514   9.905  11.371
28296SOL     OW86719   6.655   4.875   0.487
28296SOL    HW186720   6.680   4.902   0.576
28296SOL    HW286721   6.666   4.954   0.434
28297SOL     OW86722   1.381   2.431  12.138
28297SOL    HW186723   1.443   2.504  12.145
28297SOL    HW286724   1.338   2.428  12.222
28298SOL     OW86725   1.979   6.297   6.429
28298SOL    HW186726   2.055   6.240   6.440
28298SOL    HW286727   1.905   6.237   6.419
28299SOL     OW86728   7.386  12.995   0.800
28299SOL    HW186729   7.460  12.977   0.858
28299SOL    HW286730   7.351  12.909   0.778
28300SOL     OW86731  14.335   4.560  12.173
28300SOL    HW186732  14.374   4.520  12.251
28300SOL    HW286733  14.255   4.602  12.205
28301SOL     OW86734  14.695   7.648   7.209
28301SOL    HW186735  14.677   7.735   7.174
28301SOL    HW286736  14.610   7.605   7.213
28302SOL     OW86737   2.961   0.261  14.230
28302SOL    HW186738   2.886   0.316  14.252
28302SOL    HW286739   3.034   0.301  14.277
28303SOL     OW86740   0.962  10.268   7.434
28303SOL    HW186741   0.936  10.290   7.523
28303SOL    HW286742   0.890  10.300   7.379
28304SOL     OW86743   3.420   6.239   7.978
28304SOL    HW186744   3.338   6.225   7.931
28304SOL    HW286745   3.461   6.313   7.934
28305SOL     OW86746  10.834   8.379   4.078
28305SOL    HW186747  10.897   8.354   4.145
28305SOL    HW286748  10.771   8.436   4.122
28306SOL     OW86749  14.440   0.322   1.195
28306SOL    HW186750  14.370   0.381   1.168
28306SOL    HW286751  14.484   0.298   1.114
28307SOL     OW86752   4.278   4.670   3.569
28307SOL    HW186753   4.239   4.611   3.505
28307SOL    HW286754   4.345   4.718   3.520
28308SOL     OW86755  11.474  12.982   4.467
28308SOL    HW186756  11.533  12.915   4.500
28308SOL    HW286757  11.387  12.951   4.491
28309SOL     OW86758   8.503   2.214   8.956
28309SOL    HW186759   8.442   2.148   8.986
28309SOL    HW286760   8.451   2.293   8.947
28310SOL     OW86761  10.955   7.100   8.499
28310SOL    HW186762  11.014   7.174   8.483
28310SOL    HW286763  11.001   7.024   8.464
28311SOL     OW86764   7.503   6.512   1.531
28311SOL    HW186765   7.522   6.484   1.620
28311SOL    HW286766   7.411   6.541   1.533
28312SOL     OW86767   6.768   0.596  13.955
28312SOL    HW186768   6.735   0.672  13.908
28312SOL    HW286769   6.689   0.543  13.972
28313SOL     OW86770   1.135   6.595   1.749
28313SOL    HW186771   1.059   6.551   1.788
28313SOL    HW286772   1.109   6.687   1.745
28314SOL     OW86773   2.052   5.558  10.087
28314SOL    HW186774   2.027   5.466  10.084
28314SOL    HW286775   2.097   5.568  10.171
28315SOL     OW86776  12.209  13.947   1.070
28315SOL    HW186777  12.142  14.011   1.093
28315SOL    HW286778  12.206  13.942   0.975
28316SOL     OW86779   3.538   1.622   4.828
28316SOL    HW186780   3.531   1.623   4.924
28316SOL    HW286781   3.582   1.704   4.806
28317SOL     OW86782   7.935   2.815  10.118
28317SOL    HW186783   7.995   2.814  10.193
28317SOL    HW286784   7.900   2.904  10.116
28318SOL     OW86785   5.405   8.532  14.194
28318SOL    HW186786   5.488   8.572  14.168
28318SOL    HW286787   5.372   8.491  14.114
28319SOL     OW86788   4.990   5.507   8.072
28319SOL    HW186789   5.000   5.586   8.126
28319SOL    HW286790   4.898   5.483   8.083
28320SOL     OW86791   0.514  10.110   3.154
28320SOL    HW186792   0.444  10.164   3.120
28320SOL    HW286793   0.580  10.172   3.185
28321SOL     OW86794  13.606   7.612   1.182
28321SOL    HW186795  13.690   7.581   1.215
28321SOL    HW286796  13.545   7.539   1.197
28322SOL     OW86797   5.415   2.886   0.984
28322SOL    HW186798   5.477   2.869   1.054
28322SOL    HW286799   5.413   2.981   0.975
28323SOL     OW86800   6.401  14.661  13.589
28323SOL    HW186801   6.370  14.610  13.514
28323SOL    HW286802   6.417  14.597  13.657
28324SOL     OW86803  10.107  10.264  11.397
28324SOL    HW186804  10.139  10.338  11.346
28324SOL    HW286805  10.046  10.303  11.460
28325SOL     OW86806   1.678   6.650   8.627
28325SOL    HW186807   1.702   6.684   8.540
28325SOL    HW286808   1.694   6.723   8.687
28326SOL     OW86809   7.472   6.215  12.395
28326SOL    HW186810   7.480   6.242  12.487
28326SOL    HW286811   7.495   6.293  12.345
28327SOL     OW86812   0.694   9.892  10.903
28327SOL    HW186813   0.651   9.972  10.872
28327SOL    HW286814   0.738   9.919  10.984
28328SOL     OW86815   1.593   0.732   4.896
28328SOL    HW186816   1.624   0.706   4.810
28328SOL    HW286817   1.663   0.707   4.956
28329SOL     OW86818   7.847   8.104   4.144
28329SOL    HW186819   7.752   8.099   4.155
28329SOL    HW286820   7.883   8.086   4.231
28330SOL     OW86821   6.145   9.353   7.724
28330SOL    HW186822   6.166   9.430   7.777
28330SOL    HW286823   6.226   9.330   7.681
28331SOL     OW86824  14.863   4.851   8.996
28331SOL    HW186825  14.874   4.939   9.031
28331SOL    HW286826  14.779   4.821   9.032
28332SOL     OW86827   5.224   6.122  11.155
28332SOL    HW186828   5.182   6.086  11.077
28332SOL    HW286829   5.161   6.186  11.189
28333SOL     OW86830  11.992   2.741  13.559
28333SOL    HW186831  11.978   2.671  13.623
28333SOL    HW286832  11.998   2.821  13.612
28334SOL     OW86833   0.235   6.696  13.650
28334SOL    HW186834   0.213   6.789  13.657
28334SOL    HW286835   0.167   6.660  13.593
28335SOL     OW86836   4.476   6.584   2.308
28335SOL    HW186837   4.412   6.579   2.237
28335SOL    HW286838   4.494   6.677   2.317
28336SOL     OW86839   7.574  10.386   8.506
28336SOL    HW186840   7.659  10.352   8.479
28336SOL    HW286841   7.542  10.435   8.430
28337SOL     OW86842   7.221   5.453   8.609
28337SOL    HW186843   7.156   5.403   8.560
28337SOL    HW286844   7.252   5.392   8.677
28338SOL     OW86845   4.788  13.994   2.341
28338SOL    HW186846   4.697  13.994   2.370
28338SOL    HW286847   4.820  14.082   2.363
28339SOL     OW86848   6.501   2.972  14.838
28339SOL    HW186849   6.508   2.892  14.786
28339SOL    HW286850   6.560   2.959   0.035
28340SOL     OW86851   1.179   5.726   9.706
28340SOL    HW186852   1.223   5.810   9.720
28340SOL    HW286853   1.251   5.663   9.693
28341SOL     OW86854  10.846  10.518   8.715
28341SOL    HW186855  10.807  10.474   8.790
28341SOL    HW286856  10.785  10.588   8.692
28342SOL     OW86857   7.700   9.804  13.977
28342SOL    HW186858   7.663   9.795  14.065
28342SOL    HW286859   7.775   9.744  13.976
28343SOL     OW86860  12.329  14.810   6.219
28343SOL    HW186861  12.397  14.751   6.251
28343SOL    HW286862  12.247  14.767   6.241
28344SOL     OW86863   0.052   6.192  12.600
28344SOL    HW186864   0.103   6.113  12.585
28344SOL    HW286865   0.090   6.256  12.539
28345SOL     OW86866  12.481  11.709   2.644
28345SOL    HW186867  12.449  11.794   2.613
28345SOL    HW286868  12.529  11.674   2.569
28346SOL     OW86869  11.706  12.246   4.915
28346SOL    HW186870  11.757  12.244   4.996
28346SOL    HW286871  11.675  12.336   4.909
28347SOL     OW86872   2.871   4.665  13.080
28347SOL    HW186873   2.916   4.721  13.016
28347SOL    HW286874   2.912   4.687  13.164
28348SOL     OW86875   4.320   7.292   0.231
28348SOL    HW186876   4.355   7.211   0.195
28348SOL    HW286877   4.386   7.358   0.211
28349SOL     OW86878   9.579  11.925   8.730
28349SOL    HW186879   9.622  11.936   8.815
28349SOL    HW286880   9.646  11.886   8.674
28350SOL     OW86881  13.100   0.709   3.785
28350SOL    HW186882  13.109   0.690   3.878
28350SOL    HW286883  13.190   0.723   3.755
28351SOL     OW86884  10.023   3.603   8.533
28351SOL    HW186885  10.100   3.624   8.584
28351SOL    HW286886  10.043   3.518   8.493
28352SOL     OW86887  11.858   3.871   8.040
28352SOL    HW186888  11.926   3.834   8.096
28352SOL    HW286889  11.859   3.815   7.962
28353SOL     OW86890   5.178   4.342  13.171
28353SOL    HW186891   5.249   4.281  13.190
28353SOL    HW286892   5.184   4.408  13.239
28354SOL     OW86893   6.592  13.992   1.621
28354SOL    HW186894   6.660  14.009   1.687
28354SOL    HW286895   6.546  14.076   1.613
28355SOL     OW86896  12.310  13.557  10.013
28355SOL    HW186897  12.355  13.628  10.060
28355SOL    HW286898  12.379  13.515   9.962
28356SOL     OW86899   6.575  10.811  11.588
28356SOL    HW186900   6.494  10.790  11.541
28356SOL    HW286901   6.630  10.734  11.576
28357SOL     OW86902  10.788   3.419  11.565
28357SOL    HW186903  10.882   3.425  11.545
28357SOL    HW286904  10.750   3.495  11.520
28358SOL     OW86905   7.444   7.175   6.811
28358SOL    HW186906   7.494   7.256   6.811
28358SOL    HW286907   7.360   7.199   6.772
28359SOL     OW86908  12.599  10.160   1.976
28359SOL    HW186909  12.635  10.246   1.955
28359SOL    HW286910  12.558  10.172   2.062
28360SOL     OW86911   4.207   2.406   7.654
28360SOL    HW186912   4.168   2.429   7.570
28360SOL    HW286913   4.218   2.311   7.650
28361SOL     OW86914  11.316  13.639   2.050
28361SOL    HW186915  11.274  13.566   2.005
28361SOL    HW286916  11.405  13.608   2.068
28362SOL     OW86917  13.185   1.425   4.868
28362SOL    HW186918  13.158   1.361   4.803
28362SOL    HW286919  13.249   1.378   4.922
28363SOL     OW86920   7.047  13.987  10.000
28363SOL    HW186921   7.085  13.915  10.049
28363SOL    HW286922   7.021  13.948   9.917
28364SOL     OW86923   7.182   5.994   6.855
28364SOL    HW186924   7.165   6.068   6.914
28364SOL    HW286925   7.266   5.959   6.883
28365SOL     OW86926   6.612   3.756  14.105
28365SOL    HW186927   6.527   3.772  14.064
28365SOL    HW286928   6.593   3.695  14.177
28366SOL     OW86929   8.985  10.386   4.688
28366SOL    HW186930   9.035  10.325   4.634
28366SOL    HW286931   8.895  10.377   4.657
28367SOL     OW86932   7.069   2.347   2.352
28367SOL    HW186933   7.135   2.415   2.342
28367SOL    HW286934   7.080   2.291   2.275
28368SOL     OW86935   8.117   3.318   4.924
28368SOL    HW186936   8.151   3.297   5.011
28368SOL    HW286937   8.192   3.353   4.876
28369SOL     OW86938   0.480   7.645  14.764
28369SOL    HW186939   0.477   7.650  14.669
28369SOL    HW286940   0.394   7.611  14.789
28370SOL     OW86941  11.844  11.074  10.462
28370SOL    HW186942  11.843  10.984  10.431
28370SOL    HW286943  11.752  11.094  10.480
28371SOL     OW86944   7.722   4.561  11.574
28371SOL    HW186945   7.662   4.632  11.597
28371SOL    HW286946   7.762   4.589  11.491
28372SOL     OW86947  10.365  12.035  11.121
28372SOL    HW186948  10.390  12.034  11.213
28372SOL    HW286949  10.331  11.947  11.104
28373SOL     OW86950   0.448   9.686   0.080
28373SOL    HW186951   0.372   9.713   0.131
28373SOL    HW286952   0.446   9.590   0.082
28374SOL     OW86953  13.984   8.492  12.942
28374SOL    HW186954  13.965   8.567  12.998
28374SOL    HW286955  14.063   8.516  12.895
28375SOL     OW86956   8.363   9.160  11.326
28375SOL    HW186957   8.449   9.124  11.308
28375SOL    HW286958   8.363   9.176  11.421
28376SOL     OW86959  13.985   7.186   7.235
28376SOL    HW186960  14.053   7.212   7.173
28376SOL    HW286961  13.913   7.155   7.180
28377SOL     OW86962   6.462  12.722   1.487
28377SOL    HW186963   6.410  12.745   1.410
28377SOL    HW286964   6.552  12.743   1.462
28378SOL     OW86965  14.047   6.853   0.611
28378SOL    HW186966  14.036   6.892   0.525
28378SOL    HW286967  14.142   6.840   0.620
28379SOL     OW86968   4.079  13.347   3.747
28379SOL    HW186969   4.066  13.278   3.682
28379SOL    HW286970   4.000  13.344   3.801
28380SOL     OW86971   8.132  13.850   4.052
28380SOL    HW186972   8.096  13.934   4.079
28380SOL    HW286973   8.141  13.857   3.956
28381SOL     OW86974   4.606  13.622   4.630
28381SOL    HW186975   4.667  13.691   4.603
28381SOL    HW286976   4.650  13.579   4.703
28382SOL     OW86977  10.071  14.170   0.682
28382SOL    HW186978  10.163  14.170   0.707
28382SOL    HW286979  10.040  14.081   0.702
28383SOL     OW86980   6.321  12.642   7.017
28383SOL    HW186981   6.344  12.554   7.049
28383SOL    HW286982   6.374  12.653   6.938
28384SOL     OW86983   7.388  14.762  10.773
28384SOL    HW186984   7.412  14.749  10.864
28384SOL    HW286985   7.292  14.761  10.772
28385SOL     OW86986   5.972   1.285   8.182
28385SOL    HW186987   6.024   1.247   8.111
28385SOL    HW286988   5.984   1.225   8.256
28386SOL     OW86989   3.100   5.959  13.445
28386SOL    HW186990   3.149   6.030  13.404
28386SOL    HW286991   3.167   5.902  13.483
28387SOL     OW86992   5.828  14.743  12.935
28387SOL    HW186993   5.751  14.801  12.937
28387SOL    HW286994   5.873  14.767  12.854
28388SOL     OW86995   4.327   0.357   3.071
28388SOL    HW186996   4.308   0.443   3.032
28388SOL    HW286997   4.416   0.337   3.042
28389SOL     OW86998   6.297  10.763  11.331
28389SOL    HW186999   6.285  10.813  11.250
28389SOL    HW287000   6.390  10.738  11.330
28390SOL     OW87001   8.326   4.733  14.302
28390SOL    HW187002   8.263   4.664  14.323
28390SOL    HW287003   8.411   4.693  14.317
28391SOL     OW87004   0.673   5.696  11.513
28391SOL    HW187005   0.751   5.690  11.459
28391SOL    HW287006   0.614   5.753  11.464
28392SOL     OW87007  10.677   6.716   6.242
28392SOL    HW187008  10.698   6.794   6.294
28392SOL    HW287009  10.657   6.648   6.307
28393SOL     OW87010   4.904  13.405   2.190
28393SOL    HW187011   4.911  13.437   2.280
28393SOL    HW287012   4.971  13.452   2.142
28394SOL     OW87013   8.690   2.445   5.797
28394SOL    HW187014   8.753   2.388   5.753
28394SOL    HW287015   8.673   2.403   5.881
28395SOL     OW87016   9.105   5.860   5.455
28395SOL    HW187017   9.077   5.838   5.544
28395SOL    HW287018   9.151   5.944   5.464
28396SOL     OW87019   5.141  13.046   8.058
28396SOL    HW187020   5.127  12.953   8.073
28396SOL    HW287021   5.154  13.053   7.963
28397SOL     OW87022  14.348  12.181  13.810
28397SOL    HW187023  14.316  12.190  13.720
28397SOL    HW287024  14.326  12.091  13.834
28398SOL     OW87025  10.600   1.998  12.294
28398SOL    HW187026  10.665   2.053  12.337
28398SOL    HW287027  10.640   1.912  12.291
28399SOL     OW87028  10.515   0.139   1.483
28399SOL    HW187029  10.454   0.208   1.459
28399SOL    HW287030  10.534   0.154   1.575
28400SOL     OW87031  14.525  12.659  11.874
28400SOL    HW187032  14.571  12.587  11.833
28400SOL    HW287033  14.590  12.729  11.881
28401SOL     OW87034  11.358  12.242  13.258
28401SOL    HW187035  11.382  12.157  13.219
28401SOL    HW287036  11.324  12.220  13.344
28402SOL     OW87037   6.972   0.816   3.910
28402SOL    HW187038   6.994   0.870   3.835
28402SOL    HW287039   7.041   0.833   3.974
28403SOL     OW87040   5.214  14.685   5.049
28403SOL    HW187041   5.167  14.654   5.126
28403SOL    HW287042   5.257  14.765   5.077
28404SOL     OW87043   7.751   9.729   3.182
28404SOL    HW187044   7.689   9.659   3.203
28404SOL    HW287045   7.837   9.691   3.200
28405SOL     OW87046  12.456  11.226   9.671
28405SOL    HW187047  12.435  11.143   9.629
28405SOL    HW287048  12.383  11.242   9.732
28406SOL     OW87049   1.529   6.918   0.716
28406SOL    HW187050   1.528   6.895   0.623
28406SOL    HW287051   1.499   7.009   0.719
28407SOL     OW87052   3.758   1.468  13.399
28407SOL    HW187053   3.769   1.512  13.315
28407SOL    HW287054   3.760   1.538  13.464
28408SOL     OW87055   7.735   6.655  12.602
28408SOL    HW187056   7.731   6.715  12.528
28408SOL    HW287057   7.688   6.701  12.672
28409SOL     OW87058   1.319   5.322   1.929
28409SOL    HW187059   1.335   5.343   1.837
28409SOL    HW287060   1.245   5.378   1.953
28410SOL     OW87061   8.457   2.884   4.080
28410SOL    HW187062   8.437   2.825   4.152
28410SOL    HW287063   8.393   2.861   4.012
28411SOL     OW87064   6.653  10.191  11.989
28411SOL    HW187065   6.639  10.098  11.971
28411SOL    HW287066   6.588  10.212  12.056
28412SOL     OW87067   9.867  13.928   7.616
28412SOL    HW187068   9.829  13.857   7.667
28412SOL    HW287069   9.820  13.925   7.533
28413SOL     OW87070  12.040  12.242   7.457
28413SOL    HW187071  12.110  12.197   7.503
28413SOL    HW287072  11.981  12.172   7.429
28414SOL     OW87073  12.265   6.908   7.052
28414SOL    HW187074  12.272   6.921   6.957
28414SOL    HW287075  12.174   6.883   7.066
28415SOL     OW87076   0.204  12.911   5.293
28415SOL    HW187077   0.175  12.973   5.360
28415SOL    HW287078   0.181  12.825   5.329
28416SOL     OW87079   5.999   4.671   3.422
28416SOL    HW187080   6.022   4.755   3.461
28416SOL    HW287081   5.904   4.671   3.418
28417SOL     OW87082   3.351  10.100  13.104
28417SOL    HW187083   3.314  10.092  13.192
28417SOL    HW287084   3.410  10.175  13.109
28418SOL     OW87085  12.626  14.123   1.069
28418SOL    HW187086  12.647  14.055   1.133
28418SOL    HW287087  12.598  14.074   0.991
28419SOL     OW87088   0.098   2.693   5.039
28419SOL    HW187089   0.127   2.673   4.951
28419SOL    HW287090   0.003   2.705   5.031
28420SOL     OW87091   9.235   6.140  12.218
28420SOL    HW187092   9.235   6.167  12.310
28420SOL    HW287093   9.148   6.166  12.186
28421SOL     OW87094   1.594   5.862  11.252
28421SOL    HW187095   1.602   5.931  11.186
28421SOL    HW287096   1.681   5.823  11.257
28422SOL     OW87097   1.434  14.065  14.216
28422SOL    HW187098   1.497  14.070  14.144
28422SOL    HW287099   1.363  14.123  14.190
28423SOL     OW87100  14.609  12.038   9.949
28423SOL    HW187101  14.555  12.046   9.870
28423SOL    HW287102  14.584  11.954   9.986
28424SOL     OW87103   1.331  10.011   5.284
28424SOL    HW187104   1.360   9.964   5.206
28424SOL    HW287105   1.412  10.037   5.328
28425SOL     OW87106  13.901   7.741   7.576
28425SOL    HW187107  13.807   7.749   7.594
28425SOL    HW287108  13.912   7.779   7.489
28426SOL     OW87109  12.735   7.139   5.961
28426SOL    HW187110  12.696   7.173   5.881
28426SOL    HW287111  12.734   7.213   6.022
28427SOL     OW87112   6.718  13.430   5.080
28427SOL    HW187113   6.798  13.459   5.037
28427SOL    HW287114   6.648  13.454   5.020
28428SOL     OW87115   9.705   8.679   8.456
28428SOL    HW187116   9.658   8.740   8.513
28428SOL    HW287117   9.762   8.630   8.515
28429SOL     OW87118   3.898   9.496  13.000
28429SOL    HW187119   3.870   9.420  12.950
28429SOL    HW287120   3.956   9.461  13.068
28430SOL     OW87121   6.654   4.147  12.665
28430SOL    HW187122   6.691   4.093  12.595
28430SOL    HW287123   6.691   4.109  12.745
28431SOL     OW87124   0.245  13.083   0.495
28431SOL    HW187125   0.168  13.029   0.510
28431SOL    HW287126   0.246  13.144   0.569
28432SOL     OW87127  14.194   5.567   3.312
28432SOL    HW187128  14.188   5.544   3.220
28432SOL    HW287129  14.138   5.503   3.357
28433SOL     OW87130  14.122  12.898   5.225
28433SOL    HW187131  14.086  12.933   5.307
28433SOL    HW287132  14.164  12.815   5.251
28434SOL     OW87133   3.164   9.801   3.874
28434SOL    HW187134   3.085   9.756   3.846
28434SOL    HW287135   3.135   9.858   3.946
28435SOL     OW87136   0.939   9.701   7.454
28435SOL    HW187137   1.023   9.669   7.419
28435SOL    HW287138   0.950   9.796   7.460
28436SOL     OW87139  13.621   9.492  10.201
28436SOL    HW187140  13.647   9.420  10.143
28436SOL    HW287141  13.703   9.534  10.225
28437SOL     OW87142   8.817  13.705   4.208
28437SOL    HW187143   8.789  13.673   4.122
28437SOL    HW287144   8.882  13.641   4.238
28438SOL     OW87145   0.959   6.139   4.192
28438SOL    HW187146   1.049   6.121   4.218
28438SOL    HW287147   0.920   6.183   4.268
28439SOL     OW87148  12.369  13.296  11.696
28439SOL    HW187149  12.459  13.268  11.713
28439SOL    HW287150  12.338  13.331  11.779
28440SOL     OW87151   8.562  11.665  14.813
28440SOL    HW187152   8.570  11.601   0.007
28440SOL    HW287153   8.554  11.749  14.858
28441SOL     OW87154   4.823   0.299  11.556
28441SOL    HW187155   4.895   0.360  11.571
28441SOL    HW287156   4.819   0.247  11.636
28442SOL     OW87157   1.342   4.028   5.068
28442SOL    HW187158   1.270   4.001   5.011
28442SOL    HW287159   1.314   4.002   5.156
28443SOL     OW87160  11.271  14.852   1.148
28443SOL    HW187161  11.316  14.773   1.176
28443SOL    HW287162  11.342   0.037   1.126
28444SOL     OW87163   9.596  11.784   2.151
28444SOL    HW187164   9.594  11.841   2.074
28444SOL    HW287165   9.508  11.746   2.154
28445SOL     OW87166  12.772   2.504  11.685
28445SOL    HW187167  12.686   2.470  11.711
28445SOL    HW287168  12.768   2.510  11.590
28446SOL     OW87169   9.632   6.928   6.182
28446SOL    HW187170   9.701   6.863   6.169
28446SOL    HW287171   9.634   6.946   6.276
28447SOL     OW87172  10.863  14.465   9.241
28447SOL    HW187173  10.805  14.428   9.174
28447SOL    HW287174  10.804  14.509   9.302
28448SOL     OW87175  13.013  12.066  13.667
28448SOL    HW187176  13.057  11.987  13.636
28448SOL    HW287177  13.084  12.130  13.679
28449SOL     OW87178   0.616  10.766   7.183
28449SOL    HW187179   0.683  10.742   7.246
28449SOL    HW287180   0.618  10.696   7.118
28450SOL     OW87181   2.618   0.176  11.347
28450SOL    HW187182   2.698   0.126  11.332
28450SOL    HW287183   2.567   0.165  11.266
28451SOL     OW87184   4.389   6.748   1.311
28451SOL    HW187185   4.317   6.743   1.248
28451SOL    HW287186   4.372   6.827   1.362
28452SOL     OW87187   1.655   8.552   6.377
28452SOL    HW187188   1.688   8.468   6.408
28452SOL    HW287189   1.562   8.552   6.398
28453SOL     OW87190   9.289  11.663   4.762
28453SOL    HW187191   9.229  11.601   4.721
28453SOL    HW287192   9.292  11.737   4.702
28454SOL     OW87193  14.423  13.944   9.615
28454SOL    HW187194  14.466  13.869   9.656
28454SOL    HW287195  14.330  13.928   9.629
28455SOL     OW87196   9.924  14.726   0.209
28455SOL    HW187197   9.877  14.782   0.147
28455SOL    HW287198   9.854  14.684   0.260
28456SOL     OW87199   1.996   8.302  12.238
28456SOL    HW187200   2.018   8.221  12.283
28456SOL    HW287201   2.075   8.324  12.188
28457SOL     OW87202   9.351  13.647  12.561
28457SOL    HW187203   9.384  13.557  12.560
28457SOL    HW287204   9.277  13.644  12.621
28458SOL     OW87205  10.917   6.445   9.084
28458SOL    HW187206  10.825   6.474   9.082
28458SOL    HW287207  10.968   6.526   9.076
28459SOL     OW87208   4.694  14.190   1.333
28459SOL    HW187209   4.652  14.236   1.406
28459SOL    HW287210   4.777  14.236   1.321
28460SOL     OW87211  14.540  11.628   7.992
28460SOL    HW187212  14.611  11.577   7.953
28460SOL    HW287213  14.481  11.562   8.029
28461SOL     OW87214   8.810   7.749   0.578
28461SOL    HW187215   8.860   7.803   0.639
28461SOL    HW287216   8.753   7.810   0.531
28462SOL     OW87217   3.675  12.981   3.072
28462SOL    HW187218   3.668  12.914   3.139
28462SOL    HW287219   3.592  13.030   3.078
28463SOL     OW87220  11.276   0.037   4.830
28463SOL    HW187221  11.208   0.073   4.886
28463SOL    HW287222  11.289  14.824   4.862
28464SOL     OW87223   5.815  14.602   7.842
28464SOL    HW187224   5.793  14.517   7.880
28464SOL    HW287225   5.866  14.646   7.910
28465SOL     OW87226   6.654   1.435   6.513
28465SOL    HW187227   6.608   1.394   6.440
28465SOL    HW287228   6.734   1.384   6.524
28466SOL     OW87229   1.255  11.261   1.777
28466SOL    HW187230   1.343  11.236   1.747
28466SOL    HW287231   1.254  11.235   1.869
28467SOL     OW87232   8.643   1.964   3.871
28467SOL    HW187233   8.624   1.961   3.964
28467SOL    HW287234   8.737   1.947   3.864
28468SOL     OW87235  11.584  12.854   5.907
28468SOL    HW187236  11.650  12.785   5.913
28468SOL    HW287237  11.611  12.919   5.973
28469SOL     OW87238  13.752  13.439  10.315
28469SOL    HW187239  13.725  13.374  10.251
28469SOL    HW287240  13.817  13.493  10.269
28470SOL     OW87241   9.973   0.850  13.962
28470SOL    HW187242  10.038   0.908  14.002
28470SOL    HW287243   9.889   0.887  13.987
28471SOL     OW87244  12.236  12.231   1.273
28471SOL    HW187245  12.143  12.210   1.266
28471SOL    HW287246  12.244  12.279   1.356
28472SOL     OW87247   7.251   1.438   2.394
28472SOL    HW187248   7.179   1.386   2.431
28472SOL    HW287249   7.275   1.498   2.463
28473SOL     OW87250   2.707   4.926   5.133
28473SOL    HW187251   2.746   4.863   5.193
28473SOL    HW287252   2.778   4.950   5.074
28474SOL     OW87253  11.311   0.962   5.920
28474SOL    HW187254  11.309   0.984   6.013
28474SOL    HW287255  11.317   0.867   5.918
28475SOL     OW87256   4.351  10.414  10.144
28475SOL    HW187257   4.445  10.401  10.135
28475SOL    HW287258   4.316  10.329  10.169
28476SOL     OW87259   9.601  10.355   9.743
28476SOL    HW187260   9.533  10.386   9.804
28476SOL    HW287261   9.574  10.390   9.658
28477SOL     OW87262   8.423  10.599  11.475
28477SOL    HW187263   8.376  10.652  11.539
28477SOL    HW287264   8.401  10.640  11.391
28478SOL     OW87265   0.647   3.218  14.221
28478SOL    HW187266   0.694   3.252  14.297
28478SOL    HW287267   0.705   3.152  14.184
28479SOL     OW87268   4.996   2.431   0.406
28479SOL    HW187269   5.017   2.343   0.375
28479SOL    HW287270   4.901   2.438   0.398
28480SOL     OW87271  11.797   6.788   2.711
28480SOL    HW187272  11.755   6.721   2.765
28480SOL    HW287273  11.739   6.864   2.718
28481SOL     OW87274   6.788   6.681   5.873
28481SOL    HW187275   6.743   6.599   5.886
28481SOL    HW287276   6.829   6.701   5.957
28482SOL     OW87277   1.254  10.421   7.397
28482SOL    HW187278   1.297  10.480   7.334
28482SOL    HW287279   1.214  10.354   7.342
28483SOL     OW87280  13.310   3.676   3.890
28483SOL    HW187281  13.366   3.606   3.926
28483SOL    HW287282  13.268   3.715   3.967
28484SOL     OW87283   4.261   1.198  13.921
28484SOL    HW187284   4.260   1.149  14.003
28484SOL    HW287285   4.275   1.131  13.853
28485SOL     OW87286  12.189   5.102   9.705
28485SOL    HW187287  12.195   5.120   9.799
28485SOL    HW287288  12.103   5.062   9.694
28486SOL     OW87289   0.985  13.203  14.253
28486SOL    HW187290   1.065  13.252  14.270
28486SOL    HW287291   0.992  13.124  14.307
28487SOL     OW87292  10.266  12.013  12.754
28487SOL    HW187293  10.262  12.034  12.661
28487SOL    HW287294  10.175  12.003  12.781
28488SOL     OW87295   4.366   2.908  12.663
28488SOL    HW187296   4.361   2.921  12.568
28488SOL    HW287297   4.444   2.956  12.689
28489SOL     OW87298   3.025  12.333  10.811
28489SOL    HW187299   3.031  12.256  10.867
28489SOL    HW287300   2.931  12.349  10.803
28490SOL     OW87301   3.896   9.616   3.867
28490SOL    HW187302   3.803   9.626   3.845
28490SOL    HW287303   3.933   9.703   3.855
28491SOL     OW87304   8.127  10.263  12.474
28491SOL    HW187305   8.034  10.282  12.470
28491SOL    HW287306   8.160  10.280  12.386
28492SOL     OW87307   6.837   2.319  14.438
28492SOL    HW187308   6.895   2.278  14.372
28492SOL    HW287309   6.774   2.369  14.386
28493SOL     OW87310   8.822   9.936   6.116
28493SOL    HW187311   8.907   9.978   6.127
28493SOL    HW287312   8.762  10.008   6.097
28494SOL     OW87313   6.945  10.181   6.399
28494SOL    HW187314   7.040  10.170   6.407
28494SOL    HW287315   6.909  10.096   6.425
28495SOL     OW87316  14.606  12.979   2.653
28495SOL    HW187317  14.687  12.970   2.603
28495SOL    HW287318  14.568  13.062   2.624
28496SOL     OW87319   1.609  14.605  13.200
28496SOL    HW187320   1.627  14.610  13.106
28496SOL    HW287321   1.575  14.691  13.223
28497SOL     OW87322  14.653  10.644   5.529
28497SOL    HW187323  14.652  10.739   5.528
28497SOL    HW287324  14.577  10.619   5.582
28498SOL     OW87325   3.859   7.623   6.845
28498SOL    HW187326   3.856   7.705   6.896
28498SOL    HW287327   3.821   7.646   6.761
28499SOL     OW87328   9.012   6.110  14.857
28499SOL    HW187329   9.059   6.168   0.040
28499SOL    HW287330   9.069   6.034  14.847
28500SOL     OW87331   2.243  13.895  11.257
28500SOL    HW187332   2.277  13.841  11.329
28500SOL    HW287333   2.289  13.978  11.266
28501SOL     OW87334  14.300  11.640   0.877
28501SOL    HW187335  14.372  11.618   0.936
28501SOL    HW287336  14.225  11.652   0.935
28502SOL     OW87337   1.869   8.531   0.545
28502SOL    HW187338   1.797   8.592   0.558
28502SOL    HW287339   1.866   8.510   0.451
28503SOL     OW87340   6.491  12.758   4.434
28503SOL    HW187341   6.435  12.685   4.408
28503SOL    HW287342   6.504  12.747   4.528
28504SOL     OW87343   6.062   2.903   6.345
28504SOL    HW187344   6.022   2.846   6.280
28504SOL    HW287345   5.990   2.959   6.375
28505SOL     OW87346   1.691  12.405   6.194
28505SOL    HW187347   1.637  12.458   6.135
28505SOL    HW287348   1.779  12.407   6.155
28506SOL     OW87349   7.354  10.934   0.905
28506SOL    HW187350   7.431  10.921   0.961
28506SOL    HW287351   7.281  10.900   0.957
28507SOL     OW87352  11.322   0.848   3.133
28507SOL    HW187353  11.345   0.757   3.152
28507SOL    HW287354  11.263   0.873   3.204
28508SOL     OW87355  12.045  12.555   0.814
28508SOL    HW187356  12.139  12.541   0.806
28508SOL    HW287357  12.012  12.475   0.854
28509SOL     OW87358  12.076  14.569  11.928
28509SOL    HW187359  12.079  14.645  11.869
28509SOL    HW287360  12.003  14.517  11.895
28510SOL     OW87361  10.871  11.267   4.359
28510SOL    HW187362  10.776  11.261   4.349
28510SOL    HW287363  10.892  11.356   4.330
28511SOL     OW87364   6.577   9.586  11.989
28511SOL    HW187365   6.595   9.680  11.990
28511SOL    HW287366   6.660   9.546  11.962
28512SOL     OW87367   3.157  13.233   5.831
28512SOL    HW187368   3.199  13.317   5.851
28512SOL    HW287369   3.068  13.257   5.806
28513SOL     OW87370   9.443   3.572   7.218
28513SOL    HW187371   9.375   3.537   7.160
28513SOL    HW287372   9.476   3.649   7.171
28514SOL     OW87373  12.243   0.147  14.215
28514SOL    HW187374  12.267   0.221  14.270
28514SOL    HW287375  12.324   0.098  14.204
28515SOL     OW87376  12.862  14.764   2.096
28515SOL    HW187377  12.955  14.746   2.107
28515SOL    HW287378  12.853  14.857   2.118
28516SOL     OW87379   9.745  13.010   6.087
28516SOL    HW187380   9.806  13.030   6.016
28516SOL    HW287381   9.659  13.036   6.054
28517SOL     OW87382   9.213   8.215   9.365
28517SOL    HW187383   9.164   8.145   9.408
28517SOL    HW287384   9.213   8.192   9.272
28518SOL     OW87385   4.206   1.240  12.396
28518SOL    HW187386   4.122   1.205  12.428
28518SOL    HW287387   4.272   1.196  12.450
28519SOL     OW87388  14.795  14.383   2.394
28519SOL    HW187389  14.849  14.462   2.390
28519SOL    HW287390  14.721  14.401   2.337
28520SOL     OW87391   4.296   6.785   3.710
28520SOL    HW187392   4.283   6.691   3.710
28520SOL    HW287393   4.381   6.799   3.752
28521SOL     OW87394   3.275  12.334   8.789
28521SOL    HW187395   3.314  12.421   8.798
28521SOL    HW287396   3.287  12.312   8.697
28522SOL     OW87397  14.667   6.833   3.303
28522SOL    HW187398  14.655   6.824   3.208
28522SOL    HW287399  14.671   6.742   3.334
28523SOL     OW87400   2.712  11.954   3.013
28523SOL    HW187401   2.796  11.972   3.055
28523SOL    HW287402   2.656  11.925   3.085
28524SOL     OW87403   4.688   9.273   5.852
28524SOL    HW187404   4.735   9.210   5.906
28524SOL    HW287405   4.612   9.298   5.904
28525SOL     OW87406   3.038   6.004   6.948
28525SOL    HW187407   3.092   5.933   6.914
28525SOL    HW287408   3.048   6.074   6.884
28526SOL     OW87409   0.770  12.842  12.697
28526SOL    HW187410   0.856  12.868  12.662
28526SOL    HW287411   0.778  12.856  12.791
28527SOL     OW87412   1.216   7.623   5.711
28527SOL    HW187413   1.121   7.627   5.719
28527SOL    HW287414   1.248   7.611   5.800
28528SOL     OW87415   2.019   3.776   0.182
28528SOL    HW187416   2.100   3.780   0.131
28528SOL    HW287417   2.004   3.682   0.196
28529SOL     OW87418  11.213   2.599   9.955
28529SOL    HW187419  11.291   2.654   9.949
28529SOL    HW287420  11.187   2.584   9.864
28530SOL     OW87421   2.439   4.115   5.866
28530SOL    HW187422   2.373   4.151   5.926
28530SOL    HW287423   2.395   4.111   5.781
28531SOL     OW87424   5.509   3.692   5.134
28531SOL    HW187425   5.520   3.612   5.083
28531SOL    HW287426   5.417   3.715   5.122
28532SOL     OW87427   6.724  12.137   0.409
28532SOL    HW187428   6.804  12.189   0.411
28532SOL    HW287429   6.654  12.202   0.404
28533SOL     OW87430   9.810   4.155  13.736
28533SOL    HW187431   9.817   4.206  13.655
28533SOL    HW287432   9.874   4.085  13.726
28534SOL     OW87433  14.271   1.438   8.749
28534SOL    HW187434  14.226   1.357   8.775
28534SOL    HW287435  14.252   1.447   8.656
28535SOL     OW87436  13.169   8.809  14.526
28535SOL    HW187437  13.078   8.803  14.496
28535SOL    HW287438  13.169   8.884  14.586
28536SOL     OW87439  12.695  11.066  11.160
28536SOL    HW187440  12.699  11.161  11.147
28536SOL    HW287441  12.631  11.055  11.231
28537SOL     OW87442   3.189   8.124   8.272
28537SOL    HW187443   3.248   8.192   8.303
28537SOL    HW287444   3.145   8.093   8.351
28538SOL     OW87445   2.868   7.184  13.187
28538SOL    HW187446   2.961   7.163  13.200
28538SOL    HW287447   2.821   7.110  13.225
28539SOL     OW87448   4.991  11.578   9.826
28539SOL    HW187449   4.917  11.521   9.807
28539SOL    HW287450   5.065  11.538   9.780
28540SOL     OW87451   6.907   3.385   0.129
28540SOL    HW187452   6.906   3.296   0.092
28540SOL    HW287453   6.986   3.387   0.183
28541SOL     OW87454   9.063   7.375  12.779
28541SOL    HW187455   9.115   7.455  12.787
28541SOL    HW287456   9.127   7.305  12.792
28542SOL     OW87457   4.408   3.467   2.368
28542SOL    HW187458   4.402   3.411   2.290
28542SOL    HW287459   4.406   3.556   2.335
28543SOL     OW87460   3.329  10.798   8.923
28543SOL    HW187461   3.327  10.893   8.929
28543SOL    HW287462   3.363  10.780   8.835
28544SOL     OW87463   6.299  12.790   0.020
28544SOL    HW187464   6.245  12.711   0.027
28544SOL    HW287465   6.238  12.863   0.034
28545SOL     OW87466   8.204   9.909  13.266
28545SOL    HW187467   8.160   9.946  13.189
28545SOL    HW287468   8.175   9.818  13.268
28546SOL     OW87469   8.208   6.386   5.326
28546SOL    HW187470   8.278   6.432   5.279
28546SOL    HW287471   8.127   6.417   5.285
28547SOL     OW87472   7.120   9.626  10.080
28547SOL    HW187473   7.161   9.707  10.050
28547SOL    HW287474   7.101   9.576  10.001
28548SOL     OW87475   5.201  10.229   1.745
28548SOL    HW187476   5.150  10.246   1.825
28548SOL    HW287477   5.147  10.265   1.675
28549SOL     OW87478   6.242  14.665  10.095
28549SOL    HW187479   6.193  14.701  10.170
28549SOL    HW287480   6.318  14.622  10.135
28550SOL     OW87481   0.648   2.989   3.658
28550SOL    HW187482   0.636   2.922   3.725
28550SOL    HW287483   0.731   2.967   3.616
28551SOL     OW87484   1.914   0.029  12.313
28551SOL    HW187485   1.934  14.858  12.232
28551SOL    HW287486   1.886   0.116  12.285
28552SOL     OW87487   9.290   6.349   4.754
28552SOL    HW187488   9.338   6.400   4.688
28552SOL    HW287489   9.259   6.414   4.817
28553SOL     OW87490   7.260  10.338   3.359
28553SOL    HW187491   7.187  10.293   3.402
28553SOL    HW287492   7.240  10.332   3.265
28554SOL     OW87493   6.326   5.491   9.303
28554SOL    HW187494   6.359   5.578   9.278
28554SOL    HW287495   6.397   5.431   9.281
28555SOL     OW87496   5.247  14.578   4.508
28555SOL    HW187497   5.184  14.603   4.576
28555SOL    HW287498   5.254  14.656   4.452
28556SOL     OW87499  10.832  12.708   6.578
28556SOL    HW187500  10.780  12.684   6.655
28556SOL    HW287501  10.816  12.801   6.566
28557SOL     OW87502   8.914   0.233   8.757
28557SOL    HW187503   8.939   0.303   8.816
28557SOL    HW287504   8.879   0.277   8.680
28558SOL     OW87505   7.305   0.859   8.328
28558SOL    HW187506   7.271   0.841   8.240
28558SOL    HW287507   7.282   0.950   8.344
28559SOL     OW87508   3.293   1.922   3.378
28559SOL    HW187509   3.234   1.964   3.315
28559SOL    HW287510   3.340   1.995   3.418
28560SOL     OW87511   4.340   7.558   8.707
28560SOL    HW187512   4.418   7.504   8.723
28560SOL    HW287513   4.312   7.585   8.794
28561SOL     OW87514   6.452   0.703  12.421
28561SOL    HW187515   6.437   0.624  12.369
28561SOL    HW287516   6.541   0.694  12.453
28562SOL     OW87517   7.661   9.143   5.455
28562SOL    HW187518   7.702   9.070   5.408
28562SOL    HW287519   7.572   9.145   5.421
28563SOL     OW87520   5.317  11.928   9.747
28563SOL    HW187521   5.383  11.997   9.756
28563SOL    HW287522   5.327  11.876   9.826
28564SOL     OW87523   2.789   7.682   8.438
28564SOL    HW187524   2.762   7.626   8.365
28564SOL    HW287525   2.873   7.718   8.410
28565SOL     OW87526   2.821   3.129   3.341
28565SOL    HW187527   2.907   3.118   3.300
28565SOL    HW287528   2.813   3.223   3.355
28566SOL     OW87529   3.206   9.257   4.551
28566SOL    HW187530   3.240   9.290   4.635
28566SOL    HW287531   3.168   9.335   4.509
28567SOL     OW87532   9.926  11.120  13.567
28567SOL    HW187533   9.872  11.197  13.550
28567SOL    HW287534   9.915  11.065  13.490
28568SOL     OW87535   2.054   8.170   3.776
28568SOL    HW187536   2.004   8.096   3.809
28568SOL    HW287537   2.004   8.247   3.804
28569SOL     OW87538   6.899  10.980   8.488
28569SOL    HW187539   6.909  11.001   8.395
28569SOL    HW287540   6.806  10.958   8.497
28570SOL     OW87541   5.072   2.872   4.906
28570SOL    HW187542   5.016   2.800   4.937
28570SOL    HW287543   5.013   2.930   4.858
28571SOL     OW87544   8.310  12.748   4.644
28571SOL    HW187545   8.273  12.799   4.716
28571SOL    HW287546   8.391  12.711   4.680
28572SOL     OW87547  10.603   6.083   4.895
28572SOL    HW187548  10.647   5.998   4.883
28572SOL    HW287549  10.511   6.065   4.877
28573SOL     OW87550   6.981   4.243   9.900
28573SOL    HW187551   6.959   4.195   9.820
28573SOL    HW287552   7.002   4.175   9.964
28574SOL     OW87553   2.017   7.827   6.383
28574SOL    HW187554   1.980   7.800   6.467
28574SOL    HW287555   1.943   7.867   6.336
28575SOL     OW87556   2.656   0.129   0.576
28575SOL    HW187557   2.640   0.057   0.636
28575SOL    HW287558   2.685   0.087   0.495
28576SOL     OW87559   7.394   2.740   9.251
28576SOL    HW187560   7.454   2.719   9.323
28576SOL    HW287561   7.372   2.832   9.265
28577SOL     OW87562   9.546  14.537   0.170
28577SOL    HW187563   9.538  14.574   0.083
28577SOL    HW287564   9.467  14.565   0.216
28578SOL     OW87565  13.506   9.108   3.087
28578SOL    HW187566  13.567   9.042   3.053
28578SOL    HW287567  13.550   9.191   3.070
28579SOL     OW87568   2.716  12.995  10.944
28579SOL    HW187569   2.673  13.000  11.029
28579SOL    HW287570   2.806  13.023  10.961
28580SOL     OW87571   3.966   4.779  14.782
28580SOL    HW187572   4.037   4.842  14.767
28580SOL    HW287573   3.937   4.795  14.871
28581SOL     OW87574  14.216   8.286   7.599
28581SOL    HW187575  14.234   8.230   7.524
28581SOL    HW287576  14.163   8.357   7.563
28582SOL     OW87577  14.681   2.757  10.037
28582SOL    HW187578  14.633   2.683  10.000
28582SOL    HW287579  14.724   2.798   9.961
28583SOL     OW87580   0.827   7.228   5.728
28583SOL    HW187581   0.880   7.289   5.677
28583SOL    HW287582   0.889   7.188   5.789
28584SOL     OW87583   2.440   9.639   2.929
28584SOL    HW187584   2.460   9.625   2.837
28584SOL    HW287585   2.487   9.569   2.975
28585SOL     OW87586   7.273   2.060   8.040
28585SOL    HW187587   7.212   2.025   7.975
28585SOL    HW287588   7.219   2.075   8.117
28586SOL     OW87589  11.551   0.220   8.191
28586SOL    HW187590  11.636   0.185   8.220
28586SOL    HW287591  11.544   0.305   8.234
28587SOL     OW87592   9.525  14.485   7.881
28587SOL    HW187593   9.446  14.498   7.934
28587SOL    HW287594   9.584  14.435   7.937
28588SOL     OW87595   5.176   7.519  10.711
28588SOL    HW187596   5.244   7.474  10.661
28588SOL    HW287597   5.222   7.557  10.786
28589SOL     OW87598  12.674   7.974  11.176
28589SOL    HW187599  12.627   8.010  11.251
28589SOL    HW287600  12.758   7.946  11.213
28590SOL     OW87601  13.751   7.199   8.175
28590SOL    HW187602  13.701   7.279   8.195
28590SOL    HW287603  13.801   7.222   8.096
28591SOL     OW87604   2.426   4.544  14.167
28591SOL    HW187605   2.387   4.505  14.089
28591SOL    HW287606   2.440   4.471  14.226
28592SOL     OW87607   7.151   5.793   4.565
28592SOL    HW187608   7.193   5.823   4.645
28592SOL    HW287609   7.195   5.842   4.495
28593SOL     OW87610   2.871  11.593   1.613
28593SOL    HW187611   2.937  11.524   1.617
28593SOL    HW287612   2.884  11.634   1.528
28594SOL     OW87613   4.341   1.447  10.667
28594SOL    HW187614   4.282   1.479  10.735
28594SOL    HW287615   4.303   1.363  10.641
28595SOL     OW87616   2.358   9.099  11.842
28595SOL    HW187617   2.361   9.094  11.938
28595SOL    HW287618   2.410   9.176  11.821
28596SOL     OW87619  14.301   2.313   8.356
28596SOL    HW187620  14.260   2.319   8.270
28596SOL    HW287621  14.388   2.277   8.339
28597SOL     OW87622   0.806   7.968   1.105
28597SOL    HW187623   0.770   7.893   1.152
28597SOL    HW287624   0.877   7.999   1.160
28598SOL     OW87625   6.024  12.117   2.791
28598SOL    HW187626   6.028  12.041   2.732
28598SOL    HW287627   5.935  12.151   2.779
28599SOL     OW87628   1.167   7.234   7.242
28599SOL    HW187629   1.212   7.218   7.325
28599SOL    HW287630   1.136   7.325   7.249
28600SOL     OW87631   0.027  13.115   9.943
28600SOL    HW187632   0.107  13.148   9.983
28600SOL    HW287633   0.057  13.073   9.862
28601SOL     OW87634   7.275  11.790   2.101
28601SOL    HW187635   7.338  11.860   2.084
28601SOL    HW287636   7.215  11.827   2.165
28602SOL     OW87637  10.845  13.653   2.265
28602SOL    HW187638  10.836  13.700   2.349
28602SOL    HW287639  10.803  13.568   2.280
28603SOL     OW87640   0.550   9.508   7.953
28603SOL    HW187641   0.508   9.443   8.010
28603SOL    HW287642   0.639   9.476   7.940
28604SOL     OW87643   9.435   6.689  12.358
28604SOL    HW187644   9.373   6.755  12.388
28604SOL    HW287645   9.509   6.697  12.417
28605SOL     OW87646   9.575  11.698   4.681
28605SOL    HW187647   9.487  11.678   4.713
28605SOL    HW287648   9.584  11.793   4.690
28606SOL     OW87649  14.418  10.365   8.242
28606SOL    HW187650  14.334  10.334   8.209
28606SOL    HW287651  14.481  10.336   8.177
28607SOL     OW87652   2.198  13.555  14.600
28607SOL    HW187653   2.110  13.553  14.637
28607SOL    HW287654   2.215  13.648  14.583
28608SOL     OW87655   6.641   5.605   3.962
28608SOL    HW187656   6.608   5.652   3.886
28608SOL    HW287657   6.573   5.541   3.982
28609SOL     OW87658   7.205  10.481   1.145
28609SOL    HW187659   7.296  10.458   1.165
28609SOL    HW287660   7.158  10.470   1.227
28610SOL     OW87661   7.663  10.857   9.649
28610SOL    HW187662   7.609  10.799   9.596
28610SOL    HW287663   7.677  10.808   9.730
28611SOL     OW87664  10.234  11.605   7.284
28611SOL    HW187665  10.307  11.659   7.315
28611SOL    HW287666  10.220  11.542   7.355
28612SOL     OW87667   1.334   7.273   6.973
28612SOL    HW187668   1.319   7.352   7.026
28612SOL    HW287669   1.387   7.304   6.899
28613SOL     OW87670   1.459   5.207   3.147
28613SOL    HW187671   1.492   5.153   3.219
28613SOL    HW287672   1.366   5.218   3.165
28614SOL     OW87673   3.323  13.434   1.052
28614SOL    HW187674   3.228  13.437   1.041
28614SOL    HW287675   3.335  13.401   1.141
28615SOL     OW87676   3.563   1.346  11.899
28615SOL    HW187677   3.613   1.357  11.818
28615SOL    HW287678   3.584   1.258  11.929
28616SOL     OW87679  13.978  11.522  12.103
28616SOL    HW187680  13.945  11.609  12.077
28616SOL    HW287681  13.901  11.478  12.138
28617SOL     OW87682   9.327   7.341   0.259
28617SOL    HW187683   9.376   7.269   0.297
28617SOL    HW287684   9.294   7.308   0.176
28618SOL     OW87685   4.450  14.146  11.284
28618SOL    HW187686   4.466  14.060  11.245
28618SOL    HW287687   4.357  14.161  11.269
28619SOL     OW87688   0.909   0.293   5.063
28619SOL    HW187689   0.852   0.355   5.109
28619SOL    HW287690   0.992   0.297   5.111
28620SOL     OW87691   1.327   5.732  14.007
28620SOL    HW187692   1.323   5.716  14.101
28620SOL    HW287693   1.339   5.645  13.969
28621SOL     OW87694   0.799  11.469   5.344
28621SOL    HW187695   0.777  11.477   5.251
28621SOL    HW287696   0.724  11.508   5.389
28622SOL     OW87697   5.600   0.603   5.147
28622SOL    HW187698   5.602   0.531   5.085
28622SOL    HW287699   5.616   0.681   5.094
28623SOL     OW87700   5.079   2.562   7.303
28623SOL    HW187701   5.005   2.581   7.245
28623SOL    HW287702   5.149   2.620   7.272
28624SOL     OW87703   5.813  14.494  13.051
28624SOL    HW187704   5.812  14.583  13.015
28624SOL    HW287705   5.905  14.477  13.071
28625SOL     OW87706  12.490  10.492   3.061
28625SOL    HW187707  12.537  10.561   3.014
28625SOL    HW287708  12.400  10.497   3.029
28626SOL     OW87709   5.118   3.666   6.285
28626SOL    HW187710   5.143   3.573   6.283
28626SOL    HW287711   5.031   3.668   6.244
28627SOL     OW87712  10.280  10.647   9.159
28627SOL    HW187713  10.292  10.552   9.159
28627SOL    HW287714  10.368  10.683   9.155
28628SOL     OW87715  13.404   9.221  14.509
28628SOL    HW187716  13.453   9.302  14.500
28628SOL    HW287717  13.414   9.177  14.425
28629SOL     OW87718   9.653   5.855   7.413
28629SOL    HW187719   9.637   5.763   7.391
28629SOL    HW287720   9.575   5.883   7.460
28630SOL     OW87721   0.957  12.698  12.899
28630SOL    HW187722   0.980  12.619  12.850
28630SOL    HW287723   0.863  12.687  12.918
28631SOL     OW87724   7.300  11.275   6.573
28631SOL    HW187725   7.307  11.181   6.553
28631SOL    HW287726   7.388  11.300   6.601
28632SOL     OW87727  13.268   2.194   5.482
28632SOL    HW187728  13.331   2.180   5.552
28632SOL    HW287729  13.313   2.165   5.403
28633SOL     OW87730   3.305   7.357   5.901
28633SOL    HW187731   3.254   7.416   5.845
28633SOL    HW287732   3.344   7.294   5.840
28634SOL     OW87733   9.925  14.360   1.655
28634SOL    HW187734  10.011  14.388   1.624
28634SOL    HW287735   9.899  14.291   1.593
28635SOL     OW87736   5.817   9.245   8.165
28635SOL    HW187737   5.890   9.191   8.136
28635SOL    HW287738   5.821   9.240   8.261
28636SOL     OW87739   9.132   3.058  11.631
28636SOL    HW187740   9.152   2.989  11.568
28636SOL    HW287741   9.055   3.102  11.594
28637SOL     OW87742   7.430   9.771   4.253
28637SOL    HW187743   7.482   9.842   4.290
28637SOL    HW287744   7.399   9.722   4.329
28638SOL     OW87745   8.229  11.682   7.230
28638SOL    HW187746   8.299  11.630   7.270
28638SOL    HW287747   8.204  11.633   7.151
28639SOL     OW87748   2.149   1.242   6.542
28639SOL    HW187749   2.152   1.305   6.614
28639SOL    HW287750   2.067   1.261   6.496
28640SOL     OW87751   4.437   5.610  12.834
28640SOL    HW187752   4.415   5.543  12.899
28640SOL    HW287753   4.368   5.676  12.843
28641SOL     OW87754  12.869   7.365   7.550
28641SOL    HW187755  12.777   7.386   7.530
28641SOL    HW287756  12.904   7.447   7.586
28642SOL     OW87757   4.823  11.158   0.237
28642SOL    HW187758   4.908  11.198   0.253
28642SOL    HW287759   4.764  11.233   0.223
28643SOL     OW87760  11.937   1.887  11.835
28643SOL    HW187761  11.871   1.944  11.796
28643SOL    HW287762  12.007   1.884  11.770
28644SOL     OW87763  10.931  13.624  11.992
28644SOL    HW187764  10.961  13.704  12.037
28644SOL    HW287765  10.998  13.559  12.013
28645SOL     OW87766   0.972  13.591  14.118
28645SOL    HW187767   0.976  13.565  14.210
28645SOL    HW287768   0.961  13.508  14.071
28646SOL     OW87769   9.006   2.205   0.152
28646SOL    HW187770   8.927   2.259   0.154
28646SOL    HW287771   8.978   2.118   0.181
28647SOL     OW87772   5.068  12.428   8.501
28647SOL    HW187773   5.041  12.464   8.585
28647SOL    HW287774   4.989  12.428   8.447
28648SOL     OW87775  11.311  12.819   7.393
28648SOL    HW187776  11.388  12.779   7.353
28648SOL    HW287777  11.258  12.746   7.423
28649SOL     OW87778   4.756   9.584   3.433
28649SOL    HW187779   4.777   9.591   3.340
28649SOL    HW287780   4.842   9.579   3.476
28650SOL     OW87781   7.777   5.263  13.127
28650SOL    HW187782   7.688   5.289  13.102
28650SOL    HW287783   7.832   5.295  13.056
28651SOL     OW87784   3.221   8.890   6.795
28651SOL    HW187785   3.308   8.923   6.818
28651SOL    HW287786   3.180   8.962   6.747
28652SOL     OW87787   1.462  12.107   7.824
28652SOL    HW187788   1.536  12.134   7.878
28652SOL    HW287789   1.387  12.153   7.863
28653SOL     OW87790   4.292   7.134   7.434
28653SOL    HW187791   4.322   7.061   7.488
28653SOL    HW287792   4.285   7.098   7.346
28654SOL     OW87793  11.809   6.610   7.266
28654SOL    HW187794  11.765   6.526   7.279
28654SOL    HW287795  11.754   6.657   7.204
28655SOL     OW87796   4.428   9.757   0.153
28655SOL    HW187797   4.365   9.819   0.190
28655SOL    HW287798   4.455   9.703   0.227
28656SOL     OW87799  11.275   5.745  10.783
28656SOL    HW187800  11.305   5.778  10.868
28656SOL    HW287801  11.183   5.770  10.778
28657SOL     OW87802   4.405   0.451   0.755
28657SOL    HW187803   4.390   0.442   0.661
28657SOL    HW287804   4.361   0.533   0.779
28658SOL     OW87805  14.096   9.439   6.939
28658SOL    HW187806  14.046   9.358   6.939
28658SOL    HW287807  14.180   9.416   6.979
28659SOL     OW87808  14.418   3.975  13.326
28659SOL    HW187809  14.460   3.922  13.394
28659SOL    HW287810  14.337   4.005  13.367
28660SOL     OW87811   5.547   1.206  13.097
28660SOL    HW187812   5.452   1.217  13.093
28660SOL    HW287813   5.583   1.287  13.061
28661SOL     OW87814   6.848   9.113   8.409
28661SOL    HW187815   6.815   9.126   8.499
28661SOL    HW287816   6.943   9.119   8.417
28662SOL     OW87817   8.955   2.839   1.227
28662SOL    HW187818   8.993   2.764   1.181
28662SOL    HW287819   9.027   2.901   1.236
28663SOL     OW87820  12.572  13.905  12.385
28663SOL    HW187821  12.643  13.965  12.361
28663SOL    HW287822  12.512  13.958  12.438
28664SOL     OW87823   3.140   3.041  10.494
28664SOL    HW187824   3.166   3.052  10.585
28664SOL    HW287825   3.218   3.061  10.443
28665SOL     OW87826   0.225  10.271  11.590
28665SOL    HW187827   0.171  10.200  11.625
28665SOL    HW287828   0.308  10.229  11.568
28666SOL     OW87829  12.962   7.722  14.357
28666SOL    HW187830  12.867   7.736  14.366
28666SOL    HW287831  12.998   7.748  14.441
28667SOL     OW87832  13.920  11.291   1.223
28667SOL    HW187833  13.847  11.246   1.267
28667SOL    HW287834  13.998  11.251   1.260
28668SOL     OW87835   6.016   8.765  10.285
28668SOL    HW187836   6.016   8.776  10.190
28668SOL    HW287837   5.925   8.746  10.307
28669SOL     OW87838   1.867   1.761   1.145
28669SOL    HW187839   1.898   1.851   1.136
28669SOL    HW287840   1.947   1.708   1.136
28670SOL     OW87841   9.932   6.421   3.241
28670SOL    HW187842   9.993   6.348   3.244
28670SOL    HW287843   9.985   6.498   3.265
28671SOL     OW87844  13.383   7.195   6.625
28671SOL    HW187845  13.322   7.137   6.671
28671SOL    HW287846  13.326   7.256   6.578
28672SOL     OW87847   9.802   6.991  11.417
28672SOL    HW187848   9.718   6.964  11.379
28672SOL    HW287849   9.812   7.082  11.390
28673SOL     OW87850  13.396   9.185   4.575
28673SOL    HW187851  13.424   9.196   4.484
28673SOL    HW287852  13.398   9.090   4.589
28674SOL     OW87853   4.975  12.717  14.184
28674SOL    HW187854   4.885  12.743  14.164
28674SOL    HW287855   4.973  12.622  14.179
28675SOL     OW87856   6.238  13.657  13.673
28675SOL    HW187857   6.155  13.618  13.701
28675SOL    HW287858   6.279  13.689  13.754
28676SOL     OW87859   1.663   4.671   2.530
28676SOL    HW187860   1.739   4.619   2.557
28676SOL    HW287861   1.651   4.735   2.600
28677SOL     OW87862   4.395   6.954   3.988
28677SOL    HW187863   4.430   7.026   4.041
28677SOL    HW287864   4.360   6.998   3.910
28678SOL     OW87865   7.984  13.894   5.803
28678SOL    HW187866   8.079  13.897   5.794
28678SOL    HW287867   7.966  13.806   5.837
28679SOL     OW87868  14.810   6.900  13.502
28679SOL    HW187869   0.010   6.919  13.447
28679SOL    HW287870  14.823   6.810  13.532
28680SOL     OW87871   7.890   4.198   4.850
28680SOL    HW187872   7.799   4.172   4.834
28680SOL    HW287873   7.933   4.190   4.765
28681SOL     OW87874  11.937   8.727   6.283
28681SOL    HW187875  11.904   8.816   6.274
28681SOL    HW287876  11.859   8.674   6.300
28682SOL     OW87877   4.822   8.893   6.471
28682SOL    HW187878   4.753   8.924   6.412
28682SOL    HW287879   4.814   8.797   6.470
28683SOL     OW87880   4.411   7.110   4.871
28683SOL    HW187881   4.494   7.128   4.827
28683SOL    HW287882   4.400   7.183   4.932
28684SOL     OW87883  12.182   5.950   1.390
28684SOL    HW187884  12.218   5.913   1.309
28684SOL    HW287885  12.201   6.044   1.385
28685SOL     OW87886   4.312  13.697   3.394
28685SOL    HW187887   4.333  13.685   3.301
28685SOL    HW287888   4.229  13.652   3.406
28686SOL     OW87889  13.850   7.371   6.632
28686SOL    HW187890  13.858   7.325   6.549
28686SOL    HW287891  13.770   7.424   6.623
28687SOL     OW87892  10.585   2.284   2.222
28687SOL    HW187893  10.663   2.338   2.211
28687SOL    HW287894  10.529   2.334   2.281
28688SOL     OW87895  14.562  11.842  11.279
28688SOL    HW187896  14.573  11.886  11.363
28688SOL    HW287897  14.470  11.817  11.276
28689SOL     OW87898   5.627  13.541  10.098
28689SOL    HW187899   5.711  13.579  10.125
28689SOL    HW287900   5.637  13.447  10.114
28690SOL     OW87901   3.447   5.844   6.379
28690SOL    HW187902   3.395   5.764   6.378
28690SOL    HW287903   3.471   5.856   6.471
28691SOL     OW87904   9.814  10.481   2.505
28691SOL    HW187905   9.847  10.571   2.512
28691SOL    HW287906   9.719  10.490   2.506
28692SOL     OW87907   7.494  10.416   6.566
28692SOL    HW187908   7.517  10.354   6.497
28692SOL    HW287909   7.488  10.363   6.645
28693SOL     OW87910  11.601   9.702  12.653
28693SOL    HW187911  11.608   9.797  12.665
28693SOL    HW287912  11.593   9.691  12.558
28694SOL     OW87913   3.690   6.369   4.532
28694SOL    HW187914   3.736   6.423   4.467
28694SOL    HW287915   3.672   6.287   4.487
28695SOL     OW87916  11.989  10.924   0.673
28695SOL    HW187917  12.042  10.876   0.609
28695SOL    HW287918  12.008  11.016   0.656
28696SOL     OW87919   0.258   1.041  14.106
28696SOL    HW187920   0.326   1.090  14.152
28696SOL    HW287921   0.205   1.002  14.176
28697SOL     OW87922  14.499   5.822  12.953
28697SOL    HW187923  14.474   5.850  12.866
28697SOL    HW287924  14.453   5.738  12.965
28698SOL     OW87925   1.644   0.123   0.712
28698SOL    HW187926   1.615   0.173   0.789
28698SOL    HW287927   1.566   0.073   0.686
28699SOL     OW87928  10.495   2.386   1.877
28699SOL    HW187929  10.516   2.479   1.884
28699SOL    HW287930  10.448   2.365   1.957
28700SOL     OW87931  14.661   3.945  10.449
28700SOL    HW187932  14.734   3.999  10.482
28700SOL    HW287933  14.657   3.872  10.510
28701SOL     OW87934   7.000   1.507   1.221
28701SOL    HW187935   6.997   1.532   1.129
28701SOL    HW287936   6.933   1.439   1.230
28702SOL     OW87937   9.098   9.520   7.026
28702SOL    HW187938   9.109   9.566   6.942
28702SOL    HW287939   9.095   9.590   7.091
28703SOL     OW87940   7.904   5.242  13.809
28703SOL    HW187941   7.919   5.250  13.903
28703SOL    HW287942   7.844   5.167  13.800
28704SOL     OW87943  12.632   9.819  14.375
28704SOL    HW187944  12.582   9.869  14.311
28704SOL    HW287945  12.663   9.884  14.438
28705SOL     OW87946   9.951  13.230   0.992
28705SOL    HW187947   9.909  13.248   1.076
28705SOL    HW287948   9.899  13.279   0.928
28706SOL     OW87949   5.311  10.978   5.587
28706SOL    HW187950   5.297  11.067   5.555
28706SOL    HW287951   5.230  10.932   5.566
28707SOL     OW87952  14.440   5.634  14.672
28707SOL    HW187953  14.477   5.657  14.587
28707SOL    HW287954  14.368   5.696  14.684
28708SOL     OW87955   2.859   8.545   9.872
28708SOL    HW187956   2.905   8.538   9.788
28708SOL    HW287957   2.831   8.455   9.890
28709SOL     OW87958   5.113   5.947   3.665
28709SOL    HW187959   5.093   5.949   3.758
28709SOL    HW287960   5.209   5.957   3.661
28710SOL     OW87961  12.855   8.585   6.286
28710SOL    HW187962  12.876   8.494   6.263
28710SOL    HW287963  12.761   8.592   6.270
28711SOL     OW87964  14.760   0.207  10.774
28711SOL    HW187965  14.820   0.161  10.714
28711SOL    HW287966  14.760   0.153  10.853
28712SOL     OW87967   9.905  10.960   5.560
28712SOL    HW187968   9.915  10.966   5.655
28712SOL    HW287969   9.875  10.870   5.545
28713SOL     OW87970  14.588   9.161   8.380
28713SOL    HW187971  14.587   9.074   8.420
28713SOL    HW287972  14.496   9.183   8.367
28714SOL     OW87973   5.252  11.681   8.326
28714SOL    HW187974   5.184  11.748   8.336
28714SOL    HW287975   5.240  11.624   8.402
28715SOL     OW87976  12.767   8.717  14.625
28715SOL    HW187977  12.797   8.626  14.630
28715SOL    HW287978  12.686   8.718  14.676
28716SOL     OW87979  11.510   2.968  12.895
28716SOL    HW187980  11.539   2.943  12.983
28716SOL    HW287981  11.546   2.901  12.837
28717SOL     OW87982  12.246   0.986   1.587
28717SOL    HW187983  12.164   0.979   1.637
28717SOL    HW287984  12.217   0.991   1.496
28718SOL     OW87985  11.266   6.120   8.938
28718SOL    HW187986  11.311   6.200   8.908
28718SOL    HW287987  11.192   6.111   8.878
28719SOL     OW87988  10.844   9.193   0.621
28719SOL    HW187989  10.910   9.261   0.610
28719SOL    HW287990  10.873   9.123   0.562
28720SOL     OW87991   6.058   3.606  10.891
28720SOL    HW187992   6.053   3.510  10.889
28720SOL    HW287993   5.976   3.633  10.933
28721SOL     OW87994  11.152   1.904   7.762
28721SOL    HW187995  11.106   1.902   7.678
28721SOL    HW287996  11.161   1.812   7.786
28722SOL     OW87997  12.705  11.230   7.818
28722SOL    HW187998  12.667  11.214   7.904
28722SOL    HW287999  12.631  11.255   7.763
28723SOL     OW88000   3.159   6.173   4.491
28723SOL    HW188001   3.232   6.136   4.541
28723SOL    HW288002   3.177   6.148   4.401
28724SOL     OW88003   2.521  13.047  12.811
28724SOL    HW188004   2.464  13.000  12.751
28724SOL    HW288005   2.487  13.136  12.812
28725SOL     OW88006   6.001   5.291  12.144
28725SOL    HW188007   6.010   5.380  12.108
28725SOL    HW288008   5.921   5.257  12.103
28726SOL     OW88009  14.045   1.436   0.689
28726SOL    HW188010  13.989   1.513   0.697
28726SOL    HW288011  14.114   1.450   0.754
28727SOL     OW88012  11.917   2.478   4.891
28727SOL    HW188013  11.919   2.417   4.817
28727SOL    HW288014  11.828   2.471   4.926
28728SOL     OW88015   2.888   2.644   1.662
28728SOL    HW188016   2.858   2.554   1.676
28728SOL    HW288017   2.983   2.638   1.664
28729SOL     OW88018   7.569   3.038   5.697
28729SOL    HW188019   7.523   3.096   5.636
28729SOL    HW288020   7.603   2.967   5.642
28730SOL     OW88021   0.558   1.453   4.639
28730SOL    HW188022   0.503   1.405   4.700
28730SOL    HW288023   0.507   1.453   4.557
28731SOL     OW88024   1.822  10.006   7.374
28731SOL    HW188025   1.906   9.960   7.371
28731SOL    HW288026   1.831  10.078   7.312
28732SOL     OW88027  14.394   8.664   4.568
28732SOL    HW188028  14.462   8.618   4.519
28732SOL    HW288029  14.311   8.629   4.533
28733SOL     OW88030   0.407   1.683   7.786
28733SOL    HW188031   0.365   1.672   7.701
28733SOL    HW288032   0.487   1.631   7.780
28734SOL     OW88033   3.993   7.369   8.771
28734SOL    HW188034   4.007   7.366   8.676
28734SOL    HW288035   4.025   7.284   8.802
28735SOL     OW88036   9.194   1.267   0.964
28735SOL    HW188037   9.140   1.346   0.967
28735SOL    HW288038   9.135   1.199   0.930
28736SOL     OW88039   4.148   9.177   9.108
28736SOL    HW188040   4.069   9.187   9.055
28736SOL    HW288041   4.126   9.107   9.170
28737SOL     OW88042   6.706   8.202   2.228
28737SOL    HW188043   6.788   8.156   2.209
28737SOL    HW288044   6.712   8.283   2.176
28738SOL     OW88045   6.854  12.297  11.700
28738SOL    HW188046   6.778  12.269  11.751
28738SOL    HW288047   6.820  12.367  11.644
28739SOL     OW88048   7.985   7.654   1.753
28739SOL    HW188049   8.044   7.579   1.760
28739SOL    HW288050   7.911   7.621   1.701
28740SOL     OW88051  11.539   1.133   4.787
28740SOL    HW188052  11.529   1.049   4.742
28740SOL    HW288053  11.494   1.121   4.871
28741SOL     OW88054   3.855   2.581   5.718
28741SOL    HW188055   3.764   2.556   5.699
28741SOL    HW288056   3.854   2.609   5.809
28742SOL     OW88057   6.865   8.197   4.917
28742SOL    HW188058   6.870   8.244   5.001
28742SOL    HW288059   6.836   8.109   4.941
28743SOL     OW88060   6.914   9.820   9.332
28743SOL    HW188061   6.864   9.900   9.347
28743SOL    HW288062   6.979   9.818   9.402
28744SOL     OW88063   4.218  11.642  11.378
28744SOL    HW188064   4.135  11.622  11.336
28744SOL    HW288065   4.194  11.677  11.463
28745SOL     OW88066   1.109  11.638   6.320
28745SOL    HW188067   1.173  11.700   6.284
28745SOL    HW288068   1.132  11.554   6.280
28746SOL     OW88069   9.484  11.406  14.769
28746SOL    HW188070   9.568  11.452  14.776
28746SOL    HW288071   9.507  11.314  14.773
28747SOL     OW88072   7.211   3.526   0.842
28747SOL    HW188073   7.201   3.618   0.817
28747SOL    HW288074   7.122   3.492   0.847
28748SOL     OW88075   7.522   9.783   3.591
28748SOL    HW188076   7.446   9.753   3.642
28748SOL    HW288077   7.512   9.879   3.589
28749SOL     OW88078  11.159   7.437   5.909
28749SOL    HW188079  11.139   7.408   5.820
28749SOL    HW288080  11.211   7.517   5.898
28750SOL     OW88081   0.013   9.130   0.014
28750SOL    HW188082   0.064   9.110   0.092
28750SOL    HW288083   0.028   9.055  14.832
28751SOL     OW88084   3.672   5.089   4.029
28751SOL    HW188085   3.707   5.144   3.959
28751SOL    HW288086   3.643   5.009   3.984
28752SOL     OW88087  14.233   1.670   1.127
28752SOL    HW188088  14.228   1.612   1.052
28752SOL    HW288089  14.152   1.721   1.124
28753SOL     OW88090   4.452   8.884  10.852
28753SOL    HW188091   4.435   8.797  10.888
28753SOL    HW288092   4.491   8.868  10.766
28754SOL     OW88093  13.680   1.177   8.144
28754SOL    HW188094  13.598   1.192   8.192
28754SOL    HW288095  13.711   1.092   8.176
28755SOL     OW88096   6.180   1.769   3.224
28755SOL    HW188097   6.130   1.777   3.305
28755SOL    HW288098   6.262   1.729   3.251
28756SOL     OW88099   1.476   1.720  12.992
28756SOL    HW188100   1.493   1.683  12.905
28756SOL    HW288101   1.560   1.754  13.020
28757SOL     OW88102   0.094   2.985   6.639
28757SOL    HW188103   0.077   3.042   6.564
28757SOL    HW288104   0.019   2.997   6.697
28758SOL     OW88105   1.151   5.910   2.420
28758SOL    HW188106   1.128   5.958   2.499
28758SOL    HW288107   1.132   5.819   2.440
28759SOL     OW88108   3.021  13.442   7.054
28759SOL    HW188109   3.022  13.363   7.108
28759SOL    HW288110   3.083  13.502   7.097
28760SOL     OW88111  10.175  10.300  14.571
28760SOL    HW188112  10.094  10.280  14.524
28760SOL    HW288113  10.244  10.259  14.520
28761SOL     OW88114  13.015   3.912  11.106
28761SOL    HW188115  13.087   3.969  11.134
28761SOL    HW288116  13.056   3.852  11.042
28762SOL     OW88117   9.144  10.768  12.251
28762SOL    HW188118   9.183  10.683  12.230
28762SOL    HW288119   9.134  10.766  12.346
28763SOL     OW88120   4.489   9.708   5.514
28763SOL    HW188121   4.548   9.781   5.534
28763SOL    HW288122   4.484   9.658   5.595
28764SOL     OW88123  11.780   2.514  12.870
28764SOL    HW188124  11.740   2.440  12.823
28764SOL    HW288125  11.845   2.473  12.928
28765SOL     OW88126  14.441  14.758   9.257
28765SOL    HW188127  14.528  14.781   9.290
28765SOL    HW288128  14.427  14.817   9.183
28766SOL     OW88129   9.895   9.771   9.884
28766SOL    HW188130   9.978   9.722   9.889
28766SOL    HW288131   9.916   9.849   9.833
28767SOL     OW88132   5.715  13.856   0.283
28767SOL    HW188133   5.723  13.804   0.362
28767SOL    HW288134   5.624  13.845   0.256
28768SOL     OW88135  10.946   3.316   8.027
28768SOL    HW188136  10.857   3.335   7.997
28768SOL    HW288137  10.962   3.225   8.000
28769SOL     OW88138   2.929   1.750   9.610
28769SOL    HW188139   2.841   1.787   9.617
28769SOL    HW288140   2.975   1.809   9.551
28770SOL     OW88141   2.176   0.754  13.636
28770SOL    HW188142   2.271   0.751  13.623
28770SOL    HW288143   2.144   0.809  13.564
28771SOL     OW88144   5.444   5.962  10.997
28771SOL    HW188145   5.375   5.937  11.059
28771SOL    HW288146   5.506   5.890  10.999
28772SOL     OW88147  11.988  10.058   9.797
28772SOL    HW188148  11.930   9.983   9.785
28772SOL    HW288149  12.024  10.075   9.710
28773SOL     OW88150   0.741   7.344   0.304
28773SOL    HW188151   0.680   7.322   0.234
28773SOL    HW288152   0.747   7.265   0.357
28774SOL     OW88153   9.993  11.962   4.762
28774SOL    HW188154   9.933  11.927   4.828
28774SOL    HW288155   9.992  12.056   4.776
28775SOL     OW88156   4.726   7.920   7.793
28775SOL    HW188157   4.779   7.897   7.717
28775SOL    HW288158   4.636   7.920   7.761
28776SOL     OW88159  11.535   4.933   6.622
28776SOL    HW188160  11.525   5.017   6.667
28776SOL    HW288161  11.452   4.921   6.576
28777SOL     OW88162  13.856   6.984  13.000
28777SOL    HW188163  13.872   6.900  12.958
28777SOL    HW288164  13.887   6.972  13.089
28778SOL     OW88165   9.415  13.247   1.208
28778SOL    HW188166   9.389  13.200   1.287
28778SOL    HW288167   9.423  13.338   1.235
28779SOL     OW88168  12.591  11.625   2.392
28779SOL    HW188169  12.534  11.649   2.320
28779SOL    HW288170  12.672  11.674   2.376
28780SOL     OW88171  11.615  12.066  11.398
28780SOL    HW188172  11.544  12.011  11.429
28780SOL    HW288173  11.688  12.006  11.384
28781SOL     OW88174   1.477  12.431   7.602
28781SOL    HW188175   1.571  12.450   7.599
28781SOL    HW288176   1.462  12.403   7.692
28782SOL     OW88177   7.049   4.991  11.013
28782SOL    HW188178   7.118   4.935  10.977
28782SOL    HW288179   7.000   4.933  11.071
28783SOL     OW88180   5.619   2.589   7.836
28783SOL    HW188181   5.626   2.664   7.894
28783SOL    HW288182   5.664   2.617   7.756
28784SOL     OW88183   7.125   4.903   9.829
28784SOL    HW188184   7.221   4.896   9.825
28784SOL    HW288185   7.109   4.992   9.858
28785SOL     OW88186  13.595   5.950  11.322
28785SOL    HW188187  13.577   5.966  11.414
28785SOL    HW288188  13.634   6.032  11.291
28786SOL     OW88189   7.233   3.441  10.339
28786SOL    HW188190   7.319   3.441  10.380
28786SOL    HW288191   7.176   3.484  10.404
28787SOL     OW88192   9.568   1.483   2.718
28787SOL    HW188193   9.499   1.423   2.688
28787SOL    HW288194   9.649   1.433   2.709
28788SOL     OW88195  13.890   8.094   7.392
28788SOL    HW188196  13.890   8.189   7.380
28788SOL    HW288197  13.827   8.079   7.462
28789SOL     OW88198   1.693   1.053   3.781
28789SOL    HW188199   1.713   1.077   3.871
28789SOL    HW288200   1.600   1.073   3.771
28790SOL     OW88201   3.283   5.604  11.217
28790SOL    HW188202   3.362   5.572  11.173
28790SOL    HW288203   3.298   5.585  11.310
28791SOL     OW88204   1.331   1.336  14.150
28791SOL    HW188205   1.301   1.248  14.173
28791SOL    HW288206   1.413   1.322  14.103
28792SOL     OW88207  11.075   5.829  14.551
28792SOL    HW188208  10.979   5.833  14.554
28792SOL    HW288209  11.100   5.901  14.493
28793SOL     OW88210   3.938   0.938  10.923
28793SOL    HW188211   3.844   0.953  10.933
28793SOL    HW288212   3.962   0.885  10.999
28794SOL     OW88213  11.736   8.003   3.803
28794SOL    HW188214  11.804   7.943   3.772
28794SOL    HW288215  11.784   8.076   3.842
28795SOL     OW88216   3.372   7.377   7.782
28795SOL    HW188217   3.410   7.465   7.778
28795SOL    HW288218   3.405   7.340   7.864
28796SOL     OW88219   0.255   9.180  13.973
28796SOL    HW188220   0.252   9.108  13.909
28796SOL    HW288221   0.171   9.225  13.963
28797SOL     OW88222   8.102   5.859   2.766
28797SOL    HW188223   8.008   5.850   2.780
28797SOL    HW288224   8.141   5.856   2.853
28798SOL     OW88225   6.070  13.009   5.137
28798SOL    HW188226   6.127  12.964   5.199
28798SOL    HW288227   6.021  12.938   5.094
28799SOL     OW88228   7.781   3.966   1.865
28799SOL    HW188229   7.777   3.883   1.819
28799SOL    HW288230   7.849   3.954   1.932
28800SOL     OW88231  10.536   3.690   4.259
28800SOL    HW188232  10.536   3.673   4.165
28800SOL    HW288233  10.469   3.757   4.271
28801SOL     OW88234  12.257   8.998   2.448
28801SOL    HW188235  12.335   9.049   2.428
28801SOL    HW288236  12.283   8.941   2.520
28802SOL     OW88237   3.140   8.237  13.105
28802SOL    HW188238   3.073   8.195  13.051
28802SOL    HW288239   3.148   8.181  13.182
28803SOL     OW88240  12.516   8.171   1.269
28803SOL    HW188241  12.454   8.223   1.320
28803SOL    HW288242  12.461   8.110   1.219
28804SOL     OW88243  10.144  14.811   5.658
28804SOL    HW188244  10.215  14.849   5.710
28804SOL    HW288245  10.108   0.009   5.609
28805SOL     OW88246  11.781   0.423   9.666
28805SOL    HW188247  11.686   0.426   9.652
28805SOL    HW288248  11.796   0.486   9.737
28806SOL     OW88249   7.690  10.154   3.912
28806SOL    HW188250   7.680  10.068   3.955
28806SOL    HW288251   7.679  10.136   3.819
28807SOL     OW88252  10.668   0.988   9.281
28807SOL    HW188253  10.597   0.939   9.240
28807SOL    HW288254  10.748   0.957   9.238
28808SOL     OW88255   4.008   2.996  12.563
28808SOL    HW188256   3.986   3.088  12.577
28808SOL    HW288257   3.964   2.950  12.634
28809SOL     OW88258  14.251   7.192   6.262
28809SOL    HW188259  14.263   7.180   6.168
28809SOL    HW288260  14.270   7.285   6.277
28810SOL     OW88261   8.999   9.378  10.286
28810SOL    HW188262   9.003   9.288  10.253
28810SOL    HW288263   8.907   9.403  10.276
28811SOL     OW88264   4.918  10.285   6.411
28811SOL    HW188265   4.990  10.347   6.422
28811SOL    HW288266   4.855  10.330   6.355
28812SOL     OW88267   4.827  12.246   1.015
28812SOL    HW188268   4.856  12.218   0.929
28812SOL    HW288269   4.906  12.278   1.058
28813SOL     OW88270   1.318   2.068   3.230
28813SOL    HW188271   1.265   2.121   3.170
28813SOL    HW288272   1.325   1.983   3.186
28814SOL     OW88273  13.212  10.806  12.530
28814SOL    HW188274  13.288  10.864  12.521
28814SOL    HW288275  13.137  10.865  12.528
28815SOL     OW88276  13.263   9.973   9.537
28815SOL    HW188277  13.349   9.999   9.572
28815SOL    HW288278  13.213   9.946   9.614
28816SOL     OW88279   2.249   5.709   9.905
28816SOL    HW188280   2.188   5.739   9.972
28816SOL    HW288281   2.272   5.789   9.856
28817SOL     OW88282  14.435   5.649   6.030
28817SOL    HW188283  14.427   5.744   6.021
28817SOL    HW288284  14.459   5.635   6.121
28818SOL     OW88285  12.295   4.036   7.308
28818SOL    HW188286  12.379   4.019   7.265
28818SOL    HW288287  12.307   4.005   7.397
28819SOL     OW88288   3.721   9.023   5.973
28819SOL    HW188289   3.695   8.978   5.893
28819SOL    HW288290   3.756   9.107   5.943
28820SOL     OW88291   5.207   7.890   3.047
28820SOL    HW188292   5.175   7.812   3.093
28820SOL    HW288293   5.146   7.959   3.072
28821SOL     OW88294   5.564  12.464  14.792
28821SOL    HW188295   5.547  12.557  14.808
28821SOL    HW288296   5.501  12.440  14.724
28822SOL     OW88297   4.152   1.058   1.445
28822SOL    HW188298   4.136   0.964   1.437
28822SOL    HW288299   4.114   1.095   1.365
28823SOL     OW88300  13.130   4.156   5.712
28823SOL    HW188301  13.089   4.199   5.787
28823SOL    HW288302  13.140   4.065   5.739
28824SOL     OW88303   3.295   8.767   2.013
28824SOL    HW188304   3.287   8.799   1.923
28824SOL    HW288305   3.279   8.844   2.068
28825SOL     OW88306   6.509  12.827   6.573
28825SOL    HW188307   6.414  12.828   6.589
28825SOL    HW288308   6.542  12.901   6.624
28826SOL     OW88309   9.105  14.327  10.243
28826SOL    HW188310   9.168  14.280  10.297
28826SOL    HW288311   9.126  14.419  10.256
28827SOL     OW88312   6.493   4.675   4.229
28827SOL    HW188313   6.564   4.692   4.168
28827SOL    HW288314   6.478   4.581   4.224
28828SOL     OW88315   6.511   2.856   1.830
28828SOL    HW188316   6.437   2.909   1.859
28828SOL    HW288317   6.580   2.875   1.893
28829SOL     OW88318   6.032  10.419   7.881
28829SOL    HW188319   5.981  10.439   7.802
28829SOL    HW288320   5.983  10.461   7.952
28830SOL     OW88321   3.995   5.154   5.285
28830SOL    HW188322   3.998   5.114   5.198
28830SOL    HW288323   3.909   5.131   5.318
28831SOL     OW88324   5.604  10.679  12.582
28831SOL    HW188325   5.591  10.746  12.648
28831SOL    HW288326   5.675  10.713  12.527
28832SOL     OW88327   5.083   6.356   4.586
28832SOL    HW188328   5.163   6.314   4.616
28832SOL    HW288329   5.099   6.375   4.494
28833SOL     OW88330  11.242   7.517   8.210
28833SOL    HW188331  11.159   7.512   8.162
28833SOL    HW288332  11.228   7.460   8.286
28834SOL     OW88333   6.672   5.507   5.093
28834SOL    HW188334   6.756   5.521   5.049
28834SOL    HW288335   6.671   5.570   5.164
28835SOL     OW88336  13.069   3.417  10.093
28835SOL    HW188337  12.990   3.417  10.148
28835SOL    HW288338  13.041   3.454  10.010
28836SOL     OW88339  12.901   5.834   0.643
28836SOL    HW188340  12.871   5.886   0.718
28836SOL    HW288341  12.940   5.898   0.584
28837SOL     OW88342  12.863   0.205   5.122
28837SOL    HW188343  12.904   0.134   5.171
28837SOL    HW288344  12.771   0.179   5.116
28838SOL     OW88345  11.425   8.856   3.572
28838SOL    HW188346  11.384   8.899   3.497
28838SOL    HW288347  11.519   8.869   3.558
28839SOL     OW88348  11.721   4.191  13.534
28839SOL    HW188349  11.672   4.122  13.489
28839SOL    HW288350  11.791   4.144  13.580
28840SOL     OW88351   9.480  14.128  10.932
28840SOL    HW188352   9.477  14.093  10.843
28840SOL    HW288353   9.390  14.157  10.949
28841SOL     OW88354   3.529   0.606   0.819
28841SOL    HW188355   3.620   0.576   0.810
28841SOL    HW288356   3.515   0.662   0.743
28842SOL     OW88357  10.287   2.692   7.951
28842SOL    HW188358  10.256   2.698   7.861
28842SOL    HW288359  10.209   2.711   8.004
28843SOL     OW88360  13.678   3.994   8.127
28843SOL    HW188361  13.705   3.902   8.127
28843SOL    HW288362  13.628   4.005   8.208
28844SOL     OW88363   6.409   3.939   9.145
28844SOL    HW188364   6.428   3.851   9.113
28844SOL    HW288365   6.389   3.928   9.237
28845SOL     OW88366   7.096  12.285   3.834
28845SOL    HW188367   7.176  12.299   3.885
28845SOL    HW288368   7.087  12.365   3.781
28846SOL     OW88369  12.394   3.260   9.415
28846SOL    HW188370  12.381   3.309   9.496
28846SOL    HW288371  12.423   3.326   9.352
28847SOL     OW88372   4.638   9.013  14.371
28847SOL    HW188373   4.633   8.946  14.303
28847SOL    HW288374   4.569   9.076  14.347
28848SOL     OW88375   8.540  10.255  11.598
28848SOL    HW188376   8.621  10.229  11.641
28848SOL    HW288377   8.555  10.346  11.573
28849SOL     OW88378   5.125   4.269  12.581
28849SOL    HW188379   5.177   4.235  12.654
28849SOL    HW288380   5.088   4.351  12.614
28850SOL     OW88381  13.918   3.638   8.471
28850SOL    HW188382  13.958   3.725   8.482
28850SOL    HW288383  13.834   3.655   8.429
28851SOL     OW88384   2.647  10.487  10.291
28851SOL    HW188385   2.709  10.414  10.294
28851SOL    HW288386   2.576  10.456  10.235
28852SOL     OW88387   9.588   7.867   3.766
28852SOL    HW188388   9.652   7.831   3.828
28852SOL    HW288389   9.504   7.833   3.796
28853SOL     OW88390   7.018   8.970   8.800
28853SOL    HW188391   6.965   8.902   8.758
28853SOL    HW288392   6.955   9.024   8.847
28854SOL     OW88393   1.385  13.882  11.834
28854SOL    HW188394   1.345  13.969  11.830
28854SOL    HW288395   1.444  13.880  11.758
28855SOL     OW88396  11.768   4.913   6.407
28855SOL    HW188397  11.782   5.002   6.375
28855SOL    HW288398  11.826   4.904   6.482
28856SOL     OW88399   1.543   5.638   6.146
28856SOL    HW188400   1.512   5.663   6.233
28856SOL    HW288401   1.565   5.545   6.154
28857SOL     OW88402   4.335  13.922   9.413
28857SOL    HW188403   4.377  13.922   9.327
28857SOL    HW288404   4.339  13.831   9.442
28858SOL     OW88405   4.309   8.357  10.703
28858SOL    HW188406   4.342   8.427  10.646
28858SOL    HW288407   4.331   8.385  10.791
28859SOL     OW88408  11.204  14.692  13.272
28859SOL    HW188409  11.232  14.699  13.180
28859SOL    HW288410  11.109  14.705  13.269
28860SOL     OW88411  14.336   8.022   6.200
28860SOL    HW188412  14.252   8.031   6.246
28860SOL    HW288413  14.320   8.063   6.114
28861SOL     OW88414   6.516   7.625  13.662
28861SOL    HW188415   6.566   7.705  13.678
28861SOL    HW288416   6.426   7.655  13.650
28862SOL     OW88417  12.076   8.272   2.214
28862SOL    HW188418  12.047   8.356   2.179
28862SOL    HW288419  12.013   8.251   2.283
28863SOL     OW88420   3.474  10.354   3.661
28863SOL    HW188421   3.515  10.366   3.746
28863SOL    HW288422   3.482  10.260   3.644
28864SOL     OW88423   5.738   7.485   0.217
28864SOL    HW188424   5.697   7.543   0.154
28864SOL    HW288425   5.690   7.403   0.210
28865SOL     OW88426   9.995   5.052   1.119
28865SOL    HW188427   9.989   5.140   1.081
28865SOL    HW288428   9.913   5.009   1.094
28866SOL     OW88429   8.350  13.257   5.850
28866SOL    HW188430   8.343  13.173   5.804
28866SOL    HW288431   8.407  13.239   5.925
28867SOL     OW88432  10.105   9.025   5.952
28867SOL    HW188433  10.012   9.031   5.930
28867SOL    HW288434  10.107   8.993   6.042
28868SOL     OW88435   2.652   6.520   8.547
28868SOL    HW188436   2.601   6.570   8.610
28868SOL    HW288437   2.730   6.573   8.531
28869SOL     OW88438  11.808  11.737   1.389
28869SOL    HW188439  11.766  11.682   1.323
28869SOL    HW288440  11.894  11.698   1.403
28870SOL     OW88441   7.377  12.150   0.022
28870SOL    HW188442   7.305  12.185   0.073
28870SOL    HW288443   7.448  12.138   0.085
28871SOL     OW88444  13.305  11.105   3.449
28871SOL    HW188445  13.308  11.057   3.532
28871SOL    HW288446  13.359  11.182   3.464
28872SOL     OW88447   8.413  13.127  14.400
28872SOL    HW188448   8.348  13.125  14.329
28872SOL    HW288449   8.416  13.036  14.432
28873SOL     OW88450   1.476   9.049   1.322
28873SOL    HW188451   1.527   8.977   1.286
28873SOL    HW288452   1.399   9.054   1.265
28874SOL     OW88453   9.926  13.986   8.419
28874SOL    HW188454   9.883  14.018   8.498
28874SOL    HW288455  10.014  14.023   8.423
28875SOL     OW88456  14.362   8.719  11.692
28875SOL    HW188457  14.311   8.788  11.734
28875SOL    HW288458  14.434   8.765  11.648
28876SOL     OW88459  12.426   3.509   3.655
28876SOL    HW188460  12.463   3.449   3.719
28876SOL    HW288461  12.464   3.594   3.677
28877SOL     OW88462   4.397   9.874  14.770
28877SOL    HW188463   4.468   9.866  14.706
28877SOL    HW288464   4.441   9.873  14.855
28878SOL     OW88465  10.949  14.696  10.920
28878SOL    HW188466  10.937  14.606  10.949
28878SOL    HW288467  11.023  14.729  10.972
28879SOL     OW88468  12.570   8.983   7.289
28879SOL    HW188469  12.604   8.894   7.297
28879SOL    HW288470  12.623   9.035   7.349
28880SOL     OW88471  13.046   6.666  11.623
28880SOL    HW188472  12.988   6.727  11.578
28880SOL    HW288473  13.024   6.675  11.715
28881SOL     OW88474  12.024   1.391   6.248
28881SOL    HW188475  12.063   1.471   6.213
28881SOL    HW288476  11.943   1.379   6.199
28882SOL     OW88477  12.226  14.024   3.098
28882SOL    HW188478  12.279  13.984   3.168
28882SOL    HW288479  12.258  13.984   3.018
28883SOL     OW88480   4.423   2.377   2.822
28883SOL    HW188481   4.344   2.397   2.873
28883SOL    HW288482   4.430   2.282   2.825
28884SOL     OW88483  12.244   7.689  11.466
28884SOL    HW188484  12.182   7.668  11.535
28884SOL    HW288485  12.254   7.785  11.471
28885SOL     OW88486   1.715   6.602   4.509
28885SOL    HW188487   1.664   6.525   4.484
28885SOL    HW288488   1.653   6.659   4.554
28886SOL     OW88489  14.597   9.214  12.353
28886SOL    HW188490  14.595   9.185  12.444
28886SOL    HW288491  14.513   9.186  12.317
28887SOL     OW88492  13.514   4.681   5.460
28887SOL    HW188493  13.483   4.591   5.473
28887SOL    HW288494  13.438   4.735   5.482
28888SOL     OW88495  13.001   9.112  14.044
28888SOL    HW188496  12.936   9.138  13.977
28888SOL    HW288497  12.948   9.084  14.119
28889SOL     OW88498  13.893  14.495   8.512
28889SOL    HW188499  13.961  14.546   8.468
28889SOL    HW288500  13.828  14.559   8.540
28890SOL     OW88501   3.699   2.969   4.717
28890SOL    HW188502   3.739   2.981   4.803
28890SOL    HW288503   3.763   3.004   4.656
28891SOL     OW88504   5.074  12.218  12.049
28891SOL    HW188505   5.168  12.209  12.034
28891SOL    HW288506   5.045  12.129  12.070
28892SOL     OW88507   5.799   2.547  10.457
28892SOL    HW188508   5.783   2.520  10.547
28892SOL    HW288509   5.775   2.471  10.404
28893SOL     OW88510  12.537  14.780  10.395
28893SOL    HW188511  12.466  14.716  10.396
28893SOL    HW288512  12.549  14.801  10.303
28894SOL     OW88513   9.221  11.198   8.263
28894SOL    HW188514   9.282  11.130   8.232
28894SOL    HW288515   9.135  11.156   8.261
28895SOL     OW88516   7.991  11.366   5.062
28895SOL    HW188517   8.029  11.432   5.120
28895SOL    HW288518   8.008  11.398   4.974
28896SOL     OW88519   7.144  10.725   6.869
28896SOL    HW188520   7.236  10.705   6.854
28896SOL    HW288521   7.104  10.641   6.892
28897SOL     OW88522  12.161   9.899   6.378
28897SOL    HW188523  12.237   9.915   6.435
28897SOL    HW288524  12.176   9.812   6.342
28898SOL     OW88525   7.237   6.046  11.580
28898SOL    HW188526   7.159   6.075  11.627
28898SOL    HW288527   7.212   5.962  11.541
28899SOL     OW88528  13.612  11.842   7.143
28899SOL    HW188529  13.548  11.829   7.072
28899SOL    HW288530  13.613  11.758   7.189
28900SOL     OW88531   0.717   0.000   8.020
28900SOL    HW188532   0.774   0.069   8.055
28900SOL    HW288533   0.628   0.030   8.041
28901SOL     OW88534   7.261  12.448  13.397
28901SOL    HW188535   7.332  12.385  13.383
28901SOL    HW288536   7.249  12.490  13.311
28902SOL     OW88537   6.352   4.850   2.203
28902SOL    HW188538   6.443   4.825   2.184
28902SOL    HW288539   6.334   4.808   2.288
28903SOL     OW88540  11.903   1.818   2.986
28903SOL    HW188541  11.888   1.862   3.069
28903SOL    HW288542  11.899   1.724   3.008
28904SOL     OW88543   6.745   9.395   1.095
28904SOL    HW188544   6.732   9.350   1.011
28904SOL    HW288545   6.679   9.359   1.153
28905SOL     OW88546   9.566   8.802   2.241
28905SOL    HW188547   9.494   8.850   2.201
28905SOL    HW288548   9.630   8.870   2.264
28906SOL     OW88549   4.478   0.086   4.111
28906SOL    HW188550   4.420   0.072   4.186
28906SOL    HW288551   4.484   0.181   4.101
28907SOL     OW88552   8.949   5.521   6.795
28907SOL    HW188553   9.043   5.534   6.785
28907SOL    HW288554   8.913   5.610   6.798
28908SOL     OW88555   8.146  12.585  11.714
28908SOL    HW188556   8.127  12.501  11.756
28908SOL    HW288557   8.162  12.645  11.787
28909SOL     OW88558   0.461   8.207  12.035
28909SOL    HW188559   0.385   8.194  11.978
28909SOL    HW288560   0.522   8.138  12.010
28910SOL     OW88561   4.311  11.043   5.863
28910SOL    HW188562   4.360  10.968   5.830
28910SOL    HW288563   4.242  11.057   5.798
28911SOL     OW88564  14.198   1.945  12.526
28911SOL    HW188565  14.116   1.936  12.478
28911SOL    HW288566  14.250   2.006  12.473
28912SOL     OW88567   6.892  11.998  13.622
28912SOL    HW188568   6.926  11.910  13.613
28912SOL    HW288569   6.922  12.027  13.709
28913SOL     OW88570   7.893   1.797  10.390
28913SOL    HW188571   7.814   1.837  10.427
28913SOL    HW288572   7.927   1.864  10.330
28914SOL     OW88573  11.004  14.413  12.965
28914SOL    HW188574  11.052  14.340  13.005
28914SOL    HW288575  10.927  14.373  12.926
28915SOL     OW88576   9.269   1.423   2.723
28915SOL    HW188577   9.215   1.357   2.680
28915SOL    HW288578   9.255   1.410   2.816
28916SOL     OW88579  10.370   6.713  10.704
28916SOL    HW188580  10.378   6.782  10.769
28916SOL    HW288581  10.440   6.651  10.724
28917SOL     OW88582  10.285   1.636   5.137
28917SOL    HW188583  10.347   1.685   5.083
28917SOL    HW288584  10.236   1.703   5.184
28918SOL     OW88585   2.102   5.605   2.641
28918SOL    HW188586   2.017   5.641   2.615
28918SOL    HW288587   2.123   5.649   2.723
28919SOL     OW88588  12.030   6.202   8.325
28919SOL    HW188589  12.124   6.193   8.314
28919SOL    HW288590  12.000   6.243   8.243
28920SOL     OW88591  11.348   9.264   5.784
28920SOL    HW188592  11.347   9.248   5.690
28920SOL    HW288593  11.441   9.275   5.806
28921SOL     OW88594  13.477   5.611  14.859
28921SOL    HW188595  13.463   5.696  14.817
28921SOL    HW288596  13.573   5.601  14.860
28922SOL     OW88597   9.858   6.926   9.940
28922SOL    HW188598   9.880   6.845   9.987
28922SOL    HW288599   9.908   6.994   9.985
28923SOL     OW88600   8.321   6.094   4.992
28923SOL    HW188601   8.271   6.014   5.005
28923SOL    HW288602   8.399   6.083   5.045
28924SOL     OW88603   7.400   3.725  10.223
28924SOL    HW188604   7.308   3.707  10.204
28924SOL    HW288605   7.402   3.739  10.318
28925SOL     OW88606   0.295   3.237   5.494
28925SOL    HW188607   0.296   3.142   5.481
28925SOL    HW288608   0.357   3.252   5.566
28926SOL     OW88609   3.398   1.581   3.122
28926SOL    HW188610   3.412   1.633   3.201
28926SOL    HW288611   3.328   1.626   3.075
28927SOL     OW88612   5.475   7.785  13.896
28927SOL    HW188613   5.531   7.736  13.836
28927SOL    HW288614   5.534   7.849  13.936
28928SOL     OW88615  10.920   6.118   3.551
28928SOL    HW188616  10.887   6.166   3.475
28928SOL    HW288617  11.013   6.137   3.552
28929SOL     OW88618   4.696  13.700  11.041
28929SOL    HW188619   4.790  13.705  11.058
28929SOL    HW288620   4.678  13.606  11.033
28930SOL     OW88621   2.320   6.539  14.032
28930SOL    HW188622   2.309   6.473  14.100
28930SOL    HW288623   2.405   6.579  14.051
28931SOL     OW88624  11.880   2.979  12.930
28931SOL    HW188625  11.829   2.946  13.003
28931SOL    HW288626  11.911   2.901  12.884
28932SOL     OW88627  11.553   1.726   9.441
28932SOL    HW188628  11.500   1.806   9.446
28932SOL    HW288629  11.617   1.745   9.372
28933SOL     OW88630   9.474   6.900   0.202
28933SOL    HW188631   9.447   6.809   0.203
28933SOL    HW288632   9.415   6.941   0.138
28934SOL     OW88633   0.586   3.630   6.297
28934SOL    HW188634   0.559   3.557   6.241
28934SOL    HW288635   0.671   3.656   6.263
28935SOL     OW88636   8.458   3.902   1.639
28935SOL    HW188637   8.378   3.926   1.686
28935SOL    HW288638   8.528   3.950   1.684
28936SOL     OW88639   5.908   8.784  10.022
28936SOL    HW188640   5.860   8.712  10.061
28936SOL    HW288641   5.843   8.832   9.972
28937SOL     OW88642   6.030   3.358  13.825
28937SOL    HW188643   5.964   3.332  13.761
28937SOL    HW288644   6.097   3.402  13.773
28938SOL     OW88645   6.702  14.667   0.602
28938SOL    HW188646   6.722  14.752   0.642
28938SOL    HW288647   6.726  14.678   0.510
28939SOL     OW88648   4.407   7.223  13.450
28939SOL    HW188649   4.418   7.317  13.434
28939SOL    HW288650   4.469   7.204  13.520
28940SOL     OW88651  13.996   7.101  11.906
28940SOL    HW188652  13.947   7.076  11.985
28940SOL    HW288653  13.929   7.130  11.844
28941SOL     OW88654   4.301   8.504  12.230
28941SOL    HW188655   4.320   8.581  12.177
28941SOL    HW288656   4.377   8.494  12.288
28942SOL     OW88657   1.965  14.365   5.042
28942SOL    HW188658   1.952  14.383   5.135
28942SOL    HW288659   2.040  14.305   5.040
28943SOL     OW88660   5.459  13.053  13.579
28943SOL    HW188661   5.367  13.070  13.596
28943SOL    HW288662   5.481  12.979  13.637
28944SOL     OW88663  12.525  10.964  11.354
28944SOL    HW188664  12.553  10.974  11.445
28944SOL    HW288665  12.448  11.019  11.346
28945SOL     OW88666   0.529  13.424   8.777
28945SOL    HW188667   0.558  13.349   8.830
28945SOL    HW288668   0.436  13.406   8.760
28946SOL     OW88669   2.197   7.877  11.029
28946SOL    HW188670   2.132   7.851  11.094
28946SOL    HW288671   2.204   7.972  11.039
28947SOL     OW88672  13.981   3.104   2.666
28947SOL    HW188673  13.972   3.043   2.740
28947SOL    HW288674  13.894   3.104   2.626
28948SOL     OW88675  14.276   8.584   0.270
28948SOL    HW188676  14.332   8.644   0.221
28948SOL    HW288677  14.281   8.502   0.221
28949SOL     OW88678   5.140   6.417  14.560
28949SOL    HW188679   5.103   6.349  14.504
28949SOL    HW288680   5.064   6.463  14.595
28950SOL     OW88681  13.104   8.560   0.869
28950SOL    HW188682  13.081   8.651   0.850
28950SOL    HW288683  13.021   8.520   0.895
28951SOL     OW88684  13.188   4.624  12.264
28951SOL    HW188685  13.176   4.674  12.183
28951SOL    HW288686  13.251   4.556  12.241
28952SOL     OW88687  14.121   8.493  12.496
28952SOL    HW188688  14.135   8.510  12.403
28952SOL    HW288689  14.026   8.500  12.507
28953SOL     OW88690  13.124   5.239   8.240
28953SOL    HW188691  13.130   5.215   8.147
28953SOL    HW288692  13.201   5.199   8.280
28954SOL     OW88693   8.024   0.930   2.362
28954SOL    HW188694   8.090   0.903   2.298
28954SOL    HW288695   8.032   0.866   2.432
28955SOL     OW88696  13.511  10.652  13.682
28955SOL    HW188697  13.581  10.715  13.663
28955SOL    HW288698  13.551  10.567  13.664
28956SOL     OW88699   8.477  10.830   5.371
28956SOL    HW188700   8.469  10.759   5.434
28956SOL    HW288701   8.403  10.888   5.390
28957SOL     OW88702   1.934   1.351   0.358
28957SOL    HW188703   1.876   1.277   0.340
28957SOL    HW288704   1.904   1.419   0.298
28958SOL     OW88705   3.007   7.184   6.742
28958SOL    HW188706   2.932   7.217   6.692
28958SOL    HW288707   3.008   7.236   6.822
28959SOL     OW88708   0.493   7.828   2.767
28959SOL    HW188709   0.546   7.759   2.807
28959SOL    HW288710   0.555   7.881   2.718
28960SOL     OW88711   2.634   9.365   2.122
28960SOL    HW188712   2.631   9.429   2.051
28960SOL    HW288713   2.557   9.384   2.175
28961SOL     OW88714  13.702   2.828  14.863
28961SOL    HW188715  13.730   2.746   0.029
28961SOL    HW288716  13.651   2.873   0.055
28962SOL     OW88717  10.369   3.018   8.885
28962SOL    HW188718  10.369   3.114   8.885
28962SOL    HW288719  10.391   2.994   8.975
28963SOL     OW88720   3.637  13.808  10.636
28963SOL    HW188721   3.622  13.899  10.608
28963SOL    HW288722   3.551  13.776  10.661
28964SOL     OW88723  14.689  14.261   7.142
28964SOL    HW188724  14.630  14.274   7.216
28964SOL    HW288725  14.664  14.177   7.105
28965SOL     OW88726   1.644   3.681  14.833
28965SOL    HW188727   1.668   3.664   0.048
28965SOL    HW288728   1.725   3.667  14.784
28966SOL     OW88729  13.052   4.622   9.754
28966SOL    HW188730  13.084   4.618   9.844
28966SOL    HW288731  13.108   4.561   9.706
28967SOL     OW88732  12.559  10.231   3.097
28967SOL    HW188733  12.535  10.323   3.086
28967SOL    HW288734  12.655  10.231   3.089
28968SOL     OW88735  12.336   8.248   9.151
28968SOL    HW188736  12.304   8.293   9.229
28968SOL    HW288737  12.257   8.212   9.110
28969SOL     OW88738  14.428   8.814   7.616
28969SOL    HW188739  14.391   8.891   7.573
28969SOL    HW288740  14.409   8.826   7.709
28970SOL     OW88741  14.589   1.165  14.466
28970SOL    HW188742  14.681   1.184  14.486
28970SOL    HW288743  14.540   1.209  14.536
28971SOL     OW88744   1.407   1.041   6.217
28971SOL    HW188745   1.489   1.014   6.259
28971SOL    HW288746   1.396   0.979   6.145
28972SOL     OW88747  14.177  13.473  12.112
28972SOL    HW188748  14.260  13.494  12.070
28972SOL    HW288749  14.111  13.489  12.044
28973SOL     OW88750   0.347  13.768   2.181
28973SOL    HW188751   0.313  13.704   2.243
28973SOL    HW288752   0.356  13.848   2.231
28974SOL     OW88753   8.362   0.757  11.953
28974SOL    HW188754   8.417   0.829  11.982
28974SOL    HW288755   8.282   0.798  11.921
28975SOL     OW88756  14.162   1.473   4.169
28975SOL    HW188757  14.155   1.513   4.256
28975SOL    HW288758  14.255   1.459   4.156
28976SOL     OW88759   3.240   7.513  14.445
28976SOL    HW188760   3.323   7.552  14.421
28976SOL    HW288761   3.260   7.420  14.457
28977SOL     OW88762   3.066   6.667   3.438
28977SOL    HW188763   2.978   6.659   3.401
28977SOL    HW288764   3.089   6.759   3.425
28978SOL     OW88765  12.294   5.247  11.275
28978SOL    HW188766  12.366   5.205  11.228
28978SOL    HW288767  12.238   5.175  11.304
28979SOL     OW88768   3.283  13.616   5.528
28979SOL    HW188769   3.232  13.535   5.516
28979SOL    HW288770   3.297  13.621   5.623
28980SOL     OW88771  10.246   7.346  12.962
28980SOL    HW188772  10.274   7.408  13.029
28980SOL    HW288773  10.177   7.392  12.914
28981SOL     OW88774   7.815   1.764   3.531
28981SOL    HW188775   7.758   1.712   3.475
28981SOL    HW288776   7.825   1.711   3.610
28982SOL     OW88777   0.059   1.937  10.942
28982SOL    HW188778   0.034   2.009  10.884
28982SOL    HW288779   0.124   1.888  10.893
28983SOL     OW88780  11.761   0.514  12.693
28983SOL    HW188781  11.803   0.525  12.608
28983SOL    HW288782  11.829   0.536  12.756
28984SOL     OW88783  10.768   1.813   0.761
28984SOL    HW188784  10.712   1.889   0.747
28984SOL    HW288785  10.820   1.835   0.838
28985SOL     OW88786   5.985  10.088   0.707
28985SOL    HW188787   5.932  10.025   0.756
28985SOL    HW288788   5.950  10.174   0.731
28986SOL     OW88789  13.845   5.086  10.548
28986SOL    HW188790  13.914   5.090  10.614
28986SOL    HW288791  13.839   4.993  10.526
28987SOL     OW88792  13.409   8.596   5.547
28987SOL    HW188793  13.319   8.568   5.530
28987SOL    HW288794  13.447   8.525   5.598
28988SOL     OW88795  14.573   8.194   9.901
28988SOL    HW188796  14.595   8.236   9.984
28988SOL    HW288797  14.517   8.257   9.856
28989SOL     OW88798   9.003   3.220   2.694
28989SOL    HW188799   9.097   3.234   2.680
28989SOL    HW288800   8.996   3.127   2.714
28990SOL     OW88801   7.338   4.116   9.226
28990SOL    HW188802   7.312   4.155   9.143
28990SOL    HW288803   7.319   4.184   9.291
28991SOL     OW88804   8.223  13.497   3.977
28991SOL    HW188805   8.220  13.414   4.026
28991SOL    HW288806   8.237  13.564   4.044
28992SOL     OW88807   3.242   9.040   4.839
28992SOL    HW188808   3.153   9.058   4.868
28992SOL    HW288809   3.291   9.026   4.921
28993SOL     OW88810   0.673  10.620   8.683
28993SOL    HW188811   0.643  10.551   8.623
28993SOL    HW288812   0.703  10.690   8.626
28994SOL     OW88813   3.330   4.670   2.406
28994SOL    HW188814   3.274   4.673   2.484
28994SOL    HW288815   3.398   4.736   2.423
28995SOL     OW88816   2.359   8.751   1.014
28995SOL    HW188817   2.378   8.822   0.952
28995SOL    HW288818   2.418   8.766   1.087
28996SOL     OW88819   6.020  10.834   4.113
28996SOL    HW188820   6.072  10.805   4.188
28996SOL    HW288821   6.001  10.753   4.065
28997SOL     OW88822   2.110   1.639   6.915
28997SOL    HW188823   2.029   1.681   6.886
28997SOL    HW288824   2.171   1.711   6.927
28998SOL     OW88825  14.180   3.182   0.536
28998SOL    HW188826  14.256   3.235   0.560
28998SOL    HW288827  14.130   3.238   0.477
28999SOL     OW88828   8.776  12.469  11.184
28999SOL    HW188829   8.856  12.521  11.178
28999SOL    HW288830   8.803  12.387  11.224
29000SOL     OW88831   1.309   4.137   1.130
29000SOL    HW188832   1.332   4.090   1.210
29000SOL    HW288833   1.374   4.208   1.124
29001SOL     OW88834   9.825   9.362  11.527
29001SOL    HW188835   9.808   9.454  11.504
29001SOL    HW288836   9.899   9.337  11.471
29002SOL     OW88837   8.581   1.582   9.975
29002SOL    HW188838   8.582   1.645   9.902
29002SOL    HW288839   8.618   1.631  10.049
29003SOL     OW88840   1.410   0.934  10.115
29003SOL    HW188841   1.423   1.029  10.106
29003SOL    HW288842   1.406   0.919  10.209
29004SOL     OW88843   6.697  10.477  12.561
29004SOL    HW188844   6.711  10.420  12.485
29004SOL    HW288845   6.638  10.427  12.617
29005SOL     OW88846  13.549  11.281   4.649
29005SOL    HW188847  13.467  11.232   4.654
29005SOL    HW288848  13.586  11.275   4.737
29006SOL     OW88849   3.217  10.239   3.344
29006SOL    HW188850   3.268  10.318   3.362
29006SOL    HW288851   3.233  10.221   3.251
29007SOL     OW88852   4.642   0.545   0.568
29007SOL    HW188853   4.709   0.490   0.609
29007SOL    HW288854   4.559   0.501   0.586
29008SOL     OW88855  14.347   0.776   0.750
29008SOL    HW188856  14.406   0.823   0.691
29008SOL    HW288857  14.350   0.686   0.719
29009SOL     OW88858   3.598   8.136  10.018
29009SOL    HW188859   3.663   8.070  10.043
29009SOL    HW288860   3.601   8.137   9.922
29010SOL     OW88861   8.553   4.127   9.347
29010SOL    HW188862   8.472   4.153   9.304
29010SOL    HW288863   8.527   4.105   9.437
29011SOL     OW88864   6.071   8.129  13.614
29011SOL    HW188865   5.999   8.160  13.559
29011SOL    HW288866   6.143   8.114  13.554
29012SOL     OW88867   6.808   2.423   1.470
29012SOL    HW188868   6.866   2.486   1.512
29012SOL    HW288869   6.730   2.473   1.448
29013SOL     OW88870   2.428   3.703  14.297
29013SOL    HW188871   2.512   3.674  14.332
29013SOL    HW288872   2.451   3.771  14.233
29014SOL     OW88873  14.515   4.265   2.014
29014SOL    HW188874  14.458   4.328   2.059
29014SOL    HW288875  14.554   4.214   2.084
29015SOL     OW88876  11.983   6.903   2.485
29015SOL    HW188877  11.991   6.841   2.557
29015SOL    HW288878  11.923   6.970   2.517
29016SOL     OW88879  12.887   7.116  14.395
29016SOL    HW188880  12.850   7.036  14.434
29016SOL    HW288881  12.870   7.106  14.301
29017SOL     OW88882   1.216   7.799  12.208
29017SOL    HW188883   1.311   7.792  12.221
29017SOL    HW288884   1.206   7.804  12.113
29018SOL     OW88885   4.051   4.513  11.126
29018SOL    HW188886   3.964   4.510  11.166
29018SOL    HW288887   4.092   4.430  11.152
29019SOL     OW88888   3.626   7.607   3.290
29019SOL    HW188889   3.547   7.555   3.279
29019SOL    HW288890   3.642   7.645   3.203
29020SOL     OW88891   8.764  11.198  11.735
29020SOL    HW188892   8.771  11.280  11.685
29020SOL    HW288893   8.693  11.150  11.691
29021SOL     OW88894  12.900  12.053   3.948
29021SOL    HW188895  12.873  12.109   4.021
29021SOL    HW288896  12.878  11.964   3.976
29022SOL     OW88897  11.305  11.252  11.511
29022SOL    HW188898  11.262  11.209  11.437
29022SOL    HW288899  11.237  11.257  11.579
29023SOL     OW88900   1.807   2.150  14.421
29023SOL    HW188901   1.724   2.198  14.413
29023SOL    HW288902   1.797   2.075  14.363
29024SOL     OW88903   9.399   1.861  14.869
29024SOL    HW188904   9.484   1.843  14.829
29024SOL    HW288905   9.395   1.956  14.874
29025SOL     OW88906  11.268  10.444   2.195
29025SOL    HW188907  11.192  10.496   2.220
29025SOL    HW288908  11.331  10.508   2.161
29026SOL     OW88909   7.026   2.364   7.741
29026SOL    HW188910   7.066   2.416   7.810
29026SOL    HW288911   6.936   2.397   7.734
29027SOL     OW88912  10.569   7.867  14.429
29027SOL    HW188913  10.586   7.950  14.385
29027SOL    HW288914  10.524   7.892  14.510
29028SOL     OW88915  10.514  11.878   5.785
29028SOL    HW188916  10.546  11.799   5.829
29028SOL    HW288917  10.528  11.861   5.692
29029SOL     OW88918   8.014   2.468   1.715
29029SOL    HW188919   7.932   2.515   1.703
29029SOL    HW288920   7.991   2.376   1.704
29030SOL     OW88921   3.374   1.362   6.338
29030SOL    HW188922   3.324   1.319   6.407
29030SOL    HW288923   3.393   1.292   6.275
29031SOL     OW88924  14.077   6.813  11.881
29031SOL    HW188925  14.046   6.902  11.865
29031SOL    HW288926  14.166   6.825  11.913
29032SOL     OW88927   5.750   0.390   5.836
29032SOL    HW188928   5.792   0.473   5.816
29032SOL    HW288929   5.788   0.364   5.920
29033SOL     OW88930   8.817   9.676   6.058
29033SOL    HW188931   8.828   9.687   5.963
29033SOL    HW288932   8.813   9.765   6.092
29034SOL     OW88933   0.108  14.597   0.276
29034SOL    HW188934   0.172  14.536   0.314
29034SOL    HW288935   0.084  14.654   0.349
29035SOL     OW88936  10.779   2.841  12.858
29035SOL    HW188937  10.850   2.897  12.888
29035SOL    HW288938  10.812   2.804  12.775
29036SOL     OW88939   0.521  10.050   7.381
29036SOL    HW188940   0.595  10.066   7.323
29036SOL    HW288941   0.506   9.955   7.374
29037SOL     OW88942   2.199   3.078   6.488
29037SOL    HW188943   2.243   3.158   6.460
29037SOL    HW288944   2.261   3.037   6.550
29038SOL     OW88945   6.632  11.517   0.486
29038SOL    HW188946   6.602  11.576   0.417
29038SOL    HW288947   6.667  11.576   0.553
29039SOL     OW88948   0.998   6.344  11.227
29039SOL    HW188949   0.984   6.280  11.158
29039SOL    HW288950   1.087   6.376  11.213
29040SOL     OW88951   8.252   7.065   4.597
29040SOL    HW188952   8.298   7.122   4.658
29040SOL    HW288953   8.161   7.068   4.624
29041SOL     OW88954   3.187  14.497   4.038
29041SOL    HW188955   3.281  14.479   4.044
29041SOL    HW288956   3.154  14.432   3.976
29042SOL     OW88957  11.975  14.434   1.051
29042SOL    HW188958  12.019  14.425   0.967
29042SOL    HW288959  12.035  14.394   1.114
29043SOL     OW88960   0.166   5.546  10.964
29043SOL    HW188961   0.087   5.528  10.914
29043SOL    HW288962   0.206   5.622  10.921
29044SOL     OW88963   0.986   4.995   3.099
29044SOL    HW188964   1.051   4.925   3.108
29044SOL    HW288965   0.931   4.967   3.026
29045SOL     OW88966   7.023  11.477  14.663
29045SOL    HW188967   7.057  11.508  14.747
29045SOL    HW288968   6.946  11.425  14.685
29046SOL     OW88969   0.283   7.370  10.714
29046SOL    HW188970   0.270   7.298  10.652
29046SOL    HW288971   0.376   7.391  10.708
29047SOL     OW88972  14.611   3.890   2.588
29047SOL    HW188973  14.676   3.833   2.630
29047SOL    HW288974  14.616   3.868   2.495
29048SOL     OW88975  10.873   3.536  12.268
29048SOL    HW188976  10.913   3.580  12.342
29048SOL    HW288977  10.944   3.485  12.228
29049SOL     OW88978   4.480   1.691  13.412
29049SOL    HW188979   4.418   1.760  13.435
29049SOL    HW288980   4.452   1.616  13.464
29050SOL     OW88981   7.150  11.371   9.574
29050SOL    HW188982   7.120  11.307   9.638
29050SOL    HW288983   7.080  11.436   9.569
29051SOL     OW88984  13.409  14.519   7.272
29051SOL    HW188985  13.379  14.435   7.236
29051SOL    HW288986  13.499  14.503   7.300
29052SOL     OW88987   4.486   9.910   6.785
29052SOL    HW188988   4.542   9.851   6.733
29052SOL    HW288989   4.476   9.988   6.730
29053SOL     OW88990  13.427   1.300  14.777
29053SOL    HW188991  13.443   1.207  14.763
29053SOL    HW288992  13.496   1.344  14.727
29054SOL     OW88993   0.549   7.703   3.506
29054SOL    HW188994   0.548   7.609   3.485
29054SOL    HW288995   0.458   7.725   3.523
29055SOL     OW88996  10.350   3.109   3.130
29055SOL    HW188997  10.314   3.157   3.205
29055SOL    HW288998  10.405   3.041   3.170
29056SOL     OW88999  14.667   8.755   0.160
29056SOL    HW189000  14.699   8.776   0.248
29056SOL    HW289001  14.706   8.671   0.139
29057SOL     OW89002   1.557   1.044  11.440
29057SOL    HW189003   1.469   1.018  11.413
29057SOL    HW289004   1.542   1.119  11.499
29058SOL     OW89005   6.768  12.686   8.730
29058SOL    HW189006   6.760  12.592   8.713
29058SOL    HW289007   6.684  12.711   8.767
29059SOL     OW89008  12.881   5.524   5.471
29059SOL    HW189009  12.890   5.548   5.563
29059SOL    HW289010  12.828   5.445   5.471
29060SOL     OW89011   6.026   7.921   4.141
29060SOL    HW189012   6.059   7.864   4.071
29060SOL    HW289013   6.102   7.941   4.195
29061SOL     OW89014  14.428  11.668   1.540
29061SOL    HW189015  14.376  11.636   1.466
29061SOL    HW289016  14.366  11.719   1.592
29062SOL     OW89017   9.345  12.087   4.589
29062SOL    HW189018   9.440  12.079   4.582
29062SOL    HW289019   9.322  12.158   4.529
29063SOL     OW89020   8.284   1.472   5.056
29063SOL    HW189021   8.375   1.487   5.029
29063SOL    HW289022   8.276   1.518   5.140
29064SOL     OW89023   3.032  10.891   7.532
29064SOL    HW189024   3.013  10.799   7.514
29064SOL    HW289025   2.950  10.925   7.569
29065SOL     OW89026   9.524   2.727  10.372
29065SOL    HW189027   9.619   2.732  10.363
29065SOL    HW289028   9.510   2.696  10.462
29066SOL     OW89029   1.213   6.707   7.751
29066SOL    HW189030   1.197   6.698   7.845
29066SOL    HW289031   1.191   6.621   7.714
29067SOL     OW89032  11.991   3.800   3.261
29067SOL    HW189033  11.900   3.821   3.239
29067SOL    HW289034  11.986   3.715   3.305
29068SOL     OW89035  11.157  12.909  11.731
29068SOL    HW189036  11.115  12.836  11.684
29068SOL    HW289037  11.182  12.970  11.662
29069SOL     OW89038   7.778   9.039  13.090
29069SOL    HW189039   7.690   9.003  13.076
29069SOL    HW289040   7.772   9.085  13.174
29070SOL     OW89041  14.768  12.104   1.105
29070SOL    HW189042  14.788  12.118   1.198
29070SOL    HW289043  14.673  12.093   1.102
29071SOL     OW89044   2.397   5.672   4.640
29071SOL    HW189045   2.345   5.650   4.717
29071SOL    HW289046   2.486   5.644   4.662
29072SOL     OW89047   5.332  10.742   6.968
29072SOL    HW189048   5.327  10.755   7.063
29072SOL    HW289049   5.371  10.655   6.958
29073SOL     OW89050  14.497   0.389   9.277
29073SOL    HW189051  14.409   0.415   9.302
29073SOL    HW289052  14.543   0.374   9.360
29074SOL     OW89053  14.277   6.370  11.845
29074SOL    HW189054  14.217   6.333  11.779
29074SOL    HW289055  14.220   6.418  11.905
29075SOL     OW89056   4.102  11.608   3.886
29075SOL    HW189057   4.195  11.591   3.904
29075SOL    HW289058   4.060  11.606   3.972
29076SOL     OW89059   2.403   5.892   8.298
29076SOL    HW189060   2.448   5.807   8.291
29076SOL    HW289061   2.353   5.900   8.217
29077SOL     OW89062   3.960   9.788   6.138
29077SOL    HW189063   3.868   9.795   6.165
29077SOL    HW289064   3.957   9.734   6.059
29078SOL     OW89065   9.155   2.182   7.940
29078SOL    HW189066   9.101   2.211   8.013
29078SOL    HW289067   9.154   2.254   7.878
29079SOL     OW89068   2.218   5.252   7.926
29079SOL    HW189069   2.174   5.256   7.842
29079SOL    HW289070   2.149   5.269   7.990
29080SOL     OW89071   9.611   5.192  11.697
29080SOL    HW189072   9.631   5.208  11.605
29080SOL    HW289073   9.670   5.250  11.745
29081SOL     OW89074   4.616  13.806   5.648
29081SOL    HW189075   4.672  13.859   5.705
29081SOL    HW289076   4.651  13.818   5.560
29082SOL     OW89077   8.322   5.496  10.300
29082SOL    HW189078   8.245   5.462  10.347
29082SOL    HW289079   8.308   5.591  10.299
29083SOL     OW89080   2.111   2.252   0.778
29083SOL    HW189081   2.024   2.260   0.817
29083SOL    HW289082   2.171   2.280   0.847
29084SOL     OW89083   1.357  11.555   6.559
29084SOL    HW189084   1.436  11.606   6.575
29084SOL    HW289085   1.289  11.621   6.543
29085SOL     OW89086  11.310  12.672  12.802
29085SOL    HW189087  11.252  12.632  12.737
29085SOL    HW289088  11.397  12.666  12.764
29086SOL     OW89089   0.697   8.086  11.609
29086SOL    HW189090   0.684   8.029  11.684
29086SOL    HW289091   0.618   8.141  11.607
29087SOL     OW89092  11.069   8.463   8.625
29087SOL    HW189093  11.106   8.528   8.565
29087SOL    HW289094  11.092   8.378   8.586
29088SOL     OW89095   4.616   2.287   5.805
29088SOL    HW189096   4.659   2.203   5.815
29088SOL    HW289097   4.537   2.280   5.858
29089SOL     OW89098  14.503   0.245   1.553
29089SOL    HW189099  14.482   0.316   1.494
29089SOL    HW289100  14.423   0.192   1.558
29090SOL     OW89101   7.311  14.359   2.600
29090SOL    HW189102   7.406  14.369   2.605
29090SOL    HW289103   7.293  14.349   2.507
29091SOL     OW89104  14.216   1.392  14.356
29091SOL    HW189105  14.178   1.435  14.432
29091SOL    HW289106  14.206   1.455  14.284
29092SOL     OW89107  14.527   5.314   8.765
29092SOL    HW189108  14.612   5.274   8.749
29092SOL    HW289109  14.535   5.355   8.852
29093SOL     OW89110   7.938   1.544  13.106
29093SOL    HW189111   7.875   1.587  13.165
29093SOL    HW289112   7.908   1.570  13.019
29094SOL     OW89113   4.246   0.452   9.862
29094SOL    HW189114   4.261   0.396   9.786
29094SOL    HW289115   4.227   0.390   9.933
29095SOL     OW89116  11.255  10.228  10.730
29095SOL    HW189117  11.249  10.315  10.768
29095SOL    HW289118  11.262  10.169  10.805
29096SOL     OW89119   9.314   8.980   1.381
29096SOL    HW189120   9.401   8.973   1.341
29096SOL    HW289121   9.297   8.893   1.417
29097SOL     OW89122   4.766  14.368   5.297
29097SOL    HW189123   4.801  14.281   5.282
29097SOL    HW289124   4.745  14.401   5.209
29098SOL     OW89125  13.080   6.253   7.639
29098SOL    HW189126  13.114   6.342   7.651
29098SOL    HW289127  13.027   6.238   7.717
29099SOL     OW89128   5.112  13.272  10.660
29099SOL    HW189129   5.029  13.224  10.671
29099SOL    HW289130   5.094  13.334  10.589
29100SOL     OW89131  14.576  12.368   3.742
29100SOL    HW189132  14.567  12.273   3.745
29100SOL    HW289133  14.575  12.389   3.648
29101SOL     OW89134   0.622   0.114   5.404
29101SOL    HW189135   0.612   0.050   5.474
29101SOL    HW289136   0.610   0.199   5.446
29102SOL     OW89137   0.825   8.757   1.296
29102SOL    HW189138   0.890   8.688   1.285
29102SOL    HW289139   0.761   8.742   1.226
29103SOL     OW89140  13.268  14.417   1.792
29103SOL    HW189141  13.258  14.387   1.882
29103SOL    HW289142  13.332  14.357   1.754
29104SOL     OW89143   3.604   4.819   0.480
29104SOL    HW189144   3.534   4.754   0.486
29104SOL    HW289145   3.685   4.768   0.479
29105SOL     OW89146   5.467  11.033   1.539
29105SOL    HW189147   5.534  11.038   1.472
29105SOL    HW289148   5.399  11.093   1.509
29106SOL     OW89149  12.773   1.714   8.292
29106SOL    HW189150  12.801   1.623   8.283
29106SOL    HW289151  12.808   1.757   8.215
29107SOL     OW89152  10.418  10.227   2.215
29107SOL    HW189153  10.415  10.319   2.243
29107SOL    HW289154  10.510  10.202   2.223
29108SOL     OW89155   4.332   1.236  14.390
29108SOL    HW189156   4.381   1.259  14.469
29108SOL    HW289157   4.282   1.159  14.414
29109SOL     OW89158   0.024   9.800   6.383
29109SOL    HW189159   0.042   9.720   6.433
29109SOL    HW289160   0.068   9.788   6.300
29110SOL     OW89161   2.874   7.561   3.300
29110SOL    HW189162   2.888   7.632   3.237
29110SOL    HW289163   2.946   7.569   3.362
29111SOL     OW89164  13.670  14.721  14.143
29111SOL    HW189165  13.654  14.649  14.203
29111SOL    HW289166  13.598  14.716  14.080
29112SOL     OW89167   7.159  12.284   0.915
29112SOL    HW189168   7.130  12.364   0.958
29112SOL    HW289169   7.163  12.219   0.985
29113SOL     OW89170  13.272   4.382   1.272
29113SOL    HW189171  13.300   4.433   1.197
29113SOL    HW289172  13.176   4.384   1.268
29114SOL     OW89173  12.124   2.076   8.289
29114SOL    HW189174  12.129   2.009   8.358
29114SOL    HW289175  12.067   2.144   8.326
29115SOL     OW89176   7.638  13.481   7.870
29115SOL    HW189177   7.729  13.498   7.847
29115SOL    HW289178   7.638  13.390   7.900
29116SOL     OW89179   5.608   9.674  12.651
29116SOL    HW189180   5.541   9.659  12.584
29116SOL    HW289181   5.562   9.720  12.722
29117SOL     OW89182  11.176  12.076  11.126
29117SOL    HW189183  11.173  12.159  11.174
29117SOL    HW289184  11.254  12.083  11.071
29118SOL     OW89185  10.771   0.681   3.953
29118SOL    HW189186  10.676   0.678   3.943
29118SOL    HW289187  10.790   0.773   3.972
29119SOL     OW89188   2.822   1.154   3.407
29119SOL    HW189189   2.868   1.200   3.337
29119SOL    HW289190   2.880   1.082   3.432
29120SOL     OW89191  10.932  13.579   6.710
29120SOL    HW189192  10.907  13.560   6.801
29120SOL    HW289193  10.856  13.623   6.673
29121SOL     OW89194  14.501   3.574  14.666
29121SOL    HW189195  14.582   3.603  14.625
29121SOL    HW289196  14.474   3.498  14.615
29122SOL     OW89197   6.504  10.803  13.549
29122SOL    HW189198   6.495  10.887  13.592
29122SOL    HW289199   6.428  10.752  13.580
29123SOL     OW89200   8.784   6.331   6.291
29123SOL    HW189201   8.791   6.357   6.383
29123SOL    HW289202   8.763   6.413   6.245
29124SOL     OW89203   1.537  10.179   4.288
29124SOL    HW189204   1.465  10.228   4.329
29124SOL    HW289205   1.612  10.195   4.345
29125SOL     OW89206   0.228  10.102  11.100
29125SOL    HW189207   0.164  10.171  11.116
29125SOL    HW289208   0.217  10.079  11.008
29126SOL     OW89209   0.680   5.087   1.249
29126SOL    HW189210   0.701   5.133   1.167
29126SOL    HW289211   0.760   5.094   1.301
29127SOL     OW89212   6.321   1.307   3.310
29127SOL    HW189213   6.336   1.251   3.386
29127SOL    HW289214   6.355   1.257   3.236
29128SOL     OW89215  12.338   9.933  10.477
29128SOL    HW189216  12.358  10.006  10.536
29128SOL    HW289217  12.334   9.856  10.535
29129SOL     OW89218  10.333  10.359   5.057
29129SOL    HW189219  10.420  10.335   5.027
29129SOL    HW289220  10.292  10.401   4.981
29130SOL     OW89221   9.335   0.639   1.601
29130SOL    HW189222   9.424   0.642   1.567
29130SOL    HW289223   9.315   0.546   1.608
29131SOL     OW89224   4.503   8.258  12.101
29131SOL    HW189225   4.471   8.224  12.185
29131SOL    HW289226   4.579   8.311  12.124
29132SOL     OW89227  11.269   3.689   0.641
29132SOL    HW189228  11.340   3.682   0.704
29132SOL    HW289229  11.213   3.759   0.675
29133SOL     OW89230  13.133  11.197   2.092
29133SOL    HW189231  13.086  11.238   2.165
29133SOL    HW289232  13.112  11.104   2.098
29134SOL     OW89233   3.707   2.020   2.173
29134SOL    HW189234   3.747   1.954   2.116
29134SOL    HW289235   3.707   1.981   2.260
29135SOL     OW89236  10.920  11.660   6.404
29135SOL    HW189237  10.922  11.574   6.446
29135SOL    HW289238  10.828  11.684   6.402
29136SOL     OW89239   4.730   5.621   3.897
29136SOL    HW189240   4.786   5.549   3.923
29136SOL    HW289241   4.644   5.581   3.881
29137SOL     OW89242  13.279   5.050   0.904
29137SOL    HW189243  13.293   5.019   0.994
29137SOL    HW289244  13.264   4.970   0.854
29138SOL     OW89245   9.185  11.025  14.681
29138SOL    HW189246   9.210  11.007  14.772
29138SOL    HW289247   9.234  10.960  14.630
29139SOL     OW89248   0.323   5.528   4.822
29139SOL    HW189249   0.359   5.503   4.737
29139SOL    HW289250   0.400   5.550   4.875
29140SOL     OW89251   0.305  14.378   6.833
29140SOL    HW189252   0.251  14.391   6.911
29140SOL    HW289253   0.383  14.333   6.865
29141SOL     OW89254   1.859   4.999  11.092
29141SOL    HW189255   1.779   4.949  11.075
29141SOL    HW289256   1.929   4.934  11.086
29142SOL     OW89257  14.134   3.123  11.101
29142SOL    HW189258  14.106   3.162  11.183
29142SOL    HW289259  14.087   3.040  11.097
29143SOL     OW89260  13.693  11.835   2.792
29143SOL    HW189261  13.614  11.848   2.739
29143SOL    HW289262  13.729  11.923   2.803
29144SOL     OW89263  14.268   3.087  14.119
29144SOL    HW189264  14.255   3.168  14.070
29144SOL    HW289265  14.225   3.104  14.203
29145SOL     OW89266   3.141   2.604   8.048
29145SOL    HW189267   3.186   2.595   8.132
29145SOL    HW289268   3.156   2.695   8.022
29146SOL     OW89269   7.009   2.743   3.406
29146SOL    HW189270   7.023   2.766   3.498
29146SOL    HW289271   7.004   2.827   3.361
29147SOL     OW89272   3.333   4.502   6.055
29147SOL    HW189273   3.336   4.432   6.120
29147SOL    HW289274   3.243   4.534   6.059
29148SOL     OW89275   1.459   4.240   3.636
29148SOL    HW189276   1.501   4.279   3.559
29148SOL    HW289277   1.531   4.203   3.686
29149SOL     OW89278   9.518   4.496   5.063
29149SOL    HW189279   9.549   4.406   5.055
29149SOL    HW289280   9.424   4.490   5.048
29150SOL     OW89281   2.271   2.557  10.199
29150SOL    HW189282   2.341   2.541  10.263
29150SOL    HW289283   2.259   2.472  10.155
29151SOL     OW89284   7.802   7.061   8.577
29151SOL    HW189285   7.827   7.051   8.669
29151SOL    HW289286   7.773   7.152   8.569
29152SOL     OW89287   9.322   5.385  12.873
29152SOL    HW189288   9.272   5.464  12.893
29152SOL    HW289289   9.413   5.410  12.889
29153SOL     OW89290   3.569   7.861   0.731
29153SOL    HW189291   3.595   7.949   0.704
29153SOL    HW289292   3.507   7.832   0.664
29154SOL     OW89293   7.260   5.675   9.995
29154SOL    HW189294   7.234   5.667   9.903
29154SOL    HW289295   7.216   5.755  10.025
29155SOL     OW89296  13.566   7.890   0.154
29155SOL    HW189297  13.640   7.852   0.107
29155SOL    HW289298  13.557   7.978   0.117
29156SOL     OW89299   3.033  10.369   6.234
29156SOL    HW189300   3.038  10.461   6.207
29156SOL    HW289301   3.050  10.371   6.329
29157SOL     OW89302   3.114   6.928  10.846
29157SOL    HW189303   3.127   6.839  10.812
29157SOL    HW289304   3.183   6.940  10.911
29158SOL     OW89305   5.938  14.677   6.783
29158SOL    HW189306   5.941  14.637   6.870
29158SOL    HW289307   5.966  14.607   6.724
29159SOL     OW89308  12.350   0.542   9.036
29159SOL    HW189309  12.344   0.483   9.111
29159SOL    HW289310  12.424   0.600   9.056
29160SOL     OW89311   2.036   1.700   9.199
29160SOL    HW189312   1.983   1.680   9.277
29160SOL    HW289313   1.971   1.708   9.129
29161SOL     OW89314   4.871  12.450   2.358
29161SOL    HW189315   4.912  12.380   2.309
29161SOL    HW289316   4.794  12.474   2.306
29162SOL     OW89317   7.053   2.453   1.043
29162SOL    HW189318   7.110   2.376   1.039
29162SOL    HW289319   7.110   2.527   1.023
29163SOL     OW89320   3.146   7.018   5.625
29163SOL    HW189321   3.241   7.028   5.633
29163SOL    HW289322   3.122   6.960   5.698
29164SOL     OW89323   3.226  12.235  12.368
29164SOL    HW189324   3.178  12.312  12.336
29164SOL    HW289325   3.318  12.257  12.355
29165SOL     OW89326   7.758  13.121  14.638
29165SOL    HW189327   7.801  13.117  14.724
29165SOL    HW289328   7.784  13.206  14.603
29166SOL     OW89329  12.759  10.872   9.635
29166SOL    HW189330  12.757  10.787   9.680
29166SOL    HW289331  12.674  10.878   9.592
29167SOL     OW89332  13.101   0.536  10.560
29167SOL    HW189333  13.180   0.548  10.507
29167SOL    HW289334  13.090   0.441  10.565
29168SOL     OW89335   4.109   0.251   8.506
29168SOL    HW189336   4.196   0.216   8.487
29168SOL    HW289337   4.055   0.223   8.432
29169SOL     OW89338  10.114  14.368  13.274
29169SOL    HW189339  10.048  14.369  13.205
29169SOL    HW289340  10.082  14.429  13.340
29170SOL     OW89341   1.001   5.723   2.806
29170SOL    HW189342   1.042   5.676   2.733
29170SOL    HW289343   0.974   5.807   2.768
29171SOL     OW89344   7.372   3.736   8.642
29171SOL    HW189345   7.409   3.757   8.557
29171SOL    HW289346   7.396   3.645   8.657
29172SOL     OW89347   9.716   9.658   4.127
29172SOL    HW189348   9.690   9.574   4.089
29172SOL    HW289349   9.811   9.661   4.115
29173SOL     OW89350   0.756   5.673   4.748
29173SOL    HW189351   0.668   5.709   4.752
29173SOL    HW289352   0.789   5.677   4.838
29174SOL     OW89353   2.976   4.058   6.764
29174SOL    HW189354   2.967   4.117   6.839
29174SOL    HW289355   2.950   3.972   6.798
29175SOL     OW89356  11.258   5.627   3.729
29175SOL    HW189357  11.351   5.617   3.748
29175SOL    HW289358  11.249   5.596   3.639
29176SOL     OW89359   5.805   8.417  14.452
29176SOL    HW189360   5.746   8.488  14.426
29176SOL    HW289361   5.857   8.455  14.523
29177SOL     OW89362   7.439   9.684   3.000
29177SOL    HW189363   7.392   9.632   3.065
29177SOL    HW289364   7.478   9.755   3.051
29178SOL     OW89365  12.073   8.422  13.951
29178SOL    HW189366  12.128   8.405  14.028
29178SOL    HW289367  12.024   8.341  13.938
29179SOL     OW89368   7.241   6.293   8.991
29179SOL    HW189369   7.299   6.367   8.974
29179SOL    HW289370   7.260   6.231   8.920
29180SOL     OW89371   4.065   3.397   4.507
29180SOL    HW189372   4.014   3.404   4.588
29180SOL    HW289373   4.051   3.480   4.462
29181SOL     OW89374  13.296   8.753   1.780
29181SOL    HW189375  13.211   8.791   1.755
29181SOL    HW289376  13.273   8.669   1.821
29182SOL     OW89377   0.401   1.295   4.025
29182SOL    HW189378   0.315   1.268   4.056
29182SOL    HW289379   0.389   1.384   3.994
29183SOL     OW89380   6.827   5.921   2.338
29183SOL    HW189381   6.790   5.964   2.416
29183SOL    HW289382   6.751   5.896   2.286
29184SOL     OW89383   6.219  14.158   7.763
29184SOL    HW189384   6.164  14.166   7.685
29184SOL    HW289385   6.156  14.151   7.835
29185SOL     OW89386  10.143   2.792   2.104
29185SOL    HW189387  10.104   2.874   2.075
29185SOL    HW289388  10.192   2.815   2.183
29186SOL     OW89389   7.258  10.993   1.561
29186SOL    HW189390   7.281  11.081   1.531
29186SOL    HW289391   7.317  10.935   1.512
29187SOL     OW89392  11.036  12.366   9.654
29187SOL    HW189393  11.078  12.320   9.582
29187SOL    HW289394  11.017  12.297   9.718
29188SOL     OW89395  10.419   8.404  11.966
29188SOL    HW189396  10.437   8.357  12.048
29188SOL    HW289397  10.485   8.473  11.963
29189SOL     OW89398   8.401  10.549  13.753
29189SOL    HW189399   8.455  10.473  13.774
29189SOL    HW289400   8.385  10.591  13.838
29190SOL     OW89401   7.411   0.718   2.093
29190SOL    HW189402   7.503   0.746   2.093
29190SOL    HW289403   7.364   0.790   2.051
29191SOL     OW89404  14.570   4.793   7.374
29191SOL    HW189405  14.600   4.744   7.450
29191SOL    HW289406  14.528   4.870   7.410
29192SOL     OW89407   4.308   4.307  10.813
29192SOL    HW189408   4.367   4.374  10.848
29192SOL    HW289409   4.353   4.224  10.830
29193SOL     OW89410  14.001   8.147   2.165
29193SOL    HW189411  14.087   8.177   2.193
29193SOL    HW289412  13.982   8.200   2.087
29194SOL     OW89413  11.327   1.672  14.361
29194SOL    HW189414  11.330   1.590  14.410
29194SOL    HW289415  11.240   1.673  14.321
29195SOL     OW89416   5.019   4.214   0.555
29195SOL    HW189417   4.993   4.273   0.485
29195SOL    HW289418   4.942   4.160   0.571
29196SOL     OW89419   4.494   0.423   2.321
29196SOL    HW189420   4.563   0.448   2.259
29196SOL    HW289421   4.412   0.433   2.271
29197SOL     OW89422   9.640   8.894  14.359
29197SOL    HW189423   9.699   8.922  14.429
29197SOL    HW289424   9.618   8.975  14.312
29198SOL     OW89425   9.553   0.681   1.862
29198SOL    HW189426   9.584   0.771   1.859
29198SOL    HW289427   9.493   0.674   1.787
29199SOL     OW89428   3.830   1.293   8.253
29199SOL    HW189429   3.831   1.263   8.163
29199SOL    HW289430   3.820   1.388   8.247
29200SOL     OW89431   8.434  12.220  14.597
29200SOL    HW189432   8.410  12.213  14.505
29200SOL    HW289433   8.525  12.250  14.596
29201SOL     OW89434  10.681   0.448   4.297
29201SOL    HW189435  10.611   0.407   4.245
29201SOL    HW289436  10.684   0.396   4.377
29202SOL     OW89437   7.940  13.290   6.814
29202SOL    HW189438   8.012  13.351   6.801
29202SOL    HW289439   7.880  13.308   6.741
29203SOL     OW89440   9.436   0.887   0.919
29203SOL    HW189441   9.506   0.828   0.948
29203SOL    HW289442   9.356   0.847   0.951
29204SOL     OW89443  12.010   4.343  13.759
29204SOL    HW189444  12.103   4.354  13.780
29204SOL    HW289445  11.964   4.398  13.823
29205SOL     OW89446   1.661  12.841   3.206
29205SOL    HW189447   1.689  12.755   3.235
29205SOL    HW289448   1.565  12.835   3.204
29206SOL     OW89449  12.871   1.574   9.099
29206SOL    HW189450  12.843   1.506   9.038
29206SOL    HW289451  12.965   1.584   9.082
29207SOL     OW89452  13.507  11.541   8.961
29207SOL    HW189453  13.517  11.446   8.958
29207SOL    HW289454  13.413  11.556   8.969
29208SOL     OW89455  14.810   2.366  14.730
29208SOL    HW189456  14.735   2.387  14.676
29208SOL    HW289457  14.773   2.348  14.817
29209SOL     OW89458  10.628  12.533   8.862
29209SOL    HW189459  10.557  12.582   8.904
29209SOL    HW289460  10.707  12.584   8.880
29210SOL     OW89461   9.340   3.672   9.780
29210SOL    HW189462   9.389   3.592   9.797
29210SOL    HW289463   9.385   3.739   9.832
29211SOL     OW89464   4.847   0.885   7.754
29211SOL    HW189465   4.902   0.935   7.694
29211SOL    HW289466   4.778   0.946   7.780
29212SOL     OW89467   8.762  12.995   3.769
29212SOL    HW189468   8.814  12.916   3.786
29212SOL    HW289469   8.685  12.985   3.824
29213SOL     OW89470  11.837   7.986   2.578
29213SOL    HW189471  11.844   8.078   2.552
29213SOL    HW289472  11.821   7.990   2.672
29214SOL     OW89473   6.016  13.888   7.544
29214SOL    HW189474   6.013  13.917   7.636
29214SOL    HW289475   6.083  13.819   7.544
29215SOL     OW89476   8.222   4.937   3.809
29215SOL    HW189477   8.251   4.845   3.806
29215SOL    HW289478   8.236   4.963   3.901
29216SOL     OW89479  10.309   9.624  11.860
29216SOL    HW189480  10.268   9.686  11.919
29216SOL    HW289481  10.325   9.546  11.913
29217SOL     OW89482  12.918  11.741  13.644
29217SOL    HW189483  12.846  11.788  13.685
29217SOL    HW289484  12.883  11.654  13.625
29218SOL     OW89485  14.326   8.788   3.458
29218SOL    HW189486  14.297   8.863   3.509
29218SOL    HW289487  14.286   8.801   3.372
29219SOL     OW89488   1.831  11.740   2.382
29219SOL    HW189489   1.897  11.766   2.318
29219SOL    HW289490   1.802  11.653   2.352
29220SOL     OW89491   9.824  10.289   0.018
29220SOL    HW189492   9.753  10.316  14.835
29220SOL    HW289493   9.876  10.368   0.031
29221SOL     OW89494  14.370   3.589  11.671
29221SOL    HW189495  14.445   3.551  11.717
29221SOL    HW289496  14.360   3.534  11.593
29222SOL     OW89497   8.236   9.739   6.820
29222SOL    HW189498   8.247   9.702   6.908
29222SOL    HW289499   8.320   9.780   6.801
29223SOL     OW89500  12.745   4.167   7.948
29223SOL    HW189501  12.702   4.185   8.032
29223SOL    HW289502  12.796   4.088   7.964
29224SOL     OW89503   6.341   5.011   9.507
29224SOL    HW189504   6.334   4.939   9.569
29224SOL    HW289505   6.347   4.969   9.421
29225SOL     OW89506  13.081   6.309   8.057
29225SOL    HW189507  13.021   6.273   7.992
29225SOL    HW289508  13.031   6.305   8.139
29226SOL     OW89509   9.424   4.880   1.115
29226SOL    HW189510   9.392   4.941   1.049
29226SOL    HW289511   9.422   4.795   1.072
29227SOL     OW89512   3.822   9.501   3.514
29227SOL    HW189513   3.797   9.591   3.535
29227SOL    HW289514   3.871   9.471   3.590
29228SOL     OW89515   1.028   7.871   1.788
29228SOL    HW189516   1.012   7.960   1.821
29228SOL    HW289517   0.955   7.820   1.822
29229SOL     OW89518   6.992   9.296   7.908
29229SOL    HW189519   6.935   9.280   7.983
29229SOL    HW289520   6.978   9.220   7.851
29230SOL     OW89521   1.621   5.359   7.453
29230SOL    HW189522   1.672   5.279   7.444
29230SOL    HW289523   1.572   5.366   7.372
29231SOL     OW89524  14.672   3.510   9.028
29231SOL    HW189525  14.740   3.444   9.015
29231SOL    HW289526  14.669   3.523   9.123
29232SOL     OW89527   6.622   9.345   8.549
29232SOL    HW189528   6.579   9.425   8.578
29232SOL    HW289529   6.684   9.324   8.619
29233SOL     OW89530   9.907   1.220   0.417
29233SOL    HW189531   9.924   1.249   0.327
29233SOL    HW289532   9.863   1.294   0.459
29234SOL     OW89533   2.268   4.943   5.663
29234SOL    HW189534   2.206   4.894   5.608
29234SOL    HW289535   2.346   4.887   5.666
29235SOL     OW89536   5.430   2.501   9.354
29235SOL    HW189537   5.443   2.423   9.299
29235SOL    HW289538   5.396   2.466   9.436
29236SOL     OW89539   5.040   9.072   1.339
29236SOL    HW189540   5.114   9.033   1.384
29236SOL    HW289541   4.963   9.044   1.389
29237SOL     OW89542   7.182  11.166  11.249
29237SOL    HW189543   7.159  11.220  11.325
29237SOL    HW289544   7.200  11.080  11.286
29238SOL     OW89545  11.852   0.184   6.933
29238SOL    HW189546  11.922   0.125   6.959
29238SOL    HW289547  11.875   0.268   6.973
29239SOL     OW89548  14.671  12.507   1.182
29239SOL    HW189549  14.681  12.427   1.233
29239SOL    HW289550  14.584  12.539   1.204
29240SOL     OW89551   5.086  11.122   8.363
29240SOL    HW189552   5.008  11.155   8.317
29240SOL    HW289553   5.103  11.038   8.323
29241SOL     OW89554   3.504   6.610   8.382
29241SOL    HW189555   3.554   6.639   8.307
29241SOL    HW289556   3.557   6.635   8.458
29242SOL     OW89557  10.273  12.931  11.588
29242SOL    HW189558  10.269  13.022  11.561
29242SOL    HW289559  10.315  12.932  11.674
29243SOL     OW89560  12.474   2.093  11.069
29243SOL    HW189561  12.538   2.163  11.085
29243SOL    HW289562  12.397   2.120  11.119
29244SOL     OW89563   4.368   9.589  12.851
29244SOL    HW189564   4.378   9.515  12.911
29244SOL    HW289565   4.297   9.640  12.887
29245SOL     OW89566  14.784   2.778   6.052
29245SOL    HW189567  14.708   2.812   6.100
29245SOL    HW289568  14.831   2.856   6.024
29246SOL     OW89569   6.640   0.180   7.481
29246SOL    HW189570   6.549   0.156   7.498
29246SOL    HW289571   6.682   0.179   7.567
29247SOL     OW89572  10.915  12.425  10.344
29247SOL    HW189573  10.890  12.430  10.251
29247SOL    HW289574  10.936  12.516  10.367
29248SOL     OW89575  12.271   8.255   2.487
29248SOL    HW189576  12.282   8.165   2.516
29248SOL    HW289577  12.268   8.250   2.392
29249SOL     OW89578   6.622   8.481  14.117
29249SOL    HW189579   6.638   8.502  14.025
29249SOL    HW289580   6.700   8.432  14.144
29250SOL     OW89581  12.904  11.003   4.775
29250SOL    HW189582  12.922  10.944   4.702
29250SOL    HW289583  12.866  10.947   4.843
29251SOL     OW89584   0.227   1.662  13.479
29251SOL    HW189585   0.306   1.642  13.529
29251SOL    HW289586   0.237   1.754  13.453
29252SOL     OW89587  11.917   6.471   0.058
29252SOL    HW189588  11.833   6.516   0.064
29252SOL    HW289589  11.967   6.503   0.134
29253SOL     OW89590  13.719   0.102   3.005
29253SOL    HW189591  13.761   0.114   3.091
29253SOL    HW289592  13.640   0.155   3.009
29254SOL     OW89593   3.873   6.337   1.459
29254SOL    HW189594   3.959   6.298   1.449
29254SOL    HW289595   3.820   6.297   1.390
29255SOL     OW89596   2.265  11.449   9.797
29255SOL    HW189597   2.353  11.415   9.781
29255SOL    HW289598   2.259  11.456   9.892
29256SOL     OW89599   7.422  10.132   4.290
29256SOL    HW189600   7.368  10.109   4.215
29256SOL    HW289601   7.477  10.056   4.306
29257SOL     OW89602   4.575  14.616   7.561
29257SOL    HW189603   4.592  14.687   7.623
29257SOL    HW289604   4.491  14.638   7.522
29258SOL     OW89605   2.476   9.017   9.194
29258SOL    HW189606   2.391   9.000   9.152
29258SOL    HW289607   2.539   8.967   9.142
29259SOL     OW89608   8.864   8.425   6.172
29259SOL    HW189609   8.890   8.479   6.247
29259SOL    HW289610   8.879   8.481   6.096
29260SOL     OW89611  11.538  13.889   6.981
29260SOL    HW189612  11.578  13.813   6.940
29260SOL    HW289613  11.556  13.879   7.075
29261SOL     OW89614   8.375  10.504   6.639
29261SOL    HW189615   8.365  10.496   6.544
29261SOL    HW289616   8.290  10.535   6.670
29262SOL     OW89617  13.416  12.691  10.800
29262SOL    HW189618  13.450  12.751  10.732
29262SOL    HW289619  13.495  12.655  10.841
29263SOL     OW89620  12.605  12.155   0.214
29263SOL    HW189621  12.513  12.176   0.232
29263SOL    HW289622  12.654  12.202   0.280
29264SOL     OW89623   4.361   7.713   6.659
29264SOL    HW189624   4.382   7.804   6.678
29264SOL    HW289625   4.322   7.679   6.740
29265SOL     OW89626   3.993   9.598   1.958
29265SOL    HW189627   3.961   9.640   2.038
29265SOL    HW289628   4.074   9.644   1.937
29266SOL     OW89629  14.153   1.290   8.263
29266SOL    HW189630  14.065   1.309   8.232
29266SOL    HW289631  14.149   1.200   8.295
29267SOL     OW89632   6.567  10.511  13.158
29267SOL    HW189633   6.584  10.480  13.069
29267SOL    HW289634   6.628  10.462  13.213
29268SOL     OW89635  14.089  11.429   8.031
29268SOL    HW189636  14.021  11.495   8.017
29268SOL    HW289637  14.042  11.346   8.034
29269SOL     OW89638   1.769  14.539  11.481
29269SOL    HW189639   1.780  14.568  11.391
29269SOL    HW289640   1.849  14.567  11.525
29270SOL     OW89641   3.658  14.198   8.927
29270SOL    HW189642   3.657  14.293   8.917
29270SOL    HW289643   3.681  14.184   9.019
29271SOL     OW89644   2.974   1.650   8.065
29271SOL    HW189645   2.898   1.703   8.039
29271SOL    HW289646   2.977   1.659   8.161
29272SOL     OW89647  13.776  13.141  14.450
29272SOL    HW189648  13.762  13.214  14.510
29272SOL    HW289649  13.745  13.173  14.366
29273SOL     OW89650  10.691   0.112  14.635
29273SOL    HW189651  10.637   0.035  14.650
29273SOL    HW289652  10.767   0.080  14.588
29274SOL     OW89653   7.186  14.730  11.060
29274SOL    HW189654   7.244  14.667  11.103
29274SOL    HW289655   7.103  14.683  11.049
29275SOL     OW89656   7.542   1.271   6.053
29275SOL    HW189657   7.568   1.335   5.987
29275SOL    HW289658   7.611   1.276   6.119
29276SOL     OW89659   6.139   5.199   1.314
29276SOL    HW189660   6.111   5.283   1.279
29276SOL    HW289661   6.085   5.135   1.267
29277SOL     OW89662   7.617   0.828  14.790
29277SOL    HW189663   7.686   0.826  14.857
29277SOL    HW289664   7.578   0.741  14.794
29278SOL     OW89665   6.470   4.301   9.844
29278SOL    HW189666   6.419   4.369   9.888
29278SOL    HW289667   6.560   4.317   9.870
29279SOL     OW89668   3.267  10.217  14.079
29279SOL    HW189669   3.187  10.260  14.108
29279SOL    HW289670   3.315  10.285  14.031
29280SOL     OW89671   5.015   9.075   0.226
29280SOL    HW189672   4.995   8.982   0.234
29280SOL    HW289673   4.949   9.108   0.165
29281SOL     OW89674  13.457   5.935   9.515
29281SOL    HW189675  13.410   5.916   9.596
29281SOL    HW289676  13.518   5.862   9.505
29282SOL     OW89677   6.372   7.379   0.809
29282SOL    HW189678   6.429   7.357   0.735
29282SOL    HW289679   6.390   7.311   0.874
29283SOL     OW89680  12.924   6.373  10.069
29283SOL    HW189681  12.952   6.464  10.057
29283SOL    HW289682  12.876   6.353   9.988
29284SOL     OW89683   5.671  12.014   4.650
29284SOL    HW189684   5.742  11.963   4.689
29284SOL    HW289685   5.687  12.103   4.682
29285SOL     OW89686   0.490  14.014  10.249
29285SOL    HW189687   0.417  13.987  10.193
29285SOL    HW289688   0.560  14.037  10.188
29286SOL     OW89689   5.334   7.194  13.604
29286SOL    HW189690   5.244   7.221  13.623
29286SOL    HW289691   5.325   7.127  13.536
29287SOL     OW89692  13.975   2.055   6.770
29287SOL    HW189693  13.894   2.071   6.723
29287SOL    HW289694  13.976   2.121   6.840
29288SOL     OW89695  11.054   7.279  14.676
29288SOL    HW189696  11.040   7.358  14.623
29288SOL    HW289697  10.967   7.238  14.679
29289SOL     OW89698  14.219  12.848   5.707
29289SOL    HW189699  14.128  12.874   5.721
29289SOL    HW289700  14.213  12.771   5.651
29290SOL     OW89701   2.258  13.825   6.464
29290SOL    HW189702   2.296  13.768   6.531
29290SOL    HW289703   2.334  13.858   6.415
29291SOL     OW89704  11.468  10.334  14.015
29291SOL    HW189705  11.528  10.324  14.090
29291SOL    HW289706  11.471  10.427  13.994
29292SOL     OW89707  11.799   7.404  10.562
29292SOL    HW189708  11.806   7.317  10.522
29292SOL    HW289709  11.768   7.387  10.651
29293SOL     OW89710  12.422   2.058  14.619
29293SOL    HW189711  12.486   2.128  14.603
29293SOL    HW289712  12.383   2.080  14.703
29294SOL     OW89713   0.968  13.756  13.707
29294SOL    HW189714   0.914  13.677  13.705
29294SOL    HW289715   1.049  13.728  13.751
29295SOL     OW89716   4.541  13.383   1.458
29295SOL    HW189717   4.559  13.474   1.482
29295SOL    HW289718   4.549  13.381   1.363
29296SOL     OW89719  14.757  11.522   8.206
29296SOL    HW189720  14.779  11.501   8.115
29296SOL    HW289721  14.706  11.446   8.236
29297SOL     OW89722   3.059   5.137   6.110
29297SOL    HW189723   3.083   5.222   6.071
29297SOL    HW289724   3.002   5.160   6.184
29298SOL     OW89725   8.288  14.833   4.918
29298SOL    HW189726   8.256  14.824   5.007
29298SOL    HW289727   8.333  14.750   4.900
29299SOL     OW89728   0.538  11.609   6.465
29299SOL    HW189729   0.612  11.570   6.418
29299SOL    HW289730   0.525  11.552   6.541
29300SOL     OW89731   7.928  13.887  10.175
29300SOL    HW189732   7.980  13.858  10.250
29300SOL    HW289733   7.987  13.943  10.124
29301SOL     OW89734   8.037   0.251   7.901
29301SOL    HW189735   7.948   0.282   7.890
29301SOL    HW289736   8.090   0.330   7.901
29302SOL     OW89737   5.868   1.762  14.718
29302SOL    HW189738   5.829   1.691  14.768
29302SOL    HW289739   5.954   1.775  14.758
29303SOL     OW89740  11.219   1.074   3.306
29303SOL    HW189741  11.188   1.036   3.388
29303SOL    HW289742  11.314   1.075   3.314
29304SOL     OW89743   7.522   3.898  11.581
29304SOL    HW189744   7.464   3.907  11.656
29304SOL    HW289745   7.609   3.883  11.620
29305SOL     OW89746  11.645   2.499   6.248
29305SOL    HW189747  11.594   2.423   6.220
29305SOL    HW289748  11.730   2.464   6.274
29306SOL     OW89749   7.819   6.227   1.189
29306SOL    HW189750   7.821   6.232   1.094
29306SOL    HW289751   7.759   6.297   1.216
29307SOL     OW89752   6.955   2.243   4.670
29307SOL    HW189753   6.912   2.159   4.659
29307SOL    HW289754   6.895   2.306   4.631
29308SOL     OW89755  11.206   6.164  12.246
29308SOL    HW189756  11.130   6.109  12.267
29308SOL    HW289757  11.175   6.253  12.262
29309SOL     OW89758  12.718  10.186   7.889
29309SOL    HW189759  12.750  10.119   7.828
29309SOL    HW289760  12.623  10.188   7.875
29310SOL     OW89761  10.885   9.429   0.846
29310SOL    HW189762  10.969   9.410   0.804
29310SOL    HW289763  10.907   9.444   0.938
29311SOL     OW89764   1.934  12.581   2.000
29311SOL    HW189765   1.943  12.632   2.080
29311SOL    HW289766   1.954  12.642   1.929
29312SOL     OW89767   1.343   5.500   7.485
29312SOL    HW189768   1.315   5.422   7.533
29312SOL    HW289769   1.413   5.469   7.428
29313SOL     OW89770   0.247   3.437   2.050
29313SOL    HW189771   0.215   3.362   2.000
29313SOL    HW289772   0.301   3.487   1.988
29314SOL     OW89773   3.153  10.693   4.362
29314SOL    HW189774   3.146  10.671   4.454
29314SOL    HW289775   3.062  10.707   4.334
29315SOL     OW89776   2.888   2.571   7.945
29315SOL    HW189777   2.837   2.609   8.016
29315SOL    HW289778   2.979   2.595   7.965
29316SOL     OW89779   3.936  12.874   8.089
29316SOL    HW189780   3.940  12.967   8.067
29316SOL    HW289781   4.013  12.836   8.046
29317SOL     OW89782   5.168   8.185   2.898
29317SOL    HW189783   5.107   8.147   2.834
29317SOL    HW289784   5.123   8.178   2.982
29318SOL     OW89785  10.968   2.094  11.332
29318SOL    HW189786  10.969   2.131  11.420
29318SOL    HW289787  10.976   2.171  11.274
29319SOL     OW89788   7.148   3.541  14.130
29319SOL    HW189789   7.208   3.466  14.136
29319SOL    HW289790   7.176   3.588  14.052
29320SOL     OW89791  13.262   7.408  13.901
29320SOL    HW189792  13.300   7.414  13.988
29320SOL    HW289793  13.264   7.497  13.867
29321SOL     OW89794   9.448   7.565   7.743
29321SOL    HW189795   9.410   7.644   7.780
29321SOL    HW289796   9.431   7.497   7.808
29322SOL     OW89797  12.257  11.553   7.536
29322SOL    HW189798  12.271  11.642   7.567
29322SOL    HW289799  12.216  11.508   7.611
29323SOL     OW89800  12.228   5.183   0.159
29323SOL    HW189801  12.197   5.272   0.139
29323SOL    HW289802  12.301   5.170   0.098
29324SOL     OW89803   2.816   3.261   3.682
29324SOL    HW189804   2.722   3.271   3.692
29324SOL    HW289805   2.850   3.350   3.675
29325SOL     OW89806   4.195   1.428   1.041
29325SOL    HW189807   4.251   1.350   1.044
29325SOL    HW289808   4.158   1.427   0.952
29326SOL     OW89809   8.673   2.399  10.519
29326SOL    HW189810   8.750   2.402  10.461
29326SOL    HW289811   8.676   2.312  10.558
29327SOL     OW89812   6.284  10.143   5.661
29327SOL    HW189813   6.191  10.154   5.641
29327SOL    HW289814   6.288  10.063   5.713
29328SOL     OW89815  10.356   8.389   8.968
29328SOL    HW189816  10.266   8.394   8.935
29328SOL    HW289817  10.399   8.328   8.909
29329SOL     OW89818   4.028   7.852  13.424
29329SOL    HW189819   4.011   7.782  13.360
29329SOL    HW289820   3.958   7.842  13.488
29330SOL     OW89821  10.515  11.798  11.710
29330SOL    HW189822  10.472  11.787  11.795
29330SOL    HW289823  10.602  11.833  11.733
29331SOL     OW89824  10.073   2.089  10.536
29331SOL    HW189825  10.015   2.100  10.460
29331SOL    HW289826  10.014   2.094  10.612
29332SOL     OW89827   5.100  13.366   7.992
29332SOL    HW189828   5.100  13.275   8.022
29332SOL    HW289829   5.112  13.361   7.898
29333SOL     OW89830   4.364   5.182  13.657
29333SOL    HW189831   4.324   5.270  13.661
29333SOL    HW289832   4.327   5.143  13.578
29334SOL     OW89833  11.222  10.963   1.969
29334SOL    HW189834  11.235  11.057   1.978
29334SOL    HW289835  11.227  10.929   2.058
29335SOL     OW89836  11.605  12.211   0.169
29335SOL    HW189837  11.565  12.270   0.233
29335SOL    HW289838  11.666  12.157   0.220
29336SOL     OW89839  14.080   4.719  11.053
29336SOL    HW189840  14.156   4.677  11.012
29336SOL    HW289841  14.088   4.812  11.029
29337SOL     OW89842  10.976  13.466   0.289
29337SOL    HW189843  10.944  13.553   0.311
29337SOL    HW289844  11.026  13.438   0.365
29338SOL     OW89845   8.329   5.379   1.958
29338SOL    HW189846   8.352   5.371   1.866
29338SOL    HW289847   8.258   5.316   1.971
29339SOL     OW89848   1.985   9.488   7.736
29339SOL    HW189849   2.029   9.570   7.759
29339SOL    HW289850   1.918   9.476   7.804
29340SOL     OW89851   9.884  13.438  12.504
29340SOL    HW189852   9.891  13.386  12.584
29340SOL    HW289853   9.798  13.416  12.468
29341SOL     OW89854   5.352   6.680  12.716
29341SOL    HW189855   5.298   6.606  12.747
29341SOL    HW289856   5.300   6.757  12.737
29342SOL     OW89857  13.912   0.304   9.521
29342SOL    HW189858  13.938   0.375   9.579
29342SOL    HW289859  13.994   0.274   9.481
29343SOL     OW89860   7.349  11.237   2.013
29343SOL    HW189861   7.372  11.311   1.956
29343SOL    HW289862   7.259  11.254   2.040
29344SOL     OW89863   9.767   0.316  12.273
29344SOL    HW189864   9.709   0.285  12.342
29344SOL    HW289865   9.727   0.396  12.241
29345SOL     OW89866  12.648   6.608   5.539
29345SOL    HW189867  12.570   6.558   5.514
29345SOL    HW289868  12.651   6.602   5.635
29346SOL     OW89869  12.501   6.667   7.625
29346SOL    HW189870  12.517   6.712   7.541
29346SOL    HW289871  12.432   6.718   7.667
29347SOL     OW89872  11.774   0.202   1.214
29347SOL    HW189873  11.831   0.233   1.143
29347SOL    HW289874  11.815   0.120   1.242
29348SOL     OW89875  12.392   4.363   5.405
29348SOL    HW189876  12.445   4.284   5.400
29348SOL    HW289877  12.452   4.430   5.438
29349SOL     OW89878  14.651   1.219  10.560
29349SOL    HW189879  14.648   1.310  10.530
29349SOL    HW289880  14.562   1.187  10.548
29350SOL     OW89881  13.619   7.648   1.934
29350SOL    HW189882  13.586   7.732   1.904
29350SOL    HW289883  13.677   7.619   1.864
29351SOL     OW89884  11.289  13.468   0.765
29351SOL    HW189885  11.370  13.519   0.768
29351SOL    HW289886  11.289  13.420   0.848
29352SOL     OW89887   5.712   6.568  10.354
29352SOL    HW189888   5.739   6.630  10.287
29352SOL    HW289889   5.643   6.516  10.312
29353SOL     OW89890   2.974  10.616  12.060
29353SOL    HW189891   2.952  10.608  12.153
29353SOL    HW289892   2.909  10.561  12.016
29354SOL     OW89893  10.877   6.853  14.737
29354SOL    HW189894  10.896   6.763  14.765
29354SOL    HW289895  10.798   6.845  14.683
29355SOL     OW89896   5.108  14.780   6.496
29355SOL    HW189897   5.055  14.839   6.549
29355SOL    HW289898   5.116  14.823   6.411
29356SOL     OW89899  11.210   3.827  14.641
29356SOL    HW189900  11.116   3.825  14.625
29356SOL    HW289901  11.222   3.892  14.710
29357SOL     OW89902   4.503   9.797   5.131
29357SOL    HW189903   4.537   9.747   5.056
29357SOL    HW289904   4.411   9.772   5.137
29358SOL     OW89905  14.818   9.302   8.418
29358SOL    HW189906  14.744   9.251   8.385
29358SOL    HW289907  14.832   9.270   8.507
29359SOL     OW89908   8.848   4.675   4.604
29359SOL    HW189909   8.932   4.627   4.603
29359SOL    HW289910   8.785   4.612   4.570
29360SOL     OW89911  12.813   4.044   9.760
29360SOL    HW189912  12.896   4.029   9.805
29360SOL    HW289913  12.807   3.972   9.697
29361SOL     OW89914  12.730   7.553  11.650
29361SOL    HW189915  12.808   7.516  11.609
29361SOL    HW289916  12.746   7.546  11.744
29362SOL     OW89917  12.197   8.145   4.749
29362SOL    HW189918  12.121   8.087   4.747
29362SOL    HW289919  12.226   8.144   4.840
29363SOL     OW89920  13.732   3.895   3.645
29363SOL    HW189921  13.689   3.895   3.559
29363SOL    HW289922  13.814   3.848   3.631
29364SOL     OW89923   9.151   7.192   9.700
29364SOL    HW189924   9.205   7.266   9.725
29364SOL    HW289925   9.094   7.225   9.630
29365SOL     OW89926   8.514  13.362  14.173
29365SOL    HW189927   8.592  13.314  14.202
29365SOL    HW289928   8.547  13.423  14.107
29366SOL     OW89929   0.137  14.161   7.728
29366SOL    HW189930   0.077  14.112   7.785
29366SOL    HW289931   0.217  14.109   7.728
29367SOL     OW89932   6.688   8.006  14.232
29367SOL    HW189933   6.677   8.034  14.323
29367SOL    HW289934   6.653   7.917  14.230
29368SOL     OW89935   1.488   6.759   1.658
29368SOL    HW189936   1.460   6.671   1.681
29368SOL    HW289937   1.427   6.787   1.590
29369SOL     OW89938   7.572   9.496  12.304
29369SOL    HW189939   7.622   9.415  12.312
29369SOL    HW289940   7.514   9.497  12.380
29370SOL     OW89941  10.942   0.215  13.182
29370SOL    HW189942  10.901   0.223  13.269
29370SOL    HW289943  10.899   0.282  13.129
29371SOL     OW89944   6.150  12.036  14.550
29371SOL    HW189945   6.102  12.118  14.534
29371SOL    HW289946   6.143  12.023  14.645
29372SOL     OW89947   2.824   5.609   8.423
29372SOL    HW189948   2.849   5.525   8.461
29372SOL    HW289949   2.905   5.660   8.420
29373SOL     OW89950   4.443   4.321  14.242
29373SOL    HW189951   4.514   4.273  14.282
29373SOL    HW289952   4.365   4.269  14.261
29374SOL     OW89953   1.405  12.108  12.942
29374SOL    HW189954   1.389  12.030  12.996
29374SOL    HW289955   1.359  12.178  12.986
29375SOL     OW89956   2.275   0.032   2.943
29375SOL    HW189957   2.254  14.837   2.882
29375SOL    HW289958   2.204   0.030   3.007
29376SOL     OW89959   9.732   2.639   2.218
29376SOL    HW189960   9.655   2.671   2.172
29376SOL    HW289961   9.799   2.630   2.150
29377SOL     OW89962  13.052   3.274   1.839
29377SOL    HW189963  13.107   3.277   1.761
29377SOL    HW289964  13.112   3.256   1.911
29378SOL     OW89965   7.398   3.685   1.123
29378SOL    HW189966   7.344   3.705   1.200
29378SOL    HW289967   7.465   3.753   1.122
29379SOL     OW89968   4.294   2.224   2.636
29379SOL    HW189969   4.370   2.202   2.582
29379SOL    HW289970   4.328   2.287   2.700
29380SOL     OW89971   7.031   1.592  10.486
29380SOL    HW189972   6.974   1.517  10.468
29380SOL    HW289973   7.078   1.569  10.566
29381SOL     OW89974  10.422  13.081   5.428
29381SOL    HW189975  10.386  13.110   5.344
29381SOL    HW289976  10.515  13.068   5.411
29382SOL     OW89977   9.599   4.433   7.631
29382SOL    HW189978   9.627   4.359   7.576
29382SOL    HW289979   9.557   4.391   7.707
29383SOL     OW89980   8.569   8.682   6.148
29383SOL    HW189981   8.595   8.596   6.180
29383SOL    HW289982   8.488   8.666   6.099
29384SOL     OW89983  10.170   6.196   7.925
29384SOL    HW189984  10.200   6.216   7.836
29384SOL    HW289985  10.112   6.268   7.948
29385SOL     OW89986   7.100   8.446   6.935
29385SOL    HW189987   7.125   8.354   6.938
29385SOL    HW289988   7.005   8.445   6.948
29386SOL     OW89989  11.173   9.546   0.866
29386SOL    HW189990  11.166   9.520   0.958
29386SOL    HW289991  11.232   9.482   0.828
29387SOL     OW89992  11.031   0.586  14.438
29387SOL    HW189993  10.939   0.561  14.438
29387SOL    HW289994  11.066   0.547  14.518
29388SOL     OW89995   5.637   7.072   2.608
29388SOL    HW189996   5.546   7.089   2.583
29388SOL    HW289997   5.685   7.149   2.578
29389SOL     OW89998   9.316  12.602  10.363
29389SOL    HW189999   9.379  12.634  10.299
29389SOL    HW290000   9.292  12.514  10.331
29390SOL     OW90001   6.625   4.073   9.081
29390SOL    HW190002   6.541   4.035   9.107
29390SOL    HW290003   6.620   4.077   8.985
29391SOL     OW90004   5.328  11.288  12.358
29391SOL    HW190005   5.376  11.354  12.307
29391SOL    HW290006   5.396  11.235  12.400
29392SOL     OW90007   9.455   7.980  10.457
29392SOL    HW190008   9.360   7.985  10.455
29392SOL    HW290009   9.473   7.886  10.465
29393SOL     OW90010   4.053  12.177   6.516
29393SOL    HW190011   3.986  12.241   6.493
29393SOL    HW290012   4.099  12.216   6.591
29394SOL     OW90013  13.814   5.857   9.940
29394SOL    HW190014  13.845   5.789  10.000
29394SOL    HW290015  13.801   5.812   9.857
29395SOL     OW90016  13.493   1.325  12.805
29395SOL    HW190017  13.518   1.323  12.712
29395SOL    HW290018  13.573   1.298  12.852
29396SOL     OW90019  11.842   1.520  12.375
29396SOL    HW190020  11.903   1.571  12.322
29396SOL    HW290021  11.812   1.451  12.315
29397SOL     OW90022  10.021  13.636  11.814
29397SOL    HW190023   9.980  13.652  11.729
29397SOL    HW290024  10.055  13.547  11.807
29398SOL     OW90025   9.678  14.717  12.695
29398SOL    HW190026   9.720  14.638  12.730
29398SOL    HW290027   9.598  14.726  12.747
29399SOL     OW90028   3.497  11.124  12.222
29399SOL    HW190029   3.439  11.144  12.295
29399SOL    HW290030   3.573  11.082  12.263
29400SOL     OW90031   7.479  13.359  11.887
29400SOL    HW190032   7.389  13.343  11.857
29400SOL    HW290033   7.483  13.453  11.902
29401SOL     OW90034   4.939  14.566   4.530
29401SOL    HW190035   4.912  14.483   4.569
29401SOL    HW290036   4.913  14.633   4.593
29402SOL     OW90037  13.920   8.983   3.173
29402SOL    HW190038  13.868   8.930   3.113
29402SOL    HW290039  13.863   9.057   3.194
29403SOL     OW90040   9.631   0.750   4.258
29403SOL    HW190041   9.652   0.657   4.253
29403SOL    HW290042   9.683   0.783   4.332
29404SOL     OW90043   5.026   3.393  14.615
29404SOL    HW190044   4.943   3.346  14.619
29404SOL    HW290045   5.092   3.325  14.606
29405SOL     OW90046   8.663   3.758   6.014
29405SOL    HW190047   8.596   3.725   6.074
29405SOL    HW290048   8.690   3.682   5.963
29406SOL     OW90049   5.661   6.416  13.810
29406SOL    HW190050   5.585   6.360  13.829
29406SOL    HW290051   5.701   6.376  13.733
29407SOL     OW90052   0.470   3.685  14.785
29407SOL    HW190053   0.389   3.730  14.761
29407SOL    HW290054   0.474   3.609  14.726
29408SOL     OW90055  10.743  13.822   4.307
29408SOL    HW190056  10.780  13.748   4.355
29408SOL    HW290057  10.817  13.882   4.295
29409SOL     OW90058  11.056   4.130   1.044
29409SOL    HW190059  11.147   4.138   1.074
29409SOL    HW290060  11.036   4.216   1.007
29410SOL     OW90061  14.797  13.180   6.755
29410SOL    HW190062  14.860  13.208   6.688
29410SOL    HW290063  14.802  13.247   6.822
29411SOL     OW90064  13.997  14.794  11.461
29411SOL    HW190065  14.076  14.746  11.486
29411SOL    HW290066  14.028  14.859  11.398
29412SOL     OW90067   5.723   9.364   2.455
29412SOL    HW190068   5.766   9.448   2.474
29412SOL    HW290069   5.795   9.303   2.438
29413SOL     OW90070  14.533   3.203  14.733
29413SOL    HW190071  14.585   3.129  14.765
29413SOL    HW290072  14.589   3.279  14.746
29414SOL     OW90073   6.555   4.943  14.484
29414SOL    HW190074   6.492   5.005  14.521
29414SOL    HW290075   6.641   4.981  14.502
29415SOL     OW90076   5.962   0.723  13.908
29415SOL    HW190077   5.874   0.738  13.873
29415SOL    HW290078   5.949   0.713  14.002
29416SOL     OW90079   4.307   4.481   1.746
29416SOL    HW190080   4.386   4.480   1.692
29416SOL    HW290081   4.337   4.511   1.831
29417SOL     OW90082   6.792   2.066  14.584
29417SOL    HW190083   6.711   2.086  14.632
29417SOL    HW290084   6.802   2.138  14.522
29418SOL     OW90085   8.763   4.395  13.788
29418SOL    HW190086   8.667   4.394  13.789
29418SOL    HW290087   8.785   4.467  13.729
29419SOL     OW90088  11.101   2.926  10.859
29419SOL    HW190089  11.104   2.982  10.781
29419SOL    HW290090  11.020   2.951  10.904
29420SOL     OW90091  14.714   5.913   3.189
29420SOL    HW190092  14.753   5.911   3.102
29420SOL    HW290093  14.641   5.975   3.182
29421SOL     OW90094  12.120   3.442   5.156
29421SOL    HW190095  12.079   3.361   5.125
29421SOL    HW290096  12.123   3.498   5.079
29422SOL     OW90097   0.475   5.495   4.583
29422SOL    HW190098   0.516   5.409   4.573
29422SOL    HW290099   0.485   5.537   4.497
29423SOL     OW90100   4.407   7.490  13.372
29423SOL    HW190101   4.317   7.497  13.404
29423SOL    HW290102   4.401   7.508  13.278
29424SOL     OW90103  13.287   6.463   9.491
29424SOL    HW190104  13.233   6.488   9.565
29424SOL    HW290105  13.280   6.537   9.430
29425SOL     OW90106   4.379  13.133  11.353
29425SOL    HW190107   4.346  13.192  11.285
29425SOL    HW290108   4.392  13.189  11.430
29426SOL     OW90109  14.659   4.743  10.358
29426SOL    HW190110  14.721   4.674  10.335
29426SOL    HW290111  14.673   4.811  10.292
29427SOL     OW90112  13.852   6.797   3.720
29427SOL    HW190113  13.903   6.796   3.801
29427SOL    HW290114  13.822   6.707   3.710
29428SOL     OW90115   4.973  11.414   4.467
29428SOL    HW190116   4.969  11.401   4.562
29428SOL    HW290117   4.996  11.507   4.458
29429SOL     OW90118  13.063   8.761  10.923
29429SOL    HW190119  13.001   8.775  10.994
29429SOL    HW290120  13.016   8.704  10.861
29430SOL     OW90121  14.227  14.426   2.777
29430SOL    HW190122  14.139  14.425   2.816
29430SOL    HW290123  14.279  14.372   2.836
29431SOL     OW90124   3.706   8.484  13.837
29431SOL    HW190125   3.795   8.451  13.821
29431SOL    HW290126   3.659   8.409  13.872
29432SOL     OW90127   5.410   9.480   4.411
29432SOL    HW190128   5.386   9.411   4.349
29432SOL    HW290129   5.394   9.440   4.497
29433SOL     OW90130   9.892   3.892   2.459
29433SOL    HW190131   9.843   3.960   2.413
29433SOL    HW290132   9.835   3.815   2.456
29434SOL     OW90133   2.576  12.045   7.753
29434SOL    HW190134   2.574  12.045   7.848
29434SOL    HW290135   2.621  12.126   7.730
29435SOL     OW90136   4.080  11.175   8.258
29435SOL    HW190137   4.088  11.144   8.348
29435SOL    HW290138   4.168  11.205   8.235
29436SOL     OW90139   8.295   4.432  10.163
29436SOL    HW190140   8.344   4.375  10.221
29436SOL    HW290141   8.214   4.384  10.145
29437SOL     OW90142   2.416   2.551   6.314
29437SOL    HW190143   2.356   2.501   6.369
29437SOL    HW290144   2.440   2.627   6.367
29438SOL     OW90145  11.282   0.311   3.163
29438SOL    HW190146  11.267   0.396   3.205
29438SOL    HW290147  11.375   0.312   3.141
29439SOL     OW90148  10.744  13.225   8.813
29439SOL    HW190149  10.676  13.173   8.855
29439SOL    HW290150  10.720  13.227   8.721
29440SOL     OW90151   3.464  10.714  14.169
29440SOL    HW190152   3.377  10.753  14.180
29440SOL    HW290153   3.493  10.743  14.083
29441SOL     OW90154   3.037   3.898  10.709
29441SOL    HW190155   3.010   3.896  10.801
29441SOL    HW290156   3.132   3.897  10.712
29442SOL     OW90157   7.215   3.088  12.027
29442SOL    HW190158   7.288   3.058  12.082
29442SOL    HW290159   7.172   3.007  11.998
29443SOL     OW90160  12.972   6.862   1.558
29443SOL    HW190161  13.002   6.858   1.648
29443SOL    HW290162  12.952   6.772   1.535
29444SOL     OW90163  13.455  10.898  11.406
29444SOL    HW190164  13.383  10.933  11.458
29444SOL    HW290165  13.533  10.943  11.440
29445SOL     OW90166   5.526  14.547  12.392
29445SOL    HW190167   5.566  14.539  12.305
29445SOL    HW290168   5.581  14.612  12.437
29446SOL     OW90169   2.086  14.037   1.939
29446SOL    HW190170   2.078  14.039   2.034
29446SOL    HW290171   2.141  13.962   1.921
29447SOL     OW90172   6.395   1.239   0.650
29447SOL    HW190173   6.400   1.185   0.570
29447SOL    HW290174   6.396   1.329   0.618
29448SOL     OW90175   6.491   2.761  10.998
29448SOL    HW190176   6.549   2.745  11.073
29448SOL    HW290177   6.468   2.674  10.967
29449SOL     OW90178  10.199   0.719  14.149
29449SOL    HW190179  10.178   0.790  14.209
29449SOL    HW290180  10.286   0.740  14.116
29450SOL     OW90181   9.454   6.688   7.251
29450SOL    HW190182   9.461   6.665   7.344
29450SOL    HW290183   9.444   6.603   7.207
29451SOL     OW90184   1.003   5.858   4.681
29451SOL    HW190185   0.973   5.783   4.732
29451SOL    HW290186   0.933   5.923   4.691
29452SOL     OW90187   8.883   1.404  10.287
29452SOL    HW190188   8.846   1.316  10.284
29452SOL    HW290189   8.896   1.428  10.195
29453SOL     OW90190  14.862   6.992  11.282
29453SOL    HW190191  14.771   7.016  11.295
29453SOL    HW290192   0.035   7.074  11.293
29454SOL     OW90193  13.833   2.460   9.388
29454SOL    HW190194  13.907   2.494   9.338
29454SOL    HW290195  13.760   2.460   9.325
29455SOL     OW90196  13.682   9.392   6.419
29455SOL    HW190197  13.599   9.402   6.467
29455SOL    HW290198  13.657   9.344   6.340
29456SOL     OW90199   2.570   6.241   1.595
29456SOL    HW190200   2.549   6.328   1.562
29456SOL    HW290201   2.509   6.182   1.550
29457SOL     OW90202   0.875   4.853   8.662
29457SOL    HW190203   0.902   4.901   8.741
29457SOL    HW290204   0.781   4.870   8.654
29458SOL     OW90205   3.426  12.161   3.591
29458SOL    HW190206   3.375  12.198   3.519
29458SOL    HW290207   3.404  12.216   3.667
29459SOL     OW90208  14.259  13.689  12.707
29459SOL    HW190209  14.223  13.745  12.639
29459SOL    HW290210  14.348  13.668  12.678
29460SOL     OW90211   5.566  13.394   6.091
29460SOL    HW190212   5.535  13.401   6.181
29460SOL    HW290213   5.642  13.452   6.088
29461SOL     OW90214   1.536   9.375   6.062
29461SOL    HW190215   1.549   9.404   6.152
29461SOL    HW290216   1.620   9.336   6.037
29462SOL     OW90217   0.764  14.702   3.352
29462SOL    HW190218   0.785  14.700   3.259
29462SOL    HW290219   0.822  14.769   3.388
29463SOL     OW90220   0.318   9.877   5.033
29463SOL    HW190221   0.278   9.833   5.108
29463SOL    HW290222   0.407   9.843   5.029
29464SOL     OW90223  11.136   6.860  11.523
29464SOL    HW190224  11.143   6.943  11.571
29464SOL    HW290225  11.042   6.841  11.521
29465SOL     OW90226   1.131   5.091   3.452
29465SOL    HW190227   1.082   5.121   3.528
29465SOL    HW290228   1.067   5.085   3.382
29466SOL     OW90229   9.891   7.375   6.544
29466SOL    HW190230   9.880   7.389   6.450
29466SOL    HW290231   9.964   7.312   6.551
29467SOL     OW90232  10.147  12.062   5.844
29467SOL    HW190233  10.190  11.979   5.864
29467SOL    HW290234  10.210  12.108   5.788
29468SOL     OW90235   5.598   1.867   3.327
29468SOL    HW190236   5.561   1.923   3.258
29468SOL    HW290237   5.566   1.780   3.306
29469SOL     OW90238  11.820   3.431   0.110
29469SOL    HW190239  11.784   3.474   0.033
29469SOL    HW290240  11.772   3.348   0.117
29470SOL     OW90241   0.108  12.975   6.303
29470SOL    HW190242   0.143  13.016   6.381
29470SOL    HW290243   0.145  13.025   6.230
29471SOL     OW90244   9.306  10.565  13.604
29471SOL    HW190245   9.226  10.524  13.636
29471SOL    HW290246   9.347  10.603  13.682
29472SOL     OW90247   6.813   5.309  13.717
29472SOL    HW190248   6.863   5.341  13.791
29472SOL    HW290249   6.844   5.220  13.703
29473SOL     OW90250  13.055  12.726   1.471
29473SOL    HW190251  13.128  12.690   1.521
29473SOL    HW290252  12.977  12.697   1.518
29474SOL     OW90253  10.005   7.592   0.423
29474SOL    HW190254  10.034   7.549   0.342
29474SOL    HW290255  10.001   7.521   0.487
29475SOL     OW90256   1.844   9.847   3.598
29475SOL    HW190257   1.854   9.862   3.504
29475SOL    HW290258   1.846   9.935   3.637
29476SOL     OW90259  12.902   8.789  12.219
29476SOL    HW190260  12.809   8.804  12.232
29476SOL    HW290261  12.912   8.694  12.223
29477SOL     OW90262   9.975   3.102   9.464
29477SOL    HW190263   9.943   3.190   9.483
29477SOL    HW290264   9.973   3.057   9.548
29478SOL     OW90265   7.900   3.977  11.128
29478SOL    HW190266   7.807   3.981  11.104
29478SOL    HW290267   7.912   3.888  11.160
29479SOL     OW90268   2.572  12.147  11.162
29479SOL    HW190269   2.545  12.060  11.134
29479SOL    HW290270   2.563  12.202  11.084
29480SOL     OW90271  13.502  10.217  14.369
29480SOL    HW190272  13.432  10.226  14.305
29480SOL    HW290273  13.550  10.139  14.341
29481SOL     OW90274   0.737   4.298   6.222
29481SOL    HW190275   0.674   4.306   6.293
29481SOL    HW290276   0.783   4.216   6.240
29482SOL     OW90277   5.159  13.822   4.407
29482SOL    HW190278   5.235  13.879   4.403
29482SOL    HW290279   5.096  13.870   4.461
29483SOL     OW90280   5.727   6.207   6.272
29483SOL    HW190281   5.654   6.268   6.285
29483SOL    HW290282   5.801   6.248   6.315
29484SOL     OW90283   0.050   6.960  12.426
29484SOL    HW190284  14.860   7.021  12.393
29484SOL    HW290285   0.122   7.017  12.456
29485SOL     OW90286   0.696   9.355  11.962
29485SOL    HW190287   0.615   9.346  12.013
29485SOL    HW290288   0.739   9.270  11.969
29486SOL     OW90289   9.374  13.799   3.093
29486SOL    HW190290   9.333  13.787   3.179
29486SOL    HW290291   9.343  13.725   3.041
29487SOL     OW90292   2.785  10.094   0.298
29487SOL    HW190293   2.880  10.097   0.286
29487SOL    HW290294   2.772  10.039   0.374
29488SOL     OW90295   9.125  14.837   1.882
29488SOL    HW190296   9.218  14.859   1.875
29488SOL    HW290297   9.081   0.027   1.828
29489SOL     OW90298   2.271   5.391   4.550
29489SOL    HW190299   2.270   5.463   4.613
29489SOL    HW290300   2.343   5.411   4.490
29490SOL     OW90301   9.889  13.842   8.955
29490SOL    HW190302   9.843  13.923   8.977
29490SOL    HW290303   9.820  13.782   8.928
29491SOL     OW90304   0.985   3.151  10.774
29491SOL    HW190305   1.043   3.103  10.716
29491SOL    HW290306   0.951   3.086  10.835
29492SOL     OW90307   8.301  12.846   1.838
29492SOL    HW190308   8.300  12.791   1.917
29492SOL    HW290309   8.285  12.935   1.870
29493SOL     OW90310   3.894   4.348  10.323
29493SOL    HW190311   3.878   4.437  10.353
29493SOL    HW290312   3.833   4.335  10.251
29494SOL     OW90313   9.613   7.208   4.155
29494SOL    HW190314   9.576   7.151   4.222
29494SOL    HW290315   9.540   7.223   4.094
29495SOL     OW90316  14.022   4.620  13.353
29495SOL    HW190317  13.957   4.690  13.352
29495SOL    HW290318  13.990   4.557  13.417
29496SOL     OW90319   3.137  14.575   2.325
29496SOL    HW190320   3.091  14.535   2.399
29496SOL    HW290321   3.076  14.642   2.293
29497SOL     OW90322  10.118   4.069   2.472
29497SOL    HW190323  10.169   3.988   2.470
29497SOL    HW290324  10.027   4.039   2.461
29498SOL     OW90325  14.030   8.977   7.444
29498SOL    HW190326  13.983   9.053   7.480
29498SOL    HW290327  13.993   8.965   7.357
29499SOL     OW90328   1.033  12.339  12.957
29499SOL    HW190329   1.024  12.406  12.890
29499SOL    HW290330   1.039  12.257  12.908
29500SOL     OW90331   1.927  14.300   2.850
29500SOL    HW190332   1.892  14.385   2.876
29500SOL    HW290333   1.868  14.237   2.889
29501SOL     OW90334  14.826   7.070   9.742
29501SOL    HW190335   0.009   7.107   9.676
29501SOL    HW290336  14.809   6.981   9.713
29502SOL     OW90337   8.264  11.634   0.135
29502SOL    HW190338   8.201  11.562   0.129
29502SOL    HW290339   8.269  11.670   0.047
29503SOL     OW90340   6.222   3.781  10.789
29503SOL    HW190341   6.182   3.788  10.702
29503SOL    HW290342   6.170   3.714  10.834
29504SOL     OW90343  13.230   4.980  10.103
29504SOL    HW190344  13.270   4.962  10.189
29504SOL    HW290345  13.301   4.969  10.041
29505SOL     OW90346  10.640   7.342  12.629
29505SOL    HW190347  10.607   7.410  12.688
29505SOL    HW290348  10.717   7.306  12.674
29506SOL     OW90349   3.201   3.757   4.033
29506SOL    HW190350   3.260   3.777   4.106
29506SOL    HW290351   3.124   3.812   4.048
29507SOL     OW90352   8.330   9.604  10.346
29507SOL    HW190353   8.273   9.557  10.286
29507SOL    HW290354   8.272   9.632  10.417
29508SOL     OW90355  13.751  10.182  10.642
29508SOL    HW190356  13.685  10.184  10.711
29508SOL    HW290357  13.746  10.094  10.606
29509SOL     OW90358   2.647   4.479   4.591
29509SOL    HW190359   2.734   4.439   4.600
29509SOL    HW290360   2.630   4.520   4.676
29510SOL     OW90361  13.246   3.064   7.332
29510SOL    HW190362  13.315   3.002   7.359
29510SOL    HW290363  13.174   3.047   7.392
29511SOL     OW90364  13.784   7.785  11.453
29511SOL    HW190365  13.723   7.842  11.406
29511SOL    HW290366  13.751   7.782  11.543
29512SOL     OW90367  11.419  11.803  13.363
29512SOL    HW190368  11.366  11.858  13.305
29512SOL    HW290369  11.390  11.828  13.452
29513SOL     OW90370   7.626   5.909  10.064
29513SOL    HW190371   7.686   5.983  10.070
29513SOL    HW290372   7.577   5.924   9.983
29514SOL     OW90373   1.897   1.441  11.789
29514SOL    HW190374   1.813   1.465  11.751
29514SOL    HW290375   1.878   1.364  11.843
29515SOL     OW90376  12.732   3.286   0.169
29515SOL    HW190377  12.761   3.238   0.092
29515SOL    HW290378  12.812   3.319   0.208
29516SOL     OW90379   9.932  14.170   2.680
29516SOL    HW190380   9.987  14.213   2.615
29516SOL    HW290381   9.992  14.148   2.751
29517SOL     OW90382  13.266   4.894   3.755
29517SOL    HW190383  13.281   4.829   3.824
29517SOL    HW290384  13.343   4.950   3.758
29518SOL     OW90385   2.902   1.925   3.533
29518SOL    HW190386   2.860   1.878   3.605
29518SOL    HW290387   2.968   1.980   3.575
29519SOL     OW90388   7.765   9.038   1.741
29519SOL    HW190389   7.679   9.023   1.779
29519SOL    HW290390   7.807   8.951   1.741
29520SOL     OW90391   5.009  12.817  10.990
29520SOL    HW190392   4.963  12.775  11.063
29520SOL    HW290393   5.089  12.766  10.979
29521SOL     OW90394  11.301  14.646  12.063
29521SOL    HW190395  11.357  14.579  12.102
29521SOL    HW290396  11.357  14.689  11.999
29522SOL     OW90397  12.169   5.224   0.727
29522SOL    HW190398  12.079   5.248   0.705
29522SOL    HW290399  12.210   5.203   0.643
29523SOL     OW90400   0.244   1.886   5.588
29523SOL    HW190401   0.232   1.817   5.654
29523SOL    HW290402   0.177   1.867   5.522
29524SOL     OW90403   0.174   1.097  11.466
29524SOL    HW190404   0.232   1.125  11.395
29524SOL    HW290405   0.113   1.036  11.424
29525SOL     OW90406  11.740   7.650  11.650
29525SOL    HW190407  11.711   7.741  11.646
29525SOL    HW290408  11.773   7.631  11.562
29526SOL     OW90409   1.385   5.036   4.612
29526SOL    HW190410   1.447   5.046   4.684
29526SOL    HW290411   1.373   4.942   4.603
29527SOL     OW90412   2.619   5.057   6.293
29527SOL    HW190413   2.552   5.123   6.304
29527SOL    HW290414   2.585   4.998   6.226
29528SOL     OW90415  10.259  11.444   0.559
29528SOL    HW190416  10.167  11.439   0.533
29528SOL    HW290417  10.307  11.422   0.480
29529SOL     OW90418  14.388   3.748  11.019
29529SOL    HW190419  14.351   3.820  10.968
29529SOL    HW290420  14.312   3.702  11.053
29530SOL     OW90421   4.877   6.645   2.012
29530SOL    HW190422   4.867   6.553   2.035
29530SOL    HW290423   4.811   6.691   2.064
29531SOL     OW90424   4.338  11.962   7.055
29531SOL    HW190425   4.302  11.930   7.137
29531SOL    HW290426   4.287  12.041   7.035
29532SOL     OW90427  10.704   2.711   2.332
29532SOL    HW190428  10.640   2.744   2.269
29532SOL    HW290429  10.743   2.789   2.370
29533SOL     OW90430   2.313   1.392   3.184
29533SOL    HW190431   2.403   1.371   3.210
29533SOL    HW290432   2.263   1.391   3.265
29534SOL     OW90433  10.128  10.306   1.945
29534SOL    HW190434  10.086  10.360   2.012
29534SOL    HW290435  10.163  10.231   1.993
29535SOL     OW90436   2.422   7.616   1.051
29535SOL    HW190437   2.424   7.646   0.960
29535SOL    HW290438   2.441   7.522   1.046
29536SOL     OW90439   7.554   0.019  10.264
29536SOL    HW190440   7.503   0.021  10.183
29536SOL    HW290441   7.489   0.023  10.334
29537SOL     OW90442   9.038   3.079  13.756
29537SOL    HW190443   9.081   3.051  13.837
29537SOL    HW290444   9.082   3.029  13.687
29538SOL     OW90445   3.044  13.040   8.194
29538SOL    HW190446   3.016  12.959   8.152
29538SOL    HW290447   2.986  13.048   8.271
29539SOL     OW90448  12.046  11.897   3.045
29539SOL    HW190449  12.041  11.863   2.956
29539SOL    HW290450  12.093  11.828   3.094
29540SOL     OW90451   9.395   2.618   4.887
29540SOL    HW190452   9.369   2.561   4.960
29540SOL    HW290453   9.360   2.704   4.911
29541SOL     OW90454   2.868   6.543   7.874
29541SOL    HW190455   2.830   6.532   7.961
29541SOL    HW290456   2.957   6.508   7.882
29542SOL     OW90457   4.353   4.451   2.734
29542SOL    HW190458   4.309   4.387   2.677
29542SOL    HW290459   4.445   4.423   2.734
29543SOL     OW90460   7.413   7.898  14.795
29543SOL    HW190461   7.485   7.854  14.750
29543SOL    HW290462   7.416   7.862   0.008
29544SOL     OW90463   7.802   8.726   0.283
29544SOL    HW190464   7.774   8.754   0.370
29544SOL    HW290465   7.847   8.643   0.298
29545SOL     OW90466   1.184   8.381   0.310
29545SOL    HW190467   1.234   8.325   0.370
29545SOL    HW290468   1.100   8.393   0.353
29546SOL     OW90469   9.224  10.450  10.272
29546SOL    HW190470   9.277  10.462  10.194
29546SOL    HW290471   9.134  10.453  10.241
29547SOL     OW90472   9.511   3.445   3.394
29547SOL    HW190473   9.534   3.535   3.414
29547SOL    HW290474   9.420   3.449   3.363
29548SOL     OW90475   9.498  14.260   9.933
29548SOL    HW190476   9.575  14.300   9.892
29548SOL    HW290477   9.430  14.264   9.866
29549SOL     OW90478  11.954  10.091   1.463
29549SOL    HW190479  11.972   9.998   1.472
29549SOL    HW290480  12.037  10.134   1.481
29550SOL     OW90481   7.358  12.477  11.271
29550SOL    HW190482   7.441  12.454  11.229
29550SOL    HW290483   7.359  12.572  11.276
29551SOL     OW90484   8.918   0.543   1.324
29551SOL    HW190485   8.829   0.514   1.306
29551SOL    HW290486   8.963   0.465   1.358
29552SOL     OW90487   9.717   3.897  11.045
29552SOL    HW190488   9.759   3.859  10.967
29552SOL    HW290489   9.667   3.826  11.083
29553SOL     OW90490   0.709  13.302  11.111
29553SOL    HW190491   0.651  13.276  11.039
29553SOL    HW290492   0.773  13.231  11.117
29554SOL     OW90493   2.082  13.261  12.155
29554SOL    HW190494   2.037  13.340  12.125
29554SOL    HW290495   2.165  13.260  12.106
29555SOL     OW90496  10.394   8.228   0.516
29555SOL    HW190497  10.394   8.246   0.422
29555SOL    HW290498  10.303   8.204   0.536
29556SOL     OW90499  13.460  12.330   2.468
29556SOL    HW190500  13.504  12.257   2.423
29556SOL    HW290501  13.487  12.408   2.420
29557SOL     OW90502   8.857   8.320   4.188
29557SOL    HW190503   8.833   8.361   4.105
29557SOL    HW290504   8.949   8.344   4.201
29558SOL     OW90505  12.469   8.586   7.156
29558SOL    HW190506  12.437   8.531   7.085
29558SOL    HW290507  12.414   8.665   7.153
29559SOL     OW90508   9.318  12.274   7.829
29559SOL    HW190509   9.345  12.298   7.740
29559SOL    HW290510   9.227  12.247   7.820
29560SOL     OW90511  14.406   8.249   7.101
29560SOL    HW190512  14.428   8.266   7.009
29560SOL    HW290513  14.442   8.163   7.119
29561SOL     OW90514  10.889   2.988  11.059
29561SOL    HW190515  10.952   3.029  11.119
29561SOL    HW290516  10.806   2.989  11.107
29562SOL     OW90517   0.022   7.042   8.625
29562SOL    HW190518  14.806   7.063   8.645
29562SOL    HW290519   0.041   6.965   8.678
29563SOL     OW90520  10.581   2.302  10.304
29563SOL    HW190521  10.568   2.274  10.214
29563SOL    HW290522  10.612   2.223  10.349
29564SOL     OW90523   1.048   3.946   1.266
29564SOL    HW190524   1.129   3.974   1.309
29564SOL    HW290525   0.978   3.984   1.319
29565SOL     OW90526   2.532   2.404   3.777
29565SOL    HW190527   2.580   2.486   3.788
29565SOL    HW290528   2.490   2.412   3.692
29566SOL     OW90529   1.551  11.200   1.318
29566SOL    HW190530   1.606  11.220   1.243
29566SOL    HW290531   1.485  11.139   1.285
29567SOL     OW90532   3.254   2.410   4.592
29567SOL    HW190533   3.342   2.445   4.580
29567SOL    HW290534   3.202   2.484   4.623
29568SOL     OW90535  12.667   7.838  13.072
29568SOL    HW190536  12.605   7.897  13.114
29568SOL    HW290537  12.751   7.856  13.115
29569SOL     OW90538  10.757   9.426   1.835
29569SOL    HW190539  10.723   9.342   1.862
29569SOL    HW290540  10.771   9.418   1.740
29570SOL     OW90541  13.710   6.472   4.493
29570SOL    HW190542  13.775   6.534   4.461
29570SOL    HW290543  13.701   6.408   4.423
29571SOL     OW90544  11.484  13.136   1.438
29571SOL    HW190545  11.458  13.099   1.354
29571SOL    HW290546  11.549  13.204   1.415
29572SOL     OW90547   4.531   8.112   2.265
29572SOL    HW190548   4.510   8.155   2.348
29572SOL    HW290549   4.554   8.183   2.206
29573SOL     OW90550   9.652  12.725  12.392
29573SOL    HW190551   9.635  12.766  12.476
29573SOL    HW290552   9.748  12.717  12.387
29574SOL     OW90553   2.869  11.250   0.497
29574SOL    HW190554   2.902  11.161   0.489
29574SOL    HW290555   2.776  11.240   0.518
29575SOL     OW90556  14.564   7.888   2.537
29575SOL    HW190557  14.524   7.901   2.623
29575SOL    HW290558  14.643   7.837   2.555
29576SOL     OW90559   7.466   1.958   8.640
29576SOL    HW190560   7.380   1.946   8.600
29576SOL    HW290561   7.518   2.003   8.573
29577SOL     OW90562   8.902   0.750   2.145
29577SOL    HW190563   8.889   0.777   2.235
29577SOL    HW290564   8.975   0.688   2.148
29578SOL     OW90565   3.371   3.778   6.550
29578SOL    HW190566   3.295   3.766   6.494
29578SOL    HW290567   3.344   3.742   6.635
29579SOL     OW90568   8.681   2.762  12.719
29579SOL    HW190569   8.768   2.731  12.695
29579SOL    HW290570   8.681   2.761  12.814
29580SOL     OW90571   9.465   8.377   1.901
29580SOL    HW190572   9.477   8.357   1.994
29580SOL    HW290573   9.480   8.471   1.894
29581SOL     OW90574   9.141   3.835   7.551
29581SOL    HW190575   9.059   3.847   7.599
29581SOL    HW290576   9.202   3.800   7.616
29582SOL     OW90577   1.926  10.850   3.105
29582SOL    HW190578   1.835  10.837   3.132
29582SOL    HW290579   1.974  10.780   3.148
29583SOL     OW90580  10.083  14.125   1.773
29583SOL    HW190581  10.021  14.182   1.728
29583SOL    HW290582  10.140  14.092   1.703
29584SOL     OW90583  12.740  12.453   2.004
29584SOL    HW190584  12.680  12.396   1.956
29584SOL    HW290585  12.738  12.536   1.956
29585SOL     OW90586   2.513   3.995   3.307
29585SOL    HW190587   2.486   3.994   3.399
29585SOL    HW290588   2.434   3.972   3.259
29586SOL     OW90589   3.211   3.040   9.146
29586SOL    HW190590   3.143   3.101   9.118
29586SOL    HW290591   3.264   3.026   9.068
29587SOL     OW90592   0.022   1.670   0.786
29587SOL    HW190593   0.038   1.685   0.693
29587SOL    HW290594   0.050   1.751   0.828
29588SOL     OW90595  14.305  14.743   4.261
29588SOL    HW190596  14.400  14.746   4.276
29588SOL    HW290597  14.272  14.682   4.326
29589SOL     OW90598   6.022  10.024   4.001
29589SOL    HW190599   5.980  10.109   4.013
29589SOL    HW290600   5.963   9.961   4.042
29590SOL     OW90601   6.550  13.171   0.976
29590SOL    HW190602   6.585  13.240   0.919
29590SOL    HW290603   6.553  13.092   0.922
29591SOL     OW90604  11.338  11.838   9.042
29591SOL    HW190605  11.387  11.825   8.961
29591SOL    HW290606  11.299  11.925   9.033
29592SOL     OW90607  10.508   4.350   2.093
29592SOL    HW190608  10.550   4.273   2.055
29592SOL    HW290609  10.422   4.319   2.122
29593SOL     OW90610   1.161  11.288   6.486
29593SOL    HW190611   1.086  11.322   6.438
29593SOL    HW290612   1.139  11.300   6.578
29594SOL     OW90613   0.817   8.770   9.620
29594SOL    HW190614   0.798   8.785   9.712
29594SOL    HW290615   0.756   8.701   9.594
29595SOL     OW90616  12.348   7.679  11.151
29595SOL    HW190617  12.413   7.682  11.221
29595SOL    HW290618  12.279   7.621  11.185
29596SOL     OW90619  10.364  13.282   4.062
29596SOL    HW190620  10.335  13.358   4.011
29596SOL    HW290621  10.328  13.207   4.015
29597SOL     OW90622   1.859   7.557   3.519
29597SOL    HW190623   1.914   7.633   3.499
29597SOL    HW290624   1.836   7.521   3.434
29598SOL     OW90625   3.826   9.753   1.352
29598SOL    HW190626   3.890   9.781   1.417
29598SOL    HW290627   3.793   9.669   1.385
29599SOL     OW90628  14.775   7.523  12.861
29599SOL    HW190629  14.824   7.588  12.912
29599SOL    HW290630  14.702   7.499  12.918
29600SOL     OW90631   9.784   6.601  13.020
29600SOL    HW190632   9.765   6.539  13.091
29600SOL    HW290633   9.748   6.684  13.051
29601SOL     OW90634   4.534   5.895   0.158
29601SOL    HW190635   4.621   5.892   0.197
29601SOL    HW290636   4.481   5.944   0.222
29602SOL     OW90637   6.581   7.841   3.946
29602SOL    HW190638   6.672   7.841   3.976
29602SOL    HW290639   6.532   7.804   4.020
29603SOL     OW90640  10.306   7.567  12.744
29603SOL    HW190641  10.277   7.656  12.724
29603SOL    HW290642  10.388   7.579  12.792
29604SOL     OW90643  10.646  10.668   8.677
29604SOL    HW190644  10.660  10.725   8.601
29604SOL    HW290645  10.562  10.698   8.713
29605SOL     OW90646  13.265  12.698   8.716
29605SOL    HW190647  13.254  12.630   8.783
29605SOL    HW290648  13.345  12.743   8.742
29606SOL     OW90649   2.893   5.848   7.128
29606SOL    HW190650   2.859   5.891   7.206
29606SOL    HW290651   2.945   5.916   7.085
29607SOL     OW90652   1.704   0.224   1.807
29607SOL    HW190653   1.638   0.211   1.740
29607SOL    HW290654   1.655   0.230   1.889
29608SOL     OW90655   8.106   0.142   6.515
29608SOL    HW190656   8.048   0.067   6.527
29608SOL    HW290657   8.056   0.217   6.547
29609SOL     OW90658   0.582   2.237  12.545
29609SOL    HW190659   0.650   2.284  12.594
29609SOL    HW290660   0.509   2.230  12.606
29610SOL     OW90661   7.526   4.241  12.211
29610SOL    HW190662   7.548   4.332  12.189
29610SOL    HW290663   7.487   4.206  12.131
29611SOL     OW90664  13.903   5.329   5.067
29611SOL    HW190665  13.988   5.335   5.109
29611SOL    HW290666  13.840   5.352   5.136
29612SOL     OW90667   5.745   6.900   8.793
29612SOL    HW190668   5.808   6.937   8.855
29612SOL    HW290669   5.667   6.884   8.845
29613SOL     OW90670   9.945   8.751   2.284
29613SOL    HW190671  10.033   8.744   2.246
29613SOL    HW290672   9.911   8.662   2.283
29614SOL     OW90673   2.524   0.945  12.289
29614SOL    HW190674   2.619   0.949  12.281
29614SOL    HW290675   2.504   1.000  12.366
29615SOL     OW90676   1.268  11.505   1.076
29615SOL    HW190677   1.212  11.445   1.124
29615SOL    HW290678   1.211  11.542   1.008
29616SOL     OW90679  14.006  14.636   8.117
29616SOL    HW190680  13.917  14.623   8.149
29616SOL    HW290681  14.021  14.730   8.121
29617SOL     OW90682  12.330   2.544   2.331
29617SOL    HW190683  12.250   2.502   2.362
29617SOL    HW290684  12.338   2.514   2.240
29618SOL     OW90685   9.131  11.286   7.939
29618SOL    HW190686   9.150  11.349   7.870
29618SOL    HW290687   9.208  11.288   7.996
29619SOL     OW90688   5.780   8.129  14.873
29619SOL    HW190689   5.712   8.095  14.814
29619SOL    HW290690   5.860   8.122  14.822
29620SOL     OW90691   4.419  12.966  12.284
29620SOL    HW190692   4.421  12.923  12.369
29620SOL    HW290693   4.328  12.997  12.275
29621SOL     OW90694  12.225   2.543   3.184
29621SOL    HW190695  12.270   2.593   3.116
29621SOL    HW290696  12.133   2.567   3.174
29622SOL     OW90697   9.683   5.583   4.698
29622SOL    HW190698   9.613   5.548   4.753
29622SOL    HW290699   9.638   5.613   4.619
29623SOL     OW90700  13.547   2.774   2.412
29623SOL    HW190701  13.570   2.709   2.479
29623SOL    HW290702  13.487   2.834   2.456
29624SOL     OW90703   8.881  11.695  11.023
29624SOL    HW190704   8.866  11.618  10.969
29624SOL    HW290705   8.936  11.752  10.969
29625SOL     OW90706   9.122   9.796  11.048
29625SOL    HW190707   9.139   9.730  10.981
29625SOL    HW290708   9.072   9.750  11.115
29626SOL     OW90709   2.439   1.446   0.506
29626SOL    HW190710   2.385   1.525   0.505
29626SOL    HW290711   2.481   1.446   0.592
29627SOL     OW90712   7.092  10.732   2.375
29627SOL    HW190713   7.165  10.671   2.366
29627SOL    HW290714   7.019  10.688   2.332
29628SOL     OW90715  10.269  11.776   2.725
29628SOL    HW190716  10.242  11.796   2.815
29628SOL    HW290717  10.362  11.798   2.723
29629SOL     OW90718   8.743   4.055   2.454
29629SOL    HW190719   8.793   3.974   2.458
29629SOL    HW290720   8.808   4.123   2.436
29630SOL     OW90721   4.963   9.694  10.161
29630SOL    HW190722   4.968   9.737  10.075
29630SOL    HW290723   4.952   9.766  10.223
29631SOL     OW90724   3.502   4.723   2.079
29631SOL    HW190725   3.486   4.813   2.051
29631SOL    HW290726   3.520   4.729   2.172
29632SOL     OW90727   4.812  10.160   2.057
29632SOL    HW190728   4.887  10.205   2.019
29632SOL    HW290729   4.796  10.086   1.998
29633SOL     OW90730  12.768   5.661   7.840
29633SOL    HW190731  12.786   5.567   7.847
29633SOL    HW290732  12.741   5.686   7.929
29634SOL     OW90733   4.299   9.761   0.529
29634SOL    HW190734   4.372   9.768   0.590
29634SOL    HW290735   4.222   9.782   0.581
29635SOL     OW90736  13.466  12.358   5.670
29635SOL    HW190737  13.390  12.321   5.716
29635SOL    HW290738  13.466  12.450   5.695
29636SOL     OW90739  10.164  14.859  13.672
29636SOL    HW190740  10.139  14.775  13.711
29636SOL    HW290741  10.193   0.037  13.746
29637SOL     OW90742  12.369  14.237   1.123
29637SOL    HW190743  12.459  14.203   1.118
29637SOL    HW290744  12.362  14.273   1.212
29638SOL     OW90745   2.155   8.621   8.655
29638SOL    HW190746   2.220   8.597   8.589
29638SOL    HW290747   2.076   8.573   8.630
29639SOL     OW90748  12.246  10.353   8.377
29639SOL    HW190749  12.233  10.400   8.295
29639SOL    HW290750  12.330  10.308   8.366
29640SOL     OW90751  12.730  12.750   6.174
29640SOL    HW190752  12.749  12.721   6.263
29640SOL    HW290753  12.808  12.798   6.147
29641SOL     OW90754   8.506   7.807  12.187
29641SOL    HW190755   8.469   7.804  12.099
29641SOL    HW290756   8.600   7.797  12.174
29642SOL     OW90757  13.282   6.139   3.170
29642SOL    HW190758  13.345   6.136   3.098
29642SOL    HW290759  13.302   6.063   3.223
29643SOL     OW90760   9.045   2.534  12.427
29643SOL    HW190761   9.084   2.619  12.408
29643SOL    HW290762   9.090   2.504  12.506
29644SOL     OW90763  14.724  14.684   6.060
29644SOL    HW190764  14.725  14.758   5.999
29644SOL    HW290765  14.649  14.701   6.116
29645SOL     OW90766   3.318   1.340  11.269
29645SOL    HW190767   3.320   1.248  11.295
29645SOL    HW290768   3.233   1.351  11.226
29646SOL     OW90769   0.933   2.335   1.249
29646SOL    HW190770   0.981   2.252   1.255
29646SOL    HW290771   0.852   2.313   1.204
29647SOL     OW90772   3.511  11.031   0.368
29647SOL    HW190773   3.582  10.968   0.382
29647SOL    HW290774   3.436  10.977   0.346
29648SOL     OW90775  14.713   7.816   2.976
29648SOL    HW190776  14.797   7.785   2.942
29648SOL    HW290777  14.647   7.766   2.928
29649SOL     OW90778   1.787   5.515   4.332
29649SOL    HW190779   1.804   5.609   4.333
29649SOL    HW290780   1.872   5.475   4.352
29650SOL     OW90781  12.379   0.460  10.047
29650SOL    HW190782  12.383   0.400   9.972
29650SOL    HW290783  12.471   0.473  10.071
29651SOL     OW90784   9.370  10.198   0.662
29651SOL    HW190785   9.404  10.229   0.746
29651SOL    HW290786   9.390  10.104   0.661
29652SOL     OW90787   3.744  12.611  11.792
29652SOL    HW190788   3.684  12.544  11.758
29652SOL    HW290789   3.751  12.674  11.721
29653SOL     OW90790   0.353  13.906   7.005
29653SOL    HW190791   0.291  13.836   6.982
29653SOL    HW290792   0.355  13.906   7.101
29654SOL     OW90793   0.196   1.914  13.063
29654SOL    HW190794   0.105   1.885  13.067
29654SOL    HW290795   0.243   1.848  13.114
29655SOL     OW90796   1.351  10.882   7.288
29655SOL    HW190797   1.262  10.860   7.262
29655SOL    HW290798   1.341  10.953   7.352
29656SOL     OW90799   5.735   4.918  13.819
29656SOL    HW190800   5.741   4.853  13.749
29656SOL    HW290801   5.788   4.882  13.890
29657SOL     OW90802   5.314   5.389   6.075
29657SOL    HW190803   5.274   5.302   6.073
29657SOL    HW290804   5.405   5.373   6.100
29658SOL     OW90805   5.847   3.236   9.158
29658SOL    HW190806   5.778   3.226   9.225
29658SOL    HW290807   5.823   3.174   9.090
29659SOL     OW90808  10.784   5.414   9.494
29659SOL    HW190809  10.743   5.331   9.469
29659SOL    HW290810  10.878   5.396   9.488
29660SOL     OW90811  13.890   6.705   8.863
29660SOL    HW190812  13.815   6.663   8.820
29660SOL    HW290813  13.939   6.745   8.790
29661SOL     OW90814  10.706   0.773   2.179
29661SOL    HW190815  10.771   0.738   2.240
29661SOL    HW290816  10.655   0.835   2.231
29662SOL     OW90817   6.725   4.354  10.108
29662SOL    HW190818   6.691   4.428  10.058
29662SOL    HW290819   6.820   4.367  10.107
29663SOL     OW90820  10.699   6.481   1.298
29663SOL    HW190821  10.720   6.521   1.213
29663SOL    HW290822  10.632   6.540   1.335
29664SOL     OW90823   7.159  11.648   1.029
29664SOL    HW190824   7.124  11.726   0.985
29664SOL    HW290825   7.254  11.659   1.025
29665SOL     OW90826   0.737   8.699  12.257
29665SOL    HW190827   0.708   8.732  12.172
29665SOL    HW290828   0.831   8.720  12.260
29666SOL     OW90829   9.992  13.939  10.979
29666SOL    HW190830   9.955  13.869  11.033
29666SOL    HW290831   9.915  13.980  10.938
29667SOL     OW90832   9.122   0.581  11.107
29667SOL    HW190833   9.107   0.626  11.024
29667SOL    HW290834   9.125   0.650  11.172
29668SOL     OW90835  11.317  11.155  10.679
29668SOL    HW190836  11.312  11.089  10.610
29668SOL    HW290837  11.404  11.143  10.717
29669SOL     OW90838   9.653   3.051   6.974
29669SOL    HW190839   9.594   2.981   7.000
29669SOL    HW290840   9.598   3.130   6.970
29670SOL     OW90841  14.660   0.055   8.129
29670SOL    HW190842  14.672   0.052   8.224
29670SOL    HW290843  14.680   0.145   8.105
29671SOL     OW90844   7.577   9.317   4.997
29671SOL    HW190845   7.513   9.286   4.934
29671SOL    HW290846   7.568   9.413   4.994
29672SOL     OW90847   3.626   9.072   4.927
29672SOL    HW190848   3.559   9.088   4.993
29672SOL    HW290849   3.582   9.088   4.843
29673SOL     OW90850   2.958   9.557  12.972
29673SOL    HW190851   2.986   9.643  13.004
29673SOL    HW290852   2.965   9.563  12.877
29674SOL     OW90853  11.437   3.724   5.810
29674SOL    HW190854  11.381   3.734   5.733
29674SOL    HW290855  11.425   3.805   5.859
29675SOL     OW90856   2.651   0.062  14.182
29675SOL    HW190857   2.669   0.029  14.271
29675SOL    HW290858   2.658  14.860  14.126
29676SOL     OW90859   1.275  13.676   3.267
29676SOL    HW190860   1.193  13.650   3.309
29676SOL    HW290861   1.311  13.595   3.231
29677SOL     OW90862   4.142   6.512   0.875
29677SOL    HW190863   4.087   6.495   0.952
29677SOL    HW290864   4.101   6.461   0.805
29678SOL     OW90865   2.197   6.209   8.465
29678SOL    HW190866   2.286   6.182   8.486
29678SOL    HW290867   2.190   6.299   8.498
29679SOL     OW90868   2.300   3.015  10.581
29679SOL    HW190869   2.396   3.008  10.580
29679SOL    HW290870   2.270   2.935  10.537
29680SOL     OW90871   9.927   1.930   1.074
29680SOL    HW190872   9.963   1.874   1.144
29680SOL    HW290873   9.838   1.948   1.102
29681SOL     OW90874   7.211  13.518  11.585
29681SOL    HW190875   7.285  13.474  11.545
29681SOL    HW290876   7.134  13.481  11.542
29682SOL     OW90877   6.992  10.825   9.396
29682SOL    HW190878   7.057  10.878   9.441
29682SOL    HW290879   7.041  10.784   9.324
29683SOL     OW90880  11.411  11.599   3.902
29683SOL    HW190881  11.464  11.532   3.945
29683SOL    HW290882  11.458  11.681   3.917
29684SOL     OW90883  14.797  13.250   9.529
29684SOL    HW190884  14.743  13.289   9.460
29684SOL    HW290885   0.005  13.231   9.486
29685SOL     OW90886   4.568  11.329  14.464
29685SOL    HW190887   4.649  11.292  14.429
29685SOL    HW290888   4.498  11.282  14.418
29686SOL     OW90889   1.664  12.536   6.446
29686SOL    HW190890   1.728  12.607   6.452
29686SOL    HW290891   1.692  12.485   6.370
29687SOL     OW90892  10.801   1.809  12.188
29687SOL    HW190893  10.790   1.766  12.103
29687SOL    HW290894  10.859   1.883  12.171
29688SOL     OW90895   1.283   7.327   1.628
29688SOL    HW190896   1.343   7.400   1.609
29688SOL    HW290897   1.337   7.249   1.616
29689SOL     OW90898  13.141   0.114  14.603
29689SOL    HW190899  13.046   0.114  14.593
29689SOL    HW290900  13.174   0.163  14.528
29690SOL     OW90901  11.023   6.915   3.796
29690SOL    HW190902  11.057   6.956   3.716
29690SOL    HW290903  10.995   6.828   3.767
29691SOL     OW90904   3.005   2.659   2.829
29691SOL    HW190905   2.986   2.573   2.791
29691SOL    HW290906   2.919   2.693   2.855
29692SOL     OW90907  12.404  10.023  11.580
29692SOL    HW190908  12.346  10.091  11.546
29692SOL    HW290909  12.454   9.994  11.504
29693SOL     OW90910  10.087  14.651  11.560
29693SOL    HW190911  10.031  14.664  11.636
29693SOL    HW290912  10.048  14.577  11.514
29694SOL     OW90913   6.606   3.643  12.778
29694SOL    HW190914   6.700   3.647  12.761
29694SOL    HW290915   6.565   3.658  12.692
29695SOL     OW90916  14.658  10.209   8.299
29695SOL    HW190917  14.594  10.260   8.348
29695SOL    HW290918  14.680  10.136   8.357
29696SOL     OW90919  14.353  10.075   8.415
29696SOL    HW190920  14.261  10.096   8.398
29696SOL    HW290921  14.356  10.054   8.509
29697SOL     OW90922   7.095   7.045  11.830
29697SOL    HW190923   7.182   7.013  11.807
29697SOL    HW290924   7.102   7.141  11.824
29698SOL     OW90925  13.424   3.472   0.282
29698SOL    HW190926  13.463   3.538   0.339
29698SOL    HW290927  13.439   3.504   0.193
29699SOL     OW90928   0.621   6.032   7.382
29699SOL    HW190929   0.692   6.081   7.424
29699SOL    HW290930   0.565   6.099   7.344
29700SOL     OW90931   1.755   7.045   7.699
29700SOL    HW190932   1.844   7.010   7.692
29700SOL    HW290933   1.767   7.130   7.742
29701SOL     OW90934   4.462   2.559  14.230
29701SOL    HW190935   4.464   2.526  14.140
29701SOL    HW290936   4.371   2.582  14.245
29702SOL     OW90937   9.264  12.449  11.924
29702SOL    HW190938   9.301  12.414  11.843
29702SOL    HW290939   9.173  12.469  11.902
29703SOL     OW90940  13.028   3.867   2.795
29703SOL    HW190941  12.983   3.867   2.710
29703SOL    HW290942  13.013   3.779   2.830
29704SOL     OW90943   2.702  14.145   7.993
29704SOL    HW190944   2.663  14.184   8.072
29704SOL    HW290945   2.795  14.167   7.999
29705SOL     OW90946   4.630   5.212   6.477
29705SOL    HW190947   4.585   5.178   6.399
29705SOL    HW290948   4.665   5.297   6.450
29706SOL     OW90949   2.491   6.471  11.101
29706SOL    HW190950   2.582   6.452  11.080
29706SOL    HW290951   2.447   6.476  11.016
29707SOL     OW90952   8.041   5.604   7.341
29707SOL    HW190953   8.116   5.653   7.309
29707SOL    HW290954   7.993   5.666   7.396
29708SOL     OW90955   5.160   4.751  12.163
29708SOL    HW190956   5.208   4.668  12.164
29708SOL    HW290957   5.168   4.782  12.072
29709SOL     OW90958   4.538   7.792  13.215
29709SOL    HW190959   4.507   7.788  13.124
29709SOL    HW290960   4.578   7.707  13.230
29710SOL     OW90961   9.295  13.535   2.926
29710SOL    HW190962   9.290  13.447   2.964
29710SOL    HW290963   9.205  13.568   2.931
29711SOL     OW90964  11.635  13.945  14.808
29711SOL    HW190965  11.624  13.936  14.714
29711SOL    HW290966  11.551  13.981  14.838
29712SOL     OW90967  14.120   2.024   6.515
29712SOL    HW190968  14.081   2.058   6.595
29712SOL    HW290969  14.203   1.985   6.543
29713SOL     OW90970   2.360   0.015  12.092
29713SOL    HW190971   2.331   0.025  12.002
29713SOL    HW290972   2.389   0.102  12.119
29714SOL     OW90973  11.103   0.450   2.280
29714SOL    HW190974  11.190   0.433   2.245
29714SOL    HW290975  11.098   0.399   2.361
29715SOL     OW90976  10.469   6.186   0.607
29715SOL    HW190977  10.552   6.143   0.585
29715SOL    HW290978  10.491   6.279   0.609
29716SOL     OW90979  11.264  14.191  13.730
29716SOL    HW190980  11.216  14.232  13.657
29716SOL    HW290981  11.334  14.254  13.750
29717SOL     OW90982   6.310   0.953   3.165
29717SOL    HW190983   6.306   1.046   3.140
29717SOL    HW290984   6.223   0.919   3.145
29718SOL     OW90985  12.388   2.845   3.627
29718SOL    HW190986  12.399   2.750   3.623
29718SOL    HW290987  12.426   2.877   3.544
29719SOL     OW90988  11.602   8.794   2.054
29719SOL    HW190989  11.559   8.802   2.139
29719SOL    HW290990  11.643   8.707   2.056
29720SOL     OW90991   9.617   2.899  14.520
29720SOL    HW190992   9.539   2.929  14.474
29720SOL    HW290993   9.682   2.883  14.451
29721SOL     OW90994   9.202   3.139   5.463
29721SOL    HW190995   9.296   3.125   5.457
29721SOL    HW290996   9.180   3.192   5.387
29722SOL     OW90997   3.370   7.150   8.122
29722SOL    HW190998   3.396   7.214   8.056
29722SOL    HW290999   3.409   7.068   8.094
29723SOL     OW91000  13.297   3.837   9.986
29723SOL    HW191001  13.347   3.765  10.026
29723SOL    HW291002  13.300   3.907  10.051
29724SOL     OW91003  11.513  10.642   2.644
29724SOL    HW191004  11.556  10.614   2.724
29724SOL    HW291005  11.584  10.678   2.590
29725SOL     OW91006   5.032  10.913   5.496
29725SOL    HW191007   4.984  10.934   5.576
29725SOL    HW291008   5.019  10.989   5.439
29726SOL     OW91009   1.931   6.549  13.831
29726SOL    HW191010   1.847   6.506  13.849
29726SOL    HW291011   1.963   6.576  13.917
29727SOL     OW91012  14.266   2.224   7.036
29727SOL    HW191013  14.356   2.195   7.030
29727SOL    HW291014  14.272   2.314   7.069
29728SOL     OW91015  12.042  11.821   3.378
29728SOL    HW191016  11.976  11.851   3.440
29728SOL    HW291017  12.083  11.901   3.346
29729SOL     OW91018  11.165   5.157  12.735
29729SOL    HW191019  11.160   5.253  12.732
29729SOL    HW291020  11.114   5.133  12.812
29730SOL     OW91021  11.641  13.633   1.925
29730SOL    HW191022  11.645  13.630   1.830
29730SOL    HW291023  11.707  13.698   1.950
29731SOL     OW91024   9.654  14.016  10.014
29731SOL    HW191025   9.601  14.072   9.958
29731SOL    HW291026   9.726  13.988   9.958
29732SOL     OW91027   9.985  12.846  13.878
29732SOL    HW191028   9.984  12.752  13.894
29732SOL    HW291029  10.077  12.871  13.889
29733SOL     OW91030   8.465   9.129   8.289
29733SOL    HW191031   8.556   9.146   8.316
29733SOL    HW291032   8.421   9.101   8.369
29734SOL     OW91033   7.951   1.429   4.007
29734SOL    HW191034   7.996   1.465   4.084
29734SOL    HW291035   8.017   1.429   3.938
29735SOL     OW91036   8.532   3.077   3.801
29735SOL    HW191037   8.534   2.988   3.765
29735SOL    HW291038   8.570   3.132   3.733
29736SOL     OW91039   9.858  13.144  11.034
29736SOL    HW191040   9.820  13.232  11.030
29736SOL    HW291041   9.785  13.088  11.061
29737SOL     OW91042   6.480  11.433   5.963
29737SOL    HW191043   6.455  11.353   5.917
29737SOL    HW291044   6.565  11.412   6.002
29738SOL     OW91045  14.278   9.481   2.515
29738SOL    HW191046  14.217   9.554   2.522
29738SOL    HW291047  14.315   9.471   2.603
29739SOL     OW91048   5.311   3.146   6.022
29739SOL    HW191049   5.299   3.059   5.984
29739SOL    HW291050   5.294   3.207   5.950
29740SOL     OW91051   4.502  12.788   0.577
29740SOL    HW191052   4.531  12.839   0.653
29740SOL    HW291053   4.460  12.852   0.520
29741SOL     OW91054   1.553   0.021   9.169
29741SOL    HW191055   1.550  14.849   9.085
29741SOL    HW291056   1.471  14.875   9.212
29742SOL     OW91057   9.142   4.821  12.608
29742SOL    HW191058   9.234   4.810  12.583
29742SOL    HW291059   9.137   4.789  12.698
29743SOL     OW91060  12.984   5.630  14.132
29743SOL    HW191061  13.019   5.675  14.209
29743SOL    HW291062  13.000   5.537  14.149
29744SOL     OW91063   1.806   4.273  13.752
29744SOL    HW191064   1.858   4.353  13.750
29744SOL    HW291065   1.717   4.303  13.770
29745SOL     OW91066  10.459   5.403  13.987
29745SOL    HW191067  10.408   5.478  14.017
29745SOL    HW291068  10.417   5.377  13.905
29746SOL     OW91069   8.295   6.898   7.247
29746SOL    HW191070   8.205   6.901   7.213
29746SOL    HW291071   8.338   6.831   7.194
29747SOL     OW91072   1.559  13.685   9.998
29747SOL    HW191073   1.524  13.770   9.971
29747SOL    HW291074   1.554  13.687  10.094
29748SOL     OW91075   5.040  11.196   2.137
29748SOL    HW191076   5.063  11.163   2.224
29748SOL    HW291077   4.963  11.144   2.112
29749SOL     OW91078   0.962  10.015  10.230
29749SOL    HW191079   0.926   9.998  10.317
29749SOL    HW291080   1.029  10.082  10.245
29750SOL     OW91081   9.866  11.160   9.851
29750SOL    HW191082   9.938  11.208   9.892
29750SOL    HW291083   9.788  11.184   9.901
29751SOL     OW91084  13.972   1.718   3.109
29751SOL    HW191085  14.050   1.694   3.160
29751SOL    HW291086  13.899   1.692   3.164
29752SOL     OW91087   2.180  12.034   3.859
29752SOL    HW191088   2.126  11.956   3.841
29752SOL    HW291089   2.261  11.999   3.896
29753SOL     OW91090  11.656   1.537   9.969
29753SOL    HW191091  11.577   1.549   9.915
29753SOL    HW291092  11.716   1.488   9.913
29754SOL     OW91093   1.976   3.377  11.087
29754SOL    HW191094   1.952   3.287  11.064
29754SOL    HW291095   1.900   3.429  11.061
29755SOL     OW91096   5.833  12.708  11.154
29755SOL    HW191097   5.751  12.727  11.109
29755SOL    HW291098   5.901  12.732  11.091
29756SOL     OW91099  14.802   6.252   9.319
29756SOL    HW191100  14.871   6.262   9.385
29756SOL    HW291101  14.723   6.232   9.370
29757SOL     OW91102   0.276  11.364   7.537
29757SOL    HW191103   0.238  11.428   7.596
29757SOL    HW291104   0.333  11.415   7.479
29758SOL     OW91105  10.265   0.434   6.354
29758SOL    HW191106  10.338   0.380   6.383
29758SOL    HW291107  10.297   0.524   6.359
29759SOL     OW91108   3.975  13.743   9.347
29759SOL    HW191109   3.903  13.682   9.363
29759SOL    HW291110   4.019  13.750   9.432
29760SOL     OW91111  10.925   7.181  11.419
29760SOL    HW191112  10.856   7.239  11.387
29760SOL    HW291113  10.884   7.095  11.424
29761SOL     OW91114   9.488   8.337   5.679
29761SOL    HW191115   9.395   8.338   5.656
29761SOL    HW291116   9.534   8.337   5.595
29762SOL     OW91117   4.980   9.030  13.068
29762SOL    HW191118   5.063   9.041  13.115
29762SOL    HW291119   4.937   9.115  13.075
29763SOL     OW91120  14.444   3.492   3.275
29763SOL    HW191121  14.521   3.465   3.225
29763SOL    HW291122  14.471   3.571   3.321
29764SOL     OW91123  13.381   2.632   9.700
29764SOL    HW191124  13.398   2.541   9.676
29764SOL    HW291125  13.416   2.683   9.627
29765SOL     OW91126   2.309  13.184   7.476
29765SOL    HW191127   2.262  13.252   7.428
29765SOL    HW291128   2.401  13.210   7.473
29766SOL     OW91129  10.168  11.834   2.948
29766SOL    HW191130  10.145  11.926   2.936
29766SOL    HW291131  10.219  11.832   3.029
29767SOL     OW91132   0.643  14.308   5.552
29767SOL    HW191133   0.639  14.214   5.566
29767SOL    HW291134   0.586  14.324   5.477
29768SOL     OW91135   6.930  12.312  10.117
29768SOL    HW191136   6.839  12.324  10.142
29768SOL    HW291137   6.926  12.272  10.030
29769SOL     OW91138  10.424  14.485  11.989
29769SOL    HW191139  10.435  14.403  12.037
29769SOL    HW291140  10.401  14.458  11.900
29770SOL     OW91141   1.740   9.094   6.162
29770SOL    HW191142   1.818   9.049   6.130
29770SOL    HW291143   1.689   9.027   6.206
29771SOL     OW91144   3.497   3.928   6.819
29771SOL    HW191145   3.514   4.007   6.768
29771SOL    HW291146   3.413   3.945   6.863
29772SOL     OW91147   4.479  10.844   0.750
29772SOL    HW191148   4.539  10.840   0.676
29772SOL    HW291149   4.404  10.792   0.722
29773SOL     OW91150   7.702  10.903   3.913
29773SOL    HW191151   7.797  10.911   3.900
29773SOL    HW291152   7.685  10.809   3.911
29774SOL     OW91153  13.006   6.473  14.582
29774SOL    HW191154  12.997   6.499  14.490
29774SOL    HW291155  12.916   6.458  14.611
29775SOL     OW91156   9.689   0.229  11.617
29775SOL    HW191157   9.598   0.207  11.635
29775SOL    HW291158   9.685   0.295  11.547
29776SOL     OW91159   2.619  14.702   9.051
29776SOL    HW191160   2.705  14.720   9.013
29776SOL    HW291161   2.590  14.787   9.086
29777SOL     OW91162  11.872  10.024  10.989
29777SOL    HW191163  11.902   9.938  11.020
29777SOL    HW291164  11.940  10.085  11.018
29778SOL     OW91165  11.371   2.114  11.104
29778SOL    HW191166  11.408   2.110  11.191
29778SOL    HW291167  11.446   2.119  11.045
29779SOL     OW91168   6.914   7.744   9.222
29779SOL    HW191169   7.005   7.727   9.197
29779SOL    HW291170   6.916   7.757   9.316
29780SOL     OW91171   0.634   6.273  14.313
29780SOL    HW191172   0.680   6.320  14.244
29780SOL    HW291173   0.541   6.285  14.293
29781SOL     OW91174  10.910   9.640  12.533
29781SOL    HW191175  10.968   9.609  12.603
29781SOL    HW291176  10.837   9.681  12.579
29782SOL     OW91177   7.294   9.935  14.093
29782SOL    HW191178   7.305   9.920  14.187
29782SOL    HW291179   7.291   9.847  14.055
29783SOL     OW91180  14.774   4.592  14.501
29783SOL    HW191181  14.780   4.657  14.431
29783SOL    HW291182  14.832   4.521  14.474
29784SOL     OW91183   9.208  12.560   3.841
29784SOL    HW191184   9.132  12.518   3.800
29784SOL    HW291185   9.201  12.537   3.934
29785SOL     OW91186  11.373  12.033  10.838
29785SOL    HW191187  11.410  12.033  10.927
29785SOL    HW291188  11.445  12.062  10.782
29786SOL     OW91189   3.150  12.779   6.435
29786SOL    HW191190   3.077  12.720   6.417
29786SOL    HW291191   3.123  12.863   6.398
29787SOL     OW91192   5.970  10.867   5.629
29787SOL    HW191193   6.036  10.797   5.626
29787SOL    HW291194   5.906  10.836   5.692
29788SOL     OW91195   7.812   7.859  10.987
29788SOL    HW191196   7.758   7.789  10.951
29788SOL    HW291197   7.750   7.921  11.026
29789SOL     OW91198  13.105  10.691   8.721
29789SOL    HW191199  13.149  10.629   8.779
29789SOL    HW291200  13.037  10.641   8.677
29790SOL     OW91201   4.183  10.592   1.326
29790SOL    HW191202   4.142  10.594   1.412
29790SOL    HW291203   4.160  10.676   1.286
29791SOL     OW91204   7.835  13.805  14.238
29791SOL    HW191205   7.781  13.883  14.226
29791SOL    HW291206   7.878  13.792  14.153
29792SOL     OW91207   9.534  14.353   1.854
29792SOL    HW191208   9.576  14.377   1.772
29792SOL    HW291209   9.483  14.431   1.879
29793SOL     OW91210  14.581  14.658   4.922
29793SOL    HW191211  14.523  14.586   4.896
29793SOL    HW291212  14.620  14.629   5.004
29794SOL     OW91213   1.875   4.362   6.452
29794SOL    HW191214   1.947   4.358   6.515
29794SOL    HW291215   1.896   4.438   6.398
29795SOL     OW91216   9.257   2.013   0.259
29795SOL    HW191217   9.264   2.088   0.200
29795SOL    HW291218   9.164   1.991   0.259
29796SOL     OW91219   1.952  14.327   8.636
29796SOL    HW191220   1.978  14.268   8.707
29796SOL    HW291221   1.929  14.409   8.680
29797SOL     OW91222  10.494   1.768   5.005
29797SOL    HW191223  10.514   1.816   5.085
29797SOL    HW291224  10.571   1.714   4.989
29798SOL     OW91225  10.024   0.923   6.518
29798SOL    HW191226   9.937   0.901   6.552
29798SOL    HW291227  10.008   0.996   6.458
29799SOL     OW91228   2.376   7.692   2.054
29799SOL    HW191229   2.363   7.690   1.959
29799SOL    HW291230   2.300   7.740   2.088
29800SOL     OW91231  13.034  10.778  14.547
29800SOL    HW191232  13.031  10.684  14.561
29800SOL    HW291233  12.968  10.794  14.478
29801SOL     OW91234   3.189   9.251   0.867
29801SOL    HW191235   3.098   9.246   0.839
29801SOL    HW291236   3.187   9.300   0.949
29802SOL     OW91237   8.542   9.810   4.154
29802SOL    HW191238   8.491   9.832   4.232
29802SOL    HW291239   8.477   9.780   4.090
29803SOL     OW91240   6.415  12.853  13.414
29803SOL    HW191241   6.474  12.889  13.480
29803SOL    HW291242   6.432  12.759  13.416
29804SOL     OW91243  10.122   1.679   7.483
29804SOL    HW191244  10.136   1.703   7.574
29804SOL    HW291245  10.131   1.583   7.482
29805SOL     OW91246   3.996   2.156   3.903
29805SOL    HW191247   4.078   2.205   3.909
29805SOL    HW291248   3.969   2.143   3.994
29806SOL     OW91249   3.702  11.451   6.192
29806SOL    HW191250   3.693  11.543   6.217
29806SOL    HW291251   3.614  11.415   6.202
29807SOL     OW91252   7.352  12.800  12.529
29807SOL    HW191253   7.285  12.756  12.582
29807SOL    HW291254   7.428  12.742  12.535
29808SOL     OW91255   2.633  14.395   4.998
29808SOL    HW191256   2.637  14.355   4.911
29808SOL    HW291257   2.718  14.437   5.009
29809SOL     OW91258   3.366  12.806   7.034
29809SOL    HW191259   3.382  12.822   7.127
29809SOL    HW291260   3.292  12.862   7.012
29810SOL     OW91261   1.234   9.268   0.304
29810SOL    HW191262   1.192   9.310   0.228
29810SOL    HW291263   1.230   9.334   0.373
29811SOL     OW91264   9.402   5.758  12.335
29811SOL    HW191265   9.429   5.806  12.256
29811SOL    HW291266   9.328   5.705  12.306
29812SOL     OW91267   8.563   5.864  11.065
29812SOL    HW191268   8.557   5.769  11.076
29812SOL    HW291269   8.605   5.876  10.980
29813SOL     OW91270  10.630   5.479   2.392
29813SOL    HW191271  10.611   5.497   2.300
29813SOL    HW291272  10.619   5.384   2.400
29814SOL     OW91273  13.959   1.452  11.370
29814SOL    HW191274  13.991   1.391  11.436
29814SOL    HW291275  13.972   1.408  11.287
29815SOL     OW91276   9.800   0.736  12.427
29815SOL    HW191277   9.847   0.743  12.509
29815SOL    HW291278   9.751   0.654  12.434
29816SOL     OW91279   6.782   8.454  10.581
29816SOL    HW191280   6.802   8.545  10.560
29816SOL    HW291281   6.711   8.430  10.522
29817SOL     OW91282   5.903   7.331  14.284
29817SOL    HW191283   5.940   7.329  14.197
29817SOL    HW291284   5.977   7.350  14.342
29818SOL     OW91285   3.788   4.262  14.711
29818SOL    HW191286   3.837   4.336  14.747
29818SOL    HW291287   3.849   4.221  14.650
29819SOL     OW91288   7.553   4.329   4.292
29819SOL    HW191289   7.560   4.400   4.355
29819SOL    HW291290   7.608   4.259   4.327
29820SOL     OW91291   6.769   2.310  13.970
29820SOL    HW191292   6.713   2.235  13.954
29820SOL    HW291293   6.806   2.332  13.885
29821SOL     OW91294   3.506   0.562  11.954
29821SOL    HW191295   3.558   0.527  11.881
29821SOL    HW291296   3.548   0.645  11.975
29822SOL     OW91297   0.902  13.901   0.863
29822SOL    HW191298   0.979  13.893   0.920
29822SOL    HW291299   0.932  13.867   0.779
29823SOL     OW91300   1.136   7.361   6.028
29823SOL    HW191301   1.049   7.387   6.056
29823SOL    HW291302   1.193   7.433   6.055
29824SOL     OW91303  11.049   6.115  10.929
29824SOL    HW191304  11.045   6.065  11.010
29824SOL    HW291305  10.990   6.189  10.944
29825SOL     OW91306   9.107   9.327  12.460
29825SOL    HW191307   9.108   9.237  12.492
29825SOL    HW291308   9.195   9.360  12.478
29826SOL     OW91309  11.896  14.773  10.704
29826SOL    HW191310  11.937  14.824  10.634
29826SOL    HW291311  11.875  14.689  10.664
29827SOL     OW91312   4.145  14.695   1.276
29827SOL    HW191313   4.056  14.726   1.294
29827SOL    HW291314   4.202  14.758   1.321
29828SOL     OW91315  11.031   4.953  11.301
29828SOL    HW191316  11.106   4.944  11.360
29828SOL    HW291317  10.960   4.983  11.358
29829SOL     OW91318  10.492   9.302   4.543
29829SOL    HW191319  10.576   9.347   4.536
29829SOL    HW291320  10.514   9.209   4.545
29830SOL     OW91321  12.928   3.260   0.841
29830SOL    HW191322  12.886   3.281   0.758
29830SOL    HW291323  12.980   3.338   0.862
29831SOL     OW91324   8.457   2.659   1.599
29831SOL    HW191325   8.492   2.668   1.688
29831SOL    HW291326   8.440   2.749   1.571
29832SOL     OW91327   5.131   9.259  14.798
29832SOL    HW191328   5.079   9.327  14.756
29832SOL    HW291329   5.078   9.180  14.789
29833SOL     OW91330  11.251   8.030  12.816
29833SOL    HW191331  11.336   7.988  12.801
29833SOL    HW291332  11.270   8.101  12.877
29834SOL     OW91333   0.161   9.196  13.117
29834SOL    HW191334   0.162   9.270  13.178
29834SOL    HW291335   0.123   9.231  13.037
29835SOL     OW91336   8.467   3.109   1.286
29835SOL    HW191337   8.543   3.163   1.307
29835SOL    HW291338   8.439   3.138   1.199
29836SOL     OW91339  12.347   6.873   7.711
29836SOL    HW191340  12.268   6.866   7.766
29836SOL    HW291341  12.318   6.922   7.634
29837SOL     OW91342  12.882   6.115  11.969
29837SOL    HW191343  12.799   6.080  12.000
29837SOL    HW291344  12.865   6.207  11.950
29838SOL     OW91345  13.134   4.279  13.935
29838SOL    HW191346  13.154   4.192  13.899
29838SOL    HW291347  13.110   4.263  14.026
29839SOL     OW91348  14.094   1.583   9.715
29839SOL    HW191349  14.049   1.656   9.671
29839SOL    HW291350  14.054   1.505   9.678
29840SOL     OW91351  11.341   9.100  13.995
29840SOL    HW191352  11.354   9.012  13.959
29840SOL    HW291353  11.329   9.156  13.919
29841SOL     OW91354  10.158   6.246   3.296
29841SOL    HW191355  10.174   6.156   3.270
29841SOL    HW291356  10.115   6.239   3.381
29842SOL     OW91357   4.067   1.185  13.051
29842SOL    HW191358   3.973   1.187  13.032
29842SOL    HW291359   4.102   1.121  12.988
29843SOL     OW91360   2.140   3.243  12.796
29843SOL    HW191361   2.048   3.264  12.813
29843SOL    HW291362   2.184   3.328  12.801
29844SOL     OW91363   9.536   6.405   3.939
29844SOL    HW191364   9.492   6.480   3.899
29844SOL    HW291365   9.498   6.328   3.897
29845SOL     OW91366   8.795   7.402  10.017
29845SOL    HW191367   8.703   7.404   9.989
29845SOL    HW291368   8.805   7.479  10.073
29846SOL     OW91369  13.582   8.663   4.299
29846SOL    HW191370  13.616   8.577   4.325
29846SOL    HW291371  13.616   8.723   4.365
29847SOL     OW91372   1.301   2.784   3.726
29847SOL    HW191373   1.260   2.797   3.812
29847SOL    HW291374   1.235   2.815   3.663
29848SOL     OW91375   6.448  13.784   5.243
29848SOL    HW191376   6.433  13.739   5.159
29848SOL    HW291377   6.453  13.713   5.307
29849SOL     OW91378  14.232   6.973  14.310
29849SOL    HW191379  14.138   6.979  14.329
29849SOL    HW291380  14.254   6.881  14.325
29850SOL     OW91381   6.318  10.033   0.062
29850SOL    HW191382   6.278  10.107   0.017
29850SOL    HW291383   6.304   9.959   0.004
29851SOL     OW91384  12.820  12.661  14.299
29851SOL    HW191385  12.901  12.647  14.348
29851SOL    HW291386  12.781  12.739  14.338
29852SOL     OW91387   3.394  14.611   4.829
29852SOL    HW191388   3.463  14.651   4.881
29852SOL    HW291389   3.344  14.685   4.795
29853SOL     OW91390   1.849  13.196   3.027
29853SOL    HW191391   1.813  13.179   2.940
29853SOL    HW291392   1.921  13.257   3.011
29854SOL     OW91393   0.870   7.291   0.897
29854SOL    HW191394   0.879   7.225   0.966
29854SOL    HW291395   0.776   7.302   0.886
29855SOL     OW91396   3.290  10.469  14.287
29855SOL    HW191397   3.264  10.476  14.195
29855SOL    HW291398   3.377  10.429  14.285
29856SOL     OW91399   3.366  10.913  13.690
29856SOL    HW191400   3.309  10.954  13.755
29856SOL    HW291401   3.446  10.965  13.693
29857SOL     OW91402   4.358  12.291   5.957
29857SOL    HW191403   4.357  12.215   6.015
29857SOL    HW291404   4.337  12.255   5.871
29858SOL     OW91405   9.623   8.977   9.972
29858SOL    HW191406   9.606   8.884   9.962
29858SOL    HW291407   9.557   9.006  10.036
29859SOL     OW91408   7.121   1.662   6.157
29859SOL    HW191409   7.195   1.711   6.194
29859SOL    HW291410   7.121   1.684   6.064
29860SOL     OW91411  14.726   9.727  11.895
29860SOL    HW191412  14.771   9.722  11.979
29860SOL    HW291413  14.669   9.650  11.893
29861SOL     OW91414  13.348   6.552   0.483
29861SOL    HW191415  13.294   6.556   0.562
29861SOL    HW291416  13.384   6.463   0.483
29862SOL     OW91417  11.338   0.838  11.702
29862SOL    HW191418  11.405   0.782  11.743
29862SOL    HW291419  11.269   0.845  11.769
29863SOL     OW91420   6.993  14.354   3.652
29863SOL    HW191421   7.034  14.437   3.626
29863SOL    HW291422   6.963  14.315   3.570
29864SOL     OW91423   2.471  11.926   5.409
29864SOL    HW191424   2.492  11.996   5.470
29864SOL    HW291425   2.481  11.846   5.461
29865SOL     OW91426   5.727  13.386   3.668
29865SOL    HW191427   5.783  13.457   3.638
29865SOL    HW291428   5.789  13.318   3.696
29866SOL     OW91429   8.347   7.356   9.389
29866SOL    HW191430   8.361   7.419   9.319
29866SOL    HW291431   8.326   7.274   9.345
29867SOL     OW91432   3.127   1.574   5.675
29867SOL    HW191433   3.067   1.644   5.647
29867SOL    HW291434   3.185   1.616   5.738
29868SOL     OW91435   7.140   0.869   5.006
29868SOL    HW191436   7.153   0.962   4.988
29868SOL    HW291437   7.055   0.848   4.965
29869SOL     OW91438   6.511   3.731   6.592
29869SOL    HW191439   6.467   3.714   6.675
29869SOL    HW291440   6.537   3.823   6.597
29870SOL     OW91441  11.172  14.839   4.519
29870SOL    HW191442  11.245   0.022   4.539
29870SOL    HW291443  11.201  14.793   4.440
29871SOL     OW91444   5.860  12.753   5.875
29871SOL    HW191445   5.790  12.689   5.862
29871SOL    HW291446   5.820  12.837   5.854
29872SOL     OW91447   3.228   7.353   3.754
29872SOL    HW191448   3.319   7.351   3.725
29872SOL    HW291449   3.227   7.415   3.827
29873SOL     OW91450  10.373  12.323  10.371
29873SOL    HW191451  10.433  12.264  10.416
29873SOL    HW291452  10.420  12.406  10.364
29874SOL     OW91453   6.613  14.685   8.480
29874SOL    HW191454   6.656  14.734   8.410
29874SOL    HW291455   6.583  14.604   8.438
29875SOL     OW91456   6.366  13.140   7.412
29875SOL    HW191457   6.308  13.198   7.362
29875SOL    HW291458   6.370  13.180   7.499
29876SOL     OW91459  14.333  13.657   6.696
29876SOL    HW191460  14.404  13.594   6.693
29876SOL    HW291461  14.257  13.611   6.659
29877SOL     OW91462   3.898  14.530  12.228
29877SOL    HW191463   3.888  14.581  12.308
29877SOL    HW291464   3.892  14.439  12.256
29878SOL     OW91465  11.064  12.698   0.173
29878SOL    HW191466  10.983  12.709   0.222
29878SOL    HW291467  11.035  12.679   0.083
29879SOL     OW91468   8.996  13.631   7.653
29879SOL    HW191469   9.054  13.703   7.629
29879SOL    HW291470   9.019  13.560   7.594
29880SOL     OW91471   1.803  14.061   9.483
29880SOL    HW191472   1.739  14.050   9.412
29880SOL    HW291473   1.879  14.011   9.453
29881SOL     OW91474  10.047   9.980  12.775
29881SOL    HW191475  10.053  10.075  12.790
29881SOL    HW291476   9.968   9.954  12.822
29882SOL     OW91477   9.374  13.740   9.503
29882SOL    HW191478   9.372  13.680   9.577
29882SOL    HW291479   9.284  13.741   9.470
29883SOL     OW91480   1.384   3.988  10.774
29883SOL    HW191481   1.344   3.904  10.794
29883SOL    HW291482   1.381   4.036  10.856
29884SOL     OW91483   0.570   2.465   1.753
29884SOL    HW191484   0.587   2.498   1.841
29884SOL    HW291485   0.589   2.372   1.757
29885SOL     OW91486   7.025   4.715   6.286
29885SOL    HW191487   6.943   4.739   6.242
29885SOL    HW291488   7.027   4.771   6.364
29886SOL     OW91489   9.443   6.191   0.089
29886SOL    HW191490   9.465   6.105   0.125
29886SOL    HW291491   9.482   6.191   0.001
29887SOL     OW91492   6.295   2.512   4.983
29887SOL    HW191493   6.220   2.463   5.015
29887SOL    HW291494   6.276   2.526   4.890
29888SOL     OW91495  13.328  10.600   9.468
29888SOL    HW191496  13.355  10.538   9.401
29888SOL    HW291497  13.237  10.622   9.445
29889SOL     OW91498   0.502   4.505  14.742
29889SOL    HW191499   0.560   4.541  14.675
29889SOL    HW291500   0.476   4.419  14.708
29890SOL     OW91501  14.731   0.695   7.393
29890SOL    HW191502  14.776   0.613   7.372
29890SOL    HW291503  14.741   0.704   7.487
29891SOL     OW91504   2.578   1.816   0.797
29891SOL    HW191505   2.603   1.736   0.842
29891SOL    HW291506   2.590   1.796   0.704
29892SOL     OW91507  11.613   1.186   1.312
29892SOL    HW191508  11.640   1.168   1.402
29892SOL    HW291509  11.520   1.206   1.318
29893SOL     OW91510  12.952  11.358   7.699
29893SOL    HW191511  12.953  11.299   7.624
29893SOL    HW291512  12.896  11.314   7.763
29894SOL     OW91513   4.478   5.211   3.149
29894SOL    HW191514   4.524   5.239   3.070
29894SOL    HW291515   4.441   5.126   3.126
29895SOL     OW91516   0.680   9.648   2.416
29895SOL    HW191517   0.687   9.727   2.469
29895SOL    HW291518   0.594   9.612   2.438
29896SOL     OW91519   3.342   7.820  10.802
29896SOL    HW191520   3.310   7.897  10.754
29896SOL    HW291521   3.426   7.800  10.761
29897SOL     OW91522  13.091  10.522   0.669
29897SOL    HW191523  13.147  10.590   0.632
29897SOL    HW291524  13.002  10.558   0.662
29898SOL     OW91525  12.715  10.294  14.665
29898SOL    HW191526  12.764  10.274  14.745
29898SOL    HW291527  12.644  10.352  14.695
29899SOL     OW91528  10.463   1.741  12.471
29899SOL    HW191529  10.432   1.772  12.556
29899SOL    HW291530  10.559   1.749  12.476
29900SOL     OW91531  10.415  11.171  12.471
29900SOL    HW191532  10.387  11.137  12.385
29900SOL    HW291533  10.341  11.225  12.500
29901SOL     OW91534   2.034  10.577  13.703
29901SOL    HW191535   2.100  10.602  13.638
29901SOL    HW291536   1.959  10.548  13.652
29902SOL     OW91537  13.333   8.728   2.919
29902SOL    HW191538  13.362   8.647   2.876
29902SOL    HW291539  13.254   8.703   2.966
29903SOL     OW91540   6.205  10.824   8.066
29903SOL    HW191541   6.282  10.880   8.065
29903SOL    HW291542   6.239  10.738   8.089
29904SOL     OW91543   1.688  14.523   8.153
29904SOL    HW191544   1.703  14.568   8.070
29904SOL    HW291545   1.684  14.430   8.129
29905SOL     OW91546   3.110  10.045   9.319
29905SOL    HW191547   3.073  10.020   9.234
29905SOL    HW291548   3.063   9.990   9.382
29906SOL     OW91549   4.909   1.869   2.375
29906SOL    HW191550   4.951   1.804   2.319
29906SOL    HW291551   4.976   1.934   2.392
29907SOL     OW91552   4.028  11.647   9.688
29907SOL    HW191553   4.064  11.699   9.616
29907SOL    HW291554   4.051  11.557   9.667
29908SOL     OW91555   6.080  11.449   2.085
29908SOL    HW191556   6.093  11.369   2.136
29908SOL    HW291557   5.986  11.452   2.068
29909SOL     OW91558   6.877   1.410   9.664
29909SOL    HW191559   6.857   1.428   9.756
29909SOL    HW291560   6.796   1.373   9.629
29910SOL     OW91561  11.446  14.126   3.601
29910SOL    HW191562  11.494  14.140   3.682
29910SOL    HW291563  11.490  14.051   3.560
29911SOL     OW91564   9.929  10.038   2.555
29911SOL    HW191565   9.912  10.091   2.632
29911SOL    HW291566   9.876  10.078   2.486
29912SOL     OW91567  14.617  12.195   3.368
29912SOL    HW191568  14.709  12.188   3.343
29912SOL    HW291569  14.607  12.286   3.396
29913SOL     OW91570  14.803  11.789   2.240
29913SOL    HW191571   0.012  11.749   2.259
29913SOL    HW291572  14.742  11.716   2.238
29914SOL     OW91573   9.761  10.737   5.577
29914SOL    HW191574   9.701  10.724   5.651
29914SOL    HW291575   9.709  10.712   5.500
29915SOL     OW91576   1.302   3.513   1.993
29915SOL    HW191577   1.326   3.539   1.904
29915SOL    HW291578   1.384   3.482   2.032
29916SOL     OW91579   2.294   7.129  12.701
29916SOL    HW191580   2.317   7.203  12.757
29916SOL    HW291581   2.337   7.054  12.741
29917SOL     OW91582   8.936   6.017  12.739
29917SOL    HW191583   9.008   5.967  12.777
29917SOL    HW291584   8.976   6.100  12.713
29918SOL     OW91585   7.550   7.470  10.964
29918SOL    HW191586   7.629   7.492  11.014
29918SOL    HW291587   7.523   7.385  10.998
29919SOL     OW91588  12.320   2.188   7.925
29919SOL    HW191589  12.253   2.160   7.986
29919SOL    HW291590  12.383   2.116   7.921
29920SOL     OW91591  10.381  12.457  13.734
29920SOL    HW191592  10.286  12.468  13.729
29920SOL    HW291593  10.403  12.486  13.822
29921SOL     OW91594   2.145  13.761   1.544
29921SOL    HW191595   2.099  13.841   1.517
29921SOL    HW291596   2.108  13.692   1.488
29922SOL     OW91597  13.872  13.162   6.324
29922SOL    HW191598  13.841  13.166   6.234
29922SOL    HW291599  13.923  13.081   6.328
29923SOL     OW91600   5.395  13.079   7.857
29923SOL    HW191601   5.422  13.134   7.784
29923SOL    HW291602   5.440  13.115   7.933
29924SOL     OW91603   6.875   6.418   6.744
29924SOL    HW191604   6.958   6.410   6.698
29924SOL    HW291605   6.817   6.463   6.683
29925SOL     OW91606  14.101  14.725   2.186
29925SOL    HW191607  14.181  14.725   2.133
29925SOL    HW291608  14.118  14.790   2.254
29926SOL     OW91609   2.319  11.047  10.696
29926SOL    HW191610   2.275  11.126  10.728
29926SOL    HW291611   2.256  10.976  10.713
29927SOL     OW91612   5.987  14.055   4.999
29927SOL    HW191613   5.985  14.110   5.077
29927SOL    HW291614   5.896  14.030   4.985
29928SOL     OW91615   0.270   5.309   9.371
29928SOL    HW191616   0.365   5.324   9.376
29928SOL    HW291617   0.239   5.326   9.460
29929SOL     OW91618   3.293   8.587  10.756
29929SOL    HW191619   3.309   8.493  10.749
29929SOL    HW291620   3.358   8.618  10.819
29930SOL     OW91621   1.537   7.573  11.225
29930SOL    HW191622   1.623   7.589  11.187
29930SOL    HW291623   1.479   7.563  11.149
29931SOL     OW91624   7.731   7.844   0.622
29931SOL    HW191625   7.768   7.761   0.590
29931SOL    HW291626   7.727   7.899   0.544
29932SOL     OW91627  11.636  13.018   9.213
29932SOL    HW191628  11.690  13.080   9.163
29932SOL    HW291629  11.699  12.962   9.258
29933SOL     OW91630   6.354   1.094   5.854
29933SOL    HW191631   6.297   1.163   5.821
29933SOL    HW291632   6.358   1.030   5.783
29934SOL     OW91633   3.418  10.241   4.041
29934SOL    HW191634   3.386  10.308   4.101
29934SOL    HW291635   3.483  10.285   3.987
29935SOL     OW91636  14.437  11.908  11.013
29935SOL    HW191637  14.352  11.875  11.041
29935SOL    HW291638  14.496  11.884  11.085
29936SOL     OW91639   2.924   5.386   9.722
29936SOL    HW191640   2.995   5.441   9.688
29936SOL    HW291641   2.849   5.446   9.729
29937SOL     OW91642   9.604  11.904   2.587
29937SOL    HW191643   9.672  11.913   2.520
29937SOL    HW291644   9.526  11.944   2.548
29938SOL     OW91645  14.724  11.493  13.912
29938SOL    HW191646  14.810  11.450  13.911
29938SOL    HW291647  14.669  11.433  13.962
29939SOL     OW91648   3.734   9.119  14.835
29939SOL    HW191649   3.802   9.186  14.829
29939SOL    HW291650   3.765   9.048  14.778
29940SOL     OW91651  12.400  11.487   8.013
29940SOL    HW191652  12.473  11.544   7.990
29940SOL    HW291653  12.394  11.494   8.109
29941SOL     OW91654   9.798   6.126   3.369
29941SOL    HW191655   9.863   6.136   3.439
29941SOL    HW291656   9.763   6.214   3.356
29942SOL     OW91657  14.530   4.938   2.340
29942SOL    HW191658  14.575   5.022   2.336
29942SOL    HW291659  14.564   4.897   2.419
29943SOL     OW91660  14.209   4.980   9.178
29943SOL    HW191661  14.237   5.060   9.135
29943SOL    HW291662  14.184   4.922   9.106
29944SOL     OW91663   5.430  12.689   8.280
29944SOL    HW191664   5.512  12.662   8.240
29944SOL    HW291665   5.425  12.783   8.264
29945SOL     OW91666  11.708  14.830   3.859
29945SOL    HW191667  11.757  14.769   3.804
29945SOL    HW291668  11.762   0.034   3.861
29946SOL     OW91669   9.396   1.783  13.845
29946SOL    HW191670   9.341   1.748  13.776
29946SOL    HW291671   9.485   1.779  13.810
29947SOL     OW91672   1.858  10.616  12.504
29947SOL    HW191673   1.883  10.546  12.443
29947SOL    HW291674   1.763  10.606  12.513
29948SOL     OW91675  11.114   0.186  14.714
29948SOL    HW191676  11.171   0.156  14.785
29948SOL    HW291677  11.150   0.144  14.636
29949SOL     OW91678   5.785  11.557   4.277
29949SOL    HW191679   5.734  11.632   4.248
29949SOL    HW291680   5.733  11.519   4.349
29950SOL     OW91681   2.176   0.548   0.947
29950SOL    HW191682   2.101   0.598   0.914
29950SOL    HW291683   2.174   0.563   1.042
29951SOL     OW91684   8.143   6.461  10.198
29951SOL    HW191685   8.198   6.427  10.268
29951SOL    HW291686   8.069   6.503  10.244
29952SOL     OW91687  12.027   1.151   4.824
29952SOL    HW191688  12.086   1.089   4.867
29952SOL    HW291689  11.955   1.162   4.886
29953SOL     OW91690  10.062   9.604   9.980
29953SOL    HW191691  10.010   9.615  10.059
29953SOL    HW291692  10.148   9.575  10.011
29954SOL     OW91693   8.544   7.435   9.774
29954SOL    HW191694   8.519   7.422   9.866
29954SOL    HW291695   8.463   7.459   9.730
29955SOL     OW91696   5.494   8.443   8.103
29955SOL    HW191697   5.454   8.509   8.159
29955SOL    HW291698   5.487   8.362   8.152
29956SOL     OW91699   4.464   7.350   6.364
29956SOL    HW191700   4.515   7.423   6.329
29956SOL    HW291701   4.450   7.372   6.456
29957SOL     OW91702  13.877   4.237   7.020
29957SOL    HW191703  13.859   4.233   6.926
29957SOL    HW291704  13.791   4.239   7.061
29958SOL     OW91705   6.863   2.042   3.747
29958SOL    HW191706   6.899   2.125   3.779
29958SOL    HW291707   6.771   2.044   3.772
29959SOL     OW91708  13.998  12.339   3.938
29959SOL    HW191709  14.085  12.349   3.899
29959SOL    HW291710  13.975  12.248   3.922
29960SOL     OW91711   8.492   0.000  11.612
29960SOL    HW191712   8.417   0.037  11.659
29960SOL    HW291713   8.471  14.784  11.600
29961SOL     OW91714   2.555   5.817  10.109
29961SOL    HW191715   2.530   5.898  10.064
29961SOL    HW291716   2.631   5.842  10.162
29962SOL     OW91717   3.789   2.571   2.924
29962SOL    HW191718   3.732   2.648   2.924
29962SOL    HW291719   3.744   2.507   2.870
29963SOL     OW91720   3.899   3.010   1.923
29963SOL    HW191721   3.922   2.973   2.008
29963SOL    HW291722   3.810   3.043   1.934
29964SOL     OW91723   4.914   0.044   6.269
29964SOL    HW191724   4.956   0.128   6.289
29964SOL    HW291725   4.841   0.038   6.331
29965SOL     OW91726   6.801  11.403   5.707
29965SOL    HW191727   6.787  11.331   5.647
29965SOL    HW291728   6.731  11.465   5.688
29966SOL     OW91729   4.362   4.088   6.548
29966SOL    HW191730   4.297   4.023   6.576
29966SOL    HW291731   4.388   4.133   6.628
29967SOL     OW91732   0.627   2.734  10.910
29967SOL    HW191733   0.568   2.806  10.931
29967SOL    HW291734   0.601   2.663  10.969
29968SOL     OW91735   4.057  10.599   4.855
29968SOL    HW191736   4.059  10.691   4.882
29968SOL    HW291737   4.147  10.580   4.828
29969SOL     OW91738   4.009   1.624  13.595
29969SOL    HW191739   4.018   1.536  13.632
29969SOL    HW291740   4.056   1.620  13.512
29970SOL     OW91741  14.516   3.387   6.816
29970SOL    HW191742  14.556   3.314   6.864
29970SOL    HW291743  14.587   3.421   6.761
29971SOL     OW91744   1.897  10.560   8.310
29971SOL    HW191745   1.984  10.523   8.326
29971SOL    HW291746   1.879  10.615   8.386
29972SOL     OW91747   3.527   5.661  10.705
29972SOL    HW191748   3.496   5.751  10.719
29972SOL    HW291749   3.594   5.668  10.637
29973SOL     OW91750  13.931   0.701   8.955
29973SOL    HW191751  13.940   0.720   8.862
29973SOL    HW291752  14.014   0.660   8.980
29974SOL     OW91753   6.605   1.811   4.047
29974SOL    HW191754   6.525   1.769   4.077
29974SOL    HW291755   6.651   1.742   3.999
29975SOL     OW91756   6.513   5.507  10.213
29975SOL    HW191757   6.476   5.530  10.127
29975SOL    HW291758   6.443   5.525  10.275
29976SOL     OW91759   6.773   6.001   0.752
29976SOL    HW191760   6.682   6.003   0.725
29976SOL    HW291761   6.822   5.992   0.670
29977SOL     OW91762   8.214  14.295   3.496
29977SOL    HW191763   8.156  14.369   3.477
29977SOL    HW291764   8.297  14.336   3.520
29978SOL     OW91765   0.988   5.574   5.937
29978SOL    HW191766   1.052   5.521   5.985
29978SOL    HW291767   1.039   5.622   5.872
29979SOL     OW91768  13.425   4.067  12.305
29979SOL    HW191769  13.519   4.066  12.286
29979SOL    HW291770  13.395   4.151  12.270
29980SOL     OW91771  10.751  14.613   4.541
29980SOL    HW191772  10.731  14.534   4.591
29980SOL    HW291773  10.840  14.636   4.568
29981SOL     OW91774  10.453  12.790   6.445
29981SOL    HW191775  10.419  12.822   6.362
29981SOL    HW291776  10.435  12.696   6.444
29982SOL     OW91777   8.368  13.491   5.310
29982SOL    HW191778   8.384  13.584   5.296
29982SOL    HW291779   8.322  13.487   5.394
29983SOL     OW91780  11.287   7.746   7.085
29983SOL    HW191781  11.319   7.694   7.159
29983SOL    HW291782  11.198   7.716   7.072
29984SOL     OW91783   1.055   2.225   2.425
29984SOL    HW191784   1.149   2.217   2.444
29984SOL    HW291785   1.021   2.283   2.493
29985SOL     OW91786   4.655   3.483   5.225
29985SOL    HW191787   4.719   3.412   5.213
29985SOL    HW291788   4.656   3.500   5.319
29986SOL     OW91789   3.757   9.088   0.455
29986SOL    HW191790   3.748   9.118   0.364
29986SOL    HW291791   3.709   9.152   0.506
29987SOL     OW91792  10.421   9.793  12.718
29987SOL    HW191793  10.421   9.848  12.640
29987SOL    HW291794  10.376   9.713  12.691
29988SOL     OW91795   5.920  11.262   4.524
29988SOL    HW191796   5.882  11.184   4.484
29988SOL    HW291797   5.909  11.248   4.618
29989SOL     OW91798  12.915  11.453   2.437
29989SOL    HW191799  12.831  11.431   2.478
29989SOL    HW291800  12.898  11.449   2.343
29990SOL     OW91801  13.803  14.628   6.229
29990SOL    HW191802  13.849  14.693   6.177
29990SOL    HW291803  13.819  14.654   6.320
29991SOL     OW91804  10.294  12.598   1.045
29991SOL    HW191805  10.328  12.549   0.971
29991SOL    HW291806  10.339  12.683   1.040
29992SOL     OW91807   6.001   0.025   1.960
29992SOL    HW191808   6.040   0.086   2.023
29992SOL    HW291809   5.942  14.847   2.013
29993SOL     OW91810   2.811   5.486  13.252
29993SOL    HW191811   2.757   5.472  13.330
29993SOL    HW291812   2.887   5.535  13.284
29994SOL     OW91813   2.515   6.152   3.446
29994SOL    HW191814   2.433   6.104   3.435
29994SOL    HW291815   2.489   6.236   3.483
29995SOL     OW91816  14.661   1.973  14.668
29995SOL    HW191817  14.627   2.046  14.616
29995SOL    HW291818  14.586   1.945  14.721
29996SOL     OW91819  12.264   5.972  12.312
29996SOL    HW191820  12.249   5.999  12.402
29996SOL    HW291821  12.176   5.971  12.273
29997SOL     OW91822   7.479   6.524   1.981
29997SOL    HW191823   7.510   6.608   1.949
29997SOL    HW291824   7.399   6.507   1.931
29998SOL     OW91825   1.044  11.726   5.293
29998SOL    HW191826   1.100  11.796   5.327
29998SOL    HW291827   0.954  11.757   5.309
29999SOL     OW91828  13.434   6.560  10.898
29999SOL    HW191829  13.371   6.633  10.894
29999SOL    HW291830  13.483   6.576  10.979
30000SOL     OW91831  13.586   5.522   3.131
30000SOL    HW191832  13.548   5.435   3.145
30000SOL    HW291833  13.669   5.505   3.086
30001SOL     OW91834  10.146   1.761   8.365
30001SOL    HW191835  10.077   1.696   8.377
30001SOL    HW291836  10.172   1.785   8.454
30002SOL     OW91837   0.823   9.332   6.084
30002SOL    HW191838   0.755   9.397   6.102
30002SOL    HW291839   0.861   9.360   6.001
30003SOL     OW91840   0.974  10.033   7.168
30003SOL    HW191841   1.005  10.034   7.259
30003SOL    HW291842   0.948   9.942   7.153
30004SOL     OW91843  12.091   2.033   6.117
30004SOL    HW191844  12.178   1.994   6.111
30004SOL    HW291845  12.079   2.052   6.210
30005SOL     OW91846   8.080   3.974   4.612
30005SOL    HW191847   8.066   3.880   4.626
30005SOL    HW291848   8.040   3.992   4.527
30006SOL     OW91849   4.105   3.218   5.194
30006SOL    HW191850   4.041   3.196   5.127
30006SOL    HW291851   4.066   3.186   5.276
30007SOL     OW91852  11.069   0.781  11.084
30007SOL    HW191853  11.019   0.862  11.097
30007SOL    HW291854  11.072   0.771  10.988
30008SOL     OW91855   1.191  11.854  10.941
30008SOL    HW191856   1.154  11.766  10.934
30008SOL    HW291857   1.274  11.849  10.894
30009SOL     OW91858   8.812  10.096   3.137
30009SOL    HW191859   8.741  10.033   3.147
30009SOL    HW291860   8.818  10.110   3.042
30010SOL     OW91861  12.286   0.956   0.326
30010SOL    HW191862  12.248   1.016   0.391
30010SOL    HW291863  12.270   0.999   0.242
30011SOL     OW91864   4.799  14.596  13.379
30011SOL    HW191865   4.889  14.579  13.406
30011SOL    HW291866   4.805  14.607  13.284
30012SOL     OW91867  11.078  14.533  10.093
30012SOL    HW191868  11.061  14.602  10.157
30012SOL    HW291869  11.163  14.498  10.117
30013SOL     OW91870  11.099   3.945   3.149
30013SOL    HW191871  11.180   3.973   3.107
30013SOL    HW291872  11.119   3.945   3.242
30014SOL     OW91873   2.338   9.081   1.157
30014SOL    HW191874   2.412   9.132   1.192
30014SOL    HW291875   2.379   9.005   1.117
30015SOL     OW91876   1.907   2.094  11.283
30015SOL    HW191877   1.885   2.030  11.215
30015SOL    HW291878   1.880   2.052  11.365
30016SOL     OW91879   1.141   9.524   7.093
30016SOL    HW191880   1.127   9.499   7.184
30016SOL    HW291881   1.201   9.458   7.058
30017SOL     OW91882   6.622   4.560  13.331
30017SOL    HW191883   6.706   4.531  13.366
30017SOL    HW291884   6.572   4.479  13.317
30018SOL     OW91885   3.942   2.008  12.685
30018SOL    HW191886   3.993   1.928  12.687
30018SOL    HW291887   3.894   2.009  12.768
30019SOL     OW91888   9.245  14.119  11.427
30019SOL    HW191889   9.323  14.124  11.483
30019SOL    HW291890   9.253  14.195  11.369
30020SOL     OW91891   8.243   4.151   8.461
30020SOL    HW191892   8.217   4.090   8.530
30020SOL    HW291893   8.231   4.238   8.501
30021SOL     OW91894   0.879   3.836   4.335
30021SOL    HW191895   0.953   3.896   4.325
30021SOL    HW291896   0.805   3.880   4.293
30022SOL     OW91897   0.919   2.822  11.632
30022SOL    HW191898   0.978   2.852  11.563
30022SOL    HW291899   0.973   2.767  11.689
30023SOL     OW91900  12.551   4.049  14.471
30023SOL    HW191901  12.625   4.086  14.422
30023SOL    HW291902  12.475   4.099  14.442
30024SOL     OW91903  12.780  10.473   1.116
30024SOL    HW191904  12.702  10.523   1.139
30024SOL    HW291905  12.812  10.514   1.036
30025SOL     OW91906  13.707  10.048  14.261
30025SOL    HW191907  13.783   9.997  14.287
30025SOL    HW291908  13.698  10.032  14.167
30026SOL     OW91909   9.242   8.657  10.990
30026SOL    HW191910   9.164   8.695  10.951
30026SOL    HW291911   9.219   8.643  11.082
30027SOL     OW91912  14.518  11.512   3.468
30027SOL    HW191913  14.501  11.443   3.404
30027SOL    HW291914  14.446  11.505   3.531
30028SOL     OW91915   3.731   0.454   9.907
30028SOL    HW191916   3.748   0.546   9.891
30028SOL    HW291917   3.713   0.416   9.821
30029SOL     OW91918   8.723  13.493   1.950
30029SOL    HW191919   8.748  13.410   1.990
30029SOL    HW291920   8.638  13.514   1.988
30030SOL     OW91921  11.054   0.066   8.257
30030SOL    HW191922  11.087  14.863   8.215
30030SOL    HW291923  11.131   0.121   8.270
30031SOL     OW91924  14.248   7.241   3.388
30031SOL    HW191925  14.322   7.193   3.352
30031SOL    HW291926  14.275   7.333   3.387
30032SOL     OW91927   1.834   9.737   3.853
30032SOL    HW191928   1.748   9.767   3.883
30032SOL    HW291929   1.832   9.752   3.758
30033SOL     OW91930   1.676   0.870  13.286
30033SOL    HW191931   1.584   0.857  13.262
30033SOL    HW291932   1.680   0.961  13.317
30034SOL     OW91933   9.448   2.113   0.577
30034SOL    HW191934   9.379   2.174   0.552
30034SOL    HW291935   9.403   2.030   0.593
30035SOL     OW91936  10.013   7.355   9.605
30035SOL    HW191937  10.095   7.382   9.647
30035SOL    HW291938   9.951   7.344   9.677
30036SOL     OW91939   9.893   7.641   7.139
30036SOL    HW191940   9.879   7.607   7.227
30036SOL    HW291941   9.806   7.644   7.100
30037SOL     OW91942   9.409   6.834   1.803
30037SOL    HW191943   9.462   6.845   1.725
30037SOL    HW291944   9.442   6.900   1.864
30038SOL     OW91945  11.007   4.220   2.337
30038SOL    HW191946  11.026   4.308   2.368
30038SOL    HW291947  10.911   4.217   2.331
30039SOL     OW91948   4.702  13.556  11.822
30039SOL    HW191949   4.785  13.569  11.777
30039SOL    HW291950   4.726  13.530  11.911
30040SOL     OW91951   0.278  14.461   5.063
30040SOL    HW191952   0.332  14.402   5.118
30040SOL    HW291953   0.337  14.532   5.041
30041SOL     OW91954   2.604   4.943   7.917
30041SOL    HW191955   2.639   4.975   8.000
30041SOL    HW291956   2.509   4.955   7.925
30042SOL     OW91957   7.597   7.068  12.858
30042SOL    HW191958   7.587   7.010  12.934
30042SOL    HW291959   7.599   7.156  12.896
30043SOL     OW91960  14.219   6.668   6.287
30043SOL    HW191961  14.165   6.649   6.210
30043SOL    HW291962  14.274   6.742   6.260
30044SOL     OW91963   1.869   3.178  14.026
30044SOL    HW191964   1.878   3.110  13.959
30044SOL    HW291965   1.822   3.249  13.982
30045SOL     OW91966  13.174  11.044  13.165
30045SOL    HW191967  13.106  11.032  13.231
30045SOL    HW291968  13.244  10.983  13.190
30046SOL     OW91969  12.219  11.235  13.339
30046SOL    HW191970  12.129  11.217  13.312
30046SOL    HW291971  12.263  11.263  13.259
30047SOL     OW91972   3.437   8.549   1.555
30047SOL    HW191973   3.356   8.536   1.505
30047SOL    HW291974   3.445   8.644   1.562
30048SOL     OW91975   1.522  14.619  14.304
30048SOL    HW191976   1.597  14.585  14.352
30048SOL    HW291977   1.508  14.556  14.234
30049SOL     OW91978  13.444   3.721   4.402
30049SOL    HW191979  13.459   3.815   4.396
30049SOL    HW291980  13.445   3.702   4.496
30050SOL     OW91981  10.451  14.564   1.537
30050SOL    HW191982  10.384  14.615   1.582
30050SOL    HW291983  10.438  14.475   1.568
30051SOL     OW91984   6.905   3.980  12.599
30051SOL    HW191985   6.883   3.974  12.692
30051SOL    HW291986   6.985   4.031  12.596
30052SOL     OW91987   9.058   2.167   1.472
30052SOL    HW191988   8.977   2.118   1.462
30052SOL    HW291989   9.041   2.251   1.431
30053SOL     OW91990  13.544  11.170   0.158
30053SOL    HW191991  13.526  11.100   0.220
30053SOL    HW291992  13.479  11.238   0.179
30054SOL     OW91993   4.554  11.610  13.215
30054SOL    HW191994   4.596  11.575  13.137
30054SOL    HW291995   4.539  11.533  13.271
30055SOL     OW91996   9.932  13.769   2.853
30055SOL    HW191997   9.992  13.695   2.844
30055SOL    HW291998   9.988  13.841   2.884
30056SOL     OW91999  13.293   4.471   5.180
30056SOL    HW192000  13.294   4.429   5.094
30056SOL    HW292001  13.385   4.483   5.202
30057SOL     OW92002  13.264   8.936   6.569
30057SOL    HW192003  13.176   8.965   6.594
30057SOL    HW292004  13.300   9.011   6.521
30058SOL     OW92005   4.291   5.569   8.906
30058SOL    HW192006   4.295   5.496   8.844
30058SOL    HW292007   4.276   5.527   8.991
30059SOL     OW92008   7.623   4.064   2.529
30059SOL    HW192009   7.558   4.057   2.599
30059SOL    HW292010   7.575   4.036   2.450
30060SOL     OW92011   2.905  12.624  10.926
30060SOL    HW192012   3.000  12.641  10.921
30060SOL    HW292013   2.898  12.530  10.944
30061SOL     OW92014   9.680  11.254   1.041
30061SOL    HW192015   9.775  11.250   1.044
30061SOL    HW292016   9.652  11.236   1.131
30062SOL     OW92017   7.697   7.844   4.526
30062SOL    HW192018   7.605   7.850   4.502
30062SOL    HW292019   7.700   7.777   4.595
30063SOL     OW92020   6.002   1.600   2.505
30063SOL    HW192021   5.986   1.601   2.599
30063SOL    HW292022   5.975   1.686   2.475
30064SOL     OW92023  11.047   9.657  11.823
30064SOL    HW192024  11.120   9.708  11.786
30064SOL    HW292025  10.994   9.722  11.869
30065SOL     OW92026   4.774   7.550   9.314
30065SOL    HW192027   4.684   7.517   9.311
30065SOL    HW292028   4.828   7.471   9.306
30066SOL     OW92029   5.824  12.217   1.613
30066SOL    HW192030   5.899  12.260   1.655
30066SOL    HW292031   5.795  12.153   1.678
30067SOL     OW92032   3.104   6.168   6.708
30067SOL    HW192033   3.065   6.249   6.739
30067SOL    HW292034   3.176   6.196   6.652
30068SOL     OW92035  12.091   9.694  13.519
30068SOL    HW192036  12.025   9.763  13.532
30068SOL    HW292037  12.107   9.695  13.425
30069SOL     OW92038   7.299  13.952   3.816
30069SOL    HW192039   7.241  14.024   3.839
30069SOL    HW292040   7.366  13.992   3.761
30070SOL     OW92041   1.182  10.687   7.664
30070SOL    HW192042   1.237  10.666   7.740
30070SOL    HW292043   1.219  10.767   7.629
30071SOL     OW92044  12.444   5.478   4.050
30071SOL    HW192045  12.367   5.505   4.101
30071SOL    HW292046  12.514   5.537   4.080
30072SOL     OW92047  10.278   9.918  12.896
30072SOL    HW192048  10.325   9.860  12.836
30072SOL    HW292049  10.197   9.938  12.850
30073SOL     OW92050  12.859   1.425   6.380
30073SOL    HW192051  12.906   1.361   6.327
30073SOL    HW292052  12.927   1.473   6.427
30074SOL     OW92053   2.669   6.997   4.617
30074SOL    HW192054   2.679   7.012   4.711
30074SOL    HW292055   2.621   6.915   4.611
30075SOL     OW92056   7.424   4.960   4.932
30075SOL    HW192057   7.450   5.020   4.862
30075SOL    HW292058   7.339   4.994   4.962
30076SOL     OW92059  14.707   7.291   0.332
30076SOL    HW192060  14.612   7.295   0.334
30076SOL    HW292061  14.735   7.353   0.400
30077SOL     OW92062  13.422   0.102   6.469
30077SOL    HW192063  13.415   0.197   6.461
30077SOL    HW292064  13.515   0.084   6.462
30078SOL     OW92065   6.446  14.128   2.458
30078SOL    HW192066   6.359  14.091   2.472
30078SOL    HW292067   6.460  14.185   2.533
30079SOL     OW92068  10.548   9.659   0.491
30079SOL    HW192069  10.495   9.636   0.567
30079SOL    HW292070  10.526   9.751   0.474
30080SOL     OW92071   5.485  12.013   0.636
30080SOL    HW192072   5.522  11.925   0.631
30080SOL    HW292073   5.395  12.004   0.606
30081SOL     OW92074  13.834  12.362  12.402
30081SOL    HW192075  13.770  12.430  12.424
30081SOL    HW292076  13.783  12.296  12.355
30082SOL     OW92077   6.951   4.877  10.094
30082SOL    HW192078   6.866   4.904  10.060
30082SOL    HW292079   7.012   4.942  10.059
30083SOL     OW92080  11.485  11.466   0.719
30083SOL    HW192081  11.516  11.411   0.646
30083SOL    HW292082  11.402  11.501   0.689
30084SOL     OW92083  12.391  14.694   8.135
30084SOL    HW192084  12.342  14.621   8.173
30084SOL    HW292085  12.482  14.664   8.135
30085SOL     OW92086  12.295   4.149   4.466
30085SOL    HW192087  12.338   4.182   4.387
30085SOL    HW292088  12.278   4.228   4.519
30086SOL     OW92089  12.223   5.041  12.918
30086SOL    HW192090  12.280   5.062  12.843
30086SOL    HW292091  12.274   4.981  12.972
30087SOL     OW92092  14.238  11.024  12.575
30087SOL    HW192093  14.170  11.086  12.601
30087SOL    HW292094  14.225  11.011  12.481
30088SOL     OW92095  10.862  14.192   4.185
30088SOL    HW192096  10.803  14.228   4.252
30088SOL    HW292097  10.817  14.209   4.102
30089SOL     OW92098  13.980  12.599   4.917
30089SOL    HW192099  13.965  12.692   4.902
30089SOL    HW292100  13.981  12.590   5.012
30090SOL     OW92101   5.197   7.973   6.361
30090SOL    HW192102   5.135   7.901   6.372
30090SOL    HW292103   5.278   7.931   6.331
30091SOL     OW92104   6.291  10.432   2.892
30091SOL    HW192105   6.335  10.513   2.918
30091SOL    HW292106   6.340  10.363   2.937
30092SOL     OW92107   9.728   1.088   1.330
30092SOL    HW192108   9.726   1.048   1.243
30092SOL    HW292109   9.657   1.046   1.378
30093SOL     OW92110   6.764   8.624   3.534
30093SOL    HW192111   6.684   8.571   3.535
30093SOL    HW292112   6.805   8.607   3.619
30094SOL     OW92113   2.868   2.837   6.554
30094SOL    HW192114   2.835   2.889   6.480
30094SOL    HW292115   2.960   2.862   6.561
30095SOL     OW92116   3.106  10.003   8.663
30095SOL    HW192117   3.146  10.055   8.733
30095SOL    HW292118   3.155   9.920   8.664
30096SOL     OW92119   6.265   3.923   5.945
30096SOL    HW192120   6.179   3.924   5.903
30096SOL    HW292121   6.272   3.835   5.981
30097SOL     OW92122  12.205  10.883  14.668
30097SOL    HW192123  12.274  10.845  14.613
30097SOL    HW292124  12.155  10.807  14.699
30098SOL     OW92125  14.868   7.624   8.152
30098SOL    HW192126  14.839   7.701   8.103
30098SOL    HW292127   0.087   7.625   8.144
30099SOL     OW92128   7.297   1.511   3.574
30099SOL    HW192129   7.226   1.534   3.634
30099SOL    HW292130   7.364   1.578   3.588
30100SOL     OW92131   8.547   9.323   2.395
30100SOL    HW192132   8.499   9.299   2.316
30100SOL    HW292133   8.508   9.405   2.424
30101SOL     OW92134  13.598  12.973   9.508
30101SOL    HW192135  13.527  13.011   9.560
30101SOL    HW292136  13.575  12.881   9.499
30102SOL     OW92137  13.139  14.873   4.313
30102SOL    HW192138  13.054  14.850   4.350
30102SOL    HW292139  13.117   0.042   4.231
30103SOL     OW92140  11.674   5.707   7.825
30103SOL    HW192141  11.611   5.647   7.785
30103SOL    HW292142  11.759   5.665   7.812
30104SOL     OW92143   9.161   1.438  12.109
30104SOL    HW192144   9.175   1.345  12.125
30104SOL    HW292145   9.167   1.447  12.013
30105SOL     OW92146  13.425  11.633   9.578
30105SOL    HW192147  13.451  11.542   9.565
30105SOL    HW292148  13.331  11.629   9.592
30106SOL     OW92149   3.100  11.388   5.581
30106SOL    HW192150   3.192  11.402   5.558
30106SOL    HW292151   3.069  11.474   5.609
30107SOL     OW92152   3.678  11.686   6.337
30107SOL    HW192153   3.588  11.670   6.367
30107SOL    HW292154   3.730  11.689   6.417
30108SOL     OW92155   9.162  14.574  10.344
30108SOL    HW192156   9.111  14.654  10.336
30108SOL    HW292157   9.210  14.584  10.426
30109SOL     OW92158  13.688   1.545   0.482
30109SOL    HW192159  13.646   1.474   0.531
30109SOL    HW292160  13.779   1.516   0.471
30110SOL     OW92161  13.248   8.880   8.292
30110SOL    HW192162  13.277   8.797   8.255
30110SOL    HW292163  13.282   8.947   8.233
30111SOL     OW92164   1.104   4.373  12.877
30111SOL    HW192165   1.015   4.358  12.908
30111SOL    HW292166   1.094   4.428  12.800
30112SOL     OW92167   3.175   0.390   8.785
30112SOL    HW192168   3.105   0.408   8.723
30112SOL    HW292169   3.133   0.344   8.857
30113SOL     OW92170  12.119   7.242   5.210
30113SOL    HW192171  12.066   7.303   5.262
30113SOL    HW292172  12.122   7.162   5.262
30114SOL     OW92173   0.660   8.027   0.853
30114SOL    HW192174   0.648   7.958   0.789
30114SOL    HW292175   0.685   7.981   0.934
30115SOL     OW92176   7.579   2.375   1.838
30115SOL    HW192177   7.626   2.412   1.763
30115SOL    HW292178   7.489   2.406   1.827
30116SOL     OW92179   9.993   6.162   7.668
30116SOL    HW192180  10.016   6.092   7.729
30116SOL    HW292181  10.063   6.227   7.679
30117SOL     OW92182  14.766   4.471   1.043
30117SOL    HW192183  14.737   4.536   0.978
30117SOL    HW292184  14.686   4.442   1.085
30118SOL     OW92185   9.611  14.856  14.254
30118SOL    HW192186   9.680   0.003  14.191
30118SOL    HW292187   9.558  14.790  14.208
30119SOL     OW92188   9.640   7.672  13.578
30119SOL    HW192189   9.561   7.723  13.596
30119SOL    HW292190   9.703   7.703  13.643
30120SOL     OW92191   4.970   9.220   9.225
30120SOL    HW192192   5.010   9.134   9.235
30120SOL    HW292193   5.024   9.264   9.160
30121SOL     OW92194   6.779  11.551  14.367
30121SOL    HW192195   6.869  11.536  14.337
30121SOL    HW292196   6.725  11.530  14.291
30122SOL     OW92197   8.288   3.851  11.091
30122SOL    HW192198   8.284   3.755  11.083
30122SOL    HW292199   8.359   3.867  11.153
30123SOL     OW92200   5.218   9.582   3.346
30123SOL    HW192201   5.256   9.608   3.430
30123SOL    HW292202   5.154   9.514   3.369
30124SOL     OW92203   9.483  14.638   0.638
30124SOL    HW192204   9.563  14.675   0.674
30124SOL    HW292205   9.454  14.576   0.704
30125SOL     OW92206   2.616   5.179   2.029
30125SOL    HW192207   2.689   5.184   2.091
30125SOL    HW292208   2.550   5.237   2.065
30126SOL     OW92209  13.187   3.994   8.325
30126SOL    HW192210  13.246   3.918   8.327
30126SOL    HW292211  13.242   4.065   8.293
30127SOL     OW92212  12.527  12.508  12.063
30127SOL    HW192213  12.532  12.482  12.155
30127SOL    HW292214  12.442  12.552  12.055
30128SOL     OW92215   2.272   0.266   0.443
30128SOL    HW192216   2.355   0.298   0.477
30128SOL    HW292217   2.256   0.319   0.365
30129SOL     OW92218   7.263   0.863  12.521
30129SOL    HW192219   7.285   0.779  12.482
30129SOL    HW292220   7.209   0.841  12.597
30130SOL     OW92221   4.397   2.754   5.576
30130SOL    HW192222   4.400   2.845   5.605
30130SOL    HW292223   4.304   2.736   5.563
30131SOL     OW92224  14.449   8.797   6.055
30131SOL    HW192225  14.399   8.776   6.134
30131SOL    HW292226  14.538   8.812   6.087
30132SOL     OW92227   0.812  11.337   5.902
30132SOL    HW192228   0.790  11.278   5.974
30132SOL    HW292229   0.728  11.358   5.861
30133SOL     OW92230   0.474   7.975   0.451
30133SOL    HW192231   0.493   7.920   0.527
30133SOL    HW292232   0.380   7.994   0.458
30134SOL     OW92233  14.149   0.346   0.478
30134SOL    HW192234  14.236   0.316   0.507
30134SOL    HW292235  14.165   0.388   0.394
30135SOL     OW92236  11.053   7.213   6.998
30135SOL    HW192237  10.983   7.244   7.056
30135SOL    HW292238  11.109   7.160   7.054
30136SOL     OW92239  14.432   2.888   6.271
30136SOL    HW192240  14.435   2.811   6.215
30136SOL    HW292241  14.516   2.887   6.317
30137SOL     OW92242  10.886   6.366  14.762
30137SOL    HW192243  10.817   6.380  14.696
30137SOL    HW292244  10.876   6.439  14.823
30138SOL     OW92245  13.277  14.765   1.490
30138SOL    HW192246  13.238  14.741   1.574
30138SOL    HW292247  13.304  14.682   1.451
30139SOL     OW92248   2.530   7.847  13.438
30139SOL    HW192249   2.552   7.840  13.531
30139SOL    HW292250   2.477   7.770  13.420
30140SOL     OW92251  14.832   2.198   2.046
30140SOL    HW192252  14.773   2.177   1.973
30140SOL    HW292253  14.777   2.248   2.107
30141SOL     OW92254   3.604  13.263   8.616
30141SOL    HW192255   3.631  13.223   8.699
30141SOL    HW292256   3.515  13.292   8.631
30142SOL     OW92257   1.641  13.696   9.368
30142SOL    HW192258   1.707  13.640   9.328
30142SOL    HW292259   1.632  13.770   9.307
30143SOL     OW92260  12.182   9.736   7.924
30143SOL    HW192261  12.247   9.802   7.945
30143SOL    HW292262  12.130   9.775   7.853
30144SOL     OW92263  13.917  11.529   6.531
30144SOL    HW192264  13.922  11.464   6.601
30144SOL    HW292265  13.918  11.477   6.450
30145SOL     OW92266   5.893   4.316  11.518
30145SOL    HW192267   5.821   4.257  11.539
30145SOL    HW292268   5.972   4.267  11.542
30146SOL     OW92269  12.108  14.478   3.473
30146SOL    HW192270  12.127  14.384   3.467
30146SOL    HW292271  12.056  14.497   3.395
30147SOL     OW92272  10.593   7.448  10.981
30147SOL    HW192273  10.628   7.462  11.069
30147SOL    HW292274  10.535   7.522  10.966
30148SOL     OW92275   7.801  12.655   4.338
30148SOL    HW192276   7.737  12.616   4.397
30148SOL    HW292277   7.747  12.697   4.271
30149SOL     OW92278  11.706  14.786  11.248
30149SOL    HW192279  11.673  14.765  11.336
30149SOL    HW292280  11.629  14.817  11.201
30150SOL     OW92281   0.402   7.311  11.534
30150SOL    HW192282   0.426   7.235  11.588
30150SOL    HW292283   0.310   7.326  11.554
30151SOL     OW92284   5.190   3.521   7.753
30151SOL    HW192285   5.244   3.492   7.826
30151SOL    HW292286   5.186   3.445   7.695
30152SOL     OW92287   9.383   3.176  12.109
30152SOL    HW192288   9.310   3.119  12.134
30152SOL    HW292289   9.375   3.185  12.014
30153SOL     OW92290   6.048   5.387  10.050
30153SOL    HW192291   6.122   5.371   9.992
30153SOL    HW292292   6.016   5.474  10.025
30154SOL     OW92293   9.168  11.859   6.962
30154SOL    HW192294   9.147  11.921   7.033
30154SOL    HW292295   9.122  11.779   6.987
30155SOL     OW92296   1.404  11.685   9.058
30155SOL    HW192297   1.426  11.776   9.041
30155SOL    HW292298   1.319  11.688   9.101
30156SOL     OW92299  14.210   6.079   2.954
30156SOL    HW192300  14.229   6.067   3.047
30156SOL    HW292301  14.197   5.991   2.920
30157SOL     OW92302   5.050   9.770   6.280
30157SOL    HW192303   5.019   9.861   6.285
30157SOL    HW292304   5.141   9.774   6.310
30158SOL     OW92305   9.411   6.953  13.187
30158SOL    HW192306   9.334   6.944  13.131
30158SOL    HW292307   9.378   6.935  13.275
30159SOL     OW92308   3.081   5.038   2.845
30159SOL    HW192309   2.994   5.011   2.814
30159SOL    HW292310   3.085   5.132   2.828
30160SOL     OW92311  14.443   4.247  12.611
30160SOL    HW192312  14.475   4.159  12.627
30160SOL    HW292313  14.413   4.278  12.697
30161SOL     OW92314   7.987  13.000   1.022
30161SOL    HW192315   7.950  13.084   0.994
30161SOL    HW292316   8.081  13.015   1.027
30162SOL     OW92317  11.182  11.882  10.694
30162SOL    HW192318  11.227  11.910  10.773
30162SOL    HW292319  11.243  11.822  10.651
30163SOL     OW92320   4.225   7.153   6.439
30163SOL    HW192321   4.206   7.090   6.508
30163SOL    HW292322   4.308   7.193   6.464
30164SOL     OW92323   0.758   4.757  13.811
30164SOL    HW192324   0.852   4.747  13.827
30164SOL    HW292325   0.724   4.667  13.804
30165SOL     OW92326  10.169  10.737   5.885
30165SOL    HW192327  10.261  10.730   5.908
30165SOL    HW292328  10.165  10.714   5.792
30166SOL     OW92329   6.289  11.684   8.090
30166SOL    HW192330   6.340  11.746   8.037
30166SOL    HW292331   6.220  11.653   8.031
30167SOL     OW92332  11.627  11.528   5.258
30167SOL    HW192333  11.578  11.610   5.251
30167SOL    HW292334  11.585  11.480   5.329
30168SOL     OW92335   8.236  13.613   0.184
30168SOL    HW192336   8.258  13.697   0.223
30168SOL    HW292337   8.246  13.627   0.090
30169SOL     OW92338   5.896  13.331   0.911
30169SOL    HW192339   5.848  13.310   0.991
30169SOL    HW292340   5.837  13.389   0.862
30170SOL     OW92341   0.787   4.166   7.075
30170SOL    HW192342   0.725   4.185   7.145
30170SOL    HW292343   0.829   4.250   7.055
30171SOL     OW92344  14.350  13.301   9.469
30171SOL    HW192345  14.316  13.233   9.411
30171SOL    HW292346  14.318  13.277   9.556
30172SOL     OW92347   1.691  11.151   4.524
30172SOL    HW192348   1.603  11.173   4.555
30172SOL    HW292349   1.735  11.114   4.600
30173SOL     OW92350   9.953   2.600   2.895
30173SOL    HW192351  10.011   2.568   2.965
30173SOL    HW292352   9.893   2.528   2.878
30174SOL     OW92353   5.399  11.111  12.883
30174SOL    HW192354   5.402  11.207  12.877
30174SOL    HW292355   5.365  11.083  12.798
30175SOL     OW92356   1.422   3.163   5.199
30175SOL    HW192357   1.388   3.200   5.280
30175SOL    HW292358   1.444   3.073   5.220
30176SOL     OW92359  12.216   4.431   8.274
30176SOL    HW192360  12.160   4.386   8.211
30176SOL    HW292361  12.183   4.521   8.277
30177SOL     OW92362   6.573   7.634  14.709
30177SOL    HW192363   6.611   7.720  14.692
30177SOL    HW292364   6.610   7.578  14.641
30178SOL     OW92365   2.166  11.136   3.965
30178SOL    HW192366   2.256  11.116   3.941
30178SOL    HW292367   2.170  11.224   4.003
30179SOL     OW92368  11.898  12.414   8.607
30179SOL    HW192369  11.883  12.337   8.552
30179SOL    HW292370  11.903  12.487   8.545
30180SOL     OW92371   1.277  12.076   0.255
30180SOL    HW192372   1.241  12.061   0.167
30180SOL    HW292373   1.341  12.005   0.267
30181SOL     OW92374   5.810   6.400   2.673
30181SOL    HW192375   5.824   6.367   2.584
30181SOL    HW292376   5.743   6.468   2.663
30182SOL     OW92377   0.086   1.493  11.158
30182SOL    HW192378   0.154   1.551  11.123
30182SOL    HW292379   0.010   1.549  11.169
30183SOL     OW92380  14.254   1.868  12.779
30183SOL    HW192381  14.222   1.884  12.690
30183SOL    HW292382  14.244   1.953  12.823
30184SOL     OW92383   6.582   0.191   9.590
30184SOL    HW192384   6.661   0.221   9.635
30184SOL    HW292385   6.512   0.202   9.654
30185SOL     OW92386  14.544  14.231   5.975
30185SOL    HW192387  14.629  14.254   6.012
30185SOL    HW292388  14.523  14.145   6.013
30186SOL     OW92389  13.435   6.839   9.195
30186SOL    HW192390  13.392   6.756   9.216
30186SOL    HW292391  13.481   6.822   9.113
30187SOL     OW92392   9.648   0.558  10.298
30187SOL    HW192393   9.558   0.565  10.330
30187SOL    HW292394   9.700   0.609  10.360
30188SOL     OW92395   8.483   3.396   7.545
30188SOL    HW192396   8.396   3.410   7.508
30188SOL    HW292397   8.540   3.391   7.468
30189SOL     OW92398  12.108  10.730   8.308
30189SOL    HW192399  12.156  10.785   8.369
30189SOL    HW292400  12.029  10.704   8.355
30190SOL     OW92401   3.208   0.100   6.278
30190SOL    HW192402   3.158   0.019   6.285
30190SOL    HW292403   3.222   0.127   6.368
30191SOL     OW92404   2.315  14.585   4.847
30191SOL    HW192405   2.286  14.495   4.860
30191SOL    HW292406   2.407  14.576   4.821
30192SOL     OW92407   2.739  11.843   9.252
30192SOL    HW192408   2.738  11.901   9.329
30192SOL    HW292409   2.823  11.798   9.259
30193SOL     OW92410   0.922   6.416   9.898
30193SOL    HW192411   0.845   6.412   9.841
30193SOL    HW292412   0.910   6.497   9.948
30194SOL     OW92413   7.277  14.852   9.475
30194SOL    HW192414   7.224   0.047   9.436
30194SOL    HW292415   7.361  14.858   9.430
30195SOL     OW92416   1.651   1.636  11.369
30195SOL    HW192417   1.589   1.597  11.306
30195SOL    HW292418   1.606   1.715  11.400
30196SOL     OW92419   3.710   6.635   7.721
30196SOL    HW192420   3.786   6.582   7.698
30196SOL    HW292421   3.729   6.666   7.810
30197SOL     OW92422   8.409   8.868   8.182
30197SOL    HW192423   8.449   8.951   8.209
30197SOL    HW292424   8.475   8.802   8.205
30198SOL     OW92425  10.605   2.390   2.995
30198SOL    HW192426  10.680   2.338   3.025
30198SOL    HW292427  10.638   2.480   2.991
30199SOL     OW92428   9.289  13.574   2.590
30199SOL    HW192429   9.305  13.616   2.506
30199SOL    HW292430   9.289  13.646   2.653
30200SOL     OW92431   6.974   6.461   3.199
30200SOL    HW192432   6.910   6.532   3.211
30200SOL    HW292433   6.948   6.394   3.261
30201SOL     OW92434   6.509   3.194   2.371
30201SOL    HW192435   6.521   3.192   2.466
30201SOL    HW292436   6.470   3.280   2.354
30202SOL     OW92437  11.410  13.308   2.258
30202SOL    HW192438  11.484  13.265   2.301
30202SOL    HW292439  11.448  13.351   2.182
30203SOL     OW92440   8.337  14.394   4.376
30203SOL    HW192441   8.389  14.474   4.378
30203SOL    HW292442   8.280  14.404   4.300
30204SOL     OW92443   6.494   8.131   3.509
30204SOL    HW192444   6.444   8.055   3.539
30204SOL    HW292445   6.498   8.188   3.586
30205SOL     OW92446   2.968   4.842  12.014
30205SOL    HW192447   2.971   4.936  12.034
30205SOL    HW292448   2.875   4.822  12.006
30206SOL     OW92449   3.645  13.915  12.774
30206SOL    HW192450   3.601  13.928  12.858
30206SOL    HW292451   3.618  13.989  12.720
30207SOL     OW92452  10.675   3.288   5.856
30207SOL    HW192453  10.590   3.331   5.843
30207SOL    HW292454  10.667   3.247   5.942
30208SOL     OW92455   5.229  10.097   5.964
30208SOL    HW192456   5.184  10.139   6.036
30208SOL    HW292457   5.204  10.005   5.970
30209SOL     OW92458   9.240  10.963   3.061
30209SOL    HW192459   9.244  11.054   3.092
30209SOL    HW292460   9.227  10.912   3.141
30210SOL     OW92461  14.034   0.107   4.906
30210SOL    HW192462  14.064   0.091   4.995
30210SOL    HW292463  14.113   0.133   4.858
30211SOL     OW92464   7.794   4.199  11.360
30211SOL    HW192465   7.881   4.190  11.321
30211SOL    HW292466   7.773   4.111  11.390
30212SOL     OW92467   8.206   5.165   8.669
30212SOL    HW192468   8.257   5.189   8.592
30212SOL    HW292469   8.225   5.234   8.733
30213SOL     OW92470   4.067   4.597   9.615
30213SOL    HW192471   4.051   4.625   9.705
30213SOL    HW292472   4.072   4.502   9.620
30214SOL     OW92473  11.302   4.387  14.134
30214SOL    HW192474  11.230   4.327  14.152
30214SOL    HW292475  11.297   4.403  14.040
30215SOL     OW92476  11.206   3.675   4.327
30215SOL    HW192477  11.141   3.630   4.382
30215SOL    HW292478  11.286   3.625   4.339
30216SOL     OW92479   8.788  10.184   3.718
30216SOL    HW192480   8.763  10.269   3.683
30216SOL    HW292481   8.808  10.131   3.640
30217SOL     OW92482   2.284   9.324   4.266
30217SOL    HW192483   2.329   9.331   4.181
30217SOL    HW292484   2.350   9.289   4.325
30218SOL     OW92485  12.358  13.781  10.175
30218SOL    HW192486  12.362  13.723  10.251
30218SOL    HW292487  12.349  13.869  10.211
30219SOL     OW92488   1.166  12.743  11.798
30219SOL    HW192489   1.216  12.824  11.792
30219SOL    HW292490   1.206  12.686  11.732
30220SOL     OW92491  12.028   6.302   2.852
30220SOL    HW192492  12.104   6.329   2.903
30220SOL    HW292493  11.960   6.287   2.918
30221SOL     OW92494   7.770   2.890  14.431
30221SOL    HW192495   7.796   2.801  14.454
30221SOL    HW292496   7.818   2.910  14.351
30222SOL     OW92497   1.874   9.449  13.547
30222SOL    HW192498   1.950   9.496  13.581
30222SOL    HW292499   1.902   9.358  13.539
30223SOL     OW92500   8.669   3.363  10.051
30223SOL    HW192501   8.597   3.391  10.107
30223SOL    HW292502   8.745   3.411  10.083
30224SOL     OW92503  12.607   0.906   8.677
30224SOL    HW192504  12.697   0.899   8.708
30224SOL    HW292505  12.571   0.982   8.722
30225SOL     OW92506  13.683   5.856   1.542
30225SOL    HW192507  13.744   5.928   1.556
30225SOL    HW292508  13.670   5.819   1.630
30226SOL     OW92509   4.851  13.231   4.846
30226SOL    HW192510   4.840  13.233   4.751
30226SOL    HW292511   4.894  13.148   4.864
30227SOL     OW92512  12.168   6.188  12.682
30227SOL    HW192513  12.202   6.181  12.771
30227SOL    HW292514  12.188   6.103  12.642
30228SOL     OW92515  14.846   7.340   2.610
30228SOL    HW192516  14.832   7.249   2.585
30228SOL    HW292517   0.064   7.346   2.626
30229SOL     OW92518   3.893  14.318   0.836
30229SOL    HW192519   3.858  14.265   0.764
30229SOL    HW292520   3.870  14.408   0.813
30230SOL     OW92521  11.196   2.045   6.213
30230SOL    HW192522  11.122   2.089   6.256
30230SOL    HW292523  11.273   2.080   6.259
30231SOL     OW92524   0.832   9.022  12.194
30231SOL    HW192525   0.860   8.930  12.193
30231SOL    HW292526   0.828   9.047  12.102
30232SOL     OW92527  14.027  12.609   6.686
30232SOL    HW192528  14.089  12.544   6.652
30232SOL    HW292529  13.951  12.601   6.629
30233SOL     OW92530   9.674   3.189  14.572
30233SOL    HW192531   9.704   3.133  14.644
30233SOL    HW292532   9.747   3.189  14.510
30234SOL     OW92533  14.649   7.139   6.726
30234SOL    HW192534  14.612   7.186   6.801
30234SOL    HW292535  14.588   7.156   6.654
30235SOL     OW92536   5.558   5.589  14.674
30235SOL    HW192537   5.548   5.513  14.616
30235SOL    HW292538   5.478   5.640  14.661
30236SOL     OW92539   0.874   5.743  14.571
30236SOL    HW192540   0.845   5.780  14.488
30236SOL    HW292541   0.956   5.699  14.551
30237SOL     OW92542  10.914   0.220  10.128
30237SOL    HW192543  10.846   0.153  10.116
30237SOL    HW292544  10.874   0.285  10.186
30238SOL     OW92545   1.253   5.315   7.650
30238SOL    HW192546   1.329   5.324   7.709
30238SOL    HW292547   1.183   5.362   7.695
30239SOL     OW92548   9.011   6.547  12.510
30239SOL    HW192549   8.954   6.539  12.434
30239SOL    HW292550   9.095   6.576  12.475
30240SOL     OW92551   0.957  12.441  13.735
30240SOL    HW192552   0.933  12.507  13.799
30240SOL    HW292553   1.015  12.486  13.674
30241SOL     OW92554  10.443   4.770  13.738
30241SOL    HW192555  10.452   4.699  13.674
30241SOL    HW292556  10.479   4.733  13.819
30242SOL     OW92557  13.161  13.726   4.741
30242SOL    HW192558  13.073  13.737   4.707
30242SOL    HW292559  13.179  13.633   4.735
30243SOL     OW92560   7.133  11.888  12.598
30243SOL    HW192561   7.085  11.806  12.603
30243SOL    HW292562   7.107  11.925  12.513
30244SOL     OW92563   5.339   1.096   1.185
30244SOL    HW192564   5.380   1.123   1.103
30244SOL    HW292565   5.412   1.090   1.247
30245SOL     OW92566   0.773   2.808  12.320
30245SOL    HW192567   0.798   2.832  12.231
30245SOL    HW292568   0.751   2.891  12.362
30246SOL     OW92569   7.755   3.903   0.479
30246SOL    HW192570   7.823   3.900   0.546
30246SOL    HW292571   7.695   3.832   0.503
30247SOL     OW92572   9.854   9.364   5.412
30247SOL    HW192573   9.839   9.448   5.455
30247SOL    HW292574   9.938   9.334   5.447
30248SOL     OW92575   9.606   8.779   3.831
30248SOL    HW192576   9.537   8.835   3.796
30248SOL    HW292577   9.682   8.795   3.774
30249SOL     OW92578   3.207   9.719  13.612
30249SOL    HW192579   3.130   9.712  13.668
30249SOL    HW292580   3.238   9.629  13.601
30250SOL     OW92581  12.431   1.005   3.344
30250SOL    HW192582  12.355   1.013   3.286
30250SOL    HW292583  12.503   0.979   3.287
30251SOL     OW92584   9.375   3.579  14.867
30251SOL    HW192585   9.326   3.496  14.869
30251SOL    HW292586   9.444   3.564  14.802
30252SOL     OW92587   0.544   4.748  11.620
30252SOL    HW192588   0.602   4.794  11.560
30252SOL    HW292589   0.603   4.696  11.675
30253SOL     OW92590  12.008   5.489   5.475
30253SOL    HW192591  11.912   5.482   5.474
30253SOL    HW292592  12.031   5.498   5.567
30254SOL     OW92593  13.990   7.757  14.368
30254SOL    HW192594  14.039   7.679  14.344
30254SOL    HW292595  13.903   7.743  14.330
30255SOL     OW92596   7.554   2.528   3.050
30255SOL    HW192597   7.557   2.537   3.145
30255SOL    HW292598   7.465   2.501   3.031
30256SOL     OW92599   0.511   6.041   6.239
30256SOL    HW192600   0.588   6.029   6.183
30256SOL    HW292601   0.443   6.073   6.179
30257SOL     OW92602   4.552   4.988  10.405
30257SOL    HW192603   4.503   5.070  10.401
30257SOL    HW292604   4.503   4.929  10.348
30258SOL     OW92605   2.163   1.346  14.276
30258SOL    HW192606   2.135   1.383  14.192
30258SOL    HW292607   2.127   1.257  14.277
30259SOL     OW92608   9.745   4.998   5.878
30259SOL    HW192609   9.680   4.937   5.843
30259SOL    HW292610   9.825   4.946   5.884
30260SOL     OW92611   6.028  10.914  14.105
30260SOL    HW192612   6.070  10.828  14.107
30260SOL    HW292613   6.091  10.973  14.146
30261SOL     OW92614   6.126  12.470  10.937
30261SOL    HW192615   6.064  12.419  10.885
30261SOL    HW292616   6.211  12.429  10.919
30262SOL     OW92617   2.548   3.328   4.425
30262SOL    HW192618   2.498   3.405   4.450
30262SOL    HW292619   2.508   3.299   4.343
30263SOL     OW92620   7.058  14.670   8.644
30263SOL    HW192621   7.106  14.752   8.635
30263SOL    HW292622   6.981  14.692   8.696
30264SOL     OW92623   0.043  14.680   9.983
30264SOL    HW192624   0.038  14.621  10.058
30264SOL    HW292625   0.032  14.767  10.020
30265SOL     OW92626   9.475   8.772   5.160
30265SOL    HW192627   9.567   8.752   5.148
30265SOL    HW292628   9.469   8.867   5.146
30266SOL     OW92629  13.560   7.487  11.067
30266SOL    HW192630  13.648   7.480  11.029
30266SOL    HW292631  13.519   7.403  11.048
30267SOL     OW92632  11.772   6.100   5.032
30267SOL    HW192633  11.745   6.044   4.959
30267SOL    HW292634  11.692   6.111   5.084
30268SOL     OW92635   8.600   4.294   5.840
30268SOL    HW192636   8.678   4.343   5.813
30268SOL    HW292637   8.613   4.206   5.803
30269SOL     OW92638   7.306   3.238   6.714
30269SOL    HW192639   7.363   3.221   6.639
30269SOL    HW292640   7.365   3.269   6.783
30270SOL     OW92641  14.843  11.110  13.401
30270SOL    HW192642  14.824  11.017  13.385
30270SOL    HW292643  14.770  11.157  13.361
30271SOL     OW92644  11.197  12.981   1.621
30271SOL    HW192645  11.237  12.941   1.698
30271SOL    HW292646  11.255  12.956   1.549
30272SOL     OW92647  14.158  10.706  10.477
30272SOL    HW192648  14.085  10.647  10.494
30272SOL    HW292649  14.193  10.726  10.564
30273SOL     OW92650  11.305   4.703   7.167
30273SOL    HW192651  11.315   4.672   7.257
30273SOL    HW292652  11.391   4.737   7.144
30274SOL     OW92653   6.315   5.595   0.848
30274SOL    HW192654   6.252   5.667   0.849
30274SOL    HW292655   6.265   5.519   0.819
30275SOL     OW92656  13.275   7.087   9.837
30275SOL    HW192657  13.304   7.157   9.778
30275SOL    HW292658  13.187   7.113   9.864
30276SOL     OW92659  13.804   3.312  14.143
30276SOL    HW192660  13.781   3.268  14.061
30276SOL    HW292661  13.879   3.367  14.120
30277SOL     OW92662   9.259   9.336   6.449
30277SOL    HW192663   9.166   9.348   6.465
30277SOL    HW292664   9.300   9.414   6.485
30278SOL     OW92665  12.531   0.436   0.350
30278SOL    HW192666  12.584   0.377   0.296
30278SOL    HW292667  12.595   0.488   0.398
30279SOL     OW92668   4.634   2.593   8.948
30279SOL    HW192669   4.598   2.586   8.859
30279SOL    HW292670   4.637   2.688   8.965
30280SOL     OW92671   3.888   1.271  12.253
30280SOL    HW192672   3.917   1.184  12.279
30280SOL    HW292673   3.891   1.322  12.334
30281SOL     OW92674   9.545  13.828   5.380
30281SOL    HW192675   9.462  13.867   5.409
30281SOL    HW292676   9.520  13.743   5.343
30282SOL     OW92677  10.618  10.499   1.214
30282SOL    HW192678  10.646  10.521   1.125
30282SOL    HW292679  10.667  10.420   1.235
30283SOL     OW92680  11.120   5.759  13.826
30283SOL    HW192681  11.180   5.685  13.837
30283SOL    HW292682  11.034   5.718  13.816
30284SOL     OW92683  13.928   6.653   4.497
30284SOL    HW192684  13.884   6.727   4.540
30284SOL    HW292685  14.005   6.635   4.552
30285SOL     OW92686  12.991   8.764  10.493
30285SOL    HW192687  12.935   8.782  10.569
30285SOL    HW292688  13.063   8.827  10.501
30286SOL     OW92689  11.018   9.058   2.439
30286SOL    HW192690  10.953   9.086   2.375
30286SOL    HW292691  10.973   9.066   2.524
30287SOL     OW92692   6.437  12.378   7.178
30287SOL    HW192693   6.501  12.312   7.204
30287SOL    HW292694   6.355  12.349   7.219
30288SOL     OW92695  14.791  10.258   5.499
30288SOL    HW192696  14.718  10.317   5.515
30288SOL    HW292697  14.798  10.254   5.403
30289SOL     OW92698   6.913   0.733  11.353
30289SOL    HW192699   6.965   0.748  11.274
30289SOL    HW292700   6.938   0.804  11.412
30290SOL     OW92701   9.228  11.232  13.244
30290SOL    HW192702   9.189  11.176  13.176
30290SOL    HW292703   9.165  11.302  13.256
30291SOL     OW92704  13.969  12.223   5.833
30291SOL    HW192705  13.934  12.231   5.922
30291SOL    HW292706  14.060  12.251   5.840
30292SOL     OW92707  11.182   1.920   6.755
30292SOL    HW192708  11.105   1.918   6.812
30292SOL    HW292709  11.148   1.945   6.669
30293SOL     OW92710  12.427   1.000  12.893
30293SOL    HW192711  12.454   0.908  12.898
30293SOL    HW292712  12.349   1.004  12.949
30294SOL     OW92713   2.043   1.052   5.031
30294SOL    HW192714   1.969   1.036   5.089
30294SOL    HW292715   2.070   1.141   5.050
30295SOL     OW92716   2.062  14.340   1.345
30295SOL    HW192717   2.155  14.317   1.350
30295SOL    HW292718   2.056  14.426   1.386
30296SOL     OW92719  12.478  12.619  14.268
30296SOL    HW192720  12.446  12.677  14.199
30296SOL    HW292721  12.552  12.573  14.227
30297SOL     OW92722   6.619   6.528   7.459
30297SOL    HW192723   6.699   6.572   7.488
30297SOL    HW292724   6.577   6.591   7.400
30298SOL     OW92725  13.988  13.074   6.756
30298SOL    HW192726  13.943  13.024   6.824
30298SOL    HW292727  13.923  13.087   6.688
30299SOL     OW92728   6.278   3.843   7.870
30299SOL    HW192729   6.274   3.913   7.936
30299SOL    HW292730   6.372   3.823   7.862
30300SOL     OW92731   3.643   5.344  12.483
30300SOL    HW192732   3.637   5.294  12.402
30300SOL    HW292733   3.735   5.336  12.509
30301SOL     OW92734   5.251  12.285   9.759
30301SOL    HW192735   5.238  12.240   9.676
30301SOL    HW292736   5.233  12.218   9.826
30302SOL     OW92737   9.897   9.296  10.932
30302SOL    HW192738   9.990   9.274  10.929
30302SOL    HW292739   9.884   9.333  11.020
30303SOL     OW92740  11.594  12.723   1.926
30303SOL    HW192741  11.619  12.751   2.014
30303SOL    HW292742  11.668  12.672   1.894
30304SOL     OW92743   9.254   7.683  13.220
30304SOL    HW192744   9.288   7.595  13.203
30304SOL    HW292745   9.330   7.733  13.251
30305SOL     OW92746   1.316   9.200  12.317
30305SOL    HW192747   1.256   9.134  12.352
30305SOL    HW292748   1.366   9.230  12.394
30306SOL     OW92749   7.265   9.897   8.886
30306SOL    HW192750   7.183   9.847   8.880
30306SOL    HW292751   7.331   9.840   8.848
30307SOL     OW92752  13.295   4.645   8.933
30307SOL    HW192753  13.320   4.560   8.969
30307SOL    HW292754  13.200   4.649   8.943
30308SOL     OW92755   5.384  13.341   9.788
30308SOL    HW192756   5.311  13.279   9.787
30308SOL    HW292757   5.445  13.305   9.852
30309SOL     OW92758  13.956  13.790  12.930
30309SOL    HW192759  13.990  13.726  12.992
30309SOL    HW292760  13.863  13.796  12.950
30310SOL     OW92761  10.143   0.217  11.710
30310SOL    HW192762  10.175   0.169  11.786
30310SOL    HW292763  10.220   0.233  11.656
30311SOL     OW92764   6.268   5.883  11.997
30311SOL    HW192765   6.290   5.883  12.090
30311SOL    HW292766   6.181   5.843  11.992
30312SOL     OW92767  12.888   5.142   0.970
30312SOL    HW192768  12.968   5.154   1.022
30312SOL    HW292769  12.838   5.222   0.983
30313SOL     OW92770   4.228  12.708   7.273
30313SOL    HW192771   4.255  12.616   7.272
30313SOL    HW292772   4.188  12.719   7.360
30314SOL     OW92773  11.632  14.397   9.474
30314SOL    HW192774  11.661  14.330   9.413
30314SOL    HW292775  11.614  14.349   9.556
30315SOL     OW92776  11.155   9.741  11.401
30315SOL    HW192777  11.201   9.685  11.338
30315SOL    HW292778  11.186   9.712  11.486
30316SOL     OW92779   3.826   4.866   2.456
30316SOL    HW192780   3.741   4.878   2.414
30316SOL    HW292781   3.806   4.814   2.535
30317SOL     OW92782   5.054   7.205   3.143
30317SOL    HW192783   4.996   7.162   3.206
30317SOL    HW292784   5.131   7.149   3.139
30318SOL     OW92785  14.822  13.143  11.704
30318SOL    HW192786  14.726  13.135  11.704
30318SOL    HW292787  14.846  13.144  11.797
30319SOL     OW92788   1.186   3.579  12.479
30319SOL    HW192789   1.136   3.611  12.404
30319SOL    HW292790   1.247   3.650  12.498
30320SOL     OW92791   9.822  12.450   9.377
30320SOL    HW192792   9.906  12.465   9.335
30320SOL    HW292793   9.764  12.421   9.306
30321SOL     OW92794   9.273   4.672   0.492
30321SOL    HW192795   9.208   4.721   0.441
30321SOL    HW292796   9.284   4.723   0.572
30322SOL     OW92797   1.409   1.928   1.109
30322SOL    HW192798   1.384   1.974   1.189
30322SOL    HW292799   1.375   1.839   1.120
30323SOL     OW92800  10.569   9.389   8.732
30323SOL    HW192801  10.493   9.428   8.775
30323SOL    HW292802  10.644   9.415   8.786
30324SOL     OW92803  12.020  14.188  11.038
30324SOL    HW192804  11.960  14.261  11.027
30324SOL    HW292805  12.001  14.130  10.964
30325SOL     OW92806  14.718   4.180   2.910
30325SOL    HW192807  14.739   4.251   2.971
30325SOL    HW292808  14.796   4.170   2.855
30326SOL     OW92809  13.700  13.160   9.336
30326SOL    HW192810  13.636  13.175   9.266
30326SOL    HW292811  13.661  13.092   9.390
30327SOL     OW92812   9.155   4.587   0.952
30327SOL    HW192813   9.198   4.561   0.870
30327SOL    HW292814   9.076   4.534   0.955
30328SOL     OW92815   0.533   5.764   1.532
30328SOL    HW192816   0.595   5.722   1.592
30328SOL    HW292817   0.554   5.728   1.446
30329SOL     OW92818   0.667  11.922   0.469
30329SOL    HW192819   0.707  11.883   0.547
30329SOL    HW292820   0.728  11.899   0.398
30330SOL     OW92821  14.330   5.360  11.944
30330SOL    HW192822  14.249   5.341  11.992
30330SOL    HW292823  14.354   5.277  11.902
30331SOL     OW92824   2.882   8.885  10.779
30331SOL    HW192825   2.950   8.818  10.768
30331SOL    HW292826   2.897   8.947  10.709
30332SOL     OW92827   0.890  14.304   9.899
30332SOL    HW192828   0.818  14.299   9.962
30332SOL    HW292829   0.855  14.262   9.820
30333SOL     OW92830   8.714   2.109   0.245
30333SOL    HW192831   8.659   2.120   0.323
30333SOL    HW292832   8.719   2.197   0.207
30334SOL     OW92833  10.360  13.787  13.122
30334SOL    HW192834  10.278  13.775  13.170
30334SOL    HW292835  10.334  13.799  13.031
30335SOL     OW92836   2.038   4.783   4.961
30335SOL    HW192837   2.081   4.708   5.001
30335SOL    HW292838   2.093   4.858   4.986
30336SOL     OW92839   3.233   2.155  14.160
30336SOL    HW192840   3.169   2.087  14.139
30336SOL    HW292841   3.222   2.170  14.254
30337SOL     OW92842  10.430   0.986  10.117
30337SOL    HW192843  10.392   0.923  10.056
30337SOL    HW292844  10.362   1.001  10.182
30338SOL     OW92845  12.656   0.700   0.916
30338SOL    HW192846  12.707   0.773   0.950
30338SOL    HW292847  12.664   0.632   0.984
30339SOL     OW92848  13.094   2.474  12.513
30339SOL    HW192849  13.114   2.380  12.511
30339SOL    HW292850  13.164   2.514  12.462
30340SOL     OW92851   8.187   6.697  14.398
30340SOL    HW192852   8.136   6.616  14.395
30340SOL    HW292853   8.185   6.730  14.308
30341SOL     OW92854  14.337  12.088   4.848
30341SOL    HW192855  14.323  12.036   4.927
30341SOL    HW292856  14.413  12.142   4.869
30342SOL     OW92857   6.063   6.405  12.660
30342SOL    HW192858   6.008   6.407  12.582
30342SOL    HW292859   6.148   6.440  12.630
30343SOL     OW92860  14.447  11.678   5.466
30343SOL    HW192861  14.535  11.648   5.443
30343SOL    HW292862  14.453  11.773   5.464
30344SOL     OW92863  12.764   4.895   1.904
30344SOL    HW192864  12.743   4.883   1.997
30344SOL    HW292865  12.825   4.968   1.902
30345SOL     OW92866   2.933   4.820   4.250
30345SOL    HW192867   3.026   4.828   4.228
30345SOL    HW292868   2.932   4.813   4.345
30346SOL     OW92869   0.585   6.381  12.482
30346SOL    HW192870   0.679   6.366  12.472
30346SOL    HW292871   0.548   6.362  12.395
30347SOL     OW92872  11.962   3.931   4.779
30347SOL    HW192873  12.047   3.924   4.737
30347SOL    HW292874  11.980   3.968   4.865
30348SOL     OW92875   4.613  13.526  12.980
30348SOL    HW192876   4.625  13.558  12.890
30348SOL    HW292877   4.553  13.590  13.020
30349SOL     OW92878   0.676   4.078  10.892
30349SOL    HW192879   0.698   3.993  10.927
30349SOL    HW292880   0.756   4.110  10.850
30350SOL     OW92881   6.291  13.182  14.266
30350SOL    HW192882   6.198  13.204  14.260
30350SOL    HW292883   6.321  13.226  14.346
30351SOL     OW92884  14.145   9.827   5.637
30351SOL    HW192885  14.207   9.761   5.607
30351SOL    HW292886  14.110   9.864   5.556
30352SOL     OW92887  11.711  12.579  12.058
30352SOL    HW192888  11.710  12.674  12.071
30352SOL    HW292889  11.619  12.554  12.057
30353SOL     OW92890   2.606  11.323   5.503
30353SOL    HW192891   2.565  11.408   5.522
30353SOL    HW292892   2.600  11.275   5.585
30354SOL     OW92893   7.086   1.839   6.915
30354SOL    HW192894   7.016   1.845   6.850
30354SOL    HW292895   7.115   1.748   6.910
30355SOL     OW92896   5.698   5.150   8.655
30355SOL    HW192897   5.655   5.191   8.731
30355SOL    HW292898   5.776   5.203   8.640
30356SOL     OW92899   3.626   6.781   9.333
30356SOL    HW192900   3.616   6.693   9.369
30356SOL    HW292901   3.538   6.818   9.335
30357SOL     OW92902  12.863   6.061  14.413
30357SOL    HW192903  12.899   5.988  14.361
30357SOL    HW292904  12.913   6.137  14.384
30358SOL     OW92905   1.199  10.248   1.296
30358SOL    HW192906   1.150  10.187   1.352
30358SOL    HW292907   1.145  10.257   1.217
30359SOL     OW92908  14.865   7.745  13.257
30359SOL    HW192909  14.847   7.786  13.341
30359SOL    HW292910  14.838   7.811  13.192
30360SOL     OW92911  11.238   4.970   8.877
30360SOL    HW192912  11.266   5.039   8.937
30360SOL    HW292913  11.310   4.961   8.815
30361SOL     OW92914   2.272   2.640   5.032
30361SOL    HW192915   2.215   2.568   5.006
30361SOL    HW292916   2.303   2.616   5.119
30362SOL     OW92917   3.187   6.624  11.093
30362SOL    HW192918   3.163   6.717  11.089
30362SOL    HW292919   3.279   6.625  11.120
30363SOL     OW92920   5.060   5.800   2.427
30363SOL    HW192921   5.069   5.800   2.332
30363SOL    HW292922   5.149   5.786   2.459
30364SOL     OW92923  10.337   7.226  11.860
30364SOL    HW192924  10.368   7.158  11.799
30364SOL    HW292925  10.408   7.290  11.861
30365SOL     OW92926   1.527   3.072   4.626
30365SOL    HW192927   1.521   3.168   4.623
30365SOL    HW292928   1.483   3.042   4.547
30366SOL     OW92929  12.768  14.353   2.127
30366SOL    HW192930  12.843  14.345   2.068
30366SOL    HW292931  12.718  14.273   2.114
30367SOL     OW92932   6.923   0.451   3.258
30367SOL    HW192933   6.956   0.388   3.194
30367SOL    HW292934   6.893   0.525   3.206
30368SOL     OW92935   0.423   9.506  10.304
30368SOL    HW192936   0.501   9.548  10.340
30368SOL    HW292937   0.404   9.554  10.224
30369SOL     OW92938  12.159   9.726   0.694
30369SOL    HW192939  12.244   9.713   0.654
30369SOL    HW292940  12.097   9.721   0.622
30370SOL     OW92941   6.763   6.528   2.368
30370SOL    HW192942   6.745   6.469   2.442
30370SOL    HW292943   6.803   6.605   2.409
30371SOL     OW92944   7.117   4.981  14.334
30371SOL    HW192945   7.194   5.026  14.299
30371SOL    HW292946   7.111   4.900  14.283
30372SOL     OW92947   3.488   1.998   7.055
30372SOL    HW192948   3.394   1.998   7.039
30372SOL    HW292949   3.501   2.058   7.128
30373SOL     OW92950   6.956   7.483  11.386
30373SOL    HW192951   6.898   7.516  11.318
30373SOL    HW292952   6.927   7.527  11.466
30374SOL     OW92953   5.480  14.723  13.754
30374SOL    HW192954   5.451  14.680  13.834
30374SOL    HW292955   5.535  14.795  13.784
30375SOL     OW92956  11.490   1.332   3.412
30375SOL    HW192957  11.417   1.374   3.366
30375SOL    HW292958  11.498   1.247   3.369
30376SOL     OW92959   5.677   2.148   7.420
30376SOL    HW192960   5.613   2.196   7.473
30376SOL    HW292961   5.678   2.194   7.337
30377SOL     OW92962  11.849   4.405   3.739
30377SOL    HW192963  11.758   4.415   3.765
30377SOL    HW292964  11.855   4.316   3.705
30378SOL     OW92965   0.177  14.669   2.554
30378SOL    HW192966   0.202  14.577   2.544
30378SOL    HW292967   0.095  14.667   2.603
30379SOL     OW92968   2.178   9.859   3.687
30379SOL    HW192969   2.197   9.931   3.748
30379SOL    HW292970   2.205   9.892   3.602
30380SOL     OW92971   1.344   8.648   8.939
30380SOL    HW192972   1.393   8.612   8.865
30380SOL    HW292973   1.311   8.732   8.908
30381SOL     OW92974  11.339   2.651  13.557
30381SOL    HW192975  11.294   2.719  13.506
30381SOL    HW292976  11.420   2.693  13.587
30382SOL     OW92977   6.269   1.712   6.699
30382SOL    HW192978   6.348   1.659   6.693
30382SOL    HW292979   6.298   1.795   6.736
30383SOL     OW92980   0.506  11.280   6.247
30383SOL    HW192981   0.455  11.353   6.214
30383SOL    HW292982   0.459  11.251   6.325
30384SOL     OW92983   8.181  11.750  13.169
30384SOL    HW192984   8.114  11.706  13.115
30384SOL    HW292985   8.218  11.679  13.221
30385SOL     OW92986   9.691  10.794   9.888
30385SOL    HW192987   9.602  10.827   9.894
30385SOL    HW292988   9.738  10.860   9.836
30386SOL     OW92989  13.740   6.571   9.625
30386SOL    HW192990  13.665   6.522   9.660
30386SOL    HW292991  13.726   6.661   9.656
30387SOL     OW92992   2.508  10.001  14.664
30387SOL    HW192993   2.578   9.960  14.614
30387SOL    HW292994   2.435  10.008  14.603
30388SOL     OW92995  11.924  11.940  13.475
30388SOL    HW192996  11.977  11.894  13.410
30388SOL    HW292997  11.842  11.960  13.429
30389SOL     OW92998   8.201  13.074  10.112
30389SOL    HW192999   8.245  13.101  10.192
30389SOL    HW293000   8.230  13.137  10.046
30390SOL     OW93001  11.189   4.685   8.635
30390SOL    HW193002  11.160   4.691   8.726
30390SOL    HW293003  11.179   4.774   8.601
30391SOL     OW93004  13.273   5.356   8.703
30391SOL    HW193005  13.314   5.442   8.693
30391SOL    HW293006  13.212   5.368   8.776
30392SOL     OW93007   9.858  11.588   7.553
30392SOL    HW193008   9.823  11.508   7.590
30392SOL    HW293009   9.949  11.591   7.583
30393SOL     OW93010   5.615  14.669   4.381
30393SOL    HW193011   5.567  14.698   4.304
30393SOL    HW293012   5.614  14.573   4.375
30394SOL     OW93013   1.663   1.293   7.152
30394SOL    HW193014   1.723   1.348   7.204
30394SOL    HW293015   1.644   1.345   7.074
30395SOL     OW93016   3.860  10.778  12.238
30395SOL    HW193017   3.895  10.778  12.149
30395SOL    HW293018   3.807  10.699  12.243
30396SOL     OW93019   3.349   8.552   5.225
30396SOL    HW193020   3.383   8.476   5.178
30396SOL    HW293021   3.292   8.515   5.293
30397SOL     OW93022   3.132   4.695   6.778
30397SOL    HW193023   3.123   4.710   6.872
30397SOL    HW293024   3.214   4.737   6.754
30398SOL     OW93025   7.139   8.961  14.724
30398SOL    HW193026   7.192   8.888  14.693
30398SOL    HW293027   7.085   8.925  14.794
30399SOL     OW93028   7.584   1.069  11.301
30399SOL    HW193029   7.567   0.978  11.278
30399SOL    HW293030   7.501   1.100  11.338
30400SOL     OW93031   9.922   2.954  10.049
30400SOL    HW193032   9.830   2.983  10.051
30400SOL    HW293033   9.936   2.923   9.960
30401SOL     OW93034   6.305  13.708   6.867
30401SOL    HW193035   6.393  13.715   6.905
30401SOL    HW293036   6.249  13.681   6.939
30402SOL     OW93037  13.780  14.539   7.062
30402SOL    HW193038  13.750  14.595   6.990
30402SOL    HW293039  13.700  14.498   7.096
30403SOL     OW93040  14.168  13.890   1.373
30403SOL    HW193041  14.079  13.858   1.359
30403SOL    HW293042  14.166  13.981   1.344
30404SOL     OW93043   6.326   8.700   0.599
30404SOL    HW193044   6.385   8.657   0.536
30404SOL    HW293045   6.266   8.631   0.625
30405SOL     OW93046   9.603   3.261   4.293
30405SOL    HW193047   9.614   3.260   4.388
30405SOL    HW293048   9.643   3.179   4.263
30406SOL     OW93049  12.952  13.407   5.284
30406SOL    HW193050  13.019  13.371   5.225
30406SOL    HW293051  12.950  13.500   5.264
30407SOL     OW93052   3.433  13.432   8.906
30407SOL    HW193053   3.507  13.407   8.962
30407SOL    HW293054   3.356  13.422   8.962
30408SOL     OW93055   0.731   4.369  10.591
30408SOL    HW193056   0.641   4.368  10.559
30408SOL    HW293057   0.784   4.345  10.515
30409SOL     OW93058   6.386   7.486   2.362
30409SOL    HW193059   6.417   7.551   2.299
30409SOL    HW293060   6.381   7.534   2.445
30410SOL     OW93061   7.172  11.016   9.247
30410SOL    HW193062   7.254  10.982   9.282
30410SOL    HW293063   7.190  11.109   9.231
30411SOL     OW93064   1.881   4.015  13.648
30411SOL    HW193065   1.841   4.100  13.664
30411SOL    HW293066   1.879   4.005  13.553
30412SOL     OW93067   1.697  12.735   7.302
30412SOL    HW193068   1.762  12.668   7.323
30412SOL    HW293069   1.613  12.692   7.317
30413SOL     OW93070   1.830   6.668   1.467
30413SOL    HW193071   1.821   6.607   1.394
30413SOL    HW293072   1.893   6.625   1.526
30414SOL     OW93073  14.614  14.102  13.986
30414SOL    HW193074  14.585  14.012  13.979
30414SOL    HW293075  14.662  14.118  13.905
30415SOL     OW93076   2.751   3.590   2.044
30415SOL    HW193077   2.759   3.668   2.100
30415SOL    HW293078   2.841   3.567   2.023
30416SOL     OW93079  13.781   5.409   2.939
30416SOL    HW193080  13.702   5.361   2.916
30416SOL    HW293081  13.833   5.410   2.859
30417SOL     OW93082   3.482  11.541   3.458
30417SOL    HW193083   3.395  11.573   3.483
30417SOL    HW293084   3.483  11.546   3.363
30418SOL     OW93085   4.768   4.872   7.677
30418SOL    HW193086   4.784   4.884   7.771
30418SOL    HW293087   4.688   4.921   7.660
30419SOL     OW93088  10.852   9.864  11.685
30419SOL    HW193089  10.783   9.837  11.746
30419SOL    HW293090  10.882   9.948  11.720
30420SOL     OW93091   2.061   8.605  12.620
30420SOL    HW193092   2.020   8.621  12.535
30420SOL    HW293093   2.023   8.522  12.650
30421SOL     OW93094   8.521  12.655   4.760
30421SOL    HW193095   8.570  12.676   4.840
30421SOL    HW293096   8.586  12.663   4.690
30422SOL     OW93097  11.368  11.176   8.044
30422SOL    HW193098  11.336  11.220   7.966
30422SOL    HW293099  11.434  11.235   8.080
30423SOL     OW93100   3.747   2.381   9.589
30423SOL    HW193101   3.838   2.407   9.574
30423SOL    HW293102   3.746   2.349   9.679
30424SOL     OW93103  11.773   1.395   3.875
30424SOL    HW193104  11.818   1.316   3.844
30424SOL    HW293105  11.709   1.414   3.806
30425SOL     OW93106   1.133   5.574   2.185
30425SOL    HW193107   1.187   5.622   2.247
30425SOL    HW293108   1.108   5.638   2.119
30426SOL     OW93109  12.821  10.084   9.286
30426SOL    HW193110  12.764  10.010   9.307
30426SOL    HW293111  12.881  10.090   9.361
30427SOL     OW93112   8.778  11.522  10.832
30427SOL    HW193113   8.784  11.531  10.737
30427SOL    HW293114   8.765  11.428  10.846
30428SOL     OW93115  11.504  12.158   5.316
30428SOL    HW193116  11.436  12.219   5.346
30428SOL    HW293117  11.526  12.108   5.395
30429SOL     OW93118   8.797   5.145   5.293
30429SOL    HW193119   8.830   5.190   5.215
30429SOL    HW293120   8.849   5.181   5.365
30430SOL     OW93121  10.678   6.116   1.418
30430SOL    HW193122  10.702   6.071   1.499
30430SOL    HW293123  10.657   6.205   1.445
30431SOL     OW93124   5.522  12.314   0.640
30431SOL    HW193125   5.516  12.220   0.658
30431SOL    HW293126   5.556  12.319   0.551
30432SOL     OW93127  10.895   5.189   8.490
30432SOL    HW193128  10.987   5.213   8.505
30432SOL    HW293129  10.887   5.185   8.394
30433SOL     OW93130   3.262   5.004  10.519
30433SOL    HW193131   3.186   5.061  10.529
30433SOL    HW293132   3.224   4.920  10.491
30434SOL     OW93133   2.831   5.667   4.084
30434SOL    HW193134   2.875   5.599   4.135
30434SOL    HW293135   2.739   5.661   4.111
30435SOL     OW93136   3.234   8.729   4.270
30435SOL    HW193137   3.141   8.736   4.289
30435SOL    HW293138   3.257   8.814   4.231
30436SOL     OW93139   8.828   9.069   6.393
30436SOL    HW193140   8.763   9.057   6.462
30436SOL    HW293141   8.875   9.149   6.417
30437SOL     OW93142   1.389   3.809  13.454
30437SOL    HW193143   1.344   3.788  13.536
30437SOL    HW293144   1.473   3.844  13.481
30438SOL     OW93145   0.476   4.036   0.649
30438SOL    HW193146   0.558   4.013   0.605
30438SOL    HW293147   0.504   4.092   0.722
30439SOL     OW93148   3.657   4.698   9.832
30439SOL    HW193149   3.630   4.653   9.752
30439SOL    HW293150   3.603   4.777   9.834
30440SOL     OW93151   1.679  12.064   6.919
30440SOL    HW193152   1.592  12.100   6.934
30440SOL    HW293153   1.718  12.121   6.853
30441SOL     OW93154   6.080  13.363   3.376
30441SOL    HW193155   6.028  13.307   3.319
30441SOL    HW293156   6.146  13.305   3.413
30442SOL     OW93157   6.510   6.369   2.214
30442SOL    HW193158   6.452   6.443   2.233
30442SOL    HW293159   6.598   6.407   2.218
30443SOL     OW93160   1.290   8.043  10.197
30443SOL    HW193161   1.331   7.999  10.121
30443SOL    HW293162   1.316   7.989  10.272
30444SOL     OW93163   0.305   9.618   7.864
30444SOL    HW193164   0.335   9.651   7.779
30444SOL    HW293165   0.384   9.588   7.908
30445SOL     OW93166   9.989  13.757   6.573
30445SOL    HW193167   9.948  13.824   6.519
30445SOL    HW293168   9.975  13.675   6.526
30446SOL     OW93169  14.816   2.072   1.119
30446SOL    HW193170  14.755   2.114   1.059
30446SOL    HW293171  14.866   2.144   1.157
30447SOL     OW93172   7.350   9.022  12.699
30447SOL    HW193173   7.291   8.992  12.631
30447SOL    HW293174   7.355   9.117  12.686
30448SOL     OW93175  13.623   9.959   7.092
30448SOL    HW193176  13.608   9.905   7.014
30448SOL    HW293177  13.624   9.896   7.165
30449SOL     OW93178  10.514   8.571   6.863
30449SOL    HW193179  10.521   8.511   6.937
30449SOL    HW293180  10.420   8.580   6.848
30450SOL     OW93181   3.944  13.001   8.492
30450SOL    HW193182   3.933  12.909   8.467
30450SOL    HW293183   3.897  13.010   8.575
30451SOL     OW93184  14.736   2.701   4.012
30451SOL    HW193185  14.830   2.696   4.034
30451SOL    HW293186  14.734   2.739   3.924
30452SOL     OW93187   9.399  14.693  14.148
30452SOL    HW193188   9.332  14.701  14.216
30452SOL    HW293189   9.417  14.600  14.143
30453SOL     OW93190   3.071  13.113   1.125
30453SOL    HW193191   2.992  13.065   1.150
30453SOL    HW293192   3.070  13.192   1.178
30454SOL     OW93193  13.037   5.036   3.828
30454SOL    HW193194  13.063   5.049   3.919
30454SOL    HW293195  13.108   4.984   3.790
30455SOL     OW93196  14.327   8.883   9.186
30455SOL    HW193197  14.243   8.839   9.201
30455SOL    HW293198  14.385   8.846   9.254
30456SOL     OW93199   5.397  13.160  12.285
30456SOL    HW193200   5.363  13.250  12.284
30456SOL    HW293201   5.489  13.169  12.259
30457SOL     OW93202  11.945   2.709   7.927
30457SOL    HW193203  11.927   2.617   7.913
30457SOL    HW293204  11.886   2.755   7.868
30458SOL     OW93205  12.725   1.906   3.243
30458SOL    HW193206  12.689   1.988   3.209
30458SOL    HW293207  12.800   1.934   3.295
30459SOL     OW93208   2.651  12.707  11.336
30459SOL    HW193209   2.560  12.728  11.313
30459SOL    HW293210   2.669  12.626  11.289
30460SOL     OW93211   1.073   6.521   6.633
30460SOL    HW193212   0.978   6.511   6.631
30460SOL    HW293213   1.091   6.569   6.714
30461SOL     OW93214   9.470  11.746   8.332
30461SOL    HW193215   9.499  11.656   8.314
30461SOL    HW293216   9.479  11.791   8.249
30462SOL     OW93217  11.430   6.468  11.617
30462SOL    HW193218  11.445   6.402  11.684
30462SOL    HW293219  11.484   6.440  11.543
30463SOL     OW93220  13.982   3.606   5.283
30463SOL    HW193221  13.930   3.557   5.346
30463SOL    HW293222  13.918   3.656   5.233
30464SOL     OW93223  12.090   6.054   9.086
30464SOL    HW193224  12.149   6.128   9.094
30464SOL    HW293225  12.114   6.013   9.002
30465SOL     OW93226   4.575   4.383  13.949
30465SOL    HW193227   4.656   4.337  13.972
30465SOL    HW293228   4.506   4.317  13.962
30466SOL     OW93229   3.641  13.669   0.067
30466SOL    HW193230   3.546  13.668   0.074
30466SOL    HW293231   3.663  13.587   0.022
30467SOL     OW93232   3.379  10.906  10.874
30467SOL    HW193233   3.339  10.837  10.927
30467SOL    HW293234   3.387  10.868  10.787
30468SOL     OW93235  12.297  13.677   5.330
30468SOL    HW193236  12.207  13.647   5.335
30468SOL    HW293237  12.348  13.608   5.373
30469SOL     OW93238  10.740   7.948  10.979
30469SOL    HW193239  10.777   7.883  10.919
30469SOL    HW293240  10.645   7.934  10.973
30470SOL     OW93241  10.993   3.164   8.504
30470SOL    HW193242  10.944   3.237   8.543
30470SOL    HW293243  11.062   3.145   8.567
30471SOL     OW93244   2.949   2.210   2.143
30471SOL    HW193245   2.986   2.236   2.058
30471SOL    HW293246   2.866   2.257   2.148
30472SOL     OW93247   5.683  13.398   8.058
30472SOL    HW193248   5.725  13.484   8.056
30472SOL    HW293249   5.735  13.346   8.118
30473SOL     OW93250  13.210   7.901   6.128
30473SOL    HW193251  13.131   7.955   6.127
30473SOL    HW293252  13.269   7.948   6.187
30474SOL     OW93253   7.635   4.097   4.437
30474SOL    HW193254   7.659   4.075   4.527
30474SOL    HW293255   7.592   4.018   4.404
30475SOL     OW93256  13.972   0.181   9.248
30475SOL    HW193257  13.892   0.166   9.299
30475SOL    HW293258  13.965   0.122   9.174
30476SOL     OW93259   8.374  14.634   5.204
30476SOL    HW193260   8.320  14.624   5.125
30476SOL    HW293261   8.448  14.575   5.189
30477SOL     OW93262  13.948  12.343   9.189
30477SOL    HW193263  14.011  12.366   9.121
30477SOL    HW293264  14.002  12.314   9.263
30478SOL     OW93265  13.185  12.386  14.412
30478SOL    HW193266  13.208  12.307  14.461
30478SOL    HW293267  13.269  12.417  14.377
30479SOL     OW93268   6.593   5.713  13.896
30479SOL    HW193269   6.574   5.748  13.983
30479SOL    HW293270   6.689   5.716  13.889
30480SOL     OW93271  13.124   1.048  10.188
30480SOL    HW193272  13.129   0.964  10.143
30480SOL    HW293273  13.211   1.087  10.176
30481SOL     OW93274   8.748  10.888  13.137
30481SOL    HW193275   8.699  10.965  13.107
30481SOL    HW293276   8.807  10.922  13.204
30482SOL     OW93277   3.374   4.194   5.731
30482SOL    HW193278   3.368   4.193   5.636
30482SOL    HW293279   3.356   4.285   5.756
30483SOL     OW93280  13.556  14.146  11.638
30483SOL    HW193281  13.513  14.119  11.557
30483SOL    HW293282  13.599  14.067  11.671
30484SOL     OW93283  11.707   6.660   0.097
30484SOL    HW193284  11.702   6.746   0.138
30484SOL    HW293285  11.695   6.598   0.169
30485SOL     OW93286   5.584  11.382  10.294
30485SOL    HW193287   5.661  11.385  10.350
30485SOL    HW293288   5.564  11.474  10.277
30486SOL     OW93289  12.226  13.702   9.772
30486SOL    HW193290  12.281  13.740   9.705
30486SOL    HW293291  12.280  13.702   9.851
30487SOL     OW93292   4.404  10.585   5.444
30487SOL    HW193293   4.333  10.617   5.499
30487SOL    HW293294   4.382  10.615   5.356
30488SOL     OW93295  11.292   9.763  11.745
30488SOL    HW193296  11.324   9.853  11.744
30488SOL    HW293297  11.366   9.711  11.776
30489SOL     OW93298  14.536  12.210  10.378
30489SOL    HW193299  14.580  12.258  10.309
30489SOL    HW293300  14.495  12.136  10.334
30490SOL     OW93301  13.492   6.011   4.168
30490SOL    HW193302  13.543   5.932   4.153
30490SOL    HW293303  13.454   5.999   4.255
30491SOL     OW93304   3.633   0.686   0.250
30491SOL    HW193305   3.567   0.628   0.289
30491SOL    HW293306   3.598   0.774   0.266
30492SOL     OW93307  13.478   1.506   2.961
30492SOL    HW193308  13.514   1.421   2.987
30492SOL    HW293309  13.428   1.486   2.881
30493SOL     OW93310  14.159   3.441  12.673
30493SOL    HW193311  14.103   3.466  12.747
30493SOL    HW293312  14.098   3.413  12.605
30494SOL     OW93313   9.760   2.683   3.246
30494SOL    HW193314   9.797   2.755   3.195
30494SOL    HW293315   9.721   2.625   3.181
30495SOL     OW93316  11.365   9.027  11.636
30495SOL    HW193317  11.403   9.097  11.584
30495SOL    HW293318  11.280   9.061  11.664
30496SOL     OW93319   0.062   4.284   2.046
30496SOL    HW193320   0.110   4.346   2.101
30496SOL    HW293321  14.869   4.337   2.005
30497SOL     OW93322   8.035  12.113   6.516
30497SOL    HW193323   8.119  12.109   6.561
30497SOL    HW293324   7.975  12.068   6.575
30498SOL     OW93325  14.727   5.698   2.242
30498SOL    HW193326  14.818   5.725   2.256
30498SOL    HW293327  14.679   5.780   2.233
30499SOL     OW93328   4.175  11.286  14.582
30499SOL    HW193329   4.093  11.272  14.629
30499SOL    HW293330   4.186  11.207  14.529
30500SOL     OW93331  13.189  11.443  10.504
30500SOL    HW193332  13.119  11.503  10.533
30500SOL    HW293333  13.239  11.495  10.440
30501SOL     OW93334   6.210   2.105   6.507
30501SOL    HW193335   6.170   2.019   6.523
30501SOL    HW293336   6.291   2.103   6.557
30502SOL     OW93337  10.071  13.905   8.769
30502SOL    HW193338  10.033  13.846   8.834
30502SOL    HW293339   9.996  13.949   8.730
30503SOL     OW93340   1.316   3.641   1.054
30503SOL    HW193341   1.364   3.578   1.108
30503SOL    HW293342   1.224   3.613   1.061
30504SOL     OW93343  11.002   2.306   2.669
30504SOL    HW193344  10.960   2.370   2.725
30504SOL    HW293345  10.935   2.281   2.605
30505SOL     OW93346   5.194   3.041   5.416
30505SOL    HW193347   5.165   2.984   5.345
30505SOL    HW293348   5.175   2.991   5.496
30506SOL     OW93349  13.367  11.501   8.424
30506SOL    HW193350  13.433  11.433   8.414
30506SOL    HW293351  13.286  11.453   8.439
30507SOL     OW93352  12.239  14.116  10.716
30507SOL    HW193353  12.270  14.132  10.805
30507SOL    HW293354  12.254  14.199  10.671
30508SOL     OW93355   8.458   4.775  13.126
30508SOL    HW193356   8.480   4.809  13.212
30508SOL    HW293357   8.507   4.830  13.065
30509SOL     OW93358   7.156   7.457   1.988
30509SOL    HW193359   7.066   7.483   2.009
30509SOL    HW293360   7.153   7.437   1.895
30510SOL     OW93361   5.639  13.999  13.747
30510SOL    HW193362   5.663  13.930  13.686
30510SOL    HW293363   5.705  14.067  13.735
30511SOL     OW93364  12.910  14.140   9.225
30511SOL    HW193365  12.854  14.191   9.284
30511SOL    HW293366  12.897  14.049   9.254
30512SOL     OW93367   4.033   4.374   2.149
30512SOL    HW193368   3.979   4.431   2.204
30512SOL    HW293369   4.033   4.290   2.195
30513SOL     OW93370  14.832   8.484  13.637
30513SOL    HW193371  14.868   8.554  13.583
30513SOL    HW293372   0.029   8.457  13.692
30514SOL     OW93373   0.931   7.081   8.245
30514SOL    HW193374   0.871   7.011   8.271
30514SOL    HW293375   1.012   7.061   8.293
30515SOL     OW93376  10.233   5.508  14.330
30515SOL    HW193377  10.170   5.576  14.306
30515SOL    HW293378  10.232   5.506  14.425
30516SOL     OW93379   6.808   0.693   8.239
30516SOL    HW193380   6.742   0.635   8.278
30516SOL    HW293381   6.891   0.647   8.253
30517SOL     OW93382   7.990   6.212   9.746
30517SOL    HW193383   8.049   6.208   9.670
30517SOL    HW293384   7.903   6.198   9.710
30518SOL     OW93385  11.157  13.871  12.832
30518SOL    HW193386  11.194  13.800  12.780
30518SOL    HW293387  11.062  13.863  12.821
30519SOL     OW93388   7.121   8.638  12.081
30519SOL    HW193389   7.124   8.616  12.175
30519SOL    HW293390   7.050   8.584  12.047
30520SOL     OW93391  14.289   9.338   0.359
30520SOL    HW193392  14.344   9.298   0.291
30520SOL    HW293393  14.232   9.398   0.312
30521SOL     OW93394   7.919   9.754  11.146
30521SOL    HW193395   7.969   9.730  11.224
30521SOL    HW293396   7.911   9.673  11.096
30522SOL     OW93397   7.479   6.788   1.425
30522SOL    HW193398   7.536   6.834   1.364
30522SOL    HW293399   7.510   6.697   1.423
30523SOL     OW93400   3.380   6.469  14.783
30523SOL    HW193401   3.373   6.441  14.691
30523SOL    HW293402   3.319   6.413  14.830
30524SOL     OW93403   8.819   6.029   1.809
30524SOL    HW193404   8.765   5.992   1.739
30524SOL    HW293405   8.794   5.979   1.887
30525SOL     OW93406   0.215  10.893  10.281
30525SOL    HW193407   0.205  10.926  10.192
30525SOL    HW293408   0.133  10.916  10.325
30526SOL     OW93409   7.709   3.344   9.365
30526SOL    HW193410   7.782   3.407   9.364
30526SOL    HW293411   7.688   3.333   9.457
30527SOL     OW93412   4.497   1.155   8.336
30527SOL    HW193413   4.478   1.237   8.291
30527SOL    HW293414   4.501   1.090   8.266
30528SOL     OW93415   6.272  14.776   6.742
30528SOL    HW193416   6.212  14.831   6.793
30528SOL    HW293417   6.349  14.765   6.798
30529SOL     OW93418   3.602   0.485   5.735
30529SOL    HW193419   3.598   0.568   5.784
30529SOL    HW293420   3.525   0.487   5.679
30530SOL     OW93421   0.651  14.825   9.511
30530SOL    HW193422   0.651  14.781   9.596
30530SOL    HW293423   0.592  14.772   9.457
30531SOL     OW93424  14.329  14.584   3.828
30531SOL    HW193425  14.395  14.548   3.886
30531SOL    HW293426  14.303  14.666   3.869
30532SOL     OW93427   9.492   6.781   5.917
30532SOL    HW193428   9.496   6.707   5.977
30532SOL    HW293429   9.408   6.823   5.935
30533SOL     OW93430  12.722   8.026   1.946
30533SOL    HW193431  12.721   8.069   2.031
30533SOL    HW293432  12.811   8.039   1.913
30534SOL     OW93433   7.943   1.712   9.017
30534SOL    HW193434   8.007   1.781   9.033
30534SOL    HW293435   7.892   1.707   9.098
30535SOL     OW93436   1.346   6.612   5.823
30535SOL    HW193437   1.362   6.706   5.828
30535SOL    HW293438   1.261   6.605   5.779
30536SOL     OW93439   8.708   4.831   9.065
30536SOL    HW193440   8.757   4.899   9.111
30536SOL    HW293441   8.634   4.811   9.122
30537SOL     OW93442   1.867   2.723   4.611
30537SOL    HW193443   1.799   2.790   4.601
30537SOL    HW293444   1.882   2.719   4.705
30538SOL     OW93445  12.638   5.664   9.311
30538SOL    HW193446  12.667   5.574   9.320
30538SOL    HW293447  12.587   5.681   9.391
30539SOL     OW93448   6.917  14.420   7.917
30539SOL    HW193449   6.994  14.459   7.958
30539SOL    HW293450   6.914  14.460   7.830
30540SOL     OW93451   8.824   9.677  13.095
30540SOL    HW193452   8.919   9.679  13.106
30540SOL    HW293453   8.799   9.770  13.098
30541SOL     OW93454   0.243   6.417   5.456
30541SOL    HW193455   0.188   6.420   5.534
30541SOL    HW293456   0.193   6.365   5.393
30542SOL     OW93457   0.544   5.901   2.413
30542SOL    HW193458   0.461   5.883   2.368
30542SOL    HW293459   0.530   5.871   2.502
30543SOL     OW93460   5.331  10.772   0.424
30543SOL    HW193461   5.353  10.680   0.410
30543SOL    HW293462   5.416  10.815   0.437
30544SOL     OW93463  14.654   7.780  12.208
30544SOL    HW193464  14.714   7.711  12.181
30544SOL    HW293465  14.577   7.769  12.152
30545SOL     OW93466   3.040  12.806  14.166
30545SOL    HW193467   3.048  12.749  14.242
30545SOL    HW293468   2.982  12.758  14.106
30546SOL     OW93469   0.596   7.507   9.226
30546SOL    HW193470   0.585   7.541   9.315
30546SOL    HW293471   0.689   7.521   9.206
30547SOL     OW93472  13.884   8.246  10.483
30547SOL    HW193473  13.893   8.169  10.426
30547SOL    HW293474  13.919   8.318  10.431
30548SOL     OW93475  14.161   6.732   1.968
30548SOL    HW193476  14.112   6.720   2.049
30548SOL    HW293477  14.097   6.768   1.907
30549SOL     OW93478   0.577   4.255  13.745
30549SOL    HW193479   0.553   4.263  13.652
30549SOL    HW293480   0.566   4.162  13.765
30550SOL     OW93481   0.616   3.881   8.657
30550SOL    HW193482   0.676   3.833   8.600
30550SOL    HW293483   0.566   3.937   8.598
30551SOL     OW93484   0.694  12.761   0.030
30551SOL    HW193485   0.763  12.770   0.096
30551SOL    HW293486   0.613  12.785   0.076
30552SOL     OW93487   4.818   8.635   2.308
30552SOL    HW193488   4.881   8.688   2.356
30552SOL    HW293489   4.775   8.582   2.375
30553SOL     OW93490  14.271   4.165   9.254
30553SOL    HW193491  14.259   4.259   9.260
30553SOL    HW293492  14.317   4.141   9.334
30554SOL     OW93493  11.749   7.860   0.301
30554SOL    HW193494  11.742   7.795   0.371
30554SOL    HW293495  11.839   7.894   0.309
30555SOL     OW93496   0.988  11.106   5.804
30555SOL    HW193497   1.042  11.089   5.881
30555SOL    HW293498   0.902  11.129   5.840
30556SOL     OW93499   3.747   8.046  11.014
30556SOL    HW193500   3.708   7.960  11.031
30556SOL    HW293501   3.700   8.105  11.073
30557SOL     OW93502   1.471  11.005  14.355
30557SOL    HW193503   1.509  11.092  14.340
30557SOL    HW293504   1.521  10.946  14.299
30558SOL     OW93505   3.300   6.163   9.719
30558SOL    HW193506   3.310   6.181   9.812
30558SOL    HW293507   3.215   6.199   9.695
30559SOL     OW93508   7.365   6.279   6.359
30559SOL    HW193509   7.351   6.232   6.441
30559SOL    HW293510   7.431   6.345   6.381
30560SOL     OW93511   6.895  11.151   2.132
30560SOL    HW193512   6.837  11.192   2.197
30560SOL    HW293513   6.842  11.082   2.094
30561SOL     OW93514  10.318   0.412  13.323
30561SOL    HW193515  10.350   0.324  13.345
30561SOL    HW293516  10.222   0.403  13.325
30562SOL     OW93517   3.703  10.674   6.641
30562SOL    HW193518   3.711  10.602   6.580
30562SOL    HW293519   3.665  10.635   6.720
30563SOL     OW93520   8.514   8.791   3.784
30563SOL    HW193521   8.532   8.718   3.725
30563SOL    HW293522   8.601   8.818   3.815
30564SOL     OW93523   9.679   4.211  14.440
30564SOL    HW193524   9.691   4.123  14.476
30564SOL    HW293525   9.760   4.228  14.392
30565SOL     OW93526   6.716   9.761  14.163
30565SOL    HW193527   6.804   9.788  14.188
30565SOL    HW293528   6.691   9.697  14.229
30566SOL     OW93529   8.030  11.574  13.036
30566SOL    HW193530   7.983  11.492  13.049
30566SOL    HW293531   7.962  11.641  13.030
30567SOL     OW93532   1.500   6.388   2.010
30567SOL    HW193533   1.518   6.460   2.072
30567SOL    HW293534   1.582   6.377   1.962
30568SOL     OW93535   1.959  13.386   4.353
30568SOL    HW193536   1.877  13.420   4.389
30568SOL    HW293537   1.962  13.295   4.381
30569SOL     OW93538   5.086   0.386   8.770
30569SOL    HW193539   4.993   0.367   8.778
30569SOL    HW293540   5.123   0.358   8.854
30570SOL     OW93541   7.061   7.883  12.697
30570SOL    HW193542   6.965   7.881  12.700
30570SOL    HW293543   7.089   7.822  12.765
30571SOL     OW93544   7.657   1.575  12.160
30571SOL    HW193545   7.590   1.601  12.096
30571SOL    HW293546   7.630   1.616  12.242
30572SOL     OW93547  14.490  14.830   1.182
30572SOL    HW193548  14.464   0.045   1.202
30572SOL    HW293549  14.453  14.814   1.095
30573SOL     OW93550   2.876   5.233   5.288
30573SOL    HW193551   2.894   5.144   5.317
30573SOL    HW293552   2.782   5.236   5.272
30574SOL     OW93553  12.970   4.471   8.715
30574SOL    HW193554  13.061   4.457   8.688
30574SOL    HW293555  12.973   4.549   8.771
30575SOL     OW93556  14.810   7.923   0.241
30575SOL    HW193557   0.014   7.893   0.284
30575SOL    HW293558  14.795   8.011   0.276
30576SOL     OW93559   6.036   7.209   4.785
30576SOL    HW193560   6.064   7.140   4.844
30576SOL    HW293561   6.098   7.206   4.713
30577SOL     OW93562   8.315   6.863   6.923
30577SOL    HW193563   8.221   6.857   6.907
30577SOL    HW293564   8.335   6.788   6.979
30578SOL     OW93565   5.697   9.577  11.418
30578SOL    HW193566   5.770   9.529  11.457
30578SOL    HW293567   5.648   9.511  11.369
30579SOL     OW93568  12.618   3.703   4.178
30579SOL    HW193569  12.659   3.671   4.259
30579SOL    HW293570  12.648   3.643   4.110
30580SOL     OW93571   6.911   1.071   1.813
30580SOL    HW193572   6.931   1.116   1.731
30580SOL    HW293573   6.992   1.026   1.836
30581SOL     OW93574   0.965   8.433   3.325
30581SOL    HW193575   0.936   8.441   3.416
30581SOL    HW293576   0.903   8.487   3.275
30582SOL     OW93577   8.924   2.012   3.538
30582SOL    HW193578   8.916   1.935   3.595
30582SOL    HW293579   9.017   2.020   3.521
30583SOL     OW93580   9.333  10.420   3.330
30583SOL    HW193581   9.282  10.475   3.390
30583SOL    HW293582   9.332  10.333   3.370
30584SOL     OW93583   2.246   6.051   0.480
30584SOL    HW193584   2.275   6.136   0.514
30584SOL    HW293585   2.160   6.038   0.519
30585SOL     OW93586   9.657  10.618   1.291
30585SOL    HW193587   9.632  10.631   1.199
30585SOL    HW293588   9.597  10.551   1.323
30586SOL     OW93589   8.468   4.554  13.924
30586SOL    HW193590   8.378   4.586  13.915
30586SOL    HW293591   8.521   4.632  13.932
30587SOL     OW93592   0.142   8.520   6.692
30587SOL    HW193593   0.145   8.602   6.742
30587SOL    HW293594   0.151   8.547   6.601
30588SOL     OW93595   8.827   5.468   1.522
30588SOL    HW193596   8.893   5.420   1.572
30588SOL    HW293597   8.862   5.556   1.515
30589SOL     OW93598   2.649  11.658  14.228
30589SOL    HW193599   2.659  11.710  14.307
30589SOL    HW293600   2.595  11.584  14.255
30590SOL     OW93601   2.096   7.016   6.074
30590SOL    HW193602   2.059   7.102   6.093
30590SOL    HW293603   2.175   7.011   6.128
30591SOL     OW93604  12.805  11.478  13.274
30591SOL    HW193605  12.780  11.489  13.182
30591SOL    HW293606  12.739  11.420  13.310
30592SOL     OW93607   4.499  11.904   5.600
30592SOL    HW193608   4.511  11.924   5.693
30592SOL    HW293609   4.494  11.990   5.558
30593SOL     OW93610   4.840   1.966   4.836
30593SOL    HW193611   4.933   1.944   4.841
30593SOL    HW293612   4.837   2.061   4.849
30594SOL     OW93613   7.976  14.438  13.573
30594SOL    HW193614   8.034  14.368  13.541
30594SOL    HW293615   8.024  14.519  13.555
30595SOL     OW93616   7.614   5.455   6.772
30595SOL    HW193617   7.548   5.520   6.744
30595SOL    HW293618   7.648   5.490   6.854
30596SOL     OW93619  14.845   9.079   7.210
30596SOL    HW193620   0.040   9.016   7.196
30596SOL    HW293621  14.768   9.026   7.230
30597SOL     OW93622   1.165  11.060   0.989
30597SOL    HW193623   1.261  11.060   0.988
30597SOL    HW293624   1.140  10.969   0.970
30598SOL     OW93625   2.276  13.029   7.133
30598SOL    HW193626   2.289  13.085   7.209
30598SOL    HW293627   2.313  13.078   7.060
30599SOL     OW93628   8.889   2.655   1.636
30599SOL    HW193629   8.816   2.593   1.639
30599SOL    HW293630   8.847   2.741   1.634
30600SOL     OW93631   9.129  10.743   2.825
30600SOL    HW193632   9.190  10.688   2.875
30600SOL    HW293633   9.153  10.832   2.851
30601SOL     OW93634   1.087  13.441   7.748
30601SOL    HW193635   1.034  13.497   7.692
30601SOL    HW293636   1.149  13.501   7.790
30602SOL     OW93637   4.709   5.049   9.111
30602SOL    HW193638   4.657   4.971   9.129
30602SOL    HW293639   4.789   5.037   9.162
30603SOL     OW93640  11.307   6.902  11.302
30603SOL    HW193641  11.263   6.890  11.218
30603SOL    HW293642  11.239   6.886  11.368
30604SOL     OW93643  10.554   0.168   9.178
30604SOL    HW193644  10.458   0.163   9.181
30604SOL    HW293645  10.578   0.206   9.263
30605SOL     OW93646   8.359  12.414   3.459
30605SOL    HW193647   8.274  12.372   3.472
30605SOL    HW293648   8.354  12.493   3.513
30606SOL     OW93649   8.097   5.415  10.438
30606SOL    HW193650   8.002   5.421  10.429
30606SOL    HW293651   8.112   5.330  10.478
30607SOL     OW93652  10.162  13.027   7.799
30607SOL    HW193653  10.228  12.967   7.834
30607SOL    HW293654  10.212  13.105   7.774
30608SOL     OW93655  13.244   3.678   8.589
30608SOL    HW193656  13.277   3.760   8.626
30608SOL    HW293657  13.156   3.699   8.560
30609SOL     OW93658  12.952  13.006  10.114
30609SOL    HW193659  12.907  13.045  10.189
30609SOL    HW293660  12.896  13.025  10.039
30610SOL     OW93661   2.035  14.149  10.468
30610SOL    HW193662   2.104  14.085  10.482
30610SOL    HW293663   2.008  14.136  10.377
30611SOL     OW93664   0.174   4.407   5.624
30611SOL    HW193665   0.221   4.330   5.657
30611SOL    HW293666   0.139   4.380   5.540
30612SOL     OW93667  12.646   6.855   1.645
30612SOL    HW193668  12.723   6.801   1.628
30612SOL    HW293669  12.604   6.813   1.720
30613SOL     OW93670   4.099   3.987   3.763
30613SOL    HW193671   4.013   3.982   3.723
30613SOL    HW293672   4.127   4.078   3.749
30614SOL     OW93673   8.319   2.169  11.541
30614SOL    HW193674   8.371   2.148  11.619
30614SOL    HW293675   8.361   2.247  11.505
30615SOL     OW93676  14.456  11.348  10.225
30615SOL    HW193677  14.537  11.372  10.269
30615SOL    HW293678  14.435  11.260  10.257
30616SOL     OW93679  13.902   0.725   2.511
30616SOL    HW193680  13.829   0.764   2.463
30616SOL    HW293681  13.980   0.755   2.465
30617SOL     OW93682   4.114   7.788   7.946
30617SOL    HW193683   4.132   7.694   7.946
30617SOL    HW293684   4.147   7.819   8.030
30618SOL     OW93685   7.625  12.695   1.257
30618SOL    HW193686   7.668  12.688   1.342
30618SOL    HW293687   7.697  12.709   1.195
30619SOL     OW93688   4.307   8.041  14.235
30619SOL    HW193689   4.240   7.998  14.288
30619SOL    HW293690   4.389   8.022  14.280
30620SOL     OW93691  12.885   4.862  12.482
30620SOL    HW193692  12.825   4.923  12.524
30620SOL    HW293693  12.937   4.827  12.555
30621SOL     OW93694  12.929  11.113  14.747
30621SOL    HW193695  12.942  11.157  14.663
30621SOL    HW293696  12.841  11.140  14.774
30622SOL     OW93697  10.983   6.619   3.417
30622SOL    HW193698  10.972   6.535   3.463
30622SOL    HW293699  10.956   6.685   3.481
30623SOL     OW93700   0.264   8.384   7.544
30623SOL    HW193701   0.315   8.420   7.617
30623SOL    HW293702   0.320   8.315   7.509
30624SOL     OW93703   2.599  11.458   2.634
30624SOL    HW193704   2.523  11.514   2.619
30624SOL    HW293705   2.574  11.403   2.707
30625SOL     OW93706   5.557   0.146   5.614
30625SOL    HW193707   5.477   0.100   5.590
30625SOL    HW293708   5.573   0.206   5.541
30626SOL     OW93709  14.404   8.499  12.978
30626SOL    HW193710  14.337   8.554  13.019
30626SOL    HW293711  14.369   8.478  12.892
30627SOL     OW93712   4.468   2.650   3.603
30627SOL    HW193713   4.382   2.653   3.560
30627SOL    HW293714   4.456   2.594   3.679
30628SOL     OW93715   6.695  13.979  11.621
30628SOL    HW193716   6.780  14.021  11.616
30628SOL    HW293717   6.696  13.915  11.549
30629SOL     OW93718  14.762   8.951   6.850
30629SOL    HW193719  14.737   9.043   6.846
30629SOL    HW293720  14.791   8.937   6.941
30630SOL     OW93721   1.955   0.711   0.861
30630SOL    HW193722   1.935   0.744   0.774
30630SOL    HW293723   1.972   0.790   0.913
30631SOL     OW93724  11.487  11.941   7.474
30631SOL    HW193725  11.513  12.005   7.540
30631SOL    HW293726  11.391  11.941   7.477
30632SOL     OW93727  13.042   3.826   5.322
30632SOL    HW193728  13.051   3.748   5.375
30632SOL    HW293729  13.050   3.795   5.232
30633SOL     OW93730   4.881  10.317  13.441
30633SOL    HW193731   4.843  10.363  13.366
30633SOL    HW293732   4.953  10.267  13.404
30634SOL     OW93733   7.114   3.075   9.791
30634SOL    HW193734   7.168   3.083   9.870
30634SOL    HW293735   7.052   3.147   9.797
30635SOL     OW93736  12.435   9.890   7.654
30635SOL    HW193737  12.510   9.909   7.597
30635SOL    HW293738  12.439   9.958   7.721
30636SOL     OW93739   7.177  10.305   2.414
30636SOL    HW193740   7.169  10.250   2.336
30636SOL    HW293741   7.090  10.303   2.454
30637SOL     OW93742  11.062  14.209   3.030
30637SOL    HW193743  11.066  14.212   3.126
30637SOL    HW293744  11.145  14.168   3.005
30638SOL     OW93745   5.903  12.918   6.796
30638SOL    HW193746   5.854  12.853   6.746
30638SOL    HW293747   5.947  12.867   6.864
30639SOL     OW93748  11.774   9.863   9.613
30639SOL    HW193749  11.847   9.909   9.571
30639SOL    HW293750  11.742   9.803   9.546
30640SOL     OW93751  14.700   0.395  11.207
30640SOL    HW193752  14.694   0.397  11.112
30640SOL    HW293753  14.660   0.477  11.235
30641SOL     OW93754   8.679   6.471  14.557
30641SOL    HW193755   8.681   6.406  14.627
30641SOL    HW293756   8.602   6.524  14.576
30642SOL     OW93757   0.674  10.343   6.720
30642SOL    HW193758   0.735  10.408   6.685
30642SOL    HW293759   0.614  10.394   6.775
30643SOL     OW93760  12.497   9.704   3.601
30643SOL    HW193761  12.454   9.718   3.517
30643SOL    HW293762  12.573   9.650   3.581
30644SOL     OW93763   0.420   2.505   4.367
30644SOL    HW193764   0.510   2.500   4.399
30644SOL    HW293765   0.419   2.451   4.288
30645SOL     OW93766  10.549   4.421  14.793
30645SOL    HW193767  10.554   4.326  14.786
30645SOL    HW293768  10.455   4.438  14.803
30646SOL     OW93769  10.971  12.452  14.240
30646SOL    HW193770  11.034  12.411  14.299
30646SOL    HW293771  10.888  12.449  14.287
30647SOL     OW93772   5.247  14.783   6.735
30647SOL    HW193773   5.207  14.749   6.815
30647SOL    HW293774   5.182  14.766   6.667
30648SOL     OW93775  13.691   6.203  11.305
30648SOL    HW193776  13.697   6.244  11.391
30648SOL    HW293777  13.763   6.240  11.255
30649SOL     OW93778  12.894   5.420  11.437
30649SOL    HW193779  12.810   5.383  11.463
30649SOL    HW293780  12.888   5.513  11.459
30650SOL     OW93781   2.601   9.993   2.755
30650SOL    HW193782   2.520   9.972   2.802
30650SOL    HW293783   2.671   9.959   2.811
30651SOL     OW93784   3.711   5.609  14.531
30651SOL    HW193785   3.615   5.611  14.528
30651SOL    HW293786   3.736   5.568  14.448
30652SOL     OW93787  14.173   1.228   6.248
30652SOL    HW193788  14.157   1.147   6.199
30652SOL    HW293789  14.087   1.269   6.255
30653SOL     OW93790   7.055   1.389   6.104
30653SOL    HW193791   7.068   1.482   6.123
30653SOL    HW293792   7.087   1.378   6.015
30654SOL     OW93793   4.293  12.195  12.158
30654SOL    HW193794   4.349  12.168  12.085
30654SOL    HW293795   4.204  12.181  12.128
30655SOL     OW93796   7.226   2.540   7.078
30655SOL    HW193797   7.307   2.576   7.113
30655SOL    HW293798   7.163   2.612   7.084
30656SOL     OW93799   1.562   5.325  12.985
30656SOL    HW193800   1.473   5.312  13.018
30656SOL    HW293801   1.609   5.245  13.009
30657SOL     OW93802   2.752  12.156  11.403
30657SOL    HW193803   2.711  12.226  11.455
30657SOL    HW293804   2.695  12.148  11.326
30658SOL     OW93805  10.306   2.335  14.169
30658SOL    HW193806  10.335   2.397  14.236
30658SOL    HW293807  10.363   2.351  14.094
30659SOL     OW93808   5.133   2.550   2.421
30659SOL    HW193809   5.211   2.604   2.405
30659SOL    HW293810   5.059   2.610   2.413
30660SOL     OW93811   1.961  11.891   5.165
30660SOL    HW193812   1.973  11.810   5.117
30660SOL    HW293813   2.038  11.944   5.145
30661SOL     OW93814  12.633   2.323  11.092
30661SOL    HW193815  12.703   2.301  11.030
30661SOL    HW293816  12.600   2.408  11.061
30662SOL     OW93817   4.595  14.675   8.453
30662SOL    HW193818   4.644  14.606   8.408
30662SOL    HW293819   4.603  14.751   8.396
30663SOL     OW93820   7.079  14.316   2.734
30663SOL    HW193821   7.008  14.282   2.679
30663SOL    HW293822   7.153  14.326   2.675
30664SOL     OW93823   5.832   3.861   7.520
30664SOL    HW193824   5.824   3.909   7.602
30664SOL    HW293825   5.789   3.777   7.537
30665SOL     OW93826  10.718   5.569   1.886
30665SOL    HW193827  10.735   5.663   1.885
30665SOL    HW293828  10.645   5.557   1.826
30666SOL     OW93829   3.651   4.281   5.442
30666SOL    HW193830   3.697   4.323   5.514
30666SOL    HW293831   3.687   4.192   5.438
30667SOL     OW93832   8.399   0.868  12.840
30667SOL    HW193833   8.349   0.807  12.895
30667SOL    HW293834   8.443   0.926  12.902
30668SOL     OW93835   1.744   7.364  11.341
30668SOL    HW193836   1.723   7.297  11.276
30668SOL    HW293837   1.714   7.446  11.301
30669SOL     OW93838   2.072   9.885  14.221
30669SOL    HW193839   2.052   9.952  14.156
30669SOL    HW293840   2.166   9.871  14.213
30670SOL     OW93841   5.374   3.365   0.298
30670SOL    HW193842   5.343   3.328   0.216
30670SOL    HW293843   5.302   3.348   0.360
30671SOL     OW93844   8.258   9.741   3.672
30671SOL    HW193845   8.178   9.710   3.630
30671SOL    HW293846   8.325   9.678   3.644
30672SOL     OW93847  13.044   7.137   9.313
30672SOL    HW193848  13.087   7.197   9.374
30672SOL    HW293849  13.100   7.138   9.235
30673SOL     OW93850  12.690   1.330   6.628
30673SOL    HW193851  12.721   1.417   6.605
30673SOL    HW293852  12.620   1.311   6.564
30674SOL     OW93853  13.871   9.922  13.413
30674SOL    HW193854  13.800   9.880  13.363
30674SOL    HW293855  13.924   9.849  13.444
30675SOL     OW93856   9.836   0.570   7.204
30675SOL    HW193857   9.755   0.620   7.191
30675SOL    HW293858   9.848   0.522   7.123
30676SOL     OW93859   6.119  14.431   2.850
30676SOL    HW193860   6.104  14.470   2.764
30676SOL    HW293861   6.178  14.357   2.832
30677SOL     OW93862  13.399  13.276  11.247
30677SOL    HW193863  13.310  13.292  11.276
30677SOL    HW293864  13.454  13.312  11.316
30678SOL     OW93865  12.721   3.817   9.361
30678SOL    HW193866  12.628   3.797   9.371
30678SOL    HW293867  12.754   3.824   9.450
30679SOL     OW93868  13.697   2.071  10.655
30679SOL    HW193869  13.774   2.128  10.647
30679SOL    HW293870  13.725   2.002  10.715
30680SOL     OW93871   3.003   5.204  13.421
30680SOL    HW193872   3.088   5.237  13.450
30680SOL    HW293873   2.949   5.205  13.501
30681SOL     OW93874   1.210   2.279   3.534
30681SOL    HW193875   1.214   2.229   3.616
30681SOL    HW293876   1.281   2.243   3.481
30682SOL     OW93877  14.764   7.942   1.392
30682SOL    HW193878  14.770   7.852   1.359
30682SOL    HW293879  14.677   7.972   1.363
30683SOL     OW93880  12.128   5.700   2.666
30683SOL    HW193881  12.120   5.787   2.707
30683SOL    HW293882  12.103   5.639   2.735
30684SOL     OW93883   8.969   3.889   9.376
30684SOL    HW193884   8.880   3.858   9.363
30684SOL    HW293885   9.021   3.842   9.311
30685SOL     OW93886   8.273   2.206   2.056
30685SOL    HW193887   8.224   2.156   1.991
30685SOL    HW293888   8.346   2.150   2.081
30686SOL     OW93889  13.923  14.464   0.095
30686SOL    HW193890  13.844  14.440   0.046
30686SOL    HW293891  13.986  14.395   0.074
30687SOL     OW93892   4.630  10.674   9.846
30687SOL    HW193893   4.713  10.693   9.802
30687SOL    HW293894   4.591  10.603   9.795
30688SOL     OW93895   0.365   8.817   9.718
30688SOL    HW193896   0.282   8.837   9.759
30688SOL    HW293897   0.344   8.806   9.625
30689SOL     OW93898   0.216   2.309   3.598
30689SOL    HW193899   0.159   2.288   3.671
30689SOL    HW293900   0.276   2.234   3.592
30690SOL     OW93901   9.488  10.527   6.553
30690SOL    HW193902   9.516  10.611   6.519
30690SOL    HW293903   9.459  10.546   6.643
30691SOL     OW93904   4.690   8.950  10.107
30691SOL    HW193905   4.664   8.861  10.081
30691SOL    HW293906   4.784   8.943  10.124
30692SOL     OW93907  12.198   7.031   0.014
30692SOL    HW193908  12.157   7.063   0.094
30692SOL    HW293909  12.156   7.081  14.820
30693SOL     OW93910   3.594   3.460  14.128
30693SOL    HW193911   3.569   3.549  14.105
30693SOL    HW293912   3.557   3.447  14.216
30694SOL     OW93913   9.110   0.151   2.698
30694SOL    HW193914   9.112   0.244   2.675
30694SOL    HW293915   9.028   0.141   2.746
30695SOL     OW93916   2.886  11.068   9.028
30695SOL    HW193917   2.855  11.068   8.937
30695SOL    HW293918   2.860  11.154   9.062
30696SOL     OW93919   6.734   9.503  12.674
30696SOL    HW193920   6.723   9.434  12.609
30696SOL    HW293921   6.662   9.489  12.736
30697SOL     OW93922  13.925  12.400  11.835
30697SOL    HW193923  13.948  12.307  11.833
30697SOL    HW293924  13.835  12.403  11.802
30698SOL     OW93925   5.490  11.582  12.455
30698SOL    HW193926   5.442  11.598  12.536
30698SOL    HW293927   5.467  11.656  12.399
30699SOL     OW93928   4.828   4.192   6.088
30699SOL    HW193929   4.801   4.283   6.098
30699SOL    HW293930   4.812   4.153   6.174
30700SOL     OW93931   6.554   1.300  10.557
30700SOL    HW193932   6.509   1.218  10.534
30700SOL    HW293933   6.531   1.361  10.487
30701SOL     OW93934   6.855   5.102  10.253
30701SOL    HW193935   6.792   5.047  10.207
30701SOL    HW293936   6.861   5.181  10.199
30702SOL     OW93937   0.254   3.926   1.202
30702SOL    HW193938   0.239   3.928   1.296
30702SOL    HW293939   0.261   3.833   1.180
30703SOL     OW93940  12.255   4.275   5.633
30703SOL    HW193941  12.254   4.318   5.548
30703SOL    HW293942  12.277   4.184   5.615
30704SOL     OW93943  14.723   9.271   3.108
30704SOL    HW193944  14.701   9.189   3.152
30704SOL    HW293945  14.769   9.245   3.028
30705SOL     OW93946   2.773   4.476   7.480
30705SOL    HW193947   2.696   4.532   7.476
30705SOL    HW293948   2.784   4.444   7.390
30706SOL     OW93949   2.061   9.527   2.281
30706SOL    HW193950   2.151   9.551   2.256
30706SOL    HW293951   2.026   9.606   2.321
30707SOL     OW93952  13.622   0.697  12.037
30707SOL    HW193953  13.655   0.787  12.038
30707SOL    HW293954  13.636   0.666  12.127
30708SOL     OW93955   9.933   9.176   4.093
30708SOL    HW193956  10.005   9.211   4.041
30708SOL    HW293957   9.955   9.198   4.183
30709SOL     OW93958   8.640   4.111   0.810
30709SOL    HW193959   8.704   4.086   0.876
30709SOL    HW293960   8.558   4.118   0.858
30710SOL     OW93961  12.075   5.790   9.242
30710SOL    HW193962  12.077   5.874   9.196
30710SOL    HW293963  12.166   5.761   9.244
30711SOL     OW93964   7.830  14.044   6.123
30711SOL    HW193965   7.803  13.952   6.123
30711SOL    HW293966   7.924  14.041   6.108
30712SOL     OW93967   4.681  11.174   0.905
30712SOL    HW193968   4.590  11.165   0.875
30712SOL    HW293969   4.709  11.258   0.869
30713SOL     OW93970  11.264  12.324  12.094
30713SOL    HW193971  11.177  12.347  12.125
30713SOL    HW293972  11.264  12.350  12.002
30714SOL     OW93973  10.597   4.589  12.164
30714SOL    HW193974  10.586   4.556  12.074
30714SOL    HW293975  10.687   4.620  12.167
30715SOL     OW93976  14.626  10.912   5.972
30715SOL    HW193977  14.688  10.907   6.045
30715SOL    HW293978  14.679  10.939   5.898
30716SOL     OW93979   8.768   2.701  11.325
30716SOL    HW193980   8.706   2.631  11.343
30716SOL    HW293981   8.798   2.730  11.411
30717SOL     OW93982  13.765  14.381   5.837
30717SOL    HW193983  13.733  14.392   5.926
30717SOL    HW293984  13.699  14.327   5.794
30718SOL     OW93985   0.744   8.024  12.914
30718SOL    HW193986   0.704   8.093  12.861
30718SOL    HW293987   0.838   8.035  12.899
30719SOL     OW93988  12.530   8.004   0.911
30719SOL    HW193989  12.528   7.991   0.817
30719SOL    HW293990  12.475   8.082   0.925
30720SOL     OW93991  13.568   1.841   8.968
30720SOL    HW193992  13.608   1.813   8.885
30720SOL    HW293993  13.484   1.879   8.942
30721SOL     OW93994   2.558  12.399  12.872
30721SOL    HW193995   2.630  12.350  12.912
30721SOL    HW293996   2.530  12.460  12.940
30722SOL     OW93997   0.247   4.064   2.081
30722SOL    HW193998   0.203   4.149   2.078
30722SOL    HW293999   0.246   4.041   2.174
30723SOL     OW94000   7.022  10.717   3.965
30723SOL    HW194001   7.004  10.801   3.922
30723SOL    HW294002   7.089  10.737   4.031
30724SOL     OW94003  12.284   3.680  14.505
30724SOL    HW194004  12.253   3.590  14.518
30724SOL    HW294005  12.310   3.684  14.413
30725SOL     OW94006   5.496   9.267   8.180
30725SOL    HW194007   5.545   9.299   8.256
30725SOL    HW294008   5.429   9.209   8.217
30726SOL     OW94009   0.353   3.634   4.778
30726SOL    HW194010   0.388   3.548   4.800
30726SOL    HW294011   0.260   3.629   4.802
30727SOL     OW94012  13.867  11.963   1.307
30727SOL    HW194013  13.863  12.038   1.246
30727SOL    HW294014  13.950  11.975   1.353
30728SOL     OW94015   0.400  11.511   0.986
30728SOL    HW194016   0.314  11.515   0.944
30728SOL    HW294017   0.442  11.435   0.946
30729SOL     OW94018   7.620   5.608   0.783
30729SOL    HW194019   7.620   5.667   0.858
30729SOL    HW294020   7.536   5.625   0.739
30730SOL     OW94021   0.064   9.170   1.735
30730SOL    HW194022   0.121   9.111   1.785
30730SOL    HW294023  14.861   9.118   1.718
30731SOL     OW94024  12.078   0.360  13.477
30731SOL    HW194025  12.165   0.321  13.488
30731SOL    HW294026  12.089   0.422  13.404
30732SOL     OW94027   4.410  12.879   6.212
30732SOL    HW194028   4.433  12.803   6.159
30732SOL    HW294029   4.430  12.853   6.302
30733SOL     OW94030   6.857   2.769  10.656
30733SOL    HW194031   6.900   2.852  10.640
30733SOL    HW294032   6.868   2.720  10.575
30734SOL     OW94033  11.051   6.816   4.029
30734SOL    HW194034  11.074   6.870   4.105
30734SOL    HW294035  11.047   6.879   3.956
30735SOL     OW94036  10.295   7.787   9.319
30735SOL    HW194037  10.386   7.784   9.350
30735SOL    HW294038  10.299   7.748   9.232
30736SOL     OW94039   2.431   8.122  11.563
30736SOL    HW194040   2.489   8.199  11.557
30736SOL    HW294041   2.353   8.155  11.607
30737SOL     OW94042  12.986   2.958   5.408
30737SOL    HW194043  12.916   2.910   5.364
30737SOL    HW294044  12.945   3.039   5.437
30738SOL     OW94045   1.408   7.007  10.600
30738SOL    HW194046   1.466   7.051  10.662
30738SOL    HW294047   1.436   7.040  10.515
30739SOL     OW94048  14.749   8.942  12.141
30739SOL    HW194049  14.750   8.863  12.194
30739SOL    HW294050  14.667   8.986  12.165
30740SOL     OW94051   1.085   0.566  10.086
30740SOL    HW194052   1.117   0.656  10.084
30740SOL    HW294053   1.024   0.565  10.161
30741SOL     OW94054   3.368   2.174  11.230
30741SOL    HW194055   3.432   2.245  11.224
30741SOL    HW294056   3.420   2.095  11.241
30742SOL     OW94057  11.407  10.131  10.473
30742SOL    HW194058  11.351  10.168  10.541
30742SOL    HW294059  11.420  10.202  10.411
30743SOL     OW94060   0.955   4.130   2.837
30743SOL    HW194061   0.871   4.164   2.867
30743SOL    HW294062   0.962   4.160   2.746
30744SOL     OW94063  13.747   4.929   1.474
30744SOL    HW194064  13.732   4.999   1.410
30744SOL    HW294065  13.683   4.947   1.543
30745SOL     OW94066  11.681   4.817   5.906
30745SOL    HW194067  11.708   4.789   5.993
30745SOL    HW294068  11.752   4.787   5.848
30746SOL     OW94069   0.239   4.084  10.349
30746SOL    HW194070   0.214   4.002  10.306
30746SOL    HW294071   0.299   4.057  10.419
30747SOL     OW94072  11.040  10.553  11.819
30747SOL    HW194073  11.043  10.460  11.797
30747SOL    HW294074  11.100  10.594  11.756
30748SOL     OW94075   5.786  10.140   6.825
30748SOL    HW194076   5.704  10.185   6.847
30748SOL    HW294077   5.829  10.126   6.910
30749SOL     OW94078   3.593   3.023   3.941
30749SOL    HW194079   3.596   3.111   3.978
30749SOL    HW294080   3.670   3.019   3.884
30750SOL     OW94081  14.280   8.223   2.189
30750SOL    HW194082  14.371   8.242   2.165
30750SOL    HW294083  14.286   8.189   2.278
30751SOL     OW94084  12.366   1.580   5.360
30751SOL    HW194085  12.273   1.562   5.345
30751SOL    HW294086  12.367   1.651   5.424
30752SOL     OW94087   0.018   0.514   3.929
30752SOL    HW194088  14.837   0.438   3.917
30752SOL    HW294089   0.000   0.570   3.855
30753SOL     OW94090   8.489   5.753   3.413
30753SOL    HW194091   8.411   5.805   3.434
30753SOL    HW294092   8.475   5.725   3.322
30754SOL     OW94093  13.562   6.046  13.400
30754SOL    HW194094  13.598   6.108  13.336
30754SOL    HW294095  13.639   6.001  13.434
30755SOL     OW94096   9.702   2.975  12.336
30755SOL    HW194097   9.625   3.029  12.356
30755SOL    HW294098   9.776   3.035  12.344
30756SOL     OW94099   0.928  11.985  14.426
30756SOL    HW194100   0.971  11.900  14.428
30756SOL    HW294101   0.925  12.009  14.334
30757SOL     OW94102   4.068   2.029   0.147
30757SOL    HW194103   4.035   2.116   0.169
30757SOL    HW294104   3.991   1.972   0.156
30758SOL     OW94105   9.511   5.046  11.189
30758SOL    HW194106   9.554   5.129  11.207
30758SOL    HW294107   9.577   4.980  11.210
30759SOL     OW94108   3.688  11.545  14.274
30759SOL    HW194109   3.677  11.507  14.187
30759SOL    HW294110   3.768  11.596  14.269
30760SOL     OW94111   8.541  14.210   0.185
30760SOL    HW194112   8.566  14.170   0.101
30760SOL    HW294113   8.622  14.251   0.217
30761SOL     OW94114   4.289   1.810  14.262
30761SOL    HW194115   4.278   1.753  14.186
30761SOL    HW294116   4.207   1.860  14.267
30762SOL     OW94117   6.706  12.354  12.141
30762SOL    HW194118   6.683  12.265  12.169
30762SOL    HW294119   6.715  12.347  12.046
30763SOL     OW94120   6.359   0.165  14.200
30763SOL    HW194121   6.368   0.254  14.236
30763SOL    HW294122   6.313   0.117  14.268
30764SOL     OW94123  10.704  12.480  14.283
30764SOL    HW194124  10.645  12.551  14.258
30764SOL    HW294125  10.708  12.423  14.207
30765SOL     OW94126   3.657   7.672   0.063
30765SOL    HW194127   3.574   7.649   0.020
30765SOL    HW294128   3.704   7.589   0.070
30766SOL     OW94129   7.468  10.027   2.881
30766SOL    HW194130   7.490   9.992   2.967
30766SOL    HW294131   7.439   9.951   2.831
30767SOL     OW94132  14.412  13.425   4.144
30767SOL    HW194133  14.434  13.412   4.052
30767SOL    HW294134  14.494  13.411   4.191
30768SOL     OW94135  13.334   5.568   6.709
30768SOL    HW194136  13.397   5.570   6.781
30768SOL    HW294137  13.387   5.550   6.631
30769SOL     OW94138  14.674   7.150   1.295
30769SOL    HW194139  14.656   7.128   1.204
30769SOL    HW294140  14.770   7.157   1.299
30770SOL     OW94141   5.972   3.636   8.277
30770SOL    HW194142   6.028   3.709   8.304
30770SOL    HW294143   5.945   3.596   8.360
30771SOL     OW94144   2.655   4.891   8.391
30771SOL    HW194145   2.681   4.802   8.413
30771SOL    HW294146   2.591   4.880   8.321
30772SOL     OW94147   6.429   5.877   8.005
30772SOL    HW194148   6.432   5.969   7.977
30772SOL    HW294149   6.350   5.842   7.964
30773SOL     OW94150  14.004   8.141   7.131
30773SOL    HW194151  13.968   8.101   7.211
30773SOL    HW294152  14.000   8.071   7.066
30774SOL     OW94153   6.422   4.398  10.589
30774SOL    HW194154   6.400   4.488  10.614
30774SOL    HW294155   6.480   4.408  10.514
30775SOL     OW94156   7.294   0.880  13.426
30775SOL    HW194157   7.336   0.817  13.485
30775SOL    HW294158   7.204   0.850  13.419
30776SOL     OW94159  14.015   4.931  13.933
30776SOL    HW194160  13.987   4.919  14.023
30776SOL    HW294161  13.977   5.015  13.907
30777SOL     OW94162  13.935  12.900   5.765
30777SOL    HW194163  13.927  12.832   5.833
30777SOL    HW294164  13.938  12.982   5.813
30778SOL     OW94165   4.707   1.178  14.417
30778SOL    HW194166   4.700   1.266  14.455
30778SOL    HW294167   4.786   1.182  14.363
30779SOL     OW94168   7.742   1.504   4.511
30779SOL    HW194169   7.733   1.519   4.605
30779SOL    HW294170   7.765   1.411   4.504
30780SOL     OW94171   9.903  11.022   1.751
30780SOL    HW194172   9.937  11.075   1.823
30780SOL    HW294173   9.812  11.004   1.776
30781SOL     OW94174   0.413   9.255  10.308
30781SOL    HW194175   0.504   9.234  10.286
30781SOL    HW294176   0.409   9.351  10.298
30782SOL     OW94177  11.702  11.230   0.710
30782SOL    HW194178  11.750  11.304   0.673
30782SOL    HW294179  11.671  11.181   0.634
30783SOL     OW94180  12.114   2.110   8.028
30783SOL    HW194181  12.035   2.155   7.998
30783SOL    HW294182  12.100   2.096   8.122
30784SOL     OW94183   2.212   4.881   3.712
30784SOL    HW194184   2.207   4.971   3.680
30784SOL    HW294185   2.246   4.831   3.638
30785SOL     OW94186   6.722   0.432   3.580
30785SOL    HW194187   6.772   0.362   3.538
30785SOL    HW294188   6.786   0.481   3.630
30786SOL     OW94189   7.008   1.467   1.677
30786SOL    HW194190   6.967   1.531   1.620
30786SOL    HW294191   7.098   1.497   1.687
30787SOL     OW94192  14.038   6.134  10.972
30787SOL    HW194193  14.029   6.046  11.009
30787SOL    HW294194  13.992   6.130  10.888
30788SOL     OW94195  10.319   4.102  14.541
30788SOL    HW194196  10.231   4.068  14.559
30788SOL    HW294197  10.357   4.116  14.628
30789SOL     OW94198   3.145   2.285   8.182
30789SOL    HW194199   3.232   2.324   8.173
30789SOL    HW294200   3.161   2.198   8.217
30790SOL     OW94201   9.640  14.870   3.735
30790SOL    HW194202   9.559  14.818   3.739
30790SOL    HW294203   9.616   0.070   3.681
30791SOL     OW94204  12.868   0.878   8.142
30791SOL    HW194205  12.925   0.857   8.069
30791SOL    HW294206  12.782   0.843   8.117
30792SOL     OW94207  13.798   5.838   8.489
30792SOL    HW194208  13.749   5.901   8.436
30792SOL    HW294209  13.864   5.891   8.534
30793SOL     OW94210   6.774   5.117   1.767
30793SOL    HW194211   6.841   5.101   1.700
30793SOL    HW294212   6.735   5.201   1.744
30794SOL     OW94213  12.322   9.016   9.279
30794SOL    HW194214  12.406   9.048   9.247
30794SOL    HW294215  12.342   8.975   9.363
30795SOL     OW94216   8.094  10.854   4.153
30795SOL    HW194217   8.032  10.787   4.122
30795SOL    HW294218   8.179  10.811   4.150
30796SOL     OW94219   4.022  10.717   7.363
30796SOL    HW194220   4.043  10.628   7.391
30796SOL    HW294221   4.105  10.763   7.364
30797SOL     OW94222   0.381   2.784   6.165
30797SOL    HW194223   0.326   2.855   6.130
30797SOL    HW294224   0.373   2.793   6.260
30798SOL     OW94225   2.667   5.139   9.757
30798SOL    HW194226   2.658   5.234   9.752
30798SOL    HW294227   2.724   5.124   9.832
30799SOL     OW94228   7.963   7.043   2.023
30799SOL    HW194229   7.872   7.035   2.052
30799SOL    HW294230   7.995   6.953   2.018
30800SOL     OW94231  12.047   5.854   2.978
30800SOL    HW194232  12.113   5.807   3.029
30800SOL    HW294233  11.978   5.790   2.963
30801SOL     OW94234   3.728   7.473  11.252
30801SOL    HW194235   3.741   7.426  11.334
30801SOL    HW294236   3.783   7.551  11.259
30802SOL     OW94237  13.875   7.481   6.019
30802SOL    HW194238  13.857   7.575   6.017
30802SOL    HW294239  13.961   7.475   6.061
30803SOL     OW94240   3.732  12.183   3.340
30803SOL    HW194241   3.823  12.213   3.329
30803SOL    HW294242   3.683  12.263   3.358
30804SOL     OW94243   4.261   1.622   5.671
30804SOL    HW194244   4.310   1.556   5.719
30804SOL    HW294245   4.174   1.584   5.657
30805SOL     OW94246  13.426   3.520   1.587
30805SOL    HW194247  13.458   3.565   1.510
30805SOL    HW294248  13.485   3.547   1.658
30806SOL     OW94249  11.356  11.058   5.902
30806SOL    HW194250  11.365  11.142   5.948
30806SOL    HW294251  11.432  11.054   5.845
30807SOL     OW94252   1.068   7.797  12.629
30807SOL    HW194253   1.054   7.886  12.662
30807SOL    HW294254   0.987   7.751  12.649
30808SOL     OW94255   2.674   2.543   3.497
30808SOL    HW194256   2.678   2.620   3.553
30808SOL    HW294257   2.734   2.480   3.538
30809SOL     OW94258   6.345   7.041  11.040
30809SOL    HW194259   6.303   6.955  11.049
30809SOL    HW294260   6.323   7.087  11.120
30810SOL     OW94261   9.535   2.023  10.901
30810SOL    HW194262   9.601   2.065  10.955
30810SOL    HW294263   9.511   1.943  10.949
30811SOL     OW94264   5.943   4.410   6.687
30811SOL    HW194265   5.881   4.407   6.761
30811SOL    HW294266   5.934   4.324   6.645
30812SOL     OW94267  12.165   5.939   8.832
30812SOL    HW194268  12.241   5.968   8.781
30812SOL    HW294269  12.089   5.975   8.786
30813SOL     OW94270   9.856   1.110   9.994
30813SOL    HW194271   9.815   1.079  10.075
30813SOL    HW294272   9.950   1.099  10.009
30814SOL     OW94273  13.704  13.965   8.085
30814SOL    HW194274  13.794  13.949   8.113
30814SOL    HW294275  13.655  13.890   8.119
30815SOL     OW94276  12.608  10.352  14.331
30815SOL    HW194277  12.584  10.266  14.367
30815SOL    HW294278  12.683  10.334  14.274
30816SOL     OW94279  11.866  10.938   2.643
30816SOL    HW194280  11.796  10.958   2.580
30816SOL    HW294281  11.864  10.842   2.650
30817SOL     OW94282  10.163   1.137  14.491
30817SOL    HW194283  10.201   1.049  14.485
30817SOL    HW294284  10.123   1.139  14.579
30818SOL     OW94285  10.518   2.702  13.178
30818SOL    HW194286  10.492   2.776  13.124
30818SOL    HW294287  10.613   2.693  13.163
30819SOL     OW94288  13.117  12.984  12.506
30819SOL    HW194289  13.035  12.995  12.456
30819SOL    HW294290  13.100  13.028  12.589
30820SOL     OW94291   4.649   8.275   6.251
30820SOL    HW194292   4.646   8.228   6.334
30820SOL    HW294293   4.656   8.367   6.276
30821SOL     OW94294  11.100   9.123  11.696
30821SOL    HW194295  11.118   9.204  11.744
30821SOL    HW294296  11.124   9.143  11.605
30822SOL     OW94297   9.708   1.559   7.224
30822SOL    HW194298   9.801   1.584   7.228
30822SOL    HW294299   9.671   1.616   7.157
30823SOL     OW94300  11.519  10.966  10.089
30823SOL    HW194301  11.522  10.904  10.161
30823SOL    HW294302  11.427  10.967  10.062
30824SOL     OW94303  10.076  11.325   1.697
30824SOL    HW194304  10.139  11.290   1.634
30824SOL    HW294305  10.050  11.249   1.750
30825SOL     OW94306   2.465   6.730  10.716
30825SOL    HW194307   2.375   6.765  10.713
30825SOL    HW294308   2.514   6.795  10.767
30826SOL     OW94309   3.435   2.133   4.357
30826SOL    HW194310   3.422   2.221   4.394
30826SOL    HW294311   3.406   2.142   4.266
30827SOL     OW94312   6.500   7.493   3.653
30827SOL    HW194313   6.525   7.583   3.636
30827SOL    HW294314   6.582   7.444   3.646
30828SOL     OW94315   5.186   3.220   8.408
30828SOL    HW194316   5.215   3.160   8.340
30828SOL    HW294317   5.236   3.300   8.393
30829SOL     OW94318   8.779  10.828  13.534
30829SOL    HW194319   8.699  10.775  13.537
30829SOL    HW294320   8.850  10.765  13.531
30830SOL     OW94321  13.300   1.722   7.946
30830SOL    HW194322  13.240   1.796   7.955
30830SOL    HW294323  13.381   1.751   7.989
30831SOL     OW94324   2.535  13.361  10.869
30831SOL    HW194325   2.598  13.418  10.825
30831SOL    HW294326   2.455  13.414  10.876
30832SOL     OW94327   8.910  12.643  13.534
30832SOL    HW194328   8.892  12.674  13.446
30832SOL    HW294329   8.990  12.590  13.525
30833SOL     OW94330   6.468   9.583  13.718
30833SOL    HW194331   6.466   9.552  13.809
30833SOL    HW294332   6.469   9.502  13.666
30834SOL     OW94333   2.936   8.403   5.560
30834SOL    HW194334   3.023   8.434   5.583
30834SOL    HW294335   2.934   8.407   5.464
30835SOL     OW94336  10.298   2.746  12.837
30835SOL    HW194337  10.279   2.656  12.864
30835SOL    HW294338  10.324   2.738  12.746
30836SOL     OW94339   4.570   3.211   6.352
30836SOL    HW194340   4.614   3.290   6.322
30836SOL    HW294341   4.637   3.164   6.402
30837SOL     OW94342   0.350  14.698  13.533
30837SOL    HW194343   0.301  14.641  13.474
30837SOL    HW294344   0.298  14.778  13.539
30838SOL     OW94345  14.676   7.204  13.331
30838SOL    HW194346  14.757   7.167  13.295
30838SOL    HW294347  14.705   7.264  13.400
30839SOL     OW94348  13.715   3.958  12.334
30839SOL    HW194349  13.810   3.962  12.317
30839SOL    HW294350  13.694   3.864  12.327
30840SOL     OW94351   5.416  11.830   6.278
30840SOL    HW194352   5.444  11.895   6.213
30840SOL    HW294353   5.497  11.805   6.323
30841SOL     OW94354   5.831  14.553  12.400
30841SOL    HW194355   5.811  14.588  12.487
30841SOL    HW294356   5.871  14.627  12.354
30842SOL     OW94357   5.381   9.872  12.030
30842SOL    HW194358   5.377   9.794  12.085
30842SOL    HW294359   5.317   9.932  12.068
30843SOL     OW94360  13.799   7.549   0.575
30843SOL    HW194361  13.825   7.599   0.498
30843SOL    HW294362  13.720   7.594   0.606
30844SOL     OW94363   1.438  12.253  11.321
30844SOL    HW194364   1.421  12.347  11.324
30844SOL    HW294365   1.527  12.244  11.357
30845SOL     OW94366  11.472   8.868  12.899
30845SOL    HW194367  11.513   8.796  12.851
30845SOL    HW294368  11.518   8.871  12.982
30846SOL     OW94369  13.680  12.254  10.723
30846SOL    HW194370  13.689  12.202  10.803
30846SOL    HW294371  13.696  12.192  10.652
30847SOL     OW94372   1.483  12.467  14.821
30847SOL    HW194373   1.415  12.504  14.764
30847SOL    HW294374   1.548  12.537  14.830
30848SOL     OW94375   2.894   0.447   7.711
30848SOL    HW194376   2.969   0.458   7.653
30848SOL    HW294377   2.824   0.415   7.654
30849SOL     OW94378   6.012   0.244   8.888
30849SOL    HW194379   6.076   0.230   8.957
30849SOL    HW294380   6.050   0.199   8.812
30850SOL     OW94381   2.194   2.485   3.338
30850SOL    HW194382   2.145   2.419   3.287
30850SOL    HW294383   2.240   2.537   3.272
30851SOL     OW94384  14.640   9.202   2.552
30851SOL    HW194385  14.697   9.277   2.568
30851SOL    HW294386  14.587   9.227   2.477
30852SOL     OW94387   6.413   3.346   3.604
30852SOL    HW194388   6.462   3.296   3.669
30852SOL    HW294389   6.466   3.341   3.524
30853SOL     OW94390  11.838   6.146   6.625
30853SOL    HW194391  11.843   6.071   6.565
30853SOL    HW294392  11.858   6.109   6.711
30854SOL     OW94393  12.002   5.424   4.955
30854SOL    HW194394  12.083   5.397   4.998
30854SOL    HW294395  11.943   5.447   5.026
30855SOL     OW94396  12.423  13.519  14.854
30855SOL    HW194397  12.421  13.430  14.819
30855SOL    HW294398  12.332  13.538   0.002
30856SOL     OW94399   2.953   6.042   8.176
30856SOL    HW194400   2.985   6.038   8.266
30856SOL    HW294401   2.870   5.994   8.177
30857SOL     OW94402   9.208  12.003   6.740
30857SOL    HW194403   9.122  12.033   6.768
30857SOL    HW294404   9.219  11.918   6.782
30858SOL     OW94405   8.781   3.027  11.313
30858SOL    HW194406   8.723   2.994  11.245
30858SOL    HW294407   8.727   3.030  11.392
30859SOL     OW94408   9.386  10.006   4.610
30859SOL    HW194409   9.478   9.985   4.624
30859SOL    HW294410   9.360   9.953   4.535
30860SOL     OW94411  13.112  13.521   9.184
30860SOL    HW194412  13.151  13.607   9.165
30860SOL    HW294413  13.030  13.542   9.228
30861SOL     OW94414   4.560   1.356   8.525
30861SOL    HW194415   4.568   1.314   8.611
30861SOL    HW294416   4.550   1.282   8.464
30862SOL     OW94417   7.699   8.601   8.846
30862SOL    HW194418   7.660   8.514   8.856
30862SOL    HW294419   7.650   8.641   8.774
30863SOL     OW94420  11.895   9.667   7.984
30863SOL    HW194421  11.890   9.586   8.035
30863SOL    HW294422  11.946   9.643   7.907
30864SOL     OW94423   8.647  12.567   1.090
30864SOL    HW194424   8.698  12.648   1.088
30864SOL    HW294425   8.647  12.541   1.182
30865SOL     OW94426  14.511   6.921   4.608
30865SOL    HW194427  14.461   6.957   4.682
30865SOL    HW294428  14.542   6.999   4.561
30866SOL     OW94429   9.367   7.662   1.625
30866SOL    HW194430   9.388   7.708   1.544
30866SOL    HW294431   9.346   7.573   1.598
30867SOL     OW94432  12.456   7.374   3.356
30867SOL    HW194433  12.395   7.308   3.321
30867SOL    HW294434  12.506   7.402   3.279
30868SOL     OW94435  12.385  11.278  13.846
30868SOL    HW194436  12.475  11.302  13.869
30868SOL    HW294437  12.388  11.183  13.834
30869SOL     OW94438   1.695  11.657   9.233
30869SOL    HW194439   1.607  11.635   9.265
30869SOL    HW294440   1.749  11.584   9.261
30870SOL     OW94441  11.566   6.736   7.492
30870SOL    HW194442  11.603   6.694   7.570
30870SOL    HW294443  11.617   6.817   7.483
30871SOL     OW94444  10.651   7.888   0.819
30871SOL    HW194445  10.613   7.957   0.873
30871SOL    HW294446  10.581   7.863   0.759
30872SOL     OW94447   6.809   2.521  12.324
30872SOL    HW194448   6.879   2.481  12.375
30872SOL    HW294449   6.848   2.602  12.289
30873SOL     OW94450   3.413   6.561  13.477
30873SOL    HW194451   3.465   6.539  13.555
30873SOL    HW294452   3.476   6.604  13.418
30874SOL     OW94453   5.137   2.764   5.292
30874SOL    HW194454   5.204   2.762   5.360
30874SOL    HW294455   5.088   2.683   5.305
30875SOL     OW94456  13.257  10.122   1.634
30875SOL    HW194457  13.210  10.171   1.566
30875SOL    HW294458  13.325  10.075   1.586
30876SOL     OW94459  12.803   4.549   9.691
30876SOL    HW194460  12.737   4.602   9.735
30876SOL    HW294461  12.883   4.602   9.695
30877SOL     OW94462   1.309   3.759   0.792
30877SOL    HW194463   1.231   3.799   0.754
30877SOL    HW294464   1.287   3.747   0.885
30878SOL     OW94465   3.571   6.412   8.664
30878SOL    HW194466   3.520   6.468   8.606
30878SOL    HW294467   3.541   6.323   8.644
30879SOL     OW94468   3.089   8.483  12.059
30879SOL    HW194469   3.077   8.474  11.965
30879SOL    HW294470   3.167   8.431  12.078
30880SOL     OW94471   2.973   8.056   5.155
30880SOL    HW194472   3.045   8.020   5.103
30880SOL    HW294473   2.965   7.997   5.230
30881SOL     OW94474   5.536  11.981  10.501
30881SOL    HW194475   5.521  11.887  10.513
30881SOL    HW294476   5.630  11.989  10.485
30882SOL     OW94477   0.749   0.782  11.522
30882SOL    HW194478   0.799   0.832  11.458
30882SOL    HW294479   0.666   0.829  11.529
30883SOL     OW94480  10.292   7.832   7.360
30883SOL    HW194481  10.387   7.839   7.376
30883SOL    HW294482  10.265   7.922   7.342
30884SOL     OW94483  11.819   1.207  12.444
30884SOL    HW194484  11.902   1.249  12.423
30884SOL    HW294485  11.841   1.137  12.505
30885SOL     OW94486   1.125  12.005   8.327
30885SOL    HW194487   1.074  12.026   8.248
30885SOL    HW294488   1.204  11.962   8.294
30886SOL     OW94489   3.799   1.746  11.045
30886SOL    HW194490   3.826   1.723  11.134
30886SOL    HW294491   3.880   1.749  10.995
30887SOL     OW94492   4.548  14.734   5.079
30887SOL    HW194493   4.556  14.640   5.067
30887SOL    HW294494   4.499  14.744   5.160
30888SOL     OW94495   1.723  10.984  12.732
30888SOL    HW194496   1.703  10.974  12.639
30888SOL    HW294497   1.816  10.961  12.739
30889SOL     OW94498  12.327   2.225   9.589
30889SOL    HW194499  12.238   2.262   9.589
30889SOL    HW294500  12.362   2.245   9.502
30890SOL     OW94501   3.815   7.046   7.086
30890SOL    HW194502   3.900   7.088   7.099
30890SOL    HW294503   3.751   7.113   7.110
30891SOL     OW94504   5.465   3.821   6.094
30891SOL    HW194505   5.371   3.838   6.097
30891SOL    HW294506   5.473   3.730   6.122
30892SOL     OW94507   2.300   5.914   5.638
30892SOL    HW194508   2.308   5.906   5.543
30892SOL    HW294509   2.365   5.852   5.672
30893SOL     OW94510   1.744   9.755  11.843
30893SOL    HW194511   1.658   9.739  11.803
30893SOL    HW294512   1.785   9.669  11.846
30894SOL     OW94513   0.488   4.407  10.415
30894SOL    HW194514   0.408   4.400  10.363
30894SOL    HW294515   0.465   4.464  10.488
30895SOL     OW94516   3.810  10.720   4.469
30895SOL    HW194517   3.829  10.811   4.488
30895SOL    HW294518   3.863  10.670   4.531
30896SOL     OW94519   6.391   7.217   0.505
30896SOL    HW194520   6.371   7.196   0.414
30896SOL    HW294521   6.392   7.133   0.550
30897SOL     OW94522   4.514   5.483   8.069
30897SOL    HW194523   4.458   5.532   8.009
30897SOL    HW294524   4.454   5.424   8.115
30898SOL     OW94525   0.318   5.389   1.526
30898SOL    HW194526   0.406   5.387   1.564
30898SOL    HW294527   0.268   5.444   1.587
30899SOL     OW94528   3.620   7.240   2.892
30899SOL    HW194529   3.705   7.205   2.917
30899SOL    HW294530   3.561   7.214   2.963
30900SOL     OW94531   8.780   4.112   7.434
30900SOL    HW194532   8.687   4.121   7.458
30900SOL    HW294533   8.779   4.071   7.348
30901SOL     OW94534   6.261  14.025   1.584
30901SOL    HW194535   6.274  13.937   1.548
30901SOL    HW294536   6.337  14.075   1.554
30902SOL     OW94537   1.747  13.603   4.448
30902SOL    HW194538   1.785  13.688   4.468
30902SOL    HW294539   1.690  13.619   4.373
30903SOL     OW94540   8.315   5.526  12.159
30903SOL    HW194541   8.363   5.577  12.224
30903SOL    HW294542   8.307   5.584  12.084
30904SOL     OW94543  13.374  10.161   7.227
30904SOL    HW194544  13.390  10.090   7.289
30904SOL    HW294545  13.368  10.240   7.281
30905SOL     OW94546  10.554   3.730   9.485
30905SOL    HW194547  10.605   3.656   9.452
30905SOL    HW294548  10.481   3.689   9.532
30906SOL     OW94549   7.123   8.798   1.746
30906SOL    HW194550   7.167   8.865   1.799
30906SOL    HW294551   7.113   8.838   1.660
30907SOL     OW94552   3.981  10.561   8.667
30907SOL    HW194553   3.919  10.629   8.642
30907SOL    HW294554   3.939  10.515   8.739
30908SOL     OW94555  13.918  13.344  11.954
30908SOL    HW194556  13.978  13.270  11.965
30908SOL    HW294557  13.860  13.340  12.030
30909SOL     OW94558   1.144   9.187   3.356
30909SOL    HW194559   1.084   9.262   3.362
30909SOL    HW294560   1.093   9.113   3.390
30910SOL     OW94561  12.154   9.469   3.294
30910SOL    HW194562  12.156   9.464   3.198
30910SOL    HW294563  12.127   9.559   3.312
30911SOL     OW94564  13.764   0.952  11.491
30911SOL    HW194565  13.749   1.045  11.472
30911SOL    HW294566  13.768   0.948  11.587
30912SOL     OW94567  11.863  14.177  14.452
30912SOL    HW194568  11.949  14.165  14.490
30912SOL    HW294569  11.861  14.269  14.424
30913SOL     OW94570  12.350  10.193   7.204
30913SOL    HW194571  12.386  10.179   7.291
30913SOL    HW294572  12.385  10.278   7.177
30914SOL     OW94573   7.815   3.269   5.267
30914SOL    HW194574   7.785   3.341   5.323
30914SOL    HW294575   7.786   3.293   5.179
30915SOL     OW94576   4.410  13.964  13.534
30915SOL    HW194577   4.431  14.037  13.476
30915SOL    HW294578   4.366  13.900  13.477
30916SOL     OW94579  14.034  10.936  12.787
30916SOL    HW194580  14.029  10.845  12.759
30916SOL    HW294581  14.037  10.987  12.706
30917SOL     OW94582  10.440  12.804   4.082
30917SOL    HW194583  10.405  12.731   4.031
30917SOL    HW294584  10.450  12.875   4.018
30918SOL     OW94585  12.275  13.319   5.987
30918SOL    HW194586  12.290  13.291   6.077
30918SOL    HW294587  12.202  13.264   5.957
30919SOL     OW94588  12.088   2.451   7.860
30919SOL    HW194589  12.018   2.475   7.799
30919SOL    HW294590  12.077   2.357   7.873
30920SOL     OW94591   9.240   2.269   3.383
30920SOL    HW194592   9.198   2.354   3.397
30920SOL    HW294593   9.333   2.287   3.393
30921SOL     OW94594   2.100  10.703  12.336
30921SOL    HW194595   2.012  10.701  12.374
30921SOL    HW294596   2.154  10.745  12.402
30922SOL     OW94597  13.777   6.430   5.159
30922SOL    HW194598  13.772   6.352   5.215
30922SOL    HW294599  13.856   6.475   5.188
30923SOL     OW94600   8.973  12.773   3.753
30923SOL    HW194601   9.050  12.817   3.789
30923SOL    HW294602   8.999  12.748   3.664
30924SOL     OW94603   6.472  11.065   0.600
30924SOL    HW194604   6.496  11.120   0.675
30924SOL    HW294605   6.552  11.056   0.549
30925SOL     OW94606  12.241  12.699   4.937
30925SOL    HW194607  12.150  12.712   4.911
30925SOL    HW294608  12.292  12.742   4.867
30926SOL     OW94609  14.465  11.416   0.341
30926SOL    HW194610  14.445  11.435   0.250
30926SOL    HW294611  14.479  11.502   0.381
30927SOL     OW94612   9.134   3.424  12.440
30927SOL    HW194613   9.082   3.463  12.369
30927SOL    HW294614   9.200   3.371  12.395
30928SOL     OW94615   4.969  12.347   0.760
30928SOL    HW194616   5.047  12.295   0.742
30928SOL    HW294617   4.992  12.435   0.733
30929SOL     OW94618  13.669   0.169  10.884
30929SOL    HW194619  13.743   0.214  10.925
30929SOL    HW294620  13.592   0.212  10.919
30930SOL     OW94621   1.051   9.822   2.718
30930SOL    HW194622   1.006   9.777   2.789
30930SOL    HW294623   1.016   9.911   2.720
30931SOL     OW94624   6.876  13.150   1.397
30931SOL    HW194625   6.931  13.227   1.410
30931SOL    HW294626   6.860  13.148   1.303
30932SOL     OW94627  13.723   1.381   7.070
30932SOL    HW194628  13.730   1.296   7.026
30932SOL    HW294629  13.714   1.444   6.998
30933SOL     OW94630   9.121  13.535   1.964
30933SOL    HW194631   9.063  13.563   1.895
30933SOL    HW294632   9.073  13.552   2.045
30934SOL     OW94633   4.613  12.752   3.666
30934SOL    HW194634   4.634  12.659   3.671
30934SOL    HW294635   4.648  12.788   3.748
30935SOL     OW94636   1.867   9.766   4.827
30935SOL    HW194637   1.895   9.780   4.736
30935SOL    HW294638   1.887   9.674   4.844
30936SOL     OW94639   2.674   4.818   4.124
30936SOL    HW194640   2.741   4.823   4.192
30936SOL    HW294641   2.601   4.771   4.166
30937SOL     OW94642   2.689  11.161  11.446
30937SOL    HW194643   2.739  11.206  11.378
30937SOL    HW294644   2.635  11.230  11.485
30938SOL     OW94645  12.704   4.624   6.308
30938SOL    HW194646  12.646   4.700   6.315
30938SOL    HW294647  12.745   4.632   6.222
30939SOL     OW94648   8.567  10.161  14.514
30939SOL    HW194649   8.550  10.196  14.602
30939SOL    HW294650   8.545  10.234  14.455
30940SOL     OW94651   2.300  12.385   5.239
30940SOL    HW194652   2.373  12.431   5.197
30940SOL    HW294653   2.223  12.411   5.189
30941SOL     OW94654  10.176  12.002   6.988
30941SOL    HW194655  10.158  11.929   7.048
30941SOL    HW294656  10.093  12.050   6.984
30942SOL     OW94657   7.322   3.935   3.359
30942SOL    HW194658   7.343   4.019   3.399
30942SOL    HW294659   7.242   3.951   3.309
30943SOL     OW94660   7.240   4.520  14.201
30943SOL    HW194661   7.245   4.463  14.124
30943SOL    HW294662   7.271   4.465  14.273
30944SOL     OW94663   5.139  13.038   6.206
30944SOL    HW194664   5.214  12.979   6.196
30944SOL    HW294665   5.106  13.021   6.294
30945SOL     OW94666  12.328   9.351   6.726
30945SOL    HW194667  12.300   9.441   6.743
30945SOL    HW294668  12.398   9.334   6.789
30946SOL     OW94669   3.941   3.692   9.153
30946SOL    HW194670   3.983   3.718   9.071
30946SOL    HW294671   3.848   3.707   9.138
30947SOL     OW94672  14.114   4.870  12.091
30947SOL    HW194673  14.127   4.823  12.173
30947SOL    HW294674  14.144   4.808  12.024
30948SOL     OW94675  12.772   7.374   2.155
30948SOL    HW194676  12.698   7.369   2.095
30948SOL    HW294677  12.836   7.428   2.109
30949SOL     OW94678  12.642   1.550   3.878
30949SOL    HW194679  12.625   1.634   3.837
30949SOL    HW294680  12.728   1.524   3.845
30950SOL     OW94681  11.975   4.551   5.138
30950SOL    HW194682  12.060   4.555   5.181
30950SOL    HW294683  11.947   4.459   5.148
30951SOL     OW94684   6.177   0.216   3.725
30951SOL    HW194685   6.238   0.180   3.789
30951SOL    HW294686   6.233   0.255   3.658
30952SOL     OW94687  14.702  10.141  10.828
30952SOL    HW194688  14.764  10.170  10.762
30952SOL    HW294689  14.659  10.221  10.857
30953SOL     OW94690   8.951   8.560  13.220
30953SOL    HW194691   8.869   8.610  13.225
30953SOL    HW294692   9.016   8.622  13.188
30954SOL     OW94693   8.604  13.046   7.060
30954SOL    HW194694   8.690  13.053   7.101
30954SOL    HW294695   8.544  13.083   7.124
30955SOL     OW94696  11.041   1.146   6.036
30955SOL    HW194697  11.069   1.127   5.946
30955SOL    HW294698  11.086   1.081   6.089
30956SOL     OW94699   9.923   5.507  11.953
30956SOL    HW194700   9.893   5.583  11.903
30956SOL    HW294701  10.017   5.503  11.936
30957SOL     OW94702   4.462   6.906   3.325
30957SOL    HW194703   4.406   6.953   3.387
30957SOL    HW294704   4.507   6.840   3.377
30958SOL     OW94705  10.838   0.723  13.438
30958SOL    HW194706  10.851   0.757  13.349
30958SOL    HW294707  10.744   0.704  13.442
30959SOL     OW94708  13.127  13.108   8.359
30959SOL    HW194709  13.137  13.173   8.428
30959SOL    HW294710  13.133  13.024   8.404
30960SOL     OW94711   7.094  10.054   5.926
30960SOL    HW194712   7.086   9.982   5.988
30960SOL    HW294713   7.086  10.133   5.979
30961SOL     OW94714   0.647   9.777   9.617
30961SOL    HW194715   0.573   9.757   9.560
30961SOL    HW294716   0.717   9.720   9.587
30962SOL     OW94717   6.466   7.272   2.020
30962SOL    HW194718   6.435   7.263   2.110
30962SOL    HW294719   6.414   7.344   1.983
30963SOL     OW94720  11.637   6.640   7.744
30963SOL    HW194721  11.708   6.697   7.773
30963SOL    HW294722  11.650   6.560   7.795
30964SOL     OW94723   5.982   7.321   0.315
30964SOL    HW194724   5.951   7.230   0.310
30964SOL    HW294725   5.904   7.374   0.300
30965SOL     OW94726  12.319  14.192   9.082
30965SOL    HW194727  12.251  14.192   9.149
30965SOL    HW294728  12.325  14.283   9.053
30966SOL     OW94729  14.351   8.964   7.381
30966SOL    HW194730  14.263   8.950   7.347
30966SOL    HW294731  14.397   8.882   7.360
30967SOL     OW94732   2.116   3.765  14.594
30967SOL    HW194733   2.105   3.680  14.638
30967SOL    HW294734   2.043   3.818  14.627
30968SOL     OW94735  10.314  13.987  13.995
30968SOL    HW194736  10.369  13.910  14.012
30968SOL    HW294737  10.334  14.012  13.905
30969SOL     OW94738   7.035   5.797   4.946
30969SOL    HW194739   7.030   5.832   5.035
30969SOL    HW294740   7.030   5.702   4.957
30970SOL     OW94741   7.971   5.611   6.641
30970SOL    HW194742   7.912   5.536   6.643
30970SOL    HW294743   7.974   5.641   6.732
30971SOL     OW94744   8.427   0.373   1.313
30971SOL    HW194745   8.370   0.413   1.378
30971SOL    HW294746   8.369   0.345   1.243
30972SOL     OW94747   7.506  14.458   1.951
30972SOL    HW194748   7.484  14.539   1.996
30972SOL    HW294749   7.469  14.389   2.007
30973SOL     OW94750   7.253   0.609   5.728
30973SOL    HW194751   7.231   0.554   5.803
30973SOL    HW294752   7.175   0.663   5.715
30974SOL     OW94753  13.265   1.953  13.923
30974SOL    HW194754  13.242   1.862  13.940
30974SOL    HW294755  13.210   1.978  13.850
30975SOL     OW94756  10.313  12.699   5.465
30975SOL    HW194757  10.330  12.696   5.371
30975SOL    HW294758  10.249  12.770   5.476
30976SOL     OW94759   8.231   6.191   3.678
30976SOL    HW194760   8.266   6.108   3.711
30976SOL    HW294761   8.297   6.224   3.617
30977SOL     OW94762   3.125  10.045  11.960
30977SOL    HW194763   3.125   9.957  11.998
30977SOL    HW294764   3.214  10.057  11.927
30978SOL     OW94765   4.076  12.308  11.526
30978SOL    HW194766   4.121  12.231  11.561
30978SOL    HW294767   4.039  12.352  11.602
30979SOL     OW94768   7.069  11.684   7.092
30979SOL    HW194769   7.101  11.769   7.121
30979SOL    HW294770   7.021  11.704   7.011
30980SOL     OW94771  12.099  10.336  13.964
30980SOL    HW194772  12.143  10.294  13.890
30980SOL    HW294773  12.104  10.430  13.944
30981SOL     OW94774  12.959   1.715   9.478
30981SOL    HW194775  12.891   1.757   9.426
30981SOL    HW294776  12.976   1.777   9.549
30982SOL     OW94777   5.546  12.188   1.461
30982SOL    HW194778   5.636  12.195   1.493
30982SOL    HW294779   5.555  12.159   1.370
30983SOL     OW94780  10.609  13.472   4.486
30983SOL    HW194781  10.580  13.399   4.431
30983SOL    HW294782  10.544  13.541   4.471
30984SOL     OW94783   3.975  13.535  14.774
30984SOL    HW194784   3.994  13.472  14.704
30984SOL    HW294785   3.880  13.534  14.782
30985SOL     OW94786   6.329   0.122   3.478
30985SOL    HW194787   6.298   0.084   3.396
30985SOL    HW294788   6.421   0.095   3.485
30986SOL     OW94789  12.647   7.621   7.759
30986SOL    HW194790  12.608   7.705   7.737
30986SOL    HW294791  12.651   7.574   7.675
30987SOL     OW94792   5.747   2.688  14.025
30987SOL    HW194793   5.702   2.626  13.968
30987SOL    HW294794   5.704   2.679  14.109
30988SOL     OW94795   8.475  11.270  11.491
30988SOL    HW194796   8.512  11.327  11.424
30988SOL    HW294797   8.410  11.325  11.536
30989SOL     OW94798   0.190  13.034   3.686
30989SOL    HW194799   0.235  13.108   3.727
30989SOL    HW294800   0.135  13.074   3.618
30990SOL     OW94801   3.524   0.949  11.174
30990SOL    HW194802   3.452   0.993  11.219
30990SOL    HW294803   3.482   0.886  11.116
30991SOL     OW94804   6.326   9.655   8.330
30991SOL    HW194805   6.324   9.562   8.306
30991SOL    HW294806   6.246   9.669   8.380
30992SOL     OW94807  13.213   9.087   1.647
30992SOL    HW194808  13.142   9.069   1.585
30992SOL    HW294809  13.284   9.029   1.620
30993SOL     OW94810   8.810   8.842   3.627
30993SOL    HW194811   8.813   8.824   3.721
30993SOL    HW294812   8.872   8.780   3.589
30994SOL     OW94813   4.260   7.248   4.650
30994SOL    HW194814   4.280   7.338   4.624
30994SOL    HW294815   4.305   7.236   4.733
30995SOL     OW94816  14.804   3.774   8.229
30995SOL    HW194817  14.773   3.701   8.175
30995SOL    HW294818  14.874   3.736   8.282
30996SOL     OW94819   3.114   0.678   7.009
30996SOL    HW194820   3.123   0.608   6.944
30996SOL    HW294821   3.086   0.754   6.958
30997SOL     OW94822   4.960  12.591  12.559
30997SOL    HW194823   4.989  12.518  12.504
30997SOL    HW294824   4.892  12.634  12.507
30998SOL     OW94825   9.863  14.807   2.705
30998SOL    HW194826   9.918  14.864   2.758
30998SOL    HW294827   9.859  14.725   2.753
30999SOL     OW94828  11.434  10.230  13.005
30999SOL    HW194829  11.488  10.308  12.997
30999SOL    HW294830  11.427  10.214  13.099
31000SOL     OW94831  10.645   4.754  14.537
31000SOL    HW194832  10.663   4.664  14.564
31000SOL    HW294833  10.567   4.749  14.483
31001SOL     OW94834  13.912   0.551   0.273
31001SOL    HW194835  13.896   0.503   0.354
31001SOL    HW294836  13.994   0.514   0.240
31002SOL     OW94837  13.864  11.226   0.560
31002SOL    HW194838  13.805  11.221   0.636
31002SOL    HW294839  13.856  11.316   0.529
31003SOL     OW94840   0.015  11.598  12.445
31003SOL    HW194841   0.022  11.506  12.422
31003SOL    HW294842  14.802  11.607  12.480
31004SOL     OW94843   9.320   6.234  10.975
31004SOL    HW194844   9.278   6.151  10.998
31004SOL    HW294845   9.318   6.237  10.880
31005SOL     OW94846   5.453  12.038  11.262
31005SOL    HW194847   5.548  12.031  11.272
31005SOL    HW294848   5.438  12.044  11.168
31006SOL     OW94849   1.373  11.087  12.338
31006SOL    HW194850   1.415  11.056  12.258
31006SOL    HW294851   1.349  11.007  12.385
31007SOL     OW94852  13.088   4.577  11.268
31007SOL    HW194853  13.055   4.520  11.337
31007SOL    HW294854  13.158   4.627  11.309
31008SOL     OW94855   0.129   5.315   8.214
31008SOL    HW194856   0.138   5.393   8.158
31008SOL    HW294857   0.082   5.252   8.159
31009SOL     OW94858   4.479   5.955   6.163
31009SOL    HW194859   4.512   6.045   6.167
31009SOL    HW294860   4.405   5.959   6.103
31010SOL     OW94861   7.561   8.472  14.305
31010SOL    HW194862   7.578   8.389  14.260
31010SOL    HW294863   7.608   8.464  14.388
31011SOL     OW94864  14.849   0.177   7.053
31011SOL    HW194865  14.764   0.219   7.063
31011SOL    HW294866   0.007   0.168   7.142
31012SOL     OW94867   7.217   7.572  14.534
31012SOL    HW194868   7.303   7.574  14.575
31012SOL    HW294869   7.233   7.539  14.445
31013SOL     OW94870   2.134   8.248   2.485
31013SOL    HW194871   2.047   8.244   2.525
31013SOL    HW294872   2.125   8.313   2.415
31014SOL     OW94873   9.385  12.427   5.759
31014SOL    HW194874   9.400  12.336   5.735
31014SOL    HW294875   9.410  12.432   5.851
31015SOL     OW94876  14.843  13.499  10.018
31015SOL    HW194877  14.785  13.452  10.077
31015SOL    HW294878  14.813  13.473   9.930
31016SOL     OW94879   6.362  14.550  14.074
31016SOL    HW194880   6.436  14.599  14.109
31016SOL    HW294881   6.336  14.492  14.145
31017SOL     OW94882   2.137   8.882   8.707
31017SOL    HW194883   2.143   8.790   8.681
31017SOL    HW294884   2.044   8.897   8.723
31018SOL     OW94885  10.615   4.098  14.714
31018SOL    HW194886  10.579   4.010  14.717
31018SOL    HW294887  10.697   4.089  14.665
31019SOL     OW94888   9.551  11.144  14.693
31019SOL    HW194889   9.607  11.146  14.771
31019SOL    HW294890   9.571  11.060  14.651
31020SOL     OW94891   0.939  13.708   1.265
31020SOL    HW194892   0.928  13.776   1.332
31020SOL    HW294893   0.921  13.626   1.311
31021SOL     OW94894  14.408  14.705   9.543
31021SOL    HW194895  14.460  14.777   9.579
31021SOL    HW294896  14.404  14.724   9.449
31022SOL     OW94897   5.575   1.455   3.491
31022SOL    HW194898   5.526   1.475   3.571
31022SOL    HW294899   5.519   1.392   3.445
31023SOL     OW94900  12.195   5.567   5.885
31023SOL    HW194901  12.142   5.644   5.865
31023SOL    HW294902  12.197   5.517   5.803
31024SOL     OW94903   8.138   2.836  10.318
31024SOL    HW194904   8.186   2.765  10.361
31024SOL    HW294905   8.196   2.912  10.325
31025SOL     OW94906  11.028   6.948   3.514
31025SOL    HW194907  10.932   6.938   3.517
31025SOL    HW294908  11.042   7.028   3.464
31026SOL     OW94909   0.794   8.905   6.437
31026SOL    HW194910   0.711   8.953   6.448
31026SOL    HW294911   0.851   8.967   6.392
31027SOL     OW94912   5.462   2.766  13.678
31027SOL    HW194913   5.464   2.730  13.589
31027SOL    HW294914   5.413   2.701  13.729
31028SOL     OW94915   5.339   3.985  13.644
31028SOL    HW194916   5.434   3.979  13.633
31028SOL    HW294917   5.307   3.897  13.628
31029SOL     OW94918   7.044   1.452   4.922
31029SOL    HW194919   6.981   1.398   4.873
31029SOL    HW294920   7.126   1.403   4.916
31030SOL     OW94921  11.970  13.317   0.661
31030SOL    HW194922  12.019  13.397   0.643
31030SOL    HW294923  11.907  13.312   0.589
31031SOL     OW94924   8.345   4.482   9.656
31031SOL    HW194925   8.339   4.573   9.685
31031SOL    HW294926   8.370   4.487   9.564
31032SOL     OW94927  10.276  11.342  11.864
31032SOL    HW194928  10.258  11.338  11.958
31032SOL    HW294929  10.304  11.253  11.841
31033SOL     OW94930   8.660  10.406   3.350
31033SOL    HW194931   8.632  10.473   3.288
31033SOL    HW294932   8.598  10.334   3.336
31034SOL     OW94933   6.948  10.820  11.781
31034SOL    HW194934   6.940  10.788  11.871
31034SOL    HW294935   6.879  10.886  11.773
31035SOL     OW94936  12.201   7.767  14.582
31035SOL    HW194937  12.173   7.859  14.583
31035SOL    HW294938  12.259   7.760  14.658
31036SOL     OW94939  13.380  11.426   3.851
31036SOL    HW194940  13.384  11.509   3.899
31036SOL    HW294941  13.308  11.378   3.891
31037SOL     OW94942  14.660   4.891   8.712
31037SOL    HW194943  14.753   4.916   8.715
31037SOL    HW294944  14.625   4.938   8.636
31038SOL     OW94945   8.539  13.696   8.593
31038SOL    HW194946   8.542  13.682   8.687
31038SOL    HW294947   8.574  13.615   8.555
31039SOL     OW94948   1.321  12.755   3.446
31039SOL    HW194949   1.226  12.765   3.442
31039SOL    HW294950   1.352  12.835   3.488
31040SOL     OW94951  13.631   2.299   8.881
31040SOL    HW194952  13.642   2.309   8.787
31040SOL    HW294953  13.538   2.277   8.893
31041SOL     OW94954  13.253   0.078   8.125
31041SOL    HW194955  13.289  14.865   8.125
31041SOL    HW294956  13.184   0.077   8.192
31042SOL     OW94957  13.951   1.944  11.766
31042SOL    HW194958  13.965   1.895  11.847
31042SOL    HW294959  13.884   2.009  11.789
31043SOL     OW94960  10.578   8.392  13.635
31043SOL    HW194961  10.671   8.383  13.655
31043SOL    HW294962  10.545   8.302  13.635
31044SOL     OW94963   4.839  11.349   7.373
31044SOL    HW194964   4.893  11.397   7.436
31044SOL    HW294965   4.753  11.341   7.416
31045SOL     OW94966  13.522  12.973  11.890
31045SOL    HW194967  13.439  12.926  11.891
31045SOL    HW294968  13.585  12.912  11.928
31046SOL     OW94969  11.655   8.803   6.103
31046SOL    HW194970  11.663   8.766   6.191
31046SOL    HW294971  11.619   8.732   6.050
31047SOL     OW94972   7.123   3.679  14.355
31047SOL    HW194973   7.053   3.745  14.364
31047SOL    HW294974   7.111   3.645  14.266
31048SOL     OW94975   3.497   4.381  13.170
31048SOL    HW194976   3.402   4.391  13.171
31048SOL    HW294977   3.529   4.454  13.116
31049SOL     OW94978   2.505   0.628   7.948
31049SOL    HW194979   2.593   0.664   7.955
31049SOL    HW294980   2.455   0.673   8.016
31050SOL     OW94981   1.646  12.201   4.052
31050SOL    HW194982   1.716  12.160   4.103
31050SOL    HW294983   1.565  12.163   4.086
31051SOL     OW94984  11.204  14.522   6.482
31051SOL    HW194985  11.248  14.487   6.559
31051SOL    HW294986  11.269  14.581   6.443
31052SOL     OW94987  14.257   4.611   7.449
31052SOL    HW194988  14.339   4.588   7.405
31052SOL    HW294989  14.198   4.637   7.379
31053SOL     OW94990  13.979  10.631   6.583
31053SOL    HW194991  13.997  10.718   6.549
31053SOL    HW294992  14.060  10.582   6.568
31054SOL     OW94993   6.935   0.867   2.144
31054SOL    HW194994   7.013   0.847   2.093
31054SOL    HW294995   6.865   0.818   2.101
31055SOL     OW94996   3.446   7.467  13.121
31055SOL    HW194997   3.478   7.396  13.176
31055SOL    HW294998   3.467   7.439  13.032
31056SOL     OW94999   8.236  12.464  11.200
31056SOL    HW195000   8.229  12.444  11.294
31056SOL    HW295001   8.201  12.553  11.192
31057SOL     OW95002   2.736  11.608   4.061
31057SOL    HW195003   2.787  11.592   4.140
31057SOL    HW295004   2.663  11.546   4.067
31058SOL     OW95005  14.170  11.303  11.685
31058SOL    HW195006  14.233  11.364  11.724
31058SOL    HW295007  14.092  11.312  11.740
31059SOL     OW95008   3.689  11.501   9.774
31059SOL    HW195009   3.753  11.530   9.839
31059SOL    HW295010   3.644  11.428   9.815
31060SOL     OW95011   0.237  14.396   7.356
31060SOL    HW195012   0.180  14.372   7.429
31060SOL    HW295013   0.216  14.332   7.287
31061SOL     OW95014   1.968   6.967  10.290
31061SOL    HW195015   2.057   6.942  10.316
31061SOL    HW295016   1.914   6.891  10.312
31062SOL     OW95017   8.101  12.045   9.063
31062SOL    HW195018   8.058  11.960   9.052
31062SOL    HW295019   8.037  12.099   9.109
31063SOL     OW95020   8.381   4.828   6.621
31063SOL    HW195021   8.393   4.921   6.636
31063SOL    HW295022   8.406   4.814   6.530
31064SOL     OW95023  14.270   7.374  11.142
31064SOL    HW195024  14.342   7.311  11.147
31064SOL    HW295025  14.200   7.334  11.194
31065SOL     OW95026   0.851   4.946   2.509
31065SOL    HW195027   0.848   5.037   2.477
31065SOL    HW295028   0.942   4.933   2.537
31066SOL     OW95029   9.524  13.765   3.441
31066SOL    HW195030   9.433  13.781   3.417
31066SOL    HW295031   9.561  13.718   3.367
31067SOL     OW95032   3.909   7.637   1.723
31067SOL    HW195033   3.845   7.667   1.788
31067SOL    HW295034   3.858   7.584   1.662
31068SOL     OW95035   5.031   5.722  10.194
31068SOL    HW195036   5.060   5.661  10.261
31068SOL    HW295037   5.042   5.809  10.234
31069SOL     OW95038  10.482  14.653   1.034
31069SOL    HW195039  10.432  14.644   1.115
31069SOL    HW295040  10.568  14.617   1.054
31070SOL     OW95041   9.476  13.493   1.340
31070SOL    HW195042   9.524  13.417   1.372
31070SOL    HW295043   9.500  13.564   1.401
31071SOL     OW95044   4.932   3.290   3.051
31071SOL    HW195045   4.892   3.272   2.966
31071SOL    HW295046   4.959   3.205   3.085
31072SOL     OW95047  11.099   6.553   7.423
31072SOL    HW195048  11.110   6.642   7.388
31072SOL    HW295049  11.079   6.500   7.346
31073SOL     OW95050  13.083   6.538   3.387
31073SOL    HW195051  13.157   6.524   3.446
31073SOL    HW295052  13.079   6.633   3.377
31074SOL     OW95053   8.509   7.807   6.790
31074SOL    HW195054   8.468   7.855   6.863
31074SOL    HW295055   8.436   7.787   6.731
31075SOL     OW95056   8.234   8.398   2.285
31075SOL    HW195057   8.230   8.405   2.380
31075SOL    HW295058   8.172   8.329   2.263
31076SOL     OW95059   3.644   4.100   8.647
31076SOL    HW195060   3.639   4.060   8.559
31076SOL    HW295061   3.735   4.127   8.655
31077SOL     OW95062   3.756   3.785  10.885
31077SOL    HW195063   3.851   3.793  10.878
31077SOL    HW295064   3.724   3.803  10.797
31078SOL     OW95065  10.499   3.289   2.947
31078SOL    HW195066  10.501   3.362   3.009
31078SOL    HW295067  10.463   3.216   2.998
31079SOL     OW95068   3.998   7.732  10.781
31079SOL    HW195069   4.001   7.822  10.750
31079SOL    HW295070   4.046   7.733  10.864
31080SOL     OW95071  10.426  11.620  10.660
31080SOL    HW195072  10.430  11.712  10.686
31080SOL    HW295073  10.517  11.589  10.667
31081SOL     OW95074   1.861   9.142  12.314
31081SOL    HW195075   1.849   9.206  12.384
31081SOL    HW295076   1.916   9.187  12.250
31082SOL     OW95077   0.173  11.469   5.295
31082SOL    HW195078   0.085  11.488   5.328
31082SOL    HW295079   0.216  11.423   5.366
31083SOL     OW95080   5.530   1.952   8.047
31083SOL    HW195081   5.584   1.959   8.125
31083SOL    HW295082   5.539   2.037   8.004
31084SOL     OW95083  10.253   4.480   9.278
31084SOL    HW195084  10.295   4.455   9.195
31084SOL    HW295085  10.321   4.528   9.325
31085SOL     OW95086   7.363   6.125   0.225
31085SOL    HW195087   7.382   6.045   0.275
31085SOL    HW295088   7.297   6.170   0.277
31086SOL     OW95089  10.655  12.732  14.621
31086SOL    HW195090  10.569  12.766  14.598
31086SOL    HW295091  10.637  12.652  14.671
31087SOL     OW95092  14.532   7.553  13.014
31087SOL    HW195093  14.591   7.530  13.086
31087SOL    HW295094  14.539   7.648  13.007
31088SOL     OW95095  13.948  11.952   9.796
31088SOL    HW195096  13.924  11.960   9.888
31088SOL    HW295097  13.985  11.864   9.790
31089SOL     OW95098   6.179   6.942   5.334
31089SOL    HW195099   6.251   6.979   5.384
31089SOL    HW295100   6.105   7.001   5.351
31090SOL     OW95101   7.261  13.319  13.104
31090SOL    HW195102   7.355  13.313  13.120
31090SOL    HW295103   7.241  13.412  13.113
31091SOL     OW95104   5.411   8.366   7.012
31091SOL    HW195105   5.369   8.286   7.044
31091SOL    HW295106   5.361   8.391   6.935
31092SOL     OW95107  11.437  10.483   7.290
31092SOL    HW195108  11.462  10.559   7.343
31092SOL    HW295109  11.378  10.432   7.345
31093SOL     OW95110   3.537   5.401   4.648
31093SOL    HW195111   3.547   5.429   4.556
31093SOL    HW295112   3.460   5.345   4.647
31094SOL     OW95113   0.158  11.714   4.230
31094SOL    HW195114   0.203  11.635   4.261
31094SOL    HW295115   0.160  11.774   4.305
31095SOL     OW95116   4.806   5.364  14.605
31095SOL    HW195117   4.810   5.312  14.524
31095SOL    HW295118   4.742   5.318  14.659
31096SOL     OW95119   6.477   4.115   6.154
31096SOL    HW195120   6.389   4.153   6.153
31096SOL    HW295121   6.535   4.188   6.134
31097SOL     OW95122   3.150  11.258   2.784
31097SOL    HW195123   3.221  11.203   2.749
31097SOL    HW295124   3.073  11.231   2.734
31098SOL     OW95125   6.617   6.072  12.581
31098SOL    HW195126   6.666   6.153  12.565
31098SOL    HW295127   6.613   6.029  12.495
31099SOL     OW95128   7.113   7.211   4.162
31099SOL    HW195129   7.126   7.151   4.236
31099SOL    HW295130   7.178   7.183   4.097
31100SOL     OW95131  12.155   1.029   7.327
31100SOL    HW195132  12.118   1.108   7.288
31100SOL    HW295133  12.079   0.981   7.361
31101SOL     OW95134   8.100   0.020   9.501
31101SOL    HW195135   8.117   0.052   9.590
31101SOL    HW295136   8.156  14.818   9.492
31102SOL     OW95137   6.814  10.751   6.297
31102SOL    HW195138   6.801  10.830   6.350
31102SOL    HW295139   6.885  10.704   6.341
31103SOL     OW95140   5.355   0.898  13.051
31103SOL    HW195141   5.329   0.863  12.965
31103SOL    HW295142   5.448   0.879  13.056
31104SOL     OW95143   5.988   6.636  13.776
31104SOL    HW195144   5.916   6.682  13.820
31104SOL    HW295145   5.958   6.624  13.686
31105SOL     OW95146  11.363   7.752  11.720
31105SOL    HW195147  11.333   7.797  11.799
31105SOL    HW295148  11.458   7.744  11.732
31106SOL     OW95149   6.734   1.110   3.390
31106SOL    HW195150   6.810   1.126   3.446
31106SOL    HW295151   6.715   1.195   3.351
31107SOL     OW95152   6.020   2.646  10.255
31107SOL    HW195153   5.938   2.606  10.286
31107SOL    HW295154   6.018   2.735  10.292
31108SOL     OW95155   1.431   6.767  14.633
31108SOL    HW195156   1.414   6.821  14.710
31108SOL    HW295157   1.421   6.677  14.665
31109SOL     OW95158  14.300  11.031   3.171
31109SOL    HW195159  14.256  11.099   3.222
31109SOL    HW295160  14.257  11.034   3.086
31110SOL     OW95161   2.096   4.483   4.393
31110SOL    HW195162   2.039   4.475   4.317
31110SOL    HW295163   2.098   4.395   4.431
31111SOL     OW95164   6.710   4.405   0.889
31111SOL    HW195165   6.648   4.383   0.820
31111SOL    HW295166   6.670   4.372   0.969
31112SOL     OW95167   0.332   3.837  12.280
31112SOL    HW195168   0.319   3.818  12.187
31112SOL    HW295169   0.391   3.768  12.310
31113SOL     OW95170  14.173   4.537   7.719
31113SOL    HW195171  14.118   4.462   7.695
31113SOL    HW295172  14.210   4.567   7.637
31114SOL     OW95173   6.158  12.328   5.583
31114SOL    HW195174   6.179  12.316   5.490
31114SOL    HW295175   6.196  12.251   5.626
31115SOL     OW95176   0.226  13.493   1.382
31115SOL    HW195177   0.320  13.508   1.374
31115SOL    HW295178   0.216  13.452   1.468
31116SOL     OW95179  13.163   3.185   5.337
31116SOL    HW195180  13.211   3.150   5.412
31116SOL    HW295181  13.183   3.124   5.266
31117SOL     OW95182   9.722   4.249   4.331
31117SOL    HW195183   9.799   4.195   4.343
31117SOL    HW295184   9.678   4.213   4.255
31118SOL     OW95185   1.249   5.065   6.191
31118SOL    HW195186   1.207   5.007   6.128
31118SOL    HW295187   1.336   5.082   6.155
31119SOL     OW95188   3.102   2.619   0.468
31119SOL    HW195189   3.156   2.677   0.521
31119SOL    HW295190   3.161   2.584   0.402
31120SOL     OW95191   6.048   7.852  13.522
31120SOL    HW195192   6.018   7.910  13.452
31120SOL    HW295193   6.053   7.766  13.481
31121SOL     OW95194   8.018   3.006  12.647
31121SOL    HW195195   7.991   2.930  12.595
31121SOL    HW295196   7.959   3.076  12.620
31122SOL     OW95197   6.055   6.233   1.064
31122SOL    HW195198   6.132   6.210   1.116
31122SOL    HW295199   6.076   6.319   1.027
31123SOL     OW95200   6.376  12.688  12.418
31123SOL    HW195201   6.406  12.617  12.361
31123SOL    HW295202   6.340  12.644  12.495
31124SOL     OW95203   1.861   8.988   1.932
31124SOL    HW195204   1.782   9.025   1.971
31124SOL    HW295205   1.902   9.061   1.885
31125SOL     OW95206   8.081   8.096   1.895
31125SOL    HW195207   8.064   8.009   1.932
31125SOL    HW295208   8.114   8.078   1.807
31126SOL     OW95209   8.566   4.919  12.590
31126SOL    HW195210   8.560   4.832  12.629
31126SOL    HW295211   8.659   4.930  12.571
31127SOL     OW95212   7.224  10.796  12.109
31127SOL    HW195213   7.165  10.738  12.061
31127SOL    HW295214   7.269  10.739  12.171
31128SOL     OW95215   0.150   0.617  12.205
31128SOL    HW195216   0.173   0.598  12.296
31128SOL    HW295217   0.167   0.711  12.195
31129SOL     OW95218  10.780   1.470   8.777
31129SOL    HW195219  10.750   1.483   8.867
31129SOL    HW295220  10.875   1.482   8.782
31130SOL     OW95221   8.116  12.786   8.172
31130SOL    HW195222   8.039  12.730   8.165
31130SOL    HW295223   8.166  12.770   8.092
31131SOL     OW95224  12.463   0.711   7.151
31131SOL    HW195225  12.424   0.631   7.115
31131SOL    HW295226  12.437   0.780   7.090
31132SOL     OW95227   6.914   8.721   6.569
31132SOL    HW195228   6.819   8.719   6.577
31132SOL    HW295229   6.935   8.650   6.508
31133SOL     OW95230   4.178   7.551   2.518
31133SOL    HW195231   4.144   7.461   2.516
31133SOL    HW295232   4.253   7.549   2.458
31134SOL     OW95233   6.205   7.320   4.013
31134SOL    HW195234   6.264   7.320   3.938
31134SOL    HW295235   6.204   7.411   4.042
31135SOL     OW95236  11.144   0.887   5.701
31135SOL    HW195237  11.178   0.845   5.621
31135SOL    HW295238  11.205   0.860   5.770
31136SOL     OW95239   2.526   1.135   4.064
31136SOL    HW195240   2.583   1.174   3.998
31136SOL    HW295241   2.471   1.207   4.095
31137SOL     OW95242  14.040   7.953   4.964
31137SOL    HW195243  14.080   7.868   4.944
31137SOL    HW295244  13.947   7.942   4.944
31138SOL     OW95245   8.474   7.750  10.751
31138SOL    HW195246   8.389   7.739  10.794
31138SOL    HW295247   8.538   7.738  10.822
31139SOL     OW95248   5.480   4.797   5.035
31139SOL    HW195249   5.544   4.865   5.059
31139SOL    HW295250   5.478   4.739   5.110
31140SOL     OW95251  11.246   1.890   2.179
31140SOL    HW195252  11.254   1.921   2.269
31140SOL    HW295253  11.152   1.873   2.168
31141SOL     OW95254  11.854   4.072  12.711
31141SOL    HW195255  11.848   4.154  12.761
31141SOL    HW295256  11.799   4.088  12.634
31142SOL     OW95257  10.244   5.406  14.599
31142SOL    HW195258  10.310   5.337  14.599
31142SOL    HW295259  10.264   5.458  14.677
31143SOL     OW95260  12.225   3.367  11.718
31143SOL    HW195261  12.132   3.357  11.740
31143SOL    HW295262  12.261   3.418  11.791
31144SOL     OW95263  10.027   9.799   2.796
31144SOL    HW195264   9.984   9.883   2.782
31144SOL    HW295265  10.021   9.784   2.890
31145SOL     OW95266   5.887   2.066   1.217
31145SOL    HW195267   5.816   2.013   1.252
31145SOL    HW295268   5.859   2.156   1.231
31146SOL     OW95269   6.397   6.553  11.237
31146SOL    HW195270   6.484   6.559  11.276
31146SOL    HW295271   6.368   6.463  11.254
31147SOL     OW95272   0.817   1.833   8.502
31147SOL    HW195273   0.823   1.921   8.464
31147SOL    HW295274   0.906   1.813   8.530
31148SOL     OW95275   2.354   3.182   5.377
31148SOL    HW195276   2.271   3.136   5.367
31148SOL    HW295277   2.340   3.243   5.449
31149SOL     OW95278   2.540  11.798   2.166
31149SOL    HW195279   2.611  11.758   2.115
31149SOL    HW295280   2.548  11.759   2.253
31150SOL     OW95281   1.274  10.809   8.786
31150SOL    HW195282   1.229  10.880   8.833
31150SOL    HW295283   1.306  10.851   8.706
31151SOL     OW95284  10.558   1.227  11.863
31151SOL    HW195285  10.588   1.248  11.952
31151SOL    HW295286  10.588   1.301  11.810
31152SOL     OW95287   5.351   5.350  13.780
31152SOL    HW195288   5.412   5.400  13.726
31152SOL    HW295289   5.387   5.261  13.781
31153SOL     OW95290   7.446   2.614  10.862
31153SOL    HW195291   7.442   2.546  10.794
31153SOL    HW295292   7.430   2.696  10.815
31154SOL     OW95293   0.029   8.340   2.191
31154SOL    HW195294   0.002   8.326   2.282
31154SOL    HW295295   0.027   8.252   2.152
31155SOL     OW95296   9.027   6.650  10.476
31155SOL    HW195297   9.108   6.613  10.512
31155SOL    HW295298   8.962   6.637  10.545
31156SOL     OW95299  13.519   4.793   8.871
31156SOL    HW195300  13.597   4.745   8.899
31156SOL    HW295301  13.449   4.760   8.927
31157SOL     OW95302   3.503   3.074  13.345
31157SOL    HW195303   3.469   3.132  13.413
31157SOL    HW295304   3.562   3.130  13.294
31158SOL     OW95305   3.858   7.623   6.246
31158SOL    HW195306   3.817   7.635   6.332
31158SOL    HW295307   3.887   7.532   6.247
31159SOL     OW95308  12.005  13.753   5.741
31159SOL    HW195309  12.005  13.774   5.834
31159SOL    HW295310  11.961  13.669   5.735
31160SOL     OW95311  14.865  14.378   4.183
31160SOL    HW195312  14.865  14.286   4.205
31160SOL    HW295313  14.834  14.381   4.092
31161SOL     OW95314  12.283   5.696   1.806
31161SOL    HW195315  12.228   5.771   1.782
31161SOL    HW295316  12.266   5.631   1.737
31162SOL     OW95317   7.833  12.936   6.929
31162SOL    HW195318   7.778  12.938   6.850
31162SOL    HW295319   7.913  12.891   6.901
31163SOL     OW95320   6.450   6.644   8.934
31163SOL    HW195321   6.435   6.694   9.014
31163SOL    HW295322   6.544   6.631   8.931
31164SOL     OW95323  12.317   7.278  12.179
31164SOL    HW195324  12.399   7.310  12.142
31164SOL    HW295325  12.264   7.253  12.103
31165SOL     OW95326   8.486  13.532   9.947
31165SOL    HW195327   8.566  13.485   9.925
31165SOL    HW295328   8.463  13.579   9.867
31166SOL     OW95329  13.666   8.105  11.164
31166SOL    HW195330  13.638   8.152  11.242
31166SOL    HW295331  13.592   8.114  11.103
31167SOL     OW95332   7.382  11.737   6.036
31167SOL    HW195333   7.334  11.664   5.996
31167SOL    HW295334   7.364  11.811   5.977
31168SOL     OW95335   3.175  12.247   7.020
31168SOL    HW195336   3.194  12.182   7.088
31168SOL    HW295337   3.102  12.209   6.971
31169SOL     OW95338  13.851   3.107  14.377
31169SOL    HW195339  13.791   3.033  14.381
31169SOL    HW295340  13.817   3.162  14.306
31170SOL     OW95341   6.648   6.953   5.247
31170SOL    HW195342   6.620   7.038   5.281
31170SOL    HW295343   6.706   6.919   5.316
31171SOL     OW95344   5.619   5.423   1.701
31171SOL    HW195345   5.557   5.417   1.773
31171SOL    HW295346   5.643   5.515   1.697
31172SOL     OW95347   1.572   4.758   9.336
31172SOL    HW195348   1.502   4.744   9.399
31172SOL    HW295349   1.652   4.757   9.388
31173SOL     OW95350  12.338   4.433   9.423
31173SOL    HW195351  12.409   4.464   9.366
31173SOL    HW295352  12.317   4.346   9.389
31174SOL     OW95353   3.730   1.281   0.131
31174SOL    HW195354   3.818   1.300   0.097
31174SOL    HW295355   3.708   1.356   0.185
31175SOL     OW95356  12.226   6.485   4.207
31175SOL    HW195357  12.245   6.399   4.246
31175SOL    HW295358  12.135   6.502   4.230
31176SOL     OW95359  12.316  14.440  12.001
31176SOL    HW195360  12.343  14.396  11.920
31176SOL    HW295361  12.230  14.475  11.982
31177SOL     OW95362   4.565  14.810   9.566
31177SOL    HW195363   4.484  14.801   9.615
31177SOL    HW295364   4.540  14.859   9.487
31178SOL     OW95365   5.879   2.731  12.785
31178SOL    HW195366   5.847   2.665  12.845
31178SOL    HW295367   5.915   2.682  12.711
31179SOL     OW95368   9.569   1.320   4.028
31179SOL    HW195369   9.596   1.294   4.116
31179SOL    HW295370   9.645   1.366   3.992
31180SOL     OW95371  12.322   3.495  10.121
31180SOL    HW195372  12.232   3.512  10.150
31180SOL    HW295373  12.334   3.401  10.132
31181SOL     OW95374   7.500   1.015   6.311
31181SOL    HW195375   7.571   1.078   6.300
31181SOL    HW295376   7.495   0.970   6.227
31182SOL     OW95377  14.049  11.922   6.991
31182SOL    HW195378  13.975  11.965   7.034
31182SOL    HW295379  14.013  11.839   6.960
31183SOL     OW95380  12.994  12.710  13.692
31183SOL    HW195381  12.942  12.747  13.764
31183SOL    HW295382  12.936  12.715  13.616
31184SOL     OW95383   7.307  10.229  10.404
31184SOL    HW195384   7.341  10.166  10.341
31184SOL    HW295385   7.336  10.314  10.370
31185SOL     OW95386   8.879   5.334   5.484
31185SOL    HW195387   8.843   5.379   5.407
31185SOL    HW295388   8.973   5.352   5.481
31186SOL     OW95389   9.644   3.312  12.127
31186SOL    HW195390   9.708   3.254  12.086
31186SOL    HW295391   9.598   3.353  12.053
31187SOL     OW95392   4.421   5.925  12.958
31187SOL    HW195393   4.459   5.867  13.023
31187SOL    HW295394   4.492   5.941  12.896
31188SOL     OW95395  12.076   2.898   7.384
31188SOL    HW195396  12.010   2.873   7.320
31188SOL    HW295397  12.058   2.843   7.460
31189SOL     OW95398  13.906   1.250   3.908
31189SOL    HW195399  13.902   1.154   3.904
31189SOL    HW295400  13.863   1.278   3.827
31190SOL     OW95401   0.692  12.096   9.287
31190SOL    HW195402   0.612  12.143   9.264
31190SOL    HW295403   0.724  12.141   9.365
31191SOL     OW95404  10.877   5.678   2.248
31191SOL    HW195405  10.832   5.637   2.174
31191SOL    HW295406  10.901   5.605   2.305
31192SOL     OW95407   7.328   3.989   2.826
31192SOL    HW195408   7.243   4.006   2.784
31192SOL    HW295409   7.310   3.920   2.889
31193SOL     OW95410   2.647  14.440   1.575
31193SOL    HW195411   2.725  14.482   1.538
31193SOL    HW295412   2.574  14.475   1.523
31194SOL     OW95413   2.039   7.504   0.048
31194SOL    HW195414   2.019   7.425  14.874
31194SOL    HW295415   2.099   7.475   0.117
31195SOL     OW95416   8.913   7.138  12.745
31195SOL    HW195417   8.946   7.228  12.750
31195SOL    HW295418   8.823   7.148  12.714
31196SOL     OW95419   2.165   6.282  12.636
31196SOL    HW195420   2.183   6.198  12.679
31196SOL    HW295421   2.100   6.324  12.692
31197SOL     OW95422  14.717   5.716  13.938
31197SOL    HW195423  14.793   5.667  13.970
31197SOL    HW295424  14.751   5.803  13.918
31198SOL     OW95425  13.275   6.947  13.847
31198SOL    HW195426  13.250   6.911  13.762
31198SOL    HW295427  13.310   6.873  13.896
31199SOL     OW95428   8.297   8.724   6.723
31199SOL    HW195429   8.278   8.807   6.765
31199SOL    HW295430   8.282   8.658   6.791
31200SOL     OW95431  14.411   6.180  14.007
31200SOL    HW195432  14.505   6.166  13.994
31200SOL    HW295433  14.405   6.264  14.053
31201SOL     OW95434  12.321   7.756  13.539
31201SOL    HW195435  12.230   7.774  13.564
31201SOL    HW295436  12.321   7.760  13.444
31202SOL     OW95437   5.818   7.888   1.530
31202SOL    HW195438   5.879   7.947   1.486
31202SOL    HW295439   5.748   7.873   1.466
31203SOL     OW95440   0.365   8.596   9.163
31203SOL    HW195441   0.448   8.593   9.116
31203SOL    HW295442   0.300   8.564   9.101
31204SOL     OW95443   6.908   8.315   3.332
31204SOL    HW195444   6.853   8.362   3.394
31204SOL    HW295445   6.879   8.224   3.337
31205SOL     OW95446   2.379  10.809  10.911
31205SOL    HW195447   2.400  10.892  10.955
31205SOL    HW295448   2.308  10.831  10.851
31206SOL     OW95449   7.604   5.708   2.337
31206SOL    HW195450   7.694   5.736   2.353
31206SOL    HW295451   7.579   5.752   2.256
31207SOL     OW95452   4.530  10.485   4.041
31207SOL    HW195453   4.458  10.523   3.990
31207SOL    HW295454   4.505  10.394   4.053
31208SOL     OW95455   1.198   9.821  11.137
31208SOL    HW195456   1.166   9.766  11.066
31208SOL    HW295457   1.166   9.909  11.116
31209SOL     OW95458   2.773   3.556  12.954
31209SOL    HW195459   2.813   3.631  12.911
31209SOL    HW295460   2.689   3.587  12.987
31210SOL     OW95461   6.791   3.245   8.172
31210SOL    HW195462   6.793   3.300   8.093
31210SOL    HW295463   6.724   3.285   8.227
31211SOL     OW95464  11.056   4.404   8.059
31211SOL    HW195465  11.046   4.456   8.138
31211SOL    HW295466  11.136   4.352   8.074
31212SOL     OW95467   3.875   3.432   5.921
31212SOL    HW195468   3.842   3.468   5.839
31212SOL    HW295469   3.797   3.427   5.977
31213SOL     OW95470   4.815  13.782   0.285
31213SOL    HW195471   4.839  13.749   0.199
31213SOL    HW295472   4.758  13.857   0.266
31214SOL     OW95473  10.863   0.969   5.639
31214SOL    HW195474  10.952   1.006   5.637
31214SOL    HW295475  10.877   0.875   5.646
31215SOL     OW95476   8.217   4.166  13.307
31215SOL    HW195477   8.307   4.176  13.339
31215SOL    HW295478   8.224   4.179  13.212
31216SOL     OW95479   4.800  12.393   8.393
31216SOL    HW195480   4.724  12.385   8.336
31216SOL    HW295481   4.763  12.401   8.481
31217SOL     OW95482  14.483   4.725   8.077
31217SOL    HW195483  14.547   4.790   8.046
31217SOL    HW295484  14.398   4.766   8.062
31218SOL     OW95485   1.515  14.178  12.325
31218SOL    HW195486   1.460  14.105  12.296
31218SOL    HW295487   1.486  14.253  12.272
31219SOL     OW95488  10.072   7.133  12.209
31219SOL    HW195489  10.116   7.199  12.262
31219SOL    HW295490   9.989   7.117  12.254
31220SOL     OW95491   3.176   6.065   1.950
31220SOL    HW195492   3.236   6.057   2.024
31220SOL    HW295493   3.229   6.100   1.879
31221SOL     OW95494   6.084   2.331   9.654
31221SOL    HW195495   6.077   2.407   9.596
31221SOL    HW295496   6.081   2.255   9.595
31222SOL     OW95497  14.400  10.892  12.009
31222SOL    HW195498  14.383  10.963  12.071
31222SOL    HW295499  14.479  10.849  12.043
31223SOL     OW95500   2.892   8.885  12.919
31223SOL    HW195501   2.911   8.965  12.870
31223SOL    HW295502   2.804   8.860  12.890
31224SOL     OW95503   2.370  12.913   4.679
31224SOL    HW195504   2.436  12.895   4.612
31224SOL    HW295505   2.414  12.971   4.741
31225SOL     OW95506  12.271   1.249  11.929
31225SOL    HW195507  12.358   1.222  11.901
31225SOL    HW295508  12.238   1.174  11.979
31226SOL     OW95509   0.683   2.007   7.021
31226SOL    HW195510   0.736   1.995   7.100
31226SOL    HW295511   0.747   2.008   6.950
31227SOL     OW95512  12.897   0.366   8.962
31227SOL    HW195513  12.841   0.300   8.920
31227SOL    HW295514  12.986   0.343   8.935
31228SOL     OW95515   0.553   7.187  12.383
31228SOL    HW195516   0.509   7.258  12.430
31228SOL    HW295517   0.504   7.178  12.302
31229SOL     OW95518  10.202   8.171   9.926
31229SOL    HW195519  10.149   8.137   9.854
31229SOL    HW295520  10.252   8.096   9.958
31230SOL     OW95521   6.082  11.649   7.650
31230SOL    HW195522   5.996  11.611   7.631
31230SOL    HW295523   6.070  11.743   7.638
31231SOL     OW95524  11.727  14.007   1.092
31231SOL    HW195525  11.646  13.956   1.094
31231SOL    HW295526  11.708  14.084   1.145
31232SOL     OW95527   9.451   6.943  12.762
31232SOL    HW195528   9.537   6.938  12.802
31232SOL    HW295529   9.464   6.995  12.682
31233SOL     OW95530  14.393   5.506   8.619
31233SOL    HW195531  14.439   5.436   8.664
31233SOL    HW295532  14.332   5.541   8.685
31234SOL     OW95533   4.144  10.078  10.951
31234SOL    HW195534   4.205  10.073  11.025
31234SOL    HW295535   4.199  10.105  10.877
31235SOL     OW95536  12.303   2.548   8.420
31235SOL    HW195537  12.260   2.613   8.365
31235SOL    HW295538  12.354   2.599   8.482
31236SOL     OW95539  13.754  12.675   1.719
31236SOL    HW195540  13.846  12.700   1.718
31236SOL    HW295541  13.739  12.638   1.806
31237SOL     OW95542   0.213   3.861   2.290
31237SOL    HW195543   0.209   3.813   2.207
31237SOL    HW295544   0.125   3.852   2.327
31238SOL     OW95545   3.389  12.518  12.020
31238SOL    HW195546   3.444  12.586  11.981
31238SOL    HW295547   3.437  12.436  12.004
31239SOL     OW95548   4.986   8.778  12.943
31239SOL    HW195549   4.997   8.755  13.035
31239SOL    HW295550   4.989   8.873  12.941
31240SOL     OW95551  13.433  10.068   0.327
31240SOL    HW195552  13.444  10.157   0.295
31240SOL    HW295553  13.421  10.077   0.421
31241SOL     OW95554   0.246  10.556   8.345
31241SOL    HW195555   0.242  10.460   8.341
31241SOL    HW295556   0.271  10.583   8.257
31242SOL     OW95557   1.614   4.536   6.297
31242SOL    HW195558   1.702   4.556   6.264
31242SOL    HW295559   1.601   4.444   6.278
31243SOL     OW95560   4.643   6.326   9.950
31243SOL    HW195561   4.653   6.299   9.858
31243SOL    HW295562   4.622   6.245   9.996
31244SOL     OW95563   5.210  13.846   3.044
31244SOL    HW195564   5.304  13.846   3.065
31244SOL    HW295565   5.195  13.930   3.000
31245SOL     OW95566   5.110   2.386  10.673
31245SOL    HW195567   5.048   2.314  10.662
31245SOL    HW295568   5.118   2.425  10.586
31246SOL     OW95569  12.220   2.453  10.323
31246SOL    HW195570  12.297   2.482  10.373
31246SOL    HW295571  12.183   2.381  10.374
31247SOL     OW95572  11.700   1.039   1.104
31247SOL    HW195573  11.621   1.033   1.050
31247SOL    HW295574  11.675   1.093   1.178
31248SOL     OW95575   6.080  12.671  13.524
31248SOL    HW195576   6.144  12.666  13.595
31248SOL    HW295577   5.995  12.667  13.568
31249SOL     OW95578   7.997   6.484   9.505
31249SOL    HW195579   7.982   6.495   9.599
31249SOL    HW295580   7.925   6.428   9.476
31250SOL     OW95581   2.915   4.738   3.198
31250SOL    HW195582   2.871   4.783   3.127
31250SOL    HW295583   2.993   4.791   3.217
31251SOL     OW95584  14.623   6.617  13.547
31251SOL    HW195585  14.634   6.617  13.642
31251SOL    HW295586  14.702   6.575  13.513
31252SOL     OW95587   9.654   7.615   9.784
31252SOL    HW195588   9.663   7.537   9.730
31252SOL    HW295589   9.572   7.654   9.755
31253SOL     OW95590   4.315   8.937   6.768
31253SOL    HW195591   4.228   8.970   6.745
31253SOL    HW295592   4.335   8.873   6.700
31254SOL     OW95593   5.239   5.011  12.224
31254SOL    HW195594   5.276   4.923  12.225
31254SOL    HW295595   5.211   5.026  12.314
31255SOL     OW95596   2.466  14.840   5.891
31255SOL    HW195597   2.452  14.761   5.838
31255SOL    HW295598   2.422   0.033   5.842
31256SOL     OW95599   0.180   7.934  10.549
31256SOL    HW195600   0.120   8.007  10.565
31256SOL    HW295601   0.154   7.868  10.614
31257SOL     OW95602   3.922   6.464   8.590
31257SOL    HW195603   3.888   6.513   8.515
31257SOL    HW295604   3.929   6.530   8.660
31258SOL     OW95605   6.773   6.327   8.288
31258SOL    HW195606   6.866   6.335   8.309
31258SOL    HW295607   6.740   6.261   8.349
31259SOL     OW95608  14.274   2.500  14.566
31259SOL    HW195609  14.220   2.448  14.508
31259SOL    HW295610  14.222   2.509  14.646
31260SOL     OW95611   8.667   0.708  12.974
31260SOL    HW195612   8.619   0.783  13.009
31260SOL    HW295613   8.661   0.718  12.879
31261SOL     OW95614   5.693  11.455   4.517
31261SOL    HW195615   5.782  11.434   4.546
31261SOL    HW295616   5.676  11.542   4.555
31262SOL     OW95617   8.173   7.616   6.948
31262SOL    HW195618   8.144   7.530   6.919
31262SOL    HW295619   8.099   7.674   6.930
31263SOL     OW95620  12.064  11.684   0.580
31263SOL    HW195621  12.124  11.656   0.511
31263SOL    HW295622  11.991  11.725   0.533
31264SOL     OW95623   6.506   9.948   0.230
31264SOL    HW195624   6.522  10.016   0.295
31264SOL    HW295625   6.435   9.983   0.176
31265SOL     OW95626   2.269   2.116   7.129
31265SOL    HW195627   2.309   2.203   7.135
31265SOL    HW295628   2.176   2.132   7.140
31266SOL     OW95629   2.661   8.464  14.287
31266SOL    HW195630   2.701   8.550  14.276
31266SOL    HW295631   2.577   8.470  14.243
31267SOL     OW95632  10.990   1.686   4.085
31267SOL    HW195633  10.987   1.620   4.155
31267SOL    HW295634  10.906   1.731   4.091
31268SOL     OW95635   6.389  11.699   3.498
31268SOL    HW195636   6.308  11.672   3.455
31268SOL    HW295637   6.457  11.688   3.431
31269SOL     OW95638   7.369  12.226   0.286
31269SOL    HW195639   7.287  12.176   0.277
31269SOL    HW295640   7.415  12.182   0.357
31270SOL     OW95641   7.368   8.795   9.736
31270SOL    HW195642   7.383   8.734   9.808
31270SOL    HW295643   7.290   8.761   9.692
31271SOL     OW95644   0.504   0.632  10.071
31271SOL    HW195645   0.461   0.547  10.071
31271SOL    HW295646   0.440   0.691  10.113
31272SOL     OW95647   1.971  12.746   1.766
31272SOL    HW195648   2.007  12.831   1.792
31272SOL    HW295649   1.900  12.767   1.706
31273SOL     OW95650   1.045  12.223   1.660
31273SOL    HW195651   0.968  12.184   1.619
31273SOL    HW295652   1.093  12.148   1.696
31274SOL     OW95653   7.045  14.321   9.185
31274SOL    HW195654   7.133  14.320   9.221
31274SOL    HW295655   7.057  14.328   9.091
31275SOL     OW95656  10.298   4.469   1.168
31275SOL    HW195657  10.238   4.523   1.117
31275SOL    HW295658  10.260   4.381   1.165
31276SOL     OW95659   4.821   2.363   3.355
31276SOL    HW195660   4.910   2.384   3.329
31276SOL    HW295661   4.781   2.448   3.375
31277SOL     OW95662   4.257  12.385   0.352
31277SOL    HW195663   4.177  12.423   0.317
31277SOL    HW295664   4.233  12.352   0.438
31278SOL     OW95665   6.741   7.478   9.428
31278SOL    HW195666   6.812   7.440   9.377
31278SOL    HW295667   6.766   7.463   9.520
31279SOL     OW95668  12.478   2.515   9.016
31279SOL    HW195669  12.507   2.423   9.014
31279SOL    HW295670  12.475   2.537   9.109
31280SOL     OW95671   7.568   7.094  10.382
31280SOL    HW195672   7.569   7.033  10.308
31280SOL    HW295673   7.653   7.138  10.378
31281SOL     OW95674  14.025   4.915   5.855
31281SOL    HW195675  13.933   4.894   5.839
31281SOL    HW295676  14.070   4.888   5.776
31282SOL     OW95677   0.394   7.273  13.406
31282SOL    HW195678   0.427   7.191  13.442
31282SOL    HW295679   0.469   7.332  13.406
31283SOL     OW95680   3.946   0.674   5.972
31283SOL    HW195681   3.901   0.620   6.037
31283SOL    HW295682   3.914   0.641   5.888
31284SOL     OW95683   0.994   7.326   0.653
31284SOL    HW195684   0.958   7.258   0.595
31284SOL    HW295685   0.952   7.310   0.737
31285SOL     OW95686   0.645  10.512  14.258
31285SOL    HW195687   0.731  10.485  14.226
31285SOL    HW295688   0.614  10.437  14.310
31286SOL     OW95689   8.110   2.926  11.513
31286SOL    HW195690   8.154   2.893  11.435
31286SOL    HW295691   8.077   2.849  11.557
31287SOL     OW95692   8.434  14.279   6.932
31287SOL    HW195693   8.498  14.279   7.003
31287SOL    HW295694   8.352  14.255   6.974
31288SOL     OW95695   1.553  11.007   6.781
31288SOL    HW195696   1.483  11.052   6.734
31288SOL    HW295697   1.522  11.003   6.872
31289SOL     OW95698  14.145   6.855   5.943
31289SOL    HW195699  14.062   6.897   5.921
31289SOL    HW295700  14.153   6.867   6.037
31290SOL     OW95701   4.825   6.060   0.969
31290SOL    HW195702   4.899   6.086   0.915
31290SOL    HW295703   4.791   6.142   1.005
31291SOL     OW95704   4.276  10.084   3.521
31291SOL    HW195705   4.192  10.054   3.557
31291SOL    HW295706   4.335  10.009   3.534
31292SOL     OW95707   1.219   9.773   8.679
31292SOL    HW195708   1.280   9.829   8.728
31292SOL    HW295709   1.149   9.831   8.651
31293SOL     OW95710   7.019  12.103  10.897
31293SOL    HW195711   7.036  12.141  10.811
31293SOL    HW295712   6.928  12.073  10.892
31294SOL     OW95713  13.382   9.670   3.320
31294SOL    HW195714  13.363   9.581   3.288
31294SOL    HW295715  13.458   9.698   3.270
31295SOL     OW95716   2.598   0.420   2.133
31295SOL    HW195717   2.661   0.391   2.199
31295SOL    HW295718   2.518   0.372   2.154
31296SOL     OW95719   7.061  13.460   2.575
31296SOL    HW195720   6.990  13.523   2.564
31296SOL    HW295721   7.058  13.406   2.495
31297SOL     OW95722  12.152  14.697  11.156
31297SOL    HW195723  12.086  14.627  11.153
31297SOL    HW295724  12.236  14.652  11.155
31298SOL     OW95725   5.727   9.405   7.667
31298SOL    HW195726   5.797   9.415   7.602
31298SOL    HW295727   5.732   9.313   7.693
31299SOL     OW95728   8.908   3.405   3.930
31299SOL    HW195729   8.832   3.409   3.873
31299SOL    HW295730   8.937   3.495   3.938
31300SOL     OW95731   6.917   9.353   2.980
31300SOL    HW195732   6.887   9.296   2.908
31300SOL    HW295733   6.954   9.429   2.936
31301SOL     OW95734   9.825  12.267   2.763
31301SOL    HW195735   9.798  12.242   2.851
31301SOL    HW295736   9.748  12.308   2.724
31302SOL     OW95737   8.380  10.148   5.636
31302SOL    HW195738   8.471  10.177   5.628
31302SOL    HW295739   8.333  10.197   5.568
31303SOL     OW95740   3.620   8.130   0.702
31303SOL    HW195741   3.578   8.171   0.627
31303SOL    HW295742   3.609   8.193   0.773
31304SOL     OW95743   1.919  14.555   2.937
31304SOL    HW195744   1.999  14.565   2.990
31304SOL    HW295745   1.848  14.576   2.997
31305SOL     OW95746   3.820  11.614  11.671
31305SOL    HW195747   3.783  11.581  11.753
31305SOL    HW295748   3.853  11.701  11.693
31306SOL     OW95749  10.354  11.230   7.637
31306SOL    HW195750  10.292  11.244   7.566
31306SOL    HW295751  10.393  11.144   7.619
31307SOL     OW95752  11.339   8.852   5.116
31307SOL    HW195753  11.245   8.835   5.113
31307SOL    HW295754  11.372   8.817   5.033
31308SOL     OW95755  10.346   5.397   1.137
31308SOL    HW195756  10.389   5.415   1.053
31308SOL    HW295757  10.413   5.353   1.190
31309SOL     OW95758   0.013   1.543  13.328
31309SOL    HW195759   0.091   1.564  13.380
31309SOL    HW295760  14.817   1.546  13.391
31310SOL     OW95761   4.902  13.245  13.713
31310SOL    HW195762   4.985  13.231  13.760
31310SOL    HW295763   4.917  13.326  13.663
31311SOL     OW95764  14.325   1.938   5.557
31311SOL    HW195765  14.395   1.979   5.609
31311SOL    HW295766  14.371   1.900   5.482
31312SOL     OW95767   6.320   3.286  12.450
31312SOL    HW195768   6.251   3.253  12.508
31312SOL    HW295769   6.273   3.340  12.386
31313SOL     OW95770   8.172   4.260  13.549
31313SOL    HW195771   8.183   4.223  13.461
31313SOL    HW295772   8.191   4.353  13.538
31314SOL     OW95773   3.525   7.010   5.500
31314SOL    HW195774   3.617   7.026   5.478
31314SOL    HW295775   3.477   7.033   5.420
31315SOL     OW95776   0.278   9.356  13.337
31315SOL    HW195777   0.212   9.393  13.396
31315SOL    HW295778   0.304   9.429  13.281
31316SOL     OW95779   0.854  12.413   7.417
31316SOL    HW195780   0.840  12.484   7.354
31316SOL    HW295781   0.930  12.442   7.469
31317SOL     OW95782   1.818   3.748   2.750
31317SOL    HW195783   1.793   3.678   2.690
31317SOL    HW295784   1.855   3.816   2.694
31318SOL     OW95785   4.429   8.435   9.049
31318SOL    HW195786   4.482   8.455   9.126
31318SOL    HW295787   4.492   8.402   8.985
31319SOL     OW95788   2.390   2.031  14.279
31319SOL    HW195789   2.342   2.103  14.239
31319SOL    HW295790   2.328   1.958  14.280
31320SOL     OW95791   1.791   9.505  14.419
31320SOL    HW195792   1.704   9.470  14.441
31320SOL    HW295793   1.843   9.427  14.399
31321SOL     OW95794   0.071   9.258   4.317
31321SOL    HW195795   0.023   9.250   4.400
31321SOL    HW295796   0.062   9.351   4.294
31322SOL     OW95797   5.071   2.853   0.474
31322SOL    HW195798   4.994   2.844   0.529
31322SOL    HW295799   5.080   2.947   0.459
31323SOL     OW95800   6.447   2.151  13.907
31323SOL    HW195801   6.521   2.097  13.878
31323SOL    HW295802   6.372   2.092  13.908
31324SOL     OW95803  10.214   0.566   6.769
31324SOL    HW195804  10.205   0.471   6.767
31324SOL    HW295805  10.299   0.583   6.728
31325SOL     OW95806  13.837   8.456  14.316
31325SOL    HW195807  13.846   8.531  14.376
31325SOL    HW295808  13.846   8.380  14.373
31326SOL     OW95809   0.610  10.538   4.626
31326SOL    HW195810   0.665  10.471   4.667
31326SOL    HW295811   0.604  10.608   4.691
31327SOL     OW95812   0.601   8.106  13.256
31327SOL    HW195813   0.537   8.099  13.185
31327SOL    HW295814   0.618   8.016  13.282
31328SOL     OW95815   5.887   8.683  10.594
31328SOL    HW195816   5.922   8.767  10.563
31328SOL    HW295817   5.899   8.686  10.689
31329SOL     OW95818   3.729  13.140   8.339
31329SOL    HW195819   3.642  13.100   8.337
31329SOL    HW295820   3.783  13.078   8.388
31330SOL     OW95821   1.576   1.589  14.858
31330SOL    HW195822   1.559   1.657   0.047
31330SOL    HW295823   1.571   1.634  14.774
31331SOL     OW95824  13.174  14.053   2.160
31331SOL    HW195825  13.126  14.043   2.078
31331SOL    HW295826  13.232  14.128   2.145
31332SOL     OW95827   9.048   4.120  13.309
31332SOL    HW195828   9.079   4.038  13.273
31332SOL    HW295829   8.963   4.135  13.267
31333SOL     OW95830  13.953   1.751  13.844
31333SOL    HW195831  13.971   1.812  13.916
31333SOL    HW295832  13.916   1.805  13.775
31334SOL     OW95833  11.973   4.668   9.023
31334SOL    HW195834  12.053   4.653   9.073
31334SOL    HW295835  11.942   4.754   9.052
31335SOL     OW95836   2.221   2.611  14.527
31335SOL    HW195837   2.197   2.693  14.484
31335SOL    HW295838   2.157   2.548  14.495
31336SOL     OW95839   9.004  13.540   1.255
31336SOL    HW195840   8.975  13.509   1.341
31336SOL    HW295841   9.096  13.563   1.267
31337SOL     OW95842   4.075   9.407   2.590
31337SOL    HW195843   3.986   9.377   2.606
31337SOL    HW295844   4.112   9.420   2.678
31338SOL     OW95845  13.765   1.624   8.260
31338SOL    HW195846  13.670   1.610   8.252
31338SOL    HW295847  13.802   1.578   8.185
31339SOL     OW95848   5.129  14.621  11.822
31339SOL    HW195849   5.067  14.690  11.842
31339SOL    HW295850   5.145  14.629  11.728
31340SOL     OW95851   0.443   3.531   1.811
31340SOL    HW195852   0.523   3.573   1.844
31340SOL    HW295853   0.445   3.547   1.717
31341SOL     OW95854   6.732   6.336   8.011
31341SOL    HW195855   6.744   6.247   7.978
31341SOL    HW295856   6.734   6.326   8.107
31342SOL     OW95857   2.522  11.553   3.217
31342SOL    HW195858   2.557  11.603   3.291
31342SOL    HW295859   2.444  11.510   3.251
31343SOL     OW95860   8.216   4.009   6.638
31343SOL    HW195861   8.202   4.101   6.660
31343SOL    HW295862   8.128   3.973   6.630
31344SOL     OW95863  14.243   6.003   2.629
31344SOL    HW195864  14.185   6.047   2.567
31344SOL    HW295865  14.273   6.073   2.687
31345SOL     OW95866   2.442   4.829   0.205
31345SOL    HW195867   2.450   4.871   0.119
31345SOL    HW295868   2.443   4.902   0.267
31346SOL     OW95869   3.525   4.854   2.480
31346SOL    HW195870   3.528   4.923   2.546
31346SOL    HW295871   3.565   4.779   2.523
31347SOL     OW95872   1.851   6.845   0.546
31347SOL    HW195873   1.823   6.762   0.586
31347SOL    HW295874   1.770   6.886   0.517
31348SOL     OW95875   8.593  12.760   4.025
31348SOL    HW195876   8.532  12.733   3.957
31348SOL    HW295877   8.587  12.856   4.026
31349SOL     OW95878  13.615   7.772   5.684
31349SOL    HW195879  13.690   7.816   5.724
31349SOL    HW295880  13.605   7.814   5.599
31350SOL     OW95881   3.082  14.010   2.546
31350SOL    HW195882   3.163  13.965   2.572
31350SOL    HW295883   3.078  14.086   2.604
31351SOL     OW95884   6.774  12.639  14.012
31351SOL    HW195885   6.740  12.585  13.940
31351SOL    HW295886   6.740  12.598  14.091
31352SOL     OW95887   9.939   4.896   2.725
31352SOL    HW195888  10.017   4.912   2.671
31352SOL    HW295889   9.876   4.855   2.665
31353SOL     OW95890   9.740   8.530   6.754
31353SOL    HW195891   9.715   8.556   6.842
31353SOL    HW295892   9.662   8.546   6.701
31354SOL     OW95893  10.902  11.819   7.561
31354SOL    HW195894  10.819  11.773   7.551
31354SOL    HW295895  10.879  11.898   7.611
31355SOL     OW95896   9.561   4.964   5.150
31355SOL    HW195897   9.643   4.949   5.104
31355SOL    HW295898   9.501   4.996   5.082
31356SOL     OW95899  10.879   2.291   6.873
31356SOL    HW195900  10.964   2.311   6.912
31356SOL    HW295901  10.828   2.253   6.944
31357SOL     OW95902   6.561   7.464  10.124
31357SOL    HW195903   6.518   7.379  10.127
31357SOL    HW295904   6.554   7.498  10.213
31358SOL     OW95905  13.820   5.159  11.298
31358SOL    HW195906  13.878   5.108  11.241
31358SOL    HW295907  13.752   5.098  11.325
31359SOL     OW95908   8.970   9.966  10.859
31359SOL    HW195909   9.038   9.912  10.901
31359SOL    HW295910   8.930   9.908  10.794
31360SOL     OW95911   5.467   4.478   1.768
31360SOL    HW195912   5.536   4.418   1.740
31360SOL    HW295913   5.460   4.542   1.696
31361SOL     OW95914  14.110   0.155   4.550
31361SOL    HW195915  14.136   0.064   4.564
31361SOL    HW295916  14.096   0.161   4.455
31362SOL     OW95917  11.902   7.762   4.018
31362SOL    HW195918  11.967   7.694   3.997
31362SOL    HW295919  11.820   7.714   4.027
31363SOL     OW95920   4.475  12.606   6.359
31363SOL    HW195921   4.560  12.566   6.377
31363SOL    HW295922   4.444  12.638   6.444
31364SOL     OW95923  14.657   6.030   3.581
31364SOL    HW195924  14.722   6.049   3.513
31364SOL    HW295925  14.633   6.115   3.616
31365SOL     OW95926  13.259   5.194  14.660
31365SOL    HW195927  13.305   5.114  14.686
31365SOL    HW295928  13.319   5.265  14.687
31366SOL     OW95929   4.792   4.730  13.747
31366SOL    HW195930   4.723   4.716  13.812
31366SOL    HW295931   4.801   4.645  13.702
31367SOL     OW95932   8.457   9.088   3.263
31367SOL    HW195933   8.483   9.055   3.177
31367SOL    HW295934   8.458   9.012   3.320
31368SOL     OW95935   0.285  13.632   7.722
31368SOL    HW195936   0.208  13.622   7.667
31368SOL    HW295937   0.329  13.711   7.689
31369SOL     OW95938   3.220   5.927  11.337
31369SOL    HW195939   3.215   5.832  11.326
31369SOL    HW295940   3.268   5.958  11.260
31370SOL     OW95941   4.057  12.367  14.337
31370SOL    HW195942   4.044  12.316  14.416
31370SOL    HW295943   4.141  12.337  14.302
31371SOL     OW95944  11.223   3.663   8.198
31371SOL    HW195945  11.209   3.570   8.219
31371SOL    HW295946  11.209   3.709   8.280
31372SOL     OW95947   3.023  12.940   4.872
31372SOL    HW195948   2.998  12.858   4.916
31372SOL    HW295949   3.105  12.965   4.914
31373SOL     OW95950   8.698   3.285   6.622
31373SOL    HW195951   8.700   3.207   6.567
31373SOL    HW295952   8.606   3.295   6.647
31374SOL     OW95953  11.282  11.513   8.584
31374SOL    HW195954  11.194  11.486   8.610
31374SOL    HW295955  11.329  11.431   8.569
31375SOL     OW95956   0.077  10.099   4.200
31375SOL    HW195957   0.009  10.033   4.206
31375SOL    HW295958   0.115  10.087   4.113
31376SOL     OW95959   5.013   8.869  12.687
31376SOL    HW195960   5.010   8.817  12.768
31376SOL    HW295961   4.992   8.958  12.716
31377SOL     OW95962  10.087  12.537   4.111
31377SOL    HW195963  10.036  12.607   4.070
31377SOL    HW295964  10.153  12.514   4.045
31378SOL     OW95965   2.446   9.215   3.099
31378SOL    HW195966   2.493   9.163   3.164
31378SOL    HW295967   2.477   9.304   3.113
31379SOL     OW95968   6.161   9.674   4.276
31379SOL    HW195969   6.115   9.654   4.358
31379SOL    HW295970   6.095   9.660   4.208
31380SOL     OW95971   7.606  11.043  12.682
31380SOL    HW195972   7.641  11.113  12.628
31380SOL    HW295973   7.664  11.039  12.757
31381SOL     OW95974  11.728  14.409   3.439
31381SOL    HW195975  11.654  14.470   3.432
31381SOL    HW295976  11.803  14.459   3.407
31382SOL     OW95977   1.569   1.652  12.356
31382SOL    HW195978   1.637   1.593  12.389
31382SOL    HW295979   1.487   1.612  12.383
31383SOL     OW95980  14.439   0.336  14.683
31383SOL    HW195981  14.488   0.393  14.624
31383SOL    HW295982  14.349   0.370  14.680
31384SOL     OW95983  14.053   9.969   4.319
31384SOL    HW195984  14.085  10.003   4.403
31384SOL    HW295985  14.050   9.874   4.330
31385SOL     OW95986   3.768   7.799   4.304
31385SOL    HW195987   3.770   7.891   4.278
31385SOL    HW295988   3.777   7.751   4.221
31386SOL     OW95989  11.276  13.776   0.966
31386SOL    HW195990  11.235  13.843   0.912
31386SOL    HW295991  11.204  13.725   1.002
31387SOL     OW95992   4.609   8.032  11.089
31387SOL    HW195993   4.525   8.077  11.098
31387SOL    HW295994   4.593   7.944  11.124
31388SOL     OW95995   3.793   6.331  11.669
31388SOL    HW195996   3.758   6.290  11.590
31388SOL    HW295997   3.786   6.425  11.653
31389SOL     OW95998   1.760  10.825   5.706
31389SOL    HW195999   1.738  10.857   5.618
31389SOL    HW296000   1.842  10.870   5.727
31390SOL     OW96001   6.767   4.157   6.371
31390SOL    HW196002   6.755   4.252   6.371
31390SOL    HW296003   6.795   4.136   6.282
31391SOL     OW96004  11.713  11.639   3.271
31391SOL    HW196005  11.622  11.656   3.295
31391SOL    HW296006  11.751  11.726   3.258
31392SOL     OW96007   8.918   9.929   0.650
31392SOL    HW196008   8.883   9.978   0.575
31392SOL    HW296009   8.880   9.971   0.727
31393SOL     OW96010  10.148   7.094   7.819
31393SOL    HW196011  10.136   6.999   7.816
31393SOL    HW296012  10.084   7.124   7.885
31394SOL     OW96013   7.524   1.393   3.926
31394SOL    HW196014   7.443   1.429   3.964
31394SOL    HW296015   7.593   1.423   3.985
31395SOL     OW96016   3.601   6.739   8.172
31395SOL    HW196017   3.671   6.726   8.109
31395SOL    HW296018   3.527   6.770   8.120
31396SOL     OW96019   0.558  14.181   8.778
31396SOL    HW196020   0.484  14.162   8.836
31396SOL    HW296021   0.566  14.102   8.724
31397SOL     OW96022   8.207   5.767   2.531
31397SOL    HW196023   8.173   5.681   2.559
31397SOL    HW296024   8.207   5.819   2.611
31398SOL     OW96025   4.403   6.387   5.622
31398SOL    HW196026   4.485   6.359   5.663
31398SOL    HW296027   4.401   6.482   5.634
31399SOL     OW96028  11.630   9.028   4.966
31399SOL    HW196029  11.628   9.022   4.870
31399SOL    HW296030  11.723   9.042   4.987
31400SOL     OW96031  10.449   3.858  12.497
31400SOL    HW196032  10.522   3.829  12.550
31400SOL    HW296033  10.421   3.940  12.537
31401SOL     OW96034  12.840  11.285   4.699
31401SOL    HW196035  12.838  11.344   4.774
31401SOL    HW296036  12.858  11.199   4.737
31402SOL     OW96037   2.332   8.220   0.646
31402SOL    HW196038   2.402   8.235   0.582
31402SOL    HW296039   2.253   8.208   0.593
31403SOL     OW96040   1.097  13.011   7.838
31403SOL    HW196041   1.173  13.058   7.872
31403SOL    HW296042   1.033  13.080   7.820
31404SOL     OW96043   3.614   2.444   3.691
31404SOL    HW196044   3.646   2.357   3.714
31404SOL    HW296045   3.525   2.447   3.726
31405SOL     OW96046   1.184   5.303  14.603
31405SOL    HW196047   1.089   5.301  14.617
31405SOL    HW296048   1.221   5.322  14.689
31406SOL     OW96049  14.067   6.995   6.325
31406SOL    HW196050  14.139   7.039   6.280
31406SOL    HW296051  14.109   6.951   6.400
31407SOL     OW96052   9.163   8.708   0.438
31407SOL    HW196053   9.239   8.755   0.405
31407SOL    HW296054   9.138   8.648   0.367
31408SOL     OW96055  12.586   4.847   0.120
31408SOL    HW196056  12.503   4.840   0.165
31408SOL    HW296057  12.641   4.779   0.159
31409SOL     OW96058   2.155   1.842   2.711
31409SOL    HW196059   2.121   1.839   2.801
31409SOL    HW296060   2.112   1.769   2.667
31410SOL     OW96061   6.318  13.966   6.290
31410SOL    HW196062   6.409  13.936   6.301
31410SOL    HW296063   6.307  14.035   6.356
31411SOL     OW96064   6.682   7.992   6.129
31411SOL    HW196065   6.593   7.980   6.163
31411SOL    HW296066   6.693   7.920   6.067
31412SOL     OW96067  10.213   1.315   3.815
31412SOL    HW196068  10.221   1.371   3.738
31412SOL    HW296069  10.219   1.226   3.781
31413SOL     OW96070   7.939   9.737   2.198
31413SOL    HW196071   7.951   9.657   2.249
31413SOL    HW296072   7.993   9.802   2.242
31414SOL     OW96073   7.579  11.820   8.204
31414SOL    HW196074   7.585  11.762   8.280
31414SOL    HW296075   7.498  11.869   8.218
31415SOL     OW96076   6.453   9.694  12.711
31415SOL    HW196077   6.465   9.756  12.782
31415SOL    HW296078   6.538   9.691  12.667
31416SOL     OW96079   7.793   4.561   6.626
31416SOL    HW196080   7.824   4.472   6.645
31416SOL    HW296081   7.865   4.618   6.656
31417SOL     OW96082   5.425   5.521   0.134
31417SOL    HW196083   5.390   5.555   0.217
31417SOL    HW296084   5.479   5.593   0.100
31418SOL     OW96085   6.714  13.311  11.020
31418SOL    HW196086   6.737  13.290  10.929
31418SOL    HW296087   6.641  13.372  11.012
31419SOL     OW96088   8.275  13.344   6.532
31419SOL    HW196089   8.224  13.403   6.587
31419SOL    HW296090   8.364  13.350   6.567
31420SOL     OW96091   5.450   6.100   5.010
31420SOL    HW196092   5.424   6.055   5.089
31420SOL    HW296093   5.527   6.150   5.035
31421SOL     OW96094   8.011  10.763  14.627
31421SOL    HW196095   7.968  10.776  14.711
31421SOL    HW296096   8.025  10.851  14.594
31422SOL     OW96097  13.225   0.463   6.384
31422SOL    HW196098  13.260   0.531   6.325
31422SOL    HW296099  13.161   0.416   6.331
31423SOL     OW96100   8.191   8.829  13.268
31423SOL    HW196101   8.141   8.867  13.196
31423SOL    HW296102   8.272   8.797  13.228
31424SOL     OW96103   1.517  14.271   1.494
31424SOL    HW196104   1.503  14.365   1.482
31424SOL    HW296105   1.429  14.233   1.493
31425SOL     OW96106  10.456   0.135   0.169
31425SOL    HW196107  10.525   0.200   0.179
31425SOL    HW296108  10.444   0.098   0.257
31426SOL     OW96109   3.672   8.136   7.388
31426SOL    HW196110   3.725   8.088   7.324
31426SOL    HW296111   3.632   8.207   7.338
31427SOL     OW96112   6.407   2.350   9.111
31427SOL    HW196113   6.459   2.410   9.058
31427SOL    HW296114   6.388   2.399   9.191
31428SOL     OW96115   9.325   1.918   2.484
31428SOL    HW196116   9.404   1.946   2.439
31428SOL    HW296117   9.356   1.880   2.566
31429SOL     OW96118   3.030   9.617  14.135
31429SOL    HW196119   3.112   9.666  14.128
31429SOL    HW296120   2.962   9.685  14.136
31430SOL     OW96121   9.634   6.042  11.869
31430SOL    HW196122   9.552   5.994  11.857
31430SOL    HW296123   9.626   6.118  11.811
31431SOL     OW96124  14.621  10.707   3.269
31431SOL    HW196125  14.552  10.765   3.299
31431SOL    HW296126  14.699  10.734   3.318
31432SOL     OW96127   2.559   2.685  10.205
31432SOL    HW196128   2.470   2.666  10.174
31432SOL    HW296129   2.606   2.603  10.197
31433SOL     OW96130   7.262   7.172   5.300
31433SOL    HW196131   7.270   7.186   5.395
31433SOL    HW296132   7.352   7.160   5.271
31434SOL     OW96133   4.547   3.926   7.537
31434SOL    HW196134   4.469   3.916   7.592
31434SOL    HW296135   4.558   4.021   7.529
31435SOL     OW96136  11.499   0.442   5.496
31435SOL    HW196137  11.503   0.416   5.587
31435SOL    HW296138  11.407   0.436   5.472
31436SOL     OW96139   9.199  13.275  12.760
31436SOL    HW196140   9.199  13.181  12.745
31436SOL    HW296141   9.147  13.287  12.840
31437SOL     OW96142   3.353   7.347   2.367
31437SOL    HW196143   3.409   7.424   2.354
31437SOL    HW296144   3.274   7.381   2.409
31438SOL     OW96145   1.090   8.143   0.597
31438SOL    HW196146   1.133   8.065   0.562
31438SOL    HW296147   1.047   8.112   0.677
31439SOL     OW96148   7.706  13.703   8.078
31439SOL    HW196149   7.644  13.773   8.060
31439SOL    HW296150   7.661  13.623   8.050
31440SOL     OW96151   9.144   3.676   8.527
31440SOL    HW196152   9.144   3.772   8.525
31440SOL    HW296153   9.065   3.650   8.481
31441SOL     OW96154  14.549   9.744  14.823
31441SOL    HW196155  14.512   9.663  14.860
31441SOL    HW296156  14.608   9.713  14.754
31442SOL     OW96157   4.125   6.227   9.529
31442SOL    HW196158   4.075   6.288   9.475
31442SOL    HW296159   4.064   6.156   9.548
31443SOL     OW96160  14.638   3.653  12.724
31443SOL    HW196161  14.669   3.562  12.720
31443SOL    HW296162  14.554   3.647  12.769
31444SOL     OW96163   0.963  10.369   5.100
31444SOL    HW196164   0.910  10.339   5.026
31444SOL    HW296165   1.005  10.290   5.133
31445SOL     OW96166   1.257   9.307  12.075
31445SOL    HW196167   1.162   9.317  12.078
31445SOL    HW296168   1.278   9.255  12.153
31446SOL     OW96169   7.630   1.854   2.593
31446SOL    HW196170   7.542   1.852   2.555
31446SOL    HW296171   7.660   1.944   2.579
31447SOL     OW96172   2.132   3.872  12.486
31447SOL    HW196173   2.160   3.898  12.398
31447SOL    HW296174   2.099   3.782  12.475
31448SOL     OW96175   8.699   6.128   6.912
31448SOL    HW196176   8.604   6.139   6.918
31448SOL    HW296177   8.715   6.036   6.934
31449SOL     OW96178  12.101   3.460   4.526
31449SOL    HW196179  12.151   3.508   4.460
31449SOL    HW296180  12.166   3.435   4.592
31450SOL     OW96181  13.698  12.254  11.728
31450SOL    HW196182  13.659  12.331  11.687
31450SOL    HW296183  13.692  12.185  11.662
31451SOL     OW96184  12.101   4.498  14.609
31451SOL    HW196185  12.157   4.552  14.553
31451SOL    HW296186  12.080   4.421  14.556
31452SOL     OW96187   5.994   5.862   6.256
31452SOL    HW196188   6.041   5.780   6.271
31452SOL    HW296189   5.902   5.838   6.263
31453SOL     OW96190  13.276   5.654   9.405
31453SOL    HW196191  13.194   5.652   9.454
31453SOL    HW296192  13.329   5.585   9.445
31454SOL     OW96193   7.103   8.326   0.600
31454SOL    HW196194   7.074   8.275   0.525
31454SOL    HW296195   7.149   8.263   0.656
31455SOL     OW96196   8.396   4.518  13.184
31455SOL    HW196197   8.426   4.533  13.274
31455SOL    HW296198   8.411   4.601  13.140
31456SOL     OW96199   4.677  11.768   1.250
31456SOL    HW196200   4.750  11.721   1.211
31456SOL    HW296201   4.646  11.827   1.181
31457SOL     OW96202  10.989   2.828   6.103
31457SOL    HW196203  11.043   2.751   6.082
31457SOL    HW296204  11.018   2.895   6.041
31458SOL     OW96205  12.127  14.117  14.868
31458SOL    HW196206  12.048  14.171  14.866
31458SOL    HW296207  12.133  14.080  14.780
31459SOL     OW96208  13.562   2.429   4.058
31459SOL    HW196209  13.647   2.462   4.086
31459SOL    HW296210  13.577   2.338   4.035
31460SOL     OW96211   5.749  10.560   6.872
31460SOL    HW196212   5.779  10.472   6.895
31460SOL    HW296213   5.653  10.553   6.872
31461SOL     OW96214  13.239  12.264   4.877
31461SOL    HW196215  13.207  12.234   4.792
31461SOL    HW296216  13.277  12.350   4.859
31462SOL     OW96217   6.276   9.345   8.969
31462SOL    HW196218   6.285   9.383   9.057
31462SOL    HW296219   6.183   9.325   8.961
31463SOL     OW96220   6.167   6.318  11.644
31463SOL    HW196221   6.156   6.225  11.628
31463SOL    HW296222   6.078   6.351  11.660
31464SOL     OW96223   8.945   5.473   7.305
31464SOL    HW196224   8.934   5.568   7.305
31464SOL    HW296225   8.993   5.454   7.225
31465SOL     OW96226   3.173   9.224   7.197
31465SOL    HW196227   3.233   9.190   7.263
31465SOL    HW296228   3.086   9.205   7.232
31466SOL     OW96229   8.467   9.437   0.863
31466SOL    HW196230   8.378   9.412   0.887
31466SOL    HW296231   8.481   9.393   0.779
31467SOL     OW96232   5.328   4.676   8.598
31467SOL    HW196233   5.396   4.714   8.654
31467SOL    HW296234   5.370   4.602   8.555
31468SOL     OW96235   6.365  12.976   0.555
31468SOL    HW196236   6.340  12.989   0.464
31468SOL    HW296237   6.283  12.980   0.604
31469SOL     OW96238  12.539  11.223  14.365
31469SOL    HW196239  12.627  11.193  14.341
31469SOL    HW296240  12.528  11.304  14.315
31470SOL     OW96241  11.797  14.700   9.651
31470SOL    HW196242  11.708  14.672   9.628
31470SOL    HW296243  11.849  14.683   9.572
31471SOL     OW96244   1.444   2.218   0.112
31471SOL    HW196245   1.419   2.305   0.143
31471SOL    HW296246   1.540   2.218   0.115
31472SOL     OW96247   4.699   5.379  11.784
31472SOL    HW196248   4.677   5.306  11.842
31472SOL    HW296249   4.620   5.433  11.780
31473SOL     OW96250   6.450   7.290  14.067
31473SOL    HW196251   6.517   7.268  14.003
31473SOL    HW296252   6.392   7.351  14.021
31474SOL     OW96253  10.320   4.191   1.430
31474SOL    HW196254  10.259   4.211   1.501
31474SOL    HW296255  10.267   4.196   1.351
31475SOL     OW96256   2.085  12.606  10.255
31475SOL    HW196257   2.130  12.601  10.170
31475SOL    HW296258   2.000  12.565  10.239
31476SOL     OW96259   0.383   5.316   7.263
31476SOL    HW196260   0.408   5.354   7.179
31476SOL    HW296261   0.466   5.307   7.310
31477SOL     OW96262   8.246   6.632   8.757
31477SOL    HW196263   8.342   6.628   8.763
31477SOL    HW296264   8.224   6.721   8.785
31478SOL     OW96265   7.319   3.703   2.644
31478SOL    HW196266   7.317   3.796   2.665
31478SOL    HW296267   7.337   3.660   2.728
31479SOL     OW96268   6.265   0.807   0.810
31479SOL    HW196269   6.212   0.886   0.797
31479SOL    HW296270   6.350   0.840   0.837
31480SOL     OW96271  13.421   3.858   0.632
31480SOL    HW196272  13.397   3.860   0.724
31480SOL    HW296273  13.513   3.883   0.630
31481SOL     OW96274  14.704   3.095   6.671
31481SOL    HW196275  14.712   3.141   6.755
31481SOL    HW296276  14.609   3.086   6.659
31482SOL     OW96277   5.805   3.208  11.559
31482SOL    HW196278   5.852   3.280  11.519
31482SOL    HW296279   5.787   3.147  11.487
31483SOL     OW96280  12.553   1.004   6.762
31483SOL    HW196281  12.635   1.019   6.809
31483SOL    HW296282  12.540   1.084   6.710
31484SOL     OW96283   5.289   1.576   8.401
31484SOL    HW196284   5.370   1.621   8.423
31484SOL    HW296285   5.277   1.591   8.308
31485SOL     OW96286  14.530   1.467   0.271
31485SOL    HW196287  14.624   1.466   0.289
31485SOL    HW296288  14.512   1.557   0.244
31486SOL     OW96289   7.116  11.363   1.751
31486SOL    HW196290   7.113  11.441   1.806
31486SOL    HW296291   7.025  11.346   1.728
31487SOL     OW96292   5.979  10.887   1.642
31487SOL    HW196293   5.980  10.964   1.586
31487SOL    HW296294   5.898  10.894   1.692
31488SOL     OW96295   6.679   4.796   4.055
31488SOL    HW196296   6.646   4.716   4.015
31488SOL    HW296297   6.726   4.841   3.985
31489SOL     OW96298   6.603  11.079   5.152
31489SOL    HW196299   6.600  11.173   5.170
31489SOL    HW296300   6.693  11.063   5.125
31490SOL     OW96301  13.588  12.189  11.969
31490SOL    HW196302  13.495  12.185  11.949
31490SOL    HW296303  13.630  12.211  11.886
31491SOL     OW96304  13.096  10.069   8.003
31491SOL    HW196305  13.049   9.986   8.003
31491SOL    HW296306  13.054  10.121   8.071
31492SOL     OW96307  10.445   4.850  10.400
31492SOL    HW196308  10.417   4.938  10.374
31492SOL    HW296309  10.459   4.856  10.494
31493SOL     OW96310   3.523  11.431  10.000
31493SOL    HW196311   3.511  11.517  10.042
31493SOL    HW296312   3.607  11.400  10.033
31494SOL     OW96313   7.487   3.437   1.262
31494SOL    HW196314   7.516   3.468   1.176
31494SOL    HW296315   7.434   3.508   1.297
31495SOL     OW96316   9.651   6.393   2.398
31495SOL    HW196317   9.592   6.420   2.468
31495SOL    HW296318   9.593   6.377   2.323
31496SOL     OW96319  14.353  13.320  12.917
31496SOL    HW196320  14.410  13.397  12.916
31496SOL    HW296321  14.337  13.300  12.825
31497SOL     OW96322   7.050   9.990  11.059
31497SOL    HW196323   6.959   9.978  11.034
31497SOL    HW296324   7.052  10.076  11.102
31498SOL     OW96325   7.128   3.011  13.236
31498SOL    HW196326   7.043   2.968  13.226
31498SOL    HW296327   7.134   3.032  13.329
31499SOL     OW96328  10.624  10.407  13.622
31499SOL    HW196329  10.666  10.458  13.553
31499SOL    HW296330  10.690  10.341  13.647
31500SOL     OW96331   1.632   2.470  11.205
31500SOL    HW196332   1.589   2.425  11.278
31500SOL    HW296333   1.563   2.524  11.166
31501SOL     OW96334   9.234   3.287   0.212
31501SOL    HW196335   9.239   3.270   0.118
31501SOL    HW296336   9.235   3.382   0.220
31502SOL     OW96337   8.127   2.161  13.580
31502SOL    HW196338   8.119   2.244  13.532
31502SOL    HW296339   8.071   2.172  13.656
31503SOL     OW96340   9.810   1.457  11.794
31503SOL    HW196341   9.862   1.520  11.843
31503SOL    HW296342   9.762   1.510  11.729
31504SOL     OW96343   9.731   7.234  11.553
31504SOL    HW196344   9.807   7.231  11.612
31504SOL    HW296345   9.670   7.170  11.589
31505SOL     OW96346   7.690   9.032   4.302
31505SOL    HW196347   7.751   8.971   4.261
31505SOL    HW296348   7.605   9.011   4.263
31506SOL     OW96349   0.984  11.941   3.160
31506SOL    HW196350   0.983  11.916   3.068
31506SOL    HW296351   0.989  12.037   3.159
31507SOL     OW96352   2.715   2.723   8.090
31507SOL    HW196353   2.668   2.651   8.132
31507SOL    HW296354   2.653   2.757   8.025
31508SOL     OW96355  11.827  10.995   6.923
31508SOL    HW196356  11.768  10.994   6.999
31508SOL    HW296357  11.908  11.034   6.956
31509SOL     OW96358  11.597  10.593  14.033
31509SOL    HW196359  11.687  10.606  14.065
31509SOL    HW296360  11.543  10.643  14.094
31510SOL     OW96361   6.546   6.449   8.524
31510SOL    HW196362   6.573   6.476   8.612
31510SOL    HW296363   6.608   6.492   8.466
31511SOL     OW96364   6.691  11.002  10.479
31511SOL    HW196365   6.774  10.966  10.446
31511SOL    HW296366   6.717  11.082  10.525
31512SOL     OW96367  13.921   0.599   8.423
31512SOL    HW196368  13.932   0.630   8.333
31512SOL    HW296369  13.850   0.535   8.417
31513SOL     OW96370   3.901   0.209   8.708
31513SOL    HW196371   3.926   0.268   8.780
31513SOL    HW296372   3.963   0.230   8.638
31514SOL     OW96373   4.723   5.691   1.948
31514SOL    HW196374   4.759   5.774   1.917
31514SOL    HW296375   4.637   5.685   1.908
31515SOL     OW96376   2.368   5.688   2.142
31515SOL    HW196377   2.349   5.730   2.058
31515SOL    HW296378   2.440   5.629   2.124
31516SOL     OW96379  10.244   0.689  13.071
31516SOL    HW196380  10.284   0.709  13.155
31516SOL    HW296381  10.316   0.656  13.017
31517SOL     OW96382  12.835   7.941  10.496
31517SOL    HW196383  12.785   7.911  10.572
31517SOL    HW296384  12.830   8.037  10.501
31518SOL     OW96385  11.253   3.200   3.454
31518SOL    HW196386  11.314   3.270   3.429
31518SOL    HW296387  11.175   3.246   3.485
31519SOL     OW96388   4.194   9.025   1.039
31519SOL    HW196389   4.239   9.007   1.121
31519SOL    HW296390   4.216   9.116   1.018
31520SOL     OW96391   1.237   7.942   6.849
31520SOL    HW196392   1.250   7.850   6.869
31520SOL    HW296393   1.278   7.954   6.763
31521SOL     OW96394  10.149   8.596   5.202
31521SOL    HW196395  10.107   8.671   5.161
31521SOL    HW296396  10.174   8.540   5.128
31522SOL     OW96397  10.028   2.767   8.682
31522SOL    HW196398  10.120   2.757   8.706
31522SOL    HW296399   9.999   2.844   8.731
31523SOL     OW96400   0.021   0.590   1.620
31523SOL    HW196401   0.018   0.610   1.527
31523SOL    HW296402  14.808   0.562   1.642
31524SOL     OW96403   5.571   2.230   1.179
31524SOL    HW196404   5.515   2.169   1.226
31524SOL    HW296405   5.625   2.271   1.247
31525SOL     OW96406   9.070  11.375   6.533
31525SOL    HW196407   9.157  11.406   6.555
31525SOL    HW296408   9.013  11.451   6.545
31526SOL     OW96409  12.020   2.555  14.552
31526SOL    HW196410  12.100   2.562  14.605
31526SOL    HW296411  12.017   2.463  14.525
31527SOL     OW96412   9.168   8.266  11.331
31527SOL    HW196413   9.190   8.222  11.413
31527SOL    HW296414   9.245   8.255  11.276
31528SOL     OW96415   6.341  13.220   9.745
31528SOL    HW196416   6.400  13.234   9.670
31528SOL    HW296417   6.267  13.278   9.728
31529SOL     OW96418  11.453  13.249  10.519
31529SOL    HW196419  11.417  13.328  10.559
31529SOL    HW296420  11.400  13.235  10.441
31530SOL     OW96421   8.437  10.314  14.273
31530SOL    HW196422   8.378  10.267  14.332
31530SOL    HW296423   8.389  10.317  14.190
31531SOL     OW96424  13.602  10.887  12.194
31531SOL    HW196425  13.539  10.956  12.173
31531SOL    HW296426  13.567  10.809  12.150
31532SOL     OW96427   3.102  13.348   5.021
31532SOL    HW196428   3.159  13.341   4.944
31532SOL    HW296429   3.055  13.431   5.009
31533SOL     OW96430   4.462  13.063   0.917
31533SOL    HW196431   4.496  13.151   0.936
31533SOL    HW296432   4.530  13.022   0.864
31534SOL     OW96433   9.647  12.417   8.429
31534SOL    HW196434   9.595  12.399   8.350
31534SOL    HW296435   9.597  12.376   8.499
31535SOL     OW96436   4.212  11.379   5.534
31535SOL    HW196437   4.231  11.449   5.596
31535SOL    HW296438   4.289  11.322   5.537
31536SOL     OW96439   5.145  12.724  11.892
31536SOL    HW196440   5.092  12.795  11.857
31536SOL    HW296441   5.083  12.652  11.907
31537SOL     OW96442   6.173   4.265  14.490
31537SOL    HW196443   6.195   4.261  14.397
31537SOL    HW296444   6.119   4.343  14.499
31538SOL     OW96445  13.506  10.850   6.764
31538SOL    HW196446  13.490  10.835   6.670
31538SOL    HW296447  13.518  10.944   6.771
31539SOL     OW96448  14.148   2.370   2.566
31539SOL    HW196449  14.091   2.419   2.506
31539SOL    HW296450  14.236   2.402   2.545
31540SOL     OW96451   9.283   9.611   4.958
31540SOL    HW196452   9.200   9.569   4.936
31540SOL    HW296453   9.309   9.572   5.042
31541SOL     OW96454   9.795   0.599   6.710
31541SOL    HW196455   9.794   0.675   6.651
31541SOL    HW296456   9.832   0.528   6.658
31542SOL     OW96457   7.985  11.369  13.876
31542SOL    HW196458   7.939  11.391  13.957
31542SOL    HW296459   8.062  11.319  13.905
31543SOL     OW96460   4.858   1.229  14.742
31543SOL    HW196461   4.784   1.278  14.778
31543SOL    HW296462   4.868   1.155  14.801
31544SOL     OW96463   2.257   9.398   5.684
31544SOL    HW196464   2.276   9.304   5.676
31544SOL    HW296465   2.273   9.417   5.776
31545SOL     OW96466   0.329   8.542   7.743
31545SOL    HW196467   0.244   8.586   7.746
31545SOL    HW296468   0.343   8.511   7.833
31546SOL     OW96469   1.325  10.719  10.692
31546SOL    HW196470   1.230  10.731  10.688
31546SOL    HW296471   1.344  10.657  10.622
31547SOL     OW96472   8.613  13.284  12.047
31547SOL    HW196473   8.635  13.248  12.133
31547SOL    HW296474   8.519  13.264  12.036
31548SOL     OW96475   0.825   9.601   9.554
31548SOL    HW196476   0.804   9.522   9.502
31548SOL    HW296477   0.917   9.591   9.576
31549SOL     OW96478  10.011   0.578   0.720
31549SOL    HW196479   9.984   0.641   0.786
31549SOL    HW296480   9.934   0.565   0.665
31550SOL     OW96481  14.059  11.127  14.335
31550SOL    HW196482  14.045  11.078  14.416
31550SOL    HW296483  14.022  11.214  14.353
31551SOL     OW96484   7.561   1.466   9.621
31551SOL    HW196485   7.494   1.411   9.579
31551SOL    HW296486   7.593   1.522   9.550
31552SOL     OW96487  10.309   7.859  12.074
31552SOL    HW196488  10.361   7.783  12.100
31552SOL    HW296489  10.243   7.824  12.015
31553SOL     OW96490   2.039  13.370   3.080
31553SOL    HW196491   2.082  13.452   3.105
31553SOL    HW296492   2.096  13.301   3.114
31554SOL     OW96493   8.656   4.990   4.208
31554SOL    HW196494   8.705   5.000   4.126
31554SOL    HW296495   8.657   5.077   4.247
31555SOL     OW96496  12.618   2.731   7.856
31555SOL    HW196497  12.545   2.669   7.849
31555SOL    HW296498  12.577   2.815   7.876
31556SOL     OW96499   9.324  11.134   7.062
31556SOL    HW196500   9.242  11.111   7.105
31556SOL    HW296501   9.325  11.082   6.982
31557SOL     OW96502  14.817  13.811   6.799
31557SOL    HW196503  14.754  13.835   6.731
31557SOL    HW296504  14.820  13.887   6.857
31558SOL     OW96505   8.416   9.897   7.159
31558SOL    HW196506   8.439   9.974   7.106
31558SOL    HW296507   8.332   9.868   7.124
31559SOL     OW96508  10.659   1.537  14.238
31559SOL    HW196509  10.730   1.599  14.226
31559SOL    HW296510  10.642   1.502  14.151
31560SOL     OW96511   1.236   2.372   2.622
31560SOL    HW196512   1.163   2.328   2.665
31560SOL    HW296513   1.302   2.382   2.690
31561SOL     OW96514  13.181  13.973   9.080
31561SOL    HW196515  13.207  13.888   9.045
31561SOL    HW296516  13.106  13.955   9.136
31562SOL     OW96517   5.507  10.026   1.418
31562SOL    HW196518   5.562  10.069   1.484
31562SOL    HW296519   5.422  10.017   1.460
31563SOL     OW96520   6.982  12.896   5.863
31563SOL    HW196521   7.046  12.844   5.911
31563SOL    HW296522   7.022  12.982   5.852
31564SOL     OW96523  13.862   6.528   2.544
31564SOL    HW196524  13.785   6.486   2.583
31564SOL    HW296525  13.936   6.492   2.592
31565SOL     OW96526  11.437  10.291  11.825
31565SOL    HW196527  11.354  10.329  11.853
31565SOL    HW296528  11.491  10.291  11.904
31566SOL     OW96529   5.461  12.274   3.906
31566SOL    HW196530   5.458  12.196   3.850
31566SOL    HW296531   5.402  12.336   3.863
31567SOL     OW96532  12.061   9.005   8.454
31567SOL    HW196533  12.128   8.937   8.460
31567SOL    HW296534  11.983   8.958   8.423
31568SOL     OW96535   7.163   3.164   7.706
31568SOL    HW196536   7.207   3.108   7.770
31568SOL    HW296537   7.091   3.111   7.674
31569SOL     OW96538   9.035  14.213  13.518
31569SOL    HW196539   9.076  14.195  13.603
31569SOL    HW296540   9.106  14.202  13.455
31570SOL     OW96541  14.598  10.052   2.422
31570SOL    HW196542  14.596  10.089   2.510
31570SOL    HW296543  14.643  10.118   2.369
31571SOL     OW96544   2.384   1.208   8.754
31571SOL    HW196545   2.465   1.259   8.751
31571SOL    HW296546   2.334   1.246   8.826
31572SOL     OW96547   0.716   8.398   2.434
31572SOL    HW196548   0.774   8.400   2.358
31572SOL    HW296549   0.713   8.489   2.464
31573SOL     OW96550  13.819   1.696   3.339
31573SOL    HW196551  13.861   1.631   3.396
31573SOL    HW296552  13.733   1.710   3.378
31574SOL     OW96553  13.966  14.037   2.278
31574SOL    HW196554  13.909  14.080   2.214
31574SOL    HW296555  13.910  13.973   2.322
31575SOL     OW96556   1.715   6.102  10.818
31575SOL    HW196557   1.777   6.174  10.806
31575SOL    HW296558   1.630   6.138  10.791
31576SOL     OW96559  13.563  11.536  12.304
31576SOL    HW196560  13.483  11.504  12.345
31576SOL    HW296561  13.548  11.630  12.291
31577SOL     OW96562  12.359   1.616   3.560
31577SOL    HW196563  12.272   1.615   3.600
31577SOL    HW296564  12.342   1.623   3.466
31578SOL     OW96565   2.082   6.691   2.632
31578SOL    HW196566   2.125   6.634   2.696
31578SOL    HW296567   2.045   6.631   2.567
31579SOL     OW96568   1.984   9.881  13.658
31579SOL    HW196569   2.059   9.916  13.707
31579SOL    HW296570   1.911   9.938  13.681
31580SOL     OW96571  11.162   1.696   6.319
31580SOL    HW196572  11.231   1.634   6.296
31580SOL    HW296573  11.085   1.666   6.271
31581SOL     OW96574  12.377  14.076  14.031
31581SOL    HW196575  12.282  14.062  14.037
31581SOL    HW296576  12.387  14.171  14.029
31582SOL     OW96577   8.574   4.933  11.788
31582SOL    HW196578   8.489   4.907  11.822
31582SOL    HW296579   8.612   4.988  11.857
31583SOL     OW96580   3.145   1.050  11.095
31583SOL    HW196581   3.192   1.051  11.179
31583SOL    HW296582   3.185   1.120  11.044
31584SOL     OW96583   9.432   3.183  11.617
31584SOL    HW196584   9.469   3.102  11.581
31584SOL    HW296585   9.503   3.247  11.611
31585SOL     OW96586   1.103  10.434   0.773
31585SOL    HW196587   1.109  10.490   0.696
31585SOL    HW296588   1.019  10.390   0.764
31586SOL     OW96589  12.808   8.853  11.569
31586SOL    HW196590  12.719   8.826  11.544
31586SOL    HW296591  12.826   8.928  11.512
31587SOL     OW96592   7.132   8.083  10.053
31587SOL    HW196593   7.211   8.088  10.107
31587SOL    HW296594   7.062   8.064  10.114
31588SOL     OW96595   6.293  10.487   9.730
31588SOL    HW196596   6.211  10.526   9.760
31588SOL    HW296597   6.305  10.521   9.641
31589SOL     OW96598   1.114   0.826  14.122
31589SOL    HW196599   1.112   0.917  14.093
31589SOL    HW296600   1.048   0.782  14.068
31590SOL     OW96601   7.247  14.821   1.115
31590SOL    HW196602   7.166  14.771   1.106
31590SOL    HW296603   7.308  14.760   1.156
31591SOL     OW96604   2.704  11.390   6.255
31591SOL    HW196605   2.722  11.444   6.332
31591SOL    HW296606   2.774  11.325   6.254
31592SOL     OW96607   6.553   2.476   5.774
31592SOL    HW196608   6.618   2.428   5.826
31592SOL    HW296609   6.511   2.409   5.720
31593SOL     OW96610   0.908  13.670   5.712
31593SOL    HW196611   0.918  13.747   5.768
31593SOL    HW296612   0.977  13.610   5.742
31594SOL     OW96613  10.058  10.332   7.674
31594SOL    HW196614  10.008  10.263   7.630
31594SOL    HW296615  10.018  10.413   7.644
31595SOL     OW96616   9.794   3.357  12.770
31595SOL    HW196617   9.810   3.262  12.768
31595SOL    HW296618   9.835   3.386  12.851
31596SOL     OW96619   4.716   0.149   3.029
31596SOL    HW196620   4.644   0.101   3.071
31596SOL    HW296621   4.698   0.140   2.935
31597SOL     OW96622  14.619   5.195   2.248
31597SOL    HW196623  14.584   5.159   2.166
31597SOL    HW296624  14.670   5.271   2.220
31598SOL     OW96625  14.043   6.033  14.542
31598SOL    HW196626  13.995   6.065  14.618
31598SOL    HW296627  14.125   5.998  14.577
31599SOL     OW96628   2.403  11.521   7.743
31599SOL    HW196629   2.438  11.482   7.663
31599SOL    HW296630   2.446  11.473   7.814
31600SOL     OW96631   2.289   6.996   1.605
31600SOL    HW196632   2.370   6.980   1.653
31600SOL    HW296633   2.252   6.909   1.590
31601SOL     OW96634  11.622   2.132   4.226
31601SOL    HW196635  11.612   2.176   4.142
31601SOL    HW296636  11.559   2.176   4.284
31602SOL     OW96637  14.384   7.487  10.621
31602SOL    HW196638  14.389   7.406  10.672
31602SOL    HW296639  14.343   7.550  10.680
31603SOL     OW96640   2.103   3.553   6.856
31603SOL    HW196641   2.175   3.554   6.793
31603SOL    HW296642   2.145   3.542   6.941
31604SOL     OW96643   2.194   6.192  10.343
31604SOL    HW196644   2.136   6.255  10.300
31604SOL    HW296645   2.163   6.106  10.315
31605SOL     OW96646   1.434   7.937   5.024
31605SOL    HW196647   1.482   7.858   4.999
31605SOL    HW296648   1.466   8.004   4.964
31606SOL     OW96649  10.665   6.797  11.262
31606SOL    HW196650  10.635   6.735  11.329
31606SOL    HW296651  10.588   6.810  11.206
31607SOL     OW96652   9.935   4.370   4.988
31607SOL    HW196653   9.898   4.456   4.970
31607SOL    HW296654   9.920   4.356   5.081
31608SOL     OW96655   0.835  12.677  11.586
31608SOL    HW196656   0.790  12.711  11.508
31608SOL    HW296657   0.842  12.752  11.645
31609SOL     OW96658   6.752   8.869  11.925
31609SOL    HW196659   6.840   8.856  11.888
31609SOL    HW296660   6.694   8.871  11.849
31610SOL     OW96661  10.664   5.643  10.090
31610SOL    HW196662  10.755   5.669  10.105
31610SOL    HW296663  10.670   5.568  10.031
31611SOL     OW96664   8.661  14.664   0.145
31611SOL    HW196665   8.659  14.636   0.236
31611SOL    HW296666   8.589  14.617   0.104
31612SOL     OW96667  11.616  10.988   8.173
31612SOL    HW196668  11.680  10.931   8.130
31612SOL    HW296669  11.661  11.020   8.251
31613SOL     OW96670   3.793   7.301   6.787
31613SOL    HW196671   3.879   7.312   6.746
31613SOL    HW296672   3.799   7.350   6.869
31614SOL     OW96673   2.708   8.048   1.433
31614SOL    HW196674   2.750   8.041   1.347
31614SOL    HW296675   2.684   8.140   1.441
31615SOL     OW96676   8.992  12.425  13.883
31615SOL    HW196677   9.072  12.391  13.922
31615SOL    HW296678   8.962  12.356  13.825
31616SOL     OW96679   8.374   4.010   1.334
31616SOL    HW196680   8.331   4.045   1.412
31616SOL    HW296681   8.448   4.069   1.319
31617SOL     OW96682   5.220   2.993   9.293
31617SOL    HW196683   5.190   2.926   9.231
31617SOL    HW296684   5.289   2.949   9.343
31618SOL     OW96685  11.903   7.179   3.487
31618SOL    HW196686  11.919   7.120   3.414
31618SOL    HW296687  11.951   7.258   3.466
31619SOL     OW96688   5.934   1.276   9.969
31619SOL    HW196689   5.875   1.322   9.911
31619SOL    HW296690   5.975   1.209   9.914
31620SOL     OW96691   9.743   3.085   1.567
31620SOL    HW196692   9.719   3.072   1.475
31620SOL    HW296693   9.718   3.175   1.586
31621SOL     OW96694  10.776   4.873  10.509
31621SOL    HW196695  10.870   4.860  10.515
31621SOL    HW296696  10.747   4.814  10.440
31622SOL     OW96697   1.667  11.947   9.257
31622SOL    HW196698   1.593  11.980   9.205
31622SOL    HW296699   1.680  11.858   9.226
31623SOL     OW96700   4.485   1.514   3.419
31623SOL    HW196701   4.554   1.450   3.403
31623SOL    HW296702   4.517   1.566   3.494
31624SOL     OW96703   9.014  11.744  14.728
31624SOL    HW196704   9.052  11.739  14.816
31624SOL    HW296705   9.005  11.653  14.700
31625SOL     OW96706  13.018   6.606  14.832
31625SOL    HW196707  13.005   6.690  14.788
31625SOL    HW296708  13.012   6.541  14.762
31626SOL     OW96709   9.785   6.724   0.957
31626SOL    HW196710   9.704   6.765   0.927
31626SOL    HW296711   9.839   6.797   0.988
31627SOL     OW96712   9.216   2.068  10.211
31627SOL    HW196713   9.279   2.137  10.191
31627SOL    HW296714   9.259   1.987  10.185
31628SOL     OW96715  13.388  14.856  11.342
31628SOL    HW196716  13.324  14.850  11.412
31628SOL    HW296717  13.431  14.771  11.341
31629SOL     OW96718  13.705  11.079   3.168
31629SOL    HW196719  13.754  11.154   3.134
31629SOL    HW296720  13.771  11.025   3.211
31630SOL     OW96721   9.359   4.140  14.097
31630SOL    HW196722   9.322   4.053  14.079
31630SOL    HW296723   9.411   4.128  14.176
31631SOL     OW96724   9.704   0.159   6.567
31631SOL    HW196725   9.719   0.073   6.526
31631SOL    HW296726   9.634   0.198   6.516
31632SOL     OW96727   6.370   7.729   9.766
31632SOL    HW196728   6.349   7.636   9.757
31632SOL    HW296729   6.369   7.744   9.861
31633SOL     OW96730   7.634   2.096   6.935
31633SOL    HW196731   7.575   2.026   6.960
31633SOL    HW296732   7.577   2.171   6.919
31634SOL     OW96733   7.642  12.862  13.702
31634SOL    HW196734   7.565  12.919  13.692
31634SOL    HW296735   7.678  12.886  13.787
31635SOL     OW96736   4.740  13.094   5.135
31635SOL    HW196737   4.739  13.157   5.063
31635SOL    HW296738   4.656  13.049   5.129
31636SOL     OW96739   5.453   2.837   7.033
31636SOL    HW196740   5.404   2.882   6.964
31636SOL    HW296741   5.539   2.879   7.033
31637SOL     OW96742   5.706   2.327  11.214
31637SOL    HW196743   5.712   2.293  11.125
31637SOL    HW296744   5.746   2.414  11.210
31638SOL     OW96745  12.719   1.931   0.628
31638SOL    HW196746  12.809   1.963   0.617
31638SOL    HW296747  12.707   1.869   0.556
31639SOL     OW96748   5.230   2.090   1.862
31639SOL    HW196749   5.155   2.042   1.897
31639SOL    HW296750   5.227   2.174   1.908
31640SOL     OW96751   0.450  11.089   4.868
31640SOL    HW196752   0.442  11.068   4.962
31640SOL    HW296753   0.428  11.182   4.863
31641SOL     OW96754   8.404   3.768  12.806
31641SOL    HW196755   8.436   3.682  12.832
31641SOL    HW296756   8.315   3.751  12.773
31642SOL     OW96757   2.835   2.316   4.816
31642SOL    HW196758   2.762   2.259   4.792
31642SOL    HW296759   2.877   2.272   4.890
31643SOL     OW96760  10.165   0.168   6.536
31643SOL    HW196761  10.100   0.154   6.467
31643SOL    HW296762  10.244   0.124   6.504
31644SOL     OW96763  13.854   8.512  12.030
31644SOL    HW196764  13.933   8.465  12.004
31644SOL    HW296765  13.856   8.511  12.126
31645SOL     OW96766  14.479   4.948   8.954
31645SOL    HW196767  14.526   4.929   8.873
31645SOL    HW296768  14.529   4.902   9.022
31646SOL     OW96769   4.726   4.706   6.689
31646SOL    HW196770   4.707   4.773   6.623
31646SOL    HW296771   4.786   4.749   6.750
31647SOL     OW96772  10.204   1.679   7.766
31647SOL    HW196773  10.204   1.761   7.815
31647SOL    HW296774  10.116   1.644   7.777
31648SOL     OW96775   9.419   0.252   3.123
31648SOL    HW196776   9.384   0.196   3.054
31648SOL    HW296777   9.498   0.291   3.085
31649SOL     OW96778  11.940   6.045  13.728
31649SOL    HW196779  11.975   6.062  13.641
31649SOL    HW296780  11.857   6.001  13.714
31650SOL     OW96781   1.053   4.395   7.625
31650SOL    HW196782   1.009   4.479   7.642
31650SOL    HW296783   1.035   4.343   7.703
31651SOL     OW96784   7.509  14.818   9.039
31651SOL    HW196785   7.603  14.837   9.037
31651SOL    HW296786   7.492  14.793   9.130
31652SOL     OW96787  13.806   0.365   7.931
31652SOL    HW196788  13.819   0.367   7.836
31652SOL    HW296789  13.755   0.443   7.950
31653SOL     OW96790   0.325   0.368   2.261
31653SOL    HW196791   0.358   0.445   2.216
31653SOL    HW296792   0.230   0.369   2.244
31654SOL     OW96793   4.307   8.384  14.780
31654SOL    HW196794   4.342   8.301  14.745
31654SOL    HW296795   4.310   8.372  14.875
31655SOL     OW96796  10.639   4.207   3.181
31655SOL    HW196797  10.628   4.273   3.113
31655SOL    HW296798  10.728   4.173   3.168
31656SOL     OW96799   5.390   7.813  11.737
31656SOL    HW196800   5.332   7.738  11.751
31656SOL    HW296801   5.347   7.865  11.668
31657SOL     OW96802   2.183  10.386  12.250
31657SOL    HW196803   2.191  10.396  12.155
31657SOL    HW296804   2.089  10.394  12.267
31658SOL     OW96805   3.682   0.443   2.759
31658SOL    HW196806   3.630   0.474   2.834
31658SOL    HW296807   3.741   0.516   2.740
31659SOL     OW96808  12.944   6.304   3.509
31659SOL    HW196809  12.912   6.360   3.579
31659SOL    HW296810  12.993   6.363   3.451
31660SOL     OW96811   4.151  10.588  11.830
31660SOL    HW196812   4.217  10.519  11.828
31660SOL    HW296813   4.067  10.543  11.817
31661SOL     OW96814   9.927   5.133   1.917
31661SOL    HW196815   9.917   5.221   1.881
31661SOL    HW296816   9.919   5.075   1.842
31662SOL     OW96817   3.343  10.825   0.328
31662SOL    HW196818   3.333  10.754   0.392
31662SOL    HW296819   3.257  10.869   0.329
31663SOL     OW96820  11.766   0.591   6.201
31663SOL    HW196821  11.790   0.610   6.292
31663SOL    HW296822  11.779   0.497   6.192
31664SOL     OW96823  10.129   5.573   8.408
31664SOL    HW196824  10.193   5.621   8.460
31664SOL    HW296825  10.096   5.637   8.345
31665SOL     OW96826  14.455   5.878   3.717
31665SOL    HW196827  14.532   5.903   3.666
31665SOL    HW296828  14.382   5.919   3.672
31666SOL     OW96829  11.919  10.010  14.330
31666SOL    HW196830  11.829  10.043  14.327
31666SOL    HW296831  11.971  10.077  14.287
31667SOL     OW96832   2.371   3.961   9.653
31667SOL    HW196833   2.460   3.994   9.662
31667SOL    HW296834   2.380   3.866   9.658
31668SOL     OW96835   0.558   7.054   5.483
31668SOL    HW196836   0.653   7.048   5.485
31668SOL    HW296837   0.529   6.969   5.450
31669SOL     OW96838   5.152   4.625   8.890
31669SOL    HW196839   5.239   4.587   8.904
31669SOL    HW296840   5.169   4.704   8.839
31670SOL     OW96841   1.115   4.244  13.253
31670SOL    HW196842   1.023   4.222  13.268
31670SOL    HW296843   1.163   4.181  13.306
31671SOL     OW96844  12.514   1.231   1.117
31671SOL    HW196845  12.444   1.234   1.182
31671SOL    HW296846  12.580   1.174   1.156
31672SOL     OW96847  11.916  13.416  11.498
31672SOL    HW196848  11.991  13.464  11.463
31672SOL    HW296849  11.924  13.328  11.460
31673SOL     OW96850  10.489   2.008   4.320
31673SOL    HW196851  10.556   2.058   4.273
31673SOL    HW296852  10.536   1.935   4.360
31674SOL     OW96853   0.993   2.451   3.495
31674SOL    HW196854   1.061   2.385   3.509
31674SOL    HW296855   0.949   2.457   3.580
31675SOL     OW96856  12.488   9.172   8.402
31675SOL    HW196857  12.562   9.214   8.445
31675SOL    HW296858  12.524   9.094   8.361
31676SOL     OW96859   0.542  11.716  14.629
31676SOL    HW196860   0.516  11.805  14.651
31676SOL    HW296861   0.551  11.716  14.533
31677SOL     OW96862   1.481   6.343   1.268
31677SOL    HW196863   1.546   6.389   1.215
31677SOL    HW296864   1.518   6.343   1.357
31678SOL     OW96865   2.630   5.807  13.392
31678SOL    HW196866   2.708   5.777  13.438
31678SOL    HW296867   2.659   5.884  13.343
31679SOL     OW96868   2.981   4.915  10.352
31679SOL    HW196869   2.969   4.853  10.424
31679SOL    HW296870   2.915   4.982  10.367
31680SOL     OW96871   5.267   4.369  10.481
31680SOL    HW196872   5.215   4.327  10.549
31680SOL    HW296873   5.341   4.310  10.466
31681SOL     OW96874   4.094   8.403   1.721
31681SOL    HW196875   4.109   8.330   1.781
31681SOL    HW296876   3.999   8.401   1.705
31682SOL     OW96877   5.657  11.591   9.265
31682SOL    HW196878   5.722  11.628   9.324
31682SOL    HW296879   5.690  11.503   9.245
31683SOL     OW96880   3.062   6.175  12.144
31683SOL    HW196881   3.104   6.261  12.141
31683SOL    HW296882   3.048   6.158  12.237
31684SOL     OW96883   4.182   6.277   8.890
31684SOL    HW196884   4.183   6.358   8.839
31684SOL    HW296885   4.261   6.230   8.862
31685SOL     OW96886  14.196   6.340   9.749
31685SOL    HW196887  14.271   6.328   9.691
31685SOL    HW296888  14.161   6.426   9.725
31686SOL     OW96889   7.330   6.203   4.444
31686SOL    HW196890   7.399   6.216   4.378
31686SOL    HW296891   7.375   6.216   4.527
31687SOL     OW96892   4.855   9.433   8.909
31687SOL    HW196893   4.771   9.412   8.950
31687SOL    HW296894   4.869   9.363   8.846
31688SOL     OW96895   1.399   7.149   9.828
31688SOL    HW196896   1.417   7.172   9.736
31688SOL    HW296897   1.484   7.154   9.871
31689SOL     OW96898   3.034  11.438  14.538
31689SOL    HW196899   2.968  11.445  14.607
31689SOL    HW296900   3.028  11.522  14.492
31690SOL     OW96901   2.786   5.607   8.858
31690SOL    HW196902   2.834   5.599   8.940
31690SOL    HW296903   2.786   5.519   8.821
31691SOL     OW96904  12.722   7.235   4.116
31691SOL    HW196905  12.673   7.154   4.127
31691SOL    HW296906  12.675   7.283   4.048
31692SOL     OW96907  11.074   5.537   9.911
31692SOL    HW196908  11.100   5.469   9.849
31692SOL    HW296909  11.146   5.600   9.908
31693SOL     OW96910   0.479   5.922   8.253
31693SOL    HW196911   0.549   5.966   8.301
31693SOL    HW296912   0.519   5.897   8.169
31694SOL     OW96913   2.524   8.016   0.458
31694SOL    HW196914   2.448   7.984   0.410
31694SOL    HW296915   2.510   7.988   0.548
31695SOL     OW96916  12.753   1.528   3.104
31695SOL    HW196917  12.664   1.520   3.070
31695SOL    HW296918  12.779   1.618   3.081
31696SOL     OW96919  12.666  13.693   0.001
31696SOL    HW196920  12.632  13.759  14.817
31696SOL    HW296921  12.598  13.626   0.004
31697SOL     OW96922   8.190   3.874   8.540
31697SOL    HW196923   8.272   3.830   8.519
31697SOL    HW296924   8.123   3.822   8.496
31698SOL     OW96925   3.228  14.517   5.691
31698SOL    HW196926   3.224  14.566   5.773
31698SOL    HW296927   3.199  14.429   5.713
31699SOL     OW96928   1.352  13.969   9.245
31699SOL    HW196929   1.275  13.914   9.229
31699SOL    HW296930   1.425  13.920   9.208
31700SOL     OW96931  11.007  14.232   7.243
31700SOL    HW196932  10.949  14.159   7.263
31700SOL    HW296933  10.953  14.292   7.191
31701SOL     OW96934   2.812   6.691   5.205
31701SOL    HW196935   2.886   6.752   5.203
31701SOL    HW296936   2.850   6.607   5.229
31702SOL     OW96937   1.310  14.056   1.869
31702SOL    HW196938   1.305  14.152   1.874
31702SOL    HW296939   1.376  14.032   1.934
31703SOL     OW96940   4.580  13.237   1.845
31703SOL    HW196941   4.675  13.224   1.836
31703SOL    HW296942   4.543  13.198   1.766
31704SOL     OW96943   3.987  12.910   5.362
31704SOL    HW196944   3.912  12.888   5.307
31704SOL    HW296945   3.953  12.905   5.452
31705SOL     OW96946  11.168   0.343   0.519
31705SOL    HW196947  11.154   0.438   0.519
31705SOL    HW296948  11.119   0.312   0.595
31706SOL     OW96949   8.455   8.696   4.653
31706SOL    HW196950   8.480   8.752   4.726
31706SOL    HW296951   8.359   8.693   4.657
31707SOL     OW96952   9.117   1.442  11.060
31707SOL    HW196953   9.025   1.434  11.084
31707SOL    HW296954   9.156   1.497  11.128
31708SOL     OW96955  10.479   6.627   4.561
31708SOL    HW196956  10.568   6.597   4.547
31708SOL    HW296957  10.475   6.648   4.654
31709SOL     OW96958   2.844  14.060  10.634
31709SOL    HW196959   2.789  14.135  10.655
31709SOL    HW296960   2.829  14.044  10.541
31710SOL     OW96961   0.130   8.838   7.600
31710SOL    HW196962   0.132   8.766   7.537
31710SOL    HW296963   0.089   8.910   7.552
31711SOL     OW96964  13.216  10.779  11.189
31711SOL    HW196965  13.159  10.821  11.126
31711SOL    HW296966  13.289  10.840  11.201
31712SOL     OW96967   5.447   2.995  10.609
31712SOL    HW196968   5.413   3.079  10.578
31712SOL    HW296969   5.400   2.930  10.557
31713SOL     OW96970   5.035   2.672  14.177
31713SOL    HW196971   4.945   2.645  14.197
31713SOL    HW296972   5.032   2.700  14.086
31714SOL     OW96973  13.961  12.876   4.967
31714SOL    HW196974  13.984  12.917   5.050
31714SOL    HW296975  13.896  12.934   4.928
31715SOL     OW96976   3.805  13.139   4.792
31715SOL    HW196977   3.747  13.067   4.817
31715SOL    HW296978   3.860  13.103   4.722
31716SOL     OW96979   3.857  11.261   3.717
31716SOL    HW196980   3.845  11.349   3.680
31716SOL    HW296981   3.769  11.224   3.718
31717SOL     OW96982  13.691   8.077  13.902
31717SOL    HW196983  13.683   7.985  13.878
31717SOL    HW296984  13.631   8.122  13.842
31718SOL     OW96985  14.335  13.998   0.161
31718SOL    HW196986  14.413  14.027   0.208
31718SOL    HW296987  14.266  14.057   0.190
31719SOL     OW96988   7.834  12.198  11.237
31719SOL    HW196989   7.805  12.151  11.315
31719SOL    HW296990   7.876  12.131  11.183
31720SOL     OW96991   5.391   6.540  14.580
31720SOL    HW196992   5.302   6.528  14.547
31720SOL    HW296993   5.386   6.618  14.636
31721SOL     OW96994   4.070   2.045   8.926
31721SOL    HW196995   4.142   2.035   8.862
31721SOL    HW296996   4.052   2.139   8.925
31722SOL     OW96997   5.121  14.831   7.881
31722SOL    HW196998   5.088  14.785   7.804
31722SOL    HW296999   5.047   0.009   7.910
31723SOL     OW97000   2.323   4.088  12.326
31723SOL    HW197001   2.414   4.059  12.332
31723SOL    HW297002   2.315   4.155  12.395
31724SOL     OW97003   7.983  13.106  13.006
31724SOL    HW197004   7.993  13.099  12.911
31724SOL    HW297005   7.888  13.108  13.020
31725SOL     OW97006   4.770   3.451   7.533
31725SOL    HW197007   4.696   3.398   7.501
31725SOL    HW297008   4.736   3.540   7.536
31726SOL     OW97009   9.877  11.431   5.534
31726SOL    HW197010   9.785  11.434   5.506
31726SOL    HW297011   9.924  11.396   5.458
31727SOL     OW97012   5.210   2.300   6.714
31727SOL    HW197013   5.136   2.267   6.663
31727SOL    HW297014   5.279   2.236   6.700
31728SOL     OW97015   2.604   1.757   9.372
31728SOL    HW197016   2.639   1.669   9.353
31728SOL    HW297017   2.561   1.748   9.456
31729SOL     OW97018   0.175   5.600  12.360
31729SOL    HW197019   0.137   5.566  12.279
31729SOL    HW297020   0.256   5.644  12.332
31730SOL     OW97021   7.978   3.605   7.404
31730SOL    HW197022   8.029   3.567   7.332
31730SOL    HW297023   7.901   3.641   7.362
31731SOL     OW97024   3.063   0.339  11.549
31731SOL    HW197025   2.989   0.348  11.608
31731SOL    HW297026   3.058   0.249  11.517
31732SOL     OW97027   5.666   5.115  10.418
31732SOL    HW197028   5.604   5.085  10.352
31732SOL    HW297029   5.612   5.130  10.496
31733SOL     OW97030   8.482   5.215   8.899
31733SOL    HW197031   8.417   5.244   8.964
31733SOL    HW297032   8.565   5.246   8.935
31734SOL     OW97033   2.330   6.070  12.805
31734SOL    HW197034   2.353   6.016  12.881
31734SOL    HW297035   2.386   6.148  12.814
31735SOL     OW97036  11.409  14.394   6.278
31735SOL    HW197037  11.321  14.410   6.243
31735SOL    HW297038  11.430  14.474   6.327
31736SOL     OW97039   4.708   7.004   3.042
31736SOL    HW197040   4.762   7.044   2.972
31736SOL    HW297041   4.726   6.910   3.035
31737SOL     OW97042   3.068   7.339   2.111
31737SOL    HW197043   3.039   7.398   2.181
31737SOL    HW297044   3.160   7.361   2.098
31738SOL     OW97045   0.996   1.369   6.815
31738SOL    HW197046   0.926   1.407   6.869
31738SOL    HW297047   1.063   1.437   6.813
31739SOL     OW97048   9.007   8.770   0.871
31739SOL    HW197049   9.028   8.796   0.781
31739SOL    HW297050   8.994   8.675   0.865
31740SOL     OW97051   5.023  13.989  12.509
31740SOL    HW197052   5.000  13.940  12.430
31740SOL    HW297053   5.113  13.963  12.528
31741SOL     OW97054  11.205  12.817   5.544
31741SOL    HW197055  11.261  12.895   5.546
31741SOL    HW297056  11.248  12.755   5.603
31742SOL     OW97057   5.840   1.862   6.493
31742SOL    HW197058   5.745   1.852   6.493
31742SOL    HW297059   5.863   1.884   6.403
31743SOL     OW97060   9.008   2.228  13.735
31743SOL    HW197061   9.025   2.279  13.656
31743SOL    HW297062   9.025   2.288  13.808
31744SOL     OW97063   3.659   7.970   0.011
31744SOL    HW197064   3.678   7.878   0.027
31744SOL    HW297065   3.742   8.008  14.859
31745SOL     OW97066   1.063  11.169  14.190
31745SOL    HW197067   1.102  11.250  14.158
31745SOL    HW297068   0.980  11.197  14.230
31746SOL     OW97069   6.903   1.358  12.194
31746SOL    HW197070   6.841   1.287  12.211
31746SOL    HW297071   6.975   1.341  12.255
31747SOL     OW97072   9.712   1.526   9.670
31747SOL    HW197073   9.722   1.466   9.596
31747SOL    HW297074   9.762   1.485   9.741
31748SOL     OW97075   9.970   6.456   8.510
31748SOL    HW197076   9.954   6.551   8.512
31748SOL    HW297077   9.951   6.427   8.599
31749SOL     OW97078   3.877   1.914  13.502
31749SOL    HW197079   3.892   1.887  13.593
31749SOL    HW297080   3.824   1.993  13.509
31750SOL     OW97081  10.853   0.547  11.784
31750SOL    HW197082  10.834   0.614  11.850
31750SOL    HW297083  10.775   0.545  11.729
31751SOL     OW97084   6.594   4.949  10.580
31751SOL    HW197085   6.680   4.917  10.607
31751SOL    HW297086   6.588   4.925  10.487
31752SOL     OW97087   4.452  10.988   6.188
31752SOL    HW197088   4.414  11.048   6.252
31752SOL    HW297089   4.406  10.905   6.201
31753SOL     OW97090   5.551   0.458   2.254
31753SOL    HW197091   5.497   0.459   2.175
31753SOL    HW297092   5.490   0.443   2.325
31754SOL     OW97093   6.073   9.265   4.552
31754SOL    HW197094   6.016   9.211   4.498
31754SOL    HW297095   6.161   9.230   4.537
31755SOL     OW97096   5.694   2.356  12.388
31755SOL    HW197097   5.686   2.435  12.441
31755SOL    HW297098   5.672   2.284  12.447
31756SOL     OW97099   1.637   2.263  12.742
31756SOL    HW197100   1.643   2.205  12.818
31756SOL    HW297101   1.704   2.231  12.682
31757SOL     OW97102  11.986   3.821   1.630
31757SOL    HW197103  11.905   3.770   1.638
31757SOL    HW297104  12.005   3.822   1.536
31758SOL     OW97105   3.643   2.303   3.224
31758SOL    HW197106   3.595   2.362   3.283
31758SOL    HW297107   3.580   2.233   3.205
31759SOL     OW97108   7.475  10.446   1.228
31759SOL    HW197109   7.520  10.526   1.256
31759SOL    HW297110   7.492  10.383   1.297
31760SOL     OW97111   5.328  10.668   4.465
31760SOL    HW197112   5.254  10.631   4.418
31760SOL    HW297113   5.365  10.733   4.405
31761SOL     OW97114   7.302  11.975  13.075
31761SOL    HW197115   7.228  11.932  13.032
31761SOL    HW297116   7.273  12.065  13.088
31762SOL     OW97117   8.980  12.530   4.493
31762SOL    HW197118   8.903  12.583   4.511
31762SOL    HW297119   9.033  12.584   4.433
31763SOL     OW97120  10.349   2.627   7.251
31763SOL    HW197121  10.326   2.540   7.217
31763SOL    HW297122  10.282   2.685   7.215
31764SOL     OW97123   7.034   8.315   2.226
31764SOL    HW197124   7.000   8.359   2.148
31764SOL    HW297125   7.056   8.386   2.286
31765SOL     OW97126   5.073  11.176   4.604
31765SOL    HW197127   5.105  11.223   4.527
31765SOL    HW297128   5.148  11.174   4.664
31766SOL     OW97129   3.624   2.808  14.487
31766SOL    HW197130   3.686   2.815  14.415
31766SOL    HW297131   3.590   2.719  14.481
31767SOL     OW97132  10.680   0.609  10.876
31767SOL    HW197133  10.655   0.688  10.827
31767SOL    HW297134  10.749   0.570  10.823
31768SOL     OW97135   8.323   7.106   5.459
31768SOL    HW197136   8.389   7.045   5.493
31768SOL    HW297137   8.304   7.074   5.371
31769SOL     OW97138   7.449  14.016   8.831
31769SOL    HW197139   7.411  14.081   8.891
31769SOL    HW297140   7.543  14.021   8.847
31770SOL     OW97141   4.220   1.516   2.211
31770SOL    HW197142   4.159   1.469   2.154
31770SOL    HW297143   4.307   1.495   2.176
31771SOL     OW97144  11.333  14.411   9.687
31771SOL    HW197145  11.263  14.395   9.750
31771SOL    HW297146  11.289  14.415   9.602
31772SOL     OW97147  10.646   5.377   5.011
31772SOL    HW197148  10.694   5.457   4.986
31772SOL    HW297149  10.683   5.353   5.096
31773SOL     OW97150   3.672   9.941   5.968
31773SOL    HW197151   3.682   9.856   5.925
31773SOL    HW297152   3.586   9.972   5.941
31774SOL     OW97153  10.416  13.946   2.768
31774SOL    HW197154  10.508  13.922   2.767
31774SOL    HW297155  10.416  14.041   2.776
31775SOL     OW97156   2.234  14.851  13.960
31775SOL    HW197157   2.254  14.818  13.872
31775SOL    HW297158   2.142  14.875  13.957
31776SOL     OW97159  10.409   5.264  11.793
31776SOL    HW197160  10.314   5.272  11.796
31776SOL    HW297161  10.435   5.245  11.883
31777SOL     OW97162  12.828  11.062  10.254
31777SOL    HW197163  12.871  11.058  10.168
31777SOL    HW297164  12.883  11.122  10.305
31778SOL     OW97165   5.424  14.550  11.890
31778SOL    HW197166   5.437  14.467  11.937
31778SOL    HW297167   5.329  14.560  11.885
31779SOL     OW97168   4.554  11.558   3.854
31779SOL    HW197169   4.570  11.470   3.818
31779SOL    HW297170   4.510  11.605   3.783
31780SOL     OW97171   0.870   2.462   8.185
31780SOL    HW197172   0.811   2.523   8.229
31780SOL    HW297173   0.822   2.379   8.185
31781SOL     OW97174  10.096   7.745   8.554
31781SOL    HW197175  10.076   7.653   8.571
31781SOL    HW297176  10.155   7.743   8.478
31782SOL     OW97177  11.610  11.831   2.906
31782SOL    HW197178  11.523  11.851   2.872
31782SOL    HW297179  11.605  11.739   2.932
31783SOL     OW97180   4.548   3.395   6.948
31783SOL    HW197181   4.614   3.339   6.989
31783SOL    HW297182   4.590   3.426   6.867
31784SOL     OW97183  12.543  13.178   2.548
31784SOL    HW197184  12.635  13.206   2.549
31784SOL    HW297185  12.526  13.153   2.457
31785SOL     OW97186   2.014   9.518   5.849
31785SOL    HW197187   2.101   9.519   5.809
31785SOL    HW297188   2.030   9.500   5.941
31786SOL     OW97189   7.146   1.247   5.870
31786SOL    HW197190   7.203   1.208   5.935
31786SOL    HW297191   7.204   1.297   5.813
31787SOL     OW97192  10.163   0.672   2.395
31787SOL    HW197193  10.208   0.589   2.385
31787SOL    HW297194  10.086   0.651   2.448
31788SOL     OW97195  13.318   4.427  13.833
31788SOL    HW197196  13.296   4.424  13.740
31788SOL    HW297197  13.251   4.374  13.876
31789SOL     OW97198   4.923   3.608   3.518
31789SOL    HW197199   4.862   3.596   3.591
31789SOL    HW297200   4.870   3.596   3.440
31790SOL     OW97201   8.737   5.807  14.647
31790SOL    HW197202   8.740   5.832  14.555
31790SOL    HW297203   8.708   5.715  14.646
31791SOL     OW97204   0.591  12.459   7.495
31791SOL    HW197205   0.677  12.417   7.500
31791SOL    HW297206   0.531  12.388   7.470
31792SOL     OW97207   4.895  14.738   4.718
31792SOL    HW197208   4.863  14.798   4.785
31792SOL    HW297209   4.970  14.694   4.759
31793SOL     OW97210  10.802   2.162  13.718
31793SOL    HW197211  10.856   2.232  13.756
31793SOL    HW297212  10.858   2.084  13.721
31794SOL     OW97213  12.081  13.082   6.234
31794SOL    HW197214  12.041  13.169   6.241
31794SOL    HW297215  12.060  13.039   6.317
31795SOL     OW97216   8.758  11.207   0.795
31795SOL    HW197217   8.768  11.290   0.748
31795SOL    HW297218   8.823  11.149   0.756
31796SOL     OW97219   6.828  13.210   0.352
31796SOL    HW197220   6.796  13.232   0.440
31796SOL    HW297221   6.750  13.176   0.307
31797SOL     OW97222  11.112   0.540   1.804
31797SOL    HW197223  11.063   0.514   1.882
31797SOL    HW297224  11.131   0.633   1.818
31798SOL     OW97225   2.128   6.935   2.766
31798SOL    HW197226   2.112   6.858   2.712
31798SOL    HW297227   2.130   7.008   2.703
31799SOL     OW97228  12.560  12.120  14.784
31799SOL    HW197229  12.464  12.115  14.782
31799SOL    HW297230  12.582  12.112   0.001
31800SOL     OW97231   8.855   5.292   0.064
31800SOL    HW197232   8.905   5.314  14.861
31800SOL    HW297233   8.917   5.242   0.118
31801SOL     OW97234  10.417  14.449  10.242
31801SOL    HW197235  10.374  14.534  10.234
31801SOL    HW297236  10.508  14.465  10.219
31802SOL     OW97237  14.758  12.818  13.341
31802SOL    HW197238  14.735  12.751  13.405
31802SOL    HW297239  14.721  12.785  13.258
31803SOL     OW97240  13.788   0.679   1.148
31803SOL    HW197241  13.822   0.759   1.108
31803SOL    HW297242  13.704   0.664   1.106
31804SOL     OW97243   6.881  14.485  14.273
31804SOL    HW197244   6.967  14.478  14.316
31804SOL    HW297245   6.892  14.555  14.209
31805SOL     OW97246  10.478   1.608   0.100
31805SOL    HW197247  10.417   1.678   0.123
31805SOL    HW297248  10.486   1.613   0.005
31806SOL     OW97249   1.105   4.022   8.519
31806SOL    HW197250   1.148   4.105   8.497
31806SOL    HW297251   1.018   4.048   8.549
31807SOL     OW97252   8.308   5.365   4.060
31807SOL    HW197253   8.320   5.375   3.965
31807SOL    HW297254   8.370   5.426   4.099
31808SOL     OW97255   3.539   3.630   1.056
31808SOL    HW197256   3.512   3.551   1.011
31808SOL    HW297257   3.485   3.699   1.018
31809SOL     OW97258  11.240   7.076   6.664
31809SOL    HW197259  11.248   6.998   6.609
31809SOL    HW297260  11.228   7.041   6.753
31810SOL     OW97261  11.358   1.490   3.241
31810SOL    HW197262  11.326   1.518   3.155
31810SOL    HW297263  11.451   1.473   3.227
31811SOL     OW97264   8.536   5.862   3.072
31811SOL    HW197265   8.465   5.809   3.109
31811SOL    HW297266   8.561   5.818   2.991
31812SOL     OW97267  11.802   7.248   7.413
31812SOL    HW197268  11.821   7.283   7.500
31812SOL    HW297269  11.855   7.300   7.353
31813SOL     OW97270   7.226   2.868  12.455
31813SOL    HW197271   7.276   2.801  12.503
31813SOL    HW297272   7.204   2.934  12.521
31814SOL     OW97273   2.438  13.912   9.890
31814SOL    HW197274   2.469  13.836   9.840
31814SOL    HW297275   2.503  13.980   9.873
31815SOL     OW97276  11.550   9.504   9.480
31815SOL    HW197277  11.475   9.450   9.455
31815SOL    HW297278  11.510   9.584   9.514
31816SOL     OW97279   6.307  10.554   4.013
31816SOL    HW197280   6.373  10.617   3.985
31816SOL    HW297281   6.279  10.586   4.099
31817SOL     OW97282  14.519  12.610  13.368
31817SOL    HW197283  14.590  12.593  13.306
31817SOL    HW297284  14.489  12.698  13.346
31818SOL     OW97285   8.242   6.615   5.175
31818SOL    HW197286   8.167   6.648   5.225
31818SOL    HW297287   8.317   6.665   5.207
31819SOL     OW97288   8.818  12.007  13.471
31819SOL    HW197289   8.853  12.089  13.437
31819SOL    HW297290   8.730  12.029  13.500
31820SOL     OW97291   3.498   8.082  10.374
31820SOL    HW197292   3.474   8.136  10.298
31820SOL    HW297293   3.500   8.143  10.447
31821SOL     OW97294  12.731   3.073  14.158
31821SOL    HW197295  12.677   3.140  14.116
31821SOL    HW297296  12.713   2.993  14.107
31822SOL     OW97297  13.758   3.758   9.495
31822SOL    HW197298  13.701   3.818   9.446
31822SOL    HW297299  13.841   3.759   9.447
31823SOL     OW97300   5.136  14.355   6.429
31823SOL    HW197301   5.150  14.279   6.373
31823SOL    HW297302   5.222  14.397   6.435
31824SOL     OW97303  12.645   5.816   5.263
31824SOL    HW197304  12.620   5.879   5.330
31824SOL    HW297305  12.726   5.851   5.226
31825SOL     OW97306   9.145   1.830  13.056
31825SOL    HW197307   9.133   1.817  13.150
31825SOL    HW297308   9.235   1.863  13.048
31826SOL     OW97309  12.521   7.331  11.023
31826SOL    HW197310  12.504   7.425  11.032
31826SOL    HW297311  12.504   7.312  10.931
31827SOL     OW97312   2.088  13.439   8.707
31827SOL    HW197313   2.122  13.351   8.693
31827SOL    HW297314   2.099  13.483   8.623
31828SOL     OW97315  11.593   9.637  12.911
31828SOL    HW197316  11.596   9.649  12.816
31828SOL    HW297317  11.637   9.714  12.946
31829SOL     OW97318   9.368  14.274  12.198
31829SOL    HW197319   9.427  14.278  12.122
31829SOL    HW297320   9.377  14.184  12.229
31830SOL     OW97321  14.624  11.916   5.141
31830SOL    HW197322  14.705  11.891   5.185
31830SOL    HW297323  14.629  12.011   5.133
31831SOL     OW97324   8.845   4.292   3.666
31831SOL    HW197325   8.852   4.381   3.630
31831SOL    HW297326   8.828   4.305   3.759
31832SOL     OW97327   4.876   3.050   8.034
31832SOL    HW197328   4.842   2.960   8.038
31832SOL    HW297329   4.971   3.040   8.042
31833SOL     OW97330   2.604   4.247  11.461
31833SOL    HW197331   2.659   4.170  11.442
31833SOL    HW297332   2.635   4.278  11.546
31834SOL     OW97333  13.967   9.038  10.018
31834SOL    HW197334  13.883   9.012   9.980
31834SOL    HW297335  14.032   8.987   9.970
31835SOL     OW97336   5.371  13.536   5.051
31835SOL    HW197337   5.294  13.499   5.095
31835SOL    HW297338   5.342  13.623   5.023
31836SOL     OW97339  12.430   5.149  10.050
31836SOL    HW197340  12.444   5.159  10.144
31836SOL    HW297341  12.486   5.075  10.026
31837SOL     OW97342   7.502   2.169   5.534
31837SOL    HW197343   7.438   2.170   5.463
31837SOL    HW297344   7.461   2.217   5.605
31838SOL     OW97345  12.298   6.882   8.186
31838SOL    HW197346  12.354   6.953   8.217
31838SOL    HW297347  12.359   6.814   8.158
31839SOL     OW97348  11.881  13.106  10.012
31839SOL    HW197349  11.920  13.040  10.069
31839SOL    HW297350  11.811  13.144  10.064
31840SOL     OW97351  11.462  11.788   3.664
31840SOL    HW197352  11.420  11.703   3.680
31840SOL    HW297353  11.500  11.812   3.748
31841SOL     OW97354   1.353  10.791   0.239
31841SOL    HW197355   1.439  10.753   0.261
31841SOL    HW297356   1.296  10.715   0.230
31842SOL     OW97357   5.476   8.834   8.034
31842SOL    HW197358   5.462   8.843   8.128
31842SOL    HW297359   5.396   8.792   8.002
31843SOL     OW97360   0.205   6.804  14.460
31843SOL    HW197361   0.220   6.898  14.463
31843SOL    HW297362   0.178   6.781  14.549
31844SOL     OW97363  11.081   9.149   3.723
31844SOL    HW197364  10.996   9.110   3.744
31844SOL    HW297365  11.064   9.243   3.722
31845SOL     OW97366   3.475   5.308  13.861
31845SOL    HW197367   3.484   5.244  13.932
31845SOL    HW297368   3.476   5.256  13.781
31846SOL     OW97369   0.777  12.786   9.770
31846SOL    HW197370   0.791  12.692   9.757
31846SOL    HW297371   0.797  12.826   9.685
31847SOL     OW97372   3.327   1.326   6.846
31847SOL    HW197373   3.312   1.235   6.820
31847SOL    HW297374   3.238   1.362   6.856
31848SOL     OW97375  14.220   3.970  11.672
31848SOL    HW197376  14.200   3.882  11.705
31848SOL    HW297377  14.173   4.029  11.732
31849SOL     OW97378  13.991   5.269   4.205
31849SOL    HW197379  13.921   5.319   4.246
31849SOL    HW297380  14.066   5.328   4.204
31850SOL     OW97381  12.825   4.682  11.974
31850SOL    HW197382  12.830   4.774  11.999
31850SOL    HW297383  12.764   4.680  11.901
31851SOL     OW97384   1.854  14.266  12.754
31851SOL    HW197385   1.774  14.288  12.706
31851SOL    HW297386   1.825  14.204  12.821
31852SOL     OW97387   4.953  13.770   2.254
31852SOL    HW197388   4.903  13.842   2.293
31852SOL    HW297389   4.995  13.726   2.328
31853SOL     OW97390  13.150   7.086  12.541
31853SOL    HW197391  13.074   7.121  12.587
31853SOL    HW297392  13.214   7.069  12.611
31854SOL     OW97393  10.263   1.290   0.987
31854SOL    HW197394  10.354   1.303   0.963
31854SOL    HW297395  10.259   1.200   1.021
31855SOL     OW97396  12.304   7.165   4.319
31855SOL    HW197397  12.314   7.237   4.257
31855SOL    HW297398  12.349   7.194   4.398
31856SOL     OW97399   6.875  13.636   2.561
31856SOL    HW197400   6.834  13.644   2.475
31856SOL    HW297401   6.819  13.686   2.620
31857SOL     OW97402   8.694   7.170   2.664
31857SOL    HW197403   8.690   7.080   2.694
31857SOL    HW297404   8.693   7.222   2.745
31858SOL     OW97405   9.615   6.709   2.582
31858SOL    HW197406   9.535   6.656   2.581
31858SOL    HW297407   9.632   6.728   2.490
31859SOL     OW97408  14.171   1.183   2.656
31859SOL    HW197409  14.201   1.094   2.674
31859SOL    HW297410  14.159   1.222   2.743
31860SOL     OW97411   3.093   7.274   4.379
31860SOL    HW197412   3.107   7.352   4.432
31860SOL    HW297413   3.153   7.208   4.415
31861SOL     OW97414   9.242   6.314  13.060
31861SOL    HW197415   9.243   6.313  12.964
31861SOL    HW297416   9.327   6.278  13.085
31862SOL     OW97417   6.836   8.817  12.899
31862SOL    HW197418   6.803   8.729  12.880
31862SOL    HW297419   6.774   8.875  12.853
31863SOL     OW97420  14.071   0.690  11.133
31863SOL    HW197421  14.001   0.742  11.174
31863SOL    HW297422  14.128   0.755  11.092
31864SOL     OW97423   3.214  12.896  13.944
31864SOL    HW197424   3.304  12.897  13.977
31864SOL    HW297425   3.165  12.844  14.007
31865SOL     OW97426   6.680   0.119   2.697
31865SOL    HW197427   6.607   0.057   2.687
31865SOL    HW297428   6.754   0.064   2.725
31866SOL     OW97429   5.007   0.909   9.441
31866SOL    HW197430   5.071   0.878   9.505
31866SOL    HW297431   5.050   0.895   9.356
31867SOL     OW97432   8.348  11.143   8.897
31867SOL    HW197433   8.374  11.058   8.934
31867SOL    HW297434   8.253  11.135   8.885
31868SOL     OW97435   7.251  12.527   3.014
31868SOL    HW197436   7.229  12.492   2.927
31868SOL    HW297437   7.336  12.489   3.035
31869SOL     OW97438  12.762   1.872  14.256
31869SOL    HW197439  12.746   1.958  14.295
31869SOL    HW297440  12.709   1.812  14.307
31870SOL     OW97441  13.639   3.363   8.855
31870SOL    HW197442  13.591   3.284   8.877
31870SOL    HW297443  13.690   3.340   8.778
31871SOL     OW97444   6.794   8.242  13.829
31871SOL    HW197445   6.713   8.202  13.858
31871SOL    HW297446   6.788   8.333  13.857
31872SOL     OW97447  12.119  13.375   0.087
31872SOL    HW197448  12.034  13.371   0.129
31872SOL    HW297449  12.147  13.466   0.096
31873SOL     OW97450   6.502   2.516  13.818
31873SOL    HW197451   6.487   2.518  13.913
31873SOL    HW297452   6.470   2.430  13.791
31874SOL     OW97453  11.151   0.662   4.165
31874SOL    HW197454  11.116   0.628   4.083
31874SOL    HW297455  11.074   0.672   4.221
31875SOL     OW97456   6.515   3.524   4.541
31875SOL    HW197457   6.479   3.465   4.474
31875SOL    HW297458   6.604   3.542   4.512
31876SOL     OW97459   3.485   5.825   8.964
31876SOL    HW197460   3.493   5.917   8.939
31876SOL    HW297461   3.575   5.799   8.987
31877SOL     OW97462  13.182   3.516   2.548
31877SOL    HW197463  13.126   3.573   2.497
31877SOL    HW297464  13.249   3.575   2.584
31878SOL     OW97465  11.240   6.131  14.684
31878SOL    HW197466  11.227   6.204  14.623
31878SOL    HW297467  11.173   6.143  14.751
31879SOL     OW97468   1.000   4.331   8.331
31879SOL    HW197469   1.062   4.291   8.391
31879SOL    HW297470   0.917   4.331   8.380
31880SOL     OW97471   3.939   6.492   7.669
31880SOL    HW197472   3.995   6.419   7.641
31880SOL    HW297473   3.963   6.565   7.611
31881SOL     OW97474   1.277   7.225   3.129
31881SOL    HW197475   1.338   7.287   3.169
31881SOL    HW297476   1.248   7.169   3.202
31882SOL     OW97477   5.118   6.681  14.830
31882SOL    HW197478   5.168   6.641  14.759
31882SOL    HW297479   5.182   6.698   0.022
31883SOL     OW97480  10.870  11.684  14.408
31883SOL    HW197481  10.895  11.639  14.489
31883SOL    HW297482  10.865  11.614  14.342
31884SOL     OW97483  10.298   1.378  10.014
31884SOL    HW197484  10.323   1.377  10.106
31884SOL    HW297485  10.203   1.391  10.016
31885SOL     OW97486   2.688   9.736   7.852
31885SOL    HW197487   2.721   9.824   7.870
31885SOL    HW297488   2.599   9.736   7.889
31886SOL     OW97489  10.735   1.097  12.811
31886SOL    HW197490  10.791   1.130  12.742
31886SOL    HW297491  10.653   1.146  12.802
31887SOL     OW97492  13.229   8.346   0.524
31887SOL    HW197493  13.147   8.341   0.475
31887SOL    HW297494  13.253   8.255   0.540
31888SOL     OW97495   3.015  13.332   5.530
31888SOL    HW197496   2.973  13.406   5.486
31888SOL    HW297497   2.978  13.332   5.618
31889SOL     OW97498   5.400  12.348   5.127
31889SOL    HW197499   5.338  12.374   5.195
31889SOL    HW297500   5.387  12.412   5.057
31890SOL     OW97501   8.095   8.028   0.755
31890SOL    HW197502   8.065   8.116   0.734
31890SOL    HW297503   8.159   8.008   0.686
31891SOL     OW97504   5.449  12.523   2.291
31891SOL    HW197505   5.516  12.562   2.236
31891SOL    HW297506   5.449  12.577   2.371
31892SOL     OW97507   9.624   4.183  10.090
31892SOL    HW197508   9.551   4.174  10.029
31892SOL    HW297509   9.660   4.270  10.074
31893SOL     OW97510  11.904   3.715   5.831
31893SOL    HW197511  11.825   3.711   5.777
31893SOL    HW297512  11.977   3.709   5.769
31894SOL     OW97513   2.541  13.667   4.238
31894SOL    HW197514   2.484  13.592   4.255
31894SOL    HW297515   2.584  13.646   4.155
31895SOL     OW97516   1.923   9.738   7.218
31895SOL    HW197517   1.992   9.801   7.239
31895SOL    HW297518   1.906   9.693   7.301
31896SOL     OW97519   1.588  12.169  11.081
31896SOL    HW197520   1.507  12.206  11.118
31896SOL    HW297521   1.564  12.145  10.991
31897SOL     OW97522   3.540   4.573   9.220
31897SOL    HW197523   3.480   4.646   9.236
31897SOL    HW297524   3.495   4.518   9.156
31898SOL     OW97525   0.073   2.810   9.281
31898SOL    HW197526   0.025   2.732   9.309
31898SOL    HW297527   0.059   2.813   9.186
31899SOL     OW97528   8.782   0.097   4.691
31899SOL    HW197529   8.772   0.099   4.786
31899SOL    HW297530   8.812   0.008   4.672
31900SOL     OW97531   9.729   8.777   1.819
31900SOL    HW197532   9.715   8.857   1.770
31900SOL    HW297533   9.774   8.805   1.899
31901SOL     OW97534   7.403   4.834   6.188
31901SOL    HW197535   7.434   4.873   6.107
31901SOL    HW297536   7.482   4.802   6.232
31902SOL     OW97537   4.790   1.129  12.864
31902SOL    HW197538   4.756   1.183  12.935
31902SOL    HW297539   4.810   1.191  12.794
31903SOL     OW97540  13.243  12.177   8.163
31903SOL    HW197541  13.181  12.141   8.099
31903SOL    HW297542  13.326  12.134   8.142
31904SOL     OW97543  12.804  10.078   4.807
31904SOL    HW197544  12.887  10.123   4.817
31904SOL    HW297545  12.823   9.987   4.829
31905SOL     OW97546   6.733  13.918   5.426
31905SOL    HW197547   6.805  13.915   5.490
31905SOL    HW297548   6.662  13.962   5.473
31906SOL     OW97549  13.297   8.469   7.223
31906SOL    HW197550  13.238   8.525   7.172
31906SOL    HW297551  13.376   8.521   7.234
31907SOL     OW97552   5.814   6.067   3.671
31907SOL    HW197553   5.785   6.130   3.738
31907SOL    HW297554   5.758   6.084   3.596
31908SOL     OW97555  12.893   8.611  10.780
31908SOL    HW197556  12.916   8.528  10.823
31908SOL    HW297557  12.889   8.589  10.687
31909SOL     OW97558   4.879   6.564  11.701
31909SOL    HW197559   4.796   6.612  11.699
31909SOL    HW297560   4.943   6.628  11.731
31910SOL     OW97561   9.191   7.416  13.987
31910SOL    HW197562   9.133   7.342  13.968
31910SOL    HW297563   9.240   7.389  14.064
31911SOL     OW97564   7.411   2.326   1.549
31911SOL    HW197565   7.392   2.414   1.581
31911SOL    HW297566   7.427   2.275   1.628
31912SOL     OW97567   3.759  11.222  10.994
31912SOL    HW197568   3.803  11.307  10.998
31912SOL    HW297569   3.705  11.226  10.915
31913SOL     OW97570   9.654   7.623   0.569
31913SOL    HW197571   9.654   7.715   0.542
31913SOL    HW297572   9.586   7.617   0.635
31914SOL     OW97573  11.944   3.444   3.053
31914SOL    HW197574  12.040   3.439   3.058
31914SOL    HW297575  11.914   3.366   3.100
31915SOL     OW97576   3.941  13.929   7.861
31915SOL    HW197577   3.950  13.837   7.837
31915SOL    HW297578   4.017  13.972   7.822
31916SOL     OW97579   7.196   3.708   1.340
31916SOL    HW197580   7.166   3.793   1.307
31916SOL    HW297581   7.115   3.662   1.363
31917SOL     OW97582  10.538  11.921   4.005
31917SOL    HW197583  10.620  11.885   4.040
31917SOL    HW297584  10.475  11.907   4.076
31918SOL     OW97585   9.936  10.177   5.906
31918SOL    HW197586   9.974  10.184   5.818
31918SOL    HW297587   9.844  10.156   5.891
31919SOL     OW97588   9.684  11.993  11.181
31919SOL    HW197589   9.753  11.969  11.244
31919SOL    HW297590   9.609  11.939  11.205
31920SOL     OW97591  12.731   6.814   5.090
31920SOL    HW197592  12.712   6.809   5.184
31920SOL    HW297593  12.695   6.899   5.063
31921SOL     OW97594   4.570   9.958   2.795
31921SOL    HW197595   4.625   9.918   2.728
31921SOL    HW297596   4.625  10.025   2.835
31922SOL     OW97597   5.632  13.030   9.742
31922SOL    HW197598   5.625  12.972   9.817
31922SOL    HW297599   5.564  13.096   9.756
31923SOL     OW97600  13.930   0.787  14.062
31923SOL    HW197601  13.921   0.785  14.158
31923SOL    HW297602  13.841   0.790  14.029
31924SOL     OW97603   0.106   0.310  13.023
31924SOL    HW197604   0.125   0.345  12.936
31924SOL    HW297605   0.117   0.385  13.082
31925SOL     OW97606  14.388   7.092   5.235
31925SOL    HW197607  14.458   7.153   5.211
31925SOL    HW297608  14.314   7.118   5.180
31926SOL     OW97609   2.001  11.952  10.617
31926SOL    HW197610   1.956  12.036  10.613
31926SOL    HW297611   1.974  11.906  10.538
31927SOL     OW97612   8.942   6.452  11.083
31927SOL    HW197613   9.001   6.527  11.093
31927SOL    HW297614   8.922   6.426  11.173
31928SOL     OW97615   6.570   4.846  10.315
31928SOL    HW197616   6.595   4.878  10.228
31928SOL    HW297617   6.491   4.795  10.300
31929SOL     OW97618   9.515  13.152  12.600
31929SOL    HW197619   9.611  13.148  12.601
31929SOL    HW297620   9.488  13.104  12.678
31930SOL     OW97621   7.627   7.654   0.998
31930SOL    HW197622   7.615   7.642   0.904
31930SOL    HW297623   7.542   7.683   1.030
31931SOL     OW97624  12.528   9.269   7.665
31931SOL    HW197625  12.492   9.329   7.600
31931SOL    HW297626  12.453   9.220   7.698
31932SOL     OW97627   2.846   1.322   2.162
31932SOL    HW197628   2.898   1.255   2.206
31932SOL    HW297629   2.863   1.310   2.069
31933SOL     OW97630   5.823   2.592   5.046
31933SOL    HW197631   5.733   2.618   5.064
31933SOL    HW297632   5.814   2.519   4.984
31934SOL     OW97633  10.701   9.041   9.441
31934SOL    HW197634  10.693   9.135   9.460
31934SOL    HW297635  10.752   9.006   9.514
31935SOL     OW97636  14.834  12.648  14.334
31935SOL    HW197637  14.781  12.568  14.335
31935SOL    HW297638  14.772  12.718  14.352
31936SOL     OW97639   0.599  11.543   8.843
31936SOL    HW197640   0.581  11.618   8.900
31936SOL    HW297641   0.554  11.565   8.761
31937SOL     OW97642   1.752   9.012   1.081
31937SOL    HW197643   1.729   9.097   1.043
31937SOL    HW297644   1.818   9.032   1.148
31938SOL     OW97645   4.379   7.127   3.513
31938SOL    HW197646   4.462   7.102   3.554
31938SOL    HW297647   4.329   7.168   3.583
31939SOL     OW97648   7.039  13.167  12.535
31939SOL    HW197649   7.116  13.205  12.578
31939SOL    HW297650   6.994  13.118  12.603
31940SOL     OW97651   3.485   3.996   3.039
31940SOL    HW197652   3.575   4.006   3.071
31940SOL    HW297653   3.495   3.982   2.945
31941SOL     OW97654   9.241  10.906   2.492
31941SOL    HW197655   9.292  10.842   2.443
31941SOL    HW297656   9.254  10.883   2.584
31942SOL     OW97657   7.404   4.892   9.805
31942SOL    HW197658   7.479   4.878   9.862
31942SOL    HW297659   7.442   4.920   9.722
31943SOL     OW97660   7.226   4.792   7.266
31943SOL    HW197661   7.291   4.833   7.209
31943SOL    HW297662   7.142   4.815   7.226
31944SOL     OW97663   4.783   4.049   0.553
31944SOL    HW197664   4.814   3.997   0.479
31944SOL    HW297665   4.689   4.061   0.537
31945SOL     OW97666   9.156   5.666   1.729
31945SOL    HW197667   9.224   5.609   1.694
31945SOL    HW297668   9.084   5.606   1.750
31946SOL     OW97669   5.342   2.295   8.224
31946SOL    HW197670   5.372   2.380   8.257
31946SOL    HW297671   5.248   2.307   8.210
31947SOL     OW97672  13.253  12.017  12.934
31947SOL    HW197673  13.337  12.052  12.964
31947SOL    HW297674  13.221  11.964  13.007
31948SOL     OW97675  11.440   4.302   6.476
31948SOL    HW197676  11.434   4.397   6.491
31948SOL    HW297677  11.352   4.270   6.493
31949SOL     OW97678   9.136   2.624   9.773
31949SOL    HW197679   9.131   2.664   9.686
31949SOL    HW297680   9.189   2.685   9.825
31950SOL     OW97681  10.094   2.078   0.653
31950SOL    HW197682  10.039   2.141   0.701
31950SOL    HW297683  10.170   2.129   0.626
31951SOL     OW97684   8.025   6.256   5.828
31951SOL    HW197685   8.040   6.311   5.751
31951SOL    HW297686   8.109   6.210   5.840
31952SOL     OW97687  14.365   2.048   4.903
31952SOL    HW197688  14.336   2.042   4.994
31952SOL    HW297689  14.450   2.004   4.903
31953SOL     OW97690   9.753  14.466  12.790
31953SOL    HW197691   9.702  14.464  12.871
31953SOL    HW297692   9.789  14.378  12.783
31954SOL     OW97693   7.606   1.492  13.250
31954SOL    HW197694   7.649   1.577  13.259
31954SOL    HW297695   7.588   1.485  13.157
31955SOL     OW97696   2.863  13.908   5.169
31955SOL    HW197697   2.856  13.998   5.199
31955SOL    HW297698   2.957  13.891   5.165
31956SOL     OW97699  11.580   1.230   7.772
31956SOL    HW197700  11.665   1.261   7.741
31956SOL    HW297701  11.530   1.309   7.790
31957SOL     OW97702   0.034   6.310   6.970
31957SOL    HW197703   0.014   6.247   6.901
31957SOL    HW297704  14.825   6.347   6.994
31958SOL     OW97705  14.260   8.979   6.369
31958SOL    HW197706  14.218   9.021   6.293
31958SOL    HW297707  14.222   9.025   6.444
31959SOL     OW97708   6.023   3.813  12.356
31959SOL    HW197709   5.946   3.783  12.308
31959SOL    HW297710   6.097   3.794  12.298
31960SOL     OW97711  13.635  13.843  14.491
31960SOL    HW197712  13.617  13.851  14.584
31960SOL    HW297713  13.690  13.919  14.471
31961SOL     OW97714  11.889   0.811   4.035
31961SOL    HW197715  11.823   0.857   4.087
31961SOL    HW297716  11.912   0.735   4.088
31962SOL     OW97717   6.996   3.903  11.809
31962SOL    HW197718   7.063   3.847  11.770
31962SOL    HW297719   7.003   3.985  11.761
31963SOL     OW97720   5.888   4.567  10.424
31963SOL    HW197721   5.901   4.642  10.366
31963SOL    HW297722   5.976   4.528  10.431
31964SOL     OW97723  10.311  10.864   6.370
31964SOL    HW197724  10.294  10.956   6.393
31964SOL    HW297725  10.298  10.816   6.452
31965SOL     OW97726  11.116   9.142   7.160
31965SOL    HW197727  11.119   9.049   7.136
31965SOL    HW297728  11.205   9.174   7.147
31966SOL     OW97729   2.606   3.612   4.981
31966SOL    HW197730   2.512   3.616   4.964
31966SOL    HW297731   2.644   3.675   4.919
31967SOL     OW97732   7.015   9.782  11.590
31967SOL    HW197733   7.051   9.741  11.512
31967SOL    HW297734   6.920   9.777  11.579
31968SOL     OW97735   8.971  10.759   7.682
31968SOL    HW197736   9.023  10.823   7.731
31968SOL    HW297737   9.014  10.675   7.699
31969SOL     OW97738  11.971  11.439   8.803
31969SOL    HW197739  11.920  11.431   8.723
31969SOL    HW297740  12.026  11.517   8.789
31970SOL     OW97741   7.759   6.426   5.557
31970SOL    HW197742   7.706   6.371   5.500
31970SOL    HW297743   7.843   6.381   5.563
31971SOL     OW97744  11.028   1.982   2.935
31971SOL    HW197745  10.978   1.936   3.003
31971SOL    HW297746  10.977   1.968   2.855
31972SOL     OW97747   2.790  11.978   7.093
31972SOL    HW197748   2.804  12.060   7.140
31972SOL    HW297749   2.860  11.976   7.027
31973SOL     OW97750   5.481   3.034   5.358
31973SOL    HW197751   5.488   3.129   5.349
31973SOL    HW297752   5.387   3.017   5.354
31974SOL     OW97753   7.548  12.808   2.031
31974SOL    HW197754   7.496  12.849   2.100
31974SOL    HW297755   7.631  12.787   2.074
31975SOL     OW97756   8.757  11.906  13.009
31975SOL    HW197757   8.679  11.868  13.050
31975SOL    HW297758   8.728  11.992  12.979
31976SOL     OW97759  10.658  13.722   1.221
31976SOL    HW197760  10.617  13.808   1.210
31976SOL    HW297761  10.589  13.667   1.258
31977SOL     OW97762   7.446   7.550   1.359
31977SOL    HW197763   7.438   7.644   1.342
31977SOL    HW297764   7.540   7.532   1.350
31978SOL     OW97765   6.464   9.615   5.665
31978SOL    HW197766   6.390   9.573   5.620
31978SOL    HW297767   6.494   9.550   5.729
31979SOL     OW97768   5.539   8.519  10.187
31979SOL    HW197769   5.470   8.462  10.152
31979SOL    HW297770   5.504   8.607  10.179
31980SOL     OW97771   8.403   5.876  13.869
31980SOL    HW197772   8.410   5.962  13.910
31980SOL    HW297773   8.381   5.817  13.941
31981SOL     OW97774   4.793  10.230   8.057
31981SOL    HW197775   4.771  10.170   8.128
31981SOL    HW297776   4.793  10.175   7.978
31982SOL     OW97777  11.051   7.780   9.827
31982SOL    HW197778  11.002   7.861   9.843
31982SOL    HW297779  11.142   7.807   9.830
31983SOL     OW97780  10.666   9.593   8.318
31983SOL    HW197781  10.620   9.607   8.401
31983SOL    HW297782  10.732   9.527   8.338
31984SOL     OW97783   8.274   7.887  14.405
31984SOL    HW197784   8.306   7.955  14.346
31984SOL    HW297785   8.349   7.865  14.460
31985SOL     OW97786   0.377  10.594  11.183
31985SOL    HW197787   0.399  10.509  11.147
31985SOL    HW297788   0.401  10.656  11.115
31986SOL     OW97789  10.489   3.602   9.154
31986SOL    HW197790  10.524   3.688   9.178
31986SOL    HW297791  10.510   3.592   9.062
31987SOL     OW97792   8.714  11.288  14.798
31987SOL    HW197793   8.679  11.204  14.828
31987SOL    HW297794   8.745  11.270  14.709
31988SOL     OW97795   7.906  10.204  13.955
31988SOL    HW197796   7.817  10.170  13.940
31988SOL    HW297797   7.935  10.160  14.034
31989SOL     OW97798  13.275   0.359   5.697
31989SOL    HW197799  13.287   0.340   5.604
31989SOL    HW297800  13.275   0.273   5.739
31990SOL     OW97801   9.108   3.388   1.573
31990SOL    HW197802   9.125   3.379   1.479
31990SOL    HW297803   9.061   3.471   1.581
31991SOL     OW97804   0.433   9.375   0.600
31991SOL    HW197805   0.374   9.331   0.662
31991SOL    HW297806   0.394   9.359   0.514
31992SOL     OW97807  10.021   6.072  11.669
31992SOL    HW197808   9.956   6.116  11.614
31992SOL    HW297809  10.088   6.041  11.608
31993SOL     OW97810   4.669   3.517  11.857
31993SOL    HW197811   4.763   3.497  11.860
31993SOL    HW297812   4.663   3.597  11.804
31994SOL     OW97813   8.696   3.407   7.693
31994SOL    HW197814   8.769   3.437   7.639
31994SOL    HW297815   8.624   3.395   7.631
31995SOL     OW97816   4.540   0.900  11.416
31995SOL    HW197817   4.521   0.811  11.447
31995SOL    HW297818   4.616   0.928  11.467
31996SOL     OW97819   1.422   7.082   4.435
31996SOL    HW197820   1.448   7.168   4.400
31996SOL    HW297821   1.411   7.097   4.529
31997SOL     OW97822  13.942   7.910   9.280
31997SOL    HW197823  13.999   7.862   9.220
31997SOL    HW297824  13.884   7.960   9.223
31998SOL     OW97825   8.040  14.270  11.426
31998SOL    HW197826   7.947  14.250  11.426
31998SOL    HW297827   8.076  14.216  11.355
31999SOL     OW97828   7.783   3.577  10.101
31999SOL    HW197829   7.768   3.627  10.021
31999SOL    HW297830   7.705   3.591  10.154
32000SOL     OW97831   1.956   9.794   5.152
32000SOL    HW197832   1.936   9.714   5.102
32000SOL    HW297833   1.903   9.786   5.231
32001SOL     OW97834   8.317   6.779   3.457
32001SOL    HW197835   8.222   6.771   3.447
32001SOL    HW297836   8.331   6.872   3.476
32002SOL     OW97837  12.421   7.911  14.731
32002SOL    HW197838  12.403   8.001  14.759
32002SOL    HW297839  12.362   7.858  14.785
32003SOL     OW97840  14.797  11.550   8.528
32003SOL    HW197841  14.720  11.596   8.560
32003SOL    HW297842  14.807  11.580   8.437
32004SOL     OW97843   2.214  13.422   3.459
32004SOL    HW197844   2.228  13.455   3.370
32004SOL    HW297845   2.294  13.446   3.506
32005SOL     OW97846   9.403   9.991  12.873
32005SOL    HW197847   9.387  10.077  12.834
32005SOL    HW297848   9.405  10.008  12.968
32006SOL     OW97849   5.955   9.804   0.545
32006SOL    HW197850   5.871   9.804   0.501
32006SOL    HW297851   6.019   9.827   0.478
32007SOL     OW97852   9.221  11.669   9.745
32007SOL    HW197853   9.303  11.713   9.771
32007SOL    HW297854   9.164  11.679   9.821
32008SOL     OW97855  10.823  12.086   7.653
32008SOL    HW197856  10.753  12.085   7.718
32008SOL    HW297857  10.780  12.105   7.570
32009SOL     OW97858  12.926  10.180  11.451
32009SOL    HW197859  12.838  10.209  11.474
32009SOL    HW297860  12.969  10.257  11.415
32010SOL     OW97861   3.599  11.718   4.789
32010SOL    HW197862   3.532  11.654   4.814
32010SOL    HW297863   3.636  11.683   4.707
32011SOL     OW97864   5.878   3.928   5.017
32011SOL    HW197865   5.931   3.851   4.996
32011SOL    HW297866   5.817   3.936   4.944
32012SOL     OW97867   4.633   8.290   4.711
32012SOL    HW197868   4.619   8.196   4.725
32012SOL    HW297869   4.727   8.302   4.722
32013SOL     OW97870   6.291   2.808   4.784
32013SOL    HW197871   6.307   2.719   4.752
32013SOL    HW297872   6.217   2.800   4.843
32014SOL     OW97873   8.880   3.439  13.475
32014SOL    HW197874   8.913   3.476  13.394
32014SOL    HW297875   8.788   3.465  13.478
32015SOL     OW97876  11.322   3.495   3.148
32015SOL    HW197877  11.343   3.552   3.222
32015SOL    HW297878  11.226   3.492   3.146
32016SOL     OW97879   9.936   3.115   6.512
32016SOL    HW197880   9.920   3.200   6.553
32016SOL    HW297881   9.849   3.076   6.502
32017SOL     OW97882   1.941   3.955  11.383
32017SOL    HW197883   2.034   3.977  11.386
32017SOL    HW297884   1.938   3.874  11.332
32018SOL     OW97885   8.777   1.777   2.899
32018SOL    HW197886   8.792   1.729   2.817
32018SOL    HW297887   8.685   1.804   2.895
32019SOL     OW97888   5.653   1.345  13.664
32019SOL    HW197889   5.665   1.265  13.714
32019SOL    HW297890   5.586   1.395  13.712
32020SOL     OW97891   3.821   5.445   9.714
32020SOL    HW197892   3.801   5.381   9.783
32020SOL    HW297893   3.805   5.398   9.632
32021SOL     OW97894   8.733   2.185   8.371
32021SOL    HW197895   8.687   2.102   8.358
32021SOL    HW297896   8.811   2.161   8.421
32022SOL     OW97897  14.706   1.411   3.300
32022SOL    HW197898  14.749   1.434   3.218
32022SOL    HW297899  14.717   1.489   3.355
32023SOL     OW97900   9.168   2.711  14.820
32023SOL    HW197901   9.149   2.642   0.009
32023SOL    HW297902   9.248   2.683  14.778
32024SOL     OW97903   8.297   0.393  13.679
32024SOL    HW197904   8.268   0.474  13.637
32024SOL    HW297905   8.228   0.329  13.657
32025SOL     OW97906   9.098   4.044  14.316
32025SOL    HW197907   9.148   3.968  14.287
32025SOL    HW297908   9.050   4.012  14.393
32026SOL     OW97909   0.050  10.046   0.229
32026SOL    HW197910  14.843  10.000   0.214
32026SOL    HW297911   0.117   9.986   0.197
32027SOL     OW97912   1.593   9.741  12.804
32027SOL    HW197913   1.513   9.718  12.851
32027SOL    HW297914   1.638   9.803  12.861
32028SOL     OW97915   5.434   7.162   8.231
32028SOL    HW197916   5.480   7.190   8.310
32028SOL    HW297917   5.355   7.216   8.230
32029SOL     OW97918  14.550  10.581  13.322
32029SOL    HW197919  14.589  10.632  13.252
32029SOL    HW297920  14.488  10.640  13.363
32030SOL     OW97921  11.350   0.673   2.803
32030SOL    HW197922  11.311   0.760   2.811
32030SOL    HW297923  11.283   0.620   2.760
32031SOL     OW97924   3.706   7.747   3.053
32031SOL    HW197925   3.613   7.765   3.041
32031SOL    HW297926   3.722   7.668   3.001
32032SOL     OW97927   7.357  11.594   0.464
32032SOL    HW197928   7.439  11.594   0.514
32032SOL    HW297929   7.320  11.681   0.480
32033SOL     OW97930   6.252   4.287  13.816
32033SOL    HW197931   6.244   4.219  13.749
32033SOL    HW297932   6.181   4.269  13.877
32034SOL     OW97933   7.552   9.370   2.522
32034SOL    HW197934   7.490   9.432   2.560
32034SOL    HW297935   7.607   9.343   2.596
32035SOL     OW97936  12.811   5.307   5.983
32035SOL    HW197937  12.761   5.245   6.036
32035SOL    HW297938  12.744   5.364   5.944
32036SOL     OW97939  13.552   7.693  12.415
32036SOL    HW197940  13.510   7.760  12.469
32036SOL    HW297941  13.514   7.703  12.328
32037SOL     OW97942   5.755  10.443  10.796
32037SOL    HW197943   5.757  10.356  10.756
32037SOL    HW297944   5.838  10.484  10.769
32038SOL     OW97945   0.252  13.148   7.309
32038SOL    HW197946   0.187  13.097   7.259
32038SOL    HW297947   0.200  13.190   7.378
32039SOL     OW97948  13.572   7.863   6.077
32039SOL    HW197949  13.510   7.851   6.149
32039SOL    HW297950  13.588   7.775   6.043
32040SOL     OW97951  11.906   3.204  12.310
32040SOL    HW197952  11.929   3.205  12.217
32040SOL    HW297953  11.990   3.201  12.356
32041SOL     OW97954  10.336   9.722  10.114
32041SOL    HW197955  10.329   9.717  10.210
32041SOL    HW297956  10.257   9.768  10.087
32042SOL     OW97957   3.441  10.336  13.490
32042SOL    HW197958   3.491  10.257  13.508
32042SOL    HW297959   3.387  10.349  13.568
32043SOL     OW97960   5.538  12.582  14.414
32043SOL    HW197961   5.513  12.674  14.410
32043SOL    HW297962   5.544  12.554  14.323
32044SOL     OW97963   1.033  14.300   3.875
32044SOL    HW197964   1.056  14.207   3.879
32044SOL    HW297965   0.972  14.313   3.947
32045SOL     OW97966  10.328   5.024   6.118
32045SOL    HW197967  10.400   5.052   6.061
32045SOL    HW297968  10.307   4.936   6.089
32046SOL     OW97969   2.533   7.180   2.698
32046SOL    HW197970   2.617   7.218   2.673
32046SOL    HW297971   2.534   7.093   2.658
32047SOL     OW97972   3.063   0.389   3.292
32047SOL    HW197973   2.999   0.320   3.309
32047SOL    HW297974   3.148   0.346   3.299
32048SOL     OW97975   8.900   6.583  13.314
32048SOL    HW197976   8.819   6.532  13.325
32048SOL    HW297977   8.889   6.628  13.230
32049SOL     OW97978   8.818   9.095  12.272
32049SOL    HW197979   8.813   9.001  12.254
32049SOL    HW297980   8.871   9.101  12.351
32050SOL     OW97981  13.812   9.602  11.727
32050SOL    HW197982  13.810   9.691  11.691
32050SOL    HW297983  13.903   9.589  11.753
32051SOL     OW97984   2.845   2.637   0.397
32051SOL    HW197985   2.855   2.683   0.314
32051SOL    HW297986   2.935   2.625   0.428
32052SOL     OW97987   9.015  12.502   4.795
32052SOL    HW197988   9.030  12.459   4.711
32052SOL    HW297989   8.966  12.437   4.846
32053SOL     OW97990  11.162  14.224   1.634
32053SOL    HW197991  11.088  14.173   1.602
32053SOL    HW297992  11.238  14.188   1.589
32054SOL     OW97993   1.725   3.761   5.306
32054SOL    HW197994   1.668   3.713   5.367
32054SOL    HW297995   1.768   3.692   5.255
32055SOL     OW97996   3.256   7.060   3.737
32055SOL    HW197997   3.201   6.995   3.779
32055SOL    HW297998   3.246   7.139   3.791
32056SOL     OW97999   1.103   1.774  12.152
32056SOL    HW198000   1.115   1.701  12.213
32056SOL    HW298001   1.167   1.840  12.180
32057SOL     OW98002  10.528   0.490   7.748
32057SOL    HW198003  10.453   0.546   7.728
32057SOL    HW298004  10.518   0.415   7.689
32058SOL     OW98005   6.410   8.579   2.423
32058SOL    HW198006   6.377   8.501   2.380
32058SOL    HW298007   6.370   8.577   2.510
32059SOL     OW98008   4.965   9.506   4.998
32059SOL    HW198009   4.940   9.467   5.082
32059SOL    HW298010   4.955   9.600   5.011
32060SOL     OW98011   2.412   1.211   3.756
32060SOL    HW198012   2.504   1.205   3.780
32060SOL    HW298013   2.411   1.261   3.675
32061SOL     OW98014   2.181  13.387   0.954
32061SOL    HW198015   2.214  13.342   0.876
32061SOL    HW298016   2.252  13.447   0.978
32062SOL     OW98017   7.529   9.318   6.538
32062SOL    HW198018   7.590   9.290   6.469
32062SOL    HW298019   7.460   9.251   6.537
32063SOL     OW98020   3.457   8.098   5.066
32063SOL    HW198021   3.501   8.076   5.148
32063SOL    HW298022   3.502   8.046   4.999
32064SOL     OW98023  14.029   2.718   0.798
32064SOL    HW198024  14.072   2.648   0.749
32064SOL    HW298025  14.072   2.798   0.768
32065SOL     OW98026   7.982   1.223   5.570
32065SOL    HW198027   8.024   1.189   5.649
32065SOL    HW298028   7.986   1.151   5.507
32066SOL     OW98029   7.357  13.811  14.059
32066SOL    HW198030   7.314  13.830  14.142
32066SOL    HW298031   7.428  13.752  14.082
32067SOL     OW98032   3.079   0.101   8.621
32067SOL    HW198033   3.102   0.064   8.706
32067SOL    HW298034   3.157   0.150   8.594
32068SOL     OW98035   1.250   9.477  11.501
32068SOL    HW198036   1.229   9.413  11.433
32068SOL    HW298037   1.295   9.547  11.454
32069SOL     OW98038  11.033   0.826   4.902
32069SOL    HW198039  10.941   0.814   4.923
32069SOL    HW298040  11.064   0.739   4.879
32070SOL     OW98041  13.408   1.397   1.225
32070SOL    HW198042  13.419   1.439   1.310
32070SOL    HW298043  13.376   1.309   1.245
32071SOL     OW98044   6.955   2.842   0.774
32071SOL    HW198045   6.899   2.764   0.769
32071SOL    HW298046   7.040   2.812   0.743
32072SOL     OW98047   1.329  14.787  10.479
32072SOL    HW198048   1.245  14.763  10.440
32072SOL    HW298049   1.394  14.762  10.412
32073SOL     OW98050   5.159  14.116   1.199
32073SOL    HW198051   5.240  14.163   1.182
32073SOL    HW298052   5.166  14.037   1.144
32074SOL     OW98053  14.317   2.468  13.951
32074SOL    HW198054  14.380   2.491  13.882
32074SOL    HW298055  14.361   2.494  14.032
32075SOL     OW98056  14.056   7.709   9.103
32075SOL    HW198057  13.969   7.687   9.071
32075SOL    HW298058  14.107   7.628   9.093
32076SOL     OW98059   9.635   8.811  11.007
32076SOL    HW198060   9.566   8.798  10.942
32076SOL    HW298061   9.690   8.881  10.970
32077SOL     OW98062  10.668   0.679  11.968
32077SOL    HW198063  10.598   0.687  12.034
32077SOL    HW298064  10.748   0.667  12.019
32078SOL     OW98065   0.237   7.295   4.208
32078SOL    HW198066   0.222   7.273   4.116
32078SOL    HW298067   0.296   7.226   4.239
32079SOL     OW98068  12.077   8.004  13.588
32079SOL    HW198069  12.044   7.915  13.605
32079SOL    HW298070  12.040   8.057  13.658
32080SOL     OW98071  13.921  12.790   2.097
32080SOL    HW198072  14.004  12.746   2.080
32080SOL    HW298073  13.942  12.883   2.097
32081SOL     OW98074  10.828  12.097   4.794
32081SOL    HW198075  10.803  12.160   4.726
32081SOL    HW298076  10.840  12.151   4.873
32082SOL     OW98077   9.107   9.790   5.094
32082SOL    HW198078   9.176   9.736   5.056
32082SOL    HW298079   9.026   9.758   5.054
32083SOL     OW98080   8.259   2.770   9.782
32083SOL    HW198081   8.320   2.765   9.855
32083SOL    HW298082   8.173   2.777   9.824
32084SOL     OW98083   4.383  10.565   4.458
32084SOL    HW198084   4.362  10.473   4.439
32084SOL    HW298085   4.370  10.573   4.553
32085SOL     OW98086  11.267   5.647   5.982
32085SOL    HW198087  11.359   5.669   5.973
32085SOL    HW298088  11.241   5.617   5.895
32086SOL     OW98089  10.991   8.468  11.976
32086SOL    HW198090  11.053   8.444  12.045
32086SOL    HW298091  11.046   8.492  11.901
32087SOL     OW98092  13.699  11.679   6.461
32087SOL    HW198093  13.762  11.617   6.500
32087SOL    HW298094  13.642  11.623   6.408
32088SOL     OW98095   6.719  10.229  11.493
32088SOL    HW198096   6.684  10.165  11.430
32088SOL    HW298097   6.697  10.314  11.454
32089SOL     OW98098   6.534  11.014   9.448
32089SOL    HW198099   6.598  10.944   9.463
32089SOL    HW298100   6.449  10.972   9.463
32090SOL     OW98101   2.782   6.605  14.681
32090SOL    HW198102   2.789   6.700  14.671
32090SOL    HW298103   2.862   6.572  14.641
32091SOL     OW98104  14.584   7.346   0.961
32091SOL    HW198105  14.613   7.411   0.896
32091SOL    HW298106  14.602   7.387   1.045
32092SOL     OW98107   5.160   2.069  10.414
32092SOL    HW198108   5.165   1.991  10.359
32092SOL    HW298109   5.107   2.131  10.363
32093SOL     OW98110   3.930   9.209   8.078
32093SOL    HW198111   3.948   9.115   8.078
32093SOL    HW298112   3.863   9.222   8.145
32094SOL     OW98113   3.891  10.244  13.393
32094SOL    HW198114   3.921  10.219  13.306
32094SOL    HW298115   3.890  10.161  13.442
32095SOL     OW98116  12.478  14.629   3.836
32095SOL    HW198117  12.547  14.677   3.790
32095SOL    HW298118  12.406  14.624   3.773
32096SOL     OW98119  13.715  10.044   6.034
32096SOL    HW198120  13.623  10.021   6.042
32096SOL    HW298121  13.716  10.140   6.029
32097SOL     OW98122   1.080   4.752   0.853
32097SOL    HW198123   1.020   4.827   0.844
32097SOL    HW298124   1.101   4.750   0.946
32098SOL     OW98125  11.765   1.884   6.237
32098SOL    HW198126  11.814   1.952   6.190
32098SOL    HW298127  11.675   1.917   6.238
32099SOL     OW98128   7.863  10.897  10.399
32099SOL    HW198129   7.831  10.919  10.486
32099SOL    HW298130   7.958  10.910  10.405
32100SOL     OW98131   5.325  14.511   8.600
32100SOL    HW198132   5.413  14.543   8.583
32100SOL    HW298133   5.327  14.478   8.689
32101SOL     OW98134   3.871   8.653  14.603
32101SOL    HW198135   3.824   8.646  14.686
32101SOL    HW298136   3.878   8.563  14.571
32102SOL     OW98137   4.422   4.230   7.779
32102SOL    HW198138   4.474   4.218   7.858
32102SOL    HW298139   4.464   4.303   7.733
32103SOL     OW98140   1.536  12.344   6.596
32103SOL    HW198141   1.578  12.408   6.538
32103SOL    HW298142   1.463  12.310   6.544
32104SOL     OW98143  10.575   0.010   8.281
32104SOL    HW198144  10.606   0.010   8.191
32104SOL    HW298145  10.529  14.802   8.291
32105SOL     OW98146   9.248   1.707  14.421
32105SOL    HW198147   9.202   1.721  14.504
32105SOL    HW298148   9.246   1.792  14.378
32106SOL     OW98149   5.611   5.565  10.352
32106SOL    HW198150   5.688   5.580  10.408
32106SOL    HW298151   5.564   5.648  10.353
32107SOL     OW98152   8.110  13.224   8.101
32107SOL    HW198153   8.050  13.203   8.172
32107SOL    HW298154   8.075  13.177   8.025
32108SOL     OW98155   9.133   7.577   5.798
32108SOL    HW198156   9.042   7.604   5.805
32108SOL    HW298157   9.168   7.589   5.886
32109SOL     OW98158   2.660  13.152   9.255
32109SOL    HW198159   2.717  13.174   9.181
32109SOL    HW298160   2.718  13.159   9.331
32110SOL     OW98161   3.953   3.045   2.539
32110SOL    HW198162   3.865   3.082   2.527
32110SOL    HW298163   3.955   2.970   2.480
32111SOL     OW98164  10.792  14.571   1.050
32111SOL    HW198165  10.857  14.617   1.103
32111SOL    HW298166  10.813  14.594   0.960
32112SOL     OW98167  14.012  10.168   2.519
32112SOL    HW198168  14.077  10.167   2.589
32112SOL    HW298169  14.063  10.156   2.439
32113SOL     OW98170   5.772  11.924  11.771
32113SOL    HW198171   5.805  11.836  11.785
32113SOL    HW298172   5.765  11.932  11.676
32114SOL     OW98173   7.176   2.919   0.986
32114SOL    HW198174   7.266   2.932   0.957
32114SOL    HW298175   7.123   2.971   0.926
32115SOL     OW98176   9.910   0.280   1.285
32115SOL    HW198177   9.856   0.217   1.238
32115SOL    HW298178   9.941   0.233   1.362
32116SOL     OW98179   7.081   7.048   2.132
32116SOL    HW198180   7.102   7.025   2.223
32116SOL    HW298181   7.150   7.108   2.105
32117SOL     OW98182  11.354   0.055  11.850
32117SOL    HW198183  11.443   0.087  11.862
32117SOL    HW298184  11.365  14.840  11.821
32118SOL     OW98185   9.293  10.119   8.048
32118SOL    HW198186   9.336  10.054   7.992
32118SOL    HW298187   9.356  10.191   8.055
32119SOL     OW98188   1.679   0.652   1.510
32119SOL    HW198189   1.633   0.616   1.435
32119SOL    HW298190   1.725   0.577   1.548
32120SOL     OW98191   0.485   9.795  11.189
32120SOL    HW198192   0.390   9.792  11.204
32120SOL    HW298193   0.523   9.773  11.274
32121SOL     OW98194   8.847   9.462   2.408
32121SOL    HW198195   8.852   9.508   2.492
32121SOL    HW298196   8.756   9.430   2.404
32122SOL     OW98197   6.240   7.508  11.744
32122SOL    HW198198   6.323   7.540  11.707
32122SOL    HW298199   6.188   7.587  11.756
32123SOL     OW98200   7.551  13.845  14.708
32123SOL    HW198201   7.478  13.838  14.769
32123SOL    HW298202   7.587  13.757  14.703
32124SOL     OW98203   1.070  11.629   0.888
32124SOL    HW198204   1.038  11.687   0.819
32124SOL    HW298205   1.034  11.543   0.866
32125SOL     OW98206   7.800  13.844   3.889
32125SOL    HW198207   7.871  13.829   3.826
32125SOL    HW298208   7.838  13.820   3.974
32126SOL     OW98209   1.413  10.677   9.773
32126SOL    HW198210   1.498  10.636   9.758
32126SOL    HW298211   1.388  10.648   9.860
32127SOL     OW98212   5.317  12.326   8.470
32127SOL    HW198213   5.331  12.283   8.386
32127SOL    HW298214   5.223  12.346   8.471
32128SOL     OW98215  12.199  13.349  12.274
32128SOL    HW198216  12.207  13.439  12.305
32128SOL    HW298217  12.208  13.295  12.353
32129SOL     OW98218   7.601  13.465  14.372
32129SOL    HW198219   7.623  13.407  14.445
32129SOL    HW298220   7.682  13.513  14.355
32130SOL     OW98221   7.962   3.698   9.720
32130SOL    HW198222   7.924   3.648   9.793
32130SOL    HW298223   8.021   3.760   9.762
32131SOL     OW98224   3.629  14.811   0.094
32131SOL    HW198225   3.603  14.736   0.041
32131SOL    HW298226   3.716  14.787   0.128
32132SOL     OW98227   3.622   1.569   7.282
32132SOL    HW198228   3.539   1.603   7.314
32132SOL    HW298229   3.687   1.599   7.345
32133SOL     OW98230   3.231  14.112  10.899
32133SOL    HW198231   3.165  14.125  10.967
32133SOL    HW298232   3.181  14.076  10.825
32134SOL     OW98233  14.330  11.720   7.783
32134SOL    HW198234  14.325  11.660   7.857
32134SOL    HW298235  14.247  11.708   7.737
32135SOL     OW98236   7.810   6.904   0.729
32135SOL    HW198237   7.750   6.830   0.729
32135SOL    HW298238   7.897   6.864   0.733
32136SOL     OW98239  10.189  11.458  13.441
32136SOL    HW198240  10.121  11.492  13.499
32136SOL    HW298241  10.257  11.525  13.441
32137SOL     OW98242   7.515   8.987   1.912
32137SOL    HW198243   7.465   9.021   1.839
32137SOL    HW298244   7.474   9.025   1.990
32138SOL     OW98245  12.874  13.994  11.984
32138SOL    HW198246  12.959  14.014  12.024
32138SOL    HW298247  12.869  14.053  11.909
32139SOL     OW98248   8.327   9.082   9.014
32139SOL    HW198249   8.368   9.044   9.091
32139SOL    HW298250   8.397   9.130   8.970
32140SOL     OW98251   8.461  12.682  10.890
32140SOL    HW198252   8.529  12.708  10.829
32140SOL    HW298253   8.496  12.605  10.935
32141SOL     OW98254   7.298   5.143   4.466
32141SOL    HW198255   7.235   5.147   4.538
32141SOL    HW298256   7.375   5.190   4.500
32142SOL     OW98257   5.952   0.753  13.328
32142SOL    HW198258   6.042   0.779  13.313
32142SOL    HW298259   5.924   0.712  13.246
32143SOL     OW98260   7.395   2.241   9.696
32143SOL    HW198261   7.468   2.289   9.736
32143SOL    HW298262   7.320   2.300   9.707
32144SOL     OW98263   3.747   2.857  11.558
32144SOL    HW198264   3.831   2.810  11.556
32144SOL    HW298265   3.737   2.884  11.650
32145SOL     OW98266   1.417   1.864   4.819
32145SOL    HW198267   1.431   1.957   4.803
32145SOL    HW298268   1.502   1.823   4.799
32146SOL     OW98269  10.349   2.763   8.900
32146SOL    HW198270  10.347   2.858   8.893
32146SOL    HW298271  10.424   2.744   8.955
32147SOL     OW98272  10.968  11.292   7.307
32147SOL    HW198273  10.955  11.377   7.265
32147SOL    HW298274  11.051  11.300   7.354
32148SOL     OW98275  10.825   7.955  10.247
32148SOL    HW198276  10.781   8.014  10.187
32148SOL    HW298277  10.919   7.971  10.233
32149SOL     OW98278   4.879   7.360  13.490
32149SOL    HW198279   4.884   7.269  13.519
32149SOL    HW298280   4.929   7.362  13.408
32150SOL     OW98281  12.630  11.403   6.067
32150SOL    HW198282  12.688  11.383   5.994
32150SOL    HW298283  12.668  11.355   6.141
32151SOL     OW98284  10.990   4.599  11.605
32151SOL    HW198285  10.963   4.509  11.587
32151SOL    HW298286  10.912   4.651  11.586
32152SOL     OW98287  13.256   1.055   3.982
32152SOL    HW198288  13.296   0.970   3.965
32152SOL    HW298289  13.247   1.059   4.078
32153SOL     OW98290   6.051   1.648   3.001
32153SOL    HW198291   6.107   1.684   3.070
32153SOL    HW298292   5.969   1.625   3.046
32154SOL     OW98293   5.103   4.315   1.501
32154SOL    HW198294   5.076   4.406   1.518
32154SOL    HW298295   5.060   4.292   1.419
32155SOL     OW98296  11.856   3.561  10.957
32155SOL    HW198297  11.782   3.568  11.017
32155SOL    HW298298  11.869   3.651  10.926
32156SOL     OW98299   0.721  10.689  13.864
32156SOL    HW198300   0.806  10.646  13.871
32156SOL    HW298301   0.712  10.738  13.945
32157SOL     OW98302  10.118   7.066  10.814
32157SOL    HW198303  10.184   7.111  10.761
32157SOL    HW298304  10.132   7.098  10.903
32158SOL     OW98305   4.780  12.163   5.551
32158SOL    HW198306   4.797  12.220   5.626
32158SOL    HW298307   4.790  12.075   5.586
32159SOL     OW98308   0.674   0.094  11.990
32159SOL    HW198309   0.589   0.124  12.022
32159SOL    HW298310   0.730   0.171  11.994
32160SOL     OW98311   5.287   5.121   4.220
32160SOL    HW198312   5.282   5.030   4.250
32160SOL    HW298313   5.375   5.128   4.181
32161SOL     OW98314  12.903   8.336   0.018
32161SOL    HW198315  12.980   8.360   0.068
32161SOL    HW298316  12.936   8.288  14.819
32162SOL     OW98317   7.787   0.311   7.949
32162SOL    HW198318   7.821   0.361   8.023
32162SOL    HW298319   7.712   0.363   7.918
32163SOL     OW98320  11.338   7.417   6.335
32163SOL    HW198321  11.348   7.350   6.402
32163SOL    HW298322  11.245   7.416   6.313
32164SOL     OW98323   9.738   8.273   1.850
32164SOL    HW198324   9.736   8.364   1.821
32164SOL    HW298325   9.648   8.253   1.876
32165SOL     OW98326   2.366  13.719  11.756
32165SOL    HW198327   2.306  13.666  11.808
32165SOL    HW298328   2.385  13.666  11.678
32166SOL     OW98329   5.579   1.685   7.299
32166SOL    HW198330   5.524   1.746   7.249
32166SOL    HW298331   5.614   1.739   7.370
32167SOL     OW98332   4.413  11.268   7.315
32167SOL    HW198333   4.415  11.232   7.403
32167SOL    HW298334   4.323  11.253   7.285
32168SOL     OW98335   9.960   2.350  12.801
32168SOL    HW198336   9.875   2.373  12.762
32168SOL    HW298337   9.938   2.287  12.870
32169SOL     OW98338   6.984  10.616  13.173
32169SOL    HW198339   6.915  10.665  13.219
32169SOL    HW298340   6.953  10.608  13.083
32170SOL     OW98341   0.451   4.311   4.786
32170SOL    HW198342   0.525   4.372   4.790
32170SOL    HW298343   0.478   4.237   4.839
32171SOL     OW98344  13.535   2.234   4.792
32171SOL    HW198345  13.573   2.268   4.873
32171SOL    HW298346  13.509   2.145   4.814
32172SOL     OW98347   9.824   0.702  10.451
32172SOL    HW198348   9.775   0.758  10.511
32172SOL    HW298349   9.913   0.702  10.485
32173SOL     OW98350  13.484   6.107   2.966
32173SOL    HW198351  13.543   6.099   3.042
32173SOL    HW298352  13.503   6.029   2.914
32174SOL     OW98353  10.583   5.236  10.744
32174SOL    HW198354  10.635   5.175  10.692
32174SOL    HW298355  10.514   5.181  10.782
32175SOL     OW98356  11.998  10.637   4.451
32175SOL    HW198357  11.959  10.663   4.367
32175SOL    HW298358  11.995  10.717   4.504
32176SOL     OW98359   2.504   1.503   1.873
32176SOL    HW198360   2.438   1.463   1.816
32176SOL    HW298361   2.461   1.513   1.958
32177SOL     OW98362   1.155   9.550   8.808
32177SOL    HW198363   1.178   9.629   8.759
32177SOL    HW298364   1.108   9.496   8.744
32178SOL     OW98365   1.799   8.831   3.280
32178SOL    HW198366   1.876   8.850   3.334
32178SOL    HW298367   1.792   8.906   3.221
32179SOL     OW98368  11.118   4.992   5.058
32179SOL    HW198369  11.134   5.035   5.142
32179SOL    HW298370  11.030   5.019   5.033
32180SOL     OW98371  13.992  11.416  10.864
32180SOL    HW198372  14.075  11.382  10.829
32180SOL    HW298373  13.930  11.344  10.855
32181SOL     OW98374  13.870   0.388   9.990
32181SOL    HW198375  13.912   0.303   9.977
32181SOL    HW298376  13.778   0.367  10.005
32182SOL     OW98377  11.120  10.819  10.172
32182SOL    HW198378  11.168  10.784  10.097
32182SOL    HW298379  11.151  10.769  10.247
32183SOL     OW98380   2.536   4.213   8.219
32183SOL    HW198381   2.620   4.256   8.206
32183SOL    HW298382   2.476   4.283   8.244
32184SOL     OW98383   6.239  13.421   8.451
32184SOL    HW198384   6.286  13.388   8.375
32184SOL    HW298385   6.148  13.425   8.424
32185SOL     OW98386   9.870   3.310   7.557
32185SOL    HW198387   9.782   3.280   7.535
32185SOL    HW298388   9.864   3.337   7.649
32186SOL     OW98389   9.408  11.120   2.530
32186SOL    HW198390   9.390  11.185   2.463
32186SOL    HW298391   9.355  11.044   2.505
32187SOL     OW98392   1.489  13.912   3.721
32187SOL    HW198393   1.467  13.847   3.788
32187SOL    HW298394   1.432  13.986   3.741
32188SOL     OW98395  11.452   6.082  10.764
32188SOL    HW198396  11.422   6.033  10.687
32188SOL    HW298397  11.543   6.102  10.745
32189SOL     OW98398   2.176  11.750   1.889
32189SOL    HW198399   2.191  11.673   1.834
32189SOL    HW298400   2.156  11.713   1.975
32190SOL     OW98401   7.163  13.364  11.869
32190SOL    HW198402   7.117  13.308  11.931
32190SOL    HW298403   7.093  13.410  11.822
32191SOL     OW98404   2.038   4.276  11.616
32191SOL    HW198405   2.129   4.270  11.590
32191SOL    HW298406   2.040   4.307  11.706
32192SOL     OW98407   9.337   8.491   5.983
32192SOL    HW198408   9.410   8.437   5.955
32192SOL    HW298409   9.290   8.436   6.046
32193SOL     OW98410   0.096   2.016   6.244
32193SOL    HW198411   0.130   1.952   6.306
32193SOL    HW298412   0.008   2.036   6.276
32194SOL     OW98413  13.499   8.607   1.575
32194SOL    HW198414  13.415   8.647   1.553
32194SOL    HW298415  13.476   8.524   1.616
32195SOL     OW98416   8.884   4.354   4.852
32195SOL    HW198417   8.916   4.307   4.930
32195SOL    HW298418   8.864   4.442   4.884
32196SOL     OW98419   8.954  12.620   2.848
32196SOL    HW198420   8.955  12.621   2.752
32196SOL    HW298421   8.888  12.685   2.872
32197SOL     OW98422  14.452   6.324  14.530
32197SOL    HW198423  14.388   6.348  14.596
32197SOL    HW298424  14.462   6.404  14.477
32198SOL     OW98425   9.277   7.026  10.031
32198SOL    HW198426   9.322   7.086   9.971
32198SOL    HW298427   9.341   7.010  10.101
32199SOL     OW98428   9.639   1.327   4.297
32199SOL    HW198429   9.614   1.389   4.366
32199SOL    HW298430   9.722   1.290   4.327
32200SOL     OW98431  11.859   0.366   5.694
32200SOL    HW198432  11.785   0.316   5.728
32200SOL    HW298433  11.819   0.426   5.630
32201SOL     OW98434   7.135  13.946   3.420
32201SOL    HW198435   7.100  13.896   3.494
32201SOL    HW298436   7.057  13.979   3.375
32202SOL     OW98437   4.683   7.301  14.314
32202SOL    HW198438   4.593   7.298  14.282
32202SOL    HW298439   4.721   7.216  14.289
32203SOL     OW98440   1.729   0.595   1.140
32203SOL    HW198441   1.679   0.544   1.203
32203SOL    HW298442   1.759   0.532   1.075
32204SOL     OW98443  13.272   3.940   6.041
32204SOL    HW198444  13.256   4.005   6.110
32204SOL    HW298445  13.325   3.987   5.976
32205SOL     OW98446   0.880  13.041  10.836
32205SOL    HW198447   0.878  13.078  10.748
32205SOL    HW298448   0.837  13.107  10.891
32206SOL     OW98449   1.226   1.911   6.969
32206SOL    HW198450   1.248   1.949   7.054
32206SOL    HW298451   1.234   1.817   6.982
32207SOL     OW98452  11.211  10.526   1.804
32207SOL    HW198453  11.156  10.547   1.879
32207SOL    HW298454  11.202  10.601   1.745
32208SOL     OW98455   2.755   5.209  11.384
32208SOL    HW198456   2.846   5.217  11.413
32208SOL    HW298457   2.718   5.296  11.396
32209SOL     OW98458   4.356   4.721   5.588
32209SOL    HW198459   4.425   4.671   5.545
32209SOL    HW298460   4.402   4.783   5.645
32210SOL     OW98461  12.983   4.526  13.876
32210SOL    HW198462  13.023   4.440  13.889
32210SOL    HW298463  12.963   4.529  13.782
32211SOL     OW98464   6.834  12.550   2.494
32211SOL    HW198465   6.835  12.494   2.417
32211SOL    HW298466   6.741  12.560   2.515
32212SOL     OW98467  10.449  11.040   1.834
32212SOL    HW198468  10.468  11.132   1.851
32212SOL    HW298469  10.377  11.019   1.893
32213SOL     OW98470  10.110   4.309   8.020
32213SOL    HW198471  10.039   4.258   7.980
32213SOL    HW298472  10.065   4.370   8.079
32214SOL     OW98473  14.247   4.832   6.877
32214SOL    HW198474  14.281   4.920   6.860
32214SOL    HW298475  14.189   4.843   6.952
32215SOL     OW98476  11.788  11.003  11.603
32215SOL    HW198477  11.792  11.096  11.623
32215SOL    HW298478  11.877  10.971  11.620
32216SOL     OW98479  13.656  13.268  10.125
32216SOL    HW198480  13.686  13.274  10.035
32216SOL    HW298481  13.608  13.186  10.129
32217SOL     OW98482   8.726  14.365   7.089
32217SOL    HW198483   8.658  14.426   7.118
32217SOL    HW298484   8.807  14.413   7.101
32218SOL     OW98485  13.951   1.157   1.285
32218SOL    HW198486  13.976   1.198   1.202
32218SOL    HW298487  13.950   1.230   1.348
32219SOL     OW98488  13.320  13.804   9.889
32219SOL    HW198489  13.356  13.865   9.826
32219SOL    HW298490  13.396  13.753   9.920
32220SOL     OW98491   9.781   0.887   4.453
32220SOL    HW198492   9.718   0.938   4.505
32220SOL    HW298493   9.839   0.847   4.518
32221SOL     OW98494  14.644  12.014   5.474
32221SOL    HW198495  14.629  12.034   5.566
32221SOL    HW298496  14.565  12.045   5.429
32222SOL     OW98497   9.402   6.500   0.306
32222SOL    HW198498   9.425   6.565   0.373
32222SOL    HW298499   9.326   6.537   0.261
32223SOL     OW98500   0.296   4.825   2.542
32223SOL    HW198501   0.255   4.899   2.587
32223SOL    HW298502   0.370   4.863   2.496
32224SOL     OW98503   6.193   0.696   2.937
32224SOL    HW198504   6.278   0.655   2.919
32224SOL    HW298505   6.149   0.697   2.853
32225SOL     OW98506   4.150  13.089  14.017
32225SOL    HW198507   4.182  13.021  14.077
32225SOL    HW298508   4.086  13.138  14.069
32226SOL     OW98509   6.451   3.205  12.885
32226SOL    HW198510   6.530   3.205  12.939
32226SOL    HW298511   6.481   3.177  12.798
32227SOL     OW98512   5.060   4.844   0.187
32227SOL    HW198513   5.066   4.754   0.154
32227SOL    HW298514   4.987   4.842   0.249
32228SOL     OW98515   5.102  13.810  10.679
32228SOL    HW198516   5.159  13.871  10.632
32228SOL    HW298517   5.035  13.786  10.615
32229SOL     OW98518  11.544  14.589  14.448
32229SOL    HW198519  11.491  14.638  14.510
32229SOL    HW298520  11.613  14.549  14.501
32230SOL     OW98521   3.909   6.554  10.964
32230SOL    HW198522   3.937   6.581  10.877
32230SOL    HW298523   3.821   6.588  10.973
32231SOL     OW98524  13.454   0.375   6.477
32231SOL    HW198525  13.367   0.415   6.470
32231SOL    HW298526  13.483   0.395   6.565
32232SOL     OW98527   0.240   4.590   2.427
32232SOL    HW198528   0.192   4.641   2.362
32232SOL    HW298529   0.254   4.652   2.499
32233SOL     OW98530   6.684  12.626   9.034
32233SOL    HW198531   6.689  12.698   8.970
32233SOL    HW298532   6.590  12.615   9.050
32234SOL     OW98533   4.347  13.436  11.211
32234SOL    HW198534   4.426  13.418  11.160
32234SOL    HW298535   4.318  13.522  11.181
32235SOL     OW98536  11.415   6.372   5.425
32235SOL    HW198537  11.398   6.298   5.484
32235SOL    HW298538  11.478   6.426   5.472
32236SOL     OW98539   8.164  12.167   3.575
32236SOL    HW198540   8.244  12.175   3.627
32236SOL    HW298541   8.108  12.108   3.625
32237SOL     OW98542   9.846   2.788  11.205
32237SOL    HW198543   9.766   2.772  11.256
32237SOL    HW298544   9.822   2.856  11.142
32238SOL     OW98545   7.274   1.516  14.474
32238SOL    HW198546   7.352   1.503  14.527
32238SOL    HW298547   7.207   1.462  14.517
32239SOL     OW98548  13.067   9.902   1.793
32239SOL    HW198549  12.979   9.939   1.802
32239SOL    HW298550  13.111   9.960   1.731
32240SOL     OW98551   2.353   2.768   3.475
32240SOL    HW198552   2.329   2.806   3.559
32240SOL    HW298553   2.448   2.781   3.470
32241SOL     OW98554   6.478  14.828   4.422
32241SOL    HW198555   6.531   0.013   4.474
32241SOL    HW298556   6.425   0.009   4.365
32242SOL     OW98557   0.506  10.072  10.175
32242SOL    HW198558   0.553  10.080  10.092
32242SOL    HW298559   0.441  10.003  10.159
32243SOL     OW98560   7.795   7.111  10.600
32243SOL    HW198561   7.801   7.161  10.518
32243SOL    HW298562   7.701   7.108  10.619
32244SOL     OW98563   5.474   6.336   1.438
32244SOL    HW198564   5.537   6.294   1.497
32244SOL    HW298565   5.428   6.398   1.494
32245SOL     OW98566   8.394   1.844   1.008
32245SOL    HW198567   8.452   1.853   1.084
32245SOL    HW298568   8.443   1.789   0.947
32246SOL     OW98569  10.338  10.477   9.807
32246SOL    HW198570  10.352  10.526   9.888
32246SOL    HW298571  10.243  10.474   9.796
32247SOL     OW98572  11.736   4.101   0.344
32247SOL    HW198573  11.803   4.079   0.280
32247SOL    HW298574  11.760   4.051   0.423
32248SOL     OW98575  14.555   0.253   6.016
32248SOL    HW198576  14.617   0.261   6.089
32248SOL    HW298577  14.578   0.323   5.956
32249SOL     OW98578   9.512  12.575  11.730
32249SOL    HW198579   9.513  12.647  11.792
32249SOL    HW298580   9.566  12.507  11.771
32250SOL     OW98581   8.651   0.552  10.893
32250SOL    HW198582   8.734   0.593  10.917
32250SOL    HW298583   8.657   0.539  10.798
32251SOL     OW98584   7.103   4.818   0.692
32251SOL    HW198585   7.188   4.774   0.692
32251SOL    HW298586   7.097   4.858   0.779
32252SOL     OW98587   2.091   2.721   6.675
32252SOL    HW198588   2.043   2.707   6.594
32252SOL    HW298589   2.183   2.710   6.651
32253SOL     OW98590   0.722   8.438  10.168
32253SOL    HW198591   0.671   8.504  10.215
32253SOL    HW298592   0.688   8.354  10.199
32254SOL     OW98593  10.188  14.246  13.702
32254SOL    HW198594  10.256  14.187  13.734
32254SOL    HW298595  10.148  14.281  13.782
32255SOL     OW98596  10.226  12.039   1.220
32255SOL    HW198597  10.258  11.996   1.141
32255SOL    HW298598  10.138  12.069   1.197
32256SOL     OW98599  10.739  12.224  14.506
32256SOL    HW198600  10.698  12.255  14.426
32256SOL    HW298601  10.685  12.150  14.533
32257SOL     OW98602   5.309   9.564   0.244
32257SOL    HW198603   5.357   9.588   0.323
32257SOL    HW298604   5.361   9.599   0.172
32258SOL     OW98605   9.321  13.672  12.943
32258SOL    HW198606   9.354  13.762  12.937
32258SOL    HW298607   9.399  13.617  12.935
32259SOL     OW98608  14.116   9.162  14.005
32259SOL    HW198609  14.122   9.243  13.954
32259SOL    HW298610  14.023   9.142  14.009
32260SOL     OW98611   3.709  13.285   3.141
32260SOL    HW198612   3.661  13.209   3.173
32260SOL    HW298613   3.779  13.247   3.086
32261SOL     OW98614   4.050   4.091   2.999
32261SOL    HW198615   3.965   4.072   2.958
32261SOL    HW298616   4.061   4.186   2.988
32262SOL     OW98617   5.804   9.295   4.602
32262SOL    HW198618   5.898   9.280   4.607
32262SOL    HW298619   5.766   9.234   4.667
32263SOL     OW98620  12.114   0.264  11.226
32263SOL    HW198621  12.034   0.215  11.248
32263SOL    HW298622  12.127   0.247  11.133
32264SOL     OW98623  11.849   8.267   4.544
32264SOL    HW198624  11.864   8.321   4.622
32264SOL    HW298625  11.834   8.179   4.579
32265SOL     OW98626  11.891  13.723   0.673
32265SOL    HW198627  11.899  13.770   0.590
32265SOL    HW298628  11.826  13.655   0.656
32266SOL     OW98629  13.435  11.023   9.258
32266SOL    HW198630  13.456  10.958   9.325
32266SOL    HW298631  13.443  10.975   9.175
32267SOL     OW98632   8.065   4.539   7.267
32267SOL    HW198633   8.042   4.629   7.242
32267SOL    HW298634   8.107   4.548   7.353
32268SOL     OW98635  10.080   5.934   9.174
32268SOL    HW198636  10.042   6.022   9.169
32268SOL    HW298637  10.118   5.930   9.262
32269SOL     OW98638  12.264   5.219   5.849
32269SOL    HW198639  12.322   5.254   5.917
32269SOL    HW298640  12.287   5.127   5.842
32270SOL     OW98641   6.990   5.052   1.614
32270SOL    HW198642   7.057   4.983   1.615
32270SOL    HW298643   7.039   5.132   1.634
32271SOL     OW98644  11.081   7.776   6.056
32271SOL    HW198645  11.138   7.756   5.982
32271SOL    HW298646  11.038   7.858   6.031
32272SOL     OW98647   4.463   0.039   9.346
32272SOL    HW198648   4.377   0.056   9.307
32272SOL    HW298649   4.523   0.032   9.271
32273SOL     OW98650   6.248   0.779  14.098
32273SOL    HW198651   6.276   0.836  14.026
32273SOL    HW298652   6.231   0.840  14.170
32274SOL     OW98653   0.851   8.720   2.953
32274SOL    HW198654   0.874   8.813   2.943
32274SOL    HW298655   0.761   8.714   2.922
32275SOL     OW98656   3.529   4.100  12.965
32275SOL    HW198657   3.504   4.179  13.012
32275SOL    HW298658   3.472   4.031  13.001
32276SOL     OW98659   8.144   3.105   3.793
32276SOL    HW198660   8.193   3.179   3.757
32276SOL    HW298661   8.056   3.115   3.755
32277SOL     OW98662   0.934   9.355   3.108
32277SOL    HW198663   0.843   9.366   3.080
32277SOL    HW298664   0.974   9.441   3.097
32278SOL     OW98665  11.754   1.648   4.522
32278SOL    HW198666  11.821   1.716   4.522
32278SOL    HW298667  11.722   1.646   4.432
32279SOL     OW98668  14.417  12.529   0.857
32279SOL    HW198669  14.484  12.582   0.814
32279SOL    HW298670  14.411  12.450   0.803
32280SOL     OW98671   1.051   6.653  14.472
32280SOL    HW198672   1.022   6.573  14.516
32280SOL    HW298673   1.127   6.627  14.421
32281SOL     OW98674   1.614   2.751   1.807
32281SOL    HW198675   1.710   2.749   1.800
32281SOL    HW298676   1.584   2.781   1.721
32282SOL     OW98677  10.908   8.517   7.197
32282SOL    HW198678  10.860   8.566   7.130
32282SOL    HW298679  10.994   8.501   7.158
32283SOL     OW98680   3.699   6.863   0.267
32283SOL    HW198681   3.771   6.895   0.322
32283SOL    HW298682   3.736   6.790   0.217
32284SOL     OW98683   3.159  10.207   7.702
32284SOL    HW198684   3.070  10.200   7.670
32284SOL    HW298685   3.209  10.242   7.628
32285SOL     OW98686   5.752   6.538  14.436
32285SOL    HW198687   5.746   6.447  14.409
32285SOL    HW298688   5.671   6.578  14.402
32286SOL     OW98689   1.963  14.696   7.711
32286SOL    HW198690   2.023  14.737   7.773
32286SOL    HW298691   1.947  14.764   7.645
32287SOL     OW98692   9.954  12.794   0.207
32287SOL    HW198693   9.956  12.889   0.211
32287SOL    HW298694   9.965  12.766   0.298
32288SOL     OW98695  11.501  12.015   1.185
32288SOL    HW198696  11.502  12.110   1.197
32288SOL    HW298697  11.493  12.003   1.090
32289SOL     OW98698   3.654  14.859   2.461
32289SOL    HW198699   3.573  14.870   2.411
32289SOL    HW298700   3.646   0.045   2.534
32290SOL     OW98701   4.428   3.862   4.997
32290SOL    HW198702   4.447   3.950   4.965
32290SOL    HW298703   4.408   3.874   5.090
32291SOL     OW98704  12.908  14.769  14.554
32291SOL    HW198705  12.839  14.786  14.619
32291SOL    HW298706  12.966  14.706  14.596
32292SOL     OW98707   1.970  14.418  12.522
32292SOL    HW198708   2.023  14.348  12.562
32292SOL    HW298709   2.016  14.440  12.441
32293SOL     OW98710   0.440   8.203   1.962
32293SOL    HW198711   0.509   8.171   1.903
32293SOL    HW298712   0.359   8.190   1.913
32294SOL     OW98713   4.082   3.202   6.904
32294SOL    HW198714   4.088   3.195   6.999
32294SOL    HW298715   4.119   3.288   6.883
32295SOL     OW98716   2.066   3.199   7.912
32295SOL    HW198717   2.030   3.255   7.980
32295SOL    HW298718   2.026   3.230   7.831
32296SOL     OW98719   2.869   3.135   5.761
32296SOL    HW198720   2.870   3.042   5.780
32296SOL    HW298721   2.881   3.177   5.846
32297SOL     OW98722  11.391  10.405   2.525
32297SOL    HW198723  11.405  10.438   2.614
32297SOL    HW298724  11.385  10.310   2.536
32298SOL     OW98725   4.635   7.234   2.758
32298SOL    HW198726   4.723   7.217   2.726
32298SOL    HW298727   4.624   7.174   2.832
32299SOL     OW98728  11.071   9.945   1.034
32299SOL    HW198729  11.026   9.941   0.950
32299SOL    HW298730  11.000   9.945   1.099
32300SOL     OW98731   7.398   4.233  11.131
32300SOL    HW198732   7.329   4.295  11.153
32300SOL    HW298733   7.470   4.254  11.191
32301SOL     OW98734   7.690   4.563   1.776
32301SOL    HW198735   7.743   4.642   1.777
32301SOL    HW298736   7.718   4.514   1.853
32302SOL     OW98737   7.000   9.365   1.163
32302SOL    HW198738   6.916   9.407   1.148
32302SOL    HW298739   6.978   9.276   1.191
32303SOL     OW98740   8.303   6.869   9.461
32303SOL    HW198741   8.375   6.806   9.468
32303SOL    HW298742   8.311   6.924   9.538
32304SOL     OW98743   1.669   3.802  10.909
32304SOL    HW198744   1.710   3.809  10.823
32304SOL    HW298745   1.594   3.861  10.904
32305SOL     OW98746   1.222   8.191   5.673
32305SOL    HW198747   1.220   8.150   5.586
32305SOL    HW298748   1.271   8.130   5.728
32306SOL     OW98749   3.979   2.851   9.834
32306SOL    HW198750   3.924   2.773   9.834
32306SOL    HW298751   4.044   2.835   9.765
32307SOL     OW98752   2.444   5.603  12.637
32307SOL    HW198753   2.532   5.564  12.631
32307SOL    HW298754   2.409   5.569  12.719
32308SOL     OW98755   8.825  13.130   4.312
32308SOL    HW198756   8.755  13.195   4.303
32308SOL    HW298757   8.799  13.077   4.387
32309SOL     OW98758   8.687   3.517   3.339
32309SOL    HW198759   8.656   3.607   3.350
32309SOL    HW298760   8.606   3.466   3.332
32310SOL     OW98761   0.335  13.521   2.926
32310SOL    HW198762   0.275  13.501   2.997
32310SOL    HW298763   0.315  13.455   2.859
32311SOL     OW98764   4.597   3.790   5.621
32311SOL    HW198765   4.521   3.798   5.679
32311SOL    HW298766   4.572   3.835   5.541
32312SOL     OW98767   1.905  13.705   3.344
32312SOL    HW198768   1.981  13.648   3.331
32312SOL    HW298769   1.831  13.644   3.353
32313SOL     OW98770   9.212   3.474   3.388
32313SOL    HW198771   9.181   3.563   3.372
32313SOL    HW298772   9.251   3.447   3.305
32314SOL     OW98773   7.814   1.117  12.224
32314SOL    HW198774   7.788   1.198  12.269
32314SOL    HW298775   7.732   1.071  12.208
32315SOL     OW98776   4.996   3.027   3.126
32315SOL    HW198777   5.086   3.020   3.157
32315SOL    HW298778   4.994   2.975   3.046
32316SOL     OW98779   5.862   2.305   0.300
32316SOL    HW198780   5.786   2.285   0.354
32316SOL    HW298781   5.934   2.316   0.362
32317SOL     OW98782   8.522   0.148   4.586
32317SOL    HW198783   8.610   0.125   4.617
32317SOL    HW298784   8.470   0.069   4.604
32318SOL     OW98785   3.003  10.268  10.711
32318SOL    HW198786   2.991  10.277  10.805
32318SOL    HW298787   2.953  10.340  10.672
32319SOL     OW98788  10.944   4.479  14.712
32319SOL    HW198789  10.983   4.391  14.716
32319SOL    HW298790  10.907   4.485  14.624
32320SOL     OW98791   4.941   3.379   8.283
32320SOL    HW198792   4.992   3.376   8.364
32320SOL    HW298793   4.971   3.459   8.239
32321SOL     OW98794   0.437  12.918   9.441
32321SOL    HW198795   0.433  13.013   9.431
32321SOL    HW298796   0.505  12.890   9.379
32322SOL     OW98797   1.474  12.410   0.715
32322SOL    HW198798   1.490  12.466   0.639
32322SOL    HW298799   1.519  12.453   0.787
32323SOL     OW98800   4.202   7.585   6.145
32323SOL    HW198801   4.167   7.516   6.202
32323SOL    HW298802   4.238   7.649   6.206
32324SOL     OW98803   2.760   4.607  10.313
32324SOL    HW198804   2.836   4.552  10.295
32324SOL    HW298805   2.792   4.673  10.374
32325SOL     OW98806   3.134  13.609   3.551
32325SOL    HW198807   3.070  13.539   3.563
32325SOL    HW298808   3.140  13.618   3.456
32326SOL     OW98809   2.994   9.664  11.514
32326SOL    HW198810   3.059   9.671  11.443
32326SOL    HW298811   3.011   9.741  11.569
32327SOL     OW98812   9.196   1.594  13.984
32327SOL    HW198813   9.102   1.607  13.998
32327SOL    HW298814   9.209   1.612  13.891
32328SOL     OW98815  13.930   8.838  14.057
32328SOL    HW198816  13.845   8.795  14.057
32328SOL    HW298817  13.924   8.904  13.987
32329SOL     OW98818   0.062   4.226  13.896
32329SOL    HW198819   0.128   4.289  13.867
32329SOL    HW298820   0.006   4.213  13.820
32330SOL     OW98821   6.715   9.739  11.043
32330SOL    HW198822   6.748   9.728  11.132
32330SOL    HW298823   6.775   9.688  10.989
32331SOL     OW98824  11.838   5.622   5.659
32331SOL    HW198825  11.834   5.550   5.723
32331SOL    HW298826  11.902   5.683   5.696
32332SOL     OW98827  11.281  13.299   0.995
32332SOL    HW198828  11.189  13.321   1.011
32332SOL    HW298829  11.276  13.220   0.941
32333SOL     OW98830  13.753   0.982  13.013
32333SOL    HW198831  13.737   0.957  12.922
32333SOL    HW298832  13.681   1.042  13.033
32334SOL     OW98833  13.357   8.722  10.636
32334SOL    HW198834  13.448   8.739  10.610
32334SOL    HW298835  13.334   8.641  10.591
32335SOL     OW98836  10.613   5.149   1.394
32335SOL    HW198837  10.596   5.235   1.356
32335SOL    HW298838  10.591   5.087   1.323
32336SOL     OW98839  10.517  11.048  10.737
32336SOL    HW198840  10.555  11.100  10.665
32336SOL    HW298841  10.516  11.108  10.811
32337SOL     OW98842   5.069   5.639   9.725
32337SOL    HW198843   5.021   5.556   9.722
32337SOL    HW298844   5.083   5.661   9.633
32338SOL     OW98845  10.754   8.878   4.986
32338SOL    HW198846  10.736   8.882   4.892
32338SOL    HW298847  10.679   8.833   5.023
32339SOL     OW98848   1.330   1.696   8.075
32339SOL    HW198849   1.345   1.603   8.092
32339SOL    HW298850   1.382   1.715   7.997
32340SOL     OW98851   9.945   9.643   6.767
32340SOL    HW198852   9.940   9.732   6.730
32340SOL    HW298853  10.000   9.653   6.845
32341SOL     OW98854   8.492   8.696   2.741
32341SOL    HW198855   8.510   8.766   2.679
32341SOL    HW298856   8.451   8.740   2.816
32342SOL     OW98857  11.032   1.372   1.083
32342SOL    HW198858  10.951   1.419   1.062
32342SOL    HW298859  11.009   1.312   1.153
32343SOL     OW98860  13.724  10.124   2.447
32343SOL    HW198861  13.658  10.169   2.500
32343SOL    HW298862  13.806  10.169   2.467
32344SOL     OW98863  12.725  13.426  12.903
32344SOL    HW198864  12.664  13.423  12.829
32344SOL    HW298865  12.671  13.404  12.979
32345SOL     OW98866  11.488  12.153  14.577
32345SOL    HW198867  11.409  12.164  14.630
32345SOL    HW298868  11.471  12.205  14.498
32346SOL     OW98869   5.431   2.737   5.402
32346SOL    HW198870   5.445   2.666   5.465
32346SOL    HW298871   5.517   2.751   5.363
32347SOL     OW98872   8.467   8.455  13.296
32347SOL    HW198873   8.393   8.402  13.266
32347SOL    HW298874   8.437   8.493  13.378
32348SOL     OW98875  13.573  13.114   9.026
32348SOL    HW198876  13.544  13.087   8.939
32348SOL    HW298877  13.623  13.038   9.058
32349SOL     OW98878   3.908  11.720  12.496
32349SOL    HW198879   3.938  11.811  12.506
32349SOL    HW298880   3.889  11.691  12.586
32350SOL     OW98881  10.569   6.513  10.012
32350SOL    HW198882  10.631   6.524  10.084
32350SOL    HW298883  10.595   6.578   9.948
32351SOL     OW98884  13.512  11.175  11.655
32351SOL    HW198885  13.449  11.159  11.585
32351SOL    HW298886  13.516  11.092  11.703
32352SOL     OW98887   6.397  12.061   3.271
32352SOL    HW198888   6.479  12.012   3.266
32352SOL    HW298889   6.371  12.053   3.363
32353SOL     OW98890   3.672  14.578  11.512
32353SOL    HW198891   3.707  14.667  11.522
32353SOL    HW298892   3.748  14.525  11.488
32354SOL     OW98893  12.844  13.076   9.871
32354SOL    HW198894  12.815  13.008   9.810
32354SOL    HW298895  12.781  13.147   9.858
32355SOL     OW98896   8.227   4.793   2.768
32355SOL    HW198897   8.173   4.773   2.845
32355SOL    HW298898   8.228   4.711   2.719
32356SOL     OW98899   9.224   1.392  13.709
32356SOL    HW198900   9.144   1.439  13.685
32356SOL    HW298901   9.292   1.431  13.654
32357SOL     OW98902   9.808   1.342   2.131
32357SOL    HW198903   9.727   1.356   2.179
32357SOL    HW298904   9.781   1.331   2.040
32358SOL     OW98905   4.993   2.318   9.776
32358SOL    HW198906   5.048   2.364   9.713
32358SOL    HW298907   5.011   2.361   9.859
32359SOL     OW98908   7.080   7.331   7.120
32359SOL    HW198909   7.145   7.401   7.123
32359SOL    HW298910   7.040   7.339   7.034
32360SOL     OW98911   0.248   4.155   5.700
32360SOL    HW198912   0.198   4.125   5.624
32360SOL    HW298913   0.202   4.119   5.775
32361SOL     OW98914   6.892  13.586   3.454
32361SOL    HW198915   6.917  13.533   3.378
32361SOL    HW298916   6.827  13.647   3.420
32362SOL     OW98917  14.478   3.019   9.798
32362SOL    HW198918  14.558   3.069   9.809
32362SOL    HW298919  14.440   3.016   9.886
32363SOL     OW98920  12.248  10.061  10.852
32363SOL    HW198921  12.158  10.051  10.821
32363SOL    HW298922  12.288   9.976  10.836
32364SOL     OW98923  13.297   3.390   4.540
32364SOL    HW198924  13.318   3.376   4.448
32364SOL    HW298925  13.382   3.412   4.581
32365SOL     OW98926   6.666  12.616   7.740
32365SOL    HW198927   6.644  12.530   7.777
32365SOL    HW298928   6.656  12.605   7.646
32366SOL     OW98929   8.486   6.645   3.287
32366SOL    HW198930   8.432   6.685   3.355
32366SOL    HW298931   8.528   6.719   3.243
32367SOL     OW98932   4.267  14.627   9.537
32367SOL    HW198933   4.243  14.719   9.547
32367SOL    HW298934   4.294  14.620   9.445
32368SOL     OW98935   8.312  12.712  13.407
32368SOL    HW198936   8.262  12.632  13.388
32368SOL    HW298937   8.245  12.780  13.419
32369SOL     OW98938   3.578   6.422   4.084
32369SOL    HW198939   3.551   6.499   4.134
32369SOL    HW298940   3.589   6.454   3.995
32370SOL     OW98941  12.521  13.961   1.764
32370SOL    HW198942  12.583  13.957   1.692
32370SOL    HW298943  12.459  14.029   1.739
32371SOL     OW98944  11.047   8.862   8.316
32371SOL    HW198945  11.087   8.908   8.242
32371SOL    HW298946  10.966   8.825   8.281
32372SOL     OW98947  14.352   0.475   1.427
32372SOL    HW198948  14.354   0.559   1.473
32372SOL    HW298949  14.301   0.492   1.348
32373SOL     OW98950   9.148  12.968  14.730
32373SOL    HW198951   9.230  12.951  14.682
32373SOL    HW298952   9.176  12.986  14.819
32374SOL     OW98953   6.078   6.694   0.759
32374SOL    HW198954   6.046   6.782   0.778
32374SOL    HW298955   6.076   6.689   0.663
32375SOL     OW98956  10.468   3.356   6.851
32375SOL    HW198957  10.402   3.379   6.916
32375SOL    HW298958  10.419   3.313   6.781
32376SOL     OW98959   9.424   7.441  11.094
32376SOL    HW198960   9.357   7.438  11.163
32376SOL    HW298961   9.506   7.460  11.141
32377SOL     OW98962   7.540   1.845   8.213
32377SOL    HW198963   7.614   1.845   8.152
32377SOL    HW298964   7.577   1.816   8.296
32378SOL     OW98965   0.267   8.683   6.338
32378SOL    HW198966   0.303   8.705   6.252
32378SOL    HW298967   0.215   8.760   6.363
32379SOL     OW98968   9.612   1.546  11.531
32379SOL    HW198969   9.521   1.576  11.529
32379SOL    HW298970   9.662   1.621  11.562
32380SOL     OW98971  10.844   8.129  12.348
32380SOL    HW198972  10.778   8.068  12.316
32380SOL    HW298973  10.794   8.199  12.391
32381SOL     OW98974  12.706  10.951  10.925
32381SOL    HW198975  12.696  10.997  11.008
32381SOL    HW298976  12.766  10.879  10.944
32382SOL     OW98977  14.554  14.812   7.716
32382SOL    HW198978  14.515  14.817   7.804
32382SOL    HW298979  14.647  14.795   7.732
32383SOL     OW98980   2.738   3.989  14.239
32383SOL    HW198981   2.792   4.057  14.279
32383SOL    HW298982   2.661   3.983  14.296
32384SOL     OW98983   2.689  13.960   4.553
32384SOL    HW198984   2.779  13.976   4.583
32384SOL    HW298985   2.663  13.879   4.596
32385SOL     OW98986   9.904   2.953  13.870
32385SOL    HW198987   9.890   2.911  13.785
32385SOL    HW298988   9.822   2.999  13.888
32386SOL     OW98989  11.731   9.284   4.198
32386SOL    HW198990  11.683   9.367   4.188
32386SOL    HW298991  11.815   9.299   4.155
32387SOL     OW98992   7.957   1.618   0.029
32387SOL    HW198993   7.991   1.562  14.834
32387SOL    HW298994   8.034   1.666   0.060
32388SOL     OW98995   1.713  12.504  13.520
32388SOL    HW198996   1.807  12.500  13.541
32388SOL    HW298997   1.683  12.414  13.529
32389SOL     OW98998  13.871   4.168   5.033
32389SOL    HW198999  13.793   4.217   5.010
32389SOL    HW299000  13.936   4.235   5.055
32390SOL     OW99001   3.253   3.979   0.345
32390SOL    HW199002   3.159   3.962   0.343
32390SOL    HW299003   3.262   4.056   0.402
32391SOL     OW99004   4.520  14.806   8.075
32391SOL    HW199005   4.540  14.846   8.160
32391SOL    HW299006   4.433  14.841   8.052
32392SOL     OW99007  13.583   7.214   4.144
32392SOL    HW199008  13.507   7.184   4.195
32392SOL    HW299009  13.655   7.158   4.173
32393SOL     OW99010   8.966   8.548  11.458
32393SOL    HW199011   8.952   8.493  11.536
32393SOL    HW299012   8.989   8.633  11.494
32394SOL     OW99013  12.496   7.041   6.546
32394SOL    HW199014  12.556   6.967   6.535
32394SOL    HW299015  12.527   7.106   6.483
32395SOL     OW99016   7.770   6.587   5.250
32395SOL    HW199017   7.735   6.582   5.161
32395SOL    HW299018   7.693   6.589   5.306
32396SOL     OW99019   7.523  14.451   2.355
32396SOL    HW199020   7.541  14.545   2.349
32396SOL    HW299021   7.484  14.428   2.271
32397SOL     OW99022   9.380   8.336   1.228
32397SOL    HW199023   9.376   8.397   1.302
32397SOL    HW299024   9.347   8.386   1.154
32398SOL     OW99025   7.895  13.753   4.206
32398SOL    HW199026   7.906  13.745   4.300
32398SOL    HW299027   7.982  13.779   4.174
32399SOL     OW99028   0.016   4.106  10.531
32399SOL    HW199029   0.083   4.163  10.494
32399SOL    HW299030   0.054   4.073  10.612
32400SOL     OW99031   0.437  11.822  11.029
32400SOL    HW199032   0.479  11.885  11.088
32400SOL    HW299033   0.357  11.797  11.075
32401SOL     OW99034   6.469   2.175   4.218
32401SOL    HW199035   6.438   2.107   4.157
32401SOL    HW299036   6.517   2.126   4.285
32402SOL     OW99037  11.365  11.269  11.116
32402SOL    HW199038  11.399  11.186  11.083
32402SOL    HW299039  11.270  11.255  11.125
32403SOL     OW99040  10.443  12.200   2.166
32403SOL    HW199041  10.491  12.230   2.243
32403SOL    HW299042  10.361  12.165   2.201
32404SOL     OW99043   1.504   7.162  14.633
32404SOL    HW199044   1.433   7.139  14.692
32404SOL    HW299045   1.465   7.158  14.545
32405SOL     OW99046   7.591   4.751   9.942
32405SOL    HW199047   7.531   4.781  10.011
32405SOL    HW299048   7.674   4.737   9.987
32406SOL     OW99049  11.069   2.295   8.042
32406SOL    HW199050  11.048   2.224   7.982
32406SOL    HW299051  11.027   2.270   8.124
32407SOL     OW99052  12.808   1.248   5.655
32407SOL    HW199053  12.717   1.249   5.627
32407SOL    HW299054  12.832   1.341   5.660
32408SOL     OW99055   6.422  12.633   3.840
32408SOL    HW199056   6.419  12.569   3.911
32408SOL    HW299057   6.331  12.661   3.830
32409SOL     OW99058  14.760   0.875   1.859
32409SOL    HW199059  14.689   0.815   1.835
32409SOL    HW299060  14.744   0.895   1.952
32410SOL     OW99061   2.883   2.621  12.204
32410SOL    HW199062   2.973   2.605  12.232
32410SOL    HW299063   2.879   2.585  12.115
32411SOL     OW99064  13.929   0.900  10.787
32411SOL    HW199065  13.961   0.895  10.877
32411SOL    HW299066  13.957   0.818  10.747
32412SOL     OW99067   8.581   4.463   9.810
32412SOL    HW199068   8.624   4.388   9.769
32412SOL    HW299069   8.496   4.469   9.766
32413SOL     OW99070   7.670   3.353   3.409
32413SOL    HW199071   7.674   3.449   3.416
32413SOL    HW299072   7.587   3.335   3.367
32414SOL     OW99073   0.005  13.950   2.276
32414SOL    HW199074   0.008  13.949   2.181
32414SOL    HW299075   0.097  13.951   2.303
32415SOL     OW99076  11.738   0.987   6.084
32415SOL    HW199077  11.683   1.037   6.024
32415SOL    HW299078  11.676   0.940   6.139
32416SOL     OW99079   5.903   7.940   7.701
32416SOL    HW199080   5.834   7.883   7.669
32416SOL    HW299081   5.974   7.881   7.725
32417SOL     OW99082   3.177   2.408  12.096
32417SOL    HW199083   3.160   2.333  12.154
32417SOL    HW299084   3.185   2.483  12.155
32418SOL     OW99085  12.481   2.083   1.544
32418SOL    HW199086  12.482   1.989   1.561
32418SOL    HW299087  12.497   2.123   1.630
32419SOL     OW99088   9.298   3.900  14.060
32419SOL    HW199089   9.238   3.891  13.986
32419SOL    HW299090   9.288   3.819  14.109
32420SOL     OW99091  11.641   3.552   7.301
32420SOL    HW199092  11.604   3.637   7.276
32420SOL    HW299093  11.583   3.488   7.260
32421SOL     OW99094   8.422  14.492  10.491
32421SOL    HW199095   8.379  14.438  10.424
32421SOL    HW299096   8.400  14.582  10.466
32422SOL     OW99097   4.277   1.904  14.541
32422SOL    HW199098   4.195   1.948  14.563
32422SOL    HW299099   4.327   1.905  14.623
32423SOL     OW99100   2.044   4.714   3.513
32423SOL    HW199101   1.979   4.652   3.482
32423SOL    HW299102   1.998   4.798   3.517
32424SOL     OW99103   0.060   1.827  12.747
32424SOL    HW199104   0.130   1.858  12.690
32424SOL    HW299105   0.064   1.885  12.824
32425SOL     OW99106  13.361  11.172   6.322
32425SOL    HW199107  13.438  11.140   6.274
32425SOL    HW299108  13.313  11.224   6.257
32426SOL     OW99109   0.741   9.583  11.809
32426SOL    HW199110   0.767   9.507  11.862
32426SOL    HW299111   0.648   9.567  11.789
32427SOL     OW99112   2.076   9.124  10.475
32427SOL    HW199113   2.086   9.203  10.422
32427SOL    HW299114   1.984   9.123  10.499
32428SOL     OW99115  14.660   8.968   9.487
32428SOL    HW199116  14.646   8.982   9.394
32428SOL    HW299117  14.748   9.001   9.504
32429SOL     OW99118  11.924  11.705   2.043
32429SOL    HW199119  11.861  11.776   2.029
32429SOL    HW299120  11.992  11.745   2.098
32430SOL     OW99121   8.047   6.393   4.553
32430SOL    HW199122   8.092   6.365   4.632
32430SOL    HW299123   7.996   6.469   4.580
32431SOL     OW99124  10.768   8.393   1.389
32431SOL    HW199125  10.857   8.416   1.362
32431SOL    HW299126  10.721   8.476   1.391
32432SOL     OW99127   7.405  10.179   9.705
32432SOL    HW199128   7.347  10.219   9.640
32432SOL    HW299129   7.396  10.235   9.783
32433SOL     OW99130   9.018   2.659   2.850
32433SOL    HW199131   8.970   2.579   2.827
32433SOL    HW299132   9.041   2.698   2.766
32434SOL     OW99133   6.071  12.593   6.987
32434SOL    HW199134   6.082  12.519   6.926
32434SOL    HW299135   6.156  12.637   6.988
32435SOL     OW99136   3.181  13.761   4.402
32435SOL    HW199137   3.174  13.723   4.490
32435SOL    HW299138   3.093  13.793   4.383
32436SOL     OW99139  12.845  14.328   8.207
32436SOL    HW199140  12.868  14.421   8.204
32436SOL    HW299141  12.929  14.282   8.207
32437SOL     OW99142  10.409   2.013   0.113
32437SOL    HW199143  10.490   1.967   0.089
32437SOL    HW299144  10.340   1.948   0.100
32438SOL     OW99145   8.325   9.048   2.456
32438SOL    HW199146   8.296   9.130   2.496
32438SOL    HW299147   8.356   9.074   2.369
32439SOL     OW99148   9.582   7.803   8.855
32439SOL    HW199149   9.490   7.816   8.832
32439SOL    HW299150   9.626   7.883   8.824
32440SOL     OW99151   3.961   8.881   1.127
32440SOL    HW199152   3.908   8.854   1.051
32440SOL    HW299153   4.033   8.931   1.089
32441SOL     OW99154   6.018   4.526   4.692
32441SOL    HW199155   5.970   4.457   4.738
32441SOL    HW299156   5.955   4.598   4.686
32442SOL     OW99157   9.881   0.323  11.845
32442SOL    HW199158   9.954   0.268  11.817
32442SOL    HW299159   9.805   0.285  11.801
32443SOL     OW99160  14.682   6.746  14.114
32443SOL    HW199161  14.716   6.695  14.187
32443SOL    HW299162  14.647   6.825  14.154
32444SOL     OW99163   8.182   7.708  13.660
32444SOL    HW199164   8.161   7.617  13.684
32444SOL    HW299165   8.171   7.710  13.565
32445SOL     OW99166   1.785   0.236  12.191
32445SOL    HW199167   1.695   0.204  12.204
32445SOL    HW299168   1.774   0.330  12.176
32446SOL     OW99169  13.522   8.075   3.423
32446SOL    HW199170  13.432   8.054   3.449
32446SOL    HW299171  13.537   8.164   3.456
32447SOL     OW99172   7.165  11.691  14.079
32447SOL    HW199173   7.207  11.724  14.000
32447SOL    HW299174   7.106  11.622  14.049
32448SOL     OW99175   7.193   0.471  14.124
32448SOL    HW199176   7.269   0.501  14.073
32448SOL    HW299177   7.118   0.490  14.068
32449SOL     OW99178   4.953   0.542   3.767
32449SOL    HW199179   4.977   0.465   3.715
32449SOL    HW299180   5.004   0.614   3.729
32450SOL     OW99181   8.901   7.264   1.528
32450SOL    HW199182   8.962   7.306   1.589
32450SOL    HW299183   8.832   7.229   1.584
32451SOL     OW99184   0.372   8.753   2.175
32451SOL    HW199185   0.296   8.700   2.197
32451SOL    HW299186   0.434   8.691   2.136
32452SOL     OW99187   8.512   8.212   1.766
32452SOL    HW199188   8.438   8.266   1.738
32452SOL    HW299189   8.489   8.123   1.739
32453SOL     OW99190   9.159   3.950   1.677
32453SOL    HW199191   9.153   3.908   1.763
32453SOL    HW299192   9.144   4.043   1.695
32454SOL     OW99193  12.182  11.125  12.895
32454SOL    HW199194  12.211  11.216  12.895
32454SOL    HW299195  12.136  11.114  12.811
32455SOL     OW99196   7.429  13.764   1.093
32455SOL    HW199197   7.513  13.729   1.120
32455SOL    HW299198   7.432  13.763   0.997
32456SOL     OW99199   2.217  14.593  12.646
32456SOL    HW199200   2.179  14.524  12.701
32456SOL    HW299201   2.161  14.669  12.662
32457SOL     OW99202   3.836   2.180  13.290
32457SOL    HW199203   3.863   2.272  13.283
32457SOL    HW299204   3.919   2.131  13.286
32458SOL     OW99205   3.432   3.365  10.865
32458SOL    HW199206   3.424   3.291  10.926
32458SOL    HW299207   3.518   3.402  10.884
32459SOL     OW99208  14.336   0.095   6.463
32459SOL    HW199209  14.265   0.135   6.413
32459SOL    HW299210  14.415   0.140   6.434
32460SOL     OW99211  13.522  13.969   7.889
32460SOL    HW199212  13.487  13.882   7.909
32460SOL    HW299213  13.581  13.989   7.961
32461SOL     OW99214   7.475   7.263  10.042
32461SOL    HW199215   7.533   7.318  10.095
32461SOL    HW299216   7.414   7.325  10.002
32462SOL     OW99217  14.179   0.691   9.842
32462SOL    HW199218  14.271   0.701   9.866
32462SOL    HW299219  14.175   0.720   9.751
32463SOL     OW99220   6.195  11.678  14.674
32463SOL    HW199221   6.242  11.673  14.757
32463SOL    HW299222   6.107  11.707  14.698
32464SOL     OW99223   2.649  12.751  10.834
32464SOL    HW199224   2.723  12.689  10.835
32464SOL    HW299225   2.690  12.837  10.843
32465SOL     OW99226  12.490   5.668   7.285
32465SOL    HW199227  12.515   5.720   7.208
32465SOL    HW299228  12.397   5.651   7.273
32466SOL     OW99229  14.852   3.908  12.147
32466SOL    HW199230  14.780   3.847  12.133
32466SOL    HW299231  14.809   3.988  12.177
32467SOL     OW99232   3.793   8.932   4.310
32467SOL    HW199233   3.881   8.967   4.322
32467SOL    HW299234   3.800   8.840   4.339
32468SOL     OW99235  13.448   3.945   7.596
32468SOL    HW199236  13.476   3.997   7.521
32468SOL    HW299237  13.400   4.006   7.651
32469SOL     OW99238   0.414   2.098  12.971
32469SOL    HW199239   0.347   2.037  13.003
32469SOL    HW299240   0.496   2.063  13.004
32470SOL     OW99241  14.363   2.590   0.273
32470SOL    HW199242  14.447   2.620   0.308
32470SOL    HW299243  14.302   2.598   0.347
32471SOL     OW99244   7.157   8.525  13.211
32471SOL    HW199245   7.072   8.535  13.255
32471SOL    HW299246   7.135   8.491  13.124
32472SOL     OW99247  14.611   2.718   9.574
32472SOL    HW199248  14.595   2.807   9.605
32472SOL    HW299249  14.534   2.668   9.602
32473SOL     OW99250   5.071   6.636   0.680
32473SOL    HW199251   5.000   6.648   0.742
32473SOL    HW299252   5.029   6.638   0.594
32474SOL     OW99253   2.998  13.196  13.305
32474SOL    HW199254   2.983  13.287  13.327
32474SOL    HW299255   2.932  13.176  13.238
32475SOL     OW99256  11.573  12.207   3.405
32475SOL    HW199257  11.588  12.138   3.470
32475SOL    HW299258  11.539  12.160   3.329
32476SOL     OW99259  12.855  11.835   5.237
32476SOL    HW199260  12.924  11.795   5.290
32476SOL    HW299261  12.901  11.896   5.180
32477SOL     OW99262   6.864   1.252   7.417
32477SOL    HW199263   6.774   1.222   7.408
32477SOL    HW299264   6.888   1.282   7.329
32478SOL     OW99265   8.944  14.413   5.558
32478SOL    HW199266   8.878  14.474   5.524
32478SOL    HW299267   8.959  14.442   5.648
32479SOL     OW99268   0.205   5.520   4.425
32479SOL    HW199269   0.153   5.454   4.472
32479SOL    HW299270   0.295   5.488   4.432
32480SOL     OW99271   4.222  10.977  12.388
32480SOL    HW199272   4.157  11.035  12.348
32480SOL    HW299273   4.259  11.028  12.460
32481SOL     OW99274   5.379   3.824   3.685
32481SOL    HW199275   5.329   3.840   3.765
32481SOL    HW299276   5.317   3.840   3.614
32482SOL     OW99277  12.813  12.252   2.582
32482SOL    HW199278  12.902  12.241   2.617
32482SOL    HW299279  12.776  12.164   2.583
32483SOL     OW99280   8.611   5.961   3.952
32483SOL    HW199281   8.555   6.018   4.005
32483SOL    HW299282   8.627   6.011   3.872
32484SOL     OW99283   3.484  10.299  12.809
32484SOL    HW199284   3.496  10.372  12.747
32484SOL    HW299285   3.422  10.241  12.765
32485SOL     OW99286  12.133  13.171   7.937
32485SOL    HW199287  12.125  13.119   8.017
32485SOL    HW299288  12.129  13.262   7.967
32486SOL     OW99289  10.249   3.533   8.103
32486SOL    HW199290  10.268   3.602   8.166
32486SOL    HW299291  10.285   3.565   8.020
32487SOL     OW99292   4.823   0.441  12.213
32487SOL    HW199293   4.882   0.439  12.288
32487SOL    HW299294   4.806   0.535  12.198
32488SOL     OW99295   1.402   5.656  13.295
32488SOL    HW199296   1.494   5.674  13.310
32488SOL    HW299297   1.358   5.740  13.305
32489SOL     OW99298   2.097  11.318   4.727
32489SOL    HW199299   2.143  11.402   4.735
32489SOL    HW299300   2.153  11.256   4.772
32490SOL     OW99301   1.123   0.409  14.584
32490SOL    HW199302   1.050   0.392  14.644
32490SOL    HW299303   1.093   0.375  14.500
32491SOL     OW99304   7.153   5.947   7.614
32491SOL    HW199305   7.177   6.016   7.677
32491SOL    HW299306   7.172   5.866   7.661
32492SOL     OW99307  13.783  13.537   8.231
32492SOL    HW199308  13.876  13.526   8.209
32492SOL    HW299309  13.743  13.453   8.208
32493SOL     OW99310   2.825   9.976   2.894
32493SOL    HW199311   2.856   9.924   2.969
32493SOL    HW299312   2.889  10.047   2.886
32494SOL     OW99313  13.928   9.061   0.533
32494SOL    HW199314  13.885   8.999   0.474
32494SOL    HW299315  14.013   9.078   0.493
32495SOL     OW99316  14.523  12.064   1.012
32495SOL    HW199317  14.435  12.101   1.019
32495SOL    HW299318  14.531  12.040   0.919
32496SOL     OW99319   8.508   2.833  11.715
32496SOL    HW199320   8.547   2.765  11.770
32496SOL    HW299321   8.451   2.882  11.774
32497SOL     OW99322  13.538   9.263   8.799
32497SOL    HW199323  13.605   9.328   8.777
32497SOL    HW299324  13.522   9.216   8.716
32498SOL     OW99325   3.319   8.329  10.139
32498SOL    HW199326   3.249   8.375  10.093
32498SOL    HW299327   3.276   8.257  10.184
32499SOL     OW99328   7.937   4.094   0.112
32499SOL    HW199329   7.874   4.091   0.184
32499SOL    HW299330   7.891   4.056   0.037
32500SOL     OW99331  10.465  11.099  10.281
32500SOL    HW199332  10.520  11.119  10.205
32500SOL    HW299333  10.480  11.172  10.341
32501SOL     OW99334   1.706   2.027   6.070
32501SOL    HW199335   1.670   2.015   5.982
32501SOL    HW299336   1.737   1.940   6.095
32502SOL     OW99337   9.672   8.646  14.177
32502SOL    HW199338   9.646   8.724  14.226
32502SOL    HW299339   9.706   8.680  14.094
32503SOL     OW99340  10.740   3.193   1.063
32503SOL    HW199341  10.721   3.276   1.106
32503SOL    HW299342  10.661   3.173   1.012
32504SOL     OW99343   4.825   8.399   9.910
32504SOL    HW199344   4.906   8.451   9.908
32504SOL    HW299345   4.846   8.325   9.967
32505SOL     OW99346   6.895   4.127  12.115
32505SOL    HW199347   6.986   4.098  12.126
32505SOL    HW299348   6.878   4.119  12.022
32506SOL     OW99349   7.213  12.143   2.013
32506SOL    HW199350   7.269  12.143   2.090
32506SOL    HW299351   7.273  12.151   1.939
32507SOL     OW99352   1.561   5.569   0.306
32507SOL    HW199353   1.466   5.564   0.294
32507SOL    HW299354   1.572   5.631   0.379
32508SOL     OW99355  12.231   8.864   9.999
32508SOL    HW199356  12.212   8.955   9.977
32508SOL    HW299357  12.261   8.825   9.917
32509SOL     OW99358  13.372   4.917  14.171
32509SOL    HW199359  13.371   4.965  14.088
32509SOL    HW299360  13.422   4.974  14.231
32510SOL     OW99361  10.414   4.457  10.184
32510SOL    HW199362  10.340   4.398  10.172
32510SOL    HW299363  10.375   4.539  10.216
32511SOL     OW99364   5.595   7.071  13.170
32511SOL    HW199365   5.606   6.987  13.215
32511SOL    HW299366   5.683   7.094  13.140
32512SOL     OW99367   3.698   7.997   4.943
32512SOL    HW199368   3.704   7.990   4.848
32512SOL    HW299369   3.782   8.034   4.970
32513SOL     OW99370   1.420  10.295  14.625
32513SOL    HW199371   1.489  10.308  14.559
32513SOL    HW299372   1.466  10.252  14.697
32514SOL     OW99373   2.121  13.725   2.435
32514SOL    HW199374   2.099  13.685   2.350
32514SOL    HW299375   2.214  13.707   2.446
32515SOL     OW99376  10.995   5.940   7.629
32515SOL    HW199377  11.007   5.937   7.534
32515SOL    HW299378  11.056   5.874   7.663
32516SOL     OW99379  11.793   0.089  11.635
32516SOL    HW199380  11.839   0.144  11.697
32516SOL    HW299381  11.814  14.875  11.662
32517SOL     OW99382   6.759   9.162   6.766
32517SOL    HW199383   6.680   9.139   6.815
32517SOL    HW299384   6.727   9.193   6.682
32518SOL     OW99385  13.782   1.253   9.340
32518SOL    HW199386  13.793   1.261   9.246
32518SOL    HW299387  13.758   1.341   9.369
32519SOL     OW99388  13.060  10.143  10.832
32519SOL    HW199389  13.045  10.174  10.922
32519SOL    HW299390  13.073  10.224  10.782
32520SOL     OW99391  13.677   9.931   7.679
32520SOL    HW199392  13.760   9.888   7.660
32520SOL    HW299393  13.688  10.020   7.645
32521SOL     OW99394   8.712  10.930   9.407
32521SOL    HW199395   8.751  10.985   9.338
32521SOL    HW299396   8.777  10.861   9.422
32522SOL     OW99397   8.872   6.883   1.332
32522SOL    HW199398   8.806   6.949   1.314
32522SOL    HW299399   8.826   6.816   1.381
32523SOL     OW99400   1.945   3.280   5.041
32523SOL    HW199401   1.955   3.334   4.963
32523SOL    HW299402   1.989   3.198   5.020
32524SOL     OW99403   7.493   7.041   8.157
32524SOL    HW199404   7.462   7.023   8.068
32524SOL    HW299405   7.446   7.121   8.183
32525SOL     OW99406   9.017  10.489   2.332
32525SOL    HW199407   9.042  10.399   2.310
32525SOL    HW299408   9.046  10.500   2.423
32526SOL     OW99409  13.260   3.217   4.796
32526SOL    HW199410  13.257   3.230   4.891
32526SOL    HW299411  13.210   3.291   4.760
32527SOL     OW99412   5.608   2.574   7.055
32527SOL    HW199413   5.597   2.514   7.129
32527SOL    HW299414   5.572   2.657   7.086
32528SOL     OW99415   8.838   6.056  11.664
32528SOL    HW199416   8.875   5.992  11.603
32528SOL    HW299417   8.743   6.048  11.654
32529SOL     OW99418   2.106   4.018  14.144
32529SOL    HW199419   2.115   3.930  14.106
32529SOL    HW299420   2.024   4.015  14.193
32530SOL     OW99421   5.122  13.799  12.324
32530SOL    HW199422   5.062  13.778  12.253
32530SOL    HW299423   5.155  13.887  12.303
32531SOL     OW99424   2.836  13.091   9.477
32531SOL    HW199425   2.865  13.000   9.485
32531SOL    HW299426   2.907  13.143   9.515
32532SOL     OW99427   7.161   8.796   5.589
32532SOL    HW199428   7.202   8.819   5.505
32532SOL    HW299429   7.144   8.880   5.632
32533SOL     OW99430   9.001  13.861   1.979
32533SOL    HW199431   8.970  13.951   1.994
32533SOL    HW299432   8.951  13.808   2.041
32534SOL     OW99433   6.351   6.839   9.207
32534SOL    HW199434   6.337   6.754   9.249
32534SOL    HW299435   6.301   6.900   9.261
32535SOL     OW99436   9.873  13.502  10.823
32535SOL    HW199437   9.822  13.451  10.886
32535SOL    HW299438   9.957  13.456  10.816
32536SOL     OW99439  12.934   4.076   5.327
32536SOL    HW199440  12.977   3.994   5.306
32536SOL    HW299441  12.860   4.051   5.382
32537SOL     OW99442  11.893   9.630   5.025
32537SOL    HW199443  11.898   9.723   5.001
32537SOL    HW299444  11.916   9.629   5.118
32538SOL     OW99445   1.607   4.053   3.133
32538SOL    HW199446   1.658   3.978   3.163
32538SOL    HW299447   1.517   4.035   3.163
32539SOL     OW99448   2.471   6.516   1.991
32539SOL    HW199449   2.465   6.547   1.901
32539SOL    HW299450   2.383   6.484   2.013
32540SOL     OW99451  10.251   5.319  13.309
32540SOL    HW199452  10.262   5.230  13.277
32540SOL    HW299453  10.160   5.321  13.341
32541SOL     OW99454   2.920   0.846   4.666
32541SOL    HW199455   2.976   0.805   4.600
32541SOL    HW299456   2.875   0.916   4.619
32542SOL     OW99457   6.876  14.090   9.019
32542SOL    HW199458   6.938  14.041   8.964
32542SOL    HW299459   6.926  14.113   9.097
32543SOL     OW99460   3.107   3.148  12.159
32543SOL    HW199461   3.021   3.109  12.142
32543SOL    HW299462   3.094   3.242  12.147
32544SOL     OW99463  14.873   8.099   2.058
32544SOL    HW199464   0.037   8.012   2.051
32544SOL    HW299465  14.779   8.083   2.045
32545SOL     OW99466   1.507  14.284   1.105
32545SOL    HW199467   1.519  14.203   1.056
32545SOL    HW299468   1.505  14.352   1.038
32546SOL     OW99469  11.886  14.663   4.682
32546SOL    HW199470  11.853  14.578   4.710
32546SOL    HW299471  11.808  14.711   4.655
32547SOL     OW99472   5.699   5.772   5.411
32547SOL    HW199473   5.767   5.724   5.458
32547SOL    HW299474   5.621   5.718   5.421
32548SOL     OW99475   1.402   7.612   3.488
32548SOL    HW199476   1.396   7.683   3.424
32548SOL    HW299477   1.318   7.614   3.534
32549SOL     OW99478   9.771   2.221   4.138
32549SOL    HW199479   9.802   2.287   4.200
32549SOL    HW299480   9.741   2.149   4.193
32550SOL     OW99481  12.920   5.968   8.155
32550SOL    HW199482  12.849   5.971   8.092
32550SOL    HW299483  12.938   5.874   8.166
32551SOL     OW99484   1.103   9.568   3.076
32551SOL    HW199485   1.185   9.551   3.029
32551SOL    HW299486   1.119   9.650   3.122
32552SOL     OW99487   2.336   4.289   1.153
32552SOL    HW199488   2.339   4.215   1.214
32552SOL    HW299489   2.425   4.293   1.117
32553SOL     OW99490  12.695   0.496  12.376
32553SOL    HW199491  12.773   0.455  12.415
32553SOL    HW299492  12.649   0.423  12.334
32554SOL     OW99493   0.436  13.887   4.903
32554SOL    HW199494   0.492  13.930   4.839
32554SOL    HW299495   0.391  13.959   4.947
32555SOL     OW99496   9.819  14.128   8.967
32555SOL    HW199497   9.848  14.182   9.041
32555SOL    HW299498   9.826  14.185   8.891
32556SOL     OW99499   1.365   0.630   1.069
32556SOL    HW199500   1.379   0.717   1.030
32556SOL    HW299501   1.349   0.573   0.994
32557SOL     OW99502  11.663  13.435  11.966
32557SOL    HW199503  11.732  13.374  11.940
32557SOL    HW299504  11.631  13.471  11.883
32558SOL     OW99505   0.127  11.989   7.079
32558SOL    HW199506   0.162  12.026   6.998
32558SOL    HW299507   0.140  11.895   7.070
32559SOL     OW99508   0.206   3.386  12.554
32559SOL    HW199509   0.221   3.402  12.461
32559SOL    HW299510   0.273   3.437  12.599
32560SOL     OW99511  14.511  13.046  11.142
32560SOL    HW199512  14.464  12.964  11.154
32560SOL    HW299513  14.596  13.021  11.105
32561SOL     OW99514  13.674  10.205   2.179
32561SOL    HW199515  13.671  10.189   2.273
32561SOL    HW299516  13.756  10.164   2.150
32562SOL     OW99517   4.971   8.066   2.711
32562SOL    HW199518   4.958   8.030   2.623
32562SOL    HW299519   4.927   8.004   2.769
32563SOL     OW99520   4.023   4.808  12.263
32563SOL    HW199521   4.031   4.732  12.205
32563SOL    HW299522   4.091   4.794  12.330
32564SOL     OW99523  14.562   4.570   5.528
32564SOL    HW199524  14.538   4.543   5.617
32564SOL    HW299525  14.638   4.515   5.507
32565SOL     OW99526   7.505   4.272  14.052
32565SOL    HW199527   7.494   4.187  14.009
32565SOL    HW299528   7.425   4.320  14.031
32566SOL     OW99529   6.861   9.026  13.759
32566SOL    HW199530   6.834   9.094  13.698
32566SOL    HW299531   6.947   8.997  13.727
32567SOL     OW99532   4.764  11.102   5.302
32567SOL    HW199533   4.856  11.121   5.283
32567SOL    HW299534   4.716  11.171   5.257
32568SOL     OW99535  13.109   7.058   8.089
32568SOL    HW199536  13.075   6.969   8.082
32568SOL    HW299537  13.078   7.103   8.010
32569SOL     OW99538  10.568  11.680   4.640
32569SOL    HW199539  10.589  11.754   4.696
32569SOL    HW299540  10.490  11.641   4.679
32570SOL     OW99541  12.929  11.924  13.970
32570SOL    HW199542  12.944  11.982  13.896
32570SOL    HW299543  13.012  11.879  13.982
32571SOL     OW99544   1.058   3.453   8.794
32571SOL    HW199545   0.988   3.390   8.813
32571SOL    HW299546   1.097   3.472   8.880
32572SOL     OW99547   2.728   2.993   7.244
32572SOL    HW199548   2.712   2.899   7.244
32572SOL    HW299549   2.760   3.012   7.332
32573SOL     OW99550  10.711   2.507   5.959
32573SOL    HW199551  10.654   2.532   6.033
32573SOL    HW299552  10.685   2.566   5.888
32574SOL     OW99553   0.074  11.503   7.665
32574SOL    HW199554   0.052  11.521   7.756
32574SOL    HW299555  14.873  11.457   7.630
32575SOL     OW99556   9.895   3.843   0.700
32575SOL    HW199557   9.863   3.823   0.787
32575SOL    HW299558   9.988   3.864   0.712
32576SOL     OW99559  14.364   0.218   2.453
32576SOL    HW199560  14.360   0.227   2.549
32576SOL    HW299561  14.444   0.168   2.437
32577SOL     OW99562  11.117   0.222   8.921
32577SOL    HW199563  11.209   0.205   8.900
32577SOL    HW299564  11.089   0.144   8.970
32578SOL     OW99565   2.984  13.936  12.793
32578SOL    HW199566   2.927  13.862  12.773
32578SOL    HW299567   3.071  13.910  12.763
32579SOL     OW99568  14.055   2.348  11.720
32579SOL    HW199569  14.103   2.369  11.800
32579SOL    HW299570  14.022   2.433  11.689
32580SOL     OW99571  13.974   4.706   3.740
32580SOL    HW199572  13.970   4.618   3.701
32580SOL    HW299573  13.935   4.695   3.827
32581SOL     OW99574  11.452   2.533  11.168
32581SOL    HW199575  11.541   2.531  11.204
32581SOL    HW299576  11.396   2.505  11.241
32582SOL     OW99577   1.663  13.006   7.267
32582SOL    HW199578   1.569  13.018   7.257
32582SOL    HW299579   1.676  12.911   7.258
32583SOL     OW99580  10.842  11.414  10.631
32583SOL    HW199581  10.902  11.358  10.680
32583SOL    HW299582  10.878  11.415  10.542
32584SOL     OW99583  11.553  11.027   5.383
32584SOL    HW199584  11.482  10.964   5.374
32584SOL    HW299585  11.629  10.984   5.343
32585SOL     OW99586   4.880  13.086   8.190
32585SOL    HW199587   4.888  13.097   8.095
32585SOL    HW299588   4.917  12.999   8.208
32586SOL     OW99589   7.098   8.018   3.611
32586SOL    HW199590   7.039   7.950   3.578
32586SOL    HW299591   7.053   8.055   3.687
32587SOL     OW99592   2.557  10.609   7.045
32587SOL    HW199593   2.653  10.604   7.045
32587SOL    HW299594   2.530  10.544   6.980
32588SOL     OW99595   0.208  11.817   1.010
32588SOL    HW199596   0.187  11.910   1.010
32588SOL    HW299597   0.234  11.798   0.920
32589SOL     OW99598   7.923   3.469   1.303
32589SOL    HW199599   7.863   3.460   1.377
32589SOL    HW299600   7.865   3.478   1.227
32590SOL     OW99601   0.210  14.863  14.387
32590SOL    HW199602   0.219   0.004  14.481
32590SOL    HW299603   0.299  14.873  14.352
32591SOL     OW99604   2.306   6.762   8.062
32591SOL    HW199605   2.384   6.714   8.036
32591SOL    HW299606   2.290   6.736   8.153
32592SOL     OW99607   7.056   4.437   4.525
32592SOL    HW199608   7.102   4.477   4.598
32592SOL    HW299609   7.054   4.343   4.546
32593SOL     OW99610   2.734   9.436  13.260
32593SOL    HW199611   2.707   9.438  13.168
32593SOL    HW299612   2.748   9.343  13.278
32594SOL     OW99613   9.024   5.923   4.349
32594SOL    HW199614   9.023   5.905   4.255
32594SOL    HW299615   8.991   6.012   4.357
32595SOL     OW99616   5.715  11.243  11.745
32595SOL    HW199617   5.755  11.156  11.738
32595SOL    HW299618   5.768  11.298  11.688
32596SOL     OW99619   9.400   0.260  11.858
32596SOL    HW199620   9.416   0.177  11.904
32596SOL    HW299621   9.420   0.241  11.766
32597SOL     OW99622  11.426   9.196  10.110
32597SOL    HW199623  11.399   9.253  10.038
32597SOL    HW299624  11.427   9.253  10.187
32598SOL     OW99625   3.177   8.227   7.852
32598SOL    HW199626   3.121   8.186   7.918
32598SOL    HW299627   3.236   8.283   7.902
32599SOL     OW99628   3.421   4.714  14.148
32599SOL    HW199629   3.449   4.690  14.236
32599SOL    HW299630   3.378   4.636  14.114
32600SOL     OW99631   7.785   6.715  10.161
32600SOL    HW199632   7.821   6.716  10.072
32600SOL    HW299633   7.853   6.671  10.213
32601SOL     OW99634   9.302  12.404   0.182
32601SOL    HW199635   9.232  12.456   0.221
32601SOL    HW299636   9.381  12.433   0.226
32602SOL     OW99637   2.875   6.335   2.204
32602SOL    HW199638   2.807   6.339   2.136
32602SOL    HW299639   2.950   6.379   2.165
32603SOL     OW99640   0.167   6.690   5.783
32603SOL    HW199641   0.235   6.705   5.718
32603SOL    HW299642   0.207   6.631   5.847
32604SOL     OW99643   0.141   2.433   6.714
32604SOL    HW199644   0.185   2.510   6.750
32604SOL    HW299645   0.202   2.399   6.649
32605SOL     OW99646  10.024   9.888  13.350
32605SOL    HW199647  10.112   9.893  13.313
32605SOL    HW299648  10.038   9.875  13.444
32606SOL     OW99649   3.208  11.943  14.669
32606SOL    HW199650   3.223  11.944  14.575
32606SOL    HW299651   3.278  11.997  14.705
32607SOL     OW99652   4.024   1.400   6.388
32607SOL    HW199653   3.990   1.393   6.477
32607SOL    HW299654   4.011   1.492   6.364
32608SOL     OW99655   8.570   2.275   6.785
32608SOL    HW199656   8.583   2.215   6.712
32608SOL    HW299657   8.622   2.239   6.856
32609SOL     OW99658  11.508  13.463   9.126
32609SOL    HW199659  11.590  13.458   9.078
32609SOL    HW299660  11.516  13.397   9.195
32610SOL     OW99661   5.295   1.104   5.990
32610SOL    HW199662   5.202   1.084   5.980
32610SOL    HW299663   5.326   1.120   5.901
32611SOL     OW99664   7.977   0.844   1.902
32611SOL    HW199665   7.962   0.915   1.964
32611SOL    HW299666   7.893   0.798   1.897
32612SOL     OW99667   1.971   9.122   7.716
32612SOL    HW199668   1.993   9.195   7.659
32612SOL    HW299669   2.049   9.067   7.717
32613SOL     OW99670   4.791   2.128  10.145
32613SOL    HW199671   4.708   2.167  10.117
32613SOL    HW299672   4.846   2.202  10.170
32614SOL     OW99673   9.585   3.847   7.450
32614SOL    HW199674   9.567   3.920   7.391
32614SOL    HW299675   9.651   3.795   7.404
32615SOL     OW99676  14.048   0.733   6.764
32615SOL    HW199677  14.108   0.742   6.837
32615SOL    HW299678  14.094   0.676   6.702
32616SOL     OW99679   8.047   0.366   2.678
32616SOL    HW199680   8.121   0.387   2.735
32616SOL    HW299681   7.970   0.388   2.729
32617SOL     OW99682  12.340   2.057  12.185
32617SOL    HW199683  12.292   2.124  12.234
32617SOL    HW299684  12.398   2.106  12.127
32618SOL     OW99685   5.562   9.559   3.068
32618SOL    HW199686   5.584   9.468   3.092
32618SOL    HW299687   5.632   9.586   3.010
32619SOL     OW99688   3.875  11.889  13.197
32619SOL    HW199689   3.921  11.943  13.261
32619SOL    HW299690   3.786  11.881  13.232
32620SOL     OW99691   5.517  13.813  12.223
32620SOL    HW199692   5.483  13.858  12.145
32620SOL    HW299693   5.442  13.763  12.255
32621SOL     OW99694  12.197   7.000  12.549
32621SOL    HW199695  12.118   7.024  12.501
32621SOL    HW299696  12.209   6.907  12.531
32622SOL     OW99697   5.470   9.860  13.751
32622SOL    HW199698   5.446   9.835  13.662
32622SOL    HW299699   5.558   9.824  13.763
32623SOL     OW99700   3.559  14.454   6.317
32623SOL    HW199701   3.481  14.436   6.265
32623SOL    HW299702   3.597  14.367   6.334
32624SOL     OW99703   2.124  10.426  11.964
32624SOL    HW199704   2.163  10.502  11.920
32624SOL    HW299705   2.036  10.455  11.987
32625SOL     OW99706   1.044  11.079   9.249
32625SOL    HW199707   1.009  11.163   9.220
32625SOL    HW299708   0.967  11.024   9.262
32626SOL     OW99709  11.725  10.552   6.130
32626SOL    HW199710  11.675  10.608   6.190
32626SOL    HW299711  11.726  10.466   6.173
32627SOL     OW99712  12.817  11.596   7.214
32627SOL    HW199713  12.851  11.560   7.296
32627SOL    HW299714  12.724  11.572   7.214
32628SOL     OW99715  14.240  12.360   4.555
32628SOL    HW199716  14.262  12.279   4.510
32628SOL    HW299717  14.200  12.332   4.637
32629SOL     OW99718   3.101  14.102  14.758
32629SOL    HW199719   3.068  14.069  14.674
32629SOL    HW299720   3.196  14.105  14.746
32630SOL     OW99721   5.421  13.489   0.363
32630SOL    HW199722   5.485  13.494   0.292
32630SOL    HW299723   5.473  13.481   0.443
32631SOL     OW99724   8.737   0.984   3.079
32631SOL    HW199725   8.696   1.063   3.042
32631SOL    HW299726   8.782   0.944   3.005
32632SOL     OW99727   6.996   1.721   4.530
32632SOL    HW199728   7.065   1.686   4.587
32632SOL    HW299729   6.953   1.643   4.495
32633SOL     OW99730  12.341   6.600  14.459
32633SOL    HW199731  12.286   6.591  14.536
32633SOL    HW299732  12.353   6.695  14.449
32634SOL     OW99733  13.074  14.099   7.086
32634SOL    HW199734  13.040  14.096   7.175
32634SOL    HW299735  13.009  14.053   7.034
32635SOL     OW99736  11.094  10.005   3.619
32635SOL    HW199737  11.148   9.931   3.648
32635SOL    HW299738  11.104  10.007   3.524
32636SOL     OW99739  12.892  12.223   9.192
32636SOL    HW199740  12.983  12.205   9.219
32636SOL    HW299741  12.898  12.303   9.140
32637SOL     OW99742  12.041  10.478  11.863
32637SOL    HW199743  11.986  10.455  11.788
32637SOL    HW299744  12.007  10.426  11.935
32638SOL     OW99745  14.122   7.537  14.258
32638SOL    HW199746  14.051   7.473  14.269
32638SOL    HW299747  14.109   7.571  14.169
32639SOL     OW99748   7.614  13.865   0.383
32639SOL    HW199749   7.616  13.813   0.303
32639SOL    HW299750   7.693  13.919   0.378
32640SOL     OW99751   4.440   9.035   3.539
32640SOL    HW199752   4.412   8.950   3.504
32640SOL    HW299753   4.492   9.012   3.616
32641SOL     OW99754   6.733   3.904   2.387
32641SOL    HW199755   6.730   3.856   2.305
32641SOL    HW299756   6.710   3.839   2.454
32642SOL     OW99757  12.436   3.237   1.830
32642SOL    HW199758  12.478   3.316   1.865
32642SOL    HW299759  12.482   3.220   1.748
32643SOL     OW99760  11.302  10.293  11.424
32643SOL    HW199761  11.234  10.359  11.411
32643SOL    HW299762  11.327  10.267  11.335
32644SOL     OW99763   1.956   3.223   1.072
32644SOL    HW199764   1.994   3.268   0.996
32644SOL    HW299765   1.874   3.269   1.089
32645SOL     OW99766  11.608   4.940   5.174
32645SOL    HW199767  11.565   4.901   5.250
32645SOL    HW299768  11.660   4.868   5.136
32646SOL     OW99769   1.507  14.304  13.908
32646SOL    HW199770   1.513  14.394  13.875
32646SOL    HW299771   1.502  14.250  13.829
32647SOL     OW99772   0.109   8.090   1.423
32647SOL    HW199773   0.034   8.043   1.386
32647SOL    HW299774   0.131   8.041   1.502
32648SOL     OW99775   4.720   0.993  13.938
32648SOL    HW199776   4.735   0.955  13.851
32648SOL    HW299777   4.650   0.941  13.976
32649SOL     OW99778   0.501  14.456  11.091
32649SOL    HW199779   0.549  14.378  11.118
32649SOL    HW299780   0.569  14.522  11.075
32650SOL     OW99781  11.559  11.341   0.429
32650SOL    HW199782  11.521  11.428   0.418
32650SOL    HW299783  11.486  11.281   0.411
32651SOL     OW99784  12.227  12.260   0.191
32651SOL    HW199785  12.254  12.170   0.171
32651SOL    HW299786  12.154  12.277   0.132
32652SOL     OW99787  14.617   1.904   5.076
32652SOL    HW199788  14.698   1.914   5.026
32652SOL    HW299789  14.558   1.858   5.016
32653SOL     OW99790   1.757  14.751   5.728
32653SOL    HW199791   1.805  14.672   5.750
32653SOL    HW299792   1.790  14.777   5.642
32654SOL     OW99793   6.779   5.416   3.805
32654SOL    HW199794   6.816   5.481   3.744
32654SOL    HW299795   6.750   5.467   3.880
32655SOL     OW99796   9.507  13.414   3.169
32655SOL    HW199797   9.531  13.358   3.096
32655SOL    HW299798   9.412  13.409   3.173
32656SOL     OW99799   0.842  14.552   3.956
32656SOL    HW199800   0.785  14.546   4.033
32656SOL    HW299801   0.791  14.601   3.892
32657SOL     OW99802  11.451  11.261  12.717
32657SOL    HW199803  11.481  11.170  12.713
32657SOL    HW299804  11.530  11.313  12.705
32658SOL     OW99805   7.284   3.244  14.158
32658SOL    HW199806   7.349   3.183  14.193
32658SOL    HW299807   7.244   3.197  14.084
32659SOL     OW99808   7.545   8.957   6.487
32659SOL    HW199809   7.469   8.935   6.540
32659SOL    HW299810   7.511   8.968   6.398
32660SOL     OW99811   9.292  10.139   3.942
32660SOL    HW199812   9.261  10.210   3.998
32660SOL    HW299813   9.213  10.098   3.908
32661SOL     OW99814  13.497   6.429   9.676
32661SOL    HW199815  13.419   6.442   9.622
32661SOL    HW299816  13.469   6.450   9.765
32662SOL     OW99817   1.366   2.158   2.350
32662SOL    HW199818   1.435   2.118   2.404
32662SOL    HW299819   1.408   2.236   2.313
32663SOL     OW99820   4.176   3.268   2.092
32663SOL    HW199821   4.266   3.298   2.107
32663SOL    HW299822   4.145   3.321   2.018
32664SOL     OW99823  11.784  12.663   9.447
32664SOL    HW199824  11.813  12.681   9.536
32664SOL    HW299825  11.814  12.738   9.395
32665SOL     OW99826   3.020  10.953   3.883
32665SOL    HW199827   3.005  11.045   3.906
32665SOL    HW299828   3.092  10.956   3.821
32666SOL     OW99829   5.516  10.647  11.962
32666SOL    HW199830   5.524  10.573  11.902
32666SOL    HW299831   5.536  10.610  12.048
32667SOL     OW99832   7.182   5.267   9.097
32667SOL    HW199833   7.104   5.304   9.055
32667SOL    HW299834   7.148   5.215   9.170
32668SOL     OW99835  14.718   2.299   7.222
32668SOL    HW199836  14.653   2.284   7.290
32668SOL    HW299837  14.785   2.232   7.237
32669SOL     OW99838   0.597   4.206   2.452
32669SOL    HW199839   0.660   4.211   2.380
32669SOL    HW299840   0.637   4.145   2.514
32670SOL     OW99841   1.603  10.652   8.321
32670SOL    HW199842   1.647  10.711   8.382
32670SOL    HW299843   1.522  10.698   8.296
32671SOL     OW99844  11.625   6.679   3.116
32671SOL    HW199845  11.558   6.615   3.089
32671SOL    HW299846  11.652   6.650   3.203
32672SOL     OW99847  10.160   1.275  11.285
32672SOL    HW199848  10.236   1.328  11.312
32672SOL    HW299849  10.186   1.186  11.306
32673SOL     OW99850   2.505   5.571   9.967
32673SOL    HW199851   2.419   5.609   9.948
32673SOL    HW299852   2.552   5.640  10.014
32674SOL     OW99853   0.905   7.522   3.349
32674SOL    HW199854   0.899   7.434   3.386
32674SOL    HW299855   0.960   7.570   3.411
32675SOL     OW99856   9.809  14.499  13.276
32675SOL    HW199857   9.830  14.575  13.331
32675SOL    HW299858   9.732  14.526  13.226
32676SOL     OW99859   5.965  13.367   2.540
32676SOL    HW199860   5.952  13.348   2.633
32676SOL    HW299861   6.003  13.287   2.505
32677SOL     OW99862  14.545  12.170   1.333
32677SOL    HW199863  14.541  12.103   1.401
32677SOL    HW299864  14.638  12.193   1.328
32678SOL     OW99865   8.858  10.539  13.743
32678SOL    HW199866   8.916  10.612  13.722
32678SOL    HW299867   8.849  10.543  13.838
32679SOL     OW99868   1.394  10.705   6.870
32679SOL    HW199869   1.440  10.687   6.952
32679SOL    HW299870   1.462  10.708   6.804
32680SOL     OW99871  14.667  11.061   6.853
32680SOL    HW199872  14.747  11.024   6.817
32680SOL    HW299873  14.690  11.086   6.942
32681SOL     OW99874   2.424  14.529   1.442
32681SOL    HW199875   2.335  14.561   1.452
32681SOL    HW299876   2.414  14.440   1.409
32682SOL     OW99877   9.658  14.097   4.099
32682SOL    HW199878   9.722  14.143   4.153
32682SOL    HW299879   9.644  14.155   4.024
32683SOL     OW99880   3.144   9.990  10.860
32683SOL    HW199881   3.221  10.015  10.811
32683SOL    HW299882   3.079  10.058  10.841
32684SOL     OW99883   5.447   7.919  10.650
32684SOL    HW199884   5.361   7.960  10.638
32684SOL    HW299885   5.446   7.844  10.591
32685SOL     OW99886   0.856   0.622  12.393
32685SOL    HW199887   0.768   0.648  12.367
32685SOL    HW299888   0.905   0.704  12.399
32686SOL     OW99889  11.196   4.281   4.297
32686SOL    HW199890  11.137   4.263   4.371
32686SOL    HW299891  11.240   4.363   4.321
32687SOL     OW99892   0.421   3.386   2.563
32687SOL    HW199893   0.327   3.365   2.568
32687SOL    HW299894   0.447   3.361   2.475
32688SOL     OW99895   2.623   2.942  11.751
32688SOL    HW199896   2.540   2.988  11.758
32688SOL    HW299897   2.687   3.012  11.735
32689SOL     OW99898   2.396   4.281   2.315
32689SOL    HW199899   2.472   4.273   2.372
32689SOL    HW299900   2.429   4.257   2.228
32690SOL     OW99901   9.615   1.666   0.141
32690SOL    HW199902   9.614   1.717   0.060
32690SOL    HW299903   9.705   1.671   0.172
32691SOL     OW99904   3.311   8.086   5.360
32691SOL    HW199905   3.404   8.088   5.340
32691SOL    HW299906   3.298   8.003   5.407
32692SOL     OW99907   5.376   8.453  10.944
32692SOL    HW199908   5.430   8.410  10.878
32692SOL    HW299909   5.373   8.391  11.017
32693SOL     OW99910   1.961   9.018   6.740
32693SOL    HW199911   1.921   8.934   6.759
32693SOL    HW299912   2.011   9.004   6.659
32694SOL     OW99913   3.839   5.996   5.912
32694SOL    HW199914   3.790   6.013   5.832
32694SOL    HW299915   3.909   6.062   5.911
32695SOL     OW99916   4.194   6.144   2.944
32695SOL    HW199917   4.146   6.212   2.991
32695SOL    HW299918   4.286   6.162   2.964
32696SOL     OW99919  10.994   4.913   3.776
32696SOL    HW199920  11.084   4.885   3.795
32696SOL    HW299921  10.987   4.999   3.816
32697SOL     OW99922  12.213   2.436  12.545
32697SOL    HW199923  12.270   2.410  12.473
32697SOL    HW299924  12.125   2.418  12.514
32698SOL     OW99925  12.132   0.759  12.846
32698SOL    HW199926  12.166   0.838  12.888
32698SOL    HW299927  12.197   0.736  12.781
32699SOL     OW99928  10.814   6.944  11.429
32699SOL    HW199929  10.787   6.886  11.358
32699SOL    HW299930  10.779   6.904  11.509
32700SOL     OW99931   0.702  14.243   6.650
32700SOL    HW199932   0.681  14.153   6.677
32700SOL    HW299933   0.782  14.233   6.598
32701SOL     OW99934  13.473   8.170  10.910
32701SOL    HW199935  13.418   8.211  10.843
32701SOL    HW299936  13.482   8.079  10.882
32702SOL     OW99937   8.895  14.774  11.443
32702SOL    HW199938   8.966  14.710  11.437
32702SOL    HW299939   8.925  14.849  11.391
32703SOL     OW99940  13.391   8.415  11.615
32703SOL    HW199941  13.422   8.491  11.664
32703SOL    HW299942  13.461   8.351  11.624
32704SOL     OW99943   8.223   7.997  14.709
32704SOL    HW199944   8.307   7.963  14.679
32704SOL    HW299945   8.177   8.022  14.629
32705SOL     OW99946   0.045   7.088   7.617
32705SOL    HW199947  14.834   7.061   7.587
32705SOL    HW299948   0.069   7.160   7.559
32706SOL     OW99949  12.120   0.418   5.788
32706SOL    HW199950  12.035   0.379   5.771
32706SOL    HW299951  12.112   0.458   5.874
32707SOL     OW99952   8.779   7.979  11.975
32707SOL    HW199953   8.788   7.908  12.039
32707SOL    HW299954   8.694   8.019  11.995
32708SOL     OW99955   0.443   5.454   2.558
32708SOL    HW199956   0.499   5.521   2.517
32708SOL    HW299957   0.458   5.376   2.505
32709SOL     OW99958   2.111   5.156   1.922
32709SOL    HW199959   2.029   5.189   1.958
32709SOL    HW299960   2.178   5.192   1.979
32710SOL     OW99961   0.812  12.173  12.928
32710SOL    HW199962   0.752  12.244  12.904
32710SOL    HW299963   0.806  12.167  13.023
32711SOL     OW99964   4.239   6.521   2.512
32711SOL    HW199965   4.149   6.510   2.542
32711SOL    HW299966   4.248   6.457   2.441
32712SOL     OW99967   0.047   1.563  12.543
32712SOL    HW199968  14.869   1.629  12.499
32712SOL    HW299969   0.080   1.508  12.472
32713SOL     OW99970  13.950   7.537  12.753
32713SOL    HW199971  13.958   7.453  12.708
32713SOL    HW299972  13.860   7.565  12.738
32714SOL     OW99973   3.864   0.139   7.357
32714SOL    HW199974   3.896   0.222   7.321
32714SOL    HW299975   3.849   0.157   7.450
32715SOL     OW99976   4.248   9.444  13.587
32715SOL    HW199977   4.334   9.422  13.553
32715SOL    HW299978   4.238   9.538  13.572
32716SOL     OW99979   2.309   6.877   3.501
32716SOL    HW199980   2.311   6.953   3.559
32716SOL    HW299981   2.400   6.860   3.480
32717SOL     OW99982   4.727   7.600   4.402
32717SOL    HW199983   4.637   7.615   4.372
32717SOL    HW299984   4.725   7.621   4.495
32718SOL     OW99985  10.847  12.315   0.749
32718SOL    HW199986  10.795  12.379   0.699
32718SOL    HW299987  10.906  12.276   0.684
32719SOL     OW99988   2.427  10.466   8.515
32719SOL    HW199989   2.348  10.513   8.540
32719SOL    HW299990   2.448  10.410   8.590
32720SOL     OW99991   5.196   0.676  12.131
32720SOL    HW199992   5.217   0.644  12.043
32720SOL    HW299993   5.281   0.704  12.167
32721SOL     OW99994  14.733   3.339   3.800
32721SOL    HW199995  14.789   3.285   3.745
32721SOL    HW299996  14.711   3.283   3.875
32722SOL     OW99997   6.793   3.474   5.638
32722SOL    HW199998   6.800   3.404   5.703
32722SOL    HW299999   6.853   3.447   5.568
32723SOL     OW    0   3.230   0.877   0.500
32723SOL    HW1    1   3.294   0.930   0.546
32723SOL    HW2    2   3.189   0.824   0.568
32724SOL     OW    3   1.030  10.086  13.583
32724SOL    HW1    4   1.046  10.099  13.676
32724SOL    HW2    5   0.934  10.085  13.575
32725SOL     OW    6   5.757   0.081   9.178
32725SOL    HW1    7   5.707   0.079   9.097
32725SOL    HW2    8   5.745   0.169   9.212
32726SOL     OW    9  11.219   5.009   1.927
32726SOL    HW1   10  11.133   5.033   1.893
32726SOL    HW2   11  11.280   5.067   1.881
32727SOL     OW   12   4.322  14.658  11.632
32727SOL    HW1   13   4.403  14.679  11.679
32727SOL    HW2   14   4.343  14.675  11.540
32728SOL     OW   15   6.099   8.025  12.042
32728SOL    HW1   16   6.029   8.026  11.978
32728SOL    HW2   17   6.121   7.932  12.052
32729SOL     OW   18  12.999  11.083   6.475
32729SOL    HW1   19  12.927  11.100   6.535
32729SOL    HW2   20  12.960  11.084   6.388
32730SOL     OW   21   2.386  12.567   0.229
32730SOL    HW1   22   2.412  12.589   0.318
32730SOL    HW2   23   2.389  12.650   0.181
32731SOL     OW   24   0.001   8.475   3.630
32731SOL    HW1   25  14.874   8.409   3.699
32731SOL    HW2   26   0.091   8.473   3.599
32732SOL     OW   27  12.836  10.587  11.944
32732SOL    HW1   28  12.788  10.537  11.878
32732SOL    HW2   29  12.776  10.656  11.971
32733SOL     OW   30   4.480  10.871   7.829
32733SOL    HW1   31   4.504  10.955   7.791
32733SOL    HW2   32   4.497  10.807   7.759
32734SOL     OW   33   1.708   4.050  12.229
32734SOL    HW1   34   1.769   4.018  12.162
32734SOL    HW2   35   1.743   4.136  12.254
32735SOL     OW   36   7.668   0.486   4.167
32735SOL    HW1   37   7.618   0.411   4.200
32735SOL    HW2   38   7.687   0.539   4.245
32736SOL     OW   39   5.704  14.276  10.165
32736SOL    HW1   40   5.788  14.258  10.207
32736SOL    HW2   41   5.702  14.372  10.156
32737SOL     OW   42  10.463  11.929   9.893
32737SOL    HW1   43  10.402  11.898   9.825
32737SOL    HW2   44  10.412  11.925   9.973
32738SOL     OW   45   5.935  11.872  13.951
32738SOL    HW1   46   5.963  11.963  13.948
32738SOL    HW2   47   5.971  11.833  13.871
32739SOL     OW   48  14.134   1.736   1.783
32739SOL    HW1   49  14.199   1.740   1.713
32739SOL    HW2   50  14.161   1.662   1.837
32740SOL     OW   51  10.481   5.754   1.087
32740SOL    HW1   52  10.533   5.769   1.166
32740SOL    HW2   53  10.391   5.745   1.118
32741SOL     OW   54  11.927   0.792   8.143
32741SOL    HW1   55  11.865   0.784   8.071
32741SOL    HW2   56  11.876   0.830   8.215
32742SOL     OW   57  10.788   1.960   3.349
32742SOL    HW1   58  10.823   1.897   3.412
32742SOL    HW2   59  10.805   1.920   3.263
32743SOL     OW   60   9.062   7.088   1.871
32743SOL    HW1   61   8.975   7.117   1.844
32743SOL    HW2   62   9.111   7.168   1.886
32744SOL     OW   63   2.953  14.694   8.819
32744SOL    HW1   64   2.921  14.626   8.760
32744SOL    HW2   65   3.040  14.664   8.845
32745SOL     OW   66   8.768   5.724   9.208
32745SOL    HW1   67   8.764   5.730   9.303
32745SOL    HW2   68   8.779   5.814   9.178
32746SOL     OW   69  11.360   1.449  13.503
32746SOL    HW1   70  11.414   1.400  13.565
32746SOL    HW2   71  11.393   1.539  13.509
32747SOL     OW   72  13.796  12.981  10.831
32747SOL    HW1   73  13.756  13.027  10.904
32747SOL    HW2   74  13.761  12.892  10.836
32748SOL     OW   75   9.699   4.028   0.560
32748SOL    HW1   76   9.721   3.941   0.595
32748SOL    HW2   77   9.765   4.044   0.493
32749SOL     OW   78   0.986  13.185   1.339
32749SOL    HW1   79   0.913  13.203   1.398
32749SOL    HW2   80   1.044  13.129   1.391
32750SOL     OW   81  14.278   4.615   9.061
32750SOL    HW1   82  14.274   4.519   9.067
32750SOL    HW2   83  14.369   4.634   9.038
32751SOL     OW   84   0.708   7.942   7.390
32751SOL    HW1   85   0.792   7.895   7.381
32751SOL    HW2   86   0.720   7.997   7.467
32752SOL     OW   87   9.739   6.386  13.188
32752SOL    HW1   88   9.756   6.295  13.212
32752SOL    HW2   89   9.691   6.422  13.262
32753SOL     OW   90   5.249  14.094   7.272
32753SOL    HW1   91   5.289  14.039   7.339
32753SOL    HW2   92   5.320  14.150   7.241
32754SOL     OW   93   3.547   4.453   2.763
32754SOL    HW1   94   3.472   4.489   2.809
32754SOL    HW2   95   3.569   4.518   2.697
32755SOL     OW   96  14.126   8.432  11.970
32755SOL    HW1   97  14.125   8.347  11.926
32755SOL    HW2   98  14.108   8.496  11.901
32756SOL     OW   99   3.186  11.504   0.359
32756SOL    HW1  100   3.100  11.503   0.400
32756SOL    HW2  101   3.176  11.562   0.283
32757SOL     OW  102  13.558   2.485   1.743
32757SOL    HW1  103  13.515   2.571   1.733
32757SOL    HW2  104  13.651   2.505   1.740
32758SOL     OW  105   0.675  13.988   1.749
32758SOL    HW1  106   0.611  14.018   1.684
32758SOL    HW2  107   0.751  14.044   1.735
32759SOL     OW  108   5.277   6.825   6.965
32759SOL    HW1  109   5.337   6.787   6.900
32759SOL    HW2  110   5.324   6.901   6.999
32760SOL     OW  111   8.215   2.367   7.748
32760SOL    HW1  112   8.301   2.404   7.766
32760SOL    HW2  113   8.188   2.405   7.665
32761SOL     OW  114  10.098   2.040   7.382
32761SOL    HW1  115  10.139   2.110   7.331
32761SOL    HW2  116  10.140   2.046   7.468
32762SOL     OW  117   8.876   6.538  14.043
32762SOL    HW1  118   8.924   6.614  14.010
32762SOL    HW2  119   8.866   6.481  13.967
32763SOL     OW  120  11.761  14.269   2.345
32763SOL    HW1  121  11.678  14.315   2.340
32763SOL    HW2  122  11.757  14.220   2.427
32764SOL     OW  123   1.786  10.537   2.315
32764SOL    HW1  124   1.869  10.559   2.274
32764SOL    HW2  125   1.765  10.613   2.369
32765SOL     OW  126   4.570  14.402   6.057
32765SOL    HW1  127   4.660  14.369   6.046
32765SOL    HW2  128   4.536  14.411   5.968
32766SOL     OW  129   4.924  11.285   2.446
32766SOL    HW1  130   4.980  11.211   2.423
32766SOL    HW2  131   4.925  11.288   2.542
32767SOL     OW  132   8.373   4.999   2.458
32767SOL    HW1  133   8.460   5.032   2.483
32767SOL    HW2  134   8.389   4.946   2.380
32768SOL     OW  135   2.440   0.625   9.111
32768SOL    HW1  136   2.449   0.585   9.198
32768SOL    HW2  137   2.474   0.714   9.121
32769SOL     OW  138   1.276   5.513  10.691
32769SOL    HW1  139   1.349   5.491  10.748
32769SOL    HW2  140   1.245   5.429  10.658
32770SOL     OW  141   2.509   6.668   8.738
32770SOL    HW1  142   2.587   6.719   8.759
32770SOL    HW2  143   2.448   6.731   8.699
32771SOL     OW  144   2.904   3.757  14.830
32771SOL    HW1  145   2.960   3.833  14.814
32771SOL    HW2  146   2.915   3.737   0.047
32772SOL     OW  147   2.781   2.858  13.633
32772SOL    HW1  148   2.698   2.857  13.682
32772SOL    HW2  149   2.757   2.893  13.547
32773SOL     OW  150  12.023  10.324  13.350
32773SOL    HW1  151  12.005  10.418  13.351
32773SOL    HW2  152  11.955  10.286  13.406
32774SOL     OW  153   3.582   1.784   2.365
32774SOL    HW1  154   3.663   1.797   2.414
32774SOL    HW2  155   3.520   1.752   2.431
32775SOL     OW  156  12.366   2.783   5.805
32775SOL    HW1  157  12.357   2.782   5.710
32775SOL    HW2  158  12.289   2.736   5.837
32776SOL     OW  159   2.298   4.548   6.677
32776SOL    HW1  160   2.246   4.476   6.643
32776SOL    HW2  161   2.353   4.508   6.745
32777SOL     OW  162   4.901   5.012  13.202
32777SOL    HW1  163   4.904   5.045  13.292
32777SOL    HW2  164   4.992   5.011  13.174
32778SOL     OW  165  13.227   8.774  12.867
32778SOL    HW1  166  13.157   8.777  12.802
32778SOL    HW2  167  13.191   8.725  12.940
32779SOL     OW  168   6.461  11.536  10.049
32779SOL    HW1  169   6.533  11.509  10.106
32779SOL    HW2  170   6.488  11.507   9.962
32780SOL     OW  171   4.289  10.816   8.245
32780SOL    HW1  172   4.306  10.820   8.340
32780SOL    HW2  173   4.194  10.811   8.238
32781SOL     OW  174   9.386   1.132  12.602
32781SOL    HW1  175   9.417   1.072  12.535
32781SOL    HW2  176   9.447   1.206  12.598
32782SOL     OW  177   3.724  14.675  10.319
32782SOL    HW1  178   3.648  14.721  10.284
32782SOL    HW2  179   3.794  14.692  10.255
32783SOL     OW  180   2.837   6.882  14.769
32783SOL    HW1  181   2.786   6.959  14.793
32783SOL    HW2  182   2.881   6.856  14.850
32784SOL     OW  183  10.546   2.440  12.821
32784SOL    HW1  184  10.455   2.412  12.832
32784SOL    HW2  185  10.563   2.430  12.727
32785SOL     OW  186   6.606  14.463   8.256
32785SOL    HW1  187   6.594  14.472   8.161
32785SOL    HW2  188   6.645  14.376   8.267
32786SOL     OW  189  10.578  11.129   6.174
32786SOL    HW1  190  10.578  11.038   6.144
32786SOL    HW2  191  10.529  11.128   6.256
32787SOL     OW  192   4.439  12.116   9.489
32787SOL    HW1  193   4.533  12.119   9.471
32787SOL    HW2  194   4.424  12.189   9.549
32788SOL     OW  195   8.338   5.057   7.942
32788SOL    HW1  196   8.372   5.120   7.879
32788SOL    HW2  197   8.412   5.039   8.000
32789SOL     OW  198  11.085   2.584  10.191
32789SOL    HW1  199  11.022   2.513  10.199
32789SOL    HW2  200  11.136   2.563  10.113
32790SOL     OW  201   3.307   2.373   2.101
32790SOL    HW1  202   3.338   2.319   2.175
32790SOL    HW2  203   3.302   2.312   2.028
32791SOL     OW  204   2.534  13.495   8.033
32791SOL    HW1  205   2.581  13.531   8.108
32791SOL    HW2  206   2.454  13.548   8.028
32792SOL     OW  207   4.683  13.489   7.765
32792SOL    HW1  208   4.725  13.539   7.835
32792SOL    HW2  209   4.727  13.404   7.767
32793SOL     OW  210   3.738   7.720   1.208
32793SOL    HW1  211   3.732   7.810   1.239
32793SOL    HW2  212   3.828   7.694   1.225
32794SOL     OW  213   6.429   2.448  12.954
32794SOL    HW1  214   6.476   2.368  12.933
32794SOL    HW2  215   6.441   2.459  13.049
32795SOL     OW  216   7.775  11.471   0.865
32795SOL    HW1  217   7.692  11.431   0.836
32795SOL    HW2  218   7.776  11.458   0.959
32796SOL     OW  219   3.946  11.181  14.678
32796SOL    HW1  220   3.899  11.255  14.717
32796SOL    HW2  221   3.911  11.104  14.722
32797SOL     OW  222  14.781  11.703   6.343
32797SOL    HW1  223  14.742  11.680   6.427
32797SOL    HW2  224  14.833  11.781   6.362
32798SOL     OW  225   4.250   8.156   5.389
32798SOL    HW1  226   4.276   8.156   5.481
32798SOL    HW2  227   4.183   8.224   5.382
32799SOL     OW  228   0.142  12.299   5.099
32799SOL    HW1  229   0.096  12.383   5.109
32799SOL    HW2  230   0.220  12.308   5.153
32800SOL     OW  231  11.731  11.511  14.296
32800SOL    HW1  232  11.764  11.552  14.215
32800SOL    HW2  233  11.673  11.577  14.334
32801SOL     OW  234   5.963   0.888   6.553
32801SOL    HW1  235   5.969   0.983   6.551
32801SOL    HW2  236   5.940   0.863   6.463
32802SOL     OW  237   5.485   0.197   0.277
32802SOL    HW1  238   5.466   0.125   0.337
32802SOL    HW2  239   5.580   0.200   0.272
32803SOL     OW  240  10.735   0.738   2.617
32803SOL    HW1  241  10.815   0.690   2.598
32803SOL    HW2  242  10.665   0.686   2.578
32804SOL     OW  243   1.581   4.281   6.183
32804SOL    HW1  244   1.626   4.197   6.188
32804SOL    HW2  245   1.597   4.312   6.094
32805SOL     OW  246   3.968   4.915   9.218
32805SOL    HW1  247   3.969   4.835   9.271
32805SOL    HW2  248   3.985   4.884   9.129
32806SOL     OW  249  12.576   6.450   3.570
32806SOL    HW1  250  12.488   6.445   3.533
32806SOL    HW2  251  12.630   6.398   3.510
32807SOL     OW  252  10.263   2.374   7.058
32807SOL    HW1  253  10.181   2.422   7.069
32807SOL    HW2  254  10.306   2.417   6.985
32808SOL     OW  255   0.286  12.924  11.056
32808SOL    HW1  256   0.240  12.961  11.131
32808SOL    HW2  257   0.272  12.830  11.064
32809SOL     OW  258   0.781  14.358   4.508
32809SOL    HW1  259   0.695  14.401   4.510
32809SOL    HW2  260   0.762  14.267   4.485
32810SOL     OW  261  10.532   5.720   3.960
32810SOL    HW1  262  10.493   5.680   4.038
32810SOL    HW2  263  10.560   5.647   3.906
32811SOL     OW  264   8.473   0.979   2.501
32811SOL    HW1  265   8.418   0.902   2.513
32811SOL    HW2  266   8.470   0.996   2.407
32812SOL     OW  267  10.462   2.151   8.755
32812SOL    HW1  268  10.545   2.199   8.750
32812SOL    HW2  269  10.449   2.116   8.667
32813SOL     OW  270   3.424  10.177   6.187
32813SOL    HW1  271   3.448  10.129   6.266
32813SOL    HW2  272   3.425  10.269   6.214
32814SOL     OW  273   0.670  11.862   1.141
32814SOL    HW1  274   0.576  11.850   1.156
32814SOL    HW2  275   0.681  11.844   1.047
32815SOL     OW  276   4.861  11.605   5.723
32815SOL    HW1  277   4.874  11.608   5.817
32815SOL    HW2  278   4.772  11.572   5.711
32816SOL     OW  279  11.645   3.085   6.779
32816SOL    HW1  280  11.616   3.037   6.701
32816SOL    HW2  281  11.740   3.093   6.769
32817SOL     OW  282  11.424   4.880   1.187
32817SOL    HW1  283  11.400   4.972   1.196
32817SOL    HW2  284  11.500   4.869   1.245
32818SOL     OW  285  11.895  13.580   4.906
32818SOL    HW1  286  11.896  13.487   4.885
32818SOL    HW2  287  11.814  13.593   4.955
32819SOL     OW  288   1.070   8.772   7.825
32819SOL    HW1  289   1.019   8.743   7.900
32819SOL    HW2  290   1.034   8.722   7.751
32820SOL     OW  291  13.067  12.096   7.712
32820SOL    HW1  292  13.069  12.096   7.808
32820SOL    HW2  293  13.154  12.064   7.687
32821SOL     OW  294  11.316   5.464   1.314
32821SOL    HW1  295  11.384   5.401   1.340
32821SOL    HW2  296  11.364   5.540   1.282
32822SOL     OW  297   6.259   8.032   1.514
32822SOL    HW1  298   6.348   8.060   1.493
32822SOL    HW2  299   6.270   7.953   1.566
32823SOL     OW  300   6.523   0.329   3.269
32823SOL    HW1  301   6.509   0.257   3.208
32823SOL    HW2  302   6.543   0.404   3.213
32824SOL     OW  303  10.110   3.266   4.835
32824SOL    HW1  304  10.094   3.209   4.910
32824SOL    HW2  305  10.052   3.340   4.848
32825SOL     OW  306   0.101  11.951   4.423
32825SOL    HW1  307   0.049  11.938   4.503
32825SOL    HW2  308   0.039  11.990   4.362
32826SOL     OW  309   7.496   9.368   5.856
32826SOL    HW1  310   7.454   9.336   5.935
32826SOL    HW2  311   7.437   9.434   5.822
32827SOL     OW  312  13.153  14.784   7.511
32827SOL    HW1  313  13.136  14.701   7.467
32827SOL    HW2  314  13.246  14.783   7.530
32828SOL     OW  315   7.037   0.062   6.137
32828SOL    HW1  316   7.076   0.014   6.210
32828SOL    HW2  317   7.044   0.154   6.162
32829SOL     OW  318  13.142   3.785   9.407
32829SOL    HW1  319  13.063   3.795   9.354
32829SOL    HW2  320  13.213   3.808   9.347
32830SOL     OW  321   6.877   9.368   3.618
32830SOL    HW1  322   6.919   9.345   3.701
32830SOL    HW2  323   6.848   9.284   3.582
32831SOL     OW  324   8.300  11.302   5.237
32831SOL    HW1  325   8.375  11.360   5.249
32831SOL    HW2  326   8.338  11.217   5.215
32832SOL     OW  327   8.188   4.429  13.011
32832SOL    HW1  328   8.252   4.454  13.078
32832SOL    HW2  329   8.131   4.506  13.002
32833SOL     OW  330   5.560   3.196  12.313
32833SOL    HW1  331   5.566   3.101  12.323
32833SOL    HW2  332   5.531   3.209  12.223
32834SOL     OW  333   0.258  10.991   6.904
32834SOL    HW1  334   0.317  11.045   6.957
32834SOL    HW2  335   0.203  10.947   6.968
32835SOL     OW  336   3.089   3.190   3.834
32835SOL    HW1  337   3.067   3.145   3.916
32835SOL    HW2  338   3.046   3.139   3.766
32836SOL     OW  339  13.876   8.584   8.679
32836SOL    HW1  340  13.841   8.571   8.767
32836SOL    HW2  341  13.919   8.669   8.683
32837SOL     OW  342  13.827  12.954   6.956
32837SOL    HW1  343  13.844  13.007   7.034
32837SOL    HW2  344  13.732  12.947   6.952
32838SOL     OW  345  13.304  11.197  11.107
32838SOL    HW1  346  13.240  11.235  11.047
32838SOL    HW2  347  13.377  11.171  11.051
32839SOL     OW  348  12.234   8.452   1.732
32839SOL    HW1  349  12.173   8.524   1.750
32839SOL    HW2  350  12.318   8.483   1.764
32840SOL     OW  351  11.526   5.840   6.363
32840SOL    HW1  352  11.498   5.771   6.303
32840SOL    HW2  353  11.619   5.825   6.375
32841SOL     OW  354   3.923   4.481  13.193
32841SOL    HW1  355   3.952   4.566  13.159
32841SOL    HW2  356   3.887   4.436  13.116
32842SOL     OW  357   3.957   6.759   4.923
32842SOL    HW1  358   4.003   6.832   4.883
32842SOL    HW2  359   4.025   6.695   4.942
32843SOL     OW  360   2.152   6.354   5.775
32843SOL    HW1  361   2.111   6.298   5.709
32843SOL    HW2  362   2.079   6.402   5.814
32844SOL     OW  363   1.500   3.121  12.510
32844SOL    HW1  364   1.509   3.087  12.421
32844SOL    HW2  365   1.428   3.071  12.548
32845SOL     OW  366   3.459   1.635   0.161
32845SOL    HW1  367   3.519   1.574   0.205
32845SOL    HW2  368   3.407   1.579   0.103
32846SOL     OW  369   5.572  12.391   0.328
32846SOL    HW1  370   5.608  12.473   0.294
32846SOL    HW2  371   5.487  12.381   0.284
32847SOL     OW  372  10.238  14.266   9.427
32847SOL    HW1  373  10.200  14.183   9.454
32847SOL    HW2  374  10.273  14.304   9.508
32848SOL     OW  375  14.618   5.219   9.809
32848SOL    HW1  376  14.543   5.161   9.793
32848SOL    HW2  377  14.646   5.246   9.721
32849SOL     OW  378   7.370   7.111   1.166
32849SOL    HW1  379   7.429   7.054   1.215
32849SOL    HW2  380   7.333   7.170   1.233
32850SOL     OW  381  11.139   2.383   2.249
32850SOL    HW1  382  11.114   2.331   2.173
32850SOL    HW2  383  11.068   2.370   2.311
32851SOL     OW  384   3.663   5.449   6.331
32851SOL    HW1  385   3.658   5.536   6.369
32851SOL    HW2  386   3.623   5.392   6.396
32852SOL     OW  387   2.273   0.663   4.103
32852SOL    HW1  388   2.226   0.736   4.143
32852SOL    HW2  389   2.297   0.696   4.016
32853SOL     OW  390   5.102   2.278   3.429
32853SOL    HW1  391   5.104   2.358   3.378
32853SOL    HW2  392   5.157   2.217   3.380
32854SOL     OW  393  14.424  14.772   2.364
32854SOL    HW1  394  14.454  14.686   2.393
32854SOL    HW2  395  14.492  14.833   2.394
32855SOL     OW  396   6.648   9.046   9.395
32855SOL    HW1  397   6.699   9.003   9.464
32855SOL    HW2  398   6.568   8.994   9.389
32856SOL     OW  399   1.018   1.428   3.982
32856SOL    HW1  400   1.009   1.403   3.890
32856SOL    HW2  401   1.108   1.460   3.990
32857SOL     OW  402   8.888  14.318   1.930
32857SOL    HW1  403   8.810  14.275   1.895
32857SOL    HW2  404   8.854  14.391   1.983
32858SOL     OW  405   1.429   7.706   6.349
32858SOL    HW1  406   1.450   7.676   6.260
32858SOL    HW2  407   1.462   7.796   6.351
32859SOL     OW  408   8.885   0.329   4.568
32859SOL    HW1  409   8.849   0.250   4.608
32859SOL    HW2  410   8.811   0.390   4.568
32860SOL     OW  411   0.283  10.399  14.379
32860SOL    HW1  412   0.328  10.419  14.297
32860SOL    HW2  413   0.191  10.419  14.361
32861SOL     OW  414   7.598   0.414   7.780
32861SOL    HW1  415   7.507   0.408   7.807
32861SOL    HW2  416   7.596   0.413   7.684
32862SOL     OW  417   5.706  13.584  13.601
32862SOL    HW1  418   5.719  13.505  13.548
32862SOL    HW2  419   5.635  13.631  13.557
32863SOL     OW  420   4.362   8.746   8.099
32863SOL    HW1  421   4.403   8.809   8.158
32863SOL    HW2  422   4.430   8.724   8.035
32864SOL     OW  423   2.443   8.322  13.428
32864SOL    HW1  424   2.354   8.356  13.421
32864SOL    HW2  425   2.476   8.322  13.338
32865SOL     OW  426   8.174   9.508  11.858
32865SOL    HW1  427   8.103   9.504  11.922
32865SOL    HW2  428   8.245   9.458  11.898
32866SOL     OW  429   2.644   8.412  11.162
32866SOL    HW1  430   2.715   8.349  11.169
32866SOL    HW2  431   2.569   8.369  11.204
32867SOL     OW  432   1.677   3.604   4.816
32867SOL    HW1  433   1.613   3.606   4.887
32867SOL    HW2  434   1.668   3.689   4.773
32868SOL     OW  435  14.430   7.301   0.264
32868SOL    HW1  436  14.370   7.349   0.321
32868SOL    HW2  437  14.415   7.338   0.177
32869SOL     OW  438   2.082   3.547  13.733
32869SOL    HW1  439   2.102   3.627  13.686
32869SOL    HW2  440   1.986   3.541  13.732
32870SOL     OW  441   6.146   6.572   7.176
32870SOL    HW1  442   6.154   6.618   7.260
32870SOL    HW2  443   6.231   6.584   7.134
32871SOL     OW  444   1.599   6.792  13.776
32871SOL    HW1  445   1.644   6.755  13.700
32871SOL    HW2  446   1.647   6.872  13.797
32872SOL     OW  447  11.577   1.091   9.508
32872SOL    HW1  448  11.517   1.165   9.514
32872SOL    HW2  449  11.532   1.028   9.452
32873SOL     OW  450  12.679   3.180   6.507
32873SOL    HW1  451  12.675   3.252   6.445
32873SOL    HW2  452  12.651   3.218   6.590
32874SOL     OW  453   9.333   3.523   4.412
32874SOL    HW1  454   9.330   3.467   4.334
32874SOL    HW2  455   9.249   3.570   4.411
32875SOL     OW  456   2.941  11.317  13.485
32875SOL    HW1  457   3.014  11.310  13.423
32875SOL    HW2  458   2.943  11.409  13.512
32876SOL     OW  459   5.263   8.675   6.090
32876SOL    HW1  460   5.184   8.655   6.039
32876SOL    HW2  461   5.320   8.600   6.077
32877SOL     OW  462  12.588  12.956   3.558
32877SOL    HW1  463  12.550  12.927   3.641
32877SOL    HW2  464  12.537  13.033   3.533
32878SOL     OW  465   1.961  12.685   9.460
32878SOL    HW1  466   1.995  12.755   9.515
32878SOL    HW2  467   1.866  12.693   9.467
32879SOL     OW  468   9.476   2.269   5.334
32879SOL    HW1  469   9.397   2.235   5.292
32879SOL    HW2  470   9.446   2.304   5.418
32880SOL     OW  471   8.227   1.141  12.404
32880SOL    HW1  472   8.314   1.165  12.436
32880SOL    HW2  473   8.221   1.180  12.317
32881SOL     OW  474   4.693  12.592  13.324
32881SOL    HW1  475   4.714  12.562  13.236
32881SOL    HW2  476   4.754  12.664  13.341
32882SOL     OW  477  12.699  10.315   4.648
32882SOL    HW1  478  12.686  10.237   4.593
32882SOL    HW2  479  12.711  10.281   4.736
32883SOL     OW  480   5.706   6.615   5.071
32883SOL    HW1  481   5.769   6.551   5.104
32883SOL    HW2  482   5.670   6.657   5.150
32884SOL     OW  483   8.187  12.143   3.085
32884SOL    HW1  484   8.238  12.125   3.006
32884SOL    HW2  485   8.252  12.158   3.153
32885SOL     OW  486   0.611   6.594   4.915
32885SOL    HW1  487   0.680   6.591   4.981
32885SOL    HW2  488   0.607   6.505   4.881
32886SOL     OW  489  11.802   4.448   1.876
32886SOL    HW1  490  11.775   4.356   1.868
32886SOL    HW2  491  11.834   4.456   1.965
32887SOL     OW  492  10.426   1.343  12.318
32887SOL    HW1  493  10.446   1.424  12.272
32887SOL    HW2  494  10.343   1.361  12.364
32888SOL     OW  495   4.425   2.979   7.190
32888SOL    HW1  496   4.487   3.016   7.253
32888SOL    HW2  497   4.393   2.899   7.231
32889SOL     OW  498   2.666   2.472  10.070
32889SOL    HW1  499   2.657   2.400  10.132
32889SOL    HW2  500   2.597   2.456  10.006
32890SOL     OW  501  12.302   7.998   1.246
32890SOL    HW1  502  12.259   8.083   1.234
32890SOL    HW2  503  12.266   7.964   1.327
32891SOL     OW  504   2.263   9.082  13.870
32891SOL    HW1  505   2.275   8.994  13.834
32891SOL    HW2  506   2.203   9.070  13.943
32892SOL     OW  507  12.145   2.335  11.805
32892SOL    HW1  508  12.070   2.289  11.841
32892SOL    HW2  509  12.217   2.316  11.866
32893SOL     OW  510   7.120   4.844   5.172
32893SOL    HW1  511   7.082   4.790   5.241
32893SOL    HW2  512   7.197   4.884   5.212
32894SOL     OW  513   2.142  12.020  13.105
32894SOL    HW1  514   2.049  12.035  13.123
32894SOL    HW2  515   2.143  11.960  13.031
32895SOL     OW  516  14.005  13.442  11.288
32895SOL    HW1  517  13.933  13.396  11.330
32895SOL    HW2  518  14.081  13.424  11.344
32896SOL     OW  519  11.816   0.910   7.134
32896SOL    HW1  520  11.894   0.863   7.102
32896SOL    HW2  521  11.849   0.966   7.204
32897SOL     OW  522  11.743   4.707   5.087
32897SOL    HW1  523  11.695   4.640   5.135
32897SOL    HW2  524  11.833   4.674   5.082
32898SOL     OW  525   6.391  10.991  12.247
32898SOL    HW1  526   6.305  11.030  12.231
32898SOL    HW2  527   6.380  10.943  12.329
32899SOL     OW  528   5.787   0.919   6.780
32899SOL    HW1  529   5.850   0.887   6.844
32899SOL    HW2  530   5.826   0.901   6.695
32900SOL     OW  531   5.982   6.678   2.677
32900SOL    HW1  532   5.972   6.772   2.692
32900SOL    HW2  533   5.979   6.640   2.765
32901SOL     OW  534   8.958   2.639  14.057
32901SOL    HW1  535   8.935   2.644  14.149
32901SOL    HW2  536   8.881   2.673  14.011
32902SOL     OW  537   2.884   3.645  11.230
32902SOL    HW1  538   2.947   3.583  11.267
32902SOL    HW2  539   2.813   3.591  11.196
32903SOL     OW  540  14.800   5.105   7.182
32903SOL    HW1  541  14.875   5.047   7.196
32903SOL    HW2  542  14.837   5.192   7.179
32904SOL     OW  543  14.318   0.759  12.294
32904SOL    HW1  544  14.369   0.679  12.280
32904SOL    HW2  545  14.233   0.728  12.325
32905SOL     OW  546   0.737   1.625  13.621
32905SOL    HW1  547   0.731   1.716  13.648
32905SOL    HW2  548   0.703   1.624  13.531
32906SOL     OW  549   2.920   5.545  10.754
32906SOL    HW1  550   2.964   5.629  10.743
32906SOL    HW2  551   2.990   5.486  10.782
32907SOL     OW  552   9.965   9.581   0.040
32907SOL    HW1  553   9.989   9.505   0.093
32907SOL    HW2  554   9.930   9.644   0.102
32908SOL     OW  555   9.898  10.020   1.731
32908SOL    HW1  556   9.815   9.975   1.719
32908SOL    HW2  557   9.916  10.060   1.646
32909SOL     OW  558   1.923   1.837   7.727
32909SOL    HW1  559   1.873   1.865   7.804
32909SOL    HW2  560   1.917   1.911   7.667
32910SOL     OW  561  10.130   3.415  12.673
32910SOL    HW1  562  10.200   3.470  12.637
32910SOL    HW2  563  10.176   3.350  12.726
32911SOL     OW  564  10.107   7.752   4.178
32911SOL    HW1  565  10.020   7.789   4.191
32911SOL    HW2  566  10.157   7.822   4.137
32912SOL     OW  567   9.909  14.576  10.937
32912SOL    HW1  568   9.877  14.593  11.026
32912SOL    HW2  569   9.992  14.623  10.932
32913SOL     OW  570   5.596   2.608   8.670
32913SOL    HW1  571   5.547   2.526   8.677
32913SOL    HW2  572   5.640   2.617   8.755
32914SOL     OW  573  13.550   0.959   1.142
32914SOL    HW1  574  13.576   0.969   1.050
32914SOL    HW2  575  13.513   0.871   1.147
32915SOL     OW  576   4.302   3.402  14.432
32915SOL    HW1  577   4.313   3.357  14.348
32915SOL    HW2  578   4.210   3.390  14.454
32916SOL     OW  579  13.152   2.018   4.681
32916SOL    HW1  580  13.101   1.945   4.715
32916SOL    HW2  581  13.105   2.096   4.711
32917SOL     OW  582   1.797   1.762   5.133
32917SOL    HW1  583   1.867   1.706   5.165
32917SOL    HW2  584   1.716   1.713   5.151
32918SOL     OW  585   0.902   3.224   1.213
32918SOL    HW1  586   0.819   3.177   1.209
32918SOL    HW2  587   0.946   3.187   1.290
32919SOL     OW  588   3.113   1.550   7.022
32919SOL    HW1  589   3.073   1.548   7.109
32919SOL    HW2  590   3.197   1.595   7.035
32920SOL     OW  591   1.200   9.996   6.326
32920SOL    HW1  592   1.182   9.908   6.294
32920SOL    HW2  593   1.168   9.996   6.417
32921SOL     OW  594   6.689   2.072  12.125
32921SOL    HW1  595   6.774   2.096  12.163
32921SOL    HW2  596   6.668   2.145  12.067
32922SOL     OW  597   2.610  12.542   9.597
32922SOL    HW1  598   2.601  12.590   9.515
32922SOL    HW2  599   2.543  12.474   9.593
32923SOL     OW  600   4.266   5.234   1.920
32923SOL    HW1  601   4.304   5.162   1.871
32923SOL    HW2  602   4.180   5.202   1.947
32924SOL     OW  603  12.016  11.754  11.756
32924SOL    HW1  604  12.071  11.677  11.768
32924SOL    HW2  605  12.052  11.819  11.816
32925SOL     OW  606   9.624   4.399  14.108
32925SOL    HW1  607   9.652   4.436  14.024
32925SOL    HW2  608   9.528   4.405  14.106
32926SOL     OW  609   4.601  14.199   0.211
32926SOL    HW1  610   4.642  14.209   0.125
32926SOL    HW2  611   4.512  14.169   0.193
32927SOL     OW  612   0.608  12.666   2.233
32927SOL    HW1  613   0.607  12.611   2.312
32927SOL    HW2  614   0.673  12.734   2.252
32928SOL     OW  615   4.459  14.350  13.797
32928SOL    HW1  616   4.433  14.417  13.859
32928SOL    HW2  617   4.444  14.267  13.843
32929SOL     OW  618   0.215  14.712   5.723
32929SOL    HW1  619   0.230  14.618   5.714
32929SOL    HW2  620   0.246  14.733   5.811
32930SOL     OW  621  10.835   5.968  14.485
32930SOL    HW1  622  10.741   5.985  14.494
32930SOL    HW2  623  10.870   6.050  14.451
32931SOL     OW  624   2.249   0.939   0.870
32931SOL    HW1  625   2.163   0.980   0.876
32931SOL    HW2  626   2.249   0.894   0.786
32932SOL     OW  627   9.642  10.477  13.210
32932SOL    HW1  628   9.603  10.537  13.147
32932SOL    HW2  629   9.668  10.533  13.283
32933SOL     OW  630  13.793   8.580   6.750
32933SOL    HW1  631  13.879   8.610   6.719
32933SOL    HW2  632  13.774   8.503   6.696
32934SOL     OW  633   0.211   3.947   3.590
32934SOL    HW1  634   0.194   4.038   3.614
32934SOL    HW2  635   0.171   3.896   3.660
32935SOL     OW  636   7.405  13.413   2.797
32935SOL    HW1  637   7.341  13.442   2.732
32935SOL    HW2  638   7.381  13.322   2.816
32936SOL     OW  639   9.404   6.163   6.022
32936SOL    HW1  640   9.354   6.199   5.949
32936SOL    HW2  641   9.477   6.224   6.034
32937SOL     OW  642   3.210   8.449   4.900
32937SOL    HW1  643   3.214   8.539   4.866
32937SOL    HW2  644   3.125   8.416   4.870
32938SOL     OW  645   5.410   2.667   2.405
32938SOL    HW1  646   5.469   2.727   2.452
32938SOL    HW2  647   5.421   2.583   2.449
32939SOL     OW  648   3.372   7.538   9.637
32939SOL    HW1  649   3.288   7.558   9.678
32939SOL    HW2  650   3.419   7.487   9.703
32940SOL     OW  651   3.292   1.004   9.388
32940SOL    HW1  652   3.361   0.937   9.386
32940SOL    HW2  653   3.338   1.085   9.406
32941SOL     OW  654   2.588   2.223   7.262
32941SOL    HW1  655   2.645   2.165   7.212
32941SOL    HW2  656   2.526   2.257   7.198
32942SOL     OW  657  11.843   7.013   1.177
32942SOL    HW1  658  11.916   6.959   1.147
32942SOL    HW2  659  11.850   7.011   1.272
32943SOL     OW  660   1.646   5.207  13.446
32943SOL    HW1  661   1.647   5.219  13.541
32943SOL    HW2  662   1.724   5.252  13.415
32944SOL     OW  663   2.418  11.041   6.786
32944SOL    HW1  664   2.337  11.055   6.835
32944SOL    HW2  665   2.389  11.021   6.697
32945SOL     OW  666   7.176  13.827   4.137
32945SOL    HW1  667   7.178  13.922   4.138
32945SOL    HW2  668   7.263  13.801   4.107
32946SOL     OW  669   6.054   4.391   5.281
32946SOL    HW1  670   5.997   4.465   5.302
32946SOL    HW2  671   6.124   4.430   5.228
32947SOL     OW  672   0.262   6.571   7.457
32947SOL    HW1  673   0.205   6.646   7.469
32947SOL    HW2  674   0.214   6.497   7.495
32948SOL     OW  675   9.225   5.950   7.996
32948SOL    HW1  676   9.210   5.856   7.983
32948SOL    HW2  677   9.175   5.972   8.074
32949SOL     OW  678   7.092  10.547   8.805
32949SOL    HW1  679   7.039  10.470   8.784
32949SOL    HW2  680   7.181  10.514   8.811
32950SOL     OW  681   7.468   7.795   5.137
32950SOL    HW1  682   7.444   7.882   5.106
32950SOL    HW2  683   7.492   7.807   5.229
32951SOL     OW  684   5.298  13.312   8.515
32951SOL    HW1  685   5.258  13.277   8.435
32951SOL    HW2  686   5.259  13.399   8.525
32952SOL     OW  687   4.277   9.838   8.046
32952SOL    HW1  688   4.321   9.813   7.965
32952SOL    HW2  689   4.322   9.790   8.114
32953SOL     OW  690   6.899   8.109  13.154
32953SOL    HW1  691   6.862   8.196  13.171
32953SOL    HW2  692   6.935   8.115  13.066
32954SOL     OW  693   2.400   9.448   7.902
32954SOL    HW1  694   2.407   9.395   7.982
32954SOL    HW2  695   2.470   9.416   7.846
32955SOL     OW  696  12.997   4.008   1.117
32955SOL    HW1  697  13.079   4.010   1.068
32955SOL    HW2  698  13.023   4.021   1.208
32956SOL     OW  699  14.107   9.844   2.050
32956SOL    HW1  700  14.106   9.939   2.038
32956SOL    HW2  701  14.055   9.810   1.977
32957SOL     OW  702  13.214   6.512   1.086
32957SOL    HW1  703  13.220   6.418   1.069
32957SOL    HW2  704  13.141   6.542   1.032
32958SOL     OW  705   0.074   3.758   2.070
32958SOL    HW1  706   0.103   3.818   2.001
32958SOL    HW2  707   0.086   3.671   2.032
32959SOL     OW  708   3.529   0.876   9.298
32959SOL    HW1  709   3.589   0.923   9.355
32959SOL    HW2  710   3.515   0.935   9.224
32960SOL     OW  711   1.282   2.294   2.998
32960SOL    HW1  712   1.308   2.379   3.032
32960SOL    HW2  713   1.334   2.283   2.919
32961SOL     OW  714   5.199   8.169   7.028
32961SOL    HW1  715   5.152   8.086   7.033
32961SOL    HW2  716   5.202   8.189   6.934
32962SOL     OW  717   4.611   0.665   7.217
32962SOL    HW1  718   4.548   0.620   7.274
32962SOL    HW2  719   4.580   0.756   7.215
32963SOL     OW  720   7.322   0.287   3.317
32963SOL    HW1  721   7.371   0.257   3.240
32963SOL    HW2  722   7.369   0.364   3.347
32964SOL     OW  723   9.985   8.110   3.927
32964SOL    HW1  724  10.025   8.167   3.862
32964SOL    HW2  725   9.893   8.103   3.899
32965SOL     OW  726  13.898  10.306  10.914
32965SOL    HW1  727  13.983  10.262  10.908
32965SOL    HW2  728  13.863  10.302  10.825
32966SOL     OW  729  10.266   8.519   0.815
32966SOL    HW1  730  10.332   8.528   0.746
32966SOL    HW2  731  10.239   8.609   0.834
32967SOL     OW  732   7.695  10.591   6.529
32967SOL    HW1  733   7.628  10.530   6.560
32967SOL    HW2  734   7.645  10.668   6.501
32968SOL     OW  735   5.672   7.206   1.087
32968SOL    HW1  736   5.674   7.210   1.183
32968SOL    HW2  737   5.640   7.118   1.068
32969SOL     OW  738   8.898   6.758   2.235
32969SOL    HW1  739   8.856   6.807   2.165
32969SOL    HW2  740   8.866   6.798   2.315
32970SOL     OW  741  12.829   6.009   3.382
32970SOL    HW1  742  12.879   6.055   3.314
32970SOL    HW2  743  12.748   5.984   3.340
32971SOL     OW  744   4.605   6.113   3.647
32971SOL    HW1  745   4.622   6.083   3.558
32971SOL    HW2  746   4.646   6.046   3.703
32972SOL     OW  747  14.041   4.435  13.136
32972SOL    HW1  748  14.129   4.437  13.100
32972SOL    HW2  749  14.031   4.518  13.182
32973SOL     OW  750  13.779   7.312   5.240
32973SOL    HW1  751  13.767   7.373   5.167
32973SOL    HW2  752  13.866   7.334   5.274
32974SOL     OW  753   9.675  12.205   3.692
32974SOL    HW1  754   9.580  12.189   3.694
32974SOL    HW2  755   9.698  12.197   3.600
32975SOL     OW  756  12.860   9.122  11.064
32975SOL    HW1  757  12.803   9.089  10.995
32975SOL    HW2  758  12.803   9.135  11.139
32976SOL     OW  759  14.587   3.943  14.054
32976SOL    HW1  760  14.562   4.016  14.111
32976SOL    HW2  761  14.542   3.867  14.091
32977SOL     OW  762   5.656  10.009   9.173
32977SOL    HW1  763   5.628   9.933   9.225
32977SOL    HW2  764   5.576  10.040   9.130
32978SOL     OW  765  13.364   7.798  11.421
32978SOL    HW1  766  13.414   7.740  11.364
32978SOL    HW2  767  13.364   7.882  11.376
32979SOL     OW  768   2.494   0.921   1.576
32979SOL    HW1  769   2.472   0.996   1.520
32979SOL    HW2  770   2.419   0.914   1.636
32980SOL     OW  771   5.326  14.367  13.794
32980SOL    HW1  772   5.343  14.299  13.728
32980SOL    HW2  773   5.414  14.396  13.821
32981SOL     OW  774  13.579  10.101  10.836
32981SOL    HW1  775  13.618  10.058  10.912
32981SOL    HW2  776  13.497  10.053  10.822
32982SOL     OW  777  10.890  14.301   4.925
32982SOL    HW1  778  10.908  14.304   5.019
32982SOL    HW2  779  10.812  14.246   4.918
32983SOL     OW  780   2.671  14.784  12.979
32983SOL    HW1  781   2.596  14.836  13.008
32983SOL    HW2  782   2.671  14.708  13.038
32984SOL     OW  783   9.634   9.262   7.013
32984SOL    HW1  784   9.624   9.226   7.102
32984SOL    HW2  785   9.621   9.356   7.024
32985SOL     OW  786   2.935   1.940   5.083
32985SOL    HW1  787   2.927   1.992   5.164
32985SOL    HW2  788   2.961   2.004   5.017
32986SOL     OW  789   7.907   1.222   3.709
32986SOL    HW1  790   7.907   1.300   3.654
32986SOL    HW2  791   7.834   1.235   3.770
32987SOL     OW  792  14.316   2.561   7.760
32987SOL    HW1  793  14.306   2.470   7.731
32987SOL    HW2  794  14.407   2.566   7.792
32988SOL     OW  795  12.056  10.492   0.810
32988SOL    HW1  796  11.984  10.491   0.747
32988SOL    HW2  797  12.062  10.401   0.841
32989SOL     OW  798  13.339   7.173   5.718
32989SOL    HW1  799  13.255   7.209   5.689
32989SOL    HW2  800  13.403   7.203   5.653
32990SOL     OW  801   2.834   5.528   3.623
32990SOL    HW1  802   2.764   5.465   3.640
32990SOL    HW2  803   2.862   5.509   3.533
32991SOL     OW  804  11.910   1.700   1.083
32991SOL    HW1  805  11.945   1.628   1.030
32991SOL    HW2  806  11.897   1.771   1.020
32992SOL     OW  807   7.814   1.914   1.699
32992SOL    HW1  808   7.753   1.893   1.628
32992SOL    HW2  809   7.757   1.942   1.771
32993SOL     OW  810  12.025   4.609   2.222
32993SOL    HW1  811  12.112   4.606   2.261
32993SOL    HW2  812  12.040   4.640   2.133
32994SOL     OW  813   3.044  11.576   3.850
32994SOL    HW1  814   3.037  11.522   3.771
32994SOL    HW2  815   3.138  11.591   3.861
32995SOL     OW  816   1.653   2.466   5.150
32995SOL    HW1  817   1.677   2.500   5.236
32995SOL    HW2  818   1.709   2.513   5.089
32996SOL     OW  819   1.203  13.710  12.455
32996SOL    HW1  820   1.254  13.707  12.374
32996SOL    HW2  821   1.131  13.770  12.435
32997SOL     OW  822   9.324  12.495  13.312
32997SOL    HW1  823   9.363  12.544  13.384
32997SOL    HW2  824   9.383  12.512  13.238
32998SOL     OW  825  13.752   3.834  12.589
32998SOL    HW1  826  13.827   3.779  12.564
32998SOL    HW2  827  13.749   3.902  12.522
32999SOL     OW  828  13.788   5.409   5.312
32999SOL    HW1  829  13.852   5.367   5.370
32999SOL    HW2  830  13.757   5.484   5.362
33000SOL     OW  831   8.622  11.863  13.879
33000SOL    HW1  832   8.572  11.944  13.869
33000SOL    HW2  833   8.570  11.810  13.940
33001SOL     OW  834  10.841   1.000   2.883
33001SOL    HW1  835  10.827   1.087   2.845
33001SOL    HW2  836  10.753   0.963   2.889
33002SOL     OW  837   8.906   6.617  12.001
33002SOL    HW1  838   8.870   6.571  12.076
33002SOL    HW2  839   8.889   6.558  11.927
33003SOL     OW  840  10.331  11.533  11.521
33003SOL    HW1  841  10.413  11.532  11.570
33003SOL    HW2  842  10.281  11.459  11.558
33004SOL     OW  843   5.647   1.127   5.569
33004SOL    HW1  844   5.662   1.144   5.476
33004SOL    HW2  845   5.624   1.034   5.573
33005SOL     OW  846   4.700  11.757   4.194
33005SOL    HW1  847   4.637  11.797   4.133
33005SOL    HW2  848   4.764  11.714   4.138
33006SOL     OW  849  13.964   4.383   6.221
33006SOL    HW1  850  13.905   4.427   6.159
33006SOL    HW2  851  13.924   4.397   6.306
33007SOL     OW  852   3.129   3.783   5.856
33007SOL    HW1  853   3.048   3.831   5.877
33007SOL    HW2  854   3.199   3.842   5.881
33008SOL     OW  855   8.620   2.324   3.629
33008SOL    HW1  856   8.653   2.304   3.717
33008SOL    HW2  857   8.635   2.244   3.579
33009SOL     OW  858  11.311  10.255   2.816
33009SOL    HW1  859  11.231  10.258   2.763
33009SOL    HW2  860  11.304  10.332   2.873
33010SOL     OW  861  12.509  11.013   6.989
33010SOL    HW1  862  12.562  10.999   6.911
33010SOL    HW2  863  12.528  11.103   7.016
33011SOL     OW  864  12.919  14.322   8.520
33011SOL    HW1  865  12.951  14.406   8.486
33011SOL    HW2  866  12.976  14.304   8.595
33012SOL     OW  867   7.340  14.060   6.218
33012SOL    HW1  868   7.353  14.017   6.133
33012SOL    HW2  869   7.258  14.024   6.251
33013SOL     OW  870  13.410   9.426  11.204
33013SOL    HW1  871  13.419   9.339  11.244
33013SOL    HW2  872  13.323   9.425  11.164
33014SOL     OW  873  14.407  12.751  10.810
33014SOL    HW1  874  14.390  12.809  10.736
33014SOL    HW2  875  14.498  12.723  10.798
33015SOL     OW  876   2.735   7.426   2.878
33015SOL    HW1  877   2.660   7.463   2.924
33015SOL    HW2  878   2.724   7.455   2.787
33016SOL     OW  879  12.979  11.342   7.993
33016SOL    HW1  880  12.985  11.248   7.977
33016SOL    HW2  881  13.013  11.382   7.913
33017SOL     OW  882   0.424  12.834  10.708
33017SOL    HW1  883   0.497  12.801  10.655
33017SOL    HW2  884   0.347  12.821  10.653
33018SOL     OW  885  10.387   0.409   0.375
33018SOL    HW1  886  10.336   0.489   0.375
33018SOL    HW2  887  10.413   0.396   0.284
33019SOL     OW  888   8.409   6.406   8.830
33019SOL    HW1  889   8.505   6.407   8.837
33019SOL    HW2  890   8.378   6.416   8.920
33020SOL     OW  891   5.317   0.847  13.519
33020SOL    HW1  892   5.368   0.767  13.505
33020SOL    HW2  893   5.293   0.875  13.431
33021SOL     OW  894   8.105   5.747   9.352
33021SOL    HW1  895   8.023   5.722   9.395
33021SOL    HW2  896   8.092   5.839   9.329
33022SOL     OW  897  11.860   9.136   5.690
33022SOL    HW1  898  11.898   9.062   5.738
33022SOL    HW2  899  11.824   9.097   5.611
33023SOL     OW  900  13.334   7.146   0.920
33023SOL    HW1  901  13.331   7.089   0.843
33023SOL    HW2  902  13.412   7.200   0.907
33024SOL     OW  903   8.758   9.742  11.290
33024SOL    HW1  904   8.801   9.718  11.208
33024SOL    HW2  905   8.774   9.668  11.348
33025SOL     OW  906  14.688   7.930   8.328
33025SOL    HW1  907  14.711   7.845   8.366
33025SOL    HW2  908  14.604   7.953   8.369
33026SOL     OW  909   0.618  14.396   1.686
33026SOL    HW1  910   0.685  14.464   1.690
33026SOL    HW2  911   0.613  14.372   1.594
33027SOL     OW  912  11.331  11.687   0.955
33027SOL    HW1  913  11.306  11.614   1.012
33027SOL    HW2  914  11.247  11.721   0.923
33028SOL     OW  915  14.690   8.769   2.226
33028SOL    HW1  916  14.689   8.813   2.311
33028SOL    HW2  917  14.626   8.817   2.173
33029SOL     OW  918   8.235  13.750   8.871
33029SOL    HW1  919   8.321  13.711   8.855
33029SOL    HW2  920   8.172  13.679   8.857
33030SOL     OW  921   2.935  11.616  12.233
33030SOL    HW1  922   2.850  11.659  12.222
33030SOL    HW2  923   2.913  11.526  12.257
33031SOL     OW  924  11.139  10.302   3.988
33031SOL    HW1  925  11.134  10.222   4.039
33031SOL    HW2  926  11.230  10.307   3.960
33032SOL     OW  927   1.855   5.826   0.393
33032SOL    HW1  928   1.890   5.851   0.307
33032SOL    HW2  929   1.778   5.773   0.373
33033SOL     OW  930   9.054   0.302   7.391
33033SOL    HW1  931   9.000   0.372   7.355
33033SOL    HW2  932   9.103   0.343   7.462
33034SOL     OW  933  10.810   5.715  10.685
33034SOL    HW1  934  10.874   5.646  10.671
33034SOL    HW2  935  10.854   5.778  10.743
33035SOL     OW  936  14.784   6.986   2.243
33035SOL    HW1  937  14.814   7.021   2.327
33035SOL    HW2  938  14.815   7.049   2.178
33036SOL     OW  939  10.974  13.104  10.454
33036SOL    HW1  940  10.969  13.172  10.522
33036SOL    HW2  941  10.886  13.103  10.416
33037SOL     OW  942   0.870   7.656  14.631
33037SOL    HW1  943   0.798   7.718  14.620
33037SOL    HW2  944   0.900   7.639  14.541
33038SOL     OW  945  12.802   8.932   5.972
33038SOL    HW1  946  12.712   8.944   6.003
33038SOL    HW2  947  12.792   8.903   5.882
33039SOL     OW  948   2.790  10.503  11.890
33039SOL    HW1  949   2.733  10.536  11.821
33039SOL    HW2  950   2.818  10.417  11.859
33040SOL     OW  951   4.043   5.424  11.928
33040SOL    HW1  952   3.991   5.504  11.937
33040SOL    HW2  953   4.120   5.438  11.982
33041SOL     OW  954   9.247  12.645   8.910
33041SOL    HW1  955   9.281  12.734   8.918
33041SOL    HW2  956   9.324  12.590   8.900
33042SOL     OW  957   7.368   0.331   0.128
33042SOL    HW1  958   7.361   0.427   0.134
33042SOL    HW2  959   7.303   0.299   0.190
33043SOL     OW  960  12.570   6.793   7.031
33043SOL    HW1  961  12.503   6.727   7.014
33043SOL    HW2  962  12.571   6.847   6.952
33044SOL     OW  963  13.410  11.923  14.700
33044SOL    HW1  964  13.459  11.968  14.769
33044SOL    HW2  965  13.477  11.900  14.635
33045SOL     OW  966   6.245  10.741   5.076
33045SOL    HW1  967   6.249  10.647   5.093
33045SOL    HW2  968   6.231  10.748   4.982
33046SOL     OW  969  14.271   3.459  10.907
33046SOL    HW1  970  14.296   3.366  10.914
33046SOL    HW2  971  14.306   3.487  10.823
33047SOL     OW  972   6.660   2.342   2.215
33047SOL    HW1  973   6.690   2.272   2.272
33047SOL    HW2  974   6.610   2.400   2.273
33048SOL     OW  975  14.501  14.274   3.438
33048SOL    HW1  976  14.466  14.338   3.501
33048SOL    HW2  977  14.558  14.326   3.381
33049SOL     OW  978   3.318   1.769  13.081
33049SOL    HW1  979   3.385   1.705  13.105
33049SOL    HW2  980   3.318   1.770  12.985
33050SOL     OW  981   7.546  13.898  13.279
33050SOL    HW1  982   7.584  13.856  13.203
33050SOL    HW2  983   7.483  13.961  13.243
33051SOL     OW  984   7.045   6.768   8.768
33051SOL    HW1  985   7.052   6.736   8.858
33051SOL    HW2  986   6.951   6.783   8.755
33052SOL     OW  987  13.079   6.796  12.933
33052SOL    HW1  988  13.048   6.717  12.976
33052SOL    HW2  989  13.013   6.814  12.865
33053SOL     OW  990   3.999  12.935   1.051
33053SOL    HW1  991   3.912  12.896   1.050
33053SOL    HW2  992   4.026  12.933   1.143
33054SOL     OW  993  10.014   8.117   1.414
33054SOL    HW1  994  10.069   8.147   1.487
33054SOL    HW2  995  10.062   8.143   1.336
33055SOL     OW  996   5.600  11.951   6.092
33055SOL    HW1  997   5.582  12.034   6.048
33055SOL    HW2  998   5.646  11.898   6.027
33056SOL     OW  999   1.448   2.694  14.689
33056SOL    HW1 1000   1.445   2.631  14.618
33056SOL    HW2 1001   1.513   2.660  14.750
33057SOL     OW 1002  12.578  12.567  13.676
33057SOL    HW1 1003  12.572  12.612  13.760
33057SOL    HW2 1004  12.516  12.494  13.684
33058SOL     OW 1005   8.159   6.285   1.067
33058SOL    HW1 1006   8.092   6.316   1.005
33058SOL    HW2 1007   8.222   6.240   1.012
33059SOL     OW 1008  10.985  10.958   2.761
33059SOL    HW1 1009  10.919  10.923   2.702
33059SOL    HW2 1010  11.054  10.892   2.762
33060SOL     OW 1011   5.579   0.822   2.561
33060SOL    HW1 1012   5.527   0.898   2.533
33060SOL    HW2 1013   5.669   0.843   2.535
33061SOL     OW 1014  11.571   9.171  12.014
33061SOL    HW1 1015  11.552   9.170  12.108
33061SOL    HW2 1016  11.523   9.246  11.981
33062SOL     OW 1017   9.789   9.981   6.166
33062SOL    HW1 1018   9.766  10.071   6.146
33062SOL    HW2 1019   9.742   9.929   6.101
33063SOL     OW 1020   2.693   7.103  10.645
33063SOL    HW1 1021   2.645   7.032  10.688
33063SOL    HW2 1022   2.774   7.111  10.696
33064SOL     OW 1023   3.227   5.658   5.683
33064SOL    HW1 1024   3.150   5.707   5.655
33064SOL    HW2 1025   3.279   5.721   5.734
33065SOL     OW 1026  10.186   6.168   9.666
33065SOL    HW1 1027  10.265   6.212   9.634
33065SOL    HW2 1028  10.218   6.093   9.717
33066SOL     OW 1029   7.343   4.796  13.473
33066SOL    HW1 1030   7.266   4.851  13.458
33066SOL    HW2 1031   7.368   4.765  13.386
33067SOL     OW 1032   2.716  13.580  11.924
33067SOL    HW1 1033   2.775  13.605  11.853
33067SOL    HW2 1034   2.768  13.590  12.004
33068SOL     OW 1035   6.239   6.881  10.315
33068SOL    HW1 1036   6.300   6.953  10.295
33068SOL    HW2 1037   6.275   6.840  10.394
33069SOL     OW 1038   3.498   8.536   6.191
33069SOL    HW1 1039   3.409   8.529   6.155
33069SOL    HW2 1040   3.498   8.477   6.266
33070SOL     OW 1041   8.069   7.218  12.458
33070SOL    HW1 1042   8.163   7.210  12.442
33070SOL    HW2 1043   8.049   7.146  12.517
33071SOL     OW 1044   1.242   2.441  12.382
33071SOL    HW1 1045   1.294   2.382  12.436
33071SOL    HW2 1046   1.222   2.514  12.441
33072SOL     OW 1047  12.936  14.653  12.444
33072SOL    HW1 1048  12.862  14.622  12.497
33072SOL    HW2 1049  12.900  14.662  12.356
33073SOL     OW 1050   1.772  14.467   5.594
33073SOL    HW1 1051   1.775  14.371   5.599
33073SOL    HW2 1052   1.851  14.495   5.640
33074SOL     OW 1053   2.531   8.672   5.633
33074SOL    HW1 1054   2.612   8.661   5.582
33074SOL    HW2 1055   2.561   8.671   5.724
33075SOL     OW 1056  10.170  12.397  13.380
33075SOL    HW1 1057  10.129  12.311  13.394
33075SOL    HW2 1058  10.127  12.454  13.443
33076SOL     OW 1059   3.299  11.844   5.819
33076SOL    HW1 1060   3.275  11.754   5.837
33076SOL    HW2 1061   3.220  11.885   5.784
33077SOL     OW 1062   0.223   6.262  10.358
33077SOL    HW1 1063   0.149   6.296  10.307
33077SOL    HW2 1064   0.294   6.324  10.342
33078SOL     OW 1065  12.699  14.608   2.253
33078SOL    HW1 1066  12.712  14.523   2.210
33078SOL    HW2 1067  12.722  14.672   2.187
33079SOL     OW 1068   1.959   6.318   3.569
33079SOL    HW1 1069   1.894   6.274   3.624
33079SOL    HW2 1070   2.020   6.358   3.632
33080SOL     OW 1071  12.182   5.267   4.598
33080SOL    HW1 1072  12.239   5.271   4.675
33080SOL    HW2 1073  12.094   5.283   4.632
33081SOL     OW 1074   2.761   4.166   0.499
33081SOL    HW1 1075   2.705   4.242   0.489
33081SOL    HW2 1076   2.850   4.202   0.495
33082SOL     OW 1077  13.213  12.174   8.428
33082SOL    HW1 1078  13.206  12.192   8.334
33082SOL    HW2 1079  13.308  12.176   8.445
33083SOL     OW 1080  14.832  13.684   9.804
33083SOL    HW1 1081  14.861  13.655   9.891
33083SOL    HW2 1082   0.022  13.747   9.776
33084SOL     OW 1083  13.669   9.209   5.267
33084SOL    HW1 1084  13.742   9.212   5.328
33084SOL    HW2 1085  13.657   9.116   5.247
33085SOL     OW 1086   2.830  14.875   8.997
33085SOL    HW1 1087   2.848   0.084   8.957
33085SOL    HW2 1088   2.878  14.812   8.942
33086SOL     OW 1089   6.174   2.319  10.247
33086SOL    HW1 1090   6.134   2.235  10.226
33086SOL    HW2 1091   6.134   2.345  10.330
33087SOL     OW 1092   0.741   5.661   4.093
33087SOL    HW1 1093   0.734   5.591   4.158
33087SOL    HW2 1094   0.660   5.654   4.042
33088SOL     OW 1095   3.767   4.906  10.869
33088SOL    HW1 1096   3.675   4.933  10.878
33088SOL    HW2 1097   3.784   4.908  10.775
33089SOL     OW 1098   0.268   7.590   3.065
33089SOL    HW1 1099   0.271   7.683   3.040
33089SOL    HW2 1100   0.307   7.587   3.152
33090SOL     OW 1101   2.304   9.687   2.180
33090SOL    HW1 1102   2.276   9.653   2.095
33090SOL    HW2 1103   2.251   9.766   2.192
33091SOL     OW 1104  12.280  10.319  11.731
33091SOL    HW1 1105  12.317  10.365  11.656
33091SOL    HW2 1106  12.229  10.247  11.692
33092SOL     OW 1107   7.820  12.502  11.924
33092SOL    HW1 1108   7.906  12.514  11.885
33092SOL    HW2 1109   7.767  12.463  11.855
33093SOL     OW 1110   8.816   6.488   8.193
33093SOL    HW1 1111   8.894   6.511   8.142
33093SOL    HW2 1112   8.761   6.439   8.132
33094SOL     OW 1113   6.336   1.796   0.298
33094SOL    HW1 1114   6.370   1.711   0.271
33094SOL    HW2 1115   6.360   1.855   0.228
33095SOL     OW 1116   1.371   4.007   4.395
33095SOL    HW1 1117   1.456   4.052   4.399
33095SOL    HW2 1118   1.307   4.078   4.396
33096SOL     OW 1119  12.401   1.385   8.683
33096SOL    HW1 1120  12.355   1.309   8.647
33096SOL    HW2 1121  12.376   1.386   8.776
33097SOL     OW 1122   0.247   8.027   8.267
33097SOL    HW1 1123   0.197   8.107   8.254
33097SOL    HW2 1124   0.196   7.977   8.331
33098SOL     OW 1125   6.669  14.816  14.533
33098SOL    HW1 1126   6.665  14.870  14.612
33098SOL    HW2 1127   6.744  14.758  14.548
33099SOL     OW 1128   3.948   1.370   5.028
33099SOL    HW1 1129   4.029   1.409   4.997
33099SOL    HW2 1130   3.976   1.297   5.084
33100SOL     OW 1131  11.151   2.091   5.952
33100SOL    HW1 1132  11.216   2.116   5.886
33100SOL    HW2 1133  11.203   2.069   6.030
33101SOL     OW 1134   6.839  13.701   6.938
33101SOL    HW1 1135   6.880  13.671   7.019
33101SOL    HW2 1136   6.891  13.777   6.912
33102SOL     OW 1137  13.179   5.391   5.350
33102SOL    HW1 1138  13.086   5.414   5.343
33102SOL    HW2 1139  13.194   5.379   5.444
33103SOL     OW 1140   5.889   9.839  13.008
33103SOL    HW1 1141   5.800   9.860  12.977
33103SOL    HW2 1142   5.879   9.756  13.054
33104SOL     OW 1143   9.143   3.671   4.135
33104SOL    HW1 1144   9.049   3.650   4.131
33104SOL    HW2 1145   9.186   3.591   4.104
33105SOL     OW 1146   5.468   5.194   2.098
33105SOL    HW1 1147   5.423   5.250   2.162
33105SOL    HW2 1148   5.513   5.129   2.152
33106SOL     OW 1149   5.144  10.481   4.872
33106SOL    HW1 1150   5.225  10.474   4.822
33106SOL    HW2 1151   5.138  10.575   4.892
33107SOL     OW 1152  11.826  14.728   7.209
33107SOL    HW1 1153  11.775  14.744   7.288
33107SOL    HW2 1154  11.792  14.645   7.174
33108SOL     OW 1155  12.811   3.680   0.669
33108SOL    HW1 1156  12.817   3.707   0.761
33108SOL    HW2 1157  12.737   3.620   0.667
33109SOL     OW 1158   5.652   9.564  10.317
33109SOL    HW1 1159   5.564   9.535  10.294
33109SOL    HW2 1160   5.696   9.576  10.233
33110SOL     OW 1161   7.533   0.075   4.018
33110SOL    HW1 1162   7.460   0.025   4.053
33110SOL    HW2 1163   7.503   0.106   3.932
33111SOL     OW 1164   1.487  10.058   1.476
33111SOL    HW1 1165   1.518  10.107   1.553
33111SOL    HW2 1166   1.400  10.028   1.500
33112SOL     OW 1167   1.949   8.105  11.862
33112SOL    HW1 1168   2.018   8.168  11.882
33112SOL    HW2 1169   1.924   8.070  11.948
33113SOL     OW 1170  13.590   6.986  13.634
33113SOL    HW1 1171  13.605   6.894  13.656
33113SOL    HW2 1172  13.652   7.034  13.689
33114SOL     OW 1173  14.237   0.916   2.742
33114SOL    HW1 1174  14.329   0.891   2.731
33114SOL    HW2 1175  14.223   0.915   2.837
33115SOL     OW 1176   4.843   9.254   3.412
33115SOL    HW1 1177   4.762   9.223   3.453
33115SOL    HW2 1178   4.900   9.277   3.487
33116SOL     OW 1179   6.615   7.322   2.331
33116SOL    HW1 1180   6.538   7.376   2.352
33116SOL    HW2 1181   6.678   7.383   2.294
33117SOL     OW 1182  12.616   8.796  12.178
33117SOL    HW1 1183  12.604   8.766  12.088
33117SOL    HW2 1184  12.575   8.882  12.180
33118SOL     OW 1185  11.788  12.567  14.491
33118SOL    HW1 1186  11.809  12.613  14.572
33118SOL    HW2 1187  11.771  12.477  14.519
33119SOL     OW 1188   9.409  14.241  14.747
33119SOL    HW1 1189   9.375  14.326  14.719
33119SOL    HW2 1190   9.347  14.177  14.712
33120SOL     OW 1191  10.505   2.809   1.219
33120SOL    HW1 1192  10.583   2.793   1.273
33120SOL    HW2 1193  10.432   2.778   1.272
33121SOL     OW 1194   6.918   9.238   2.032
33121SOL    HW1 1195   6.965   9.245   1.950
33121SOL    HW2 1196   6.980   9.269   2.099
33122SOL     OW 1197   6.631   9.645  10.676
33122SOL    HW1 1198   6.574   9.653  10.599
33122SOL    HW2 1199   6.580   9.592  10.738
33123SOL     OW 1200  12.418   2.699   0.306
33123SOL    HW1 1201  12.415   2.725   0.398
33123SOL    HW2 1202  12.337   2.649   0.294
33124SOL     OW 1203   1.482   5.763   9.258
33124SOL    HW1 1204   1.526   5.694   9.208
33124SOL    HW2 1205   1.513   5.844   9.218
33125SOL     OW 1206  12.322  12.401   9.012
33125SOL    HW1 1207  12.406  12.359   9.029
33125SOL    HW2 1208  12.274  12.338   8.959
33126SOL     OW 1209  10.467   5.682   4.806
33126SOL    HW1 1210  10.410   5.751   4.840
33126SOL    HW2 1211  10.449   5.679   4.712
33127SOL     OW 1212  12.287   8.821   5.957
33127SOL    HW1 1213  12.215   8.758   5.963
33127SOL    HW2 1214  12.265   8.889   6.020
33128SOL     OW 1215  12.776  13.426   8.560
33128SOL    HW1 1216  12.714  13.377   8.506
33128SOL    HW2 1217  12.783  13.375   8.641
33129SOL     OW 1218   3.016   5.575   7.997
33129SOL    HW1 1219   3.000   5.538   8.084
33129SOL    HW2 1220   3.094   5.530   7.965
33130SOL     OW 1221   8.638  10.787   8.785
33130SOL    HW1 1222   8.558  10.743   8.757
33130SOL    HW2 1223   8.609  10.848   8.853
33131SOL     OW 1224  14.090   0.638   4.439
33131SOL    HW1 1225  14.019   0.574   4.440
33131SOL    HW2 1226  14.118   0.641   4.348
33132SOL     OW 1227   2.506   9.046  13.047
33132SOL    HW1 1228   2.508   9.129  12.999
33132SOL    HW2 1229   2.428   9.051  13.102
33133SOL     OW 1230   2.680   0.181   4.592
33133SOL    HW1 1231   2.628   0.103   4.576
33133SOL    HW2 1232   2.716   0.168   4.680
33134SOL     OW 1233   2.844  11.671   4.308
33134SOL    HW1 1234   2.786  11.641   4.377
33134SOL    HW2 1235   2.808  11.754   4.280
33135SOL     OW 1236  12.423   1.123   7.236
33135SOL    HW1 1237  12.333   1.130   7.266
33135SOL    HW2 1238  12.432   1.032   7.207
33136SOL     OW 1239   8.487   6.479   2.330
33136SOL    HW1 1240   8.422   6.546   2.309
33136SOL    HW2 1241   8.524   6.453   2.245
33137SOL     OW 1242   2.045  12.975   4.209
33137SOL    HW1 1243   1.986  13.000   4.138
33137SOL    HW2 1244   2.132  12.976   4.170
33138SOL     OW 1245   7.001  13.359   9.613
33138SOL    HW1 1246   7.005  13.407   9.530
33138SOL    HW2 1247   7.067  13.290   9.604
33139SOL     OW 1248  11.784   2.916   6.403
33139SOL    HW1 1249  11.801   3.010   6.391
33139SOL    HW2 1250  11.733   2.891   6.326
33140SOL     OW 1251   5.685  14.751   7.334
33140SOL    HW1 1252   5.610  14.728   7.280
33140SOL    HW2 1253   5.667  14.841   7.363
33141SOL     OW 1254   7.546  13.212   3.837
33141SOL    HW1 1255   7.499  13.129   3.840
33141SOL    HW2 1256   7.490  13.273   3.885
33142SOL     OW 1257   5.784  12.113   5.933
33142SOL    HW1 1258   5.861  12.149   5.890
33142SOL    HW2 1259   5.819  12.057   6.002
33143SOL     OW 1260  13.877  12.561   2.330
33143SOL    HW1 1261  13.803  12.616   2.354
33143SOL    HW2 1262  13.908  12.598   2.247
33144SOL     OW 1263   2.570  13.356  11.897
33144SOL    HW1 1264   2.487  13.383  11.937
33144SOL    HW2 1265   2.636  13.411  11.939
33145SOL     OW 1266   9.328  14.573   5.665
33145SOL    HW1 1267   9.361  14.650   5.617
33145SOL    HW2 1268   9.308  14.510   5.596
33146SOL     OW 1269   2.562  13.408   2.779
33146SOL    HW1 1270   2.599  13.482   2.827
33146SOL    HW2 1271   2.476  13.438   2.751
33147SOL     OW 1272  12.466   0.197   6.398
33147SOL    HW1 1273  12.420   0.274   6.432
33147SOL    HW2 1274  12.557   0.224   6.392
33148SOL     OW 1275  10.961  12.829  14.803
33148SOL    HW1 1276  11.000  12.845  14.717
33148SOL    HW2 1277  10.935  12.916  14.834
33149SOL     OW 1278   6.907  10.798   0.584
33149SOL    HW1 1279   6.887  10.740   0.657
33149SOL    HW2 1280   6.972  10.751   0.532
33150SOL     OW 1281   2.537   0.875  13.999
33150SOL    HW1 1282   2.607   0.915  14.049
33150SOL    HW2 1283   2.578   0.802  13.953
33151SOL     OW 1284   7.070   4.810   4.612
33151SOL    HW1 1285   7.072   4.826   4.518
33151SOL    HW2 1286   7.095   4.894   4.651
33152SOL     OW 1287  13.726   6.861   9.035
33152SOL    HW1 1288  13.798   6.828   8.981
33152SOL    HW2 1289  13.648   6.816   9.002
33153SOL     OW 1290  11.053   5.276  11.055
33153SOL    HW1 1291  11.053   5.246  10.964
33153SOL    HW2 1292  11.146   5.285  11.077
33154SOL     OW 1293  12.157   3.471   8.366
33154SOL    HW1 1294  12.196   3.392   8.328
33154SOL    HW2 1295  12.064   3.466   8.342
33155SOL     OW 1296   8.915   1.633   3.398
33155SOL    HW1 1297   8.864   1.650   3.319
33155SOL    HW2 1298   8.853   1.648   3.470
33156SOL     OW 1299   7.529  10.236  13.538
33156SOL    HW1 1300   7.467  10.185  13.589
33156SOL    HW2 1301   7.576  10.171  13.485
33157SOL     OW 1302   3.956   8.796  12.061
33157SOL    HW1 1303   3.892   8.812  12.130
33157SOL    HW2 1304   3.913   8.826  11.981
33158SOL     OW 1305   7.876  10.178   6.229
33158SOL    HW1 1306   7.840  10.260   6.264
33158SOL    HW2 1307   7.806  10.114   6.241
33159SOL     OW 1308  14.168   5.279   8.258
33159SOL    HW1 1309  14.213   5.246   8.336
33159SOL    HW2 1310  14.081   5.305   8.290
33160SOL     OW 1311   3.809  10.602   0.488
33160SOL    HW1 1312   3.853  10.539   0.544
33160SOL    HW2 1313   3.764  10.549   0.422
33161SOL     OW 1314   5.433   0.299   7.584
33161SOL    HW1 1315   5.472   0.371   7.534
33161SOL    HW2 1316   5.366   0.340   7.638
33162SOL     OW 1317   8.110   8.438   2.850
33162SOL    HW1 1318   8.199   8.472   2.858
33162SOL    HW2 1319   8.084   8.457   2.759
33163SOL     OW 1320   5.819  11.372   7.149
33163SOL    HW1 1321   5.736  11.377   7.197
33163SOL    HW2 1322   5.870  11.306   7.195
33164SOL     OW 1323  13.521   4.607   9.253
33164SOL    HW1 1324  13.437   4.627   9.210
33164SOL    HW2 1325  13.574   4.686   9.238
33165SOL     OW 1326   5.765  13.139  11.614
33165SOL    HW1 1327   5.676  13.158  11.643
33165SOL    HW2 1328   5.755  13.070  11.549
33166SOL     OW 1329   1.734  14.050   6.538
33166SOL    HW1 1330   1.718  14.022   6.628
33166SOL    HW2 1331   1.689  14.134   6.530
33167SOL     OW 1332   3.028   8.679   3.591
33167SOL    HW1 1333   3.004   8.601   3.640
33167SOL    HW2 1334   3.122   8.691   3.608
33168SOL     OW 1335   3.006   4.639  13.315
33168SOL    HW1 1336   3.090   4.682  13.301
33168SOL    HW2 1337   3.017   4.590  13.397
33169SOL     OW 1338   0.691   6.601   1.134
33169SOL    HW1 1339   0.734   6.517   1.151
33169SOL    HW2 1340   0.757   6.666   1.157
33170SOL     OW 1341   1.877   9.066   4.612
33170SOL    HW1 1342   1.894   9.092   4.521
33170SOL    HW2 1343   1.928   9.127   4.665
33171SOL     OW 1344   4.166  13.407  13.645
33171SOL    HW1 1345   4.164  13.466  13.721
33171SOL    HW2 1346   4.153  13.320  13.682
33172SOL     OW 1347   0.866   8.410   6.032
33172SOL    HW1 1348   0.824   8.494   6.049
33172SOL    HW2 1349   0.856   8.395   5.938
33173SOL     OW 1350   0.206   2.814   2.089
33173SOL    HW1 1351   0.170   2.777   2.009
33173SOL    HW2 1352   0.157   2.770   2.159
33174SOL     OW 1353   2.828   4.173  14.421
33174SOL    HW1 1354   2.799   4.134  14.504
33174SOL    HW2 1355   2.831   4.267  14.439
33175SOL     OW 1356   6.717  13.670   3.798
33175SOL    HW1 1357   6.807  13.656   3.827
33175SOL    HW2 1358   6.688  13.584   3.768
33176SOL     OW 1359   0.730  11.166   6.095
33176SOL    HW1 1360   0.783  11.156   6.174
33176SOL    HW2 1361   0.648  11.206   6.125
33177SOL     OW 1362  12.754  13.557   2.131
33177SOL    HW1 1363  12.684  13.537   2.069
33177SOL    HW2 1364  12.776  13.473   2.170
33178SOL     OW 1365   8.344   0.415   9.135
33178SOL    HW1 1366   8.368   0.373   9.052
33178SOL    HW2 1367   8.248   0.423   9.132
33179SOL     OW 1368   4.863   2.081  10.453
33179SOL    HW1 1369   4.829   2.170  10.446
33179SOL    HW2 1370   4.849   2.043  10.366
33180SOL     OW 1371  12.241   0.014   5.585
33180SOL    HW1 1372  12.167   0.074   5.579
33180SOL    HW2 1373  12.230  14.847   5.671
33181SOL     OW 1374  13.302   3.549   0.847
33181SOL    HW1 1375  13.283   3.556   0.753
33181SOL    HW2 1376  13.219   3.521   0.886
33182SOL     OW 1377   4.189   7.464  13.767
33182SOL    HW1 1378   4.102   7.496  13.792
33182SOL    HW2 1379   4.192   7.374  13.799
33183SOL     OW 1380   7.018   8.729   4.219
33183SOL    HW1 1381   6.981   8.792   4.280
33183SOL    HW2 1382   6.951   8.719   4.151
33184SOL     OW 1383   3.457   1.267   7.984
33184SOL    HW1 1384   3.494   1.217   8.057
33184SOL    HW2 1385   3.464   1.208   7.909
33185SOL     OW 1386  10.965   5.803   3.845
33185SOL    HW1 1387  10.977   5.708   3.848
33185SOL    HW2 1388  10.942   5.827   3.935
33186SOL     OW 1389  12.167   5.154   4.207
33186SOL    HW1 1390  12.122   5.226   4.162
33186SOL    HW2 1391  12.242   5.133   4.150
33187SOL     OW 1392  14.462  10.159  13.988
33187SOL    HW1 1393  14.512  10.101  13.930
33187SOL    HW2 1394  14.528  10.195  14.048
33188SOL     OW 1395  10.417   7.665   4.526
33188SOL    HW1 1396  10.489   7.632   4.471
33188SOL    HW2 1397  10.456   7.737   4.575
33189SOL     OW 1398   7.535   9.407   8.687
33189SOL    HW1 1399   7.530   9.312   8.687
33189SOL    HW2 1400   7.446   9.436   8.711
33190SOL     OW 1401  10.346   9.515   7.221
33190SOL    HW1 1402  10.416   9.478   7.168
33190SOL    HW2 1403  10.374   9.604   7.240
33191SOL     OW 1404   2.067  12.545   6.402
33191SOL    HW1 1405   1.995  12.599   6.369
33191SOL    HW2 1406   2.100  12.498   6.326
33192SOL     OW 1407   4.651   9.124   8.033
33192SOL    HW1 1408   4.727   9.173   8.064
33192SOL    HW2 1409   4.638   9.153   7.943
33193SOL     OW 1410  13.463   4.244  14.487
33193SOL    HW1 1411  13.511   4.171  14.526
33193SOL    HW2 1412  13.372   4.217  14.488
33194SOL     OW 1413   7.678   3.176  11.329
33194SOL    HW1 1414   7.693   3.204  11.420
33194SOL    HW2 1415   7.747   3.218  11.279
33195SOL     OW 1416  10.603  11.549   0.176
33195SOL    HW1 1417  10.685  11.593   0.199
33195SOL    HW2 1418  10.536  11.593   0.230
33196SOL     OW 1419  12.473   2.154   5.943
33196SOL    HW1 1420  12.391   2.203   5.942
33196SOL    HW2 1421  12.447   2.064   5.925
33197SOL     OW 1422   6.919  13.794   1.643
33197SOL    HW1 1423   6.945  13.845   1.567
33197SOL    HW2 1424   6.866  13.723   1.608
33198SOL     OW 1425  14.581   5.557   5.755
33198SOL    HW1 1426  14.616   5.646   5.743
33198SOL    HW2 1427  14.540   5.559   5.841
33199SOL     OW 1428  12.080   9.279   5.080
33199SOL    HW1 1429  11.996   9.290   5.124
33199SOL    HW2 1430  12.145   9.303   5.146
33200SOL     OW 1431  14.418   3.561   7.037
33200SOL    HW1 1432  14.460   3.535   6.955
33200SOL    HW2 1433  14.338   3.606   7.010
33201SOL     OW 1434  11.405   7.839   2.308
33201SOL    HW1 1435  11.456   7.886   2.242
33201SOL    HW2 1436  11.470   7.799   2.365
33202SOL     OW 1437  12.279   2.483   6.257
33202SOL    HW1 1438  12.215   2.447   6.318
33202SOL    HW2 1439  12.237   2.474   6.171
33203SOL     OW 1440  14.208   5.385   0.539
33203SOL    HW1 1441  14.225   5.349   0.626
33203SOL    HW2 1442  14.285   5.438   0.520
33204SOL     OW 1443   8.246  12.020   1.899
33204SOL    HW1 1444   8.240  12.105   1.942
33204SOL    HW2 1445   8.326  12.025   1.846
33205SOL     OW 1446   1.557   6.640  10.902
33205SOL    HW1 1447   1.480   6.641  10.844
33205SOL    HW2 1448   1.520   6.633  10.990
33206SOL     OW 1449   8.357   0.513   2.277
33206SOL    HW1 1450   8.397   0.512   2.190
33206SOL    HW2 1451   8.417   0.462   2.331
33207SOL     OW 1452  12.805  11.221  12.241
33207SOL    HW1 1453  12.759  11.191  12.319
33207SOL    HW2 1454  12.885  11.262  12.274
33208SOL     OW 1455  14.055   6.454  12.611
33208SOL    HW1 1456  14.118   6.456  12.683
33208SOL    HW2 1457  14.006   6.372  12.624
33209SOL     OW 1458   1.499  13.823  13.876
33209SOL    HW1 1459   1.406  13.821  13.853
33209SOL    HW2 1460   1.515  13.740  13.919
33210SOL     OW 1461  14.445   3.766   9.553
33210SOL    HW1 1462  14.359   3.808   9.560
33210SOL    HW2 1463  14.438   3.689   9.610
33211SOL     OW 1464  11.546   4.406  10.853
33211SOL    HW1 1465  11.499   4.334  10.897
33211SOL    HW2 1466  11.636   4.397  10.882
33212SOL     OW 1467   3.940  12.283   6.897
33212SOL    HW1 1468   3.907  12.232   6.971
33212SOL    HW2 1469   3.864  12.294   6.840
33213SOL     OW 1470   6.082  13.830   3.486
33213SOL    HW1 1471   6.122  13.905   3.530
33213SOL    HW2 1472   6.149  13.762   3.487
33214SOL     OW 1473   3.235  14.609   8.802
33214SOL    HW1 1474   3.280  14.544   8.748
33214SOL    HW2 1475   3.284  14.690   8.788
33215SOL     OW 1476   9.940  11.244   7.700
33215SOL    HW1 1477   9.866  11.306   7.698
33215SOL    HW2 1478   9.900  11.158   7.711
33216SOL     OW 1479  13.000   1.514   7.163
33216SOL    HW1 1480  12.987   1.576   7.234
33216SOL    HW2 1481  13.017   1.568   7.086
33217SOL     OW 1482   2.459   0.902   7.711
33217SOL    HW1 1483   2.464   0.860   7.625
33217SOL    HW2 1484   2.396   0.849   7.759
33218SOL     OW 1485  10.011  12.230   3.134
33218SOL    HW1 1486   9.929  12.222   3.182
33218SOL    HW2 1487  10.021  12.324   3.118
33219SOL     OW 1488   9.943  10.655  11.992
33219SOL    HW1 1489   9.929  10.610  12.075
33219SOL    HW2 1490   9.977  10.741  12.017
33220SOL     OW 1491   3.015  14.319   8.841
33220SOL    HW1 1492   2.935  14.321   8.894
33220SOL    HW2 1493   2.991  14.272   8.761
33221SOL     OW 1494  10.576   9.304  10.052
33221SOL    HW1 1495  10.555   9.350  10.133
33221SOL    HW2 1496  10.658   9.258  10.071
33222SOL     OW 1497  12.286  13.222   7.444
33222SOL    HW1 1498  12.226  13.161   7.402
33222SOL    HW2 1499  12.237  13.305   7.449
33223SOL     OW 1500   6.811   6.099  13.446
33223SOL    HW1 1501   6.743   6.145  13.397
33223SOL    HW2 1502   6.893   6.138  13.415
33224SOL     OW 1503   7.168  12.806  10.886
33224SOL    HW1 1504   7.144  12.882  10.939
33224SOL    HW2 1505   7.086  12.758  10.874
33225SOL     OW 1506   6.265  13.993  11.082
33225SOL    HW1 1507   6.346  13.946  11.102
33225SOL    HW2 1508   6.218  13.936  11.022
33226SOL     OW 1509  12.868  14.857   9.566
33226SOL    HW1 1510  12.901  14.783   9.617
33226SOL    HW2 1511  12.851  14.822   9.479
33227SOL     OW 1512   1.858   5.832   9.269
33227SOL    HW1 1513   1.810   5.902   9.313
33227SOL    HW2 1514   1.865   5.763   9.334
33228SOL     OW 1515   8.597  11.220  10.470
33228SOL    HW1 1516   8.519  11.174  10.501
33228SOL    HW2 1517   8.574  11.313  10.476
33229SOL     OW 1518   6.760  10.237  14.092
33229SOL    HW1 1519   6.847  10.202  14.111
33229SOL    HW2 1520   6.713  10.165  14.050
33230SOL     OW 1521  13.173  11.445   4.742
33230SOL    HW1 1522  13.187  11.380   4.810
33230SOL    HW2 1523  13.167  11.528   4.788
33231SOL     OW 1524   5.161   0.095   3.347
33231SOL    HW1 1525   5.141   0.053   3.430
33231SOL    HW2 1526   5.081   0.085   3.295
33232SOL     OW 1527  14.263   7.586  11.729
33232SOL    HW1 1528  14.336   7.618  11.783
33232SOL    HW2 1529  14.251   7.495  11.757
33233SOL     OW 1530  10.184   6.529   0.175
33233SOL    HW1 1531  10.206   6.441   0.205
33233SOL    HW2 1532  10.137   6.515   0.093
33234SOL     OW 1533   5.809   0.736  12.848
33234SOL    HW1 1534   5.749   0.807  12.872
33234SOL    HW2 1535   5.895   0.776  12.850
33235SOL     OW 1536  10.463   9.648  13.168
33235SOL    HW1 1537  10.544   9.699  13.159
33235SOL    HW2 1538  10.482   9.564  13.127
33236SOL     OW 1539   9.039   7.935  12.155
33236SOL    HW1 1540   9.016   7.847  12.185
33236SOL    HW2 1541   9.133   7.932  12.137
33237SOL     OW 1542   6.620   0.110   7.923
33237SOL    HW1 1543   6.676   0.152   7.987
33237SOL    HW2 1544   6.550   0.173   7.904
33238SOL     OW 1545   8.015  11.079  10.085
33238SOL    HW1 1546   8.035  11.079   9.992
33238SOL    HW2 1547   8.100  11.092  10.128
33239SOL     OW 1548   6.441   2.670   6.749
33239SOL    HW1 1549   6.373   2.720   6.703
33239SOL    HW2 1550   6.486   2.621   6.679
33240SOL     OW 1551   8.415   1.179   6.736
33240SOL    HW1 1552   8.488   1.147   6.789
33240SOL    HW2 1553   8.451   1.187   6.648
33241SOL     OW 1554   2.227   4.583   3.178
33241SOL    HW1 1555   2.203   4.523   3.249
33241SOL    HW2 1556   2.190   4.542   3.099
33242SOL     OW 1557   7.086  14.629   1.847
33242SOL    HW1 1558   7.092  14.675   1.931
33242SOL    HW2 1559   7.047  14.693   1.788
33243SOL     OW 1560  13.119   9.072   2.329
33243SOL    HW1 1561  13.204   9.056   2.369
33243SOL    HW2 1562  13.056   9.053   2.399
33244SOL     OW 1563  13.031  14.870   5.256
33244SOL    HW1 1564  13.029   0.010   5.351
33244SOL    HW2 1565  13.119  14.836   5.240
33245SOL     OW 1566   1.473  10.340  10.443
33245SOL    HW1 1567   1.512  10.353  10.529
33245SOL    HW2 1568   1.463  10.245  10.435
33246SOL     OW 1569   4.978   9.414   3.206
33246SOL    HW1 1570   4.923   9.430   3.129
33246SOL    HW2 1571   4.916   9.394   3.276
33247SOL     OW 1572   6.199   2.538  11.890
33247SOL    HW1 1573   6.184   2.508  11.980
33247SOL    HW2 1574   6.206   2.458  11.838
33248SOL     OW 1575   0.128   0.506   8.564
33248SOL    HW1 1576   0.051   0.457   8.533
33248SOL    HW2 1577   0.180   0.521   8.485
33249SOL     OW 1578  11.385   3.499   6.495
33249SOL    HW1 1579  11.416   3.409   6.487
33249SOL    HW2 1580  11.340   3.516   6.412
33250SOL     OW 1581   1.203   7.371   7.884
33250SOL    HW1 1582   1.120   7.335   7.855
33250SOL    HW2 1583   1.181   7.456   7.922
33251SOL     OW 1584  13.484   2.418   9.574
33251SOL    HW1 1585  13.493   2.445   9.483
33251SOL    HW2 1586  13.564   2.368   9.592
33252SOL     OW 1587  11.628   0.486   3.276
33252SOL    HW1 1588  11.641   0.395   3.252
33252SOL    HW2 1589  11.700   0.533   3.234
33253SOL     OW 1590  10.445   5.249   8.336
33253SOL    HW1 1591  10.499   5.213   8.406
33253SOL    HW2 1592  10.376   5.297   8.380
33254SOL     OW 1593  11.588  11.783   3.947
33254SOL    HW1 1594  11.642  11.839   4.004
33254SOL    HW2 1595  11.632  11.698   3.948
33255SOL     OW 1596  11.674  11.988   2.353
33255SOL    HW1 1597  11.655  12.021   2.441
33255SOL    HW2 1598  11.588  11.972   2.315
33256SOL     OW 1599  11.390   6.346   3.914
33256SOL    HW1 1600  11.298   6.331   3.896
33256SOL    HW2 1601  11.393   6.433   3.955
33257SOL     OW 1602   1.376   2.763   7.044
33257SOL    HW1 1603   1.392   2.681   7.091
33257SOL    HW2 1604   1.457   2.813   7.056
33258SOL     OW 1605  14.551   2.465  14.641
33258SOL    HW1 1606  14.469   2.481  14.595
33258SOL    HW2 1607  14.544   2.513  14.723
33259SOL     OW 1608  14.223   8.835   7.920
33259SOL    HW1 1609  14.309   8.827   7.962
33259SOL    HW2 1610  14.227   8.918   7.873
33260SOL     OW 1611  12.787   8.589   9.426
33260SOL    HW1 1612  12.737   8.608   9.347
33260SOL    HW2 1613  12.761   8.657   9.488
33261SOL     OW 1614   8.600   8.849   7.550
33261SOL    HW1 1615   8.598   8.768   7.498
33261SOL    HW2 1616   8.563   8.916   7.492
33262SOL     OW 1617   7.639  10.934   7.521
33262SOL    HW1 1618   7.657  10.904   7.433
33262SOL    HW2 1619   7.710  10.899   7.574
33263SOL     OW 1620  12.234  14.731   7.882
33263SOL    HW1 1621  12.187  14.789   7.942
33263SOL    HW2 1622  12.316  14.712   7.927
33264SOL     OW 1623   9.228  12.781   7.237
33264SOL    HW1 1624   9.145  12.749   7.202
33264SOL    HW2 1625   9.287  12.706   7.231
33265SOL     OW 1626   7.111   8.615   0.326
33265SOL    HW1 1627   7.189   8.625   0.271
33265SOL    HW2 1628   7.146   8.607   0.415
33266SOL     OW 1629  12.938   9.171  10.018
33266SOL    HW1 1630  12.973   9.253   9.984
33266SOL    HW2 1631  12.862   9.196  10.069
33267SOL     OW 1632  10.295  12.058  14.386
33267SOL    HW1 1633  10.227  12.007  14.341
33267SOL    HW2 1634  10.376  12.009  14.371
33268SOL     OW 1635  14.470   8.938   5.816
33268SOL    HW1 1636  14.465   9.021   5.863
33268SOL    HW2 1637  14.431   8.874   5.875
33269SOL     OW 1638   3.790  10.457   6.489
33269SOL    HW1 1639   3.793  10.384   6.428
33269SOL    HW2 1640   3.856  10.436   6.555
33270SOL     OW 1641   6.712   8.329   1.263
33270SOL    HW1 1642   6.655   8.341   1.186
33270SOL    HW2 1643   6.652   8.333   1.337
33271SOL     OW 1644   2.147   7.270   6.754
33271SOL    HW1 1645   2.211   7.289   6.685
33271SOL    HW2 1646   2.132   7.354   6.797
33272SOL     OW 1647   8.725  11.007   7.592
33272SOL    HW1 1648   8.730  10.911   7.586
33272SOL    HW2 1649   8.634  11.027   7.567
33273SOL     OW 1650   7.079  10.097   8.410
33273SOL    HW1 1651   7.028  10.090   8.491
33273SOL    HW2 1652   7.163  10.056   8.431
33274SOL     OW 1653   1.206  12.856   4.315
33274SOL    HW1 1654   1.159  12.825   4.238
33274SOL    HW2 1655   1.283  12.800   4.321
33275SOL     OW 1656  11.711   6.085  12.351
33275SOL    HW1 1657  11.624   6.083  12.392
33275SOL    HW2 1658  11.754   6.160  12.390
33276SOL     OW 1659   7.762  12.570  14.079
33276SOL    HW1 1660   7.747  12.494  14.023
33276SOL    HW2 1661   7.777  12.533  14.166
33277SOL     OW 1662  13.513  13.595  10.402
33277SOL    HW1 1663  13.518  13.596  10.497
33277SOL    HW2 1664  13.594  13.553  10.373
33278SOL     OW 1665  11.620   7.143   9.018
33278SOL    HW1 1666  11.699   7.194   8.999
33278SOL    HW2 1667  11.642   7.091   9.095
33279SOL     OW 1668  12.408   5.705   0.027
33279SOL    HW1 1669  12.462   5.738   0.100
33279SOL    HW2 1670  12.333   5.765   0.025
33280SOL     OW 1671  13.705  13.358   2.851
33280SOL    HW1 1672  13.639  13.373   2.784
33280SOL    HW2 1673  13.784  13.336   2.803
33281SOL     OW 1674   8.937  11.396   6.188
33281SOL    HW1 1675   9.019  11.359   6.155
33281SOL    HW2 1676   8.909  11.336   6.257
33282SOL     OW 1677   3.516   5.471   3.809
33282SOL    HW1 1678   3.500   5.559   3.841
33282SOL    HW2 1679   3.448   5.456   3.744
33283SOL     OW 1680   6.253   1.471   3.528
33283SOL    HW1 1681   6.218   1.543   3.477
33283SOL    HW2 1682   6.281   1.406   3.463
33284SOL     OW 1683   6.404   5.570   2.676
33284SOL    HW1 1684   6.444   5.626   2.742
33284SOL    HW2 1685   6.449   5.592   2.595
33285SOL     OW 1686  11.409  11.834  10.467
33285SOL    HW1 1687  11.459  11.914  10.456
33285SOL    HW2 1688  11.471  11.763  10.447
33286SOL     OW 1689   9.586   0.420   9.575
33286SOL    HW1 1690   9.492   0.435   9.577
33286SOL    HW2 1691   9.605   0.403   9.482
33287SOL     OW 1692   9.956  14.356  12.998
33287SOL    HW1 1693   9.891  14.286  13.005
33287SOL    HW2 1694   9.977  14.360  12.905
33288SOL     OW 1695   4.725  10.386  13.223
33288SOL    HW1 1696   4.783  10.378  13.148
33288SOL    HW2 1697   4.681  10.301  13.229
33289SOL     OW 1698   1.752   5.834   8.030
33289SOL    HW1 1699   1.720   5.800   8.114
33289SOL    HW2 1700   1.752   5.758   7.972
33290SOL     OW 1701   7.374   7.127   0.595
33290SOL    HW1 1702   7.339   7.044   0.628
33290SOL    HW2 1703   7.354   7.126   0.502
33291SOL     OW 1704  10.076  10.024  12.524
33291SOL    HW1 1705  10.081  10.009  12.619
33291SOL    HW2 1706  10.019   9.954  12.492
33292SOL     OW 1707   5.037   5.923   3.929
33292SOL    HW1 1708   5.089   5.844   3.943
33292SOL    HW2 1709   4.958   5.909   3.982
33293SOL     OW 1710  10.856   0.566  10.677
33293SOL    HW1 1711  10.939   0.599  10.712
33293SOL    HW2 1712  10.871   0.471  10.667
33294SOL     OW 1713   5.650   0.733   8.566
33294SOL    HW1 1714   5.585   0.723   8.636
33294SOL    HW2 1715   5.621   0.810   8.518
33295SOL     OW 1716   4.641  14.526   3.078
33295SOL    HW1 1717   4.684  14.459   3.025
33295SOL    HW2 1718   4.567  14.481   3.119
33296SOL     OW 1719   4.829   6.050   5.017
33296SOL    HW1 1720   4.876   6.095   5.087
33296SOL    HW2 1721   4.870   6.080   4.936
33297SOL     OW 1722   8.873  14.855   8.817
33297SOL    HW1 1723   8.813   0.012   8.884
33297SOL    HW2 1724   8.909   0.057   8.776
33298SOL     OW 1725   1.524   2.668   5.499
33298SOL    HW1 1726   1.507   2.574   5.499
33298SOL    HW2 1727   1.459   2.705   5.559
33299SOL     OW 1728   5.638   9.881   0.998
33299SOL    HW1 1729   5.733   9.885   0.982
33299SOL    HW2 1730   5.630   9.848   1.087
33300SOL     OW 1731  10.918   4.507   2.109
33300SOL    HW1 1732  10.836   4.515   2.061
33300SOL    HW2 1733  10.899   4.442   2.177
33301SOL     OW 1734   3.033   1.911   6.920
33301SOL    HW1 1735   3.011   1.998   6.886
33301SOL    HW2 1736   3.084   1.870   6.850
33302SOL     OW 1737  10.153  11.142  14.405
33302SOL    HW1 1738  10.058  11.129  14.405
33302SOL    HW2 1739  10.185  11.085  14.335
33303SOL     OW 1740   3.907   6.647   8.786
33303SOL    HW1 1741   3.961   6.725   8.801
33303SOL    HW2 1742   3.896   6.609   8.872
33304SOL     OW 1743   4.842   0.230  13.423
33304SOL    HW1 1744   4.756   0.194  13.401
33304SOL    HW2 1745   4.824   0.303  13.483
33305SOL     OW 1746  13.555   3.564   5.605
33305SOL    HW1 1747  13.563   3.605   5.691
33305SOL    HW2 1748  13.469   3.523   5.606
33306SOL     OW 1749  11.312   1.304   1.044
33306SOL    HW1 1750  11.217   1.299   1.036
33306SOL    HW2 1751  11.327   1.382   1.098
33307SOL     OW 1752  12.394   2.710   9.939
33307SOL    HW1 1753  12.483   2.677   9.949
33307SOL    HW2 1754  12.361   2.721  10.028
33308SOL     OW 1755   0.262  10.491   8.760
33308SOL    HW1 1756   0.235  10.409   8.802
33308SOL    HW2 1757   0.196  10.555   8.787
33309SOL     OW 1758   3.408   0.769   1.085
33309SOL    HW1 1759   3.452   0.700   1.036
33309SOL    HW2 1760   3.346   0.807   1.022
33310SOL     OW 1761  13.531   1.044  14.748
33310SOL    HW1 1762  13.615   1.086  14.770
33310SOL    HW2 1763  13.547   0.951  14.763
33311SOL     OW 1764   2.817  13.158  11.726
33311SOL    HW1 1765   2.877  13.114  11.666
33311SOL    HW2 1766   2.867  13.232  11.760
33312SOL     OW 1767   6.106  11.003  14.455
33312SOL    HW1 1768   6.115  10.918  14.412
33312SOL    HW2 1769   6.055  10.985  14.534
33313SOL     OW 1770   1.681  10.661   9.728
33313SOL    HW1 1771   1.688  10.755   9.741
33313SOL    HW2 1772   1.754  10.624   9.779
33314SOL     OW 1773  12.279  11.381  12.872
33314SOL    HW1 1774  12.192  11.418  12.882
33314SOL    HW2 1775  12.310  11.366  12.961
33315SOL     OW 1776   7.794  12.906   6.022
33315SOL    HW1 1777   7.757  12.916   6.109
33315SOL    HW2 1778   7.784  12.813   6.002
33316SOL     OW 1779  14.661   0.443   5.858
33316SOL    HW1 1780  14.658   0.383   5.784
33316SOL    HW2 1781  14.750   0.479   5.857
33317SOL     OW 1782   3.475   3.748   3.344
33317SOL    HW1 1783   3.465   3.659   3.378
33317SOL    HW2 1784   3.567   3.768   3.359
33318SOL     OW 1785  11.055   1.511   9.539
33318SOL    HW1 1786  11.015   1.449   9.600
33318SOL    HW2 1787  11.149   1.496   9.546
33319SOL     OW 1788  13.679   2.109   6.330
33319SOL    HW1 1789  13.772   2.111   6.308
33319SOL    HW2 1790  13.635   2.098   6.246
33320SOL     OW 1791   3.427   9.822  12.195
33320SOL    HW1 1792   3.337   9.793  12.210
33320SOL    HW2 1793   3.427   9.914  12.221
33321SOL     OW 1794   3.307   8.749   9.125
33321SOL    HW1 1795   3.219   8.729   9.158
33321SOL    HW2 1796   3.301   8.839   9.095
33322SOL     OW 1797   6.743   1.049   3.821
33322SOL    HW1 1798   6.748   1.064   3.916
33322SOL    HW2 1799   6.835   1.043   3.793
33323SOL     OW 1800   0.431   9.637   4.810
33323SOL    HW1 1801   0.433   9.732   4.816
33323SOL    HW2 1802   0.520   9.609   4.830
33324SOL     OW 1803   1.694   9.275   6.413
33324SOL    HW1 1804   1.746   9.265   6.333
33324SOL    HW2 1805   1.719   9.200   6.467
33325SOL     OW 1806   2.293   9.225   2.097
33325SOL    HW1 1807   2.349   9.276   2.156
33325SOL    HW2 1808   2.217   9.201   2.150
33326SOL     OW 1809   3.726   8.664   3.984
33326SOL    HW1 1810   3.727   8.755   3.955
33326SOL    HW2 1811   3.742   8.613   3.905
33327SOL     OW 1812  10.223   7.182   0.540
33327SOL    HW1 1813  10.131   7.189   0.515
33327SOL    HW2 1814  10.250   7.272   0.555
33328SOL     OW 1815  11.239  10.397  11.961
33328SOL    HW1 1816  11.223  10.378  12.053
33328SOL    HW2 1817  11.154  10.386  11.919
33329SOL     OW 1818  12.163   6.292  12.369
33329SOL    HW1 1819  12.142   6.267  12.459
33329SOL    HW2 1820  12.109   6.235  12.315
33330SOL     OW 1821  10.545   2.958  12.350
33330SOL    HW1 1822  10.532   3.053  12.359
33330SOL    HW2 1823  10.576   2.930  12.436
33331SOL     OW 1824  14.359   3.950  14.237
33331SOL    HW1 1825  14.373   4.045  14.235
33331SOL    HW2 1826  14.390   3.923  14.323
33332SOL     OW 1827   1.680   8.443   6.736
33332SOL    HW1 1828   1.661   8.531   6.702
33332SOL    HW2 1829   1.634   8.384   6.676
33333SOL     OW 1830  13.066   9.273  11.967
33333SOL    HW1 1831  13.160   9.255  11.954
33333SOL    HW2 1832  13.039   9.213  12.036
33334SOL     OW 1833  10.052   9.300  14.315
33334SOL    HW1 1834  10.144   9.306  14.341
33334SOL    HW2 1835  10.020   9.390  14.322
33335SOL     OW 1836   6.581   8.435  10.381
33335SOL    HW1 1837   6.533   8.503  10.333
33335SOL    HW2 1838   6.517   8.365  10.393
33336SOL     OW 1839   1.967  12.819   9.194
33336SOL    HW1 1840   1.971  12.737   9.144
33336SOL    HW2 1841   1.970  12.791   9.285
33337SOL     OW 1842  12.638  14.333   0.682
33337SOL    HW1 1843  12.608  14.392   0.613
33337SOL    HW2 1844  12.730  14.355   0.694
33338SOL     OW 1845  12.107   8.670   1.355
33338SOL    HW1 1846  12.178   8.714   1.401
33338SOL    HW2 1847  12.030   8.683   1.411
33339SOL     OW 1848  14.696  13.739   2.365
33339SOL    HW1 1849  14.707  13.688   2.285
33339SOL    HW2 1850  14.718  13.828   2.340
33340SOL     OW 1851  13.606  12.068  10.232
33340SOL    HW1 1852  13.672  12.138  10.237
33340SOL    HW2 1853  13.524  12.111  10.258
33341SOL     OW 1854   3.216   7.894   0.447
33341SOL    HW1 1855   3.241   7.924   0.360
33341SOL    HW2 1856   3.122   7.913   0.453
33342SOL     OW 1857   5.935  10.142   8.744
33342SOL    HW1 1858   5.955  10.165   8.834
33342SOL    HW2 1859   6.018  10.106   8.710
33343SOL     OW 1860   3.033   0.779   5.370
33343SOL    HW1 1861   3.082   0.800   5.449
33343SOL    HW2 1862   3.101   0.761   5.304
33344SOL     OW 1863   2.329  14.130  11.895
33344SOL    HW1 1864   2.390  14.202  11.915
33344SOL    HW2 1865   2.385  14.054  11.883
33345SOL     OW 1866   9.686   7.765  14.028
33345SOL    HW1 1867   9.592   7.767  14.008
33345SOL    HW2 1868   9.703   7.848  14.073
33346SOL     OW 1869   8.962   2.356  10.811
33346SOL    HW1 1870   8.886   2.401  10.848
33346SOL    HW2 1871   8.974   2.279  10.867
33347SOL     OW 1872   1.047   4.549   5.033
33347SOL    HW1 1873   1.036   4.582   5.123
33347SOL    HW2 1874   0.966   4.500   5.016
33348SOL     OW 1875   4.109  11.792   2.113
33348SOL    HW1 1876   4.081  11.856   2.048
33348SOL    HW2 1877   4.121  11.711   2.063
33349SOL     OW 1878   3.516   7.684   6.913
33349SOL    HW1 1879   3.601   7.680   6.957
33349SOL    HW2 1880   3.467   7.750   6.962
33350SOL     OW 1881   1.328   6.264   5.258
33350SOL    HW1 1882   1.281   6.347   5.248
33350SOL    HW2 1883   1.367   6.269   5.345
33351SOL     OW 1884  13.285  14.018   1.771
33351SOL    HW1 1885  13.253  13.999   1.683
33351SOL    HW2 1886  13.348  14.089   1.760
33352SOL     OW 1887  13.581   0.283   3.425
33352SOL    HW1 1888  13.567   0.188   3.433
33352SOL    HW2 1889  13.646   0.291   3.355
33353SOL     OW 1890   5.677   4.916   8.434
33353SOL    HW1 1891   5.754   4.922   8.491
33353SOL    HW2 1892   5.712   4.889   8.349
33354SOL     OW 1893  12.713  10.356   1.816
33354SOL    HW1 1894  12.801  10.379   1.846
33354SOL    HW2 1895  12.673  10.440   1.792
33355SOL     OW 1896  13.531   7.905  10.854
33355SOL    HW1 1897  13.454   7.850  10.839
33355SOL    HW2 1898  13.575   7.908  10.769
33356SOL     OW 1899   0.817  13.616  13.298
33356SOL    HW1 1900   0.897  13.583  13.340
33356SOL    HW2 1901   0.755  13.543  13.305
33357SOL     OW 1902   8.222  12.470   8.995
33357SOL    HW1 1903   8.145  12.488   9.049
33357SOL    HW2 1904   8.211  12.380   8.966
33358SOL     OW 1905   7.555   3.902   1.199
33358SOL    HW1 1906   7.472   3.929   1.238
33358SOL    HW2 1907   7.610   3.877   1.274
33359SOL     OW 1908   7.657  10.500   3.012
33359SOL    HW1 1909   7.662  10.558   3.088
33359SOL    HW2 1910   7.646  10.559   2.937
33360SOL     OW 1911   9.864   2.618   1.094
33360SOL    HW1 1912   9.948   2.656   1.120
33360SOL    HW2 1913   9.887   2.539   1.046
33361SOL     OW 1914   7.452  13.286  14.551
33361SOL    HW1 1915   7.368  13.253  14.582
33361SOL    HW2 1916   7.447  13.282  14.456
33362SOL     OW 1917  12.965   8.712   7.217
33362SOL    HW1 1918  12.880   8.678   7.190
33362SOL    HW2 1919  13.024   8.689   7.146
33363SOL     OW 1920   7.784  10.011   7.651
33363SOL    HW1 1921   7.789   9.958   7.730
33363SOL    HW2 1922   7.872  10.048   7.641
33364SOL     OW 1923   0.637   4.826  14.243
33364SOL    HW1 1924   0.673   4.906  14.206
33364SOL    HW2 1925   0.674   4.756  14.189
33365SOL     OW 1926   9.437  14.189   6.970
33365SOL    HW1 1927   9.462  14.219   6.882
33365SOL    HW2 1928   9.510  14.217   7.026
33366SOL     OW 1929   0.868   7.058   7.333
33366SOL    HW1 1930   0.835   7.127   7.391
33366SOL    HW2 1931   0.915   7.104   7.264
33367SOL     OW 1932   7.192  10.736   4.913
33367SOL    HW1 1933   7.121  10.787   4.874
33367SOL    HW2 1934   7.261  10.800   4.930
33368SOL     OW 1935   1.260  11.168   5.742
33368SOL    HW1 1936   1.301  11.245   5.702
33368SOL    HW2 1937   1.167  11.180   5.728
33369SOL     OW 1938   7.106   8.816   6.179
33369SOL    HW1 1939   7.159   8.802   6.257
33369SOL    HW2 1940   7.113   8.734   6.130
33370SOL     OW 1941   6.272   3.065   2.727
33370SOL    HW1 1942   6.228   3.144   2.760
33370SOL    HW2 1943   6.225   2.993   2.768
33371SOL     OW 1944  11.219   1.489   8.996
33371SOL    HW1 1945  11.239   1.403   9.031
33371SOL    HW2 1946  11.199   1.543   9.072
33372SOL     OW 1947   1.208   6.606  12.773
33372SOL    HW1 1948   1.178   6.697  12.765
33372SOL    HW2 1949   1.129   6.554  12.759
33373SOL     OW 1950   1.314   9.184   3.611
33373SOL    HW1 1951   1.297   9.242   3.537
33373SOL    HW2 1952   1.257   9.217   3.681
33374SOL     OW 1953   3.701   3.532   7.841
33374SOL    HW1 1954   3.670   3.541   7.751
33374SOL    HW2 1955   3.766   3.462   7.836
33375SOL     OW 1956   0.024   2.484  12.645
33375SOL    HW1 1957  14.851   2.485  12.728
33375SOL    HW2 1958   0.001   2.400  12.605
33376SOL     OW 1959  12.426   2.460  12.324
33376SOL    HW1 1960  12.498   2.518  12.348
33376SOL    HW2 1961  12.401   2.487  12.236
33377SOL     OW 1962   5.806   8.010   8.243
33377SOL    HW1 1963   5.766   8.016   8.156
33377SOL    HW2 1964   5.824   8.101   8.268
33378SOL     OW 1965   1.688   4.017   6.190
33378SOL    HW1 1966   1.777   4.015   6.226
33378SOL    HW2 1967   1.699   4.002   6.096
33379SOL     OW 1968   7.125   9.976   4.389
33379SOL    HW1 1969   7.124  10.045   4.323
33379SOL    HW2 1970   7.067   9.908   4.353
33380SOL     OW 1971   8.093   0.327  14.318
33380SOL    HW1 1972   8.051   0.248  14.283
33380SOL    HW2 1973   8.145   0.361  14.246
33381SOL     OW 1974   7.536   2.235   2.894
33381SOL    HW1 1975   7.482   2.230   2.816
33381SOL    HW2 1976   7.492   2.178   2.957
33382SOL     OW 1977  13.414   9.514  13.972
33382SOL    HW1 1978  13.370   9.430  13.957
33382SOL    HW2 1979  13.342   9.578  13.976
33383SOL     OW 1980  10.276   7.046   5.754
33383SOL    HW1 1981  10.204   7.057   5.692
33383SOL    HW2 1982  10.257   7.107   5.825
33384SOL     OW 1983   2.500   7.518   6.622
33384SOL    HW1 1984   2.535   7.532   6.534
33384SOL    HW2 1985   2.534   7.432   6.647
33385SOL     OW 1986   0.916   0.994   3.282
33385SOL    HW1 1987   1.000   0.985   3.326
33385SOL    HW2 1988   0.885   1.081   3.306
33386SOL     OW 1989   0.907   6.743  11.495
33386SOL    HW1 1990   0.925   6.768  11.405
33386SOL    HW2 1991   0.917   6.648  11.497
33387SOL     OW 1992   9.377   2.399   2.018
33387SOL    HW1 1993   9.427   2.460   2.072
33387SOL    HW2 1994   9.410   2.414   1.929
33388SOL     OW 1995   0.092   6.766   1.022
33388SOL    HW1 1996   0.029   6.813   0.967
33388SOL    HW2 1997   0.178   6.795   0.990
33389SOL     OW 1998   2.953   5.163  14.118
33389SOL    HW1 1999   2.909   5.079  14.131
33389SOL    HW2 2000   2.922   5.218  14.189
33390SOL     OW 2001  10.770  12.207   6.925
33390SOL    HW1 2002  10.742  12.264   6.853
33390SOL    HW2 2003  10.829  12.262   6.977
33391SOL     OW 2004   2.872   3.151   7.081
33391SOL    HW1 2005   2.861   3.216   7.150
33391SOL    HW2 2006   2.814   3.079   7.105
33392SOL     OW 2007   2.158  10.976   2.999
33392SOL    HW1 2008   2.084  10.931   3.042
33392SOL    HW2 2009   2.235  10.944   3.046
33393SOL     OW 2010  14.661   4.303  10.623
33393SOL    HW1 2011  14.727   4.371  10.614
33393SOL    HW2 2012  14.711   4.221  10.628
33394SOL     OW 2013   9.354   3.757  12.373
33394SOL    HW1 2014   9.364   3.823  12.304
33394SOL    HW2 2015   9.392   3.677  12.336
33395SOL     OW 2016   1.157   0.701  13.181
33395SOL    HW1 2017   1.162   0.640  13.107
33395SOL    HW2 2018   1.064   0.723  13.187
33396SOL     OW 2019  13.664  10.326   1.689
33396SOL    HW1 2020  13.757  10.350   1.687
33396SOL    HW2 2021  13.618  10.409   1.696
33397SOL     OW 2022   8.352   5.004   3.302
33397SOL    HW1 2023   8.319   5.093   3.305
33397SOL    HW2 2024   8.373   4.989   3.210
33398SOL     OW 2025  13.587   0.386  11.312
33398SOL    HW1 2026  13.624   0.302  11.339
33398SOL    HW2 2027  13.653   0.451  11.338
33399SOL     OW 2028  10.855   3.285   1.815
33399SOL    HW1 2029  10.870   3.309   1.906
33399SOL    HW2 2030  10.923   3.331   1.766
33400SOL     OW 2031   0.772   3.308   3.572
33400SOL    HW1 2032   0.822   3.379   3.532
33400SOL    HW2 2033   0.753   3.248   3.500
33401SOL     OW 2034   5.476   9.452   7.979
33401SOL    HW1 2035   5.561   9.476   7.943
33401SOL    HW2 2036   5.496   9.388   8.047
33402SOL     OW 2037  14.496  12.483   5.738
33402SOL    HW1 2038  14.479  12.573   5.711
33402SOL    HW2 2039  14.509  12.435   5.656
33403SOL     OW 2040  10.314  12.506   2.091
33403SOL    HW1 2041  10.293  12.435   2.152
33403SOL    HW2 2042  10.408  12.497   2.077
33404SOL     OW 2043   2.274  12.818   9.644
33404SOL    HW1 2044   2.281  12.799   9.738
33404SOL    HW2 2045   2.361  12.850   9.620
33405SOL     OW 2046   5.109   0.153  10.051
33405SOL    HW1 2047   5.080   0.093   9.982
33405SOL    HW2 2048   5.047   0.138  10.123
33406SOL     OW 2049   0.303   6.499   1.128
33406SOL    HW1 2050   0.213   6.511   1.159
33406SOL    HW2 2051   0.342   6.438   1.191
33407SOL     OW 2052   3.423   9.927  14.223
33407SOL    HW1 2053   3.514   9.907  14.202
33407SOL    HW2 2054   3.373   9.856  14.184
33408SOL     OW 2055   1.210  11.422   0.614
33408SOL    HW1 2056   1.156  11.497   0.587
33408SOL    HW2 2057   1.197  11.357   0.546
33409SOL     OW 2058   7.004   7.022   1.223
33409SOL    HW1 2059   7.044   6.945   1.263
33409SOL    HW2 2060   6.995   6.999   1.130
33410SOL     OW 2061  12.244  14.337   9.297
33410SOL    HW1 2062  12.295  14.304   9.370
33410SOL    HW2 2063  12.156  14.350   9.332
33411SOL     OW 2064   1.123   5.049   0.574
33411SOL    HW1 2065   1.089   5.139   0.573
33411SOL    HW2 2066   1.171   5.041   0.492
33412SOL     OW 2067   2.554  13.533   7.470
33412SOL    HW1 2068   2.507  13.600   7.519
33412SOL    HW2 2069   2.634  13.519   7.519
33413SOL     OW 2070   4.836   6.328   4.640
33413SOL    HW1 2071   4.835   6.353   4.733
33413SOL    HW2 2072   4.928   6.327   4.616
33414SOL     OW 2073   5.090   9.101   2.862
33414SOL    HW1 2074   5.035   9.061   2.930
33414SOL    HW2 2075   5.135   9.173   2.907
33415SOL     OW 2076   7.245  12.263  12.713
33415SOL    HW1 2077   7.229  12.300  12.626
33415SOL    HW2 2078   7.299  12.186  12.697
33416SOL     OW 2079   0.993   9.850  12.906
33416SOL    HW1 2080   0.956   9.933  12.935
33416SOL    HW2 2081   1.085   9.854  12.935
33417SOL     OW 2082   1.198  10.742  11.767
33417SOL    HW1 2083   1.216  10.698  11.850
33417SOL    HW2 2084   1.121  10.697  11.732
33418SOL     OW 2085   3.565   5.124  13.084
33418SOL    HW1 2086   3.616   5.159  13.012
33418SOL    HW2 2087   3.497   5.071  13.043
33419SOL     OW 2088   9.686   5.132  11.418
33419SOL    HW1 2089   9.611   5.084  11.451
33419SOL    HW2 2090   9.761   5.077  11.440
33420SOL     OW 2091   0.059  14.694   1.970
33420SOL    HW1 2092   0.137  14.650   1.934
33420SOL    HW2 2093   0.025  14.633   2.035
33421SOL     OW 2094   0.783   0.223   0.379
33421SOL    HW1 2095   0.699   0.268   0.372
33421SOL    HW2 2096   0.845   0.280   0.334
33422SOL     OW 2097   2.883   7.710  14.458
33422SOL    HW1 2098   2.966   7.757  14.456
33422SOL    HW2 2099   2.903   7.625  14.419
33423SOL     OW 2100   3.057   5.899   3.480
33423SOL    HW1 2101   3.058   5.900   3.384
33423SOL    HW2 2102   3.148   5.917   3.504
33424SOL     OW 2103   0.709   8.563   7.401
33424SOL    HW1 2104   0.618   8.566   7.430
33424SOL    HW2 2105   0.757   8.527   7.475
33425SOL     OW 2106  10.979   5.448   5.037
33425SOL    HW1 2107  10.958   5.524   5.092
33425SOL    HW2 2108  10.904   5.440   4.978
33426SOL     OW 2109   2.739  11.594   4.837
33426SOL    HW1 2110   2.742  11.688   4.854
33426SOL    HW2 2111   2.784  11.555   4.912
33427SOL     OW 2112  12.993   4.070   2.980
33427SOL    HW1 2113  12.951   4.024   3.052
33427SOL    HW2 2114  13.015   4.001   2.917
33428SOL     OW 2115   2.995   8.585   9.579
33428SOL    HW1 2116   2.998   8.491   9.567
33428SOL    HW2 2117   3.081   8.608   9.616
33429SOL     OW 2118   0.208   8.097   2.821
33429SOL    HW1 2119   0.242   8.131   2.903
33429SOL    HW2 2120   0.125   8.144   2.808
33430SOL     OW 2121   6.581   1.340   2.920
33430SOL    HW1 2122   6.641   1.283   2.968
33430SOL    HW2 2123   6.555   1.289   2.844
33431SOL     OW 2124   1.107   2.467   7.815
33431SOL    HW1 2125   1.198   2.459   7.788
33431SOL    HW2 2126   1.069   2.380   7.798
33432SOL     OW 2127   7.180  14.811   6.392
33432SOL    HW1 2128   7.176  14.852   6.478
33432SOL    HW2 2129   7.269  14.828   6.361
33433SOL     OW 2130   5.236   5.474  12.995
33433SOL    HW1 2131   5.173   5.403  12.991
33433SOL    HW2 2132   5.189   5.549  12.958
33434SOL     OW 2133  13.447   5.447   0.579
33434SOL    HW1 2134  13.428   5.541   0.581
33434SOL    HW2 2135  13.414   5.414   0.661
33435SOL     OW 2136   4.508   3.858  11.523
33435SOL    HW1 2137   4.469   3.944  11.536
33435SOL    HW2 2138   4.459   3.819  11.451
33436SOL     OW 2139   8.556  12.459   6.156
33436SOL    HW1 2140   8.503  12.441   6.234
33436SOL    HW2 2141   8.545  12.552   6.140
33437SOL     OW 2142  10.547   0.883   7.926
33437SOL    HW1 2143  10.482   0.947   7.896
33437SOL    HW2 2144  10.631   0.923   7.907
33438SOL     OW 2145  11.544   7.725   0.761
33438SOL    HW1 2146  11.465   7.680   0.732
33438SOL    HW2 2147  11.555   7.797   0.700
33439SOL     OW 2148   4.778   9.712   1.891
33439SOL    HW1 2149   4.829   9.672   1.962
33439SOL    HW2 2150   4.712   9.646   1.870
33440SOL     OW 2151   3.259   3.139  13.217
33440SOL    HW1 2152   3.340   3.107  13.255
33440SOL    HW2 2153   3.268   3.234  13.217
33441SOL     OW 2154  11.365   7.262   2.890
33441SOL    HW1 2155  11.346   7.227   2.977
33441SOL    HW2 2156  11.409   7.345   2.906
33442SOL     OW 2157   3.858   3.376  11.237
33442SOL    HW1 2158   3.802   3.314  11.284
33442SOL    HW2 2159   3.824   3.462  11.262
33443SOL     OW 2160   1.373   6.410   7.673
33443SOL    HW1 2161   1.331   6.449   7.596
33443SOL    HW2 2162   1.444   6.471   7.694
33444SOL     OW 2163  11.714   1.855  14.825
33444SOL    HW1 2164  11.710   1.804   0.030
33444SOL    HW2 2165  11.802   1.893  14.825
33445SOL     OW 2166  11.444   5.195  12.242
33445SOL    HW1 2167  11.502   5.268  12.223
33445SOL    HW2 2168  11.502   5.121  12.260
33446SOL     OW 2169  10.947   0.818   9.210
33446SOL    HW1 2170  10.996   0.858   9.137
33446SOL    HW2 2171  10.914   0.736   9.174
33447SOL     OW 2172  14.223   2.334   8.099
33447SOL    HW1 2173  14.304   2.319   8.050
33447SOL    HW2 2174  14.160   2.272   8.061
33448SOL     OW 2175   5.572  11.733   0.983
33448SOL    HW1 2176   5.506  11.686   1.035
33448SOL    HW2 2177   5.545  11.720   0.892
33449SOL     OW 2178   4.946  14.284   1.332
33449SOL    HW1 2179   5.000  14.358   1.304
33449SOL    HW2 2180   4.995  14.207   1.304
33450SOL     OW 2181  12.699   3.560   2.388
33450SOL    HW1 2182  12.745   3.629   2.434
33450SOL    HW2 2183  12.606   3.579   2.402
33451SOL     OW 2184   3.648   2.042   9.776
33451SOL    HW1 2185   3.713   1.997   9.723
33451SOL    HW2 2186   3.580   1.976   9.791
33452SOL     OW 2187   2.349   4.840   9.169
33452SOL    HW1 2188   2.351   4.746   9.186
33452SOL    HW2 2189   2.288   4.850   9.095
33453SOL     OW 2190  10.973  13.429   2.478
33453SOL    HW1 2191  10.884  13.394   2.485
33453SOL    HW2 2192  10.962  13.523   2.488
33454SOL     OW 2193   4.585  12.099   7.131
33454SOL    HW1 2194   4.526  12.033   7.096
33454SOL    HW2 2195   4.655  12.050   7.173
33455SOL     OW 2196  14.796   6.853  12.718
33455SOL    HW1 2197  14.829   6.801  12.645
33455SOL    HW2 2198  14.738   6.918  12.678
33456SOL     OW 2199   0.314   0.338   1.919
33456SOL    HW1 2200   0.406   0.332   1.892
33456SOL    HW2 2201   0.265   0.305   1.843
33457SOL     OW 2202  12.740   6.343   4.927
33457SOL    HW1 2203  12.778   6.431   4.920
33457SOL    HW2 2204  12.729   6.329   5.021
33458SOL     OW 2205  14.707   1.540   1.160
33458SOL    HW1 2206  14.746   1.508   1.242
33458SOL    HW2 2207  14.649   1.611   1.187
33459SOL     OW 2208   1.952   5.964   3.936
33459SOL    HW1 2209   1.936   5.872   3.957
33459SOL    HW2 2210   1.903   6.013   4.001
33460SOL     OW 2211   7.576  11.052   9.265
33460SOL    HW1 2212   7.593  11.134   9.218
33460SOL    HW2 2213   7.488  11.062   9.301
33461SOL     OW 2214   2.685   0.621   3.457
33461SOL    HW1 2215   2.590   0.607   3.456
33461SOL    HW2 2216   2.701   0.672   3.536
33462SOL     OW 2217   2.869   0.965   5.960
33462SOL    HW1 2218   2.908   0.889   6.001
33462SOL    HW2 2219   2.849   1.024   6.033
33463SOL     OW 2220  10.234   8.794   9.775
33463SOL    HW1 2221  10.140   8.796   9.757
33463SOL    HW2 2222  10.275   8.825   9.693
33464SOL     OW 2223   3.637   8.575  14.248
33464SOL    HW1 2224   3.678   8.661  14.241
33464SOL    HW2 2225   3.553   8.585  14.203
33465SOL     OW 2226   8.440  13.858   2.976
33465SOL    HW1 2227   8.410  13.935   3.024
33465SOL    HW2 2228   8.374  13.791   2.995
33466SOL     OW 2229   8.951   3.905   5.715
33466SOL    HW1 2230   8.945   3.810   5.726
33466SOL    HW2 2231   8.945   3.918   5.620
33467SOL     OW 2232   3.306  12.974   1.122
33467SOL    HW1 2233   3.262  12.895   1.156
33467SOL    HW2 2234   3.235  13.037   1.110
33468SOL     OW 2235   6.155  12.953  10.671
33468SOL    HW1 2236   6.140  12.982  10.581
33468SOL    HW2 2237   6.130  13.027  10.726
33469SOL     OW 2238  10.789   3.727   3.830
33469SOL    HW1 2239  10.829   3.745   3.915
33469SOL    HW2 2240  10.815   3.637   3.810
33470SOL     OW 2241  14.595   5.913   6.357
33470SOL    HW1 2242  14.519   5.961   6.389
33470SOL    HW2 2243  14.623   5.962   6.279
33471SOL     OW 2244   1.272   0.619   7.714
33471SOL    HW1 2245   1.234   0.541   7.755
33471SOL    HW2 2246   1.359   0.591   7.686
33472SOL     OW 2247   8.828   3.051   8.167
33472SOL    HW1 2248   8.908   3.017   8.207
33472SOL    HW2 2249   8.814   3.135   8.209
33473SOL     OW 2250   7.627  14.563   5.963
33473SOL    HW1 2251   7.665  14.481   5.932
33473SOL    HW2 2252   7.570  14.537   6.036
33474SOL     OW 2253   9.193   5.710   8.478
33474SOL    HW1 2254   9.099   5.712   8.461
33474SOL    HW2 2255   9.232   5.682   8.396
33475SOL     OW 2256  10.476   3.535   7.139
33475SOL    HW1 2257  10.550   3.519   7.197
33475SOL    HW2 2258  10.407   3.567   7.196
33476SOL     OW 2259  12.964  11.542  13.988
33476SOL    HW1 2260  12.890  11.583  13.942
33476SOL    HW2 2261  13.012  11.616  14.026
33477SOL     OW 2262  12.507   0.703   6.165
33477SOL    HW1 2263  12.540   0.749   6.242
33477SOL    HW2 2264  12.579   0.706   6.103
33478SOL     OW 2265   0.957   7.451   4.239
33478SOL    HW1 2266   0.875   7.426   4.197
33478SOL    HW2 2267   0.979   7.536   4.200
33479SOL     OW 2268   6.429   1.088   8.872
33479SOL    HW1 2269   6.407   1.132   8.790
33479SOL    HW2 2270   6.418   0.995   8.853
33480SOL     OW 2271  10.401   1.672   4.226
33480SOL    HW1 2272  10.408   1.726   4.305
33480SOL    HW2 2273  10.451   1.719   4.160
33481SOL     OW 2274   5.817   9.370   4.164
33481SOL    HW1 2275   5.863   9.440   4.117
33481SOL    HW2 2276   5.726   9.380   4.138
33482SOL     OW 2277   4.024   5.864   0.987
33482SOL    HW1 2278   4.054   5.829   0.903
33482SOL    HW2 2279   4.091   5.928   1.011
33483SOL     OW 2280   3.435  12.541   4.733
33483SOL    HW1 2281   3.444  12.457   4.778
33483SOL    HW2 2282   3.525  12.569   4.715
33484SOL     OW 2283   4.526  14.143  13.353
33484SOL    HW1 2284   4.600  14.094  13.319
33484SOL    HW2 2285   4.564  14.201  13.419
33485SOL     OW 2286   1.041   2.860   1.991
33485SOL    HW1 2287   1.002   2.825   2.071
33485SOL    HW2 2288   1.042   2.786   1.930
33486SOL     OW 2289   9.451   9.368   5.764
33486SOL    HW1 2290   9.401   9.296   5.803
33486SOL    HW2 2291   9.415   9.376   5.675
33487SOL     OW 2292  14.377   9.284   1.842
33487SOL    HW1 2293  14.297   9.235   1.856
33487SOL    HW2 2294  14.390   9.282   1.747
33488SOL     OW 2295  12.401   0.459   2.062
33488SOL    HW1 2296  12.399   0.371   2.025
33488SOL    HW2 2297  12.310   0.480   2.080
33489SOL     OW 2298   3.140  13.560   9.209
33489SOL    HW1 2299   3.218  13.589   9.256
33489SOL    HW2 2300   3.173  13.505   9.139
33490SOL     OW 2301  11.556   7.574   8.332
33490SOL    HW1 2302  11.520   7.640   8.273
33490SOL    HW2 2303  11.479   7.533   8.370
33491SOL     OW 2304   6.904  14.180   3.094
33491SOL    HW1 2305   6.828  14.212   3.142
33491SOL    HW2 2306   6.973  14.242   3.115
33492SOL     OW 2307  11.252   0.983   7.034
33492SOL    HW1 2308  11.333   0.940   7.061
33492SOL    HW2 2309  11.239   1.053   7.098
33493SOL     OW 2310   4.072  11.908   9.524
33493SOL    HW1 2311   3.998  11.879   9.471
33493SOL    HW2 2312   4.147  11.907   9.465
33494SOL     OW 2313  11.234   4.953   4.670
33494SOL    HW1 2314  11.277   4.994   4.745
33494SOL    HW2 2315  11.301   4.954   4.601
33495SOL     OW 2316   0.993  11.590   8.021
33495SOL    HW1 2317   0.958  11.534   7.952
33495SOL    HW2 2318   1.029  11.530   8.085
33496SOL     OW 2319   9.094  10.740  11.555
33496SOL    HW1 2320   9.150  10.683  11.502
33496SOL    HW2 2321   9.030  10.680  11.594
33497SOL     OW 2322   1.647   7.290  12.083
33497SOL    HW1 2323   1.605   7.371  12.113
33497SOL    HW2 2324   1.612   7.276  11.995
33498SOL     OW 2325  13.943   2.057  12.148
33498SOL    HW1 2326  13.873   2.120  12.133
33498SOL    HW2 2327  13.925   1.986  12.087
33499SOL     OW 2328   7.952  10.370   4.903
33499SOL    HW1 2329   7.893  10.435   4.941
33499SOL    HW2 2330   8.024  10.423   4.866
33500SOL     OW 2331   1.786   9.783  12.576
33500SOL    HW1 2332   1.719   9.749  12.636
33500SOL    HW2 2333   1.743   9.783  12.490
33501SOL     OW 2334  11.316   2.936   9.357
33501SOL    HW1 2335  11.226   2.962   9.376
33501SOL    HW2 2336  11.369   2.985   9.419
33502SOL     OW 2337   5.547   6.228   8.715
33502SOL    HW1 2338   5.500   6.165   8.661
33502SOL    HW2 2339   5.601   6.175   8.773
33503SOL     OW 2340  13.126   1.358   5.243
33503SOL    HW1 2341  13.050   1.309   5.212
33503SOL    HW2 2342  13.201   1.306   5.216
33504SOL     OW 2343   5.524   1.946   3.694
33504SOL    HW1 2344   5.548   1.927   3.784
33504SOL    HW2 2345   5.439   1.990   3.701
33505SOL     OW 2346  10.412   0.398  11.792
33505SOL    HW1 2347  10.361   0.465  11.837
33505SOL    HW2 2348  10.373   0.394  11.704
33506SOL     OW 2349  11.352   1.376   7.165
33506SOL    HW1 2350  11.278   1.315   7.154
33506SOL    HW2 2351  11.362   1.384   7.260
33507SOL     OW 2352   4.892   7.432  13.916
33507SOL    HW1 2353   4.839   7.472  13.847
33507SOL    HW2 2354   4.891   7.497  13.987
33508SOL     OW 2355   6.798   2.081  10.743
33508SOL    HW1 2356   6.855   2.145  10.701
33508SOL    HW2 2357   6.732   2.061  10.677
33509SOL     OW 2358   1.805   2.462   1.651
33509SOL    HW1 2359   1.724   2.413   1.668
33509SOL    HW2 2360   1.863   2.398   1.610
33510SOL     OW 2361  14.870   9.976  11.426
33510SOL    HW1 2362  14.847   9.921  11.501
33510SOL    HW2 2363  14.801   9.959  11.362
33511SOL     OW 2364   1.118   6.954  13.782
33511SOL    HW1 2365   1.163   6.929  13.863
33511SOL    HW2 2366   1.087   7.043  13.798
33512SOL     OW 2367   2.350   9.900  12.266
33512SOL    HW1 2368   2.418   9.955  12.228
33512SOL    HW2 2369   2.268   9.942  12.239
33513SOL     OW 2370   1.412   6.517   1.724
33513SOL    HW1 2371   1.429   6.490   1.814
33513SOL    HW2 2372   1.317   6.529   1.721
33514SOL     OW 2373   8.814   5.231   8.492
33514SOL    HW1 2374   8.870   5.281   8.551
33514SOL    HW2 2375   8.741   5.203   8.548
33515SOL     OW 2376  14.427   7.741   1.746
33515SOL    HW1 2377  14.480   7.661   1.742
33515SOL    HW2 2378  14.337   7.710   1.754
33516SOL     OW 2379   3.069  13.622   3.282
33516SOL    HW1 2380   2.976  13.614   3.307
33516SOL    HW2 2381   3.074  13.705   3.236
33517SOL     OW 2382   2.449  12.629   0.497
33517SOL    HW1 2383   2.394  12.560   0.534
33517SOL    HW2 2384   2.516  12.645   0.564
33518SOL     OW 2385   4.044  11.455   8.600
33518SOL    HW1 2386   3.995  11.380   8.565
33518SOL    HW2 2387   4.122  11.460   8.546
33519SOL     OW 2388   8.817  12.100  11.545
33519SOL    HW1 2389   8.723  12.111  11.557
33519SOL    HW2 2390   8.838  12.018  11.589
33520SOL     OW 2391   3.524  10.990   6.941
33520SOL    HW1 2392   3.619  10.998   6.943
33520SOL    HW2 2393   3.507  10.899   6.965
33521SOL     OW 2394   9.619   0.677   9.208
33521SOL    HW1 2395   9.690   0.619   9.235
33521SOL    HW2 2396   9.646   0.709   9.121
33522SOL     OW 2397  10.865   9.651   1.971
33522SOL    HW1 2398  10.813   9.659   2.051
33522SOL    HW2 2399  10.828   9.575   1.925
33523SOL     OW 2400   3.536   8.957   7.022
33523SOL    HW1 2401   3.458   9.011   7.010
33523SOL    HW2 2402   3.583   8.964   6.938
33524SOL     OW 2403  13.906   8.763   4.405
33524SOL    HW1 2404  13.874   8.740   4.492
33524SOL    HW2 2405  13.994   8.798   4.420
33525SOL     OW 2406   1.315   5.774  11.972
33525SOL    HW1 2407   1.242   5.828  12.002
33525SOL    HW2 2408   1.380   5.782  12.041
33526SOL     OW 2409   7.841   3.863  13.219
33526SOL    HW1 2410   7.907   3.806  13.180
33526SOL    HW2 2411   7.886   3.905  13.292
33527SOL     OW 2412  12.797   7.363  14.375
33527SOL    HW1 2413  12.880   7.389  14.335
33527SOL    HW2 2414  12.811   7.272  14.401
33528SOL     OW 2415   0.568   3.584  11.826
33528SOL    HW1 2416   0.603   3.534  11.752
33528SOL    HW2 2417   0.511   3.649  11.787
33529SOL     OW 2418   6.856  11.631  13.977
33529SOL    HW1 2419   6.882  11.720  14.002
33529SOL    HW2 2420   6.776  11.643  13.926
33530SOL     OW 2421  10.591   8.684   8.421
33530SOL    HW1 2422  10.572   8.594   8.394
33530SOL    HW2 2423  10.507   8.718   8.451
33531SOL     OW 2424   3.427   3.471  11.288
33531SOL    HW1 2425   3.400   3.504  11.202
33531SOL    HW2 2426   3.513   3.512  11.303
33532SOL     OW 2427   1.913  13.558   5.380
33532SOL    HW1 2428   1.909  13.612   5.458
33532SOL    HW2 2429   1.889  13.470   5.410
33533SOL     OW 2430   7.738   7.273   9.903
33533SOL    HW1 2431   7.655   7.278   9.951
33533SOL    HW2 2432   7.803   7.312   9.961
33534SOL     OW 2433   8.101   6.503   3.136
33534SOL    HW1 2434   8.037   6.460   3.193
33534SOL    HW2 2435   8.186   6.479   3.175
33535SOL     OW 2436   7.276   0.883   4.625
33535SOL    HW1 2437   7.294   0.849   4.537
33535SOL    HW2 2438   7.181   0.895   4.626
33536SOL     OW 2439   6.152  12.013   6.397
33536SOL    HW1 2440   6.151  11.974   6.309
33536SOL    HW2 2441   6.082  12.079   6.394
33537SOL     OW 2442  10.041  11.340  13.851
33537SOL    HW1 2443  10.055  11.382  13.936
33537SOL    HW2 2444  10.100  11.265  13.851
33538SOL     OW 2445  12.342  12.022  11.865
33538SOL    HW1 2446  12.306  12.058  11.784
33538SOL    HW2 2447  12.273  11.963  11.897
33539SOL     OW 2448   6.812  10.526  13.633
33539SOL    HW1 2449   6.906  10.506  13.629
33539SOL    HW2 2450   6.807  10.619  13.612
33540SOL     OW 2451  13.118   9.601   2.807
33540SOL    HW1 2452  13.133   9.691   2.837
33540SOL    HW2 2453  13.025   9.586   2.824
33541SOL     OW 2454  10.444  12.273   1.679
33541SOL    HW1 2455  10.457  12.363   1.650
33541SOL    HW2 2456  10.438  12.222   1.599
33542SOL     OW 2457   9.287  10.469  11.706
33542SOL    HW1 2458   9.222  10.524  11.749
33542SOL    HW2 2459   9.279  10.491  11.613
33543SOL     OW 2460   9.496   5.654   9.098
33543SOL    HW1 2461   9.401   5.656   9.108
33543SOL    HW2 2462   9.528   5.708   9.170
33544SOL     OW 2463  10.771   8.570   5.094
33544SOL    HW1 2464  10.799   8.598   5.007
33544SOL    HW2 2465  10.788   8.646   5.150
33545SOL     OW 2466  10.436   5.871  13.872
33545SOL    HW1 2467  10.435   5.834  13.961
33545SOL    HW2 2468  10.470   5.959  13.884
33546SOL     OW 2469  14.189  11.395  12.600
33546SOL    HW1 2470  14.167  11.419  12.510
33546SOL    HW2 2471  14.105  11.397  12.647
33547SOL     OW 2472  14.871   2.254  11.759
33547SOL    HW1 2473  14.796   2.255  11.819
33547SOL    HW2 2474   0.053   2.187  11.795
33548SOL     OW 2475   4.138   1.666   6.230
33548SOL    HW1 2476   4.136   1.759   6.206
33548SOL    HW2 2477   4.222   1.655   6.275
33549SOL     OW 2478   3.278  12.008   8.720
33549SOL    HW1 2479   3.260  11.917   8.743
33549SOL    HW2 2480   3.283  12.054   8.805
33550SOL     OW 2481  10.109   4.697   3.920
33550SOL    HW1 2482  10.162   4.632   3.874
33550SOL    HW2 2483  10.076   4.754   3.851
33551SOL     OW 2484   5.409   7.716   1.148
33551SOL    HW1 2485   5.403   7.769   1.227
33551SOL    HW2 2486   5.502   7.693   1.141
33552SOL     OW 2487  12.265   2.351   0.660
33552SOL    HW1 2488  12.210   2.359   0.738
33552SOL    HW2 2489  12.347   2.394   0.685
33553SOL     OW 2490  12.338   7.108  12.757
33553SOL    HW1 2491  12.285   7.076  12.684
33553SOL    HW2 2492  12.415   7.148  12.715
33554SOL     OW 2493  10.436  11.814   3.178
33554SOL    HW1 2494  10.433  11.898   3.133
33554SOL    HW2 2495  10.483  11.831   3.260
33555SOL     OW 2496   0.832  13.141  13.483
33555SOL    HW1 2497   0.922  13.168  13.496
33555SOL    HW2 2498   0.782  13.187  13.550
33556SOL     OW 2499   6.221   5.018   5.529
33556SOL    HW1 2500   6.188   5.097   5.486
33556SOL    HW2 2501   6.144   4.964   5.544
33557SOL     OW 2502   6.113  10.945   4.486
33557SOL    HW1 2503   6.136  10.970   4.396
33557SOL    HW2 2504   6.197  10.940   4.532
33558SOL     OW 2505   6.739  11.165   0.490
33558SOL    HW1 2506   6.741  11.252   0.450
33558SOL    HW2 2507   6.736  11.105   0.416
33559SOL     OW 2508   2.507  12.402   3.340
33559SOL    HW1 2509   2.581  12.374   3.286
33559SOL    HW2 2510   2.445  12.440   3.278
33560SOL     OW 2511   1.165   9.803  10.398
33560SOL    HW1 2512   1.100   9.818  10.467
33560SOL    HW2 2513   1.116   9.766  10.325
33561SOL     OW 2514  13.254  11.594   8.946
33561SOL    HW1 2515  13.213  11.669   8.904
33561SOL    HW2 2516  13.214  11.518   8.903
33562SOL     OW 2517   9.468   4.766  11.765
33562SOL    HW1 2518   9.524   4.827  11.812
33562SOL    HW2 2519   9.380   4.787  11.795
33563SOL     OW 2520   4.631  11.160   6.343
33563SOL    HW1 2521   4.539  11.155   6.370
33563SOL    HW2 2522   4.629  11.149   6.248
33564SOL     OW 2523   1.070   5.384   6.999
33564SOL    HW1 2524   1.165   5.387   7.014
33564SOL    HW2 2525   1.045   5.476   6.987
33565SOL     OW 2526   9.734   0.811  14.539
33565SOL    HW1 2527   9.726   0.883  14.602
33565SOL    HW2 2528   9.699   0.848  14.457
33566SOL     OW 2529   3.935   5.424   2.042
33566SOL    HW1 2530   3.934   5.343   2.092
33566SOL    HW2 2531   3.860   5.474   2.074
33567SOL     OW 2532  11.279   0.031  12.569
33567SOL    HW1 2533  11.216   0.014  12.498
33567SOL    HW2 2534  11.352  14.847  12.551
33568SOL     OW 2535   1.637   9.851   1.376
33568SOL    HW1 2536   1.577   9.925   1.371
33568SOL    HW2 2537   1.720   9.889   1.404
33569SOL     OW 2538   7.675   3.463  12.584
33569SOL    HW1 2539   7.709   3.541  12.627
33569SOL    HW2 2540   7.657   3.491  12.494
33570SOL     OW 2541  10.338   0.829   4.456
33570SOL    HW1 2542  10.251   0.846   4.491
33570SOL    HW2 2543  10.354   0.736   4.473
33571SOL     OW 2544  13.159   3.557   5.291
33571SOL    HW1 2545  13.206   3.637   5.265
33571SOL    HW2 2546  13.228   3.494   5.309
33572SOL     OW 2547   6.806   9.225  10.692
33572SOL    HW1 2548   6.739   9.258  10.752
33572SOL    HW2 2549   6.792   9.131  10.689
33573SOL     OW 2550   2.830   1.049  13.833
33573SOL    HW1 2551   2.844   1.014  13.921
33573SOL    HW2 2552   2.833   0.972  13.777
33574SOL     OW 2553   1.994   1.694   1.614
33574SOL    HW1 2554   2.073   1.692   1.669
33574SOL    HW2 2555   2.002   1.775   1.564
33575SOL     OW 2556   3.396  11.749   2.370
33575SOL    HW1 2557   3.402  11.671   2.315
33575SOL    HW2 2558   3.483  11.758   2.408
33576SOL     OW 2559   2.912  11.444  10.285
33576SOL    HW1 2560   2.966  11.374  10.322
33576SOL    HW2 2561   2.918  11.430  10.190
33577SOL     OW 2562  11.104  11.586   7.819
33577SOL    HW1 2563  11.094  11.618   7.729
33577SOL    HW2 2564  11.018  11.553   7.843
33578SOL     OW 2565   3.018   6.759   2.651
33578SOL    HW1 2566   3.040   6.849   2.628
33578SOL    HW2 2567   2.924   6.753   2.638
33579SOL     OW 2568   5.892  11.741  14.178
33579SOL    HW1 2569   5.928  11.657  14.148
33579SOL    HW2 2570   5.888  11.795  14.099
33580SOL     OW 2571  11.038  12.971   6.430
33580SOL    HW1 2572  10.965  12.954   6.489
33580SOL    HW2 2573  11.076  13.053   6.460
33581SOL     OW 2574  11.941  11.485   4.016
33581SOL    HW1 2575  11.964  11.392   4.019
33581SOL    HW2 2576  12.024  11.530   4.035
33582SOL     OW 2577  11.272  14.813  13.506
33582SOL    HW1 2578  11.361  14.793  13.535
33582SOL    HW2 2579  11.268  14.779  13.416
33583SOL     OW 2580   7.677   8.523   9.354
33583SOL    HW1 2581   7.739   8.466   9.400
33583SOL    HW2 2582   7.659   8.478   9.272
33584SOL     OW 2583   6.262   0.116  14.603
33584SOL    HW1 2584   6.305   0.202  14.597
33584SOL    HW2 2585   6.255   0.087  14.512
33585SOL     OW 2586   0.802  13.826  13.107
33585SOL    HW1 2587   0.736  13.816  13.038
33585SOL    HW2 2588   0.782  13.757  13.170
33586SOL     OW 2589  10.618   5.151  13.938
33586SOL    HW1 2590  10.562   5.226  13.959
33586SOL    HW2 2591  10.628   5.155  13.843
33587SOL     OW 2592   9.590   2.485  12.409
33587SOL    HW1 2593   9.559   2.453  12.325
33587SOL    HW2 2594   9.617   2.575  12.393
33588SOL     OW 2595   7.183   7.168   7.964
33588SOL    HW1 2596   7.121   7.203   7.900
33588SOL    HW2 2597   7.130   7.140   8.038
33589SOL     OW 2598   7.135   3.795  10.680
33589SOL    HW1 2599   7.108   3.856  10.749
33589SOL    HW2 2600   7.229   3.810  10.670
33590SOL     OW 2601   9.391   2.535   6.797
33590SOL    HW1 2602   9.444   2.610   6.773
33590SOL    HW2 2603   9.451   2.460   6.794
33591SOL     OW 2604   3.511   2.031  10.637
33591SOL    HW1 2605   3.591   1.979  10.630
33591SOL    HW2 2606   3.504   2.076  10.553
33592SOL     OW 2607   4.827   1.204   1.864
33592SOL    HW1 2608   4.879   1.283   1.880
33592SOL    HW2 2609   4.802   1.211   1.772
33593SOL     OW 2610   8.533   9.206   8.699
33593SOL    HW1 2611   8.575   9.209   8.785
33593SOL    HW2 2612   8.593   9.155   8.644
33594SOL     OW 2613  13.261   7.034   0.475
33594SOL    HW1 2614  13.336   7.027   0.415
33594SOL    HW2 2615  13.294   6.999   0.558
33595SOL     OW 2616  10.827   8.669  12.732
33595SOL    HW1 2617  10.761   8.728  12.767
33595SOL    HW2 2618  10.778   8.593  12.702
33596SOL     OW 2619   6.404   2.902   6.073
33596SOL    HW1 2620   6.358   2.936   6.149
33596SOL    HW2 2621   6.335   2.873   6.013
33597SOL     OW 2622  11.121  12.872   8.502
33597SOL    HW1 2623  11.177  12.797   8.484
33597SOL    HW2 2624  11.178  12.935   8.546
33598SOL     OW 2625  11.467   5.510   2.459
33598SOL    HW1 2626  11.437   5.601   2.462
33598SOL    HW2 2627  11.389   5.460   2.436
33599SOL     OW 2628   8.074   0.161   1.905
33599SOL    HW1 2629   8.110   0.182   1.991
33599SOL    HW2 2630   7.981   0.145   1.922
33600SOL     OW 2631  11.172  13.628   8.790
33600SOL    HW1 2632  11.127  13.712   8.792
33600SOL    HW2 2633  11.250  13.641   8.844
33601SOL     OW 2634  10.169   1.778   2.986
33601SOL    HW1 2635  10.106   1.722   2.941
33601SOL    HW2 2636  10.117   1.826   3.049
33602SOL     OW 2637   1.204   4.730   1.099
33602SOL    HW1 2638   1.183   4.650   1.148
33602SOL    HW2 2639   1.284   4.709   1.051
33603SOL     OW 2640   1.393   4.413  11.015
33603SOL    HW1 2641   1.368   4.326  10.982
33603SOL    HW2 2642   1.369   4.411  11.108
33604SOL     OW 2643   4.826   4.017   1.986
33604SOL    HW1 2644   4.902   3.976   1.944
33604SOL    HW2 2645   4.804   4.091   1.931
33605SOL     OW 2646  12.691  14.158   4.922
33605SOL    HW1 2647  12.596  14.171   4.928
33605SOL    HW2 2648  12.705  14.071   4.960
33606SOL     OW 2649   0.828   6.643  12.062
33606SOL    HW1 2650   0.904   6.619  12.008
33606SOL    HW2 2651   0.855   6.621  12.151
33607SOL     OW 2652   1.096   9.289  12.932
33607SOL    HW1 2653   1.154   9.250  12.867
33607SOL    HW2 2654   1.129   9.379  12.943
33608SOL     OW 2655   7.603   7.548   6.643
33608SOL    HW1 2656   7.594   7.483   6.573
33608SOL    HW2 2657   7.544   7.619   6.618
33609SOL     OW 2658  11.529   1.740   7.642
33609SOL    HW1 2659  11.546   1.774   7.554
33609SOL    HW2 2660  11.608   1.759   7.692
33610SOL     OW 2661  11.039   4.827  14.483
33610SOL    HW1 2662  11.016   4.786  14.400
33610SOL    HW2 2663  10.977   4.900  14.492
33611SOL     OW 2664   2.767  11.193  12.746
33611SOL    HW1 2665   2.730  11.271  12.787
33611SOL    HW2 2666   2.860  11.213  12.735
33612SOL     OW 2667   2.625   4.211   2.403
33612SOL    HW1 2668   2.655   4.130   2.363
33612SOL    HW2 2669   2.685   4.226   2.476
33613SOL     OW 2670   5.948  13.641  13.305
33613SOL    HW1 2671   5.917  13.655  13.215
33613SOL    HW2 2672   6.014  13.709  13.318
33614SOL     OW 2673   5.391   1.475   7.429
33614SOL    HW1 2674   5.472   1.502   7.386
33614SOL    HW2 2675   5.406   1.384   7.455
33615SOL     OW 2676  12.967  12.289  11.652
33615SOL    HW1 2677  12.999  12.266  11.739
33615SOL    HW2 2678  12.900  12.223  11.633
33616SOL     OW 2679   3.335  12.386   9.274
33616SOL    HW1 2680   3.428  12.379   9.253
33616SOL    HW2 2681   3.313  12.477   9.258
33617SOL     OW 2682   7.779  14.644   7.193
33617SOL    HW1 2683   7.704  14.701   7.210
33617SOL    HW2 2684   7.845  14.703   7.157
33618SOL     OW 2685  13.698   2.939  11.131
33618SOL    HW1 2686  13.659   2.966  11.214
33618SOL    HW2 2687  13.631   2.959  11.065
33619SOL     OW 2688   6.985   8.977   3.943
33619SOL    HW1 2689   6.925   8.943   3.876
33619SOL    HW2 2690   7.072   8.952   3.913
33620SOL     OW 2691   2.748   9.553   5.924
33620SOL    HW1 2692   2.670   9.589   5.884
33620SOL    HW2 2693   2.720   9.526   6.012
33621SOL     OW 2694   2.886   6.264   7.413
33621SOL    HW1 2695   2.916   6.227   7.330
33621SOL    HW2 2696   2.817   6.325   7.389
33622SOL     OW 2697  12.216  13.416   3.879
33622SOL    HW1 2698  12.229  13.383   3.790
33622SOL    HW2 2699  12.270  13.360   3.934
33623SOL     OW 2700  11.076   1.929   9.295
33623SOL    HW1 2701  11.153   1.982   9.276
33623SOL    HW2 2702  11.106   1.864   9.359
33624SOL     OW 2703   6.290   3.188   5.135
33624SOL    HW1 2704   6.373   3.141   5.128
33624SOL    HW2 2705   6.310   3.263   5.191
33625SOL     OW 2706   3.179   1.530   6.533
33625SOL    HW1 2707   3.126   1.542   6.612
33625SOL    HW2 2708   3.269   1.528   6.566
33626SOL     OW 2709   8.991  13.607  11.804
33626SOL    HW1 2710   9.064  13.644  11.853
33626SOL    HW2 2711   8.942  13.555  11.869
33627SOL     OW 2712  11.218   9.108  13.503
33627SOL    HW1 2713  11.244   9.040  13.441
33627SOL    HW2 2714  11.176   9.175  13.450
33628SOL     OW 2715  13.289   5.094  12.770
33628SOL    HW1 2716  13.319   5.011  12.732
33628SOL    HW2 2717  13.237   5.135  12.701
33629SOL     OW 2718   0.548   0.713   8.665
33629SOL    HW1 2719   0.490   0.734   8.592
33629SOL    HW2 2720   0.529   0.780   8.731
33630SOL     OW 2721  12.573   4.783   7.672
33630SOL    HW1 2722  12.483   4.791   7.641
33630SOL    HW2 2723  12.627   4.802   7.596
33631SOL     OW 2724   3.869   2.449  13.925
33631SOL    HW1 2725   3.926   2.441  14.002
33631SOL    HW2 2726   3.821   2.530  13.939
33632SOL     OW 2727  13.200  11.753   7.970
33632SOL    HW1 2728  13.215  11.671   7.923
33632SOL    HW2 2729  13.215  11.731   8.062
33633SOL     OW 2730  12.440  14.472   3.270
33633SOL    HW1 2731  12.399  14.394   3.306
33633SOL    HW2 2732  12.441  14.535   3.343
33634SOL     OW 2733   7.562  10.939   5.947
33634SOL    HW1 2734   7.572  11.028   5.914
33634SOL    HW2 2735   7.471  10.934   5.977
33635SOL     OW 2736   6.562  12.857  10.203
33635SOL    HW1 2737   6.552  12.871  10.109
33635SOL    HW2 2738   6.651  12.886  10.223
33636SOL     OW 2739   4.814  12.330  14.844
33636SOL    HW1 2740   4.831  12.349   0.060
33636SOL    HW2 2741   4.898  12.298  14.811
33637SOL     OW 2742   1.844   9.444  12.516
33637SOL    HW1 2743   1.912   9.496  12.473
33637SOL    HW2 2744   1.762   9.481  12.483
33638SOL     OW 2745   0.102   2.237   9.851
33638SOL    HW1 2746   0.075   2.321   9.887
33638SOL    HW2 2747   0.125   2.184   9.928
33639SOL     OW 2748  11.637  13.389  12.559
33639SOL    HW1 2749  11.698  13.369  12.629
33639SOL    HW2 2750  11.618  13.483  12.570
33640SOL     OW 2751   0.082   1.803   6.720
33640SOL    HW1 2752   0.114   1.826   6.632
33640SOL    HW2 2753  14.866   1.779   6.706
33641SOL     OW 2754   1.948   9.395  14.649
33641SOL    HW1 2755   1.902   9.330  14.702
33641SOL    HW2 2756   1.942   9.361  14.560
33642SOL     OW 2757   9.226   2.978  12.184
33642SOL    HW1 2758   9.217   3.022  12.268
33642SOL    HW2 2759   9.137   2.977  12.148
33643SOL     OW 2760   4.501   1.809  10.303
33643SOL    HW1 2761   4.460   1.873  10.362
33643SOL    HW2 2762   4.481   1.724  10.343
33644SOL     OW 2763  11.505  11.617   0.350
33644SOL    HW1 2764  11.566  11.684   0.381
33644SOL    HW2 2765  11.513  11.619   0.255
33645SOL     OW 2766   3.782  12.685   1.001
33645SOL    HW1 2767   3.778  12.619   1.070
33645SOL    HW2 2768   3.705  12.668   0.947
33646SOL     OW 2769   6.714  13.618  11.701
33646SOL    HW1 2770   6.716  13.650  11.611
33646SOL    HW2 2771   6.622  13.596  11.717
33647SOL     OW 2772   6.483   0.995  11.804
33647SOL    HW1 2773   6.530   0.929  11.855
33647SOL    HW2 2774   6.550   1.057  11.776
33648SOL     OW 2775  13.123  14.296   2.629
33648SOL    HW1 2776  13.059  14.360   2.659
33648SOL    HW2 2777  13.072  14.229   2.584
33649SOL     OW 2778   0.051   8.433  11.360
33649SOL    HW1 2779   0.060   8.373  11.286
33649SOL    HW2 2780   0.055   8.375  11.437
33650SOL     OW 2781  14.022   8.179   2.451
33650SOL    HW1 2782  13.989   8.241   2.387
33650SOL    HW2 2783  13.979   8.204   2.533
33651SOL     OW 2784   6.688   2.997   6.275
33651SOL    HW1 2785   6.705   3.086   6.303
33651SOL    HW2 2786   6.609   3.003   6.221
33652SOL     OW 2787   0.215  13.024   4.560
33652SOL    HW1 2788   0.224  13.077   4.640
33652SOL    HW2 2789   0.136  13.058   4.518
33653SOL     OW 2790  12.755  10.509  12.563
33653SOL    HW1 2791  12.843  10.495  12.599
33653SOL    HW2 2792  12.740  10.433  12.507
33654SOL     OW 2793   6.628  14.248   8.888
33654SOL    HW1 2794   6.697  14.202   8.936
33654SOL    HW2 2795   6.589  14.307   8.953
33655SOL     OW 2796   3.228   2.276  12.653
33655SOL    HW1 2797   3.229   2.271  12.749
33655SOL    HW2 2798   3.290   2.345  12.631
33656SOL     OW 2799  10.605  10.780   9.962
33656SOL    HW1 2800  10.677  10.821  10.011
33656SOL    HW2 2801  10.526  10.816  10.001
33657SOL     OW 2802   2.726   8.581   8.006
33657SOL    HW1 2803   2.781   8.645   7.961
33657SOL    HW2 2804   2.642   8.586   7.960
33658SOL     OW 2805   3.107   9.099   6.662
33658SOL    HW1 2806   3.173   9.167   6.652
33658SOL    HW2 2807   3.034   9.142   6.708
33659SOL     OW 2808   0.064  11.904   1.434
33659SOL    HW1 2809   0.034  11.863   1.352
33659SOL    HW2 2810   0.159  11.895   1.432
33660SOL     OW 2811  13.458   8.386  11.130
33660SOL    HW1 2812  13.390   8.388  11.197
33660SOL    HW2 2813  13.439   8.307  11.078
33661SOL     OW 2814   7.793   3.536  12.951
33661SOL    HW1 2815   7.806   3.589  12.872
33661SOL    HW2 2816   7.881   3.510  12.978
33662SOL     OW 2817   8.830  11.084  10.540
33662SOL    HW1 2818   8.771  11.156  10.520
33662SOL    HW2 2819   8.777  11.005  10.532
33663SOL     OW 2820   5.745  11.390  10.847
33663SOL    HW1 2821   5.774  11.354  10.931
33663SOL    HW2 2822   5.820  11.381  10.789
33664SOL     OW 2823   0.960   6.393  11.762
33664SOL    HW1 2824   0.873   6.403  11.724
33664SOL    HW2 2825   1.019   6.392  11.687
33665SOL     OW 2826   5.444   5.327  10.835
33665SOL    HW1 2827   5.462   5.283  10.752
33665SOL    HW2 2828   5.363   5.375  10.820
33666SOL     OW 2829   3.444  12.549   3.732
33666SOL    HW1 2830   3.536  12.527   3.719
33666SOL    HW2 2831   3.400  12.464   3.736
33667SOL     OW 2832   0.489  13.025   7.225
33667SOL    HW1 2833   0.416  13.074   7.262
33667SOL    HW2 2834   0.521  13.080   7.153
33668SOL     OW 2835   5.863   1.947   2.779
33668SOL    HW1 2836   5.846   1.854   2.798
33668SOL    HW2 2837   5.797   1.994   2.829
33669SOL     OW 2838   8.881   2.563   5.184
33669SOL    HW1 2839   8.901   2.537   5.274
33669SOL    HW2 2840   8.811   2.504   5.156
33670SOL     OW 2841   7.873   7.438  11.358
33670SOL    HW1 2842   7.829   7.438  11.442
33670SOL    HW2 2843   7.964   7.461  11.378
33671SOL     OW 2844   2.385   7.075  10.894
33671SOL    HW1 2845   2.426   7.137  10.834
33671SOL    HW2 2846   2.326   7.129  10.947
33672SOL     OW 2847   5.735  11.333   3.651
33672SOL    HW1 2848   5.788  11.338   3.731
33672SOL    HW2 2849   5.667  11.269   3.672
33673SOL     OW 2850  13.420   6.120   8.820
33673SOL    HW1 2851  13.419   6.104   8.914
33673SOL    HW2 2852  13.487   6.060   8.787
33674SOL     OW 2853   2.423  14.613   4.106
33674SOL    HW1 2854   2.466  14.678   4.050
33674SOL    HW2 2855   2.329  14.632   4.097
33675SOL     OW 2856  14.741  14.672  14.777
33675SOL    HW1 2857  14.824  14.677  14.730
33675SOL    HW2 2858  14.731  14.758  14.819
33676SOL     OW 2859   7.995   4.654   4.814
33676SOL    HW1 2860   7.998   4.719   4.884
33676SOL    HW2 2861   8.013   4.570   4.858
33677SOL     OW 2862   2.638   3.252   1.606
33677SOL    HW1 2863   2.718   3.277   1.561
33677SOL    HW2 2864   2.607   3.174   1.559
33678SOL     OW 2865   6.867   5.753  13.824
33678SOL    HW1 2866   6.955   5.775  13.856
33678SOL    HW2 2867   6.846   5.823  13.763
33679SOL     OW 2868  12.870  10.557   3.965
33679SOL    HW1 2869  12.935  10.489   3.985
33679SOL    HW2 2870  12.883  10.576   3.872
33680SOL     OW 2871   4.634  10.161   7.588
33680SOL    HW1 2872   4.571  10.201   7.647
33680SOL    HW2 2873   4.581  10.120   7.520
33681SOL     OW 2874  13.418   7.963   4.232
33681SOL    HW1 2875  13.446   7.898   4.297
33681SOL    HW2 2876  13.331   7.990   4.260
33682SOL     OW 2877   3.227   2.139  14.425
33682SOL    HW1 2878   3.182   2.059  14.398
33682SOL    HW2 2879   3.293   2.109  14.488
33683SOL     OW 2880   8.148  14.028   8.783
33683SOL    HW1 2881   8.141  14.013   8.878
33683SOL    HW2 2882   8.093  13.960   8.744
33684SOL     OW 2883   5.711  13.431  14.572
33684SOL    HW1 2884   5.782  13.472  14.522
33684SOL    HW2 2885   5.695  13.348  14.528
33685SOL     OW 2886   2.666   1.400   4.282
33685SOL    HW1 2887   2.595   1.462   4.294
33685SOL    HW2 2888   2.666   1.347   4.362
33686SOL     OW 2889   0.405  12.272  14.402
33686SOL    HW1 2890   0.322  12.235  14.431
33686SOL    HW2 2891   0.382  12.325  14.326
33687SOL     OW 2892   2.690   5.114   0.244
33687SOL    HW1 2893   2.677   5.202   0.207
33687SOL    HW2 2894   2.613   5.065   0.216
33688SOL     OW 2895   3.766   9.858   4.579
33688SOL    HW1 2896   3.699   9.840   4.513
33688SOL    HW2 2897   3.846   9.873   4.529
33689SOL     OW 2898   2.942   1.202   1.590
33689SOL    HW1 2899   2.943   1.124   1.534
33689SOL    HW2 2900   2.851   1.231   1.588
33690SOL     OW 2901   2.559  14.763  10.091
33690SOL    HW1 2902   2.654  14.774  10.091
33690SOL    HW2 2903   2.542  14.704  10.017
33691SOL     OW 2904   8.538  13.999   9.991
33691SOL    HW1 2905   8.556  13.930  10.055
33691SOL    HW2 2906   8.515  13.951   9.912
33692SOL     OW 2907  13.512   7.669   9.383
33692SOL    HW1 2908  13.564   7.745   9.358
33692SOL    HW2 2909  13.465   7.697   9.462
33693SOL     OW 2910   6.492   5.985   6.408
33693SOL    HW1 2911   6.498   6.081   6.405
33693SOL    HW2 2912   6.498   5.964   6.501
33694SOL     OW 2913   6.577  14.789   5.494
33694SOL    HW1 2914   6.573  14.695   5.514
33694SOL    HW2 2915   6.528  14.831   5.565
33695SOL     OW 2916  11.514  12.413   0.325
33695SOL    HW1 2917  11.548  12.430   0.413
33695SOL    HW2 2918  11.480  12.497   0.295
33696SOL     OW 2919   5.981   3.488  12.446
33696SOL    HW1 2920   5.925   3.434  12.501
33696SOL    HW2 2921   5.955   3.466  12.357
33697SOL     OW 2922   1.332  14.465   4.962
33697SOL    HW1 2923   1.321  14.529   4.891
33697SOL    HW2 2924   1.421  14.480   4.994
33698SOL     OW 2925   0.872   9.031   3.216
33698SOL    HW1 2926   0.875   9.124   3.193
33698SOL    HW2 2927   0.793   8.998   3.174
33699SOL     OW 2928  10.185   9.593   2.379
33699SOL    HW1 2929  10.139   9.674   2.402
33699SOL    HW2 2930  10.252   9.620   2.316
33700SOL     OW 2931  13.087   9.637   1.277
33700SOL    HW1 2932  13.087   9.579   1.353
33700SOL    HW2 2933  13.170   9.621   1.233
33701SOL     OW 2934   5.142   3.550   8.929
33701SOL    HW1 2935   5.235   3.551   8.905
33701SOL    HW2 2936   5.132   3.628   8.984
33702SOL     OW 2937  13.340   8.615   8.204
33702SOL    HW1 2938  13.284   8.600   8.127
33702SOL    HW2 2939  13.298   8.565   8.274
33703SOL     OW 2940   8.926   3.714   8.330
33703SOL    HW1 2941   8.844   3.707   8.378
33703SOL    HW2 2942   8.909   3.780   8.262
33704SOL     OW 2943   1.390  11.256  14.541
33704SOL    HW1 2944   1.434  11.286  14.462
33704SOL    HW2 2945   1.460  11.249  14.606
33705SOL     OW 2946   2.107   1.648   1.079
33705SOL    HW1 2947   2.200   1.629   1.063
33705SOL    HW2 2948   2.061   1.603   1.008
33706SOL     OW 2949   9.218  14.085  13.367
33706SOL    HW1 2950   9.213  14.056  13.276
33706SOL    HW2 2951   9.265  14.014  13.412
33707SOL     OW 2952  11.522   4.262   7.920
33707SOL    HW1 2953  11.520   4.264   7.824
33707SOL    HW2 2954  11.531   4.169   7.941
33708SOL     OW 2955   4.296  10.384  13.992
33708SOL    HW1 2956   4.362  10.442  14.030
33708SOL    HW2 2957   4.217  10.402  14.043
33709SOL     OW 2958   0.371   0.836   6.634
33709SOL    HW1 2959   0.436   0.872   6.573
33709SOL    HW2 2960   0.379   0.741   6.625
33710SOL     OW 2961   1.343   7.122   9.053
33710SOL    HW1 2962   1.316   7.178   9.126
33710SOL    HW2 2963   1.416   7.170   9.012
33711SOL     OW 2964  12.537   3.583   9.893
33711SOL    HW1 2965  12.469   3.538   9.943
33711SOL    HW2 2966  12.516   3.676   9.903
33712SOL     OW 2967   1.019   7.380  10.465
33712SOL    HW1 2968   1.001   7.470  10.440
33712SOL    HW2 2969   0.981   7.327  10.394
33713SOL     OW 2970   9.330   3.572   1.082
33713SOL    HW1 2971   9.332   3.652   1.030
33713SOL    HW2 2972   9.292   3.598   1.166
33714SOL     OW 2973   3.864   6.397   5.714
33714SOL    HW1 2974   3.938   6.400   5.653
33714SOL    HW2 2975   3.898   6.437   5.795
33715SOL     OW 2976  13.125  11.224   9.750
33715SOL    HW1 2977  13.176  11.245   9.672
33715SOL    HW2 2978  13.046  11.181   9.715
33716SOL     OW 2979   9.933   9.316   4.702
33716SOL    HW1 2980   9.935   9.246   4.637
33716SOL    HW2 2981  10.024   9.326   4.730
33717SOL     OW 2982   7.494   7.917  13.529
33717SOL    HW1 2983   7.558   7.948  13.466
33717SOL    HW2 2984   7.541   7.851  13.580
33718SOL     OW 2985   7.617   0.403  13.568
33718SOL    HW1 2986   7.604   0.457  13.491
33718SOL    HW2 2987   7.700   0.433  13.605
33719SOL     OW 2988  11.108   9.095  13.206
33719SOL    HW1 2989  11.086   9.005  13.229
33719SOL    HW2 2990  11.154   9.088  13.123
33720SOL     OW 2991   1.740   0.841   6.025
33720SOL    HW1 2992   1.646   0.858   6.032
33720SOL    HW2 2993   1.752   0.810   5.935
33721SOL     OW 2994   6.875   0.170   1.514
33721SOL    HW1 2995   6.957   0.188   1.560
33721SOL    HW2 2996   6.825   0.251   1.522
33722SOL     OW 2997   9.585   3.755   7.049
33722SOL    HW1 2998   9.557   3.733   6.960
33722SOL    HW2 2999   9.672   3.716   7.057
33723SOL     OW 3000   7.716   3.163   0.432
33723SOL    HW1 3001   7.650   3.144   0.365
33723SOL    HW2 3002   7.772   3.230   0.391
33724SOL     OW 3003   5.746   1.852   0.181
33724SOL    HW1 3004   5.668   1.800   0.162
33724SOL    HW2 3005   5.813   1.817   0.121
33725SOL     OW 3006  10.818   1.215   2.191
33725SOL    HW1 3007  10.731   1.177   2.176
33725SOL    HW2 3008  10.874   1.140   2.209
33726SOL     OW 3009   9.837  11.882  14.579
33726SOL    HW1 3010   9.933  11.881  14.585
33726SOL    HW2 3011   9.807  11.868  14.669
33727SOL     OW 3012  10.531  13.823   6.729
33727SOL    HW1 3013  10.484  13.763   6.786
33727SOL    HW2 3014  10.528  13.907   6.775
33728SOL     OW 3015   6.420  14.125  10.558
33728SOL    HW1 3016   6.387  14.177  10.632
33728SOL    HW2 3017   6.505  14.091  10.588
33729SOL     OW 3018   5.858  14.584   1.530
33729SOL    HW1 3019   5.893  14.528   1.600
33729SOL    HW2 3020   5.935  14.622   1.489
33730SOL     OW 3021   6.728   0.140  12.894
33730SOL    HW1 3022   6.703   0.227  12.925
33730SOL    HW2 3023   6.732   0.086  12.973
33731SOL     OW 3024   9.040   7.468  14.528
33731SOL    HW1 3025   8.974   7.405  14.560
33731SOL    HW2 3026   9.029   7.544  14.585
33732SOL     OW 3027   8.044  14.259   7.512
33732SOL    HW1 3028   8.110  14.301   7.456
33732SOL    HW2 3029   8.063  14.292   7.600
33733SOL     OW 3030  14.201  14.350  11.551
33733SOL    HW1 3031  14.225  14.324  11.462
33733SOL    HW2 3032  14.241  14.284  11.607
33734SOL     OW 3033  14.696   7.156  12.923
33734SOL    HW1 3034  14.634   7.211  12.875
33734SOL    HW2 3035  14.738   7.103  12.856
33735SOL     OW 3036   3.169   6.489   0.662
33735SOL    HW1 3037   3.187   6.577   0.697
33735SOL    HW2 3038   3.237   6.434   0.701
33736SOL     OW 3039  12.004   5.510   7.313
33736SOL    HW1 3040  12.089   5.549   7.296
33736SOL    HW2 3041  12.019   5.448   7.384
33737SOL     OW 3042   5.116  14.186   4.544
33737SOL    HW1 3043   5.164  14.154   4.468
33737SOL    HW2 3044   5.173  14.167   4.618
33738SOL     OW 3045   3.436  12.335  10.081
33738SOL    HW1 3046   3.358  12.375  10.120
33738SOL    HW2 3047   3.487  12.304  10.156
33739SOL     OW 3048   6.172   2.569  12.406
33739SOL    HW1 3049   6.239   2.634  12.388
33739SOL    HW2 3050   6.090   2.619  12.411
33740SOL     OW 3051  14.689   8.471   5.047
33740SOL    HW1 3052  14.696   8.384   5.085
33740SOL    HW2 3053  14.769   8.515   5.075
33741SOL     OW 3054  11.311   8.412   8.045
33741SOL    HW1 3055  11.302   8.414   7.950
33741SOL    HW2 3056  11.235   8.362   8.075
33742SOL     OW 3057   5.001   5.759   6.415
33742SOL    HW1 3058   5.085   5.776   6.373
33742SOL    HW2 3059   5.000   5.817   6.491
33743SOL     OW 3060   8.803   0.251   4.107
33743SOL    HW1 3061   8.743   0.226   4.036
33743SOL    HW2 3062   8.811   0.346   4.099
33744SOL     OW 3063  12.407  10.850   5.269
33744SOL    HW1 3064  12.323  10.883   5.301
33744SOL    HW2 3065  12.428  10.778   5.329
33745SOL     OW 3066  11.362   7.442   5.332
33745SOL    HW1 3067  11.383   7.394   5.253
33745SOL    HW2 3068  11.332   7.528   5.301
33746SOL     OW 3069   1.373   5.441   5.241
33746SOL    HW1 3070   1.346   5.517   5.293
33746SOL    HW2 3071   1.386   5.372   5.306
33747SOL     OW 3072   2.591   9.833   4.688
33747SOL    HW1 3073   2.543   9.760   4.649
33747SOL    HW2 3074   2.681   9.821   4.658
33748SOL     OW 3075   9.768   2.327   7.927
33748SOL    HW1 3076   9.711   2.385   7.977
33748SOL    HW2 3077   9.755   2.241   7.966
33749SOL     OW 3078   7.165   2.075  10.255
33749SOL    HW1 3079   7.198   2.158  10.289
33749SOL    HW2 3080   7.217   2.058  10.177
33750SOL     OW 3081   1.076   2.779   9.829
33750SOL    HW1 3082   1.033   2.790   9.914
33750SOL    HW2 3083   1.167   2.805   9.844
33751SOL     OW 3084   1.070  14.602   8.855
33751SOL    HW1 3085   1.077  14.697   8.847
33751SOL    HW2 3086   1.054  14.587   8.949
33752SOL     OW 3087  10.350  12.852  10.992
33752SOL    HW1 3088  10.322  12.836  10.902
33752SOL    HW2 3089  10.272  12.832  11.045
33753SOL     OW 3090  13.482   7.444   3.289
33753SOL    HW1 3091  13.430   7.364   3.282
33753SOL    HW2 3092  13.568   7.414   3.319
33754SOL     OW 3093   7.147  12.310  14.737
33754SOL    HW1 3094   7.104  12.228  14.760
33754SOL    HW2 3095   7.239  12.287  14.727
33755SOL     OW 3096   5.141   9.712   5.318
33755SOL    HW1 3097   5.206   9.644   5.299
33755SOL    HW2 3098   5.080   9.670   5.379
33756SOL     OW 3099   9.342  10.360   3.742
33756SOL    HW1 3100   9.254  10.378   3.711
33756SOL    HW2 3101   9.332  10.285   3.801
33757SOL     OW 3102   0.159   6.887  12.833
33757SOL    HW1 3103   0.066   6.883  12.810
33757SOL    HW2 3104   0.182   6.797  12.856
33758SOL     OW 3105   0.270  13.857   1.650
33758SOL    HW1 3106   0.350  13.907   1.667
33758SOL    HW2 3107   0.266  13.851   1.554
33759SOL     OW 3108   0.034  13.872   6.367
33759SOL    HW1 3109   0.051  13.956   6.323
33759SOL    HW2 3110   0.119  13.847   6.402
33760SOL     OW 3111   7.209  14.661   2.451
33760SOL    HW1 3112   7.131  14.656   2.506
33760SOL    HW2 3113   7.216  14.574   2.411
33761SOL     OW 3114   8.992  12.444  10.871
33761SOL    HW1 3115   8.951  12.460  10.785
33761SOL    HW2 3116   8.973  12.523  10.921
33762SOL     OW 3117  11.316  12.362   4.696
33762SOL    HW1 3118  11.312  12.280   4.745
33762SOL    HW2 3119  11.241  12.358   4.636
33763SOL     OW 3120   3.703  12.615  11.026
33763SOL    HW1 3121   3.608  12.609  11.022
33763SOL    HW2 3122   3.720  12.675  11.099
33764SOL     OW 3123  10.041   4.511   9.521
33764SOL    HW1 3124  10.120   4.458   9.515
33764SOL    HW2 3125  10.047   4.555   9.606
33765SOL     OW 3126   3.173   9.055   0.478
33765SOL    HW1 3127   3.149   9.140   0.516
33765SOL    HW2 3128   3.119   8.992   0.524
33766SOL     OW 3129   4.742   8.501  14.072
33766SOL    HW1 3130   4.659   8.470  14.108
33766SOL    HW2 3131   4.767   8.434  14.008
33767SOL     OW 3132  11.126   8.585   1.468
33767SOL    HW1 3133  11.194   8.558   1.529
33767SOL    HW2 3134  11.123   8.515   1.403
33768SOL     OW 3135  10.397  11.021  12.210
33768SOL    HW1 3136  10.349  10.962  12.152
33768SOL    HW2 3137  10.451  10.964  12.264
33769SOL     OW 3138  10.950   7.904   9.261
33769SOL    HW1 3139  10.898   7.930   9.185
33769SOL    HW2 3140  11.038   7.936   9.242
33770SOL     OW 3141  13.242   7.935  13.682
33770SOL    HW1 3142  13.317   7.985  13.716
33770SOL    HW2 3143  13.169   7.961  13.739
33771SOL     OW 3144   4.842   9.469   0.170
33771SOL    HW1 3145   4.925   9.421   0.167
33771SOL    HW2 3146   4.861   9.551   0.124
33772SOL     OW 3147   6.389   4.375  11.024
33772SOL    HW1 3148   6.296   4.401  11.021
33772SOL    HW2 3149   6.394   4.300  10.964
33773SOL     OW 3150  11.225   0.451   9.770
33773SOL    HW1 3151  11.215   0.541   9.740
33773SOL    HW2 3152  11.137   0.425   9.799
33774SOL     OW 3153   7.368   8.147  14.282
33774SOL    HW1 3154   7.327   8.225  14.320
33774SOL    HW2 3155   7.355   8.079  14.349
33775SOL     OW 3156   6.713   6.745   9.028
33775SOL    HW1 3157   6.650   6.734   9.099
33775SOL    HW2 3158   6.744   6.836   9.036
33776SOL     OW 3159  13.764   3.029   3.960
33776SOL    HW1 3160  13.736   2.950   4.006
33776SOL    HW2 3161  13.819   3.076   4.022
33777SOL     OW 3162   8.079   0.148   5.274
33777SOL    HW1 3163   8.115   0.225   5.319
33777SOL    HW2 3164   7.985   0.163   5.275
33778SOL     OW 3165   0.967   2.502  13.835
33778SOL    HW1 3166   0.990   2.582  13.787
33778SOL    HW2 3167   0.878   2.483  13.808
33779SOL     OW 3168  14.218   5.563   8.260
33779SOL    HW1 3169  14.143   5.574   8.318
33779SOL    HW2 3170  14.182   5.522   8.182
33780SOL     OW 3171   9.152  12.883   3.021
33780SOL    HW1 3172   9.101  12.944   2.968
33780SOL    HW2 3173   9.143  12.916   3.111
33781SOL     OW 3174   3.177   1.594  11.695
33781SOL    HW1 3175   3.214   1.535  11.630
33781SOL    HW2 3176   3.245   1.603  11.761
33782SOL     OW 3177   9.954   0.122   0.932
33782SOL    HW1 3178   9.992   0.046   0.887
33782SOL    HW2 3179  10.028   0.180   0.947
33783SOL     OW 3180  10.095   0.668  11.226
33783SOL    HW1 3181  10.107   0.576  11.245
33783SOL    HW2 3182  10.066   0.707  11.309
33784SOL     OW 3183   1.427  13.979  11.214
33784SOL    HW1 3184   1.335  14.004  11.227
33784SOL    HW2 3185   1.454  14.029  11.137
33785SOL     OW 3186   7.511   8.070   8.492
33785SOL    HW1 3187   7.603   8.058   8.469
33785SOL    HW2 3188   7.463   8.049   8.412
33786SOL     OW 3189   5.291   8.786  11.983
33786SOL    HW1 3190   5.371   8.737  12.004
33786SOL    HW2 3191   5.252   8.738  11.911
33787SOL     OW 3192   3.127   7.932  14.746
33787SOL    HW1 3193   3.108   7.964  14.835
33787SOL    HW2 3194   3.219   7.906  14.749
33788SOL     OW 3195   5.006   4.596   9.883
33788SOL    HW1 3196   5.100   4.585   9.872
33788SOL    HW2 3197   4.970   4.508   9.873
33789SOL     OW 3198   5.964   3.482   8.490
33789SOL    HW1 3199   5.899   3.413   8.506
33789SOL    HW2 3200   5.939   3.552   8.550
33790SOL     OW 3201   4.757  10.529  14.693
33790SOL    HW1 3202   4.781  10.499  14.606
33790SOL    HW2 3203   4.840  10.548  14.736
33791SOL     OW 3204  12.006  12.089  10.324
33791SOL    HW1 3205  12.043  12.088  10.236
33791SOL    HW2 3206  11.930  12.031  10.318
33792SOL     OW 3207   2.028   4.615  12.320
33792SOL    HW1 3208   2.084   4.566  12.380
33792SOL    HW2 3209   1.962   4.655  12.376
33793SOL     OW 3210  12.011   8.527  14.339
33793SOL    HW1 3211  11.963   8.445  14.349
33793SOL    HW2 3212  12.026   8.536  14.245
33794SOL     OW 3213  10.265   1.936  13.908
33794SOL    HW1 3214  10.248   2.027  13.885
33794SOL    HW2 3215  10.341   1.912  13.854
33795SOL     OW 3216   8.357  13.088   1.065
33795SOL    HW1 3217   8.428  13.069   1.126
33795SOL    HW2 3218   8.313  13.165   1.102
33796SOL     OW 3219   0.314   3.663   1.077
33796SOL    HW1 3220   0.352   3.594   1.023
33796SOL    HW2 3221   0.224   3.634   1.092
33797SOL     OW 3222   4.895   1.622   8.847
33797SOL    HW1 3223   4.876   1.548   8.790
33797SOL    HW2 3224   4.989   1.636   8.837
33798SOL     OW 3225  10.710   5.456  10.846
33798SOL    HW1 3226  10.669   5.384  10.797
33798SOL    HW2 3227  10.783   5.484  10.791
33799SOL     OW 3228   8.250   1.108   1.678
33799SOL    HW1 3229   8.186   1.127   1.747
33799SOL    HW2 3230   8.232   1.173   1.610
33800SOL     OW 3231   3.720   7.209  14.846
33800SOL    HW1 3232   3.703   7.116  14.865
33800SOL    HW2 3233   3.633   7.248  14.837
33801SOL     OW 3234   3.973  13.832   0.936
33801SOL    HW1 3235   3.924  13.859   0.859
33801SOL    HW2 3236   4.027  13.758   0.905
33802SOL     OW 3237  10.914   9.898   0.827
33802SOL    HW1 3238  10.959   9.887   0.743
33802SOL    HW2 3239  10.877   9.987   0.823
33803SOL     OW 3240  10.819   9.219  11.879
33803SOL    HW1 3241  10.785   9.308  11.887
33803SOL    HW2 3242  10.852   9.198  11.967
33804SOL     OW 3243   7.387   3.508  11.392
33804SOL    HW1 3244   7.476   3.478  11.410
33804SOL    HW2 3245   7.344   3.435  11.348
33805SOL     OW 3246  10.901  12.894   7.628
33805SOL    HW1 3247  10.822  12.899   7.682
33805SOL    HW2 3248  10.915  12.801   7.614
33806SOL     OW 3249  11.419   9.235  14.217
33806SOL    HW1 3250  11.391   9.167  14.155
33806SOL    HW2 3251  11.399   9.317  14.172
33807SOL     OW 3252   6.684  11.057  11.492
33807SOL    HW1 3253   6.650  10.994  11.556
33807SOL    HW2 3254   6.779  11.058  11.510
33808SOL     OW 3255   6.248   7.784   1.580
33808SOL    HW1 3256   6.240   7.714   1.516
33808SOL    HW2 3257   6.218   7.746   1.662
33809SOL     OW 3258   0.290   7.566   2.576
33809SOL    HW1 3259   0.267   7.636   2.636
33809SOL    HW2 3260   0.207   7.542   2.533
33810SOL     OW 3261  11.941   4.596  12.932
33810SOL    HW1 3262  11.977   4.648  12.860
33810SOL    HW2 3263  12.017   4.552  12.970
33811SOL     OW 3264   6.610   4.777   8.483
33811SOL    HW1 3265   6.680   4.834   8.451
33811SOL    HW2 3266   6.541   4.784   8.416
33812SOL     OW 3267   5.674   6.453   8.346
33812SOL    HW1 3268   5.656   6.382   8.284
33812SOL    HW2 3269   5.651   6.533   8.299
33813SOL     OW 3270  14.283   7.468   9.068
33813SOL    HW1 3271  14.335   7.422   9.002
33813SOL    HW2 3272  14.347   7.524   9.113
33814SOL     OW 3273  12.561  13.680   9.888
33814SOL    HW1 3274  12.579  13.677   9.982
33814SOL    HW2 3275  12.643  13.653   9.847
33815SOL     OW 3276  14.281   3.599   8.346
33815SOL    HW1 3277  14.355   3.655   8.323
33815SOL    HW2 3278  14.315   3.544   8.417
33816SOL     OW 3279  13.625  14.508   9.028
33816SOL    HW1 3280  13.690  14.441   9.008
33816SOL    HW2 3281  13.543  14.460   9.037
33817SOL     OW 3282   3.572  10.603   5.305
33817SOL    HW1 3283   3.561  10.668   5.375
33817SOL    HW2 3284   3.486  10.600   5.262
33818SOL     OW 3285  13.609  11.817   1.041
33818SOL    HW1 3286  13.683  11.841   0.985
33818SOL    HW2 3287  13.537  11.873   1.011
33819SOL     OW 3288   0.309   5.245   2.679
33819SOL    HW1 3289   0.359   5.207   2.751
33819SOL    HW2 3290   0.354   5.327   2.660
33820SOL     OW 3291  11.927   8.768  10.780
33820SOL    HW1 3292  11.846   8.730  10.745
33820SOL    HW2 3293  11.996   8.732  10.725
33821SOL     OW 3294   4.169  13.093   7.796
33821SOL    HW1 3295   4.227  13.018   7.797
33821SOL    HW2 3296   4.084  13.058   7.770
33822SOL     OW 3297  12.671   4.696  13.200
33822SOL    HW1 3298  12.670   4.630  13.130
33822SOL    HW2 3299  12.739   4.758  13.172
33823SOL     OW 3300  11.970   9.983   6.046
33823SOL    HW1 3301  12.063   9.966   6.032
33823SOL    HW2 3302  11.959   9.974   6.141
33824SOL     OW 3303   4.244   7.613  10.581
33824SOL    HW1 3304   4.173   7.670  10.550
33824SOL    HW2 3305   4.308   7.614  10.509
33825SOL     OW 3306   1.872  10.319   3.431
33825SOL    HW1 3307   1.790  10.304   3.385
33825SOL    HW2 3308   1.929  10.247   3.403
33826SOL     OW 3309  13.020   3.537   7.830
33826SOL    HW1 3310  12.992   3.514   7.918
33826SOL    HW2 3311  13.106   3.496   7.821
33827SOL     OW 3312  11.140   6.258   4.598
33827SOL    HW1 3313  11.160   6.341   4.641
33827SOL    HW2 3314  11.172   6.269   4.508
33828SOL     OW 3315   4.180   8.866   5.488
33828SOL    HW1 3316   4.151   8.957   5.483
33828SOL    HW2 3317   4.183   8.836   5.398
33829SOL     OW 3318   0.950   6.759   8.472
33829SOL    HW1 3319   0.922   6.746   8.381
33829SOL    HW2 3320   1.011   6.687   8.489
33830SOL     OW 3321   5.661  14.590  10.070
33830SOL    HW1 3322   5.748  14.627  10.055
33830SOL    HW2 3323   5.638  14.549   9.986
33831SOL     OW 3324  13.680   4.027   5.334
33831SOL    HW1 3325  13.663   3.995   5.423
33831SOL    HW2 3326  13.594   4.051   5.300
33832SOL     OW 3327  13.416  14.874  13.353
33832SOL    HW1 3328  13.477  14.828  13.295
33832SOL    HW2 3329  13.462   0.006  13.436
33833SOL     OW 3330   7.038   3.618  13.556
33833SOL    HW1 3331   6.977   3.692  13.563
33833SOL    HW2 3332   7.084   3.633  13.474
33834SOL     OW 3333   1.855  11.416   5.094
33834SOL    HW1 3334   1.861  11.341   5.154
33834SOL    HW2 3335   1.860  11.377   5.007
33835SOL     OW 3336   5.130  12.028   1.971
33835SOL    HW1 3337   5.068  11.964   2.005
33835SOL    HW2 3338   5.159  12.077   2.048
33836SOL     OW 3339   5.224  12.152   7.084
33836SOL    HW1 3340   5.165  12.116   7.150
33836SOL    HW2 3341   5.178  12.229   7.051
33837SOL     OW 3342   1.505   3.058   9.993
33837SOL    HW1 3343   1.442   3.129   9.983
33837SOL    HW2 3344   1.590   3.097   9.974
33838SOL     OW 3345  11.731   1.069   8.221
33838SOL    HW1 3346  11.779   1.103   8.296
33838SOL    HW2 3347  11.648   1.039   8.257
33839SOL     OW 3348   4.978   8.627   2.979
33839SOL    HW1 3349   5.033   8.574   3.036
33839SOL    HW2 3350   4.955   8.704   3.031
33840SOL     OW 3351  14.040  13.787   5.336
33840SOL    HW1 3352  14.014  13.695   5.324
33840SOL    HW2 3353  14.019  13.829   5.253
33841SOL     OW 3354   2.188   9.686   1.061
33841SOL    HW1 3355   2.110   9.681   1.117
33841SOL    HW2 3356   2.257   9.717   1.120
33842SOL     OW 3357   7.292  13.626   5.431
33842SOL    HW1 3358   7.375  13.579   5.425
33842SOL    HW2 3359   7.255  13.597   5.514
33843SOL     OW 3360  11.312  10.445  11.109
33843SOL    HW1 3361  11.380  10.503  11.074
33843SOL    HW2 3362  11.326  10.362  11.064
33844SOL     OW 3363   4.878   3.960   4.773
33844SOL    HW1 3364   4.819   3.886   4.787
33844SOL    HW2 3365   4.966   3.923   4.782
33845SOL     OW 3366   2.739   1.220  14.572
33845SOL    HW1 3367   2.714   1.282  14.503
33845SOL    HW2 3368   2.685   1.244  14.647
33846SOL     OW 3369  10.517   5.626   4.514
33846SOL    HW1 3370  10.520   5.532   4.495
33846SOL    HW2 3371  10.425   5.650   4.498
33847SOL     OW 3372  14.036  12.369   6.189
33847SOL    HW1 3373  14.107  12.305   6.184
33847SOL    HW2 3374  13.961  12.324   6.149
33848SOL     OW 3375   3.447   1.473   8.842
33848SOL    HW1 3376   3.463   1.420   8.920
33848SOL    HW2 3377   3.375   1.531   8.867
33849SOL     OW 3378  11.298  10.817   7.290
33849SOL    HW1 3379  11.289  10.905   7.254
33849SOL    HW2 3380  11.391  10.809   7.311
33850SOL     OW 3381  13.284  12.690   4.205
33850SOL    HW1 3382  13.253  12.728   4.122
33850SOL    HW2 3383  13.376  12.669   4.189
33851SOL     OW 3384   1.373   6.674   0.616
33851SOL    HW1 3385   1.383   6.668   0.521
33851SOL    HW2 3386   1.374   6.768   0.634
33852SOL     OW 3387  13.357   1.389   9.412
33852SOL    HW1 3388  13.439   1.413   9.455
33852SOL    HW2 3389  13.356   1.293   9.414
33853SOL     OW 3390  12.696   3.564  13.584
33853SOL    HW1 3391  12.614   3.523  13.558
33853SOL    HW2 3392  12.744   3.495  13.629
33854SOL     OW 3393   5.881  12.515  11.354
33854SOL    HW1 3394   5.852  12.592  11.305
33854SOL    HW2 3395   5.963  12.489  11.312
33855SOL     OW 3396   3.318   2.754  13.064
33855SOL    HW1 3397   3.309   2.844  13.033
33855SOL    HW2 3398   3.361   2.761  13.149
33856SOL     OW 3399   9.951   6.260   9.298
33856SOL    HW1 3400  10.018   6.305   9.349
33856SOL    HW2 3401   9.986   6.258   9.209
33857SOL     OW 3402   2.376  10.401   3.135
33857SOL    HW1 3403   2.385  10.306   3.130
33857SOL    HW2 3404   2.322  10.416   3.212
33858SOL     OW 3405   1.137   3.264  11.288
33858SOL    HW1 3406   1.062   3.315  11.318
33858SOL    HW2 3407   1.204   3.330  11.269
33859SOL     OW 3408  10.196   5.395   0.162
33859SOL    HW1 3409  10.127   5.376   0.099
33859SOL    HW2 3410  10.240   5.312   0.175
33860SOL     OW 3411  14.095   7.381   5.280
33860SOL    HW1 3412  14.115   7.329   5.358
33860SOL    HW2 3413  14.102   7.320   5.207
33861SOL     OW 3414  11.744   8.503   6.862
33861SOL    HW1 3415  11.693   8.474   6.786
33861SOL    HW2 3416  11.739   8.598   6.859
33862SOL     OW 3417  13.630  13.252   1.118
33862SOL    HW1 3418  13.715  13.264   1.161
33862SOL    HW2 3419  13.582  13.332   1.137
33863SOL     OW 3420   9.646   8.393  11.152
33863SOL    HW1 3421   9.567   8.377  11.100
33863SOL    HW2 3422   9.673   8.481  11.128
33864SOL     OW 3423   5.908  13.860   7.800
33864SOL    HW1 3424   5.824  13.883   7.839
33864SOL    HW2 3425   5.904  13.765   7.789
33865SOL     OW 3426  12.891   7.649   9.573
33865SOL    HW1 3427  12.855   7.594   9.643
33865SOL    HW2 3428  12.883   7.596   9.494
33866SOL     OW 3429  12.598   4.138  13.807
33866SOL    HW1 3430  12.669   4.096  13.856
33866SOL    HW2 3431  12.534   4.163  13.874
33867SOL     OW 3432   2.862  14.678  13.745
33867SOL    HW1 3433   2.894  14.648  13.831
33867SOL    HW2 3434   2.767  14.664  13.750
33868SOL     OW 3435  14.474   5.537  12.889
33868SOL    HW1 3436  14.544   5.581  12.840
33868SOL    HW2 3437  14.484   5.444  12.868
33869SOL     OW 3438   2.651  10.496   2.618
33869SOL    HW1 3439   2.734  10.488   2.571
33869SOL    HW2 3440   2.642  10.590   2.635
33870SOL     OW 3441  10.075   5.233   3.927
33870SOL    HW1 3442  10.063   5.274   4.012
33870SOL    HW2 3443   9.991   5.245   3.882
33871SOL     OW 3444   2.068  10.521  12.879
33871SOL    HW1 3445   2.001  10.456  12.859
33871SOL    HW2 3446   2.020  10.604  12.881
33872SOL     OW 3447   3.052  11.533   6.413
33872SOL    HW1 3448   3.103  11.537   6.494
33872SOL    HW2 3449   2.961  11.540   6.442
33873SOL     OW 3450   1.041   4.300  11.045
33873SOL    HW1 3451   1.004   4.358  11.112
33873SOL    HW2 3452   1.054   4.357  10.969
33874SOL     OW 3453  13.970   4.010   6.827
33874SOL    HW1 3454  14.038   3.954   6.788
33874SOL    HW2 3455  14.002   4.029   6.914
33875SOL     OW 3456   1.969  10.515   9.182
33875SOL    HW1 3457   1.932  10.427   9.183
33875SOL    HW2 3458   2.009  10.523   9.095
33876SOL     OW 3459   2.790  13.425  10.205
33876SOL    HW1 3460   2.729  13.359  10.237
33876SOL    HW2 3461   2.739  13.506  10.201
33877SOL     OW 3462   9.379   2.709  13.904
33877SOL    HW1 3463   9.433   2.714  13.825
33877SOL    HW2 3464   9.422   2.644  13.959
33878SOL     OW 3465   6.452   1.889   8.758
33878SOL    HW1 3466   6.431   1.796   8.768
33878SOL    HW2 3467   6.499   1.894   8.675
33879SOL     OW 3468  13.397   0.825   0.834
33879SOL    HW1 3469  13.339   0.749   0.828
33879SOL    HW2 3470  13.340   0.900   0.819
33880SOL     OW 3471  13.438   5.230  12.928
33880SOL    HW1 3472  13.380   5.296  12.966
33880SOL    HW2 3473  13.382   5.182  12.866
33881SOL     OW 3474   0.807   6.266   6.266
33881SOL    HW1 3475   0.857   6.220   6.334
33881SOL    HW2 3476   0.768   6.341   6.312
33882SOL     OW 3477  14.533  10.610   9.709
33882SOL    HW1 3478  14.463  10.632   9.771
33882SOL    HW2 3479  14.515  10.519   9.684
33883SOL     OW 3480   0.331  14.436   8.551
33883SOL    HW1 3481   0.406  14.410   8.604
33883SOL    HW2 3482   0.268  14.472   8.615
33884SOL     OW 3483   4.290  11.740   0.628
33884SOL    HW1 3484   4.248  11.657   0.606
33884SOL    HW2 3485   4.300  11.737   0.723
33885SOL     OW 3486   5.680   2.299  14.755
33885SOL    HW1 3487   5.723   2.241  14.818
33885SOL    HW2 3488   5.743   2.308  14.684
33886SOL     OW 3489   5.233   5.218  12.043
33886SOL    HW1 3490   5.255   5.145  12.101
33886SOL    HW2 3491   5.306   5.223  11.982
33887SOL     OW 3492   4.480   1.778   3.330
33887SOL    HW1 3493   4.567   1.792   3.293
33887SOL    HW2 3494   4.473   1.683   3.341
33888SOL     OW 3495   4.291   0.237   2.070
33888SOL    HW1 3496   4.298   0.330   2.093
33888SOL    HW2 3497   4.377   0.201   2.088
33889SOL     OW 3498  14.006   7.732  11.742
33889SOL    HW1 3499  14.083   7.783  11.715
33889SOL    HW2 3500  14.040   7.671  11.807
33890SOL     OW 3501   8.709   4.330   2.247
33890SOL    HW1 3502   8.769   4.255   2.247
33890SOL    HW2 3503   8.705   4.358   2.338
33891SOL     OW 3504   9.673  11.471  11.399
33891SOL    HW1 3505   9.747  11.452  11.457
33891SOL    HW2 3506   9.713  11.508  11.320
33892SOL     OW 3507   1.616   1.133  14.706
33892SOL    HW1 3508   1.561   1.057  14.686
33892SOL    HW2 3509   1.704   1.105  14.680
33893SOL     OW 3510  10.770  11.311  13.850
33893SOL    HW1 3511  10.724  11.242  13.803
33893SOL    HW2 3512  10.800  11.270  13.932
33894SOL     OW 3513   4.116  14.755   8.372
33894SOL    HW1 3514   4.089  14.734   8.461
33894SOL    HW2 3515   4.138  14.671   8.333
33895SOL     OW 3516  14.423  12.995  14.440
33895SOL    HW1 3517  14.482  13.025  14.509
33895SOL    HW2 3518  14.403  12.905  14.463
33896SOL     OW 3519   5.372   9.602   5.615
33896SOL    HW1 3520   5.375   9.507   5.628
33896SOL    HW2 3521   5.446   9.635   5.666
33897SOL     OW 3522  10.123   0.570   8.014
33897SOL    HW1 3523  10.101   0.515   8.089
33897SOL    HW2 3524  10.154   0.509   7.948
33898SOL     OW 3525  13.529   0.593  12.522
33898SOL    HW1 3526  13.578   0.569  12.601
33898SOL    HW2 3527  13.439   0.603  12.552
33899SOL     OW 3528   6.095   7.891   2.120
33899SOL    HW1 3529   6.011   7.870   2.079
33899SOL    HW2 3530   6.158   7.887   2.048
33900SOL     OW 3531  14.756   7.706  13.946
33900SOL    HW1 3532  14.664   7.683  13.961
33900SOL    HW2 3533  14.784   7.749  14.026
33901SOL     OW 3534   6.068   3.643   7.393
33901SOL    HW1 3535   6.082   3.653   7.487
33901SOL    HW2 3536   5.989   3.589   7.386
33902SOL     OW 3537   9.163   0.557  11.941
33902SOL    HW1 3538   9.189   0.508  11.863
33902SOL    HW2 3539   9.134   0.642  11.907
33903SOL     OW 3540   6.869  14.637  14.015
33903SOL    HW1 3541   6.907  14.722  14.041
33903SOL    HW2 3542   6.936  14.597  13.960
33904SOL     OW 3543   6.562   5.253   0.838
33904SOL    HW1 3544   6.545   5.161   0.819
33904SOL    HW2 3545   6.476   5.295   0.836
33905SOL     OW 3546   6.833   3.693   0.636
33905SOL    HW1 3547   6.853   3.732   0.551
33905SOL    HW2 3548   6.764   3.629   0.617
33906SOL     OW 3549   8.465  13.014   8.755
33906SOL    HW1 3550   8.375  12.988   8.737
33906SOL    HW2 3551   8.477  12.995   8.848
33907SOL     OW 3552   2.262   9.148  13.153
33907SOL    HW1 3553   2.269   9.154  13.249
33907SOL    HW2 3554   2.206   9.221  13.129
33908SOL     OW 3555   8.850   3.175   1.996
33908SOL    HW1 3556   8.914   3.173   1.924
33908SOL    HW2 3557   8.856   3.263   2.031
33909SOL     OW 3558   7.925   6.231   0.504
33909SOL    HW1 3559   7.833   6.252   0.491
33909SOL    HW2 3560   7.930   6.202   0.595
33910SOL     OW 3561   3.820   3.402   8.947
33910SOL    HW1 3562   3.902   3.445   8.969
33910SOL    HW2 3563   3.768   3.407   9.028
33911SOL     OW 3564   8.539  12.721   6.103
33911SOL    HW1 3565   8.460  12.720   6.158
33911SOL    HW2 3566   8.522  12.791   6.040
33912SOL     OW 3567   5.089   6.499   9.627
33912SOL    HW1 3568   5.084   6.510   9.532
33912SOL    HW2 3569   5.183   6.504   9.647
33913SOL     OW 3570  11.193   6.174   5.821
33913SOL    HW1 3571  11.225   6.114   5.887
33913SOL    HW2 3572  11.118   6.217   5.862
33914SOL     OW 3573   9.595   4.775   1.481
33914SOL    HW1 3574   9.591   4.856   1.430
33914SOL    HW2 3575   9.688   4.755   1.487
33915SOL     OW 3576   6.872  13.955  13.986
33915SOL    HW1 3577   6.913  13.900  14.053
33915SOL    HW2 3578   6.921  14.037  13.990
33916SOL     OW 3579   0.335   6.800   4.476
33916SOL    HW1 3580   0.371   6.767   4.393
33916SOL    HW2 3581   0.380   6.749   4.543
33917SOL     OW 3582   7.797   7.232  14.120
33917SOL    HW1 3583   7.735   7.303  14.104
33917SOL    HW2 3584   7.743   7.160  14.152
33918SOL     OW 3585  11.200   0.825  12.903
33918SOL    HW1 3586  11.250   0.744  12.908
33918SOL    HW2 3587  11.229   0.876  12.979
33919SOL     OW 3588   6.505   2.562  14.396
33919SOL    HW1 3589   6.559   2.498  14.349
33919SOL    HW2 3590   6.520   2.645  14.350
33920SOL     OW 3591   8.582   4.140   4.464
33920SOL    HW1 3592   8.600   4.180   4.549
33920SOL    HW2 3593   8.669   4.115   4.431
33921SOL     OW 3594   2.135   0.462   6.277
33921SOL    HW1 3595   2.077   0.523   6.325
33921SOL    HW2 3596   2.087   0.380   6.275
33922SOL     OW 3597   1.376   9.124   9.386
33922SOL    HW1 3598   1.289   9.155   9.359
33922SOL    HW2 3599   1.358   9.062   9.457
33923SOL     OW 3600  14.801   4.602   0.788
33923SOL    HW1 3601  14.819   4.549   0.711
33923SOL    HW2 3602  14.742   4.670   0.757
33924SOL     OW 3603   4.027   2.707   2.024
33924SOL    HW1 3604   3.971   2.758   2.083
33924SOL    HW2 3605   3.974   2.695   1.945
33925SOL     OW 3606  10.516   8.112   5.887
33925SOL    HW1 3607  10.522   8.122   5.982
33925SOL    HW2 3608  10.557   8.191   5.851
33926SOL     OW 3609   9.073  12.929   9.653
33926SOL    HW1 3610   9.050  12.865   9.586
33926SOL    HW2 3611   9.096  12.876   9.730
33927SOL     OW 3612   3.125   4.753  13.905
33927SOL    HW1 3613   3.187   4.731  13.835
33927SOL    HW2 3614   3.172   4.814  13.961
33928SOL     OW 3615  14.708   3.538   0.604
33928SOL    HW1 3616  14.740   3.621   0.638
33928SOL    HW2 3617  14.689   3.556   0.512
33929SOL     OW 3618  11.412   3.931  14.343
33929SOL    HW1 3619  11.360   3.915  14.422
33929SOL    HW2 3620  11.407   4.026  14.330
33930SOL     OW 3621   3.801   6.546   1.118
33930SOL    HW1 3622   3.865   6.490   1.077
33930SOL    HW2 3623   3.805   6.628   1.069
33931SOL     OW 3624   3.258   0.724   5.198
33931SOL    HW1 3625   3.252   0.807   5.150
33931SOL    HW2 3626   3.334   0.680   5.159
33932SOL     OW 3627   5.861   3.905   7.993
33932SOL    HW1 3628   5.825   3.822   7.962
33932SOL    HW2 3629   5.888   3.888   8.083
33933SOL     OW 3630   2.464   7.567  14.556
33933SOL    HW1 3631   2.527   7.635  14.579
33933SOL    HW2 3632   2.517   7.490  14.539
33934SOL     OW 3633   2.144   2.606   0.363
33934SOL    HW1 3634   2.227   2.567   0.388
33934SOL    HW2 3635   2.083   2.533   0.360
33935SOL     OW 3636   6.766  11.701  11.744
33935SOL    HW1 3637   6.837  11.734  11.799
33935SOL    HW2 3638   6.805  11.691  11.657
33936SOL     OW 3639   5.375   3.326   8.637
33936SOL    HW1 3640   5.400   3.345   8.547
33936SOL    HW2 3641   5.297   3.270   8.629
33937SOL     OW 3642   0.767   4.863   4.421
33937SOL    HW1 3643   0.709   4.897   4.352
33937SOL    HW2 3644   0.755   4.768   4.418
33938SOL     OW 3645  12.147   8.710   2.991
33938SOL    HW1 3646  12.120   8.657   2.916
33938SOL    HW2 3647  12.234   8.677   3.014
33939SOL     OW 3648   8.776   7.895  13.680
33939SOL    HW1 3649   8.693   7.918  13.720
33939SOL    HW2 3650   8.836   7.881  13.753
33940SOL     OW 3651   8.855   0.623   2.775
33940SOL    HW1 3652   8.824   0.713   2.785
33940SOL    HW2 3653   8.927   0.628   2.713
33941SOL     OW 3654   8.932   6.050  14.603
33941SOL    HW1 3655   8.939   6.054  14.699
33941SOL    HW2 3656   8.915   6.140  14.576
33942SOL     OW 3657   6.313   7.774  13.654
33942SOL    HW1 3658   6.230   7.800  13.614
33942SOL    HW2 3659   6.349   7.856  13.688
33943SOL     OW 3660   9.077  11.578  10.817
33943SOL    HW1 3661   9.099  11.585  10.724
33943SOL    HW2 3662   9.016  11.504  10.822
33944SOL     OW 3663  11.165   7.766   4.589
33944SOL    HW1 3664  11.081   7.811   4.575
33944SOL    HW2 3665  11.220   7.793   4.516
33945SOL     OW 3666   5.851   0.862   2.509
33945SOL    HW1 3667   5.838   0.954   2.484
33945SOL    HW2 3668   5.847   0.814   2.427
33946SOL     OW 3669  11.518   7.871   5.557
33946SOL    HW1 3670  11.455   7.801   5.537
33946SOL    HW2 3671  11.500   7.893   5.648
33947SOL     OW 3672  12.543   8.354   8.523
33947SOL    HW1 3673  12.630   8.324   8.552
33947SOL    HW2 3674  12.555   8.378   8.431
33948SOL     OW 3675   2.642   1.471   5.596
33948SOL    HW1 3676   2.695   1.449   5.672
33948SOL    HW2 3677   2.684   1.424   5.524
33949SOL     OW 3678  13.920  12.719  14.786
33949SOL    HW1 3679  13.881  12.727  14.699
33949SOL    HW2 3680  14.005  12.678  14.771
33950SOL     OW 3681  12.909   2.567  12.260
33950SOL    HW1 3682  12.970   2.554  12.332
33950SOL    HW2 3683  12.956   2.623  12.198
33951SOL     OW 3684   3.390   3.952   4.841
33951SOL    HW1 3685   3.461   4.012   4.821
33951SOL    HW2 3686   3.319   4.009   4.872
33952SOL     OW 3687   7.549  13.324   9.076
33952SOL    HW1 3688   7.632  13.359   9.044
33952SOL    HW2 3689   7.546  13.234   9.044
33953SOL     OW 3690   9.247  12.115   9.262
33953SOL    HW1 3691   9.226  12.123   9.169
33953SOL    HW2 3692   9.182  12.054   9.296
33954SOL     OW 3693   5.839   2.486   4.494
33954SOL    HW1 3694   5.828   2.412   4.434
33954SOL    HW2 3695   5.898   2.546   4.448
33955SOL     OW 3696   0.041   0.022   3.490
33955SOL    HW1 3697   0.018   0.061   3.406
33955SOL    HW2 3698   0.020   0.089   3.555
33956SOL     OW 3699  12.972  11.644   2.801
33956SOL    HW1 3700  13.026  11.691   2.865
33956SOL    HW2 3701  12.901  11.606   2.853
33957SOL     OW 3702   4.157   2.454   1.203
33957SOL    HW1 3703   4.134   2.529   1.258
33957SOL    HW2 3704   4.077   2.401   1.199
33958SOL     OW 3705  10.366  14.571   3.386
33958SOL    HW1 3706  10.387  14.599   3.476
33958SOL    HW2 3707  10.275  14.598   3.373
33959SOL     OW 3708  13.096   1.281   6.280
33959SOL    HW1 3709  13.090   1.187   6.263
33959SOL    HW2 3710  13.185   1.304   6.254
33960SOL     OW 3711   7.325   3.979  11.757
33960SOL    HW1 3712   7.357   4.030  11.831
33960SOL    HW2 3713   7.249   4.028  11.725
33961SOL     OW 3714  11.850  12.741   5.934
33961SOL    HW1 3715  11.882  12.651   5.939
33961SOL    HW2 3716  11.912  12.792   5.987
33962SOL     OW 3717   5.002   5.778   2.152
33962SOL    HW1 3718   4.967   5.689   2.140
33962SOL    HW2 3719   5.054   5.793   2.073
33963SOL     OW 3720   3.061  12.791  12.769
33963SOL    HW1 3721   3.141  12.842  12.766
33963SOL    HW2 3722   3.003  12.839  12.828
33964SOL     OW 3723   4.694  11.400  13.505
33964SOL    HW1 3724   4.745  11.326  13.474
33964SOL    HW2 3725   4.756  11.452  13.557
33965SOL     OW 3726  11.492   4.127   9.658
33965SOL    HW1 3727  11.553   4.057   9.638
33965SOL    HW2 3728  11.450   4.100   9.740
33966SOL     OW 3729   2.598  12.250   2.102
33966SOL    HW1 3730   2.563  12.172   2.144
33966SOL    HW2 3731   2.523  12.308   2.093
33967SOL     OW 3732   4.148   7.675   9.642
33967SOL    HW1 3733   4.118   7.597   9.596
33967SOL    HW2 3734   4.211   7.642   9.706
33968SOL     OW 3735   9.704   0.469   8.930
33968SOL    HW1 3736   9.763   0.543   8.914
33968SOL    HW2 3737   9.622   0.493   8.889
33969SOL     OW 3738  11.683   2.523  14.347
33969SOL    HW1 3739  11.624   2.573  14.290
33969SOL    HW2 3740  11.727   2.588  14.401
33970SOL     OW 3741   4.512  13.365  10.386
33970SOL    HW1 3742   4.585  13.360  10.448
33970SOL    HW2 3743   4.538  13.432  10.323
33971SOL     OW 3744  13.556   9.006  12.735
33971SOL    HW1 3745  13.605   8.951  12.796
33971SOL    HW2 3746  13.579   8.972  12.648
33972SOL     OW 3747  12.244   1.333   0.507
33972SOL    HW1 3748  12.196   1.415   0.521
33972SOL    HW2 3749  12.313   1.335   0.573
33973SOL     OW 3750   4.407   1.808   4.590
33973SOL    HW1 3751   4.462   1.882   4.613
33973SOL    HW2 3752   4.427   1.741   4.655
33974SOL     OW 3753  10.745   6.236   0.224
33974SOL    HW1 3754  10.665   6.186   0.241
33974SOL    HW2 3755  10.800   6.176   0.173
33975SOL     OW 3756  13.587   9.548  14.600
33975SOL    HW1 3757  13.651   9.485  14.568
33975SOL    HW2 3758  13.530   9.564  14.525
33976SOL     OW 3759   3.818   4.115  14.270
33976SOL    HW1 3760   3.854   4.062  14.342
33976SOL    HW2 3761   3.878   4.101  14.198
33977SOL     OW 3762  13.033   1.970   5.487
33977SOL    HW1 3763  12.970   2.011   5.547
33977SOL    HW2 3764  13.098   2.038   5.470
33978SOL     OW 3765   8.700   3.977  11.706
33978SOL    HW1 3766   8.748   3.908  11.662
33978SOL    HW2 3767   8.765   4.046  11.721
33979SOL     OW 3768   8.763   8.817   3.907
33979SOL    HW1 3769   8.824   8.748   3.933
33979SOL    HW2 3770   8.753   8.871   3.986
33980SOL     OW 3771   7.124  10.395   0.651
33980SOL    HW1 3772   7.193  10.330   0.632
33980SOL    HW2 3773   7.172  10.471   0.683
33981SOL     OW 3774   9.352   2.217   5.582
33981SOL    HW1 3775   9.326   2.194   5.671
33981SOL    HW2 3776   9.310   2.150   5.527
33982SOL     OW 3777   0.610   9.483   0.252
33982SOL    HW1 3778   0.680   9.474   0.317
33982SOL    HW2 3779   0.655   9.497   0.169
33983SOL     OW 3780  14.348   3.807   4.510
33983SOL    HW1 3781  14.392   3.746   4.450
33983SOL    HW2 3782  14.288   3.752   4.560
33984SOL     OW 3783   3.131   8.940   4.598
33984SOL    HW1 3784   3.154   8.990   4.677
33984SOL    HW2 3785   3.194   8.970   4.532
33985SOL     OW 3786  14.162   9.524   0.192
33985SOL    HW1 3787  14.113   9.522   0.110
33985SOL    HW2 3788  14.101   9.561   0.256
33986SOL     OW 3789   8.651   7.682   3.123
33986SOL    HW1 3790   8.706   7.626   3.177
33986SOL    HW2 3791   8.673   7.658   3.033
33987SOL     OW 3792  13.256   1.333   6.575
33987SOL    HW1 3793  13.226   1.333   6.666
33987SOL    HW2 3794  13.338   1.285   6.577
33988SOL     OW 3795  13.248   4.566   2.456
33988SOL    HW1 3796  13.275   4.658   2.453
33988SOL    HW2 3797  13.238   4.547   2.550
33989SOL     OW 3798  12.469  13.079   5.647
33989SOL    HW1 3799  12.514  12.997   5.670
33989SOL    HW2 3800  12.393  13.082   5.705
33990SOL     OW 3801   1.226  10.900  14.413
33990SOL    HW1 3802   1.311  10.942  14.428
33990SOL    HW2 3803   1.173  10.969  14.373
33991SOL     OW 3804   2.621   1.316   9.667
33991SOL    HW1 3805   2.677   1.391   9.686
33991SOL    HW2 3806   2.551   1.320   9.732
33992SOL     OW 3807   2.010  10.902   8.008
33992SOL    HW1 3808   2.081  10.852   8.049
33992SOL    HW2 3809   2.042  10.921   7.920
33993SOL     OW 3810   7.874   3.276  14.253
33993SOL    HW1 3811   7.959   3.245  14.224
33993SOL    HW2 3812   7.818   3.198  14.253
33994SOL     OW 3813   0.479   9.227   2.698
33994SOL    HW1 3814   0.507   9.135   2.693
33994SOL    HW2 3815   0.387   9.222   2.723
33995SOL     OW 3816   4.866   3.197   2.526
33995SOL    HW1 3817   4.777   3.179   2.497
33995SOL    HW2 3818   4.912   3.114   2.514
33996SOL     OW 3819  10.659   7.254   0.945
33996SOL    HW1 3820  10.609   7.308   0.884
33996SOL    HW2 3821  10.721   7.314   0.986
33997SOL     OW 3822   4.578   9.170   5.120
33997SOL    HW1 3823   4.591   9.076   5.117
33997SOL    HW2 3824   4.534   9.186   5.204
33998SOL     OW 3825   6.537   1.886   7.705
33998SOL    HW1 3826   6.625   1.852   7.721
33998SOL    HW2 3827   6.548   1.950   7.634
33999SOL     OW 3828  13.168   1.864   1.401
33999SOL    HW1 3829  13.131   1.790   1.352
33999SOL    HW2 3830  13.244   1.826   1.446
34000SOL     OW 3831   0.473   6.022  10.365
34000SOL    HW1 3832   0.417   5.950  10.337
34000SOL    HW2 3833   0.415   6.099  10.364
34001SOL     OW 3834  10.989   2.726   2.748
34001SOL    HW1 3835  11.022   2.790   2.811
34001SOL    HW2 3836  11.064   2.670   2.729
34002SOL     OW 3837  12.337   2.958   2.843
34002SOL    HW1 3838  12.408   2.999   2.893
34002SOL    HW2 3839  12.259   3.009   2.866
34003SOL     OW 3840  11.721  11.218   1.510
34003SOL    HW1 3841  11.657  11.237   1.442
34003SOL    HW2 3842  11.668  11.187   1.584
34004SOL     OW 3843   6.704   2.126   5.296
34004SOL    HW1 3844   6.692   2.157   5.206
34004SOL    HW2 3845   6.689   2.031   5.291
34005SOL     OW 3846   0.732   6.095   2.673
34005SOL    HW1 3847   0.811   6.098   2.727
34005SOL    HW2 3848   0.743   6.169   2.612
34006SOL     OW 3849  10.126  13.170   4.389
34006SOL    HW1 3850  10.083  13.087   4.369
34006SOL    HW2 3851  10.142  13.166   4.484
34007SOL     OW 3852  10.274   8.887  11.444
34007SOL    HW1 3853  10.213   8.960  11.456
34007SOL    HW2 3854  10.324   8.884  11.525
34008SOL     OW 3855   2.634  13.520   5.982
34008SOL    HW1 3856   2.675  13.558   5.904
34008SOL    HW2 3857   2.695  13.542   6.053
34009SOL     OW 3858   5.221   5.287  14.258
34009SOL    HW1 3859   5.221   5.353  14.327
34009SOL    HW2 3860   5.203   5.336  14.178
34010SOL     OW 3861   2.406  11.410  13.253
34010SOL    HW1 3862   2.353  11.466  13.309
34010SOL    HW2 3863   2.414  11.459  13.171
34011SOL     OW 3864   6.773   9.581   0.275
34011SOL    HW1 3865   6.797   9.670   0.247
34011SOL    HW2 3866   6.700   9.594   0.335
34012SOL     OW 3867  13.572   1.911   0.732
34012SOL    HW1 3868  13.492   1.901   0.783
34012SOL    HW2 3869  13.630   1.842   0.765
34013SOL     OW 3870  10.071   5.567   8.838
34013SOL    HW1 3871  10.120   5.636   8.882
34013SOL    HW2 3872  10.021   5.524   8.907
34014SOL     OW 3873   5.164   0.726   4.219
34014SOL    HW1 3874   5.148   0.820   4.221
34014SOL    HW2 3875   5.110   0.691   4.289
34015SOL     OW 3876   5.266   8.192   4.762
34015SOL    HW1 3877   5.352   8.228   4.786
34015SOL    HW2 3878   5.251   8.224   4.673
34016SOL     OW 3879   7.120   9.557   5.621
34016SOL    HW1 3880   7.113   9.463   5.602
34016SOL    HW2 3881   7.118   9.562   5.716
34017SOL     OW 3882   3.884   3.543  12.839
34017SOL    HW1 3883   3.859   3.464  12.790
34017SOL    HW2 3884   3.806   3.566  12.889
34018SOL     OW 3885  12.283   8.425   5.906
34018SOL    HW1 3886  12.344   8.406   5.977
34018SOL    HW2 3887  12.198   8.395   5.939
34019SOL     OW 3888   9.072   1.843  11.900
34019SOL    HW1 3889   9.047   1.766  11.951
34019SOL    HW2 3890   9.151   1.877  11.943
34020SOL     OW 3891  12.186  10.115  13.814
34020SOL    HW1 3892  12.233  10.035  13.838
34020SOL    HW2 3893  12.100  10.085  13.785
34021SOL     OW 3894  11.443   3.526   3.987
34021SOL    HW1 3895  11.408   3.443   4.017
34021SOL    HW2 3896  11.384   3.592   4.023
34022SOL     OW 3897   2.979   5.819  11.923
34022SOL    HW1 3898   2.993   5.846  11.832
34022SOL    HW2 3899   3.060   5.846  11.968
34023SOL     OW 3900   0.973  13.240   1.633
34023SOL    HW1 3901   0.970  13.164   1.692
34023SOL    HW2 3902   1.066  13.261   1.625
34024SOL     OW 3903   5.903  12.158   2.488
34024SOL    HW1 3904   5.952  12.080   2.513
34024SOL    HW2 3905   5.829  12.160   2.549
34025SOL     OW 3906  11.045   6.879   5.631
34025SOL    HW1 3907  11.082   6.802   5.674
34025SOL    HW2 3908  11.111   6.947   5.643
34026SOL     OW 3909  14.481   7.225  10.991
34026SOL    HW1 3910  14.527   7.253  10.912
34026SOL    HW2 3911  14.395   7.196  10.959
34027SOL     OW 3912   9.375   1.535   7.580
34027SOL    HW1 3913   9.461   1.569   7.605
34027SOL    HW2 3914   9.394   1.476   7.507
34028SOL     OW 3915   7.812   4.718   8.235
34028SOL    HW1 3916   7.829   4.743   8.144
34028SOL    HW2 3917   7.743   4.652   8.229
34029SOL     OW 3918   6.311   8.119   5.172
34029SOL    HW1 3919   6.227   8.076   5.189
34029SOL    HW2 3920   6.296   8.211   5.192
34030SOL     OW 3921   2.482  12.551   4.538
34030SOL    HW1 3922   2.402  12.604   4.546
34030SOL    HW2 3923   2.453  12.472   4.493
34031SOL     OW 3924   5.342   2.825   0.160
34031SOL    HW1 3925   5.431   2.790   0.160
34031SOL    HW2 3926   5.318   2.827   0.067
34032SOL     OW 3927  14.570  12.007   3.152
34032SOL    HW1 3928  14.579  12.081   3.213
34032SOL    HW2 3929  14.486  11.968   3.175
34033SOL     OW 3930   0.050  14.312   1.316
34033SOL    HW1 3931   0.067  14.279   1.228
34033SOL    HW2 3932   0.043  14.234   1.370
34034SOL     OW 3933  13.032   9.608  10.209
34034SOL    HW1 3934  13.046   9.514  10.221
34034SOL    HW2 3935  12.983   9.636  10.287
34035SOL     OW 3936   4.197  14.769   8.792
34035SOL    HW1 3937   4.126  14.803   8.738
34035SOL    HW2 3938   4.260  14.733   8.729
34036SOL     OW 3939  14.143  10.068   1.049
34036SOL    HW1 3940  14.114   9.978   1.058
34036SOL    HW2 3941  14.083  10.106   0.985
34037SOL     OW 3942   2.459   1.344   9.867
34037SOL    HW1 3943   2.384   1.286   9.880
34037SOL    HW2 3944   2.489   1.366   9.955
34038SOL     OW 3945   3.437   9.842   7.928
34038SOL    HW1 3946   3.465   9.911   7.869
34038SOL    HW2 3947   3.341   9.846   7.927
34039SOL     OW 3948   2.816   2.916   2.472
34039SOL    HW1 3949   2.764   2.937   2.550
34039SOL    HW2 3950   2.792   2.983   2.408
34040SOL     OW 3951   2.826   5.149  10.772
34040SOL    HW1 3952   2.731   5.139  10.769
34040SOL    HW2 3953   2.845   5.223  10.715
34041SOL     OW 3954  13.953   9.606   1.140
34041SOL    HW1 3955  13.973   9.537   1.202
34041SOL    HW2 3956  13.914   9.676   1.193
34042SOL     OW 3957   8.883   7.148  12.424
34042SOL    HW1 3958   8.841   7.112  12.345
34042SOL    HW2 3959   8.812   7.156  12.487
34043SOL     OW 3960   9.608   2.455   8.102
34043SOL    HW1 3961   9.584   2.428   8.190
34043SOL    HW2 3962   9.525   2.468   8.057
34044SOL     OW 3963   4.882  13.444   9.481
34044SOL    HW1 3964   4.817  13.488   9.537
34044SOL    HW2 3965   4.841  13.441   9.394
34045SOL     OW 3966  14.609   3.078   1.542
34045SOL    HW1 3967  14.667   3.122   1.480
34045SOL    HW2 3968  14.666   3.019   1.591
34046SOL     OW 3969   6.919  14.458  10.782
34046SOL    HW1 3970   6.936  14.416  10.697
34046SOL    HW2 3971   6.886  14.545  10.760
34047SOL     OW 3972  14.576  13.496   1.432
34047SOL    HW1 3973  14.586  13.404   1.408
34047SOL    HW2 3974  14.511  13.495   1.502
34048SOL     OW 3975   9.924   3.197  12.064
34048SOL    HW1 3976   9.948   3.254  12.137
34048SOL    HW2 3977  10.002   3.145  12.047
34049SOL     OW 3978  12.825   8.223   1.590
34049SOL    HW1 3979  12.735   8.190   1.590
34049SOL    HW2 3980  12.872   8.161   1.534
34050SOL     OW 3981   7.417   6.569  12.425
34050SOL    HW1 3982   7.433   6.638  12.360
34050SOL    HW2 3983   7.337   6.527  12.396
34051SOL     OW 3984  11.686   4.163   8.803
34051SOL    HW1 3985  11.684   4.079   8.758
34051SOL    HW2 3986  11.643   4.224   8.743
34052SOL     OW 3987  14.393  11.240   4.202
34052SOL    HW1 3988  14.421  11.306   4.264
34052SOL    HW2 3989  14.459  11.171   4.208
34053SOL     OW 3990   0.990   8.652   5.835
34053SOL    HW1 3991   0.980   8.695   5.920
34053SOL    HW2 3992   1.054   8.583   5.850
34054SOL     OW 3993   0.926   3.875   8.063
34054SOL    HW1 3994   0.868   3.916   8.128
34054SOL    HW2 3995   0.875   3.875   7.982
34055SOL     OW 3996  13.945   1.610   9.296
34055SOL    HW1 3997  13.860   1.610   9.251
34055SOL    HW2 3998  14.004   1.566   9.235
34056SOL     OW 3999  12.042   7.653   1.263
34056SOL    HW1 4000  11.950   7.652   1.288
34056SOL    HW2 4001  12.088   7.621   1.340
34057SOL     OW 4002   0.756  14.822  12.573
34057SOL    HW1 4003   0.790   0.033  12.594
34057SOL    HW2 4004   0.759  14.774  12.655
34058SOL     OW 4005   4.577   2.377  12.777
34058SOL    HW1 4006   4.671   2.398  12.777
34058SOL    HW2 4007   4.541   2.430  12.848
34059SOL     OW 4008  11.318   0.030   4.024
34059SOL    HW1 4009  11.409   0.026   3.995
34059SOL    HW2 4010  11.319   0.086   4.101
34060SOL     OW 4011   9.074   9.161  11.773
34060SOL    HW1 4012   9.105   9.073  11.796
34060SOL    HW2 4013   9.007   9.180  11.839
34061SOL     OW 4014   6.529  10.592   8.614
34061SOL    HW1 4015   6.619  10.587   8.647
34061SOL    HW2 4016   6.490  10.664   8.663
34062SOL     OW 4017   7.145  10.253  10.162
34062SOL    HW1 4018   7.178  10.248  10.252
34062SOL    HW2 4019   7.051  10.267  10.172
34063SOL     OW 4020   3.636   2.919   0.844
34063SOL    HW1 4021   3.575   2.855   0.880
34063SOL    HW2 4022   3.582   2.974   0.787
34064SOL     OW 4023   9.333  12.015   4.185
34064SOL    HW1 4024   9.298  11.998   4.272
34064SOL    HW2 4025   9.403  11.950   4.174
34065SOL     OW 4026   1.896   7.419   7.929
34065SOL    HW1 4027   1.938   7.335   7.947
34065SOL    HW2 4028   1.968   7.482   7.928
34066SOL     OW 4029  11.656   5.375  12.245
34066SOL    HW1 4030  11.694   5.442  12.188
34066SOL    HW2 4031  11.731   5.333  12.285
34067SOL     OW 4032  10.134   1.667   9.009
34067SOL    HW1 4033  10.112   1.576   8.986
34067SOL    HW2 4034  10.209   1.688   8.954
34068SOL     OW 4035  10.810   3.405   2.068
34068SOL    HW1 4036  10.779   3.488   2.033
34068SOL    HW2 4037  10.874   3.429   2.135
34069SOL     OW 4038   4.185   9.814   3.308
34069SOL    HW1 4039   4.267   9.765   3.316
34069SOL    HW2 4040   4.202   9.879   3.240
34070SOL     OW 4041   5.696   7.063   8.077
34070SOL    HW1 4042   5.764   7.038   8.140
34070SOL    HW2 4043   5.681   7.156   8.094
34071SOL     OW 4044   8.076  10.722   8.142
34071SOL    HW1 4045   8.018  10.759   8.209
34071SOL    HW2 4046   8.017  10.700   8.070
34072SOL     OW 4047  11.397  14.179   0.564
34072SOL    HW1 4048  11.487  14.165   0.535
34072SOL    HW2 4049  11.396  14.269   0.596
34073SOL     OW 4050  13.546   6.609   4.068
34073SOL    HW1 4051  13.507   6.620   3.981
34073SOL    HW2 4052  13.478   6.639   4.129
34074SOL     OW 4053  11.805   3.636  10.609
34074SOL    HW1 4054  11.747   3.700  10.651
34074SOL    HW2 4055  11.856   3.599  10.681
34075SOL     OW 4056   0.961  14.791   2.029
34075SOL    HW1 4057   0.967  14.767   2.122
34075SOL    HW2 4058   1.052  14.800   2.001
34076SOL     OW 4059   9.890   0.693  14.304
34076SOL    HW1 4060   9.945   0.744  14.363
34076SOL    HW2 4061   9.947   0.669  14.231
34077SOL     OW 4062   4.511  14.314   7.631
34077SOL    HW1 4063   4.445  14.334   7.697
34077SOL    HW2 4064   4.550  14.398   7.608
34078SOL     OW 4065  11.159   0.768   0.930
34078SOL    HW1 4066  11.081   0.807   0.890
34078SOL    HW2 4067  11.133   0.678   0.950
34079SOL     OW 4068  11.546   2.990   6.530
34079SOL    HW1 4069  11.621   2.978   6.471
34079SOL    HW2 4070  11.528   2.903   6.564
34080SOL     OW 4071   6.458   9.802   2.014
34080SOL    HW1 4072   6.508   9.830   2.091
34080SOL    HW2 4073   6.391   9.870   2.003
34081SOL     OW 4074  11.518   6.870  13.677
34081SOL    HW1 4075  11.488   6.821  13.753
34081SOL    HW2 4076  11.561   6.947  13.713
34082SOL     OW 4077   5.429   8.112   0.807
34082SOL    HW1 4078   5.405   8.028   0.767
34082SOL    HW2 4079   5.407   8.177   0.739
34083SOL     OW 4080  13.732   3.170   6.653
34083SOL    HW1 4081  13.642   3.144   6.675
34083SOL    HW2 4082  13.738   3.158   6.559
34084SOL     OW 4083   7.492   2.889  14.439
34084SOL    HW1 4084   7.583   2.877  14.464
34084SOL    HW2 4085   7.443   2.873  14.520
34085SOL     OW 4086  14.152   1.988  10.397
34085SOL    HW1 4087  14.226   2.048  10.402
34085SOL    HW2 4088  14.102   2.005  10.477
34086SOL     OW 4089   7.774  10.179   5.717
34086SOL    HW1 4090   7.869  10.167   5.722
34086SOL    HW2 4091   7.763  10.273   5.701
34087SOL     OW 4092  12.732   9.516   0.958
34087SOL    HW1 4093  12.696   9.594   1.000
34087SOL    HW2 4094  12.826   9.521   0.976
34088SOL     OW 4095   9.639   2.651   3.856
34088SOL    HW1 4096   9.604   2.739   3.840
34088SOL    HW2 4097   9.635   2.641   3.951
34089SOL     OW 4098   9.286   7.787  11.008
34089SOL    HW1 4099   9.319   7.809  10.921
34089SOL    HW2 4100   9.250   7.699  10.998
34090SOL     OW 4101   3.580   5.046  12.633
34090SOL    HW1 4102   3.579   5.020  12.541
34090SOL    HW2 4103   3.551   5.137  12.633
34091SOL     OW 4104  12.649  12.628   4.775
34091SOL    HW1 4105  12.716  12.694   4.795
34091SOL    HW2 4106  12.696  12.560   4.727
34092SOL     OW 4107  13.835   5.554  13.611
34092SOL    HW1 4108  13.869   5.570  13.699
34092SOL    HW2 4109  13.905   5.583  13.552
34093SOL     OW 4110  11.942   4.297   7.351
34093SOL    HW1 4111  11.952   4.256   7.437
34093SOL    HW2 4112  11.996   4.245   7.293
34094SOL     OW 4113   3.618  10.023   8.435
34094SOL    HW1 4114   3.659  10.024   8.349
34094SOL    HW2 4115   3.610  10.116   8.458
34095SOL     OW 4116  11.557  10.522   2.357
34095SOL    HW1 4117  11.614  10.445   2.356
34095SOL    HW2 4118  11.479  10.493   2.404
34096SOL     OW 4119  12.969   0.176   2.963
34096SOL    HW1 4120  13.042   0.160   2.904
34096SOL    HW2 4121  12.933   0.089   2.981
34097SOL     OW 4122   1.782   5.392   0.207
34097SOL    HW1 4123   1.770   5.440   0.288
34097SOL    HW2 4124   1.702   5.340   0.197
34098SOL     OW 4125   1.579  11.903   6.255
34098SOL    HW1 4126   1.595  11.928   6.346
34098SOL    HW2 4127   1.580  11.985   6.207
34099SOL     OW 4128   2.254   5.449  10.789
34099SOL    HW1 4129   2.349   5.439  10.796
34099SOL    HW2 4130   2.229   5.494  10.870
34100SOL     OW 4131   1.158   7.545   8.482
34100SOL    HW1 4132   1.231   7.492   8.448
34100SOL    HW2 4133   1.153   7.619   8.423
34101SOL     OW 4134   1.371  13.630   1.931
34101SOL    HW1 4135   1.454  13.584   1.936
34101SOL    HW2 4136   1.325  13.590   1.858
34102SOL     OW 4137  14.492  12.846   0.983
34102SOL    HW1 4138  14.442  12.926   0.969
34102SOL    HW2 4139  14.432  12.788   1.029
34103SOL     OW 4140   9.536  11.348  10.469
34103SOL    HW1 4141   9.531  11.436  10.506
34103SOL    HW2 4142   9.576  11.295  10.537
34104SOL     OW 4143   8.614   6.668   3.783
34104SOL    HW1 4144   8.668   6.698   3.856
34104SOL    HW2 4145   8.534   6.636   3.824
34105SOL     OW 4146   9.992  12.682  12.743
34105SOL    HW1 4147   9.903  12.717  12.749
34105SOL    HW2 4148   9.986  12.593  12.777
34106SOL     OW 4149   7.345   2.187   7.654
34106SOL    HW1 4150   7.294   2.210   7.731
34106SOL    HW2 4151   7.346   2.267   7.601
34107SOL     OW 4152   6.796   0.258   9.704
34107SOL    HW1 4153   6.883   0.275   9.666
34107SOL    HW2 4154   6.772   0.341   9.745
34108SOL     OW 4155   9.955  12.385  11.040
34108SOL    HW1 4156   9.978  12.376  10.947
34108SOL    HW2 4157   9.961  12.296  11.075
34109SOL     OW 4158   7.019  11.240   6.916
34109SOL    HW1 4159   7.073  11.283   6.849
34109SOL    HW2 4160   6.942  11.296   6.924
34110SOL     OW 4161   7.784   9.752   3.665
34110SOL    HW1 4162   7.717   9.795   3.612
34110SOL    HW2 4163   7.783   9.661   3.637
34111SOL     OW 4164   8.779  13.851   7.708
34111SOL    HW1 4165   8.871  13.828   7.695
34111SOL    HW2 4166   8.732  13.795   7.647
34112SOL     OW 4167   3.453   1.001  14.671
34112SOL    HW1 4168   3.501   1.006  14.588
34112SOL    HW2 4169   3.512   1.042  14.734
34113SOL     OW 4170  12.709   2.049   8.282
34113SOL    HW1 4171  12.657   2.110   8.228
34113SOL    HW2 4172  12.733   1.979   8.222
34114SOL     OW 4173   1.838   6.690   8.105
34114SOL    HW1 4174   1.871   6.610   8.145
34114SOL    HW2 4175   1.888   6.698   8.023
34115SOL     OW 4176   9.743   6.678   9.737
34115SOL    HW1 4177   9.727   6.584   9.749
34115SOL    HW2 4178   9.659   6.719   9.755
34116SOL     OW 4179   1.008   6.432   3.621
34116SOL    HW1 4180   0.950   6.375   3.571
34116SOL    HW2 4181   0.949   6.496   3.661
34117SOL     OW 4182   0.064   5.591  13.693
34117SOL    HW1 4183   0.051   5.501  13.665
34117SOL    HW2 4184   0.048   5.590  13.787
34118SOL     OW 4185   5.843  14.294   9.138
34118SOL    HW1 4186   5.934  14.325   9.131
34118SOL    HW2 4187   5.790  14.373   9.128
34119SOL     OW 4188   8.919   1.835   9.561
34119SOL    HW1 4189   8.825   1.848   9.571
34119SOL    HW2 4190   8.945   1.784   9.638
34120SOL     OW 4191  13.792  10.268  14.747
34120SOL    HW1 4192  13.725  10.324  14.708
34120SOL    HW2 4193  13.754  10.180  14.744
34121SOL     OW 4194   7.620   3.316   6.607
34121SOL    HW1 4195   7.710   3.341   6.586
34121SOL    HW2 4196   7.585   3.389   6.657
34122SOL     OW 4197  12.015   2.568   9.668
34122SOL    HW1 4198  11.982   2.574   9.758
34122SOL    HW2 4199  12.107   2.592   9.675
34123SOL     OW 4200   4.616  13.056   2.982
34123SOL    HW1 4201   4.534  13.041   2.934
34123SOL    HW2 4202   4.608  13.146   3.014
34124SOL     OW 4203   9.851   7.292  14.695
34124SOL    HW1 4204   9.898   7.366  14.657
34124SOL    HW2 4205   9.787   7.331  14.754
34125SOL     OW 4206  11.050   8.230   4.162
34125SOL    HW1 4207  11.113   8.179   4.213
34125SOL    HW2 4208  11.104   8.290   4.110
34126SOL     OW 4209   1.101   5.194  13.473
34126SOL    HW1 4210   1.103   5.272  13.419
34126SOL    HW2 4211   1.020   5.149  13.447
34127SOL     OW 4212  13.930  14.782   7.059
34127SOL    HW1 4213  13.850  14.740   7.090
34127SOL    HW2 4214  13.944  14.745   6.972
34128SOL     OW 4215   1.612   5.776  11.885
34128SOL    HW1 4216   1.630   5.686  11.855
34128SOL    HW2 4217   1.578   5.765  11.973
34129SOL     OW 4218  10.177   8.166   5.346
34129SOL    HW1 4219  10.123   8.090   5.327
34129SOL    HW2 4220  10.117   8.241   5.342
34130SOL     OW 4221   4.082  12.107   0.002
34130SOL    HW1 4222   4.177  12.102   0.010
34130SOL    HW2 4223   4.063  12.201   0.001
34131SOL     OW 4224  13.310   5.000   1.158
34131SOL    HW1 4225  13.359   5.077   1.186
34131SOL    HW2 4226  13.250   4.983   1.230
34132SOL     OW 4227  11.941   2.532  13.789
34132SOL    HW1 4228  12.013   2.580  13.831
34132SOL    HW2 4229  11.975   2.442  13.779
34133SOL     OW 4230  14.249  10.355   5.918
34133SOL    HW1 4231  14.155  10.344   5.927
34133SOL    HW2 4232  14.286  10.304   5.990
34134SOL     OW 4233   8.775   1.153   2.189
34134SOL    HW1 4234   8.731   1.091   2.130
34134SOL    HW2 4235   8.865   1.123   2.192
34135SOL     OW 4236  12.582   4.819   9.757
34135SOL    HW1 4237  12.502   4.811   9.704
34135SOL    HW2 4238  12.567   4.761   9.831
34136SOL     OW 4239   6.783  11.579   8.688
34136SOL    HW1 4240   6.739  11.563   8.604
34136SOL    HW2 4241   6.759  11.504   8.743
34137SOL     OW 4242  13.938   8.882  13.613
34137SOL    HW1 4243  13.932   8.792  13.647
34137SOL    HW2 4244  13.870   8.886  13.545
34138SOL     OW 4245   0.467   1.252   3.653
34138SOL    HW1 4246   0.373   1.261   3.671
34138SOL    HW2 4247   0.506   1.332   3.688
34139SOL     OW 4248  14.513   1.214   8.044
34139SOL    HW1 4249  14.537   1.167   7.964
34139SOL    HW2 4250  14.468   1.148   8.097
34140SOL     OW 4251  11.437   6.568   6.803
34140SOL    HW1 4252  11.412   6.575   6.710
34140SOL    HW2 4253  11.486   6.486   6.808
34141SOL     OW 4254   1.746   1.170  10.749
34141SOL    HW1 4255   1.693   1.203  10.677
34141SOL    HW2 4256   1.820   1.231  10.755
34142SOL     OW 4257  13.051  13.414   9.818
34142SOL    HW1 4258  12.985  13.404   9.887
34142SOL    HW2 4259  13.090  13.500   9.834
34143SOL     OW 4260   8.738   3.861   7.865
34143SOL    HW1 4261   8.692   3.893   7.788
34143SOL    HW2 4262   8.669   3.840   7.928
34144SOL     OW 4263   0.424   9.748   9.416
34144SOL    HW1 4264   0.476   9.784   9.344
34144SOL    HW2 4265   0.357   9.815   9.433
34145SOL     OW 4266   7.866   4.845   9.113
34145SOL    HW1 4267   7.936   4.810   9.168
34145SOL    HW2 4268   7.911   4.895   9.045
34146SOL     OW 4269   5.600  12.503   4.794
34146SOL    HW1 4270   5.589  12.517   4.888
34146SOL    HW2 4271   5.594  12.590   4.756
34147SOL     OW 4272  13.493  12.971  11.202
34147SOL    HW1 4273  13.476  13.056  11.162
34147SOL    HW2 4274  13.406  12.933  11.217
34148SOL     OW 4275   2.527   5.154   2.479
34148SOL    HW1 4276   2.535   5.094   2.552
34148SOL    HW2 4277   2.590   5.224   2.498
34149SOL     OW 4278   4.949  10.678  12.410
34149SOL    HW1 4279   4.968  10.584  12.406
34149SOL    HW2 4280   4.955  10.708  12.320
34150SOL     OW 4281   6.007   3.561  13.592
34150SOL    HW1 4282   5.990   3.598  13.506
34150SOL    HW2 4283   5.950   3.610  13.651
34151SOL     OW 4284  10.824   4.401  12.746
34151SOL    HW1 4285  10.842   4.410  12.839
34151SOL    HW2 4286  10.891   4.341  12.714
34152SOL     OW 4287  11.058   3.046  12.015
34152SOL    HW1 4288  11.057   3.041  11.920
34152SOL    HW2 4289  11.148   3.021  12.039
34153SOL     OW 4290  12.296   3.678  13.680
34153SOL    HW1 4291  12.228   3.708  13.620
34153SOL    HW2 4292  12.338   3.605  13.634
34154SOL     OW 4293   8.177   3.936   6.285
34154SOL    HW1 4294   8.163   3.857   6.233
34154SOL    HW2 4295   8.109   3.934   6.352
34155SOL     OW 4296  13.183  13.009   2.650
34155SOL    HW1 4297  13.199  13.041   2.561
34155SOL    HW2 4298  13.089  12.990   2.652
34156SOL     OW 4299   2.197   6.939   8.358
34156SOL    HW1 4300   2.219   6.893   8.439
34156SOL    HW2 4301   2.190   6.870   8.292
34157SOL     OW 4302   8.057  14.625   7.680
34157SOL    HW1 4303   8.103  14.705   7.706
34157SOL    HW2 4304   7.967  14.654   7.661
34158SOL     OW 4305  10.456   0.496   8.428
34158SOL    HW1 4306  10.490   0.407   8.418
34158SOL    HW2 4307  10.504   0.548   8.364
34159SOL     OW 4308  13.043  13.268   9.597
34159SOL    HW1 4309  13.089  13.293   9.677
34159SOL    HW2 4310  12.954  13.302   9.608
34160SOL     OW 4311   8.779   6.418   3.626
34160SOL    HW1 4312   8.829   6.499   3.620
34160SOL    HW2 4313   8.694   6.439   3.587
34161SOL     OW 4314   9.328  13.956   1.491
34161SOL    HW1 4315   9.423  13.952   1.493
34161SOL    HW2 4316   9.307  14.041   1.530
34162SOL     OW 4317   9.720   9.019   9.265
34162SOL    HW1 4318   9.771   8.982   9.192
34162SOL    HW2 4319   9.770   9.095   9.293
34163SOL     OW 4320   4.313  13.488   7.485
34163SOL    HW1 4321   4.288  13.427   7.555
34163SOL    HW2 4322   4.252  13.470   7.414
34164SOL     OW 4323   7.756   1.897  12.410
34164SOL    HW1 4324   7.822   1.869  12.346
34164SOL    HW2 4325   7.680   1.842  12.392
34165SOL     OW 4326  14.511  10.844  11.667
34165SOL    HW1 4327  14.451  10.775  11.694
34165SOL    HW2 4328  14.473  10.925  11.701
34166SOL     OW 4329   9.542   5.251   9.426
34166SOL    HW1 4330   9.568   5.309   9.497
34166SOL    HW2 4331   9.448   5.268   9.415
34167SOL     OW 4332   5.064  12.535   3.559
34167SOL    HW1 4333   5.051  12.596   3.487
34167SOL    HW2 4334   5.129  12.472   3.525
34168SOL     OW 4335   0.031  12.533   5.041
34168SOL    HW1 4336  14.876  12.623   5.053
34168SOL    HW2 4337   0.041  12.524   4.946
34169SOL     OW 4338   8.300  13.996  14.151
34169SOL    HW1 4339   8.278  13.999  14.058
34169SOL    HW2 4340   8.216  13.979  14.195
34170SOL     OW 4341   5.867  14.403  11.846
34170SOL    HW1 4342   5.881  14.442  11.932
34170SOL    HW2 4343   5.836  14.314  11.865
34171SOL     OW 4344  11.976  12.045   6.296
34171SOL    HW1 4345  11.946  11.982   6.362
34171SOL    HW2 4346  11.926  12.125   6.315
34172SOL     OW 4347   1.301  13.053   6.155
34172SOL    HW1 4348   1.276  13.001   6.231
34172SOL    HW2 4349   1.221  13.058   6.103
34173SOL     OW 4350  11.731   1.402  11.825
34173SOL    HW1 4351  11.723   1.349  11.904
34173SOL    HW2 4352  11.815   1.376  11.787
34174SOL     OW 4353  12.461  12.742   1.455
34174SOL    HW1 4354  12.410  12.821   1.437
34174SOL    HW2 4355  12.527  12.769   1.519
34175SOL     OW 4356  13.539   1.461   3.448
34175SOL    HW1 4357  13.495   1.488   3.368
34175SOL    HW2 4358  13.559   1.543   3.494
34176SOL     OW 4359  10.108   6.486  11.285
34176SOL    HW1 4360  10.137   6.496  11.375
34176SOL    HW2 4361  10.117   6.573  11.247
34177SOL     OW 4362   9.612   0.013   6.146
34177SOL    HW1 4363   9.663   0.068   6.086
34177SOL    HW2 4364   9.621  14.800   6.111
34178SOL     OW 4365  13.649  13.358  11.358
34178SOL    HW1 4366  13.662  13.272  11.319
34178SOL    HW2 4367  13.716  13.364  11.427
34179SOL     OW 4368   2.269  14.710   5.273
34179SOL    HW1 4369   2.334  14.665   5.219
34179SOL    HW2 4370   2.312  14.722   5.358
34180SOL     OW 4371  13.374  13.383   8.489
34180SOL    HW1 4372  13.365  13.467   8.444
34180SOL    HW2 4373  13.443  13.397   8.554
34181SOL     OW 4374  13.203   5.321   6.893
34181SOL    HW1 4375  13.298   5.315   6.903
34181SOL    HW2 4376  13.186   5.288   6.805
34182SOL     OW 4377   6.292  12.726   3.084
34182SOL    HW1 4378   6.301  12.807   3.132
34182SOL    HW2 4379   6.226  12.676   3.133
34183SOL     OW 4380   2.555   8.667   0.823
34183SOL    HW1 4381   2.510   8.600   0.875
34183SOL    HW2 4382   2.547   8.746   0.876
34184SOL     OW 4383   2.526   3.916   6.056
34184SOL    HW1 4384   2.516   3.832   6.011
34184SOL    HW2 4385   2.479   3.978   6.001
34185SOL     OW 4386   7.909   5.944   3.994
34185SOL    HW1 4387   7.895   5.920   3.902
34185SOL    HW2 4388   7.832   5.911   4.040
34186SOL     OW 4389  13.759   1.451   5.156
34186SOL    HW1 4390  13.759   1.468   5.250
34186SOL    HW2 4391  13.696   1.514   5.120
34187SOL     OW 4392  13.960   9.106   5.176
34187SOL    HW1 4393  13.928   9.191   5.147
34187SOL    HW2 4394  13.947   9.107   5.271
34188SOL     OW 4395  12.391   0.401   9.271
34188SOL    HW1 4396  12.427   0.318   9.240
34188SOL    HW2 4397  12.466   0.461   9.272
34189SOL     OW 4398  13.940  14.096  12.130
34189SOL    HW1 4399  13.849  14.068  12.117
34189SOL    HW2 4400  13.992  14.031  12.083
34190SOL     OW 4401  10.462   5.690   8.739
34190SOL    HW1 4402  10.419   5.648   8.665
34190SOL    HW2 4403  10.417   5.774   8.748
34191SOL     OW 4404   6.438   1.847   9.074
34191SOL    HW1 4405   6.480   1.923   9.114
34191SOL    HW2 4406   6.456   1.856   8.981
34192SOL     OW 4407   6.049  12.791  11.712
34192SOL    HW1 4408   6.135  12.794  11.755
34192SOL    HW2 4409   6.037  12.880  11.679
34193SOL     OW 4410  10.752   5.957   5.324
34193SOL    HW1 4411  10.838   5.986   5.353
34193SOL    HW2 4412  10.706   6.037   5.300
34194SOL     OW 4413   3.762  12.697   5.764
34194SOL    HW1 4414   3.672  12.714   5.793
34194SOL    HW2 4415   3.813  12.768   5.803
34195SOL     OW 4416   5.753  14.077  11.513
34195SOL    HW1 4417   5.666  14.038  11.510
34195SOL    HW2 4418   5.776  14.090  11.421
34196SOL     OW 4419   3.420   3.869   6.179
34196SOL    HW1 4420   3.408   3.911   6.093
34196SOL    HW2 4421   3.359   3.915   6.236
34197SOL     OW 4422   5.333   9.836   7.412
34197SOL    HW1 4423   5.284   9.784   7.348
34197SOL    HW2 4424   5.290   9.921   7.412
34198SOL     OW 4425   0.115   0.547   4.195
34198SOL    HW1 4426   0.102   0.642   4.197
34198SOL    HW2 4427   0.101   0.523   4.103
34199SOL     OW 4428   5.804   8.131   7.869
34199SOL    HW1 4429   5.840   8.065   7.810
34199SOL    HW2 4430   5.879   8.158   7.922
34200SOL     OW 4431  11.951   8.515   9.781
34200SOL    HW1 4432  11.946   8.532   9.686
34200SOL    HW2 4433  12.012   8.442   9.789
34201SOL     OW 4434   2.951   1.751   3.155
34201SOL    HW1 4435   2.930   1.659   3.167
34201SOL    HW2 4436   3.043   1.751   3.131
34202SOL     OW 4437   1.889  14.500   4.136
34202SOL    HW1 4438   1.952  14.454   4.191
34202SOL    HW2 4439   1.882  14.447   4.057
34203SOL     OW 4440   5.793   6.416   0.209
34203SOL    HW1 4441   5.784   6.353   0.138
34203SOL    HW2 4442   5.822   6.363   0.284
34204SOL     OW 4443   3.161  12.580  11.544
34204SOL    HW1 4444   3.203  12.532  11.615
34204SOL    HW2 4445   3.069  12.556  11.549
34205SOL     OW 4446   3.283   0.901  13.791
34205SOL    HW1 4447   3.260   0.921  13.881
34205SOL    HW2 4448   3.272   0.984  13.744
34206SOL     OW 4449   7.830   5.135   7.214
34206SOL    HW1 4450   7.837   5.119   7.308
34206SOL    HW2 4451   7.919   5.121   7.181
34207SOL     OW 4452  10.721   8.602  13.810
34207SOL    HW1 4453  10.808   8.565  13.790
34207SOL    HW2 4454  10.724   8.621  13.903
34208SOL     OW 4455   3.614   5.378   4.064
34208SOL    HW1 4456   3.604   5.283   4.067
34208SOL    HW2 4457   3.563   5.405   3.987
34209SOL     OW 4458  12.914  12.712   2.477
34209SOL    HW1 4459  12.957  12.706   2.562
34209SOL    HW2 4460  12.829  12.752   2.496
34210SOL     OW 4461   4.840   3.414  13.031
34210SOL    HW1 4462   4.869   3.380  12.947
34210SOL    HW2 4463   4.770   3.476  13.009
34211SOL     OW 4464   3.600  14.076   4.677
34211SOL    HW1 4465   3.575  14.011   4.611
34211SOL    HW2 4466   3.696  14.069   4.682
34212SOL     OW 4467  10.658  13.786   3.280
34212SOL    HW1 4468  10.748  13.799   3.250
34212SOL    HW2 4469  10.605  13.829   3.212
34213SOL     OW 4470  10.326  13.794  14.606
34213SOL    HW1 4471  10.387  13.807  14.679
34213SOL    HW2 4472  10.346  13.706  14.574
34214SOL     OW 4473   7.133  12.124   6.361
34214SOL    HW1 4474   7.168  12.070   6.290
34214SOL    HW2 4475   7.202  12.124   6.428
34215SOL     OW 4476  10.231   8.869   8.193
34215SOL    HW1 4477  10.269   8.796   8.144
34215SOL    HW2 4478  10.143   8.839   8.215
34216SOL     OW 4479  13.366   7.381   8.458
34216SOL    HW1 4480  13.303   7.329   8.408
34216SOL    HW2 4481  13.322   7.465   8.472
34217SOL     OW 4482  12.281  14.473   4.858
34217SOL    HW1 4483  12.205  14.518   4.821
34217SOL    HW2 4484  12.343  14.466   4.786
34218SOL     OW 4485   7.361   6.153   6.099
34218SOL    HW1 4486   7.370   6.192   6.186
34218SOL    HW2 4487   7.430   6.087   6.095
34219SOL     OW 4488   6.694  14.056   8.436
34219SOL    HW1 4489   6.642  14.132   8.411
34219SOL    HW2 4490   6.635  13.982   8.428
34220SOL     OW 4491   4.304   7.356   8.082
34220SOL    HW1 4492   4.306   7.428   8.144
34220SOL    HW2 4493   4.372   7.296   8.114
34221SOL     OW 4494  14.267   3.213   1.153
34221SOL    HW1 4495  14.207   3.264   1.208
34221SOL    HW2 4496  14.214   3.189   1.077
34222SOL     OW 4497   8.036  10.187   2.788
34222SOL    HW1 4498   7.984  10.238   2.725
34222SOL    HW2 4499   8.121  10.176   2.745
34223SOL     OW 4500   2.766   0.861   1.462
34223SOL    HW1 4501   2.732   0.773   1.446
34223SOL    HW2 4502   2.689   0.918   1.453
34224SOL     OW 4503   8.314   9.886   5.971
34224SOL    HW1 4504   8.373   9.828   5.924
34224SOL    HW2 4505   8.250   9.827   6.011
34225SOL     OW 4506   4.482  13.062  13.861
34225SOL    HW1 4507   4.518  12.975  13.842
34225SOL    HW2 4508   4.465  13.101  13.776
34226SOL     OW 4509   0.166   3.121  13.483
34226SOL    HW1 4510   0.238   3.072  13.443
34226SOL    HW2 4511   0.184   3.213  13.462
34227SOL     OW 4512   8.228   8.815   7.523
34227SOL    HW1 4513   8.181   8.799   7.605
34227SOL    HW2 4514   8.174   8.881   7.478
34228SOL     OW 4515  13.518   1.944   2.769
34228SOL    HW1 4516  13.445   1.887   2.792
34228SOL    HW2 4517  13.592   1.908   2.817
34229SOL     OW 4518   2.029   5.946   4.802
34229SOL    HW1 4519   2.002   5.857   4.825
34229SOL    HW2 4520   2.121   5.951   4.828
34230SOL     OW 4521   1.663   0.914   6.693
34230SOL    HW1 4522   1.625   0.969   6.761
34230SOL    HW2 4523   1.757   0.932   6.697
34231SOL     OW 4524   0.356   3.375   2.296
34231SOL    HW1 4525   0.370   3.393   2.203
34231SOL    HW2 4526   0.268   3.408   2.314
34232SOL     OW 4527  11.436   6.644  13.947
34232SOL    HW1 4528  11.380   6.567  13.947
34232SOL    HW2 4529  11.523   6.611  13.972
34233SOL     OW 4530   9.786   8.998  11.714
34233SOL    HW1 4531   9.879   8.994  11.738
34233SOL    HW2 4532   9.754   8.909  11.726
34234SOL     OW 4533   7.594   4.633   0.829
34234SOL    HW1 4534   7.601   4.618   0.923
34234SOL    HW2 4535   7.683   4.619   0.796
34235SOL     OW 4536   9.048   4.070   8.921
34235SOL    HW1 4537   9.040   4.082   9.016
34235SOL    HW2 4538   9.139   4.045   8.907
34236SOL     OW 4539   9.233  12.899   6.179
34236SOL    HW1 4540   9.144  12.876   6.202
34236SOL    HW2 4541   9.242  12.875   6.087
34237SOL     OW 4542  12.161   3.491   3.697
34237SOL    HW1 4543  12.144   3.406   3.738
34237SOL    HW2 4544  12.257   3.496   3.692
34238SOL     OW 4545  13.105   9.639  11.636
34238SOL    HW1 4546  13.078   9.729  11.617
34238SOL    HW2 4547  13.185   9.649  11.688
34239SOL     OW 4548   6.979  14.302  11.203
34239SOL    HW1 4549   6.898  14.293  11.153
34239SOL    HW2 4550   7.048  14.278  11.141
34240SOL     OW 4551   8.641   5.195  14.773
34240SOL    HW1 4552   8.624   5.102  14.788
34240SOL    HW2 4553   8.711   5.217  14.834
34241SOL     OW 4554   1.238   0.612   5.118
34241SOL    HW1 4555   1.313   0.589   5.064
34241SOL    HW2 4556   1.218   0.703   5.095
34242SOL     OW 4557   0.131  14.329  10.942
34242SOL    HW1 4558   0.157  14.375  11.021
34242SOL    HW2 4559   0.207  14.336  10.883
34243SOL     OW 4560   1.755   6.896  12.419
34243SOL    HW1 4561   1.822   6.959  12.445
34243SOL    HW2 4562   1.730   6.853  12.500
34244SOL     OW 4563   2.978   7.890   9.069
34244SOL    HW1 4564   2.931   7.964   9.031
34244SOL    HW2 4565   3.047   7.930   9.121
34245SOL     OW 4566   0.646  11.375   2.688
34245SOL    HW1 4567   0.645  11.416   2.602
34245SOL    HW2 4568   0.587  11.428   2.742
34246SOL     OW 4569   7.419   9.671   7.066
34246SOL    HW1 4570   7.348   9.734   7.052
34246SOL    HW2 4571   7.419   9.656   7.161
34247SOL     OW 4572   4.255   8.987  12.605
34247SOL    HW1 4573   4.180   8.928  12.611
34247SOL    HW2 4574   4.272   9.012  12.696
34248SOL     OW 4575   8.418   1.795   0.309
34248SOL    HW1 4576   8.372   1.834   0.235
34248SOL    HW2 4577   8.356   1.800   0.382
34249SOL     OW 4578   4.959  10.882  11.735
34249SOL    HW1 4579   5.018  10.814  11.769
34249SOL    HW2 4580   5.015  10.959  11.727
34250SOL     OW 4581   9.507   8.881  13.474
34250SOL    HW1 4582   9.533   8.928  13.395
34250SOL    HW2 4583   9.427   8.925  13.503
34251SOL     OW 4584  12.771  11.438  14.152
34251SOL    HW1 4585  12.807  11.433  14.241
34251SOL    HW2 4586  12.839  11.483  14.102
34252SOL     OW 4587   7.109   3.456   7.485
34252SOL    HW1 4588   7.181   3.420   7.537
34252SOL    HW2 4589   7.148   3.474   7.399
34253SOL     OW 4590   3.745  11.119   0.769
34253SOL    HW1 4591   3.703  11.037   0.743
34253SOL    HW2 4592   3.837  11.095   0.780
34254SOL     OW 4593   6.421   2.903   7.462
34254SOL    HW1 4594   6.461   2.847   7.396
34254SOL    HW2 4595   6.495   2.932   7.516
34255SOL     OW 4596  11.991   1.378   4.256
34255SOL    HW1 4597  12.073   1.336   4.279
34255SOL    HW2 4598  12.012   1.434   4.181
34256SOL     OW 4599   2.150   3.950   7.887
34256SOL    HW1 4600   2.209   3.939   7.961
34256SOL    HW2 4601   2.101   3.868   7.882
34257SOL     OW 4602   7.162  14.567   7.361
34257SOL    HW1 4603   7.177  14.483   7.319
34257SOL    HW2 4604   7.108  14.616   7.298
34258SOL     OW 4605   4.594   8.530  11.133
34258SOL    HW1 4606   4.648   8.546  11.210
34258SOL    HW2 4607   4.585   8.616  11.092
34259SOL     OW 4608   8.919  13.611   1.773
34259SOL    HW1 4609   8.847  13.575   1.824
34259SOL    HW2 4610   8.886  13.697   1.743
34260SOL     OW 4611   8.324   9.961  13.798
34260SOL    HW1 4612   8.304   9.870  13.819
34260SOL    HW2 4613   8.281   9.977  13.714
34261SOL     OW 4614   8.979  11.413   7.218
34261SOL    HW1 4615   8.921  11.353   7.172
34261SOL    HW2 4616   8.926  11.493   7.229
34262SOL     OW 4617  14.104   6.140   1.611
34262SOL    HW1 4618  14.105   6.192   1.691
34262SOL    HW2 4619  14.192   6.148   1.575
34263SOL     OW 4620  12.309   5.317  13.736
34263SOL    HW1 4621  12.344   5.235  13.772
34263SOL    HW2 4622  12.281   5.295  13.647
34264SOL     OW 4623  14.335  11.666   4.297
34264SOL    HW1 4624  14.408  11.726   4.292
34264SOL    HW2 4625  14.266  11.714   4.343
34265SOL     OW 4626   5.534  14.660   3.234
34265SOL    HW1 4627   5.539  14.621   3.147
34265SOL    HW2 4628   5.535  14.586   3.294
34266SOL     OW 4629   3.148   3.664   5.570
34266SOL    HW1 4630   3.147   3.724   5.644
34266SOL    HW2 4631   3.068   3.683   5.521
34267SOL     OW 4632  14.308   4.029  11.975
34267SOL    HW1 4633  14.358   4.108  11.996
34267SOL    HW2 4634  14.282   3.993  12.060
34268SOL     OW 4635   3.101  11.612   0.765
34268SOL    HW1 4636   3.060  11.679   0.710
34268SOL    HW2 4637   3.192  11.609   0.736
34269SOL     OW 4638  10.968   9.462  13.606
34269SOL    HW1 4639  10.874   9.480  13.609
34269SOL    HW2 4640  11.004   9.529  13.548
34270SOL     OW 4641   0.804  10.331  10.050
34270SOL    HW1 4642   0.716  10.326  10.088
34270SOL    HW2 4643   0.844  10.247  10.072
34271SOL     OW 4644   1.082   3.580  11.000
34271SOL    HW1 4645   0.992   3.549  10.996
34271SOL    HW2 4646   1.129   3.529  10.933
34272SOL     OW 4647   7.655   0.648   3.615
34272SOL    HW1 4648   7.569   0.647   3.573
34272SOL    HW2 4649   7.644   0.707   3.689
34273SOL     OW 4650  13.346   1.779   0.778
34273SOL    HW1 4651  13.342   1.766   0.872
34273SOL    HW2 4652  13.299   1.861   0.763
34274SOL     OW 4653   4.175   7.413   6.366
34274SOL    HW1 4654   4.127   7.337   6.334
34274SOL    HW2 4655   4.252   7.375   6.410
34275SOL     OW 4656   8.926   2.428  13.003
34275SOL    HW1 4657   8.884   2.417  13.089
34275SOL    HW2 4658   8.856   2.412  12.940
34276SOL     OW 4659   6.249  14.049  10.356
34276SOL    HW1 4660   6.156  14.050  10.380
34276SOL    HW2 4661   6.294  14.084  10.432
34277SOL     OW 4662   7.591  10.821   9.110
34277SOL    HW1 4663   7.608  10.888   9.176
34277SOL    HW2 4664   7.514  10.852   9.063
34278SOL     OW 4665   5.302   1.289   4.379
34278SOL    HW1 4666   5.254   1.322   4.455
34278SOL    HW2 4667   5.361   1.222   4.414
34279SOL     OW 4668   2.221   8.404   0.332
34279SOL    HW1 4669   2.176   8.489   0.339
34279SOL    HW2 4670   2.165   8.344   0.381
34280SOL     OW 4671   1.560   0.644   6.611
34280SOL    HW1 4672   1.594   0.733   6.623
34280SOL    HW2 4673   1.555   0.633   6.517
34281SOL     OW 4674   3.846   1.668   6.510
34281SOL    HW1 4675   3.941   1.665   6.515
34281SOL    HW2 4676   3.828   1.737   6.445
34282SOL     OW 4677  12.675   9.707  13.479
34282SOL    HW1 4678  12.595   9.759  13.481
34282SOL    HW2 4679  12.688   9.685  13.387
34283SOL     OW 4680  12.747  12.926   6.710
34283SOL    HW1 4681  12.742  12.983   6.786
34283SOL    HW2 4682  12.825  12.957   6.662
34284SOL     OW 4683  10.477  14.717  10.923
34284SOL    HW1 4684  10.547  14.665  10.963
34284SOL    HW2 4685  10.415  14.732  10.995
34285SOL     OW 4686   5.555   2.184   6.571
34285SOL    HW1 4687   5.623   2.149   6.513
34285SOL    HW2 4688   5.473   2.146   6.538
34286SOL     OW 4689   0.770  14.869  10.896
34286SOL    HW1 4690   0.848   0.035  10.933
34286SOL    HW2 4691   0.729   0.062  10.843
34287SOL     OW 4692  11.636  12.478   7.130
34287SOL    HW1 4693  11.585  12.404   7.100
34287SOL    HW2 4694  11.719  12.440   7.160
34288SOL     OW 4695   6.525  10.172  14.813
34288SOL    HW1 4696   6.543  10.239   0.003
34288SOL    HW2 4697   6.432  10.152  14.824
34289SOL     OW 4698  14.557   7.672   7.762
34289SOL    HW1 4699  14.633   7.614   7.770
34289SOL    HW2 4700  14.487   7.614   7.730
34290SOL     OW 4701   5.625  12.776   5.724
34290SOL    HW1 4702   5.690  12.709   5.701
34290SOL    HW2 4703   5.675  12.858   5.727
34291SOL     OW 4704   1.946  10.079   6.591
34291SOL    HW1 4705   1.994  10.050   6.669
34291SOL    HW2 4706   1.854  10.073   6.616
34292SOL     OW 4707  14.763   9.405  11.870
34292SOL    HW1 4708  14.720   9.439  11.792
34292SOL    HW2 4709  14.710   9.437  11.943
34293SOL     OW 4710   1.191  10.937   6.993
34293SOL    HW1 4711   1.212  10.867   6.931
34293SOL    HW2 4712   1.160  10.891   7.072
34294SOL     OW 4713   5.234   5.279   0.799
34294SOL    HW1 4714   5.199   5.242   0.880
34294SOL    HW2 4715   5.167   5.259   0.733
34295SOL     OW 4716   4.412  12.968   9.984
34295SOL    HW1 4717   4.359  12.947  10.061
34295SOL    HW2 4718   4.404  13.063   9.974
34296SOL     OW 4719   1.017   8.692  11.306
34296SOL    HW1 4720   1.095   8.679  11.253
34296SOL    HW2 4721   0.979   8.605  11.315
34297SOL     OW 4722   2.390   6.033  11.288
34297SOL    HW1 4723   2.415   6.083  11.366
34297SOL    HW2 4724   2.435   6.076  11.216
34298SOL     OW 4725  12.038  12.598  11.544
34298SOL    HW1 4726  12.025  12.604  11.639
34298SOL    HW2 4727  12.051  12.688  11.516
34299SOL     OW 4728   9.746   7.944   6.265
34299SOL    HW1 4729   9.772   7.941   6.357
34299SOL    HW2 4730   9.653   7.968   6.267
34300SOL     OW 4731  11.954   3.419   9.864
34300SOL    HW1 4732  12.016   3.452   9.800
34300SOL    HW2 4733  11.915   3.497   9.904
34301SOL     OW 4734   0.595   1.209  12.693
34301SOL    HW1 4735   0.635   1.208  12.605
34301SOL    HW2 4736   0.534   1.135  12.692
34302SOL     OW 4737   9.214   8.549   1.068
34302SOL    HW1 4738   9.152   8.538   1.140
34302SOL    HW2 4739   9.160   8.542   0.989
34303SOL     OW 4740  11.492   6.525  11.255
34303SOL    HW1 4741  11.444   6.455  11.211
34303SOL    HW2 4742  11.551   6.479  11.315
34304SOL     OW 4743  12.591   7.090  11.939
34304SOL    HW1 4744  12.587   7.124  11.850
34304SOL    HW2 4745  12.552   7.158  11.993
34305SOL     OW 4746   9.740  10.466   7.807
34305SOL    HW1 4747   9.711  10.539   7.861
34305SOL    HW2 4748   9.772  10.401   7.869
34306SOL     OW 4749   0.483  13.907   3.700
34306SOL    HW1 4750   0.424  13.907   3.775
34306SOL    HW2 4751   0.565  13.870   3.734
34307SOL     OW 4752   0.739   4.649  10.486
34307SOL    HW1 4753   0.732   4.555  10.470
34307SOL    HW2 4754   0.667   4.669  10.545
34308SOL     OW 4755   1.394   0.421   3.335
34308SOL    HW1 4756   1.386   0.436   3.240
34308SOL    HW2 4757   1.365   0.503   3.375
34309SOL     OW 4758   0.337  14.812   2.799
34309SOL    HW1 4759   0.337  14.810   2.703
34309SOL    HW2 4760   0.248  14.786   2.823
34310SOL     OW 4761  10.676  10.910   2.423
34310SOL    HW1 4762  10.582  10.898   2.440
34310SOL    HW2 4763  10.702  10.831   2.377
34311SOL     OW 4764  11.715  13.792   6.025
34311SOL    HW1 4765  11.805  13.788   5.993
34311SOL    HW2 4766  11.664  13.820   5.949
34312SOL     OW 4767   3.809   3.781   9.730
34312SOL    HW1 4768   3.770   3.726   9.798
34312SOL    HW2 4769   3.821   3.721   9.656
34313SOL     OW 4770   9.510   7.116   1.363
34313SOL    HW1 4771   9.529   7.087   1.452
34313SOL    HW2 4772   9.429   7.167   1.372
34314SOL     OW 4773   6.118  12.914   2.219
34314SOL    HW1 4774   6.036  12.878   2.183
34314SOL    HW2 4775   6.097  12.937   2.309
34315SOL     OW 4776   6.408  14.780   7.349
34315SOL    HW1 4777   6.339  14.786   7.415
34315SOL    HW2 4778   6.431  14.687   7.347
34316SOL     OW 4779   0.710   5.564   7.160
34316SOL    HW1 4780   0.755   5.516   7.229
34316SOL    HW2 4781   0.695   5.652   7.197
34317SOL     OW 4782  14.670   2.385   4.138
34317SOL    HW1 4783  14.620   2.332   4.200
34317SOL    HW2 4784  14.704   2.457   4.191
34318SOL     OW 4785   2.954   5.580   0.166
34318SOL    HW1 4786   2.934   5.624   0.249
34318SOL    HW2 4787   3.035   5.532   0.184
34319SOL     OW 4788   1.786  10.874   4.976
34319SOL    HW1 4789   1.856  10.851   5.037
34319SOL    HW2 4790   1.737  10.793   4.963
34320SOL     OW 4791   8.012   3.275   8.892
34320SOL    HW1 4792   7.977   3.185   8.891
34320SOL    HW2 4793   8.020   3.296   8.985
34321SOL     OW 4794  14.723   7.179   2.814
34321SOL    HW1 4795  14.742   7.266   2.777
34321SOL    HW2 4796  14.630   7.166   2.798
34322SOL     OW 4797   8.869   7.390   8.811
34322SOL    HW1 4798   8.924   7.394   8.732
34322SOL    HW2 4799   8.786   7.353   8.780
34323SOL     OW 4800   0.526  10.557   8.357
34323SOL    HW1 4801   0.433  10.567   8.378
34323SOL    HW2 4802   0.563  10.514   8.434
34324SOL     OW 4803   6.833   2.024   9.454
34324SOL    HW1 4804   6.900   1.965   9.487
34324SOL    HW2 4805   6.881   2.103   9.430
34325SOL     OW 4806  10.271   4.681  10.279
34325SOL    HW1 4807  10.325   4.732  10.339
34325SOL    HW2 4808  10.182   4.687  10.315
34326SOL     OW 4809   5.818   5.745  12.751
34326SOL    HW1 4810   5.887   5.706  12.803
34326SOL    HW2 4811   5.770   5.670  12.714
34327SOL     OW 4812   7.688   9.634   5.868
34327SOL    HW1 4813   7.703   9.623   5.774
34327SOL    HW2 4814   7.766   9.680   5.899
34328SOL     OW 4815   2.172  13.579   3.167
34328SOL    HW1 4816   2.193  13.659   3.118
34328SOL    HW2 4817   2.257  13.543   3.191
34329SOL     OW 4818  12.958   4.356   8.438
34329SOL    HW1 4819  13.020   4.415   8.395
34329SOL    HW2 4820  12.962   4.381   8.531
34330SOL     OW 4821  12.408  10.779  14.545
34330SOL    HW1 4822  12.482  10.837  14.564
34330SOL    HW2 4823  12.449  10.699  14.511
34331SOL     OW 4824   6.058  12.936   7.051
34331SOL    HW1 4825   6.074  12.960   7.143
34331SOL    HW2 4826   5.982  12.877   7.055
34332SOL     OW 4827   8.343   3.541   3.680
34332SOL    HW1 4828   8.332   3.450   3.652
34332SOL    HW2 4829   8.430   3.566   3.648
34333SOL     OW 4830  12.408  11.563   8.301
34333SOL    HW1 4831  12.482  11.622   8.295
34333SOL    HW2 4832  12.379  11.569   8.392
34334SOL     OW 4833   0.921  13.492  11.791
34334SOL    HW1 4834   0.897  13.407  11.755
34334SOL    HW2 4835   0.841  13.544  11.786
34335SOL     OW 4836  11.775   6.883   9.639
34335SOL    HW1 4837  11.770   6.813   9.704
34335SOL    HW2 4838  11.831   6.849   9.570
34336SOL     OW 4839   8.704   1.381   3.634
34336SOL    HW1 4840   8.745   1.338   3.559
34336SOL    HW2 4841   8.611   1.383   3.613
34337SOL     OW 4842  14.872   4.611   0.348
34337SOL    HW1 4843   0.047   4.691   0.361
34337SOL    HW2 4844  14.789   4.641   0.313
34338SOL     OW 4845  13.920   5.109   8.563
34338SOL    HW1 4846  13.835   5.152   8.558
34338SOL    HW2 4847  13.935   5.096   8.657
34339SOL     OW 4848  11.485   8.642   1.201
34339SOL    HW1 4849  11.432   8.580   1.250
34339SOL    HW2 4850  11.572   8.636   1.240
34340SOL     OW 4851   2.978  10.888   3.152
34340SOL    HW1 4852   3.031  10.929   3.083
34340SOL    HW2 4853   2.900  10.856   3.107
34341SOL     OW 4854   5.790   9.775  13.634
34341SOL    HW1 4855   5.767   9.697  13.584
34341SOL    HW2 4856   5.716   9.834  13.620
34342SOL     OW 4857  11.000   8.159   4.832
34342SOL    HW1 4858  10.916   8.116   4.811
34342SOL    HW2 4859  10.976   8.233   4.888
34343SOL     OW 4860   2.701  12.818  13.771
34343SOL    HW1 4861   2.762  12.885  13.742
34343SOL    HW2 4862   2.749  12.736  13.759
34344SOL     OW 4863  12.797   3.872   0.471
34344SOL    HW1 4864  12.800   3.798   0.531
34344SOL    HW2 4865  12.727   3.851   0.409
34345SOL     OW 4866  11.537   1.779  13.970
34345SOL    HW1 4867  11.524   1.741  14.057
34345SOL    HW2 4868  11.451   1.815  13.947
34346SOL     OW 4869   5.973   4.777   4.357
34346SOL    HW1 4870   6.064   4.752   4.371
34346SOL    HW2 4871   5.969   4.869   4.385
34347SOL     OW 4872   5.288   9.803  10.400
34347SOL    HW1 4873   5.272   9.872  10.336
34347SOL    HW2 4874   5.216   9.810  10.462
34348SOL     OW 4875   6.267   8.128   4.174
34348SOL    HW1 4876   6.354   8.168   4.180
34348SOL    HW2 4877   6.278   8.040   4.209
34349SOL     OW 4878  11.098   7.475   1.473
34349SOL    HW1 4879  11.176   7.445   1.427
34349SOL    HW2 4880  11.108   7.570   1.477
34350SOL     OW 4881  11.641  10.634   4.020
34350SOL    HW1 4882  11.680  10.661   4.102
34350SOL    HW2 4883  11.634  10.538   4.027
34351SOL     OW 4884  14.447  14.167  11.100
34351SOL    HW1 4885  14.458  14.075  11.122
34351SOL    HW2 4886  14.518  14.186  11.039
34352SOL     OW 4887   6.144   1.019   3.734
34352SOL    HW1 4888   6.087   0.947   3.707
34352SOL    HW2 4889   6.194   0.983   3.808
34353SOL     OW 4890   2.186   9.891   0.292
34353SOL    HW1 4891   2.101   9.862   0.324
34353SOL    HW2 4892   2.178   9.986   0.287
34354SOL     OW 4893   8.813   0.568  14.807
34354SOL    HW1 4894   8.849   0.577  14.719
34354SOL    HW2 4895   8.757   0.644  14.818
34355SOL     OW 4896   1.438   0.996  12.571
34355SOL    HW1 4897   1.400   0.913  12.599
34355SOL    HW2 4898   1.523   0.973  12.533
34356SOL     OW 4899   0.130   8.297   9.155
34356SOL    HW1 4900   0.125   8.317   9.248
34356SOL    HW2 4901   0.187   8.221   9.150
34357SOL     OW 4902   9.329   2.397  10.994
34357SOL    HW1 4903   9.417   2.432  10.986
34357SOL    HW2 4904   9.279   2.466  11.038
34358SOL     OW 4905   8.403  12.275   5.416
34358SOL    HW1 4906   8.426  12.333   5.343
34358SOL    HW2 4907   8.484  12.267   5.467
34359SOL     OW 4908   1.594   9.753   8.801
34359SOL    HW1 4909   1.522   9.802   8.842
34359SOL    HW2 4910   1.649   9.727   8.874
34360SOL     OW 4911  12.094   1.607  13.742
34360SOL    HW1 4912  12.146   1.528  13.729
34360SOL    HW2 4913  12.011   1.588  13.698
34361SOL     OW 4914   6.911  14.499   9.679
34361SOL    HW1 4915   6.951  14.550   9.750
34361SOL    HW2 4916   6.985  14.452   9.639
34362SOL     OW 4917   4.635  10.247   5.634
34362SOL    HW1 4918   4.645  10.223   5.726
34362SOL    HW2 4919   4.540  10.243   5.619
34363SOL     OW 4920   7.679   0.126   9.441
34363SOL    HW1 4921   7.743   0.153   9.375
34363SOL    HW2 4922   7.597   0.164   9.412
34364SOL     OW 4923  14.381  11.966  11.950
34364SOL    HW1 4924  14.463  11.933  11.987
34364SOL    HW2 4925  14.315  11.949  12.018
34365SOL     OW 4926   2.117   1.899  10.444
34365SOL    HW1 4927   2.198   1.950  10.433
34365SOL    HW2 4928   2.127   1.826  10.382
34366SOL     OW 4929   3.292   2.165   5.876
34366SOL    HW1 4930   3.326   2.157   5.965
34366SOL    HW2 4931   3.370   2.157   5.820
34367SOL     OW 4932  14.638   9.748   2.105
34367SOL    HW1 4933  14.547   9.777   2.100
34367SOL    HW2 4934  14.666   9.741   2.014
34368SOL     OW 4935   2.344   9.435   2.540
34368SOL    HW1 4936   2.387   9.516   2.569
34368SOL    HW2 4937   2.403   9.365   2.570
34369SOL     OW 4938   8.905  10.607   0.272
34369SOL    HW1 4939   8.942  10.520   0.286
34369SOL    HW2 4940   8.823  10.607   0.322
34370SOL     OW 4941   9.811  11.791   8.261
34370SOL    HW1 4942   9.806  11.705   8.219
34370SOL    HW2 4943   9.730  11.798   8.312
34371SOL     OW 4944   7.308   2.019   9.105
34371SOL    HW1 4945   7.322   1.944   9.162
34371SOL    HW2 4946   7.344   1.993   9.020
34372SOL     OW 4947   4.641   1.358   4.091
34372SOL    HW1 4948   4.665   1.285   4.033
34372SOL    HW2 4949   4.711   1.421   4.081
34373SOL     OW 4950   0.714  10.087   7.173
34373SOL    HW1 4951   0.802  10.055   7.152
34373SOL    HW2 4952   0.665  10.079   7.092
34374SOL     OW 4953   3.163   4.401   6.831
34374SOL    HW1 4954   3.259   4.401   6.829
34374SOL    HW2 4955   3.139   4.491   6.809
34375SOL     OW 4956   6.174  13.973   9.396
34375SOL    HW1 4957   6.085  13.994   9.367
34375SOL    HW2 4958   6.205  14.053   9.439
34376SOL     OW 4959   2.588   2.245   8.563
34376SOL    HW1 4960   2.551   2.178   8.506
34376SOL    HW2 4961   2.662   2.202   8.606
34377SOL     OW 4962  10.861   0.554  10.012
34377SOL    HW1 4963  10.850   0.547  10.107
34377SOL    HW2 4964  10.827   0.641   9.990
34378SOL     OW 4965   8.341   6.509   2.835
34378SOL    HW1 4966   8.252   6.477   2.845
34378SOL    HW2 4967   8.394   6.453   2.891
34379SOL     OW 4968   2.226   4.794   8.930
34379SOL    HW1 4969   2.257   4.838   8.850
34379SOL    HW2 4970   2.279   4.715   8.936
34380SOL     OW 4971   6.873   8.907   0.880
34380SOL    HW1 4972   6.858   8.975   0.814
34380SOL    HW2 4973   6.826   8.939   0.957
34381SOL     OW 4974   1.354   0.145  13.955
34381SOL    HW1 4975   1.378   0.238  13.957
34381SOL    HW2 4976   1.301   0.137  13.876
34382SOL     OW 4977  10.542   2.384   6.624
34382SOL    HW1 4978  10.568   2.319   6.558
34382SOL    HW2 4979  10.504   2.456   6.573
34383SOL     OW 4980   5.258   3.880  12.669
34383SOL    HW1 4981   5.226   3.883  12.579
34383SOL    HW2 4982   5.309   3.799  12.673
34384SOL     OW 4983   5.297   4.217   7.629
34384SOL    HW1 4984   5.336   4.278   7.566
34384SOL    HW2 4985   5.263   4.146   7.575
34385SOL     OW 4986  11.561  10.257   9.813
34385SOL    HW1 4987  11.491  10.323   9.813
34385SOL    HW2 4988  11.527  10.187   9.756
34386SOL     OW 4989   7.377   7.572   9.435
34386SOL    HW1 4990   7.464   7.566   9.476
34386SOL    HW2 4991   7.318   7.594   9.506
34387SOL     OW 4992   0.580   9.727  12.534
34387SOL    HW1 4993   0.636   9.757  12.606
34387SOL    HW2 4994   0.617   9.642  12.509
34388SOL     OW 4995  14.164   3.719  11.784
34388SOL    HW1 4996  14.121   3.654  11.840
34388SOL    HW2 4997  14.244   3.676  11.755
34389SOL     OW 4998  13.728   4.840   5.853
34389SOL    HW1 4999  13.683   4.793   5.923
34389SOL    HW2 5000  13.758   4.771   5.793
34390SOL     OW 5001   6.696  13.909   1.979
34390SOL    HW1 5002   6.743  13.938   1.900
34390SOL    HW2 5003   6.675  13.991   2.025
34391SOL     OW 5004   7.953   0.531   1.677
34391SOL    HW1 5005   7.886   0.546   1.744
34391SOL    HW2 5006   7.909   0.481   1.609
34392SOL     OW 5007   2.817  13.948  11.665
34392SOL    HW1 5008   2.789  13.987  11.582
34392SOL    HW2 5009   2.756  13.984  11.730
34393SOL     OW 5010   7.190   2.037  13.630
34393SOL    HW1 5011   7.255   2.068  13.566
34393SOL    HW2 5012   7.178   2.111  13.689
34394SOL     OW 5013  11.661   0.857  12.793
34394SOL    HW1 5014  11.581   0.851  12.741
34394SOL    HW2 5015  11.645   0.801  12.869
34395SOL     OW 5016   4.368   6.192   4.525
34395SOL    HW1 5017   4.397   6.224   4.439
34395SOL    HW2 5018   4.384   6.098   4.523
34396SOL     OW 5019   5.507  11.372   7.935
34396SOL    HW1 5020   5.579  11.318   7.969
34396SOL    HW2 5021   5.428  11.327   7.964
34397SOL     OW 5022  12.490   9.955   8.610
34397SOL    HW1 5023  12.502  10.048   8.626
34397SOL    HW2 5024  12.578   9.919   8.605
34398SOL     OW 5025   0.096   5.040  10.664
34398SOL    HW1 5026   0.132   4.976  10.726
34398SOL    HW2 5027   0.138   5.122  10.688
34399SOL     OW 5028   8.165  12.167  13.240
34399SOL    HW1 5029   8.179  12.124  13.324
34399SOL    HW2 5030   8.191  12.258  13.255
34400SOL     OW 5031   9.601   3.212   1.336
34400SOL    HW1 5032   9.665   3.210   1.265
34400SOL    HW2 5033   9.570   3.303   1.338
34401SOL     OW 5034   9.702  13.258   9.016
34401SOL    HW1 5035   9.691  13.175   9.062
34401SOL    HW2 5036   9.760  13.237   8.943
34402SOL     OW 5037  10.901   4.041   7.947
34402SOL    HW1 5038  10.909   4.137   7.941
34402SOL    HW2 5039  10.948   4.009   7.869
34403SOL     OW 5040   0.295   6.915   6.217
34403SOL    HW1 5041   0.326   6.825   6.206
34403SOL    HW2 5042   0.259   6.939   6.132
34404SOL     OW 5043   9.668   1.899   4.701
34404SOL    HW1 5044   9.622   1.982   4.697
34404SOL    HW2 5045   9.635   1.849   4.626
34405SOL     OW 5046  13.130   3.268   4.100
34405SOL    HW1 5047  13.126   3.360   4.074
34405SOL    HW2 5048  13.187   3.227   4.034
34406SOL     OW 5049  13.959   8.208  13.098
34406SOL    HW1 5050  13.914   8.178  13.177
34406SOL    HW2 5051  13.910   8.286  13.072
34407SOL     OW 5052  11.917  13.962   3.105
34407SOL    HW1 5053  11.980  14.032   3.123
34407SOL    HW2 5054  11.969  13.881   3.112
34408SOL     OW 5055  12.275   3.721  14.191
34408SOL    HW1 5056  12.278   3.625  14.191
34408SOL    HW2 5057  12.245   3.744  14.104
34409SOL     OW 5058  13.328   6.936   9.418
34409SOL    HW1 5059  13.398   6.982   9.465
34409SOL    HW2 5060  13.371   6.901   9.340
34410SOL     OW 5061   4.416   4.398   4.562
34410SOL    HW1 5062   4.348   4.338   4.593
34410SOL    HW2 5063   4.449   4.358   4.482
34411SOL     OW 5064   6.368   5.480  12.978
34411SOL    HW1 5065   6.400   5.563  12.944
34411SOL    HW2 5066   6.328   5.436  12.903
34412SOL     OW 5067   0.386   4.080   6.674
34412SOL    HW1 5068   0.476   4.082   6.641
34412SOL    HW2 5069   0.346   4.007   6.628
34413SOL     OW 5070  11.068  13.954   9.739
34413SOL    HW1 5071  11.000  13.974   9.803
34413SOL    HW2 5072  11.044  14.004   9.661
34414SOL     OW 5073   5.941   2.001   4.118
34414SOL    HW1 5074   5.998   2.078   4.122
34414SOL    HW2 5075   5.984   1.944   4.054
34415SOL     OW 5076  12.101  13.688  12.959
34415SOL    HW1 5077  12.151  13.616  12.921
34415SOL    HW2 5078  12.164  13.760  12.967
34416SOL     OW 5079  10.038   5.255   4.287
34416SOL    HW1 5080  10.132   5.271   4.286
34416SOL    HW2 5081  10.002   5.329   4.337
34417SOL     OW 5082  10.043  13.586   2.585
34417SOL    HW1 5083  10.071  13.669   2.622
34417SOL    HW2 5084   9.956  13.571   2.620
34418SOL     OW 5085   6.386   5.342   5.850
34418SOL    HW1 5086   6.375   5.251   5.825
34418SOL    HW2 5087   6.425   5.383   5.773
34419SOL     OW 5088   5.738  14.266   2.196
34419SOL    HW1 5089   5.703  14.355   2.184
34419SOL    HW2 5090   5.797  14.274   2.271
34420SOL     OW 5091   7.562   9.941  11.853
34420SOL    HW1 5092   7.625  10.011  11.869
34420SOL    HW2 5093   7.492   9.983  11.804
34421SOL     OW 5094   8.378   1.276  12.767
34421SOL    HW1 5095   8.361   1.270  12.673
34421SOL    HW2 5096   8.291   1.282  12.807
34422SOL     OW 5097   1.370   0.918   2.241
34422SOL    HW1 5098   1.400   0.882   2.157
34422SOL    HW2 5099   1.383   0.847   2.304
34423SOL     OW 5100  11.186   8.229   9.900
34423SOL    HW1 5101  11.096   8.260   9.910
34423SOL    HW2 5102  11.239   8.292   9.949
34424SOL     OW 5103   7.479   5.229   6.738
34424SOL    HW1 5104   7.515   5.156   6.789
34424SOL    HW2 5105   7.541   5.300   6.751
34425SOL     OW 5106   4.051   3.696   8.227
34425SOL    HW1 5107   3.987   3.634   8.262
34425SOL    HW2 5108   4.063   3.669   8.136
34426SOL     OW 5109   6.908   3.623   1.424
34426SOL    HW1 5110   6.857   3.691   1.380
34426SOL    HW2 5111   6.897   3.642   1.518
34427SOL     OW 5112   3.445  13.040  12.255
34427SOL    HW1 5113   3.387  12.977  12.298
34427SOL    HW2 5114   3.485  13.088  12.326
34428SOL     OW 5115  13.950   6.305  11.183
34428SOL    HW1 5116  13.969   6.266  11.098
34428SOL    HW2 5117  13.981   6.240  11.247
34429SOL     OW 5118   7.479   0.111   9.947
34429SOL    HW1 5119   7.385   0.122   9.937
34429SOL    HW2 5120   7.504   0.056   9.872
34430SOL     OW 5121  13.493  14.691   2.650
34430SOL    HW1 5122  13.488  14.670   2.743
34430SOL    HW2 5123  13.403  14.689   2.619
34431SOL     OW 5124  12.873   2.460   7.048
34431SOL    HW1 5125  12.861   2.538   6.995
34431SOL    HW2 5126  12.791   2.411   7.040
34432SOL     OW 5127  13.435  11.250  10.585
34432SOL    HW1 5128  13.462  11.283  10.500
34432SOL    HW2 5129  13.350  11.211  10.570
34433SOL     OW 5130  11.567  13.376   6.246
34433SOL    HW1 5131  11.603  13.463   6.227
34433SOL    HW2 5132  11.556  13.375   6.341
34434SOL     OW 5133   5.563  13.422   5.791
34434SOL    HW1 5134   5.634  13.358   5.794
34434SOL    HW2 5135   5.530  13.427   5.880
34435SOL     OW 5136   1.680   8.006  12.219
34435SOL    HW1 5137   1.762   7.965  12.245
34435SOL    HW2 5138   1.680   8.001  12.123
34436SOL     OW 5139  13.169   6.756   5.807
34436SOL    HW1 5140  13.137   6.697   5.739
34436SOL    HW2 5141  13.248   6.796   5.768
34437SOL     OW 5142   2.829   5.350   6.017
34437SOL    HW1 5143   2.866   5.404   5.947
34437SOL    HW2 5144   2.846   5.399   6.097
34438SOL     OW 5145  11.977   6.374   6.450
34438SOL    HW1 5146  11.975   6.408   6.539
34438SOL    HW2 5147  12.042   6.304   6.452
34439SOL     OW 5148   7.981   7.938   6.124
34439SOL    HW1 5149   7.942   8.023   6.144
34439SOL    HW2 5150   8.073   7.957   6.108
34440SOL     OW 5151   4.949   7.202   4.484
34440SOL    HW1 5152   4.868   7.166   4.447
34440SOL    HW2 5153   4.958   7.158   4.568
34441SOL     OW 5154   4.186   4.763  13.765
34441SOL    HW1 5155   4.194   4.712  13.846
34441SOL    HW2 5156   4.272   4.757  13.724
34442SOL     OW 5157  10.775   1.463   2.926
34442SOL    HW1 5158  10.761   1.427   2.839
34442SOL    HW2 5159  10.711   1.534   2.932
34443SOL     OW 5160   6.290   3.543  13.124
34443SOL    HW1 5161   6.240   3.536  13.205
34443SOL    HW2 5162   6.376   3.508  13.146
34444SOL     OW 5163   9.458   0.486  12.024
34444SOL    HW1 5164   9.393   0.553  12.001
34444SOL    HW2 5165   9.439   0.413  11.965
34445SOL     OW 5166  13.646   5.443   1.548
34445SOL    HW1 5167  13.563   5.486   1.568
34445SOL    HW2 5168  13.654   5.450   1.452
34446SOL     OW 5169   4.082   1.187   8.271
34446SOL    HW1 5170   4.121   1.207   8.186
34446SOL    HW2 5171   4.002   1.239   8.273
34447SOL     OW 5172   6.642   1.891   9.914
34447SOL    HW1 5173   6.672   1.938   9.836
34447SOL    HW2 5174   6.675   1.943   9.988
34448SOL     OW 5175  13.413   3.180   8.279
34448SOL    HW1 5176  13.413   3.238   8.355
34448SOL    HW2 5177  13.469   3.223   8.216
34449SOL     OW 5178   0.093   4.104   5.486
34449SOL    HW1 5179   0.040   4.037   5.443
34449SOL    HW2 5180   0.128   4.157   5.415
34450SOL     OW 5181  11.852  10.923   5.155
34450SOL    HW1 5182  11.854  10.829   5.140
34450SOL    HW2 5183  11.762  10.949   5.132
34451SOL     OW 5184   8.708   0.536  10.342
34451SOL    HW1 5185   8.622   0.550  10.302
34451SOL    HW2 5186   8.747   0.623  10.347
34452SOL     OW 5187   0.565   7.980  11.850
34452SOL    HW1 5188   0.547   7.889  11.874
34452SOL    HW2 5189   0.660   7.988  11.856
34453SOL     OW 5190   1.917  13.412  13.227
34453SOL    HW1 5191   1.853  13.482  13.235
34453SOL    HW2 5192   1.970  13.418  13.307
34454SOL     OW 5193   3.725   0.511   7.653
34454SOL    HW1 5194   3.714   0.572   7.580
34454SOL    HW2 5195   3.753   0.566   7.726
34455SOL     OW 5196   4.661   8.524   9.747
34455SOL    HW1 5197   4.690   8.507   9.657
34455SOL    HW2 5198   4.716   8.467   9.801
34456SOL     OW 5199   7.326  12.144   7.859
34456SOL    HW1 5200   7.393  12.086   7.822
34456SOL    HW2 5201   7.334  12.225   7.810
34457SOL     OW 5202   9.755  10.992   5.208
34457SOL    HW1 5203   9.681  11.018   5.154
34457SOL    HW2 5204   9.823  10.966   5.146
34458SOL     OW 5205   9.559   8.902   6.796
34458SOL    HW1 5206   9.491   8.873   6.735
34458SOL    HW2 5207   9.553   8.997   6.795
34459SOL     OW 5208  14.856  11.464   9.232
34459SOL    HW1 5209   0.052  11.406   9.257
34459SOL    HW2 5210  14.796  11.462   9.306
34460SOL     OW 5211  11.557  12.310   2.883
34460SOL    HW1 5212  11.520  12.396   2.860
34460SOL    HW2 5213  11.480  12.254   2.896
34461SOL     OW 5214  10.302  11.262   1.512
34461SOL    HW1 5215  10.344  11.342   1.482
34461SOL    HW2 5216  10.268  11.221   1.433
34462SOL     OW 5217  11.914   9.503  11.812
34462SOL    HW1 5218  12.002   9.482  11.843
34462SOL    HW2 5219  11.880   9.420  11.777
34463SOL     OW 5220  11.226   4.613   0.797
34463SOL    HW1 5221  11.143   4.608   0.748
34463SOL    HW2 5222  11.205   4.664   0.875
34464SOL     OW 5223   6.948  12.313   2.611
34464SOL    HW1 5224   6.938  12.245   2.545
34464SOL    HW2 5225   6.872  12.369   2.599
34465SOL     OW 5226   7.940  12.506  11.095
34465SOL    HW1 5227   7.993  12.433  11.124
34465SOL    HW2 5228   7.853  12.468  11.080
34466SOL     OW 5229   0.365   6.587   2.904
34466SOL    HW1 5230   0.361   6.588   3.000
34466SOL    HW2 5231   0.275   6.568   2.876
34467SOL     OW 5232  10.988  14.420   4.483
34467SOL    HW1 5233  11.065  14.425   4.540
34467SOL    HW2 5234  10.958  14.510   4.475
34468SOL     OW 5235   8.150   3.808   1.832
34468SOL    HW1 5236   8.183   3.871   1.769
34468SOL    HW2 5237   8.066   3.780   1.796
34469SOL     OW 5238   2.080  10.881   4.055
34469SOL    HW1 5239   2.032  10.886   4.138
34469SOL    HW2 5240   2.092  10.973   4.029
34470SOL     OW 5241   9.101   6.317  10.397
34470SOL    HW1 5242   9.121   6.240  10.344
34470SOL    HW2 5243   9.185   6.362  10.407
34471SOL     OW 5244   3.853   6.682   0.170
34471SOL    HW1 5245   3.825   6.632   0.093
34471SOL    HW2 5246   3.948   6.681   0.165
34472SOL     OW 5247  10.764  11.645  11.934
34472SOL    HW1 5248  10.851  11.679  11.954
34472SOL    HW2 5249  10.753  11.663  11.840
34473SOL     OW 5250  13.465   0.891   4.129
34473SOL    HW1 5251  13.557   0.876   4.154
34473SOL    HW2 5252  13.437   0.806   4.094
34474SOL     OW 5253   8.352   7.931   2.032
34474SOL    HW1 5254   8.276   7.977   2.070
34474SOL    HW2 5255   8.400   7.898   2.108
34475SOL     OW 5256   9.168  11.758  11.640
34475SOL    HW1 5257   9.084  11.805  11.643
34475SOL    HW2 5258   9.200  11.762  11.730
34476SOL     OW 5259   9.679   9.911   9.608
34476SOL    HW1 5260   9.762   9.915   9.655
34476SOL    HW2 5261   9.623   9.976   9.651
34477SOL     OW 5262  10.878   4.300   3.419
34477SOL    HW1 5263  10.899   4.248   3.341
34477SOL    HW2 5264  10.925   4.382   3.406
34478SOL     OW 5265  10.026   1.660   4.435
34478SOL    HW1 5266   9.975   1.730   4.476
34478SOL    HW2 5267   9.990   1.652   4.346
34479SOL     OW 5268  10.650  12.200   4.542
34479SOL    HW1 5269  10.614  12.126   4.591
34479SOL    HW2 5270  10.620  12.186   4.452
34480SOL     OW 5271   1.779   3.872   9.601
34480SOL    HW1 5272   1.861   3.919   9.612
34480SOL    HW2 5273   1.773   3.815   9.678
34481SOL     OW 5274   2.686  13.933   3.489
34481SOL    HW1 5275   2.747  13.979   3.430
34481SOL    HW2 5276   2.742  13.902   3.560
34482SOL     OW 5277   0.644  13.638  11.743
34482SOL    HW1 5278   0.642  13.653  11.649
34482SOL    HW2 5279   0.558  13.601  11.763
34483SOL     OW 5280   5.507   2.343   8.732
34483SOL    HW1 5281   5.476   2.253   8.729
34483SOL    HW2 5282   5.579   2.341   8.795
34484SOL     OW 5283  11.900   7.416   6.257
34484SOL    HW1 5284  11.928   7.326   6.238
34484SOL    HW2 5285  11.822   7.406   6.311
34485SOL     OW 5286   3.302   1.239   3.016
34485SOL    HW1 5287   3.310   1.260   3.109
34485SOL    HW2 5288   3.208   1.230   3.001
34486SOL     OW 5289  14.078  12.971  10.824
34486SOL    HW1 5290  14.131  13.051  10.828
34486SOL    HW2 5291  13.991  13.002  10.800
34487SOL     OW 5292  13.493   1.654   1.759
34487SOL    HW1 5293  13.405   1.693   1.765
34487SOL    HW2 5294  13.553   1.728   1.759
34488SOL     OW 5295  11.949   0.460   9.444
34488SOL    HW1 5296  11.944   0.386   9.383
34488SOL    HW2 5297  11.892   0.436   9.516
34489SOL     OW 5298   7.480   5.850   2.108
34489SOL    HW1 5299   7.447   5.818   2.024
34489SOL    HW2 5300   7.538   5.923   2.085
34490SOL     OW 5301   0.424   7.051   7.502
34490SOL    HW1 5302   0.461   7.116   7.563
34490SOL    HW2 5303   0.500   7.000   7.473
34491SOL     OW 5304  12.652  11.232  10.823
34491SOL    HW1 5305  12.682  11.239  10.732
34491SOL    HW2 5306  12.678  11.143  10.850
34492SOL     OW 5307   1.093   7.278  13.623
34492SOL    HW1 5308   1.072   7.261  13.715
34492SOL    HW2 5309   1.170   7.225  13.606
34493SOL     OW 5310   3.084  12.232   2.172
34493SOL    HW1 5311   3.093  12.316   2.217
34493SOL    HW2 5312   2.999  12.200   2.199
34494SOL     OW 5313   1.026  14.038   4.639
34494SOL    HW1 5314   1.028  14.086   4.556
34494SOL    HW2 5315   0.945  13.987   4.635
34495SOL     OW 5316   4.703   8.631   1.050
34495SOL    HW1 5317   4.688   8.615   0.957
34495SOL    HW2 5318   4.788   8.589   1.067
34496SOL     OW 5319   6.654   9.511  14.647
34496SOL    HW1 5320   6.631   9.419  14.632
34496SOL    HW2 5321   6.702   9.510  14.730
34497SOL     OW 5322  10.459   1.559   7.349
34497SOL    HW1 5323  10.463   1.465   7.333
34497SOL    HW2 5324  10.424   1.567   7.438
34498SOL     OW 5325   7.559  10.865   1.087
34498SOL    HW1 5326   7.512  10.796   1.039
34498SOL    HW2 5327   7.606  10.819   1.156
34499SOL     OW 5328   8.337   6.854   8.992
34499SOL    HW1 5329   8.260   6.887   9.038
34499SOL    HW2 5330   8.314   6.858   8.900
34500SOL     OW 5331   5.594   0.839   5.622
34500SOL    HW1 5332   5.509   0.822   5.662
34500SOL    HW2 5333   5.612   0.761   5.569
34501SOL     OW 5334  12.013  13.261   5.896
34501SOL    HW1 5335  11.961  13.271   5.816
34501SOL    HW2 5336  11.951  13.222   5.959
34502SOL     OW 5337  10.672   8.340  11.370
34502SOL    HW1 5338  10.601   8.290  11.411
34502SOL    HW2 5339  10.740   8.275  11.355
34503SOL     OW 5340   6.846  12.928   0.684
34503SOL    HW1 5341   6.925  12.975   0.710
34503SOL    HW2 5342   6.840  12.942   0.589
34504SOL     OW 5343   6.671   3.957   0.046
34504SOL    HW1 5344   6.644   3.951   0.138
34504SOL    HW2 5345   6.629   3.882   0.004
34505SOL     OW 5346  10.095   2.240   8.539
34505SOL    HW1 5347  10.048   2.309   8.586
34505SOL    HW2 5348  10.187   2.264   8.546
34506SOL     OW 5349  10.223  13.801   2.663
34506SOL    HW1 5350  10.288  13.858   2.703
34506SOL    HW2 5351  10.224  13.825   2.570
34507SOL     OW 5352  10.318  11.527   4.055
34507SOL    HW1 5353  10.321  11.438   4.020
34507SOL    HW2 5354  10.237  11.530   4.106
34508SOL     OW 5355  12.794   3.298   9.296
34508SOL    HW1 5356  12.772   3.270   9.385
34508SOL    HW2 5357  12.711   3.327   9.258
34509SOL     OW 5358  13.980  11.686  10.864
34509SOL    HW1 5359  13.894  11.687  10.905
34509SOL    HW2 5360  13.984  11.602  10.818
34510SOL     OW 5361  14.479   6.207   2.567
34510SOL    HW1 5362  14.455   6.244   2.481
34510SOL    HW2 5363  14.415   6.245   2.627
34511SOL     OW 5364   7.623   4.072   1.439
34511SOL    HW1 5365   7.678   4.132   1.489
34511SOL    HW2 5366   7.680   3.998   1.419
34512SOL     OW 5367  10.331   1.747  10.943
34512SOL    HW1 5368  10.294   1.661  10.963
34512SOL    HW2 5369  10.418   1.728  10.908
34513SOL     OW 5370  11.370   5.653  12.463
34513SOL    HW1 5371  11.344   5.659  12.371
34513SOL    HW2 5372  11.379   5.559  12.480
34514SOL     OW 5373   1.431   5.198  12.302
34514SOL    HW1 5374   1.365   5.191  12.371
34514SOL    HW2 5375   1.448   5.107  12.276
34515SOL     OW 5376   7.131  13.717  11.061
34515SOL    HW1 5377   7.111  13.625  11.076
34515SOL    HW2 5378   7.093  13.736  10.975
34516SOL     OW 5379  13.829  12.743   4.204
34516SOL    HW1 5380  13.875  12.827   4.199
34516SOL    HW2 5381  13.863  12.694   4.129
34517SOL     OW 5382   3.333   8.737  10.534
34517SOL    HW1 5383   3.352   8.821  10.577
34517SOL    HW2 5384   3.312   8.677  10.606
34518SOL     OW 5385   2.773   4.387   4.938
34518SOL    HW1 5386   2.677   4.382   4.937
34518SOL    HW2 5387   2.796   4.392   5.031
34519SOL     OW 5388   4.212  11.564   8.400
34519SOL    HW1 5389   4.197  11.475   8.367
34519SOL    HW2 5390   4.308  11.570   8.408
34520SOL     OW 5391  10.024   2.170   9.931
34520SOL    HW1 5392   9.958   2.179   9.862
34520SOL    HW2 5393   9.973   2.159  10.011
34521SOL     OW 5394   4.409   9.103   4.128
34521SOL    HW1 5395   4.374   9.058   4.051
34521SOL    HW2 5396   4.501   9.078   4.131
34522SOL     OW 5397   7.490  11.806   7.153
34522SOL    HW1 5398   7.438  11.735   7.191
34522SOL    HW2 5399   7.429  11.852   7.096
34523SOL     OW 5400  12.873  14.216   7.438
34523SOL    HW1 5401  12.819  14.262   7.374
34523SOL    HW2 5402  12.811  14.163   7.488
34524SOL     OW 5403   7.416   3.017   7.411
34524SOL    HW1 5404   7.454   2.933   7.436
34524SOL    HW2 5405   7.483   3.081   7.430
34525SOL     OW 5406   6.791  10.072   5.934
34525SOL    HW1 5407   6.874  10.047   5.895
34525SOL    HW2 5408   6.725  10.035   5.875
34526SOL     OW 5409  11.207   8.316   0.740
34526SOL    HW1 5410  11.275   8.270   0.690
34526SOL    HW2 5411  11.161   8.368   0.675
34527SOL     OW 5412   9.944   5.532   7.850
34527SOL    HW1 5413   9.852   5.509   7.839
34527SOL    HW2 5414   9.987   5.491   7.774
34528SOL     OW 5415   7.076   7.340  11.705
34528SOL    HW1 5416   7.085   7.307  11.616
34528SOL    HW2 5417   7.154   7.309  11.751
34529SOL     OW 5418   4.951   3.017   1.511
34529SOL    HW1 5419   5.029   3.067   1.488
34529SOL    HW2 5420   4.984   2.937   1.551
34530SOL     OW 5421   4.991   1.699   5.107
34530SOL    HW1 5422   5.063   1.760   5.124
34530SOL    HW2 5423   5.023   1.644   5.036
34531SOL     OW 5424   6.172  13.985  12.300
34531SOL    HW1 5425   6.213  14.068  12.324
34531SOL    HW2 5426   6.237  13.918  12.323
34532SOL     OW 5427   5.649   5.737  11.397
34532SOL    HW1 5428   5.663   5.657  11.449
34532SOL    HW2 5429   5.732   5.785  11.405
34533SOL     OW 5430  10.455   4.621   9.421
34533SOL    HW1 5431  10.525   4.558   9.400
34533SOL    HW2 5432  10.462   4.634   9.516
34534SOL     OW 5433  11.224  10.954   6.681
34534SOL    HW1 5434  11.217  11.048   6.701
34534SOL    HW2 5435  11.315  10.943   6.655
34535SOL     OW 5436  14.260   4.063  10.618
34535SOL    HW1 5437  14.186   4.011  10.648
34535SOL    HW2 5438  14.235   4.154  10.635
34536SOL     OW 5439   6.716  10.119   9.662
34536SOL    HW1 5440   6.723  10.074   9.747
34536SOL    HW2 5441   6.640  10.176   9.672
34537SOL     OW 5442   5.295   4.199   2.189
34537SOL    HW1 5443   5.271   4.131   2.253
34537SOL    HW2 5444   5.216   4.252   2.180
34538SOL     OW 5445   7.615  12.012   1.026
34538SOL    HW1 5446   7.539  11.974   0.982
34538SOL    HW2 5447   7.683  11.945   1.019
34539SOL     OW 5448  11.067  13.610   1.074
34539SOL    HW1 5449  11.019  13.541   1.027
34539SOL    HW2 5450  11.117  13.563   1.140
34540SOL     OW 5451  13.312   9.814   0.832
34540SOL    HW1 5452  13.337   9.903   0.856
34540SOL    HW2 5453  13.292   9.819   0.739
34541SOL     OW 5454  14.215   5.942  14.731
34541SOL    HW1 5455  14.288   5.967  14.676
34541SOL    HW2 5456  14.231   5.988  14.814
34542SOL     OW 5457   2.605  13.284   3.852
34542SOL    HW1 5458   2.700  13.286   3.863
34542SOL    HW2 5459   2.572  13.350   3.913
34543SOL     OW 5460   2.505   5.908   3.715
34543SOL    HW1 5461   2.556   5.924   3.635
34543SOL    HW2 5462   2.561   5.850   3.767
34544SOL     OW 5463  13.922  11.390  14.394
34544SOL    HW1 5464  13.898  11.480  14.414
34544SOL    HW2 5465  13.852  11.337  14.432
34545SOL     OW 5466   4.192   5.854   0.497
34545SOL    HW1 5467   4.160   5.906   0.571
34545SOL    HW2 5468   4.240   5.917   0.443
34546SOL     OW 5469  10.043  13.038   6.835
34546SOL    HW1 5470   9.963  13.087   6.851
34546SOL    HW2 5471  10.035  13.006   6.745
34547SOL     OW 5472  10.110   1.666   5.588
34547SOL    HW1 5473  10.057   1.603   5.636
34547SOL    HW2 5474  10.083   1.751   5.622
34548SOL     OW 5475   7.108  12.958   0.787
34548SOL    HW1 5476   7.187  13.009   0.768
34548SOL    HW2 5477   7.111  12.885   0.725
34549SOL     OW 5478  10.733  10.124  11.574
34549SOL    HW1 5479  10.664  10.073  11.616
34549SOL    HW2 5480  10.779  10.167  11.646
34550SOL     OW 5481   6.741  12.268  10.455
34550SOL    HW1 5482   6.810  12.203  10.470
34550SOL    HW2 5483   6.786  12.344  10.420
34551SOL     OW 5484  12.829   9.603  10.017
34551SOL    HW1 5485  12.817   9.688   9.974
34551SOL    HW2 5486  12.869   9.624  10.101
34552SOL     OW 5487   7.024   1.754   7.604
34552SOL    HW1 5488   7.091   1.693   7.634
34552SOL    HW2 5489   7.070   1.837   7.594
34553SOL     OW 5490  10.451  10.132  12.921
34553SOL    HW1 5491  10.389  10.060  12.917
34553SOL    HW2 5492  10.536  10.091  12.907
34554SOL     OW 5493  13.855   0.341  12.853
34554SOL    HW1 5494  13.904   0.294  12.920
34554SOL    HW2 5495  13.915   0.348  12.779
34555SOL     OW 5496   9.700  14.014   6.829
34555SOL    HW1 5497   9.728  14.106   6.827
34555SOL    HW2 5498   9.781  13.965   6.842
34556SOL     OW 5499   3.324   0.601   8.548
34556SOL    HW1 5500   3.290   0.671   8.603
34556SOL    HW2 5501   3.313   0.633   8.458
34557SOL     OW 5502   2.527  14.803   4.593
34557SOL    HW1 5503   2.547  14.759   4.510
34557SOL    HW2 5504   2.546  14.737   4.660
34558SOL     OW 5505   9.385   4.129   6.248
34558SOL    HW1 5506   9.325   4.193   6.286
34558SOL    HW2 5507   9.437   4.097   6.322
34559SOL     OW 5508  10.047  10.324  11.876
34559SOL    HW1 5509   9.980  10.369  11.825
34559SOL    HW2 5510  10.120  10.386  11.881
34560SOL     OW 5511   5.815   0.104   6.206
34560SOL    HW1 5512   5.904   0.076   6.228
34560SOL    HW2 5513   5.763   0.024   6.213
34561SOL     OW 5514  10.962   0.208   8.690
34561SOL    HW1 5515  11.019   0.167   8.626
34561SOL    HW2 5516  11.018   0.222   8.767
34562SOL     OW 5517  11.857  11.359  12.932
34562SOL    HW1 5518  11.762  11.367  12.933
34562SOL    HW2 5519  11.875  11.301  12.857
34563SOL     OW 5520  13.552   8.415   7.498
34563SOL    HW1 5521  13.536   8.448   7.587
34563SOL    HW2 5522  13.466   8.385   7.468
34564SOL     OW 5523  13.740  14.759  12.782
34564SOL    HW1 5524  13.765  14.714  12.862
34564SOL    HW2 5525  13.698  14.840  12.811
34565SOL     OW 5526   4.679   0.560   8.376
34565SOL    HW1 5527   4.700   0.572   8.468
34565SOL    HW2 5528   4.712   0.472   8.355
34566SOL     OW 5529   2.271  13.583  10.598
34566SOL    HW1 5530   2.233  13.663  10.634
34566SOL    HW2 5531   2.289  13.528  10.674
34567SOL     OW 5532   7.292   7.666   7.968
34567SOL    HW1 5533   7.243   7.741   7.934
34567SOL    HW2 5534   7.327   7.623   7.890
34568SOL     OW 5535   2.351   1.709  12.096
34568SOL    HW1 5536   2.437   1.670  12.110
34568SOL    HW2 5537   2.314   1.658  12.023
34569SOL     OW 5538   0.205   4.017  14.829
34569SOL    HW1 5539   0.266   4.039   0.023
34569SOL    HW2 5540   0.127   4.069  14.849
34570SOL     OW 5541   3.035   7.325  11.255
34570SOL    HW1 5542   2.956   7.279  11.283
34570SOL    HW2 5543   3.049   7.392  11.321
34571SOL     OW 5544   0.468   2.311   5.416
34571SOL    HW1 5545   0.372   2.316   5.426
34571SOL    HW2 5546   0.487   2.371   5.344
34572SOL     OW 5547   9.352  10.511   5.293
34572SOL    HW1 5548   9.414  10.486   5.225
34572SOL    HW2 5549   9.272  10.463   5.271
34573SOL     OW 5550  11.785   9.249  13.134
34573SOL    HW1 5551  11.750   9.185  13.071
34573SOL    HW2 5552  11.720   9.318  13.137
34574SOL     OW 5553   2.262  13.135   0.053
34574SOL    HW1 5554   2.174  13.107   0.078
34574SOL    HW2 5555   2.308  13.053   0.035
34575SOL     OW 5556   0.537   7.501   4.392
34575SOL    HW1 5557   0.619   7.549   4.405
34575SOL    HW2 5558   0.563   7.409   4.396
34576SOL     OW 5559  11.988  10.395  10.757
34576SOL    HW1 5560  11.945  10.393  10.842
34576SOL    HW2 5561  11.994  10.488  10.735
34577SOL     OW 5562   5.134   5.197   5.323
34577SOL    HW1 5563   5.164   5.133   5.388
34577SOL    HW2 5564   5.039   5.194   5.328
34578SOL     OW 5565   3.082  12.925   2.988
34578SOL    HW1 5566   3.027  13.003   2.993
34578SOL    HW2 5567   3.079  12.888   3.076
34579SOL     OW 5568   0.860   4.645  14.129
34579SOL    HW1 5569   0.903   4.684  14.053
34579SOL    HW2 5570   0.928   4.640  14.196
34580SOL     OW 5571   3.662   1.403   1.259
34580SOL    HW1 5572   3.717   1.346   1.205
34580SOL    HW2 5573   3.713   1.484   1.268
34581SOL     OW 5574   5.551   1.566   0.793
34581SOL    HW1 5575   5.481   1.570   0.858
34581SOL    HW2 5576   5.514   1.605   0.714
34582SOL     OW 5577  10.707  11.181   7.356
34582SOL    HW1 5578  10.663  11.240   7.417
34582SOL    HW2 5579  10.799  11.208   7.358
34583SOL     OW 5580   2.236   4.290   8.853
34583SOL    HW1 5581   2.154   4.240   8.850
34583SOL    HW2 5582   2.296   4.240   8.798
34584SOL     OW 5583   8.569  14.161   7.288
34584SOL    HW1 5584   8.616  14.188   7.209
34584SOL    HW2 5585   8.636  14.117   7.341
34585SOL     OW 5586   3.797   3.314   3.517
34585SOL    HW1 5587   3.756   3.299   3.432
34585SOL    HW2 5588   3.883   3.349   3.496
34586SOL     OW 5589  10.986   3.191  10.250
34586SOL    HW1 5590  10.940   3.212  10.169
34586SOL    HW2 5591  10.983   3.096  10.256
34587SOL     OW 5592  12.850   2.748   9.763
34587SOL    HW1 5593  12.789   2.796   9.707
34587SOL    HW2 5594  12.829   2.775   9.852
34588SOL     OW 5595  10.822   5.770   1.461
34588SOL    HW1 5596  10.867   5.846   1.497
34588SOL    HW2 5597  10.882   5.696   1.479
34589SOL     OW 5598   4.936  11.356   8.899
34589SOL    HW1 5599   4.925  11.273   8.852
34589SOL    HW2 5600   4.849  11.395   8.901
34590SOL     OW 5601  14.289  14.501   1.907
34590SOL    HW1 5602  14.329  14.578   1.947
34590SOL    HW2 5603  14.196  14.510   1.924
34591SOL     OW 5604   7.192   1.667   4.714
34591SOL    HW1 5605   7.174   1.683   4.807
34591SOL    HW2 5606   7.225   1.750   4.681
34592SOL     OW 5607   6.784   4.006  12.851
34592SOL    HW1 5608   6.844   4.035  12.919
34592SOL    HW2 5609   6.699   4.000  12.895
34593SOL     OW 5610  11.612  11.320  10.160
34593SOL    HW1 5611  11.542  11.350  10.102
34593SOL    HW2 5612  11.690  11.367  10.130
34594SOL     OW 5613  13.035   1.965   2.195
34594SOL    HW1 5614  13.126   1.935   2.202
34594SOL    HW2 5615  12.986   1.888   2.168
34595SOL     OW 5616  10.042   6.857   4.402
34595SOL    HW1 5617  10.130   6.825   4.382
34595SOL    HW2 5618  10.055   6.948   4.428
34596SOL     OW 5619  12.550   7.410   2.720
34596SOL    HW1 5620  12.621   7.355   2.753
34596SOL    HW2 5621  12.587   7.498   2.719
34597SOL     OW 5622  10.818   5.624   8.447
34597SOL    HW1 5623  10.764   5.552   8.479
34597SOL    HW2 5624  10.780   5.647   8.362
34598SOL     OW 5625   8.885  14.311  14.487
34598SOL    HW1 5626   8.822  14.344  14.552
34598SOL    HW2 5627   8.853  14.346  14.404
34599SOL     OW 5628   6.057   3.864  10.123
34599SOL    HW1 5629   6.092   3.784  10.085
34599SOL    HW2 5630   6.053   3.847  10.217
34600SOL     OW 5631  10.619   7.922   8.289
34600SOL    HW1 5632  10.590   7.884   8.206
34600SOL    HW2 5633  10.712   7.940   8.276
34601SOL     OW 5634   2.192   2.279  10.146
34601SOL    HW1 5635   2.172   2.227  10.224
34601SOL    HW2 5636   2.192   2.215  10.074
34602SOL     OW 5637  10.956  11.531   7.138
34602SOL    HW1 5638  10.919  11.608   7.181
34602SOL    HW2 5639  10.896  11.513   7.065
34603SOL     OW 5640   4.556   2.315  13.159
34603SOL    HW1 5641   4.636   2.350  13.118
34603SOL    HW2 5642   4.585   2.285  13.245
34604SOL     OW 5643  13.592   2.669   7.775
34604SOL    HW1 5644  13.648   2.724   7.829
34604SOL    HW2 5645  13.505   2.708   7.784
34605SOL     OW 5646   7.498   9.430  13.765
34605SOL    HW1 5647   7.407   9.417  13.791
34605SOL    HW2 5648   7.521   9.350  13.718
34606SOL     OW 5649  10.282   1.002  13.620
34606SOL    HW1 5650  10.248   1.050  13.544
34606SOL    HW2 5651  10.240   1.045  13.695
34607SOL     OW 5652  12.578   8.149  11.390
34607SOL    HW1 5653  12.498   8.196  11.367
34607SOL    HW2 5654  12.648   8.214  11.383
34608SOL     OW 5655   6.862  12.199   3.952
34608SOL    HW1 5656   6.926  12.254   3.907
34608SOL    HW2 5657   6.811  12.159   3.882
34609SOL     OW 5658  12.046   4.218   1.606
34609SOL    HW1 5659  12.041   4.269   1.525
34609SOL    HW2 5660  11.955   4.200   1.628
34610SOL     OW 5661   0.772   7.493   5.235
34610SOL    HW1 5662   0.797   7.475   5.326
34610SOL    HW2 5663   0.678   7.480   5.233
34611SOL     OW 5664   3.245   3.572   2.559
34611SOL    HW1 5665   3.332   3.557   2.524
34611SOL    HW2 5666   3.250   3.659   2.601
34612SOL     OW 5667  11.461   2.577  14.173
34612SOL    HW1 5668  11.512   2.522  14.113
34612SOL    HW2 5669  11.370   2.566  14.146
34613SOL     OW 5670   7.713  12.531  14.359
34613SOL    HW1 5671   7.665  12.449  14.367
34613SOL    HW2 5672   7.659  12.595  14.406
34614SOL     OW 5673   8.512   0.343   0.021
34614SOL    HW1 5674   8.525   0.428   0.061
34614SOL    HW2 5675   8.423   0.346  14.862
34615SOL     OW 5676   6.717  14.310   9.717
34615SOL    HW1 5677   6.773  14.241   9.680
34615SOL    HW2 5678   6.774  14.386   9.723
34616SOL     OW 5679   8.272   6.992   0.287
34616SOL    HW1 5680   8.201   6.942   0.248
34616SOL    HW2 5681   8.252   7.084   0.267
34617SOL     OW 5682   1.986   3.906  10.926
34617SOL    HW1 5683   2.024   3.957  10.998
34617SOL    HW2 5684   1.893   3.929  10.928
34618SOL     OW 5685   5.885   3.534  13.972
34618SOL    HW1 5686   5.913   3.509  14.060
34618SOL    HW2 5687   5.941   3.483  13.914
34619SOL     OW 5688  14.211   1.374  10.539
34619SOL    HW1 5689  14.173   1.414  10.617
34619SOL    HW2 5690  14.201   1.440  10.471
34620SOL     OW 5691   3.081  12.149   9.933
34620SOL    HW1 5692   3.105  12.064   9.972
34620SOL    HW2 5693   2.993  12.134   9.897
34621SOL     OW 5694   5.864   3.465   3.801
34621SOL    HW1 5695   5.849   3.483   3.708
34621SOL    HW2 5696   5.830   3.542   3.847
34622SOL     OW 5697   1.943   4.879   4.713
34622SOL    HW1 5698   2.023   4.898   4.664
34622SOL    HW2 5699   1.975   4.856   4.801
34623SOL     OW 5700   9.768   9.053   1.698
34623SOL    HW1 5701   9.830   9.084   1.764
34623SOL    HW2 5702   9.688   9.103   1.713
34624SOL     OW 5703   8.811  12.004   8.109
34624SOL    HW1 5704   8.807  12.099   8.102
34624SOL    HW2 5705   8.869  11.988   8.184
34625SOL     OW 5706  13.480   8.513   1.289
34625SOL    HW1 5707  13.553   8.566   1.257
34625SOL    HW2 5708  13.473   8.537   1.381
34626SOL     OW 5709  11.013  11.130   5.057
34626SOL    HW1 5710  11.069  11.207   5.073
34626SOL    HW2 5711  11.008  11.124   4.962
34627SOL     OW 5712   9.816   6.531   2.660
34627SOL    HW1 5713   9.821   6.576   2.744
34627SOL    HW2 5714   9.752   6.581   2.609
34628SOL     OW 5715  11.515   6.832   5.185
34628SOL    HW1 5716  11.478   6.802   5.268
34628SOL    HW2 5717  11.449   6.808   5.120
34629SOL     OW 5718  10.682   8.215   0.503
34629SOL    HW1 5719  10.665   8.121   0.494
34629SOL    HW2 5720  10.595   8.254   0.512
34630SOL     OW 5721  14.469  14.170  12.806
34630SOL    HW1 5722  14.398  14.131  12.754
34630SOL    HW2 5723  14.539  14.105  12.802
34631SOL     OW 5724  10.689   6.833   3.185
34631SOL    HW1 5725  10.682   6.772   3.111
34631SOL    HW2 5726  10.729   6.911   3.148
34632SOL     OW 5727  11.474   1.786   1.282
34632SOL    HW1 5728  11.495   1.816   1.370
34632SOL    HW2 5729  11.543   1.823   1.227
34633SOL     OW 5730   4.273   2.477   8.134
34633SOL    HW1 5731   4.358   2.498   8.173
34633SOL    HW2 5732   4.213   2.478   8.208
34634SOL     OW 5733   2.572   2.869  12.558
34634SOL    HW1 5734   2.637   2.934  12.587
34634SOL    HW2 5735   2.598   2.847  12.469
34635SOL     OW 5736   3.105  13.441   6.116
34635SOL    HW1 5737   3.147  13.357   6.136
34635SOL    HW2 5738   3.120  13.494   6.194
34636SOL     OW 5739   4.401   6.696   5.907
34636SOL    HW1 5740   4.399   6.785   5.941
34636SOL    HW2 5741   4.451   6.702   5.826
34637SOL     OW 5742  12.113   4.964   2.323
34637SOL    HW1 5743  12.182   4.946   2.259
34637SOL    HW2 5744  12.143   4.921   2.403
34638SOL     OW 5745   2.916   8.663  11.559
34638SOL    HW1 5746   3.000   8.636  11.594
34638SOL    HW2 5747   2.851   8.618  11.613
34639SOL     OW 5748   0.816   2.138   2.801
34639SOL    HW1 5749   0.808   2.044   2.817
34639SOL    HW2 5750   0.910   2.155   2.805
34640SOL     OW 5751   6.647   2.133   8.848
34640SOL    HW1 5752   6.707   2.108   8.918
34640SOL    HW2 5753   6.622   2.223   8.869
34641SOL     OW 5754   6.041   8.788  13.015
34641SOL    HW1 5755   5.988   8.708  13.020
34641SOL    HW2 5756   5.989   8.848  12.961
34642SOL     OW 5757  11.724   9.188  11.005
34642SOL    HW1 5758  11.740   9.146  10.921
34642SOL    HW2 5759  11.700   9.115  11.064
34643SOL     OW 5760   6.788   2.095   3.236
34643SOL    HW1 5761   6.854   2.090   3.305
34643SOL    HW2 5762   6.707   2.114   3.282
34644SOL     OW 5763  14.261   5.356  12.671
34644SOL    HW1 5764  14.293   5.276  12.713
34644SOL    HW2 5765  14.338   5.393  12.628
34645SOL     OW 5766   9.095   5.854   9.674
34645SOL    HW1 5767   9.073   5.941   9.708
34645SOL    HW2 5768   9.106   5.800   9.753
34646SOL     OW 5769   4.566   9.377   4.126
34646SOL    HW1 5770   4.473   9.382   4.148
34646SOL    HW2 5771   4.611   9.387   4.209
34647SOL     OW 5772  12.501   3.140  11.074
34647SOL    HW1 5773  12.437   3.211  11.077
34647SOL    HW2 5774  12.495   3.106  10.985
34648SOL     OW 5775   3.784   9.243   7.481
34648SOL    HW1 5776   3.789   9.305   7.408
34648SOL    HW2 5777   3.873   9.244   7.518
34649SOL     OW 5778  14.228   5.780   5.369
34649SOL    HW1 5779  14.317   5.754   5.393
34649SOL    HW2 5780  14.176   5.700   5.381
34650SOL     OW 5781   4.705   0.865   6.054
34650SOL    HW1 5782   4.667   0.899   6.135
34650SOL    HW2 5783   4.658   0.783   6.039
34651SOL     OW 5784  14.127   1.845  14.246
34651SOL    HW1 5785  14.064   1.871  14.314
34651SOL    HW2 5786  14.089   1.877  14.164
34652SOL     OW 5787   3.567  12.880   6.816
34652SOL    HW1 5788   3.550  12.807   6.756
34652SOL    HW2 5789   3.493  12.878   6.877
34653SOL     OW 5790   3.715   4.623   9.006
34653SOL    HW1 5791   3.660   4.685   8.958
34653SOL    HW2 5792   3.659   4.593   9.078
34654SOL     OW 5793   3.204   9.834   3.227
34654SOL    HW1 5794   3.193   9.834   3.323
34654SOL    HW2 5795   3.211   9.741   3.204
34655SOL     OW 5796   0.403   6.432   7.087
34655SOL    HW1 5797   0.410   6.382   7.168
34655SOL    HW2 5798   0.385   6.522   7.115
34656SOL     OW 5799   6.652  14.229   3.202
34656SOL    HW1 5800   6.579  14.279   3.166
34656SOL    HW2 5801   6.637  14.139   3.171
34657SOL     OW 5802  14.573   5.623   5.073
34657SOL    HW1 5803  14.658   5.663   5.051
34657SOL    HW2 5804  14.594   5.558   5.141
34658SOL     OW 5805  13.218  14.695  14.812
34658SOL    HW1 5806  13.233  14.778  14.859
34658SOL    HW2 5807  13.162  14.645  14.871
34659SOL     OW 5808  11.665   5.805   9.068
34659SOL    HW1 5809  11.615   5.742   9.016
34659SOL    HW2 5810  11.731   5.752   9.113
34660SOL     OW 5811   9.078  14.359  10.762
34660SOL    HW1 5812   8.984  14.341  10.760
34660SOL    HW2 5813   9.111  14.330  10.677
34661SOL     OW 5814   2.604   9.344   7.192
34661SOL    HW1 5815   2.556   9.406   7.138
34661SOL    HW2 5816   2.576   9.363   7.282
34662SOL     OW 5817   9.292  11.414   5.817
34662SOL    HW1 5818   9.350  11.454   5.752
34662SOL    HW2 5819   9.350  11.389   5.889
34663SOL     OW 5820  12.898   5.346  13.637
34663SOL    HW1 5821  12.990   5.371  13.628
34663SOL    HW2 5822  12.863   5.409  13.700
34664SOL     OW 5823   0.674  11.581  12.778
34664SOL    HW1 5824   0.616  11.512  12.746
34664SOL    HW2 5825   0.746  11.534  12.820
34665SOL     OW 5826   2.547  14.023   8.296
34665SOL    HW1 5827   2.496  14.005   8.375
34665SOL    HW2 5828   2.500  14.094   8.252
34666SOL     OW 5829   1.310   5.916   2.189
34666SOL    HW1 5830   1.333   6.009   2.196
34666SOL    HW2 5831   1.249   5.901   2.261
34667SOL     OW 5832   9.514   8.556  11.837
34667SOL    HW1 5833   9.547   8.492  11.900
34667SOL    HW2 5834   9.419   8.556  11.850
34668SOL     OW 5835  11.457   5.264  11.224
34668SOL    HW1 5836  11.505   5.207  11.164
34668SOL    HW2 5837  11.436   5.342  11.172
34669SOL     OW 5838   1.881   7.996   7.278
34669SOL    HW1 5839   1.797   7.960   7.249
34669SOL    HW2 5840   1.931   8.010   7.197
34670SOL     OW 5841   5.092   2.733   2.114
34670SOL    HW1 5842   5.179   2.709   2.145
34670SOL    HW2 5843   5.107   2.772   2.027
34671SOL     OW 5844  10.503   7.520   2.958
34671SOL    HW1 5845  10.500   7.425   2.943
34671SOL    HW2 5846  10.411   7.547   2.954
34672SOL     OW 5847  12.366  10.016   1.270
34672SOL    HW1 5848  12.282  10.033   1.228
34672SOL    HW2 5849  12.347  10.015   1.363
34673SOL     OW 5850   4.976  12.720   7.980
34673SOL    HW1 5851   4.960  12.807   7.944
34673SOL    HW2 5852   4.891  12.693   8.016
34674SOL     OW 5853   5.322  13.820   8.538
34674SOL    HW1 5854   5.402  13.768   8.529
34674SOL    HW2 5855   5.264  13.787   8.470
34675SOL     OW 5856   7.939   4.800   3.907
34675SOL    HW1 5857   7.931   4.708   3.880
34675SOL    HW2 5858   7.863   4.842   3.868
34676SOL     OW 5859   7.733   3.662  11.488
34676SOL    HW1 5860   7.693   3.634  11.571
34676SOL    HW2 5861   7.787   3.737  11.512
34677SOL     OW 5862   4.276   9.020   9.921
34677SOL    HW1 5863   4.204   8.998   9.981
34677SOL    HW2 5864   4.258   9.111   9.896
34678SOL     OW 5865   4.652   3.781   0.595
34678SOL    HW1 5866   4.566   3.774   0.636
34678SOL    HW2 5867   4.688   3.862   0.629
34679SOL     OW 5868  12.585  13.977  13.137
34679SOL    HW1 5869  12.616  13.890  13.113
34679SOL    HW2 5870  12.492  13.976  13.116
34680SOL     OW 5871   2.080   3.009  14.512
34680SOL    HW1 5872   2.142   2.939  14.493
34680SOL    HW2 5873   2.036   3.025  14.428
34681SOL     OW 5874  11.384   9.351   4.509
34681SOL    HW1 5875  11.437   9.406   4.452
34681SOL    HW2 5876  11.399   9.387   4.597
34682SOL     OW 5877  10.309   6.357   1.281
34682SOL    HW1 5878  10.221   6.330   1.255
34682SOL    HW2 5879  10.341   6.411   1.209
34683SOL     OW 5880   1.145   2.853   5.239
34683SOL    HW1 5881   1.064   2.858   5.190
34683SOL    HW2 5882   1.118   2.858   5.331
34684SOL     OW 5883   8.244   0.777  14.027
34684SOL    HW1 5884   8.335   0.752  14.013
34684SOL    HW2 5885   8.247   0.871  14.040
34685SOL     OW 5886   5.051   0.291   2.348
34685SOL    HW1 5887   5.019   0.319   2.434
34685SOL    HW2 5888   5.011   0.206   2.333
34686SOL     OW 5889   1.912  13.220  11.520
34686SOL    HW1 5890   1.853  13.290  11.494
34686SOL    HW2 5891   1.901  13.213  11.614
34687SOL     OW 5892  14.137   5.807   5.724
34687SOL    HW1 5893  14.143   5.818   5.629
34687SOL    HW2 5894  14.177   5.722   5.740
34688SOL     OW 5895  10.941   9.846  11.984
34688SOL    HW1 5896  10.865   9.860  12.040
34688SOL    HW2 5897  11.009   9.816  12.044
34689SOL     OW 5898   6.563  11.621   5.255
34689SOL    HW1 5899   6.625  11.674   5.306
34689SOL    HW2 5900   6.477  11.646   5.288
34690SOL     OW 5901   4.177   6.941   6.290
34690SOL    HW1 5902   4.199   7.015   6.347
34690SOL    HW2 5903   4.231   6.869   6.323
34691SOL     OW 5904  13.827   7.043  12.093
34691SOL    HW1 5905  13.823   6.970  12.154
34691SOL    HW2 5906  13.761   7.105  12.125
34692SOL     OW 5907   9.708  12.519   9.927
34692SOL    HW1 5908   9.660  12.587   9.976
34692SOL    HW2 5909   9.800  12.545   9.936
34693SOL     OW 5910   8.133  14.060   1.297
34693SOL    HW1 5911   8.216  14.081   1.340
34693SOL    HW2 5912   8.148  14.081   1.205
34694SOL     OW 5913   9.722   7.965  12.273
34694SOL    HW1 5914   9.722   7.872  12.247
34694SOL    HW2 5915   9.815   7.988  12.275
34695SOL     OW 5916  14.155   8.390  13.803
34695SOL    HW1 5917  14.156   8.423  13.713
34695SOL    HW2 5918  14.062   8.376  13.822
34696SOL     OW 5919   1.672   0.586   0.543
34696SOL    HW1 5920   1.744   0.532   0.576
34696SOL    HW2 5921   1.636   0.536   0.471
34697SOL     OW 5922   4.768   7.374  10.469
34697SOL    HW1 5923   4.696   7.359  10.529
34697SOL    HW2 5924   4.830   7.428  10.519
34698SOL     OW 5925   6.764   4.846   7.714
34698SOL    HW1 5926   6.680   4.857   7.670
34698SOL    HW2 5927   6.749   4.876   7.804
34699SOL     OW 5928  14.791  13.661  12.539
34699SOL    HW1 5929  14.789  13.680  12.633
34699SOL    HW2 5930  14.857  13.593  12.530
34700SOL     OW 5931   7.040   3.484   8.491
34700SOL    HW1 5932   6.955   3.492   8.449
34700SOL    HW2 5933   7.065   3.393   8.478
34701SOL     OW 5934  12.790   2.377   2.967
34701SOL    HW1 5935  12.813   2.419   2.884
34701SOL    HW2 5936  12.794   2.447   3.032
34702SOL     OW 5937  10.653   1.143   4.504
34702SOL    HW1 5938  10.699   1.062   4.525
34702SOL    HW2 5939  10.669   1.157   4.411
34703SOL     OW 5940   8.580   4.019  10.041
34703SOL    HW1 5941   8.636   4.010   9.964
34703SOL    HW2 5942   8.501   4.061  10.008
34704SOL     OW 5943  13.366   2.939   9.293
34704SOL    HW1 5944  13.435   2.996   9.326
34704SOL    HW2 5945  13.292   2.998   9.276
34705SOL     OW 5946  11.105  14.228   3.306
34705SOL    HW1 5947  11.157  14.245   3.385
34705SOL    HW2 5948  11.016  14.254   3.329
34706SOL     OW 5949   8.417   7.294  11.158
34706SOL    HW1 5950   8.486   7.242  11.118
34706SOL    HW2 5951   8.398   7.250  11.241
34707SOL     OW 5952   9.249   4.119  11.576
34707SOL    HW1 5953   9.315   4.151  11.515
34707SOL    HW2 5954   9.170   4.169  11.556
34708SOL     OW 5955   2.174  10.068   6.754
34708SOL    HW1 5956   2.193   9.978   6.726
34708SOL    HW2 5957   2.203  10.072   6.845
34709SOL     OW 5958  12.030  14.348   9.454
34709SOL    HW1 5959  11.959  14.283   9.455
34709SOL    HW2 5960  12.051  14.361   9.546
34710SOL     OW 5961   5.858   4.196  11.077
34710SOL    HW1 5962   5.803   4.270  11.101
34710SOL    HW2 5963   5.858   4.195  10.982
34711SOL     OW 5964   4.137   8.721  14.712
34711SOL    HW1 5965   4.129   8.807  14.670
34711SOL    HW2 5966   4.059   8.674  14.684
34712SOL     OW 5967  13.688  12.096  10.942
34712SOL    HW1 5968  13.630  12.026  10.912
34712SOL    HW2 5969  13.721  12.065  11.026
34713SOL     OW 5970   6.509  13.321   4.752
34713SOL    HW1 5971   6.461  13.241   4.731
34713SOL    HW2 5972   6.568  13.335   4.678
34714SOL     OW 5973   8.302   0.939  14.653
34714SOL    HW1 5974   8.277   0.952  14.562
34714SOL    HW2 5975   8.382   0.887  14.649
34715SOL     OW 5976   8.469   8.241   9.048
34715SOL    HW1 5977   8.387   8.195   9.066
34715SOL    HW2 5978   8.537   8.175   9.058
34716SOL     OW 5979  14.725  14.386   6.127
34716SOL    HW1 5980  14.799  14.342   6.169
34716SOL    HW2 5981  14.748  14.479   6.132
34717SOL     OW 5982  12.721   9.548  12.346
34717SOL    HW1 5983  12.663   9.616  12.312
34717SOL    HW2 5984  12.729   9.485  12.275
34718SOL     OW 5985  10.688   9.290  12.178
34718SOL    HW1 5986  10.755   9.225  12.155
34718SOL    HW2 5987  10.639   9.250  12.250
34719SOL     OW 5988   9.255   7.416   1.577
34719SOL    HW1 5989   9.236   7.347   1.513
34719SOL    HW2 5990   9.181   7.413   1.638
34720SOL     OW 5991   0.168   4.580   1.834
34720SOL    HW1 5992   0.122   4.591   1.751
34720SOL    HW2 5993   0.261   4.590   1.811
34721SOL     OW 5994  14.490   4.169  11.063
34721SOL    HW1 5995  14.468   4.255  11.097
34721SOL    HW2 5996  14.514   4.118  11.141
34722SOL     OW 5997  11.907  11.744   9.910
34722SOL    HW1 5998  11.943  11.664   9.872
34722SOL    HW2 5999  11.983  11.799   9.927
34723SOL     OW 6000   8.971   3.085   3.822
34723SOL    HW1 6001   9.063   3.073   3.845
34723SOL    HW2 6002   8.942   3.157   3.878
34724SOL     OW 6003  12.404  10.917   1.361
34724SOL    HW1 6004  12.393  10.888   1.270
34724SOL    HW2 6005  12.416  11.011   1.354
34725SOL     OW 6006   0.119   9.923  12.287
34725SOL    HW1 6007   0.203   9.905  12.330
34725SOL    HW2 6008   0.140   9.983  12.216
34726SOL     OW 6009   2.322   4.103   1.336
34726SOL    HW1 6010   2.361   4.086   1.422
34726SOL    HW2 6011   2.316   4.017   1.295
34727SOL     OW 6012   5.522   0.624   3.668
34727SOL    HW1 6013   5.442   0.573   3.652
34727SOL    HW2 6014   5.592   0.570   3.633
34728SOL     OW 6015  13.417   6.802  14.040
34728SOL    HW1 6016  13.478   6.795  14.113
34728SOL    HW2 6017  13.360   6.726  14.048
34729SOL     OW 6018   8.620   4.104  11.149
34729SOL    HW1 6019   8.545   4.143  11.104
34729SOL    HW2 6020   8.592   4.014  11.168
34730SOL     OW 6021   4.815   3.429   0.059
34730SOL    HW1 6022   4.909   3.417   0.049
34730SOL    HW2 6023   4.776   3.358   0.009
34731SOL     OW 6024   7.056  14.457   0.889
34731SOL    HW1 6025   6.987  14.510   0.850
34731SOL    HW2 6026   7.118  14.441   0.818
34732SOL     OW 6027   9.281   5.930   7.321
34732SOL    HW1 6028   9.334   5.866   7.367
34732SOL    HW2 6029   9.320   5.936   7.234
34733SOL     OW 6030   1.022   7.210  10.263
34733SOL    HW1 6031   1.107   7.232  10.225
34733SOL    HW2 6032   0.959   7.220  10.191
34734SOL     OW 6033  11.858  12.577   6.916
34734SOL    HW1 6034  11.768  12.568   6.947
34734SOL    HW2 6035  11.905  12.614   6.990
34735SOL     OW 6036  12.625  10.582  13.666
34735SOL    HW1 6037  12.653  10.492  13.649
34735SOL    HW2 6038  12.535  10.586  13.632
34736SOL     OW 6039   2.680  11.198  10.076
34736SOL    HW1 6040   2.643  11.168  10.159
34736SOL    HW2 6041   2.773  11.173  10.081
34737SOL     OW 6042  11.115   1.293   4.518
34737SOL    HW1 6043  11.189   1.302   4.578
34737SOL    HW2 6044  11.041   1.268   4.574
34738SOL     OW 6045   9.614  13.900   8.175
34738SOL    HW1 6046   9.623  13.850   8.094
34738SOL    HW2 6047   9.680  13.969   8.168
34739SOL     OW 6048   4.781   5.153   9.786
34739SOL    HW1 6049   4.762   5.196   9.869
34739SOL    HW2 6050   4.755   5.216   9.719
34740SOL     OW 6051   1.643  10.225   9.125
34740SOL    HW1 6052   1.673  10.315   9.135
34740SOL    HW2 6053   1.601  10.204   9.209
34741SOL     OW 6054   6.487   3.668   9.030
34741SOL    HW1 6055   6.470   3.726   8.956
34741SOL    HW2 6056   6.493   3.581   8.992
34742SOL     OW 6057  14.471   0.692   9.341
34742SOL    HW1 6058  14.511   0.779   9.342
34742SOL    HW2 6059  14.545   0.632   9.330
34743SOL     OW 6060  10.499  14.169   5.093
34743SOL    HW1 6061  10.563  14.173   5.021
34743SOL    HW2 6062  10.542  14.117   5.160
34744SOL     OW 6063   7.067  10.668   7.234
34744SOL    HW1 6064   7.140  10.726   7.255
34744SOL    HW2 6065   7.106  10.602   7.175
34745SOL     OW 6066  14.047  11.872   7.461
34745SOL    HW1 6067  14.096  11.934   7.408
34745SOL    HW2 6068  13.975  11.924   7.498
34746SOL     OW 6069   3.519   5.416   2.522
34746SOL    HW1 6070   3.606   5.425   2.484
34746SOL    HW2 6071   3.531   5.356   2.596
34747SOL     OW 6072   9.362   4.881  13.224
34747SOL    HW1 6073   9.339   4.791  13.248
34747SOL    HW2 6074   9.457   4.881  13.217
34748SOL     OW 6075   7.605   8.644   1.258
34748SOL    HW1 6076   7.601   8.548   1.254
34748SOL    HW2 6077   7.543   8.673   1.191
34749SOL     OW 6078  13.031  14.451   4.965
34749SOL    HW1 6079  12.942  14.445   4.931
34749SOL    HW2 6080  13.077  14.508   4.904
34750SOL     OW 6081  12.998   7.422  11.569
34750SOL    HW1 6082  13.087   7.416  11.605
34750SOL    HW2 6083  13.010   7.442  11.477
34751SOL     OW 6084  13.576   1.589   4.230
34751SOL    HW1 6085  13.546   1.512   4.182
34751SOL    HW2 6086  13.609   1.649   4.163
34752SOL     OW 6087   4.628  12.194  13.136
34752SOL    HW1 6088   4.716  12.222  13.112
34752SOL    HW2 6089   4.639  12.149  13.219
34753SOL     OW 6090   9.769  14.434   3.646
34753SOL    HW1 6091   9.702  14.490   3.607
34753SOL    HW2 6092   9.742  14.345   3.624
34754SOL     OW 6093  13.886  12.049   7.571
34754SOL    HW1 6094  13.881  12.129   7.518
34754SOL    HW2 6095  13.817  12.059   7.636
34755SOL     OW 6096   2.787   9.004   9.376
34755SOL    HW1 6097   2.859   9.020   9.315
34755SOL    HW2 6098   2.807   8.918   9.414
34756SOL     OW 6099   5.222   3.784   7.254
34756SOL    HW1 6100   5.274   3.736   7.318
34756SOL    HW2 6101   5.284   3.807   7.185
34757SOL     OW 6102   4.062  12.935   0.541
34757SOL    HW1 6103   4.112  12.939   0.622
34757SOL    HW2 6104   4.054  13.026   0.513
34758SOL     OW 6105   9.947  11.778  13.188
34758SOL    HW1 6106   9.895  11.858  13.180
34758SOL    HW2 6107   9.922  11.742  13.273
34759SOL     OW 6108   4.609  14.515   0.725
34759SOL    HW1 6109   4.617  14.565   0.644
34759SOL    HW2 6110   4.699  14.493   0.749
34760SOL     OW 6111  14.581   0.014  12.721
34760SOL    HW1 6112  14.545   0.066  12.649
34760SOL    HW2 6113  14.599   0.078  12.790
34761SOL     OW 6114  11.989  13.827   1.309
34761SOL    HW1 6115  12.009  13.746   1.356
34761SOL    HW2 6116  12.013  13.809   1.218
34762SOL     OW 6117  12.614  10.203   6.807
34762SOL    HW1 6118  12.616  10.197   6.903
34762SOL    HW2 6119  12.525  10.232   6.787
34763SOL     OW 6120  14.303   7.721   0.382
34763SOL    HW1 6121  14.234   7.728   0.316
34763SOL    HW2 6122  14.316   7.811   0.413
34764SOL     OW 6123   4.312  10.152  10.725
34764SOL    HW1 6124   4.383  10.210  10.697
34764SOL    HW2 6125   4.254  10.148  10.649
34765SOL     OW 6126   4.463   2.867   4.682
34765SOL    HW1 6127   4.454   2.841   4.773
34765SOL    HW2 6128   4.555   2.848   4.661
34766SOL     OW 6129   3.688   9.735   3.513
34766SOL    HW1 6130   3.630   9.689   3.452
34766SOL    HW2 6131   3.638   9.812   3.539
34767SOL     OW 6132  12.679   0.208  13.300
34767SOL    HW1 6133  12.679   0.193  13.395
34767SOL    HW2 6134  12.633   0.291  13.289
34768SOL     OW 6135   9.489  11.422  12.116
34768SOL    HW1 6136   9.426  11.355  12.141
34768SOL    HW2 6137   9.539  11.438  12.196
34769SOL     OW 6138   6.685   4.440   0.291
34769SOL    HW1 6139   6.744   4.364   0.288
34769SOL    HW2 6140   6.739   4.509   0.330
34770SOL     OW 6141   2.016  12.962   5.202
34770SOL    HW1 6142   1.981  13.043   5.165
34770SOL    HW2 6143   2.079  12.931   5.137
34771SOL     OW 6144  10.063  14.738   0.754
34771SOL    HW1 6145  10.118  14.664   0.782
34771SOL    HW2 6146  10.097  14.761   0.667
34772SOL     OW 6147  12.418   6.078  10.038
34772SOL    HW1 6148  12.428   6.124   9.955
34772SOL    HW2 6149  12.494   6.105  10.090
34773SOL     OW 6150  14.875  14.300   6.881
34773SOL    HW1 6151  14.833  14.290   6.966
34773SOL    HW2 6152  14.841  14.383   6.847
34774SOL     OW 6153   8.348   5.520  10.794
34774SOL    HW1 6154   8.257   5.505  10.820
34774SOL    HW2 6155   8.385   5.432  10.785
34775SOL     OW 6156   8.199  10.428   4.267
34775SOL    HW1 6157   8.143  10.429   4.344
34775SOL    HW2 6158   8.138  10.443   4.194
34776SOL     OW 6159  13.001  13.948  14.165
34776SOL    HW1 6160  13.059  13.972  14.092
34776SOL    HW2 6161  13.012  14.019  14.228
34777SOL     OW 6162   1.555   7.198  11.850
34777SOL    HW1 6163   1.492   7.126  11.851
34777SOL    HW2 6164   1.606   7.184  11.771
34778SOL     OW 6165   4.470   9.593   2.177
34778SOL    HW1 6166   4.396   9.542   2.209
34778SOL    HW2 6167   4.461   9.592   2.082
34779SOL     OW 6168   0.711   2.237   1.152
34779SOL    HW1 6169   0.729   2.152   1.111
34779SOL    HW2 6170   0.647   2.217   1.221
34780SOL     OW 6171  11.299   3.820   2.484
34780SOL    HW1 6172  11.335   3.760   2.419
34780SOL    HW2 6173  11.308   3.907   2.445
34781SOL     OW 6174   0.233   4.406   6.332
34781SOL    HW1 6175   0.214   4.500   6.341
34781SOL    HW2 6176   0.164   4.374   6.274
34782SOL     OW 6177  11.582  10.607  13.619
34782SOL    HW1 6178  11.657  10.549  13.629
34782SOL    HW2 6179  11.591  10.672  13.689
34783SOL     OW 6180   6.042  12.056  11.010
34783SOL    HW1 6181   6.067  12.138  11.051
34783SOL    HW2 6182   6.057  11.989  11.077
34784SOL     OW 6183   4.735   8.907   9.679
34784SOL    HW1 6184   4.714   8.949   9.596
34784SOL    HW2 6185   4.828   8.884   9.671
34785SOL     OW 6186  12.883   5.886  14.676
34785SOL    HW1 6187  12.891   5.951  14.746
34785SOL    HW2 6188  12.832   5.931  14.608
34786SOL     OW 6189  12.713   2.038  11.771
34786SOL    HW1 6190  12.625   2.061  11.742
34786SOL    HW2 6191  12.751   2.121  11.801
34787SOL     OW 6192   1.936   7.303  11.965
34787SOL    HW1 6193   1.937   7.304  11.870
34787SOL    HW2 6194   1.844   7.305  11.989
34788SOL     OW 6195  10.792  11.367   5.577
34788SOL    HW1 6196  10.767  11.388   5.667
34788SOL    HW2 6197  10.862  11.303   5.585
34789SOL     OW 6198  10.029   3.359  12.988
34789SOL    HW1 6199  10.082   3.416  13.044
34789SOL    HW2 6200  10.076   3.276  12.987
34790SOL     OW 6201   0.179  12.344   6.214
34790SOL    HW1 6202   0.187  12.386   6.129
34790SOL    HW2 6203   0.085  12.331   6.226
34791SOL     OW 6204   3.066   0.742   1.362
34791SOL    HW1 6205   2.973   0.737   1.386
34791SOL    HW2 6206   3.091   0.832   1.380
34792SOL     OW 6207  13.792   5.157  12.173
34792SOL    HW1 6208  13.865   5.124  12.226
34792SOL    HW2 6209  13.809   5.252  12.167
34793SOL     OW 6210   0.916   0.228  13.514
34793SOL    HW1 6211   0.826   0.247  13.488
34793SOL    HW2 6212   0.918   0.134  13.530
34794SOL     OW 6213   7.998  12.785   5.694
34794SOL    HW1 6214   7.927  12.797   5.632
34794SOL    HW2 6215   8.078  12.792   5.642
34795SOL     OW 6216   9.752   9.354   8.214
34795SOL    HW1 6217   9.799   9.274   8.187
34795SOL    HW2 6218   9.679   9.360   8.153
34796SOL     OW 6219   2.203   9.510   0.830
34796SOL    HW1 6220   2.256   9.430   0.837
34796SOL    HW2 6221   2.203   9.547   0.918
34797SOL     OW 6222  12.149   7.471   5.945
34797SOL    HW1 6223  12.133   7.565   5.938
34797SOL    HW2 6224  12.095   7.431   5.876
34798SOL     OW 6225   5.388   6.579   8.426
34798SOL    HW1 6226   5.441   6.622   8.359
34798SOL    HW2 6227   5.452   6.539   8.485
34799SOL     OW 6228   1.571   8.871  14.201
34799SOL    HW1 6229   1.599   8.835  14.116
34799SOL    HW2 6230   1.476   8.867  14.198
34800SOL     OW 6231   1.692   8.112  14.618
34800SOL    HW1 6232   1.727   8.036  14.572
34800SOL    HW2 6233   1.610   8.133  14.572
34801SOL     OW 6234  14.520   2.263   1.426
34801SOL    HW1 6235  14.515   2.259   1.331
34801SOL    HW2 6236  14.588   2.200   1.450
34802SOL     OW 6237  10.806  14.524   8.495
34802SOL    HW1 6238  10.718  14.552   8.470
34802SOL    HW2 6239  10.864  14.568   8.432
34803SOL     OW 6240  14.700   6.853  12.982
34803SOL    HW1 6241  14.703   6.948  12.995
34803SOL    HW2 6242  14.733   6.840  12.893
34804SOL     OW 6243   2.485  10.679  12.005
34804SOL    HW1 6244   2.483  10.662  12.099
34804SOL    HW2 6245   2.500  10.774  11.998
34805SOL     OW 6246   5.648  10.935   2.408
34805SOL    HW1 6247   5.726  10.886   2.381
34805SOL    HW2 6248   5.610  10.882   2.478
34806SOL     OW 6249   7.117   3.907   6.557
34806SOL    HW1 6250   7.091   3.816   6.570
34806SOL    HW2 6251   7.058   3.957   6.613
34807SOL     OW 6252  12.380   3.938   8.326
34807SOL    HW1 6253  12.401   3.952   8.234
34807SOL    HW2 6254  12.363   4.026   8.360
34808SOL     OW 6255  14.395   4.496   9.395
34808SOL    HW1 6256  14.349   4.547   9.328
34808SOL    HW2 6257  14.401   4.555   9.471
34809SOL     OW 6258   8.788   6.743   4.378
34809SOL    HW1 6259   8.731   6.803   4.426
34809SOL    HW2 6260   8.869   6.741   4.428
34810SOL     OW 6261   8.898   2.490   2.303
34810SOL    HW1 6262   8.986   2.472   2.335
34810SOL    HW2 6263   8.876   2.413   2.250
34811SOL     OW 6264  10.197   4.477   0.476
34811SOL    HW1 6265  10.142   4.409   0.516
34811SOL    HW2 6266  10.141   4.555   0.475
34812SOL     OW 6267   8.235   0.354  14.561
34812SOL    HW1 6268   8.218   0.260  14.558
34812SOL    HW2 6269   8.220   0.384  14.471
34813SOL     OW 6270   2.893   9.554  13.895
34813SOL    HW1 6271   2.945   9.598  13.962
34813SOL    HW2 6272   2.891   9.462  13.922
34814SOL     OW 6273   2.675   3.785  14.686
34814SOL    HW1 6274   2.751   3.757  14.737
34814SOL    HW2 6275   2.701   3.773  14.595
34815SOL     OW 6276   5.966  12.906   0.278
34815SOL    HW1 6277   5.964  12.816   0.244
34815SOL    HW2 6278   5.876  12.922   0.308
34816SOL     OW 6279  10.314   3.854  14.828
34816SOL    HW1 6280  10.315   3.917   0.024
34816SOL    HW2 6281  10.404   3.850  14.797
34817SOL     OW 6282   3.248   0.870   1.560
34817SOL    HW1 6283   3.233   0.781   1.592
34817SOL    HW2 6284   3.314   0.860   1.491
34818SOL     OW 6285   2.948  14.226  13.172
34818SOL    HW1 6286   2.995  14.260  13.249
34818SOL    HW2 6287   3.005  14.246  13.098
34819SOL     OW 6288  10.799   4.980  14.515
34819SOL    HW1 6289  10.738   4.909  14.536
34819SOL    HW2 6290  10.790   5.042  14.587
34820SOL     OW 6291   7.056  14.211  12.148
34820SOL    HW1 6292   7.101  14.269  12.209
34820SOL    HW2 6293   6.998  14.268  12.099
34821SOL     OW 6294   2.039   2.709   3.402
34821SOL    HW1 6295   2.086   2.791   3.386
34821SOL    HW2 6296   2.108   2.642   3.405
34822SOL     OW 6297   2.019  12.027  11.596
34822SOL    HW1 6298   2.090  11.983  11.644
34822SOL    HW2 6299   2.019  12.117  11.630
34823SOL     OW 6300   9.296   5.523   0.875
34823SOL    HW1 6301   9.296   5.618   0.872
34823SOL    HW2 6302   9.232   5.501   0.942
34824SOL     OW 6303  13.645   4.705   7.265
34824SOL    HW1 6304  13.630   4.714   7.171
34824SOL    HW2 6305  13.648   4.610   7.280
34825SOL     OW 6306  12.905   9.059  11.748
34825SOL    HW1 6307  12.913   9.119  11.673
34825SOL    HW2 6308  12.852   8.987  11.715
34826SOL     OW 6309   9.648  13.381  12.395
34826SOL    HW1 6310   9.672  13.288  12.389
34826SOL    HW2 6311   9.554  13.382  12.377
34827SOL     OW 6312   0.946   3.120  11.621
34827SOL    HW1 6313   0.915   3.194  11.672
34827SOL    HW2 6314   0.882   3.051  11.638
34828SOL     OW 6315  13.331   0.633   1.505
34828SOL    HW1 6316  13.350   0.540   1.498
34828SOL    HW2 6317  13.343   0.653   1.597
34829SOL     OW 6318   1.092   0.583  12.106
34829SOL    HW1 6319   1.153   0.534  12.051
34829SOL    HW2 6320   1.074   0.663  12.057
34830SOL     OW 6321  13.430   8.471   0.671
34830SOL    HW1 6322  13.512   8.480   0.623
34830SOL    HW2 6323  13.365   8.454   0.603
34831SOL     OW 6324  10.348  12.816  10.498
34831SOL    HW1 6325  10.305  12.757  10.435
34831SOL    HW2 6326  10.289  12.891  10.504
34832SOL     OW 6327  10.738   7.192  11.775
34832SOL    HW1 6328  10.830   7.214  11.787
34832SOL    HW2 6329  10.738   7.105  11.737
34833SOL     OW 6330   7.177  13.558  12.803
34833SOL    HW1 6331   7.163  13.640  12.851
34833SOL    HW2 6332   7.247  13.577  12.741
34834SOL     OW 6333   4.746   6.580  12.065
34834SOL    HW1 6334   4.711   6.602  11.979
34834SOL    HW2 6335   4.747   6.663  12.112
34835SOL     OW 6336  11.683   6.941   2.104
34835SOL    HW1 6337  11.648   6.907   2.186
34835SOL    HW2 6338  11.646   7.029   2.096
34836SOL     OW 6339  13.362   8.944   1.038
34836SOL    HW1 6340  13.350   8.919   0.947
34836SOL    HW2 6341  13.443   8.901   1.065
34837SOL     OW 6342  12.689   1.500  11.237
34837SOL    HW1 6343  12.728   1.587  11.250
34837SOL    HW2 6344  12.666   1.498  11.144
34838SOL     OW 6345   9.578   0.492   6.442
34838SOL    HW1 6346   9.555   0.399   6.438
34838SOL    HW2 6347   9.501   0.534   6.479
34839SOL     OW 6348   4.601  11.241   5.064
34839SOL    HW1 6349   4.576  11.179   4.995
34839SOL    HW2 6350   4.542  11.223   5.136
34840SOL     OW 6351  13.604  10.596   3.010
34840SOL    HW1 6352  13.595  10.503   2.987
34840SOL    HW2 6353  13.529  10.638   2.968
34841SOL     OW 6354   9.402   5.890   5.457
34841SOL    HW1 6355   9.373   5.969   5.411
34841SOL    HW2 6356   9.490   5.911   5.487
34842SOL     OW 6357   5.556  10.698   5.651
34842SOL    HW1 6358   5.527  10.635   5.584
34842SOL    HW2 6359   5.565  10.781   5.604
34843SOL     OW 6360  11.772   0.720  13.388
34843SOL    HW1 6361  11.828   0.758  13.321
34843SOL    HW2 6362  11.829   0.660  13.436
34844SOL     OW 6363   8.788  12.789   1.090
34844SOL    HW1 6364   8.741  12.858   1.044
34844SOL    HW2 6365   8.870  12.780   1.043
34845SOL     OW 6366  10.263   0.582   3.238
34845SOL    HW1 6367  10.247   0.652   3.175
34845SOL    HW2 6368  10.359   0.576   3.243
34846SOL     OW 6369   3.979   8.981  13.238
34846SOL    HW1 6370   3.957   9.070  13.267
34846SOL    HW2 6371   3.927   8.923  13.293
34847SOL     OW 6372   0.717   4.353   2.657
34847SOL    HW1 6373   0.716   4.296   2.734
34847SOL    HW2 6374   0.655   4.312   2.596
34848SOL     OW 6375   9.324   5.690   0.548
34848SOL    HW1 6376   9.328   5.764   0.487
34848SOL    HW2 6377   9.279   5.621   0.499
34849SOL     OW 6378   9.310   2.230  11.216
34849SOL    HW1 6379   9.311   2.273  11.131
34849SOL    HW2 6380   9.311   2.136  11.196
34850SOL     OW 6381   0.504   4.819  13.883
34850SOL    HW1 6382   0.505   4.915  13.878
34850SOL    HW2 6383   0.595   4.792  13.870
34851SOL     OW 6384   0.691   9.202   0.647
34851SOL    HW1 6385   0.686   9.109   0.624
34851SOL    HW2 6386   0.609   9.239   0.615
34852SOL     OW 6387   6.297   7.446   4.529
34852SOL    HW1 6388   6.344   7.505   4.587
34852SOL    HW2 6389   6.207   7.445   4.563
34853SOL     OW 6390  13.602   0.422  11.010
34853SOL    HW1 6391  13.678   0.469  10.977
34853SOL    HW2 6392  13.602   0.440  11.104
34854SOL     OW 6393   7.819  10.832   5.160
34854SOL    HW1 6394   7.889  10.879   5.206
34854SOL    HW2 6395   7.839  10.739   5.174
34855SOL     OW 6396  12.914   7.708  11.070
34855SOL    HW1 6397  12.835   7.676  11.114
34855SOL    HW2 6398  12.907   7.803  11.074
34856SOL     OW 6399  12.555   6.656   2.134
34856SOL    HW1 6400  12.609   6.694   2.204
34856SOL    HW2 6401  12.465   6.670   2.164
34857SOL     OW 6402   5.824   1.577  11.029
34857SOL    HW1 6403   5.903   1.539  10.989
34857SOL    HW2 6404   5.755   1.515  11.007
34858SOL     OW 6405   5.861   6.046   0.442
34858SOL    HW1 6406   5.773   6.076   0.460
34858SOL    HW2 6407   5.906   6.048   0.527
34859SOL     OW 6408   7.416   1.123   2.018
34859SOL    HW1 6409   7.392   1.155   2.105
34859SOL    HW2 6410   7.473   1.191   1.982
34860SOL     OW 6411   5.321  10.855   2.214
34860SOL    HW1 6412   5.348  10.936   2.258
34860SOL    HW2 6413   5.300  10.882   2.125
34861SOL     OW 6414   6.672  11.851   8.200
34861SOL    HW1 6415   6.661  11.772   8.148
34861SOL    HW2 6416   6.745  11.897   8.157
34862SOL     OW 6417   2.691   7.137   2.936
34862SOL    HW1 6418   2.674   7.157   3.028
34862SOL    HW2 6419   2.720   7.220   2.898
34863SOL     OW 6420  11.689   8.897   1.397
34863SOL    HW1 6421  11.665   8.971   1.340
34863SOL    HW2 6422  11.625   8.901   1.468
34864SOL     OW 6423   6.808  11.792  14.497
34864SOL    HW1 6424   6.797  11.709  14.451
34864SOL    HW2 6425   6.895  11.823  14.470
34865SOL     OW 6426   7.116   0.097   0.069
34865SOL    HW1 6427   7.166   0.148   0.005
34865SOL    HW2 6428   7.032   0.081   0.027
34866SOL     OW 6429   9.830   2.111   5.934
34866SOL    HW1 6430   9.741   2.097   5.966
34866SOL    HW2 6431   9.830   2.077   5.845
34867SOL     OW 6432   1.452   8.188   4.821
34867SOL    HW1 6433   1.456   8.276   4.782
34867SOL    HW2 6434   1.533   8.180   4.871
34868SOL     OW 6435   9.615  10.363  10.517
34868SOL    HW1 6436   9.590  10.396  10.431
34868SOL    HW2 6437   9.709  10.345  10.510
34869SOL     OW 6438   8.123  11.512   5.254
34869SOL    HW1 6439   8.070  11.481   5.327
34869SOL    HW2 6440   8.199  11.453   5.252
34870SOL     OW 6441   3.390  12.276   3.825
34870SOL    HW1 6442   3.310  12.243   3.867
34870SOL    HW2 6443   3.461  12.238   3.877
34871SOL     OW 6444  12.787   8.878   5.710
34871SOL    HW1 6445  12.738   8.807   5.667
34871SOL    HW2 6446  12.801   8.942   5.641
34872SOL     OW 6447   0.739   4.853  11.465
34872SOL    HW1 6448   0.786   4.935  11.455
34872SOL    HW2 6449   0.771   4.798  11.394
34873SOL     OW 6450   7.732   1.167  11.090
34873SOL    HW1 6451   7.664   1.135  11.150
34873SOL    HW2 6452   7.754   1.254  11.123
34874SOL     OW 6453   6.287   3.118  10.288
34874SOL    HW1 6454   6.359   3.181  10.294
34874SOL    HW2 6455   6.331   3.034  10.271
34875SOL     OW 6456   7.758   7.088   8.156
34875SOL    HW1 6457   7.665   7.083   8.177
34875SOL    HW2 6458   7.766   7.167   8.102
34876SOL     OW 6459   4.282  10.969   4.459
34876SOL    HW1 6460   4.229  10.928   4.527
34876SOL    HW2 6461   4.347  11.021   4.507
34877SOL     OW 6462  12.048   0.672   2.489
34877SOL    HW1 6463  11.984   0.710   2.550
34877SOL    HW2 6464  12.132   0.678   2.536
34878SOL     OW 6465  12.971   8.616   6.709
34878SOL    HW1 6466  12.938   8.706   6.706
34878SOL    HW2 6467  13.065   8.624   6.697
34879SOL     OW 6468   8.008   5.431   9.770
34879SOL    HW1 6469   7.924   5.441   9.723
34879SOL    HW2 6470   8.042   5.520   9.778
34880SOL     OW 6471   5.157   1.567   5.901
34880SOL    HW1 6472   5.123   1.540   5.987
34880SOL    HW2 6473   5.226   1.630   5.921
34881SOL     OW 6474   0.964  13.338   5.915
34881SOL    HW1 6475   0.988  13.277   5.985
34881SOL    HW2 6476   1.003  13.301   5.836
34882SOL     OW 6477   7.197   9.031   0.233
34882SOL    HW1 6478   7.148   8.975   0.173
34882SOL    HW2 6479   7.280   8.985   0.245
34883SOL     OW 6480  13.648  13.932   9.308
34883SOL    HW1 6481  13.657  14.027   9.296
34883SOL    HW2 6482  13.692  13.915   9.391
34884SOL     OW 6483  12.764  13.391   0.688
34884SOL    HW1 6484  12.708  13.418   0.615
34884SOL    HW2 6485  12.785  13.300   0.669
34885SOL     OW 6486   6.931   4.601  13.875
34885SOL    HW1 6487   7.006   4.659  13.890
34885SOL    HW2 6488   6.960   4.541  13.807
34886SOL     OW 6489   7.047  11.540   7.645
34886SOL    HW1 6490   6.980  11.608   7.645
34886SOL    HW2 6491   6.998  11.458   7.653
34887SOL     OW 6492   0.133  13.000  13.867
34887SOL    HW1 6493   0.048  12.964  13.890
34887SOL    HW2 6494   0.180  13.006  13.950
34888SOL     OW 6495   1.515   1.822   6.624
34888SOL    HW1 6496   1.421   1.836   6.625
34888SOL    HW2 6497   1.540   1.835   6.532
34889SOL     OW 6498  12.117   6.559   6.238
34889SOL    HW1 6499  12.161   6.572   6.322
34889SOL    HW2 6500  12.142   6.471   6.210
34890SOL     OW 6501   6.850  11.313   6.625
34890SOL    HW1 6502   6.832  11.377   6.694
34890SOL    HW2 6503   6.780  11.325   6.561
34891SOL     OW 6504   4.158   1.824   7.107
34891SOL    HW1 6505   4.244   1.860   7.085
34891SOL    HW2 6506   4.109   1.826   7.025
34892SOL     OW 6507   4.414   9.819   3.559
34892SOL    HW1 6508   4.411   9.844   3.651
34892SOL    HW2 6509   4.425   9.723   3.560
34893SOL     OW 6510   7.999   3.680   3.074
34893SOL    HW1 6511   8.039   3.722   2.998
34893SOL    HW2 6512   8.004   3.587   3.056
34894SOL     OW 6513   8.715   7.421  12.956
34894SOL    HW1 6514   8.776   7.491  12.933
34894SOL    HW2 6515   8.697   7.435  13.049
34895SOL     OW 6516  12.328   8.140   3.831
34895SOL    HW1 6517  12.355   8.208   3.770
34895SOL    HW2 6518  12.318   8.184   3.915
34896SOL     OW 6519   3.890   3.720   7.228
34896SOL    HW1 6520   3.915   3.784   7.161
34896SOL    HW2 6521   3.970   3.670   7.245
34897SOL     OW 6522  14.549   2.180  14.506
34897SOL    HW1 6523  14.556   2.262  14.556
34897SOL    HW2 6524  14.455   2.169  14.492
34898SOL     OW 6525   0.532   6.827   3.352
34898SOL    HW1 6526   0.592   6.755   3.331
34898SOL    HW2 6527   0.539   6.886   3.276
34899SOL     OW 6528   5.173  10.378   3.516
34899SOL    HW1 6529   5.221  10.320   3.577
34899SOL    HW2 6530   5.162  10.325   3.437
34900SOL     OW 6531  14.034  13.205   7.565
34900SOL    HW1 6532  14.057  13.262   7.638
34900SOL    HW2 6533  14.050  13.116   7.598
34901SOL     OW 6534   0.466   1.995   9.850
34901SOL    HW1 6535   0.466   2.090   9.850
34901SOL    HW2 6536   0.559   1.971   9.855
34902SOL     OW 6537   2.153   7.807   2.122
34902SOL    HW1 6538   2.114   7.725   2.154
34902SOL    HW2 6539   2.091   7.838   2.056
34903SOL     OW 6540   1.007   2.053  12.268
34903SOL    HW1 6541   1.023   2.148  12.272
34903SOL    HW2 6542   1.073   2.015  12.326
34904SOL     OW 6543  14.750   2.629   9.320
34904SOL    HW1 6544  14.715   2.539   9.324
34904SOL    HW2 6545  14.715   2.672   9.398
34905SOL     OW 6546   6.644  14.165  11.874
34905SOL    HW1 6547   6.650  14.145  11.781
34905SOL    HW2 6548   6.582  14.237  11.880
34906SOL     OW 6549   2.456   7.981  13.180
34906SOL    HW1 6550   2.487   7.942  13.262
34906SOL    HW2 6551   2.362   7.994  13.193
34907SOL     OW 6552   6.430  11.923   1.865
34907SOL    HW1 6553   6.404  11.980   1.793
34907SOL    HW2 6554   6.489  11.859   1.825
34908SOL     OW 6555   6.011   8.574   1.665
34908SOL    HW1 6556   5.943   8.510   1.682
34908SOL    HW2 6557   5.968   8.642   1.613
34909SOL     OW 6558   2.375   1.294   1.727
34909SOL    HW1 6559   2.297   1.242   1.748
34909SOL    HW2 6560   2.404   1.259   1.643
34910SOL     OW 6561  12.047   9.568   7.156
34910SOL    HW1 6562  11.955   9.574   7.128
34910SOL    HW2 6563  12.079   9.489   7.113
34911SOL     OW 6564   6.291   6.162  10.006
34911SOL    HW1 6565   6.359   6.229  10.008
34911SOL    HW2 6566   6.217   6.201  10.054
34912SOL     OW 6567   5.010   9.304   7.612
34912SOL    HW1 6568   5.001   9.337   7.702
34912SOL    HW2 6569   5.085   9.353   7.576
34913SOL     OW 6570   1.095  10.236   4.165
34913SOL    HW1 6571   1.016  10.195   4.202
34913SOL    HW2 6572   1.165  10.175   4.185
34914SOL     OW 6573   9.111   9.603   1.591
34914SOL    HW1 6574   9.024   9.570   1.611
34914SOL    HW2 6575   9.120   9.595   1.496
34915SOL     OW 6576   8.481   7.071  13.015
34915SOL    HW1 6577   8.521   6.988  13.043
34915SOL    HW2 6578   8.548   7.112  12.960
34916SOL     OW 6579   7.919   4.099   2.929
34916SOL    HW1 6580   7.874   4.169   2.883
34916SOL    HW2 6581   7.896   4.112   3.021
34917SOL     OW 6582  14.593   4.583  13.141
34917SOL    HW1 6583  14.594   4.653  13.076
34917SOL    HW2 6584  14.509   4.591  13.185
34918SOL     OW 6585   6.508   4.703   0.750
34918SOL    HW1 6586   6.585   4.756   0.731
34918SOL    HW2 6587   6.527   4.618   0.712
34919SOL     OW 6588  13.916   5.815   5.890
34919SOL    HW1 6589  13.930   5.734   5.940
34919SOL    HW2 6590  13.990   5.819   5.830
34920SOL     OW 6591   5.828   5.857   1.833
34920SOL    HW1 6592   5.855   5.866   1.925
34920SOL    HW2 6593   5.888   5.914   1.785
34921SOL     OW 6594   2.633  14.430  12.960
34921SOL    HW1 6595   2.543  14.422  12.994
34921SOL    HW2 6596   2.682  14.363  13.008
34922SOL     OW 6597  11.258   7.042  10.903
34922SOL    HW1 6598  11.210   7.116  10.865
34922SOL    HW2 6599  11.212   6.964  10.872
34923SOL     OW 6600  12.867  10.686   9.344
34923SOL    HW1 6601  12.929  10.651   9.408
34923SOL    HW2 6602  12.875  10.781   9.353
34924SOL     OW 6603   4.324   2.241  10.937
34924SOL    HW1 6604   4.356   2.195  11.015
34924SOL    HW2 6605   4.341   2.334  10.956
34925SOL     OW 6606  12.035   0.798  14.869
34925SOL    HW1 6607  12.037   0.866   0.060
34925SOL    HW2 6608  12.107   0.820  14.809
34926SOL     OW 6609   6.811  12.788   5.260
34926SOL    HW1 6610   6.723  12.801   5.225
34926SOL    HW2 6611   6.862  12.861   5.225
34927SOL     OW 6612  14.217   6.966  14.749
34927SOL    HW1 6613  14.233   7.002  14.836
34927SOL    HW2 6614  14.122   6.971  14.737
34928SOL     OW 6615   4.408  13.795   5.216
34928SOL    HW1 6616   4.329  13.743   5.236
34928SOL    HW2 6617   4.425  13.776   5.124
34929SOL     OW 6618   6.722  12.850   5.888
34929SOL    HW1 6619   6.737  12.771   5.940
34929SOL    HW2 6620   6.810  12.878   5.861
34930SOL     OW 6621  12.327   5.607  11.110
34930SOL    HW1 6622  12.281   5.546  11.052
34930SOL    HW2 6623  12.395   5.646  11.055
34931SOL     OW 6624   2.640   7.557   4.940
34931SOL    HW1 6625   2.676   7.545   5.028
34931SOL    HW2 6626   2.690   7.629   4.903
34932SOL     OW 6627   7.467  12.080  10.403
34932SOL    HW1 6628   7.507  12.098  10.488
34932SOL    HW2 6629   7.392  12.140  10.398
34933SOL     OW 6630   4.664   2.997   6.992
34933SOL    HW1 6631   4.692   3.089   6.990
34933SOL    HW2 6632   4.579   2.999   7.036
34934SOL     OW 6633   8.533   9.451   2.036
34934SOL    HW1 6634   8.558   9.432   1.945
34934SOL    HW2 6635   8.475   9.379   2.061
34935SOL     OW 6636   9.171   8.287  12.805
34935SOL    HW1 6637   9.142   8.317  12.890
34935SOL    HW2 6638   9.240   8.349  12.780
34936SOL     OW 6639   2.096   4.764   2.335
34936SOL    HW1 6640   2.167   4.701   2.343
34936SOL    HW2 6641   2.036   4.725   2.271
34937SOL     OW 6642  10.847  14.871  12.498
34937SOL    HW1 6643  10.817   0.005  12.588
34937SOL    HW2 6644  10.786  14.810  12.459
34938SOL     OW 6645  11.457  13.381  10.083
34938SOL    HW1 6646  11.373  13.338  10.096
34938SOL    HW2 6647  11.438  13.474  10.084
34939SOL     OW 6648   7.596   5.624   3.255
34939SOL    HW1 6649   7.574   5.705   3.301
34939SOL    HW2 6650   7.612   5.652   3.165
34940SOL     OW 6651   0.653   8.481  13.994
34940SOL    HW1 6652   0.569   8.526  14.000
34940SOL    HW2 6653   0.635   8.402  13.944
34941SOL     OW 6654   3.780  14.058   9.638
34941SOL    HW1 6655   3.791  14.130   9.700
34941SOL    HW2 6656   3.836  14.081   9.564
34942SOL     OW 6657  12.612  13.632   3.806
34942SOL    HW1 6658  12.638  13.717   3.842
34942SOL    HW2 6659  12.571  13.587   3.879
34943SOL     OW 6660   8.901   9.462  13.316
34943SOL    HW1 6661   8.880   9.430  13.228
34943SOL    HW2 6662   8.819   9.502  13.346
34944SOL     OW 6663  13.165  13.742   3.634
34944SOL    HW1 6664  13.170  13.788   3.718
34944SOL    HW2 6665  13.119  13.661   3.653
34945SOL     OW 6666  11.074  13.662   4.077
34945SOL    HW1 6667  10.999  13.614   4.112
34945SOL    HW2 6668  11.035  13.737   4.031
34946SOL     OW 6669  11.272  14.656   8.465
34946SOL    HW1 6670  11.365  14.632   8.471
34946SOL    HW2 6671  11.229  14.600   8.529
34947SOL     OW 6672   0.351   3.989  13.485
34947SOL    HW1 6673   0.271   4.037  13.506
34947SOL    HW2 6674   0.321   3.901  13.461
34948SOL     OW 6675  12.658   0.175  12.016
34948SOL    HW1 6676  12.665   0.260  12.057
34948SOL    HW2 6677  12.651   0.194  11.922
34949SOL     OW 6678   3.781   8.701   1.764
34949SOL    HW1 6679   3.693   8.711   1.800
34949SOL    HW2 6680   3.815   8.790   1.759
34950SOL     OW 6681  13.973  13.879   5.017
34950SOL    HW1 6682  13.906  13.839   5.072
34950SOL    HW2 6683  13.969  13.832   4.934
34951SOL     OW 6684   1.015  10.947  10.324
34951SOL    HW1 6685   1.109  10.936  10.334
34951SOL    HW2 6686   0.985  10.863  10.288
34952SOL     OW 6687   9.461   5.584   3.082
34952SOL    HW1 6688   9.538   5.575   3.025
34952SOL    HW2 6689   9.394   5.530   3.041
34953SOL     OW 6690   0.193   4.540  14.519
34953SOL    HW1 6691   0.208   4.512  14.609
34953SOL    HW2 6692   0.262   4.497  14.469
34954SOL     OW 6693   1.826  13.610  11.681
34954SOL    HW1 6694   1.759  13.577  11.622
34954SOL    HW2 6695   1.904  13.558  11.661
34955SOL     OW 6696  11.038   2.672   9.174
34955SOL    HW1 6697  10.985   2.594   9.191
34955SOL    HW2 6698  10.977   2.745   9.184
34956SOL     OW 6699   1.466  12.283   2.046
34956SOL    HW1 6700   1.540  12.263   2.103
34956SOL    HW2 6701   1.403  12.212   2.063
34957SOL     OW 6702   9.003   5.309  13.549
34957SOL    HW1 6703   9.041   5.396  13.538
34957SOL    HW2 6704   9.016   5.266  13.464
34958SOL     OW 6705  11.587   2.990   2.151
34958SOL    HW1 6706  11.599   2.914   2.094
34958SOL    HW2 6707  11.665   2.991   2.206
34959SOL     OW 6708   1.993   1.336  11.547
34959SOL    HW1 6709   1.928   1.293  11.492
34959SOL    HW2 6710   1.943   1.382  11.614
34960SOL     OW 6711   3.300  10.525   0.323
34960SOL    HW1 6712   3.256  10.441   0.338
34960SOL    HW2 6713   3.372  10.504   0.264
34961SOL     OW 6714   8.775  13.838   4.467
34961SOL    HW1 6715   8.776  13.836   4.372
34961SOL    HW2 6716   8.770  13.931   4.490
34962SOL     OW 6717  13.350   0.121   4.975
34962SOL    HW1 6718  13.423   0.168   5.016
34962SOL    HW2 6719  13.360   0.138   4.882
34963SOL     OW 6720   7.465  13.877   7.561
34963SOL    HW1 6721   7.547  13.867   7.608
34963SOL    HW2 6722   7.482  13.946   7.498
34964SOL     OW 6723   6.384  12.659   9.049
34964SOL    HW1 6724   6.333  12.585   9.080
34964SOL    HW2 6725   6.382  12.651   8.953
34965SOL     OW 6726   7.371   5.694   0.893
34965SOL    HW1 6727   7.280   5.669   0.878
34965SOL    HW2 6728   7.405   5.626   0.951
34966SOL     OW 6729  14.157   8.681  14.648
34966SOL    HW1 6730  14.120   8.742  14.712
34966SOL    HW2 6731  14.219   8.733  14.597
34967SOL     OW 6732   1.699   2.825   0.815
34967SOL    HW1 6733   1.676   2.867   0.732
34967SOL    HW2 6734   1.758   2.888   0.858
34968SOL     OW 6735   5.180  11.525   2.599
34968SOL    HW1 6736   5.222  11.610   2.590
34968SOL    HW2 6737   5.098  11.543   2.645
34969SOL     OW 6738  14.097   5.471  12.839
34969SOL    HW1 6739  14.167   5.456  12.904
34969SOL    HW2 6740  14.128   5.426  12.760
34970SOL     OW 6741   7.240   3.850   9.173
34970SOL    HW1 6742   7.252   3.944   9.191
34970SOL    HW2 6743   7.304   3.831   9.105
34971SOL     OW 6744   7.518   0.998   8.943
34971SOL    HW1 6745   7.563   1.079   8.964
34971SOL    HW2 6746   7.425   1.019   8.955
34972SOL     OW 6747   2.034   8.644   4.448
34972SOL    HW1 6748   1.964   8.699   4.413
34972SOL    HW2 6749   2.112   8.699   4.443
34973SOL     OW 6750   4.137   7.591   6.827
34973SOL    HW1 6751   4.091   7.584   6.744
34973SOL    HW2 6752   4.068   7.609   6.891
34974SOL     OW 6753   2.047   4.997  14.720
34974SOL    HW1 6754   2.029   5.076  14.669
34974SOL    HW2 6755   1.997   5.008  14.801
34975SOL     OW 6756   8.436   0.426   8.178
34975SOL    HW1 6757   8.428   0.368   8.254
34975SOL    HW2 6758   8.530   0.431   8.161
34976SOL     OW 6759  12.982   6.011   3.617
34976SOL    HW1 6760  12.986   6.101   3.648
34976SOL    HW2 6761  12.934   6.017   3.534
34977SOL     OW 6762   0.093   0.744   4.788
34977SOL    HW1 6763   0.026   0.682   4.759
34977SOL    HW2 6764   0.176   0.705   4.762
34978SOL     OW 6765   3.541   3.435   7.242
34978SOL    HW1 6766   3.466   3.484   7.278
34978SOL    HW2 6767   3.583   3.395   7.318
34979SOL     OW 6768  10.698   7.459   2.652
34979SOL    HW1 6769  10.663   7.543   2.681
34979SOL    HW2 6770  10.779   7.448   2.702
34980SOL     OW 6771   6.693   6.296   1.423
34980SOL    HW1 6772   6.725   6.209   1.400
34980SOL    HW2 6773   6.772   6.349   1.435
34981SOL     OW 6774   3.256   0.291   1.036
34981SOL    HW1 6775   3.279   0.252   1.120
34981SOL    HW2 6776   3.186   0.353   1.057
34982SOL     OW 6777  13.204   9.233   1.903
34982SOL    HW1 6778  13.252   9.315   1.909
34982SOL    HW2 6779  13.218   9.204   1.812
34983SOL     OW 6780   8.989   0.587   7.656
34983SOL    HW1 6781   9.001   0.553   7.568
34983SOL    HW2 6782   8.947   0.516   7.704
34984SOL     OW 6783   8.593   8.803   6.867
34984SOL    HW1 6784   8.613   8.797   6.774
34984SOL    HW2 6785   8.499   8.784   6.873
34985SOL     OW 6786   3.264  11.141   5.350
34985SOL    HW1 6787   3.280  11.081   5.277
34985SOL    HW2 6788   3.345  11.190   5.359
34986SOL     OW 6789   7.809  13.806  12.502
34986SOL    HW1 6790   7.738  13.788  12.440
34986SOL    HW2 6791   7.888  13.773  12.460
34987SOL     OW 6792  14.684  10.982   2.234
34987SOL    HW1 6793  14.722  10.896   2.251
34987SOL    HW2 6794  14.591  10.972   2.257
34988SOL     OW 6795   5.553   3.521  14.433
34988SOL    HW1 6796   5.572   3.450  14.494
34988SOL    HW2 6797   5.496   3.581  14.481
34989SOL     OW 6798   5.337   0.957   3.538
34989SOL    HW1 6799   5.273   0.890   3.515
34989SOL    HW2 6800   5.351   0.946   3.632
34990SOL     OW 6801   8.136   0.688  14.455
34990SOL    HW1 6802   8.120   0.632  14.380
34990SOL    HW2 6803   8.088   0.769  14.436
34991SOL     OW 6804   8.290   6.326  11.912
34991SOL    HW1 6805   8.237   6.366  11.981
34991SOL    HW2 6806   8.340   6.257  11.957
34992SOL     OW 6807  14.322   8.717  13.922
34992SOL    HW1 6808  14.246   8.677  13.965
34992SOL    HW2 6809  14.321   8.681  13.833
34993SOL     OW 6810   8.476   5.171   8.240
34993SOL    HW1 6811   8.470   5.088   8.194
34993SOL    HW2 6812   8.487   5.236   8.171
34994SOL     OW 6813   2.265   7.643   3.753
34994SOL    HW1 6814   2.244   7.552   3.773
34994SOL    HW2 6815   2.275   7.645   3.657
34995SOL     OW 6816  12.366  10.900  13.068
34995SOL    HW1 6817  12.352  10.810  13.039
34995SOL    HW2 6818  12.312  10.953  13.010
34996SOL     OW 6819   0.180  11.827  12.820
34996SOL    HW1 6820   0.214  11.827  12.909
34996SOL    HW2 6821   0.111  11.762  12.821
34997SOL     OW 6822   7.468  11.408   5.228
34997SOL    HW1 6823   7.557  11.376   5.211
34997SOL    HW2 6824   7.475  11.503   5.222
34998SOL     OW 6825  12.945  11.788   6.392
34998SOL    HW1 6826  13.005  11.863   6.401
34998SOL    HW2 6827  12.896  11.806   6.312
34999SOL     OW 6828  12.155   3.402  13.466
34999SOL    HW1 6829  12.098   3.386  13.390
34999SOL    HW2 6830  12.113   3.355  13.538
35000SOL     OW 6831  12.080  10.406   5.303
35000SOL    HW1 6832  12.057  10.466   5.374
35000SOL    HW2 6833  12.025  10.329   5.317
35001SOL     OW 6834   9.796   9.764   9.223
35001SOL    HW1 6835   9.845   9.683   9.206
35001SOL    HW2 6836   9.788   9.767   9.318
35002SOL     OW 6837   8.298   4.243   9.329
35002SOL    HW1 6838   8.340   4.323   9.360
35002SOL    HW2 6839   8.238   4.219   9.400
35003SOL     OW 6840  14.436   0.475  12.276
35003SOL    HW1 6841  14.384   0.417  12.332
35003SOL    HW2 6842  14.422   0.442  12.187
35004SOL     OW 6843   9.842   3.222  10.975
35004SOL    HW1 6844   9.911   3.285  10.954
35004SOL    HW2 6845   9.763   3.276  10.986
35005SOL     OW 6846   2.192   7.880   2.995
35005SOL    HW1 6847   2.272   7.828   2.995
35005SOL    HW2 6848   2.206   7.947   2.928
35006SOL     OW 6849   5.240   8.346  14.351
35006SOL    HW1 6850   5.281   8.392  14.278
35006SOL    HW2 6851   5.146   8.349  14.331
35007SOL     OW 6852   0.781  11.741   4.331
35007SOL    HW1 6853   0.719  11.806   4.364
35007SOL    HW2 6854   0.737  11.657   4.344
35008SOL     OW 6855  12.238   3.188   8.663
35008SOL    HW1 6856  12.168   3.216   8.723
35008SOL    HW2 6857  12.304   3.257   8.670
35009SOL     OW 6858   7.264  10.887   8.093
35009SOL    HW1 6859   7.275  10.948   8.166
35009SOL    HW2 6860   7.175  10.904   8.061
35010SOL     OW 6861  10.383   8.562   9.450
35010SOL    HW1 6862  10.388   8.500   9.523
35010SOL    HW2 6863  10.290   8.574   9.435
35011SOL     OW 6864  12.625   3.142  10.336
35011SOL    HW1 6865  12.582   3.059  10.317
35011SOL    HW2 6866  12.567   3.186  10.399
35012SOL     OW 6867   8.840   7.191  11.659
35012SOL    HW1 6868   8.887   7.259  11.708
35012SOL    HW2 6869   8.908   7.128  11.634
35013SOL     OW 6870  12.145   1.353  13.843
35013SOL    HW1 6871  12.167   1.407  13.919
35013SOL    HW2 6872  12.050   1.358  13.836
35014SOL     OW 6873   6.595  13.862  14.753
35014SOL    HW1 6874   6.660  13.890  14.688
35014SOL    HW2 6875   6.563  13.778  14.720
35015SOL     OW 6876   5.260   2.106   3.285
35015SOL    HW1 6877   5.258   2.151   3.200
35015SOL    HW2 6878   5.199   2.033   3.274
35016SOL     OW 6879   0.085   2.031  10.393
35016SOL    HW1 6880   0.055   1.944  10.421
35016SOL    HW2 6881   0.136   2.015  10.313
35017SOL     OW 6882  12.761   4.584   7.002
35017SOL    HW1 6883  12.760   4.528   6.924
35017SOL    HW2 6884  12.728   4.669   6.971
35018SOL     OW 6885   2.500  13.772   9.284
35018SOL    HW1 6886   2.590  13.772   9.252
35018SOL    HW2 6887   2.452  13.719   9.221
35019SOL     OW 6888   4.075   3.778  10.602
35019SOL    HW1 6889   4.112   3.696  10.569
35019SOL    HW2 6890   4.069   3.834  10.525
35020SOL     OW 6891  13.137   0.489   8.475
35020SOL    HW1 6892  13.049   0.516   8.451
35020SOL    HW2 6893  13.124   0.429   8.549
35021SOL     OW 6894  11.755  10.530  10.025
35021SOL    HW1 6895  11.795  10.451   9.989
35021SOL    HW2 6896  11.718  10.575   9.950
35022SOL     OW 6897   0.900   7.155  14.297
35022SOL    HW1 6898   0.915   7.226  14.235
35022SOL    HW2 6899   0.813   7.172  14.333
35023SOL     OW 6900   9.882   9.002   6.338
35023SOL    HW1 6901   9.974   9.031   6.340
35023SOL    HW2 6902   9.843   9.055   6.268
35024SOL     OW 6903   8.857   8.736   4.304
35024SOL    HW1 6904   8.887   8.821   4.272
35024SOL    HW2 6905   8.804   8.700   4.233
35025SOL     OW 6906   4.691   8.878   3.608
35025SOL    HW1 6907   4.637   8.815   3.656
35025SOL    HW2 6908   4.775   8.877   3.653
35026SOL     OW 6909   4.525   8.577   8.641
35026SOL    HW1 6910   4.502   8.588   8.549
35026SOL    HW2 6911   4.594   8.511   8.641
35027SOL     OW 6912   5.279   6.072  13.272
35027SOL    HW1 6913   5.266   6.033  13.358
35027SOL    HW2 6914   5.202   6.127  13.258
35028SOL     OW 6915   9.839   4.444   1.152
35028SOL    HW1 6916   9.788   4.524   1.136
35028SOL    HW2 6917   9.890   4.431   1.072
35029SOL     OW 6918  11.024  14.268  11.225
35029SOL    HW1 6919  10.945  14.249  11.175
35029SOL    HW2 6920  10.998  14.337  11.286
35030SOL     OW 6921  12.819   6.473   3.715
35030SOL    HW1 6922  12.818   6.566   3.738
35030SOL    HW2 6923  12.728   6.451   3.698
35031SOL     OW 6924   2.540   6.634   8.060
35031SOL    HW1 6925   2.591   6.708   8.092
35031SOL    HW2 6926   2.534   6.575   8.135
35032SOL     OW 6927  13.970   7.279   4.166
35032SOL    HW1 6928  13.909   7.353   4.170
35032SOL    HW2 6929  14.036   7.299   4.233
35033SOL     OW 6930   9.303   2.086  12.016
35033SOL    HW1 6931   9.270   2.081  12.106
35033SOL    HW2 6932   9.241   2.143  11.971
35034SOL     OW 6933   6.740   5.623  14.425
35034SOL    HW1 6934   6.791   5.703  14.436
35034SOL    HW2 6935   6.769   5.566  14.496
35035SOL     OW 6936   7.510  10.459   2.487
35035SOL    HW1 6937   7.499  10.365   2.502
35035SOL    HW2 6938   7.543  10.465   2.398
35036SOL     OW 6939   2.410  12.047   5.912
35036SOL    HW1 6940   2.421  11.956   5.885
35036SOL    HW2 6941   2.420  12.045   6.007
35037SOL     OW 6942   5.556  11.849   9.160
35037SOL    HW1 6943   5.575  11.768   9.207
35037SOL    HW2 6944   5.515  11.905   9.226
35038SOL     OW 6945   7.741   9.068   7.549
35038SOL    HW1 6946   7.659   9.019   7.538
35038SOL    HW2 6947   7.759   9.063   7.643
35039SOL     OW 6948   0.438   9.202  13.004
35039SOL    HW1 6949   0.426   9.107  13.007
35039SOL    HW2 6950   0.450   9.227  13.096
35040SOL     OW 6951   5.262   7.121   0.449
35040SOL    HW1 6952   5.197   7.179   0.410
35040SOL    HW2 6953   5.222   7.034   0.445
35041SOL     OW 6954   6.369   0.099   4.729
35041SOL    HW1 6955   6.424   0.086   4.806
35041SOL    HW2 6956   6.369   0.193   4.715
35042SOL     OW 6957  10.266   4.317   8.461
35042SOL    HW1 6958  10.174   4.337   8.448
35042SOL    HW2 6959  10.312   4.384   8.410
35043SOL     OW 6960   7.273  12.679  12.071
35043SOL    HW1 6961   7.197  12.629  12.040
35043SOL    HW2 6962   7.253  12.697  12.163
35044SOL     OW 6963   5.723   1.348   2.050
35044SOL    HW1 6964   5.689   1.417   2.107
35044SOL    HW2 6965   5.818   1.355   2.059
35045SOL     OW 6966  12.095  13.634   2.737
35045SOL    HW1 6967  12.054  13.661   2.655
35045SOL    HW2 6968  12.122  13.544   2.722
35046SOL     OW 6969   9.898   2.835   9.795
35046SOL    HW1 6970   9.821   2.798   9.751
35046SOL    HW2 6971   9.972   2.798   9.747
35047SOL     OW 6972   2.091   8.394  10.653
35047SOL    HW1 6973   2.159   8.390  10.586
35047SOL    HW2 6974   2.137   8.417  10.734
35048SOL     OW 6975  14.752   5.666  14.785
35048SOL    HW1 6976  14.707   5.595  14.739
35048SOL    HW2 6977  14.746   5.740  14.725
35049SOL     OW 6978   4.773   4.489   6.069
35049SOL    HW1 6979   4.844   4.550   6.050
35049SOL    HW2 6980   4.694   4.533   6.036
35050SOL     OW 6981  10.257   2.742  11.270
35050SOL    HW1 6982  10.254   2.664  11.215
35050SOL    HW2 6983  10.221   2.812  11.215
35051SOL     OW 6984   8.485   1.268  13.540
35051SOL    HW1 6985   8.418   1.314  13.490
35051SOL    HW2 6986   8.559   1.329  13.542
35052SOL     OW 6987   3.367   4.535   7.305
35052SOL    HW1 6988   3.455   4.574   7.311
35052SOL    HW2 6989   3.383   4.441   7.296
35053SOL     OW 6990   1.998  13.675   0.397
35053SOL    HW1 6991   2.022  13.583   0.408
35053SOL    HW2 6992   1.975  13.704   0.486
35054SOL     OW 6993   1.983   3.478   2.167
35054SOL    HW1 6994   2.072   3.460   2.139
35054SOL    HW2 6995   1.959   3.558   2.121
35055SOL     OW 6996   7.104   7.160   3.224
35055SOL    HW1 6997   7.137   7.247   3.249
35055SOL    HW2 6998   7.162   7.099   3.270
35056SOL     OW 6999   0.937  14.786  10.632
35056SOL    HW1 7000   0.954  14.725  10.704
35056SOL    HW2 7001   0.850  14.762  10.600
35057SOL     OW 7002   8.049   1.038   4.289
35057SOL    HW1 7003   8.048   1.048   4.194
35057SOL    HW2 7004   7.980   1.096   4.320
35058SOL     OW 7005   1.547   5.144  10.167
35058SOL    HW1 7006   1.555   5.052  10.194
35058SOL    HW2 7007   1.627   5.162  10.119
35059SOL     OW 7008  13.233   5.643  12.468
35059SOL    HW1 7009  13.290   5.716  12.493
35059SOL    HW2 7010  13.274   5.566  12.507
35060SOL     OW 7011   8.585   9.245   7.714
35060SOL    HW1 7012   8.518   9.314   7.718
35060SOL    HW2 7013   8.537   9.164   7.699
35061SOL     OW 7014   2.025   4.129   8.840
35061SOL    HW1 7015   1.962   4.078   8.889
35061SOL    HW2 7016   2.002   4.113   8.748
35062SOL     OW 7017   8.333  12.302   7.679
35062SOL    HW1 7018   8.259  12.330   7.625
35062SOL    HW2 7019   8.381  12.241   7.623
35063SOL     OW 7020   1.305  14.083   4.034
35063SOL    HW1 7021   1.286  14.166   4.078
35063SOL    HW2 7022   1.264  14.016   4.090
35064SOL     OW 7023   3.492   2.461   4.825
35064SOL    HW1 7024   3.493   2.556   4.815
35064SOL    HW2 7025   3.522   2.445   4.915
35065SOL     OW 7026   1.811  14.124   3.515
35065SOL    HW1 7027   1.735  14.155   3.563
35065SOL    HW2 7028   1.813  14.178   3.436
35066SOL     OW 7029  13.417   8.402   7.993
35066SOL    HW1 7030  13.414   8.366   8.081
35066SOL    HW2 7031  13.510   8.399   7.969
35067SOL     OW 7032  12.916   4.715   1.478
35067SOL    HW1 7033  12.824   4.729   1.499
35067SOL    HW2 7034  12.928   4.620   1.485
35068SOL     OW 7035   2.222   3.962   3.826
35068SOL    HW1 7036   2.200   4.046   3.786
35068SOL    HW2 7037   2.275   3.918   3.760
35069SOL     OW 7038   9.205   3.947  10.118
35069SOL    HW1 7039   9.201   3.866  10.067
35069SOL    HW2 7040   9.134   4.001  10.083
35070SOL     OW 7041   5.316   3.232   2.507
35070SOL    HW1 7042   5.290   3.140   2.501
35070SOL    HW2 7043   5.412   3.230   2.501
35071SOL     OW 7044  12.189  13.308  11.445
35071SOL    HW1 7045  12.201  13.402  11.432
35071SOL    HW2 7046  12.260  13.283  11.504
35072SOL     OW 7047   5.520   5.026   5.997
35072SOL    HW1 7048   5.485   4.956   6.052
35072SOL    HW2 7049   5.594   4.987   5.952
35073SOL     OW 7050   7.258  11.086   0.704
35073SOL    HW1 7051   7.177  11.036   0.697
35073SOL    HW2 7052   7.307  11.044   0.775
35074SOL     OW 7053  12.822   6.831  10.170
35074SOL    HW1 7054  12.819   6.824  10.266
35074SOL    HW2 7055  12.739   6.795  10.141
35075SOL     OW 7056  11.346   7.178   5.435
35075SOL    HW1 7057  11.439   7.161   5.416
35075SOL    HW2 7058  11.338   7.273   5.433
35076SOL     OW 7059   8.439   5.488  14.347
35076SOL    HW1 7060   8.368   5.438  14.308
35076SOL    HW2 7061   8.398   5.534  14.421
35077SOL     OW 7062   4.752   9.448   0.444
35077SOL    HW1 7063   4.782   9.454   0.353
35077SOL    HW2 7064   4.827   9.480   0.495
35078SOL     OW 7065  13.320   6.727   2.854
35078SOL    HW1 7066  13.368   6.694   2.930
35078SOL    HW2 7067  13.238   6.759   2.890
35079SOL     OW 7068   7.641  13.686  10.607
35079SOL    HW1 7069   7.733  13.679  10.580
35079SOL    HW2 7070   7.596  13.720  10.530
35080SOL     OW 7071  11.660   9.037   4.698
35080SOL    HW1 7072  11.574   9.072   4.674
35080SOL    HW2 7073  11.720   9.109   4.683
35081SOL     OW 7074  10.020   1.547   2.045
35081SOL    HW1 7075   9.970   1.628   2.032
35081SOL    HW2 7076   9.954   1.478   2.043
35082SOL     OW 7077  11.525   9.563   5.406
35082SOL    HW1 7078  11.546   9.515   5.486
35082SOL    HW2 7079  11.483   9.498   5.349
35083SOL     OW 7080  11.660  13.233   1.881
35083SOL    HW1 7081  11.566  13.244   1.866
35083SOL    HW2 7082  11.665  13.187   1.965
35084SOL     OW 7083  13.234  12.082   0.151
35084SOL    HW1 7084  13.221  12.174   0.175
35084SOL    HW2 7085  13.178  12.033   0.210
35085SOL     OW 7086   0.598   2.536  11.360
35085SOL    HW1 7087   0.637   2.620  11.337
35085SOL    HW2 7088   0.546   2.511  11.283
35086SOL     OW 7089  14.522  10.980   7.407
35086SOL    HW1 7090  14.498  11.069   7.431
35086SOL    HW2 7091  14.597  10.990   7.348
35087SOL     OW 7092   2.927   4.012  13.403
35087SOL    HW1 7093   2.938   4.093  13.452
35087SOL    HW2 7094   2.931   4.040  13.311
35088SOL     OW 7095   6.362   1.469   8.267
35088SOL    HW1 7096   6.346   1.554   8.310
35088SOL    HW2 7097   6.432   1.487   8.205
35089SOL     OW 7098   1.367   2.635  14.226
35089SOL    HW1 7099   1.312   2.578  14.280
35089SOL    HW2 7100   1.444   2.582  14.205
35090SOL     OW 7101  12.328   8.126   3.165
35090SOL    HW1 7102  12.291   8.136   3.078
35090SOL    HW2 7103  12.270   8.063   3.209
35091SOL     OW 7104   1.381  12.650   4.274
35091SOL    HW1 7105   1.409  12.561   4.296
35091SOL    HW2 7106   1.407  12.662   4.183
35092SOL     OW 7107   3.997   3.816   7.925
35092SOL    HW1 7108   3.936   3.888   7.909
35092SOL    HW2 7109   3.986   3.757   7.851
35093SOL     OW 7110  13.522   4.541   6.280
35093SOL    HW1 7111  13.553   4.557   6.369
35093SOL    HW2 7112  13.428   4.531   6.288
35094SOL     OW 7113  11.913  13.500   3.476
35094SOL    HW1 7114  11.889  13.571   3.416
35094SOL    HW2 7115  11.840  13.438   3.470
35095SOL     OW 7116   8.007   6.692  13.204
35095SOL    HW1 7117   8.085   6.653  13.164
35095SOL    HW2 7118   7.945   6.619  13.211
35096SOL     OW 7119   0.892   0.512  13.552
35096SOL    HW1 7120   0.902   0.418  13.541
35096SOL    HW2 7121   0.909   0.527  13.645
35097SOL     OW 7122   8.725   2.889   1.615
35097SOL    HW1 7123   8.755   2.980   1.615
35097SOL    HW2 7124   8.638   2.893   1.575
35098SOL     OW 7125  12.609  11.812   5.860
35098SOL    HW1 7126  12.520  11.810   5.824
35098SOL    HW2 7127  12.639  11.721   5.854
35099SOL     OW 7128   9.598   9.666   0.683
35099SOL    HW1 7129   9.506   9.643   0.668
35099SOL    HW2 7130   9.616   9.734   0.617
35100SOL     OW 7131  10.700   7.453   3.859
35100SOL    HW1 7132  10.696   7.398   3.937
35100SOL    HW2 7133  10.779   7.507   3.872
35101SOL     OW 7134  14.817   3.963  11.086
35101SOL    HW1 7135  14.862   3.895  11.136
35101SOL    HW2 7136  14.734   3.922  11.060
35102SOL     OW 7137   3.318   9.929   8.414
35102SOL    HW1 7138   3.319   9.885   8.498
35102SOL    HW2 7139   3.408   9.960   8.402
35103SOL     OW 7140  12.867  12.729  12.606
35103SOL    HW1 7141  12.820  12.802  12.567
35103SOL    HW2 7142  12.859  12.659  12.541
35104SOL     OW 7143   6.985   5.176  12.126
35104SOL    HW1 7144   7.039   5.166  12.204
35104SOL    HW2 7145   7.001   5.266  12.098
35105SOL     OW 7146   7.534   1.301   4.881
35105SOL    HW1 7147   7.570   1.323   4.967
35105SOL    HW2 7148   7.455   1.354   4.874
35106SOL     OW 7149   8.873  11.926   7.695
35106SOL    HW1 7150   8.954  11.968   7.726
35106SOL    HW2 7151   8.874  11.939   7.600
35107SOL     OW 7152  14.699  12.216   2.948
35107SOL    HW1 7153  14.641  12.183   2.879
35107SOL    HW2 7154  14.751  12.140   2.974
35108SOL     OW 7155   3.032   2.392  10.044
35108SOL    HW1 7156   3.010   2.408  10.136
35108SOL    HW2 7157   3.058   2.300  10.041
35109SOL     OW 7158   4.440   8.551   8.381
35109SOL    HW1 7159   4.382   8.476   8.393
35109SOL    HW2 7160   4.467   8.546   8.289
35110SOL     OW 7161   2.503  11.781  13.903
35110SOL    HW1 7162   2.567  11.852  13.910
35110SOL    HW2 7163   2.528  11.736  13.822
35111SOL     OW 7164  11.120  10.911   7.009
35111SOL    HW1 7165  11.097  10.911   6.916
35111SOL    HW2 7166  11.093  10.825   7.040
35112SOL     OW 7167   6.452   4.354   5.883
35112SOL    HW1 7168   6.366   4.397   5.884
35112SOL    HW2 7169   6.493   4.383   5.965
35113SOL     OW 7170   9.247   1.413   7.794
35113SOL    HW1 7171   9.299   1.455   7.726
35113SOL    HW2 7172   9.313   1.375   7.853
35114SOL     OW 7173  10.110   0.429   0.030
35114SOL    HW1 7174  10.038   0.450   0.089
35114SOL    HW2 7175  10.112   0.333   0.028
35115SOL     OW 7176   5.683   0.691  11.652
35115SOL    HW1 7177   5.708   0.700  11.745
35115SOL    HW2 7178   5.738   0.619  11.620
35116SOL     OW 7179   5.488   7.060   3.230
35116SOL    HW1 7180   5.444   7.130   3.279
35116SOL    HW2 7181   5.440   6.981   3.254
35117SOL     OW 7182   7.461   0.586  14.840
35117SOL    HW1 7183   7.434   0.601   0.055
35117SOL    HW2 7184   7.381   0.559  14.796
35118SOL     OW 7185   5.376   5.938  14.094
35118SOL    HW1 7186   5.343   5.905  14.010
35118SOL    HW2 7187   5.341   5.877  14.159
35119SOL     OW 7188  13.063   7.860  12.038
35119SOL    HW1 7189  13.035   7.949  12.061
35119SOL    HW2 7190  13.000   7.803  12.081
35120SOL     OW 7191  12.820   0.854   0.314
35120SOL    HW1 7192  12.735   0.810   0.319
35120SOL    HW2 7193  12.798   0.947   0.324
35121SOL     OW 7194  10.357  14.267   1.672
35121SOL    HW1 7195  10.272  14.299   1.701
35121SOL    HW2 7196  10.361  14.290   1.579
35122SOL     OW 7197   1.233  12.622   6.657
35122SOL    HW1 7198   1.278  12.538   6.646
35122SOL    HW2 7199   1.253  12.647   6.748
35123SOL     OW 7200  12.347   0.469  12.260
35123SOL    HW1 7201  12.438   0.460  12.288
35123SOL    HW2 7202  12.334   0.399  12.196
35124SOL     OW 7203  10.251   3.333   6.667
35124SOL    HW1 7204  10.197   3.278   6.609
35124SOL    HW2 7205  10.327   3.356   6.615
35125SOL     OW 7206  12.150   1.745   3.874
35125SOL    HW1 7207  12.061   1.725   3.846
35125SOL    HW2 7208  12.159   1.840   3.860
35126SOL     OW 7209  13.728  13.372  14.576
35126SOL    HW1 7210  13.756  13.461  14.555
35126SOL    HW2 7211  13.633  13.379  14.589
35127SOL     OW 7212   9.929   7.492   3.148
35127SOL    HW1 7213   9.859   7.462   3.091
35127SOL    HW2 7214   9.930   7.428   3.220
35128SOL     OW 7215  11.633   8.430   6.602
35128SOL    HW1 7216  11.560   8.469   6.553
35128SOL    HW2 7217  11.605   8.340   6.619
35129SOL     OW 7218   7.986   8.448  14.851
35129SOL    HW1 7219   7.912   8.438   0.035
35129SOL    HW2 7220   7.967   8.528  14.802
35130SOL     OW 7221   6.659  10.887   1.543
35130SOL    HW1 7222   6.618  10.922   1.464
35130SOL    HW2 7223   6.586  10.860   1.599
35131SOL     OW 7224   6.622   0.239   1.840
35131SOL    HW1 7225   6.551   0.242   1.776
35131SOL    HW2 7226   6.683   0.307   1.812
35132SOL     OW 7227   0.296  13.340  14.648
35132SOL    HW1 7228   0.249  13.316  14.728
35132SOL    HW2 7229   0.310  13.434  14.656
35133SOL     OW 7230   4.800   4.990  10.273
35133SOL    HW1 7231   4.775   4.936  10.199
35133SOL    HW2 7232   4.717   5.018  10.311
35134SOL     OW 7233   8.887   3.958  13.551
35134SOL    HW1 7234   8.899   3.911  13.468
35134SOL    HW2 7235   8.969   3.945  13.598
35135SOL     OW 7236  10.603   7.098   7.596
35135SOL    HW1 7237  10.690   7.097   7.637
35135SOL    HW2 7238  10.572   7.188   7.610
35136SOL     OW 7239   1.288  12.881   1.951
35136SOL    HW1 7240   1.291  12.798   1.903
35136SOL    HW2 7241   1.352  12.936   1.906
35137SOL     OW 7242   2.154  11.835   7.687
35137SOL    HW1 7243   2.237  11.807   7.725
35137SOL    HW2 7244   2.129  11.912   7.738
35138SOL     OW 7245  11.044   0.519   0.287
35138SOL    HW1 7246  11.035   0.437   0.238
35138SOL    HW2 7247  11.138   0.532   0.297
35139SOL     OW 7248   6.805   6.529   1.949
35139SOL    HW1 7249   6.806   6.601   1.886
35139SOL    HW2 7250   6.765   6.567   2.028
35140SOL     OW 7251   0.829  10.687   1.119
35140SOL    HW1 7252   0.805  10.775   1.149
35140SOL    HW2 7253   0.754  10.658   1.067
35141SOL     OW 7254  12.384   9.230   0.619
35141SOL    HW1 7255  12.377   9.153   0.563
35141SOL    HW2 7256  12.327   9.210   0.694
35142SOL     OW 7257  14.856   8.906   6.054
35142SOL    HW1 7258   0.059   8.943   6.096
35142SOL    HW2 7259   0.013   8.868   5.973
35143SOL     OW 7260   7.588  13.615   0.219
35143SOL    HW1 7261   7.638  13.624   0.138
35143SOL    HW2 7262   7.554  13.525   0.216
35144SOL     OW 7263   8.919   0.262   2.241
35144SOL    HW1 7264   8.965   0.214   2.309
35144SOL    HW2 7265   8.951   0.226   2.159
35145SOL     OW 7266   4.541   6.268   0.216
35145SOL    HW1 7267   4.473   6.241   0.154
35145SOL    HW2 7268   4.622   6.266   0.165
35146SOL     OW 7269   6.883   3.692   4.089
35146SOL    HW1 7270   6.884   3.752   4.015
35146SOL    HW2 7271   6.960   3.636   4.076
35147SOL     OW 7272   1.108  11.994  10.315
35147SOL    HW1 7273   1.067  11.919  10.271
35147SOL    HW2 7274   1.049  12.067  10.300
35148SOL     OW 7275  11.405  11.576   2.634
35148SOL    HW1 7276  11.459  11.604   2.707
35148SOL    HW2 7277  11.461  11.585   2.557
35149SOL     OW 7278   3.646   5.522   8.096
35149SOL    HW1 7279   3.685   5.561   8.174
35149SOL    HW2 7280   3.589   5.591   8.061
35150SOL     OW 7281   4.607  11.704   0.330
35150SOL    HW1 7282   4.673  11.676   0.266
35150SOL    HW2 7283   4.651  11.773   0.380
35151SOL     OW 7284  12.901   8.852  13.148
35151SOL    HW1 7285  12.914   8.880  13.239
35151SOL    HW2 7286  12.808   8.865  13.132
35152SOL     OW 7287  12.882  14.244   8.908
35152SOL    HW1 7288  12.974  14.221   8.920
35152SOL    HW2 7289  12.836  14.160   8.913
35153SOL     OW 7290   8.682  11.223  13.607
35153SOL    HW1 7291   8.656  11.149  13.552
35153SOL    HW2 7292   8.663  11.194  13.697
35154SOL     OW 7293   9.434  13.605   9.271
35154SOL    HW1 7294   9.420  13.655   9.190
35154SOL    HW2 7295   9.428  13.671   9.340
35155SOL     OW 7296  14.262   6.965   3.778
35155SOL    HW1 7297  14.205   6.913   3.722
35155SOL    HW2 7298  14.210   6.982   3.857
35156SOL     OW 7299   3.323  14.539  14.037
35156SOL    HW1 7300   3.233  14.534  14.068
35156SOL    HW2 7301   3.364  14.604  14.094
35157SOL     OW 7302   3.248   3.012   0.503
35157SOL    HW1 7303   3.284   3.095   0.535
35157SOL    HW2 7304   3.295   2.995   0.421
35158SOL     OW 7305   0.755   4.889  12.445
35158SOL    HW1 7306   0.772   4.796  12.460
35158SOL    HW2 7307   0.732   4.895  12.352
35159SOL     OW 7308   7.277   3.654   5.493
35159SOL    HW1 7309   7.278   3.669   5.398
35159SOL    HW2 7310   7.267   3.742   5.530
35160SOL     OW 7311   9.255  10.264   5.574
35160SOL    HW1 7312   9.200  10.329   5.529
35160SOL    HW2 7313   9.344  10.285   5.545
35161SOL     OW 7314  14.453  11.492   4.659
35161SOL    HW1 7315  14.453  11.471   4.566
35161SOL    HW2 7316  14.363  11.521   4.677
35162SOL     OW 7317   4.355   7.638   2.318
35162SOL    HW1 7318   4.404   7.719   2.306
35162SOL    HW2 7319   4.421   7.572   2.338
35163SOL     OW 7320   2.486  13.895  10.153
35163SOL    HW1 7321   2.424  13.883  10.081
35163SOL    HW2 7322   2.443  13.856  10.228
35164SOL     OW 7323   3.894   2.114   5.505
35164SOL    HW1 7324   3.973   2.167   5.489
35164SOL    HW2 7325   3.923   2.047   5.567
35165SOL     OW 7326   1.962   7.096   8.425
35165SOL    HW1 7327   1.999   7.183   8.407
35165SOL    HW2 7328   2.038   7.037   8.426
35166SOL     OW 7329   9.143  13.207  13.795
35166SOL    HW1 7330   9.073  13.180  13.854
35166SOL    HW2 7331   9.122  13.165  13.712
35167SOL     OW 7332   1.785   6.085   9.453
35167SOL    HW1 7333   1.778   6.175   9.487
35167SOL    HW2 7334   1.863   6.050   9.496
35168SOL     OW 7335   9.545   1.084   0.700
35168SOL    HW1 7336   9.467   1.099   0.646
35168SOL    HW2 7337   9.518   1.019   0.765
35169SOL     OW 7338   7.455   2.356   7.327
35169SOL    HW1 7339   7.457   2.264   7.301
35169SOL    HW2 7340   7.374   2.364   7.377
35170SOL     OW 7341   1.474   8.870  10.491
35170SOL    HW1 7342   1.518   8.788  10.467
35170SOL    HW2 7343   1.523   8.903  10.566
35171SOL     OW 7344   6.943   7.373   6.868
35171SOL    HW1 7345   6.864   7.384   6.921
35171SOL    HW2 7346   6.944   7.450   6.811
35172SOL     OW 7347   9.270  14.844   2.165
35172SOL    HW1 7348   9.219  14.770   2.132
35172SOL    HW2 7349   9.241   0.043   2.113
35173SOL     OW 7350  12.450   7.001   3.831
35173SOL    HW1 7351  12.442   6.924   3.886
35173SOL    HW2 7352  12.527   6.984   3.776
35174SOL     OW 7353  11.470   0.043   4.398
35174SOL    HW1 7354  11.511   0.061   4.482
35174SOL    HW2 7355  11.538  14.875   4.347
35175SOL     OW 7356   2.395   2.888   3.183
35175SOL    HW1 7357   2.386   2.794   3.167
35175SOL    HW2 7358   2.471   2.896   3.240
35176SOL     OW 7359   3.264   2.595   0.813
35176SOL    HW1 7360   3.263   2.534   0.739
35176SOL    HW2 7361   3.172   2.622   0.822
35177SOL     OW 7362  11.515   0.236   4.670
35177SOL    HW1 7363  11.564   0.313   4.641
35177SOL    HW2 7364  11.488   0.258   4.759
35178SOL     OW 7365   3.193  14.106   9.495
35178SOL    HW1 7366   3.282  14.085   9.522
35178SOL    HW2 7367   3.184  14.200   9.511
35179SOL     OW 7368   8.304  10.484  12.561
35179SOL    HW1 7369   8.308  10.489  12.656
35179SOL    HW2 7370   8.242  10.412  12.543
35180SOL     OW 7371   0.244   1.317  14.449
35180SOL    HW1 7372   0.170   1.298  14.391
35180SOL    HW2 7373   0.318   1.331  14.390
35181SOL     OW 7374   1.699   4.046   8.491
35181SOL    HW1 7375   1.707   4.070   8.398
35181SOL    HW2 7376   1.708   3.951   8.492
35182SOL     OW 7377  13.213   3.556  14.691
35182SOL    HW1 7378  13.243   3.498  14.621
35182SOL    HW2 7379  13.120   3.572  14.670
35183SOL     OW 7380   7.457  12.246  13.342
35183SOL    HW1 7381   7.510  12.175  13.306
35183SOL    HW2 7382   7.517  12.295  13.397
35184SOL     OW 7383   1.646   7.109   9.995
35184SOL    HW1 7384   1.652   7.108  10.090
35184SOL    HW2 7385   1.733   7.135   9.965
35185SOL     OW 7386   0.844   7.556   4.706
35185SOL    HW1 7387   0.842   7.605   4.789
35185SOL    HW2 7388   0.758   7.514   4.701
35186SOL     OW 7389  11.977   4.953   9.293
35186SOL    HW1 7390  11.982   5.019   9.223
35186SOL    HW2 7391  11.886   4.924   9.293
35187SOL     OW 7392   2.098   9.156   2.953
35187SOL    HW1 7393   2.106   9.249   2.932
35187SOL    HW2 7394   2.084   9.114   2.868
35188SOL     OW 7395   7.324   2.448   1.834
35188SOL    HW1 7396   7.296   2.518   1.893
35188SOL    HW2 7397   7.275   2.371   1.864
35189SOL     OW 7398   9.590   6.949   5.048
35189SOL    HW1 7399   9.674   6.908   5.025
35189SOL    HW2 7400   9.526   6.878   5.043
35190SOL     OW 7401   3.733   8.776  13.796
35190SOL    HW1 7402   3.706   8.691  13.831
35190SOL    HW2 7403   3.826   8.767  13.779
35191SOL     OW 7404   4.878  13.514  13.661
35191SOL    HW1 7405   4.889  13.597  13.615
35191SOL    HW2 7406   4.869  13.538  13.753
35192SOL     OW 7407   3.494   2.946  11.254
35192SOL    HW1 7408   3.414   2.982  11.294
35192SOL    HW2 7409   3.464   2.867  11.209
35193SOL     OW 7410  14.466   7.720  13.872
35193SOL    HW1 7411  14.469   7.629  13.899
35193SOL    HW2 7412  14.427   7.718  13.784
35194SOL     OW 7413  12.405   8.508   6.777
35194SOL    HW1 7414  12.327   8.532   6.828
35194SOL    HW2 7415  12.473   8.568   6.809
35195SOL     OW 7416  12.720   6.883   7.242
35195SOL    HW1 7417  12.734   6.978   7.245
35195SOL    HW2 7418  12.671   6.868   7.161
35196SOL     OW 7419  10.358  11.396  10.200
35196SOL    HW1 7420  10.447  11.410  10.231
35196SOL    HW2 7421  10.352  11.444  10.118
35197SOL     OW 7422   5.233   2.927   5.115
35197SOL    HW1 7423   5.180   2.932   5.036
35197SOL    HW2 7424   5.211   2.842   5.153
35198SOL     OW 7425   5.134  12.893   3.889
35198SOL    HW1 7426   5.185  12.828   3.938
35198SOL    HW2 7427   5.113  12.961   3.952
35199SOL     OW 7428   4.236   4.095   9.364
35199SOL    HW1 7429   4.233   4.138   9.450
35199SOL    HW2 7430   4.223   4.002   9.384
35200SOL     OW 7431  13.827   4.754   8.559
35200SOL    HW1 7432  13.771   4.827   8.532
35200SOL    HW2 7433  13.851   4.710   8.478
35201SOL     OW 7434   0.139   0.569  12.850
35201SOL    HW1 7435   0.201   0.505  12.815
35201SOL    HW2 7436   0.073   0.578  12.781
35202SOL     OW 7437   9.411  12.856  13.383
35202SOL    HW1 7438   9.447  12.868  13.296
35202SOL    HW2 7439   9.359  12.935  13.399
35203SOL     OW 7440  12.850  11.994  12.360
35203SOL    HW1 7441  12.822  11.910  12.396
35203SOL    HW2 7442  12.929  11.973  12.310
35204SOL     OW 7443   2.423   2.070   0.551
35204SOL    HW1 7444   2.451   2.029   0.470
35204SOL    HW2 7445   2.327   2.065   0.549
35205SOL     OW 7446   2.311  11.090  10.420
35205SOL    HW1 7447   2.232  11.141  10.403
35205SOL    HW2 7448   2.317  11.086  10.515
35206SOL     OW 7449  10.853   1.346   0.471
35206SOL    HW1 7450  10.924   1.395   0.514
35206SOL    HW2 7451  10.874   1.351   0.378
35207SOL     OW 7452   3.856   2.230   7.257
35207SOL    HW1 7453   3.883   2.228   7.165
35207SOL    HW2 7454   3.832   2.140   7.277
35208SOL     OW 7455   0.103  14.440   2.800
35208SOL    HW1 7456   0.014  14.412   2.780
35208SOL    HW2 7457   0.156  14.402   2.730
35209SOL     OW 7458   2.393   3.847   4.214
35209SOL    HW1 7459   2.467   3.898   4.247
35209SOL    HW2 7460   2.319   3.875   4.266
35210SOL     OW 7461   3.151   4.634   9.117
35210SOL    HW1 7462   3.110   4.671   9.039
35210SOL    HW2 7463   3.081   4.584   9.160
35211SOL     OW 7464  10.587  13.489   0.210
35211SOL    HW1 7465  10.644  13.416   0.232
35211SOL    HW2 7466  10.500  13.450   0.200
35212SOL     OW 7467   2.655  10.536   3.334
35212SOL    HW1 7468   2.688  10.447   3.343
35212SOL    HW2 7469   2.676  10.578   3.418
35213SOL     OW 7470   6.112   6.838   5.694
35213SOL    HW1 7471   6.187   6.804   5.645
35213SOL    HW2 7472   6.147   6.914   5.740
35214SOL     OW 7473   8.877  10.804   8.304
35214SOL    HW1 7474   8.830  10.729   8.267
35214SOL    HW2 7475   8.818  10.840   8.369
35215SOL     OW 7476   5.459  11.289   6.961
35215SOL    HW1 7477   5.459  11.233   7.038
35215SOL    HW2 7478   5.444  11.377   6.995
35216SOL     OW 7479  11.719   7.218   0.088
35216SOL    HW1 7480  11.638   7.227   0.039
35216SOL    HW2 7481  11.701   7.259   0.173
35217SOL     OW 7482  10.893   7.592  12.514
35217SOL    HW1 7483  10.966   7.622  12.567
35217SOL    HW2 7484  10.934   7.554  12.436
35218SOL     OW 7485   4.296   7.337   9.210
35218SOL    HW1 7486   4.312   7.356   9.117
35218SOL    HW2 7487   4.202   7.322   9.215
35219SOL     OW 7488   0.221  10.751   9.471
35219SOL    HW1 7489   0.181  10.764   9.385
35219SOL    HW2 7490   0.256  10.662   9.468
35220SOL     OW 7491   1.077   4.617   3.422
35220SOL    HW1 7492   1.002   4.669   3.395
35220SOL    HW2 7493   1.150   4.653   3.371
35221SOL     OW 7494  14.089   7.251   4.408
35221SOL    HW1 7495  14.067   7.324   4.466
35221SOL    HW2 7496  14.086   7.174   4.464
35222SOL     OW 7497  10.038  11.464  11.373
35222SOL    HW1 7498  10.070  11.374  11.366
35222SOL    HW2 7499  10.072  11.496  11.456
35223SOL     OW 7500  10.589   3.194   8.538
35223SOL    HW1 7501  10.550   3.107   8.538
35223SOL    HW2 7502  10.640   3.198   8.618
35224SOL     OW 7503   4.545  14.872   4.839
35224SOL    HW1 7504   4.540  14.841   4.930
35224SOL    HW2 7505   4.556  14.792   4.787
35225SOL     OW 7506   2.125   6.489  12.035
35225SOL    HW1 7507   2.162   6.543  12.105
35225SOL    HW2 7508   2.181   6.410  12.035
35226SOL     OW 7509   8.343   0.452  11.738
35226SOL    HW1 7510   8.291   0.522  11.698
35226SOL    HW2 7511   8.416   0.438  11.678
35227SOL     OW 7512  14.575  10.375  12.239
35227SOL    HW1 7513  14.547  10.425  12.316
35227SOL    HW2 7514  14.500  10.319  12.219
35228SOL     OW 7515   8.156   9.547  14.334
35228SOL    HW1 7516   8.183   9.458  14.357
35228SOL    HW2 7517   8.169   9.597  14.415
35229SOL     OW 7518   4.134   4.554   9.880
35229SOL    HW1 7519   4.058   4.495   9.871
35229SOL    HW2 7520   4.160   4.544   9.972
35230SOL     OW 7521  12.081   4.462   0.049
35230SOL    HW1 7522  12.128   4.384   0.018
35230SOL    HW2 7523  12.063   4.444   0.141
35231SOL     OW 7524   3.819   8.494   8.980
35231SOL    HW1 7525   3.762   8.436   9.031
35231SOL    HW2 7526   3.856   8.437   8.912
35232SOL     OW 7527   7.034  13.624   4.308
35232SOL    HW1 7528   7.081  13.671   4.239
35232SOL    HW2 7529   7.048  13.677   4.386
35233SOL     OW 7530  12.069   4.155   3.410
35233SOL    HW1 7531  11.992   4.165   3.465
35233SOL    HW2 7532  12.134   4.215   3.447
35234SOL     OW 7533  13.563   0.438   6.213
35234SOL    HW1 7534  13.538   0.413   6.302
35234SOL    HW2 7535  13.495   0.400   6.157
35235SOL     OW 7536   2.023   0.029   7.392
35235SOL    HW1 7537   1.949   0.070   7.347
35235SOL    HW2 7538   2.038   0.085   7.469
35236SOL     OW 7539   2.964  12.318   1.925
35236SOL    HW1 7540   2.946  12.252   1.992
35236SOL    HW2 7541   2.958  12.401   1.972
35237SOL     OW 7542   8.722   9.338  10.254
35237SOL    HW1 7543   8.714   9.323  10.348
35237SOL    HW2 7544   8.634   9.321  10.219
35238SOL     OW 7545   9.805  11.509  12.354
35238SOL    HW1 7546   9.837  11.476  12.270
35238SOL    HW2 7547   9.711  11.524  12.339
35239SOL     OW 7548   1.820   9.240   6.815
35239SOL    HW1 7549   1.888   9.284   6.867
35239SOL    HW2 7550   1.854   9.152   6.800
35240SOL     OW 7551   7.430   0.620   0.235
35240SOL    HW1 7552   7.398   0.699   0.277
35240SOL    HW2 7553   7.488   0.580   0.300
35241SOL     OW 7554   1.624   5.672   5.406
35241SOL    HW1 7555   1.718   5.687   5.411
35241SOL    HW2 7556   1.609   5.641   5.317
35242SOL     OW 7557   7.988   9.568   7.092
35242SOL    HW1 7558   7.909   9.585   7.144
35242SOL    HW2 7559   7.963   9.497   7.033
35243SOL     OW 7560   4.708   0.812   5.222
35243SOL    HW1 7561   4.656   0.733   5.213
35243SOL    HW2 7562   4.651   0.883   5.192
35244SOL     OW 7563   2.711   1.321   0.584
35244SOL    HW1 7564   2.692   1.248   0.643
35244SOL    HW2 7565   2.743   1.391   0.642
35245SOL     OW 7566   4.892   7.097  13.530
35245SOL    HW1 7567   4.901   7.109  13.435
35245SOL    HW2 7568   4.834   7.022  13.539
35246SOL     OW 7569   9.096   9.693   0.188
35246SOL    HW1 7570   9.131   9.607   0.209
35246SOL    HW2 7571   9.031   9.676   0.119
35247SOL     OW 7572   2.366   8.217   9.425
35247SOL    HW1 7573   2.432   8.150   9.440
35247SOL    HW2 7574   2.376   8.241   9.333
35248SOL     OW 7575   4.894   9.298   2.145
35248SOL    HW1 7576   4.984   9.329   2.138
35248SOL    HW2 7577   4.902   9.202   2.151
35249SOL     OW 7578  11.694   5.873   2.660
35249SOL    HW1 7579  11.696   5.819   2.581
35249SOL    HW2 7580  11.602   5.878   2.684
35250SOL     OW 7581   9.474   5.854  10.846
35250SOL    HW1 7582   9.531   5.778  10.830
35250SOL    HW2 7583   9.389   5.815  10.870
35251SOL     OW 7584   2.273   0.530  11.705
35251SOL    HW1 7585   2.239   0.454  11.753
35251SOL    HW2 7586   2.265   0.603  11.767
35252SOL     OW 7587  11.777  11.863   4.119
35252SOL    HW1 7588  11.797  11.773   4.146
35252SOL    HW2 7589  11.700  11.887   4.170
35253SOL     OW 7590   8.958  10.290   0.922
35253SOL    HW1 7591   8.969  10.226   0.993
35253SOL    HW2 7592   9.038  10.342   0.924
35254SOL     OW 7593   3.952   7.130   8.315
35254SOL    HW1 7594   3.864   7.128   8.354
35254SOL    HW2 7595   3.963   7.220   8.285
35255SOL     OW 7596  11.409   4.712  12.097
35255SOL    HW1 7597  11.462   4.728  12.018
35255SOL    HW2 7598  11.323   4.747  12.076
35256SOL     OW 7599   0.626   9.749   2.881
35256SOL    HW1 7600   0.565   9.702   2.938
35256SOL    HW2 7601   0.585   9.834   2.867
35257SOL     OW 7602   1.963   6.686  12.668
35257SOL    HW1 7603   1.904   6.752  12.632
35257SOL    HW2 7604   1.976   6.624  12.596
35258SOL     OW 7605  11.793  13.619   9.381
35258SOL    HW1 7606  11.813  13.711   9.362
35258SOL    HW2 7607  11.735  13.623   9.457
35259SOL     OW 7608   1.971   7.398  14.459
35259SOL    HW1 7609   1.987   7.311  14.422
35259SOL    HW2 7610   1.876   7.408  14.456
35260SOL     OW 7611  13.156  14.457  13.166
35260SOL    HW1 7612  13.121  14.519  13.102
35260SOL    HW2 7613  13.167  14.509  13.245
35261SOL     OW 7614  14.666   1.307   7.273
35261SOL    HW1 7615  14.679   1.399   7.298
35261SOL    HW2 7616  14.678   1.258   7.354
35262SOL     OW 7617   1.915  14.636  10.049
35262SOL    HW1 7618   1.866  14.718  10.062
35262SOL    HW2 7619   2.005  14.658  10.072
35263SOL     OW 7620  13.151   7.432  10.588
35263SOL    HW1 7621  13.128   7.525  10.582
35263SOL    HW2 7622  13.140   7.399  10.499
35264SOL     OW 7623   3.753  12.058   2.976
35264SOL    HW1 7624   3.782  11.969   2.956
35264SOL    HW2 7625   3.673  12.069   2.924
35265SOL     OW 7626   0.281  12.771  12.499
35265SOL    HW1 7627   0.326  12.843  12.542
35265SOL    HW2 7628   0.350  12.724  12.453
35266SOL     OW 7629   8.405   6.494   8.386
35266SOL    HW1 7630   8.310   6.503   8.375
35266SOL    HW2 7631   8.423   6.537   8.470
35267SOL     OW 7632   9.124   7.587  10.670
35267SOL    HW1 7633   9.182   7.580  10.745
35267SOL    HW2 7634   9.042   7.549  10.699
35268SOL     OW 7635   7.764   8.535   3.812
35268SOL    HW1 7636   7.672   8.542   3.787
35268SOL    HW2 7637   7.777   8.443   3.833
35269SOL     OW 7638  13.260   4.075   5.476
35269SOL    HW1 7639  13.216   3.990   5.476
35269SOL    HW2 7640  13.215   4.125   5.545
35270SOL     OW 7641   2.890  11.320   1.509
35270SOL    HW1 7642   2.926  11.245   1.462
35270SOL    HW2 7643   2.807  11.339   1.466
35271SOL     OW 7644   1.681   0.764   2.428
35271SOL    HW1 7645   1.620   0.743   2.357
35271SOL    HW2 7646   1.655   0.706   2.499
35272SOL     OW 7647  13.531   0.715  10.106
35272SOL    HW1 7648  13.484   0.778  10.051
35272SOL    HW2 7649  13.600   0.681  10.050
35273SOL     OW 7650  10.160  13.229   9.675
35273SOL    HW1 7651  10.129  13.250   9.763
35273SOL    HW2 7652  10.081  13.221   9.622
35274SOL     OW 7653   7.929   8.773   7.927
35274SOL    HW1 7654   7.884   8.768   8.011
35274SOL    HW2 7655   8.008   8.824   7.945
35275SOL     OW 7656  10.810  14.653   2.405
35275SOL    HW1 7657  10.888  14.695   2.368
35275SOL    HW2 7658  10.780  14.594   2.336
35276SOL     OW 7659   3.671  12.575  14.341
35276SOL    HW1 7660   3.581  12.582  14.308
35276SOL    HW2 7661   3.713  12.657  14.315
35277SOL     OW 7662  12.826   0.346   2.420
35277SOL    HW1 7663  12.892   0.373   2.484
35277SOL    HW2 7664  12.743   0.376   2.457
35278SOL     OW 7665   3.808   1.965   0.782
35278SOL    HW1 7666   3.794   1.914   0.703
35278SOL    HW2 7667   3.781   1.907   0.853
35279SOL     OW 7668   6.595   5.102  13.391
35279SOL    HW1 7669   6.548   5.124  13.311
35279SOL    HW2 7670   6.542   5.139  13.462
35280SOL     OW 7671   2.113   0.021  10.275
35280SOL    HW1 7672   2.141  14.840  10.203
35280SOL    HW2 7673   2.128  14.845  10.354
35281SOL     OW 7674   0.431  13.390   2.136
35281SOL    HW1 7675   0.520  13.411   2.164
35281SOL    HW2 7676   0.403  13.465   2.084
35282SOL     OW 7677   0.284   9.224   1.955
35282SOL    HW1 7678   0.234   9.175   2.020
35282SOL    HW2 7679   0.369   9.238   1.997
35283SOL     OW 7680   0.897   4.029   3.552
35283SOL    HW1 7681   0.848   4.112   3.557
35283SOL    HW2 7682   0.989   4.055   3.558
35284SOL     OW 7683   3.644   5.595   1.798
35284SOL    HW1 7684   3.610   5.617   1.712
35284SOL    HW2 7685   3.694   5.515   1.784
35285SOL     OW 7686   4.181   8.600   3.603
35285SOL    HW1 7687   4.245   8.632   3.668
35285SOL    HW2 7688   4.185   8.505   3.611
35286SOL     OW 7689   6.290   9.357   4.753
35286SOL    HW1 7690   6.299   9.447   4.721
35286SOL    HW2 7691   6.235   9.314   4.688
35287SOL     OW 7692  13.422  14.721   1.158
35287SOL    HW1 7693  13.392  14.690   1.073
35287SOL    HW2 7694  13.462  14.806   1.140
35288SOL     OW 7695  13.976   2.213  11.307
35288SOL    HW1 7696  13.937   2.133  11.343
35288SOL    HW2 7697  14.052   2.183  11.257
35289SOL     OW 7698   5.670  14.846  13.369
35289SOL    HW1 7699   5.614   0.029  13.419
35289SOL    HW2 7700   5.610  14.792  13.318
35290SOL     OW 7701   5.343  12.549   2.777
35290SOL    HW1 7702   5.410  12.590   2.722
35290SOL    HW2 7703   5.285  12.506   2.715
35291SOL     OW 7704   4.569   8.416   9.307
35291SOL    HW1 7705   4.621   8.480   9.258
35291SOL    HW2 7706   4.623   8.395   9.384
35292SOL     OW 7707   8.839  12.584   0.739
35292SOL    HW1 7708   8.766  12.596   0.678
35292SOL    HW2 7709   8.817  12.505   0.788
35293SOL     OW 7710   7.847  14.212   1.003
35293SOL    HW1 7711   7.861  14.178   0.915
35293SOL    HW2 7712   7.776  14.275   0.993
35294SOL     OW 7713  11.787  14.642   7.617
35294SOL    HW1 7714  11.845  14.688   7.677
35294SOL    HW2 7715  11.722  14.707   7.592
35295SOL     OW 7716   0.270   5.286  10.717
35295SOL    HW1 7717   0.324   5.295  10.796
35295SOL    HW2 7718   0.269   5.375  10.680
35296SOL     OW 7719   2.676   9.938  12.315
35296SOL    HW1 7720   2.727   9.954  12.235
35296SOL    HW2 7721   2.645  10.025  12.341
35297SOL     OW 7722   3.385  12.167  13.249
35297SOL    HW1 7723   3.422  12.178  13.161
35297SOL    HW2 7724   3.291  12.173  13.236
35298SOL     OW 7725   7.931   4.801   5.360
35298SOL    HW1 7726   7.847   4.783   5.317
35298SOL    HW2 7727   7.912   4.794   5.453
35299SOL     OW 7728   9.261   8.948   5.787
35299SOL    HW1 7729   9.281   8.866   5.832
35299SOL    HW2 7730   9.223   8.920   5.703
35300SOL     OW 7731   4.880  11.547  13.656
35300SOL    HW1 7732   4.897  11.638  13.679
35300SOL    HW2 7733   4.849  11.507  13.737
35301SOL     OW 7734  11.977  13.877   4.098
35301SOL    HW1 7735  12.015  13.791   4.081
35301SOL    HW2 7736  11.999  13.929   4.021
35302SOL     OW 7737   9.717   0.837   6.866
35302SOL    HW1 7738   9.758   0.777   6.803
35302SOL    HW2 7739   9.790   0.876   6.914
35303SOL     OW 7740   1.293  11.266   3.157
35303SOL    HW1 7741   1.349  11.336   3.123
35303SOL    HW2 7742   1.208  11.307   3.167
35304SOL     OW 7743   6.120  12.750   5.861
35304SOL    HW1 7744   6.025  12.743   5.852
35304SOL    HW2 7745   6.149  12.659   5.868
35305SOL     OW 7746   0.042   1.693   9.926
35305SOL    HW1 7747   0.097   1.771   9.934
35305SOL    HW2 7748  14.840   1.723   9.879
35306SOL     OW 7749   9.736   3.956   1.239
35306SOL    HW1 7750   9.820   3.943   1.195
35306SOL    HW2 7751   9.747   4.037   1.289
35307SOL     OW 7752  13.945   5.064   7.309
35307SOL    HW1 7753  14.017   5.024   7.358
35307SOL    HW2 7754  13.885   4.992   7.291
35308SOL     OW 7755  11.310   6.017   0.181
35308SOL    HW1 7756  11.255   5.992   0.256
35308SOL    HW2 7757  11.324   6.111   0.192
35309SOL     OW 7758   8.338   8.319   7.400
35309SOL    HW1 7759   8.269   8.258   7.373
35309SOL    HW2 7760   8.298   8.371   7.470
35310SOL     OW 7761   9.755   7.261   8.575
35310SOL    HW1 7762   9.676   7.309   8.597
35310SOL    HW2 7763   9.812   7.272   8.651
35311SOL     OW 7764  11.094  12.368   2.451
35311SOL    HW1 7765  11.048  12.439   2.496
35311SOL    HW2 7766  11.161  12.412   2.400
35312SOL     OW 7767   6.521   9.940   6.759
35312SOL    HW1 7768   6.554   9.855   6.785
35312SOL    HW2 7769   6.598   9.988   6.727
35313SOL     OW 7770   8.792  14.610   9.168
35313SOL    HW1 7771   8.723  14.666   9.203
35313SOL    HW2 7772   8.821  14.654   9.088
35314SOL     OW 7773  11.210   5.214   7.897
35314SOL    HW1 7774  11.116   5.228   7.911
35314SOL    HW2 7775  11.252   5.256   7.972
35315SOL     OW 7776  12.164   8.665  10.922
35315SOL    HW1 7777  12.095   8.724  10.891
35315SOL    HW2 7778  12.133   8.578  10.897
35316SOL     OW 7779   6.618   6.595   7.134
35316SOL    HW1 7780   6.607   6.661   7.203
35316SOL    HW2 7781   6.708   6.604   7.105
35317SOL     OW 7782  13.335   6.108  13.542
35317SOL    HW1 7783  13.265   6.143  13.487
35317SOL    HW2 7784  13.409   6.096  13.483
35318SOL     OW 7785  14.038   4.124   6.193
35318SOL    HW1 7786  13.978   4.095   6.124
35318SOL    HW2 7787  14.027   4.219   6.197
35319SOL     OW 7788   1.393   2.676   6.321
35319SOL    HW1 7789   1.435   2.712   6.399
35319SOL    HW2 7790   1.336   2.746   6.290
35320SOL     OW 7791  10.843  14.510  14.351
35320SOL    HW1 7792  10.793  14.430  14.342
35320SOL    HW2 7793  10.886  14.521  14.266
35321SOL     OW 7794  10.933  12.493   5.243
35321SOL    HW1 7795  10.980  12.416   5.210
35321SOL    HW2 7796  10.861  12.505   5.182
35322SOL     OW 7797   7.869   3.927   4.367
35322SOL    HW1 7798   7.939   3.979   4.329
35322SOL    HW2 7799   7.801   3.990   4.390
35323SOL     OW 7800  12.643   3.927   4.683
35323SOL    HW1 7801  12.695   3.935   4.603
35323SOL    HW2 7802  12.569   3.871   4.659
35324SOL     OW 7803   2.720  10.574   9.429
35324SOL    HW1 7804   2.641  10.546   9.477
35324SOL    HW2 7805   2.790  10.571   9.494
35325SOL     OW 7806   9.695   9.263  11.745
35325SOL    HW1 7807   9.732   9.311  11.671
35325SOL    HW2 7808   9.698   9.171  11.718
35326SOL     OW 7809  13.612   7.982   2.508
35326SOL    HW1 7810  13.705   7.976   2.483
35326SOL    HW2 7811  13.568   8.014   2.429
35327SOL     OW 7812   3.884  14.511  13.886
35327SOL    HW1 7813   3.832  14.431  13.881
35327SOL    HW2 7814   3.925  14.519  13.800
35328SOL     OW 7815   8.336  11.530   0.402
35328SOL    HW1 7816   8.308  11.577   0.323
35328SOL    HW2 7817   8.401  11.588   0.442
35329SOL     OW 7818   4.548   0.296   4.658
35329SOL    HW1 7819   4.474   0.237   4.645
35329SOL    HW2 7820   4.580   0.277   4.746
35330SOL     OW 7821  10.000   8.002   7.122
35330SOL    HW1 7822  10.007   7.943   7.047
35330SOL    HW2 7823   9.943   7.955   7.184
35331SOL     OW 7824  12.537  14.331   8.772
35331SOL    HW1 7825  12.579  14.345   8.687
35331SOL    HW2 7826  12.462  14.390   8.772
35332SOL     OW 7827  14.517   5.768   9.266
35332SOL    HW1 7828  14.480   5.751   9.180
35332SOL    HW2 7829  14.453   5.824   9.309
35333SOL     OW 7830   1.736   0.031   8.315
35333SOL    HW1 7831   1.787   0.064   8.241
35333SOL    HW2 7832   1.694  14.827   8.281
35334SOL     OW 7833  14.791   3.726  13.984
35334SOL    HW1 7834  14.841   3.785  13.927
35334SOL    HW2 7835  14.731   3.784  14.032
35335SOL     OW 7836  13.229   7.609   0.213
35335SOL    HW1 7837  13.221   7.518   0.243
35335SOL    HW2 7838  13.206   7.606   0.120
35336SOL     OW 7839  12.734  13.067  11.346
35336SOL    HW1 7840  12.641  13.058  11.364
35336SOL    HW2 7841  12.749  13.018  11.266
35337SOL     OW 7842   8.516  14.251   7.598
35337SOL    HW1 7843   8.569  14.194   7.653
35337SOL    HW2 7844   8.553  14.241   7.510
35338SOL     OW 7845  10.408   1.142   6.057
35338SOL    HW1 7846  10.443   1.126   6.145
35338SOL    HW2 7847  10.358   1.063   6.037
35339SOL     OW 7848   0.611   8.407   9.900
35339SOL    HW1 7849   0.636   8.408   9.993
35339SOL    HW2 7850   0.580   8.495   9.882
35340SOL     OW 7851  12.291   4.184  10.255
35340SOL    HW1 7852  12.359   4.228  10.204
35340SOL    HW2 7853  12.328   4.098  10.276
35341SOL     OW 7854   3.036  10.658  12.561
35341SOL    HW1 7855   2.973  10.727  12.584
35341SOL    HW2 7856   3.108  10.705  12.520
35342SOL     OW 7857  12.177   3.786  13.960
35342SOL    HW1 7858  12.100   3.763  13.908
35342SOL    HW2 7859  12.238   3.826  13.898
35343SOL     OW 7860   8.553   6.185  12.294
35343SOL    HW1 7861   8.531   6.113  12.353
35343SOL    HW2 7862   8.646   6.171  12.273
35344SOL     OW 7863   8.100   0.007  10.697
35344SOL    HW1 7864   8.121  14.799  10.738
35344SOL    HW2 7865   8.019  14.865  10.648
35345SOL     OW 7866   2.219   1.801   9.616
35345SOL    HW1 7867   2.140   1.855   9.613
35345SOL    HW2 7868   2.186   1.712   9.629
35346SOL     OW 7869   7.180   2.303  11.881
35346SOL    HW1 7870   7.085   2.314  11.875
35346SOL    HW2 7871   7.215   2.392  11.875
35347SOL     OW 7872   6.014   5.659  13.420
35347SOL    HW1 7873   5.967   5.576  13.428
35347SOL    HW2 7874   6.104   5.638  13.448
35348SOL     OW 7875   0.019  10.181  10.636
35348SOL    HW1 7876   0.065  10.257  10.671
35348SOL    HW2 7877   0.033  10.185  10.541
35349SOL     OW 7878   8.641   5.699   5.475
35349SOL    HW1 7879   8.660   5.633   5.408
35349SOL    HW2 7880   8.727   5.731   5.501
35350SOL     OW 7881   6.576  12.877  12.347
35350SOL    HW1 7882   6.490  12.836  12.346
35350SOL    HW2 7883   6.601  12.883  12.255
35351SOL     OW 7884   8.046   4.585   0.329
35351SOL    HW1 7885   8.070   4.495   0.306
35351SOL    HW2 7886   7.988   4.613   0.258
35352SOL     OW 7887   3.755  12.820   5.203
35352SOL    HW1 7888   3.681  12.792   5.150
35352SOL    HW2 7889   3.715  12.856   5.283
35353SOL     OW 7890  10.177   4.309  10.154
35353SOL    HW1 7891  10.145   4.219  10.150
35353SOL    HW2 7892  10.131   4.354  10.084
35354SOL     OW 7893   6.235   4.708   7.648
35354SOL    HW1 7894   6.149   4.711   7.607
35354SOL    HW2 7895   6.230   4.775   7.717
35355SOL     OW 7896   6.495   8.199   4.987
35355SOL    HW1 7897   6.427   8.159   5.041
35355SOL    HW2 7898   6.573   8.199   5.042
35356SOL     OW 7899  14.809  10.198  13.812
35356SOL    HW1 7900   0.003  10.133  13.803
35356SOL    HW2 7901  14.730  10.152  13.784
35357SOL     OW 7902   0.663   9.409   2.797
35357SOL    HW1 7903   0.666   9.480   2.733
35357SOL    HW2 7904   0.626   9.335   2.750
35358SOL     OW 7905   5.771  14.487   9.507
35358SOL    HW1 7906   5.865  14.470   9.504
35358SOL    HW2 7907   5.757  14.557   9.443
35359SOL     OW 7908   7.415  11.342   9.927
35359SOL    HW1 7909   7.502  11.309   9.948
35359SOL    HW2 7910   7.376  11.274   9.873
35360SOL     OW 7911  10.059  10.480  13.802
35360SOL    HW1 7912  10.144  10.448  13.772
35360SOL    HW2 7913  10.068  10.484  13.898
35361SOL     OW 7914   3.104  12.980   1.729
35361SOL    HW1 7915   3.090  12.977   1.823
35361SOL    HW2 7916   3.143  12.895   1.707
35362SOL     OW 7917  11.408   7.776  11.121
35362SOL    HW1 7918  11.481   7.742  11.172
35362SOL    HW2 7919  11.376   7.851  11.171
35363SOL     OW 7920   7.692   6.694  10.979
35363SOL    HW1 7921   7.679   6.618  10.922
35363SOL    HW2 7922   7.723   6.762  10.920
35364SOL     OW 7923   3.695   7.355  11.773
35364SOL    HW1 7924   3.671   7.409  11.697
35364SOL    HW2 7925   3.745   7.282  11.737
35365SOL     OW 7926   7.903   8.810  13.774
35365SOL    HW1 7927   7.908   8.898  13.737
35365SOL    HW2 7928   7.937   8.819  13.863
35366SOL     OW 7929   8.690  14.567   2.765
35366SOL    HW1 7930   8.775  14.572   2.808
35366SOL    HW2 7931   8.710  14.576   2.672
35367SOL     OW 7932   3.315   1.710   7.190
35367SOL    HW1 7933   3.364   1.708   7.273
35367SOL    HW2 7934   3.265   1.791   7.195
35368SOL     OW 7935   4.604   4.596   4.029
35368SOL    HW1 7936   4.553   4.532   4.079
35368SOL    HW2 7937   4.673   4.545   3.989
35369SOL     OW 7938  10.074   0.280   1.961
35369SOL    HW1 7939  10.127   0.211   2.001
35369SOL    HW2 7940  10.074   0.351   2.025
35370SOL     OW 7941  10.797  14.858   0.075
35370SOL    HW1 7942  10.810   0.057   0.132
35370SOL    HW2 7943  10.778   0.020  14.865
35371SOL     OW 7944  14.572   4.649  11.869
35371SOL    HW1 7945  14.597   4.600  11.791
35371SOL    HW2 7946  14.571   4.740  11.841
35372SOL     OW 7947  10.883  11.469   7.913
35372SOL    HW1 7948  10.839  11.436   7.835
35372SOL    HW2 7949  10.868  11.402   7.980
35373SOL     OW 7950   4.788  11.906   1.929
35373SOL    HW1 7951   4.814  11.994   1.904
35373SOL    HW2 7952   4.849  11.881   1.998
35374SOL     OW 7953  11.531   1.709   0.832
35374SOL    HW1 7954  11.445   1.691   0.794
35374SOL    HW2 7955  11.567   1.623   0.852
35375SOL     OW 7956  13.969   2.511  13.628
35375SOL    HW1 7957  13.968   2.458  13.707
35375SOL    HW2 7958  13.958   2.448  13.557
35376SOL     OW 7959   3.009   0.148   1.373
35376SOL    HW1 7960   3.043   0.107   1.452
35376SOL    HW2 7961   2.946   0.086   1.338
35377SOL     OW 7962   1.752   7.224  14.468
35377SOL    HW1 7963   1.717   7.194  14.552
35377SOL    HW2 7964   1.723   7.159  14.405
35378SOL     OW 7965  10.406   9.575   6.774
35378SOL    HW1 7966  10.408   9.540   6.863
35378SOL    HW2 7967  10.325   9.540   6.737
35379SOL     OW 7968  12.771   9.363   2.163
35379SOL    HW1 7969  12.866   9.374   2.160
35379SOL    HW2 7970  12.737   9.438   2.114
35380SOL     OW 7971   7.031   2.598   6.309
35380SOL    HW1 7972   6.969   2.670   6.315
35380SOL    HW2 7973   6.990   2.527   6.358
35381SOL     OW 7974   9.865   3.938  14.278
35381SOL    HW1 7975   9.777   3.937  14.241
35381SOL    HW2 7976   9.887   4.030  14.286
35382SOL     OW 7977   3.081   5.668   7.253
35382SOL    HW1 7978   3.136   5.621   7.190
35382SOL    HW2 7979   3.049   5.744   7.204
35383SOL     OW 7980  12.351   1.378   3.672
35383SOL    HW1 7981  12.385   1.454   3.625
35383SOL    HW2 7982  12.426   1.344   3.721
35384SOL     OW 7983   4.657   9.392   4.998
35384SOL    HW1 7984   4.637   9.313   5.048
35384SOL    HW2 7985   4.743   9.419   5.029
35385SOL     OW 7986  11.096   5.095  14.342
35385SOL    HW1 7987  11.051   5.030  14.288
35385SOL    HW2 7988  11.174   5.049  14.374
35386SOL     OW 7989   9.155   1.636   6.130
35386SOL    HW1 7990   9.192   1.570   6.188
35386SOL    HW2 7991   9.094   1.589   6.074
35387SOL     OW 7992   4.276  14.599   3.181
35387SOL    HW1 7993   4.319  14.520   3.147
35387SOL    HW2 7994   4.265  14.582   3.274
35388SOL     OW 7995   5.024  12.484  11.969
35388SOL    HW1 7996   5.057  12.395  11.986
35388SOL    HW2 7997   5.013  12.522  12.056
35389SOL     OW 7998   1.731   2.623   2.228
35389SOL    HW1 7999   1.701   2.709   2.259
35389SOL    HW2 8000   1.665   2.598   2.162
35390SOL     OW 8001   1.264  12.839   8.228
35390SOL    HW1 8002   1.218  12.809   8.149
35390SOL    HW2 8003   1.294  12.758   8.270
35391SOL     OW 8004   2.401   3.563  10.504
35391SOL    HW1 8005   2.317   3.610  10.503
35391SOL    HW2 8006   2.451   3.605  10.573
35392SOL     OW 8007   7.214   9.839   9.938
35392SOL    HW1 8008   7.279   9.823  10.006
35392SOL    HW2 8009   7.164   9.914   9.969
35393SOL     OW 8010   9.943   4.459   1.395
35393SOL    HW1 8011   9.889   4.528   1.433
35393SOL    HW2 8012   9.924   4.463   1.301
35394SOL     OW 8013   2.883  13.426   2.797
35394SOL    HW1 8014   2.857  13.335   2.810
35394SOL    HW2 8015   2.852  13.471   2.876
35395SOL     OW 8016  14.862   4.872   1.409
35395SOL    HW1 8017  14.790   4.825   1.368
35395SOL    HW2 8018   0.009   4.941   1.345
35396SOL     OW 8019   2.519  11.077   2.602
35396SOL    HW1 8020   2.456  11.013   2.635
35396SOL    HW2 8021   2.505  11.154   2.657
35397SOL     OW 8022   4.326   4.487   9.708
35397SOL    HW1 8023   4.270   4.528   9.774
35397SOL    HW2 8024   4.401   4.546   9.700
35398SOL     OW 8025   0.497   6.234  12.681
35398SOL    HW1 8026   0.529   6.297  12.617
35398SOL    HW2 8027   0.576   6.196  12.719
35399SOL     OW 8028   2.281   8.787   2.685
35399SOL    HW1 8029   2.227   8.813   2.609
35399SOL    HW2 8030   2.304   8.870   2.727
35400SOL     OW 8031   9.256   7.276  14.533
35400SOL    HW1 8032   9.194   7.217  14.491
35400SOL    HW2 8033   9.202   7.349  14.565
35401SOL     OW 8034  10.654  11.036  14.093
35401SOL    HW1 8035  10.632  11.057  14.184
35401SOL    HW2 8036  10.743  11.001  14.097
35402SOL     OW 8037   0.017  14.443  14.129
35402SOL    HW1 8038   0.083  14.486  14.184
35402SOL    HW2 8039  14.852  14.515  14.081
35403SOL     OW 8040   1.103   2.160   0.756
35403SOL    HW1 8041   1.049   2.236   0.776
35403SOL    HW2 8042   1.178   2.167   0.815
35404SOL     OW 8043   6.492  12.530  11.156
35404SOL    HW1 8044   6.443  12.519  11.238
35404SOL    HW2 8045   6.580  12.556  11.184
35405SOL     OW 8046  13.615   4.257   1.049
35405SOL    HW1 8047  13.587   4.341   1.015
35405SOL    HW2 8048  13.599   4.263   1.143
35406SOL     OW 8049  13.817   0.849   5.918
35406SOL    HW1 8050  13.812   0.938   5.953
35406SOL    HW2 8051  13.783   0.856   5.829
35407SOL     OW 8052  10.720   3.160   8.173
35407SOL    HW1 8053  10.788   3.105   8.212
35407SOL    HW2 8054  10.720   3.240   8.227
35408SOL     OW 8055   7.886   9.503   4.674
35408SOL    HW1 8056   7.879   9.409   4.657
35408SOL    HW2 8057   7.954   9.510   4.741
35409SOL     OW 8058   1.527  14.092   9.823
35409SOL    HW1 8059   1.439  14.114   9.793
35409SOL    HW2 8060   1.514  14.014   9.877
35410SOL     OW 8061   0.763   8.817  13.429
35410SOL    HW1 8062   0.744   8.805  13.336
35410SOL    HW2 8063   0.718   8.744  13.472
35411SOL     OW 8064  14.236  12.733  13.854
35411SOL    HW1 8065  14.231  12.643  13.822
35411SOL    HW2 8066  14.320  12.738  13.899
35412SOL     OW 8067   0.569   5.656   8.484
35412SOL    HW1 8068   0.635   5.596   8.517
35412SOL    HW2 8069   0.599   5.743   8.513
35413SOL     OW 8070  13.712  11.299   9.864
35413SOL    HW1 8071  13.661  11.330   9.789
35413SOL    HW2 8072  13.742  11.212   9.838
35414SOL     OW 8073   2.515   9.417   7.453
35414SOL    HW1 8074   2.427   9.455   7.455
35414SOL    HW2 8075   2.566   9.473   7.511
35415SOL     OW 8076   4.405   7.134   2.414
35415SOL    HW1 8077   4.454   7.165   2.338
35415SOL    HW2 8078   4.437   7.188   2.487
35416SOL     OW 8079   9.301  11.110   5.108
35416SOL    HW1 8080   9.313  11.120   5.202
35416SOL    HW2 8081   9.246  11.184   5.082
35417SOL     OW 8082  12.783   3.799   9.629
35417SOL    HW1 8083  12.831   3.716   9.638
35417SOL    HW2 8084  12.718   3.797   9.700
35418SOL     OW 8085  11.405   4.909   9.749
35418SOL    HW1 8086  11.439   4.956   9.825
35418SOL    HW2 8087  11.451   4.948   9.674
35419SOL     OW 8088   9.499   2.844   8.871
35419SOL    HW1 8089   9.527   2.761   8.833
35419SOL    HW2 8090   9.460   2.892   8.798
35420SOL     OW 8091   9.264   2.466   4.399
35420SOL    HW1 8092   9.282   2.373   4.384
35420SOL    HW2 8093   9.271   2.477   4.493
35421SOL     OW 8094   8.941   6.823  10.293
35421SOL    HW1 8095   8.989   6.897  10.330
35421SOL    HW2 8096   8.968   6.748  10.348
35422SOL     OW 8097  13.366   1.610   0.316
35422SOL    HW1 8098  13.277   1.591   0.344
35422SOL    HW2 8099  13.398   1.673   0.380
35423SOL     OW 8100   2.824   9.502   2.286
35423SOL    HW1 8101   2.785   9.435   2.230
35423SOL    HW2 8102   2.904   9.462   2.320
35424SOL     OW 8103   6.067   2.940  12.815
35424SOL    HW1 8104   6.135   2.885  12.776
35424SOL    HW2 8105   5.996   2.879  12.835
35425SOL     OW 8106   3.446   5.687  13.312
35425SOL    HW1 8107   3.380   5.727  13.255
35425SOL    HW2 8108   3.512   5.653  13.252
35426SOL     OW 8109   2.823   5.995   7.350
35426SOL    HW1 8110   2.855   6.071   7.399
35426SOL    HW2 8111   2.778   5.942   7.415
35427SOL     OW 8112   5.658  12.102   5.083
35427SOL    HW1 8113   5.597  12.090   5.010
35427SOL    HW2 8114   5.651  12.020   5.133
35428SOL     OW 8115  11.751   4.056  14.849
35428SOL    HW1 8116  11.734   3.966   0.002
35428SOL    HW2 8117  11.805   4.045  14.770
35429SOL     OW 8118   0.114  11.541   6.351
35429SOL    HW1 8119   0.171  11.524   6.276
35429SOL    HW2 8120   0.071  11.624   6.330
35430SOL     OW 8121   4.309  14.220   2.274
35430SOL    HW1 8122   4.315  14.158   2.202
35430SOL    HW2 8123   4.262  14.295   2.238
35431SOL     OW 8124   0.949  10.505   6.954
35431SOL    HW1 8125   1.030  10.544   6.920
35431SOL    HW2 8126   0.979  10.436   7.013
35432SOL     OW 8127   1.254   7.918  12.443
35432SOL    HW1 8128   1.189   7.855  12.473
35432SOL    HW2 8129   1.278   7.888  12.356
35433SOL     OW 8130   7.579   2.355   4.640
35433SOL    HW1 8131   7.567   2.439   4.597
35433SOL    HW2 8132   7.623   2.300   4.574
35434SOL     OW 8133  12.244  14.770   7.299
35434SOL    HW1 8134  12.163  14.789   7.346
35434SOL    HW2 8135  12.251  14.839   7.233
35435SOL     OW 8136   4.525  14.620   1.266
35435SOL    HW1 8137   4.593  14.567   1.226
35435SOL    HW2 8138   4.443  14.580   1.238
35436SOL     OW 8139   7.074  12.672   4.591
35436SOL    HW1 8140   7.087  12.731   4.665
35436SOL    HW2 8141   7.066  12.729   4.515
35437SOL     OW 8142   7.802   5.876   2.749
35437SOL    HW1 8143   7.753   5.933   2.690
35437SOL    HW2 8144   7.811   5.794   2.701
35438SOL     OW 8145   0.053   6.524  12.660
35438SOL    HW1 8146   0.127   6.577  12.688
35438SOL    HW2 8147   0.025   6.564  12.577
35439SOL     OW 8148   0.631   5.762   5.411
35439SOL    HW1 8149   0.588   5.693   5.461
35439SOL    HW2 8150   0.705   5.789   5.467
35440SOL     OW 8151   0.023   5.937  10.316
35440SOL    HW1 8152   0.026   5.867  10.251
35440SOL    HW2 8153  14.845   6.005  10.276
35441SOL     OW 8154   9.493  12.376   3.189
35441SOL    HW1 8155   9.463  12.301   3.138
35441SOL    HW2 8156   9.509  12.445   3.125
35442SOL     OW 8157  13.701   8.280   9.953
35442SOL    HW1 8158  13.796   8.292   9.964
35442SOL    HW2 8159  13.663   8.356   9.997
35443SOL     OW 8160   6.430   5.560   9.957
35443SOL    HW1 8161   6.422   5.612   9.877
35443SOL    HW2 8162   6.339   5.544   9.984
35444SOL     OW 8163  10.156  12.169  10.602
35444SOL    HW1 8164  10.111  12.121  10.532
35444SOL    HW2 8165  10.245  12.182  10.569
35445SOL     OW 8166  12.234  12.006   1.033
35445SOL    HW1 8167  12.202  12.073   1.093
35445SOL    HW2 8168  12.234  12.049   0.947
35446SOL     OW 8169  11.319   4.198  13.449
35446SOL    HW1 8170  11.398   4.252  13.445
35446SOL    HW2 8171  11.250   4.258  13.479
35447SOL     OW 8172   1.958   3.211   8.865
35447SOL    HW1 8173   1.963   3.253   8.950
35447SOL    HW2 8174   2.008   3.130   8.875
35448SOL     OW 8175   3.308   3.680   3.786
35448SOL    HW1 8176   3.287   3.713   3.873
35448SOL    HW2 8177   3.403   3.694   3.777
35449SOL     OW 8178   8.406   1.412  11.998
35449SOL    HW1 8179   8.438   1.476  12.062
35449SOL    HW2 8180   8.357   1.465  11.935
35450SOL     OW 8181   3.084   3.902   3.029
35450SOL    HW1 8182   3.160   3.875   3.080
35450SOL    HW2 8183   3.048   3.820   2.995
35451SOL     OW 8184   9.418  11.711   5.012
35451SOL    HW1 8185   9.427  11.640   5.076
35451SOL    HW2 8186   9.377  11.670   4.936
35452SOL     OW 8187  10.308   1.312   7.709
35452SOL    HW1 8188  10.308   1.348   7.620
35452SOL    HW2 8189  10.286   1.387   7.765
35453SOL     OW 8190   1.687   5.110  13.089
35453SOL    HW1 8191   1.725   5.099  13.177
35453SOL    HW2 8192   1.750   5.068  13.031
35454SOL     OW 8193   7.636  14.241  11.590
35454SOL    HW1 8194   7.587  14.185  11.650
35454SOL    HW2 8195   7.702  14.283  11.645
35455SOL     OW 8196  13.169  13.788   6.817
35455SOL    HW1 8197  13.253  13.767   6.859
35455SOL    HW2 8198  13.109  13.803   6.891
35456SOL     OW 8199  11.698  10.258   0.197
35456SOL    HW1 8200  11.678  10.310   0.275
35456SOL    HW2 8201  11.615  10.216   0.174
35457SOL     OW 8202   8.448   4.913   4.991
35457SOL    HW1 8203   8.381   4.849   4.970
35457SOL    HW2 8204   8.508   4.867   5.050
35458SOL     OW 8205   3.820  14.740   9.947
35458SOL    HW1 8206   3.899  14.719   9.897
35458SOL    HW2 8207   3.756  14.765   9.881
35459SOL     OW 8208   0.320   0.347  11.775
35459SOL    HW1 8209   0.414   0.343  11.757
35459SOL    HW2 8210   0.314   0.364  11.869
35460SOL     OW 8211   2.855   9.316  13.569
35460SOL    HW1 8212   2.770   9.289  13.533
35460SOL    HW2 8213   2.919   9.286  13.504
35461SOL     OW 8214   1.449  11.564   3.947
35461SOL    HW1 8215   1.413  11.651   3.932
35461SOL    HW2 8216   1.469  11.530   3.860
35462SOL     OW 8217  10.366  14.619  11.610
35462SOL    HW1 8218  10.270  14.614  11.604
35462SOL    HW2 8219  10.383  14.708  11.642
35463SOL     OW 8220  11.071   3.356   9.039
35463SOL    HW1 8221  11.004   3.349   8.971
35463SOL    HW2 8222  11.135   3.289   9.017
35464SOL     OW 8223  13.071   1.689   6.947
35464SOL    HW1 8224  13.139   1.688   6.880
35464SOL    HW2 8225  12.989   1.692   6.898
35465SOL     OW 8226   8.193   2.000   8.262
35465SOL    HW1 8227   8.126   1.980   8.327
35465SOL    HW2 8228   8.222   1.915   8.230
35466SOL     OW 8229   8.592   5.029   2.662
35466SOL    HW1 8230   8.513   5.036   2.716
35466SOL    HW2 8231   8.595   5.112   2.614
35467SOL     OW 8232   4.478   5.732   9.995
35467SOL    HW1 8233   4.490   5.753   9.903
35467SOL    HW2 8234   4.406   5.669   9.996
35468SOL     OW 8235  13.804   0.398   1.188
35468SOL    HW1 8236  13.735   0.422   1.249
35468SOL    HW2 8237  13.839   0.482   1.156
35469SOL     OW 8238  12.285   2.471   2.057
35469SOL    HW1 8239  12.281   2.547   1.999
35469SOL    HW2 8240  12.333   2.405   2.007
35470SOL     OW 8241  12.346   4.876   9.619
35470SOL    HW1 8242  12.311   4.964   9.636
35470SOL    HW2 8243  12.270   4.827   9.586
35471SOL     OW 8244   2.908   0.317  13.300
35471SOL    HW1 8245   2.883   0.276  13.383
35471SOL    HW2 8246   2.990   0.363  13.320
35472SOL     OW 8247   6.773  11.817   5.344
35472SOL    HW1 8248   6.725  11.853   5.419
35472SOL    HW2 8249   6.865  11.818   5.371
35473SOL     OW 8250   4.046   2.703   3.129
35473SOL    HW1 8251   4.093   2.649   3.193
35473SOL    HW2 8252   3.978   2.747   3.179
35474SOL     OW 8253   1.667   2.934  10.537
35474SOL    HW1 8254   1.694   2.948  10.628
35474SOL    HW2 8255   1.661   2.839  10.529
35475SOL     OW 8256  11.990  13.331   8.923
35475SOL    HW1 8257  11.975  13.240   8.895
35475SOL    HW2 8258  12.028  13.373   8.846
35476SOL     OW 8259   6.963   7.828   0.573
35476SOL    HW1 8260   6.998   7.754   0.622
35476SOL    HW2 8261   6.870   7.809   0.563
35477SOL     OW 8262   2.376   4.364  14.589
35477SOL    HW1 8263   2.337   4.283  14.555
35477SOL    HW2 8264   2.377   4.423  14.514
35478SOL     OW 8265  13.095  12.533   2.296
35478SOL    HW1 8266  13.045  12.475   2.238
35478SOL    HW2 8267  13.029  12.586   2.341
35479SOL     OW 8268   2.653  14.492   1.139
35479SOL    HW1 8269   2.652  14.569   1.195
35479SOL    HW2 8270   2.697  14.425   1.191
35480SOL     OW 8271   8.391  11.603   2.145
35480SOL    HW1 8272   8.397  11.521   2.193
35480SOL    HW2 8273   8.297  11.623   2.143
35481SOL     OW 8274   6.287   3.193   1.118
35481SOL    HW1 8275   6.347   3.139   1.169
35481SOL    HW2 8276   6.322   3.190   1.029
35482SOL     OW 8277   9.378  10.850   5.848
35482SOL    HW1 8278   9.464  10.810   5.863
35482SOL    HW2 8279   9.327  10.782   5.804
35483SOL     OW 8280  12.802  10.409   9.530
35483SOL    HW1 8281  12.893  10.381   9.539
35483SOL    HW2 8282  12.774  10.374   9.445
35484SOL     OW 8283  11.872  10.512   6.475
35484SOL    HW1 8284  11.863  10.430   6.523
35484SOL    HW2 8285  11.927  10.490   6.400
35485SOL     OW 8286  11.302  11.170  14.035
35485SOL    HW1 8287  11.318  11.260  14.005
35485SOL    HW2 8288  11.327  11.115  13.961
35486SOL     OW 8289   1.942  13.087   9.276
35486SOL    HW1 8290   1.902  13.003   9.253
35486SOL    HW2 8291   2.027  13.062   9.315
35487SOL     OW 8292   9.083   3.882  11.103
35487SOL    HW1 8293   9.151   3.815  11.114
35487SOL    HW2 8294   9.111   3.954  11.159
35488SOL     OW 8295   5.191   2.903  10.252
35488SOL    HW1 8296   5.266   2.935  10.202
35488SOL    HW2 8297   5.222   2.899  10.342
35489SOL     OW 8298   9.615  14.175  12.538
35489SOL    HW1 8299   9.618  14.080  12.532
35489SOL    HW2 8300   9.534  14.199  12.492
35490SOL     OW 8301   2.526   9.149   1.779
35490SOL    HW1 8302   2.432   9.136   1.763
35490SOL    HW2 8303   2.540   9.116   1.868
35491SOL     OW 8304   2.506   2.194   0.772
35491SOL    HW1 8305   2.450   2.153   0.838
35491SOL    HW2 8306   2.484   2.150   0.690
35492SOL     OW 8307   2.529  14.845   3.200
35492SOL    HW1 8308   2.566   0.000   3.282
35492SOL    HW2 8309   2.535   0.045   3.141
35493SOL     OW 8310  14.702   2.859   5.125
35493SOL    HW1 8311  14.630   2.920   5.106
35493SOL    HW2 8312  14.678   2.821   5.210
35494SOL     OW 8313   7.163  13.253   3.053
35494SOL    HW1 8314   7.161  13.230   2.960
35494SOL    HW2 8315   7.168  13.349   3.053
35495SOL     OW 8316   1.144   2.469   9.853
35495SOL    HW1 8317   1.211   2.475   9.922
35495SOL    HW2 8318   1.113   2.559   9.842
35496SOL     OW 8319  13.532   7.884   6.767
35496SOL    HW1 8320  13.585   7.865   6.689
35496SOL    HW2 8321  13.500   7.798   6.796
35497SOL     OW 8322   1.456   1.320   4.360
35497SOL    HW1 8323   1.450   1.264   4.437
35497SOL    HW2 8324   1.366   1.325   4.327
35498SOL     OW 8325  14.752  13.765   3.836
35498SOL    HW1 8326  14.697  13.810   3.772
35498SOL    HW2 8327  14.840  13.769   3.799
35499SOL     OW 8328   9.101   4.786   3.946
35499SOL    HW1 8329   9.111   4.792   4.042
35499SOL    HW2 8330   9.133   4.699   3.924
35500SOL     OW 8331   6.447   2.566  10.673
35500SOL    HW1 8332   6.461   2.551  10.767
35500SOL    HW2 8333   6.471   2.657  10.659
35501SOL     OW 8334   3.306  11.820  11.720
35501SOL    HW1 8335   3.261  11.835  11.637
35501SOL    HW2 8336   3.248  11.761  11.769
35502SOL     OW 8337   2.869   4.978   5.420
35502SOL    HW1 8338   2.839   4.899   5.375
35502SOL    HW2 8339   2.788   5.021   5.449
35503SOL     OW 8340   8.228   0.989   8.793
35503SOL    HW1 8341   8.189   1.051   8.731
35503SOL    HW2 8342   8.248   1.043   8.870
35504SOL     OW 8343   8.639   3.767   4.297
35504SOL    HW1 8344   8.552   3.745   4.264
35504SOL    HW2 8345   8.625   3.784   4.390
35505SOL     OW 8346   7.290   3.247  14.773
35505SOL    HW1 8347   7.214   3.301  14.752
35505SOL    HW2 8348   7.317   3.209  14.689
35506SOL     OW 8349   8.185   8.527  10.010
35506SOL    HW1 8350   8.099   8.533   9.968
35506SOL    HW2 8351   8.247   8.527   9.938
35507SOL     OW 8352   5.910   4.306   4.833
35507SOL    HW1 8353   5.839   4.243   4.823
35507SOL    HW2 8354   5.874   4.374   4.891
35508SOL     OW 8355   3.342  14.104   9.090
35508SOL    HW1 8356   3.321  14.185   9.044
35508SOL    HW2 8357   3.431  14.117   9.122
35509SOL     OW 8358   7.176  10.601  14.394
35509SOL    HW1 8359   7.209  10.576  14.308
35509SOL    HW2 8360   7.233  10.672  14.423
35510SOL     OW 8361  13.566   0.711  13.109
35510SOL    HW1 8362  13.650   0.701  13.064
35510SOL    HW2 8363  13.570   0.799  13.147
35511SOL     OW 8364   6.500  11.248  14.394
35511SOL    HW1 8365   6.596  11.252  14.389
35511SOL    HW2 8366   6.470  11.286  14.311
35512SOL     OW 8367  14.232   7.356   5.908
35512SOL    HW1 8368  14.279   7.417   5.851
35512SOL    HW2 8369  14.140   7.368   5.884
35513SOL     OW 8370   7.101   1.354  14.578
35513SOL    HW1 8371   7.167   1.285  14.584
35513SOL    HW2 8372   7.051   1.332  14.500
35514SOL     OW 8373   0.025   6.425  12.169
35514SOL    HW1 8374   0.009   6.481  12.245
35514SOL    HW2 8375   0.003   6.337  12.199
35515SOL     OW 8376   7.126  14.772   2.080
35515SOL    HW1 8377   7.175  14.853   2.084
35515SOL    HW2 8378   7.075  14.770   2.161
35516SOL     OW 8379  14.649  11.985   2.723
35516SOL    HW1 8380  14.649  11.917   2.791
35516SOL    HW2 8381  14.741  12.005   2.709
35517SOL     OW 8382   6.807   6.916  10.167
35517SOL    HW1 8383   6.713   6.910  10.152
35517SOL    HW2 8384   6.815   6.921  10.263
35518SOL     OW 8385   3.721  12.175   0.809
35518SOL    HW1 8386   3.763  12.233   0.873
35518SOL    HW2 8387   3.739  12.087   0.842
35519SOL     OW 8388   7.285  12.443   8.022
35519SOL    HW1 8389   7.329  12.376   8.073
35519SOL    HW2 8390   7.293  12.523   8.073
35520SOL     OW 8391  13.801   1.003   3.035
35520SOL    HW1 8392  13.827   1.003   2.943
35520SOL    HW2 8393  13.796   1.096   3.058
35521SOL     OW 8394  14.404  14.833  10.665
35521SOL    HW1 8395  14.434  14.851  10.576
35521SOL    HW2 8396  14.334   0.020  10.680
35522SOL     OW 8397   5.906  10.208  13.735
35522SOL    HW1 8398   5.914  10.136  13.671
35522SOL    HW2 8399   5.852  10.171  13.805
35523SOL     OW 8400  10.262   3.987   2.124
35523SOL    HW1 8401  10.249   3.933   2.203
35523SOL    HW2 8402  10.354   3.975   2.102
35524SOL     OW 8403   8.707  10.527   5.795
35524SOL    HW1 8404   8.668  10.444   5.822
35524SOL    HW2 8405   8.680  10.537   5.703
35525SOL     OW 8406   2.735  13.226   5.325
35525SOL    HW1 8407   2.816  13.219   5.274
35525SOL    HW2 8408   2.729  13.142   5.371
35526SOL     OW 8409   8.467  12.471  12.001
35526SOL    HW1 8410   8.410  12.409  11.956
35526SOL    HW2 8411   8.521  12.509  11.931
35527SOL     OW 8412   0.480   7.164   2.589
35527SOL    HW1 8413   0.551   7.200   2.642
35527SOL    HW2 8414   0.506   7.074   2.571
35528SOL     OW 8415   1.906   4.970   3.569
35528SOL    HW1 8416   1.893   5.003   3.480
35528SOL    HW2 8417   1.824   4.992   3.614
35529SOL     OW 8418  13.288   3.959   2.876
35529SOL    HW1 8419  13.287   4.053   2.856
35529SOL    HW2 8420  13.207   3.926   2.837
35530SOL     OW 8421   5.258  13.601   3.701
35530SOL    HW1 8422   5.351  13.610   3.681
35530SOL    HW2 8423   5.236  13.683   3.746
35531SOL     OW 8424   5.186  10.439  14.417
35531SOL    HW1 8425   5.232  10.367  14.461
35531SOL    HW2 8426   5.195  10.513  14.478
35532SOL     OW 8427  12.503   6.393   6.120
35532SOL    HW1 8428  12.507   6.347   6.037
35532SOL    HW2 8429  12.453   6.472   6.101
35533SOL     OW 8430   3.166   2.792  11.935
35533SOL    HW1 8431   3.084   2.746  11.956
35533SOL    HW2 8432   3.226   2.722  11.910
35534SOL     OW 8433  14.324  11.938   9.117
35534SOL    HW1 8434  14.338  11.883   9.040
35534SOL    HW2 8435  14.412  11.966   9.142
35535SOL     OW 8436   4.604   8.891   5.528
35535SOL    HW1 8437   4.526   8.836   5.517
35535SOL    HW2 8438   4.569   8.978   5.547
35536SOL     OW 8439   0.029  11.202   7.902
35536SOL    HW1 8440  14.819  11.179   7.865
35536SOL    HW2 8441   0.084  11.126   7.884
35537SOL     OW 8442  13.335   3.908   8.711
35537SOL    HW1 8443  13.301   3.997   8.700
35537SOL    HW2 8444  13.384   3.911   8.793
35538SOL     OW 8445   3.438  10.955  14.408
35538SOL    HW1 8446   3.419  10.962  14.501
35538SOL    HW2 8447   3.363  10.908  14.371
35539SOL     OW 8448   1.162   3.703   2.815
35539SOL    HW1 8449   1.110   3.776   2.850
35539SOL    HW2 8450   1.197   3.659   2.892
35540SOL     OW 8451   9.701   3.032  13.326
35540SOL    HW1 8452   9.676   3.090  13.397
35540SOL    HW2 8453   9.791   3.057  13.305
35541SOL     OW 8454   4.449   3.713  11.916
35541SOL    HW1 8455   4.507   3.637  11.919
35541SOL    HW2 8456   4.362   3.677  11.897
35542SOL     OW 8457  11.091  12.125   1.707
35542SOL    HW1 8458  11.006  12.092   1.738
35542SOL    HW2 8459  11.105  12.078   1.625
35543SOL     OW 8460   7.596   5.568  10.432
35543SOL    HW1 8461   7.682   5.528  10.421
35543SOL    HW2 8462   7.567   5.589  10.343
35544SOL     OW 8463   1.519   4.645  10.913
35544SOL    HW1 8464   1.462   4.570  10.929
35544SOL    HW2 8465   1.559   4.663  10.999
35545SOL     OW 8466  14.664  12.666  13.133
35545SOL    HW1 8467  14.731  12.685  13.068
35545SOL    HW2 8468  14.582  12.693  13.092
35546SOL     OW 8469   1.006  10.933   2.863
35546SOL    HW1 8470   1.056  10.997   2.914
35546SOL    HW2 8471   0.915  10.964   2.868
35547SOL     OW 8472   8.865   2.943  12.503
35547SOL    HW1 8473   8.917   3.021  12.485
35547SOL    HW2 8474   8.814   2.929  12.423
35548SOL     OW 8475   1.721   4.604  14.367
35548SOL    HW1 8476   1.740   4.633  14.277
35548SOL    HW2 8477   1.799   4.555  14.393
35549SOL     OW 8478  11.393   0.353   7.554
35549SOL    HW1 8479  11.390   0.362   7.459
35549SOL    HW2 8480  11.304   0.375   7.583
35550SOL     OW 8481  14.027  11.865  12.409
35550SOL    HW1 8482  13.998  11.956  12.411
35550SOL    HW2 8483  14.096  11.860  12.475
35551SOL     OW 8484   2.281   4.190   6.079
35551SOL    HW1 8485   2.255   4.124   6.143
35551SOL    HW2 8486   2.199   4.229   6.050
35552SOL     OW 8487   8.002  12.280   5.684
35552SOL    HW1 8488   7.975  12.213   5.621
35552SOL    HW2 8489   8.088  12.308   5.654
35553SOL     OW 8490   5.502   7.575   7.374
35553SOL    HW1 8491   5.449   7.499   7.350
35553SOL    HW2 8492   5.530   7.557   7.464
35554SOL     OW 8493  11.519  11.605   8.752
35554SOL    HW1 8494  11.437  11.559   8.734
35554SOL    HW2 8495  11.588  11.541   8.732
35555SOL     OW 8496   4.372  10.125  14.430
35555SOL    HW1 8497   4.331  10.171  14.502
35555SOL    HW2 8498   4.300  10.102  14.372
35556SOL     OW 8499   7.103  13.624   1.987
35556SOL    HW1 8500   7.029  13.595   1.933
35556SOL    HW2 8501   7.171  13.559   1.973
35557SOL     OW 8502   3.319  12.327   6.666
35557SOL    HW1 8503   3.228  12.337   6.638
35557SOL    HW2 8504   3.358  12.412   6.650
35558SOL     OW 8505   4.889   7.785   8.422
35558SOL    HW1 8506   4.900   7.735   8.503
35558SOL    HW2 8507   4.804   7.828   8.432
35559SOL     OW 8508   9.968   9.164   1.878
35559SOL    HW1 8509   9.943   9.255   1.895
35559SOL    HW2 8510   9.986   9.128   1.965
35560SOL     OW 8511  11.959   4.312   9.078
35560SOL    HW1 8512  12.001   4.363   9.148
35560SOL    HW2 8513  12.022   4.314   9.006
35561SOL     OW 8514   1.975  13.791   6.583
35561SOL    HW1 8515   2.056  13.834   6.556
35561SOL    HW2 8516   1.977  13.706   6.538
35562SOL     OW 8517  10.378   9.174   3.731
35562SOL    HW1 8518  10.427   9.208   3.657
35562SOL    HW2 8519  10.291   9.155   3.696
35563SOL     OW 8520  10.280  11.797   9.255
35563SOL    HW1 8521  10.243  11.874   9.299
35563SOL    HW2 8522  10.331  11.753   9.324
35564SOL     OW 8523  10.429   9.045   9.572
35564SOL    HW1 8524  10.470   9.076   9.652
35564SOL    HW2 8525  10.456   9.109   9.505
35565SOL     OW 8526   2.423   0.664   0.598
35565SOL    HW1 8527   2.349   0.714   0.632
35565SOL    HW2 8528   2.423   0.584   0.650
35566SOL     OW 8529   6.527   8.559   0.418
35566SOL    HW1 8530   6.543   8.577   0.325
35566SOL    HW2 8531   6.590   8.614   0.465
35567SOL     OW 8532   8.467  11.481   9.215
35567SOL    HW1 8533   8.557  11.482   9.184
35567SOL    HW2 8534   8.472  11.511   9.306
35568SOL     OW 8535   9.700   0.986  13.026
35568SOL    HW1 8536   9.727   1.035  12.949
35568SOL    HW2 8537   9.739   0.899  13.015
35569SOL     OW 8538  13.779  10.597   6.781
35569SOL    HW1 8539  13.848  10.628   6.722
35569SOL    HW2 8540  13.700  10.640   6.748
35570SOL     OW 8541   8.141  10.595   6.762
35570SOL    HW1 8542   8.077  10.581   6.692
35570SOL    HW2 8543   8.093  10.575   6.843
35571SOL     OW 8544   7.170   6.716   7.824
35571SOL    HW1 8545   7.129   6.792   7.782
35571SOL    HW2 8546   7.229   6.753   7.889
35572SOL     OW 8547   1.939  10.750  13.011
35572SOL    HW1 8548   1.948  10.843  12.991
35572SOL    HW2 8549   2.002  10.734  13.081
35573SOL     OW 8550  13.296   8.620  12.061
35573SOL    HW1 8551  13.346   8.571  11.995
35573SOL    HW2 8552  13.314   8.712  12.042
35574SOL     OW 8553   8.365   8.299  10.431
35574SOL    HW1 8554   8.348   8.204  10.430
35574SOL    HW2 8555   8.296   8.336  10.376
35575SOL     OW 8556   4.529   6.167   1.938
35575SOL    HW1 8557   4.492   6.255   1.947
35575SOL    HW2 8558   4.609   6.170   1.991
35576SOL     OW 8559   8.062  11.617   8.168
35576SOL    HW1 8560   8.151  11.608   8.134
35576SOL    HW2 8561   8.074  11.640   8.260
35577SOL     OW 8562   4.704   0.669   7.583
35577SOL    HW1 8563   4.674   0.759   7.590
35577SOL    HW2 8564   4.799   0.675   7.589
35578SOL     OW 8565   9.733   2.712  12.325
35578SOL    HW1 8566   9.764   2.709  12.235
35578SOL    HW2 8567   9.705   2.802  12.338
35579SOL     OW 8568   7.922   3.405  13.869
35579SOL    HW1 8569   7.865   3.357  13.929
35579SOL    HW2 8570   7.870   3.418  13.790
35580SOL     OW 8571  14.057   7.796   3.876
35580SOL    HW1 8572  13.976   7.824   3.834
35580SOL    HW2 8573  14.040   7.804   3.970
35581SOL     OW 8574   1.186   9.745   6.610
35581SOL    HW1 8575   1.215   9.673   6.553
35581SOL    HW2 8576   1.109   9.781   6.566
35582SOL     OW 8577   7.892   9.682   6.203
35582SOL    HW1 8578   7.803   9.666   6.234
35582SOL    HW2 8579   7.940   9.714   6.279
35583SOL     OW 8580  12.908  10.662   4.213
35583SOL    HW1 8581  12.944  10.613   4.139
35583SOL    HW2 8582  12.976  10.658   4.279
35584SOL     OW 8583   4.440   3.014   7.665
35584SOL    HW1 8584   4.484   2.937   7.628
35584SOL    HW2 8585   4.510   3.059   7.713
35585SOL     OW 8586  13.633   0.406   0.938
35585SOL    HW1 8587  13.547   0.384   0.902
35585SOL    HW2 8588  13.638   0.356   1.019
35586SOL     OW 8589   3.647  13.582   7.967
35586SOL    HW1 8590   3.709  13.591   8.038
35586SOL    HW2 8591   3.562  13.598   8.007
35587SOL     OW 8592   3.953   8.441   7.747
35587SOL    HW1 8593   3.930   8.447   7.840
35587SOL    HW2 8594   3.985   8.528   7.724
35588SOL     OW 8595  12.561   3.062  13.187
35588SOL    HW1 8596  12.587   3.154  13.190
35588SOL    HW2 8597  12.627   3.016  13.239
35589SOL     OW 8598  14.824   7.303   3.976
35589SOL    HW1 8599  14.755   7.261   3.924
35589SOL    HW2 8600   0.015   7.235   3.985
35590SOL     OW 8601   0.775   7.993   8.002
35590SOL    HW1 8602   0.762   8.087   8.017
35590SOL    HW2 8603   0.751   7.980   7.910
35591SOL     OW 8604  11.064   3.407  12.566
35591SOL    HW1 8605  11.133   3.456  12.522
35591SOL    HW2 8606  11.030   3.348  12.499
35592SOL     OW 8607   7.015  14.186  13.994
35592SOL    HW1 8608   7.091  14.215  14.045
35592SOL    HW2 8609   7.042  14.197  13.903
35593SOL     OW 8610   9.171  13.221   4.514
35593SOL    HW1 8611   9.233  13.294   4.522
35593SOL    HW2 8612   9.162  13.207   4.420
35594SOL     OW 8613   6.999  10.291  13.352
35594SOL    HW1 8614   7.018  10.225  13.419
35594SOL    HW2 8615   6.916  10.264  13.314
35595SOL     OW 8616  14.137  10.993   9.506
35595SOL    HW1 8617  14.111  11.043   9.429
35595SOL    HW2 8618  14.054  10.968   9.548
35596SOL     OW 8619  12.216  11.407   5.082
35596SOL    HW1 8620  12.309  11.421   5.100
35596SOL    HW2 8621  12.172  11.426   5.165
35597SOL     OW 8622   9.705   9.647   6.641
35597SOL    HW1 8623   9.788   9.621   6.680
35597SOL    HW2 8624   9.639   9.624   6.707
35598SOL     OW 8625  13.758   1.074  10.632
35598SOL    HW1 8626  13.801   1.004  10.680
35598SOL    HW2 8627  13.742   1.038  10.545
35599SOL     OW 8628  11.798  10.309   2.902
35599SOL    HW1 8629  11.708  10.278   2.898
35599SOL    HW2 8630  11.826  10.313   2.810
35600SOL     OW 8631   6.147   2.363  11.376
35600SOL    HW1 8632   6.126   2.456  11.376
35600SOL    HW2 8633   6.062   2.319  11.379
35601SOL     OW 8634  10.398   2.398  14.451
35601SOL    HW1 8635  10.339   2.331  14.484
35601SOL    HW2 8636  10.478   2.388  14.503
35602SOL     OW 8637  11.809   4.306   0.570
35602SOL    HW1 8638  11.901   4.302   0.598
35602SOL    HW2 8639  11.814   4.329   0.477
35603SOL     OW 8640   5.630  12.710   8.580
35603SOL    HW1 8641   5.595  12.795   8.553
35603SOL    HW2 8642   5.557  12.649   8.569
35604SOL     OW 8643   4.033   9.377   7.228
35604SOL    HW1 8644   4.118   9.355   7.189
35604SOL    HW2 8645   3.979   9.405   7.154
35605SOL     OW 8646  14.244   7.418  13.898
35605SOL    HW1 8647  14.274   7.327  13.896
35605SOL    HW2 8648  14.161   7.417  13.850
35606SOL     OW 8649   6.619   4.491   9.616
35606SOL    HW1 8650   6.691   4.463   9.673
35606SOL    HW2 8651   6.556   4.420   9.620
35607SOL     OW 8652   1.403   1.313  11.412
35607SOL    HW1 8653   1.358   1.391  11.379
35607SOL    HW2 8654   1.376   1.243  11.353
35608SOL     OW 8655   7.202   4.834   2.532
35608SOL    HW1 8656   7.216   4.917   2.487
35608SOL    HW2 8657   7.209   4.855   2.625
35609SOL     OW 8658   1.165   6.097   6.983
35609SOL    HW1 8659   1.110   6.076   7.058
35609SOL    HW2 8660   1.197   6.012   6.953
35610SOL     OW 8661   3.792  12.069  10.089
35610SOL    HW1 8662   3.871  12.059  10.036
35610SOL    HW2 8663   3.819  12.126  10.161
35611SOL     OW 8664   6.373  10.716   9.971
35611SOL    HW1 8665   6.364  10.712   9.875
35611SOL    HW2 8666   6.465  10.738   9.985
35612SOL     OW 8667   1.245   0.221   9.770
35612SOL    HW1 8668   1.165   0.253   9.728
35612SOL    HW2 8669   1.315   0.272   9.730
35613SOL     OW 8670   8.962   5.890   3.325
35613SOL    HW1 8671   9.042   5.926   3.363
35613SOL    HW2 8672   8.971   5.795   3.336
35614SOL     OW 8673   6.551   5.597   1.089
35614SOL    HW1 8674   6.476   5.654   1.108
35614SOL    HW2 8675   6.600   5.594   1.172
35615SOL     OW 8676   2.028   8.837   3.913
35615SOL    HW1 8677   2.069   8.785   3.844
35615SOL    HW2 8678   2.076   8.813   3.992
35616SOL     OW 8679   1.578  12.958  14.065
35616SOL    HW1 8680   1.513  12.992  14.126
35616SOL    HW2 8681   1.592  13.029  14.002
35617SOL     OW 8682  13.094  12.840   4.001
35617SOL    HW1 8683  13.134  12.900   3.939
35617SOL    HW2 8684  13.041  12.896   4.058
35618SOL     OW 8685   0.094   7.919   4.389
35618SOL    HW1 8686   0.076   7.939   4.481
35618SOL    HW2 8687   0.187   7.898   4.387
35619SOL     OW 8688  14.173  11.617   2.280
35619SOL    HW1 8689  14.225  11.597   2.357
35619SOL    HW2 8690  14.199  11.705   2.255
35620SOL     OW 8691   9.865   1.077   5.007
35620SOL    HW1 8692   9.834   1.163   5.037
35620SOL    HW2 8693   9.887   1.031   5.088
35621SOL     OW 8694   3.192   0.773  11.470
35621SOL    HW1 8695   3.281   0.806  11.474
35621SOL    HW2 8696   3.138   0.848  11.496
35622SOL     OW 8697   2.298   4.505   0.248
35622SOL    HW1 8698   2.353   4.582   0.236
35622SOL    HW2 8699   2.217   4.539   0.287
35623SOL     OW 8700   6.980   4.269  13.936
35623SOL    HW1 8701   6.893   4.239  13.910
35623SOL    HW2 8702   6.966   4.310  14.022
35624SOL     OW 8703   1.556   9.248  13.465
35624SOL    HW1 8704   1.515   9.333  13.447
35624SOL    HW2 8705   1.567   9.208  13.378
35625SOL     OW 8706  14.375   8.450   6.133
35625SOL    HW1 8707  14.288   8.473   6.101
35625SOL    HW2 8708  14.415   8.400   6.061
35626SOL     OW 8709   9.654  10.144  14.164
35626SOL    HW1 8710   9.609  10.136  14.080
35626SOL    HW2 8711   9.713  10.218  14.152
35627SOL     OW 8712   9.241   7.731   4.428
35627SOL    HW1 8713   9.169   7.764   4.375
35627SOL    HW2 8714   9.251   7.794   4.499
35628SOL     OW 8715   3.261   2.604   6.054
35628SOL    HW1 8716   3.211   2.533   6.013
35628SOL    HW2 8717   3.352   2.575   6.048
35629SOL     OW 8718   9.714  10.597   9.365
35629SOL    HW1 8719   9.786  10.544   9.331
35629SOL    HW2 8720   9.755  10.661   9.422
35630SOL     OW 8721   6.523  11.153  14.690
35630SOL    HW1 8722   6.501  11.102  14.611
35630SOL    HW2 8723   6.461  11.226  14.688
35631SOL     OW 8724  11.133   6.195   7.222
35631SOL    HW1 8725  11.210   6.186   7.166
35631SOL    HW2 8726  11.164   6.177   7.310
35632SOL     OW 8727   7.013   3.845  12.944
35632SOL    HW1 8728   7.058   3.800  12.873
35632SOL    HW2 8729   6.923   3.856  12.913
35633SOL     OW 8730  12.550   5.807  10.400
35633SOL    HW1 8731  12.595   5.735  10.444
35633SOL    HW2 8732  12.500   5.765  10.330
35634SOL     OW 8733   0.292   2.473  13.161
35634SOL    HW1 8734   0.381   2.448  13.136
35634SOL    HW2 8735   0.254   2.393  13.196
35635SOL     OW 8736   9.496   7.405   8.685
35635SOL    HW1 8737   9.475   7.383   8.775
35635SOL    HW2 8738   9.437   7.350   8.632
35636SOL     OW 8739  13.371  12.701   2.361
35636SOL    HW1 8740  13.302  12.703   2.294
35636SOL    HW2 8741  13.325  12.687   2.443
35637SOL     OW 8742   2.614   3.740  13.273
35637SOL    HW1 8743   2.530   3.695  13.280
35637SOL    HW2 8744   2.675   3.687  13.324
35638SOL     OW 8745   8.265   7.242   3.364
35638SOL    HW1 8746   8.298   7.323   3.325
35638SOL    HW2 8747   8.181   7.227   3.322
35639SOL     OW 8748   9.243  11.317  10.453
35639SOL    HW1 8749   9.221  11.225  10.468
35639SOL    HW2 8750   9.338  11.317  10.438
35640SOL     OW 8751   0.961   4.251   7.407
35640SOL    HW1 8752   0.992   4.310   7.475
35640SOL    HW2 8753   0.935   4.309   7.335
35641SOL     OW 8754   1.134   3.314   0.365
35641SOL    HW1 8755   1.219   3.275   0.386
35641SOL    HW2 8756   1.088   3.316   0.449
35642SOL     OW 8757  14.212  12.901   6.156
35642SOL    HW1 8758  14.238  12.960   6.086
35642SOL    HW2 8759  14.264  12.821   6.140
35643SOL     OW 8760  11.988   1.165   9.746
35643SOL    HW1 8761  12.038   1.088   9.774
35643SOL    HW2 8762  11.901   1.132   9.727
35644SOL     OW 8763  13.262  13.534  10.688
35644SOL    HW1 8764  13.262  13.495  10.600
35644SOL    HW2 8765  13.188  13.594  10.687
35645SOL     OW 8766  12.598  11.022  13.199
35645SOL    HW1 8767  12.661  10.955  13.174
35645SOL    HW2 8768  12.513  10.986  13.172
35646SOL     OW 8769  12.297   1.170  13.227
35646SOL    HW1 8770  12.230   1.166  13.159
35646SOL    HW2 8771  12.353   1.244  13.202
35647SOL     OW 8772   2.525   8.547  11.409
35647SOL    HW1 8773   2.556   8.609  11.343
35647SOL    HW2 8774   2.448   8.506  11.370
35648SOL     OW 8775  14.004  12.081   3.383
35648SOL    HW1 8776  13.939  12.147   3.357
35648SOL    HW2 8777  14.067  12.080   3.312
35649SOL     OW 8778   8.568  13.568   4.262
35649SOL    HW1 8779   8.493  13.601   4.213
35649SOL    HW2 8780   8.641  13.623   4.234
35650SOL     OW 8781   4.369   3.149   1.656
35650SOL    HW1 8782   4.392   3.213   1.724
35650SOL    HW2 8783   4.365   3.065   1.702
35651SOL     OW 8784  11.765  14.039   7.817
35651SOL    HW1 8785  11.713  13.960   7.829
35651SOL    HW2 8786  11.784  14.042   7.724
35652SOL     OW 8787   7.238   0.231   6.897
35652SOL    HW1 8788   7.308   0.296   6.893
35652SOL    HW2 8789   7.181   0.252   6.823
35653SOL     OW 8790   9.546   0.827  10.786
35653SOL    HW1 8791   9.508   0.742  10.766
35653SOL    HW2 8792   9.487   0.864  10.852
35654SOL     OW 8793   3.943   8.844   7.907
35654SOL    HW1 8794   3.880   8.873   7.841
35654SOL    HW2 8795   3.911   8.882   7.989
35655SOL     OW 8796  14.072  11.438   9.625
35655SOL    HW1 8797  14.072  11.350   9.663
35655SOL    HW2 8798  14.163  11.467   9.632
35656SOL     OW 8799   8.183   1.664   3.413
35656SOL    HW1 8800   8.116   1.714   3.461
35656SOL    HW2 8801   8.186   1.705   3.327
35657SOL     OW 8802   6.111  13.332   9.059
35657SOL    HW1 8803   6.141  13.359   8.972
35657SOL    HW2 8804   6.016  13.344   9.055
35658SOL     OW 8805  13.599   4.227  11.882
35658SOL    HW1 8806  13.620   4.171  11.957
35658SOL    HW2 8807  13.676   4.283  11.871
35659SOL     OW 8808   4.648  13.092   8.337
35659SOL    HW1 8809   4.673  13.075   8.428
35659SOL    HW2 8810   4.729  13.088   8.288
35660SOL     OW 8811   9.249  14.464  11.617
35660SOL    HW1 8812   9.298  14.386  11.643
35660SOL    HW2 8813   9.260  14.469  11.522
35661SOL     OW 8814   1.542   4.424  12.781
35661SOL    HW1 8815   1.616   4.482  12.798
35661SOL    HW2 8816   1.494   4.422  12.864
35662SOL     OW 8817   0.517  14.810   2.392
35662SOL    HW1 8818   0.426  14.833   2.373
35662SOL    HW2 8819   0.563  14.828   2.310
35663SOL     OW 8820  13.420   8.067  13.094
35663SOL    HW1 8821  13.389   7.998  13.035
35663SOL    HW2 8822  13.411   8.029  13.181
35664SOL     OW 8823   3.023   2.621   8.807
35664SOL    HW1 8824   3.105   2.641   8.852
35664SOL    HW2 8825   2.973   2.569   8.870
35665SOL     OW 8826   7.594   6.200  10.971
35665SOL    HW1 8827   7.607   6.231  11.061
35665SOL    HW2 8828   7.504   6.225  10.950
35666SOL     OW 8829   8.304   4.032   9.972
35666SOL    HW1 8830   8.252   4.111   9.986
35666SOL    HW2 8831   8.280   3.974  10.044
35667SOL     OW 8832   5.864  12.688   0.141
35667SOL    HW1 8833   5.818  12.608   0.116
35667SOL    HW2 8834   5.814  12.759   0.100
35668SOL     OW 8835  14.038   5.826   6.462
35668SOL    HW1 8836  13.960   5.786   6.424
35668SOL    HW2 8837  14.103   5.823   6.392
35669SOL     OW 8838  14.111   7.207   1.964
35669SOL    HW1 8839  14.200   7.186   1.935
35669SOL    HW2 8840  14.068   7.122   1.973
35670SOL     OW 8841   2.862  13.826  11.969
35670SOL    HW1 8842   2.945  13.845  12.013
35670SOL    HW2 8843   2.868  13.872  11.885
35671SOL     OW 8844   6.143  11.691   0.592
35671SOL    HW1 8845   6.230  11.653   0.581
35671SOL    HW2 8846   6.124  11.681   0.685
35672SOL     OW 8847   6.276   5.385  14.283
35672SOL    HW1 8848   6.233   5.453  14.231
35672SOL    HW2 8849   6.366   5.384  14.252
35673SOL     OW 8850  12.330  13.010   2.528
35673SOL    HW1 8851  12.300  12.946   2.464
35673SOL    HW2 8852  12.419  13.032   2.500
35674SOL     OW 8853  11.512   3.427   2.709
35674SOL    HW1 8854  11.579   3.476   2.758
35674SOL    HW2 8855  11.506   3.472   2.625
35675SOL     OW 8856   2.866   9.558   4.252
35675SOL    HW1 8857   2.799   9.593   4.193
35675SOL    HW2 8858   2.836   9.470   4.274
35676SOL     OW 8859  14.148   8.424  14.693
35676SOL    HW1 8860  14.086   8.395  14.627
35676SOL    HW2 8861  14.164   8.516  14.673
35677SOL     OW 8862   0.985  10.080   8.823
35677SOL    HW1 8863   0.962   9.995   8.785
35677SOL    HW2 8864   1.080  10.080   8.825
35678SOL     OW 8865   0.075  12.863  10.284
35678SOL    HW1 8866   0.157  12.894  10.323
35678SOL    HW2 8867   0.091  12.769  10.269
35679SOL     OW 8868   6.540   3.465   1.801
35679SOL    HW1 8869   6.473   3.424   1.746
35679SOL    HW2 8870   6.493   3.531   1.852
35680SOL     OW 8871  10.985   1.364   3.892
35680SOL    HW1 8872  10.948   1.356   3.803
35680SOL    HW2 8873  10.933   1.303   3.945
35681SOL     OW 8874   8.240   7.156   6.737
35681SOL    HW1 8875   8.181   7.136   6.810
35681SOL    HW2 8876   8.316   7.100   6.752
35682SOL     OW 8877   0.206  13.252  12.078
35682SOL    HW1 8878   0.295  13.285  12.068
35682SOL    HW2 8879   0.204  13.172  12.025
35683SOL     OW 8880   0.841   0.643   8.318
35683SOL    HW1 8881   0.915   0.701   8.335
35683SOL    HW2 8882   0.817   0.608   8.404
35684SOL     OW 8883   8.491   6.528   9.914
35684SOL    HW1 8884   8.477   6.478   9.834
35684SOL    HW2 8885   8.585   6.524   9.929
35685SOL     OW 8886   3.305  14.374  13.306
35685SOL    HW1 8887   3.265  14.376  13.392
35685SOL    HW2 8888   3.355  14.292  13.303
35686SOL     OW 8889  13.374   8.185   2.458
35686SOL    HW1 8890  13.314   8.115   2.485
35686SOL    HW2 8891  13.410   8.155   2.375
35687SOL     OW 8892  12.601   5.943   7.574
35687SOL    HW1 8893  12.534   5.877   7.555
35687SOL    HW2 8894  12.674   5.920   7.517
35688SOL     OW 8895   1.703  12.660   4.934
35688SOL    HW1 8896   1.610  12.677   4.950
35688SOL    HW2 8897   1.729  12.724   4.868
35689SOL     OW 8898   9.006  10.615  14.433
35689SOL    HW1 8899   9.063  10.557  14.485
35689SOL    HW2 8900   8.952  10.660  14.498
35690SOL     OW 8901   9.470  11.015  10.539
35690SOL    HW1 8902   9.548  10.961  10.526
35690SOL    HW2 8903   9.483  11.057  10.624
35691SOL     OW 8904   2.088  14.573  14.248
35691SOL    HW1 8905   2.160  14.510  14.258
35691SOL    HW2 8906   2.119  14.652  14.293
35692SOL     OW 8907   0.241  14.698   8.067
35692SOL    HW1 8908   0.288  14.728   7.989
35692SOL    HW2 8909   0.201  14.777   8.103
35693SOL     OW 8910   6.787  12.889   4.774
35693SOL    HW1 8911   6.774  12.824   4.706
35693SOL    HW2 8912   6.699  12.922   4.793
35694SOL     OW 8913   0.477   5.427  13.422
35694SOL    HW1 8914   0.560   5.426  13.469
35694SOL    HW2 8915   0.469   5.516  13.388
35695SOL     OW 8916   0.988   1.338   4.970
35695SOL    HW1 8917   0.928   1.396   4.924
35695SOL    HW2 8918   0.969   1.352   5.063
35696SOL     OW 8919   5.437   0.647   0.240
35696SOL    HW1 8920   5.501   0.703   0.284
35696SOL    HW2 8921   5.369   0.632   0.305
35697SOL     OW 8922  13.511   6.003   3.489
35697SOL    HW1 8923  13.442   5.944   3.459
35697SOL    HW2 8924  13.515   5.989   3.584
35698SOL     OW 8925  11.462  13.008   2.564
35698SOL    HW1 8926  11.487  12.930   2.516
35698SOL    HW2 8927  11.545  13.047   2.592
35699SOL     OW 8928   9.861  14.862   7.666
35699SOL    HW1 8929   9.859  14.812   7.584
35699SOL    HW2 8930   9.776   0.028   7.670
35700SOL     OW 8931   8.527   5.948  14.732
35700SOL    HW1 8932   8.611   5.903  14.724
35700SOL    HW2 8933   8.538   6.006  14.808
35701SOL     OW 8934  11.908  13.775  13.989
35701SOL    HW1 8935  12.003  13.775  13.999
35701SOL    HW2 8936  11.893  13.793  13.897
35702SOL     OW 8937   3.159   5.584   2.006
35702SOL    HW1 8938   3.097   5.612   2.073
35702SOL    HW2 8939   3.240   5.567   2.055
35703SOL     OW 8940   9.853   8.545  14.502
35703SOL    HW1 8941   9.923   8.601  14.467
35703SOL    HW2 8942   9.894   8.458  14.510
35704SOL     OW 8943   6.904   6.015   0.046
35704SOL    HW1 8944   6.970   5.948   0.066
35704SOL    HW2 8945   6.830   5.966   0.009
35705SOL     OW 8946   3.656   1.730   9.170
35705SOL    HW1 8947   3.719   1.658   9.161
35705SOL    HW2 8948   3.665   1.757   9.262
35706SOL     OW 8949   9.164   6.550   8.264
35706SOL    HW1 8950   9.188   6.642   8.279
35706SOL    HW2 8951   9.082   6.538   8.310
35707SOL     OW 8952   4.060  12.177   7.211
35707SOL    HW1 8953   3.971  12.174   7.178
35707SOL    HW2 8954   4.075  12.090   7.248
35708SOL     OW 8955   4.846  11.431   6.667
35708SOL    HW1 8956   4.872  11.510   6.714
35708SOL    HW2 8957   4.788  11.385   6.728
35709SOL     OW 8958   1.734  13.556   2.233
35709SOL    HW1 8959   1.735  13.573   2.139
35709SOL    HW2 8960   1.739  13.461   2.241
35710SOL     OW 8961  13.315   0.564   7.428
35710SOL    HW1 8962  13.286   0.528   7.345
35710SOL    HW2 8963  13.314   0.659   7.415
35711SOL     OW 8964   9.615   1.463   6.712
35711SOL    HW1 8965   9.701   1.455   6.671
35711SOL    HW2 8966   9.632   1.492   6.801
35712SOL     OW 8967  13.224   0.289   7.520
35712SOL    HW1 8968  13.195   0.255   7.435
35712SOL    HW2 8969  13.285   0.359   7.498
35713SOL     OW 8970   1.827   1.471  13.794
35713SOL    HW1 8971   1.861   1.394  13.839
35713SOL    HW2 8972   1.742   1.487  13.836
35714SOL     OW 8973   6.077   3.749   9.405
35714SOL    HW1 8974   6.122   3.665   9.400
35714SOL    HW2 8975   5.997   3.736   9.354
35715SOL     OW 8976  11.401   9.778   2.044
35715SOL    HW1 8977  11.477   9.768   2.100
35715SOL    HW2 8978  11.336   9.824   2.098
35716SOL     OW 8979  10.981   4.911   9.974
35716SOL    HW1 8980  10.916   4.850  10.008
35716SOL    HW2 8981  11.064   4.883  10.013
35717SOL     OW 8982   4.595   8.777   2.894
35717SOL    HW1 8983   4.531   8.772   2.824
35717SOL    HW2 8984   4.547   8.810   2.969
35718SOL     OW 8985   8.451   2.782  13.623
35718SOL    HW1 8986   8.491   2.735  13.550
35718SOL    HW2 8987   8.525   2.814  13.675
35719SOL     OW 8988  12.589   1.974   4.577
35719SOL    HW1 8989  12.627   2.006   4.658
35719SOL    HW2 8990  12.643   1.897   4.555
35720SOL     OW 8991   3.523   4.086  12.684
35720SOL    HW1 8992   3.612   4.082  12.651
35720SOL    HW2 8993   3.531   4.077  12.779
35721SOL     OW 8994  12.658   2.866  11.449
35721SOL    HW1 8995  12.579   2.906  11.413
35721SOL    HW2 8996  12.639   2.855  11.542
35722SOL     OW 8997   0.768  10.599  11.490
35722SOL    HW1 8998   0.773  10.503  11.488
35722SOL    HW2 8999   0.856  10.628  11.513
35723SOL     OW 9000   1.257   4.460   9.225
35723SOL    HW1 9001   1.214   4.546   9.219
35723SOL    HW2 9002   1.315   4.457   9.148
35724SOL     OW 9003  12.091  13.429   7.381
35724SOL    HW1 9004  12.031  13.431   7.456
35724SOL    HW2 9005  12.035  13.406   7.306
35725SOL     OW 9006  12.947   8.398  14.006
35725SOL    HW1 9007  13.029   8.375  14.048
35725SOL    HW2 9008  12.961   8.380  13.913
35726SOL     OW 9009  13.469   1.040  10.908
35726SOL    HW1 9010  13.383   1.026  10.868
35726SOL    HW2 9011  13.516   1.095  10.846
35727SOL     OW 9012   1.068  10.664   2.845
35727SOL    HW1 9013   1.040  10.755   2.850
35727SOL    HW2 9014   1.032  10.624   2.924
35728SOL     OW 9015   5.294  14.803   1.703
35728SOL    HW1 9016   5.208  14.844   1.695
35728SOL    HW2 9017   5.322  14.822   1.792
35729SOL     OW 9018   8.812  12.675   4.688
35729SOL    HW1 9019   8.836  12.761   4.722
35729SOL    HW2 9020   8.874  12.615   4.729
35730SOL     OW 9021   2.381  11.847   0.491
35730SOL    HW1 9022   2.315  11.796   0.444
35730SOL    HW2 9023   2.335  11.879   0.569
35731SOL     OW 9024   2.210  12.446  12.504
35731SOL    HW1 9025   2.284  12.451  12.563
35731SOL    HW2 9026   2.146  12.508  12.539
35732SOL     OW 9027  10.879   1.924   0.257
35732SOL    HW1 9028  10.800   1.880   0.225
35732SOL    HW2 9029  10.923   1.955   0.177
35733SOL     OW 9030   7.256   3.076  12.676
35733SOL    HW1 9031   7.317   3.150  12.672
35733SOL    HW2 9032   7.185   3.100  12.618
35734SOL     OW 9033   9.823   2.904   2.317
35734SOL    HW1 9034   9.783   2.824   2.285
35734SOL    HW2 9035   9.890   2.875   2.379
35735SOL     OW 9036   1.935  10.180   3.742
35735SOL    HW1 9037   1.870  10.221   3.685
35735SOL    HW2 9038   1.952  10.245   3.810
35736SOL     OW 9039  11.626   6.631  13.119
35736SOL    HW1 9040  11.715   6.661  13.099
35736SOL    HW2 9041  11.572   6.710  13.117
35737SOL     OW 9042  11.970   9.915  10.087
35737SOL    HW1 9043  11.905   9.857  10.046
35737SOL    HW2 9044  11.985   9.876  10.173
35738SOL     OW 9045   0.360   4.659   6.183
35738SOL    HW1 9046   0.426   4.594   6.159
35738SOL    HW2 9047   0.404   4.714   6.249
35739SOL     OW 9048  12.995   7.116   9.919
35739SOL    HW1 9049  13.015   7.201   9.881
35739SOL    HW2 9050  12.899   7.113   9.922
35740SOL     OW 9051   0.267  12.928  12.819
35740SOL    HW1 9052   0.352  12.956  12.854
35740SOL    HW2 9053   0.273  12.945  12.725
35741SOL     OW 9054   2.435   4.029  11.746
35741SOL    HW1 9055   2.344   4.004  11.731
35741SOL    HW2 9056   2.430   4.115  11.787
35742SOL     OW 9057   6.866   6.194   6.129
35742SOL    HW1 9058   6.804   6.220   6.060
35742SOL    HW2 9059   6.853   6.258   6.198
35743SOL     OW 9060   5.253   3.502   4.490
35743SOL    HW1 9061   5.221   3.451   4.415
35743SOL    HW2 9062   5.306   3.571   4.451
35744SOL     OW 9063   6.506  14.820   2.846
35744SOL    HW1 9064   6.457  14.768   2.782
35744SOL    HW2 9065   6.563  14.757   2.890
35745SOL     OW 9066   1.659  11.395   5.650
35745SOL    HW1 9067   1.696  11.373   5.565
35745SOL    HW2 9068   1.648  11.310   5.694
35746SOL     OW 9069  12.311   4.683  10.167
35746SOL    HW1 9070  12.282   4.616  10.229
35746SOL    HW2 9071  12.346   4.753  10.222
35747SOL     OW 9072   3.551   6.089   6.672
35747SOL    HW1 9073   3.591   6.094   6.759
35747SOL    HW2 9074   3.625   6.088   6.612
35748SOL     OW 9075   3.578   8.205   9.354
35748SOL    HW1 9076   3.642   8.139   9.327
35748SOL    HW2 9077   3.630   8.281   9.378
35749SOL     OW 9078   8.174   6.189   7.064
35749SOL    HW1 9079   8.120   6.139   7.003
35749SOL    HW2 9080   8.117   6.205   7.140
35750SOL     OW 9081   3.519  14.780   6.209
35750SOL    HW1 9082   3.431  14.817   6.213
35750SOL    HW2 9083   3.507  14.688   6.231
35751SOL     OW 9084   7.230  10.657   3.660
35751SOL    HW1 9085   7.158  10.633   3.601
35751SOL    HW2 9086   7.283  10.578   3.665
35752SOL     OW 9087  13.695   7.453  12.375
35752SOL    HW1 9088  13.666   7.520  12.435
35752SOL    HW2 9089  13.760   7.402  12.424
35753SOL     OW 9090  13.500   0.086   7.864
35753SOL    HW1 9091  13.442   0.159   7.886
35753SOL    HW2 9092  13.441   0.014   7.846
35754SOL     OW 9093  13.734  13.564   6.346
35754SOL    HW1 9094  13.693  13.508   6.281
35754SOL    HW2 9095  13.694  13.650   6.333
35755SOL     OW 9096   2.968  14.773   2.254
35755SOL    HW1 9097   2.929  14.828   2.186
35755SOL    HW2 9098   2.913  14.788   2.331
35756SOL     OW 9099  11.612  13.411   7.637
35756SOL    HW1 9100  11.558  13.438   7.712
35756SOL    HW2 9101  11.549  13.374   7.575
35757SOL     OW 9102  14.371   7.317  12.566
35757SOL    HW1 9103  14.300   7.328  12.629
35757SOL    HW2 9104  14.378   7.223  12.553
35758SOL     OW 9105   9.500  13.125  11.593
35758SOL    HW1 9106   9.428  13.158  11.539
35758SOL    HW2 9107   9.525  13.043  11.551
35759SOL     OW 9108  12.136   3.138  14.098
35759SOL    HW1 9109  12.197   3.065  14.093
35759SOL    HW2 9110  12.116   3.146  14.191
35760SOL     OW 9111   3.347   4.315   0.973
35760SOL    HW1 9112   3.406   4.248   1.008
35760SOL    HW2 9113   3.261   4.272   0.970
35761SOL     OW 9114   4.643   4.648  13.961
35761SOL    HW1 9115   4.613   4.562  13.931
35761SOL    HW2 9116   4.706   4.628  14.030
35762SOL     OW 9117   9.865   1.828   8.847
35762SOL    HW1 9118   9.822   1.774   8.912
35762SOL    HW2 9119   9.941   1.865   8.892
35763SOL     OW 9120   3.524   3.993   5.179
35763SOL    HW1 9121   3.555   4.074   5.138
35763SOL    HW2 9122   3.591   3.928   5.159
35764SOL     OW 9123   8.496   1.770   3.676
35764SOL    HW1 9124   8.406   1.749   3.699
35764SOL    HW2 9125   8.527   1.827   3.747
35765SOL     OW 9126  14.719   0.988  14.282
35765SOL    HW1 9127  14.658   1.047  14.327
35765SOL    HW2 9128  14.694   0.992  14.190
35766SOL     OW 9129   2.673   1.276   6.269
35766SOL    HW1 9130   2.763   1.308   6.267
35766SOL    HW2 9131   2.637   1.301   6.184
35767SOL     OW 9132  10.738  11.440   9.067
35767SOL    HW1 9133  10.683  11.486   9.004
35767SOL    HW2 9134  10.761  11.358   9.024
35768SOL     OW 9135   1.758  11.167  13.923
35768SOL    HW1 9136   1.847  11.160  13.957
35768SOL    HW2 9137   1.768  11.172  13.828
35769SOL     OW 9138   3.129   5.432  14.046
35769SOL    HW1 9139   3.195   5.362  14.048
35769SOL    HW2 9140   3.179   5.512  14.063
35770SOL     OW 9141  12.806  10.629   0.589
35770SOL    HW1 9142  12.866  10.696   0.555
35770SOL    HW2 9143  12.818  10.554   0.531
35771SOL     OW 9144   8.207  11.324  10.373
35771SOL    HW1 9145   8.221  11.416  10.349
35771SOL    HW2 9146   8.211  11.323  10.468
35772SOL     OW 9147   3.049   8.543   0.904
35772SOL    HW1 9148   3.105   8.513   0.976
35772SOL    HW2 9149   3.079   8.632   0.886
35773SOL     OW 9150  12.420   8.861   3.570
35773SOL    HW1 9151  12.430   8.956   3.563
35773SOL    HW2 9152  12.427   8.829   3.480
35774SOL     OW 9153  12.577  10.956   4.110
35774SOL    HW1 9154  12.551  10.922   4.195
35774SOL    HW2 9155  12.596  11.049   4.126
35775SOL     OW 9156   8.712   9.473   6.808
35775SOL    HW1 9157   8.708   9.528   6.730
35775SOL    HW2 9158   8.631   9.422   6.806
35776SOL     OW 9159   9.740   2.858  10.769
35776SOL    HW1 9160   9.747   2.769  10.804
35776SOL    HW2 9161   9.802   2.860  10.696
35777SOL     OW 9162   8.773   5.882   0.028
35777SOL    HW1 9163   8.719   5.808   0.056
35777SOL    HW2 9164   8.785   5.868  14.810
35778SOL     OW 9165   4.216   9.408  12.064
35778SOL    HW1 9166   4.232   9.491  12.021
35778SOL    HW2 9167   4.135   9.421  12.113
35779SOL     OW 9168   1.919   7.597   0.336
35779SOL    HW1 9169   1.956   7.510   0.321
35779SOL    HW2 9170   1.847   7.603   0.274
35780SOL     OW 9171  13.573   0.797   2.967
35780SOL    HW1 9172  13.523   0.831   3.041
35780SOL    HW2 9173  13.644   0.860   2.954
35781SOL     OW 9174   1.680  11.198  10.793
35781SOL    HW1 9175   1.599  11.197  10.845
35781SOL    HW2 9176   1.667  11.267  10.729
35782SOL     OW 9177   2.684  10.100  12.935
35782SOL    HW1 9178   2.589  10.093  12.923
35782SOL    HW2 9179   2.695  10.144  13.020
35783SOL     OW 9180   3.930  10.364  11.649
35783SOL    HW1 9181   3.913  10.366  11.555
35783SOL    HW2 9182   3.891  10.282  11.679
35784SOL     OW 9183   7.966   7.997  13.991
35784SOL    HW1 9184   8.038   7.956  14.040
35784SOL    HW2 9185   7.959   8.084  14.029
35785SOL     OW 9186   7.928  11.552  10.657
35785SOL    HW1 9187   7.988  11.564  10.584
35785SOL    HW2 9188   7.896  11.463  10.648
35786SOL     OW 9189  12.911   4.007   8.680
35786SOL    HW1 9190  12.839   4.067   8.662
35786SOL    HW2 9191  12.987   4.064   8.692
35787SOL     OW 9192   8.021   0.922   8.484
35787SOL    HW1 9193   7.946   0.871   8.515
35787SOL    HW2 9194   8.097   0.879   8.522
35788SOL     OW 9195   4.015  12.669   0.849
35788SOL    HW1 9196   3.983  12.637   0.765
35788SOL    HW2 9197   3.940  12.715   0.887
35789SOL     OW 9198   8.836   4.995   2.961
35789SOL    HW1 9199   8.893   5.005   2.884
35789SOL    HW2 9200   8.803   4.905   2.955
35790SOL     OW 9201   7.695   2.095   2.476
35790SOL    HW1 9202   7.706   2.163   2.542
35790SOL    HW2 9203   7.611   2.115   2.434
35791SOL     OW 9204   3.523   2.258   4.644
35791SOL    HW1 9205   3.543   2.195   4.713
35791SOL    HW2 9206   3.500   2.339   4.690
35792SOL     OW 9207   9.015   9.033   6.182
35792SOL    HW1 9208   8.941   9.021   6.241
35792SOL    HW2 9209   9.087   8.985   6.224
35793SOL     OW 9210   6.305  14.068  13.538
35793SOL    HW1 9211   6.355  13.988  13.522
35793SOL    HW2 9212   6.235  14.067  13.472
35794SOL     OW 9213  12.081   3.172   7.459
35794SOL    HW1 9214  11.990   3.183   7.486
35794SOL    HW2 9215  12.089   3.079   7.438
35795SOL     OW 9216  13.266  13.614  12.632
35795SOL    HW1 9217  13.237  13.537  12.583
35795SOL    HW2 9218  13.202  13.682  12.609
35796SOL     OW 9219  12.710   9.960  10.303
35796SOL    HW1 9220  12.636   9.953  10.243
35796SOL    HW2 9221  12.713   9.875  10.347
35797SOL     OW 9222   8.952   4.558  14.120
35797SOL    HW1 9223   8.958   4.620  14.047
35797SOL    HW2 9224   8.964   4.472  14.079
35798SOL     OW 9225  13.697  10.219   8.546
35798SOL    HW1 9226  13.669  10.229   8.455
35798SOL    HW2 9227  13.782  10.263   8.549
35799SOL     OW 9228   0.600   1.116  14.772
35799SOL    HW1 9229   0.613   1.152  14.860
35799SOL    HW2 9230   0.526   1.166  14.738
35800SOL     OW 9231   3.552   3.716  10.171
35800SOL    HW1 9232   3.558   3.806  10.203
35800SOL    HW2 9233   3.459   3.702  10.153
35801SOL     OW 9234  13.647   4.870  12.544
35801SOL    HW1 9235  13.686   4.951  12.576
35801SOL    HW2 9236  13.704   4.801  12.578
35802SOL     OW 9237  11.645  10.035  14.646
35802SOL    HW1 9238  11.683   9.995  14.724
35802SOL    HW2 9239  11.552  10.045  14.667
35803SOL     OW 9240   4.800   3.342   4.696
35803SOL    HW1 9241   4.853   3.401   4.643
35803SOL    HW2 9242   4.710   3.374   4.685
35804SOL     OW 9243   0.938   7.123   7.968
35804SOL    HW1 9244   0.892   7.204   7.945
35804SOL    HW2 9245   0.905   7.099   8.054
35805SOL     OW 9246   9.029  13.128  12.309
35805SOL    HW1 9247   9.083  13.056  12.276
35805SOL    HW2 9248   9.046  13.201  12.250
35806SOL     OW 9249   4.604   8.691   7.195
35806SOL    HW1 9250   4.579   8.599   7.206
35806SOL    HW2 9251   4.600   8.727   7.284
35807SOL     OW 9252  12.685   7.024   5.666
35807SOL    HW1 9253  12.611   7.061   5.617
35807SOL    HW2 9254  12.747   7.096   5.674
35808SOL     OW 9255  14.713   7.491   5.454
35808SOL    HW1 9256  14.731   7.432   5.527
35808SOL    HW2 9257  14.691   7.574   5.495
35809SOL     OW 9258   2.873  14.859   9.654
35809SOL    HW1 9259   2.870  14.767   9.682
35809SOL    HW2 9260   2.928  14.858   9.576
35810SOL     OW 9261   7.406   4.550   5.453
35810SOL    HW1 9262   7.449   4.620   5.404
35810SOL    HW2 9263   7.341   4.514   5.393
35811SOL     OW 9264   0.251   3.745   0.099
35811SOL    HW1 9265   0.345   3.762   0.101
35811SOL    HW2 9266   0.216   3.797   0.171
35812SOL     OW 9267   2.344  13.301   2.187
35812SOL    HW1 9268   2.425  13.250   2.186
35812SOL    HW2 9269   2.276  13.239   2.164
35813SOL     OW 9270   8.515  11.837  10.359
35813SOL    HW1 9271   8.554  11.822  10.445
35813SOL    HW2 9272   8.506  11.749  10.322
35814SOL     OW 9273   0.617  11.925  12.151
35814SOL    HW1 9274   0.534  11.940  12.107
35814SOL    HW2 9275   0.665  12.007  12.140
35815SOL     OW 9276  14.255   0.226   5.494
35815SOL    HW1 9277  14.339   0.272   5.489
35815SOL    HW2 9278  14.266   0.149   5.439
35816SOL     OW 9279  10.880  11.395  11.974
35816SOL    HW1 9280  10.863  11.490  11.977
35816SOL    HW2 9281  10.975  11.389  11.964
35817SOL     OW 9282   9.308   7.658  11.856
35817SOL    HW1 9283   9.244   7.644  11.786
35817SOL    HW2 9284   9.319   7.572  11.896
35818SOL     OW 9285  10.944  12.291   0.462
35818SOL    HW1 9286  10.873  12.304   0.399
35818SOL    HW2 9287  10.989  12.376   0.465
35819SOL     OW 9288  13.960  10.213   9.054
35819SOL    HW1 9289  14.050  10.213   9.087
35819SOL    HW2 9290  13.908  10.245   9.127
35820SOL     OW 9291   6.830  14.019   1.767
35820SOL    HW1 9292   6.864  13.937   1.732
35820SOL    HW2 9293   6.906  14.077   1.769
35821SOL     OW 9294  11.011   0.471   8.717
35821SOL    HW1 9295  11.079   0.478   8.650
35821SOL    HW2 9296  10.981   0.380   8.710
35822SOL     OW 9297  10.680   6.795   8.950
35822SOL    HW1 9298  10.701   6.744   8.871
35822SOL    HW2 9299  10.709   6.884   8.929
35823SOL     OW 9300   9.741   5.211   5.344
35823SOL    HW1 9301   9.732   5.215   5.439
35823SOL    HW2 9302   9.682   5.141   5.317
35824SOL     OW 9303   0.525  12.430   6.119
35824SOL    HW1 9304   0.499  12.352   6.069
35824SOL    HW2 9305   0.520  12.402   6.210
35825SOL     OW 9306   3.403  11.998  13.607
35825SOL    HW1 9307   3.363  11.969  13.525
35825SOL    HW2 9308   3.493  12.019  13.583
35826SOL     OW 9309  11.113  10.143  14.702
35826SOL    HW1 9310  11.059  10.068  14.673
35826SOL    HW2 9311  11.061  10.220  14.677
35827SOL     OW 9312  10.497   6.392   0.080
35827SOL    HW1 9313  10.526   6.309   0.041
35827SOL    HW2 9314  10.531   6.390   0.169
35828SOL     OW 9315   6.173   6.339   0.543
35828SOL    HW1 9316   6.255   6.375   0.577
35828SOL    HW2 9317   6.199   6.270   0.484
35829SOL     OW 9318  13.666  13.187  14.207
35829SOL    HW1 9319  13.653  13.126  14.134
35829SOL    HW2 9320  13.658  13.274  14.168
35830SOL     OW 9321   2.494  11.567   5.589
35830SOL    HW1 9322   2.495  11.569   5.684
35830SOL    HW2 9323   2.403  11.588   5.565
35831SOL     OW 9324   3.483   2.335   0.230
35831SOL    HW1 9325   3.397   2.293   0.225
35831SOL    HW2 9326   3.465   2.429   0.224
35832SOL     OW 9327  13.968  11.313  10.379
35832SOL    HW1 9328  14.018  11.366  10.441
35832SOL    HW2 9329  13.989  11.351  10.293
35833SOL     OW 9330  11.209   8.508   7.391
35833SOL    HW1 9331  11.160   8.587   7.412
35833SOL    HW2 9332  11.185   8.488   7.300
35834SOL     OW 9333   8.111   3.538  14.515
35834SOL    HW1 9334   8.091   3.449  14.546
35834SOL    HW2 9335   8.187   3.526  14.458
35835SOL     OW 9336   7.672   6.736   7.327
35835SOL    HW1 9337   7.628   6.651   7.330
35835SOL    HW2 9338   7.602   6.799   7.310
35836SOL     OW 9339   8.131   3.779  13.430
35836SOL    HW1 9340   8.048   3.749  13.466
35836SOL    HW2 9341   8.118   3.873  13.413
35837SOL     OW 9342  12.298   9.835  12.443
35837SOL    HW1 9343  12.288   9.745  12.414
35837SOL    HW2 9344  12.328   9.882  12.365
35838SOL     OW 9345   5.090   2.075   9.250
35838SOL    HW1 9346   5.006   2.104   9.213
35838SOL    HW2 9347   5.118   2.004   9.191
35839SOL     OW 9348   8.719   1.938   0.766
35839SOL    HW1 9349   8.794   1.954   0.709
35839SOL    HW2 9350   8.709   2.019   0.816
35840SOL     OW 9351  12.043   6.621   7.921
35840SOL    HW1 9352  11.994   6.587   7.996
35840SOL    HW2 9353  12.133   6.591   7.936
35841SOL     OW 9354  12.254  14.775   3.067
35841SOL    HW1 9355  12.163  14.805   3.075
35841SOL    HW2 9356  12.248  14.686   3.033
35842SOL     OW 9357   9.019  13.847  12.167
35842SOL    HW1 9358   9.059  13.834  12.253
35842SOL    HW2 9359   9.014  13.942  12.157
35843SOL     OW 9360   3.200   9.383   0.190
35843SOL    HW1 9361   3.237   9.373   0.102
35843SOL    HW2 9362   3.274   9.372   0.249
35844SOL     OW 9363  12.998  12.703  10.332
35844SOL    HW1 9364  12.990  12.762  10.257
35844SOL    HW2 9365  12.976  12.617  10.297
35845SOL     OW 9366   9.905   1.015  12.848
35845SOL    HW1 9367   9.965   1.004  12.922
35845SOL    HW2 9368   9.950   1.076  12.789
35846SOL     OW 9369   2.380   2.913   6.655
35846SOL    HW1 9370   2.464   2.936   6.693
35846SOL    HW2 9371   2.320   2.910   6.730
35847SOL     OW 9372  10.241   8.343   8.448
35847SOL    HW1 9373  10.326   8.359   8.489
35847SOL    HW2 9374  10.217   8.427   8.409
35848SOL     OW 9375  10.474   4.535   8.222
35848SOL    HW1 9376  10.440   4.454   8.184
35848SOL    HW2 9377  10.556   4.509   8.264
35849SOL     OW 9378  11.963   6.553   3.225
35849SOL    HW1 9379  11.990   6.643   3.243
35849SOL    HW2 9380  11.957   6.548   3.130
35850SOL     OW 9381   1.839   4.247   9.511
35850SOL    HW1 9382   1.913   4.187   9.500
35850SOL    HW2 9383   1.863   4.325   9.461
35851SOL     OW 9384  13.998   1.841   8.018
35851SOL    HW1 9385  14.065   1.903   8.048
35851SOL    HW2 9386  13.981   1.785   8.093
35852SOL     OW 9387   1.608   6.350   9.266
35852SOL    HW1 9388   1.578   6.299   9.342
35852SOL    HW2 9389   1.538   6.339   9.201
35853SOL     OW 9390   3.252   2.291  11.476
35853SOL    HW1 9391   3.221   2.293  11.386
35853SOL    HW2 9392   3.172   2.296  11.529
35854SOL     OW 9393  13.495   6.183   1.116
35854SOL    HW1 9394  13.450   6.225   1.042
35854SOL    HW2 9395  13.473   6.238   1.191
35855SOL     OW 9396  12.912  10.809   1.423
35855SOL    HW1 9397  12.867  10.892   1.408
35855SOL    HW2 9398  13.005  10.832   1.423
35856SOL     OW 9399   6.545  12.137  10.307
35856SOL    HW1 9400   6.510  12.203  10.246
35856SOL    HW2 9401   6.591  12.188  10.373
35857SOL     OW 9402   6.347   2.867   3.244
35857SOL    HW1 9403   6.326   2.776   3.223
35857SOL    HW2 9404   6.281   2.918   3.197
35858SOL     OW 9405  13.604   9.116   0.461
35858SOL    HW1 9406  13.619   9.045   0.399
35858SOL    HW2 9407  13.568   9.187   0.407
35859SOL     OW 9408  11.527  14.811  11.458
35859SOL    HW1 9409  11.491  14.723  11.473
35859SOL    HW2 9410  11.563  14.836  11.543
35860SOL     OW 9411  11.920   9.279   3.594
35860SOL    HW1 9412  11.870   9.234   3.662
35860SOL    HW2 9413  11.914   9.372   3.617
35861SOL     OW 9414   0.281   7.324   3.329
35861SOL    HW1 9415   0.280   7.330   3.424
35861SOL    HW2 9416   0.214   7.386   3.300
35862SOL     OW 9417   5.854  10.998   4.435
35862SOL    HW1 9418   5.815  10.910   4.446
35862SOL    HW2 9419   5.947  10.985   4.452
35863SOL     OW 9420  12.537  13.938  13.821
35863SOL    HW1 9421  12.534  13.999  13.747
35863SOL    HW2 9422  12.483  13.979  13.888
35864SOL     OW 9423   9.404   5.276   5.541
35864SOL    HW1 9424   9.440   5.356   5.581
35864SOL    HW2 9425   9.424   5.286   5.448
35865SOL     OW 9426   7.527   8.603  12.181
35865SOL    HW1 9427   7.484   8.543  12.241
35865SOL    HW2 9428   7.523   8.560  12.096
35866SOL     OW 9429   7.684   1.866   0.820
35866SOL    HW1 9430   7.684   1.780   0.861
35866SOL    HW2 9431   7.759   1.911   0.859
35867SOL     OW 9432  11.458   7.104  12.789
35867SOL    HW1 9433  11.372   7.104  12.747
35867SOL    HW2 9434  11.496   7.189  12.766
35868SOL     OW 9435  14.086  10.308   1.184
35868SOL    HW1 9436  14.155  10.315   1.249
35868SOL    HW2 9437  14.089  10.217   1.154
35869SOL     OW 9438   1.573   6.187   3.505
35869SOL    HW1 9439   1.500   6.178   3.567
35869SOL    HW2 9440   1.567   6.110   3.450
35870SOL     OW 9441  14.044   4.355   4.791
35870SOL    HW1 9442  13.987   4.428   4.816
35870SOL    HW2 9443  13.988   4.296   4.742
35871SOL     OW 9444   5.775   4.421  13.580
35871SOL    HW1 9445   5.769   4.333  13.542
35871SOL    HW2 9446   5.795   4.477  13.505
35872SOL     OW 9447   5.449   0.024  13.515
35872SOL    HW1 9448   5.469  14.860  13.600
35872SOL    HW2 9449   5.411   0.109  13.536
35873SOL     OW 9450  13.829  13.652   3.176
35873SOL    HW1 9451  13.773  13.720   3.138
35873SOL    HW2 9452  13.852  13.686   3.263
35874SOL     OW 9453  10.954   1.747   2.217
35874SOL    HW1 9454  10.943   1.658   2.250
35874SOL    HW2 9455  10.884   1.797   2.260
35875SOL     OW 9456   9.271   1.980   6.820
35875SOL    HW1 9457   9.292   2.073   6.833
35875SOL    HW2 9458   9.341   1.948   6.763
35876SOL     OW 9459   0.572  10.541   0.751
35876SOL    HW1 9460   0.644  10.517   0.693
35876SOL    HW2 9461   0.496  10.550   0.693
35877SOL     OW 9462  10.479   8.528  11.287
35877SOL    HW1 9463  10.562   8.494  11.320
35877SOL    HW2 9464  10.476   8.500  11.195
35878SOL     OW 9465   2.357   6.101   6.430
35878SOL    HW1 9466   2.391   6.142   6.351
35878SOL    HW2 9467   2.336   6.011   6.403
35879SOL     OW 9468   5.643   7.747   4.401
35879SOL    HW1 9469   5.723   7.744   4.349
35879SOL    HW2 9470   5.645   7.667   4.454
35880SOL     OW 9471  12.007   8.980  11.079
35880SOL    HW1 9472  11.924   8.951  11.042
35880SOL    HW2 9473  11.998   8.966  11.173
35881SOL     OW 9474  12.738  11.506  13.682
35881SOL    HW1 9475  12.647  11.480  13.691
35881SOL    HW2 9476  12.750  11.575  13.748
35882SOL     OW 9477   7.484   2.215   7.993
35882SOL    HW1 9478   7.427   2.284   7.958
35882SOL    HW2 9479   7.424   2.149   8.027
35883SOL     OW 9480   0.776  12.168   3.805
35883SOL    HW1 9481   0.758  12.076   3.825
35883SOL    HW2 9482   0.829  12.165   3.725
35884SOL     OW 9483   1.250   3.770  10.829
35884SOL    HW1 9484   1.307   3.724  10.767
35884SOL    HW2 9485   1.260   3.721  10.911
35885SOL     OW 9486   0.628  14.343  12.009
35885SOL    HW1 9487   0.574  14.274  12.046
35885SOL    HW2 9488   0.716  14.325  12.041
35886SOL     OW 9489   2.670   3.424   6.123
35886SOL    HW1 9490   2.636   3.367   6.053
35886SOL    HW2 9491   2.739   3.475   6.080
35887SOL     OW 9492   1.615  10.549   8.057
35887SOL    HW1 9493   1.571  10.545   8.142
35887SOL    HW2 9494   1.685  10.613   8.069
35888SOL     OW 9495   2.076   0.904   1.307
35888SOL    HW1 9496   2.102   0.896   1.398
35888SOL    HW2 9497   2.049   0.816   1.281
35889SOL     OW 9498   4.611  11.477  13.801
35889SOL    HW1 9499   4.622  11.507  13.710
35889SOL    HW2 9500   4.615  11.382  13.795
35890SOL     OW 9501   2.215   1.397  10.260
35890SOL    HW1 9502   2.223   1.425  10.352
35890SOL    HW2 9503   2.172   1.312  10.265
35891SOL     OW 9504   5.260   7.761  13.462
35891SOL    HW1 9505   5.193   7.720  13.407
35891SOL    HW2 9506   5.211   7.820  13.519
35892SOL     OW 9507   3.837   2.519  11.826
35892SOL    HW1 9508   3.911   2.477  11.870
35892SOL    HW2 9509   3.810   2.455  11.759
35893SOL     OW 9510   0.909   2.041   5.880
35893SOL    HW1 9511   0.961   1.970   5.842
35893SOL    HW2 9512   0.838   1.996   5.926
35894SOL     OW 9513   8.591   5.798   6.407
35894SOL    HW1 9514   8.603   5.726   6.346
35894SOL    HW2 9515   8.586   5.756   6.493
35895SOL     OW 9516   5.631   4.448  14.854
35895SOL    HW1 9517   5.536   4.442  14.844
35895SOL    HW2 9518   5.647   4.540  14.873
35896SOL     OW 9519   6.559   0.946  12.943
35896SOL    HW1 9520   6.582   0.963  12.852
35896SOL    HW2 9521   6.633   0.897  12.978
35897SOL     OW 9522   5.339   2.372   0.348
35897SOL    HW1 9523   5.308   2.461   0.363
35897SOL    HW2 9524   5.325   2.326   0.431
35898SOL     OW 9525  11.534   1.589   6.503
35898SOL    HW1 9526  11.525   1.498   6.531
35898SOL    HW2 9527  11.486   1.639   6.569
35899SOL     OW 9528   2.889   1.288   9.070
35899SOL    HW1 9529   2.841   1.249   9.143
35899SOL    HW2 9530   2.912   1.214   9.014
35900SOL     OW 9531   1.509  14.152   5.229
35900SOL    HW1 9532   1.528  14.239   5.193
35900SOL    HW2 9533   1.420  14.133   5.201
35901SOL     OW 9534  10.057   1.797   6.289
35901SOL    HW1 9535  10.042   1.721   6.233
35901SOL    HW2 9536  10.066   1.760   6.377
35902SOL     OW 9537  13.403  11.104   5.587
35902SOL    HW1 9538  13.419  11.050   5.511
35902SOL    HW2 9539  13.484  11.153   5.600
35903SOL     OW 9540  13.215   1.772  13.047
35903SOL    HW1 9541  13.199   1.773  12.953
35903SOL    HW2 9542  13.237   1.681  13.066
35904SOL     OW 9543   6.368   4.989  11.395
35904SOL    HW1 9544   6.376   5.010  11.302
35904SOL    HW2 9545   6.431   5.047  11.437
35905SOL     OW 9546   2.181   9.252   0.990
35905SOL    HW1 9547   2.215   9.198   1.060
35905SOL    HW2 9548   2.256   9.303   0.960
35906SOL     OW 9549   3.609   4.053   9.426
35906SOL    HW1 9550   3.565   4.076   9.344
35906SOL    HW2 9551   3.677   4.120   9.437
35907SOL     OW 9552   0.741  10.354   3.497
35907SOL    HW1 9553   0.736  10.417   3.425
35907SOL    HW2 9554   0.818  10.381   3.547
35908SOL     OW 9555  10.052   0.649  12.890
35908SOL    HW1 9556  10.095   0.678  12.970
35908SOL    HW2 9557  10.110   0.581  12.855
35909SOL     OW 9558   3.154  12.649  10.158
35909SOL    HW1 9559   3.121  12.565  10.128
35909SOL    HW2 9560   3.238  12.660  10.114
35910SOL     OW 9561   0.946   3.755   7.290
35910SOL    HW1 9562   1.039   3.741   7.279
35910SOL    HW2 9563   0.937   3.850   7.300
35911SOL     OW 9564   1.056   6.356   7.565
35911SOL    HW1 9565   1.099   6.367   7.480
35911SOL    HW2 9566   0.982   6.297   7.547
35912SOL     OW 9567  10.934   5.730  10.039
35912SOL    HW1 9568  10.930   5.805   9.979
35912SOL    HW2 9569  10.959   5.656   9.984
35913SOL     OW 9570   9.005   7.260  10.884
35913SOL    HW1 9571   9.092   7.223  10.897
35913SOL    HW2 9572   9.002   7.335  10.945
35914SOL     OW 9573   6.848   3.719   2.184
35914SOL    HW1 9574   6.942   3.739   2.186
35914SOL    HW2 9575   6.843   3.630   2.152
35915SOL     OW 9576   6.978  10.451  11.098
35915SOL    HW1 9577   6.976  10.538  11.058
35915SOL    HW2 9578   6.907  10.403  11.055
35916SOL     OW 9579   3.528  11.255   0.790
35916SOL    HW1 9580   3.470  11.189   0.754
35916SOL    HW2 9581   3.615  11.216   0.787
35917SOL     OW 9582  11.918   7.785  13.883
35917SOL    HW1 9583  11.829   7.750  13.898
35917SOL    HW2 9584  11.975   7.728  13.935
35918SOL     OW 9585   6.410   6.327   3.496
35918SOL    HW1 9586   6.493   6.280   3.503
35918SOL    HW2 9587   6.355   6.272   3.440
35919SOL     OW 9588   3.134  12.232   1.263
35919SOL    HW1 9589   3.212  12.185   1.235
35919SOL    HW2 9590   3.113  12.290   1.190
35920SOL     OW 9591   8.323  11.691  12.119
35920SOL    HW1 9592   8.300  11.657  12.033
35920SOL    HW2 9593   8.416  11.714  12.112
35921SOL     OW 9594   2.055   4.767   6.382
35921SOL    HW1 9595   2.145   4.774   6.353
35921SOL    HW2 9596   2.044   4.840   6.443
35922SOL     OW 9597   9.702   5.574  13.517
35922SOL    HW1 9598   9.788   5.607  13.542
35922SOL    HW2 9599   9.649   5.653  13.504
35923SOL     OW 9600   3.123   4.216   6.045
35923SOL    HW1 9601   3.125   4.269   5.965
35923SOL    HW2 9602   3.067   4.265   6.105
35924SOL     OW 9603  12.260   8.177   0.262
35924SOL    HW1 9604  12.194   8.125   0.307
35924SOL    HW2 9605  12.267   8.257   0.314
35925SOL     OW 9606   6.469   3.335  10.287
35925SOL    HW1 9607   6.494   3.348  10.196
35925SOL    HW2 9608   6.388   3.385  10.297
35926SOL     OW 9609   2.952   3.553  12.294
35926SOL    HW1 9610   2.998   3.491  12.238
35926SOL    HW2 9611   3.005   3.556  12.374
35927SOL     OW 9612   2.088  12.354   7.233
35927SOL    HW1 9613   2.142  12.345   7.311
35927SOL    HW2 9614   2.026  12.280   7.238
35928SOL     OW 9615  11.975   4.435  11.290
35928SOL    HW1 9616  12.035   4.394  11.227
35928SOL    HW2 9617  11.939   4.511  11.243
35929SOL     OW 9618  14.680  14.512   3.336
35929SOL    HW1 9619  14.713  14.485   3.250
35929SOL    HW2 9620  14.756  14.552   3.379
35930SOL     OW 9621   6.808   4.102  13.576
35930SOL    HW1 9622   6.892   4.129  13.615
35930SOL    HW2 9623   6.832   4.069  13.489
35931SOL     OW 9624   2.089   0.789   6.417
35931SOL    HW1 9625   2.162   0.742   6.457
35931SOL    HW2 9626   2.013   0.734   6.433
35932SOL     OW 9627  11.670   0.859  10.649
35932SOL    HW1 9628  11.659   0.833  10.558
35932SOL    HW2 9629  11.759   0.830  10.672
35933SOL     OW 9630   1.905   1.104   9.601
35933SOL    HW1 9631   1.884   1.016   9.631
35933SOL    HW2 9632   1.864   1.112   9.515
35934SOL     OW 9633  14.530   3.796   5.190
35934SOL    HW1 9634  14.564   3.782   5.101
35934SOL    HW2 9635  14.501   3.886   5.191
35935SOL     OW 9636   9.571   4.685  14.106
35935SOL    HW1 9637   9.537   4.607  14.151
35935SOL    HW2 9638   9.495   4.725  14.065
35936SOL     OW 9639   5.564   1.938   8.326
35936SOL    HW1 9640   5.519   1.867   8.372
35936SOL    HW2 9641   5.656   1.927   8.347
35937SOL     OW 9642   3.135   3.219  14.554
35937SOL    HW1 9643   3.123   3.130  14.589
35937SOL    HW2 9644   3.218   3.248  14.593
35938SOL     OW 9645  11.329   6.280   1.609
35938SOL    HW1 9646  11.289   6.246   1.688
35938SOL    HW2 9647  11.339   6.374   1.625
35939SOL     OW 9648  12.954  11.731   9.055
35939SOL    HW1 9649  12.889  11.795   9.083
35939SOL    HW2 9650  13.022  11.783   9.013
35940SOL     OW 9651   8.616  14.204   1.871
35940SOL    HW1 9652   8.653  14.193   1.784
35940SOL    HW2 9653   8.621  14.117   1.911
35941SOL     OW 9654  11.163   8.609   0.245
35941SOL    HW1 9655  11.187   8.613   0.153
35941SOL    HW2 9656  11.109   8.530   0.252
35942SOL     OW 9657   3.928   9.775   4.894
35942SOL    HW1 9658   3.931   9.862   4.934
35942SOL    HW2 9659   3.838   9.766   4.863
35943SOL     OW 9660  11.121   0.159  11.884
35943SOL    HW1 9661  11.149   0.239  11.929
35943SOL    HW2 9662  11.202   0.119  11.853
35944SOL     OW 9663   4.610   7.205   7.288
35944SOL    HW1 9664   4.696   7.192   7.327
35944SOL    HW2 9665   4.563   7.123   7.303
35945SOL     OW 9666  13.099   5.533   2.941
35945SOL    HW1 9667  13.146   5.450   2.947
35945SOL    HW2 9668  13.057   5.543   3.026
35946SOL     OW 9669   5.454  12.757   4.098
35946SOL    HW1 9670   5.531  12.783   4.148
35946SOL    HW2 9671   5.484  12.684   4.044
35947SOL     OW 9672  12.605   5.988   8.510
35947SOL    HW1 9673  12.662   5.966   8.583
35947SOL    HW2 9674  12.610   5.913   8.451
35948SOL     OW 9675   0.163   5.186   2.324
35948SOL    HW1 9676   0.130   5.212   2.238
35948SOL    HW2 9677   0.118   5.103   2.342
35949SOL     OW 9678   6.218  14.207   5.529
35949SOL    HW1 9679   6.270  14.222   5.608
35949SOL    HW2 9680   6.243  14.120   5.501
35950SOL     OW 9681   4.307   3.242   3.987
35950SOL    HW1 9682   4.350   3.327   3.978
35950SOL    HW2 9683   4.310   3.224   4.081
35951SOL     OW 9684   4.540  12.479   8.942
35951SOL    HW1 9685   4.519  12.567   8.911
35951SOL    HW2 9686   4.510  12.477   9.033
35952SOL     OW 9687   1.826  12.917   1.211
35952SOL    HW1 9688   1.735  12.901   1.188
35952SOL    HW2 9689   1.846  13.003   1.174
35953SOL     OW 9690   3.853   1.627  12.393
35953SOL    HW1 9691   3.946   1.638  12.413
35953SOL    HW2 9692   3.842   1.661  12.304
35954SOL     OW 9693  14.581   9.192   0.530
35954SOL    HW1 9694  14.561   9.122   0.468
35954SOL    HW2 9695  14.613   9.264   0.475
35955SOL     OW 9696  10.291  14.136   9.856
35955SOL    HW1 9697  10.302  14.179   9.941
35955SOL    HW2 9698  10.284  14.043   9.877
35956SOL     OW 9699  14.130   0.087   2.395
35956SOL    HW1 9700  14.066   0.152   2.420
35956SOL    HW2 9701  14.209   0.110   2.444
35957SOL     OW 9702   7.505   4.154  13.753
35957SOL    HW1 9703   7.527   4.231  13.702
35957SOL    HW2 9704   7.411   4.144  13.743
35958SOL     OW 9705   1.597   1.039  12.053
35958SOL    HW1 9706   1.560   1.118  12.093
35958SOL    HW2 9707   1.544   0.968  12.088
35959SOL     OW 9708   3.690  12.460  10.678
35959SOL    HW1 9709   3.777  12.456  10.719
35959SOL    HW2 9710   3.690  12.541  10.628
35960SOL     OW 9711  11.971   5.973   1.921
35960SOL    HW1 9712  12.020   6.039   1.970
35960SOL    HW2 9713  11.924   5.923   1.987
35961SOL     OW 9714  11.542   9.300   3.310
35961SOL    HW1 9715  11.623   9.312   3.261
35961SOL    HW2 9716  11.515   9.388   3.335
35962SOL     OW 9717  10.510  12.747  13.853
35962SOL    HW1 9718  10.553  12.830  13.875
35962SOL    HW2 9719  10.555  12.682  13.907
35963SOL     OW 9720   0.178   5.311  13.023
35963SOL    HW1 9721   0.260   5.287  13.066
35963SOL    HW2 9722   0.121   5.340  13.094
35964SOL     OW 9723   8.172   6.391   0.417
35964SOL    HW1 9724   8.210   6.327   0.477
35964SOL    HW2 9725   8.133   6.338   0.347
35965SOL     OW 9726   7.044  12.090  11.698
35965SOL    HW1 9727   6.968  12.148  11.701
35965SOL    HW2 9728   7.104  12.133  11.638
35966SOL     OW 9729   4.356   9.657   2.602
35966SOL    HW1 9730   4.351   9.563   2.583
35966SOL    HW2 9731   4.311   9.667   2.686
35967SOL     OW 9732   4.735   4.642  14.534
35967SOL    HW1 9733   4.690   4.709  14.482
35967SOL    HW2 9734   4.785   4.592  14.470
35968SOL     OW 9735  11.581  10.490   9.474
35968SOL    HW1 9736  11.499  10.508   9.519
35968SOL    HW2 9737  11.564  10.410   9.424
35969SOL     OW 9738   8.487   1.311  14.540
35969SOL    HW1 9739   8.501   1.247  14.609
35969SOL    HW2 9740   8.407   1.282  14.496
35970SOL     OW 9741  11.758   5.356   8.668
35970SOL    HW1 9742  11.768   5.369   8.573
35970SOL    HW2 9743  11.807   5.276   8.686
35971SOL     OW 9744   9.728   5.926  14.837
35971SOL    HW1 9745   9.638   5.959  14.828
35971SOL    HW2 9746   9.736   5.903   0.053
35972SOL     OW 9747   0.681  10.964  14.558
35972SOL    HW1 9748   0.610  10.902  14.541
35972SOL    HW2 9749   0.644  11.025  14.623
35973SOL     OW 9750   5.062  12.309   6.735
35973SOL    HW1 9751   5.146  12.323   6.691
35973SOL    HW2 9752   5.080  12.331   6.827
35974SOL     OW 9753   2.668   2.130   4.660
35974SOL    HW1 9754   2.637   2.146   4.571
35974SOL    HW2 9755   2.673   2.035   4.668
35975SOL     OW 9756   8.009  14.501   0.650
35975SOL    HW1 9757   7.913  14.500   0.654
35975SOL    HW2 9758   8.037  14.523   0.739
35976SOL     OW 9759  11.513   1.213   8.928
35976SOL    HW1 9760  11.508   1.227   9.023
35976SOL    HW2 9761  11.577   1.278   8.898
35977SOL     OW 9762   9.234   0.948   2.160
35977SOL    HW1 9763   9.303   0.883   2.174
35977SOL    HW2 9764   9.247   0.978   2.070
35978SOL     OW 9765  10.733   7.904  11.690
35978SOL    HW1 9766  10.809   7.948  11.654
35978SOL    HW2 9767  10.726   7.937  11.779
35979SOL     OW 9768   9.499   7.651  11.612
35979SOL    HW1 9769   9.466   7.653  11.702
35979SOL    HW2 9770   9.421   7.653  11.558
35980SOL     OW 9771   0.149   0.233   8.353
35980SOL    HW1 9772   0.179   0.323   8.338
35980SOL    HW2 9773   0.227   0.179   8.342
35981SOL     OW 9774   0.022   2.061  13.792
35981SOL    HW1 9775   0.030   1.967  13.778
35981SOL    HW2 9776   0.072   2.078  13.872
35982SOL     OW 9777   4.650   0.515   5.912
35982SOL    HW1 9778   4.718   0.482   5.853
35982SOL    HW2 9779   4.625   0.439   5.964
35983SOL     OW 9780   3.017   3.215   1.037
35983SOL    HW1 9781   3.052   3.194   0.951
35983SOL    HW2 9782   2.924   3.233   1.022
35984SOL     OW 9783   8.385   0.269   7.614
35984SOL    HW1 9784   8.407   0.267   7.707
35984SOL    HW2 9785   8.290   0.284   7.613
35985SOL     OW 9786  14.769   2.560  12.858
35985SOL    HW1 9787  14.687   2.607  12.870
35985SOL    HW2 9788  14.774   2.500  12.932
35986SOL     OW 9789   0.518   6.292   5.732
35986SOL    HW1 9790   0.443   6.233   5.717
35986SOL    HW2 9791   0.579   6.271   5.662
35987SOL     OW 9792   1.653   5.624   1.563
35987SOL    HW1 9793   1.668   5.713   1.532
35987SOL    HW2 9794   1.625   5.576   1.485
35988SOL     OW 9795   0.935   2.760   3.979
35988SOL    HW1 9796   0.898   2.705   3.909
35988SOL    HW2 9797   0.879   2.838   3.979
35989SOL     OW 9798   5.444   2.082   8.697
35989SOL    HW1 9799   5.519   2.031   8.727
35989SOL    HW2 9800   5.453   2.082   8.601
35990SOL     OW 9801   6.393   9.030   8.651
35990SOL    HW1 9802   6.307   9.008   8.617
35990SOL    HW2 9803   6.429   8.947   8.682
35991SOL     OW 9804  14.371  12.753   2.199
35991SOL    HW1 9805  14.283  12.744   2.162
35991SOL    HW2 9806  14.393  12.666   2.232
35992SOL     OW 9807  10.442   9.419   0.355
35992SOL    HW1 9808  10.487   9.491   0.399
35992SOL    HW2 9809  10.451   9.345   0.415
35993SOL     OW 9810  11.085   4.207   2.076
35993SOL    HW1 9811  11.070   4.226   2.169
35993SOL    HW2 9812  11.146   4.276   2.048
35994SOL     OW 9813   8.823   9.698   2.921
35994SOL    HW1 9814   8.848   9.671   3.010
35994SOL    HW2 9815   8.738   9.742   2.933
35995SOL     OW 9816   4.974   3.854   8.769
35995SOL    HW1 9817   4.960   3.838   8.675
35995SOL    HW2 9818   5.066   3.878   8.776
35996SOL     OW 9819  12.632   2.613  10.074
35996SOL    HW1 9820  12.646   2.700  10.036
35996SOL    HW2 9821  12.720   2.582  10.096
35997SOL     OW 9822  14.586  11.378  14.296
35997SOL    HW1 9823  14.661  11.417  14.250
35997SOL    HW2 9824  14.624  11.336  14.373
35998SOL     OW 9825  10.194   9.889  13.838
35998SOL    HW1 9826  10.275   9.868  13.884
35998SOL    HW2 9827  10.143   9.808  13.841
35999SOL     OW 9828   9.972   9.107   7.335
35999SOL    HW1 9829  10.030   9.163   7.284
35999SOL    HW2 9830  10.012   9.105   7.422
36000SOL     OW 9831  10.648  10.721   9.307
36000SOL    HW1 9832  10.604  10.699   9.225
36000SOL    HW2 9833  10.695  10.641   9.332
36001SOL     OW 9834   6.136  10.489  11.615
36001SOL    HW1 9835   6.206  10.505  11.678
36001SOL    HW2 9836   6.134  10.394  11.605
36002SOL     OW 9837  13.794   2.680   1.422
36002SOL    HW1 9838  13.885   2.668   1.449
36002SOL    HW2 9839  13.755   2.732   1.492
36003SOL     OW 9840  10.301   6.425   7.234
36003SOL    HW1 9841  10.334   6.474   7.310
36003SOL    HW2 9842  10.211   6.401   7.259
36004SOL     OW 9843   5.169   2.364   8.689
36004SOL    HW1 9844   5.207   2.398   8.608
36004SOL    HW2 9845   5.194   2.271   8.690
36005SOL     OW 9846   8.410  10.005  14.315
36005SOL    HW1 9847   8.419  10.000  14.220
36005SOL    HW2 9848   8.493  10.043  14.346
36006SOL     OW 9849   7.325  12.172   3.162
36006SOL    HW1 9850   7.345  12.238   3.096
36006SOL    HW2 9851   7.329  12.219   3.245
36007SOL     OW 9852  12.925   7.208   3.230
36007SOL    HW1 9853  12.846   7.213   3.284
36007SOL    HW2 9854  12.948   7.299   3.212
36008SOL     OW 9855  10.802   5.530   7.479
36008SOL    HW1 9856  10.841   5.471   7.543
36008SOL    HW2 9857  10.736   5.578   7.528
36009SOL     OW 9858   7.737  14.091   2.598
36009SOL    HW1 9859   7.766  14.000   2.609
36009SOL    HW2 9860   7.788  14.140   2.663
36010SOL     OW 9861  11.103  14.078  13.915
36010SOL    HW1 9862  11.171  14.128  13.870
36010SOL    HW2 9863  11.022  14.099  13.869
36011SOL     OW 9864   2.461   7.962  14.870
36011SOL    HW1 9865   2.447   8.043   0.044
36011SOL    HW2 9866   2.554   7.945   0.003
36012SOL     OW 9867  12.609   4.196  10.347
36012SOL    HW1 9868  12.692   4.188  10.393
36012SOL    HW2 9869  12.628   4.167  10.257
36013SOL     OW 9870   7.008   4.481   3.481
36013SOL    HW1 9871   6.954   4.403   3.476
36013SOL    HW2 9872   7.077   4.458   3.544
36014SOL     OW 9873   5.767   0.799   1.035
36014SOL    HW1 9874   5.701   0.730   1.026
36014SOL    HW2 9875   5.743   0.845   1.115
36015SOL     OW 9876   1.407  11.224   6.652
36015SOL    HW1 9877   1.375  11.268   6.731
36015SOL    HW2 9878   1.363  11.270   6.580
36016SOL     OW 9879   0.267   6.823   5.251
36016SOL    HW1 9880   0.337   6.794   5.193
36016SOL    HW2 9881   0.191   6.837   5.194
36017SOL     OW 9882   3.149  14.767   4.767
36017SOL    HW1 9883   3.074  14.796   4.715
36017SOL    HW2 9884   3.133  14.804   4.854
36018SOL     OW 9885  10.791  12.182   5.770
36018SOL    HW1 9886  10.770  12.212   5.858
36018SOL    HW2 9887  10.842  12.254   5.732
36019SOL     OW 9888  11.809   4.665  13.238
36019SOL    HW1 9889  11.736   4.704  13.190
36019SOL    HW2 9890  11.862   4.740  13.267
36020SOL     OW 9891   1.055   5.318   0.545
36020SOL    HW1 9892   1.012   5.395   0.507
36020SOL    HW2 9893   1.143   5.348   0.568
36021SOL     OW 9894   2.687  14.189   2.058
36021SOL    HW1 9895   2.679  14.256   2.126
36021SOL    HW2 9896   2.666  14.234   1.976
36022SOL     OW 9897   5.142  11.256   2.718
36022SOL    HW1 9898   5.156  11.340   2.674
36022SOL    HW2 9899   5.047  11.246   2.722
36023SOL     OW 9900   7.153   3.902  13.190
36023SOL    HW1 9901   7.090   3.884  13.119
36023SOL    HW2 9902   7.217   3.962  13.151
36024SOL     OW 9903   6.810  13.151   5.732
36024SOL    HW1 9904   6.737  13.136   5.791
36024SOL    HW2 9905   6.816  13.071   5.680
36025SOL     OW 9906   1.970  11.236  13.730
36025SOL    HW1 9907   1.956  11.326  13.758
36025SOL    HW2 9908   2.050  11.209  13.774
36026SOL     OW 9909   6.911   3.301  10.861
36026SOL    HW1 9910   6.923   3.395  10.847
36026SOL    HW2 9911   6.865   3.296  10.945
36027SOL     OW 9912  12.767  10.806  12.571
36027SOL    HW1 9913  12.845  10.764  12.608
36027SOL    HW2 9914  12.697  10.789  12.634
36028SOL     OW 9915   5.783   3.242   5.439
36028SOL    HW1 9916   5.743   3.243   5.352
36028SOL    HW2 9917   5.718   3.200   5.495
36029SOL     OW 9918   6.058   0.822   3.996
36029SOL    HW1 9919   5.987   0.880   3.968
36029SOL    HW2 9920   6.133   0.846   3.942
36030SOL     OW 9921  14.356  14.039   7.483
36030SOL    HW1 9922  14.359  14.130   7.512
36030SOL    HW2 9923  14.303  14.040   7.404
36031SOL     OW 9924  10.700   8.170  10.080
36031SOL    HW1 9925  10.630   8.108  10.100
36031SOL    HW2 9926  10.655   8.250  10.054
36032SOL     OW 9927   4.654  12.597  13.661
36032SOL    HW1 9928   4.732  12.550  13.631
36032SOL    HW2 9929   4.589  12.528  13.676
36033SOL     OW 9930   0.782  14.063   3.605
36033SOL    HW1 9931   0.819  14.136   3.556
36033SOL    HW2 9932   0.696  14.094   3.633
36034SOL     OW 9933  10.605   6.038   9.009
36034SOL    HW1 9934  10.534   6.029   9.073
36034SOL    HW2 9935  10.561   6.072   8.931
36035SOL     OW 9936   9.184  13.388   9.683
36035SOL    HW1 9937   9.235  13.313   9.653
36035SOL    HW2 9938   9.247  13.459   9.690
36036SOL     OW 9939  10.614   0.904   7.436
36036SOL    HW1 9940  10.650   0.983   7.394
36036SOL    HW2 9941  10.692   0.852   7.458
36037SOL     OW 9942   3.338  10.182  12.571
36037SOL    HW1 9943   3.309  10.093  12.552
36037SOL    HW2 9944   3.420  10.191  12.522
36038SOL     OW 9945  14.046   6.681   1.693
36038SOL    HW1 9946  14.031   6.652   1.603
36038SOL    HW2 9947  14.068   6.774   1.685
36039SOL     OW 9948   8.680  12.068   9.955
36039SOL    HW1 9949   8.680  11.977   9.928
36039SOL    HW2 9950   8.711  12.117   9.879
36040SOL     OW 9951  13.699  10.558  14.022
36040SOL    HW1 9952  13.739  10.533  13.938
36040SOL    HW2 9953  13.699  10.477  14.073
36041SOL     OW 9954   9.992   0.179   9.865
36041SOL    HW1 9955   9.946   0.104   9.828
36041SOL    HW2 9956   9.971   0.252   9.806
36042SOL     OW 9957   1.799  13.427  14.071
36042SOL    HW1 9958   1.838  13.457  14.153
36042SOL    HW2 9959   1.869  13.381  14.026
36043SOL     OW 9960   9.698  12.591  12.896
36043SOL    HW1 9961   9.779  12.584  12.947
36043SOL    HW2 9962   9.704  12.677  12.854
36044SOL     OW 9963   3.258  12.802   0.217
36044SOL    HW1 9964   3.334  12.855   0.194
36044SOL    HW2 9965   3.211  12.854   0.282
36045SOL     OW 9966   7.899   0.420  14.505
36045SOL    HW1 9967   7.863   0.336  14.475
36045SOL    HW2 9968   7.957   0.448  14.435
36046SOL     OW 9969   3.722   7.797  11.076
36046SOL    HW1 9970   3.666   7.722  11.094
36046SOL    HW2 9971   3.808   7.773  11.111
36047SOL     OW 9972   6.532   1.272   9.917
36047SOL    HW1 9973   6.520   1.364   9.937
36047SOL    HW2 9974   6.542   1.230  10.002
36048SOL     OW 9975   7.084  10.651  14.664
36048SOL    HW1 9976   7.050  10.635  14.575
36048SOL    HW2 9977   7.134  10.572  14.685
36049SOL     OW 9978  10.191  12.126  12.471
36049SOL    HW1 9979  10.188  12.064  12.398
36049SOL    HW2 9980  10.125  12.191  12.450
36050SOL     OW 9981   7.936   8.426   9.390
36050SOL    HW1 9982   8.029   8.416   9.372
36050SOL    HW2 9983   7.911   8.507   9.346
36051SOL     OW 9984   4.045   6.691   3.457
36051SOL    HW1 9985   4.107   6.747   3.503
36051SOL    HW2 9986   4.072   6.695   3.365
36052SOL     OW 9987   6.727   5.912   5.092
36052SOL    HW1 9988   6.788   5.986   5.087
36052SOL    HW2 9989   6.725   5.878   5.002
36053SOL     OW 9990  13.786  12.511   8.281
36053SOL    HW1 9991  13.789  12.415   8.284
36053SOL    HW2 9992  13.873  12.538   8.311
36054SOL     OW 9993  10.672   8.868  12.835
36054SOL    HW1 9994  10.681   8.851  12.929
36054SOL    HW2 9995  10.582   8.898  12.824
36055SOL     OW 9996   6.759   0.283   8.082
36055SOL    HW1 9997   6.839   0.251   8.125
36055SOL    HW2 9998   6.783   0.370   8.051
36056SOL     OW 9999  13.561   3.087   3.362
36056SOL    HW110000  13.527   3.091   3.273
36056SOL    HW210001  13.514   3.013   3.402
36057SOL     OW10002  13.106   3.798  11.850
36057SOL    HW110003  13.126   3.795  11.756
36057SOL    HW210004  13.190   3.780  11.893
36058SOL     OW10005   6.005  13.906  10.132
36058SOL    HW110006   5.941  13.961  10.087
36058SOL    HW210007   6.088  13.924  10.089
36059SOL     OW10008   6.634  10.251   8.256
36059SOL    HW110009   6.631  10.346   8.273
36059SOL    HW210010   6.715  10.238   8.208
36060SOL     OW10011   2.738   5.656   5.787
36060SOL    HW110012   2.797   5.714   5.741
36060SOL    HW210013   2.784   5.634   5.869
36061SOL     OW10014   5.676   5.540   6.452
36061SOL    HW110015   5.589   5.501   6.451
36061SOL    HW210016   5.685   5.577   6.540
36062SOL     OW10017  11.918  12.968   4.128
36062SOL    HW110018  11.950  12.878   4.117
36062SOL    HW210019  11.831  12.966   4.088
36063SOL     OW10020  13.745   2.367   5.708
36063SOL    HW110021  13.768   2.296   5.768
36063SOL    HW210022  13.808   2.358   5.636
36064SOL     OW10023  11.397  14.083   8.155
36064SOL    HW110024  11.380  14.117   8.243
36064SOL    HW210025  11.438  14.156   8.109
36065SOL     OW10026   9.229  14.545   6.216
36065SOL    HW110027   9.172  14.499   6.278
36065SOL    HW210028   9.198  14.518   6.130
36066SOL     OW10029   4.589   7.104   0.767
36066SOL    HW110030   4.535   7.157   0.708
36066SOL    HW210031   4.673   7.097   0.723
36067SOL     OW10032   0.546   1.172  10.079
36067SOL    HW110033   0.587   1.251  10.114
36067SOL    HW210034   0.592   1.100  10.124
36068SOL     OW10035   3.168  13.426   6.574
36068SOL    HW110036   3.231  13.431   6.502
36068SOL    HW210037   3.092  13.381   6.536
36069SOL     OW10038   9.357   6.690   9.475
36069SOL    HW110039   9.268   6.725   9.477
36069SOL    HW210040   9.399   6.727   9.554
36070SOL     OW10041  11.765   9.597   7.116
36070SOL    HW110042  11.753   9.530   7.183
36070SOL    HW210043  11.681   9.643   7.113
36071SOL     OW10044   1.673   4.871  10.063
36071SOL    HW110045   1.762   4.890  10.032
36071SOL    HW210046   1.616   4.906   9.994
36072SOL     OW10047   0.787   7.038   6.001
36072SOL    HW110048   0.785   7.066   5.909
36072SOL    HW210049   0.770   7.118   6.050
36073SOL     OW10050  12.913  14.522   0.929
36073SOL    HW110051  12.839  14.469   0.960
36073SOL    HW210052  12.925  14.495   0.838
36074SOL     OW10053   4.637   8.888   2.323
36074SOL    HW110054   4.615   8.846   2.407
36074SOL    HW210055   4.718   8.846   2.296
36075SOL     OW10056   7.648   7.137   4.363
36075SOL    HW110057   7.715   7.097   4.308
36075SOL    HW210058   7.698   7.188   4.427
36076SOL     OW10059   0.667   3.206   3.798
36076SOL    HW110060   0.650   3.135   3.736
36076SOL    HW210061   0.714   3.271   3.746
36077SOL     OW10062   5.688   3.408  12.458
36077SOL    HW110063   5.651   3.339  12.403
36077SOL    HW210064   5.714   3.364  12.538
36078SOL     OW10065   2.713   1.519   3.283
36078SOL    HW110066   2.725   1.528   3.188
36078SOL    HW210067   2.652   1.446   3.293
36079SOL     OW10068   3.818   7.824   8.418
36079SOL    HW110069   3.855   7.760   8.358
36079SOL    HW210070   3.781   7.771   8.489
36080SOL     OW10071  10.194   4.223   1.678
36080SOL    HW110072  10.187   4.133   1.711
36080SOL    HW210073  10.161   4.277   1.750
36081SOL     OW10074   9.086  12.898  11.870
36081SOL    HW110075   9.131  12.977  11.839
36081SOL    HW210076   9.075  12.845  11.791
36082SOL     OW10077  10.355   0.089  14.649
36082SOL    HW110078  10.315   0.047  14.572
36082SOL    HW210079  10.360   0.019  14.714
36083SOL     OW10080   3.030  10.068   1.083
36083SOL    HW110081   3.006   9.975   1.090
36083SOL    HW210082   3.052  10.094   1.172
36084SOL     OW10083   7.383   2.117  12.770
36084SOL    HW110084   7.441   2.071  12.830
36084SOL    HW210085   7.414   2.091  12.683
36085SOL     OW10086  10.915   2.224   3.339
36085SOL    HW110087  10.906   2.128   3.338
36085SOL    HW210088  10.924   2.248   3.247
36086SOL     OW10089   6.171   5.458  13.996
36086SOL    HW110090   6.137   5.369  14.000
36086SOL    HW210091   6.103   5.508  13.952
36087SOL     OW10092   2.909  14.441   0.333
36087SOL    HW110093   2.964  14.516   0.357
36087SOL    HW210094   2.831  14.481   0.293
36088SOL     OW10095   9.835   4.261   1.768
36088SOL    HW110096   9.800   4.235   1.682
36088SOL    HW210097   9.805   4.352   1.778
36089SOL     OW10098   2.433   4.124  10.150
36089SOL    HW110099   2.454   4.197  10.092
36089SOL    HW210100   2.491   4.136  10.226
36090SOL     OW10101   0.287  11.844   4.760
36090SOL    HW110102   0.311  11.915   4.701
36090SOL    HW210103   0.219  11.881   4.816
36091SOL     OW10104  13.762   5.272   6.491
36091SOL    HW110105  13.831   5.336   6.508
36091SOL    HW210106  13.686   5.303   6.540
36092SOL     OW10107   4.302  10.053   9.995
36092SOL    HW110108   4.389  10.085   9.970
36092SOL    HW210109   4.320   9.983  10.058
36093SOL     OW10110  11.903   0.199   4.776
36093SOL    HW110111  11.857   0.282   4.764
36093SOL    HW210112  11.989   0.213   4.738
36094SOL     OW10113  14.000  14.708  10.367
36094SOL    HW110114  13.938  14.736  10.299
36094SOL    HW210115  13.967  14.624  10.397
36095SOL     OW10116   8.349   7.610   8.432
36095SOL    HW110117   8.302   7.614   8.349
36095SOL    HW210118   8.414   7.540   8.419
36096SOL     OW10119   0.294   3.495  11.428
36096SOL    HW110120   0.218   3.549  11.449
36096SOL    HW210121   0.306   3.441  11.506
36097SOL     OW10122   8.689   8.822   6.621
36097SOL    HW110123   8.668   8.796   6.532
36097SOL    HW210124   8.693   8.917   6.618
36098SOL     OW10125  14.334  12.719   6.660
36098SOL    HW110126  14.335  12.702   6.754
36098SOL    HW210127  14.245  12.749   6.642
36099SOL     OW10128   2.080   1.018  11.499
36099SOL    HW110129   2.092   1.039  11.406
36099SOL    HW210130   2.087   0.922  11.503
36100SOL     OW10131   8.038   6.141  13.915
36100SOL    HW110132   7.994   6.219  13.883
36100SOL    HW210133   8.128   6.169  13.933
36101SOL     OW10134   3.816  10.266  12.301
36101SOL    HW110135   3.813  10.172  12.319
36101SOL    HW210136   3.807  10.271  12.206
36102SOL     OW10137  13.862  14.834   2.072
36102SOL    HW110138  13.842  14.826   2.165
36102SOL    HW210139  13.956  14.821   2.066
36103SOL     OW10140   0.558   7.977  12.238
36103SOL    HW110141   0.577   8.044  12.172
36103SOL    HW210142   0.608   7.901  12.210
36104SOL     OW10143   8.562  11.450   1.960
36104SOL    HW110144   8.512  11.386   1.909
36104SOL    HW210145   8.544  11.427   2.051
36105SOL     OW10146  14.381   5.919   4.983
36105SOL    HW110147  14.416   5.988   5.039
36105SOL    HW210148  14.437   5.920   4.905
36106SOL     OW10149  10.896  13.496   1.972
36106SOL    HW110150  10.840  13.566   1.937
36106SOL    HW210151  10.866  13.484   2.062
36107SOL     OW10152  14.014   3.926   3.224
36107SOL    HW110153  13.950   3.857   3.244
36107SOL    HW210154  13.987   4.000   3.279
36108SOL     OW10155   5.136   8.184   9.223
36108SOL    HW110156   5.071   8.131   9.269
36108SOL    HW210157   5.219   8.139   9.241
36109SOL     OW10158   4.567  13.730   8.408
36109SOL    HW110159   4.481  13.701   8.377
36109SOL    HW210160   4.617  13.748   8.328
36110SOL     OW10161   5.419   0.976  12.108
36110SOL    HW110162   5.345   0.951  12.053
36110SOL    HW210163   5.436   0.898  12.162
36111SOL     OW10164   6.586  14.598   3.276
36111SOL    HW110165   6.623  14.548   3.204
36111SOL    HW210166   6.546  14.675   3.235
36112SOL     OW10167   4.711   8.574  11.377
36112SOL    HW110168   4.806   8.581  11.386
36112SOL    HW210169   4.682   8.529  11.456
36113SOL     OW10170   2.941   7.657   6.122
36113SOL    HW110171   2.963   7.685   6.033
36113SOL    HW210172   2.935   7.561   6.116
36114SOL     OW10173  10.167   5.001   1.550
36114SOL    HW110174  10.201   5.030   1.465
36114SOL    HW210175  10.212   5.058   1.613
36115SOL     OW10176   2.775   3.022  12.630
36115SOL    HW110177   2.817   3.055  12.551
36115SOL    HW210178   2.848   3.003  12.689
36116SOL     OW10179   6.676  13.027  13.277
36116SOL    HW110180   6.656  12.948  13.227
36116SOL    HW210181   6.675  13.000  13.368
36117SOL     OW10182   6.346  11.390  10.380
36117SOL    HW110183   6.342  11.295  10.369
36117SOL    HW210184   6.309  11.425  10.299
36118SOL     OW10185  11.405   0.137  10.132
36118SOL    HW110186  11.413   0.208  10.068
36118SOL    HW210187  11.319   0.151  10.172
36119SOL     OW10188   9.309   8.680  12.533
36119SOL    HW110189   9.245   8.656  12.466
36119SOL    HW210190   9.256   8.700  12.610
36120SOL     OW10191   7.890   6.703   7.199
36120SOL    HW110192   7.800   6.722   7.224
36120SOL    HW210193   7.897   6.608   7.206
36121SOL     OW10194   8.667   8.992  13.384
36121SOL    HW110195   8.610   8.994  13.307
36121SOL    HW210196   8.692   9.083  13.398
36122SOL     OW10197  14.869   1.156   2.885
36122SOL    HW110198   0.015   1.071   2.846
36122SOL    HW210199  14.791   1.138   2.938
36123SOL     OW10200  14.023   8.796   4.152
36123SOL    HW110201  14.017   8.758   4.240
36123SOL    HW210202  13.938   8.836   4.137
36124SOL     OW10203   4.602  14.173  10.021
36124SOL    HW110204   4.651  14.250   9.992
36124SOL    HW210205   4.648  14.146  10.101
36125SOL     OW10206  12.777  14.065   7.679
36125SOL    HW110207  12.769  14.153   7.716
36125SOL    HW210208  12.833  14.018   7.740
36126SOL     OW10209  10.506  11.494  13.985
36126SOL    HW110210  10.545  11.514  14.070
36126SOL    HW210211  10.452  11.417  14.000
36127SOL     OW10212   5.247  10.093   4.252
36127SOL    HW110213   5.189  10.094   4.175
36127SOL    HW210214   5.304  10.018   4.237
36128SOL     OW10215   6.892  13.870   3.161
36128SOL    HW110216   6.833  13.837   3.228
36128SOL    HW210217   6.898  13.964   3.178
36129SOL     OW10218  14.632   8.384  11.059
36129SOL    HW110219  14.582   8.330  11.120
36129SOL    HW210220  14.602   8.473  11.077
36130SOL     OW10221   1.379   3.422   9.629
36130SOL    HW110222   1.391   3.327   9.624
36130SOL    HW210223   1.334   3.445   9.548
36131SOL     OW10224   5.748  12.651  12.489
36131SOL    HW110225   5.801  12.714  12.537
36131SOL    HW210226   5.768  12.567  12.530
36132SOL     OW10227  12.834  14.530   9.220
36132SOL    HW110228  12.913  14.497   9.176
36132SOL    HW210229  12.765  14.523   9.154
36133SOL     OW10230  10.169   3.871  12.809
36133SOL    HW110231  10.114   3.793  12.812
36133SOL    HW210232  10.114   3.941  12.842
36134SOL     OW10233  12.236   1.230   5.861
36134SOL    HW110234  12.294   1.256   5.932
36134SOL    HW210235  12.208   1.141   5.885
36135SOL     OW10236   9.473   2.425   0.698
36135SOL    HW110237   9.398   2.418   0.639
36135SOL    HW210238   9.480   2.519   0.718
36136SOL     OW10239   0.752  11.884   0.745
36136SOL    HW110240   0.685  11.855   0.807
36136SOL    HW210241   0.745  11.979   0.744
36137SOL     OW10242  14.390  14.759  12.972
36137SOL    HW110243  14.477  14.728  12.947
36137SOL    HW210244  14.360  14.810  12.896
36138SOL     OW10245   3.607  13.641  12.626
36138SOL    HW110246   3.593  13.727  12.666
36138SOL    HW210247   3.691  13.648  12.581
36139SOL     OW10248   1.024   0.105   3.893
36139SOL    HW110249   0.991   0.080   3.806
36139SOL    HW210250   1.095   0.166   3.875
36140SOL     OW10251   4.179   1.750   2.086
36140SOL    HW110252   4.170   1.724   1.994
36140SOL    HW210253   4.163   1.670   2.136
36141SOL     OW10254  12.022   7.863   8.596
36141SOL    HW110255  12.115   7.849   8.613
36141SOL    HW210256  11.977   7.812   8.662
36142SOL     OW10257   2.137   6.419   1.048
36142SOL    HW110258   2.212   6.456   1.000
36142SOL    HW210259   2.175   6.382   1.127
36143SOL     OW10260   1.043   8.076   2.020
36143SOL    HW110261   0.994   8.078   2.102
36143SOL    HW210262   0.993   8.133   1.962
36144SOL     OW10263   9.147   2.383   2.385
36144SOL    HW110264   9.191   2.321   2.443
36144SOL    HW210265   9.176   2.359   2.297
36145SOL     OW10266   1.922   5.067  13.307
36145SOL    HW110267   1.921   5.008  13.382
36145SOL    HW210268   1.993   5.128  13.325
36146SOL     OW10269   9.746  13.773   7.863
36146SOL    HW110270   9.762  13.691   7.909
36146SOL    HW210271   9.653  13.791   7.878
36147SOL     OW10272   3.022   7.100  11.922
36147SOL    HW110273   3.051   7.121  12.011
36147SOL    HW210274   3.070   7.161  11.866
36148SOL     OW10275   3.565  11.579  11.130
36148SOL    HW110276   3.546  11.665  11.169
36148SOL    HW210277   3.479  11.540  11.115
36149SOL     OW10278   4.320   2.519  11.061
36149SOL    HW110279   4.335   2.584  11.130
36149SOL    HW210280   4.225   2.518  11.049
36150SOL     OW10281  13.357   2.425  13.443
36150SOL    HW110282  13.382   2.494  13.505
36150SOL    HW210283  13.297   2.468  13.383
36151SOL     OW10284   1.995   6.735   4.730
36151SOL    HW110285   2.054   6.687   4.788
36151SOL    HW210286   2.002   6.688   4.646
36152SOL     OW10287   0.978  13.245   9.713
36152SOL    HW110288   0.945  13.236   9.623
36152SOL    HW210289   1.057  13.297   9.704
36153SOL     OW10290  12.170  10.015   7.725
36153SOL    HW110291  12.105   9.951   7.695
36153SOL    HW210292  12.253   9.967   7.724
36154SOL     OW10293   0.179   4.291   0.373
36154SOL    HW110294   0.111   4.249   0.320
36154SOL    HW210295   0.244   4.222   0.388
36155SOL     OW10296  10.573  11.087  13.851
36155SOL    HW110297  10.590  11.002  13.809
36155SOL    HW210298  10.610  11.078  13.938
36156SOL     OW10299  12.087   3.575   1.332
36156SOL    HW110300  11.998   3.567   1.366
36156SOL    HW210301  12.144   3.555   1.407
36157SOL     OW10302   7.797  12.321  10.912
36157SOL    HW110303   7.761  12.235  10.894
36157SOL    HW210304   7.888  12.304  10.937
36158SOL     OW10305   2.522   8.470   2.748
36158SOL    HW110306   2.545   8.404   2.813
36158SOL    HW210307   2.506   8.421   2.668
36159SOL     OW10308   5.432   9.139   4.019
36159SOL    HW110309   5.371   9.095   4.078
36159SOL    HW210310   5.383   9.150   3.938
36160SOL     OW10311  11.765  14.249   7.973
36160SOL    HW110312  11.758  14.168   7.922
36160SOL    HW210313  11.807  14.311   7.913
36161SOL     OW10314   8.006   0.316   9.521
36161SOL    HW110315   8.101   0.322   9.507
36161SOL    HW210316   7.969   0.376   9.456
36162SOL     OW10317  10.712   6.948   2.265
36162SOL    HW110318  10.770   7.014   2.303
36162SOL    HW210319  10.674   6.990   2.188
36163SOL     OW10320  10.369   8.951   5.866
36163SOL    HW110321  10.391   9.011   5.795
36163SOL    HW210322  10.289   8.989   5.904
36164SOL     OW10323  11.892   8.430  11.792
36164SOL    HW110324  11.903   8.509  11.739
36164SOL    HW210325  11.968   8.375  11.770
36165SOL     OW10326  11.991  12.160   1.212
36165SOL    HW110327  11.906  12.170   1.169
36165SOL    HW210328  11.970  12.144   1.304
36166SOL     OW10329  14.514   2.625  14.864
36166SOL    HW110330  14.469   2.709  14.864
36166SOL    HW210331  14.481   2.580   0.066
36167SOL     OW10332  12.980   5.447   7.916
36167SOL    HW110333  13.073   5.454   7.935
36167SOL    HW210334  12.948   5.383   7.980
36168SOL     OW10335   6.286   1.252  10.715
36168SOL    HW110336   6.237   1.325  10.677
36168SOL    HW210337   6.351   1.295  10.772
36169SOL     OW10338   3.292   5.794  10.253
36169SOL    HW110339   3.311   5.721  10.194
36169SOL    HW210340   3.378   5.826  10.281
36170SOL     OW10341   1.071   5.412   8.359
36170SOL    HW110342   1.015   5.479   8.398
36170SOL    HW210343   1.058   5.334   8.413
36171SOL     OW10344  14.284   3.769  14.604
36171SOL    HW110345  14.358   3.717  14.633
36171SOL    HW210346  14.272   3.745  14.512
36172SOL     OW10347   1.009   2.409   4.210
36172SOL    HW110348   0.960   2.336   4.247
36172SOL    HW210349   0.946   2.480   4.204
36173SOL     OW10350   6.358  11.343   3.308
36173SOL    HW110351   6.348  11.327   3.402
36173SOL    HW210352   6.270  11.364   3.277
36174SOL     OW10353   5.275   4.408   2.887
36174SOL    HW110354   5.224   4.371   2.958
36174SOL    HW210355   5.222   4.394   2.808
36175SOL     OW10356  12.416   0.615  13.779
36175SOL    HW110357  12.492   0.660  13.815
36175SOL    HW210358  12.340   0.664  13.812
36176SOL     OW10359   8.242  12.945  12.275
36176SOL    HW110360   8.238  12.918  12.367
36176SOL    HW210361   8.291  12.875  12.232
36177SOL     OW10362   8.525  11.773  13.086
36177SOL    HW110363   8.538  11.684  13.120
36177SOL    HW210364   8.515  11.827  13.164
36178SOL     OW10365  13.039   3.391  12.631
36178SOL    HW110366  13.036   3.393  12.727
36178SOL    HW210367  13.073   3.304  12.610
36179SOL     OW10368  12.854   3.461  14.448
36179SOL    HW110369  12.777   3.474  14.393
36179SOL    HW210370  12.909   3.401  14.397
36180SOL     OW10371  14.057   1.023  13.677
36180SOL    HW110372  14.101   0.981  13.751
36180SOL    HW210373  14.119   1.014  13.604
36181SOL     OW10374   7.719   6.820  11.583
36181SOL    HW110375   7.626   6.836  11.592
36181SOL    HW210376   7.755   6.831  11.671
36182SOL     OW10377  10.433   0.796  13.566
36182SOL    HW110378  10.435   0.729  13.634
36182SOL    HW210379  10.376   0.864  13.601
36183SOL     OW10380  13.752   2.155   7.082
36183SOL    HW110381  13.795   2.093   7.139
36183SOL    HW210382  13.659   2.142   7.097
36184SOL     OW10383   1.180   7.352   4.434
36184SOL    HW110384   1.246   7.356   4.503
36184SOL    HW210385   1.176   7.441   4.399
36185SOL     OW10386   9.461   8.885  12.196
36185SOL    HW110387   9.372   8.892  12.162
36185SOL    HW210388   9.517   8.910  12.122
36186SOL     OW10389  13.701   1.609  13.891
36186SOL    HW110390  13.771   1.657  13.847
36186SOL    HW210391  13.623   1.663  13.879
36187SOL     OW10392  10.097   8.881   5.707
36187SOL    HW110393  10.105   8.907   5.798
36187SOL    HW210394  10.161   8.810   5.697
36188SOL     OW10395  11.158   7.158  10.552
36188SOL    HW110396  11.086   7.115  10.599
36188SOL    HW210397  11.121   7.242  10.524
36189SOL     OW10398   1.211   8.286   1.615
36189SOL    HW110399   1.280   8.293   1.681
36189SOL    HW210400   1.171   8.373   1.613
36190SOL     OW10401  13.060   7.400  10.328
36190SOL    HW110402  12.976   7.368  10.296
36190SOL    HW210403  13.124   7.361  10.268
36191SOL     OW10404   0.272  14.596   3.936
36191SOL    HW110405   0.271  14.505   3.965
36191SOL    HW210406   0.359  14.608   3.898
36192SOL     OW10407  12.451   3.961  10.317
36192SOL    HW110408  12.516   3.956  10.387
36192SOL    HW210409  12.458   3.877  10.272
36193SOL     OW10410   0.116   1.393  11.591
36193SOL    HW110411   0.159   1.476  11.611
36193SOL    HW210412   0.183   1.326  11.607
36194SOL     OW10413   0.829   2.810   0.857
36194SOL    HW110414   0.909   2.846   0.895
36194SOL    HW210415   0.838   2.825   0.763
36195SOL     OW10416   3.428   6.629  14.527
36195SOL    HW110417   3.501   6.569  14.513
36195SOL    HW210418   3.458   6.712  14.490
36196SOL     OW10419  13.601   5.687  10.756
36196SOL    HW110420  13.627   5.605  10.713
36196SOL    HW210421  13.561   5.739  10.686
36197SOL     OW10422  11.212  12.613   9.917
36197SOL    HW110423  11.149  12.651   9.857
36197SOL    HW210424  11.296  12.649   9.889
36198SOL     OW10425   3.882   3.860   5.843
36198SOL    HW110426   3.827   3.806   5.900
36198SOL    HW210427   3.971   3.832   5.864
36199SOL     OW10428   5.614   5.756   7.615
36199SOL    HW110429   5.560   5.741   7.538
36199SOL    HW210430   5.665   5.675   7.625
36200SOL     OW10431  13.769   2.252   4.638
36200SOL    HW110432  13.684   2.248   4.680
36200SOL    HW210433  13.750   2.275   4.547
36201SOL     OW10434  14.081   5.182   6.506
36201SOL    HW110435  14.143   5.178   6.579
36201SOL    HW210436  13.996   5.195   6.547
36202SOL     OW10437   2.262   1.961  11.892
36202SOL    HW110438   2.299   2.046  11.866
36202SOL    HW210439   2.244   1.970  11.985
36203SOL     OW10440  12.524  12.310   7.461
36203SOL    HW110441  12.471  12.370   7.409
36203SOL    HW210442  12.490  12.317   7.550
36204SOL     OW10443   9.588   4.581   9.770
36204SOL    HW110444   9.535   4.619   9.841
36204SOL    HW210445   9.589   4.648   9.703
36205SOL     OW10446   8.958   1.053   6.827
36205SOL    HW110447   8.998   0.997   6.761
36205SOL    HW210448   8.972   1.006   6.909
36206SOL     OW10449  10.900   9.546   6.450
36206SOL    HW110450  10.985   9.527   6.411
36206SOL    HW210451  10.872   9.463   6.489
36207SOL     OW10452   0.168  13.527   8.532
36207SOL    HW110453   0.177  13.616   8.498
36207SOL    HW210454   0.100  13.487   8.477
36208SOL     OW10455  12.961  13.699  10.733
36208SOL    HW110456  12.909  13.624  10.761
36208SOL    HW210457  12.898  13.772  10.731
36209SOL     OW10458  12.592  10.922   7.983
36209SOL    HW110459  12.683  10.929   7.953
36209SOL    HW210460  12.559  10.843   7.942
36210SOL     OW10461  10.207   9.791   9.290
36210SOL    HW110462  10.258   9.823   9.215
36210SOL    HW210463  10.196   9.698   9.273
36211SOL     OW10464   5.609   7.817   0.250
36211SOL    HW110465   5.599   7.802   0.156
36211SOL    HW210466   5.529   7.783   0.288
36212SOL     OW10467   3.491   1.226   7.662
36212SOL    HW110468   3.457   1.311   7.634
36212SOL    HW210469   3.563   1.207   7.601
36213SOL     OW10470  10.409   5.001   8.218
36213SOL    HW110471  10.426   5.092   8.242
36213SOL    HW210472  10.495   4.963   8.205
36214SOL     OW10473  12.457  14.178   7.421
36214SOL    HW110474  12.474  14.228   7.501
36214SOL    HW210475  12.488  14.090   7.441
36215SOL     OW10476   1.051   4.603   8.597
36215SOL    HW110477   0.970   4.573   8.638
36215SOL    HW210478   1.076   4.681   8.647
36216SOL     OW10479   1.472   2.816   9.586
36216SOL    HW110480   1.547   2.873   9.605
36216SOL    HW210481   1.486   2.788   9.495
36217SOL     OW10482   3.562  13.146   1.203
36217SOL    HW110483   3.482  13.100   1.177
36217SOL    HW210484   3.629  13.111   1.144
36218SOL     OW10485   7.742   7.521   1.662
36218SOL    HW110486   7.703   7.608   1.675
36218SOL    HW210487   7.756   7.488   1.751
36219SOL     OW10488   9.198   6.770   9.182
36219SOL    HW110489   9.163   6.803   9.265
36219SOL    HW210490   9.224   6.680   9.202
36220SOL     OW10491   3.547  10.328   3.076
36220SOL    HW110492   3.629  10.338   3.124
36220SOL    HW210493   3.569  10.350   2.986
36221SOL     OW10494  13.760   1.204  11.325
36221SOL    HW110495  13.677   1.251  11.312
36221SOL    HW210496  13.787   1.179  11.237
36222SOL     OW10497   7.785   9.010   9.574
36222SOL    HW110498   7.801   8.971   9.488
36222SOL    HW210499   7.689   9.018   9.579
36223SOL     OW10500   5.749  12.268   9.146
36223SOL    HW110501   5.841  12.265   9.120
36223SOL    HW210502   5.709  12.197   9.096
36224SOL     OW10503  12.698  14.337   7.233
36224SOL    HW110504  12.684  14.287   7.152
36224SOL    HW210505  12.612  14.374   7.253
36225SOL     OW10506  13.300   4.789   0.799
36225SOL    HW110507  13.385   4.761   0.833
36225SOL    HW210508  13.247   4.709   0.798
36226SOL     OW10509   8.562   9.508   9.743
36226SOL    HW110510   8.527   9.470   9.662
36226SOL    HW210511   8.498   9.574   9.768
36227SOL     OW10512   6.222   2.511  12.781
36227SOL    HW110513   6.294   2.486  12.840
36227SOL    HW210514   6.205   2.432  12.730
36228SOL     OW10515  14.163   6.069   5.766
36228SOL    HW110516  14.248   6.069   5.721
36228SOL    HW210517  14.129   5.981   5.753
36229SOL     OW10518   7.423  11.996  10.926
36229SOL    HW110519   7.381  11.910  10.924
36229SOL    HW210520   7.368  12.052  10.872
36230SOL     OW10521   2.464   5.013   4.683
36230SOL    HW110522   2.453   4.992   4.776
36230SOL    HW210523   2.394   4.965   4.639
36231SOL     OW10524   8.109   6.460   2.079
36231SOL    HW110525   8.111   6.407   1.999
36231SOL    HW210526   8.123   6.396   2.150
36232SOL     OW10527   5.934   3.270  10.997
36232SOL    HW110528   5.891   3.294  11.079
36232SOL    HW210529   5.863   3.240  10.940
36233SOL     OW10530   5.288   7.211   6.762
36233SOL    HW110531   5.302   7.291   6.711
36233SOL    HW210532   5.360   7.153   6.735
36234SOL     OW10533   5.716   9.089  10.479
36234SOL    HW110534   5.654   9.127  10.417
36234SOL    HW210535   5.665   9.026  10.530
36235SOL     OW10536   8.786   6.593   9.023
36235SOL    HW110537   8.701   6.586   9.065
36235SOL    HW210538   8.785   6.681   8.984
36236SOL     OW10539   3.285   1.067  11.335
36236SOL    HW110540   3.345   1.014  11.387
36236SOL    HW210541   3.206   1.074  11.388
36237SOL     OW10542  11.248   9.065   4.316
36237SOL    HW110543  11.204   9.048   4.399
36237SOL    HW210544  11.339   9.041   4.331
36238SOL     OW10545   3.383   4.375  11.658
36238SOL    HW110546   3.320   4.376  11.731
36238SOL    HW210547   3.381   4.464  11.624
36239SOL     OW10548   1.849   9.754   6.187
36239SOL    HW110549   1.794   9.681   6.215
36239SOL    HW210550   1.800   9.832   6.213
36240SOL     OW10551  10.804  13.404   2.726
36240SOL    HW110552  10.715  13.390   2.691
36240SOL    HW210553  10.846  13.319   2.719
36241SOL     OW10554   2.351   0.253  13.348
36241SOL    HW110555   2.389   0.295  13.426
36241SOL    HW210556   2.320   0.326  13.295
36242SOL     OW10557  13.063   1.243  14.352
36242SOL    HW110558  13.116   1.284  14.420
36242SOL    HW210559  13.069   1.302  14.278
36243SOL     OW10560   4.238  11.957   0.901
36243SOL    HW110561   4.247  11.862   0.914
36243SOL    HW210562   4.234  11.993   0.990
36244SOL     OW10563   3.958   4.376   7.645
36244SOL    HW110564   3.918   4.289   7.645
36244SOL    HW210565   3.983   4.390   7.553
36245SOL     OW10566   7.329  12.757   3.672
36245SOL    HW110567   7.377  12.816   3.731
36245SOL    HW210568   7.396  12.719   3.615
36246SOL     OW10569  13.658   9.781   5.896
36246SOL    HW110570  13.682   9.851   5.958
36246SOL    HW210571  13.596   9.822   5.837
36247SOL     OW10572  11.344   6.175   5.586
36247SOL    HW110573  11.425   6.133   5.614
36247SOL    HW210574  11.285   6.167   5.661
36248SOL     OW10575  10.450  11.775   8.721
36248SOL    HW110576  10.427  11.816   8.804
36248SOL    HW210577  10.427  11.840   8.655
36249SOL     OW10578  12.848  13.390   3.769
36249SOL    HW110579  12.818  13.446   3.840
36249SOL    HW210580  12.791  13.412   3.695
36250SOL     OW10581   2.288   0.413   4.404
36250SOL    HW110582   2.215   0.366   4.365
36250SOL    HW210583   2.342   0.345   4.445
36251SOL     OW10584   6.734   6.267   9.851
36251SOL    HW110585   6.688   6.332   9.798
36251SOL    HW210586   6.798   6.229   9.791
36252SOL     OW10587  12.853   9.265   1.111
36252SOL    HW110588  12.880   9.349   1.072
36252SOL    HW210589  12.796   9.290   1.184
36253SOL     OW10590  11.910  11.962   5.047
36253SOL    HW110591  11.826  12.008   5.052
36253SOL    HW210592  11.976  12.029   5.064
36254SOL     OW10593   9.299  11.007   7.371
36254SOL    HW110594   9.287  10.928   7.424
36254SOL    HW210595   9.261  10.984   7.286
36255SOL     OW10596   8.434   4.291  10.337
36255SOL    HW110597   8.440   4.195  10.335
36255SOL    HW210598   8.409   4.311  10.427
36256SOL     OW10599  11.335   3.067   7.082
36256SOL    HW110600  11.383   3.041   7.161
36256SOL    HW210601  11.245   3.077   7.111
36257SOL     OW10602   3.284   5.713   0.902
36257SOL    HW110603   3.267   5.626   0.866
36257SOL    HW210604   3.203   5.737   0.946
36258SOL     OW10605   2.062   3.929   4.460
36258SOL    HW110606   2.024   3.846   4.489
36258SOL    HW210607   2.155   3.920   4.479
36259SOL     OW10608   1.863   5.519  10.700
36259SOL    HW110609   1.868   5.614  10.709
36259SOL    HW210610   1.780   5.503  10.656
36260SOL     OW10611  11.682  12.781   8.949
36260SOL    HW110612  11.713  12.729   8.876
36260SOL    HW210613  11.596  12.746   8.970
36261SOL     OW10614   6.172  13.227   4.157
36261SOL    HW110615   6.097  13.258   4.106
36261SOL    HW210616   6.248  13.264   4.112
36262SOL     OW10617   2.778   3.979   1.927
36262SOL    HW110618   2.860   4.024   1.948
36262SOL    HW210619   2.745   3.947   2.011
36263SOL     OW10620   5.172  11.543  12.029
36263SOL    HW110621   5.172  11.545  11.933
36263SOL    HW210622   5.260  11.511  12.051
36264SOL     OW10623  11.098   3.895  10.570
36264SOL    HW110624  11.187   3.862  10.555
36264SOL    HW210625  11.069   3.926  10.484
36265SOL     OW10626  13.736   7.095   8.432
36265SOL    HW110627  13.749   7.137   8.347
36265SOL    HW210628  13.642   7.080   8.437
36266SOL     OW10629  11.189  11.051   9.524
36266SOL    HW110630  11.229  11.118   9.468
36266SOL    HW210631  11.175  10.976   9.466
36267SOL     OW10632  12.973  10.147   7.127
36267SOL    HW110633  12.991  10.210   7.197
36267SOL    HW210634  12.995  10.062   7.165
36268SOL     OW10635   0.480   1.570   2.597
36268SOL    HW110636   0.506   1.479   2.587
36268SOL    HW210637   0.449   1.577   2.688
36269SOL     OW10638   7.786   4.901   3.016
36269SOL    HW110639   7.865   4.914   2.965
36269SOL    HW210640   7.815   4.856   3.096
36270SOL     OW10641   6.310  10.472   5.126
36270SOL    HW110642   6.230  10.421   5.138
36270SOL    HW210643   6.352  10.473   5.212
36271SOL     OW10644   4.246  12.216   7.005
36271SOL    HW110645   4.250  12.291   6.945
36271SOL    HW210646   4.184  12.243   7.072
36272SOL     OW10647   5.065   0.425  11.509
36272SOL    HW110648   5.072   0.357  11.441
36272SOL    HW210649   5.084   0.506  11.463
36273SOL     OW10650   4.502   1.449  11.199
36273SOL    HW110651   4.472   1.376  11.145
36273SOL    HW210652   4.523   1.410  11.284
36274SOL     OW10653  12.735   9.580  14.272
36274SOL    HW110654  12.661   9.633  14.300
36274SOL    HW210655  12.809   9.614  14.322
36275SOL     OW10656   4.787   6.169   6.562
36275SOL    HW110657   4.802   6.261   6.585
36275SOL    HW210658   4.851   6.120   6.614
36276SOL     OW10659   7.955   1.809   7.002
36276SOL    HW110660   7.947   1.881   6.939
36276SOL    HW210661   7.873   1.760   6.992
36277SOL     OW10662   5.248  10.893   1.963
36277SOL    HW110663   5.187  10.840   1.911
36277SOL    HW210664   5.283  10.956   1.901
36278SOL     OW10665  12.346   8.306   7.726
36278SOL    HW110666  12.355   8.213   7.702
36278SOL    HW210667  12.254   8.326   7.711
36279SOL     OW10668  11.444   6.232  13.384
36279SOL    HW110669  11.513   6.285  13.344
36279SOL    HW210670  11.473   6.218  13.474
36280SOL     OW10671   0.669  11.894   0.037
36280SOL    HW110672   0.690  11.800   0.036
36280SOL    HW210673   0.718  11.930  14.839
36281SOL     OW10674   6.253   8.002   4.889
36281SOL    HW110675   6.170   8.006   4.842
36281SOL    HW210676   6.229   8.002   4.982
36282SOL     OW10677  12.183   0.851  14.592
36282SOL    HW110678  12.105   0.906  14.602
36282SOL    HW210679  12.223   0.882  14.511
36283SOL     OW10680  12.763   5.618  12.152
36283SOL    HW110681  12.722   5.543  12.109
36283SOL    HW210682  12.739   5.608  12.244
36284SOL     OW10683   6.454   7.728   5.748
36284SOL    HW110684   6.419   7.798   5.692
36284SOL    HW210685   6.416   7.648   5.713
36285SOL     OW10686  10.982   1.350   8.191
36285SOL    HW110687  11.075   1.351   8.214
36285SOL    HW210688  10.977   1.401   8.110
36286SOL     OW10689   6.025  13.656   8.944
36286SOL    HW110690   5.938  13.694   8.935
36286SOL    HW210691   6.046  13.667   9.037
36287SOL     OW10692   3.048   0.643   0.516
36287SOL    HW110693   2.961   0.604   0.517
36287SOL    HW210694   3.053   0.688   0.432
36288SOL     OW10695  11.997   9.733   3.833
36288SOL    HW110696  11.960   9.655   3.873
36288SOL    HW210697  12.047   9.700   3.758
36289SOL     OW10698  12.200   6.881   0.377
36289SOL    HW110699  12.256   6.908   0.451
36289SOL    HW210700  12.111   6.897   0.408
36290SOL     OW10701   1.921   8.178   2.003
36290SOL    HW110702   1.868   8.245   1.960
36290SOL    HW210703   2.010   8.212   2.000
36291SOL     OW10704   0.086   6.027   3.648
36291SOL    HW110705   0.002   6.042   3.690
36291SOL    HW210706   0.140   5.985   3.716
36292SOL     OW10707   0.949   9.426  11.670
36292SOL    HW110708   0.859   9.458  11.667
36292SOL    HW210709   0.998   9.489  11.618
36293SOL     OW10710  11.214   5.947   6.307
36293SOL    HW110711  11.263   5.898   6.372
36293SOL    HW210712  11.230   6.039   6.329
36294SOL     OW10713   4.605  11.037  11.977
36294SOL    HW110714   4.570  11.061  11.891
36294SOL    HW210715   4.695  11.070  11.976
36295SOL     OW10716   2.532   7.104   8.718
36295SOL    HW110717   2.462   7.099   8.783
36295SOL    HW210718   2.613   7.099   8.770
36296SOL     OW10719   4.564  12.607   2.052
36296SOL    HW110720   4.544  12.527   2.004
36296SOL    HW210721   4.549  12.585   2.144
36297SOL     OW10722   8.583   5.484  10.399
36297SOL    HW110723   8.592   5.498  10.305
36297SOL    HW210724   8.489   5.479  10.414
36298SOL     OW10725   3.903   2.465  13.038
36298SOL    HW110726   3.986   2.418  13.028
36298SOL    HW210727   3.873   2.480  12.948
36299SOL     OW10728   4.968  13.059   8.998
36299SOL    HW110729   4.983  13.069   8.904
36299SOL    HW210730   5.042  13.105   9.039
36300SOL     OW10731  11.651   5.130  14.270
36300SOL    HW110732  11.648   5.164  14.180
36300SOL    HW210733  11.735   5.161  14.304
36301SOL     OW10734  14.674  12.910  11.887
36301SOL    HW110735  14.619  12.983  11.857
36301SOL    HW210736  14.720  12.882  11.808
36302SOL     OW10737  14.446   0.889  14.532
36302SOL    HW110738  14.532   0.919  14.562
36302SOL    HW210739  14.421   0.954  14.465
36303SOL     OW10740  12.926   9.892   0.051
36303SOL    HW110741  12.847   9.909   0.102
36303SOL    HW210742  12.980   9.836   0.106
36304SOL     OW10743  13.255   0.271  12.043
36304SOL    HW110744  13.211   0.268  12.128
36304SOL    HW210745  13.200   0.218  11.985
36305SOL     OW10746  11.907  11.760  14.663
36305SOL    HW110747  11.954  11.757  14.579
36305SOL    HW210748  11.831  11.815  14.646
36306SOL     OW10749   3.315   9.589   4.433
36306SOL    HW110750   3.281   9.538   4.359
36306SOL    HW210751   3.269   9.555   4.509
36307SOL     OW10752   9.488   8.073   7.482
36307SOL    HW110753   9.579   8.046   7.468
36307SOL    HW210754   9.450   8.002   7.534
36308SOL     OW10755   1.347   8.644   8.193
36308SOL    HW110756   1.312   8.727   8.227
36308SOL    HW210757   1.332   8.649   8.098
36309SOL     OW10758   0.575   5.637  10.965
36309SOL    HW110759   0.610   5.668  11.049
36309SOL    HW210760   0.652   5.611  10.915
36310SOL     OW10761   2.246  11.621  11.151
36310SOL    HW110762   2.154  11.645  11.137
36310SOL    HW210763   2.273  11.674  11.227
36311SOL     OW10764   7.548   5.185   3.946
36311SOL    HW110765   7.483   5.154   4.009
36311SOL    HW210766   7.500   5.245   3.889
36312SOL     OW10767   4.970   5.337   7.085
36312SOL    HW110768   5.022   5.272   7.133
36312SOL    HW210769   5.027   5.364   7.013
36313SOL     OW10770  12.513   7.907   4.398
36313SOL    HW110771  12.450   7.965   4.442
36313SOL    HW210772  12.459   7.838   4.361
36314SOL     OW10773   4.884   8.191  10.073
36314SOL    HW110774   4.885   8.107  10.028
36314SOL    HW210775   4.820   8.180  10.143
36315SOL     OW10776  14.200   4.426  12.422
36315SOL    HW110777  14.293   4.419  12.403
36315SOL    HW210778  14.162   4.345  12.387
36316SOL     OW10779   3.599   9.901   1.535
36316SOL    HW110780   3.555   9.940   1.460
36316SOL    HW210781   3.670   9.963   1.556
36317SOL     OW10782   8.916   8.654  10.631
36317SOL    HW110783   8.979   8.608  10.575
36317SOL    HW210784   8.832   8.640  10.588
36318SOL     OW10785   9.167   8.652   9.484
36318SOL    HW110786   9.129   8.718   9.542
36318SOL    HW210787   9.199   8.701   9.409
36319SOL     OW10788  10.511   5.033   0.325
36319SOL    HW110789  10.603   5.040   0.352
36319SOL    HW210790  10.487   4.942   0.344
36320SOL     OW10791  14.874   5.506   8.037
36320SOL    HW110792  14.786   5.468   8.040
36320SOL    HW210793   0.002   5.554   7.955
36321SOL     OW10794  14.122   8.439   5.449
36321SOL    HW110795  14.146   8.477   5.534
36321SOL    HW210796  14.201   8.391   5.422
36322SOL     OW10797   3.606  11.461   7.113
36322SOL    HW110798   3.594  11.544   7.160
36322SOL    HW210799   3.522  11.416   7.122
36323SOL     OW10800   0.230  12.388   8.669
36323SOL    HW110801   0.187  12.303   8.674
36323SOL    HW210802   0.281  12.394   8.750
36324SOL     OW10803   5.206  13.179   9.152
36324SOL    HW110804   5.270  13.167   9.083
36324SOL    HW210805   5.221  13.269   9.182
36325SOL     OW10806  11.345  13.705   5.904
36325SOL    HW110807  11.311  13.680   5.819
36325SOL    HW210808  11.271  13.747   5.949
36326SOL     OW10809  13.104   9.598   5.237
36326SOL    HW110810  13.075   9.544   5.311
36326SOL    HW210811  13.129   9.535   5.170
36327SOL     OW10812  11.854  12.687  10.944
36327SOL    HW110813  11.811  12.698  11.029
36327SOL    HW210814  11.802  12.621  10.900
36328SOL     OW10815  10.190  10.774   9.371
36328SOL    HW110816  10.237  10.739   9.446
36328SOL    HW210817  10.220  10.721   9.297
36329SOL     OW10818   0.647   7.934   7.085
36329SOL    HW110819   0.685   7.941   7.173
36329SOL    HW210820   0.594   8.013   7.076
36330SOL     OW10821   0.748   6.560   4.207
36330SOL    HW110822   0.678   6.513   4.254
36330SOL    HW210823   0.781   6.495   4.144
36331SOL     OW10824  11.501   2.313   5.954
36331SOL    HW110825  11.443   2.316   6.030
36331SOL    HW210826  11.457   2.256   5.892
36332SOL     OW10827   0.621   2.319   8.436
36332SOL    HW110828   0.664   2.404   8.432
36332SOL    HW210829   0.646   2.284   8.522
36333SOL     OW10830  12.293  14.212   5.445
36333SOL    HW110831  12.281  14.206   5.540
36333SOL    HW210832  12.327  14.126   5.420
36334SOL     OW10833  11.780   8.463   7.350
36334SOL    HW110834  11.753   8.434   7.262
36334SOL    HW210835  11.744   8.552   7.357
36335SOL     OW10836   2.977   5.256   6.684
36335SOL    HW110837   2.983   5.350   6.671
36335SOL    HW210838   2.885   5.235   6.667
36336SOL     OW10839  10.547   4.540   9.112
36336SOL    HW110840  10.456   4.532   9.083
36336SOL    HW210841  10.571   4.452   9.140
36337SOL     OW10842   5.410   2.256   5.610
36337SOL    HW110843   5.357   2.201   5.668
36337SOL    HW210844   5.457   2.194   5.554
36338SOL     OW10845  12.103  13.551  14.124
36338SOL    HW110846  12.108  13.576  14.031
36338SOL    HW210847  12.171  13.484  14.134
36339SOL     OW10848   2.116   4.063   9.690
36339SOL    HW110849   2.194   4.009   9.678
36339SOL    HW210850   2.102   4.105   9.605
36340SOL     OW10851   2.310   6.579   8.934
36340SOL    HW110852   2.244   6.629   8.885
36340SOL    HW210853   2.389   6.584   8.879
36341SOL     OW10854  13.271  11.718  12.386
36341SOL    HW110855  13.181  11.688  12.382
36341SOL    HW210856  13.271  11.788  12.452
36342SOL     OW10857  14.675  10.388  10.235
36342SOL    HW110858  14.630  10.359  10.156
36342SOL    HW210859  14.722  10.467  10.209
36343SOL     OW10860   3.427   3.700   9.522
36343SOL    HW110861   3.349   3.699   9.578
36343SOL    HW210862   3.476   3.621   9.547
36344SOL     OW10863   5.407   6.907   2.019
36344SOL    HW110864   5.456   6.879   2.096
36344SOL    HW210865   5.375   6.995   2.041
36345SOL     OW10866  10.713  12.373  11.758
36345SOL    HW110867  10.626  12.337  11.739
36345SOL    HW210868  10.724  12.357  11.852
36346SOL     OW10869   3.844   7.146   2.957
36346SOL    HW110870   3.888   7.067   2.924
36346SOL    HW210871   3.912   7.193   3.005
36347SOL     OW10872  12.094   0.079  12.032
36347SOL    HW110873  12.137   0.036  12.105
36347SOL    HW210874  12.115   0.025  11.956
36348SOL     OW10875   6.452   2.005  10.903
36348SOL    HW110876   6.377   1.949  10.920
36348SOL    HW210877   6.528   1.953  10.927
36349SOL     OW10878   8.646   8.019   6.633
36349SOL    HW110879   8.617   7.936   6.672
36349SOL    HW210880   8.627   8.085   6.700
36350SOL     OW10881  10.294  14.049   6.197
36350SOL    HW110882  10.260  14.133   6.166
36350SOL    HW210883  10.297  14.058   6.293
36351SOL     OW10884   3.297   8.937  13.190
36351SOL    HW110885   3.263   8.921  13.278
36351SOL    HW210886   3.255   8.870  13.136
36352SOL     OW10887   4.942   8.320   6.415
36352SOL    HW110888   4.991   8.318   6.497
36352SOL    HW210889   4.980   8.392   6.365
36353SOL     OW10890  11.589   3.831  14.568
36353SOL    HW110891  11.556   3.918  14.593
36353SOL    HW210892  11.633   3.846  14.484
36354SOL     OW10893   9.720   5.122  12.140
36354SOL    HW110894   9.667   5.102  12.063
36354SOL    HW210895   9.771   5.042  12.155
36355SOL     OW10896   5.508   9.557   9.060
36355SOL    HW110897   5.576   9.537   9.124
36355SOL    HW210898   5.426   9.551   9.109
36356SOL     OW10899   7.300   6.050   5.127
36356SOL    HW110900   7.278   6.111   5.056
36356SOL    HW210901   7.217   6.032   5.170
36357SOL     OW10902   0.400   6.812   9.981
36357SOL    HW110903   0.324   6.835   9.928
36357SOL    HW210904   0.422   6.892  10.028
36358SOL     OW10905  12.432   3.710  12.266
36358SOL    HW110906  12.512   3.716  12.214
36358SOL    HW210907  12.447   3.636  12.325
36359SOL     OW10908  13.467   6.623  12.114
36359SOL    HW110909  13.419   6.564  12.172
36359SOL    HW210910  13.454   6.710  12.153
36360SOL     OW10911  14.225  12.385   1.666
36360SOL    HW110912  14.295  12.330   1.702
36360SOL    HW210913  14.230  12.372   1.572
36361SOL     OW10914   0.279  11.471  10.023
36361SOL    HW110915   0.322  11.404  10.077
36361SOL    HW210916   0.270  11.430   9.937
36362SOL     OW10917   5.336   8.705   1.234
36362SOL    HW110918   5.283   8.635   1.198
36362SOL    HW210919   5.379   8.745   1.158
36363SOL     OW10920   1.463   5.397   9.405
36363SOL    HW110921   1.511   5.327   9.449
36363SOL    HW210922   1.465   5.373   9.313
36364SOL     OW10923   3.763   0.650  11.875
36364SOL    HW110924   3.826   0.588  11.837
36364SOL    HW210925   3.773   0.730  11.823
36365SOL     OW10926  13.088   1.632   5.971
36365SOL    HW110927  13.172   1.626   6.015
36365SOL    HW210928  13.089   1.559   5.908
36366SOL     OW10929  14.848   5.765  11.504
36366SOL    HW110930   0.037   5.825  11.538
36366SOL    HW210931  14.869   5.756  11.411
36367SOL     OW10932   0.093   6.052   9.934
36367SOL    HW110933   0.086   6.051   9.839
36367SOL    HW210934   0.159   6.118   9.953
36368SOL     OW10935   5.072  10.717   9.253
36368SOL    HW110936   5.104  10.723   9.343
36368SOL    HW210937   5.086  10.805   9.217
36369SOL     OW10938   5.332  11.240   5.047
36369SOL    HW110939   5.237  11.229   5.043
36369SOL    HW210940   5.347  11.327   5.009
36370SOL     OW10941  10.003   3.067  14.526
36370SOL    HW110942   9.985   3.125  14.452
36370SOL    HW210943  10.059   2.999  14.489
36371SOL     OW10944   2.940  11.721   3.216
36371SOL    HW110945   2.879  11.648   3.205
36371SOL    HW210946   3.015  11.683   3.261
36372SOL     OW10947   6.079  12.885  14.244
36372SOL    HW110948   6.043  12.796  14.237
36372SOL    HW210949   6.061  12.925  14.159
36373SOL     OW10950  11.789   2.957   7.571
36373SOL    HW110951  11.864   2.993   7.618
36373SOL    HW210952  11.742   3.034   7.538
36374SOL     OW10953   8.363   9.390  13.447
36374SOL    HW110954   8.288   9.444  13.471
36374SOL    HW210955   8.371   9.400  13.352
36375SOL     OW10956   6.439   9.365   4.325
36375SOL    HW110957   6.447   9.313   4.406
36375SOL    HW210958   6.478   9.310   4.258
36376SOL     OW10959  12.248  13.904  14.722
36376SOL    HW110960  12.188  13.836  14.690
36376SOL    HW210961  12.325  13.895  14.666
36377SOL     OW10962   3.341   2.239   1.879
36377SOL    HW110963   3.362   2.325   1.843
36377SOL    HW210964   3.426   2.198   1.895
36378SOL     OW10965   3.067  14.241   3.320
36378SOL    HW110966   3.115  14.318   3.290
36378SOL    HW210967   2.994  14.276   3.371
36379SOL     OW10968   2.517  13.910   0.351
36379SOL    HW110969   2.518  13.816   0.371
36379SOL    HW210970   2.544  13.915   0.259
36380SOL     OW10971   6.022   7.267   6.571
36380SOL    HW110972   5.994   7.251   6.661
36380SOL    HW210973   6.013   7.362   6.560
36381SOL     OW10974   8.051  14.320   9.319
36381SOL    HW110975   7.994  14.383   9.362
36381SOL    HW210976   8.124  14.309   9.380
36382SOL     OW10977  10.063   6.694   2.360
36382SOL    HW110978  10.070   6.694   2.456
36382SOL    HW210979  10.079   6.603   2.336
36383SOL     OW10980   5.692  14.188   0.451
36383SOL    HW110981   5.749  14.232   0.514
36383SOL    HW210982   5.748  14.172   0.375
36384SOL     OW10983  10.389  12.134  13.368
36384SOL    HW110984  10.378  12.160  13.276
36384SOL    HW210985  10.436  12.051  13.365
36385SOL     OW10986   1.165   5.761  10.742
36385SOL    HW110987   1.135   5.786  10.654
36385SOL    HW210988   1.195   5.671  10.732
36386SOL     OW10989   7.747  12.498   0.528
36386SOL    HW110990   7.719  12.416   0.486
36386SOL    HW210991   7.762  12.558   0.455
36387SOL     OW10992   5.196   7.551   6.098
36387SOL    HW110993   5.203   7.599   6.016
36387SOL    HW210994   5.254   7.476   6.087
36388SOL     OW10995  10.120   7.066   5.281
36388SOL    HW110996  10.038   7.115   5.290
36388SOL    HW210997  10.187   7.133   5.271
36389SOL     OW10998   8.962   5.811   0.689
36389SOL    HW110999   9.048   5.775   0.709
36389SOL    HW211000   8.974   5.906   0.692
36390SOL     OW11001   0.891   0.351   5.448
36390SOL    HW111002   0.893   0.375   5.355
36390SOL    HW211003   0.925   0.261   5.450
36391SOL     OW11004   7.823   0.902   4.666
36391SOL    HW111005   7.892   0.965   4.643
36391SOL    HW211006   7.865   0.816   4.656
36392SOL     OW11007   8.968   0.127   6.723
36392SOL    HW111008   9.037   0.121   6.788
36392SOL    HW211009   8.962   0.040   6.685
36393SOL     OW11010   4.415   6.850   3.054
36393SOL    HW111011   4.451   6.867   3.141
36393SOL    HW211012   4.399   6.937   3.018
36394SOL     OW11013  14.776  14.428  14.856
36394SOL    HW111014  14.840  14.382  14.800
36394SOL    HW211015  14.773  14.517  14.821
36395SOL     OW11016   1.212   3.354   9.083
36395SOL    HW111017   1.269   3.298   9.030
36395SOL    HW211018   1.140   3.297   9.109
36396SOL     OW11019   8.009  11.009  11.149
36396SOL    HW111020   8.037  11.074  11.085
36396SOL    HW211021   8.008  10.926  11.101
36397SOL     OW11022   5.957  13.789  10.557
36397SOL    HW111023   5.948  13.755  10.646
36397SOL    HW211024   5.991  13.715  10.506
36398SOL     OW11025   2.851   3.786  11.918
36398SOL    HW111026   2.765   3.818  11.892
36398SOL    HW211027   2.851   3.792  12.014
36399SOL     OW11028   4.974   9.287   4.380
36399SOL    HW111029   4.946   9.377   4.393
36399SOL    HW211030   4.896   9.241   4.351
36400SOL     OW11031  10.796  13.930  13.040
36400SOL    HW111032  10.866  13.953  13.102
36400SOL    HW211033  10.717  13.923  13.094
36401SOL     OW11034   2.527   4.612   9.608
36401SOL    HW111035   2.535   4.516   9.605
36401SOL    HW211036   2.577   4.642   9.531
36402SOL     OW11037   5.032  10.384   1.091
36402SOL    HW111038   5.074  10.416   1.170
36402SOL    HW211039   5.039  10.456   1.029
36403SOL     OW11040  14.157   7.671   7.609
36403SOL    HW111041  14.064   7.678   7.588
36403SOL    HW211042  14.194   7.620   7.537
36404SOL     OW11043   8.893   9.927   6.783
36404SOL    HW111044   8.809   9.886   6.804
36404SOL    HW211045   8.870  10.012   6.746
36405SOL     OW11046   7.117   6.849  11.097
36405SOL    HW111047   7.186   6.900  11.139
36405SOL    HW211048   7.159   6.808  11.022
36406SOL     OW11049   2.164  11.280   2.378
36406SOL    HW111050   2.123  11.310   2.297
36406SOL    HW211051   2.210  11.199   2.354
36407SOL     OW11052   2.208   9.581  11.669
36407SOL    HW111053   2.217   9.548  11.758
36407SOL    HW211054   2.276   9.648  11.661
36408SOL     OW11055  12.711   2.390   9.549
36408SOL    HW111056  12.782   2.450   9.574
36408SOL    HW211057  12.679   2.426   9.466
36409SOL     OW11058   1.924   1.695  13.492
36409SOL    HW111059   1.917   1.608  13.454
36409SOL    HW211060   1.841   1.738  13.470
36410SOL     OW11061   5.626   7.595   1.640
36410SOL    HW111062   5.544   7.560   1.674
36410SOL    HW211063   5.615   7.595   1.545
36411SOL     OW11064   6.694   1.958  11.330
36411SOL    HW111065   6.602   1.978  11.347
36411SOL    HW211066   6.725   1.920  11.412
36412SOL     OW11067  12.541  11.859   0.409
36412SOL    HW111068  12.533  11.839   0.315
36412SOL    HW211069  12.627  11.900   0.418
36413SOL     OW11070   3.157   0.541   2.891
36413SOL    HW111071   3.078   0.553   2.944
36413SOL    HW211072   3.124   0.516   2.805
36414SOL     OW11073   3.872   0.393   4.128
36414SOL    HW111074   3.797   0.337   4.107
36414SOL    HW211075   3.941   0.362   4.070
36415SOL     OW11076  14.713   4.956  10.218
36415SOL    HW111077  14.782   5.008  10.177
36415SOL    HW211078  14.632   4.984  10.175
36416SOL     OW11079   9.532   0.367  13.731
36416SOL    HW111080   9.601   0.428  13.705
36416SOL    HW211081   9.452   0.418  13.723
36417SOL     OW11082  14.091   9.549   5.327
36417SOL    HW111083  14.040   9.510   5.398
36417SOL    HW211084  14.085   9.643   5.341
36418SOL     OW11085   5.160   6.713  11.331
36418SOL    HW111086   5.194   6.654  11.265
36418SOL    HW211087   5.189   6.677  11.415
36419SOL     OW11088   6.644   8.460  11.334
36419SOL    HW111089   6.649   8.435  11.426
36419SOL    HW211090   6.567   8.414  11.301
36420SOL     OW11091   1.585   6.517   5.210
36420SOL    HW111092   1.601   6.470   5.128
36420SOL    HW211093   1.587   6.449   5.278
36421SOL     OW11094   0.429   0.278   4.351
36421SOL    HW111095   0.517   0.262   4.316
36421SOL    HW211096   0.421   0.218   4.425
36422SOL     OW11097   3.064   7.922   7.159
36422SOL    HW111098   3.041   7.833   7.188
36422SOL    HW211099   2.993   7.977   7.193
36423SOL     OW11100   2.340   6.852   7.740
36423SOL    HW111101   2.315   6.845   7.648
36423SOL    HW211102   2.389   6.771   7.757
36424SOL     OW11103   0.661  14.274   8.992
36424SOL    HW111104   0.612  14.273   8.910
36424SOL    HW211105   0.641  14.189   9.033
36425SOL     OW11106   3.200   9.121   2.795
36425SOL    HW111107   3.247   9.042   2.771
36425SOL    HW211108   3.108   9.094   2.801
36426SOL     OW11109  12.973  10.008  10.304
36426SOL    HW111110  12.946   9.994  10.394
36426SOL    HW211111  12.891  10.009  10.254
36427SOL     OW11112   3.887  10.138  11.008
36427SOL    HW111113   3.895  10.045  11.026
36427SOL    HW211114   3.976  10.166  10.985
36428SOL     OW11115   3.982  11.906   5.357
36428SOL    HW111116   3.918  11.934   5.423
36428SOL    HW211117   4.067  11.924   5.397
36429SOL     OW11118  10.399  12.051   4.584
36429SOL    HW111119  10.376  11.962   4.613
36429SOL    HW211120  10.408  12.100   4.666
36430SOL     OW11121  11.506   4.881   6.268
36430SOL    HW111122  11.458   4.811   6.312
36430SOL    HW211123  11.594   4.879   6.307
36431SOL     OW11124   9.806  14.327   8.293
36431SOL    HW111125   9.870  14.344   8.362
36431SOL    HW211126   9.849  14.262   8.237
36432SOL     OW11127  12.512  13.879   9.341
36432SOL    HW111128  12.417  13.884   9.330
36432SOL    HW211129  12.545  13.958   9.299
36433SOL     OW11130   7.251   8.538   5.353
36433SOL    HW111131   7.193   8.566   5.282
36433SOL    HW211132   7.308   8.614   5.369
36434SOL     OW11133   5.068   9.909   6.719
36434SOL    HW111134   5.072   9.836   6.658
36434SOL    HW211135   5.156   9.947   6.717
36435SOL     OW11136   2.163  11.780   2.936
36435SOL    HW111137   2.150  11.706   2.876
36435SOL    HW211138   2.258  11.794   2.935
36436SOL     OW11139   9.440   0.478  13.357
36436SOL    HW111140   9.504   0.510  13.293
36436SOL    HW211141   9.446   0.383  13.351
36437SOL     OW11142   9.712   1.177   6.693
36437SOL    HW111143   9.661   1.234   6.751
36437SOL    HW211144   9.653   1.155   6.622
36438SOL     OW11145   2.492   0.358  11.042
36438SOL    HW111146   2.585   0.369  11.022
36438SOL    HW211147   2.458   0.448  11.043
36439SOL     OW11148   7.866   6.437  13.567
36439SOL    HW111149   7.927   6.483  13.624
36439SOL    HW211150   7.809   6.505  13.532
36440SOL     OW11151  14.790  11.474  11.260
36440SOL    HW111152  14.778  11.380  11.277
36440SOL    HW211153  14.702  11.505  11.238
36441SOL     OW11154  11.584   8.849  13.163
36441SOL    HW111155  11.669   8.808  13.183
36441SOL    HW211156  11.582   8.928  13.218
36442SOL     OW11157   5.389   3.488   1.197
36442SOL    HW111158   5.340   3.467   1.276
36442SOL    HW211159   5.446   3.412   1.183
36443SOL     OW11160   6.437   7.278  11.425
36443SOL    HW111161   6.444   7.373  11.435
36443SOL    HW211162   6.453   7.243  11.513
36444SOL     OW11163   4.010   9.938   9.870
36444SOL    HW111164   4.072   9.873   9.904
36444SOL    HW211165   3.979   9.901   9.788
36445SOL     OW11166   7.858  10.476   0.691
36445SOL    HW111167   7.840  10.498   0.782
36445SOL    HW211168   7.787  10.517   0.641
36446SOL     OW11169   6.823   3.444  13.663
36446SOL    HW111170   6.886   3.494  13.611
36446SOL    HW211171   6.848   3.460  13.754
36447SOL     OW11172   4.511   8.994  10.298
36447SOL    HW111173   4.489   9.088  10.301
36447SOL    HW211174   4.576   8.987  10.229
36448SOL     OW11175   1.279  13.545  13.264
36448SOL    HW111176   1.222  13.599  13.209
36448SOL    HW211177   1.240  13.458  13.261
36449SOL     OW11178  10.697  12.347   9.375
36449SOL    HW111179  10.761  12.418   9.377
36449SOL    HW211180  10.724  12.288   9.446
36450SOL     OW11181   3.694  14.613   1.906
36450SOL    HW111182   3.698  14.645   1.996
36450SOL    HW211183   3.725  14.522   1.912
36451SOL     OW11184   8.290   6.296   2.271
36451SOL    HW111185   8.298   6.214   2.320
36451SOL    HW211186   8.359   6.351   2.307
36452SOL     OW11187   1.584   9.140  11.609
36452SOL    HW111188   1.531   9.062  11.593
36452SOL    HW211189   1.521   9.207  11.634
36453SOL     OW11190   6.377  10.593   9.498
36453SOL    HW111191   6.429  10.560   9.425
36453SOL    HW211192   6.295  10.622   9.459
36454SOL     OW11193  11.811  14.675   0.486
36454SOL    HW111194  11.753  14.704   0.557
36454SOL    HW211195  11.895  14.718   0.504
36455SOL     OW11196  13.963   8.994  12.901
36455SOL    HW111197  13.949   9.063  12.966
36455SOL    HW211198  14.052   9.009  12.869
36456SOL     OW11199  12.371   6.849   6.216
36456SOL    HW111200  12.340   6.869   6.305
36456SOL    HW211201  12.466   6.843   6.224
36457SOL     OW11202   5.883   1.586   5.416
36457SOL    HW111203   5.846   1.588   5.328
36457SOL    HW211204   5.861   1.499   5.450
36458SOL     OW11205   2.536   7.484   0.188
36458SOL    HW111206   2.489   7.512   0.110
36458SOL    HW211207   2.496   7.399   0.210
36459SOL     OW11208   7.081   0.076  13.245
36459SOL    HW111209   7.016   0.125  13.194
36459SOL    HW211210   7.165   0.115  13.221
36460SOL     OW11211   1.268  12.598   1.311
36460SOL    HW111212   1.310  12.597   1.225
36460SOL    HW211213   1.211  12.675   1.309
36461SOL     OW11214   2.950   1.642  11.261
36461SOL    HW111215   2.989   1.555  11.250
36461SOL    HW211216   2.915   1.663  11.174
36462SOL     OW11217  11.953   0.977  11.416
36462SOL    HW111218  11.898   0.913  11.370
36462SOL    HW211219  12.042   0.957  11.387
36463SOL     OW11220   8.742   4.281   3.918
36463SOL    HW111221   8.772   4.209   3.973
36463SOL    HW211222   8.781   4.359   3.958
36464SOL     OW11223  11.113  11.831  13.249
36464SOL    HW111224  11.081  11.886  13.320
36464SOL    HW211225  11.075  11.869  13.170
36465SOL     OW11226   0.134   0.080   8.862
36465SOL    HW111227   0.164  14.870   8.832
36465SOL    HW211228   0.071   0.109   8.796
36466SOL     OW11229  12.936   5.680   0.435
36466SOL    HW111230  12.998   5.614   0.465
36466SOL    HW211231  12.903   5.720   0.516
36467SOL     OW11232  12.699  13.814   7.572
36467SOL    HW111233  12.610  13.849   7.569
36467SOL    HW211234  12.743  13.865   7.640
36468SOL     OW11235   2.909   1.870   3.960
36468SOL    HW111236   2.857   1.813   4.017
36468SOL    HW211237   2.933   1.944   4.016
36469SOL     OW11238   6.052   4.449   9.991
36469SOL    HW111239   6.104   4.447   9.911
36469SOL    HW211240   6.100   4.507  10.051
36470SOL     OW11241   4.902   4.257   7.073
36470SOL    HW111242   4.817   4.220   7.093
36470SOL    HW211243   4.923   4.223   6.986
36471SOL     OW11244  12.003   3.375  13.261
36471SOL    HW111245  11.984   3.286  13.232
36471SOL    HW211246  11.917   3.411  13.286
36472SOL     OW11247   4.765   1.195   3.883
36472SOL    HW111248   4.801   1.108   3.867
36472SOL    HW211249   4.825   1.254   3.838
36473SOL     OW11250   2.965   1.350   1.206
36473SOL    HW111251   2.876   1.358   1.171
36473SOL    HW211252   2.953   1.313   1.293
36474SOL     OW11253  11.203   7.335   9.826
36474SOL    HW111254  11.112   7.327   9.852
36474SOL    HW211255  11.200   7.365   9.736
36475SOL     OW11256   3.545   8.167  13.511
36475SOL    HW111257   3.618   8.225  13.485
36475SOL    HW211258   3.468   8.208  13.472
36476SOL     OW11259   8.966  11.016  11.529
36476SOL    HW111260   9.052  10.974  11.527
36476SOL    HW211261   8.980  11.097  11.579
36477SOL     OW11262   9.406   9.694   2.162
36477SOL    HW111263   9.415   9.672   2.255
36477SOL    HW211264   9.455   9.775   2.152
36478SOL     OW11265   0.625   9.762   7.280
36478SOL    HW111266   0.544   9.802   7.249
36478SOL    HW211267   0.607   9.668   7.280
36479SOL     OW11268   1.929  10.585   3.201
36479SOL    HW111269   1.914  10.500   3.243
36479SOL    HW211270   1.885  10.577   3.116
36480SOL     OW11271  14.160   9.994  10.404
36480SOL    HW111272  14.182   9.927  10.468
36480SOL    HW211273  14.206  10.072  10.435
36481SOL     OW11274   9.003   0.584   5.184
36481SOL    HW111275   8.953   0.503   5.192
36481SOL    HW211276   8.999   0.605   5.090
36482SOL     OW11277   6.540   5.480   3.427
36482SOL    HW111278   6.550   5.569   3.461
36482SOL    HW211279   6.482   5.490   3.351
36483SOL     OW11280   4.115  13.227   7.084
36483SOL    HW111281   4.026  13.227   7.119
36483SOL    HW211282   4.103  13.221   6.989
36484SOL     OW11283   8.975   0.175  12.470
36484SOL    HW111284   9.066   0.145  12.467
36484SOL    HW211285   8.935   0.135  12.393
36485SOL     OW11286   0.573  12.492  14.521
36485SOL    HW111287   0.576  12.413  14.468
36485SOL    HW211288   0.640  12.479  14.589
36486SOL     OW11289   1.251   4.199  12.296
36486SOL    HW111290   1.157   4.200  12.311
36486SOL    HW211291   1.274   4.106  12.291
36487SOL     OW11292   9.145  13.475   6.525
36487SOL    HW111293   9.207  13.488   6.597
36487SOL    HW211294   9.158  13.384   6.498
36488SOL     OW11295   3.446  10.348   9.014
36488SOL    HW111296   3.386  10.420   9.035
36488SOL    HW211297   3.502  10.382   8.944
36489SOL     OW11298   4.609   8.961   0.205
36489SOL    HW111299   4.635   8.949   0.297
36489SOL    HW211300   4.515   8.947   0.205
36490SOL     OW11301   6.539   5.690  11.476
36490SOL    HW111302   6.531   5.595  11.485
36490SOL    HW211303   6.624   5.703  11.435
36491SOL     OW11304   1.166  12.751   6.067
36491SOL    HW111305   1.191  12.816   6.133
36491SOL    HW211306   1.234  12.756   6.000
36492SOL     OW11307  14.555   4.961   3.338
36492SOL    HW111308  14.468   4.922   3.330
36492SOL    HW211309  14.541   5.043   3.385
36493SOL     OW11310   2.600   5.550   2.209
36493SOL    HW111311   2.561   5.480   2.262
36493SOL    HW211312   2.693   5.526   2.204
36494SOL     OW11313  13.459  12.047   3.932
36494SOL    HW111314  13.373  12.086   3.951
36494SOL    HW211315  13.443  11.989   3.858
36495SOL     OW11316  10.863  11.383  13.517
36495SOL    HW111317  10.891  11.448  13.452
36495SOL    HW211318  10.882  11.424  13.602
36496SOL     OW11319  11.532   1.571   5.614
36496SOL    HW111320  11.625   1.584   5.596
36496SOL    HW211321  11.491   1.574   5.527
36497SOL     OW11322   8.293  13.105   3.909
36497SOL    HW111323   8.247  13.160   3.972
36497SOL    HW211324   8.229  13.039   3.883
36498SOL     OW11325  13.949  10.452  14.395
36498SOL    HW111326  14.016  10.488  14.453
36498SOL    HW211327  13.998  10.398  14.332
36499SOL     OW11328  13.588   2.158   9.948
36499SOL    HW111329  13.593   2.245   9.989
36499SOL    HW211330  13.679   2.139   9.924
36500SOL     OW11331   9.521   2.374  14.297
36500SOL    HW111332   9.495   2.320  14.371
36500SOL    HW211333   9.607   2.340  14.271
36501SOL     OW11334   8.061  10.883   7.692
36501SOL    HW111335   8.038  10.950   7.628
36501SOL    HW211336   8.000  10.897   7.765
36502SOL     OW11337   8.992  12.328   2.356
36502SOL    HW111338   8.901  12.357   2.359
36502SOL    HW211339   9.039  12.393   2.409
36503SOL     OW11340  11.070  14.731  10.272
36503SOL    HW111341  11.156  14.709  10.309
36503SOL    HW211342  11.078  14.824  10.248
36504SOL     OW11343   3.332   4.279  10.011
36504SOL    HW111344   3.268   4.327   9.958
36504SOL    HW211345   3.349   4.199   9.962
36505SOL     OW11346  11.453   3.263   0.273
36505SOL    HW111347  11.412   3.345   0.301
36505SOL    HW211348  11.427   3.199   0.338
36506SOL     OW11349   9.178   1.600   2.512
36506SOL    HW111350   9.216   1.547   2.581
36506SOL    HW211351   9.113   1.543   2.471
36507SOL     OW11352   3.603   6.127  10.595
36507SOL    HW111353   3.611   6.046  10.544
36507SOL    HW211354   3.693   6.157  10.607
36508SOL     OW11355  14.433  13.508   3.067
36508SOL    HW111356  14.426  13.414   3.051
36508SOL    HW211357  14.360  13.528   3.126
36509SOL     OW11358   0.732   9.112   9.789
36509SOL    HW111359   0.642   9.082   9.773
36509SOL    HW211360   0.749   9.090   9.881
36510SOL     OW11361   1.610  14.140   1.708
36510SOL    HW111362   1.553  14.197   1.657
36510SOL    HW211363   1.607  14.176   1.796
36511SOL     OW11364  10.699   1.182   7.400
36511SOL    HW111365  10.725   1.182   7.492
36511SOL    HW211366  10.767   1.232   7.356
36512SOL     OW11367   9.579   3.087   1.778
36512SOL    HW111368   9.620   3.035   1.709
36512SOL    HW211369   9.583   3.177   1.747
36513SOL     OW11370   6.426   8.863   2.718
36513SOL    HW111371   6.505   8.866   2.664
36513SOL    HW211372   6.404   8.769   2.723
36514SOL     OW11373   9.318   5.176  11.736
36514SOL    HW111374   9.312   5.176  11.831
36514SOL    HW211375   9.408   5.202  11.717
36515SOL     OW11376   0.900   9.681   2.875
36515SOL    HW111377   0.806   9.694   2.867
36515SOL    HW211378   0.916   9.671   2.969
36516SOL     OW11379   5.557  12.214   7.370
36516SOL    HW111380   5.643  12.186   7.400
36516SOL    HW211381   5.562  12.213   7.275
36517SOL     OW11382   2.874   7.875   1.274
36517SOL    HW111383   2.809   7.824   1.227
36517SOL    HW211384   2.881   7.832   1.359
36518SOL     OW11385  13.024   8.686   4.977
36518SOL    HW111386  12.992   8.634   4.903
36518SOL    HW211387  13.119   8.680   4.971
36519SOL     OW11388  10.895   1.293  12.969
36519SOL    HW111389  10.983   1.256  12.965
36519SOL    HW211390  10.843   1.241  12.908
36520SOL     OW11391  10.602   5.970   3.383
36520SOL    HW111392  10.552   5.952   3.463
36520SOL    HW211393  10.607   6.066   3.379
36521SOL     OW11394   0.657   2.911   2.305
36521SOL    HW111395   0.592   2.857   2.259
36521SOL    HW211396   0.605   2.962   2.368
36522SOL     OW11397   1.517  13.757  10.280
36522SOL    HW111398   1.514  13.823  10.350
36522SOL    HW211399   1.448  13.695  10.304
36523SOL     OW11400   8.609  11.779   3.464
36523SOL    HW111401   8.654  11.735   3.536
36523SOL    HW211402   8.677  11.793   3.398
36524SOL     OW11403   6.071  13.827  14.787
36524SOL    HW111404   6.117  13.892  14.840
36524SOL    HW211405   6.096  13.848  14.697
36525SOL     OW11406   2.578  12.172   1.817
36525SOL    HW111407   2.487  12.193   1.838
36525SOL    HW211408   2.627  12.198   1.894
36526SOL     OW11409  10.846  10.991   3.428
36526SOL    HW111410  10.885  10.905   3.411
36526SOL    HW211411  10.755  10.972   3.452
36527SOL     OW11412   9.316   9.334  11.735
36527SOL    HW111413   9.358   9.359  11.817
36527SOL    HW211414   9.248   9.272  11.761
36528SOL     OW11415  12.033   6.267  14.447
36528SOL    HW111416  12.073   6.236  14.529
36528SOL    HW211417  11.943   6.288  14.471
36529SOL     OW11418   2.208   5.551   5.454
36529SOL    HW111419   2.286   5.607   5.453
36529SOL    HW211420   2.184   5.546   5.546
36530SOL     OW11421   9.443   8.883   5.486
36530SOL    HW111422   9.369   8.828   5.461
36530SOL    HW211423   9.420   8.971   5.455
36531SOL     OW11424   9.256   8.287  14.146
36531SOL    HW111425   9.204   8.234  14.084
36531SOL    HW211426   9.306   8.346  14.090
36532SOL     OW11427  10.174   3.002  12.754
36532SOL    HW111428  10.214   2.916  12.766
36532SOL    HW211429  10.087   2.984  12.720
36533SOL     OW11430   1.285  12.533   0.130
36533SOL    HW111431   1.310  12.610   0.181
36533SOL    HW211432   1.362  12.514   0.076
36534SOL     OW11433   8.627   2.026   7.234
36534SOL    HW111434   8.637   1.933   7.251
36534SOL    HW211435   8.695   2.068   7.286
36535SOL     OW11436   8.410   7.936   7.012
36535SOL    HW111437   8.411   8.013   7.069
36535SOL    HW211438   8.427   7.863   7.072
36536SOL     OW11439   3.420  13.083   0.283
36536SOL    HW111440   3.475  13.005   0.290
36536SOL    HW211441   3.431  13.128   0.367
36537SOL     OW11442  11.427  14.117   9.921
36537SOL    HW111443  11.406  14.024   9.922
36537SOL    HW211444  11.342  14.161   9.927
36538SOL     OW11445   8.564   0.289  10.538
36538SOL    HW111446   8.659   0.285  10.551
36538SOL    HW211447   8.551   0.270  10.445
36539SOL     OW11448   8.151  10.819  14.170
36539SOL    HW111449   8.077  10.881  14.172
36539SOL    HW211450   8.112  10.735  14.196
36540SOL     OW11451   3.784   4.499   1.780
36540SOL    HW111452   3.744   4.461   1.702
36540SOL    HW211453   3.868   4.454   1.789
36541SOL     OW11454   4.682  10.056   4.106
36541SOL    HW111455   4.762  10.038   4.155
36541SOL    HW211456   4.670  10.150   4.114
36542SOL     OW11457  11.661  12.809   2.177
36542SOL    HW111458  11.693  12.897   2.162
36542SOL    HW211459  11.621  12.812   2.264
36543SOL     OW11460  12.244  14.014   3.659
36543SOL    HW111461  12.277  13.942   3.605
36543SOL    HW211462  12.317  14.038   3.714
36544SOL     OW11463   6.965   4.269   3.656
36544SOL    HW111464   6.908   4.338   3.690
36544SOL    HW211465   7.050   4.287   3.696
36545SOL     OW11466   0.767   5.897  13.757
36545SOL    HW111467   0.750   5.856  13.841
36545SOL    HW211468   0.698   5.962  13.746
36546SOL     OW11469   6.187  11.206   4.641
36546SOL    HW111470   6.109  11.185   4.588
36546SOL    HW211471   6.243  11.129   4.632
36547SOL     OW11472  12.660   5.938  10.929
36547SOL    HW111473  12.588   5.990  10.894
36547SOL    HW211474  12.737   5.967  10.879
36548SOL     OW11475   8.493   6.962  14.623
36548SOL    HW111476   8.547   6.900  14.672
36548SOL    HW211477   8.404   6.946  14.654
36549SOL     OW11478   1.016  12.922  13.033
36549SOL    HW111479   1.027  12.838  12.987
36549SOL    HW211480   1.029  12.901  13.125
36550SOL     OW11481   9.436   0.231  12.656
36550SOL    HW111482   9.408   0.319  12.683
36550SOL    HW211483   9.384   0.173  12.712
36551SOL     OW11484   3.024   3.615   4.448
36551SOL    HW111485   3.042   3.688   4.507
36551SOL    HW211486   2.932   3.626   4.424
36552SOL     OW11487   2.118  12.550   5.036
36552SOL    HW111488   2.086  12.465   5.064
36552SOL    HW211489   2.042  12.592   4.995
36553SOL     OW11490  11.596  12.747  13.009
36553SOL    HW111491  11.589  12.711  12.920
36553SOL    HW211492  11.507  12.771  13.032
36554SOL     OW11493  12.221   6.060   6.088
36554SOL    HW111494  12.310   6.027   6.086
36554SOL    HW211495  12.166   5.982   6.079
36555SOL     OW11496   0.782  14.722  12.338
36555SOL    HW111497   0.789  14.758  12.426
36555SOL    HW211498   0.691  14.738  12.312
36556SOL     OW11499  14.056  13.982  10.837
36556SOL    HW111500  13.971  14.016  10.808
36556SOL    HW211501  14.040  13.890  10.854
36557SOL     OW11502  10.464   8.435   8.293
36557SOL    HW111503  10.376   8.401   8.278
36557SOL    HW211504  10.522   8.362   8.271
36558SOL     OW11505  12.599   3.719   6.724
36558SOL    HW111506  12.526   3.721   6.663
36558SOL    HW211507  12.646   3.638   6.702
36559SOL     OW11508   1.251  12.015   8.557
36559SOL    HW111509   1.206  12.017   8.473
36559SOL    HW211510   1.240  12.103   8.593
36560SOL     OW11511   5.081   0.885   0.210
36560SOL    HW111512   5.171   0.897   0.181
36560SOL    HW211513   5.084   0.902   0.305
36561SOL     OW11514  10.139   3.874   0.869
36561SOL    HW111515  10.202   3.919   0.813
36561SOL    HW211516  10.156   3.781   0.854
36562SOL     OW11517   1.892   0.844   8.245
36562SOL    HW111518   1.961   0.824   8.181
36562SOL    HW211519   1.907   0.782   8.316
36563SOL     OW11520   7.701   9.887   0.959
36563SOL    HW111521   7.753   9.967   0.955
36563SOL    HW211522   7.620   9.913   1.001
36564SOL     OW11523   7.112  14.043  10.805
36564SOL    HW111524   7.098  14.052  10.711
36564SOL    HW211525   7.178  13.974  10.814
36565SOL     OW11526  10.092  13.754  13.186
36565SOL    HW111527  10.056  13.730  13.100
36565SOL    HW211528  10.057  13.841  13.203
36566SOL     OW11529   8.682   5.979   2.680
36566SOL    HW111530   8.632   5.913   2.631
36566SOL    HW211531   8.619   6.050   2.694
36567SOL     OW11532   5.000   7.146   2.038
36567SOL    HW111533   4.927   7.126   2.098
36567SOL    HW211534   4.985   7.088   1.963
36568SOL     OW11535   3.667   6.116   3.250
36568SOL    HW111536   3.596   6.138   3.190
36568SOL    HW211537   3.645   6.162   3.331
36569SOL     OW11538   8.222  11.970   0.522
36569SOL    HW111539   8.165  11.897   0.499
36569SOL    HW211540   8.294  11.965   0.459
36570SOL     OW11541   5.115   5.874   7.686
36570SOL    HW111542   5.104   5.950   7.629
36570SOL    HW211543   5.027   5.840   7.699
36571SOL     OW11544   8.720  13.603  12.789
36571SOL    HW111545   8.669  13.606  12.708
36571SOL    HW211546   8.800  13.651  12.769
36572SOL     OW11547   2.957  12.164   2.474
36572SOL    HW111548   2.953  12.260   2.464
36572SOL    HW211549   2.867  12.135   2.462
36573SOL     OW11550   7.669  12.361   4.830
36573SOL    HW111551   7.741  12.414   4.862
36573SOL    HW211552   7.590  12.407   4.861
36574SOL     OW11553  14.424  10.287   4.280
36574SOL    HW111554  14.332  10.299   4.307
36574SOL    HW211555  14.475  10.323   4.353
36575SOL     OW11556   0.176  14.463   5.572
36575SOL    HW111557   0.232  14.401   5.525
36575SOL    HW211558   0.105  14.482   5.510
36576SOL     OW11559  12.885   0.312  12.992
36576SOL    HW111560  12.901   0.290  13.084
36576SOL    HW211561  12.807   0.367  12.994
36577SOL     OW11562   9.988  10.834   3.969
36577SOL    HW111563   9.959  10.903   4.029
36577SOL    HW211564  10.081  10.852   3.955
36578SOL     OW11565   7.559   9.617  13.243
36578SOL    HW111566   7.636   9.632  13.189
36578SOL    HW211567   7.539   9.524  13.231
36579SOL     OW11568   1.433   1.071   3.807
36579SOL    HW111569   1.379   1.105   3.735
36579SOL    HW211570   1.378   1.006   3.850
36580SOL     OW11571   4.408   3.395   1.785
36580SOL    HW111572   4.494   3.421   1.817
36580SOL    HW211573   4.348   3.460   1.823
36581SOL     OW11574  13.860   9.069   0.934
36581SOL    HW111575  13.842   9.155   0.973
36581SOL    HW211576  13.955   9.059   0.943
36582SOL     OW11577   1.964  10.846  12.675
36582SOL    HW111578   2.046  10.829  12.722
36582SOL    HW211579   1.930  10.759  12.654
36583SOL     OW11580   9.745  10.925   4.188
36583SOL    HW111581   9.710  10.970   4.111
36583SOL    HW211582   9.709  10.836   4.183
36584SOL     OW11583   6.350  11.923   1.524
36584SOL    HW111584   6.310  11.976   1.593
36584SOL    HW211585   6.435  11.964   1.509
36585SOL     OW11586   6.632  14.566   4.052
36585SOL    HW111587   6.539  14.543   4.051
36585SOL    HW211588   6.639  14.641   3.993
36586SOL     OW11589   8.943   9.123   9.691
36586SOL    HW111590   8.939   9.183   9.765
36586SOL    HW211591   8.867   9.146   9.638
36587SOL     OW11592  13.230  14.813  12.138
36587SOL    HW111593  13.238  14.848  12.226
36587SOL    HW211594  13.228  14.718  12.149
36588SOL     OW11595  10.590   5.888   0.880
36588SOL    HW111596  10.509   5.915   0.837
36588SOL    HW211597  10.562   5.837   0.955
36589SOL     OW11598   4.616   9.659   1.653
36589SOL    HW111599   4.693   9.610   1.623
36589SOL    HW211600   4.600   9.722   1.583
36590SOL     OW11601   4.817  10.917  14.796
36590SOL    HW111602   4.778  10.910   0.007
36590SOL    HW211603   4.898  10.866  14.802
36591SOL     OW11604  12.361   2.291   8.334
36591SOL    HW111605  12.278   2.249   8.313
36591SOL    HW211606  12.338   2.382   8.351
36592SOL     OW11607   0.503   8.622   6.436
36592SOL    HW111608   0.496   8.667   6.520
36592SOL    HW211609   0.414   8.623   6.401
36593SOL     OW11610   8.672   2.869   7.344
36593SOL    HW111611   8.615   2.941   7.372
36593SOL    HW211612   8.654   2.859   7.251
36594SOL     OW11613   9.600   0.118   3.984
36594SOL    HW111614   9.510   0.144   3.962
36594SOL    HW211615   9.626   0.061   3.912
36595SOL     OW11616  13.207  13.400  10.934
36595SOL    HW111617  13.231  13.416  10.843
36595SOL    HW211618  13.214  13.305  10.944
36596SOL     OW11619   0.511   7.298  13.926
36596SOL    HW111620   0.544   7.213  13.897
36596SOL    HW211621   0.448   7.323  13.858
36597SOL     OW11622  14.063   4.818  12.585
36597SOL    HW111623  14.130   4.750  12.587
36597SOL    HW211624  13.982   4.774  12.611
36598SOL     OW11625  13.550   1.433   0.716
36598SOL    HW111626  13.548   1.338   0.701
36598SOL    HW211627  13.460   1.461   0.704
36599SOL     OW11628  11.143  10.616  13.443
36599SOL    HW111629  11.162  10.640  13.534
36599SOL    HW211630  11.216  10.653  13.393
36600SOL     OW11631   6.118   7.326   0.594
36600SOL    HW111632   6.126   7.413   0.555
36600SOL    HW211633   6.198   7.281   0.568
36601SOL     OW11634  14.710   9.245  13.430
36601SOL    HW111635  14.693   9.265  13.337
36601SOL    HW211636  14.802   9.267  13.443
36602SOL     OW11637  10.634   7.347  13.025
36602SOL    HW111638  10.580   7.270  13.007
36602SOL    HW211639  10.723   7.314  13.031
36603SOL     OW11640   6.665   6.114   8.406
36603SOL    HW111641   6.572   6.136   8.410
36603SOL    HW211642   6.676   6.069   8.321
36604SOL     OW11643  11.043   9.924   3.328
36604SOL    HW111644  10.965   9.977   3.315
36604SOL    HW211645  11.080   9.914   3.241
36605SOL     OW11646  11.019  14.666   8.367
36605SOL    HW111647  10.995  14.754   8.337
36605SOL    HW211648  11.114  14.665   8.363
36606SOL     OW11649   3.099  12.486   5.705
36606SOL    HW111650   3.055  12.466   5.623
36606SOL    HW211651   3.120  12.579   5.699
36607SOL     OW11652   7.925  14.452   8.292
36607SOL    HW111653   7.998  14.418   8.344
36607SOL    HW211654   7.920  14.545   8.316
36608SOL     OW11655   7.349   6.085   9.992
36608SOL    HW111656   7.293   6.137   9.934
36608SOL    HW211657   7.293   6.015  10.025
36609SOL     OW11658   5.017   5.424  12.617
36609SOL    HW111659   4.928   5.425  12.582
36609SOL    HW211660   5.073   5.434  12.540
36610SOL     OW11661  11.743   8.522   2.625
36610SOL    HW111662  11.782   8.455   2.682
36610SOL    HW211663  11.778   8.605   2.658
36611SOL     OW11664   2.760  10.413   6.703
36611SOL    HW111665   2.844  10.458   6.699
36611SOL    HW211666   2.721  10.427   6.616
36612SOL     OW11667   0.853   8.986   4.475
36612SOL    HW111668   0.778   8.928   4.465
36612SOL    HW211669   0.908   8.945   4.541
36613SOL     OW11670   2.961   8.798   4.282
36613SOL    HW111671   2.960   8.811   4.188
36613SOL    HW211672   2.870   8.781   4.306
36614SOL     OW11673  13.177  14.658   3.892
36614SOL    HW111674  13.115  14.634   3.824
36614SOL    HW211675  13.135  14.630   3.973
36615SOL     OW11676   4.046   2.952  12.045
36615SOL    HW111677   4.026   3.043  12.022
36615SOL    HW211678   4.076   2.956  12.136
36616SOL     OW11679  13.254   8.790   2.312
36616SOL    HW111680  13.321   8.765   2.375
36616SOL    HW211681  13.282   8.875   2.279
36617SOL     OW11682   7.829  11.200   3.516
36617SOL    HW111683   7.739  11.227   3.536
36617SOL    HW211684   7.838  11.114   3.556
36618SOL     OW11685   6.908   5.353   2.650
36618SOL    HW111686   6.843   5.413   2.685
36618SOL    HW211687   6.991   5.401   2.657
36619SOL     OW11688  11.134   7.002   3.113
36619SOL    HW111689  11.096   6.927   3.159
36619SOL    HW211690  11.202   6.963   3.057
36620SOL     OW11691   9.503   2.104  14.580
36620SOL    HW111692   9.547   2.189  14.571
36620SOL    HW211693   9.539   2.067  14.661
36621SOL     OW11694   2.891   8.805   5.277
36621SOL    HW111695   2.920   8.762   5.196
36621SOL    HW211696   2.958   8.871   5.294
36622SOL     OW11697   7.984   9.904   4.647
36622SOL    HW111698   7.912   9.853   4.686
36622SOL    HW211699   7.981   9.987   4.694
36623SOL     OW11700   6.781   6.064   7.947
36623SOL    HW111701   6.769   6.004   8.021
36623SOL    HW211702   6.875   6.064   7.931
36624SOL     OW11703   2.550  13.200  11.669
36624SOL    HW111704   2.644  13.200  11.686
36624SOL    HW211705   2.518  13.280  11.709
36625SOL     OW11706   6.305   7.469  12.553
36625SOL    HW111707   6.269   7.381  12.563
36625SOL    HW211708   6.257   7.522  12.616
36626SOL     OW11709  12.650   1.118   4.572
36626SOL    HW111710  12.662   1.212   4.579
36626SOL    HW211711  12.706   1.092   4.499
36627SOL     OW11712   8.532   1.230   3.025
36627SOL    HW111713   8.568   1.283   2.954
36627SOL    HW211714   8.576   1.261   3.104
36628SOL     OW11715   7.144  12.949  11.943
36628SOL    HW111716   7.181  12.901  11.869
36628SOL    HW211717   7.068  12.896  11.970
36629SOL     OW11718  13.829  14.327   1.379
36629SOL    HW111719  13.782  14.271   1.317
36629SOL    HW211720  13.903  14.361   1.329
36630SOL     OW11721   5.742  12.525   5.786
36630SOL    HW111722   5.767  12.495   5.699
36630SOL    HW211723   5.791  12.469   5.846
36631SOL     OW11724   5.908   4.118   5.680
36631SOL    HW111725   5.871   4.202   5.707
36631SOL    HW211726   5.917   4.068   5.761
36632SOL     OW11727  11.100   4.542   8.324
36632SOL    HW111728  11.140   4.616   8.370
36632SOL    HW211729  11.006   4.553   8.339
36633SOL     OW11730   4.766  12.177  13.724
36633SOL    HW111731   4.688  12.186  13.779
36633SOL    HW211732   4.831  12.136  13.781
36634SOL     OW11733   9.363   1.133   1.682
36634SOL    HW111734   9.276   1.168   1.699
36634SOL    HW211735   9.415   1.209   1.657
36635SOL     OW11736  13.457   8.302   6.482
36635SOL    HW111737  13.532   8.339   6.529
36635SOL    HW211738  13.384   8.311   6.543
36636SOL     OW11739   9.286   8.384   8.490
36636SOL    HW111740   9.288   8.478   8.509
36636SOL    HW211741   9.372   8.365   8.452
36637SOL     OW11742   4.453   0.931   3.334
36637SOL    HW111743   4.522   0.924   3.400
36637SOL    HW211744   4.462   1.020   3.299
36638SOL     OW11745   7.674   2.723  11.367
36638SOL    HW111746   7.659   2.800  11.423
36638SOL    HW211747   7.723   2.663  11.423
36639SOL     OW11748   6.512   2.814  12.788
36639SOL    HW111749   6.513   2.772  12.874
36639SOL    HW211750   6.603   2.810  12.758
36640SOL     OW11751  10.283   1.503   3.637
36640SOL    HW111752  10.310   1.497   3.545
36640SOL    HW211753  10.238   1.587   3.643
36641SOL     OW11754  13.572   9.318   5.781
36641SOL    HW111755  13.644   9.280   5.831
36641SOL    HW211756  13.615   9.373   5.716
36642SOL     OW11757  13.203   4.741  13.230
36642SOL    HW111758  13.161   4.663  13.194
36642SOL    HW211759  13.244   4.712  13.311
36643SOL     OW11760   7.198  12.906   6.596
36643SOL    HW111761   7.163  12.988   6.630
36643SOL    HW211762   7.291  12.908   6.620
36644SOL     OW11763   3.825   7.670   2.423
36644SOL    HW111764   3.888   7.737   2.450
36644SOL    HW211765   3.799   7.697   2.335
36645SOL     OW11766  13.374   7.119   5.402
36645SOL    HW111767  13.283   7.137   5.379
36645SOL    HW211768  13.386   7.026   5.381
36646SOL     OW11769   6.913   6.862  11.740
36646SOL    HW111770   6.935   6.861  11.647
36646SOL    HW211771   6.972   6.928  11.778
36647SOL     OW11772   6.242   5.206   6.946
36647SOL    HW111773   6.188   5.158   6.883
36647SOL    HW211774   6.330   5.200   6.910
36648SOL     OW11775  13.181   2.438   1.873
36648SOL    HW111776  13.213   2.512   1.821
36648SOL    HW211777  13.217   2.453   1.960
36649SOL     OW11778   0.806  14.539   6.586
36649SOL    HW111779   0.762  14.459   6.615
36649SOL    HW211780   0.877  14.552   6.648
36650SOL     OW11781  14.874   8.724  12.282
36650SOL    HW111782   0.069   8.664  12.260
36650SOL    HW211783   0.001   8.732  12.377
36651SOL     OW11784   0.613  14.214   1.923
36651SOL    HW111785   0.627  14.126   1.888
36651SOL    HW211786   0.572  14.262   1.851
36652SOL     OW11787  14.029   8.100   1.397
36652SOL    HW111788  14.063   8.134   1.481
36652SOL    HW211789  13.940   8.135   1.392
36653SOL     OW11790   5.738  10.033  10.456
36653SOL    HW111791   5.823  10.008  10.420
36653SOL    HW211792   5.686   9.953  10.451
36654SOL     OW11793   9.575   1.147  13.641
36654SOL    HW111794   9.526   1.065  13.643
36654SOL    HW211795   9.667   1.120  13.644
36655SOL     OW11796   1.637   5.818  13.118
36655SOL    HW111797   1.698   5.781  13.182
36655SOL    HW211798   1.666   5.909  13.107
36656SOL     OW11799  13.759   7.966   9.094
36656SOL    HW111800  13.723   8.024   9.026
36656SOL    HW211801  13.755   7.879   9.055
36657SOL     OW11802  13.318   5.659  11.739
36657SOL    HW111803  13.250   5.676  11.674
36657SOL    HW211804  13.396   5.704  11.705
36658SOL     OW11805  10.217  13.393   9.111
36658SOL    HW111806  10.220  13.390   9.015
36658SOL    HW211807  10.135  13.438   9.131
36659SOL     OW11808   6.672   9.711   9.490
36659SOL    HW111809   6.619   9.646   9.536
36659SOL    HW211810   6.702   9.770   9.560
36660SOL     OW11811   9.105  10.548   3.454
36660SOL    HW111812   9.029  10.604   3.437
36660SOL    HW211813   9.086  10.508   3.539
36661SOL     OW11814   2.901  12.783   4.453
36661SOL    HW111815   2.985  12.772   4.408
36661SOL    HW211816   2.847  12.832   4.391
36662SOL     OW11817   0.475   9.452  14.773
36662SOL    HW111818   0.457   9.464  14.680
36662SOL    HW211819   0.402   9.398  14.805
36663SOL     OW11820   5.242  12.921   4.551
36663SOL    HW111821   5.305  12.881   4.492
36663SOL    HW211822   5.295  12.975   4.610
36664SOL     OW11823   3.153   8.306   1.504
36664SOL    HW111824   3.205   8.268   1.575
36664SOL    HW211825   3.218   8.325   1.436
36665SOL     OW11826   9.802   8.171  14.687
36665SOL    HW111827   9.847   8.095  14.721
36665SOL    HW211828   9.766   8.215  14.764
36666SOL     OW11829  11.762   7.936  12.943
36666SOL    HW111830  11.712   8.000  12.993
36666SOL    HW211831  11.744   7.852  12.986
36667SOL     OW11832  11.876   0.578  14.790
36667SOL    HW111833  11.915   0.656  14.827
36667SOL    HW211834  11.826   0.539  14.862
36668SOL     OW11835  10.384   0.748   7.113
36668SOL    HW111836  10.346   0.836   7.119
36668SOL    HW211837  10.409   0.739   7.021
36669SOL     OW11838   2.642   4.559  10.877
36669SOL    HW111839   2.688   4.643  10.879
36669SOL    HW211840   2.596   4.559  10.793
36670SOL     OW11841  14.382   3.389  10.532
36670SOL    HW111842  14.444   3.414  10.463
36670SOL    HW211843  14.437   3.368  10.607
36671SOL     OW11844   3.807   2.070   3.109
36671SOL    HW111845   3.731   2.120   3.139
36671SOL    HW211846   3.815   1.998   3.171
36672SOL     OW11847   8.218   8.457   9.378
36672SOL    HW111848   8.235   8.471   9.284
36672SOL    HW211849   8.260   8.374   9.397
36673SOL     OW11850  10.911   3.983   6.595
36673SOL    HW111851  11.004   3.984   6.615
36673SOL    HW211852  10.869   4.011   6.676
36674SOL     OW11853  13.096  12.913   1.851
36674SOL    HW111854  13.018  12.947   1.895
36674SOL    HW211855  13.116  12.979   1.785
36675SOL     OW11856   7.194   2.354   7.471
36675SOL    HW111857   7.131   2.382   7.538
36675SOL    HW211858   7.144   2.298   7.412
36676SOL     OW11859  14.290   7.364   8.004
36676SOL    HW111860  14.242   7.281   7.999
36676SOL    HW211861  14.230   7.424   8.049
36677SOL     OW11862   5.976  12.633   1.771
36677SOL    HW111863   5.984  12.628   1.675
36677SOL    HW211864   5.976  12.726   1.791
36678SOL     OW11865   2.236  11.555   2.808
36678SOL    HW111866   2.325  11.557   2.844
36678SOL    HW211867   2.220  11.462   2.790
36679SOL     OW11868   9.284   8.129   6.442
36679SOL    HW111869   9.224   8.117   6.516
36679SOL    HW211870   9.226   8.144   6.367
36680SOL     OW11871  14.663  10.957   0.212
36680SOL    HW111872  14.726  10.935   0.281
36680SOL    HW211873  14.641  10.873   0.172
36681SOL     OW11874   2.604   0.957   6.997
36681SOL    HW111875   2.633   0.868   6.982
36681SOL    HW211876   2.609   0.969   7.092
36682SOL     OW11877   3.431   1.443   6.610
36682SOL    HW111878   3.384   1.390   6.674
36682SOL    HW211879   3.440   1.386   6.534
36683SOL     OW11880   4.271   2.166   4.482
36683SOL    HW111881   4.358   2.178   4.445
36683SOL    HW211882   4.232   2.095   4.430
36684SOL     OW11883  10.931  11.410   3.331
36684SOL    HW111884  10.967  11.324   3.311
36684SOL    HW211885  10.837  11.401   3.321
36685SOL     OW11886   7.254   4.384  13.946
36685SOL    HW111887   7.167   4.345  13.944
36685SOL    HW211888   7.242   4.472  13.912
36686SOL     OW11889   2.434   7.360  11.533
36686SOL    HW111890   2.447   7.444  11.577
36686SOL    HW211891   2.435   7.295  11.604
36687SOL     OW11892   0.417  12.031   6.405
36687SOL    HW111893   0.377  12.107   6.448
36687SOL    HW211894   0.417  11.963   6.472
36688SOL     OW11895   8.851   6.218   9.331
36688SOL    HW111896   8.925   6.276   9.351
36688SOL    HW211897   8.807   6.206   9.415
36689SOL     OW11898   2.747  10.541  11.219
36689SOL    HW111899   2.835  10.554  11.255
36689SOL    HW211900   2.760  10.538  11.124
36690SOL     OW11901   2.629   3.936   8.356
36690SOL    HW111902   2.595   4.022   8.332
36690SOL    HW211903   2.720   3.937   8.326
36691SOL     OW11904  14.099  13.200   5.713
36691SOL    HW111905  14.041  13.168   5.782
36691SOL    HW211906  14.187  13.190   5.749
36692SOL     OW11907   7.687   8.090  11.236
36692SOL    HW111908   7.698   7.995  11.242
36692SOL    HW211909   7.614   8.102  11.175
36693SOL     OW11910   5.084  10.628   2.478
36693SOL    HW111911   5.092  10.577   2.559
36693SOL    HW211912   5.173  10.660   2.461
36694SOL     OW11913  11.561  11.997   5.542
36694SOL    HW111914  11.563  11.986   5.638
36694SOL    HW211915  11.559  11.907   5.508
36695SOL     OW11916   2.796   2.966   9.996
36695SOL    HW111917   2.809   2.881   9.954
36695SOL    HW211918   2.797   2.947  10.090
36696SOL     OW11919   2.205   6.061   5.250
36696SOL    HW111920   2.116   6.058   5.283
36696SOL    HW211921   2.199   6.106   5.166
36697SOL     OW11922   3.395   0.556   7.837
36697SOL    HW111923   3.441   0.624   7.887
36697SOL    HW211924   3.335   0.516   7.899
36698SOL     OW11925  12.558  11.066   1.957
36698SOL    HW111926  12.570  11.118   2.037
36698SOL    HW211927  12.464  11.068   1.941
36699SOL     OW11928   7.978   1.003   9.350
36699SOL    HW111929   7.912   0.974   9.287
36699SOL    HW211930   7.939   0.983   9.436
36700SOL     OW11931   5.677   9.995  12.856
36700SOL    HW111932   5.713   9.952  12.780
36700SOL    HW211933   5.684  10.089  12.836
36701SOL     OW11934  14.190  12.934  14.729
36701SOL    HW111935  14.162  12.986  14.654
36701SOL    HW211936  14.151  12.976  14.805
36702SOL     OW11937   3.649   3.918   0.800
36702SOL    HW111938   3.707   3.941   0.872
36702SOL    HW211939   3.707   3.886   0.731
36703SOL     OW11940   6.393   9.925   2.533
36703SOL    HW111941   6.424   9.859   2.471
36703SOL    HW211942   6.303   9.942   2.507
36704SOL     OW11943  11.086   2.950   7.166
36704SOL    HW111944  11.119   2.970   7.079
36704SOL    HW211945  11.077   2.855   7.167
36705SOL     OW11946  13.257  12.475   4.387
36705SOL    HW111947  13.327  12.527   4.427
36705SOL    HW211948  13.223  12.531   4.317
36706SOL     OW11949   8.173   5.044   6.512
36706SOL    HW111950   8.162   5.006   6.425
36706SOL    HW211951   8.260   5.083   6.511
36707SOL     OW11952  11.513   2.786   6.740
36707SOL    HW111953  11.430   2.787   6.787
36707SOL    HW211954  11.515   2.701   6.697
36708SOL     OW11955   8.527   9.040   0.564
36708SOL    HW111956   8.576   8.959   0.574
36708SOL    HW211957   8.501   9.042   0.471
36709SOL     OW11958  13.035  14.674  13.053
36709SOL    HW111959  12.967  14.716  13.000
36709SOL    HW211960  13.029  14.718  13.138
36710SOL     OW11961   4.586   8.730   0.472
36710SOL    HW111962   4.533   8.668   0.422
36710SOL    HW211963   4.675   8.716   0.439
36711SOL     OW11964  13.838   0.513   4.529
36711SOL    HW111965  13.836   0.434   4.583
36711SOL    HW211966  13.781   0.493   4.455
36712SOL     OW11967   0.354  12.889   8.431
36712SOL    HW111968   0.424  12.943   8.470
36712SOL    HW211969   0.325  12.939   8.355
36713SOL     OW11970   7.979   4.673   4.543
36713SOL    HW111971   7.998   4.660   4.636
36713SOL    HW211972   8.017   4.758   4.522
36714SOL     OW11973  12.470  10.274   0.168
36714SOL    HW111974  12.493  10.302   0.257
36714SOL    HW211975  12.515  10.191   0.157
36715SOL     OW11976   0.950   0.390   2.333
36715SOL    HW111977   0.862   0.419   2.311
36715SOL    HW211978   0.980   0.452   2.400
36716SOL     OW11979   1.458   9.417   4.389
36716SOL    HW111980   1.366   9.425   4.415
36716SOL    HW211981   1.487   9.337   4.432
36717SOL     OW11982  11.087   7.189   4.355
36717SOL    HW111983  11.002   7.150   4.379
36717SOL    HW211984  11.077   7.216   4.264
36718SOL     OW11985  14.418   9.306   1.583
36718SOL    HW111986  14.378   9.248   1.518
36718SOL    HW211987  14.511   9.302   1.565
36719SOL     OW11988   7.564   0.072   1.978
36719SOL    HW111989   7.552   0.136   1.909
36719SOL    HW211990   7.656   0.080   2.003
36720SOL     OW11991  11.106   5.856   2.332
36720SOL    HW111992  11.062   5.777   2.300
36720SOL    HW211993  11.156   5.888   2.257
36721SOL     OW11994   1.262   6.984   5.415
36721SOL    HW111995   1.357   6.995   5.406
36721SOL    HW211996   1.248   6.975   5.509
36722SOL     OW11997  14.313  11.000   4.805
36722SOL    HW111998  14.277  11.058   4.872
36722SOL    HW211999  14.306  11.050   4.724
36723SOL     OW12000   8.395   7.338  10.724
36723SOL    HW112001   8.349   7.270  10.772
36723SOL    HW212002   8.482   7.342  10.765
36724SOL     OW12003  11.439  10.118   1.994
36724SOL    HW112004  11.411  10.074   1.914
36724SOL    HW212005  11.486  10.195   1.963
36725SOL     OW12006   5.691   0.305  14.744
36725SOL    HW112007   5.637   0.272  14.672
36725SOL    HW212008   5.638   0.372  14.785
36726SOL     OW12009  13.032  10.402   8.075
36726SOL    HW112010  12.982  10.322   8.092
36726SOL    HW212011  12.967  10.471   8.073
36727SOL     OW12012   1.897   0.287   7.476
36727SOL    HW112013   1.969   0.341   7.443
36727SOL    HW212014   1.928   0.256   7.561
36728SOL     OW12015   1.793   8.478  12.270
36728SOL    HW112016   1.817   8.570  12.287
36728SOL    HW212017   1.874   8.438  12.239
36729SOL     OW12018   9.704   5.050   9.464
36729SOL    HW112019   9.773   5.064   9.399
36729SOL    HW212020   9.642   5.121   9.450
36730SOL     OW12021   4.509   1.242   1.529
36730SOL    HW112022   4.566   1.285   1.593
36730SOL    HW212023   4.447   1.192   1.582
36731SOL     OW12024   0.093   0.530   6.471
36731SOL    HW112025   0.119   0.469   6.402
36731SOL    HW212026   0.002   0.551   6.451
36732SOL     OW12027  11.925   2.781  12.148
36732SOL    HW112028  11.867   2.809  12.077
36732SOL    HW212029  11.868   2.736  12.210
36733SOL     OW12030   7.544   0.924   7.725
36733SOL    HW112031   7.508   1.013   7.721
36733SOL    HW212032   7.491   0.875   7.662
36734SOL     OW12033   5.126   9.704   9.772
36734SOL    HW112034   5.134   9.638   9.704
36734SOL    HW212035   5.206   9.756   9.765
36735SOL     OW12036   1.881  12.987   5.948
36735SOL    HW112037   1.953  12.988   6.012
36735SOL    HW212038   1.810  13.035   5.990
36736SOL     OW12039   0.682   3.034   2.852
36736SOL    HW112040   0.603   2.982   2.837
36736SOL    HW212041   0.650   3.120   2.877
36737SOL     OW12042   8.627   8.037   4.639
36737SOL    HW112043   8.606   8.096   4.712
36737SOL    HW212044   8.543   7.999   4.614
36738SOL     OW12045   0.500   2.491   2.636
36738SOL    HW112046   0.419   2.445   2.617
36738SOL    HW212047   0.554   2.428   2.683
36739SOL     OW12048   6.689   4.323   8.295
36739SOL    HW112049   6.643   4.292   8.373
36739SOL    HW212050   6.624   4.315   8.225
36740SOL     OW12051   8.979   7.085   0.923
36740SOL    HW112052   9.036   7.115   0.852
36740SOL    HW212053   8.896   7.131   0.909
36741SOL     OW12054   4.046   4.963   0.108
36741SOL    HW112055   3.986   4.917   0.166
36741SOL    HW212056   4.077   5.037   0.160
36742SOL     OW12057   5.770  13.064  10.889
36742SOL    HW112058   5.859  13.091  10.909
36742SOL    HW212059   5.741  13.016  10.967
36743SOL     OW12060   6.580   1.118   4.167
36743SOL    HW112061   6.659   1.070   4.140
36743SOL    HW212062   6.562   1.086   4.255
36744SOL     OW12063   8.230  12.953   8.339
36744SOL    HW112064   8.251  12.894   8.411
36744SOL    HW212065   8.200  12.896   8.268
36745SOL     OW12066   8.565   2.771   8.915
36745SOL    HW112067   8.507   2.846   8.898
36745SOL    HW212068   8.626   2.771   8.842
36746SOL     OW12069   4.055  11.616   1.912
36746SOL    HW112070   4.138  11.652   1.882
36746SOL    HW212071   4.062  11.522   1.895
36747SOL     OW12072   8.736  14.326   4.240
36747SOL    HW112073   8.653  14.356   4.203
36747SOL    HW212074   8.721  14.328   4.335
36748SOL     OW12075   4.521   1.387   8.111
36748SOL    HW112076   4.549   1.472   8.077
36748SOL    HW212077   4.542   1.326   8.040
36749SOL     OW12078   8.051   3.842  11.682
36749SOL    HW112079   7.989   3.849  11.755
36749SOL    HW212080   8.128   3.801  11.721
36750SOL     OW12081   3.419   1.720  13.428
36750SOL    HW112082   3.338   1.692  13.471
36750SOL    HW212083   3.420   1.669  13.346
36751SOL     OW12084  13.078   0.600   5.074
36751SOL    HW112085  13.027   0.584   5.154
36751SOL    HW212086  13.056   0.527   5.017
36752SOL     OW12087   4.113  14.647   8.026
36752SOL    HW112088   4.127  14.602   8.109
36752SOL    HW212089   4.070  14.582   7.970
36753SOL     OW12090   3.277  11.293   0.211
36753SOL    HW112091   3.363  11.327   0.186
36753SOL    HW212092   3.245  11.353   0.278
36754SOL     OW12093  13.938   8.676  10.110
36754SOL    HW112094  14.033   8.691  10.112
36754SOL    HW212095  13.900   8.762  10.127
36755SOL     OW12096   6.210   2.892   0.123
36755SOL    HW112097   6.211   2.945   0.043
36755SOL    HW212098   6.218   2.802   0.091
36756SOL     OW12099  12.852   2.046   4.159
36756SOL    HW112100  12.837   2.123   4.215
36756SOL    HW212101  12.784   2.052   4.092
36757SOL     OW12102   4.927   1.244  14.285
36757SOL    HW112103   4.970   1.319  14.242
36757SOL    HW212104   4.953   1.169  14.232
36758SOL     OW12105   4.343  13.738   3.109
36758SOL    HW112106   4.343  13.827   3.144
36758SOL    HW212107   4.317  13.748   3.018
36759SOL     OW12108   3.765   4.892   1.859
36759SOL    HW112109   3.682   4.938   1.867
36759SOL    HW212110   3.823   4.954   1.814
36760SOL     OW12111   2.154  11.192  11.261
36760SOL    HW112112   2.110  11.247  11.326
36760SOL    HW212113   2.220  11.250  11.221
36761SOL     OW12114  14.400   2.502   3.752
36761SOL    HW112115  14.420   2.517   3.844
36761SOL    HW212116  14.450   2.569   3.705
36762SOL     OW12117  11.986   9.935   2.173
36762SOL    HW112118  12.043   9.859   2.185
36762SOL    HW212119  11.918   9.925   2.240
36763SOL     OW12120  13.133   1.319   3.352
36763SOL    HW112121  13.049   1.315   3.307
36763SOL    HW212122  13.173   1.400   3.322
36764SOL     OW12123   1.133   4.263   0.690
36764SOL    HW112124   1.158   4.237   0.779
36764SOL    HW212125   1.093   4.350   0.701
36765SOL     OW12126   5.579  11.902  12.974
36765SOL    HW112127   5.622  11.933  12.894
36765SOL    HW212128   5.650  11.868  13.028
36766SOL     OW12129   4.290   0.564   1.520
36766SOL    HW112130   4.377   0.525   1.530
36766SOL    HW212131   4.232   0.506   1.569
36767SOL     OW12132  11.046   7.752  12.203
36767SOL    HW112133  10.962   7.717  12.171
36767SOL    HW212134  11.043   7.845  12.180
36768SOL     OW12135  12.473   8.903   1.406
36768SOL    HW112136  12.484   8.849   1.328
36768SOL    HW212137  12.540   8.872   1.467
36769SOL     OW12138   9.110   0.457   4.661
36769SOL    HW112139   9.033   0.409   4.630
36769SOL    HW212140   9.176   0.442   4.593
36770SOL     OW12141   6.002  13.902   7.239
36770SOL    HW112142   5.972  13.835   7.178
36770SOL    HW212143   5.940  13.898   7.312
36771SOL     OW12144  12.584   1.116   1.998
36771SOL    HW112145  12.553   1.029   2.024
36771SOL    HW212146  12.504   1.165   1.978
36772SOL     OW12147  13.544  11.700  13.041
36772SOL    HW112148  13.459  11.702  13.085
36772SOL    HW212149  13.586  11.621  13.073
36773SOL     OW12150   8.176  12.478   1.649
36773SOL    HW112151   8.163  12.469   1.743
36773SOL    HW212152   8.129  12.404   1.611
36774SOL     OW12153   7.734  14.363   9.712
36774SOL    HW112154   7.805  14.313   9.754
36774SOL    HW212155   7.735  14.448   9.756
36775SOL     OW12156  13.881   0.825   6.275
36775SOL    HW112157  13.837   0.765   6.215
36775SOL    HW212158  13.811   0.873   6.318
36776SOL     OW12159  12.757  11.774   6.173
36776SOL    HW112160  12.679  11.814   6.212
36776SOL    HW212161  12.740  11.775   6.079
36777SOL     OW12162   1.043   7.800   7.181
36777SOL    HW112163   0.983   7.806   7.107
36777SOL    HW212164   1.021   7.875   7.236
36778SOL     OW12165   2.870   7.865  12.908
36778SOL    HW112166   2.945   7.874  12.849
36778SOL    HW212167   2.873   7.773  12.935
36779SOL     OW12168   2.949  14.851   4.595
36779SOL    HW112169   2.923  14.773   4.547
36779SOL    HW212170   2.868   0.025   4.606
36780SOL     OW12171  12.842   6.896   4.092
36780SOL    HW112172  12.763   6.934   4.131
36780SOL    HW212173  12.909   6.964   4.103
36781SOL     OW12174  10.194  12.084   7.801
36781SOL    HW112175  10.180  12.142   7.876
36781SOL    HW212176  10.170  11.997   7.833
36782SOL     OW12177  11.075  14.652   0.408
36782SOL    HW112178  11.165  14.684   0.404
36782SOL    HW212179  11.021  14.732   0.408
36783SOL     OW12180  10.386  14.623   8.889
36783SOL    HW112181  10.358  14.674   8.964
36783SOL    HW212182  10.405  14.536   8.925
36784SOL     OW12183   6.574  10.939   6.637
36784SOL    HW112184   6.586  10.997   6.713
36784SOL    HW212185   6.632  10.865   6.654
36785SOL     OW12186   2.223   7.723   4.361
36785SOL    HW112187   2.143   7.759   4.323
36785SOL    HW212188   2.244   7.648   4.305
36786SOL     OW12189  14.818   9.878  14.167
36786SOL    HW112190  14.855   9.828  14.240
36786SOL    HW212191  14.809   9.967  14.202
36787SOL     OW12192   2.510   3.297   5.926
36787SOL    HW112193   2.557   3.326   5.848
36787SOL    HW212194   2.500   3.202   5.914
36788SOL     OW12195   9.301  13.193   1.705
36788SOL    HW112196   9.341  13.279   1.715
36788SOL    HW212197   9.270  13.171   1.793
36789SOL     OW12198   8.940   6.781   8.011
36789SOL    HW112199   8.933   6.690   7.984
36789SOL    HW212200   8.970   6.828   7.933
36790SOL     OW12201   9.336   1.895   7.406
36790SOL    HW112202   9.316   1.964   7.342
36790SOL    HW212203   9.431   1.881   7.397
36791SOL     OW12204   4.137  14.185  11.403
36791SOL    HW112205   4.076  14.186  11.477
36791SOL    HW212206   4.200  14.254  11.424
36792SOL     OW12207   2.600  11.537  14.870
36792SOL    HW112208   2.544  11.481  14.816
36792SOL    HW212209   2.605  11.493   0.079
36793SOL     OW12210   1.169  11.776   2.550
36793SOL    HW112211   1.160  11.745   2.640
36793SOL    HW212212   1.237  11.720   2.512
36794SOL     OW12213  11.558  13.359  14.846
36794SOL    HW112214  11.576  13.272   0.007
36794SOL    HW212215  11.550  13.416   0.046
36795SOL     OW12216   5.342  14.641  13.440
36795SOL    HW112217   5.255  14.655  13.477
36795SOL    HW212218   5.390  14.722  13.458
36796SOL     OW12219  11.763   8.201   9.908
36796SOL    HW112220  11.712   8.220   9.987
36796SOL    HW212221  11.827   8.135   9.936
36797SOL     OW12222   6.216  10.612  12.509
36797SOL    HW112223   6.240  10.526  12.543
36797SOL    HW212224   6.136  10.635  12.555
36798SOL     OW12225   5.672  13.022   6.506
36798SOL    HW112226   5.595  13.079   6.496
36798SOL    HW212227   5.636  12.939   6.536
36799SOL     OW12228  11.123   2.197  14.187
36799SOL    HW112229  11.200   2.242  14.222
36799SOL    HW212230  11.082   2.262  14.129
36800SOL     OW12231   6.129  13.408   9.704
36800SOL    HW112232   6.035  13.390   9.691
36800SOL    HW212233   6.132  13.501   9.723
36801SOL     OW12234   7.305   4.003   9.985
36801SOL    HW112235   7.314   4.011  10.080
36801SOL    HW212236   7.211   3.992   9.971
36802SOL     OW12237  13.502  12.627   3.162
36802SOL    HW112238  13.467  12.705   3.205
36802SOL    HW212239  13.551  12.660   3.087
36803SOL     OW12240   3.486  11.267  10.599
36803SOL    HW112241   3.561  11.238  10.651
36803SOL    HW212242   3.442  11.186  10.574
36804SOL     OW12243  10.152  12.332  10.195
36804SOL    HW112244  10.073  12.326  10.248
36804SOL    HW212245  10.224  12.329  10.258
36805SOL     OW12246   5.520   1.804   8.879
36805SOL    HW112247   5.583   1.754   8.929
36805SOL    HW212248   5.565   1.826   8.797
36806SOL     OW12249   4.846  11.741   9.646
36806SOL    HW112250   4.853  11.689   9.727
36806SOL    HW212251   4.915  11.807   9.655
36807SOL     OW12252  12.638  11.323  13.936
36807SOL    HW112253  12.689  11.244  13.925
36807SOL    HW212254  12.675  11.366  14.013
36808SOL     OW12255   5.591   9.211   0.064
36808SOL    HW112256   5.529   9.241  14.874
36808SOL    HW212257   5.650   9.152   0.016
36809SOL     OW12258   7.610  14.236  10.498
36809SOL    HW112259   7.688  14.290  10.516
36809SOL    HW212260   7.645  14.150  10.477
36810SOL     OW12261   4.781   4.505  13.592
36810SOL    HW112262   4.831   4.513  13.511
36810SOL    HW212263   4.776   4.410  13.607
36811SOL     OW12264   4.519  11.342   3.682
36811SOL    HW112265   4.431  11.351   3.645
36811SOL    HW212266   4.571  11.302   3.612
36812SOL     OW12267   5.836  10.500  14.319
36812SOL    HW112268   5.904  10.563  14.339
36812SOL    HW212269   5.775  10.547  14.263
36813SOL     OW12270   6.516   3.180   6.803
36813SOL    HW112271   6.454   3.108   6.798
36813SOL    HW212272   6.504   3.227   6.720
36814SOL     OW12273   4.055  12.150   2.326
36814SOL    HW112274   3.992  12.221   2.317
36814SOL    HW212275   4.100  12.148   2.242
36815SOL     OW12276   0.120  12.860   7.879
36815SOL    HW112277   0.044  12.906   7.914
36815SOL    HW212278   0.176  12.844   7.955
36816SOL     OW12279   9.376   0.161   0.581
36816SOL    HW112280   9.340   0.247   0.558
36816SOL    HW212281   9.326   0.099   0.530
36817SOL     OW12282   9.048   0.229   0.561
36817SOL    HW112283   9.079   0.145   0.528
36817SOL    HW212284   8.999   0.267   0.489
36818SOL     OW12285   4.396   5.221   5.530
36818SOL    HW112286   4.441   5.218   5.446
36818SOL    HW212287   4.355   5.134   5.537
36819SOL     OW12288   0.593  14.372   5.284
36819SOL    HW112289   0.674  14.328   5.261
36819SOL    HW212290   0.524  14.309   5.264
36820SOL     OW12291   7.480   5.103  13.329
36820SOL    HW112292   7.528   5.174  13.371
36820SOL    HW212293   7.481   5.032  13.393
36821SOL     OW12294   2.060   8.572   7.506
36821SOL    HW112295   2.034   8.484   7.535
36821SOL    HW212296   1.999   8.631   7.551
36822SOL     OW12297   4.047  14.796   5.340
36822SOL    HW112298   3.988  14.723   5.327
36822SOL    HW212299   4.110  14.765   5.405
36823SOL     OW12300  14.011  11.664  14.432
36823SOL    HW112301  13.925  11.672  14.391
36823SOL    HW212302  14.035  11.754  14.455
36824SOL     OW12303   7.269   2.625   1.014
36824SOL    HW112304   7.319   2.571   0.953
36824SOL    HW212305   7.299   2.715   0.997
36825SOL     OW12306   5.987   6.024   6.488
36825SOL    HW112307   5.989   5.966   6.412
36825SOL    HW212308   5.996   6.112   6.450
36826SOL     OW12309  14.845   9.629   1.690
36826SOL    HW112310   0.059   9.647   1.663
36826SOL    HW212311  14.835   9.677   1.773
36827SOL     OW12312   5.864  13.707   7.111
36827SOL    HW112313   5.793  13.648   7.137
36827SOL    HW212314   5.848  13.724   7.018
36828SOL     OW12315  12.162  12.536   8.265
36828SOL    HW112316  12.152  12.487   8.183
36828SOL    HW212317  12.182  12.468   8.331
36829SOL     OW12318   3.918   8.606  10.984
36829SOL    HW112319   3.899   8.513  10.992
36829SOL    HW212320   4.007   8.610  10.949
36830SOL     OW12321  12.970   8.458  14.342
36830SOL    HW112322  12.987   8.403  14.266
36830SOL    HW212323  13.008   8.543  14.319
36831SOL     OW12324  12.830   2.453  13.284
36831SOL    HW112325  12.854   2.425  13.196
36831SOL    HW212326  12.800   2.543  13.274
36832SOL     OW12327   7.329  11.343  14.165
36832SOL    HW112328   7.279  11.404  14.111
36832SOL    HW212329   7.282  11.260  14.158
36833SOL     OW12330   3.481   0.936  10.549
36833SOL    HW112331   3.469   0.918  10.456
36833SOL    HW212332   3.555   0.881  10.576
36834SOL     OW12333   1.358   8.528  14.133
36834SOL    HW112334   1.285   8.562  14.185
36834SOL    HW212335   1.431   8.525  14.194
36835SOL     OW12336   5.450   8.707  11.080
36835SOL    HW112337   5.407   8.623  11.069
36835SOL    HW212338   5.393   8.756  11.139
36836SOL     OW12339   5.582  10.271  12.086
36836SOL    HW112340   5.559  10.206  12.019
36836SOL    HW212341   5.500  10.313  12.108
36837SOL     OW12342   3.963   6.505   6.538
36837SOL    HW112343   4.003   6.551   6.465
36837SOL    HW212344   3.986   6.558   6.615
36838SOL     OW12345   6.684  10.520   5.417
36838SOL    HW112346   6.712  10.464   5.489
36838SOL    HW212347   6.736  10.491   5.342
36839SOL     OW12348   5.662   2.935  12.300
36839SOL    HW112349   5.749   2.897  12.292
36839SOL    HW212350   5.639   2.923  12.392
36840SOL     OW12351  12.734   1.150   9.368
36840SOL    HW112352  12.672   1.223   9.371
36840SOL    HW212353  12.679   1.072   9.370
36841SOL     OW12354  10.883   4.787   4.163
36841SOL    HW112355  10.869   4.807   4.255
36841SOL    HW212356  10.836   4.857   4.116
36842SOL     OW12357   4.301  10.752   7.289
36842SOL    HW112358   4.324  10.773   7.380
36842SOL    HW212359   4.335  10.663   7.276
36843SOL     OW12360   7.012   7.614   6.023
36843SOL    HW112361   7.034   7.657   6.106
36843SOL    HW212362   6.921   7.587   6.033
36844SOL     OW12363   0.569   1.868   3.200
36844SOL    HW112364   0.519   1.913   3.132
36844SOL    HW212365   0.655   1.911   3.198
36845SOL     OW12366  13.855   6.427   8.594
36845SOL    HW112367  13.785   6.493   8.596
36845SOL    HW212368  13.920   6.464   8.534
36846SOL     OW12369   3.709  13.537   9.436
36846SOL    HW112370   3.787  13.505   9.392
36846SOL    HW212371   3.644  13.549   9.366
36847SOL     OW12372   9.046   2.186  12.904
36847SOL    HW112373   9.106   2.141  12.963
36847SOL    HW212374   9.054   2.279  12.928
36848SOL     OW12375  11.779   7.332   8.417
36848SOL    HW112376  11.840   7.284   8.361
36848SOL    HW212377  11.750   7.268   8.481
36849SOL     OW12378   4.245  10.200   6.929
36849SOL    HW112379   4.226  10.261   7.000
36849SOL    HW212380   4.326  10.157   6.954
36850SOL     OW12381  13.051   2.554  12.763
36850SOL    HW112382  13.068   2.546  12.669
36850SOL    HW212383  12.956   2.555  12.770
36851SOL     OW12384   5.452   1.030  12.812
36851SOL    HW112385   5.491   1.109  12.772
36851SOL    HW212386   5.485   1.031  12.902
36852SOL     OW12387   0.485   3.998   3.426
36852SOL    HW112388   0.402   3.953   3.410
36852SOL    HW212389   0.472   4.043   3.510
36853SOL     OW12390  10.010  14.051   3.437
36853SOL    HW112391   9.967  14.128   3.476
36853SOL    HW212392  10.017  14.073   3.345
36854SOL     OW12393  11.797  12.085   0.317
36854SOL    HW112394  11.790  12.113   0.409
36854SOL    HW212395  11.829  11.995   0.322
36855SOL     OW12396   2.086  14.828  12.726
36855SOL    HW112397   2.021   0.011  12.689
36855SOL    HW212398   2.060  14.819  12.818
36856SOL     OW12399   3.456   4.606   6.990
36856SOL    HW112400   3.442   4.564   6.906
36856SOL    HW212401   3.494   4.538   7.045
36857SOL     OW12402   1.322   6.029   9.156
36857SOL    HW112403   1.363   6.028   9.070
36857SOL    HW212404   1.382   6.080   9.211
36858SOL     OW12405  13.327   0.524   7.837
36858SOL    HW112406  13.289   0.496   7.754
36858SOL    HW212407  13.340   0.443   7.886
36859SOL     OW12408   4.109   7.948  14.399
36859SOL    HW112409   4.080   7.876  14.456
36859SOL    HW212410   4.045   8.018  14.415
36860SOL     OW12411   3.058   4.178  13.600
36860SOL    HW112412   2.998   4.222  13.659
36860SOL    HW212413   3.091   4.103  13.649
36861SOL     OW12414   3.579  13.158  12.439
36861SOL    HW112415   3.672  13.176  12.430
36861SOL    HW212416   3.553  13.202  12.519
36862SOL     OW12417   6.399   1.032   6.134
36862SOL    HW112418   6.363   1.055   6.048
36862SOL    HW212419   6.484   1.076   6.137
36863SOL     OW12420  10.109   5.815   9.456
36863SOL    HW112421  10.099   5.910   9.448
36863SOL    HW212422  10.202   5.800   9.444
36864SOL     OW12423   8.847   8.185   9.985
36864SOL    HW112424   8.926   8.239   9.988
36864SOL    HW212425   8.777   8.243  10.015
36865SOL     OW12426  10.421  13.649  11.044
36865SOL    HW112427  10.488  13.635  10.976
36865SOL    HW212428  10.457  13.718  11.100
36866SOL     OW12429   0.414   0.740  14.828
36866SOL    HW112430   0.435   0.713   0.041
36866SOL    HW212431   0.495   0.728  14.779
36867SOL     OW12432  10.452   9.905   0.481
36867SOL    HW112433  10.468   9.955   0.401
36867SOL    HW212434  10.415   9.969   0.542
36868SOL     OW12435   6.991   8.004   0.139
36868SOL    HW112436   7.048   7.972   0.069
36868SOL    HW212437   6.976   7.927   0.194
36869SOL     OW12438   0.924   8.665   6.600
36869SOL    HW112439   0.938   8.745   6.549
36869SOL    HW212440   0.927   8.693   6.691
36870SOL     OW12441   4.931   4.975   2.240
36870SOL    HW112442   4.930   4.938   2.152
36870SOL    HW212443   4.871   4.919   2.290
36871SOL     OW12444   3.484   6.113   1.475
36871SOL    HW112445   3.512   6.064   1.552
36871SOL    HW212446   3.507   6.204   1.494
36872SOL     OW12447   4.141   0.045  12.053
36872SOL    HW112448   4.108   0.069  11.967
36872SOL    HW212449   4.134  14.825  12.055
36873SOL     OW12450   8.967   5.485   0.805
36873SOL    HW112451   8.956   5.505   0.898
36873SOL    HW212452   8.878   5.489   0.769
36874SOL     OW12453   4.425   4.660  11.713
36874SOL    HW112454   4.470   4.588  11.757
36874SOL    HW212455   4.340   4.665  11.755
36875SOL     OW12456  12.076  12.558   3.053
36875SOL    HW112457  12.137  12.501   3.007
36875SOL    HW212458  12.127  12.593   3.126
36876SOL     OW12459  14.027   5.452   9.891
36876SOL    HW112460  13.969   5.475   9.963
36876SOL    HW212461  14.114   5.478   9.921
36877SOL     OW12462  12.589   6.784   2.846
36877SOL    HW112463  12.561   6.846   2.779
36877SOL    HW212464  12.662   6.737   2.805
36878SOL     OW12465   9.835   7.290  12.912
36878SOL    HW112466   9.885   7.249  12.842
36878SOL    HW212467   9.899   7.345  12.958
36879SOL     OW12468   1.861   0.337   1.307
36879SOL    HW112469   1.886   0.421   1.345
36879SOL    HW212470   1.938   0.281   1.319
36880SOL     OW12471   5.429   9.336  12.972
36880SOL    HW112472   5.335   9.350  12.985
36880SOL    HW212473   5.471   9.399  13.030
36881SOL     OW12474  14.285   0.505  11.347
36881SOL    HW112475  14.287   0.423  11.396
36881SOL    HW212476  14.224   0.560  11.395
36882SOL     OW12477   5.746   8.729   4.645
36882SOL    HW112478   5.705   8.643   4.652
36882SOL    HW212479   5.810   8.718   4.574
36883SOL     OW12480  12.701   9.725  13.753
36883SOL    HW112481  12.797   9.724  13.756
36883SOL    HW212482  12.681   9.690  13.666
36884SOL     OW12483   0.553   0.174   9.651
36884SOL    HW112484   0.467   0.199   9.620
36884SOL    HW212485   0.578   0.099   9.598
36885SOL     OW12486   0.097   6.054   7.172
36885SOL    HW112487   0.073   6.129   7.118
36885SOL    HW212488   0.014   6.022   7.207
36886SOL     OW12489   0.151   6.258   9.493
36886SOL    HW112490   0.135   6.334   9.549
36886SOL    HW212491   0.222   6.285   9.435
36887SOL     OW12492   7.468   6.079   8.676
36887SOL    HW112493   7.502   6.029   8.601
36887SOL    HW212494   7.385   6.114   8.646
36888SOL     OW12495   8.434   8.214   3.458
36888SOL    HW112496   8.372   8.273   3.416
36888SOL    HW212497   8.519   8.256   3.448
36889SOL     OW12498  10.192  10.135   0.133
36889SOL    HW112499  10.145  10.053   0.149
36889SOL    HW212500  10.170  10.190   0.208
36890SOL     OW12501   7.365  13.298   3.227
36890SOL    HW112502   7.303  13.324   3.295
36890SOL    HW212503   7.312  13.256   3.160
36891SOL     OW12504  13.832  10.055   6.932
36891SOL    HW112505  13.860   9.982   6.877
36891SOL    HW212506  13.799  10.013   7.012
36892SOL     OW12507   4.428  10.901   9.614
36892SOL    HW112508   4.345  10.873   9.653
36892SOL    HW212509   4.483  10.923   9.689
36893SOL     OW12510   7.780   3.221  11.991
36893SOL    HW112511   7.764   3.128  11.974
36893SOL    HW212512   7.780   3.229  12.086
36894SOL     OW12513   0.788   6.687  12.621
36894SOL    HW112514   0.774   6.768  12.670
36894SOL    HW212515   0.700   6.656  12.601
36895SOL     OW12516  12.572  10.862   2.926
36895SOL    HW112517  12.533  10.835   3.009
36895SOL    HW212518  12.498  10.879   2.869
36896SOL     OW12519   7.216   9.036   8.610
36896SOL    HW112520   7.132   9.021   8.653
36896SOL    HW212521   7.281   9.021   8.679
36897SOL     OW12522   0.788  10.436   2.435
36897SOL    HW112523   0.817  10.511   2.486
36897SOL    HW212524   0.870  10.393   2.407
36898SOL     OW12525   0.377  11.177  12.455
36898SOL    HW112526   0.334  11.226  12.525
36898SOL    HW212527   0.421  11.105  12.499
36899SOL     OW12528   2.833   0.603  13.691
36899SOL    HW112529   2.891   0.535  13.659
36899SOL    HW212530   2.888   0.681  13.696
36900SOL     OW12531   7.480  11.856   6.461
36900SOL    HW112532   7.517  11.838   6.374
36900SOL    HW212533   7.415  11.787   6.474
36901SOL     OW12534  12.048   9.892  10.754
36901SOL    HW112535  12.006   9.944  10.685
36901SOL    HW212536  11.979   9.837  10.788
36902SOL     OW12537   7.475   3.733  10.478
36902SOL    HW112538   7.567   3.710  10.468
36902SOL    HW212539   7.459   3.732  10.572
36903SOL     OW12540   9.593   5.977   1.379
36903SOL    HW112541   9.616   5.996   1.288
36903SOL    HW212542   9.630   5.890   1.395
36904SOL     OW12543   3.069   8.006   6.770
36904SOL    HW112544   3.081   7.913   6.751
36904SOL    HW212545   3.147   8.030   6.820
36905SOL     OW12546   8.742   1.206   6.124
36905SOL    HW112547   8.720   1.282   6.178
36905SOL    HW212548   8.659   1.180   6.085
36906SOL     OW12549  11.992   3.568   3.422
36906SOL    HW112550  12.085   3.550   3.408
36906SOL    HW212551  11.959   3.489   3.466
36907SOL     OW12552   2.391   8.460   8.630
36907SOL    HW112553   2.458   8.443   8.563
36907SOL    HW212554   2.337   8.381   8.629
36908SOL     OW12555   0.065   4.733   4.594
36908SOL    HW112556  14.858   4.709   4.634
36908SOL    HW212557   0.053   4.714   4.501
36909SOL     OW12558  13.966   9.852   6.830
36909SOL    HW112559  13.980   9.763   6.795
36909SOL    HW212560  14.040   9.903   6.796
36910SOL     OW12561   7.104  12.066   4.377
36910SOL    HW112562   7.142  12.116   4.305
36910SOL    HW212563   7.074  12.132   4.440
36911SOL     OW12564  14.643   8.302  11.496
36911SOL    HW112565  14.723   8.273  11.539
36911SOL    HW212566  14.670   8.330  11.409
36912SOL     OW12567  11.696   8.011   5.394
36912SOL    HW112568  11.614   8.006   5.444
36912SOL    HW212569  11.747   8.079   5.438
36913SOL     OW12570  14.557   2.211   8.318
36913SOL    HW112571  14.559   2.119   8.347
36913SOL    HW212572  14.645   2.244   8.337
36914SOL     OW12573   6.288   2.122  13.403
36914SOL    HW112574   6.238   2.083  13.331
36914SOL    HW212575   6.307   2.049  13.461
36915SOL     OW12576   7.550   2.539   2.690
36915SOL    HW112577   7.501   2.491   2.757
36915SOL    HW212578   7.604   2.601   2.739
36916SOL     OW12579  13.866   1.736   0.974
36916SOL    HW112580  13.830   1.647   0.966
36916SOL    HW212581  13.815   1.788   0.913
36917SOL     OW12582   3.621  13.091   3.309
36917SOL    HW112583   3.602  13.026   3.376
36917SOL    HW212584   3.631  13.173   3.358
36918SOL     OW12585   3.194   4.045   6.241
36918SOL    HW112586   3.163   4.095   6.165
36918SOL    HW212587   3.117   4.036   6.297
36919SOL     OW12588   1.140   1.643   9.055
36919SOL    HW112589   1.178   1.710   8.999
36919SOL    HW212590   1.212   1.613   9.110
36920SOL     OW12591   6.240   5.313   6.646
36920SOL    HW112592   6.292   5.384   6.685
36920SOL    HW212593   6.305   5.258   6.602
36921SOL     OW12594   5.973  13.120   6.514
36921SOL    HW112595   5.912  13.046   6.525
36921SOL    HW212596   6.049  13.081   6.470
36922SOL     OW12597   4.357   7.771  14.510
36922SOL    HW112598   4.354   7.751  14.604
36922SOL    HW212599   4.447   7.802  14.496
36923SOL     OW12600  10.163   3.460   0.261
36923SOL    HW112601  10.152   3.471   0.167
36923SOL    HW212602  10.074   3.463   0.296
36924SOL     OW12603   9.014   8.283   5.894
36924SOL    HW112604   8.969   8.362   5.863
36924SOL    HW212605   8.946   8.235   5.942
36925SOL     OW12606   3.925  11.761  10.150
36925SOL    HW112607   3.834  11.740  10.170
36925SOL    HW212608   3.956  11.808  10.227
36926SOL     OW12609   8.864   8.040   9.734
36926SOL    HW112610   8.839   7.952   9.761
36926SOL    HW212611   8.862   8.091   9.815
36927SOL     OW12612   5.319   0.864  10.917
36927SOL    HW112613   5.253   0.919  10.876
36927SOL    HW212614   5.394   0.868  10.858
36928SOL     OW12615   4.304   0.056   0.509
36928SOL    HW112616   4.218   0.023   0.484
36928SOL    HW212617   4.357   0.049   0.429
36929SOL     OW12618   4.796   2.738   9.484
36929SOL    HW112619   4.889   2.757   9.476
36929SOL    HW212620   4.792   2.647   9.514
36930SOL     OW12621   8.040   3.462   3.383
36930SOL    HW112622   8.060   3.443   3.291
36930SOL    HW212623   8.064   3.554   3.394
36931SOL     OW12624   1.589  12.244   9.768
36931SOL    HW112625   1.535  12.268   9.843
36931SOL    HW212626   1.607  12.327   9.724
36932SOL     OW12627   1.693   6.693   0.722
36932SOL    HW112628   1.674   6.637   0.797
36932SOL    HW212629   1.670   6.781   0.751
36933SOL     OW12630   4.052   7.404   9.544
36933SOL    HW112631   4.016   7.360   9.622
36933SOL    HW212632   4.143   7.374   9.539
36934SOL     OW12633  13.078   6.684   3.737
36934SOL    HW112634  13.131   6.622   3.687
36934SOL    HW212635  13.067   6.643   3.823
36935SOL     OW12636  10.153   4.833  10.927
36935SOL    HW112637  10.206   4.891  10.981
36935SOL    HW212638  10.082   4.888  10.894
36936SOL     OW12639  10.683   4.460   3.625
36936SOL    HW112640  10.739   4.532   3.596
36936SOL    HW212641  10.608   4.503   3.667
36937SOL     OW12642   4.732   8.997   2.932
36937SOL    HW112643   4.707   8.908   2.906
36937SOL    HW212644   4.818   8.987   2.973
36938SOL     OW12645   4.238   3.754  13.393
36938SOL    HW112646   4.299   3.827  13.404
36938SOL    HW212647   4.204   3.738  13.481
36939SOL     OW12648   6.757  12.804  14.595
36939SOL    HW112649   6.805  12.799  14.678
36939SOL    HW212650   6.674  12.845  14.618
36940SOL     OW12651   2.924   1.392  12.321
36940SOL    HW112652   3.004   1.375  12.372
36940SOL    HW212653   2.886   1.470  12.361
36941SOL     OW12654   0.491   9.510   7.140
36941SOL    HW112655   0.523   9.473   7.222
36941SOL    HW212656   0.441   9.438   7.100
36942SOL     OW12657  10.642   7.396  13.555
36942SOL    HW112658  10.676   7.397  13.466
36942SOL    HW212659  10.552   7.364  13.546
36943SOL     OW12660   0.414   5.460   6.395
36943SOL    HW112661   0.345   5.423   6.450
36943SOL    HW212662   0.493   5.453   6.449
36944SOL     OW12663   1.029   8.131   2.882
36944SOL    HW112664   0.965   8.094   2.943
36944SOL    HW212665   1.003   8.223   2.873
36945SOL     OW12666   7.113   2.617   9.453
36945SOL    HW112667   7.045   2.656   9.399
36945SOL    HW212668   7.066   2.560   9.514
36946SOL     OW12669   3.652   0.831   3.263
36946SOL    HW112670   3.727   0.834   3.203
36946SOL    HW212671   3.588   0.891   3.224
36947SOL     OW12672   5.029   3.326   7.087
36947SOL    HW112673   5.037   3.401   7.146
36947SOL    HW212674   5.118   3.292   7.080
36948SOL     OW12675   1.169  10.359   7.674
36948SOL    HW112676   1.174  10.378   7.580
36948SOL    HW212677   1.190  10.443   7.716
36949SOL     OW12678  14.662  13.226  14.677
36949SOL    HW112679  14.750  13.237  14.639
36949SOL    HW212680  14.655  13.133  14.695
36950SOL     OW12681  14.632   9.844   9.572
36950SOL    HW112682  14.683   9.915   9.532
36950SOL    HW212683  14.572   9.889   9.631
36951SOL     OW12684   2.719  12.576   9.094
36951SOL    HW112685   2.795  12.528   9.126
36951SOL    HW212686   2.750  12.666   9.086
36952SOL     OW12687  13.825  10.047   1.807
36952SOL    HW112688  13.801  10.071   1.718
36952SOL    HW212689  13.755  10.084   1.861
36953SOL     OW12690   6.725  12.704  11.330
36953SOL    HW112691   6.675  12.786  11.341
36953SOL    HW212692   6.739  12.699  11.235
36954SOL     OW12693  11.581   9.655  12.395
36954SOL    HW112694  11.514   9.590  12.373
36954SOL    HW212695  11.578   9.718  12.324
36955SOL     OW12696  14.457   6.695  13.037
36955SOL    HW112697  14.540   6.735  13.014
36955SOL    HW212698  14.479   6.604  13.059
36956SOL     OW12699  10.621   3.837   4.600
36956SOL    HW112700  10.552   3.775   4.574
36956SOL    HW212701  10.694   3.781   4.627
36957SOL     OW12702   5.777   7.365   8.901
36957SOL    HW112703   5.719   7.300   8.941
36957SOL    HW212704   5.863   7.347   8.940
36958SOL     OW12705   3.364   0.113  10.876
36958SOL    HW112706   3.307   0.163  10.935
36958SOL    HW212707   3.311   0.039  10.848
36959SOL     OW12708   8.616   4.784  11.373
36959SOL    HW112709   8.621   4.838  11.294
36959SOL    HW212710   8.533   4.737  11.365
36960SOL     OW12711   7.967   4.762   5.090
36960SOL    HW112712   7.972   4.851   5.054
36960SOL    HW212713   7.988   4.772   5.183
36961SOL     OW12714   5.822   8.378  11.086
36961SOL    HW112715   5.845   8.297  11.132
36961SOL    HW212716   5.750   8.415  11.137
36962SOL     OW12717   6.099   5.700   5.553
36962SOL    HW112718   6.146   5.628   5.513
36962SOL    HW212719   6.142   5.779   5.519
36963SOL     OW12720  12.518   3.107   3.059
36963SOL    HW112721  12.509   3.199   3.034
36963SOL    HW212722  12.498   3.105   3.153
36964SOL     OW12723  10.053   0.853   3.189
36964SOL    HW112724  10.037   0.791   3.118
36964SOL    HW212725  10.146   0.873   3.183
36965SOL     OW12726   1.088   2.832   5.509
36965SOL    HW112727   1.020   2.819   5.576
36965SOL    HW212728   1.129   2.746   5.501
36966SOL     OW12729  13.959   9.793   1.840
36966SOL    HW112730  13.989   9.761   1.755
36966SOL    HW212731  13.898   9.864   1.819
36967SOL     OW12732  12.819   6.590   1.710
36967SOL    HW112733  12.880   6.618   1.778
36967SOL    HW212734  12.737   6.574   1.758
36968SOL     OW12735   6.892  14.537  10.355
36968SOL    HW112736   6.919  14.623  10.323
36968SOL    HW212737   6.906  14.478  10.281
36969SOL     OW12738   2.199   2.292   4.011
36969SOL    HW112739   2.287   2.254   4.006
36969SOL    HW212740   2.179   2.317   3.921
36970SOL     OW12741   8.055   0.591  12.855
36970SOL    HW112742   8.000   0.513  12.843
36970SOL    HW212743   8.091   0.608  12.768
36971SOL     OW12744   7.673   9.196  12.037
36971SOL    HW112745   7.723   9.144  11.974
36971SOL    HW212746   7.582   9.171  12.021
36972SOL     OW12747  14.474  13.294   0.870
36972SOL    HW112748  14.438  13.366   0.921
36972SOL    HW212749  14.551  13.265   0.919
36973SOL     OW12750  14.646   7.524   0.119
36973SOL    HW112751  14.603   7.546   0.202
36973SOL    HW212752  14.674   7.608   0.083
36974SOL     OW12753  13.844   8.002   0.524
36974SOL    HW112754  13.895   8.082   0.518
36974SOL    HW212755  13.754   8.032   0.537
36975SOL     OW12756  11.863   7.248  10.156
36975SOL    HW112757  11.865   7.212  10.245
36975SOL    HW212758  11.883   7.341  10.167
36976SOL     OW12759  11.990  10.558   0.318
36976SOL    HW112760  12.033  10.556   0.233
36976SOL    HW212761  12.039  10.495   0.371
36977SOL     OW12762   0.996   9.200   1.904
36977SOL    HW112763   1.077   9.148   1.903
36977SOL    HW212764   0.990   9.234   1.815
36978SOL     OW12765   9.766  14.789   3.044
36978SOL    HW112766   9.862  14.785   3.042
36978SOL    HW212767   9.746   0.007   3.048
36979SOL     OW12768   6.805   9.554   5.006
36979SOL    HW112769   6.752   9.582   5.080
36979SOL    HW212770   6.830   9.463   5.027
36980SOL     OW12771   3.347   1.578   7.797
36980SOL    HW112772   3.306   1.654   7.838
36980SOL    HW212773   3.288   1.505   7.815
36981SOL     OW12774   3.154   9.433  11.324
36981SOL    HW112775   3.061   9.440  11.305
36981SOL    HW212776   3.179   9.520  11.355
36982SOL     OW12777   3.052  14.171   7.843
36982SOL    HW112778   3.029  14.176   7.936
36982SOL    HW212779   3.122  14.106   7.839
36983SOL     OW12780   5.804   1.666   8.001
36983SOL    HW112781   5.892   1.654   8.037
36983SOL    HW212782   5.818   1.685   7.908
36984SOL     OW12783  12.130   0.397   2.404
36984SOL    HW112784  12.104   0.362   2.489
36984SOL    HW212785  12.133   0.492   2.417
36985SOL     OW12786   8.716   7.181   8.051
36985SOL    HW112787   8.748   7.112   7.993
36985SOL    HW212788   8.621   7.173   8.048
36986SOL     OW12789   6.784  10.029   5.398
36986SOL    HW112790   6.806   9.973   5.323
36986SOL    HW212791   6.789  10.118   5.363
36987SOL     OW12792   3.914  10.623  13.519
36987SOL    HW112793   3.946  10.629  13.609
36987SOL    HW212794   3.833  10.573  13.525
36988SOL     OW12795  14.114   3.596   1.803
36988SOL    HW112796  14.171   3.599   1.726
36988SOL    HW212797  14.091   3.688   1.819
36989SOL     OW12798   8.640   7.794  13.446
36989SOL    HW112799   8.593   7.738  13.509
36989SOL    HW212800   8.703   7.842  13.499
36990SOL     OW12801   6.004  11.987   3.548
36990SOL    HW112802   6.043  12.058   3.497
36990SOL    HW212803   5.974  12.030   3.629
36991SOL     OW12804  12.437   4.527   9.132
36991SOL    HW112805  12.532   4.527   9.121
36991SOL    HW212806  12.403   4.559   9.049
36992SOL     OW12807   3.801   3.957  13.773
36992SOL    HW112808   3.891   3.989  13.766
36992SOL    HW212809   3.753   4.028  13.815
36993SOL     OW12810   5.142   3.103   9.929
36993SOL    HW112811   5.180   3.137  10.010
36993SOL    HW212812   5.076   3.168   9.904
36994SOL     OW12813   3.005  13.232   7.237
36994SOL    HW112814   3.053  13.261   7.315
36994SOL    HW212815   3.049  13.151   7.211
36995SOL     OW12816  13.794   3.438   5.077
36995SOL    HW112817  13.780   3.522   5.122
36995SOL    HW212818  13.884   3.414   5.099
36996SOL     OW12819  11.058   2.440   6.198
36996SOL    HW112820  11.068   2.504   6.269
36996SOL    HW212821  10.979   2.391   6.221
36997SOL     OW12822  12.106   5.413  11.831
36997SOL    HW112823  12.086   5.495  11.877
36997SOL    HW212824  12.055   5.419  11.750
36998SOL     OW12825   8.450  14.774   8.791
36998SOL    HW112826   8.514  14.740   8.854
36998SOL    HW212827   8.399  14.697   8.766
36999SOL     OW12828  13.317  10.051   1.907
36999SOL    HW112829  13.280  10.075   1.822
36999SOL    HW212830  13.405  10.089   1.907
37000SOL     OW12831  13.957   7.186  12.410
37000SOL    HW112832  13.985   7.220  12.325
37000SOL    HW212833  13.895   7.116  12.389
37001SOL     OW12834  10.097   0.806   5.016
37001SOL    HW112835  10.126   0.861   5.088
37001SOL    HW212836  10.162   0.819   4.947
37002SOL     OW12837   0.800   4.042  12.458
37002SOL    HW112838   0.798   4.137  12.455
37002SOL    HW212839   0.776   4.014  12.370
37003SOL     OW12840  12.603   3.138   6.993
37003SOL    HW112841  12.580   3.155   7.085
37003SOL    HW212842  12.673   3.074   6.997
37004SOL     OW12843   6.610   9.486   7.429
37004SOL    HW112844   6.564   9.509   7.509
37004SOL    HW212845   6.568   9.537   7.360
37005SOL     OW12846  14.517   0.906  10.683
37005SOL    HW112847  14.447   0.843  10.696
37005SOL    HW212848  14.512   0.929  10.590
37006SOL     OW12849   1.757  13.582   8.596
37006SOL    HW112850   1.671  13.547   8.620
37006SOL    HW212851   1.813  13.561   8.671
37007SOL     OW12852   8.976   3.748   6.604
37007SOL    HW112853   8.904   3.760   6.542
37007SOL    HW212854   8.934   3.728   6.687
37008SOL     OW12855   5.315   3.020   8.255
37008SOL    HW112856   5.353   2.935   8.234
37008SOL    HW212857   5.361   3.049   8.333
37009SOL     OW12858  10.858   7.314  14.378
37009SOL    HW112859  10.794   7.273  14.320
37009SOL    HW212860  10.839   7.277  14.465
37010SOL     OW12861   7.416   1.957   0.366
37010SOL    HW112862   7.374   1.879   0.403
37010SOL    HW212863   7.407   2.024   0.433
37011SOL     OW12864   4.449   1.626  11.648
37011SOL    HW112865   4.396   1.559  11.605
37011SOL    HW212866   4.537   1.587  11.653
37012SOL     OW12867   6.727   7.486   7.035
37012SOL    HW112868   6.740   7.513   7.126
37012SOL    HW212869   6.647   7.531   7.007
37013SOL     OW12870  12.624   2.974   0.902
37013SOL    HW112871  12.635   3.066   0.926
37013SOL    HW212872  12.654   2.968   0.812
37014SOL     OW12873  13.089   9.750  12.041
37014SOL    HW112874  13.174   9.713  12.066
37014SOL    HW212875  13.029   9.675  12.046
37015SOL     OW12876   6.045   4.442   3.592
37015SOL    HW112877   5.963   4.396   3.605
37015SOL    HW212878   6.027   4.505   3.522
37016SOL     OW12879   0.444   1.953  14.021
37016SOL    HW112880   0.446   2.019  14.090
37016SOL    HW212881   0.524   1.902  14.035
37017SOL     OW12882  12.055   9.482  14.396
37017SOL    HW112883  12.028   9.568  14.429
37017SOL    HW212884  12.017   9.420  14.458
37018SOL     OW12885  11.840  11.652   8.583
37018SOL    HW112886  11.813  11.585   8.646
37018SOL    HW212887  11.769  11.653   8.518
37019SOL     OW12888   1.784  13.978  11.679
37019SOL    HW112889   1.853  13.943  11.623
37019SOL    HW212890   1.819  13.968  11.768
37020SOL     OW12891   9.165   8.529   3.717
37020SOL    HW112892   9.122   8.484   3.789
37020SOL    HW212893   9.237   8.471   3.691
37021SOL     OW12894  12.886   4.850  11.269
37021SOL    HW112895  12.868   4.868  11.177
37021SOL    HW212896  12.897   4.755  11.273
37022SOL     OW12897  10.951  10.055   7.382
37022SOL    HW112898  10.933  10.146   7.404
37022SOL    HW212899  10.869  10.022   7.346
37023SOL     OW12900   9.380  10.968   9.199
37023SOL    HW112901   9.407  11.012   9.118
37023SOL    HW212902   9.347  10.882   9.170
37024SOL     OW12903  12.874   9.427   6.359
37024SOL    HW112904  12.876   9.523   6.356
37024SOL    HW212905  12.787   9.404   6.325
37025SOL     OW12906   3.427   9.223  13.949
37025SOL    HW112907   3.513   9.181  13.959
37025SOL    HW212908   3.369   9.152  13.924
37026SOL     OW12909   6.454  14.611   0.988
37026SOL    HW112910   6.385  14.610   0.921
37026SOL    HW212911   6.407  14.599   1.071
37027SOL     OW12912   3.616   4.711   0.823
37027SOL    HW112913   3.584   4.621   0.822
37027SOL    HW212914   3.710   4.702   0.841
37028SOL     OW12915   3.818   8.171   2.514
37028SOL    HW112916   3.808   8.266   2.515
37028SOL    HW212917   3.910   8.158   2.492
37029SOL     OW12918  12.727   8.142   8.645
37029SOL    HW112919  12.699   8.051   8.656
37029SOL    HW212920  12.815   8.145   8.682
37030SOL     OW12921   9.609   1.761  13.654
37030SOL    HW112922   9.674   1.831  13.647
37030SOL    HW212923   9.607   1.722  13.567
37031SOL     OW12924   4.263  13.277  14.222
37031SOL    HW112925   4.311  13.266  14.304
37031SOL    HW212926   4.331  13.277  14.154
37032SOL     OW12927  13.234   8.371   7.466
37032SOL    HW112928  13.241   8.381   7.371
37032SOL    HW212929  13.170   8.302   7.478
37033SOL     OW12930   9.064   2.558   7.338
37033SOL    HW112931   9.002   2.581   7.408
37033SOL    HW212932   9.115   2.638   7.324
37034SOL     OW12933   5.289  10.673   8.890
37034SOL    HW112934   5.359  10.727   8.926
37034SOL    HW212935   5.335  10.603   8.843
37035SOL     OW12936  13.249  11.142  12.884
37035SOL    HW112937  13.289  11.229  12.876
37035SOL    HW212938  13.179  11.154  12.947
37036SOL     OW12939  14.592   3.264  12.249
37036SOL    HW112940  14.645   3.318  12.308
37036SOL    HW212941  14.620   3.290  12.161
37037SOL     OW12942   3.263   4.295   8.592
37037SOL    HW112943   3.241   4.203   8.583
37037SOL    HW212944   3.355   4.300   8.568
37038SOL     OW12945   4.741   2.059   2.872
37038SOL    HW112946   4.776   2.069   2.784
37038SOL    HW212947   4.647   2.072   2.863
37039SOL     OW12948   6.946  10.863   9.782
37039SOL    HW112949   6.909  10.902   9.703
37039SOL    HW212950   6.969  10.774   9.755
37040SOL     OW12951  12.098   9.851  10.312
37040SOL    HW112952  12.189   9.834  10.286
37040SOL    HW212953  12.079   9.783  10.377
37041SOL     OW12954  13.428   9.354  11.605
37041SOL    HW112955  13.380   9.272  11.589
37041SOL    HW212956  13.494   9.330  11.670
37042SOL     OW12957  14.562   2.770  12.293
37042SOL    HW112958  14.471   2.784  12.268
37042SOL    HW212959  14.559   2.704  12.362
37043SOL     OW12960   7.098   4.691  12.226
37043SOL    HW112961   7.026   4.639  12.260
37043SOL    HW212962   7.176   4.657  12.271
37044SOL     OW12963   5.095   1.487   0.828
37044SOL    HW112964   5.084   1.429   0.753
37044SOL    HW212965   5.010   1.531   0.837
37045SOL     OW12966  14.564   3.546   0.081
37045SOL    HW112967  14.482   3.496   0.085
37045SOL    HW212968  14.559   3.592  14.873
37046SOL     OW12969  11.542   9.013   5.208
37046SOL    HW112970  11.578   9.006   5.120
37046SOL    HW212971  11.454   8.977   5.202
37047SOL     OW12972  11.265   5.691   2.469
37047SOL    HW112973  11.215   5.759   2.423
37047SOL    HW212974  11.220   5.609   2.447
37048SOL     OW12975  11.889  14.578  11.165
37048SOL    HW112976  11.825  14.647  11.180
37048SOL    HW212977  11.867  14.544  11.078
37049SOL     OW12978   7.920   3.852   8.768
37049SOL    HW112979   7.973   3.792   8.716
37049SOL    HW212980   7.936   3.938   8.729
37050SOL     OW12981   0.190   8.196   1.871
37050SOL    HW112982   0.130   8.202   1.945
37050SOL    HW212983   0.152   8.255   1.805
37051SOL     OW12984  10.542   2.024   5.753
37051SOL    HW112985  10.577   1.956   5.695
37051SOL    HW212986  10.551   1.987   5.841
37052SOL     OW12987   8.166   9.040  12.402
37052SOL    HW112988   8.193   8.998  12.321
37052SOL    HW212989   8.202   9.128  12.397
37053SOL     OW12990   4.342  12.735   2.442
37053SOL    HW112991   4.385  12.665   2.392
37053SOL    HW212992   4.352  12.812   2.387
37054SOL     OW12993  12.692   0.823   7.380
37054SOL    HW112994  12.606   0.802   7.345
37054SOL    HW212995  12.686   0.913   7.410
37055SOL     OW12996   1.841   3.944   8.920
37055SOL    HW112997   1.803   3.959   9.006
37055SOL    HW212998   1.790   3.872   8.883
37056SOL     OW12999  10.676   0.438   6.583
37056SOL    HW113000  10.622   0.512   6.612
37056SOL    HW213001  10.753   0.441   6.640
37057SOL     OW13002  11.853   4.676   2.755
37057SOL    HW113003  11.813   4.597   2.719
37057SOL    HW213004  11.792   4.746   2.733
37058SOL     OW13005   3.234   2.718   2.176
37058SOL    HW113006   3.228   2.729   2.081
37058SOL    HW213007   3.144   2.724   2.207
37059SOL     OW13008  11.171  12.771  14.444
37059SOL    HW113009  11.075  12.776  14.445
37059SOL    HW213010  11.200  12.858  14.471
37060SOL     OW13011   9.947   9.262  13.756
37060SOL    HW113012  10.015   9.267  13.688
37060SOL    HW213013   9.867   9.288  13.712
37061SOL     OW13014  12.102  11.814   2.773
37061SOL    HW113015  12.016  11.844   2.746
37061SOL    HW213016  12.142  11.780   2.693
37062SOL     OW13017  10.627   4.403   8.443
37062SOL    HW113018  10.593   4.428   8.529
37062SOL    HW213019  10.655   4.313   8.453
37063SOL     OW13020   2.870   6.732   1.960
37063SOL    HW113021   2.955   6.703   1.993
37063SOL    HW213022   2.818   6.748   2.038
37064SOL     OW13023  10.077   3.931   5.872
37064SOL    HW113024  10.147   3.877   5.836
37064SOL    HW213025  10.042   3.979   5.797
37065SOL     OW13026  13.583   4.312   2.128
37065SOL    HW113027  13.530   4.319   2.207
37065SOL    HW213028  13.667   4.278   2.157
37066SOL     OW13029  12.702   0.620   4.100
37066SOL    HW113030  12.656   0.593   4.180
37066SOL    HW213031  12.648   0.690   4.063
37067SOL     OW13032   4.680  11.815   0.851
37067SOL    HW113033   4.617  11.771   0.794
37067SOL    HW213034   4.765  11.799   0.810
37068SOL     OW13035   3.102  14.077  13.978
37068SOL    HW113036   3.171  14.139  14.002
37068SOL    HW213037   3.046  14.072  14.055
37069SOL     OW13038   5.336   0.455   1.022
37069SOL    HW113039   5.266   0.508   1.059
37069SOL    HW213040   5.293   0.398   0.959
37070SOL     OW13041  10.791   4.438   4.904
37070SOL    HW113042  10.709   4.394   4.926
37070SOL    HW213043  10.820   4.478   4.986
37071SOL     OW13044   9.565   6.161  13.677
37071SOL    HW113045   9.647   6.169  13.627
37071SOL    HW213046   9.593   6.131  13.764
37072SOL     OW13047  13.520   4.526   6.811
37072SOL    HW113048  13.502   4.434   6.791
37072SOL    HW213049  13.434   4.567   6.811
37073SOL     OW13050   5.311  12.245  11.673
37073SOL    HW113051   5.403  12.255  11.647
37073SOL    HW213052   5.313  12.232  11.767
37074SOL     OW13053  11.315  13.826   9.835
37074SOL    HW113054  11.246  13.868   9.785
37074SOL    HW213055  11.273  13.800   9.917
37075SOL     OW13056   0.747   8.334   0.015
37075SOL    HW113057   0.788   8.329  14.804
37075SOL    HW213058   0.706   8.420   0.017
37076SOL     OW13059  11.681   2.218   8.975
37076SOL    HW113060  11.630   2.296   8.954
37076SOL    HW213061  11.700   2.225   9.068
37077SOL     OW13062   2.671  14.407  11.557
37077SOL    HW113063   2.617  14.479  11.588
37077SOL    HW213064   2.615  14.330  11.564
37078SOL     OW13065   8.219   4.808   7.830
37078SOL    HW113066   8.279   4.880   7.853
37078SOL    HW213067   8.198   4.823   7.738
37079SOL     OW13068   7.477   4.929   1.485
37079SOL    HW113069   7.400   4.933   1.429
37079SOL    HW213070   7.461   4.855   1.543
37080SOL     OW13071   5.779   7.997   4.133
37080SOL    HW113072   5.872   7.975   4.133
37080SOL    HW213073   5.777   8.089   4.105
37081SOL     OW13074  11.244   7.162   4.570
37081SOL    HW113075  11.198   7.176   4.488
37081SOL    HW213076  11.332   7.196   4.555
37082SOL     OW13077   1.201   6.065   8.553
37082SOL    HW113078   1.169   5.977   8.574
37082SOL    HW213079   1.294   6.053   8.533
37083SOL     OW13080   7.056  14.276  11.460
37083SOL    HW113081   7.019  14.271  11.372
37083SOL    HW213082   7.122  14.206  11.463
37084SOL     OW13083   8.463   1.040  13.406
37084SOL    HW113084   8.523   0.973  13.441
37084SOL    HW213085   8.474   1.115  13.465
37085SOL     OW13086   8.803  14.411   2.530
37085SOL    HW113087   8.733  14.476   2.527
37085SOL    HW213088   8.874  14.448   2.477
37086SOL     OW13089  14.251  12.427  14.652
37086SOL    HW113090  14.257  12.507  14.704
37086SOL    HW213091  14.307  12.365  14.698
37087SOL     OW13092   8.668   0.975   6.365
37087SOL    HW113093   8.706   0.988   6.278
37087SOL    HW213094   8.617   0.894   6.356
37088SOL     OW13095  10.423   5.995  10.612
37088SOL    HW113096  10.421   5.900  10.619
37088SOL    HW213097  10.362   6.015  10.541
37089SOL     OW13098   1.313   9.574   9.038
37089SOL    HW113099   1.280   9.544   8.954
37089SOL    HW213100   1.280   9.664   9.046
37090SOL     OW13101   9.249   6.322   0.699
37090SOL    HW113102   9.331   6.363   0.725
37090SOL    HW213103   9.183   6.361   0.756
37091SOL     OW13104   7.309   2.790   9.516
37091SOL    HW113105   7.266   2.874   9.501
37091SOL    HW213106   7.254   2.727   9.470
37092SOL     OW13107   0.131  13.910   3.490
37092SOL    HW113108   0.191  13.980   3.464
37092SOL    HW213109   0.053  13.955   3.522
37093SOL     OW13110  10.649  11.661   1.591
37093SOL    HW113111  10.565  11.707   1.589
37093SOL    HW213112  10.635  11.588   1.652
37094SOL     OW13113   7.175  14.589   5.149
37094SOL    HW113114   7.265  14.559   5.160
37094SOL    HW213115   7.144  14.544   5.070
37095SOL     OW13116   3.717   2.216   3.776
37095SOL    HW113117   3.665   2.162   3.835
37095SOL    HW213118   3.808   2.189   3.793
37096SOL     OW13119  11.454  12.574  11.288
37096SOL    HW113120  11.486  12.493  11.329
37096SOL    HW213121  11.466  12.641  11.356
37097SOL     OW13122   8.383  14.112   3.066
37097SOL    HW113123   8.330  14.174   3.117
37097SOL    HW213124   8.428  14.166   3.001
37098SOL     OW13125   5.700   0.472   3.572
37098SOL    HW113126   5.784   0.517   3.570
37098SOL    HW213127   5.709   0.401   3.508
37099SOL     OW13128   8.895   6.546   4.603
37099SOL    HW113129   8.963   6.478   4.602
37099SOL    HW213130   8.940   6.626   4.576
37100SOL     OW13131  10.280   3.663   8.911
37100SOL    HW113132  10.184   3.666   8.907
37100SOL    HW213133  10.300   3.576   8.947
37101SOL     OW13134   1.800  14.623   5.184
37101SOL    HW113135   1.872  14.618   5.247
37101SOL    HW213136   1.831  14.686   5.118
37102SOL     OW13137  14.290  11.770   0.627
37102SOL    HW113138  14.321  11.743   0.713
37102SOL    HW213139  14.197  11.788   0.639
37103SOL     OW13140  12.949  11.179   5.143
37103SOL    HW113141  13.017  11.205   5.081
37103SOL    HW213142  12.968  11.087   5.162
37104SOL     OW13143   2.136  12.094   7.803
37104SOL    HW113144   2.214  12.121   7.850
37104SOL    HW213145   2.094  12.176   7.777
37105SOL     OW13146   2.686  14.425   1.849
37105SOL    HW113147   2.662  14.431   1.756
37105SOL    HW213148   2.767  14.475   1.856
37106SOL     OW13149   6.302   8.062  11.205
37106SOL    HW113150   6.243   8.059  11.130
37106SOL    HW213151   6.356   7.984  11.196
37107SOL     OW13152  11.256   0.677   5.903
37107SOL    HW113153  11.169   0.694   5.941
37107SOL    HW213154  11.250   0.588   5.870
37108SOL     OW13155  13.845   3.778  12.970
37108SOL    HW113156  13.800   3.760  13.053
37108SOL    HW213157  13.781   3.756  12.903
37109SOL     OW13158   6.811   2.168  13.466
37109SOL    HW113159   6.720   2.196  13.460
37109SOL    HW213160   6.841   2.164  13.375
37110SOL     OW13161   1.201  13.594  11.235
37110SOL    HW113162   1.141  13.595  11.309
37110SOL    HW213163   1.203  13.685  11.204
37111SOL     OW13164   6.407   4.050  13.924
37111SOL    HW113165   6.388   3.960  13.951
37111SOL    HW213166   6.322   4.086  13.899
37112SOL     OW13167   0.584  13.275   9.497
37112SOL    HW113168   0.562  13.284   9.590
37112SOL    HW213169   0.671  13.235   9.497
37113SOL     OW13170   3.082   5.714   8.872
37113SOL    HW113171   3.142   5.785   8.850
37113SOL    HW213172   3.041   5.741   8.954
37114SOL     OW13173   8.939  13.700   5.800
37114SOL    HW113174   8.974  13.641   5.733
37114SOL    HW213175   8.902  13.773   5.750
37115SOL     OW13176   2.590  14.091   5.483
37115SOL    HW113177   2.584  14.187   5.483
37115SOL    HW213178   2.678  14.072   5.517
37116SOL     OW13179   4.249  12.145   5.769
37116SOL    HW113180   4.168  12.189   5.744
37116SOL    HW213181   4.221  12.056   5.795
37117SOL     OW13182   0.429   7.575  10.457
37117SOL    HW113183   0.449   7.669  10.457
37117SOL    HW213184   0.335   7.570  10.439
37118SOL     OW13185   1.961   7.777  14.866
37118SOL    HW113186   1.867   7.788  14.873
37118SOL    HW213187   1.977   7.688   0.021
37119SOL     OW13188   6.309   9.588   9.289
37119SOL    HW113189   6.383   9.528   9.277
37119SOL    HW213190   6.334   9.641   9.364
37120SOL     OW13191   9.169   6.664   4.297
37120SOL    HW113192   9.163   6.728   4.226
37120SOL    HW213193   9.258   6.630   4.291
37121SOL     OW13194  11.437   1.429   0.536
37121SOL    HW113195  11.430   1.524   0.520
37121SOL    HW213196  11.397   1.416   0.622
37122SOL     OW13197  13.943  12.779   0.799
37122SOL    HW113198  13.861  12.787   0.750
37122SOL    HW213199  13.918  12.791   0.890
37123SOL     OW13200   7.263   8.187  12.837
37123SOL    HW113201   7.311   8.105  12.827
37123SOL    HW213202   7.261   8.225  12.749
37124SOL     OW13203   4.513  13.315   6.464
37124SOL    HW113204   4.449  13.245   6.474
37124SOL    HW213205   4.593  13.280   6.502
37125SOL     OW13206   8.452  13.219   3.705
37125SOL    HW113207   8.408  13.174   3.778
37125SOL    HW213208   8.387  13.218   3.635
37126SOL     OW13209   7.911   6.869  13.591
37126SOL    HW113210   7.988   6.841  13.541
37126SOL    HW213211   7.929   6.960  13.613
37127SOL     OW13212  11.052   3.202   4.962
37127SOL    HW113213  10.958   3.183   4.952
37127SOL    HW213214  11.096   3.128   4.920
37128SOL     OW13215   2.821  11.413   6.968
37128SOL    HW113216   2.778  11.493   7.000
37128SOL    HW213217   2.750  11.350   6.960
37129SOL     OW13218  14.209   6.362   0.214
37129SOL    HW113219  14.203   6.330   0.304
37129SOL    HW213220  14.124   6.402   0.197
37130SOL     OW13221  13.541   8.593  14.569
37130SOL    HW113222  13.554   8.504  14.536
37130SOL    HW213223  13.565   8.587  14.662
37131SOL     OW13224  11.434   8.497  14.791
37131SOL    HW113225  11.498   8.551  14.745
37131SOL    HW213226  11.430   8.416  14.741
37132SOL     OW13227  14.289   0.580   4.214
37132SOL    HW113228  14.281   0.504   4.272
37132SOL    HW213229  14.335   0.645   4.268
37133SOL     OW13230   1.433   9.481  13.430
37133SOL    HW113231   1.508   9.540  13.418
37133SOL    HW213232   1.363   9.538  13.462
37134SOL     OW13233   3.798   5.457  13.925
37134SOL    HW113234   3.849   5.379  13.946
37134SOL    HW213235   3.854   5.506  13.864
37135SOL     OW13236  10.258   3.532   7.296
37135SOL    HW113237  10.280   3.440   7.308
37135SOL    HW213238  10.164   3.536   7.316
37136SOL     OW13239   5.926  13.172   4.836
37136SOL    HW113240   5.863  13.155   4.906
37136SOL    HW213241   5.911  13.102   4.773
37137SOL     OW13242   1.552   0.031   9.843
37137SOL    HW113243   1.614   0.068   9.906
37137SOL    HW213244   1.488   0.100   9.829
37138SOL     OW13245   0.449  14.009  14.157
37138SOL    HW113246   0.493  13.928  14.133
37138SOL    HW213247   0.517  14.076  14.153
37139SOL     OW13248   2.565   2.106   7.963
37139SOL    HW113249   2.604   2.028   7.924
37139SOL    HW213250   2.472   2.084   7.971
37140SOL     OW13251   4.570   1.313  12.055
37140SOL    HW113252   4.514   1.365  11.998
37140SOL    HW213253   4.614   1.251  11.997
37141SOL     OW13254  14.343   8.075   5.661
37141SOL    HW113255  14.344   8.027   5.578
37141SOL    HW213256  14.347   8.167   5.635
37142SOL     OW13257  10.560   8.399   3.501
37142SOL    HW113258  10.563   8.375   3.594
37142SOL    HW213259  10.635   8.457   3.489
37143SOL     OW13260  13.182  13.980   6.633
37143SOL    HW113261  13.196  13.914   6.701
37143SOL    HW213262  13.260  13.974   6.578
37144SOL     OW13263   9.575  10.369   2.358
37144SOL    HW113264   9.525  10.293   2.388
37144SOL    HW213265   9.601  10.347   2.269
37145SOL     OW13266   9.733   3.609   2.686
37145SOL    HW113267   9.702   3.664   2.614
37145SOL    HW213268   9.663   3.544   2.699
37146SOL     OW13269  11.770   6.805  12.611
37146SOL    HW113270  11.804   6.718  12.593
37146SOL    HW213271  11.678   6.791  12.636
37147SOL     OW13272   3.222  12.096   0.717
37147SOL    HW113273   3.244  12.012   0.678
37147SOL    HW213274   3.302  12.149   0.709
37148SOL     OW13275   4.943   0.737  12.082
37148SOL    HW113276   4.918   0.809  12.140
37148SOL    HW213277   5.039   0.732  12.089
37149SOL     OW13278  12.865   0.936   6.184
37149SOL    HW113279  12.809   1.012   6.174
37149SOL    HW213280  12.811   0.862   6.154
37150SOL     OW13281   7.317   3.216   9.156
37150SOL    HW113282   7.227   3.222   9.187
37150SOL    HW213283   7.330   3.294   9.102
37151SOL     OW13284   8.783  14.646   0.573
37151SOL    HW113285   8.737  14.580   0.521
37151SOL    HW213286   8.805  14.715   0.511
37152SOL     OW13287   5.537  10.233   6.343
37152SOL    HW113288   5.564  10.216   6.253
37152SOL    HW213289   5.600  10.184   6.396
37153SOL     OW13290   7.329  10.668   4.182
37153SOL    HW113291   7.275  10.740   4.149
37153SOL    HW213292   7.407  10.710   4.217
37154SOL     OW13293  10.048  11.237   6.292
37154SOL    HW113294  10.027  11.151   6.256
37154SOL    HW213295   9.971  11.290   6.272
37155SOL     OW13296   7.986  11.553  11.259
37155SOL    HW113297   7.950  11.536  11.172
37155SOL    HW213298   8.042  11.478  11.277
37156SOL     OW13299  11.459  12.126  11.914
37156SOL    HW113300  11.386  12.132  11.852
37156SOL    HW213301  11.442  12.196  11.978
37157SOL     OW13302  12.452   9.202  11.206
37157SOL    HW113303  12.402   9.237  11.279
37157SOL    HW213304  12.386   9.178  11.141
37158SOL     OW13305  10.997  14.614   0.676
37158SOL    HW113306  10.926  14.678   0.679
37158SOL    HW213307  11.034  14.625   0.588
37159SOL     OW13308   9.449   9.352   2.852
37159SOL    HW113309   9.428   9.269   2.810
37159SOL    HW213310   9.371   9.373   2.904
37160SOL     OW13311   0.299   7.580  11.363
37160SOL    HW113312   0.246   7.551  11.438
37160SOL    HW213313   0.246   7.558  11.287
37161SOL     OW13314   7.458   3.542  13.902
37161SOL    HW113315   7.542   3.573  13.869
37161SOL    HW213316   7.474   3.523  13.995
37162SOL     OW13317   2.732   6.888  13.597
37162SOL    HW113318   2.686   6.804  13.600
37162SOL    HW213319   2.820   6.866  13.566
37163SOL     OW13320   7.175   7.820   5.427
37163SOL    HW113321   7.104   7.791   5.485
37163SOL    HW213322   7.166   7.767   5.349
37164SOL     OW13323   0.014  12.796  14.706
37164SOL    HW113324  14.869  12.876  14.755
37164SOL    HW213325   0.032  12.826  14.617
37165SOL     OW13326   2.141   3.211   2.834
37165SOL    HW113327   2.134   3.306   2.826
37165SOL    HW213328   2.163   3.196   2.926
37166SOL     OW13329   2.356   0.776  13.272
37166SOL    HW113330   2.275   0.822  13.250
37166SOL    HW213331   2.348   0.692  13.226
37167SOL     OW13332  13.645  14.393  14.018
37167SOL    HW113333  13.607  14.369  14.103
37167SOL    HW213334  13.716  14.330  14.005
37168SOL     OW13335   2.023  10.054  11.707
37168SOL    HW113336   1.934  10.082  11.684
37168SOL    HW213337   2.021   9.959  11.696
37169SOL     OW13338   9.873  11.629  11.204
37169SOL    HW113339   9.934  11.564  11.239
37169SOL    HW213340   9.858  11.689  11.277
37170SOL     OW13341  11.658   2.144   5.569
37170SOL    HW113342  11.736   2.141   5.625
37170SOL    HW213343  11.633   2.053   5.559
37171SOL     OW13344   2.502   1.510   2.525
37171SOL    HW113345   2.506   1.493   2.431
37171SOL    HW213346   2.561   1.446   2.564
37172SOL     OW13347   9.444  13.867   8.394
37172SOL    HW113348   9.489  13.885   8.311
37172SOL    HW213349   9.397  13.785   8.379
37173SOL     OW13350   3.186   6.524  12.118
37173SOL    HW113351   3.272   6.553  12.148
37173SOL    HW213352   3.134   6.517  12.199
37174SOL     OW13353  12.180  11.783   9.020
37174SOL    HW113354  12.252  11.804   9.079
37174SOL    HW213355  12.180  11.855   8.956
37175SOL     OW13356   8.194  11.459  14.598
37175SOL    HW113357   8.282  11.423  14.603
37175SOL    HW213358   8.157  11.444  14.685
37176SOL     OW13359   1.853   5.794  13.282
37176SOL    HW113360   1.883   5.724  13.340
37176SOL    HW213361   1.927   5.811  13.224
37177SOL     OW13362   9.478   2.905   6.135
37177SOL    HW113363   9.389   2.940   6.140
37177SOL    HW213364   9.535   2.981   6.144
37178SOL     OW13365  10.124   7.539  10.730
37178SOL    HW113366  10.152   7.508  10.816
37178SOL    HW213367  10.029   7.547  10.738
37179SOL     OW13368   3.548   7.689   4.440
37179SOL    HW113369   3.626   7.743   4.428
37179SOL    HW213370   3.518   7.670   4.351
37180SOL     OW13371   9.398   8.806   3.298
37180SOL    HW113372   9.493   8.814   3.313
37180SOL    HW213373   9.389   8.798   3.203
37181SOL     OW13374   4.845   3.279  11.899
37181SOL    HW113375   4.873   3.297  11.810
37181SOL    HW213376   4.845   3.184  11.906
37182SOL     OW13377   6.469   8.032  13.663
37182SOL    HW113378   6.500   8.101  13.722
37182SOL    HW213379   6.414   8.077  13.600
37183SOL     OW13380   6.309   7.532  14.751
37183SOL    HW113381   6.379   7.576  14.799
37183SOL    HW213382   6.349   7.453  14.716
37184SOL     OW13383  13.419   8.703   9.110
37184SOL    HW113384  13.498   8.706   9.057
37184SOL    HW213385  13.371   8.783   9.089
37185SOL     OW13386  10.072  11.616  12.387
37185SOL    HW113387  10.107  11.560  12.456
37185SOL    HW213388   9.977  11.603  12.392
37186SOL     OW13389   9.010   6.879  10.020
37186SOL    HW113390   9.091   6.929  10.033
37186SOL    HW213391   8.977   6.862  10.108
37187SOL     OW13392  10.097   7.114  11.930
37187SOL    HW113393  10.093   7.121  12.025
37187SOL    HW213394  10.181   7.155  11.907
37188SOL     OW13395   5.410  12.316   3.040
37188SOL    HW113396   5.334  12.299   2.985
37188SOL    HW213397   5.382  12.386   3.099
37189SOL     OW13398   1.045  14.341   8.181
37189SOL    HW113399   1.090  14.282   8.121
37189SOL    HW213400   0.966  14.368   8.135
37190SOL     OW13401  10.053   7.985   6.448
37190SOL    HW113402  10.031   7.893   6.431
37190SOL    HW213403   9.985   8.015   6.508
37191SOL     OW13404   4.355  13.554   2.802
37191SOL    HW113405   4.382  13.511   2.721
37191SOL    HW213406   4.411  13.516   2.870
37192SOL     OW13407   1.790   5.602   4.913
37192SOL    HW113408   1.729   5.549   4.965
37192SOL    HW213409   1.739   5.679   4.887
37193SOL     OW13410  12.883   7.532   6.416
37193SOL    HW113411  12.943   7.601   6.389
37193SOL    HW213412  12.799   7.577   6.428
37194SOL     OW13413   1.841  13.354   8.390
37194SOL    HW113414   1.788  13.428   8.420
37194SOL    HW213415   1.927  13.392   8.373
37195SOL     OW13416  10.515  14.474   0.329
37195SOL    HW113417  10.425  14.504   0.318
37195SOL    HW213418  10.568  14.553   0.317
37196SOL     OW13419   0.014   1.039  11.739
37196SOL    HW113420   0.052   1.075  11.659
37196SOL    HW213421   0.069   0.962  11.759
37197SOL     OW13422   8.846   3.944   1.783
37197SOL    HW113423   8.751   3.931   1.780
37197SOL    HW213424   8.874   3.893   1.859
37198SOL     OW13425  11.493  14.663   3.704
37198SOL    HW113426  11.447  14.595   3.754
37198SOL    HW213427  11.528  14.721   3.771
37199SOL     OW13428  12.240   0.005   1.172
37199SOL    HW113429  12.178   0.079   1.174
37199SOL    HW213430  12.309   0.030   1.234
37200SOL     OW13431   8.308  11.254  12.932
37200SOL    HW113432   8.297  11.338  12.886
37200SOL    HW213433   8.224  11.210  12.922
37201SOL     OW13434  12.209   8.703   9.407
37201SOL    HW113435  12.144   8.733   9.345
37201SOL    HW213436  12.279   8.665   9.353
37202SOL     OW13437   7.486   0.126   7.551
37202SOL    HW113438   7.554   0.193   7.553
37202SOL    HW213439   7.468   0.108   7.643
37203SOL     OW13440  14.691  10.682   2.454
37203SOL    HW113441  14.610  10.632   2.447
37203SOL    HW213442  14.676  10.740   2.529
37204SOL     OW13443  14.459   1.549   3.455
37204SOL    HW113444  14.403   1.583   3.525
37204SOL    HW213445  14.530   1.505   3.500
37205SOL     OW13446   4.038   7.711   0.546
37205SOL    HW113447   3.992   7.632   0.519
37205SOL    HW213448   4.130   7.692   0.532
37206SOL     OW13449   7.430  13.808   8.410
37206SOL    HW113450   7.388  13.854   8.338
37206SOL    HW213451   7.413  13.862   8.487
37207SOL     OW13452  14.570   5.882   8.745
37207SOL    HW113453  14.598   5.957   8.692
37207SOL    HW213454  14.649   5.856   8.793
37208SOL     OW13455   3.704   1.499  11.015
37208SOL    HW113456   3.666   1.484  11.101
37208SOL    HW213457   3.751   1.582  11.023
37209SOL     OW13458  10.973   6.949  10.059
37209SOL    HW113459  10.901   7.012  10.051
37209SOL    HW213460  10.959   6.908  10.145
37210SOL     OW13461   9.456   2.063  10.059
37210SOL    HW113462   9.461   1.973  10.027
37210SOL    HW213463   9.502   2.115   9.994
37211SOL     OW13464  14.083   8.776   9.152
37211SOL    HW113465  14.052   8.692   9.119
37211SOL    HW213466  14.077   8.835   9.077
37212SOL     OW13467  13.216   6.070   9.642
37212SOL    HW113468  13.276   6.080   9.568
37212SOL    HW213469  13.271   6.035   9.713
37213SOL     OW13470   4.578   7.428   0.428
37213SOL    HW113471   4.652   7.488   0.437
37213SOL    HW213472   4.594   7.383   0.345
37214SOL     OW13473   3.351   9.133   7.390
37214SOL    HW113474   3.418   9.129   7.459
37214SOL    HW213475   3.336   9.041   7.366
37215SOL     OW13476   2.906   3.650  11.675
37215SOL    HW113477   2.983   3.694  11.639
37215SOL    HW213478   2.886   3.698  11.756
37216SOL     OW13479  12.155   4.053   4.156
37216SOL    HW113480  12.189   3.998   4.085
37216SOL    HW213481  12.122   3.990   4.221
37217SOL     OW13482  11.944   6.943   9.306
37217SOL    HW113483  11.921   6.867   9.360
37217SOL    HW213484  12.024   6.977   9.345
37218SOL     OW13485   2.616   0.876   9.086
37218SOL    HW113486   2.652   0.949   9.136
37218SOL    HW213487   2.686   0.852   9.025
37219SOL     OW13488   4.312   7.178   8.568
37219SOL    HW113489   4.311   7.084   8.550
37219SOL    HW213490   4.325   7.185   8.662
37220SOL     OW13491   4.326   7.881   2.517
37220SOL    HW113492   4.285   7.822   2.454
37220SOL    HW213493   4.280   7.964   2.507
37221SOL     OW13494   8.422   8.448  12.966
37221SOL    HW113495   8.418   8.368  13.019
37221SOL    HW213496   8.401   8.419  12.877
37222SOL     OW13497  13.031  14.841   7.991
37222SOL    HW113498  12.981  14.848   8.072
37222SOL    HW213499  13.110   0.018   8.006
37223SOL     OW13500  11.340  12.504   1.872
37223SOL    HW113501  11.419  12.506   1.818
37223SOL    HW213502  11.318  12.596   1.885
37224SOL     OW13503   4.570   6.787   0.812
37224SOL    HW113504   4.488   6.759   0.853
37224SOL    HW213505   4.587   6.874   0.848
37225SOL     OW13506   0.471  11.125   1.940
37225SOL    HW113507   0.558  11.092   1.965
37225SOL    HW213508   0.440  11.173   2.016
37226SOL     OW13509   6.792  12.202   5.602
37226SOL    HW113510   6.866  12.237   5.651
37226SOL    HW213511   6.783  12.262   5.528
37227SOL     OW13512   9.820  10.999   6.457
37227SOL    HW113513   9.872  10.977   6.380
37227SOL    HW213514   9.825  10.920   6.512
37228SOL     OW13515  14.487   2.388   4.913
37228SOL    HW113516  14.420   2.395   4.981
37228SOL    HW213517  14.505   2.294   4.908
37229SOL     OW13518   5.783   1.965   4.761
37229SOL    HW113519   5.766   2.044   4.710
37229SOL    HW213520   5.875   1.945   4.744
37230SOL     OW13521   2.038   1.717  10.227
37230SOL    HW113522   2.049   1.662  10.150
37230SOL    HW213523   1.972   1.672  10.280
37231SOL     OW13524   0.991  11.382   6.246
37231SOL    HW113525   0.961  11.292   6.261
37231SOL    HW213526   1.006  11.387   6.152
37232SOL     OW13527   3.684   2.223  11.871
37232SOL    HW113528   3.767   2.265  11.851
37232SOL    HW213529   3.621   2.296  11.877
37233SOL     OW13530   3.081   4.952   2.480
37233SOL    HW113531   2.995   4.970   2.517
37233SOL    HW213532   3.064   4.939   2.386
37234SOL     OW13533   5.804   6.735   9.313
37234SOL    HW113534   5.880   6.772   9.358
37234SOL    HW213535   5.826   6.642   9.303
37235SOL     OW13536  10.015  13.751   5.411
37235SOL    HW113537   9.934  13.762   5.361
37235SOL    HW213538   9.997  13.790   5.496
37236SOL     OW13539  11.001   3.959   3.945
37236SOL    HW113540  11.042   3.923   4.023
37236SOL    HW213541  10.936   4.021   3.979
37237SOL     OW13542  13.814   5.899   0.853
37237SOL    HW113543  13.895   5.927   0.810
37237SOL    HW213544  13.786   5.975   0.903
37238SOL     OW13545   1.610   9.774   0.702
37238SOL    HW113546   1.592   9.711   0.772
37238SOL    HW213547   1.623   9.719   0.624
37239SOL     OW13548  10.419  12.027  11.387
37239SOL    HW113549  10.367  12.007  11.465
37239SOL    HW213550  10.499  12.067  11.421
37240SOL     OW13551  14.197   1.993   3.620
37240SOL    HW113552  14.232   2.056   3.683
37240SOL    HW213553  14.153   1.927   3.675
37241SOL     OW13554  11.892  13.404   7.606
37241SOL    HW113555  11.905  13.325   7.657
37241SOL    HW213556  11.801  13.429   7.623
37242SOL     OW13557  10.819   7.387   1.129
37242SOL    HW113558  10.864   7.369   1.212
37242SOL    HW213559  10.767   7.465   1.147
37243SOL     OW13560   5.578  13.559   6.924
37243SOL    HW113561   5.483  13.561   6.933
37243SOL    HW213562   5.603  13.648   6.900
37244SOL     OW13563   4.832   4.270  10.612
37244SOL    HW113564   4.741   4.291  10.595
37244SOL    HW213565   4.832   4.232  10.700
37245SOL     OW13566   1.896   8.385  12.622
37245SOL    HW113567   1.841   8.373  12.699
37245SOL    HW213568   1.865   8.319  12.560
37246SOL     OW13569  10.891  11.831  10.721
37246SOL    HW113570  10.964  11.884  10.689
37246SOL    HW213571  10.922  11.795  10.804
37247SOL     OW13572   1.851   6.650   7.819
37247SOL    HW113573   1.847   6.575   7.760
37247SOL    HW213574   1.940   6.683   7.811
37248SOL     OW13575  14.067  14.437   8.958
37248SOL    HW113576  14.046  14.496   9.031
37248SOL    HW213577  13.987  14.437   8.905
37249SOL     OW13578   9.274   5.543   2.347
37249SOL    HW113579   9.190   5.536   2.392
37249SOL    HW213580   9.339   5.546   2.417
37250SOL     OW13581   4.587   3.127   1.938
37250SOL    HW113582   4.553   3.039   1.955
37250SOL    HW213583   4.605   3.129   1.844
37251SOL     OW13584  11.242  14.493  11.762
37251SOL    HW113585  11.207  14.506  11.850
37251SOL    HW213586  11.204  14.410  11.734
37252SOL     OW13587  14.614   8.989  13.807
37252SOL    HW113588  14.643   8.903  13.776
37252SOL    HW213589  14.574   9.030  13.730
37253SOL     OW13590  11.008   8.757  10.004
37253SOL    HW113591  11.044   8.789  10.086
37253SOL    HW213592  10.948   8.687  10.029
37254SOL     OW13593   7.922   9.235  12.531
37254SOL    HW113594   7.980   9.161  12.512
37254SOL    HW213595   7.899   9.225  12.624
37255SOL     OW13596   9.674   1.244   8.690
37255SOL    HW113597   9.702   1.334   8.704
37255SOL    HW213598   9.721   1.215   8.612
37256SOL     OW13599   1.203  14.331   2.202
37256SOL    HW113600   1.126  14.388   2.199
37256SOL    HW213601   1.176  14.253   2.154
37257SOL     OW13602  12.375   1.654   4.956
37257SOL    HW113603  12.302   1.710   4.983
37257SOL    HW213604  12.444   1.715   4.930
37258SOL     OW13605   3.974   4.302  12.371
37258SOL    HW113606   4.005   4.230  12.426
37258SOL    HW213607   3.916   4.352  12.429
37259SOL     OW13608  14.479   3.145   8.240
37259SOL    HW113609  14.479   3.115   8.149
37259SOL    HW213610  14.541   3.218   8.241
37260SOL     OW13611   0.174   4.546   2.102
37260SOL    HW113612   0.138   4.618   2.154
37260SOL    HW213613   0.175   4.580   2.012
37261SOL     OW13614   7.134   4.246   6.187
37261SOL    HW113615   7.132   4.172   6.126
37261SOL    HW213616   7.125   4.205   6.274
37262SOL     OW13617   4.701   1.947   1.900
37262SOL    HW113618   4.722   1.948   1.994
37262SOL    HW213619   4.744   2.025   1.865
37263SOL     OW13620   1.387   7.962   0.753
37263SOL    HW113621   1.351   7.946   0.666
37263SOL    HW213622   1.432   8.046   0.745
37264SOL     OW13623  12.980   3.669   2.452
37264SOL    HW113624  12.901   3.667   2.507
37264SOL    HW213625  13.025   3.750   2.478
37265SOL     OW13626   9.833   7.431   5.481
37265SOL    HW113627   9.748   7.438   5.437
37265SOL    HW213628   9.888   7.384   5.419
37266SOL     OW13629  14.792  10.995   4.749
37266SOL    HW113630  14.704  10.959   4.756
37266SOL    HW213631  14.827  10.958   4.668
37267SOL     OW13632   1.594   5.522   5.097
37267SOL    HW113633   1.564   5.612   5.083
37267SOL    HW213634   1.530   5.484   5.156
37268SOL     OW13635   4.438   2.406   9.872
37268SOL    HW113636   4.428   2.492   9.832
37268SOL    HW213637   4.391   2.347   9.813
37269SOL     OW13638  11.184   9.109  10.052
37269SOL    HW113639  11.275   9.137  10.063
37269SOL    HW213640  11.154   9.090  10.140
37270SOL     OW13641   7.541  13.409   3.024
37270SOL    HW113642   7.479  13.439   2.958
37270SOL    HW213643   7.489  13.357   3.085
37271SOL     OW13644   1.971   0.596   4.433
37271SOL    HW113645   1.929   0.569   4.515
37271SOL    HW213646   2.062   0.569   4.444
37272SOL     OW13647   3.292  12.138   8.485
37272SOL    HW113648   3.261  12.088   8.560
37272SOL    HW213649   3.223  12.131   8.420
37273SOL     OW13650   7.054   5.566   1.489
37273SOL    HW113651   6.990   5.633   1.510
37273SOL    HW213652   7.004   5.497   1.446
37274SOL     OW13653   4.830   0.222  12.783
37274SOL    HW113654   4.779   0.142  12.777
37274SOL    HW213655   4.914   0.200  12.742
37275SOL     OW13656   2.650  13.828  11.115
37275SOL    HW113657   2.724  13.852  11.059
37275SOL    HW213658   2.575  13.874  11.078
37276SOL     OW13659   5.004   5.672   4.497
37276SOL    HW113660   4.966   5.727   4.428
37276SOL    HW213661   4.946   5.596   4.502
37277SOL     OW13662  14.195   8.351  13.352
37277SOL    HW113663  14.181   8.256  13.356
37277SOL    HW213664  14.281   8.360  13.311
37278SOL     OW13665   7.813   0.705   8.312
37278SOL    HW113666   7.755   0.776   8.288
37278SOL    HW213667   7.830   0.717   8.405
37279SOL     OW13668   0.153   6.588  10.497
37279SOL    HW113669   0.235   6.549  10.528
37279SOL    HW213670   0.086   6.522  10.517
37280SOL     OW13671   7.132  12.865   8.203
37280SOL    HW113672   7.185  12.859   8.282
37280SOL    HW213673   7.165  12.942   8.157
37281SOL     OW13674  10.911  11.674  11.043
37281SOL    HW113675  10.975  11.727  11.092
37281SOL    HW213676  10.826  11.702  11.077
37282SOL     OW13677   9.783   1.332  11.417
37282SOL    HW113678   9.858   1.347  11.473
37282SOL    HW213679   9.717   1.395  11.447
37283SOL     OW13680   1.298  13.596   7.448
37283SOL    HW113681   1.275  13.504   7.433
37283SOL    HW213682   1.351  13.594   7.528
37284SOL     OW13683   9.272   5.154   8.459
37284SOL    HW113684   9.338   5.209   8.503
37284SOL    HW213685   9.267   5.190   8.371
37285SOL     OW13686   8.549  10.703  13.514
37285SOL    HW113687   8.563  10.611  13.540
37285SOL    HW213688   8.478  10.733  13.572
37286SOL     OW13689   8.408   4.514   0.796
37286SOL    HW113690   8.424   4.499   0.703
37286SOL    HW213691   8.328   4.465   0.815
37287SOL     OW13692   9.788   1.777   9.865
37287SOL    HW113693   9.870   1.753   9.908
37287SOL    HW213694   9.776   1.712   9.796
37288SOL     OW13695   0.054   5.113  12.852
37288SOL    HW113696   0.127   5.061  12.818
37288SOL    HW213697   0.094   5.169  12.918
37289SOL     OW13698   4.973   4.528   1.643
37289SOL    HW113699   5.013   4.611   1.618
37289SOL    HW213700   4.885   4.531   1.607
37290SOL     OW13701   7.777   8.403   6.787
37290SOL    HW113702   7.811   8.326   6.741
37290SOL    HW213703   7.853   8.459   6.800
37291SOL     OW13704  11.406   9.922  11.134
37291SOL    HW113705  11.490   9.962  11.153
37291SOL    HW213706  11.371   9.895  11.219
37292SOL     OW13707   3.315   4.210  14.408
37292SOL    HW113708   3.401   4.234  14.443
37292SOL    HW213709   3.313   4.251  14.321
37293SOL     OW13710   0.795  13.685   0.449
37293SOL    HW113711   0.826  13.653   0.534
37293SOL    HW213712   0.872  13.684   0.393
37294SOL     OW13713   7.915   1.715  12.827
37294SOL    HW113714   7.913   1.624  12.799
37294SOL    HW213715   7.835   1.753  12.788
37295SOL     OW13716  13.452   6.672   6.545
37295SOL    HW113717  13.399   6.594   6.563
37295SOL    HW213718  13.486   6.698   6.631
37296SOL     OW13719   2.011  12.873   7.969
37296SOL    HW113720   2.102  12.844   7.973
37296SOL    HW213721   2.006  12.942   8.034
37297SOL     OW13722  11.454  12.742   3.221
37297SOL    HW113723  11.435  12.835   3.235
37297SOL    HW213724  11.478  12.709   3.307
37298SOL     OW13725  12.959  12.550   4.430
37298SOL    HW113726  12.994  12.516   4.348
37298SOL    HW213727  13.026  12.609   4.463
37299SOL     OW13728  10.139   0.844   9.731
37299SOL    HW113729  10.174   0.780   9.793
37299SOL    HW213730  10.058   0.805   9.699
37300SOL     OW13731   8.247   0.375  10.027
37300SOL    HW113732   8.231   0.465   9.996
37300SOL    HW213733   8.178   0.359  10.091
37301SOL     OW13734  10.222   0.063   1.709
37301SOL    HW113735  10.312   0.046   1.739
37301SOL    HW213736  10.208   0.156   1.728
37302SOL     OW13737  11.948  11.530   7.758
37302SOL    HW113738  12.033  11.545   7.800
37302SOL    HW213739  11.919  11.617   7.731
37303SOL     OW13740  12.949   9.790  13.377
37303SOL    HW113741  13.013   9.839  13.326
37303SOL    HW213742  12.864   9.821  13.345
37304SOL     OW13743   5.327   2.105  14.340
37304SOL    HW113744   5.371   2.105  14.425
37304SOL    HW213745   5.292   2.194  14.331
37305SOL     OW13746  13.921   0.504  14.252
37305SOL    HW113747  13.979   0.505  14.177
37305SOL    HW213748  13.906   0.596  14.272
37306SOL     OW13749   4.147   2.816  14.184
37306SOL    HW113750   4.167   2.734  14.228
37306SOL    HW213751   4.163   2.799  14.092
37307SOL     OW13752   6.014   5.648   5.178
37307SOL    HW113753   6.038   5.644   5.086
37307SOL    HW213754   6.009   5.741   5.198
37308SOL     OW13755   1.827  10.797  14.691
37308SOL    HW113756   1.757  10.839  14.641
37308SOL    HW213757   1.893  10.773  14.626
37309SOL     OW13758   5.453   9.336  14.253
37309SOL    HW113759   5.542   9.326  14.220
37309SOL    HW213760   5.401   9.359  14.176
37310SOL     OW13761   5.848  11.332   6.676
37310SOL    HW113762   5.880  11.243   6.661
37310SOL    HW213763   5.809  11.329   6.764
37311SOL     OW13764   1.387   4.415   5.688
37311SOL    HW113765   1.459   4.468   5.722
37311SOL    HW213766   1.315   4.431   5.750
37312SOL     OW13767   0.474   2.050   3.823
37312SOL    HW113768   0.386   2.011   3.815
37312SOL    HW213769   0.533   1.975   3.823
37313SOL     OW13770  12.968   1.592  13.377
37313SOL    HW113771  12.912   1.656  13.333
37313SOL    HW213772  12.957   1.611  13.471
37314SOL     OW13773   5.851   6.084   9.838
37314SOL    HW113774   5.784   6.117   9.779
37314SOL    HW213775   5.892   6.163   9.874
37315SOL     OW13776  11.087   5.592  13.425
37315SOL    HW113777  11.156   5.527  13.414
37315SOL    HW213778  11.045   5.568  13.508
37316SOL     OW13779  11.898  13.722   9.818
37316SOL    HW113780  11.916  13.700   9.910
37316SOL    HW213781  11.936  13.809   9.806
37317SOL     OW13782   3.980   8.558  13.043
37317SOL    HW113783   3.990   8.464  13.034
37317SOL    HW213784   3.925   8.569  13.121
37318SOL     OW13785   5.178  14.305  14.731
37318SOL    HW113786   5.130  14.375  14.685
37318SOL    HW213787   5.110  14.249  14.767
37319SOL     OW13788   0.705  11.236  13.369
37319SOL    HW113789   0.786  11.286  13.360
37319SOL    HW213790   0.697  11.221  13.463
37320SOL     OW13791  10.508  10.800   0.748
37320SOL    HW113792  10.461  10.860   0.806
37320SOL    HW213793  10.587  10.847   0.723
37321SOL     OW13794   6.678  10.825   6.920
37321SOL    HW113795   6.655  10.918   6.914
37321SOL    HW213796   6.772  10.825   6.935
37322SOL     OW13797   4.705   3.463  13.819
37322SOL    HW113798   4.776   3.509  13.864
37322SOL    HW213799   4.643   3.440  13.889
37323SOL     OW13800  12.945   1.828   7.755
37323SOL    HW113801  13.016   1.867   7.704
37323SOL    HW213802  12.899   1.772   7.693
37324SOL     OW13803  11.321   9.761   7.476
37324SOL    HW113804  11.390   9.816   7.441
37324SOL    HW213805  11.259   9.750   7.404
37325SOL     OW13806   1.921   8.061  14.145
37325SOL    HW113807   1.985   7.990  14.140
37325SOL    HW213808   1.926   8.093  14.235
37326SOL     OW13809   5.767   0.960  14.576
37326SOL    HW113810   5.760   0.871  14.610
37326SOL    HW213811   5.809   1.009  14.647
37327SOL     OW13812  11.547   7.757   3.821
37327SOL    HW113813  11.491   7.832   3.799
37327SOL    HW213814  11.634   7.781   3.789
37328SOL     OW13815   6.801   9.580   9.269
37328SOL    HW113816   6.857   9.657   9.274
37328SOL    HW213817   6.765   9.571   9.357
37329SOL     OW13818   4.175  11.915   9.955
37329SOL    HW113819   4.260  11.902   9.997
37329SOL    HW213820   4.113  11.921  10.028
37330SOL     OW13821  10.943   2.800   7.817
37330SOL    HW113822  10.894   2.764   7.743
37330SOL    HW213823  10.982   2.724   7.860
37331SOL     OW13824   3.913  13.899   4.718
37331SOL    HW113825   3.868  13.815   4.710
37331SOL    HW213826   4.005  13.876   4.730
37332SOL     OW13827  10.884   4.813   1.980
37332SOL    HW113828  10.842   4.839   1.899
37332SOL    HW213829  10.851   4.724   1.997
37333SOL     OW13830   2.773   4.711   9.443
37333SOL    HW113831   2.810   4.785   9.395
37333SOL    HW213832   2.787   4.733   9.535
37334SOL     OW13833   7.848  14.450   4.993
37334SOL    HW113834   7.831  14.541   4.968
37334SOL    HW213835   7.942  14.446   5.008
37335SOL     OW13836  13.133   6.523   7.733
37335SOL    HW113837  13.103   6.611   7.755
37335SOL    HW213838  13.206   6.536   7.672
37336SOL     OW13839  12.303   3.655  12.980
37336SOL    HW113840  12.233   3.698  12.931
37336SOL    HW213841  12.333   3.585  12.922
37337SOL     OW13842  10.243   6.739  11.401
37337SOL    HW113843  10.178   6.795  11.444
37337SOL    HW213844  10.237   6.762  11.308
37338SOL     OW13845  11.755   1.686   5.212
37338SOL    HW113846  11.755   1.592   5.229
37338SOL    HW213847  11.838   1.717   5.248
37339SOL     OW13848   0.608   3.388   8.299
37339SOL    HW113849   0.524   3.435   8.298
37339SOL    HW213850   0.591   3.309   8.350
37340SOL     OW13851   6.083   1.079  13.339
37340SOL    HW113852   6.010   1.082  13.401
37340SOL    HW213853   6.053   1.018  13.271
37341SOL     OW13854   5.171   6.459   5.089
37341SOL    HW113855   5.247   6.415   5.051
37341SOL    HW213856   5.185   6.454   5.184
37342SOL     OW13857   1.462   2.375   2.220
37342SOL    HW113858   1.459   2.470   2.216
37342SOL    HW213859   1.516   2.350   2.144
37343SOL     OW13860  11.961  13.868  10.846
37343SOL    HW113861  11.980  13.780  10.812
37343SOL    HW213862  11.962  13.925  10.769
37344SOL     OW13863   4.380  12.895  13.554
37344SOL    HW113864   4.432  12.889  13.634
37344SOL    HW213865   4.370  12.989  13.539
37345SOL     OW13866   0.307   7.878  11.394
37345SOL    HW113867   0.352   7.878  11.478
37345SOL    HW213868   0.349   7.808  11.343
37346SOL     OW13869   6.420   3.809   2.381
37346SOL    HW113870   6.496   3.754   2.363
37346SOL    HW213871   6.345   3.751   2.368
37347SOL     OW13872   9.205  11.308  12.758
37347SOL    HW113873   9.147  11.298  12.833
37347SOL    HW213874   9.182  11.235  12.700
37348SOL     OW13875  12.931   7.702  12.636
37348SOL    HW113876  12.835   7.697  12.636
37348SOL    HW213877  12.951   7.775  12.695
37349SOL     OW13878  13.325   3.918  14.271
37349SOL    HW113879  13.255   3.984  14.278
37349SOL    HW213880  13.318   3.867  14.352
37350SOL     OW13881   7.152  10.121   7.130
37350SOL    HW113882   7.181  10.032   7.150
37350SOL    HW213883   7.134  10.160   7.215
37351SOL     OW13884   1.869  13.578   8.126
37351SOL    HW113885   1.847  13.485   8.117
37351SOL    HW213886   1.792  13.624   8.094
37352SOL     OW13887  10.657  11.769  11.139
37352SOL    HW113888  10.629  11.755  11.230
37352SOL    HW213889  10.595  11.718  11.087
37353SOL     OW13890  14.063   3.987   1.484
37353SOL    HW113891  14.125   3.934   1.434
37353SOL    HW213892  14.077   4.076   1.452
37354SOL     OW13893   0.179   9.589   4.752
37354SOL    HW113894   0.270   9.599   4.778
37354SOL    HW213895   0.141   9.531   4.818
37355SOL     OW13896   9.348   7.459   7.523
37355SOL    HW113897   9.422   7.413   7.484
37355SOL    HW213898   9.381   7.494   7.605
37356SOL     OW13899   3.011   3.933   4.067
37356SOL    HW113900   2.960   4.014   4.064
37356SOL    HW213901   2.952   3.867   4.029
37357SOL     OW13902   4.128  12.893   7.074
37357SOL    HW113903   4.183  12.852   7.141
37357SOL    HW213904   4.068  12.823   7.046
37358SOL     OW13905   7.899  12.002   6.719
37358SOL    HW113906   7.859  11.916   6.706
37358SOL    HW213907   7.888  12.019   6.813
37359SOL     OW13908  10.742   0.776   4.828
37359SOL    HW113909  10.685   0.791   4.903
37359SOL    HW213910  10.770   0.685   4.836
37360SOL     OW13911   3.810  14.779  13.924
37360SOL    HW113912   3.903  14.778  13.948
37360SOL    HW213913   3.792  14.690  13.894
37361SOL     OW13914   3.566   9.965   2.441
37361SOL    HW113915   3.608   9.880   2.437
37361SOL    HW213916   3.608  10.017   2.372
37362SOL     OW13917  13.765   0.592   3.374
37362SOL    HW113918  13.834   0.527   3.388
37362SOL    HW213919  13.757   0.598   3.279
37363SOL     OW13920   2.582   7.184   9.125
37363SOL    HW113921   2.547   7.266   9.091
37363SOL    HW213922   2.564   7.188   9.219
37364SOL     OW13923  11.964   7.236  11.442
37364SOL    HW113924  11.963   7.264  11.350
37364SOL    HW213925  12.057   7.219  11.460
37365SOL     OW13926   6.156   5.473   0.260
37365SOL    HW113927   6.100   5.455   0.184
37365SOL    HW213928   6.202   5.554   0.237
37366SOL     OW13929   7.637   0.099   1.545
37366SOL    HW113930   7.579   0.146   1.484
37366SOL    HW213931   7.711   0.071   1.491
37367SOL     OW13932   6.763  10.834   5.900
37367SOL    HW113933   6.720  10.756   5.863
37367SOL    HW213934   6.692  10.897   5.911
37368SOL     OW13935   2.922   0.469  12.373
37368SOL    HW113936   2.950   0.431  12.290
37368SOL    HW213937   2.827   0.472  12.367
37369SOL     OW13938  11.222  10.547   7.698
37369SOL    HW113939  11.233  10.500   7.780
37369SOL    HW213940  11.157  10.615   7.716
37370SOL     OW13941  14.333   9.901  13.552
37370SOL    HW113942  14.301   9.861  13.634
37370SOL    HW213943  14.268   9.875  13.486
37371SOL     OW13944   6.299  11.426  14.862
37371SOL    HW113945   6.321  11.392  14.775
37371SOL    HW213946   6.366  11.390   0.044
37372SOL     OW13947   3.918   1.802   4.004
37372SOL    HW113948   3.992   1.760   3.960
37372SOL    HW213949   3.874   1.730   4.051
37373SOL     OW13950  14.162   8.093  12.613
37373SOL    HW113951  14.075   8.087  12.652
37373SOL    HW213952  14.210   8.155  12.669
37374SOL     OW13953   1.437  13.424  12.021
37374SOL    HW113954   1.399  13.472  11.948
37374SOL    HW213955   1.516  13.473  12.043
37375SOL     OW13956  14.151   9.342   7.311
37375SOL    HW113957  14.078   9.383   7.357
37375SOL    HW213958  14.193   9.414   7.264
37376SOL     OW13959   7.059   2.004  10.825
37376SOL    HW113960   6.969   2.013  10.795
37376SOL    HW213961   7.112   2.034  10.752
37377SOL     OW13962  12.400  12.663   8.901
37377SOL    HW113963  12.368  12.726   8.966
37377SOL    HW213964  12.355  12.581   8.924
37378SOL     OW13965   9.819  13.820  11.650
37378SOL    HW113966   9.726  13.799  11.641
37378SOL    HW213967   9.864  13.749  11.605
37379SOL     OW13968   9.591   8.695   4.493
37379SOL    HW113969   9.621   8.622   4.439
37379SOL    HW213970   9.536   8.654   4.560
37380SOL     OW13971   3.657   1.338  10.058
37380SOL    HW113972   3.613   1.274  10.113
37380SOL    HW213973   3.614   1.330   9.973
37381SOL     OW13974  14.736  14.218   2.697
37381SOL    HW113975  14.673  14.187   2.632
37381SOL    HW213976  14.819  14.178   2.671
37382SOL     OW13977   5.317   5.502   5.806
37382SOL    HW113978   5.227   5.491   5.775
37382SOL    HW213979   5.313   5.476   5.898
37383SOL     OW13980  10.416   4.438   2.378
37383SOL    HW113981  10.428   4.485   2.460
37383SOL    HW213982  10.321   4.436   2.366
37384SOL     OW13983   8.063   3.386  12.672
37384SOL    HW113984   8.122   3.338  12.613
37384SOL    HW213985   8.091   3.477  12.664
37385SOL     OW13986   8.028  11.406   6.601
37385SOL    HW113987   8.108  11.459   6.610
37385SOL    HW213988   7.971  11.459   6.546
37386SOL     OW13989   3.614   1.648  13.602
37386SOL    HW113990   3.592   1.697  13.522
37386SOL    HW213991   3.557   1.686  13.669
37387SOL     OW13992   4.105   1.450  14.395
37387SOL    HW113993   4.104   1.534  14.442
37387SOL    HW213994   4.183   1.405  14.427
37388SOL     OW13995  14.085   7.528  12.016
37388SOL    HW113996  14.005   7.521  12.068
37388SOL    HW213997  14.127   7.609  12.047
37389SOL     OW13998   8.206   6.268   8.193
37389SOL    HW113999   8.204   6.196   8.256
37389SOL    HW214000   8.300   6.285   8.181
37390SOL     OW14001  10.859   3.555   8.842
37390SOL    HW114002  10.905   3.639   8.841
37390SOL    HW214003  10.890   3.510   8.764
37391SOL     OW14004   4.236   2.265   1.766
37391SOL    HW114005   4.231   2.261   1.862
37391SOL    HW214006   4.154   2.225   1.737
37392SOL     OW14007   0.916   1.662   5.223
37392SOL    HW114008   0.934   1.569   5.231
37392SOL    HW214009   0.946   1.686   5.135
37393SOL     OW14010   7.950   0.239   1.083
37393SOL    HW114011   7.997   0.157   1.074
37393SOL    HW214012   7.905   0.250   0.999
37394SOL     OW14013   5.943   9.190  10.508
37394SOL    HW114014   5.942   9.284  10.492
37394SOL    HW214015   5.854   9.161  10.486
37395SOL     OW14016   5.438  14.185   5.643
37395SOL    HW114017   5.529  14.159   5.628
37395SOL    HW214018   5.417  14.240   5.568
37396SOL     OW14019  11.397   7.958   6.929
37396SOL    HW114020  11.355   7.882   6.970
37396SOL    HW214021  11.433   7.924   6.847
37397SOL     OW14022  13.056   8.707   4.582
37397SOL    HW114023  13.081   8.662   4.502
37397SOL    HW214024  13.136   8.711   4.634
37398SOL     OW14025   2.936   8.387  13.624
37398SOL    HW114026   2.934   8.403  13.530
37398SOL    HW214027   2.978   8.302  13.633
37399SOL     OW14028  10.611  12.008   8.631
37399SOL    HW114029  10.525  11.985   8.598
37399SOL    HW214030  10.602  12.010   8.726
37400SOL     OW14031   6.514  11.606   9.094
37400SOL    HW114032   6.609  11.611   9.109
37400SOL    HW214033   6.500  11.659   9.015
37401SOL     OW14034  13.104  11.398  14.793
37401SOL    HW114035  13.108  11.434  14.704
37401SOL    HW214036  13.038  11.452  14.837
37402SOL     OW14037   6.233  14.334   1.237
37402SOL    HW114038   6.152  14.378   1.211
37402SOL    HW214039   6.269  14.299   1.155
37403SOL     OW14040   3.210   2.923   4.345
37403SOL    HW114041   3.299   2.939   4.378
37403SOL    HW214042   3.193   2.998   4.287
37404SOL     OW14043  14.667   9.570  10.399
37404SOL    HW114044  14.713   9.651  10.419
37404SOL    HW214045  14.579   9.598  10.374
37405SOL     OW14046   0.045   8.008   1.016
37405SOL    HW114047   0.006   7.924   1.039
37405SOL    HW214048  14.869   8.072   1.064
37406SOL     OW14049  11.042   4.015  10.311
37406SOL    HW114050  10.963   4.058  10.343
37406SOL    HW214051  11.075   4.072  10.242
37407SOL     OW14052   2.307  10.725   3.993
37407SOL    HW114053   2.242  10.796   3.992
37407SOL    HW214054   2.381  10.759   3.942
37408SOL     OW14055   4.004   3.381   3.867
37408SOL    HW114056   4.024   3.292   3.837
37408SOL    HW214057   4.064   3.437   3.817
37409SOL     OW14058  11.141   5.567   4.510
37409SOL    HW114059  11.136   5.572   4.605
37409SOL    HW214060  11.071   5.625   4.479
37410SOL     OW14061  12.042   4.183  14.167
37410SOL    HW114062  11.974   4.176  14.100
37410SOL    HW214063  12.100   4.253  14.135
37411SOL     OW14064   0.962   6.633   9.520
37411SOL    HW114065   0.928   6.687   9.592
37411SOL    HW214066   1.019   6.570   9.563
37412SOL     OW14067   2.321  14.708   8.097
37412SOL    HW114068   2.402  14.673   8.060
37412SOL    HW214069   2.347  14.792   8.135
37413SOL     OW14070   2.110  12.853   4.592
37413SOL    HW114071   2.086  12.786   4.529
37413SOL    HW214072   2.206  12.854   4.592
37414SOL     OW14073   5.106  13.193   3.117
37414SOL    HW114074   5.130  13.148   3.198
37414SOL    HW214075   5.048  13.263   3.144
37415SOL     OW14076  10.789  10.464  11.474
37415SOL    HW114077  10.732  10.465  11.551
37415SOL    HW214078  10.732  10.436  11.402
37416SOL     OW14079   5.391  14.187  12.344
37416SOL    HW114080   5.360  14.277  12.336
37416SOL    HW214081   5.386  14.168  12.437
37417SOL     OW14082  12.008   5.794   5.774
37417SOL    HW114083  12.063   5.861   5.815
37417SOL    HW214084  12.029   5.800   5.681
37418SOL     OW14085   3.946   2.721  13.167
37418SOL    HW114086   3.939   2.627  13.147
37418SOL    HW214087   3.863   2.758  13.136
37419SOL     OW14088  12.080   0.418   6.724
37419SOL    HW114089  12.105   0.502   6.684
37419SOL    HW214090  12.021   0.378   6.660
37420SOL     OW14091   5.023   8.096   4.452
37420SOL    HW114092   5.009   8.077   4.359
37420SOL    HW214093   5.017   8.010   4.495
37421SOL     OW14094   4.664  10.326   4.254
37421SOL    HW114095   4.758  10.340   4.237
37421SOL    HW214096   4.621  10.400   4.211
37422SOL     OW14097   0.148   2.772  14.134
37422SOL    HW114098   0.155   2.749  14.227
37422SOL    HW214099   0.060   2.810  14.126
37423SOL     OW14100  11.641   6.303   9.182
37423SOL    HW114101  11.667   6.213   9.163
37423SOL    HW214102  11.635   6.307   9.277
37424SOL     OW14103   9.657   2.982  10.081
37424SOL    HW114104   9.634   3.004  10.171
37424SOL    HW214105   9.629   2.891  10.071
37425SOL     OW14106   6.536   6.001  10.364
37425SOL    HW114107   6.490   5.954  10.434
37425SOL    HW214108   6.477   5.996  10.289
37426SOL     OW14109  13.728  11.995   8.058
37426SOL    HW114110  13.813  12.004   8.101
37426SOL    HW214111  13.699  12.085   8.044
37427SOL     OW14112   7.957   3.183   2.974
37427SOL    HW114113   8.021   3.114   2.989
37427SOL    HW214114   7.965   3.203   2.881
37428SOL     OW14115  14.277   4.523   0.728
37428SOL    HW114116  14.264   4.436   0.766
37428SOL    HW214117  14.229   4.521   0.645
37429SOL     OW14118   0.415   3.399  12.165
37429SOL    HW114119   0.414   3.447  12.248
37429SOL    HW214120   0.418   3.307  12.191
37430SOL     OW14121  11.298   3.264   9.708
37430SOL    HW114122  11.247   3.235   9.784
37430SOL    HW214123  11.235   3.312   9.654
37431SOL     OW14124   6.392   4.815   1.801
37431SOL    HW114125   6.298   4.810   1.820
37431SOL    HW214126   6.433   4.837   1.884
37432SOL     OW14127   7.806   4.250  12.085
37432SOL    HW114128   7.798   4.344  12.065
37432SOL    HW214129   7.730   4.230  12.138
37433SOL     OW14130   3.784  14.307   6.070
37433SOL    HW114131   3.783  14.327   5.976
37433SOL    HW214132   3.805  14.391   6.111
37434SOL     OW14133   6.369   9.228   3.494
37434SOL    HW114134   6.299   9.166   3.513
37434SOL    HW214135   6.447   9.174   3.481
37435SOL     OW14136   0.409   6.897   0.187
37435SOL    HW114137   0.352   6.957   0.139
37435SOL    HW214138   0.497   6.918   0.157
37436SOL     OW14139  14.661   6.185   1.962
37436SOL    HW114140  14.711   6.132   2.024
37436SOL    HW214141  14.704   6.271   1.963
37437SOL     OW14142   8.329  10.052   6.736
37437SOL    HW114143   8.375  10.077   6.816
37437SOL    HW214144   8.238  10.041   6.763
37438SOL     OW14145   3.647   7.774   6.655
37438SOL    HW114146   3.602   7.689   6.656
37438SOL    HW214147   3.633   7.806   6.566
37439SOL     OW14148  11.925   3.084   7.024
37439SOL    HW114149  11.914   3.110   6.932
37439SOL    HW214150  11.985   3.009   7.020
37440SOL     OW14151   4.729   3.765   9.920
37440SOL    HW114152   4.728   3.772   9.825
37440SOL    HW214153   4.695   3.677   9.937
37441SOL     OW14154  12.254   4.868   2.101
37441SOL    HW114155  12.271   4.912   2.018
37441SOL    HW214156  12.229   4.779   2.077
37442SOL     OW14157   1.259   4.167   5.838
37442SOL    HW114158   1.322   4.199   5.773
37442SOL    HW214159   1.178   4.158   5.789
37443SOL     OW14160   6.863   5.007   8.722
37443SOL    HW114161   6.870   5.015   8.627
37443SOL    HW214162   6.954   5.002   8.752
37444SOL     OW14163   1.845   8.100   7.537
37444SOL    HW114164   1.851   8.056   7.453
37444SOL    HW214165   1.851   8.194   7.516
37445SOL     OW14166   1.071   2.002   9.484
37445SOL    HW114167   0.985   2.045   9.490
37445SOL    HW214168   1.095   1.985   9.574
37446SOL     OW14169   0.047   4.371   3.031
37446SOL    HW114170   0.056   4.339   2.942
37446SOL    HW214171   0.098   4.452   3.033
37447SOL     OW14172  12.200  13.512   3.480
37447SOL    HW114173  12.116  13.479   3.512
37447SOL    HW214174  12.239  13.555   3.556
37448SOL     OW14175  12.932  14.362  10.790
37448SOL    HW114176  12.986  14.287  10.815
37448SOL    HW214177  12.900  14.339  10.702
37449SOL     OW14178   8.163   1.697   1.433
37449SOL    HW114179   8.189   1.687   1.341
37449SOL    HW214180   8.148   1.791   1.443
37450SOL     OW14181   1.743   6.883  11.207
37450SOL    HW114182   1.823   6.912  11.163
37450SOL    HW214183   1.672   6.930  11.161
37451SOL     OW14184   0.712   6.221   3.445
37451SOL    HW114185   0.720   6.132   3.411
37451SOL    HW214186   0.648   6.263   3.388
37452SOL     OW14187  10.213   3.103   6.482
37452SOL    HW114188  10.206   3.018   6.439
37452SOL    HW214189  10.126   3.143   6.471
37453SOL     OW14190   6.886   7.950  11.339
37453SOL    HW114191   6.827   7.878  11.361
37453SOL    HW214192   6.961   7.939  11.398
37454SOL     OW14193   9.467  11.190   0.867
37454SOL    HW114194   9.418  11.259   0.912
37454SOL    HW214195   9.533  11.162   0.930
37455SOL     OW14196   6.113   3.110   9.463
37455SOL    HW114197   6.162   3.157   9.531
37455SOL    HW214198   6.085   3.179   9.402
37456SOL     OW14199   0.246   4.507   9.575
37456SOL    HW114200   0.294   4.586   9.602
37456SOL    HW214201   0.187   4.537   9.506
37457SOL     OW14202  10.368   2.479  13.133
37457SOL    HW114203  10.285   2.520  13.111
37457SOL    HW214204  10.431   2.552  13.133
37458SOL     OW14205   2.164  13.293   4.588
37458SOL    HW114206   2.092  13.276   4.528
37458SOL    HW214207   2.136  13.255   4.671
37459SOL     OW14208  11.988   4.957  10.359
37459SOL    HW114209  12.050   4.916  10.420
37459SOL    HW214210  11.985   5.049  10.385
37460SOL     OW14211   9.381   7.639   8.586
37460SOL    HW114212   9.411   7.569   8.644
37460SOL    HW214213   9.442   7.711   8.600
37461SOL     OW14214  13.229   6.087  14.136
37461SOL    HW114215  13.167   6.120  14.071
37461SOL    HW214216  13.203   5.996  14.150
37462SOL     OW14217  14.511   6.470   9.534
37462SOL    HW114218  14.531   6.553   9.491
37462SOL    HW214219  14.423   6.447   9.503
37463SOL     OW14220   6.133   9.385  12.180
37463SOL    HW114221   6.074   9.397  12.254
37463SOL    HW214222   6.077   9.393  12.103
37464SOL     OW14223   6.236   3.501   0.405
37464SOL    HW114224   6.329   3.481   0.422
37464SOL    HW214225   6.189   3.423   0.433
37465SOL     OW14226   7.679   9.393   1.837
37465SOL    HW114227   7.673   9.471   1.891
37465SOL    HW214228   7.594   9.350   1.848
37466SOL     OW14229   1.678  10.704   3.413
37466SOL    HW114230   1.635  10.765   3.473
37466SOL    HW214231   1.645  10.728   3.326
37467SOL     OW14232   5.258   5.931   2.853
37467SOL    HW114233   5.333   5.910   2.909
37467SOL    HW214234   5.183   5.889   2.895
37468SOL     OW14235  10.721   1.316   6.928
37468SOL    HW114236  10.697   1.296   6.837
37468SOL    HW214237  10.725   1.411   6.931
37469SOL     OW14238  13.753  13.062   6.601
37469SOL    HW114239  13.780  13.103   6.520
37469SOL    HW214240  13.729  12.973   6.576
37470SOL     OW14241  11.664   1.638   8.263
37470SOL    HW114242  11.716   1.563   8.293
37470SOL    HW214243  11.704   1.713   8.308
37471SOL     OW14244   5.518  14.555   8.156
37471SOL    HW114245   5.551  14.629   8.105
37471SOL    HW214246   5.458  14.510   8.097
37472SOL     OW14247  12.353   6.593  14.111
37472SOL    HW114248  12.304   6.528  14.160
37472SOL    HW214249  12.317   6.587  14.022
37473SOL     OW14250   8.762  10.608  12.554
37473SOL    HW114251   8.762  10.695  12.515
37473SOL    HW214252   8.695  10.613  12.623
37474SOL     OW14253   2.020   3.076  11.260
37474SOL    HW114254   2.108   3.037  11.260
37474SOL    HW214255   2.015   3.124  11.343
37475SOL     OW14256  10.723   4.730  12.546
37475SOL    HW114257  10.678   4.779  12.616
37475SOL    HW214258  10.708   4.783  12.467
37476SOL     OW14259   5.714   1.613   7.080
37476SOL    HW114260   5.802   1.589   7.109
37476SOL    HW214261   5.664   1.622   7.161
37477SOL     OW14262   5.973   0.105   1.667
37477SOL    HW114263   5.948   0.197   1.661
37477SOL    HW214264   6.015   0.097   1.753
37478SOL     OW14265  14.192   3.907   3.518
37478SOL    HW114266  14.133   3.977   3.491
37478SOL    HW214267  14.257   3.951   3.573
37479SOL     OW14268   5.112   9.211   0.807
37479SOL    HW114269   5.023   9.225   0.775
37479SOL    HW214270   5.139   9.297   0.839
37480SOL     OW14271  12.370   9.928   2.725
37480SOL    HW114272  12.363  10.015   2.764
37480SOL    HW214273  12.463   9.907   2.730
37481SOL     OW14274   7.529   3.818  12.383
37481SOL    HW114275   7.439   3.838  12.357
37481SOL    HW214276   7.519   3.758  12.457
37482SOL     OW14277   8.093   5.524   2.636
37482SOL    HW114278   8.103   5.435   2.603
37482SOL    HW214279   8.181   5.548   2.665
37483SOL     OW14280   9.282   9.060   4.077
37483SOL    HW114281   9.357   9.079   4.020
37483SOL    HW214282   9.281   9.132   4.140
37484SOL     OW14283   1.131   1.555   6.582
37484SOL    HW114284   1.176   1.570   6.499
37484SOL    HW214285   1.180   1.484   6.623
37485SOL     OW14286   6.000  14.868   0.384
37485SOL    HW114287   5.993   0.034   0.471
37485SOL    HW214288   6.005   0.066   0.323
37486SOL     OW14289   5.483   0.402   5.743
37486SOL    HW114290   5.457   0.324   5.791
37486SOL    HW214291   5.574   0.417   5.770
37487SOL     OW14292  10.943   5.767  14.824
37487SOL    HW114293  11.030   5.765  14.784
37487SOL    HW214294  10.928   5.677  14.854
37488SOL     OW14295   6.601   4.352   1.127
37488SOL    HW114296   6.663   4.332   1.197
37488SOL    HW214297   6.524   4.299   1.146
37489SOL     OW14298  10.478   5.861   3.624
37489SOL    HW114299  10.571   5.884   3.637
37489SOL    HW214300  10.471   5.771   3.657
37490SOL     OW14301   4.258   7.606   7.342
37490SOL    HW114302   4.317   7.539   7.307
37490SOL    HW214303   4.175   7.591   7.297
37491SOL     OW14304  10.590   9.909   1.658
37491SOL    HW114305  10.561   9.824   1.691
37491SOL    HW214306  10.537   9.973   1.704
37492SOL     OW14307   4.608   9.204   7.698
37492SOL    HW114308   4.527   9.155   7.718
37492SOL    HW214309   4.582   9.268   7.632
37493SOL     OW14310   4.692   3.943  14.250
37493SOL    HW114311   4.684   3.864  14.196
37493SOL    HW214312   4.777   3.933  14.293
37494SOL     OW14313   3.262  13.177   1.636
37494SOL    HW114314   3.194  13.242   1.618
37494SOL    HW214315   3.215  13.101   1.669
37495SOL     OW14316   5.879  10.498   9.612
37495SOL    HW114317   5.882  10.438   9.537
37495SOL    HW214318   5.786  10.514   9.625
37496SOL     OW14319   5.567   6.743   3.235
37496SOL    HW114320   5.650   6.784   3.257
37496SOL    HW214321   5.567   6.741   3.139
37497SOL     OW14322  12.459   6.072   4.294
37497SOL    HW114323  12.465   6.164   4.268
37497SOL    HW214324  12.431   6.074   4.385
37498SOL     OW14325   6.250   6.904  13.953
37498SOL    HW114326   6.317   6.948  13.900
37498SOL    HW214327   6.245   6.816  13.917
37499SOL     OW14328   6.017  13.881   6.382
37499SOL    HW114329   6.082  13.841   6.440
37499SOL    HW214330   6.009  13.818   6.310
37500SOL     OW14331   0.437  14.496  10.331
37500SOL    HW114332   0.505  14.432  10.311
37500SOL    HW214333   0.385  14.455  10.400
37501SOL     OW14334   7.527  10.090   3.338
37501SOL    HW114335   7.443  10.075   3.295
37501SOL    HW214336   7.509  10.080   3.432
37502SOL     OW14337   6.983   7.260   8.436
37502SOL    HW114338   6.979   7.354   8.420
37502SOL    HW214339   6.909   7.243   8.495
37503SOL     OW14340   3.346  10.932   5.196
37503SOL    HW114341   3.326  10.840   5.178
37503SOL    HW214342   3.436  10.930   5.228
37504SOL     OW14343  12.522  10.834   8.596
37504SOL    HW114344  12.595  10.864   8.650
37504SOL    HW214345  12.540  10.871   8.510
37505SOL     OW14346  10.147   7.875   8.930
37505SOL    HW114347  10.122   7.793   8.888
37505SOL    HW214348  10.222   7.853   8.985
37506SOL     OW14349  14.272   1.058  13.913
37506SOL    HW114350  14.198   1.049  13.973
37506SOL    HW214351  14.267   1.149  13.882
37507SOL     OW14352  10.339   2.487   0.513
37507SOL    HW114353  10.370   2.420   0.452
37507SOL    HW214354  10.419   2.520   0.555
37508SOL     OW14355   3.840   0.934  13.111
37508SOL    HW114356   3.866   0.960  13.023
37508SOL    HW214357   3.754   0.975  13.124
37509SOL     OW14358  12.045  10.186  10.113
37509SOL    HW114359  12.127  10.151  10.078
37509SOL    HW214360  11.980  10.120  10.091
37510SOL     OW14361   0.790   7.718   9.733
37510SOL    HW114362   0.761   7.808   9.719
37510SOL    HW214363   0.709   7.669   9.750
37511SOL     OW14364   4.968   1.137  12.417
37511SOL    HW114365   5.025   1.171  12.486
37511SOL    HW214366   4.882   1.174  12.437
37512SOL     OW14367   0.378  10.128   0.091
37512SOL    HW114368   0.447  10.070   0.123
37512SOL    HW214369   0.325  10.073   0.033
37513SOL     OW14370  11.275  11.074   9.872
37513SOL    HW114371  11.264  11.001   9.934
37513SOL    HW214372  11.325  11.036   9.799
37514SOL     OW14373   0.289   1.894  12.613
37514SOL    HW114374   0.298   1.881  12.518
37514SOL    HW214375   0.302   1.987  12.626
37515SOL     OW14376  14.380  11.947  14.463
37515SOL    HW114377  14.415  11.859  14.476
37515SOL    HW214378  14.399  11.992  14.545
37516SOL     OW14379   9.745  11.353   7.102
37516SOL    HW114380   9.726  11.349   7.196
37516SOL    HW214381   9.825  11.405   7.096
37517SOL     OW14382   4.527   7.474   2.439
37517SOL    HW114383   4.597   7.522   2.485
37517SOL    HW214384   4.483   7.425   2.508
37518SOL     OW14385   7.812   7.847   1.128
37518SOL    HW114386   7.801   7.760   1.165
37518SOL    HW214387   7.814   7.833   1.033
37519SOL     OW14388  11.324  14.520  10.798
37519SOL    HW114389  11.358  14.609  10.799
37519SOL    HW214390  11.284  14.511  10.712
37520SOL     OW14391   8.664   4.722  13.870
37520SOL    HW114392   8.712   4.787  13.922
37520SOL    HW214393   8.717   4.711  13.791
37521SOL     OW14394   5.806   2.737   8.265
37521SOL    HW114395   5.772   2.652   8.237
37521SOL    HW214396   5.900   2.722   8.276
37522SOL     OW14397  14.187  13.351   6.094
37522SOL    HW114398  14.106  13.396   6.069
37522SOL    HW214399  14.220  13.402   6.168
37523SOL     OW14400   5.255  14.735   0.040
37523SOL    HW114401   5.208  14.808   0.079
37523SOL    HW214402   5.257  14.668   0.108
37524SOL     OW14403   9.808   1.603  13.065
37524SOL    HW114404   9.900   1.611  13.042
37524SOL    HW214405   9.793   1.509  13.074
37525SOL     OW14406   5.702   9.839   0.472
37525SOL    HW114407   5.658   9.855   0.556
37525SOL    HW214408   5.666   9.756   0.441
37526SOL     OW14409  12.092   8.582  11.499
37526SOL    HW114410  11.997   8.582  11.483
37526SOL    HW214411  12.102   8.613  11.589
37527SOL     OW14412  14.118   8.530   6.070
37527SOL    HW114413  14.128   8.568   6.158
37527SOL    HW214414  14.032   8.489   6.072
37528SOL     OW14415   4.956   1.007   7.529
37528SOL    HW114416   4.970   1.088   7.479
37528SOL    HW214417   4.909   0.949   7.469
37529SOL     OW14418   8.420   3.680  11.394
37529SOL    HW114419   8.407   3.609  11.457
37529SOL    HW214420   8.392   3.643  11.311
37530SOL     OW14421   8.147   2.567  13.025
37530SOL    HW114422   8.160   2.475  13.003
37530SOL    HW214423   8.179   2.615  12.948
37531SOL     OW14424  12.315   9.666   1.091
37531SOL    HW114425  12.387   9.662   1.029
37531SOL    HW214426  12.255   9.596   1.064
37532SOL     OW14427   5.460  14.756   7.027
37532SOL    HW114428   5.415  14.797   7.100
37532SOL    HW214429   5.515  14.826   6.991
37533SOL     OW14430   3.966  10.739   6.730
37533SOL    HW114431   3.907  10.764   6.659
37533SOL    HW214432   4.024  10.673   6.692
37534SOL     OW14433  13.665   2.348   1.086
37534SOL    HW114434  13.671   2.264   1.131
37534SOL    HW214435  13.619   2.328   1.004
37535SOL     OW14436   3.909  13.569   7.095
37535SOL    HW114437   3.901  13.593   7.187
37535SOL    HW214438   3.836  13.614   7.052
37536SOL     OW14439   6.361   3.423   7.801
37536SOL    HW114440   6.374   3.362   7.874
37536SOL    HW214441   6.331   3.504   7.842
37537SOL     OW14442  14.035   3.548   0.613
37537SOL    HW114443  13.978   3.506   0.548
37537SOL    HW214444  14.094   3.603   0.560
37538SOL     OW14445   2.342   3.425   3.910
37538SOL    HW114446   2.271   3.485   3.935
37538SOL    HW214447   2.416   3.482   3.890
37539SOL     OW14448  12.011  11.324   2.978
37539SOL    HW114449  11.990  11.391   3.044
37539SOL    HW214450  11.981  11.363   2.896
37540SOL     OW14451  11.557   4.955  12.238
37540SOL    HW114452  11.614   4.879  12.249
37540SOL    HW214453  11.493   4.927  12.172
37541SOL     OW14454   7.164  10.521   5.699
37541SOL    HW114455   7.076  10.514   5.663
37541SOL    HW214456   7.220  10.478   5.634
37542SOL     OW14457   1.835  13.443   0.112
37542SOL    HW114458   1.900  13.385   0.073
37542SOL    HW214459   1.878  13.528   0.116
37543SOL     OW14460   2.145   2.468   6.868
37543SOL    HW114461   2.239   2.472   6.851
37543SOL    HW214462   2.108   2.542   6.819
37544SOL     OW14463   3.356   4.447   9.064
37544SOL    HW114464   3.287   4.502   9.101
37544SOL    HW214465   3.380   4.489   8.982
37545SOL     OW14466  11.064  14.321   8.130
37545SOL    HW114467  11.037  14.242   8.082
37545SOL    HW214468  11.125  14.365   8.071
37546SOL     OW14469   0.678  10.906   6.053
37546SOL    HW114470   0.765  10.869   6.041
37546SOL    HW214471   0.693  11.000   6.064
37547SOL     OW14472  14.634   0.611   7.914
37547SOL    HW114473  14.622   0.525   7.873
37547SOL    HW214474  14.544   0.644   7.927
37548SOL     OW14475   1.343  13.271   6.358
37548SOL    HW114476   1.325  13.249   6.266
37548SOL    HW214477   1.257  13.271   6.400
37549SOL     OW14478   4.681  10.002   8.152
37549SOL    HW114479   4.618   9.930   8.157
37549SOL    HW214480   4.759   9.962   8.113
37550SOL     OW14481   8.352  10.077  12.452
37550SOL    HW114482   8.411  10.014  12.411
37550SOL    HW214483   8.300  10.113  12.379
37551SOL     OW14484   7.679   0.795   7.410
37551SOL    HW114485   7.622   0.827   7.479
37551SOL    HW214486   7.763   0.837   7.426
37552SOL     OW14487   0.062   2.174  13.172
37552SOL    HW114488   0.104   2.089  13.161
37552SOL    HW214489   0.087   2.201  13.261
37553SOL     OW14490   0.153  11.342  10.400
37553SOL    HW114491   0.069  11.386  10.385
37553SOL    HW214492   0.132  11.249  10.400
37554SOL     OW14493   0.734  13.479   3.940
37554SOL    HW114494   0.789  13.457   3.865
37554SOL    HW214495   0.786  13.455   4.016
37555SOL     OW14496  10.517  13.742   9.914
37555SOL    HW114497  10.480  13.736  10.002
37555SOL    HW214498  10.557  13.829   9.910
37556SOL     OW14499  12.209   3.919   3.408
37556SOL    HW114500  12.162   3.851   3.360
37556SOL    HW214501  12.158   3.998   3.393
37557SOL     OW14502   6.879   5.936   7.571
37557SOL    HW114503   6.968   5.933   7.536
37557SOL    HW214504   6.872   6.023   7.611
37558SOL     OW14505   4.862   6.627   6.812
37558SOL    HW114506   4.788   6.686   6.799
37558SOL    HW214507   4.927   6.680   6.857
37559SOL     OW14508  14.300  13.323   4.904
37559SOL    HW114509  14.275  13.314   4.996
37559SOL    HW214510  14.251  13.254   4.859
37560SOL     OW14511   2.234   7.642   8.928
37560SOL    HW114512   2.169   7.608   8.989
37560SOL    HW214513   2.184   7.701   8.871
37561SOL     OW14514   4.043   0.065   4.696
37561SOL    HW114515   4.023   0.015   4.616
37561SOL    HW214516   3.978   0.036   4.759
37562SOL     OW14517  14.390   3.871  10.448
37562SOL    HW114518  14.475   3.915  10.450
37562SOL    HW214519  14.340   3.912  10.518
37563SOL     OW14520   1.834  10.234   6.214
37563SOL    HW114521   1.898  10.289   6.169
37563SOL    HW214522   1.778  10.295   6.261
37564SOL     OW14523   8.540   7.864  14.825
37564SOL    HW114524   8.596   7.938  14.803
37564SOL    HW214525   8.529   7.870   0.044
37565SOL     OW14526   6.907   9.716  12.381
37565SOL    HW114527   6.987   9.708  12.330
37565SOL    HW214528   6.936   9.709  12.472
37566SOL     OW14529  10.881   3.639   6.966
37566SOL    HW114530  10.796   3.596   6.953
37566SOL    HW214531  10.943   3.585   6.917
37567SOL     OW14532  11.136   8.051  10.311
37567SOL    HW114533  11.101   8.082  10.395
37567SOL    HW214534  11.210   8.109  10.294
37568SOL     OW14535   5.093  12.660   9.118
37568SOL    HW114536   5.009  12.658   9.073
37568SOL    HW214537   5.158  12.641   9.051
37569SOL     OW14538  13.464  13.273   6.505
37569SOL    HW114539  13.500  13.248   6.590
37569SOL    HW214540  13.395  13.336   6.525
37570SOL     OW14541   5.287   4.491  13.371
37570SOL    HW114542   5.248   4.485  13.458
37570SOL    HW214543   5.371   4.446  13.379
37571SOL     OW14544   7.465   9.098   9.797
37571SOL    HW114545   7.380   9.066   9.827
37571SOL    HW214546   7.489   9.038   9.727
37572SOL     OW14547  12.015  13.717  13.651
37572SOL    HW114548  12.072  13.724  13.728
37572SOL    HW214549  11.957  13.793  13.657
37573SOL     OW14550   6.522   4.555   3.184
37573SOL    HW114551   6.550   4.632   3.233
37573SOL    HW214552   6.462   4.588   3.118
37574SOL     OW14553   4.549   9.154   4.748
37574SOL    HW114554   4.547   9.249   4.738
37574SOL    HW214555   4.458   9.130   4.764
37575SOL     OW14556   1.523   6.938   0.173
37575SOL    HW114557   1.580   6.947   0.097
37575SOL    HW214558   1.450   6.997   0.156
37576SOL     OW14559  13.403   2.586   3.416
37576SOL    HW114560  13.458   2.516   3.451
37576SOL    HW214561  13.314   2.549   3.416
37577SOL     OW14562  10.265   6.028  14.482
37577SOL    HW114563  10.174   6.046  14.503
37577SOL    HW214564  10.315   6.089  14.537
37578SOL     OW14565   3.407   2.395   0.569
37578SOL    HW114566   3.312   2.390   0.581
37578SOL    HW214567   3.437   2.304   0.575
37579SOL     OW14568   9.883   4.096  11.682
37579SOL    HW114569   9.807   4.148  11.709
37579SOL    HW214570   9.863   4.007  11.709
37580SOL     OW14571   8.329  12.050   5.683
37580SOL    HW114572   8.255  11.990   5.677
37580SOL    HW214573   8.389  12.022   5.613
37581SOL     OW14574   8.001  13.226   8.595
37581SOL    HW114575   8.030  13.152   8.648
37581SOL    HW214576   8.058  13.223   8.518
37582SOL     OW14577  13.379   0.740  11.943
37582SOL    HW114578  13.460   0.705  11.981
37582SOL    HW214579  13.321   0.664  11.934
37583SOL     OW14580  14.869   8.867   2.694
37583SOL    HW114581   0.066   8.908   2.649
37583SOL    HW214582  14.865   8.778   2.659
37584SOL     OW14583  12.501   4.175  13.020
37584SOL    HW114584  12.524   4.173  12.927
37584SOL    HW214585  12.566   4.119  13.062
37585SOL     OW14586   4.954   8.696   3.439
37585SOL    HW114587   5.018   8.663   3.502
37585SOL    HW214588   5.007   8.727   3.365
37586SOL     OW14589   9.250   9.143  10.238
37586SOL    HW114590   9.289   9.215  10.189
37586SOL    HW214591   9.159   9.140  10.208
37587SOL     OW14592  13.333   4.654  13.453
37587SOL    HW114593  13.320   4.698  13.537
37587SOL    HW214594  13.329   4.561  13.474
37588SOL     OW14595   8.995   3.577   0.154
37588SOL    HW114596   8.925   3.633   0.186
37588SOL    HW214597   9.027   3.621   0.075
37589SOL     OW14598  13.195   8.311  14.106
37589SOL    HW114599  13.207   8.295  14.200
37589SOL    HW214600  13.253   8.249  14.063
37590SOL     OW14601   0.233   7.243   2.669
37590SOL    HW114602   0.265   7.298   2.740
37590SOL    HW214603   0.310   7.220   2.618
37591SOL     OW14604   4.335   6.104   9.818
37591SOL    HW114605   4.335   6.182   9.763
37591SOL    HW214606   4.376   6.132   9.900
37592SOL     OW14607   0.113   0.490   0.115
37592SOL    HW114608   0.132   0.513   0.206
37592SOL    HW214609   0.093   0.574   0.072
37593SOL     OW14610  10.484   5.355  14.309
37593SOL    HW114611  10.456   5.265  14.295
37593SOL    HW214612  10.402   5.404  14.322
37594SOL     OW14613   4.005   3.782  11.103
37594SOL    HW114614   4.031   3.730  11.027
37594SOL    HW214615   4.039   3.734  11.178
37595SOL     OW14616   8.904   6.150   2.580
37595SOL    HW114617   8.814   6.116   2.585
37595SOL    HW214618   8.904   6.225   2.639
37596SOL     OW14619  11.254  11.502   7.031
37596SOL    HW114620  11.241  11.552   6.951
37596SOL    HW214621  11.171  11.509   7.078
37597SOL     OW14622  14.285   9.655   6.848
37597SOL    HW114623  14.210   9.596   6.860
37597SOL    HW214624  14.359   9.597   6.831
37598SOL     OW14625  14.249   1.077   7.166
37598SOL    HW114626  14.218   1.099   7.078
37598SOL    HW214627  14.204   0.996   7.188
37599SOL     OW14628   6.981   4.438   0.077
37599SOL    HW114629   7.034   4.481   0.144
37599SOL    HW214630   6.996   4.490  14.874
37600SOL     OW14631   1.508   8.029   3.357
37600SOL    HW114632   1.510   7.933   3.367
37600SOL    HW214633   1.443   8.044   3.289
37601SOL     OW14634   6.458   7.130   4.824
37601SOL    HW114635   6.410   7.202   4.783
37601SOL    HW214636   6.493   7.167   4.904
37602SOL     OW14637   8.666   0.450   2.703
37602SOL    HW114638   8.694   0.362   2.681
37602SOL    HW214639   8.746   0.494   2.732
37603SOL     OW14640   3.338  10.217   4.486
37603SOL    HW114641   3.371  10.202   4.397
37603SOL    HW214642   3.375  10.301   4.511
37604SOL     OW14643  10.324  13.028   9.758
37604SOL    HW114644  10.394  13.034   9.694
37604SOL    HW214645  10.260  13.093   9.730
37605SOL     OW14646   4.171   4.426  14.775
37605SOL    HW114647   4.231   4.456  14.843
37605SOL    HW214648   4.172   4.330  14.783
37606SOL     OW14649  12.564   3.309   4.292
37606SOL    HW114650  12.549   3.355   4.374
37606SOL    HW214651  12.587   3.379   4.230
37607SOL     OW14652  13.526   1.730  11.534
37607SOL    HW114653  13.596   1.694  11.479
37607SOL    HW214654  13.449   1.677  11.512
37608SOL     OW14655  11.407   2.039  14.829
37608SOL    HW114656  11.339   1.979  14.861
37608SOL    HW214657  11.476   2.036   0.019
37609SOL     OW14658   2.614  10.973   3.345
37609SOL    HW114659   2.611  10.938   3.434
37609SOL    HW214660   2.637  11.066   3.357
37610SOL     OW14661   1.786  10.237   6.979
37610SOL    HW114662   1.800  10.331   6.975
37610SOL    HW214663   1.830  10.209   7.060
37611SOL     OW14664   1.211   1.935   2.340
37611SOL    HW114665   1.273   1.881   2.291
37611SOL    HW214666   1.254   2.020   2.347
37612SOL     OW14667   0.541   8.662   4.430
37612SOL    HW114668   0.510   8.701   4.349
37612SOL    HW214669   0.490   8.581   4.439
37613SOL     OW14670   7.888   9.927  12.835
37613SOL    HW114671   7.841   9.845  12.822
37613SOL    HW214672   7.853   9.985  12.767
37614SOL     OW14673   1.811   6.141  14.175
37614SOL    HW114674   1.896   6.138  14.219
37614SOL    HW214675   1.832   6.149  14.082
37615SOL     OW14676   6.567   5.693   7.882
37615SOL    HW114677   6.516   5.763   7.921
37615SOL    HW214678   6.607   5.733   7.805
37616SOL     OW14679  10.662  13.767   0.684
37616SOL    HW114680  10.648  13.709   0.610
37616SOL    HW214681  10.666  13.855   0.645
37617SOL     OW14682   9.283   2.796   9.105
37617SOL    HW114683   9.351   2.732   9.080
37617SOL    HW214684   9.204   2.743   9.114
37618SOL     OW14685   3.777   0.735  14.827
37618SOL    HW114686   3.854   0.706  14.779
37618SOL    HW214687   3.779   0.684   0.032
37619SOL     OW14688   2.551   5.378   1.524
37619SOL    HW114689   2.529   5.433   1.600
37619SOL    HW214690   2.593   5.301   1.562
37620SOL     OW14691   1.796   0.263   5.488
37620SOL    HW114692   1.811   0.271   5.582
37620SOL    HW214693   1.771   0.172   5.475
37621SOL     OW14694   4.225   5.995   6.064
37621SOL    HW114695   4.163   5.937   6.108
37621SOL    HW214696   4.171   6.065   6.026
37622SOL     OW14697   8.277   6.758  12.652
37622SOL    HW114698   8.258   6.668  12.626
37622SOL    HW214699   8.307   6.750  12.743
37623SOL     OW14700  11.509   9.826   7.289
37623SOL    HW114701  11.574   9.885   7.249
37623SOL    HW214702  11.473   9.777   7.216
37624SOL     OW14703   1.779  12.436   0.096
37624SOL    HW114704   1.697  12.486   0.100
37624SOL    HW214705   1.767  12.376   0.023
37625SOL     OW14706   2.357   4.250   4.630
37625SOL    HW114707   2.281   4.258   4.572
37625SOL    HW214708   2.416   4.191   4.584
37626SOL     OW14709   1.993   6.349  10.518
37626SOL    HW114710   2.071   6.402  10.533
37626SOL    HW214711   1.923   6.412  10.501
37627SOL     OW14712   8.732  11.057  12.609
37627SOL    HW114713   8.744  11.119  12.681
37627SOL    HW214714   8.814  11.008  12.606
37628SOL     OW14715  11.374  10.465   2.970
37628SOL    HW114716  11.464  10.490   2.991
37628SOL    HW214717  11.320  10.517   3.029
37629SOL     OW14718  12.687   5.350   7.383
37629SOL    HW114719  12.686   5.400   7.465
37629SOL    HW214720  12.713   5.414   7.316
37630SOL     OW14721   1.453   5.186  11.267
37630SOL    HW114722   1.481   5.232  11.188
37630SOL    HW214723   1.376   5.235  11.297
37631SOL     OW14724   9.907   5.608   5.406
37631SOL    HW114725   9.897   5.572   5.318
37631SOL    HW214726   9.909   5.531   5.463
37632SOL     OW14727   8.604  14.172  13.935
37632SOL    HW114728   8.675  14.162  13.871
37632SOL    HW214729   8.581  14.265  13.931
37633SOL     OW14730   8.549  12.483   7.700
37633SOL    HW114731   8.459  12.451   7.699
37633SOL    HW214732   8.545  12.563   7.753
37634SOL     OW14733   5.632   4.071   5.379
37634SOL    HW114734   5.724   4.090   5.362
37634SOL    HW214735   5.602   4.024   5.300
37635SOL     OW14736  10.280   7.175   0.193
37635SOL    HW114737  10.225   7.153   0.269
37635SOL    HW214738  10.280   7.096   0.140
37636SOL     OW14739   6.843   5.173   6.091
37636SOL    HW114740   6.894   5.192   6.012
37636SOL    HW214741   6.752   5.189   6.065
37637SOL     OW14742   2.717  13.704   5.506
37637SOL    HW114743   2.760  13.777   5.550
37637SOL    HW214744   2.674  13.743   5.430
37638SOL     OW14745  14.469   0.279   5.083
37638SOL    HW114746  14.528   0.341   5.126
37638SOL    HW214747  14.524   0.204   5.061
37639SOL     OW14748   0.675   0.840   4.746
37639SOL    HW114749   0.748   0.893   4.780
37639SOL    HW214750   0.717   0.774   4.691
37640SOL     OW14751   6.683   3.534   2.662
37640SOL    HW114752   6.707   3.518   2.754
37640SOL    HW214753   6.590   3.514   2.657
37641SOL     OW14754  11.617   0.717  13.046
37641SOL    HW114755  11.542   0.726  13.105
37641SOL    HW214756  11.651   0.629  13.064
37642SOL     OW14757   7.589  10.971   6.688
37642SOL    HW114758   7.656  10.923   6.737
37642SOL    HW214759   7.637  11.042   6.645
37643SOL     OW14760  12.059   8.573   3.793
37643SOL    HW114761  12.045   8.574   3.887
37643SOL    HW214762  12.035   8.661   3.764
37644SOL     OW14763  10.790  13.684   3.959
37644SOL    HW114764  10.738  13.613   3.921
37644SOL    HW214765  10.729  13.732   4.014
37645SOL     OW14766   9.160   7.076   3.963
37645SOL    HW114767   9.110   7.109   3.889
37645SOL    HW214768   9.121   7.119   4.039
37646SOL     OW14769   9.328   6.753   1.397
37646SOL    HW114770   9.262   6.814   1.364
37646SOL    HW214771   9.281   6.700   1.462
37647SOL     OW14772   0.432   2.869   1.693
37647SOL    HW114773   0.458   2.781   1.667
37647SOL    HW214774   0.449   2.873   1.787
37648SOL     OW14775   2.449   4.356   9.095
37648SOL    HW114776   2.427   4.275   9.049
37648SOL    HW214777   2.542   4.346   9.116
37649SOL     OW14778   9.825  13.660  10.593
37649SOL    HW114779   9.821  13.602  10.669
37649SOL    HW214780   9.908  13.638  10.551
37650SOL     OW14781   4.016   3.561   2.703
37650SOL    HW114782   4.013   3.580   2.609
37650SOL    HW214783   4.108   3.540   2.720
37651SOL     OW14784   2.373   5.853  14.868
37651SOL    HW114785   2.408   5.869  14.780
37651SOL    HW214786   2.350   5.940   0.024
37652SOL     OW14787  13.289   1.935   8.338
37652SOL    HW114788  13.276   1.857   8.392
37652SOL    HW214789  13.302   2.006   8.402
37653SOL     OW14790  11.989   0.061  12.988
37653SOL    HW114791  12.081   0.036  12.989
37653SOL    HW214792  11.952   0.021  13.067
37654SOL     OW14793  11.197   7.754   8.465
37654SOL    HW114794  11.109   7.720   8.452
37654SOL    HW214795  11.240   7.689   8.521
37655SOL     OW14796   1.964   2.446   5.679
37655SOL    HW114797   1.933   2.533   5.656
37655SOL    HW214798   2.042   2.432   5.625
37656SOL     OW14799   2.699   2.416   0.383
37656SOL    HW114800   2.750   2.492   0.410
37656SOL    HW214801   2.763   2.345   0.377
37657SOL     OW14802   7.397   7.019   6.266
37657SOL    HW114803   7.361   7.021   6.178
37657SOL    HW214804   7.370   7.103   6.305
37658SOL     OW14805   7.862  14.163   1.615
37658SOL    HW114806   7.924  14.223   1.574
37658SOL    HW214807   7.785  14.217   1.633
37659SOL     OW14808  12.199   8.334   5.650
37659SOL    HW114809  12.113   8.367   5.676
37659SOL    HW214810  12.260   8.370   5.715
37660SOL     OW14811  13.739   4.844  14.791
37660SOL    HW114812  13.825   4.851  14.750
37660SOL    HW214813  13.696   4.771  14.745
37661SOL     OW14814   4.832   6.360   4.171
37661SOL    HW114815   4.784   6.413   4.235
37661SOL    HW214816   4.834   6.414   4.092
37662SOL     OW14817   3.340   4.118   8.927
37662SOL    HW114818   3.415   4.140   8.983
37662SOL    HW214819   3.313   4.031   8.956
37663SOL     OW14820   2.137   3.038   5.449
37663SOL    HW114821   2.104   3.058   5.537
37663SOL    HW214822   2.091   3.099   5.392
37664SOL     OW14823   1.545  12.083   5.294
37664SOL    HW114824   1.544  11.991   5.269
37664SOL    HW214825   1.466  12.119   5.253
37665SOL     OW14826  14.129   6.840   7.610
37665SOL    HW114827  14.115   6.883   7.525
37665SOL    HW214828  14.145   6.748   7.588
37666SOL     OW14829  12.696   3.640   3.757
37666SOL    HW114830  12.768   3.702   3.771
37666SOL    HW214831  12.678   3.605   3.844
37667SOL     OW14832   6.799   9.809   7.132
37667SOL    HW114833   6.843   9.752   7.195
37667SOL    HW214834   6.714   9.827   7.171
37668SOL     OW14835   1.153  14.365   6.857
37668SOL    HW114836   1.134  14.325   6.772
37668SOL    HW214837   1.068  14.389   6.892
37669SOL     OW14838   0.667   2.562   8.355
37669SOL    HW114839   0.707   2.647   8.338
37669SOL    HW214840   0.585   2.563   8.307
37670SOL     OW14841   2.403   2.436   2.592
37670SOL    HW114842   2.349   2.484   2.531
37670SOL    HW214843   2.471   2.499   2.619
37671SOL     OW14844   0.240  13.991  10.105
37671SOL    HW114845   0.240  13.913  10.049
37671SOL    HW214846   0.177  13.970  10.174
37672SOL     OW14847   7.285  10.094  14.629
37672SOL    HW114848   7.256  10.056  14.712
37672SOL    HW214849   7.369  10.052  14.612
37673SOL     OW14850  11.883  10.503  10.427
37673SOL    HW114851  11.864  10.424  10.477
37673SOL    HW214852  11.967  10.484  10.384
37674SOL     OW14853  14.669   8.860   6.257
37674SOL    HW114854  14.742   8.862   6.196
37674SOL    HW214855  14.688   8.787   6.316
37675SOL     OW14856  11.679  13.187  10.873
37675SOL    HW114857  11.662  13.094  10.883
37675SOL    HW214858  11.756  13.192  10.817
37676SOL     OW14859  14.150   0.232   3.445
37676SOL    HW114860  14.174   0.197   3.530
37676SOL    HW214861  14.216   0.197   3.385
37677SOL     OW14862   3.422   6.482   3.463
37677SOL    HW114863   3.496   6.506   3.409
37677SOL    HW214864   3.347   6.481   3.403
37678SOL     OW14865  14.196  11.015   6.828
37678SOL    HW114866  14.154  11.100   6.839
37678SOL    HW214867  14.278  11.023   6.877
37679SOL     OW14868   5.230   2.519   8.459
37679SOL    HW114869   5.212   2.612   8.457
37679SOL    HW214870   5.312   2.509   8.410
37680SOL     OW14871   9.816   6.600   4.854
37680SOL    HW114872   9.776   6.513   4.862
37680SOL    HW214873   9.891   6.587   4.797
37681SOL     OW14874   5.456   4.479  12.722
37681SOL    HW114875   5.546   4.483  12.753
37681SOL    HW214876   5.450   4.552  12.659
37682SOL     OW14877   6.123   5.750   4.507
37682SOL    HW114878   6.083   5.822   4.555
37682SOL    HW214879   6.071   5.741   4.428
37683SOL     OW14880  14.444   4.202   5.539
37683SOL    HW114881  14.424   4.276   5.596
37683SOL    HW214882  14.366   4.147   5.542
37684SOL     OW14883   9.339   2.435  13.652
37684SOL    HW114884   9.422   2.439  13.606
37684SOL    HW214885   9.358   2.466  13.741
37685SOL     OW14886   8.634   4.592   9.569
37685SOL    HW114887   8.692   4.526   9.529
37685SOL    HW214888   8.639   4.574   9.663
37686SOL     OW14889   6.831   7.592  12.558
37686SOL    HW114890   6.855   7.577  12.650
37686SOL    HW214891   6.911   7.574  12.509
37687SOL     OW14892  14.701   2.704   2.283
37687SOL    HW114893  14.638   2.715   2.354
37687SOL    HW214894  14.675   2.769   2.218
37688SOL     OW14895   7.734   3.218   4.367
37688SOL    HW114896   7.659   3.174   4.405
37688SOL    HW214897   7.782   3.149   4.321
37689SOL     OW14898   1.442   5.032   9.614
37689SOL    HW114899   1.501   5.051   9.686
37689SOL    HW214900   1.359   5.008   9.656
37690SOL     OW14901   8.646  11.929   2.936
37690SOL    HW114902   8.723  11.876   2.918
37690SOL    HW214903   8.626  11.912   3.028
37691SOL     OW14904  10.844  12.611   9.406
37691SOL    HW114905  10.899  12.589   9.331
37691SOL    HW214906  10.904  12.650   9.469
37692SOL     OW14907   2.166   1.213   2.710
37692SOL    HW114908   2.230   1.142   2.704
37692SOL    HW214909   2.139   1.228   2.619
37693SOL     OW14910   2.523  14.620  11.643
37693SOL    HW114911   2.583  14.695  11.644
37693SOL    HW214912   2.470  14.631  11.722
37694SOL     OW14913   3.644   5.836   2.166
37694SOL    HW114914   3.637   5.928   2.190
37694SOL    HW214915   3.671   5.837   2.074
37695SOL     OW14916  14.833   3.195   5.651
37695SOL    HW114917  14.850   3.166   5.740
37695SOL    HW214918  14.780   3.126   5.612
37696SOL     OW14919   9.046   1.832   1.286
37696SOL    HW114920   8.974   1.875   1.332
37696SOL    HW214921   9.120   1.839   1.346
37697SOL     OW14922   3.116  14.271   6.699
37697SOL    HW114923   3.034  14.232   6.667
37697SOL    HW214924   3.161  14.198   6.743
37698SOL     OW14925  10.455  11.714  10.392
37698SOL    HW114926  10.526  11.773  10.415
37698SOL    HW214927  10.408  11.700  10.474
37699SOL     OW14928   3.363   4.615  12.014
37699SOL    HW114929   3.274   4.598  11.981
37699SOL    HW214930   3.400   4.677  11.952
37700SOL     OW14931   4.629   7.773  14.484
37700SOL    HW114932   4.646   7.714  14.410
37700SOL    HW214933   4.698   7.751  14.548
37701SOL     OW14934   1.900   2.035   8.686
37701SOL    HW114935   1.952   1.975   8.739
37701SOL    HW214936   1.907   2.000   8.597
37702SOL     OW14937   6.113   4.946   9.173
37702SOL    HW114938   6.079   4.868   9.128
37702SOL    HW214939   6.203   4.923   9.195
37703SOL     OW14940   4.883   5.856   7.137
37703SOL    HW114941   4.791   5.864   7.162
37703SOL    HW214942   4.916   5.946   7.135
37704SOL     OW14943   9.286   4.116   6.950
37704SOL    HW114944   9.377   4.135   6.972
37704SOL    HW214945   9.235   4.158   7.020
37705SOL     OW14946   3.986   8.541   3.116
37705SOL    HW114947   3.945   8.482   3.054
37705SOL    HW214948   3.966   8.504   3.202
37706SOL     OW14949   9.290  11.603  13.471
37706SOL    HW114950   9.337  11.520  13.462
37706SOL    HW214951   9.358  11.670  13.467
37707SOL     OW14952  10.697   0.329   3.760
37707SOL    HW114953  10.750   0.308   3.683
37707SOL    HW214954  10.644   0.403   3.734
37708SOL     OW14955   4.308  11.855  14.789
37708SOL    HW114956   4.284  11.944  14.815
37708SOL    HW214957   4.388  11.866  14.738
37709SOL     OW14958   2.362   5.561   8.209
37709SOL    HW114959   2.382   5.477   8.169
37709SOL    HW214960   2.268   5.573   8.196
37710SOL     OW14961  13.390  12.118   4.348
37710SOL    HW114962  13.317  12.127   4.287
37710SOL    HW214963  13.386  12.198   4.401
37711SOL     OW14964   4.134   8.844   0.499
37711SOL    HW114965   4.052   8.818   0.541
37711SOL    HW214966   4.120   8.936   0.475
37712SOL     OW14967  12.212   3.606   5.394
37712SOL    HW114968  12.154   3.682   5.396
37712SOL    HW214969  12.214   3.580   5.302
37713SOL     OW14970  11.410   6.333  10.929
37713SOL    HW114971  11.437   6.252  10.886
37713SOL    HW214972  11.417   6.401  10.862
37714SOL     OW14973   2.063   1.973  14.709
37714SOL    HW114974   2.096   1.921  14.782
37714SOL    HW214975   2.010   1.911  14.658
37715SOL     OW14976   8.463  13.719   6.947
37715SOL    HW114977   8.533  13.753   7.002
37715SOL    HW214978   8.509  13.665   6.881
37716SOL     OW14979  11.221   5.939   2.076
37716SOL    HW114980  11.271   5.967   1.999
37716SOL    HW214981  11.133   5.974   2.061
37717SOL     OW14982   2.497   3.623  12.975
37717SOL    HW114983   2.505   3.694  12.912
37717SOL    HW214984   2.445   3.659  13.046
37718SOL     OW14985   4.955  14.019   8.572
37718SOL    HW114986   4.959  14.111   8.596
37718SOL    HW214987   5.002  14.014   8.489
37719SOL     OW14988  10.046  10.281   9.000
37719SOL    HW114989  10.109  10.309   8.935
37719SOL    HW214990  10.077  10.195   9.029
37720SOL     OW14991  11.519  12.719  14.847
37720SOL    HW114992  11.525  12.733  14.753
37720SOL    HW214993  11.442  12.664  14.859
37721SOL     OW14994   7.030  10.645  10.719
37721SOL    HW114995   7.073  10.564  10.690
37721SOL    HW214996   7.078  10.670  10.798
37722SOL     OW14997   7.419  12.601   7.428
37722SOL    HW114998   7.426  12.605   7.523
37722SOL    HW214999   7.414  12.507   7.409
37723SOL     OW15000   8.730  11.871   7.903
37723SOL    HW115001   8.775  11.905   7.825
37723SOL    HW215002   8.761  11.927   7.974
37724SOL     OW15003   7.908   9.594   0.673
37724SOL    HW115004   7.905   9.689   0.674
37724SOL    HW215005   7.904   9.569   0.765
37725SOL     OW15006   4.769  13.177   9.250
37725SOL    HW115007   4.760  13.082   9.246
37725SOL    HW215008   4.862  13.192   9.268
37726SOL     OW15009   2.455   5.557   0.612
37726SOL    HW115010   2.527   5.541   0.552
37726SOL    HW215011   2.440   5.651   0.608
37727SOL     OW15012   2.823   5.211   3.241
37727SOL    HW115013   2.893   5.273   3.222
37727SOL    HW215014   2.828   5.198   3.336
37728SOL     OW15015   6.723   9.418  13.996
37728SOL    HW115016   6.748   9.509  13.982
37728SOL    HW215017   6.806   9.369  13.995
37729SOL     OW15018  14.040   7.047   3.922
37729SOL    HW115019  14.014   7.102   3.849
37729SOL    HW215020  13.958   7.023   3.965
37730SOL     OW15021   3.963  10.140   6.137
37730SOL    HW115022   4.031  10.081   6.103
37730SOL    HW215023   3.989  10.227   6.107
37731SOL     OW15024   6.862  10.256   7.719
37731SOL    HW115025   6.802  10.184   7.699
37731SOL    HW215026   6.883  10.295   7.634
37732SOL     OW15027  14.668   0.544  12.407
37732SOL    HW115028  14.692   0.632  12.380
37732SOL    HW215029  14.574   0.537  12.387
37733SOL     OW15030   9.342   6.212   6.297
37733SOL    HW115031   9.299   6.155   6.360
37733SOL    HW215032   9.324   6.172   6.212
37734SOL     OW15033   7.745  10.050  10.576
37734SOL    HW115034   7.744  10.127  10.632
37734SOL    HW215035   7.653  10.024  10.571
37735SOL     OW15036   5.174   2.900  12.886
37735SOL    HW115037   5.105   2.957  12.852
37735SOL    HW215038   5.128   2.820  12.911
37736SOL     OW15039   6.739   6.314   0.741
37736SOL    HW115040   6.763   6.285   0.653
37736SOL    HW215041   6.737   6.234   0.793
37737SOL     OW15042  11.541   2.424   8.860
37737SOL    HW115043  11.472   2.445   8.797
37737SOL    HW215044  11.617   2.475   8.832
37738SOL     OW15045   1.941   3.722   3.621
37738SOL    HW115046   1.869   3.785   3.616
37738SOL    HW215047   1.990   3.735   3.540
37739SOL     OW15048   8.645   9.104   6.578
37739SOL    HW115049   8.580   9.146   6.522
37739SOL    HW215050   8.637   9.149   6.663
37740SOL     OW15051  10.428  14.143   8.863
37740SOL    HW115052  10.370  14.109   8.932
37740SOL    HW215053  10.468  14.065   8.825
37741SOL     OW15054   5.355  14.715  14.653
37741SOL    HW115055   5.328  14.710  14.745
37741SOL    HW215056   5.357  14.624  14.624
37742SOL     OW15057  10.930   5.304  14.427
37742SOL    HW115058  10.856   5.297  14.366
37742SOL    HW215059  10.990   5.234  14.400
37743SOL     OW15060  11.522   8.118   7.945
37743SOL    HW115061  11.482   8.032   7.931
37743SOL    HW215062  11.469   8.178   7.893
37744SOL     OW15063   5.778   8.551  10.875
37744SOL    HW115064   5.785   8.500  10.956
37744SOL    HW215065   5.752   8.488  10.808
37745SOL     OW15066   3.633  11.372  12.813
37745SOL    HW115067   3.561  11.341  12.868
37745SOL    HW215068   3.681  11.292  12.788
37746SOL     OW15069   7.134   4.301   3.940
37746SOL    HW115070   7.227   4.308   3.920
37746SOL    HW215071   7.112   4.209   3.923
37747SOL     OW15072  10.448   4.550   9.828
37747SOL    HW115073  10.504   4.623   9.803
37747SOL    HW215074  10.382   4.590   9.885
37748SOL     OW15075   3.587  12.492   5.451
37748SOL    HW115076   3.565  12.579   5.486
37748SOL    HW215077   3.660  12.462   5.505
37749SOL     OW15078  13.019   2.771   5.807
37749SOL    HW115079  12.937   2.722   5.813
37749SOL    HW215080  13.000   2.854   5.851
37750SOL     OW15081  11.296  11.155   5.169
37750SOL    HW115082  11.392  11.164   5.168
37750SOL    HW215083  11.265  11.219   5.105
37751SOL     OW15084   8.777   3.676  10.133
37751SOL    HW115085   8.751   3.721  10.213
37751SOL    HW215086   8.723   3.714  10.064
37752SOL     OW15087   7.349   0.987  14.119
37752SOL    HW115088   7.307   1.061  14.075
37752SOL    HW215089   7.402   0.946  14.051
37753SOL     OW15090   1.448   0.573   4.197
37753SOL    HW115091   1.483   0.603   4.281
37753SOL    HW215092   1.353   0.583   4.205
37754SOL     OW15093   1.677  12.238   2.747
37754SOL    HW115094   1.638  12.314   2.791
37754SOL    HW215095   1.604  12.177   2.735
37755SOL     OW15096   6.239  12.307   8.734
37755SOL    HW115097   6.216  12.384   8.681
37755SOL    HW215098   6.304  12.260   8.681
37756SOL     OW15099   2.848  14.846   6.241
37756SOL    HW115100   2.928  14.824   6.288
37756SOL    HW215101   2.864   0.057   6.205
37757SOL     OW15102   4.776   1.824  13.086
37757SOL    HW115103   4.692   1.862  13.062
37757SOL    HW215104   4.833   1.899  13.102
37758SOL     OW15105   2.447  11.422   7.484
37758SOL    HW115106   2.451  11.447   7.392
37758SOL    HW215107   2.354  11.402   7.500
37759SOL     OW15108   9.367  14.308  12.459
37759SOL    HW115109   9.374  14.302  12.364
37759SOL    HW215110   9.272  14.302  12.476
37760SOL     OW15111   3.653  10.225   6.874
37760SOL    HW115112   3.720  10.289   6.897
37760SOL    HW215113   3.616  10.258   6.792
37761SOL     OW15114   2.087   4.593   5.265
37761SOL    HW115115   2.005   4.592   5.216
37761SOL    HW215116   2.155   4.579   5.200
37762SOL     OW15117  12.678   2.544   7.256
37762SOL    HW115118  12.631   2.465   7.281
37762SOL    HW215119  12.731   2.565   7.333
37763SOL     OW15120  11.747   2.908  14.643
37763SOL    HW115121  11.840   2.930  14.648
37763SOL    HW215122  11.703   2.992  14.633
37764SOL     OW15123  11.105   4.534   5.237
37764SOL    HW115124  11.128   4.491   5.319
37764SOL    HW215125  11.181   4.519   5.180
37765SOL     OW15126   7.829  14.107  14.640
37765SOL    HW115127   7.874  14.029  14.609
37765SOL    HW215128   7.849  14.111  14.733
37766SOL     OW15129  11.285  10.256   8.118
37766SOL    HW115130  11.286  10.220   8.207
37766SOL    HW215131  11.200  10.300   8.111
37767SOL     OW15132  13.905   5.741  11.736
37767SOL    HW115133  13.891   5.716  11.827
37767SOL    HW215134  13.944   5.664  11.695
37768SOL     OW15135   5.821   2.426   5.383
37768SOL    HW115136   5.779   2.433   5.468
37768SOL    HW215137   5.875   2.505   5.376
37769SOL     OW15138   8.727   8.217  10.676
37769SOL    HW115139   8.712   8.124  10.660
37769SOL    HW215140   8.821   8.226  10.688
37770SOL     OW15141   1.559   8.564   9.767
37770SOL    HW115142   1.518   8.491   9.813
37770SOL    HW215143   1.545   8.544   9.674
37771SOL     OW15144   6.130   5.067   7.187
37771SOL    HW115145   6.207   5.052   7.132
37771SOL    HW215146   6.127   5.162   7.198
37772SOL     OW15147   4.141   7.147   2.551
37772SOL    HW115148   4.087   7.198   2.490
37772SOL    HW215149   4.219   7.124   2.501
37773SOL     OW15150   4.967   5.970   3.097
37773SOL    HW115151   4.985   5.894   3.153
37773SOL    HW215152   5.029   6.036   3.127
37774SOL     OW15153  12.332   4.192   8.611
37774SOL    HW115154  12.366   4.184   8.700
37774SOL    HW215155  12.259   4.130   8.608
37775SOL     OW15156   6.708  14.828   0.999
37775SOL    HW115157   6.621  14.788   0.986
37775SOL    HW215158   6.691   0.029   1.053
37776SOL     OW15159   9.692   4.598   7.059
37776SOL    HW115160   9.645   4.636   7.133
37776SOL    HW215161   9.783   4.624   7.071
37777SOL     OW15162   2.247  12.296   2.444
37777SOL    HW115163   2.218  12.295   2.535
37777SOL    HW215164   2.167  12.293   2.393
37778SOL     OW15165   6.545   6.482   6.332
37778SOL    HW115166   6.497   6.549   6.283
37778SOL    HW215167   6.631   6.479   6.290
37779SOL     OW15168   1.164  12.487   5.240
37779SOL    HW115169   1.214  12.416   5.280
37779SOL    HW215170   1.175  12.561   5.300
37780SOL     OW15171  12.391  10.453  11.513
37780SOL    HW115172  12.348  10.470  11.430
37780SOL    HW215173  12.421  10.539  11.542
37781SOL     OW15174   1.718  10.330  13.603
37781SOL    HW115175   1.661  10.402  13.632
37781SOL    HW215176   1.796  10.374  13.570
37782SOL     OW15177   1.336  12.347   4.276
37782SOL    HW115178   1.266  12.363   4.213
37782SOL    HW215179   1.370  12.261   4.253
37783SOL     OW15180  12.281   2.687  13.642
37783SOL    HW115181  12.340   2.615  13.619
37783SOL    HW215182  12.287   2.748  13.568
37784SOL     OW15183   8.419  14.712  14.028
37784SOL    HW115184   8.498  14.665  14.055
37784SOL    HW215185   8.416  14.789  14.086
37785SOL     OW15186   8.842   6.189   0.333
37785SOL    HW115187   8.904   6.259   0.313
37785SOL    HW215188   8.869   6.116   0.277
37786SOL     OW15189  11.882   6.691   6.552
37786SOL    HW115190  11.798   6.648   6.534
37786SOL    HW215191  11.925   6.633   6.616
37787SOL     OW15192   0.293   7.014   2.112
37787SOL    HW115193   0.372   7.061   2.084
37787SOL    HW215194   0.283   7.037   2.204
37788SOL     OW15195   9.138   6.325   3.806
37788SOL    HW115196   9.050   6.287   3.815
37788SOL    HW215197   9.153   6.371   3.888
37789SOL     OW15198  12.762  10.602   2.940
37789SOL    HW115199  12.681  10.615   2.891
37789SOL    HW215200  12.780  10.687   2.980
37790SOL     OW15201   1.408   4.059  14.840
37790SOL    HW115202   1.479   4.044   0.027
37790SOL    HW215203   1.329   4.061   0.018
37791SOL     OW15204  12.159  12.334   8.082
37791SOL    HW115205  12.214  12.259   8.105
37791SOL    HW215206  12.077  12.296   8.052
37792SOL     OW15207   7.242   3.522   3.906
37792SOL    HW115208   7.214   3.490   3.992
37792SOL    HW215209   7.173   3.582   3.879
37793SOL     OW15210   4.207  11.289   3.936
37793SOL    HW115211   4.265  11.365   3.942
37793SOL    HW215212   4.152  11.295   4.014
37794SOL     OW15213   5.003   6.866   3.480
37794SOL    HW115214   5.091   6.886   3.511
37794SOL    HW215215   5.011   6.781   3.436
37795SOL     OW15216   7.031  11.697   2.897
37795SOL    HW115217   7.119  11.694   2.860
37795SOL    HW215218   7.042  11.736   2.984
37796SOL     OW15219  11.328   7.107   0.875
37796SOL    HW115220  11.282   7.104   0.791
37796SOL    HW215221  11.346   7.016   0.896
37797SOL     OW15222  14.003   8.579   0.047
37797SOL    HW115223  14.086   8.572  14.875
37797SOL    HW215224  13.938   8.600  14.857
37798SOL     OW15225  13.696   1.786   9.689
37798SOL    HW115226  13.661   1.727   9.622
37798SOL    HW215227  13.752   1.846   9.640
37799SOL     OW15228  12.345   7.380   4.147
37799SOL    HW115229  12.320   7.384   4.054
37799SOL    HW215230  12.395   7.460   4.161
37800SOL     OW15231   6.881   1.334  11.219
37800SOL    HW115232   6.879   1.259  11.159
37800SOL    HW215233   6.827   1.306  11.293
37801SOL     OW15234   4.458   4.605   6.263
37801SOL    HW115235   4.371   4.614   6.302
37801SOL    HW215236   4.476   4.691   6.224
37802SOL     OW15237   1.839   0.727  14.469
37802SOL    HW115238   1.891   0.650  14.447
37802SOL    HW215239   1.776   0.696  14.533
37803SOL     OW15240   0.651   5.866  12.075
37803SOL    HW115241   0.696   5.898  11.996
37803SOL    HW215242   0.654   5.771  12.066
37804SOL     OW15243  13.503  11.318   3.180
37804SOL    HW115244  13.557  11.251   3.140
37804SOL    HW215245  13.499  11.294   3.272
37805SOL     OW15246  13.792  12.936   8.771
37805SOL    HW115247  13.746  12.875   8.715
37805SOL    HW215248  13.748  12.929   8.856
37806SOL     OW15249   3.827   8.633  13.251
37806SOL    HW115250   3.778   8.676  13.321
37806SOL    HW215251   3.771   8.562  13.222
37807SOL     OW15252  10.965   8.265  14.599
37807SOL    HW115253  10.958   8.241  14.506
37807SOL    HW215254  11.049   8.228  14.626
37808SOL     OW15255   9.263  11.231   3.150
37808SOL    HW115256   9.357  11.218   3.142
37808SOL    HW215257   9.241  11.296   3.084
37809SOL     OW15258   0.237  10.008   2.041
37809SOL    HW115259   0.278   9.994   1.955
37809SOL    HW215260   0.194  10.093   2.034
37810SOL     OW15261   1.285   3.515   6.762
37810SOL    HW115262   1.205   3.562   6.742
37810SOL    HW215263   1.348   3.545   6.696
37811SOL     OW15264   0.241   2.067   4.758
37811SOL    HW115265   0.298   2.132   4.718
37811SOL    HW215266   0.299   1.993   4.778
37812SOL     OW15267   4.885   0.017  12.196
37812SOL    HW115268   4.947  14.820  12.203
37812SOL    HW215269   4.820  14.863  12.132
37813SOL     OW15270  10.971   7.186   2.979
37813SOL    HW115271  10.963   7.278   3.004
37813SOL    HW215272  11.025   7.147   3.048
37814SOL     OW15273  10.022   3.989   6.551
37814SOL    HW115274  10.086   3.988   6.622
37814SOL    HW215275  10.006   3.897   6.531
37815SOL     OW15276   9.379  14.237  13.015
37815SOL    HW115277   9.412  14.192  12.937
37815SOL    HW215278   9.301  14.285  12.984
37816SOL     OW15279  14.672  14.452   1.359
37816SOL    HW115280  14.759  14.460   1.321
37816SOL    HW215281  14.669  14.519   1.427
37817SOL     OW15282  14.864  12.930   2.142
37817SOL    HW115283  14.772  12.904   2.141
37817SOL    HW215284   0.018  12.911   2.231
37818SOL     OW15285   3.143   1.499   1.921
37818SOL    HW115286   3.071   1.446   1.888
37818SOL    HW215287   3.133   1.583   1.877
37819SOL     OW15288   4.451   0.720   4.358
37819SOL    HW115289   4.477   0.629   4.370
37819SOL    HW215290   4.417   0.747   4.443
37820SOL     OW15291   6.829   8.113   5.751
37820SOL    HW115292   6.794   8.029   5.721
37820SOL    HW215293   6.761   8.149   5.807
37821SOL     OW15294   5.529  13.102   1.383
37821SOL    HW115295   5.602  13.086   1.322
37821SOL    HW215296   5.461  13.140   1.329
37822SOL     OW15297   1.028  11.278   6.717
37822SOL    HW115298   1.067  11.236   6.794
37822SOL    HW215299   0.996  11.362   6.750
37823SOL     OW15300   0.240   7.465   6.577
37823SOL    HW115301   0.160   7.483   6.627
37823SOL    HW215302   0.245   7.370   6.573
37824SOL     OW15303   2.737  12.412  12.409
37824SOL    HW115304   2.791  12.364  12.346
37824SOL    HW215305   2.729  12.500  12.371
37825SOL     OW15306   8.376   8.527   7.226
37825SOL    HW115307   8.470   8.528   7.211
37825SOL    HW215308   8.361   8.449   7.280
37826SOL     OW15309   4.304  14.758   9.048
37826SOL    HW115310   4.388  14.716   9.028
37826SOL    HW215311   4.275  14.794   8.964
37827SOL     OW15312   7.119  11.129   4.781
37827SOL    HW115313   7.055  11.075   4.736
37827SOL    HW215314   7.093  11.125   4.874
37828SOL     OW15315   5.737   4.228   8.329
37828SOL    HW115316   5.782   4.310   8.351
37828SOL    HW215317   5.785   4.194   8.253
37829SOL     OW15318   0.899   2.790   5.689
37829SOL    HW115319   0.899   2.753   5.777
37829SOL    HW215320   0.855   2.874   5.697
37830SOL     OW15321   4.913  10.969   9.320
37830SOL    HW115322   4.855  10.995   9.391
37830SOL    HW215323   4.995  11.017   9.336
37831SOL     OW15324  10.737   2.659  10.680
37831SOL    HW115325  10.645   2.686  10.687
37831SOL    HW215326  10.741   2.605  10.601
37832SOL     OW15327   0.714   2.566   1.968
37832SOL    HW115328   0.797   2.558   1.920
37832SOL    HW215329   0.735   2.536   2.056
37833SOL     OW15330   0.178   6.196   1.196
37833SOL    HW115331   0.124   6.263   1.153
37833SOL    HW215332   0.265   6.208   1.157
37834SOL     OW15333   4.957  14.499   9.754
37834SOL    HW115334   5.035  14.544   9.786
37834SOL    HW215335   4.933  14.545   9.674
37835SOL     OW15336  10.342   2.528   5.937
37835SOL    HW115337  10.350   2.620   5.959
37835SOL    HW215338  10.375   2.521   5.847
37836SOL     OW15339  12.835   6.581   3.274
37836SOL    HW115340  12.808   6.658   3.323
37836SOL    HW215341  12.921   6.559   3.309
37837SOL     OW15342  13.682   3.604   2.699
37837SOL    HW115343  13.763   3.627   2.744
37837SOL    HW215344  13.614   3.612   2.767
37838SOL     OW15345   6.667  11.633   5.719
37838SOL    HW115346   6.575  11.634   5.693
37838SOL    HW215347   6.665  11.610   5.812
37839SOL     OW15348   7.490   8.771   2.555
37839SOL    HW115349   7.503   8.860   2.587
37839SOL    HW215350   7.395   8.763   2.544
37840SOL     OW15351   2.101   0.581   9.183
37840SOL    HW115352   2.172   0.625   9.135
37840SOL    HW215353   2.122   0.595   9.275
37841SOL     OW15354  13.012   2.968   8.155
37841SOL    HW115355  12.952   2.899   8.128
37841SOL    HW215356  13.097   2.941   8.119
37842SOL     OW15357   7.318   6.665   7.502
37842SOL    HW115358   7.327   6.741   7.559
37842SOL    HW215359   7.406   6.627   7.497
37843SOL     OW15360   8.317   3.701  13.221
37843SOL    HW115361   8.276   3.721  13.305
37843SOL    HW215362   8.311   3.783  13.172
37844SOL     OW15363   6.844   3.380   1.282
37844SOL    HW115364   6.750   3.382   1.298
37844SOL    HW215365   6.873   3.469   1.303
37845SOL     OW15366   6.669  12.449   5.483
37845SOL    HW115367   6.598  12.387   5.473
37845SOL    HW215368   6.674  12.464   5.578
37846SOL     OW15369   8.327   9.823   3.346
37846SOL    HW115370   8.293   9.781   3.267
37846SOL    HW215371   8.297   9.767   3.418
37847SOL     OW15372   7.915   4.057   6.900
37847SOL    HW115373   7.905   4.022   6.811
37847SOL    HW215374   8.009   4.062   6.914
37848SOL     OW15375   3.234   3.995   6.921
37848SOL    HW115376   3.230   4.088   6.898
37848SOL    HW215377   3.231   3.993   7.016
37849SOL     OW15378  13.607   9.533  13.445
37849SOL    HW115379  13.534   9.471  13.454
37849SOL    HW215380  13.679   9.492  13.494
37850SOL     OW15381  12.479  11.334  12.196
37850SOL    HW115382  12.445  11.362  12.111
37850SOL    HW215383  12.513  11.246  12.181
37851SOL     OW15384  11.063  10.629   6.125
37851SOL    HW115385  11.013  10.582   6.059
37851SOL    HW215386  11.119  10.562   6.164
37852SOL     OW15387  10.288   4.133  14.179
37852SOL    HW115388  10.247   4.216  14.157
37852SOL    HW215389  10.215   4.075  14.201
37853SOL     OW15390  10.937   4.188  10.950
37853SOL    HW115391  10.950   4.125  10.879
37853SOL    HW215392  10.964   4.141  11.029
37854SOL     OW15393   5.372  13.656   3.293
37854SOL    HW115394   5.355  13.708   3.371
37854SOL    HW215395   5.308  13.687   3.229
37855SOL     OW15396   9.886   2.455   0.758
37855SOL    HW115397   9.906   2.386   0.821
37855SOL    HW215398   9.961   2.457   0.699
37856SOL     OW15399   5.971  10.894   1.033
37856SOL    HW115400   6.064  10.890   1.013
37856SOL    HW215401   5.936  10.811   1.001
37857SOL     OW15402   2.891   7.949   7.927
37857SOL    HW115403   2.908   8.028   7.979
37857SOL    HW215404   2.832   7.980   7.857
37858SOL     OW15405   4.911   4.037   1.564
37858SOL    HW115406   4.965   4.064   1.639
37858SOL    HW215407   4.858   3.965   1.598
37859SOL     OW15408   5.279  13.723   6.085
37859SOL    HW115409   5.367  13.760   6.085
37859SOL    HW215410   5.276  13.669   6.006
37860SOL     OW15411   8.961  14.132  10.482
37860SOL    HW115412   8.995  14.203  10.429
37860SOL    HW215413   9.027  14.063  10.476
37861SOL     OW15414  13.060  10.188   1.213
37861SOL    HW115415  13.082  10.109   1.263
37861SOL    HW215416  13.033  10.156   1.127
37862SOL     OW15417   3.295   8.377   3.255
37862SOL    HW115418   3.365   8.397   3.316
37862SOL    HW215419   3.221   8.431   3.284
37863SOL     OW15420   5.110  11.787   3.317
37863SOL    HW115421   5.099  11.698   3.350
37863SOL    HW215422   5.192  11.817   3.355
37864SOL     OW15423  11.522   3.162   7.558
37864SOL    HW115424  11.467   3.105   7.611
37864SOL    HW215425  11.494   3.251   7.581
37865SOL     OW15426  13.441  10.938   9.735
37865SOL    HW115427  13.356  10.959   9.694
37865SOL    HW215428  13.494  10.904   9.664
37866SOL     OW15429   1.031   0.063   6.077
37866SOL    HW115430   1.059  14.863   6.026
37866SOL    HW215431   0.953   0.033   6.123
37867SOL     OW15432   4.884  12.596   6.137
37867SOL    HW115433   4.898  12.597   6.042
37867SOL    HW215434   4.894  12.504   6.161
37868SOL     OW15435   6.657  12.468   1.226
37868SOL    HW115436   6.723  12.527   1.187
37868SOL    HW215437   6.679  12.465   1.319
37869SOL     OW15438   2.575  10.513   1.460
37869SOL    HW115439   2.563  10.435   1.405
37869SOL    HW215440   2.661  10.546   1.435
37870SOL     OW15441  13.991   0.072   9.988
37870SOL    HW115442  13.975  14.855  10.001
37870SOL    HW215443  13.963   0.114  10.070
37871SOL     OW15444   5.924   0.002  11.369
37871SOL    HW115445   6.002  14.832  11.400
37871SOL    HW215446   5.900   0.061  11.441
37872SOL     OW15447  12.223  12.306   6.913
37872SOL    HW115448  12.195  12.342   6.997
37872SOL    HW215449  12.190  12.369   6.848
37873SOL     OW15450   8.291   3.923   7.789
37873SOL    HW115451   8.247   4.008   7.788
37873SOL    HW215452   8.304   3.901   7.696
37874SOL     OW15453   3.106  14.035  10.688
37874SOL    HW115454   3.017  14.058  10.663
37874SOL    HW215455   3.116  13.944  10.661
37875SOL     OW15456   2.961   8.883  13.269
37875SOL    HW115457   2.876   8.925  13.256
37875SOL    HW215458   2.986   8.851  13.182
37876SOL     OW15459   8.185   2.454   5.766
37876SOL    HW115460   8.103   2.414   5.740
37876SOL    HW215461   8.247   2.427   5.699
37877SOL     OW15462   4.076  10.486   7.467
37877SOL    HW115463   4.121  10.473   7.551
37877SOL    HW215464   3.986  10.457   7.483
37878SOL     OW15465   5.791   4.697   8.107
37878SOL    HW115466   5.744   4.747   8.039
37878SOL    HW215467   5.846   4.761   8.151
37879SOL     OW15468  13.155   1.401   7.514
37879SOL    HW115469  13.176   1.346   7.438
37879SOL    HW215470  13.187   1.488   7.490
37880SOL     OW15471   5.611   3.657  12.365
37880SOL    HW115472   5.617   3.564  12.387
37880SOL    HW215473   5.694   3.676  12.322
37881SOL     OW15474   2.975   7.242   5.548
37881SOL    HW115475   3.031   7.169   5.574
37881SOL    HW215476   2.910   7.203   5.490
37882SOL     OW15477  14.585   9.421   4.176
37882SOL    HW115478  14.519   9.380   4.232
37882SOL    HW215479  14.564   9.391   4.088
37883SOL     OW15480   9.942  11.355   3.117
37883SOL    HW115481  10.026  11.314   3.140
37883SOL    HW215482   9.963  11.410   3.042
37884SOL     OW15483   2.054  14.521  13.839
37884SOL    HW115484   2.113  14.560  13.776
37884SOL    HW215485   2.030  14.437  13.800
37885SOL     OW15486   4.351   7.085   2.996
37885SOL    HW115487   4.315   7.068   2.908
37885SOL    HW215488   4.380   7.176   2.992
37886SOL     OW15489   8.572  12.834   1.394
37886SOL    HW115490   8.521  12.836   1.475
37886SOL    HW215491   8.511  12.798   1.329
37887SOL     OW15492   0.019   5.816   9.659
37887SOL    HW115493  14.840   5.758   9.606
37887SOL    HW215494   0.054   5.759   9.728
37888SOL     OW15495  14.207  11.075   8.955
37888SOL    HW115496  14.284  11.019   8.944
37888SOL    HW215497  14.237  11.148   9.010
37889SOL     OW15498   8.701   1.031   0.553
37889SOL    HW115499   8.734   1.042   0.464
37889SOL    HW215500   8.657   1.114   0.572
37890SOL     OW15501   7.875   5.472   5.261
37890SOL    HW115502   7.920   5.392   5.288
37890SOL    HW215503   7.895   5.481   5.168
37891SOL     OW15504   5.605  13.791   8.154
37891SOL    HW115505   5.511  13.771   8.157
37891SOL    HW215506   5.628  13.816   8.243
37892SOL     OW15507   9.944  12.956  14.801
37892SOL    HW115508  10.022  12.993  14.842
37892SOL    HW215509   9.971  12.869  14.772
37893SOL     OW15510   3.451   4.522  13.929
37893SOL    HW115511   3.472   4.606  13.889
37893SOL    HW215512   3.530   4.469  13.919
37894SOL     OW15513  12.230   2.476  10.058
37894SOL    HW115514  12.230   2.450  10.151
37894SOL    HW215515  12.152   2.531  10.049
37895SOL     OW15516  12.083  11.199   8.878
37895SOL    HW115517  12.044  11.279   8.843
37895SOL    HW215518  12.089  11.214   8.973
37896SOL     OW15519   8.969   1.056   3.248
37896SOL    HW115520   8.926   1.042   3.332
37896SOL    HW215521   8.900   1.039   3.183
37897SOL     OW15522   6.979   2.673  11.625
37897SOL    HW115523   7.006   2.753  11.580
37897SOL    HW215524   6.892   2.694  11.661
37898SOL     OW15525  14.534   6.519  14.333
37898SOL    HW115526  14.628   6.535  14.338
37898SOL    HW215527  14.522   6.471  14.251
37899SOL     OW15528   7.248   3.666  11.116
37899SOL    HW115529   7.317   3.604  11.142
37899SOL    HW215530   7.261   3.742  11.173
37900SOL     OW15531   5.590   5.200   2.486
37900SOL    HW115532   5.535   5.138   2.438
37900SOL    HW215533   5.550   5.286   2.469
37901SOL     OW15534   2.910   6.865   4.247
37901SOL    HW115535   2.929   6.955   4.221
37901SOL    HW215536   2.996   6.821   4.243
37902SOL     OW15537  10.557  10.985   6.527
37902SOL    HW115538  10.599  10.914   6.478
37902SOL    HW215539  10.567  10.959   6.619
37903SOL     OW15540   6.339   1.659   6.287
37903SOL    HW115541   6.251   1.630   6.264
37903SOL    HW215542   6.341   1.752   6.268
37904SOL     OW15543   5.200   1.341   1.064
37904SOL    HW115544   5.173   1.357   0.973
37904SOL    HW215545   5.290   1.374   1.068
37905SOL     OW15546  11.711  11.666   7.451
37905SOL    HW115547  11.775  11.667   7.380
37905SOL    HW215548  11.651  11.595   7.428
37906SOL     OW15549  10.637   3.137   7.377
37906SOL    HW115550  10.696   3.090   7.319
37906SOL    HW215551  10.689   3.156   7.454
37907SOL     OW15552  10.048   4.672   0.416
37907SOL    HW115553   9.991   4.705   0.485
37907SOL    HW215554   9.991   4.664   0.339
37908SOL     OW15555   4.381   0.283  13.458
37908SOL    HW115556   4.355   0.328  13.378
37908SOL    HW215557   4.443   0.216  13.429
37909SOL     OW15558   4.422   2.580  11.328
37909SOL    HW115559   4.514   2.558  11.345
37909SOL    HW215560   4.403   2.649  11.391
37910SOL     OW15561  11.355  10.843   9.258
37910SOL    HW115562  11.348  10.814   9.167
37910SOL    HW215563  11.402  10.773   9.302
37911SOL     OW15564   3.573   8.932  14.459
37911SOL    HW115565   3.632   8.899  14.390
37911SOL    HW215566   3.615   9.011  14.491
37912SOL     OW15567   0.659   6.465   0.260
37912SOL    HW115568   0.573   6.440   0.295
37912SOL    HW215569   0.700   6.513   0.332
37913SOL     OW15570  14.178   8.875   9.916
37913SOL    HW115571  14.146   8.854   9.829
37913SOL    HW215572  14.266   8.911   9.902
37914SOL     OW15573   5.740  11.049  11.312
37914SOL    HW115574   5.666  11.064  11.370
37914SOL    HW215575   5.817  11.072  11.364
37915SOL     OW15576   6.856   2.668  10.158
37915SOL    HW115577   6.796   2.737  10.132
37915SOL    HW215578   6.816   2.587  10.125
37916SOL     OW15579  11.639   2.978  11.287
37916SOL    HW115580  11.661   2.909  11.350
37916SOL    HW215581  11.548   2.999  11.304
37917SOL     OW15582   2.022   5.781   6.140
37917SOL    HW115583   2.092   5.770   6.076
37917SOL    HW215584   1.943   5.791   6.087
37918SOL     OW15585  13.933   3.253   1.173
37918SOL    HW115586  13.942   3.342   1.207
37918SOL    HW215587  13.938   3.197   1.251
37919SOL     OW15588   9.554   7.295   7.428
37919SOL    HW115589   9.518   7.206   7.424
37919SOL    HW215590   9.649   7.283   7.421
37920SOL     OW15591   1.123   3.359  11.789
37920SOL    HW115592   1.032   3.350  11.761
37920SOL    HW215593   1.144   3.276  11.832
37921SOL     OW15594   2.724   6.508  11.888
37921SOL    HW115595   2.728   6.555  11.805
37921SOL    HW215596   2.716   6.416  11.863
37922SOL     OW15597   0.436   2.174   8.313
37922SOL    HW115598   0.378   2.154   8.387
37922SOL    HW215599   0.502   2.233   8.350
37923SOL     OW15600   7.244   4.767   2.059
37923SOL    HW115601   7.150   4.755   2.045
37923SOL    HW215602   7.253   4.862   2.073
37924SOL     OW15603   7.457   6.197  14.846
37924SOL    HW115604   7.497   6.284  14.846
37924SOL    HW215605   7.434   6.181   0.061
37925SOL     OW15606  10.732  10.708  10.744
37925SOL    HW115607  10.816  10.663  10.740
37925SOL    HW215608  10.713  10.731  10.653
37926SOL     OW15609   8.478   6.654   9.146
37926SOL    HW115610   8.519   6.708   9.213
37926SOL    HW215611   8.440   6.717   9.084
37927SOL     OW15612  12.853   2.651   3.015
37927SOL    HW115613  12.797   2.719   3.052
37927SOL    HW215614  12.860   2.673   2.922
37928SOL     OW15615  11.252  13.207   5.308
37928SOL    HW115616  11.309  13.282   5.292
37928SOL    HW215617  11.164  13.243   5.312
37929SOL     OW15618   6.272   0.098   5.938
37929SOL    HW115619   6.208   0.122   5.871
37929SOL    HW215620   6.342   0.162   5.929
37930SOL     OW15621   8.946   7.683   4.313
37930SOL    HW115622   8.927   7.700   4.405
37930SOL    HW215623   8.891   7.745   4.265
37931SOL     OW15624  13.502   1.479  12.247
37931SOL    HW115625  13.569   1.412  12.259
37931SOL    HW215626  13.442   1.442  12.182
37932SOL     OW15627   8.517   1.863   1.253
37932SOL    HW115628   8.484   1.932   1.310
37932SOL    HW215629   8.560   1.802   1.312
37933SOL     OW15630   9.828   4.126   7.626
37933SOL    HW115631   9.890   4.073   7.576
37933SOL    HW215632   9.746   4.121   7.576
37934SOL     OW15633  11.822   5.356  12.942
37934SOL    HW115634  11.878   5.293  12.987
37934SOL    HW215635  11.790   5.310  12.864
37935SOL     OW15636   6.429   0.452  13.602
37935SOL    HW115637   6.427   0.514  13.675
37935SOL    HW215638   6.521   0.448  13.576
37936SOL     OW15639   4.032   1.328  13.827
37936SOL    HW115640   3.945   1.301  13.855
37936SOL    HW215641   4.092   1.269  13.872
37937SOL     OW15642  13.410   5.750   2.346
37937SOL    HW115643  13.317   5.773   2.347
37937SOL    HW215644  13.444   5.797   2.270
37938SOL     OW15645   6.404  13.868  12.016
37938SOL    HW115646   6.439  13.840  11.931
37938SOL    HW215647   6.360  13.951  11.998
37939SOL     OW15648   2.952   9.010  13.551
37939SOL    HW115649   2.955   9.075  13.481
37939SOL    HW215650   2.859   9.004  13.574
37940SOL     OW15651   2.402   9.827   1.767
37940SOL    HW115652   2.412   9.737   1.735
37940SOL    HW215653   2.346   9.818   1.844
37941SOL     OW15654   1.104   0.691   8.658
37941SOL    HW115655   1.189   0.729   8.635
37941SOL    HW215656   1.100   0.609   8.609
37942SOL     OW15657   2.464   8.622   3.667
37942SOL    HW115658   2.507   8.567   3.602
37942SOL    HW215659   2.410   8.682   3.616
37943SOL     OW15660  12.400   1.551   7.061
37943SOL    HW115661  12.308   1.558   7.034
37943SOL    HW215662  12.420   1.457   7.052
37944SOL     OW15663   8.851   5.140   6.670
37944SOL    HW115664   8.800   5.206   6.719
37944SOL    HW215665   8.853   5.173   6.581
37945SOL     OW15666  10.650   9.929   9.604
37945SOL    HW115667  10.664   9.994   9.673
37945SOL    HW215668  10.576   9.877   9.635
37946SOL     OW15669  14.116  11.409   4.371
37946SOL    HW115670  14.183  11.458   4.323
37946SOL    HW215671  14.035  11.424   4.322
37947SOL     OW15672   9.305   1.869  12.709
37947SOL    HW115673   9.229   1.817  12.737
37947SOL    HW215674   9.373   1.804  12.691
37948SOL     OW15675  10.448  14.127   0.776
37948SOL    HW115676  10.532  14.118   0.821
37948SOL    HW215677  10.461  14.199   0.715
37949SOL     OW15678  10.801  12.203   2.744
37949SOL    HW115679  10.835  12.168   2.827
37949SOL    HW215680  10.736  12.138   2.716
37950SOL     OW15681  14.684   1.360   4.812
37950SOL    HW115682  14.616   1.410   4.857
37950SOL    HW215683  14.758   1.359   4.873
37951SOL     OW15684   7.966  10.198  10.040
37951SOL    HW115685   7.978  10.261  10.112
37951SOL    HW215686   8.052  10.158  10.029
37952SOL     OW15687  12.283   3.138   6.135
37952SOL    HW115688  12.377   3.150   6.121
37952SOL    HW215689  12.271   3.044   6.142
37953SOL     OW15690   1.389   5.044  14.820
37953SOL    HW115691   1.359   5.124  14.778
37953SOL    HW215692   1.314   5.014  14.871
37954SOL     OW15693   7.396   3.536   7.546
37954SOL    HW115694   7.396   3.465   7.610
37954SOL    HW215695   7.481   3.579   7.558
37955SOL     OW15696   1.931  11.302  10.895
37955SOL    HW115697   1.908  11.343  10.979
37955SOL    HW215698   1.856  11.245  10.876
37956SOL     OW15699   9.783   1.852  10.940
37956SOL    HW115700   9.819   1.917  11.000
37956SOL    HW215701   9.851   1.839  10.874
37957SOL     OW15702   9.545  12.084  10.482
37957SOL    HW115703   9.507  12.171  10.492
37957SOL    HW215704   9.551  12.051  10.572
37958SOL     OW15705   2.233   4.758  13.451
37958SOL    HW115706   2.208   4.686  13.393
37958SOL    HW215707   2.307   4.724  13.501
37959SOL     OW15708  13.533  12.736   1.560
37959SOL    HW115709  13.596  12.696   1.621
37959SOL    HW215710  13.528  12.827   1.588
37960SOL     OW15711  11.938   1.282  13.557
37960SOL    HW115712  11.939   1.371  13.524
37960SOL    HW215713  11.846   1.256  13.557
37961SOL     OW15714   6.012   4.006  12.580
37961SOL    HW115715   6.088   4.059  12.557
37961SOL    HW215716   6.021   3.927  12.527
37962SOL     OW15717   8.911   5.395  10.892
37962SOL    HW115718   8.960   5.445  10.957
37962SOL    HW215719   8.960   5.409  10.811
37963SOL     OW15720   2.272  14.830   3.818
37963SOL    HW115721   2.342  14.819   3.882
37963SOL    HW215722   2.214  14.755   3.834
37964SOL     OW15723   1.218  13.535   6.748
37964SOL    HW115724   1.241  13.583   6.827
37964SOL    HW215725   1.300  13.496   6.718
37965SOL     OW15726   8.961   9.221  13.165
37965SOL    HW115727   8.949   9.278  13.089
37965SOL    HW215728   9.056   9.217  13.177
37966SOL     OW15729   8.771   0.427   0.879
37966SOL    HW115730   8.707   0.406   0.948
37966SOL    HW215731   8.824   0.498   0.917
37967SOL     OW15732   0.018   5.474   8.594
37967SOL    HW115733   0.101   5.506   8.559
37967SOL    HW215734  14.828   5.532   8.556
37968SOL     OW15735  14.818   6.573   1.600
37968SOL    HW115736  14.763   6.525   1.662
37968SOL    HW215737  14.865   6.637   1.654
37969SOL     OW15738   3.217   4.916   3.717
37969SOL    HW115739   3.297   4.866   3.699
37969SOL    HW215740   3.240   5.007   3.700
37970SOL     OW15741   0.918   1.773   4.283
37970SOL    HW115742   0.871   1.706   4.234
37970SOL    HW215743   0.870   1.854   4.266
37971SOL     OW15744  11.525   6.082   0.410
37971SOL    HW115745  11.584   6.096   0.336
37971SOL    HW215746  11.452   6.142   0.394
37972SOL     OW15747  12.052  11.766   4.862
37972SOL    HW115748  11.975  11.740   4.811
37972SOL    HW215749  12.022  11.842   4.913
37973SOL     OW15750   0.434   3.291   0.137
37973SOL    HW115751   0.477   3.227   0.080
37973SOL    HW215752   0.403   3.239   0.212
37974SOL     OW15753   0.660   7.478  14.471
37974SOL    HW115754   0.618   7.515  14.393
37974SOL    HW215755   0.753   7.481  14.451
37975SOL     OW15756   1.514  10.657   5.004
37975SOL    HW115757   1.581  10.653   4.935
37975SOL    HW215758   1.454  10.725   4.974
37976SOL     OW15759  11.906  12.210  13.511
37976SOL    HW115760  11.815  12.223  13.537
37976SOL    HW215761  11.919  12.115  13.514
37977SOL     OW15762   1.123  14.524   3.232
37977SOL    HW115763   1.094  14.553   3.318
37977SOL    HW215764   1.173  14.444   3.250
37978SOL     OW15765   9.194   7.999  13.813
37978SOL    HW115766   9.269   8.047  13.848
37978SOL    HW215767   9.233   7.936  13.752
37979SOL     OW15768   3.981  14.413   3.546
37979SOL    HW115769   3.903  14.421   3.601
37979SOL    HW215770   3.959  14.344   3.484
37980SOL     OW15771   2.247  11.304  13.805
37980SOL    HW115772   2.229  11.387  13.851
37980SOL    HW215773   2.244  11.238  13.874
37981SOL     OW15774   2.947  10.416   4.368
37981SOL    HW115775   3.028  10.366   4.360
37981SOL    HW215776   2.931  10.452   4.281
37982SOL     OW15777  12.527   4.945   1.806
37982SOL    HW115778  12.540   5.032   1.770
37982SOL    HW215779  12.614   4.919   1.836
37983SOL     OW15780  10.513   6.602   4.259
37983SOL    HW115781  10.497   6.559   4.343
37983SOL    HW215782  10.605   6.627   4.261
37984SOL     OW15783  10.235   5.285   2.148
37984SOL    HW115784  10.228   5.310   2.240
37984SOL    HW215785  10.260   5.193   2.150
37985SOL     OW15786   0.183  11.785   3.527
37985SOL    HW115787   0.176  11.742   3.612
37985SOL    HW215788   0.269  11.828   3.529
37986SOL     OW15789   5.684   5.880   7.269
37986SOL    HW115790   5.624   5.854   7.338
37986SOL    HW215791   5.688   5.804   7.211
37987SOL     OW15792   5.051   9.755   1.256
37987SOL    HW115793   5.104   9.805   1.194
37987SOL    HW215794   5.107   9.748   1.334
37988SOL     OW15795   2.823   8.585  11.000
37988SOL    HW115796   2.760   8.550  11.064
37988SOL    HW215797   2.810   8.680  11.004
37989SOL     OW15798   8.758  13.814   1.682
37989SOL    HW115799   8.671  13.840   1.652
37989SOL    HW215800   8.803  13.897   1.700
37990SOL     OW15801  10.627   4.088  12.867
37990SOL    HW115802  10.587   4.007  12.899
37990SOL    HW215803  10.607   4.090  12.773
37991SOL     OW15804  11.990   6.728  10.562
37991SOL    HW115805  12.037   6.696  10.639
37991SOL    HW215806  12.039   6.694  10.487
37992SOL     OW15807   4.157  13.283   6.549
37992SOL    HW115808   4.221  13.215   6.529
37992SOL    HW215809   4.072  13.238   6.548
37993SOL     OW15810   3.264   5.859   6.896
37993SOL    HW115811   3.356   5.868   6.920
37993SOL    HW215812   3.257   5.771   6.860
37994SOL     OW15813   4.167   9.049   7.914
37994SOL    HW115814   4.133   9.137   7.926
37994SOL    HW215815   4.161   9.009   8.001
37995SOL     OW15816   3.348   6.312   0.816
37995SOL    HW115817   3.372   6.377   0.881
37995SOL    HW215818   3.431   6.288   0.774
37996SOL     OW15819  11.774   3.276   7.992
37996SOL    HW115820  11.749   3.195   7.949
37996SOL    HW215821  11.691   3.322   8.007
37997SOL     OW15822   0.617   1.391   2.985
37997SOL    HW115823   0.661   1.431   2.910
37997SOL    HW215824   0.528   1.375   2.954
37998SOL     OW15825   1.342   9.521   3.792
37998SOL    HW115826   1.429   9.482   3.783
37998SOL    HW215827   1.357   9.615   3.784
37999SOL     OW15828   4.350   5.054   7.551
37999SOL    HW115829   4.421   5.111   7.580
37999SOL    HW215830   4.281   5.064   7.617
38000SOL     OW15831   5.605   8.577   7.020
38000SOL    HW115832   5.570   8.505   7.073
38000SOL    HW215833   5.541   8.587   6.949
38001SOL     OW15834   1.436   3.830  14.128
38001SOL    HW115835   1.409   3.746  14.165
38001SOL    HW215836   1.389   3.836  14.045
38002SOL     OW15837   8.424   1.888  12.886
38002SOL    HW115838   8.416   1.792  12.886
38002SOL    HW215839   8.483   1.907  12.959
38003SOL     OW15840   7.224   1.494  10.660
38003SOL    HW115841   7.256   1.571  10.707
38003SOL    HW215842   7.294   1.472  10.599
38004SOL     OW15843   1.668   4.991   2.400
38004SOL    HW115844   1.642   4.900   2.388
38004SOL    HW215845   1.589   5.042   2.385
38005SOL     OW15846   7.403  13.873   2.473
38005SOL    HW115847   7.410  13.802   2.409
38005SOL    HW215848   7.310  13.878   2.493
38006SOL     OW15849  11.931   0.242  14.480
38006SOL    HW115850  11.946   0.333  14.505
38006SOL    HW215851  11.836   0.230  14.488
38007SOL     OW15852  14.018  11.000  13.282
38007SOL    HW115853  13.936  11.043  13.256
38007SOL    HW215854  14.032  10.933  13.214
38008SOL     OW15855  11.129  13.793   7.157
38008SOL    HW115856  11.039  13.762   7.141
38008SOL    HW215857  11.147  13.853   7.085
38009SOL     OW15858   9.678   8.240   3.057
38009SOL    HW115859   9.692   8.335   3.047
38009SOL    HW215860   9.687   8.205   2.968
38010SOL     OW15861   3.159  11.460   2.216
38010SOL    HW115862   3.229  11.437   2.277
38010SOL    HW215863   3.179  11.549   2.189
38011SOL     OW15864   6.643   7.394   4.007
38011SOL    HW115865   6.609   7.418   4.094
38011SOL    HW215866   6.727   7.352   4.025
38012SOL     OW15867   1.487   2.412   6.350
38012SOL    HW115868   1.567   2.447   6.313
38012SOL    HW215869   1.424   2.484   6.344
38013SOL     OW15870  10.268   2.672  10.906
38013SOL    HW115871  10.223   2.743  10.951
38013SOL    HW215872  10.315   2.625  10.975
38014SOL     OW15873   4.433   3.897   7.270
38014SOL    HW115874   4.461   3.896   7.362
38014SOL    HW215875   4.505   3.940   7.224
38015SOL     OW15876   7.210   9.032   6.093
38015SOL    HW115877   7.141   8.968   6.111
38015SOL    HW215878   7.200   9.052   6.000
38016SOL     OW15879   0.252   5.065   8.303
38016SOL    HW115880   0.237   5.098   8.392
38016SOL    HW215881   0.208   5.130   8.247
38017SOL     OW15882   2.534   4.251   4.879
38017SOL    HW115883   2.474   4.267   4.806
38017SOL    HW215884   2.609   4.208   4.840
38018SOL     OW15885  14.727   1.040   1.638
38018SOL    HW115886  14.677   0.979   1.583
38018SOL    HW215887  14.746   0.990   1.717
38019SOL     OW15888  14.000   4.350  11.185
38019SOL    HW115889  13.934   4.413  11.213
38019SOL    HW215890  13.951   4.270  11.165
38020SOL     OW15891   2.589   4.055   5.234
38020SOL    HW115892   2.660   3.991   5.227
38020SOL    HW215893   2.512   4.010   5.201
38021SOL     OW15894   6.721  11.517   2.878
38021SOL    HW115895   6.727  11.562   2.962
38021SOL    HW215896   6.760  11.579   2.816
38022SOL     OW15897   3.723   0.686   9.101
38022SOL    HW115898   3.744   0.720   9.188
38022SOL    HW215899   3.686   0.762   9.054
38023SOL     OW15900   2.948   3.022   5.178
38023SOL    HW115901   2.958   3.087   5.109
38023SOL    HW215902   2.873   2.969   5.150
38024SOL     OW15903   9.346  14.855   6.186
38024SOL    HW115904   9.367  14.784   6.247
38024SOL    HW215905   9.431   0.010   6.155
38025SOL     OW15906  13.964  10.147   0.838
38025SOL    HW115907  14.041  10.185   0.797
38025SOL    HW215908  13.892  10.202   0.809
38026SOL     OW15909   8.541   9.785   6.764
38026SOL    HW115910   8.562   9.708   6.712
38026SOL    HW215911   8.560   9.859   6.706
38027SOL     OW15912   7.253   6.085  10.886
38027SOL    HW115913   7.326   6.066  10.828
38027SOL    HW215914   7.196   6.144  10.835
38028SOL     OW15915  12.442   0.714   1.149
38028SOL    HW115916  12.509   0.751   1.090
38028SOL    HW215917  12.485   0.710   1.234
38029SOL     OW15918  14.423   0.569   8.285
38029SOL    HW115919  14.373   0.532   8.357
38029SOL    HW215920  14.357   0.599   8.222
38030SOL     OW15921   9.488   4.172  13.584
38030SOL    HW115922   9.439   4.207  13.658
38030SOL    HW215923   9.517   4.249  13.536
38031SOL     OW15924  13.432  14.147  14.569
38031SOL    HW115925  13.418  14.144  14.475
38031SOL    HW215926  13.347  14.126  14.608
38032SOL     OW15927   3.220   8.360   6.450
38032SOL    HW115928   3.160   8.402   6.511
38032SOL    HW215929   3.307   8.371   6.490
38033SOL     OW15930   0.721   5.646  11.212
38033SOL    HW115931   0.772   5.583  11.263
38033SOL    HW215932   0.777   5.724  11.206
38034SOL     OW15933  10.693   9.105   7.277
38034SOL    HW115934  10.602   9.109   7.247
38034SOL    HW215935  10.737   9.177   7.232
38035SOL     OW15936  10.793  14.099   8.796
38035SOL    HW115937  10.832  14.116   8.882
38035SOL    HW215938  10.700  14.085   8.814
38036SOL     OW15939  11.194   0.476   7.935
38036SOL    HW115940  11.155   0.451   7.852
38036SOL    HW215941  11.121   0.511   7.987
38037SOL     OW15942   1.366   7.993   8.197
38037SOL    HW115943   1.421   8.069   8.212
38037SOL    HW215944   1.289   8.006   8.253
38038SOL     OW15945   8.173  11.661   5.854
38038SOL    HW115946   8.264  11.653   5.883
38038SOL    HW215947   8.172  11.620   5.768
38039SOL     OW15948  12.743   8.995  13.361
38039SOL    HW115949  12.836   8.990  13.342
38039SOL    HW215950  12.730   9.084  13.393
38040SOL     OW15951  11.873   1.487   7.890
38040SOL    HW115952  11.856   1.396   7.917
38040SOL    HW215953  11.846   1.489   7.798
38041SOL     OW15954  14.454   8.982   9.940
38041SOL    HW115955  14.491   8.922   9.874
38041SOL    HW215956  14.510   8.971  10.016
38042SOL     OW15957  10.411   0.309   9.476
38042SOL    HW115958  10.410   0.405   9.472
38042SOL    HW215959  10.348   0.281   9.409
38043SOL     OW15960   1.078   8.036   3.344
38043SOL    HW115961   1.027   8.078   3.414
38043SOL    HW215962   1.016   8.025   3.272
38044SOL     OW15963  13.196   5.620   1.137
38044SOL    HW115964  13.118   5.571   1.110
38044SOL    HW215965  13.168   5.666   1.216
38045SOL     OW15966   1.977  11.113   5.622
38045SOL    HW115967   1.968  11.092   5.715
38045SOL    HW215968   2.000  11.030   5.580
38046SOL     OW15969   8.769   1.895   7.581
38046SOL    HW115970   8.805   1.809   7.603
38046SOL    HW215971   8.794   1.951   7.654
38047SOL     OW15972  12.860   1.758   2.097
38047SOL    HW115973  12.892   1.793   2.013
38047SOL    HW215974  12.820   1.674   2.075
38048SOL     OW15975   6.643  10.095   1.029
38048SOL    HW115976   6.598  10.179   1.016
38048SOL    HW215977   6.705  10.112   1.100
38049SOL     OW15978  11.924   2.689   5.171
38049SOL    HW115979  11.910   2.666   5.080
38049SOL    HW215980  11.903   2.782   5.176
38050SOL     OW15981   4.145  13.109   9.039
38050SOL    HW115982   4.156  13.015   9.054
38050SOL    HW215983   4.052  13.119   9.021
38051SOL     OW15984   9.818   4.713   3.536
38051SOL    HW115985   9.779   4.730   3.450
38051SOL    HW215986   9.775   4.776   3.594
38052SOL     OW15987  11.588   2.718   9.014
38052SOL    HW115988  11.653   2.657   9.048
38052SOL    HW215989  11.581   2.785   9.082
38053SOL     OW15990  12.356  13.467  10.583
38053SOL    HW115991  12.382  13.396  10.641
38053SOL    HW215992  12.295  13.426  10.522
38054SOL     OW15993  12.072   6.563   3.587
38054SOL    HW115994  12.006   6.503   3.622
38054SOL    HW215995  12.121   6.511   3.523
38055SOL     OW15996  10.755   5.888   4.311
38055SOL    HW115997  10.758   5.930   4.397
38055SOL    HW215998  10.663   5.866   4.299
38056SOL     OW15999   8.547   0.576   2.958
38056SOL    HW116000   8.535   0.665   2.926
38056SOL    HW216001   8.592   0.531   2.886
38057SOL     OW16002   9.337  14.758   1.198
38057SOL    HW116003   9.295  14.680   1.163
38057SOL    HW216004   9.391  14.792   1.126
38058SOL     OW16005   2.298  12.156   8.323
38058SOL    HW116006   2.276  12.087   8.260
38058SOL    HW216007   2.247  12.231   8.294
38059SOL     OW16008  11.390   0.671   8.060
38059SOL    HW116009  11.320   0.629   8.009
38059SOL    HW216010  11.423   0.601   8.117
38060SOL     OW16011   3.060  11.166   1.362
38060SOL    HW116012   2.992  11.098   1.362
38060SOL    HW216013   3.118  11.142   1.291
38061SOL     OW16014  13.157   3.405  13.174
38061SOL    HW116015  13.139   3.334  13.235
38061SOL    HW216016  13.147   3.485  13.227
38062SOL     OW16017   5.097   2.449  14.819
38062SOL    HW116018   5.114   2.505  14.743
38062SOL    HW216019   5.158   2.479   0.010
38063SOL     OW16020   8.772   4.314   1.918
38063SOL    HW116021   8.830   4.247   1.883
38063SOL    HW216022   8.721   4.269   1.985
38064SOL     OW16023   6.762   9.183  13.535
38064SOL    HW116024   6.714   9.103  13.514
38064SOL    HW216025   6.712   9.253  13.492
38065SOL     OW16026   3.937   9.266  12.820
38065SOL    HW116027   3.926   9.172  12.838
38065SOL    HW216028   4.031   9.276  12.803
38066SOL     OW16029   7.212   3.704   9.531
38066SOL    HW116030   7.225   3.634   9.595
38066SOL    HW216031   7.185   3.659   9.451
38067SOL     OW16032   2.734   0.782  14.380
38067SOL    HW116033   2.733   0.694  14.418
38067SOL    HW216034   2.770   0.770  14.292
38068SOL     OW16035   4.231   5.853  11.627
38068SOL    HW116036   4.233   5.815  11.715
38068SOL    HW216037   4.317   5.895  11.618
38069SOL     OW16038   1.968   6.637  10.269
38069SOL    HW116039   2.045   6.584  10.250
38069SOL    HW216040   1.898   6.599  10.215
38070SOL     OW16041   8.973  13.540   5.600
38070SOL    HW116042   8.982  13.452   5.564
38070SOL    HW216043   9.033  13.594   5.547
38071SOL     OW16044   4.468   1.676   2.075
38071SOL    HW116045   4.417   1.756   2.060
38071SOL    HW216046   4.452   1.623   1.996
38072SOL     OW16047  11.734  10.115   9.418
38072SOL    HW116048  11.756  10.026   9.390
38072SOL    HW216049  11.803  10.170   9.381
38073SOL     OW16050   7.774   8.643   3.419
38073SOL    HW116051   7.869   8.653   3.409
38073SOL    HW216052   7.746   8.598   3.340
38074SOL     OW16053  11.392   6.742   5.436
38074SOL    HW116054  11.306   6.702   5.445
38074SOL    HW216055  11.400   6.799   5.513
38075SOL     OW16056   3.408   2.986   2.046
38075SOL    HW116057   3.324   3.007   2.006
38075SOL    HW216058   3.407   2.890   2.055
38076SOL     OW16059   6.984  12.981   5.155
38076SOL    HW116060   7.063  12.927   5.143
38076SOL    HW216061   6.972  13.025   5.071
38077SOL     OW16062  10.805   1.900  13.133
38077SOL    HW116063  10.741   1.899  13.205
38077SOL    HW216064  10.764   1.956  13.066
38078SOL     OW16065   7.255   0.147   4.564
38078SOL    HW116066   7.216   0.086   4.626
38078SOL    HW216067   7.180   0.185   4.517
38079SOL     OW16068   5.732  11.732  13.378
38079SOL    HW116069   5.703  11.756  13.289
38079SOL    HW216070   5.782  11.808  13.407
38080SOL     OW16071   0.266  14.567  12.713
38080SOL    HW116072   0.331  14.547  12.781
38080SOL    HW216073   0.317  14.591  12.637
38081SOL     OW16074   7.912  10.678   4.059
38081SOL    HW116075   7.831  10.673   4.110
38081SOL    HW216076   7.947  10.589   4.058
38082SOL     OW16077   2.122   0.380   1.683
38082SOL    HW116078   2.188   0.317   1.710
38082SOL    HW216079   2.122   0.446   1.753
38083SOL     OW16080  11.610   3.502   7.600
38083SOL    HW116081  11.669   3.576   7.613
38083SOL    HW216082  11.599   3.496   7.505
38084SOL     OW16083   7.525  10.951  10.081
38084SOL    HW116084   7.494  11.019  10.020
38084SOL    HW216085   7.606  10.919  10.042
38085SOL     OW16086   4.128  14.489   8.262
38085SOL    HW116087   4.046  14.453   8.295
38085SOL    HW216088   4.195  14.424   8.286
38086SOL     OW16089  10.361   0.756   7.403
38086SOL    HW116090  10.364   0.689   7.335
38086SOL    HW216091  10.439   0.809   7.388
38087SOL     OW16092   5.540   1.472   5.294
38087SOL    HW116093   5.450   1.472   5.262
38087SOL    HW216094   5.537   1.518   5.378
38088SOL     OW16095   7.032   9.921   0.878
38088SOL    HW116096   7.013   9.978   0.953
38088SOL    HW216097   7.044   9.834   0.917
38089SOL     OW16098   0.008   2.975  11.664
38089SOL    HW116099   0.055   2.939  11.740
38089SOL    HW216100  14.795   2.941  11.672
38090SOL     OW16101  12.959   5.209   1.319
38090SOL    HW116102  12.901   5.133   1.331
38090SOL    HW216103  12.960   5.252   1.404
38091SOL     OW16104   5.345  14.080   5.034
38091SOL    HW116105   5.402  14.010   5.001
38091SOL    HW216106   5.383  14.104   5.118
38092SOL     OW16107  12.391  10.653   3.476
38092SOL    HW116108  12.335  10.721   3.439
38092SOL    HW216109  12.332  10.580   3.492
38093SOL     OW16110   8.538   8.568  12.172
38093SOL    HW116111   8.510   8.480  12.197
38093SOL    HW216112   8.503   8.580  12.083
38094SOL     OW16113   5.321   0.495   3.510
38094SOL    HW116114   5.369   0.559   3.457
38094SOL    HW216115   5.230   0.501   3.479
38095SOL     OW16116   3.761   2.947   3.542
38095SOL    HW116117   3.853   2.922   3.550
38095SOL    HW216118   3.757   2.994   3.459
38096SOL     OW16119   3.567  12.522   2.828
38096SOL    HW116120   3.485  12.571   2.838
38096SOL    HW216121   3.634  12.581   2.863
38097SOL     OW16122   8.754   8.888   8.157
38097SOL    HW116123   8.782   8.974   8.189
38097SOL    HW216124   8.783   8.886   8.066
38098SOL     OW16125  11.589  10.742   5.908
38098SOL    HW116126  11.563  10.778   5.824
38098SOL    HW216127  11.660  10.681   5.888
38099SOL     OW16128  10.224   7.459  12.011
38099SOL    HW116129  10.227   7.364  12.023
38099SOL    HW216130  10.130   7.480  12.007
38100SOL     OW16131  12.560   2.366  10.233
38100SOL    HW116132  12.628   2.419  10.275
38100SOL    HW216133  12.503   2.430  10.190
38101SOL     OW16134   9.448   8.624  13.344
38101SOL    HW116135   9.527   8.676  13.354
38101SOL    HW216136   9.376   8.684  13.364
38102SOL     OW16137   5.434   4.102   0.452
38102SOL    HW116138   5.415   4.160   0.378
38102SOL    HW216139   5.398   4.149   0.528
38103SOL     OW16140   2.813   0.173   5.881
38103SOL    HW116141   2.782   0.229   5.810
38103SOL    HW216142   2.884   0.122   5.842
38104SOL     OW16143   3.382  11.689   6.411
38104SOL    HW116144   3.417  11.721   6.494
38104SOL    HW216145   3.300  11.738   6.400
38105SOL     OW16146   0.566   7.098   2.142
38105SOL    HW116147   0.625   7.158   2.187
38105SOL    HW216148   0.594   7.011   2.170
38106SOL     OW16149   3.708   3.484   4.341
38106SOL    HW116150   3.652   3.456   4.268
38106SOL    HW216151   3.768   3.411   4.354
38107SOL     OW16152   8.063  12.815   7.893
38107SOL    HW116153   8.106  12.747   7.841
38107SOL    HW216154   7.971  12.807   7.871
38108SOL     OW16155  13.293   9.608   4.476
38108SOL    HW116156  13.358   9.590   4.544
38108SOL    HW216157  13.300   9.702   4.461
38109SOL     OW16158   6.717  14.100   6.593
38109SOL    HW116159   6.667  14.022   6.568
38109SOL    HW216160   6.679  14.171   6.542
38110SOL     OW16161   5.705   1.807   2.552
38110SOL    HW116162   5.710   1.720   2.592
38110SOL    HW216163   5.787   1.815   2.504
38111SOL     OW16164   8.404   6.833   7.503
38111SOL    HW116165   8.372   6.856   7.416
38111SOL    HW216166   8.330   6.849   7.561
38112SOL     OW16167  14.356   3.975  10.882
38112SOL    HW116168  14.371   4.040  10.813
38112SOL    HW216169  14.364   4.024  10.964
38113SOL     OW16170  12.145  10.656   1.175
38113SOL    HW116171  12.071  10.715   1.161
38113SOL    HW216172  12.166  10.621   1.089
38114SOL     OW16173   5.115   1.653   5.628
38114SOL    HW116174   5.126   1.746   5.647
38114SOL    HW216175   5.087   1.614   5.711
38115SOL     OW16176   8.220   9.747  10.544
38115SOL    HW116177   8.266   9.775  10.623
38115SOL    HW216178   8.132   9.784  10.554
38116SOL     OW16179  12.152   9.082   8.882
38116SOL    HW116180  12.076   9.129   8.849
38116SOL    HW216181  12.225   9.116   8.829
38117SOL     OW16182   1.197   6.335   8.212
38117SOL    HW116183   1.183   6.414   8.160
38117SOL    HW216184   1.286   6.307   8.192
38118SOL     OW16185   9.647   3.515  10.376
38118SOL    HW116186   9.576   3.579  10.374
38118SOL    HW216187   9.603   3.431  10.365
38119SOL     OW16188   7.606   0.420   4.979
38119SOL    HW116189   7.544   0.372   4.925
38119SOL    HW216190   7.557   0.496   5.012
38120SOL     OW16191   5.942   9.479   9.106
38120SOL    HW116192   5.889   9.457   9.029
38120SOL    HW216193   5.939   9.400   9.160
38121SOL     OW16194  11.223  13.370  14.760
38121SOL    HW116195  11.180  13.428  14.696
38121SOL    HW216196  11.317  13.382  14.743
38122SOL     OW16197   5.521   9.322   0.786
38122SOL    HW116198   5.597   9.283   0.742
38122SOL    HW216199   5.525   9.289   0.876
38123SOL     OW16200   5.932   8.614   3.073
38123SOL    HW116201   5.940   8.523   3.102
38123SOL    HW216202   5.943   8.666   3.153
38124SOL     OW16203  13.652   8.521  10.745
38124SOL    HW116204  13.732   8.561  10.779
38124SOL    HW216205  13.583   8.553  10.803
38125SOL     OW16206   0.034   4.003   1.453
38125SOL    HW116207   0.119   3.999   1.497
38125SOL    HW216208   0.036   4.086   1.405
38126SOL     OW16209  14.480   0.158   3.760
38126SOL    HW116210  14.531   0.102   3.700
38126SOL    HW216211  14.483   0.112   3.844
38127SOL     OW16212   4.283  10.047  12.727
38127SOL    HW116213   4.282  10.100  12.648
38127SOL    HW216214   4.264   9.958  12.697
38128SOL     OW16215   4.212   1.027  13.724
38128SOL    HW116216   4.278   0.986  13.669
38128SOL    HW216217   4.130   0.985  13.699
38129SOL     OW16218  10.074  14.508   8.169
38129SOL    HW116219  10.115  14.434   8.124
38129SOL    HW216220  10.049  14.473   8.255
38130SOL     OW16221  14.432   2.098   1.677
38130SOL    HW116222  14.352   2.138   1.711
38130SOL    HW216223  14.420   2.095   1.582
38131SOL     OW16224   9.085  12.377   9.277
38131SOL    HW116225   9.171  12.350   9.307
38131SOL    HW216226   9.023  12.324   9.328
38132SOL     OW16227   4.603  12.052  11.498
38132SOL    HW116228   4.692  12.041  11.464
38132SOL    HW216229   4.547  12.016  11.429
38133SOL     OW16230   9.252   4.880   7.912
38133SOL    HW116231   9.164   4.890   7.949
38133SOL    HW216232   9.310   4.922   7.976
38134SOL     OW16233   0.747  10.536   5.602
38134SOL    HW116234   0.738  10.498   5.514
38134SOL    HW216235   0.832  10.504   5.633
38135SOL     OW16236   0.893   8.725   2.181
38135SOL    HW116237   0.885   8.808   2.229
38135SOL    HW216238   0.804   8.690   2.177
38136SOL     OW16239  13.782   7.064  10.335
38136SOL    HW116240  13.695   7.038  10.365
38136SOL    HW216241  13.830   6.982  10.326
38137SOL     OW16242  12.798   0.407   7.880
38137SOL    HW116243  12.784   0.490   7.834
38137SOL    HW216244  12.834   0.349   7.813
38138SOL     OW16245  14.563   8.860   1.573
38138SOL    HW116246  14.505   8.838   1.646
38138SOL    HW216247  14.505   8.863   1.497
38139SOL     OW16248  11.619  10.352   9.100
38139SOL    HW116249  11.701  10.304   9.088
38139SOL    HW216250  11.645  10.444   9.094
38140SOL     OW16251   4.151   4.063  13.415
38140SOL    HW116252   4.120   3.977  13.441
38140SOL    HW216253   4.142   4.065  13.319
38141SOL     OW16254  10.049   7.657  11.556
38141SOL    HW116255  10.093   7.574  11.576
38141SOL    HW216256   9.956   7.640  11.576
38142SOL     OW16257  10.663  13.108   7.665
38142SOL    HW116258  10.613  13.040   7.711
38142SOL    HW216259  10.601  13.179   7.652
38143SOL     OW16260  10.039  10.108   8.578
38143SOL    HW116261  10.059  10.195   8.543
38143SOL    HW216262   9.943  10.102   8.571
38144SOL     OW16263   7.641   9.663   9.516
38144SOL    HW116264   7.658   9.621   9.601
38144SOL    HW216265   7.722   9.650   9.467
38145SOL     OW16266   5.380   8.901   8.647
38145SOL    HW116267   5.383   8.839   8.574
38145SOL    HW216268   5.431   8.859   8.716
38146SOL     OW16269  13.869  14.213  13.993
38146SOL    HW116270  13.899  14.179  14.077
38146SOL    HW216271  13.948  14.213  13.938
38147SOL     OW16272   2.665   7.484   6.385
38147SOL    HW116273   2.597   7.507   6.322
38147SOL    HW216274   2.703   7.403   6.350
38148SOL     OW16275   7.650  11.045  10.622
38148SOL    HW116276   7.603  11.051  10.539
38148SOL    HW216277   7.609  10.971  10.667
38149SOL     OW16278   0.600   1.014   6.035
38149SOL    HW116279   0.569   0.948   6.097
38149SOL    HW216280   0.659   1.069   6.086
38150SOL     OW16281   2.157   0.950   9.591
38150SOL    HW116282   2.102   1.028   9.586
38150SOL    HW216283   2.166   0.933   9.685
38151SOL     OW16284   2.690   5.366   6.897
38151SOL    HW116285   2.696   5.420   6.976
38151SOL    HW216286   2.670   5.279   6.929
38152SOL     OW16287   7.637   4.790   2.100
38152SOL    HW116288   7.609   4.719   2.043
38152SOL    HW216289   7.684   4.850   2.043
38153SOL     OW16290  10.149   8.661   8.635
38153SOL    HW116291  10.237   8.625   8.643
38153SOL    HW216292  10.139   8.717   8.712
38154SOL     OW16293  13.852   2.978   5.791
38154SOL    HW116294  13.918   2.909   5.782
38154SOL    HW216295  13.772   2.940   5.755
38155SOL     OW16296   9.008   7.324   9.458
38155SOL    HW116297   8.929   7.300   9.506
38155SOL    HW216298   8.988   7.409   9.419
38156SOL     OW16299   9.826  12.967   1.719
38156SOL    HW116300   9.771  12.933   1.648
38156SOL    HW216301   9.902  12.910   1.719
38157SOL     OW16302  11.775  11.604  12.443
38157SOL    HW116303  11.698  11.574  12.395
38157SOL    HW216304  11.813  11.525  12.481
38158SOL     OW16305  14.699   4.670   4.717
38158SOL    HW116306  14.606   4.648   4.719
38158SOL    HW216307  14.740   4.611   4.781
38159SOL     OW16308   6.666   9.387  13.341
38159SOL    HW116309   6.609   9.456  13.375
38159SOL    HW216310   6.734   9.433  13.292
38160SOL     OW16311   2.734   5.593   5.419
38160SOL    HW116312   2.765   5.683   5.429
38160SOL    HW216313   2.759   5.568   5.330
38161SOL     OW16314  11.623   5.429   2.656
38161SOL    HW116315  11.684   5.424   2.582
38161SOL    HW216316  11.551   5.483   2.624
38162SOL     OW16317   8.961   0.983  10.950
38162SOL    HW116318   8.979   1.051  10.884
38162SOL    HW216319   8.923   1.031  11.024
38163SOL     OW16320   3.927  14.471   6.721
38163SOL    HW116321   3.955  14.382   6.699
38163SOL    HW216322   3.996  14.528   6.684
38164SOL     OW16323   4.076   1.814   9.317
38164SOL    HW116324   4.170   1.835   9.309
38164SOL    HW216325   4.032   1.891   9.282
38165SOL     OW16326   1.360   0.120   8.349
38165SOL    HW116327   1.271   0.085   8.359
38165SOL    HW216328   1.403   0.102   8.432
38166SOL     OW16329  13.088   9.950   3.297
38166SOL    HW116330  13.004   9.996   3.309
38166SOL    HW216331  13.094   9.892   3.372
38167SOL     OW16332   2.042   7.023  12.191
38167SOL    HW116333   2.098   7.055  12.120
38167SOL    HW216334   1.961   7.074  12.183
38168SOL     OW16335  14.054   1.587  12.725
38168SOL    HW116336  14.146   1.574  12.748
38168SOL    HW216337  14.007   1.518  12.773
38169SOL     OW16338   5.482   7.016   6.698
38169SOL    HW116339   5.533   6.950   6.744
38169SOL    HW216340   5.546   7.065   6.647
38170SOL     OW16341   4.649  12.387  10.471
38170SOL    HW116342   4.637  12.298  10.436
38170SOL    HW216343   4.742  12.405  10.458
38171SOL     OW16344  13.539   5.979  13.707
38171SOL    HW116345  13.583   5.940  13.631
38171SOL    HW216346  13.603   5.971  13.778
38172SOL     OW16347   2.678   8.614   0.454
38172SOL    HW116348   2.735   8.661   0.515
38172SOL    HW216349   2.593   8.611   0.498
38173SOL     OW16350  14.147   2.090  11.115
38173SOL    HW116351  14.214   2.156  11.134
38173SOL    HW216352  14.197   2.012  11.088
38174SOL     OW16353  10.981   1.195   0.216
38174SOL    HW116354  10.989   1.114   0.167
38174SOL    HW216355  11.038   1.257   0.170
38175SOL     OW16356  10.818   9.805   6.509
38175SOL    HW116357  10.746   9.813   6.572
38175SOL    HW216358  10.841   9.712   6.511
38176SOL     OW16359   3.184  11.905   6.386
38176SOL    HW116360   3.195  11.994   6.353
38176SOL    HW216361   3.097  11.905   6.426
38177SOL     OW16362   6.987   0.954  11.700
38177SOL    HW116363   6.899   0.922  11.717
38177SOL    HW216364   6.990   0.966  11.605
38178SOL     OW16365   6.286   4.719   8.583
38178SOL    HW116366   6.191   4.709   8.572
38178SOL    HW216367   6.321   4.720   8.494
38179SOL     OW16368  11.927  13.896   8.646
38179SOL    HW116369  11.864  13.919   8.577
38179SOL    HW216370  11.997  13.849   8.599
38180SOL     OW16371   2.645   9.624   9.831
38180SOL    HW116372   2.714   9.652   9.770
38180SOL    HW216373   2.604   9.705   9.859
38181SOL     OW16374   2.037   3.679   9.778
38181SOL    HW116375   2.006   3.755   9.827
38181SOL    HW216376   2.111   3.646   9.828
38182SOL     OW16377  12.793   9.075   9.608
38182SOL    HW116378  12.776   9.150   9.665
38182SOL    HW216379  12.850   9.108   9.539
38183SOL     OW16380   2.152   7.054  11.492
38183SOL    HW116381   2.094   6.980  11.475
38183SOL    HW216382   2.121   7.124  11.435
38184SOL     OW16383   2.233   4.628  11.825
38184SOL    HW116384   2.158   4.678  11.794
38184SOL    HW216385   2.241   4.651  11.917
38185SOL     OW16386   2.766   6.582   0.313
38185SOL    HW116387   2.805   6.566   0.228
38185SOL    HW216388   2.688   6.527   0.314
38186SOL     OW16389   2.801   4.751   5.291
38186SOL    HW116390   2.723   4.696   5.296
38186SOL    HW216391   2.874   4.689   5.298
38187SOL     OW16392   6.865   0.877   5.993
38187SOL    HW116393   6.859   0.806   5.930
38187SOL    HW216394   6.952   0.869   6.031
38188SOL     OW16395  12.562   1.609  10.310
38188SOL    HW116396  12.559   1.704  10.300
38188SOL    HW216397  12.513   1.575  10.236
38189SOL     OW16398   2.189  13.650   1.932
38189SOL    HW116399   2.237  13.598   1.996
38189SOL    HW216400   2.250  13.719   1.907
38190SOL     OW16401  14.050   1.128  13.183
38190SOL    HW116402  13.988   1.060  13.211
38190SOL    HW216403  14.094   1.090  13.107
38191SOL     OW16404   4.253  12.905   5.846
38191SOL    HW116405   4.333  12.855   5.834
38191SOL    HW216406   4.272  12.990   5.807
38192SOL     OW16407   9.818   8.134  11.834
38192SOL    HW116408   9.910   8.159  11.825
38192SOL    HW216409   9.792   8.171  11.919
38193SOL     OW16410  13.743   4.237   5.911
38193SOL    HW116411  13.735   4.304   5.979
38193SOL    HW216412  13.804   4.173   5.947
38194SOL     OW16413  11.285   2.358  14.557
38194SOL    HW116414  11.376   2.388  14.556
38194SOL    HW216415  11.279   2.300  14.481
38195SOL     OW16416  13.237   2.847   4.538
38195SOL    HW116417  13.203   2.833   4.450
38195SOL    HW216418  13.282   2.931   4.534
38196SOL     OW16419   0.019   8.455  10.973
38196SOL    HW116420  14.813   8.502  10.988
38196SOL    HW216421   0.017   8.383  11.036
38197SOL     OW16422   6.804  12.985  11.430
38197SOL    HW116423   6.748  13.062  11.417
38197SOL    HW216424   6.879  13.000  11.373
38198SOL     OW16425   6.091   8.195  10.508
38198SOL    HW116426   6.052   8.113  10.477
38198SOL    HW216427   6.018   8.241  10.551
38199SOL     OW16428   3.445   6.693   3.650
38199SOL    HW116429   3.434   6.621   3.587
38199SOL    HW216430   3.375   6.754   3.628
38200SOL     OW16431  10.655   9.724   6.705
38200SOL    HW116432  10.576   9.670   6.705
38200SOL    HW216433  10.711   9.685   6.772
38201SOL     OW16434   2.667   1.544   0.924
38201SOL    HW116435   2.748   1.590   0.943
38201SOL    HW216436   2.693   1.467   0.873
38202SOL     OW16437   6.099   8.976   2.314
38202SOL    HW116438   6.158   9.016   2.250
38202SOL    HW216439   6.095   8.884   2.289
38203SOL     OW16440   8.260   0.855   0.996
38203SOL    HW116441   8.335   0.811   1.037
38203SOL    HW216442   8.191   0.789   0.998
38204SOL     OW16443   2.140  10.622   4.172
38204SOL    HW116444   2.206  10.654   4.112
38204SOL    HW216445   2.067  10.684   4.164
38205SOL     OW16446  13.626   6.896   8.678
38205SOL    HW116447  13.556   6.959   8.663
38205SOL    HW216448  13.706   6.941   8.649
38206SOL     OW16449  10.871   1.649  10.966
38206SOL    HW116450  10.797   1.709  10.951
38206SOL    HW216451  10.834   1.580  11.022
38207SOL     OW16452  10.517  12.053   4.331
38207SOL    HW116453  10.499  12.009   4.414
38207SOL    HW216454  10.468  12.002   4.266
38208SOL     OW16455  11.489   6.225   4.160
38208SOL    HW116456  11.450   6.283   4.227
38208SOL    HW216457  11.453   6.257   4.078
38209SOL     OW16458   3.080   3.785   2.170
38209SOL    HW116459   3.126   3.849   2.224
38209SOL    HW216460   3.039   3.726   2.233
38210SOL     OW16461   2.881   1.677   1.085
38210SOL    HW116462   2.925   1.592   1.074
38210SOL    HW216463   2.944   1.740   1.050
38211SOL     OW16464   8.495   4.646   0.119
38211SOL    HW116465   8.450   4.596   0.188
38211SOL    HW216466   8.561   4.585   0.086
38212SOL     OW16467   1.650   4.511   7.499
38212SOL    HW116468   1.568   4.556   7.521
38212SOL    HW216469   1.653   4.511   7.404
38213SOL     OW16470   0.097   5.335   9.057
38213SOL    HW116471   0.135   5.342   9.144
38213SOL    HW216472   0.029   5.268   9.065
38214SOL     OW16473   4.018   1.953   7.876
38214SOL    HW116474   3.977   1.894   7.813
38214SOL    HW216475   3.960   1.952   7.952
38215SOL     OW16476   1.758  11.063   5.312
38215SOL    HW116477   1.843  11.070   5.268
38215SOL    HW216478   1.747  10.970   5.329
38216SOL     OW16479   4.902   7.724   5.310
38216SOL    HW116480   4.938   7.770   5.235
38216SOL    HW216481   4.813   7.757   5.319
38217SOL     OW16482   3.009   0.270   4.216
38217SOL    HW116483   3.096   0.275   4.176
38217SOL    HW216484   3.024   0.229   4.301
38218SOL     OW16485  11.349  12.307   2.648
38218SOL    HW116486  11.332  12.366   2.722
38218SOL    HW216487  11.263  12.290   2.611
38219SOL     OW16488   0.783   0.754  13.574
38219SOL    HW116489   0.837   0.695  13.522
38219SOL    HW216490   0.768   0.707  13.657
38220SOL     OW16491   3.692  11.899   7.055
38220SOL    HW116492   3.732  11.839   7.118
38220SOL    HW216493   3.600  11.905   7.083
38221SOL     OW16494  13.056   0.731   1.207
38221SOL    HW116495  12.972   0.723   1.252
38221SOL    HW216496  13.033   0.729   1.114
38222SOL     OW16497  11.018  13.439  13.732
38222SOL    HW116498  11.107  13.472  13.741
38222SOL    HW216499  11.012  13.365  13.792
38223SOL     OW16500   4.644   8.433   2.450
38223SOL    HW116501   4.580   8.369   2.481
38223SOL    HW216502   4.666   8.485   2.527
38224SOL     OW16503   8.755   2.311  13.227
38224SOL    HW116504   8.786   2.312  13.317
38224SOL    HW216505   8.798   2.235  13.187
38225SOL     OW16506   4.104  13.623   4.763
38225SOL    HW116507   4.168  13.552   4.759
38225SOL    HW216508   4.157  13.703   4.761
38226SOL     OW16509   2.358   5.344  11.901
38226SOL    HW116510   2.388   5.432  11.882
38226SOL    HW216511   2.272   5.338  11.860
38227SOL     OW16512  12.809  11.048   4.465
38227SOL    HW116513  12.830  11.045   4.371
38227SOL    HW216514  12.848  10.968   4.500
38228SOL     OW16515   5.083  13.714   3.499
38228SOL    HW116516   5.127  13.660   3.565
38228SOL    HW216517   5.141  13.789   3.487
38229SOL     OW16518   9.331   3.284  10.843
38229SOL    HW116519   9.320   3.226  10.768
38229SOL    HW216520   9.246   3.286  10.886
38230SOL     OW16521   6.974  10.480   1.355
38230SOL    HW116522   6.910  10.531   1.405
38230SOL    HW216523   7.045  10.463   1.418
38231SOL     OW16524   8.404   9.395   9.158
38231SOL    HW116525   8.367   9.326   9.102
38231SOL    HW216526   8.495   9.370   9.170
38232SOL     OW16527   1.501   3.541   8.085
38232SOL    HW116528   1.443   3.563   8.158
38232SOL    HW216529   1.509   3.445   8.089
38233SOL     OW16530  12.545   5.966   6.757
38233SOL    HW116531  12.460   6.007   6.747
38233SOL    HW216532  12.568   5.935   6.669
38234SOL     OW16533   4.344  14.781  12.813
38234SOL    HW116534   4.292  14.847  12.768
38234SOL    HW216535   4.331  14.798  12.906
38235SOL     OW16536  11.206  11.102   1.250
38235SOL    HW116537  11.242  11.091   1.162
38235SOL    HW216538  11.282  11.094   1.308
38236SOL     OW16539   6.175  13.308   0.925
38236SOL    HW116540   6.146  13.311   1.016
38236SOL    HW216541   6.104  13.265   0.878
38237SOL     OW16542   7.939   8.750   6.264
38237SOL    HW116543   7.989   8.719   6.339
38237SOL    HW216544   7.943   8.678   6.201
38238SOL     OW16545   5.039   7.938   5.134
38238SOL    HW116546   5.072   7.941   5.044
38238SOL    HW216547   5.024   8.030   5.157
38239SOL     OW16548   1.484   6.794   9.704
38239SOL    HW116549   1.563   6.827   9.745
38239SOL    HW216550   1.471   6.849   9.627
38240SOL     OW16551  13.060   7.152  11.145
38240SOL    HW116552  13.021   7.214  11.206
38240SOL    HW216553  13.002   7.076  11.146
38241SOL     OW16554   4.266   1.086   1.981
38241SOL    HW116555   4.313   1.013   2.022
38241SOL    HW216556   4.192   1.044   1.936
38242SOL     OW16557  14.626   2.255   7.797
38242SOL    HW116558  14.573   2.223   7.870
38242SOL    HW216559  14.602   2.200   7.723
38243SOL     OW16560   1.022   1.096   6.829
38243SOL    HW116561   1.053   1.049   6.751
38243SOL    HW216562   1.011   1.186   6.799
38244SOL     OW16563  12.276   6.986  10.258
38244SOL    HW116564  12.181   6.971  10.263
38244SOL    HW216565  12.301   7.005  10.349
38245SOL     OW16566   7.656   7.793  14.763
38245SOL    HW116567   7.688   7.731  14.829
38245SOL    HW216568   7.733   7.846  14.741
38246SOL     OW16569   7.298  13.197  11.732
38246SOL    HW116570   7.273  13.278  11.776
38246SOL    HW216571   7.231  13.186  11.664
38247SOL     OW16572   9.992  11.720   5.346
38247SOL    HW116573   9.907  11.757   5.370
38247SOL    HW216574  10.048  11.738   5.421
38248SOL     OW16575  14.874   6.002   7.857
38248SOL    HW116576   0.004   6.082   7.909
38248SOL    HW216577   0.084   5.961   7.867
38249SOL     OW16578   8.092   0.066   6.022
38249SOL    HW116579   8.144  14.874   5.981
38249SOL    HW216580   8.099   0.141   5.963
38250SOL     OW16581   5.430   5.459   7.491
38250SOL    HW116582   5.513   5.480   7.535
38250SOL    HW216583   5.373   5.533   7.511
38251SOL     OW16584  10.597   9.442   5.910
38251SOL    HW116585  10.589   9.530   5.873
38251SOL    HW216586  10.508   9.419   5.937
38252SOL     OW16587   1.241   3.550  13.602
38252SOL    HW116588   1.279   3.527  13.518
38252SOL    HW216589   1.149   3.570  13.583
38253SOL     OW16590   6.801   3.618   1.695
38253SOL    HW116591   6.840   3.631   1.781
38253SOL    HW216592   6.708   3.603   1.713
38254SOL     OW16593   1.412   6.095  12.530
38254SOL    HW116594   1.489   6.084  12.475
38254SOL    HW216595   1.338   6.081  12.471
38255SOL     OW16596   3.054   5.890   4.822
38255SOL    HW116597   3.054   5.804   4.864
38255SOL    HW216598   3.101   5.877   4.740
38256SOL     OW16599   1.823   3.433   9.254
38256SOL    HW116600   1.813   3.497   9.183
38256SOL    HW216601   1.840   3.486   9.332
38257SOL     OW16602   8.579   7.780   1.396
38257SOL    HW116603   8.534   7.865   1.396
38257SOL    HW216604   8.667   7.800   1.364
38258SOL     OW16605  11.926   0.588   4.185
38258SOL    HW116606  11.865   0.607   4.256
38258SOL    HW216607  12.005   0.557   4.228
38259SOL     OW16608   3.996   4.119  11.703
38259SOL    HW116609   4.004   4.162  11.788
38259SOL    HW216610   4.085   4.116  11.669
38260SOL     OW16611   9.708   9.559  13.726
38260SOL    HW116612   9.680   9.650  13.716
38260SOL    HW216613   9.655   9.525  13.798
38261SOL     OW16614  11.599   5.428  13.069
38261SOL    HW116615  11.609   5.504  13.012
38261SOL    HW216616  11.675   5.373  13.051
38262SOL     OW16617   4.369   5.218  10.942
38262SOL    HW116618   4.378   5.303  10.898
38262SOL    HW216619   4.450   5.207  10.991
38263SOL     OW16620  14.371   6.856   8.475
38263SOL    HW116621  14.311   6.784   8.460
38263SOL    HW216622  14.320   6.920   8.525
38264SOL     OW16623   0.143   6.046  13.612
38264SOL    HW116624   0.156   5.970  13.556
38264SOL    HW216625   0.101   6.111  13.555
38265SOL     OW16626   2.728  12.407   1.092
38265SOL    HW116627   2.660  12.386   1.156
38265SOL    HW216628   2.707  12.354   1.015
38266SOL     OW16629   9.395  10.892   1.537
38266SOL    HW116630   9.386  10.984   1.559
38266SOL    HW216631   9.312  10.869   1.496
38267SOL     OW16632   8.225   1.221  12.113
38267SOL    HW116633   8.144   1.250  12.071
38267SOL    HW216634   8.289   1.287  12.089
38268SOL     OW16635   3.402  10.489   7.568
38268SOL    HW116636   3.325  10.506   7.514
38268SOL    HW216637   3.397  10.395   7.587
38269SOL     OW16638   2.209   0.976   3.196
38269SOL    HW116639   2.130   0.941   3.237
38269SOL    HW216640   2.178   1.015   3.114
38270SOL     OW16641  11.023   2.556   4.938
38270SOL    HW116642  11.119   2.557   4.931
38270SOL    HW216643  10.994   2.499   4.867
38271SOL     OW16644  12.671   2.330   0.477
38271SOL    HW116645  12.755   2.313   0.518
38271SOL    HW216646  12.677   2.421   0.446
38272SOL     OW16647   0.502  13.639   7.967
38272SOL    HW116648   0.515  13.546   7.985
38272SOL    HW216649   0.409  13.654   7.981
38273SOL     OW16650  14.454   5.331   2.697
38273SOL    HW116651  14.380   5.278   2.726
38273SOL    HW216652  14.466   5.396   2.767
38274SOL     OW16653  14.817  11.380   5.434
38274SOL    HW116654  14.751  11.445   5.459
38274SOL    HW216655  14.773  11.324   5.370
38275SOL     OW16656   7.154   3.929   8.326
38275SOL    HW116657   7.098   3.890   8.393
38275SOL    HW216658   7.243   3.908   8.355
38276SOL     OW16659   3.474   9.458  13.062
38276SOL    HW116660   3.404   9.403  13.025
38276SOL    HW216661   3.515   9.402  13.128
38277SOL     OW16662   4.036   6.521   8.008
38277SOL    HW116663   3.978   6.451   8.039
38277SOL    HW216664   4.122   6.481   8.003
38278SOL     OW16665   9.545   4.236   4.537
38278SOL    HW116666   9.481   4.177   4.497
38278SOL    HW216667   9.608   4.254   4.467
38279SOL     OW16668   6.952   3.176  14.197
38279SOL    HW116669   6.862   3.203  14.178
38279SOL    HW216670   6.946   3.082  14.214
38280SOL     OW16671   4.577  12.504  11.416
38280SOL    HW116672   4.584  12.460  11.331
38280SOL    HW216673   4.483  12.519  11.427
38281SOL     OW16674   2.338   7.976   5.627
38281SOL    HW116675   2.299   7.889   5.634
38281SOL    HW216676   2.399   7.981   5.701
38282SOL     OW16677  13.808  13.681   7.397
38282SOL    HW116678  13.865  13.609   7.369
38282SOL    HW216679  13.743  13.689   7.328
38283SOL     OW16680   2.423   6.907   5.327
38283SOL    HW116681   2.422   6.912   5.423
38283SOL    HW216682   2.347   6.852   5.305
38284SOL     OW16683   4.206  14.232  11.752
38284SOL    HW116684   4.218  14.218  11.846
38284SOL    HW216685   4.273  14.178  11.710
38285SOL     OW16686  11.461   8.338   9.022
38285SOL    HW116687  11.497   8.279   8.955
38285SOL    HW216688  11.385   8.291   9.058
38286SOL     OW16689  14.542  14.048   2.112
38286SOL    HW116690  14.530  14.040   2.207
38286SOL    HW216691  14.453  14.044   2.076
38287SOL     OW16692  11.111   9.346   0.655
38287SOL    HW116693  11.138   9.332   0.564
38287SOL    HW216694  11.178   9.301   0.707
38288SOL     OW16695  13.041  11.337  13.845
38288SOL    HW116696  13.016  11.419  13.888
38288SOL    HW216697  13.133  11.325  13.868
38289SOL     OW16698  11.508   3.318   8.037
38289SOL    HW116699  11.441   3.299   7.972
38289SOL    HW216700  11.460   3.351   8.113
38290SOL     OW16701   7.795  10.924   9.997
38290SOL    HW116702   7.861  10.993   9.989
38290SOL    HW216703   7.804  10.873   9.917
38291SOL     OW16704   0.367  13.523  11.119
38291SOL    HW116705   0.358  13.585  11.047
38291SOL    HW216706   0.288  13.468  11.115
38292SOL     OW16707   4.561   7.849   0.367
38292SOL    HW116708   4.483   7.904   0.364
38292SOL    HW216709   4.577   7.837   0.461
38293SOL     OW16710  11.109   8.956   8.077
38293SOL    HW116711  11.083   9.021   8.011
38293SOL    HW216712  11.146   8.884   8.026
38294SOL     OW16713  14.381   1.158  10.585
38294SOL    HW116714  14.389   1.158  10.681
38294SOL    HW216715  14.354   1.248  10.564
38295SOL     OW16716   0.081   9.672   7.300
38295SOL    HW116717   0.126   9.588   7.291
38295SOL    HW216718   0.016   9.673   7.230
38296SOL     OW16719   5.928  14.179   3.191
38296SOL    HW116720   5.979  14.234   3.252
38296SOL    HW216721   5.994  14.122   3.150
38297SOL     OW16722   2.329   7.407  11.301
38297SOL    HW116723   2.350   7.384  11.392
38297SOL    HW216724   2.368   7.493  11.288
38298SOL     OW16725   6.278   6.766   2.524
38298SOL    HW116726   6.295   6.682   2.566
38298SOL    HW216727   6.363   6.793   2.490
38299SOL     OW16728   4.154   5.374  13.215
38299SOL    HW116729   4.115   5.299  13.168
38299SOL    HW216730   4.132   5.358  13.307
38300SOL     OW16731   9.907   0.438   3.913
38300SOL    HW116732   9.863   0.421   3.996
38300SOL    HW216733   9.862   0.381   3.850
38301SOL     OW16734  12.308  10.550  12.327
38301SOL    HW116735  12.384  10.492  12.321
38301SOL    HW216736  12.239  10.504  12.279
38302SOL     OW16737   0.187   5.629   7.656
38302SOL    HW116738   0.240   5.659   7.582
38302SOL    HW216739   0.252   5.604   7.722
38303SOL     OW16740  13.190   0.267   5.446
38303SOL    HW116741  13.158   0.185   5.482
38303SOL    HW216742  13.156   0.269   5.357
38304SOL     OW16743  13.376  11.418  13.430
38304SOL    HW116744  13.417  11.501  13.405
38304SOL    HW216745  13.448  11.367  13.468
38305SOL     OW16746   0.592   3.605   2.333
38305SOL    HW116747   0.557   3.527   2.290
38305SOL    HW216748   0.516   3.662   2.345
38306SOL     OW16749  11.817  10.985   9.594
38306SOL    HW116750  11.854  10.967   9.680
38306SOL    HW216751  11.745  11.045   9.611
38307SOL     OW16752   2.789   4.783  14.447
38307SOL    HW116753   2.746   4.701  14.473
38307SOL    HW216754   2.718   4.839  14.418
38308SOL     OW16755   6.991   7.071  12.583
38308SOL    HW116756   6.938   7.066  12.503
38308SOL    HW216757   6.946   7.135  12.638
38309SOL     OW16758   8.556   3.711   5.302
38309SOL    HW116759   8.546   3.806   5.315
38309SOL    HW216760   8.476   3.674   5.339
38310SOL     OW16761   5.366   5.209   7.764
38310SOL    HW116762   5.434   5.276   7.767
38310SOL    HW216763   5.296   5.243   7.818
38311SOL     OW16764   4.162  13.164   8.543
38311SOL    HW116765   4.176  13.239   8.485
38311SOL    HW216766   4.091  13.115   8.502
38312SOL     OW16767   8.495   4.060   8.572
38312SOL    HW116768   8.521   4.150   8.594
38312SOL    HW216769   8.414   4.069   8.523
38313SOL     OW16770   2.520   2.469  14.477
38313SOL    HW116771   2.561   2.445  14.394
38313SOL    HW216772   2.426   2.470  14.457
38314SOL     OW16773  10.185   4.096   3.333
38314SOL    HW116774  10.227   4.025   3.381
38314SOL    HW216775  10.128   4.139   3.397
38315SOL     OW16776   4.491   6.820  10.460
38315SOL    HW116777   4.546   6.752  10.420
38315SOL    HW216778   4.546   6.898  10.461
38316SOL     OW16779   3.655   7.567  13.884
38316SOL    HW116780   3.601   7.516  13.823
38316SOL    HW216781   3.608   7.649  13.895
38317SOL     OW16782  14.689  11.729   0.408
38317SOL    HW116783  14.593  11.723   0.403
38317SOL    HW216784  14.706  11.821   0.427
38318SOL     OW16785   7.850   6.148  13.550
38318SOL    HW116786   7.834   6.114  13.462
38318SOL    HW216787   7.876   6.239  13.535
38319SOL     OW16788   1.066   5.015  13.184
38319SOL    HW116789   1.142   5.042  13.133
38319SOL    HW216790   1.057   4.922  13.167
38320SOL     OW16791   9.095   9.644  14.724
38320SOL    HW116792   9.045   9.725  14.741
38320SOL    HW216793   9.045   9.575  14.768
38321SOL     OW16794   2.670  12.543   2.518
38321SOL    HW116795   2.652  12.517   2.608
38321SOL    HW216796   2.760  12.514   2.503
38322SOL     OW16797   4.079   5.884   2.962
38322SOL    HW116798   4.122   5.865   3.045
38322SOL    HW216799   4.087   5.979   2.952
38323SOL     OW16800  14.339   5.391   6.227
38323SOL    HW116801  14.413   5.335   6.203
38323SOL    HW216802  14.364   5.428   6.311
38324SOL     OW16803  11.016  10.028   2.164
38324SOL    HW116804  10.941  10.054   2.217
38324SOL    HW216805  11.081  10.097   2.179
38325SOL     OW16806   2.142   3.502   4.302
38325SOL    HW116807   2.093   3.432   4.260
38325SOL    HW216808   2.232   3.469   4.308
38326SOL     OW16809  14.144   6.584   5.996
38326SOL    HW116810  14.143   6.671   5.956
38326SOL    HW216811  14.135   6.524   5.921
38327SOL     OW16812   0.231  12.067   9.106
38327SOL    HW116813   0.172  12.142   9.101
38327SOL    HW216814   0.217  12.021   9.023
38328SOL     OW16815  12.029  10.216   8.190
38328SOL    HW116816  12.032  10.291   8.251
38328SOL    HW216817  12.005  10.255   8.106
38329SOL     OW16818  11.427  13.599  12.907
38329SOL    HW116819  11.399  13.617  12.997
38329SOL    HW216820  11.488  13.526  12.916
38330SOL     OW16821   0.194  13.611   8.778
38330SOL    HW116822   0.201  13.576   8.689
38330SOL    HW216823   0.117  13.668   8.775
38331SOL     OW16824   4.190   7.428   2.122
38331SOL    HW116825   4.156   7.456   2.037
38331SOL    HW216826   4.205   7.510   2.170
38332SOL     OW16827  13.614   8.330  10.569
38332SOL    HW116828  13.684   8.274  10.604
38332SOL    HW216829  13.615   8.407  10.625
38333SOL     OW16830   0.011   9.438  12.563
38333SOL    HW116831   0.106   9.441  12.558
38333SOL    HW216832  14.860   9.408  12.476
38334SOL     OW16833   9.287  12.339   1.641
38334SOL    HW116834   9.194  12.336   1.665
38334SOL    HW216835   9.306  12.433   1.631
38335SOL     OW16836  12.109  12.533  12.437
38335SOL    HW116837  12.038  12.486  12.481
38335SOL    HW216838  12.123  12.484  12.356
38336SOL     OW16839   4.516  13.214  14.084
38336SOL    HW116840   4.584  13.181  14.142
38336SOL    HW216841   4.510  13.149  14.014
38337SOL     OW16842   0.621   3.840   6.491
38337SOL    HW116843   0.584   3.809   6.574
38337SOL    HW216844   0.598   3.773   6.427
38338SOL     OW16845   8.404   9.683  11.027
38338SOL    HW116846   8.474   9.653  10.968
38338SOL    HW216847   8.324   9.666  10.978
38339SOL     OW16848   3.005   7.532   0.508
38339SOL    HW116849   2.918   7.493   0.504
38339SOL    HW216850   3.056   7.482   0.444
38340SOL     OW16851   5.199   7.913  13.074
38340SOL    HW116852   5.145   7.901  12.996
38340SOL    HW216853   5.148   7.876  13.145
38341SOL     OW16854  13.199   4.711   8.687
38341SOL    HW116855  13.219   4.783   8.627
38341SOL    HW216856  13.250   4.730   8.766
38342SOL     OW16857   7.166  13.373  10.224
38342SOL    HW116858   7.148  13.463  10.250
38342SOL    HW216859   7.135  13.367  10.134
38343SOL     OW16860  10.446   7.936   4.611
38343SOL    HW116861  10.451   8.001   4.541
38343SOL    HW216862  10.468   7.984   4.690
38344SOL     OW16863   3.634   6.403   7.428
38344SOL    HW116864   3.617   6.352   7.508
38344SOL    HW216865   3.557   6.459   7.419
38345SOL     OW16866   6.077   2.838   1.687
38345SOL    HW116867   6.071   2.933   1.698
38345SOL    HW216868   6.156   2.825   1.633
38346SOL     OW16869  13.001  12.702   2.740
38346SOL    HW116870  12.953  12.619   2.735
38346SOL    HW216871  13.087  12.678   2.775
38347SOL     OW16872   5.578   6.466   8.601
38347SOL    HW116873   5.565   6.384   8.649
38347SOL    HW216874   5.630   6.441   8.525
38348SOL     OW16875   1.672  14.023   0.402
38348SOL    HW116876   1.674  13.939   0.356
38348SOL    HW216877   1.742  14.016   0.467
38349SOL     OW16878  13.488  14.637   3.630
38349SOL    HW116879  13.416  14.581   3.659
38349SOL    HW216880  13.544  14.579   3.578
38350SOL     OW16881  12.858  11.514   7.471
38350SOL    HW116882  12.825  11.434   7.512
38350SOL    HW216883  12.926  11.545   7.530
38351SOL     OW16884   6.854   2.366  11.745
38351SOL    HW116885   6.772   2.413  11.731
38351SOL    HW216886   6.836   2.277  11.715
38352SOL     OW16887   4.970   0.165   4.856
38352SOL    HW116888   5.049   0.201   4.896
38352SOL    HW216889   4.950   0.088   4.908
38353SOL     OW16890   9.046   7.319   8.601
38353SOL    HW116891   9.101   7.393   8.579
38353SOL    HW216892   9.031   7.274   8.518
38354SOL     OW16893   7.833   5.682   2.102
38354SOL    HW116894   7.916   5.668   2.058
38354SOL    HW216895   7.778   5.609   2.074
38355SOL     OW16896   7.350  11.453   1.358
38355SOL    HW116897   7.275  11.473   1.302
38355SOL    HW216898   7.316  11.394   1.425
38356SOL     OW16899   1.389   5.611   0.943
38356SOL    HW116900   1.379   5.639   1.034
38356SOL    HW216901   1.440   5.530   0.949
38357SOL     OW16902  12.184  13.462   3.085
38357SOL    HW116903  12.172  13.556   3.074
38357SOL    HW216904  12.278  13.448   3.068
38358SOL     OW16905   2.873  11.681   5.857
38358SOL    HW116906   2.818  11.603   5.858
38358SOL    HW216907   2.822  11.747   5.811
38359SOL     OW16908  10.533  11.459  11.678
38359SOL    HW116909  10.622  11.423  11.680
38359SOL    HW216910  10.507  11.465  11.770
38360SOL     OW16911   1.648   7.994   0.164
38360SOL    HW116912   1.675   8.081   0.194
38360SOL    HW216913   1.689   7.985   0.077
38361SOL     OW16914   0.584   4.336   6.477
38361SOL    HW116915   0.609   4.252   6.516
38361SOL    HW216916   0.490   4.341   6.490
38362SOL     OW16917   8.899   8.250   1.067
38362SOL    HW116918   8.904   8.261   1.162
38362SOL    HW216919   8.991   8.248   1.039
38363SOL     OW16920   7.954  14.335   0.236
38363SOL    HW116921   8.000  14.356   0.317
38363SOL    HW216922   8.021  14.297   0.179
38364SOL     OW16923  11.806   4.333   5.176
38364SOL    HW116924  11.739   4.392   5.211
38364SOL    HW216925  11.770   4.302   5.093
38365SOL     OW16926   9.633   1.826   9.197
38365SOL    HW116927   9.557   1.811   9.140
38365SOL    HW216928   9.609   1.904   9.247
38366SOL     OW16929  12.141   4.995   0.937
38366SOL    HW116930  12.163   5.056   0.867
38366SOL    HW216931  12.223   4.982   0.985
38367SOL     OW16932   0.378   2.073   2.493
38367SOL    HW116933   0.434   2.125   2.435
38367SOL    HW216934   0.368   2.127   2.571
38368SOL     OW16935   5.463   7.991   3.304
38368SOL    HW116936   5.513   8.034   3.374
38368SOL    HW216937   5.469   8.051   3.230
38369SOL     OW16938   3.962  12.158   9.455
38369SOL    HW116939   3.917  12.195   9.531
38369SOL    HW216940   4.033  12.106   9.493
38370SOL     OW16941   6.109   0.849  12.514
38370SOL    HW116942   6.024   0.887  12.538
38370SOL    HW216943   6.128   0.885  12.427
38371SOL     OW16944   8.173   2.027  10.649
38371SOL    HW116945   8.252   2.074  10.624
38371SOL    HW216946   8.201   1.935  10.656
38372SOL     OW16947   3.374   8.510   3.917
38372SOL    HW116948   3.441   8.558   3.868
38372SOL    HW216949   3.413   8.495   4.003
38373SOL     OW16950   6.499  13.916   4.039
38373SOL    HW116951   6.508  13.857   3.964
38373SOL    HW216952   6.414  13.895   4.076
38374SOL     OW16953   3.856   5.659   7.116
38374SOL    HW116954   3.926   5.682   7.054
38374SOL    HW216955   3.805   5.592   7.070
38375SOL     OW16956   6.547  13.751   6.992
38375SOL    HW116957   6.640  13.729   6.984
38375SOL    HW216958   6.529  13.743   7.086
38376SOL     OW16959   5.285   1.435   5.592
38376SOL    HW116960   5.372   1.468   5.573
38376SOL    HW216961   5.227   1.510   5.580
38377SOL     OW16962   8.213   0.868   5.558
38377SOL    HW116963   8.253   0.925   5.493
38377SOL    HW216964   8.277   0.863   5.629
38378SOL     OW16965   1.190   1.639   0.321
38378SOL    HW116966   1.272   1.610   0.361
38378SOL    HW216967   1.165   1.716   0.373
38379SOL     OW16968  10.852   1.207  14.370
38379SOL    HW116969  10.840   1.189  14.463
38379SOL    HW216970  10.871   1.301  14.366
38380SOL     OW16971   1.784  13.698   8.902
38380SOL    HW116972   1.729  13.723   8.828
38380SOL    HW216973   1.742  13.621   8.939
38381SOL     OW16974  12.934  12.208   2.923
38381SOL    HW116975  12.924  12.114   2.936
38381SOL    HW216976  13.005  12.216   2.859
38382SOL     OW16977  10.998   1.317   7.034
38382SOL    HW116978  11.010   1.327   7.129
38382SOL    HW216979  10.903   1.307   7.024
38383SOL     OW16980   2.977  11.994  12.194
38383SOL    HW116981   3.060  12.016  12.236
38383SOL    HW216982   3.000  11.931  12.126
38384SOL     OW16983  13.435   8.306  13.487
38384SOL    HW116984  13.389   8.377  13.532
38384SOL    HW216985  13.427   8.326  13.394
38385SOL     OW16986   6.244  11.974   9.668
38385SOL    HW116987   6.331  11.982   9.707
38385SOL    HW216988   6.219  11.883   9.683
38386SOL     OW16989   6.856   1.511  13.933
38386SOL    HW116990   6.784   1.539  13.877
38386SOL    HW216991   6.932   1.506  13.874
38387SOL     OW16992   2.182   6.648  14.651
38387SOL    HW116993   2.178   6.643  14.747
38387SOL    HW216994   2.093   6.632  14.622
38388SOL     OW16995   5.373   4.014   8.599
38388SOL    HW116996   5.312   4.044   8.666
38388SOL    HW216997   5.371   4.082   8.532
38389SOL     OW16998  14.533   4.859   2.051
38389SOL    HW116999  14.533   4.868   2.146
38389SOL    HW217000  14.448   4.820   2.030
38390SOL     OW17001  10.997   6.315  11.210
38390SOL    HW117002  10.933   6.248  11.234
38390SOL    HW217003  11.049   6.327  11.289
38391SOL     OW17004   4.870   1.357  11.755
38391SOL    HW117005   4.903   1.387  11.670
38391SOL    HW217006   4.788   1.312  11.735
38392SOL     OW17007   7.884   8.703   3.998
38392SOL    HW117008   7.937   8.769   3.953
38392SOL    HW217009   7.859   8.642   3.928
38393SOL     OW17010   5.066   5.619   0.124
38393SOL    HW117011   5.105   5.571   0.197
38393SOL    HW217012   5.041   5.552   0.061
38394SOL     OW17013  10.689   4.315  13.003
38394SOL    HW117014  10.678   4.229  12.964
38394SOL    HW217015  10.650   4.375  12.939
38395SOL     OW17016   8.986  14.747   1.594
38395SOL    HW117017   9.001  14.816   1.529
38395SOL    HW217018   9.073  14.720   1.622
38396SOL     OW17019  10.528   3.353   4.664
38396SOL    HW117020  10.587   3.405   4.718
38396SOL    HW217021  10.565   3.360   4.575
38397SOL     OW17022   6.087   6.666   5.056
38397SOL    HW117023   6.054   6.598   4.997
38397SOL    HW217024   6.043   6.649   5.139
38398SOL     OW17025   5.082  10.960   3.903
38398SOL    HW117026   5.063  11.053   3.913
38398SOL    HW217027   4.999  10.917   3.924
38399SOL     OW17028   1.572   8.954   1.597
38399SOL    HW117029   1.501   8.965   1.533
38399SOL    HW217030   1.528   8.928   1.678
38400SOL     OW17031   5.589   0.635   1.326
38400SOL    HW117032   5.631   0.713   1.361
38400SOL    HW217033   5.520   0.668   1.268
38401SOL     OW17034   0.338  10.495   6.540
38401SOL    HW117035   0.429  10.523   6.533
38401SOL    HW217036   0.300  10.555   6.604
38402SOL     OW17037   0.522   1.301   6.692
38402SOL    HW117038   0.540   1.318   6.785
38402SOL    HW217039   0.483   1.213   6.691
38403SOL     OW17040   9.330   8.784   2.076
38403SOL    HW117041   9.322   8.877   2.059
38403SOL    HW217042   9.254   8.763   2.131
38404SOL     OW17043   9.283  14.717  13.887
38404SOL    HW117044   9.213  14.654  13.906
38404SOL    HW217045   9.335  14.720  13.967
38405SOL     OW17046   5.398  10.828   4.250
38405SOL    HW117047   5.398  10.915   4.211
38405SOL    HW217048   5.320  10.786   4.214
38406SOL     OW17049  13.412   7.547   2.060
38406SOL    HW117050  13.500   7.564   2.025
38406SOL    HW217051  13.366   7.630   2.049
38407SOL     OW17052   6.969   9.117   3.373
38407SOL    HW117053   6.988   9.037   3.422
38407SOL    HW217054   7.039   9.177   3.397
38408SOL     OW17055   5.344   6.458   3.954
38408SOL    HW117056   5.306   6.372   3.935
38408SOL    HW217057   5.436   6.448   3.931
38409SOL     OW17058   8.786  12.842   3.394
38409SOL    HW117059   8.832  12.815   3.314
38409SOL    HW217060   8.780  12.762   3.446
38410SOL     OW17061   3.195  13.105   3.772
38410SOL    HW117062   3.277  13.110   3.820
38410SOL    HW217063   3.130  13.082   3.838
38411SOL     OW17064   1.664   4.066   2.845
38411SOL    HW117065   1.574   4.032   2.841
38411SOL    HW217066   1.677   4.087   2.938
38412SOL     OW17067   0.241   8.173   6.666
38412SOL    HW117068   0.281   8.098   6.711
38412SOL    HW217069   0.285   8.249   6.702
38413SOL     OW17070   3.609  13.437   7.604
38413SOL    HW117071   3.548  13.487   7.657
38413SOL    HW217072   3.661  13.387   7.667
38414SOL     OW17073  13.977   4.776   8.100
38414SOL    HW117074  14.040   4.847   8.109
38414SOL    HW217075  13.893   4.820   8.089
38415SOL     OW17076  11.643  13.723  13.166
38415SOL    HW117077  11.641  13.788  13.096
38415SOL    HW217078  11.563  13.739  13.217
38416SOL     OW17079   8.460   0.038  12.649
38416SOL    HW117080   8.517   0.057  12.575
38416SOL    HW217081   8.453  14.819  12.651
38417SOL     OW17082  12.285   9.208  10.694
38417SOL    HW117083  12.338   9.135  10.725
38417SOL    HW217084  12.274   9.264  10.772
38418SOL     OW17085  12.012   3.052  10.919
38418SOL    HW117086  11.969   2.974  10.884
38418SOL    HW217087  12.045   3.025  11.005
38419SOL     OW17088   4.496  11.458   0.471
38419SOL    HW117089   4.408  11.484   0.446
38419SOL    HW217090   4.552  11.528   0.437
38420SOL     OW17091   9.497   1.664  12.998
38420SOL    HW117092   9.515   1.577  13.034
38420SOL    HW217093   9.537   1.725  13.060
38421SOL     OW17094   8.317   8.041  10.739
38421SOL    HW117095   8.314   7.951  10.707
38421SOL    HW217096   8.384   8.083  10.686
38422SOL     OW17097  10.218   7.300  10.598
38422SOL    HW117098  10.293   7.255  10.635
38422SOL    HW217099  10.243   7.392  10.596
38423SOL     OW17100   5.907   4.936   7.047
38423SOL    HW117101   5.985   4.967   7.093
38423SOL    HW217102   5.868   4.870   7.105
38424SOL     OW17103   3.987   6.348   1.052
38424SOL    HW117104   4.031   6.286   1.110
38424SOL    HW217105   3.930   6.293   0.998
38425SOL     OW17106  14.258   6.586   5.169
38425SOL    HW117107  14.280   6.679   5.175
38425SOL    HW217108  14.342   6.541   5.181
38426SOL     OW17109   7.207   4.351   9.306
38426SOL    HW117110   7.216   4.440   9.270
38426SOL    HW217111   7.189   4.364   9.399
38427SOL     OW17112  13.553  11.487   5.534
38427SOL    HW117113  13.483  11.551   5.545
38427SOL    HW217114  13.629  11.538   5.506
38428SOL     OW17115   3.961   1.644   7.768
38428SOL    HW117116   3.895   1.704   7.732
38428SOL    HW217117   4.027   1.637   7.699
38429SOL     OW17118   0.097   3.181   7.553
38429SOL    HW117119   0.185   3.208   7.529
38429SOL    HW217120   0.057   3.260   7.592
38430SOL     OW17121   1.677   8.853  13.024
38430SOL    HW117122   1.644   8.865  13.113
38430SOL    HW217123   1.683   8.758  13.013
38431SOL     OW17124   3.062  11.372   5.227
38431SOL    HW117125   3.106  11.438   5.281
38431SOL    HW217126   2.990  11.341   5.282
38432SOL     OW17127  14.818  12.492   5.466
38432SOL    HW117128  14.725  12.514   5.461
38432SOL    HW217129  14.823  12.405   5.427
38433SOL     OW17130   1.385  13.287   8.840
38433SOL    HW117131   1.442  13.223   8.884
38433SOL    HW217132   1.341  13.237   8.772
38434SOL     OW17133   0.806   3.036   8.241
38434SOL    HW117134   0.839   2.948   8.263
38434SOL    HW217135   0.885   3.086   8.221
38435SOL     OW17136   6.053  11.661   4.966
38435SOL    HW117137   6.083  11.579   5.003
38435SOL    HW217138   6.070  11.652   4.872
38436SOL     OW17139  14.141  14.583   1.600
38436SOL    HW117140  14.093  14.665   1.587
38436SOL    HW217141  14.231  14.605   1.578
38437SOL     OW17142   1.846  12.766   5.275
38437SOL    HW117143   1.861  12.682   5.232
38437SOL    HW217144   1.927  12.815   5.260
38438SOL     OW17145  11.039   1.560   1.367
38438SOL    HW117146  10.978   1.549   1.295
38438SOL    HW217147  11.117   1.598   1.326
38439SOL     OW17148   8.210   1.533  11.835
38439SOL    HW117149   8.118   1.559  11.844
38439SOL    HW217150   8.207   1.450  11.789
38440SOL     OW17151  12.125   1.627   7.852
38440SOL    HW117152  12.048   1.604   7.904
38440SOL    HW217153  12.136   1.721   7.865
38441SOL     OW17154  13.883   9.730   6.304
38441SOL    HW117155  13.930   9.664   6.252
38441SOL    HW217156  13.907   9.814   6.264
38442SOL     OW17157  11.204   0.787  13.446
38442SOL    HW117158  11.158   0.736  13.513
38442SOL    HW217159  11.176   0.747  13.363
38443SOL     OW17160  10.913   4.166   3.189
38443SOL    HW117161  10.929   4.073   3.169
38443SOL    HW217162  10.963   4.213   3.123
38444SOL     OW17163  13.844   7.728  13.535
38444SOL    HW117164  13.913   7.724  13.468
38444SOL    HW217165  13.845   7.819  13.564
38445SOL     OW17166   3.084   8.628  13.741
38445SOL    HW117167   3.022   8.569  13.698
38445SOL    HW217168   3.039   8.653  13.822
38446SOL     OW17169  13.936   4.829   1.665
38446SOL    HW117170  14.006   4.806   1.605
38446SOL    HW217171  13.868   4.868   1.609
38447SOL     OW17172   2.975  12.235   0.722
38447SOL    HW117173   3.064  12.202   0.734
38447SOL    HW217174   2.932  12.172   0.665
38448SOL     OW17175  10.463   7.570  11.511
38448SOL    HW117176  10.542   7.536  11.553
38448SOL    HW217177  10.392   7.548  11.571
38449SOL     OW17178   2.686   7.232  10.903
38449SOL    HW117179   2.667   7.301  10.968
38449SOL    HW217180   2.675   7.276  10.819
38450SOL     OW17181   7.628  10.670   7.390
38450SOL    HW117182   7.579  10.675   7.471
38450SOL    HW217183   7.568  10.630   7.327
38451SOL     OW17184   5.621   8.977   1.347
38451SOL    HW117185   5.603   8.922   1.423
38451SOL    HW217186   5.557   9.048   1.354
38452SOL     OW17187   8.686   2.562  14.518
38452SOL    HW117188   8.676   2.477  14.476
38452SOL    HW217189   8.602   2.578  14.561
38453SOL     OW17190  11.610  12.540   5.887
38453SOL    HW117191  11.591  12.615   5.830
38453SOL    HW217192  11.706  12.535   5.886
38454SOL     OW17193   3.543   5.235  14.139
38454SOL    HW117194   3.634   5.214  14.161
38454SOL    HW217195   3.493   5.157  14.164
38455SOL     OW17196   0.537   7.451  10.705
38455SOL    HW117197   0.511   7.500  10.627
38455SOL    HW217198   0.630   7.436  10.694
38456SOL     OW17199   6.452   4.260  12.993
38456SOL    HW117200   6.415   4.220  12.914
38456SOL    HW217201   6.394   4.334  13.011
38457SOL     OW17202   8.572  12.191   4.040
38457SOL    HW117203   8.582  12.101   4.072
38457SOL    HW217204   8.628  12.243   4.097
38458SOL     OW17205   4.280  10.773   3.700
38458SOL    HW117206   4.361  10.736   3.736
38458SOL    HW217207   4.210  10.726   3.746
38459SOL     OW17208   2.102  10.448   7.997
38459SOL    HW117209   2.044  10.379   8.030
38459SOL    HW217210   2.045  10.504   7.944
38460SOL     OW17211   9.364   5.888   4.282
38460SOL    HW117212   9.361   5.873   4.188
38460SOL    HW217213   9.281   5.931   4.302
38461SOL     OW17214  13.666   2.407   6.825
38461SOL    HW117215  13.615   2.455   6.760
38461SOL    HW217216  13.715   2.474   6.873
38462SOL     OW17217  13.842  10.949  14.271
38462SOL    HW117218  13.765  10.892  14.272
38462SOL    HW217219  13.911  10.897  14.312
38463SOL     OW17220   0.118  11.913   6.425
38463SOL    HW117221   0.109  11.964   6.505
38463SOL    HW217222   0.158  11.831   6.454
38464SOL     OW17223  11.068  10.376  13.200
38464SOL    HW117224  11.145  10.395  13.145
38464SOL    HW217225  11.093  10.298  13.250
38465SOL     OW17226   8.124   9.371   4.266
38465SOL    HW117227   8.145   9.464   4.258
38465SOL    HW217228   8.135   9.336   4.178
38466SOL     OW17229   3.332   4.303   7.066
38466SOL    HW117230   3.349   4.282   7.158
38466SOL    HW217231   3.419   4.303   7.025
38467SOL     OW17232   9.962  12.438   6.867
38467SOL    HW117233   9.921  12.374   6.925
38467SOL    HW217234  10.038  12.391   6.831
38468SOL     OW17235  13.608   8.852   2.554
38468SOL    HW117236  13.544   8.895   2.611
38468SOL    HW217237  13.611   8.908   2.476
38469SOL     OW17238   1.247   3.043   6.742
38469SOL    HW117239   1.216   3.101   6.811
38469SOL    HW217240   1.208   2.958   6.763
38470SOL     OW17241   1.507   5.881  10.400
38470SOL    HW117242   1.501   5.786  10.402
38470SOL    HW217243   1.505   5.907  10.492
38471SOL     OW17244   4.077  12.970  13.274
38471SOL    HW117245   4.050  12.892  13.323
38471SOL    HW217246   4.101  13.034  13.342
38472SOL     OW17247  13.579   0.392   2.782
38472SOL    HW117248  13.602   0.484   2.797
38472SOL    HW217249  13.519   0.371   2.854
38473SOL     OW17250   5.620   2.330   0.491
38473SOL    HW117251   5.528   2.343   0.513
38473SOL    HW217252   5.658   2.290   0.570
38474SOL     OW17253   7.901   3.258  11.197
38474SOL    HW117254   7.961   3.185  11.181
38474SOL    HW217255   7.954   3.336  11.186
38475SOL     OW17256  12.932  13.621  12.956
38475SOL    HW117257  13.017  13.589  12.927
38475SOL    HW217258  12.874  13.545  12.948
38476SOL     OW17259  10.957  10.797  12.991
38476SOL    HW117260  11.005  10.760  13.065
38476SOL    HW217261  10.939  10.888  13.017
38477SOL     OW17262  13.926   4.496   6.939
38477SOL    HW117263  13.906   4.461   6.852
38477SOL    HW217264  13.924   4.420   6.997
38478SOL     OW17265  11.661  11.225   3.471
38478SOL    HW117266  11.652  11.307   3.422
38478SOL    HW217267  11.669  11.157   3.403
38479SOL     OW17268  13.480   7.440   5.019
38479SOL    HW117269  13.478   7.515   4.960
38479SOL    HW217270  13.555   7.389   4.991
38480SOL     OW17271  12.071   9.442   5.309
38480SOL    HW117272  12.059   9.402   5.395
38480SOL    HW217273  12.001   9.506   5.302
38481SOL     OW17274   6.687   7.824   0.640
38481SOL    HW117275   6.665   7.912   0.670
38481SOL    HW217276   6.603   7.785   0.616
38482SOL     OW17277   4.394   1.943   0.635
38482SOL    HW117278   4.303   1.932   0.663
38482SOL    HW217279   4.446   1.905   0.706
38483SOL     OW17280   6.116  14.821  10.320
38483SOL    HW117281   6.121  14.754  10.388
38483SOL    HW217282   6.028  14.858  10.329
38484SOL     OW17283   9.665  11.968   3.027
38484SOL    HW117284   9.584  11.940   2.984
38484SOL    HW217285   9.733  11.952   2.961
38485SOL     OW17286  12.851  12.412  11.402
38485SOL    HW117287  12.767  12.408  11.447
38485SOL    HW217288  12.915  12.387  11.469
38486SOL     OW17289  13.547   8.909   7.582
38486SOL    HW117290  13.536   8.852   7.658
38486SOL    HW217291  13.638   8.895   7.555
38487SOL     OW17292  13.026   5.171  14.507
38487SOL    HW117293  13.032   5.132  14.419
38487SOL    HW217294  13.116   5.173  14.538
38488SOL     OW17295  13.350  13.104  13.531
38488SOL    HW117296  13.428  13.145  13.567
38488SOL    HW217297  13.326  13.038  13.596
38489SOL     OW17298   9.600   3.182  11.175
38489SOL    HW117299   9.668   3.119  11.152
38489SOL    HW217300   9.610   3.253  11.112
38490SOL     OW17301   2.477  13.600   8.551
38490SOL    HW117302   2.524  13.679   8.580
38490SOL    HW217303   2.514  13.530   8.604
38491SOL     OW17304   8.328   3.160   3.986
38491SOL    HW117305   8.275   3.135   3.910
38491SOL    HW217306   8.418   3.147   3.958
38492SOL     OW17307   4.434   5.111  11.206
38492SOL    HW117308   4.459   5.053  11.134
38492SOL    HW217309   4.490   5.085  11.279
38493SOL     OW17310   3.826  10.912   6.130
38493SOL    HW117311   3.769  10.852   6.178
38493SOL    HW217312   3.913  10.897   6.166
38494SOL     OW17313   2.757  12.992   1.796
38494SOL    HW117314   2.739  13.079   1.833
38494SOL    HW217315   2.824  12.955   1.854
38495SOL     OW17316  13.973   9.904   3.375
38495SOL    HW117317  13.950   9.873   3.463
38495SOL    HW217318  14.050   9.852   3.351
38496SOL     OW17319  12.568   8.883   8.545
38496SOL    HW117320  12.642   8.928   8.503
38496SOL    HW217321  12.547   8.811   8.486
38497SOL     OW17322   9.690   9.850   3.929
38497SOL    HW117323   9.776   9.814   3.907
38497SOL    HW217324   9.662   9.801   4.006
38498SOL     OW17325   1.677   2.118   0.588
38498SOL    HW117326   1.585   2.111   0.563
38498SOL    HW217327   1.680   2.089   0.679
38499SOL     OW17328  14.197   2.730   8.619
38499SOL    HW117329  14.150   2.662   8.667
38499SOL    HW217330  14.241   2.683   8.548
38500SOL     OW17331  10.060   7.902  11.194
38500SOL    HW117332   9.968   7.925  11.180
38500SOL    HW217333  10.109   7.972  11.150
38501SOL     OW17334   9.207  13.392   3.170
38501SOL    HW117335   9.112  13.409   3.168
38501SOL    HW217336   9.224  13.341   3.091
38502SOL     OW17337   7.306  11.372   2.378
38502SOL    HW117338   7.327  11.409   2.292
38502SOL    HW217339   7.213  11.347   2.371
38503SOL     OW17340  11.900  10.879   3.208
38503SOL    HW117341  11.945  10.893   3.292
38503SOL    HW217342  11.943  10.940   3.148
38504SOL     OW17343   5.130   6.397   6.981
38504SOL    HW117344   5.140   6.405   6.886
38504SOL    HW217345   5.053   6.341   6.992
38505SOL     OW17346   1.802   9.836  11.387
38505SOL    HW117347   1.786   9.748  11.420
38505SOL    HW217348   1.898   9.843  11.381
38506SOL     OW17349  13.536   9.333   0.282
38506SOL    HW117350  13.546   9.280   0.202
38506SOL    HW217351  13.622   9.374   0.294
38507SOL     OW17352   9.292  13.862  13.992
38507SOL    HW117353   9.371  13.902  14.029
38507SOL    HW217354   9.246  13.825  14.067
38508SOL     OW17355  14.392   8.898  11.305
38508SOL    HW117356  14.469   8.928  11.255
38508SOL    HW217357  14.422   8.896  11.396
38509SOL     OW17358   3.932   0.016   5.951
38509SOL    HW117359   4.008  14.833   5.959
38509SOL    HW217360   3.916   0.021   5.856
38510SOL     OW17361  13.247  12.231   2.187
38510SOL    HW117362  13.181  12.166   2.209
38510SOL    HW217363  13.235  12.300   2.251
38511SOL     OW17364  14.195   1.680   4.803
38511SOL    HW117365  14.149   1.757   4.769
38511SOL    HW217366  14.281   1.713   4.829
38512SOL     OW17367   4.977  12.486   5.531
38512SOL    HW117368   4.983  12.507   5.438
38512SOL    HW217369   5.051  12.427   5.546
38513SOL     OW17370  11.835   9.457   8.660
38513SOL    HW117371  11.916   9.462   8.610
38513SOL    HW217372  11.767   9.446   8.594
38514SOL     OW17373   3.419   9.227  10.395
38514SOL    HW117374   3.392   9.318  10.409
38514SOL    HW217375   3.506   9.221  10.434
38515SOL     OW17376   3.629   9.968  14.452
38515SOL    HW117377   3.691  10.032  14.487
38515SOL    HW217378   3.645   9.967  14.358
38516SOL     OW17379  14.715  11.296   0.561
38516SOL    HW117380  14.729  11.285   0.467
38516SOL    HW217381  14.628  11.336   0.567
38517SOL     OW17382   3.726  10.331   4.940
38517SOL    HW117383   3.742  10.375   5.023
38517SOL    HW217384   3.719  10.238   4.963
38518SOL     OW17385  10.507   8.382   0.253
38518SOL    HW117386  10.583   8.439   0.264
38518SOL    HW217387  10.529   8.326   0.178
38519SOL     OW17388   4.726   2.829   3.334
38519SOL    HW117389   4.678   2.859   3.412
38519SOL    HW217390   4.712   2.898   3.269
38520SOL     OW17391  10.282  10.850  11.477
38520SOL    HW117392  10.203  10.870  11.528
38520SOL    HW217393  10.348  10.911  11.510
38521SOL     OW17394  14.809   9.120   8.964
38521SOL    HW117395  14.770   9.065   9.033
38521SOL    HW217396   0.018   9.145   9.000
38522SOL     OW17397  14.202   4.524   8.590
38522SOL    HW117398  14.195   4.432   8.563
38522SOL    HW217399  14.296   4.537   8.604
38523SOL     OW17400   1.618   5.068   8.120
38523SOL    HW117401   1.523   5.077   8.122
38523SOL    HW217402   1.638   5.054   8.027
38524SOL     OW17403   1.382  10.626   5.763
38524SOL    HW117404   1.346  10.644   5.676
38524SOL    HW217405   1.473  10.656   5.758
38525SOL     OW17406   2.110  13.839  11.028
38525SOL    HW117407   2.044  13.772  11.047
38525SOL    HW217408   2.159  13.848  11.110
38526SOL     OW17409   2.251  12.793   2.927
38526SOL    HW117410   2.264  12.698   2.926
38526SOL    HW217411   2.164  12.806   2.889
38527SOL     OW17412   3.819   1.036  14.761
38527SOL    HW117413   3.860   0.951  14.775
38527SOL    HW217414   3.768   1.052  14.840
38528SOL     OW17415  12.527  11.217  12.616
38528SOL    HW117416  12.468  11.180  12.681
38528SOL    HW217417  12.512  11.312  12.621
38529SOL     OW17418  13.151   7.786   1.659
38529SOL    HW117419  13.070   7.745   1.629
38529SOL    HW217420  13.165   7.858   1.598
38530SOL     OW17421   6.389   5.284   1.358
38530SOL    HW117422   6.304   5.240   1.363
38530SOL    HW217423   6.381   5.342   1.282
38531SOL     OW17424   1.974   8.430  12.997
38531SOL    HW117425   2.043   8.368  13.023
38531SOL    HW217426   2.011   8.516  13.015
38532SOL     OW17427  12.418   9.211   5.425
38532SOL    HW117428  12.390   9.290   5.379
38532SOL    HW217429  12.398   9.229   5.517
38533SOL     OW17430  14.075   8.191   9.678
38533SOL    HW117431  14.078   8.103   9.638
38533SOL    HW217432  13.986   8.198   9.712
38534SOL     OW17433  13.203  10.662   0.067
38534SOL    HW117434  13.197  10.757   0.068
38534SOL    HW217435  13.237  10.640  14.857
38535SOL     OW17436   9.300   1.159  13.836
38535SOL    HW117437   9.288   1.244  13.794
38535SOL    HW217438   9.345   1.106  13.769
38536SOL     OW17439  13.866   4.136   4.375
38536SOL    HW117440  13.817   4.077   4.318
38536SOL    HW217441  13.937   4.170   4.320
38537SOL     OW17442   8.726  14.194   5.943
38537SOL    HW117443   8.793  14.247   5.900
38537SOL    HW217444   8.716  14.234   6.029
38538SOL     OW17445   2.209   8.266  14.064
38538SOL    HW117446   2.196   8.212  13.986
38538SOL    HW217447   2.180   8.212  14.137
38539SOL     OW17448   9.097  10.017   3.296
38539SOL    HW117449   9.186  10.041   3.322
38539SOL    HW217450   9.102  10.003   3.202
38540SOL     OW17451   5.101   8.028  13.556
38540SOL    HW117452   5.173   8.053  13.498
38540SOL    HW217453   5.144   8.001  13.637
38541SOL     OW17454   5.192  14.747   7.223
38541SOL    HW117455   5.149  14.833   7.225
38541SOL    HW217456   5.170  14.708   7.308
38542SOL     OW17457   0.298   8.812  10.707
38542SOL    HW117458   0.383   8.769  10.710
38542SOL    HW217459   0.243   8.761  10.766
38543SOL     OW17460  14.666   7.316   8.593
38543SOL    HW117461  14.631   7.234   8.628
38543SOL    HW217462  14.623   7.325   8.508
38544SOL     OW17463   6.852   6.994   6.174
38544SOL    HW117464   6.770   6.946   6.168
38544SOL    HW217465   6.830   7.075   6.220
38545SOL     OW17466  11.892   7.922   6.136
38545SOL    HW117467  11.823   7.909   6.202
38545SOL    HW217468  11.972   7.933   6.187
38546SOL     OW17469   5.222   9.017  14.052
38546SOL    HW117470   5.180   9.034  13.968
38546SOL    HW217471   5.314   9.002  14.029
38547SOL     OW17472   9.858   2.123   2.729
38547SOL    HW117473   9.818   2.195   2.680
38547SOL    HW217474   9.951   2.148   2.736
38548SOL     OW17475   0.418   8.375  10.902
38548SOL    HW117476   0.501   8.332  10.883
38548SOL    HW217477   0.421   8.393  10.996
38549SOL     OW17478  13.707   5.714   3.837
38549SOL    HW117479  13.720   5.630   3.882
38549SOL    HW217480  13.683   5.690   3.747
38550SOL     OW17481  14.135  11.255  10.089
38550SOL    HW117482  14.074  11.274  10.017
38550SOL    HW217483  14.139  11.160  10.092
38551SOL     OW17484  13.849   2.353  11.500
38551SOL    HW117485  13.890   2.325  11.418
38551SOL    HW217486  13.919   2.346  11.565
38552SOL     OW17487   0.726   3.004   1.218
38552SOL    HW117488   0.638   3.004   1.180
38552SOL    HW217489   0.712   2.987   1.311
38553SOL     OW17490   9.799  10.234   8.471
38553SOL    HW117491   9.759  10.148   8.462
38553SOL    HW217492   9.725  10.294   8.478
38554SOL     OW17493   8.651   2.170   6.280
38554SOL    HW117494   8.688   2.090   6.242
38554SOL    HW217495   8.706   2.188   6.356
38555SOL     OW17496  13.859  10.454   6.395
38555SOL    HW117497  13.815  10.387   6.448
38555SOL    HW217498  13.885  10.521   6.458
38556SOL     OW17499   3.509  12.873   7.955
38556SOL    HW117500   3.481  12.862   8.046
38556SOL    HW217501   3.480  12.793   7.911
38557SOL     OW17502   4.283  13.798  10.912
38557SOL    HW117503   4.231  13.788  10.832
38557SOL    HW217504   4.352  13.733  10.904
38558SOL     OW17505   2.620  11.264  13.332
38558SOL    HW117506   2.678  11.286  13.259
38558SOL    HW217507   2.544  11.320  13.321
38559SOL     OW17508   3.453   3.645   5.155
38559SOL    HW117509   3.528   3.699   5.181
38559SOL    HW217510   3.441   3.583   5.227
38560SOL     OW17511  12.024   3.731   3.652
38560SOL    HW117512  12.035   3.725   3.557
38560SOL    HW217513  12.056   3.647   3.686
38561SOL     OW17514   4.874  13.679  12.646
38561SOL    HW117515   4.885  13.620  12.720
38561SOL    HW217516   4.939  13.651  12.582
38562SOL     OW17517   7.631   6.946   5.930
38562SOL    HW117518   7.653   6.900   5.850
38562SOL    HW217519   7.577   7.020   5.902
38563SOL     OW17520   1.105   9.192   9.024
38563SOL    HW117521   1.166   9.124   8.996
38563SOL    HW217522   1.019   9.151   9.020
38564SOL     OW17523  12.261  11.448  11.287
38564SOL    HW117524  12.204  11.443  11.364
38564SOL    HW217525  12.347  11.471  11.322
38565SOL     OW17526  11.611  10.192   5.730
38565SOL    HW117527  11.597  10.287   5.725
38565SOL    HW217528  11.553  10.163   5.800
38566SOL     OW17529   2.276   9.914   3.404
38566SOL    HW117530   2.294   9.828   3.366
38566SOL    HW217531   2.363   9.947   3.430
38567SOL     OW17532   3.350   2.277   7.510
38567SOL    HW117533   3.399   2.346   7.554
38567SOL    HW217534   3.258   2.302   7.519
38568SOL     OW17535   0.844   4.652  10.797
38568SOL    HW117536   0.927   4.607  10.780
38568SOL    HW217537   0.850   4.733  10.746
38569SOL     OW17538  14.245   0.178   1.805
38569SOL    HW117539  14.326   0.169   1.854
38569SOL    HW217540  14.254   0.116   1.732
38570SOL     OW17541  12.726   5.585   3.819
38570SOL    HW117542  12.679   5.617   3.895
38570SOL    HW217543  12.750   5.664   3.771
38571SOL     OW17544   2.693  13.558  14.363
38571SOL    HW117545   2.600  13.577  14.351
38571SOL    HW217546   2.704  13.469  14.328
38572SOL     OW17547   3.001   6.936   9.913
38572SOL    HW117548   3.006   6.852   9.958
38572SOL    HW217549   2.908   6.958   9.914
38573SOL     OW17550   2.921   9.231   0.889
38573SOL    HW117551   2.904   9.210   0.798
38573SOL    HW217552   2.869   9.309   0.906
38574SOL     OW17553   6.100   1.877  12.580
38574SOL    HW117554   6.114   1.845  12.669
38574SOL    HW217555   6.059   1.963  12.593
38575SOL     OW17556   9.220   6.332   7.369
38575SOL    HW117557   9.311   6.323   7.397
38575SOL    HW217558   9.173   6.356   7.450
38576SOL     OW17559  13.458  11.525   7.496
38576SOL    HW117560  13.364  11.542   7.491
38576SOL    HW217561  13.484  11.560   7.581
38577SOL     OW17562  10.890  12.842  14.529
38577SOL    HW117563  10.809  12.795  14.551
38577SOL    HW217564  10.865  12.934  14.530
38578SOL     OW17565   9.095  10.457   7.582
38578SOL    HW117566   9.073  10.431   7.493
38578SOL    HW217567   9.080  10.377   7.634
38579SOL     OW17568   7.646   9.288  12.636
38579SOL    HW117569   7.707   9.300  12.564
38579SOL    HW217570   7.563   9.322  12.603
38580SOL     OW17571  10.598   1.113   4.001
38580SOL    HW117572  10.557   1.189   3.961
38580SOL    HW217573  10.587   1.042   3.937
38581SOL     OW17574   9.159   7.333   1.945
38581SOL    HW117575   9.235   7.388   1.924
38581SOL    HW217576   9.137   7.356   2.035
38582SOL     OW17577   9.523   9.861   1.497
38582SOL    HW117578   9.457   9.809   1.451
38582SOL    HW217579   9.486   9.950   1.499
38583SOL     OW17580  13.001   8.799   7.997
38583SOL    HW117581  12.963   8.711   8.001
38583SOL    HW217582  13.026   8.810   7.905
38584SOL     OW17583   6.924   9.461   6.004
38584SOL    HW117584   6.978   9.412   5.943
38584SOL    HW217585   6.850   9.403   6.023
38585SOL     OW17586   8.392   1.974  11.074
38585SOL    HW117587   8.430   1.995  10.988
38585SOL    HW217588   8.456   1.916  11.115
38586SOL     OW17589   4.312   4.061   0.640
38586SOL    HW117590   4.365   4.083   0.563
38586SOL    HW217591   4.364   3.995   0.687
38587SOL     OW17592   0.099   6.321   4.734
38587SOL    HW117593   0.110   6.227   4.716
38587SOL    HW217594   0.010   6.340   4.707
38588SOL     OW17595   7.618   8.759   7.808
38588SOL    HW117596   7.582   8.742   7.894
38588SOL    HW217597   7.549   8.807   7.762
38589SOL     OW17598   6.479   1.437  12.846
38589SOL    HW117599   6.510   1.525  12.869
38589SOL    HW217600   6.438   1.449  12.760
38590SOL     OW17601   7.383  13.526   7.728
38590SOL    HW117602   7.397  13.534   7.634
38590SOL    HW217603   7.460  13.480   7.760
38591SOL     OW17604   8.688   0.647   9.402
38591SOL    HW117605   8.716   0.737   9.418
38591SOL    HW217606   8.769   0.599   9.382
38592SOL     OW17607   5.542  14.864   1.061
38592SOL    HW117608   5.522   0.037   0.981
38592SOL    HW217609   5.637  14.856   1.061
38593SOL     OW17610  11.591   3.700   3.857
38593SOL    HW117611  11.626   3.761   3.922
38593SOL    HW217612  11.530   3.645   3.906
38594SOL     OW17613   3.455   1.756   7.407
38594SOL    HW117614   3.404   1.785   7.482
38594SOL    HW217615   3.519   1.826   7.392
38595SOL     OW17616   6.416   6.661   6.181
38595SOL    HW117617   6.457   6.690   6.099
38595SOL    HW217618   6.340   6.718   6.191
38596SOL     OW17619   3.374  14.374   2.056
38596SOL    HW117620   3.460  14.413   2.042
38596SOL    HW217621   3.387  14.313   2.128
38597SOL     OW17622   4.863   5.592   0.343
38597SOL    HW117623   4.801   5.568   0.412
38597SOL    HW217624   4.949   5.576   0.382
38598SOL     OW17625   0.088   3.168   0.364
38598SOL    HW117626   0.088   3.261   0.341
38598SOL    HW217627  14.872   3.142   0.358
38599SOL     OW17628   9.048   3.094  12.800
38599SOL    HW117629   9.034   3.187  12.783
38599SOL    HW217630   8.965   3.052  12.779
38600SOL     OW17631   9.886  13.612   6.006
38600SOL    HW117632   9.888  13.625   6.101
38600SOL    HW217633   9.978  13.608   5.980
38601SOL     OW17634   0.967   2.144  10.596
38601SOL    HW117635   0.967   2.226  10.646
38601SOL    HW217636   1.056   2.110  10.606
38602SOL     OW17637  12.505   3.532  11.005
38602SOL    HW117638  12.464   3.447  10.991
38602SOL    HW217639  12.558   3.521  11.084
38603SOL     OW17640   2.089   7.269   0.637
38603SOL    HW117641   2.114   7.329   0.566
38603SOL    HW217642   2.097   7.321   0.717
38604SOL     OW17643   6.059   6.954   0.824
38604SOL    HW117644   6.141   6.966   0.871
38604SOL    HW217645   5.999   7.018   0.863
38605SOL     OW17646   9.203   3.634   5.959
38605SOL    HW117647   9.279   3.584   5.989
38605SOL    HW217648   9.130   3.574   5.968
38606SOL     OW17649   1.750   7.461   9.297
38606SOL    HW117650   1.823   7.437   9.354
38606SOL    HW217651   1.748   7.392   9.230
38607SOL     OW17652   7.173   4.234  10.922
38607SOL    HW117653   7.223   4.252  11.002
38607SOL    HW217654   7.187   4.310  10.867
38608SOL     OW17655   5.452   2.431   7.275
38608SOL    HW117656   5.391   2.485   7.225
38608SOL    HW217657   5.409   2.346   7.282
38609SOL     OW17658  10.275  10.336   6.765
38609SOL    HW117659  10.280  10.395   6.690
38609SOL    HW217660  10.350  10.361   6.819
38610SOL     OW17661  10.521   3.856   6.295
38610SOL    HW117662  10.617   3.847   6.292
38610SOL    HW217663  10.500   3.915   6.223
38611SOL     OW17664   9.596   1.856   2.702
38611SOL    HW117665   9.562   1.946   2.701
38611SOL    HW217666   9.519   1.802   2.721
38612SOL     OW17667  12.272   9.211   7.022
38612SOL    HW117668  12.353   9.256   7.000
38612SOL    HW217669  12.291   9.165   7.104
38613SOL     OW17670   7.905   4.605   6.893
38613SOL    HW117671   7.996   4.616   6.923
38613SOL    HW217672   7.888   4.511   6.901
38614SOL     OW17673   0.233   0.827  12.907
38614SOL    HW117674   0.197   0.874  12.832
38614SOL    HW217675   0.195   0.739  12.901
38615SOL     OW17676   1.700  13.378   8.053
38615SOL    HW117677   1.608  13.395   8.072
38615SOL    HW217678   1.717  13.292   8.093
38616SOL     OW17679   8.605   8.308   4.390
38616SOL    HW117680   8.609   8.389   4.441
38616SOL    HW217681   8.626   8.334   4.301
38617SOL     OW17682  13.197  14.842  10.517
38617SOL    HW117683  13.263  14.792  10.564
38617SOL    HW217684  13.154   0.020  10.584
38618SOL     OW17685   4.836  10.261   1.243
38618SOL    HW117686   4.772  10.330   1.262
38618SOL    HW217687   4.888  10.296   1.171
38619SOL     OW17688   6.635  13.415  14.403
38619SOL    HW117689   6.658  13.385  14.491
38619SOL    HW217690   6.718  13.437  14.362
38620SOL     OW17691  10.026   6.621   2.842
38620SOL    HW117692  10.043   6.666   2.760
38620SOL    HW217693  10.041   6.529   2.823
38621SOL     OW17694   8.194  13.516   2.312
38621SOL    HW117695   8.160  13.461   2.241
38621SOL    HW217696   8.141  13.595   2.308
38622SOL     OW17697   5.019  13.435  10.458
38622SOL    HW117698   5.029  13.446  10.364
38622SOL    HW217699   4.930  13.402  10.469
38623SOL     OW17700   5.289   0.258   6.824
38623SOL    HW117701   5.347   0.191   6.859
38623SOL    HW217702   5.344   0.335   6.813
38624SOL     OW17703  11.884   3.279   2.452
38624SOL    HW117704  11.966   3.246   2.489
38624SOL    HW217705  11.850   3.339   2.518
38625SOL     OW17706   2.748   6.968  13.329
38625SOL    HW117707   2.765   6.887  13.281
38625SOL    HW217708   2.760   6.944  13.421
38626SOL     OW17709  10.635   7.877  10.603
38626SOL    HW117710  10.616   7.854  10.512
38626SOL    HW217711  10.654   7.793  10.645
38627SOL     OW17712  13.916   3.548   2.031
38627SOL    HW117713  13.966   3.552   1.949
38627SOL    HW217714  13.849   3.482   2.015
38628SOL     OW17715  13.224   5.760   5.158
38628SOL    HW117716  13.137   5.733   5.189
38628SOL    HW217717  13.224   5.739   5.065
38629SOL     OW17718   6.642  13.646   5.561
38629SOL    HW117719   6.631  13.737   5.532
38629SOL    HW217720   6.630  13.594   5.481
38630SOL     OW17721  12.334  11.577   4.318
38630SOL    HW117722  12.412  11.545   4.363
38630SOL    HW217723  12.326  11.668   4.346
38631SOL     OW17724   5.909   9.555   2.431
38631SOL    HW117725   5.938   9.508   2.353
38631SOL    HW217726   5.887   9.642   2.400
38632SOL     OW17727  12.949   4.915  14.873
38632SOL    HW117728  13.021   4.876   0.047
38632SOL    HW217729  12.953   4.873  14.788
38633SOL     OW17730   2.594   7.810   1.525
38633SOL    HW117731   2.630   7.897   1.507
38633SOL    HW217732   2.668   7.750   1.520
38634SOL     OW17733   3.118  12.651   4.301
38634SOL    HW117734   3.197  12.674   4.252
38634SOL    HW217735   3.151  12.606   4.379
38635SOL     OW17736   8.516   7.063   9.042
38635SOL    HW117737   8.455   6.994   9.018
38635SOL    HW217738   8.468   7.117   9.105
38636SOL     OW17739   1.979  14.021  14.206
38636SOL    HW117740   1.938  13.939  14.179
38636SOL    HW217741   1.965  14.081  14.133
38637SOL     OW17742   2.211   3.537   9.895
38637SOL    HW117743   2.168   3.542   9.981
38637SOL    HW217744   2.303   3.553   9.914
38638SOL     OW17745   0.571   3.598   3.837
38638SOL    HW117746   0.531   3.526   3.789
38638SOL    HW217747   0.650   3.560   3.877
38639SOL     OW17748   6.080  11.315  10.041
38639SOL    HW117749   6.153  11.356  10.087
38639SOL    HW217750   6.113  11.298   9.953
38640SOL     OW17751   6.625  10.853   4.319
38640SOL    HW117752   6.674  10.843   4.238
38640SOL    HW217753   6.600  10.946   4.322
38641SOL     OW17754   0.035  12.422   3.654
38641SOL    HW117755   0.033  12.337   3.699
38641SOL    HW217756   0.032  12.486   3.725
38642SOL     OW17757   6.550   2.198  13.161
38642SOL    HW117758   6.504   2.275  13.194
38642SOL    HW217759   6.554   2.138  13.235
38643SOL     OW17760   5.934   7.578   1.536
38643SOL    HW117761   5.852   7.623   1.560
38643SOL    HW217762   5.995   7.600   1.607
38644SOL     OW17763   5.751   5.504  11.548
38644SOL    HW117764   5.786   5.433  11.495
38644SOL    HW217765   5.668   5.471  11.581
38645SOL     OW17766   2.879   9.889  14.018
38645SOL    HW117767   2.803   9.886  13.961
38645SOL    HW217768   2.912   9.979  14.009
38646SOL     OW17769   8.509   2.749   0.222
38646SOL    HW117770   8.586   2.806   0.228
38646SOL    HW217771   8.435   2.806   0.243
38647SOL     OW17772  10.371   6.469  12.260
38647SOL    HW117773  10.395   6.376  12.260
38647SOL    HW217774  10.453   6.515  12.241
38648SOL     OW17775   2.779   5.202   9.371
38648SOL    HW117776   2.798   5.257   9.295
38648SOL    HW217777   2.685   5.186   9.367
38649SOL     OW17778   9.067   1.402   5.053
38649SOL    HW117779   9.078   1.495   5.071
38649SOL    HW217780   9.138   1.380   4.993
38650SOL     OW17781   2.048   3.783  13.623
38650SOL    HW117782   2.062   3.877  13.623
38650SOL    HW217783   1.975   3.770  13.562
38651SOL     OW17784   1.926   1.609  10.907
38651SOL    HW117785   1.839   1.637  10.935
38651SOL    HW217786   1.915   1.519  10.879
38652SOL     OW17787   5.502  10.216  13.666
38652SOL    HW117788   5.515  10.182  13.755
38652SOL    HW217789   5.409  10.241  13.664
38653SOL     OW17790  11.180  10.449   5.725
38653SOL    HW117791  11.241  10.493   5.784
38653SOL    HW217792  11.205  10.478   5.638
38654SOL     OW17793  14.050   0.612  10.060
38654SOL    HW117794  13.971   0.558  10.064
38654SOL    HW217795  14.054   0.642   9.969
38655SOL     OW17796   3.185   1.567   0.001
38655SOL    HW117797   3.193   1.627  14.802
38655SOL    HW217798   3.144   1.620   0.070
38656SOL     OW17799  13.113  12.560   9.638
38656SOL    HW117800  13.204  12.569   9.664
38656SOL    HW217801  13.075  12.498   9.701
38657SOL     OW17802   6.167  14.819   5.472
38657SOL    HW117803   6.225  14.826   5.548
38657SOL    HW217804   6.187  14.733   5.435
38658SOL     OW17805   7.376  10.432   0.034
38658SOL    HW117806   7.321  10.437  14.831
38658SOL    HW217807   7.455  10.387   0.006
38659SOL     OW17808  10.820   5.396   1.049
38659SOL    HW117809  10.832   5.302   1.062
38659SOL    HW217810  10.880   5.436   1.112
38660SOL     OW17811   6.957  14.015   0.999
38660SOL    HW117812   7.005  14.091   1.031
38660SOL    HW217813   7.005  13.940   1.033
38661SOL     OW17814  11.648   0.227   7.517
38661SOL    HW117815  11.561   0.232   7.556
38661SOL    HW217816  11.655   0.136   7.486
38662SOL     OW17817   8.589  12.777  10.394
38662SOL    HW117818   8.516  12.745  10.340
38662SOL    HW217819   8.547  12.805  10.476
38663SOL     OW17820   0.906   7.164   1.555
38663SOL    HW117821   0.953   7.196   1.478
38663SOL    HW217822   0.936   7.221   1.626
38664SOL     OW17823  14.579   1.012   4.624
38664SOL    HW117824  14.595   1.103   4.649
38664SOL    HW217825  14.491   1.013   4.586
38665SOL     OW17826   4.758   9.015  12.233
38665SOL    HW117827   4.844   8.979  12.252
38665SOL    HW217828   4.776   9.102  12.198
38666SOL     OW17829  13.813   4.930  14.179
38666SOL    HW117830  13.756   4.874  14.127
38666SOL    HW217831  13.782   5.019  14.162
38667SOL     OW17832  11.384  10.006  14.741
38667SOL    HW117833  11.303  10.054  14.754
38667SOL    HW217834  11.356   9.918  14.716
38668SOL     OW17835  12.558   3.155  13.924
38668SOL    HW117836  12.476   3.118  13.893
38668SOL    HW217837  12.624   3.091  13.897
38669SOL     OW17838   4.731   6.791   2.194
38669SOL    HW117839   4.650   6.827   2.232
38669SOL    HW217840   4.785   6.770   2.270
38670SOL     OW17841  13.688   6.984   0.089
38670SOL    HW117842  13.776   7.006   0.119
38670SOL    HW217843  13.682   6.889   0.100
38671SOL     OW17844   7.879   9.497  14.453
38671SOL    HW117845   7.956   9.552  14.439
38671SOL    HW217846   7.876   9.486  14.548
38672SOL     OW17847   3.974   6.575   4.528
38672SOL    HW117848   4.054   6.617   4.562
38672SOL    HW217849   3.927   6.646   4.485
38673SOL     OW17850   4.399   4.238  14.537
38673SOL    HW117851   4.491   4.218  14.518
38673SOL    HW217852   4.400   4.330  14.562
38674SOL     OW17853   7.620   5.481   0.427
38674SOL    HW117854   7.679   5.450   0.496
38674SOL    HW217855   7.659   5.450   0.346
38675SOL     OW17856  14.648   7.771   6.169
38675SOL    HW117857  14.630   7.776   6.075
38675SOL    HW217858  14.744   7.775   6.175
38676SOL     OW17859  12.069  13.729   8.857
38676SOL    HW117860  12.116  13.655   8.895
38676SOL    HW217861  12.031  13.694   8.776
38677SOL     OW17862   1.253   3.507   2.357
38677SOL    HW117863   1.330   3.480   2.406
38677SOL    HW217864   1.217   3.580   2.407
38678SOL     OW17865  13.442   4.202   3.974
38678SOL    HW117866  13.371   4.266   3.976
38678SOL    HW217867  13.407   4.130   3.920
38679SOL     OW17868  13.135  13.280   8.562
38679SOL    HW117869  13.120  13.284   8.657
38679SOL    HW217870  13.217  13.327   8.548
38680SOL     OW17871   0.945  11.660  14.730
38680SOL    HW117872   0.990  11.618  14.657
38680SOL    HW217873   0.984  11.747  14.736
38681SOL     OW17874  10.127  10.114   9.285
38681SOL    HW117875  10.043  10.160   9.293
38681SOL    HW217876  10.111  10.044   9.222
38682SOL     OW17877   2.962   8.863   5.898
38682SOL    HW117878   2.868   8.866   5.918
38682SOL    HW217879   3.000   8.930   5.954
38683SOL     OW17880   0.724  13.910   2.521
38683SOL    HW117881   0.783  13.899   2.596
38683SOL    HW217882   0.725  14.004   2.503
38684SOL     OW17883   2.629   5.776   6.777
38684SOL    HW117884   2.618   5.776   6.682
38684SOL    HW217885   2.692   5.847   6.793
38685SOL     OW17886  12.227   8.155   2.901
38685SOL    HW117887  12.163   8.094   2.865
38685SOL    HW217888  12.282   8.178   2.826
38686SOL     OW17889   0.253   6.729   5.500
38686SOL    HW117890   0.243   6.634   5.494
38686SOL    HW217891   0.247   6.760   5.410
38687SOL     OW17892   3.923   2.273   8.887
38687SOL    HW117893   3.922   2.342   8.953
38687SOL    HW217894   3.994   2.298   8.827
38688SOL     OW17895   7.008   0.363   7.804
38688SOL    HW117896   7.028   0.269   7.804
38688SOL    HW217897   6.917   0.368   7.774
38689SOL     OW17898   2.347  13.671  11.396
38689SOL    HW117899   2.396  13.604  11.442
38689SOL    HW217900   2.348  13.643  11.304
38690SOL     OW17901   5.076   2.433  13.486
38690SOL    HW117902   4.988   2.460  13.512
38690SOL    HW217903   5.112   2.509  13.439
38691SOL     OW17904   8.360   2.533   6.106
38691SOL    HW117905   8.336   2.454   6.057
38691SOL    HW217906   8.282   2.554   6.157
38692SOL     OW17907   6.308  10.822   5.535
38692SOL    HW117908   6.305  10.770   5.615
38692SOL    HW217909   6.229  10.796   5.486
38693SOL     OW17910   0.095  12.345   1.942
38693SOL    HW117911   0.112  12.251   1.949
38693SOL    HW217912   0.128  12.381   2.025
38694SOL     OW17913   2.453   3.039  14.755
38694SOL    HW117914   2.466   3.002  14.668
38694SOL    HW217915   2.540   3.036  14.795
38695SOL     OW17916  12.070  10.560   7.372
38695SOL    HW117917  12.094  10.528   7.285
38695SOL    HW217918  12.043  10.481   7.420
38696SOL     OW17919  10.841   2.511  13.273
38696SOL    HW117920  10.843   2.602  13.302
38696SOL    HW217921  10.813   2.516  13.182
38697SOL     OW17922   1.955   4.150   0.219
38697SOL    HW117923   2.046   4.124   0.211
38697SOL    HW217924   1.958   4.245   0.233
38698SOL     OW17925   6.630   9.538   2.587
38698SOL    HW117926   6.690   9.593   2.639
38698SOL    HW217927   6.585   9.600   2.530
38699SOL     OW17928  10.281  13.985  10.867
38699SOL    HW117929  10.196  13.965  10.907
38699SOL    HW217930  10.340  13.998  10.941
38700SOL     OW17931   4.480   5.242   4.488
38700SOL    HW117932   4.511   5.157   4.455
38700SOL    HW217933   4.444   5.222   4.575
38701SOL     OW17934  13.924   8.470   9.947
38701SOL    HW117935  13.927   8.549  10.001
38701SOL    HW217936  13.898   8.501   9.860
38702SOL     OW17937   5.562   6.176   0.406
38702SOL    HW117938   5.511   6.239   0.356
38702SOL    HW217939   5.548   6.092   0.362
38703SOL     OW17940   9.222   3.471  12.807
38703SOL    HW117941   9.164   3.401  12.778
38703SOL    HW217942   9.198   3.546  12.754
38704SOL     OW17943   0.453  13.258   3.107
38704SOL    HW117944   0.434  13.273   3.015
38704SOL    HW217945   0.546  13.237   3.110
38705SOL     OW17946   5.196  11.542   5.747
38705SOL    HW117947   5.156  11.517   5.830
38705SOL    HW217948   5.138  11.505   5.681
38706SOL     OW17949  10.601  13.452   5.770
38706SOL    HW117950  10.505  13.449   5.767
38706SOL    HW217951  10.625  13.519   5.706
38707SOL     OW17952   8.663   2.468  13.999
38707SOL    HW117953   8.724   2.446  13.929
38707SOL    HW217954   8.586   2.414  13.981
38708SOL     OW17955   0.439  14.026   0.181
38708SOL    HW117956   0.465  13.935   0.196
38708SOL    HW217957   0.345  14.022   0.160
38709SOL     OW17958   4.773   0.226   9.566
38709SOL    HW117959   4.812   0.155   9.618
38709SOL    HW217960   4.845   0.258   9.512
38710SOL     OW17961  10.818  12.935  11.976
38710SOL    HW117962  10.881  13.000  11.947
38710SOL    HW217963  10.861  12.851  11.961
38711SOL     OW17964   2.244   3.837  11.138
38711SOL    HW117965   2.175   3.901  11.150
38711SOL    HW217966   2.298   3.872  11.068
38712SOL     OW17967  11.340   3.622   5.023
38712SOL    HW117968  11.281   3.549   5.005
38712SOL    HW217969  11.363   3.612   5.115
38713SOL     OW17970   7.795   8.769   9.366
38713SOL    HW117971   7.755   8.682   9.376
38713SOL    HW217972   7.869   8.756   9.308
38714SOL     OW17973   7.277   1.549   1.685
38714SOL    HW117974   7.367   1.570   1.658
38714SOL    HW217975   7.283   1.537   1.780
38715SOL     OW17976   1.072  12.457   3.707
38715SOL    HW117977   1.164  12.448   3.731
38715SOL    HW217978   1.051  12.549   3.723
38716SOL     OW17979  14.187  13.722  13.166
38716SOL    HW117980  14.183  13.801  13.112
38716SOL    HW217981  14.112  13.730  13.224
38717SOL     OW17982   9.609   3.002   8.320
38717SOL    HW117983   9.674   2.941   8.284
38717SOL    HW217984   9.660   3.067   8.367
38718SOL     OW17985   9.902  14.751  11.747
38718SOL    HW117986   9.936  14.798  11.823
38718SOL    HW217987   9.836  14.811  11.711
38719SOL     OW17988   2.484   5.752   2.568
38719SOL    HW117989   2.520   5.811   2.633
38719SOL    HW217990   2.523   5.780   2.485
38720SOL     OW17991   3.941  14.874   1.331
38720SOL    HW117992   3.913   0.089   1.345
38720SOL    HW217993   3.863  14.822   1.353
38721SOL     OW17994   7.691   9.428   0.046
38721SOL    HW117995   7.707   9.501   0.105
38721SOL    HW217996   7.732   9.353   0.088
38722SOL     OW17997  11.994  14.162   9.189
38722SOL    HW117998  12.009  14.150   9.283
38722SOL    HW217999  12.006  14.074   9.152
38723SOL     OW18000   1.177   9.145   9.844
38723SOL    HW118001   1.264   9.184   9.845
38723SOL    HW218002   1.141   9.162   9.931
38724SOL     OW18003  14.807   6.641   5.621
38724SOL    HW118004  14.849   6.677   5.699
38724SOL    HW218005  14.830   6.701   5.551
38725SOL     OW18006   8.713   8.768   5.622
38725SOL    HW118007   8.769   8.814   5.685
38725SOL    HW218008   8.627   8.766   5.665
38726SOL     OW18009  11.126  10.854   3.728
38726SOL    HW118010  11.105  10.945   3.709
38726SOL    HW218011  11.176  10.857   3.810
38727SOL     OW18012   2.060  14.563  13.406
38727SOL    HW118013   2.144  14.608  13.413
38727SOL    HW218014   2.082  14.470  13.414
38728SOL     OW18015   6.239   6.787  11.090
38728SOL    HW118016   6.303   6.793  11.162
38728SOL    HW218017   6.198   6.701  11.101
38729SOL     OW18018   0.163  11.356   0.909
38729SOL    HW118019   0.082  11.385   0.867
38729SOL    HW218020   0.133  11.306   0.985
38730SOL     OW18021  10.156   5.949   7.454
38730SOL    HW118022  10.226   5.947   7.388
38730SOL    HW218023  10.100   6.022   7.427
38731SOL     OW18024   3.129  11.258   4.008
38731SOL    HW118025   3.094  11.240   3.921
38731SOL    HW218026   3.089  11.341   4.034
38732SOL     OW18027   0.100   5.120   1.519
38732SOL    HW118028   0.051   5.051   1.474
38732SOL    HW218029   0.149   5.163   1.449
38733SOL     OW18030   8.583   1.733   9.732
38733SOL    HW118031   8.566   1.648   9.690
38733SOL    HW218032   8.587   1.795   9.659
38734SOL     OW18033   9.236   6.020   6.443
38734SOL    HW118034   9.149   6.026   6.483
38734SOL    HW218035   9.268   5.934   6.470
38735SOL     OW18036   1.582  12.671  11.755
38735SOL    HW118037   1.655  12.610  11.743
38735SOL    HW218038   1.516  12.643  11.692
38736SOL     OW18039   3.547   1.121   9.141
38736SOL    HW118040   3.472   1.134   9.082
38736SOL    HW218041   3.624   1.136   9.086
38737SOL     OW18042   4.714   6.746   8.077
38737SOL    HW118043   4.693   6.797   8.155
38737SOL    HW218044   4.809   6.735   8.080
38738SOL     OW18045   8.988  11.343   9.055
38738SOL    HW118046   9.045  11.321   8.981
38738SOL    HW218047   9.010  11.279   9.123
38739SOL     OW18048  10.124   5.297   1.435
38739SOL    HW118049  10.189   5.281   1.504
38739SOL    HW218050  10.077   5.374   1.465
38740SOL     OW18051  13.627   0.522   0.390
38740SOL    HW118052  13.674   0.500   0.469
38740SOL    HW218053  13.643   0.616   0.377
38741SOL     OW18054   3.686   9.064   9.694
38741SOL    HW118055   3.761   9.098   9.742
38741SOL    HW218056   3.641   9.007   9.757
38742SOL     OW18057  10.994  12.996   2.435
38742SOL    HW118058  10.935  12.922   2.427
38742SOL    HW218059  11.081  12.960   2.417
38743SOL     OW18060   8.513  11.911   0.108
38743SOL    HW118061   8.421  11.925   0.133
38743SOL    HW218062   8.548  11.998   0.092
38744SOL     OW18063  10.961  14.798  11.814
38744SOL    HW118064  10.981  14.732  11.881
38744SOL    HW218065  11.014  14.874  11.839
38745SOL     OW18066  12.244  10.792  13.300
38745SOL    HW118067  12.269  10.865  13.244
38745SOL    HW218068  12.165  10.757  13.260
38746SOL     OW18069   3.603   0.680   1.517
38746SOL    HW118070   3.540   0.726   1.462
38746SOL    HW218071   3.563   0.594   1.532
38747SOL     OW18072   1.776   6.436   7.690
38747SOL    HW118073   1.737   6.360   7.645
38747SOL    HW218074   1.760   6.419   7.783
38748SOL     OW18075   3.022   1.433  10.255
38748SOL    HW118076   3.035   1.378  10.177
38748SOL    HW218077   2.976   1.376  10.317
38749SOL     OW18078  14.326   6.153  10.786
38749SOL    HW118079  14.421   6.163  10.783
38749SOL    HW218080  14.292   6.233  10.745
38750SOL     OW18081   0.777   4.582   3.558
38750SOL    HW118082   0.789   4.552   3.468
38750SOL    HW218083   0.843   4.534   3.608
38751SOL     OW18084   2.584   8.674   1.596
38751SOL    HW118085   2.673   8.658   1.625
38751SOL    HW218086   2.538   8.591   1.609
38752SOL     OW18087  10.362   3.232  12.762
38752SOL    HW118088  10.446   3.188  12.744
38752SOL    HW218089  10.296   3.163  12.750
38753SOL     OW18090  10.103   4.674   2.551
38753SOL    HW118091  10.132   4.759   2.584
38753SOL    HW218092  10.016   4.662   2.589
38754SOL     OW18093  11.852   5.527   8.907
38754SOL    HW118094  11.840   5.475   8.827
38754SOL    HW218095  11.947   5.530   8.919
38755SOL     OW18096   3.426   9.909   8.977
38755SOL    HW118097   3.435   9.855   9.056
38755SOL    HW218098   3.353   9.871   8.930
38756SOL     OW18099  13.917   6.305   1.807
38756SOL    HW118100  13.997   6.265   1.840
38756SOL    HW218101  13.850   6.238   1.819
38757SOL     OW18102   0.790   7.160   2.658
38757SOL    HW118103   0.820   7.238   2.612
38757SOL    HW218104   0.789   7.185   2.750
38758SOL     OW18105   0.670   2.866  14.578
38758SOL    HW118106   0.640   2.796  14.636
38758SOL    HW218107   0.739   2.910  14.627
38759SOL     OW18108   7.984  14.347  12.706
38759SOL    HW118109   7.998  14.362  12.800
38759SOL    HW218110   7.890  14.357  12.694
38760SOL     OW18111   4.589   1.894   0.845
38760SOL    HW118112   4.644   1.843   0.785
38760SOL    HW218113   4.618   1.866   0.932
38761SOL     OW18114   8.965   9.953   5.638
38761SOL    HW118115   9.042   9.965   5.582
38761SOL    HW218116   8.892   9.942   5.577
38762SOL     OW18117   5.601   9.365   6.194
38762SOL    HW118118   5.617   9.459   6.185
38762SOL    HW218119   5.688   9.326   6.207
38763SOL     OW18120   0.732   4.528  12.240
38763SOL    HW118121   0.678   4.595  12.199
38763SOL    HW218122   0.808   4.521  12.183
38764SOL     OW18123   1.023   9.018   1.156
38764SOL    HW118124   1.052   9.069   1.232
38764SOL    HW218125   1.094   8.956   1.140
38765SOL     OW18126   3.150   2.384   0.609
38765SOL    HW118127   3.065   2.347   0.634
38765SOL    HW218128   3.130   2.438   0.533
38766SOL     OW18129   5.222   9.290   3.062
38766SOL    HW118130   5.269   9.359   3.015
38766SOL    HW218131   5.136   9.327   3.080
38767SOL     OW18132   1.654  14.580   3.648
38767SOL    HW118133   1.742  14.606   3.676
38767SOL    HW218134   1.601  14.584   3.728
38768SOL     OW18135  10.343   8.135   7.051
38768SOL    HW118136  10.266   8.108   7.000
38768SOL    HW218137  10.318   8.119   7.142
38769SOL     OW18138   2.527  11.019   4.269
38769SOL    HW118139   2.508  10.969   4.189
38769SOL    HW218140   2.476  10.975   4.337
38770SOL     OW18141  10.313   7.997   8.368
38770SOL    HW118142  10.306   8.015   8.462
38770SOL    HW218143  10.394   7.948   8.359
38771SOL     OW18144   3.065   8.726   8.017
38771SOL    HW118145   3.014   8.731   8.098
38771SOL    HW218146   3.033   8.799   7.965
38772SOL     OW18147   3.762   4.453   4.847
38772SOL    HW118148   3.804   4.370   4.822
38772SOL    HW218149   3.680   4.455   4.798
38773SOL     OW18150   1.609   7.624   7.625
38773SOL    HW118151   1.524   7.601   7.588
38773SOL    HW218152   1.590   7.648   7.716
38774SOL     OW18153   9.390   2.559   9.013
38774SOL    HW118154   9.464   2.505   8.984
38774SOL    HW218155   9.315   2.500   9.009
38775SOL     OW18156   7.411  10.921   4.959
38775SOL    HW118157   7.420  11.010   4.925
38775SOL    HW218158   7.438  10.927   5.051
38776SOL     OW18159  12.161  14.832  11.793
38776SOL    HW118160  12.145   0.014  11.719
38776SOL    HW218161  12.253  14.807  11.785
38777SOL     OW18162   8.266   0.647   9.973
38777SOL    HW118163   8.229   0.670   9.888
38777SOL    HW218164   8.238   0.718  10.031
38778SOL     OW18165  14.854   9.450   7.604
38778SOL    HW118166   0.007   9.397   7.679
38778SOL    HW218167   0.052   9.448   7.544
38779SOL     OW18168  13.763  13.929  14.120
38779SOL    HW118169  13.717  13.854  14.084
38779SOL    HW218170  13.845  13.893  14.154
38780SOL     OW18171   1.639   4.318   8.382
38780SOL    HW118172   1.575   4.389   8.386
38780SOL    HW218173   1.644   4.286   8.473
38781SOL     OW18174   9.254  14.560  13.170
38781SOL    HW118175   9.257  14.525  13.081
38781SOL    HW218176   9.203  14.640  13.163
38782SOL     OW18177  13.279  12.429   1.102
38782SOL    HW118178  13.272  12.505   1.043
38782SOL    HW218179  13.292  12.468   1.189
38783SOL     OW18180   7.519   8.936  13.087
38783SOL    HW118181   7.498   8.861  13.031
38783SOL    HW218182   7.435   8.963  13.123
38784SOL     OW18183   9.843   3.755   9.463
38784SOL    HW118184   9.808   3.691   9.400
38784SOL    HW218185   9.887   3.701   9.529
38785SOL     OW18186   0.893   7.885   3.155
38785SOL    HW118187   0.847   7.967   3.172
38785SOL    HW218188   0.826   7.817   3.166
38786SOL     OW18189   8.835   4.948   3.735
38786SOL    HW118190   8.823   4.868   3.684
38786SOL    HW218191   8.924   4.977   3.715
38787SOL     OW18192   7.086  12.034  12.353
38787SOL    HW118193   7.139  11.957  12.329
38787SOL    HW218194   7.148  12.107  12.347
38788SOL     OW18195   8.562  10.848   4.885
38788SOL    HW118196   8.598  10.796   4.813
38788SOL    HW218197   8.574  10.794   4.963
38789SOL     OW18198  14.868   6.937   7.937
38789SOL    HW118199  14.852   6.844   7.952
38789SOL    HW218200  14.780   6.974   7.925
38790SOL     OW18201   5.004  11.635   9.390
38790SOL    HW118202   4.989  11.601   9.478
38790SOL    HW218203   5.098  11.623   9.375
38791SOL     OW18204  10.761   0.074   5.619
38791SOL    HW118205  10.790   0.023   5.695
38791SOL    HW218206  10.676   0.036   5.596
38792SOL     OW18207   3.791   5.942   1.124
38792SOL    HW118208   3.874   5.912   1.087
38792SOL    HW218209   3.734   5.952   1.047
38793SOL     OW18210   3.134   4.897  10.090
38793SOL    HW118211   3.038   4.889  10.092
38793SOL    HW218212   3.165   4.813  10.125
38794SOL     OW18213   9.475  11.474   7.624
38794SOL    HW118214   9.393  11.507   7.660
38794SOL    HW218215   9.471  11.496   7.531
38795SOL     OW18216  10.962   9.620   7.629
38795SOL    HW118217  11.045   9.625   7.678
38795SOL    HW218218  10.939   9.527   7.631
38796SOL     OW18219   2.655  12.915   6.129
38796SOL    HW118220   2.613  12.958   6.054
38796SOL    HW218221   2.633  12.823   6.119
38797SOL     OW18222   6.991   7.075  12.098
38797SOL    HW118223   7.020   7.037  12.015
38797SOL    HW218224   7.016   7.010  12.164
38798SOL     OW18225   7.787  11.041  13.162
38798SOL    HW118226   7.824  10.982  13.227
38798SOL    HW218227   7.703  11.069  13.200
38799SOL     OW18228   4.638   3.200   7.368
38799SOL    HW118229   4.648   3.162   7.456
38799SOL    HW218230   4.550   3.235   7.367
38800SOL     OW18231  12.416   7.542   4.776
38800SOL    HW118232  12.387   7.543   4.867
38800SOL    HW218233  12.476   7.616   4.769
38801SOL     OW18234  11.865  14.036   1.421
38801SOL    HW118235  11.888  14.032   1.513
38801SOL    HW218236  11.918  13.968   1.379
38802SOL     OW18237  14.610   4.113   9.031
38802SOL    HW118238  14.566   4.043   8.982
38802SOL    HW218239  14.544   4.145   9.092
38803SOL     OW18240  11.615   2.820   1.636
38803SOL    HW118241  11.653   2.874   1.705
38803SOL    HW218242  11.596   2.881   1.565
38804SOL     OW18243  12.454   4.458   8.705
38804SOL    HW118244  12.378   4.407   8.678
38804SOL    HW218245  12.506   4.468   8.625
38805SOL     OW18246   6.860   2.398  10.548
38805SOL    HW118247   6.852   2.405  10.643
38805SOL    HW218248   6.927   2.330  10.534
38806SOL     OW18249  10.018   2.221   8.266
38806SOL    HW118250   9.943   2.276   8.287
38806SOL    HW218251  10.074   2.227   8.344
38807SOL     OW18252   5.031   7.951  14.181
38807SOL    HW118253   5.045   7.938  14.275
38807SOL    HW218254   5.083   7.882  14.139
38808SOL     OW18255   2.026   3.721   7.745
38808SOL    HW118256   2.076   3.712   7.663
38808SOL    HW218257   1.951   3.774   7.721
38809SOL     OW18258  10.437  11.312   7.368
38809SOL    HW118259  10.440  11.356   7.453
38809SOL    HW218260  10.488  11.368   7.310
38810SOL     OW18261   9.993   2.706   6.414
38810SOL    HW118262  10.023   2.621   6.445
38810SOL    HW218263   9.968   2.753   6.493
38811SOL     OW18264   5.926  10.151   2.311
38811SOL    HW118265   5.893  10.232   2.349
38811SOL    HW218266   5.886  10.146   2.224
38812SOL     OW18267   6.509   8.104   1.464
38812SOL    HW118268   6.580   8.058   1.507
38812SOL    HW218269   6.498   8.058   1.380
38813SOL     OW18270   4.661   0.297  14.674
38813SOL    HW118271   4.630   0.381  14.640
38813SOL    HW218272   4.663   0.309  14.769
38814SOL     OW18273   1.459  12.700   4.656
38814SOL    HW118274   1.428  12.636   4.592
38814SOL    HW218275   1.497  12.770   4.604
38815SOL     OW18276   9.222   1.363   3.004
38815SOL    HW118277   9.288   1.297   3.025
38815SOL    HW218278   9.147   1.341   3.058
38816SOL     OW18279   1.017  11.617   2.823
38816SOL    HW118280   0.977  11.703   2.815
38816SOL    HW218281   0.956  11.567   2.878
38817SOL     OW18282   3.350   0.029   2.434
38817SOL    HW118283   3.342   0.119   2.404
38817SOL    HW218284   3.307   0.027   2.519
38818SOL     OW18285   3.831  13.858   2.334
38818SOL    HW118286   3.861  13.801   2.405
38818SOL    HW218287   3.908  13.911   2.313
38819SOL     OW18288   3.819   8.434   1.669
38819SOL    HW118289   3.766   8.434   1.589
38819SOL    HW218290   3.811   8.523   1.703
38820SOL     OW18291   8.329   8.183   8.636
38820SOL    HW118292   8.395   8.124   8.672
38820SOL    HW218293   8.347   8.185   8.542
38821SOL     OW18294   2.571   3.428   7.580
38821SOL    HW118295   2.657   3.402   7.546
38821SOL    HW218296   2.573   3.523   7.580
38822SOL     OW18297   2.768   1.117   6.850
38822SOL    HW118298   2.834   1.164   6.902
38822SOL    HW218299   2.728   1.056   6.912
38823SOL     OW18300   0.975   3.786   3.916
38823SOL    HW118301   1.041   3.811   3.980
38823SOL    HW218302   0.895   3.775   3.967
38824SOL     OW18303   9.386   6.387   9.404
38824SOL    HW118304   9.419   6.414   9.319
38824SOL    HW218305   9.358   6.468   9.446
38825SOL     OW18306   6.163   0.252   9.908
38825SOL    HW118307   6.200   0.220   9.990
38825SOL    HW218308   6.235   0.246   9.845
38826SOL     OW18309   3.105   9.647   5.094
38826SOL    HW118310   3.028   9.658   5.149
38826SOL    HW218311   3.076   9.673   5.007
38827SOL     OW18312  11.144   8.467   8.908
38827SOL    HW118313  11.115   8.461   8.818
38827SOL    HW218314  11.077   8.519   8.952
38828SOL     OW18315  14.257   3.142  10.423
38828SOL    HW118316  14.318   3.187  10.480
38828SOL    HW218317  14.221   3.210  10.367
38829SOL     OW18318   8.718   5.252  13.653
38829SOL    HW118319   8.801   5.264  13.605
38829SOL    HW218320   8.653   5.296  13.599
38830SOL     OW18321   6.635   2.911   1.111
38830SOL    HW118322   6.577   2.839   1.137
38830SOL    HW218323   6.718   2.868   1.090
38831SOL     OW18324   6.023   5.453   1.245
38831SOL    HW118325   6.049   5.470   1.154
38831SOL    HW218326   6.077   5.514   1.297
38832SOL     OW18327  11.105  14.634   3.200
38832SOL    HW118328  11.045  14.643   3.274
38832SOL    HW218329  11.149  14.550   3.216
38833SOL     OW18330   1.844   4.008   2.639
38833SOL    HW118331   1.787   4.052   2.702
38833SOL    HW218332   1.798   4.017   2.556
38834SOL     OW18333  12.707   5.956   4.171
38834SOL    HW118334  12.770   5.957   4.243
38834SOL    HW218335  12.631   6.004   4.205
38835SOL     OW18336   4.990   2.350   0.922
38835SOL    HW118337   5.077   2.349   0.961
38835SOL    HW218338   4.968   2.443   0.916
38836SOL     OW18339   3.951  12.855  12.640
38836SOL    HW118340   3.976  12.769  12.605
38836SOL    HW218341   3.858  12.862  12.620
38837SOL     OW18342  12.461  13.004  11.402
38837SOL    HW118343  12.384  13.061  11.403
38837SOL    HW218344  12.449  12.947  11.478
38838SOL     OW18345   3.264  13.829  10.950
38838SOL    HW118346   3.294  13.918  10.932
38838SOL    HW218347   3.276  13.818  11.044
38839SOL     OW18348   0.880   8.305   4.570
38839SOL    HW118349   0.959   8.330   4.618
38839SOL    HW218350   0.849   8.386   4.531
38840SOL     OW18351   8.046   9.415   5.194
38840SOL    HW118352   8.017   9.370   5.114
38840SOL    HW218353   7.991   9.377   5.263
38841SOL     OW18354  14.535  10.146   2.660
38841SOL    HW118355  14.559  10.231   2.623
38841SOL    HW218356  14.518  10.165   2.753
38842SOL     OW18357   3.126   2.790   3.063
38842SOL    HW118358   3.087   2.730   3.000
38842SOL    HW218359   3.059   2.800   3.131
38843SOL     OW18360   9.933   7.046   0.686
38843SOL    HW118361   9.917   6.957   0.656
38843SOL    HW218362   9.976   7.089   0.612
38844SOL     OW18363   7.347   7.735  10.567
38844SOL    HW118364   7.409   7.731  10.494
38844SOL    HW218365   7.375   7.665  10.626
38845SOL     OW18366   8.155  10.616   8.940
38845SOL    HW118367   8.082  10.611   9.003
38845SOL    HW218368   8.117  10.585   8.858
38846SOL     OW18369   5.083   1.259   1.670
38846SOL    HW118370   5.168   1.250   1.714
38846SOL    HW218371   5.081   1.351   1.641
38847SOL     OW18372   6.072   4.099  10.348
38847SOL    HW118373   6.133   4.122  10.418
38847SOL    HW218374   6.128   4.070  10.276
38848SOL     OW18375  11.402   7.434   5.650
38848SOL    HW118376  11.309   7.453   5.646
38848SOL    HW218377  11.444   7.507   5.605
38849SOL     OW18378   9.014  13.538   2.956
38849SOL    HW118379   8.950  13.559   3.024
38849SOL    HW218380   9.003  13.444   2.941
38850SOL     OW18381   8.251  14.266   0.722
38850SOL    HW118382   8.327  14.316   0.752
38850SOL    HW218383   8.229  14.305   0.637
38851SOL     OW18384   6.172   6.710   7.398
38851SOL    HW118385   6.117   6.685   7.471
38851SOL    HW218386   6.251   6.746   7.438
38852SOL     OW18387   3.013  11.639   7.059
38852SOL    HW118388   2.965  11.556   7.055
38852SOL    HW218389   3.005  11.676   6.971
38853SOL     OW18390   2.187  12.621   1.318
38853SOL    HW118391   2.259  12.677   1.348
38853SOL    HW218392   2.117  12.683   1.296
38854SOL     OW18393   2.375   5.710   4.366
38854SOL    HW118394   2.398   5.803   4.369
38854SOL    HW218395   2.391   5.678   4.455
38855SOL     OW18396   0.026   5.119  10.106
38855SOL    HW118397   0.106   5.095  10.154
38855SOL    HW218398   0.057   5.150  10.021
38856SOL     OW18399  11.323   1.986  10.439
38856SOL    HW118400  11.285   1.931  10.507
38856SOL    HW218401  11.301   2.075  10.466
38857SOL     OW18402  13.394   8.236  12.212
38857SOL    HW118403  13.450   8.302  12.171
38857SOL    HW218404  13.455   8.174  12.251
38858SOL     OW18405   3.502   0.775   8.029
38858SOL    HW118406   3.595   0.787   8.049
38858SOL    HW218407   3.472   0.863   8.003
38859SOL     OW18408  13.694   4.169  14.620
38859SOL    HW118409  13.670   4.260  14.606
38859SOL    HW218410  13.756   4.149  14.549
38860SOL     OW18411  14.803   9.936   1.538
38860SOL    HW118412  14.794   9.968   1.628
38860SOL    HW218413  14.729   9.975   1.491
38861SOL     OW18414   3.188   7.552   4.805
38861SOL    HW118415   3.188   7.642   4.773
38861SOL    HW218416   3.228   7.557   4.892
38862SOL     OW18417   1.208   2.758   6.821
38862SOL    HW118418   1.151   2.684   6.841
38862SOL    HW218419   1.267   2.765   6.896
38863SOL     OW18420   6.308  13.376   0.073
38863SOL    HW118421   6.300  13.367   0.168
38863SOL    HW218422   6.238  13.437   0.049
38864SOL     OW18423  11.422   1.682   0.428
38864SOL    HW118424  11.465   1.759   0.466
38864SOL    HW218425  11.362   1.718   0.362
38865SOL     OW18426  10.364   6.519   6.246
38865SOL    HW118427  10.404   6.589   6.194
38865SOL    HW218428  10.319   6.565   6.317
38866SOL     OW18429  11.890  11.867   7.919
38866SOL    HW118430  11.979  11.844   7.893
38866SOL    HW218431  11.852  11.906   7.840
38867SOL     OW18432   6.195   9.786  13.505
38867SOL    HW118433   6.188   9.691  13.506
38867SOL    HW218434   6.273   9.805  13.556
38868SOL     OW18435  10.170   7.409  12.327
38868SOL    HW118436  10.116   7.487  12.328
38868SOL    HW218437  10.202   7.401  12.417
38869SOL     OW18438   4.000  14.835   2.070
38869SOL    HW118439   3.997  14.803   2.160
38869SOL    HW218440   4.050  14.769   2.023
38870SOL     OW18441   2.335   9.581   4.363
38870SOL    HW118442   2.240   9.591   4.367
38870SOL    HW218443   2.349   9.516   4.294
38871SOL     OW18444  11.069   4.327  10.219
38871SOL    HW118445  11.016   4.389  10.269
38871SOL    HW218446  11.006   4.284  10.161
38872SOL     OW18447  11.651  14.271  12.037
38872SOL    HW118448  11.614  14.346  12.083
38872SOL    HW218449  11.597  14.261  11.958
38873SOL     OW18450  13.854  12.439   0.446
38873SOL    HW118451  13.791  12.502   0.409
38873SOL    HW218452  13.810  12.405   0.524
38874SOL     OW18453   6.668  14.720   1.918
38874SOL    HW118454   6.710  14.743   1.836
38874SOL    HW218455   6.725  14.653   1.957
38875SOL     OW18456   4.025  14.164   5.232
38875SOL    HW118457   4.119  14.152   5.221
38875SOL    HW218458   4.000  14.101   5.299
38876SOL     OW18459   0.952   8.157   7.613
38876SOL    HW118460   0.990   8.130   7.530
38876SOL    HW218461   0.988   8.095   7.677
38877SOL     OW18462   2.115  14.401  12.101
38877SOL    HW118463   2.207  14.376  12.096
38877SOL    HW218464   2.108  14.449  12.184
38878SOL     OW18465   8.659  11.191   2.151
38878SOL    HW118466   8.688  11.124   2.213
38878SOL    HW218467   8.655  11.145   2.067
38879SOL     OW18468   4.688   7.065   0.028
38879SOL    HW118469   4.676   7.124  14.829
38879SOL    HW218470   4.608   7.013   0.031
38880SOL     OW18471  14.643   4.472   3.011
38880SOL    HW118472  14.728   4.514   3.021
38880SOL    HW218473  14.611   4.459   3.100
38881SOL     OW18474  11.633   4.332   6.802
38881SOL    HW118475  11.617   4.426   6.816
38881SOL    HW218476  11.663   4.300   6.887
38882SOL     OW18477   4.129  14.179   8.795
38882SOL    HW118478   4.108  14.150   8.884
38882SOL    HW218479   4.044  14.197   8.755
38883SOL     OW18480  11.223  11.305   7.414
38883SOL    HW118481  11.192  11.274   7.499
38883SOL    HW218482  11.236  11.225   7.362
38884SOL     OW18483  14.137   9.246   3.562
38884SOL    HW118484  14.067   9.263   3.499
38884SOL    HW218485  14.107   9.170   3.612
38885SOL     OW18486  11.698  14.507   4.325
38885SOL    HW118487  11.669  14.435   4.269
38885SOL    HW218488  11.790  14.487   4.344
38886SOL     OW18489   8.741  13.712   2.500
38886SOL    HW118490   8.646  13.718   2.493
38886SOL    HW218491   8.758  13.719   2.594
38887SOL     OW18492   7.416   4.876   3.180
38887SOL    HW118493   7.364   4.941   3.229
38887SOL    HW218494   7.505   4.887   3.214
38888SOL     OW18495   0.253  12.526   9.976
38888SOL    HW118496   0.229  12.483   9.894
38888SOL    HW218497   0.305  12.602   9.949
38889SOL     OW18498   2.512   3.523   9.392
38889SOL    HW118499   2.416   3.524   9.385
38889SOL    HW218500   2.536   3.615   9.404
38890SOL     OW18501   0.307   9.707   4.524
38890SOL    HW118502   0.257   9.645   4.577
38890SOL    HW218503   0.258   9.789   4.533
38891SOL     OW18504   0.589  10.669   7.893
38891SOL    HW118505   0.556  10.608   7.826
38891SOL    HW218506   0.552  10.754   7.867
38892SOL     OW18507  12.520  14.445   6.105
38892SOL    HW118508  12.480  14.518   6.152
38892SOL    HW218509  12.596  14.484   6.060
38893SOL     OW18510   3.430  14.472  14.347
38893SOL    HW118511   3.521  14.491  14.370
38893SOL    HW218512   3.399  14.553  14.307
38894SOL     OW18513   8.234   1.828   5.431
38894SOL    HW118514   8.178   1.879   5.373
38894SOL    HW218515   8.275   1.893   5.489
38895SOL     OW18516  11.261   0.519   7.059
38895SOL    HW118517  11.192   0.562   7.009
38895SOL    HW218518  11.329   0.585   7.070
38896SOL     OW18519  14.540   9.629   8.257
38896SOL    HW118520  14.449   9.606   8.276
38896SOL    HW218521  14.537   9.721   8.233
38897SOL     OW18522  14.191   7.085   9.289
38897SOL    HW118523  14.244   7.156   9.253
38897SOL    HW218524  14.177   7.025   9.216
38898SOL     OW18525   5.430   4.625   2.881
38898SOL    HW118526   5.517   4.598   2.851
38898SOL    HW218527   5.385   4.543   2.901
38899SOL     OW18528   1.576   1.461  13.879
38899SOL    HW118529   1.496   1.423  13.842
38899SOL    HW218530   1.550   1.491  13.966
38900SOL     OW18531   3.618  13.098   9.243
38900SOL    HW118532   3.706  13.069   9.269
38900SOL    HW218533   3.622  13.102   9.148
38901SOL     OW18534   0.361   9.499  14.215
38901SOL    HW118535   0.277   9.455  14.200
38901SOL    HW218536   0.423   9.451  14.161
38902SOL     OW18537   5.303  10.181   2.988
38902SOL    HW118538   5.244  10.213   2.919
38902SOL    HW218539   5.274  10.092   3.005
38903SOL     OW18540   7.755   7.478   1.941
38903SOL    HW118541   7.757   7.556   1.997
38903SOL    HW218542   7.839   7.435   1.957
38904SOL     OW18543   9.616   7.086   0.706
38904SOL    HW118544   9.688   7.081   0.643
38904SOL    HW218545   9.640   7.158   0.764
38905SOL     OW18546   8.454   7.028  11.683
38905SOL    HW118547   8.520   7.018  11.614
38905SOL    HW218548   8.463   6.949  11.736
38906SOL     OW18549   5.800   8.866   8.889
38906SOL    HW118550   5.861   8.794   8.905
38906SOL    HW218551   5.853   8.935   8.849
38907SOL     OW18552  13.518   2.560   8.342
38907SOL    HW118553  13.610   2.537   8.351
38907SOL    HW218554  13.517   2.656   8.345
38908SOL     OW18555   8.205   2.486   7.107
38908SOL    HW118556   8.111   2.471   7.113
38908SOL    HW218557   8.244   2.400   7.119
38909SOL     OW18558   3.417  12.073   4.253
38909SOL    HW118559   3.449  12.124   4.178
38909SOL    HW218560   3.491  12.072   4.314
38910SOL     OW18561  14.393  11.857  13.700
38910SOL    HW118562  14.344  11.868  13.781
38910SOL    HW218563  14.350  11.916  13.637
38911SOL     OW18564  12.381   4.454   0.649
38911SOL    HW118565  12.344   4.542   0.644
38911SOL    HW218566  12.373   4.430   0.742
38912SOL     OW18567  11.762  14.073  13.186
38912SOL    HW118568  11.679  14.024  13.196
38912SOL    HW218569  11.743  14.137  13.118
38913SOL     OW18570   4.375   9.330  12.984
38913SOL    HW118571   4.463   9.297  12.997
38913SOL    HW218572   4.319   9.268  13.031
38914SOL     OW18573  10.765   1.250  10.328
38914SOL    HW118574  10.734   1.317  10.267
38914SOL    HW218575  10.751   1.167  10.282
38915SOL     OW18576   8.025   6.725   2.075
38915SOL    HW118577   7.930   6.722   2.088
38915SOL    HW218578   8.053   6.633   2.085
38916SOL     OW18579   0.680  11.619   9.746
38916SOL    HW118580   0.607  11.676   9.771
38916SOL    HW218581   0.723  11.597   9.828
38917SOL     OW18582  14.701   2.306   1.642
38917SOL    HW118583  14.710   2.217   1.677
38917SOL    HW218584  14.607   2.325   1.651
38918SOL     OW18585   4.979   8.471  14.287
38918SOL    HW118586   4.973   8.555  14.242
38918SOL    HW218587   4.938   8.409  14.228
38919SOL     OW18588   0.248  10.404   1.966
38919SOL    HW118589   0.207  10.475   2.016
38919SOL    HW218590   0.311  10.365   2.027
38920SOL     OW18591   2.656   1.631   6.765
38920SOL    HW118592   2.679   1.647   6.673
38920SOL    HW218593   2.698   1.703   6.813
38921SOL     OW18594   1.662  13.342   0.302
38921SOL    HW118595   1.722  13.402   0.258
38921SOL    HW218596   1.588  13.333   0.241
38922SOL     OW18597  10.276  12.856   3.691
38922SOL    HW118598  10.345  12.896   3.744
38922SOL    HW218599  10.321  12.785   3.644
38923SOL     OW18600   0.157  14.608   7.697
38923SOL    HW118601   0.225  14.618   7.764
38923SOL    HW218602   0.159  14.515   7.675
38924SOL     OW18603   3.887   9.943   3.778
38924SOL    HW118604   3.820   9.998   3.818
38924SOL    HW218605   3.941   9.914   3.852
38925SOL     OW18606  10.368   1.859   1.117
38925SOL    HW118607  10.424   1.818   1.183
38925SOL    HW218608  10.321   1.927   1.164
38926SOL     OW18609   4.053  13.401  14.095
38926SOL    HW118610   3.982  13.433  14.150
38926SOL    HW218611   4.115  13.360  14.156
38927SOL     OW18612   1.870  14.718   3.757
38927SOL    HW118613   1.937  14.672   3.808
38927SOL    HW218614   1.874  14.809   3.788
38928SOL     OW18615  11.506  12.542  10.630
38928SOL    HW118616  11.598  12.549  10.604
38928SOL    HW218617  11.457  12.572  10.553
38929SOL     OW18618   7.373   9.431   9.580
38929SOL    HW118619   7.384   9.403   9.671
38929SOL    HW218620   7.280   9.451   9.573
38930SOL     OW18621  11.954  10.394  14.189
38930SOL    HW118622  12.029  10.371  14.135
38930SOL    HW218623  11.975  10.359  14.275
38931SOL     OW18624   1.553   6.637  14.005
38931SOL    HW118625   1.617   6.634  14.077
38931SOL    HW218626   1.605   6.663  13.929
38932SOL     OW18627  13.447   4.042   8.922
38932SOL    HW118628  13.512   4.007   8.982
38932SOL    HW218629  13.489   4.041   8.836
38933SOL     OW18630   6.348  14.475   9.809
38933SOL    HW118631   6.285  14.542   9.835
38933SOL    HW218632   6.336  14.466   9.715
38934SOL     OW18633  14.739   7.592  14.639
38934SOL    HW118634  14.644   7.595  14.655
38934SOL    HW218635  14.777   7.604  14.726
38935SOL     OW18636   1.340  11.475  11.919
38935SOL    HW118637   1.297  11.394  11.892
38935SOL    HW218638   1.268  11.536  11.936
38936SOL     OW18639   8.019   7.919   3.541
38936SOL    HW118640   8.019   7.908   3.445
38936SOL    HW218641   8.093   7.978   3.557
38937SOL     OW18642   4.922   2.323   8.165
38937SOL    HW118643   4.924   2.369   8.249
38937SOL    HW218644   4.963   2.238   8.183
38938SOL     OW18645  13.922  10.325  12.980
38938SOL    HW118646  13.900  10.235  13.002
38938SOL    HW218647  14.014  10.335  13.003
38939SOL     OW18648  11.273   0.024   1.692
38939SOL    HW118649  11.294  14.822   1.743
38939SOL    HW218650  11.225  14.868   1.616
38940SOL     OW18651   9.389   8.101   1.963
38940SOL    HW118652   9.444   8.096   1.885
38940SOL    HW218653   9.433   8.165   2.019
38941SOL     OW18654  13.855   7.929   2.392
38941SOL    HW118655  13.883   7.885   2.473
38941SOL    HW218656  13.890   8.018   2.399
38942SOL     OW18657   3.108   3.202   2.533
38942SOL    HW118658   3.115   3.107   2.537
38942SOL    HW218659   3.107   3.223   2.440
38943SOL     OW18660   7.355  14.199   9.582
38943SOL    HW118661   7.356  14.103   9.578
38943SOL    HW218662   7.428  14.221   9.640
38944SOL     OW18663   9.555   8.216   0.627
38944SOL    HW118664   9.614   8.142   0.614
38944SOL    HW218665   9.531   8.212   0.719
38945SOL     OW18666  13.131   1.643   1.272
38945SOL    HW118667  13.184   1.568   1.299
38945SOL    HW218668  13.090   1.616   1.191
38946SOL     OW18669   2.474  13.409   3.623
38946SOL    HW118670   2.506  13.490   3.583
38946SOL    HW218671   2.541  13.386   3.687
38947SOL     OW18672   2.943   4.000   1.093
38947SOL    HW118673   2.957   3.907   1.110
38947SOL    HW218674   2.876   4.026   1.156
38948SOL     OW18675   8.840   5.456  14.489
38948SOL    HW118676   8.769   5.437  14.428
38948SOL    HW218677   8.910   5.396  14.463
38949SOL     OW18678   9.267   0.594   0.939
38949SOL    HW118679   9.245   0.543   0.861
38949SOL    HW218680   9.186   0.594   0.991
38950SOL     OW18681   0.457  13.463  11.882
38950SOL    HW118682   0.401  13.540  11.869
38950SOL    HW218683   0.416  13.395  11.829
38951SOL     OW18684   1.974  14.280   9.455
38951SOL    HW118685   1.914  14.214   9.491
38951SOL    HW218686   2.041  14.290   9.522
38952SOL     OW18687   6.121   2.959   3.143
38952SOL    HW118688   6.132   3.054   3.134
38952SOL    HW218689   6.038   2.949   3.189
38953SOL     OW18690   2.484  12.654   3.817
38953SOL    HW118691   2.490  12.611   3.732
38953SOL    HW218692   2.480  12.582   3.880
38954SOL     OW18693   6.366   9.378   1.227
38954SOL    HW118694   6.369   9.404   1.319
38954SOL    HW218695   6.364   9.460   1.178
38955SOL     OW18696  13.326  12.908   0.360
38955SOL    HW118697  13.370  12.851   0.297
38955SOL    HW218698  13.386  12.911   0.435
38956SOL     OW18699  12.420   8.806  13.123
38956SOL    HW118700  12.459   8.837  13.204
38956SOL    HW218701  12.340   8.858  13.113
38957SOL     OW18702   9.831  14.053   5.518
38957SOL    HW118703   9.844  14.028   5.426
38957SOL    HW218704   9.747  14.099   5.518
38958SOL     OW18705  10.340   8.827  13.112
38958SOL    HW118706  10.367   8.805  13.201
38958SOL    HW218707  10.250   8.857  13.121
38959SOL     OW18708   4.707   3.616  11.307
38959SOL    HW118709   4.769   3.640  11.238
38959SOL    HW218710   4.629   3.668  11.288
38960SOL     OW18711   3.576  10.065   8.799
38960SOL    HW118712   3.653  10.018   8.767
38960SOL    HW218713   3.519   9.997   8.834
38961SOL     OW18714   9.109  10.419   7.307
38961SOL    HW118715   9.191  10.388   7.344
38961SOL    HW218716   9.130  10.441   7.216
38962SOL     OW18717  11.377   3.905   2.792
38962SOL    HW118718  11.369   3.837   2.858
38962SOL    HW218719  11.407   3.859   2.713
38963SOL     OW18720   2.439  14.594   2.305
38963SOL    HW118721   2.358  14.603   2.254
38963SOL    HW218722   2.506  14.638   2.253
38964SOL     OW18723   8.582   8.556  13.941
38964SOL    HW118724   8.569   8.490  13.872
38964SOL    HW218725   8.502   8.551  13.993
38965SOL     OW18726   7.941  10.377   2.602
38965SOL    HW118727   7.889  10.453   2.577
38965SOL    HW218728   7.972  10.341   2.518
38966SOL     OW18729   6.299   0.523  10.004
38966SOL    HW118730   6.353   0.492  10.077
38966SOL    HW218731   6.238   0.452   9.988
38967SOL     OW18732   5.789  14.092  11.210
38967SOL    HW118733   5.747  14.177  11.197
38967SOL    HW218734   5.880  14.107  11.183
38968SOL     OW18735  13.117  11.237   2.432
38968SOL    HW118736  13.062  11.313   2.414
38968SOL    HW218737  13.157  11.256   2.517
38969SOL     OW18738  12.351   4.635   8.876
38969SOL    HW118739  12.365   4.721   8.836
38969SOL    HW218740  12.383   4.573   8.810
38970SOL     OW18741  12.742  10.304   5.392
38970SOL    HW118742  12.761  10.345   5.477
38970SOL    HW218743  12.695  10.224   5.415
38971SOL     OW18744  10.875   4.931  14.247
38971SOL    HW118745  10.853   4.962  14.335
38971SOL    HW218746  10.846   4.839  14.247
38972SOL     OW18747   3.906   7.298  13.999
38972SOL    HW118748   3.942   7.316  14.086
38972SOL    HW218749   3.825   7.250  14.016
38973SOL     OW18750   0.872   9.406  12.787
38973SOL    HW118751   0.789   9.373  12.821
38973SOL    HW218752   0.939   9.360  12.837
38974SOL     OW18753   2.731   5.145   1.323
38974SOL    HW118754   2.719   5.234   1.288
38974SOL    HW218755   2.811   5.151   1.376
38975SOL     OW18756   6.610   3.287   4.898
38975SOL    HW118757   6.598   3.209   4.953
38975SOL    HW218758   6.602   3.255   4.809
38976SOL     OW18759   2.802  10.484  12.930
38976SOL    HW118760   2.802  10.407  12.874
38976SOL    HW218761   2.893  10.495  12.957
38977SOL     OW18762  13.417   3.148   6.395
38977SOL    HW118763  13.471   3.069   6.400
38977SOL    HW218764  13.480   3.220   6.396
38978SOL     OW18765  12.577   4.416  13.106
38978SOL    HW118766  12.509   4.352  13.086
38978SOL    HW218767  12.636   4.370  13.166
38979SOL     OW18768   9.849  11.945  13.995
38979SOL    HW118769   9.799  11.980  14.069
38979SOL    HW218770   9.873  12.021  13.943
38980SOL     OW18771  13.073   3.453   0.996
38980SOL    HW118772  13.033   3.534   1.027
38980SOL    HW218773  13.118   3.417   1.073
38981SOL     OW18774  13.488   6.072   2.660
38981SOL    HW118775  13.414   6.098   2.714
38981SOL    HW218776  13.522   5.993   2.702
38982SOL     OW18777   9.532   9.788   9.101
38982SOL    HW118778   9.599   9.800   9.169
38982SOL    HW218779   9.485   9.872   9.099
38983SOL     OW18780  13.152  10.073   6.413
38983SOL    HW118781  13.153  10.146   6.475
38983SOL    HW218782  13.241  10.038   6.415
38984SOL     OW18783   0.306   5.083   4.350
38984SOL    HW118784   0.234   5.144   4.332
38984SOL    HW218785   0.277   5.033   4.427
38985SOL     OW18786  13.870  14.440   4.825
38985SOL    HW118787  13.941  14.489   4.865
38985SOL    HW218788  13.792  14.493   4.841
38986SOL     OW18789  12.335   8.717  12.741
38986SOL    HW118790  12.340   8.655  12.813
38986SOL    HW218791  12.270   8.782  12.769
38987SOL     OW18792   3.203   2.873   8.001
38987SOL    HW118793   3.245   2.959   8.010
38987SOL    HW218794   3.110   2.890   8.016
38988SOL     OW18795   7.074   5.271   4.656
38988SOL    HW118796   7.030   5.305   4.579
38988SOL    HW218797   7.029   5.313   4.730
38989SOL     OW18798  11.091   5.871  11.392
38989SOL    HW118799  11.181   5.891  11.364
38989SOL    HW218800  11.037   5.898  11.318
38990SOL     OW18801   4.334  13.955   1.658
38990SOL    HW118802   4.272  14.027   1.662
38990SOL    HW218803   4.358  13.949   1.565
38991SOL     OW18804   1.085  10.091   0.722
38991SOL    HW118805   1.005  10.143   0.725
38991SOL    HW218806   1.069  10.018   0.781
38992SOL     OW18807   1.247  14.209  13.599
38992SOL    HW118808   1.263  14.284  13.657
38992SOL    HW218809   1.314  14.145  13.624
38993SOL     OW18810   0.806   4.826   1.087
38993SOL    HW118811   0.748   4.853   1.158
38993SOL    HW218812   0.891   4.864   1.110
38994SOL     OW18813   4.770  12.874   6.144
38994SOL    HW118814   4.813  12.791   6.164
38994SOL    HW218815   4.801  12.934   6.211
38995SOL     OW18816   5.972   8.783   7.742
38995SOL    HW118817   5.914   8.809   7.814
38995SOL    HW218818   6.031   8.857   7.732
38996SOL     OW18819   2.919  12.262   0.093
38996SOL    HW118820   2.931  12.356   0.080
38996SOL    HW218821   2.849  12.238   0.032
38997SOL     OW18822   7.214   4.436  11.183
38997SOL    HW118823   7.123   4.407  11.191
38997SOL    HW218824   7.207   4.521  11.138
38998SOL     OW18825   5.454   0.697   3.348
38998SOL    HW118826   5.453   0.675   3.255
38998SOL    HW218827   5.475   0.791   3.350
38999SOL     OW18828  12.830   6.503  13.862
38999SOL    HW118829  12.740   6.506  13.831
38999SOL    HW218830  12.881   6.474  13.786
39000SOL     OW18831   7.687   5.353  14.760
39000SOL    HW118832   7.745   5.302  14.816
39000SOL    HW218833   7.608   5.300  14.752
39001SOL     OW18834   1.868  11.618  10.641
39001SOL    HW118835   1.925  11.542  10.635
39001SOL    HW218836   1.827  11.624  10.555
39002SOL     OW18837   4.326  12.429   8.547
39002SOL    HW118838   4.248  12.378   8.526
39002SOL    HW218839   4.368  12.379   8.617
39003SOL     OW18840  12.807   0.812   9.164
39003SOL    HW118841  12.754   0.870   9.219
39003SOL    HW218842  12.894   0.812   9.206
39004SOL     OW18843   3.374  11.858  13.112
39004SOL    HW118844   3.353  11.895  13.027
39004SOL    HW218845   3.373  11.763  13.099
39005SOL     OW18846   3.958  14.469   3.247
39005SOL    HW118847   3.867  14.471   3.219
39005SOL    HW218848   3.989  14.558   3.233
39006SOL     OW18849  11.795  10.629  11.153
39006SOL    HW118850  11.809  10.601  11.243
39006SOL    HW218851  11.857  10.701  11.140
39007SOL     OW18852   0.097   9.600  13.161
39007SOL    HW118853   0.063   9.550  13.087
39007SOL    HW218854   0.044   9.680  13.162
39008SOL     OW18855  12.406  13.224   0.537
39008SOL    HW118856  12.451  13.299   0.577
39008SOL    HW218857  12.407  13.244   0.443
39009SOL     OW18858  13.519   1.989   0.116
39009SOL    HW118859  13.579   1.916   0.130
39009SOL    HW218860  13.574   2.067   0.127
39010SOL     OW18861  14.138   7.363   3.172
39010SOL    HW118862  14.145   7.313   3.091
39010SOL    HW218863  14.156   7.299   3.241
39011SOL     OW18864   0.270   3.866  12.824
39011SOL    HW118865   0.223   3.871  12.741
39011SOL    HW218866   0.362   3.855  12.799
39012SOL     OW18867   2.425  13.421   9.425
39012SOL    HW118868   2.344  13.468   9.404
39012SOL    HW218869   2.476  13.425   9.345
39013SOL     OW18870   1.498   4.424  14.397
39013SOL    HW118871   1.579   4.472  14.381
39013SOL    HW218872   1.525   4.333  14.407
39014SOL     OW18873   7.846   5.361   6.674
39014SOL    HW118874   7.840   5.294   6.606
39014SOL    HW218875   7.757   5.395   6.682
39015SOL     OW18876   5.896  12.378   7.584
39015SOL    HW118877   5.893  12.400   7.491
39015SOL    HW218878   5.808  12.396   7.616
39016SOL     OW18879   8.404   3.005   8.832
39016SOL    HW118880   8.405   2.985   8.925
39016SOL    HW218881   8.312   2.999   8.806
39017SOL     OW18882   5.748   4.520  12.799
39017SOL    HW118883   5.799   4.589  12.841
39017SOL    HW218884   5.809   4.481  12.736
39018SOL     OW18885   8.562   3.444   0.190
39018SOL    HW118886   8.469   3.467   0.199
39018SOL    HW218887   8.609   3.524   0.214
39019SOL     OW18888   6.477   2.050   5.493
39019SOL    HW118889   6.536   1.978   5.514
39019SOL    HW218890   6.498   2.073   5.402
39020SOL     OW18891   1.137   4.260   6.577
39020SOL    HW118892   1.081   4.300   6.644
39020SOL    HW218893   1.172   4.334   6.528
39021SOL     OW18894   1.766   6.587   3.875
39021SOL    HW118895   1.772   6.585   3.780
39021SOL    HW218896   1.742   6.678   3.896
39022SOL     OW18897  12.718  12.123   7.677
39022SOL    HW118898  12.687  12.130   7.587
39022SOL    HW218899  12.732  12.214   7.704
39023SOL     OW18900  10.803   5.729  13.591
39023SOL    HW118901  10.755   5.737  13.674
39023SOL    HW218902  10.859   5.652  13.603
39024SOL     OW18903   6.796   2.989   8.284
39024SOL    HW118904   6.735   3.014   8.354
39024SOL    HW218905   6.798   3.065   8.226
39025SOL     OW18906  14.465  14.010  13.571
39025SOL    HW118907  14.387  13.970  13.533
39025SOL    HW218908  14.531  13.942  13.567
39026SOL     OW18909   1.447  10.651   1.533
39026SOL    HW118910   1.444  10.579   1.471
39026SOL    HW218911   1.384  10.627   1.601
39027SOL     OW18912   2.735   6.351   4.015
39027SOL    HW118913   2.643   6.352   3.988
39027SOL    HW218914   2.780   6.306   3.944
39028SOL     OW18915   8.002  10.463  14.124
39028SOL    HW118916   8.006  10.368  14.118
39028SOL    HW218917   8.093  10.490  14.140
39029SOL     OW18918   6.894   3.647  11.183
39029SOL    HW118919   6.872   3.703  11.257
39029SOL    HW218920   6.967   3.692  11.140
39030SOL     OW18921  12.416   3.774   8.874
39030SOL    HW118922  12.351   3.808   8.814
39030SOL    HW218923  12.470   3.715   8.821
39031SOL     OW18924   4.797   4.742  13.140
39031SOL    HW118925   4.802   4.833  13.169
39031SOL    HW218926   4.888   4.712  13.134
39032SOL     OW18927  12.581   9.407   9.914
39032SOL    HW118928  12.633   9.360   9.980
39032SOL    HW218929  12.568   9.494   9.951
39033SOL     OW18930   6.037   9.089   3.827
39033SOL    HW118931   6.082   9.072   3.910
39033SOL    HW218932   5.986   9.168   3.843
39034SOL     OW18933   9.372   0.157   2.374
39034SOL    HW118934   9.391   0.247   2.349
39034SOL    HW218935   9.415   0.104   2.307
39035SOL     OW18936   8.309  10.520   4.648
39035SOL    HW118937   8.248  10.568   4.703
39035SOL    HW218938   8.382  10.498   4.706
39036SOL     OW18939  10.260   2.526   2.050
39036SOL    HW118940  10.197   2.468   2.093
39036SOL    HW218941  10.209   2.573   1.984
39037SOL     OW18942  10.230   3.797  11.307
39037SOL    HW118943  10.188   3.833  11.228
39037SOL    HW218944  10.215   3.703  11.301
39038SOL     OW18945  13.881   5.620  14.581
39038SOL    HW118946  13.886   5.591  14.490
39038SOL    HW218947  13.793   5.656  14.590
39039SOL     OW18948   2.644   1.886   6.227
39039SOL    HW118949   2.568   1.889   6.169
39039SOL    HW218950   2.621   1.821   6.293
39040SOL     OW18951   3.337   8.246   6.229
39040SOL    HW118952   3.282   8.173   6.200
39040SOL    HW218953   3.300   8.274   6.312
39041SOL     OW18954   0.667   4.626   4.092
39041SOL    HW118955   0.603   4.576   4.142
39041SOL    HW218956   0.625   4.641   4.008
39042SOL     OW18957   1.048   3.605   6.662
39042SOL    HW118958   1.009   3.672   6.606
39042SOL    HW218959   0.974   3.570   6.712
39043SOL     OW18960  13.458   8.777   6.437
39043SOL    HW118961  13.471   8.841   6.367
39043SOL    HW218962  13.390   8.815   6.492
39044SOL     OW18963  10.082   4.854  12.828
39044SOL    HW118964  10.128   4.866  12.911
39044SOL    HW218965  10.146   4.879  12.761
39045SOL     OW18966  10.215  13.189   9.322
39045SOL    HW118967  10.125  13.189   9.354
39045SOL    HW218968  10.225  13.275   9.281
39046SOL     OW18969  13.316  10.072   0.915
39046SOL    HW118970  13.383  10.099   0.978
39046SOL    HW218971  13.259  10.149   0.907
39047SOL     OW18972   1.186   8.697  10.477
39047SOL    HW118973   1.187   8.792  10.476
39047SOL    HW218974   1.256   8.671  10.417
39048SOL     OW18975   9.659  13.620   0.730
39048SOL    HW118976   9.634  13.708   0.759
39048SOL    HW218977   9.657  13.567   0.810
39049SOL     OW18978   7.415  11.545   2.557
39049SOL    HW118979   7.334  11.510   2.519
39049SOL    HW218980   7.431  11.490   2.634
39050SOL     OW18981  10.708   3.501   2.769
39050SOL    HW118982  10.616   3.492   2.745
39050SOL    HW218983  10.749   3.539   2.691
39051SOL     OW18984   0.662   1.008   8.501
39051SOL    HW118985   0.739   1.018   8.445
39051SOL    HW218986   0.689   0.945   8.568
39052SOL     OW18987   6.954  12.908  13.084
39052SOL    HW118988   6.943  12.982  13.143
39052SOL    HW218989   6.868  12.866  13.082
39053SOL     OW18990   8.840  14.089  13.794
39053SOL    HW118991   8.810  14.000  13.809
39053SOL    HW218992   8.932  14.079  13.767
39054SOL     OW18993  10.029   7.484   8.534
39054SOL    HW118994  10.030   7.408   8.592
39054SOL    HW218995   9.964   7.463   8.467
39055SOL     OW18996  10.955  10.364   3.491
39055SOL    HW118997  10.923  10.276   3.508
39055SOL    HW218998  10.878  10.420   3.501
39056SOL     OW18999  10.950   1.994   4.397
39056SOL    HW119000  11.038   1.993   4.359
39056SOL    HW219001  10.947   1.917   4.454
39057SOL     OW19002  13.210   2.501   1.194
39057SOL    HW119003  13.233   2.456   1.275
39057SOL    HW219004  13.290   2.498   1.141
39058SOL     OW19005   2.637  10.753  12.386
39058SOL    HW119006   2.609  10.737  12.476
39058SOL    HW219007   2.563  10.726  12.332
39059SOL     OW19008   3.982  12.358   0.327
39059SOL    HW119009   3.901  12.342   0.375
39059SOL    HW219010   4.029  12.274   0.331
39060SOL     OW19011   7.540  13.501   9.502
39060SOL    HW119012   7.554  13.567   9.570
39060SOL    HW219013   7.612  13.514   9.441
39061SOL     OW19014   5.376   9.563   1.588
39061SOL    HW119015   5.387   9.631   1.654
39061SOL    HW219016   5.308   9.506   1.624
39062SOL     OW19017  11.517   2.958   4.764
39062SOL    HW119018  11.489   2.946   4.673
39062SOL    HW219019  11.548   3.048   4.768
39063SOL     OW19020  10.046   5.325   7.647
39063SOL    HW119021   9.983   5.254   7.633
39063SOL    HW219022  10.110   5.290   7.708
39064SOL     OW19023   1.217   0.393   0.109
39064SOL    HW119024   1.275   0.321   0.134
39064SOL    HW219025   1.239   0.464   0.170
39065SOL     OW19026   8.547  13.354  13.427
39065SOL    HW119027   8.458  13.349  13.392
39065SOL    HW219028   8.582  13.435  13.391
39066SOL     OW19029   9.510   9.437   5.248
39066SOL    HW119030   9.558   9.490   5.184
39066SOL    HW219031   9.526   9.346   5.220
39067SOL     OW19032   2.797   3.924   6.204
39067SOL    HW119033   2.730   3.961   6.147
39067SOL    HW219034   2.859   3.882   6.144
39068SOL     OW19035   3.300   0.346   8.056
39068SOL    HW119036   3.216   0.393   8.061
39068SOL    HW219037   3.303   0.294   8.136
39069SOL     OW19038   1.634   3.362   4.672
39069SOL    HW119039   1.614   3.436   4.729
39069SOL    HW219040   1.588   3.381   4.591
39070SOL     OW19041  10.515  11.382   8.108
39070SOL    HW119042  10.525  11.301   8.158
39070SOL    HW219043  10.549  11.361   8.021
39071SOL     OW19044   9.768  14.237  14.857
39071SOL    HW119045   9.678  14.252   0.011
39071SOL    HW219046   9.811  14.191   0.053
39072SOL     OW19047   1.393   9.142   2.621
39072SOL    HW119048   1.304   9.127   2.590
39072SOL    HW219049   1.394   9.234   2.649
39073SOL     OW19050   8.804  11.941   4.271
39073SOL    HW119051   8.871  11.986   4.219
39073SOL    HW219052   8.846  11.858   4.295
39074SOL     OW19053   5.423   2.527   1.986
39074SOL    HW119054   5.430   2.579   1.907
39074SOL    HW219055   5.409   2.591   2.056
39075SOL     OW19056  10.006   9.669   4.145
39075SOL    HW119057  10.007   9.764   4.160
39075SOL    HW219058  10.043   9.633   4.226
39076SOL     OW19059   2.251   2.364   2.306
39076SOL    HW119060   2.248   2.292   2.368
39076SOL    HW219061   2.254   2.443   2.360
39077SOL     OW19062  10.888   1.011   3.814
39077SOL    HW119063  10.821   0.989   3.879
39077SOL    HW219064  10.960   0.950   3.833
39078SOL     OW19065  14.052   0.732  10.568
39078SOL    HW119066  14.146   0.725  10.588
39078SOL    HW219067  14.048   0.739  10.473
39079SOL     OW19068   8.305   5.363   0.325
39079SOL    HW119069   8.227   5.364   0.270
39079SOL    HW219070   8.317   5.271   0.349
39080SOL     OW19071   7.465   5.081  11.163
39080SOL    HW119072   7.552   5.116  11.142
39080SOL    HW219073   7.475   4.986  11.156
39081SOL     OW19074  12.775  14.651   5.074
39081SOL    HW119075  12.744  14.560   5.080
39081SOL    HW219076  12.760  14.686   5.162
39082SOL     OW19077  11.963   8.567   1.723
39082SOL    HW119078  11.960   8.656   1.688
39082SOL    HW219079  12.003   8.577   1.809
39083SOL     OW19080  13.045   6.771   8.875
39083SOL    HW119081  13.051   6.742   8.966
39083SOL    HW219082  13.051   6.690   8.824
39084SOL     OW19083  13.043   5.414   0.131
39084SOL    HW119084  13.129   5.384   0.159
39084SOL    HW219085  13.032   5.378   0.043
39085SOL     OW19086   0.853   1.507  13.925
39085SOL    HW119087   0.773   1.470  13.890
39085SOL    HW219088   0.852   1.483  14.018
39086SOL     OW19089  10.181   5.411  10.738
39086SOL    HW119090  10.174   5.449  10.825
39086SOL    HW219091  10.155   5.320  10.750
39087SOL     OW19092   9.457  13.625   6.853
39087SOL    HW119093   9.419  13.710   6.830
39087SOL    HW219094   9.512  13.603   6.778
39088SOL     OW19095   4.001   7.662  14.389
39088SOL    HW119096   3.910   7.668  14.360
39088SOL    HW219097   3.998   7.681  14.483
39089SOL     OW19098  12.582   6.608   9.580
39089SOL    HW119099  12.645   6.663   9.627
39089SOL    HW219100  12.542   6.553   9.647
39090SOL     OW19101   2.252  13.483   8.930
39090SOL    HW119102   2.329  13.426   8.924
39090SOL    HW219103   2.190  13.446   8.867
39091SOL     OW19104   1.501  10.238   2.216
39091SOL    HW119105   1.482  10.329   2.241
39091SOL    HW219106   1.436  10.186   2.264
39092SOL     OW19107  10.278   1.595   5.895
39092SOL    HW119108  10.251   1.534   5.827
39092SOL    HW219109  10.373   1.605   5.881
39093SOL     OW19110   0.330   7.876   3.006
39093SOL    HW119111   0.350   7.910   2.918
39093SOL    HW219112   0.411   7.891   3.056
39094SOL     OW19113   7.741  13.525  14.087
39094SOL    HW119114   7.817  13.563  14.043
39094SOL    HW219115   7.681  13.598  14.100
39095SOL     OW19116   6.072   0.665   6.108
39095SOL    HW119117   6.087   0.716   6.028
39095SOL    HW219118   5.980   0.640   6.104
39096SOL     OW19119   8.320  12.062   4.594
39096SOL    HW119120   8.238  12.015   4.610
39096SOL    HW219121   8.304  12.150   4.627
39097SOL     OW19122   6.468   0.327   7.860
39097SOL    HW119123   6.404   0.379   7.810
39097SOL    HW219124   6.473   0.370   7.945
39098SOL     OW19125   3.162   7.102   0.456
39098SOL    HW119126   3.184   7.190   0.428
39098SOL    HW219127   3.193   7.045   0.386
39099SOL     OW19128   1.986   7.416   5.155
39099SOL    HW119129   2.042   7.492   5.144
39099SOL    HW219130   1.959   7.419   5.247
39100SOL     OW19131  13.948  13.704  11.217
39100SOL    HW119132  13.978  13.613  11.217
39100SOL    HW219133  13.853  13.698  11.222
39101SOL     OW19134   3.949   5.499   3.456
39101SOL    HW119135   4.035   5.509   3.498
39101SOL    HW219136   3.893   5.560   3.504
39102SOL     OW19137  13.965   3.624  10.430
39102SOL    HW119138  14.028   3.694  10.414
39102SOL    HW219139  13.886   3.651  10.382
39103SOL     OW19140   1.386   1.629   9.145
39103SOL    HW119141   1.440   1.610   9.222
39103SOL    HW219142   1.428   1.706   9.106
39104SOL     OW19143   3.142  13.301   7.772
39104SOL    HW119144   3.169  13.318   7.863
39104SOL    HW219145   3.146  13.206   7.764
39105SOL     OW19146   0.920   7.101  13.254
39105SOL    HW119147   1.005   7.108  13.211
39105SOL    HW219148   0.910   7.008  13.274
39106SOL     OW19149   8.014   4.074   5.677
39106SOL    HW119150   7.959   4.063   5.754
39106SOL    HW219151   7.957   4.054   5.603
39107SOL     OW19152   5.536   2.103   9.148
39107SOL    HW119153   5.609   2.090   9.087
39107SOL    HW219154   5.461   2.064   9.104
39108SOL     OW19155  13.522  11.911   2.582
39108SOL    HW119156  13.601  11.951   2.546
39108SOL    HW219157  13.455  11.927   2.515
39109SOL     OW19158   8.017  14.698   1.932
39109SOL    HW119159   7.990  14.669   1.845
39109SOL    HW219160   8.107  14.730   1.920
39110SOL     OW19161   0.808   0.973   5.869
39110SOL    HW119162   0.731   0.972   5.926
39110SOL    HW219163   0.819   0.882   5.841
39111SOL     OW19164  14.551   7.385   8.951
39111SOL    HW119165  14.581   7.468   8.988
39111SOL    HW219166  14.621   7.359   8.891
39112SOL     OW19167   3.274  13.315   4.801
39112SOL    HW119168   3.274  13.225   4.768
39112SOL    HW219169   3.287  13.369   4.723
39113SOL     OW19170  12.395   1.937   4.836
39113SOL    HW119171  12.481   1.898   4.853
39113SOL    HW219172  12.412   2.030   4.825
39114SOL     OW19173   7.957   4.633   2.709
39114SOL    HW119174   8.007   4.674   2.639
39114SOL    HW219175   7.867   4.660   2.694
39115SOL     OW19176   3.377  13.476  14.421
39115SOL    HW119177   3.404  13.466  14.513
39115SOL    HW219178   3.300  13.421  14.412
39116SOL     OW19179   3.340  14.363   3.013
39116SOL    HW119180   3.384  14.428   2.958
39116SOL    HW219181   3.409  14.301   3.036
39117SOL     OW19182  10.642   6.861   6.818
39117SOL    HW119183  10.638   6.766   6.807
39117SOL    HW219184  10.733   6.884   6.801
39118SOL     OW19185   9.043   8.221   6.309
39118SOL    HW119186   8.969   8.201   6.367
39118SOL    HW219187   9.052   8.316   6.312
39119SOL     OW19188   7.717  11.246   9.139
39119SOL    HW119189   7.715  11.242   9.043
39119SOL    HW219190   7.806  11.220   9.162
39120SOL     OW19191   4.747  10.904   0.197
39120SOL    HW119192   4.828  10.860   0.222
39120SOL    HW219193   4.762  10.996   0.218
39121SOL     OW19194  14.395   8.255   8.864
39121SOL    HW119195  14.370   8.310   8.938
39121SOL    HW219196  14.382   8.310   8.787
39122SOL     OW19197  13.295   0.938   2.211
39122SOL    HW119198  13.222   0.893   2.169
39122SOL    HW219199  13.372   0.888   2.185
39123SOL     OW19200  11.975   3.239  14.435
39123SOL    HW119201  11.968   3.230  14.530
39123SOL    HW219202  11.894   3.283  14.410
39124SOL     OW19203   0.631  11.006  12.809
39124SOL    HW119204   0.719  11.015  12.773
39124SOL    HW219205   0.573  11.011  12.734
39125SOL     OW19206   2.626   1.011   5.376
39125SOL    HW119207   2.719   1.013   5.398
39125SOL    HW219208   2.624   0.986   5.284
39126SOL     OW19209   9.316   6.206   9.091
39126SOL    HW119210   9.332   6.145   9.162
39126SOL    HW219211   9.362   6.286   9.116
39127SOL     OW19212   7.868   1.010  14.179
39127SOL    HW119213   7.923   1.026  14.103
39127SOL    HW219214   7.798   0.953  14.147
39128SOL     OW19215   0.186  13.959  12.500
39128SOL    HW119216   0.125  13.905  12.450
39128SOL    HW219217   0.131  14.003  12.565
39129SOL     OW19218  12.134   7.353  10.764
39129SOL    HW119219  12.168   7.402  10.839
39129SOL    HW219220  12.079   7.415  10.717
39130SOL     OW19221  14.616  14.657   4.638
39130SOL    HW119222  14.618  14.752   4.626
39130SOL    HW219223  14.617  14.645   4.733
39131SOL     OW19224   8.661   7.475   1.036
39131SOL    HW119225   8.730   7.540   1.022
39131SOL    HW219226   8.589   7.525   1.073
39132SOL     OW19227  12.958   2.576  11.283
39132SOL    HW119228  12.987   2.501  11.231
39132SOL    HW219229  12.998   2.561  11.369
39133SOL     OW19230  12.436  14.414   1.655
39133SOL    HW119231  12.489  14.380   1.727
39133SOL    HW219232  12.416  14.504   1.680
39134SOL     OW19233   9.237   0.434   9.573
39134SOL    HW119234   9.260   0.425   9.481
39134SOL    HW219235   9.202   0.349   9.598
39135SOL     OW19236  13.744   0.121   9.444
39135SOL    HW119237  13.781   0.040   9.479
39135SOL    HW219238  13.800   0.191   9.479
39136SOL     OW19239  11.266   4.222   8.146
39136SOL    HW119240  11.357   4.242   8.126
39136SOL    HW219241  11.257   4.128   8.128
39137SOL     OW19242   9.352   8.055   4.647
39137SOL    HW119243   9.281   8.086   4.592
39137SOL    HW219244   9.368   8.127   4.708
39138SOL     OW19245   3.494   1.166   4.348
39138SOL    HW119246   3.504   1.080   4.308
39138SOL    HW219247   3.413   1.201   4.310
39139SOL     OW19248   1.845   8.828   4.407
39139SOL    HW119249   1.862   8.868   4.492
39139SOL    HW219250   1.753   8.845   4.390
39140SOL     OW19251   0.344   0.415   3.936
39140SOL    HW119252   0.418   0.366   3.900
39140SOL    HW219253   0.297   0.448   3.859
39141SOL     OW19254   8.620  10.736  12.068
39141SOL    HW119255   8.645  10.651  12.106
39141SOL    HW219256   8.698  10.766  12.023
39142SOL     OW19257   6.240  11.136  10.343
39142SOL    HW119258   6.144  11.131  10.342
39142SOL    HW219259   6.268  11.045  10.354
39143SOL     OW19260   6.643   1.192   9.002
39143SOL    HW119261   6.705   1.233   8.941
39143SOL    HW219262   6.566   1.172   8.948
39144SOL     OW19263   4.477  12.538   2.288
39144SOL    HW119264   4.537  12.501   2.353
39144SOL    HW219265   4.416  12.466   2.269
39145SOL     OW19266   8.689   2.318  13.733
39145SOL    HW119267   8.636   2.376  13.677
39145SOL    HW219268   8.757   2.284  13.674
39146SOL     OW19269  13.659   8.113   8.552
39146SOL    HW119270  13.682   8.026   8.517
39146SOL    HW219271  13.706   8.118   8.636
39147SOL     OW19272  11.217   6.829   6.559
39147SOL    HW119273  11.192   6.864   6.473
39147SOL    HW219274  11.201   6.735   6.552
39148SOL     OW19275   9.086   3.017  14.053
39148SOL    HW119276   9.157   2.959  14.079
39148SOL    HW219277   9.094   3.093  14.111
39149SOL     OW19278   6.189   0.532   1.561
39149SOL    HW119279   6.215   0.441   1.574
39149SOL    HW219280   6.263   0.572   1.516
39150SOL     OW19281   4.991   4.089   4.096
39150SOL    HW119282   4.911   4.138   4.113
39150SOL    HW219283   5.061   4.154   4.105
39151SOL     OW19284   6.201  12.204   8.149
39151SOL    HW119285   6.241  12.125   8.112
39151SOL    HW219286   6.111  12.203   8.117
39152SOL     OW19287  10.976   5.341  12.393
39152SOL    HW119288  11.066   5.309  12.383
39152SOL    HW219289  10.924   5.263  12.410
39153SOL     OW19290   2.782   0.644   8.534
39153SOL    HW119291   2.772   0.614   8.444
39153SOL    HW219292   2.796   0.738   8.526
39154SOL     OW19293   2.203  13.458   0.470
39154SOL    HW119294   2.225  13.541   0.512
39154SOL    HW219295   2.283  13.405   0.478
39155SOL     OW19296   2.448   6.966   0.366
39155SOL    HW119297   2.358   6.977   0.396
39155SOL    HW219298   2.497   6.946   0.446
39156SOL     OW19299   7.150  12.324   9.175
39156SOL    HW119300   7.160  12.349   9.083
39156SOL    HW219301   7.131  12.230   9.172
39157SOL     OW19302   7.653   1.651   6.464
39157SOL    HW119303   7.634   1.718   6.398
39157SOL    HW219304   7.590   1.666   6.534
39158SOL     OW19305   4.055   2.004   1.439
39158SOL    HW119306   4.106   2.083   1.455
39158SOL    HW219307   3.968   2.024   1.473
39159SOL     OW19308   2.186   7.385   5.815
39159SOL    HW119309   2.245   7.312   5.795
39159SOL    HW219310   2.135   7.397   5.735
39160SOL     OW19311   2.860  13.580   6.542
39160SOL    HW119312   2.893  13.504   6.493
39160SOL    HW219313   2.823  13.638   6.475
39161SOL     OW19314   4.067   9.401   4.938
39161SOL    HW119315   4.010   9.399   4.860
39161SOL    HW219316   4.117   9.483   4.928
39162SOL     OW19317   4.714  11.539   8.905
39162SOL    HW119318   4.772  11.575   8.972
39162SOL    HW219319   4.710  11.608   8.837
39163SOL     OW19320   6.519   7.716   2.235
39163SOL    HW119321   6.583   7.750   2.172
39163SOL    HW219322   6.562   7.725   2.320
39164SOL     OW19323   6.178  10.354   6.305
39164SOL    HW119324   6.250  10.299   6.336
39164SOL    HW219325   6.130  10.379   6.385
39165SOL     OW19326   5.732   1.101   3.651
39165SOL    HW119327   5.767   1.074   3.566
39165SOL    HW219328   5.810   1.123   3.703
39166SOL     OW19329   6.230   4.792   0.219
39166SOL    HW119330   6.315   4.835   0.211
39166SOL    HW219331   6.248   4.699   0.205
39167SOL     OW19332  14.677  12.673   0.866
39167SOL    HW119333  14.745  12.732   0.833
39167SOL    HW219334  14.615  12.729   0.912
39168SOL     OW19335   7.100  14.672  10.694
39168SOL    HW119336   7.011  14.707  10.696
39168SOL    HW219337   7.134  14.696  10.608
39169SOL     OW19338   5.621   3.167  11.059
39169SOL    HW119339   5.574   3.250  11.074
39169SOL    HW219340   5.610   3.151  10.965
39170SOL     OW19341   4.839   8.419   8.264
39170SOL    HW119342   4.828   8.325   8.272
39170SOL    HW219343   4.933   8.432   8.255
39171SOL     OW19344  10.683  10.921   5.841
39171SOL    HW119345  10.618  10.980   5.878
39171SOL    HW219346  10.764  10.972   5.841
39172SOL     OW19347  14.544  11.057   2.749
39172SOL    HW119348  14.493  11.009   2.815
39172SOL    HW219349  14.480  11.087   2.685
39173SOL     OW19350   3.392   1.874   8.060
39173SOL    HW119351   3.355   1.952   8.020
39173SOL    HW219352   3.329   1.804   8.039
39174SOL     OW19353   3.409   0.125   4.822
39174SOL    HW119354   3.402   0.053   4.884
39174SOL    HW219355   3.356   0.195   4.861
39175SOL     OW19356  13.091   4.550   3.598
39175SOL    HW119357  13.024   4.482   3.585
39175SOL    HW219358  13.113   4.544   3.691
39176SOL     OW19359   4.025   8.356   8.141
39176SOL    HW119360   4.115   8.340   8.112
39176SOL    HW219361   4.027   8.443   8.181
39177SOL     OW19362  14.634   4.635  12.338
39177SOL    HW119363  14.650   4.622  12.245
39177SOL    HW219364  14.722   4.647  12.376
39178SOL     OW19365   9.023   4.932  14.100
39178SOL    HW119366   9.035   4.897  14.188
39178SOL    HW219367   8.961   5.004  14.112
39179SOL     OW19368   3.217   5.873   7.444
39179SOL    HW119369   3.290   5.818   7.416
39179SOL    HW219370   3.203   5.934   7.372
39180SOL     OW19371  10.883  12.463  11.219
39180SOL    HW119372  10.898  12.402  11.146
39180SOL    HW219373  10.788  12.476  11.220
39181SOL     OW19374  11.665   9.620  14.292
39181SOL    HW119375  11.701   9.685  14.352
39181SOL    HW219376  11.572   9.615  14.314
39182SOL     OW19377  14.416   0.607   8.954
39182SOL    HW119378  14.413   0.521   8.913
39182SOL    HW219379  14.508   0.621   8.975
39183SOL     OW19380   0.894   2.027   7.897
39183SOL    HW119381   0.953   1.976   7.952
39183SOL    HW219382   0.873   1.968   7.824
39184SOL     OW19383   7.127  14.563  14.415
39184SOL    HW119384   7.119  14.642  14.468
39184SOL    HW219385   7.154  14.594  14.329
39185SOL     OW19386   1.832  13.675  11.351
39185SOL    HW119387   1.905  13.700  11.408
39185SOL    HW219388   1.779  13.755  11.345
39186SOL     OW19389   2.317  14.724   9.799
39186SOL    HW119390   2.222  14.734   9.808
39186SOL    HW219391   2.350  14.814   9.790
39187SOL     OW19392   9.865   6.713  10.560
39187SOL    HW119393   9.958   6.716  10.580
39187SOL    HW219394   9.826   6.664  10.633
39188SOL     OW19395  14.319   6.687  14.844
39188SOL    HW119396  14.297   6.780  14.840
39188SOL    HW219397  14.397   6.684   0.024
39189SOL     OW19398   9.510  13.114  10.101
39189SOL    HW119399   9.563  13.171  10.157
39189SOL    HW219400   9.509  13.158  10.016
39190SOL     OW19401  14.747  12.184   9.363
39190SOL    HW119402  14.663  12.162   9.402
39190SOL    HW219403  14.789  12.100   9.345
39191SOL     OW19404   1.769   2.597  11.944
39191SOL    HW119405   1.863   2.581  11.944
39191SOL    HW219406   1.748   2.618  11.853
39192SOL     OW19407   7.800   5.969  14.609
39192SOL    HW119408   7.712   5.938  14.632
39192SOL    HW219409   7.786   6.024  14.532
39193SOL     OW19410   0.889   2.420   2.917
39193SOL    HW119411   0.835   2.466   2.852
39193SOL    HW219412   0.928   2.490   2.969
39194SOL     OW19413   9.039   8.701   2.232
39194SOL    HW119414   9.011   8.724   2.143
39194SOL    HW219415   9.023   8.607   2.239
39195SOL     OW19416  14.418  10.699   1.321
39195SOL    HW119417  14.413  10.717   1.415
39195SOL    HW219418  14.328  10.684   1.294
39196SOL     OW19419   1.038  12.748   3.445
39196SOL    HW119420   0.949  12.715   3.432
39196SOL    HW219421   1.044  12.766   3.538
39197SOL     OW19422   2.394  14.349   8.574
39197SOL    HW119423   2.406  14.395   8.657
39197SOL    HW219424   2.300  14.347   8.561
39198SOL     OW19425   3.258   3.466   6.502
39198SOL    HW119426   3.221   3.553   6.483
39198SOL    HW219427   3.218   3.441   6.585
39199SOL     OW19428   4.787  10.683   5.124
39199SOL    HW119429   4.784  10.715   5.214
39199SOL    HW219430   4.867  10.631   5.119
39200SOL     OW19431   7.706   7.452   1.184
39200SOL    HW119432   7.669   7.371   1.150
39200SOL    HW219433   7.692   7.516   1.114
39201SOL     OW19434   6.434   1.774  14.198
39201SOL    HW119435   6.380   1.853  14.187
39201SOL    HW219436   6.523   1.804  14.181
39202SOL     OW19437  11.363   4.306   6.974
39202SOL    HW119438  11.374   4.255   7.054
39202SOL    HW219439  11.407   4.389   6.992
39203SOL     OW19440  14.067  13.983  13.671
39203SOL    HW119441  14.062  13.951  13.761
39203SOL    HW219442  14.059  14.078  13.678
39204SOL     OW19443   0.797   6.374  10.992
39204SOL    HW119444   0.716   6.339  11.028
39204SOL    HW219445   0.823   6.310  10.925
39205SOL     OW19446   7.669  11.758  11.772
39205SOL    HW119447   7.654  11.722  11.859
39205SOL    HW219448   7.732  11.829  11.785
39206SOL     OW19449   9.481  12.872   7.542
39206SOL    HW119450   9.457  12.940   7.480
39206SOL    HW219451   9.557  12.907   7.588
39207SOL     OW19452   2.597   6.419  13.201
39207SOL    HW119453   2.512   6.379  13.218
39207SOL    HW219454   2.578   6.498  13.150
39208SOL     OW19455   8.053  11.764  11.557
39208SOL    HW119456   8.072  11.801  11.470
39208SOL    HW219457   8.012  11.679  11.538
39209SOL     OW19458  10.461   6.198   5.763
39209SOL    HW119459  10.398   6.265   5.789
39209SOL    HW219460  10.476   6.147   5.842
39210SOL     OW19461   3.373  13.884   6.561
39210SOL    HW119462   3.380  13.856   6.652
39210SOL    HW219463   3.452  13.936   6.545
39211SOL     OW19464   9.840   2.126   9.090
39211SOL    HW119465   9.839   2.139   9.185
39211SOL    HW219466   9.872   2.037   9.078
39212SOL     OW19467   0.193  11.719   0.724
39212SOL    HW119468   0.137  11.695   0.650
39212SOL    HW219469   0.240  11.797   0.694
39213SOL     OW19470   7.752   9.719  12.716
39213SOL    HW119471   7.785   9.646  12.664
39213SOL    HW219472   7.675   9.749  12.667
39214SOL     OW19473   0.806   1.869  10.862
39214SOL    HW119474   0.859   1.849  10.785
39214SOL    HW219475   0.822   1.962  10.880
39215SOL     OW19476   7.527  11.235   5.881
39215SOL    HW119477   7.487  11.243   5.968
39215SOL    HW219478   7.587  11.309   5.876
39216SOL     OW19479  12.954  12.949   4.234
39216SOL    HW119480  12.871  12.946   4.281
39216SOL    HW219481  12.987  13.038   4.250
39217SOL     OW19482  11.368  13.379   4.775
39217SOL    HW119483  11.440  13.416   4.826
39217SOL    HW219484  11.398  13.291   4.751
39218SOL     OW19485  11.803  13.701   5.178
39218SOL    HW119486  11.849  13.783   5.192
39218SOL    HW219487  11.868  13.642   5.142
39219SOL     OW19488   7.366  12.407   6.635
39219SOL    HW119489   7.299  12.474   6.629
39219SOL    HW219490   7.410  12.409   6.550
39220SOL     OW19491  12.011   0.720   7.104
39220SOL    HW119492  12.058   0.704   7.186
39220SOL    HW219493  12.081   0.728   7.039
39221SOL     OW19494   3.663   3.279   0.688
39221SOL    HW119495   3.721   3.203   0.680
39221SOL    HW219496   3.688   3.336   0.615
39222SOL     OW19497  14.528   5.604   1.372
39222SOL    HW119498  14.588   5.558   1.314
39222SOL    HW219499  14.582   5.670   1.416
39223SOL     OW19500   9.939   4.571  10.159
39223SOL    HW119501   9.976   4.658  10.142
39223SOL    HW219502   9.907   4.542  10.073
39224SOL     OW19503  11.691   3.243  10.505
39224SOL    HW119504  11.605   3.202  10.493
39224SOL    HW219505  11.675   3.336  10.491
39225SOL     OW19506   4.500   9.612   7.608
39225SOL    HW119507   4.473   9.636   7.519
39225SOL    HW219508   4.586   9.571   7.597
39226SOL     OW19509  10.140   4.843   7.824
39226SOL    HW119510  10.150   4.783   7.899
39226SOL    HW219511  10.070   4.804   7.772
39227SOL     OW19512  12.972  13.031  11.504
39227SOL    HW119513  12.920  13.094  11.455
39227SOL    HW219514  12.976  12.954  11.447
39228SOL     OW19515  10.776   5.523   4.615
39228SOL    HW119516  10.699   5.534   4.560
39228SOL    HW219517  10.842   5.485   4.557
39229SOL     OW19518   4.931   2.166  12.754
39229SOL    HW119519   4.854   2.130  12.798
39229SOL    HW219520   4.916   2.147  12.661
39230SOL     OW19521   9.319   3.238   6.419
39230SOL    HW119522   9.289   3.279   6.500
39230SOL    HW219523   9.298   3.301   6.350
39231SOL     OW19524   3.107   2.952   6.632
39231SOL    HW119525   3.105   2.986   6.722
39231SOL    HW219526   3.170   2.881   6.634
39232SOL     OW19527   7.374   7.837   1.391
39232SOL    HW119528   7.432   7.913   1.394
39232SOL    HW219529   7.300   7.865   1.338
39233SOL     OW19530   2.367   9.938  11.200
39233SOL    HW119531   2.454   9.898  11.207
39233SOL    HW219532   2.341   9.954  11.291
39234SOL     OW19533   5.700  14.578   5.545
39234SOL    HW119534   5.671  14.566   5.455
39234SOL    HW219535   5.736  14.666   5.548
39235SOL     OW19536   4.822   2.171   1.804
39235SOL    HW119537   4.849   2.218   1.883
39235SOL    HW219538   4.896   2.180   1.744
39236SOL     OW19539  11.966   6.065   0.830
39236SOL    HW119540  11.913   5.999   0.786
39236SOL    HW219541  12.050   6.063   0.784
39237SOL     OW19542  12.830   5.965   1.352
39237SOL    HW119543  12.792   6.000   1.433
39237SOL    HW219544  12.883   5.890   1.381
39238SOL     OW19545   1.980  11.207   1.488
39238SOL    HW119546   1.943  11.259   1.560
39238SOL    HW219547   1.955  11.254   1.409
39239SOL     OW19548  14.149   0.028   8.569
39239SOL    HW119549  14.133   0.119   8.594
39239SOL    HW219550  14.101  14.852   8.633
39240SOL     OW19551   6.352  12.620   4.790
39240SOL    HW119552   6.281  12.563   4.758
39240SOL    HW219553   6.418  12.559   4.824
39241SOL     OW19554   4.694   6.307   9.681
39241SOL    HW119555   4.689   6.392   9.639
39241SOL    HW219556   4.667   6.245   9.613
39242SOL     OW19557   7.870   1.707   4.414
39242SOL    HW119558   7.947   1.704   4.471
39242SOL    HW219559   7.811   1.641   4.449
39243SOL     OW19560   9.489   7.528   6.591
39243SOL    HW119561   9.560   7.485   6.640
39243SOL    HW219562   9.527   7.612   6.564
39244SOL     OW19563  14.771   9.195  10.256
39244SOL    HW119564  14.846   9.178  10.198
39244SOL    HW219565  14.738   9.280  10.227
39245SOL     OW19566  11.095   4.542  12.828
39245SOL    HW119567  11.099   4.448  12.850
39245SOL    HW219568  11.181   4.576  12.854
39246SOL     OW19569   1.791   4.472   9.151
39246SOL    HW119570   1.849   4.398   9.170
39246SOL    HW219571   1.845   4.549   9.167
39247SOL     OW19572  14.015   4.215   9.913
39247SOL    HW119573  13.990   4.291   9.860
39247SOL    HW219574  14.002   4.140   9.854
39248SOL     OW19575   7.212   8.683  11.677
39248SOL    HW119576   7.288   8.687  11.620
39248SOL    HW219577   7.243   8.638  11.756
39249SOL     OW19578  11.174   7.456   7.171
39249SOL    HW119579  11.120   7.411   7.106
39249SOL    HW219580  11.113   7.482   7.240
39250SOL     OW19581   9.885   7.650   6.377
39250SOL    HW119582   9.795   7.634   6.403
39250SOL    HW219583   9.881   7.669   6.283
39251SOL     OW19584   6.293   0.306   2.958
39251SOL    HW119585   6.236   0.371   2.917
39251SOL    HW219586   6.245   0.224   2.953
39252SOL     OW19587   8.647   3.774   0.693
39252SOL    HW119588   8.619   3.683   0.691
39252SOL    HW219589   8.695   3.787   0.611
39253SOL     OW19590   5.885  14.721   3.228
39253SOL    HW119591   5.878  14.693   3.136
39253SOL    HW219592   5.841  14.652   3.277
39254SOL     OW19593   9.926   9.254   4.374
39254SOL    HW119594   9.954   9.213   4.455
39254SOL    HW219595   9.833   9.230   4.366
39255SOL     OW19596  10.603   5.558  11.314
39255SOL    HW119597  10.614   5.484  11.255
39255SOL    HW219598  10.663   5.541  11.386
39256SOL     OW19599  11.183  10.949   1.694
39256SOL    HW119600  11.179  10.943   1.789
39256SOL    HW219601  11.118  11.016   1.671
39257SOL     OW19602  14.778  12.187  13.815
39257SOL    HW119603  14.743  12.102  13.790
39257SOL    HW219604  14.837  12.169  13.888
39258SOL     OW19605  10.529  10.793   7.733
39258SOL    HW119606  10.599  10.737   7.700
39258SOL    HW219607  10.484  10.739   7.798
39259SOL     OW19608   9.047   0.607   1.093
39259SOL    HW119609   8.981   0.588   1.159
39259SOL    HW219610   9.009   0.676   1.039
39260SOL     OW19611   5.066  10.462   2.699
39260SOL    HW119612   5.020  10.485   2.779
39260SOL    HW219613   5.111  10.380   2.719
39261SOL     OW19614   3.588   0.200  13.574
39261SOL    HW119615   3.665   0.249  13.545
39261SOL    HW219616   3.617   0.109  13.577
39262SOL     OW19617  13.586   6.948   6.146
39262SOL    HW119618  13.569   6.855   6.133
39262SOL    HW219619  13.516   6.992   6.098
39263SOL     OW19620   8.224   1.756  10.742
39263SOL    HW119621   8.178   1.738  10.824
39263SOL    HW219622   8.174   1.710  10.675
39264SOL     OW19623   3.366   9.690   4.120
39264SOL    HW119624   3.274   9.692   4.093
39264SOL    HW219625   3.380   9.601   4.151
39265SOL     OW19626  11.299   1.211   9.511
39265SOL    HW119627  11.232   1.173   9.453
39265SOL    HW219628  11.281   1.170   9.596
39266SOL     OW19629  11.855  10.326   6.669
39266SOL    HW119630  11.926  10.279   6.711
39266SOL    HW219631  11.776  10.277   6.692
39267SOL     OW19632  11.877   9.250   4.479
39267SOL    HW119633  11.810   9.245   4.411
39267SOL    HW219634  11.916   9.163   4.480
39268SOL     OW19635   2.398   2.085   1.016
39268SOL    HW119636   2.442   2.032   1.082
39268SOL    HW219637   2.324   2.031   0.987
39269SOL     OW19638   3.612  12.048  10.591
39269SOL    HW119639   3.624  12.133  10.548
39269SOL    HW219640   3.525  12.020  10.564
39270SOL     OW19641   5.636   4.578   2.208
39270SOL    HW119642   5.715   4.528   2.191
39270SOL    HW219643   5.565   4.524   2.172
39271SOL     OW19644   9.547  12.636  14.480
39271SOL    HW119645   9.627  12.666  14.521
39271SOL    HW219646   9.573  12.556  14.433
39272SOL     OW19647   8.087   3.721   7.854
39272SOL    HW119648   8.168   3.764   7.828
39272SOL    HW219649   8.031   3.726   7.776
39273SOL     OW19650   8.748   6.699   2.977
39273SOL    HW119651   8.781   6.701   2.887
39273SOL    HW219652   8.657   6.726   2.970
39274SOL     OW19653   1.991   8.898   0.207
39274SOL    HW119654   1.930   8.928   0.140
39274SOL    HW219655   2.077   8.920   0.173
39275SOL     OW19656   4.268   8.515  11.680
39275SOL    HW119657   4.205   8.446  11.663
39275SOL    HW219658   4.300   8.541  11.594
39276SOL     OW19659   0.940   9.399   1.351
39276SOL    HW119660   0.984   9.465   1.297
39276SOL    HW219661   0.904   9.448   1.425
39277SOL     OW19662  11.698   5.714  14.433
39277SOL    HW119663  11.670   5.655  14.503
39277SOL    HW219664  11.773   5.761  14.470
39278SOL     OW19665  13.770   2.708   9.020
39278SOL    HW119666  13.704   2.710   8.951
39278SOL    HW219667  13.791   2.615   9.032
39279SOL     OW19668   1.155   1.263   9.475
39279SOL    HW119669   1.230   1.223   9.517
39279SOL    HW219670   1.134   1.339   9.530
39280SOL     OW19671   1.809   5.678   3.988
39280SOL    HW119672   1.890   5.675   4.039
39280SOL    HW219673   1.740   5.689   4.054
39281SOL     OW19674   0.655   2.685  12.581
39281SOL    HW119675   0.688   2.726  12.501
39281SOL    HW219676   0.561   2.703  12.581
39282SOL     OW19677   8.229   1.558  13.628
39282SOL    HW119678   8.164   1.531  13.563
39282SOL    HW219679   8.263   1.641  13.595
39283SOL     OW19680  13.682   5.720  12.390
39283SOL    HW119681  13.617   5.654  12.368
39283SOL    HW219682  13.766   5.674  12.382
39284SOL     OW19683  13.280   8.054   0.360
39284SOL    HW119684  13.212   8.011   0.308
39284SOL    HW219685  13.244   8.056   0.449
39285SOL     OW19686   4.629  10.123   3.445
39285SOL    HW119687   4.535  10.118   3.427
39285SOL    HW219688   4.662  10.037   3.419
39286SOL     OW19689   0.510   0.185  14.763
39286SOL    HW119690   0.565   0.242  14.817
39286SOL    HW219691   0.516   0.099  14.805
39287SOL     OW19692   3.910   3.024  14.701
39287SOL    HW119693   3.948   3.023  14.613
39287SOL    HW219694   3.933   2.938  14.738
39288SOL     OW19695   5.521  14.189   7.202
39288SOL    HW119696   5.601  14.216   7.247
39288SOL    HW219697   5.530  14.094   7.193
39289SOL     OW19698  14.550  10.509   5.828
39289SOL    HW119699  14.527  10.433   5.775
39289SOL    HW219700  14.576  10.473   5.913
39290SOL     OW19701  14.687   7.400  10.372
39290SOL    HW119702  14.674   7.471  10.436
39290SOL    HW219703  14.696   7.321  10.425
39291SOL     OW19704   4.684   0.218  11.127
39291SOL    HW119705   4.638   0.302  11.124
39291SOL    HW219706   4.690   0.190  11.036
39292SOL     OW19707   3.446   4.511   0.426
39292SOL    HW119708   3.359   4.503   0.464
39292SOL    HW219709   3.499   4.446   0.473
39293SOL     OW19710   2.027   2.094   4.889
39293SOL    HW119711   1.974   2.087   4.968
39293SOL    HW219712   2.114   2.117   4.920
39294SOL     OW19713   8.617   9.803   2.239
39294SOL    HW119714   8.645   9.764   2.157
39294SOL    HW219715   8.562   9.736   2.280
39295SOL     OW19716   6.362   6.513   3.893
39295SOL    HW119717   6.277   6.489   3.930
39295SOL    HW219718   6.425   6.454   3.936
39296SOL     OW19719   8.432  14.105   6.730
39296SOL    HW119720   8.427  14.180   6.790
39296SOL    HW219721   8.416  14.143   6.644
39297SOL     OW19722  10.150  13.398  10.803
39297SOL    HW119723  10.194  13.480  10.782
39297SOL    HW219724  10.156  13.346  10.723
39298SOL     OW19725   1.657   0.377  11.616
39298SOL    HW119726   1.629   0.468  11.622
39298SOL    HW219727   1.585   0.327  11.655
39299SOL     OW19728   5.701  13.905  10.436
39299SOL    HW119729   5.764  13.907  10.508
39299SOL    HW219730   5.616  13.913  10.478
39300SOL     OW19731  13.786  13.758  10.567
39300SOL    HW119732  13.695  13.740  10.590
39300SOL    HW219733  13.826  13.672  10.559
39301SOL     OW19734  13.987   4.919   3.574
39301SOL    HW119735  14.035   4.999   3.594
39301SOL    HW219736  14.000   4.863   3.650
39302SOL     OW19737   0.179  10.609  11.960
39302SOL    HW119738   0.213  10.563  12.037
39302SOL    HW219739   0.153  10.540  11.900
39303SOL     OW19740   6.662   7.660   1.668
39303SOL    HW119741   6.599   7.588   1.662
39303SOL    HW219742   6.746   7.617   1.684
39304SOL     OW19743  13.944   9.234   9.587
39304SOL    HW119744  14.003   9.158   9.593
39304SOL    HW219745  13.909   9.230   9.498
39305SOL     OW19746   6.698   6.898  14.637
39305SOL    HW119747   6.757   6.836  14.594
39305SOL    HW219748   6.612   6.857  14.634
39306SOL     OW19749   3.490   0.661   9.496
39306SOL    HW119750   3.431   0.595   9.461
39306SOL    HW219751   3.529   0.702   9.419
39307SOL     OW19752   8.372  13.256   2.082
39307SOL    HW119753   8.452  13.234   2.036
39307SOL    HW219754   8.398  13.263   2.174
39308SOL     OW19755  12.172  10.196  11.513
39308SOL    HW119756  12.166  10.270  11.453
39308SOL    HW219757  12.109  10.132  11.479
39309SOL     OW19758   6.527  13.816   2.346
39309SOL    HW119759   6.597  13.793   2.285
39309SOL    HW219760   6.473  13.879   2.298
39310SOL     OW19761   3.558   2.140  12.817
39310SOL    HW119762   3.527   2.144  12.726
39310SOL    HW219763   3.579   2.048  12.831
39311SOL     OW19764  13.054   6.998   7.371
39311SOL    HW119765  13.031   7.019   7.462
39311SOL    HW219766  13.083   6.907   7.375
39312SOL     OW19767   7.096  12.567  14.158
39312SOL    HW119768   7.066  12.481  14.186
39312SOL    HW219769   7.103  12.561  14.063
39313SOL     OW19770   5.056   9.290  12.350
39313SOL    HW119771   5.110   9.218  12.317
39313SOL    HW219772   4.993   9.248  12.409
39314SOL     OW19773   8.146   0.626   8.538
39314SOL    HW119774   8.120   0.538   8.567
39314SOL    HW219775   8.151   0.620   8.443
39315SOL     OW19776  12.593   7.069   7.540
39315SOL    HW119777  12.534   7.107   7.605
39315SOL    HW219778  12.648   7.008   7.590
39316SOL     OW19779  10.555   3.854   3.830
39316SOL    HW119780  10.531   3.778   3.882
39316SOL    HW219781  10.646   3.838   3.803
39317SOL     OW19782   2.522   8.303   8.958
39317SOL    HW119783   2.600   8.333   8.911
39317SOL    HW219784   2.456   8.369   8.940
39318SOL     OW19785   2.739  13.536   2.994
39318SOL    HW119786   2.765  13.623   3.022
39318SOL    HW219787   2.759  13.479   3.068
39319SOL     OW19788  12.060   7.789  13.181
39319SOL    HW119789  11.990   7.822  13.238
39319SOL    HW219790  12.094   7.868  13.139
39320SOL     OW19791  11.212  13.132   8.209
39320SOL    HW119792  11.127  13.090   8.223
39320SOL    HW219793  11.198  13.189   8.133
39321SOL     OW19794  14.401  13.335   2.783
39321SOL    HW119795  14.445  13.286   2.714
39321SOL    HW219796  14.402  13.426   2.752
39322SOL     OW19797   3.613   4.713   2.867
39322SOL    HW119798   3.552   4.672   2.929
39322SOL    HW219799   3.659   4.779   2.920
39323SOL     OW19800   4.358   5.425  13.977
39323SOL    HW119801   4.304   5.497  13.943
39323SOL    HW219802   4.297   5.352  13.987
39324SOL     OW19803   4.326   1.751  10.677
39324SOL    HW119804   4.237   1.718  10.662
39324SOL    HW219805   4.381   1.672  10.676
39325SOL     OW19806  10.273  13.012   8.136
39325SOL    HW119807  10.352  13.031   8.085
39325SOL    HW219808  10.235  12.935   8.095
39326SOL     OW19809   8.030  14.750   9.194
39326SOL    HW119810   8.075  14.760   9.110
39326SOL    HW219811   8.099  14.760   9.259
39327SOL     OW19812   2.932   5.111   4.349
39327SOL    HW119813   2.960   5.048   4.283
39327SOL    HW219814   2.989   5.187   4.336
39328SOL     OW19815  10.063   3.697   1.848
39328SOL    HW119816  10.049   3.792   1.844
39328SOL    HW219817  10.116   3.684   1.926
39329SOL     OW19818  13.908  11.513   4.674
39329SOL    HW119819  13.839  11.559   4.722
39329SOL    HW219820  13.862  11.467   4.604
39330SOL     OW19821  12.368   5.745   0.744
39330SOL    HW119822  12.419   5.732   0.824
39330SOL    HW219823  12.427   5.718   0.673
39331SOL     OW19824  13.930   5.686   4.472
39331SOL    HW119825  13.860   5.665   4.533
39331SOL    HW219826  13.986   5.747   4.520
39332SOL     OW19827   7.863  11.807   8.843
39332SOL    HW119828   7.799  11.741   8.869
39332SOL    HW219829   7.928  11.805   8.913
39333SOL     OW19830   4.378  13.980   0.256
39333SOL    HW119831   4.345  13.902   0.301
39333SOL    HW219832   4.317  13.994   0.184
39334SOL     OW19833   4.973  14.667   8.292
39334SOL    HW119834   4.907  14.630   8.234
39334SOL    HW219835   4.956  14.761   8.291
39335SOL     OW19836   6.270  12.786   9.784
39335SOL    HW119837   6.275  12.697   9.749
39335SOL    HW219838   6.233  12.838   9.713
39336SOL     OW19839   4.810   6.432   2.722
39336SOL    HW119840   4.752   6.504   2.696
39336SOL    HW219841   4.891   6.475   2.749
39337SOL     OW19842  12.335  13.629   4.457
39337SOL    HW119843  12.405  13.694   4.464
39337SOL    HW219844  12.313  13.629   4.364
39338SOL     OW19845   6.727   5.696  11.267
39338SOL    HW119846   6.805   5.746  11.245
39338SOL    HW219847   6.671   5.703  11.190
39339SOL     OW19848  14.664   4.968  13.316
39339SOL    HW119849  14.738   4.910  13.298
39339SOL    HW219850  14.703   5.056  13.320
39340SOL     OW19851  14.675  10.320  11.781
39340SOL    HW119852  14.683  10.389  11.716
39340SOL    HW219853  14.678  10.239  11.731
39341SOL     OW19854  10.516   3.413   3.843
39341SOL    HW119855  10.452   3.342   3.837
39341SOL    HW219856  10.553   3.419   3.755
39342SOL     OW19857   5.579   5.848   5.744
39342SOL    HW119858   5.584   5.754   5.728
39342SOL    HW219859   5.600   5.857   5.837
39343SOL     OW19860   9.341  12.758  12.762
39343SOL    HW119861   9.301  12.672  12.752
39343SOL    HW219862   9.353  12.768  12.856
39344SOL     OW19863   7.966  14.805   0.746
39344SOL    HW119864   8.028  14.798   0.673
39344SOL    HW219865   7.880  14.812   0.704
39345SOL     OW19866   3.465   3.015  11.951
39345SOL    HW119867   3.477   3.020  11.856
39345SOL    HW219868   3.438   2.924  11.967
39346SOL     OW19869  10.994  12.236  11.642
39346SOL    HW119870  10.954  12.155  11.611
39346SOL    HW219871  10.924  12.301  11.635
39347SOL     OW19872   9.287   3.846   0.596
39347SOL    HW119873   9.202   3.819   0.561
39347SOL    HW219874   9.345   3.774   0.574
39348SOL     OW19875   2.301   2.853   3.732
39348SOL    HW119876   2.228   2.835   3.792
39348SOL    HW219877   2.379   2.855   3.789
39349SOL     OW19878  13.605   9.521   3.414
39349SOL    HW119879  13.527   9.574   3.399
39349SOL    HW219880  13.593   9.485   3.502
39350SOL     OW19881   9.142  12.529   8.084
39350SOL    HW119882   9.106  12.589   8.019
39350SOL    HW219883   9.236  12.548   8.086
39351SOL     OW19884   1.636   3.892   1.596
39351SOL    HW119885   1.631   3.844   1.513
39351SOL    HW219886   1.728   3.884   1.623
39352SOL     OW19887   8.362   2.650   4.223
39352SOL    HW119888   8.414   2.590   4.170
39352SOL    HW219889   8.275   2.648   4.183
39353SOL     OW19890  10.664  13.282   6.508
39353SOL    HW119891  10.649  13.376   6.503
39353SOL    HW219892  10.747  13.273   6.554
39354SOL     OW19893  12.904   1.618   2.356
39354SOL    HW119894  12.915   1.660   2.271
39354SOL    HW219895  12.819   1.574   2.351
39355SOL     OW19896   6.831   7.036  14.822
39355SOL    HW119897   6.790   6.985  14.752
39355SOL    HW219898   6.867   6.971   0.005
39356SOL     OW19899   5.124   0.727  13.934
39356SOL    HW119900   5.120   0.794  13.866
39356SOL    HW219901   5.032   0.707  13.954
39357SOL     OW19902   1.775  13.233  10.914
39357SOL    HW119903   1.693  13.266  10.876
39357SOL    HW219904   1.748  13.191  10.995
39358SOL     OW19905   3.405   7.746   0.549
39358SOL    HW119906   3.340   7.809   0.517
39358SOL    HW219907   3.459   7.727   0.472
39359SOL     OW19908   3.916   0.808   3.833
39359SOL    HW119909   3.860   0.741   3.795
39359SOL    HW219910   3.993   0.811   3.776
39360SOL     OW19911  14.544  13.465   1.706
39360SOL    HW119912  14.586  13.546   1.735
39360SOL    HW219913  14.596  13.395   1.745
39361SOL     OW19914   3.083  14.544   2.955
39361SOL    HW119915   3.000  14.497   2.958
39361SOL    HW219916   3.137  14.493   2.894
39362SOL     OW19917   1.739  14.735   2.335
39362SOL    HW119918   1.644  14.724   2.335
39362SOL    HW219919   1.769  14.682   2.262
39363SOL     OW19920   3.273   5.176   1.093
39363SOL    HW119921   3.199   5.126   1.060
39363SOL    HW219922   3.341   5.110   1.110
39364SOL     OW19923   9.804   7.340  10.973
39364SOL    HW119924   9.873   7.290  11.017
39364SOL    HW219925   9.823   7.431  10.996
39365SOL     OW19926  13.585   9.764   3.152
39365SOL    HW119927  13.560   9.805   3.069
39365SOL    HW219928  13.680   9.774   3.156
39366SOL     OW19929   5.989  11.065   0.170
39366SOL    HW119930   6.033  11.086   0.252
39366SOL    HW219931   5.910  11.119   0.170
39367SOL     OW19932   8.378   1.394  11.495
39367SOL    HW119933   8.338   1.363  11.577
39367SOL    HW219934   8.423   1.318  11.460
39368SOL     OW19935   6.361  10.819  10.405
39368SOL    HW119936   6.437  10.763  10.420
39368SOL    HW219937   6.366  10.886  10.473
39369SOL     OW19938   3.771   5.314   9.482
39369SOL    HW119939   3.681   5.346   9.469
39369SOL    HW219940   3.801   5.290   9.394
39370SOL     OW19941   9.109  14.360   8.922
39370SOL    HW119942   9.097  14.333   8.831
39370SOL    HW219943   9.021  14.360   8.959
39371SOL     OW19944   3.704   0.113  11.348
39371SOL    HW119945   3.795   0.142  11.339
39371SOL    HW219946   3.657   0.162  11.281
39372SOL     OW19947  11.410   5.192  14.058
39372SOL    HW119948  11.428   5.098  14.054
39372SOL    HW219949  11.368   5.205  14.143
39373SOL     OW19950   1.116   6.969   2.244
39373SOL    HW119951   1.105   6.883   2.285
39373SOL    HW219952   1.097   7.031   2.314
39374SOL     OW19953  14.281  14.838   5.352
39374SOL    HW119954  14.187  14.823   5.349
39374SOL    HW219955  14.310  14.830   5.261
39375SOL     OW19956   2.561   9.367   1.552
39375SOL    HW119957   2.550   9.316   1.632
39375SOL    HW219958   2.646   9.339   1.518
39376SOL     OW19959   5.385   5.192   2.915
39376SOL    HW119960   5.454   5.151   2.968
39376SOL    HW219961   5.387   5.144   2.832
39377SOL     OW19962  13.138  11.317   6.186
39377SOL    HW119963  13.136  11.380   6.258
39377SOL    HW219964  13.125  11.371   6.108
39378SOL     OW19965   1.005   2.993   0.979
39378SOL    HW119966   0.941   3.037   0.922
39378SOL    HW219967   1.041   3.064   1.032
39379SOL     OW19968  14.316  12.372   9.752
39379SOL    HW119969  14.324  12.414   9.838
39379SOL    HW219970  14.251  12.303   9.765
39380SOL     OW19971  13.105   9.994  14.305
39380SOL    HW119972  13.113  10.005  14.400
39380SOL    HW219973  13.133  10.078  14.268
39381SOL     OW19974  14.370   9.423   2.783
39381SOL    HW119975  14.331   9.486   2.843
39381SOL    HW219976  14.304   9.353   2.776
39382SOL     OW19977   1.448  12.178  14.794
39382SOL    HW119978   1.447  12.274  14.790
39382SOL    HW219979   1.525  12.153  14.743
39383SOL     OW19980   8.730   1.233   4.234
39383SOL    HW119981   8.748   1.293   4.162
39383SOL    HW219982   8.770   1.274   4.311
39384SOL     OW19983   3.096  14.044   0.172
39384SOL    HW119984   3.031  13.984   0.208
39384SOL    HW219985   3.084  14.039   0.077
39385SOL     OW19986   5.761   9.566   1.209
39385SOL    HW119987   5.832   9.555   1.272
39385SOL    HW219988   5.682   9.576   1.263
39386SOL     OW19989   5.710  13.368   4.562
39386SOL    HW119990   5.620  13.376   4.531
39386SOL    HW219991   5.750  13.453   4.543
39387SOL     OW19992   9.981   7.776  12.118
39387SOL    HW119993   9.928   7.696  12.110
39387SOL    HW219994  10.040   7.773  12.042
39388SOL     OW19995   3.572   1.499   7.911
39388SOL    HW119996   3.491   1.523   7.866
39388SOL    HW219997   3.546   1.427   7.969
39389SOL     OW19998  12.631   4.761  10.420
39389SOL    HW119999  12.701   4.825  10.430
39389SOL    HW220000  12.675   4.680  10.396
39390SOL     OW20001  13.414   6.095   4.985
39390SOL    HW120002  13.447   6.146   4.911
39390SOL    HW220003  13.452   6.009   4.974
39391SOL     OW20004  10.328  13.354   4.422
39391SOL    HW120005  10.373  13.313   4.496
39391SOL    HW220006  10.255  13.295   4.403
39392SOL     OW20007  14.651   8.917   8.473
39392SOL    HW120008  14.661   8.943   8.564
39392SOL    HW220009  14.668   8.823   8.472
39393SOL     OW20010   3.400  13.654   2.198
39393SOL    HW120011   3.392  13.684   2.108
39393SOL    HW220012   3.329  13.699   2.245
39394SOL     OW20013  12.574   5.834   8.856
39394SOL    HW120014  12.625   5.819   8.776
39394SOL    HW220015  12.560   5.929   8.858
39395SOL     OW20016  10.344   5.201   7.341
39395SOL    HW120017  10.385   5.116   7.359
39395SOL    HW220018  10.313   5.231   7.426
39396SOL     OW20019   8.599   8.323   3.876
39396SOL    HW120020   8.575   8.234   3.850
39396SOL    HW220021   8.558   8.335   3.962
39397SOL     OW20022   2.575   7.775   6.338
39397SOL    HW120023   2.631   7.852   6.328
39397SOL    HW220024   2.636   7.703   6.355
39398SOL     OW20025   4.619  12.549  12.661
39398SOL    HW120026   4.632  12.603  12.583
39398SOL    HW220027   4.621  12.459  12.628
39399SOL     OW20028  11.845   7.087  10.818
39399SOL    HW120029  11.797   7.163  10.852
39399SOL    HW220030  11.890   7.119  10.740
39400SOL     OW20031   2.305   2.081  14.617
39400SOL    HW120032   2.329   2.172  14.638
39400SOL    HW220033   2.234   2.060  14.678
39401SOL     OW20034   9.329   0.097  13.775
39401SOL    HW120035   9.390   0.147  13.829
39401SOL    HW220036   9.308   0.019  13.827
39402SOL     OW20037   4.506   3.986   9.527
39402SOL    HW120038   4.595   3.998   9.561
39402SOL    HW220039   4.459   4.065   9.553
39403SOL     OW20040   6.553   4.027   7.250
39403SOL    HW120041   6.625   3.981   7.293
39403SOL    HW220042   6.474   3.992   7.292
39404SOL     OW20043   9.262  12.800  13.771
39404SOL    HW120044   9.171  12.774  13.754
39404SOL    HW220045   9.255  12.884  13.815
39405SOL     OW20046  11.065   8.607  13.841
39405SOL    HW120047  11.113   8.564  13.769
39405SOL    HW220048  11.071   8.700  13.820
39406SOL     OW20049  10.308   6.224   0.943
39406SOL    HW120050  10.399   6.248   0.958
39406SOL    HW220051  10.311   6.135   0.911
39407SOL     OW20052   8.629  11.585  14.582
39407SOL    HW120053   8.597  11.598  14.672
39407SOL    HW220054   8.695  11.653  14.570
39408SOL     OW20055   7.487  12.384   3.590
39408SOL    HW120056   7.489  12.318   3.659
39408SOL    HW220057   7.521  12.463   3.632
39409SOL     OW20058   5.298   5.792  13.888
39409SOL    HW120059   5.352   5.714  13.895
39409SOL    HW220060   5.219   5.763  13.843
39410SOL     OW20061   6.435  11.311  12.043
39410SOL    HW120062   6.501  11.370  12.008
39410SOL    HW220063   6.370  11.304  11.974
39411SOL     OW20064   3.585   2.646   9.156
39411SOL    HW120065   3.521   2.574   9.157
39411SOL    HW220066   3.650   2.619   9.091
39412SOL     OW20067   5.132   9.753   0.716
39412SOL    HW120068   5.087   9.736   0.633
39412SOL    HW220069   5.069   9.803   0.768
39413SOL     OW20070   7.390   9.870   2.060
39413SOL    HW120071   7.402   9.913   2.145
39413SOL    HW220072   7.448   9.794   2.064
39414SOL     OW20073  10.636   2.931  14.245
39414SOL    HW120074  10.705   2.979  14.199
39414SOL    HW220075  10.666   2.929  14.336
39415SOL     OW20076   4.861  14.790  11.611
39415SOL    HW120077   4.849  14.722  11.545
39415SOL    HW220078   4.901  14.863  11.563
39416SOL     OW20079   6.852   5.261  11.659
39416SOL    HW120080   6.906   5.333  11.627
39416SOL    HW220081   6.882   5.247  11.749
39417SOL     OW20082   8.245   8.276  14.281
39417SOL    HW120083   8.174   8.271  14.217
39417SOL    HW220084   8.300   8.201  14.261
39418SOL     OW20085  14.537   9.040  13.212
39418SOL    HW120086  14.609   8.993  13.253
39418SOL    HW220087  14.578   9.094  13.144
39419SOL     OW20088   9.214   6.933   4.523
39419SOL    HW120089   9.194   7.009   4.579
39419SOL    HW220090   9.185   6.959   4.436
39420SOL     OW20091  12.721   2.591   4.610
39420SOL    HW120092  12.772   2.622   4.536
39420SOL    HW220093  12.720   2.665   4.671
39421SOL     OW20094   8.578   9.666  14.824
39421SOL    HW120095   8.640   9.616   0.003
39421SOL    HW220096   8.492   9.642  14.858
39422SOL     OW20097   0.392  10.210   3.829
39422SOL    HW120098   0.407  10.263   3.751
39422SOL    HW220099   0.465  10.230   3.887
39423SOL     OW20100   8.350  12.708  12.080
39423SOL    HW120101   8.268  12.683  12.037
39423SOL    HW220102   8.399  12.626  12.089
39424SOL     OW20103   4.434  12.533  14.678
39424SOL    HW120104   4.513  12.582  14.699
39424SOL    HW220105   4.362  12.593  14.698
39425SOL     OW20106  11.775   9.330   3.134
39425SOL    HW120107  11.850   9.285   3.172
39425SOL    HW220108  11.799   9.423   3.138
39426SOL     OW20109   0.514   8.161  13.510
39426SOL    HW120110   0.570   8.106  13.566
39426SOL    HW220111   0.531   8.130  13.421
39427SOL     OW20112  11.876  14.783   8.641
39427SOL    HW120113  11.897  14.865   8.597
39427SOL    HW220114  11.896  14.715   8.577
39428SOL     OW20115   7.109   7.058   6.177
39428SOL    HW120116   7.016   7.036   6.167
39428SOL    HW220117   7.116   7.094   6.266
39429SOL     OW20118   3.954  14.751  10.180
39429SOL    HW120119   4.037  14.792  10.157
39429SOL    HW220120   3.902  14.756  10.100
39430SOL     OW20121   4.504  11.350  11.415
39430SOL    HW120122   4.499  11.408  11.340
39430SOL    HW220123   4.414  11.348  11.450
39431SOL     OW20124  14.073  14.348   6.822
39431SOL    HW120125  14.064  14.282   6.753
39431SOL    HW220126  14.132  14.307   6.886
39432SOL     OW20127   9.280  13.653   8.276
39432SOL    HW120128   9.345  13.585   8.258
39432SOL    HW220129   9.253  13.683   8.190
39433SOL     OW20130   6.539   2.189   9.439
39433SOL    HW120131   6.576   2.199   9.527
39433SOL    HW220132   6.473   2.259   9.434
39434SOL     OW20133  12.966  13.989   9.724
39434SOL    HW120134  12.968  13.895   9.742
39434SOL    HW220135  12.908  13.997   9.649
39435SOL     OW20136   2.209  12.486   6.157
39435SOL    HW120137   2.291  12.469   6.203
39435SOL    HW220138   2.218  12.441   6.073
39436SOL     OW20139   8.556   4.707   1.835
39436SOL    HW120140   8.498   4.783   1.846
39436SOL    HW220141   8.642   4.744   1.819
39437SOL     OW20142  11.429  12.570   2.850
39437SOL    HW120143  11.488  12.623   2.797
39437SOL    HW220144  11.346  12.618   2.849
39438SOL     OW20145  11.767   9.674   9.423
39438SOL    HW120146  11.694   9.616   9.444
39438SOL    HW220147  11.843   9.616   9.415
39439SOL     OW20148   2.060  11.785   3.852
39439SOL    HW120149   1.980  11.751   3.813
39439SOL    HW220150   2.117  11.709   3.863
39440SOL     OW20151   5.111   6.396  10.584
39440SOL    HW120152   5.089   6.452  10.510
39440SOL    HW220153   5.205   6.380  10.576
39441SOL     OW20154   5.688   1.522   6.221
39441SOL    HW120155   5.604   1.561   6.248
39441SOL    HW220156   5.721   1.480   6.300
39442SOL     OW20157   5.214  12.621   3.955
39442SOL    HW120158   5.250  12.547   3.906
39442SOL    HW220159   5.240  12.604   4.045
39443SOL     OW20160   1.641   1.720   3.326
39443SOL    HW120161   1.623   1.750   3.237
39443SOL    HW220162   1.704   1.784   3.361
39444SOL     OW20163   9.062   7.814   1.799
39444SOL    HW120164   9.037   7.762   1.875
39444SOL    HW220165   9.145   7.855   1.823
39445SOL     OW20166   7.086   6.628  12.655
39445SOL    HW120167   7.064   6.646  12.563
39445SOL    HW220168   7.117   6.537  12.654
39446SOL     OW20169  10.706   9.653   4.733
39446SOL    HW120170  10.751   9.714   4.792
39446SOL    HW220171  10.732   9.681   4.645
39447SOL     OW20172  12.699  13.037   1.368
39447SOL    HW120173  12.629  13.088   1.327
39447SOL    HW220174  12.744  13.100   1.424
39448SOL     OW20175   3.508   9.345   4.182
39448SOL    HW120176   3.420   9.348   4.218
39448SOL    HW220177   3.537   9.255   4.196
39449SOL     OW20178   7.299   3.468  13.381
39449SOL    HW120179   7.316   3.557  13.352
39449SOL    HW220180   7.253   3.427  13.307
39450SOL     OW20181  12.918   4.337   2.468
39450SOL    HW120182  12.977   4.303   2.535
39450SOL    HW220183  12.847   4.274   2.464
39451SOL     OW20184   3.051   7.989   4.367
39451SOL    HW120185   3.103   7.927   4.317
39451SOL    HW220186   3.059   7.960   4.457
39452SOL     OW20187   2.384   9.627  12.298
39452SOL    HW120188   2.358   9.719  12.305
39452SOL    HW220189   2.345   9.586  12.376
39453SOL     OW20190   8.669   7.089   5.682
39453SOL    HW120191   8.662   7.029   5.607
39453SOL    HW220192   8.624   7.042   5.753
39454SOL     OW20193   4.070  11.181  13.099
39454SOL    HW120194   4.061  11.274  13.079
39454SOL    HW220195   3.990  11.142  13.064
39455SOL     OW20196   4.158   0.200   2.303
39455SOL    HW120197   4.160   0.223   2.210
39455SOL    HW220198   4.245   0.163   2.319
39456SOL     OW20199   4.659   9.396   9.387
39456SOL    HW120200   4.672   9.327   9.322
39456SOL    HW220201   4.570   9.427   9.372
39457SOL     OW20202   0.006   7.535   0.866
39457SOL    HW120203  14.801   7.571   0.901
39457SOL    HW220204   0.058   7.611   0.840
39458SOL     OW20205  12.850  11.471  10.565
39458SOL    HW120206  12.782  11.490  10.499
39458SOL    HW220207  12.902  11.551  10.569
39459SOL     OW20208  13.578   9.911   8.225
39459SOL    HW120209  13.645   9.964   8.182
39459SOL    HW220210  13.507   9.904   8.161
39460SOL     OW20211   4.886  14.396  10.585
39460SOL    HW120212   4.905  14.489  10.591
39460SOL    HW220213   4.925  14.358  10.664
39461SOL     OW20214   9.142  11.665   0.908
39461SOL    HW120215   9.142  11.588   0.852
39461SOL    HW220216   9.050  11.690   0.915
39462SOL     OW20217   1.229  14.339  14.266
39462SOL    HW120218   1.225  14.434  14.276
39462SOL    HW220219   1.206  14.324  14.174
39463SOL     OW20220  13.130   2.579  10.624
39463SOL    HW120221  13.175   2.664  10.622
39463SOL    HW220222  13.196   2.516  10.596
39464SOL     OW20223  13.076  10.095   6.875
39464SOL    HW120224  13.147  10.033   6.887
39464SOL    HW220225  13.028  10.093   6.958
39465SOL     OW20226   1.897   5.047   8.230
39465SOL    HW120227   1.861   4.966   8.267
39465SOL    HW220228   1.825   5.084   8.178
39466SOL     OW20229  13.502   4.115  13.685
39466SOL    HW120230  13.484   4.194  13.634
39466SOL    HW220231  13.522   4.048  13.620
39467SOL     OW20232   1.153   2.111   1.086
39467SOL    HW120233   1.091   2.042   1.064
39467SOL    HW220234   1.239   2.073   1.068
39468SOL     OW20235   0.580  12.687   8.789
39468SOL    HW120236   0.647  12.626   8.821
39468SOL    HW220237   0.497  12.640   8.799
39469SOL     OW20238  11.437   3.082  11.575
39469SOL    HW120239  11.438   3.089  11.480
39469SOL    HW220240  11.387   3.158  11.605
39470SOL     OW20241  10.570   8.259   1.128
39470SOL    HW120242  10.541   8.314   1.056
39470SOL    HW220243  10.511   8.282   1.200
39471SOL     OW20244  10.387  11.470   2.531
39471SOL    HW120245  10.482  11.477   2.540
39471SOL    HW220246  10.366  11.524   2.455
39472SOL     OW20247   4.326  11.667   9.207
39472SOL    HW120248   4.323  11.665   9.303
39472SOL    HW220249   4.236  11.685   9.181
39473SOL     OW20250   9.425  11.850  12.277
39473SOL    HW120251   9.421  11.803  12.361
39473SOL    HW220252   9.336  11.883  12.265
39474SOL     OW20253   5.941   3.648   1.307
39474SOL    HW120254   5.894   3.731   1.311
39474SOL    HW220255   5.956   3.624   1.399
39475SOL     OW20256   0.223   5.972   1.774
39475SOL    HW120257   0.180   6.054   1.800
39475SOL    HW220258   0.204   5.912   1.846
39476SOL     OW20259   7.714   9.606   0.249
39476SOL    HW120260   7.807   9.595   0.270
39476SOL    HW220261   7.692   9.693   0.283
39477SOL     OW20262   4.375   6.026   5.779
39477SOL    HW120263   4.295   5.975   5.793
39477SOL    HW220264   4.345   6.116   5.774
39478SOL     OW20265  13.969  14.174   2.677
39478SOL    HW120266  13.950  14.083   2.701
39478SOL    HW220267  14.031  14.167   2.605
39479SOL     OW20268   2.914   1.657  10.440
39479SOL    HW120269   2.951   1.739  10.407
39479SOL    HW220270   2.937   1.592  10.374
39480SOL     OW20271   7.027   9.302   6.923
39480SOL    HW120272   7.085   9.377   6.912
39480SOL    HW220273   6.941   9.333   6.895
39481SOL     OW20274  11.571   5.785   0.894
39481SOL    HW120275  11.609   5.825   0.816
39481SOL    HW220276  11.623   5.706   0.908
39482SOL     OW20277   6.467   5.412   5.593
39482SOL    HW120278   6.490   5.327   5.557
39482SOL    HW220279   6.549   5.462   5.593
39483SOL     OW20280   1.237   0.092   1.023
39483SOL    HW120281   1.149   0.054   1.019
39483SOL    HW220282   1.222   0.183   1.050
39484SOL     OW20283  12.689   4.359   5.849
39484SOL    HW120284  12.605   4.403   5.838
39484SOL    HW220285  12.714   4.332   5.761
39485SOL     OW20286  10.459  10.785  10.789
39485SOL    HW120287  10.483  10.873  10.760
39485SOL    HW220288  10.543  10.741  10.805
39486SOL     OW20289   1.889   8.465   6.926
39486SOL    HW120290   1.805   8.439   6.890
39486SOL    HW220291   1.923   8.530   6.865
39487SOL     OW20292  10.124   1.796   9.644
39487SOL    HW120293  10.154   1.882   9.674
39487SOL    HW220294  10.036   1.812   9.610
39488SOL     OW20295   5.531  12.946   8.480
39488SOL    HW120296   5.527  12.987   8.566
39488SOL    HW220297   5.532  13.019   8.418
39489SOL     OW20298   3.566  11.648   9.570
39489SOL    HW120299   3.613  11.596   9.635
39489SOL    HW220300   3.578  11.739   9.598
39490SOL     OW20301   0.903   4.353   6.745
39490SOL    HW120302   0.877   4.435   6.705
39490SOL    HW220303   0.896   4.368   6.839
39491SOL     OW20304   2.572   7.778  10.702
39491SOL    HW120305   2.482   7.790  10.671
39491SOL    HW220306   2.562   7.764  10.797
39492SOL     OW20307   4.557   1.706   5.571
39492SOL    HW120308   4.573   1.780   5.512
39492SOL    HW220309   4.470   1.724   5.608
39493SOL     OW20310   9.007   9.858  10.188
39493SOL    HW120311   8.930   9.912  10.207
39493SOL    HW220312   8.973   9.769  10.180
39494SOL     OW20313  14.238   9.787   9.108
39494SOL    HW120314  14.272   9.699   9.092
39494SOL    HW220315  14.315   9.840   9.128
39495SOL     OW20316  13.608  11.181   6.501
39495SOL    HW120317  13.659  11.122   6.446
39495SOL    HW220318  13.528  11.198   6.451
39496SOL     OW20319  10.645   6.551   9.087
39496SOL    HW120320  10.648   6.636   9.043
39496SOL    HW220321  10.562   6.512   9.058
39497SOL     OW20322   8.253  10.210   4.514
39497SOL    HW120323   8.286  10.185   4.428
39497SOL    HW220324   8.256  10.130   4.565
39498SOL     OW20325  10.664   2.742   6.559
39498SOL    HW120326  10.596   2.734   6.491
39498SOL    HW220327  10.746   2.742   6.510
39499SOL     OW20328  13.327  12.043   9.265
39499SOL    HW120329  13.414  12.080   9.251
39499SOL    HW220330  13.342  11.950   9.282
39500SOL     OW20331   5.175   5.673   3.448
39500SOL    HW120332   5.144   5.719   3.526
39500SOL    HW220333   5.144   5.727   3.375
39501SOL     OW20334   3.325   3.047   5.277
39501SOL    HW120335   3.394   3.003   5.327
39501SOL    HW220336   3.246   3.036   5.330
39502SOL     OW20337  11.003  13.796  10.669
39502SOL    HW120338  10.953  13.716  10.683
39502SOL    HW220339  10.949  13.865  10.706
39503SOL     OW20340   9.931   5.295  12.144
39503SOL    HW120341   9.855   5.241  12.123
39503SOL    HW220342   9.926   5.368  12.083
39504SOL     OW20343  12.275  13.701  10.425
39504SOL    HW120344  12.190  13.687  10.382
39504SOL    HW220345  12.288  13.622  10.477
39505SOL     OW20346   8.921  11.576  10.271
39505SOL    HW120347   8.948  11.489  10.301
39505SOL    HW220348   8.930  11.572  10.176
39506SOL     OW20349  11.917   5.851  12.776
39506SOL    HW120350  11.922   5.762  12.741
39506SOL    HW220351  11.983   5.853  12.845
39507SOL     OW20352   2.141  14.343   4.015
39507SOL    HW120353   2.177  14.267   3.968
39507SOL    HW220354   2.074  14.306   4.072
39508SOL     OW20355   0.129   1.811   7.069
39508SOL    HW120356   0.183   1.784   6.994
39508SOL    HW220357   0.165   1.762   7.143
39509SOL     OW20358   0.391   9.553   3.819
39509SOL    HW120359   0.411   9.480   3.878
39509SOL    HW220360   0.297   9.546   3.803
39510SOL     OW20361   1.909   7.827   7.982
39510SOL    HW120362   1.917   7.732   7.971
39510SOL    HW220363   1.883   7.859   7.896
39511SOL     OW20364   6.415  14.310   7.862
39511SOL    HW120365   6.359  14.253   7.811
39511SOL    HW220366   6.493  14.258   7.881
39512SOL     OW20367   7.906  10.121  12.655
39512SOL    HW120368   7.996  10.153  12.659
39512SOL    HW220369   7.855  10.186  12.704
39513SOL     OW20370  11.429   8.965   5.581
39513SOL    HW120371  11.358   9.011   5.626
39513SOL    HW220372  11.398   8.875   5.571
39514SOL     OW20373   0.094   5.460   2.788
39514SOL    HW120374   0.170   5.518   2.793
39514SOL    HW220375   0.027   5.513   2.746
39515SOL     OW20376  13.106  11.933   4.146
39515SOL    HW120377  13.095  11.977   4.230
39515SOL    HW220378  13.023  11.889   4.130
39516SOL     OW20379   5.915   2.331   3.547
39516SOL    HW120380   5.935   2.413   3.502
39516SOL    HW220381   5.900   2.268   3.476
39517SOL     OW20382  10.274   9.564  12.638
39517SOL    HW120383  10.207   9.598  12.578
39517SOL    HW220384  10.248   9.473  12.654
39518SOL     OW20385  11.382  12.568   5.156
39518SOL    HW120386  11.325  12.585   5.231
39518SOL    HW220387  11.357  12.635   5.092
39519SOL     OW20388  13.172   5.831   2.450
39519SOL    HW120389  13.095   5.822   2.394
39519SOL    HW220390  13.151   5.778   2.528
39520SOL     OW20391   4.831  14.123  13.262
39520SOL    HW120392   4.852  14.205  13.217
39520SOL    HW220393   4.821  14.059  13.191
39521SOL     OW20394   2.649   3.971   0.645
39521SOL    HW120395   2.685   4.041   0.590
39521SOL    HW220396   2.627   4.014   0.728
39522SOL     OW20397   9.551   9.162   7.254
39522SOL    HW120398   9.481   9.111   7.213
39522SOL    HW220399   9.542   9.143   7.348
39523SOL     OW20400   4.425   0.539   8.279
39523SOL    HW120401   4.512   0.537   8.320
39523SOL    HW220402   4.404   0.447   8.263
39524SOL     OW20403   8.147   3.878  10.579
39524SOL    HW120404   8.056   3.857  10.600
39524SOL    HW220405   8.167   3.824  10.502
39525SOL     OW20406   2.037  12.706  13.243
39525SOL    HW120407   2.079  12.625  13.272
39525SOL    HW220408   2.099  12.775  13.265
39526SOL     OW20409  10.643  10.921   7.401
39526SOL    HW120410  10.722  10.886   7.442
39526SOL    HW220411  10.670  11.005   7.365
39527SOL     OW20412  13.619  10.839  11.172
39527SOL    HW120413  13.604  10.891  11.093
39527SOL    HW220414  13.562  10.880  11.238
39528SOL     OW20415  11.396   7.557   5.014
39528SOL    HW120416  11.442   7.478   4.986
39528SOL    HW220417  11.345   7.583   4.937
39529SOL     OW20418   2.764   3.447   2.338
39529SOL    HW120419   2.805   3.482   2.417
39529SOL    HW220420   2.814   3.484   2.266
39530SOL     OW20421   0.564  13.029  10.182
39530SOL    HW120422   0.574  12.996  10.093
39530SOL    HW220423   0.632  13.096  10.190
39531SOL     OW20424   4.488   3.198   4.192
39531SOL    HW120425   4.574   3.165   4.169
39531SOL    HW220426   4.478   3.176   4.285
39532SOL     OW20427   1.930   6.980   7.364
39532SOL    HW120428   1.857   6.939   7.410
39532SOL    HW220429   1.948   6.922   7.291
39533SOL     OW20430   5.772  12.007   7.396
39533SOL    HW120431   5.795  12.027   7.486
39533SOL    HW220432   5.825  11.930   7.374
39534SOL     OW20433   0.530   2.400   8.072
39534SOL    HW120434   0.452   2.386   8.018
39534SOL    HW220435   0.498   2.450   8.147
39535SOL     OW20436   7.020   4.659  10.299
39535SOL    HW120437   7.016   4.736  10.243
39535SOL    HW220438   7.106   4.663  10.341
39536SOL     OW20439   6.200   0.021   1.076
39536SOL    HW120440   6.257  14.863   1.144
39536SOL    HW220441   6.256   0.076   1.022
39537SOL     OW20442   0.150   5.049  13.386
39537SOL    HW120443   0.191   5.089  13.309
39537SOL    HW220444   0.079   5.110  13.409
39538SOL     OW20445   9.781  14.788  14.848
39538SOL    HW120446   9.701  14.802  14.796
39538SOL    HW220447   9.805  14.697  14.831
39539SOL     OW20448  11.148  14.160   6.560
39539SOL    HW120449  11.185  14.160   6.648
39539SOL    HW220450  11.110  14.073   6.550
39540SOL     OW20451  14.810   2.749  12.162
39540SOL    HW120452  14.808   2.693  12.085
39540SOL    HW220453  14.724   2.740  12.201
39541SOL     OW20454   3.515   5.888   3.033
39541SOL    HW120455   3.441   5.947   3.016
39541SOL    HW220456   3.537   5.852   2.947
39542SOL     OW20457   0.587  12.369   1.261
39542SOL    HW120458   0.631  12.304   1.315
39542SOL    HW220459   0.517  12.403   1.317
39543SOL     OW20460  13.815   1.114  14.541
39543SOL    HW120461  13.721   1.111  14.524
39543SOL    HW220462  13.853   1.142  14.458
39544SOL     OW20463   2.325  12.203   4.192
39544SOL    HW120464   2.361  12.115   4.208
39544SOL    HW220465   2.250  12.188   4.135
39545SOL     OW20466   4.211   3.183   1.084
39545SOL    HW120467   4.239   3.252   1.025
39545SOL    HW220468   4.120   3.167   1.061
39546SOL     OW20469   7.988  13.372   7.351
39546SOL    HW120470   7.950  13.309   7.413
39546SOL    HW220471   8.009  13.320   7.274
39547SOL     OW20472  13.709   2.382   7.434
39547SOL    HW120473  13.778   2.389   7.367
39547SOL    HW220474  13.675   2.471   7.443
39548SOL     OW20475   9.226  11.578   0.428
39548SOL    HW120476   9.177  11.649   0.470
39548SOL    HW220477   9.307  11.572   0.477
39549SOL     OW20478   3.460  11.540   8.585
39549SOL    HW120479   3.402  11.550   8.509
39549SOL    HW220480   3.545  11.520   8.547
39550SOL     OW20481   7.952  10.211  11.563
39550SOL    HW120482   7.856  10.218  11.569
39550SOL    HW220483   7.969  10.193  11.471
39551SOL     OW20484  13.766  10.903   8.741
39551SOL    HW120485  13.858  10.883   8.762
39551SOL    HW220486  13.733  10.824   8.699
39552SOL     OW20487   9.047   6.064   7.294
39552SOL    HW120488   9.082   6.150   7.316
39552SOL    HW220489   9.122   6.006   7.294
39553SOL     OW20490   3.345  14.316   1.053
39553SOL    HW120491   3.292  14.386   1.092
39553SOL    HW220492   3.434  14.351   1.051
39554SOL     OW20493   0.972   1.508   7.835
39554SOL    HW120494   0.988   1.505   7.740
39554SOL    HW220495   1.002   1.422   7.867
39555SOL     OW20496  10.596  11.513  13.707
39555SOL    HW120497  10.622  11.511  13.799
39555SOL    HW220498  10.576  11.605  13.690
39556SOL     OW20499   6.768   3.194   0.607
39556SOL    HW120500   6.856   3.221   0.633
39556SOL    HW220501   6.742   3.128   0.672
39557SOL     OW20502  11.970   5.942   8.289
39557SOL    HW120503  11.875   5.954   8.281
39557SOL    HW220504  12.004   6.031   8.294
39558SOL     OW20505   0.060  10.259  12.384
39558SOL    HW120506   0.035  10.351  12.378
39558SOL    HW220507   0.060  10.228  12.294
39559SOL     OW20508  14.566   3.268   5.206
39559SOL    HW120509  14.648   3.318   5.214
39559SOL    HW220510  14.567   3.234   5.117
39560SOL     OW20511   4.471  10.754  12.422
39560SOL    HW120512   4.380  10.765  12.395
39560SOL    HW220513   4.501  10.843  12.444
39561SOL     OW20514   9.676  10.161  13.020
39561SOL    HW120515   9.606  10.157  13.085
39561SOL    HW220516   9.756  10.161  13.072
39562SOL     OW20517   5.243   6.852  14.099
39562SOL    HW120518   5.265   6.796  14.174
39562SOL    HW220519   5.179   6.801  14.049
39563SOL     OW20520   8.110   1.067   5.254
39563SOL    HW120521   8.096   1.101   5.165
39563SOL    HW220522   8.024   1.037   5.282
39564SOL     OW20523  12.990   9.540   2.192
39564SOL    HW120524  13.043   9.464   2.169
39564SOL    HW220525  13.049   9.615   2.181
39565SOL     OW20526  12.034  10.993   8.567
39565SOL    HW120527  12.058  11.071   8.618
39565SOL    HW220528  12.117  10.947   8.554
39566SOL     OW20529  14.720  10.828   0.661
39566SOL    HW120530  14.756  10.863   0.743
39566SOL    HW220531  14.626  10.832   0.673
39567SOL     OW20532   5.981   9.147   7.788
39567SOL    HW120533   6.038   9.221   7.769
39567SOL    HW220534   5.981   9.141   7.884
39568SOL     OW20535  12.835  12.014   6.773
39568SOL    HW120536  12.872  11.950   6.834
39568SOL    HW220537  12.766  11.966   6.727
39569SOL     OW20538   8.999  13.028   5.440
39569SOL    HW120539   8.997  12.995   5.350
39569SOL    HW220540   8.940  12.970   5.488
39570SOL     OW20541   1.373   4.451  12.985
39570SOL    HW120542   1.321   4.527  13.008
39570SOL    HW220543   1.310   4.387  12.953
39571SOL     OW20544  14.295   8.502   7.170
39571SOL    HW120545  14.339   8.418   7.153
39571SOL    HW220546  14.235   8.483   7.243
39572SOL     OW20547  11.097   6.363   2.156
39572SOL    HW120548  11.021   6.337   2.209
39572SOL    HW220549  11.060   6.416   2.085
39573SOL     OW20550   4.042   7.236   3.863
39573SOL    HW120551   4.133   7.236   3.834
39573SOL    HW220552   4.019   7.143   3.868
39574SOL     OW20553   9.458   1.769   8.988
39574SOL    HW120554   9.476   1.679   8.963
39574SOL    HW220555   9.420   1.809   8.910
39575SOL     OW20556   0.667   3.543  11.563
39575SOL    HW120557   0.750   3.579  11.532
39575SOL    HW220558   0.601   3.591  11.515
39576SOL     OW20559   5.845  13.095   1.469
39576SOL    HW120560   5.913  13.095   1.402
39576SOL    HW220561   5.766  13.124   1.423
39577SOL     OW20562   5.396   7.050   2.433
39577SOL    HW120563   5.327   7.055   2.367
39577SOL    HW220564   5.435   6.964   2.421
39578SOL     OW20565   8.124   3.335  10.199
39578SOL    HW120566   8.196   3.348  10.260
39578SOL    HW220567   8.094   3.424  10.178
39579SOL     OW20568   2.763   2.034   4.202
39579SOL    HW120569   2.702   2.055   4.273
39579SOL    HW220570   2.770   1.938   4.205
39580SOL     OW20571  11.017   2.583   6.850
39580SOL    HW120572  11.068   2.506   6.877
39580SOL    HW220573  10.934   2.547   6.819
39581SOL     OW20574  13.019   0.658   6.127
39581SOL    HW120575  12.994   0.628   6.214
39581SOL    HW220576  12.952   0.723   6.104
39582SOL     OW20577  12.755  12.314  10.090
39582SOL    HW120578  12.665  12.321  10.121
39582SOL    HW220579  12.747  12.287   9.999
39583SOL     OW20580   8.702  13.384  13.711
39583SOL    HW120581   8.622  13.403  13.662
39583SOL    HW220582   8.734  13.302  13.673
39584SOL     OW20583   4.544   6.671   5.208
39584SOL    HW120584   4.593   6.719   5.275
39584SOL    HW220585   4.478   6.733   5.177
39585SOL     OW20586   0.441  13.621   6.815
39585SOL    HW120587   0.352  13.656   6.819
39585SOL    HW220588   0.481  13.647   6.899
39586SOL     OW20589  14.482   3.669   4.311
39586SOL    HW120590  14.458   3.751   4.267
39586SOL    HW220591  14.429   3.602   4.268
39587SOL     OW20592   6.478   6.407  12.612
39587SOL    HW120593   6.560   6.377  12.573
39587SOL    HW220594   6.488   6.502  12.619
39588SOL     OW20595   4.884   7.613  10.920
39588SOL    HW120596   4.813   7.676  10.907
39588SOL    HW220597   4.961   7.668  10.938
39589SOL     OW20598  12.583  11.758   8.614
39589SOL    HW120599  12.544  11.683   8.659
39589SOL    HW220600  12.629  11.719   8.539
39590SOL     OW20601   1.160   5.585  14.730
39590SOL    HW120602   1.252   5.571  14.708
39590SOL    HW220603   1.112   5.530  14.668
39591SOL     OW20604  10.373   3.204   4.102
39591SOL    HW120605  10.431   3.262   4.151
39591SOL    HW220606  10.396   3.116   4.133
39592SOL     OW20607  12.610  13.606   5.135
39592SOL    HW120608  12.542  13.576   5.074
39592SOL    HW220609  12.578  13.579   5.221
39593SOL     OW20610   5.212  14.030   8.405
39593SOL    HW120611   5.286  14.080   8.371
39593SOL    HW220612   5.251  13.973   8.472
39594SOL     OW20613  14.539   7.587   0.363
39594SOL    HW120614  14.586   7.648   0.419
39594SOL    HW220615  14.452   7.627   0.351
39595SOL     OW20616   6.752   8.646  13.147
39595SOL    HW120617   6.767   8.619  13.057
39595SOL    HW220618   6.683   8.712  13.141
39596SOL     OW20619   6.574   1.308   9.624
39596SOL    HW120620   6.483   1.284   9.645
39596SOL    HW220621   6.575   1.404   9.628
39597SOL     OW20622   5.326  13.642   6.999
39597SOL    HW120623   5.258  13.576   6.987
39597SOL    HW220624   5.297  13.716   6.946
39598SOL     OW20625   8.557  13.454   3.115
39598SOL    HW120626   8.632  13.487   3.164
39598SOL    HW220627   8.566  13.358   3.120
39599SOL     OW20628   3.184  11.323   4.352
39599SOL    HW120629   3.234  11.255   4.307
39599SOL    HW220630   3.233  11.340   4.432
39600SOL     OW20631  10.212  10.014  12.187
39600SOL    HW120632  10.171  10.022  12.100
39600SOL    HW220633  10.222  10.105  12.216
39601SOL     OW20634   4.450  11.283   2.658
39601SOL    HW120635   4.495  11.348   2.604
39601SOL    HW220636   4.520  11.226   2.690
39602SOL     OW20637  14.243  13.270   9.878
39602SOL    HW120638  14.194  13.312   9.808
39602SOL    HW220639  14.326  13.317   9.881
39603SOL     OW20640   7.591   5.817   4.327
39603SOL    HW120641   7.617   5.762   4.254
39603SOL    HW220642   7.661   5.881   4.336
39604SOL     OW20643  11.279  12.175  10.001
39604SOL    HW120644  11.219  12.247   9.982
39604SOL    HW220645  11.225  12.107  10.041
39605SOL     OW20646   9.423   4.230  13.843
39605SOL    HW120647   9.417   4.215  13.938
39605SOL    HW220648   9.510   4.270  13.831
39606SOL     OW20649   1.223   8.307   4.950
39606SOL    HW120650   1.303   8.267   4.917
39606SOL    HW220651   1.245   8.399   4.964
39607SOL     OW20652   7.440  11.656   1.065
39607SOL    HW120653   7.478  11.697   0.988
39607SOL    HW220654   7.516  11.630   1.118
39608SOL     OW20655   5.120   5.614  13.384
39608SOL    HW120656   5.071   5.694  13.364
39608SOL    HW220657   5.182   5.605  13.311
39609SOL     OW20658  10.453   7.454   1.534
39609SOL    HW120659  10.542   7.488   1.550
39609SOL    HW220660  10.400   7.493   1.603
39610SOL     OW20661   4.968   4.470   8.347
39610SOL    HW120662   5.013   4.463   8.263
39610SOL    HW220663   5.028   4.518   8.403
39611SOL     OW20664   1.111   2.299  13.059
39611SOL    HW120665   1.141   2.284  12.969
39611SOL    HW220666   1.123   2.393  13.073
39612SOL     OW20667   8.381   0.579  14.583
39612SOL    HW120668   8.339   0.493  14.594
39612SOL    HW220669   8.313   0.633  14.543
39613SOL     OW20670   8.092  11.020   9.488
39613SOL    HW120671   8.172  11.071   9.504
39613SOL    HW220672   8.024  11.086   9.475
39614SOL     OW20673   6.517  12.182   4.835
39614SOL    HW120674   6.427  12.170   4.803
39614SOL    HW220675   6.506  12.223   4.921
39615SOL     OW20676   6.161   8.431   4.954
39615SOL    HW120677   6.191   8.503   4.899
39615SOL    HW220678   6.241   8.389   4.986
39616SOL     OW20679   1.753   7.408   0.031
39616SOL    HW120680   1.675   7.391  14.853
39616SOL    HW220681   1.825   7.371  14.857
39617SOL     OW20682  14.571   5.840   8.267
39617SOL    HW120683  14.586   5.772   8.201
39617SOL    HW220684  14.523   5.795   8.337
39618SOL     OW20685   0.704   1.929  13.740
39618SOL    HW120686   0.733   1.946  13.651
39618SOL    HW220687   0.610   1.910  13.732
39619SOL     OW20688   6.752   5.328   9.299
39619SOL    HW120689   6.756   5.413   9.342
39619SOL    HW220690   6.715   5.347   9.213
39620SOL     OW20691   3.789  14.858   8.325
39620SOL    HW120692   3.703  14.820   8.306
39620SOL    HW220693   3.787   0.000   8.419
39621SOL     OW20694  13.712   4.696   7.895
39621SOL    HW120695  13.641   4.657   7.945
39621SOL    HW220696  13.684   4.689   7.804
39622SOL     OW20697   0.210   6.438   1.707
39622SOL    HW120698   0.215   6.534   1.699
39622SOL    HW220699   0.234   6.406   1.620
39623SOL     OW20700   7.027   4.862   4.349
39623SOL    HW120701   7.118   4.871   4.320
39623SOL    HW220702   6.976   4.903   4.280
39624SOL     OW20703  11.495  11.059   0.310
39624SOL    HW120704  11.449  10.975   0.302
39624SOL    HW220705  11.425  11.123   0.323
39625SOL     OW20706   6.240   0.740   3.504
39625SOL    HW120707   6.234   0.815   3.445
39625SOL    HW220708   6.313   0.689   3.471
39626SOL     OW20709  10.170  14.829   9.677
39626SOL    HW120710  10.120  14.790   9.750
39626SOL    HW220711  10.196  14.754   9.624
39627SOL     OW20712  11.867   6.329  11.564
39627SOL    HW120713  11.889   6.420  11.583
39627SOL    HW220714  11.949   6.288  11.539
39628SOL     OW20715   7.845  11.417  14.131
39628SOL    HW120716   7.757  11.394  14.100
39628SOL    HW220717   7.847  11.386  14.222
39629SOL     OW20718  12.744   9.902   5.202
39629SOL    HW120719  12.666   9.852   5.225
39629SOL    HW220720  12.808   9.837   5.175
39630SOL     OW20721   9.417  10.301  11.864
39630SOL    HW120722   9.355  10.239  11.901
39630SOL    HW220723   9.374  10.334  11.785
39631SOL     OW20724  10.156   4.367   6.966
39631SOL    HW120725  10.197   4.307   7.029
39631SOL    HW220726  10.095   4.312   6.917
39632SOL     OW20727   0.549  11.561   4.443
39632SOL    HW120728   0.630  11.515   4.464
39632SOL    HW220729   0.523  11.602   4.525
39633SOL     OW20730   7.368   2.948   2.189
39633SOL    HW120731   7.384   2.870   2.136
39633SOL    HW220732   7.335   3.013   2.127
39634SOL     OW20733   7.908  10.647   7.929
39634SOL    HW120734   7.875  10.726   7.886
39634SOL    HW220735   7.838  10.621   7.989
39635SOL     OW20736  11.044   5.809  12.375
39635SOL    HW120737  11.116   5.862  12.340
39635SOL    HW220738  11.086   5.752  12.439
39636SOL     OW20739   6.392  13.200   7.696
39636SOL    HW120740   6.381  13.295   7.699
39636SOL    HW220741   6.454  13.181   7.766
39637SOL     OW20742  13.948   6.637  11.684
39637SOL    HW120743  13.897   6.568  11.727
39637SOL    HW220744  14.000   6.676  11.754
39638SOL     OW20745  13.240   6.604  12.497
39638SOL    HW120746  13.145   6.619  12.497
39638SOL    HW220747  13.267   6.624  12.587
39639SOL     OW20748   4.001   0.415  10.305
39639SOL    HW120749   4.028   0.449  10.219
39639SOL    HW220750   3.919   0.369  10.288
39640SOL     OW20751  13.240   9.247  10.061
39640SOL    HW120752  13.185   9.273  10.135
39640SOL    HW220753  13.251   9.327  10.009
39641SOL     OW20754  11.790  12.537   2.146
39641SOL    HW120755  11.738  12.617   2.149
39641SOL    HW220756  11.751  12.481   2.213
39642SOL     OW20757   9.290   2.882   9.366
39642SOL    HW120758   9.196   2.892   9.382
39642SOL    HW220759   9.296   2.831   9.285
39643SOL     OW20760  10.592  11.154   4.162
39643SOL    HW120761  10.570  11.063   4.140
39643SOL    HW220762  10.680  11.166   4.129
39644SOL     OW20763   2.074   9.714  13.841
39644SOL    HW120764   2.042   9.770  13.770
39644SOL    HW220765   2.005   9.649  13.854
39645SOL     OW20766   6.350   3.962  11.152
39645SOL    HW120767   6.267   4.009  11.139
39645SOL    HW220768   6.392   4.007  11.225
39646SOL     OW20769  12.369   7.424   0.674
39646SOL    HW120770  12.438   7.411   0.739
39646SOL    HW220771  12.287   7.405   0.720
39647SOL     OW20772   0.723  10.553  12.042
39647SOL    HW120773   0.706  10.585  12.131
39647SOL    HW220774   0.639  10.520  12.012
39648SOL     OW20775   7.774   6.388   7.596
39648SOL    HW120776   7.802   6.430   7.676
39648SOL    HW220777   7.777   6.294   7.616
39649SOL     OW20778   5.353  11.504   8.164
39649SOL    HW120779   5.323  11.560   8.092
39649SOL    HW220780   5.333  11.555   8.243
39650SOL     OW20781   1.850   5.255   1.760
39650SOL    HW120782   1.818   5.223   1.844
39650SOL    HW220783   1.945   5.249   1.767
39651SOL     OW20784  10.232   2.987  11.984
39651SOL    HW120785  10.324   3.008  12.003
39651SOL    HW220786  10.198   2.950  12.065
39652SOL     OW20787   5.162   3.771   3.514
39652SOL    HW120788   5.225   3.741   3.448
39652SOL    HW220789   5.113   3.692   3.537
39653SOL     OW20790   2.307  12.808   3.332
39653SOL    HW120791   2.393  12.823   3.371
39653SOL    HW220792   2.246  12.853   3.390
39654SOL     OW20793   5.925  14.185   3.661
39654SOL    HW120794   5.856  14.247   3.686
39654SOL    HW220795   5.949  14.142   3.743
39655SOL     OW20796   9.676  11.046   1.935
39655SOL    HW120797   9.613  11.118   1.938
39655SOL    HW220798   9.628  10.974   1.896
39656SOL     OW20799  13.787  12.082   2.796
39656SOL    HW120800  13.723  12.135   2.749
39656SOL    HW220801  13.798  12.127   2.880
39657SOL     OW20802   8.599   2.078   9.888
39657SOL    HW120803   8.506   2.057   9.899
39657SOL    HW220804   8.599   2.165   9.848
39658SOL     OW20805   8.072  12.734   9.010
39658SOL    HW120806   8.011  12.695   9.073
39658SOL    HW220807   8.154  12.743   9.059
39659SOL     OW20808   0.636  12.825  14.647
39659SOL    HW120809   0.706  12.879  14.608
39659SOL    HW220810   0.673  12.795  14.730
39660SOL     OW20811  10.323  12.777   4.595
39660SOL    HW120812  10.361  12.712   4.536
39660SOL    HW220813  10.300  12.851   4.538
39661SOL     OW20814  14.810   8.824  12.515
39661SOL    HW120815  14.740   8.873  12.473
39661SOL    HW220816  14.808   8.854  12.606
39662SOL     OW20817   6.821   1.494   2.890
39662SOL    HW120818   6.733   1.470   2.862
39662SOL    HW220819   6.809   1.541   2.972
39663SOL     OW20820   4.215   2.567   4.813
39663SOL    HW120821   4.133   2.600   4.850
39663SOL    HW220822   4.188   2.494   4.757
39664SOL     OW20823   2.277   7.596   3.464
39664SOL    HW120824   2.194   7.642   3.447
39664SOL    HW220825   2.326   7.605   3.382
39665SOL     OW20826  10.342   4.635   3.464
39665SOL    HW120827  10.283   4.671   3.397
39665SOL    HW220828  10.309   4.547   3.481
39666SOL     OW20829   1.229   6.050   4.237
39666SOL    HW120830   1.198   5.988   4.302
39666SOL    HW220831   1.300   6.097   4.281
39667SOL     OW20832  11.762  13.685  14.206
39667SOL    HW120833  11.779  13.659  14.115
39667SOL    HW220834  11.765  13.780  14.205
39668SOL     OW20835  13.999   7.521   3.623
39668SOL    HW120836  14.088   7.502   3.593
39668SOL    HW220837  14.004   7.509   3.718
39669SOL     OW20838   3.688  10.850   7.696
39669SOL    HW120839   3.731  10.788   7.636
39669SOL    HW220840   3.610  10.804   7.726
39670SOL     OW20841   5.753  11.377   1.709
39670SOL    HW120842   5.774  11.470   1.704
39670SOL    HW220843   5.838  11.333   1.706
39671SOL     OW20844   8.441  10.674   9.926
39671SOL    HW120845   8.367  10.717   9.969
39671SOL    HW220846   8.443  10.586   9.964
39672SOL     OW20847   4.911  14.359  14.346
39672SOL    HW120848   4.962  14.361  14.428
39672SOL    HW220849   4.970  14.318  14.283
39673SOL     OW20850   9.920   1.681  11.918
39673SOL    HW120851   9.853   1.715  11.978
39673SOL    HW220852   9.996   1.738  11.931
39674SOL     OW20853  12.072  11.942  12.950
39674SOL    HW120854  12.161  11.937  12.985
39674SOL    HW220855  12.024  11.874  12.996
39675SOL     OW20856   9.947   2.924  12.592
39675SOL    HW120857   9.913   2.844  12.552
39675SOL    HW220858   9.970   2.980  12.517
39676SOL     OW20859  14.404  12.174   7.179
39676SOL    HW120860  14.309  12.170   7.167
39676SOL    HW220861  14.418  12.142   7.268
39677SOL     OW20862   6.753   4.066  12.343
39677SOL    HW120863   6.823   4.061  12.409
39677SOL    HW220864   6.797   4.094  12.263
39678SOL     OW20865  13.297   4.230   4.845
39678SOL    HW120866  13.372   4.220   4.903
39678SOL    HW220867  13.231   4.170   4.880
39679SOL     OW20868   0.897  10.008  11.949
39679SOL    HW120869   0.980   9.990  11.993
39679SOL    HW220870   0.876   9.927  11.902
39680SOL     OW20871   0.153   7.203  13.862
39680SOL    HW120872   0.140   7.109  13.848
39680SOL    HW220873   0.147   7.241  13.774
39681SOL     OW20874   3.621  11.490   4.320
39681SOL    HW120875   3.538  11.537   4.313
39681SOL    HW220876   3.659  11.495   4.232
39682SOL     OW20877   0.642   0.309   9.861
39682SOL    HW120878   0.576   0.270   9.805
39682SOL    HW220879   0.617   0.401   9.868
39683SOL     OW20880   0.325  11.301   9.810
39683SOL    HW120881   0.300  11.218   9.769
39683SOL    HW220882   0.407  11.282   9.855
39684SOL     OW20883   5.559  14.645   8.500
39684SOL    HW120884   5.588  14.678   8.585
39684SOL    HW220885   5.639  14.635   8.449
39685SOL     OW20886   3.481   8.838   3.493
39685SOL    HW120887   3.421   8.858   3.421
39685SOL    HW220888   3.551   8.903   3.485
39686SOL     OW20889  14.703   8.140   8.881
39686SOL    HW120890  14.608   8.144   8.896
39686SOL    HW220891  14.735   8.224   8.913
39687SOL     OW20892   5.179  11.731  14.768
39687SOL    HW120893   5.196  11.728  14.674
39687SOL    HW220894   5.135  11.815  14.781
39688SOL     OW20895  10.830   1.535  12.200
39688SOL    HW120896  10.852   1.628  12.200
39688SOL    HW220897  10.883   1.497  12.130
39689SOL     OW20898   8.960   3.213   6.195
39689SOL    HW120899   8.979   3.210   6.289
39689SOL    HW220900   8.917   3.129   6.177
39690SOL     OW20901  14.326  13.097   9.311
39690SOL    HW120902  14.353  13.007   9.328
39690SOL    HW220903  14.278  13.092   9.228
39691SOL     OW20904   7.469  10.401   7.745
39691SOL    HW120905   7.471  10.342   7.820
39691SOL    HW220906   7.377  10.404   7.718
39692SOL     OW20907   7.187  12.292  14.023
39692SOL    HW120908   7.228  12.238  13.956
39692SOL    HW220909   7.215  12.381  14.002
39693SOL     OW20910   2.024  10.904   4.715
39693SOL    HW120911   2.059  10.928   4.801
39693SOL    HW220912   2.013  10.809   4.720
39694SOL     OW20913   2.764  13.548   7.624
39694SOL    HW120914   2.763  13.635   7.665
39694SOL    HW220915   2.833  13.553   7.559
39695SOL     OW20916   5.420  12.109   2.737
39695SOL    HW120917   5.477  12.054   2.790
39695SOL    HW220918   5.343  12.124   2.792
39696SOL     OW20919   8.811   5.963   7.391
39696SOL    HW120920   8.764   6.040   7.359
39696SOL    HW220921   8.898   5.970   7.352
39697SOL     OW20922  14.296   0.040  11.187
39697SOL    HW120923  14.305  14.821  11.172
39697SOL    HW220924  14.378   0.065  11.229
39698SOL     OW20925  11.618   9.592   0.516
39698SOL    HW120926  11.555   9.617   0.584
39698SOL    HW220927  11.670   9.671   0.501
39699SOL     OW20928  11.890   9.237   0.393
39699SOL    HW120929  11.950   9.203   0.327
39699SOL    HW220930  11.934   9.314   0.428
39700SOL     OW20931  10.607  13.811  10.733
39700SOL    HW120932  10.650  13.893  10.758
39700SOL    HW220933  10.644  13.746  10.792
39701SOL     OW20934  12.612  13.372   9.327
39701SOL    HW120935  12.636  13.279   9.325
39701SOL    HW220936  12.553  13.383   9.252
39702SOL     OW20937   5.205  11.367   2.022
39702SOL    HW120938   5.151  11.316   2.083
39702SOL    HW220939   5.168  11.348   1.936
39703SOL     OW20940   9.949   4.026  13.404
39703SOL    HW120941  10.006   4.062  13.336
39703SOL    HW220942   9.909   4.103  13.445
39704SOL     OW20943  14.811   5.727  12.114
39704SOL    HW120944  14.828   5.681  12.031
39704SOL    HW220945  14.787   5.657  12.175
39705SOL     OW20946  10.711  10.761   5.072
39705SOL    HW120947  10.686  10.840   5.024
39705SOL    HW220948  10.628  10.718   5.092
39706SOL     OW20949  14.510   5.851  12.080
39706SOL    HW120950  14.430   5.877  12.127
39706SOL    HW220951  14.515   5.756  12.093
39707SOL     OW20952   0.629   4.044  13.385
39707SOL    HW120953   0.547   4.051  13.434
39707SOL    HW220954   0.635   3.951  13.362
39708SOL     OW20955   5.848  11.280  13.648
39708SOL    HW120956   5.904  11.338  13.597
39708SOL    HW220957   5.789  11.339  13.695
39709SOL     OW20958  11.834  12.250  10.144
39709SOL    HW120959  11.830  12.159  10.118
39709SOL    HW220960  11.842  12.247  10.240
39710SOL     OW20961   7.350  11.839  10.519
39710SOL    HW120962   7.409  11.898  10.472
39710SOL    HW220963   7.401  11.807  10.594
39711SOL     OW20964   8.865   5.218   6.420
39711SOL    HW120965   8.890   5.187   6.333
39711SOL    HW220966   8.808   5.293   6.403
39712SOL     OW20967   1.733   2.508   6.694
39712SOL    HW120968   1.755   2.601   6.690
39712SOL    HW220969   1.637   2.505   6.697
39713SOL     OW20970   9.293   2.387  10.373
39713SOL    HW120971   9.349   2.354  10.443
39713SOL    HW220972   9.237   2.452  10.415
39714SOL     OW20973  12.584   5.621  13.812
39714SOL    HW120974  12.591   5.712  13.838
39714SOL    HW220975  12.674   5.587  13.819
39715SOL     OW20976   1.257   0.804   7.509
39715SOL    HW120977   1.273   0.775   7.598
39715SOL    HW220978   1.211   0.888   7.519
39716SOL     OW20979  10.360   3.885  11.719
39716SOL    HW120980  10.435   3.830  11.695
39716SOL    HW220981  10.393   3.942  11.788
39717SOL     OW20982   8.721   8.342   2.201
39717SOL    HW120983   8.634   8.338   2.241
39717SOL    HW220984   8.724   8.267   2.142
39718SOL     OW20985   6.762   9.849   0.265
39718SOL    HW120986   6.779   9.910   0.337
39718SOL    HW220987   6.674   9.873   0.235
39719SOL     OW20988  13.029   6.368  13.470
39719SOL    HW120989  13.058   6.419  13.394
39719SOL    HW220990  13.095   6.384  13.537
39720SOL     OW20991   3.639  12.291  10.897
39720SOL    HW120992   3.643  12.346  10.819
39720SOL    HW220993   3.550  12.256  10.897
39721SOL     OW20994   9.756  11.450  13.966
39721SOL    HW120995   9.810  11.371  13.972
39721SOL    HW220996   9.685  11.436  14.028
39722SOL     OW20997   2.598   3.117  13.412
39722SOL    HW120998   2.525   3.055  13.402
39722SOL    HW220999   2.585   3.158  13.497
39723SOL     OW21000   7.761  11.926   3.454
39723SOL    HW121001   7.748  12.021   3.447
39723SOL    HW221002   7.687  11.895   3.506
39724SOL     OW21003   6.896   5.377   1.312
39724SOL    HW121004   6.960   5.382   1.241
39724SOL    HW221005   6.865   5.287   1.310
39725SOL     OW21006   8.504   2.673  13.982
39725SOL    HW121007   8.466   2.663  14.069
39725SOL    HW221008   8.575   2.609  13.979
39726SOL     OW21009   7.934   0.397   5.554
39726SOL    HW121010   7.886   0.407   5.636
39726SOL    HW221011   7.899   0.467   5.497
39727SOL     OW21012   2.472   2.531   8.761
39727SOL    HW121013   2.553   2.561   8.721
39727SOL    HW221014   2.473   2.436   8.750
39728SOL     OW21015   6.828   5.401   2.381
39728SOL    HW121016   6.853   5.388   2.473
39728SOL    HW221017   6.739   5.368   2.376
39729SOL     OW21018  14.435  10.361   5.434
39729SOL    HW121019  14.430  10.442   5.384
39729SOL    HW221020  14.404  10.293   5.375
39730SOL     OW21021   7.261  14.483   2.128
39730SOL    HW121022   7.263  14.579   2.120
39730SOL    HW221023   7.215  14.454   2.049
39731SOL     OW21024  10.068   8.984  11.742
39731SOL    HW121025  10.054   8.893  11.766
39731SOL    HW221026  10.159   9.002  11.764
39732SOL     OW21027   6.553  10.705  11.316
39732SOL    HW121028   6.642  10.740  11.310
39732SOL    HW221029   6.565  10.610  11.312
39733SOL     OW21030   4.050  11.667   8.139
39733SOL    HW121031   4.034  11.760   8.155
39733SOL    HW221032   3.985  11.621   8.192
39734SOL     OW21033  11.492   2.695   7.614
39734SOL    HW121034  11.585   2.671   7.621
39734SOL    HW221035  11.448   2.638   7.676
39735SOL     OW21036   4.958   6.326   0.405
39735SOL    HW121037   4.875   6.316   0.451
39735SOL    HW221038   4.940   6.393   0.338
39736SOL     OW21039   7.956  14.185   9.808
39736SOL    HW121040   7.916  14.107   9.769
39736SOL    HW221041   8.034  14.201   9.756
39737SOL     OW21042   6.116  12.620   3.265
39737SOL    HW121043   6.077  12.536   3.289
39737SOL    HW221044   6.082  12.682   3.330
39738SOL     OW21045  10.994  10.510   0.835
39738SOL    HW121046  11.000  10.417   0.855
39738SOL    HW221047  11.057  10.524   0.765
39739SOL     OW21048   3.569  12.881   4.589
39739SOL    HW121049   3.568  12.911   4.498
39739SOL    HW221050   3.616  12.798   4.586
39740SOL     OW21051  13.499  13.992  10.730
39740SOL    HW121052  13.476  14.080  10.762
39740SOL    HW221053  13.548  14.009  10.649
39741SOL     OW21054   6.657  11.461  11.935
39741SOL    HW121055   6.684  11.453  11.843
39741SOL    HW221056   6.737  11.447  11.985
39742SOL     OW21057   4.505   7.878   3.079
39742SOL    HW121058   4.472   7.789   3.067
39742SOL    HW221059   4.440   7.934   3.036
39743SOL     OW21060  13.272   7.501   2.831
39743SOL    HW121061  13.202   7.436   2.838
39743SOL    HW221062  13.350   7.455   2.860
39744SOL     OW21063   8.642  10.537  11.725
39744SOL    HW121064   8.640  10.630  11.702
39744SOL    HW221065   8.733  10.521  11.750
39745SOL     OW21066  12.381  12.309   7.918
39745SOL    HW121067  12.290  12.339   7.919
39745SOL    HW221068  12.428  12.377   7.869
39746SOL     OW21069   2.398   7.838  12.734
39746SOL    HW121070   2.419   7.820  12.825
39746SOL    HW221071   2.304   7.819  12.727
39747SOL     OW21072   3.880   6.228   7.454
39747SOL    HW121073   3.963   6.273   7.472
39747SOL    HW221074   3.835   6.285   7.392
39748SOL     OW21075   4.562  11.405   7.153
39748SOL    HW121076   4.521  11.367   7.231
39748SOL    HW221077   4.565  11.334   7.090
39749SOL     OW21078  10.891   1.142   1.284
39749SOL    HW121079  10.796   1.138   1.271
39749SOL    HW221080  10.921   1.052   1.274
39750SOL     OW21081   1.260   7.834  12.914
39750SOL    HW121082   1.263   7.757  12.859
39750SOL    HW221083   1.335   7.886  12.887
39751SOL     OW21084   7.529   5.329  13.532
39751SOL    HW121085   7.498   5.413  13.499
39751SOL    HW221086   7.624   5.339  13.538
39752SOL     OW21087  10.095  12.349   0.730
39752SOL    HW121088  10.137  12.307   0.655
39752SOL    HW221089  10.131  12.437   0.731
39753SOL     OW21090   1.237   4.939   2.093
39753SOL    HW121091   1.277   4.889   2.022
39753SOL    HW221092   1.250   5.030   2.068
39754SOL     OW21093   9.943   7.143   7.632
39754SOL    HW121094  10.002   7.166   7.704
39754SOL    HW221095   9.963   7.051   7.614
39755SOL     OW21096  11.822   6.117   9.395
39755SOL    HW121097  11.845   6.035   9.438
39755SOL    HW221098  11.843   6.103   9.303
39756SOL     OW21099  10.080  13.359  11.054
39756SOL    HW121100  10.108  13.377  10.964
39756SOL    HW221101  10.038  13.273  11.049
39757SOL     OW21102   0.973   9.705   0.192
39757SOL    HW121103   1.006   9.788   0.157
39757SOL    HW221104   0.914   9.672   0.124
39758SOL     OW21105   4.052   1.260   7.282
39758SOL    HW121106   4.099   1.238   7.363
39758SOL    HW221107   3.976   1.310   7.312
39759SOL     OW21108  13.455  10.286   9.998
39759SOL    HW121109  13.451  10.202  10.044
39759SOL    HW221110  13.473  10.263   9.907
39760SOL     OW21111   3.251  10.924  13.263
39760SOL    HW121112   3.206  10.904  13.345
39760SOL    HW221113   3.337  10.883  13.271
39761SOL     OW21114   3.329   2.765   1.565
39761SOL    HW121115   3.419   2.798   1.571
39761SOL    HW221116   3.298   2.797   1.480
39762SOL     OW21117   7.736   1.923   3.043
39762SOL    HW121118   7.801   1.886   2.984
39762SOL    HW221119   7.680   1.848   3.067
39763SOL     OW21120   6.909  12.460  12.794
39763SOL    HW121121   6.849  12.442  12.721
39763SOL    HW221122   6.941  12.373  12.820
39764SOL     OW21123  11.977   9.829   1.476
39764SOL    HW121124  12.048   9.775   1.510
39764SOL    HW221125  11.950   9.785   1.395
39765SOL     OW21126   3.214  14.556   9.121
39765SOL    HW121127   3.118  14.558   9.125
39765SOL    HW221128   3.234  14.511   9.039
39766SOL     OW21129  13.134   5.100   1.708
39766SOL    HW121130  13.226   5.094   1.732
39766SOL    HW221131  13.116   5.016   1.666
39767SOL     OW21132   2.209   3.789   6.083
39767SOL    HW121133   2.287   3.770   6.134
39767SOL    HW221134   2.196   3.712   6.028
39768SOL     OW21135   5.533   1.516   8.700
39768SOL    HW121136   5.609   1.472   8.738
39768SOL    HW221137   5.473   1.445   8.676
39769SOL     OW21138   7.102  14.590   6.260
39769SOL    HW121139   7.020  14.617   6.219
39769SOL    HW221140   7.125  14.662   6.318
39770SOL     OW21141  11.244  14.098   7.538
39770SOL    HW121142  11.328  14.094   7.584
39770SOL    HW221143  11.222  14.191   7.537
39771SOL     OW21144   3.158  10.777   9.916
39771SOL    HW121145   3.172  10.864   9.954
39771SOL    HW221146   3.114  10.727   9.985
39772SOL     OW21147   2.028   5.827  14.536
39772SOL    HW121148   1.950   5.803  14.587
39772SOL    HW221149   2.059   5.908  14.577
39773SOL     OW21150   7.918  14.098  13.922
39773SOL    HW121151   7.997  14.049  13.899
39773SOL    HW221152   7.950  14.174  13.971
39774SOL     OW21153  12.353   3.045   8.426
39774SOL    HW121154  12.310   3.100   8.491
39774SOL    HW221155  12.444   3.038   8.457
39775SOL     OW21156   9.227   9.715   4.146
39775SOL    HW121157   9.303   9.720   4.087
39775SOL    HW221158   9.160   9.766   4.102
39776SOL     OW21159   7.482   7.125  14.642
39776SOL    HW121160   7.466   7.100  14.551
39776SOL    HW221161   7.536   7.204  14.637
39777SOL     OW21162   1.941   2.951   6.775
39777SOL    HW121163   1.996   2.875   6.755
39777SOL    HW221164   1.997   3.026   6.758
39778SOL     OW21165  14.610  11.757   1.322
39778SOL    HW121166  14.597  11.670   1.361
39778SOL    HW221167  14.689  11.748   1.269
39779SOL     OW21168   0.806   1.749  12.110
39779SOL    HW121169   0.901   1.740  12.108
39779SOL    HW221170   0.790   1.839  12.137
39780SOL     OW21171   0.367   3.020  13.966
39780SOL    HW121172   0.360   2.925  13.953
39780SOL    HW221173   0.393   3.053  13.880
39781SOL     OW21174  14.160  11.174   4.592
39781SOL    HW121175  14.195  11.261   4.572
39781SOL    HW221176  14.157  11.129   4.508
39782SOL     OW21177   5.674   1.225   5.316
39782SOL    HW121178   5.755   1.276   5.327
39782SOL    HW221179   5.605   1.291   5.308
39783SOL     OW21180  14.158   6.384   0.910
39783SOL    HW121181  14.200   6.470   0.922
39783SOL    HW221182  14.193   6.352   0.827
39784SOL     OW21183   9.970  10.377  10.889
39784SOL    HW121184   9.949  10.419  10.805
39784SOL    HW221185   9.943  10.286  10.878
39785SOL     OW21186   0.476   7.049  10.161
39785SOL    HW121187   0.441   7.133  10.190
39785SOL    HW221188   0.425   6.984  10.209
39786SOL     OW21189   3.523   9.484  12.777
39786SOL    HW121190   3.447   9.454  12.728
39786SOL    HW221191   3.489   9.501  12.865
39787SOL     OW21192  12.545   0.068   7.254
39787SOL    HW121193  12.552   0.047   7.347
39787SOL    HW221194  12.635   0.059   7.221
39788SOL     OW21195   8.033   8.002   1.204
39788SOL    HW121196   7.972   8.024   1.134
39788SOL    HW221197   7.980   7.958   1.270
39789SOL     OW21198  11.130   4.937   0.776
39789SOL    HW121199  11.090   4.933   0.863
39789SOL    HW221200  11.159   5.027   0.767
39790SOL     OW21201   3.551  10.854   4.358
39790SOL    HW121202   3.597  10.905   4.425
39790SOL    HW221203   3.618  10.836   4.291
39791SOL     OW21204  11.584  10.340   4.001
39791SOL    HW121205  11.522  10.273   4.032
39791SOL    HW221206  11.670  10.299   4.013
39792SOL     OW21207   0.885   3.282   7.577
39792SOL    HW121208   0.878   3.194   7.612
39792SOL    HW221209   0.923   3.270   7.490
39793SOL     OW21210  11.608   2.059   0.141
39793SOL    HW121211  11.628   1.967   0.128
39793SOL    HW221212  11.618   2.073   0.235
39794SOL     OW21213   6.780   9.919   3.982
39794SOL    HW121214   6.756   9.932   4.074
39794SOL    HW221215   6.756   9.828   3.963
39795SOL     OW21216  13.561   4.507   8.019
39795SOL    HW121217  13.483   4.502   7.965
39795SOL    HW221218  13.586   4.416   8.035
39796SOL     OW21219   1.114  11.842   7.612
39796SOL    HW121220   1.026  11.834   7.648
39796SOL    HW221221   1.165  11.774   7.657
39797SOL     OW21222  13.853   3.179  12.076
39797SOL    HW121223  13.935   3.131  12.089
39797SOL    HW221224  13.859   3.211  11.986
39798SOL     OW21225  13.483   4.759  11.584
39798SOL    HW121226  13.558   4.740  11.527
39798SOL    HW221227  13.487   4.853  11.599
39799SOL     OW21228   3.592   5.093   0.609
39799SOL    HW121229   3.587   5.016   0.552
39799SOL    HW221230   3.553   5.163   0.557
39800SOL     OW21231   7.842   7.649   6.745
39800SOL    HW121232   7.753   7.619   6.730
39800SOL    HW221233   7.878   7.588   6.809
39801SOL     OW21234  11.782   2.644  14.687
39801SOL    HW121235  11.859   2.628  14.633
39801SOL    HW221236  11.751   2.730  14.660
39802SOL     OW21237   1.589   9.329  14.518
39802SOL    HW121238   1.598   9.242  14.479
39802SOL    HW221239   1.623   9.319  14.607
39803SOL     OW21240   6.255  12.203   9.002
39803SOL    HW121241   6.349  12.216   9.012
39803SOL    HW221242   6.239  12.215   8.908
39804SOL     OW21243   7.047  13.291   1.614
39804SOL    HW121244   7.120  13.353   1.614
39804SOL    HW221245   6.985  13.327   1.677
39805SOL     OW21246   2.267  12.182  11.353
39805SOL    HW121247   2.249  12.121  11.281
39805SOL    HW221248   2.350  12.223  11.329
39806SOL     OW21249  14.541  11.206  11.576
39806SOL    HW121250  14.553  11.290  11.621
39806SOL    HW221251  14.630  11.175  11.561
39807SOL     OW21252   2.932  14.679  10.836
39807SOL    HW121253   2.868  14.621  10.794
39807SOL    HW221254   2.900  14.767  10.817
39808SOL     OW21255   4.707   0.654  13.125
39808SOL    HW121256   4.720   0.715  13.197
39808SOL    HW221257   4.781   0.593  13.132
39809SOL     OW21258   7.708   4.122  14.487
39809SOL    HW121259   7.659   4.180  14.429
39809SOL    HW221260   7.756   4.181  14.546
39810SOL     OW21261   3.794   9.880   2.016
39810SOL    HW121262   3.786   9.812   2.083
39810SOL    HW221263   3.882   9.869   1.980
39811SOL     OW21264   4.769  14.699   1.011
39811SOL    HW121265   4.713  14.651   1.073
39811SOL    HW221266   4.746  14.664   0.925
39812SOL     OW21267  12.314   7.565   7.379
39812SOL    HW121268  12.360   7.640   7.415
39812SOL    HW221269  12.277   7.520   7.455
39813SOL     OW21270   7.342   0.719   0.687
39813SOL    HW121271   7.258   0.676   0.668
39813SOL    HW221272   7.391   0.713   0.605
39814SOL     OW21273   5.058   7.160   6.928
39814SOL    HW121274   5.135   7.175   6.873
39814SOL    HW221275   5.089   7.179   7.017
39815SOL     OW21276   4.261  12.170   1.762
39815SOL    HW121277   4.351  12.137   1.755
39815SOL    HW221278   4.264  12.230   1.837
39816SOL     OW21279  11.997   5.003  14.049
39816SOL    HW121280  12.072   5.053  14.081
39816SOL    HW221281  11.939   5.068  14.010
39817SOL     OW21282   1.323   2.998  12.681
39817SOL    HW121283   1.359   2.910  12.671
39817SOL    HW221284   1.387   3.044  12.735
39818SOL     OW21285   0.894   5.639   1.941
39818SOL    HW121286   0.978   5.676   1.968
39818SOL    HW221287   0.849   5.711   1.896
39819SOL     OW21288   0.964  14.020  11.412
39819SOL    HW121289   0.903  14.092  11.427
39819SOL    HW221290   0.920  13.943  11.449
39820SOL     OW21291  13.990  12.268   7.360
39820SOL    HW121292  14.016  12.205   7.293
39820SOL    HW221293  14.073  12.298   7.398
39821SOL     OW21294   7.439   4.902  10.645
39821SOL    HW121295   7.467   4.993  10.642
39821SOL    HW221296   7.506   4.858  10.698
39822SOL     OW21297   4.579   3.219   5.696
39822SOL    HW121298   4.547   3.147   5.640
39822SOL    HW221299   4.502   3.274   5.709
39823SOL     OW21300   3.276   2.126   6.826
39823SOL    HW121301   3.208   2.077   6.780
39823SOL    HW221302   3.333   2.159   6.756
39824SOL     OW21303   4.723   7.370   7.809
39824SOL    HW121304   4.672   7.450   7.823
39824SOL    HW221305   4.758   7.379   7.721
39825SOL     OW21306   9.079   1.638   9.726
39825SOL    HW121307   9.128   1.686   9.793
39825SOL    HW221308   9.125   1.657   9.645
39826SOL     OW21309   4.188  12.608   3.795
39826SOL    HW121310   4.198  12.640   3.885
39826SOL    HW221311   4.136  12.528   3.804
39827SOL     OW21312   4.647   1.690   9.757
39827SOL    HW121313   4.590   1.624   9.718
39827SOL    HW221314   4.723   1.641   9.788
39828SOL     OW21315  14.275  10.374   9.157
39828SOL    HW121316  14.292  10.284   9.129
39828SOL    HW221317  14.327  10.385   9.236
39829SOL     OW21318   7.134   3.575   4.170
39829SOL    HW121319   7.132   3.659   4.215
39829SOL    HW221320   7.182   3.517   4.229
39830SOL     OW21321   7.813  10.852  14.396
39830SOL    HW121322   7.851  10.870  14.310
39830SOL    HW221323   7.874  10.892  14.458
39831SOL     OW21324   0.169  13.791   1.374
39831SOL    HW121325   0.177  13.798   1.279
39831SOL    HW221326   0.150  13.698   1.390
39832SOL     OW21327   7.477  10.485   4.884
39832SOL    HW121328   7.430  10.500   4.802
39832SOL    HW221329   7.527  10.565   4.899
39833SOL     OW21330   3.511  12.079  11.541
39833SOL    HW121331   3.447  12.034  11.486
39833SOL    HW221332   3.515  12.168  11.505
39834SOL     OW21333   9.819   4.310   5.894
39834SOL    HW121334   9.880   4.357   5.952
39834SOL    HW221335   9.784   4.240   5.948
39835SOL     OW21336   0.189   4.705  13.082
39835SOL    HW121337   0.172   4.698  12.988
39835SOL    HW221338   0.272   4.659  13.095
39836SOL     OW21339  12.668  12.052   3.032
39836SOL    HW121340  12.692  12.035   3.123
39836SOL    HW221341  12.744  12.025   2.981
39837SOL     OW21342  14.821   7.817   2.610
39837SOL    HW121343   0.027   7.825   2.562
39837SOL    HW221344  14.847   7.817   2.703
39838SOL     OW21345   5.620  10.884   7.698
39838SOL    HW121346   5.622  10.830   7.777
39838SOL    HW221347   5.710  10.882   7.665
39839SOL     OW21348   9.514   4.602   7.311
39839SOL    HW121349   9.517   4.549   7.390
39839SOL    HW221350   9.425   4.589   7.277
39840SOL     OW21351   7.510  11.299   3.379
39840SOL    HW121352   7.425  11.257   3.364
39840SOL    HW221353   7.532  11.339   3.295
39841SOL     OW21354  11.528  14.296   5.813
39841SOL    HW121355  11.563  14.208   5.801
39841SOL    HW221356  11.536  14.312   5.907
39842SOL     OW21357   7.983  11.557   3.488
39842SOL    HW121358   7.963  11.509   3.568
39842SOL    HW221359   7.948  11.502   3.418
39843SOL     OW21360   8.844   1.328   2.537
39843SOL    HW121361   8.904   1.342   2.464
39843SOL    HW221362   8.758   1.348   2.501
39844SOL     OW21363   2.382   2.339   6.113
39844SOL    HW121364   2.391   2.411   6.175
39844SOL    HW221365   2.470   2.325   6.078
39845SOL     OW21366  13.305   0.697   4.592
39845SOL    HW121367  13.397   0.674   4.587
39845SOL    HW221368  13.279   0.714   4.501
39846SOL     OW21369  12.705  13.269   5.310
39846SOL    HW121370  12.787  13.312   5.284
39846SOL    HW221371  12.723  13.237   5.399
39847SOL     OW21372  12.376   1.076  14.004
39847SOL    HW121373  12.296   1.041  14.043
39847SOL    HW221374  12.445   1.055  14.067
39848SOL     OW21375   7.241   7.686  12.285
39848SOL    HW121376   7.228   7.780  12.298
39848SOL    HW221377   7.154   7.652  12.268
39849SOL     OW21378   3.002   9.969   5.758
39849SOL    HW121379   2.953   9.936   5.833
39849SOL    HW221380   2.993  10.064   5.764
39850SOL     OW21381   4.497   8.929  11.840
39850SOL    HW121382   4.477   8.847  11.797
39850SOL    HW221383   4.517   8.905  11.931
39851SOL     OW21384   4.210   1.233   7.504
39851SOL    HW121385   4.180   1.216   7.593
39851SOL    HW221386   4.302   1.257   7.513
39852SOL     OW21387  10.805   6.686   1.922
39852SOL    HW121388  10.803   6.781   1.916
39852SOL    HW221389  10.790   6.668   2.015
39853SOL     OW21390   2.712   5.974   1.491
39853SOL    HW121391   2.696   5.986   1.398
39853SOL    HW221392   2.702   6.061   1.530
39854SOL     OW21393  13.630  13.560   2.378
39854SOL    HW121394  13.590  13.474   2.393
39854SOL    HW221395  13.677  13.579   2.460
39855SOL     OW21396   4.185  10.582  10.010
39855SOL    HW121397   4.244  10.529  10.063
39855SOL    HW221398   4.098  10.567  10.047
39856SOL     OW21399   9.183   6.769  12.147
39856SOL    HW121400   9.232   6.851  12.150
39856SOL    HW221401   9.179   6.747  12.054
39857SOL     OW21402   4.706   5.665   9.740
39857SOL    HW121403   4.729   5.614   9.818
39857SOL    HW221404   4.779   5.726   9.729
39858SOL     OW21405  13.269  13.548  12.903
39858SOL    HW121406  13.279  13.603  12.825
39858SOL    HW221407  13.261  13.459  12.868
39859SOL     OW21408  13.931   4.286   0.501
39859SOL    HW121409  13.895   4.335   0.427
39859SOL    HW221410  13.904   4.335   0.578
39860SOL     OW21411   6.086   8.598   2.843
39860SOL    HW121412   6.004   8.581   2.890
39860SOL    HW221413   6.085   8.692   2.825
39861SOL     OW21414   0.761  11.828   1.656
39861SOL    HW121415   0.825  11.756   1.654
39861SOL    HW221416   0.736  11.834   1.748
39862SOL     OW21417   8.944  10.040   6.390
39862SOL    HW121418   8.855  10.023   6.419
39862SOL    HW221419   8.934  10.091   6.309
39863SOL     OW21420   1.588  12.332   2.475
39863SOL    HW121421   1.555  12.268   2.411
39863SOL    HW221422   1.683  12.327   2.467
39864SOL     OW21423   5.024   9.170   8.358
39864SOL    HW121424   5.027   9.234   8.430
39864SOL    HW221425   5.015   9.086   8.402
39865SOL     OW21426  10.870   0.916  11.862
39865SOL    HW121427  10.813   0.917  11.785
39865SOL    HW221428  10.813   0.943  11.934
39866SOL     OW21429   3.625  11.443  10.453
39866SOL    HW121430   3.579  11.527  10.453
39866SOL    HW221431   3.561  11.381  10.488
39867SOL     OW21432  10.438   9.850  14.040
39867SOL    HW121433  10.446   9.776  14.100
39867SOL    HW221434  10.529   9.873  14.019
39868SOL     OW21435   2.503   3.363  14.138
39868SOL    HW121436   2.428   3.312  14.168
39868SOL    HW221437   2.528   3.416  14.214
39869SOL     OW21438  12.048   9.031  13.217
39869SOL    HW121439  11.989   9.043  13.291
39869SOL    HW221440  11.989   9.022  13.141
39870SOL     OW21441   9.499   5.732   9.363
39870SOL    HW121442   9.524   5.808   9.416
39870SOL    HW221443   9.410   5.712   9.391
39871SOL     OW21444  11.048   7.393  10.446
39871SOL    HW121445  10.968   7.419  10.491
39871SOL    HW221446  11.056   7.454  10.372
39872SOL     OW21447  13.791   8.059   6.039
39872SOL    HW121448  13.719   8.092   6.093
39872SOL    HW221449  13.754   7.985   5.992
39873SOL     OW21450  13.325   0.401   6.839
39873SOL    HW121451  13.263   0.460   6.797
39873SOL    HW221452  13.410   0.427   6.803
39874SOL     OW21453   9.869   1.183  12.383
39874SOL    HW121454   9.793   1.126  12.395
39874SOL    HW221455   9.926   1.137  12.322
39875SOL     OW21456   3.554  14.229  12.340
39875SOL    HW121457   3.608  14.169  12.392
39875SOL    HW221458   3.478  14.176  12.314
39876SOL     OW21459  13.636  12.791   4.613
39876SOL    HW121460  13.701  12.854   4.580
39876SOL    HW221461  13.687  12.728   4.664
39877SOL     OW21462   9.613   1.709   5.188
39877SOL    HW121463   9.548   1.645   5.157
39877SOL    HW221464   9.669   1.659   5.247
39878SOL     OW21465   9.298   3.992   1.227
39878SOL    HW121466   9.281   3.942   1.307
39878SOL    HW221467   9.320   4.080   1.259
39879SOL     OW21468   0.916   9.186   2.683
39879SOL    HW121469   0.858   9.209   2.610
39879SOL    HW221470   0.917   9.263   2.739
39880SOL     OW21471   8.162   6.467   9.299
39880SOL    HW121472   8.174   6.562   9.301
39880SOL    HW221473   8.104   6.448   9.372
39881SOL     OW21474   2.136  14.000   7.335
39881SOL    HW121475   2.104  13.978   7.248
39881SOL    HW221476   2.231  14.005   7.325
39882SOL     OW21477   6.294   4.823   7.897
39882SOL    HW121478   6.287   4.899   7.955
39882SOL    HW221479   6.380   4.785   7.918
39883SOL     OW21480   9.770   9.342   3.222
39883SOL    HW121481   9.799   9.345   3.131
39883SOL    HW221482   9.678   9.367   3.219
39884SOL     OW21483   8.724   7.613   5.771
39884SOL    HW121484   8.680   7.530   5.789
39884SOL    HW221485   8.789   7.622   5.841
39885SOL     OW21486   1.837   7.561   3.849
39885SOL    HW121487   1.879   7.582   3.933
39885SOL    HW221488   1.777   7.634   3.833
39886SOL     OW21489  10.695   4.138   7.066
39886SOL    HW121490  10.670   4.082   7.139
39886SOL    HW221491  10.674   4.087   6.988
39887SOL     OW21492   2.815   4.935  14.163
39887SOL    HW121493   2.848   4.845  14.161
39887SOL    HW221494   2.723   4.926  14.189
39888SOL     OW21495   1.921  14.287  14.486
39888SOL    HW121496   1.943  14.193  14.484
39888SOL    HW221497   1.897  14.307  14.395
39889SOL     OW21498   3.007  12.247  14.411
39889SOL    HW121499   3.062  12.237  14.334
39889SOL    HW221500   3.002  12.342  14.425
39890SOL     OW21501   8.885   8.622   7.502
39890SOL    HW121502   8.873   8.646   7.594
39890SOL    HW221503   8.954   8.556   7.504
39891SOL     OW21504   5.508   9.043   7.230
39891SOL    HW121505   5.490   8.971   7.291
39891SOL    HW221506   5.590   9.018   7.188
39892SOL     OW21507   5.272   6.242  11.527
39892SOL    HW121508   5.260   6.195  11.610
39892SOL    HW221509   5.322   6.183  11.472
39893SOL     OW21510   5.654   4.073   6.014
39893SOL    HW121511   5.747   4.050   6.019
39893SOL    HW221512   5.611   4.014   6.077
39894SOL     OW21513   7.087   5.615   2.913
39894SOL    HW121514   7.163   5.606   2.970
39894SOL    HW221515   7.112   5.570   2.832
39895SOL     OW21516   2.822  13.851  14.851
39895SOL    HW121517   2.864  13.934  14.873
39895SOL    HW221518   2.831  13.844  14.756
39896SOL     OW21519   7.380   0.762   4.380
39896SOL    HW121520   7.457   0.750   4.437
39896SOL    HW221521   7.401   0.712   4.301
39897SOL     OW21522   3.923   8.621   0.911
39897SOL    HW121523   4.003   8.598   0.864
39897SOL    HW221524   3.930   8.576   0.995
39898SOL     OW21525   6.962   6.207   9.692
39898SOL    HW121526   6.944   6.180   9.602
39898SOL    HW221527   6.956   6.303   9.689
39899SOL     OW21528   6.714  12.774   1.412
39899SOL    HW121529   6.780  12.746   1.349
39899SOL    HW221530   6.753  12.850   1.456
39900SOL     OW21531   1.339   2.206   1.856
39900SOL    HW121532   1.254   2.186   1.816
39900SOL    HW221533   1.390   2.125   1.845
39901SOL     OW21534   7.565  14.162   9.773
39901SOL    HW121535   7.602  14.120   9.851
39901SOL    HW221536   7.619  14.239   9.759
39902SOL     OW21537   4.394   2.556   2.139
39902SOL    HW121538   4.364   2.470   2.112
39902SOL    HW221539   4.461   2.580   2.075
39903SOL     OW21540   2.930   7.687   2.020
39903SOL    HW121541   2.848   7.637   2.020
39903SOL    HW221542   2.969   7.669   2.105
39904SOL     OW21543  13.261  13.275  14.024
39904SOL    HW121544  13.346  13.298  13.985
39904SOL    HW221545  13.263  13.315  14.111
39905SOL     OW21546   4.765   6.570   7.413
39905SOL    HW121547   4.839   6.592   7.470
39905SOL    HW221548   4.771   6.634   7.342
39906SOL     OW21549   9.418  10.867  11.124
39906SOL    HW121550   9.447  10.776  11.122
39906SOL    HW221551   9.494  10.917  11.097
39907SOL     OW21552   8.407   4.628   4.956
39907SOL    HW121553   8.387   4.578   4.877
39907SOL    HW221554   8.493   4.666   4.940
39908SOL     OW21555  10.212  11.319  12.514
39908SOL    HW121556  10.141  11.260  12.489
39908SOL    HW221557  10.186  11.353  12.599
39909SOL     OW21558   0.766  12.272   9.480
39909SOL    HW121559   0.723  12.274   9.565
39909SOL    HW221560   0.790  12.363   9.463
39910SOL     OW21561   4.362   9.702   8.831
39910SOL    HW121562   4.307   9.639   8.785
39910SOL    HW221563   4.343   9.685   8.924
39911SOL     OW21564   3.685   4.165  12.128
39911SOL    HW121565   3.601   4.166  12.173
39911SOL    HW221566   3.665   4.190  12.038
39912SOL     OW21567   8.313   8.834   5.338
39912SOL    HW121568   8.321   8.915   5.388
39912SOL    HW221569   8.223   8.834   5.307
39913SOL     OW21570   0.901  11.244   9.084
39913SOL    HW121571   0.958  11.306   9.039
39913SOL    HW221572   0.817  11.290   9.092
39914SOL     OW21573   0.864   4.738   9.348
39914SOL    HW121574   0.859   4.655   9.302
39914SOL    HW221575   0.933   4.727   9.413
39915SOL     OW21576   5.287   9.905  14.861
39915SOL    HW121577   5.317   9.957  14.786
39915SOL    HW221578   5.223   9.845  14.825
39916SOL     OW21579   8.170  13.501   1.487
39916SOL    HW121580   8.186  13.434   1.554
39916SOL    HW221581   8.111  13.564   1.529
39917SOL     OW21582   4.002   5.117   1.985
39917SOL    HW121583   3.923   5.171   1.989
39917SOL    HW221584   3.990   5.051   2.053
39918SOL     OW21585   1.402  12.787   1.473
39918SOL    HW121586   1.365  12.726   1.409
39918SOL    HW221587   1.474  12.739   1.514
39919SOL     OW21588   7.790   7.714   4.783
39919SOL    HW121589   7.850   7.639   4.771
39919SOL    HW221590   7.728   7.685   4.849
39920SOL     OW21591  11.761   3.556   4.697
39920SOL    HW121592  11.786   3.479   4.646
39920SOL    HW221593  11.831   3.566   4.761
39921SOL     OW21594   7.653   7.784   3.477
39921SOL    HW121595   7.659   7.791   3.381
39921SOL    HW221596   7.596   7.857   3.502
39922SOL     OW21597   4.123  13.756  14.804
39922SOL    HW121598   4.079  13.675  14.778
39922SOL    HW221599   4.109  13.762   0.023
39923SOL     OW21600  10.776   5.492   6.519
39923SOL    HW121601  10.744   5.519   6.605
39923SOL    HW221602  10.780   5.396   6.524
39924SOL     OW21603  10.614   0.481   2.793
39924SOL    HW121604  10.691   0.442   2.750
39924SOL    HW221605  10.650   0.552   2.846
39925SOL     OW21606   8.468  11.233  14.236
39925SOL    HW121607   8.499  11.189  14.157
39925SOL    HW221608   8.546  11.275  14.273
39926SOL     OW21609   5.003  11.010  12.918
39926SOL    HW121610   4.910  11.023  12.936
39926SOL    HW221611   5.013  11.025  12.824
39927SOL     OW21612  12.865  14.449   9.485
39927SOL    HW121613  12.799  14.384   9.509
39927SOL    HW221614  12.870  14.444   9.390
39928SOL     OW21615   1.904   7.233  10.253
39928SOL    HW121616   1.996   7.261  10.257
39928SOL    HW221617   1.908   7.143  10.221
39929SOL     OW21618   5.100  12.976  14.848
39929SOL    HW121619   5.135  12.956  14.761
39929SOL    HW221620   5.050  13.057  14.836
39930SOL     OW21621   8.025   1.337  10.430
39930SOL    HW121622   7.978   1.254  10.417
39930SOL    HW221623   7.963   1.404  10.402
39931SOL     OW21624   2.898   6.065   1.998
39931SOL    HW121625   2.846   6.109   1.931
39931SOL    HW221626   2.988   6.068   1.965
39932SOL     OW21627   5.952  12.155  12.497
39932SOL    HW121628   6.009  12.228  12.471
39932SOL    HW221629   5.943  12.102  12.418
39933SOL     OW21630   3.217   4.685   7.085
39933SOL    HW121631   3.304   4.677   7.047
39933SOL    HW221632   3.204   4.603   7.133
39934SOL     OW21633  11.486  11.903   4.865
39934SOL    HW121634  11.557  11.964   4.845
39934SOL    HW221635  11.501  11.829   4.807
39935SOL     OW21636   4.436   6.455   8.761
39935SOL    HW121637   4.417   6.362   8.768
39935SOL    HW221638   4.492   6.462   8.683
39936SOL     OW21639  12.153  11.551  10.786
39936SOL    HW121640  12.165  11.516  10.875
39936SOL    HW221641  12.122  11.640  10.800
39937SOL     OW21642   3.855  14.740   6.368
39937SOL    HW121643   3.765  14.721   6.395
39937SOL    HW221644   3.897  14.770   6.449
39938SOL     OW21645   6.182   8.957   9.775
39938SOL    HW121646   6.204   9.045   9.807
39938SOL    HW221647   6.237   8.946   9.697
39939SOL     OW21648   4.214   3.330   8.383
39939SOL    HW121649   4.278   3.335   8.312
39939SOL    HW221650   4.202   3.420   8.411
39940SOL     OW21651   0.006   5.331  13.685
39940SOL    HW121652   0.082   5.303  13.635
39940SOL    HW221653  14.860   5.256  13.741
39941SOL     OW21654  12.256   6.749   2.569
39941SOL    HW121655  12.219   6.793   2.492
39941SOL    HW221656  12.203   6.670   2.579
39942SOL     OW21657   8.289   3.527  10.893
39942SOL    HW121658   8.231   3.585  10.844
39942SOL    HW221659   8.303   3.452  10.835
39943SOL     OW21660   4.600   5.576  10.709
39943SOL    HW121661   4.676   5.532  10.671
39943SOL    HW221662   4.635   5.658  10.744
39944SOL     OW21663   1.627  12.458   3.956
39944SOL    HW121664   1.652  12.506   4.035
39944SOL    HW221665   1.610  12.369   3.987
39945SOL     OW21666   5.899  11.620   9.453
39945SOL    HW121667   5.986  11.583   9.440
39945SOL    HW221668   5.896  11.696   9.394
39946SOL     OW21669   8.017   9.030   9.709
39946SOL    HW121670   8.045   9.043   9.619
39946SOL    HW221671   7.926   9.061   9.710
39947SOL     OW21672  12.653  11.177   2.963
39947SOL    HW121673  12.601  11.097   2.959
39947SOL    HW221674  12.590  11.246   2.983
39948SOL     OW21675   2.849   3.378  13.464
39948SOL    HW121676   2.769   3.355  13.512
39948SOL    HW221677   2.817   3.421  13.385
39949SOL     OW21678   9.267  11.272   2.863
39949SOL    HW121679   9.346  11.317   2.833
39949SOL    HW221680   9.196  11.314   2.814
39950SOL     OW21681   3.894  13.109   8.936
39950SOL    HW121682   3.850  13.064   9.008
39950SOL    HW221683   3.894  13.045   8.864
39951SOL     OW21684   1.683  14.786   7.551
39951SOL    HW121685   1.589  14.769   7.563
39951SOL    HW221686   1.720  14.700   7.531
39952SOL     OW21687   4.723   9.828   0.511
39952SOL    HW121688   4.705   9.884   0.435
39952SOL    HW221689   4.813   9.799   0.499
39953SOL     OW21690   4.138   3.437  13.644
39953SOL    HW121691   4.148   3.380  13.721
39953SOL    HW221692   4.200   3.402  13.581
39954SOL     OW21693   4.610   3.368   2.519
39954SOL    HW121694   4.543   3.421   2.476
39954SOL    HW221695   4.688   3.380   2.466
39955SOL     OW21696  10.700   6.300   8.900
39955SOL    HW121697  10.644   6.242   8.848
39955SOL    HW221698  10.704   6.259   8.986
39956SOL     OW21699   4.318   2.215   7.095
39956SOL    HW121700   4.383   2.264   7.046
39956SOL    HW221701   4.340   2.123   7.079
39957SOL     OW21702   6.406   6.624  13.104
39957SOL    HW121703   6.317   6.655  13.088
39957SOL    HW221704   6.405   6.532  13.076
39958SOL     OW21705   7.620  12.204  14.795
39958SOL    HW121706   7.526  12.189  14.804
39958SOL    HW221707   7.660  12.121  14.818
39959SOL     OW21708   9.822  13.607   9.249
39959SOL    HW121709   9.816  13.576   9.339
39959SOL    HW221710   9.764  13.683   9.245
39960SOL     OW21711   7.769   5.319   5.940
39960SOL    HW121712   7.794   5.397   5.890
39960SOL    HW221713   7.744   5.353   6.026
39961SOL     OW21714   7.244  10.614   3.293
39961SOL    HW121715   7.200  10.590   3.212
39961SOL    HW221716   7.267  10.530   3.333
39962SOL     OW21717  11.876   4.156   2.246
39962SOL    HW121718  11.903   4.234   2.196
39962SOL    HW221719  11.954   4.101   2.248
39963SOL     OW21720   0.151   3.652   0.810
39963SOL    HW121721   0.068   3.697   0.828
39963SOL    HW221722   0.216   3.704   0.856
39964SOL     OW21723   1.996   9.694   1.260
39964SOL    HW121724   1.979   9.680   1.353
39964SOL    HW221725   1.938   9.633   1.215
39965SOL     OW21726   0.642   4.732  12.895
39965SOL    HW121727   0.731   4.755  12.921
39965SOL    HW221728   0.651   4.692  12.808
39966SOL     OW21729   9.510   1.000  14.815
39966SOL    HW121730   9.497   1.095  14.813
39966SOL    HW221731   9.594   0.988  14.859
39967SOL     OW21732   9.090   2.240   0.727
39967SOL    HW121733   9.162   2.194   0.770
39967SOL    HW221734   9.078   2.320   0.779
39968SOL     OW21735   8.713  12.783  10.795
39968SOL    HW121736   8.744  12.828  10.716
39968SOL    HW221737   8.759  12.828  10.867
39969SOL     OW21738   5.043   9.658   3.610
39969SOL    HW121739   5.134   9.686   3.616
39969SOL    HW221740   5.009   9.668   3.699
39970SOL     OW21741   2.852   3.338   7.276
39970SOL    HW121742   2.829   3.328   7.369
39970SOL    HW221743   2.769   3.360   7.234
39971SOL     OW21744  11.279  11.960  12.281
39971SOL    HW121745  11.294  11.928  12.192
39971SOL    HW221746  11.320  12.046  12.282
39972SOL     OW21747   1.038   5.564  14.424
39972SOL    HW121748   1.022   5.616  14.346
39972SOL    HW221749   1.116   5.514  14.404
39973SOL     OW21750   0.515   5.270  11.964
39973SOL    HW121751   0.499   5.176  11.951
39973SOL    HW221752   0.458   5.294  12.037
39974SOL     OW21753   7.280   8.837   2.786
39974SOL    HW121754   7.260   8.872   2.873
39974SOL    HW221755   7.349   8.772   2.802
39975SOL     OW21756   0.934  12.163   9.173
39975SOL    HW121757   0.849  12.140   9.212
39975SOL    HW221758   0.963  12.239   9.223
39976SOL     OW21759  12.204   7.923   5.425
39976SOL    HW121760  12.159   7.896   5.505
39976SOL    HW221761  12.203   8.019   5.428
39977SOL     OW21762   7.600   3.937  11.146
39977SOL    HW121763   7.553   4.018  11.126
39977SOL    HW221764   7.540   3.887  11.200
39978SOL     OW21765   2.224   5.998   9.209
39978SOL    HW121766   2.215   6.093   9.208
39978SOL    HW221767   2.155   5.966   9.151
39979SOL     OW21768  12.057   6.712  12.023
39979SOL    HW121769  12.077   6.803  12.044
39979SOL    HW221770  11.982   6.716  11.964
39980SOL     OW21771   0.919   4.878   0.198
39980SOL    HW121772   0.890   4.875   0.289
39980SOL    HW221773   0.841   4.860   0.146
39981SOL     OW21774  10.319   9.961   6.127
39981SOL    HW121775  10.227   9.952   6.103
39981SOL    HW221776  10.323   9.937   6.219
39982SOL     OW21777  10.956   0.023   0.447
39982SOL    HW121778  10.963   0.073   0.528
39982SOL    HW221779  10.901   0.076   0.390
39983SOL     OW21780   3.818   7.772  13.581
39983SOL    HW121781   3.818   7.692  13.529
39983SOL    HW221782   3.740   7.819  13.552
39984SOL     OW21783   2.077   5.624   2.207
39984SOL    HW121784   2.107   5.571   2.280
39984SOL    HW221785   2.156   5.663   2.171
39985SOL     OW21786   7.662   2.871   5.512
39985SOL    HW121787   7.677   2.890   5.419
39985SOL    HW221788   7.748   2.848   5.546
39986SOL     OW21789   6.522   0.099  13.189
39986SOL    HW121790   6.466   0.043  13.135
39986SOL    HW221791   6.501   0.075  13.279
39987SOL     OW21792   4.581   8.797   7.446
39987SOL    HW121793   4.545   8.886   7.449
39987SOL    HW221794   4.670   8.806   7.479
39988SOL     OW21795  11.141   0.967  11.388
39988SOL    HW121796  11.145   0.872  11.385
39988SOL    HW221797  11.096   0.992  11.307
39989SOL     OW21798   5.978   7.143   6.153
39989SOL    HW121799   5.957   7.195   6.076
39989SOL    HW221800   6.062   7.101   6.132
39990SOL     OW21801   1.396   3.971   2.853
39990SOL    HW121802   1.350   3.888   2.839
39990SOL    HW221803   1.356   4.008   2.931
39991SOL     OW21804   3.808  12.134   7.116
39991SOL    HW121805   3.736  12.193   7.138
39991SOL    HW221806   3.765  12.053   7.087
39992SOL     OW21807   8.745  14.165   9.977
39992SOL    HW121808   8.659  14.123   9.988
39992SOL    HW221809   8.803  14.115  10.035
39993SOL     OW21810   0.834  12.499   4.386
39993SOL    HW121811   0.747  12.463   4.365
39993SOL    HW221812   0.895  12.429   4.362
39994SOL     OW21813   6.361  12.208  13.258
39994SOL    HW121814   6.455  12.197  13.273
39994SOL    HW221815   6.335  12.276  13.320
39995SOL     OW21816   8.061  14.078  12.669
39995SOL    HW121817   7.979  14.046  12.632
39995SOL    HW221818   8.054  14.174  12.663
39996SOL     OW21819   4.838   6.541   3.519
39996SOL    HW121820   4.822   6.509   3.608
39996SOL    HW221821   4.781   6.487   3.464
39997SOL     OW21822   0.342  10.763  13.794
39997SOL    HW121823   0.268  10.815  13.826
39997SOL    HW221824   0.419  10.815  13.816
39998SOL     OW21825   4.226  11.071   2.046
39998SOL    HW121826   4.135  11.100   2.050
39998SOL    HW221827   4.271  11.119   2.115
39999SOL     OW21828   4.122   8.973   3.983
39999SOL    HW121829   4.049   9.023   4.020
39999SOL    HW221830   4.152   9.027   3.910
40000SOL     OW21831   5.927   1.667   1.056
40000SOL    HW121832   5.847   1.703   1.019
40000SOL    HW221833   5.997   1.709   1.006
40001SOL     OW21834  11.634   6.133  11.250
40001SOL    HW121835  11.558   6.148  11.195
40001SOL    HW221836  11.624   6.043  11.282
40002SOL     OW21837   3.525   8.330   5.522
40002SOL    HW121838   3.571   8.340   5.439
40002SOL    HW221839   3.529   8.236   5.541
40003SOL     OW21840   1.134  11.715  13.672
40003SOL    HW121841   1.204  11.661  13.710
40003SOL    HW221842   1.128  11.686  13.581
40004SOL     OW21843  12.877   6.504   0.463
40004SOL    HW121844  12.917   6.582   0.502
40004SOL    HW221845  12.880   6.520   0.369
40005SOL     OW21846   5.403  13.701   1.017
40005SOL    HW121847   5.494  13.728   1.004
40005SOL    HW221848   5.384  13.643   0.942
40006SOL     OW21849   0.273   5.875  14.868
40006SOL    HW121850   0.321   5.867   0.075
40006SOL    HW221851   0.201   5.934   0.012
40007SOL     OW21852  10.069   8.889   3.746
40007SOL    HW121853  10.142   8.853   3.796
40007SOL    HW221854  10.110   8.938   3.675
40008SOL     OW21855   4.896  12.569   1.643
40008SOL    HW121856   4.945  12.589   1.564
40008SOL    HW221857   4.911  12.644   1.700
40009SOL     OW21858   8.676   7.199  12.606
40009SOL    HW121859   8.589   7.175  12.638
40009SOL    HW221860   8.682   7.294  12.619
40010SOL     OW21861   5.277  12.874   2.592
40010SOL    HW121862   5.225  12.802   2.626
40010SOL    HW221863   5.216  12.927   2.542
40011SOL     OW21864  10.060  13.740   1.763
40011SOL    HW121865  10.121  13.745   1.690
40011SOL    HW221866  10.116  13.736   1.841
40012SOL     OW21867   6.367   4.801   8.829
40012SOL    HW121868   6.447   4.827   8.783
40012SOL    HW221869   6.314   4.757   8.763
40013SOL     OW21870   7.672   3.776   5.708
40013SOL    HW121871   7.715   3.785   5.623
40013SOL    HW221872   7.612   3.850   5.712
40014SOL     OW21873   8.836   0.966  13.067
40014SOL    HW121874   8.879   0.900  13.121
40014SOL    HW221875   8.849   0.936  12.977
40015SOL     OW21876   8.562   3.627  11.874
40015SOL    HW121877   8.654   3.612  11.855
40015SOL    HW221878   8.518   3.620  11.789
40016SOL     OW21879   5.219  13.457   8.218
40016SOL    HW121880   5.200  13.369   8.252
40016SOL    HW221881   5.175  13.460   8.133
40017SOL     OW21882  14.794   5.207  13.396
40017SOL    HW121883  14.719   5.240  13.445
40017SOL    HW221884  14.825   5.282  13.345
40018SOL     OW21885  12.417  13.923   9.846
40018SOL    HW121886  12.465  13.842   9.867
40018SOL    HW221887  12.461  13.990   9.898
40019SOL     OW21888  13.773   4.662  12.286
40019SOL    HW121889  13.680   4.669  12.309
40019SOL    HW221890  13.788   4.735  12.226
40020SOL     OW21891  14.527  13.167   8.721
40020SOL    HW121892  14.531  13.144   8.814
40020SOL    HW221893  14.572  13.094   8.677
40021SOL     OW21894  12.004   6.112  12.254
40021SOL    HW121895  12.014   6.082  12.163
40021SOL    HW221896  11.914   6.089  12.277
40022SOL     OW21897   6.182  14.306   9.162
40022SOL    HW121898   6.256  14.268   9.209
40022SOL    HW221899   6.159  14.384   9.213
40023SOL     OW21900   5.266   3.994   2.390
40023SOL    HW121901   5.282   3.957   2.477
40023SOL    HW221902   5.245   3.919   2.335
40024SOL     OW21903  14.789  10.066   9.535
40024SOL    HW121904  14.744  10.150   9.526
40024SOL    HW221905  14.845  10.060   9.458
40025SOL     OW21906   0.940   1.113  12.099
40025SOL    HW121907   0.967   1.029  12.060
40025SOL    HW221908   0.879   1.150  12.035
40026SOL     OW21909   2.876  12.730   8.811
40026SOL    HW121910   2.782  12.718   8.823
40026SOL    HW221911   2.916  12.651   8.848
40027SOL     OW21912  10.683   1.571   5.401
40027SOL    HW121913  10.622   1.501   5.378
40027SOL    HW221914  10.650   1.605   5.485
40028SOL     OW21915   9.953   6.061   9.489
40028SOL    HW121916  10.033   6.084   9.537
40028SOL    HW221917   9.939   6.135   9.430
40029SOL     OW21918   9.419  12.501   8.650
40029SOL    HW121919   9.444  12.488   8.741
40029SOL    HW221920   9.342  12.445   8.638
40030SOL     OW21921  10.294   4.473   0.199
40030SOL    HW121922  10.388   4.489   0.207
40030SOL    HW221923  10.261   4.479   0.288
40031SOL     OW21924   7.257   2.981   3.279
40031SOL    HW121925   7.320   3.045   3.244
40031SOL    HW221926   7.249   3.004   3.372
40032SOL     OW21927  13.253  10.665   4.056
40032SOL    HW121928  13.203  10.635   3.980
40032SOL    HW221929  13.345  10.658   4.029
40033SOL     OW21930   3.531   3.543   8.731
40033SOL    HW121931   3.442   3.576   8.722
40033SOL    HW221932   3.585   3.621   8.745
40034SOL     OW21933   7.133   2.614  10.885
40034SOL    HW121934   7.175   2.683  10.937
40034SOL    HW221935   7.162   2.631  10.795
40035SOL     OW21936   4.749   6.314   7.285
40035SOL    HW121937   4.682   6.351   7.227
40035SOL    HW221938   4.773   6.386   7.343
40036SOL     OW21939   6.276  14.660   8.887
40036SOL    HW121940   6.204  14.628   8.943
40036SOL    HW221941   6.239  14.660   8.799
40037SOL     OW21942  13.654  14.661   9.866
40037SOL    HW121943  13.673  14.646   9.773
40037SOL    HW221944  13.585  14.598   9.886
40038SOL     OW21945   9.987   1.855  12.485
40038SOL    HW121946  10.058   1.815  12.435
40038SOL    HW221947  10.012   1.947  12.494
40039SOL     OW21948  10.759   4.760  11.702
40039SOL    HW121949  10.812   4.832  11.736
40039SOL    HW221950  10.691   4.802  11.650
40040SOL     OW21951   8.606   9.504  13.453
40040SOL    HW121952   8.517   9.469  13.462
40040SOL    HW221953   8.596   9.576  13.390
40041SOL     OW21954   7.226   4.405   0.497
40041SOL    HW121955   7.320   4.420   0.512
40041SOL    HW221956   7.183   4.457   0.565
40042SOL     OW21957   9.953   0.398   4.996
40042SOL    HW121958  10.048   0.402   5.008
40042SOL    HW221959   9.935   0.306   4.978
40043SOL     OW21960   8.193  11.284   5.515
40043SOL    HW121961   8.225  11.262   5.428
40043SOL    HW221962   8.202  11.202   5.565
40044SOL     OW21963   4.168   0.929   5.275
40044SOL    HW121964   4.235   0.943   5.342
40044SOL    HW221965   4.216   0.887   5.203
40045SOL     OW21966   4.943   3.229  13.472
40045SOL    HW121967   4.943   3.274  13.388
40045SOL    HW221968   4.877   3.275  13.524
40046SOL     OW21969   2.820   8.857  11.057
40046SOL    HW121970   2.903   8.844  11.103
40046SOL    HW221971   2.845   8.884  10.969
40047SOL     OW21972   7.873   6.599   4.645
40047SOL    HW121973   7.831   6.673   4.601
40047SOL    HW221974   7.937   6.638   4.703
40048SOL     OW21975  13.244   7.340   7.404
40048SOL    HW121976  13.302   7.340   7.328
40048SOL    HW221977  13.159   7.311   7.370
40049SOL     OW21978  13.555   6.988  10.843
40049SOL    HW121979  13.460   6.991  10.833
40049SOL    HW221980  13.580   7.080  10.856
40050SOL     OW21981   1.283   9.750   3.395
40050SOL    HW121982   1.335   9.821   3.434
40050SOL    HW221983   1.249   9.788   3.313
40051SOL     OW21984  14.542  14.679   8.329
40051SOL    HW121985  14.468  14.668   8.269
40051SOL    HW221986  14.588  14.595   8.325
40052SOL     OW21987   1.969  14.619   6.224
40052SOL    HW121988   1.896  14.637   6.164
40052SOL    HW221989   1.940  14.652   6.309
40053SOL     OW21990   0.614  10.615   2.194
40053SOL    HW121991   0.575  10.702   2.197
40053SOL    HW221992   0.592  10.575   2.278
40054SOL     OW21993   5.807   4.529   6.916
40054SOL    HW121994   5.773   4.512   7.004
40054SOL    HW221995   5.898   4.556   6.930
40055SOL     OW21996   1.543   2.296   9.596
40055SOL    HW121997   1.570   2.375   9.643
40055SOL    HW221998   1.449   2.291   9.608
40056SOL     OW21999  13.610   2.796  10.424
40056SOL    HW122000  13.592   2.853  10.349
40056SOL    HW222001  13.578   2.710  10.398
40057SOL     OW22002   1.476  11.487   9.234
40057SOL    HW122003   1.435  11.530   9.160
40057SOL    HW222004   1.470  11.393   9.215
40058SOL     OW22005  12.314  13.615   7.352
40058SOL    HW122006  12.256  13.577   7.286
40058SOL    HW222007  12.255  13.649   7.419
40059SOL     OW22008   9.433   3.988   0.343
40059SOL    HW122009   9.500   4.056   0.337
40059SOL    HW222010   9.466   3.927   0.409
40060SOL     OW22011  14.735   2.357   0.159
40060SOL    HW122012  14.772   2.443   0.179
40060SOL    HW222013  14.772   2.299   0.226
40061SOL     OW22014   4.025   6.904   7.848
40061SOL    HW122015   4.028   6.941   7.760
40061SOL    HW222016   4.055   6.974   7.905
40062SOL     OW22017  14.546   9.595   4.986
40062SOL    HW122018  14.631   9.604   5.029
40062SOL    HW222019  14.488   9.561   5.055
40063SOL     OW22020  12.750  13.583   2.444
40063SOL    HW122021  12.832  13.632   2.445
40063SOL    HW222022  12.727  13.576   2.352
40064SOL     OW22023   0.679   7.197   6.593
40064SOL    HW122024   0.699   7.285   6.559
40064SOL    HW222025   0.623   7.158   6.525
40065SOL     OW22026  14.538   9.342   9.100
40065SOL    HW122027  14.502   9.257   9.074
40065SOL    HW222028  14.592   9.368   9.025
40066SOL     OW22029   4.483  14.652   3.491
40066SOL    HW122030   4.427  14.593   3.541
40066SOL    HW222031   4.484  14.733   3.542
40067SOL     OW22032   4.459   5.665   1.822
40067SOL    HW122033   4.406   5.588   1.804
40067SOL    HW222034   4.478   5.702   1.736
40068SOL     OW22035   8.021   6.096   0.778
40068SOL    HW122036   8.113   6.112   0.798
40068SOL    HW222037   7.983   6.067   0.860
40069SOL     OW22038   6.390  12.402  10.941
40069SOL    HW122039   6.450  12.387  10.867
40069SOL    HW222040   6.444  12.447  11.006
40070SOL     OW22041   1.002   1.007   5.385
40070SOL    HW122042   0.952   0.974   5.310
40070SOL    HW222043   1.088   0.966   5.376
40071SOL     OW22044  10.512  14.488  11.414
40071SOL    HW122045  10.571  14.563  11.420
40071SOL    HW222046  10.443  14.505  11.478
40072SOL     OW22047  12.010   7.047   1.439
40072SOL    HW122048  12.028   7.140   1.425
40072SOL    HW222049  12.023   7.034   1.533
40073SOL     OW22050  14.346  12.085   0.445
40073SOL    HW122051  14.418  12.130   0.488
40073SOL    HW222052  14.369  12.086   0.352
40074SOL     OW22053   8.361   5.496   3.801
40074SOL    HW122054   8.411   5.415   3.794
40074SOL    HW222055   8.426   5.564   3.816
40075SOL     OW22056  10.846  11.677   8.773
40075SOL    HW122057  10.838  11.733   8.695
40075SOL    HW222058  10.756  11.656   8.797
40076SOL     OW22059   4.662  14.623   4.279
40076SOL    HW122060   4.618  14.702   4.247
40076SOL    HW222061   4.706  14.588   4.202
40077SOL     OW22062   2.980   6.139   3.592
40077SOL    HW122063   2.958   6.060   3.542
40077SOL    HW222064   3.001   6.106   3.680
40078SOL     OW22065   3.211   3.943   3.618
40078SOL    HW122066   3.216   3.850   3.642
40078SOL    HW222067   3.165   3.943   3.534
40079SOL     OW22068   3.943   6.589   1.350
40079SOL    HW122069   3.931   6.512   1.405
40079SOL    HW222070   3.875   6.582   1.283
40080SOL     OW22071   8.811  14.352   4.800
40080SOL    HW122072   8.832  14.423   4.860
40080SOL    HW222073   8.805  14.274   4.855
40081SOL     OW22074  14.040   4.140   3.409
40081SOL    HW122075  14.101   4.213   3.405
40081SOL    HW222076  13.983   4.159   3.483
40082SOL     OW22077   3.142   4.217   2.065
40082SOL    HW122078   3.063   4.195   2.015
40082SOL    HW222079   3.158   4.309   2.047
40083SOL     OW22080  12.698   9.533  11.669
40083SOL    HW122081  12.766   9.479  11.629
40083SOL    HW222082  12.741   9.575  11.744
40084SOL     OW22083   4.858   6.804   7.240
40084SOL    HW122084   4.878   6.895   7.219
40084SOL    HW222085   4.892   6.754   7.166
40085SOL     OW22086   2.012  14.487   1.729
40085SOL    HW122087   2.031  14.410   1.783
40085SOL    HW222088   1.925  14.470   1.694
40086SOL     OW22089  13.132   6.748   7.430
40086SOL    HW122090  13.116   6.727   7.522
40086SOL    HW222091  13.220   6.785   7.429
40087SOL     OW22092   0.728  12.633  10.667
40087SOL    HW122093   0.776  12.658  10.746
40087SOL    HW222094   0.706  12.716  10.624
40088SOL     OW22095   0.496  13.031  12.897
40088SOL    HW122096   0.556  12.985  12.956
40088SOL    HW222097   0.463  13.104  12.949
40089SOL     OW22098   6.391   2.436   0.200
40089SOL    HW122099   6.340   2.493   0.143
40089SOL    HW222100   6.395   2.483   0.284
40090SOL     OW22101   9.658  10.685   7.937
40090SOL    HW122102   9.615  10.712   8.019
40090SOL    HW222103   9.732  10.745   7.929
40091SOL     OW22104   0.781   1.661   0.071
40091SOL    HW122105   0.692   1.672   0.038
40091SOL    HW222106   0.816   1.750   0.076
40092SOL     OW22107   7.531  14.199  13.037
40092SOL    HW122108   7.559  14.290  13.045
40092SOL    HW222109   7.459  14.190  13.100
40093SOL     OW22110   8.279   1.483   7.646
40093SOL    HW122111   8.353   1.477   7.586
40093SOL    HW222112   8.285   1.571   7.683
40094SOL     OW22113  13.520   2.111   6.873
40094SOL    HW122114  13.514   2.078   6.963
40094SOL    HW222115  13.609   2.146   6.866
40095SOL     OW22116   2.673   4.647   8.254
40095SOL    HW122117   2.746   4.590   8.278
40095SOL    HW222118   2.653   4.624   8.163
40096SOL     OW22119   9.992   8.344  10.729
40096SOL    HW122120   9.951   8.299  10.655
40096SOL    HW222121   9.922   8.399  10.765
40097SOL     OW22122  11.617  10.779   8.332
40097SOL    HW122123  11.580  10.857   8.289
40097SOL    HW222124  11.592  10.706   8.275
40098SOL     OW22125  14.143  13.133  14.550
40098SOL    HW122126  14.091  13.177  14.617
40098SOL    HW222127  14.229  13.175  14.555
40099SOL     OW22128   3.931   4.759  14.111
40099SOL    HW122129   3.900   4.734  14.198
40099SOL    HW222130   3.862   4.730  14.051
40100SOL     OW22131   5.847  14.862  10.267
40100SOL    HW122132   5.777  14.801  10.292
40100SOL    HW222133   5.807   0.044  10.202
40101SOL     OW22134   8.686   2.071  10.138
40101SOL    HW122135   8.779   2.094  10.144
40101SOL    HW222136   8.665   2.081  10.045
40102SOL     OW22137   6.785  10.146  12.694
40102SOL    HW122138   6.806  10.135  12.601
40102SOL    HW222139   6.784  10.057  12.729
40103SOL     OW22140  10.400   0.231   7.874
40103SOL    HW122141  10.337   0.208   7.943
40103SOL    HW222142  10.354   0.296   7.821
40104SOL     OW22143  10.377  10.112   0.668
40104SOL    HW122144  10.398  10.103   0.761
40104SOL    HW222145  10.392  10.205   0.649
40105SOL     OW22146  13.359   7.729  11.871
40105SOL    HW122147  13.328   7.699  11.785
40105SOL    HW222148  13.329   7.662  11.932
40106SOL     OW22149  11.679   7.888   1.642
40106SOL    HW122150  11.746   7.911   1.706
40106SOL    HW222151  11.684   7.957   1.576
40107SOL     OW22152   7.252   8.105   2.577
40107SOL    HW122153   7.221   8.121   2.488
40107SOL    HW222154   7.318   8.173   2.592
40108SOL     OW22155  14.295   4.331   3.111
40108SOL    HW122156  14.251   4.365   3.033
40108SOL    HW222157  14.267   4.239   3.116
40109SOL     OW22158   8.543   6.514  11.147
40109SOL    HW122159   8.616   6.508  11.086
40109SOL    HW222160   8.544   6.430  11.194
40110SOL     OW22161   0.751   0.790   0.262
40110SOL    HW122162   0.796   0.813   0.343
40110SOL    HW222163   0.682   0.856   0.253
40111SOL     OW22164   0.155  10.058  13.021
40111SOL    HW122165   0.089   9.999  12.985
40111SOL    HW222166   0.159  10.132  12.960
40112SOL     OW22167   2.092   6.288   9.224
40112SOL    HW122168   2.014   6.318   9.270
40112SOL    HW222169   2.059   6.233   9.153
40113SOL     OW22170   0.499  11.580   7.851
40113SOL    HW122171   0.572  11.527   7.818
40113SOL    HW222172   0.541  11.654   7.895
40114SOL     OW22173  14.489   8.443  13.983
40114SOL    HW122174  14.453   8.358  13.957
40114SOL    HW222175  14.584   8.431  13.978
40115SOL     OW22176   8.062  12.926   4.555
40115SOL    HW122177   8.047  12.895   4.465
40115SOL    HW222178   8.153  12.905   4.573
40116SOL     OW22179   3.225   9.804  10.503
40116SOL    HW122180   3.315   9.793  10.534
40116SOL    HW222181   3.178   9.727  10.535
40117SOL     OW22182  11.141   2.504   0.435
40117SOL    HW122183  11.122   2.505   0.528
40117SOL    HW222184  11.155   2.412   0.414
40118SOL     OW22185   3.788   0.946   7.802
40118SOL    HW122186   3.698   0.978   7.815
40118SOL    HW222187   3.808   0.899   7.883
40119SOL     OW22188   0.775   1.974   4.153
40119SOL    HW122189   0.808   1.941   4.069
40119SOL    HW222190   0.682   1.988   4.138
40120SOL     OW22191   0.724   3.108   7.322
40120SOL    HW122192   0.792   3.146   7.377
40120SOL    HW222193   0.689   3.035   7.374
40121SOL     OW22194   1.157  12.998   3.086
40121SOL    HW122195   1.113  12.982   3.169
40121SOL    HW222196   1.241  13.038   3.111
40122SOL     OW22197  14.764   4.375   3.698
40122SOL    HW122198  14.777   4.405   3.608
40122SOL    HW222199  14.852   4.373   3.736
40123SOL     OW22200  13.951  13.980   4.627
40123SOL    HW122201  13.868  13.939   4.603
40123SOL    HW222202  13.933  14.024   4.710
40124SOL     OW22203   4.286   1.604   9.167
40124SOL    HW122204   4.320   1.689   9.195
40124SOL    HW222205   4.331   1.587   9.084
40125SOL     OW22206   8.075   7.082   6.939
40125SOL    HW122207   8.098   7.017   7.005
40125SOL    HW222208   8.105   7.165   6.976
40126SOL     OW22209  14.806   9.059   6.518
40126SOL    HW122210  14.782   9.118   6.447
40126SOL    HW222211  14.723   9.025   6.551
40127SOL     OW22212   0.540   3.339   8.974
40127SOL    HW122213   0.534   3.433   8.988
40127SOL    HW222214   0.627   3.315   9.005
40128SOL     OW22215   3.714   3.244   6.372
40128SOL    HW122216   3.689   3.154   6.394
40128SOL    HW222217   3.804   3.252   6.402
40129SOL     OW22218   1.630  10.366   2.895
40129SOL    HW122219   1.693  10.431   2.865
40129SOL    HW222220   1.605  10.319   2.815
40130SOL     OW22221   4.593   8.922   6.013
40130SOL    HW122222   4.546   8.845   5.981
40130SOL    HW222223   4.529   8.992   6.012
40131SOL     OW22224   5.234   4.442  14.593
40131SOL    HW122225   5.158   4.414  14.643
40131SOL    HW222226   5.214   4.531  14.567
40132SOL     OW22227   4.913   2.471   5.036
40132SOL    HW122228   4.839   2.470   5.097
40132SOL    HW222229   4.909   2.558   4.995
40133SOL     OW22230   1.619   4.691   6.513
40133SOL    HW122231   1.702   4.665   6.554
40133SOL    HW222232   1.613   4.636   6.435
40134SOL     OW22233   5.155  13.329   6.282
40134SOL    HW122234   5.176  13.393   6.349
40134SOL    HW222235   5.098  13.266   6.327
40135SOL     OW22236   6.828  10.625   4.719
40135SOL    HW122237   6.884  10.548   4.714
40135SOL    HW222238   6.805  10.645   4.628
40136SOL     OW22239   7.399   1.808   0.708
40136SOL    HW122240   7.488   1.836   0.684
40136SOL    HW222241   7.387   1.840   0.797
40137SOL     OW22242  13.073  13.711   9.780
40137SOL    HW122243  13.125  13.657   9.720
40137SOL    HW222244  13.134  13.777   9.812
40138SOL     OW22245   4.217  12.463   9.986
40138SOL    HW122246   4.229  12.552   9.952
40138SOL    HW222247   4.160  12.474  10.062
40139SOL     OW22248   9.381  10.095  10.617
40139SOL    HW122249   9.411  10.182  10.644
40139SOL    HW222250   9.450  10.064  10.558
40140SOL     OW22251   8.886  13.600   8.659
40140SOL    HW122252   8.947  13.653   8.608
40140SOL    HW222253   8.829  13.559   8.594
40141SOL     OW22254   8.641   2.002   4.749
40141SOL    HW122255   8.583   1.951   4.805
40141SOL    HW222256   8.585   2.067   4.709
40142SOL     OW22257   9.678   4.649  10.605
40142SOL    HW122258   9.757   4.606  10.638
40142SOL    HW222259   9.638   4.688  10.683
40143SOL     OW22260  12.391   9.707   0.582
40143SOL    HW122261  12.485   9.711   0.602
40143SOL    HW222262  12.384   9.741   0.494
40144SOL     OW22263   0.718   5.633  11.974
40144SOL    HW122264   0.808   5.637  12.008
40144SOL    HW222265   0.722   5.568  11.904
40145SOL     OW22266   0.671   8.626   3.962
40145SOL    HW122267   0.741   8.607   4.025
40145SOL    HW222268   0.592   8.593   4.004
40146SOL     OW22269   4.513  13.919   4.832
40146SOL    HW122270   4.464  13.841   4.859
40146SOL    HW222271   4.551  13.953   4.913
40147SOL     OW22272   2.824   1.505  13.022
40147SOL    HW122273   2.752   1.455  13.061
40147SOL    HW222274   2.889   1.511  13.092
40148SOL     OW22275   6.741  11.863   5.079
40148SOL    HW122276   6.813  11.915   5.045
40148SOL    HW222277   6.762  11.851   5.172
40149SOL     OW22278   5.086  13.551  11.296
40149SOL    HW122279   5.007  13.605  11.304
40149SOL    HW222280   5.141  13.578  11.369
40150SOL     OW22281   1.134   6.599   5.462
40150SOL    HW122282   1.128   6.591   5.557
40150SOL    HW222283   1.228   6.599   5.444
40151SOL     OW22284  12.917   6.353   9.034
40151SOL    HW122285  12.851   6.362   9.103
40151SOL    HW222286  12.957   6.268   9.050
40152SOL     OW22287   7.507  14.772   1.304
40152SOL    HW122288   7.469  14.825   1.374
40152SOL    HW222289   7.573  14.829   1.264
40153SOL     OW22290  10.583   9.086  11.241
40153SOL    HW122291  10.504   9.139  11.234
40153SOL    HW222292  10.564   9.007  11.190
40154SOL     OW22293   2.420   2.705  12.715
40154SOL    HW122294   2.476   2.762  12.662
40154SOL    HW222295   2.331   2.736  12.697
40155SOL     OW22296   5.249   4.717  14.599
40155SOL    HW122297   5.241   4.810  14.576
40155SOL    HW222298   5.335   4.711  14.641
40156SOL     OW22299   5.386  12.614  12.826
40156SOL    HW122300   5.452  12.571  12.772
40156SOL    HW222301   5.341  12.674  12.766
40157SOL     OW22302   5.946   3.873   0.764
40157SOL    HW122303   5.907   3.814   0.701
40157SOL    HW222304   6.040   3.861   0.754
40158SOL     OW22305   2.979   5.813  13.725
40158SOL    HW122306   3.074   5.812  13.710
40158SOL    HW222307   2.941   5.788  13.641
40159SOL     OW22308   2.449   7.618   5.737
40159SOL    HW122309   2.514   7.582   5.677
40159SOL    HW222310   2.377   7.647   5.681
40160SOL     OW22311  14.016   3.681   8.939
40160SOL    HW122312  14.082   3.724   8.995
40160SOL    HW222313  13.942   3.742   8.939
40161SOL     OW22314   2.405   5.275   2.722
40161SOL    HW122315   2.328   5.222   2.739
40161SOL    HW222316   2.372   5.365   2.718
40162SOL     OW22317   7.149  14.864   3.414
40162SOL    HW122318   7.069  14.814   3.399
40162SOL    HW222319   7.123   0.080   3.402
40163SOL     OW22320   2.536  12.607  11.674
40163SOL    HW122321   2.570  12.657  11.599
40163SOL    HW222322   2.449  12.577  11.645
40164SOL     OW22323   3.670   5.125  13.468
40164SOL    HW122324   3.727   5.145  13.542
40164SOL    HW222325   3.654   5.209  13.426
40165SOL     OW22326   4.522   6.261   6.296
40165SOL    HW122327   4.497   6.307   6.377
40165SOL    HW222328   4.508   6.325   6.227
40166SOL     OW22329  14.626   9.374  13.655
40166SOL    HW122330  14.560   9.430  13.614
40166SOL    HW222331  14.667   9.327  13.583
40167SOL     OW22332   1.161  13.634  11.567
40167SOL    HW122333   1.213  13.706  11.530
40167SOL    HW222334   1.070  13.660  11.553
40168SOL     OW22335   4.736  14.318   6.642
40168SOL    HW122336   4.690  14.389   6.685
40168SOL    HW222337   4.737  14.343   6.549
40169SOL     OW22338   5.279   9.677   8.613
40169SOL    HW122339   5.331   9.616   8.664
40169SOL    HW222340   5.257   9.747   8.675
40170SOL     OW22341  10.839   6.497   8.200
40170SOL    HW122342  10.784   6.436   8.247
40170SOL    HW222343  10.778   6.561   8.163
40171SOL     OW22344   0.984  13.364   3.514
40171SOL    HW122345   0.905  13.333   3.470
40171SOL    HW222346   1.037  13.286   3.527
40172SOL     OW22347  13.189  13.795   3.320
40172SOL    HW122348  13.210  13.712   3.276
40172SOL    HW222349  13.200  13.775   3.413
40173SOL     OW22350   8.746  13.482   8.070
40173SOL    HW122351   8.795  13.518   8.144
40173SOL    HW222352   8.774  13.391   8.065
40174SOL     OW22353   8.280  11.743   6.421
40174SOL    HW122354   8.295  11.772   6.511
40174SOL    HW222355   8.366  11.747   6.379
40175SOL     OW22356  11.979   2.104   5.410
40175SOL    HW122357  11.911   2.158   5.369
40175SOL    HW222358  12.059   2.157   5.404
40176SOL     OW22359   2.977   1.691   5.276
40176SOL    HW122360   2.979   1.767   5.218
40176SOL    HW222361   2.913   1.632   5.235
40177SOL     OW22362   8.412   0.284   3.003
40177SOL    HW122363   8.332   0.323   2.966
40177SOL    HW222364   8.478   0.353   2.996
40178SOL     OW22365   1.284   0.247   3.069
40178SOL    HW122366   1.334   0.326   3.048
40178SOL    HW222367   1.236   0.269   3.149
40179SOL     OW22368  12.802   0.154   9.977
40179SOL    HW122369  12.846   0.087  10.030
40179SOL    HW222370  12.874   0.203   9.937
40180SOL     OW22371   9.721  14.558   0.367
40180SOL    HW122372   9.697  14.643   0.404
40180SOL    HW222373   9.654  14.542   0.299
40181SOL     OW22374   0.433   4.123   1.826
40181SOL    HW122375   0.428   4.109   1.920
40181SOL    HW222376   0.357   4.176   1.805
40182SOL     OW22377   2.408   1.200  14.262
40182SOL    HW122378   2.467   1.271  14.288
40182SOL    HW222379   2.320   1.236  14.274
40183SOL     OW22380   3.258   5.153   4.332
40183SOL    HW122381   3.215   5.070   4.352
40183SOL    HW222382   3.327   5.130   4.269
40184SOL     OW22383   3.206   3.542   5.943
40184SOL    HW122384   3.186   3.460   5.896
40184SOL    HW222385   3.145   3.606   5.905
40185SOL     OW22386   2.195   4.789  11.556
40185SOL    HW122387   2.149   4.815  11.636
40185SOL    HW222388   2.220   4.872  11.515
40186SOL     OW22389  14.131   0.097   7.038
40186SOL    HW122390  14.189   0.031   7.077
40186SOL    HW222391  14.046   0.053   7.032
40187SOL     OW22392   7.067   7.726   2.933
40187SOL    HW122393   7.055   7.747   2.840
40187SOL    HW222394   7.103   7.637   2.932
40188SOL     OW22395   0.112  12.071   1.962
40188SOL    HW122396   0.101  12.022   2.043
40188SOL    HW222397   0.131  12.005   1.896
40189SOL     OW22398   2.844  11.134   6.560
40189SOL    HW122399   2.791  11.074   6.508
40189SOL    HW222400   2.875  11.081   6.634
40190SOL     OW22401  10.630   6.555  11.016
40190SOL    HW122402  10.687   6.481  11.034
40190SOL    HW222403  10.548   6.535  11.061
40191SOL     OW22404   5.406  10.687  13.771
40191SOL    HW122405   5.351  10.614  13.745
40191SOL    HW222406   5.418  10.676  13.866
40192SOL     OW22407  11.577   4.144  10.118
40192SOL    HW122408  11.564   4.187  10.034
40192SOL    HW222409  11.504   4.173  10.172
40193SOL     OW22410  13.460   3.093   1.989
40193SOL    HW122411  13.486   3.140   1.910
40193SOL    HW222412  13.369   3.119   2.004
40194SOL     OW22413   1.418   0.731   8.348
40194SOL    HW122414   1.413   0.674   8.272
40194SOL    HW222415   1.445   0.816   8.314
40195SOL     OW22416   1.576  11.684   3.723
40195SOL    HW122417   1.529  11.705   3.804
40195SOL    HW222418   1.579  11.589   3.720
40196SOL     OW22419  14.791  14.519   0.776
40196SOL    HW122420  14.837  14.603   0.790
40196SOL    HW222421  14.716  14.542   0.720
40197SOL     OW22422   3.741   0.398   5.976
40197SOL    HW122423   3.714   0.388   5.885
40197SOL    HW222424   3.830   0.362   5.978
40198SOL     OW22425   2.161  14.451   2.104
40198SOL    HW122426   2.248  14.414   2.117
40198SOL    HW222427   2.148  14.449   2.009
40199SOL     OW22428   1.561   3.238   7.433
40199SOL    HW122429   1.565   3.169   7.368
40199SOL    HW222430   1.653   3.259   7.452
40200SOL     OW22431  12.225   9.995   9.991
40200SOL    HW122432  12.256   9.905   9.993
40200SOL    HW222433  12.130   9.988   9.984
40201SOL     OW22434   4.503   9.637   1.233
40201SOL    HW122435   4.531   9.719   1.272
40201SOL    HW222436   4.583   9.595   1.203
40202SOL     OW22437  13.749  10.236  13.325
40202SOL    HW122438  13.751  10.168  13.392
40202SOL    HW222439  13.744  10.318  13.374
40203SOL     OW22440   7.157   7.271  12.192
40203SOL    HW122441   7.114   7.195  12.153
40203SOL    HW222442   7.207   7.235  12.265
40204SOL     OW22443  10.733   3.260  12.863
40204SOL    HW122444  10.762   3.319  12.933
40204SOL    HW222445  10.678   3.196  12.908
40205SOL     OW22446   1.649  13.574   1.635
40205SOL    HW122447   1.667  13.550   1.544
40205SOL    HW222448   1.727  13.623   1.663
40206SOL     OW22449  13.194  13.993  13.948
40206SOL    HW122450  13.159  13.964  13.864
40206SOL    HW222451  13.239  14.075  13.929
40207SOL     OW22452   4.078   5.856  11.387
40207SOL    HW122453   4.152   5.861  11.447
40207SOL    HW222454   4.030   5.777  11.415
40208SOL     OW22455   8.005   7.691  11.692
40208SOL    HW122456   8.036   7.671  11.780
40208SOL    HW222457   8.084   7.710  11.642
40209SOL     OW22458  14.388   3.582  14.145
40209SOL    HW122459  14.335   3.635  14.204
40209SOL    HW222460  14.416   3.642  14.076
40210SOL     OW22461   2.007   4.000  14.737
40210SOL    HW122462   1.929   3.997  14.792
40210SOL    HW222463   1.986   4.064  14.669
40211SOL     OW22464  14.769   4.900   0.414
40211SOL    HW122465  14.766   4.969   0.480
40211SOL    HW222466  14.686   4.853   0.424
40212SOL     OW22467  14.209   4.747   7.216
40212SOL    HW122468  14.222   4.820   7.277
40212SOL    HW222469  14.133   4.773   7.164
40213SOL     OW22470  13.769   1.811   0.026
40213SOL    HW122471  13.758   1.764   0.109
40213SOL    HW222472  13.721   1.759  14.838
40214SOL     OW22473   7.771   5.583  11.334
40214SOL    HW122474   7.730   5.521  11.395
40214SOL    HW222475   7.817   5.645  11.391
40215SOL     OW22476   1.163   6.127   0.706
40215SOL    HW122477   1.125   6.180   0.776
40215SOL    HW222478   1.257   6.133   0.719
40216SOL     OW22479   7.425  10.019   1.778
40216SOL    HW122480   7.425  10.074   1.856
40216SOL    HW222481   7.434   9.930   1.812
40217SOL     OW22482  11.115   0.924   0.009
40217SOL    HW122483  11.035   0.899   0.054
40217SOL    HW222484  11.186   0.905   0.071
40218SOL     OW22485   5.624   3.817   1.068
40218SOL    HW122486   5.607   3.808   0.974
40218SOL    HW222487   5.696   3.880   1.074
40219SOL     OW22488  13.565  10.297  11.734
40219SOL    HW122489  13.516  10.295  11.652
40219SOL    HW222490  13.641  10.241  11.718
40220SOL     OW22491   1.357   9.571  14.494
40220SOL    HW122492   1.399   9.655  14.510
40220SOL    HW222493   1.387   9.545  14.407
40221SOL     OW22494   6.317   8.218   5.589
40221SOL    HW122495   6.396   8.176   5.556
40221SOL    HW222496   6.246   8.158   5.567
40222SOL     OW22497   0.641   6.934   7.389
40222SOL    HW122498   0.724   6.954   7.346
40222SOL    HW222499   0.654   6.846   7.426
40223SOL     OW22500   3.080   7.802   8.812
40223SOL    HW122501   3.040   7.808   8.899
40223SOL    HW222502   3.014   7.838   8.753
40224SOL     OW22503  12.319   6.077   5.029
40224SOL    HW122504  12.226   6.093   5.040
40224SOL    HW222505  12.324   5.988   4.993
40225SOL     OW22506   9.480   7.933   2.633
40225SOL    HW122507   9.562   7.898   2.668
40225SOL    HW222508   9.447   7.864   2.575
40226SOL     OW22509  11.275   6.825   3.624
40226SOL    HW122510  11.338   6.897   3.629
40226SOL    HW222511  11.197   6.865   3.585
40227SOL     OW22512  14.113   1.544   2.827
40227SOL    HW122513  14.024   1.567   2.800
40227SOL    HW222514  14.103   1.471   2.887
40228SOL     OW22515   8.806  11.095   3.956
40228SOL    HW122516   8.767  11.111   3.870
40228SOL    HW222517   8.760  11.154   4.015
40229SOL     OW22518   1.373  14.444  13.691
40229SOL    HW122519   1.422  14.442  13.609
40229SOL    HW222520   1.307  14.512  13.678
40230SOL     OW22521   7.815  11.599  11.592
40230SOL    HW122522   7.789  11.642  11.511
40230SOL    HW222523   7.759  11.638  11.659
40231SOL     OW22524  14.538   2.941   9.383
40231SOL    HW122525  14.468   2.875   9.382
40231SOL    HW222526  14.558   2.955   9.291
40232SOL     OW22527   9.182   5.513   0.389
40232SOL    HW122528   9.111   5.504   0.452
40232SOL    HW222529   9.156   5.456   0.316
40233SOL     OW22530  14.132   6.045  11.965
40233SOL    HW122531  14.162   6.005  11.883
40233SOL    HW222532  14.210   6.083  12.004
40234SOL     OW22533   7.488   9.765  11.610
40234SOL    HW122534   7.479   9.718  11.527
40234SOL    HW222535   7.407   9.743  11.658
40235SOL     OW22536   1.732   8.929  12.770
40235SOL    HW122537   1.716   8.902  12.860
40235SOL    HW222538   1.732   9.025  12.772
40236SOL     OW22539   0.400   0.497  11.457
40236SOL    HW122540   0.336   0.501  11.528
40236SOL    HW222541   0.377   0.417  11.409
40237SOL     OW22542  14.536   1.385  12.029
40237SOL    HW122543  14.537   1.362  11.936
40237SOL    HW222544  14.506   1.306  12.073
40238SOL     OW22545   4.842   6.683   6.189
40238SOL    HW122546   4.850   6.769   6.147
40238SOL    HW222547   4.832   6.703   6.282
40239SOL     OW22548   9.270  13.883   4.372
40239SOL    HW122549   9.346  13.898   4.316
40239SOL    HW222550   9.210  13.954   4.350
40240SOL     OW22551   0.703   0.465   9.089
40240SOL    HW122552   0.751   0.452   9.171
40240SOL    HW222553   0.616   0.431   9.107
40241SOL     OW22554  12.900   5.544   1.152
40241SOL    HW122555  12.881   5.569   1.243
40241SOL    HW222556  12.910   5.449   1.155
40242SOL     OW22557   7.075   0.083   7.829
40242SOL    HW122558   7.112   0.141   7.896
40242SOL    HW222559   7.135   0.008   7.826
40243SOL     OW22560   8.691   3.046   3.084
40243SOL    HW122561   8.732   3.105   3.021
40243SOL    HW222562   8.714   2.958   3.053
40244SOL     OW22563   1.783   7.123   2.056
40244SOL    HW122564   1.812   7.139   2.146
40244SOL    HW222565   1.742   7.036   2.060
40245SOL     OW22566   7.286   2.910   5.593
40245SOL    HW122567   7.319   2.869   5.673
40245SOL    HW222568   7.316   3.001   5.598
40246SOL     OW22569   1.389  13.018   3.552
40246SOL    HW122570   1.452  13.024   3.624
40246SOL    HW222571   1.426  13.074   3.484
40247SOL     OW22572  12.880  10.859   7.106
40247SOL    HW122573  12.897  10.916   7.031
40247SOL    HW222574  12.807  10.804   7.077
40248SOL     OW22575   5.762   2.269  12.744
40248SOL    HW122576   5.698   2.333  12.711
40248SOL    HW222577   5.714   2.220  12.811
40249SOL     OW22578   7.764  14.054  14.187
40249SOL    HW122579   7.681  14.082  14.225
40249SOL    HW222580   7.775  14.109  14.109
40250SOL     OW22581   4.208  11.318  14.112
40250SOL    HW122582   4.125  11.365  14.113
40250SOL    HW222583   4.239  11.324  14.022
40251SOL     OW22584   2.163  13.410   9.746
40251SOL    HW122585   2.136  13.483   9.801
40251SOL    HW222586   2.168  13.447   9.658
40252SOL     OW22587  14.262   9.330  10.422
40252SOL    HW122588  14.330   9.335  10.354
40252SOL    HW222589  14.311   9.335  10.504
40253SOL     OW22590   7.967   0.208  13.352
40253SOL    HW122591   7.986   0.114  13.354
40253SOL    HW222592   7.892   0.216  13.294
40254SOL     OW22593   1.619  13.858  11.359
40254SOL    HW122594   1.696  13.914  11.347
40254SOL    HW222595   1.555  13.891  11.296
40255SOL     OW22596  11.518   8.745   3.235
40255SOL    HW122597  11.423   8.751   3.221
40255SOL    HW222598  11.556   8.782   3.156
40256SOL     OW22599   3.239  13.452   2.908
40256SOL    HW122600   3.334  13.464   2.908
40256SOL    HW222601   3.203  13.540   2.897
40257SOL     OW22602   6.055  11.116   1.477
40257SOL    HW122603   6.076  11.038   1.427
40257SOL    HW222604   6.066  11.188   1.415
40258SOL     OW22605   3.061  14.407  14.743
40258SOL    HW122606   3.074  14.353  14.821
40258SOL    HW222607   2.966  14.416  14.734
40259SOL     OW22608   1.332   6.983   7.021
40259SOL    HW122609   1.316   7.076   7.039
40259SOL    HW222610   1.285   6.937   7.091
40260SOL     OW22611   5.508   4.785  14.693
40260SOL    HW122612   5.513   4.822  14.781
40260SOL    HW222613   5.598   4.778  14.663
40261SOL     OW22614   3.316  12.643   9.586
40261SOL    HW122615   3.368  12.700   9.528
40261SOL    HW222616   3.297  12.566   9.532
40262SOL     OW22617   8.607   1.365  12.880
40262SOL    HW122618   8.533   1.319  12.842
40262SOL    HW222619   8.684   1.318  12.847
40263SOL     OW22620   0.246  14.014  10.974
40263SOL    HW122621   0.162  14.057  10.990
40263SOL    HW222622   0.228  13.921  10.987
40264SOL     OW22623   6.185   4.352  13.388
40264SOL    HW122624   6.247   4.334  13.317
40264SOL    HW222625   6.236   4.399  13.454
40265SOL     OW22626   2.565   5.805   6.512
40265SOL    HW122627   2.570   5.878   6.449
40265SOL    HW222628   2.477   5.771   6.502
40266SOL     OW22629  12.185   1.558  10.291
40266SOL    HW122630  12.109   1.567  10.234
40266SOL    HW222631  12.151   1.516  10.370
40267SOL     OW22632   0.494   9.855  10.619
40267SOL    HW122633   0.531   9.860  10.531
40267SOL    HW222634   0.400   9.844  10.605
40268SOL     OW22635   3.735   4.280  13.499
40268SOL    HW122636   3.721   4.374  13.484
40268SOL    HW222637   3.822   4.276  13.539
40269SOL     OW22638   6.108  13.090   3.129
40269SOL    HW122639   6.099  13.181   3.098
40269SOL    HW222640   6.066  13.037   3.062
40270SOL     OW22641   0.557   2.425  14.327
40270SOL    HW122642   0.490   2.477  14.282
40270SOL    HW222643   0.561   2.343  14.278
40271SOL     OW22644   1.698  13.444   7.274
40271SOL    HW122645   1.750  13.389   7.216
40271SOL    HW222646   1.756  13.515   7.299
40272SOL     OW22647   6.629   0.475   2.284
40272SOL    HW122648   6.697   0.522   2.235
40272SOL    HW222649   6.659   0.384   2.285
40273SOL     OW22650   2.509  13.646   8.270
40273SOL    HW122651   2.514  13.625   8.363
40273SOL    HW222652   2.419  13.677   8.258
40274SOL     OW22653  13.920   7.761   2.182
40274SOL    HW122654  13.902   7.815   2.259
40274SOL    HW222655  13.838   7.713   2.167
40275SOL     OW22656  11.063   9.095   8.439
40275SOL    HW122657  11.002   9.098   8.513
40275SOL    HW222658  11.055   9.006   8.406
40276SOL     OW22659   4.186   5.702  11.856
40276SOL    HW122660   4.212   5.751  11.934
40276SOL    HW222661   4.091   5.695  11.864
40277SOL     OW22662   3.730   2.997   3.055
40277SOL    HW122663   3.805   3.031   3.008
40277SOL    HW222664   3.687   2.937   2.994
40278SOL     OW22665   2.182   0.044   5.133
40278SOL    HW122666   2.219   0.046   5.044
40278SOL    HW222667   2.223  14.844   5.174
40279SOL     OW22668   5.972   2.877  10.913
40279SOL    HW122669   5.968   2.828  10.831
40279SOL    HW222670   6.056   2.921  10.911
40280SOL     OW22671   2.891  12.380   2.919
40280SOL    HW122672   2.923  12.335   2.998
40280SOL    HW222673   2.956  12.359   2.852
40281SOL     OW22674  10.911  10.252  12.100
40281SOL    HW122675  10.949  10.264  12.187
40281SOL    HW222676  10.821  10.224  12.117
40282SOL     OW22677   9.958   9.725   1.491
40282SOL    HW122678   9.967   9.818   1.471
40282SOL    HW222679   9.994   9.681   1.415
40283SOL     OW22680   6.141  14.410   2.338
40283SOL    HW122681   6.200  14.342   2.307
40283SOL    HW222682   6.056  14.367   2.347
40284SOL     OW22683   7.842   1.170   6.063
40284SOL    HW122684   7.812   1.113   5.993
40284SOL    HW222685   7.932   1.192   6.039
40285SOL     OW22686  14.583   0.044   7.344
40285SOL    HW122687  14.540   0.096   7.276
40285SOL    HW222688  14.522   0.043   7.417
40286SOL     OW22689   6.373   2.069   5.108
40286SOL    HW122690   6.290   2.051   5.064
40286SOL    HW222691   6.437   2.015   5.062
40287SOL     OW22692   6.364   0.505   5.377
40287SOL    HW122693   6.320   0.538   5.298
40287SOL    HW222694   6.323   0.420   5.393
40288SOL     OW22695   5.894   9.809   2.665
40288SOL    HW122696   5.931   9.807   2.577
40288SOL    HW222697   5.951   9.752   2.717
40289SOL     OW22698   3.516   7.228  10.480
40289SOL    HW122699   3.491   7.210  10.389
40289SOL    HW222700   3.499   7.321  10.492
40290SOL     OW22701   9.133   5.291   6.439
40290SOL    HW122702   9.180   5.232   6.380
40290SOL    HW222703   9.041   5.275   6.421
40291SOL     OW22704  13.208   9.764   9.325
40291SOL    HW122705  13.226   9.827   9.395
40291SOL    HW222706  13.251   9.800   9.248
40292SOL     OW22707   9.336   1.860   7.046
40292SOL    HW122708   9.288   1.918   7.105
40292SOL    HW222709   9.313   1.891   6.958
40293SOL     OW22710   3.207   0.966   1.805
40293SOL    HW122711   3.265   0.894   1.832
40293SOL    HW222712   3.202   0.957   1.709
40294SOL     OW22713   0.524   0.133   7.459
40294SOL    HW122714   0.453   0.071   7.475
40294SOL    HW222715   0.495   0.183   7.384
40295SOL     OW22716   0.704  10.434   4.370
40295SOL    HW122717   0.700  10.515   4.420
40295SOL    HW222718   0.620  10.431   4.323
40296SOL     OW22719  11.196   8.725   4.471
40296SOL    HW122720  11.208   8.724   4.376
40296SOL    HW222721  11.274   8.682   4.505
40297SOL     OW22722  13.064   9.922  12.589
40297SOL    HW122723  13.122   9.873  12.531
40297SOL    HW222724  12.976   9.905  12.554
40298SOL     OW22725  11.266   2.151   5.023
40298SOL    HW122726  11.208   2.096   5.076
40298SOL    HW222727  11.295   2.093   4.952
40299SOL     OW22728  12.421   3.860   1.212
40299SOL    HW122729  12.393   3.848   1.302
40299SOL    HW222730  12.517   3.855   1.215
40300SOL     OW22731   2.560  12.389   7.683
40300SOL    HW122732   2.564  12.401   7.588
40300SOL    HW222733   2.635  12.333   7.703
40301SOL     OW22734  11.754   2.531   1.006
40301SOL    HW122735  11.670   2.501   1.041
40301SOL    HW222736  11.819   2.492   1.065
40302SOL     OW22737  13.753   8.769   0.587
40302SOL    HW122738  13.793   8.832   0.527
40302SOL    HW222739  13.695   8.821   0.642
40303SOL     OW22740   8.640  13.788  13.104
40303SOL    HW122741   8.717  13.769  13.050
40303SOL    HW222742   8.566  13.767  13.047
40304SOL     OW22743  11.231  11.055  11.863
40304SOL    HW122744  11.243  10.960  11.861
40304SOL    HW222745  11.168  11.073  11.794
40305SOL     OW22746  10.848  10.276   6.221
40305SOL    HW122747  10.860  10.327   6.141
40305SOL    HW222748  10.931  10.230   6.233
40306SOL     OW22749  10.578   1.173   1.228
40306SOL    HW122750  10.609   1.246   1.281
40306SOL    HW222751  10.483   1.185   1.224
40307SOL     OW22752  11.352  13.385   6.491
40307SOL    HW122753  11.395  13.370   6.575
40307SOL    HW222754  11.365  13.478   6.474
40308SOL     OW22755   6.339   9.072   0.107
40308SOL    HW122756   6.382   8.991   0.136
40308SOL    HW222757   6.331   9.124   0.187
40309SOL     OW22758  11.777   3.821   6.052
40309SOL    HW122759  11.858   3.833   6.101
40309SOL    HW222760  11.804   3.778   5.971
40310SOL     OW22761   0.961   3.840  14.751
40310SOL    HW122762   1.028   3.803  14.809
40310SOL    HW222763   0.903   3.766  14.732
40311SOL     OW22764   5.445   9.017   2.891
40311SOL    HW122765   5.412   8.958   2.823
40311SOL    HW222766   5.538   8.998   2.897
40312SOL     OW22767   5.523   8.685  13.556
40312SOL    HW122768   5.458   8.640  13.502
40312SOL    HW222769   5.515   8.778  13.532
40313SOL     OW22770   1.081   0.964  10.807
40313SOL    HW122771   1.023   0.904  10.760
40313SOL    HW222772   1.080   0.933  10.897
40314SOL     OW22773   2.423   5.532   4.158
40314SOL    HW122774   2.419   5.600   4.226
40314SOL    HW222775   2.435   5.451   4.207
40315SOL     OW22776  14.446   2.713   2.399
40315SOL    HW122777  14.412   2.717   2.310
40315SOL    HW222778  14.449   2.804   2.429
40316SOL     OW22779   5.516   5.169  11.474
40316SOL    HW122780   5.448   5.128  11.528
40316SOL    HW222781   5.519   5.260  11.505
40317SOL     OW22782  11.641  10.668  11.545
40317SOL    HW122783  11.584  10.743  11.528
40317SOL    HW222784  11.587  10.608  11.596
40318SOL     OW22785   1.772  13.004  11.340
40318SOL    HW122786   1.846  12.945  11.321
40318SOL    HW222787   1.803  13.057  11.414
40319SOL     OW22788  11.421  14.718   7.151
40319SOL    HW122789  11.395  14.804   7.119
40319SOL    HW222790  11.419  14.662   7.074
40320SOL     OW22791   5.582   1.738  12.485
40320SOL    HW122792   5.628   1.654  12.479
40320SOL    HW222793   5.548   1.752  12.396
40321SOL     OW22794   1.071   8.726   8.361
40321SOL    HW122795   1.135   8.797   8.356
40321SOL    HW222796   1.085   8.676   8.280
40322SOL     OW22797   4.902  13.721   0.003
40322SOL    HW122798   4.946  13.804   0.023
40322SOL    HW222799   4.936  13.695  14.794
40323SOL     OW22800   1.010  14.207   5.286
40323SOL    HW122801   0.969  14.293   5.283
40323SOL    HW222802   1.099  14.221   5.256
40324SOL     OW22803   8.257   6.616  13.049
40324SOL    HW122804   8.272   6.553  12.979
40324SOL    HW222805   8.253   6.701  13.004
40325SOL     OW22806   9.004   8.979   4.259
40325SOL    HW122807   9.030   9.007   4.347
40325SOL    HW222808   9.079   9.000   4.204
40326SOL     OW22809   7.794  14.144  12.914
40326SOL    HW122810   7.756  14.073  12.863
40326SOL    HW222811   7.726  14.211  12.918
40327SOL     OW22812  11.688   6.362   2.404
40327SOL    HW122813  11.781   6.349   2.387
40327SOL    HW222814  11.667   6.445   2.362
40328SOL     OW22815  14.876   9.370   7.995
40328SOL    HW122816   0.009   9.460   7.963
40328SOL    HW222817  14.788   9.367   8.033
40329SOL     OW22818   2.874   6.299  13.881
40329SOL    HW122819   2.963   6.296  13.848
40329SOL    HW222820   2.820   6.269  13.807
40330SOL     OW22821  11.784   4.286  10.546
40330SOL    HW122822  11.707   4.230  10.552
40330SOL    HW222823  11.822   4.284  10.634
40331SOL     OW22824  11.723   3.909  10.028
40331SOL    HW122825  11.800   3.948   9.986
40331SOL    HW222826  11.685   3.980  10.079
40332SOL     OW22827   2.447  12.999  14.728
40332SOL    HW122828   2.540  12.991  14.750
40332SOL    HW222829   2.431  13.094  14.727
40333SOL     OW22830   9.104  13.423   3.839
40333SOL    HW122831   9.068  13.510   3.829
40333SOL    HW222832   9.034  13.371   3.878
40334SOL     OW22833   5.108   2.423  11.473
40334SOL    HW122834   5.042   2.425  11.404
40334SOL    HW222835   5.191   2.432  11.427
40335SOL     OW22836   4.395  12.479   3.218
40335SOL    HW122837   4.404  12.403   3.277
40335SOL    HW222838   4.449  12.547   3.259
40336SOL     OW22839   2.955  12.933  11.684
40336SOL    HW122840   3.044  12.909  11.658
40336SOL    HW222841   2.901  12.861  11.653
40337SOL     OW22842   9.444  10.201   2.517
40337SOL    HW122843   9.354  10.208   2.485
40337SOL    HW222844   9.460  10.107   2.523
40338SOL     OW22845   2.074   9.512   2.663
40338SOL    HW122846   2.108   9.465   2.587
40338SOL    HW222847   2.105   9.602   2.652
40339SOL     OW22848   1.034   0.578   9.621
40339SOL    HW122849   1.110   0.558   9.566
40339SOL    HW222850   1.045   0.524   9.699
40340SOL     OW22851  11.176   9.783  13.599
40340SOL    HW122852  11.122   9.735  13.537
40340SOL    HW222853  11.244   9.721  13.626
40341SOL     OW22854   5.635  12.480  12.744
40341SOL    HW122855   5.688  12.464  12.665
40341SOL    HW222856   5.598  12.394  12.765
40342SOL     OW22857   7.170   5.247   0.881
40342SOL    HW122858   7.099   5.190   0.852
40342SOL    HW222859   7.128   5.309   0.941
40343SOL     OW22860   5.162   3.065  12.600
40343SOL    HW122861   5.198   3.031  12.682
40343SOL    HW222862   5.228   3.042  12.534
40344SOL     OW22863   9.902  14.380   0.662
40344SOL    HW122864   9.934  14.290   0.660
40344SOL    HW222865   9.908  14.410   0.572
40345SOL     OW22866   8.731  14.562  10.147
40345SOL    HW122867   8.747  14.503  10.074
40345SOL    HW222868   8.772  14.519  10.222
40346SOL     OW22869   0.327  14.809   7.088
40346SOL    HW122870   0.336  14.736   7.148
40346SOL    HW222871   0.247  14.854   7.117
40347SOL     OW22872   2.450   1.808   1.907
40347SOL    HW122873   2.514   1.737   1.895
40347SOL    HW222874   2.501   1.881   1.940
40348SOL     OW22875   4.555  13.243   8.726
40348SOL    HW122876   4.479  13.189   8.744
40348SOL    HW222877   4.606  13.242   8.807
40349SOL     OW22878  10.430   7.294   5.534
40349SOL    HW122879  10.505   7.351   5.550
40349SOL    HW222880  10.410   7.256   5.619
40350SOL     OW22881   6.401   0.760  11.688
40350SOL    HW122882   6.441   0.780  11.604
40350SOL    HW222883   6.415   0.839  11.741
40351SOL     OW22884   4.767   8.448   8.625
40351SOL    HW122885   4.790   8.480   8.537
40351SOL    HW222886   4.839   8.388   8.647
40352SOL     OW22887  12.375   6.398   8.833
40352SOL    HW122888  12.355   6.353   8.915
40352SOL    HW222889  12.460   6.439   8.848
40353SOL     OW22890  10.016   3.980  14.542
40353SOL    HW122891   9.989   3.978  14.450
40353SOL    HW222892  10.037   3.889  14.562
40354SOL     OW22893  11.674   8.635   9.824
40354SOL    HW122894  11.726   8.557   9.846
40354SOL    HW222895  11.713   8.668   9.744
40355SOL     OW22896   2.747  10.738   2.250
40355SOL    HW122897   2.800  10.812   2.279
40355SOL    HW222898   2.798  10.661   2.277
40356SOL     OW22899   2.365   3.806   2.528
40356SOL    HW122900   2.290   3.818   2.586
40356SOL    HW222901   2.333   3.833   2.442
40357SOL     OW22902  11.330   5.182  14.624
40357SOL    HW122903  11.403   5.226  14.668
40357SOL    HW222904  11.254   5.201  14.679
40358SOL     OW22905   0.784   1.117   7.744
40358SOL    HW122906   0.834   1.164   7.677
40358SOL    HW222907   0.703   1.167   7.753
40359SOL     OW22908   3.461   1.864   6.603
40359SOL    HW122909   3.420   1.914   6.533
40359SOL    HW222910   3.505   1.792   6.558
40360SOL     OW22911   0.668   3.929  12.235
40360SOL    HW122912   0.684   3.836  12.248
40360SOL    HW222913   0.587   3.933  12.184
40361SOL     OW22914   6.312   0.540   4.019
40361SOL    HW122915   6.292   0.582   3.935
40361SOL    HW222916   6.320   0.613   4.080
40362SOL     OW22917  11.041   3.184   0.232
40362SOL    HW122918  11.083   3.114   0.182
40362SOL    HW222919  10.975   3.140   0.284
40363SOL     OW22920   6.414  13.453  14.159
40363SOL    HW122921   6.433  13.455  14.065
40363SOL    HW222922   6.453  13.372  14.190
40364SOL     OW22923   9.821   8.824   3.674
40364SOL    HW122924   9.905   8.865   3.693
40364SOL    HW222925   9.842   8.733   3.654
40365SOL     OW22926   8.854   1.959   3.151
40365SOL    HW122927   8.921   1.937   3.086
40365SOL    HW222928   8.824   1.874   3.183
40366SOL     OW22929  13.200   2.009   0.745
40366SOL    HW122930  13.111   2.014   0.780
40366SOL    HW222931  13.189   2.009   0.650
40367SOL     OW22932   9.103  12.026   5.582
40367SOL    HW122933   9.156  11.980   5.647
40367SOL    HW222934   9.014  11.993   5.596
40368SOL     OW22935   6.113   4.293  12.722
40368SOL    HW122936   6.089   4.301  12.814
40368SOL    HW222937   6.030   4.281  12.676
40369SOL     OW22938  13.855   0.833   6.934
40369SOL    HW122939  13.919   0.800   6.871
40369SOL    HW222940  13.792   0.881   6.880
40370SOL     OW22941   1.685   4.927  12.723
40370SOL    HW122942   1.603   4.959  12.686
40370SOL    HW222943   1.735   5.006  12.744
40371SOL     OW22944   5.459   1.691  12.204
40371SOL    HW122945   5.442   1.597  12.192
40371SOL    HW222946   5.544   1.705  12.161
40372SOL     OW22947   5.664   5.330  10.992
40372SOL    HW122948   5.681   5.243  11.028
40372SOL    HW222949   5.580   5.322  10.947
40373SOL     OW22950   5.506  13.722   5.879
40373SOL    HW122951   5.580  13.678   5.919
40373SOL    HW222952   5.497  13.680   5.793
40374SOL     OW22953  13.259  12.839  11.539
40374SOL    HW122954  13.222  12.819  11.624
40374SOL    HW222955  13.343  12.792  11.538
40375SOL     OW22956   2.004  10.888  10.527
40375SOL    HW122957   1.962  10.878  10.442
40375SOL    HW222958   2.095  10.862  10.513
40376SOL     OW22959   1.567   2.636  12.104
40376SOL    HW122960   1.637   2.613  12.043
40376SOL    HW222961   1.507   2.689  12.052
40377SOL     OW22962   6.066   2.394   8.005
40377SOL    HW122963   6.018   2.382   7.923
40377SOL    HW222964   6.099   2.307   8.026
40378SOL     OW22965   5.257  11.692   7.429
40378SOL    HW122966   5.195  11.684   7.501
40378SOL    HW222967   5.202  11.702   7.351
40379SOL     OW22968   0.199   1.653   1.931
40379SOL    HW122969   0.116   1.628   1.973
40379SOL    HW222970   0.262   1.587   1.960
40380SOL     OW22971   3.801   5.125   3.758
40380SOL    HW122972   3.851   5.107   3.678
40380SOL    HW222973   3.714   5.089   3.739
40381SOL     OW22974   8.439   7.777   4.156
40381SOL    HW122975   8.419   7.689   4.125
40381SOL    HW222976   8.373   7.793   4.224
40382SOL     OW22977   6.971  10.860   0.113
40382SOL    HW122978   6.909  10.788   0.099
40382SOL    HW222979   7.053  10.828   0.077
40383SOL     OW22980  12.388  10.413   7.748
40383SOL    HW122981  12.334  10.449   7.677
40383SOL    HW222982  12.424  10.489   7.792
40384SOL     OW22983  14.437   8.391   8.623
40384SOL    HW122984  14.531   8.383   8.640
40384SOL    HW222985  14.431   8.418   8.531
40385SOL     OW22986  11.977  13.791   3.629
40385SOL    HW122987  12.000  13.851   3.700
40385SOL    HW222988  11.984  13.704   3.668
40386SOL     OW22989  13.645  14.469   0.565
40386SOL    HW122990  13.620  14.484   0.474
40386SOL    HW222991  13.621  14.378   0.582
40387SOL     OW22992  12.876   5.081  10.776
40387SOL    HW122993  12.817   5.155  10.787
40387SOL    HW222994  12.921   5.073  10.860
40388SOL     OW22995   3.212   7.938   5.042
40388SOL    HW122996   3.249   7.877   5.105
40388SOL    HW222997   3.267   8.016   5.049
40389SOL     OW22998   4.218  10.512   9.751
40389SOL    HW122999   4.206  10.540   9.842
40389SOL    HW223000   4.149  10.448   9.736
40390SOL     OW23001   9.036   6.376   0.272
40390SOL    HW123002   9.098   6.343   0.337
40390SOL    HW223003   9.083   6.369   0.189
40391SOL     OW23004  10.512   1.336   9.021
40391SOL    HW123005  10.490   1.322   8.929
40391SOL    HW223006  10.590   1.392   9.019
40392SOL     OW23007  14.504   4.257   9.893
40392SOL    HW123008  14.595   4.251   9.921
40392SOL    HW223009  14.458   4.294   9.968
40393SOL     OW23010  14.221   5.749   0.526
40393SOL    HW123011  14.313   5.730   0.542
40393SOL    HW223012  14.200   5.701   0.445
40394SOL     OW23013  11.652  14.095  11.127
40394SOL    HW123014  11.695  14.180  11.120
40394SOL    HW223015  11.702  14.037  11.069
40395SOL     OW23016  13.337   0.539   3.623
40395SOL    HW123017  13.432   0.524   3.626
40395SOL    HW223018  13.301   0.455   3.596
40396SOL     OW23019   1.198   1.802   8.564
40396SOL    HW123020   1.239   1.823   8.480
40396SOL    HW223021   1.148   1.723   8.547
40397SOL     OW23022   1.764   1.540   5.433
40397SOL    HW123023   1.702   1.532   5.360
40397SOL    HW223024   1.737   1.620   5.478
40398SOL     OW23025  13.997  12.506   4.425
40398SOL    HW123026  14.091  12.522   4.427
40398SOL    HW223027  13.986  12.435   4.361
40399SOL     OW23028  11.177  12.650   3.192
40399SOL    HW123029  11.270  12.669   3.206
40399SOL    HW223030  11.169  12.640   3.097
40400SOL     OW23031  12.345  12.944   1.320
40400SOL    HW123032  12.339  13.037   1.342
40400SOL    HW223033  12.411  12.941   1.250
40401SOL     OW23034  12.852   7.218   2.470
40401SOL    HW123035  12.795   7.287   2.435
40401SOL    HW223036  12.929   7.220   2.413
40402SOL     OW23037   2.000  13.120   4.429
40402SOL    HW123038   2.017  13.054   4.362
40402SOL    HW223039   2.055  13.094   4.503
40403SOL     OW23040   5.038   5.704  12.462
40403SOL    HW123041   4.998   5.748  12.537
40403SOL    HW223042   4.967   5.654  12.423
40404SOL     OW23043   1.239  13.272   2.433
40404SOL    HW123044   1.314  13.236   2.480
40404SOL    HW223045   1.229  13.361   2.469
40405SOL     OW23046  14.177  13.671   5.643
40405SOL    HW123047  14.200  13.610   5.573
40405SOL    HW223048  14.082  13.669   5.647
40406SOL     OW23049  10.852   6.597  10.662
40406SOL    HW123050  10.898   6.628  10.584
40406SOL    HW223051  10.918   6.549  10.711
40407SOL     OW23052   2.096   0.165   2.070
40407SOL    HW123053   2.067   0.248   2.107
40407SOL    HW223054   2.110   0.109   2.146
40408SOL     OW23055  13.244   7.415  11.683
40408SOL    HW123056  13.300   7.394  11.758
40408SOL    HW223057  13.306   7.431  11.612
40409SOL     OW23058  12.953   3.227   5.134
40409SOL    HW123059  13.017   3.260   5.198
40409SOL    HW223060  12.884   3.293   5.134
40410SOL     OW23061   5.073   9.339  11.613
40410SOL    HW123062   5.002   9.349  11.550
40410SOL    HW223063   5.062   9.412  11.674
40411SOL     OW23064  13.913  12.571   2.818
40411SOL    HW123065  13.842  12.572   2.754
40411SOL    HW223066  13.989  12.605   2.771
40412SOL     OW23067   7.209   9.123   0.936
40412SOL    HW123068   7.286   9.092   0.888
40412SOL    HW223069   7.202   9.215   0.912
40413SOL     OW23070   0.009   9.346  13.929
40413SOL    HW123071   0.007   9.420  13.989
40413SOL    HW223072  14.794   9.315  13.926
40414SOL     OW23073   1.926  14.246   8.991
40414SOL    HW123074   1.978  14.236   9.071
40414SOL    HW223075   1.853  14.304   9.017
40415SOL     OW23076   1.316   7.350   1.971
40415SOL    HW123077   1.321   7.259   1.944
40415SOL    HW223078   1.254   7.390   1.909
40416SOL     OW23079   0.746  10.910   8.296
40416SOL    HW123080   0.705  10.994   8.279
40416SOL    HW223081   0.698  10.848   8.242
40417SOL     OW23082   4.571  11.796  12.966
40417SOL    HW123083   4.599  11.838  12.884
40417SOL    HW223084   4.561  11.704  12.943
40418SOL     OW23085  11.920   5.165   6.357
40418SOL    HW123086  11.949   5.194   6.270
40418SOL    HW223087  11.905   5.246   6.405
40419SOL     OW23088  14.770  10.369   7.332
40419SOL    HW123089  14.790  10.278   7.354
40419SOL    HW223090  14.782  10.373   7.237
40420SOL     OW23091  14.574   5.173   3.531
40420SOL    HW123092  14.487   5.208   3.510
40420SOL    HW223093  14.604   5.227   3.604
40421SOL     OW23094   6.771  13.215   1.153
40421SOL    HW123095   6.864  13.220   1.130
40421SOL    HW223096   6.726  13.218   1.069
40422SOL     OW23097  10.783   9.764   3.645
40422SOL    HW123098  10.742   9.690   3.689
40422SOL    HW223099  10.769   9.838   3.705
40423SOL     OW23100  12.532  12.155   5.007
40423SOL    HW123101  12.467  12.189   4.945
40423SOL    HW223102  12.512  12.200   5.089
40424SOL     OW23103   3.715   2.316   9.848
40424SOL    HW123104   3.733   2.294   9.940
40424SOL    HW223105   3.673   2.238   9.812
40425SOL     OW23106   8.330  12.418   7.950
40425SOL    HW123107   8.358  12.396   7.861
40425SOL    HW223108   8.244  12.376   7.959
40426SOL     OW23109   3.234  12.643   9.276
40426SOL    HW123110   3.214  12.736   9.265
40426SOL    HW223111   3.158  12.607   9.322
40427SOL     OW23112  12.414   4.124   2.810
40427SOL    HW123113  12.480   4.193   2.810
40427SOL    HW223114  12.426   4.080   2.894
40428SOL     OW23115   3.474   3.368   5.923
40428SOL    HW123116   3.556   3.389   5.967
40428SOL    HW223117   3.452   3.448   5.874
40429SOL     OW23118   9.409  10.924   6.159
40429SOL    HW123119   9.500  10.928   6.129
40429SOL    HW223120   9.358  10.960   6.085
40430SOL     OW23121  12.801   2.649  12.860
40430SOL    HW123122  12.813   2.693  12.776
40430SOL    HW223123  12.710   2.667  12.884
40431SOL     OW23124  11.977   3.274  10.606
40431SOL    HW123125  11.990   3.342  10.673
40431SOL    HW223126  11.896   3.298  10.562
40432SOL     OW23127   9.395  14.611   7.291
40432SOL    HW123128   9.337  14.657   7.230
40432SOL    HW223129   9.375  14.518   7.279
40433SOL     OW23130  13.729   8.590  13.943
40433SOL    HW123131  13.758   8.600  13.852
40433SOL    HW223132  13.799   8.538  13.984
40434SOL     OW23133  13.247   8.607   6.665
40434SOL    HW123134  13.264   8.515   6.685
40434SOL    HW223135  13.240   8.609   6.570
40435SOL     OW23136   1.237   6.074  10.688
40435SOL    HW123137   1.154   6.109  10.656
40435SOL    HW223138   1.225   5.979  10.685
40436SOL     OW23139   8.953   4.211   6.635
40436SOL    HW123140   8.914   4.289   6.675
40436SOL    HW223141   8.905   4.200   6.554
40437SOL     OW23142  10.472   9.024  10.237
40437SOL    HW123143  10.546   8.994  10.184
40437SOL    HW223144  10.395   8.994  10.189
40438SOL     OW23145   8.553   8.874   6.360
40438SOL    HW123146   8.555   8.838   6.271
40438SOL    HW223147   8.538   8.968   6.347
40439SOL     OW23148   5.813   6.150  11.655
40439SOL    HW123149   5.739   6.209  11.640
40439SOL    HW223150   5.786   6.098  11.731
40440SOL     OW23151  11.954   2.151   2.300
40440SOL    HW123152  12.004   2.111   2.372
40440SOL    HW223153  11.930   2.238   2.333
40441SOL     OW23154   3.828   3.600   9.517
40441SOL    HW123155   3.900   3.610   9.455
40441SOL    HW223156   3.771   3.534   9.478
40442SOL     OW23157  10.604  10.941   6.808
40442SOL    HW123158  10.632  11.017   6.860
40442SOL    HW223159  10.567  10.881   6.873
40443SOL     OW23160   5.381   3.864   1.410
40443SOL    HW123161   5.424   3.949   1.400
40443SOL    HW223162   5.289   3.886   1.422
40444SOL     OW23163  13.326   9.404   2.834
40444SOL    HW123164  13.409   9.449   2.849
40444SOL    HW223165  13.265   9.474   2.812
40445SOL     OW23166   6.441  14.205   4.677
40445SOL    HW123167   6.373  14.197   4.745
40445SOL    HW223168   6.510  14.257   4.719
40446SOL     OW23169  11.940   6.597  11.590
40446SOL    HW123170  12.015   6.648  11.558
40446SOL    HW223171  11.920   6.634  11.676
40447SOL     OW23172   8.411   3.031   7.251
40447SOL    HW123173   8.462   3.092   7.305
40447SOL    HW223174   8.334   3.012   7.304
40448SOL     OW23175   6.031   2.549   8.674
40448SOL    HW123176   5.950   2.535   8.625
40448SOL    HW223177   6.045   2.643   8.671
40449SOL     OW23178   1.284  10.386   1.030
40449SOL    HW123179   1.214  10.322   1.042
40449SOL    HW223180   1.270  10.421   0.942
40450SOL     OW23181   4.743   5.947  10.273
40450SOL    HW123182   4.836   5.931  10.290
40450SOL    HW223183   4.711   5.995  10.349
40451SOL     OW23184  14.528  11.988  12.474
40451SOL    HW123185  14.481  11.931  12.413
40451SOL    HW223186  14.529  11.939  12.556
40452SOL     OW23187   4.409   0.402   7.121
40452SOL    HW123188   4.469   0.392   7.047
40452SOL    HW223189   4.340   0.460   7.090
40453SOL     OW23190   5.079  11.203   8.631
40453SOL    HW123191   4.992  11.194   8.669
40453SOL    HW223192   5.073  11.161   8.546
40454SOL     OW23193   7.519   6.704   9.776
40454SOL    HW123194   7.552   6.763   9.844
40454SOL    HW223195   7.448   6.754   9.734
40455SOL     OW23196   7.792  14.571   1.333
40455SOL    HW123197   7.820  14.480   1.336
40455SOL    HW223198   7.854  14.617   1.390
40456SOL     OW23199  11.153   0.685   1.303
40456SOL    HW123200  11.179   0.711   1.391
40456SOL    HW223201  11.195   0.601   1.289
40457SOL     OW23202   7.950   5.005  10.068
40457SOL    HW123203   7.973   5.074  10.130
40457SOL    HW223204   8.033   4.981  10.026
40458SOL     OW23205   5.604   4.293   1.639
40458SOL    HW123206   5.612   4.199   1.627
40458SOL    HW223207   5.684   4.330   1.601
40459SOL     OW23208   1.541  11.597   1.790
40459SOL    HW123209   1.507  11.606   1.701
40459SOL    HW223210   1.465  11.572   1.843
40460SOL     OW23211  10.142   7.083   2.262
40460SOL    HW123212  10.228   7.046   2.282
40460SOL    HW223213  10.151   7.176   2.283
40461SOL     OW23214   7.315  14.561   3.728
40461SOL    HW123215   7.262  14.576   3.650
40461SOL    HW223216   7.252  14.544   3.798
40462SOL     OW23217  10.133  13.343   4.811
40462SOL    HW123218  10.118  13.252   4.783
40462SOL    HW223219  10.222  13.363   4.782
40463SOL     OW23220  11.465   7.990   9.524
40463SOL    HW123221  11.441   8.041   9.602
40463SOL    HW223222  11.398   8.011   9.460
40464SOL     OW23223   0.613   1.261   5.291
40464SOL    HW123224   0.552   1.326   5.326
40464SOL    HW223225   0.637   1.208   5.366
40465SOL     OW23226   2.735   7.171  14.864
40465SOL    HW123227   2.733   7.190   0.082
40465SOL    HW223228   2.647   7.193  14.834
40466SOL     OW23229  13.871   2.634   3.061
40466SOL    HW123230  13.867   2.631   2.966
40466SOL    HW223231  13.820   2.557   3.089
40467SOL     OW23232  14.713  12.254   7.987
40467SOL    HW123233  14.732  12.167   8.022
40467SOL    HW223234  14.763  12.258   7.905
40468SOL     OW23235   3.091   1.722   3.416
40468SOL    HW123236   3.027   1.791   3.435
40468SOL    HW223237   3.172   1.769   3.397
40469SOL     OW23238   7.463   3.865   8.378
40469SOL    HW123239   7.423   3.944   8.341
40469SOL    HW223240   7.556   3.886   8.383
40470SOL     OW23241   1.011  11.439  12.619
40470SOL    HW123242   1.047  11.388  12.546
40470SOL    HW223243   0.962  11.375  12.670
40471SOL     OW23244   8.229  10.022  13.538
40471SOL    HW123245   8.257  10.113  13.530
40471SOL    HW223246   8.231   9.988  13.449
40472SOL     OW23247  14.778  14.865   9.192
40472SOL    HW123248  14.730  14.873   9.275
40472SOL    HW223249  14.813   0.076   9.176
40473SOL     OW23250  13.672   5.484   2.163
40473SOL    HW123251  13.692   5.409   2.218
40473SOL    HW223252  13.747   5.542   2.174
40474SOL     OW23253   7.360   4.423   8.668
40474SOL    HW123254   7.271   4.458   8.670
40474SOL    HW223255   7.396   4.444   8.754
40475SOL     OW23256   5.326   0.268  13.565
40475SOL    HW123257   5.231   0.255  13.562
40475SOL    HW223258   5.341   0.311  13.649
40476SOL     OW23259   9.247   3.265  13.969
40476SOL    HW123260   9.160   3.234  13.946
40476SOL    HW223261   9.265   3.335  13.906
40477SOL     OW23262   7.404   2.698   8.550
40477SOL    HW123263   7.358   2.614   8.552
40477SOL    HW223264   7.468   2.688   8.480
40478SOL     OW23265   4.088  12.870   3.732
40478SOL    HW123266   4.047  12.831   3.809
40478SOL    HW223267   4.129  12.796   3.687
40479SOL     OW23268   6.028   8.701   2.500
40479SOL    HW123269   5.946   8.671   2.540
40479SOL    HW223270   6.077   8.620   2.484
40480SOL     OW23271   9.916   5.300   1.034
40480SOL    HW123272   9.870   5.362   0.977
40480SOL    HW223273  10.003   5.338   1.044
40481SOL     OW23274   1.548  13.857  11.625
40481SOL    HW123275   1.553  13.842  11.530
40481SOL    HW223276   1.625  13.911  11.645
40482SOL     OW23277   1.833  13.535   4.695
40482SOL    HW123278   1.803  13.607   4.751
40482SOL    HW223279   1.817  13.565   4.606
40483SOL     OW23280  10.901   6.968   6.828
40483SOL    HW123281  10.895   7.021   6.907
40483SOL    HW223282  10.980   6.915   6.840
40484SOL     OW23283  10.221   6.901   3.293
40484SOL    HW123284  10.146   6.954   3.265
40484SOL    HW223285  10.297   6.953   3.267
40485SOL     OW23286   1.680  14.606   2.619
40485SOL    HW123287   1.621  14.590   2.693
40485SOL    HW223288   1.716  14.519   2.599
40486SOL     OW23289   0.282   9.167   1.395
40486SOL    HW123290   0.349   9.205   1.453
40486SOL    HW223291   0.257   9.086   1.438
40487SOL     OW23292   4.976  14.266  11.494
40487SOL    HW123293   4.961  14.331  11.425
40487SOL    HW223294   5.070  14.265  11.507
40488SOL     OW23295   5.075  12.693  10.470
40488SOL    HW123296   5.035  12.749  10.403
40488SOL    HW223297   5.067  12.743  10.551
40489SOL     OW23298   9.406  13.505   6.309
40489SOL    HW123299   9.361  13.421   6.303
40489SOL    HW223300   9.344  13.563   6.353
40490SOL     OW23301   5.937  14.789   3.921
40490SOL    HW123302   5.976  14.862   3.969
40490SOL    HW223303   5.956  14.807   3.829
40491SOL     OW23304  11.303  11.794   8.531
40491SOL    HW123305  11.300  11.702   8.558
40491SOL    HW223306  11.214  11.826   8.545
40492SOL     OW23307  13.548   3.483   9.271
40492SOL    HW123308  13.589   3.569   9.265
40492SOL    HW223309  13.469   3.490   9.217
40493SOL     OW23310   1.687   7.698   5.133
40493SOL    HW123311   1.767   7.747   5.153
40493SOL    HW223312   1.713   7.640   5.061
40494SOL     OW23313   7.752   4.820   4.659
40494SOL    HW123314   7.820   4.761   4.628
40494SOL    HW223315   7.679   4.809   4.597
40495SOL     OW23316   3.413   7.491  12.692
40495SOL    HW123317   3.348   7.561  12.700
40495SOL    HW223318   3.390   7.446  12.611
40496SOL     OW23319  13.539  10.526   6.603
40496SOL    HW123320  13.475  10.525   6.674
40496SOL    HW223321  13.528  10.612   6.562
40497SOL     OW23322   7.597   5.015   6.850
40497SOL    HW123323   7.613   5.014   6.944
40497SOL    HW223324   7.678   4.980   6.812
40498SOL     OW23325   4.067   5.901   1.390
40498SOL    HW123326   4.128   5.828   1.399
40498SOL    HW223327   4.095   5.947   1.311
40499SOL     OW23328   0.241   7.718  12.857
40499SOL    HW123329   0.320   7.694  12.906
40499SOL    HW223330   0.173   7.660  12.891
40500SOL     OW23331   0.312   6.936  14.026
40500SOL    HW123332   0.369   6.949  14.102
40500SOL    HW223333   0.368   6.956  13.950
40501SOL     OW23334   1.427  12.377   3.599
40501SOL    HW123335   1.514  12.401   3.631
40501SOL    HW223336   1.438  12.369   3.504
40502SOL     OW23337  14.231   9.862   8.620
40502SOL    HW123338  14.200   9.947   8.652
40502SOL    HW223339  14.189   9.798   8.677
40503SOL     OW23340   0.375  13.865  12.294
40503SOL    HW123341   0.308  13.917  12.340
40503SOL    HW223342   0.358  13.775  12.322
40504SOL     OW23343   0.882   1.715   9.098
40504SOL    HW123344   0.973   1.692   9.115
40504SOL    HW223345   0.835   1.632   9.098
40505SOL     OW23346  11.120   5.993   0.383
40505SOL    HW123347  11.040   5.992   0.436
40505SOL    HW223348  11.162   6.076   0.405
40506SOL     OW23349  13.031   2.722  12.052
40506SOL    HW123350  13.050   2.707  11.960
40506SOL    HW223351  13.086   2.797  12.077
40507SOL     OW23352   7.803  13.808   5.243
40507SOL    HW123353   7.897  13.790   5.232
40507SOL    HW223354   7.760  13.739   5.193
40508SOL     OW23355  12.854  11.864  13.207
40508SOL    HW123356  12.824  11.775  13.192
40508SOL    HW223357  12.949  11.856  13.217
40509SOL     OW23358   5.420   0.220  11.271
40509SOL    HW123359   5.512   0.199  11.289
40509SOL    HW223360   5.421   0.311  11.242
40510SOL     OW23361   3.123  10.862  10.173
40510SOL    HW123362   3.192  10.857  10.240
40510SOL    HW223363   3.042  10.858  10.223
40511SOL     OW23364  13.025  12.365   3.174
40511SOL    HW123365  13.043  12.302   3.104
40511SOL    HW223366  13.111  12.398   3.200
40512SOL     OW23367   5.103  10.079   4.648
40512SOL    HW123368   5.112  10.128   4.729
40512SOL    HW223369   5.193  10.058   4.622
40513SOL     OW23370   8.683   0.800   2.341
40513SOL    HW123371   8.605   0.777   2.392
40513SOL    HW223372   8.733   0.858   2.399
40514SOL     OW23373   2.981   2.139   9.217
40514SOL    HW123374   3.019   2.052   9.226
40514SOL    HW223375   3.045   2.198   9.257
40515SOL     OW23376   0.112   9.226   2.500
40515SOL    HW123377   0.087   9.299   2.557
40515SOL    HW223378   0.083   9.252   2.413
40516SOL     OW23379   5.893   1.194  10.920
40516SOL    HW123380   5.902   1.174  11.013
40516SOL    HW223381   5.835   1.271  10.918
40517SOL     OW23382  10.375  12.823  11.321
40517SOL    HW123383  10.383  12.730  11.342
40517SOL    HW223384  10.368  12.866  11.406
40518SOL     OW23385  13.552   0.677  10.585
40518SOL    HW123386  13.604   0.699  10.507
40518SOL    HW223387  13.614   0.684  10.658
40519SOL     OW23388  11.818  12.891  11.701
40519SOL    HW123389  11.731  12.916  11.670
40519SOL    HW223390  11.837  12.953  11.772
40520SOL     OW23391   3.279   6.847   7.210
40520SOL    HW123392   3.190   6.873   7.234
40520SOL    HW223393   3.315   6.811   7.291
40521SOL     OW23394   1.629   2.014   5.787
40521SOL    HW123395   1.578   2.007   5.706
40521SOL    HW223396   1.650   2.107   5.794
40522SOL     OW23397   9.571   1.173   8.939
40522SOL    HW123398   9.613   1.232   9.003
40522SOL    HW223399   9.615   1.192   8.856
40523SOL     OW23400  12.545   0.875   5.720
40523SOL    HW123401  12.509   0.930   5.650
40523SOL    HW223402  12.486   0.890   5.795
40524SOL     OW23403  11.300   7.949   1.923
40524SOL    HW123404  11.296   7.858   1.895
40524SOL    HW223405  11.224   7.961   1.980
40525SOL     OW23406   9.290   6.943  14.867
40525SOL    HW123407   9.210   6.890  14.875
40525SOL    HW223408   9.328   6.917  14.783
40526SOL     OW23409   0.619  13.802   4.220
40526SOL    HW123410   0.714  13.792   4.210
40526SOL    HW223411   0.605  13.806   4.315
40527SOL     OW23412   4.368   3.190   9.121
40527SOL    HW123413   4.389   3.213   9.211
40527SOL    HW223414   4.450   3.205   9.073
40528SOL     OW23415   5.594   3.259  10.595
40528SOL    HW123416   5.500   3.257  10.578
40528SOL    HW223417   5.633   3.287  10.513
40529SOL     OW23418  14.068  13.105  11.962
40529SOL    HW123419  14.017  13.028  11.937
40529SOL    HW223420  14.148  13.099  11.911
40530SOL     OW23421  12.733  14.734   0.526
40530SOL    HW123422  12.678  14.659   0.547
40530SOL    HW223423  12.708  14.801   0.590
40531SOL     OW23424  10.095   1.866   0.809
40531SOL    HW123425  10.019   1.874   0.867
40531SOL    HW223426  10.089   1.941   0.750
40532SOL     OW23427  10.525   8.545  14.371
40532SOL    HW123428  10.438   8.523  14.404
40532SOL    HW223429  10.518   8.533  14.276
40533SOL     OW23430   9.589  11.653   0.784
40533SOL    HW123431   9.654  11.583   0.780
40533SOL    HW223432   9.543  11.639   0.867
40534SOL     OW23433   9.314   8.326  13.067
40534SOL    HW123434   9.283   8.413  13.043
40534SOL    HW223435   9.408   8.337  13.080
40535SOL     OW23436   1.269   5.431  14.393
40535SOL    HW123437   1.247   5.376  14.468
40535SOL    HW223438   1.314   5.372  14.333
40536SOL     OW23439   7.052   2.761   7.062
40536SOL    HW123440   7.103   2.842   7.072
40536SOL    HW223441   7.057   2.740   6.969
40537SOL     OW23442  12.820   5.524   3.541
40537SOL    HW123443  12.733   5.530   3.582
40537SOL    HW223444  12.879   5.560   3.607
40538SOL     OW23445   6.407   5.354  10.987
40538SOL    HW123446   6.405   5.449  10.977
40538SOL    HW223447   6.354   5.321  10.914
40539SOL     OW23448   1.247   6.456  11.217
40539SOL    HW123449   1.292   6.422  11.140
40539SOL    HW223450   1.301   6.529  11.247
40540SOL     OW23451   3.727   7.893  14.111
40540SOL    HW123452   3.818   7.922  14.103
40540SOL    HW223453   3.684   7.929  14.033
40541SOL     OW23454   2.015   8.220   4.785
40541SOL    HW123455   1.984   8.186   4.700
40541SOL    HW223456   2.042   8.310   4.766
40542SOL     OW23457  10.189  14.101   2.010
40542SOL    HW123458  10.155  14.111   1.921
40542SOL    HW223459  10.263  14.161   2.015
40543SOL     OW23460   6.890   4.132  13.093
40543SOL    HW123461   6.874   4.118  13.187
40543SOL    HW223462   6.846   4.215  13.074
40544SOL     OW23463   7.528   6.922   7.762
40544SOL    HW123464   7.551   6.850   7.821
40544SOL    HW223465   7.451   6.891   7.714
40545SOL     OW23466   5.489   5.222   4.057
40545SOL    HW123467   5.460   5.313   4.052
40545SOL    HW223468   5.584   5.227   4.057
40546SOL     OW23469  11.129   3.034   6.871
40546SOL    HW123470  11.219   3.066   6.858
40546SOL    HW223471  11.076   3.090   6.814
40547SOL     OW23472   7.187   5.288   2.405
40547SOL    HW123473   7.275   5.260   2.431
40547SOL    HW223474   7.130   5.252   2.474
40548SOL     OW23475   9.663   7.477   2.077
40548SOL    HW123476   9.759   7.472   2.080
40548SOL    HW223477   9.644   7.532   2.002
40549SOL     OW23478  12.355   8.549  11.423
40549SOL    HW123479  12.347   8.577  11.332
40549SOL    HW223480  12.267   8.562  11.460
40550SOL     OW23481   4.009   6.233   1.882
40550SOL    HW123482   3.963   6.173   1.824
40550SOL    HW223483   3.963   6.316   1.872
40551SOL     OW23484  11.510  10.997  14.767
40551SOL    HW123485  11.565  10.948  14.706
40551SOL    HW223486  11.421  10.985  14.733
40552SOL     OW23487   9.421   4.778  14.664
40552SOL    HW123488   9.466   4.695  14.681
40552SOL    HW223489   9.333   4.765  14.699
40553SOL     OW23490   5.057  13.904   4.856
40553SOL    HW123491   4.973  13.858   4.849
40553SOL    HW223492   5.034  13.990   4.893
40554SOL     OW23493   4.871  13.781   0.824
40554SOL    HW123494   4.776  13.789   0.828
40554SOL    HW223495   4.894  13.720   0.894
40555SOL     OW23496  13.926  11.310  13.697
40555SOL    HW123497  13.970  11.251  13.758
40555SOL    HW223498  13.948  11.277  13.610
40556SOL     OW23499   2.042   8.759   5.530
40556SOL    HW123500   2.101   8.713   5.469
40556SOL    HW223501   1.999   8.689   5.579
40557SOL     OW23502   9.742   9.373   5.807
40557SOL    HW123503   9.755   9.460   5.772
40557SOL    HW223504   9.649   9.355   5.793
40558SOL     OW23505  13.546  13.572   8.985
40558SOL    HW123506  13.547  13.638   9.054
40558SOL    HW223507  13.459  13.580   8.945
40559SOL     OW23508   2.145  13.206  11.742
40559SOL    HW123509   2.198  13.163  11.809
40559SOL    HW223510   2.096  13.134  11.701
40560SOL     OW23511  14.059   3.015  10.802
40560SOL    HW123512  14.095   3.097  10.766
40560SOL    HW223513  13.992   3.044  10.864
40561SOL     OW23514   7.279  13.148   4.649
40561SOL    HW123515   7.233  13.179   4.570
40561SOL    HW223516   7.360  13.110   4.616
40562SOL     OW23517   9.974   7.452  14.525
40562SOL    HW123518  10.059   7.478  14.560
40562SOL    HW223519   9.940   7.531  14.485
40563SOL     OW23520   1.682   5.971   2.155
40563SOL    HW123521   1.764   5.934   2.125
40563SOL    HW223522   1.631   5.896   2.184
40564SOL     OW23523   7.053  14.454   6.496
40564SOL    HW123524   7.080  14.364   6.516
40564SOL    HW223525   7.064  14.462   6.401
40565SOL     OW23526   6.732  10.394  12.289
40565SOL    HW123527   6.643  10.374  12.262
40565SOL    HW223528   6.744  10.486  12.267
40566SOL     OW23529  10.325  12.899   3.150
40566SOL    HW123530  10.252  12.960   3.163
40566SOL    HW223531  10.378  12.940   3.081
40567SOL     OW23532   9.370  10.161   7.673
40567SOL    HW123533   9.378  10.249   7.709
40567SOL    HW223534   9.444  10.113   7.710
40568SOL     OW23535  11.176   5.131   4.288
40568SOL    HW123536  11.131   5.055   4.325
40568SOL    HW223537  11.201   5.185   4.363
40569SOL     OW23538   0.883  11.451  13.310
40569SOL    HW123539   0.929  11.390  13.253
40569SOL    HW223540   0.825  11.500  13.252
40570SOL     OW23541   9.843   4.738  12.614
40570SOL    HW123542   9.810   4.820  12.648
40570SOL    HW223543   9.767   4.680  12.610
40571SOL     OW23544   3.298  14.290  13.600
40571SOL    HW123545   3.315  14.371  13.649
40571SOL    HW223546   3.380  14.241  13.605
40572SOL     OW23547   2.416  14.207  11.490
40572SOL    HW123548   2.362  14.201  11.411
40572SOL    HW223549   2.393  14.129  11.541
40573SOL     OW23550  11.813  14.446   3.733
40573SOL    HW123551  11.759  14.444   3.655
40573SOL    HW223552  11.883  14.508   3.713
40574SOL     OW23553  10.202   3.904   6.781
40574SOL    HW123554  10.219   3.809   6.778
40574SOL    HW223555  10.287   3.943   6.801
40575SOL     OW23556  13.889   5.190   9.501
40575SOL    HW123557  13.835   5.267   9.481
40575SOL    HW223558  13.827   5.125   9.534
40576SOL     OW23559   3.973  10.450   5.135
40576SOL    HW123560   3.970  10.424   5.043
40576SOL    HW223561   4.066  10.453   5.157
40577SOL     OW23562   2.179  10.556   6.804
40577SOL    HW123563   2.185  10.462   6.825
40577SOL    HW223564   2.178  10.599   6.889
40578SOL     OW23565   5.927   5.331   4.190
40578SOL    HW123566   5.987   5.339   4.264
40578SOL    HW223567   5.964   5.388   4.123
40579SOL     OW23568   1.598  12.258  10.494
40579SOL    HW123569   1.547  12.320  10.443
40579SOL    HW223570   1.560  12.261  10.581
40580SOL     OW23571   4.914   0.440  14.031
40580SOL    HW123572   4.902   0.515  13.973
40580SOL    HW223573   4.829   0.395  14.030
40581SOL     OW23574  14.694   5.196  12.969
40581SOL    HW123575  14.770   5.179  12.913
40581SOL    HW223576  14.708   5.286  13.001
40582SOL     OW23577   8.699   3.755  10.700
40582SOL    HW123578   8.653   3.820  10.647
40582SOL    HW223579   8.792   3.773  10.685
40583SOL     OW23580  10.874   0.232   7.171
40583SOL    HW123581  10.914   0.280   7.097
40583SOL    HW223582  10.783   0.222   7.146
40584SOL     OW23583   4.507   1.019   0.892
40584SOL    HW123584   4.464   1.081   0.951
40584SOL    HW223585   4.444   0.948   0.881
40585SOL     OW23586  11.789   5.969   7.245
40585SOL    HW123587  11.799   5.938   7.155
40585SOL    HW223588  11.835   5.903   7.298
40586SOL     OW23589  11.394   6.329   4.899
40586SOL    HW123590  11.328   6.340   4.968
40586SOL    HW223591  11.352   6.361   4.820
40587SOL     OW23592  14.131   1.801   6.840
40587SOL    HW123593  14.047   1.758   6.857
40587SOL    HW223594  14.107   1.887   6.804
40588SOL     OW23595  14.736  12.975   5.856
40588SOL    HW123596  14.703  12.930   5.779
40588SOL    HW223597  14.665  12.969   5.920
40589SOL     OW23598   6.183   8.843   1.096
40589SOL    HW123599   6.172   8.784   1.170
40589SOL    HW223600   6.270   8.882   1.109
40590SOL     OW23601   3.291   6.425   1.283
40590SOL    HW123602   3.221   6.361   1.269
40590SOL    HW223603   3.289   6.443   1.377
40591SOL     OW23604  14.337  11.077   1.382
40591SOL    HW123605  14.354  11.053   1.291
40591SOL    HW223606  14.259  11.132   1.379
40592SOL     OW23607  11.621  14.777   0.307
40592SOL    HW123608  11.703  14.745   0.345
40592SOL    HW223609  11.648  14.830   0.232
40593SOL     OW23610  12.373   3.927  12.589
40593SOL    HW123611  12.312   3.960  12.656
40593SOL    HW223612  12.388   3.836  12.614
40594SOL     OW23613   9.148  11.806  13.910
40594SOL    HW123614   9.060  11.829  13.940
40594SOL    HW223615   9.133  11.733  13.849
40595SOL     OW23616   3.136   2.637   4.677
40595SOL    HW123617   3.090   2.684   4.607
40595SOL    HW223618   3.156   2.703   4.742
40596SOL     OW23619  13.183   1.161   4.677
40596SOL    HW123620  13.162   1.074   4.708
40596SOL    HW223621  13.135   1.170   4.594
40597SOL     OW23622  13.317   1.912   6.301
40597SOL    HW123623  13.331   1.900   6.395
40597SOL    HW223624  13.246   1.851   6.280
40598SOL     OW23625   0.759  11.730   3.051
40598SOL    HW123626   0.764  11.645   3.009
40598SOL    HW223627   0.812  11.787   2.995
40599SOL     OW23628   0.111   8.569  10.376
40599SOL    HW123629   0.110   8.529  10.462
40599SOL    HW223630   0.141   8.659  10.392
40600SOL     OW23631   5.971   9.365  10.818
40600SOL    HW123632   6.026   9.314  10.758
40600SOL    HW223633   5.881   9.349  10.788
40601SOL     OW23634  12.479   9.955   4.185
40601SOL    HW123635  12.427  10.020   4.234
40601SOL    HW223636  12.414   9.904   4.137
40602SOL     OW23637  13.727   3.562  14.580
40602SOL    HW123638  13.691   3.651  14.590
40602SOL    HW223639  13.698   3.517  14.660
40603SOL     OW23640   4.956   4.666   5.980
40603SOL    HW123641   5.013   4.707   6.045
40603SOL    HW223642   5.017   4.632   5.914
40604SOL     OW23643   2.026   4.407  14.607
40604SOL    HW123644   1.931   4.413  14.610
40604SOL    HW223645   2.049   4.354  14.683
40605SOL     OW23646   1.624  11.355   0.026
40605SOL    HW123647   1.551  11.409  14.871
40605SOL    HW223648   1.589  11.309   0.103
40606SOL     OW23649  13.556   6.466   9.947
40606SOL    HW123650  13.648   6.465   9.924
40606SOL    HW223651  13.541   6.383   9.993
40607SOL     OW23652  11.392  10.504  12.662
40607SOL    HW123653  11.404  10.572  12.595
40607SOL    HW223654  11.341  10.548  12.731
40608SOL     OW23655   7.854   8.080   7.005
40608SOL    HW123656   7.762   8.087   6.978
40608SOL    HW223657   7.851   8.082   7.101
40609SOL     OW23658   0.719   6.692   6.842
40609SOL    HW123659   0.803   6.650   6.860
40609SOL    HW223660   0.689   6.723   6.928
40610SOL     OW23661  13.499   1.182  10.675
40610SOL    HW123662  13.591   1.173  10.652
40610SOL    HW223663  13.456   1.111  10.629
40611SOL     OW23664   5.186  14.643   6.972
40611SOL    HW123665   5.159  14.688   7.052
40611SOL    HW223666   5.277  14.619   6.988
40612SOL     OW23667   0.100  10.154  14.460
40612SOL    HW123668   0.167  10.204  14.413
40612SOL    HW223669   0.117  10.172  14.552
40613SOL     OW23670   9.115   1.810   5.531
40613SOL    HW123671   9.098   1.770   5.616
40613SOL    HW223672   9.136   1.736   5.474
40614SOL     OW23673   8.603   3.777   3.322
40614SOL    HW123674   8.567   3.765   3.234
40614SOL    HW223675   8.601   3.871   3.337
40615SOL     OW23676  13.838  12.311   2.301
40615SOL    HW123677  13.855  12.405   2.298
40615SOL    HW223678  13.788  12.298   2.381
40616SOL     OW23679  11.279   0.962  10.940
40616SOL    HW123680  11.246   0.883  10.982
40616SOL    HW223681  11.352   0.932  10.887
40617SOL     OW23682   7.271   0.362  12.463
40617SOL    HW123683   7.243   0.303  12.393
40617SOL    HW223684   7.286   0.304  12.538
40618SOL     OW23685   9.476  14.181   6.106
40618SOL    HW123686   9.553  14.158   6.054
40618SOL    HW223687   9.423  14.234   6.047
40619SOL     OW23688   5.354   0.649  14.706
40619SOL    HW123689   5.288   0.718  14.711
40619SOL    HW223690   5.342   0.611  14.619
40620SOL     OW23691   0.646   6.474   2.173
40620SOL    HW123692   0.648   6.380   2.154
40620SOL    HW223693   0.579   6.509   2.114
40621SOL     OW23694  10.844   3.154   9.298
40621SOL    HW123695  10.820   3.225   9.237
40621SOL    HW223696  10.841   3.195   9.384
40622SOL     OW23697   6.721   1.327  12.974
40622SOL    HW123698   6.649   1.329  12.911
40622SOL    HW223699   6.678   1.311  13.058
40623SOL     OW23700   8.556   0.254  11.983
40623SOL    HW123701   8.609   0.306  11.923
40623SOL    HW223702   8.559   0.166  11.946
40624SOL     OW23703  14.183   7.953   9.613
40624SOL    HW123704  14.202   7.944   9.707
40624SOL    HW223705  14.268   7.967   9.573
40625SOL     OW23706   0.241   5.064   9.217
40625SOL    HW123707   0.269   5.151   9.243
40625SOL    HW223708   0.292   5.044   9.138
40626SOL     OW23709  13.265   7.069   1.396
40626SOL    HW123710  13.270   6.977   1.367
40626SOL    HW223711  13.263   7.120   1.315
40627SOL     OW23712   8.661   9.250  10.790
40627SOL    HW123713   8.733   9.288  10.740
40627SOL    HW223714   8.664   9.294  10.875
40628SOL     OW23715  10.443  11.602   5.968
40628SOL    HW123716  10.495  11.534   6.010
40628SOL    HW223717  10.415  11.564   5.885
40629SOL     OW23718   8.318  13.061   4.717
40629SOL    HW123719   8.297  13.146   4.755
40629SOL    HW223720   8.282  12.998   4.779
40630SOL     OW23721  13.175   0.166   8.653
40630SOL    HW123722  13.213   0.184   8.740
40630SOL    HW223723  13.086   0.201   8.658
40631SOL     OW23724   1.418   8.357   7.957
40631SOL    HW123725   1.489   8.421   7.946
40631SOL    HW223726   1.412   8.343   8.052
40632SOL     OW23727   4.508   5.682   5.109
40632SOL    HW123728   4.591   5.675   5.156
40632SOL    HW223729   4.518   5.625   5.033
40633SOL     OW23730   7.618   0.048  13.201
40633SOL    HW123731   7.621   0.045  13.106
40633SOL    HW223732   7.675   0.122  13.224
40634SOL     OW23733   5.613  14.597  11.352
40634SOL    HW123734   5.678  14.641  11.407
40634SOL    HW223735   5.617  14.644  11.269
40635SOL     OW23736   8.903   7.956  10.447
40635SOL    HW123737   8.899   7.925  10.356
40635SOL    HW223738   8.996   7.953  10.469
40636SOL     OW23739   7.927   8.733  14.774
40636SOL    HW123740   8.005   8.776  14.809
40636SOL    HW223741   7.925   8.756  14.682
40637SOL     OW23742   2.869   3.802   7.818
40637SOL    HW123743   2.875   3.760   7.904
40637SOL    HW223744   2.835   3.890   7.837
40638SOL     OW23745  11.605   1.379   9.560
40638SOL    HW123746  11.657   1.303   9.535
40638SOL    HW223747  11.559   1.352   9.639
40639SOL     OW23748  13.272   4.566   1.617
40639SOL    HW123749  13.213   4.637   1.641
40639SOL    HW223750  13.359   4.607   1.616
40640SOL     OW23751   6.337   1.499   6.523
40640SOL    HW123752   6.359   1.563   6.456
40640SOL    HW223753   6.406   1.508   6.589
40641SOL     OW23754   5.166  13.239   3.631
40641SOL    HW123755   5.190  13.294   3.705
40641SOL    HW223756   5.071  13.249   3.623
40642SOL     OW23757   0.464   7.418   8.322
40642SOL    HW123758   0.382   7.422   8.273
40642SOL    HW223759   0.441   7.377   8.405
40643SOL     OW23760   0.662   6.318   3.695
40643SOL    HW123761   0.669   6.291   3.604
40643SOL    HW223762   0.668   6.237   3.745
40644SOL     OW23763  13.856  14.543   9.196
40644SOL    HW123764  13.764  14.566   9.207
40644SOL    HW223765  13.863  14.454   9.229
40645SOL     OW23766  10.627   2.717   8.537
40645SOL    HW123767  10.543   2.758   8.516
40645SOL    HW223768  10.683   2.735   8.462
40646SOL     OW23769  10.082   2.060  14.289
40646SOL    HW123770  10.065   1.968  14.270
40646SOL    HW223771  10.166   2.060  14.335
40647SOL     OW23772   8.262  10.316   3.825
40647SOL    HW123773   8.320  10.377   3.871
40647SOL    HW223774   8.277  10.333   3.732
40648SOL     OW23775  12.755   7.800   7.528
40648SOL    HW123776  12.785   7.760   7.446
40648SOL    HW223777  12.784   7.891   7.522
40649SOL     OW23778   2.167   5.311  14.053
40649SOL    HW123779   2.210   5.383  14.098
40649SOL    HW223780   2.080   5.306  14.092
40650SOL     OW23781  13.310   6.133  11.486
40650SOL    HW123782  13.336   6.219  11.520
40650SOL    HW223783  13.309   6.076  11.563
40651SOL     OW23784   5.507  13.780   9.016
40651SOL    HW123785   5.522  13.687   9.029
40651SOL    HW223786   5.412  13.791   9.024
40652SOL     OW23787  12.556   2.672   3.180
40652SOL    HW123788  12.591   2.755   3.146
40652SOL    HW223789  12.465   2.692   3.201
40653SOL     OW23790   8.781   1.979   1.199
40653SOL    HW123791   8.789   1.895   1.154
40653SOL    HW223792   8.687   1.994   1.207
40654SOL     OW23793  12.235   8.252   1.548
40654SOL    HW123794  12.257   8.311   1.620
40654SOL    HW223795  12.261   8.299   1.469
40655SOL     OW23796   6.034  14.152   7.148
40655SOL    HW123797   6.128  14.170   7.137
40655SOL    HW223798   6.031  14.063   7.182
40656SOL     OW23799   5.645   2.947  13.958
40656SOL    HW123800   5.700   2.881  14.000
40656SOL    HW223801   5.667   2.942  13.865
40657SOL     OW23802  12.509   5.702   0.988
40657SOL    HW123803  12.602   5.725   0.980
40657SOL    HW223804  12.508   5.626   1.046
40658SOL     OW23805   2.993  12.092   1.426
40658SOL    HW123806   3.051  12.143   1.370
40658SOL    HW223807   3.009  12.125   1.514
40659SOL     OW23808   8.970   7.366   5.096
40659SOL    HW123809   8.967   7.341   5.188
40659SOL    HW223810   8.947   7.459   5.096
40660SOL     OW23811   3.987   6.671   3.737
40660SOL    HW123812   4.068   6.620   3.732
40660SOL    HW223813   3.958   6.680   3.646
40661SOL     OW23814  10.938   0.153   2.343
40661SOL    HW123815  10.859   0.171   2.394
40661SOL    HW223816  11.001   0.218   2.374
40662SOL     OW23817   4.831   7.952   0.518
40662SOL    HW123818   4.841   7.984   0.607
40662SOL    HW223819   4.791   8.024   0.470
40663SOL     OW23820   1.692   4.587   7.877
40663SOL    HW123821   1.786   4.585   7.863
40663SOL    HW223822   1.682   4.591   7.972
40664SOL     OW23823   7.962   2.480   7.776
40664SOL    HW123824   7.990   2.551   7.833
40664SOL    HW223825   8.022   2.409   7.795
40665SOL     OW23826  11.797  12.384   9.373
40665SOL    HW123827  11.802  12.478   9.394
40665SOL    HW223828  11.873  12.368   9.317
40666SOL     OW23829   8.174  12.129  13.967
40666SOL    HW123830   8.196  12.212  14.011
40666SOL    HW223831   8.080  12.120  13.981
40667SOL     OW23832   7.423   5.202  11.490
40667SOL    HW123833   7.357   5.188  11.422
40667SOL    HW223834   7.400   5.139  11.559
40668SOL     OW23835  10.793   0.129  11.524
40668SOL    HW123836  10.785   0.207  11.469
40668SOL    HW223837  10.881   0.136  11.562
40669SOL     OW23838   1.038  11.108   4.048
40669SOL    HW123839   0.985  11.111   3.968
40669SOL    HW223840   1.024  11.194   4.089
40670SOL     OW23841   5.707  10.550   4.648
40670SOL    HW123842   5.773  10.608   4.611
40670SOL    HW223843   5.755  10.469   4.669
40671SOL     OW23844   3.689  12.135   6.785
40671SOL    HW123845   3.667  12.179   6.703
40671SOL    HW223846   3.736  12.056   6.758
40672SOL     OW23847  10.946   0.754  13.672
40672SOL    HW123848  10.898   0.756  13.589
40672SOL    HW223849  10.943   0.662  13.699
40673SOL     OW23850   5.379   4.782   8.270
40673SOL    HW123851   5.446   4.717   8.252
40673SOL    HW223852   5.317   4.738   8.328
40674SOL     OW23853   2.106   6.041  14.666
40674SOL    HW123854   2.075   6.036  14.756
40674SOL    HW223855   2.106   6.134  14.645
40675SOL     OW23856   0.212   4.821  14.509
40675SOL    HW123857   0.157   4.761  14.558
40675SOL    HW223858   0.286   4.767  14.481
40676SOL     OW23859  10.333   5.330   6.660
40676SOL    HW123860  10.339   5.380   6.742
40676SOL    HW223861  10.420   5.292   6.649
40677SOL     OW23862   0.473   7.137   6.228
40677SOL    HW123863   0.538   7.102   6.289
40677SOL    HW223864   0.400   7.074   6.233
40678SOL     OW23865   9.641   9.887   0.544
40678SOL    HW123866   9.705   9.903   0.474
40678SOL    HW223867   9.680   9.925   0.622
40679SOL     OW23868   4.589   6.847   4.343
40679SOL    HW123869   4.590   6.813   4.253
40679SOL    HW223870   4.498   6.837   4.371
40680SOL     OW23871  13.470  13.250   1.705
40680SOL    HW123872  13.555  13.275   1.669
40680SOL    HW223873  13.408  13.264   1.634
40681SOL     OW23874  14.154   6.521   6.773
40681SOL    HW123875  14.126   6.481   6.691
40681SOL    HW223876  14.096   6.482   6.839
40682SOL     OW23877  14.232  13.866  13.506
40682SOL    HW123878  14.183  13.937  13.549
40682SOL    HW223879  14.165  13.801  13.485
40683SOL     OW23880  10.919   1.980  14.507
40683SOL    HW123881  11.010   1.962  14.530
40683SOL    HW223882  10.905   2.071  14.532
40684SOL     OW23883   8.350   0.693   1.677
40684SOL    HW123884   8.346   0.614   1.732
40684SOL    HW223885   8.259   0.720   1.667
40685SOL     OW23886   6.975   5.336   5.228
40685SOL    HW123887   7.054   5.301   5.269
40685SOL    HW223888   6.903   5.304   5.282
40686SOL     OW23889  10.188  13.103   3.593
40686SOL    HW123890  10.281  13.110   3.572
40686SOL    HW223891  10.176  13.012   3.619
40687SOL     OW23892   9.104   3.967   3.895
40687SOL    HW123893   9.188   3.970   3.849
40687SOL    HW223894   9.097   3.877   3.926
40688SOL     OW23895  13.216   3.308   0.246
40688SOL    HW123896  13.245   3.238   0.186
40688SOL    HW223897  13.296   3.359   0.263
40689SOL     OW23898   5.513  14.504   6.902
40689SOL    HW123899   5.543  14.516   6.812
40689SOL    HW223900   5.502  14.593   6.935
40690SOL     OW23901   7.640  13.723  11.114
40690SOL    HW123902   7.668  13.645  11.162
40690SOL    HW223903   7.559  13.697  11.071
40691SOL     OW23904   2.424  13.213   1.547
40691SOL    HW123905   2.388  13.209   1.636
40691SOL    HW223906   2.389  13.135   1.504
40692SOL     OW23907   2.213  13.311   1.323
40692SOL    HW123908   2.233  13.218   1.330
40692SOL    HW223909   2.237  13.347   1.408
40693SOL     OW23910   5.986   6.399  11.309
40693SOL    HW123911   5.941   6.467  11.359
40693SOL    HW223912   5.923   6.328  11.301
40694SOL     OW23913  11.749   2.282   5.331
40694SOL    HW123914  11.712   2.237   5.255
40694SOL    HW223915  11.694   2.254   5.404
40695SOL     OW23916  12.463   5.956  13.047
40695SOL    HW123917  12.443   6.040  13.088
40695SOL    HW223918  12.549   5.931  13.083
40696SOL     OW23919   3.018  14.712   3.752
40696SOL    HW123920   2.935  14.678   3.788
40696SOL    HW223921   3.011  14.696   3.658
40697SOL     OW23922   0.121   6.581   1.338
40697SOL    HW123923   0.085   6.585   1.426
40697SOL    HW223924   0.212   6.610   1.347
40698SOL     OW23925   9.537  13.903   4.256
40698SOL    HW123926   9.566  13.917   4.346
40698SOL    HW223927   9.576  13.975   4.207
40699SOL     OW23928  13.684  14.594  11.880
40699SOL    HW123929  13.613  14.579  11.942
40699SOL    HW223930  13.761  14.611  11.936
40700SOL     OW23931  14.163  10.908   2.199
40700SOL    HW123932  14.133  10.946   2.281
40700SOL    HW223933  14.091  10.922   2.137
40701SOL     OW23934   7.887   6.292  13.279
40701SOL    HW123935   7.883   6.362  13.214
40701SOL    HW223936   7.974   6.301  13.318
40702SOL     OW23937   0.413   8.864   1.788
40702SOL    HW123938   0.380   8.775   1.783
40702SOL    HW223939   0.340   8.915   1.824
40703SOL     OW23940  12.564   2.913   7.280
40703SOL    HW123941  12.656   2.931   7.300
40703SOL    HW223942  12.542   2.838   7.336
40704SOL     OW23943  11.201   2.013  12.384
40704SOL    HW123944  11.235   2.100  12.366
40704SOL    HW223945  11.189   2.011  12.479
40705SOL     OW23946  12.276   7.954   2.456
40705SOL    HW123947  12.260   8.006   2.377
40705SOL    HW223948  12.346   7.895   2.432
40706SOL     OW23949   7.243   2.579   0.164
40706SOL    HW123950   7.283   2.536   0.089
40706SOL    HW223951   7.163   2.619   0.128
40707SOL     OW23952   6.905   0.490   2.384
40707SOL    HW123953   6.996   0.467   2.367
40707SOL    HW223954   6.909   0.545   2.463
40708SOL     OW23955   3.140   7.872   4.131
40708SOL    HW123956   3.232   7.872   4.107
40708SOL    HW223957   3.110   7.961   4.111
40709SOL     OW23958   6.390  14.062  14.379
40709SOL    HW123959   6.467  14.007  14.392
40709SOL    HW223960   6.358  14.039  14.292
40710SOL     OW23961  10.368   1.520   9.496
40710SOL    HW123962  10.426   1.450   9.527
40710SOL    HW223963  10.393   1.532   9.405
40711SOL     OW23964   5.049  14.490  14.593
40711SOL    HW123965   5.015  14.565  14.641
40711SOL    HW223966   5.087  14.528  14.514
40712SOL     OW23967  10.576   1.408   3.962
40712SOL    HW123968  10.636   1.413   3.888
40712SOL    HW223969  10.527   1.490   3.959
40713SOL     OW23970   8.094  11.432   0.008
40713SOL    HW123971   8.170  11.375  14.870
40713SOL    HW223972   8.029  11.375   0.049
40714SOL     OW23973   3.638   9.302   0.558
40714SOL    HW123974   3.662   9.394   0.556
40714SOL    HW223975   3.636   9.280   0.651
40715SOL     OW23976   8.796   8.771   0.223
40715SOL    HW123977   8.774   8.683   0.193
40715SOL    HW223978   8.888   8.783   0.199
40716SOL     OW23979   6.892   6.348   6.470
40716SOL    HW123980   6.883   6.254   6.482
40716SOL    HW223981   6.980   6.368   6.501
40717SOL     OW23982   9.469   3.378  13.186
40717SOL    HW123983   9.451   3.409  13.097
40717SOL    HW223984   9.453   3.455  13.241
40718SOL     OW23985   1.833   0.338   2.702
40718SOL    HW123986   1.885   0.257   2.696
40718SOL    HW223987   1.746   0.313   2.672
40719SOL     OW23988   9.864  13.270   6.821
40719SOL    HW123989   9.894  13.253   6.732
40719SOL    HW223990   9.944  13.277   6.873
40720SOL     OW23991  10.817   8.373  10.230
40720SOL    HW123992  10.752   8.359  10.299
40720SOL    HW223993  10.809   8.296  10.174
40721SOL     OW23994   0.117   5.968  10.552
40721SOL    HW123995   0.073   5.973  10.467
40721SOL    HW223996   0.187   6.033  10.547
40722SOL     OW23997  12.505  10.133  11.829
40722SOL    HW123998  12.445  10.090  11.768
40722SOL    HW223999  12.478  10.225  11.829
40723SOL     OW24000  14.390   4.033   5.261
40723SOL    HW124001  14.333   3.990   5.324
40723SOL    HW224002  14.331   4.084   5.206
40724SOL     OW24003   8.501  12.416  11.348
40724SOL    HW124004   8.464  12.467  11.275
40724SOL    HW224005   8.587  12.456  11.364
40725SOL     OW24006   6.821   9.355   4.171
40725SOL    HW124007   6.889   9.307   4.218
40725SOL    HW224008   6.809   9.435   4.222
40726SOL     OW24009  13.890   2.913  13.735
40726SOL    HW124010  13.980   2.919  13.702
40726SOL    HW224011  13.900   2.918  13.830
40727SOL     OW24012   6.635  14.266   6.402
40727SOL    HW124013   6.677  14.225   6.327
40727SOL    HW224014   6.552  14.300   6.368
40728SOL     OW24015   7.933   0.096   8.835
40728SOL    HW124016   7.999   0.051   8.888
40728SOL    HW224017   7.853   0.045   8.847
40729SOL     OW24018  12.300   7.387  12.876
40729SOL    HW124019  12.279   7.300  12.842
40729SOL    HW224020  12.375   7.415  12.824
40730SOL     OW24021   7.546   1.293   3.500
40730SOL    HW124022   7.461   1.283   3.542
40730SOL    HW224023   7.536   1.250   3.415
40731SOL     OW24024   7.269   4.594   9.197
40731SOL    HW124025   7.336   4.656   9.165
40731SOL    HW224026   7.186   4.633   9.170
40732SOL     OW24027  10.911   2.494   1.608
40732SOL    HW124028  10.964   2.550   1.551
40732SOL    HW224029  10.966   2.477   1.684
40733SOL     OW24030  14.608   0.698   4.512
40733SOL    HW124031  14.698   0.678   4.487
40733SOL    HW224032  14.583   0.626   4.571
40734SOL     OW24033  10.805   9.502  13.338
40734SOL    HW124034  10.720   9.460  13.353
40734SOL    HW224035  10.831   9.473  13.250
40735SOL     OW24036   9.795   4.477   4.442
40735SOL    HW124037   9.753   4.552   4.402
40735SOL    HW224038   9.775   4.404   4.383
40736SOL     OW24039   5.787  14.000   1.658
40736SOL    HW124040   5.743  14.075   1.699
40736SOL    HW224041   5.751  13.924   1.703
40737SOL     OW24042   2.173   3.038   7.258
40737SOL    HW124043   2.097   2.981   7.242
40737SOL    HW224044   2.217   2.998   7.333
40738SOL     OW24045   2.821   8.061   6.933
40738SOL    HW124046   2.899   8.012   6.907
40738SOL    HW224047   2.852   8.151   6.944
40739SOL     OW24048   3.415  12.471  13.971
40739SOL    HW124049   3.356  12.425  13.913
40739SOL    HW224050   3.485  12.503  13.914
40740SOL     OW24051   6.473   7.582   4.701
40740SOL    HW124052   6.414   7.649   4.667
40740SOL    HW224053   6.425   7.541   4.773
40741SOL     OW24054  14.030   7.325  12.605
40741SOL    HW124055  14.076   7.264  12.663
40741SOL    HW224056  14.005   7.271  12.530
40742SOL     OW24057  11.353  13.788   2.320
40742SOL    HW124058  11.282  13.728   2.338
40742SOL    HW224059  11.363  13.840   2.400
40743SOL     OW24060   2.712   2.569   2.278
40743SOL    HW124061   2.656   2.639   2.310
40743SOL    HW224062   2.798   2.588   2.315
40744SOL     OW24063   4.178  11.361   6.515
40744SOL    HW124064   4.185  11.452   6.486
40744SOL    HW224065   4.205  11.363   6.606
40745SOL     OW24066  11.757   6.406   1.868
40745SOL    HW124067  11.716   6.359   1.796
40745SOL    HW224068  11.759   6.342   1.940
40746SOL     OW24069   6.071   7.038   9.154
40746SOL    HW124070   6.088   6.947   9.129
40746SOL    HW224071   6.088   7.041   9.248
40747SOL     OW24072  10.123   6.724  10.580
40747SOL    HW124073  10.201   6.720  10.635
40747SOL    HW224074  10.134   6.653  10.517
40748SOL     OW24075   0.110   5.586   5.624
40748SOL    HW124076   0.190   5.606   5.673
40748SOL    HW224077   0.042   5.634   5.671
40749SOL     OW24078   6.497   1.979  10.227
40749SOL    HW124079   6.480   2.060  10.274
40749SOL    HW224080   6.536   2.007  10.144
40750SOL     OW24081  13.666  10.353  12.081
40750SOL    HW124082  13.672  10.270  12.033
40750SOL    HW224083  13.627  10.414  12.019
40751SOL     OW24084  12.242   0.391  13.888
40751SOL    HW124085  12.299   0.434  13.825
40751SOL    HW224086  12.264   0.431  13.972
40752SOL     OW24087  14.238  12.534  13.685
40752SOL    HW124088  14.235  12.608  13.625
40752SOL    HW224089  14.315  12.484  13.657
40753SOL     OW24090   4.926   4.056   5.321
40753SOL    HW124091   4.977   3.984   5.283
40753SOL    HW224092   4.909   4.115   5.248
40754SOL     OW24093  13.579   7.056   2.262
40754SOL    HW124094  13.556   6.986   2.201
40754SOL    HW224095  13.610   7.010   2.340
40755SOL     OW24096   4.651  11.916   0.062
40755SOL    HW124097   4.680  11.827   0.080
40755SOL    HW224098   4.719  11.972   0.101
40756SOL     OW24099  11.021   3.808  11.060
40756SOL    HW124100  10.943   3.762  11.089
40756SOL    HW224101  11.056   3.849  11.139
40757SOL     OW24102   7.086  12.459  12.014
40757SOL    HW124103   7.010  12.460  12.073
40757SOL    HW224104   7.126  12.374  12.029
40758SOL     OW24105  14.470   4.405   8.992
40758SOL    HW124106  14.509   4.439   8.911
40758SOL    HW224107  14.397   4.351   8.962
40759SOL     OW24108  14.134   1.992   9.356
40759SOL    HW124109  14.108   2.045   9.281
40759SOL    HW224110  14.193   1.926   9.320
40760SOL     OW24111   1.299   9.323   4.735
40760SOL    HW124112   1.219   9.321   4.683
40760SOL    HW224113   1.287   9.254   4.800
40761SOL     OW24114   0.973   8.123  14.025
40761SOL    HW124115   1.060   8.162  14.034
40761SOL    HW224116   0.920   8.170  14.090
40762SOL     OW24117   7.123   4.206   0.038
40762SOL    HW124118   7.054   4.268   0.060
40762SOL    HW224119   7.076   4.125   0.017
40763SOL     OW24120  10.773   4.428  11.540
40763SOL    HW124121  10.775   4.339  11.575
40763SOL    HW224122  10.688   4.463  11.569
40764SOL     OW24123   4.386   2.409   3.740
40764SOL    HW124124   4.381   2.327   3.691
40764SOL    HW224125   4.461   2.397   3.799
40765SOL     OW24126   4.755  10.555  14.203
40765SOL    HW124127   4.697  10.602  14.264
40765SOL    HW224128   4.711  10.471  14.188
40766SOL     OW24129  13.870   8.097  12.851
40766SOL    HW124130  13.911   8.115  12.936
40766SOL    HW224131  13.817   8.175  12.833
40767SOL     OW24132  10.603  11.476  13.305
40767SOL    HW124133  10.675  11.528  13.267
40767SOL    HW224134  10.547  11.541  13.347
40768SOL     OW24135   2.300   7.025   4.640
40768SOL    HW124136   2.257   7.108   4.660
40768SOL    HW224137   2.393   7.046   4.637
40769SOL     OW24138   8.812   8.566   3.395
40769SOL    HW124139   8.793   8.644   3.344
40769SOL    HW224140   8.878   8.593   3.458
40770SOL     OW24141   6.309  10.905   0.075
40770SOL    HW124142   6.266  10.985   0.043
40770SOL    HW224143   6.396  10.908   0.036
40771SOL     OW24144   9.872  12.145  14.324
40771SOL    HW124145   9.953  12.104  14.292
40771SOL    HW224146   9.888  12.160  14.417
40772SOL     OW24147   0.523   8.142  12.471
40772SOL    HW124148   0.554   8.066  12.420
40772SOL    HW224149   0.585   8.211  12.451
40773SOL     OW24150   8.450   2.409   5.666
40773SOL    HW124151   8.466   2.348   5.739
40773SOL    HW224152   8.509   2.380   5.597
40774SOL     OW24153  13.727   9.447   2.696
40774SOL    HW124154  13.687   9.518   2.746
40774SOL    HW224155  13.734   9.481   2.607
40775SOL     OW24156   7.394  13.907   7.150
40775SOL    HW124157   7.451  13.832   7.162
40775SOL    HW224158   7.357  13.896   7.063
40776SOL     OW24159   7.092   0.998   6.917
40776SOL    HW124160   7.034   1.066   6.883
40776SOL    HW224161   7.150   1.044   6.977
40777SOL     OW24162  12.405  10.471   7.138
40777SOL    HW124163  12.452  10.473   7.055
40777SOL    HW224164  12.441  10.545   7.187
40778SOL     OW24165   1.665   5.627   3.459
40778SOL    HW124166   1.573   5.636   3.486
40778SOL    HW224167   1.668   5.543   3.414
40779SOL     OW24168   1.947  14.516  10.888
40779SOL    HW124169   1.964  14.593  10.834
40779SOL    HW224170   2.028  14.465  10.883
40780SOL     OW24171  12.667   5.604  10.604
40780SOL    HW124172  12.693   5.595  10.695
40780SOL    HW224173  12.578   5.568  10.600
40781SOL     OW24174   9.672  14.013   0.200
40781SOL    HW124175   9.744  14.047   0.253
40781SOL    HW224176   9.624  14.090   0.172
40782SOL     OW24177  11.311   1.568   1.195
40782SOL    HW124178  11.262   1.596   1.118
40782SOL    HW224179  11.360   1.645   1.223
40783SOL     OW24180  11.700   1.433   3.573
40783SOL    HW124181  11.624   1.409   3.520
40783SOL    HW224182  11.752   1.353   3.577
40784SOL     OW24183  10.743   9.700   1.360
40784SOL    HW124184  10.798   9.719   1.436
40784SOL    HW224185  10.678   9.638   1.393
40785SOL     OW24186  11.176   8.801   9.123
40785SOL    HW124187  11.155   8.799   9.029
40785SOL    HW224188  11.272   8.811   9.125
40786SOL     OW24189  10.615  11.464  10.324
40786SOL    HW124190  10.598  11.549  10.366
40786SOL    HW224191  10.683  11.483  10.260
40787SOL     OW24192  13.073   6.125   5.325
40787SOL    HW124193  13.028   6.048   5.292
40787SOL    HW224194  13.163   6.117   5.292
40788SOL     OW24195   1.370   0.899   1.588
40788SOL    HW124196   1.460   0.930   1.602
40788SOL    HW224197   1.345   0.858   1.671
40789SOL     OW24198  13.890   1.953   5.018
40789SOL    HW124199  13.919   1.882   5.075
40789SOL    HW224200  13.803   1.926   4.989
40790SOL     OW24201   4.809   5.226  11.171
40790SOL    HW124202   4.767   5.142  11.150
40790SOL    HW224203   4.860   5.208  11.250
40791SOL     OW24204   9.383  13.826  10.448
40791SOL    HW124205   9.378  13.731  10.441
40791SOL    HW224206   9.475  13.847  10.431
40792SOL     OW24207   4.307   7.311   9.573
40792SOL    HW124208   4.379   7.373   9.567
40792SOL    HW224209   4.330   7.254   9.646
40793SOL     OW24210   4.130   3.593   7.180
40793SOL    HW124211   4.199   3.560   7.122
40793SOL    HW224212   4.125   3.527   7.250
40794SOL     OW24213   5.937   4.496  11.797
40794SOL    HW124214   5.970   4.576  11.840
40794SOL    HW224215   5.872   4.461  11.857
40795SOL     OW24216   3.735  10.403  14.744
40795SOL    HW124217   3.688  10.487  14.740
40795SOL    HW224218   3.667  10.339  14.764
40796SOL     OW24219   1.476   1.860  10.512
40796SOL    HW124220   1.482   1.927  10.444
40796SOL    HW224221   1.550   1.877  10.569
40797SOL     OW24222  13.870   8.778   5.474
40797SOL    HW124223  13.941   8.805   5.533
40797SOL    HW224224  13.874   8.841   5.402
40798SOL     OW24225  12.706   5.401  13.403
40798SOL    HW124226  12.774   5.373  13.464
40798SOL    HW224227  12.721   5.495  13.393
40799SOL     OW24228   7.145   2.258  13.785
40799SOL    HW124229   7.202   2.318  13.834
40799SOL    HW224230   7.058   2.297  13.790
40800SOL     OW24231  10.295  13.072  11.165
40800SOL    HW124232  10.320  12.980  11.168
40800SOL    HW224233  10.204  13.074  11.196
40801SOL     OW24234   8.917  11.667   8.721
40801SOL    HW124235   8.911  11.739   8.657
40801SOL    HW224236   8.900  11.588   8.670
40802SOL     OW24237  14.238  11.974   8.028
40802SOL    HW124238  14.256  12.024   8.107
40802SOL    HW224239  14.258  12.034   7.956
40803SOL     OW24240   0.156   1.940   8.248
40803SOL    HW124241   0.131   2.032   8.251
40803SOL    HW224242   0.162   1.920   8.154
40804SOL     OW24243   0.962   2.891  11.308
40804SOL    HW124244   1.043   2.920  11.349
40804SOL    HW224245   0.966   2.925  11.219
40805SOL     OW24246  12.659   6.793  12.362
40805SOL    HW124247  12.677   6.888  12.361
40805SOL    HW224248  12.575   6.784  12.316
40806SOL     OW24249   7.671  13.424  11.064
40806SOL    HW124250   7.629  13.376  11.135
40806SOL    HW224251   7.608  13.419  10.992
40807SOL     OW24252   4.104  11.662   5.997
40807SOL    HW124253   4.110  11.568   5.985
40807SOL    HW224254   4.029  11.674   6.056
40808SOL     OW24255   3.777   4.889   1.469
40808SOL    HW124256   3.837   4.917   1.538
40808SOL    HW224257   3.707   4.843   1.515
40809SOL     OW24258   4.108   8.943   3.535
40809SOL    HW124259   4.027   8.913   3.575
40809SOL    HW224260   4.165   8.963   3.609
40810SOL     OW24261   7.962   4.290  14.250
40810SOL    HW124262   8.005   4.255  14.328
40810SOL    HW224263   7.917   4.369  14.281
40811SOL     OW24264  11.657   8.171   0.389
40811SOL    HW124265  11.727   8.187   0.452
40811SOL    HW224266  11.602   8.249   0.393
40812SOL     OW24267   8.820  10.964   6.340
40812SOL    HW124268   8.900  10.912   6.330
40812SOL    HW224269   8.813  11.011   6.257
40813SOL     OW24270  14.682   5.117   1.341
40813SOL    HW124271  14.743   5.108   1.268
40813SOL    HW224272  14.636   5.199   1.325
40814SOL     OW24273   8.826   9.499   4.745
40814SOL    HW124274   8.888   9.570   4.730
40814SOL    HW224275   8.859   9.426   4.693
40815SOL     OW24276   4.210   8.762   5.242
40815SOL    HW124277   4.297   8.737   5.212
40815SOL    HW224278   4.180   8.828   5.180
40816SOL     OW24279  13.190   9.994   0.198
40816SOL    HW124280  13.162   9.902   0.203
40816SOL    HW224281  13.284   9.992   0.217
40817SOL     OW24282   8.724   3.108   8.524
40817SOL    HW124283   8.634   3.087   8.551
40817SOL    HW224284   8.714   3.161   8.446
40818SOL     OW24285   7.612  11.133   8.169
40818SOL    HW124286   7.624  11.038   8.165
40818SOL    HW224287   7.548  11.152   8.100
40819SOL     OW24288   4.709   4.445   4.646
40819SOL    HW124289   4.628   4.453   4.595
40819SOL    HW224290   4.744   4.359   4.622
40820SOL     OW24291  12.812  11.254   1.260
40820SOL    HW124292  12.867  11.249   1.339
40820SOL    HW224293  12.783  11.345   1.257
40821SOL     OW24294   4.751  12.446   9.335
40821SOL    HW124295   4.722  12.530   9.299
40821SOL    HW224296   4.826  12.421   9.280
40822SOL     OW24297   0.909  10.344   9.578
40822SOL    HW124298   0.911  10.435   9.545
40822SOL    HW224299   0.975  10.299   9.526
40823SOL     OW24300  13.582   9.198   4.992
40823SOL    HW124301  13.626   9.205   5.077
40823SOL    HW224302  13.567   9.288   4.965
40824SOL     OW24303   3.640   4.990   2.198
40824SOL    HW124304   3.713   5.045   2.169
40824SOL    HW224305   3.563   5.047   2.190
40825SOL     OW24306  14.288   0.092   7.897
40825SOL    HW124307  14.336   0.013   7.921
40825SOL    HW224308  14.208   0.089   7.951
40826SOL     OW24309   5.153  12.865  14.577
40826SOL    HW124310   5.153  12.769  14.580
40826SOL    HW224311   5.184  12.886  14.489
40827SOL     OW24312  14.437   3.296   3.458
40827SOL    HW124313  14.430   3.318   3.551
40827SOL    HW224314  14.413   3.377   3.413
40828SOL     OW24315   1.688  12.813   0.681
40828SOL    HW124316   1.618  12.866   0.644
40828SOL    HW224317   1.768  12.848   0.642
40829SOL     OW24318   7.175   1.467  13.938
40829SOL    HW124319   7.223   1.406  13.883
40829SOL    HW224320   7.146   1.414  14.012
40830SOL     OW24321   7.849   7.856  10.456
40830SOL    HW124322   7.923   7.803  10.486
40830SOL    HW224323   7.845   7.929  10.517
40831SOL     OW24324  12.843   8.418   1.963
40831SOL    HW124325  12.868   8.443   1.874
40831SOL    HW224326  12.793   8.493   1.995
40832SOL     OW24327  11.705   2.302   3.651
40832SOL    HW124328  11.676   2.321   3.740
40832SOL    HW224329  11.676   2.212   3.636
40833SOL     OW24330   5.182   7.815   5.605
40833SOL    HW124331   5.277   7.816   5.615
40833SOL    HW224332   5.165   7.878   5.534
40834SOL     OW24333   5.360  14.443  14.582
40834SOL    HW124334   5.303  14.379  14.626
40834SOL    HW224335   5.447  14.425  14.617
40835SOL     OW24336   6.802   5.774   4.378
40835SOL    HW124337   6.715   5.816   4.384
40835SOL    HW224338   6.861   5.846   4.354
40836SOL     OW24339   0.972   3.594   0.787
40836SOL    HW124340   0.987   3.685   0.815
40836SOL    HW224341   0.885   3.596   0.746
40837SOL     OW24342   2.460   2.780   5.409
40837SOL    HW124343   2.447   2.867   5.446
40837SOL    HW224344   2.555   2.768   5.409
40838SOL     OW24345   3.305   4.769   0.126
40838SOL    HW124346   3.302   4.860   0.097
40838SOL    HW224347   3.255   4.769   0.208
40839SOL     OW24348  12.712   4.532   2.597
40839SOL    HW124349  12.767   4.470   2.548
40839SOL    HW224350  12.775   4.590   2.640
40840SOL     OW24351   1.308  10.829  12.903
40840SOL    HW124352   1.227  10.868  12.868
40840SOL    HW224353   1.286  10.737  12.916
40841SOL     OW24354   2.557   1.264   6.006
40841SOL    HW124355   2.587   1.209   5.934
40841SOL    HW224356   2.465   1.238   6.019
40842SOL     OW24357   7.641  12.525   8.828
40842SOL    HW124358   7.616  12.519   8.920
40842SOL    HW224359   7.666  12.435   8.804
40843SOL     OW24360  13.045   1.740   2.541
40843SOL    HW124361  13.026   1.706   2.629
40843SOL    HW224362  12.985   1.692   2.483
40844SOL     OW24363   0.197   8.593  14.578
40844SOL    HW124364   0.137   8.541  14.633
40844SOL    HW224365   0.276   8.602  14.631
40845SOL     OW24366   1.439   4.991  13.813
40845SOL    HW124367   1.525   5.008  13.852
40845SOL    HW224368   1.389   5.071  13.830
40846SOL     OW24369   1.415   3.125   2.648
40846SOL    HW124370   1.389   3.033   2.643
40846SOL    HW224371   1.482   3.135   2.581
40847SOL     OW24372   5.575   3.949  10.597
40847SOL    HW124373   5.526   3.867  10.587
40847SOL    HW224374   5.662   3.928  10.563
40848SOL     OW24375  12.577   7.840  13.650
40848SOL    HW124376  12.489   7.848  13.612
40848SOL    HW224377  12.612   7.929  13.648
40849SOL     OW24378  10.827   3.228  12.478
40849SOL    HW124379  10.803   3.176  12.401
40849SOL    HW224380  10.834   3.165  12.549
40850SOL     OW24381   0.738   7.184  11.936
40850SOL    HW124382   0.756   7.099  11.895
40850SOL    HW224383   0.768   7.174  12.026
40851SOL     OW24384  11.120   9.720  12.155
40851SOL    HW124385  11.181   9.670  12.102
40851SOL    HW224386  11.078   9.655  12.211
40852SOL     OW24387  13.992   9.671   9.160
40852SOL    HW124388  14.083   9.698   9.144
40852SOL    HW224389  13.991   9.642   9.251
40853SOL     OW24390   0.145  11.887   8.872
40853SOL    HW124391   0.115  11.836   8.947
40853SOL    HW224392   0.076  11.875   8.806
40854SOL     OW24393  12.007   6.766   3.418
40854SOL    HW124394  12.027   6.691   3.475
40854SOL    HW224395  12.093   6.798   3.389
40855SOL     OW24396  10.432  10.277   1.282
40855SOL    HW124397  10.487  10.200   1.296
40855SOL    HW224398  10.487  10.351   1.309
40856SOL     OW24399   5.920   9.592   0.293
40856SOL    HW124400   5.864   9.524   0.256
40856SOL    HW224401   5.875   9.674   0.273
40857SOL     OW24402  11.893   7.833   3.655
40857SOL    HW124403  11.927   7.829   3.566
40857SOL    HW224404  11.896   7.742   3.686
40858SOL     OW24405   7.484   9.764   8.873
40858SOL    HW124406   7.464   9.764   8.966
40858SOL    HW224407   7.517   9.675   8.856
40859SOL     OW24408   6.395   7.576  12.038
40859SOL    HW124409   6.341   7.503  12.011
40859SOL    HW224410   6.391   7.574  12.134
40860SOL     OW24411   3.710   2.404   2.730
40860SOL    HW124412   3.646   2.475   2.725
40860SOL    HW224413   3.665   2.328   2.695
40861SOL     OW24414   8.191   4.135   4.812
40861SOL    HW124415   8.151   4.079   4.745
40861SOL    HW224416   8.146   4.219   4.803
40862SOL     OW24417  14.203   5.013  14.502
40862SOL    HW124418  14.137   4.960  14.458
40862SOL    HW224419  14.254   4.950  14.554
40863SOL     OW24420  13.321   9.771   4.184
40863SOL    HW124421  13.292   9.799   4.270
40863SOL    HW224422  13.394   9.711   4.202
40864SOL     OW24423   7.270  13.772   0.339
40864SOL    HW124424   7.212  13.837   0.300
40864SOL    HW224425   7.219  13.691   0.337
40865SOL     OW24426   5.193  13.013   9.380
40865SOL    HW124427   5.234  13.062   9.309
40865SOL    HW224428   5.266  12.980   9.433
40866SOL     OW24429   9.988  12.590  10.129
40866SOL    HW124430   9.923  12.568  10.194
40866SOL    HW224431  10.034  12.508  10.111
40867SOL     OW24432   9.495   5.562   6.056
40867SOL    HW124433   9.461   5.486   6.009
40867SOL    HW224434   9.556   5.603   5.995
40868SOL     OW24435   3.187   8.060   9.718
40868SOL    HW124436   3.221   8.075   9.630
40868SOL    HW224437   3.251   8.101   9.776
40869SOL     OW24438   8.692   9.471   1.546
40869SOL    HW124439   8.774   9.423   1.542
40869SOL    HW224440   8.624   9.405   1.532
40870SOL     OW24441   0.973   8.726  10.162
40870SOL    HW124442   0.995   8.763  10.077
40870SOL    HW224443   1.017   8.641  10.165
40871SOL     OW24444   7.322   6.502   0.780
40871SOL    HW124445   7.239   6.504   0.827
40871SOL    HW224446   7.385   6.469   0.844
40872SOL     OW24447   3.595   9.125  12.854
40872SOL    HW124448   3.648   9.158  12.781
40872SOL    HW224449   3.660   9.095  12.918
40873SOL     OW24450   5.689   2.094   4.047
40873SOL    HW124451   5.770   2.048   4.065
40873SOL    HW224452   5.712   2.187   4.048
40874SOL     OW24453   9.759  13.333  11.581
40874SOL    HW124454   9.784  13.259  11.524
40874SOL    HW224455   9.710  13.292  11.652
40875SOL     OW24456   2.894   5.843  11.003
40875SOL    HW124457   2.959   5.778  11.027
40875SOL    HW224458   2.904   5.854  10.909
40876SOL     OW24459   5.355   3.450   7.309
40876SOL    HW124460   5.302   3.490   7.378
40876SOL    HW224461   5.434   3.419   7.354
40877SOL     OW24462   3.151   1.924   7.185
40877SOL    HW124463   3.132   1.910   7.092
40877SOL    HW224464   3.164   2.018   7.193
40878SOL     OW24465   4.082   9.962   0.620
40878SOL    HW124466   4.107   9.967   0.712
40878SOL    HW224467   4.037  10.044   0.602
40879SOL     OW24468   1.541  11.885  13.604
40879SOL    HW124469   1.588  11.929  13.675
40879SOL    HW224470   1.486  11.953  13.566
40880SOL     OW24471  11.605   2.996   0.763
40880SOL    HW124472  11.568   3.065   0.818
40880SOL    HW224473  11.543   2.923   0.772
40881SOL     OW24474  10.436   4.021   7.427
40881SOL    HW124475  10.434   4.028   7.331
40881SOL    HW224476  10.421   4.110   7.458
40882SOL     OW24477  12.924   0.411  11.538
40882SOL    HW124478  12.994   0.470  11.568
40882SOL    HW224479  12.858   0.470  11.502
40883SOL     OW24480   0.420  13.881  13.763
40883SOL    HW124481   0.341  13.828  13.773
40883SOL    HW224482   0.387  13.968  13.738
40884SOL     OW24483   0.823   7.393  14.752
40884SOL    HW124484   0.742   7.370  14.705
40884SOL    HW224485   0.849   7.477  14.714
40885SOL     OW24486  12.466   0.727   9.541
40885SOL    HW124487  12.421   0.653   9.582
40885SOL    HW224488  12.418   0.743   9.460
40886SOL     OW24489  11.152   9.171   8.766
40886SOL    HW124490  11.183   9.175   8.856
40886SOL    HW224491  11.162   9.079   8.741
40887SOL     OW24492   9.026   5.809   4.586
40887SOL    HW124493   9.022   5.849   4.499
40887SOL    HW224494   9.099   5.748   4.581
40888SOL     OW24495   6.812   1.449   9.923
40888SOL    HW124496   6.744   1.486   9.980
40888SOL    HW224497   6.868   1.524   9.902
40889SOL     OW24498  14.372   4.204   8.356
40889SOL    HW124499  14.340   4.272   8.296
40889SOL    HW224500  14.368   4.123   8.304
40890SOL     OW24501   3.113   8.252   2.973
40890SOL    HW124502   3.018   8.249   2.981
40890SOL    HW224503   3.143   8.292   3.054
40891SOL     OW24504   6.255   4.507   4.813
40891SOL    HW124505   6.163   4.504   4.786
40891SOL    HW224506   6.297   4.566   4.751
40892SOL     OW24507   2.255  10.596   2.043
40892SOL    HW124508   2.276  10.588   1.950
40892SOL    HW224509   2.237  10.690   2.055
40893SOL     OW24510   1.003   3.788   0.444
40893SOL    HW124511   0.957   3.724   0.390
40893SOL    HW224512   0.958   3.871   0.426
40894SOL     OW24513   8.324   1.874  11.731
40894SOL    HW124514   8.298   1.879  11.639
40894SOL    HW224515   8.392   1.940  11.741
40895SOL     OW24516  13.582   3.295  14.299
40895SOL    HW124517  13.660   3.319  14.248
40895SOL    HW224518  13.549   3.378  14.334
40896SOL     OW24519  11.197   6.829   0.755
40896SOL    HW124520  11.242   6.813   0.837
40896SOL    HW224521  11.190   6.742   0.715
40897SOL     OW24522  14.332   3.449   1.592
40897SOL    HW124523  14.349   3.382   1.659
40897SOL    HW224524  14.418   3.465   1.552
40898SOL     OW24525   9.981   6.776   6.750
40898SOL    HW124526   9.981   6.743   6.840
40898SOL    HW224527  10.062   6.828   6.744
40899SOL     OW24528   2.232  11.594   6.707
40899SOL    HW124529   2.222  11.570   6.799
40899SOL    HW224530   2.142  11.599   6.673
40900SOL     OW24531   5.229   4.571  10.840
40900SOL    HW124532   5.134   4.564  10.839
40900SOL    HW224533   5.253   4.562  10.932
40901SOL     OW24534   0.926  10.097  14.085
40901SOL    HW124535   0.847  10.139  14.051
40901SOL    HW224536   0.959  10.158  14.150
40902SOL     OW24537   6.737   4.520   8.100
40902SOL    HW124538   6.793   4.596   8.120
40902SOL    HW224539   6.715   4.484   8.186
40903SOL     OW24540   6.207  14.693  12.373
40903SOL    HW124541   6.172  14.669  12.459
40903SOL    HW224542   6.294  14.654  12.371
40904SOL     OW24543   5.907   3.724  14.776
40904SOL    HW124544   5.957   3.806  14.775
40904SOL    HW224545   5.878   3.712  14.686
40905SOL     OW24546   8.196  13.079   1.907
40905SOL    HW124547   8.184  13.111   1.817
40905SOL    HW224548   8.259  13.140   1.945
40906SOL     OW24549   8.693  13.289   0.640
40906SOL    HW124550   8.620  13.264   0.584
40906SOL    HW224551   8.652  13.317   0.722
40907SOL     OW24552  10.044   4.106   6.904
40907SOL    HW124553   9.958   4.071   6.928
40907SOL    HW224554  10.089   4.033   6.864
40908SOL     OW24555   7.299   3.470   2.307
40908SOL    HW124556   7.362   3.460   2.378
40908SOL    HW224557   7.217   3.433   2.342
40909SOL     OW24558   4.622   2.244  13.413
40909SOL    HW124559   4.533   2.248  13.448
40909SOL    HW224560   4.664   2.174  13.463
40910SOL     OW24561  14.698   1.564   4.324
40910SOL    HW124562  14.736   1.597   4.405
40910SOL    HW224563  14.609   1.538   4.348
40911SOL     OW24564   0.346   9.178   4.363
40911SOL    HW124565   0.260   9.159   4.326
40911SOL    HW224566   0.329   9.238   4.435
40912SOL     OW24567   0.364  11.720  11.442
40912SOL    HW124568   0.452  11.724  11.405
40912SOL    HW224569   0.341  11.626  11.438
40913SOL     OW24570   0.292  10.813  12.178
40913SOL    HW124571   0.253  10.745  12.232
40913SOL    HW224572   0.234  10.889  12.187
40914SOL     OW24573   0.238  11.076  12.229
40914SOL    HW124574   0.310  11.114  12.280
40914SOL    HW224575   0.238  11.125  12.147
40915SOL     OW24576  12.540   8.141   1.584
40915SOL    HW124577  12.463   8.135   1.640
40915SOL    HW224578  12.526   8.076   1.515
40916SOL     OW24579   6.474   1.102  12.075
40916SOL    HW124580   6.460   1.086  11.982
40916SOL    HW224581   6.442   1.023  12.119
40917SOL     OW24582   9.609   6.072   1.976
40917SOL    HW124583   9.546   6.100   2.042
40917SOL    HW224584   9.694   6.098   2.012
40918SOL     OW24585   9.828   8.945  14.555
40918SOL    HW124586   9.811   8.931  14.648
40918SOL    HW224587   9.829   9.040  14.544
40919SOL     OW24588   1.283   8.354   2.733
40919SOL    HW124589   1.315   8.273   2.693
40919SOL    HW224590   1.286   8.419   2.662
40920SOL     OW24591   8.182   6.637   5.864
40920SOL    HW124592   8.109   6.700   5.869
40920SOL    HW224593   8.150   6.569   5.804
40921SOL     OW24594   4.541   2.967   5.409
40921SOL    HW124595   4.588   2.915   5.343
40921SOL    HW224596   4.561   2.924   5.492
40922SOL     OW24597  12.379   3.474   0.382
40922SOL    HW124598  12.297   3.437   0.414
40922SOL    HW224599  12.356   3.563   0.355
40923SOL     OW24600  13.981  12.074   4.729
40923SOL    HW124601  13.943  12.085   4.816
40923SOL    HW224602  14.007  11.982   4.725
40924SOL     OW24603   3.802   7.017  13.220
40924SOL    HW124604   3.884   7.014  13.170
40924SOL    HW224605   3.755   6.938  13.194
40925SOL     OW24606  14.209   9.030  11.181
40925SOL    HW124607  14.148   9.046  11.253
40925SOL    HW224608  14.278   8.977  11.219
40926SOL     OW24609   4.106   0.081  11.781
40926SOL    HW124610   4.088  14.866  11.755
40926SOL    HW224611   4.179   0.107  11.724
40927SOL     OW24612  14.870   8.792   8.000
40927SOL    HW124613   0.078   8.799   8.044
40927SOL    HW224614  14.806   8.825   8.064
40928SOL     OW24615  12.745   3.966  13.940
40928SOL    HW124616  12.672   3.927  13.988
40928SOL    HW224617  12.789   3.892  13.898
40929SOL     OW24618  10.463   8.486  11.016
40929SOL    HW124619  10.369   8.500  11.018
40929SOL    HW224620  10.476   8.417  10.950
40930SOL     OW24621   8.579   4.675  10.626
40930SOL    HW124622   8.633   4.725  10.566
40930SOL    HW224623   8.489   4.699  10.604
40931SOL     OW24624   5.755   3.720   4.581
40931SOL    HW124625   5.839   3.733   4.536
40931SOL    HW224626   5.727   3.632   4.554
40932SOL     OW24627   5.744   0.917  12.190
40932SOL    HW124628   5.718   0.871  12.270
40932SOL    HW224629   5.683   0.884  12.124
40933SOL     OW24630   1.214   2.054   4.292
40933SOL    HW124631   1.213   1.958   4.300
40933SOL    HW224632   1.195   2.085   4.381
40934SOL     OW24633   6.540   7.180  11.646
40934SOL    HW124634   6.606   7.132  11.696
40934SOL    HW224635   6.563   7.272  11.659
40935SOL     OW24636  10.189   4.026   3.744
40935SOL    HW124637  10.243   4.098   3.777
40935SOL    HW224638  10.120   4.069   3.694
40936SOL     OW24639   2.260   6.319   1.722
40936SOL    HW124640   2.262   6.397   1.667
40936SOL    HW224641   2.274   6.351   1.811
40937SOL     OW24642  14.576   1.992   0.647
40937SOL    HW124643  14.567   1.946   0.730
40937SOL    HW224644  14.670   1.995   0.631
40938SOL     OW24645  11.577   5.201   8.928
40938SOL    HW124646  11.597   5.294   8.943
40938SOL    HW224647  11.494   5.187   8.974
40939SOL     OW24648   1.472  11.477   2.143
40939SOL    HW124649   1.536  11.407   2.129
40939SOL    HW224650   1.410  11.468   2.070
40940SOL     OW24651   3.576  12.252   9.844
40940SOL    HW124652   3.657  12.287   9.880
40940SOL    HW224653   3.509  12.275   9.908
40941SOL     OW24654   6.710   6.566  13.118
40941SOL    HW124655   6.652   6.635  13.087
40941SOL    HW224656   6.670   6.484  13.087
40942SOL     OW24657   4.005  14.038   2.182
40942SOL    HW124658   3.982  14.129   2.163
40942SOL    HW224659   4.059  14.011   2.108
40943SOL     OW24660   9.742   9.935   7.952
40943SOL    HW124661   9.824   9.956   7.906
40943SOL    HW224662   9.765   9.945   8.045
40944SOL     OW24663   8.400  13.869  12.035
40944SOL    HW124664   8.490  13.875  12.003
40944SOL    HW224665   8.356  13.812  11.971
40945SOL     OW24666   1.042   9.304  12.287
40945SOL    HW124667   1.122   9.262  12.319
40945SOL    HW224668   1.039   9.389  12.330
40946SOL     OW24669   8.036   4.266   7.360
40946SOL    HW124670   7.944   4.277   7.382
40946SOL    HW224671   8.060   4.346   7.313
40947SOL     OW24672   7.717   8.483   1.970
40947SOL    HW124673   7.715   8.574   1.942
40947SOL    HW224674   7.639   8.473   2.024
40948SOL     OW24675   7.122   9.119  12.214
40948SOL    HW124676   7.165   9.139  12.298
40948SOL    HW224677   7.038   9.164  12.220
40949SOL     OW24678   6.387   6.479   0.205
40949SOL    HW124679   6.342   6.562   0.216
40949SOL    HW224680   6.374   6.457   0.113
40950SOL     OW24681  14.214   4.186   8.045
40950SOL    HW124682  14.259   4.268   8.064
40950SOL    HW224683  14.217   4.179   7.949
40951SOL     OW24684   6.898  14.298  11.691
40951SOL    HW124685   6.945  14.288  11.608
40951SOL    HW224686   6.810  14.324  11.666
40952SOL     OW24687   2.703   5.908  11.237
40952SOL    HW124688   2.761   5.870  11.171
40952SOL    HW224689   2.651   5.972  11.189
40953SOL     OW24690  14.456   2.930   8.016
40953SOL    HW124691  14.464   2.924   7.921
40953SOL    HW224692  14.538   2.893   8.049
40954SOL     OW24693   7.010   4.102   4.540
40954SOL    HW124694   7.042   4.021   4.579
40954SOL    HW224695   6.971   4.075   4.457
40955SOL     OW24696   2.623   1.646  12.165
40955SOL    HW124697   2.670   1.564  12.179
40955SOL    HW224698   2.605   1.679  12.253
40956SOL     OW24699   9.491   5.632   2.819
40956SOL    HW124700   9.521   5.600   2.734
40956SOL    HW224701   9.396   5.623   2.816
40957SOL     OW24702  10.542  12.408   1.955
40957SOL    HW124703  10.548  12.401   1.860
40957SOL    HW224704  10.512  12.321   1.983
40958SOL     OW24705   6.231  12.708   6.732
40958SOL    HW124706   6.252  12.616   6.715
40958SOL    HW224707   6.161  12.728   6.670
40959SOL     OW24708   0.800   9.258  11.075
40959SOL    HW124709   0.864   9.188  11.087
40959SOL    HW224710   0.724   9.215  11.035
40960SOL     OW24711  11.397   0.562  10.752
40960SOL    HW124712  11.467   0.523  10.803
40960SOL    HW224713  11.420   0.544  10.661
40961SOL     OW24714   1.649   9.649  13.975
40961SOL    HW124715   1.572   9.676  13.925
40961SOL    HW224716   1.629   9.673  14.066
40962SOL     OW24717  13.677   4.417   5.053
40962SOL    HW124718  13.671   4.513   5.055
40962SOL    HW224719  13.726   4.395   5.132
40963SOL     OW24720   9.627  11.966   3.294
40963SOL    HW124721   9.633  11.876   3.326
40963SOL    HW224722   9.658  11.962   3.204
40964SOL     OW24723   2.069   3.602   4.939
40964SOL    HW124724   2.017   3.682   4.939
40964SOL    HW224725   2.018   3.541   4.885
40965SOL     OW24726   2.391   3.314  14.749
40965SOL    HW124727   2.421   3.223  14.753
40965SOL    HW224728   2.297   3.309  14.736
40966SOL     OW24729   8.126   4.826   2.455
40966SOL    HW124730   8.190   4.890   2.488
40966SOL    HW224731   8.177   4.767   2.399
40967SOL     OW24732   7.220   0.058  10.352
40967SOL    HW124733   7.259  14.866  10.406
40967SOL    HW224734   7.130   0.029  10.339
40968SOL     OW24735  12.889  10.409   0.427
40968SOL    HW124736  12.960  10.362   0.383
40968SOL    HW224737  12.816  10.405   0.365
40969SOL     OW24738   3.265   1.955   6.421
40969SOL    HW124739   3.209   1.933   6.347
40969SOL    HW224740   3.285   2.048   6.410
40970SOL     OW24741   6.326   1.003   9.316
40970SOL    HW124742   6.373   1.083   9.295
40970SOL    HW224743   6.272   0.986   9.239
40971SOL     OW24744   4.604   7.858   9.888
40971SOL    HW124745   4.593   7.845   9.794
40971SOL    HW224746   4.696   7.838   9.904
40972SOL     OW24747   7.956  10.560   9.130
40972SOL    HW124748   7.871  10.586   9.166
40972SOL    HW224749   7.995  10.505   9.198
40973SOL     OW24750   6.705   8.614   2.992
40973SOL    HW124751   6.788   8.568   3.005
40973SOL    HW224752   6.704   8.637   2.899
40974SOL     OW24753   1.652  10.002   5.385
40974SOL    HW124754   1.718  10.044   5.330
40974SOL    HW224755   1.680   9.910   5.389
40975SOL     OW24756   5.647   5.071  14.343
40975SOL    HW124757   5.691   5.031  14.268
40975SOL    HW224758   5.585   5.005  14.373
40976SOL     OW24759  10.096   5.826  10.959
40976SOL    HW124760  10.067   5.737  10.975
40976SOL    HW224761  10.134   5.854  11.043
40977SOL     OW24762   0.020   0.543   5.745
40977SOL    HW124763  14.859   0.609   5.687
40977SOL    HW224764   0.065   0.593   5.813
40978SOL     OW24765   7.394   8.247  13.088
40978SOL    HW124766   7.412   8.340  13.098
40978SOL    HW224767   7.341   8.241  13.008
40979SOL     OW24768   3.939  11.853   9.250
40979SOL    HW124769   3.942  11.917   9.179
40979SOL    HW224770   3.992  11.780   9.218
40980SOL     OW24771  13.102   5.918   1.914
40980SOL    HW124772  13.190   5.951   1.934
40980SOL    HW224773  13.056   5.993   1.876
40981SOL     OW24774   9.805  14.283   5.789
40981SOL    HW124775   9.844  14.316   5.869
40981SOL    HW224776   9.751  14.210   5.817
40982SOL     OW24777   5.872  13.699  10.248
40982SOL    HW124778   5.827  13.776  10.282
40982SOL    HW224779   5.953  13.733  10.210
40983SOL     OW24780  11.135   1.031  12.602
40983SOL    HW124781  11.217   1.041  12.553
40983SOL    HW224782  11.145   0.946  12.647
40984SOL     OW24783   6.201  14.135   8.194
40984SOL    HW124784   6.212  14.223   8.230
40984SOL    HW224785   6.159  14.147   8.109
40985SOL     OW24786   2.463   4.406   5.118
40985SOL    HW124787   2.475   4.336   5.053
40985SOL    HW224788   2.411   4.365   5.187
40986SOL     OW24789   6.742   0.934   5.561
40986SOL    HW124790   6.793   0.951   5.482
40986SOL    HW224791   6.799   0.878   5.615
40987SOL     OW24792  14.802   2.526  13.386
40987SOL    HW124793  14.817   2.599  13.446
40987SOL    HW224794  14.717   2.545  13.346
40988SOL     OW24795   0.755   3.927   7.848
40988SOL    HW124796   0.694   3.926   7.775
40988SOL    HW224797   0.778   4.020   7.858
40989SOL     OW24798   6.273  14.249  11.027
40989SOL    HW124799   6.183  14.271  11.003
40989SOL    HW224800   6.267  14.163  11.069
40990SOL     OW24801   6.834   7.784   3.475
40990SOL    HW124802   6.827   7.715   3.409
40990SOL    HW224803   6.749   7.783   3.520
40991SOL     OW24804  12.874   5.270   8.128
40991SOL    HW124805  12.871   5.175   8.142
40991SOL    HW224806  12.950   5.300   8.177
40992SOL     OW24807   8.595   2.977   2.470
40992SOL    HW124808   8.571   3.070   2.466
40992SOL    HW224809   8.583   2.946   2.381
40993SOL     OW24810   8.498  11.994  10.866
40993SOL    HW124811   8.454  11.997  10.951
40993SOL    HW224812   8.484  12.081  10.829
40994SOL     OW24813  10.424  13.125   7.949
40994SOL    HW124814  10.512  13.151   7.977
40994SOL    HW224815  10.392  13.201   7.900
40995SOL     OW24816  12.308  11.640   7.262
40995SOL    HW124817  12.354  11.724   7.266
40995SOL    HW224818  12.288  11.620   7.354
40996SOL     OW24819  10.736  12.787  11.307
40996SOL    HW124820  10.786  12.750  11.379
40996SOL    HW224821  10.679  12.852  11.348
40997SOL     OW24822   4.283   0.155  12.978
40997SOL    HW124823   4.216   0.215  13.011
40997SOL    HW224824   4.264   0.072  13.021
40998SOL     OW24825   5.176   6.861  12.815
40998SOL    HW124826   5.109   6.810  12.862
40998SOL    HW224827   5.191   6.937  12.871
40999SOL     OW24828   4.868   5.764  12.670
40999SOL    HW124829   4.857   5.851  12.707
40999SOL    HW224830   4.779   5.735  12.649
41000SOL     OW24831  12.037   9.565   2.616
41000SOL    HW124832  12.111   9.595   2.670
41000SOL    HW224833  12.000   9.491   2.664
41001SOL     OW24834   3.490   1.652   2.638
41001SOL    HW124835   3.443   1.570   2.625
41001SOL    HW224836   3.570   1.626   2.684
41002SOL     OW24837  11.672   0.433   2.385
41002SOL    HW124838  11.671   0.428   2.289
41002SOL    HW224839  11.660   0.526   2.405
41003SOL     OW24840   0.250  14.430   9.257
41003SOL    HW124841   0.252  14.503   9.195
41003SOL    HW224842   0.340  14.424   9.291
41004SOL     OW24843   2.844   6.153   6.472
41004SOL    HW124844   2.900   6.107   6.409
41004SOL    HW224845   2.839   6.094   6.547
41005SOL     OW24846   2.547  12.467  12.094
41005SOL    HW124847   2.462  12.491  12.131
41005SOL    HW224848   2.611  12.510  12.150
41006SOL     OW24849   3.002  10.636   9.149
41006SOL    HW124850   3.009  10.697   9.222
41006SOL    HW224851   2.977  10.553   9.190
41007SOL     OW24852   8.383   1.420  10.111
41007SOL    HW124853   8.380   1.358  10.038
41007SOL    HW224854   8.437   1.492  10.079
41008SOL     OW24855   0.330   0.307   5.071
41008SOL    HW124856   0.283   0.390   5.057
41008SOL    HW224857   0.419   0.325   5.040
41009SOL     OW24858   5.489   2.932  11.512
41009SOL    HW124859   5.539   2.856  11.483
41009SOL    HW224860   5.406   2.896  11.544
41010SOL     OW24861   1.737   8.588   2.480
41010SOL    HW124862   1.731   8.575   2.574
41010SOL    HW224863   1.701   8.676   2.466
41011SOL     OW24864  14.791   1.144   4.261
41011SOL    HW124865  14.781   1.063   4.311
41011SOL    HW224866  14.847   1.199   4.315
41012SOL     OW24867   3.807   3.975   6.408
41012SOL    HW124868   3.755   3.898   6.426
41012SOL    HW224869   3.754   4.027   6.347
41013SOL     OW24870   3.283   0.972   3.848
41013SOL    HW124871   3.373   0.985   3.876
41013SOL    HW224872   3.252   1.059   3.823
41014SOL     OW24873   7.348  10.001   1.129
41014SOL    HW124874   7.327  10.059   1.056
41014SOL    HW224875   7.287  10.027   1.198
41015SOL     OW24876   3.267   2.794  10.763
41015SOL    HW124877   3.209   2.718  10.763
41015SOL    HW224878   3.304   2.796  10.675
41016SOL     OW24879  12.001   6.440  11.250
41016SOL    HW124880  12.011   6.372  11.183
41016SOL    HW224881  11.907   6.441  11.268
41017SOL     OW24882  10.658  12.427  11.353
41017SOL    HW124883  10.569  12.400  11.331
41017SOL    HW224884  10.711  12.347  11.343
41018SOL     OW24885   7.669  14.015   2.066
41018SOL    HW124886   7.583  13.985   2.034
41018SOL    HW224887   7.656  14.029   2.160
41019SOL     OW24888  10.136  11.204   4.188
41019SOL    HW124889  10.193  11.193   4.111
41019SOL    HW224890  10.053  11.163   4.162
41020SOL     OW24891  10.902  14.095   0.742
41020SOL    HW124892  10.933  14.184   0.756
41020SOL    HW224893  10.938  14.045   0.815
41021SOL     OW24894  10.823  13.567  10.678
41021SOL    HW124895  10.826  13.479  10.715
41021SOL    HW224896  10.753  13.611  10.725
41022SOL     OW24897  13.284   6.006  12.296
41022SOL    HW124898  13.192   6.000  12.269
41022SOL    HW224899  13.331   6.023  12.214
41023SOL     OW24900   6.293   2.277   3.497
41023SOL    HW124901   6.375   2.256   3.541
41023SOL    HW224902   6.228   2.220   3.537
41024SOL     OW24903  10.486   2.851   7.956
41024SOL    HW124904  10.409   2.796   7.968
41024SOL    HW224905  10.480   2.918   8.024
41025SOL     OW24906   9.074  11.613   7.006
41025SOL    HW124907   9.143  11.556   6.971
41025SOL    HW224908   9.035  11.563   7.078
41026SOL     OW24909   7.007   7.799   9.514
41026SOL    HW124910   6.986   7.888   9.483
41026SOL    HW224911   6.948   7.785   9.587
41027SOL     OW24912   1.386  13.423   9.084
41027SOL    HW124913   1.439  13.364   9.137
41027SOL    HW224914   1.399  13.393   8.994
41028SOL     OW24915  10.810   9.569   8.767
41028SOL    HW124916  10.787   9.619   8.689
41028SOL    HW224917  10.862   9.496   8.734
41029SOL     OW24918   2.650   1.350  10.277
41029SOL    HW124919   2.630   1.270  10.230
41029SOL    HW224920   2.742   1.341  10.302
41030SOL     OW24921  11.926  10.418  11.036
41030SOL    HW124922  11.908  10.335  11.081
41030SOL    HW224923  11.865  10.480  11.074
41031SOL     OW24924   0.696  14.152   2.714
41031SOL    HW124925   0.720  14.224   2.655
41031SOL    HW224926   0.760  14.157   2.785
41032SOL     OW24927  14.685  14.393   9.180
41032SOL    HW124928  14.729  14.310   9.164
41032SOL    HW224929  14.631  14.378   9.257
41033SOL     OW24930  11.759   0.316  13.970
41033SOL    HW124931  11.733   0.401  14.004
41033SOL    HW224932  11.852   0.325  13.951
41034SOL     OW24933   8.556   0.556  11.949
41034SOL    HW124934   8.523   0.468  11.965
41034SOL    HW224935   8.478   0.610  11.937
41035SOL     OW24936   9.923   9.765   0.250
41035SOL    HW124937   9.901   9.850   0.290
41035SOL    HW224938   9.893   9.701   0.315
41036SOL     OW24939   1.564  11.388   1.537
41036SOL    HW124940   1.543  11.349   1.622
41036SOL    HW224941   1.572  11.313   1.477
41037SOL     OW24942   6.862  13.634  10.067
41037SOL    HW124943   6.925  13.700  10.037
41037SOL    HW224944   6.852  13.575   9.992
41038SOL     OW24945  11.349   2.520   6.786
41038SOL    HW124946  11.404   2.551   6.857
41038SOL    HW224947  11.261   2.549   6.809
41039SOL     OW24948   5.873   6.357   7.956
41039SOL    HW124949   5.923   6.412   7.896
41039SOL    HW224950   5.847   6.282   7.902
41040SOL     OW24951   2.777   5.076  10.376
41040SOL    HW124952   2.724   5.138  10.426
41040SOL    HW224953   2.716   5.039  10.312
41041SOL     OW24954  10.127   8.850  12.657
41041SOL    HW124955  10.089   8.938  12.654
41041SOL    HW224956  10.056   8.792  12.630
41042SOL     OW24957  11.191   0.983  14.273
41042SOL    HW124958  11.149   1.069  14.267
41042SOL    HW224959  11.196   0.966  14.368
41043SOL     OW24960  13.125   0.113  11.848
41043SOL    HW124961  13.076   0.051  11.901
41043SOL    HW224962  13.162   0.061  11.777
41044SOL     OW24963   5.404  11.655   4.475
41044SOL    HW124964   5.460  11.638   4.551
41044SOL    HW224965   5.329  11.704   4.511
41045SOL     OW24966  12.323   8.318   7.020
41045SOL    HW124967  12.298   8.390   6.963
41045SOL    HW224968  12.333   8.243   6.961
41046SOL     OW24969  13.229   6.164   9.041
41046SOL    HW124970  13.259   6.147   9.131
41046SOL    HW224971  13.177   6.087   9.019
41047SOL     OW24972   8.445   2.567  10.651
41047SOL    HW124973   8.535   2.585  10.679
41047SOL    HW224974   8.455   2.500  10.584
41048SOL     OW24975  12.793  10.284  10.281
41048SOL    HW124976  12.760  10.194  10.284
41048SOL    HW224977  12.800  10.304  10.188
41049SOL     OW24978  12.470  11.116   2.490
41049SOL    HW124979  12.507  11.030   2.474
41049SOL    HW224980  12.541  11.166   2.531
41050SOL     OW24981   5.152  13.283  11.452
41050SOL    HW124982   5.116  13.328  11.375
41050SOL    HW224983   5.142  13.190  11.432
41051SOL     OW24984   5.199   8.150   1.632
41051SOL    HW124985   5.106   8.172   1.621
41051SOL    HW224986   5.203   8.056   1.615
41052SOL     OW24987   7.717   3.748   7.401
41052SOL    HW124988   7.636   3.794   7.380
41052SOL    HW224989   7.782   3.817   7.412
41053SOL     OW24990   5.226   2.087   4.352
41053SOL    HW124991   5.307   2.106   4.305
41053SOL    HW224992   5.253   2.085   4.444
41054SOL     OW24993   5.489   1.809   1.160
41054SOL    HW124994   5.558   1.763   1.111
41054SOL    HW224995   5.458   1.745   1.223
41055SOL     OW24996   7.791   5.406  11.607
41055SOL    HW124997   7.868   5.424  11.661
41055SOL    HW224998   7.717   5.440  11.658
41056SOL     OW24999   4.608   9.663  10.263
41056SOL    HW125000   4.616   9.570  10.241
41056SOL    HW225001   4.609   9.665  10.359
41057SOL     OW25002   2.748   7.378  13.772
41057SOL    HW125003   2.762   7.433  13.696
41057SOL    HW225004   2.836   7.357  13.803
41058SOL     OW25005   3.043   1.885   6.277
41058SOL    HW125006   3.040   1.899   6.182
41058SOL    HW225007   2.967   1.932   6.311
41059SOL     OW25008   0.197   5.625   7.364
41059SOL    HW125009   0.283   5.655   7.392
41059SOL    HW225010   0.137   5.694   7.393
41060SOL     OW25011  14.752  11.917   8.785
41060SOL    HW125012  14.674  11.972   8.785
41060SOL    HW225013  14.740  11.859   8.709
41061SOL     OW25014  13.376  10.458  12.642
41061SOL    HW125015  13.380  10.363  12.653
41061SOL    HW225016  13.455  10.480  12.592
41062SOL     OW25017   6.827  12.066  12.449
41062SOL    HW125018   6.920  12.054  12.428
41062SOL    HW225019   6.819  12.159  12.472
41063SOL     OW25020  11.827  14.577   4.016
41063SOL    HW125021  11.817  14.516   3.943
41063SOL    HW225022  11.785  14.657   3.985
41064SOL     OW25023   6.926   5.888  11.218
41064SOL    HW125024   6.942   5.894  11.124
41064SOL    HW225025   6.946   5.976  11.251
41065SOL     OW25026  13.327   5.110   7.368
41065SOL    HW125027  13.394   5.118   7.435
41065SOL    HW225028  13.296   5.200   7.354
41066SOL     OW25029  11.193   5.609   4.138
41066SOL    HW125030  11.206   5.676   4.204
41066SOL    HW225031  11.275   5.608   4.089
41067SOL     OW25032   5.368  12.190   1.868
41067SOL    HW125033   5.321  12.263   1.909
41067SOL    HW225034   5.301  12.124   1.851
41068SOL     OW25035  12.638   5.468   2.380
41068SOL    HW125036  12.597   5.420   2.452
41068SOL    HW225037  12.565   5.501   2.328
41069SOL     OW25038   6.979   4.134   9.600
41069SOL    HW125039   6.950   4.106   9.514
41069SOL    HW225040   7.046   4.071   9.625
41070SOL     OW25041  10.983  10.588   1.114
41070SOL    HW125042  10.908  10.617   1.166
41070SOL    HW225043  10.948  10.576   1.026
41071SOL     OW25044   7.444  13.959  12.904
41071SOL    HW125045   7.497  14.038  12.915
41071SOL    HW225046   7.492  13.891  12.951
41072SOL     OW25047   2.496  14.631  11.927
41072SOL    HW125048   2.448  14.714  11.934
41072SOL    HW225049   2.587  14.656  11.942
41073SOL     OW25050  14.370   2.001   1.350
41073SOL    HW125051  14.444   2.061   1.354
41073SOL    HW225052  14.355   1.988   1.256
41074SOL     OW25053   6.808  11.634  12.304
41074SOL    HW125054   6.838  11.543  12.303
41074SOL    HW225055   6.772  11.648  12.217
41075SOL     OW25056   6.978   4.293  14.241
41075SOL    HW125057   6.906   4.233  14.228
41075SOL    HW225058   7.038   4.247  14.300
41076SOL     OW25059  10.201  11.874   0.884
41076SOL    HW125060  10.185  11.966   0.905
41076SOL    HW225061  10.206  11.872   0.789
41077SOL     OW25062   9.810  10.467   5.442
41077SOL    HW125063   9.806  10.563   5.445
41077SOL    HW225064   9.838  10.447   5.353
41078SOL     OW25065  10.676   5.891  14.061
41078SOL    HW125066  10.766   5.872  14.088
41078SOL    HW225067  10.622   5.842  14.123
41079SOL     OW25068   6.460   9.817  11.759
41079SOL    HW125069   6.389   9.755  11.739
41079SOL    HW225070   6.466   9.815  11.854
41080SOL     OW25071  12.668  14.349  14.278
41080SOL    HW125072  12.734  14.324  14.214
41080SOL    HW225073  12.607  14.275  14.279
41081SOL     OW25074  11.852   9.171  12.011
41081SOL    HW125075  11.757   9.175  12.006
41081SOL    HW225076  11.876   9.246  12.066
41082SOL     OW25077   8.198   4.201   3.505
41082SOL    HW125078   8.182   4.123   3.452
41082SOL    HW225079   8.278   4.181   3.553
41083SOL     OW25080   8.736   9.371  14.575
41083SOL    HW125081   8.799   9.375  14.503
41083SOL    HW225082   8.713   9.463  14.591
41084SOL     OW25083  11.353   2.116   5.784
41084SOL    HW125084  11.293   2.092   5.714
41084SOL    HW225085  11.410   2.039   5.795
41085SOL     OW25086   5.849  13.134   3.780
41085SOL    HW125087   5.809  13.076   3.846
41085SOL    HW225088   5.862  13.078   3.704
41086SOL     OW25089  12.429  11.699  13.979
41086SOL    HW125090  12.453  11.719  14.069
41086SOL    HW225091  12.427  11.784  13.935
41087SOL     OW25092  10.607  11.657   0.872
41087SOL    HW125093  10.589  11.747   0.846
41087SOL    HW225094  10.543  11.605   0.823
41088SOL     OW25095  10.859   9.114   5.500
41088SOL    HW125096  10.784   9.098   5.443
41088SOL    HW225097  10.922   9.045   5.478
41089SOL     OW25098  12.508   5.055   8.641
41089SOL    HW125099  12.503   5.107   8.721
41089SOL    HW225100  12.563   5.108   8.582
41090SOL     OW25101  10.576   6.542  13.757
41090SOL    HW125102  10.649   6.579  13.707
41090SOL    HW225103  10.499   6.563  13.704
41091SOL     OW25104  14.604  14.616  10.569
41091SOL    HW125105  14.533  14.576  10.518
41091SOL    HW225106  14.684  14.592  10.522
41092SOL     OW25107   7.839   0.348   8.941
41092SOL    HW125108   7.805   0.313   9.023
41092SOL    HW225109   7.890   0.277   8.903
41093SOL     OW25110  11.526   0.364   9.151
41093SOL    HW125111  11.528   0.269   9.136
41093SOL    HW225112  11.498   0.401   9.068
41094SOL     OW25113  13.710  14.070   1.410
41094SOL    HW125114  13.785  14.072   1.351
41094SOL    HW225115  13.723  13.991   1.463
41095SOL     OW25116   1.403   0.617  11.364
41095SOL    HW125117   1.345   0.541  11.361
41095SOL    HW225118   1.481   0.590  11.316
41096SOL     OW25119  10.053   5.900  12.682
41096SOL    HW125120  10.088   5.915  12.770
41096SOL    HW225121  10.047   5.987  12.643
41097SOL     OW25122  13.595   2.281   0.042
41097SOL    HW125123  13.575   2.262  14.827
41097SOL    HW225124  13.533   2.349   0.067
41098SOL     OW25125   9.765  10.642  13.417
41098SOL    HW125126   9.839  10.645  13.478
41098SOL    HW225127   9.688  10.643  13.474
41099SOL     OW25128  14.136   4.624   4.995
41099SOL    HW125129  14.215   4.638   4.944
41099SOL    HW225130  14.118   4.709   5.036
41100SOL     OW25131   4.626   9.448   6.223
41100SOL    HW125132   4.536   9.427   6.246
41100SOL    HW225133   4.645   9.393   6.147
41101SOL     OW25134   7.577   8.036   1.626
41101SOL    HW125135   7.523   8.054   1.550
41101SOL    HW225136   7.565   8.112   1.683
41102SOL     OW25137   5.121  12.209  10.548
41102SOL    HW125138   5.150  12.241  10.462
41102SOL    HW225139   5.156  12.120  10.554
41103SOL     OW25140   8.815   4.066   1.009
41103SOL    HW125141   8.876   4.104   1.071
41103SOL    HW225142   8.847   3.978   0.994
41104SOL     OW25143   0.184  10.094  13.495
41104SOL    HW125144   0.155  10.129  13.411
41104SOL    HW225145   0.279  10.098  13.490
41105SOL     OW25146   7.718  14.478   4.158
41105SOL    HW125147   7.785  14.538   4.191
41105SOL    HW225148   7.646  14.486   4.220
41106SOL     OW25149   6.711   6.119   2.510
41106SOL    HW125150   6.743   6.209   2.505
41106SOL    HW225151   6.682   6.108   2.601
41107SOL     OW25152   1.231   5.932  10.304
41107SOL    HW125153   1.325   5.916  10.310
41107SOL    HW225154   1.211   5.925  10.210
41108SOL     OW25155   3.785   0.250   0.849
41108SOL    HW125156   3.848   0.230   0.918
41108SOL    HW225157   3.809   0.337   0.818
41109SOL     OW25158   7.373   9.470   3.493
41109SOL    HW125159   7.453   9.425   3.522
41109SOL    HW225160   7.357   9.536   3.560
41110SOL     OW25161  14.021  14.694   3.805
41110SOL    HW125162  14.038  14.610   3.848
41110SOL    HW225163  14.040  14.760   3.871
41111SOL     OW25164  12.833   4.855  12.901
41111SOL    HW125165  12.844   4.850  12.996
41111SOL    HW225166  12.740   4.875  12.889
41112SOL     OW25167   7.725  14.626  11.968
41112SOL    HW125168   7.709  14.656  11.878
41112SOL    HW225169   7.774  14.698  12.008
41113SOL     OW25170  11.847   1.379   8.231
41113SOL    HW125171  11.823   1.370   8.139
41113SOL    HW225172  11.943   1.384   8.231
41114SOL     OW25173   4.610   0.993   4.563
41114SOL    HW125174   4.547   0.925   4.539
41114SOL    HW225175   4.694   0.960   4.529
41115SOL     OW25176  12.348   8.069   1.790
41115SOL    HW125177  12.424   8.012   1.800
41115SOL    HW225178  12.286   8.017   1.738
41116SOL     OW25179   5.030  11.406   3.513
41116SOL    HW125180   4.935  11.393   3.506
41116SOL    HW225181   5.065  11.318   3.528
41117SOL     OW25182  11.677   6.255  12.767
41117SOL    HW125183  11.747   6.272  12.705
41117SOL    HW225184  11.653   6.163  12.752
41118SOL     OW25185   3.254  12.144   6.276
41118SOL    HW125186   3.181  12.152   6.215
41118SOL    HW225187   3.324  12.104   6.224
41119SOL     OW25188  13.258   9.464   2.374
41119SOL    HW125189  13.281   9.515   2.296
41119SOL    HW225190  13.236   9.530   2.440
41120SOL     OW25191  14.846   5.569   9.021
41120SOL    HW125192   0.054   5.525   9.007
41120SOL    HW225193  14.857   5.616   9.104
41121SOL     OW25194  13.591   1.808  14.528
41121SOL    HW125195  13.595   1.784  14.436
41121SOL    HW225196  13.614   1.728  14.575
41122SOL     OW25197   3.469  12.869  13.520
41122SOL    HW125198   3.443  12.803  13.456
41122SOL    HW225199   3.410  12.855  13.594
41123SOL     OW25200   9.595   3.606   3.851
41123SOL    HW125201   9.670   3.548   3.866
41123SOL    HW225202   9.545   3.563   3.782
41124SOL     OW25203  12.589   5.819   0.523
41124SOL    HW125204  12.598   5.752   0.590
41124SOL    HW225205  12.612   5.900   0.567
41125SOL     OW25206  14.304   5.373   9.719
41125SOL    HW125207  14.342   5.432   9.653
41125SOL    HW225208  14.291   5.290   9.672
41126SOL     OW25209   0.571   6.577   7.845
41126SOL    HW125210   0.604   6.664   7.865
41126SOL    HW225211   0.477   6.582   7.862
41127SOL     OW25212  12.157  12.264  13.589
41127SOL    HW125213  12.062  12.260  13.574
41127SOL    HW225214  12.179  12.356  13.572
41128SOL     OW25215   8.414   0.590  11.029
41128SOL    HW125216   8.459   0.522  11.079
41128SOL    HW225217   8.479   0.621  10.966
41129SOL     OW25218   8.703   1.535  12.668
41129SOL    HW125219   8.619   1.554  12.627
41129SOL    HW225220   8.695   1.444  12.697
41130SOL     OW25221  12.501  11.027  13.822
41130SOL    HW125222  12.590  10.991  13.816
41130SOL    HW225223  12.454  10.984  13.751
41131SOL     OW25224  10.943   6.276   4.055
41131SOL    HW125225  10.889   6.235   3.987
41131SOL    HW225226  10.950   6.367   4.028
41132SOL     OW25227   7.464  12.369   2.992
41132SOL    HW125228   7.536  12.429   3.013
41132SOL    HW225229   7.479  12.344   2.901
41133SOL     OW25230   4.589  11.026   5.593
41133SOL    HW125231   4.683  11.015   5.604
41133SOL    HW225232   4.558  10.940   5.565
41134SOL     OW25233   7.852  14.684   7.502
41134SOL    HW125234   7.918  14.749   7.479
41134SOL    HW225235   7.802  14.670   7.421
41135SOL     OW25236   2.200  10.422   3.368
41135SOL    HW125237   2.238  10.385   3.448
41135SOL    HW225238   2.120  10.371   3.355
41136SOL     OW25239   6.017   0.247   8.113
41136SOL    HW125240   5.992   0.204   8.195
41136SOL    HW225241   5.935   0.253   8.063
41137SOL     OW25242   9.959  13.055   1.406
41137SOL    HW125243   9.948  13.097   1.491
41137SOL    HW225244  10.046  13.017   1.408
41138SOL     OW25245   0.182  11.289   9.269
41138SOL    HW125246   0.250  11.261   9.331
41138SOL    HW225247   0.230  11.330   9.197
41139SOL     OW25248   1.646  13.762   6.002
41139SOL    HW125249   1.648  13.816   6.081
41139SOL    HW225250   1.622  13.675   6.034
41140SOL     OW25251   0.634   7.225  14.419
41140SOL    HW125252   0.646   7.313  14.455
41140SOL    HW225253   0.566   7.235  14.353
41141SOL     OW25254   5.098   1.365  11.931
41141SOL    HW125255   5.038   1.387  12.002
41141SOL    HW225256   5.041   1.339  11.859
41142SOL     OW25257   0.877   7.547   9.342
41142SOL    HW125258   0.873   7.629   9.391
41142SOL    HW225259   0.970   7.523   9.342
41143SOL     OW25260   4.258  10.067   4.582
41143SOL    HW125261   4.335  10.081   4.637
41143SOL    HW225262   4.187  10.052   4.644
41144SOL     OW25263   8.547   9.031  13.792
41144SOL    HW125264   8.528   9.124  13.788
41144SOL    HW225265   8.643   9.025  13.787
41145SOL     OW25266   1.154   7.007   1.441
41145SOL    HW125267   1.163   7.022   1.347
41145SOL    HW225268   1.172   7.092   1.481
41146SOL     OW25269   8.534   6.265  12.922
41146SOL    HW125270   8.622   6.230  12.910
41146SOL    HW225271   8.525   6.277  13.017
41147SOL     OW25272   3.266  10.806   9.536
41147SOL    HW125273   3.280  10.817   9.442
41147SOL    HW225274   3.268  10.711   9.549
41148SOL     OW25275   1.076   1.006   2.229
41148SOL    HW125276   1.167   0.978   2.241
41148SOL    HW225277   1.032   0.980   2.310
41149SOL     OW25278   2.197  13.039   9.362
41149SOL    HW125279   2.245  13.095   9.422
41149SOL    HW225280   2.264  13.003   9.303
41150SOL     OW25281   7.261   8.668  12.532
41150SOL    HW125282   7.348   8.699  12.558
41150SOL    HW225283   7.213   8.747  12.509
41151SOL     OW25284   9.193   9.211   9.892
41151SOL    HW125285   9.123   9.263   9.932
41151SOL    HW225286   9.269   9.228   9.948
41152SOL     OW25287   2.537   0.326   4.405
41152SOL    HW125288   2.605   0.393   4.403
41152SOL    HW225289   2.573   0.257   4.462
41153SOL     OW25290  12.402   8.810  12.391
41153SOL    HW125291  12.458   8.799  12.314
41153SOL    HW225292  12.461   8.805  12.466
41154SOL     OW25293  11.000   4.787   5.295
41154SOL    HW125294  11.030   4.703   5.260
41154SOL    HW225295  11.052   4.852   5.249
41155SOL     OW25296   7.842  14.052  10.982
41155SOL    HW125297   7.804  14.020  11.064
41155SOL    HW225298   7.773  14.104  10.942
41156SOL     OW25299  11.180   6.286  14.089
41156SOL    HW125300  11.110   6.266  14.027
41156SOL    HW225301  11.147   6.254  14.173
41157SOL     OW25302   4.883  14.064   3.058
41157SOL    HW125303   4.792  14.094   3.066
41157SOL    HW225304   4.931  14.140   3.026
41158SOL     OW25305   9.755  13.493   4.092
41158SOL    HW125306   9.812  13.565   4.067
41158SOL    HW225307   9.805  13.414   4.073
41159SOL     OW25308   2.561   3.118   8.814
41159SOL    HW125309   2.493   3.185   8.810
41159SOL    HW225310   2.536   3.062   8.888
41160SOL     OW25311  13.514  12.603  13.066
41160SOL    HW125312  13.449  12.552  13.018
41160SOL    HW225313  13.544  12.669  13.004
41161SOL     OW25314   0.560   1.587   3.216
41161SOL    HW125315   0.558   1.677   3.185
41161SOL    HW225316   0.594   1.536   3.143
41162SOL     OW25317  13.443  13.777   0.574
41162SOL    HW125318  13.410  13.729   0.651
41162SOL    HW225319  13.538  13.783   0.589
41163SOL     OW25320  14.604   3.388   2.477
41163SOL    HW125321  14.610   3.308   2.425
41163SOL    HW225322  14.651   3.368   2.558
41164SOL     OW25323  12.604  13.333  13.124
41164SOL    HW125324  12.652  13.255  13.152
41164SOL    HW225325  12.512  13.306  13.123
41165SOL     OW25326   6.487   0.778   8.813
41165SOL    HW125327   6.396   0.806   8.827
41165SOL    HW225328   6.480   0.706   8.750
41166SOL     OW25329  11.555   0.614   5.269
41166SOL    HW125330  11.529   0.552   5.338
41166SOL    HW225331  11.479   0.670   5.257
41167SOL     OW25332   4.187  11.493  12.284
41167SOL    HW125333   4.159  11.494  12.375
41167SOL    HW225334   4.273  11.452  12.285
41168SOL     OW25335   4.533   1.779  11.396
41168SOL    HW125336   4.549   1.691  11.431
41168SOL    HW225337   4.562   1.838  11.465
41169SOL     OW25338   0.681   6.828   4.162
41169SOL    HW125339   0.592   6.831   4.127
41169SOL    HW225340   0.701   6.734   4.166
41170SOL     OW25341   8.462   1.288   5.444
41170SOL    HW125342   8.424   1.366   5.486
41170SOL    HW225343   8.523   1.323   5.379
41171SOL     OW25344   2.666  14.227   3.043
41171SOL    HW125345   2.586  14.273   3.070
41171SOL    HW225346   2.639  14.171   2.970
41172SOL     OW25347   6.931   7.967   8.865
41172SOL    HW125348   6.959   7.887   8.819
41172SOL    HW225349   6.985   8.036   8.828
41173SOL     OW25350   7.429  12.143   4.752
41173SOL    HW125351   7.450  12.159   4.660
41173SOL    HW225352   7.506  12.172   4.800
41174SOL     OW25353   4.388  12.093   3.995
41174SOL    HW125354   4.412  12.154   4.064
41174SOL    HW225355   4.428  12.010   4.022
41175SOL     OW25356  14.636  13.491   3.282
41175SOL    HW125357  14.706  13.515   3.221
41175SOL    HW225358  14.621  13.571   3.333
41176SOL     OW25359   5.168   3.493   3.066
41176SOL    HW125360   5.098   3.428   3.075
41176SOL    HW225361   5.248   3.440   3.057
41177SOL     OW25362   8.332  12.667   6.256
41177SOL    HW125363   8.257  12.628   6.210
41177SOL    HW225364   8.372  12.594   6.303
41178SOL     OW25365   2.095   4.065   7.176
41178SOL    HW125366   2.010   4.044   7.138
41178SOL    HW225367   2.076   4.083   7.268
41179SOL     OW25368   3.711  11.641   4.539
41179SOL    HW125369   3.750  11.598   4.463
41179SOL    HW225370   3.655  11.709   4.501
41180SOL     OW25371   7.787   5.674  12.071
41180SOL    HW125372   7.731   5.749  12.093
41180SOL    HW225373   7.804   5.631  12.155
41181SOL     OW25374  14.767   3.307   0.754
41181SOL    HW125375  14.809   3.366   0.692
41181SOL    HW225376  14.673   3.319   0.740
41182SOL     OW25377   7.502   2.065   7.263
41182SOL    HW125378   7.504   2.030   7.352
41182SOL    HW225379   7.467   1.993   7.210
41183SOL     OW25380   5.193   4.273   4.103
41183SOL    HW125381   5.218   4.333   4.174
41183SOL    HW225382   5.259   4.287   4.035
41184SOL     OW25383   2.611   1.489   3.695
41184SOL    HW125384   2.686   1.528   3.740
41184SOL    HW225385   2.647   1.455   3.613
41185SOL     OW25386   8.016   3.938  10.146
41185SOL    HW125387   7.940   3.948  10.204
41185SOL    HW225388   7.978   3.918  10.061
41186SOL     OW25389   2.710  10.444   8.290
41186SOL    HW125390   2.800  10.460   8.263
41186SOL    HW225391   2.706  10.475   8.381
41187SOL     OW25392   3.683   1.186  14.086
41187SOL    HW125393   3.655   1.275  14.108
41187SOL    HW225394   3.722   1.194  13.999
41188SOL     OW25395   8.268   2.358   1.758
41188SOL    HW125396   8.196   2.402   1.714
41188SOL    HW225397   8.285   2.410   1.837
41189SOL     OW25398   3.233   0.142  12.471
41189SOL    HW125399   3.185   0.063  12.444
41189SOL    HW225400   3.164   0.204  12.496
41190SOL     OW25401  12.045   4.860   8.808
41190SOL    HW125402  12.032   4.824   8.720
41190SOL    HW225403  12.037   4.785   8.866
41191SOL     OW25404   8.841  11.427   6.848
41191SOL    HW125405   8.784  11.383   6.785
41191SOL    HW225406   8.878  11.356   6.901
41192SOL     OW25407   8.234   2.073   7.726
41192SOL    HW125408   8.263   2.164   7.735
41192SOL    HW225409   8.246   2.036   7.814
41193SOL     OW25410   0.881  11.600  14.307
41193SOL    HW125411   0.943  11.638  14.370
41193SOL    HW225412   0.924  11.520  14.277
41194SOL     OW25413   7.631   6.196   8.839
41194SOL    HW125414   7.557   6.167   8.786
41194SOL    HW225415   7.646   6.124   8.901
41195SOL     OW25416  12.203   1.843  11.746
41195SOL    HW125417  12.269   1.855  11.678
41195SOL    HW225418  12.252   1.844  11.828
41196SOL     OW25419   1.100  14.583   9.175
41196SOL    HW125420   1.104  14.598   9.269
41196SOL    HW225421   1.016  14.542   9.160
41197SOL     OW25422   1.931   1.837  12.815
41197SOL    HW125423   1.897   1.763  12.865
41197SOL    HW225424   1.884   1.913  12.850
41198SOL     OW25425   4.520  14.420  14.768
41198SOL    HW125426   4.554  14.409  14.680
41198SOL    HW225427   4.496  14.332  14.797
41199SOL     OW25428   9.293  13.018   7.367
41199SOL    HW125429   9.312  13.092   7.310
41199SOL    HW225430   9.287  12.943   7.307
41200SOL     OW25431   0.547  12.284   9.964
41200SOL    HW125432   0.489  12.239  10.025
41200SOL    HW225433   0.545  12.376   9.991
41201SOL     OW25434   9.304   5.200   4.008
41201SOL    HW125435   9.319   5.260   4.081
41201SOL    HW225436   9.218   5.163   4.024
41202SOL     OW25437  14.564  14.350   3.731
41202SOL    HW125438  14.657  14.345   3.710
41202SOL    HW225439  14.536  14.259   3.740
41203SOL     OW25440  12.358   6.439   2.088
41203SOL    HW125441  12.305   6.423   2.009
41203SOL    HW225442  12.330   6.370   2.149
41204SOL     OW25443   3.262  10.391   5.104
41204SOL    HW125444   3.271  10.375   5.198
41204SOL    HW225445   3.305  10.316   5.062
41205SOL     OW25446   7.521   6.243   4.638
41205SOL    HW125447   7.560   6.324   4.671
41205SOL    HW225448   7.586   6.209   4.576
41206SOL     OW25449   5.694  11.725   4.570
41206SOL    HW125450   5.658  11.802   4.524
41206SOL    HW225451   5.717  11.758   4.657
41207SOL     OW25452  12.380   2.062   3.280
41207SOL    HW125453  12.304   2.009   3.254
41207SOL    HW225454  12.347   2.152   3.278
41208SOL     OW25455   6.235  13.258  13.744
41208SOL    HW125456   6.144  13.285  13.732
41208SOL    HW225457   6.285  13.317  13.688
41209SOL     OW25458   9.358  12.539  10.779
41209SOL    HW125459   9.289  12.474  10.789
41209SOL    HW225460   9.424  12.513  10.844
41210SOL     OW25461   4.924   4.246   9.695
41210SOL    HW125462   4.972   4.227   9.776
41210SOL    HW225463   4.833   4.252   9.723
41211SOL     OW25464   7.940  10.128   4.118
41211SOL    HW125465   7.852  10.093   4.119
41211SOL    HW225466   7.950  10.172   4.203
41212SOL     OW25467   9.735  10.338   4.192
41212SOL    HW125468   9.778  10.363   4.273
41212SOL    HW225469   9.650  10.305   4.219
41213SOL     OW25470  11.277   3.105   6.543
41213SOL    HW125471  11.358   3.054   6.536
41213SOL    HW225472  11.302   3.185   6.590
41214SOL     OW25473   5.589   6.002   9.438
41214SOL    HW125474   5.498   5.973   9.437
41214SOL    HW225475   5.640   5.921   9.444
41215SOL     OW25476   2.222   5.141   3.599
41215SOL    HW125477   2.141   5.190   3.590
41215SOL    HW225478   2.259   5.139   3.511
41216SOL     OW25479  11.789   3.302  11.340
41216SOL    HW125480  11.836   3.382  11.314
41216SOL    HW225481  11.751   3.269  11.259
41217SOL     OW25482   1.359   3.575  14.265
41217SOL    HW125483   1.292   3.515  14.296
41217SOL    HW225484   1.324   3.662  14.283
41218SOL     OW25485   9.694   5.951  13.086
41218SOL    HW125486   9.667   5.953  12.994
41218SOL    HW225487   9.622   5.909  13.131
41219SOL     OW25488   2.140   5.321   1.617
41219SOL    HW125489   2.212   5.302   1.556
41219SOL    HW225490   2.061   5.306   1.566
41220SOL     OW25491  13.573   3.585  13.439
41220SOL    HW125492  13.633   3.550  13.505
41220SOL    HW225493  13.563   3.514  13.376
41221SOL     OW25494   4.603   3.215  10.828
41221SOL    HW125495   4.598   3.237  10.921
41221SOL    HW225496   4.534   3.150  10.814
41222SOL     OW25497  13.378   7.102  13.462
41222SOL    HW125498  13.329   7.025  13.435
41222SOL    HW225499  13.458   7.068  13.503
41223SOL     OW25500   8.352   4.553   6.411
41223SOL    HW125501   8.262   4.567   6.439
41223SOL    HW225502   8.397   4.520   6.489
41224SOL     OW25503   8.635   3.793   3.035
41224SOL    HW125504   8.646   3.700   3.016
41224SOL    HW225505   8.723   3.823   3.057
41225SOL     OW25506   1.259   8.121  11.967
41225SOL    HW125507   1.240   8.029  11.951
41225SOL    HW225508   1.315   8.121  12.045
41226SOL     OW25509   6.199   2.659  13.343
41226SOL    HW125510   6.146   2.689  13.270
41226SOL    HW225511   6.187   2.564  13.345
41227SOL     OW25512   0.120   0.114   5.781
41227SOL    HW125513   0.137   0.162   5.699
41227SOL    HW225514   0.158   0.027   5.766
41228SOL     OW25515   0.471   6.991  11.124
41228SOL    HW125516   0.407   6.938  11.172
41228SOL    HW225517   0.538   7.011  11.189
41229SOL     OW25518  12.875   4.361   9.950
41229SOL    HW125519  12.931   4.294   9.988
41229SOL    HW225520  12.935   4.430   9.922
41230SOL     OW25521   9.821  12.272  14.585
41230SOL    HW125522   9.742  12.241  14.629
41230SOL    HW225523   9.893  12.246  14.642
41231SOL     OW25524   8.565   6.234   8.470
41231SOL    HW125525   8.554   6.324   8.439
41231SOL    HW225526   8.657   6.214   8.453
41232SOL     OW25527   2.042   7.115  14.370
41232SOL    HW125528   2.030   7.041  14.311
41232SOL    HW225529   2.047   7.076  14.457
41233SOL     OW25530  14.187  13.142  13.755
41233SOL    HW125531  14.152  13.185  13.832
41233SOL    HW225532  14.129  13.068  13.739
41234SOL     OW25533  11.734   0.764   3.830
41234SOL    HW125534  11.671   0.703   3.867
41234SOL    HW225535  11.795   0.782   3.902
41235SOL     OW25536  13.954  10.239   3.789
41235SOL    HW125537  13.922  10.326   3.767
41235SOL    HW225538  14.028  10.225   3.730
41236SOL     OW25539   9.490  10.466  12.280
41236SOL    HW125540   9.458  10.377  12.295
41236SOL    HW225541   9.529  10.463  12.193
41237SOL     OW25542   4.989  11.084   1.159
41237SOL    HW125543   4.998  11.039   1.243
41237SOL    HW225544   4.987  11.177   1.181
41238SOL     OW25545  12.947   8.593   4.197
41238SOL    HW125546  12.964   8.686   4.211
41238SOL    HW225547  12.951   8.581   4.102
41239SOL     OW25548  12.847   0.580   2.196
41239SOL    HW125549  12.912   0.562   2.128
41239SOL    HW225550  12.860   0.509   2.260
41240SOL     OW25551   3.754   0.735  13.695
41240SOL    HW125552   3.689   0.731  13.625
41240SOL    HW225553   3.828   0.781  13.655
41241SOL     OW25554  12.696   0.873  12.927
41241SOL    HW125555  12.709   0.939  12.995
41241SOL    HW225556  12.720   0.917  12.846
41242SOL     OW25557  11.844   0.846   9.792
41242SOL    HW125558  11.790   0.923   9.772
41242SOL    HW225559  11.927   0.863   9.748
41243SOL     OW25560   6.146  12.890  13.332
41243SOL    HW125561   6.239  12.885  13.354
41243SOL    HW225562   6.102  12.844  13.404
41244SOL     OW25563  14.544  14.403   1.908
41244SOL    HW125564  14.554  14.335   1.842
41244SOL    HW225565  14.450  14.421   1.910
41245SOL     OW25566   9.905  13.583   8.702
41245SOL    HW125567   9.929  13.651   8.639
41245SOL    HW225568   9.836  13.624   8.756
41246SOL     OW25569   2.446   1.470  10.116
41246SOL    HW125570   2.362   1.447  10.157
41246SOL    HW225571   2.511   1.422  10.167
41247SOL     OW25572  14.123   7.523   8.121
41247SOL    HW125573  14.042   7.572   8.106
41247SOL    HW225574  14.179   7.584   8.169
41248SOL     OW25575  14.250   7.391   1.450
41248SOL    HW125576  14.267   7.299   1.471
41248SOL    HW225577  14.192   7.421   1.520
41249SOL     OW25578  12.506   2.100   4.353
41249SOL    HW125579  12.523   2.068   4.442
41249SOL    HW225580  12.556   2.181   4.347
41250SOL     OW25581   4.116  14.101   0.578
41250SOL    HW125582   4.106  14.022   0.524
41250SOL    HW225583   4.070  14.080   0.659
41251SOL     OW25584   1.767   0.428  13.848
41251SOL    HW125585   1.794   0.446  13.758
41251SOL    HW225586   1.827   0.480  13.902
41252SOL     OW25587   3.472   3.971  10.235
41252SOL    HW125588   3.452   3.996  10.144
41252SOL    HW225589   3.437   4.043  10.287
41253SOL     OW25590   6.096   9.815   9.321
41253SOL    HW125591   6.138   9.741   9.276
41253SOL    HW225592   6.169   9.866   9.357
41254SOL     OW25593  13.991   3.973  12.284
41254SOL    HW125594  13.981   3.948  12.192
41254SOL    HW225595  14.047   3.905  12.321
41255SOL     OW25596   9.564   2.646   8.701
41255SOL    HW125597   9.517   2.628   8.620
41255SOL    HW225598   9.600   2.561   8.727
41256SOL     OW25599   1.946   4.169   6.786
41256SOL    HW125600   1.928   4.111   6.860
41256SOL    HW225601   1.879   4.237   6.793
41257SOL     OW25602  10.087   8.899  12.387
41257SOL    HW125603  10.055   8.809  12.392
41257SOL    HW225604  10.151   8.898  12.315
41258SOL     OW25605  10.011   3.607  13.829
41258SOL    HW125606   9.933   3.663  13.833
41258SOL    HW225607   9.998   3.554  13.750
41259SOL     OW25608   2.544   5.329   7.748
41259SOL    HW125609   2.569   5.421   7.752
41259SOL    HW225610   2.583   5.290   7.827
41260SOL     OW25611  11.943  11.509   3.174
41260SOL    HW125612  11.865  11.551   3.209
41260SOL    HW225613  12.000  11.496   3.250
41261SOL     OW25614   1.579  11.735  10.285
41261SOL    HW125615   1.641  11.799  10.252
41261SOL    HW225616   1.598  11.655  10.235
41262SOL     OW25617   4.063   4.854   5.767
41262SOL    HW125618   4.139   4.868   5.711
41262SOL    HW225619   4.099   4.820   5.849
41263SOL     OW25620   2.097  14.546   9.638
41263SOL    HW125621   2.014  14.539   9.686
41263SOL    HW225622   2.089  14.628   9.588
41264SOL     OW25623  10.542   2.512  12.460
41264SOL    HW125624  10.529   2.488  12.368
41264SOL    HW225625  10.611   2.452  12.491
41265SOL     OW25626   1.854   8.368  13.291
41265SOL    HW125627   1.868   8.407  13.205
41265SOL    HW225628   1.784   8.304  13.277
41266SOL     OW25629   0.449   8.451   2.804
41266SOL    HW125630   0.530   8.428   2.758
41266SOL    HW225631   0.419   8.368   2.842
41267SOL     OW25632   1.761   9.414   7.282
41267SOL    HW125633   1.834   9.435   7.340
41267SOL    HW225634   1.701   9.488   7.289
41268SOL     OW25635  13.680   7.783   6.565
41268SOL    HW125636  13.765   7.796   6.606
41268SOL    HW225637  13.697   7.721   6.493
41269SOL     OW25638   9.080  14.839   6.364
41269SOL    HW125639   9.154  14.781   6.347
41269SOL    HW225640   9.027  14.792   6.429
41270SOL     OW25641   1.231   5.942  13.862
41270SOL    HW125642   1.316   5.937  13.818
41270SOL    HW225643   1.243   5.895  13.944
41271SOL     OW25644   6.410   8.648  14.118
41271SOL    HW125645   6.367   8.658  14.203
41271SOL    HW225646   6.458   8.565  14.124
41272SOL     OW25647   8.436  12.936   5.408
41272SOL    HW125648   8.499  12.889   5.353
41272SOL    HW225649   8.487  13.005   5.450
41273SOL     OW25650  14.763   7.917  11.683
41273SOL    HW125651  14.681   7.957  11.714
41273SOL    HW225652  14.787   7.969  11.606
41274SOL     OW25653   8.364  10.254  10.621
41274SOL    HW125654   8.317  10.171  10.626
41274SOL    HW225655   8.450  10.235  10.658
41275SOL     OW25656   2.543   4.446  12.585
41275SOL    HW125657   2.577   4.510  12.522
41275SOL    HW225658   2.607   4.448  12.657
41276SOL     OW25659   5.217   5.767   8.580
41276SOL    HW125660   5.295   5.823   8.577
41276SOL    HW225661   5.248   5.681   8.553
41277SOL     OW25662   3.556   8.050   6.232
41277SOL    HW125663   3.541   8.141   6.204
41277SOL    HW225664   3.648   8.034   6.213
41278SOL     OW25665  14.698   5.009   3.701
41278SOL    HW125666  14.640   5.050   3.636
41278SOL    HW225667  14.639   4.955   3.754
41279SOL     OW25668   9.059  13.156   8.951
41279SOL    HW125669   9.019  13.115   8.874
41279SOL    HW225670   9.145  13.184   8.921
41280SOL     OW25671   0.277  13.689   2.722
41280SOL    HW125672   0.321  13.641   2.792
41280SOL    HW225673   0.190  13.651   2.718
41281SOL     OW25674   8.824   2.684   8.767
41281SOL    HW125675   8.885   2.674   8.695
41281SOL    HW225676   8.762   2.611   8.757
41282SOL     OW25677   4.482   3.260   3.012
41282SOL    HW125678   4.492   3.335   3.070
41282SOL    HW225679   4.440   3.193   3.066
41283SOL     OW25680  11.721   2.621  10.782
41283SOL    HW125681  11.705   2.530  10.758
41283SOL    HW225682  11.646   2.645  10.838
41284SOL     OW25683   6.117   2.050  11.678
41284SOL    HW125684   6.184   1.988  11.705
41284SOL    HW225685   6.059   2.059  11.754
41285SOL     OW25686  14.869   3.003  12.335
41285SOL    HW125687   0.020   2.914  12.312
41285SOL    HW225688  14.826   3.037  12.257
41286SOL     OW25689   3.594   6.767   5.597
41286SOL    HW125690   3.659   6.726   5.540
41286SOL    HW225691   3.564   6.843   5.548
41287SOL     OW25692   3.089  10.441   6.813
41287SOL    HW125693   3.123  10.447   6.902
41287SOL    HW225694   3.031  10.517   6.804
41288SOL     OW25695   0.527   8.577  14.385
41288SOL    HW125696   0.509   8.514  14.455
41288SOL    HW225697   0.570   8.650  14.429
41289SOL     OW25698   7.788   9.197   2.912
41289SOL    HW125699   7.752   9.283   2.932
41289SOL    HW225700   7.882   9.213   2.899
41290SOL     OW25701   2.399   6.053   8.511
41290SOL    HW125702   2.422   5.999   8.435
41290SOL    HW225703   2.426   6.001   8.587
41291SOL     OW25704   3.681   9.728   2.446
41291SOL    HW125705   3.760   9.697   2.491
41291SOL    HW225706   3.687   9.690   2.358
41292SOL     OW25707   6.317   1.521   5.032
41292SOL    HW125708   6.396   1.470   5.017
41292SOL    HW225709   6.346   1.599   5.078
41293SOL     OW25710  14.147   5.371   2.799
41293SOL    HW125711  14.077   5.343   2.741
41293SOL    HW225712  14.188   5.289   2.829
41294SOL     OW25713   6.834   2.037   7.360
41294SOL    HW125714   6.821   1.942   7.367
41294SOL    HW225715   6.801   2.072   7.443
41295SOL     OW25716   0.795   8.544   4.443
41295SOL    HW125717   0.725   8.579   4.500
41295SOL    HW225718   0.785   8.593   4.361
41296SOL     OW25719   7.350   2.651  14.394
41296SOL    HW125720   7.431   2.702  14.387
41296SOL    HW225721   7.320   2.667  14.484
41297SOL     OW25722   4.584  12.676   8.725
41297SOL    HW125723   4.580  12.748   8.663
41297SOL    HW225724   4.586  12.718   8.811
41298SOL     OW25725  13.993   4.119   9.170
41298SOL    HW125726  13.977   4.189   9.233
41298SOL    HW225727  14.089   4.114   9.164
41299SOL     OW25728   8.834  12.522   9.523
41299SOL    HW125729   8.883  12.445   9.496
41299SOL    HW225730   8.742  12.496   9.515
41300SOL     OW25731   2.162   7.811  13.004
41300SOL    HW125732   2.249   7.781  12.978
41300SOL    HW225733   2.179   7.880  13.069
41301SOL     OW25734  12.295   6.802   0.132
41301SOL    HW125735  12.291   6.890   0.093
41301SOL    HW225736  12.265   6.814   0.222
41302SOL     OW25737  12.815  12.931   3.944
41302SOL    HW125738  12.743  12.891   3.895
41302SOL    HW225739  12.866  12.857   3.976
41303SOL     OW25740   2.730   7.307   3.590
41303SOL    HW125741   2.687   7.336   3.509
41303SOL    HW225742   2.785   7.380   3.616
41304SOL     OW25743   0.564   0.682   6.875
41304SOL    HW125744   0.571   0.702   6.968
41304SOL    HW225745   0.617   0.604   6.863
41305SOL     OW25746   8.685   4.405   8.308
41305SOL    HW125747   8.609   4.360   8.272
41305SOL    HW225748   8.755   4.340   8.304
41306SOL     OW25749  13.765   7.958   5.009
41306SOL    HW125750  13.714   7.951   4.928
41306SOL    HW225751  13.737   8.041   5.048
41307SOL     OW25752   6.643  11.560  12.773
41307SOL    HW125753   6.598  11.626  12.826
41307SOL    HW225754   6.603  11.568  12.686
41308SOL     OW25755   4.625   9.917   5.609
41308SOL    HW125756   4.668   9.919   5.694
41308SOL    HW225757   4.593  10.006   5.596
41309SOL     OW25758   9.481   4.957  13.713
41309SOL    HW125759   9.572   4.944  13.739
41309SOL    HW225760   9.479   4.933  13.620
41310SOL     OW25761   3.314   6.574  10.035
41310SOL    HW125762   3.373   6.643  10.067
41310SOL    HW225763   3.347   6.553   9.948
41311SOL     OW25764   3.826  10.492   7.217
41311SOL    HW125765   3.791  10.469   7.304
41311SOL    HW225766   3.851  10.584   7.225
41312SOL     OW25767   5.352   2.415  12.004
41312SOL    HW125768   5.429   2.378  12.046
41312SOL    HW225769   5.365   2.509  12.008
41313SOL     OW25770   7.959  11.024   7.471
41313SOL    HW125771   7.906  11.004   7.394
41313SOL    HW225772   7.952  11.119   7.481
41314SOL     OW25773   7.569   9.348  13.166
41314SOL    HW125774   7.529   9.279  13.219
41314SOL    HW225775   7.597   9.303  13.087
41315SOL     OW25776   1.763   5.785  14.275
41315SOL    HW125777   1.683   5.740  14.248
41315SOL    HW225778   1.815   5.718  14.320
41316SOL     OW25779   3.326  13.521   1.428
41316SOL    HW125780   3.263  13.554   1.492
41316SOL    HW225781   3.409  13.519   1.474
41317SOL     OW25782   5.645   6.483  12.339
41317SOL    HW125783   5.587   6.454  12.269
41317SOL    HW225784   5.654   6.578  12.325
41318SOL     OW25785  11.578   8.997   1.694
41318SOL    HW125786  11.631   9.064   1.651
41318SOL    HW225787  11.488   9.030   1.689
41319SOL     OW25788  12.036   4.425  11.549
41319SOL    HW125789  12.113   4.481  11.545
41319SOL    HW225790  12.008   4.417  11.458
41320SOL     OW25791   6.756  13.781  12.763
41320SOL    HW125792   6.837  13.778  12.713
41320SOL    HW225793   6.780  13.750  12.851
41321SOL     OW25794  14.829   2.139  12.019
41321SOL    HW125795  14.760   2.073  12.019
41321SOL    HW225796  14.874   2.127  12.102
41322SOL     OW25797  10.551   1.676   6.626
41322SOL    HW125798  10.482   1.733   6.660
41322SOL    HW225799  10.504   1.598   6.597
41323SOL     OW25800  14.442  12.847   4.168
41323SOL    HW125801  14.375  12.907   4.201
41323SOL    HW225802  14.407  12.760   4.188
41324SOL     OW25803   8.187   1.020   7.408
41324SOL    HW125804   8.175   1.007   7.314
41324SOL    HW225805   8.099   1.009   7.445
41325SOL     OW25806   7.775  13.695   3.426
41325SOL    HW125807   7.720  13.773   3.431
41325SOL    HW225808   7.716  13.627   3.393
41326SOL     OW25809  12.553   0.953   6.000
41326SOL    HW125810  12.587   1.010   5.931
41326SOL    HW225811  12.467   0.926   5.968
41327SOL     OW25812   2.067  14.338  14.105
41327SOL    HW125813   1.997  14.348  14.170
41327SOL    HW225814   2.060  14.416  14.049
41328SOL     OW25815   1.789   9.323  11.004
41328SOL    HW125816   1.864   9.334  10.945
41328SOL    HW225817   1.808   9.381  11.077
41329SOL     OW25818   3.684  10.591  10.227
41329SOL    HW125819   3.662  10.517  10.283
41329SOL    HW225820   3.600  10.619  10.191
41330SOL     OW25821   4.268  10.125   5.326
41330SOL    HW125822   4.278  10.030   5.327
41330SOL    HW225823   4.315  10.154   5.248
41331SOL     OW25824   9.156   5.408  11.010
41331SOL    HW125825   9.152   5.376  10.920
41331SOL    HW225826   9.215   5.347  11.054
41332SOL     OW25827   3.789   7.316  13.704
41332SOL    HW125828   3.870   7.276  13.672
41332SOL    HW225829   3.815   7.358  13.786
41333SOL     OW25830   1.497  12.885   2.829
41333SOL    HW125831   1.416  12.852   2.868
41333SOL    HW225832   1.473  12.970   2.793
41334SOL     OW25833  10.133   5.451   1.955
41334SOL    HW125834  10.162   5.389   2.021
41334SOL    HW225835  10.041   5.468   1.976
41335SOL     OW25836   7.548   8.017   7.514
41335SOL    HW125837   7.508   8.046   7.432
41335SOL    HW225838   7.595   7.937   7.491
41336SOL     OW25839  13.789  11.873   6.264
41336SOL    HW125840  13.862  11.829   6.220
41336SOL    HW225841  13.758  11.809   6.328
41337SOL     OW25842   0.431   2.538   7.402
41337SOL    HW125843   0.514   2.490   7.404
41337SOL    HW225844   0.373   2.488   7.461
41338SOL     OW25845  13.320   4.257   3.627
41338SOL    HW125846  13.346   4.165   3.634
41338SOL    HW225847  13.235   4.261   3.671
41339SOL     OW25848   9.184  13.281   6.072
41339SOL    HW125849   9.137  13.257   5.992
41339SOL    HW225850   9.271  13.306   6.042
41340SOL     OW25851  12.818   3.952   4.469
41340SOL    HW125852  12.845   3.885   4.405
41340SOL    HW225853  12.786   4.024   4.416
41341SOL     OW25854   4.455   7.790   8.274
41341SOL    HW125855   4.523   7.849   8.243
41341SOL    HW225856   4.474   7.777   8.367
41342SOL     OW25857   7.761   9.129   9.321
41342SOL    HW125858   7.771   9.187   9.396
41342SOL    HW225859   7.681   9.079   9.338
41343SOL     OW25860   7.247   1.129   4.977
41343SOL    HW125861   7.274   1.154   5.065
41343SOL    HW225862   7.327   1.095   4.936
41344SOL     OW25863   0.935   2.483   2.543
41344SOL    HW125864   1.008   2.500   2.603
41344SOL    HW225865   0.884   2.564   2.544
41345SOL     OW25866   9.290  12.358   9.595
41345SOL    HW125867   9.240  12.434   9.624
41345SOL    HW225868   9.365  12.354   9.654
41346SOL     OW25869  10.829   7.017   1.180
41346SOL    HW125870  10.897   7.072   1.141
41346SOL    HW225871  10.825   7.044   1.272
41347SOL     OW25872  10.385  12.090   6.348
41347SOL    HW125873  10.400  12.009   6.300
41347SOL    HW225874  10.294  12.113   6.329
41348SOL     OW25875   0.859   1.062  10.000
41348SOL    HW125876   0.790   1.059   9.934
41348SOL    HW225877   0.829   1.002  10.068
41349SOL     OW25878   5.659  13.605   3.003
41349SOL    HW125879   5.593  13.673   3.012
41349SOL    HW225880   5.614  13.532   2.961
41350SOL     OW25881   4.618   1.680   1.026
41350SOL    HW125882   4.540   1.664   1.079
41350SOL    HW225883   4.691   1.655   1.083
41351SOL     OW25884   8.785   6.385  11.872
41351SOL    HW125885   8.750   6.409  11.787
41351SOL    HW225886   8.733   6.310  11.899
41352SOL     OW25887   8.642   0.474   5.121
41352SOL    HW125888   8.555   0.435   5.132
41352SOL    HW225889   8.669   0.447   5.033
41353SOL     OW25890   9.091  11.193  14.468
41353SOL    HW125891   9.090  11.160  14.557
41353SOL    HW225892   9.183  11.211  14.450
41354SOL     OW25893   7.422   0.096   4.905
41354SOL    HW125894   7.391   0.157   4.837
41354SOL    HW225895   7.394   0.010   4.875
41355SOL     OW25896   1.301  13.297   3.758
41355SOL    HW125897   1.310  13.218   3.811
41355SOL    HW225898   1.223  13.341   3.791
41356SOL     OW25899  10.149  12.495  11.542
41356SOL    HW125900  10.114  12.437  11.610
41356SOL    HW225901  10.089  12.485  11.468
41357SOL     OW25902  12.575   8.396   7.381
41357SOL    HW125903  12.496   8.416   7.330
41357SOL    HW225904  12.646   8.401   7.318
41358SOL     OW25905   5.000   6.500   3.111
41358SOL    HW125906   4.933   6.433   3.100
41358SOL    HW225907   5.043   6.506   3.026
41359SOL     OW25908   4.353   8.982   4.380
41359SOL    HW125909   4.366   9.016   4.292
41359SOL    HW225910   4.418   8.912   4.388
41360SOL     OW25911   8.535  13.304   6.918
41360SOL    HW125912   8.464  13.343   6.968
41360SOL    HW225913   8.605  13.290   6.983
41361SOL     OW25914  10.576   9.450   5.267
41361SOL    HW125915  10.621   9.480   5.189
41361SOL    HW225916  10.598   9.516   5.334
41362SOL     OW25917   9.016   3.036   3.006
41362SOL    HW125918   8.955   2.972   3.044
41362SOL    HW225919   9.024   3.010   2.914
41363SOL     OW25920   6.973   1.628   5.908
41363SOL    HW125921   6.927   1.565   5.853
41363SOL    HW225922   6.990   1.702   5.851
41364SOL     OW25923   8.632  12.961   1.660
41364SOL    HW125924   8.561  12.897   1.651
41364SOL    HW225925   8.636  13.005   1.575
41365SOL     OW25926   6.284   4.660  10.554
41365SOL    HW125927   6.211   4.645  10.614
41365SOL    HW225928   6.361   4.665  10.610
41366SOL     OW25929   3.106  13.785  10.328
41366SOL    HW125930   3.193  13.807  10.297
41366SOL    HW225931   3.099  13.826  10.414
41367SOL     OW25932  11.918   2.554   9.393
41367SOL    HW125933  11.841   2.536   9.447
41367SOL    HW225934  11.987   2.578   9.456
41368SOL     OW25935  14.641   7.068  11.911
41368SOL    HW125936  14.682   6.982  11.908
41368SOL    HW225937  14.564   7.060  11.856
41369SOL     OW25938   8.274   8.515   1.799
41369SOL    HW125939   8.184   8.541   1.818
41369SOL    HW225940   8.306   8.478   1.882
41370SOL     OW25941  11.584  13.603  11.521
41370SOL    HW125942  11.660  13.628  11.468
41370SOL    HW225943  11.573  13.509  11.505
41371SOL     OW25944   2.879   3.805   6.814
41371SOL    HW125945   2.785   3.812   6.831
41371SOL    HW225946   2.886   3.776   6.723
41372SOL     OW25947   4.384   7.665  13.784
41372SOL    HW125948   4.331   7.736  13.818
41372SOL    HW225949   4.323   7.591  13.775
41373SOL     OW25950   8.091   6.751   0.417
41373SOL    HW125951   8.075   6.809   0.342
41373SOL    HW225952   8.182   6.723   0.406
41374SOL     OW25953   7.011  14.414   6.884
41374SOL    HW125954   6.975  14.494   6.845
41374SOL    HW225955   6.937  14.373   6.927
41375SOL     OW25956  13.449  11.082   0.990
41375SOL    HW125957  13.449  10.988   0.973
41375SOL    HW225958  13.370  11.115   0.947
41376SOL     OW25959   9.495   6.646   0.508
41376SOL    HW125960   9.435   6.682   0.573
41376SOL    HW225961   9.572   6.619   0.558
41377SOL     OW25962  11.287   7.568  12.199
41377SOL    HW125963  11.282   7.541  12.291
41377SOL    HW225964  11.208   7.619  12.185
41378SOL     OW25965   5.189   9.655   4.330
41378SOL    HW125966   5.263   9.647   4.390
41378SOL    HW225967   5.124   9.594   4.363
41379SOL     OW25968   6.410  11.158   7.746
41379SOL    HW125969   6.388  11.240   7.789
41379SOL    HW225970   6.423  11.181   7.654
41380SOL     OW25971   5.474   4.472  11.856
41380SOL    HW125972   5.487   4.531  11.782
41380SOL    HW225973   5.386   4.493  11.889
41381SOL     OW25974  12.128   3.953   6.409
41381SOL    HW125975  12.063   4.003   6.458
41381SOL    HW225976  12.208   3.960   6.461
41382SOL     OW25977  14.734  14.785   1.290
41382SOL    HW125978  14.643  14.794   1.262
41382SOL    HW225979  14.769  14.715   1.235
41383SOL     OW25980   3.665   9.809  10.316
41383SOL    HW125981   3.698   9.757  10.389
41383SOL    HW225982   3.734   9.804  10.249
41384SOL     OW25983   6.425   0.795  13.657
41384SOL    HW125984   6.478   0.751  13.723
41384SOL    HW225985   6.336   0.793  13.692
41385SOL     OW25986   2.686   5.366  10.073
41385SOL    HW125987   2.642   5.283  10.088
41385SOL    HW225988   2.619   5.422  10.033
41386SOL     OW25989   7.535   3.855   4.376
41386SOL    HW125990   7.517   3.829   4.286
41386SOL    HW225991   7.586   3.783   4.412
41387SOL     OW25992   6.804  14.149   6.847
41387SOL    HW125993   6.876  14.096   6.882
41387SOL    HW225994   6.780  14.105   6.765
41388SOL     OW25995   6.777  13.973  12.052
41388SOL    HW125996   6.743  14.021  11.977
41388SOL    HW225997   6.872  13.975  12.042
41389SOL     OW25998  14.114   5.564  10.917
41389SOL    HW125999  14.100   5.632  10.851
41389SOL    HW226000  14.027   5.525  10.930
41390SOL     OW26001   5.220   0.854   1.800
41390SOL    HW126002   5.283   0.860   1.872
41390SOL    HW226003   5.272   0.865   1.721
41391SOL     OW26004   3.237   9.329   8.035
41391SOL    HW126005   3.276   9.411   8.004
41391SOL    HW226006   3.169   9.357   8.097
41392SOL     OW26007   0.689   7.064  10.341
41392SOL    HW126008   0.700   6.973  10.312
41392SOL    HW226009   0.653   7.109  10.265
41393SOL     OW26010   1.856   0.680   5.125
41393SOL    HW126011   1.929   0.681   5.186
41393SOL    HW226012   1.888   0.632   5.049
41394SOL     OW26013   0.957   9.003   3.467
41394SOL    HW126014   0.914   9.003   3.382
41394SOL    HW226015   0.988   8.913   3.477
41395SOL     OW26016   2.814  14.126   1.199
41395SOL    HW126017   2.756  14.051   1.208
41395SOL    HW226018   2.889  14.106   1.255
41396SOL     OW26019  13.113   9.412   8.813
41396SOL    HW126020  13.205   9.418   8.839
41396SOL    HW226021  13.074   9.495   8.840
41397SOL     OW26022   1.197  12.024   1.383
41397SOL    HW126023   1.244  11.957   1.334
41397SOL    HW226024   1.110  11.987   1.398
41398SOL     OW26025   1.508  13.327   0.560
41398SOL    HW126026   1.559  13.375   0.496
41398SOL    HW226027   1.426  13.307   0.516
41399SOL     OW26028  12.157  11.868  10.839
41399SOL    HW126029  12.062  11.881  10.850
41399SOL    HW226030  12.196  11.945  10.880
41400SOL     OW26031  14.869   8.212  12.885
41400SOL    HW126032  14.777   8.218  12.860
41400SOL    HW226033   0.018   8.122  12.865
41401SOL     OW26034   7.735   8.399   9.069
41401SOL    HW126035   7.817   8.416   9.022
41401SOL    HW226036   7.711   8.309   9.044
41402SOL     OW26037   0.063   0.157   1.294
41402SOL    HW126038   0.024   0.070   1.286
41402SOL    HW226039   0.014   0.200   1.364
41403SOL     OW26040   7.786  14.153  11.395
41403SOL    HW126041   7.760  14.061  11.396
41403SOL    HW226042   7.740  14.191  11.469
41404SOL     OW26043   7.859   4.422   4.447
41404SOL    HW126044   7.767   4.440   4.429
41404SOL    HW226045   7.892   4.504   4.485
41405SOL     OW26046   7.149   2.392   9.250
41405SOL    HW126047   7.101   2.417   9.171
41405SOL    HW226048   7.188   2.473   9.282
41406SOL     OW26049   6.352   4.889   3.571
41406SOL    HW126050   6.331   4.839   3.491
41406SOL    HW226051   6.429   4.941   3.546
41407SOL     OW26052  11.939   2.150   7.454
41407SOL    HW126053  11.897   2.196   7.527
41407SOL    HW226054  12.018   2.201   7.435
41408SOL     OW26055  12.195  10.764   8.017
41408SOL    HW126056  12.141  10.780   8.094
41408SOL    HW226057  12.216  10.851   7.983
41409SOL     OW26058  12.695   4.501  10.400
41409SOL    HW126059  12.763   4.496  10.333
41409SOL    HW226060  12.634   4.430  10.379
41410SOL     OW26061  11.892  13.569  10.704
41410SOL    HW126062  11.969  13.556  10.759
41410SOL    HW226063  11.818  13.552  10.761
41411SOL     OW26064   7.671  11.080  13.856
41411SOL    HW126065   7.748  11.092  13.801
41411SOL    HW226066   7.622  11.010  13.813
41412SOL     OW26067  13.007   2.435   5.929
41412SOL    HW126068  13.045   2.432   6.017
41412SOL    HW226069  12.919   2.399   5.940
41413SOL     OW26070   4.193  10.199  13.238
41413SOL    HW126071   4.225  10.191  13.328
41413SOL    HW226072   4.271  10.215  13.186
41414SOL     OW26073   8.342   0.537   4.448
41414SOL    HW126074   8.299   0.566   4.529
41414SOL    HW226075   8.376   0.617   4.408
41415SOL     OW26076  14.553   1.682   5.629
41415SOL    HW126077  14.612   1.670   5.703
41415SOL    HW226078  14.520   1.593   5.610
41416SOL     OW26079   2.845   6.447   2.765
41416SOL    HW126080   2.803   6.368   2.799
41416SOL    HW226081   2.772   6.504   2.741
41417SOL     OW26082   1.633   7.901   7.216
41417SOL    HW126083   1.593   7.943   7.140
41417SOL    HW226084   1.560   7.883   7.275
41418SOL     OW26085   6.092   5.644   5.820
41418SOL    HW126086   6.097   5.667   5.727
41418SOL    HW226087   5.998   5.645   5.839
41419SOL     OW26088   1.008   9.425   2.768
41419SOL    HW126089   0.973   9.505   2.806
41419SOL    HW226090   1.027   9.447   2.677
41420SOL     OW26091   0.050   7.873   7.265
41420SOL    HW126092   0.084   7.801   7.212
41420SOL    HW226093   0.097   7.950   7.234
41421SOL     OW26094   2.628  12.889  10.305
41421SOL    HW126095   2.566  12.955  10.272
41421SOL    HW226096   2.688  12.940  10.360
41422SOL     OW26097  13.370   7.200   4.405
41422SOL    HW126098  13.441   7.253   4.442
41422SOL    HW226099  13.343   7.249   4.327
41423SOL     OW26100  12.003   1.841   1.852
41423SOL    HW126101  12.096   1.852   1.832
41423SOL    HW226102  11.996   1.752   1.887
41424SOL     OW26103   2.070  14.414  10.498
41424SOL    HW126104   2.064  14.321  10.477
41424SOL    HW226105   2.139  14.419  10.564
41425SOL     OW26106   9.410   2.074   2.718
41425SOL    HW126107   9.316   2.075   2.739
41425SOL    HW226108   9.429   2.163   2.690
41426SOL     OW26109   4.965   5.179  12.332
41426SOL    HW126110   5.043   5.128  12.351
41426SOL    HW226111   4.907   5.162  12.406
41427SOL     OW26112  10.319   3.023   9.319
41427SOL    HW126113  10.225   3.029   9.302
41427SOL    HW226114  10.326   2.998   9.411
41428SOL     OW26115   1.034   5.008   3.898
41428SOL    HW126116   0.955   5.045   3.937
41428SOL    HW226117   1.002   4.944   3.834
41429SOL     OW26118   8.680  10.494  14.263
41429SOL    HW126119   8.605  10.435  14.260
41429SOL    HW226120   8.651  10.569  14.315
41430SOL     OW26121   5.348  10.411  10.520
41430SOL    HW126122   5.415  10.370  10.465
41430SOL    HW226123   5.397  10.469  10.578
41431SOL     OW26124   7.999   4.318   6.384
41431SOL    HW126125   8.009   4.412   6.398
41431SOL    HW226126   7.984   4.309   6.290
41432SOL     OW26127   1.431   8.347  13.445
41432SOL    HW126128   1.449   8.405  13.371
41432SOL    HW226129   1.336   8.350  13.455
41433SOL     OW26130  13.750  10.173   9.638
41433SOL    HW126131  13.789  10.131   9.715
41433SOL    HW226132  13.822  10.181   9.576
41434SOL     OW26133   4.348  13.342   3.892
41434SOL    HW126134   4.270  13.376   3.847
41434SOL    HW226135   4.331  13.359   3.985
41435SOL     OW26136   1.681   5.341   7.080
41435SOL    HW126137   1.740   5.408   7.116
41435SOL    HW226138   1.654   5.376   6.995
41436SOL     OW26139   8.837  11.683   0.126
41436SOL    HW126140   8.838  11.769   0.083
41436SOL    HW226141   8.830  11.704   0.219
41437SOL     OW26142  13.753  12.355   5.636
41437SOL    HW126143  13.670  12.344   5.683
41437SOL    HW226144  13.818  12.367   5.705
41438SOL     OW26145   9.003   2.388  11.184
41438SOL    HW126146   8.975   2.473  11.151
41438SOL    HW226147   8.993   2.328  11.110
41439SOL     OW26148   8.421   2.438   0.836
41439SOL    HW126149   8.380   2.386   0.767
41439SOL    HW226150   8.435   2.524   0.796
41440SOL     OW26151  10.402   1.799   6.374
41440SOL    HW126152  10.491   1.829   6.357
41440SOL    HW226153  10.352   1.824   6.296
41441SOL     OW26154  14.393   5.936   4.393
41441SOL    HW126155  14.443   6.012   4.422
41441SOL    HW226156  14.427   5.863   4.445
41442SOL     OW26157   2.212  10.878   9.216
41442SOL    HW126158   2.125  10.896   9.180
41442SOL    HW226159   2.230  10.951   9.275
41443SOL     OW26160   7.120   1.624  12.629
41443SOL    HW126161   7.058   1.551  12.623
41443SOL    HW226162   7.151   1.621  12.720
41444SOL     OW26163   5.747   4.796  10.343
41444SOL    HW126164   5.692   4.755  10.410
41444SOL    HW226165   5.724   4.751  10.262
41445SOL     OW26166   8.919   2.371   1.328
41445SOL    HW126167   8.857   2.443   1.344
41445SOL    HW226168   8.907   2.350   1.235
41446SOL     OW26169   3.441   2.318   4.123
41446SOL    HW126170   3.423   2.409   4.150
41446SOL    HW226171   3.536   2.312   4.122
41447SOL     OW26172   3.461  14.007   3.242
41447SOL    HW126173   3.373  14.008   3.281
41447SOL    HW226174   3.472  13.919   3.208
41448SOL     OW26175   3.923  14.265  12.378
41448SOL    HW126176   4.003  14.317  12.375
41448SOL    HW226177   3.929  14.215  12.459
41449SOL     OW26178   1.475   4.610   3.283
41449SOL    HW126179   1.516   4.681   3.233
41449SOL    HW226180   1.412   4.571   3.222
41450SOL     OW26181   9.956  11.180   8.212
41450SOL    HW126182   9.884  11.166   8.273
41450SOL    HW226183   9.971  11.093   8.173
41451SOL     OW26184  10.240  13.777   7.150
41451SOL    HW126185  10.272  13.840   7.215
41451SOL    HW226186  10.152  13.808   7.128
41452SOL     OW26187   1.897  14.607   6.795
41452SOL    HW126188   1.982  14.621   6.838
41452SOL    HW226189   1.834  14.607   6.867
41453SOL     OW26190   1.201   2.786   9.387
41453SOL    HW126191   1.132   2.770   9.452
41453SOL    HW226192   1.273   2.729   9.414
41454SOL     OW26193   1.232   4.747  11.633
41454SOL    HW126194   1.173   4.800  11.579
41454SOL    HW226195   1.298   4.714  11.572
41455SOL     OW26196   3.556  10.735   1.817
41455SOL    HW126197   3.601  10.714   1.735
41455SOL    HW226198   3.508  10.655   1.839
41456SOL     OW26199   0.874  12.613   7.229
41456SOL    HW126200   0.928  12.682   7.192
41456SOL    HW226201   0.784  12.644   7.219
41457SOL     OW26202   1.236  14.082   6.127
41457SOL    HW126203   1.236  14.104   6.220
41457SOL    HW226204   1.150  14.109   6.096
41458SOL     OW26205  14.376   4.209  10.420
41458SOL    HW126206  14.360   4.126  10.464
41458SOL    HW226207  14.444   4.251  10.473
41459SOL     OW26208   5.083   0.360   0.907
41459SOL    HW126209   5.064   0.285   0.850
41459SOL    HW226210   5.071   0.327   0.996
41460SOL     OW26211  14.823  12.700   8.682
41460SOL    HW126212  14.844  12.683   8.774
41460SOL    HW226213   0.023  12.748   8.648
41461SOL     OW26214   6.017   1.170   6.985
41461SOL    HW126215   5.996   1.088   7.030
41461SOL    HW226216   5.958   1.172   6.910
41462SOL     OW26217   0.139   4.386  10.012
41462SOL    HW126218   0.153   4.355   9.923
41462SOL    HW226219   0.160   4.479  10.009
41463SOL     OW26220  11.123   9.690   8.299
41463SOL    HW126221  11.186   9.759   8.320
41463SOL    HW226222  11.075   9.725   8.224
41464SOL     OW26223   9.743  12.699   8.406
41464SOL    HW126224   9.681  12.757   8.363
41464SOL    HW226225   9.702  12.612   8.401
41465SOL     OW26226   4.100   6.570   0.077
41465SOL    HW126227   4.113   6.523  14.871
41465SOL    HW226228   4.107   6.663   0.053
41466SOL     OW26229   1.987   4.838   7.277
41466SOL    HW126230   1.892   4.844   7.271
41466SOL    HW226231   2.012   4.777   7.207
41467SOL     OW26232   7.652   9.663  10.473
41467SOL    HW126233   7.586   9.600  10.444
41467SOL    HW226234   7.728   9.644  10.418
41468SOL     OW26235  11.086   9.987  13.926
41468SOL    HW126236  11.019   9.982  13.994
41468SOL    HW226237  11.166  10.012  13.972
41469SOL     OW26238   3.187   5.525   3.558
41469SOL    HW126239   3.172   5.554   3.648
41469SOL    HW226240   3.258   5.461   3.564
41470SOL     OW26241   7.726   4.312   2.332
41470SOL    HW126242   7.756   4.287   2.244
41470SOL    HW226243   7.750   4.238   2.387
41471SOL     OW26244   4.864  13.131   1.808
41471SOL    HW126245   4.827  13.046   1.833
41471SOL    HW226246   4.919  13.155   1.882
41472SOL     OW26247   8.565   5.581  11.044
41472SOL    HW126248   8.539   5.524  11.116
41472SOL    HW226249   8.559   5.526  10.966
41473SOL     OW26250   1.902  11.434   7.440
41473SOL    HW126251   1.931  11.504   7.499
41473SOL    HW226252   1.809  11.423   7.461
41474SOL     OW26253   0.754  11.120  11.177
41474SOL    HW126254   0.786  11.035  11.146
41474SOL    HW226255   0.689  11.147  11.113
41475SOL     OW26256  12.800   6.711   6.025
41475SOL    HW126257  12.827   6.801   6.045
41475SOL    HW226258  12.846   6.658   6.090
41476SOL     OW26259   7.574  14.783   3.120
41476SOL    HW126260   7.661  14.744   3.119
41476SOL    HW226261   7.571  14.833   3.202
41477SOL     OW26262   7.396   6.954  13.656
41477SOL    HW126263   7.416   7.021  13.722
41477SOL    HW226264   7.302   6.939  13.664
41478SOL     OW26265   4.033  11.373   8.920
41478SOL    HW126266   3.954  11.364   8.973
41478SOL    HW226267   4.013  11.445   8.860
41479SOL     OW26268   5.133  12.064   0.620
41479SOL    HW126269   5.200  12.122   0.655
41479SOL    HW226270   5.106  12.009   0.694
41480SOL     OW26271   4.638   9.704   8.744
41480SOL    HW126272   4.628   9.791   8.706
41480SOL    HW226273   4.551   9.681   8.777
41481SOL     OW26274  12.612   1.436   0.524
41481SOL    HW126275  12.542   1.390   0.570
41481SOL    HW226276  12.627   1.385   0.445
41482SOL     OW26277  13.314   9.008   0.323
41482SOL    HW126278  13.278   9.088   0.362
41482SOL    HW226279  13.250   8.940   0.343
41483SOL     OW26280   4.233   9.656  10.778
41483SOL    HW126281   4.189   9.675  10.861
41483SOL    HW226282   4.283   9.735  10.758
41484SOL     OW26283   9.858   5.451   9.434
41484SOL    HW126284   9.793   5.428   9.500
41484SOL    HW226285   9.894   5.535   9.464
41485SOL     OW26286   7.041   5.940   9.686
41485SOL    HW126287   7.135   5.953   9.674
41485SOL    HW226288   7.008   6.024   9.716
41486SOL     OW26289   0.070   7.139   0.362
41486SOL    HW126290  14.869   7.195   0.350
41486SOL    HW226291   0.145   7.199   0.353
41487SOL     OW26292   0.127   3.471  10.698
41487SOL    HW126293   0.058   3.420  10.655
41487SOL    HW226294   0.194   3.406  10.720
41488SOL     OW26295   5.946   6.323   9.971
41488SOL    HW126296   5.986   6.297  10.054
41488SOL    HW226297   5.852   6.309   9.984
41489SOL     OW26298   1.486   3.882   5.606
41489SOL    HW126299   1.426   3.936   5.657
41489SOL    HW226300   1.573   3.906   5.639
41490SOL     OW26301   9.448   1.883   8.018
41490SOL    HW126302   9.353   1.881   8.005
41490SOL    HW226303   9.477   1.794   8.001
41491SOL     OW26304   1.444  10.626   4.099
41491SOL    HW126305   1.362  10.606   4.142
41491SOL    HW226306   1.499  10.664   4.168
41492SOL     OW26307   3.128   7.413   2.492
41492SOL    HW126308   3.105   7.386   2.581
41492SOL    HW226309   3.057   7.472   2.466
41493SOL     OW26310  14.238   4.419   1.239
41493SOL    HW126311  14.249   4.476   1.315
41493SOL    HW226312  14.144   4.401   1.236
41494SOL     OW26313   2.015  12.450   2.286
41494SOL    HW126314   1.926  12.429   2.314
41494SOL    HW226315   2.005  12.474   2.193
41495SOL     OW26316   4.491  11.882   5.885
41495SOL    HW126317   4.411  11.918   5.923
41495SOL    HW226318   4.504  11.800   5.932
41496SOL     OW26319   5.352   2.479  13.756
41496SOL    HW126320   5.328   2.406  13.699
41496SOL    HW226321   5.274   2.496  13.809
41497SOL     OW26322   1.048   5.217  12.784
41497SOL    HW126323   1.069   5.242  12.695
41497SOL    HW226324   0.957   5.188  12.780
41498SOL     OW26325   4.181   0.228   2.771
41498SOL    HW126326   4.146   0.257   2.687
41498SOL    HW226327   4.134   0.280   2.836
41499SOL     OW26328   0.357   5.136   5.588
41499SOL    HW126329   0.279   5.154   5.641
41499SOL    HW226330   0.415   5.210   5.605
41500SOL     OW26331   6.351  12.415   2.351
41500SOL    HW126332   6.279  12.470   2.384
41500SOL    HW226333   6.310  12.357   2.287
41501SOL     OW26334   4.328   4.165   2.281
41501SOL    HW126335   4.403   4.144   2.337
41501SOL    HW226336   4.334   4.101   2.209
41502SOL     OW26337   5.897   8.098  12.511
41502SOL    HW126338   5.972   8.047  12.482
41502SOL    HW226339   5.898   8.089  12.607
41503SOL     OW26340   4.031  14.212   6.644
41503SOL    HW126341   4.115  14.219   6.600
41503SOL    HW226342   3.995  14.128   6.616
41504SOL     OW26343  14.170   1.497   0.122
41504SOL    HW126344  14.241   1.558   0.098
41504SOL    HW226345  14.216   1.420   0.155
41505SOL     OW26346  10.333   1.402   1.240
41505SOL    HW126347  10.395   1.453   1.187
41505SOL    HW226348  10.284   1.350   1.176
41506SOL     OW26349   1.260   0.142  14.244
41506SOL    HW126350   1.337   0.174  14.292
41506SOL    HW226351   1.283   0.156  14.152
41507SOL     OW26352  13.502   9.799   1.197
41507SOL    HW126353  13.507   9.751   1.280
41507SOL    HW226354  13.497   9.731   1.130
41508SOL     OW26355  13.192  13.559   1.741
41508SOL    HW126356  13.242  13.478   1.728
41508SOL    HW226357  13.249  13.629   1.711
41509SOL     OW26358   3.499   8.907   4.536
41509SOL    HW126359   3.523   8.935   4.448
41509SOL    HW226360   3.580   8.870   4.572
41510SOL     OW26361   4.939   6.429   8.411
41510SOL    HW126362   4.943   6.483   8.490
41510SOL    HW226363   4.860   6.459   8.365
41511SOL     OW26364   6.776   8.489   4.425
41511SOL    HW126365   6.720   8.541   4.482
41511SOL    HW226366   6.861   8.489   4.467
41512SOL     OW26367   8.822  14.151   1.687
41512SOL    HW126368   8.896  14.106   1.728
41512SOL    HW226369   8.861  14.227   1.644
41513SOL     OW26370   8.664  10.386   9.488
41513SOL    HW126371   8.698  10.470   9.457
41513SOL    HW226372   8.612  10.354   9.414
41514SOL     OW26373  12.462   6.874   9.862
41514SOL    HW126374  12.390   6.819   9.829
41514SOL    HW226375  12.465   6.948   9.802
41515SOL     OW26376   4.412   4.138  14.819
41515SOL    HW126377   4.319   4.144  14.797
41515SOL    HW226378   4.456   4.193  14.754
41516SOL     OW26379   0.555   3.300   7.199
41516SOL    HW126380   0.611   3.230   7.232
41516SOL    HW226381   0.566   3.371   7.262
41517SOL     OW26382   7.700  10.102   4.571
41517SOL    HW126383   7.786  10.097   4.614
41517SOL    HW226384   7.640  10.123   4.642
41518SOL     OW26385  10.054   5.774   0.037
41518SOL    HW126386   9.996   5.710  14.872
41518SOL    HW226387  10.065   5.842  14.846
41519SOL     OW26388   9.053   2.053   9.473
41519SOL    HW126389   8.993   2.081   9.403
41519SOL    HW226390   9.018   1.968   9.502
41520SOL     OW26391  10.902   2.403   3.716
41520SOL    HW126392  10.977   2.376   3.664
41520SOL    HW226393  10.828   2.359   3.676
41521SOL     OW26394   3.064   1.095  10.678
41521SOL    HW126395   2.976   1.084  10.714
41521SOL    HW226396   3.121   1.104  10.754
41522SOL     OW26397   3.378   5.928   6.136
41522SOL    HW126398   3.411   5.869   6.068
41522SOL    HW226399   3.417   5.895   6.217
41523SOL     OW26400   2.667   1.422  11.227
41523SOL    HW126401   2.666   1.511  11.260
41523SOL    HW226402   2.721   1.426  11.148
41524SOL     OW26403   9.701   2.447   3.005
41524SOL    HW126404   9.607   2.448   3.023
41524SOL    HW226405   9.718   2.360   2.969
41525SOL     OW26406  14.627   0.742  13.267
41525SOL    HW126407  14.553   0.683  13.253
41525SOL    HW226408  14.588   0.829  13.272
41526SOL     OW26409   2.877  11.467   2.875
41526SOL    HW126410   2.940  11.537   2.889
41526SOL    HW226411   2.842  11.447   2.962
41527SOL     OW26412  10.665   6.719   9.876
41527SOL    HW126413  10.730   6.706   9.944
41527SOL    HW226414  10.716   6.739   9.797
41528SOL     OW26415   6.926  11.095   7.196
41528SOL    HW126416   6.960  11.176   7.235
41528SOL    HW226417   6.976  11.083   7.116
41529SOL     OW26418  11.486   2.772   0.442
41529SOL    HW126419  11.463   2.770   0.535
41529SOL    HW226420  11.575   2.806   0.439
41530SOL     OW26421  14.839  13.607   6.362
41530SOL    HW126422   0.023  13.569   6.427
41530SOL    HW226423  14.852  13.701   6.369
41531SOL     OW26424   9.442  12.432  11.458
41531SOL    HW126425   9.399  12.404  11.377
41531SOL    HW226426   9.528  12.465  11.430
41532SOL     OW26427   8.922   4.610   7.546
41532SOL    HW126428   8.871   4.554   7.488
41532SOL    HW226429   9.011   4.605   7.514
41533SOL     OW26430   8.777   3.239  12.634
41533SOL    HW126431   8.708   3.222  12.699
41533SOL    HW226432   8.743   3.202  12.553
41534SOL     OW26433   0.719   8.314  13.136
41534SOL    HW126434   0.685   8.231  13.169
41534SOL    HW226435   0.691   8.379  13.201
41535SOL     OW26436  13.115  14.574   5.581
41535SOL    HW126437  13.190  14.616   5.538
41535SOL    HW226438  13.056  14.550   5.509
41536SOL     OW26439   9.310   4.101   7.867
41536SOL    HW126440   9.216   4.083   7.858
41536SOL    HW226441   9.333   4.064   7.952
41537SOL     OW26442  11.744   0.097  13.520
41537SOL    HW126443  11.719   0.133  13.605
41537SOL    HW226444  11.829   0.138  13.501
41538SOL     OW26445   9.312   5.044   0.896
41538SOL    HW126446   9.276   5.128   0.867
41538SOL    HW226447   9.235   4.990   0.913
41539SOL     OW26448   8.495  10.820  13.221
41539SOL    HW126449   8.511  10.837  13.313
41539SOL    HW226450   8.580  10.832  13.179
41540SOL     OW26451   8.677   4.453  11.244
41540SOL    HW126452   8.748   4.515  11.257
41540SOL    HW226453   8.694   4.384  11.308
41541SOL     OW26454   6.631   8.915  11.684
41541SOL    HW126455   6.538   8.908  11.664
41541SOL    HW226456   6.675   8.871  11.611
41542SOL     OW26457   9.416   2.423   5.723
41542SOL    HW126458   9.379   2.365   5.657
41542SOL    HW226459   9.489   2.374   5.760
41543SOL     OW26460   9.521  10.097   9.702
41543SOL    HW126461   9.492  10.118   9.791
41543SOL    HW226462   9.563  10.178   9.671
41544SOL     OW26463   5.346  12.164   7.905
41544SOL    HW126464   5.309  12.253   7.904
41544SOL    HW226465   5.404  12.163   7.982
41545SOL     OW26466   9.052  14.542  13.955
41545SOL    HW126467   9.060  14.534  13.860
41545SOL    HW226468   9.027  14.455  13.985
41546SOL     OW26469   8.023  13.602   7.114
41546SOL    HW126470   8.054  13.514   7.134
41546SOL    HW226471   7.944  13.612   7.166
41547SOL     OW26472  12.605   8.782   0.325
41547SOL    HW126473  12.691   8.780   0.283
41547SOL    HW226474  12.556   8.711   0.284
41548SOL     OW26475  10.997  13.221  11.242
41548SOL    HW126476  10.951  13.150  11.198
41548SOL    HW226477  10.940  13.247  11.314
41549SOL     OW26478   7.116  13.758   5.842
41549SOL    HW126479   7.034  13.727   5.804
41549SOL    HW226480   7.174  13.682   5.839
41550SOL     OW26481   0.972  11.354   2.321
41550SOL    HW126482   1.052  11.301   2.325
41550SOL    HW226483   0.902  11.293   2.345
41551SOL     OW26484   8.512   4.176   7.447
41551SOL    HW126485   8.442   4.111   7.445
41551SOL    HW226486   8.486   4.241   7.381
41552SOL     OW26487  14.296  11.638  11.646
41552SOL    HW126488  14.293  11.625  11.741
41552SOL    HW226489  14.344  11.721  11.634
41553SOL     OW26490  10.948   7.439  12.295
41553SOL    HW126491  10.855   7.425  12.282
41553SOL    HW226492  10.982   7.463  12.209
41554SOL     OW26493  10.935   5.361   6.217
41554SOL    HW126494  10.986   5.348   6.296
41554SOL    HW226495  10.964   5.446   6.183
41555SOL     OW26496  12.895   0.582   6.611
41555SOL    HW126497  12.937   0.637   6.677
41555SOL    HW226498  12.956   0.510   6.598
41556SOL     OW26499   8.753   6.794   6.027
41556SOL    HW126500   8.841   6.797   5.989
41556SOL    HW226501   8.716   6.880   6.010
41557SOL     OW26502   3.995   0.340   4.738
41557SOL    HW126503   4.015   0.257   4.696
41557SOL    HW226504   3.993   0.320   4.831
41558SOL     OW26505   6.482   1.855   8.335
41558SOL    HW126506   6.488   1.944   8.300
41558SOL    HW226507   6.504   1.799   8.260
41559SOL     OW26508   5.819   8.854   0.651
41559SOL    HW126509   5.884   8.830   0.585
41559SOL    HW226510   5.738   8.816   0.619
41560SOL     OW26511   0.137   4.857  10.240
41560SOL    HW126512   0.198   4.930  10.253
41560SOL    HW226513   0.052   4.899  10.226
41561SOL     OW26514  13.975   7.162   3.419
41561SOL    HW126515  13.977   7.077   3.376
41561SOL    HW226516  14.068   7.185   3.432
41562SOL     OW26517   4.282  14.299   7.814
41562SOL    HW126518   4.211  14.347   7.772
41562SOL    HW226519   4.256  14.207   7.806
41563SOL     OW26520   8.715  13.529   6.459
41563SOL    HW126521   8.787  13.585   6.489
41563SOL    HW226522   8.689  13.479   6.536
41564SOL     OW26523   1.246  10.518   7.905
41564SOL    HW126524   1.236  10.529   8.000
41564SOL    HW226525   1.331  10.558   7.885
41565SOL     OW26526   3.053   9.791   0.509
41565SOL    HW126527   2.960   9.807   0.525
41565SOL    HW226528   3.058   9.700   0.481
41566SOL     OW26529   4.463   1.030  10.824
41566SOL    HW126530   4.472   1.117  10.862
41566SOL    HW226531   4.530   1.026  10.756
41567SOL     OW26532  14.424   6.575   7.652
41567SOL    HW126533  14.418   6.480   7.662
41567SOL    HW226534  14.477   6.587   7.573
41568SOL     OW26535   3.815  12.181  12.854
41568SOL    HW126536   3.847  12.253  12.909
41568SOL    HW226537   3.754  12.223  12.793
41569SOL     OW26538  12.478   4.044   3.107
41569SOL    HW126539  12.439   4.127   3.136
41569SOL    HW226540  12.462   3.983   3.179
41570SOL     OW26541   2.450   3.250  13.198
41570SOL    HW126542   2.373   3.197  13.219
41570SOL    HW226543   2.519   3.217  13.256
41571SOL     OW26544   5.592   9.544   4.955
41571SOL    HW126545   5.608   9.541   5.049
41571SOL    HW226546   5.499   9.526   4.946
41572SOL     OW26547   6.811   6.290   4.472
41572SOL    HW126548   6.787   6.233   4.545
41572SOL    HW226549   6.903   6.311   4.487
41573SOL     OW26550   7.899   1.858  12.181
41573SOL    HW126551   7.983   1.858  12.227
41573SOL    HW226552   7.907   1.786  12.118
41574SOL     OW26553   2.068   6.956   1.249
41574SOL    HW126554   2.045   6.935   1.340
41574SOL    HW226555   2.133   7.026   1.257
41575SOL     OW26556   7.282  10.477  10.287
41575SOL    HW126557   7.191  10.495  10.266
41575SOL    HW226558   7.331  10.546  10.243
41576SOL     OW26559   3.035  10.619   8.174
41576SOL    HW126560   2.994  10.564   8.107
41576SOL    HW226561   3.095  10.561   8.219
41577SOL     OW26562   9.145  11.905  12.173
41577SOL    HW126563   9.055  11.887  12.198
41577SOL    HW226564   9.139  11.954  12.091
41578SOL     OW26565   4.418   3.473   8.003
41578SOL    HW126566   4.506   3.508   7.996
41578SOL    HW226567   4.401   3.469   8.098
41579SOL     OW26568  13.861   6.187   5.002
41579SOL    HW126569  13.838   6.129   5.075
41579SOL    HW226570  13.828   6.273   5.029
41580SOL     OW26571  14.502   5.772   1.902
41580SOL    HW126572  14.597   5.774   1.895
41580SOL    HW226573  14.483   5.695   1.955
41581SOL     OW26574  13.779   8.722   5.981
41581SOL    HW126575  13.762   8.703   6.073
41581SOL    HW226576  13.754   8.642   5.935
41582SOL     OW26577  11.614   0.745  11.728
41582SOL    HW126578  11.640   0.749  11.636
41582SOL    HW226579  11.573   0.659  11.738
41583SOL     OW26580   9.148  13.621   3.519
41583SOL    HW126581   9.210  13.561   3.560
41583SOL    HW226582   9.064  13.574   3.522
41584SOL     OW26583   3.416   8.984  10.621
41584SOL    HW126584   3.407   9.066  10.572
41584SOL    HW226585   3.370   9.001  10.704
41585SOL     OW26586   5.091   1.312   9.574
41585SOL    HW126587   4.997   1.314   9.592
41585SOL    HW226588   5.131   1.283   9.656
41586SOL     OW26589   2.881  13.809  10.106
41586SOL    HW126590   2.811  13.745  10.097
41586SOL    HW226591   2.929  13.782  10.185
41587SOL     OW26592   9.207   6.238  14.584
41587SOL    HW126593   9.158   6.288  14.520
41587SOL    HW226594   9.246   6.304  14.642
41588SOL     OW26595  14.485  10.856   3.674
41588SOL    HW126596  14.535  10.778   3.700
41588SOL    HW226597  14.503  10.866   3.580
41589SOL     OW26598  11.261  13.596   7.421
41589SOL    HW126599  11.277  13.572   7.512
41589SOL    HW226600  11.224  13.684   7.426
41590SOL     OW26601   6.325   6.556   9.236
41590SOL    HW126602   6.239   6.569   9.276
41590SOL    HW226603   6.354   6.470   9.269
41591SOL     OW26604   1.186   2.225   7.256
41591SOL    HW126605   1.146   2.206   7.171
41591SOL    HW226606   1.163   2.317   7.273
41592SOL     OW26607   1.168   5.928   4.475
41592SOL    HW126608   1.192   5.969   4.558
41592SOL    HW226609   1.080   5.894   4.489
41593SOL     OW26610   2.237  14.047   7.941
41593SOL    HW126611   2.275  13.972   7.893
41593SOL    HW226612   2.145  14.024   7.953
41594SOL     OW26613   9.298   4.771   6.211
41594SOL    HW126614   9.387   4.754   6.182
41594SOL    HW226615   9.300   4.756   6.306
41595SOL     OW26616  13.552   0.090  10.470
41595SOL    HW126617  13.546   0.044  10.554
41595SOL    HW226618  13.507   0.174  10.486
41596SOL     OW26619  10.459   7.941   2.148
41596SOL    HW126620  10.483   7.875   2.082
41596SOL    HW226621  10.367   7.923   2.166
41597SOL     OW26622   9.719  13.777  13.512
41597SOL    HW126623   9.720  13.872  13.512
41597SOL    HW226624   9.663  13.753  13.438
41598SOL     OW26625  13.108   5.458   0.907
41598SOL    HW126626  13.076   5.377   0.947
41598SOL    HW226627  13.029   5.502   0.875
41599SOL     OW26628   0.846  11.884   8.743
41599SOL    HW126629   0.942  11.887   8.737
41599SOL    HW226630   0.817  11.940   8.671
41600SOL     OW26631   8.593  11.681  12.056
41600SOL    HW126632   8.583  11.756  11.997
41600SOL    HW226633   8.633  11.613  12.001
41601SOL     OW26634   2.976  14.202   9.292
41601SOL    HW126635   2.938  14.127   9.339
41601SOL    HW226636   3.052  14.227   9.345
41602SOL     OW26637  13.369   2.954  14.727
41602SOL    HW126638  13.422   2.875  14.728
41602SOL    HW226639  13.309   2.942  14.652
41603SOL     OW26640  13.422   4.690   7.485
41603SOL    HW126641  13.431   4.766   7.428
41603SOL    HW226642  13.379   4.624   7.431
41604SOL     OW26643  11.175   8.697   3.922
41604SOL    HW126644  11.234   8.756   3.875
41604SOL    HW226645  11.111   8.755   3.963
41605SOL     OW26646   1.797   6.187   5.969
41605SOL    HW126647   1.719   6.190   6.023
41605SOL    HW226648   1.778   6.122   5.901
41606SOL     OW26649  10.604  12.775   6.979
41606SOL    HW126650  10.599  12.861   7.021
41606SOL    HW226651  10.612  12.714   7.052
41607SOL     OW26652   7.968  10.066  11.002
41607SOL    HW126653   8.034  10.006  11.035
41607SOL    HW226654   7.905  10.010  10.957
41608SOL     OW26655   2.464   2.209   7.517
41608SOL    HW126656   2.500   2.122   7.530
41608SOL    HW226657   2.502   2.238   7.434
41609SOL     OW26658  10.982  12.225  14.744
41609SOL    HW126659  10.920  12.259  14.680
41609SOL    HW226660  10.971  12.282  14.821
41610SOL     OW26661   8.401  11.050   3.122
41610SOL    HW126662   8.306  11.046   3.109
41610SOL    HW226663   8.428  10.958   3.129
41611SOL     OW26664   8.743  14.237   6.234
41611SOL    HW126665   8.803  14.189   6.292
41611SOL    HW226666   8.656  14.214   6.267
41612SOL     OW26667   7.149   9.913  14.838
41612SOL    HW126668   7.119   9.864   0.039
41612SOL    HW226669   7.169   9.845  14.773
41613SOL     OW26670   0.653   3.257   6.813
41613SOL    HW126671   0.584   3.258   6.880
41613SOL    HW226672   0.730   3.293   6.857
41614SOL     OW26673   7.449   6.584   6.239
41614SOL    HW126674   7.390   6.657   6.259
41614SOL    HW226675   7.431   6.563   6.148
41615SOL     OW26676   3.819   1.674   6.779
41615SOL    HW126677   3.735   1.643   6.811
41615SOL    HW226678   3.803   1.695   6.687
41616SOL     OW26679   6.904   8.959   9.825
41616SOL    HW126680   6.896   8.997   9.913
41616SOL    HW226681   6.836   8.891   9.822
41617SOL     OW26682  10.203   5.467  11.095
41617SOL    HW126683  10.234   5.414  11.169
41617SOL    HW226684  10.274   5.529  11.079
41618SOL     OW26685   3.910   1.647   3.100
41618SOL    HW126686   3.908   1.669   3.193
41618SOL    HW226687   3.821   1.662   3.070
41619SOL     OW26688  13.604   6.332   0.896
41619SOL    HW126689  13.550   6.411   0.889
41619SOL    HW226690  13.651   6.344   0.978
41620SOL     OW26691   3.279   8.233  11.342
41620SOL    HW126692   3.274   8.151  11.291
41620SOL    HW226693   3.192   8.243  11.381
41621SOL     OW26694   4.211  14.438   8.821
41621SOL    HW126695   4.200  14.480   8.736
41621SOL    HW226696   4.176  14.350   8.809
41622SOL     OW26697  13.901   7.188   6.422
41622SOL    HW126698  13.818   7.168   6.378
41622SOL    HW226699  13.963   7.124   6.388
41623SOL     OW26700   0.482   2.802  12.835
41623SOL    HW126701   0.464   2.787  12.928
41623SOL    HW226702   0.397   2.820  12.796
41624SOL     OW26703   2.784   4.308   8.132
41624SOL    HW126704   2.834   4.351   8.202
41624SOL    HW226705   2.837   4.319   8.054
41625SOL     OW26706   6.988  12.037   2.504
41625SOL    HW126707   6.958  11.958   2.459
41625SOL    HW226708   6.955  12.027   2.594
41626SOL     OW26709   7.542   4.711   6.609
41626SOL    HW126710   7.529   4.805   6.596
41626SOL    HW226711   7.637   4.701   6.615
41627SOL     OW26712  13.769   3.297  11.228
41627SOL    HW126713  13.713   3.236  11.275
41627SOL    HW226714  13.715   3.374  11.213
41628SOL     OW26715   9.667  12.256   1.406
41628SOL    HW126716   9.632  12.207   1.479
41628SOL    HW226717   9.676  12.346   1.439
41629SOL     OW26718   2.387   7.493   4.822
41629SOL    HW126719   2.434   7.523   4.744
41629SOL    HW226720   2.457   7.468   4.883
41630SOL     OW26721   5.143  11.169   3.674
41630SOL    HW126722   5.101  11.129   3.750
41630SOL    HW226723   5.217  11.111   3.655
41631SOL     OW26724  14.018   5.791  13.651
41631SOL    HW126725  14.032   5.704  13.612
41631SOL    HW226726  14.095   5.806  13.705
41632SOL     OW26727  14.506  12.741   8.254
41632SOL    HW126728  14.580  12.697   8.295
41632SOL    HW226729  14.500  12.825   8.298
41633SOL     OW26730   1.689   3.645   0.220
41633SOL    HW126731   1.668   3.672   0.310
41633SOL    HW226732   1.758   3.579   0.231
41634SOL     OW26733   2.721   1.049   1.079
41634SOL    HW126734   2.750   1.140   1.081
41634SOL    HW226735   2.675   1.042   0.995
41635SOL     OW26736  11.727   5.880   6.992
41635SOL    HW126737  11.652   5.841   7.036
41635SOL    HW226738  11.752   5.817   6.925
41636SOL     OW26739   3.856   0.700   1.451
41636SOL    HW126740   3.768   0.716   1.485
41636SOL    HW226741   3.848   0.618   1.402
41637SOL     OW26742   9.052   5.602   2.083
41637SOL    HW126743   9.127   5.551   2.115
41637SOL    HW226744   9.030   5.562   1.999
41638SOL     OW26745  14.698   4.951  12.205
41638SOL    HW126746  14.740   4.870  12.175
41638SOL    HW226747  14.604   4.938  12.187
41639SOL     OW26748   2.303   3.078   1.424
41639SOL    HW126749   2.255   3.093   1.343
41639SOL    HW226750   2.355   3.000   1.407
41640SOL     OW26751   8.343   7.970  11.716
41640SOL    HW126752   8.260   8.005  11.747
41640SOL    HW226753   8.359   8.013  11.632
41641SOL     OW26754   3.915   3.999   5.255
41641SOL    HW126755   3.875   4.021   5.339
41641SOL    HW226756   3.992   4.055   5.250
41642SOL     OW26757   7.161   2.249   4.834
41642SOL    HW126758   7.161   2.344   4.819
41642SOL    HW226759   7.094   2.216   4.774
41643SOL     OW26760   9.501   2.782   1.375
41643SOL    HW126761   9.577   2.733   1.344
41643SOL    HW226762   9.462   2.726   1.443
41644SOL     OW26763   1.441  10.319  10.149
41644SOL    HW126764   1.403  10.393  10.102
41644SOL    HW226765   1.436  10.344  10.241
41645SOL     OW26766   3.086   1.016   0.321
41645SOL    HW126767   3.035   0.939   0.294
41645SOL    HW226768   3.158   0.980   0.373
41646SOL     OW26769  11.187   6.708   5.799
41646SOL    HW126770  11.197   6.613   5.797
41646SOL    HW226771  11.135   6.725   5.877
41647SOL     OW26772  10.639   0.559   3.099
41647SOL    HW126773  10.689   0.622   3.047
41647SOL    HW226774  10.694   0.481   3.102
41648SOL     OW26775   3.409   5.704  14.705
41648SOL    HW126776   3.360   5.648  14.644
41648SOL    HW226777   3.367   5.691  14.790
41649SOL     OW26778   9.516   5.757   7.021
41649SOL    HW126779   9.600   5.745   6.976
41649SOL    HW226780   9.475   5.671   7.019
41650SOL     OW26781  10.879  10.522  12.030
41650SOL    HW126782  10.918  10.438  12.054
41650SOL    HW226783  10.936  10.557  11.962
41651SOL     OW26784   9.393  11.476  11.461
41651SOL    HW126785   9.393  11.398  11.517
41651SOL    HW226786   9.478  11.476  11.418
41652SOL     OW26787   2.599   3.262   9.424
41652SOL    HW126788   2.615   3.246   9.517
41652SOL    HW226789   2.561   3.350   9.421
41653SOL     OW26790   0.055  12.538   7.959
41653SOL    HW126791   0.078  12.454   8.000
41653SOL    HW226792   0.140  12.575   7.932
41654SOL     OW26793   9.301   5.358   7.508
41654SOL    HW126794   9.288   5.283   7.565
41654SOL    HW226795   9.229   5.418   7.532
41655SOL     OW26796  13.295   3.069  10.521
41655SOL    HW126797  13.368   3.097  10.576
41655SOL    HW226798  13.270   3.148  10.473
41656SOL     OW26799   7.017  13.003  13.818
41656SOL    HW126800   6.960  12.970  13.888
41656SOL    HW226801   6.966  13.071  13.775
41657SOL     OW26802   7.652   7.386   6.024
41657SOL    HW126803   7.613   7.393   5.937
41657SOL    HW226804   7.728   7.330   6.012
41658SOL     OW26805   4.260   0.251   1.123
41658SOL    HW126806   4.303   0.337   1.123
41658SOL    HW226807   4.307   0.201   1.056
41659SOL     OW26808   2.684   3.629  14.361
41659SOL    HW126809   2.776   3.647  14.338
41659SOL    HW226810   2.686   3.540  14.395
41660SOL     OW26811   4.556   3.704   1.410
41660SOL    HW126812   4.519   3.714   1.322
41660SOL    HW226813   4.511   3.628   1.447
41661SOL     OW26814   6.402   5.566  13.758
41661SOL    HW126815   6.387   5.476  13.789
41661SOL    HW226816   6.468   5.601  13.818
41662SOL     OW26817  10.683   4.247   9.137
41662SOL    HW126818  10.640   4.218   9.057
41662SOL    HW226819  10.764   4.196   9.141
41663SOL     OW26820   7.412   9.387  12.524
41663SOL    HW126821   7.413   9.445  12.600
41663SOL    HW226822   7.331   9.410  12.478
41664SOL     OW26823   7.140  13.982   7.271
41664SOL    HW126824   7.116  13.893   7.296
41664SOL    HW226825   7.235  13.980   7.260
41665SOL     OW26826   0.002   6.574  12.988
41665SOL    HW126827   0.038   6.497  13.032
41665SOL    HW226828   0.074   6.638  12.989
41666SOL     OW26829  13.597  12.995   0.178
41666SOL    HW126830  13.671  12.974   0.235
41666SOL    HW226831  13.575  13.086   0.199
41667SOL     OW26832   6.974  11.051  10.909
41667SOL    HW126833   7.008  11.133  10.945
41667SOL    HW226834   7.048  11.015  10.858
41668SOL     OW26835   6.656  13.586  12.429
41668SOL    HW126836   6.662  13.661  12.369
41668SOL    HW226837   6.741  13.586  12.474
41669SOL     OW26838   0.307  11.104   9.603
41669SOL    HW126839   0.348  11.018   9.610
41669SOL    HW226840   0.364  11.153   9.544
41670SOL     OW26841   1.127  13.174   6.728
41670SOL    HW126842   1.221  13.187   6.742
41670SOL    HW226843   1.108  13.091   6.770
41671SOL     OW26844   9.070   1.847   2.987
41671SOL    HW126845   8.996   1.836   2.927
41671SOL    HW226846   9.126   1.771   2.971
41672SOL     OW26847   9.386  11.275   7.423
41672SOL    HW126848   9.356  11.184   7.413
41672SOL    HW226849   9.326  11.326   7.370
41673SOL     OW26850   1.412   3.897   6.236
41673SOL    HW126851   1.358   3.937   6.167
41673SOL    HW226852   1.484   3.958   6.248
41674SOL     OW26853   4.319   5.759   5.278
41674SOL    HW126854   4.237   5.709   5.272
41674SOL    HW226855   4.378   5.715   5.217
41675SOL     OW26856   2.184  12.000   1.139
41675SOL    HW126857   2.279  11.989   1.148
41675SOL    HW226858   2.174  12.067   1.071
41676SOL     OW26859   8.122   5.026  11.738
41676SOL    HW126860   8.165   4.947  11.771
41676SOL    HW226861   8.096   5.004  11.649
41677SOL     OW26862   9.340  11.607  10.873
41677SOL    HW126863   9.360  11.514  10.861
41677SOL    HW226864   9.248  11.615  10.849
41678SOL     OW26865  10.342  14.008  11.136
41678SOL    HW126866  10.318  13.919  11.161
41678SOL    HW226867  10.429  13.998  11.095
41679SOL     OW26868   2.723  10.312  12.646
41679SOL    HW126869   2.717  10.248  12.717
41679SOL    HW226870   2.636  10.354  12.645
41680SOL     OW26871   0.801   2.315   5.127
41680SOL    HW126872   0.879   2.299   5.180
41680SOL    HW226873   0.747   2.237   5.140
41681SOL     OW26874   0.478  12.984   6.861
41681SOL    HW126875   0.458  12.953   6.949
41681SOL    HW226876   0.511  13.073   6.874
41682SOL     OW26877   9.850   3.684  14.569
41682SOL    HW126878   9.916   3.615  14.565
41682SOL    HW226879   9.767   3.637  14.567
41683SOL     OW26880   6.695   1.747  11.144
41683SOL    HW126881   6.731   1.800  11.073
41683SOL    HW226882   6.672   1.810  11.212
41684SOL     OW26883   2.769   7.883   4.194
41684SOL    HW126884   2.826   7.958   4.173
41684SOL    HW226885   2.756   7.839   4.110
41685SOL     OW26886  11.087   9.999   9.559
41685SOL    HW126887  11.142   9.923   9.579
41685SOL    HW226888  11.016   9.963   9.504
41686SOL     OW26889   9.673  12.293   7.685
41686SOL    HW126890   9.617  12.234   7.635
41686SOL    HW226891   9.664  12.378   7.641
41687SOL     OW26892   9.344  12.014   5.951
41687SOL    HW126893   9.285  12.019   6.026
41687SOL    HW226894   9.382  11.926   5.957
41688SOL     OW26895  12.355   5.696   8.388
41688SOL    HW126896  12.279   5.683   8.445
41688SOL    HW226897  12.392   5.608   8.378
41689SOL     OW26898   5.979   7.668   0.263
41689SOL    HW126899   5.934   7.744   0.301
41689SOL    HW226900   5.928   7.648   0.184
41690SOL     OW26901  10.235   6.326   6.538
41690SOL    HW126902  10.272   6.270   6.469
41690SOL    HW226903  10.249   6.277   6.619
41691SOL     OW26904   5.593   4.735  10.581
41691SOL    HW126905   5.509   4.690  10.591
41691SOL    HW226906   5.652   4.686  10.639
41692SOL     OW26907   1.859   7.296  13.707
41692SOL    HW126908   1.871   7.389  13.687
41692SOL    HW226909   1.947   7.265  13.728
41693SOL     OW26910   7.123  14.651   4.393
41693SOL    HW126911   7.136  14.566   4.350
41693SOL    HW226912   7.049  14.637   4.452
41694SOL     OW26913   4.428  12.121   5.437
41694SOL    HW126914   4.452  12.200   5.485
41694SOL    HW226915   4.490  12.119   5.364
41695SOL     OW26916   0.913   3.072   9.843
41695SOL    HW126917   0.854   3.046   9.772
41695SOL    HW226918   0.905   3.002   9.908
41696SOL     OW26919  10.452  12.055   7.701
41696SOL    HW126920  10.494  12.021   7.622
41696SOL    HW226921  10.373  12.098   7.670
41697SOL     OW26922   8.851  11.847  11.275
41697SOL    HW126923   8.939  11.884  11.280
41697SOL    HW226924   8.851  11.796  11.194
41698SOL     OW26925   7.648  12.064  10.013
41698SOL    HW126926   7.584  12.064   9.942
41698SOL    HW226927   7.727  12.028   9.974
41699SOL     OW26928   6.618   9.631   4.800
41699SOL    HW126929   6.664   9.607   4.719
41699SOL    HW226930   6.684   9.621   4.869
41700SOL     OW26931   4.801   5.104  11.637
41700SOL    HW126932   4.755   5.186  11.654
41700SOL    HW226933   4.827   5.108  11.545
41701SOL     OW26934   6.994   5.880  13.527
41701SOL    HW126935   7.070   5.931  13.557
41701SOL    HW226936   6.935   5.945  13.489
41702SOL     OW26937   1.433   1.556   9.770
41702SOL    HW126938   1.343   1.526   9.767
41702SOL    HW226939   1.429   1.649   9.745
41703SOL     OW26940   2.609   5.366  13.971
41703SOL    HW126941   2.701   5.341  13.958
41703SOL    HW226942   2.580   5.314  14.046
41704SOL     OW26943  13.588  10.933   2.933
41704SOL    HW126944  13.535  10.917   3.011
41704SOL    HW226945  13.678  10.926   2.963
41705SOL     OW26946   1.981   9.199   1.787
41705SOL    HW126947   1.930   9.177   1.710
41705SOL    HW226948   1.920   9.246   1.844
41706SOL     OW26949   8.056   0.379  12.593
41706SOL    HW126950   8.074   0.472  12.580
41706SOL    HW226951   8.085   0.337  12.513
41707SOL     OW26952   3.409   1.678  12.151
41707SOL    HW126953   3.488   1.729  12.170
41707SOL    HW226954   3.338   1.742  12.154
41708SOL     OW26955   8.714   8.060   6.278
41708SOL    HW126956   8.779   8.067   6.348
41708SOL    HW226957   8.701   7.965   6.268
41709SOL     OW26958   0.374  11.528   0.570
41709SOL    HW126959   0.307  11.587   0.604
41709SOL    HW226960   0.427  11.583   0.513
41710SOL     OW26961  12.447   8.067   0.657
41710SOL    HW126962  12.359   8.037   0.682
41710SOL    HW226963  12.458   8.036   0.567
41711SOL     OW26964  11.717   1.404   1.540
41711SOL    HW126965  11.798   1.449   1.515
41711SOL    HW226966  11.663   1.407   1.461
41712SOL     OW26967  13.642   6.395   1.788
41712SOL    HW126968  13.570   6.451   1.818
41712SOL    HW226969  13.718   6.453   1.784
41713SOL     OW26970   7.842   1.389   0.226
41713SOL    HW126971   7.854   1.402   0.132
41713SOL    HW226972   7.911   1.327   0.250
41714SOL     OW26973  13.598  10.279   3.269
41714SOL    HW126974  13.655  10.306   3.197
41714SOL    HW226975  13.654  10.224   3.324
41715SOL     OW26976  11.099   4.284  12.871
41715SOL    HW126977  11.161   4.238  12.815
41715SOL    HW226978  11.137   4.279  12.959
41716SOL     OW26979   5.852  11.774  10.074
41716SOL    HW126980   5.847  11.679  10.083
41716SOL    HW226981   5.913  11.787  10.001
41717SOL     OW26982  14.561  14.372  12.072
41717SOL    HW126983  14.639  14.350  12.123
41717SOL    HW226984  14.527  14.287  12.043
41718SOL     OW26985   2.031   8.608   9.517
41718SOL    HW126986   2.010   8.665   9.591
41718SOL    HW226987   2.116   8.640   9.486
41719SOL     OW26988   3.308   7.990  11.251
41719SOL    HW126989   3.362   7.916  11.279
41719SOL    HW226990   3.224   7.950  11.228
41720SOL     OW26991   3.960   9.347   7.861
41720SOL    HW126992   3.965   9.302   7.946
41720SOL    HW226993   3.914   9.429   7.881
41721SOL     OW26994   9.194  11.464   1.212
41721SOL    HW126995   9.102  11.442   1.225
41721SOL    HW226996   9.208  11.543   1.265
41722SOL     OW26997  13.423   0.335   1.186
41722SOL    HW126998  13.381   0.375   1.262
41722SOL    HW226999  13.390   0.246   1.184
41723SOL     OW27000  14.337   5.458   1.051
41723SOL    HW127001  14.363   5.458   0.959
41723SOL    HW227002  14.258   5.512   1.054
41724SOL     OW27003  12.672   6.339   6.327
41724SOL    HW127004  12.628   6.368   6.247
41724SOL    HW227005  12.607   6.285   6.372
41725SOL     OW27006   4.372  10.482   2.483
41725SOL    HW127007   4.353  10.568   2.521
41725SOL    HW227008   4.402  10.502   2.394
41726SOL     OW27009   2.957   7.990   0.359
41726SOL    HW127010   2.927   8.062   0.414
41726SOL    HW227011   2.883   7.929   0.355
41727SOL     OW27012   1.744   2.903   7.465
41727SOL    HW127013   1.687   2.941   7.398
41727SOL    HW227014   1.756   2.973   7.529
41728SOL     OW27015   9.511   2.743   2.095
41728SOL    HW127016   9.473   2.824   2.063
41728SOL    HW227017   9.446   2.708   2.156
41729SOL     OW27018   9.669  13.843   9.273
41729SOL    HW127019   9.619  13.904   9.327
41729SOL    HW227020   9.653  13.872   9.183
41730SOL     OW27021   2.441   2.110   6.408
41730SOL    HW127022   2.462   2.173   6.339
41730SOL    HW227023   2.526   2.080   6.440
41731SOL     OW27024  13.700   0.422   8.431
41731SOL    HW127025  13.621   0.398   8.478
41731SOL    HW227026  13.739   0.338   8.405
41732SOL     OW27027   4.406   5.475   0.570
41732SOL    HW127028   4.327   5.512   0.609
41732SOL    HW227029   4.469   5.470   0.642
41733SOL     OW27030   4.114   6.149   4.267
41733SOL    HW127031   4.116   6.192   4.352
41733SOL    HW227032   4.059   6.205   4.212
41734SOL     OW27033   4.914   3.968   0.286
41734SOL    HW127034   5.009   3.970   0.295
41734SOL    HW227035   4.888   3.881   0.318
41735SOL     OW27036   0.637   0.374   1.614
41735SOL    HW127037   0.570   0.431   1.653
41735SOL    HW227038   0.673   0.326   1.689
41736SOL     OW27039  12.974   6.583  12.487
41736SOL    HW127040  12.901   6.591  12.425
41736SOL    HW227041  12.952   6.507  12.541
41737SOL     OW27042   9.386  11.219  12.472
41737SOL    HW127043   9.406  11.127  12.458
41737SOL    HW227044   9.324  11.219  12.545
41738SOL     OW27045   3.478  13.460   4.907
41738SOL    HW127046   3.538  13.453   4.833
41738SOL    HW227047   3.394  13.428   4.873
41739SOL     OW27048   1.999   3.368  13.435
41739SOL    HW127049   2.023   3.460  13.423
41739SOL    HW227050   2.082   3.324  13.455
41740SOL     OW27051  12.824   4.766  13.692
41740SOL    HW127052  12.841   4.708  13.618
41740SOL    HW227053  12.800   4.707  13.764
41741SOL     OW27054   8.540   1.589   7.498
41741SOL    HW127055   8.480   1.591   7.423
41741SOL    HW227056   8.621   1.627   7.465
41742SOL     OW27057   7.701   9.630  13.724
41742SOL    HW127058   7.650   9.709  13.704
41742SOL    HW227059   7.637   9.568  13.758
41743SOL     OW27060   1.598  14.578  13.927
41743SOL    HW127061   1.679  14.579  13.977
41743SOL    HW227062   1.547  14.651  13.961
41744SOL     OW27063   9.695   3.230  10.626
41744SOL    HW127064   9.722   3.195  10.710
41744SOL    HW227065   9.700   3.325  10.637
41745SOL     OW27066   1.483   1.621  12.714
41745SOL    HW127067   1.526   1.536  12.728
41745SOL    HW227068   1.400   1.598  12.671
41746SOL     OW27069   8.834   8.807   3.238
41746SOL    HW127070   8.890   8.841   3.168
41746SOL    HW227071   8.805   8.885   3.285
41747SOL     OW27072   8.804   2.385   7.752
41747SOL    HW127073   8.837   2.408   7.839
41747SOL    HW227074   8.715   2.354   7.768
41748SOL     OW27075  11.623  14.629  12.990
41748SOL    HW127076  11.580  14.543  12.986
41748SOL    HW227077  11.717  14.609  12.986
41749SOL     OW27078   7.492   5.482   7.070
41749SOL    HW127079   7.445   5.566   7.068
41749SOL    HW227080   7.584   5.506   7.068
41750SOL     OW27081  10.203   1.212   4.707
41750SOL    HW127082  10.169   1.237   4.621
41750SOL    HW227083  10.129   1.169   4.750
41751SOL     OW27084   1.439   2.617   6.753
41751SOL    HW127085   1.442   2.583   6.842
41751SOL    HW227086   1.348   2.602   6.724
41752SOL     OW27087   9.824   0.360   2.123
41752SOL    HW127088   9.830   0.390   2.033
41752SOL    HW227089   9.803   0.267   2.116
41753SOL     OW27090   3.731  12.255  12.128
41753SOL    HW127091   3.742  12.340  12.171
41753SOL    HW227092   3.816  12.238  12.086
41754SOL     OW27093   7.813   2.894   2.277
41754SOL    HW127094   7.876   2.858   2.340
41754SOL    HW227095   7.852   2.875   2.192
41755SOL     OW27096   9.746  14.240  10.930
41755SOL    HW127097   9.783  14.293  11.001
41755SOL    HW227098   9.681  14.185  10.974
41756SOL     OW27099   0.349  12.318   8.325
41756SOL    HW127100   0.410  12.319   8.399
41756SOL    HW227101   0.271  12.275   8.359
41757SOL     OW27102  10.449   2.128  12.942
41757SOL    HW127103  10.409   2.141  12.855
41757SOL    HW227104  10.514   2.060  12.928
41758SOL     OW27105  13.598   2.971   1.019
41758SOL    HW127106  13.564   2.948   1.105
41758SOL    HW227107  13.668   2.908   1.002
41759SOL     OW27108  12.989   1.718   7.367
41759SOL    HW127109  13.001   1.808   7.336
41759SOL    HW227110  12.922   1.724   7.435
41760SOL     OW27111   8.565   1.730   6.588
41760SOL    HW127112   8.531   1.765   6.506
41760SOL    HW227113   8.521   1.645   6.598
41761SOL     OW27114   6.121   7.350   8.341
41761SOL    HW127115   6.060   7.359   8.414
41761SOL    HW227116   6.206   7.333   8.382
41762SOL     OW27117  11.862  12.958   2.852
41762SOL    HW127118  11.802  13.025   2.885
41762SOL    HW227119  11.938  12.964   2.909
41763SOL     OW27120   0.891  11.693  13.059
41763SOL    HW127121   0.874  11.759  12.991
41763SOL    HW227122   0.848  11.614  13.028
41764SOL     OW27123  13.624  10.964   2.239
41764SOL    HW127124  13.570  11.030   2.195
41764SOL    HW227125  13.562  10.911   2.288
41765SOL     OW27126   0.463   3.097  13.732
41765SOL    HW127127   0.556   3.117  13.740
41765SOL    HW227128   0.454   3.057  13.645
41766SOL     OW27129   6.894   4.929   9.178
41766SOL    HW127130   6.967   4.969   9.130
41766SOL    HW227131   6.899   4.969   9.265
41767SOL     OW27132  14.798   2.864   9.786
41767SOL    HW127133  14.773   2.952   9.760
41767SOL    HW227134   0.008   2.874   9.827
41768SOL     OW27135  11.124  12.661   3.890
41768SOL    HW127136  11.045  12.639   3.940
41768SOL    HW227137  11.168  12.576   3.876
41769SOL     OW27138  12.800   4.333  10.774
41769SOL    HW127139  12.717   4.377  10.755
41769SOL    HW227140  12.830   4.373  10.855
41770SOL     OW27141  13.973   3.356   4.399
41770SOL    HW127142  13.887   3.375   4.362
41770SOL    HW227143  13.957   3.344   4.493
41771SOL     OW27144   9.276  10.566   9.347
41771SOL    HW127145   9.229  10.532   9.271
41771SOL    HW227146   9.209  10.611   9.399
41772SOL     OW27147   9.995   2.156   5.129
41772SOL    HW127148  10.081   2.135   5.164
41772SOL    HW227149   9.970   2.078   5.079
41773SOL     OW27150   1.723   0.768  11.337
41773SOL    HW127151   1.768   0.716  11.403
41773SOL    HW227152   1.678   0.704  11.282
41774SOL     OW27153  12.703   1.993  12.604
41774SOL    HW127154  12.766   1.968  12.672
41774SOL    HW227155  12.714   2.087  12.594
41775SOL     OW27156   8.410  14.390   6.247
41775SOL    HW127157   8.420  14.428   6.335
41775SOL    HW227158   8.414  14.465   6.188
41776SOL     OW27159  12.179  12.549   6.290
41776SOL    HW127160  12.102  12.574   6.341
41776SOL    HW227161  12.244  12.522   6.355
41777SOL     OW27162  14.758  14.545  12.559
41777SOL    HW127163  14.727  14.629  12.528
41777SOL    HW227164  14.679  14.500  12.590
41778SOL     OW27165   2.281   1.780  14.298
41778SOL    HW127166   2.294   1.697  14.252
41778SOL    HW227167   2.349   1.781  14.365
41779SOL     OW27168   4.851   9.984   2.279
41779SOL    HW127169   4.871  10.020   2.192
41779SOL    HW227170   4.826   9.893   2.261
41780SOL     OW27171   9.661   8.832  12.662
41780SOL    HW127172   9.663   8.919  12.622
41780SOL    HW227173   9.646   8.773  12.589
41781SOL     OW27174  13.585  10.543  11.022
41781SOL    HW127175  13.681  10.545  11.026
41781SOL    HW227176  13.560  10.627  10.985
41782SOL     OW27177   0.064   7.145   1.308
41782SOL    HW127178   0.096   7.235   1.311
41782SOL    HW227179   0.079   7.112   1.397
41783SOL     OW27180   3.883  11.959  14.495
41783SOL    HW127181   3.869  11.867  14.475
41783SOL    HW227182   3.976  11.964  14.519
41784SOL     OW27183   0.478   9.449   3.296
41784SOL    HW127184   0.497   9.430   3.388
41784SOL    HW227185   0.485   9.544   3.289
41785SOL     OW27186   0.509   1.150  12.221
41785SOL    HW127187   0.561   1.229  12.235
41785SOL    HW227188   0.573   1.083  12.199
41786SOL     OW27189   8.132  14.780   5.149
41786SOL    HW127190   8.156  14.723   5.222
41786SOL    HW227191   8.114  14.865   5.190
41787SOL     OW27192  12.051   5.190  13.097
41787SOL    HW127193  12.109   5.258  13.132
41787SOL    HW227194  12.097   5.157  13.020
41788SOL     OW27195   8.882  13.491   1.537
41788SOL    HW127196   8.966  13.446   1.530
41788SOL    HW227197   8.886  13.538   1.620
41789SOL     OW27198   3.152   8.031   2.336
41789SOL    HW127199   3.099   8.070   2.267
41789SOL    HW227200   3.179   7.946   2.301
41790SOL     OW27201  11.117  12.892   8.810
41790SOL    HW127202  11.139  12.964   8.750
41790SOL    HW227203  11.058  12.932   8.874
41791SOL     OW27204   7.614  14.459   2.892
41791SOL    HW127205   7.629  14.430   2.802
41791SOL    HW227206   7.694  14.434   2.939
41792SOL     OW27207  14.795   7.555   8.693
41792SOL    HW127208  14.789   7.628   8.631
41792SOL    HW227209  14.747   7.484   8.651
41793SOL     OW27210  10.851   6.377  10.991
41793SOL    HW127211  10.921   6.382  10.925
41793SOL    HW227212  10.898   6.367  11.074
41794SOL     OW27213   9.022  12.475  14.370
41794SOL    HW127214   9.026  12.388  14.330
41794SOL    HW227215   9.078  12.529  14.315
41795SOL     OW27216  10.203  14.563   7.068
41795SOL    HW127217  10.152  14.644   7.078
41795SOL    HW227218  10.197  14.520   7.153
41796SOL     OW27219   6.124   6.240   9.281
41796SOL    HW127220   6.098   6.325   9.315
41796SOL    HW227221   6.162   6.259   9.195
41797SOL     OW27222   6.192   8.240   1.064
41797SOL    HW127223   6.174   8.189   0.985
41797SOL    HW227224   6.278   8.279   1.048
41798SOL     OW27225   3.651  13.592  10.482
41798SOL    HW127226   3.732  13.543  10.496
41798SOL    HW227227   3.656  13.666  10.543
41799SOL     OW27228   6.656   9.252   2.103
41799SOL    HW127229   6.677   9.318   2.170
41799SOL    HW227230   6.742   9.227   2.068
41800SOL     OW27231   8.165   7.946   9.275
41800SOL    HW127232   8.228   7.930   9.345
41800SOL    HW227233   8.102   7.874   9.281
41801SOL     OW27234   9.828  14.671   3.777
41801SOL    HW127235   9.771  14.740   3.744
41801SOL    HW227236   9.817  14.599   3.714
41802SOL     OW27237  13.576  11.629   2.425
41802SOL    HW127238  13.623  11.695   2.477
41802SOL    HW227239  13.642  11.595   2.365
41803SOL     OW27240  14.133   6.765   6.527
41803SOL    HW127241  14.154   6.728   6.441
41803SOL    HW227242  14.210   6.818   6.550
41804SOL     OW27243   7.064   4.146  13.647
41804SOL    HW127244   7.118   4.109  13.717
41804SOL    HW227245   7.117   4.136  13.568
41805SOL     OW27246   2.897   5.759  13.479
41805SOL    HW127247   2.955   5.821  13.435
41805SOL    HW227248   2.934   5.673  13.460
41806SOL     OW27249   5.402  11.362   2.477
41806SOL    HW127250   5.337  11.414   2.523
41806SOL    HW227251   5.375  11.365   2.385
41807SOL     OW27252   9.249   2.669  12.077
41807SOL    HW127253   9.178   2.712  12.029
41807SOL    HW227254   9.327   2.722  12.056
41808SOL     OW27255  12.922   7.165  14.680
41808SOL    HW127256  12.953   7.163  14.589
41808SOL    HW227257  12.833   7.130  14.675
41809SOL     OW27258   7.147  10.515  13.478
41809SOL    HW127259   7.090  10.453  13.433
41809SOL    HW227260   7.235  10.489  13.452
41810SOL     OW27261  12.591   6.830  13.369
41810SOL    HW127262  12.556   6.918  13.359
41810SOL    HW227263  12.653   6.821  13.297
41811SOL     OW27264   8.843   2.652  14.307
41811SOL    HW127265   8.862   2.746  14.298
41811SOL    HW227266   8.784   2.647  14.382
41812SOL     OW27267   9.444   6.788  11.098
41812SOL    HW127268   9.462   6.848  11.025
41812SOL    HW227269   9.480   6.704  11.069
41813SOL     OW27270   1.831  13.805  14.087
41813SOL    HW127271   1.778  13.737  14.128
41813SOL    HW227272   1.843  13.774  13.997
41814SOL     OW27273   3.323  13.340   8.670
41814SOL    HW127274   3.367  13.370   8.750
41814SOL    HW227275   3.305  13.421   8.622
41815SOL     OW27276   5.903  10.630   7.263
41815SOL    HW127277   5.879  10.541   7.288
41815SOL    HW227278   5.997  10.626   7.245
41816SOL     OW27279   3.755  11.953  11.473
41816SOL    HW127280   3.822  11.992  11.417
41816SOL    HW227281   3.690  12.021  11.485
41817SOL     OW27282   5.481   8.584   3.698
41817SOL    HW127283   5.537   8.589   3.776
41817SOL    HW227284   5.529   8.632   3.631
41818SOL     OW27285   8.382   2.129  13.760
41818SOL    HW127286   8.332   2.169  13.690
41818SOL    HW227287   8.447   2.074  13.715
41819SOL     OW27288   8.039   8.758  12.928
41819SOL    HW127289   7.979   8.827  12.898
41819SOL    HW227290   8.117   8.805  12.956
41820SOL     OW27291   4.518   6.244  10.324
41820SOL    HW127292   4.435   6.222  10.367
41820SOL    HW227293   4.540   6.330  10.358
41821SOL     OW27294   3.277   1.637   1.606
41821SOL    HW127295   3.183   1.622   1.598
41821SOL    HW227296   3.285   1.733   1.611
41822SOL     OW27297   9.405  11.665   3.104
41822SOL    HW127298   9.488  11.628   3.073
41822SOL    HW227299   9.404  11.754   3.070
41823SOL     OW27300   4.593  12.956   1.504
41823SOL    HW127301   4.666  13.018   1.503
41823SOL    HW227302   4.620  12.887   1.443
41824SOL     OW27303  13.555  14.478   6.901
41824SOL    HW127304  13.591  14.495   6.815
41824SOL    HW227305  13.541  14.383   6.903
41825SOL     OW27306   2.431  12.357  10.300
41825SOL    HW127307   2.430  12.402  10.216
41825SOL    HW227308   2.365  12.289  10.292
41826SOL     OW27309  12.678   4.603  13.888
41826SOL    HW127310  12.630   4.545  13.829
41826SOL    HW227311  12.620   4.614  13.964
41827SOL     OW27312   0.678  14.041   0.783
41827SOL    HW127313   0.748  13.980   0.808
41827SOL    HW227314   0.677  14.037   0.687
41828SOL     OW27315   1.818   3.379   8.023
41828SOL    HW127316   1.841   3.374   7.931
41828SOL    HW227317   1.837   3.470   8.048
41829SOL     OW27318  14.718  14.760  12.006
41829SOL    HW127319  14.653  14.690  12.014
41829SOL    HW227320  14.666  14.839  11.992
41830SOL     OW27321   9.088   6.691  11.070
41830SOL    HW127322   9.055   6.778  11.049
41830SOL    HW227323   9.149   6.706  11.142
41831SOL     OW27324  11.374  10.177   5.037
41831SOL    HW127325  11.338  10.100   4.991
41831SOL    HW227326  11.298  10.233   5.051
41832SOL     OW27327   9.619   9.950   6.631
41832SOL    HW127328   9.662   9.865   6.625
41832SOL    HW227329   9.530   9.930   6.662
41833SOL     OW27330   3.666  14.597   0.414
41833SOL    HW127331   3.573  14.609   0.394
41833SOL    HW227332   3.694  14.681   0.450
41834SOL     OW27333   5.456   5.694   4.554
41834SOL    HW127334   5.461   5.599   4.553
41834SOL    HW227335   5.364   5.713   4.576
41835SOL     OW27336   3.421   3.904   7.586
41835SOL    HW127337   3.476   3.826   7.578
41835SOL    HW227338   3.480   3.977   7.565
41836SOL     OW27339  11.876   6.955   8.594
41836SOL    HW127340  11.927   6.886   8.550
41836SOL    HW227341  11.868   6.924   8.684
41837SOL     OW27342  11.533  12.546   1.377
41837SOL    HW127343  11.623  12.515   1.369
41837SOL    HW227344  11.511  12.581   1.291
41838SOL     OW27345   3.794   4.896  14.588
41838SOL    HW127346   3.866   4.837  14.609
41838SOL    HW227347   3.727   4.875  14.654
41839SOL     OW27348   5.778   3.611  12.656
41839SOL    HW127349   5.755   3.569  12.574
41839SOL    HW227350   5.731   3.694  12.654
41840SOL     OW27351  12.261   6.657   6.627
41840SOL    HW127352  12.303   6.687   6.546
41840SOL    HW227353  12.257   6.735   6.682
41841SOL     OW27354   1.820  10.319  13.943
41841SOL    HW127355   1.725  10.306  13.944
41841SOL    HW227356   1.832  10.408  13.977
41842SOL     OW27357   6.463   6.310   0.986
41842SOL    HW127358   6.381   6.267   1.010
41842SOL    HW227359   6.471   6.296   0.892
41843SOL     OW27360  14.389   0.795  11.278
41843SOL    HW127361  14.387   0.848  11.358
41843SOL    HW227362  14.348   0.713  11.304
41844SOL     OW27363   1.949   6.797   2.401
41844SOL    HW127364   2.002   6.770   2.477
41844SOL    HW227365   1.864   6.819   2.438
41845SOL     OW27366  10.789   8.294   8.730
41845SOL    HW127367  10.784   8.366   8.667
41845SOL    HW227368  10.880   8.265   8.725
41846SOL     OW27369   8.965   1.461  10.015
41846SOL    HW127370   8.891   1.423   9.968
41846SOL    HW227371   9.039   1.453   9.955
41847SOL     OW27372   0.886   1.008   7.376
41847SOL    HW127373   0.971   0.999   7.419
41847SOL    HW227374   0.897   1.081   7.316
41848SOL     OW27375  12.776   9.908   6.615
41848SOL    HW127376  12.752   9.902   6.708
41848SOL    HW227377  12.715   9.971   6.578
41849SOL     OW27378   9.554  12.317   2.706
41849SOL    HW127379   9.519  12.239   2.664
41849SOL    HW227380   9.554  12.296   2.799
41850SOL     OW27381  13.028   8.861   4.261
41850SOL    HW127382  12.973   8.934   4.231
41850SOL    HW227383  13.085   8.900   4.327
41851SOL     OW27384  13.984   1.283   5.129
41851SOL    HW127385  13.995   1.281   5.034
41851SOL    HW227386  13.902   1.331   5.143
41852SOL     OW27387   8.417   4.221   2.497
41852SOL    HW127388   8.511   4.235   2.492
41852SOL    HW227389   8.403   4.178   2.581
41853SOL     OW27390   7.286   7.089   7.068
41853SOL    HW127391   7.327   7.026   7.010
41853SOL    HW227392   7.214   7.126   7.017
41854SOL     OW27393   3.820   0.491   1.969
41854SOL    HW127394   3.793   0.541   1.892
41854SOL    HW227395   3.856   0.556   2.029
41855SOL     OW27396  10.086  14.288  13.936
41855SOL    HW127397  10.012  14.228  13.950
41855SOL    HW227398  10.112  14.316  14.024
41856SOL     OW27399   7.039  11.641   9.214
41856SOL    HW127400   7.003  11.660   9.301
41856SOL    HW227401   7.083  11.721   9.187
41857SOL     OW27402   7.160  13.400   4.171
41857SOL    HW127403   7.075  13.376   4.135
41857SOL    HW227404   7.141  13.466   4.237
41858SOL     OW27405   6.635   5.613   8.245
41858SOL    HW127406   6.678   5.630   8.329
41858SOL    HW227407   6.559   5.670   8.244
41859SOL     OW27408   9.793   6.710   8.315
41859SOL    HW127409   9.713   6.747   8.277
41859SOL    HW227410   9.778   6.714   8.409
41860SOL     OW27411   5.549  10.428  12.656
41860SOL    HW127412   5.580  10.518  12.645
41860SOL    HW227413   5.517  10.404  12.569
41861SOL     OW27414   5.408   5.555  14.429
41861SOL    HW127415   5.426   5.643  14.462
41861SOL    HW227416   5.318   5.559  14.397
41862SOL     OW27417   0.002   6.606   5.038
41862SOL    HW127418   0.027   6.535   4.978
41862SOL    HW227419   0.072   6.670   5.029
41863SOL     OW27420   6.004   9.012  14.613
41863SOL    HW127421   5.977   9.103  14.610
41863SOL    HW227422   5.940   8.970  14.670
41864SOL     OW27423   3.280   3.003   6.401
41864SOL    HW127424   3.344   3.063   6.437
41864SOL    HW227425   3.219   2.987   6.473
41865SOL     OW27426  14.696   2.628  11.858
41865SOL    HW127427  14.650   2.607  11.777
41865SOL    HW227428  14.781   2.661  11.829
41866SOL     OW27429   3.460   8.024   4.346
41866SOL    HW127430   3.453   8.005   4.440
41866SOL    HW227431   3.388   8.083   4.327
41867SOL     OW27432  10.913   9.208   5.748
41867SOL    HW127433  10.915   9.165   5.662
41867SOL    HW227434  10.869   9.292   5.732
41868SOL     OW27435   1.740   4.133  13.085
41868SOL    HW127436   1.759   4.199  13.018
41868SOL    HW227437   1.825   4.110  13.121
41869SOL     OW27438   9.266   8.025   1.524
41869SOL    HW127439   9.200   7.971   1.568
41869SOL    HW227440   9.276   8.102   1.580
41870SOL     OW27441  10.355  13.817   9.658
41870SOL    HW127442  10.427  13.824   9.595
41870SOL    HW227443  10.393  13.770   9.732
41871SOL     OW27444   9.748   6.545  13.939
41871SOL    HW127445   9.725   6.600  14.013
41871SOL    HW227446   9.841   6.525  13.951
41872SOL     OW27447   8.108   7.834  14.178
41872SOL    HW127448   8.184   7.830  14.237
41872SOL    HW227449   8.092   7.742  14.155
41873SOL     OW27450  14.201   0.485  10.802
41873SOL    HW127451  14.219   0.472  10.895
41873SOL    HW227452  14.106   0.479  10.794
41874SOL     OW27453  11.409   5.344  13.591
41874SOL    HW127454  11.472   5.284  13.631
41874SOL    HW227455  11.461   5.422  13.572
41875SOL     OW27456   2.100   7.830  12.722
41875SOL    HW127457   2.061   7.821  12.809
41875SOL    HW227458   2.030   7.866  12.668
41876SOL     OW27459   3.179  12.016  11.242
41876SOL    HW127460   3.121  11.997  11.316
41876SOL    HW227461   3.267  12.008  11.278
41877SOL     OW27462  14.410   2.662  13.331
41877SOL    HW127463  14.443   2.625  13.249
41877SOL    HW227464  14.315   2.656  13.323
41878SOL     OW27465   0.260   3.232   7.952
41878SOL    HW127466   0.176   3.208   7.912
41878SOL    HW227467   0.293   3.303   7.898
41879SOL     OW27468   3.328  13.595  11.154
41879SOL    HW127469   3.380  13.663  11.198
41879SOL    HW227470   3.389  13.554  11.093
41880SOL     OW27471  11.318   4.120   4.096
41880SOL    HW127472  11.257   4.179   4.141
41880SOL    HW227473  11.302   4.035   4.136
41881SOL     OW27474   8.631   1.687   9.283
41881SOL    HW127475   8.727   1.677   9.283
41881SOL    HW227476   8.598   1.599   9.266
41882SOL     OW27477  12.360  13.891   3.308
41882SOL    HW127478  12.300  13.825   3.343
41882SOL    HW227479  12.445  13.847   3.306
41883SOL     OW27480  14.527   0.380   6.623
41883SOL    HW127481  14.458   0.319   6.650
41883SOL    HW227482  14.484   0.439   6.561
41884SOL     OW27483   4.409   2.157  11.887
41884SOL    HW127484   4.360   2.192  11.812
41884SOL    HW227485   4.488   2.118  11.848
41885SOL     OW27486   9.692   6.104   9.710
41885SOL    HW127487   9.633   6.136   9.641
41885SOL    HW227488   9.779   6.136   9.683
41886SOL     OW27489  10.589   5.714  14.240
41886SOL    HW127490  10.601   5.676  14.327
41886SOL    HW227491  10.629   5.650  14.181
41887SOL     OW27492   0.589   8.138  14.690
41887SOL    HW127493   0.499   8.119  14.719
41887SOL    HW227494   0.644   8.092  14.754
41888SOL     OW27495  12.675   0.606   5.731
41888SOL    HW127496  12.639   0.688   5.696
41888SOL    HW227497  12.758   0.595   5.686
41889SOL     OW27498   1.379   3.168   1.908
41889SOL    HW127499   1.463   3.133   1.938
41889SOL    HW227500   1.358   3.236   1.972
41890SOL     OW27501   4.082  13.090  10.406
41890SOL    HW127502   4.176  13.103  10.415
41890SOL    HW227503   4.050  13.081  10.496
41891SOL     OW27504   9.963   1.081   8.786
41891SOL    HW127505   9.888   1.137   8.766
41891SOL    HW227506  10.018   1.134   8.844
41892SOL     OW27507   9.636   1.977   1.222
41892SOL    HW127508   9.563   1.918   1.199
41892SOL    HW227509   9.613   2.060   1.181
41893SOL     OW27510   9.399   1.504  14.308
41893SOL    HW127511   9.347   1.465  14.238
41893SOL    HW227512   9.342   1.572  14.345
41894SOL     OW27513  10.192   9.776   0.601
41894SOL    HW127514  10.230   9.695   0.566
41894SOL    HW227515  10.126   9.746   0.663
41895SOL     OW27516   5.736   2.421   1.671
41895SOL    HW127517   5.754   2.510   1.640
41895SOL    HW227518   5.660   2.394   1.620
41896SOL     OW27519   0.870   7.178  11.420
41896SOL    HW127520   0.888   7.155  11.511
41896SOL    HW227521   0.832   7.266  11.425
41897SOL     OW27522  12.225  14.487   5.383
41897SOL    HW127523  12.301  14.545   5.372
41897SOL    HW227524  12.262  14.407   5.419
41898SOL     OW27525   9.359   1.890   1.449
41898SOL    HW127526   9.322   1.846   1.526
41898SOL    HW227527   9.367   1.982   1.475
41899SOL     OW27528  12.407   8.080  11.702
41899SOL    HW127529  12.447   8.071  11.788
41899SOL    HW227530  12.481   8.097  11.643
41900SOL     OW27531  11.997   0.168   8.644
41900SOL    HW127532  12.072   0.209   8.602
41900SOL    HW227533  12.023   0.160   8.736
41901SOL     OW27534   4.870   5.508  11.178
41901SOL    HW127535   4.850   5.423  11.139
41901SOL    HW227536   4.787   5.556  11.176
41902SOL     OW27537  10.311   6.102   8.993
41902SOL    HW127538  10.220   6.128   9.007
41902SOL    HW227539  10.362   6.181   9.012
41903SOL     OW27540   2.215  14.547  11.257
41903SOL    HW127541   2.254  14.571  11.342
41903SOL    HW227542   2.148  14.482  11.279
41904SOL     OW27543   5.819  10.452   2.834
41904SOL    HW127544   5.833  10.508   2.910
41904SOL    HW227545   5.905  10.415   2.816
41905SOL     OW27546  10.851   7.469   7.083
41905SOL    HW127547  10.831   7.393   7.030
41905SOL    HW227548  10.782   7.471   7.150
41906SOL     OW27549  10.631   3.710   7.433
41906SOL    HW127550  10.550   3.658   7.435
41906SOL    HW227551  10.634   3.752   7.519
41907SOL     OW27552   0.142   7.653   7.662
41907SOL    HW127553   0.112   7.645   7.572
41907SOL    HW227554   0.237   7.659   7.655
41908SOL     OW27555  10.654  11.755  13.228
41908SOL    HW127556  10.710  11.785  13.157
41908SOL    HW227557  10.711  11.753  13.305
41909SOL     OW27558   1.272   2.658   5.702
41909SOL    HW127559   1.270   2.571   5.741
41909SOL    HW227560   1.229   2.647   5.617
41910SOL     OW27561   9.476   1.066  11.545
41910SOL    HW127562   9.450   0.993  11.601
41910SOL    HW227563   9.472   1.143  11.601
41911SOL     OW27564   9.839   1.326   1.239
41911SOL    HW127565   9.914   1.342   1.297
41911SOL    HW227566   9.810   1.238   1.263
41912SOL     OW27567   7.306  11.740  14.318
41912SOL    HW127568   7.280  11.667  14.374
41912SOL    HW227569   7.257  11.726  14.237
41913SOL     OW27570   7.431  14.758  14.689
41913SOL    HW127571   7.382  14.676  14.691
41913SOL    HW227572   7.452  14.771  14.596
41914SOL     OW27573   6.561  10.354   7.498
41914SOL    HW127574   6.607  10.437   7.512
41914SOL    HW227575   6.610  10.290   7.550
41915SOL     OW27576  11.782   9.740  10.030
41915SOL    HW127577  11.730   9.673   9.986
41915SOL    HW227578  11.744   9.744  10.118
41916SOL     OW27579  10.962  14.115  12.107
41916SOL    HW127580  10.924  14.155  12.029
41916SOL    HW227581  10.989  14.028  12.078
41917SOL     OW27582   0.447   6.608   5.745
41917SOL    HW127583   0.446   6.515   5.725
41917SOL    HW227584   0.535   6.625   5.778
41918SOL     OW27585   9.425  14.441   2.576
41918SOL    HW127586   9.514  14.472   2.556
41918SOL    HW227587   9.399  14.492   2.653
41919SOL     OW27588  10.541   8.229   8.887
41919SOL    HW127589  10.559   8.174   8.963
41919SOL    HW227590  10.626   8.267   8.864
41920SOL     OW27591   0.670   5.079   6.241
41920SOL    HW127592   0.582   5.055   6.270
41920SOL    HW227593   0.722   5.079   6.321
41921SOL     OW27594  14.690   4.283  13.743
41921SOL    HW127595  14.673   4.199  13.784
41921SOL    HW227596  14.702   4.263  13.650
41922SOL     OW27597   3.941   2.879   1.691
41922SOL    HW127598   4.013   2.817   1.700
41922SOL    HW227599   3.927   2.913   1.779
41923SOL     OW27600   5.463  13.191   4.261
41923SOL    HW127601   5.538  13.169   4.315
41923SOL    HW227602   5.452  13.285   4.271
41924SOL     OW27603  14.338   2.967  13.376
41924SOL    HW127604  14.388   2.984  13.455
41924SOL    HW227605  14.395   2.997  13.305
41925SOL     OW27606   3.502  10.192  11.199
41925SOL    HW127607   3.518  10.104  11.166
41925SOL    HW227608   3.407  10.195  11.214
41926SOL     OW27609   4.472   4.383   0.573
41926SOL    HW127610   4.447   4.447   0.506
41926SOL    HW227611   4.391   4.368   0.623
41927SOL     OW27612   2.392   0.033   2.660
41927SOL    HW127613   2.436  14.850   2.720
41927SOL    HW227614   2.345   0.095   2.716
41928SOL     OW27615   0.112   0.523   5.094
41928SOL    HW127616   0.081   0.607   5.127
41928SOL    HW227617   0.187   0.544   5.040
41929SOL     OW27618   1.388   6.338  11.474
41929SOL    HW127619   1.390   6.300  11.386
41929SOL    HW227620   1.454   6.289  11.523
41930SOL     OW27621   6.260   6.730   0.401
41930SOL    HW127622   6.177   6.755   0.442
41930SOL    HW227623   6.245   6.743   0.307
41931SOL     OW27624  11.392  14.694  11.147
41931SOL    HW127625  11.440  14.765  11.103
41931SOL    HW227626  11.429  14.614  11.109
41932SOL     OW27627   6.779   6.401   4.889
41932SOL    HW127628   6.852   6.431   4.833
41932SOL    HW227629   6.803   6.431   4.977
41933SOL     OW27630   8.009   5.611  11.803
41933SOL    HW127631   7.999   5.705  11.787
41933SOL    HW227632   7.927   5.586  11.847
41934SOL     OW27633   7.846   3.564   4.181
41934SOL    HW127634   7.861   3.469   4.184
41934SOL    HW227635   7.925   3.599   4.140
41935SOL     OW27636  14.702   9.341   1.551
41935SOL    HW127637  14.721   9.306   1.638
41935SOL    HW227638  14.785   9.333   1.504
41936SOL     OW27639  14.223  14.043   2.904
41936SOL    HW127640  14.284  14.115   2.887
41936SOL    HW227641  14.137  14.078   2.884
41937SOL     OW27642  13.821  12.483   1.122
41937SOL    HW127643  13.899  12.538   1.132
41937SOL    HW227644  13.797  12.493   1.030
41938SOL     OW27645   4.063   7.243   4.136
41938SOL    HW127646   4.031   7.329   4.163
41938SOL    HW227647   4.043   7.237   4.043
41939SOL     OW27648   4.712  14.216  12.283
41939SOL    HW127649   4.619  14.200  12.298
41939SOL    HW227650   4.729  14.177  12.197
41940SOL     OW27651  13.082   8.094   7.524
41940SOL    HW127652  13.022   8.043   7.578
41940SOL    HW227653  13.031   8.172   7.499
41941SOL     OW27654  10.795  13.293  14.847
41941SOL    HW127655  10.842  13.377  14.848
41941SOL    HW227656  10.708  13.316  14.816
41942SOL     OW27657   1.598   6.070   6.621
41942SOL    HW127658   1.604   5.975   6.614
41942SOL    HW227659   1.550   6.086   6.702
41943SOL     OW27660  12.484   2.379  11.481
41943SOL    HW127661  12.564   2.429  11.470
41943SOL    HW227662  12.414   2.445  11.480
41944SOL     OW27663  13.342  14.317   8.363
41944SOL    HW127664  13.328  14.277   8.276
41944SOL    HW227665  13.258  14.306   8.408
41945SOL     OW27666   8.765   4.864   1.393
41945SOL    HW127667   8.746   4.952   1.423
41945SOL    HW227668   8.702   4.808   1.438
41946SOL     OW27669   2.352   5.498   6.745
41946SOL    HW127670   2.388   5.583   6.771
41946SOL    HW227671   2.259   5.515   6.731
41947SOL     OW27672  13.134   2.487  11.496
41947SOL    HW127673  13.181   2.565  11.467
41947SOL    HW227674  13.202   2.422  11.512
41948SOL     OW27675  12.056   1.204   3.143
41948SOL    HW127676  12.143   1.183   3.108
41948SOL    HW227677  12.072   1.219   3.237
41949SOL     OW27678  14.528  13.909   8.513
41949SOL    HW127679  14.590  13.980   8.499
41949SOL    HW227680  14.544  13.880   8.603
41950SOL     OW27681   1.746   5.440   6.041
41950SOL    HW127682   1.800   5.461   6.117
41950SOL    HW227683   1.772   5.351   6.017
41951SOL     OW27684   4.497  11.082   8.167
41951SOL    HW127685   4.528  11.056   8.080
41951SOL    HW227686   4.510  11.004   8.221
41952SOL     OW27687   9.851   5.933   2.294
41952SOL    HW127688   9.927   5.956   2.347
41952SOL    HW227689   9.872   5.964   2.206
41953SOL     OW27690  12.211   6.903  14.276
41953SOL    HW127691  12.135   6.933  14.227
41953SOL    HW227692  12.284   6.910  14.214
41954SOL     OW27693  11.310  14.262  11.253
41954SOL    HW127694  11.326  14.332  11.190
41954SOL    HW227695  11.214  14.254  11.257
41955SOL     OW27696   5.232   2.978   4.580
41955SOL    HW127697   5.242   2.890   4.543
41955SOL    HW227698   5.315   2.994   4.626
41956SOL     OW27699  14.422  12.149   6.662
41956SOL    HW127700  14.482  12.153   6.736
41956SOL    HW227701  14.351  12.093   6.692
41957SOL     OW27702   3.082   6.866  12.349
41957SOL    HW127703   3.112   6.780  12.380
41957SOL    HW227704   3.131   6.881  12.268
41958SOL     OW27705   8.980  13.407  10.989
41958SOL    HW127706   9.005  13.492  10.954
41958SOL    HW227707   8.887  13.416  11.009
41959SOL     OW27708   1.859   5.888  10.884
41959SOL    HW127709   1.814   5.965  10.849
41959SOL    HW227710   1.800   5.815  10.866
41960SOL     OW27711   9.529  13.343   9.233
41960SOL    HW127712   9.601  13.372   9.177
41960SOL    HW227713   9.490  13.424   9.267
41961SOL     OW27714  10.100   7.661   9.683
41961SOL    HW127715  10.049   7.650   9.764
41961SOL    HW227716  10.037   7.643   9.613
41962SOL     OW27717   0.723  11.385   1.214
41962SOL    HW127718   0.700  11.329   1.139
41962SOL    HW227719   0.790  11.445   1.180
41963SOL     OW27720   1.110   8.871   6.055
41963SOL    HW127721   1.114   8.834   6.143
41963SOL    HW227722   1.078   8.961   6.069
41964SOL     OW27723   4.770  14.742   9.235
41964SOL    HW127724   4.853  14.788   9.235
41964SOL    HW227725   4.788  14.659   9.189
41965SOL     OW27726   0.439  13.060  14.636
41965SOL    HW127727   0.487  13.001  14.695
41965SOL    HW227728   0.385  13.113  14.694
41966SOL     OW27729   0.542   0.316   1.350
41966SOL    HW127730   0.483   0.242   1.363
41966SOL    HW227731   0.580   0.332   1.437
41967SOL     OW27732   2.530   5.436   0.863
41967SOL    HW127733   2.486   5.465   0.783
41967SOL    HW227734   2.620   5.466   0.853
41968SOL     OW27735   8.216  14.624  14.221
41968SOL    HW127736   8.216  14.540  14.175
41968SOL    HW227737   8.252  14.686  14.157
41969SOL     OW27738   8.078   8.655  10.374
41969SOL    HW127739   8.017   8.612  10.434
41969SOL    HW227740   8.122   8.583  10.329
41970SOL     OW27741   1.371  13.318   5.022
41970SOL    HW127742   1.345  13.248   4.963
41970SOL    HW227743   1.319  13.303   5.102
41971SOL     OW27744   2.832   5.543  14.188
41971SOL    HW127745   2.833   5.514  14.097
41971SOL    HW227746   2.918   5.581  14.203
41972SOL     OW27747  10.061  12.649   6.542
41972SOL    HW127748   9.983  12.607   6.577
41972SOL    HW227749  10.041  12.667   6.450
41973SOL     OW27750  13.251   4.260   2.818
41973SOL    HW127751  13.315   4.328   2.799
41973SOL    HW227752  13.221   4.279   2.907
41974SOL     OW27753   5.078   6.223   6.567
41974SOL    HW127754   5.036   6.293   6.516
41974SOL    HW227755   5.120   6.269   6.640
41975SOL     OW27756  13.203   3.871  13.753
41975SOL    HW127757  13.196   3.867  13.658
41975SOL    HW227758  13.287   3.913  13.769
41976SOL     OW27759   1.111   4.706   4.060
41976SOL    HW127760   1.112   4.733   3.968
41976SOL    HW227761   1.189   4.651   4.070
41977SOL     OW27762   7.775   6.195   4.500
41977SOL    HW127763   7.839   6.225   4.565
41977SOL    HW227764   7.777   6.261   4.432
41978SOL     OW27765   0.657   7.793   4.976
41978SOL    HW127766   0.741   7.748   4.988
41978SOL    HW227767   0.591   7.723   4.980
41979SOL     OW27768   5.447   0.779   6.245
41979SOL    HW127769   5.431   0.688   6.270
41979SOL    HW227770   5.368   0.806   6.200
41980SOL     OW27771   5.828   3.193   8.372
41980SOL    HW127772   5.841   3.124   8.307
41980SOL    HW227773   5.874   3.161   8.450
41981SOL     OW27774   4.034   4.698  13.078
41981SOL    HW127775   4.114   4.708  13.027
41981SOL    HW227776   3.983   4.777  13.058
41982SOL     OW27777   8.856   5.592   4.330
41982SOL    HW127778   8.949   5.587   4.306
41982SOL    HW227779   8.813   5.627   4.252
41983SOL     OW27780  12.612   2.896   1.167
41983SOL    HW127781  12.565   2.973   1.200
41983SOL    HW227782  12.604   2.902   1.072
41984SOL     OW27783  12.051  11.259  13.599
41984SOL    HW127784  12.051  11.206  13.520
41984SOL    HW227785  12.097  11.204  13.664
41985SOL     OW27786   6.372   1.150  12.434
41985SOL    HW127787   6.279   1.155  12.411
41985SOL    HW227788   6.410   1.095  12.366
41986SOL     OW27789   5.104   2.035   1.091
41986SOL    HW127790   5.039   2.048   1.160
41986SOL    HW227791   5.062   1.976   1.029
41987SOL     OW27792  11.425   6.232  11.740
41987SOL    HW127793  11.400   6.278  11.820
41987SOL    HW227794  11.342   6.212  11.696
41988SOL     OW27795   5.496  13.713   3.894
41988SOL    HW127796   5.499  13.707   3.798
41988SOL    HW227797   5.521  13.803   3.913
41989SOL     OW27798   5.338   6.086   6.537
41989SOL    HW127799   5.261   6.117   6.489
41989SOL    HW227800   5.365   6.007   6.491
41990SOL     OW27801  12.749  12.173   7.080
41990SOL    HW127802  12.822  12.138   7.131
41990SOL    HW227803  12.755  12.128   6.996
41991SOL     OW27804  10.565   8.652  11.894
41991SOL    HW127805  10.515   8.720  11.940
41991SOL    HW227806  10.509   8.627  11.820
41992SOL     OW27807   4.827  12.867   3.090
41992SOL    HW127808   4.765  12.800   3.062
41992SOL    HW227809   4.789  12.949   3.059
41993SOL     OW27810   0.493   2.812   0.312
41993SOL    HW127811   0.578   2.823   0.355
41993SOL    HW227812   0.436   2.774   0.379
41994SOL     OW27813  11.550   5.161   2.232
41994SOL    HW127814  11.465   5.196   2.209
41994SOL    HW227815  11.584   5.124   2.150
41995SOL     OW27816   9.129  11.486  13.289
41995SOL    HW127817   9.045  11.490  13.334
41995SOL    HW227818   9.192  11.526  13.349
41996SOL     OW27819   5.849   0.736   7.985
41996SOL    HW127820   5.895   0.764   8.064
41996SOL    HW227821   5.896   0.779   7.913
41997SOL     OW27822  10.916  12.664   5.441
41997SOL    HW127823  10.881  12.740   5.394
41997SOL    HW227824  10.940  12.602   5.373
41998SOL     OW27825   1.485   7.845  14.643
41998SOL    HW127826   1.430   7.908  14.597
41998SOL    HW227827   1.551   7.819  14.579
41999SOL     OW27828   0.251   3.892  12.009
41999SOL    HW127829   0.197   3.916  12.085
41999SOL    HW227830   0.188   3.878  11.938
42000SOL     OW27831   3.091  14.355  10.738
42000SOL    HW127832   3.032  14.371  10.811
42000SOL    HW227833   3.145  14.281  10.767
42001SOL     OW27834  11.186  14.153   5.161
42001SOL    HW127835  11.194  14.104   5.242
42001SOL    HW227836  11.114  14.214   5.177
42002SOL     OW27837   4.619   7.346   3.771
42002SOL    HW127838   4.538   7.396   3.782
42002SOL    HW227839   4.671   7.398   3.709
42003SOL     OW27840   5.036  14.748   0.871
42003SOL    HW127841   5.113  14.786   0.830
42003SOL    HW227842   5.000  14.819   0.925
42004SOL     OW27843  14.515   2.206   0.147
42004SOL    HW127844  14.574   2.280   0.164
42004SOL    HW227845  14.545   2.138   0.207
42005SOL     OW27846   9.702   8.906   4.648
42005SOL    HW127847   9.704   8.888   4.742
42005SOL    HW227848   9.653   8.833   4.611
42006SOL     OW27849   8.867   4.446   5.780
42006SOL    HW127850   8.938   4.458   5.717
42006SOL    HW227851   8.910   4.444   5.865
42007SOL     OW27852   2.394  14.119   1.156
42007SOL    HW127853   2.350  14.034   1.151
42007SOL    HW227854   2.487  14.098   1.143
42008SOL     OW27855   1.234   0.547  14.181
42008SOL    HW127856   1.322   0.540  14.144
42008SOL    HW227857   1.203   0.633  14.152
42009SOL     OW27858   1.192  11.256  10.470
42009SOL    HW127859   1.122  11.253  10.405
42009SOL    HW227860   1.246  11.331  10.445
42010SOL     OW27861   9.563   6.741  13.496
42010SOL    HW127862   9.528   6.659  13.460
42010SOL    HW227863   9.503   6.809  13.465
42011SOL     OW27864   7.695   7.446   0.600
42011SOL    HW127865   7.743   7.394   0.536
42011SOL    HW227866   7.763   7.486   0.655
42012SOL     OW27867  14.453  13.771   1.958
42012SOL    HW127868  14.376  13.824   1.981
42012SOL    HW227869  14.425  13.681   1.971
42013SOL     OW27870   0.798  12.303   2.133
42013SOL    HW127871   0.833  12.354   2.205
42013SOL    HW227872   0.842  12.336   2.055
42014SOL     OW27873   2.134   8.780  10.949
42014SOL    HW127874   2.071   8.753  10.882
42014SOL    HW227875   2.215   8.795  10.900
42015SOL     OW27876  11.140  11.595   8.842
42015SOL    HW127877  11.135  11.686   8.813
42015SOL    HW227878  11.055  11.558   8.819
42016SOL     OW27879   4.286  10.056   8.588
42016SOL    HW127880   4.250  10.011   8.512
42016SOL    HW227881   4.380  10.060   8.571
42017SOL     OW27882  13.264   3.564   6.987
42017SOL    HW127883  13.280   3.513   7.067
42017SOL    HW227884  13.240   3.498   6.922
42018SOL     OW27885   7.305   7.963   6.528
42018SOL    HW127886   7.306   7.873   6.559
42018SOL    HW227887   7.236   8.006   6.579
42019SOL     OW27888   7.742   7.529  14.165
42019SOL    HW127889   7.836   7.551  14.168
42019SOL    HW227890   7.700   7.611  14.139
42020SOL     OW27891   7.544   8.000   9.306
42020SOL    HW127892   7.474   7.950   9.348
42020SOL    HW227893   7.506   8.086   9.289
42021SOL     OW27894   7.377   8.482   8.285
42021SOL    HW127895   7.393   8.425   8.360
42021SOL    HW227896   7.460   8.484   8.237
42022SOL     OW27897  12.264   2.401   3.695
42022SOL    HW127898  12.354   2.386   3.722
42022SOL    HW227899  12.240   2.323   3.645
42023SOL     OW27900   6.591  11.665   3.863
42023SOL    HW127901   6.667  11.722   3.876
42023SOL    HW227902   6.527  11.719   3.819
42024SOL     OW27903  10.855   9.410   8.360
42024SOL    HW127904  10.945   9.423   8.330
42024SOL    HW227905  10.864   9.381   8.451
42025SOL     OW27906  11.446  10.627   0.342
42025SOL    HW127907  11.516  10.667   0.290
42025SOL    HW227908  11.453  10.670   0.427
42026SOL     OW27909   5.492   0.620  13.120
42026SOL    HW127910   5.416   0.623  13.178
42026SOL    HW227911   5.506   0.527  13.104
42027SOL     OW27912   5.834  11.573   3.330
42027SOL    HW127913   5.873  11.655   3.297
42027SOL    HW227914   5.831  11.584   3.425
42028SOL     OW27915   2.322   7.964  12.153
42028SOL    HW127916   2.332   7.879  12.110
42028SOL    HW227917   2.362   8.027  12.093
42029SOL     OW27918   3.173  10.356  12.307
42029SOL    HW127919   3.133  10.356  12.220
42029SOL    HW227920   3.104  10.323  12.365
42030SOL     OW27921   4.893   4.580   0.657
42030SOL    HW127922   4.847   4.504   0.694
42030SOL    HW227923   4.836   4.610   0.586
42031SOL     OW27924   9.096   1.405   5.673
42031SOL    HW127925   9.082   1.448   5.589
42031SOL    HW227926   9.155   1.463   5.721
42032SOL     OW27927   2.189   3.485   2.815
42032SOL    HW127928   2.156   3.558   2.868
42032SOL    HW227929   2.284   3.495   2.815
42033SOL     OW27930   6.245  11.248  11.589
42033SOL    HW127931   6.225  11.339  11.567
42033SOL    HW227932   6.314  11.223  11.527
42034SOL     OW27933  13.520  12.122  13.369
42034SOL    HW127934  13.555  12.058  13.307
42034SOL    HW227935  13.534  12.207  13.327
42035SOL     OW27936  10.561  11.753   8.069
42035SOL    HW127937  10.514  11.808   8.007
42035SOL    HW227938  10.646  11.737   8.026
42036SOL     OW27939   7.639   2.784   7.693
42036SOL    HW127940   7.633   2.786   7.598
42036SOL    HW227941   7.733   2.787   7.711
42037SOL     OW27942  13.511   9.498  10.709
42037SOL    HW127943  13.514   9.516  10.803
42037SOL    HW227944  13.490   9.404  10.703
42038SOL     OW27945   2.929  10.636   7.396
42038SOL    HW127946   2.857  10.697   7.411
42038SOL    HW227947   2.888  10.558   7.360
42039SOL     OW27948  10.083  14.266  14.564
42039SOL    HW127949  10.051  14.187  14.608
42039SOL    HW227950  10.091  14.241  14.472
42040SOL     OW27951   1.817   3.536  12.380
42040SOL    HW127952   1.763   3.488  12.317
42040SOL    HW227953   1.817   3.481  12.458
42041SOL     OW27954   0.708   7.274   6.107
42041SOL    HW127955   0.694   7.359   6.067
42041SOL    HW227956   0.621   7.244   6.131
42042SOL     OW27957  11.298  10.042   9.274
42042SOL    HW127958  11.352   9.963   9.261
42042SOL    HW227959  11.311  10.093   9.195
42043SOL     OW27960  11.934   0.719  14.038
42043SOL    HW127961  11.850   0.679  14.060
42043SOL    HW227962  11.921   0.756  13.951
42044SOL     OW27963   8.235   9.858  12.894
42044SOL    HW127964   8.286   9.800  12.951
42044SOL    HW227965   8.191   9.798  12.834
42045SOL     OW27966   2.771   1.128   2.414
42045SOL    HW127967   2.832   1.108   2.485
42045SOL    HW227968   2.825   1.130   2.335
42046SOL     OW27969   0.290  11.411   9.057
42046SOL    HW127970   0.334  11.340   9.009
42046SOL    HW227971   0.295  11.486   8.998
42047SOL     OW27972   5.229   6.729   7.987
42047SOL    HW127973   5.226   6.782   7.907
42047SOL    HW227974   5.307   6.760   8.033
42048SOL     OW27975   2.598  10.969   2.960
42048SOL    HW127976   2.542  10.994   3.033
42048SOL    HW227977   2.611  10.875   2.972
42049SOL     OW27978  14.497  14.395   4.889
42049SOL    HW127979  14.405  14.372   4.903
42049SOL    HW227980  14.526  14.338   4.818
42050SOL     OW27981   1.046  12.832   7.218
42050SOL    HW127982   1.104  12.908   7.230
42050SOL    HW227983   0.963  12.871   7.191
42051SOL     OW27984   5.004   2.475   1.758
42051SOL    HW127985   5.005   2.468   1.854
42051SOL    HW227986   5.091   2.445   1.731
42052SOL     OW27987   4.587   9.809  12.940
42052SOL    HW127988   4.558   9.898  12.958
42052SOL    HW227989   4.548   9.787  12.855
42053SOL     OW27990  13.356   1.180   3.299
42053SOL    HW127991  13.278   1.226   3.329
42053SOL    HW227992  13.424   1.205   3.361
42054SOL     OW27993   5.766   0.559  10.202
42054SOL    HW127994   5.771   0.541  10.296
42054SOL    HW227995   5.854   0.590  10.180
42055SOL     OW27996   3.323   1.022   5.353
42055SOL    HW127997   3.281   0.952   5.404
42055SOL    HW227998   3.316   0.993   5.262
42056SOL     OW27999   6.797  12.567   9.266
42056SOL    HW128000   6.754  12.601   9.187
42056SOL    HW228001   6.766  12.624   9.336
42057SOL     OW28002   1.402   1.284   0.271
42057SOL    HW128003   1.471   1.289   0.205
42057SOL    HW228004   1.419   1.202   0.317
42058SOL     OW28005   1.983   1.989  13.768
42058SOL    HW128006   1.979   2.016  13.859
42058SOL    HW228007   2.073   1.961  13.754
42059SOL     OW28008   4.507   7.204   2.090
42059SOL    HW128009   4.588   7.254   2.106
42059SOL    HW228010   4.450   7.267   2.045
42060SOL     OW28011   6.604   0.601   0.706
42060SOL    HW128012   6.639   0.512   0.702
42060SOL    HW228013   6.514   0.589   0.739
42061SOL     OW28014  11.712  14.381   5.286
42061SOL    HW128015  11.687  14.325   5.360
42061SOL    HW228016  11.719  14.468   5.324
42062SOL     OW28017  11.272  12.751  10.177
42062SOL    HW128018  11.257  12.728  10.085
42062SOL    HW228019  11.187  12.783  10.208
42063SOL     OW28020   5.080   6.042   4.377
42063SOL    HW128021   5.004   6.041   4.318
42063SOL    HW228022   5.155   6.056   4.319
42064SOL     OW28023   3.597  12.629   1.501
42064SOL    HW128024   3.659  12.596   1.436
42064SOL    HW228025   3.590  12.558   1.565
42065SOL     OW28026   1.851   5.106   9.676
42065SOL    HW128027   1.878   5.197   9.667
42065SOL    HW228028   1.934   5.058   9.685
42066SOL     OW28029   7.969   1.827  14.631
42066SOL    HW128030   8.030   1.883  14.677
42066SOL    HW228031   7.958   1.751  14.688
42067SOL     OW28032   0.521   9.846  11.907
42067SOL    HW128033   0.522   9.936  11.877
42067SOL    HW228034   0.592   9.804  11.858
42068SOL     OW28035   1.956  10.709   7.064
42068SOL    HW128036   1.967  10.783   7.004
42068SOL    HW228037   1.879  10.732   7.117
42069SOL     OW28038   6.874   2.413   3.116
42069SOL    HW128039   6.840   2.367   3.193
42069SOL    HW228040   6.958   2.449   3.144
42070SOL     OW28041  14.157  12.866   9.147
42070SOL    HW128042  14.102  12.850   9.223
42070SOL    HW228043  14.148  12.960   9.132
42071SOL     OW28044  12.006   9.151   7.247
42071SOL    HW128045  11.983   9.175   7.337
42071SOL    HW228046  12.089   9.104   7.255
42072SOL     OW28047  12.472  11.712  10.710
42072SOL    HW128048  12.450  11.621  10.731
42072SOL    HW228049  12.469  11.757  10.794
42073SOL     OW28050  10.787   0.086  10.482
42073SOL    HW128051  10.708   0.140  10.474
42073SOL    HW228052  10.810   0.063  10.393
42074SOL     OW28053   8.481  11.220   0.247
42074SOL    HW128054   8.525  11.135   0.256
42074SOL    HW228055   8.413  11.218   0.315
42075SOL     OW28056   3.401  12.314   3.327
42075SOL    HW128057   3.387  12.266   3.246
42075SOL    HW228058   3.496  12.326   3.332
42076SOL     OW28059  10.992  13.039   1.985
42076SOL    HW128060  11.059  13.068   2.047
42076SOL    HW228061  11.014  12.947   1.969
42077SOL     OW28062   5.203  11.941  10.474
42077SOL    HW128063   5.206  11.846  10.480
42077SOL    HW228064   5.164  11.958  10.388
42078SOL     OW28065  14.796  10.721   1.888
42078SOL    HW128066  14.873  10.688   1.841
42078SOL    HW228067  14.801  10.680   1.974
42079SOL     OW28068  11.407   7.362  11.543
42079SOL    HW128069  11.356   7.312  11.480
42079SOL    HW228070  11.353   7.440  11.560
42080SOL     OW28071  10.360   6.758  12.521
42080SOL    HW128072  10.413   6.683  12.495
42080SOL    HW228073  10.409   6.834  12.489
42081SOL     OW28074   8.318   5.834   9.127
42081SOL    HW128075   8.273   5.914   9.156
42081SOL    HW228076   8.295   5.768   9.193
42082SOL     OW28077   7.933   1.028   6.563
42082SOL    HW128078   7.918   0.981   6.481
42082SOL    HW228079   7.911   0.965   6.631
42083SOL     OW28080   1.474  14.662  14.681
42083SOL    HW128081   1.569  14.675  14.682
42083SOL    HW228082   1.460  14.591  14.618
42084SOL     OW28083  13.237  13.496   7.362
42084SOL    HW128084  13.186  13.486   7.443
42084SOL    HW228085  13.273  13.409   7.345
42085SOL     OW28086   5.389   2.471   7.892
42085SOL    HW128087   5.479   2.500   7.881
42085SOL    HW228088   5.351   2.535   7.953
42086SOL     OW28089   2.070   0.244  14.047
42086SOL    HW128090   2.027   0.183  13.987
42086SOL    HW228091   2.045   0.214  14.134
42087SOL     OW28092   1.889   6.669  13.264
42087SOL    HW128093   1.843   6.707  13.189
42087SOL    HW228094   1.905   6.743  13.322
42088SOL     OW28095   6.437  14.466   7.359
42088SOL    HW128096   6.444  14.379   7.399
42088SOL    HW228097   6.488  14.459   7.278
42089SOL     OW28098   4.772   8.738   5.341
42089SOL    HW128099   4.853   8.777   5.375
42089SOL    HW228100   4.702   8.791   5.379
42090SOL     OW28101   0.263   2.414   8.000
42090SOL    HW128102   0.258   2.492   7.945
42090SOL    HW228103   0.178   2.371   7.989
42091SOL     OW28104  11.843   8.150   0.615
42091SOL    HW128105  11.841   8.075   0.674
42091SOL    HW228106  11.876   8.222   0.668
42092SOL     OW28107   1.023   2.508   3.239
42092SOL    HW128108   1.006   2.505   3.333
42092SOL    HW228109   1.083   2.582   3.228
42093SOL     OW28110   3.281  10.969   7.619
42093SOL    HW128111   3.194  10.936   7.596
42093SOL    HW228112   3.338  10.939   7.548
42094SOL     OW28113  14.674   9.603   9.660
42094SOL    HW128114  14.735   9.568   9.595
42094SOL    HW228115  14.635   9.680   9.617
42095SOL     OW28116  13.337  14.865   6.734
42095SOL    HW128117  13.252   0.028   6.713
42095SOL    HW228118  13.387  14.875   6.653
42096SOL     OW28119   5.040   0.517  12.707
42096SOL    HW128120   5.033   0.524  12.802
42096SOL    HW228121   5.055   0.424  12.690
42097SOL     OW28122   6.860  10.107   8.615
42097SOL    HW128123   6.827  10.067   8.695
42097SOL    HW228124   6.782  10.142   8.572
42098SOL     OW28125  14.585  12.097   8.244
42098SOL    HW128126  14.491  12.112   8.230
42098SOL    HW228127  14.612  12.042   8.170
42099SOL     OW28128   6.314   3.319   8.969
42099SOL    HW128129   6.400   3.345   9.001
42099SOL    HW228130   6.275   3.399   8.935
42100SOL     OW28131  14.271   1.304   0.271
42100SOL    HW128132  14.257   1.229   0.329
42100SOL    HW228133  14.345   1.351   0.310
42101SOL     OW28134  10.121  10.702  14.523
42101SOL    HW128135  10.056  10.653  14.574
42101SOL    HW228136  10.167  10.755  14.588
42102SOL     OW28137   9.073  10.853   6.991
42102SOL    HW128138   9.003  10.848   6.926
42102SOL    HW228139   9.053  10.931   7.042
42103SOL     OW28140   4.784   1.892   5.173
42103SOL    HW128141   4.854   1.830   5.151
42103SOL    HW228142   4.745   1.915   5.089
42104SOL     OW28143  11.393   5.704  13.042
42104SOL    HW128144  11.320   5.764  13.047
42104SOL    HW228145  11.363   5.625  13.086
42105SOL     OW28146   7.483   0.940   5.432
42105SOL    HW128147   7.422   0.940   5.359
42105SOL    HW228148   7.502   0.848   5.449
42106SOL     OW28149   1.520   4.523   9.130
42106SOL    HW128150   1.616   4.521   9.139
42106SOL    HW228151   1.499   4.615   9.115
42107SOL     OW28152   9.671   1.970  10.650
42107SOL    HW128153   9.581   1.941  10.638
42107SOL    HW228154   9.679   1.986  10.744
42108SOL     OW28155   8.347   6.548   6.275
42108SOL    HW128156   8.428   6.574   6.320
42108SOL    HW228157   8.303   6.631   6.255
42109SOL     OW28158   8.054   8.612   6.046
42109SOL    HW128159   8.112   8.628   6.120
42109SOL    HW228160   8.091   8.665   5.975
42110SOL     OW28161   9.696   6.653   3.544
42110SOL    HW128162   9.663   6.736   3.510
42110SOL    HW228163   9.791   6.663   3.541
42111SOL     OW28164  11.285   0.125   7.088
42111SOL    HW128165  11.345   0.194   7.116
42111SOL    HW228166  11.219   0.171   7.037
42112SOL     OW28167  11.138  11.510  10.883
42112SOL    HW128168  11.111  11.441  10.822
42112SOL    HW228169  11.061  11.567  10.890
42113SOL     OW28170   2.196   5.735   2.845
42113SOL    HW128171   2.162   5.735   2.934
42113SOL    HW228172   2.221   5.827   2.830
42114SOL     OW28173   7.169   8.313   0.081
42114SOL    HW128174   7.256   8.340   0.110
42114SOL    HW228175   7.115   8.392   0.088
42115SOL     OW28176   4.788  14.686  12.768
42115SOL    HW128177   4.756  14.723  12.686
42115SOL    HW228178   4.839  14.609  12.742
42116SOL     OW28179   9.403   0.931  13.703
42116SOL    HW128180   9.345   0.880  13.646
42116SOL    HW228181   9.456   0.864  13.748
42117SOL     OW28182   4.664  14.500  10.168
42117SOL    HW128183   4.676  14.432  10.102
42117SOL    HW228184   4.579  14.538  10.150
42118SOL     OW28185   2.117  12.263  10.542
42118SOL    HW128186   2.041  12.229  10.589
42118SOL    HW228187   2.125  12.354  10.571
42119SOL     OW28188   2.823  12.016   9.025
42119SOL    HW128189   2.891  11.959   9.062
42119SOL    HW228190   2.756  12.020   9.093
42120SOL     OW28191   2.388   0.244   9.591
42120SOL    HW128192   2.372   0.210   9.679
42120SOL    HW228193   2.480   0.223   9.573
42121SOL     OW28194   6.884   3.612   7.285
42121SOL    HW128195   6.842   3.536   7.324
42121SOL    HW228196   6.978   3.592   7.289
42122SOL     OW28197   7.325   5.396   6.574
42122SOL    HW128198   7.268   5.332   6.532
42122SOL    HW228199   7.386   5.344   6.626
42123SOL     OW28200   2.886  13.475   9.145
42123SOL    HW128201   2.882  13.426   9.227
42123SOL    HW228202   2.970  13.521   9.149
42124SOL     OW28203  13.577   7.523  13.090
42124SOL    HW128204  13.550   7.496  13.002
42124SOL    HW228205  13.508   7.489  13.148
42125SOL     OW28206   0.214   8.913  12.491
42125SOL    HW128207   0.136   8.967  12.476
42125SOL    HW228208   0.179   8.826  12.509
42126SOL     OW28209  10.639  14.697   0.253
42126SOL    HW128210  10.689  14.707   0.172
42126SOL    HW228211  10.610  14.785   0.275
42127SOL     OW28212   0.431   6.735  10.593
42127SOL    HW128213   0.525   6.721  10.599
42127SOL    HW228214   0.393   6.675  10.657
42128SOL     OW28215   1.969   4.782   0.579
42128SOL    HW128216   1.923   4.738   0.650
42128SOL    HW228217   2.014   4.855   0.620
42129SOL     OW28218   0.562   1.752  14.153
42129SOL    HW128219   0.579   1.661  14.128
42129SOL    HW228220   0.598   1.759  14.242
42130SOL     OW28221   2.486   6.892   3.766
42130SOL    HW128222   2.475   6.984   3.787
42130SOL    HW228223   2.574   6.886   3.727
42131SOL     OW28224  12.740   8.294   7.820
42131SOL    HW128225  12.682   8.348   7.765
42131SOL    HW228226  12.810   8.354   7.846
42132SOL     OW28227  14.332  14.617   8.153
42132SOL    HW128228  14.237  14.615   8.160
42132SOL    HW228229  14.356  14.528   8.126
42133SOL     OW28230  10.310   8.673  12.740
42133SOL    HW128231  10.314   8.608  12.671
42133SOL    HW228232  10.237   8.731  12.715
42134SOL     OW28233   8.390  10.657   5.553
42134SOL    HW128234   8.479  10.622   5.543
42134SOL    HW228235   8.350  10.603   5.620
42135SOL     OW28236   5.207   9.793   2.066
42135SOL    HW128237   5.239   9.856   2.001
42135SOL    HW228238   5.200   9.710   2.018
42136SOL     OW28239   1.907   7.352   7.504
42136SOL    HW128240   1.905   7.436   7.550
42136SOL    HW228241   1.822   7.347   7.460
42137SOL     OW28242   8.150   4.628   7.519
42137SOL    HW128243   8.116   4.717   7.523
42137SOL    HW228244   8.231   4.631   7.570
42138SOL     OW28245   3.156  14.871  10.493
42138SOL    HW128246   3.193   0.075  10.456
42138SOL    HW228247   3.064  14.872  10.467
42139SOL     OW28248   1.021   0.034  11.727
42139SOL    HW128249   1.029   0.061  11.818
42139SOL    HW228250   0.934  14.870  11.721
42140SOL     OW28251  12.284  11.079   6.263
42140SOL    HW128252  12.342  11.130   6.319
42140SOL    HW228253  12.208  11.061   6.318
42141SOL     OW28254  11.252   7.410   8.766
42141SOL    HW128255  11.303   7.339   8.805
42141SOL    HW228256  11.161   7.389   8.788
42142SOL     OW28257   6.788   2.000  10.097
42142SOL    HW128258   6.860   2.061  10.078
42142SOL    HW228259   6.786   1.995  10.192
42143SOL     OW28260   5.166   5.148  13.452
42143SOL    HW128261   5.104   5.221  13.444
42143SOL    HW228262   5.210   5.163  13.536
42144SOL     OW28263   2.000   6.873   6.474
42144SOL    HW128264   1.915   6.908   6.447
42144SOL    HW228265   2.030   6.933   6.542
42145SOL     OW28266  11.751   0.667   3.039
42145SOL    HW128267  11.706   0.751   3.023
42145SOL    HW228268  11.689   0.601   3.008
42146SOL     OW28269   5.347   9.616  10.717
42146SOL    HW128270   5.325   9.551  10.783
42146SOL    HW228271   5.403   9.569  10.654
42147SOL     OW28272   3.551  13.383   7.319
42147SOL    HW128273   3.566  13.406   7.411
42147SOL    HW228274   3.513  13.295   7.323
42148SOL     OW28275   0.735  11.313  10.481
42148SOL    HW128276   0.771  11.350  10.562
42148SOL    HW228277   0.811  11.306  10.423
42149SOL     OW28278  12.555   6.783  13.805
42149SOL    HW128279  12.568   6.688  13.804
42149SOL    HW228280  12.601   6.814  13.728
42150SOL     OW28281   9.560   7.338   9.407
42150SOL    HW128282   9.586   7.321   9.317
42150SOL    HW228283   9.563   7.253   9.450
42151SOL     OW28284  12.041   4.604  12.617
42151SOL    HW128285  12.027   4.549  12.540
42151SOL    HW228286  11.953   4.623  12.649
42152SOL     OW28287   4.536   3.867  13.246
42152SOL    HW128288   4.514   3.892  13.335
42152SOL    HW228289   4.620   3.910  13.229
42153SOL     OW28290  13.810  13.337   2.504
42153SOL    HW128291  13.721  13.312   2.529
42153SOL    HW228292  13.862  13.324   2.583
42154SOL     OW28293   7.646   8.974  12.676
42154SOL    HW128294   7.666   9.013  12.591
42154SOL    HW228295   7.550   8.975  12.681
42155SOL     OW28296  13.282   6.442   7.458
42155SOL    HW128297  13.370   6.477   7.467
42155SOL    HW228298  13.295   6.352   7.429
42156SOL     OW28299  10.131  13.654   8.517
42156SOL    HW128300  10.213  13.699   8.536
42156SOL    HW228301  10.138  13.570   8.563
42157SOL     OW28302   5.174  12.083   9.946
42157SOL    HW128303   5.159  12.023   9.873
42157SOL    HW228304   5.229  12.034  10.007
42158SOL     OW28305   3.659   9.748  13.269
42158SOL    HW128306   3.577   9.711  13.237
42158SOL    HW228307   3.643   9.842  13.274
42159SOL     OW28308   8.305   1.951   5.094
42159SOL    HW128309   8.316   2.043   5.069
42159SOL    HW228310   8.245   1.954   5.169
42160SOL     OW28311  13.441  14.727   4.718
42160SOL    HW128312  13.515  14.788   4.717
42160SOL    HW228313  13.406  14.731   4.629
42161SOL     OW28314  14.250  13.421  13.172
42161SOL    HW128315  14.267  13.370  13.092
42161SOL    HW228316  14.212  13.503  13.140
42162SOL     OW28317   6.671   0.167   3.465
42162SOL    HW128318   6.717   0.118   3.396
42162SOL    HW228319   6.617   0.230   3.419
42163SOL     OW28320  13.615   3.108  11.625
42163SOL    HW128321  13.585   3.185  11.674
42163SOL    HW228322  13.689   3.075  11.676
42164SOL     OW28323  13.254  11.883  12.591
42164SOL    HW128324  13.168  11.925  12.584
42164SOL    HW228325  13.311  11.952  12.626
42165SOL     OW28326  11.682   9.770  11.015
42165SOL    HW128327  11.593   9.805  11.020
42165SOL    HW228328  11.676   9.700  10.950
42166SOL     OW28329   8.508   7.647   0.796
42166SOL    HW128330   8.519   7.678   0.886
42166SOL    HW228331   8.581   7.586   0.782
42167SOL     OW28332  14.292   3.976   8.183
42167SOL    HW128333  14.264   3.910   8.119
42167SOL    HW228334  14.257   4.058   8.149
42168SOL     OW28335   5.601  10.795   4.001
42168SOL    HW128336   5.596  10.891   4.009
42168SOL    HW228337   5.526  10.772   3.946
42169SOL     OW28338   6.938  13.726  14.628
42169SOL    HW128339   6.989  13.804  14.652
42169SOL    HW228340   6.893  13.702  14.709
42170SOL     OW28341   7.119   3.014   4.793
42170SOL    HW128342   7.194   3.069   4.771
42170SOL    HW228343   7.083   3.054   4.872
42171SOL     OW28344  11.234   9.186   9.043
42171SOL    HW128345  11.271   9.158   9.127
42171SOL    HW228346  11.274   9.271   9.026
42172SOL     OW28347  13.064   1.681   3.105
42172SOL    HW128348  12.973   1.703   3.085
42172SOL    HW228349  13.113   1.760   3.080
42173SOL     OW28350   5.538  11.903   7.253
42173SOL    HW128351   5.622  11.946   7.268
42173SOL    HW228352   5.478  11.945   7.314
42174SOL     OW28353   8.075   2.516   4.158
42174SOL    HW128354   8.011   2.538   4.225
42174SOL    HW228355   8.105   2.428   4.181
42175SOL     OW28356  13.683   0.849  12.431
42175SOL    HW128357  13.728   0.781  12.481
42175SOL    HW228358  13.750   0.916  12.416
42176SOL     OW28359   5.996  14.015  10.398
42176SOL    HW128360   5.979  13.943  10.459
42176SOL    HW228361   5.968  13.981  10.313
42177SOL     OW28362   3.774   3.189   4.238
42177SOL    HW128363   3.751   3.195   4.145
42177SOL    HW228364   3.869   3.202   4.240
42178SOL     OW28365   3.389  12.866   6.094
42178SOL    HW128366   3.405  12.957   6.071
42178SOL    HW228367   3.296  12.863   6.116
42179SOL     OW28368   5.657  10.672  14.187
42179SOL    HW128369   5.601  10.617  14.133
42179SOL    HW228370   5.597  10.732  14.232
42180SOL     OW28371   4.178   1.313   6.622
42180SOL    HW128372   4.206   1.370   6.550
42180SOL    HW228373   4.092   1.347   6.648
42181SOL     OW28374   6.120   8.013   2.747
42181SOL    HW128375   6.108   7.968   2.830
42181SOL    HW228376   6.136   8.104   2.771
42182SOL     OW28377  12.021   3.313   7.207
42182SOL    HW128378  11.956   3.268   7.154
42182SOL    HW228379  12.042   3.251   7.277
42183SOL     OW28380   2.442  13.858  11.965
42183SOL    HW128381   2.425  13.794  11.895
42183SOL    HW228382   2.509  13.817  12.019
42184SOL     OW28383   4.536   0.293   8.620
42184SOL    HW128384   4.598   0.228   8.651
42184SOL    HW228385   4.537   0.362   8.686
42185SOL     OW28386  11.705   9.733  12.101
42185SOL    HW128387  11.777   9.709  12.159
42185SOL    HW228388  11.744   9.791  12.036
42186SOL     OW28389   5.548  11.718  11.945
42186SOL    HW128390   5.581  11.779  12.012
42186SOL    HW228391   5.607  11.729  11.871
42187SOL     OW28392   0.457  11.992   5.269
42187SOL    HW128393   0.512  11.966   5.343
42187SOL    HW228394   0.423  11.910   5.234
42188SOL     OW28395   1.308  11.806   2.165
42188SOL    HW128396   1.395  11.779   2.137
42188SOL    HW228397   1.272  11.729   2.209
42189SOL     OW28398   2.025   6.874   1.531
42189SOL    HW128399   2.018   6.947   1.593
42189SOL    HW228400   1.936   6.837   1.529
42190SOL     OW28401  12.662   7.471   9.019
42190SOL    HW128402  12.674   7.512   8.933
42190SOL    HW228403  12.728   7.402   9.022
42191SOL     OW28404  14.008   7.230  14.543
42191SOL    HW128405  14.010   7.315  14.586
42191SOL    HW228406  13.987   7.249  14.452
42192SOL     OW28407   7.902  11.329   2.821
42192SOL    HW128408   7.994  11.337   2.847
42192SOL    HW228409   7.870  11.253   2.870
42193SOL     OW28410  12.833   0.972   1.738
42193SOL    HW128411  12.842   0.922   1.820
42193SOL    HW228412  12.852   0.909   1.669
42194SOL     OW28413  14.692   6.543   3.366
42194SOL    HW128414  14.642   6.548   3.447
42194SOL    HW228415  14.783   6.534   3.393
42195SOL     OW28416   2.344   8.457   8.169
42195SOL    HW128417   2.348   8.383   8.230
42195SOL    HW228418   2.264   8.442   8.119
42196SOL     OW28419   3.802   5.181  12.236
42196SOL    HW128420   3.869   5.246  12.258
42196SOL    HW228421   3.850   5.111  12.191
42197SOL     OW28422   2.004  12.852  10.691
42197SOL    HW128423   2.079  12.796  10.707
42197SOL    HW228424   2.030  12.908  10.618
42198SOL     OW28425   6.931   3.250  11.863
42198SOL    HW128426   6.841   3.232  11.888
42198SOL    HW228427   6.947   3.196  11.786
42199SOL     OW28428   2.337   3.989  13.400
42199SOL    HW128429   2.331   4.022  13.310
42199SOL    HW228430   2.262   3.930  13.409
42200SOL     OW28431  13.425   7.409  11.390
42200SOL    HW128432  13.467   7.472  11.449
42200SOL    HW228433  13.496   7.352  11.361
42201SOL     OW28434   3.646  14.475  12.022
42201SOL    HW128435   3.688  14.519  11.949
42201SOL    HW228436   3.678  14.521  12.100
42202SOL     OW28437   0.147   9.937   4.523
42202SOL    HW128438   0.183  10.025   4.529
42202SOL    HW228439   0.058   9.949   4.489
42203SOL     OW28440   1.069  10.780   0.983
42203SOL    HW128441   1.002  10.839   0.949
42203SOL    HW228442   1.034  10.750   1.066
42204SOL     OW28443   7.337   0.410   7.857
42204SOL    HW128444   7.266   0.346   7.852
42204SOL    HW228445   7.299   0.491   7.824
42205SOL     OW28446   1.821   6.429   6.200
42205SOL    HW128447   1.842   6.517   6.233
42205SOL    HW228448   1.887   6.372   6.238
42206SOL     OW28449  14.073  10.217  12.477
42206SOL    HW128450  14.006  10.276  12.443
42206SOL    HW228451  14.134  10.207  12.405
42207SOL     OW28452   4.886  12.014   2.839
42207SOL    HW128453   4.893  12.108   2.825
42207SOL    HW228454   4.904  12.001   2.932
42208SOL     OW28455   5.097   6.550   9.306
42208SOL    HW128456   5.165   6.496   9.266
42208SOL    HW228457   5.045   6.583   9.233
42209SOL     OW28458   2.608   1.767   5.702
42209SOL    HW128459   2.524   1.758   5.657
42209SOL    HW228460   2.633   1.677   5.724
42210SOL     OW28461   0.349  10.771   7.307
42210SOL    HW128462   0.363  10.713   7.382
42210SOL    HW228463   0.430  10.764   7.256
42211SOL     OW28464  14.581   6.328  12.130
42211SOL    HW128465  14.514   6.268  12.098
42211SOL    HW228466  14.662   6.277  12.129
42212SOL     OW28467   0.351  14.120   8.945
42212SOL    HW128468   0.286  14.069   8.895
42212SOL    HW228469   0.298  14.182   8.995
42213SOL     OW28470   6.535   6.011   1.838
42213SOL    HW128471   6.452   5.996   1.793
42213SOL    HW228472   6.515   6.080   1.901
42214SOL     OW28473   1.391   8.941  11.589
42214SOL    HW128474   1.330   8.947  11.515
42214SOL    HW228475   1.360   8.866  11.640
42215SOL     OW28476   1.656   8.223  11.837
42215SOL    HW128477   1.745   8.193  11.851
42215SOL    HW228478   1.665   8.298  11.778
42216SOL     OW28479   3.475   1.255  13.833
42216SOL    HW128480   3.444   1.196  13.765
42216SOL    HW228481   3.452   1.210  13.915
42217SOL     OW28482  10.374   2.087  14.311
42217SOL    HW128483  10.404   2.031  14.239
42217SOL    HW228484  10.359   2.172  14.271
42218SOL     OW28485   0.585  13.494  13.457
42218SOL    HW128486   0.545  13.553  13.520
42218SOL    HW228487   0.538  13.512  13.375
42219SOL     OW28488  12.604  14.738   2.902
42219SOL    HW128489  12.623  14.648   2.876
42219SOL    HW228490  12.521  14.759   2.858
42220SOL     OW28491   4.993  11.244   7.970
42220SOL    HW128492   4.977  11.206   7.883
42220SOL    HW228493   4.908  11.237   8.014
42221SOL     OW28494   5.714   1.092   4.863
42221SOL    HW128495   5.633   1.105   4.815
42221SOL    HW228496   5.732   1.177   4.903
42222SOL     OW28497  10.979   2.394  11.369
42222SOL    HW128498  10.886   2.405  11.351
42222SOL    HW228499  11.023   2.448  11.302
42223SOL     OW28500   1.309   9.398   8.191
42223SOL    HW128501   1.266   9.458   8.252
42223SOL    HW228502   1.267   9.313   8.208
42224SOL     OW28503   4.897  10.993   7.518
42224SOL    HW128504   4.971  10.938   7.491
42224SOL    HW228505   4.876  11.045   7.440
42225SOL     OW28506  14.564  10.181   3.997
42225SOL    HW128507  14.499  10.242   3.961
42225SOL    HW228508  14.573  10.207   4.088
42226SOL     OW28509   0.708   3.783  13.350
42226SOL    HW128510   0.741   3.715  13.291
42226SOL    HW228511   0.785   3.818  13.393
42227SOL     OW28512   0.127   2.819   0.651
42227SOL    HW128513   0.061   2.776   0.706
42227SOL    HW228514   0.099   2.910   0.648
42228SOL     OW28515   6.321   0.417  12.326
42228SOL    HW128516   6.372   0.386  12.251
42228SOL    HW228517   6.305   0.338  12.378
42229SOL     OW28518  13.623   3.824  14.649
42229SOL    HW128519  13.605   3.875  14.570
42229SOL    HW228520  13.685   3.878  14.698
42230SOL     OW28521   8.320   2.520   2.771
42230SOL    HW128522   8.245   2.566   2.808
42230SOL    HW228523   8.385   2.589   2.757
42231SOL     OW28524   5.966   4.432   9.602
42231SOL    HW128525   5.880   4.426   9.645
42231SOL    HW228526   5.958   4.507   9.542
42232SOL     OW28527  13.411   9.889  10.473
42232SOL    HW128528  13.346   9.954  10.447
42232SOL    HW228529  13.429   9.839  10.393
42233SOL     OW28530  14.094  10.325   3.554
42233SOL    HW128531  14.052  10.401   3.514
42233SOL    HW228532  14.101  10.261   3.483
42234SOL     OW28533   1.174   0.367   6.635
42234SOL    HW128534   1.131   0.430   6.692
42234SOL    HW228535   1.108   0.344   6.569
42235SOL     OW28536  11.119   0.742  10.821
42235SOL    HW128537  11.178   0.758  10.746
42235SOL    HW228538  11.159   0.670  10.868
42236SOL     OW28539   8.098   9.475  14.750
42236SOL    HW128540   8.113   9.549  14.691
42236SOL    HW228541   8.066   9.515  14.830
42237SOL     OW28542   7.382   1.344   7.603
42237SOL    HW128543   7.444   1.415   7.621
42237SOL    HW228544   7.420   1.268   7.647
42238SOL     OW28545   0.649   8.588   9.107
42238SOL    HW128546   0.660   8.560   9.198
42238SOL    HW228547   0.724   8.550   9.061
42239SOL     OW28548   3.626  14.315  13.926
42239SOL    HW128549   3.640  14.221  13.919
42239SOL    HW228550   3.539  14.330  13.890
42240SOL     OW28551  13.167   1.207  13.490
42240SOL    HW128552  13.136   1.266  13.558
42240SOL    HW228553  13.236   1.256  13.445
42241SOL     OW28554   4.706   4.369   5.271
42241SOL    HW128555   4.670   4.386   5.184
42241SOL    HW228556   4.773   4.436   5.283
42242SOL     OW28557   7.418   1.799   3.796
42242SOL    HW128558   7.440   1.711   3.764
42242SOL    HW228559   7.484   1.856   3.757
42243SOL     OW28560   9.976   0.534   1.226
42243SOL    HW128561   9.932   0.449   1.239
42243SOL    HW228562  10.043   0.536   1.295
42244SOL     OW28563  14.724   7.664   3.999
42244SOL    HW128564  14.781   7.688   4.072
42244SOL    HW228565  14.649   7.724   4.007
42245SOL     OW28566   4.381   5.158   0.461
42245SOL    HW128567   4.377   5.174   0.555
42245SOL    HW228568   4.336   5.075   0.448
42246SOL     OW28569  12.210   3.779   9.909
42246SOL    HW128570  12.145   3.771   9.979
42246SOL    HW228571  12.201   3.697   9.859
42247SOL     OW28572  14.433   7.050   4.854
42247SOL    HW128573  14.412   6.964   4.889
42247SOL    HW228574  14.475   7.096   4.926
42248SOL     OW28575   2.183   5.811  13.667
42248SOL    HW128576   2.276   5.824  13.648
42248SOL    HW228577   2.177   5.720  13.694
42249SOL     OW28578  12.149  13.289   6.973
42249SOL    HW128579  12.146  13.384   6.981
42249SOL    HW228580  12.213  13.272   6.904
42250SOL     OW28581  12.488   7.862  10.486
42250SOL    HW128582  12.534   7.945  10.479
42250SOL    HW228583  12.409   7.873  10.433
42251SOL     OW28584  12.199  11.710   6.485
42251SOL    HW128585  12.238  11.623   6.496
42251SOL    HW228586  12.131  11.698   6.419
42252SOL     OW28587   1.203   1.611   5.811
42252SOL    HW128588   1.264   1.677   5.844
42252SOL    HW228589   1.259   1.540   5.780
42253SOL     OW28590  10.534  11.635   3.432
42253SOL    HW128591  10.553  11.629   3.525
42253SOL    HW228592  10.438  11.635   3.426
42254SOL     OW28593  13.173   8.277   0.156
42254SOL    HW128594  13.118   8.276   0.234
42254SOL    HW228595  13.172   8.187   0.125
42255SOL     OW28596   1.854  13.716   3.997
42255SOL    HW128597   1.887  13.631   4.026
42255SOL    HW228598   1.774  13.729   4.049
42256SOL     OW28599   4.324   4.286  10.403
42256SOL    HW128600   4.265   4.312  10.474
42256SOL    HW228601   4.276   4.307  10.323
42257SOL     OW28602   7.117  11.967   8.057
42257SOL    HW128603   7.147  12.025   7.987
42257SOL    HW228604   7.141  11.879   8.028
42258SOL     OW28605   1.642  14.261   8.053
42258SOL    HW128606   1.705  14.232   7.988
42258SOL    HW228607   1.643  14.192   8.120
42259SOL     OW28608   4.481   7.767   8.535
42259SOL    HW128609   4.567   7.787   8.571
42259SOL    HW228610   4.452   7.689   8.583
42260SOL     OW28611   7.259   0.465   8.977
42260SOL    HW128612   7.212   0.513   8.909
42260SOL    HW228613   7.221   0.377   8.975
42261SOL     OW28614  10.531  14.777   3.875
42261SOL    HW128615  10.463  14.845   3.875
42261SOL    HW228616  10.541  14.753   3.967
42262SOL     OW28617  13.341  13.146   9.314
42262SOL    HW128618  13.306  13.064   9.349
42262SOL    HW228619  13.289  13.162   9.235
42263SOL     OW28620   1.493  14.694   0.125
42263SOL    HW128621   1.432  14.668   0.056
42263SOL    HW228622   1.552  14.757   0.082
42264SOL     OW28623  13.708   2.111   6.027
42264SOL    HW128624  13.664   2.026   6.017
42264SOL    HW228625  13.760   2.120   5.947
42265SOL     OW28626   2.937  14.186   7.438
42265SOL    HW128627   2.950  14.278   7.413
42265SOL    HW228628   2.923  14.140   7.355
42266SOL     OW28629   7.035   9.900  13.854
42266SOL    HW128630   7.060   9.937  13.939
42266SOL    HW228631   7.111   9.848  13.827
42267SOL     OW28632   9.333   8.336  10.499
42267SOL    HW128633   9.343   8.412  10.442
42267SOL    HW228634   9.385   8.358  10.577
42268SOL     OW28635   5.854  11.926   0.294
42268SOL    HW128636   5.811  12.007   0.319
42268SOL    HW228637   5.853  11.872   0.373
42269SOL     OW28638   0.897   3.195   2.537
42269SOL    HW128639   0.859   3.275   2.574
42269SOL    HW228640   0.963   3.226   2.475
42270SOL     OW28641   9.422  12.833   7.017
42270SOL    HW128642   9.468  12.769   7.071
42270SOL    HW228643   9.329  12.812   7.028
42271SOL     OW28644   8.286   5.386   0.656
42271SOL    HW128645   8.210   5.422   0.610
42271SOL    HW228646   8.361   5.427   0.613
42272SOL     OW28647   7.593   5.808   6.238
42272SOL    HW128648   7.548   5.727   6.217
42272SOL    HW228649   7.571   5.868   6.166
42273SOL     OW28650   8.643  14.224   3.696
42273SOL    HW128651   8.645  14.296   3.758
42273SOL    HW228652   8.553  14.190   3.702
42274SOL     OW28653  13.075  10.729  11.634
42274SOL    HW128654  13.037  10.641  11.641
42274SOL    HW228655  13.168  10.714  11.616
42275SOL     OW28656   2.723   6.048   6.749
42275SOL    HW128657   2.685   6.047   6.837
42275SOL    HW228658   2.656   6.088   6.694
42276SOL     OW28659  10.238   4.341  12.750
42276SOL    HW128660  10.319   4.387  12.774
42276SOL    HW228661  10.227   4.358  12.656
42277SOL     OW28662   6.997  11.156   5.475
42277SOL    HW128663   7.029  11.105   5.401
42277SOL    HW228664   7.077  11.182   5.522
42278SOL     OW28665   1.344  12.460  14.140
42278SOL    HW128666   1.290  12.461  14.060
42278SOL    HW228667   1.385  12.546  14.142
42279SOL     OW28668   5.231   0.269   2.098
42279SOL    HW128669   5.306   0.210   2.090
42279SOL    HW228670   5.200   0.256   2.188
42280SOL     OW28671   2.878  12.860  14.646
42280SOL    HW128672   2.842  12.777  14.617
42280SOL    HW228673   2.951  12.836  14.703
42281SOL     OW28674   8.585   6.403   9.150
42281SOL    HW128675   8.598   6.416   9.245
42281SOL    HW228676   8.515   6.463   9.127
42282SOL     OW28677   6.283  14.629   2.960
42282SOL    HW128678   6.357  14.637   2.900
42282SOL    HW228679   6.228  14.561   2.921
42283SOL     OW28680   4.471   1.349  14.591
42283SOL    HW128681   4.536   1.403  14.547
42283SOL    HW228682   4.429   1.409  14.653
42284SOL     OW28683   7.097   0.471   6.455
42284SOL    HW128684   7.015   0.519   6.462
42284SOL    HW228685   7.165   0.539   6.455
42285SOL     OW28686   7.598   5.374  10.940
42285SOL    HW128687   7.521   5.365  10.996
42285SOL    HW228688   7.667   5.403  10.999
42286SOL     OW28689   9.140   0.038   3.018
42286SOL    HW128690   9.220   0.038   2.965
42286SOL    HW228691   9.092   0.116   2.990
42287SOL     OW28692   7.143   0.143   5.859
42287SOL    HW128693   7.131   0.111   5.948
42287SOL    HW228694   7.063   0.118   5.813
42288SOL     OW28695  11.111   0.425  10.113
42288SOL    HW128696  11.074   0.508  10.082
42288SOL    HW228697  11.038   0.382  10.157
42289SOL     OW28698   7.192   2.639   2.011
42289SOL    HW128699   7.109   2.680   1.984
42289SOL    HW228700   7.175   2.608   2.099
42290SOL     OW28701  11.534   7.554  13.449
42290SOL    HW128702  11.546   7.539  13.543
42290SOL    HW228703  11.475   7.484  13.420
42291SOL     OW28704   7.405   3.501   8.324
42291SOL    HW128705   7.424   3.529   8.413
42291SOL    HW228706   7.481   3.529   8.273
42292SOL     OW28707   7.320  14.744   6.069
42292SOL    HW128708   7.224  14.738   6.069
42292SOL    HW228709   7.341  14.804   6.141
42293SOL     OW28710  14.012   6.098   2.082
42293SOL    HW128711  14.064   6.123   2.006
42293SOL    HW228712  14.061   6.026   2.123
42294SOL     OW28713   0.492   1.698   8.930
42294SOL    HW128714   0.570   1.718   8.981
42294SOL    HW228715   0.421   1.696   8.994
42295SOL     OW28716   4.112   6.686   2.814
42295SOL    HW128717   4.097   6.613   2.755
42295SOL    HW228718   4.207   6.697   2.816
42296SOL     OW28719   0.957   3.829  14.327
42296SOL    HW128720   0.986   3.793  14.243
42296SOL    HW228721   0.919   3.754  14.374
42297SOL     OW28722   9.243   7.410  10.510
42297SOL    HW128723   9.172   7.380  10.455
42297SOL    HW228724   9.203   7.475  10.569
42298SOL     OW28725   7.514   5.519  14.308
42298SOL    HW128726   7.444   5.525  14.373
42298SOL    HW228727   7.572   5.592  14.330
42299SOL     OW28728  11.524  11.310   6.778
42299SOL    HW128729  11.607  11.264   6.765
42299SOL    HW228730  11.474  11.290   6.698
42300SOL     OW28731   1.523   8.529   1.714
42300SOL    HW128732   1.484   8.578   1.787
42300SOL    HW228733   1.604   8.495   1.750
42301SOL     OW28734   6.375  12.984  11.389
42301SOL    HW128735   6.448  13.036  11.357
42301SOL    HW228736   6.316  13.048  11.429
42302SOL     OW28737   4.891  11.183  13.227
42302SOL    HW128738   4.913  11.163  13.318
42302SOL    HW228739   4.801  11.215  13.231
42303SOL     OW28740  11.427   7.851   4.092
42303SOL    HW128741  11.476   7.905   4.154
42303SOL    HW228742  11.492   7.788   4.060
42304SOL     OW28743   7.916  14.678  10.819
42304SOL    HW128744   7.897  14.706  10.909
42304SOL    HW228745   7.831  14.676  10.776
42305SOL     OW28746  14.207  12.117  13.257
42305SOL    HW128747  14.199  12.207  13.288
42305SOL    HW228748  14.127  12.102  13.206
42306SOL     OW28749  12.396  11.280   0.615
42306SOL    HW128750  12.354  11.359   0.649
42306SOL    HW228751  12.346  11.259   0.536
42307SOL     OW28752   3.183  12.179   3.146
42307SOL    HW128753   3.114  12.166   3.081
42307SOL    HW228754   3.257  12.127   3.113
42308SOL     OW28755   2.715   0.564   1.442
42308SOL    HW128756   2.634   0.523   1.474
42308SOL    HW228757   2.777   0.492   1.434
42309SOL     OW28758   4.776  13.907  13.514
42309SOL    HW128759   4.698  13.863  13.549
42309SOL    HW228760   4.770  13.894  13.420
42310SOL     OW28761   0.547   3.079   8.822
42310SOL    HW128762   0.552   3.158   8.876
42310SOL    HW228763   0.477   3.027   8.861
42311SOL     OW28764   6.153  11.125   8.913
42311SOL    HW128765   6.065  11.163   8.906
42311SOL    HW228766   6.143  11.035   8.881
42312SOL     OW28767   7.775   6.535  11.574
42312SOL    HW128768   7.687   6.512  11.543
42312SOL    HW228769   7.780   6.630  11.561
42313SOL     OW28770   7.269   9.366   1.095
42313SOL    HW128771   7.254   9.394   1.005
42313SOL    HW228772   7.182   9.343   1.128
42314SOL     OW28773   2.474   1.201   6.988
42314SOL    HW128774   2.511   1.113   7.003
42314SOL    HW228775   2.483   1.214   6.894
42315SOL     OW28776   4.027  11.069  14.013
42315SOL    HW128777   3.952  11.053  13.955
42315SOL    HW228778   3.988  11.112  14.090
42316SOL     OW28779   6.231   0.891   0.531
42316SOL    HW128780   6.167   0.939   0.583
42316SOL    HW228781   6.292   0.854   0.595
42317SOL     OW28782   2.602   4.184  10.321
42317SOL    HW128783   2.664   4.179  10.393
42317SOL    HW228784   2.652   4.219  10.247
42318SOL     OW28785   8.146   3.378   0.773
42318SOL    HW128786   8.184   3.291   0.787
42318SOL    HW228787   8.074   3.363   0.713
42319SOL     OW28788  13.546   6.072   7.206
42319SOL    HW128789  13.558   5.993   7.259
42319SOL    HW228790  13.503   6.041   7.126
42320SOL     OW28791  14.464   8.783   6.573
42320SOL    HW128792  14.506   8.751   6.493
42320SOL    HW228793  14.411   8.857   6.545
42321SOL     OW28794   5.106  11.695   7.691
42321SOL    HW128795   5.165  11.768   7.709
42321SOL    HW228796   5.087  11.658   7.777
42322SOL     OW28797  13.023   4.738   4.447
42322SOL    HW128798  13.114   4.747   4.419
42322SOL    HW228799  13.007   4.643   4.446
42323SOL     OW28800   7.848   2.755   7.034
42323SOL    HW128801   7.771   2.801   7.065
42323SOL    HW228802   7.889   2.721   7.113
42324SOL     OW28803  14.109   1.275   2.913
42324SOL    HW128804  14.123   1.251   3.005
42324SOL    HW228805  14.014   1.269   2.902
42325SOL     OW28806   8.840   2.503   3.469
42325SOL    HW128807   8.837   2.599   3.477
42325SOL    HW228808   8.775   2.472   3.532
42326SOL     OW28809   4.258   4.996  12.032
42326SOL    HW128810   4.308   4.914  12.037
42326SOL    HW228811   4.318   5.058  11.991
42327SOL     OW28812  10.887   9.894   9.417
42327SOL    HW128813  10.832   9.931   9.487
42327SOL    HW228814  10.824   9.853   9.357
42328SOL     OW28815   6.070  14.351   8.906
42328SOL    HW128816   6.119  14.311   8.978
42328SOL    HW228817   6.049  14.439   8.938
42329SOL     OW28818   4.772  14.135  13.892
42329SOL    HW128819   4.747  14.053  13.850
42329SOL    HW228820   4.865  14.144  13.871
42330SOL     OW28821  14.320   7.698   6.222
42330SOL    HW128822  14.330   7.679   6.315
42330SOL    HW228823  14.353   7.787   6.212
42331SOL     OW28824   4.950   7.773   0.868
42331SOL    HW128825   4.905   7.834   0.926
42331SOL    HW228826   5.042   7.783   0.889
42332SOL     OW28827   0.890   5.587  10.160
42332SOL    HW128828   0.856   5.573  10.072
42332SOL    HW228829   0.812   5.587  10.216
42333SOL     OW28830   2.317   6.380   0.521
42333SOL    HW128831   2.233   6.365   0.479
42333SOL    HW228832   2.310   6.469   0.557
42334SOL     OW28833   3.410   7.424   6.970
42334SOL    HW128834   3.369   7.497   7.016
42334SOL    HW228835   3.463   7.466   6.902
42335SOL     OW28836   5.227  11.986  13.892
42335SOL    HW128837   5.139  11.987  13.854
42335SOL    HW228838   5.246  12.078  13.911
42336SOL     OW28839   4.747   4.309   8.303
42336SOL    HW128840   4.767   4.390   8.350
42336SOL    HW228841   4.726   4.338   8.214
42337SOL     OW28842   7.358  10.704   2.485
42337SOL    HW128843   7.352  10.693   2.390
42337SOL    HW228844   7.399  10.624   2.516
42338SOL     OW28845  12.380   9.584   2.098
42338SOL    HW128846  12.360   9.634   2.019
42338SOL    HW228847  12.441   9.516   2.069
42339SOL     OW28848  14.605   4.826  13.040
42339SOL    HW128849  14.591   4.909  12.993
42339SOL    HW228850  14.617   4.852  13.131
42340SOL     OW28851   3.069   6.289   9.683
42340SOL    HW128852   3.007   6.302   9.754
42340SOL    HW228853   3.035   6.342   9.611
42341SOL     OW28854   8.373  10.442  11.795
42341SOL    HW128855   8.299  10.497  11.769
42341SOL    HW228856   8.450  10.495  11.775
42342SOL     OW28857  13.268  13.977  11.631
42342SOL    HW128858  13.197  14.040  11.638
42342SOL    HW228859  13.323  14.009  11.560
42343SOL     OW28860   2.184  14.791   3.523
42343SOL    HW128861   2.236  14.785   3.604
42343SOL    HW228862   2.140  14.706   3.516
42344SOL     OW28863  10.562  13.922   8.251
42344SOL    HW128864  10.600  13.914   8.164
42344SOL    HW228865  10.468  13.909   8.237
42345SOL     OW28866  14.309   6.347  11.512
42345SOL    HW128867  14.228   6.296  11.508
42345SOL    HW228868  14.374   6.286  11.547
42346SOL     OW28869   8.830  13.040  12.494
42346SOL    HW128870   8.907  13.067  12.444
42346SOL    HW228871   8.834  12.944  12.493
42347SOL     OW28872   0.679  14.826  14.330
42347SOL    HW128873   0.695   0.007  14.255
42347SOL    HW228874   0.719  14.873  14.404
42348SOL     OW28875   5.348   2.578  14.720
42348SOL    HW128876   5.363   2.534  14.803
42348SOL    HW228877   5.309   2.662  14.744
42349SOL     OW28878   6.992   3.974   5.678
42349SOL    HW128879   6.926   3.905   5.680
42349SOL    HW228880   7.011   3.987   5.586
42350SOL     OW28881  11.131  11.152   2.539
42350SOL    HW128882  11.148  11.130   2.631
42350SOL    HW228883  11.214  11.137   2.495
42351SOL     OW28884  13.077   1.188  12.223
42351SOL    HW128885  13.047   1.266  12.269
42351SOL    HW228886  13.163   1.169  12.262
42352SOL     OW28887  14.424  11.258   5.566
42352SOL    HW128888  14.369  11.187   5.600
42352SOL    HW228889  14.384  11.338   5.601
42353SOL     OW28890   7.254   1.024   4.326
42353SOL    HW128891   7.291   1.109   4.352
42353SOL    HW228892   7.323   0.961   4.345
42354SOL     OW28893  10.333   5.610   8.209
42354SOL    HW128894  10.261   5.673   8.220
42354SOL    HW228895  10.310   5.562   8.130
42355SOL     OW28896   4.383   5.959   6.470
42355SOL    HW128897   4.395   5.953   6.375
42355SOL    HW228898   4.334   6.040   6.483
42356SOL     OW28899   7.835   0.488  12.123
42356SOL    HW128900   7.878   0.510  12.040
42356SOL    HW228901   7.833   0.571  12.171
42357SOL     OW28902   1.982  13.387   1.172
42357SOL    HW128903   2.047  13.363   1.237
42357SOL    HW228904   2.033  13.417   1.096
42358SOL     OW28905  11.741   1.892   4.192
42358SOL    HW128906  11.836   1.891   4.191
42358SOL    HW228907  11.717   1.984   4.187
42359SOL     OW28908   6.821   8.709  14.315
42359SOL    HW128909   6.896   8.651  14.299
42359SOL    HW228910   6.790   8.684  14.402
42360SOL     OW28911  11.409   5.256   2.629
42360SOL    HW128912  11.333   5.288   2.678
42360SOL    HW228913  11.482   5.310   2.660
42361SOL     OW28914   5.731  10.723  10.659
42361SOL    HW128915   5.705  10.751  10.747
42361SOL    HW228916   5.814  10.676  10.672
42362SOL     OW28917   6.874  14.809   4.350
42362SOL    HW128918   6.965  14.783   4.334
42362SOL    HW228919   6.825  14.727   4.347
42363SOL     OW28920  14.816   1.480   7.667
42363SOL    HW128921   0.005   1.498   7.735
42363SOL    HW228922  14.760   1.558   7.667
42364SOL     OW28923  12.240  11.751  12.285
42364SOL    HW128924  12.175  11.724  12.221
42364SOL    HW228925  12.201  11.828  12.327
42365SOL     OW28926  13.761   2.157  10.220
42365SOL    HW128927  13.840   2.112  10.191
42365SOL    HW228928  13.689   2.098  10.195
42366SOL     OW28929   4.859   8.221   9.680
42366SOL    HW128930   4.868   8.126   9.686
42366SOL    HW228931   4.833   8.248   9.768
42367SOL     OW28932   3.652  10.066   1.871
42367SOL    HW128933   3.572  10.014   1.866
42367SOL    HW228934   3.714  10.011   1.919
42368SOL     OW28935  11.698  13.507  13.010
42368SOL    HW128936  11.765  13.541  12.952
42368SOL    HW228937  11.673  13.582  13.064
42369SOL     OW28938   2.609  11.801   2.524
42369SOL    HW128939   2.676  11.762   2.467
42369SOL    HW228940   2.537  11.738   2.523
42370SOL     OW28941   8.082  12.932  14.491
42370SOL    HW128942   8.028  12.870  14.443
42370SOL    HW228943   8.172  12.903  14.473
42371SOL     OW28944   3.331   4.200  11.391
42371SOL    HW128945   3.251   4.249  11.371
42371SOL    HW228946   3.365   4.243  11.470
42372SOL     OW28947  11.504   2.914  14.124
42372SOL    HW128948  11.580   2.860  14.099
42372SOL    HW228949  11.505   2.913  14.219
42373SOL     OW28950   1.865   0.084   3.845
42373SOL    HW128951   1.941   0.139   3.863
42373SOL    HW228952   1.792   0.145   3.839
42374SOL     OW28953  13.332   7.633  13.359
42374SOL    HW128954  13.306   7.588  13.440
42374SOL    HW228955  13.282   7.715  13.361
42375SOL     OW28956  10.103   6.013  14.772
42375SOL    HW128957  10.169   6.076  14.743
42375SOL    HW228958  10.055   6.059  14.841
42376SOL     OW28959   8.803  11.106   9.207
42376SOL    HW128960   8.801  11.163   9.131
42376SOL    HW228961   8.896  11.098   9.229
42377SOL     OW28962  10.976  14.442   6.322
42377SOL    HW128963  11.011  14.466   6.236
42377SOL    HW228964  11.041  14.477   6.384
42378SOL     OW28965   4.317  13.159   8.800
42378SOL    HW128966   4.276  13.227   8.854
42378SOL    HW228967   4.257  13.148   8.726
42379SOL     OW28968   8.415   2.226   7.931
42379SOL    HW128969   8.347   2.293   7.937
42379SOL    HW228970   8.372   2.145   7.957
42380SOL     OW28971   8.794   6.015   9.141
42380SOL    HW128972   8.822   6.074   9.211
42380SOL    HW228973   8.701   6.034   9.130
42381SOL     OW28974  14.761   1.622   3.506
42381SOL    HW128975  14.691   1.679   3.538
42381SOL    HW228976  14.814   1.677   3.449
42382SOL     OW28977   3.088   2.207  14.796
42382SOL    HW128978   3.079   2.123  14.840
42382SOL    HW228979   3.183   2.222  14.792
42383SOL     OW28980  12.104   8.205  14.470
42383SOL    HW128981  12.080   8.168  14.556
42383SOL    HW228982  12.144   8.131  14.423
42384SOL     OW28983   4.398   2.928  13.030
42384SOL    HW128984   4.308   2.915  13.001
42384SOL    HW228985   4.431   2.840  13.048
42385SOL     OW28986   7.592   3.826  10.060
42385SOL    HW128987   7.527   3.801  10.126
42385SOL    HW228988   7.604   3.920  10.073
42386SOL     OW28989  11.452  13.358  14.592
42386SOL    HW128990  11.487  13.360  14.681
42386SOL    HW228991  11.454  13.449  14.563
42387SOL     OW28992  10.207   8.314   6.281
42387SOL    HW128993  10.120   8.340   6.252
42387SOL    HW228994  10.195   8.225   6.314
42388SOL     OW28995   9.266  13.255   3.411
42388SOL    HW128996   9.249  13.298   3.328
42388SOL    HW228997   9.253  13.323   3.477
42389SOL     OW28998  12.195   3.475   2.303
42389SOL    HW128999  12.192   3.390   2.259
42389SOL    HW229000  12.163   3.537   2.237
42390SOL     OW29001   5.677   7.858   0.661
42390SOL    HW129002   5.696   7.771   0.696
42390SOL    HW229003   5.711   7.919   0.727
42391SOL     OW29004   5.961  11.889   5.698
42391SOL    HW129005   6.003  11.962   5.744
42391SOL    HW229006   5.906  11.847   5.764
42392SOL     OW29007   9.458   5.645   1.961
42392SOL    HW129008   9.439   5.712   1.896
42392SOL    HW229009   9.418   5.678   2.042
42393SOL     OW29010   4.800   1.838   5.469
42393SOL    HW129011   4.783   1.843   5.375
42393SOL    HW229012   4.801   1.929   5.498
42394SOL     OW29013   6.349   7.807   4.574
42394SOL    HW129014   6.272   7.836   4.623
42394SOL    HW229015   6.330   7.831   4.483
42395SOL     OW29016  11.608   9.645   4.850
42395SOL    HW129017  11.677   9.666   4.913
42395SOL    HW229018  11.545   9.716   4.860
42396SOL     OW29019   9.856  14.186   5.236
42396SOL    HW129020   9.774  14.138   5.246
42396SOL    HW229021   9.850  14.258   5.300
42397SOL     OW29022  13.602  12.305  14.701
42397SOL    HW129023  13.596  12.396  14.672
42397SOL    HW229024  13.626  12.311  14.794
42398SOL     OW29025   4.816   6.846  13.298
42398SOL    HW129026   4.735   6.896  13.291
42398SOL    HW229027   4.885   6.908  13.275
42399SOL     OW29028  10.509   9.619   6.344
42399SOL    HW129029  10.481   9.543   6.395
42399SOL    HW229030  10.428   9.665   6.322
42400SOL     OW29031   6.055   0.103   4.785
42400SOL    HW129032   6.138   0.061   4.762
42400SOL    HW229033   6.045   0.173   4.721
42401SOL     OW29034   5.012  11.683   4.447
42401SOL    HW129035   5.032  11.745   4.377
42401SOL    HW229036   4.936  11.722   4.492
42402SOL     OW29037   1.586   5.019   5.298
42402SOL    HW129038   1.548   5.101   5.331
42402SOL    HW229039   1.564   5.019   5.204
42403SOL     OW29040   4.935  13.252   5.403
42403SOL    HW129041   5.020  13.253   5.448
42403SOL    HW229042   4.893  13.172   5.434
42404SOL     OW29043  13.055  10.476   4.573
42404SOL    HW129044  12.981  10.531   4.598
42404SOL    HW229045  13.128  10.508   4.627
42405SOL     OW29046   3.173   2.689   8.580
42405SOL    HW129047   3.128   2.638   8.647
42405SOL    HW229048   3.150   2.780   8.599
42406SOL     OW29049   9.028   6.044   8.650
42406SOL    HW129050   8.946   6.086   8.675
42406SOL    HW229051   9.096   6.102   8.683
42407SOL     OW29052   2.455  13.353   1.184
42407SOL    HW129053   2.455  13.445   1.211
42407SOL    HW229054   2.372  13.319   1.217
42408SOL     OW29055   7.139   2.513   8.074
42408SOL    HW129056   7.166   2.604   8.058
42408SOL    HW229057   7.121   2.510   8.168
42409SOL     OW29058   4.871  13.694   4.813
42409SOL    HW129059   4.958  13.680   4.775
42409SOL    HW229060   4.831  13.607   4.814
42410SOL     OW29061   0.563  14.195   1.003
42410SOL    HW129062   0.547  14.127   0.938
42410SOL    HW229063   0.594  14.147   1.080
42411SOL     OW29064  11.422   6.534   2.973
42411SOL    HW129065  11.434   6.450   2.928
42411SOL    HW229066  11.364   6.584   2.915
42412SOL     OW29067   3.017   3.786  13.971
42412SOL    HW129068   2.948   3.724  13.948
42412SOL    HW229069   3.052   3.815  13.887
42413SOL     OW29070  11.506  13.617   1.659
42413SOL    HW129071  11.554  13.535   1.644
42413SOL    HW229072  11.417  13.590   1.679
42414SOL     OW29073   2.406   9.443   2.259
42414SOL    HW129074   2.393   9.433   2.353
42414SOL    HW229075   2.368   9.529   2.239
42415SOL     OW29076   8.694   6.769   0.648
42415SOL    HW129077   8.641   6.691   0.665
42415SOL    HW229078   8.646   6.817   0.581
42416SOL     OW29079   9.614   9.802   0.194
42416SOL    HW129080   9.665   9.732   0.235
42416SOL    HW229081   9.536   9.810   0.248
42417SOL     OW29082   6.230   8.383  12.152
42417SOL    HW129083   6.306   8.432  12.183
42417SOL    HW229084   6.257   8.348  12.067
42418SOL     OW29085  11.793   8.433   7.623
42418SOL    HW129086  11.855   8.361   7.621
42418SOL    HW229087  11.770   8.448   7.531
42419SOL     OW29088  11.304   4.803  10.636
42419SOL    HW129089  11.346   4.760  10.710
42419SOL    HW229090  11.373   4.814  10.571
42420SOL     OW29091   4.022   2.427  11.590
42420SOL    HW129092   4.011   2.385  11.675
42420SOL    HW229093   4.117   2.432  11.577
42421SOL     OW29094  12.318   5.843   1.181
42421SOL    HW129095  12.411   5.859   1.162
42421SOL    HW229096  12.278   5.829   1.096
42422SOL     OW29097   8.688  14.025   0.690
42422SOL    HW129098   8.593  14.038   0.682
42422SOL    HW229099   8.699  13.930   0.694
42423SOL     OW29100   5.967   7.076   1.420
42423SOL    HW129101   6.056   7.108   1.409
42423SOL    HW229102   5.957   7.007   1.354
42424SOL     OW29103  11.785  12.824   7.808
42424SOL    HW129104  11.859  12.884   7.802
42424SOL    HW229105  11.730  12.845   7.733
42425SOL     OW29106   8.082   1.222   6.262
42425SOL    HW129107   8.176   1.213   6.273
42425SOL    HW229108   8.046   1.216   6.351
42426SOL     OW29109   7.161  14.116   6.643
42426SOL    HW129110   7.084  14.093   6.591
42426SOL    HW229111   7.221  14.156   6.580
42427SOL     OW29112   1.859  10.910   1.094
42427SOL    HW129113   1.937  10.888   1.144
42427SOL    HW229114   1.845  11.003   1.112
42428SOL     OW29115  12.837   9.183   3.745
42428SOL    HW129116  12.792   9.267   3.750
42428SOL    HW229117  12.925   9.203   3.716
42429SOL     OW29118   2.362   4.009  13.748
42429SOL    HW129119   2.375   4.007  13.653
42429SOL    HW229120   2.289   4.069  13.761
42430SOL     OW29121   8.790   2.687   3.914
42430SOL    HW129122   8.872   2.659   3.875
42430SOL    HW229123   8.741   2.606   3.928
42431SOL     OW29124   4.722   8.404   2.885
42431SOL    HW129125   4.639   8.431   2.925
42431SOL    HW229126   4.765   8.351   2.952
42432SOL     OW29127  10.727  10.378  12.778
42432SOL    HW129128  10.787  10.422  12.717
42432SOL    HW229129  10.742  10.420  12.862
42433SOL     OW29130   6.162   3.580   6.843
42433SOL    HW129131   6.141   3.618   6.928
42433SOL    HW229132   6.250   3.612   6.824
42434SOL     OW29133   6.179   4.034   1.014
42434SOL    HW129134   6.247   4.034   0.946
42434SOL    HW229135   6.141   3.946   1.009
42435SOL     OW29136   1.207   3.627   5.717
42435SOL    HW129137   1.112   3.621   5.732
42435SOL    HW229138   1.228   3.546   5.670
42436SOL     OW29139  12.782   3.705   0.944
42436SOL    HW129140  12.864   3.729   0.988
42436SOL    HW229141  12.725   3.780   0.959
42437SOL     OW29142   8.760  13.948  12.491
42437SOL    HW129143   8.814  14.027  12.496
42437SOL    HW229144   8.692  13.970  12.427
42438SOL     OW29145  12.532   0.206  11.564
42438SOL    HW129146  12.450   0.214  11.516
42438SOL    HW229147  12.535   0.114  11.591
42439SOL     OW29148   1.810  14.873   1.382
42439SOL    HW129149   1.809  14.797   1.440
42439SOL    HW229150   1.809   0.072   1.442
42440SOL     OW29151  12.547   1.856  13.097
42440SOL    HW129152  12.514   1.806  13.023
42440SOL    HW229153  12.591   1.932  13.058
42441SOL     OW29154  14.258   4.119   2.829
42441SOL    HW129155  14.339   4.123   2.777
42441SOL    HW229156  14.285   4.077   2.910
42442SOL     OW29157   9.656   5.427   9.171
42442SOL    HW129158   9.667   5.433   9.266
42442SOL    HW229159   9.603   5.503   9.148
42443SOL     OW29160   8.051   4.236   9.559
42443SOL    HW129161   7.956   4.238   9.562
42443SOL    HW229162   8.078   4.328   9.567
42444SOL     OW29163   3.441  13.962   3.547
42444SOL    HW129164   3.432  13.867   3.556
42444SOL    HW229165   3.356  13.990   3.513
42445SOL     OW29166  14.806  10.323  13.176
42445SOL    HW129167  14.796  10.340  13.269
42445SOL    HW229168  14.839  10.233  13.172
42446SOL     OW29169   1.570   3.667  10.443
42446SOL    HW129170   1.477   3.666  10.419
42446SOL    HW229171   1.611   3.609  10.380
42447SOL     OW29172  13.508   1.341  11.296
42447SOL    HW129173  13.458   1.390  11.361
42447SOL    HW229174  13.513   1.400  11.220
42448SOL     OW29175   6.602   1.518   6.191
42448SOL    HW129176   6.533   1.555   6.246
42448SOL    HW229177   6.679   1.571   6.211
42449SOL     OW29178   0.097  11.826   8.044
42449SOL    HW129179   0.147  11.761   7.995
42449SOL    HW229180   0.090  11.788   8.132
42450SOL     OW29181   3.751  14.856   9.581
42450SOL    HW129182   3.671  14.806   9.567
42450SOL    HW229183   3.820  14.801   9.543
42451SOL     OW29184  11.813   3.011  10.118
42451SOL    HW129185  11.741   3.074  10.119
42451SOL    HW229186  11.888   3.059  10.151
42452SOL     OW29187   6.146   2.799   2.236
42452SOL    HW129188   6.093   2.720   2.242
42452SOL    HW229189   6.152   2.830   2.326
42453SOL     OW29190   8.265  13.968   5.845
42453SOL    HW129191   8.298  14.052   5.813
42453SOL    HW229192   8.315  13.902   5.798
42454SOL     OW29193   0.547  12.177  12.356
42454SOL    HW129194   0.612  12.127  12.406
42454SOL    HW229195   0.595  12.206  12.278
42455SOL     OW29196   2.075  10.183   0.409
42455SOL    HW129197   2.049  10.196   0.501
42455SOL    HW229198   1.992  10.180   0.362
42456SOL     OW29199   4.368   2.896  10.099
42456SOL    HW129200   4.319   2.825  10.141
42456SOL    HW229201   4.306   2.968  10.093
42457SOL     OW29202   8.401   3.433   4.234
42457SOL    HW129203   8.371   3.523   4.222
42457SOL    HW229204   8.342   3.396   4.300
42458SOL     OW29205   3.689   6.650   1.698
42458SOL    HW129206   3.738   6.701   1.763
42458SOL    HW229207   3.726   6.678   1.614
42459SOL     OW29208   2.857   5.290   0.815
42459SOL    HW129209   2.878   5.355   0.882
42459SOL    HW229210   2.799   5.335   0.754
42460SOL     OW29211  11.174   9.337   3.050
42460SOL    HW129212  11.171   9.413   2.991
42460SOL    HW229213  11.204   9.373   3.133
42461SOL     OW29214  13.684   7.491  10.356
42461SOL    HW129215  13.657   7.474  10.446
42461SOL    HW229216  13.776   7.516  10.363
42462SOL     OW29217   5.470   5.156   5.674
42462SOL    HW129218   5.412   5.210   5.727
42462SOL    HW229219   5.522   5.219   5.624
42463SOL     OW29220   2.880   2.996  12.048
42463SOL    HW129221   2.805   2.948  12.013
42463SOL    HW229222   2.952   2.976  11.988
42464SOL     OW29223   6.248  10.005   3.132
42464SOL    HW129224   6.218   9.931   3.079
42464SOL    HW229225   6.172  10.061   3.140
42465SOL     OW29226   3.524   6.406   6.164
42465SOL    HW129227   3.504   6.489   6.122
42465SOL    HW229228   3.490   6.339   6.105
42466SOL     OW29229   7.257   4.209   0.313
42466SOL    HW129230   7.251   4.273   0.383
42466SOL    HW229231   7.340   4.163   0.328
42467SOL     OW29232   1.962   3.059  10.863
42467SOL    HW129233   2.046   3.083  10.904
42467SOL    HW229234   1.979   3.064  10.769
42468SOL     OW29235   8.042   1.359   6.798
42468SOL    HW129236   7.947   1.355   6.804
42468SOL    HW229237   8.064   1.449   6.823
42469SOL     OW29238   5.974   1.045  11.634
42469SOL    HW129239   5.994   0.978  11.569
42469SOL    HW229240   5.885   1.073  11.613
42470SOL     OW29241  12.162   1.372   6.677
42470SOL    HW129242  12.126   1.460   6.690
42470SOL    HW229243  12.159   1.359   6.582
42471SOL     OW29244   5.260  13.679   9.606
42471SOL    HW129245   5.198  13.750   9.624
42471SOL    HW229246   5.287  13.648   9.692
42472SOL     OW29247   1.922   0.210  13.544
42472SOL    HW129248   1.916   0.243  13.455
42472SOL    HW229249   1.978   0.273  13.589
42473SOL     OW29250   5.822   4.088  10.488
42473SOL    HW129251   5.898   4.095  10.430
42473SOL    HW229252   5.761   4.155  10.455
42474SOL     OW29253   8.830   0.395   3.475
42474SOL    HW129254   8.894   0.451   3.431
42474SOL    HW229255   8.749   0.408   3.426
42475SOL     OW29256  12.350  11.868   7.965
42475SOL    HW129257  12.383  11.907   7.884
42475SOL    HW229258  12.329  11.943   8.021
42476SOL     OW29259   6.369   9.554   2.271
42476SOL    HW129260   6.319   9.584   2.196
42476SOL    HW229261   6.374   9.459   2.260
42477SOL     OW29262   0.923   3.645   3.170
42477SOL    HW129263   1.016   3.651   3.192
42477SOL    HW229264   0.895   3.736   3.161
42478SOL     OW29265   7.510   4.681   9.445
42478SOL    HW129266   7.535   4.603   9.396
42478SOL    HW229267   7.421   4.663   9.475
42479SOL     OW29268   9.090   4.038  10.478
42479SOL    HW129269   9.139   4.088  10.413
42479SOL    HW229270   9.026   4.100  10.513
42480SOL     OW29271   9.918   6.098  10.861
42480SOL    HW129272   9.867   6.019  10.846
42480SOL    HW229273   9.874   6.143  10.933
42481SOL     OW29274  14.360   0.792   5.942
42481SOL    HW129275  14.392   0.729   5.877
42481SOL    HW229276  14.308   0.855   5.891
42482SOL     OW29277   9.326   0.639   7.453
42482SOL    HW129278   9.264   0.711   7.462
42482SOL    HW229279   9.412   0.681   7.450
42483SOL     OW29280   0.581   0.608   5.326
42483SOL    HW129281   0.526   0.542   5.368
42483SOL    HW229282   0.569   0.687   5.380
42484SOL     OW29283   5.807   0.824   9.974
42484SOL    HW129284   5.792   0.884  10.048
42484SOL    HW229285   5.902   0.812   9.972
42485SOL     OW29286   0.915   7.256   6.317
42485SOL    HW129287   0.834   7.235   6.271
42485SOL    HW229288   0.920   7.351   6.317
42486SOL     OW29289   2.583   5.257   8.979
42486SOL    HW129290   2.499   5.285   9.017
42486SOL    HW229291   2.591   5.165   9.005
42487SOL     OW29292   7.438  12.532   5.223
42487SOL    HW129293   7.428  12.505   5.131
42487SOL    HW229294   7.526  12.502   5.247
42488SOL     OW29295   7.684  11.443   4.035
42488SOL    HW129296   7.734  11.361   4.032
42488SOL    HW229297   7.611  11.429   3.976
42489SOL     OW29298  14.586   9.847  12.766
42489SOL    HW129299  14.502   9.824  12.805
42489SOL    HW229300  14.601   9.780  12.700
42490SOL     OW29301   3.171   3.709   6.399
42490SOL    HW129302   3.117   3.788   6.394
42490SOL    HW229303   3.150   3.660   6.319
42491SOL     OW29304   7.017  13.535   7.985
42491SOL    HW129305   6.934  13.501   7.953
42491SOL    HW229306   7.007  13.630   7.983
42492SOL     OW29307   1.989   2.798   3.646
42492SOL    HW129308   2.019   2.777   3.557
42492SOL    HW229309   2.068   2.794   3.700
42493SOL     OW29310   0.721   2.702   3.368
42493SOL    HW129311   0.710   2.629   3.308
42493SOL    HW229312   0.742   2.776   3.312
42494SOL     OW29313  13.849  11.019   0.820
42494SOL    HW129314  13.833  11.109   0.848
42494SOL    HW229315  13.830  11.020   0.726
42495SOL     OW29316  13.295   7.707  10.291
42495SOL    HW129317  13.213   7.661  10.276
42495SOL    HW229318  13.276   7.770  10.360
42496SOL     OW29319   1.084  13.283   6.425
42496SOL    HW129320   1.066  13.312   6.515
42496SOL    HW229321   1.006  13.308   6.376
42497SOL     OW29322  13.328   9.426   3.193
42497SOL    HW129323  13.384   9.433   3.116
42497SOL    HW229324  13.262   9.361   3.169
42498SOL     OW29325   7.514   6.722  11.783
42498SOL    HW129326   7.588   6.696  11.838
42498SOL    HW229327   7.494   6.644  11.732
42499SOL     OW29328   7.050   6.153  13.346
42499SOL    HW129329   7.134   6.116  13.317
42499SOL    HW229330   7.056   6.246  13.325
42500SOL     OW29331   9.698  13.279  14.212
42500SOL    HW129332   9.739  13.262  14.127
42500SOL    HW229333   9.762  13.332  14.259
42501SOL     OW29334   4.353  11.628   7.967
42501SOL    HW129335   4.337  11.702   7.908
42501SOL    HW229336   4.271  11.578   7.966
42502SOL     OW29337   6.071  12.340   5.267
42502SOL    HW129338   6.165  12.326   5.255
42502SOL    HW229339   6.046  12.399   5.195
42503SOL     OW29340   0.862  13.108  14.700
42503SOL    HW129341   0.928  13.169  14.665
42503SOL    HW229342   0.781  13.158  14.701
42504SOL     OW29343  11.971   8.587   1.982
42504SOL    HW129344  11.882   8.553   1.981
42504SOL    HW229345  11.961   8.682   1.980
42505SOL     OW29346   4.405   0.025   7.164
42505SOL    HW129347   4.388   0.086   7.092
42505SOL    HW229348   4.350  14.825   7.145
42506SOL     OW29349  14.529   9.468  12.041
42506SOL    HW129350  14.486   9.551  12.064
42506SOL    HW229351  14.470   9.428  11.977
42507SOL     OW29352   9.908   6.237  14.032
42507SOL    HW129353   9.907   6.329  14.058
42507SOL    HW229354   9.918   6.189  14.114
42508SOL     OW29355   6.257   4.200   7.205
42508SOL    HW129356   6.287   4.225   7.117
42508SOL    HW229357   6.219   4.113   7.193
42509SOL     OW29358   0.453   6.063   7.877
42509SOL    HW129359   0.427   6.103   7.960
42509SOL    HW229360   0.393   5.988   7.867
42510SOL     OW29361  13.469   4.481   0.473
42510SOL    HW129362  13.533   4.442   0.532
42510SOL    HW229363  13.516   4.497   0.392
42511SOL     OW29364   0.432  13.369   8.059
42511SOL    HW129365   0.362  13.325   8.012
42511SOL    HW229366   0.393  13.397   8.141
42512SOL     OW29367   9.960  10.616  11.087
42512SOL    HW129368   9.934  10.695  11.041
42512SOL    HW229369   9.934  10.544  11.030
42513SOL     OW29370  10.563   3.752  11.078
42513SOL    HW129371  10.563   3.698  10.999
42513SOL    HW229372  10.471   3.778  11.089
42514SOL     OW29373   4.027  10.191  10.635
42514SOL    HW129374   3.970  10.168  10.708
42514SOL    HW229375   4.036  10.287  10.641
42515SOL     OW29376   1.347   9.042  13.279
42515SOL    HW129377   1.275   9.071  13.335
42515SOL    HW229378   1.394   9.122  13.257
42516SOL     OW29379  12.564   6.498  13.748
42516SOL    HW129380  12.471   6.479  13.758
42516SOL    HW229381  12.573   6.526  13.657
42517SOL     OW29382   3.257  13.137   0.758
42517SOL    HW129383   3.342  13.116   0.719
42517SOL    HW229384   3.271  13.221   0.802
42518SOL     OW29385   9.696  10.124   6.815
42518SOL    HW129386   9.671  10.090   6.730
42518SOL    HW229387   9.614  10.154   6.855
42519SOL     OW29388   1.093   9.656   9.673
42519SOL    HW129389   1.159   9.588   9.660
42519SOL    HW229390   1.085   9.665   9.768
42520SOL     OW29391  13.357  11.370   1.712
42520SOL    HW129392  13.339  11.319   1.632
42520SOL    HW229393  13.436  11.420   1.691
42521SOL     OW29394  11.647  13.183   7.761
42521SOL    HW129395  11.613  13.111   7.707
42521SOL    HW229396  11.633  13.262   7.708
42522SOL     OW29397  13.458   2.789   8.022
42522SOL    HW129398  13.533   2.746   8.064
42522SOL    HW229399  13.407   2.824   8.095
42523SOL     OW29400   6.541   1.411   1.955
42523SOL    HW129401   6.633   1.437   1.948
42523SOL    HW229402   6.545   1.324   1.996
42524SOL     OW29403  13.439   9.318   2.502
42524SOL    HW129404  13.367   9.338   2.442
42524SOL    HW229405  13.483   9.401   2.515
42525SOL     OW29406   4.596  13.581   0.302
42525SOL    HW129407   4.655  13.655   0.308
42525SOL    HW229408   4.563  13.584   0.213
42526SOL     OW29409   2.627  10.954   9.218
42526SOL    HW129410   2.596  10.868   9.191
42526SOL    HW229411   2.713  10.938   9.256
42527SOL     OW29412   9.845   8.846   2.049
42527SOL    HW129413   9.907   8.917   2.068
42527SOL    HW229414   9.858   8.783   2.121
42528SOL     OW29415  10.167  12.689   0.759
42528SOL    HW129416  10.130  12.770   0.724
42528SOL    HW229417  10.094  12.646   0.803
42529SOL     OW29418   5.011  12.401  12.293
42529SOL    HW129419   5.100  12.423  12.320
42529SOL    HW229420   5.020  12.370  12.204
42530SOL     OW29421   3.958  13.378   7.634
42530SOL    HW129422   4.038  13.327   7.623
42530SOL    HW229423   3.912  13.336   7.707
42531SOL     OW29424  13.585   3.884   1.809
42531SOL    HW129425  13.574   3.894   1.715
42531SOL    HW229426  13.496   3.893   1.844
42532SOL     OW29427  10.634  12.042   1.625
42532SOL    HW129428  10.617  12.015   1.535
42532SOL    HW229429  10.571  12.112   1.641
42533SOL     OW29430  12.448   0.756   4.573
42533SOL    HW129431  12.414   0.845   4.562
42533SOL    HW229432  12.472   0.750   4.665
42534SOL     OW29433  11.109   5.727   9.040
42534SOL    HW129434  11.049   5.662   9.076
42534SOL    HW229435  11.193   5.708   9.082
42535SOL     OW29436   4.529   7.161   1.039
42535SOL    HW129437   4.527   7.149   0.944
42535SOL    HW229438   4.620   7.182   1.058
42536SOL     OW29439   9.633  10.622   2.205
42536SOL    HW129440   9.602  10.554   2.265
42536SOL    HW229441   9.593  10.702   2.237
42537SOL     OW29442   4.735   4.237   4.085
42537SOL    HW129443   4.669   4.180   4.045
42537SOL    HW229444   4.739   4.314   4.028
42538SOL     OW29445   5.944  10.495   2.283
42538SOL    HW129446   5.874  10.449   2.328
42538SOL    HW229447   6.018  10.434   2.283
42539SOL     OW29448   6.864   7.360  13.078
42539SOL    HW129449   6.891   7.277  13.039
42539SOL    HW229450   6.782   7.340  13.123
42540SOL     OW29451   4.559  13.487   7.382
42540SOL    HW129452   4.473  13.479   7.423
42540SOL    HW229453   4.542  13.484   7.288
42541SOL     OW29454  12.396   5.661   8.939
42541SOL    HW129455  12.423   5.582   8.891
42541SOL    HW229456  12.456   5.729   8.908
42542SOL     OW29457   6.270   4.543   0.108
42542SOL    HW129458   6.211   4.557   0.034
42542SOL    HW229459   6.354   4.518   0.068
42543SOL     OW29460   9.783  11.423  12.093
42543SOL    HW129461   9.755  11.341  12.133
42543SOL    HW229462   9.832  11.396  12.015
42544SOL     OW29463  10.650   2.634   1.898
42544SOL    HW129464  10.744   2.616   1.888
42544SOL    HW229465  10.631   2.698   1.830
42545SOL     OW29466   5.671   4.374  11.203
42545SOL    HW129467   5.659   4.312  11.275
42545SOL    HW229468   5.582   4.391  11.172
42546SOL     OW29469   0.599   6.609  11.905
42546SOL    HW129470   0.684   6.590  11.943
42546SOL    HW229471   0.610   6.596  11.811
42547SOL     OW29472   6.481   6.482  13.337
42547SOL    HW129473   6.518   6.398  13.308
42547SOL    HW229474   6.411   6.500  13.275
42548SOL     OW29475   6.309  11.029   4.168
42548SOL    HW129476   6.376  11.025   4.100
42548SOL    HW229477   6.265  10.944   4.163
42549SOL     OW29478   4.466   9.094  13.282
42549SOL    HW129479   4.547   9.044  13.285
42549SOL    HW229480   4.397   9.028  13.277
42550SOL     OW29481  11.934  10.985   1.506
42550SOL    HW129482  11.910  10.920   1.441
42550SOL    HW229483  11.867  11.053   1.499
42551SOL     OW29484   1.215  11.499   0.214
42551SOL    HW129485   1.243  11.588   0.234
42551SOL    HW229486   1.219  11.493   0.119
42552SOL     OW29487   1.005  14.834  14.522
42552SOL    HW129488   1.087  14.846  14.569
42552SOL    HW229489   0.963   0.044  14.523
42553SOL     OW29490   4.732  12.991  10.392
42553SOL    HW129491   4.685  13.030  10.319
42553SOL    HW229492   4.764  12.907  10.358
42554SOL     OW29493   0.399   3.635   1.338
42554SOL    HW129494   0.360   3.622   1.252
42554SOL    HW229495   0.480   3.682   1.320
42555SOL     OW29496   7.792   7.223   4.580
42555SOL    HW129497   7.757   7.267   4.658
42555SOL    HW229498   7.882   7.201   4.605
42556SOL     OW29499   7.946   8.178   4.394
42556SOL    HW129500   7.984   8.253   4.348
42556SOL    HW229501   7.875   8.215   4.446
42557SOL     OW29502   8.028   4.995   7.993
42557SOL    HW129503   7.957   4.937   7.964
42557SOL    HW229504   8.107   4.956   7.956
42558SOL     OW29505   2.886   1.918   8.568
42558SOL    HW129506   2.887   1.956   8.655
42558SOL    HW229507   2.937   1.978   8.514
42559SOL     OW29508  12.445   3.821   9.647
42559SOL    HW129509  12.494   3.895   9.611
42559SOL    HW229510  12.416   3.852   9.733
42560SOL     OW29511   9.271  12.494  14.151
42560SOL    HW129512   9.314  12.447  14.221
42560SOL    HW229513   9.314  12.579  14.148
42561SOL     OW29514   9.960  10.442   9.199
42561SOL    HW129515   9.938  10.376   9.265
42561SOL    HW229516   9.995  10.391   9.126
42562SOL     OW29517   2.924  12.595   8.552
42562SOL    HW129518   2.935  12.652   8.628
42562SOL    HW229519   2.906  12.509   8.589
42563SOL     OW29520   5.517   6.348  13.456
42563SOL    HW129521   5.520   6.367  13.362
42563SOL    HW229522   5.457   6.412  13.492
42564SOL     OW29523   1.062   6.738   2.418
42564SOL    HW129524   0.997   6.684   2.373
42564SOL    HW229525   1.015   6.775   2.492
42565SOL     OW29526   7.745   3.490   2.975
42565SOL    HW129527   7.719   3.530   3.059
42565SOL    HW229528   7.811   3.550   2.940
42566SOL     OW29529  10.664   4.429   9.387
42566SOL    HW129530  10.672   4.376   9.466
42566SOL    HW229531  10.682   4.367   9.315
42567SOL     OW29532   2.152  13.533   2.234
42567SOL    HW129533   2.105  13.490   2.163
42567SOL    HW229534   2.238  13.490   2.236
42568SOL     OW29535   6.030  10.642  11.075
42568SOL    HW129536   5.974  10.715  11.100
42568SOL    HW229537   5.970  10.568  11.066
42569SOL     OW29538   1.982   6.831  11.442
42569SOL    HW129539   2.035   6.768  11.393
42569SOL    HW229540   1.953   6.783  11.519
42570SOL     OW29541   0.143   8.070   9.488
42570SOL    HW129542   0.228   8.058   9.531
42570SOL    HW229543   0.081   8.022   9.543
42571SOL     OW29544  14.525  13.118  10.786
42571SOL    HW129545  14.468  13.054  10.743
42571SOL    HW229546  14.469  13.161  10.850
42572SOL     OW29547  12.750  12.384   6.068
42572SOL    HW129548  12.697  12.327   6.012
42572SOL    HW229549  12.741  12.346   6.156
42573SOL     OW29550   9.422   0.599  10.717
42573SOL    HW129551   9.363   0.618  10.644
42573SOL    HW229552   9.409   0.505  10.734
42574SOL     OW29553   5.920   1.617  10.116
42574SOL    HW129554   5.968   1.535  10.120
42574SOL    HW229555   5.834   1.597  10.154
42575SOL     OW29556  11.087  10.986   5.915
42575SOL    HW129557  11.080  10.926   5.841
42575SOL    HW229558  11.180  11.007   5.921
42576SOL     OW29559   9.283  14.399   7.148
42576SOL    HW129560   9.231  14.403   7.068
42576SOL    HW229561   9.373  14.389   7.117
42577SOL     OW29562   5.867   3.653   0.629
42577SOL    HW129563   5.772   3.663   0.616
42577SOL    HW229564   5.899   3.620   0.545
42578SOL     OW29565   8.184   2.619   6.788
42578SOL    HW129566   8.198   2.556   6.859
42578SOL    HW229567   8.098   2.595   6.752
42579SOL     OW29568   2.792  13.441  12.304
42579SOL    HW129569   2.867  13.391  12.335
42579SOL    HW229570   2.827  13.527  12.283
42580SOL     OW29571   7.706   6.728   3.872
42580SOL    HW129572   7.744   6.752   3.788
42580SOL    HW229573   7.780   6.727   3.932
42581SOL     OW29574   6.878  13.084   8.497
42581SOL    HW129575   6.913  13.030   8.568
42581SOL    HW229576   6.784  13.092   8.518
42582SOL     OW29577   4.265  11.379   3.152
42582SOL    HW129578   4.314  11.336   3.082
42582SOL    HW229579   4.332  11.405   3.216
42583SOL     OW29580   3.557  13.525  11.007
42583SOL    HW129581   3.627  13.506  10.945
42583SOL    HW229582   3.502  13.447  11.005
42584SOL     OW29583   5.823  12.360   3.789
42584SOL    HW129584   5.863  12.446   3.776
42584SOL    HW229585   5.781  12.365   3.875
42585SOL     OW29586   5.210   7.230   5.791
42585SOL    HW129587   5.295   7.248   5.750
42585SOL    HW229588   5.175   7.316   5.813
42586SOL     OW29589   0.375   9.359   0.343
42586SOL    HW129590   0.436   9.424   0.309
42586SOL    HW229591   0.412   9.275   0.315
42587SOL     OW29592  12.815   3.530   0.001
42587SOL    HW129593  12.790   3.469   0.070
42587SOL    HW229594  12.838   3.611   0.047
42588SOL     OW29595   2.916  13.549  10.605
42588SOL    HW129596   2.968  13.502  10.540
42588SOL    HW229597   2.922  13.496  10.684
42589SOL     OW29598   9.764   9.841   5.927
42589SOL    HW129599   9.775   9.872   5.836
42589SOL    HW229600   9.709   9.763   5.919
42590SOL     OW29601   6.465   9.794  11.161
42590SOL    HW129602   6.417   9.712  11.173
42590SOL    HW229603   6.546   9.768  11.116
42591SOL     OW29604   3.278   8.242   1.730
42591SOL    HW129605   3.278   8.153   1.764
42591SOL    HW229606   3.317   8.294   1.800
42592SOL     OW29607   3.673   9.314   9.966
42592SOL    HW129608   3.604   9.256   9.999
42592SOL    HW229609   3.701   9.363  10.043
42593SOL     OW29610   1.718  10.517  14.790
42593SOL    HW129611   1.660  10.511  14.714
42593SOL    HW229612   1.684  10.590  14.841
42594SOL     OW29613   5.244   9.815  12.728
42594SOL    HW129614   5.212   9.724  12.724
42594SOL    HW229615   5.213   9.855  12.647
42595SOL     OW29616   0.533   2.034   6.025
42595SOL    HW129617   0.525   2.034   5.930
42595SOL    HW229618   0.443   2.047   6.056
42596SOL     OW29619  14.610   5.612   9.816
42596SOL    HW129620  14.673   5.571   9.757
42596SOL    HW229621  14.529   5.617   9.765
42597SOL     OW29622  14.601   0.614  14.834
42597SOL    HW129623  14.677   0.628  14.777
42597SOL    HW229624  14.620   0.666   0.036
42598SOL     OW29625   7.001   7.236  14.329
42598SOL    HW129626   6.982   7.236  14.423
42598SOL    HW229627   7.006   7.143  14.305
42599SOL     OW29628  11.929  11.013   0.368
42599SOL    HW129629  11.966  11.055   0.291
42599SOL    HW229630  11.991  10.943   0.390
42600SOL     OW29631   1.110  12.333   9.922
42600SOL    HW129632   1.016  12.345   9.912
42600SOL    HW229633   1.126  12.341  10.016
42601SOL     OW29634  11.624   0.225  14.288
42601SOL    HW129635  11.621   0.235  14.192
42601SOL    HW229636  11.580   0.303  14.321
42602SOL     OW29637   4.003  10.878   8.570
42602SOL    HW129638   3.910  10.856   8.579
42602SOL    HW229639   4.044  10.844   8.650
42603SOL     OW29640   6.720   2.008   6.115
42603SOL    HW129641   6.639   1.957   6.105
42603SOL    HW229642   6.741   2.000   6.208
42604SOL     OW29643  13.891  14.860   1.673
42604SOL    HW129644  13.910   0.058   1.731
42604SOL    HW229645  13.947  14.874   1.597
42605SOL     OW29646   4.710   9.578   7.316
42605SOL    HW129647   4.730   9.664   7.280
42605SOL    HW229648   4.794   9.545   7.348
42606SOL     OW29649   9.936   2.059  14.021
42606SOL    HW129650   9.962   2.002  14.094
42606SOL    HW229651  10.015   2.068  13.967
42607SOL     OW29652   9.200  11.389   5.068
42607SOL    HW129653   9.294  11.405   5.074
42607SOL    HW229654   9.162  11.445   5.135
42608SOL     OW29655   1.271  11.986   6.472
42608SOL    HW129656   1.294  12.079   6.476
42608SOL    HW229657   1.293  11.960   6.382
42609SOL     OW29658   9.615   4.294  10.828
42609SOL    HW129659   9.611   4.330  10.739
42609SOL    HW229660   9.709   4.280  10.844
42610SOL     OW29661  11.363   6.264  12.544
42610SOL    HW129662  11.394   6.191  12.489
42610SOL    HW229663  11.309   6.316  12.484
42611SOL     OW29664   0.254   7.625   1.996
42611SOL    HW129665   0.171   7.614   1.949
42611SOL    HW229666   0.276   7.537   2.026
42612SOL     OW29667   3.350   4.401   4.498
42612SOL    HW129668   3.284   4.406   4.566
42612SOL    HW229669   3.322   4.466   4.433
42613SOL     OW29670  13.669   8.525   5.851
42613SOL    HW129671  13.607   8.463   5.814
42613SOL    HW229672  13.674   8.596   5.786
42614SOL     OW29673   2.880   6.643  12.057
42614SOL    HW129674   2.820   6.588  12.006
42614SOL    HW229675   2.919   6.583  12.120
42615SOL     OW29676  13.175  10.887   0.782
42615SOL    HW129677  13.192  10.968   0.829
42615SOL    HW229678  13.080  10.878   0.782
42616SOL     OW29679   6.988   6.486   9.680
42616SOL    HW129680   7.069   6.528   9.651
42616SOL    HW229681   6.939   6.557   9.723
42617SOL     OW29682   1.321   8.669  14.851
42617SOL    HW129683   1.389   8.684   0.040
42617SOL    HW229684   1.355   8.709  14.771
42618SOL     OW29685   5.457   3.429  13.534
42618SOL    HW129686   5.387   3.366  13.549
42618SOL    HW229687   5.486   3.413  13.444
42619SOL     OW29688   7.883  10.553   7.427
42619SOL    HW129689   7.878  10.530   7.520
42619SOL    HW229690   7.797  10.588   7.406
42620SOL     OW29691   4.943   6.196   3.597
42620SOL    HW129692   4.877   6.194   3.528
42620SOL    HW229693   4.969   6.105   3.608
42621SOL     OW29694   1.145   6.798   1.087
42621SOL    HW129695   1.232   6.833   1.107
42621SOL    HW229696   1.130   6.823   0.996
42622SOL     OW29697  13.184   1.689  11.964
42622SOL    HW129698  13.101   1.644  11.946
42622SOL    HW229699  13.158   1.778  11.987
42623SOL     OW29700   0.915  11.326  13.616
42623SOL    HW129701   0.926  11.413  13.578
42623SOL    HW229702   0.838  11.334  13.672
42624SOL     OW29703   4.034  13.810  14.538
42624SOL    HW129704   4.063  13.798  14.628
42624SOL    HW229705   4.104  13.860  14.496
42625SOL     OW29706   9.453   3.740   8.316
42625SOL    HW129707   9.414   3.798   8.381
42625SOL    HW229708   9.540   3.720   8.351
42626SOL     OW29709   7.838  12.410   1.368
42626SOL    HW129710   7.833  12.405   1.272
42626SOL    HW229711   7.931  12.402   1.387
42627SOL     OW29712   5.491   3.311   5.298
42627SOL    HW129713   5.455   3.286   5.212
42627SOL    HW229714   5.585   3.323   5.282
42628SOL     OW29715   8.700  12.167  14.016
42628SOL    HW129716   8.765  12.219  14.065
42628SOL    HW229717   8.730  12.170  13.925
42629SOL     OW29718  10.655  10.145   4.462
42629SOL    HW129719  10.569  10.155   4.502
42629SOL    HW229720  10.708  10.216   4.498
42630SOL     OW29721  12.032  14.383   9.906
42630SOL    HW129722  11.942  14.412   9.888
42630SOL    HW229723  12.073  14.457   9.950
42631SOL     OW29724  12.156   9.236   1.927
42631SOL    HW129725  12.159   9.330   1.911
42631SOL    HW229726  12.100   9.226   2.004
42632SOL     OW29727  13.237  11.142   8.578
42632SOL    HW129728  13.247  11.047   8.590
42632SOL    HW229729  13.272  11.180   8.658
42633SOL     OW29730  11.593   2.378   1.677
42633SOL    HW129731  11.663   2.322   1.643
42633SOL    HW229732  11.516   2.355   1.623
42634SOL     OW29733   2.834   2.454  12.820
42634SOL    HW129734   2.768   2.506  12.864
42634SOL    HW229735   2.801   2.364  12.824
42635SOL     OW29736   3.834  12.905   5.600
42635SOL    HW129737   3.791  12.844   5.660
42635SOL    HW229738   3.856  12.981   5.654
42636SOL     OW29739   0.986   5.725   6.197
42636SOL    HW129740   1.006   5.644   6.150
42636SOL    HW229741   1.067   5.776   6.194
42637SOL     OW29742   7.233   7.612   3.392
42637SOL    HW129743   7.175   7.659   3.453
42637SOL    HW229744   7.208   7.646   3.306
42638SOL     OW29745   3.803   0.533   3.258
42638SOL    HW129746   3.863   0.490   3.319
42638SOL    HW229747   3.729   0.473   3.251
42639SOL     OW29748   2.144   0.632  11.941
42639SOL    HW129749   2.080   0.560  11.940
42639SOL    HW229750   2.100   0.702  11.989
42640SOL     OW29751   9.051   3.000  10.529
42640SOL    HW129752   9.097   2.950  10.462
42640SOL    HW229753   9.035   2.937  10.600
42641SOL     OW29754   3.257   5.935   9.983
42641SOL    HW129755   3.216   5.858   9.945
42641SOL    HW229756   3.289   5.906  10.068
42642SOL     OW29757   8.022   4.789   6.549
42642SOL    HW129758   7.938   4.831   6.534
42642SOL    HW229759   8.085   4.861   6.555
42643SOL     OW29760   0.933   5.687   9.832
42643SOL    HW129761   1.011   5.708   9.781
42643SOL    HW229762   0.901   5.771   9.864
42644SOL     OW29763  14.352   8.279  12.210
42644SOL    HW129764  14.378   8.192  12.241
42644SOL    HW229765  14.372   8.337  12.283
42645SOL     OW29766   8.432   6.896   1.578
42645SOL    HW129767   8.353   6.903   1.631
42645SOL    HW229768   8.463   6.986   1.568
42646SOL     OW29769   4.951   4.025   1.058
42646SOL    HW129770   4.872   4.003   1.010
42646SOL    HW229771   4.955   3.961   1.129
42647SOL     OW29772  14.587   0.484  12.802
42647SOL    HW129773  14.529   0.546  12.846
42647SOL    HW229774  14.651   0.539  12.757
42648SOL     OW29775   4.783   9.292  14.451
42648SOL    HW129776   4.753   9.316  14.363
42648SOL    HW229777   4.879   9.285  14.442
42649SOL     OW29778   2.633   3.572  13.569
42649SOL    HW129779   2.660   3.577  13.660
42649SOL    HW229780   2.683   3.642  13.526
42650SOL     OW29781   2.222   5.061   5.915
42650SOL    HW129782   2.185   4.982   5.955
42650SOL    HW229783   2.240   5.035   5.825
42651SOL     OW29784   9.517   5.311   4.450
42651SOL    HW129785   9.579   5.267   4.508
42651SOL    HW229786   9.431   5.286   4.484
42652SOL     OW29787   0.835   6.310  10.455
42652SOL    HW129788   0.885   6.330  10.375
42652SOL    HW229789   0.840   6.390  10.507
42653SOL     OW29790   6.268  10.223   7.453
42653SOL    HW129791   6.210  10.236   7.528
42653SOL    HW229792   6.335  10.163   7.484
42654SOL     OW29793  12.054   9.543   5.651
42654SOL    HW129794  12.056   9.455   5.614
42654SOL    HW229795  12.015   9.533   5.738
42655SOL     OW29796   2.142   1.194  13.153
42655SOL    HW129797   2.054   1.174  13.185
42655SOL    HW229798   2.197   1.189  13.231
42656SOL     OW29799   7.527   0.603   5.732
42656SOL    HW129800   7.431   0.602   5.733
42656SOL    HW229801   7.552   0.542   5.801
42657SOL     OW29802   0.577   5.048   9.239
42657SOL    HW129803   0.662   5.072   9.276
42657SOL    HW229804   0.548   4.972   9.289
42658SOL     OW29805   4.514   5.232   9.131
42658SOL    HW129806   4.559   5.149   9.150
42658SOL    HW229807   4.549   5.260   9.047
42659SOL     OW29808  13.757   0.653   2.785
42659SOL    HW129809  13.847   0.657   2.818
42659SOL    HW229810  13.755   0.713   2.711
42660SOL     OW29811  11.921   0.042   4.974
42660SOL    HW129812  12.010   0.007   4.980
42660SOL    HW229813  11.919   0.085   4.888
42661SOL     OW29814   5.833  13.304   5.538
42661SOL    HW129815   5.770  13.310   5.466
42661SOL    HW229816   5.910  13.351   5.505
42662SOL     OW29817   4.459   7.559   1.693
42662SOL    HW129818   4.418   7.588   1.612
42662SOL    HW229819   4.532   7.620   1.705
42663SOL     OW29820  12.269  11.040   9.467
42663SOL    HW129821  12.217  11.004   9.539
42663SOL    HW229822  12.346  10.983   9.463
42664SOL     OW29823  14.003   0.799   1.943
42664SOL    HW129824  13.987   0.752   2.024
42664SOL    HW229825  13.916   0.814   1.906
42665SOL     OW29826   2.132   4.495   2.935
42665SOL    HW129827   2.224   4.473   2.921
42665SOL    HW229828   2.084   4.418   2.903
42666SOL     OW29829   3.864  12.435   9.926
42666SOL    HW129830   3.818  12.517   9.909
42666SOL    HW229831   3.914  12.451  10.006
42667SOL     OW29832   0.778   3.623   6.755
42667SOL    HW129833   0.709   3.687   6.771
42667SOL    HW229834   0.737   3.556   6.700
42668SOL     OW29835  12.983   9.631   5.536
42668SOL    HW129836  13.010   9.540   5.524
42668SOL    HW229837  12.888   9.626   5.549
42669SOL     OW29838   9.690  12.326  14.210
42669SOL    HW129839   9.735  12.393  14.158
42669SOL    HW229840   9.759  12.265  14.235
42670SOL     OW29841   3.988   9.565  11.836
42670SOL    HW129842   4.076   9.559  11.875
42670SOL    HW229843   3.932   9.595  11.908
42671SOL     OW29844   5.864   2.146  12.362
42671SOL    HW129845   5.837   2.238  12.354
42671SOL    HW229846   5.783   2.097  12.365
42672SOL     OW29847   3.008   5.799  10.719
42672SOL    HW129848   2.930   5.826  10.670
42672SOL    HW229849   3.079   5.810  10.656
42673SOL     OW29850   8.623   0.057  12.972
42673SOL    HW129851   8.602   0.149  12.990
42673SOL    HW229852   8.659   0.057  12.884
42674SOL     OW29853  11.507   2.034   8.121
42674SOL    HW129854  11.477   2.078   8.041
42674SOL    HW229855  11.522   1.944   8.094
42675SOL     OW29856   5.652   8.273   7.713
42675SOL    HW129857   5.691   8.228   7.788
42675SOL    HW229858   5.625   8.203   7.654
42676SOL     OW29859  13.251  14.333   7.162
42676SOL    HW129860  13.210  14.247   7.149
42676SOL    HW229861  13.245  14.376   7.077
42677SOL     OW29862   2.667   7.200  14.088
42677SOL    HW129863   2.608   7.275  14.078
42677SOL    HW229864   2.635   7.155  14.166
42678SOL     OW29865   2.397   2.370   7.145
42678SOL    HW129866   2.423   2.404   7.059
42678SOL    HW229867   2.361   2.446   7.191
42679SOL     OW29868  10.173   8.233  12.111
42679SOL    HW129869  10.096   8.275  12.072
42679SOL    HW229870  10.237   8.231  12.040
42680SOL     OW29871   3.179  14.320   4.997
42680SOL    HW129872   3.251  14.329   4.934
42680SOL    HW229873   3.208  14.367   5.075
42681SOL     OW29874   6.843   5.105   2.685
42681SOL    HW129875   6.865   5.198   2.677
42681SOL    HW229876   6.869   5.067   2.601
42682SOL     OW29877  12.420   9.838   9.607
42682SOL    HW129878  12.391   9.929   9.605
42682SOL    HW229879  12.516   9.844   9.616
42683SOL     OW29880   4.738   5.796   6.433
42683SOL    HW129881   4.745   5.865   6.368
42683SOL    HW229882   4.826   5.761   6.442
42684SOL     OW29883  12.933  10.963  11.576
42684SOL    HW129884  12.991  11.020  11.627
42684SOL    HW229885  12.980  10.879  11.572
42685SOL     OW29886  11.553   2.673   7.991
42685SOL    HW129887  11.595   2.712   8.067
42685SOL    HW229888  11.602   2.708   7.916
42686SOL     OW29889  12.221  10.456   3.501
42686SOL    HW129890  12.221  10.378   3.557
42686SOL    HW229891  12.162  10.433   3.429
42687SOL     OW29892   4.162   9.373  11.448
42687SOL    HW129893   4.227   9.338  11.509
42687SOL    HW229894   4.201   9.454  11.414
42688SOL     OW29895  13.076  14.358  11.563
42688SOL    HW129896  13.143  14.349  11.631
42688SOL    HW229897  12.997  14.383  11.611
42689SOL     OW29898   9.424   0.352   0.231
42689SOL    HW129899   9.355   0.399   0.185
42689SOL    HW229900   9.502   0.406   0.217
42690SOL     OW29901  13.550   4.024   4.297
42690SOL    HW129902  13.604   4.099   4.325
42690SOL    HW229903  13.578   4.007   4.207
42691SOL     OW29904  14.753  11.205  14.450
42691SOL    HW129905  14.848  11.201  14.457
42691SOL    HW229906  14.721  11.186  14.538
42692SOL     OW29907   9.712  12.998   7.633
42692SOL    HW129908   9.777  12.940   7.594
42692SOL    HW229909   9.762  13.054   7.692
42693SOL     OW29910  13.757   9.911   1.245
42693SOL    HW129911  13.688   9.884   1.185
42693SOL    HW229912  13.791   9.993   1.207
42694SOL     OW29913   9.994   7.959  10.723
42694SOL    HW129914   9.946   7.883  10.691
42694SOL    HW229915   9.951   8.034  10.681
42695SOL     OW29916  11.025  13.954  13.198
42695SOL    HW129917  11.057  13.951  13.288
42695SOL    HW229918  11.057  13.874  13.159
42696SOL     OW29919   9.482  11.045  10.268
42696SOL    HW129920   9.484  11.056  10.363
42696SOL    HW229921   9.414  11.106  10.239
42697SOL     OW29922   3.925  10.649   1.861
42697SOL    HW129923   3.885  10.733   1.839
42697SOL    HW229924   3.972  10.667   1.943
42698SOL     OW29925   4.072   8.250   0.196
42698SOL    HW129926   4.150   8.293   0.232
42698SOL    HW229927   4.081   8.158   0.222
42699SOL     OW29928   9.824   8.446   4.474
42699SOL    HW129929   9.780   8.450   4.390
42699SOL    HW229930   9.754   8.453   4.539
42700SOL     OW29931   7.797   8.804   5.600
42700SOL    HW129932   7.791   8.837   5.690
42700SOL    HW229933   7.745   8.724   5.600
42701SOL     OW29934   9.690   8.339  12.462
42701SOL    HW129935   9.627   8.291  12.408
42701SOL    HW229936   9.757   8.274  12.483
42702SOL     OW29937   5.493  14.746   5.401
42702SOL    HW129938   5.427  14.793   5.351
42702SOL    HW229939   5.530  14.683   5.339
42703SOL     OW29940  10.784   7.694  13.858
42703SOL    HW129941  10.735   7.619  13.824
42703SOL    HW229942  10.807   7.745  13.780
42704SOL     OW29943   2.184  12.091   7.334
42704SOL    HW129944   2.241  12.106   7.409
42704SOL    HW229945   2.191  11.997   7.317
42705SOL     OW29946  11.981  12.213  13.823
42705SOL    HW129947  12.040  12.144  13.794
42705SOL    HW229948  11.893  12.174  13.815
42706SOL     OW29949   8.733  14.162   2.455
42706SOL    HW129950   8.660  14.156   2.394
42706SOL    HW229951   8.756  14.255   2.456
42707SOL     OW29952  12.784  11.210  11.522
42707SOL    HW129953  12.825  11.281  11.472
42707SOL    HW229954  12.823  11.130  11.487
42708SOL     OW29955   7.016   7.603  14.716
42708SOL    HW129956   6.933   7.565  14.687
42708SOL    HW229957   7.080   7.569  14.654
42709SOL     OW29958   4.292   7.571   8.409
42709SOL    HW129959   4.321   7.635   8.344
42709SOL    HW229960   4.325   7.605   8.492
42710SOL     OW29961   0.503   7.602  12.893
42710SOL    HW129962   0.586   7.560  12.918
42710SOL    HW229963   0.436   7.540  12.918
42711SOL     OW29964  11.969   5.184   1.384
42711SOL    HW129965  12.026   5.203   1.309
42711SOL    HW229966  11.939   5.095   1.369
42712SOL     OW29967   2.963   7.144  10.761
42712SOL    HW129968   3.014   7.067  10.787
42712SOL    HW229969   2.962   7.200  10.838
42713SOL     OW29970  13.599   3.557   3.034
42713SOL    HW129971  13.607   3.653   3.034
42713SOL    HW229972  13.508   3.541   3.010
42714SOL     OW29973  13.266   5.853   6.886
42714SOL    HW129974  13.322   5.776   6.877
42714SOL    HW229975  13.181   5.818   6.913
42715SOL     OW29976  13.987   9.342   1.692
42715SOL    HW129977  14.038   9.404   1.639
42715SOL    HW229978  13.932   9.397   1.747
42716SOL     OW29979  14.653   9.297  14.559
42716SOL    HW129980  14.569   9.324  14.596
42716SOL    HW229981  14.663   9.206  14.587
42717SOL     OW29982   5.463  12.945  14.022
42717SOL    HW129983   5.528  12.907  14.081
42717SOL    HW229984   5.448  13.033  14.056
42718SOL     OW29985   1.950   9.640   3.082
42718SOL    HW129986   1.962   9.611   3.173
42718SOL    HW229987   2.037   9.667   3.054
42719SOL     OW29988  14.699  11.911  10.884
42719SOL    HW129989  14.687  11.818  10.902
42719SOL    HW229990  14.621  11.953  10.920
42720SOL     OW29991  14.517  14.491  11.126
42720SOL    HW129992  14.608  14.521  11.132
42720SOL    HW229993  14.497  14.492  11.033
42721SOL     OW29994   6.735   7.868   5.651
42721SOL    HW129995   6.667   7.821   5.699
42721SOL    HW229996   6.715   7.852   5.559
42722SOL     OW29997  13.633   3.378   3.233
42722SOL    HW129998  13.549   3.393   3.275
42722SOL    HW229999  13.645   3.453   3.175
42723SOL     OW30000   0.959  13.379  14.625
42723SOL    HW130001   0.922  13.436  14.557
42723SOL    HW230002   1.023  13.435  14.671
42724SOL     OW30003   5.188   9.800   4.810
42724SOL    HW130004   5.099   9.767   4.824
42724SOL    HW230005   5.242   9.722   4.807
42725SOL     OW30006  10.554   0.273   2.085
42725SOL    HW130007  10.582   0.290   2.175
42725SOL    HW230008  10.469   0.317   2.078
42726SOL     OW30009   0.705   9.197   7.153
42726SOL    HW130010   0.625   9.207   7.205
42726SOL    HW230011   0.675   9.179   7.064
42727SOL     OW30012  10.769   5.571   4.871
42727SOL    HW130013  10.760   5.548   4.779
42727SOL    HW230014  10.731   5.658   4.878
42728SOL     OW30015  14.733  11.705  12.015
42728SOL    HW130016  14.819  11.713  12.057
42728SOL    HW230017  14.691  11.633  12.061
42729SOL     OW30018   5.544  10.245   8.775
42729SOL    HW130019   5.450  10.226   8.773
42729SOL    HW230020   5.579  10.204   8.696
42730SOL     OW30021   1.136   4.555  11.415
42730SOL    HW130022   1.046   4.556  11.448
42730SOL    HW230023   1.186   4.509  11.482
42731SOL     OW30024   2.072   1.593   6.600
42731SOL    HW130025   2.146   1.585   6.660
42731SOL    HW230026   2.006   1.642   6.649
42732SOL     OW30027   0.850   0.316  10.213
42732SOL    HW130028   0.758   0.291  10.207
42732SOL    HW230029   0.898   0.241  10.179
42733SOL     OW30030   0.241  11.483   3.446
42733SOL    HW130031   0.291  11.548   3.493
42733SOL    HW230032   0.169  11.460   3.505
42734SOL     OW30033   1.200   9.785   7.161
42734SOL    HW130034   1.211   9.704   7.112
42734SOL    HW230035   1.108   9.808   7.148
42735SOL     OW30036   1.377   4.200   2.697
42735SOL    HW130037   1.390   4.111   2.732
42735SOL    HW230038   1.373   4.188   2.602
42736SOL     OW30039  11.188   3.798  11.623
42736SOL    HW130040  11.157   3.867  11.682
42736SOL    HW230041  11.240   3.740  11.679
42737SOL     OW30042  11.120   1.261   6.465
42737SOL    HW130043  11.040   1.240   6.514
42737SOL    HW230044  11.089   1.286   6.378
42738SOL     OW30045   8.032  12.948  13.448
42738SOL    HW130046   7.955  13.004  13.460
42738SOL    HW230047   7.997  12.865  13.416
42739SOL     OW30048   3.477   7.466   9.291
42739SOL    HW130049   3.531   7.509   9.357
42739SOL    HW230050   3.540   7.420   9.235
42740SOL     OW30051   5.278   0.135  13.096
42740SOL    HW130052   5.197   0.161  13.141
42740SOL    HW230053   5.295   0.046  13.128
42741SOL     OW30054  12.924   4.749   3.824
42741SOL    HW130055  12.849   4.692   3.841
42741SOL    HW230056  12.909   4.781   3.735
42742SOL     OW30057   7.580  11.900   6.184
42742SOL    HW130058   7.543  11.847   6.113
42742SOL    HW230059   7.674  11.895   6.171
42743SOL     OW30060   0.984   9.958   9.970
42743SOL    HW130061   1.008   9.866   9.957
42743SOL    HW230062   0.988   9.970  10.065
42744SOL     OW30063  13.983   7.235   5.849
42744SOL    HW130064  13.896   7.241   5.887
42744SOL    HW230065  13.978   7.159   5.791
42745SOL     OW30066  10.785   1.189   9.595
42745SOL    HW130067  10.738   1.110   9.568
42745SOL    HW230068  10.762   1.254   9.529
42746SOL     OW30069   2.046  10.504   7.257
42746SOL    HW130070   1.957  10.514   7.223
42746SOL    HW230071   2.100  10.556   7.197
42747SOL     OW30072   3.381   1.913   3.661
42747SOL    HW130073   3.320   1.849   3.699
42747SOL    HW230074   3.338   1.943   3.581
42748SOL     OW30075   0.775   7.806  12.495
42748SOL    HW130076   0.809   7.888  12.529
42748SOL    HW230077   0.680   7.812  12.508
42749SOL     OW30078  10.990   9.900  14.337
42749SOL    HW130079  11.066   9.850  14.309
42749SOL    HW230080  10.944   9.923  14.256
42750SOL     OW30081  12.417   7.373  13.313
42750SOL    HW130082  12.324   7.358  13.295
42750SOL    HW230083  12.418   7.413  13.400
42751SOL     OW30084   4.697  14.252   5.567
42751SOL    HW130085   4.753  14.269   5.491
42751SOL    HW230086   4.717  14.323   5.628
42752SOL     OW30087  13.900   5.691   8.247
42752SOL    HW130088  13.967   5.744   8.204
42752SOL    HW230089  13.870   5.746   8.320
42753SOL     OW30090   3.755   3.666   3.345
42753SOL    HW130091   3.816   3.620   3.288
42753SOL    HW230092   3.808   3.690   3.421
42754SOL     OW30093   2.522   3.628   0.770
42754SOL    HW130094   2.610   3.666   0.764
42754SOL    HW230095   2.518   3.565   0.698
42755SOL     OW30096   5.558   6.190  12.356
42755SOL    HW130097   5.578   6.096  12.355
42755SOL    HW230098   5.583   6.220  12.269
42756SOL     OW30099   6.364  13.719   0.894
42756SOL    HW130100   6.326  13.764   0.818
42756SOL    HW230101   6.324  13.761   0.969
42757SOL     OW30102   0.798   5.184   0.040
42757SOL    HW130103   0.770   5.143   0.122
42757SOL    HW230104   0.721   5.233   0.010
42758SOL     OW30105   0.592   0.288  10.180
42758SOL    HW130106   0.520   0.332  10.135
42758SOL    HW230107   0.578   0.195  10.161
42759SOL     OW30108   7.384  11.286   8.089
42759SOL    HW130109   7.441  11.291   8.012
42759SOL    HW230110   7.296  11.280   8.052
42760SOL     OW30111  11.321  13.800   9.521
42760SOL    HW130112  11.399  13.853   9.538
42760SOL    HW230113  11.327  13.728   9.584
42761SOL     OW30114  11.137   1.707  12.514
42761SOL    HW130115  11.175   1.791  12.538
42761SOL    HW230116  11.103   1.671  12.597
42762SOL     OW30117   7.310   5.867   6.434
42762SOL    HW130118   7.310   5.885   6.340
42762SOL    HW230119   7.283   5.775   6.441
42763SOL     OW30120   8.619   7.993   7.824
42763SOL    HW130121   8.608   7.910   7.778
42763SOL    HW230122   8.570   8.056   7.772
42764SOL     OW30123  10.104   5.755   0.320
42764SOL    HW130124  10.194   5.722   0.328
42764SOL    HW230125  10.097   5.781   0.228
42765SOL     OW30126   8.313   6.969  13.784
42765SOL    HW130127   8.372   6.945  13.855
42765SOL    HW230128   8.278   6.885  13.753
42766SOL     OW30129   6.056   7.142   1.697
42766SOL    HW130130   6.022   7.100   1.618
42766SOL    HW230131   5.982   7.193   1.731
42767SOL     OW30132  10.935   3.069   7.896
42767SOL    HW130133  10.898   3.031   7.816
42767SOL    HW230134  10.982   2.997   7.937
42768SOL     OW30135   7.704   9.571   2.369
42768SOL    HW130136   7.770   9.547   2.303
42768SOL    HW230137   7.649   9.493   2.376
42769SOL     OW30138   1.937   1.264   3.370
42769SOL    HW130139   1.861   1.321   3.359
42769SOL    HW230140   1.903   1.188   3.417
42770SOL     OW30141   3.664  14.331   4.545
42770SOL    HW130142   3.647  14.254   4.600
42770SOL    HW230143   3.713  14.297   4.471
42771SOL     OW30144  12.279  13.106   5.167
42771SOL    HW130145  12.329  13.141   5.094
42771SOL    HW230146  12.343  13.059   5.221
42772SOL     OW30147  11.643  13.367   4.853
42772SOL    HW130148  11.627  13.353   4.760
42772SOL    HW230149  11.725  13.320   4.871
42773SOL     OW30150   4.480   6.293   1.151
42773SOL    HW130151   4.574   6.287   1.134
42773SOL    HW230152   4.441   6.313   1.067
42774SOL     OW30153  14.049  10.066   4.824
42774SOL    HW130154  14.070  10.110   4.741
42774SOL    HW230155  14.060  10.133   4.891
42775SOL     OW30156  12.619  14.595   9.376
42775SOL    HW130157  12.675  14.529   9.335
42775SOL    HW230158  12.643  14.592   9.468
42776SOL     OW30159  13.271   0.012   0.639
42776SOL    HW130160  13.357   0.039   0.607
42776SOL    HW230161  13.262  14.796   0.612
42777SOL     OW30162   4.313   0.822   9.204
42777SOL    HW130163   4.224   0.839   9.233
42777SOL    HW230164   4.306   0.808   9.110
42778SOL     OW30165   4.899   5.308   3.741
42778SOL    HW130166   4.896   5.371   3.813
42778SOL    HW230167   4.909   5.223   3.783
42779SOL     OW30168   0.526   2.363   5.880
42779SOL    HW130169   0.445   2.313   5.865
42779SOL    HW230170   0.520   2.390   5.972
42780SOL     OW30171   4.634  13.056  10.149
42780SOL    HW130172   4.684  12.989  10.101
42780SOL    HW230173   4.551  13.062  10.102
42781SOL     OW30174   3.455   4.104   6.378
42781SOL    HW130175   3.518   4.060   6.321
42781SOL    HW230176   3.372   4.098   6.330
42782SOL     OW30177  10.593   0.446   5.874
42782SOL    HW130178  10.533   0.518   5.853
42782SOL    HW230179  10.559   0.409   5.955
42783SOL     OW30180   6.459   4.654   9.210
42783SOL    HW130181   6.499   4.569   9.226
42783SOL    HW230182   6.520   4.698   9.151
42784SOL     OW30183   0.075   3.227   8.583
42784SOL    HW130184   0.001   3.262   8.533
42784SOL    HW230185   0.125   3.304   8.609
42785SOL     OW30186   5.501  14.521   1.246
42785SOL    HW130187   5.595  14.528   1.260
42785SOL    HW230188   5.462  14.569   1.319
42786SOL     OW30189   7.197   9.976   9.164
42786SOL    HW130190   7.168   9.885   9.170
42786SOL    HW230191   7.214   9.989   9.070
42787SOL     OW30192   8.581   4.124   2.104
42787SOL    HW130193   8.487   4.107   2.104
42787SOL    HW230194   8.595   4.186   2.176
42788SOL     OW30195   8.873  14.145   5.585
42788SOL    HW130196   8.894  14.238   5.593
42788SOL    HW230197   8.944  14.109   5.532
42789SOL     OW30198   0.264   7.748   3.299
42789SOL    HW130199   0.261   7.739   3.395
42789SOL    HW230200   0.178   7.720   3.270
42790SOL     OW30201  13.389   2.028   1.208
42790SOL    HW130202  13.318   2.087   1.182
42790SOL    HW230203  13.397   2.041   1.302
42791SOL     OW30204  11.517  11.410  11.588
42791SOL    HW130205  11.455  11.337  11.585
42791SOL    HW230206  11.574  11.396  11.512
42792SOL     OW30207   5.972   0.380  13.243
42792SOL    HW130208   6.037   0.346  13.304
42792SOL    HW230209   5.998   0.471  13.229
42793SOL     OW30210   2.391   7.206   5.495
42793SOL    HW130211   2.330   7.280   5.492
42793SOL    HW230212   2.356   7.143   5.432
42794SOL     OW30213   9.154   6.628   3.083
42794SOL    HW130214   9.173   6.707   3.034
42794SOL    HW230215   9.225   6.622   3.148
42795SOL     OW30216  13.260  14.848  11.583
42795SOL    HW130217  13.307   0.015  11.655
42795SOL    HW230218  13.189   0.034  11.561
42796SOL     OW30219  14.061  11.803  14.793
42796SOL    HW130220  14.077  11.885  14.745
42796SOL    HW230221  13.979  11.819  14.840
42797SOL     OW30222   1.652   6.206   0.029
42797SOL    HW130223   1.734   6.227   0.074
42797SOL    HW230224   1.679   6.162  14.825
42798SOL     OW30225  13.663  12.555  12.049
42798SOL    HW130226  13.573  12.522  12.057
42798SOL    HW230227  13.717  12.489  12.094
42799SOL     OW30228  11.953   9.583   4.103
42799SOL    HW130229  11.970   9.555   4.193
42799SOL    HW230230  12.023   9.542   4.051
42800SOL     OW30231   6.785  12.216   7.901
42800SOL    HW130232   6.868  12.257   7.927
42800SOL    HW230233   6.783  12.134   7.951
42801SOL     OW30234  13.673   7.536   3.030
42801SOL    HW130235  13.634   7.619   3.002
42801SOL    HW230236  13.630   7.470   2.976
42802SOL     OW30237   8.244   4.537   2.710
42802SOL    HW130238   8.329   4.494   2.699
42802SOL    HW230239   8.180   4.474   2.678
42803SOL     OW30240   9.091  13.954   5.921
42803SOL    HW130241   9.133  13.879   5.964
42803SOL    HW230242   8.998  13.932   5.918
42804SOL     OW30243  11.710   1.840   1.474
42804SOL    HW130244  11.660   1.781   1.530
42804SOL    HW230245  11.688   1.928   1.506
42805SOL     OW30246   2.197   3.635  11.373
42805SOL    HW130247   2.136   3.561  11.365
42805SOL    HW230248   2.168   3.697  11.307
42806SOL     OW30249  12.839  12.700   7.810
42806SOL    HW130250  12.930  12.709   7.781
42806SOL    HW230251  12.787  12.731   7.737
42807SOL     OW30252   1.073   5.394  10.154
42807SOL    HW130253   1.006   5.328  10.174
42807SOL    HW230254   1.023   5.475  10.140
42808SOL     OW30255   6.801  14.599   6.520
42808SOL    HW130256   6.858  14.534   6.479
42808SOL    HW230257   6.735  14.547   6.566
42809SOL     OW30258   1.204  10.510   5.065
42809SOL    HW130259   1.116  10.473   5.075
42809SOL    HW230260   1.246  10.456   4.998
42810SOL     OW30261  13.262   2.347  10.605
42810SOL    HW130262  13.324   2.300  10.660
42810SOL    HW230263  13.286   2.322  10.515
42811SOL     OW30264  12.191   8.048   6.782
42811SOL    HW130265  12.121   8.015   6.726
42811SOL    HW230266  12.257   8.081   6.720
42812SOL     OW30267   5.396   5.943   1.906
42812SOL    HW130268   5.415   5.859   1.947
42812SOL    HW230269   5.432   6.008   1.966
42813SOL     OW30270   5.394   8.793   0.068
42813SOL    HW130271   5.454   8.864   0.091
42813SOL    HW230272   5.424   8.764  14.858
42814SOL     OW30273   6.537  12.583   9.415
42814SOL    HW130274   6.609  12.633   9.451
42814SOL    HW230275   6.478  12.649   9.377
42815SOL     OW30276  14.588   0.323  11.687
42815SOL    HW130277  14.681   0.305  11.672
42815SOL    HW230278  14.549   0.238  11.706
42816SOL     OW30279  10.812  13.105   3.228
42816SOL    HW130280  10.902  13.073   3.219
42816SOL    HW230281  10.779  13.109   3.138
42817SOL     OW30282   3.108   1.178   0.531
42817SOL    HW130283   3.076   1.132   0.454
42817SOL    HW230284   3.192   1.136   0.551
42818SOL     OW30285   6.146   9.735   3.346
42818SOL    HW130286   6.237   9.723   3.375
42818SOL    HW230287   6.152   9.739   3.251
42819SOL     OW30288  12.356   5.972   3.309
42819SOL    HW130289  12.443   6.009   3.295
42819SOL    HW230290  12.352   5.954   3.403
42820SOL     OW30291   7.846   6.532   0.748
42820SOL    HW130292   7.877   6.519   0.658
42820SOL    HW230293   7.771   6.590   0.739
42821SOL     OW30294   0.682  14.328  10.576
42821SOL    HW130295   0.661  14.308  10.667
42821SOL    HW230296   0.769  14.368  10.580
42822SOL     OW30297  14.358   2.100   3.120
42822SOL    HW130298  14.335   2.047   3.196
42822SOL    HW230299  14.431   2.154   3.150
42823SOL     OW30300   6.272   8.948  14.602
42823SOL    HW130301   6.274   8.875  14.541
42823SOL    HW230302   6.179   8.969  14.611
42824SOL     OW30303   4.354  12.685   8.198
42824SOL    HW130304   4.365  12.780   8.192
42824SOL    HW230305   4.426  12.657   8.254
42825SOL     OW30306  14.440   3.601   8.893
42825SOL    HW130307  14.381   3.606   8.968
42825SOL    HW230308  14.517   3.555   8.926
42826SOL     OW30309   9.855   6.816  10.295
42826SOL    HW130310   9.936   6.798  10.248
42826SOL    HW230311   9.852   6.749  10.364
42827SOL     OW30312   5.636   0.976   1.234
42827SOL    HW130313   5.657   1.068   1.222
42827SOL    HW230314   5.634   0.964   1.329
42828SOL     OW30315  12.156   0.786  11.397
42828SOL    HW130316  12.172   0.773  11.490
42828SOL    HW230317  12.128   0.700  11.365
42829SOL     OW30318   1.174   7.276  12.500
42829SOL    HW130319   1.195   7.369  12.497
42829SOL    HW230320   1.137   7.257  12.414
42830SOL     OW30321  10.157   9.934  10.027
42830SOL    HW130322  10.096   9.903  10.094
42830SOL    HW230323  10.149  10.029  10.030
42831SOL     OW30324   2.562   9.261   2.679
42831SOL    HW130325   2.505   9.206   2.734
42831SOL    HW230326   2.641   9.272   2.732
42832SOL     OW30327   0.255   7.608   4.414
42832SOL    HW130328   0.195   7.541   4.448
42832SOL    HW230329   0.342   7.580   4.444
42833SOL     OW30330  11.455   2.692  11.865
42833SOL    HW130331  11.509   2.755  11.818
42833SOL    HW230332  11.431   2.627  11.799
42834SOL     OW30333   2.268   3.552   0.145
42834SOL    HW130334   2.343   3.565   0.087
42834SOL    HW230335   2.299   3.489   0.210
42835SOL     OW30336  12.111  13.967   6.253
42835SOL    HW130337  12.097  13.873   6.255
42835SOL    HW230338  12.177  13.980   6.185
42836SOL     OW30339  12.817   8.466  12.943
42836SOL    HW130340  12.756   8.433  12.877
42836SOL    HW230341  12.762   8.488  13.018
42837SOL     OW30342   7.444   2.109   8.369
42837SOL    HW130343   7.375   2.065   8.419
42837SOL    HW230344   7.479   2.041   8.312
42838SOL     OW30345   7.044  12.854   9.589
42838SOL    HW130346   7.001  12.844   9.674
42838SOL    HW230347   7.134  12.825   9.605
42839SOL     OW30348   7.361   0.737  11.624
42839SOL    HW130349   7.298   0.713  11.556
42839SOL    HW230350   7.447   0.719  11.585
42840SOL     OW30351   2.396   5.861   1.499
42840SOL    HW130352   2.330   5.875   1.431
42840SOL    HW230353   2.385   5.936   1.558
42841SOL     OW30354   1.949  12.023   6.654
42841SOL    HW130355   1.899  12.102   6.673
42841SOL    HW230356   1.926  11.962   6.724
42842SOL     OW30357   2.247  10.039   9.550
42842SOL    HW130358   2.337  10.009   9.556
42842SOL    HW230359   2.223  10.025   9.458
42843SOL     OW30360   2.150  10.814   0.104
42843SOL    HW130361   2.164  10.894   0.055
42843SOL    HW230362   2.220  10.814   0.170
42844SOL     OW30363   5.151  14.536   0.974
42844SOL    HW130364   5.240  14.570   0.968
42844SOL    HW230365   5.095  14.614   0.964
42845SOL     OW30366   5.837   9.563   1.497
42845SOL    HW130367   5.833   9.636   1.559
42845SOL    HW230368   5.920   9.519   1.517
42846SOL     OW30369  11.798   3.035   2.326
42846SOL    HW130370  11.861   2.970   2.358
42846SOL    HW230371  11.822   3.115   2.372
42847SOL     OW30372   5.948  13.646   3.060
42847SOL    HW130373   5.966  13.722   3.115
42847SOL    HW230374   5.870  13.671   3.010
42848SOL     OW30375  13.779   7.830   8.527
42848SOL    HW130376  13.854   7.810   8.582
42848SOL    HW230377  13.773   7.755   8.467
42849SOL     OW30378   3.309   7.803   7.048
42849SOL    HW130379   3.243   7.805   6.978
42849SOL    HW230380   3.283   7.871   7.109
42850SOL     OW30381   4.861   2.379  11.034
42850SOL    HW130382   4.773   2.410  11.050
42850SOL    HW230383   4.891   2.427  10.957
42851SOL     OW30384   7.828   6.787   7.542
42851SOL    HW130385   7.918   6.804   7.514
42851SOL    HW230386   7.786   6.748   7.465
42852SOL     OW30387   1.717   7.180  11.100
42852SOL    HW130388   1.776   7.171  11.025
42852SOL    HW230389   1.632   7.199  11.060
42853SOL     OW30390   2.323  12.431  12.744
42853SOL    HW130391   2.276  12.478  12.814
42853SOL    HW230392   2.401  12.396  12.787
42854SOL     OW30393   6.110   0.061   7.378
42854SOL    HW130394   6.189   0.105   7.409
42854SOL    HW230395   6.119  14.847   7.408
42855SOL     OW30396   9.455   5.692   7.286
42855SOL    HW130397   9.409   5.614   7.256
42855SOL    HW230398   9.496   5.728   7.207
42856SOL     OW30399   6.577  12.726   8.024
42856SOL    HW130400   6.568  12.716   7.930
42856SOL    HW230401   6.643  12.795   8.036
42857SOL     OW30402   4.632   0.592   7.826
42857SOL    HW130403   4.667   0.586   7.737
42857SOL    HW230404   4.539   0.570   7.817
42858SOL     OW30405   7.881   4.231  13.501
42858SOL    HW130406   7.962   4.279  13.517
42858SOL    HW230407   7.823   4.256  13.573
42859SOL     OW30408   6.206  13.839  11.730
42859SOL    HW130409   6.184  13.922  11.689
42859SOL    HW230410   6.127  13.785  11.719
42860SOL     OW30411   8.704   4.470  14.855
42860SOL    HW130412   8.750   4.424   0.048
42860SOL    HW230413   8.772   4.513  14.804
42861SOL     OW30414   9.671   4.395  12.206
42861SOL    HW130415   9.766   4.393  12.193
42861SOL    HW230416   9.657   4.353  12.291
42862SOL     OW30417   7.127   0.316  10.874
42862SOL    HW130418   7.161   0.298  10.786
42862SOL    HW230419   7.162   0.246  10.928
42863SOL     OW30420   9.922  13.854   3.174
42863SOL    HW130421   9.912  13.865   3.269
42863SOL    HW230422   9.834  13.833   3.143
42864SOL     OW30423   0.436   3.700  13.396
42864SOL    HW130424   0.397   3.700  13.484
42864SOL    HW230425   0.530   3.714  13.412
42865SOL     OW30426   1.987  10.414   2.719
42865SOL    HW130427   2.020  10.364   2.794
42865SOL    HW230428   2.064  10.428   2.664
42866SOL     OW30429  13.196   0.964   1.113
42866SOL    HW130430  13.257   0.956   1.039
42866SOL    HW230431  13.189   0.876   1.148
42867SOL     OW30432   2.386  12.083   8.860
42867SOL    HW130433   2.474  12.111   8.835
42867SOL    HW230434   2.334  12.163   8.860
42868SOL     OW30435   4.689  11.389  13.002
42868SOL    HW130436   4.621  11.326  13.022
42868SOL    HW230437   4.660  11.432  12.921
42869SOL     OW30438   0.431  11.518   8.125
42869SOL    HW130439   0.467  11.553   8.044
42869SOL    HW230440   0.353  11.470   8.098
42870SOL     OW30441   6.841  10.312   5.534
42870SOL    HW130442   6.761  10.267   5.561
42870SOL    HW230443   6.911  10.266   5.581
42871SOL     OW30444   3.726   4.016  13.501
42871SOL    HW130445   3.725   4.111  13.503
42871SOL    HW230446   3.743   3.990  13.592
42872SOL     OW30447   0.497  13.430  10.509
42872SOL    HW130448   0.513  13.336  10.505
42872SOL    HW230449   0.514  13.461  10.420
42873SOL     OW30450   0.034   6.559   9.917
42873SOL    HW130451   0.014   6.641   9.962
42873SOL    HW230452   0.125   6.541   9.941
42874SOL     OW30453   7.557  10.587   4.522
42874SOL    HW130454   7.576  10.495   4.504
42874SOL    HW230455   7.482  10.585   4.581
42875SOL     OW30456   3.863   5.326   1.000
42875SOL    HW130457   3.785   5.271   1.001
42875SOL    HW230458   3.858   5.372   0.916
42876SOL     OW30459   0.639  12.710   7.454
42876SOL    HW130460   0.615  12.620   7.475
42876SOL    HW230461   0.729  12.719   7.485
42877SOL     OW30462  14.551   8.542  13.330
42877SOL    HW130463  14.639   8.577  13.334
42877SOL    HW230464  14.495   8.618  13.314
42878SOL     OW30465  14.380  12.707   9.929
42878SOL    HW130466  14.298  12.753   9.909
42878SOL    HW230467  14.422  12.761   9.995
42879SOL     OW30468  11.468   0.144   7.909
42879SOL    HW130469  11.481   0.210   7.842
42879SOL    HW230470  11.529   0.168   7.979
42880SOL     OW30471  11.856   1.746   6.786
42880SOL    HW130472  11.811   1.663   6.806
42880SOL    HW230473  11.874   1.784   6.872
42881SOL     OW30474   9.768   6.467   0.911
42881SOL    HW130475   9.785   6.557   0.942
42881SOL    HW230476   9.854   6.424   0.917
42882SOL     OW30477   0.299   6.977   6.573
42882SOL    HW130478   0.292   7.014   6.661
42882SOL    HW230479   0.257   6.891   6.580
42883SOL     OW30480  14.010  10.989   5.793
42883SOL    HW130481  14.042  10.983   5.703
42883SOL    HW230482  13.974  11.078   5.799
42884SOL     OW30483  11.753   8.520   0.349
42884SOL    HW130484  11.805   8.498   0.427
42884SOL    HW230485  11.739   8.614   0.355
42885SOL     OW30486   7.068   8.035   9.097
42885SOL    HW130487   7.134   8.103   9.084
42885SOL    HW230488   6.995   8.061   9.041
42886SOL     OW30489   2.316   5.478   6.044
42886SOL    HW130490   2.305   5.442   6.133
42886SOL    HW230491   2.393   5.433   6.009
42887SOL     OW30492   7.896   6.338  12.096
42887SOL    HW130493   7.802   6.340  12.076
42887SOL    HW230494   7.913   6.247  12.121
42888SOL     OW30495   0.659   2.878   5.353
42888SOL    HW130496   0.723   2.870   5.282
42888SOL    HW230497   0.664   2.795   5.400
42889SOL     OW30498   8.686   7.643   1.884
42889SOL    HW130499   8.691   7.690   1.967
42889SOL    HW230500   8.666   7.710   1.819
42890SOL     OW30501  14.385   8.401  12.528
42890SOL    HW130502  14.368   8.348  12.607
42890SOL    HW230503  14.300   8.437  12.505
42891SOL     OW30504   9.324   7.480   5.092
42891SOL    HW130505   9.289   7.470   5.180
42891SOL    HW230506   9.269   7.424   5.037
42892SOL     OW30507   0.372   3.246   1.835
42892SOL    HW130508   0.437   3.184   1.800
42892SOL    HW230509   0.411   3.332   1.818
42893SOL     OW30510  11.551   8.892   0.869
42893SOL    HW130511  11.587   8.900   0.781
42893SOL    HW230512  11.625   8.861   0.922
42894SOL     OW30513   2.256  10.057   8.852
42894SOL    HW130514   2.227   9.971   8.822
42894SOL    HW230515   2.334  10.038   8.905
42895SOL     OW30516   8.712   0.277   1.646
42895SOL    HW130517   8.664   0.214   1.592
42895SOL    HW230518   8.765   0.225   1.705
42896SOL     OW30519  10.454   9.586   7.903
42896SOL    HW130520  10.502   9.668   7.914
42896SOL    HW230521  10.446   9.550   7.991
42897SOL     OW30522   7.946   2.206  10.981
42897SOL    HW130523   7.948   2.119  11.021
42897SOL    HW230524   7.879   2.254  11.031
42898SOL     OW30525   5.400   5.211  12.568
42898SOL    HW130526   5.407   5.302  12.539
42898SOL    HW230527   5.431   5.212  12.658
42899SOL     OW30528   6.324  10.467  11.797
42899SOL    HW130529   6.334  10.499  11.887
42899SOL    HW230530   6.333  10.372  11.805
42900SOL     OW30531   0.827   1.884   3.887
42900SOL    HW130532   0.850   1.953   3.824
42900SOL    HW230533   0.758   1.834   3.843
42901SOL     OW30534  10.390  14.347   4.466
42901SOL    HW130535  10.360  14.433   4.438
42901SOL    HW230536  10.315  14.310   4.514
42902SOL     OW30537   5.046   9.493   8.099
42902SOL    HW130538   5.133   9.514   8.065
42902SOL    HW230539   5.034   9.553   8.172
42903SOL     OW30540   4.007   6.484   2.646
42903SOL    HW130541   3.954   6.410   2.675
42903SOL    HW230542   3.944   6.549   2.617
42904SOL     OW30543   3.622   3.062   8.059
42904SOL    HW130544   3.660   3.141   8.096
42904SOL    HW230545   3.564   3.029   8.127
42905SOL     OW30546   0.765  13.779   8.590
42905SOL    HW130547   0.771  13.697   8.638
42905SOL    HW230548   0.784  13.756   8.499
42906SOL     OW30549   4.910   6.827   4.323
42906SOL    HW130550   4.898   6.835   4.418
42906SOL    HW230551   4.831   6.865   4.285
42907SOL     OW30552  14.684  11.823   6.072
42907SOL    HW130553  14.719  11.898   6.120
42907SOL    HW230554  14.647  11.767   6.140
42908SOL     OW30555   7.563   5.434   8.608
42908SOL    HW130556   7.519   5.446   8.524
42908SOL    HW230557   7.599   5.345   8.603
42909SOL     OW30558   9.595  12.258  11.004
42909SOL    HW130559   9.626  12.216  11.084
42909SOL    HW230560   9.614  12.195  10.934
42910SOL     OW30561  13.162   0.056   2.338
42910SOL    HW130562  13.136  14.844   2.309
42910SOL    HW230563  13.088   0.087   2.389
42911SOL     OW30564   4.776  11.918   8.286
42911SOL    HW130565   4.681  11.924   8.279
42911SOL    HW230566   4.806  12.008   8.274
42912SOL     OW30567   9.611  11.974   4.679
42912SOL    HW130568   9.635  11.993   4.588
42912SOL    HW230569   9.648  12.047   4.729
42913SOL     OW30570   0.831   0.697   1.193
42913SOL    HW130571   0.743   0.666   1.176
42913SOL    HW230572   0.819   0.776   1.245
42914SOL     OW30573  11.570   2.024  10.700
42914SOL    HW130574  11.488   2.072  10.692
42914SOL    HW230575  11.593   2.000  10.610
42915SOL     OW30576  12.471   5.305   6.043
42915SOL    HW130577  12.424   5.266   6.117
42915SOL    HW230578  12.482   5.397   6.068
42916SOL     OW30579   5.799   4.660   6.320
42916SOL    HW130580   5.791   4.729   6.386
42916SOL    HW230581   5.887   4.624   6.333
42917SOL     OW30582   3.567   6.411  11.956
42917SOL    HW130583   3.642   6.370  11.915
42917SOL    HW230584   3.576   6.392  12.050
42918SOL     OW30585  13.591   1.118   4.018
42918SOL    HW130586  13.659   1.094   4.081
42918SOL    HW230587  13.517   1.060   4.039
42919SOL     OW30588  10.321   6.217   8.441
42919SOL    HW130589  10.298   6.227   8.533
42919SOL    HW230590  10.409   6.180   8.442
42920SOL     OW30591  14.227  10.837  11.817
42920SOL    HW130592  14.258  10.854  11.906
42920SOL    HW230593  14.247  10.917  11.768
42921SOL     OW30594  13.209  13.864   2.904
42921SOL    HW130595  13.214  13.820   2.820
42921SOL    HW230596  13.202  13.957   2.882
42922SOL     OW30597   9.016   3.063   6.743
42922SOL    HW130598   9.093   3.043   6.690
42922SOL    HW230599   8.948   3.004   6.710
42923SOL     OW30600   1.947   6.398   3.033
42923SOL    HW130601   2.036   6.375   3.061
42923SOL    HW230602   1.926   6.477   3.082
42924SOL     OW30603   2.587  12.869   9.928
42924SOL    HW130604   2.652  12.886   9.860
42924SOL    HW230605   2.622  12.793   9.975
42925SOL     OW30606  12.324   0.204   1.955
42925SOL    HW130607  12.346   0.155   1.876
42925SOL    HW230608  12.229   0.196   1.964
42926SOL     OW30609   6.354   4.112  10.850
42926SOL    HW130610   6.384   4.047  10.787
42926SOL    HW230611   6.303   4.062  10.914
42927SOL     OW30612  12.038   9.664   7.417
42927SOL    HW130613  11.967   9.667   7.354
42927SOL    HW230614  12.099   9.598   7.382
42928SOL     OW30615   4.104   1.546   9.497
42928SOL    HW130616   4.053   1.611   9.448
42928SOL    HW230617   4.058   1.463   9.483
42929SOL     OW30618   1.193  11.421   2.936
42929SOL    HW130619   1.130  11.475   2.889
42929SOL    HW230620   1.277  11.441   2.894
42930SOL     OW30621   8.684   9.468   8.891
42930SOL    HW130622   8.680   9.446   8.984
42930SOL    HW230623   8.616   9.535   8.880
42931SOL     OW30624   4.916   0.429   1.532
42931SOL    HW130625   4.898   0.342   1.569
42931SOL    HW230626   5.009   0.426   1.509
42932SOL     OW30627   6.213   1.289   6.373
42932SOL    HW130628   6.259   1.346   6.434
42932SOL    HW230629   6.243   1.316   6.286
42933SOL     OW30630  13.004  14.068  12.633
42933SOL    HW130631  13.028  14.150  12.591
42933SOL    HW230632  12.973  14.012  12.562
42934SOL     OW30633   8.440   4.857  10.927
42934SOL    HW130634   8.413   4.842  10.837
42934SOL    HW230635   8.443   4.953  10.935
42935SOL     OW30636   8.048   2.276   0.517
42935SOL    HW130637   8.025   2.311   0.431
42935SOL    HW230638   7.978   2.307   0.575
42936SOL     OW30639   6.632   9.386  11.634
42936SOL    HW130640   6.618   9.318  11.699
42936SOL    HW230641   6.616   9.342  11.550
42937SOL     OW30642  11.867  10.486   8.877
42937SOL    HW130643  11.960  10.503   8.890
42937SOL    HW230644  11.861  10.391   8.867
42938SOL     OW30645  13.017   7.495   4.245
42938SOL    HW130646  12.988   7.584   4.225
42938SOL    HW230647  12.936   7.447   4.263
42939SOL     OW30648   8.887   9.296   5.655
42939SOL    HW130649   8.822   9.234   5.688
42939SOL    HW230650   8.901   9.357   5.727
42940SOL     OW30651  11.267   3.598   5.306
42940SOL    HW130652  11.235   3.511   5.281
42940SOL    HW230653  11.195   3.657   5.287
42941SOL     OW30654  14.700   2.821   4.460
42941SOL    HW130655  14.696   2.846   4.552
42941SOL    HW230656  14.773   2.871   4.424
42942SOL     OW30657   6.814  10.388   0.812
42942SOL    HW130658   6.807  10.365   0.719
42942SOL    HW230659   6.887  10.337   0.844
42943SOL     OW30660  14.676   5.630   0.168
42943SOL    HW130661  14.724   5.703   0.206
42943SOL    HW230662  14.697   5.632   0.075
42944SOL     OW30663  10.854   2.890   9.191
42944SOL    HW130664  10.846   2.983   9.215
42944SOL    HW230665  10.774   2.850   9.226
42945SOL     OW30666  11.903   5.765   7.382
42945SOL    HW130667  11.941   5.792   7.466
42945SOL    HW230668  11.940   5.679   7.366
42946SOL     OW30669   0.497  13.274  13.816
42946SOL    HW130670   0.422  13.332  13.806
42946SOL    HW230671   0.483  13.230  13.899
42947SOL     OW30672   0.343   1.116   5.912
42947SOL    HW130673   0.306   1.035   5.880
42947SOL    HW230674   0.414   1.089   5.970
42948SOL     OW30675   4.194   3.615   0.515
42948SOL    HW130676   4.264   3.652   0.461
42948SOL    HW230677   4.228   3.530   0.543
42949SOL     OW30678   9.216   2.307   6.817
42949SOL    HW130679   9.231   2.272   6.905
42949SOL    HW230680   9.266   2.389   6.816
42950SOL     OW30681   2.717   6.536   0.702
42950SOL    HW130682   2.793   6.478   0.694
42950SOL    HW230683   2.673   6.507   0.782
42951SOL     OW30684   8.361  13.057   6.819
42951SOL    HW130685   8.449  13.095   6.830
42951SOL    HW230686   8.314  13.084   6.897
42952SOL     OW30687   1.307  11.141  14.018
42952SOL    HW130688   1.236  11.085  14.050
42952SOL    HW230689   1.262  11.212  13.972
42953SOL     OW30690   5.425   3.611   8.915
42953SOL    HW130691   5.471   3.686   8.953
42953SOL    HW230692   5.481   3.536   8.937
42954SOL     OW30693   1.168   5.208   3.130
42954SOL    HW130694   1.080   5.171   3.131
42954SOL    HW230695   1.188   5.221   3.038
42955SOL     OW30696   4.119  12.404   0.927
42955SOL    HW130697   4.085  12.485   0.889
42955SOL    HW230698   4.214  12.412   0.920
42956SOL     OW30699   9.622   5.806   3.708
42956SOL    HW130700   9.666   5.850   3.781
42956SOL    HW230701   9.540   5.773   3.746
42957SOL     OW30702   0.507   7.164   3.460
42957SOL    HW130703   0.417   7.140   3.484
42957SOL    HW230704   0.511   7.151   3.365
42958SOL     OW30705   8.174   2.343  14.178
42958SOL    HW130706   8.219   2.268  14.139
42958SOL    HW230707   8.124   2.380  14.105
42959SOL     OW30708   2.286  12.166   4.888
42959SOL    HW130709   2.248  12.188   4.973
42959SOL    HW230710   2.242  12.085   4.863
42960SOL     OW30711  13.083   4.582  14.748
42960SOL    HW130712  13.035   4.586  14.830
42960SOL    HW230713  13.172   4.608  14.771
42961SOL     OW30714   8.029   9.794   5.737
42961SOL    HW130715   7.995   9.831   5.818
42961SOL    HW230716   7.962   9.731   5.710
42962SOL     OW30717  13.275   6.918  14.543
42962SOL    HW130718  13.196   6.923  14.490
42962SOL    HW230719  13.289   6.824  14.556
42963SOL     OW30720  14.809   1.697  11.009
42963SOL    HW130721  14.747   1.740  11.068
42963SOL    HW230722  14.858   1.769  10.968
42964SOL     OW30723  10.343   4.968  12.930
42964SOL    HW130724  10.322   5.000  13.018
42964SOL    HW230725  10.359   5.046  12.878
42965SOL     OW30726   3.701  10.186   5.659
42965SOL    HW130727   3.707  10.151   5.570
42965SOL    HW230728   3.608  10.182   5.680
42966SOL     OW30729   0.658  12.393   9.716
42966SOL    HW130730   0.621  12.349   9.792
42966SOL    HW230731   0.585  12.443   9.679
42967SOL     OW30732   2.923   1.162   5.742
42967SOL    HW130733   2.912   1.072   5.771
42967SOL    HW230734   2.991   1.158   5.675
42968SOL     OW30735  14.876   3.977   7.598
42968SOL    HW130736   0.036   3.939   7.517
42968SOL    HW230737  14.873   3.905   7.660
42969SOL     OW30738   0.344   8.521   1.969
42969SOL    HW130739   0.383   8.480   1.892
42969SOL    HW230740   0.388   8.480   2.043
42970SOL     OW30741  14.290  11.876   9.654
42970SOL    HW130742  14.253  11.863   9.566
42970SOL    HW230743  14.384  11.861   9.642
42971SOL     OW30744  10.068   2.790   3.879
42971SOL    HW130745  10.054   2.862   3.940
42971SOL    HW230746  10.162   2.771   3.886
42972SOL     OW30747  13.191   9.830   5.328
42972SOL    HW130748  13.157   9.742   5.314
42972SOL    HW230749  13.251   9.821   5.402
42973SOL     OW30750   0.465  13.448   0.109
42973SOL    HW130751   0.545  13.485   0.146
42973SOL    HW230752   0.496  13.383   0.046
42974SOL     OW30753   9.384  11.322   2.309
42974SOL    HW130754   9.293  11.311   2.280
42974SOL    HW230755   9.380  11.390   2.376
42975SOL     OW30756   5.490   3.672   2.118
42975SOL    HW130757   5.493   3.726   2.039
42975SOL    HW230758   5.549   3.599   2.099
42976SOL     OW30759   3.305   1.163   8.694
42976SOL    HW130760   3.247   1.094   8.661
42976SOL    HW230761   3.305   1.229   8.625
42977SOL     OW30762   5.652   6.626   7.963
42977SOL    HW130763   5.674   6.544   7.919
42977SOL    HW230764   5.647   6.690   7.891
42978SOL     OW30765   7.535  12.117   8.573
42978SOL    HW130766   7.617  12.070   8.559
42978SOL    HW230767   7.560  12.209   8.574
42979SOL     OW30768  14.314   4.919   3.042
42979SOL    HW130769  14.232   4.870   3.050
42979SOL    HW230770  14.374   4.858   2.998
42980SOL     OW30771  12.039  11.837   7.221
42980SOL    HW130772  12.109  11.878   7.272
42980SOL    HW230773  12.060  11.857   7.130
42981SOL     OW30774   8.076   1.320   9.765
42981SOL    HW130775   8.066   1.234   9.724
42981SOL    HW230776   8.148   1.361   9.717
42982SOL     OW30777   4.737  11.762   7.951
42982SOL    HW130778   4.680  11.836   7.971
42982SOL    HW230779   4.730  11.704   8.027
42983SOL     OW30780   8.987   8.997   2.203
42983SOL    HW130781   9.029   8.954   2.277
42983SOL    HW230782   8.893   8.992   2.224
42984SOL     OW30783   2.573   1.171  10.087
42984SOL    HW130784   2.492   1.120  10.094
42984SOL    HW230785   2.619   1.133  10.013
42985SOL     OW30786   3.612   5.111   8.655
42985SOL    HW130787   3.653   5.116   8.741
42985SOL    HW230788   3.681   5.135   8.594
42986SOL     OW30789   9.449   2.450  10.172
42986SOL    HW130790   9.535   2.465  10.209
42986SOL    HW230791   9.398   2.412  10.243
42987SOL     OW30792   3.700  10.804   9.582
42987SOL    HW130793   3.673  10.718   9.614
42987SOL    HW230794   3.619  10.850   9.564
42988SOL     OW30795  10.771  10.151  13.665
42988SOL    HW130796  10.771  10.182  13.574
42988SOL    HW230797  10.857  10.113  13.678
42989SOL     OW30798  14.476  13.766   4.383
42989SOL    HW130799  14.551  13.795   4.434
42989SOL    HW230800  14.406  13.754   4.447
42990SOL     OW30801  13.919   5.286   5.538
42990SOL    HW130802  13.891   5.354   5.599
42990SOL    HW230803  13.887   5.204   5.575
42991SOL     OW30804   7.740  14.837   5.965
42991SOL    HW130805   7.752  14.743   5.977
42991SOL    HW230806   7.658  14.845   5.917
42992SOL     OW30807   9.547   2.119   2.963
42992SOL    HW130808   9.482   2.147   3.027
42992SOL    HW230809   9.496   2.095   2.886
42993SOL     OW30810   1.558   3.322   1.734
42993SOL    HW130811   1.488   3.263   1.762
42993SOL    HW230812   1.625   3.264   1.698
42994SOL     OW30813   4.684  14.384  12.831
42994SOL    HW130814   4.735  14.392  12.750
42994SOL    HW230815   4.650  14.472  12.847
42995SOL     OW30816  10.909   4.400   7.343
42995SOL    HW130817  10.836   4.367   7.394
42995SOL    HW230818  10.984   4.393   7.402
42996SOL     OW30819   4.771   9.625  12.530
42996SOL    HW130820   4.722   9.578  12.597
42996SOL    HW230821   4.842   9.668  12.577
42997SOL     OW30822  11.542   5.615   1.950
42997SOL    HW130823  11.517   5.698   1.990
42997SOL    HW230824  11.577   5.563   2.022
42998SOL     OW30825   9.006  12.033   9.692
42998SOL    HW130826   8.997  12.030   9.788
42998SOL    HW230827   9.090  12.074   9.677
42999SOL     OW30828  10.797   0.940   7.857
42999SOL    HW130829  10.820   0.848   7.858
42999SOL    HW230830  10.853   0.980   7.923
43000SOL     OW30831  11.765   0.909   0.627
43000SOL    HW130832  11.757   0.874   0.538
43000SOL    HW230833  11.711   0.988   0.627
43001SOL     OW30834   0.481   0.348   9.174
43001SOL    HW130835   0.411   0.299   9.130
43001SOL    HW230836   0.436   0.421   9.217
43002SOL     OW30837  10.708   5.154  12.136
43002SOL    HW130838  10.699   5.228  12.195
43002SOL    HW230839  10.790   5.112  12.163
43003SOL     OW30840   9.824   7.899   7.291
43003SOL    HW130841   9.755   7.832   7.288
43003SOL    HW230842   9.804   7.950   7.369
43004SOL     OW30843  10.142  14.488  13.587
43004SOL    HW130844  10.182  14.407  13.620
43004SOL    HW230845  10.116  14.535  13.666
43005SOL     OW30846  12.706   4.191  13.559
43005SOL    HW130847  12.659   4.185  13.642
43005SOL    HW230848  12.792   4.153  13.577
43006SOL     OW30849  12.555   3.483  13.172
43006SOL    HW130850  12.473   3.464  13.219
43006SOL    HW230851  12.537   3.564  13.124
43007SOL     OW30852   0.760   7.446  12.430
43007SOL    HW130853   0.794   7.400  12.507
43007SOL    HW230854   0.734   7.532  12.462
43008SOL     OW30855   7.630   8.760   7.264
43008SOL    HW130856   7.708   8.793   7.308
43008SOL    HW230857   7.563   8.758   7.333
43009SOL     OW30858   7.929   6.537  12.829
43009SOL    HW130859   7.857   6.585  12.788
43009SOL    HW230860   8.008   6.573  12.788
43010SOL     OW30861   8.468  10.900   7.880
43010SOL    HW130862   8.418  10.849   7.944
43010SOL    HW230863   8.557  10.902   7.915
43011SOL     OW30864   7.041   7.526   4.625
43011SOL    HW130865   7.012   7.493   4.539
43011SOL    HW230866   7.051   7.620   4.611
43012SOL     OW30867   2.426   7.488  12.322
43012SOL    HW130868   2.387   7.489  12.410
43012SOL    HW230869   2.486   7.414  12.323
43013SOL     OW30870   2.983  12.693  10.539
43013SOL    HW130871   3.016  12.711  10.451
43013SOL    HW230872   3.002  12.773  10.589
43014SOL     OW30873   9.327  13.940   9.804
43014SOL    HW130874   9.413  13.927   9.763
43014SOL    HW230875   9.329  13.887   9.883
43015SOL     OW30876  13.155   2.979  12.095
43015SOL    HW130877  13.114   3.008  12.014
43015SOL    HW230878  13.144   3.054  12.154
43016SOL     OW30879   7.205   1.768   1.514
43016SOL    HW130880   7.242   1.695   1.564
43016SOL    HW230881   7.117   1.738   1.491
43017SOL     OW30882  12.988  10.300   3.484
43017SOL    HW130883  13.056  10.358   3.519
43017SOL    HW230884  13.011  10.290   3.392
43018SOL     OW30885   7.057   7.077   8.207
43018SOL    HW130886   6.976   7.026   8.204
43018SOL    HW230887   7.065   7.105   8.298
43019SOL     OW30888   2.364   8.283   4.729
43019SOL    HW130889   2.346   8.291   4.635
43019SOL    HW230890   2.329   8.363   4.767
43020SOL     OW30891   7.262   4.098  10.250
43020SOL    HW130892   7.283   4.091  10.344
43020SOL    HW230893   7.260   4.192  10.233
43021SOL     OW30894   4.195   4.260   3.229
43021SOL    HW130895   4.232   4.343   3.258
43021SOL    HW230896   4.143   4.282   3.152
43022SOL     OW30897  14.040  11.211  13.458
43022SOL    HW130898  14.028  11.157  13.380
43022SOL    HW230899  14.129  11.246  13.450
43023SOL     OW30900  10.159  10.037   4.412
43023SOL    HW130901  10.133   9.956   4.456
43023SOL    HW230902  10.081  10.092   4.416
43024SOL     OW30903  10.012   7.834   1.862
43024SOL    HW130904   9.956   7.903   1.897
43024SOL    HW230905  10.094   7.879   1.838
43025SOL     OW30906   1.072   0.920   3.942
43025SOL    HW130907   1.164   0.893   3.949
43025SOL    HW230908   1.077   1.014   3.922
43026SOL     OW30909  14.430   9.158   0.749
43026SOL    HW130910  14.516   9.146   0.709
43026SOL    HW230911  14.374   9.094   0.705
43027SOL     OW30912  13.570   8.521   3.259
43027SOL    HW130913  13.651   8.506   3.210
43027SOL    HW230914  13.502   8.485   3.203
43028SOL     OW30915   3.740   3.117  11.220
43028SOL    HW130916   3.764   3.102  11.311
43028SOL    HW230917   3.654   3.076  11.211
43029SOL     OW30918   4.235   6.504   3.717
43029SOL    HW130919   4.229   6.459   3.801
43029SOL    HW230920   4.171   6.460   3.662
43030SOL     OW30921   3.751   8.400   4.064
43030SOL    HW130922   3.670   8.387   4.113
43030SOL    HW230923   3.753   8.495   4.048
43031SOL     OW30924   4.194   1.468   1.417
43031SOL    HW130925   4.152   1.553   1.427
43031SOL    HW230926   4.200   1.434   1.507
43032SOL     OW30927  13.453   7.322  11.849
43032SOL    HW130928  13.386   7.263  11.885
43032SOL    HW230929  13.499   7.269  11.784
43033SOL     OW30930  11.801   9.861   2.365
43033SOL    HW130931  11.738   9.931   2.378
43033SOL    HW230932  11.837   9.844   2.452
43034SOL     OW30933   8.837   2.920  14.007
43034SOL    HW130934   8.793   3.002  14.033
43034SOL    HW230935   8.930   2.939  14.017
43035SOL     OW30936   1.155   3.473   1.383
43035SOL    HW130937   1.094   3.532   1.339
43035SOL    HW230938   1.102   3.427   1.447
43036SOL     OW30939   9.787   4.322   7.004
43036SOL    HW130940   9.757   4.408   7.032
43036SOL    HW230941   9.818   4.335   6.915
43037SOL     OW30942  10.492   1.060   2.907
43037SOL    HW130943  10.397   1.066   2.918
43037SOL    HW230944  10.504   0.998   2.835
43038SOL     OW30945   6.634  10.612   9.617
43038SOL    HW130946   6.691  10.535   9.618
43038SOL    HW230947   6.563  10.588   9.557
43039SOL     OW30948   2.747  13.738   6.343
43039SOL    HW130949   2.777  13.719   6.254
43039SOL    HW230950   2.666  13.688   6.351
43040SOL     OW30951   9.136   7.606  14.312
43040SOL    HW130952   9.074   7.560  14.369
43040SOL    HW230953   9.214   7.618  14.365
43041SOL     OW30954  14.373   8.331   4.490
43041SOL    HW130955  14.425   8.398   4.535
43041SOL    HW230956  14.282   8.355   4.509
43042SOL     OW30957   7.328   7.407   9.700
43042SOL    HW130958   7.250   7.461   9.712
43042SOL    HW230959   7.400   7.469   9.691
43043SOL     OW30960   7.124   9.641  11.385
43043SOL    HW130961   7.087   9.555  11.365
43043SOL    HW230962   7.214   9.624  11.412
43044SOL     OW30963   4.616   0.560   3.632
43044SOL    HW130964   4.621   0.652   3.605
43044SOL    HW230965   4.679   0.515   3.576
43045SOL     OW30966   8.640   5.170  13.900
43045SOL    HW130967   8.678   5.201  13.817
43045SOL    HW230968   8.616   5.079  13.882
43046SOL     OW30969   0.713   2.286   1.511
43046SOL    HW130970   0.638   2.273   1.454
43046SOL    HW230971   0.789   2.281   1.453
43047SOL     OW30972   2.043   6.039  13.592
43047SOL    HW130973   2.067   5.955  13.632
43047SOL    HW230974   2.126   6.079  13.569
43048SOL     OW30975   6.129   2.146   8.160
43048SOL    HW130976   6.174   2.065   8.139
43048SOL    HW230977   6.163   2.171   8.246
43049SOL     OW30978   3.853  12.656   0.360
43049SOL    HW130979   3.943  12.680   0.336
43049SOL    HW230980   3.832  12.583   0.302
43050SOL     OW30981  11.299   2.573   4.928
43050SOL    HW130982  11.332   2.487   4.953
43050SOL    HW230983  11.359   2.603   4.860
43051SOL     OW30984   2.871  14.102  12.349
43051SOL    HW130985   2.956  14.077  12.384
43051SOL    HW230986   2.873  14.198  12.348
43052SOL     OW30987   1.323   8.819   5.283
43052SOL    HW130988   1.372   8.773   5.215
43052SOL    HW230989   1.305   8.751   5.349
43053SOL     OW30990  11.686   8.870  10.269
43053SOL    HW130991  11.742   8.801  10.304
43053SOL    HW230992  11.693   8.941  10.333
43054SOL     OW30993  10.053   1.128   1.302
43054SOL    HW130994  10.009   1.138   1.218
43054SOL    HW230995  10.058   1.217   1.337
43055SOL     OW30996  11.993  12.694   4.108
43055SOL    HW130997  11.969  12.670   4.197
43055SOL    HW230998  12.087  12.679   4.103
43056SOL     OW30999   5.669   8.001   6.271
43056SOL    HW131000   5.750   8.045   6.296
43056SOL    HW231001   5.614   8.070   6.232
43057SOL     OW31002   0.471  11.813   1.864
43057SOL    HW131003   0.420  11.884   1.825
43057SOL    HW231004   0.439  11.734   1.821
43058SOL     OW31005   0.129   6.071   9.108
43058SOL    HW131006   0.046   6.029   9.131
43058SOL    HW231007   0.104   6.149   9.060
43059SOL     OW31008  14.285   4.858   8.608
43059SOL    HW131009  14.247   4.784   8.655
43059SOL    HW231010  14.357   4.820   8.558
43060SOL     OW31011   2.188   6.760   6.349
43060SOL    HW131012   2.119   6.792   6.407
43060SOL    HW231013   2.199   6.668   6.372
43061SOL     OW31014   1.093   1.243   3.357
43061SOL    HW131015   1.057   1.331   3.356
43061SOL    HW231016   1.126   1.229   3.269
43062SOL     OW31017   0.829   8.763  14.267
43062SOL    HW131018   0.871   8.837  14.222
43062SOL    HW231019   0.736   8.773  14.248
43063SOL     OW31020   8.394  14.084   1.677
43063SOL    HW131021   8.332  14.012   1.667
43063SOL    HW231022   8.417  14.082   1.770
43064SOL     OW31023  10.964   2.093   9.629
43064SOL    HW131024  10.971   1.998   9.632
43064SOL    HW231025  10.870   2.110   9.630
43065SOL     OW31026  11.341  14.579  10.280
43065SOL    HW131027  11.367  14.533  10.201
43065SOL    HW231028  11.420  14.626  10.308
43066SOL     OW31029   0.168  12.871   0.055
43066SOL    HW131030   0.166  12.814   0.133
43066SOL    HW231031   0.235  12.833  14.875
43067SOL     OW31032   2.158   8.664   4.087
43067SOL    HW131033   2.084   8.636   4.141
43067SOL    HW231034   2.178   8.588   4.032
43068SOL     OW31035   4.402  14.493   2.190
43068SOL    HW131036   4.357  14.490   2.274
43068SOL    HW231037   4.337  14.527   2.129
43069SOL     OW31038  12.463   8.616   0.173
43069SOL    HW131039  12.452   8.642   0.082
43069SOL    HW231040  12.379   8.576   0.196
43070SOL     OW31041   1.089  11.636  13.421
43070SOL    HW131042   1.113  11.656  13.330
43070SOL    HW231043   1.000  11.602  13.415
43071SOL     OW31044   8.783  12.946  10.554
43071SOL    HW131045   8.866  12.988  10.531
43071SOL    HW231046   8.717  13.002  10.513
43072SOL     OW31047   5.238  12.266   9.206
43072SOL    HW131048   5.234  12.232   9.116
43072SOL    HW231049   5.318  12.320   9.207
43073SOL     OW31050   8.549   2.366  14.347
43073SOL    HW131051   8.488   2.316  14.401
43073SOL    HW231052   8.589   2.301  14.290
43074SOL     OW31053   7.577   5.618   2.609
43074SOL    HW131054   7.669   5.633   2.632
43074SOL    HW231055   7.577   5.617   2.513
43075SOL     OW31056  11.650   8.452   4.408
43075SOL    HW131057  11.719   8.398   4.446
43075SOL    HW231058  11.593   8.389   4.363
43076SOL     OW31059   6.541  10.504   1.531
43076SOL    HW131060   6.554  10.411   1.511
43076SOL    HW231061   6.629  10.541   1.530
43077SOL     OW31062   0.396   5.381  12.424
43077SOL    HW131063   0.318   5.432  12.446
43077SOL    HW231064   0.366   5.317  12.360
43078SOL     OW31065   5.785  11.684   8.515
43078SOL    HW131066   5.754  11.633   8.590
43078SOL    HW231067   5.719  11.669   8.447
43079SOL     OW31068   6.759   8.904  14.829
43079SOL    HW131069   6.734   8.996  14.842
43079SOL    HW231070   6.697   8.871  14.764
43080SOL     OW31071  10.718  11.590   5.434
43080SOL    HW131072  10.748  11.513   5.483
43080SOL    HW231073  10.735  11.568   5.342
43081SOL     OW31074   2.254  10.390   1.491
43081SOL    HW131075   2.174  10.368   1.443
43081SOL    HW231076   2.311  10.433   1.426
43082SOL     OW31077  11.192  12.471   6.902
43082SOL    HW131078  11.196  12.378   6.880
43082SOL    HW231079  11.170  12.473   6.995
43083SOL     OW31080   1.609   3.428   9.880
43083SOL    HW131081   1.701   3.437   9.856
43083SOL    HW231082   1.584   3.516   9.910
43084SOL     OW31083   3.195   0.997  14.512
43084SOL    HW131084   3.288   1.002  14.535
43084SOL    HW231085   3.193   1.008  14.417
43085SOL     OW31086   6.187   0.486  12.637
43085SOL    HW131087   6.114   0.499  12.577
43085SOL    HW231088   6.177   0.397  12.670
43086SOL     OW31089   0.513  10.928   6.590
43086SOL    HW131090   0.555  11.014   6.584
43086SOL    HW231091   0.573  10.870   6.543
43087SOL     OW31092   8.908   0.294   5.726
43087SOL    HW131093   8.979   0.230   5.733
43087SOL    HW231094   8.942   0.361   5.666
43088SOL     OW31095   1.016  10.492   1.215
43088SOL    HW131096   0.939  10.538   1.183
43088SOL    HW231097   1.034  10.425   1.149
43089SOL     OW31098   7.665  10.715   5.831
43089SOL    HW131099   7.605  10.662   5.777
43089SOL    HW231100   7.611  10.789   5.860
43090SOL     OW31101   7.428  14.750   1.688
43090SOL    HW131102   7.494  14.816   1.667
43090SOL    HW231103   7.415  14.758   1.783
43091SOL     OW31104  10.999  10.870   4.450
43091SOL    HW131105  10.915  10.836   4.482
43091SOL    HW231106  11.061  10.800   4.469
43092SOL     OW31107  12.851   4.156  10.448
43092SOL    HW131108  12.857   4.070  10.406
43092SOL    HW231109  12.866   4.138  10.541
43093SOL     OW31110  11.910   2.878   9.585
43093SOL    HW131111  11.868   2.926   9.657
43093SOL    HW231112  11.953   2.803   9.628
43094SOL     OW31113  14.513  12.379  13.677
43094SOL    HW131114  14.486  12.304  13.729
43094SOL    HW231115  14.608  12.369  13.669
43095SOL     OW31116  12.775   2.217   3.439
43095SOL    HW131117  12.736   2.204   3.353
43095SOL    HW231118  12.810   2.306   3.436
43096SOL     OW31119   6.959   6.943  13.930
43096SOL    HW131120   6.894   6.906  13.870
43096SOL    HW231121   6.932   7.034  13.941
43097SOL     OW31122   4.986   3.087  14.413
43097SOL    HW131123   5.031   3.171  14.419
43097SOL    HW231124   5.020   3.047  14.333
43098SOL     OW31125   7.074   5.516  14.715
43098SOL    HW131126   7.028   5.473  14.643
43098SOL    HW231127   7.131   5.580  14.672
43099SOL     OW31128  14.156   8.632   7.724
43099SOL    HW131129  14.240   8.586   7.729
43099SOL    HW231130  14.169   8.711   7.777
43100SOL     OW31131   2.525   2.054   8.346
43100SOL    HW131132   2.581   2.112   8.293
43100SOL    HW231133   2.443   2.102   8.356
43101SOL     OW31134  14.301   4.580  13.551
43101SOL    HW131135  14.244   4.525  13.605
43101SOL    HW231136  14.389   4.565  13.587
43102SOL     OW31137   8.400   2.719   0.857
43102SOL    HW131138   8.378   2.666   0.934
43102SOL    HW231139   8.493   2.739   0.867
43103SOL     OW31140   9.971   4.327   3.074
43103SOL    HW131141   9.980   4.422   3.071
43103SOL    HW231142  10.005   4.302   3.160
43104SOL     OW31143   5.301   2.054   5.072
43104SOL    HW131144   5.230   2.096   5.120
43104SOL    HW231145   5.347   2.127   5.030
43105SOL     OW31146  10.529  12.671  14.197
43105SOL    HW131147  10.598  12.736  14.181
43105SOL    HW231148  10.456  12.723  14.231
43106SOL     OW31149  11.117   5.081   7.114
43106SOL    HW131150  11.074   5.047   7.193
43106SOL    HW231151  11.059   5.151   7.084
43107SOL     OW31152   6.250   5.916  10.685
43107SOL    HW131153   6.204   5.983  10.635
43107SOL    HW231154   6.286   5.857  10.619
43108SOL     OW31155  13.840   4.885  12.133
43108SOL    HW131156  13.825   4.978  12.146
43108SOL    HW231157  13.919   4.880  12.079
43109SOL     OW31158   6.090   6.528   3.331
43109SOL    HW131159   6.059   6.456   3.386
43109SOL    HW231160   6.027   6.599   3.346
43110SOL     OW31161  12.121   8.805   0.952
43110SOL    HW131162  12.202   8.764   0.984
43110SOL    HW231163  12.079   8.838   1.031
43111SOL     OW31164   2.900  10.914   0.239
43111SOL    HW131165   2.814  10.896   0.200
43111SOL    HW231166   2.939  10.981   0.181
43112SOL     OW31167  14.573   7.339   5.021
43112SOL    HW131168  14.606   7.411   5.074
43112SOL    HW231169  14.498   7.375   4.973
43113SOL     OW31170  12.510   4.061   9.569
43113SOL    HW131171  12.420   4.071   9.538
43113SOL    HW231172  12.515   4.116   9.647
43114SOL     OW31173   2.305   8.549  12.296
43114SOL    HW131174   2.333   8.489  12.365
43114SOL    HW231175   2.355   8.521  12.218
43115SOL     OW31176   6.909   4.053   4.286
43115SOL    HW131177   6.994   4.022   4.253
43115SOL    HW231178   6.907   4.146   4.264
43116SOL     OW31179   4.682   4.943  10.654
43116SOL    HW131180   4.627   5.002  10.603
43116SOL    HW231181   4.757   4.925  10.597
43117SOL     OW31182   9.627   5.931  14.142
43117SOL    HW131183   9.629   5.914  14.236
43117SOL    HW231184   9.536   5.955  14.124
43118SOL     OW31185   7.921   1.282   0.915
43118SOL    HW131186   7.849   1.219   0.923
43118SOL    HW231187   7.959   1.263   0.829
43119SOL     OW31188   4.298   6.430  10.015
43119SOL    HW131189   4.223   6.489  10.008
43119SOL    HW231190   4.363   6.467   9.955
43120SOL     OW31191   1.704   6.739   5.971
43120SOL    HW131192   1.684   6.646   5.986
43120SOL    HW231193   1.773   6.738   5.905
43121SOL     OW31194  10.207  14.031   8.485
43121SOL    HW131195  10.277  14.095   8.496
43121SOL    HW231196  10.221  13.966   8.554
43122SOL     OW31197  10.974   1.543   5.619
43122SOL    HW131198  10.913   1.616   5.608
43122SOL    HW231199  10.993   1.542   5.713
43123SOL     OW31200   2.833   5.627   2.801
43123SOL    HW131201   2.905   5.565   2.811
43123SOL    HW231202   2.821   5.635   2.706
43124SOL     OW31203  14.691  11.211   3.781
43124SOL    HW131204  14.768  11.172   3.823
43124SOL    HW231205  14.706  11.305   3.787
43125SOL     OW31206  11.412   0.717   0.775
43125SOL    HW131207  11.444   0.654   0.840
43125SOL    HW231208  11.320   0.729   0.797
43126SOL     OW31209   2.112  13.191  10.033
43126SOL    HW131210   2.021  13.184  10.062
43126SOL    HW231211   2.106  13.221   9.942
43127SOL     OW31212   9.025   1.301   7.395
43127SOL    HW131213   9.018   1.368   7.463
43127SOL    HW231214   9.042   1.349   7.315
43128SOL     OW31215   8.704  10.819   3.989
43128SOL    HW131216   8.738  10.906   3.968
43128SOL    HW231217   8.743  10.762   3.923
43129SOL     OW31218  10.002   2.486   4.677
43129SOL    HW131219  10.016   2.457   4.767
43129SOL    HW231220   9.966   2.575   4.686
43130SOL     OW31221   3.870   7.617   8.815
43130SOL    HW131222   3.807   7.626   8.744
43130SOL    HW231223   3.919   7.537   8.794
43131SOL     OW31224   0.648   8.219  10.319
43131SOL    HW131225   0.694   8.240  10.400
43131SOL    HW231226   0.647   8.123  10.315
43132SOL     OW31227   1.616   8.976  12.204
43132SOL    HW131228   1.557   9.035  12.251
43132SOL    HW231229   1.703   8.995  12.239
43133SOL     OW31230  12.301   9.818   7.433
43133SOL    HW131231  12.342   9.871   7.502
43133SOL    HW231232  12.288   9.733   7.474
43134SOL     OW31233   9.933   4.561   7.935
43134SOL    HW131234   9.944   4.522   8.022
43134SOL    HW231235   9.897   4.648   7.952
43135SOL     OW31236   0.674  11.620   4.832
43135SOL    HW131237   0.727  11.544   4.806
43135SOL    HW231238   0.739  11.689   4.851
43136SOL     OW31239   8.411   5.288  14.658
43136SOL    HW131240   8.362   5.230  14.599
43136SOL    HW231241   8.493   5.241  14.674
43137SOL     OW31242   2.986   3.874   0.606
43137SOL    HW131243   2.989   3.930   0.529
43137SOL    HW231244   2.952   3.931   0.676
43138SOL     OW31245  11.087   2.211   4.816
43138SOL    HW131246  11.090   2.116   4.827
43138SOL    HW231247  11.081   2.245   4.905
43139SOL     OW31248   0.505   7.856   3.230
43139SOL    HW131249   0.509   7.921   3.300
43139SOL    HW231250   0.429   7.802   3.252
43140SOL     OW31251   3.480  14.360   7.826
43140SOL    HW131252   3.412  14.358   7.893
43140SOL    HW231253   3.535  14.284   7.846
43141SOL     OW31254   8.123   5.878   1.597
43141SOL    HW131255   8.047   5.907   1.548
43141SOL    HW231256   8.088   5.851   1.682
43142SOL     OW31257   2.625  10.681   9.153
43142SOL    HW131258   2.700  10.686   9.212
43142SOL    HW231259   2.559  10.631   9.202
43143SOL     OW31260   7.317  13.201   9.296
43143SOL    HW131261   7.299  13.218   9.389
43143SOL    HW231262   7.321  13.288   9.256
43144SOL     OW31263   3.874   8.452   3.372
43144SOL    HW131264   3.799   8.411   3.327
43144SOL    HW231265   3.889   8.396   3.449
43145SOL     OW31266   5.759  13.712  14.492
43145SOL    HW131267   5.748  13.706  14.587
43145SOL    HW231268   5.830  13.651  14.473
43146SOL     OW31269   1.303   4.824   5.638
43146SOL    HW131270   1.273   4.741   5.601
43146SOL    HW231271   1.275   4.890   5.575
43147SOL     OW31272  12.673   9.615   4.739
43147SOL    HW131273  12.586   9.638   4.708
43147SOL    HW231274  12.666   9.523   4.766
43148SOL     OW31275   2.860   6.052  14.322
43148SOL    HW131276   2.880   6.035  14.231
43148SOL    HW231277   2.944   6.043  14.368
43149SOL     OW31278  10.620   9.068   6.220
43149SOL    HW131279  10.553   8.999   6.223
43149SOL    HW231280  10.581   9.137   6.166
43150SOL     OW31281  13.410   6.894   8.034
43150SOL    HW131282  13.388   6.983   8.005
43150SOL    HW231283  13.456   6.856   7.959
43151SOL     OW31284   1.330   8.501   3.785
43151SOL    HW131285   1.300   8.447   3.712
43151SOL    HW231286   1.272   8.578   3.784
43152SOL     OW31287   3.964   5.174   3.542
43152SOL    HW131288   3.954   5.264   3.574
43152SOL    HW231289   4.058   5.159   3.538
43153SOL     OW31290  14.066  11.490  11.154
43153SOL    HW131291  14.073  11.451  11.241
43153SOL    HW231292  14.150  11.471  11.112
43154SOL     OW31293  11.068   8.941  14.319
43154SOL    HW131294  10.985   8.924  14.363
43154SOL    HW231295  11.044   8.982  14.236
43155SOL     OW31296  11.364   1.629   7.995
43155SOL    HW131297  11.448   1.675   7.990
43155SOL    HW231298  11.348   1.618   8.088
43156SOL     OW31299   2.184   2.373  13.691
43156SOL    HW131300   2.091   2.352  13.694
43156SOL    HW231301   2.196   2.418  13.608
43157SOL     OW31302   0.517   1.540  10.527
43157SOL    HW131303   0.433   1.523  10.568
43157SOL    HW231304   0.581   1.528  10.597
43158SOL     OW31305   3.297   5.989   0.838
43158SOL    HW131306   3.384   6.021   0.858
43158SOL    HW231307   3.304   5.894   0.847
43159SOL     OW31308  10.631   0.410   6.162
43159SOL    HW131309  10.601   0.381   6.249
43159SOL    HW231310  10.633   0.505   6.169
43160SOL     OW31311  12.692   4.811   7.415
43160SOL    HW131312  12.762   4.775   7.361
43160SOL    HW231313  12.704   4.906   7.409
43161SOL     OW31314   0.903   7.298   4.505
43161SOL    HW131315   0.845   7.350   4.450
43161SOL    HW231316   0.990   7.313   4.468
43162SOL     OW31317   4.432   0.272   1.457
43162SOL    HW131318   4.370   0.206   1.424
43162SOL    HW231319   4.496   0.221   1.507
43163SOL     OW31320  12.636  14.777  10.123
43163SOL    HW131321  12.731  14.793  10.120
43163SOL    HW231322  12.629  14.682  10.131
43164SOL     OW31323   6.771   7.975   2.718
43164SOL    HW131324   6.705   7.989   2.650
43164SOL    HW231325   6.807   8.062   2.736
43165SOL     OW31326   2.950   2.369  10.331
43165SOL    HW131327   3.038   2.387  10.361
43165SOL    HW231328   2.928   2.284  10.370
43166SOL     OW31329   0.680  13.394   4.202
43166SOL    HW131330   0.599  13.363   4.242
43166SOL    HW231331   0.719  13.452   4.268
43167SOL     OW31332   2.834   4.093   7.881
43167SOL    HW131333   2.813   4.181   7.852
43167SOL    HW231334   2.907   4.104   7.941
43168SOL     OW31335   0.799  10.774  10.653
43168SOL    HW131336   0.823  10.866  10.642
43168SOL    HW231337   0.866  10.738  10.711
43169SOL     OW31338  14.828  14.492   7.203
43169SOL    HW131339  14.784  14.416   7.164
43169SOL    HW231340  14.791  14.567   7.156
43170SOL     OW31341  10.941   9.769   6.083
43170SOL    HW131342  10.901   9.687   6.112
43170SOL    HW231343  10.894   9.792   6.003
43171SOL     OW31344   9.984   8.772  13.458
43171SOL    HW131345   9.994   8.863  13.430
43171SOL    HW231346  10.053   8.724  13.411
43172SOL     OW31347   6.823   1.513   6.989
43172SOL    HW131348   6.730   1.523   7.010
43172SOL    HW231349   6.833   1.556   6.904
43173SOL     OW31350   8.246   3.160  11.545
43173SOL    HW131351   8.212   3.071  11.533
43173SOL    HW231352   8.340   3.148  11.556
43174SOL     OW31353   8.221   2.016   6.688
43174SOL    HW131354   8.153   2.083   6.702
43174SOL    HW231355   8.253   2.033   6.600
43175SOL     OW31356  10.542   4.725   5.315
43175SOL    HW131357  10.558   4.716   5.409
43175SOL    HW231358  10.628   4.710   5.274
43176SOL     OW31359   2.009  14.553   9.316
43176SOL    HW131360   2.001  14.491   9.389
43176SOL    HW231361   1.934  14.534   9.260
43177SOL     OW31362   7.278   1.053   1.618
43177SOL    HW131363   7.372   1.042   1.626
43177SOL    HW231364   7.254   1.002   1.540
43178SOL     OW31365  13.247  11.049   7.252
43178SOL    HW131366  13.313  11.005   7.199
43178SOL    HW231367  13.291  11.128   7.284
43179SOL     OW31368  10.830   7.449   0.762
43179SOL    HW131369  10.819   7.500   0.842
43179SOL    HW231370  10.905   7.489   0.718
43180SOL     OW31371   8.523   8.102  13.609
43180SOL    HW131372   8.521   8.089  13.515
43180SOL    HW231373   8.481   8.025  13.646
43181SOL     OW31374   3.803   4.443  11.793
43181SOL    HW131375   3.769   4.522  11.752
43181SOL    HW231376   3.758   4.371  11.748
43182SOL     OW31377  12.482   9.015  10.680
43182SOL    HW131378  12.461   9.018  10.586
43182SOL    HW231379  12.470   8.923  10.704
43183SOL     OW31380  11.837  13.937   5.634
43183SOL    HW131381  11.815  14.017   5.682
43183SOL    HW231382  11.892  13.887   5.694
43184SOL     OW31383   9.612   9.886  13.901
43184SOL    HW131384   9.638   9.859  13.812
43184SOL    HW231385   9.609   9.981  13.897
43185SOL     OW31386   8.385   3.082   1.992
43185SOL    HW131387   8.306   3.074   2.046
43185SOL    HW231388   8.451   3.118   2.052
43186SOL     OW31389   0.277   5.411   5.454
43186SOL    HW131390   0.324   5.482   5.410
43186SOL    HW231391   0.232   5.453   5.526
43187SOL     OW31392   6.032   6.635  10.575
43187SOL    HW131393   5.942   6.614  10.598
43187SOL    HW231394   6.038   6.731  10.584
43188SOL     OW31395  12.389   1.573  10.112
43188SOL    HW131396  12.335   1.590  10.035
43188SOL    HW231397  12.329   1.583  10.186
43189SOL     OW31398   5.244   7.351   4.049
43189SOL    HW131399   5.282   7.263   4.047
43189SOL    HW231400   5.199   7.360   3.965
43190SOL     OW31401   9.687   8.520  12.739
43190SOL    HW131402   9.658   8.428  12.738
43190SOL    HW231403   9.648   8.558  12.661
43191SOL     OW31404  14.336   1.335   6.846
43191SOL    HW131405  14.262   1.396   6.849
43191SOL    HW231406  14.381   1.348   6.930
43192SOL     OW31407  11.372   2.562  14.839
43192SOL    HW131408  11.415   2.535  14.758
43192SOL    HW231409  11.407   2.649  14.856
43193SOL     OW31410   7.427   4.299   7.708
43193SOL    HW131411   7.435   4.395   7.702
43193SOL    HW231412   7.350   4.286   7.764
43194SOL     OW31413   0.316   1.855  10.540
43194SOL    HW131414   0.366   1.793  10.487
43194SOL    HW231415   0.226   1.846  10.510
43195SOL     OW31416   6.526  10.366   0.313
43195SOL    HW131417   6.528  10.273   0.337
43195SOL    HW231418   6.546  10.412   0.395
43196SOL     OW31419  13.833   5.859  12.874
43196SOL    HW131420  13.854   5.784  12.818
43196SOL    HW231421  13.916   5.884  12.914
43197SOL     OW31422  13.755   3.711   4.585
43197SOL    HW131423  13.830   3.663   4.621
43197SOL    HW231424  13.792   3.796   4.559
43198SOL     OW31425   0.205   1.044   3.222
43198SOL    HW131426   0.119   1.008   3.204
43198SOL    HW231427   0.266   0.971   3.209
43199SOL     OW31428  12.817   3.133  11.035
43199SOL    HW131429  12.786   3.065  10.975
43199SOL    HW231430  12.770   3.116  11.116
43200SOL     OW31431   7.606   8.888   5.177
43200SOL    HW131432   7.613   8.793   5.163
43200SOL    HW231433   7.676   8.908   5.240
43201SOL     OW31434  12.877  12.868   7.228
43201SOL    HW131435  12.872  12.804   7.158
43201SOL    HW231436  12.967  12.862   7.260
43202SOL     OW31437   7.096   1.898  11.199
43202SOL    HW131438   7.030   1.966  11.203
43202SOL    HW231439   7.098   1.860  11.286
43203SOL     OW31440  11.513   5.518  10.888
43203SOL    HW131441  11.460   5.439  10.899
43203SOL    HW231442  11.477   5.560  10.810
43204SOL     OW31443   7.087   8.731   9.928
43204SOL    HW131444   7.074   8.710   9.836
43204SOL    HW231445   7.008   8.697   9.971
43205SOL     OW31446  14.224   7.987  12.364
43205SOL    HW131447  14.308   8.028  12.381
43205SOL    HW231448  14.173   8.001  12.444
43206SOL     OW31449  14.227  13.381  11.446
43206SOL    HW131450  14.177  13.328  11.509
43206SOL    HW231451  14.305  13.328  11.428
43207SOL     OW31452   6.409   5.667   5.270
43207SOL    HW131453   6.503   5.677   5.279
43207SOL    HW231454   6.388   5.709   5.186
43208SOL     OW31455  12.485  11.627   4.888
43208SOL    HW131456  12.475  11.722   4.898
43208SOL    HW231457  12.501  11.596   4.978
43209SOL     OW31458  12.079   9.734   3.352
43209SOL    HW131459  12.050   9.821   3.379
43209SOL    HW231460  12.091   9.741   3.257
43210SOL     OW31461   3.640  14.237   1.719
43210SOL    HW131462   3.648  14.289   1.639
43210SOL    HW231463   3.549  14.207   1.719
43211SOL     OW31464   3.105  13.230   3.352
43211SOL    HW131465   3.109  13.226   3.257
43211SOL    HW231466   3.050  13.155   3.377
43212SOL     OW31467  13.230   5.060   3.067
43212SOL    HW131468  13.156   5.001   3.082
43212SOL    HW231469  13.248   5.099   3.152
43213SOL     OW31470   5.816   3.890   5.551
43213SOL    HW131471   5.725   3.895   5.519
43213SOL    HW231472   5.842   3.982   5.562
43214SOL     OW31473   7.350   7.653   4.731
43214SOL    HW131474   7.259   7.676   4.712
43214SOL    HW231475   7.391   7.736   4.756
43215SOL     OW31476   9.743  13.621   7.132
43215SOL    HW131477   9.822  13.624   7.187
43215SOL    HW231478   9.764  13.678   7.058
43216SOL     OW31479   4.353   0.912  10.472
43216SOL    HW131480   4.390   0.996  10.498
43216SOL    HW231481   4.425   0.866  10.429
43217SOL     OW31482  14.479  11.688   7.098
43217SOL    HW131483  14.559  11.643   7.126
43217SOL    HW231484  14.504  11.737   7.020
43218SOL     OW31485   1.544   1.102  11.741
43218SOL    HW131486   1.529   1.196  11.726
43218SOL    HW231487   1.618   1.100  11.803
43219SOL     OW31488   2.979   6.742  10.135
43219SOL    HW131489   2.911   6.807  10.150
43219SOL    HW231490   3.019   6.728  10.221
43220SOL     OW31491  11.485   4.527   2.685
43220SOL    HW131492  11.536   4.465   2.632
43220SOL    HW231493  11.419   4.560   2.624
43221SOL     OW31494   8.856   2.454   4.833
43221SOL    HW131495   8.902   2.457   4.749
43221SOL    HW231496   8.814   2.540   4.841
43222SOL     OW31497  10.068   3.721   3.846
43222SOL    HW131498  10.161   3.725   3.870
43222SOL    HW231499  10.044   3.811   3.827
43223SOL     OW31500   7.555   8.642  12.537
43223SOL    HW131501   7.647   8.620  12.546
43223SOL    HW231502   7.543   8.662  12.445
43224SOL     OW31503   7.247   0.340  10.364
43224SOL    HW131504   7.201   0.377  10.289
43224SOL    HW231505   7.226   0.247  10.361
43225SOL     OW31506   6.717  13.676   8.131
43225SOL    HW131507   6.772  13.601   8.151
43225SOL    HW231508   6.708  13.723   8.214
43226SOL     OW31509  13.278  10.793   5.227
43226SOL    HW131510  13.242  10.704   5.222
43226SOL    HW231511  13.201  10.850   5.226
43227SOL     OW31512   3.094  10.628   4.622
43227SOL    HW131513   3.147  10.591   4.693
43227SOL    HW231514   3.039  10.693   4.665
43228SOL     OW31515  12.502  11.777  10.981
43228SOL    HW131516  12.454  11.843  11.032
43228SOL    HW231517  12.489  11.696  11.030
43229SOL     OW31518  10.634   1.963  13.358
43229SOL    HW131519  10.573   1.922  13.296
43229SOL    HW231520  10.593   1.951  13.443
43230SOL     OW31521  14.738  11.765  10.025
43230SOL    HW131522  14.794  11.691  10.047
43230SOL    HW231523  14.653  11.743  10.061
43231SOL     OW31524  10.852   5.015  11.504
43231SOL    HW131525  10.871   4.980  11.591
43231SOL    HW231526  10.849   5.110  11.516
43232SOL     OW31527   6.529  13.924  10.988
43232SOL    HW131528   6.479  13.972  10.922
43232SOL    HW231529   6.615  13.910  10.947
43233SOL     OW31530  13.672   1.658   0.211
43233SOL    HW131531  13.677   1.609   0.293
43233SOL    HW231532  13.613   1.607   0.155
43234SOL     OW31533   2.883  10.285   5.861
43234SOL    HW131534   2.922  10.367   5.892
43234SOL    HW231535   2.862  10.237   5.941
43235SOL     OW31536  11.736  12.819  12.571
43235SOL    HW131537  11.728  12.913  12.582
43235SOL    HW231538  11.732  12.805  12.476
43236SOL     OW31539   4.490  10.910   5.277
43236SOL    HW131540   4.414  10.914   5.334
43236SOL    HW231541   4.529  10.825   5.293
43237SOL     OW31542   0.156   8.500   4.574
43237SOL    HW131543   0.067   8.537   4.582
43237SOL    HW231544   0.141   8.409   4.548
43238SOL     OW31545   9.121   2.722  13.857
43238SOL    HW131546   9.082   2.684  13.936
43238SOL    HW231547   9.215   2.718  13.871
43239SOL     OW31548   8.846   7.910   1.636
43239SOL    HW131549   8.888   7.932   1.553
43239SOL    HW231550   8.912   7.859   1.684
43240SOL     OW31551   3.806   2.999   0.632
43240SOL    HW131552   3.860   2.964   0.702
43240SOL    HW231553   3.804   2.930   0.566
43241SOL     OW31554  11.459   0.455   8.911
43241SOL    HW131555  11.508   0.413   8.841
43241SOL    HW231556  11.391   0.505   8.866
43242SOL     OW31557   7.760   4.351   1.043
43242SOL    HW131558   7.735   4.318   1.129
43242SOL    HW231559   7.682   4.342   0.989
43243SOL     OW31560  14.533   6.139  14.360
43243SOL    HW131561  14.628   6.152  14.363
43243SOL    HW231562  14.499   6.202  14.424
43244SOL     OW31563   8.040  13.414  14.215
43244SOL    HW131564   7.999  13.411  14.129
43244SOL    HW231565   8.048  13.322  14.241
43245SOL     OW31566  11.549   7.176   7.240
43245SOL    HW131567  11.593   7.214   7.316
43245SOL    HW231568  11.619   7.164   7.175
43246SOL     OW31569   2.830   9.023   7.059
43246SOL    HW131570   2.858   9.087   6.994
43246SOL    HW231571   2.909   8.973   7.079
43247SOL     OW31572   2.083   1.391   0.582
43247SOL    HW131573   2.034   1.402   0.500
43247SOL    HW231574   2.165   1.438   0.567
43248SOL     OW31575  13.340   2.133   4.059
43248SOL    HW131576  13.300   2.140   3.973
43248SOL    HW231577  13.433   2.149   4.044
43249SOL     OW31578   8.919  10.187  14.612
43249SOL    HW131579   8.911  10.193  14.707
43249SOL    HW231580   8.841  10.138  14.585
43250SOL     OW31581   7.037   3.993  10.004
43250SOL    HW131582   7.045   3.981  10.099
43250SOL    HW231583   7.050   3.906   9.968
43251SOL     OW31584   6.834  14.080   9.627
43251SOL    HW131585   6.921  14.063   9.589
43251SOL    HW231586   6.774  14.072   9.552
43252SOL     OW31587   8.048   0.526  13.412
43252SOL    HW131588   8.024   0.436  13.432
43252SOL    HW231589   8.112   0.550  13.480
43253SOL     OW31590   1.808   9.188  14.771
43253SOL    HW131591   1.761   9.245  14.831
43253SOL    HW231592   1.809   9.102  14.813
43254SOL     OW31593   3.083   3.032  11.086
43254SOL    HW131594   3.129   3.070  11.161
43254SOL    HW231595   3.040   3.107  11.044
43255SOL     OW31596  12.171   7.149   0.587
43255SOL    HW131597  12.092   7.132   0.639
43255SOL    HW231598  12.156   7.235   0.548
43256SOL     OW31599   9.008   0.885  10.145
43256SOL    HW131600   8.996   0.833  10.066
43256SOL    HW231601   9.065   0.957  10.117
43257SOL     OW31602   6.059   9.125   0.861
43257SOL    HW131603   6.147   9.124   0.900
43257SOL    HW231604   6.064   9.192   0.793
43258SOL     OW31605  14.381  10.004  12.300
43258SOL    HW131606  14.460   9.954  12.281
43258SOL    HW231607  14.360   9.982  12.391
43259SOL     OW31608   7.930   3.205  12.854
43259SOL    HW131609   7.923   3.267  12.927
43259SOL    HW231610   7.968   3.256  12.782
43260SOL     OW31611   7.611   9.620   6.293
43260SOL    HW131612   7.637   9.614   6.385
43260SOL    HW231613   7.516   9.630   6.296
43261SOL     OW31614   0.793   2.636  10.484
43261SOL    HW131615   0.863   2.571  10.488
43261SOL    HW231616   0.718   2.593  10.523
43262SOL     OW31617  11.648   6.689  13.432
43262SOL    HW131618  11.572   6.694  13.375
43262SOL    HW231619  11.634   6.759  13.496
43263SOL     OW31620  13.736   6.786  10.694
43263SOL    HW131621  13.816   6.835  10.675
43263SOL    HW231622  13.681   6.849  10.741
43264SOL     OW31623  13.158  13.909   8.383
43264SOL    HW131624  13.105  13.838   8.348
43264SOL    HW231625  13.220  13.931   8.313
43265SOL     OW31626   7.401   6.256   5.773
43265SOL    HW131627   7.333   6.260   5.840
43265SOL    HW231628   7.478   6.223   5.819
43266SOL     OW31629   0.075   0.626   8.101
43266SOL    HW131630  14.857   0.606   8.106
43266SOL    HW231631   0.101   0.601   8.013
43267SOL     OW31632   2.218  10.038   2.813
43267SOL    HW131633   2.258  10.042   2.726
43267SOL    HW231634   2.272   9.974   2.860
43268SOL     OW31635   9.349   5.853   4.001
43268SOL    HW131636   9.307   5.901   3.930
43268SOL    HW231637   9.386   5.776   3.958
43269SOL     OW31638   8.004   6.601   1.006
43269SOL    HW131639   7.985   6.588   0.913
43269SOL    HW231640   7.983   6.693   1.022
43270SOL     OW31641   8.264  13.727   8.560
43270SOL    HW131642   8.349  13.755   8.592
43270SOL    HW231643   8.266  13.631   8.566
43271SOL     OW31644   3.906  12.579  10.377
43271SOL    HW131645   3.815  12.604  10.359
43271SOL    HW231646   3.920  12.608  10.467
43272SOL     OW31647   1.716   9.976   0.901
43272SOL    HW131648   1.719   9.881   0.897
43272SOL    HW231649   1.630   9.999   0.867
43273SOL     OW31650  12.687   3.990   1.361
43273SOL    HW131651  12.770   3.942   1.366
43273SOL    HW231652  12.713   4.082   1.355
43274SOL     OW31653   0.624   7.164   8.206
43274SOL    HW131654   0.531   7.182   8.219
43274SOL    HW231655   0.669   7.236   8.251
43275SOL     OW31656  10.234   1.234   4.079
43275SOL    HW131657  10.314   1.181   4.083
43275SOL    HW231658  10.237   1.275   3.993
43276SOL     OW31659   2.538   6.737   3.460
43276SOL    HW131660   2.541   6.666   3.524
43276SOL    HW231661   2.613   6.722   3.402
43277SOL     OW31662   6.079   0.711   8.966
43277SOL    HW131663   6.096   0.643   8.901
43277SOL    HW231664   6.115   0.791   8.928
43278SOL     OW31665   4.414   8.597   2.582
43278SOL    HW131666   4.352   8.594   2.655
43278SOL    HW231667   4.467   8.675   2.598
43279SOL     OW31668  13.227  13.554  10.399
43279SOL    HW131669  13.219  13.512  10.313
43279SOL    HW231670  13.313  13.596  10.398
43280SOL     OW31671   1.741   9.478  13.101
43280SOL    HW131672   1.655   9.462  13.140
43280SOL    HW231673   1.744   9.572  13.086
43281SOL     OW31674  12.095   5.022   3.391
43281SOL    HW131675  12.131   4.985   3.310
43281SOL    HW231676  12.002   4.999   3.388
43282SOL     OW31677   5.484   4.032   7.424
43282SOL    HW131678   5.396   4.022   7.389
43282SOL    HW231679   5.472   4.028   7.519
43283SOL     OW31680   9.976   9.953   6.376
43283SOL    HW131681   9.939   9.997   6.452
43283SOL    HW231682   9.912   9.969   6.306
43284SOL     OW31683   5.866   8.901   3.701
43284SOL    HW131684   5.826   8.938   3.623
43284SOL    HW231685   5.934   8.964   3.725
43285SOL     OW31686  12.448   1.910  11.347
43285SOL    HW131687  12.445   1.906  11.443
43285SOL    HW231688  12.486   1.995  11.328
43286SOL     OW31689   3.607   5.623   7.484
43286SOL    HW131690   3.562   5.549   7.444
43286SOL    HW231691   3.555   5.699   7.460
43287SOL     OW31692   1.060   4.595   8.320
43287SOL    HW131693   1.037   4.505   8.299
43287SOL    HW231694   1.066   4.596   8.416
43288SOL     OW31695  12.210   8.230  11.019
43288SOL    HW131696  12.258   8.193  10.945
43288SOL    HW231697  12.155   8.298  10.981
43289SOL     OW31698   2.336  10.564  11.103
43289SOL    HW131699   2.329  10.499  11.033
43289SOL    HW231700   2.390  10.634  11.065
43290SOL     OW31701  14.189   1.888  13.367
43290SOL    HW131702  14.242   1.904  13.288
43290SOL    HW231703  14.215   1.957  13.427
43291SOL     OW31704   6.301   7.072  11.697
43291SOL    HW131705   6.390   7.106  11.697
43291SOL    HW231706   6.249   7.140  11.653
43292SOL     OW31707  11.420  11.515   4.942
43292SOL    HW131708  11.501  11.564   4.956
43292SOL    HW231709  11.388  11.545   4.858
43293SOL     OW31710   4.665   7.571   3.634
43293SOL    HW131711   4.715   7.619   3.700
43293SOL    HW231712   4.579   7.613   3.634
43294SOL     OW31713   1.078   2.686   1.764
43294SOL    HW131714   1.166   2.656   1.744
43294SOL    HW231715   1.028   2.606   1.782
43295SOL     OW31716   3.352   1.650   6.249
43295SOL    HW131717   3.357   1.560   6.282
43295SOL    HW231718   3.376   1.705   6.323
43296SOL     OW31719  12.764   1.161  14.379
43296SOL    HW131720  12.857   1.177  14.395
43296SOL    HW231721  12.746   1.079  14.425
43297SOL     OW31722  11.605  10.746   6.292
43297SOL    HW131723  11.653  10.730   6.373
43297SOL    HW231724  11.664  10.801   6.240
43298SOL     OW31725   1.169   7.599  13.431
43298SOL    HW131726   1.239   7.536  13.418
43298SOL    HW231727   1.098   7.569  13.373
43299SOL     OW31728   4.411   1.924  13.221
43299SOL    HW131729   4.359   1.989  13.267
43299SOL    HW231730   4.492   1.916  13.272
43300SOL     OW31731   2.999  10.434  14.506
43300SOL    HW131732   2.955  10.417  14.423
43300SOL    HW231733   2.928  10.445  14.569
43301SOL     OW31734   7.830   2.583  14.250
43301SOL    HW131735   7.827   2.562  14.343
43301SOL    HW231736   7.899   2.648  14.242
43302SOL     OW31737  10.777   6.362  12.290
43302SOL    HW131738  10.816   6.321  12.212
43302SOL    HW231739  10.850   6.371  12.351
43303SOL     OW31740   1.765   3.705   3.940
43303SOL    HW131741   1.845   3.757   3.935
43303SOL    HW231742   1.732   3.703   3.851
43304SOL     OW31743  14.876  11.380   3.306
43304SOL    HW131744  14.801  11.336   3.348
43304SOL    HW231745   0.059  11.400   3.379
43305SOL     OW31746   8.544  12.623  14.586
43305SOL    HW131747   8.591  12.609  14.504
43305SOL    HW231748   8.610  12.652  14.648
43306SOL     OW31749  14.269  13.646  11.487
43306SOL    HW131750  14.267  13.551  11.475
43306SOL    HW231751  14.346  13.675  11.438
43307SOL     OW31752   6.588   5.580  13.256
43307SOL    HW131753   6.514   5.534  13.295
43307SOL    HW231754   6.629   5.627  13.329
43308SOL     OW31755  14.788  10.938   7.230
43308SOL    HW131756   0.006  10.933   7.250
43308SOL    HW231757  14.757  10.847   7.240
43309SOL     OW31758   1.160  14.756   5.853
43309SOL    HW131759   1.157  14.666   5.821
43309SOL    HW231760   1.199  14.749   5.940
43310SOL     OW31761  10.898  12.562   3.154
43310SOL    HW131762  10.833  12.632   3.161
43310SOL    HW231763  10.978  12.600   3.188
43311SOL     OW31764  13.717  14.313   9.345
43311SOL    HW131765  13.662  14.257   9.401
43311SOL    HW231766  13.658  14.381   9.314
43312SOL     OW31767  13.623  12.946   6.065
43312SOL    HW131768  13.719  12.948   6.061
43312SOL    HW231769  13.600  13.013   6.128
43313SOL     OW31770   5.046   3.991  11.511
43313SOL    HW131771   5.012   3.903  11.527
43313SOL    HW231772   5.102   3.981  11.434
43314SOL     OW31773  11.145   5.402  11.648
43314SOL    HW131774  11.234   5.392  11.681
43314SOL    HW231775  11.105   5.468  11.705
43315SOL     OW31776  10.863   4.054   9.049
43315SOL    HW131777  10.899   3.988   9.109
43315SOL    HW231778  10.851   4.007   8.967
43316SOL     OW31779  14.074   9.380  13.263
43316SOL    HW131780  14.168   9.380  13.244
43316SOL    HW231781  14.068   9.345  13.351
43317SOL     OW31782   8.826   3.865  14.072
43317SOL    HW131783   8.745   3.912  14.052
43317SOL    HW231784   8.895   3.918  14.031
43318SOL     OW31785  13.680   8.265   2.102
43318SOL    HW131786  13.664   8.287   2.010
43318SOL    HW231787  13.608   8.308   2.149
43319SOL     OW31788   5.315   6.385   9.141
43319SOL    HW131789   5.401   6.364   9.178
43319SOL    HW231790   5.335   6.431   9.059
43320SOL     OW31791  14.637   7.561  10.595
43320SOL    HW131792  14.694   7.551  10.672
43320SOL    HW231793  14.552   7.528  10.623
43321SOL     OW31794  12.187  12.039   5.775
43321SOL    HW131795  12.146  11.952   5.779
43321SOL    HW231796  12.253  12.038   5.844
43322SOL     OW31797   7.196  11.529  14.451
43322SOL    HW131798   7.146  11.477  14.387
43322SOL    HW231799   7.141  11.529  14.529
43323SOL     OW31800  11.571   2.193   0.434
43323SOL    HW131801  11.633   2.191   0.507
43323SOL    HW231802  11.537   2.282   0.434
43324SOL     OW31803  12.931  13.035   6.975
43324SOL    HW131804  12.940  13.036   6.880
43324SOL    HW231805  12.837  13.049   6.990
43325SOL     OW31806   5.741   4.966  12.334
43325SOL    HW131807   5.700   4.889  12.374
43325SOL    HW231808   5.825   4.974  12.379
43326SOL     OW31809  12.045  11.165  10.290
43326SOL    HW131810  12.025  11.240  10.233
43326SOL    HW231811  11.968  11.156  10.346
43327SOL     OW31812   8.565   3.300   8.825
43327SOL    HW131813   8.536   3.212   8.847
43327SOL    HW231814   8.656   3.289   8.799
43328SOL     OW31815   6.755   9.564   4.305
43328SOL    HW131816   6.669   9.592   4.336
43328SOL    HW231817   6.814   9.581   4.379
43329SOL     OW31818   9.219  12.791   0.794
43329SOL    HW131819   9.280  12.739   0.742
43329SOL    HW231820   9.255  12.879   0.791
43330SOL     OW31821  11.536   6.079   6.895
43330SOL    HW131822  11.567   6.113   6.812
43330SOL    HW231823  11.579   5.994   6.904
43331SOL     OW31824  11.008  10.125   8.638
43331SOL    HW131825  11.013  10.178   8.558
43331SOL    HW231826  11.087  10.149   8.687
43332SOL     OW31827  10.009   3.363  11.196
43332SOL    HW131828   9.964   3.317  11.267
43332SOL    HW231829   9.938   3.389  11.136
43333SOL     OW31830   2.093  10.722   3.389
43333SOL    HW131831   2.051  10.671   3.320
43333SOL    HW231832   2.096  10.662   3.464
43334SOL     OW31833   6.336   2.596   1.880
43334SOL    HW131834   6.363   2.675   1.927
43334SOL    HW231835   6.245   2.582   1.908
43335SOL     OW31836   2.432  10.297  11.654
43335SOL    HW131837   2.385  10.346  11.587
43335SOL    HW231838   2.363  10.267  11.714
43336SOL     OW31839  12.127  10.740   6.964
43336SOL    HW131840  12.072  10.818   6.979
43336SOL    HW231841  12.214  10.775   6.949
43337SOL     OW31842   3.709   3.198  10.047
43337SOL    HW131843   3.679   3.257  10.115
43337SOL    HW231844   3.750   3.256   9.982
43338SOL     OW31845  11.418  10.338  12.255
43338SOL    HW131846  11.329  10.304  12.266
43338SOL    HW231847  11.467  10.301  12.328
43339SOL     OW31848   0.720   7.409  12.858
43339SOL    HW131849   0.773   7.421  12.779
43339SOL    HW231850   0.761   7.334  12.902
43340SOL     OW31851   2.435   9.301   8.678
43340SOL    HW131852   2.355   9.250   8.690
43340SOL    HW231853   2.453   9.338   8.765
43341SOL     OW31854   7.775  12.284   1.640
43341SOL    HW131855   7.732  12.341   1.577
43341SOL    HW231856   7.864  12.273   1.606
43342SOL     OW31857  14.509  11.857   6.875
43342SOL    HW131858  14.545  11.946   6.874
43342SOL    HW231859  14.459  11.851   6.793
43343SOL     OW31860   7.927   1.302   5.109
43343SOL    HW131861   7.831   1.308   5.109
43343SOL    HW231862   7.946   1.229   5.050
43344SOL     OW31863  13.469  14.529   5.899
43344SOL    HW131864  13.527  14.587   5.849
43344SOL    HW231865  13.436  14.583   5.970
43345SOL     OW31866  14.243  11.742   3.529
43345SOL    HW131867  14.255  11.789   3.611
43345SOL    HW231868  14.258  11.650   3.551
43346SOL     OW31869  10.922   3.464   2.360
43346SOL    HW131870  10.884   3.543   2.399
43346SOL    HW231871  10.882   3.392   2.408
43347SOL     OW31872   2.738  14.801   7.975
43347SOL    HW131873   2.688  14.720   7.984
43347SOL    HW231874   2.791  14.788   7.897
43348SOL     OW31875   4.186  11.917   8.815
43348SOL    HW131876   4.199  11.969   8.895
43348SOL    HW231877   4.201  11.827   8.842
43349SOL     OW31878  10.204   3.147   4.546
43349SOL    HW131879  10.259   3.140   4.625
43349SOL    HW231880  10.168   3.235   4.551
43350SOL     OW31881   3.789   3.932   8.342
43350SOL    HW131882   3.768   3.870   8.271
43350SOL    HW231883   3.814   4.012   8.296
43351SOL     OW31884   1.583   4.655  11.975
43351SOL    HW131885   1.511   4.714  12.000
43351SOL    HW231886   1.655   4.680  12.033
43352SOL     OW31887   9.834   5.822   6.268
43352SOL    HW131888   9.788   5.902   6.293
43352SOL    HW231889   9.765   5.755   6.267
43353SOL     OW31890  14.295   5.952   2.186
43353SOL    HW131891  14.256   5.902   2.114
43353SOL    HW231892  14.263   5.908   2.266
43354SOL     OW31893   5.378   3.802   7.036
43354SOL    HW131894   5.449   3.851   6.995
43354SOL    HW231895   5.391   3.712   7.005
43355SOL     OW31896   9.098   3.323  10.955
43355SOL    HW131897   9.037   3.301  11.026
43355SOL    HW231898   9.081   3.415  10.937
43356SOL     OW31899  10.530   2.138  10.073
43356SOL    HW131900  10.455   2.143  10.014
43356SOL    HW231901  10.592   2.080  10.029
43357SOL     OW31902  14.308   6.786  11.665
43357SOL    HW131903  14.366   6.716  11.695
43357SOL    HW231904  14.248   6.742  11.604
43358SOL     OW31905   1.839   8.100  10.433
43358SOL    HW131906   1.810   8.014  10.463
43358SOL    HW231907   1.815   8.159  10.504
43359SOL     OW31908   5.172  13.916  12.829
43359SOL    HW131909   5.085  13.955  12.817
43359SOL    HW231910   5.192  13.876  12.744
43360SOL     OW31911   4.131   9.139  11.105
43360SOL    HW131912   4.057   9.155  11.163
43360SOL    HW231913   4.202   9.111  11.164
43361SOL     OW31914   9.525   2.819  11.266
43361SOL    HW131915   9.530   2.815  11.170
43361SOL    HW231916   9.494   2.732  11.292
43362SOL     OW31917   0.669   6.388   1.747
43362SOL    HW131918   0.721   6.361   1.672
43362SOL    HW231919   0.658   6.483   1.736
43363SOL     OW31920   7.441  12.520   1.969
43363SOL    HW131921   7.413  12.564   1.889
43363SOL    HW231922   7.441  12.427   1.948
43364SOL     OW31923   6.847   8.256   5.514
43364SOL    HW131924   6.860   8.201   5.591
43364SOL    HW231925   6.758   8.290   5.523
43365SOL     OW31926   6.828   4.784  10.473
43365SOL    HW131927   6.884   4.757  10.400
43365SOL    HW231928   6.740   4.761  10.444
43366SOL     OW31929   6.386   1.297   3.685
43366SOL    HW131930   6.332   1.370   3.653
43366SOL    HW231931   6.345   1.219   3.649
43367SOL     OW31932  10.552   6.919  10.804
43367SOL    HW131933  10.623   6.978  10.831
43367SOL    HW231934  10.588   6.871  10.730
43368SOL     OW31935  11.633  10.944  10.768
43368SOL    HW131936  11.579  10.881  10.721
43368SOL    HW231937  11.645  11.016  10.707
43369SOL     OW31938   5.220  10.437  11.173
43369SOL    HW131939   5.249  10.347  11.163
43369SOL    HW231940   5.284  10.489  11.124
43370SOL     OW31941   1.614  12.879  10.390
43370SOL    HW131942   1.572  12.933  10.456
43370SOL    HW231943   1.627  12.938  10.315
43371SOL     OW31944   5.069  12.735   7.447
43371SOL    HW131945   5.105  12.699   7.528
43371SOL    HW231946   5.000  12.674   7.422
43372SOL     OW31947  11.267  10.844   2.211
43372SOL    HW131948  11.264  10.809   2.300
43372SOL    HW231949  11.322  10.781   2.163
43373SOL     OW31950   5.334  13.578   0.783
43373SOL    HW131951   5.327  13.498   0.731
43373SOL    HW231952   5.319  13.649   0.721
43374SOL     OW31953   6.503  11.894   4.946
43374SOL    HW131954   6.549  11.931   4.871
43374SOL    HW231955   6.572  11.878   5.010
43375SOL     OW31956   6.724   6.746   0.154
43375SOL    HW131957   6.696   6.809   0.221
43375SOL    HW231958   6.820   6.751   0.156
43376SOL     OW31959   7.968   5.661   4.050
43376SOL    HW131960   8.002   5.634   3.965
43376SOL    HW231961   8.045   5.687   4.100
43377SOL     OW31962  14.353  12.977  14.006
43377SOL    HW131963  14.423  12.914  13.992
43377SOL    HW231964  14.291  12.961  13.934
43378SOL     OW31965   5.659   0.868   1.476
43378SOL    HW131966   5.702   0.884   1.560
43378SOL    HW231967   5.566   0.867   1.497
43379SOL     OW31968  13.688   1.622   5.716
43379SOL    HW131969  13.673   1.530   5.738
43379SOL    HW231970  13.778   1.640   5.743
43380SOL     OW31971   1.685   9.234   5.149
43380SOL    HW131972   1.632   9.158   5.125
43380SOL    HW231973   1.643   9.308   5.105
43381SOL     OW31974   6.955   4.895   2.921
43381SOL    HW131975   6.899   4.861   2.850
43381SOL    HW231976   6.893   4.938   2.981
43382SOL     OW31977   7.344  11.222  11.701
43382SOL    HW131978   7.268  11.280  11.700
43382SOL    HW231979   7.355  11.196  11.610
43383SOL     OW31980   2.078  13.709  11.503
43383SOL    HW131981   2.170  13.697  11.478
43383SOL    HW231982   2.071  13.667  11.589
43384SOL     OW31983  10.073  14.547   1.146
43384SOL    HW131984  10.055  14.457   1.173
43384SOL    HW231985  10.055  14.549   1.052
43385SOL     OW31986  14.775   1.418   7.022
43385SOL    HW131987  14.771   1.331   7.062
43385SOL    HW231988  14.795   1.476   7.095
43386SOL     OW31989   6.201   0.178  12.374
43386SOL    HW131990   6.239   0.092  12.391
43386SOL    HW231991   6.118   0.177  12.421
43387SOL     OW31992   2.535   1.029   0.317
43387SOL    HW131993   2.581   0.965   0.371
43387SOL    HW231994   2.450   1.039   0.359
43388SOL     OW31995   7.700   5.504   5.455
43388SOL    HW131996   7.767   5.494   5.387
43388SOL    HW231997   7.666   5.592   5.442
43389SOL     OW31998   8.617   1.035   3.513
43389SOL    HW131999   8.704   1.007   3.485
43389SOL    HW232000   8.594   0.975   3.584
43390SOL     OW32001   9.026   4.155   3.518
43390SOL    HW132002   8.982   4.110   3.445
43390SOL    HW232003   8.956   4.205   3.560
43391SOL     OW32004  13.390  13.658   1.573
43391SOL    HW132005  13.485  13.648   1.578
43391SOL    HW232006  13.363  13.589   1.512
43392SOL     OW32007  12.186   2.283   8.727
43392SOL    HW132008  12.131   2.271   8.805
43392SOL    HW232009  12.247   2.353   8.751
43393SOL     OW32010   8.813  13.731   8.890
43393SOL    HW132011   8.844  13.687   8.969
43393SOL    HW232012   8.834  13.671   8.818
43394SOL     OW32013  13.550  11.242  10.907
43394SOL    HW132014  13.553  11.324  10.859
43394SOL    HW232015  13.467  11.202  10.882
43395SOL     OW32016   0.216   9.144   8.813
43395SOL    HW132017   0.198   9.055   8.843
43395SOL    HW232018   0.275   9.180   8.878
43396SOL     OW32019   4.345   0.890   4.572
43396SOL    HW132020   4.318   0.808   4.613
43396SOL    HW232021   4.314   0.958   4.632
43397SOL     OW32022  10.344   1.246  10.980
43397SOL    HW132023  10.392   1.250  11.063
43397SOL    HW232024  10.394   1.184  10.927
43398SOL     OW32025  11.770   3.262   0.427
43398SOL    HW132026  11.813   3.310   0.356
43398SOL    HW232027  11.825   3.278   0.504
43399SOL     OW32028  13.739   0.706  12.896
43399SOL    HW132029  13.715   0.633  12.840
43399SOL    HW232030  13.689   0.780  12.862
43400SOL     OW32031   9.479  11.108   8.982
43400SOL    HW132032   9.533  11.187   8.989
43400SOL    HW232033   9.528  11.050   8.924
43401SOL     OW32034   9.533   3.379   8.577
43401SOL    HW132035   9.466   3.370   8.510
43401SOL    HW232036   9.616   3.381   8.528
43402SOL     OW32037   6.293  10.813   6.994
43402SOL    HW132038   6.344  10.753   7.048
43402SOL    HW232039   6.207  10.771   6.987
43403SOL     OW32040  10.507   1.137   2.052
43403SOL    HW132041  10.520   1.229   2.033
43403SOL    HW232042  10.438   1.109   1.993
43404SOL     OW32043   5.410  13.179   8.946
43404SOL    HW132044   5.484  13.176   9.007
43404SOL    HW232045   5.406  13.270   8.918
43405SOL     OW32046   1.573   2.896   4.068
43405SOL    HW132047   1.654   2.874   4.113
43405SOL    HW232048   1.534   2.812   4.045
43406SOL     OW32049  14.666  10.613  14.730
43406SOL    HW132050  14.658  10.682  14.665
43406SOL    HW232051  14.653  10.532  14.680
43407SOL     OW32052  11.980   7.197   4.369
43407SOL    HW132053  11.927   7.272   4.394
43407SOL    HW232054  12.039   7.183   4.442
43408SOL     OW32055   3.676  13.433  14.819
43408SOL    HW132056   3.640  13.385   0.018
43408SOL    HW232057   3.689  13.366  14.752
43409SOL     OW32058  10.783   6.300   3.395
43409SOL    HW132059  10.688   6.288   3.396
43409SOL    HW232060  10.802   6.337   3.309
43410SOL     OW32061   2.500   6.192  11.485
43410SOL    HW132062   2.491   6.288  11.483
43410SOL    HW232063   2.594   6.178  11.497
43411SOL     OW32064   0.693   1.327   5.825
43411SOL    HW132065   0.700   1.233   5.806
43411SOL    HW232066   0.647   1.331   5.909
43412SOL     OW32067  13.966   6.106   3.694
43412SOL    HW132068  13.910   6.083   3.620
43412SOL    HW232069  13.948   6.038   3.760
43413SOL     OW32070   8.645  12.406  13.278
43413SOL    HW132071   8.590  12.404  13.200
43413SOL    HW232072   8.591  12.448  13.345
43414SOL     OW32073   4.600   3.918   8.556
43414SOL    HW132074   4.647   3.999   8.540
43414SOL    HW232075   4.509   3.937   8.531
43415SOL     OW32076   5.220  12.413   7.925
43415SOL    HW132077   5.261  12.499   7.932
43415SOL    HW232078   5.194  12.406   7.833
43416SOL     OW32079   0.085   8.560  11.771
43416SOL    HW132080   0.041   8.569  11.855
43416SOL    HW232081   0.015   8.536  11.710
43417SOL     OW32082  10.683  11.993  13.391
43417SOL    HW132083  10.674  12.075  13.438
43417SOL    HW232084  10.612  11.938  13.425
43418SOL     OW32085   8.353   1.457   1.038
43418SOL    HW132086   8.394   1.398   0.976
43418SOL    HW232087   8.261   1.461   1.010
43419SOL     OW32088  11.613   6.466   2.657
43419SOL    HW132089  11.702   6.502   2.665
43419SOL    HW232090  11.600   6.456   2.563
43420SOL     OW32091   4.586   7.151   9.122
43420SOL    HW132092   4.519   7.126   9.058
43420SOL    HW232093   4.556   7.234   9.157
43421SOL     OW32094   7.733   1.252   4.704
43421SOL    HW132095   7.673   1.283   4.772
43421SOL    HW232096   7.801   1.205   4.751
43422SOL     OW32097   6.637  12.051  11.401
43422SOL    HW132098   6.603  12.039  11.490
43422SOL    HW232099   6.727  12.019  11.406
43423SOL     OW32100  14.589   0.269   3.289
43423SOL    HW132101  14.583   0.277   3.384
43423SOL    HW232102  14.507   0.228   3.263
43424SOL     OW32103   6.450   0.932   0.986
43424SOL    HW132104   6.364   0.960   1.017
43424SOL    HW232105   6.501   0.920   1.066
43425SOL     OW32106  13.962   4.480   9.834
43425SOL    HW132107  14.054   4.490   9.854
43425SOL    HW232108  13.954   4.503   9.741
43426SOL     OW32109   5.103   3.072   6.412
43426SOL    HW132110   5.030   3.109   6.362
43426SOL    HW232111   5.114   2.984   6.377
43427SOL     OW32112   0.134   9.050   0.520
43427SOL    HW132113   0.208   9.008   0.475
43427SOL    HW232114   0.069   8.980   0.527
43428SOL     OW32115  14.716   7.118   1.027
43428SOL    HW132116  14.805   7.138   0.996
43428SOL    HW232117  14.659   7.175   0.976
43429SOL     OW32118   6.866   9.330   5.164
43429SOL    HW132119   6.923   9.347   5.239
43429SOL    HW232120   6.778   9.347   5.196
43430SOL     OW32121  13.449   9.687  10.282
43430SOL    HW132122  13.360   9.693  10.249
43430SOL    HW232123  13.486   9.609  10.240
43431SOL     OW32124   0.597   4.698   7.279
43431SOL    HW132125   0.635   4.702   7.192
43431SOL    HW232126   0.566   4.787   7.295
43432SOL     OW32127   7.904   1.592  14.208
43432SOL    HW132128   7.907   1.511  14.157
43432SOL    HW232129   7.855   1.653  14.153
43433SOL     OW32130   7.497  13.047   4.540
43433SOL    HW132131   7.471  12.956   4.556
43433SOL    HW232132   7.575  13.059   4.594
43434SOL     OW32133   2.176   9.776   6.786
43434SOL    HW132134   2.249   9.729   6.745
43434SOL    HW232135   2.206   9.793   6.875
43435SOL     OW32136   2.338  10.059   7.842
43435SOL    HW132137   2.416  10.094   7.885
43435SOL    HW232138   2.357   9.966   7.829
43436SOL     OW32139  13.648  13.674  14.053
43436SOL    HW132140  13.585  13.675  14.124
43436SOL    HW232141  13.597  13.692  13.974
43437SOL     OW32142  13.209   7.445   5.659
43437SOL    HW132143  13.178   7.433   5.749
43437SOL    HW232144  13.144   7.402   5.605
43438SOL     OW32145   6.220  13.769   2.451
43438SOL    HW132146   6.292  13.783   2.390
43438SOL    HW232147   6.261  13.732   2.529
43439SOL     OW32148  11.828   4.058   9.072
43439SOL    HW132149  11.858   4.148   9.066
43439SOL    HW232150  11.777   4.044   8.992
43440SOL     OW32151  12.359  14.145   4.935
43440SOL    HW132152  12.290  14.205   4.907
43440SOL    HW232153  12.335  14.120   5.024
43441SOL     OW32154  11.662   1.176  13.531
43441SOL    HW132155  11.605   1.205  13.603
43441SOL    HW232156  11.652   1.244  13.464
43442SOL     OW32157   8.052   2.177   6.035
43442SOL    HW132158   8.068   2.207   6.125
43442SOL    HW232159   8.052   2.082   6.041
43443SOL     OW32160   3.491  13.921   7.878
43443SOL    HW132161   3.522  13.932   7.788
43443SOL    HW232162   3.570  13.898   7.927
43444SOL     OW32163  11.346  14.250   2.902
43444SOL    HW132164  11.372  14.214   2.987
43444SOL    HW232165  11.410  14.319   2.884
43445SOL     OW32166   2.736   6.218  11.825
43445SOL    HW132167   2.713   6.126  11.815
43445SOL    HW232168   2.828   6.223  11.798
43446SOL     OW32169   6.135  10.355   5.916
43446SOL    HW132170   6.096  10.269   5.936
43446SOL    HW232171   6.127  10.364   5.821
43447SOL     OW32172  14.101   8.619   0.732
43447SOL    HW132173  14.102   8.653   0.642
43447SOL    HW232174  14.177   8.561   0.737
43448SOL     OW32175  12.493   6.109  14.725
43448SOL    HW132176  12.513   6.039  14.787
43448SOL    HW232177  12.497   6.189  14.777
43449SOL     OW32178   6.966   0.579   0.730
43449SOL    HW132179   6.947   0.514   0.798
43449SOL    HW232180   6.947   0.663   0.771
43450SOL     OW32181   8.827   0.852   6.104
43450SOL    HW132182   8.751   0.808   6.142
43450SOL    HW232183   8.829   0.823   6.013
43451SOL     OW32184  14.636  12.436   5.246
43451SOL    HW132185  14.691  12.359   5.230
43451SOL    HW232186  14.625  12.476   5.160
43452SOL     OW32187   1.549  10.063   7.288
43452SOL    HW132188   1.522   9.985   7.238
43452SOL    HW232189   1.637  10.041   7.320
43453SOL     OW32190   3.043  10.483   0.603
43453SOL    HW132191   3.062  10.464   0.695
43453SOL    HW232192   2.989  10.562   0.605
43454SOL     OW32193   8.003   8.317   2.461
43454SOL    HW132194   7.912   8.330   2.435
43454SOL    HW232195   8.029   8.401   2.499
43455SOL     OW32196  12.769  11.593   5.134
43455SOL    HW132197  12.785  11.675   5.181
43455SOL    HW232198  12.764  11.619   5.042
43456SOL     OW32199  10.321   2.450  11.630
43456SOL    HW132200  10.264   2.390  11.678
43456SOL    HW232201  10.272   2.532  11.625
43457SOL     OW32202   6.278   2.948   1.933
43457SOL    HW132203   6.257   3.040   1.916
43457SOL    HW232204   6.217   2.922   2.002
43458SOL     OW32205   1.674  14.495   9.411
43458SOL    HW132206   1.651  14.427   9.475
43458SOL    HW232207   1.630  14.574   9.444
43459SOL     OW32208   7.999   6.504   8.966
43459SOL    HW132209   7.924   6.495   9.025
43459SOL    HW232210   8.061   6.437   8.996
43460SOL     OW32211  12.906  12.693   5.080
43460SOL    HW132212  12.943  12.632   5.015
43460SOL    HW232213  12.853  12.754   5.028
43461SOL     OW32214  10.288  13.812   2.366
43461SOL    HW132215  10.201  13.849   2.385
43461SOL    HW232216  10.301  13.828   2.273
43462SOL     OW32217  14.865   2.203   2.636
43462SOL    HW132218   0.043   2.127   2.659
43462SOL    HW232219   0.030   2.277   2.680
43463SOL     OW32220   9.781   7.052   1.995
43463SOL    HW132221   9.702   6.998   2.007
43463SOL    HW232222   9.846   7.011   2.051
43464SOL     OW32223   1.806   1.875   0.058
43464SOL    HW132224   1.775   1.903  14.848
43464SOL    HW232225   1.894   1.840   0.042
43465SOL     OW32226   0.522  12.595   9.220
43465SOL    HW132227   0.597  12.637   9.263
43465SOL    HW232228   0.557  12.513   9.185
43466SOL     OW32229  11.986  14.193   8.825
43466SOL    HW132230  12.072  14.152   8.816
43466SOL    HW232231  11.926  14.119   8.832
43467SOL     OW32232  12.683   1.850   4.311
43467SOL    HW132233  12.683   1.921   4.247
43467SOL    HW232234  12.599   1.805   4.297
43468SOL     OW32235  11.864  12.146   8.780
43468SOL    HW132236  11.800  12.141   8.708
43468SOL    HW232237  11.859  12.237   8.810
43469SOL     OW32238  10.519  14.455   5.165
43469SOL    HW132239  10.457  14.403   5.115
43469SOL    HW232240  10.576  14.494   5.099
43470SOL     OW32241   9.815  11.715   3.322
43470SOL    HW132242   9.805  11.620   3.330
43470SOL    HW232243   9.813  11.731   3.227
43471SOL     OW32244   0.419   5.547   0.771
43471SOL    HW132245   0.393   5.459   0.743
43471SOL    HW232246   0.439   5.593   0.690
43472SOL     OW32247  13.064   6.822  11.282
43472SOL    HW132248  13.106   6.778  11.208
43472SOL    HW232249  12.978   6.847  11.249
43473SOL     OW32250  14.459   0.999  10.325
43473SOL    HW132251  14.404   1.057  10.377
43473SOL    HW232252  14.489   1.053  10.252
43474SOL     OW32253   6.752  12.829   2.373
43474SOL    HW132254   6.811  12.759   2.348
43474SOL    HW232255   6.792  12.868   2.451
43475SOL     OW32256   7.381   8.174  12.553
43475SOL    HW132257   7.356   8.086  12.578
43475SOL    HW232258   7.386   8.172  12.458
43476SOL     OW32259   3.534  14.238  12.745
43476SOL    HW132260   3.520  14.314  12.689
43476SOL    HW232261   3.629  14.230  12.753
43477SOL     OW32262   9.652  13.049  12.258
43477SOL    HW132263   9.659  12.973  12.201
43477SOL    HW232264   9.560  13.073  12.255
43478SOL     OW32265  10.480   6.729  12.775
43478SOL    HW132266  10.410   6.738  12.710
43478SOL    HW232267  10.502   6.818  12.800
43479SOL     OW32268  10.856  10.423   7.097
43479SOL    HW132269  10.936  10.442   7.147
43479SOL    HW232270  10.877  10.452   7.008
43480SOL     OW32271  14.122   1.547  14.556
43480SOL    HW132272  14.060   1.609  14.593
43480SOL    HW232273  14.113   1.469  14.611
43481SOL     OW32274   5.931   9.385   0.953
43481SOL    HW132275   6.003   9.365   0.893
43481SOL    HW232276   5.855   9.395   0.896
43482SOL     OW32277   5.316   6.866  13.737
43482SOL    HW132278   5.332   6.828  13.650
43482SOL    HW232279   5.242   6.925  13.724
43483SOL     OW32280  11.423   0.493   6.582
43483SOL    HW132281  11.401   0.586   6.570
43483SOL    HW232282  11.512   0.494   6.617
43484SOL     OW32283  12.327   1.829   6.159
43484SOL    HW132284  12.306   1.748   6.113
43484SOL    HW232285  12.394   1.871   6.105
43485SOL     OW32286   2.005   9.412   0.689
43485SOL    HW132287   2.058   9.464   0.748
43485SOL    HW232288   2.068   9.356   0.644
43486SOL     OW32289   4.259   2.347  12.412
43486SOL    HW132290   4.319   2.293  12.465
43486SOL    HW232291   4.310   2.368  12.334
43487SOL     OW32292   0.414   0.041   6.207
43487SOL    HW132293   0.363   0.099   6.264
43487SOL    HW232294   0.445  14.847   6.265
43488SOL     OW32295  14.776  10.971   1.864
43488SOL    HW132296  14.847  10.993   1.924
43488SOL    HW232297  14.773  10.876   1.863
43489SOL     OW32298   9.488   4.879  10.334
43489SOL    HW132299   9.555   4.820  10.369
43489SOL    HW232300   9.406   4.828  10.339
43490SOL     OW32301   4.456   1.560  10.423
43490SOL    HW132302   4.440   1.538  10.515
43490SOL    HW232303   4.409   1.493  10.373
43491SOL     OW32304   0.151   3.379   0.866
43491SOL    HW132305   0.141   3.468   0.833
43491SOL    HW232306   0.072   3.363   0.918
43492SOL     OW32307   7.394   0.771   3.548
43492SOL    HW132308   7.441   0.851   3.571
43492SOL    HW232309   7.344   0.749   3.627
43493SOL     OW32310  14.068   5.636   3.836
43493SOL    HW132311  14.094   5.659   3.925
43493SOL    HW232312  14.150   5.633   3.787
43494SOL     OW32313  10.492   4.997   7.536
43494SOL    HW132314  10.468   4.927   7.475
43494SOL    HW232315  10.482   4.959   7.623
43495SOL     OW32316   4.446   0.879   2.068
43495SOL    HW132317   4.449   0.807   2.005
43495SOL    HW232318   4.400   0.843   2.144
43496SOL     OW32319   2.327   4.239  13.521
43496SOL    HW132320   2.419   4.264  13.522
43496SOL    HW232321   2.325   4.160  13.466
43497SOL     OW32322  11.178   0.900   9.068
43497SOL    HW132323  11.153   0.875   8.979
43497SOL    HW232324  11.238   0.973   9.056
43498SOL     OW32325  10.360  13.229  10.355
43498SOL    HW132326  10.406  13.156  10.315
43498SOL    HW232327  10.429  13.285  10.390
43499SOL     OW32328   5.698  13.268   1.070
43499SOL    HW132329   5.657  13.233   0.991
43499SOL    HW232330   5.688  13.199   1.136
43500SOL     OW32331   7.388   8.813   8.086
43500SOL    HW132332   7.448   8.739   8.076
43500SOL    HW232333   7.318   8.779   8.143
43501SOL     OW32334   2.857   6.278  13.292
43501SOL    HW132335   2.925   6.322  13.241
43501SOL    HW232336   2.775   6.316  13.260
43502SOL     OW32337   6.827   5.724  14.121
43502SOL    HW132338   6.852   5.781  14.193
43502SOL    HW232339   6.845   5.775  14.042
43503SOL     OW32340  10.889  10.644   0.080
43503SOL    HW132341  10.911  10.553   0.060
43503SOL    HW232342  10.795  10.642   0.099
43504SOL     OW32343   5.154   9.363   2.106
43504SOL    HW132344   5.190   9.428   2.046
43504SOL    HW232345   5.184   9.279   2.073
43505SOL     OW32346   3.751   9.002   1.732
43505SOL    HW132347   3.801   9.084   1.730
43505SOL    HW232348   3.676   9.022   1.790
43506SOL     OW32349  10.192   4.943  14.257
43506SOL    HW132350  10.165   4.900  14.176
43506SOL    HW232351  10.110   4.962  14.303
43507SOL     OW32352  12.733  11.879  12.012
43507SOL    HW132353  12.713  11.864  12.104
43507SOL    HW232354  12.828  11.869  12.006
43508SOL     OW32355   8.785  14.723   5.067
43508SOL    HW132356   8.832  14.754   5.144
43508SOL    HW232357   8.776  14.629   5.081
43509SOL     OW32358   4.160  11.124   8.504
43509SOL    HW132359   4.229  11.121   8.571
43509SOL    HW232360   4.087  11.076   8.543
43510SOL     OW32361   5.021   9.643   2.891
43510SOL    HW132362   5.077   9.672   2.964
43510SOL    HW232363   5.083   9.613   2.824
43511SOL     OW32364   5.375  11.073  10.664
43511SOL    HW132365   5.412  11.102  10.580
43511SOL    HW232366   5.414  11.132  10.729
43512SOL     OW32367   0.558   1.865   0.280
43512SOL    HW132368   0.558   1.961   0.273
43512SOL    HW232369   0.552   1.848   0.374
43513SOL     OW32370   9.291  13.333   6.788
43513SOL    HW132371   9.260  13.244   6.772
43513SOL    HW232372   9.382  13.332   6.756
43514SOL     OW32373   6.360   8.922   6.713
43514SOL    HW132374   6.267   8.945   6.704
43514SOL    HW232375   6.360   8.841   6.762
43515SOL     OW32376   9.414   5.892   6.062
43515SOL    HW132377   9.509   5.883   6.061
43515SOL    HW232378   9.398   5.986   6.054
43516SOL     OW32379   0.670   8.400   2.075
43516SOL    HW132380   0.667   8.479   2.022
43516SOL    HW232381   0.606   8.341   2.035
43517SOL     OW32382  10.358   0.749   8.130
43517SOL    HW132383  10.275   0.705   8.111
43517SOL    HW232384  10.365   0.817   8.062
43518SOL     OW32385   7.492  13.671   2.268
43518SOL    HW132386   7.410  13.669   2.218
43518SOL    HW232387   7.558  13.642   2.206
43519SOL     OW32388   6.704   6.390   5.997
43519SOL    HW132389   6.739   6.427   6.077
43519SOL    HW232390   6.630   6.336   6.026
43520SOL     OW32391   5.189  10.645   7.550
43520SOL    HW132392   5.229  10.566   7.513
43520SOL    HW232393   5.263  10.694   7.587
43521SOL     OW32394  10.719  10.256   1.377
43521SOL    HW132395  10.651  10.231   1.440
43521SOL    HW232396  10.782  10.306   1.429
43522SOL     OW32397  13.020  13.919   8.074
43522SOL    HW132398  13.008  13.886   7.985
43522SOL    HW232399  12.960  13.994   8.080
43523SOL     OW32400   7.590   0.680  11.515
43523SOL    HW132401   7.590   0.584  11.517
43523SOL    HW232402   7.649   0.704  11.444
43524SOL     OW32403   4.499   2.438   1.467
43524SOL    HW132404   4.586   2.434   1.506
43524SOL    HW232405   4.440   2.455   1.540
43525SOL     OW32406   3.709  10.860   0.478
43525SOL    HW132407   3.737  10.769   0.468
43525SOL    HW232408   3.784  10.903   0.520
43526SOL     OW32409  11.402   7.357   7.074
43526SOL    HW132410  11.420   7.306   7.152
43526SOL    HW232411  11.314   7.393   7.088
43527SOL     OW32412   3.182   7.051   0.761
43527SOL    HW132413   3.121   7.116   0.798
43527SOL    HW232414   3.182   7.069   0.667
43528SOL     OW32415  14.835   1.934   0.570
43528SOL    HW132416   0.022   1.973   0.631
43528SOL    HW232417   0.006   1.859   0.534
43529SOL     OW32418   5.842   9.050   2.641
43529SOL    HW132419   5.764   9.057   2.587
43529SOL    HW232420   5.853   8.956   2.657
43530SOL     OW32421   3.360   3.340  11.880
43530SOL    HW132422   3.359   3.405  11.951
43530SOL    HW232423   3.369   3.256  11.926
43531SOL     OW32424   5.062  10.151  12.695
43531SOL    HW132425   4.976  10.184  12.719
43531SOL    HW232426   5.109  10.143  12.779
43532SOL     OW32427  13.990   3.140   8.735
43532SOL    HW132428  13.911   3.107   8.778
43532SOL    HW232429  14.062   3.112   8.791
43533SOL     OW32430   5.734   6.202   4.364
43533SOL    HW132431   5.747   6.154   4.445
43533SOL    HW232432   5.678   6.276   4.388
43534SOL     OW32433  13.089  13.516   9.496
43534SOL    HW132434  13.083  13.422   9.514
43534SOL    HW232435  13.017  13.533   9.435
43535SOL     OW32436  12.865  11.920   2.865
43535SOL    HW132437  12.951  11.879   2.858
43535SOL    HW232438  12.849  11.958   2.778
43536SOL     OW32439   7.760   7.998   8.341
43536SOL    HW132440   7.846   7.957   8.329
43536SOL    HW232441   7.698   7.925   8.333
43537SOL     OW32442   6.026  10.217  12.869
43537SOL    HW132443   6.013  10.225  12.964
43537SOL    HW232444   5.941  10.238  12.831
43538SOL     OW32445   0.876   4.105   8.651
43538SOL    HW132446   0.795   4.102   8.702
43538SOL    HW232447   0.945   4.097   8.717
43539SOL     OW32448  12.385  14.673  12.990
43539SOL    HW132449  12.385  14.607  13.059
43539SOL    HW232450  12.320  14.641  12.927
43540SOL     OW32451   4.121   9.391   3.209
43540SOL    HW132452   4.180   9.378   3.284
43540SOL    HW232453   4.102   9.484   3.209
43541SOL     OW32454  10.451   5.809   0.255
43541SOL    HW132455  10.422   5.719   0.269
43541SOL    HW232456  10.397   5.862   0.314
43542SOL     OW32457   7.794   0.541   7.318
43542SOL    HW132458   7.724   0.605   7.329
43542SOL    HW232459   7.873   0.593   7.307
43543SOL     OW32460   3.837  14.437   2.633
43543SOL    HW132461   3.774  14.481   2.691
43543SOL    HW232462   3.831  14.486   2.551
43544SOL     OW32463   9.251   8.123   2.336
43544SOL    HW132464   9.229   8.032   2.352
43544SOL    HW232465   9.303   8.150   2.412
43545SOL     OW32466   0.177  12.960  12.197
43545SOL    HW132467   0.272  12.962  12.187
43545SOL    HW232468   0.156  13.040  12.245
43546SOL     OW32469  12.824  13.626   3.149
43546SOL    HW132470  12.875  13.627   3.229
43546SOL    HW232471  12.812  13.533   3.129
43547SOL     OW32472   7.818   9.266  10.619
43547SOL    HW132473   7.811   9.301  10.708
43547SOL    HW232474   7.893   9.207  10.623
43548SOL     OW32475   4.494   1.353   7.324
43548SOL    HW132476   4.460   1.327   7.238
43548SOL    HW232477   4.509   1.447   7.315
43549SOL     OW32478   5.899  13.882  14.313
43549SOL    HW132479   5.917  13.968  14.350
43549SOL    HW232480   5.861  13.832  14.385
43550SOL     OW32481   8.794   3.972   5.962
43550SOL    HW132482   8.762   3.883   5.971
43550SOL    HW232483   8.829   3.976   5.873
43551SOL     OW32484   9.049   5.435   8.335
43551SOL    HW132485   8.957   5.439   8.308
43551SOL    HW232486   9.046   5.430   8.430
43552SOL     OW32487   8.537   7.962   7.455
43552SOL    HW132488   8.487   7.926   7.528
43552SOL    HW232489   8.548   7.889   7.395
43553SOL     OW32490  10.299  14.105   1.240
43553SOL    HW132491  10.297  14.024   1.188
43553SOL    HW232492  10.380  14.148   1.214
43554SOL     OW32493   9.327  14.033   7.390
43554SOL    HW132494   9.328  14.049   7.296
43554SOL    HW232495   9.383  13.956   7.402
43555SOL     OW32496  12.382   5.059   1.038
43555SOL    HW132497  12.403   5.075   0.946
43555SOL    HW232498  12.451   5.000   1.068
43556SOL     OW32499  10.018  12.841   9.439
43556SOL    HW132500   9.960  12.767   9.456
43556SOL    HW232501  10.024  12.845   9.343
43557SOL     OW32502   5.251   0.106  14.166
43557SOL    HW132503   5.240   0.039  14.234
43557SOL    HW232504   5.345   0.109  14.150
43558SOL     OW32505   2.920   9.703   3.743
43558SOL    HW132506   2.871   9.709   3.825
43558SOL    HW232507   2.855   9.680   3.677
43559SOL     OW32508   7.170   9.575  12.757
43559SOL    HW132509   7.201   9.491  12.721
43559SOL    HW232510   7.200   9.574  12.848
43560SOL     OW32511  13.086   0.616   1.744
43560SOL    HW132512  13.043   0.589   1.662
43560SOL    HW232513  13.084   0.711   1.742
43561SOL     OW32514   9.562   2.244   3.933
43561SOL    HW132515   9.562   2.323   3.986
43561SOL    HW232516   9.652   2.210   3.940
43562SOL     OW32517  13.376  10.136   0.595
43562SOL    HW132518  13.340  10.175   0.675
43562SOL    HW232519  13.471  10.146   0.604
43563SOL     OW32520  14.446   5.188  11.357
43563SOL    HW132521  14.462   5.281  11.371
43563SOL    HW232522  14.527   5.145  11.384
43564SOL     OW32523   2.397   4.484   2.879
43564SOL    HW132524   2.480   4.441   2.858
43564SOL    HW232525   2.416   4.534   2.958
43565SOL     OW32526   2.110   7.878  14.119
43565SOL    HW132527   2.168   7.879  14.195
43565SOL    HW232528   2.168   7.894  14.044
43566SOL     OW32529  12.596   6.784   3.310
43566SOL    HW132530  12.540   6.707   3.300
43566SOL    HW232531  12.548   6.841   3.370
43567SOL     OW32532   1.493   0.138  14.682
43567SOL    HW132533   1.541   0.123  14.763
43567SOL    HW232534   1.519   0.226  14.655
43568SOL     OW32535   5.757  13.207  14.370
43568SOL    HW132536   5.714  13.154  14.303
43568SOL    HW232537   5.813  13.146  14.418
43569SOL     OW32538   2.488   6.201   6.626
43569SOL    HW132539   2.504   6.294   6.615
43569SOL    HW232540   2.439   6.175   6.548
43570SOL     OW32541   6.446  14.481   8.564
43570SOL    HW132542   6.475  14.565   8.600
43570SOL    HW232543   6.384  14.447   8.628
43571SOL     OW32544   4.382  13.183   4.199
43571SOL    HW132545   4.337  13.136   4.129
43571SOL    HW232546   4.331  13.163   4.277
43572SOL     OW32547   4.042  13.513   8.676
43572SOL    HW132548   3.985  13.462   8.618
43572SOL    HW232549   4.069  13.450   8.743
43573SOL     OW32550  11.293  14.385  10.040
43573SOL    HW132551  11.357  14.417   9.977
43573SOL    HW232552  11.236  14.326   9.989
43574SOL     OW32553   3.074   0.810   4.439
43574SOL    HW132554   3.105   0.719   4.432
43574SOL    HW232555   3.086   0.846   4.351
43575SOL     OW32556  10.018   5.022  13.684
43575SOL    HW132557  10.036   5.116  13.679
43575SOL    HW232558   9.922   5.016  13.688
43576SOL     OW32559   2.926   1.848   2.871
43576SOL    HW132560   2.981   1.771   2.856
43576SOL    HW232561   2.909   1.847   2.965
43577SOL     OW32562   3.387   5.141   6.992
43577SOL    HW132563   3.403   5.048   6.981
43577SOL    HW232564   3.293   5.147   7.009
43578SOL     OW32565  12.342   1.744   6.612
43578SOL    HW132566  12.413   1.788   6.660
43578SOL    HW232567  12.292   1.699   6.680
43579SOL     OW32568  11.752  12.541  14.208
43579SOL    HW132569  11.714  12.583  14.131
43579SOL    HW232570  11.716  12.589  14.282
43580SOL     OW32571   4.227   0.052   9.220
43580SOL    HW132572   4.148   0.082   9.175
43580SOL    HW232573   4.252  14.848   9.174
43581SOL     OW32574   0.297  12.270  13.642
43581SOL    HW132575   0.369  12.322  13.680
43581SOL    HW232576   0.219  12.303  13.687
43582SOL     OW32577  11.470  13.098   9.758
43582SOL    HW132578  11.431  13.011   9.759
43582SOL    HW232579  11.564  13.083   9.756
43583SOL     OW32580   2.309   0.781   8.510
43583SOL    HW132581   2.295   0.700   8.461
43583SOL    HW232582   2.368   0.832   8.454
43584SOL     OW32583   5.937   5.017   1.864
43584SOL    HW132584   5.881   4.972   1.928
43584SOL    HW232585   5.884   5.089   1.831
43585SOL     OW32586  12.950   2.811  13.031
43585SOL    HW132587  12.889   2.882  13.011
43585SOL    HW232588  12.916   2.736  12.982
43586SOL     OW32589  10.172  14.612   7.902
43586SOL    HW132590  10.136  14.540   7.954
43586SOL    HW232591  10.156  14.690   7.955
43587SOL     OW32592   3.636   9.442   0.082
43587SOL    HW132593   3.629   9.477  14.869
43587SOL    HW232594   3.656   9.518   0.136
43588SOL     OW32595  13.421   6.212  13.114
43588SOL    HW132596  13.496   6.236  13.168
43588SOL    HW232597  13.412   6.285  13.052
43589SOL     OW32598   9.206  11.070  10.115
43589SOL    HW132599   9.116  11.058  10.145
43589SOL    HW232600   9.257  11.007  10.165
43590SOL     OW32601   3.697   4.543   1.080
43590SOL    HW132602   3.752   4.598   1.024
43590SOL    HW232603   3.612   4.541   1.037
43591SOL     OW32604   6.076   3.250  11.278
43591SOL    HW132605   6.101   3.341  11.259
43591SOL    HW232606   6.090   3.204  11.195
43592SOL     OW32607   7.581  13.996  11.164
43592SOL    HW132608   7.581  13.900  11.154
43592SOL    HW232609   7.590  14.010  11.258
43593SOL     OW32610   1.586   4.582   1.273
43593SOL    HW132611   1.593   4.617   1.184
43593SOL    HW232612   1.537   4.650   1.320
43594SOL     OW32613  10.729   0.304  13.360
43594SOL    HW132614  10.812   0.350  13.348
43594SOL    HW232615  10.669   0.345  13.298
43595SOL     OW32616   4.229   9.293   1.103
43595SOL    HW132617   4.257   9.384   1.094
43595SOL    HW232618   4.215   9.282   1.197
43596SOL     OW32619   1.701   8.484   7.526
43596SOL    HW132620   1.727   8.415   7.465
43596SOL    HW232621   1.625   8.448   7.572
43597SOL     OW32622   4.071   3.492   1.921
43597SOL    HW132623   4.042   3.423   1.862
43597SOL    HW232624   4.087   3.567   1.863
43598SOL     OW32625  10.871   4.992  11.770
43598SOL    HW132626  10.807   5.063  11.764
43598SOL    HW232627  10.954   5.035  11.788
43599SOL     OW32628   1.847   3.098   2.263
43599SOL    HW132629   1.924   3.139   2.302
43599SOL    HW232630   1.861   3.106   2.169
43600SOL     OW32631   4.265   0.972   4.029
43600SOL    HW132632   4.324   0.949   3.957
43600SOL    HW232633   4.323   0.979   4.106
43601SOL     OW32634   5.045   0.232   1.164
43601SOL    HW132635   5.048   0.136   1.167
43601SOL    HW232636   5.072   0.259   1.251
43602SOL     OW32637   4.726   6.613   5.749
43602SOL    HW132638   4.656   6.669   5.715
43602SOL    HW232639   4.790   6.674   5.787
43603SOL     OW32640   4.215   8.438   9.686
43603SOL    HW132641   4.255   8.453   9.600
43603SOL    HW232642   4.279   8.385   9.734
43604SOL     OW32643   2.066   5.254  11.426
43604SOL    HW132644   2.069   5.285  11.336
43604SOL    HW232645   2.114   5.171  11.424
43605SOL     OW32646   4.846   4.730   7.462
43605SOL    HW132647   4.831   4.763   7.551
43605SOL    HW232648   4.760   4.703   7.431
43606SOL     OW32649   2.700  13.404   3.249
43606SOL    HW132650   2.714  13.310   3.244
43606SOL    HW232651   2.758  13.433   3.320
43607SOL     OW32652   2.120   9.282   4.488
43607SOL    HW132653   2.112   9.188   4.501
43607SOL    HW232654   2.135   9.293   4.394
43608SOL     OW32655   8.966   3.098   5.073
43608SOL    HW132656   9.015   3.180   5.080
43608SOL    HW232657   8.974   3.074   4.980
43609SOL     OW32658   4.643  10.321   9.503
43609SOL    HW132659   4.592  10.289   9.429
43609SOL    HW232660   4.614  10.411   9.515
43610SOL     OW32661  13.110  11.978  13.346
43610SOL    HW132662  13.174  11.928  13.296
43610SOL    HW232663  13.122  11.949  13.437
43611SOL     OW32664   5.090   4.202   6.301
43611SOL    HW132665   5.007   4.155   6.311
43611SOL    HW232666   5.064   4.292   6.280
43612SOL     OW32667  14.676   6.879   0.369
43612SOL    HW132668  14.692   6.944   0.437
43612SOL    HW232669  14.633   6.806   0.414
43613SOL     OW32670  13.106  11.537   6.346
43613SOL    HW132671  13.079  11.615   6.396
43613SOL    HW232672  13.103  11.466   6.410
43614SOL     OW32673  10.476   4.845   3.308
43614SOL    HW132674  10.428   4.813   3.232
43614SOL    HW232675  10.430   4.811   3.384
43615SOL     OW32676  11.856   6.017   4.596
43615SOL    HW132677  11.816   6.030   4.510
43615SOL    HW232678  11.919   6.089   4.604
43616SOL     OW32679   7.911  14.024   7.558
43616SOL    HW132680   7.920  13.968   7.481
43616SOL    HW232681   7.952  14.107   7.531
43617SOL     OW32682   4.552   7.510  10.667
43617SOL    HW132683   4.504   7.565  10.605
43617SOL    HW232684   4.636   7.554  10.678
43618SOL     OW32685   1.900  14.653   1.972
43618SOL    HW132686   1.955  14.610   1.908
43618SOL    HW232687   1.895  14.744   1.942
43619SOL     OW32688  12.098   5.801  13.552
43619SOL    HW132689  12.154   5.816  13.628
43619SOL    HW232690  12.075   5.889  13.521
43620SOL     OW32691  11.221  10.540   3.632
43620SOL    HW132692  11.220  10.473   3.564
43620SOL    HW232693  11.300  10.592   3.612
43621SOL     OW32694  13.846  10.457   1.113
43621SOL    HW132695  13.857  10.542   1.072
43621SOL    HW232696  13.935  10.422   1.121
43622SOL     OW32697  11.311  13.616   0.078
43622SOL    HW132698  11.274  13.654   0.158
43622SOL    HW232699  11.298  13.683   0.011
43623SOL     OW32700   0.327   7.809  12.309
43623SOL    HW132701   0.393   7.877  12.300
43623SOL    HW232702   0.302   7.787  12.219
43624SOL     OW32703   8.882   1.317   2.919
43624SOL    HW132704   8.921   1.354   2.999
43624SOL    HW232705   8.806   1.372   2.902
43625SOL     OW32706  10.972   8.831   3.246
43625SOL    HW132707  10.956   8.871   3.161
43625SOL    HW232708  11.066   8.840   3.260
43626SOL     OW32709   3.840   3.978   7.464
43626SOL    HW132710   3.803   3.901   7.421
43626SOL    HW232711   3.924   3.992   7.419
43627SOL     OW32712  14.339   2.068  11.396
43627SOL    HW132713  14.273   2.052  11.464
43627SOL    HW232714  14.414   2.017  11.425
43628SOL     OW32715   9.363   6.176  13.476
43628SOL    HW132716   9.441   6.187  13.530
43628SOL    HW232717   9.390   6.117  13.406
43629SOL     OW32718   7.777  13.616  10.227
43629SOL    HW132719   7.834  13.662  10.166
43629SOL    HW232720   7.837  13.575  10.290
43630SOL     OW32721   2.412   3.284   0.870
43630SOL    HW132722   2.454   3.225   0.807
43630SOL    HW232723   2.399   3.366   0.822
43631SOL     OW32724   7.168  14.005  10.476
43631SOL    HW132725   7.163  14.060  10.398
43631SOL    HW232726   7.224  14.053  10.536
43632SOL     OW32727   1.443   3.949  12.296
43632SOL    HW132728   1.535   3.969  12.278
43632SOL    HW232729   1.431   3.859  12.266
43633SOL     OW32730  11.060  10.283  11.768
43633SOL    HW132731  11.128  10.228  11.729
43633SOL    HW232732  10.994  10.220  11.799
43634SOL     OW32733   6.966   4.699   9.768
43634SOL    HW132734   6.933   4.711   9.679
43634SOL    HW232735   7.011   4.781   9.787
43635SOL     OW32736   3.159   7.467   0.301
43635SOL    HW132737   3.252   7.452   0.317
43635SOL    HW232738   3.157   7.533   0.231
43636SOL     OW32739   7.336   1.837   1.000
43636SOL    HW132740   7.350   1.876   1.086
43636SOL    HW232741   7.360   1.745   1.012
43637SOL     OW32742   9.388  14.222  11.666
43637SOL    HW132743   9.444  14.247  11.592
43637SOL    HW232744   9.450  14.212  11.739
43638SOL     OW32745   2.228   7.930   7.983
43638SOL    HW132746   2.213   7.877   7.904
43638SOL    HW232747   2.171   7.890   8.049
43639SOL     OW32748  11.601   7.825  11.346
43639SOL    HW132749  11.680   7.777  11.373
43639SOL    HW232750  11.620   7.916  11.368
43640SOL     OW32751   6.875   1.941  12.630
43640SOL    HW132752   6.932   1.989  12.689
43640SOL    HW232753   6.886   1.849  12.655
43641SOL     OW32754  13.999   0.284  14.816
43641SOL    HW132755  13.998   0.341  14.740
43641SOL    HW232756  13.924   0.226  14.803
43642SOL     OW32757   8.256  12.036  11.432
43642SOL    HW132758   8.315  12.059  11.360
43642SOL    HW232759   8.204  11.964  11.397
43643SOL     OW32760   1.080  14.331   8.841
43643SOL    HW132761   1.054  14.414   8.882
43643SOL    HW232762   1.078  14.350   8.747
43644SOL     OW32763   3.638   8.406   5.271
43644SOL    HW132764   3.587   8.373   5.198
43644SOL    HW232765   3.653   8.498   5.251
43645SOL     OW32766   7.931   9.401   9.886
43645SOL    HW132767   7.865   9.455   9.842
43645SOL    HW232768   7.890   9.315   9.896
43646SOL     OW32769   6.920   9.557   2.382
43646SOL    HW132770   6.881   9.642   2.364
43646SOL    HW232771   7.014   9.570   2.368
43647SOL     OW32772   1.124   6.747   8.022
43647SOL    HW132773   1.138   6.841   8.025
43647SOL    HW232774   1.056   6.730   8.087
43648SOL     OW32775   0.348   6.692  11.006
43648SOL    HW132776   0.430   6.713  11.051
43648SOL    HW232777   0.306   6.627  11.062
43649SOL     OW32778   0.063  14.352   4.934
43649SOL    HW132779  14.868  14.396   4.981
43649SOL    HW232780   0.142  14.399   4.961
43650SOL     OW32781   9.525   2.297   8.329
43650SOL    HW132782   9.467   2.223   8.313
43650SOL    HW232783   9.554   2.286   8.420
43651SOL     OW32784   5.567   3.845   9.582
43651SOL    HW132785   5.553   3.779   9.513
43651SOL    HW232786   5.640   3.810   9.633
43652SOL     OW32787   9.822  11.284  14.589
43652SOL    HW132788   9.778  11.283  14.674
43652SOL    HW232789   9.914  11.297  14.611
43653SOL     OW32790   7.277  14.398  11.633
43653SOL    HW132791   7.335  14.327  11.660
43653SOL    HW232792   7.209  14.354  11.581
43654SOL     OW32793   8.634   1.448   2.836
43654SOL    HW132794   8.602   1.427   2.749
43654SOL    HW232795   8.559   1.487   2.881
43655SOL     OW32796   3.440   0.146   6.879
43655SOL    HW132797   3.517   0.109   6.922
43655SOL    HW232798   3.394   0.193   6.948
43656SOL     OW32799   4.505   3.226  13.023
43656SOL    HW132800   4.589   3.198  13.058
43656SOL    HW232801   4.462   3.144  12.996
43657SOL     OW32802   5.552   2.335  12.157
43657SOL    HW132803   5.631   2.361  12.203
43657SOL    HW232804   5.520   2.258  12.205
43658SOL     OW32805  11.709   2.574   0.481
43658SOL    HW132806  11.756   2.494   0.457
43658SOL    HW232807  11.776   2.642   0.479
43659SOL     OW32808   1.605   3.335   8.951
43659SOL    HW132809   1.553   3.380   9.018
43659SOL    HW232810   1.623   3.403   8.885
43660SOL     OW32811   7.717   5.207  11.160
43660SOL    HW132812   7.782   5.272  11.131
43660SOL    HW232813   7.708   5.223  11.254
43661SOL     OW32814  13.523   2.924   5.312
43661SOL    HW132815  13.433   2.928   5.345
43661SOL    HW232816  13.522   2.977   5.233
43662SOL     OW32817  11.513   0.169   5.472
43662SOL    HW132818  11.454   0.110   5.425
43662SOL    HW232819  11.458   0.245   5.492
43663SOL     OW32820   4.782   4.119  12.319
43663SOL    HW132821   4.823   4.205  12.312
43663SOL    HW232822   4.829   4.077  12.391
43664SOL     OW32823   6.109   0.882   9.183
43664SOL    HW132824   6.052   0.853   9.112
43664SOL    HW232825   6.177   0.815   9.189
43665SOL     OW32826   7.147   5.909  10.059
43665SOL    HW132827   7.130   5.910  10.153
43665SOL    HW232828   7.068   5.946  10.019
43666SOL     OW32829  11.410   7.237   6.521
43666SOL    HW132830  11.345   7.184   6.566
43666SOL    HW232831  11.488   7.231   6.576
43667SOL     OW32832   1.689   6.352   1.840
43667SOL    HW132833   1.640   6.318   1.766
43667SOL    HW232834   1.780   6.330   1.821
43668SOL     OW32835   8.806   9.579  13.652
43668SOL    HW132836   8.806   9.486  13.673
43668SOL    HW232837   8.724   9.593  13.604
43669SOL     OW32838   2.640   6.807   7.787
43669SOL    HW132839   2.722   6.804   7.737
43669SOL    HW232840   2.608   6.897   7.775
43670SOL     OW32841  13.485   6.777   2.600
43670SOL    HW132842  13.480   6.869   2.627
43670SOL    HW232843  13.472   6.727   2.680
43671SOL     OW32844  13.694  14.047  12.388
43671SOL    HW132845  13.654  14.031  12.303
43671SOL    HW232846  13.760  13.979  12.397
43672SOL     OW32847   7.391   3.483   5.184
43672SOL    HW132848   7.469   3.496   5.238
43672SOL    HW232849   7.346   3.567   5.186
43673SOL     OW32850   6.782  10.954  13.116
43673SOL    HW132851   6.810  10.862  13.112
43673SOL    HW232852   6.709  10.954  13.178
43674SOL     OW32853   8.881  14.833  13.871
43674SOL    HW132854   8.925  14.753  13.902
43674SOL    HW232855   8.932   0.029  13.908
43675SOL     OW32856  12.822  12.440  12.714
43675SOL    HW132857  12.870  12.515  12.680
43675SOL    HW232858  12.730  12.460  12.698
43676SOL     OW32859  10.218   3.625   0.826
43676SOL    HW132860  10.268   3.621   0.745
43676SOL    HW232861  10.153   3.555   0.818
43677SOL     OW32862   1.848  10.504   6.885
43677SOL    HW132863   1.872  10.569   6.819
43677SOL    HW232864   1.883  10.539   6.967
43678SOL     OW32865  13.767   9.264   1.095
43678SOL    HW132866  13.722   9.192   1.138
43678SOL    HW232867  13.834   9.292   1.158
43679SOL     OW32868   5.430   3.516  14.818
43679SOL    HW132869   5.521   3.535  14.840
43679SOL    HW232870   5.414   3.429  14.854
43680SOL     OW32871  13.769   9.073   2.824
43680SOL    HW132872  13.829   9.138   2.860
43680SOL    HW232873  13.689   9.122   2.805
43681SOL     OW32874   1.030   3.041   3.315
43681SOL    HW132875   1.082   3.053   3.236
43681SOL    HW232876   1.052   3.116   3.370
43682SOL     OW32877  13.098   5.094  12.996
43682SOL    HW132878  13.156   5.067  13.067
43682SOL    HW232879  13.149   5.079  12.916
43683SOL     OW32880   9.495   9.193  11.504
43683SOL    HW132881   9.437   9.253  11.457
43683SOL    HW232882   9.508   9.234  11.589
43684SOL     OW32883   2.413   8.018   9.750
43684SOL    HW132884   2.337   8.065   9.717
43684SOL    HW232885   2.410   8.030   9.845
43685SOL     OW32886   3.317   3.976   5.925
43685SOL    HW132887   3.246   4.031   5.959
43685SOL    HW232888   3.360   4.031   5.860
43686SOL     OW32889   3.396  13.898  13.799
43686SOL    HW132890   3.349  13.981  13.789
43686SOL    HW232891   3.408  13.866  13.710
43687SOL     OW32892  13.186   9.939  11.816
43687SOL    HW132893  13.113   9.931  11.755
43687SOL    HW232894  13.196   9.852  11.853
43688SOL     OW32895   6.534  11.635   1.126
43688SOL    HW132896   6.618  11.654   1.168
43688SOL    HW232897   6.514  11.545   1.151
43689SOL     OW32898   8.926   2.137   2.957
43689SOL    HW132899   8.850   2.123   2.901
43689SOL    HW232900   8.901   2.098   3.041
43690SOL     OW32901   9.504   7.886  13.215
43690SOL    HW132902   9.591   7.905  13.179
43690SOL    HW232903   9.443   7.913  13.147
43691SOL     OW32904   6.389   4.170   8.795
43691SOL    HW132905   6.336   4.222   8.734
43691SOL    HW232906   6.384   4.218   8.878
43692SOL     OW32907   5.969  11.984   0.637
43692SOL    HW132908   5.888  12.005   0.683
43692SOL    HW232909   5.949  11.906   0.585
43693SOL     OW32910   3.228   3.357   7.603
43693SOL    HW132911   3.178   3.286   7.563
43693SOL    HW232912   3.194   3.363   7.692
43694SOL     OW32913   3.712  13.671   4.348
43694SOL    HW132914   3.803  13.644   4.337
43694SOL    HW232915   3.717  13.761   4.381
43695SOL     OW32916   6.497   1.446  11.574
43695SOL    HW132917   6.445   1.462  11.653
43695SOL    HW232918   6.478   1.521  11.517
43696SOL     OW32919  12.866   1.422   0.268
43696SOL    HW132920  12.915   1.426   0.186
43696SOL    HW232921  12.931   1.398   0.334
43697SOL     OW32922  14.573   2.024  13.483
43697SOL    HW132923  14.634   2.072  13.538
43697SOL    HW232924  14.491   2.023  13.533
43698SOL     OW32925  13.448   2.407   6.084
43698SOL    HW132926  13.467   2.321   6.123
43698SOL    HW232927  13.429   2.388   5.993
43699SOL     OW32928   8.299   3.276  12.817
43699SOL    HW132929   8.342   3.238  12.741
43699SOL    HW232930   8.319   3.216  12.889
43700SOL     OW32931  11.329  11.478   8.988
43700SOL    HW132932  11.280  11.459   9.068
43700SOL    HW232933  11.265  11.515   8.928
43701SOL     OW32934   7.064   0.810   5.415
43701SOL    HW132935   6.991   0.768   5.370
43701SOL    HW232936   7.026   0.844   5.496
43702SOL     OW32937   1.147   9.970   8.479
43702SOL    HW132938   1.164   9.984   8.386
43702SOL    HW232939   1.234   9.975   8.520
43703SOL     OW32940  10.716   3.423   9.224
43703SOL    HW132941  10.758   3.509   9.223
43703SOL    HW232942  10.632   3.438   9.268
43704SOL     OW32943   0.033   2.960  13.692
43704SOL    HW132944  14.842   3.009  13.739
43704SOL    HW232945   0.069   3.023  13.629
43705SOL     OW32946   1.025   2.407   9.071
43705SOL    HW132947   1.061   2.360   8.995
43705SOL    HW232948   1.007   2.495   9.038
43706SOL     OW32949  10.399  10.424   5.326
43706SOL    HW132950  10.353  10.422   5.242
43706SOL    HW232951  10.334  10.395   5.390
43707SOL     OW32952   0.127  10.384  11.111
43707SOL    HW132953   0.214  10.383  11.072
43707SOL    HW232954   0.143  10.405  11.203
43708SOL     OW32955  10.865   4.383   0.524
43708SOL    HW132956  10.847   4.360   0.615
43708SOL    HW232957  10.815   4.319   0.473
43709SOL     OW32958  10.836   7.678   4.115
43709SOL    HW132959  10.912   7.671   4.057
43709SOL    HW232960  10.867   7.647   4.199
43710SOL     OW32961   9.994   5.721   7.537
43710SOL    HW132962  10.041   5.793   7.494
43710SOL    HW232963  10.000   5.742   7.630
43711SOL     OW32964   0.828  13.589   8.787
43711SOL    HW132965   0.899  13.614   8.846
43711SOL    HW232966   0.823  13.494   8.793
43712SOL     OW32967   7.116   1.846   3.376
43712SOL    HW132968   7.070   1.929   3.374
43712SOL    HW232969   7.146   1.836   3.466
43713SOL     OW32970   8.051   6.070   2.551
43713SOL    HW132971   8.065   5.998   2.612
43713SOL    HW232972   7.965   6.052   2.512
43714SOL     OW32973   2.352   8.683   1.787
43714SOL    HW132974   2.346   8.708   1.879
43714SOL    HW232975   2.316   8.758   1.740
43715SOL     OW32976   3.049   3.398  13.868
43715SOL    HW132977   3.039   3.469  13.806
43715SOL    HW232978   3.136   3.410  13.906
43716SOL     OW32979  10.840  11.693   5.761
43716SOL    HW132980  10.791  11.637   5.701
43716SOL    HW232981  10.924  11.648   5.773
43717SOL     OW32982   5.090  10.171   5.744
43717SOL    HW132983   5.081  10.128   5.660
43717SOL    HW232984   5.158  10.121   5.790
43718SOL     OW32985   2.693  14.424   4.408
43718SOL    HW132986   2.630  14.353   4.418
43718SOL    HW232987   2.640  14.499   4.381
43719SOL     OW32988   1.345   9.548   6.501
43719SOL    HW132989   1.371   9.496   6.577
43719SOL    HW232990   1.425   9.554   6.448
43720SOL     OW32991  10.859   9.828   1.743
43720SOL    HW132992  10.848   9.799   1.834
43720SOL    HW232993  10.770   9.846   1.713
43721SOL     OW32994   5.002  10.703   1.143
43721SOL    HW132995   5.090  10.709   1.179
43721SOL    HW232996   5.005  10.757   1.063
43722SOL     OW32997  10.642   5.054  13.209
43722SOL    HW132998  10.655   4.992  13.282
43722SOL    HW232999  10.547   5.059  13.199
43723SOL     OW33000   9.399   0.665   5.774
43723SOL    HW133001   9.336   0.618   5.828
43723SOL    HW233002   9.379   0.758   5.789
43724SOL     OW33003  13.106   9.332  11.695
43724SOL    HW133004  13.076   9.331  11.786
43724SOL    HW233005  13.090   9.422  11.666
43725SOL     OW33006  14.288   2.336   8.954
43725SOL    HW133007  14.368   2.382   8.980
43725SOL    HW233008  14.247   2.310   9.036
43726SOL     OW33009  14.850  10.288   0.321
43726SOL    HW133010   0.001  10.212   0.270
43726SOL    HW233011  14.874  10.363   0.266
43727SOL     OW33012  11.149   2.009   5.620
43727SOL    HW133013  11.055   2.025   5.624
43727SOL    HW233014  11.157   1.916   5.601
43728SOL     OW33015  11.371  14.049  14.680
43728SOL    HW133016  11.368  14.115  14.749
43728SOL    HW233017  11.340  14.095  14.602
43729SOL     OW33018  14.395   9.917  14.708
43729SOL    HW133019  14.452   9.931  14.632
43729SOL    HW233020  14.438   9.847  14.757
43730SOL     OW33021   3.677  12.650  14.659
43730SOL    HW133022   3.707  12.583  14.598
43730SOL    HW233023   3.723  12.630  14.741
43731SOL     OW33024  13.030   2.878   6.924
43731SOL    HW133025  13.031   2.817   6.851
43731SOL    HW233026  12.970   2.839   6.988
43732SOL     OW33027   4.076   5.052   6.143
43732SOL    HW133028   4.140   5.044   6.213
43732SOL    HW233029   4.001   5.001   6.173
43733SOL     OW33030  12.463   7.062   8.271
43733SOL    HW133031  12.412   7.143   8.271
43733SOL    HW233032  12.550   7.089   8.301
43734SOL     OW33033   3.995   2.749   2.862
43734SOL    HW133034   3.931   2.684   2.834
43734SOL    HW233035   3.996   2.742   2.957
43735SOL     OW33036   0.667  12.902  12.412
43735SOL    HW133037   0.671  12.963  12.487
43735SOL    HW233038   0.586  12.854  12.425
43736SOL     OW33039   4.858   0.830   3.607
43736SOL    HW133040   4.770   0.816   3.642
43736SOL    HW233041   4.850   0.812   3.514
43737SOL     OW33042  13.030  10.271   4.392
43737SOL    HW133043  13.028  10.350   4.446
43737SOL    HW233044  13.119  10.238   4.403
43738SOL     OW33045   7.535   1.231  12.458
43738SOL    HW133046   7.573   1.316  12.436
43738SOL    HW233047   7.548   1.178  12.379
43739SOL     OW33048   7.478   8.489   7.719
43739SOL    HW133049   7.393   8.496   7.763
43739SOL    HW233050   7.541   8.479   7.790
43740SOL     OW33051  13.121  10.451   1.690
43740SOL    HW133052  13.108  10.406   1.607
43740SOL    HW233053  13.049  10.515   1.694
43741SOL     OW33054  11.127   9.767  10.093
43741SOL    HW133055  11.137   9.851  10.139
43741SOL    HW233056  11.056   9.723  10.140
43742SOL     OW33057   6.407   9.717   8.662
43742SOL    HW133058   6.478   9.707   8.599
43742SOL    HW233059   6.397   9.630   8.700
43743SOL     OW33060   2.278   3.380   0.372
43743SOL    HW133061   2.279   3.441   0.445
43743SOL    HW233062   2.246   3.298   0.409
43744SOL     OW33063   6.997   8.397  13.965
43744SOL    HW133064   6.967   8.342  14.038
43744SOL    HW233065   6.978   8.486  13.994
43745SOL     OW33066  10.912  13.150   2.702
43745SOL    HW133067  10.932  13.073   2.650
43745SOL    HW233068  10.981  13.213   2.681
43746SOL     OW33069   6.951   7.895   7.835
43746SOL    HW133070   6.936   7.911   7.928
43746SOL    HW233071   6.911   7.970   7.790
43747SOL     OW33072  11.173   6.742   9.494
43747SOL    HW133073  11.085   6.717   9.467
43747SOL    HW233074  11.180   6.835   9.472
43748SOL     OW33075   1.102   8.766   3.493
43748SOL    HW133076   1.171   8.786   3.557
43748SOL    HW233077   1.147   8.716   3.425
43749SOL     OW33078   7.958   6.740   2.490
43749SOL    HW133079   7.943   6.699   2.575
43749SOL    HW233080   8.053   6.748   2.484
43750SOL     OW33081  11.870  12.294   6.743
43750SOL    HW133082  11.795  12.352   6.729
43750SOL    HW233083  11.861  12.265   6.834
43751SOL     OW33084   5.513   3.058  13.323
43751SOL    HW133085   5.519   3.154  13.328
43751SOL    HW233086   5.588   3.032  13.269
43752SOL     OW33087  12.668   8.714  11.870
43752SOL    HW133088  12.582   8.733  11.831
43752SOL    HW233089  12.731   8.738  11.802
43753SOL     OW33090   0.903  13.403   0.829
43753SOL    HW133091   0.824  13.390   0.776
43753SOL    HW233092   0.950  13.474   0.785
43754SOL     OW33093   7.835   9.457  13.158
43754SOL    HW133094   7.744   9.438  13.184
43754SOL    HW233095   7.827   9.527  13.093
43755SOL     OW33096  10.016  13.959  12.209
43755SOL    HW133097  10.102  13.989  12.237
43755SOL    HW233098  10.030  13.867  12.184
43756SOL     OW33099   8.671  11.466  10.103
43756SOL    HW133100   8.611  11.518  10.157
43756SOL    HW233101   8.685  11.386  10.154
43757SOL     OW33102   1.486   3.219   6.058
43757SOL    HW133103   1.490   3.287   5.991
43757SOL    HW233104   1.394   3.216   6.083
43758SOL     OW33105  14.109   5.198  10.599
43758SOL    HW133106  14.199   5.229  10.600
43758SOL    HW233107  14.074   5.228  10.515
43759SOL     OW33108  12.496   3.616   7.845
43759SOL    HW133109  12.493   3.650   7.755
43759SOL    HW233110  12.414   3.645   7.884
43760SOL     OW33111   6.445   0.886  13.415
43760SOL    HW133112   6.435   0.855  13.505
43760SOL    HW233113   6.464   0.979  13.423
43761SOL     OW33114   4.703  11.347   6.893
43761SOL    HW133115   4.627  11.395   6.924
43761SOL    HW233116   4.770  11.361   6.960
43762SOL     OW33117   4.329  11.777   3.483
43762SOL    HW133118   4.283  11.697   3.458
43762SOL    HW233119   4.330  11.830   3.403
43763SOL     OW33120   7.022  14.183   5.237
43763SOL    HW133121   7.101  14.218   5.279
43763SOL    HW233122   7.023  14.090   5.258
43764SOL     OW33123   5.273   3.726   9.879
43764SOL    HW133124   5.355   3.679   9.896
43764SOL    HW233125   5.205   3.671   9.916
43765SOL     OW33126   5.303   1.931  11.823
43765SOL    HW133127   5.272   2.022  11.829
43765SOL    HW233128   5.236   1.880  11.868
43766SOL     OW33129   4.356   3.828   5.267
43766SOL    HW133130   4.438   3.863   5.303
43766SOL    HW233131   4.289   3.853   5.330
43767SOL     OW33132   2.604  11.029   2.346
43767SOL    HW133133   2.597  11.022   2.441
43767SOL    HW233134   2.699  11.026   2.329
43768SOL     OW33135   8.334   9.815   2.568
43768SOL    HW133136   8.375   9.901   2.582
43768SOL    HW233137   8.279   9.826   2.491
43769SOL     OW33138   9.471   4.343   7.850
43769SOL    HW133139   9.404   4.275   7.847
43769SOL    HW233140   9.529   4.315   7.921
43770SOL     OW33141   2.313  14.695   9.510
43770SOL    HW133142   2.302  14.789   9.496
43770SOL    HW233143   2.324  14.685   9.604
43771SOL     OW33144   8.958  13.088   1.834
43771SOL    HW133145   9.034  13.043   1.799
43771SOL    HW233146   8.927  13.143   1.762
43772SOL     OW33147  12.453  12.577   3.347
43772SOL    HW133148  12.358  12.562   3.353
43772SOL    HW233149  12.469  12.597   3.255
43773SOL     OW33150  10.033   0.834   7.558
43773SOL    HW133151   9.953   0.813   7.606
43773SOL    HW233152  10.027   0.782   7.477
43774SOL     OW33153   9.230   0.402   0.748
43774SOL    HW133154   9.266   0.439   0.668
43774SOL    HW233155   9.163   0.340   0.719
43775SOL     OW33156   6.448   9.193   8.424
43775SOL    HW133157   6.521   9.244   8.460
43775SOL    HW233158   6.419   9.138   8.497
43776SOL     OW33159   0.282  12.393   7.696
43776SOL    HW133160   0.281  12.467   7.635
43776SOL    HW233161   0.285  12.434   7.783
43777SOL     OW33162   1.981   4.955   1.402
43777SOL    HW133163   1.972   4.880   1.343
43777SOL    HW233164   1.950   4.923   1.487
43778SOL     OW33165   5.714  14.535   9.087
43778SOL    HW133166   5.631  14.560   9.126
43778SOL    HW233167   5.740  14.611   9.035
43779SOL     OW33168   4.655   7.114   6.008
43779SOL    HW133169   4.622   7.097   5.920
43779SOL    HW233170   4.669   7.209   6.010
43780SOL     OW33171   6.757   7.078   9.303
43780SOL    HW133172   6.796   7.047   9.385
43780SOL    HW233173   6.808   7.156   9.280
43781SOL     OW33174   9.275  12.090   9.665
43781SOL    HW133175   9.354  12.059   9.709
43781SOL    HW233176   9.304  12.165   9.613
43782SOL     OW33177  12.412  10.837   1.093
43782SOL    HW133178  12.445  10.915   1.049
43782SOL    HW233179  12.364  10.789   1.025
43783SOL     OW33180   8.338   3.657   8.757
43783SOL    HW133181   8.321   3.654   8.851
43783SOL    HW233182   8.297   3.577   8.722
43784SOL     OW33183   5.613  10.116   4.202
43784SOL    HW133184   5.639  10.136   4.292
43784SOL    HW233185   5.578  10.199   4.169
43785SOL     OW33186  11.612   7.166  10.106
43785SOL    HW133187  11.697   7.198  10.134
43785SOL    HW233188  11.626   7.134  10.017
43786SOL     OW33189   0.953   4.729   9.905
43786SOL    HW133190   1.004   4.648   9.904
43786SOL    HW233191   1.017   4.797   9.928
43787SOL     OW33192  11.627   1.753   7.224
43787SOL    HW133193  11.548   1.791   7.185
43787SOL    HW233194  11.654   1.684   7.164
43788SOL     OW33195   3.143   9.585   6.245
43788SOL    HW133196   3.180   9.610   6.160
43788SOL    HW233197   3.213   9.536   6.288
43789SOL     OW33198   9.135  14.153   6.327
43789SOL    HW133199   9.097  14.139   6.414
43789SOL    HW233200   9.071  14.116   6.266
43790SOL     OW33201   4.165  11.787  11.644
43790SOL    HW133202   4.081  11.815  11.680
43790SOL    HW233203   4.200  11.865  11.601
43791SOL     OW33204   2.055   1.170  10.259
43791SOL    HW133205   1.990   1.201  10.322
43791SOL    HW233206   2.006   1.114  10.199
43792SOL     OW33207   7.597   0.465  12.781
43792SOL    HW133208   7.582   0.540  12.724
43792SOL    HW233209   7.611   0.392  12.720
43793SOL     OW33210   1.764  10.011  10.232
43793SOL    HW133211   1.840  10.051  10.190
43793SOL    HW233212   1.755  10.057  10.315
43794SOL     OW33213   0.057  14.812   0.450
43794SOL    HW133214   0.085  14.848   0.366
43794SOL    HW233215   0.136  14.812   0.503
43795SOL     OW33216  10.775   6.415   2.780
43795SOL    HW133217  10.810   6.338   2.824
43795SOL    HW233218  10.682   6.396   2.767
43796SOL     OW33219   3.138   0.914  10.033
43796SOL    HW133220   3.161   0.977   9.965
43796SOL    HW233221   3.046   0.894  10.018
43797SOL     OW33222   0.796   2.824   6.879
43797SOL    HW133223   0.749   2.774   6.813
43797SOL    HW233224   0.869   2.768   6.904
43798SOL     OW33225  11.250  14.781   9.904
43798SOL    HW133226  11.280  14.836   9.832
43798SOL    HW233227  11.236  14.841   9.977
43799SOL     OW33228   4.718   6.341  10.772
43799SOL    HW133229   4.637   6.289  10.777
43799SOL    HW233230   4.786   6.282  10.805
43800SOL     OW33231   4.456  12.647   6.070
43800SOL    HW133232   4.474  12.599   6.151
43800SOL    HW233233   4.366  12.624   6.048
43801SOL     OW33234   2.410   2.965   8.596
43801SOL    HW133235   2.375   2.900   8.657
43801SOL    HW233236   2.486   3.001   8.641
43802SOL     OW33237  11.371   6.863   8.479
43802SOL    HW133238  11.427   6.788   8.499
43802SOL    HW233239  11.431   6.931   8.449
43803SOL     OW33240   3.105   0.877   5.823
43803SOL    HW133241   3.058   0.830   5.892
43803SOL    HW233242   3.166   0.933   5.871
43804SOL     OW33243   0.658   8.138   1.801
43804SOL    HW133244   0.649   8.140   1.706
43804SOL    HW233245   0.745   8.174   1.818
43805SOL     OW33246  11.926   2.363  12.500
43805SOL    HW133247  11.912   2.387  12.592
43805SOL    HW233248  11.933   2.268  12.501
43806SOL     OW33249   6.249   0.483   7.771
43806SOL    HW133250   6.218   0.503   7.860
43806SOL    HW233251   6.175   0.441   7.728
43807SOL     OW33252   0.267   6.504   8.654
43807SOL    HW133253   0.359   6.485   8.671
43807SOL    HW233254   0.221   6.469   8.730
43808SOL     OW33255  12.150  12.433  12.165
43808SOL    HW133256  12.055  12.444  12.165
43808SOL    HW233257  12.166  12.357  12.221
43809SOL     OW33258   3.978   8.411  13.774
43809SOL    HW133259   3.938   8.464  13.705
43809SOL    HW233260   4.049   8.365  13.730
43810SOL     OW33261  10.971   5.785   6.809
43810SOL    HW133262  10.890   5.818   6.847
43810SOL    HW233263  10.994   5.709   6.863
43811SOL     OW33264   4.533   9.170  11.443
43811SOL    HW133265   4.608   9.118  11.472
43811SOL    HW233266   4.560   9.206  11.359
43812SOL     OW33267   1.421   4.261   5.475
43812SOL    HW133268   1.444   4.330   5.412
43812SOL    HW233269   1.424   4.305   5.560
43813SOL     OW33270   3.485   0.620   1.941
43813SOL    HW133271   3.450   0.591   2.026
43813SOL    HW233272   3.419   0.591   1.877
43814SOL     OW33273  13.599  11.910   8.803
43814SOL    HW133274  13.608  11.935   8.895
43814SOL    HW233275  13.664  11.840   8.791
43815SOL     OW33276   9.277   1.310   3.783
43815SOL    HW133277   9.294   1.247   3.853
43815SOL    HW233278   9.352   1.301   3.724
43816SOL     OW33279   2.135   3.649  10.156
43816SOL    HW133280   2.061   3.622  10.211
43816SOL    HW233281   2.212   3.635  10.211
43817SOL     OW33282   0.739   9.325   6.587
43817SOL    HW133283   0.834   9.324   6.586
43817SOL    HW233284   0.714   9.340   6.496
43818SOL     OW33285   0.546  11.300   0.946
43818SOL    HW133286   0.528  11.206   0.951
43818SOL    HW233287   0.605  11.310   0.871
43819SOL     OW33288   5.169   1.303   2.514
43819SOL    HW133289   5.141   1.215   2.490
43819SOL    HW233290   5.163   1.352   2.432
43820SOL     OW33291   6.146  13.891  14.515
43820SOL    HW133292   6.134  13.906  14.421
43820SOL    HW233293   6.236  13.860  14.523
43821SOL     OW33294   3.092   5.162   0.817
43821SOL    HW133295   3.093   5.101   0.890
43821SOL    HW233296   3.008   5.208   0.824
43822SOL     OW33297   3.328  10.367   5.402
43822SOL    HW133298   3.311  10.453   5.440
43822SOL    HW233299   3.246  10.319   5.414
43823SOL     OW33300  12.792   2.034   8.989
43823SOL    HW133301  12.704   1.998   8.973
43823SOL    HW233302  12.809   2.090   8.914
43824SOL     OW33303   7.104  13.832   2.810
43824SOL    HW133304   7.041  13.784   2.863
43824SOL    HW233305   7.067  13.920   2.802
43825SOL     OW33306   1.052   9.576  12.360
43825SOL    HW133307   1.107   9.646  12.325
43825SOL    HW233308   1.018   9.611  12.442
43826SOL     OW33309   9.502  13.706   1.549
43826SOL    HW133310   9.469  13.756   1.624
43826SOL    HW233311   9.597  13.708   1.559
43827SOL     OW33312   9.005   8.271  10.720
43827SOL    HW133313   9.069   8.342  10.730
43827SOL    HW233314   9.031   8.205  10.784
43828SOL     OW33315   2.683  13.319   8.343
43828SOL    HW133316   2.699  13.309   8.249
43828SOL    HW233317   2.716  13.406   8.364
43829SOL     OW33318  14.326   8.483   3.498
43829SOL    HW133319  14.411   8.470   3.541
43829SOL    HW233320  14.290   8.561   3.540
43830SOL     OW33321  11.800  11.125   8.362
43830SOL    HW133322  11.875  11.117   8.420
43830SOL    HW233323  11.802  11.217   8.333
43831SOL     OW33324   4.503   3.798   2.487
43831SOL    HW133325   4.410   3.805   2.508
43831SOL    HW233326   4.546   3.799   2.573
43832SOL     OW33327  10.637   5.255   6.736
43832SOL    HW133328  10.648   5.186   6.671
43832SOL    HW233329  10.713   5.246   6.793
43833SOL     OW33330   1.555   1.503  10.250
43833SOL    HW133331   1.632   1.457  10.216
43833SOL    HW233332   1.481   1.458  10.210
43834SOL     OW33333  11.028  10.900  11.203
43834SOL    HW133334  10.988  10.815  11.217
43834SOL    HW233335  10.955  10.959  11.182
43835SOL     OW33336   7.844   9.512   8.585
43835SOL    HW133337   7.818   9.506   8.493
43835SOL    HW233338   7.897   9.434   8.600
43836SOL     OW33339  11.568  11.058  13.492
43836SOL    HW133340  11.653  11.079  13.530
43836SOL    HW233341  11.536  11.142  13.459
43837SOL     OW33342   1.536   0.107  12.279
43837SOL    HW133343   1.527   0.024  12.232
43837SOL    HW233344   1.499   0.090  12.366
43838SOL     OW33345   6.659  12.613   6.484
43838SOL    HW133346   6.618  12.691   6.524
43838SOL    HW233347   6.753  12.627   6.497
43839SOL     OW33348   2.718  13.197   2.816
43839SOL    HW133349   2.647  13.134   2.829
43839SOL    HW233350   2.675  13.282   2.809
43840SOL     OW33351   6.235  11.390   8.903
43840SOL    HW133352   6.209  11.299   8.887
43840SOL    HW233353   6.249  11.394   8.998
43841SOL     OW33354  11.533  10.209   7.753
43841SOL    HW133355  11.614  10.176   7.793
43841SOL    HW233356  11.474  10.134   7.752
43842SOL     OW33357  10.708   0.066   8.016
43842SOL    HW133358  10.693   0.155   7.985
43842SOL    HW233359  10.641   0.014   7.972
43843SOL     OW33360   6.785   7.606  13.166
43843SOL    HW133361   6.699   7.602  13.125
43843SOL    HW233362   6.835   7.534  13.126
43844SOL     OW33363   1.975   3.743   9.246
43844SOL    HW133364   1.962   3.684   9.320
43844SOL    HW233365   1.887   3.767   9.218
43845SOL     OW33366   1.296   8.307  11.293
43845SOL    HW133367   1.390   8.293  11.285
43845SOL    HW233368   1.278   8.300  11.387
43846SOL     OW33369  14.669   8.733   5.633
43846SOL    HW133370  14.631   8.819   5.648
43846SOL    HW233371  14.755   8.752   5.593
43847SOL     OW33372  11.660   6.670   2.000
43847SOL    HW133373  11.663   6.649   2.094
43847SOL    HW233374  11.669   6.765   1.997
43848SOL     OW33375   9.191  10.089   5.786
43848SOL    HW133376   9.116  10.043   5.746
43848SOL    HW233377   9.205  10.165   5.729
43849SOL     OW33378  11.207   2.604  14.071
43849SOL    HW133379  11.200   2.700  14.076
43849SOL    HW233380  11.216   2.585  13.978
43850SOL     OW33381  10.545   0.024   5.260
43850SOL    HW133382  10.527   0.048   5.169
43850SOL    HW233383  10.638  14.875   5.259
43851SOL     OW33384   9.195   8.385   5.677
43851SOL    HW133385   9.130   8.344   5.620
43851SOL    HW233386   9.182   8.344   5.762
43852SOL     OW33387  12.110  11.832   6.949
43852SOL    HW133388  12.057  11.827   6.869
43852SOL    HW233389  12.200  11.825   6.919
43853SOL     OW33390   9.892  12.604  14.869
43853SOL    HW133391   9.849  12.528   0.032
43853SOL    HW233392   9.905  12.665   0.066
43854SOL     OW33393   2.065  12.750   1.013
43854SOL    HW133394   2.112  12.676   0.975
43854SOL    HW233395   2.044  12.807   0.939
43855SOL     OW33396   9.300  11.231   0.221
43855SOL    HW133397   9.318  11.160   0.160
43855SOL    HW233398   9.223  11.275   0.185
43856SOL     OW33399   0.053   1.741   3.345
43856SOL    HW133400   0.094   1.826   3.359
43856SOL    HW233401   0.020   1.744   3.255
43857SOL     OW33402   0.914  13.881   6.578
43857SOL    HW133403   0.959  13.806   6.540
43857SOL    HW233404   0.933  13.875   6.672
43858SOL     OW33405   2.780  14.315  11.820
43858SOL    HW133406   2.688  14.316  11.846
43858SOL    HW233407   2.778  14.319  11.725
43859SOL     OW33408   7.282   0.482   6.183
43859SOL    HW133409   7.331   0.464   6.263
43859SOL    HW233410   7.339   0.451   6.113
43860SOL     OW33411  14.359   7.425   6.352
43860SOL    HW133412  14.449   7.443   6.326
43860SOL    HW233413  14.346   7.475   6.432
43861SOL     OW33414   0.912   8.249  14.680
43861SOL    HW133415   0.907   8.325  14.622
43861SOL    HW233416   0.896   8.174  14.623
43862SOL     OW33417  12.628  10.535   0.854
43862SOL    HW133418  12.590  10.558   0.938
43862SOL    HW233419  12.719  10.512   0.874
43863SOL     OW33420   9.116   2.744   3.554
43863SOL    HW133421   9.110   2.817   3.492
43863SOL    HW233422   9.196   2.763   3.604
43864SOL     OW33423   4.224   2.594   2.538
43864SOL    HW133424   4.264   2.634   2.615
43864SOL    HW233425   4.168   2.525   2.573
43865SOL     OW33426  10.704  11.905  14.262
43865SOL    HW133427  10.787  11.859  14.259
43865SOL    HW233428  10.728  11.997  14.270
43866SOL     OW33429   6.933   3.883  13.896
43866SOL    HW133430   6.989   3.876  13.973
43866SOL    HW233431   6.917   3.977  13.886
43867SOL     OW33432  10.921   6.750   2.444
43867SOL    HW133433  10.961   6.817   2.500
43867SOL    HW233434  10.971   6.671   2.463
43868SOL     OW33435   0.817  12.921   8.956
43868SOL    HW133436   0.801  12.908   8.863
43868SOL    HW233437   0.841  12.835   8.989
43869SOL     OW33438   7.537   9.626  11.048
43869SOL    HW133439   7.464   9.612  10.988
43869SOL    HW233440   7.526   9.561  11.117
43870SOL     OW33441  12.079   0.312  12.984
43870SOL    HW133442  12.034   0.234  13.016
43870SOL    HW233443  12.157   0.278  12.940
43871SOL     OW33444   6.069  10.440  10.122
43871SOL    HW133445   6.063  10.411  10.031
43871SOL    HW233446   6.156  10.478  10.130
43872SOL     OW33447   3.707   6.129  11.154
43872SOL    HW133448   3.768   6.138  11.227
43872SOL    HW233449   3.694   6.035  11.145
43873SOL     OW33450   7.024   0.294  13.060
43873SOL    HW133451   6.985   0.361  13.005
43873SOL    HW233452   7.117   0.294  13.037
43874SOL     OW33453   4.186  14.706  13.771
43874SOL    HW133454   4.141  14.636  13.724
43874SOL    HW233455   4.248  14.742  13.708
43875SOL     OW33456   0.314   7.918  13.526
43875SOL    HW133457   0.391   7.915  13.469
43875SOL    HW233458   0.331   7.992  13.585
43876SOL     OW33459   7.213   7.057   7.319
43876SOL    HW133460   7.121   7.080   7.305
43876SOL    HW233461   7.255   7.076   7.235
43877SOL     OW33462   1.406  13.084  14.245
43877SOL    HW133463   1.449  13.169  14.259
43877SOL    HW233464   1.328  13.104  14.194
43878SOL     OW33465   7.844   8.292   2.120
43878SOL    HW133466   7.795   8.284   2.202
43878SOL    HW233467   7.834   8.383   2.095
43879SOL     OW33468   0.366   1.744  13.188
43879SOL    HW133469   0.364   1.718  13.280
43879SOL    HW233470   0.459   1.750  13.166
43880SOL     OW33471  12.788   5.033   8.260
43880SOL    HW133472  12.807   4.962   8.198
43880SOL    HW233473  12.835   5.008   8.340
43881SOL     OW33474  13.732  12.935   9.812
43881SOL    HW133475  13.784  13.006   9.850
43881SOL    HW233476  13.738  12.950   9.717
43882SOL     OW33477   8.898   2.362   9.288
43882SOL    HW133478   8.866   2.345   9.199
43882SOL    HW233479   8.845   2.305   9.344
43883SOL     OW33480   1.726   5.677   8.280
43883SOL    HW133481   1.728   5.706   8.371
43883SOL    HW233482   1.787   5.603   8.276
43884SOL     OW33483   3.062  10.730   3.613
43884SOL    HW133484   3.055  10.812   3.564
43884SOL    HW233485   3.099  10.668   3.552
43885SOL     OW33486   1.078   4.057   2.466
43885SOL    HW133487   1.062   4.151   2.468
43885SOL    HW233488   1.134   4.044   2.389
43886SOL     OW33489   2.850   0.331  11.722
43886SOL    HW133490   2.765   0.293  11.701
43886SOL    HW233491   2.885   0.274  11.791
43887SOL     OW33492   6.876   9.640   7.351
43887SOL    HW133493   6.890   9.554   7.310
43887SOL    HW233494   6.825   9.622   7.430
43888SOL     OW33495   5.990   8.179  11.782
43888SOL    HW133496   5.926   8.250  11.783
43888SOL    HW233497   6.011   8.166  11.689
43889SOL     OW33498   0.029   9.827   6.862
43889SOL    HW133499   0.090   9.891   6.824
43889SOL    HW233500  14.819   9.857   6.834
43890SOL     OW33501  11.920   3.796  13.836
43890SOL    HW133502  11.888   3.864  13.777
43890SOL    HW233503  11.883   3.818  13.921
43891SOL     OW33504   8.690   6.534  12.672
43891SOL    HW133505   8.775   6.551  12.712
43891SOL    HW233506   8.704   6.459  12.615
43892SOL     OW33507   1.523  14.451  10.943
43892SOL    HW133508   1.615  14.427  10.949
43892SOL    HW233509   1.514  14.488  10.855
43893SOL     OW33510   9.686   7.435  13.779
43893SOL    HW133511   9.708   7.526  13.795
43893SOL    HW233512   9.591   7.430  13.794
43894SOL     OW33513   2.959  13.111   6.098
43894SOL    HW133514   3.037  13.166   6.099
43894SOL    HW233515   2.926  13.117   6.009
43895SOL     OW33516   3.224   4.608  14.376
43895SOL    HW133517   3.183   4.689  14.409
43895SOL    HW233518   3.313   4.610  14.413
43896SOL     OW33519   6.835   1.639   6.258
43896SOL    HW133520   6.885   1.595   6.327
43896SOL    HW233521   6.902   1.671   6.197
43897SOL     OW33522  11.165   5.917  10.092
43897SOL    HW133523  11.247   5.961  10.115
43897SOL    HW233524  11.105   5.940  10.163
43898SOL     OW33525   1.541   7.701  13.402
43898SOL    HW133526   1.529   7.796  13.406
43898SOL    HW233527   1.573   7.685  13.313
43899SOL     OW33528   3.552  10.856   4.016
43899SOL    HW133529   3.623  10.888   4.071
43899SOL    HW233530   3.489  10.818   4.077
43900SOL     OW33531   5.821   9.278  11.063
43900SOL    HW133532   5.743   9.322  11.029
43900SOL    HW233533   5.870   9.254  10.985
43901SOL     OW33534   9.356   7.072   6.577
43901SOL    HW133535   9.357   7.035   6.666
43901SOL    HW233536   9.436   7.125   6.573
43902SOL     OW33537   8.159   8.936   1.286
43902SOL    HW133538   8.162   9.020   1.330
43902SOL    HW233539   8.170   8.957   1.193
43903SOL     OW33540  10.192   8.230   7.980
43903SOL    HW133541  10.140   8.213   8.058
43903SOL    HW233542  10.167   8.161   7.918
43904SOL     OW33543   3.549   5.298   6.547
43904SOL    HW133544   3.512   5.363   6.606
43904SOL    HW233545   3.599   5.239   6.605
43905SOL     OW33546   5.041   1.598  14.595
43905SOL    HW133547   5.036   1.505  14.573
43905SOL    HW233548   5.044   1.599  14.691
43906SOL     OW33549   0.586   9.205   4.237
43906SOL    HW133550   0.508   9.235   4.284
43906SOL    HW233551   0.557   9.124   4.194
43907SOL     OW33552  14.556   1.633   2.878
43907SOL    HW133553  14.488   1.566   2.872
43907SOL    HW233554  14.551   1.664   2.969
43908SOL     OW33555   9.575   4.689  13.481
43908SOL    HW133556   9.493   4.701  13.529
43908SOL    HW233557   9.587   4.771  13.432
43909SOL     OW33558   6.223   0.319   5.061
43909SOL    HW133559   6.316   0.298   5.054
43909SOL    HW233560   6.221   0.406   5.102
43910SOL     OW33561  11.559   0.792  14.439
43910SOL    HW133562  11.606   0.730  14.382
43910SOL    HW233563  11.468   0.763  14.435
43911SOL     OW33564   2.240   8.296  12.111
43911SOL    HW133565   2.303   8.366  12.095
43911SOL    HW233566   2.276   8.220  12.064
43912SOL     OW33567  10.335   3.371  13.371
43912SOL    HW133568  10.269   3.335  13.431
43912SOL    HW233569  10.414   3.378  13.424
43913SOL     OW33570   9.405   6.454   4.519
43913SOL    HW133571   9.379   6.415   4.436
43913SOL    HW233572   9.498   6.436   4.527
43914SOL     OW33573   0.223  11.294  12.640
43914SOL    HW133574   0.167  11.367  12.613
43914SOL    HW233575   0.179  11.257  12.717
43915SOL     OW33576   6.245   7.542   1.435
43915SOL    HW133577   6.208   7.476   1.494
43915SOL    HW233578   6.199   7.528   1.352
43916SOL     OW33579   6.095  12.499  12.106
43916SOL    HW133580   6.086  12.482  12.012
43916SOL    HW233581   6.007  12.486  12.141
43917SOL     OW33582   7.106   8.726   6.768
43917SOL    HW133583   7.086   8.810   6.809
43917SOL    HW233584   7.047   8.722   6.693
43918SOL     OW33585   6.399   7.083   8.539
43918SOL    HW133586   6.492   7.066   8.549
43918SOL    HW233587   6.361   6.998   8.517
43919SOL     OW33588   0.497   3.401   4.847
43919SOL    HW133589   0.507   3.338   4.919
43919SOL    HW233590   0.575   3.455   4.852
43920SOL     OW33591   7.764   8.458   2.797
43920SOL    HW133592   7.786   8.365   2.804
43920SOL    HW233593   7.688   8.461   2.739
43921SOL     OW33594  13.568  12.146   3.639
43921SOL    HW133595  13.525  12.103   3.713
43921SOL    HW233596  13.534  12.235   3.639
43922SOL     OW33597  13.366   3.530  13.046
43922SOL    HW133598  13.443   3.526  13.103
43922SOL    HW233599  13.300   3.479  13.092
43923SOL     OW33600  13.958   3.423   5.691
43923SOL    HW133601  14.017   3.370   5.637
43923SOL    HW233602  13.936   3.367   5.765
43924SOL     OW33603  14.033   9.665   2.239
43924SOL    HW133604  13.992   9.589   2.196
43924SOL    HW233605  14.059   9.721   2.166
43925SOL     OW33606   3.202  13.529  13.128
43925SOL    HW133607   3.158  13.594  13.183
43925SOL    HW233608   3.244  13.581  13.059
43926SOL     OW33609  13.977   5.149   6.007
43926SOL    HW133610  13.996   5.060   5.976
43926SOL    HW233611  13.930   5.136   6.090
43927SOL     OW33612  12.114   6.368   9.848
43927SOL    HW133613  12.129   6.315   9.770
43927SOL    HW233614  12.078   6.450   9.815
43928SOL     OW33615  10.677  12.124  11.530
43928SOL    HW133616  10.748  12.074  11.489
43928SOL    HW233617  10.659  12.077  11.612
43929SOL     OW33618   3.195  13.802  13.956
43929SOL    HW133619   3.173  13.892  13.979
43929SOL    HW233620   3.266  13.810  13.893
43930SOL     OW33621  11.532  13.500   6.923
43930SOL    HW133622  11.480  13.569   6.881
43930SOL    HW233623  11.520  13.513   7.017
43931SOL     OW33624  11.720  13.533  12.316
43931SOL    HW133625  11.809  13.564  12.301
43931SOL    HW233626  11.731  13.441  12.341
43932SOL     OW33627   2.221   5.471   3.411
43932SOL    HW133628   2.274   5.475   3.490
43932SOL    HW233629   2.142   5.425   3.438
43933SOL     OW33630   0.843   6.695   1.604
43933SOL    HW133631   0.862   6.614   1.557
43933SOL    HW233632   0.928   6.732   1.626
43934SOL     OW33633  10.647   7.841  13.089
43934SOL    HW133634  10.672   7.816  13.178
43934SOL    HW233635  10.579   7.907  13.101
43935SOL     OW33636   6.970   9.235  11.840
43935SOL    HW133637   7.048   9.259  11.889
43935SOL    HW233638   7.002   9.179  11.769
43936SOL     OW33639   7.424   2.170   4.744
43936SOL    HW133640   7.330   2.187   4.748
43936SOL    HW233641   7.462   2.254   4.716
43937SOL     OW33642   4.356   1.126  11.395
43937SOL    HW133643   4.264   1.107  11.379
43937SOL    HW233644   4.398   1.040  11.401
43938SOL     OW33645  14.642   4.889   7.119
43938SOL    HW133646  14.656   4.826   7.190
43938SOL    HW233647  14.670   4.973   7.155
43939SOL     OW33648  12.908   5.112   2.462
43939SOL    HW133649  12.873   5.109   2.373
43939SOL    HW233650  12.859   5.046   2.510
43940SOL     OW33651   1.533   9.564   5.871
43940SOL    HW133652   1.543   9.480   5.915
43940SOL    HW233653   1.448   9.597   5.899
43941SOL     OW33654   8.225  14.704   6.516
43941SOL    HW133655   8.159  14.734   6.453
43941SOL    HW233656   8.275  14.783   6.538
43942SOL     OW33657  10.358   3.471  12.916
43942SOL    HW133658  10.378   3.431  13.001
43942SOL    HW233659  10.345   3.396  12.857
43943SOL     OW33660   0.204   8.451  13.437
43943SOL    HW133661   0.260   8.432  13.512
43943SOL    HW233662   0.261   8.439  13.361
43944SOL     OW33663   1.963   2.317  10.498
43944SOL    HW133664   2.046   2.275  10.474
43944SOL    HW233665   1.919   2.252  10.553
43945SOL     OW33666  10.689   0.164  14.301
43945SOL    HW133667  10.728   0.100  14.361
43945SOL    HW233668  10.604   0.184  14.340
43946SOL     OW33669   3.118   9.562   9.558
43946SOL    HW133670   3.151   9.544   9.646
43946SOL    HW233671   3.107   9.475   9.519
43947SOL     OW33672   7.024  12.372   7.946
43947SOL    HW133673   7.027  12.424   7.865
43947SOL    HW233674   7.111  12.381   7.983
43948SOL     OW33675   0.300   4.761   3.833
43948SOL    HW133676   0.234   4.796   3.893
43948SOL    HW233677   0.249   4.723   3.761
43949SOL     OW33678  10.296  12.250   9.204
43949SOL    HW133679  10.379  12.202   9.206
43949SOL    HW233680  10.284  12.274   9.113
43950SOL     OW33681   6.924  11.844   6.471
43950SOL    HW133682   6.835  11.877   6.485
43950SOL    HW233683   6.928  11.762   6.520
43951SOL     OW33684   7.498  13.133  12.102
43951SOL    HW133685   7.501  13.089  12.017
43951SOL    HW233686   7.479  13.224  12.081
43952SOL     OW33687   0.124   6.554   0.827
43952SOL    HW133688   0.186   6.481   0.827
43952SOL    HW233689   0.121   6.583   0.918
43953SOL     OW33690  14.597   4.531   9.192
43953SOL    HW133691  14.552   4.513   9.275
43953SOL    HW233692  14.563   4.465   9.131
43954SOL     OW33693  11.564   8.739   9.485
43954SOL    HW133694  11.507   8.783   9.548
43954SOL    HW233695  11.652   8.752   9.520
43955SOL     OW33696  11.281  11.642  13.090
43955SOL    HW133697  11.208  11.674  13.143
43955SOL    HW233698  11.254  11.658  12.999
43956SOL     OW33699   1.342  12.688   3.992
43956SOL    HW133700   1.247  12.673   3.988
43956SOL    HW233701   1.374  12.667   3.905
43957SOL     OW33702   8.582   2.139   2.501
43957SOL    HW133703   8.596   2.183   2.417
43957SOL    HW233704   8.520   2.195   2.547
43958SOL     OW33705   8.090   5.289  11.413
43958SOL    HW133706   8.087   5.366  11.470
43958SOL    HW233707   8.001   5.255  11.416
43959SOL     OW33708  13.670  13.752   5.433
43959SOL    HW133709  13.631  13.820   5.488
43959SOL    HW233710  13.764  13.759   5.450
43960SOL     OW33711   4.236   4.844   9.681
43960SOL    HW133712   4.165   4.858   9.744
43960SOL    HW233713   4.215   4.902   9.608
43961SOL     OW33714  14.030   9.864  14.216
43961SOL    HW133715  13.973   9.799  14.257
43961SOL    HW233716  14.091   9.889  14.284
43962SOL     OW33717   7.759   8.902  14.168
43962SOL    HW133718   7.845   8.915  14.128
43962SOL    HW233719   7.774   8.918  14.262
43963SOL     OW33720   1.521   1.087   2.370
43963SOL    HW133721   1.462   1.025   2.328
43963SOL    HW233722   1.486   1.098   2.459
43964SOL     OW33723   3.592  10.629   1.083
43964SOL    HW133724   3.528  10.575   1.131
43964SOL    HW233725   3.576  10.718   1.115
43965SOL     OW33726   0.013  11.456  12.701
43965SOL    HW133727  14.832  11.432  12.774
43965SOL    HW233728  14.866  11.547  12.682
43966SOL     OW33729   4.109   3.808   4.296
43966SOL    HW133730   4.051   3.883   4.311
43966SOL    HW233731   4.118   3.767   4.382
43967SOL     OW33732  13.387   7.117  14.680
43967SOL    HW133733  13.322   7.061  14.637
43967SOL    HW233734  13.437   7.156  14.607
43968SOL     OW33735   7.317   0.318   5.075
43968SOL    HW133736   7.228   0.337   5.045
43968SOL    HW233737   7.353   0.260   5.008
43969SOL     OW33738   4.500  10.158   6.611
43969SOL    HW133739   4.420  10.207   6.591
43969SOL    HW233740   4.532  10.197   6.692
43970SOL     OW33741   3.867   7.361   3.705
43970SOL    HW133742   3.922   7.440   3.714
43970SOL    HW233743   3.903   7.300   3.769
43971SOL     OW33744   9.685  14.120   9.561
43971SOL    HW133745   9.655  14.040   9.604
43971SOL    HW233746   9.611  14.147   9.506
43972SOL     OW33747   5.422   8.709  11.377
43972SOL    HW133748   5.364   8.633  11.382
43972SOL    HW233749   5.388   8.770  11.442
43973SOL     OW33750   8.464   5.333  13.144
43973SOL    HW133751   8.514   5.408  13.176
43973SOL    HW233752   8.529   5.274  13.107
43974SOL     OW33753   7.962  12.699   9.688
43974SOL    HW133754   7.943  12.782   9.643
43974SOL    HW233755   7.979  12.724   9.779
43975SOL     OW33756   1.854  13.652   7.367
43975SOL    HW133757   1.931  13.667   7.313
43975SOL    HW233758   1.815  13.738   7.378
43976SOL     OW33759  13.435   8.965   4.981
43976SOL    HW133760  13.485   9.046   4.990
43976SOL    HW233761  13.356   8.990   4.933
43977SOL     OW33762   2.751  11.165  14.570
43977SOL    HW133763   2.767  11.071  14.564
43977SOL    HW233764   2.776  11.187  14.660
43978SOL     OW33765   6.079   9.471   9.948
43978SOL    HW133766   6.022   9.444  10.021
43978SOL    HW233767   6.122   9.550   9.980
43979SOL     OW33768   5.387   0.032   9.138
43979SOL    HW133769   5.387  14.818   9.172
43979SOL    HW233770   5.389   0.022   9.043
43980SOL     OW33771   9.584   9.378   9.654
43980SOL    HW133772   9.633   9.309   9.699
43980SOL    HW233773   9.494   9.346   9.653
43981SOL     OW33774   1.488   8.738  10.853
43981SOL    HW133775   1.534   8.816  10.821
43981SOL    HW233776   1.555   8.689  10.901
43982SOL     OW33777   5.096   5.031   7.982
43982SOL    HW133778   5.080   5.078   7.900
43982SOL    HW233779   5.076   5.095   8.051
43983SOL     OW33780   8.666   2.529   4.254
43983SOL    HW133781   8.624   2.549   4.170
43983SOL    HW233782   8.744   2.480   4.231
43984SOL     OW33783   0.660  13.768   3.894
43984SOL    HW133784   0.696  13.681   3.910
43984SOL    HW233785   0.686  13.819   3.971
43985SOL     OW33786  10.143   7.396  11.605
43985SOL    HW133787  10.213   7.432  11.659
43985SOL    HW233788  10.172   7.308  11.582
43986SOL     OW33789  10.426   9.975   4.126
43986SOL    HW133790  10.336   9.955   4.154
43986SOL    HW233791  10.419   9.987   4.031
43987SOL     OW33792  12.435   9.701   9.321
43987SOL    HW133793  12.434   9.642   9.396
43987SOL    HW233794  12.429   9.644   9.245
43988SOL     OW33795  12.894  12.189  14.157
43988SOL    HW133796  12.932  12.276  14.147
43988SOL    HW233797  12.970  12.132  14.170
43989SOL     OW33798   9.095   3.012   8.284
43989SOL    HW133799   9.096   3.107   8.266
43989SOL    HW233800   9.083   3.006   8.379
43990SOL     OW33801   1.299   9.359  10.458
43990SOL    HW133802   1.305   9.423  10.387
43990SOL    HW233803   1.245   9.289  10.423
43991SOL     OW33804   3.597   5.241  14.541
43991SOL    HW133805   3.655   5.186  14.489
43991SOL    HW233806   3.655   5.291  14.598
43992SOL     OW33807   5.080  10.766  12.186
43992SOL    HW133808   5.063  10.844  12.133
43992SOL    HW233809   5.175  10.765  12.197
43993SOL     OW33810   4.548   7.391   9.334
43993SOL    HW133811   4.553   7.410   9.428
43993SOL    HW233812   4.455   7.378   9.317
43994SOL     OW33813   7.390  10.546   7.059
43994SOL    HW133814   7.401  10.452   7.045
43994SOL    HW233815   7.296  10.562   7.048
43995SOL     OW33816  11.271  13.370   7.994
43995SOL    HW133817  11.220  13.320   7.930
43995SOL    HW233818  11.205  13.416   8.047
43996SOL     OW33819  13.881  13.538   8.485
43996SOL    HW133820  13.835  13.553   8.403
43996SOL    HW233821  13.938  13.615   8.495
43997SOL     OW33822   8.605   7.364   1.282
43997SOL    HW133823   8.663   7.408   1.345
43997SOL    HW233824   8.632   7.399   1.197
43998SOL     OW33825   0.417  12.400  11.457
43998SOL    HW133826   0.387  12.400  11.366
43998SOL    HW233827   0.510  12.420  11.451
43999SOL     OW33828  13.736   9.951  10.518
43999SOL    HW133829  13.705   9.870  10.558
43999SOL    HW233830  13.720   9.939  10.424
44000SOL     OW33831   7.894  13.329   9.577
44000SOL    HW133832   7.914  13.261   9.513
44000SOL    HW233833   7.844  13.284   9.645
44001SOL     OW33834   0.265   9.577  12.635
44001SOL    HW133835   0.228   9.658  12.671
44001SOL    HW233836   0.256   9.514  12.706
44002SOL     OW33837   5.210   4.070   9.553
44002SOL    HW133838   5.230   4.117   9.472
44002SOL    HW233839   5.209   4.138   9.621
44003SOL     OW33840   0.442  12.064  11.970
44003SOL    HW133841   0.407  12.124  12.035
44003SOL    HW233842   0.392  12.082  11.890
44004SOL     OW33843   4.993   1.257  11.127
44004SOL    HW133844   4.904   1.235  11.101
44004SOL    HW233845   5.033   1.293  11.048
44005SOL     OW33846  11.458  10.669   3.588
44005SOL    HW133847  11.499  10.670   3.502
44005SOL    HW233848  11.527  10.699   3.648
44006SOL     OW33849   3.195   1.973  11.824
44006SOL    HW133850   3.273   1.988  11.878
44006SOL    HW233851   3.229   1.967  11.735
44007SOL     OW33852   9.794   0.010   1.160
44007SOL    HW133853   9.887  14.872   1.172
44007SOL    HW233854   9.784   0.034   1.068
44008SOL     OW33855  14.831  12.733   4.542
44008SOL    HW133856  14.837  12.787   4.620
44008SOL    HW233857  14.793  12.790   4.475
44009SOL     OW33858   9.444   0.828   6.829
44009SOL    HW133859   9.539   0.840   6.829
44009SOL    HW233860   9.429   0.751   6.883
44010SOL     OW33861   7.752  11.406   1.120
44010SOL    HW133862   7.704  11.463   1.180
44010SOL    HW233863   7.821  11.366   1.174
44011SOL     OW33864   1.103   1.063   7.531
44011SOL    HW133865   1.106   1.127   7.602
44011SOL    HW233866   1.145   1.107   7.458
44012SOL     OW33867  11.024   7.903  14.049
44012SOL    HW133868  11.096   7.903  14.112
44012SOL    HW233869  10.972   7.825  14.072
44013SOL     OW33870   0.348   6.866   0.914
44013SOL    HW133871   0.352   6.962   0.918
44013SOL    HW233872   0.392   6.844   0.832
44014SOL     OW33873   2.955   5.262   7.884
44014SOL    HW133874   3.007   5.325   7.934
44014SOL    HW233875   2.877   5.312   7.857
44015SOL     OW33876  11.846   6.874   8.865
44015SOL    HW133877  11.880   6.949   8.914
44015SOL    HW233878  11.815   6.814   8.932
44016SOL     OW33879   5.789   4.358  14.165
44016SOL    HW133880   5.712   4.327  14.117
44016SOL    HW233881   5.765   4.348  14.257
44017SOL     OW33882   6.587  13.869  10.040
44017SOL    HW133883   6.622  13.944   9.992
44017SOL    HW233884   6.631  13.873  10.125
44018SOL     OW33885   2.895   3.763  14.240
44018SOL    HW133886   2.943   3.742  14.160
44018SOL    HW233887   2.847   3.843  14.219
44019SOL     OW33888   7.721   0.094  10.976
44019SOL    HW133889   7.635   0.133  10.991
44019SOL    HW233890   7.735   0.103  10.882
44020SOL     OW33891   7.153   0.182   1.651
44020SOL    HW133892   7.150   0.277   1.661
44020SOL    HW233893   7.128   0.148   1.737
44021SOL     OW33894   4.160  14.664  14.489
44021SOL    HW133895   4.089  14.728  14.487
44021SOL    HW233896   4.126  14.593  14.543
44022SOL     OW33897  12.580   9.534  13.896
44022SOL    HW133898  12.567   9.475  13.821
44022SOL    HW233899  12.631   9.607  13.860
44023SOL     OW33900   4.695   2.155  12.911
44023SOL    HW133901   4.651   2.086  12.962
44023SOL    HW233902   4.625   2.215  12.886
44024SOL     OW33903   0.958   0.340   7.626
44024SOL    HW133904   0.878   0.295   7.600
44024SOL    HW233905   0.942   0.432   7.608
44025SOL     OW33906  13.105   9.863   9.733
44025SOL    HW133907  13.073   9.781   9.696
44025SOL    HW233908  13.086   9.857   9.826
44026SOL     OW33909  14.208  13.411   8.859
44026SOL    HW133910  14.117  13.437   8.843
44026SOL    HW233911  14.230  13.352   8.787
44027SOL     OW33912   0.300   6.156  14.685
44027SOL    HW133913   0.310   6.159  14.781
44027SOL    HW233914   0.249   6.076  14.669
44028SOL     OW33915  13.184   9.425   5.054
44028SOL    HW133916  13.275   9.453   5.065
44028SOL    HW233917  13.180   9.391   4.964
44029SOL     OW33918   5.431   9.935   3.122
44029SOL    HW133919   5.352   9.916   3.073
44029SOL    HW233920   5.502   9.914   3.062
44030SOL     OW33921  14.810   4.884   9.506
44030SOL    HW133922   0.029   4.893   9.499
44030SOL    HW233923  14.789   4.913   9.595
44031SOL     OW33924   5.654  13.630   3.278
44031SOL    HW133925   5.664  13.591   3.191
44031SOL    HW233926   5.582  13.693   3.267
44032SOL     OW33927   7.324   4.960   4.046
44032SOL    HW133928   7.257   4.907   4.002
44032SOL    HW233929   7.383   4.896   4.085
44033SOL     OW33930  14.440   1.811   2.666
44033SOL    HW133931  14.505   1.802   2.736
44033SOL    HW233932  14.477   1.876   2.606
44034SOL     OW33933  14.396  11.234   1.610
44034SOL    HW133934  14.374  11.168   1.544
44034SOL    HW233935  14.312  11.258   1.648
44035SOL     OW33936   9.042   2.753   2.592
44035SOL    HW133937   9.114   2.690   2.597
44035SOL    HW233938   9.068   2.815   2.523
44036SOL     OW33939   3.541   5.663  12.662
44036SOL    HW133940   3.501   5.634  12.744
44036SOL    HW233941   3.489   5.739  12.635
44037SOL     OW33942   8.345  14.295   3.931
44037SOL    HW133943   8.358  14.234   3.858
44037SOL    HW233944   8.259  14.333   3.916
44038SOL     OW33945   4.221   2.623   3.803
44038SOL    HW133946   4.271   2.545   3.779
44038SOL    HW233947   4.153   2.629   3.737
44039SOL     OW33948  10.057   5.524  10.508
44039SOL    HW133949  10.053   5.619  10.521
44039SOL    HW233950  10.111   5.492  10.581
44040SOL     OW33951  12.306   0.997   1.063
44040SOL    HW133952  12.392   1.004   1.106
44040SOL    HW233953  12.309   0.915   1.015
44041SOL     OW33954   9.767   6.028   7.255
44041SOL    HW133955   9.836   6.070   7.305
44041SOL    HW233956   9.742   5.951   7.306
44042SOL     OW33957   8.441   1.608  12.541
44042SOL    HW133958   8.354   1.571  12.528
44042SOL    HW233959   8.427   1.703  12.537
44043SOL     OW33960  13.374   0.172   4.719
44043SOL    HW133961  13.357   0.223   4.639
44043SOL    HW233962  13.468   0.152   4.715
44044SOL     OW33963   8.728  13.636   7.522
44044SOL    HW133964   8.821  13.618   7.540
44044SOL    HW233965   8.715  13.603   7.433
44045SOL     OW33966   3.122   7.204   8.210
44045SOL    HW133967   3.214   7.180   8.207
44045SOL    HW233968   3.121   7.296   8.239
44046SOL     OW33969   7.935   7.194  13.144
44046SOL    HW133970   7.982   7.112  13.160
44046SOL    HW233971   7.864   7.169  13.084
44047SOL     OW33972   6.683   1.683   8.497
44047SOL    HW133973   6.665   1.745   8.427
44047SOL    HW233974   6.704   1.738   8.573
44048SOL     OW33975   7.057  10.603  10.168
44048SOL    HW133976   7.030  10.616  10.259
44048SOL    HW233977   7.045  10.689  10.127
44049SOL     OW33978   0.363  12.233  12.156
44049SOL    HW133979   0.385  12.326  12.152
44049SOL    HW233980   0.389  12.206  12.244
44050SOL     OW33981   7.618   3.792  10.920
44050SOL    HW133982   7.682   3.728  10.951
44050SOL    HW233983   7.605   3.851  10.994
44051SOL     OW33984   0.256  12.744  13.352
44051SOL    HW133985   0.214  12.679  13.408
44051SOL    HW233986   0.216  12.732  13.267
44052SOL     OW33987  11.117  10.072   4.164
44052SOL    HW133988  11.024  10.047   4.172
44052SOL    HW233989  11.163  10.012   4.222
44053SOL     OW33990   5.931   3.549   0.882
44053SOL    HW133991   5.992   3.481   0.852
44053SOL    HW233992   5.892   3.583   0.802
44054SOL     OW33993   8.005   3.194   9.166
44054SOL    HW133994   7.913   3.169   9.175
44054SOL    HW233995   8.041   3.184   9.254
44055SOL     OW33996   5.783  12.978  12.699
44055SOL    HW133997   5.822  13.022  12.774
44055SOL    HW233998   5.776  12.886  12.727
44056SOL     OW33999   4.446  12.254   3.768
44056SOL    HW134000   4.436  12.210   3.853
44056SOL    HW234001   4.540  12.266   3.758
44057SOL     OW34002   9.907   7.535  10.077
44057SOL    HW134003   9.834   7.595  10.059
44057SOL    HW234004   9.878   7.487  10.155
44058SOL     OW34005  10.290   6.876   5.991
44058SOL    HW134006  10.196   6.889   6.005
44058SOL    HW234007  10.307   6.913   5.905
44059SOL     OW34008   0.905   8.553   5.151
44059SOL    HW134009   0.899   8.589   5.063
44059SOL    HW234010   0.816   8.524   5.171
44060SOL     OW34011   2.293   2.168   9.769
44060SOL    HW134012   2.329   2.080   9.784
44060SOL    HW234013   2.354   2.208   9.706
44061SOL     OW34014  10.311   1.096   1.179
44061SOL    HW134015  10.233   1.133   1.221
44061SOL    HW234016  10.303   1.002   1.192
44062SOL     OW34017   0.069   4.604  11.527
44062SOL    HW134018   0.056   4.698  11.512
44062SOL    HW234019   0.015   4.562  11.460
44063SOL     OW34020   4.196  12.160  13.564
44063SOL    HW134021   4.213  12.174  13.657
44063SOL    HW234022   4.199  12.248  13.526
44064SOL     OW34023   4.969   7.668   3.838
44064SOL    HW134024   5.031   7.731   3.875
44064SOL    HW234025   4.903   7.657   3.907
44065SOL     OW34026   5.708   6.499  12.638
44065SOL    HW134027   5.759   6.532  12.564
44065SOL    HW234028   5.726   6.562  12.709
44066SOL     OW34029   7.760   2.275  11.432
44066SOL    HW134030   7.716   2.190  11.433
44066SOL    HW234031   7.852   2.253  11.417
44067SOL     OW34032   2.315  11.399   0.181
44067SOL    HW134033   2.303  11.389   0.087
44067SOL    HW234034   2.249  11.342   0.221
44068SOL     OW34035   4.285   0.342   4.066
44068SOL    HW134036   4.202   0.294   4.062
44068SOL    HW234037   4.331   0.317   3.985
44069SOL     OW34038   0.597   3.847   9.436
44069SOL    HW134039   0.583   3.923   9.379
44069SOL    HW234040   0.588   3.882   9.524
44070SOL     OW34041  10.627   1.414   6.209
44070SOL    HW134042  10.691   1.430   6.140
44070SOL    HW234043  10.550   1.465   6.183
44071SOL     OW34044   7.977   5.567  10.757
44071SOL    HW134045   8.033   5.566  10.680
44071SOL    HW234046   7.976   5.659  10.785
44072SOL     OW34047   5.103  14.074   3.685
44072SOL    HW134048   5.118  14.160   3.645
44072SOL    HW234049   5.059  14.094   3.768
44073SOL     OW34050   8.325   4.726  11.582
44073SOL    HW134051   8.339   4.637  11.614
44073SOL    HW234052   8.289   4.714  11.494
44074SOL     OW34053  12.557  11.017   4.665
44074SOL    HW134054  12.625  11.029   4.599
44074SOL    HW234055  12.496  10.955   4.626
44075SOL     OW34056  12.905   0.803   2.787
44075SOL    HW134057  12.918   0.754   2.868
44075SOL    HW234058  12.930   0.892   2.809
44076SOL     OW34059   8.179   7.623   6.207
44076SOL    HW134060   8.146   7.570   6.135
44076SOL    HW234061   8.103   7.640   6.262
44077SOL     OW34062   3.297   1.069   3.471
44077SOL    HW134063   3.287   0.979   3.440
44077SOL    HW234064   3.274   1.066   3.564
44078SOL     OW34065   2.338   3.983   5.196
44078SOL    HW134066   2.330   4.032   5.115
44078SOL    HW234067   2.249   3.984   5.234
44079SOL     OW34068   0.161  12.696   0.287
44079SOL    HW134069   0.216  12.653   0.352
44079SOL    HW234070   0.121  12.770   0.334
44080SOL     OW34071   8.070   6.104  11.095
44080SOL    HW134072   8.161   6.075  11.094
44080SOL    HW234073   8.068   6.179  11.035
44081SOL     OW34074   3.489  12.287   3.050
44081SOL    HW134075   3.544  12.222   3.006
44081SOL    HW234076   3.533  12.370   3.035
44082SOL     OW34077   4.906   8.568  12.376
44082SOL    HW134078   4.983   8.518  12.402
44082SOL    HW234079   4.891   8.543  12.285
44083SOL     OW34080   5.601  14.229   2.819
44083SOL    HW134081   5.638  14.265   2.900
44083SOL    HW234082   5.512  14.265   2.816
44084SOL     OW34083   3.236   6.908  12.121
44084SOL    HW134084   3.261   6.858  12.044
44084SOL    HW234085   3.242   6.999  12.094
44085SOL     OW34086   6.460  14.830   3.694
44085SOL    HW134087   6.534  14.779   3.725
44085SOL    HW234088   6.420  14.775   3.626
44086SOL     OW34089   1.801  11.563   5.848
44086SOL    HW134090   1.817  11.497   5.915
44086SOL    HW234091   1.730  11.527   5.794
44087SOL     OW34092   1.405  10.236  12.452
44087SOL    HW134093   1.452  10.221  12.370
44087SOL    HW234094   1.474  10.251  12.517
44088SOL     OW34095  11.918   6.671   5.329
44088SOL    HW134096  11.837   6.624   5.343
44088SOL    HW234097  11.914   6.744   5.391
44089SOL     OW34098  10.376  10.243   5.778
44089SOL    HW134099  10.397  10.255   5.870
44089SOL    HW234100  10.381  10.331   5.740
44090SOL     OW34101   6.416  12.419   8.101
44090SOL    HW134102   6.338  12.367   8.120
44090SOL    HW234103   6.429  12.473   8.178
44091SOL     OW34104  11.502   1.051  11.646
44091SOL    HW134105  11.449   0.972  11.644
44091SOL    HW234106  11.547   1.048  11.731
44092SOL     OW34107   0.689   4.796  10.003
44092SOL    HW134108   0.776   4.778   9.969
44092SOL    HW234109   0.641   4.831   9.928
44093SOL     OW34110  13.563   3.806   7.787
44093SOL    HW134111  13.530   3.866   7.720
44093SOL    HW234112  13.658   3.810   7.778
44094SOL     OW34113   4.870   7.382   6.947
44094SOL    HW134114   4.912   7.296   6.952
44094SOL    HW234115   4.928   7.433   6.891
44095SOL     OW34116   1.744   6.673   9.514
44095SOL    HW134117   1.663   6.653   9.469
44095SOL    HW234118   1.803   6.704   9.446
44096SOL     OW34119  13.979  13.948   1.902
44096SOL    HW134120  14.030  13.920   1.826
44096SOL    HW234121  13.997  13.882   1.969
44097SOL     OW34122   2.606  11.194   0.542
44097SOL    HW134123   2.574  11.110   0.510
44097SOL    HW234124   2.531  11.253   0.532
44098SOL     OW34125   5.172   6.719   1.903
44098SOL    HW134126   5.145   6.691   1.990
44098SOL    HW234127   5.266   6.698   1.899
44099SOL     OW34128   4.671  11.785   4.824
44099SOL    HW134129   4.738  11.761   4.887
44099SOL    HW234130   4.589  11.782   4.874
44100SOL     OW34131  14.672   5.920  13.463
44100SOL    HW134132  14.733   5.994  13.467
44100SOL    HW234133  14.586   5.959  13.476
44101SOL     OW34134  14.874   7.578  12.186
44101SOL    HW134135   0.072   7.547  12.238
44101SOL    HW234136  14.867   7.515  12.114
44102SOL     OW34137   0.465  12.015  11.219
44102SOL    HW134138   0.532  12.055  11.164
44102SOL    HW234139   0.476  12.056  11.305
44103SOL     OW34140  11.550   0.006  11.024
44103SOL    HW134141  11.637   0.013  10.983
44103SOL    HW234142  11.520   0.096  11.032
44104SOL     OW34143  12.221  11.408  10.535
44104SOL    HW134144  12.243  11.318  10.559
44104SOL    HW234145  12.210  11.453  10.619
44105SOL     OW34146   1.713   3.826   9.312
44105SOL    HW134147   1.645   3.759   9.311
44105SOL    HW234148   1.746   3.826   9.402
44106SOL     OW34149   9.269   3.675   5.132
44106SOL    HW134150   9.226   3.703   5.051
44106SOL    HW234151   9.270   3.753   5.188
44107SOL     OW34152   5.045  10.356   5.434
44107SOL    HW134153   5.128  10.340   5.390
44107SOL    HW234154   5.052  10.445   5.468
44108SOL     OW34155   4.857  13.985  11.867
44108SOL    HW134156   4.864  13.929  11.790
44108SOL    HW234157   4.945  13.987  11.904
44109SOL     OW34158  13.643   5.213  13.613
44109SOL    HW134159  13.739   5.217  13.609
44109SOL    HW234160  13.615   5.223  13.522
44110SOL     OW34161   0.029   1.217  12.790
44110SOL    HW134162   0.055   1.308  12.804
44110SOL    HW234163   0.058   1.171  12.868
44111SOL     OW34164   7.023   6.403   2.044
44111SOL    HW134165   6.951   6.441   1.993
44111SOL    HW234166   7.055   6.330   1.991
44112SOL     OW34167   5.732   0.670  10.476
44112SOL    HW134168   5.789   0.652  10.552
44112SOL    HW234169   5.646   0.637  10.502
44113SOL     OW34170   3.016  14.673   3.458
44113SOL    HW134171   3.085  14.609   3.442
44113SOL    HW234172   2.934  14.627   3.439
44114SOL     OW34173   9.055   5.721   7.985
44114SOL    HW134174   9.031   5.690   7.897
44114SOL    HW234175   8.982   5.777   8.011
44115SOL     OW34176  10.493   9.327  11.699
44115SOL    HW134177  10.524   9.342  11.610
44115SOL    HW234178  10.524   9.239  11.720
44116SOL     OW34179   9.016   1.226  10.804
44116SOL    HW134180   9.063   1.182  10.733
44116SOL    HW234181   9.047   1.316  10.801
44117SOL     OW34182   2.863  13.217   7.529
44117SOL    HW134183   2.770  13.226   7.508
44117SOL    HW234184   2.902  13.299   7.497
44118SOL     OW34185  10.004   9.395  13.990
44118SOL    HW134186  10.006   9.361  13.900
44118SOL    HW234187   9.962   9.325  14.041
44119SOL     OW34188  14.567   5.021   4.790
44119SOL    HW134189  14.549   4.999   4.698
44119SOL    HW234190  14.662   5.025   4.795
44120SOL     OW34191   1.420   2.884   7.756
44120SOL    HW134192   1.454   2.914   7.672
44120SOL    HW234193   1.331   2.855   7.737
44121SOL     OW34194  10.142   0.854   1.390
44121SOL    HW134195  10.089   0.918   1.343
44121SOL    HW234196  10.084   0.779   1.403
44122SOL     OW34197  10.451   3.515  13.996
44122SOL    HW134198  10.478   3.585  13.937
44122SOL    HW234199  10.365   3.543  14.029
44123SOL     OW34200  10.400   2.755   0.974
44123SOL    HW134201  10.442   2.796   1.049
44123SOL    HW234202  10.442   2.796   0.898
44124SOL     OW34203  10.565   0.670   6.225
44124SOL    HW134204  10.550   0.661   6.320
44124SOL    HW234205  10.478   0.665   6.186
44125SOL     OW34206   2.617   3.729   3.068
44125SOL    HW134207   2.661   3.813   3.059
44125SOL    HW234208   2.586   3.727   3.158
44126SOL     OW34209   0.678   4.450   2.253
44126SOL    HW134210   0.745   4.466   2.187
44126SOL    HW234211   0.615   4.393   2.209
44127SOL     OW34212   4.928  10.304   4.108
44127SOL    HW134213   4.950  10.387   4.150
44127SOL    HW234214   4.903  10.329   4.018
44128SOL     OW34215  10.944   5.195  10.798
44128SOL    HW134216  10.923   5.230  10.711
44128SOL    HW234217  10.885   5.120  10.808
44129SOL     OW34218  10.511   5.490  13.608
44129SOL    HW134219  10.484   5.582  13.605
44129SOL    HW234220  10.587   5.489  13.667
44130SOL     OW34221   4.633  10.346  14.075
44130SOL    HW134222   4.584  10.267  14.051
44130SOL    HW234223   4.568  10.416  14.071
44131SOL     OW34224   8.155   7.472   4.253
44131SOL    HW134225   8.213   7.529   4.304
44131SOL    HW234226   8.180   7.383   4.277
44132SOL     OW34227  12.962   0.177  13.881
44132SOL    HW134228  13.045   0.215  13.908
44132SOL    HW234229  12.908   0.179  13.960
44133SOL     OW34230   2.136   7.946   8.541
44133SOL    HW134231   2.057   7.991   8.511
44133SOL    HW234232   2.191   7.941   8.463
44134SOL     OW34233   6.117  10.033   2.738
44134SOL    HW134234   6.201  10.006   2.775
44134SOL    HW234235   6.052   9.995   2.797
44135SOL     OW34236   0.575  10.638   6.014
44135SOL    HW134237   0.593  10.729   6.036
44135SOL    HW234238   0.509  10.610   6.078
44136SOL     OW34239   0.890   8.055   2.248
44136SOL    HW134240   0.917   7.963   2.242
44136SOL    HW234241   0.831   8.057   2.324
44137SOL     OW34242   3.918   0.109  13.226
44137SOL    HW134243   3.848   0.043  13.225
44137SOL    HW234244   3.878   0.186  13.186
44138SOL     OW34245   2.542  12.379   8.855
44138SOL    HW134246   2.593  12.300   8.834
44138SOL    HW234247   2.499  12.359   8.938
44139SOL     OW34248   7.728  14.781   0.945
44139SOL    HW134249   7.809  14.741   0.912
44139SOL    HW234250   7.694  14.717   1.008
44140SOL     OW34251   7.904   2.470   7.517
44140SOL    HW134252   7.981   2.430   7.475
44140SOL    HW234253   7.939   2.511   7.596
44141SOL     OW34254   1.680   7.187   3.121
44141SOL    HW134255   1.620   7.229   3.059
44141SOL    HW234256   1.758   7.242   3.120
44142SOL     OW34257  12.741   2.734  11.154
44142SOL    HW134258  12.811   2.680  11.191
44142SOL    HW234259  12.724   2.800  11.221
44143SOL     OW34260   7.393   7.248   4.988
44143SOL    HW134261   7.342   7.323   4.958
44143SOL    HW234262   7.465   7.241   4.925
44144SOL     OW34263   2.661  12.391   2.749
44144SOL    HW134264   2.617  12.309   2.773
44144SOL    HW234265   2.748  12.383   2.788
44145SOL     OW34266  14.827  12.432   2.453
44145SOL    HW134267  14.867  12.514   2.424
44145SOL    HW234268  14.745  12.426   2.405
44146SOL     OW34269  12.771   5.231  11.688
44146SOL    HW134270  12.717   5.154  11.672
44146SOL    HW234271  12.723   5.302  11.644
44147SOL     OW34272  11.471   0.202   1.389
44147SOL    HW134273  11.478   0.117   1.346
44147SOL    HW234274  11.517   0.262   1.331
44148SOL     OW34275   0.061  12.171   2.713
44148SOL    HW134276   0.031  12.175   2.622
44148SOL    HW234277   0.123  12.243   2.721
44149SOL     OW34278  14.665  14.305  13.037
44149SOL    HW134279  14.615  14.233  12.998
44149SOL    HW234280  14.756  14.287  13.011
44150SOL     OW34281  14.344  14.157   8.114
44150SOL    HW134282  14.295  14.176   8.035
44150SOL    HW234283  14.283  14.173   8.186
44151SOL     OW34284   1.516   9.639   2.774
44151SOL    HW134285   1.611   9.644   2.790
44151SOL    HW234286   1.477   9.693   2.842
44152SOL     OW34287   2.742   1.813   8.056
44152SOL    HW134288   2.707   1.824   7.968
44152SOL    HW234289   2.796   1.891   8.070
44153SOL     OW34290  13.182   3.567  12.277
44153SOL    HW134291  13.247   3.566  12.347
44153SOL    HW234292  13.098   3.561  12.321
44154SOL     OW34293   6.662  10.624   9.054
44154SOL    HW134294   6.652  10.718   9.039
44154SOL    HW234295   6.597  10.604   9.122
44155SOL     OW34296   4.341  12.374   8.266
44155SOL    HW134297   4.391  12.442   8.221
44155SOL    HW234298   4.366  12.382   8.358
44156SOL     OW34299   7.476  14.807  13.983
44156SOL    HW134300   7.512  14.822  13.895
44156SOL    HW234301   7.428  14.725  13.975
44157SOL     OW34302  14.299  12.728   3.216
44157SOL    HW134303  14.303  12.668   3.142
44157SOL    HW234304  14.378  12.781   3.208
44158SOL     OW34305   1.483  12.249   0.232
44158SOL    HW134306   1.472  12.238   0.138
44158SOL    HW234307   1.406  12.209   0.271
44159SOL     OW34308   2.537   3.428   9.749
44159SOL    HW134309   2.517   3.482   9.825
44159SOL    HW234310   2.518   3.338   9.779
44160SOL     OW34311   1.043   5.419  13.741
44160SOL    HW134312   1.037   5.509  13.773
44160SOL    HW234313   1.128   5.413  13.698
44161SOL     OW34314  14.582   7.807   0.554
44161SOL    HW134315  14.643   7.863   0.602
44161SOL    HW234316  14.525   7.868   0.507
44162SOL     OW34317  10.724  10.351   2.397
44162SOL    HW134318  10.649  10.359   2.456
44162SOL    HW234319  10.747  10.441   2.375
44163SOL     OW34320   8.329   0.244   1.633
44163SOL    HW134321   8.263   0.175   1.632
44163SOL    HW234322   8.314   0.290   1.715
44164SOL     OW34323  14.803   1.124   0.391
44164SOL    HW134324  14.756   1.191   0.441
44164SOL    HW234325  14.766   1.129   0.303
44165SOL     OW34326   4.502   7.795   9.258
44165SOL    HW134327   4.458   7.874   9.289
44165SOL    HW234328   4.468   7.725   9.316
44166SOL     OW34329   3.213   7.288   8.828
44166SOL    HW134330   3.263   7.273   8.908
44166SOL    HW234331   3.232   7.379   8.804
44167SOL     OW34332   0.017  11.777  14.142
44167SOL    HW134333   0.025  11.864  14.101
44167SOL    HW234334   0.101  11.763  14.185
44168SOL     OW34335  13.389   6.253  12.433
44168SOL    HW134336  13.380   6.176  12.377
44168SOL    HW234337  13.390   6.327  12.372
44169SOL     OW34338   9.865   0.021   5.828
44169SOL    HW134339   9.895   0.076   5.756
44169SOL    HW234340   9.839   0.082   5.896
44170SOL     OW34341   1.324   4.232   3.974
44170SOL    HW134342   1.385   4.165   3.943
44170SOL    HW234343   1.357   4.257   4.060
44171SOL     OW34344   9.847  13.364   9.978
44171SOL    HW134345   9.927  13.414   9.969
44171SOL    HW234346   9.873  13.286  10.027
44172SOL     OW34347   7.137  14.558  10.154
44172SOL    HW134348   7.147  14.463  10.148
44172SOL    HW234349   7.209  14.592  10.102
44173SOL     OW34350   3.180  12.711   1.920
44173SOL    HW134351   3.240  12.716   1.846
44173SOL    HW234352   3.236  12.712   1.997
44174SOL     OW34353   4.227   9.970  12.040
44174SOL    HW134354   4.143   9.945  12.079
44174SOL    HW234355   4.292   9.949  12.106
44175SOL     OW34356   6.436   6.608   0.570
44175SOL    HW134357   6.421   6.659   0.649
44175SOL    HW234358   6.379   6.648   0.504
44176SOL     OW34359   0.151  10.114   1.676
44176SOL    HW134360   0.124  10.041   1.620
44176SOL    HW234361   0.156  10.189   1.617
44177SOL     OW34362   2.557   9.433   3.181
44177SOL    HW134363   2.523   9.474   3.260
44177SOL    HW234364   2.652   9.444   3.187
44178SOL     OW34365   8.455   3.679   7.452
44178SOL    HW134366   8.461   3.600   7.505
44178SOL    HW234367   8.401   3.654   7.378
44179SOL     OW34368   0.768   4.576   5.855
44179SOL    HW134369   0.672   4.566   5.859
44179SOL    HW234370   0.782   4.668   5.835
44180SOL     OW34371  10.318   8.485   2.120
44180SOL    HW134372  10.383   8.429   2.077
44180SOL    HW234373  10.267   8.425   2.174
44181SOL     OW34374  11.982   2.211  11.992
44181SOL    HW134375  11.981   2.288  12.049
44181SOL    HW234376  11.951   2.140  12.047
44182SOL     OW34377  14.248   9.745   0.669
44182SOL    HW134378  14.170   9.800   0.681
44182SOL    HW234379  14.220   9.658   0.698
44183SOL     OW34380  13.439   8.632   2.497
44183SOL    HW134381  13.382   8.645   2.573
44183SOL    HW234382  13.513   8.690   2.512
44184SOL     OW34383   7.336   3.659   0.566
44184SOL    HW134384   7.367   3.661   0.476
44184SOL    HW234385   7.287   3.577   0.572
44185SOL     OW34386  11.733   6.014   3.265
44185SOL    HW134387  11.676   6.089   3.282
44185SOL    HW234388  11.822   6.047   3.280
44186SOL     OW34389   9.953   1.381  11.122
44186SOL    HW134390  10.026   1.336  11.166
44186SOL    HW234391   9.907   1.427  11.192
44187SOL     OW34392   4.072  11.686   9.049
44187SOL    HW134393   4.043  11.595   9.054
44187SOL    HW234394   4.086  11.702   8.956
44188SOL     OW34395  12.763   2.506  10.331
44188SOL    HW134396  12.803   2.498  10.244
44188SOL    HW234397  12.804   2.436  10.382
44189SOL     OW34398   3.582   0.102   9.915
44189SOL    HW134399   3.557   0.157   9.842
44189SOL    HW234400   3.547   0.147   9.992
44190SOL     OW34401   3.496   2.406   1.528
44190SOL    HW134402   3.513   2.332   1.469
44190SOL    HW234403   3.429   2.457   1.484
44191SOL     OW34404   5.907   8.642   1.254
44191SOL    HW134405   5.916   8.553   1.220
44191SOL    HW234406   5.855   8.688   1.188
44192SOL     OW34407  11.969   3.063  10.412
44192SOL    HW134408  11.897   3.103  10.364
44192SOL    HW234409  11.942   3.070  10.504
44193SOL     OW34410   0.277  13.597  14.285
44193SOL    HW134411   0.318  13.655  14.349
44193SOL    HW234412   0.298  13.509  14.316
44194SOL     OW34413   4.586   5.217   3.404
44194SOL    HW134414   4.640   5.296   3.411
44194SOL    HW234415   4.558   5.215   3.313
44195SOL     OW34416   8.071  13.695  11.110
44195SOL    HW134417   8.006  13.728  11.047
44195SOL    HW234418   8.037  13.609  11.135
44196SOL     OW34419  14.163   6.893   9.109
44196SOL    HW134420  14.188   6.881   9.018
44196SOL    HW234421  14.091   6.832   9.123
44197SOL     OW34422   5.595  14.006   5.803
44197SOL    HW134423   5.557  13.918   5.798
44197SOL    HW234424   5.520  14.065   5.799
44198SOL     OW34425  12.468   1.971   3.504
44198SOL    HW134426  12.525   1.910   3.458
44198SOL    HW234427  12.418   2.014   3.434
44199SOL     OW34428   3.564   3.596  10.404
44199SOL    HW134429   3.482   3.548  10.394
44199SOL    HW234430   3.572   3.646  10.323
44200SOL     OW34431  12.779   4.697   8.371
44200SOL    HW134432  12.817   4.771   8.418
44200SOL    HW234433  12.685   4.705   8.387
44201SOL     OW34434   2.517   9.574  14.049
44201SOL    HW134435   2.559   9.506  14.102
44201SOL    HW234436   2.436   9.594  14.096
44202SOL     OW34437   5.517   5.489   2.511
44202SOL    HW134438   5.562   5.538   2.579
44202SOL    HW234439   5.428   5.479   2.543
44203SOL     OW34440   5.834   2.872  11.185
44203SOL    HW134441   5.888   2.888  11.107
44203SOL    HW234442   5.818   2.959  11.221
44204SOL     OW34443   9.270   5.588  14.257
44204SOL    HW134444   9.313   5.508  14.228
44204SOL    HW234445   9.300   5.602  14.346
44205SOL     OW34446  13.443   4.007   3.773
44205SOL    HW134447  13.427   3.977   3.683
44205SOL    HW234448  13.537   3.994   3.787
44206SOL     OW34449   0.994   4.899   7.730
44206SOL    HW134450   1.050   4.887   7.808
44206SOL    HW234451   1.051   4.943   7.667
44207SOL     OW34452   6.750   8.614   7.160
44207SOL    HW134453   6.813   8.605   7.089
44207SOL    HW234454   6.801   8.645   7.235
44208SOL     OW34455  13.796   6.401  12.289
44208SOL    HW134456  13.823   6.309  12.288
44208SOL    HW234457  13.715   6.402  12.239
44209SOL     OW34458  10.557   4.553   6.466
44209SOL    HW134459  10.644   4.580   6.438
44209SOL    HW234460  10.572   4.509   6.550
44210SOL     OW34461  13.390   1.447   6.340
44210SOL    HW134462  13.317   1.429   6.399
44210SOL    HW234463  13.368   1.401   6.259
44211SOL     OW34464   1.993   2.288  11.016
44211SOL    HW134465   1.898   2.299  11.020
44211SOL    HW234466   2.019   2.341  10.941
44212SOL     OW34467   0.301   1.694   8.024
44212SOL    HW134468   0.327   1.666   7.936
44212SOL    HW234469   0.384   1.706   8.070
44213SOL     OW34470   6.275  12.433   6.654
44213SOL    HW134471   6.360  12.409   6.617
44213SOL    HW234472   6.229  12.350   6.663
44214SOL     OW34473  10.366   6.838   6.243
44214SOL    HW134474  10.460   6.848   6.258
44214SOL    HW234475  10.354   6.854   6.149
44215SOL     OW34476   5.989   9.140   1.394
44215SOL    HW134477   5.927   9.132   1.322
44215SOL    HW234478   5.944   9.100   1.469
44216SOL     OW34479  14.605   9.042  12.915
44216SOL    HW134480  14.558   8.959  12.905
44216SOL    HW234481  14.697   9.016  12.924
44217SOL     OW34482   3.135  13.717   5.089
44217SOL    HW134483   3.216  13.718   5.039
44217SOL    HW234484   3.118  13.810   5.109
44218SOL     OW34485   9.410   8.611   5.380
44218SOL    HW134486   9.447   8.653   5.458
44218SOL    HW234487   9.440   8.666   5.307
44219SOL     OW34488   8.063   7.233   5.258
44219SOL    HW134489   8.004   7.187   5.318
44219SOL    HW234490   8.151   7.210   5.288
44220SOL     OW34491  14.493   6.341   1.662
44220SOL    HW134492  14.436   6.390   1.602
44220SOL    HW234493  14.460   6.251   1.657
44221SOL     OW34494  12.356   1.137   9.416
44221SOL    HW134495  12.393   1.102   9.497
44221SOL    HW234496  12.381   1.229   9.416
44222SOL     OW34497  10.693   4.460   5.424
44222SOL    HW134498  10.701   4.406   5.503
44222SOL    HW234499  10.679   4.549   5.457
44223SOL     OW34500   8.518   1.845   9.073
44223SOL    HW134501   8.566   1.804   9.145
44223SOL    HW234502   8.478   1.771   9.026
44224SOL     OW34503  12.689  14.189   9.466
44224SOL    HW134504  12.624  14.201   9.397
44224SOL    HW234505  12.640  14.194   9.548
44225SOL     OW34506  10.518   1.991   2.406
44225SOL    HW134507  10.498   1.927   2.338
44225SOL    HW234508  10.447   1.983   2.469
44226SOL     OW34509  12.790   9.843  12.581
44226SOL    HW134510  12.813   9.791  12.657
44226SOL    HW234511  12.697   9.824  12.566
44227SOL     OW34512   7.143  14.355   4.269
44227SOL    HW134513   7.192  14.356   4.351
44227SOL    HW234514   7.207  14.376   4.201
44228SOL     OW34515   6.882   3.797   7.086
44228SOL    HW134516   6.895   3.732   7.155
44228SOL    HW234517   6.866   3.745   7.007
44229SOL     OW34518   4.878  13.878  14.327
44229SOL    HW134519   4.842  13.853  14.242
44229SOL    HW234520   4.845  13.967  14.342
44230SOL     OW34521  13.605   4.724   7.013
44230SOL    HW134522  13.609   4.707   6.919
44230SOL    HW234523  13.620   4.818   7.021
44231SOL     OW34524   9.434   8.954   3.679
44231SOL    HW134525   9.349   8.960   3.635
44231SOL    HW234526   9.498   8.968   3.609
44232SOL     OW34527  10.773   0.250   9.707
44232SOL    HW134528  10.847   0.293   9.751
44232SOL    HW234529  10.729   0.201   9.776
44233SOL     OW34530   2.391   1.892   8.916
44233SOL    HW134531   2.398   1.987   8.907
44233SOL    HW234532   2.444   1.871   8.992
44234SOL     OW34533   5.881  11.473   0.405
44234SOL    HW134534   5.825  11.435   0.338
44234SOL    HW234535   5.830  11.469   0.485
44235SOL     OW34536   8.170   3.442   0.228
44235SOL    HW134537   8.204   3.436   0.139
44235SOL    HW234538   8.100   3.507   0.222
44236SOL     OW34539   5.307  14.168   3.010
44236SOL    HW134540   5.220  14.203   2.992
44236SOL    HW234541   5.337  14.133   2.926
44237SOL     OW34542   6.660  11.327   8.541
44237SOL    HW134543   6.629  11.243   8.573
44237SOL    HW234544   6.592  11.356   8.480
44238SOL     OW34545  12.259   3.140   5.812
44238SOL    HW134546  12.320   3.139   5.885
44238SOL    HW234547  12.174   3.158   5.851
44239SOL     OW34548   6.045  11.784   3.762
44239SOL    HW134549   6.041  11.822   3.674
44239SOL    HW234550   5.972  11.722   3.764
44240SOL     OW34551   6.460  12.771   0.732
44240SOL    HW134552   6.517  12.834   0.776
44240SOL    HW234553   6.388  12.823   0.697
44241SOL     OW34554   1.168   0.918   9.502
44241SOL    HW134555   1.085   0.955   9.469
44241SOL    HW234556   1.169   0.829   9.468
44242SOL     OW34557  13.471  14.546  12.932
44242SOL    HW134558  13.449  14.455  12.912
44242SOL    HW234559  13.566  14.545  12.947
44243SOL     OW34560   0.584   2.358   8.908
44243SOL    HW134561   0.496   2.335   8.935
44243SOL    HW234562   0.638   2.348   8.987
44244SOL     OW34563  13.578  12.806   8.683
44244SOL    HW134564  13.533  12.886   8.709
44244SOL    HW234565  13.571  12.804   8.588
44245SOL     OW34566  10.151   7.793  11.859
44245SOL    HW134567  10.087   7.861  11.838
44245SOL    HW234568  10.200   7.781  11.777
44246SOL     OW34569  14.839   0.670   1.364
44246SOL    HW134570   0.005   0.710   1.287
44246SOL    HW234571  14.768   0.617   1.328
44247SOL     OW34572   2.622   7.187   1.705
44247SOL    HW134573   2.534   7.202   1.739
44247SOL    HW234574   2.676   7.255   1.745
44248SOL     OW34575  12.727   5.802   0.051
44248SOL    HW134576  12.810   5.758   0.070
44248SOL    HW234577  12.672   5.783   0.127
44249SOL     OW34578  13.781   3.040   4.433
44249SOL    HW134579  13.820   3.093   4.502
44249SOL    HW234580  13.690   3.069   4.427
44250SOL     OW34581   4.221   4.897   0.556
44250SOL    HW134582   4.263   4.943   0.629
44250SOL    HW234583   4.131   4.884   0.585
44251SOL     OW34584  11.044  13.449  10.924
44251SOL    HW134585  11.066  13.459  11.017
44251SOL    HW234586  11.105  13.507  10.879
44252SOL     OW34587  14.411   5.852   1.633
44252SOL    HW134588  14.427   5.843   1.727
44252SOL    HW234589  14.484   5.806   1.591
44253SOL     OW34590   5.483  11.105   9.767
44253SOL    HW134591   5.572  11.080   9.793
44253SOL    HW234592   5.482  11.201   9.773
44254SOL     OW34593   6.928   2.155   6.568
44254SOL    HW134594   6.917   2.199   6.652
44254SOL    HW234595   7.012   2.110   6.575
44255SOL     OW34596   5.844   6.983  13.895
44255SOL    HW134597   5.777   6.957  13.959
44255SOL    HW234598   5.905   7.037  13.945
44256SOL     OW34599   6.699  13.745  11.463
44256SOL    HW134600   6.781  13.747  11.414
44256SOL    HW234601   6.633  13.775  11.400
44257SOL     OW34602   1.366   4.538   8.917
44257SOL    HW134603   1.437   4.530   8.981
44257SOL    HW234604   1.390   4.615   8.865
44258SOL     OW34605   7.050   0.557   4.960
44258SOL    HW134606   7.090   0.571   5.046
44258SOL    HW234607   7.124   0.551   4.900
44259SOL     OW34608   9.131   4.252   7.251
44259SOL    HW134609   9.133   4.158   7.265
44259SOL    HW234610   9.068   4.285   7.316
44260SOL     OW34611  14.625   5.332   3.736
44260SOL    HW134612  14.621   5.411   3.791
44260SOL    HW234613  14.713   5.297   3.752
44261SOL     OW34614   3.701  12.112   0.129
44261SOL    HW134615   3.766  12.053   0.168
44261SOL    HW234616   3.675  12.068   0.048
44262SOL     OW34617   1.281   0.745   2.884
44262SOL    HW134618   1.270   0.837   2.910
44262SOL    HW234619   1.375   0.730   2.889
44263SOL     OW34620  10.603   7.577   2.392
44263SOL    HW134621  10.615   7.547   2.482
44263SOL    HW234622  10.509   7.568   2.376
44264SOL     OW34623   3.668  10.038  13.296
44264SOL    HW134624   3.745  10.034  13.240
44264SOL    HW234625   3.624  10.119  13.270
44265SOL     OW34626   5.599  10.739   6.520
44265SOL    HW134627   5.506  10.727   6.538
44265SOL    HW234628   5.622  10.665   6.464
44266SOL     OW34629   5.417  13.784   0.276
44266SOL    HW134630   5.346  13.720   0.277
44266SOL    HW234631   5.373  13.868   0.260
44267SOL     OW34632  11.957  11.234   4.357
44267SOL    HW134633  12.046  11.269   4.358
44267SOL    HW234634  11.921  11.256   4.443
44268SOL     OW34635  14.272   1.120  14.402
44268SOL    HW134636  14.333   1.107  14.328
44268SOL    HW234637  14.266   1.215  14.411
44269SOL     OW34638  13.506   3.416   8.512
44269SOL    HW134639  13.492   3.410   8.607
44269SOL    HW234640  13.417   3.424   8.476
44270SOL     OW34641  13.613   7.287   9.808
44270SOL    HW134642  13.706   7.267   9.795
44270SOL    HW234643  13.610   7.383   9.816
44271SOL     OW34644  14.741   6.642   7.835
44271SOL    HW134645  14.829   6.658   7.800
44271SOL    HW234646  14.732   6.547   7.834
44272SOL     OW34647   2.862   1.315  11.009
44272SOL    HW134648   2.856   1.224  11.039
44272SOL    HW234649   2.794   1.323  10.942
44273SOL     OW34650  11.426   1.949   9.455
44273SOL    HW134651  11.388   1.998   9.381
44273SOL    HW234652  11.350   1.910   9.498
44274SOL     OW34653   3.067  14.617  11.255
44274SOL    HW134654   3.141  14.613  11.315
44274SOL    HW234655   3.070  14.534  11.207
44275SOL     OW34656   3.651  10.053   8.158
44275SOL    HW134657   3.684   9.996   8.088
44275SOL    HW234658   3.677  10.141   8.132
44276SOL     OW34659   1.746   5.500  13.110
44276SOL    HW134660   1.783   5.465  13.191
44276SOL    HW234661   1.686   5.432  13.079
44277SOL     OW34662   5.791   5.205  14.654
44277SOL    HW134663   5.741   5.286  14.649
44277SOL    HW234664   5.809   5.182  14.563
44278SOL     OW34665  12.912   7.600  13.284
44278SOL    HW134666  12.971   7.664  13.243
44278SOL    HW234667  12.884   7.642  13.365
44279SOL     OW34668  12.854   6.710  12.753
44279SOL    HW134669  12.817   6.622  12.764
44279SOL    HW234670  12.866   6.720  12.659
44280SOL     OW34671   1.803   7.545  12.078
44280SOL    HW134672   1.757   7.574  11.999
44280SOL    HW234673   1.879   7.498  12.045
44281SOL     OW34674  10.544  12.292  12.955
44281SOL    HW134675  10.572  12.292  13.047
44281SOL    HW234676  10.471  12.353  12.952
44282SOL     OW34677   7.075   2.538   5.096
44282SOL    HW134678   7.111   2.523   5.009
44282SOL    HW234679   7.151   2.542   5.154
44283SOL     OW34680   8.136  11.208   4.722
44283SOL    HW134681   8.097  11.125   4.694
44283SOL    HW234682   8.208  11.182   4.779
44284SOL     OW34683  10.804   8.618   3.277
44284SOL    HW134684  10.859   8.696   3.274
44284SOL    HW234685  10.840   8.566   3.349
44285SOL     OW34686   7.534  14.734   2.381
44285SOL    HW134687   7.582  14.700   2.457
44285SOL    HW234688   7.536  14.830   2.393
44286SOL     OW34689   2.710  10.073   9.573
44286SOL    HW134690   2.801  10.045   9.563
44286SOL    HW234691   2.696  10.137   9.502
44287SOL     OW34692  14.008   8.096   6.754
44287SOL    HW134693  13.915   8.116   6.745
44287SOL    HW234694  14.051   8.149   6.687
44288SOL     OW34695   8.705   0.216  12.261
44288SOL    HW134696   8.768   0.249  12.197
44288SOL    HW234697   8.648   0.290  12.280
44289SOL     OW34698   7.156   0.418   1.430
44289SOL    HW134699   7.184   0.349   1.370
44289SOL    HW234700   7.214   0.492   1.410
44290SOL     OW34701  12.075  14.043   9.442
44290SOL    HW134702  12.063  13.955   9.477
44290SOL    HW234703  12.148  14.079   9.492
44291SOL     OW34704   4.911   8.848   7.512
44291SOL    HW134705   4.845   8.878   7.574
44291SOL    HW234706   4.932   8.925   7.460
44292SOL     OW34707   8.082  12.689   3.656
44292SOL    HW134708   8.037  12.604   3.654
44292SOL    HW234709   8.031  12.744   3.598
44293SOL     OW34710   4.766   8.217   0.913
44293SOL    HW134711   4.768   8.267   0.832
44293SOL    HW234712   4.847   8.239   0.958
44294SOL     OW34713   8.655   6.645   2.500
44294SOL    HW134714   8.631   6.735   2.480
44294SOL    HW234715   8.587   6.592   2.458
44295SOL     OW34716   3.239  13.331   0.455
44295SOL    HW134717   3.326  13.308   0.489
44295SOL    HW234718   3.179  13.308   0.526
44296SOL     OW34719  11.586   1.797  10.849
44296SOL    HW134720  11.652   1.781  10.916
44296SOL    HW234721  11.594   1.890  10.828
44297SOL     OW34722   2.103   1.862   8.807
44297SOL    HW134723   2.173   1.891   8.866
44297SOL    HW234724   2.124   1.771   8.788
44298SOL     OW34725   4.215   8.915   4.604
44298SOL    HW134726   4.278   8.946   4.540
44298SOL    HW234727   4.246   8.949   4.688
44299SOL     OW34728   1.420   4.812   1.871
44299SOL    HW134729   1.414   4.716   1.869
44299SOL    HW234730   1.355   4.842   1.807
44300SOL     OW34731   2.656  12.154   8.784
44300SOL    HW134732   2.629  12.106   8.706
44300SOL    HW234733   2.722  12.098   8.825
44301SOL     OW34734   8.185   1.668   1.722
44301SOL    HW134735   8.193   1.730   1.649
44301SOL    HW234736   8.227   1.588   1.691
44302SOL     OW34737   2.948  12.043   8.609
44302SOL    HW134738   3.037  12.008   8.617
44302SOL    HW234739   2.895  11.986   8.664
44303SOL     OW34740  11.313   8.886   7.755
44303SOL    HW134741  11.298   8.941   7.678
44303SOL    HW234742  11.367   8.814   7.722
44304SOL     OW34743   3.525  11.541   0.340
44304SOL    HW134744   3.537  11.500   0.255
44304SOL    HW234745   3.447  11.498   0.377
44305SOL     OW34746   8.255   2.699   0.455
44305SOL    HW134747   8.235   2.634   0.522
44305SOL    HW234748   8.315   2.654   0.395
44306SOL     OW34749   3.641  13.794   6.707
44306SOL    HW134750   3.562  13.844   6.730
44306SOL    HW234751   3.711  13.835   6.757
44307SOL     OW34752   3.187  12.866   9.039
44307SOL    HW134753   3.117  12.916   8.998
44307SOL    HW234754   3.212  12.801   8.974
44308SOL     OW34755   1.426   2.416   5.532
44308SOL    HW134756   1.504   2.378   5.491
44308SOL    HW234757   1.414   2.364   5.612
44309SOL     OW34758   1.187  11.913   3.505
44309SOL    HW134759   1.196  11.993   3.454
44309SOL    HW234760   1.270  11.905   3.552
44310SOL     OW34761   5.007   4.484  12.709
44310SOL    HW134762   5.069   4.458  12.777
44310SOL    HW234763   4.932   4.519  12.758
44311SOL     OW34764   9.736   5.487   9.975
44311SOL    HW134765   9.803   5.426  10.006
44311SOL    HW234766   9.670   5.432   9.933
44312SOL     OW34767  10.059   6.764  14.777
44312SOL    HW134768  10.025   6.755  14.866
44312SOL    HW234769   9.981   6.769  14.722
44313SOL     OW34770   1.692   6.973   1.128
44313SOL    HW134771   1.700   6.937   1.217
44313SOL    HW234772   1.600   6.959   1.105
44314SOL     OW34773   6.019  10.133   7.611
44314SOL    HW134774   5.939  10.172   7.647
44314SOL    HW234775   5.990  10.048   7.577
44315SOL     OW34776   5.386  10.768  11.610
44315SOL    HW134777   5.413  10.683  11.574
44315SOL    HW234778   5.298  10.753  11.644
44316SOL     OW34779   7.332   8.610  10.519
44316SOL    HW134780   7.328   8.695  10.477
44316SOL    HW234781   7.392   8.622  10.593
44317SOL     OW34782   0.775   2.661   5.493
44317SOL    HW134783   0.813   2.714   5.562
44317SOL    HW234784   0.704   2.613   5.535
44318SOL     OW34785   2.660   7.901  14.173
44318SOL    HW134786   2.728   7.931  14.233
44318SOL    HW234787   2.618   7.982  14.142
44319SOL     OW34788   8.067  13.888  12.396
44319SOL    HW134789   8.154  13.854  12.373
44319SOL    HW234790   8.081  13.982  12.410
44320SOL     OW34791   7.062  10.632  11.938
44320SOL    HW134792   7.078  10.636  11.844
44320SOL    HW234793   7.002  10.557  11.949
44321SOL     OW34794   0.523   6.283   6.475
44321SOL    HW134795   0.529   6.192   6.503
44321SOL    HW234796   0.466   6.280   6.398
44322SOL     OW34797   6.138   2.764   8.496
44322SOL    HW134798   6.158   2.671   8.485
44322SOL    HW234799   6.224   2.807   8.495
44323SOL     OW34800   4.448   2.066   2.147
44323SOL    HW134801   4.523   2.125   2.156
44323SOL    HW234802   4.376   2.123   2.121
44324SOL     OW34803  11.715   6.846  11.650
44324SOL    HW134804  11.642   6.798  11.610
44324SOL    HW234805  11.710   6.934  11.611
44325SOL     OW34806   4.422  10.892   0.056
44325SOL    HW134807   4.365  10.916  14.859
44325SOL    HW234808   4.458  10.807   0.030
44326SOL     OW34809   4.198   9.520   2.252
44326SOL    HW134810   4.129   9.490   2.193
44326SOL    HW234811   4.226   9.441   2.298
44327SOL     OW34812   8.518   1.989  14.349
44327SOL    HW134813   8.457   1.940  14.295
44327SOL    HW234814   8.578   2.031  14.287
44328SOL     OW34815  12.455  10.288  13.172
44328SOL    HW134816  12.544  10.304  13.140
44328SOL    HW234817  12.463  10.291  13.268
44329SOL     OW34818   6.485   1.846   7.964
44329SOL    HW134819   6.496   1.859   7.869
44329SOL    HW234820   6.407   1.896   7.986
44330SOL     OW34821   9.592  14.325   8.490
44330SOL    HW134822   9.654  14.307   8.420
44330SOL    HW234823   9.513  14.277   8.466
44331SOL     OW34824  11.578  13.374   5.776
44331SOL    HW134825  11.647  13.323   5.734
44331SOL    HW234826  11.594  13.362   5.870
44332SOL     OW34827   9.875   7.944   2.967
44332SOL    HW134828   9.902   7.869   2.915
44332SOL    HW234829   9.809   7.908   3.027
44333SOL     OW34830   2.703   9.233   8.855
44333SOL    HW134831   2.631   9.286   8.887
44333SOL    HW234832   2.671   9.143   8.859
44334SOL     OW34833   6.675  10.561   8.073
44334SOL    HW134834   6.718  10.646   8.067
44334SOL    HW234835   6.635  10.560   8.160
44335SOL     OW34836   5.156   7.984   7.517
44335SOL    HW134837   5.192   8.019   7.598
44335SOL    HW234838   5.183   8.047   7.449
44336SOL     OW34839   8.804   7.843   7.979
44336SOL    HW134840   8.715   7.869   7.955
44336SOL    HW234841   8.821   7.888   8.062
44337SOL     OW34842   2.733  11.414   5.882
44337SOL    HW134843   2.784  11.378   5.809
44337SOL    HW234844   2.752  11.355   5.955
44338SOL     OW34845   2.823   7.309   2.569
44338SOL    HW134846   2.764   7.276   2.501
44338SOL    HW234847   2.880   7.234   2.590
44339SOL     OW34848   5.536  12.236   6.416
44339SOL    HW134849   5.617  12.281   6.440
44339SOL    HW234850   5.554  12.197   6.331
44340SOL     OW34851   8.746  12.680   7.237
44340SOL    HW134852   8.762  12.660   7.330
44340SOL    HW234853   8.795  12.613   7.190
44341SOL     OW34854  10.293   8.700   5.670
44341SOL    HW134855  10.362   8.754   5.709
44341SOL    HW234856  10.281   8.628   5.732
44342SOL     OW34857   1.529   1.479  11.127
44342SOL    HW134858   1.440   1.494  11.096
44342SOL    HW234859   1.552   1.393  11.093
44343SOL     OW34860   6.177   4.977  14.435
44343SOL    HW134861   6.246   5.021  14.485
44343SOL    HW234862   6.161   5.035  14.360
44344SOL     OW34863  12.602   1.136   9.861
44344SOL    HW134864  12.615   1.195   9.787
44344SOL    HW234865  12.538   1.072   9.829
44345SOL     OW34866  11.973   7.514   5.710
44345SOL    HW134867  12.042   7.563   5.666
44345SOL    HW234868  11.899   7.574   5.713
44346SOL     OW34869   8.871   8.921  10.367
44346SOL    HW134870   8.791   8.971  10.384
44346SOL    HW234871   8.840   8.835  10.339
44347SOL     OW34872  14.693   2.301   8.872
44347SOL    HW134873  14.665   2.386   8.907
44347SOL    HW234874  14.693   2.312   8.777
44348SOL     OW34875   1.527  14.387   3.395
44348SOL    HW134876   1.506  14.359   3.484
44348SOL    HW234877   1.444  14.377   3.348
44349SOL     OW34878   3.490   6.250   3.075
44349SOL    HW134879   3.437   6.212   3.004
44349SOL    HW234880   3.451   6.337   3.089
44350SOL     OW34881  11.857   7.842   7.014
44350SOL    HW134882  11.854   7.899   6.937
44350SOL    HW234883  11.766   7.833   7.041
44351SOL     OW34884  12.465   0.928  10.150
44351SOL    HW134885  12.374   0.942  10.179
44351SOL    HW234886  12.500   1.016  10.138
44352SOL     OW34887   4.064  14.738   9.794
44352SOL    HW134888   4.090  14.825   9.764
44352SOL    HW234889   4.145  14.695   9.820
44353SOL     OW34890   1.929   7.726  14.513
44353SOL    HW134891   1.934   7.631  14.518
44353SOL    HW234892   2.013   7.753  14.474
44354SOL     OW34893  13.686   9.045   8.866
44354SOL    HW134894  13.619   9.106   8.834
44354SOL    HW234895  13.688   9.060   8.960
44355SOL     OW34896  13.822   4.002   6.062
44355SOL    HW134897  13.814   3.908   6.042
44355SOL    HW234898  13.781   4.011   6.148
44356SOL     OW34899  12.049  10.607  13.438
44356SOL    HW134900  12.067  10.659  13.517
44356SOL    HW234901  11.972  10.649  13.399
44357SOL     OW34902   5.549   6.166   3.766
44357SOL    HW134903   5.588   6.117   3.838
44357SOL    HW234904   5.519   6.248   3.806
44358SOL     OW34905   1.429  13.097  13.585
44358SOL    HW134906   1.504  13.126  13.532
44358SOL    HW234907   1.469  13.052  13.659
44359SOL     OW34908   0.928   4.787   6.428
44359SOL    HW134909   0.881   4.763   6.508
44359SOL    HW234910   0.914   4.881   6.420
44360SOL     OW34911   3.882   2.227   3.363
44360SOL    HW134912   3.831   2.300   3.330
44360SOL    HW234913   3.818   2.172   3.409
44361SOL     OW34914   3.174   6.198   7.776
44361SOL    HW134915   3.251   6.177   7.723
44361SOL    HW234916   3.118   6.121   7.769
44362SOL     OW34917   4.712  14.467   1.144
44362SOL    HW134918   4.667  14.388   1.114
44362SOL    HW234919   4.805  14.443   1.143
44363SOL     OW34920   5.181   1.854  13.762
44363SOL    HW134921   5.170   1.840  13.856
44363SOL    HW234922   5.119   1.924  13.741
44364SOL     OW34923  13.977   2.001   2.653
44364SOL    HW134924  14.063   2.037   2.632
44364SOL    HW234925  13.994   1.935   2.720
44365SOL     OW34926  13.103  10.158   2.752
44365SOL    HW134927  13.116  10.190   2.663
44365SOL    HW234928  13.185  10.176   2.797
44366SOL     OW34929   8.161   1.842   2.502
44366SOL    HW134930   8.175   1.761   2.551
44366SOL    HW234931   8.094   1.890   2.551
44367SOL     OW34932  14.070   4.540  12.752
44367SOL    HW134933  14.052   4.599  12.825
44367SOL    HW234934  14.093   4.457  12.792
44368SOL     OW34935   3.413   9.560  10.182
44368SOL    HW134936   3.458   9.618  10.120
44368SOL    HW234937   3.374   9.492  10.127
44369SOL     OW34938   6.450  13.164  10.183
44369SOL    HW134939   6.444  13.100  10.254
44369SOL    HW234940   6.455  13.111  10.103
44370SOL     OW34941  10.783   8.972   0.179
44370SOL    HW134942  10.701   8.940   0.216
44370SOL    HW234943  10.792   8.924   0.097
44371SOL     OW34944   3.047   3.553  12.549
44371SOL    HW134945   3.052   3.461  12.572
44371SOL    HW234946   3.126   3.591  12.587
44372SOL     OW34947   2.810  12.927   5.610
44372SOL    HW134948   2.888  12.958   5.565
44372SOL    HW234949   2.743  12.924   5.542
44373SOL     OW34950   1.783   8.586   9.346
44373SOL    HW134951   1.785   8.589   9.250
44373SOL    HW234952   1.867   8.621   9.373
44374SOL     OW34953  12.481   4.390  14.143
44374SOL    HW134954  12.567   4.397  14.184
44374SOL    HW234955  12.420   4.384  14.216
44375SOL     OW34956   0.133   5.071  12.547
44375SOL    HW134957   0.066   5.133  12.578
44375SOL    HW234958   0.213   5.097  12.592
44376SOL     OW34959  12.147   7.780   2.935
44376SOL    HW134960  12.146   7.838   2.859
44376SOL    HW234961  12.215   7.716   2.916
44377SOL     OW34962   6.960  11.171  14.269
44377SOL    HW134963   6.923  11.163  14.181
44377SOL    HW234964   6.884  11.187  14.325
44378SOL     OW34965   0.507  10.442   5.238
44378SOL    HW134966   0.561  10.373   5.199
44378SOL    HW234967   0.494  10.414   5.329
44379SOL     OW34968   9.192   9.899   1.382
44379SOL    HW134969   9.127   9.902   1.453
44379SOL    HW234970   9.184   9.811   1.347
44380SOL     OW34971   6.084   8.974   8.785
44380SOL    HW134972   6.127   8.895   8.753
44380SOL    HW234973   6.040   9.011   8.709
44381SOL     OW34974  14.411  10.847   3.339
44381SOL    HW134975  14.334  10.813   3.385
44381SOL    HW234976  14.376  10.912   3.278
44382SOL     OW34977   4.859  14.585   6.192
44382SOL    HW134978   4.874  14.585   6.287
44382SOL    HW234979   4.790  14.650   6.179
44383SOL     OW34980   4.285   4.170   0.281
44383SOL    HW134981   4.231   4.247   0.294
44383SOL    HW234982   4.234   4.114   0.223
44384SOL     OW34983   2.073   0.649   5.308
44384SOL    HW134984   2.045   0.706   5.379
44384SOL    HW234985   2.046   0.561   5.336
44385SOL     OW34986   5.490  11.145  10.420
44385SOL    HW134987   5.540  11.212  10.374
44385SOL    HW234988   5.417  11.125  10.361
44386SOL     OW34989  10.246   4.811  11.546
44386SOL    HW134990  10.287   4.898  11.541
44386SOL    HW234991  10.256   4.785  11.637
44387SOL     OW34992   8.378   1.871  14.144
44387SOL    HW134993   8.440   1.812  14.101
44387SOL    HW234994   8.299   1.818  14.155
44388SOL     OW34995  10.567  14.179   6.505
44388SOL    HW134996  10.631  14.126   6.460
44388SOL    HW234997  10.482  14.143   6.479
44389SOL     OW34998   3.686   9.824   5.275
44389SOL    HW134999   3.632   9.894   5.237
44389SOL    HW235000   3.631   9.746   5.268
44390SOL     OW35001   2.196   0.928   4.846
44390SOL    HW135002   2.131   0.969   4.903
44390SOL    HW235003   2.249   0.874   4.905
44391SOL     OW35004   3.056   2.958   1.145
44391SOL    HW135005   3.099   2.910   1.074
44391SOL    HW235006   3.038   3.044   1.106
44392SOL     OW35007  12.671   3.241   0.964
44392SOL    HW135008  12.659   3.335   0.981
44392SOL    HW235009  12.760   3.235   0.929
44393SOL     OW35010   4.306   6.093   2.682
44393SOL    HW135011   4.253   6.093   2.762
44393SOL    HW235012   4.245   6.117   2.612
44394SOL     OW35013   0.130   2.888   8.071
44394SOL    HW135014   0.190   2.825   8.110
44394SOL    HW235015   0.184   2.939   8.012
44395SOL     OW35016   5.699  10.465   3.911
44395SOL    HW135017   5.696  10.370   3.897
44395SOL    HW235018   5.660  10.478   3.997
44396SOL     OW35019   1.848   6.062   7.449
44396SOL    HW135020   1.772   6.108   7.484
44396SOL    HW235021   1.810   5.987   7.402
44397SOL     OW35022   0.568  10.313   7.587
44397SOL    HW135023   0.556  10.298   7.493
44397SOL    HW235024   0.616  10.237   7.618
44398SOL     OW35025  13.939  14.210  11.770
44398SOL    HW135026  13.862  14.163  11.804
44398SOL    HW235027  13.902  14.271  11.706
44399SOL     OW35028   7.242   0.682   6.587
44399SOL    HW135029   7.163   0.696   6.639
44399SOL    HW235030   7.287   0.767   6.590
44400SOL     OW35031  13.336   7.519   0.847
44400SOL    HW135032  13.391   7.544   0.922
44400SOL    HW235033  13.389   7.455   0.800
44401SOL     OW35034   4.943  13.037   9.413
44401SOL    HW135035   5.036  13.029   9.390
44401SOL    HW235036   4.905  12.953   9.389
44402SOL     OW35037   1.256   3.287   8.447
44402SOL    HW135038   1.216   3.212   8.490
44402SOL    HW235039   1.184   3.333   8.405
44403SOL     OW35040  12.571   7.313   0.489
44403SOL    HW135041  12.516   7.332   0.565
44403SOL    HW235042  12.609   7.227   0.508
44404SOL     OW35043  13.615   2.581  10.663
44404SOL    HW135044  13.559   2.644  10.709
44404SOL    HW235045  13.592   2.497  10.703
44405SOL     OW35046  13.198   0.348   9.319
44405SOL    HW135047  13.127   0.320   9.378
44405SOL    HW235048  13.277   0.337   9.371
44406SOL     OW35049   5.068   0.524   3.408
44406SOL    HW135050   4.999   0.459   3.420
44406SOL    HW235051   5.035   0.583   3.340
44407SOL     OW35052  13.644   5.750   1.010
44407SOL    HW135053  13.658   5.769   1.103
44407SOL    HW235054  13.668   5.832   0.966
44408SOL     OW35055   5.009   7.487   0.379
44408SOL    HW135056   4.965   7.500   0.295
44408SOL    HW235057   4.993   7.568   0.428
44409SOL     OW35058  13.974   1.421   3.628
44409SOL    HW135059  13.932   1.408   3.543
44409SOL    HW235060  14.063   1.386   3.617
44410SOL     OW35061   3.304  14.838  12.138
44410SOL    HW135062   3.360  14.781  12.086
44410SOL    HW235063   3.218  14.797  12.136
44411SOL     OW35064   3.314  12.030   5.338
44411SOL    HW135065   3.359  12.094   5.282
44411SOL    HW235066   3.385  11.985   5.385
44412SOL     OW35067   2.175  11.521   3.921
44412SOL    HW135068   2.122  11.473   3.984
44412SOL    HW235069   2.138  11.497   3.836
44413SOL     OW35070  12.252  10.549   5.112
44413SOL    HW135071  12.330  10.519   5.066
44413SOL    HW235072  12.204  10.468   5.132
44414SOL     OW35073   3.314  10.234   9.642
44414SOL    HW135074   3.406  10.257   9.623
44414SOL    HW235075   3.294  10.164   9.579
44415SOL     OW35076   4.105   9.975   0.907
44415SOL    HW135077   4.036   9.909   0.916
44415SOL    HW235078   4.184   9.931   0.937
44416SOL     OW35079   0.016   7.382   5.274
44416SOL    HW135080  14.824   7.441   5.306
44416SOL    HW235081   0.095   7.437   5.269
44417SOL     OW35082   3.747   2.621   8.931
44417SOL    HW135083   3.770   2.675   8.855
44417SOL    HW235084   3.702   2.545   8.894
44418SOL     OW35085   6.783   6.089  10.268
44418SOL    HW135086   6.822   6.124  10.348
44418SOL    HW235087   6.697   6.057  10.295
44419SOL     OW35088   4.452   9.471   6.650
44419SOL    HW135089   4.456   9.379   6.623
44419SOL    HW235090   4.472   9.468   6.744
44420SOL     OW35091   3.560   0.030   3.888
44420SOL    HW135092   3.595  14.854   3.816
44420SOL    HW235093   3.485   0.076   3.851
44421SOL     OW35094   6.674   1.836   2.065
44421SOL    HW135095   6.626   1.919   2.063
44421SOL    HW235096   6.640   1.792   2.143
44422SOL     OW35097   0.987   9.368  12.017
44422SOL    HW135098   0.957   9.458  12.004
44422SOL    HW235099   0.959   9.345  12.105
44423SOL     OW35100   3.339   9.417   6.317
44423SOL    HW135101   3.325   9.354   6.247
44423SOL    HW235102   3.420   9.462   6.292
44424SOL     OW35103  12.893   5.308  10.413
44424SOL    HW135104  12.845   5.273  10.488
44424SOL    HW235105  12.824   5.344  10.356
44425SOL     OW35106   2.169   1.723   8.475
44425SOL    HW135107   2.189   1.659   8.543
44425SOL    HW235108   2.234   1.792   8.486
44426SOL     OW35109   4.274  13.222   0.649
44426SOL    HW135110   4.332  13.245   0.721
44426SOL    HW235111   4.310  13.141   0.614
44427SOL     OW35112   8.014   2.800   1.761
44427SOL    HW135113   8.019   2.894   1.745
44427SOL    HW235114   8.040   2.760   1.678
44428SOL     OW35115   9.003   6.706   3.977
44428SOL    HW135116   8.979   6.725   3.886
44428SOL    HW235117   8.920   6.703   4.024
44429SOL     OW35118   7.762  10.145   8.684
44429SOL    HW135119   7.788  10.233   8.713
44429SOL    HW235120   7.742  10.098   8.765
44430SOL     OW35121   3.817   5.672   3.599
44430SOL    HW135122   3.783   5.594   3.643
44430SOL    HW235123   3.832   5.735   3.670
44431SOL     OW35124   0.795   3.081   6.615
44431SOL    HW135125   0.713   3.125   6.634
44431SOL    HW235126   0.863   3.141   6.644
44432SOL     OW35127   1.688   8.185   9.978
44432SOL    HW135128   1.767   8.199  10.030
44432SOL    HW235129   1.616   8.184  10.041
44433SOL     OW35130  10.951   9.432   0.009
44433SOL    HW135131  10.890   9.497   0.044
44433SOL    HW235132  11.030   9.483  14.865
44434SOL     OW35133  13.351   0.659   8.474
44434SOL    HW135134  13.385   0.673   8.562
44434SOL    HW235135  13.273   0.606   8.486
44435SOL     OW35136   5.294   8.203  10.753
44435SOL    HW135137   5.240   8.143  10.804
44435SOL    HW235138   5.232   8.248  10.695
44436SOL     OW35139   0.787   7.490  13.636
44436SOL    HW135140   0.837   7.433  13.578
44436SOL    HW235141   0.845   7.565  13.652
44437SOL     OW35142  12.187   5.997  11.259
44437SOL    HW135143  12.271   6.027  11.295
44437SOL    HW235144  12.184   6.037  11.172
44438SOL     OW35145  10.437   1.305   7.337
44438SOL    HW135146  10.519   1.283   7.380
44438SOL    HW235147  10.379   1.232   7.357
44439SOL     OW35148   8.938  12.414   7.480
44439SOL    HW135149   8.863  12.368   7.517
44439SOL    HW235150   8.909  12.506   7.476
44440SOL     OW35151   6.798   9.456   6.675
44440SOL    HW135152   6.870   9.403   6.642
44440SOL    HW235153   6.720   9.418   6.635
44441SOL     OW35154   9.138  14.823   4.353
44441SOL    HW135155   9.180  14.779   4.278
44441SOL    HW235156   9.045  14.818   4.334
44442SOL     OW35157  12.225   5.779  13.311
44442SOL    HW135158  12.193   5.765  13.400
44442SOL    HW235159  12.157   5.742  13.255
44443SOL     OW35160  12.738   7.109   1.896
44443SOL    HW135161  12.807   7.072   1.841
44443SOL    HW235162  12.753   7.204   1.893
44444SOL     OW35163   9.995  13.895  10.224
44444SOL    HW135164   9.913  13.941  10.245
44444SOL    HW235165  10.045  13.898  10.306
44445SOL     OW35166   4.876   5.623   3.627
44445SOL    HW135167   4.824   5.649   3.703
44445SOL    HW235168   4.901   5.532   3.643
44446SOL     OW35169   7.359  12.441  12.881
44446SOL    HW135170   7.438  12.439  12.825
44446SOL    HW235171   7.306  12.368  12.850
44447SOL     OW35172  11.503   3.725   0.848
44447SOL    HW135173  11.475   3.766   0.929
44447SOL    HW235174  11.545   3.795   0.798
44448SOL     OW35175  10.215   8.604   8.344
44448SOL    HW135176  10.301   8.615   8.303
44448SOL    HW235177  10.218   8.660   8.422
44449SOL     OW35178   1.321   0.802   3.921
44449SOL    HW135179   1.373   0.738   3.873
44449SOL    HW235180   1.355   0.798   4.011
44450SOL     OW35181   7.008   2.175   9.755
44450SOL    HW135182   7.075   2.111   9.731
44450SOL    HW235183   6.926   2.135   9.725
44451SOL     OW35184   9.652   5.541   0.915
44451SOL    HW135185   9.597   5.498   0.850
44451SOL    HW235186   9.637   5.634   0.901
44452SOL     OW35187  10.557   6.057   8.370
44452SOL    HW135188  10.622   6.008   8.419
44452SOL    HW235189  10.533   6.001   8.296
44453SOL     OW35190   6.964  13.784  11.435
44453SOL    HW135191   7.005  13.783  11.521
44453SOL    HW235192   7.036  13.794  11.374
44454SOL     OW35193  11.942  12.598   7.830
44454SOL    HW135194  11.914  12.570   7.918
44454SOL    HW235195  11.922  12.691   7.826
44455SOL     OW35196  10.137   4.829   6.890
44455SOL    HW135197  10.207   4.867   6.942
44455SOL    HW235198  10.178   4.753   6.848
44456SOL     OW35199  14.041  13.782   8.970
44456SOL    HW135200  14.073  13.860   8.925
44456SOL    HW235201  14.033  13.808   9.061
44457SOL     OW35202   7.835  13.239  10.862
44457SOL    HW135203   7.921  13.268  10.830
44457SOL    HW235204   7.809  13.305  10.926
44458SOL     OW35205   3.002   0.272   0.495
44458SOL    HW135206   3.034   0.324   0.569
44458SOL    HW235207   3.045   0.311   0.419
44459SOL     OW35208  10.412   2.298   9.416
44459SOL    HW135209  10.461   2.359   9.362
44459SOL    HW235210  10.330   2.284   9.368
44460SOL     OW35211   5.345   9.515   4.726
44460SOL    HW135212   5.267   9.486   4.678
44460SOL    HW235213   5.351   9.454   4.799
44461SOL     OW35214  13.706  13.841   0.436
44461SOL    HW135215  13.790  13.794   0.431
44461SOL    HW235216  13.730  13.933   0.426
44462SOL     OW35217   0.970   2.853   1.251
44462SOL    HW135218   0.959   2.888   1.163
44462SOL    HW235219   1.046   2.900   1.286
44463SOL     OW35220   1.794   6.111   1.328
44463SOL    HW135221   1.790   6.043   1.260
44463SOL    HW235222   1.885   6.109   1.358
44464SOL     OW35223   4.300  11.293   8.923
44464SOL    HW135224   4.231  11.353   8.894
44464SOL    HW235225   4.354  11.346   8.982
44465SOL     OW35226  12.072   1.427   9.431
44465SOL    HW135227  12.073   1.418   9.526
44465SOL    HW235228  12.022   1.507   9.415
44466SOL     OW35229  13.942   6.863   4.961
44466SOL    HW135230  13.907   6.821   5.039
44466SOL    HW235231  13.902   6.950   4.960
44467SOL     OW35232  12.357   3.906   5.299
44467SOL    HW135233  12.282   3.903   5.359
44467SOL    HW235234  12.376   4.000   5.290
44468SOL     OW35235   5.108   3.812   4.439
44468SOL    HW135236   5.062   3.892   4.465
44468SOL    HW235237   5.199   3.828   4.464
44469SOL     OW35238  10.343   0.172   8.407
44469SOL    HW135239  10.411   0.139   8.348
44469SOL    HW235240  10.361   0.130   8.491
44470SOL     OW35241   2.578   0.224   1.213
44470SOL    HW135242   2.502   0.272   1.246
44470SOL    HW235243   2.543   0.170   1.142
44471SOL     OW35244   3.541  14.833   8.842
44471SOL    HW135245   3.471  14.829   8.776
44471SOL    HW235246   3.513   0.026   8.902
44472SOL     OW35247   8.150   6.252   1.906
44472SOL    HW135248   8.074   6.195   1.888
44472SOL    HW235249   8.172   6.290   1.822
44473SOL     OW35250   7.072   9.892   3.664
44473SOL    HW135251   6.981   9.868   3.646
44473SOL    HW235252   7.088   9.859   3.753
44474SOL     OW35253   3.683  11.765   9.207
44474SOL    HW135254   3.761  11.809   9.240
44474SOL    HW235255   3.708  11.733   9.120
44475SOL     OW35256   0.181   2.756   0.950
44475SOL    HW135257   0.224   2.681   0.989
44475SOL    HW235258   0.181   2.823   1.018
44476SOL     OW35259   3.178   2.392  14.527
44476SOL    HW135260   3.202   2.302  14.504
44476SOL    HW235261   3.090   2.403  14.491
44477SOL     OW35262  14.043   0.338   6.970
44477SOL    HW135263  14.089   0.256   6.988
44477SOL    HW235264  14.106   0.406   6.991
44478SOL     OW35265   7.862   2.752   5.680
44478SOL    HW135266   7.843   2.659   5.682
44478SOL    HW235267   7.884   2.774   5.771
44479SOL     OW35268   2.896   9.249   4.786
44479SOL    HW135269   2.836   9.175   4.785
44479SOL    HW235270   2.840   9.325   4.766
44480SOL     OW35271   7.986  12.000  13.763
44480SOL    HW135272   7.913  11.968  13.817
44480SOL    HW235273   8.031  11.921  13.734
44481SOL     OW35274   5.534   7.571   9.613
44481SOL    HW135275   5.613   7.604   9.571
44481SOL    HW235276   5.524   7.625   9.692
44482SOL     OW35277   5.567  13.804   4.643
44482SOL    HW135278   5.540  13.869   4.577
44482SOL    HW235279   5.649  13.768   4.609
44483SOL     OW35280   3.078  12.478   3.843
44483SOL    HW135281   3.053  12.400   3.794
44483SOL    HW235282   3.121  12.445   3.921
44484SOL     OW35283   9.778   5.806  10.430
44484SOL    HW135284   9.783   5.718  10.392
44484SOL    HW235285   9.734   5.859  10.364
44485SOL     OW35286  10.319   8.572   6.279
44485SOL    HW135287  10.280   8.485   6.269
44485SOL    HW235288  10.313   8.591   6.372
44486SOL     OW35289   2.244   8.490   4.862
44486SOL    HW135290   2.216   8.506   4.953
44486SOL    HW235291   2.196   8.554   4.810
44487SOL     OW35292   1.864   5.116   7.142
44487SOL    HW135293   1.850   5.069   7.060
44487SOL    HW235294   1.795   5.182   7.144
44488SOL     OW35295   4.491   6.147   9.342
44488SOL    HW135296   4.567   6.172   9.289
44488SOL    HW235297   4.425   6.213   9.322
44489SOL     OW35298   5.172   1.793   0.554
44489SOL    HW135299   5.103   1.838   0.604
44489SOL    HW235300   5.124   1.742   0.489
44490SOL     OW35301   2.443  12.975   9.246
44490SOL    HW135302   2.459  12.958   9.153
44490SOL    HW235303   2.525  13.012   9.278
44491SOL     OW35304   7.664   5.363   3.213
44491SOL    HW135305   7.658   5.459   3.211
44491SOL    HW235306   7.631   5.339   3.299
44492SOL     OW35307  12.491  12.023   9.832
44492SOL    HW135308  12.525  11.969   9.903
44492SOL    HW235309  12.432  12.085   9.875
44493SOL     OW35310   4.190  14.534   3.430
44493SOL    HW135311   4.247  14.513   3.504
44493SOL    HW235312   4.104  14.499   3.454
44494SOL     OW35313  12.879   9.091  11.451
44494SOL    HW135314  12.953   9.138  11.413
44494SOL    HW235315  12.806   9.108  11.392
44495SOL     OW35316   3.098  13.977  14.483
44495SOL    HW135317   3.146  13.932  14.414
44495SOL    HW235318   3.025  13.918  14.504
44496SOL     OW35319   4.703   7.329   3.467
44496SOL    HW135320   4.669   7.417   3.482
44496SOL    HW235321   4.636   7.286   3.415
44497SOL     OW35322  11.267   0.396   6.220
44497SOL    HW135323  11.192   0.358   6.266
44497SOL    HW235324  11.342   0.345   6.250
44498SOL     OW35325  11.470  14.713   9.021
44498SOL    HW135326  11.535  14.655   9.060
44498SOL    HW235327  11.392  14.702   9.075
44499SOL     OW35328  14.273  11.907  13.929
44499SOL    HW135329  14.360  11.896  13.967
44499SOL    HW235330  14.213  11.868  13.993
44500SOL     OW35331   8.678   3.138   7.729
44500SOL    HW135332   8.762   3.092   7.724
44500SOL    HW235333   8.700   3.229   7.706
44501SOL     OW35334  11.305  11.255   8.307
44501SOL    HW135335  11.266  11.189   8.364
44501SOL    HW235336  11.305  11.215   8.220
44502SOL     OW35337   9.200   5.763  10.863
44502SOL    HW135338   9.236   5.713  10.936
44502SOL    HW235339   9.127   5.812  10.902
44503SOL     OW35340  10.670   8.862   7.426
44503SOL    HW135341  10.673   8.951   7.390
44503SOL    HW235342  10.646   8.875   7.518
44504SOL     OW35343   8.512   5.184   2.114
44504SOL    HW135344   8.606   5.189   2.128
44504SOL    HW235345   8.488   5.269   2.077
44505SOL     OW35346  13.110  12.353   7.595
44505SOL    HW135347  13.046  12.413   7.633
44505SOL    HW235348  13.075  12.265   7.613
44506SOL     OW35349   5.540  13.162   7.641
44506SOL    HW135350   5.630  13.162   7.676
44506SOL    HW235351   5.536  13.241   7.587
44507SOL     OW35352   8.484   7.030   8.313
44507SOL    HW135353   8.577   7.016   8.328
44507SOL    HW235354   8.473   7.125   8.311
44508SOL     OW35355   4.942  10.543   2.260
44508SOL    HW135356   5.004  10.554   2.188
44508SOL    HW235357   4.985  10.584   2.336
44509SOL     OW35358  13.581  11.153   5.287
44509SOL    HW135359  13.620  11.143   5.373
44509SOL    HW235360  13.496  11.109   5.293
44510SOL     OW35361  10.351   5.954   4.875
44510SOL    HW135362  10.302   5.974   4.955
44510SOL    HW235363  10.283   5.941   4.809
44511SOL     OW35364   3.933   0.690   2.093
44511SOL    HW135365   3.917   0.780   2.065
44511SOL    HW235366   3.929   0.694   2.189
44512SOL     OW35367  11.997   5.666  12.048
44512SOL    HW135368  12.039   5.656  12.134
44512SOL    HW235369  12.059   5.719  11.997
44513SOL     OW35370   3.103  13.817  13.480
44513SOL    HW135371   3.116  13.727  13.509
44513SOL    HW235372   3.156  13.869  13.541
44514SOL     OW35373   9.957   5.981   2.034
44514SOL    HW135374   9.982   5.908   1.977
44514SOL    HW235375  10.033   6.040   2.031
44515SOL     OW35376   0.818  14.505   3.590
44515SOL    HW135377   0.726  14.528   3.572
44515SOL    HW235378   0.818  14.479   3.682
44516SOL     OW35379   4.372   6.990  14.743
44516SOL    HW135380   4.435   6.918  14.737
44516SOL    HW235381   4.377   7.034  14.658
44517SOL     OW35382   1.916   2.698   6.958
44517SOL    HW135383   1.874   2.632   6.902
44517SOL    HW235384   1.933   2.652   7.040
44518SOL     OW35385   1.713  10.561   3.811
44518SOL    HW135386   1.641  10.625   3.808
44518SOL    HW235387   1.792  10.613   3.797
44519SOL     OW35388  14.440  13.673  13.666
44519SOL    HW135389  14.421  13.633  13.751
44519SOL    HW235390  14.355  13.706  13.635
44520SOL     OW35391   9.829  10.818   7.388
44520SOL    HW135392   9.826  10.909   7.417
44520SOL    HW235393   9.744  10.802   7.348
44521SOL     OW35394   8.171  13.340   0.768
44521SOL    HW135395   8.245  13.283   0.791
44521SOL    HW235396   8.182  13.416   0.825
44522SOL     OW35397   6.760  11.839   9.938
44522SOL    HW135398   6.788  11.839  10.029
44522SOL    HW235399   6.812  11.770   9.896
44523SOL     OW35400  10.186   1.308   6.712
44523SOL    HW135401  10.244   1.309   6.788
44523SOL    HW235402  10.098   1.297   6.749
44524SOL     OW35403  13.195  10.799   1.394
44524SOL    HW135404  13.168  10.791   1.486
44524SOL    HW235405  13.290  10.785   1.396
44525SOL     OW35406   8.840  12.640   1.465
44525SOL    HW135407   8.867  12.647   1.557
44525SOL    HW235408   8.840  12.730   1.433
44526SOL     OW35409   6.674   5.585   1.327
44526SOL    HW135410   6.676   5.626   1.414
44526SOL    HW235411   6.760   5.544   1.319
44527SOL     OW35412  10.297  12.454   6.351
44527SOL    HW135413  10.272  12.546   6.344
44527SOL    HW235414  10.392  12.454   6.347
44528SOL     OW35415  11.532   4.737  13.854
44528SOL    HW135416  11.584   4.778  13.784
44528SOL    HW235417  11.595   4.718  13.922
44529SOL     OW35418   3.778   1.321   2.060
44529SOL    HW135419   3.732   1.404   2.073
44529SOL    HW235420   3.722   1.271   2.000
44530SOL     OW35421   8.716   0.383   3.812
44530SOL    HW135422   8.655   0.336   3.755
44530SOL    HW235423   8.802   0.365   3.775
44531SOL     OW35424  12.067  14.852  10.126
44531SOL    HW135425  12.002   0.047  10.126
44531SOL    HW235426  12.139   0.010  10.073
44532SOL     OW35427  10.548  14.603   8.385
44532SOL    HW135428  10.455  14.615   8.404
44532SOL    HW235429  10.550  14.565   8.297
44533SOL     OW35430  12.255   6.201   1.392
44533SOL    HW135431  12.312   6.243   1.328
44533SOL    HW235432  12.266   6.254   1.471
44534SOL     OW35433  12.423   7.403   2.420
44534SOL    HW135434  12.411   7.396   2.515
44534SOL    HW235435  12.516   7.424   2.409
44535SOL     OW35436   3.647  13.790   8.842
44535SOL    HW135437   3.615  13.742   8.918
44535SOL    HW235438   3.699  13.861   8.880
44536SOL     OW35439   1.907   5.980   1.595
44536SOL    HW135440   1.839   5.920   1.566
44536SOL    HW235441   1.965   5.990   1.519
44537SOL     OW35442   6.436  11.649   3.064
44537SOL    HW135443   6.405  11.739   3.073
44537SOL    HW235444   6.417  11.626   2.973
44538SOL     OW35445   6.403   6.271   4.527
44538SOL    HW135446   6.485   6.313   4.553
44538SOL    HW235447   6.402   6.188   4.575
44539SOL     OW35448   8.247   9.558   7.016
44539SOL    HW135449   8.303   9.602   7.081
44539SOL    HW235450   8.158   9.570   7.050
44540SOL     OW35451   1.983   3.472  11.384
44540SOL    HW135452   1.926   3.460  11.308
44540SOL    HW235453   1.996   3.384  11.419
44541SOL     OW35454   2.962  14.716  11.948
44541SOL    HW135455   3.042  14.741  11.903
44541SOL    HW235456   2.960  14.620  11.941
44542SOL     OW35457   6.093  12.109  10.192
44542SOL    HW135458   6.158  12.064  10.245
44542SOL    HW235459   6.056  12.040  10.137
44543SOL     OW35460   5.033   0.658   4.464
44543SOL    HW135461   4.943   0.667   4.495
44543SOL    HW235462   5.063   0.574   4.497
44544SOL     OW35463   5.126  12.368   4.792
44544SOL    HW135464   5.056  12.304   4.785
44544SOL    HW235465   5.119  12.404   4.880
44545SOL     OW35466  10.656   0.101  13.541
44545SOL    HW135467  10.745   0.107  13.575
44545SOL    HW235468  10.653   0.165  13.471
44546SOL     OW35469  14.734  12.690  10.810
44546SOL    HW135470  14.741  12.609  10.862
44546SOL    HW235471  14.750  12.661  10.720
44547SOL     OW35472   7.941   7.087   3.731
44547SOL    HW135473   7.882   7.147   3.685
44547SOL    HW235474   7.997   7.050   3.662
44548SOL     OW35475  11.404   8.560   6.319
44548SOL    HW135476  11.360   8.635   6.280
44548SOL    HW235477  11.385   8.566   6.412
44549SOL     OW35478  12.980  13.818  14.470
44549SOL    HW135479  13.055  13.864  14.432
44549SOL    HW235480  13.017  13.771  14.545
44550SOL     OW35481  12.065   6.914  14.049
44550SOL    HW135482  12.052   7.002  14.083
44550SOL    HW235483  12.030   6.918  13.960
44551SOL     OW35484  14.355   6.927   6.607
44551SOL    HW135485  14.414   6.906   6.536
44551SOL    HW235486  14.371   7.020   6.626
44552SOL     OW35487   9.527   3.436   9.870
44552SOL    HW135488   9.523   3.471   9.959
44552SOL    HW235489   9.534   3.341   9.882
44553SOL     OW35490   9.935  13.535   0.696
44553SOL    HW135491   9.854  13.583   0.681
44553SOL    HW235492   9.920  13.488   0.778
44554SOL     OW35493  12.722  14.148   6.446
44554SOL    HW135494  12.709  14.215   6.513
44554SOL    HW235495  12.810  14.115   6.463
44555SOL     OW35496   8.665  13.857  11.932
44555SOL    HW135497   8.714  13.940  11.935
44555SOL    HW235498   8.731  13.790  11.945
44556SOL     OW35499   8.302   5.952  14.517
44556SOL    HW135500   8.369   5.916  14.575
44556SOL    HW235501   8.253   6.012  14.572
44557SOL     OW35502  13.233   3.298   1.634
44557SOL    HW135503  13.230   3.236   1.561
44557SOL    HW235504  13.303   3.359   1.610
44558SOL     OW35505   2.103  13.998   8.713
44558SOL    HW135506   2.042  13.962   8.777
44558SOL    HW235507   2.154  14.062   8.761
44559SOL     OW35508   9.031  11.184   3.783
44559SOL    HW135509   9.107  11.132   3.758
44559SOL    HW235510   8.967  11.120   3.813
44560SOL     OW35511  14.613  12.134   6.415
44560SOL    HW135512  14.525  12.104   6.393
44560SOL    HW235513  14.608  12.162   6.506
44561SOL     OW35514  10.985   9.966   0.006
44561SOL    HW135515  10.962  10.026   0.077
44561SOL    HW235516  11.071   9.997  14.852
44562SOL     OW35517   9.965   0.280  14.297
44562SOL    HW135518   9.962   0.254  14.205
44562SOL    HW235519  10.040   0.339  14.303
44563SOL     OW35520   9.567   9.354  10.454
44563SOL    HW135521   9.599   9.361  10.544
44563SOL    HW235522   9.485   9.404  10.453
44564SOL     OW35523  11.609   6.810  10.798
44564SOL    HW135524  11.665   6.846  10.866
44564SOL    HW235525  11.543   6.877  10.782
44565SOL     OW35526   2.607   3.417  10.173
44565SOL    HW135527   2.627   3.350  10.107
44565SOL    HW235528   2.521   3.393  10.206
44566SOL     OW35529  10.490  11.833   0.122
44566SOL    HW135530  10.575  11.789   0.114
44566SOL    HW235531  10.483  11.852   0.216
44567SOL     OW35532   6.425  10.837   2.863
44567SOL    HW135533   6.492  10.874   2.806
44567SOL    HW235534   6.462  10.754   2.894
44568SOL     OW35535   3.097   1.434   3.940
44568SOL    HW135536   3.110   1.494   4.013
44568SOL    HW235537   3.017   1.386   3.962
44569SOL     OW35538   6.871   2.395  14.704
44569SOL    HW135539   6.881   2.369  14.613
44569SOL    HW235540   6.785   2.437  14.708
44570SOL     OW35541   8.852   3.984   3.362
44570SOL    HW135542   8.857   3.918   3.432
44570SOL    HW235543   8.857   3.933   3.281
44571SOL     OW35544   6.895  13.112   4.567
44571SOL    HW135545   6.851  13.112   4.482
44571SOL    HW235546   6.848  13.047   4.619
44572SOL     OW35547  10.180   1.100   0.158
44572SOL    HW135548  10.206   1.049   0.081
44572SOL    HW235549  10.222   1.185   0.146
44573SOL     OW35550   6.868   0.254  13.981
44573SOL    HW135551   6.910   0.334  13.950
44573SOL    HW235552   6.818   0.222  13.906
44574SOL     OW35553   6.085  10.199  11.566
44574SOL    HW135554   6.015  10.135  11.578
44574SOL    HW235555   6.151  10.173  11.630
44575SOL     OW35556   9.429  14.781  11.880
44575SOL    HW135557   9.421  14.761  11.786
44575SOL    HW235558   9.500  14.724  11.910
44576SOL     OW35559   0.992  12.581  14.576
44576SOL    HW135560   0.983  12.632  14.496
44576SOL    HW235561   1.033  12.641  14.638
44577SOL     OW35562  14.646   8.689  14.201
44577SOL    HW135563  14.594   8.759  14.241
44577SOL    HW235564  14.585   8.615  14.195
44578SOL     OW35565  11.797   3.949   2.052
44578SOL    HW135566  11.855   3.996   2.111
44578SOL    HW235567  11.792   3.860   2.088
44579SOL     OW35568   3.541  10.258  13.225
44579SOL    HW135569   3.621  10.309  13.212
44579SOL    HW235570   3.481  10.319  13.268
44580SOL     OW35571   2.463   3.405   2.264
44580SOL    HW135572   2.442   3.357   2.344
44580SOL    HW235573   2.532   3.466   2.290
44581SOL     OW35574   6.362  14.573   5.499
44581SOL    HW135575   6.295  14.516   5.464
44581SOL    HW235576   6.444  14.541   5.461
44582SOL     OW35577   0.632  11.151   0.728
44582SOL    HW135578   0.721  11.186   0.721
44582SOL    HW235579   0.638  11.064   0.690
44583SOL     OW35580   1.708  11.271   7.777
44583SOL    HW135581   1.698  11.353   7.824
44583SOL    HW235582   1.699  11.294   7.685
44584SOL     OW35583   3.490   6.484   7.845
44584SOL    HW135584   3.436   6.558   7.872
44584SOL    HW235585   3.556   6.523   7.788
44585SOL     OW35586   7.356   0.931   6.530
44585SOL    HW135587   7.425   0.910   6.593
44585SOL    HW235588   7.403   0.958   6.451
44586SOL     OW35589  10.706  10.597   7.640
44586SOL    HW135590  10.798  10.621   7.630
44586SOL    HW235591  10.670  10.600   7.552
44587SOL     OW35592   2.546   1.373   2.885
44587SOL    HW135593   2.550   1.369   2.789
44587SOL    HW235594   2.564   1.284   2.913
44588SOL     OW35595   6.958   1.699  10.985
44588SOL    HW135596   6.999   1.719  11.069
44588SOL    HW235597   6.963   1.781  10.936
44589SOL     OW35598   0.332  10.205   5.223
44589SOL    HW135599   0.350  10.183   5.132
44589SOL    HW235600   0.367  10.293   5.235
44590SOL     OW35601  10.297   5.500   3.379
44590SOL    HW135602  10.339   5.446   3.446
44590SOL    HW235603  10.204   5.497   3.401
44591SOL     OW35604   1.447   2.232   7.914
44591SOL    HW135605   1.420   2.311   7.869
44591SOL    HW235606   1.484   2.263   7.997
44592SOL     OW35607  10.911   0.996   7.161
44592SOL    HW135608  10.855   0.922   7.142
44592SOL    HW235609  10.984   0.959   7.211
44593SOL     OW35610  13.336  11.659   2.616
44593SOL    HW135611  13.299  11.588   2.564
44593SOL    HW235612  13.398  11.702   2.558
44594SOL     OW35613   7.630  12.780  12.877
44594SOL    HW135614   7.614  12.760  12.969
44594SOL    HW235615   7.636  12.875  12.873
44595SOL     OW35616  10.291  14.592   8.545
44595SOL    HW135617  10.258  14.622   8.629
44595SOL    HW235618  10.305  14.498   8.557
44596SOL     OW35619  11.891  13.963   5.175
44596SOL    HW135620  11.939  13.913   5.110
44596SOL    HW235621  11.942  14.044   5.185
44597SOL     OW35622   5.302  13.896  11.677
44597SOL    HW135623   5.251  13.858  11.749
44597SOL    HW235624   5.236  13.920  11.612
44598SOL     OW35625  12.888  10.797   5.978
44598SOL    HW135626  12.828  10.853   6.028
44598SOL    HW235627  12.931  10.857   5.917
44599SOL     OW35628   6.249  14.413   3.209
44599SOL    HW135629   6.257  14.326   3.170
44599SOL    HW235630   6.219  14.397   3.298
44600SOL     OW35631  14.744   4.290   2.494
44600SOL    HW135632  14.789   4.347   2.431
44600SOL    HW235633  14.807   4.219   2.511
44601SOL     OW35634   2.556   0.519  14.348
44601SOL    HW135635   2.587   0.479  14.266
44601SOL    HW235636   2.480   0.570  14.323
44602SOL     OW35637  14.476   8.480   0.680
44602SOL    HW135638  14.391   8.463   0.721
44602SOL    HW235639  14.508   8.559   0.723
44603SOL     OW35640  14.111  12.184   2.845
44603SOL    HW135641  14.203  12.157   2.834
44603SOL    HW235642  14.066  12.105   2.874
44604SOL     OW35643   3.874   9.789  10.154
44604SOL    HW135644   3.907   9.854  10.092
44604SOL    HW235645   3.928   9.799  10.232
44605SOL     OW35646  13.671   9.935  11.028
44605SOL    HW135647  13.580   9.909  11.044
44605SOL    HW235648  13.710   9.860  10.984
44606SOL     OW35649   2.555   4.828   2.355
44606SOL    HW135650   2.537   4.776   2.433
44606SOL    HW235651   2.530   4.917   2.380
44607SOL     OW35652  13.868  10.957   9.516
44607SOL    HW135653  13.821  11.011   9.453
44607SOL    HW235654  13.815  10.878   9.525
44608SOL     OW35655  14.451  13.352   7.380
44608SOL    HW135656  14.374  13.296   7.394
44608SOL    HW235657  14.518  13.293   7.348
44609SOL     OW35658  11.906   6.493   7.027
44609SOL    HW135659  11.846   6.425   7.057
44609SOL    HW235660  11.977   6.446   6.983
44610SOL     OW35661   4.939   3.420  13.290
44610SOL    HW135662   4.876   3.388  13.225
44610SOL    HW235663   4.916   3.511  13.304
44611SOL     OW35664   3.631   4.818   6.756
44611SOL    HW135665   3.636   4.723   6.769
44611SOL    HW235666   3.712   4.840   6.710
44612SOL     OW35667   3.409   6.604   1.686
44612SOL    HW135668   3.502   6.626   1.691
44612SOL    HW235669   3.375   6.624   1.774
44613SOL     OW35670   1.383   5.782   7.450
44613SOL    HW135671   1.334   5.784   7.533
44613SOL    HW235672   1.398   5.689   7.434
44614SOL     OW35673   3.078  11.495  13.694
44614SOL    HW135674   3.137  11.552  13.646
44614SOL    HW235675   3.131  11.419  13.718
44615SOL     OW35676   9.585  11.677   2.747
44615SOL    HW135677   9.667  11.640   2.715
44615SOL    HW235678   9.584  11.766   2.713
44616SOL     OW35679   3.335   6.918  14.696
44616SOL    HW135680   3.420   6.889  14.728
44616SOL    HW235681   3.282   6.838  14.694
44617SOL     OW35682  12.164   9.942  11.221
44617SOL    HW135683  12.121   9.902  11.145
44617SOL    HW235684  12.196  10.026  11.189
44618SOL     OW35685  13.298   9.616  13.310
44618SOL    HW135686  13.208   9.632  13.283
44618SOL    HW235687  13.343   9.699  13.295
44619SOL     OW35688   6.925   2.387  12.005
44619SOL    HW135689   6.874   2.364  11.927
44619SOL    HW235690   6.923   2.482  12.008
44620SOL     OW35691   5.982   3.915   5.865
44620SOL    HW135692   5.963   3.917   5.959
44620SOL    HW235693   5.945   3.832   5.835
44621SOL     OW35694  10.884  14.570   1.507
44621SOL    HW135695  10.849  14.493   1.552
44621SOL    HW235696  10.819  14.589   1.440
44622SOL     OW35697   3.324   6.897  11.033
44622SOL    HW135698   3.414   6.929  11.025
44622SOL    HW235699   3.317   6.865  11.123
44623SOL     OW35700   8.408   5.241   6.444
44623SOL    HW135701   8.473   5.289   6.495
44623SOL    HW235702   8.450   5.227   6.359
44624SOL     OW35703   3.264  13.336  12.931
44624SOL    HW135704   3.219  13.380  13.004
44624SOL    HW235705   3.339  13.393  12.912
44625SOL     OW35706   7.414   6.421   0.471
44625SOL    HW135707   7.408   6.508   0.511
44625SOL    HW235708   7.345   6.370   0.512
44626SOL     OW35709  11.424   4.219   2.544
44626SOL    HW135710  11.391   4.178   2.465
44626SOL    HW235711  11.518   4.199   2.544
44627SOL     OW35712   7.792  11.149  10.264
44627SOL    HW135713   7.811  11.094  10.340
44627SOL    HW235714   7.857  11.124  10.198
44628SOL     OW35715   4.386   9.693   5.784
44628SOL    HW135716   4.429   9.763   5.834
44628SOL    HW235717   4.305   9.733   5.754
44629SOL     OW35718  11.841   3.193   6.439
44629SOL    HW135719  11.857   3.212   6.532
44629SOL    HW235720  11.861   3.276   6.395
44630SOL     OW35721  14.299   2.939  12.837
44630SOL    HW135722  14.205   2.929  12.849
44630SOL    HW235723  14.312   2.933  12.742
44631SOL     OW35724   3.021  14.519   8.482
44631SOL    HW135725   2.958  14.585   8.453
44631SOL    HW235726   2.993  14.496   8.570
44632SOL     OW35727   4.806   0.827  12.699
44632SOL    HW135728   4.766   0.822  12.786
44632SOL    HW235729   4.885   0.773  12.706
44633SOL     OW35730   8.692   7.445   8.127
44633SOL    HW135731   8.705   7.354   8.100
44633SOL    HW235732   8.751   7.495   8.071
44634SOL     OW35733   7.825  14.521   8.698
44634SOL    HW135734   7.852  14.452   8.759
44634SOL    HW235735   7.780  14.475   8.628
44635SOL     OW35736   0.857   7.636   8.083
44635SOL    HW135737   0.805   7.606   8.158
44635SOL    HW235738   0.798   7.625   8.008
44636SOL     OW35739  10.912   3.188   5.801
44636SOL    HW135740  10.905   3.106   5.753
44636SOL    HW235741  10.826   3.229   5.792
44637SOL     OW35742   0.051   2.939   7.711
44637SOL    HW135743   0.037   3.001   7.639
44637SOL    HW235744   0.110   2.873   7.675
44638SOL     OW35745  12.745  13.002  14.757
44638SOL    HW135746  12.659  12.960  14.759
44638SOL    HW235747  12.805  12.930  14.736
44639SOL     OW35748  11.664   7.987  11.029
44639SOL    HW135749  11.745   7.935  11.029
44639SOL    HW235750  11.608   7.944  10.964
44640SOL     OW35751   2.841  11.974  14.208
44640SOL    HW135752   2.790  12.044  14.168
44640SOL    HW235753   2.879  11.927  14.134
44641SOL     OW35754   5.801   0.363   7.160
44641SOL    HW135755   5.754   0.446   7.153
44641SOL    HW235756   5.768   0.311   7.087
44642SOL     OW35757  13.924   1.513   6.015
44642SOL    HW135758  13.918   1.440   5.952
44642SOL    HW235759  13.941   1.590   5.960
44643SOL     OW35760  12.882  13.457  10.076
44643SOL    HW135761  12.956  13.518  10.074
44643SOL    HW235762  12.901  13.398  10.149
44644SOL     OW35763   2.852   4.212   6.527
44644SOL    HW135764   2.890   4.290   6.489
44644SOL    HW235765   2.919   4.178   6.586
44645SOL     OW35766   0.945  14.325  13.861
44645SOL    HW135767   0.891  14.366  13.929
44645SOL    HW235768   0.923  14.232  13.867
44646SOL     OW35769   2.265   4.953   1.404
44646SOL    HW135770   2.170   4.952   1.394
44646SOL    HW235771   2.280   4.928   1.495
44647SOL     OW35772  12.903  10.826   1.145
44647SOL    HW135773  12.885  10.910   1.102
44647SOL    HW235774  12.845  10.825   1.221
44648SOL     OW35775   4.098  14.405  14.579
44648SOL    HW135776   4.038  14.340  14.542
44648SOL    HW235777   4.185  14.375  14.551
44649SOL     OW35778   1.049   4.279   9.201
44649SOL    HW135779   1.068   4.261   9.108
44649SOL    HW235780   1.127   4.323   9.233
44650SOL     OW35781   5.212   9.628  13.762
44650SOL    HW135782   5.129   9.619  13.808
44650SOL    HW235783   5.209   9.715  13.724
44651SOL     OW35784   9.539   7.979  14.113
44651SOL    HW135785   9.449   7.956  14.137
44651SOL    HW235786   9.549   8.070  14.143
44652SOL     OW35787   0.193  10.716  14.169
44652SOL    HW135788   0.263  10.650  14.173
44652SOL    HW235789   0.233  10.796  14.202
44653SOL     OW35790   9.698   9.728  14.773
44653SOL    HW135791   9.734   9.677  14.847
44653SOL    HW235792   9.626   9.778  14.812
44654SOL     OW35793   9.607   3.553  10.780
44654SOL    HW135794   9.518   3.540  10.748
44654SOL    HW235795   9.636   3.634  10.737
44655SOL     OW35796   8.191   6.221   7.915
44655SOL    HW135797   8.097   6.224   7.896
44655SOL    HW235798   8.200   6.266   7.999
44656SOL     OW35799   4.768  12.301   4.079
44656SOL    HW135800   4.828  12.351   4.135
44656SOL    HW235801   4.788  12.210   4.099
44657SOL     OW35802   7.876   7.808   7.145
44657SOL    HW135803   7.954   7.821   7.091
44657SOL    HW235804   7.874   7.883   7.204
44658SOL     OW35805   3.381   7.737  11.315
44658SOL    HW135806   3.304   7.695  11.354
44658SOL    HW235807   3.428   7.665  11.273
44659SOL     OW35808   1.191  14.024   4.259
44659SOL    HW135809   1.222  14.108   4.292
44659SOL    HW235810   1.213  13.961   4.327
44660SOL     OW35811   3.485   5.362  13.235
44660SOL    HW135812   3.528   5.441  13.204
44660SOL    HW235813   3.537   5.290  13.198
44661SOL     OW35814   6.290   9.098   4.610
44661SOL    HW135815   6.283   9.085   4.704
44661SOL    HW235816   6.366   9.156   4.599
44662SOL     OW35817   0.286   1.528   7.610
44662SOL    HW135818   0.364   1.508   7.558
44662SOL    HW235819   0.273   1.451   7.665
44663SOL     OW35820   9.319   0.556  11.581
44663SOL    HW135821   9.346   0.494  11.513
44663SOL    HW235822   9.399   0.576  11.629
44664SOL     OW35823   1.517  11.679  13.908
44664SOL    HW135824   1.583  11.626  13.864
44664SOL    HW235825   1.561  11.763  13.925
44665SOL     OW35826   7.690   7.783  13.708
44665SOL    HW135827   7.686   7.877  13.725
44665SOL    HW235828   7.772   7.755  13.749
44666SOL     OW35829   3.552   6.778   6.737
44666SOL    HW135830   3.609   6.836   6.686
44666SOL    HW235831   3.613   6.728   6.792
44667SOL     OW35832   7.724   5.943   9.372
44667SOL    HW135833   7.701   6.028   9.335
44667SOL    HW235834   7.675   5.880   9.318
44668SOL     OW35835   5.874  13.583   9.513
44668SOL    HW135836   5.846  13.491   9.513
44668SOL    HW235837   5.851  13.615   9.601
44669SOL     OW35838   9.063   7.816   8.802
44669SOL    HW135839   9.006   7.754   8.757
44669SOL    HW235840   9.002   7.874   8.848
44670SOL     OW35841   3.425  14.698  11.667
44670SOL    HW135842   3.410  14.772  11.607
44670SOL    HW235843   3.512  14.666  11.644
44671SOL     OW35844  10.225  10.345  12.235
44671SOL    HW135845  10.304  10.365  12.285
44671SOL    HW235846  10.164  10.312  12.300
44672SOL     OW35847   5.583   7.534   6.240
44672SOL    HW135848   5.507   7.476   6.253
44672SOL    HW235849   5.552   7.601   6.180
44673SOL     OW35850   3.849  12.888  10.978
44673SOL    HW135851   3.861  12.827  11.051
44673SOL    HW235852   3.763  12.864  10.942
44674SOL     OW35853  10.234  10.122   9.532
44674SOL    HW135854  10.203  10.128   9.442
44674SOL    HW235855  10.194  10.042   9.566
44675SOL     OW35856   5.027  14.053   7.084
44675SOL    HW135857   5.089  14.030   7.152
44675SOL    HW235858   5.058  14.137   7.050
44676SOL     OW35859   7.175  13.516   0.257
44676SOL    HW135860   7.233  13.481   0.190
44676SOL    HW235861   7.207  13.477   0.339
44677SOL     OW35862   3.917   0.923   8.638
44677SOL    HW135863   3.867   0.841   8.632
44677SOL    HW235864   3.943   0.942   8.548
44678SOL     OW35865  13.014   3.370  14.050
44678SOL    HW135866  13.078   3.394  14.117
44678SOL    HW235867  12.942   3.432  14.062
44679SOL     OW35868  13.977  10.371   9.292
44679SOL    HW135869  14.069  10.397   9.298
44679SOL    HW235870  13.936  10.441   9.240
44680SOL     OW35871   6.979   0.653  13.181
44680SOL    HW135872   7.034   0.652  13.102
44680SOL    HW235873   6.904   0.598  13.158
44681SOL     OW35874   7.462  14.203   7.621
44681SOL    HW135875   7.541  14.231   7.575
44681SOL    HW235876   7.491  14.133   7.679
44682SOL     OW35877   3.220   0.429   2.543
44682SOL    HW135878   3.259   0.374   2.476
44682SOL    HW235879   3.239   0.519   2.515
44683SOL     OW35880  10.814   5.671   9.395
44683SOL    HW135881  10.855   5.672   9.308
44683SOL    HW235882  10.782   5.581   9.405
44684SOL     OW35883  11.470   4.826   5.396
44684SOL    HW135884  11.486   4.873   5.478
44684SOL    HW235885  11.432   4.743   5.423
44685SOL     OW35886  10.951  12.764   5.785
44685SOL    HW135887  11.002  12.767   5.704
44685SOL    HW235888  10.991  12.694   5.836
44686SOL     OW35889   3.137  14.028  12.347
44686SOL    HW135890   3.161  13.938  12.367
44686SOL    HW235891   3.134  14.032  12.251
44687SOL     OW35892  13.653   4.991   7.030
44687SOL    HW135893  13.703   5.071   7.011
44687SOL    HW235894  13.573   5.022   7.072
44688SOL     OW35895   4.731  13.726   2.535
44688SOL    HW135896   4.644  13.711   2.499
44688SOL    HW235897   4.762  13.805   2.491
44689SOL     OW35898   1.844   8.382   6.456
44689SOL    HW135899   1.875   8.452   6.514
44689SOL    HW235900   1.861   8.302   6.505
44690SOL     OW35901  14.572   1.508   9.536
44690SOL    HW135902  14.606   1.463   9.458
44690SOL    HW235903  14.624   1.589   9.542
44691SOL     OW35904   0.950   4.425   8.834
44691SOL    HW135905   0.895   4.395   8.907
44691SOL    HW235906   1.018   4.358   8.826
44692SOL     OW35907  12.559   7.359   1.685
44692SOL    HW135908  12.611   7.281   1.665
44692SOL    HW235909  12.561   7.409   1.603
44693SOL     OW35910   6.137  13.141  12.419
44693SOL    HW135911   6.171  13.080  12.354
44693SOL    HW235912   6.043  13.126  12.420
44694SOL     OW35913  14.270   9.576  10.704
44694SOL    HW135914  14.189   9.626  10.694
44694SOL    HW235915  14.311   9.612  10.782
44695SOL     OW35916   6.296  13.643   6.311
44695SOL    HW135917   6.390  13.646   6.296
44695SOL    HW235918   6.261  13.716   6.260
44696SOL     OW35919   0.961  14.460   5.341
44696SOL    HW135920   0.920  14.502   5.266
44696SOL    HW235921   0.935  14.514   5.416
44697SOL     OW35922   3.653  14.204   6.284
44697SOL    HW135923   3.691  14.232   6.201
44697SOL    HW235924   3.705  14.128   6.310
44698SOL     OW35925  11.224  10.643   9.409
44698SOL    HW135926  11.130  10.624   9.399
44698SOL    HW235927  11.267  10.558   9.401
44699SOL     OW35928   1.560  14.247  12.878
44699SOL    HW135929   1.470  14.279  12.884
44699SOL    HW235930   1.557  14.180  12.810
44700SOL     OW35931   9.536   5.189  10.844
44700SOL    HW135932   9.601   5.174  10.775
44700SOL    HW235933   9.475   5.116  10.834
44701SOL     OW35934   4.740   1.654  10.529
44701SOL    HW135935   4.726   1.630  10.437
44701SOL    HW235936   4.686   1.732  10.542
44702SOL     OW35937   6.116  11.172   4.297
44702SOL    HW135938   6.184  11.130   4.244
44702SOL    HW235939   6.088  11.248   4.245
44703SOL     OW35940   7.541   7.391   5.782
44703SOL    HW135941   7.606   7.344   5.729
44703SOL    HW235942   7.495   7.447   5.718
44704SOL     OW35943  11.232  11.310   9.368
44704SOL    HW135944  11.318  11.337   9.401
44704SOL    HW235945  11.251  11.262   9.288
44705SOL     OW35946   7.841  13.067   9.154
44705SOL    HW135947   7.916  13.044   9.099
44705SOL    HW235948   7.776  12.998   9.136
44706SOL     OW35949  12.394  13.536   0.386
44706SOL    HW135950  12.382  13.459   0.330
44706SOL    HW235951  12.472  13.579   0.352
44707SOL     OW35952   4.063   5.912   3.743
44707SOL    HW135953   4.137   5.961   3.779
44707SOL    HW235954   4.005   5.978   3.705
44708SOL     OW35955  10.420   4.530  11.229
44708SOL    HW135956  10.496   4.560  11.279
44708SOL    HW235957  10.359   4.497  11.295
44709SOL     OW35958   1.515   0.645   7.440
44709SOL    HW135959   1.486   0.557   7.418
44709SOL    HW235960   1.486   0.699   7.366
44710SOL     OW35961   8.769  11.203  13.889
44710SOL    HW135962   8.848  11.245  13.855
44710SOL    HW235963   8.792  11.174  13.977
44711SOL     OW35964  14.715  12.441   8.964
44711SOL    HW135965  14.774  12.516   8.961
44711SOL    HW235966  14.664  12.448   8.883
44712SOL     OW35967   4.161  11.017   4.220
44712SOL    HW135968   4.072  11.046   4.241
44712SOL    HW235969   4.202  11.001   4.304
44713SOL     OW35970  11.332  12.144   2.938
44713SOL    HW135971  11.257  12.087   2.951
44713SOL    HW235972  11.295  12.232   2.935
44714SOL     OW35973   3.660   9.955  12.575
44714SOL    HW135974   3.668   9.863  12.598
44714SOL    HW235975   3.729   9.998  12.625
44715SOL     OW35976   4.721   1.718   0.664
44715SOL    HW135977   4.773   1.798   0.671
44715SOL    HW235978   4.696   1.713   0.572
44716SOL     OW35979  13.799   3.913  14.184
44716SOL    HW135980  13.837   3.837  14.228
44716SOL    HW235981  13.874   3.963  14.153
44717SOL     OW35982   8.224  13.938   2.422
44717SOL    HW135983   8.309  13.980   2.407
44717SOL    HW235984   8.167  14.009   2.451
44718SOL     OW35985   7.711   4.038   4.705
44718SOL    HW135986   7.623   4.040   4.743
44718SOL    HW235987   7.731   3.945   4.695
44719SOL     OW35988   7.477  14.700   2.085
44719SOL    HW135989   7.510  14.687   2.174
44719SOL    HW235990   7.496  14.791   2.066
44720SOL     OW35991   5.583   0.313   1.621
44720SOL    HW135992   5.518   0.255   1.582
44720SOL    HW235993   5.597   0.278   1.709
44721SOL     OW35994  10.764   0.336  13.021
44721SOL    HW135995  10.806   0.380  12.947
44721SOL    HW235996  10.696   0.397  13.049
44722SOL     OW35997   0.229  14.697   6.445
44722SOL    HW135998   0.314  14.676   6.405
44722SOL    HW235999   0.193  14.612   6.471
44723SOL     OW36000   1.358   4.862  12.854
44723SOL    HW136001   1.359   4.931  12.920
44723SOL    HW236002   1.365   4.781  12.904
44724SOL     OW36003   2.245   6.764   9.346
44724SOL    HW136004   2.279   6.678   9.322
44724SOL    HW236005   2.150   6.754   9.345
44725SOL     OW36006  11.372   7.148   7.475
44725SOL    HW136007  11.300   7.087   7.486
44725SOL    HW236008  11.417   7.118   7.396
44726SOL     OW36009   9.148   3.007   1.167
44726SOL    HW136010   9.172   3.046   1.083
44726SOL    HW236011   9.229   3.008   1.218
44727SOL     OW36012  10.360   7.037   7.147
44727SOL    HW136013  10.306   6.969   7.107
44727SOL    HW236014  10.326   7.119   7.113
44728SOL     OW36015   0.698   8.129   6.598
44728SOL    HW136016   0.759   8.081   6.655
44728SOL    HW236017   0.751   8.152   6.521
44729SOL     OW36018   3.226   4.125  12.781
44729SOL    HW136019   3.180   4.146  12.700
44729SOL    HW236020   3.319   4.123  12.756
44730SOL     OW36021   4.490   5.533  12.462
44730SOL    HW136022   4.490   5.629  12.461
44730SOL    HW236023   4.524   5.508  12.376
44731SOL     OW36024  11.317  12.513   5.918
44731SOL    HW136025  11.325  12.595   5.968
44731SOL    HW236026  11.396  12.465   5.938
44732SOL     OW36027   1.647   0.149   0.168
44732SOL    HW136028   1.680   0.136   0.257
44732SOL    HW236029   1.568   0.202   0.179
44733SOL     OW36030  13.396  13.032   3.481
44733SOL    HW136031  13.313  13.066   3.447
44733SOL    HW236032  13.370  12.972   3.551
44734SOL     OW36033  10.440   0.202   2.807
44734SOL    HW136034  10.384   0.181   2.881
44734SOL    HW236035  10.503   0.265   2.842
44735SOL     OW36036   4.357   3.855   1.781
44735SOL    HW136037   4.292   3.925   1.792
44735SOL    HW236038   4.431   3.899   1.739
44736SOL     OW36039  10.861   2.086   5.574
44736SOL    HW136040  10.850   2.082   5.669
44736SOL    HW236041  10.861   2.179   5.553
44737SOL     OW36042   1.313  12.511   5.661
44737SOL    HW136043   1.349  12.424   5.680
44737SOL    HW236044   1.388  12.562   5.630
44738SOL     OW36045   7.510   4.210   5.787
44738SOL    HW136046   7.515   4.301   5.759
44738SOL    HW236047   7.541   4.211   5.878
44739SOL     OW36048  14.502   4.716   2.927
44739SOL    HW136049  14.541   4.634   2.958
44739SOL    HW236050  14.468   4.696   2.840
44740SOL     OW36051   8.582   1.308  10.521
44740SOL    HW136052   8.507   1.335  10.574
44740SOL    HW236053   8.649   1.375  10.536
44741SOL     OW36054  12.197   2.345  14.697
44741SOL    HW136055  12.240   2.265  14.728
44741SOL    HW236056  12.120   2.313  14.649
44742SOL     OW36057  13.012   1.342   9.268
44742SOL    HW136058  12.972   1.378   9.347
44742SOL    HW236059  13.066   1.414   9.234
44743SOL     OW36060   7.673  12.287  12.919
44743SOL    HW136061   7.635  12.208  12.957
44743SOL    HW236062   7.645  12.358  12.977
44744SOL     OW36063  10.699  13.611  10.390
44744SOL    HW136064  10.763  13.630  10.459
44744SOL    HW236065  10.737  13.538  10.341
44745SOL     OW36066  11.119   9.434  14.515
44745SOL    HW136067  11.092   9.452  14.425
44745SOL    HW236068  11.067   9.358  14.541
44746SOL     OW36069  13.663   0.349   3.174
44746SOL    HW136070  13.575   0.368   3.141
44746SOL    HW236071  13.720   0.409   3.126
44747SOL     OW36072  11.878   9.107  13.959
44747SOL    HW136073  11.810   9.147  14.013
44747SOL    HW236074  11.896   9.023  14.001
44748SOL     OW36075   1.380   4.333   3.344
44748SOL    HW136076   1.472   4.338   3.319
44748SOL    HW236077   1.363   4.417   3.387
44749SOL     OW36078   7.086   5.074   7.934
44749SOL    HW136079   7.108   5.074   7.841
44749SOL    HW236080   7.077   4.981   7.957
44750SOL     OW36081  12.631   5.815  11.700
44750SOL    HW136082  12.667   5.844  11.783
44750SOL    HW236083  12.543   5.853  11.696
44751SOL     OW36084   9.549   8.271  13.549
44751SOL    HW136085   9.501   8.332  13.605
44751SOL    HW236086   9.631   8.255  13.595
44752SOL     OW36087   9.006   7.770   5.571
44752SOL    HW136088   9.020   7.841   5.634
44752SOL    HW236089   9.080   7.710   5.584
44753SOL     OW36090  12.827   7.844   7.025
44753SOL    HW136091  12.840   7.834   6.930
44753SOL    HW236092  12.733   7.832   7.037
44754SOL     OW36093   1.505   2.823  10.132
44754SOL    HW136094   1.432   2.829  10.195
44754SOL    HW236095   1.505   2.907  10.087
44755SOL     OW36096  12.699  12.447   2.405
44755SOL    HW136097  12.625  12.387   2.392
44755SOL    HW236098  12.753  12.405   2.471
44756SOL     OW36099   3.068   4.202  12.576
44756SOL    HW136100   3.102   4.117  12.547
44756SOL    HW236101   2.973   4.193  12.569
44757SOL     OW36102  13.324   2.121  10.821
44757SOL    HW136103  13.280   2.036  10.828
44757SOL    HW236104  13.406   2.109  10.869
44758SOL     OW36105  12.406   4.750   0.890
44758SOL    HW136106  12.406   4.709   0.977
44758SOL    HW236107  12.485   4.717   0.847
44759SOL     OW36108   0.312   2.157  14.459
44759SOL    HW136109   0.297   2.065  14.439
44759SOL    HW236110   0.284   2.167  14.550
44760SOL     OW36111  14.383   0.193   7.190
44760SOL    HW136112  14.346   0.249   7.257
44760SOL    HW236113  14.327   0.116   7.189
44761SOL     OW36114   5.427  10.965   9.401
44761SOL    HW136115   5.398  11.052   9.370
44761SOL    HW236116   5.372  10.947   9.477
44762SOL     OW36117   0.504   5.511  12.105
44762SOL    HW136118   0.561   5.539  12.033
44762SOL    HW236119   0.564   5.470  12.168
44763SOL     OW36120   4.587   3.119   8.940
44763SOL    HW136121   4.554   3.103   8.852
44763SOL    HW236122   4.682   3.122   8.929
44764SOL     OW36123   1.394   0.282  11.646
44764SOL    HW136124   1.343   0.346  11.596
44764SOL    HW236125   1.347   0.200  11.635
44765SOL     OW36126   9.849  10.241   8.807
44765SOL    HW136127   9.903  10.272   8.880
44765SOL    HW236128   9.837  10.148   8.826
44766SOL     OW36129   1.309   5.626   4.146
44766SOL    HW136130   1.275   5.577   4.221
44766SOL    HW236131   1.234   5.634   4.087
44767SOL     OW36132   2.503   3.013   5.541
44767SOL    HW136133   2.582   3.067   5.536
44767SOL    HW236134   2.433   3.070   5.509
44768SOL     OW36135   1.413   5.631  10.472
44768SOL    HW136136   1.414   5.543  10.435
44768SOL    HW236137   1.336   5.631  10.529
44769SOL     OW36138   5.655   1.913  11.328
44769SOL    HW136139   5.575   1.861  11.325
44769SOL    HW236140   5.695   1.899  11.242
44770SOL     OW36141   1.328   0.985   7.102
44770SOL    HW136142   1.404   1.022   7.148
44770SOL    HW236143   1.311   0.902   7.146
44771SOL     OW36144   1.223   7.232  10.070
44771SOL    HW136145   1.286   7.186  10.014
44771SOL    HW236146   1.155   7.262  10.010
44772SOL     OW36147   7.307  10.341   9.924
44772SOL    HW136148   7.219  10.368   9.900
44772SOL    HW236149   7.296  10.291  10.005
44773SOL     OW36150  12.616   2.549   1.553
44773SOL    HW136151  12.598   2.627   1.501
44773SOL    HW236152  12.678   2.498   1.501
44774SOL     OW36153   9.705  13.684   1.921
44774SOL    HW136154   9.682  13.661   2.011
44774SOL    HW236155   9.798  13.661   1.914
44775SOL     OW36156  11.840   6.710  11.847
44775SOL    HW136157  11.766   6.660  11.883
44775SOL    HW236158  11.802   6.763  11.778
44776SOL     OW36159   1.356   4.394  10.408
44776SOL    HW136160   1.433   4.441  10.442
44776SOL    HW236161   1.346   4.319  10.466
44777SOL     OW36162   8.980   2.566   9.419
44777SOL    HW136163   8.959   2.487   9.370
44777SOL    HW236164   8.902   2.582   9.473
44778SOL     OW36165  13.991  14.743  13.853
44778SOL    HW136166  14.083  14.767  13.866
44778SOL    HW236167  13.952  14.752  13.940
44779SOL     OW36168   2.497   8.837   0.250
44779SOL    HW136169   2.543   8.901   0.304
44779SOL    HW236170   2.552   8.829   0.171
44780SOL     OW36171  10.868   7.168   9.281
44780SOL    HW136172  10.778   7.150   9.256
44780SOL    HW236173  10.890   7.251   9.237
44781SOL     OW36174  12.579   9.804   0.914
44781SOL    HW136175  12.516   9.734   0.896
44781SOL    HW236176  12.629   9.812   0.832
44782SOL     OW36177   7.241   6.205   9.492
44782SOL    HW136178   7.211   6.283   9.539
44782SOL    HW236179   7.285   6.152   9.558
44783SOL     OW36180   0.282   4.160   7.610
44783SOL    HW136181   0.227   4.224   7.565
44783SOL    HW236182   0.311   4.101   7.540
44784SOL     OW36183   8.003  12.772   6.272
44784SOL    HW136184   7.921  12.818   6.286
44784SOL    HW236185   7.978  12.691   6.227
44785SOL     OW36186   6.691   1.522  12.083
44785SOL    HW136187   6.753   1.451  12.063
44785SOL    HW236188   6.661   1.504  12.172
44786SOL     OW36189   9.726   6.199   8.338
44786SOL    HW136190   9.741   6.145   8.260
44786SOL    HW236191   9.693   6.137   8.403
44787SOL     OW36192   2.052   2.945   7.775
44787SOL    HW136193   2.106   3.006   7.825
44787SOL    HW236194   2.106   2.867   7.764
44788SOL     OW36195   6.623  14.388   1.371
44788SOL    HW136196   6.671  14.441   1.307
44788SOL    HW236197   6.611  14.304   1.328
44789SOL     OW36198  14.434   1.215   8.583
44789SOL    HW136199  14.493   1.274   8.631
44789SOL    HW236200  14.401   1.269   8.511
44790SOL     OW36201   7.417   3.062   5.912
44790SOL    HW136202   7.364   2.983   5.920
44790SOL    HW236203   7.465   3.051   5.829
44791SOL     OW36204  14.445   6.504   6.120
44791SOL    HW136205  14.500   6.464   6.052
44791SOL    HW236206  14.446   6.441   6.192
44792SOL     OW36207   5.217   0.896   7.889
44792SOL    HW136208   5.223   0.866   7.979
44792SOL    HW236209   5.162   0.831   7.845
44793SOL     OW36210   6.128  13.333   7.244
44793SOL    HW136211   6.060  13.304   7.183
44793SOL    HW236212   6.091  13.410   7.287
44794SOL     OW36213  14.648  10.130   5.039
44794SOL    HW136214  14.696  10.167   5.113
44794SOL    HW236215  14.556  10.139   5.063
44795SOL     OW36216   0.431   0.698   1.862
44795SOL    HW136217   0.411   0.637   1.791
44795SOL    HW236218   0.467   0.774   1.818
44796SOL     OW36219   9.667   1.393   9.078
44796SOL    HW136220   9.619   1.465   9.038
44796SOL    HW236221   9.751   1.431   9.102
44797SOL     OW36222   5.849   5.935   8.211
44797SOL    HW136223   5.795   5.943   8.132
44797SOL    HW236224   5.935   5.967   8.185
44798SOL     OW36225   7.449  11.446   3.895
44798SOL    HW136226   7.429  11.539   3.891
44798SOL    HW236227   7.364  11.403   3.882
44799SOL     OW36228  11.666  13.694  14.839
44799SOL    HW136229  11.641  13.784  14.863
44799SOL    HW236230  11.632  13.640   0.035
44800SOL     OW36231   3.851  10.190   6.617
44800SOL    HW136232   3.841  10.115   6.557
44800SOL    HW236233   3.892  10.153   6.695
44801SOL     OW36234   4.326   6.370   9.309
44801SOL    HW136235   4.325   6.394   9.216
44801SOL    HW236236   4.380   6.436   9.350
44802SOL     OW36237   9.978   0.424  10.535
44802SOL    HW136238  10.018   0.496  10.583
44802SOL    HW236239   9.967   0.457  10.446
44803SOL     OW36240  13.399   3.233  12.633
44803SOL    HW136241  13.451   3.168  12.585
44803SOL    HW236242  13.308   3.206  12.619
44804SOL     OW36243   6.935  12.276   1.614
44804SOL    HW136244   6.957  12.244   1.702
44804SOL    HW236245   6.993  12.352   1.602
44805SOL     OW36246   4.314  12.500  13.989
44805SOL    HW136247   4.362  12.482  13.908
44805SOL    HW236248   4.283  12.591  13.979
44806SOL     OW36249   7.334   8.243   6.197
44806SOL    HW136250   7.327   8.244   6.293
44806SOL    HW236251   7.405   8.182   6.179
44807SOL     OW36252   7.787   4.586  14.599
44807SOL    HW136253   7.847   4.631  14.539
44807SOL    HW236254   7.774   4.648  14.670
44808SOL     OW36255  14.625   3.255   4.511
44808SOL    HW136256  14.602   3.185   4.450
44808SOL    HW236257  14.689   3.215   4.570
44809SOL     OW36258   2.230   1.584   9.026
44809SOL    HW136259   2.204   1.635   9.102
44809SOL    HW236260   2.302   1.634   8.987
44810SOL     OW36261   5.018  14.778  11.339
44810SOL    HW136262   5.052  14.766  11.251
44810SOL    HW236263   4.943  14.836  11.328
44811SOL     OW36264  14.013   3.339  11.318
44811SOL    HW136265  14.039   3.423  11.281
44811SOL    HW236266  13.919   3.334  11.303
44812SOL     OW36267   9.922   6.373   9.648
44812SOL    HW136268   9.860   6.377   9.576
44812SOL    HW236269   9.928   6.464   9.679
44813SOL     OW36270   7.009   3.213   1.167
44813SOL    HW136271   7.074   3.282   1.158
44813SOL    HW236272   6.945   3.248   1.229
44814SOL     OW36273  11.570   3.215   3.941
44814SOL    HW136274  11.493   3.230   3.886
44814SOL    HW236275  11.534   3.177   4.021
44815SOL     OW36276  14.738   6.088   1.412
44815SOL    HW136277  14.745   6.175   1.373
44815SOL    HW236278  14.652   6.056   1.382
44816SOL     OW36279  11.706   5.593   1.055
44816SOL    HW136280  11.748   5.512   1.084
44816SOL    HW236281  11.747   5.662   1.107
44817SOL     OW36282   9.806   0.345   2.787
44817SOL    HW136283   9.773   0.416   2.731
44817SOL    HW236284   9.899   0.341   2.767
44818SOL     OW36285  10.834  12.842   2.718
44818SOL    HW136286  10.762  12.808   2.771
44818SOL    HW236287  10.800  12.844   2.629
44819SOL     OW36288   9.408   5.295   5.257
44819SOL    HW136289   9.364   5.256   5.182
44819SOL    HW236290   9.456   5.370   5.221
44820SOL     OW36291   3.365   3.829   0.026
44820SOL    HW136292   3.330   3.762   0.085
44820SOL    HW236293   3.458   3.833   0.048
44821SOL     OW36294   6.424  11.419   1.396
44821SOL    HW136295   6.446  11.390   1.308
44821SOL    HW236296   6.465  11.505   1.404
44822SOL     OW36297  11.890   2.744  12.779
44822SOL    HW136298  11.874   2.663  12.827
44822SOL    HW236299  11.954   2.720  12.712
44823SOL     OW36300  12.198  13.289   9.293
44823SOL    HW136301  12.226  13.214   9.345
44823SOL    HW236302  12.195  13.361   9.357
44824SOL     OW36303   1.901   0.920   0.637
44824SOL    HW136304   1.996   0.911   0.628
44824SOL    HW236305   1.880   1.002   0.592
44825SOL     OW36306   2.439   0.901   6.211
44825SOL    HW136307   2.376   0.839   6.175
44825SOL    HW236308   2.395   0.986   6.208
44826SOL     OW36309   3.816  14.025   3.666
44826SOL    HW136310   3.803  13.993   3.755
44826SOL    HW236311   3.730  14.014   3.623
44827SOL     OW36312   9.040  11.228  14.184
44827SOL    HW136313   9.062  11.209  14.275
44827SOL    HW236314   9.123  11.253  14.144
44828SOL     OW36315   8.025   9.620  11.368
44828SOL    HW136316   8.110   9.594  11.333
44828SOL    HW236317   8.020   9.576  11.453
44829SOL     OW36318   5.755   4.635   4.266
44829SOL    HW136319   5.812   4.697   4.311
44829SOL    HW236320   5.814   4.577   4.219
44830SOL     OW36321   0.835   2.183   9.444
44830SOL    HW136322   0.765   2.209   9.504
44830SOL    HW236323   0.795   2.118   9.386
44831SOL     OW36324   5.490  12.872   5.426
44831SOL    HW136325   5.418  12.827   5.470
44831SOL    HW236326   5.516  12.941   5.487
44832SOL     OW36327  14.665  11.793   1.039
44832SOL    HW136328  14.639  11.882   1.017
44832SOL    HW236329  14.582  11.746   1.050
44833SOL     OW36330   5.551   8.903   4.763
44833SOL    HW136331   5.538   8.868   4.851
44833SOL    HW236332   5.607   8.839   4.720
44834SOL     OW36333   4.161  13.359   0.926
44834SOL    HW136334   4.219  13.302   0.975
44834SOL    HW236335   4.074  13.322   0.938
44835SOL     OW36336   6.419   1.442   4.719
44835SOL    HW136337   6.354   1.480   4.659
44835SOL    HW236338   6.367   1.404   4.790
44836SOL     OW36339   7.203   0.645  12.724
44836SOL    HW136340   7.132   0.589  12.693
44836SOL    HW236341   7.189   0.651  12.819
44837SOL     OW36342   2.977   7.385   3.897
44837SOL    HW136343   2.985   7.385   3.801
44837SOL    HW236344   2.920   7.459   3.917
44838SOL     OW36345  12.802   1.787   2.995
44838SOL    HW136346  12.746   1.809   2.920
44838SOL    HW236347  12.771   1.844   3.066
44839SOL     OW36348  10.347  11.881   4.201
44839SOL    HW136349  10.267  11.931   4.215
44839SOL    HW236350  10.343  11.811   4.266
44840SOL     OW36351   2.262  11.608   1.169
44840SOL    HW136352   2.314  11.535   1.137
44840SOL    HW236353   2.304  11.634   1.251
44841SOL     OW36354   0.763   6.702   8.828
44841SOL    HW136355   0.771   6.761   8.903
44841SOL    HW236356   0.853   6.681   8.803
44842SOL     OW36357   1.346   9.937   8.864
44842SOL    HW136358   1.280   9.875   8.896
44842SOL    HW236359   1.404   9.950   8.939
44843SOL     OW36360   0.297  10.083   9.119
44843SOL    HW136361   0.266  10.005   9.074
44843SOL    HW236362   0.389  10.066   9.138
44844SOL     OW36363  13.746   7.053   2.792
44844SOL    HW136364  13.713   6.983   2.849
44844SOL    HW236365  13.783   7.118   2.852
44845SOL     OW36366  11.369   2.254   4.377
44845SOL    HW136367  11.315   2.182   4.346
44845SOL    HW236368  11.371   2.244   4.473
44846SOL     OW36369   9.619   9.554   3.721
44846SOL    HW136370   9.702   9.527   3.760
44846SOL    HW236371   9.639   9.567   3.628
44847SOL     OW36372   2.126   2.771  11.424
44847SOL    HW136373   2.098   2.839  11.486
44847SOL    HW236374   2.219   2.759  11.443
44848SOL     OW36375   7.104   7.277  11.436
44848SOL    HW136376   7.034   7.216  11.413
44848SOL    HW236377   7.062   7.363  11.433
44849SOL     OW36378  11.287   0.907   7.651
44849SOL    HW136379  11.367   0.867   7.685
44849SOL    HW236380  11.223   0.835   7.649
44850SOL     OW36381   6.094  14.749   8.670
44850SOL    HW136382   6.117  14.842   8.666
44850SOL    HW236383   6.008  14.746   8.712
44851SOL     OW36384  13.355  14.318  12.846
44851SOL    HW136385  13.315  14.267  12.917
44851SOL    HW236386  13.313  14.284  12.767
44852SOL     OW36387   9.389   2.551   0.206
44852SOL    HW136388   9.360   2.641   0.189
44852SOL    HW236389   9.483   2.559   0.224
44853SOL     OW36390   3.368  12.702   7.773
44853SOL    HW136391   3.298  12.767   7.774
44853SOL    HW236392   3.344  12.640   7.705
44854SOL     OW36393  12.060   7.000  11.741
44854SOL    HW136394  12.074   7.043  11.657
44854SOL    HW236395  12.060   6.906  11.720
44855SOL     OW36396  10.236   2.771  13.571
44855SOL    HW136397  10.284   2.756  13.653
44855SOL    HW236398  10.154   2.724  13.583
44856SOL     OW36399   9.650   0.510   2.625
44856SOL    HW136400   9.558   0.502   2.649
44856SOL    HW236401   9.659   0.457   2.546
44857SOL     OW36402  11.405   8.795   7.259
44857SOL    HW136403  11.426   8.733   7.190
44857SOL    HW236404  11.422   8.881   7.220
44858SOL     OW36405   6.887   5.737   5.473
44858SOL    HW136406   6.823   5.785   5.526
44858SOL    HW236407   6.918   5.667   5.532
44859SOL     OW36408  13.533   2.934   9.015
44859SOL    HW136409  13.522   2.902   9.105
44859SOL    HW236410  13.446   2.966   8.991
44860SOL     OW36411   5.326   3.391   4.084
44860SOL    HW136412   5.330   3.343   4.166
44860SOL    HW236413   5.391   3.349   4.028
44861SOL     OW36414  10.075   1.979   0.399
44861SOL    HW136415  10.079   1.884   0.392
44861SOL    HW236416  10.066   1.996   0.493
44862SOL     OW36417   6.581   0.481   0.234
44862SOL    HW136418   6.624   0.552   0.187
44862SOL    HW236419   6.498   0.468   0.188
44863SOL     OW36420   3.519   9.314  13.510
44863SOL    HW136421   3.544   9.239  13.564
44863SOL    HW236422   3.582   9.382  13.534
44864SOL     OW36423  12.445  10.383  12.807
44864SOL    HW136424  12.466  10.351  12.719
44864SOL    HW236425  12.399  10.310  12.849
44865SOL     OW36426   9.625   3.172   9.508
44865SOL    HW136427   9.601   3.088   9.469
44865SOL    HW236428   9.684   3.148   9.580
44866SOL     OW36429   5.465  13.160   3.876
44866SOL    HW136430   5.395  13.154   3.812
44866SOL    HW236431   5.525  13.225   3.840
44867SOL     OW36432   9.658   6.049   6.426
44867SOL    HW136433   9.632   6.124   6.373
44867SOL    HW236434   9.591   5.982   6.407
44868SOL     OW36435   9.702   6.088   1.726
44868SOL    HW136436   9.691   5.994   1.711
44868SOL    HW236437   9.677   6.101   1.817
44869SOL     OW36438   6.679  14.083   7.211
44869SOL    HW136439   6.757  14.130   7.182
44869SOL    HW236440   6.620  14.085   7.135
44870SOL     OW36441  12.833   1.677   9.903
44870SOL    HW136442  12.761   1.617   9.885
44870SOL    HW236443  12.857   1.712   9.817
44871SOL     OW36444   9.750   7.700  12.702
44871SOL    HW136445   9.785   7.741  12.781
44871SOL    HW236446   9.795   7.744  12.630
44872SOL     OW36447  14.615  11.087   3.079
44872SOL    HW136448  14.702  11.114   3.049
44872SOL    HW236449  14.628  11.059   3.170
44873SOL     OW36450   3.899  11.874   5.761
44873SOL    HW136451   3.873  11.810   5.694
44873SOL    HW236452   3.838  11.859   5.833
44874SOL     OW36453   1.734  12.247  14.768
44874SOL    HW136454   1.719  12.162  14.807
44874SOL    HW236455   1.819  12.239  14.723
44875SOL     OW36456  11.356   2.096   6.890
44875SOL    HW136457  11.303   2.114   6.968
44875SOL    HW236458  11.300   2.041   6.835
44876SOL     OW36459  12.666   3.671  14.382
44876SOL    HW136460  12.631   3.688  14.470
44876SOL    HW236461  12.623   3.590  14.355
44877SOL     OW36462   5.829   8.675  13.664
44877SOL    HW136463   5.904   8.638  13.618
44877SOL    HW236464   5.756   8.663  13.603
44878SOL     OW36465  12.527   5.875   2.428
44878SOL    HW136466  12.610   5.853   2.469
44878SOL    HW236467  12.483   5.791   2.415
44879SOL     OW36468  11.231   4.089  13.213
44879SOL    HW136469  11.260   4.091  13.304
44879SOL    HW236470  11.305   4.127  13.164
44880SOL     OW36471  12.498  14.624   6.309
44880SOL    HW136472  12.456  14.581   6.383
44880SOL    HW236473  12.588  14.590   6.310
44881SOL     OW36474   9.977   5.038  14.541
44881SOL    HW136475   9.940   5.098  14.476
44881SOL    HW236476  10.067   5.069  14.553
44882SOL     OW36477   9.797   3.798   3.559
44882SOL    HW136478   9.850   3.734   3.512
44882SOL    HW236479   9.707   3.771   3.542
44883SOL     OW36480   1.936  11.311   0.317
44883SOL    HW136481   1.972  11.306   0.406
44883SOL    HW236482   1.909  11.222   0.297
44884SOL     OW36483  14.512  13.876   1.315
44884SOL    HW136484  14.522  13.950   1.255
44884SOL    HW236485  14.542  13.910   1.400
44885SOL     OW36486   5.818   3.418   4.916
44885SOL    HW136487   5.835   3.374   4.832
44885SOL    HW236488   5.733   3.460   4.904
44886SOL     OW36489   6.433  12.126  10.616
44886SOL    HW136490   6.400  12.091  10.699
44886SOL    HW236491   6.466  12.213  10.637
44887SOL     OW36492   3.313   8.543   4.459
44887SOL    HW136493   3.408   8.529   4.459
44887SOL    HW236494   3.299   8.615   4.398
44888SOL     OW36495   2.966  12.437   8.097
44888SOL    HW136496   2.926  12.490   8.167
44888SOL    HW236497   2.978  12.499   8.025
44889SOL     OW36498   2.321  12.962  14.266
44889SOL    HW136499   2.285  12.906  14.335
44889SOL    HW236500   2.367  13.031  14.313
44890SOL     OW36501   8.279   5.815   4.924
44890SOL    HW136502   8.284   5.776   5.011
44890SOL    HW236503   8.354   5.779   4.878
44891SOL     OW36504  10.967  12.974   5.495
44891SOL    HW136505  11.040  12.912   5.498
44891SOL    HW236506  10.960  13.008   5.584
44892SOL     OW36507   7.815   1.377  13.406
44892SOL    HW136508   7.737   1.411  13.362
44892SOL    HW236509   7.812   1.282  13.392
44893SOL     OW36510   3.975   3.266   2.948
44893SOL    HW136511   3.978   3.180   2.907
44893SOL    HW236512   4.062   3.278   2.988
44894SOL     OW36513   6.611   9.069   3.743
44894SOL    HW136514   6.611   9.057   3.648
44894SOL    HW236515   6.563   9.150   3.757
44895SOL     OW36516  12.548   7.645  14.666
44895SOL    HW136517  12.456   7.637  14.642
44895SOL    HW236518  12.548   7.690  14.750
44896SOL     OW36519  12.618   5.403   1.907
44896SOL    HW136520  12.608   5.497   1.926
44896SOL    HW236521  12.589   5.359   1.987
44897SOL     OW36522  14.462   2.632   5.793
44897SOL    HW136523  14.373   2.647   5.825
44897SOL    HW236524  14.495   2.558   5.845
44898SOL     OW36525   7.188  14.590   6.681
44898SOL    HW136526   7.111  14.637   6.711
44898SOL    HW236527   7.165  14.559   6.593
44899SOL     OW36528  11.549   4.980   9.988
44899SOL    HW136529  11.631   5.014  10.026
44899SOL    HW236530  11.548   4.888  10.013
44900SOL     OW36531   2.753   0.170   4.119
44900SOL    HW136532   2.756   0.155   4.024
44900SOL    HW236533   2.844   0.188   4.143
44901SOL     OW36534   1.427   2.641   8.868
44901SOL    HW136535   1.365   2.633   8.795
44901SOL    HW236536   1.418   2.732   8.897
44902SOL     OW36537   7.144  10.574   9.902
44902SOL    HW136538   7.119  10.578   9.994
44902SOL    HW236539   7.061  10.581   9.854
44903SOL     OW36540   6.940  14.183  12.953
44903SOL    HW136541   6.938  14.276  12.976
44903SOL    HW236542   7.027  14.171  12.913
44904SOL     OW36543   7.764   1.434   7.437
44904SOL    HW136544   7.826   1.436   7.364
44904SOL    HW236545   7.746   1.526   7.456
44905SOL     OW36546  14.456   3.708  11.988
44905SOL    HW136547  14.409   3.638  11.944
44905SOL    HW236548  14.399   3.785  11.979
44906SOL     OW36549  10.140   4.566   5.284
44906SOL    HW136550  10.044   4.565   5.283
44906SOL    HW236551  10.163   4.641   5.338
44907SOL     OW36552  11.467   0.804   8.828
44907SOL    HW136553  11.389   0.751   8.812
44907SOL    HW236554  11.540   0.750   8.798
44908SOL     OW36555   5.455  10.399  12.398
44908SOL    HW136556   5.365  10.424  12.421
44908SOL    HW236557   5.445  10.338  12.324
44909SOL     OW36558   4.488  13.694   2.396
44909SOL    HW136559   4.481  13.599   2.403
44909SOL    HW236560   4.425  13.719   2.328
44910SOL     OW36561  12.169   1.777   7.167
44910SOL    HW136562  12.230   1.822   7.225
44910SOL    HW236563  12.104   1.738   7.226
44911SOL     OW36564  12.079   7.640   8.819
44911SOL    HW136565  11.983   7.634   8.821
44911SOL    HW236566  12.106   7.567   8.763
44912SOL     OW36567   0.050  13.525   5.428
44912SOL    HW136568  14.849  13.532   5.371
44912SOL    HW236569   0.124  13.544   5.371
44913SOL     OW36570  14.554   6.624   2.997
44913SOL    HW136571  14.629   6.578   3.034
44913SOL    HW236572  14.577   6.717   3.005
44914SOL     OW36573  13.965   8.040  10.319
44914SOL    HW136574  14.058   8.045  10.339
44914SOL    HW236575  13.961   8.033  10.224
44915SOL     OW36576   5.769   0.412   8.951
44915SOL    HW136577   5.838   0.346   8.942
44915SOL    HW236578   5.740   0.429   8.861
44916SOL     OW36579   2.315   1.015   7.426
44916SOL    HW136580   2.373   0.939   7.430
44916SOL    HW236581   2.320   1.054   7.513
44917SOL     OW36582  10.033   5.762   1.808
44917SOL    HW136583   9.986   5.791   1.730
44917SOL    HW236584  10.114   5.813   1.807
44918SOL     OW36585  11.371   6.183  11.409
44918SOL    HW136586  11.362   6.248  11.340
44918SOL    HW236587  11.347   6.100  11.368
44919SOL     OW36588   1.390  10.410   1.431
44919SOL    HW136589   1.462  10.349   1.447
44919SOL    HW236590   1.328  10.360   1.378
44920SOL     OW36591   2.657   4.060   9.911
44920SOL    HW136592   2.708   3.989   9.950
44920SOL    HW236593   2.566   4.032   9.921
44921SOL     OW36594   7.524   4.792   4.511
44921SOL    HW136595   7.455   4.826   4.454
44921SOL    HW236596   7.480   4.774   4.594
44922SOL     OW36597  14.327   0.377   6.967
44922SOL    HW136598  14.342   0.317   7.040
44922SOL    HW236599  14.338   0.322   6.889
44923SOL     OW36600  11.473  12.692  12.079
44923SOL    HW136601  11.456  12.720  11.989
44923SOL    HW236602  11.435  12.761  12.133
44924SOL     OW36603   8.872   7.576   7.957
44924SOL    HW136604   8.853   7.665   7.986
44924SOL    HW236605   8.869   7.581   7.861
44925SOL     OW36606  10.129   8.007   4.998
44925SOL    HW136607  10.036   7.986   5.008
44925SOL    HW236608  10.159   7.950   4.927
44926SOL     OW36609  12.798   8.156  12.895
44926SOL    HW136610  12.890   8.159  12.869
44926SOL    HW236611  12.753   8.210  12.831
44927SOL     OW36612   8.710  11.792   9.856
44927SOL    HW136613   8.799  11.761   9.872
44927SOL    HW236614   8.664  11.716   9.822
44928SOL     OW36615  13.407  14.515   6.320
44928SOL    HW136616  13.397  14.420   6.313
44928SOL    HW236617  13.472  14.528   6.388
44929SOL     OW36618   2.109   8.210  11.146
44929SOL    HW136619   2.191   8.164  11.124
44929SOL    HW236620   2.102   8.203  11.241
44930SOL     OW36621   6.026   7.115   7.759
44930SOL    HW136622   6.076   7.130   7.839
44930SOL    HW236623   6.078   7.052   7.709
44931SOL     OW36624   5.103   3.921   1.387
44931SOL    HW136625   5.121   4.005   1.346
44931SOL    HW236626   5.022   3.935   1.435
44932SOL     OW36627   9.261   6.701   5.164
44932SOL    HW136628   9.327   6.652   5.116
44932SOL    HW236629   9.258   6.787   5.121
44933SOL     OW36630   3.690   9.676  12.636
44933SOL    HW136631   3.632   9.636  12.571
44933SOL    HW236632   3.658   9.644  12.720
44934SOL     OW36633   5.269   5.574   6.243
44934SOL    HW136634   5.291   5.508   6.178
44934SOL    HW236635   5.175   5.564   6.257
44935SOL     OW36636   2.546   2.800   2.340
44935SOL    HW136637   2.561   2.893   2.360
44935SOL    HW236638   2.545   2.796   2.245
44936SOL     OW36639   9.016   7.616  10.323
44936SOL    HW136640   8.953   7.624  10.252
44936SOL    HW236641   8.974   7.559  10.387
44937SOL     OW36642   5.487  12.536  11.743
44937SOL    HW136643   5.574  12.497  11.753
44937SOL    HW236644   5.455  12.546  11.833
44938SOL     OW36645  12.342   8.021  13.703
44938SOL    HW136646  12.256   8.013  13.663
44938SOL    HW236647  12.400   8.041  13.629
44939SOL     OW36648   3.464   3.658   5.822
44939SOL    HW136649   3.388   3.655   5.880
44939SOL    HW236650   3.514   3.735   5.851
44940SOL     OW36651   6.182   1.202  11.520
44940SOL    HW136652   6.098   1.162  11.543
44940SOL    HW236653   6.236   1.190  11.598
44941SOL     OW36654   6.595   6.462   0.380
44941SOL    HW136655   6.577   6.536   0.438
44941SOL    HW236656   6.517   6.455   0.325
44942SOL     OW36657   1.313   1.593   7.380
44942SOL    HW136658   1.364   1.658   7.332
44942SOL    HW236659   1.367   1.514   7.378
44943SOL     OW36660  10.241   2.989   1.497
44943SOL    HW136661  10.175   3.021   1.436
44943SOL    HW236662  10.203   2.909   1.534
44944SOL     OW36663  11.621  11.000   7.114
44944SOL    HW136664  11.542  11.000   7.060
44944SOL    HW236665  11.600  10.943   7.188
44945SOL     OW36666  13.345   3.749  12.424
44945SOL    HW136667  13.429   3.720  12.460
44945SOL    HW236668  13.324   3.828  12.473
44946SOL     OW36669   8.312   6.883   2.513
44946SOL    HW136670   8.249   6.903   2.443
44946SOL    HW236671   8.396   6.913   2.479
44947SOL     OW36672   4.511   4.573   7.921
44947SOL    HW136673   4.495   4.661   7.956
44947SOL    HW236674   4.596   4.547   7.958
44948SOL     OW36675   3.237   0.239   4.123
44948SOL    HW136676   3.295   0.171   4.156
44948SOL    HW236677   3.285   0.278   4.049
44949SOL     OW36678  11.569  11.833   1.974
44949SOL    HW136679  11.564  11.829   1.879
44949SOL    HW236680  11.649  11.882   1.992
44950SOL     OW36681  12.737   5.674   4.448
44950SOL    HW136682  12.731   5.678   4.544
44950SOL    HW236683  12.829   5.696   4.430
44951SOL     OW36684   2.416   3.478  12.388
44951SOL    HW136685   2.403   3.567  12.421
44951SOL    HW236686   2.327   3.445  12.375
44952SOL     OW36687  14.213   9.860   7.872
44952SOL    HW136688  14.223   9.765   7.865
44952SOL    HW236689  14.133   9.872   7.923
44953SOL     OW36690   4.805   5.823   4.049
44953SOL    HW136691   4.786   5.755   3.985
44953SOL    HW236692   4.785   5.782   4.134
44954SOL     OW36693   6.536   8.302   1.744
44954SOL    HW136694   6.447   8.269   1.729
44954SOL    HW236695   6.552   8.361   1.670
44955SOL     OW36696   6.044  10.294   2.821
44955SOL    HW136697   6.126  10.343   2.826
44955SOL    HW236698   6.070  10.204   2.805
44956SOL     OW36699   6.072  11.723   1.706
44956SOL    HW136700   6.116  11.667   1.770
44956SOL    HW236701   6.143  11.757   1.651
44957SOL     OW36702   2.841   3.104  10.717
44957SOL    HW136703   2.871   3.143  10.799
44957SOL    HW236704   2.842   3.177  10.655
44958SOL     OW36705   7.894   3.137  13.644
44958SOL    HW136706   7.905   3.065  13.582
44958SOL    HW236707   7.917   3.215  13.593
44959SOL     OW36708   6.080   0.659   4.828
44959SOL    HW136709   6.076   0.701   4.914
44959SOL    HW236710   6.048   0.570   4.843
44960SOL     OW36711   2.068   3.367  10.763
44960SOL    HW136712   1.974   3.350  10.774
44960SOL    HW236713   2.075   3.462  10.760
44961SOL     OW36714  14.364  12.886   5.086
44961SOL    HW136715  14.307  12.916   5.157
44961SOL    HW236716  14.307  12.885   5.009
44962SOL     OW36717   4.465   8.219  13.860
44962SOL    HW136718   4.536   8.244  13.919
44962SOL    HW236719   4.503   8.153  13.802
44963SOL     OW36720   9.820   9.565   4.589
44963SOL    HW136721   9.854   9.602   4.670
44963SOL    HW236722   9.829   9.470   4.601
44964SOL     OW36723  10.242   0.495   8.578
44964SOL    HW136724  10.168   0.505   8.519
44964SOL    HW236725  10.317   0.480   8.520
44965SOL     OW36726   7.254   8.951   8.321
44965SOL    HW136727   7.348   8.963   8.315
44965SOL    HW236728   7.231   8.981   8.409
44966SOL     OW36729   2.267   4.647   2.655
44966SOL    HW136730   2.253   4.575   2.716
44966SOL    HW236731   2.339   4.617   2.599
44967SOL     OW36732   2.024   0.376   0.167
44967SOL    HW136733   2.032   0.351   0.075
44967SOL    HW236734   2.030   0.294   0.215
44968SOL     OW36735   0.776   3.180  11.399
44968SOL    HW136736   0.828   3.150  11.473
44968SOL    HW236737   0.834   3.240  11.351
44969SOL     OW36738   7.307   7.899   8.607
44969SOL    HW136739   7.251   7.953   8.662
44969SOL    HW236740   7.393   7.940   8.612
44970SOL     OW36741   0.552   0.740   5.677
44970SOL    HW136742   0.542   0.809   5.611
44970SOL    HW236743   0.613   0.678   5.637
44971SOL     OW36744  11.408  10.275   4.745
44971SOL    HW136745  11.415  10.370   4.756
44971SOL    HW236746  11.419  10.239   4.833
44972SOL     OW36747   2.402   3.394   3.280
44972SOL    HW136748   2.464   3.392   3.352
44972SOL    HW236749   2.394   3.487   3.257
44973SOL     OW36750   4.957   9.322   3.656
44973SOL    HW136751   4.909   9.378   3.716
44973SOL    HW236752   5.035   9.296   3.704
44974SOL     OW36753   0.099   8.335   3.347
44974SOL    HW136754   0.065   8.405   3.291
44974SOL    HW236755   0.046   8.258   3.325
44975SOL     OW36756  14.076  12.018   0.889
44975SOL    HW136757  14.112  11.940   0.932
44975SOL    HW236758  14.066  11.992   0.797
44976SOL     OW36759   9.029  14.488   4.325
44976SOL    HW136760   8.963  14.522   4.385
44976SOL    HW236761   9.051  14.402   4.360
44977SOL     OW36762   0.867  12.476   9.902
44977SOL    HW136763   0.819  12.428   9.835
44977SOL    HW236764   0.799  12.511   9.959
44978SOL     OW36765   6.714   5.003  13.966
44978SOL    HW136766   6.735   4.920  13.924
44978SOL    HW236767   6.640   5.037  13.916
44979SOL     OW36768   6.591   3.729   3.417
44979SOL    HW136769   6.539   3.657   3.381
44979SOL    HW236770   6.621   3.778   3.341
44980SOL     OW36771   3.746  12.308  14.265
44980SOL    HW136772   3.698  12.377  14.311
44980SOL    HW236773   3.833  12.308  14.306
44981SOL     OW36774  11.177  10.015   4.938
44981SOL    HW136775  11.185   9.931   4.894
44981SOL    HW236776  11.129   9.996   5.018
44982SOL     OW36777   5.918  13.660   9.260
44982SOL    HW136778   6.005  13.620   9.254
44982SOL    HW236779   5.886  13.635   9.346
44983SOL     OW36780   7.167   8.362   3.951
44983SOL    HW136781   7.254   8.355   3.991
44983SOL    HW236782   7.107   8.338   4.021
44984SOL     OW36783  13.501   4.186   6.223
44984SOL    HW136784  13.484   4.141   6.140
44984SOL    HW236785  13.593   4.169   6.241
44985SOL     OW36786   5.205   6.728   8.606
44985SOL    HW136787   5.180   6.800   8.548
44985SOL    HW236788   5.251   6.666   8.550
44986SOL     OW36789   8.694   7.657   6.903
44986SOL    HW136790   8.625   7.717   6.875
44986SOL    HW236791   8.652   7.571   6.906
44987SOL     OW36792   6.146  13.353   1.214
44987SOL    HW136793   6.217  13.414   1.234
44987SOL    HW236794   6.073  13.382   1.269
44988SOL     OW36795   4.265   4.939  10.485
44988SOL    HW136796   4.314   5.003  10.537
44988SOL    HW236797   4.201   4.902  10.547
44989SOL     OW36798   1.589  14.621   0.693
44989SOL    HW136799   1.584  14.672   0.612
44989SOL    HW236800   1.533  14.669   0.755
44990SOL     OW36801   5.252   8.806   9.383
44990SOL    HW136802   5.189   8.739   9.408
44990SOL    HW236803   5.309   8.763   9.319
44991SOL     OW36804  10.454   6.352  10.559
44991SOL    HW136805  10.408   6.280  10.602
44991SOL    HW236806  10.461   6.420  10.627
44992SOL     OW36807  10.341   8.844   8.464
44992SOL    HW136808  10.398   8.911   8.503
44992SOL    HW236809  10.297   8.890   8.392
44993SOL     OW36810  13.308   5.509  10.322
44993SOL    HW136811  13.345   5.428  10.359
44993SOL    HW236812  13.324   5.502  10.228
44994SOL     OW36813   2.319   2.609  14.780
44994SOL    HW136814   2.280   2.641  14.699
44994SOL    HW236815   2.255   2.628  14.848
44995SOL     OW36816   9.925  12.481   7.289
44995SOL    HW136817   9.921  12.468   7.384
44995SOL    HW236818  10.016  12.506   7.272
44996SOL     OW36819  13.217   0.444   2.165
44996SOL    HW136820  13.135   0.437   2.116
44996SOL    HW236821  13.193   0.492   2.244
44997SOL     OW36822   9.207   9.036   2.069
44997SOL    HW136823   9.180   9.098   2.001
44997SOL    HW236824   9.127   9.019   2.119
44998SOL     OW36825   7.765   8.144   1.913
44998SOL    HW136826   7.857   8.139   1.886
44998SOL    HW236827   7.764   8.205   1.986
44999SOL     OW36828   1.451  14.869   2.537
44999SOL    HW136829   1.474  14.822   2.617
44999SOL    HW236830   1.467  14.806   2.467
45000SOL     OW36831   6.343   1.852   9.582
45000SOL    HW136832   6.398   1.830   9.506
45000SOL    HW236833   6.272   1.905   9.545
45001SOL     OW36834   4.345   0.409  13.232
45001SOL    HW136835   4.422   0.454  13.200
45001SOL    HW236836   4.283   0.412  13.159
45002SOL     OW36837   8.490   6.672  11.369
45002SOL    HW136838   8.483   6.618  11.290
45002SOL    HW236839   8.584   6.686  11.380
45003SOL     OW36840   1.690  14.202  13.721
45003SOL    HW136841   1.741  14.236  13.795
45003SOL    HW236842   1.703  14.267  13.652
45004SOL     OW36843   9.315  10.022   7.254
45004SOL    HW136844   9.383   9.977   7.205
45004SOL    HW236845   9.286  10.093   7.196
45005SOL     OW36846  10.310  10.991   4.902
45005SOL    HW136847  10.403  10.971   4.892
45005SOL    HW236848  10.289  11.046   4.826
45006SOL     OW36849   4.501  14.475   6.729
45006SOL    HW136850   4.443  14.425   6.671
45006SOL    HW236851   4.544  14.538   6.671
45007SOL     OW36852   9.927   4.292   6.752
45007SOL    HW136853   9.981   4.315   6.676
45007SOL    HW236854   9.961   4.207   6.781
45008SOL     OW36855  11.474   3.090  11.897
45008SOL    HW136856  11.535   3.024  11.864
45008SOL    HW236857  11.503   3.172  11.857
45009SOL     OW36858   4.196   6.171   1.089
45009SOL    HW136859   4.236   6.220   1.161
45009SOL    HW236860   4.223   6.219   1.010
45010SOL     OW36861   0.771   2.268   4.804
45010SOL    HW136862   0.807   2.355   4.787
45010SOL    HW236863   0.725   2.277   4.888
45011SOL     OW36864   3.644   1.294   1.497
45011SOL    HW136865   3.561   1.316   1.538
45011SOL    HW236866   3.630   1.308   1.403
45012SOL     OW36867   3.040  13.816   1.785
45012SOL    HW136868   2.960  13.771   1.756
45012SOL    HW236869   3.076  13.759   1.853
45013SOL     OW36870   7.502   7.592  14.662
45013SOL    HW136871   7.567   7.558  14.601
45013SOL    HW236872   7.543   7.669  14.701
45014SOL     OW36873  13.109   5.807  11.961
45014SOL    HW136874  13.091   5.714  11.948
45014SOL    HW236875  13.048   5.852  11.902
45015SOL     OW36876   0.754   6.427   4.567
45015SOL    HW136877   0.830   6.419   4.624
45015SOL    HW236878   0.733   6.520   4.569
45016SOL     OW36879   9.980  10.842   7.627
45016SOL    HW136880  10.072  10.866   7.640
45016SOL    HW236881   9.963  10.860   7.535
45017SOL     OW36882   5.451   6.716   7.762
45017SOL    HW136883   5.358   6.694   7.775
45017SOL    HW236884   5.456   6.810   7.780
45018SOL     OW36885  11.692   6.466   0.724
45018SOL    HW136886  11.623   6.410   0.759
45018SOL    HW236887  11.723   6.421   0.645
45019SOL     OW36888   2.681   4.226   7.537
45019SOL    HW136889   2.719   4.311   7.515
45019SOL    HW236890   2.590   4.245   7.559
45020SOL     OW36891   2.142   4.366   4.896
45020SOL    HW136892   2.132   4.272   4.911
45020SOL    HW236893   2.130   4.377   4.802
45021SOL     OW36894   1.068  11.419   4.085
45021SOL    HW136895   1.129  11.440   4.155
45021SOL    HW236896   1.020  11.500   4.069
45022SOL     OW36897   2.968   8.257   6.255
45022SOL    HW136898   2.969   8.245   6.350
45022SOL    HW236899   3.015   8.339   6.240
45023SOL     OW36900   9.595   9.542   9.991
45023SOL    HW136901   9.599   9.572   9.900
45023SOL    HW236902   9.631   9.453   9.988
45024SOL     OW36903   0.478   9.474   5.284
45024SOL    HW136904   0.398   9.506   5.243
45024SOL    HW236905   0.487   9.383   5.254
45025SOL     OW36906   9.354   5.882   0.366
45025SOL    HW136907   9.299   5.945   0.320
45025SOL    HW236908   9.418   5.935   0.413
45026SOL     OW36909   3.334   3.992   8.263
45026SOL    HW136910   3.264   3.928   8.279
45026SOL    HW236911   3.404   3.966   8.323
45027SOL     OW36912   4.364   7.189   8.848
45027SOL    HW136913   4.454   7.156   8.843
45027SOL    HW236914   4.323   7.134   8.914
45028SOL     OW36915  10.746   1.152   7.648
45028SOL    HW136916  10.732   1.216   7.718
45028SOL    HW236917  10.763   1.069   7.694
45029SOL     OW36918   5.205   1.792  12.879
45029SOL    HW136919   5.132   1.741  12.844
45029SOL    HW236920   5.186   1.882  12.853
45030SOL     OW36921   0.324   2.938  13.357
45030SOL    HW136922   0.286   2.851  13.344
45030SOL    HW236923   0.402   2.923  13.410
45031SOL     OW36924  10.237   5.087   1.289
45031SOL    HW136925  10.158   5.054   1.245
45031SOL    HW236926  10.211   5.173   1.322
45032SOL     OW36927   5.110   5.064  12.929
45032SOL    HW136928   5.089   5.157  12.913
45032SOL    HW236929   5.136   5.061  13.021
45033SOL     OW36930  11.743   0.841   5.385
45033SOL    HW136931  11.665   0.871   5.431
45033SOL    HW236932  11.723   0.854   5.292
45034SOL     OW36933  10.714  12.468   2.943
45034SOL    HW136934  10.785  12.481   3.006
45034SOL    HW236935  10.635  12.489   2.992
45035SOL     OW36936  12.484  10.471   9.605
45035SOL    HW136937  12.495  10.400   9.542
45035SOL    HW236938  12.525  10.439   9.685
45036SOL     OW36939   6.514   8.523  14.402
45036SOL    HW136940   6.509   8.428  14.408
45036SOL    HW236941   6.562   8.539  14.320
45037SOL     OW36942   8.962   4.945   3.431
45037SOL    HW136943   8.893   4.884   3.458
45037SOL    HW236944   8.925   4.991   3.355
45038SOL     OW36945   3.481   8.068   9.034
45038SOL    HW136946   3.451   8.039   8.947
45038SOL    HW236947   3.422   8.139   9.057
45039SOL     OW36948  11.604  11.348   6.320
45039SOL    HW136949  11.555  11.268   6.341
45039SOL    HW236950  11.537  11.411   6.294
45040SOL     OW36951   9.025   4.353  13.589
45040SOL    HW136952   8.972   4.314  13.520
45040SOL    HW236953   9.079   4.281  13.622
45041SOL     OW36954   6.412   6.175  12.738
45041SOL    HW136955   6.410   6.261  12.695
45041SOL    HW236956   6.477   6.126  12.688
45042SOL     OW36957   6.250  11.336   1.847
45042SOL    HW136958   6.278  11.245   1.851
45042SOL    HW236959   6.229  11.359   1.937
45043SOL     OW36960  10.131  12.670  14.168
45043SOL    HW136961  10.061  12.648  14.106
45043SOL    HW236962  10.113  12.615  14.245
45044SOL     OW36963   4.237   7.031  13.333
45044SOL    HW136964   4.295   6.956  13.343
45044SOL    HW236965   4.280   7.101  13.382
45045SOL     OW36966   2.598   6.020   6.972
45045SOL    HW136967   2.660   6.004   7.043
45045SOL    HW236968   2.517   5.979   7.001
45046SOL     OW36969  13.592   2.833   6.824
45046SOL    HW136970  13.534   2.774   6.873
45046SOL    HW236971  13.655   2.774   6.782
45047SOL     OW36972   5.264  14.202   2.115
45047SOL    HW136973   5.204  14.134   2.144
45047SOL    HW236974   5.276  14.185   2.021
45048SOL     OW36975   4.964   7.589   2.351
45048SOL    HW136976   4.914   7.612   2.273
45048SOL    HW236977   5.047   7.557   2.317
45049SOL     OW36978   8.935   0.023  12.226
45049SOL    HW136979   8.991   0.097  12.201
45049SOL    HW236980   8.901  14.866  12.142
45050SOL     OW36981  10.744   3.718  10.303
45050SOL    HW136982  10.779   3.793  10.254
45050SOL    HW236983  10.790   3.642  10.266
45051SOL     OW36984  12.170   5.923   4.303
45051SOL    HW136985  12.206   5.949   4.218
45051SOL    HW236986  12.224   5.968   4.367
45052SOL     OW36987   5.839  10.702   1.910
45052SOL    HW136988   5.798  10.643   1.847
45052SOL    HW236989   5.767  10.736   1.962
45053SOL     OW36990   9.174  10.945   7.722
45053SOL    HW136991   9.227  11.023   7.704
45053SOL    HW236992   9.181  10.892   7.642
45054SOL     OW36993   5.440   4.720   6.992
45054SOL    HW136994   5.452   4.629   7.018
45054SOL    HW236995   5.346   4.727   6.973
45055SOL     OW36996  13.928   7.025  14.718
45055SOL    HW136997  13.839   7.056  14.733
45055SOL    HW236998  13.962   7.083  14.649
45056SOL     OW36999   7.459   8.677   0.696
45056SOL    HW137000   7.404   8.743   0.654
45056SOL    HW237001   7.521   8.651   0.629
45057SOL     OW37002   8.216   0.671   5.064
45057SOL    HW137003   8.181   0.685   5.152
45057SOL    HW237004   8.171   0.592   5.033
45058SOL     OW37005   8.811   1.965  14.246
45058SOL    HW137006   8.831   2.015  14.167
45058SOL    HW237007   8.802   2.031  14.315
45059SOL     OW37008  10.161   1.221   9.456
45059SOL    HW137009  10.255   1.233   9.449
45059SOL    HW237010  10.141   1.233   9.549
45060SOL     OW37011   1.812  11.524   0.195
45060SOL    HW137012   1.752  11.466   0.147
45060SOL    HW237013   1.838  11.473   0.271
45061SOL     OW37014   6.684   0.208   4.021
45061SOL    HW137015   6.608   0.170   4.065
45061SOL    HW237016   6.699   0.152   3.945
45062SOL     OW37017  10.916   5.853  14.158
45062SOL    HW137018  10.948   5.763  14.163
45062SOL    HW237019  10.957   5.897  14.233
45063SOL     OW37020  13.298   2.881   0.951
45063SOL    HW137021  13.356   2.870   0.876
45063SOL    HW237022  13.242   2.804   0.950
45064SOL     OW37023   7.215  10.120   2.219
45064SOL    HW137024   7.262  10.055   2.271
45064SOL    HW237025   7.280  10.153   2.157
45065SOL     OW37026   3.345   6.235   6.591
45065SOL    HW137027   3.374   6.326   6.588
45065SOL    HW237028   3.422   6.185   6.617
45066SOL     OW37029  13.513   7.888   0.427
45066SOL    HW137030  13.449   7.948   0.465
45066SOL    HW237031  13.516   7.911   0.335
45067SOL     OW37032  13.559   6.477   8.021
45067SOL    HW137033  13.573   6.475   7.926
45067SOL    HW237034  13.463   6.479   8.031
45068SOL     OW37035  10.513   8.013   1.064
45068SOL    HW137036  10.507   7.963   1.145
45068SOL    HW237037  10.558   8.094   1.089
45069SOL     OW37038   5.091  14.367   8.355
45069SOL    HW137039   5.184  14.383   8.343
45069SOL    HW237040   5.053  14.377   8.267
45070SOL     OW37041  13.271   2.945   2.725
45070SOL    HW137042  13.366   2.944   2.711
45070SOL    HW237043  13.243   2.855   2.704
45071SOL     OW37044   2.615   2.193   0.053
45071SOL    HW137045   2.649   2.147  14.851
45071SOL    HW237046   2.581   2.275   0.019
45072SOL     OW37047   2.012  12.803   2.822
45072SOL    HW137048   1.970  12.736   2.769
45072SOL    HW237049   1.945  12.830   2.885
45073SOL     OW37050   5.848  10.068   3.658
45073SOL    HW137051   5.874   9.988   3.703
45073SOL    HW237052   5.807  10.038   3.577
45074SOL     OW37053   6.664   7.175  13.746
45074SOL    HW137054   6.622   7.248  13.702
45074SOL    HW237055   6.601   7.103  13.741
45075SOL     OW37056  12.806   2.905   4.274
45075SOL    HW137057  12.890   2.870   4.302
45075SOL    HW237058  12.823   2.996   4.253
45076SOL     OW37059   0.926   4.968   9.213
45076SOL    HW137060   0.889   5.042   9.260
45076SOL    HW237061   0.921   4.895   9.274
45077SOL     OW37062   6.366   3.792   1.616
45077SOL    HW137063   6.432   3.848   1.655
45077SOL    HW237064   6.393   3.782   1.525
45078SOL     OW37065  12.725   5.053   9.731
45078SOL    HW137066  12.676   4.973   9.751
45078SOL    HW237067  12.756   5.084   9.817
45079SOL     OW37068   6.404  10.524   5.389
45079SOL    HW137069   6.497  10.507   5.400
45079SOL    HW237070   6.395  10.618   5.405
45080SOL     OW37071   2.658   4.673  12.502
45080SOL    HW137072   2.713   4.709  12.432
45080SOL    HW237073   2.578   4.725  12.499
45081SOL     OW37074   0.638   3.451   6.586
45081SOL    HW137075   0.646   3.372   6.640
45081SOL    HW237076   0.654   3.421   6.497
45082SOL     OW37077   5.528  12.370   5.499
45082SOL    HW137078   5.560  12.353   5.410
45082SOL    HW237079   5.493  12.286   5.529
45083SOL     OW37080   7.373  14.618  11.480
45083SOL    HW137081   7.322  14.551  11.526
45083SOL    HW237082   7.398  14.680  11.549
45084SOL     OW37083   2.308  12.421   6.706
45084SOL    HW137084   2.268  12.476   6.773
45084SOL    HW237085   2.320  12.336   6.749
45085SOL     OW37086   0.057   1.881   1.808
45085SOL    HW137087   0.142   1.844   1.833
45085SOL    HW237088  14.875   1.860   1.882
45086SOL     OW37089  14.531   0.763  14.161
45086SOL    HW137090  14.532   0.855  14.187
45086SOL    HW237091  14.440   0.744  14.142
45087SOL     OW37092   5.485   7.115   1.539
45087SOL    HW137093   5.437   7.170   1.477
45087SOL    HW237094   5.443   7.029   1.531
45088SOL     OW37095   8.080   6.432   2.864
45088SOL    HW137096   8.024   6.500   2.828
45088SOL    HW237097   8.070   6.440   2.959
45089SOL     OW37098   8.651   6.202  11.096
45089SOL    HW137099   8.635   6.195  11.002
45089SOL    HW237100   8.567   6.227  11.134
45090SOL     OW37101   9.205   6.098  10.251
45090SOL    HW137102   9.131   6.044  10.279
45090SOL    HW237103   9.281   6.058  10.294
45091SOL     OW37104  13.326   9.150   3.291
45091SOL    HW137105  13.353   9.239   3.313
45091SOL    HW237106  13.389   9.121   3.225
45092SOL     OW37107   5.216   2.114   8.821
45092SOL    HW137108   5.157   2.047   8.786
45092SOL    HW237109   5.299   2.098   8.777
45093SOL     OW37110   8.512   4.005  10.313
45093SOL    HW137111   8.558   4.012  10.229
45093SOL    HW237112   8.424   3.975  10.290
45094SOL     OW37113   6.638  11.887   6.824
45094SOL    HW137114   6.712  11.826   6.813
45094SOL    HW237115   6.669  11.968   6.785
45095SOL     OW37116  14.442   1.199   9.012
45095SOL    HW137117  14.533   1.204   8.985
45095SOL    HW237118  14.393   1.187   8.930
45096SOL     OW37119   2.546  12.000   6.937
45096SOL    HW137120   2.552  12.095   6.938
45096SOL    HW237121   2.632  11.970   6.966
45097SOL     OW37122   7.243   2.169   1.386
45097SOL    HW137123   7.172   2.222   1.353
45097SOL    HW237124   7.290   2.227   1.446
45098SOL     OW37125   5.391   4.278   0.142
45098SOL    HW137126   5.373   4.321   0.058
45098SOL    HW237127   5.309   4.285   0.191
45099SOL     OW37128  10.145   7.723   2.658
45099SOL    HW137129  10.147   7.818   2.665
45099SOL    HW237130  10.146   7.706   2.564
45100SOL     OW37131   0.653   5.840   4.986
45100SOL    HW137132   0.640   5.884   5.070
45100SOL    HW237133   0.701   5.904   4.933
45101SOL     OW37134   3.819   2.607   2.545
45101SOL    HW137135   3.761   2.676   2.576
45101SOL    HW237136   3.800   2.532   2.601
45102SOL     OW37137   7.072   7.766   6.273
45102SOL    HW137138   7.168   7.771   6.264
45102SOL    HW237139   7.057   7.755   6.366
45103SOL     OW37140   7.112   6.247   8.075
45103SOL    HW137141   7.075   6.185   8.013
45103SOL    HW237142   7.116   6.330   8.028
45104SOL     OW37143   0.846   6.254   7.193
45104SOL    HW137144   0.856   6.215   7.280
45104SOL    HW237145   0.897   6.335   7.197
45105SOL     OW37146   6.960   0.670  10.463
45105SOL    HW137147   6.981   0.609  10.533
45105SOL    HW237148   6.866   0.684  10.470
45106SOL     OW37149   3.331   2.158  13.155
45106SOL    HW137150   3.355   2.250  13.166
45106SOL    HW237151   3.411   2.110  13.179
45107SOL     OW37152  12.005  14.438  14.763
45107SOL    HW137153  11.957  14.503  14.814
45107SOL    HW237154  11.944  14.365  14.753
45108SOL     OW37155   7.779   1.513   7.778
45108SOL    HW137156   7.853   1.473   7.732
45108SOL    HW237157   7.816   1.543   7.861
45109SOL     OW37158   9.626  14.115   3.132
45109SOL    HW137159   9.711  14.139   3.097
45109SOL    HW237160   9.616  14.022   3.112
45110SOL     OW37161  11.642   5.910  12.969
45110SOL    HW137162  11.583   5.977  13.004
45110SOL    HW237163  11.606   5.889  12.883
45111SOL     OW37164  14.272   0.138  11.701
45111SOL    HW137165  14.187   0.103  11.725
45111SOL    HW237166  14.328   0.061  11.693
45112SOL     OW37167  10.375  12.515  10.810
45112SOL    HW137168  10.306  12.456  10.779
45112SOL    HW237169  10.361  12.520  10.904
45113SOL     OW37170   0.637   7.470   6.554
45113SOL    HW137171   0.702   7.539   6.563
45113SOL    HW237172   0.557   7.507   6.593
45114SOL     OW37173  11.985  11.687  11.000
45114SOL    HW137174  12.000  11.593  11.005
45114SOL    HW237175  11.899  11.695  10.957
45115SOL     OW37176   2.922   6.724   0.829
45115SOL    HW137177   2.935   6.741   0.736
45115SOL    HW237178   2.835   6.685   0.835
45116SOL     OW37179  11.882   6.494  10.770
45116SOL    HW137180  11.788   6.509  10.758
45116SOL    HW237181  11.908   6.560  10.834
45117SOL     OW37182  10.061  12.465   1.071
45117SOL    HW137183  10.138  12.519   1.049
45117SOL    HW237184  10.089  12.413   1.146
45118SOL     OW37185   2.075   6.175  11.881
45118SOL    HW137186   2.058   6.081  11.887
45118SOL    HW237187   2.144   6.183  11.815
45119SOL     OW37188  14.317   0.239   6.731
45119SOL    HW137189  14.248   0.200   6.678
45119SOL    HW237190  14.370   0.164   6.760
45120SOL     OW37191   6.042   5.985  10.295
45120SOL    HW137192   6.087   6.057  10.339
45120SOL    HW237193   5.976   5.956  10.358
45121SOL     OW37194   8.256   4.426   2.378
45121SOL    HW137195   8.202   4.427   2.457
45121SOL    HW237196   8.327   4.365   2.398
45122SOL     OW37197   0.046  14.347   1.857
45122SOL    HW137198   0.039  14.412   1.927
45122SOL    HW237199  14.863  14.276   1.885
45123SOL     OW37200  13.636   3.732   9.130
45123SOL    HW137201  13.623   3.694   9.043
45123SOL    HW237202  13.662   3.822   9.113
45124SOL     OW37203   4.286   5.647   8.275
45124SOL    HW137204   4.274   5.638   8.180
45124SOL    HW237205   4.213   5.702   8.303
45125SOL     OW37206  11.877   0.037   6.227
45125SOL    HW137207  11.949   0.021   6.288
45125SOL    HW237208  11.887  14.845   6.160
45126SOL     OW37209   2.438   9.259   0.514
45126SOL    HW137210   2.346   9.248   0.538
45126SOL    HW237211   2.466   9.336   0.563
45127SOL     OW37212   9.058  14.217   3.872
45127SOL    HW137213   9.048  14.220   3.777
45127SOL    HW237214   9.013  14.137   3.899
45128SOL     OW37215   8.470   6.132   8.223
45128SOL    HW137216   8.498   6.164   8.309
45128SOL    HW237217   8.548   6.139   8.168
45129SOL     OW37218   9.096  13.431  12.145
45129SOL    HW137219   9.104  13.512  12.195
45129SOL    HW237220   9.170  13.432  12.085
45130SOL     OW37221   7.493   7.808   8.093
45130SOL    HW137222   7.543   7.861   8.031
45130SOL    HW237223   7.424   7.767   8.040
45131SOL     OW37224   1.800  11.209   1.139
45131SOL    HW137225   1.834  11.211   1.050
45131SOL    HW237226   1.875  11.231   1.194
45132SOL     OW37227   9.524  12.624  13.495
45132SOL    HW137228   9.511  12.603  13.588
45132SOL    HW237229   9.478  12.708  13.483
45133SOL     OW37230   9.453  11.085   2.198
45133SOL    HW137231   9.423  11.176   2.201
45133SOL    HW237232   9.401  11.045   2.129
45134SOL     OW37233  10.788   4.267  13.981
45134SOL    HW137234  10.837   4.187  13.961
45134SOL    HW237235  10.703   4.236  14.012
45135SOL     OW37236  13.521   9.375   3.631
45135SOL    HW137237  13.596   9.322   3.604
45135SOL    HW237238  13.500   9.344   3.719
45136SOL     OW37239   2.236   0.081   9.450
45136SOL    HW137240   2.299   0.137   9.495
45136SOL    HW237241   2.222   0.123   9.365
45137SOL     OW37242   4.013   1.667   4.942
45137SOL    HW137243   4.075   1.604   4.905
45137SOL    HW237244   4.031   1.748   4.895
45138SOL     OW37245   9.533   8.395   4.654
45138SOL    HW137246   9.457   8.345   4.684
45138SOL    HW237247   9.571   8.431   4.734
45139SOL     OW37248   8.927   7.657  14.702
45139SOL    HW137249   8.840   7.660  14.741
45139SOL    HW237250   8.938   7.743  14.661
45140SOL     OW37251  14.557   7.296   5.333
45140SOL    HW137252  14.576   7.386   5.306
45140SOL    HW237253  14.533   7.303   5.425
45141SOL     OW37254   4.865   7.797   2.779
45141SOL    HW137255   4.925   7.723   2.771
45141SOL    HW237256   4.837   7.796   2.870
45142SOL     OW37257   6.811   3.539  14.141
45142SOL    HW137258   6.865   3.568  14.214
45142SOL    HW237259   6.845   3.586  14.065
45143SOL     OW37260  14.604   8.918   8.790
45143SOL    HW137261  14.659   8.974   8.845
45143SOL    HW237262  14.594   8.838   8.840
45144SOL     OW37263   1.656  10.117   6.569
45144SOL    HW137264   1.622  10.102   6.657
45144SOL    HW237265   1.593  10.074   6.511
45145SOL     OW37266   3.383   2.086  10.899
45145SOL    HW137267   3.394   2.017  10.965
45145SOL    HW237268   3.429   2.052  10.822
45146SOL     OW37269  13.892   3.256   4.626
45146SOL    HW137270  13.855   3.320   4.687
45146SOL    HW237271  13.957   3.209   4.678
45147SOL     OW37272   0.180   0.477  13.255
45147SOL    HW137273   0.170   0.448  13.345
45147SOL    HW237274   0.141   0.564  13.253
45148SOL     OW37275  13.947   9.412   5.784
45148SOL    HW137276  13.953   9.376   5.872
45148SOL    HW237277  13.979   9.502   5.791
45149SOL     OW37278   0.533   4.543  11.168
45149SOL    HW137279   0.523   4.587  11.083
45149SOL    HW237280   0.543   4.450  11.146
45150SOL     OW37281   9.950   3.901   9.946
45150SOL    HW137282   9.969   3.928   9.856
45150SOL    HW237283   9.870   3.848   9.940
45151SOL     OW37284   9.215  13.482  11.152
45151SOL    HW137285   9.170  13.554  11.195
45151SOL    HW237286   9.147  13.436  11.103
45152SOL     OW37287  14.775  12.045   0.425
45152SOL    HW137288  14.727  12.087   0.496
45152SOL    HW237289  14.783  12.113   0.358
45153SOL     OW37290  11.521   5.364   9.744
45153SOL    HW137291  11.559   5.300   9.684
45153SOL    HW237292  11.472   5.424   9.687
45154SOL     OW37293   1.677  12.507   8.233
45154SOL    HW137294   1.766  12.534   8.255
45154SOL    HW237295   1.653  12.561   8.158
45155SOL     OW37296  12.347   8.553  10.685
45155SOL    HW137297  12.376   8.585  10.600
45155SOL    HW237298  12.266   8.602  10.703
45156SOL     OW37299  13.946  10.026   2.959
45156SOL    HW137300  14.039  10.010   2.970
45156SOL    HW237301  13.940  10.119   2.940
45157SOL     OW37302   8.978  10.995   1.777
45157SOL    HW137303   8.973  10.993   1.872
45157SOL    HW237304   9.048  10.935   1.755
45158SOL     OW37305   3.236  13.111   7.983
45158SOL    HW137306   3.166  13.086   8.043
45158SOL    HW237307   3.245  13.206   7.995
45159SOL     OW37308   9.540   1.599   2.968
45159SOL    HW137309   9.555   1.513   3.007
45159SOL    HW237310   9.543   1.583   2.873
45160SOL     OW37311   1.224   8.428  14.736
45160SOL    HW137312   1.201   8.355  14.793
45160SOL    HW237313   1.252   8.497  14.796
45161SOL     OW37314   5.995   4.135   1.609
45161SOL    HW137315   5.984   4.211   1.552
45161SOL    HW237316   6.057   4.079   1.563
45162SOL     OW37317  14.090  10.689   1.683
45162SOL    HW137318  14.144  10.725   1.754
45162SOL    HW237319  14.109  10.595   1.684
45163SOL     OW37320  13.973  13.692   0.375
45163SOL    HW137321  13.997  13.725   0.461
45163SOL    HW237322  14.047  13.714   0.319
45164SOL     OW37323  12.164   2.268   0.425
45164SOL    HW137324  12.233   2.212   0.391
45164SOL    HW237325  12.204   2.313   0.499
45165SOL     OW37326  14.328   9.988   1.552
45165SOL    HW137327  14.335   9.897   1.581
45165SOL    HW237328  14.280   9.982   1.469
45166SOL     OW37329   3.119   8.363  14.308
45166SOL    HW137330   3.123   8.269  14.291
45166SOL    HW237331   3.094   8.369  14.400
45167SOL     OW37332  11.890   1.558   2.189
45167SOL    HW137333  11.853   1.632   2.237
45167SOL    HW237334  11.825   1.489   2.198
45168SOL     OW37335   0.027   0.309  11.429
45168SOL    HW137336   0.030   0.328  11.523
45168SOL    HW237337  14.817   0.338  11.400
45169SOL     OW37338   4.560   5.829  11.870
45169SOL    HW137339   4.578   5.918  11.839
45169SOL    HW237340   4.634   5.777  11.838
45170SOL     OW37341  10.543  13.257   5.973
45170SOL    HW137342  10.569  13.323   5.908
45170SOL    HW237343  10.546  13.174   5.924
45171SOL     OW37344   7.940   9.327  14.011
45171SOL    HW137345   7.886   9.261  13.968
45171SOL    HW237346   7.939   9.302  14.103
45172SOL     OW37347   6.130  14.492  13.908
45172SOL    HW137348   6.106  14.569  13.857
45172SOL    HW237349   6.209  14.518  13.956
45173SOL     OW37350  13.691  14.418  14.875
45173SOL    HW137351  13.622  14.480  14.853
45173SOL    HW237352  13.653  14.332  14.857
45174SOL     OW37353   0.111   9.049   8.423
45174SOL    HW137354   0.137   9.141   8.415
45174SOL    HW237355   0.058   9.032   8.345
45175SOL     OW37356   3.297   9.369   4.823
45175SOL    HW137357   3.233   9.341   4.888
45175SOL    HW237358   3.379   9.326   4.849
45176SOL     OW37359   7.734   1.179   2.162
45176SOL    HW137360   7.739   1.262   2.210
45176SOL    HW237361   7.670   1.127   2.210
45177SOL     OW37362   3.848   4.997  10.609
45177SOL    HW137363   3.870   5.090  10.603
45177SOL    HW237364   3.764   4.989  10.563
45178SOL     OW37365   6.848  11.076   8.760
45178SOL    HW137366   6.801  11.001   8.796
45178SOL    HW237367   6.854  11.058   8.666
45179SOL     OW37368   8.372   4.808  12.343
45179SOL    HW137369   8.348   4.733  12.398
45179SOL    HW237370   8.468   4.806  12.340
45180SOL     OW37371   0.322   0.400  10.058
45180SOL    HW137372   0.228   0.407  10.078
45180SOL    HW237373   0.334   0.309  10.032
45181SOL     OW37374   2.294   6.956   9.137
45181SOL    HW137375   2.283   6.911   9.221
45181SOL    HW237376   2.348   6.896   9.085
45182SOL     OW37377  12.808   1.974   4.991
45182SOL    HW137378  12.879   2.019   5.035
45182SOL    HW237379  12.822   1.992   4.898
45183SOL     OW37380   1.893  11.922   8.925
45183SOL    HW137381   1.830  11.850   8.927
45183SOL    HW237382   1.923  11.929   9.015
45184SOL     OW37383   5.264  10.307  12.216
45184SOL    HW137384   5.212  10.379  12.182
45184SOL    HW237385   5.231  10.230  12.169
45185SOL     OW37386  10.627  10.653  14.219
45185SOL    HW137387  10.610  10.678  14.310
45185SOL    HW237388  10.588  10.566  14.210
45186SOL     OW37389   3.976  12.939   9.484
45186SOL    HW137390   4.054  12.986   9.455
45186SOL    HW237391   3.907  13.006   9.484
45187SOL     OW37392   6.764  11.906   8.719
45187SOL    HW137393   6.749  11.924   8.811
45187SOL    HW237394   6.684  11.862   8.690
45188SOL     OW37395  12.241  10.185  12.439
45188SOL    HW137396  12.274  10.145  12.520
45188SOL    HW237397  12.276  10.131  12.369
45189SOL     OW37398  10.991  11.858   8.161
45189SOL    HW137399  10.928  11.911   8.210
45189SOL    HW237400  11.076  11.885   8.196
45190SOL     OW37401  10.014   7.013  13.534
45190SOL    HW137402  10.080   6.966  13.484
45190SOL    HW237403  10.035   7.105  13.521
45191SOL     OW37404   7.142  12.560   3.697
45191SOL    HW137405   7.192  12.641   3.712
45191SOL    HW237406   7.187  12.517   3.624
45192SOL     OW37407   4.479  10.806  14.572
45192SOL    HW137408   4.488  10.901  14.566
45192SOL    HW237409   4.544  10.779  14.636
45193SOL     OW37410   5.445   3.175   9.173
45193SOL    HW137411   5.353   3.150   9.180
45193SOL    HW237412   5.481   3.116   9.107
45194SOL     OW37413  10.039  10.490   9.822
45194SOL    HW137414   9.980  10.521   9.890
45194SOL    HW237415  10.059  10.567   9.770
45195SOL     OW37416   6.940   8.026   3.842
45195SOL    HW137417   6.858   8.070   3.821
45195SOL    HW237418   6.962   8.056   3.930
45196SOL     OW37419   1.778   3.963   4.601
45196SOL    HW137420   1.800   3.889   4.545
45196SOL    HW237421   1.718   3.927   4.667
45197SOL     OW37422   2.803   8.522   4.651
45197SOL    HW137423   2.743   8.474   4.594
45197SOL    HW237424   2.886   8.523   4.602
45198SOL     OW37425  14.583   8.872  13.462
45198SOL    HW137426  14.660   8.835  13.506
45198SOL    HW237427  14.561   8.949  13.515
45199SOL     OW37428   1.791  10.136  12.148
45199SOL    HW137429   1.884  10.147  12.127
45199SOL    HW237430   1.776  10.042  12.143
45200SOL     OW37431   9.790   4.565   4.706
45200SOL    HW137432   9.851   4.639   4.713
45200SOL    HW237433   9.796   4.539   4.614
45201SOL     OW37434   1.990   0.239   0.933
45201SOL    HW137435   1.937   0.318   0.926
45201SOL    HW237436   1.954   0.179   0.868
45202SOL     OW37437  13.718   2.094  11.760
45202SOL    HW137438  13.640   2.048  11.730
45202SOL    HW237439  13.688   2.185  11.773
45203SOL     OW37440   1.624  14.264   9.593
45203SOL    HW137441   1.586  14.218   9.668
45203SOL    HW237442   1.695  14.207   9.563
45204SOL     OW37443   9.151   0.869   1.130
45204SOL    HW137444   9.236   0.864   1.174
45204SOL    HW237445   9.116   0.779   1.135
45205SOL     OW37446   0.384   3.675   4.037
45205SOL    HW137447   0.455   3.642   3.982
45205SOL    HW237448   0.419   3.671   4.126
45206SOL     OW37449   9.495   9.389   0.943
45206SOL    HW137450   9.572   9.415   0.893
45206SOL    HW237451   9.529   9.362   1.028
45207SOL     OW37452  14.260   3.848  13.791
45207SOL    HW137453  14.228   3.806  13.711
45207SOL    HW237454  14.294   3.933  13.761
45208SOL     OW37455   3.020  10.291  13.487
45208SOL    HW137456   3.017  10.285  13.582
45208SOL    HW237457   2.953  10.356  13.465
45209SOL     OW37458   1.291   3.876   3.822
45209SOL    HW137459   1.349   3.879   3.898
45209SOL    HW237460   1.327   3.806   3.767
45210SOL     OW37461  13.844   0.694  12.602
45210SOL    HW137462  13.850   0.604  12.635
45210SOL    HW237463  13.885   0.747  12.671
45211SOL     OW37464  13.815   4.559  10.250
45211SOL    HW137465  13.800   4.465  10.242
45211SOL    HW237466  13.893   4.576  10.198
45212SOL     OW37467   9.956  10.013   4.796
45212SOL    HW137468   9.910  10.085   4.839
45212SOL    HW237469   9.899   9.937   4.809
45213SOL     OW37470   7.557   4.496  10.969
45213SOL    HW137471   7.626   4.554  10.939
45213SOL    HW237472   7.495   4.491  10.896
45214SOL     OW37473  12.394   3.755   0.782
45214SOL    HW137474  12.437   3.811   0.717
45214SOL    HW237475  12.315   3.724   0.738
45215SOL     OW37476   6.704   6.544   7.828
45215SOL    HW137477   6.712   6.474   7.893
45215SOL    HW237478   6.609   6.554   7.815
45216SOL     OW37479  11.834   2.575   1.346
45216SOL    HW137480  11.836   2.593   1.439
45216SOL    HW237481  11.874   2.651   1.305
45217SOL     OW37482  11.440   9.998   8.051
45217SOL    HW137483  11.405  10.083   8.026
45217SOL    HW237484  11.455   9.953   7.968
45218SOL     OW37485   7.881   3.679  10.977
45218SOL    HW137486   7.969   3.693  10.942
45218SOL    HW237487   7.895   3.666  11.071
45219SOL     OW37488  14.628   3.590   7.778
45219SOL    HW137489  14.597   3.575   7.867
45219SOL    HW237490  14.714   3.632   7.790
45220SOL     OW37491  10.639   9.541   2.957
45220SOL    HW137492  10.629   9.585   3.041
45220SOL    HW237493  10.551   9.539   2.920
45221SOL     OW37494   0.277   4.337  10.267
45221SOL    HW137495   0.273   4.242  10.281
45221SOL    HW237496   0.220   4.352  10.192
45222SOL     OW37497   0.212   4.715  10.547
45222SOL    HW137498   0.164   4.734  10.466
45222SOL    HW237499   0.251   4.799  10.572
45223SOL     OW37500   8.518  12.384   2.037
45223SOL    HW137501   8.567  12.464   2.054
45223SOL    HW237502   8.452  12.409   1.973
45224SOL     OW37503  12.341   5.590  13.710
45224SOL    HW137504  12.427   5.595  13.752
45224SOL    HW237505  12.327   5.496  13.696
45225SOL     OW37506   2.380   8.496  11.782
45225SOL    HW137507   2.341   8.566  11.731
45225SOL    HW237508   2.441   8.453  11.722
45226SOL     OW37509   5.691   6.290   1.636
45226SOL    HW137510   5.639   6.216   1.665
45226SOL    HW237511   5.660   6.363   1.690
45227SOL     OW37512  10.750   3.104   7.639
45227SOL    HW137513  10.751   3.008   7.635
45227SOL    HW237514  10.668   3.126   7.682
45228SOL     OW37515   7.632  14.687  14.331
45228SOL    HW137516   7.676  14.619  14.382
45228SOL    HW237517   7.643  14.660  14.240
45229SOL     OW37518   2.704   4.423   3.158
45229SOL    HW137519   2.730   4.439   3.249
45229SOL    HW237520   2.787   4.404   3.113
45230SOL     OW37521  12.204   5.954   0.650
45230SOL    HW137522  12.207   5.916   0.563
45230SOL    HW237523  12.262   5.900   0.703
45231SOL     OW37524   8.090   7.056  12.843
45231SOL    HW137525   8.003   7.094  12.852
45231SOL    HW237526   8.148   7.132  12.830
45232SOL     OW37527  10.817   3.562   5.535
45232SOL    HW137528  10.840   3.544   5.627
45232SOL    HW237529  10.847   3.485   5.487
45233SOL     OW37530   0.497  13.096   8.522
45233SOL    HW137531   0.439  13.169   8.545
45233SOL    HW237532   0.530  13.064   8.607
45234SOL     OW37533  12.706  10.518  10.883
45234SOL    HW137534  12.611  10.510  10.896
45234SOL    HW237535  12.728  10.604  10.919
45235SOL     OW37536  11.243  12.198  11.767
45235SOL    HW137537  11.297  12.238  11.699
45235SOL    HW237538  11.154  12.227  11.748
45236SOL     OW37539   9.062  10.090  13.181
45236SOL    HW137540   9.158  10.092  13.175
45236SOL    HW237541   9.043  10.136  13.263
45237SOL     OW37542  10.264   3.409   7.030
45237SOL    HW137543  10.234   3.338   7.086
45237SOL    HW237544  10.316   3.465   7.088
45238SOL     OW37545   8.681   4.543   5.235
45238SOL    HW137546   8.697   4.542   5.329
45238SOL    HW237547   8.665   4.452   5.212
45239SOL     OW37548  10.113  10.395  14.084
45239SOL    HW137549  10.203  10.366  14.070
45239SOL    HW237550  10.117  10.453  14.160
45240SOL     OW37551   3.574   2.315   1.291
45240SOL    HW137552   3.561   2.407   1.268
45240SOL    HW237553   3.585   2.270   1.207
45241SOL     OW37554  13.124   7.226   4.802
45241SOL    HW137555  13.191   7.160   4.822
45241SOL    HW237556  13.049   7.175   4.771
45242SOL     OW37557   2.883  10.609   9.626
45242SOL    HW137558   2.920  10.698   9.631
45242SOL    HW237559   2.933  10.559   9.690
45243SOL     OW37560   8.866  10.216   5.685
45243SOL    HW137561   8.896  10.125   5.686
45243SOL    HW237562   8.946  10.267   5.695
45244SOL     OW37563   5.955   9.662   7.983
45244SOL    HW137564   5.940   9.753   8.009
45244SOL    HW237565   5.986   9.619   8.062
45245SOL     OW37566   0.955  13.680   2.537
45245SOL    HW137567   0.885  13.695   2.601
45245SOL    HW237568   0.941  13.746   2.470
45246SOL     OW37569   2.233   3.326  10.380
45246SOL    HW137570   2.155   3.311  10.434
45246SOL    HW237571   2.293   3.373  10.437
45247SOL     OW37572   8.255   2.500  10.846
45247SOL    HW137573   8.210   2.421  10.815
45247SOL    HW237574   8.333   2.507  10.791
45248SOL     OW37575  14.088   8.088  11.333
45248SOL    HW137576  14.066   8.073  11.241
45248SOL    HW237577  14.134   8.172  11.334
45249SOL     OW37578   8.169   8.649   4.649
45249SOL    HW137579   8.077   8.654   4.673
45249SOL    HW237580   8.182   8.558   4.622
45250SOL     OW37581  14.237   9.990   3.922
45250SOL    HW137582  14.311   9.969   3.864
45250SOL    HW237583  14.275   9.993   4.009
45251SOL     OW37584   9.436   9.563   7.862
45251SOL    HW137585   9.401   9.640   7.817
45251SOL    HW237586   9.531   9.572   7.855
45252SOL     OW37587   7.915   8.014  13.072
45252SOL    HW137588   7.828   8.052  13.081
45252SOL    HW237589   7.957   8.029  13.157
45253SOL     OW37590   3.916   3.956  12.098
45253SOL    HW137591   3.915   3.925  12.008
45253SOL    HW237592   3.850   4.026  12.099
45254SOL     OW37593  11.275  10.804   9.943
45254SOL    HW137594  11.289  10.712   9.963
45254SOL    HW237595  11.203  10.805   9.880
45255SOL     OW37596  13.770   2.715   2.029
45255SOL    HW137597  13.793   2.623   2.015
45255SOL    HW237598  13.702   2.733   1.964
45256SOL     OW37599  11.987   6.580   9.741
45256SOL    HW137600  11.972   6.550   9.651
45256SOL    HW237601  11.911   6.548   9.790
45257SOL     OW37602   0.749   2.142  11.332
45257SOL    HW137603   0.811   2.087  11.285
45257SOL    HW237604   0.674   2.149  11.272
45258SOL     OW37605   8.894  11.057   8.947
45258SOL    HW137606   8.877  10.973   8.905
45258SOL    HW237607   8.874  11.122   8.880
45259SOL     OW37608   5.609   3.345   2.898
45259SOL    HW137609   5.606   3.346   2.803
45259SOL    HW237610   5.675   3.279   2.919
45260SOL     OW37611   3.079   1.123   5.129
45260SOL    HW137612   3.132   1.061   5.178
45260SOL    HW237613   3.130   1.142   5.050
45261SOL     OW37614  14.855   3.789  10.157
45261SOL    HW137615   0.043   3.742  10.103
45261SOL    HW237616  14.822   3.859  10.100
45262SOL     OW37617  10.423   7.071  11.046
45262SOL    HW137618  10.403   6.983  11.017
45262SOL    HW237619  10.517   7.070  11.065
45263SOL     OW37620   5.665   7.190   5.866
45263SOL    HW137621   5.760   7.194   5.856
45263SOL    HW237622   5.652   7.166   5.958
45264SOL     OW37623   7.339  13.752   0.005
45264SOL    HW137624   7.284  13.810   0.057
45264SOL    HW237625   7.325  13.665   0.043
45265SOL     OW37626   3.543   4.162   3.410
45265SOL    HW137627   3.545   4.180   3.316
45265SOL    HW237628   3.625   4.114   3.427
45266SOL     OW37629   9.958  12.570   0.470
45266SOL    HW137630   9.961  12.654   0.514
45266SOL    HW237631   9.895  12.518   0.520
45267SOL     OW37632   4.653  10.395  11.564
45267SOL    HW137633   4.692  10.388  11.477
45267SOL    HW237634   4.619  10.484  11.568
45268SOL     OW37635   6.538   4.733   4.618
45268SOL    HW137636   6.445   4.721   4.635
45268SOL    HW237637   6.542   4.777   4.533
45269SOL     OW37638   3.213  12.242  11.054
45269SOL    HW137639   3.279  12.286  11.108
45269SOL    HW237640   3.186  12.166  11.106
45270SOL     OW37641  13.720  11.159  14.404
45270SOL    HW137642  13.763  11.087  14.358
45270SOL    HW237643  13.653  11.189  14.342
45271SOL     OW37644  14.460  12.264  12.645
45271SOL    HW137645  14.498  12.282  12.559
45271SOL    HW237646  14.526  12.211  12.689
45272SOL     OW37647   2.627   7.447  11.059
45272SOL    HW137648   2.688   7.518  11.076
45272SOL    HW237649   2.608   7.410  11.145
45273SOL     OW37650   1.388  11.227  12.792
45273SOL    HW137651   1.331  11.228  12.869
45273SOL    HW237652   1.365  11.306  12.744
45274SOL     OW37653   7.226   8.195  11.131
45274SOL    HW137654   7.201   8.142  11.055
45274SOL    HW237655   7.318   8.216  11.115
45275SOL     OW37656   6.581   4.471   0.618
45275SOL    HW137657   6.671   4.440   0.612
45275SOL    HW237658   6.543   4.450   0.533
45276SOL     OW37659   9.919  13.861   1.300
45276SOL    HW137660   9.956  13.867   1.212
45276SOL    HW237661   9.846  13.922   1.301
45277SOL     OW37662   2.088   6.989   4.488
45277SOL    HW137663   2.163   7.009   4.544
45277SOL    HW237664   2.084   6.893   4.487
45278SOL     OW37665   4.352   7.612   9.407
45278SOL    HW137666   4.286   7.672   9.442
45278SOL    HW237667   4.307   7.566   9.336
45279SOL     OW37668   6.604   3.529  10.767
45279SOL    HW137669   6.579   3.467  10.699
45279SOL    HW237670   6.700   3.533  10.762
45280SOL     OW37671   3.593   5.502  14.070
45280SOL    HW137672   3.671   5.498  14.013
45280SOL    HW237673   3.545   5.422  14.050
45281SOL     OW37674   1.734   9.184   3.941
45281SOL    HW137675   1.721   9.115   3.876
45281SOL    HW237676   1.808   9.153   3.994
45282SOL     OW37677   5.096   5.343   4.855
45282SOL    HW137678   5.037   5.404   4.811
45282SOL    HW237679   5.047   5.261   4.859
45283SOL     OW37680  12.165  14.214   3.506
45283SOL    HW137681  12.242  14.204   3.449
45283SOL    HW237682  12.169  14.140   3.566
45284SOL     OW37683   6.468   6.008   6.139
45284SOL    HW137684   6.513   6.022   6.222
45284SOL    HW237685   6.378   6.036   6.155
45285SOL     OW37686  13.669  11.897  14.599
45285SOL    HW137687  13.639  11.899  14.508
45285SOL    HW237688  13.734  11.967  14.605
45286SOL     OW37689   9.130   5.882   7.565
45286SOL    HW137690   9.136   5.959   7.509
45286SOL    HW237691   9.216   5.840   7.560
45287SOL     OW37692   5.023  14.650   4.081
45287SOL    HW137693   5.025  14.743   4.059
45287SOL    HW237694   4.930  14.628   4.084
45288SOL     OW37695  11.086  11.137   9.055
45288SOL    HW137696  11.168  11.122   9.103
45288SOL    HW237697  11.021  11.087   9.104
45289SOL     OW37698  11.883  10.283   3.793
45289SOL    HW137699  11.959  10.341   3.796
45289SOL    HW237700  11.913  10.201   3.832
45290SOL     OW37701   7.882   3.979   6.230
45290SOL    HW137702   7.827   3.936   6.164
45290SOL    HW237703   7.836   3.967   6.313
45291SOL     OW37704   9.708  10.982   2.894
45291SOL    HW137705   9.773  10.929   2.941
45291SOL    HW237706   9.625  10.936   2.908
45292SOL     OW37707   7.607  12.560   6.189
45292SOL    HW137708   7.554  12.503   6.134
45292SOL    HW237709   7.605  12.645   6.144
45293SOL     OW37710   7.316  12.322   4.496
45293SOL    HW137711   7.335  12.385   4.426
45293SOL    HW237712   7.232  12.350   4.532
45294SOL     OW37713   1.161  11.836  14.806
45294SOL    HW137714   1.134  11.916  14.851
45294SOL    HW237715   1.186  11.776   0.001
45295SOL     OW37716  11.737   9.898   6.451
45295SOL    HW137717  11.682   9.820   6.443
45295SOL    HW237718  11.823   9.864   6.475
45296SOL     OW37719   8.233  12.636   1.440
45296SOL    HW137720   8.206  12.575   1.372
45296SOL    HW237721   8.191  12.604   1.520
45297SOL     OW37722   9.674   9.796   0.918
45297SOL    HW137723   9.633   9.768   0.836
45297SOL    HW237724   9.767   9.780   0.904
45298SOL     OW37725  14.375   2.532   1.045
45298SOL    HW137726  14.448   2.585   1.010
45298SOL    HW237727  14.329   2.502   0.967
45299SOL     OW37728   9.246   2.732  12.352
45299SOL    HW137729   9.261   2.716  12.259
45299SOL    HW237730   9.265   2.825  12.363
45300SOL     OW37731   1.558   9.356   3.809
45300SOL    HW137732   1.584   9.271   3.773
45300SOL    HW237733   1.635   9.386   3.857
45301SOL     OW37734   8.317   6.020   3.209
45301SOL    HW137735   8.252   6.036   3.141
45301SOL    HW237736   8.401   6.038   3.167
45302SOL     OW37737   3.494   3.939   9.641
45302SOL    HW137738   3.494   3.843   9.647
45302SOL    HW237739   3.548   3.958   9.564
45303SOL     OW37740  12.997   1.447  10.095
45303SOL    HW137741  12.991   1.542  10.106
45303SOL    HW237742  12.947   1.411  10.168
45304SOL     OW37743   0.958   0.910  11.370
45304SOL    HW137744   0.999   0.831  11.405
45304SOL    HW237745   0.966   0.901  11.275
45305SOL     OW37746   5.790  13.824   7.418
45305SOL    HW137747   5.732  13.793   7.487
45305SOL    HW237748   5.870  13.851   7.465
45306SOL     OW37749   1.812   2.180   8.921
45306SOL    HW137750   1.825   2.147   8.832
45306SOL    HW237751   1.869   2.256   8.927
45307SOL     OW37752   6.758   2.154   7.604
45307SOL    HW137753   6.687   2.187   7.659
45307SOL    HW237754   6.831   2.140   7.664
45308SOL     OW37755  14.250   0.783   8.837
45308SOL    HW137756  14.299   0.823   8.765
45308SOL    HW237757  14.317   0.741   8.891
45309SOL     OW37758   9.001  10.482   6.912
45309SOL    HW137759   8.931  10.497   6.976
45309SOL    HW237760   9.072  10.442   6.963
45310SOL     OW37761   8.017   6.906   2.937
45310SOL    HW137762   7.987   6.996   2.924
45310SOL    HW237763   7.940   6.859   2.968
45311SOL     OW37764   0.898   4.864   5.805
45311SOL    HW137765   0.948   4.922   5.862
45311SOL    HW237766   0.953   4.852   5.728
45312SOL     OW37767   6.024  14.806  13.124
45312SOL    HW137768   6.051   0.019  13.101
45312SOL    HW237769   5.963  14.781  13.055
45313SOL     OW37770  10.658   9.061   3.412
45313SOL    HW137771  10.706   9.082   3.331
45313SOL    HW237772  10.650   9.146   3.456
45314SOL     OW37773   7.423   0.328   9.739
45314SOL    HW137774   7.507   0.287   9.717
45314SOL    HW237775   7.436   0.421   9.723
45315SOL     OW37776  10.505   0.454  10.717
45315SOL    HW137777  10.417   0.489  10.731
45315SOL    HW237778  10.556   0.485  10.791
45316SOL     OW37779   0.809  14.661   8.784
45316SOL    HW137780   0.898  14.694   8.799
45316SOL    HW237781   0.800  14.659   8.688
45317SOL     OW37782   8.490   1.917   7.848
45317SOL    HW137783   8.494   1.952   7.759
45317SOL    HW237784   8.517   1.826   7.840
45318SOL     OW37785   6.482   0.333   8.540
45318SOL    HW137786   6.576   0.322   8.554
45318SOL    HW237787   6.458   0.263   8.479
45319SOL     OW37788   8.638   2.460   5.181
45319SOL    HW137789   8.582   2.472   5.104
45319SOL    HW237790   8.604   2.524   5.245
45320SOL     OW37791  13.780   4.345   2.650
45320SOL    HW137792  13.695   4.377   2.617
45320SOL    HW237793  13.763   4.321   2.741
45321SOL     OW37794   7.384  11.468   6.169
45321SOL    HW137795   7.374  11.374   6.157
45321SOL    HW237796   7.383  11.505   6.081
45322SOL     OW37797   7.237   0.813  14.545
45322SOL    HW137798   7.303   0.873  14.509
45322SOL    HW237799   7.193   0.776  14.469
45323SOL     OW37800   6.115  10.758   1.998
45323SOL    HW137801   6.121  10.848   1.966
45323SOL    HW237802   6.026  10.730   1.975
45324SOL     OW37803   5.297  11.244  14.472
45324SOL    HW137804   5.244  11.324  14.473
45324SOL    HW237805   5.365  11.259  14.538
45325SOL     OW37806  14.122   2.773   5.370
45325SOL    HW137807  14.195   2.795   5.428
45325SOL    HW237808  14.106   2.854   5.321
45326SOL     OW37809  13.002   7.247   2.221
45326SOL    HW137810  13.023   7.173   2.164
45326SOL    HW237811  12.915   7.274   2.193
45327SOL     OW37812   7.999  11.955   3.022
45327SOL    HW137813   8.024  11.965   2.930
45327SOL    HW237814   8.052  12.020   3.069
45328SOL     OW37815   4.441   3.912  13.506
45328SOL    HW137816   4.461   4.001  13.532
45328SOL    HW237817   4.454   3.860  13.585
45329SOL     OW37818   6.555   0.506  11.695
45329SOL    HW137819   6.635   0.517  11.746
45329SOL    HW237820   6.491   0.562  11.739
45330SOL     OW37821  11.365   2.304   8.028
45330SOL    HW137822  11.384   2.225   7.977
45330SOL    HW237823  11.271   2.299   8.046
45331SOL     OW37824  12.612   3.768   3.503
45331SOL    HW137825  12.658   3.851   3.514
45331SOL    HW237826  12.640   3.715   3.578
45332SOL     OW37827  10.909   2.708   1.823
45332SOL    HW137828  10.875   2.748   1.743
45332SOL    HW237829  10.981   2.766   1.850
45333SOL     OW37830   0.551  10.269   9.367
45333SOL    HW137831   0.556  10.280   9.462
45333SOL    HW237832   0.641  10.283   9.337
45334SOL     OW37833   0.480   4.183  14.436
45334SOL    HW137834   0.405   4.166  14.378
45334SOL    HW237835   0.551   4.130  14.401
45335SOL     OW37836  13.572   5.528  13.944
45335SOL    HW137837  13.666   5.547  13.952
45335SOL    HW237838  13.544   5.511  14.034
45336SOL     OW37839   6.882   2.009   1.778
45336SOL    HW137840   6.969   2.037   1.751
45336SOL    HW237841   6.892   1.916   1.799
45337SOL     OW37842  12.010   6.070  13.450
45337SOL    HW137843  12.068   6.142  13.424
45337SOL    HW237844  11.965   6.044  13.370
45338SOL     OW37845   4.811  12.098   6.855
45338SOL    HW137846   4.801  12.031   6.922
45338SOL    HW237847   4.832  12.050   6.775
45339SOL     OW37848   9.789   7.289   3.009
45339SOL    HW137849   9.754   7.259   3.093
45339SOL    HW237850   9.712   7.314   2.959
45340SOL     OW37851   5.970   2.766   8.904
45340SOL    HW137852   5.891   2.728   8.942
45340SOL    HW237853   5.939   2.824   8.835
45341SOL     OW37854   7.776   3.821   6.032
45341SOL    HW137855   7.690   3.783   6.013
45341SOL    HW237856   7.829   3.747   6.060
45342SOL     OW37857   3.371   9.146   9.791
45342SOL    HW137858   3.315   9.078   9.752
45342SOL    HW237859   3.426   9.099   9.854
45343SOL     OW37860  12.543   7.208   9.211
45343SOL    HW137861  12.498   7.277   9.161
45343SOL    HW237862  12.631   7.206   9.174
45344SOL     OW37863   3.195  13.178  10.565
45344SOL    HW137864   3.191  13.176  10.469
45344SOL    HW237865   3.183  13.087  10.592
45345SOL     OW37866   8.034  11.715   9.844
45345SOL    HW137867   7.982  11.768   9.904
45345SOL    HW237868   7.988  11.631   9.842
45346SOL     OW37869  10.811   6.220  14.342
45346SOL    HW137870  10.864   6.290  14.303
45346SOL    HW237871  10.738   6.210  14.281
45347SOL     OW37872   7.460   5.293   0.849
45347SOL    HW137873   7.453   5.357   0.920
45347SOL    HW237874   7.373   5.254   0.844
45348SOL     OW37875   1.591   1.000   0.860
45348SOL    HW137876   1.607   0.966   0.948
45348SOL    HW237877   1.605   0.925   0.803
45349SOL     OW37878  11.502   4.546  13.592
45349SOL    HW137879  11.451   4.627  13.586
45349SOL    HW237880  11.451   4.489  13.650
45350SOL     OW37881  14.205  13.676   7.554
45350SOL    HW137882  14.296  13.655   7.576
45350SOL    HW237883  14.199  13.771   7.570
45351SOL     OW37884  14.473   5.416  12.527
45351SOL    HW137885  14.535   5.484  12.554
45351SOL    HW237886  14.518   5.369  12.457
45352SOL     OW37887   7.544  11.371  11.900
45352SOL    HW137888   7.571  11.368  11.809
45352SOL    HW237889   7.452  11.399  11.897
45353SOL     OW37890   7.092   9.848   6.661
45353SOL    HW137891   7.077   9.782   6.593
45353SOL    HW237892   7.017   9.839   6.720
45354SOL     OW37893   5.378   6.477  11.407
45354SOL    HW137894   5.472   6.486  11.423
45354SOL    HW237895   5.348   6.416  11.475
45355SOL     OW37896   4.176  13.736  10.429
45355SOL    HW137897   4.145  13.661  10.378
45355SOL    HW237898   4.096  13.774  10.466
45356SOL     OW37899   4.534   2.594   8.260
45356SOL    HW137900   4.510   2.630   8.174
45356SOL    HW237901   4.582   2.664   8.303
45357SOL     OW37902   1.848   4.140   7.433
45357SOL    HW137903   1.775   4.137   7.494
45357SOL    HW237904   1.807   4.148   7.347
45358SOL     OW37905  12.957   1.294  12.702
45358SOL    HW137906  12.949   1.304  12.797
45358SOL    HW237907  12.916   1.373  12.666
45359SOL     OW37908  11.658   8.461  12.454
45359SOL    HW137909  11.669   8.370  12.482
45359SOL    HW237910  11.567   8.466  12.425
45360SOL     OW37911   5.563   9.819   1.967
45360SOL    HW137912   5.547   9.913   1.963
45360SOL    HW237913   5.558   9.798   2.060
45361SOL     OW37914   1.679   6.852   2.026
45361SOL    HW137915   1.715   6.802   2.100
45361SOL    HW237916   1.696   6.797   1.950
45362SOL     OW37917   3.001  10.705   5.286
45362SOL    HW137918   2.980  10.643   5.356
45362SOL    HW237919   2.954  10.785   5.310
45363SOL     OW37920   9.171   5.525   5.123
45363SOL    HW137921   9.181   5.546   5.216
45363SOL    HW237922   9.121   5.443   5.123
45364SOL     OW37923   2.701   3.057   0.702
45364SOL    HW137924   2.725   2.995   0.633
45364SOL    HW237925   2.667   3.003   0.772
45365SOL     OW37926   2.343   9.204   7.510
45365SOL    HW137927   2.316   9.263   7.580
45365SOL    HW237928   2.425   9.242   7.477
45366SOL     OW37929   6.787   7.730   9.692
45366SOL    HW137930   6.760   7.699   9.779
45366SOL    HW237931   6.726   7.690   9.632
45367SOL     OW37932   0.929   1.491   8.345
45367SOL    HW137933   0.944   1.426   8.277
45367SOL    HW237934   0.890   1.565   8.299
45368SOL     OW37935   3.692   2.301  14.723
45368SOL    HW137936   3.696   2.292  14.818
45368SOL    HW237937   3.621   2.242  14.697
45369SOL     OW37938  12.092   0.134   0.419
45369SOL    HW137939  12.134   0.049   0.434
45369SOL    HW237940  12.165   0.196   0.411
45370SOL     OW37941   4.314   4.740  13.407
45370SOL    HW137942   4.398   4.695  13.414
45370SOL    HW237943   4.334   4.823  13.363
45371SOL     OW37944   6.103   3.477   5.776
45371SOL    HW137945   6.151   3.540   5.722
45371SOL    HW237946   6.022   3.521   5.799
45372SOL     OW37947  14.494   8.552   7.553
45372SOL    HW137948  14.516   8.644   7.566
45372SOL    HW237949  14.445   8.527   7.631
45373SOL     OW37950   9.741   6.019   7.797
45373SOL    HW137951   9.679   5.962   7.751
45373SOL    HW237952   9.806   6.043   7.730
45374SOL     OW37953  12.485  13.406  10.973
45374SOL    HW137954  12.401  13.361  10.981
45374SOL    HW237955  12.545  13.353  11.026
45375SOL     OW37956  10.855  12.832   1.801
45375SOL    HW137957  10.872  12.882   1.721
45375SOL    HW237958  10.937  12.786   1.818
45376SOL     OW37959  14.483  12.570  10.470
45376SOL    HW137960  14.424  12.512  10.422
45376SOL    HW237961  14.537  12.610  10.402
45377SOL     OW37962   5.505  11.163   6.109
45377SOL    HW137963   5.410  11.163   6.120
45377SOL    HW237964   5.519  11.187   6.017
45378SOL     OW37965   9.882  10.298  13.409
45378SOL    HW137966   9.825  10.346  13.348
45378SOL    HW237967   9.823  10.241  13.457
45379SOL     OW37968  10.016  10.655   6.095
45379SOL    HW137969   9.925  10.635   6.072
45379SOL    HW237970  10.057  10.678   6.012
45380SOL     OW37971   6.617   8.117  12.119
45380SOL    HW137972   6.589   8.026  12.107
45380SOL    HW237973   6.706   8.110  12.154
45381SOL     OW37974   6.054   7.242  12.831
45381SOL    HW137975   6.109   7.246  12.753
45381SOL    HW237976   5.966   7.260  12.798
45382SOL     OW37977   2.066  13.182   4.818
45382SOL    HW137978   2.039  13.092   4.833
45382SOL    HW237979   2.043  13.228   4.899
45383SOL     OW37980  12.337   3.264   7.533
45383SOL    HW137981  12.253   3.222   7.516
45383SOL    HW237982  12.347   3.261   7.628
45384SOL     OW37983  13.560   2.392  14.142
45384SOL    HW137984  13.578   2.484  14.124
45384SOL    HW237985  13.585   2.347  14.062
45385SOL     OW37986   1.220  12.118  14.326
45385SOL    HW137987   1.252  12.070  14.402
45385SOL    HW237988   1.219  12.210  14.355
45386SOL     OW37989  10.966   1.286   7.334
45386SOL    HW137990  10.923   1.372   7.344
45386SOL    HW237991  11.003   1.268   7.421
45387SOL     OW37992   5.315   1.591  14.007
45387SOL    HW137993   5.354   1.604  14.093
45387SOL    HW237994   5.251   1.661  13.998
45388SOL     OW37995   0.195   9.629  14.598
45388SOL    HW137996   0.274   9.575  14.596
45388SOL    HW237997   0.126   9.571  14.627
45389SOL     OW37998  10.209   0.635   3.923
45389SOL    HW137999  10.159   0.676   3.993
45389SOL    HW238000  10.143   0.595   3.866
45390SOL     OW38001   5.223   7.606   2.624
45390SOL    HW138002   5.230   7.534   2.562
45390SOL    HW238003   5.171   7.571   2.696
45391SOL     OW38004  11.543   3.018   1.448
45391SOL    HW138005  11.567   3.005   1.356
45391SOL    HW238006  11.572   3.108   1.467
45392SOL     OW38007   4.903  11.083   7.264
45392SOL    HW138008   4.870  11.171   7.282
45392SOL    HW238009   4.940  11.089   7.176
45393SOL     OW38010   9.501  12.456  13.057
45393SOL    HW138011   9.471  12.371  13.025
45393SOL    HW238012   9.550  12.493  12.983
45394SOL     OW38013  12.926   3.730   4.731
45394SOL    HW138014  12.847   3.678   4.720
45394SOL    HW238015  12.895   3.819   4.747
45395SOL     OW38016   5.771   5.938   4.902
45395SOL    HW138017   5.755   6.022   4.945
45395SOL    HW238018   5.702   5.880   4.936
45396SOL     OW38019   5.778   5.192   7.075
45396SOL    HW138020   5.784   5.245   6.995
45396SOL    HW238021   5.824   5.111   7.052
45397SOL     OW38022   7.780   3.478  14.424
45397SOL    HW138023   7.814   3.399  14.383
45397SOL    HW238024   7.831   3.549  14.385
45398SOL     OW38025  13.391  10.270   8.406
45398SOL    HW138026  13.457  10.313   8.351
45398SOL    HW238027  13.439  10.201   8.452
45399SOL     OW38028   6.788   1.330   6.082
45399SOL    HW138029   6.878   1.354   6.060
45399SOL    HW238030   6.746   1.412   6.108
45400SOL     OW38031   1.610  13.979   8.463
45400SOL    HW138032   1.569  13.956   8.380
45400SOL    HW238033   1.537  13.999   8.521
45401SOL     OW38034   2.205   3.597   0.526
45401SOL    HW138035   2.200   3.580   0.620
45401SOL    HW238036   2.193   3.692   0.519
45402SOL     OW38037   8.970  14.783  10.818
45402SOL    HW138038   8.929  14.721  10.757
45402SOL    HW238039   9.001  14.854  10.762
45403SOL     OW38040   7.768   3.151   9.599
45403SOL    HW138041   7.764   3.096   9.521
45403SOL    HW238042   7.736   3.094   9.670
45404SOL     OW38043  12.403   7.467   9.589
45404SOL    HW138044  12.316   7.468   9.630
45404SOL    HW238045  12.461   7.434   9.658
45405SOL     OW38046  12.281   1.158   3.519
45405SOL    HW138047  12.361   1.115   3.488
45405SOL    HW238048  12.312   1.226   3.578
45406SOL     OW38049   7.004   6.811   0.994
45406SOL    HW138050   6.930   6.753   0.977
45406SOL    HW238051   6.987   6.889   0.942
45407SOL     OW38052  10.546   8.664   3.188
45407SOL    HW138053  10.637   8.645   3.207
45407SOL    HW238054  10.546   8.753   3.154
45408SOL     OW38055   4.390   5.085   9.421
45408SOL    HW138056   4.299   5.059   9.431
45408SOL    HW238057   4.435   5.006   9.390
45409SOL     OW38058   2.829   1.562   9.401
45409SOL    HW138059   2.803   1.525   9.486
45409SOL    HW238060   2.925   1.555   9.400
45410SOL     OW38061  14.212  12.881   0.750
45410SOL    HW138062  14.139  12.853   0.805
45410SOL    HW238063  14.214  12.819   0.678
45411SOL     OW38064  11.741   1.417   6.164
45411SOL    HW138065  11.674   1.480   6.194
45411SOL    HW238066  11.700   1.331   6.178
45412SOL     OW38067  11.460   8.591   2.257
45412SOL    HW138068  11.373   8.612   2.223
45412SOL    HW238069  11.447   8.515   2.313
45413SOL     OW38070   3.836  11.823   2.900
45413SOL    HW138071   3.918  11.814   2.852
45413SOL    HW238072   3.829  11.742   2.950
45414SOL     OW38073   3.514  10.361  10.649
45414SOL    HW138074   3.423  10.381  10.629
45414SOL    HW238075   3.513  10.334  10.741
45415SOL     OW38076  12.602  10.629   9.267
45415SOL    HW138077  12.607  10.616   9.172
45415SOL    HW238078  12.692  10.619   9.297
45416SOL     OW38079   6.320   7.398   9.059
45416SOL    HW138080   6.352   7.358   9.140
45416SOL    HW238081   6.388   7.380   8.995
45417SOL     OW38082  12.934  10.670   1.665
45417SOL    HW138083  12.922  10.713   1.581
45417SOL    HW238084  12.845  10.656   1.698
45418SOL     OW38085  13.660   1.446  10.453
45418SOL    HW138086  13.698   1.532  10.470
45418SOL    HW238087  13.736   1.389  10.439
45419SOL     OW38088   7.699  13.625   6.520
45419SOL    HW138089   7.626  13.687   6.521
45419SOL    HW238090   7.763  13.662   6.580
45420SOL     OW38091   2.677  11.706   9.004
45420SOL    HW138092   2.720  11.621   8.996
45420SOL    HW238093   2.725  11.751   9.073
45421SOL     OW38094   3.944   6.494  12.593
45421SOL    HW138095   3.889   6.568  12.618
45421SOL    HW238096   4.024   6.533  12.557
45422SOL     OW38097   4.196   3.111   0.518
45422SOL    HW138098   4.126   3.165   0.480
45422SOL    HW238099   4.166   3.095   0.608
45423SOL     OW38100  10.434   3.118  11.025
45423SOL    HW138101  10.363   3.112  10.961
45423SOL    HW238102  10.489   3.042  11.005
45424SOL     OW38103   8.087  11.142   0.533
45424SOL    HW138104   8.121  11.054   0.518
45424SOL    HW238105   8.070  11.176   0.446
45425SOL     OW38106  14.278   6.618   3.678
45425SOL    HW138107  14.253   6.603   3.770
45425SOL    HW238108  14.237   6.701   3.655
45426SOL     OW38109  13.849   0.306   8.871
45426SOL    HW138110  13.863   0.283   8.779
45426SOL    HW238111  13.792   0.383   8.868
45427SOL     OW38112   1.862   1.813   4.143
45427SOL    HW138113   1.908   1.794   4.225
45427SOL    HW238114   1.860   1.730   4.097
45428SOL     OW38115   9.842  13.037  13.785
45428SOL    HW138116   9.769  12.987  13.748
45428SOL    HW238117   9.899  12.971  13.822
45429SOL     OW38118   8.771  13.237   2.201
45429SOL    HW138119   8.738  13.323   2.228
45429SOL    HW238120   8.696  13.179   2.207
45430SOL     OW38121  12.776   6.080   0.032
45430SOL    HW138122  12.843   6.057   0.097
45430SOL    HW238123  12.735   5.996   0.010
45431SOL     OW38124  14.001   4.759   7.585
45431SOL    HW138125  14.064   4.699   7.623
45431SOL    HW238126  13.946   4.786   7.659
45432SOL     OW38127   4.705   2.540  11.339
45432SOL    HW138128   4.772   2.531  11.407
45432SOL    HW238129   4.729   2.620  11.292
45433SOL     OW38130   1.853   6.660  12.966
45433SOL    HW138131   1.928   6.659  12.906
45433SOL    HW238132   1.782   6.622  12.914
45434SOL     OW38133  11.016  13.855   8.835
45434SOL    HW138134  10.962  13.785   8.872
45434SOL    HW238135  11.006  13.928   8.897
45435SOL     OW38136   3.216   9.412   1.380
45435SOL    HW138137   3.206   9.394   1.287
45435SOL    HW238138   3.310   9.403   1.397
45436SOL     OW38139  11.583   7.511   9.036
45436SOL    HW138140  11.517   7.449   9.066
45436SOL    HW238141  11.658   7.495   9.093
45437SOL     OW38142   2.217   1.818  14.869
45437SOL    HW138143   2.278   1.890   0.009
45437SOL    HW238144   2.259   1.766  14.800
45438SOL     OW38145   6.838  10.367   9.594
45438SOL    HW138146   6.799  10.280   9.583
45438SOL    HW238147   6.840  10.403   9.506
45439SOL     OW38148  13.308   7.186   3.504
45439SOL    HW138149  13.285   7.278   3.511
45439SOL    HW238150  13.227   7.143   3.478
45440SOL     OW38151   0.357   3.412   4.334
45440SOL    HW138152   0.359   3.434   4.427
45440SOL    HW238153   0.323   3.491   4.292
45441SOL     OW38154   8.530   5.544   5.710
45441SOL    HW138155   8.575   5.617   5.667
45441SOL    HW238156   8.544   5.559   5.804
45442SOL     OW38157  13.354  11.407  11.296
45442SOL    HW138158  13.333  11.337  11.234
45442SOL    HW238159  13.441  11.437  11.270
45443SOL     OW38160   9.925   4.974   6.692
45443SOL    HW138161  10.000   4.915   6.699
45443SOL    HW238162   9.962   5.056   6.660
45444SOL     OW38163   9.987  12.704   4.472
45444SOL    HW138164  10.021  12.710   4.382
45444SOL    HW238165  10.061  12.672   4.524
45445SOL     OW38166   8.497   3.955  10.872
45445SOL    HW138167   8.577   3.962  10.821
45445SOL    HW238168   8.449   3.883  10.833
45446SOL     OW38169   1.308   4.341  11.289
45446SOL    HW138170   1.231   4.386  11.325
45446SOL    HW238171   1.298   4.250  11.317
45447SOL     OW38172  10.710   9.706   7.672
45447SOL    HW138173  10.708   9.802   7.676
45447SOL    HW238174  10.803   9.684   7.668
45448SOL     OW38175   8.219  12.767   0.428
45448SOL    HW138176   8.283  12.753   0.357
45448SOL    HW238177   8.210  12.862   0.432
45449SOL     OW38178   5.429  14.549   7.295
45449SOL    HW138179   5.391  14.634   7.274
45449SOL    HW238180   5.423  14.499   7.213
45450SOL     OW38181  14.492  12.186  13.356
45450SOL    HW138182  14.575  12.157  13.394
45450SOL    HW238183  14.440  12.106  13.348
45451SOL     OW38184   9.128  11.460   8.375
45451SOL    HW138185   9.150  11.379   8.329
45451SOL    HW238186   9.195  11.467   8.443
45452SOL     OW38187   4.071   4.376   2.987
45452SOL    HW138188   4.000   4.439   2.999
45452SOL    HW238189   4.144   4.428   2.953
45453SOL     OW38190   9.262  11.159  11.858
45453SOL    HW138191   9.194  11.219  11.826
45453SOL    HW238192   9.276  11.098  11.785
45454SOL     OW38193  13.986   3.708  14.216
45454SOL    HW138194  13.920   3.647  14.183
45454SOL    HW238195  14.046   3.720  14.143
45455SOL     OW38196   0.537   2.182   2.301
45455SOL    HW138197   0.628   2.153   2.310
45455SOL    HW238198   0.538   2.242   2.227
45456SOL     OW38199   0.159  10.878   2.654
45456SOL    HW138200   0.064  10.892   2.653
45456SOL    HW238201   0.173  10.808   2.590
45457SOL     OW38202   5.485   8.070  14.250
45457SOL    HW138203   5.576   8.096  14.258
45457SOL    HW238204   5.437   8.135  14.301
45458SOL     OW38205   2.238  10.662  14.302
45458SOL    HW138206   2.285  10.628  14.378
45458SOL    HW238207   2.146  10.643  14.319
45459SOL     OW38208   3.104   1.982   0.858
45459SOL    HW138209   3.105   2.035   0.937
45459SOL    HW238210   3.102   1.892   0.889
45460SOL     OW38211   7.646  10.337   8.986
45460SOL    HW138212   7.572  10.342   8.925
45460SOL    HW238213   7.612  10.288   9.061
45461SOL     OW38214  13.433   7.951   0.883
45461SOL    HW138215  13.395   7.950   0.971
45461SOL    HW238216  13.498   7.881   0.885
45462SOL     OW38217  12.749   4.087   2.772
45462SOL    HW138218  12.769   4.035   2.850
45462SOL    HW238219  12.822   4.148   2.765
45463SOL     OW38220   2.424   9.563   6.707
45463SOL    HW138221   2.361   9.561   6.635
45463SOL    HW238222   2.472   9.644   6.694
45464SOL     OW38223  10.808   5.787   8.227
45464SOL    HW138224  10.894   5.826   8.215
45464SOL    HW238225  10.746   5.857   8.207
45465SOL     OW38226  14.697   6.038   5.000
45465SOL    HW138227  14.723   5.955   5.041
45465SOL    HW238228  14.664   6.014   4.914
45466SOL     OW38229   5.370  12.181  12.443
45466SOL    HW138230   5.333  12.119  12.381
45466SOL    HW238231   5.366  12.136  12.528
45467SOL     OW38232   5.228   7.327  14.107
45467SOL    HW138233   5.165   7.388  14.146
45467SOL    HW238234   5.309   7.377  14.100
45468SOL     OW38235   4.848   3.317   7.764
45468SOL    HW138236   4.813   3.378   7.829
45468SOL    HW238237   4.839   3.363   7.681
45469SOL     OW38238  10.822   4.172   2.002
45469SOL    HW138239  10.806   4.126   2.084
45469SOL    HW238240  10.910   4.208   2.011
45470SOL     OW38241   2.579   2.634   4.101
45470SOL    HW138242   2.599   2.541   4.093
45470SOL    HW238243   2.660   2.673   4.136
45471SOL     OW38244   3.667  10.305   4.325
45471SOL    HW138245   3.672  10.380   4.266
45471SOL    HW238246   3.720  10.330   4.401
45472SOL     OW38247   0.063  14.380   7.550
45472SOL    HW138248  14.845  14.384   7.529
45472SOL    HW238249   0.071  14.303   7.607
45473SOL     OW38250   2.010   3.130   3.955
45473SOL    HW138251   1.981   3.109   4.044
45473SOL    HW238252   1.933   3.114   3.901
45474SOL     OW38253   5.479  11.956   1.754
45474SOL    HW138254   5.566  11.981   1.783
45474SOL    HW238255   5.434  12.039   1.739
45475SOL     OW38256   4.347   3.187  13.496
45475SOL    HW138257   4.357   3.123  13.567
45475SOL    HW238258   4.297   3.141  13.429
45476SOL     OW38259  14.489   5.581   2.148
45476SOL    HW138260  14.538   5.505   2.180
45476SOL    HW238261  14.555   5.650   2.142
45477SOL     OW38262   0.142  11.154  14.501
45477SOL    HW138263   0.124  11.193  14.587
45477SOL    HW238264   0.143  11.060  14.517
45478SOL     OW38265   1.503  14.740   8.174
45478SOL    HW138266   1.429  14.718   8.230
45478SOL    HW238267   1.557  14.661   8.174
45479SOL     OW38268  13.014   6.690   5.535
45479SOL    HW138269  12.962   6.732   5.603
45479SOL    HW238270  13.046   6.763   5.481
45480SOL     OW38271   9.913   0.406  13.858
45480SOL    HW138272   9.825   0.429  13.828
45480SOL    HW238273   9.959   0.489  13.865
45481SOL     OW38274  10.190   9.992   1.592
45481SOL    HW138275  10.164   9.994   1.499
45481SOL    HW238276  10.197  10.085   1.615
45482SOL     OW38277   9.821   6.250   2.702
45482SOL    HW138278   9.897   6.213   2.657
45482SOL    HW238279   9.826   6.344   2.686
45483SOL     OW38280   6.349   8.499   4.540
45483SOL    HW138281   6.366   8.411   4.506
45483SOL    HW238282   6.372   8.494   4.633
45484SOL     OW38283   9.714   7.446   0.332
45484SOL    HW138284   9.685   7.360   0.363
45484SOL    HW238285   9.666   7.509   0.387
45485SOL     OW38286   4.915   9.493   6.862
45485SOL    HW138287   4.880   9.582   6.861
45485SOL    HW238288   4.943   9.478   6.772
45486SOL     OW38289   6.646   9.554   3.701
45486SOL    HW138290   6.664   9.594   3.616
45486SOL    HW238291   6.698   9.473   3.701
45487SOL     OW38292  11.659   1.542   7.407
45487SOL    HW138293  11.576   1.559   7.451
45487SOL    HW238294  11.671   1.614   7.346
45488SOL     OW38295  11.541  12.523  13.287
45488SOL    HW138296  11.463  12.489  13.332
45488SOL    HW238297  11.537  12.483  13.200
45489SOL     OW38298   7.719  10.807   1.529
45489SOL    HW138299   7.700  10.891   1.487
45489SOL    HW238300   7.664  10.744   1.483
45490SOL     OW38301   4.430  13.389  11.446
45490SOL    HW138302   4.410  13.482  11.459
45490SOL    HW238303   4.404  13.372  11.355
45491SOL     OW38304   7.381   0.718   9.096
45491SOL    HW138305   7.465   0.717   9.049
45491SOL    HW238306   7.344   0.631   9.081
45492SOL     OW38307  14.381   3.437  13.834
45492SOL    HW138308  14.397   3.529  13.855
45492SOL    HW238309  14.467   3.402  13.812
45493SOL     OW38310   5.988   7.746  13.764
45493SOL    HW138311   5.919   7.687  13.796
45493SOL    HW238312   5.971   7.756  13.671
45494SOL     OW38313  13.780  10.811   8.063
45494SOL    HW138314  13.832  10.736   8.035
45494SOL    HW238315  13.812  10.884   8.009
45495SOL     OW38316   0.989  13.330  12.023
45495SOL    HW138317   0.972  13.369  11.937
45495SOL    HW238318   0.979  13.403  12.084
45496SOL     OW38319   5.644  13.329  12.818
45496SOL    HW138320   5.635  13.257  12.882
45496SOL    HW238321   5.630  13.288  12.733
45497SOL     OW38322   2.977   8.189   6.549
45497SOL    HW138323   3.055   8.149   6.588
45497SOL    HW238324   2.951   8.257   6.611
45498SOL     OW38325  14.739   5.365   0.175
45498SOL    HW138326  14.797   5.389   0.247
45498SOL    HW238327  14.696   5.447   0.150
45499SOL     OW38328  10.706   5.554  14.460
45499SOL    HW138329  10.686   5.478  14.405
45499SOL    HW238330  10.800   5.566  14.452
45500SOL     OW38331   2.783  13.091   4.911
45500SOL    HW138332   2.736  13.085   4.828
45500SOL    HW238333   2.864  13.042   4.896
45501SOL     OW38334  12.802   2.458   1.395
45501SOL    HW138335  12.859   2.386   1.371
45501SOL    HW238336  12.852   2.537   1.372
45502SOL     OW38337   1.019  11.420   7.068
45502SOL    HW138338   1.075  11.345   7.048
45502SOL    HW238339   1.021  11.473   6.988
45503SOL     OW38340  10.676   9.377   8.043
45503SOL    HW138341  10.733   9.332   8.106
45503SOL    HW238342  10.719   9.363   7.958
45504SOL     OW38343  12.766  11.964   9.118
45504SOL    HW138344  12.826  12.024   9.073
45504SOL    HW238345  12.732  12.015   9.192
45505SOL     OW38346   6.940  12.572   7.371
45505SOL    HW138347   6.878  12.644   7.371
45505SOL    HW238348   7.009  12.599   7.310
45506SOL     OW38349   6.853   2.298  13.692
45506SOL    HW138350   6.872   2.389  13.672
45506SOL    HW238351   6.858   2.253  13.607
45507SOL     OW38352  12.219  14.196   2.247
45507SOL    HW138353  12.169  14.270   2.280
45507SOL    HW238354  12.234  14.217   2.154
45508SOL     OW38355  10.259   8.952   6.731
45508SOL    HW138356  10.297   8.900   6.802
45508SOL    HW238357  10.164   8.943   6.744
45509SOL     OW38358  11.470   5.432   0.971
45509SOL    HW138359  11.531   5.506   0.979
45509SOL    HW238360  11.474   5.407   0.878
45510SOL     OW38361   5.130   0.458   6.258
45510SOL    HW138362   5.085   0.494   6.181
45510SOL    HW238363   5.170   0.534   6.299
45511SOL     OW38364  10.886   2.234   0.998
45511SOL    HW138365  10.864   2.292   0.924
45511SOL    HW238366  10.813   2.246   1.059
45512SOL     OW38367  13.350   6.953   6.878
45512SOL    HW138368  13.301   6.992   6.950
45512SOL    HW238369  13.289   6.954   6.804
45513SOL     OW38370   6.579   3.528   7.155
45513SOL    HW138371   6.634   3.497   7.227
45513SOL    HW238372   6.507   3.575   7.197
45514SOL     OW38373   1.336   4.785   4.621
45514SOL    HW138374   1.294   4.758   4.702
45514SOL    HW238375   1.429   4.763   4.634
45515SOL     OW38376   1.262   9.202  13.849
45515SOL    HW138377   1.204   9.226  13.921
45515SOL    HW238378   1.298   9.285  13.818
45516SOL     OW38379  11.145   4.082  14.524
45516SOL    HW138380  11.096   4.109  14.602
45516SOL    HW238381  11.236   4.079  14.552
45517SOL     OW38382  11.779  13.875   0.174
45517SOL    HW138383  11.730  13.923   0.107
45517SOL    HW238384  11.857  13.843   0.128
45518SOL     OW38385  13.912   0.758   0.763
45518SOL    HW138386  13.949   0.684   0.714
45518SOL    HW238387  13.818   0.755   0.744
45519SOL     OW38388   1.545   9.262  10.835
45519SOL    HW138389   1.611   9.297  10.896
45519SOL    HW238390   1.550   9.167  10.846
45520SOL     OW38391   2.509  13.296   4.926
45520SOL    HW138392   2.562  13.376   4.929
45520SOL    HW238393   2.539  13.252   4.847
45521SOL     OW38394   0.880   1.690   2.307
45521SOL    HW138395   0.848   1.759   2.365
45521SOL    HW238396   0.805   1.670   2.250
45522SOL     OW38397   6.446   0.400   3.629
45522SOL    HW138398   6.534   0.426   3.599
45522SOL    HW238399   6.390   0.413   3.553
45523SOL     OW38400   3.653  12.991   5.419
45523SOL    HW138401   3.565  12.988   5.456
45523SOL    HW238402   3.707  12.943   5.481
45524SOL     OW38403   0.658   7.832  14.579
45524SOL    HW138404   0.590   7.776  14.543
45524SOL    HW238405   0.631   7.847  14.670
45525SOL     OW38406   2.049   4.817   8.670
45525SOL    HW138407   2.034   4.724   8.686
45525SOL    HW238408   2.108   4.819   8.595
45526SOL     OW38409   7.790   5.879   1.833
45526SOL    HW138410   7.737   5.915   1.904
45526SOL    HW238411   7.727   5.841   1.772
45527SOL     OW38412   2.707   4.998   3.894
45527SOL    HW138413   2.673   4.960   3.974
45527SOL    HW238414   2.648   5.071   3.875
45528SOL     OW38415   7.809  11.035   0.212
45528SOL    HW138416   7.718  11.064   0.216
45528SOL    HW238417   7.841  11.068   0.129
45529SOL     OW38418   2.041  10.272  13.725
45529SOL    HW138419   1.995  10.306  13.802
45529SOL    HW238420   2.084  10.348  13.686
45530SOL     OW38421   6.722   8.602   5.619
45530SOL    HW138422   6.690   8.689   5.594
45530SOL    HW238423   6.644   8.548   5.624
45531SOL     OW38424   3.190   3.778   1.921
45531SOL    HW138425   3.151   3.783   2.008
45531SOL    HW238426   3.279   3.745   1.936
45532SOL     OW38427   1.643   9.420  13.732
45532SOL    HW138428   1.548   9.421  13.717
45532SOL    HW238429   1.680   9.397  13.647
45533SOL     OW38430  11.740   9.528   1.065
45533SOL    HW138431  11.652   9.506   1.033
45533SOL    HW238432  11.787   9.559   0.987
45534SOL     OW38433   4.608   3.262   3.863
45534SOL    HW138434   4.561   3.202   3.921
45534SOL    HW238435   4.568   3.247   3.777
45535SOL     OW38436  12.827   5.301   4.677
45535SOL    HW138437  12.771   5.340   4.744
45535SOL    HW238438  12.766   5.271   4.610
45536SOL     OW38439   5.282   1.859  11.543
45536SOL    HW138440   5.335   1.779  11.534
45536SOL    HW238441   5.282   1.877  11.637
45537SOL     OW38442  12.012  10.436   3.316
45537SOL    HW138443  11.969  10.490   3.383
45537SOL    HW238444  11.940  10.393   3.270
45538SOL     OW38445  10.206   7.878   8.127
45538SOL    HW138446  10.217   7.923   8.210
45538SOL    HW238447  10.290   7.834   8.112
45539SOL     OW38448   4.690   0.776   4.793
45539SOL    HW138449   4.624   0.714   4.825
45539SOL    HW238450   4.763   0.766   4.854
45540SOL     OW38451  13.235   1.780   1.811
45540SOL    HW138452  13.237   1.860   1.759
45540SOL    HW238453  13.218   1.810   1.901
45541SOL     OW38454   9.363  13.364  12.332
45541SOL    HW138455   9.374  13.278  12.291
45541SOL    HW238456   9.291  13.351  12.394
45542SOL     OW38457   1.853   6.163  12.540
45542SOL    HW138458   1.906   6.105  12.594
45542SOL    HW238459   1.822   6.231  12.600
45543SOL     OW38460   4.749   4.498  11.001
45543SOL    HW138461   4.825   4.505  10.943
45543SOL    HW238462   4.761   4.567  11.065
45544SOL     OW38463   8.859   1.704   1.882
45544SOL    HW138464   8.853   1.780   1.823
45544SOL    HW238465   8.905   1.638   1.830
45545SOL     OW38466   6.748   1.372   0.308
45545SOL    HW138467   6.782   1.310   0.242
45545SOL    HW238468   6.754   1.324   0.390
45546SOL     OW38469   3.545  13.397  12.221
45546SOL    HW138470   3.544  13.339  12.145
45546SOL    HW238471   3.570  13.340  12.294
45547SOL     OW38472   7.956   3.570   6.080
45547SOL    HW138473   7.967   3.475   6.082
45547SOL    HW238474   8.037   3.605   6.118
45548SOL     OW38475   1.761  14.723   6.088
45548SOL    HW138476   1.700  14.753   6.155
45548SOL    HW238477   1.811  14.801   6.064
45549SOL     OW38478  10.915   4.129   9.444
45549SOL    HW138479  10.825   4.100   9.432
45549SOL    HW238480  10.968   4.050   9.437
45550SOL     OW38481  10.528  11.779  13.794
45550SOL    HW138482  10.617  11.813  13.800
45550SOL    HW238483  10.492  11.788  13.882
45551SOL     OW38484   6.407  10.788  13.024
45551SOL    HW138485   6.411  10.880  13.000
45551SOL    HW238486   6.461  10.781  13.103
45552SOL     OW38487   4.382   6.277   9.600
45552SOL    HW138488   4.409   6.354   9.550
45552SOL    HW238489   4.303   6.247   9.556
45553SOL     OW38490   6.772   4.055   5.095
45553SOL    HW138491   6.723   4.005   5.160
45553SOL    HW238492   6.711   4.065   5.022
45554SOL     OW38493  10.429   0.701   3.004
45554SOL    HW138494  10.501   0.652   3.042
45554SOL    HW238495  10.469   0.782   2.972
45555SOL     OW38496   0.772  14.345  11.704
45555SOL    HW138497   0.762  14.431  11.745
45555SOL    HW238498   0.839  14.301  11.757
45556SOL     OW38499  12.345   2.625   5.074
45556SOL    HW138500  12.371   2.712   5.043
45556SOL    HW238501  12.428   2.582   5.095
45557SOL     OW38502  14.043   6.827  10.098
45557SOL    HW138503  14.084   6.748  10.134
45557SOL    HW238504  13.950   6.818  10.119
45558SOL     OW38505  12.478  11.587   8.821
45558SOL    HW138506  12.498  11.511   8.876
45558SOL    HW238507  12.518  11.661   8.867
45559SOL     OW38508  10.559   6.926   2.778
45559SOL    HW138509  10.626   6.947   2.843
45559SOL    HW238510  10.607   6.913   2.696
45560SOL     OW38511   1.357   2.414   7.734
45560SOL    HW138512   1.433   2.463   7.702
45560SOL    HW238513   1.328   2.363   7.658
45561SOL     OW38514  11.710   2.473  11.266
45561SOL    HW138515  11.781   2.454  11.205
45561SOL    HW238516  11.703   2.395  11.321
45562SOL     OW38517   9.435   4.991   6.494
45562SOL    HW138518   9.432   4.896   6.479
45562SOL    HW238519   9.358   5.009   6.548
45563SOL     OW38520   6.501   0.782   8.264
45563SOL    HW138521   6.506   0.858   8.323
45563SOL    HW238522   6.543   0.711   8.313
45564SOL     OW38523   9.369   4.578  10.082
45564SOL    HW138524   9.459   4.567  10.112
45564SOL    HW238525   9.376   4.616   9.995
45565SOL     OW38526  10.716  12.504   2.681
45565SOL    HW138527  10.724  12.410   2.663
45565SOL    HW238528  10.699  12.510   2.774
45566SOL     OW38529  13.744   3.046   6.032
45566SOL    HW138530  13.796   3.008   5.960
45566SOL    HW238531  13.802   3.042   6.108
45567SOL     OW38532  14.752   3.660   2.246
45567SOL    HW138533  14.727   3.664   2.338
45567SOL    HW238534  14.784   3.749   2.226
45568SOL     OW38535   0.978   8.408  11.341
45568SOL    HW138536   0.977   8.345  11.414
45568SOL    HW238537   0.937   8.361  11.269
45569SOL     OW38538   7.531   5.228   7.800
45569SOL    HW138539   7.615   5.242   7.843
45569SOL    HW238540   7.466   5.254   7.865
45570SOL     OW38541   4.278   9.553   1.102
45570SOL    HW138542   4.205   9.609   1.128
45570SOL    HW238543   4.356   9.597   1.137
45571SOL     OW38544   5.957   7.100   0.557
45571SOL    HW138545   5.997   7.187   0.561
45571SOL    HW238546   6.007   7.049   0.621
45572SOL     OW38547   8.200   7.129   8.267
45572SOL    HW138548   8.127   7.190   8.253
45572SOL    HW238549   8.251   7.169   8.338
45573SOL     OW38550  10.443   4.652   4.161
45573SOL    HW138551  10.508   4.595   4.119
45573SOL    HW238552  10.391   4.594   4.216
45574SOL     OW38553  14.755  12.920  12.134
45574SOL    HW138554  14.831  12.867  12.155
45574SOL    HW238555  14.740  12.905  12.041
45575SOL     OW38556   0.540  13.031   3.889
45575SOL    HW138557   0.610  13.077   3.936
45575SOL    HW238558   0.459  13.074   3.918
45576SOL     OW38559  13.823   7.290  11.758
45576SOL    HW138560  13.772   7.285  11.677
45576SOL    HW238561  13.886   7.360  11.742
45577SOL     OW38562  12.224  12.249  14.110
45577SOL    HW138563  12.189  12.292  14.189
45577SOL    HW238564  12.221  12.318  14.043
45578SOL     OW38565   0.929   2.121  13.314
45578SOL    HW138566   0.921   2.216  13.325
45578SOL    HW238567   0.994   2.110  13.245
45579SOL     OW38568   9.442  14.655   6.339
45579SOL    HW138569   9.377  14.599   6.296
45579SOL    HW238570   9.514  14.661   6.277
45580SOL     OW38571  12.474  14.188   5.719
45580SOL    HW138572  12.490  14.097   5.744
45580SOL    HW238573  12.558  14.218   5.684
45581SOL     OW38574   5.252   3.893   8.876
45581SOL    HW138575   5.307   3.963   8.910
45581SOL    HW238576   5.213   3.852   8.953
45582SOL     OW38577  13.740   5.426  11.633
45582SOL    HW138578  13.799   5.358  11.665
45582SOL    HW238579  13.796   5.486  11.584
45583SOL     OW38580   6.278   4.874   0.724
45583SOL    HW138581   6.237   4.868   0.637
45583SOL    HW238582   6.348   4.809   0.722
45584SOL     OW38583  12.772   9.656   2.094
45584SOL    HW138584  12.840   9.623   2.151
45584SOL    HW238585  12.770   9.750   2.112
45585SOL     OW38586   4.301   5.953   4.200
45585SOL    HW138587   4.242   6.020   4.236
45585SOL    HW238588   4.244   5.880   4.177
45586SOL     OW38589   9.248   3.559  13.320
45586SOL    HW138590   9.179   3.493  13.329
45586SOL    HW238591   9.303   3.546  13.398
45587SOL     OW38592   5.957   5.265  12.430
45587SOL    HW138593   5.971   5.271  12.335
45587SOL    HW238594   5.919   5.178  12.443
45588SOL     OW38595  11.586   3.583   8.390
45588SOL    HW138596  11.532   3.552   8.462
45588SOL    HW238597  11.539   3.558   8.311
45589SOL     OW38598   0.319   0.511   4.679
45589SOL    HW138599   0.255   0.448   4.646
45589SOL    HW238600   0.346   0.561   4.602
45590SOL     OW38601   2.392   1.131   5.062
45590SOL    HW138602   2.421   1.058   5.008
45590SOL    HW238603   2.300   1.144   5.038
45591SOL     OW38604   3.495  11.174   7.667
45591SOL    HW138605   3.436  11.113   7.623
45591SOL    HW238606   3.576  11.170   7.615
45592SOL     OW38607  13.024  10.359   5.746
45592SOL    HW138608  13.116  10.334   5.749
45592SOL    HW238609  12.992  10.346   5.835
45593SOL     OW38610   1.842  12.332   1.375
45593SOL    HW138611   1.845  12.282   1.456
45593SOL    HW238612   1.791  12.411   1.398
45594SOL     OW38613  14.271  10.260  11.190
45594SOL    HW138614  14.250  10.236  11.280
45594SOL    HW238615  14.287  10.355  11.193
45595SOL     OW38616  12.087   2.123   9.234
45595SOL    HW138617  12.037   2.050   9.270
45595SOL    HW238618  12.091   2.187   9.305
45596SOL     OW38619   3.166   1.543  12.186
45596SOL    HW138620   3.228   1.488  12.233
45596SOL    HW238621   3.120   1.592  12.255
45597SOL     OW38622   7.743   5.999   8.256
45597SOL    HW138623   7.806   6.068   8.275
45597SOL    HW238624   7.744   5.989   8.161
45598SOL     OW38625   5.848   7.885   0.396
45598SOL    HW138626   5.797   7.811   0.430
45598SOL    HW238627   5.792   7.961   0.409
45599SOL     OW38628   3.275   2.371   9.614
45599SOL    HW138629   3.263   2.460   9.583
45599SOL    HW238630   3.369   2.355   9.606
45600SOL     OW38631   9.790   9.068   0.618
45600SOL    HW138632   9.726   9.018   0.669
45600SOL    HW238633   9.842   9.001   0.573
45601SOL     OW38634   6.497  11.674   1.488
45601SOL    HW138635   6.429  11.740   1.484
45601SOL    HW238636   6.515  11.664   1.582
45602SOL     OW38637   4.585  13.528   0.555
45602SOL    HW138638   4.496  13.523   0.591
45602SOL    HW238639   4.572  13.540   0.461
45603SOL     OW38640   7.504   2.792   6.882
45603SOL    HW138641   7.450   2.715   6.864
45603SOL    HW238642   7.577   2.786   6.821
45604SOL     OW38643   9.718   7.824   3.161
45604SOL    HW138644   9.689   7.900   3.210
45604SOL    HW238645   9.811   7.815   3.183
45605SOL     OW38646  11.207  13.137   9.422
45605SOL    HW138647  11.261  13.118   9.346
45605SOL    HW238648  11.119  13.148   9.387
45606SOL     OW38649   4.375   7.958   5.220
45606SOL    HW138650   4.346   8.034   5.271
45606SOL    HW238651   4.372   7.987   5.129
45607SOL     OW38652   3.028   1.411   9.806
45607SOL    HW138653   2.940   1.422   9.842
45607SOL    HW238654   3.015   1.410   9.711
45608SOL     OW38655  11.308   7.242   4.851
45608SOL    HW138656  11.335   7.180   4.919
45608SOL    HW238657  11.302   7.189   4.772
45609SOL     OW38658  11.744   4.740   8.766
45609SOL    HW138659  11.770   4.743   8.674
45609SOL    HW238660  11.783   4.659   8.800
45610SOL     OW38661  11.612   9.707   5.174
45610SOL    HW138662  11.563   9.663   5.244
45610SOL    HW238663  11.669   9.769   5.220
45611SOL     OW38664  10.091  13.616  13.843
45611SOL    HW138665  10.142  13.540  13.815
45611SOL    HW238666  10.028  13.630  13.772
45612SOL     OW38667   5.487   1.469   6.509
45612SOL    HW138668   5.550   1.512   6.567
45612SOL    HW238669   5.453   1.541   6.455
45613SOL     OW38670  11.113   5.722   1.163
45613SOL    HW138671  11.135   5.714   1.070
45613SOL    HW238672  11.061   5.802   1.170
45614SOL     OW38673  12.492   9.195  13.338
45614SOL    HW138674  12.432   9.239  13.278
45614SOL    HW238675  12.446   9.115  13.364
45615SOL     OW38676   6.118  12.991   0.035
45615SOL    HW138677   6.044  13.013   0.091
45615SOL    HW238678   6.100  13.035  14.828
45616SOL     OW38679   1.213   6.507   3.467
45616SOL    HW138680   1.150   6.483   3.535
45616SOL    HW238681   1.299   6.488   3.505
45617SOL     OW38682   6.769   2.741  14.208
45617SOL    HW138683   6.684   2.786  14.205
45617SOL    HW238684   6.747   2.650  14.230
45618SOL     OW38685   1.329   8.596  13.624
45618SOL    HW138686   1.383   8.563  13.552
45618SOL    HW238687   1.376   8.568  13.703
45619SOL     OW38688   1.806   2.990   2.555
45619SOL    HW138689   1.864   3.064   2.573
45619SOL    HW238690   1.724   3.030   2.526
45620SOL     OW38691   0.544   7.818  11.204
45620SOL    HW138692   0.630   7.859  11.218
45620SOL    HW238693   0.564   7.726  11.187
45621SOL     OW38694   3.707  10.131   2.884
45621SOL    HW138695   3.660  10.100   2.807
45621SOL    HW238696   3.696  10.227   2.882
45622SOL     OW38697   2.762  14.842   2.741
45622SOL    HW138698   2.833  14.781   2.720
45622SOL    HW238699   2.694  14.786   2.780
45623SOL     OW38700  14.789   9.709   3.167
45623SOL    HW138701  14.739   9.642   3.119
45623SOL    HW238702  14.835   9.660   3.236
45624SOL     OW38703   1.740  13.631   9.639
45624SOL    HW138704   1.726  13.716   9.597
45624SOL    HW238705   1.722  13.567   9.570
45625SOL     OW38706   7.280  14.811  11.857
45625SOL    HW138707   7.241   0.012  11.898
45625SOL    HW238708   7.205  14.755  11.837
45626SOL     OW38709   3.876  12.368   1.684
45626SOL    HW138710   3.953  12.423   1.697
45626SOL    HW238711   3.846  12.347   1.772
45627SOL     OW38712   4.514   7.672   4.918
45627SOL    HW138713   4.587   7.708   4.868
45627SOL    HW238714   4.533   7.578   4.924
45628SOL     OW38715  13.889   1.541   7.192
45628SOL    HW138716  13.831   1.474   7.156
45628SOL    HW238717  13.860   1.552   7.282
45629SOL     OW38718   5.041   6.370   1.589
45629SOL    HW138719   4.963   6.382   1.643
45629SOL    HW238720   5.088   6.453   1.596
45630SOL     OW38721  13.022   3.397   9.203
45630SOL    HW138722  12.963   3.345   9.257
45630SOL    HW238723  12.972   3.477   9.183
45631SOL     OW38724   9.692   7.572   9.456
45631SOL    HW138725   9.664   7.481   9.444
45631SOL    HW238726   9.612   7.623   9.444
45632SOL     OW38727   8.661   0.205   5.627
45632SOL    HW138728   8.584   0.229   5.678
45632SOL    HW238729   8.729   0.266   5.657
45633SOL     OW38730   4.800  13.910   6.008
45633SOL    HW138731   4.847  13.936   5.928
45633SOL    HW238732   4.865  13.920   6.078
45634SOL     OW38733  11.420   6.872   7.291
45634SOL    HW138734  11.452   6.815   7.361
45634SOL    HW238735  11.495   6.882   7.232
45635SOL     OW38736   5.138   1.883  10.924
45635SOL    HW138737   5.092   1.899  10.842
45635SOL    HW238738   5.175   1.968  10.948
45636SOL     OW38739  14.108   0.766  10.256
45636SOL    HW138740  14.195   0.733  10.276
45636SOL    HW238741  14.070   0.702  10.197
45637SOL     OW38742  10.074   0.448   0.450
45637SOL    HW138743  10.152   0.503   0.449
45637SOL    HW238744  10.059   0.429   0.542
45638SOL     OW38745   9.134   9.759   3.760
45638SOL    HW138746   9.080   9.696   3.806
45638SOL    HW238747   9.205   9.707   3.722
45639SOL     OW38748   4.433   2.750  11.581
45639SOL    HW138749   4.373   2.825  11.585
45639SOL    HW238750   4.512   2.784  11.541
45640SOL     OW38751   7.945   8.004   3.914
45640SOL    HW138752   7.919   8.057   3.838
45640SOL    HW238753   7.904   8.049   3.989
45641SOL     OW38754   8.157   1.064   3.661
45641SOL    HW138755   8.071   1.107   3.654
45641SOL    HW238756   8.179   1.041   3.570
45642SOL     OW38757  10.339   7.465  14.400
45642SOL    HW138758  10.309   7.459  14.310
45642SOL    HW238759  10.299   7.545  14.434
45643SOL     OW38760  11.427  12.572  13.984
45643SOL    HW138761  11.508  12.534  13.949
45643SOL    HW238762  11.441  12.576  14.079
45644SOL     OW38763  11.398  12.741  10.940
45644SOL    HW138764  11.339  12.734  10.865
45644SOL    HW238765  11.359  12.685  11.007
45645SOL     OW38766  14.502   3.127  12.883
45645SOL    HW138767  14.421   3.075  12.879
45645SOL    HW238768  14.496   3.187  12.808
45646SOL     OW38769  12.311  14.512   4.028
45646SOL    HW138770  12.359  14.562   3.962
45646SOL    HW238771  12.262  14.447   3.977
45647SOL     OW38772   3.475  14.564  13.211
45647SOL    HW138773   3.427  14.640  13.247
45647SOL    HW238774   3.411  14.493  13.212
45648SOL     OW38775   0.766   2.644   1.265
45648SOL    HW138776   0.807   2.731   1.262
45648SOL    HW238777   0.799   2.604   1.345
45649SOL     OW38778   4.677  11.030  14.609
45649SOL    HW138779   4.753  10.999  14.658
45649SOL    HW238780   4.655  11.113  14.650
45650SOL     OW38781  13.385  12.051   5.276
45650SOL    HW138782  13.448  12.119   5.301
45650SOL    HW238783  13.394  12.043   5.181
45651SOL     OW38784  11.658   9.087  10.464
45651SOL    HW138785  11.570   9.070  10.499
45651SOL    HW238786  11.651   9.174  10.425
45652SOL     OW38787   4.709   4.470   8.070
45652SOL    HW138788   4.687   4.383   8.038
45652SOL    HW238789   4.797   4.487   8.037
45653SOL     OW38790   4.281   7.052   9.372
45653SOL    HW138791   4.200   7.005   9.353
45653SOL    HW238792   4.253   7.139   9.401
45654SOL     OW38793  12.831  12.280   4.513
45654SOL    HW138794  12.841  12.375   4.510
45654SOL    HW238795  12.755  12.261   4.457
45655SOL     OW38796   5.352  12.572   4.944
45655SOL    HW138797   5.398  12.630   4.884
45655SOL    HW238798   5.285  12.627   4.984
45656SOL     OW38799  14.724   6.427   4.709
45656SOL    HW138800  14.637   6.415   4.749
45656SOL    HW238801  14.729   6.520   4.690
45657SOL     OW38802  14.529   9.479  12.363
45657SOL    HW138803  14.527   9.537  12.287
45657SOL    HW238804  14.568   9.398  12.330
45658SOL     OW38805  11.491   8.799  10.654
45658SOL    HW138806  11.471   8.891  10.669
45658SOL    HW238807  11.408   8.753  10.664
45659SOL     OW38808   9.077   6.590   9.662
45659SOL    HW138809   9.008   6.553   9.717
45659SOL    HW238810   9.146   6.615   9.723
45660SOL     OW38811   2.117  13.847   8.488
45660SOL    HW138812   2.120  13.892   8.573
45660SOL    HW238813   2.027  13.859   8.458
45661SOL     OW38814  14.842   9.864  14.798
45661SOL    HW138815  14.762   9.874  14.849
45661SOL    HW238816  14.841   9.774  14.768
45662SOL     OW38817   8.463  13.394  14.716
45662SOL    HW138818   8.437  13.385  14.625
45662SOL    HW238819   8.431  13.480  14.742
45663SOL     OW38820  12.599   1.550  13.473
45663SOL    HW138821  12.509   1.517  13.471
45663SOL    HW238822  12.592   1.641  13.443
45664SOL     OW38823   5.039  10.707  10.376
45664SOL    HW138824   5.014  10.625  10.419
45664SOL    HW238825   5.011  10.696  10.285
45665SOL     OW38826   6.574  13.471   2.154
45665SOL    HW138827   6.526  13.547   2.121
45665SOL    HW238828   6.522  13.396   2.126
45666SOL     OW38829   3.521   2.635   7.384
45666SOL    HW138830   3.526   2.585   7.466
45666SOL    HW238831   3.569   2.582   7.321
45667SOL     OW38832  13.315   9.627   3.758
45667SOL    HW138833  13.297   9.566   3.830
45667SOL    HW238834  13.285   9.580   3.680
45668SOL     OW38835   9.174   6.971   3.517
45668SOL    HW138836   9.081   6.952   3.509
45668SOL    HW238837   9.197   7.016   3.436
45669SOL     OW38838   6.976   9.559   1.643
45669SOL    HW138839   6.884   9.542   1.624
45669SOL    HW238840   7.023   9.525   1.566
45670SOL     OW38841  12.624  14.276   9.729
45670SOL    HW138842  12.552  14.264   9.791
45670SOL    HW238843  12.703  14.262   9.780
45671SOL     OW38844   1.510  13.240   0.825
45671SOL    HW138845   1.463  13.161   0.852
45671SOL    HW238846   1.495  13.246   0.731
45672SOL     OW38847   5.283   5.455   5.319
45672SOL    HW138848   5.252   5.480   5.232
45672SOL    HW238849   5.236   5.373   5.338
45673SOL     OW38850  14.625   0.045  13.188
45673SOL    HW138851  14.657   0.126  13.149
45673SOL    HW238852  14.607  14.864  13.113
45674SOL     OW38853   7.806   5.446   0.678
45674SOL    HW138854   7.822   5.379   0.745
45674SOL    HW238855   7.753   5.512   0.722
45675SOL     OW38856   8.548  13.382   0.285
45675SOL    HW138857   8.634  13.419   0.269
45675SOL    HW238858   8.525  13.411   0.373
45676SOL     OW38859   5.384   3.372   7.915
45676SOL    HW138860   5.447   3.328   7.857
45676SOL    HW238861   5.335   3.301   7.955
45677SOL     OW38862  11.298   5.205   8.997
45677SOL    HW138863  11.251   5.267   8.942
45677SOL    HW238864  11.316   5.252   9.078
45678SOL     OW38865   9.207   3.451   6.586
45678SOL    HW138866   9.121   3.480   6.555
45678SOL    HW238867   9.225   3.506   6.661
45679SOL     OW38868  13.178   6.264   1.633
45679SOL    HW138869  13.224   6.190   1.595
45679SOL    HW238870  13.179   6.247   1.727
45680SOL     OW38871   4.122   8.870   2.474
45680SOL    HW138872   4.065   8.802   2.511
45680SOL    HW238873   4.170   8.825   2.404
45681SOL     OW38874   5.224   0.010  12.231
45681SOL    HW138875   5.166  14.812  12.252
45681SOL    HW238876   5.275  14.855  12.156
45682SOL     OW38877   6.036  10.558   4.444
45682SOL    HW138878   5.994  10.602   4.517
45682SOL    HW238879   6.093  10.493   4.485
45683SOL     OW38880   1.727  12.723   8.845
45683SOL    HW138881   1.787  12.698   8.775
45683SOL    HW238882   1.644  12.738   8.801
45684SOL     OW38883   6.393   5.958   2.607
45684SOL    HW138884   6.453   6.027   2.634
45684SOL    HW238885   6.417   5.883   2.661
45685SOL     OW38886   9.548  13.939  12.060
45685SOL    HW138887   9.637  13.921  12.087
45685SOL    HW238888   9.502  13.960  12.141
45686SOL     OW38889   0.289   2.159  11.378
45686SOL    HW138890   0.273   2.249  11.405
45686SOL    HW238891   0.219   2.140  11.315
45687SOL     OW38892   8.315   7.107  14.385
45687SOL    HW138893   8.410   7.108  14.371
45687SOL    HW238894   8.300   7.178  14.447
45688SOL     OW38895   3.799  13.198  14.308
45688SOL    HW138896   3.792  13.139  14.233
45688SOL    HW238897   3.829  13.280  14.270
45689SOL     OW38898  10.898   2.473  14.137
45689SOL    HW138899  10.949   2.544  14.177
45689SOL    HW238900  10.843   2.439  14.208
45690SOL     OW38901  11.444   2.635  12.937
45690SOL    HW138902  11.499   2.575  12.988
45690SOL    HW238903  11.499   2.662  12.863
45691SOL     OW38904   1.670   4.914  13.370
45691SOL    HW138905   1.627   4.994  13.402
45691SOL    HW238906   1.756   4.915  13.411
45692SOL     OW38907   0.681   6.913  11.606
45692SOL    HW138908   0.691   6.910  11.702
45692SOL    HW238909   0.755   6.862  11.573
45693SOL     OW38910   2.026   8.720   1.323
45693SOL    HW138911   2.101   8.672   1.288
45693SOL    HW238912   2.039   8.810   1.292
45694SOL     OW38913  11.821   5.215  10.719
45694SOL    HW138914  11.739   5.203  10.671
45694SOL    HW238915  11.824   5.141  10.780
45695SOL     OW38916   3.545   1.224   5.149
45695SOL    HW138917   3.463   1.184   5.119
45695SOL    HW238918   3.598   1.232   5.069
45696SOL     OW38919   2.679   8.907  10.499
45696SOL    HW138920   2.586   8.898  10.477
45696SOL    HW238921   2.691   9.001  10.512
45697SOL     OW38922  13.566   5.848   4.988
45697SOL    HW138923  13.569   5.769   5.042
45697SOL    HW238924  13.657   5.876   4.981
45698SOL     OW38925   7.029  10.290   1.782
45698SOL    HW138926   6.984  10.235   1.846
45698SOL    HW238927   6.959  10.320   1.723
45699SOL     OW38928  11.677   5.788  13.329
45699SOL    HW138929  11.659   5.762  13.420
45699SOL    HW238930  11.591   5.813  13.294
45700SOL     OW38931   5.917   5.664   9.031
45700SOL    HW138932   6.008   5.653   9.058
45700SOL    HW238933   5.917   5.744   8.980
45701SOL     OW38934   1.650   3.035   5.395
45701SOL    HW138935   1.655   2.996   5.307
45701SOL    HW238936   1.570   2.999   5.432
45702SOL     OW38937   7.571   8.085   4.202
45702SOL    HW138938   7.560   8.129   4.286
45702SOL    HW238939   7.492   8.033   4.191
45703SOL     OW38940   9.094  14.117   4.629
45703SOL    HW138941   9.108  14.049   4.694
45703SOL    HW238942   9.179  14.129   4.588
45704SOL     OW38943   7.082  13.448   9.346
45704SOL    HW138944   7.130  13.529   9.365
45704SOL    HW238945   7.136  13.403   9.281
45705SOL     OW38946   9.960   2.303   3.119
45705SOL    HW138947   9.908   2.317   3.198
45705SOL    HW238948   9.916   2.232   3.074
45706SOL     OW38949   4.048   0.485   1.055
45706SOL    HW138950   3.997   0.518   0.981
45706SOL    HW238951   4.121   0.547   1.062
45707SOL     OW38952   4.524  10.293   2.624
45707SOL    HW138953   4.489  10.369   2.579
45707SOL    HW238954   4.596  10.263   2.568
45708SOL     OW38955   9.231   6.649   8.836
45708SOL    HW138956   9.206   6.604   8.755
45708SOL    HW238957   9.221   6.583   8.904
45709SOL     OW38958   0.766   8.998  14.575
45709SOL    HW138959   0.832   8.987  14.643
45709SOL    HW238960   0.811   9.045  14.505
45710SOL     OW38961   0.866   5.464   7.362
45710SOL    HW138962   0.890   5.376   7.392
45710SOL    HW238963   0.949   5.509   7.350
45711SOL     OW38964  12.574   2.206   8.512
45711SOL    HW138965  12.611   2.161   8.436
45711SOL    HW238966  12.497   2.252   8.478
45712SOL     OW38967  13.313   8.423  10.771
45712SOL    HW138968  13.304   8.442  10.677
45712SOL    HW238969  13.347   8.504  10.809
45713SOL     OW38970   3.569   2.176   1.051
45713SOL    HW138971   3.503   2.201   0.986
45713SOL    HW238972   3.653   2.202   1.012
45714SOL     OW38973   6.002   6.048  13.730
45714SOL    HW138974   6.017   5.954  13.715
45714SOL    HW238975   6.030   6.062  13.820
45715SOL     OW38976  10.934  12.843   4.546
45715SOL    HW138977  10.949  12.936   4.530
45715SOL    HW238978  10.851  12.839   4.594
45716SOL     OW38979  10.227   6.093   3.660
45716SOL    HW138980  10.242   6.024   3.596
45716SOL    HW238981  10.311   6.105   3.703
45717SOL     OW38982   0.978   5.836  11.671
45717SOL    HW138983   1.044   5.904  11.655
45717SOL    HW238984   0.934   5.864  11.751
45718SOL     OW38985  13.869   4.643  13.794
45718SOL    HW138986  13.858   4.710  13.726
45718SOL    HW238987  13.857   4.560  13.748
45719SOL     OW38988  12.781   5.174  10.042
45719SOL    HW138989  12.837   5.109  10.085
45719SOL    HW238990  12.842   5.232   9.995
45720SOL     OW38991  10.309  10.866   8.043
45720SOL    HW138992  10.232  10.841   8.093
45720SOL    HW238993  10.376  10.883   8.109
45721SOL     OW38994  11.792   5.043   6.119
45721SOL    HW138995  11.825   5.076   6.036
45721SOL    HW238996  11.794   4.948   6.111
45722SOL     OW38997   9.864   8.773   2.661
45722SOL    HW138998   9.881   8.790   2.753
45722SOL    HW238999   9.944   8.732   2.629
45723SOL     OW39000   5.780   2.062   5.579
45723SOL    HW139001   5.840   2.016   5.520
45723SOL    HW239002   5.706   2.084   5.523
45724SOL     OW39003  13.536  14.207  14.819
45724SOL    HW139004  13.465  14.212   0.008
45724SOL    HW239005  13.491  14.189  14.736
45725SOL     OW39006   7.685   8.986   0.679
45725SOL    HW139007   7.771   8.950   0.657
45725SOL    HW239008   7.622   8.927   0.637
45726SOL     OW39009   0.208   5.666  10.672
45726SOL    HW139010   0.209   5.761  10.657
45726SOL    HW239011   0.298   5.638  10.654
45727SOL     OW39012   9.065  12.443   3.046
45727SOL    HW139013   9.039  12.419   3.135
45727SOL    HW239014   9.001  12.509   3.020
45728SOL     OW39015   4.483  11.115   3.399
45728SOL    HW139016   4.557  11.063   3.366
45728SOL    HW239017   4.441  11.058   3.464
45729SOL     OW39018   8.494   9.298   0.625
45729SOL    HW139019   8.543   9.218   0.604
45729SOL    HW239020   8.404   9.278   0.599
45730SOL     OW39021  13.311  11.628  10.842
45730SOL    HW139022  13.343  11.716  10.862
45730SOL    HW239023  13.391  11.576  10.834
45731SOL     OW39024  13.479   9.505   4.988
45731SOL    HW139025  13.532   9.585   4.984
45731SOL    HW239026  13.499   9.468   5.074
45732SOL     OW39027  12.014  11.367   2.476
45732SOL    HW139028  11.949  11.420   2.431
45732SOL    HW239029  12.005  11.280   2.438
45733SOL     OW39030   3.395   5.552   6.191
45733SOL    HW139031   3.425   5.531   6.279
45733SOL    HW239032   3.411   5.472   6.140
45734SOL     OW39033   5.765   5.254   5.151
45734SOL    HW139034   5.751   5.288   5.063
45734SOL    HW239035   5.810   5.324   5.198
45735SOL     OW39036   9.485  13.069   6.097
45735SOL    HW139037   9.404  13.023   6.114
45735SOL    HW239038   9.459  13.161   6.088
45736SOL     OW39039   9.691   4.949   1.025
45736SOL    HW139040   9.708   5.005   0.950
45736SOL    HW239041   9.596   4.934   1.023
45737SOL     OW39042  10.575   9.778   5.099
45737SOL    HW139043  10.631   9.834   5.045
45737SOL    HW239044  10.624   9.697   5.109
45738SOL     OW39045   7.629   9.363   3.527
45738SOL    HW139046   7.663   9.280   3.493
45738SOL    HW239047   7.676   9.376   3.610
45739SOL     OW39048   9.051  10.406   5.452
45739SOL    HW139049   9.029  10.463   5.378
45739SOL    HW239050   9.018  10.453   5.529
45740SOL     OW39051   1.912  11.062   1.746
45740SOL    HW139052   1.862  11.043   1.666
45740SOL    HW239053   1.923  11.157   1.745
45741SOL     OW39054   1.720  11.230   0.517
45741SOL    HW139055   1.724  11.140   0.549
45741SOL    HW239056   1.788  11.276   0.567
45742SOL     OW39057  13.083   4.744   5.079
45742SOL    HW139058  13.177   4.729   5.069
45742SOL    HW239059  13.044   4.714   4.997
45743SOL     OW39060   1.094   6.187   2.028
45743SOL    HW139061   1.027   6.164   2.092
45743SOL    HW239062   1.172   6.205   2.081
45744SOL     OW39063   1.209  14.478   3.717
45744SOL    HW139064   1.145  14.426   3.764
45744SOL    HW239065   1.261  14.520   3.785
45745SOL     OW39066   5.472   2.186   0.182
45745SOL    HW139067   5.398   2.186   0.121
45745SOL    HW239068   5.440   2.233   0.259
45746SOL     OW39069   0.813  11.882  13.268
45746SOL    HW139070   0.817  11.816  13.199
45746SOL    HW239071   0.756  11.845  13.334
45747SOL     OW39072  12.166   8.674  11.982
45747SOL    HW139073  12.146   8.731  12.057
45747SOL    HW239074  12.238   8.619  12.012
45748SOL     OW39075  13.242   8.295   9.890
45748SOL    HW139076  13.194   8.320   9.969
45748SOL    HW239077  13.306   8.364   9.878
45749SOL     OW39078   8.670   9.373   1.046
45749SOL    HW139079   8.590   9.390   0.995
45749SOL    HW239080   8.651   9.294   1.095
45750SOL     OW39081   3.072   7.916  11.635
45750SOL    HW139082   3.046   7.871  11.715
45750SOL    HW239083   3.086   7.846  11.571
45751SOL     OW39084   9.654   6.726   2.287
45751SOL    HW139085   9.612   6.803   2.247
45751SOL    HW239086   9.713   6.693   2.219
45752SOL     OW39087   1.976  10.106  10.098
45752SOL    HW139088   1.940  10.188  10.064
45752SOL    HW239089   1.964  10.044  10.027
45753SOL     OW39090  13.835  14.323   3.426
45753SOL    HW139091  13.902  14.256   3.439
45753SOL    HW239092  13.868  14.377   3.354
45754SOL     OW39093   9.479   1.979  14.013
45754SOL    HW139094   9.542   1.937  14.072
45754SOL    HW239095   9.473   1.919  13.938
45755SOL     OW39096   1.553   3.366   0.840
45755SOL    HW139097   1.486   3.395   0.779
45755SOL    HW239098   1.609   3.307   0.789
45756SOL     OW39099   5.414  13.879   4.234
45756SOL    HW139100   5.503  13.865   4.267
45756SOL    HW239101   5.390  13.795   4.195
45757SOL     OW39102   0.862  14.031   1.336
45757SOL    HW139103   0.825  14.003   1.252
45757SOL    HW239104   0.856  14.126   1.334
45758SOL     OW39105  13.529  12.410   8.699
45758SOL    HW139106  13.472  12.369   8.764
45758SOL    HW239107  13.616  12.375   8.717
45759SOL     OW39108   7.857  10.861   6.442
45759SOL    HW139109   7.788  10.806   6.479
45759SOL    HW239110   7.859  10.938   6.500
45760SOL     OW39111  10.610  10.443   2.957
45760SOL    HW139112  10.604  10.538   2.947
45760SOL    HW239113  10.654  10.430   3.041
45761SOL     OW39114   3.316  10.532   1.435
45761SOL    HW139115   3.239  10.581   1.462
45761SOL    HW239116   3.369  10.524   1.515
45762SOL     OW39117  14.613   2.333  12.394
45762SOL    HW139118  14.696   2.288  12.380
45762SOL    HW239119  14.585   2.360  12.307
45763SOL     OW39120   6.536   4.258  14.363
45763SOL    HW139121   6.472   4.190  14.341
45763SOL    HW239122   6.495   4.306  14.435
45764SOL     OW39123  10.149  13.902   3.032
45764SOL    HW139124  10.093  13.880   3.106
45764SOL    HW239125  10.195  13.820   3.013
45765SOL     OW39126   2.950  14.084   3.873
45765SOL    HW139127   3.027  14.132   3.845
45765SOL    HW239128   2.942  14.102   3.967
45766SOL     OW39129   2.864   6.633   6.997
45766SOL    HW139130   2.816   6.713   7.022
45766SOL    HW239131   2.849   6.625   6.903
45767SOL     OW39132  11.050   4.526   2.665
45767SOL    HW139133  11.098   4.445   2.682
45767SOL    HW239134  11.096   4.567   2.592
45768SOL     OW39135  13.569   0.816   4.534
45768SOL    HW139136  13.553   0.910   4.524
45768SOL    HW239137  13.610   0.807   4.620
45769SOL     OW39138   8.567   4.773   5.985
45769SOL    HW139139   8.653   4.784   6.025
45769SOL    HW239140   8.580   4.795   5.892
45770SOL     OW39141   7.403  13.274   6.974
45770SOL    HW139142   7.396  13.238   7.063
45770SOL    HW239143   7.489  13.244   6.944
45771SOL     OW39144   3.351   6.350  14.543
45771SOL    HW139145   3.394   6.266  14.531
45771SOL    HW239146   3.389   6.407  14.477
45772SOL     OW39147  14.040   8.104  12.168
45772SOL    HW139148  14.104   8.082  12.236
45772SOL    HW239149  14.092   8.111  12.088
45773SOL     OW39150   7.760   6.668  13.355
45773SOL    HW139151   7.716   6.728  13.414
45773SOL    HW239152   7.829   6.720  13.314
45774SOL     OW39153  14.245  11.998  13.507
45774SOL    HW139154  14.257  12.047  13.426
45774SOL    HW239155  14.206  12.060  13.569
45775SOL     OW39156   6.617   5.650   4.613
45775SOL    HW139157   6.633   5.566   4.569
45775SOL    HW239158   6.619   5.714   4.542
45776SOL     OW39159   8.970  13.669   6.926
45776SOL    HW139160   9.046  13.610   6.931
45776SOL    HW239161   8.915  13.642   6.999
45777SOL     OW39162  11.607  14.451   6.716
45777SOL    HW139163  11.671  14.390   6.680
45777SOL    HW239164  11.529  14.439   6.662
45778SOL     OW39165  12.346   2.260   9.933
45778SOL    HW139166  12.397   2.308   9.868
45778SOL    HW239167  12.310   2.328   9.990
45779SOL     OW39168   6.272   7.101  11.305
45779SOL    HW139169   6.201   7.115  11.368
45779SOL    HW239170   6.338   7.166  11.329
45780SOL     OW39171   4.038  12.750   3.003
45780SOL    HW139172   4.073  12.839   3.011
45780SOL    HW239173   4.081  12.702   3.074
45781SOL     OW39174  14.021  11.538  14.685
45781SOL    HW139175  14.001  11.620  14.640
45781SOL    HW239176  13.952  11.477  14.657
45782SOL     OW39177   4.241   2.275   3.200
45782SOL    HW139178   4.198   2.212   3.258
45782SOL    HW239179   4.334   2.260   3.213
45783SOL     OW39180   2.439  10.228   7.604
45783SOL    HW139181   2.397  10.176   7.671
45783SOL    HW239182   2.377  10.229   7.531
45784SOL     OW39183   9.420   4.287   8.411
45784SOL    HW139184   9.447   4.373   8.445
45784SOL    HW239185   9.412   4.233   8.489
45785SOL     OW39186   6.212   9.570   7.111
45785SOL    HW139187   6.178   9.551   7.023
45785SOL    HW239188   6.286   9.510   7.122
45786SOL     OW39189   2.426  13.920  10.973
45786SOL    HW139190   2.344  13.913  11.023
45786SOL    HW239191   2.434  14.013  10.953
45787SOL     OW39192   9.223   6.433   1.167
45787SOL    HW139193   9.195   6.397   1.252
45787SOL    HW239194   9.290   6.497   1.190
45788SOL     OW39195   4.079   5.357   9.358
45788SOL    HW139196   4.111   5.325   9.442
45788SOL    HW239197   4.058   5.449   9.373
45789SOL     OW39198   7.721  11.503   8.748
45789SOL    HW139199   7.768  11.472   8.671
45789SOL    HW239200   7.722  11.428   8.808
45790SOL     OW39201   1.411   7.961   9.972
45790SOL    HW139202   1.385   8.024   9.904
45790SOL    HW239203   1.501   7.938   9.950
45791SOL     OW39204   9.282   3.158   2.707
45791SOL    HW139205   9.342   3.169   2.634
45791SOL    HW239206   9.312   3.078   2.751
45792SOL     OW39207   3.807   0.187   4.459
45792SOL    HW139208   3.765   0.177   4.544
45792SOL    HW239209   3.840   0.100   4.437
45793SOL     OW39210   3.765   0.334  10.170
45793SOL    HW139211   3.728   0.246  10.179
45793SOL    HW239212   3.741   0.361  10.081
45794SOL     OW39213  11.334  13.357   0.171
45794SOL    HW139214  11.332  13.389   0.081
45794SOL    HW239215  11.326  13.437   0.224
45795SOL     OW39216   3.904   4.974   1.265
45795SOL    HW139217   3.848   4.951   1.339
45795SOL    HW239218   3.954   5.050   1.295
45796SOL     OW39219  10.268  11.776   6.701
45796SOL    HW139220  10.339  11.826   6.659
45796SOL    HW239221  10.242  11.712   6.635
45797SOL     OW39222   5.899   3.902   6.582
45797SOL    HW139223   5.895   3.816   6.624
45797SOL    HW239224   5.825   3.904   6.522
45798SOL     OW39225  10.089  13.913  10.482
45798SOL    HW139226  10.111  14.006  10.488
45798SOL    HW239227  10.146  13.871  10.546
45799SOL     OW39228   7.345   1.251   8.778
45799SOL    HW139229   7.362   1.199   8.700
45799SOL    HW239230   7.299   1.329   8.746
45800SOL     OW39231   8.642   6.254   7.768
45800SOL    HW139232   8.617   6.320   7.832
45800SOL    HW239233   8.710   6.202   7.811
45801SOL     OW39234   1.243   3.880  11.705
45801SOL    HW139235   1.305   3.837  11.647
45801SOL    HW239236   1.240   3.823  11.783
45802SOL     OW39237   3.441  13.955   6.824
45802SOL    HW139238   3.399  14.037   6.853
45802SOL    HW239239   3.421  13.892   6.893
45803SOL     OW39240   7.137  11.947   7.169
45803SOL    HW139241   7.123  12.000   7.090
45803SOL    HW239242   7.107  12.003   7.240
45804SOL     OW39243  11.112   9.513   8.550
45804SOL    HW139244  11.111   9.531   8.456
45804SOL    HW239245  11.200   9.536   8.578
45805SOL     OW39246   2.801  10.391  14.725
45805SOL    HW139247   2.727  10.336  14.698
45805SOL    HW239248   2.789  10.404  14.819
45806SOL     OW39249   3.219   0.692  12.689
45806SOL    HW139250   3.221   0.710  12.783
45806SOL    HW239251   3.309   0.708  12.660
45807SOL     OW39252   8.049   9.700  14.141
45807SOL    HW139253   8.037   9.623  14.085
45807SOL    HW239254   8.113   9.672  14.207
45808SOL     OW39255  13.132   8.366   8.081
45808SOL    HW139256  13.171   8.338   8.164
45808SOL    HW239257  13.207   8.397   8.029
45809SOL     OW39258  13.895   9.557   3.436
45809SOL    HW139259  13.914   9.639   3.482
45809SOL    HW239260  13.800   9.551   3.435
45810SOL     OW39261   2.504  13.927   2.649
45810SOL    HW139262   2.409  13.941   2.641
45810SOL    HW239263   2.524  13.863   2.582
45811SOL     OW39264   1.956   2.592   3.929
45811SOL    HW139265   1.905   2.669   3.904
45811SOL    HW239266   1.894   2.519   3.922
45812SOL     OW39267  14.551   4.262   5.062
45812SOL    HW139268  14.549   4.327   5.132
45812SOL    HW239269  14.640   4.226   5.064
45813SOL     OW39270   5.357  13.819   5.642
45813SOL    HW139271   5.406  13.738   5.624
45813SOL    HW239272   5.296  13.794   5.711
45814SOL     OW39273   6.458   1.502   7.860
45814SOL    HW139274   6.469   1.464   7.773
45814SOL    HW239275   6.540   1.483   7.906
45815SOL     OW39276   7.641   4.370   8.774
45815SOL    HW139277   7.645   4.461   8.803
45815SOL    HW239278   7.650   4.374   8.679
45816SOL     OW39279   0.734  13.963  10.547
45816SOL    HW139280   0.744  13.958  10.452
45816SOL    HW239281   0.651  14.010  10.560
45817SOL     OW39282   4.577  13.085   6.101
45817SOL    HW139283   4.641  13.015   6.115
45817SOL    HW239284   4.496  13.052   6.140
45818SOL     OW39285  14.772   5.815   3.750
45818SOL    HW139286  14.746   5.870   3.824
45818SOL    HW239287  14.715   5.844   3.678
45819SOL     OW39288   0.564  10.896  14.854
45819SOL    HW139289   0.484  10.948  14.855
45819SOL    HW239290   0.543  10.819   0.031
45820SOL     OW39291  12.968   9.987  14.663
45820SOL    HW139292  13.060  10.012  14.655
45820SOL    HW239293  12.947  10.000  14.756
45821SOL     OW39294  10.212   9.202   9.657
45821SOL    HW139295  10.308   9.196   9.658
45821SOL    HW239296  10.192   9.270   9.722
45822SOL     OW39297  12.696  10.320  11.490
45822SOL    HW139298  12.644  10.251  11.448
45822SOL    HW239299  12.691  10.394  11.429
45823SOL     OW39300   7.171   5.186   6.515
45823SOL    HW139301   7.106   5.116   6.513
45823SOL    HW239302   7.254   5.142   6.495
45824SOL     OW39303   2.073  11.475   6.020
45824SOL    HW139304   2.109  11.391   5.991
45824SOL    HW239305   1.990  11.453   6.061
45825SOL     OW39306   0.405  12.104   1.977
45825SOL    HW139307   0.346  12.177   1.956
45825SOL    HW239308   0.471  12.105   1.908
45826SOL     OW39309   9.211   2.506   8.175
45826SOL    HW139310   9.203   2.593   8.216
45826SOL    HW239311   9.204   2.445   8.248
45827SOL     OW39312   1.980   0.387   2.175
45827SOL    HW139313   1.974   0.481   2.163
45827SOL    HW239314   1.890   0.359   2.194
45828SOL     OW39315  14.123  12.248   8.048
45828SOL    HW139316  14.036  12.266   8.012
45828SOL    HW239317  14.183  12.285   7.983
45829SOL     OW39318  11.276   1.952   2.445
45829SOL    HW139319  11.313   1.875   2.488
45829SOL    HW239320  11.200   1.976   2.498
45830SOL     OW39321   7.858   5.654   2.611
45830SOL    HW139322   7.946   5.621   2.629
45830SOL    HW239323   7.855   5.662   2.515
45831SOL     OW39324   6.703   8.846  13.904
45831SOL    HW139325   6.639   8.856  13.834
45831SOL    HW239326   6.784   8.880  13.868
45832SOL     OW39327  14.487   5.165   6.168
45832SOL    HW139328  14.477   5.070   6.168
45832SOL    HW239329  14.558   5.182   6.106
45833SOL     OW39330   6.176  14.451   7.232
45833SOL    HW139331   6.222  14.480   7.311
45833SOL    HW239332   6.240  14.398   7.185
45834SOL     OW39333   3.885  11.121   4.263
45834SOL    HW139334   3.797  11.159   4.256
45834SOL    HW239335   3.942  11.195   4.283
45835SOL     OW39336  12.124   6.658  13.921
45835SOL    HW139337  12.031   6.638  13.907
45835SOL    HW239338  12.123   6.730  13.984
45836SOL     OW39339   2.582   4.044   3.912
45836SOL    HW139340   2.670   4.005   3.916
45836SOL    HW239341   2.587   4.104   3.837
45837SOL     OW39342   2.561   4.635   3.048
45837SOL    HW139343   2.575   4.677   3.133
45837SOL    HW239344   2.596   4.547   3.059
45838SOL     OW39345  11.546   3.737   3.450
45838SOL    HW139346  11.599   3.749   3.529
45838SOL    HW239347  11.543   3.824   3.410
45839SOL     OW39348  10.860  10.846   7.184
45839SOL    HW139349  10.889  10.888   7.265
45839SOL    HW239350  10.929  10.783   7.164
45840SOL     OW39351   7.026   6.879  13.348
45840SOL    HW139352   6.946   6.929  13.367
45840SOL    HW239353   6.995   6.804  13.297
45841SOL     OW39354   9.369   6.507  14.215
45841SOL    HW139355   9.401   6.438  14.157
45841SOL    HW239356   9.276   6.488  14.225
45842SOL     OW39357   8.665   2.754   6.112
45842SOL    HW139358   8.720   2.745   6.034
45842SOL    HW239359   8.680   2.672   6.160
45843SOL     OW39360   3.582   5.157   5.145
45843SOL    HW139361   3.535   5.227   5.098
45843SOL    HW239362   3.610   5.097   5.076
45844SOL     OW39363   0.394   0.518   7.624
45844SOL    HW139364   0.325   0.583   7.637
45844SOL    HW239365   0.470   0.569   7.597
45845SOL     OW39366   7.974   0.263  12.356
45845SOL    HW139367   7.927   0.229  12.432
45845SOL    HW239368   7.988   0.186  12.300
45846SOL     OW39369  13.039   0.550  12.361
45846SOL    HW139370  13.075   0.637  12.377
45846SOL    HW239371  13.022   0.547  12.267
45847SOL     OW39372   5.653   1.153  13.847
45847SOL    HW139373   5.695   1.134  13.931
45847SOL    HW239374   5.563   1.122  13.857
45848SOL     OW39375   5.337   9.319   9.747
45848SOL    HW139376   5.426   9.288   9.759
45848SOL    HW239377   5.327   9.331   9.652
45849SOL     OW39378  10.690   6.871   5.959
45849SOL    HW139379  10.696   6.801   6.024
45849SOL    HW239380  10.698   6.952   6.010
45850SOL     OW39381  12.684   2.716  13.779
45850SOL    HW139382  12.674   2.703  13.873
45850SOL    HW239383  12.644   2.638  13.740
45851SOL     OW39384   6.150   5.554  12.222
45851SOL    HW139385   6.156   5.601  12.305
45851SOL    HW239386   6.211   5.481  12.232
45852SOL     OW39387   3.762   9.629   8.735
45852SOL    HW139388   3.720   9.563   8.679
45852SOL    HW239389   3.699   9.644   8.805
45853SOL     OW39390   9.362  12.736  14.241
45853SOL    HW139391   9.421  12.713  14.313
45853SOL    HW239392   9.316  12.814  14.272
45854SOL     OW39393   9.943  12.958   1.026
45854SOL    HW139394   9.967  13.049   1.046
45854SOL    HW239395   9.993  12.936   0.948
45855SOL     OW39396   3.034  14.344  11.427
45855SOL    HW139397   3.078  14.339  11.342
45855SOL    HW239398   3.104  14.366  11.489
45856SOL     OW39399  10.080   5.549   2.849
45856SOL    HW139400  10.001   5.495   2.858
45856SOL    HW239401  10.065   5.624   2.907
45857SOL     OW39402   3.348   4.145   5.453
45857SOL    HW139403   3.332   4.061   5.410
45857SOL    HW239404   3.433   4.174   5.418
45858SOL     OW39405   5.124   5.181   8.420
45858SOL    HW139406   5.072   5.212   8.346
45858SOL    HW239407   5.183   5.116   8.383
45859SOL     OW39408  13.003   6.763   7.879
45859SOL    HW139409  12.908   6.755   7.865
45859SOL    HW239410  13.011   6.786   7.972
45860SOL     OW39411  13.513  12.669   8.278
45860SOL    HW139412  13.557  12.749   8.304
45860SOL    HW239413  13.465  12.641   8.356
45861SOL     OW39414   2.941  10.731   3.997
45861SOL    HW139415   2.984  10.810   3.967
45861SOL    HW239416   2.897  10.696   3.920
45862SOL     OW39417  11.804  12.551   1.832
45862SOL    HW139418  11.898  12.541   1.850
45862SOL    HW239419  11.770  12.462   1.836
45863SOL     OW39420   9.339   9.590   0.817
45863SOL    HW139421   9.244   9.587   0.814
45863SOL    HW239422   9.363   9.531   0.889
45864SOL     OW39423   0.258  12.230   6.459
45864SOL    HW139424   0.205  12.264   6.386
45864SOL    HW239425   0.194  12.207   6.526
45865SOL     OW39426   2.337  13.778   4.870
45865SOL    HW139427   2.245  13.796   4.855
45865SOL    HW239428   2.344  13.682   4.867
45866SOL     OW39429  10.570   9.821   9.337
45866SOL    HW139430  10.570   9.828   9.433
45866SOL    HW239431  10.503   9.883   9.309
45867SOL     OW39432   6.136  12.477   7.244
45867SOL    HW139433   6.087  12.522   7.175
45867SOL    HW239434   6.075  12.413   7.279
45868SOL     OW39435  13.075  12.854  10.926
45868SOL    HW139436  13.071  12.852  11.022
45868SOL    HW239437  12.985  12.836  10.898
45869SOL     OW39438  12.862   0.479   8.685
45869SOL    HW139439  12.942   0.474   8.737
45869SOL    HW239440  12.816   0.556   8.718
45870SOL     OW39441   1.749   8.241  12.422
45870SOL    HW139442   1.706   8.185  12.357
45870SOL    HW239443   1.770   8.321  12.375
45871SOL     OW39444   6.478   6.563   1.954
45871SOL    HW139445   6.526   6.487   1.920
45871SOL    HW239446   6.533   6.596   2.025
45872SOL     OW39447   5.667   9.796   1.588
45872SOL    HW139448   5.667   9.884   1.625
45872SOL    HW239449   5.607   9.746   1.644
45873SOL     OW39450   3.902  11.119  13.321
45873SOL    HW139451   3.954  11.185  13.368
45873SOL    HW239452   3.936  11.121  13.232
45874SOL     OW39453   4.898  10.176  14.647
45874SOL    HW139454   4.945  10.129  14.578
45874SOL    HW239455   4.967  10.216  14.700
45875SOL     OW39456   8.482   4.213   3.927
45875SOL    HW139457   8.573   4.219   3.898
45875SOL    HW239458   8.461   4.300   3.960
45876SOL     OW39459   0.020   9.545   6.104
45876SOL    HW139460   0.114   9.541   6.122
45876SOL    HW239461  14.855   9.543   6.190
45877SOL     OW39462   9.087   2.868  11.905
45877SOL    HW139463   9.057   2.947  11.951
45877SOL    HW239464   9.168   2.895  11.862
45878SOL     OW39465   6.977  10.946  10.441
45878SOL    HW139466   6.969  10.854  10.418
45878SOL    HW239467   7.054  10.950  10.497
45879SOL     OW39468   3.160   5.422  10.878
45879SOL    HW139469   3.202   5.338  10.897
45879SOL    HW239470   3.231   5.478  10.849
45880SOL     OW39471   7.022  10.454  11.565
45880SOL    HW139472   7.115  10.465  11.584
45880SOL    HW239473   6.986  10.415  11.644
45881SOL     OW39474   6.947   8.064   1.306
45881SOL    HW139475   6.999   8.111   1.372
45881SOL    HW239476   6.867   8.116   1.298
45882SOL     OW39477  13.188  11.091  10.295
45882SOL    HW139478  13.228  11.152  10.233
45882SOL    HW239479  13.174  11.010  10.245
45883SOL     OW39480   1.244  14.501  10.474
45883SOL    HW139481   1.178  14.570  10.476
45883SOL    HW239482   1.315  14.538  10.422
45884SOL     OW39483   0.653   9.618  12.162
45884SOL    HW139484   0.575   9.595  12.112
45884SOL    HW239485   0.641   9.710  12.185
45885SOL     OW39486   1.727   2.524   6.213
45885SOL    HW139487   1.793   2.464   6.248
45885SOL    HW239488   1.723   2.505   6.120
45886SOL     OW39489   7.418  13.107   6.345
45886SOL    HW139490   7.430  13.143   6.257
45886SOL    HW239491   7.388  13.182   6.397
45887SOL     OW39492   0.860   5.106  13.374
45887SOL    HW139493   0.785   5.056  13.340
45887SOL    HW239494   0.929   5.094  13.308
45888SOL     OW39495   0.187   3.644  13.218
45888SOL    HW139496   0.151   3.732  13.206
45888SOL    HW239497   0.268   3.658  13.266
45889SOL     OW39498   0.620  12.988   7.474
45889SOL    HW139499   0.568  13.018   7.400
45889SOL    HW239500   0.620  12.892   7.466
45890SOL     OW39501   6.485  14.037  13.963
45890SOL    HW139502   6.467  14.129  13.944
45890SOL    HW239503   6.572  14.021  13.927
45891SOL     OW39504  12.590  12.615  13.417
45891SOL    HW139505  12.677  12.624  13.379
45891SOL    HW239506  12.607  12.603  13.511
45892SOL     OW39507  11.463   3.255   6.377
45892SOL    HW139508  11.435   3.176   6.331
45892SOL    HW239509  11.528   3.225   6.440
45893SOL     OW39510  10.004   0.519   6.393
45893SOL    HW139511   9.958   0.471   6.462
45893SOL    HW239512  10.081   0.466   6.374
45894SOL     OW39513   0.991  14.565  14.524
45894SOL    HW139514   1.065  14.543  14.467
45894SOL    HW239515   0.990  14.661  14.526
45895SOL     OW39516   2.261  11.972   3.457
45895SOL    HW139517   2.239  11.970   3.364
45895SOL    HW239518   2.260  12.065   3.480
45896SOL     OW39519   2.742  10.162   2.039
45896SOL    HW139520   2.751  10.073   2.074
45896SOL    HW239521   2.758  10.153   1.945
45897SOL     OW39522   2.305   5.116   3.347
45897SOL    HW139523   2.388   5.164   3.337
45897SOL    HW239524   2.307   5.051   3.277
45898SOL     OW39525   9.255  12.978  14.337
45898SOL    HW139526   9.333  13.024  14.306
45898SOL    HW239527   9.282  12.937  14.419
45899SOL     OW39528  13.256   3.076   1.169
45899SOL    HW139529  13.175   3.097   1.123
45899SOL    HW239530  13.293   3.003   1.119
45900SOL     OW39531  10.439   5.236  12.908
45900SOL    HW139532  10.379   5.290  12.858
45900SOL    HW239533  10.454   5.285  12.989
45901SOL     OW39534   3.416  13.647   1.920
45901SOL    HW139535   3.382  13.571   1.873
45901SOL    HW239536   3.386  13.722   1.869
45902SOL     OW39537   0.449   2.626   3.391
45902SOL    HW139538   0.433   2.673   3.310
45902SOL    HW239539   0.432   2.690   3.460
45903SOL     OW39540   5.485   5.162   5.114
45903SOL    HW139541   5.492   5.228   5.182
45903SOL    HW239542   5.574   5.150   5.083
45904SOL     OW39543   3.678  13.517   3.535
45904SOL    HW139544   3.742  13.522   3.464
45904SOL    HW239545   3.720  13.561   3.609
45905SOL     OW39546   2.206  14.581   6.113
45905SOL    HW139547   2.119  14.568   6.150
45905SOL    HW239548   2.258  14.617   6.185
45906SOL     OW39549   5.408  14.129  13.670
45906SOL    HW139550   5.485  14.097  13.717
45906SOL    HW239551   5.429  14.115  13.577
45907SOL     OW39552  11.032   9.604   3.573
45907SOL    HW139553  10.971   9.679   3.575
45907SOL    HW239554  11.109   9.638   3.528
45908SOL     OW39555   3.846   7.525  13.473
45908SOL    HW139556   3.900   7.470  13.416
45908SOL    HW239557   3.824   7.469  13.547
45909SOL     OW39558   9.854  14.746   4.928
45909SOL    HW139559   9.907  14.672   4.899
45909SOL    HW239560   9.764  14.721   4.905
45910SOL     OW39561   5.076   9.468   1.369
45910SOL    HW139562   5.147   9.425   1.322
45910SOL    HW239563   5.097   9.561   1.364
45911SOL     OW39564   1.626  11.754   7.131
45911SOL    HW139565   1.627  11.759   7.035
45911SOL    HW239566   1.713  11.782   7.157
45912SOL     OW39567   6.976   2.470   6.628
45912SOL    HW139568   7.011   2.410   6.694
45912SOL    HW239569   6.887   2.439   6.611
45913SOL     OW39570  12.753   3.503   6.772
45913SOL    HW139571  12.803   3.429   6.736
45913SOL    HW239572  12.810   3.540   6.839
45914SOL     OW39573   1.384   8.991   4.284
45914SOL    HW139574   1.331   9.050   4.338
45914SOL    HW239575   1.353   9.006   4.194
45915SOL     OW39576   7.377  11.024   6.512
45915SOL    HW139577   7.420  11.011   6.427
45915SOL    HW239578   7.439  10.990   6.576
45916SOL     OW39579   1.260   4.287   1.864
45916SOL    HW139580   1.320   4.230   1.815
45916SOL    HW239581   1.291   4.282   1.955
45917SOL     OW39582   9.038   3.836  12.376
45917SOL    HW139583   9.121   3.788  12.376
45917SOL    HW239584   9.062   3.924  12.345
45918SOL     OW39585   7.340   3.185   4.766
45918SOL    HW139586   7.332   3.234   4.684
45918SOL    HW239587   7.365   3.251   4.831
45919SOL     OW39588  14.846   0.724   3.077
45919SOL    HW139589  14.773   0.780   3.101
45919SOL    HW239590  14.808   0.636   3.069
45920SOL     OW39591   5.077   1.879   8.740
45920SOL    HW139592   5.142   1.812   8.722
45920SOL    HW239593   5.001   1.853   8.688
45921SOL     OW39594   1.410   1.218   8.967
45921SOL    HW139595   1.331   1.262   8.937
45921SOL    HW239596   1.470   1.222   8.893
45922SOL     OW39597  12.551  10.615   5.119
45922SOL    HW139598  12.516  10.530   5.092
45922SOL    HW239599  12.548  10.613   5.215
45923SOL     OW39600   6.429  12.544   6.313
45923SOL    HW139601   6.435  12.457   6.352
45923SOL    HW239602   6.474  12.602   6.375
45924SOL     OW39603  14.416  14.841   0.717
45924SOL    HW139604  14.421  14.799   0.631
45924SOL    HW239605  14.505  14.834   0.753
45925SOL     OW39606   5.146   4.350   8.746
45925SOL    HW139607   5.238   4.321   8.746
45925SOL    HW239608   5.150   4.443   8.724
45926SOL     OW39609   3.710   7.857   4.652
45926SOL    HW139610   3.759   7.776   4.666
45926SOL    HW239611   3.624   7.829   4.621
45927SOL     OW39612   3.361   4.193  11.078
45927SOL    HW139613   3.452   4.206  11.104
45927SOL    HW239614   3.311   4.198  11.159
45928SOL     OW39615   5.149   1.364  10.340
45928SOL    HW139616   5.182   1.447  10.307
45928SOL    HW239617   5.227   1.311  10.355
45929SOL     OW39618   9.385   0.032   7.413
45929SOL    HW139619   9.394   0.067   7.325
45929SOL    HW239620   9.293   0.010   7.421
45930SOL     OW39621   0.608  13.227   7.838
45930SOL    HW139622   0.661  13.149   7.854
45930SOL    HW239623   0.586  13.260   7.925
45931SOL     OW39624  12.672  12.049   5.319
45931SOL    HW139625  12.712  12.129   5.286
45931SOL    HW239626  12.728  11.979   5.288
45932SOL     OW39627  12.471  12.238  10.165
45932SOL    HW139628  12.394  12.241  10.108
45932SOL    HW239629  12.461  12.313  10.223
45933SOL     OW39630  10.137  12.300   3.780
45933SOL    HW139631  10.046  12.308   3.806
45933SOL    HW239632  10.151  12.373   3.718
45934SOL     OW39633   6.962  12.837  12.552
45934SOL    HW139634   6.962  12.862  12.460
45934SOL    HW239635   7.019  12.902  12.594
45935SOL     OW39636  13.853  13.333   8.641
45935SOL    HW139637  13.854  13.406   8.578
45935SOL    HW239638  13.935  13.342   8.689
45936SOL     OW39639   3.900  10.849   5.788
45936SOL    HW139640   3.906  10.763   5.829
45936SOL    HW239641   3.846  10.900   5.848
45937SOL     OW39642   0.496   9.349   3.966
45937SOL    HW139643   0.545   9.283   3.916
45937SOL    HW239644   0.460   9.300   4.040
45938SOL     OW39645   2.112   8.233  11.409
45938SOL    HW139646   2.125   8.184  11.491
45938SOL    HW239647   2.040   8.293  11.428
45939SOL     OW39648   2.876   3.544   9.436
45939SOL    HW139649   2.828   3.473   9.395
45939SOL    HW239650   2.823   3.568   9.512
45940SOL     OW39651  14.833   9.819  13.188
45940SOL    HW139652  14.823   9.911  13.164
45940SOL    HW239653  14.753   9.799  13.237
45941SOL     OW39654  13.922   7.707   8.095
45941SOL    HW139655  13.953   7.797   8.100
45941SOL    HW239656  13.846   7.711   8.037
45942SOL     OW39657   7.728   9.104   5.710
45942SOL    HW139658   7.651   9.078   5.761
45942SOL    HW239659   7.692   9.140   5.629
45943SOL     OW39660  14.406   7.672   7.280
45943SOL    HW139661  14.328   7.693   7.228
45943SOL    HW239662  14.416   7.746   7.339
45944SOL     OW39663  13.330   7.604   5.448
45944SOL    HW139664  13.302   7.534   5.507
45944SOL    HW239665  13.285   7.682   5.480
45945SOL     OW39666   7.767   3.016   0.653
45945SOL    HW139667   7.753   3.077   0.580
45945SOL    HW239668   7.742   2.931   0.617
45946SOL     OW39669  11.896   9.585   3.100
45946SOL    HW139670  11.913   9.677   3.082
45946SOL    HW239671  11.981   9.542   3.089
45947SOL     OW39672   7.652   0.422   9.990
45947SOL    HW139673   7.652   0.337   9.946
45947SOL    HW239674   7.683   0.483   9.923
45948SOL     OW39675   3.054   3.009   0.217
45948SOL    HW139676   3.112   2.937   0.194
45948SOL    HW239677   3.080   3.034   0.306
45949SOL     OW39678   8.145  12.842  14.863
45949SOL    HW139679   8.202  12.903   0.033
45949SOL    HW239680   8.201  12.769  14.839
45950SOL     OW39681   8.387  12.236  11.918
45950SOL    HW139682   8.386  12.237  11.822
45950SOL    HW239683   8.307  12.189  11.942
45951SOL     OW39684   7.478   6.102   1.390
45951SOL    HW139685   7.548   6.068   1.447
45951SOL    HW239686   7.400   6.102   1.446
45952SOL     OW39687   1.988   2.602   5.959
45952SOL    HW139688   2.047   2.665   5.917
45952SOL    HW239689   1.902   2.643   5.955
45953SOL     OW39690   6.493   1.370  13.947
45953SOL    HW139691   6.447   1.454  13.947
45953SOL    HW239692   6.528   1.362  14.036
45954SOL     OW39693  11.769   5.845  11.526
45954SOL    HW139694  11.710   5.905  11.573
45954SOL    HW239695  11.843   5.899  11.501
45955SOL     OW39696   5.940   0.842   1.308
45955SOL    HW139697   6.003   0.913   1.319
45955SOL    HW239698   5.858   0.878   1.341
45956SOL     OW39699   1.731   1.085  12.944
45956SOL    HW139700   1.681   1.004  12.948
45956SOL    HW239701   1.742   1.102  12.851
45957SOL     OW39702   8.552  13.603  14.006
45957SOL    HW139703   8.544  13.655  13.926
45957SOL    HW239704   8.488  13.642  14.066
45958SOL     OW39705   6.522   8.849  13.115
45958SOL    HW139706   6.491   8.809  13.197
45958SOL    HW239707   6.446   8.847  13.057
45959SOL     OW39708  14.121  13.398   9.646
45959SOL    HW139709  14.176  13.403   9.568
45959SOL    HW239710  14.067  13.477   9.642
45960SOL     OW39711   7.599   8.213  14.198
45960SOL    HW139712   7.591   8.182  14.108
45960SOL    HW239713   7.515   8.193  14.238
45961SOL     OW39714   3.060   0.578   9.797
45961SOL    HW139715   3.057   0.653   9.738
45961SOL    HW239716   3.109   0.511   9.749
45962SOL     OW39717  13.092  14.148  14.392
45962SOL    HW139718  13.035  14.225  14.382
45962SOL    HW239719  13.181  14.183  14.392
45963SOL     OW39720   4.819  13.533  11.518
45963SOL    HW139721   4.758  13.606  11.510
45963SOL    HW239722   4.905  13.574  11.521
45964SOL     OW39723   0.632  13.672   1.093
45964SOL    HW139724   0.567  13.732   1.057
45964SOL    HW239725   0.701  13.730   1.127
45965SOL     OW39726   2.834  12.654   3.176
45965SOL    HW139727   2.754  12.602   3.178
45965SOL    HW239728   2.874  12.639   3.262
45966SOL     OW39729   6.452  13.589  12.993
45966SOL    HW139730   6.509  13.533  12.941
45966SOL    HW239731   6.393  13.629  12.929
45967SOL     OW39732   8.558   8.965  10.992
45967SOL    HW139733   8.467   8.994  10.983
45967SOL    HW239734   8.576   8.919  10.910
45968SOL     OW39735   9.404   3.680   8.054
45968SOL    HW139736   9.318   3.638   8.059
45968SOL    HW239737   9.432   3.688   8.145
45969SOL     OW39738  10.748  13.009  10.254
45969SOL    HW139739  10.696  13.023  10.175
45969SOL    HW239740  10.707  12.934  10.297
45970SOL     OW39741  11.037   1.304   5.245
45970SOL    HW139742  11.028   1.393   5.280
45970SOL    HW239743  10.957   1.290   5.194
45971SOL     OW39744   0.534  11.049   3.746
45971SOL    HW139745   0.523  11.029   3.839
45971SOL    HW239746   0.464  11.111   3.726
45972SOL     OW39747   4.862   2.098  13.123
45972SOL    HW139748   4.816   2.145  13.053
45972SOL    HW239749   4.884   2.166  13.187
45973SOL     OW39750  12.537  12.551   4.192
45973SOL    HW139751  12.450  12.590   4.184
45973SOL    HW239752  12.546  12.496   4.114
45974SOL     OW39753   7.652   5.253   9.799
45974SOL    HW139754   7.608   5.189   9.743
45974SOL    HW239755   7.694   5.201   9.867
45975SOL     OW39756   8.635  12.510   5.733
45975SOL    HW139757   8.611  12.587   5.683
45975SOL    HW239758   8.569  12.504   5.802
45976SOL     OW39759   7.945  12.127   5.446
45976SOL    HW139760   7.869  12.135   5.389
45976SOL    HW239761   7.947  12.035   5.470
45977SOL     OW39762  11.821   4.087   3.888
45977SOL    HW139763  11.865   4.111   3.970
45977SOL    HW239764  11.731   4.065   3.914
45978SOL     OW39765   7.731   0.763  14.134
45978SOL    HW139766   7.700   0.673  14.144
45978SOL    HW239767   7.814   0.765  14.182
45979SOL     OW39768   7.502   4.941   3.602
45979SOL    HW139769   7.558   4.992   3.659
45979SOL    HW239770   7.414   4.949   3.640
45980SOL     OW39771   4.612   7.615   6.784
45980SOL    HW139772   4.554   7.641   6.712
45980SOL    HW239773   4.640   7.698   6.823
45981SOL     OW39774   6.940   9.277  10.453
45981SOL    HW139775   6.986   9.359  10.468
45981SOL    HW239776   6.894   9.260  10.535
45982SOL     OW39777   1.092   0.093   6.723
45982SOL    HW139778   1.168   0.136   6.684
45982SOL    HW239779   1.086   0.009   6.678
45983SOL     OW39780  10.035   2.548  10.245
45983SOL    HW139781  10.091   2.501  10.184
45983SOL    HW239782  10.040   2.639  10.217
45984SOL     OW39783   0.189   1.031   8.867
45984SOL    HW139784   0.107   1.001   8.905
45984SOL    HW239785   0.164   1.102   8.808
45985SOL     OW39786   0.919   5.047  11.408
45985SOL    HW139787   0.949   5.094  11.330
45985SOL    HW239788   0.974   4.970  11.412
45986SOL     OW39789   8.125  12.477   1.248
45986SOL    HW139790   8.044  12.504   1.204
45986SOL    HW239791   8.151  12.398   1.202
45987SOL     OW39792   3.435   7.421   0.303
45987SOL    HW139793   3.501   7.478   0.342
45987SOL    HW239794   3.478   7.336   0.296
45988SOL     OW39795   4.627   8.309   2.079
45988SOL    HW139796   4.606   8.292   1.987
45988SOL    HW239797   4.714   8.347   2.078
45989SOL     OW39798  13.827  13.324   0.609
45989SOL    HW139799  13.775  13.246   0.592
45989SOL    HW239800  13.870  13.343   0.526
45990SOL     OW39801   0.993  11.326   9.423
45990SOL    HW139802   0.990  11.375   9.341
45990SOL    HW239803   0.950  11.383   9.487
45991SOL     OW39804   0.377  13.953  10.727
45991SOL    HW139805   0.342  13.979  10.813
45991SOL    HW239806   0.433  14.025  10.701
45992SOL     OW39807  13.308   5.607  11.382
45992SOL    HW139808  13.373   5.670  11.351
45992SOL    HW239809  13.329   5.525  11.336
45993SOL     OW39810   9.264   0.994   9.109
45993SOL    HW139811   9.274   0.902   9.083
45993SOL    HW239812   9.306   0.999   9.195
45994SOL     OW39813   5.044   0.359   6.876
45994SOL    HW139814   5.127   0.324   6.843
45994SOL    HW239815   4.979   0.295   6.847
45995SOL     OW39816   9.766   5.435   5.870
45995SOL    HW139817   9.782   5.391   5.954
45995SOL    HW239818   9.852   5.440   5.829
45996SOL     OW39819   8.957   9.062   6.741
45996SOL    HW139820   8.966   9.125   6.812
45996SOL    HW239821   8.929   8.981   6.784
45997SOL     OW39822   8.741   1.610  14.667
45997SOL    HW139823   8.675   1.591  14.599
45997SOL    HW239824   8.764   1.702  14.652
45998SOL     OW39825   6.088   5.332   7.643
45998SOL    HW139826   6.013   5.312   7.586
45998SOL    HW239827   6.157   5.360   7.582
45999SOL     OW39828   0.421   3.039   3.378
45999SOL    HW139829   0.363   2.971   3.344
45999SOL    HW239830   0.503   3.025   3.332
46000SOL     OW39831  10.840   7.078   1.479
46000SOL    HW139832  10.879   7.032   1.553
46000SOL    HW239833  10.890   7.159   1.472
46001SOL     OW39834  14.074   6.181   7.400
46001SOL    HW139835  14.048   6.169   7.492
46001SOL    HW239836  14.168   6.197   7.405
46002SOL     OW39837   4.512  14.737  10.268
46002SOL    HW139838   4.528  14.795  10.343
46002SOL    HW239839   4.484  14.655  10.307
46003SOL     OW39840   3.123   2.104  11.138
46003SOL    HW139841   3.086   2.173  11.192
46003SOL    HW239842   3.218   2.118  11.142
46004SOL     OW39843   2.061   4.505   8.279
46004SOL    HW139844   2.017   4.571   8.225
46004SOL    HW239845   2.118   4.555   8.336
46005SOL     OW39846   7.203   3.587   9.234
46005SOL    HW139847   7.232   3.678   9.242
46005SOL    HW239848   7.277   3.535   9.266
46006SOL     OW39849   3.697   3.740   8.769
46006SOL    HW139850   3.701   3.764   8.861
46006SOL    HW239851   3.776   3.779   8.731
46007SOL     OW39852   1.823   8.031   5.468
46007SOL    HW139853   1.835   8.123   5.492
46007SOL    HW239854   1.735   8.027   5.430
46008SOL     OW39855   7.627   2.222   8.991
46008SOL    HW139856   7.574   2.255   9.063
46008SOL    HW239857   7.683   2.155   9.031
46009SOL     OW39858   6.261   3.207   1.442
46009SOL    HW139859   6.231   3.280   1.388
46009SOL    HW239860   6.276   3.136   1.380
46010SOL     OW39861  14.668  10.212   0.735
46010SOL    HW139862  14.738  10.199   0.671
46010SOL    HW239863  14.598  10.254   0.685
46011SOL     OW39864   2.132   7.091  14.823
46011SOL    HW139865   2.128   7.012   0.001
46011SOL    HW239866   2.226   7.103  14.807
46012SOL     OW39867   0.082   7.816   2.874
46012SOL    HW139868   0.138   7.869   2.931
46012SOL    HW239869   0.130   7.811   2.791
46013SOL     OW39870  10.612   2.967  11.216
46013SOL    HW139871  10.617   2.948  11.309
46013SOL    HW239872  10.526   3.008  11.204
46014SOL     OW39873  14.385   8.079   0.758
46014SOL    HW139874  14.466   8.131   0.758
46014SOL    HW239875  14.331   8.119   0.826
46015SOL     OW39876  11.784   8.306   8.599
46015SOL    HW139877  11.848   8.240   8.624
46015SOL    HW239878  11.778   8.299   8.503
46016SOL     OW39879   5.998   1.859  10.029
46016SOL    HW139880   5.984   1.768  10.056
46016SOL    HW239881   6.090   1.877  10.049
46017SOL     OW39882  11.852  11.074  13.544
46017SOL    HW139883  11.912  11.028  13.486
46017SOL    HW239884  11.907  11.108  13.615
46018SOL     OW39885   6.532   3.386  12.023
46018SOL    HW139886   6.594   3.406  12.094
46018SOL    HW239887   6.449   3.369  12.068
46019SOL     OW39888   7.462  13.002  11.097
46019SOL    HW139889   7.553  13.013  11.069
46019SOL    HW239890   7.411  13.055  11.036
46020SOL     OW39891   4.193  11.107   9.943
46020SOL    HW139892   4.215  11.015   9.927
46020SOL    HW239893   4.101  11.114   9.918
46021SOL     OW39894  12.621   0.588  14.467
46021SOL    HW139895  12.653   0.570  14.379
46021SOL    HW239896  12.536   0.544  14.472
46022SOL     OW39897  14.121   5.798   7.669
46022SOL    HW139898  14.166   5.776   7.588
46022SOL    HW239899  14.034   5.760   7.659
46023SOL     OW39900   4.956  10.769  14.470
46023SOL    HW139901   5.037  10.726  14.499
46023SOL    HW239902   4.887  10.728  14.523
46024SOL     OW39903   1.835   0.101  11.498
46024SOL    HW139904   1.920   0.058  11.488
46024SOL    HW239905   1.817   0.095  11.592
46025SOL     OW39906  14.146  12.385   0.536
46025SOL    HW139907  14.053  12.410   0.537
46025SOL    HW239908  14.187  12.449   0.478
46026SOL     OW39909   7.430  11.134   8.736
46026SOL    HW139910   7.446  11.210   8.681
46026SOL    HW239911   7.361  11.162   8.796
46027SOL     OW39912   1.383   6.036   8.069
46027SOL    HW139913   1.364   6.117   8.022
46027SOL    HW239914   1.425   6.064   8.150
46028SOL     OW39915   2.168   8.054   9.536
46028SOL    HW139916   2.142   8.014   9.454
46028SOL    HW239917   2.231   8.122   9.512
46029SOL     OW39918   9.752   3.152   4.039
46029SOL    HW139919   9.773   3.081   3.978
46029SOL    HW239920   9.657   3.151   4.045
46030SOL     OW39921  10.474  14.078  13.092
46030SOL    HW139922  10.383  14.099  13.113
46030SOL    HW239923  10.482  13.984  13.109
46031SOL     OW39924   2.830   3.025   4.286
46031SOL    HW139925   2.878   3.108   4.279
46031SOL    HW239926   2.836   3.002   4.379
46032SOL     OW39927   0.481  10.015  12.844
46032SOL    HW139928   0.454  10.006  12.752
46032SOL    HW239929   0.420   9.959  12.892
46033SOL     OW39930  14.634   0.796  12.685
46033SOL    HW139931  14.642   0.836  12.771
46033SOL    HW239932  14.542   0.809  12.661
46034SOL     OW39933  10.563   4.725   3.579
46034SOL    HW139934  10.559   4.819   3.594
46034SOL    HW239935  10.479   4.703   3.538
46035SOL     OW39936   2.775   0.056   7.296
46035SOL    HW139937   2.753   0.123   7.232
46035SOL    HW239938   2.774  14.850   7.245
46036SOL     OW39939  11.289   8.008  14.147
46036SOL    HW139940  11.332   7.929  14.181
46036SOL    HW239941  11.289   7.996  14.052
46037SOL     OW39942  10.284   0.326   3.376
46037SOL    HW139943  10.248   0.369   3.298
46037SOL    HW239944  10.230   0.358   3.448
46038SOL     OW39945  12.544   8.260   2.064
46038SOL    HW139946  12.572   8.310   2.141
46038SOL    HW239947  12.625   8.243   2.016
46039SOL     OW39948   7.142   1.093  13.522
46039SOL    HW139949   7.224   1.116  13.566
46039SOL    HW239950   7.164   1.019  13.466
46040SOL     OW39951  14.134   1.587   6.437
46040SOL    HW139952  14.096   1.675   6.429
46040SOL    HW239953  14.201   1.597   6.505
46041SOL     OW39954   0.331   8.133   3.547
46041SOL    HW139955   0.264   8.066   3.560
46041SOL    HW239956   0.287   8.216   3.566
46042SOL     OW39957  14.461  12.203   2.730
46042SOL    HW139958  14.530  12.146   2.695
46042SOL    HW239959  14.385  12.185   2.675
46043SOL     OW39960   2.888   4.886   7.828
46043SOL    HW139961   2.818   4.950   7.839
46043SOL    HW239962   2.947   4.926   7.765
46044SOL     OW39963   3.864   4.431   8.815
46044SOL    HW139964   3.781   4.394   8.788
46044SOL    HW239965   3.845   4.475   8.898
46045SOL     OW39966   4.706  14.822   7.268
46045SOL    HW139967   4.753  14.739   7.273
46045SOL    HW239968   4.618  14.801   7.299
46046SOL     OW39969  11.054   9.765   8.033
46046SOL    HW139970  10.965   9.728   8.027
46046SOL    HW239971  11.104   9.717   7.967
46047SOL     OW39972   5.151   1.450   6.352
46047SOL    HW139973   5.220   1.395   6.315
46047SOL    HW239974   5.079   1.444   6.289
46048SOL     OW39975   3.545   2.077   1.903
46048SOL    HW139976   3.584   2.036   1.826
46048SOL    HW239977   3.600   2.051   1.976
46049SOL     OW39978   0.717   1.661   0.623
46049SOL    HW139979   0.668   1.737   0.591
46049SOL    HW239980   0.782   1.697   0.683
46050SOL     OW39981   6.316  14.152   7.173
46050SOL    HW139982   6.340  14.134   7.264
46050SOL    HW239983   6.388  14.117   7.122
46051SOL     OW39984   7.447  14.351   9.997
46051SOL    HW139985   7.371  14.297   9.975
46051SOL    HW239986   7.492  14.302  10.065
46052SOL     OW39987   6.375   7.272  12.995
46052SOL    HW139988   6.395   7.327  12.919
46052SOL    HW239989   6.284   7.293  13.016
46053SOL     OW39990   5.986   2.565   6.817
46053SOL    HW139991   6.052   2.634   6.803
46053SOL    HW239992   5.999   2.504   6.745
46054SOL     OW39993   7.677   8.509  14.556
46054SOL    HW139994   7.768   8.495  14.529
46054SOL    HW239995   7.682   8.527  14.650
46055SOL     OW39996   7.751   2.213   6.675
46055SOL    HW139997   7.723   2.176   6.759
46055SOL    HW239998   7.707   2.158   6.609
46056SOL     OW39999   7.093  11.011   2.756
46056SOL    HW140000   7.069  11.060   2.678
46056SOL    HW240001   7.086  11.074   2.828
46057SOL     OW40002   7.506   4.691   0.143
46057SOL    HW140003   7.421   4.677   0.102
46057SOL    HW240004   7.497   4.774   0.190
46058SOL     OW40005   7.935   8.327  14.568
46058SOL    HW140006   7.879   8.287  14.502
46058SOL    HW240007   8.005   8.264  14.582
46059SOL     OW40008   5.799   6.825   7.087
46059SOL    HW140009   5.756   6.766   7.150
46059SOL    HW240010   5.775   6.913   7.116
46060SOL     OW40011   4.987   2.779   9.924
46060SOL    HW140012   4.912   2.828   9.890
46060SOL    HW240013   5.045   2.769   9.849
46061SOL     OW40014   1.194  10.139   4.529
46061SOL    HW140015   1.128  10.118   4.596
46061SOL    HW240016   1.252  10.064   4.528
46062SOL     OW40017  13.180   4.893  14.449
46062SOL    HW140018  13.200   4.813  14.400
46062SOL    HW240019  13.264   4.919  14.486
46063SOL     OW40020   0.152  12.073   1.038
46063SOL    HW140021   0.064  12.074   1.074
46063SOL    HW240022   0.142  12.103   0.947
46064SOL     OW40023   9.504   2.603  14.497
46064SOL    HW140024   9.535   2.528  14.446
46064SOL    HW240025   9.582   2.637  14.540
46065SOL     OW40026   2.003   9.774  11.651
46065SOL    HW140027   1.927   9.716  11.652
46065SOL    HW240028   2.076   9.717  11.675
46066SOL     OW40029   5.531   0.703  13.639
46066SOL    HW140030   5.572   0.789  13.631
46066SOL    HW240031   5.560   0.655  13.561
46067SOL     OW40032   5.427   4.472   8.468
46067SOL    HW140033   5.493   4.503   8.406
46067SOL    HW240034   5.396   4.390   8.430
46068SOL     OW40035   0.595  13.726  12.475
46068SOL    HW140036   0.627  13.798  12.420
46068SOL    HW240037   0.667  13.707  12.534
46069SOL     OW40038  13.172  13.167   3.419
46069SOL    HW140039  13.210  13.179   3.332
46069SOL    HW240040  13.083  13.135   3.402
46070SOL     OW40041   6.979  10.150   9.765
46070SOL    HW140042   7.057  10.156   9.709
46070SOL    HW240043   6.906  10.147   9.703
46071SOL     OW40044   5.818  12.185  11.907
46071SOL    HW140045   5.864  12.164  11.988
46071SOL    HW240046   5.786  12.101  11.875
46072SOL     OW40047  10.735   0.883   8.349
46072SOL    HW140048  10.798   0.872   8.278
46072SOL    HW240049  10.743   0.975   8.373
46073SOL     OW40050  13.708   7.459  14.423
46073SOL    HW140051  13.617   7.444  14.400
46073SOL    HW240052  13.740   7.519  14.355
46074SOL     OW40053   4.348   2.320  13.548
46074SOL    HW140054   4.371   2.336  13.639
46074SOL    HW240055   4.330   2.407  13.512
46075SOL     OW40056   8.709  12.154  10.539
46075SOL    HW140057   8.699  12.147  10.444
46075SOL    HW240058   8.685  12.244  10.560
46076SOL     OW40059  12.727   6.261   0.525
46076SOL    HW140060  12.758   6.275   0.436
46076SOL    HW240061  12.757   6.338   0.573
46077SOL     OW40062   3.425   3.135  10.399
46077SOL    HW140063   3.510   3.168  10.430
46077SOL    HW240064   3.428   3.041  10.416
46078SOL     OW40065   9.483   1.421   0.212
46078SOL    HW140066   9.406   1.422   0.270
46078SOL    HW240067   9.532   1.500   0.236
46079SOL     OW40068   0.386   1.827   1.466
46079SOL    HW140069   0.376   1.920   1.490
46079SOL    HW240070   0.334   1.780   1.532
46080SOL     OW40071  10.425  14.376  11.734
46080SOL    HW140072  10.392  14.310  11.672
46080SOL    HW240073  10.421  14.458  11.685
46081SOL     OW40074  14.734  10.760  13.134
46081SOL    HW140075  14.798  10.830  13.121
46081SOL    HW240076  14.733  10.712  13.051
46082SOL     OW40077   2.886  10.479   2.470
46082SOL    HW140078   2.863  10.440   2.386
46082SOL    HW240079   2.954  10.422   2.506
46083SOL     OW40080   0.562  12.730  13.259
46083SOL    HW140081   0.591  12.790  13.328
46083SOL    HW240082   0.466  12.734  13.262
46084SOL     OW40083   3.464   6.257  11.450
46084SOL    HW140084   3.465   6.332  11.510
46084SOL    HW240085   3.512   6.288  11.373
46085SOL     OW40086  10.491  10.156   0.354
46085SOL    HW140087  10.400  10.149   0.328
46085SOL    HW240088  10.510  10.250   0.353
46086SOL     OW40089   9.521   2.475   9.327
46086SOL    HW140090   9.549   2.423   9.252
46086SOL    HW240091   9.426   2.481   9.318
46087SOL     OW40092   1.035   9.917   0.031
46087SOL    HW140093   1.055   9.975   0.105
46087SOL    HW240094   0.957   9.955  14.867
46088SOL     OW40095   6.566  14.576   3.765
46088SOL    HW140096   6.487  14.547   3.810
46088SOL    HW240097   6.623  14.499   3.765
46089SOL     OW40098   0.529  11.757   7.424
46089SOL    HW140099   0.537  11.848   7.395
46089SOL    HW240100   0.494  11.763   7.513
46090SOL     OW40101   9.822   8.182  12.888
46090SOL    HW140102   9.875   8.242  12.941
46090SOL    HW240103   9.885   8.132  12.837
46091SOL     OW40104   5.527   8.943   1.661
46091SOL    HW140105   5.442   8.967   1.698
46091SOL    HW240106   5.570   8.893   1.730
46092SOL     OW40107  11.049   9.281   2.660
46092SOL    HW140108  10.955   9.298   2.669
46092SOL    HW240109  11.073   9.324   2.578
46093SOL     OW40110   2.318   9.476   1.251
46093SOL    HW140111   2.242   9.440   1.298
46093SOL    HW240112   2.375   9.400   1.238
46094SOL     OW40113   3.532   9.514   6.947
46094SOL    HW140114   3.559   9.600   6.914
46094SOL    HW240115   3.467   9.534   7.015
46095SOL     OW40116  10.257   6.452   9.226
46095SOL    HW140117  10.235   6.379   9.285
46095SOL    HW240118  10.240   6.530   9.278
46096SOL     OW40119   0.444  10.332   5.789
46096SOL    HW140120   0.450  10.418   5.831
46096SOL    HW240121   0.354  10.303   5.807
46097SOL     OW40122   1.385   9.785   3.756
46097SOL    HW140123   1.472   9.801   3.794
46097SOL    HW240124   1.380   9.845   3.682
46098SOL     OW40125   8.606  12.735   8.964
46098SOL    HW140126   8.522  12.727   8.918
46098SOL    HW240127   8.655  12.657   8.939
46099SOL     OW40128   7.884  11.388   8.047
46099SOL    HW140129   7.833  11.462   8.015
46099SOL    HW240130   7.972  11.424   8.061
46100SOL     OW40131  14.299   1.681  12.499
46100SOL    HW140132  14.286   1.769  12.536
46100SOL    HW240133  14.211   1.644  12.493
46101SOL     OW40134   0.985  11.329   8.452
46101SOL    HW140135   0.891  11.341   8.442
46101SOL    HW240136   0.993  11.260   8.519
46102SOL     OW40137  13.924  10.979  13.649
46102SOL    HW140138  13.979  11.028  13.588
46102SOL    HW240139  13.929  11.028  13.731
46103SOL     OW40140  11.542   0.444  12.824
46103SOL    HW140141  11.627   0.472  12.790
46103SOL    HW240142  11.550   0.349  12.834
46104SOL     OW40143  10.412   3.532   3.425
46104SOL    HW140144  10.353   3.577   3.365
46104SOL    HW240145  10.362   3.521   3.505
46105SOL     OW40146   0.326  12.048  14.166
46105SOL    HW140147   0.390  12.067  14.234
46105SOL    HW240148   0.362  11.973  14.119
46106SOL     OW40149   2.784  14.202   4.259
46106SOL    HW140150   2.694  14.176   4.281
46106SOL    HW240151   2.803  14.275   4.318
46107SOL     OW40152   2.591   6.173   8.242
46107SOL    HW140153   2.635   6.169   8.157
46107SOL    HW240154   2.498   6.170   8.220
46108SOL     OW40155   2.946   4.961   8.489
46108SOL    HW140156   3.030   4.918   8.505
46108SOL    HW240157   2.883   4.889   8.486
46109SOL     OW40158   4.120   0.388  13.554
46109SOL    HW140159   4.119   0.347  13.641
46109SOL    HW240160   4.146   0.317  13.495
46110SOL     OW40161  12.427   2.062   6.400
46110SOL    HW140162  12.520   2.075   6.380
46110SOL    HW240163  12.381   2.117   6.337
46111SOL     OW40164  14.016   6.768   2.184
46111SOL    HW140165  13.972   6.830   2.127
46111SOL    HW240166  13.960   6.761   2.261
46112SOL     OW40167   6.903   8.045   4.591
46112SOL    HW140168   6.812   8.051   4.621
46112SOL    HW240169   6.909   8.111   4.521
46113SOL     OW40170   3.735  10.533  12.300
46113SOL    HW140171   3.642  10.511  12.290
46113SOL    HW240172   3.781  10.450  12.285
46114SOL     OW40173   8.585  13.810   1.222
46114SOL    HW140174   8.597  13.889   1.275
46114SOL    HW240175   8.673  13.787   1.194
46115SOL     OW40176  12.117   4.360   4.293
46115SOL    HW140177  12.081   4.313   4.368
46115SOL    HW240178  12.154   4.440   4.331
46116SOL     OW40179  14.311   4.668  12.604
46116SOL    HW140180  14.363   4.672  12.684
46116SOL    HW240181  14.256   4.590  12.615
46117SOL     OW40182   7.597  13.720   7.165
46117SOL    HW140183   7.635  13.698   7.081
46117SOL    HW240184   7.657  13.683   7.230
46118SOL     OW40185  10.568   9.844   7.932
46118SOL    HW140186  10.575   9.855   8.026
46118SOL    HW240187  10.637   9.899   7.895
46119SOL     OW40188   7.671   8.935   2.939
46119SOL    HW140189   7.683   9.028   2.955
46119SOL    HW240190   7.651   8.929   2.845
46120SOL     OW40191   7.995   7.349   1.668
46120SOL    HW140192   8.017   7.389   1.584
46120SOL    HW240193   7.906   7.316   1.657
46121SOL     OW40194   1.390  13.466   4.474
46121SOL    HW140195   1.464  13.527   4.482
46121SOL    HW240196   1.389  13.418   4.557
46122SOL     OW40197   6.366  10.576  12.049
46122SOL    HW140198   6.294  10.569  12.112
46122SOL    HW240199   6.356  10.663  12.011
46123SOL     OW40200   6.745   5.113   8.447
46123SOL    HW140201   6.710   5.186   8.396
46123SOL    HW240202   6.679   5.095   8.513
46124SOL     OW40203   4.927   4.026   2.725
46124SOL    HW140204   4.860   4.021   2.793
46124SOL    HW240205   4.934   3.937   2.691
46125SOL     OW40206   7.154   1.656   8.390
46125SOL    HW140207   7.071   1.649   8.343
46125SOL    HW240208   7.163   1.572   8.434
46126SOL     OW40209  13.396   0.221   2.254
46126SOL    HW140210  13.323   0.185   2.305
46126SOL    HW240211  13.357   0.292   2.204
46127SOL     OW40212   4.409   7.194   4.104
46127SOL    HW140213   4.399   7.194   4.199
46127SOL    HW240214   4.365   7.274   4.075
46128SOL     OW40215   8.970   6.804  13.507
46128SOL    HW140216   9.056   6.781  13.541
46128SOL    HW240217   8.948   6.732  13.448
46129SOL     OW40218   6.690  13.813   2.741
46129SOL    HW140219   6.630  13.774   2.677
46129SOL    HW240220   6.699  13.746   2.809
46130SOL     OW40221   0.298  13.357   7.745
46130SOL    HW140222   0.321  13.450   7.740
46130SOL    HW240223   0.357  13.314   7.683
46131SOL     OW40224   6.060   0.610  13.530
46131SOL    HW140225   6.009   0.670  13.477
46131SOL    HW240226   6.114   0.562  13.467
46132SOL     OW40227   5.878  10.935   7.680
46132SOL    HW140228   5.921  10.860   7.639
46132SOL    HW240229   5.948  10.998   7.695
46133SOL     OW40230  13.058   2.201   2.603
46133SOL    HW140231  13.147   2.213   2.636
46133SOL    HW240232  13.007   2.268   2.648
46134SOL     OW40233   9.120  13.879   6.968
46134SOL    HW140234   9.057  13.809   6.954
46134SOL    HW240235   9.107  13.938   6.894
46135SOL     OW40236   8.642  14.667  12.908
46135SOL    HW140237   8.621  14.757  12.931
46135SOL    HW240238   8.676  14.672  12.818
46136SOL     OW40239  13.486   5.433  11.760
46136SOL    HW140240  13.564   5.429  11.706
46136SOL    HW240241  13.438   5.509  11.727
46137SOL     OW40242  12.886  12.231  12.973
46137SOL    HW140243  12.796  12.218  13.001
46137SOL    HW240244  12.890  12.323  12.947
46138SOL     OW40245  11.877   5.084   0.384
46138SOL    HW140246  11.895   5.176   0.364
46138SOL    HW240247  11.901   5.075   0.476
46139SOL     OW40248   6.165  14.077   2.541
46139SOL    HW140249   6.126  14.001   2.496
46139SOL    HW240250   6.094  14.140   2.547
46140SOL     OW40251  10.350   3.727  10.014
46140SOL    HW140252  10.389   3.667   9.951
46140SOL    HW240253  10.414   3.797  10.023
46141SOL     OW40254   1.668   7.853  11.198
46141SOL    HW140255   1.727   7.853  11.274
46141SOL    HW240256   1.720   7.889  11.127
46142SOL     OW40257  10.798   6.673   2.214
46142SOL    HW140258  10.826   6.655   2.304
46142SOL    HW240259  10.759   6.760   2.218
46143SOL     OW40260   1.429   3.458   3.866
46143SOL    HW140261   1.385   3.489   3.945
46143SOL    HW240262   1.442   3.365   3.880
46144SOL     OW40263  10.239   1.329  12.532
46144SOL    HW140264  10.249   1.384  12.609
46144SOL    HW240265  10.160   1.362  12.488
46145SOL     OW40266   2.307  11.903   9.094
46145SOL    HW140267   2.311  11.824   9.040
46145SOL    HW240268   2.332  11.974   9.034
46146SOL     OW40269   8.953  13.473   9.805
46146SOL    HW140270   8.902  13.427   9.739
46146SOL    HW240271   9.043  13.448   9.789
46147SOL     OW40272  13.835   0.045  12.169
46147SOL    HW140273  13.921   0.064  12.207
46147SOL    HW240274  13.778   0.035  12.246
46148SOL     OW40275   3.154  12.620   3.140
46148SOL    HW140276   3.157  12.570   3.221
46148SOL    HW240277   3.061  12.631   3.122
46149SOL     OW40278  11.382   3.854   9.499
46149SOL    HW140279  11.324   3.911   9.449
46149SOL    HW240280  11.345   3.852   9.587
46150SOL     OW40281  14.079   1.637   5.048
46150SOL    HW140282  14.145   1.648   4.980
46150SOL    HW240283  14.009   1.587   5.006
46151SOL     OW40284   8.725   0.634  12.140
46151SOL    HW140285   8.793   0.568  12.137
46151SOL    HW240286   8.666   0.613  12.068
46152SOL     OW40287   8.921  11.704   7.321
46152SOL    HW140288   8.844  11.738   7.275
46152SOL    HW240289   8.928  11.759   7.399
46153SOL     OW40290   8.811   8.061   3.489
46153SOL    HW140291   8.730   8.111   3.484
46153SOL    HW240292   8.795   7.984   3.434
46154SOL     OW40293  13.509   6.315   3.668
46154SOL    HW140294  13.466   6.273   3.593
46154SOL    HW240295  13.528   6.243   3.728
46155SOL     OW40296   3.031   2.644  12.693
46155SOL    HW140297   3.103   2.611  12.748
46155SOL    HW240298   2.956   2.590  12.717
46156SOL     OW40299   3.140   7.597  11.476
46156SOL    HW140300   3.195   7.521  11.460
46156SOL    HW240301   3.176   7.636  11.556
46157SOL     OW40302   9.054   8.901   0.610
46157SOL    HW140303   9.088   8.983   0.574
46157SOL    HW240304   9.063   8.838   0.540
46158SOL     OW40305   4.453  10.004   4.768
46158SOL    HW140306   4.535  10.018   4.722
46158SOL    HW240307   4.479   9.967   4.852
46159SOL     OW40308   8.121  12.226   8.416
46159SOL    HW140309   8.178  12.186   8.350
46159SOL    HW240310   8.182  12.260   8.482
46160SOL     OW40311   3.588  14.565   8.708
46160SOL    HW140312   3.492  14.557   8.715
46160SOL    HW240313   3.612  14.621   8.781
46161SOL     OW40314   9.964   3.498   3.732
46161SOL    HW140315   9.880   3.517   3.691
46161SOL    HW240316   9.981   3.574   3.788
46162SOL     OW40317  14.622   5.324  14.065
46162SOL    HW140318  14.539   5.290  14.031
46162SOL    HW240319  14.634   5.408  14.020
46163SOL     OW40320   6.647   9.137   7.029
46163SOL    HW140321   6.628   9.171   7.117
46163SOL    HW240322   6.722   9.189   7.000
46164SOL     OW40323  13.301  14.216   4.941
46164SOL    HW140324  13.313  14.226   4.847
46164SOL    HW240325  13.206  14.211   4.953
46165SOL     OW40326   5.126   9.504   2.328
46165SOL    HW140327   5.165   9.467   2.249
46165SOL    HW240328   5.152   9.444   2.398
46166SOL     OW40329  10.222  12.380   1.261
46166SOL    HW140330  10.256  12.410   1.345
46166SOL    HW240331  10.299  12.369   1.206
46167SOL     OW40332   4.041  12.118   1.618
46167SOL    HW140333   4.118  12.130   1.673
46167SOL    HW240334   3.998  12.203   1.617
46168SOL     OW40335   8.805   6.427   3.267
46168SOL    HW140336   8.846   6.513   3.264
46168SOL    HW240337   8.800   6.399   3.176
46169SOL     OW40338   5.814  13.636   8.076
46169SOL    HW140339   5.885  13.696   8.055
46169SOL    HW240340   5.747  13.692   8.116
46170SOL     OW40341   3.131  12.792   0.868
46170SOL    HW140342   3.169  12.819   0.952
46170SOL    HW240343   3.159  12.701   0.857
46171SOL     OW40344  10.941   8.773  10.822
46171SOL    HW140345  10.902   8.852  10.785
46171SOL    HW240346  10.944   8.711  10.749
46172SOL     OW40347  11.711   2.791   8.216
46172SOL    HW140348  11.707   2.874   8.170
46172SOL    HW240349  11.795   2.793   8.262
46173SOL     OW40350   2.063   7.962   4.856
46173SOL    HW140351   2.142   7.980   4.907
46173SOL    HW240352   2.042   8.045   4.814
46174SOL     OW40353  11.858  14.406  11.896
46174SOL    HW140354  11.817  14.372  11.816
46174SOL    HW240355  11.811  14.363  11.967
46175SOL     OW40356   1.062  13.311  10.684
46175SOL    HW140357   1.109  13.393  10.669
46175SOL    HW240358   0.998  13.332  10.752
46176SOL     OW40359   9.705   9.071  10.506
46176SOL    HW140360   9.673   9.006  10.569
46176SOL    HW240361   9.638   9.139  10.506
46177SOL     OW40362  12.491   6.928   0.410
46177SOL    HW140363  12.502   6.994   0.478
46177SOL    HW240364  12.581   6.900   0.389
46178SOL     OW40365   7.157   8.222   9.302
46178SOL    HW140366   7.108   8.278   9.363
46178SOL    HW240367   7.105   8.142   9.297
46179SOL     OW40368   6.149  12.905   4.504
46179SOL    HW140369   6.186  12.884   4.590
46179SOL    HW240370   6.226  12.920   4.448
46180SOL     OW40371   9.650   7.214   0.437
46180SOL    HW140372   9.679   7.131   0.399
46180SOL    HW240373   9.556   7.200   0.454
46181SOL     OW40374  14.311   5.056  11.863
46181SOL    HW140375  14.241   4.997  11.833
46181SOL    HW240376  14.365   5.069  11.786
46182SOL     OW40377   0.044   2.558  10.620
46182SOL    HW140378  14.853   2.516  10.565
46182SOL    HW240379   0.035   2.652  10.602
46183SOL     OW40380   5.046  10.611   6.722
46183SOL    HW140381   5.056  10.541   6.787
46183SOL    HW240382   5.073  10.690   6.768
46184SOL     OW40383  12.386   8.868   2.167
46184SOL    HW140384  12.334   8.942   2.136
46184SOL    HW240385  12.388   8.807   2.093
46185SOL     OW40386  11.910   3.772   2.636
46185SOL    HW140387  11.864   3.835   2.691
46185SOL    HW240388  11.998   3.767   2.673
46186SOL     OW40389   3.791   7.603   4.636
46186SOL    HW140390   3.723   7.577   4.699
46186SOL    HW240391   3.764   7.563   4.554
46187SOL     OW40392   8.232   9.379   6.760
46187SOL    HW140393   8.267   9.433   6.831
46187SOL    HW240394   8.150   9.422   6.735
46188SOL     OW40395   2.275   0.725  12.499
46188SOL    HW140396   2.286   0.796  12.435
46188SOL    HW240397   2.330   0.751  12.573
46189SOL     OW40398  14.388   6.782  12.355
46189SOL    HW140399  14.455   6.713  12.354
46189SOL    HW240400  14.437   6.864  12.355
46190SOL     OW40401   5.618  12.267  13.289
46190SOL    HW140402   5.674  12.343  13.304
46190SOL    HW240403   5.614  12.222  13.373
46191SOL     OW40404  12.553  12.863  10.171
46191SOL    HW140405  12.548  12.901  10.083
46191SOL    HW240406  12.595  12.778  10.158
46192SOL     OW40407   0.809  10.179  14.464
46192SOL    HW140408   0.781  10.088  14.449
46192SOL    HW240409   0.727  10.229  14.459
46193SOL     OW40410   7.591   0.436   1.468
46193SOL    HW140411   7.587   0.348   1.429
46193SOL    HW240412   7.674   0.472   1.437
46194SOL     OW40413   7.912  13.653   2.792
46194SOL    HW140414   7.827  13.612   2.774
46194SOL    HW240415   7.929  13.635   2.885
46195SOL     OW40416   2.331   4.995   4.096
46195SOL    HW140417   2.321   4.905   4.063
46195SOL    HW240418   2.247   5.037   4.078
46196SOL     OW40419  13.686  11.532   7.850
46196SOL    HW140420  13.601  11.504   7.885
46196SOL    HW240421  13.697  11.479   7.771
46197SOL     OW40422  12.589   8.925   4.102
46197SOL    HW140423  12.609   8.929   4.009
46197SOL    HW240424  12.662   8.878   4.141
46198SOL     OW40425   9.590   0.089   9.027
46198SOL    HW140426   9.593   0.040   9.109
46198SOL    HW240427   9.670   0.141   9.027
46199SOL     OW40428   7.731   2.162   7.181
46199SOL    HW140429   7.643   2.153   7.218
46199SOL    HW240430   7.719   2.144   7.088
46200SOL     OW40431  10.606   2.120   1.507
46200SOL    HW140432  10.550   2.185   1.550
46200SOL    HW240433  10.675   2.102   1.572
46201SOL     OW40434  14.396   6.477  13.346
46201SOL    HW140435  14.459   6.407  13.326
46201SOL    HW240436  14.447   6.541  13.397
46202SOL     OW40437   5.746   3.696   7.125
46202SOL    HW140438   5.765   3.764   7.060
46202SOL    HW240439   5.688   3.738   7.189
46203SOL     OW40440  14.062  13.452  12.785
46203SOL    HW140441  14.150  13.425  12.759
46203SOL    HW240442  14.041  13.524  12.725
46204SOL     OW40443   3.757   3.159   3.741
46204SOL    HW140444   3.734   3.099   3.670
46204SOL    HW240445   3.804   3.230   3.699
46205SOL     OW40446   0.227   1.805  11.968
46205SOL    HW140447   0.175   1.730  11.997
46205SOL    HW240448   0.316   1.772  11.958
46206SOL     OW40449   5.683  10.406   0.887
46206SOL    HW140450   5.623  10.360   0.829
46206SOL    HW240451   5.662  10.498   0.876
46207SOL     OW40452   3.772   7.884   5.903
46207SOL    HW140453   3.700   7.821   5.905
46207SOL    HW240454   3.810   7.880   5.991
46208SOL     OW40455   2.205  10.432   2.505
46208SOL    HW140456   2.174  10.342   2.505
46208SOL    HW240457   2.282  10.431   2.448
46209SOL     OW40458   6.850   2.386   3.981
46209SOL    HW140459   6.871   2.449   4.050
46209SOL    HW240460   6.762   2.354   4.003
46210SOL     OW40461   1.127  10.223   9.423
46210SOL    HW140462   1.149  10.299   9.369
46210SOL    HW240463   1.211  10.184   9.446
46211SOL     OW40464   8.210   9.065  14.269
46211SOL    HW140465   8.292   9.087  14.314
46211SOL    HW240466   8.232   8.988  14.216
46212SOL     OW40467  13.506   4.099   5.932
46212SOL    HW140468  13.597   4.127   5.917
46212SOL    HW240469  13.457   4.137   5.859
46213SOL     OW40470   2.704  10.841   0.026
46213SOL    HW140471   2.701  10.756   0.071
46213SOL    HW240472   2.778  10.834  14.841
46214SOL     OW40473   9.337  14.203   9.724
46214SOL    HW140474   9.343  14.181   9.631
46214SOL    HW240475   9.316  14.120   9.767
46215SOL     OW40476  10.049   1.357  13.759
46215SOL    HW140477   9.979   1.378  13.697
46215SOL    HW240478  10.034   1.418  13.832
46216SOL     OW40479   7.024   1.704   2.336
46216SOL    HW140480   7.033   1.656   2.253
46216SOL    HW240481   7.030   1.637   2.403
46217SOL     OW40482   0.601  13.747   6.630
46217SOL    HW140483   0.667  13.682   6.651
46217SOL    HW240484   0.521  13.715   6.673
46218SOL     OW40485   6.150   9.929   1.385
46218SOL    HW140486   6.156   9.860   1.319
46218SOL    HW240487   6.062   9.921   1.422
46219SOL     OW40488   4.626  11.645  11.554
46219SOL    HW140489   4.571  11.700  11.498
46219SOL    HW240490   4.563  11.590  11.601
46220SOL     OW40491   0.904  11.885  12.142
46220SOL    HW140492   0.812  11.858  12.137
46220SOL    HW240493   0.927  11.910  12.053
46221SOL     OW40494  13.951   6.120  10.013
46221SOL    HW140495  13.895   6.048   9.985
46221SOL    HW240496  13.954   6.113  10.108
46222SOL     OW40497   4.989  11.236   4.276
46222SOL    HW140498   4.997  11.303   4.344
46222SOL    HW240499   4.900  11.203   4.285
46223SOL     OW40500  10.478   6.144   5.342
46223SOL    HW140501  10.523   6.204   5.282
46223SOL    HW240502  10.417   6.199   5.391
46224SOL     OW40503   5.031   1.526   8.163
46224SOL    HW140504   4.981   1.536   8.082
46224SOL    HW240505   5.108   1.476   8.138
46225SOL     OW40506   0.164   6.765  12.298
46225SOL    HW140507   0.129   6.825  12.365
46225SOL    HW240508   0.114   6.787  12.219
46226SOL     OW40509   9.657   5.758  12.570
46226SOL    HW140510   9.606   5.813  12.510
46226SOL    HW240511   9.745   5.759  12.533
46227SOL     OW40512   0.233   1.588   0.105
46227SOL    HW140513   0.265   1.582   0.194
46227SOL    HW240514   0.293   1.534   0.054
46228SOL     OW40515   9.855   1.342  14.712
46228SOL    HW140516   9.782   1.340  14.774
46228SOL    HW240517   9.817   1.378  14.632
46229SOL     OW40518  13.483  11.928   6.328
46229SOL    HW140519  13.467  11.875   6.250
46229SOL    HW240520  13.462  11.870   6.401
46230SOL     OW40521  12.551   0.375   2.483
46230SOL    HW140522  12.532   0.387   2.576
46230SOL    HW240523  12.511   0.451   2.440
46231SOL     OW40524   4.315   4.195  13.046
46231SOL    HW140525   4.288   4.267  13.102
46231SOL    HW240526   4.337   4.236  12.963
46232SOL     OW40527   3.660  14.318   9.825
46232SOL    HW140528   3.566  14.313   9.810
46232SOL    HW240529   3.670  14.388   9.890
46233SOL     OW40530   6.285  11.783  13.754
46233SOL    HW140531   6.282  11.792  13.849
46233SOL    HW240532   6.209  11.832  13.723
46234SOL     OW40533  13.109   2.705   2.743
46234SOL    HW140534  13.161   2.692   2.822
46234SOL    HW240535  13.039   2.764   2.770
46235SOL     OW40536  12.860   7.944   5.890
46235SOL    HW140537  12.812   7.976   5.966
46235SOL    HW240538  12.943   7.991   5.891
46236SOL     OW40539   0.037  14.230   0.762
46236SOL    HW140540   0.049  14.301   0.826
46236SOL    HW240541   0.006  14.275   0.683
46237SOL     OW40542   0.140  10.956   7.835
46237SOL    HW140543   0.149  10.916   7.749
46237SOL    HW240544   0.066  10.911   7.876
46238SOL     OW40545   4.869  10.939   6.772
46238SOL    HW140546   4.962  10.922   6.787
46238SOL    HW240547   4.856  10.921   6.679
46239SOL     OW40548   7.962  13.731   8.008
46239SOL    HW140549   7.874  13.719   8.045
46239SOL    HW240550   8.013  13.659   8.046
46240SOL     OW40551   6.390   9.580  11.521
46240SOL    HW140552   6.389   9.501  11.467
46240SOL    HW240553   6.432   9.647  11.467
46241SOL     OW40554   2.273  13.866  14.410
46241SOL    HW140555   2.276  13.827  14.323
46241SOL    HW240556   2.359  13.906  14.422
46242SOL     OW40557  11.482   8.462   0.339
46242SOL    HW140558  11.577   8.458   0.323
46242SOL    HW240559  11.474   8.473   0.434
46243SOL     OW40560   4.026   3.258  12.636
46243SOL    HW140561   4.052   3.293  12.721
46243SOL    HW240562   4.022   3.335  12.579
46244SOL     OW40563   3.005   9.669   2.635
46244SOL    HW140564   3.085   9.713   2.662
46244SOL    HW240565   2.992   9.695   2.544
46245SOL     OW40566   3.380   1.071   1.158
46245SOL    HW140567   3.378   1.166   1.147
46245SOL    HW240568   3.414   1.058   1.246
46246SOL     OW40569  11.596   0.084   4.081
46246SOL    HW140570  11.642   0.026   4.141
46246SOL    HW240571  11.636   0.068   3.995
46247SOL     OW40572   3.190  12.532   0.894
46247SOL    HW140573   3.146  12.502   0.815
46247SOL    HW240574   3.142  12.490   0.966
46248SOL     OW40575   4.855  14.031  11.414
46248SOL    HW140576   4.882  14.111  11.460
46248SOL    HW240577   4.856  14.055  11.321
46249SOL     OW40578   7.035  11.316   7.323
46249SOL    HW140579   7.062  11.402   7.290
46249SOL    HW240580   7.028  11.327   7.418
46250SOL     OW40581   7.218  14.384  10.796
46250SOL    HW140582   7.212  14.323  10.722
46250SOL    HW240583   7.169  14.461  10.766
46251SOL     OW40584   0.102   0.209  12.181
46251SOL    HW140585   0.138   0.255  12.256
46251SOL    HW240586   0.107   0.117  12.204
46252SOL     OW40587  10.591   6.938   6.406
46252SOL    HW140588  10.511   6.963   6.452
46252SOL    HW240589  10.658   6.936   6.474
46253SOL     OW40590  13.147  10.226   8.932
46253SOL    HW140591  13.093  10.209   8.855
46253SOL    HW240592  13.134  10.149   8.988
46254SOL     OW40593   2.846   5.779   1.702
46254SOL    HW140594   2.868   5.711   1.639
46254SOL    HW240595   2.794   5.842   1.651
46255SOL     OW40596   2.108   8.157   4.165
46255SOL    HW140597   2.149   8.241   4.182
46255SOL    HW240598   2.014   8.176   4.163
46256SOL     OW40599   3.806  14.391   4.828
46256SOL    HW140600   3.711  14.392   4.823
46256SOL    HW240601   3.828  14.303   4.860
46257SOL     OW40602   6.135   4.673  11.129
46257SOL    HW140603   6.207   4.618  11.160
46257SOL    HW240604   6.061   4.613  11.120
46258SOL     OW40605  13.094   8.423   6.239
46258SOL    HW140606  13.141   8.502   6.212
46258SOL    HW240607  13.117   8.411   6.331
46259SOL     OW40608   9.162   1.961   9.034
46259SOL    HW140609   9.149   1.885   8.978
46259SOL    HW240610   9.081   1.969   9.084
46260SOL     OW40611  14.206  14.145   1.263
46260SOL    HW140612  14.282  14.150   1.206
46260SOL    HW240613  14.208  14.226   1.314
46261SOL     OW40614   5.028  10.935  10.565
46261SOL    HW140615   5.044  10.871  10.496
46261SOL    HW240616   5.053  11.019  10.526
46262SOL     OW40617   6.057   1.392   7.499
46262SOL    HW140618   5.981   1.334   7.489
46262SOL    HW240619   6.132   1.332   7.506
46263SOL     OW40620   9.422   9.134   6.489
46263SOL    HW140621   9.347   9.193   6.482
46263SOL    HW240622   9.459   9.152   6.575
46264SOL     OW40623  11.636  10.065  10.654
46264SOL    HW140624  11.639   9.971  10.634
46264SOL    HW240625  11.595  10.104  10.577
46265SOL     OW40626   2.933   9.881   9.994
46265SOL    HW140627   2.953   9.900   9.902
46265SOL    HW240628   2.981   9.801  10.013
46266SOL     OW40629  10.467   4.718  13.170
46266SOL    HW140630  10.413   4.700  13.093
46266SOL    HW240631  10.556   4.728  13.136
46267SOL     OW40632   0.611  12.355   6.545
46267SOL    HW140633   0.617  12.320   6.456
46267SOL    HW240634   0.544  12.422   6.539
46268SOL     OW40635  10.613   9.355  11.439
46268SOL    HW140636  10.598   9.421  11.372
46268SOL    HW240637  10.634   9.276  11.390
46269SOL     OW40638   6.689   7.122   3.779
46269SOL    HW140639   6.697   7.160   3.692
46269SOL    HW240640   6.709   7.194   3.839
46270SOL     OW40641  10.827   3.588   6.071
46270SOL    HW140642  10.899   3.638   6.032
46270SOL    HW240643  10.867   3.504   6.096
46271SOL     OW40644   8.120   9.035  12.071
46271SOL    HW140645   8.134   9.063  11.981
46271SOL    HW240646   8.071   9.108  12.111
46272SOL     OW40647   1.850   2.020   5.091
46272SOL    HW140648   1.830   1.928   5.109
46272SOL    HW240649   1.786   2.069   5.142
46273SOL     OW40650  10.480  13.408   8.832
46273SOL    HW140651  10.455  13.488   8.878
46273SOL    HW240652  10.564  13.383   8.870
46274SOL     OW40653   4.818   0.531  14.288
46274SOL    HW140654   4.856   0.604  14.240
46274SOL    HW240655   4.862   0.453  14.253
46275SOL     OW40656   6.473   9.315   3.791
46275SOL    HW140657   6.399   9.287   3.737
46275SOL    HW240658   6.493   9.404   3.760
46276SOL     OW40659  11.228  12.379   5.023
46276SOL    HW140660  11.274  12.318   4.965
46276SOL    HW240661  11.297  12.436   5.058
46277SOL     OW40662   8.688   9.506   7.575
46277SOL    HW140663   8.688   9.465   7.661
46277SOL    HW240664   8.650   9.440   7.517
46278SOL     OW40665   5.120   0.899   9.199
46278SOL    HW140666   5.171   0.919   9.120
46278SOL    HW240667   5.034   0.936   9.182
46279SOL     OW40668   9.511   8.032   1.720
46279SOL    HW140669   9.480   8.113   1.679
46279SOL    HW240670   9.587   8.006   1.668
46280SOL     OW40671   0.039   6.386  13.355
46280SOL    HW140672   0.048   6.468  13.403
46280SOL    HW240673   0.112   6.386  13.293
46281SOL     OW40674   0.986   7.355   1.723
46281SOL    HW140675   0.987   7.297   1.800
46281SOL    HW240676   1.075   7.353   1.690
46282SOL     OW40677   7.092   9.583  14.146
46282SOL    HW140678   7.045   9.665  14.132
46282SOL    HW240679   7.039   9.536  14.210
46283SOL     OW40680   2.120   0.013  11.740
46283SOL    HW140681   2.139  14.841  11.821
46283SOL    HW240682   2.026   0.029  11.743
46284SOL     OW40683  13.101   6.065   5.022
46284SOL    HW140684  13.193   6.084   4.999
46284SOL    HW240685  13.056   6.149   5.010
46285SOL     OW40686   7.000   0.627   7.910
46285SOL    HW140687   7.010   0.533   7.900
46285SOL    HW240688   7.028   0.645   8.000
46286SOL     OW40689  12.576  11.528   0.770
46286SOL    HW140690  12.620  11.523   0.685
46286SOL    HW240691  12.568  11.622   0.787
46287SOL     OW40692   6.458  14.136  11.555
46287SOL    HW140693   6.524  14.085  11.602
46287SOL    HW240694   6.420  14.075  11.492
46288SOL     OW40695   4.298   5.816   9.518
46288SOL    HW140696   4.354   5.817   9.597
46288SOL    HW240697   4.342   5.756   9.459
46289SOL     OW40698  14.490   6.726   7.884
46289SOL    HW140699  14.582   6.706   7.870
46289SOL    HW240700  14.444   6.670   7.821
46290SOL     OW40701  12.634   3.052   8.521
46290SOL    HW140702  12.713   3.013   8.483
46290SOL    HW240703  12.666   3.102   8.596
46291SOL     OW40704   2.729   8.609   7.420
46291SOL    HW140705   2.767   8.688   7.458
46291SOL    HW240706   2.729   8.625   7.326
46292SOL     OW40707   0.638   2.716   7.101
46292SOL    HW140708   0.693   2.698   7.025
46292SOL    HW240709   0.549   2.721   7.065
46293SOL     OW40710   1.792   7.612   5.618
46293SOL    HW140711   1.703   7.594   5.587
46293SOL    HW240712   1.791   7.706   5.639
46294SOL     OW40713   9.637   4.971  14.252
46294SOL    HW140714   9.630   4.884  14.213
46294SOL    HW240715   9.596   4.963  14.337
46295SOL     OW40716  11.784   7.440  14.787
46295SOL    HW140717  11.838   7.436  14.866
46295SOL    HW240718  11.694   7.445  14.821
46296SOL     OW40719   3.045  14.682   4.175
46296SOL    HW140720   3.080  14.612   4.120
46296SOL    HW240721   3.061  14.762   4.126
46297SOL     OW40722  13.440   2.463  14.370
46297SOL    HW140723  13.483   2.413  14.301
46297SOL    HW240724  13.441   2.554  14.338
46298SOL     OW40725   0.439   9.723   6.613
46298SOL    HW140726   0.373   9.754   6.675
46298SOL    HW240727   0.492   9.801   6.594
46299SOL     OW40728  13.227  12.730  14.428
46299SOL    HW140729  13.133  12.715  14.439
46299SOL    HW240730  13.268  12.657  14.474
46300SOL     OW40731   6.047   7.587   0.511
46300SOL    HW140732   6.079   7.588   0.421
46300SOL    HW240733   5.952   7.585   0.504
46301SOL     OW40734   2.641   2.015  14.695
46301SOL    HW140735   2.700   2.077  14.653
46301SOL    HW240736   2.579   1.991  14.627
46302SOL     OW40737   6.446   8.792   9.891
46302SOL    HW140738   6.467   8.820   9.980
46302SOL    HW240739   6.357   8.757   9.898
46303SOL     OW40740  11.451  11.773   6.118
46303SOL    HW140741  11.520  11.731   6.169
46303SOL    HW240742  11.392  11.810   6.184
46304SOL     OW40743  13.431   0.212   5.362
46304SOL    HW140744  13.494   0.257   5.419
46304SOL    HW240745  13.345   0.240   5.393
46305SOL     OW40746  12.798  13.886   1.915
46305SOL    HW140747  12.710  13.850   1.902
46305SOL    HW240748  12.856  13.824   1.871
46306SOL     OW40749  12.395   9.789   8.925
46306SOL    HW140750  12.432   9.702   8.910
46306SOL    HW240751  12.470   9.848   8.925
46307SOL     OW40752  11.181  13.489   7.166
46307SOL    HW140753  11.206  13.525   7.251
46307SOL    HW240754  11.164  13.396   7.183
46308SOL     OW40755   6.279  12.495   5.908
46308SOL    HW140756   6.358  12.510   5.960
46308SOL    HW240757   6.211  12.476   5.973
46309SOL     OW40758  11.167   9.010  10.329
46309SOL    HW140759  11.096   8.991  10.390
46309SOL    HW240760  11.239   9.039  10.385
46310SOL     OW40761  14.688   9.002  14.621
46310SOL    HW140762  14.759   8.955  14.664
46310SOL    HW240763  14.707   8.993  14.527
46311SOL     OW40764   8.496   6.527   4.472
46311SOL    HW140765   8.553   6.604   4.462
46311SOL    HW240766   8.470   6.528   4.564
46312SOL     OW40767  12.699  10.493   6.110
46312SOL    HW140768  12.657  10.438   6.044
46312SOL    HW240769  12.651  10.576   6.106
46313SOL     OW40770   0.615  12.956   1.283
46313SOL    HW140771   0.659  12.985   1.362
46313SOL    HW240772   0.673  12.983   1.211
46314SOL     OW40773  11.735   5.723   0.003
46314SOL    HW140774  11.685   5.773   0.067
46314SOL    HW240775  11.826   5.734   0.029
46315SOL     OW40776   6.317  11.687   5.338
46315SOL    HW140777   6.296  11.777   5.359
46315SOL    HW240778   6.279  11.635   5.409
46316SOL     OW40779   6.965  14.777  12.946
46316SOL    HW140780   6.944  14.870  12.949
46316SOL    HW240781   6.993  14.756  13.035
46317SOL     OW40782   9.027   2.158   6.285
46317SOL    HW140783   9.033   2.078   6.233
46317SOL    HW240784   9.079   2.223   6.236
46318SOL     OW40785  14.003   2.477   6.085
46318SOL    HW140786  13.944   2.529   6.030
46318SOL    HW240787  14.019   2.397   6.035
46319SOL     OW40788  12.263  14.206   6.369
46319SOL    HW140789  12.211  14.141   6.321
46319SOL    HW240790  12.345  14.211   6.320
46320SOL     OW40791   4.711   1.845  14.611
46320SOL    HW140792   4.650   1.902  14.565
46320SOL    HW240793   4.725   1.889  14.695
46321SOL     OW40794   9.412   6.850   8.864
46321SOL    HW140795   9.347   6.781   8.849
46321SOL    HW240796   9.374   6.905   8.933
46322SOL     OW40797   9.714   0.363   0.330
46322SOL    HW140798   9.779   0.399   0.270
46322SOL    HW240799   9.725   0.268   0.325
46323SOL     OW40800   9.677   9.044   4.931
46323SOL    HW140801   9.690   9.138   4.927
46323SOL    HW240802   9.598   9.028   4.879
46324SOL     OW40803   6.853   2.943  12.808
46324SOL    HW140804   6.825   3.029  12.839
46324SOL    HW240805   6.895   2.903  12.885
46325SOL     OW40806  14.080  11.558   2.017
46325SOL    HW140807  14.114  11.546   2.106
46325SOL    HW240808  13.987  11.576   2.029
46326SOL     OW40809  11.313   0.007  14.838
46326SOL    HW140810  11.379   0.068  14.872
46326SOL    HW240811  11.358  14.832  14.771
46327SOL     OW40812  12.247   2.612   4.518
46327SOL    HW140813  12.252   2.625   4.423
46327SOL    HW240814  12.337   2.591   4.543
46328SOL     OW40815   9.809   5.751  11.856
46328SOL    HW140816   9.797   5.752  11.761
46328SOL    HW240817   9.772   5.834  11.886
46329SOL     OW40818  10.365   8.188  12.499
46329SOL    HW140819  10.424   8.115  12.519
46329SOL    HW240820  10.328   8.166  12.414
46330SOL     OW40821  10.382   6.348   2.281
46330SOL    HW140822  10.380   6.344   2.186
46330SOL    HW240823  10.468   6.384   2.302
46331SOL     OW40824   5.878   2.302  11.735
46331SOL    HW140825   5.876   2.367  11.666
46331SOL    HW240826   5.868   2.218  11.690
46332SOL     OW40827   7.173   6.395  11.518
46332SOL    HW140828   7.198   6.314  11.473
46332SOL    HW240829   7.137   6.450  11.449
46333SOL     OW40830   1.288   8.157   7.251
46333SOL    HW140831   1.346   8.085   7.277
46333SOL    HW240832   1.314   8.177   7.161
46334SOL     OW40833   6.723   7.875  14.674
46334SOL    HW140834   6.722   7.954  14.728
46334SOL    HW240835   6.796   7.887  14.613
46335SOL     OW40836   2.072   1.637   2.945
46335SOL    HW140837   2.163   1.613   2.928
46335SOL    HW240838   2.044   1.578   3.014
46336SOL     OW40839   4.784  11.381   0.541
46336SOL    HW140840   4.834  11.314   0.588
46336SOL    HW240841   4.709  11.333   0.506
46337SOL     OW40842  13.613   8.101  12.341
46337SOL    HW140843  13.669   8.097  12.263
46337SOL    HW240844  13.665   8.060  12.410
46338SOL     OW40845   2.794  10.461   4.583
46338SOL    HW140846   2.722  10.398   4.578
46338SOL    HW240847   2.853  10.435   4.513
46339SOL     OW40848   1.302   1.289   4.939
46339SOL    HW140849   1.362   1.238   4.884
46339SOL    HW240850   1.217   1.277   4.898
46340SOL     OW40851   2.448   2.137   1.787
46340SOL    HW140852   2.526   2.141   1.731
46340SOL    HW240853   2.476   2.176   1.870
46341SOL     OW40854   4.966   8.635  13.804
46341SOL    HW140855   4.893   8.613  13.745
46341SOL    HW240856   5.014   8.553  13.815
46342SOL     OW40857   2.369  10.494  14.811
46342SOL    HW140858   2.313  10.485   0.012
46342SOL    HW240859   2.456  10.512  14.846
46343SOL     OW40860  13.107  13.547  11.163
46343SOL    HW140861  13.139  13.496  11.089
46343SOL    HW240862  13.096  13.635  11.128
46344SOL     OW40863  10.945   0.545   2.625
46344SOL    HW140864  10.929   0.453   2.604
46344SOL    HW240865  10.993   0.542   2.708
46345SOL     OW40866   0.635   3.907  14.562
46345SOL    HW140867   0.550   3.927  14.600
46345SOL    HW240868   0.617   3.842  14.495
46346SOL     OW40869   7.222   1.137   7.135
46346SOL    HW140870   7.294   1.104   7.081
46346SOL    HW240871   7.266   1.184   7.206
46347SOL     OW40872   6.522  13.756  11.226
46347SOL    HW140873   6.462  13.688  11.194
46347SOL    HW240874   6.551  13.802  11.148
46348SOL     OW40875   4.478   4.005   3.675
46348SOL    HW140876   4.500   4.088   3.716
46348SOL    HW240877   4.537   3.941   3.716
46349SOL     OW40878   4.696   3.773   4.841
46349SOL    HW140879   4.719   3.696   4.892
46349SOL    HW240880   4.616   3.748   4.793
46350SOL     OW40881   4.302   8.696   2.883
46350SOL    HW140882   4.260   8.775   2.849
46350SOL    HW240883   4.297   8.704   2.978
46351SOL     OW40884   7.065  10.605   7.954
46351SOL    HW140885   7.036  10.521   7.918
46351SOL    HW240886   7.098  10.583   8.041
46352SOL     OW40887   0.750  12.557  12.262
46352SOL    HW140888   0.796  12.474  12.251
46352SOL    HW240889   0.806  12.609  12.319
46353SOL     OW40890   0.337  11.325   3.736
46353SOL    HW140891   0.260  11.280   3.702
46353SOL    HW240892   0.319  11.418   3.721
46354SOL     OW40893  10.585  13.083   6.330
46354SOL    HW140894  10.577  13.134   6.410
46354SOL    HW240895  10.549  12.997   6.352
46355SOL     OW40896   2.064  10.550   8.932
46355SOL    HW140897   1.998  10.581   8.870
46355SOL    HW240898   2.102  10.472   8.891
46356SOL     OW40899  11.959   6.074   1.242
46356SOL    HW140900  11.876   6.064   1.289
46356SOL    HW240901  12.013   6.127   1.301
46357SOL     OW40902   9.669  10.233  11.789
46357SOL    HW140903   9.709  10.211  11.873
46357SOL    HW240904   9.576  10.248  11.810
46358SOL     OW40905   6.338   3.482   1.138
46358SOL    HW140906   6.274   3.411   1.132
46358SOL    HW240907   6.316   3.540   1.065
46359SOL     OW40908   4.657  14.276   9.575
46359SOL    HW140909   4.739  14.252   9.533
46359SOL    HW240910   4.601  14.199   9.566
46360SOL     OW40911   6.182  13.434   6.441
46360SOL    HW140912   6.217  13.502   6.383
46360SOL    HW240913   6.126  13.381   6.384
46361SOL     OW40914   0.965   4.385   7.005
46361SOL    HW140915   1.042   4.329   7.013
46361SOL    HW240916   1.000   4.474   7.004
46362SOL     OW40917  12.735   0.680   8.832
46362SOL    HW140918  12.663   0.710   8.888
46362SOL    HW240919  12.802   0.748   8.841
46363SOL     OW40920   8.241  10.847  12.625
46363SOL    HW140921   8.163  10.804  12.590
46363SOL    HW240922   8.248  10.928  12.574
46364SOL     OW40923  14.664   3.326   9.628
46364SOL    HW140924  14.704   3.387   9.567
46364SOL    HW240925  14.599   3.279   9.576
46365SOL     OW40926   5.397   3.287  12.771
46365SOL    HW140927   5.360   3.246  12.693
46365SOL    HW240928   5.410   3.379  12.748
46366SOL     OW40929   3.589  14.497  12.988
46366SOL    HW140930   3.556  14.519  13.075
46366SOL    HW240931   3.562  14.571  12.933
46367SOL     OW40932  14.325   3.329  10.187
46367SOL    HW140933  14.260   3.376  10.239
46367SOL    HW240934  14.409   3.367  10.213
46368SOL     OW40935   7.664  11.191   1.827
46368SOL    HW140936   7.662  11.132   1.903
46368SOL    HW240937   7.756  11.193   1.801
46369SOL     OW40938  13.187   0.816   4.940
46369SOL    HW140939  13.139   0.886   4.984
46369SOL    HW240940  13.149   0.735   4.974
46370SOL     OW40941   5.876  13.360  11.484
46370SOL    HW140942   5.841  13.399  11.404
46370SOL    HW240943   5.819  13.285  11.502
46371SOL     OW40944   5.010   9.040   4.797
46371SOL    HW140945   5.082   9.030   4.859
46371SOL    HW240946   4.988   9.133   4.799
46372SOL     OW40947   0.289  11.346  14.819
46372SOL    HW140948   0.209  11.365  14.768
46372SOL    HW240949   0.293  11.416   0.008
46373SOL     OW40950   5.072  12.875  11.622
46373SOL    HW140951   5.129  12.902  11.550
46373SOL    HW240952   5.006  12.944  11.628
46374SOL     OW40953   8.081   0.837   6.039
46374SOL    HW140954   8.094   0.821   6.133
46374SOL    HW240955   8.141   0.777   5.996
46375SOL     OW40956  10.635   6.478   5.379
46375SOL    HW140957  10.595   6.505   5.296
46375SOL    HW240958  10.565   6.489   5.443
46376SOL     OW40959   3.043  13.392   8.827
46376SOL    HW140960   3.060  13.484   8.807
46376SOL    HW240961   2.948  13.383   8.824
46377SOL     OW40962   4.427   2.242  14.490
46377SOL    HW140963   4.500   2.295  14.457
46377SOL    HW240964   4.447   2.229  14.582
46378SOL     OW40965   9.528   6.495   9.645
46378SOL    HW140966   9.465   6.429   9.672
46378SOL    HW240967   9.476   6.575   9.636
46379SOL     OW40968  10.028   6.194   7.367
46379SOL    HW140969  10.031   6.280   7.325
46379SOL    HW240970  10.019   6.214   7.460
46380SOL     OW40971   0.073   7.491  10.067
46380SOL    HW140972   0.165   7.518  10.071
46380SOL    HW240973   0.025   7.571  10.045
46381SOL     OW40974   9.976   5.033   5.559
46381SOL    HW140975  10.067   5.062   5.553
46381SOL    HW240976   9.926   5.115   5.563
46382SOL     OW40977   1.505   2.288   6.597
46382SOL    HW140978   1.512   2.336   6.514
46382SOL    HW240979   1.586   2.237   6.602
46383SOL     OW40980  14.531  14.746   0.489
46383SOL    HW140981  14.524  14.730   0.395
46383SOL    HW240982  14.597  14.684   0.519
46384SOL     OW40983  10.573  12.575   6.066
46384SOL    HW140984  10.514  12.644   6.036
46384SOL    HW240985  10.533  12.493   6.036
46385SOL     OW40986   0.398   0.070  13.264
46385SOL    HW140987   0.411   0.159  13.299
46385SOL    HW240988   0.303   0.059  13.262
46386SOL     OW40989  13.671   9.061   1.258
46386SOL    HW140990  13.717   9.001   1.316
46386SOL    HW240991  13.612   9.109   1.315
46387SOL     OW40992   9.400   9.909  12.110
46387SOL    HW140993   9.326   9.937  12.056
46387SOL    HW240994   9.393   9.814  12.114
46388SOL     OW40995   7.014   5.743   5.225
46388SOL    HW140996   6.961   5.749   5.304
46388SOL    HW240997   6.982   5.665   5.180
46389SOL     OW40998   0.516   7.395   7.436
46389SOL    HW140999   0.548   7.360   7.519
46389SOL    HW241000   0.429   7.356   7.426
46390SOL     OW41001   2.542   2.557   0.213
46390SOL    HW141002   2.625   2.519   0.244
46390SOL    HW241003   2.475   2.495   0.242
46391SOL     OW41004  13.395   1.336  13.457
46391SOL    HW141005  13.415   1.403  13.391
46391SOL    HW241006  13.475   1.285  13.464
46392SOL     OW41007   5.894  14.127   8.308
46392SOL    HW141008   5.825  14.124   8.241
46392SOL    HW241009   5.901  14.037   8.339
46393SOL     OW41010   1.257  10.677   6.007
46393SOL    HW141011   1.310  10.670   6.087
46393SOL    HW241012   1.306  10.628   5.941
46394SOL     OW41013   3.808   3.868  12.330
46394SOL    HW141014   3.765   3.952  12.348
46394SOL    HW241015   3.858   3.884  12.250
46395SOL     OW41016  12.166   2.435   4.020
46395SOL    HW141017  12.140   2.393   4.102
46395SOL    HW241018  12.090   2.423   3.962
46396SOL     OW41019   8.978   9.043   1.840
46396SOL    HW141020   8.889   9.078   1.846
46396SOL    HW241021   9.032   9.119   1.818
46397SOL     OW41022  14.215   7.671  14.020
46397SOL    HW141023  14.188   7.724  13.945
46397SOL    HW241024  14.238   7.586  13.984
46398SOL     OW41025  10.554  11.931   3.436
46398SOL    HW141026  10.522  12.011   3.478
46398SOL    HW241027  10.582  11.876   3.509
46399SOL     OW41028  13.870   4.141   3.653
46399SOL    HW141029  13.904   4.127   3.742
46399SOL    HW241030  13.835   4.056   3.628
46400SOL     OW41031  12.707   4.553   9.045
46400SOL    HW141032  12.708   4.591   8.957
46400SOL    HW241033  12.742   4.464   9.033
46401SOL     OW41034   7.853  12.398   1.076
46401SOL    HW141035   7.862  12.466   1.008
46401SOL    HW241036   7.861  12.316   1.028
46402SOL     OW41037   4.262  13.806   0.427
46402SOL    HW141038   4.312  13.729   0.454
46402SOL    HW241039   4.171  13.784   0.448
46403SOL     OW41040   9.838   5.415  11.311
46403SOL    HW141041   9.846   5.495  11.260
46403SOL    HW241042   9.836   5.344  11.247
46404SOL     OW41043   7.490  14.304   7.257
46404SOL    HW141044   7.581  14.332   7.251
46404SOL    HW241045   7.494  14.213   7.284
46405SOL     OW41046   8.059   7.760  10.579
46405SOL    HW141047   8.040   7.831  10.641
46405SOL    HW241048   8.096   7.690  10.634
46406SOL     OW41049   5.884  12.304  10.820
46406SOL    HW141050   5.927  12.346  10.746
46406SOL    HW241051   5.848  12.223  10.784
46407SOL     OW41052  13.273   8.611   6.093
46407SOL    HW141053  13.296   8.644   6.006
46407SOL    HW241054  13.357   8.606   6.140
46408SOL     OW41055   2.136   7.061   3.932
46408SOL    HW141056   2.102   6.979   3.969
46408SOL    HW241057   2.216   7.078   3.981
46409SOL     OW41058   8.002   1.499   8.875
46409SOL    HW141059   8.002   1.430   8.942
46409SOL    HW241060   7.975   1.578   8.923
46410SOL     OW41061   1.250   7.131  14.735
46410SOL    HW141062   1.201   7.098  14.660
46410SOL    HW241063   1.207   7.213  14.758
46411SOL     OW41064   8.603   7.616  11.473
46411SOL    HW141065   8.608   7.684  11.540
46411SOL    HW241066   8.665   7.643  11.406
46412SOL     OW41067   3.608  12.306   4.794
46412SOL    HW141068   3.608  12.212   4.781
46412SOL    HW241069   3.531  12.322   4.849
46413SOL     OW41070   3.854  11.462  10.018
46413SOL    HW141071   3.825  11.430  10.103
46413SOL    HW241072   3.945  11.489  10.032
46414SOL     OW41073  10.829   1.942   2.737
46414SOL    HW141074  10.774   2.019   2.757
46414SOL    HW241075  10.768   1.878   2.700
46415SOL     OW41076   6.077  12.356  12.350
46415SOL    HW141077   6.105  12.297  12.280
46415SOL    HW241078   6.103  12.443  12.320
46416SOL     OW41079  13.294   1.472   5.465
46416SOL    HW141080  13.353   1.542   5.438
46416SOL    HW241081  13.284   1.417   5.387
46417SOL     OW41082   2.633  11.470  12.603
46417SOL    HW141083   2.714  11.421  12.594
46417SOL    HW241084   2.593  11.436  12.683
46418SOL     OW41085  13.522  10.490   8.945
46418SOL    HW141086  13.440  10.500   8.993
46418SOL    HW241087  13.497  10.493   8.853
46419SOL     OW41088   7.510  13.243  13.062
46419SOL    HW141089   7.469  13.199  12.988
46419SOL    HW241090   7.576  13.181  13.093
46420SOL     OW41091   5.524   5.910   0.339
46420SOL    HW141092   5.580   5.844   0.297
46420SOL    HW241093   5.436   5.890   0.309
46421SOL     OW41094  10.369  14.123   3.883
46421SOL    HW141095  10.287  14.150   3.923
46421SOL    HW241096  10.378  14.178   3.805
46422SOL     OW41097  12.156   4.601   9.203
46422SOL    HW141098  12.251   4.587   9.199
46422SOL    HW241099  12.123   4.526   9.251
46423SOL     OW41100  10.150  12.466   4.561
46423SOL    HW141101  10.228  12.503   4.519
46423SOL    HW241102  10.165  12.371   4.560
46424SOL     OW41103   3.628   9.207   6.288
46424SOL    HW141104   3.596   9.127   6.247
46424SOL    HW241105   3.609   9.195   6.381
46425SOL     OW41106   4.581   5.054   6.244
46425SOL    HW141107   4.634   4.981   6.214
46425SOL    HW241108   4.546   5.094   6.164
46426SOL     OW41109  11.921   7.776   5.140
46426SOL    HW141110  11.911   7.854   5.086
46426SOL    HW241111  11.846   7.778   5.199
46427SOL     OW41112   6.806   3.621   6.882
46427SOL    HW141113   6.710   3.621   6.874
46427SOL    HW241114   6.827   3.532   6.912
46428SOL     OW41115   4.506  10.634  14.823
46428SOL    HW141116   4.586  10.596  14.787
46428SOL    HW241117   4.435  10.589  14.777
46429SOL     OW41118   5.519   0.536   7.443
46429SOL    HW141119   5.577   0.569   7.512
46429SOL    HW241120   5.506   0.612   7.385
46430SOL     OW41121   0.262   4.146   7.165
46430SOL    HW141122   0.238   4.206   7.094
46430SOL    HW241123   0.246   4.059   7.128
46431SOL     OW41124   0.374   1.787   0.843
46431SOL    HW141125   0.431   1.769   0.918
46431SOL    HW241126   0.305   1.843   0.878
46432SOL     OW41127   0.133   0.454  13.816
46432SOL    HW141128   0.067   0.522  13.829
46432SOL    HW241129   0.113   0.388  13.882
46433SOL     OW41130  12.870   0.615   8.250
46433SOL    HW141131  12.903   0.704   8.239
46433SOL    HW241132  12.922   0.563   8.189
46434SOL     OW41133   4.389   6.673  11.144
46434SOL    HW141134   4.403   6.654  11.052
46434SOL    HW241135   4.336   6.599  11.176
46435SOL     OW41136   8.961  11.051   3.059
46435SOL    HW141137   9.051  11.016   3.062
46435SOL    HW241138   8.920  11.016   3.138
46436SOL     OW41139   0.916   8.757   6.866
46436SOL    HW141140   0.871   8.841   6.874
46436SOL    HW241141   0.878   8.702   6.935
46437SOL     OW41142   2.254   3.206   1.660
46437SOL    HW141143   2.282   3.162   1.580
46437SOL    HW241144   2.186   3.267   1.632
46438SOL     OW41145   5.851   5.936   0.972
46438SOL    HW141146   5.821   5.977   1.054
46438SOL    HW241147   5.901   5.860   1.001
46439SOL     OW41148  12.125   9.486   1.023
46439SOL    HW141149  12.060   9.433   1.070
46439SOL    HW241150  12.130   9.446   0.937
46440SOL     OW41151   0.997   7.394   7.489
46440SOL    HW141152   0.994   7.481   7.530
46440SOL    HW241153   0.922   7.393   7.429
46441SOL     OW41154   7.075   4.034   6.026
46441SOL    HW141155   7.101   3.942   6.041
46441SOL    HW241156   7.109   4.055   5.940
46442SOL     OW41157  14.289   9.269  11.062
46442SOL    HW141158  14.384   9.262  11.065
46442SOL    HW241159  14.257   9.183  11.090
46443SOL     OW41160   9.917  10.749   3.556
46443SOL    HW141161   9.916  10.770   3.650
46443SOL    HW241162   9.841  10.693   3.544
46444SOL     OW41163  11.546   8.631  10.271
46444SOL    HW141164  11.551   8.576  10.349
46444SOL    HW241165  11.569   8.719  10.302
46445SOL     OW41166  12.283  14.643  10.407
46445SOL    HW141167  12.227  14.574  10.371
46445SOL    HW241168  12.225  14.695  10.462
46446SOL     OW41169   3.338   2.589   4.200
46446SOL    HW141170   3.373   2.648   4.266
46446SOL    HW241171   3.244   2.591   4.214
46447SOL     OW41172  11.680   2.825   7.811
46447SOL    HW141173  11.738   2.857   7.741
46447SOL    HW241174  11.651   2.904   7.856
46448SOL     OW41175   4.011   1.386   4.245
46448SOL    HW141176   4.081   1.386   4.180
46448SOL    HW241177   4.022   1.303   4.292
46449SOL     OW41178  13.840   9.411   9.774
46449SOL    HW141179  13.913   9.434   9.833
46449SOL    HW241180  13.878   9.348   9.713
46450SOL     OW41181   0.802  13.584   1.956
46450SOL    HW141182   0.727  13.588   1.897
46450SOL    HW241183   0.874  13.552   1.902
46451SOL     OW41184   5.231  12.279   3.594
46451SOL    HW141185   5.195  12.241   3.514
46451SOL    HW241186   5.262  12.203   3.644
46452SOL     OW41187  12.364   9.520  11.332
46452SOL    HW141188  12.274   9.513  11.362
46452SOL    HW241189  12.363   9.591  11.269
46453SOL     OW41190  10.257   8.138  11.405
46453SOL    HW141191  10.241   8.044  11.407
46453SOL    HW241192  10.171   8.177  11.390
46454SOL     OW41193   6.811   0.324   6.685
46454SOL    HW141194   6.738   0.326   6.623
46454SOL    HW241195   6.773   0.358   6.766
46455SOL     OW41196  14.655   9.421  12.726
46455SOL    HW141197  14.626   9.344  12.679
46455SOL    HW241198  14.727   9.456  12.674
46456SOL     OW41199  14.035   0.204   3.889
46456SOL    HW141200  13.972   0.248   3.832
46456SOL    HW241201  13.990   0.127   3.921
46457SOL     OW41202   9.473  10.747  14.483
46457SOL    HW141203   9.469  10.811  14.411
46457SOL    HW241204   9.479  10.662  14.439
46458SOL     OW41205   0.809   9.697   5.357
46458SOL    HW141206   0.781   9.730   5.272
46458SOL    HW241207   0.794   9.603   5.352
46459SOL     OW41208  11.126   6.564  11.242
46459SOL    HW141209  11.184   6.627  11.199
46459SOL    HW241210  11.038   6.589  11.213
46460SOL     OW41211   0.397  10.565  14.144
46460SOL    HW141212   0.404  10.544  14.051
46460SOL    HW241213   0.487  10.579  14.172
46461SOL     OW41214   8.625   6.320  11.419
46461SOL    HW141215   8.626   6.253  11.488
46461SOL    HW241216   8.717   6.344  11.408
46462SOL     OW41217   5.588  10.013   7.631
46462SOL    HW141218   5.519   9.948   7.617
46462SOL    HW241219   5.670   9.963   7.627
46463SOL     OW41220   2.665   4.225   5.616
46463SOL    HW141221   2.694   4.245   5.527
46463SOL    HW241222   2.634   4.135   5.611
46464SOL     OW41223   2.392  14.250   4.881
46464SOL    HW141224   2.399  14.172   4.826
46464SOL    HW241225   2.459  14.239   4.948
46465SOL     OW41226   2.080  10.699   1.358
46465SOL    HW141227   1.997  10.652   1.352
46465SOL    HW241228   2.055  10.791   1.367
46466SOL     OW41229   1.482   4.302  12.416
46466SOL    HW141230   1.433   4.380  12.443
46466SOL    HW241231   1.416   4.246  12.376
46467SOL     OW41232   7.272   3.337   7.030
46467SOL    HW141233   7.334   3.349   7.102
46467SOL    HW241234   7.274   3.244   7.010
46468SOL     OW41235   3.186  12.896   9.552
46468SOL    HW141236   3.143  12.827   9.602
46468SOL    HW241237   3.242  12.941   9.615
46469SOL     OW41238  12.853   4.187  11.437
46469SOL    HW141239  12.760   4.172  11.450
46469SOL    HW241240  12.895   4.113  11.481
46470SOL     OW41241  11.610   2.216   6.847
46470SOL    HW141242  11.515   2.210   6.838
46470SOL    HW241243  11.641   2.128   6.827
46471SOL     OW41244   3.180  12.494   2.280
46471SOL    HW141245   3.193  12.540   2.363
46471SOL    HW241246   3.230  12.545   2.216
46472SOL     OW41247  11.354   2.589   9.109
46472SOL    HW141248  11.429   2.626   9.062
46472SOL    HW241249  11.282   2.649   9.089
46473SOL     OW41250  14.539  11.996   2.457
46473SOL    HW141251  14.445  12.010   2.470
46473SOL    HW241252  14.572  11.972   2.544
46474SOL     OW41253   7.500  12.576   3.891
46474SOL    HW141254   7.468  12.666   3.888
46474SOL    HW241255   7.582  12.577   3.842
46475SOL     OW41256   5.792   9.295   3.861
46475SOL    HW141257   5.734   9.265   3.791
46475SOL    HW241258   5.742   9.280   3.942
46476SOL     OW41259   6.462   7.018  13.011
46476SOL    HW141260   6.554   7.022  12.986
46476SOL    HW241261   6.431   7.108  12.998
46477SOL     OW41262   7.939  10.214   4.369
46477SOL    HW141263   7.851  10.250   4.356
46477SOL    HW241264   7.989  10.285   4.409
46478SOL     OW41265   1.551   5.243   1.154
46478SOL    HW141266   1.556   5.147   1.153
46478SOL    HW241267   1.466   5.262   1.115
46479SOL     OW41268  14.420   4.710   5.074
46479SOL    HW141269  14.379   4.793   5.049
46479SOL    HW241270  14.500   4.736   5.120
46480SOL     OW41271  12.607  11.343   5.776
46480SOL    HW141272  12.561  11.280   5.720
46480SOL    HW241273  12.539  11.381   5.831
46481SOL     OW41274   2.595   6.822   5.118
46481SOL    HW141275   2.538   6.850   5.190
46481SOL    HW241276   2.657   6.762   5.159
46482SOL     OW41277   5.061   4.862   7.365
46482SOL    HW141278   5.091   4.797   7.301
46482SOL    HW241279   4.972   4.835   7.387
46483SOL     OW41280   4.034   6.190   0.468
46483SOL    HW141281   3.959   6.131   0.459
46483SOL    HW241282   4.051   6.221   0.379
46484SOL     OW41283   4.103   3.494   5.244
46484SOL    HW141284   4.110   3.402   5.219
46484SOL    HW241285   4.026   3.498   5.302
46485SOL     OW41286   6.726   2.555   5.585
46485SOL    HW141287   6.661   2.530   5.651
46485SOL    HW241288   6.737   2.477   5.532
46486SOL     OW41289  13.657  12.157   6.332
46486SOL    HW141290  13.601  12.093   6.375
46486SOL    HW241291  13.745  12.121   6.340
46487SOL     OW41292   4.211   2.615   8.795
46487SOL    HW141293   4.225   2.635   8.887
46487SOL    HW241294   4.293   2.575   8.766
46488SOL     OW41295   5.474   1.811   9.698
46488SOL    HW141296   5.551   1.756   9.706
46488SOL    HW241297   5.405   1.753   9.668
46489SOL     OW41298   0.127  10.094   8.735
46489SOL    HW141299   0.165  10.167   8.784
46489SOL    HW241300   0.083  10.040   8.801
46490SOL     OW41301   2.780  12.713   0.124
46490SOL    HW141302   2.873  12.691   0.120
46490SOL    HW241303   2.737  12.647   0.069
46491SOL     OW41304   7.364   7.321  11.356
46491SOL    HW141305   7.281   7.305  11.400
46491SOL    HW241306   7.346   7.393  11.296
46492SOL     OW41307  14.305   7.873  13.048
46492SOL    HW141308  14.232   7.895  12.991
46492SOL    HW241309  14.331   7.957  13.087
46493SOL     OW41310  11.932  14.094   1.929
46493SOL    HW141311  11.875  14.151   1.981
46493SOL    HW241312  11.875  14.025   1.895
46494SOL     OW41313   4.007  13.987  13.407
46494SOL    HW141314   4.052  14.066  13.378
46494SOL    HW241315   4.073  13.939  13.458
46495SOL     OW41316  12.580   1.450   4.437
46495SOL    HW141317  12.636   1.526   4.422
46495SOL    HW241318  12.550   1.423   4.350
46496SOL     OW41319  14.535  10.857   9.678
46496SOL    HW141320  14.534  10.761   9.687
46496SOL    HW241321  14.605  10.874   9.616
46497SOL     OW41322  13.816   4.286  10.110
46497SOL    HW141323  13.782   4.208  10.154
46497SOL    HW241324  13.904   4.261  10.080
46498SOL     OW41325   7.456  14.096   5.255
46498SOL    HW141326   7.444  14.037   5.329
46498SOL    HW241327   7.533  14.062   5.210
46499SOL     OW41328  10.521  12.825   5.002
46499SOL    HW141329  10.512  12.783   4.917
46499SOL    HW241330  10.615  12.839   5.012
46500SOL     OW41331   4.265   8.295  14.079
46500SOL    HW141332   4.270   8.227  14.146
46500SOL    HW241333   4.331   8.271  14.014
46501SOL     OW41334   1.328   7.990   9.560
46501SOL    HW141335   1.342   8.072   9.606
46501SOL    HW241336   1.402   7.935   9.585
46502SOL     OW41337  11.978  12.841   5.624
46502SOL    HW141338  11.987  12.870   5.715
46502SOL    HW241339  11.935  12.915   5.580
46503SOL     OW41340   4.722   5.108   8.277
46503SOL    HW141341   4.633   5.073   8.269
46503SOL    HW241342   4.729   5.136   8.368
46504SOL     OW41343   8.198   7.203  11.023
46504SOL    HW141344   8.262   7.227  11.090
46504SOL    HW241345   8.170   7.115  11.047
46505SOL     OW41346  11.976   2.937  11.214
46505SOL    HW141347  12.051   2.982  11.252
46505SOL    HW241348  11.989   2.845  11.237
46506SOL     OW41349  10.967   2.328  13.419
46506SOL    HW141350  10.933   2.394  13.359
46506SOL    HW241351  11.062   2.342  13.418
46507SOL     OW41352  10.610  10.345   3.539
46507SOL    HW141353  10.557  10.412   3.496
46507SOL    HW241354  10.674  10.394   3.590
46508SOL     OW41355  10.076  11.778  12.841
46508SOL    HW141356  10.035  11.863  12.827
46508SOL    HW241357  10.054  11.756  12.932
46509SOL     OW41358   9.640  13.597   1.133
46509SOL    HW141359   9.622  13.520   1.187
46509SOL    HW241360   9.557  13.613   1.087
46510SOL     OW41361   4.237   1.247   8.475
46510SOL    HW141362   4.313   1.292   8.436
46510SOL    HW241363   4.174   1.240   8.403
46511SOL     OW41364  11.542   9.490   9.180
46511SOL    HW141365  11.533   9.496   9.275
46511SOL    HW241366  11.620   9.436   9.166
46512SOL     OW41367  14.184   2.002   4.349
46512SOL    HW141368  14.126   1.965   4.282
46512SOL    HW241369  14.224   1.926   4.391
46513SOL     OW41370  13.521   2.548  11.900
46513SOL    HW141371  13.506   2.584  11.988
46513SOL    HW241372  13.504   2.622  11.841
46514SOL     OW41373   1.375  13.469  14.503
46514SOL    HW141374   1.418  13.406  14.561
46514SOL    HW241375   1.369  13.549  14.556
46515SOL     OW41376   1.749   7.401   6.115
46515SOL    HW141377   1.755   7.389   6.021
46515SOL    HW241378   1.837   7.430   6.141
46516SOL     OW41379  13.039   9.879  13.867
46516SOL    HW141380  13.083   9.794  13.870
46516SOL    HW241381  12.996   9.880  13.781
46517SOL     OW41382   6.826   2.733   9.664
46517SOL    HW141383   6.824   2.827   9.681
46517SOL    HW241384   6.745   2.699   9.702
46518SOL     OW41385   9.859  14.830   9.788
46518SOL    HW141386   9.881  14.800   9.699
46518SOL    HW241387   9.778  14.783   9.809
46519SOL     OW41388  11.102   0.938   2.561
46519SOL    HW141389  11.089   0.932   2.656
46519SOL    HW241390  11.013   0.938   2.525
46520SOL     OW41391   0.666   2.588  12.938
46520SOL    HW141392   0.609   2.664  12.944
46520SOL    HW241393   0.665   2.564  12.845
46521SOL     OW41394  12.839   4.161  14.130
46521SOL    HW141395  12.822   4.107  14.053
46521SOL    HW241396  12.930   4.188  14.121
46522SOL     OW41397   1.282  14.432   9.492
46522SOL    HW141398   1.187  14.435   9.508
46522SOL    HW241399   1.295  14.350   9.445
46523SOL     OW41400  11.736   1.338   2.223
46523SOL    HW141401  11.646   1.345   2.256
46523SOL    HW241402  11.729   1.281   2.147
46524SOL     OW41403  11.299   7.640   9.453
46524SOL    HW141404  11.362   7.655   9.383
46524SOL    HW241405  11.263   7.726   9.473
46525SOL     OW41406   4.985   7.162  14.637
46525SOL    HW141407   4.918   7.228  14.653
46525SOL    HW241408   5.003   7.167  14.543
46526SOL     OW41409   7.867   2.122   7.412
46526SOL    HW141410   7.814   2.150   7.338
46526SOL    HW241411   7.823   2.158   7.489
46527SOL     OW41412   5.339   6.260   2.171
46527SOL    HW141413   5.298   6.229   2.252
46527SOL    HW241414   5.416   6.204   2.160
46528SOL     OW41415  10.693  14.162   8.044
46528SOL    HW141416  10.690  14.067   8.032
46528SOL    HW241417  10.703  14.197   7.956
46529SOL     OW41418   0.607  14.005   4.735
46529SOL    HW141419   0.681  14.034   4.790
46529SOL    HW241420   0.632  14.032   4.646
46530SOL     OW41421   6.792  11.757   0.688
46530SOL    HW141422   6.865  11.788   0.741
46530SOL    HW241423   6.746  11.837   0.662
46531SOL     OW41424   8.711   5.815   2.288
46531SOL    HW141425   8.763   5.848   2.216
46531SOL    HW241426   8.774   5.780   2.350
46532SOL     OW41427  12.809   5.041   3.668
46532SOL    HW141428  12.885   5.049   3.726
46532SOL    HW241429  12.805   4.947   3.647
46533SOL     OW41430   4.178   5.152   7.030
46533SOL    HW141431   4.273   5.160   7.027
46533SOL    HW241432   4.145   5.238   7.003
46534SOL     OW41433  14.832   8.403  12.099
46534SOL    HW141434  14.782   8.478  12.065
46534SOL    HW241435   0.016   8.441  12.163
46535SOL     OW41436   2.061   4.207  10.323
46535SOL    HW141437   1.978   4.165  10.300
46535SOL    HW241438   2.039   4.299  10.337
46536SOL     OW41439   2.474   0.573   4.285
46536SOL    HW141440   2.447   0.491   4.327
46536SOL    HW241441   2.407   0.589   4.219
46537SOL     OW41442  14.013   6.337  14.809
46537SOL    HW141443  14.025   6.416  14.862
46537SOL    HW241444  14.099   6.322  14.769
46538SOL     OW41445   4.939   2.310  13.284
46538SOL    HW141446   4.926   2.403  13.265
46538SOL    HW241447   4.991   2.309  13.364
46539SOL     OW41448   1.683  12.700   9.513
46539SOL    HW141449   1.669  12.789   9.546
46539SOL    HW241450   1.661  12.706   9.420
46540SOL     OW41451   5.787   0.931   5.809
46540SOL    HW141452   5.817   0.883   5.731
46540SOL    HW241453   5.693   0.915   5.812
46541SOL     OW41454   7.635  14.312   1.732
46541SOL    HW141455   7.589  14.347   1.808
46541SOL    HW241456   7.566  14.283   1.673
46542SOL     OW41457   0.630  12.942   9.260
46542SOL    HW141458   0.665  12.860   9.225
46542SOL    HW241459   0.652  13.008   9.194
46543SOL     OW41460   1.700  11.670   6.317
46543SOL    HW141461   1.684  11.671   6.412
46543SOL    HW241462   1.658  11.749   6.285
46544SOL     OW41463   7.075  11.637   5.238
46544SOL    HW141464   7.053  11.570   5.302
46544SOL    HW241465   7.096  11.589   5.158
46545SOL     OW41466  13.270  13.732   8.996
46545SOL    HW141467  13.363  13.743   9.019
46545SOL    HW241468  13.271  13.699   8.907
46546SOL     OW41469   8.559   8.951  11.926
46546SOL    HW141470   8.501   8.976  11.854
46546SOL    HW241471   8.626   8.896  11.886
46547SOL     OW41472   0.358   1.787   1.163
46547SOL    HW141473   0.280   1.734   1.150
46547SOL    HW241474   0.373   1.784   1.258
46548SOL     OW41475   9.340   6.382   6.869
46548SOL    HW141476   9.299   6.413   6.950
46548SOL    HW241477   9.395   6.455   6.841
46549SOL     OW41478  13.453   7.474   1.638
46549SOL    HW141479  13.430   7.471   1.731
46549SOL    HW241480  13.456   7.383   1.611
46550SOL     OW41481  14.545   9.634   5.427
46550SOL    HW141482  14.515   9.578   5.356
46550SOL    HW241483  14.591   9.706   5.383
46551SOL     OW41484   9.215   3.218   7.249
46551SOL    HW141485   9.173   3.138   7.281
46551SOL    HW241486   9.242   3.264   7.328
46552SOL     OW41487  11.035   0.852  14.097
46552SOL    HW141488  11.091   0.903  14.155
46552SOL    HW241489  11.058   0.882  14.009
46553SOL     OW41490   6.155  11.331   6.055
46553SOL    HW141491   6.172  11.270   6.127
46553SOL    HW241492   6.111  11.278   5.988
46554SOL     OW41493   0.420   9.490  14.505
46554SOL    HW141494   0.478   9.527  14.438
46554SOL    HW241495   0.392   9.406  14.468
46555SOL     OW41496   3.167  12.359  10.121
46555SOL    HW141497   3.104  12.302  10.166
46555SOL    HW241498   3.181  12.317  10.037
46556SOL     OW41499  12.534   3.870   9.924
46556SOL    HW141500  12.440   3.889   9.918
46556SOL    HW241501  12.567   3.931   9.990
46557SOL     OW41502  10.586   1.808   4.531
46557SOL    HW141503  10.629   1.737   4.579
46557SOL    HW241504  10.526   1.847   4.594
46558SOL     OW41505   1.839   1.360  11.116
46558SOL    HW141506   1.868   1.354  11.207
46558SOL    HW241507   1.768   1.296  11.109
46559SOL     OW41508   4.053   7.943   0.391
46559SOL    HW141509   4.038   7.863   0.441
46559SOL    HW241510   4.022   8.014   0.447
46560SOL     OW41511   6.351   1.733   5.208
46560SOL    HW141512   6.372   1.827   5.202
46560SOL    HW241513   6.352   1.715   5.302
46561SOL     OW41514   4.154   5.741  10.395
46561SOL    HW141515   4.167   5.830  10.428
46561SOL    HW241516   4.070   5.744  10.350
46562SOL     OW41517  10.743   5.294   4.237
46562SOL    HW141518  10.827   5.319   4.276
46562SOL    HW241519  10.693   5.257   4.309
46563SOL     OW41520  12.362  13.147   3.077
46563SOL    HW141521  12.375  13.086   3.004
46563SOL    HW241522  12.435  13.129   3.137
46564SOL     OW41523   0.014  13.806  11.720
46564SOL    HW141524   0.017  13.711  11.709
46564SOL    HW241525  14.813  13.821  11.774
46565SOL     OW41526   3.542   6.639   2.284
46565SOL    HW141527   3.627   6.606   2.255
46565SOL    HW241528   3.557   6.670   2.373
46566SOL     OW41529  14.621   3.671  13.635
46566SOL    HW141530  14.575   3.612  13.576
46566SOL    HW241531  14.710   3.674  13.601
46567SOL     OW41532  10.120  13.277   5.854
46567SOL    HW141533  10.168  13.262   5.773
46567SOL    HW241534  10.104  13.189   5.889
46568SOL     OW41535   0.758   8.986  11.690
46568SOL    HW141536   0.674   8.940  11.699
46568SOL    HW241537   0.750   9.035  11.609
46569SOL     OW41538  10.598  14.450   0.737
46569SOL    HW141539  10.577  14.415   0.651
46569SOL    HW241540  10.523  14.506   0.759
46570SOL     OW41541  12.898   3.286   8.987
46570SOL    HW141542  12.972   3.332   9.028
46570SOL    HW241543  12.882   3.211   9.044
46571SOL     OW41544   0.080  12.456   2.725
46571SOL    HW141545  14.873  12.461   2.677
46571SOL    HW241546   0.055  12.465   2.817
46572SOL     OW41547   3.144  11.296  10.657
46572SOL    HW141548   3.119  11.296  10.750
46572SOL    HW241549   3.205  11.222  10.649
46573SOL     OW41550   1.386   0.853   7.795
46573SOL    HW141551   1.474   0.827   7.822
46573SOL    HW241552   1.337   0.770   7.790
46574SOL     OW41553  12.485   2.462  10.690
46574SOL    HW141554  12.435   2.381  10.681
46574SOL    HW241555  12.533   2.452  10.773
46575SOL     OW41556   2.871  10.428  11.591
46575SOL    HW141557   2.930  10.501  11.570
46575SOL    HW241558   2.929  10.359  11.625
46576SOL     OW41559  12.213   0.551   4.647
46576SOL    HW141560  12.284   0.578   4.705
46576SOL    HW241561  12.256   0.523   4.566
46577SOL     OW41562   4.630   6.342   5.767
46577SOL    HW141563   4.671   6.300   5.843
46577SOL    HW241564   4.660   6.432   5.770
46578SOL     OW41565   1.631   2.564   3.628
46578SOL    HW141566   1.708   2.566   3.571
46578SOL    HW241567   1.646   2.635   3.690
46579SOL     OW41568   0.991   6.853   6.949
46579SOL    HW141569   0.911   6.874   6.902
46579SOL    HW241570   0.998   6.921   7.016
46580SOL     OW41571   5.612   0.403  10.550
46580SOL    HW141572   5.657   0.382  10.632
46580SOL    HW241573   5.677   0.387  10.482
46581SOL     OW41574  12.003   0.277   0.790
46581SOL    HW141575  12.008   0.182   0.775
46581SOL    HW241576  11.965   0.312   0.710
46582SOL     OW41577   9.402  10.034  13.146
46582SOL    HW141578   9.360   9.991  13.220
46582SOL    HW241579   9.455  10.104  13.185
46583SOL     OW41580   9.615  14.653   3.484
46583SOL    HW141581   9.628  14.572   3.434
46583SOL    HW241582   9.546  14.631   3.547
46584SOL     OW41583   9.410   7.656   9.124
46584SOL    HW141584   9.403   7.612   9.209
46584SOL    HW241585   9.486   7.615   9.082
46585SOL     OW41586   2.848   0.620  11.768
46585SOL    HW141587   2.839   0.524  11.770
46585SOL    HW241588   2.789   0.650  11.838
46586SOL     OW41589   5.447   0.365   4.692
46586SOL    HW141590   5.491   0.393   4.612
46586SOL    HW241591   5.422   0.446   4.736
46587SOL     OW41592   3.280   2.592  12.819
46587SOL    HW141593   3.297   2.640  12.899
46587SOL    HW241594   3.321   2.507  12.832
46588SOL     OW41595   6.274   3.837   3.678
46588SOL    HW141596   6.336   3.905   3.651
46588SOL    HW241597   6.253   3.791   3.596
46589SOL     OW41598  13.649   0.301   2.175
46589SOL    HW141599  13.653   0.268   2.085
46589SOL    HW241600  13.563   0.273   2.207
46590SOL     OW41601  10.490   5.259   3.222
46590SOL    HW141602  10.397   5.257   3.246
46590SOL    HW241603  10.490   5.295   3.133
46591SOL     OW41604   7.876   6.024   5.332
46591SOL    HW141605   7.916   6.038   5.246
46591SOL    HW241606   7.787   5.996   5.313
46592SOL     OW41607  13.611   8.666  10.340
46592SOL    HW141608  13.664   8.743  10.320
46592SOL    HW241609  13.668   8.611  10.394
46593SOL     OW41610   6.891  10.580   0.229
46593SOL    HW141611   6.894  10.645   0.298
46593SOL    HW241612   6.942  10.506   0.263
46594SOL     OW41613   0.407   6.646   1.392
46594SOL    HW141614   0.428   6.696   1.312
46594SOL    HW241615   0.429   6.705   1.463
46595SOL     OW41616   1.007   7.288   2.126
46595SOL    HW141617   0.969   7.200   2.126
46595SOL    HW241618   1.075   7.285   2.193
46596SOL     OW41619  14.683   0.709   6.737
46596SOL    HW141620  14.758   0.766   6.755
46596SOL    HW241621  14.662   0.669   6.822
46597SOL     OW41622  12.908   2.375  13.042
46597SOL    HW141623  12.991   2.374  12.994
46597SOL    HW241624  12.845   2.335  12.983
46598SOL     OW41625  12.148   2.568   5.279
46598SOL    HW141626  12.081   2.633   5.258
46598SOL    HW241627  12.214   2.578   5.210
46599SOL     OW41628  14.738   9.755   6.011
46599SOL    HW141629  14.801   9.826   6.016
46599SOL    HW241630  14.782   9.680   6.051
46600SOL     OW41631  11.227  11.752   3.298
46600SOL    HW141632  11.222  11.840   3.261
46600SOL    HW241633  11.156  11.704   3.255
46601SOL     OW41634   0.761   5.950  11.118
46601SOL    HW141635   0.718   6.020  11.167
46601SOL    HW241636   0.826   5.996  11.064
46602SOL     OW41637   4.842  11.387   5.023
46602SOL    HW141638   4.851  11.443   5.100
46602SOL    HW241639   4.756  11.346   5.033
46603SOL     OW41640   8.443   7.618   5.136
46603SOL    HW141641   8.364   7.599   5.186
46603SOL    HW241642   8.411   7.649   5.051
46604SOL     OW41643   5.174   0.862   3.069
46604SOL    HW141644   5.230   0.787   3.088
46604SOL    HW241645   5.086   0.825   3.061
46605SOL     OW41646   9.540   9.375   0.479
46605SOL    HW141647   9.454   9.396   0.515
46605SOL    HW241648   9.523   9.308   0.413
46606SOL     OW41649   8.054   8.967   3.591
46606SOL    HW141650   8.036   8.987   3.499
46606SOL    HW241651   8.089   9.049   3.627
46607SOL     OW41652   6.841   6.682  14.515
46607SOL    HW141653   6.777   6.675  14.444
46607SOL    HW241654   6.855   6.592  14.543
46608SOL     OW41655   5.131  13.391  14.870
46608SOL    HW141656   5.067  13.424   0.057
46608SOL    HW241657   5.215  13.401   0.038
46609SOL     OW41658   8.834   6.075   7.863
46609SOL    HW141659   8.794   6.015   7.801
46609SOL    HW241660   8.922   6.089   7.829
46610SOL     OW41661  14.578   7.292  14.871
46610SOL    HW141662  14.646   7.284  14.804
46610SOL    HW241663  14.605   7.368   0.047
46611SOL     OW41664   7.374  14.781   6.730
46611SOL    HW141665   7.302  14.720   6.712
46611SOL    HW241666   7.429  14.734   6.793
46612SOL     OW41667   7.146   3.406   5.138
46612SOL    HW141668   7.239   3.425   5.144
46612SOL    HW241669   7.109   3.480   5.090
46613SOL     OW41670   2.850   0.252   6.189
46613SOL    HW141671   2.772   0.302   6.210
46613SOL    HW241672   2.858   0.258   6.093
46614SOL     OW41673  12.697   1.944   3.915
46614SOL    HW141674  12.675   2.025   3.869
46614SOL    HW241675  12.636   1.879   3.880
46615SOL     OW41676   9.464  12.689   0.221
46615SOL    HW141677   9.500  12.610   0.262
46615SOL    HW241678   9.513  12.698   0.139
46616SOL     OW41679   3.538  12.149   4.003
46616SOL    HW141680   3.619  12.189   4.037
46616SOL    HW241681   3.561  12.057   3.989
46617SOL     OW41682   5.439   6.344   6.641
46617SOL    HW141683   5.401   6.260   6.617
46617SOL    HW241684   5.376   6.409   6.609
46618SOL     OW41685  11.239   2.229   3.771
46618SOL    HW141686  11.252   2.139   3.741
46618SOL    HW241687  11.180   2.268   3.707
46619SOL     OW41688   8.806   0.683   6.998
46619SOL    HW141689   8.724   0.733   6.991
46619SOL    HW241690   8.791   0.624   7.071
46620SOL     OW41691   6.061  13.817   1.860
46620SOL    HW141692   6.155  13.811   1.843
46620SOL    HW241693   6.055  13.844   1.951
46621SOL     OW41694   1.319   7.579   7.652
46621SOL    HW141695   1.354   7.540   7.733
46621SOL    HW241696   1.346   7.671   7.656
46622SOL     OW41697   9.743   9.132   8.591
46622SOL    HW141698   9.741   9.190   8.667
46622SOL    HW241699   9.691   9.056   8.618
46623SOL     OW41700  14.829  12.250   4.514
46623SOL    HW141701  14.861  12.204   4.436
46623SOL    HW241702  14.746  12.207   4.535
46624SOL     OW41703  14.290   8.069  10.880
46624SOL    HW141704  14.227   8.015  10.833
46624SOL    HW241705  14.352   8.097  10.813
46625SOL     OW41706  10.998   3.901   5.935
46625SOL    HW141707  10.925   3.962   5.922
46625SOL    HW241708  11.022   3.873   5.847
46626SOL     OW41709  11.405   1.927   9.846
46626SOL    HW141710  11.413   1.963   9.934
46626SOL    HW241711  11.475   1.969   9.796
46627SOL     OW41712   8.349  10.245   8.056
46627SOL    HW141713   8.408  10.212   8.124
46627SOL    HW241714   8.390  10.219   7.974
46628SOL     OW41715  14.284   9.209   1.350
46628SOL    HW141716  14.330   9.179   1.272
46628SOL    HW241717  14.193   9.217   1.323
46629SOL     OW41718   6.455   6.379  14.785
46629SOL    HW141719   6.508   6.455  14.812
46629SOL    HW241720   6.502   6.342  14.711
46630SOL     OW41721   3.331   3.412   1.463
46630SOL    HW141722   3.420   3.424   1.429
46630SOL    HW241723   3.313   3.319   1.450
46631SOL     OW41724   2.927   4.530   0.986
46631SOL    HW141725   2.879   4.508   0.906
46631SOL    HW241726   3.017   4.542   0.958
46632SOL     OW41727   8.399  12.524   4.128
46632SOL    HW141728   8.342  12.530   4.205
46632SOL    HW241729   8.483  12.558   4.158
46633SOL     OW41730   5.062   3.608   0.553
46633SOL    HW141731   4.984   3.641   0.508
46633SOL    HW241732   5.134   3.657   0.514
46634SOL     OW41733   4.067  10.599   4.474
46634SOL    HW141734   4.092  10.507   4.488
46634SOL    HW241735   4.111  10.647   4.544
46635SOL     OW41736   4.384  13.771  12.053
46635SOL    HW141737   4.456  13.743  12.111
46635SOL    HW241738   4.311  13.714  12.076
46636SOL     OW41739  14.286   4.030   6.077
46636SOL    HW141740  14.220   4.001   6.140
46636SOL    HW241741  14.266   3.981   5.997
46637SOL     OW41742  11.582  11.587   9.017
46637SOL    HW141743  11.552  11.591   8.926
46637SOL    HW241744  11.502  11.587   9.069
46638SOL     OW41745   0.388   8.093  13.060
46638SOL    HW141746   0.364   8.091  12.967
46638SOL    HW241747   0.376   8.004  13.090
46639SOL     OW41748   5.127  11.969   7.353
46639SOL    HW141749   5.116  11.897   7.291
46639SOL    HW241750   5.206  11.946   7.402
46640SOL     OW41751  12.462   8.369   4.094
46640SOL    HW141752  12.416   8.445   4.060
46640SOL    HW241753  12.526   8.347   4.027
46641SOL     OW41754  11.533  10.650  10.164
46641SOL    HW141755  11.616  10.615  10.131
46641SOL    HW241756  11.556  10.696  10.244
46642SOL     OW41757  13.944  13.234   4.221
46642SOL    HW141758  13.962  13.148   4.183
46642SOL    HW241759  13.932  13.292   4.145
46643SOL     OW41760   8.210  10.294   9.685
46643SOL    HW141761   8.154  10.352   9.736
46643SOL    HW241762   8.290  10.344   9.671
46644SOL     OW41763   0.589   7.211   7.053
46644SOL    HW141764   0.643   7.286   7.076
46644SOL    HW241765   0.514   7.217   7.111
46645SOL     OW41766   1.965   0.546   4.926
46645SOL    HW141767   1.980   0.591   4.843
46645SOL    HW241768   2.050   0.508   4.949
46646SOL     OW41769   5.446   5.518  13.556
46646SOL    HW141770   5.463   5.458  13.484
46646SOL    HW241771   5.492   5.599  13.533
46647SOL     OW41772   7.298   6.722  11.369
46647SOL    HW141773   7.239   6.653  11.338
46647SOL    HW241774   7.369   6.722  11.305
46648SOL     OW41775   5.875  13.613   2.225
46648SOL    HW141776   5.781  13.629   2.215
46648SOL    HW241777   5.897  13.653   2.309
46649SOL     OW41778   8.121   8.602  12.446
46649SOL    HW141779   8.202   8.647  12.422
46649SOL    HW241780   8.133   8.578  12.538
46650SOL     OW41781  11.283   3.631   6.927
46650SOL    HW141782  11.249   3.704   6.977
46650SOL    HW241783  11.378   3.644   6.927
46651SOL     OW41784  14.233   3.844  12.469
46651SOL    HW141785  14.268   3.846  12.558
46651SOL    HW241786  14.163   3.779  12.472
46652SOL     OW41787   2.587   0.488   6.564
46652SOL    HW141788   2.635   0.514   6.486
46652SOL    HW241789   2.620   0.400   6.584
46653SOL     OW41790   0.139   2.698   1.377
46653SOL    HW141791   0.178   2.643   1.445
46653SOL    HW241792   0.211   2.717   1.317
46654SOL     OW41793  10.188  10.965   6.065
46654SOL    HW141794  10.176  10.899   5.997
46654SOL    HW241795  10.229  11.039   6.020
46655SOL     OW41796   3.063  11.206   2.061
46655SOL    HW141797   3.119  11.150   2.115
46655SOL    HW241798   3.104  11.292   2.065
46656SOL     OW41799  13.260   1.505  10.802
46656SOL    HW141800  13.281   1.419  10.765
46656SOL    HW241801  13.165   1.507  10.806
46657SOL     OW41802   3.771   0.526   8.875
46657SOL    HW141803   3.751   0.572   8.957
46657SOL    HW241804   3.773   0.594   8.809
46658SOL     OW41805   0.391  12.384   5.777
46658SOL    HW141806   0.325  12.352   5.716
46658SOL    HW241807   0.450  12.437   5.724
46659SOL     OW41808   8.359  12.399   4.769
46659SOL    HW141809   8.396  12.380   4.855
46659SOL    HW241810   8.412  12.471   4.735
46660SOL     OW41811   8.486  13.258  12.827
46660SOL    HW141812   8.523  13.179  12.786
46660SOL    HW241813   8.460  13.313  12.754
46661SOL     OW41814   8.131   5.204   4.554
46661SOL    HW141815   8.139   5.244   4.467
46661SOL    HW241816   8.220   5.174   4.575
46662SOL     OW41817   9.752   5.054   4.925
46662SOL    HW141818   9.740   5.141   4.887
46662SOL    HW241819   9.804   5.069   5.004
46663SOL     OW41820   6.311   0.496   8.319
46663SOL    HW141821   6.359   0.510   8.401
46663SOL    HW241822   6.233   0.446   8.344
46664SOL     OW41823   7.918   6.261   7.894
46664SOL    HW141824   7.896   6.214   7.814
46664SOL    HW241825   7.846   6.323   7.907
46665SOL     OW41826   7.523   8.618   5.087
46665SOL    HW141827   7.492   8.571   5.164
46665SOL    HW241828   7.446   8.663   5.052
46666SOL     OW41829  10.221  14.327   8.006
46666SOL    HW141830  10.253  14.263   8.070
46666SOL    HW241831  10.298  14.346   7.952
46667SOL     OW41832   4.567  14.453  10.433
46667SOL    HW141833   4.602  14.454  10.344
46667SOL    HW241834   4.634  14.408  10.485
46668SOL     OW41835   4.402  10.372   6.047
46668SOL    HW141836   4.427  10.295   6.098
46668SOL    HW241837   4.307  10.379   6.058
46669SOL     OW41838  12.613  12.294   9.842
46669SOL    HW141839  12.632  12.308   9.749
46669SOL    HW241840  12.525  12.328   9.854
46670SOL     OW41841  11.329   5.072   3.988
46670SOL    HW141842  11.314   5.100   4.078
46670SOL    HW241843  11.397   5.130   3.955
46671SOL     OW41844   6.509   4.684  10.814
46671SOL    HW141845   6.560   4.635  10.879
46671SOL    HW241846   6.550   4.770  10.811
46672SOL     OW41847   7.846   5.951  11.460
46672SOL    HW141848   7.853   6.038  11.421
46672SOL    HW241849   7.784   5.905  11.404
46673SOL     OW41850  13.785   2.762   0.665
46673SOL    HW141851  13.752   2.845   0.699
46673SOL    HW241852  13.873   2.754   0.702
46674SOL     OW41853  11.078   3.532   9.734
46674SOL    HW141854  11.082   3.507   9.642
46674SOL    HW241855  11.163   3.569   9.753
46675SOL     OW41856   2.383  10.896   5.973
46675SOL    HW141857   2.395  10.875   5.880
46675SOL    HW241858   2.337  10.821   6.009
46676SOL     OW41859  12.354   6.993   2.728
46676SOL    HW141860  12.348   7.030   2.641
46676SOL    HW241861  12.318   6.904   2.719
46677SOL     OW41862   7.724   8.963  11.576
46677SOL    HW141863   7.659   8.993  11.640
46677SOL    HW241864   7.691   8.879  11.545
46678SOL     OW41865  12.356   5.268   3.270
46678SOL    HW141866  12.325   5.272   3.360
46678SOL    HW241867  12.278   5.280   3.216
46679SOL     OW41868   5.770   6.339   0.982
46679SOL    HW141869   5.857   6.299   0.976
46679SOL    HW241870   5.732   6.303   1.062
46680SOL     OW41871   6.926  11.565   6.789
46680SOL    HW141872   6.958  11.655   6.793
46680SOL    HW241873   7.003  11.513   6.765
46681SOL     OW41874   1.524   7.315   6.773
46681SOL    HW141875   1.618   7.330   6.785
46681SOL    HW241876   1.517   7.222   6.751
46682SOL     OW41877   0.991   5.488   7.681
46682SOL    HW141878   0.922   5.459   7.621
46682SOL    HW241879   1.023   5.569   7.642
46683SOL     OW41880  14.683   9.861   5.024
46683SOL    HW141881  14.665   9.955   5.024
46683SOL    HW241882  14.652   9.830   4.939
46684SOL     OW41883   5.463   7.439   5.837
46684SOL    HW141884   5.457   7.534   5.837
46684SOL    HW241885   5.537   7.419   5.894
46685SOL     OW41886   9.435   2.212  10.535
46685SOL    HW141887   9.413   2.149  10.604
46685SOL    HW241888   9.500   2.167  10.482
46686SOL     OW41889  11.509   4.880   8.802
46686SOL    HW141890  11.528   4.967   8.838
46686SOL    HW241891  11.594   4.846   8.774
46687SOL     OW41892   3.768  10.924   9.329
46687SOL    HW141893   3.768  10.865   9.404
46687SOL    HW241894   3.859  10.926   9.300
46688SOL     OW41895  10.894   1.742   9.151
46688SOL    HW141896  10.859   1.697   9.228
46688SOL    HW241897  10.929   1.824   9.186
46689SOL     OW41898   4.420  12.408   2.962
46689SOL    HW141899   4.420  12.419   3.057
46689SOL    HW241900   4.405  12.315   2.949
46690SOL     OW41901   1.810   1.709   6.460
46690SOL    HW141902   1.780   1.756   6.382
46690SOL    HW241903   1.832   1.621   6.428
46691SOL     OW41904  14.131   1.311   5.347
46691SOL    HW141905  14.107   1.307   5.254
46691SOL    HW241906  14.221   1.280   5.350
46692SOL     OW41907   7.127  12.366  12.507
46692SOL    HW141908   7.037  12.359  12.476
46692SOL    HW241909   7.175  12.406  12.434
46693SOL     OW41910  10.083   9.028  14.298
46693SOL    HW141911  10.176   9.022  14.277
46693SOL    HW241912  10.073   9.115  14.337
46694SOL     OW41913  13.487  13.980  11.201
46694SOL    HW141914  13.465  13.888  11.185
46694SOL    HW241915  13.576  13.977  11.238
46695SOL     OW41916   5.769   3.551   0.374
46695SOL    HW141917   5.673   3.552   0.372
46695SOL    HW241918   5.794   3.521   0.288
46696SOL     OW41919   8.715   4.910   6.656
46696SOL    HW141920   8.623   4.937   6.658
46696SOL    HW241921   8.764   4.985   6.688
46697SOL     OW41922  12.112   4.088   0.638
46697SOL    HW141923  12.103   4.158   0.703
46697SOL    HW241924  12.202   4.098   0.606
46698SOL     OW41925   3.020   8.552   5.079
46698SOL    HW141926   3.115   8.557   5.066
46698SOL    HW241927   2.985   8.625   5.028
46699SOL     OW41928   0.367   6.608   6.190
46699SOL    HW141929   0.458   6.631   6.209
46699SOL    HW241930   0.322   6.611   6.274
46700SOL     OW41931   1.878  13.817   1.416
46700SOL    HW141932   1.874  13.898   1.468
46700SOL    HW241933   1.870  13.847   1.325
46701SOL     OW41934   7.949   2.942   0.182
46701SOL    HW141935   7.890   3.002   0.226
46701SOL    HW241936   8.026   2.938   0.239
46702SOL     OW41937   8.094   4.142  10.677
46702SOL    HW141938   8.099   4.048  10.657
46702SOL    HW241939   8.100   4.147  10.772
46703SOL     OW41940   6.392  12.126   7.762
46703SOL    HW141941   6.384  12.219   7.782
46703SOL    HW241942   6.322  12.108   7.700
46704SOL     OW41943  14.645  13.108   4.514
46704SOL    HW141944  14.630  13.032   4.571
46704SOL    HW241945  14.605  13.181   4.562
46705SOL     OW41946  13.409   7.516   2.345
46705SOL    HW141947  13.458   7.589   2.383
46705SOL    HW241948  13.427   7.521   2.251
46706SOL     OW41949   8.822   5.306   9.552
46706SOL    HW141950   8.861   5.393   9.558
46706SOL    HW241951   8.728   5.322   9.551
46707SOL     OW41952   9.902   6.010   8.552
46707SOL    HW141953   9.934   6.061   8.477
46707SOL    HW241954   9.949   5.927   8.547
46708SOL     OW41955   5.386  12.756   3.761
46708SOL    HW141956   5.322  12.727   3.827
46708SOL    HW241957   5.336  12.816   3.706
46709SOL     OW41958   3.978   3.527   3.503
46709SOL    HW141959   4.005   3.527   3.411
46709SOL    HW241960   4.058   3.506   3.552
46710SOL     OW41961  12.388   0.419  14.419
46710SOL    HW141962  12.394   0.461  14.332
46710SOL    HW241963  12.343   0.484  14.473
46711SOL     OW41964   9.517   4.882   6.889
46711SOL    HW141965   9.589   4.878   6.953
46711SOL    HW241966   9.559   4.865   6.805
46712SOL     OW41967   3.231   2.488   1.423
46712SOL    HW141968   3.200   2.546   1.493
46712SOL    HW241969   3.192   2.524   1.344
46713SOL     OW41970   7.647  14.070  13.488
46713SOL    HW141971   7.584  14.035  13.425
46713SOL    HW241972   7.615  14.158  13.508
46714SOL     OW41973   1.898  10.229   7.243
46714SOL    HW141974   1.987  10.264   7.238
46714SOL    HW241975   1.843  10.305   7.256
46715SOL     OW41976   8.037   5.245   3.942
46715SOL    HW141977   8.085   5.326   3.926
46715SOL    HW241978   7.956   5.272   3.985
46716SOL     OW41979  14.700  12.961  10.610
46716SOL    HW141980  14.679  13.008  10.691
46716SOL    HW241981  14.650  13.007  10.542
46717SOL     OW41982  10.281   6.943   0.058
46717SOL    HW141983  10.360   6.907   0.017
46717SOL    HW241984  10.214   6.876   0.044
46718SOL     OW41985   7.501  13.247   4.352
46718SOL    HW141986   7.497  13.319   4.416
46718SOL    HW241987   7.542  13.175   4.401
46719SOL     OW41988  12.868  10.521   5.261
46719SOL    HW141989  12.836  10.437   5.294
46719SOL    HW241990  12.826  10.586   5.316
46720SOL     OW41991   8.057  12.425   4.375
46720SOL    HW141992   7.985  12.441   4.315
46720SOL    HW241993   8.077  12.332   4.365
46721SOL     OW41994   9.963   0.180   6.359
46721SOL    HW141995   9.871   0.201   6.374
46721SOL    HW241996   9.961   0.099   6.308
46722SOL     OW41997   9.687   0.545  10.945
46722SOL    HW141998   9.607   0.596  10.955
46722SOL    HW241999   9.714   0.524  11.035
46723SOL     OW42000  13.533  10.793   4.719
46723SOL    HW142001  13.571  10.873   4.683
46723SOL    HW242002  13.576  10.722   4.671
46724SOL     OW42003  13.821   8.867   8.490
46724SOL    HW142004  13.786   8.781   8.467
46724SOL    HW242005  13.763   8.898   8.560
46725SOL     OW42006   2.772  13.931   1.993
46725SOL    HW142007   2.742  14.022   1.992
46725SOL    HW242008   2.793  13.912   1.901
46726SOL     OW42009   4.947   1.675   7.472
46726SOL    HW142010   5.038   1.691   7.497
46726SOL    HW242011   4.934   1.730   7.395
46727SOL     OW42012  13.162   8.055   9.565
46727SOL    HW142013  13.236   8.048   9.625
46727SOL    HW242014  13.098   7.993   9.598
46728SOL     OW42015   9.237   4.018   0.971
46728SOL    HW142016   9.266   4.021   1.062
46728SOL    HW242017   9.290   3.948   0.932
46729SOL     OW42018   0.672  13.859   6.409
46729SOL    HW142019   0.624  13.813   6.478
46729SOL    HW242020   0.763  13.859   6.439
46730SOL     OW42021   6.930   0.027  10.956
46730SOL    HW142022   6.994  14.858  10.901
46730SOL    HW242023   6.969   0.028  11.044
46731SOL     OW42024  10.230  14.224  11.266
46731SOL    HW142025  10.274  14.145  11.234
46731SOL    HW242026  10.152  14.232  11.212
46732SOL     OW42027  13.757   7.372   9.042
46732SOL    HW142028  13.776   7.338   9.130
46732SOL    HW242029  13.732   7.295   8.992
46733SOL     OW42030   5.386  11.934  10.044
46733SOL    HW142031   5.346  11.978  10.120
46733SOL    HW242032   5.479  11.956  10.050
46734SOL     OW42033   0.719   1.897   9.865
46734SOL    HW142034   0.713   1.836   9.939
46734SOL    HW242035   0.813   1.901   9.845
46735SOL     OW42036   2.199  14.787  14.352
46735SOL    HW142037   2.219  14.872  14.313
46735SOL    HW242038   2.215  14.798  14.446
46736SOL     OW42039   4.323  10.967  12.090
46736SOL    HW142040   4.289  10.979  12.178
46736SOL    HW242041   4.418  10.959  12.101
46737SOL     OW42042   2.229  11.644   5.491
46737SOL    HW142043   2.167  11.621   5.560
46737SOL    HW242044   2.194  11.725   5.453
46738SOL     OW42045  13.275  13.886   4.485
46738SOL    HW142046  13.299  13.890   4.578
46738SOL    HW242047  13.355  13.857   4.441
46739SOL     OW42048   0.697  13.968   9.986
46739SOL    HW142049   0.784  13.930   9.975
46739SOL    HW242050   0.693  14.038   9.921
46740SOL     OW42051  14.101  10.360  13.679
46740SOL    HW142052  14.134  10.398  13.761
46740SOL    HW242053  14.177  10.361  13.620
46741SOL     OW42054   9.804   0.482   5.993
46741SOL    HW142055   9.821   0.541   6.066
46741SOL    HW242056   9.717   0.509   5.961
46742SOL     OW42057  10.871   5.337  10.576
46742SOL    HW142058  10.802   5.276  10.551
46742SOL    HW242059  10.889   5.388  10.497
46743SOL     OW42060   3.559   7.919   9.724
46743SOL    HW142061   3.572   8.011   9.700
46743SOL    HW242062   3.473   7.897   9.687
46744SOL     OW42063   6.401  10.329  11.249
46744SOL    HW142064   6.335  10.390  11.214
46744SOL    HW242065   6.350  10.265  11.298
46745SOL     OW42066   9.121   3.976   2.637
46745SOL    HW142067   9.084   3.929   2.562
46745SOL    HW242068   9.216   3.972   2.624
46746SOL     OW42069   4.909   9.301  10.427
46746SOL    HW142070   4.932   9.345  10.345
46746SOL    HW242071   4.960   9.220  10.425
46747SOL     OW42072   2.214   2.084   6.021
46747SOL    HW142073   2.204   2.167   6.067
46747SOL    HW242074   2.260   2.027   6.082
46748SOL     OW42075   5.432  11.522  11.398
46748SOL    HW142076   5.388  11.569  11.328
46748SOL    HW242077   5.514  11.571  11.412
46749SOL     OW42078   6.255  14.186   2.779
46749SOL    HW142079   6.221  14.115   2.834
46749SOL    HW242080   6.208  14.177   2.697
46750SOL     OW42081  14.065  13.375   2.233
46750SOL    HW142082  14.074  13.378   2.138
46750SOL    HW242083  13.985  13.425   2.251
46751SOL     OW42084  10.823   3.084  13.219
46751SOL    HW142085  10.877   3.163  13.228
46751SOL    HW242086  10.886   3.012  13.218
46752SOL     OW42087  12.591   8.931   1.829
46752SOL    HW142088  12.666   8.949   1.886
46752SOL    HW242089  12.629   8.892   1.750
46753SOL     OW42090   4.859  10.089  10.919
46753SOL    HW142091   4.785  10.138  10.955
46753SOL    HW242092   4.897  10.148  10.854
46754SOL     OW42093  12.614   5.443   7.057
46754SOL    HW142094  12.587   5.486   6.976
46754SOL    HW242095  12.566   5.361   7.058
46755SOL     OW42096   6.443   8.345   1.032
46755SOL    HW142097   6.493   8.266   1.054
46755SOL    HW242098   6.491   8.383   0.958
46756SOL     OW42099  11.469   4.066  11.205
46756SOL    HW142100  11.385   4.098  11.240
46756SOL    HW242101  11.535   4.111  11.256
46757SOL     OW42102   3.644   4.457   5.220
46757SOL    HW142103   3.689   4.404   5.286
46757SOL    HW242104   3.590   4.518   5.271
46758SOL     OW42105   8.971   1.949   0.235
46758SOL    HW142106   8.897   1.985   0.284
46758SOL    HW242107   8.987   1.863   0.275
46759SOL     OW42108  10.645  12.585   5.330
46759SOL    HW142109  10.682  12.672   5.316
46759SOL    HW242110  10.710  12.540   5.385
46760SOL     OW42111   9.787  13.563   5.127
46760SOL    HW142112   9.805  13.535   5.038
46760SOL    HW242113   9.763  13.655   5.118
46761SOL     OW42114   7.961  11.661  14.130
46761SOL    HW142115   8.057  11.659  14.129
46761SOL    HW242116   7.936  11.569  14.120
46762SOL     OW42117   2.819   6.932  10.223
46762SOL    HW142118   2.798   6.970  10.138
46762SOL    HW242119   2.842   7.007  10.278
46763SOL     OW42120   3.782   8.444   2.450
46763SOL    HW142121   3.823   8.467   2.366
46763SOL    HW242122   3.697   8.487   2.447
46764SOL     OW42123  11.138  11.563   9.223
46764SOL    HW142124  11.082  11.604   9.158
46764SOL    HW242125  11.204  11.629   9.243
46765SOL     OW42126   7.650  10.179  13.808
46765SOL    HW142127   7.630  10.228  13.728
46765SOL    HW242128   7.597  10.100  13.802
46766SOL     OW42129  13.571   3.955   5.590
46766SOL    HW142130  13.571   4.037   5.640
46766SOL    HW242131  13.491   3.911   5.617
46767SOL     OW42132   1.052   0.792   8.341
46767SOL    HW142133   1.101   0.873   8.360
46767SOL    HW242134   1.119   0.729   8.316
46768SOL     OW42135  11.946   8.324   1.537
46768SOL    HW142136  11.945   8.408   1.583
46768SOL    HW242137  12.038   8.304   1.524
46769SOL     OW42138   8.178   4.154  12.944
46769SOL    HW142139   8.194   4.245  12.971
46769SOL    HW242140   8.221   4.147  12.859
46770SOL     OW42141   5.026   9.254  13.386
46770SOL    HW142142   5.078   9.296  13.455
46770SOL    HW242143   4.951   9.216  13.431
46771SOL     OW42144   8.218   7.478   0.107
46771SOL    HW142145   8.283   7.543   0.136
46771SOL    HW242146   8.155   7.475   0.179
46772SOL     OW42147   0.264   1.551  13.011
46772SOL    HW142148   0.273   1.619  13.078
46772SOL    HW242149   0.354   1.526  12.990
46773SOL     OW42150  11.845   1.606  14.513
46773SOL    HW142151  11.812   1.694  14.494
46773SOL    HW242152  11.926   1.621  14.563
46774SOL     OW42153   3.656   2.357   5.415
46774SOL    HW142154   3.658   2.279   5.359
46774SOL    HW242155   3.747   2.373   5.438
46775SOL     OW42156   4.150  12.130  10.290
46775SOL    HW142157   4.138  12.225  10.282
46775SOL    HW242158   4.230  12.112  10.241
46776SOL     OW42159  12.420   8.556   2.622
46776SOL    HW142160  12.462   8.473   2.596
46776SOL    HW242161  12.444   8.617   2.553
46777SOL     OW42162   6.192   0.026   4.543
46777SOL    HW142163   6.259   0.049   4.607
46777SOL    HW242164   6.231  14.831   4.491
46778SOL     OW42165  13.493   2.069  10.481
46778SOL    HW142166  13.431   2.021  10.537
46778SOL    HW242167  13.579   2.041  10.512
46779SOL     OW42168   7.608   6.505   5.028
46779SOL    HW142169   7.587   6.475   4.940
46779SOL    HW242170   7.530   6.553   5.056
46780SOL     OW42171   3.070  10.144   0.815
46780SOL    HW142172   3.021  10.065   0.792
46780SOL    HW242173   3.069  10.145   0.911
46781SOL     OW42174   3.865  12.366   2.040
46781SOL    HW142175   3.875  12.449   1.994
46781SOL    HW242176   3.859  12.390   2.132
46782SOL     OW42177   7.699   5.709   4.021
46782SOL    HW142178   7.793   5.699   4.006
46782SOL    HW242179   7.675   5.632   4.074
46783SOL     OW42180   3.462   2.157   5.637
46783SOL    HW142181   3.414   2.234   5.607
46783SOL    HW242182   3.429   2.085   5.583
46784SOL     OW42183  11.457   0.997   3.986
46784SOL    HW142184  11.455   1.091   3.970
46784SOL    HW242185  11.482   0.959   3.901
46785SOL     OW42186   4.010   9.563  10.357
46785SOL    HW142187   3.983   9.565  10.449
46785SOL    HW242188   4.010   9.470  10.334
46786SOL     OW42189   9.317   1.775  12.112
46786SOL    HW142190   9.261   1.749  12.185
46786SOL    HW242191   9.378   1.839  12.150
46787SOL     OW42192   8.752   3.439  13.221
46787SOL    HW142193   8.796   3.432  13.136
46787SOL    HW242194   8.660   3.455  13.200
46788SOL     OW42195  11.689  10.569  10.846
46788SOL    HW142196  11.764  10.629  10.841
46788SOL    HW242197  11.691  10.522  10.762
46789SOL     OW42198  12.440  12.946  13.054
46789SOL    HW142199  12.482  12.860  13.050
46789SOL    HW242200  12.442  12.969  13.147
46790SOL     OW42201  13.555   6.363   6.545
46790SOL    HW142202  13.472   6.366   6.592
46790SOL    HW242203  13.614   6.315   6.603
46791SOL     OW42204   5.813  13.651  12.194
46791SOL    HW142205   5.884  13.608  12.145
46791SOL    HW242206   5.840  13.743  12.199
46792SOL     OW42207  11.801   0.497   5.211
46792SOL    HW142208  11.784   0.403   5.199
46792SOL    HW242209  11.716   0.534   5.233
46793SOL     OW42210   2.576   6.793  10.267
46793SOL    HW142211   2.660   6.834  10.289
46793SOL    HW242212   2.516   6.866  10.255
46794SOL     OW42213  11.912  11.532   5.240
46794SOL    HW142214  11.818  11.540   5.250
46794SOL    HW242215  11.947  11.618   5.263
46795SOL     OW42216   7.607  11.348  10.512
46795SOL    HW142217   7.522  11.346  10.556
46795SOL    HW242218   7.593  11.402  10.435
46796SOL     OW42219  13.789   3.281  14.868
46796SOL    HW142220  13.855   3.245  14.808
46796SOL    HW242221  13.810   3.242   0.077
46797SOL     OW42222  10.353   4.273  11.782
46797SOL    HW142223  10.409   4.204  11.818
46797SOL    HW242224  10.283   4.226  11.736
46798SOL     OW42225   0.131   1.840   6.457
46798SOL    HW142226   0.223   1.841   6.430
46798SOL    HW242227   0.090   1.774   6.400
46799SOL     OW42228  11.763   2.317   4.669
46799SOL    HW142229  11.782   2.311   4.576
46799SOL    HW242230  11.835   2.270   4.711
46800SOL     OW42231  13.133  12.760   7.772
46800SOL    HW142232  13.176  12.698   7.830
46800SOL    HW242233  13.113  12.709   7.693
46801SOL     OW42234  11.766  14.641   6.551
46801SOL    HW142235  11.758  14.607   6.640
46801SOL    HW242236  11.805  14.727   6.562
46802SOL     OW42237   8.254   9.593  12.588
46802SOL    HW142238   8.242   9.608  12.495
46802SOL    HW242239   8.211   9.667  12.630
46803SOL     OW42240   1.461   0.788   6.043
46803SOL    HW142241   1.452   0.693   6.049
46803SOL    HW242242   1.447   0.807   5.950
46804SOL     OW42243   4.289  14.774  12.338
46804SOL    HW142244   4.382  14.797  12.345
46804SOL    HW242245   4.271  14.773  12.244
46805SOL     OW42246   8.475   4.905  14.535
46805SOL    HW142247   8.462   4.893  14.441
46805SOL    HW242248   8.388   4.894  14.573
46806SOL     OW42249  10.177   0.844   6.723
46806SOL    HW142250  10.165   0.751   6.744
46806SOL    HW242251  10.128   0.857   6.642
46807SOL     OW42252   1.479   7.021  13.547
46807SOL    HW142253   1.554   7.075  13.522
46807SOL    HW242254   1.477   7.025  13.643
46808SOL     OW42255   3.683   4.996   4.955
46808SOL    HW142256   3.720   4.910   4.975
46808SOL    HW242257   3.628   4.981   4.879
46809SOL     OW42258  11.941  11.564   7.291
46809SOL    HW142259  12.007  11.530   7.351
46809SOL    HW242260  11.987  11.631   7.240
46810SOL     OW42261   1.342   0.171  10.702
46810SOL    HW142262   1.254   0.189  10.670
46810SOL    HW242263   1.328   0.134  10.789
46811SOL     OW42264   0.815   0.798   7.225
46811SOL    HW142265   0.843   0.863   7.289
46811SOL    HW242266   0.792   0.849   7.147
46812SOL     OW42267   4.023  14.797   2.330
46812SOL    HW142268   3.986  14.875   2.372
46812SOL    HW242269   4.115  14.820   2.316
46813SOL     OW42270   1.167  13.488   9.887
46813SOL    HW142271   1.192  13.407   9.843
46813SOL    HW242272   1.223  13.555   9.849
46814SOL     OW42273   5.180   5.063  12.480
46814SOL    HW142274   5.147   5.013  12.555
46814SOL    HW242275   5.250   5.118  12.515
46815SOL     OW42276  12.753   8.957  10.180
46815SOL    HW142277  12.693   8.990  10.113
46815SOL    HW242278  12.757   9.028  10.245
46816SOL     OW42279   7.965   0.828   9.968
46816SOL    HW142280   8.004   0.856   9.885
46816SOL    HW242281   8.036   0.833  10.031
46817SOL     OW42282   0.437  13.327   4.548
46817SOL    HW142283   0.490  13.392   4.594
46817SOL    HW242284   0.364  13.377   4.511
46818SOL     OW42285   9.298   9.535  12.410
46818SOL    HW142286   9.382   9.495  12.389
46818SOL    HW242287   9.315   9.589  12.488
46819SOL     OW42288   7.271   8.221   9.880
46819SOL    HW142289   7.209   8.183   9.943
46819SOL    HW242290   7.238   8.192   9.794
46820SOL     OW42291   7.747  13.232   8.028
46820SOL    HW142292   7.795  13.194   8.102
46820SOL    HW242293   7.658  13.245   8.062
46821SOL     OW42294   2.123  10.810   9.540
46821SOL    HW142295   2.159  10.800   9.628
46821SOL    HW242296   2.125  10.721   9.503
46822SOL     OW42297   6.566   4.284   8.524
46822SOL    HW142298   6.573   4.379   8.528
46822SOL    HW242299   6.610   4.253   8.603
46823SOL     OW42300  11.228   2.636   2.308
46823SOL    HW142301  11.204   2.546   2.287
46823SOL    HW242302  11.162   2.689   2.263
46824SOL     OW42303  12.158   0.376  10.197
46824SOL    HW142304  12.241   0.380  10.149
46824SOL    HW242305  12.178   0.415  10.282
46825SOL     OW42306  12.944  11.029   3.707
46825SOL    HW142307  12.999  11.107   3.703
46825SOL    HW242308  12.878  11.050   3.773
46826SOL     OW42309   2.037   4.837  13.959
46826SOL    HW142310   2.101   4.909  13.958
46826SOL    HW242311   2.090   4.758  13.966
46827SOL     OW42312  11.268   6.985   9.154
46827SOL    HW142313  11.275   7.052   9.221
46827SOL    HW242314  11.176   6.986   9.129
46828SOL     OW42315   3.992  13.660   0.696
46828SOL    HW142316   4.024  13.623   0.614
46828SOL    HW242317   3.897  13.663   0.685
46829SOL     OW42318   7.205   3.346   9.497
46829SOL    HW142319   7.267   3.275   9.513
46829SOL    HW242320   7.142   3.310   9.434
46830SOL     OW42321   2.338  10.524   4.618
46830SOL    HW142322   2.426  10.487   4.607
46830SOL    HW242323   2.321  10.569   4.535
46831SOL     OW42324   6.850   7.808   7.244
46831SOL    HW142325   6.856   7.817   7.149
46831SOL    HW242326   6.764   7.844   7.267
46832SOL     OW42327   8.104  10.067   3.837
46832SOL    HW142328   8.163  10.141   3.827
46832SOL    HW242329   8.059  10.082   3.920
46833SOL     OW42330   5.197   0.870  14.192
46833SOL    HW142331   5.214   0.953  14.147
46833SOL    HW242332   5.141   0.821  14.130
46834SOL     OW42333  11.148   4.602  14.274
46834SOL    HW142334  11.164   4.528  14.216
46834SOL    HW242335  11.226   4.608  14.329
46835SOL     OW42336   6.254   2.616   0.009
46835SOL    HW142337   6.299   2.633  14.802
46835SOL    HW242338   6.168   2.585  14.859
46836SOL     OW42339   8.654   9.011   1.091
46836SOL    HW142340   8.688   9.013   1.002
46836SOL    HW242341   8.725   9.043   1.145
46837SOL     OW42342  12.548   4.459  11.121
46837SOL    HW142343  12.532   4.407  11.199
46837SOL    HW242344  12.626   4.421  11.081
46838SOL     OW42345   5.837   3.865   1.489
46838SOL    HW142346   5.758   3.831   1.447
46838SOL    HW242347   5.874   3.925   1.425
46839SOL     OW42348   6.048   3.067   6.021
46839SOL    HW142349   5.993   3.126   6.073
46839SOL    HW242350   6.096   3.125   5.962
46840SOL     OW42351   0.661  12.575  12.660
46840SOL    HW142352   0.699  12.663  12.654
46840SOL    HW242353   0.605  12.579  12.738
46841SOL     OW42354   4.945   4.128   8.137
46841SOL    HW142355   4.853   4.119   8.160
46841SOL    HW242356   4.944   4.157   8.046
46842SOL     OW42357   7.290   1.258   0.015
46842SOL    HW142358   7.368   1.257   0.071
46842SOL    HW242359   7.222   1.216   0.068
46843SOL     OW42360   7.290  10.066  11.273
46843SOL    HW142361   7.209  10.056  11.223
46843SOL    HW242362   7.357  10.023  11.219
46844SOL     OW42363   5.185   9.351  10.741
46844SOL    HW142364   5.182   9.379  10.650
46844SOL    HW242365   5.096   9.322  10.760
46845SOL     OW42366   5.328  10.502   6.077
46845SOL    HW142367   5.379  10.573   6.038
46845SOL    HW242368   5.263  10.480   6.011
46846SOL     OW42369  10.132   1.416   2.900
46846SOL    HW142370  10.072   1.342   2.901
46846SOL    HW242371  10.074   1.493   2.907
46847SOL     OW42372  10.010   9.681   5.890
46847SOL    HW142373  10.017   9.633   5.972
46847SOL    HW242374   9.956   9.757   5.912
46848SOL     OW42375   3.289   6.618   6.661
46848SOL    HW142376   3.367   6.671   6.677
46848SOL    HW242377   3.264   6.585   6.747
46849SOL     OW42378  10.915   3.563  13.246
46849SOL    HW142379  10.893   3.613  13.325
46849SOL    HW242380  10.960   3.625  13.190
46850SOL     OW42381   7.754   2.115   3.938
46850SOL    HW142382   7.825   2.133   4.000
46850SOL    HW242383   7.728   2.025   3.958
46851SOL     OW42384  12.637   4.935   5.243
46851SOL    HW142385  12.724   4.931   5.203
46851SOL    HW242386  12.605   5.023   5.223
46852SOL     OW42387   8.756   9.771   8.804
46852SOL    HW142388   8.788   9.692   8.761
46852SOL    HW242389   8.664   9.754   8.821
46853SOL     OW42390  13.572  14.522  10.286
46853SOL    HW142391  13.479  14.525  10.266
46853SOL    HW242392  13.578  14.548  10.378
46854SOL     OW42393   9.600   9.089  13.783
46854SOL    HW142394   9.549   9.160  13.743
46854SOL    HW242395   9.652   9.054  13.711
46855SOL     OW42396  13.263  11.446   9.216
46855SOL    HW142397  13.270  11.497   9.135
46855SOL    HW242398  13.171  11.454   9.242
46856SOL     OW42399  12.662   4.969   3.369
46856SOL    HW142400  12.573   4.995   3.391
46856SOL    HW242401  12.713   4.989   3.448
46857SOL     OW42402   8.568  10.465   5.253
46857SOL    HW142403   8.485  10.418   5.247
46857SOL    HW242404   8.626  10.405   5.299
46858SOL     OW42405   9.702   7.856   1.157
46858SOL    HW142406   9.743   7.777   1.121
46858SOL    HW242407   9.735   7.862   1.246
46859SOL     OW42408   3.565  12.291   1.272
46859SOL    HW142409   3.519  12.256   1.196
46859SOL    HW242410   3.496  12.319   1.332
46860SOL     OW42411  13.828  11.078   9.762
46860SOL    HW142412  13.856  10.987   9.772
46860SOL    HW242413  13.834  11.094   9.668
46861SOL     OW42414   1.207   5.416   2.662
46861SOL    HW142415   1.120   5.425   2.625
46861SOL    HW242416   1.264   5.399   2.586
46862SOL     OW42417   9.151   4.829  10.003
46862SOL    HW142418   9.066   4.789  10.018
46862SOL    HW242419   9.132   4.911   9.957
46863SOL     OW42420   4.451   7.415   7.249
46863SOL    HW142421   4.510   7.342   7.268
46863SOL    HW242422   4.456   7.427   7.155
46864SOL     OW42423   5.914   1.703   1.312
46864SOL    HW142424   5.977   1.773   1.294
46864SOL    HW242425   5.904   1.657   1.228
46865SOL     OW42426  10.068   1.954  11.934
46865SOL    HW142427  10.092   2.037  11.893
46865SOL    HW242428  10.151   1.905  11.940
46866SOL     OW42429  13.647   1.039  13.861
46866SOL    HW142430  13.553   1.022  13.853
46866SOL    HW242431  13.653   1.135  13.863
46867SOL     OW42432   9.399   3.257  11.338
46867SOL    HW142433   9.480   3.227  11.296
46867SOL    HW242434   9.407   3.225  11.428
46868SOL     OW42435  10.549   2.451  12.201
46868SOL    HW142436  10.519   2.489  12.118
46868SOL    HW242437  10.627   2.401  12.177
46869SOL     OW42438   6.064  10.259   6.583
46869SOL    HW142439   6.121  10.258   6.660
46869SOL    HW242440   6.054  10.166   6.560
46870SOL     OW42441   6.303   0.922  13.046
46870SOL    HW142442   6.279   1.004  13.003
46870SOL    HW242443   6.398   0.915  13.032
46871SOL     OW42444   2.027  10.777   5.135
46871SOL    HW142445   2.104  10.730   5.102
46871SOL    HW242446   2.063  10.843   5.194
46872SOL     OW42447  12.166   5.152  14.170
46872SOL    HW142448  12.172   5.219  14.102
46872SOL    HW242449  12.203   5.194  14.248
46873SOL     OW42450   9.613   5.572   6.543
46873SOL    HW142451   9.620   5.573   6.448
46873SOL    HW242452   9.666   5.646   6.571
46874SOL     OW42453   7.530   9.958   7.090
46874SOL    HW142454   7.447   9.918   7.118
46874SOL    HW242455   7.598   9.899   7.123
46875SOL     OW42456  13.617   0.555   1.799
46875SOL    HW142457  13.542   0.590   1.752
46875SOL    HW242458  13.680   0.627   1.802
46876SOL     OW42459  11.777  13.550   9.652
46876SOL    HW142460  11.835  13.489   9.699
46876SOL    HW242461  11.773  13.627   9.708
46877SOL     OW42462  12.199   0.556   1.497
46877SOL    HW142463  12.267   0.622   1.512
46877SOL    HW242464  12.132   0.602   1.446
46878SOL     OW42465   8.300   2.167   1.031
46878SOL    HW142466   8.365   2.119   1.082
46878SOL    HW242467   8.337   2.173   0.943
46879SOL     OW42468   2.381  10.085   2.612
46879SOL    HW142469   2.390  10.172   2.573
46879SOL    HW242470   2.471  10.053   2.619
46880SOL     OW42471   9.870  14.405   5.426
46880SOL    HW142472   9.839  14.495   5.416
46880SOL    HW242473   9.866  14.389   5.520
46881SOL     OW42474   5.738  13.758   8.883
46881SOL    HW142475   5.661  13.770   8.938
46881SOL    HW242476   5.738  13.835   8.825
46882SOL     OW42477  13.806  13.008  12.478
46882SOL    HW142478  13.712  13.016  12.496
46882SOL    HW242479  13.823  12.914  12.481
46883SOL     OW42480  10.901   8.962  10.412
46883SOL    HW142481  10.895   9.014  10.492
46883SOL    HW242482  10.820   8.911  10.411
46884SOL     OW42483   0.305  11.595  11.705
46884SOL    HW142484   0.218  11.557  11.687
46884SOL    HW242485   0.317  11.660  11.636
46885SOL     OW42486  11.365   5.071   0.073
46885SOL    HW142487  11.296   5.127   0.037
46885SOL    HW242488  11.392   5.115   0.153
46886SOL     OW42489   3.330   8.764  13.766
46886SOL    HW142490   3.256   8.713  13.734
46886SOL    HW242491   3.371   8.707  13.831
46887SOL     OW42492   9.208  10.215  11.344
46887SOL    HW142493   9.173  10.292  11.299
46887SOL    HW242494   9.211  10.147  11.277
46888SOL     OW42495  10.076   3.494   9.233
46888SOL    HW142496  10.128   3.564   9.193
46888SOL    HW242497  10.096   3.499   9.326
46889SOL     OW42498   1.356  10.370   9.667
46889SOL    HW142499   1.378  10.278   9.656
46889SOL    HW242500   1.298  10.372   9.743
46890SOL     OW42501   8.660  14.319  10.919
46890SOL    HW142502   8.735  14.286  10.870
46890SOL    HW242503   8.636  14.249  10.979
46891SOL     OW42504  14.428   1.440   2.622
46891SOL    HW142505  14.475   1.523   2.619
46891SOL    HW242506  14.388   1.438   2.709
46892SOL     OW42507   3.564   9.175   3.186
46892SOL    HW142508   3.571   9.233   3.262
46892SOL    HW242509   3.655   9.159   3.160
46893SOL     OW42510   7.204   6.764   6.247
46893SOL    HW142511   7.195   6.789   6.338
46893SOL    HW242512   7.175   6.841   6.197
46894SOL     OW42513   2.453  11.918   3.930
46894SOL    HW142514   2.423  11.829   3.946
46894SOL    HW242515   2.488  11.916   3.841
46895SOL     OW42516   4.289   5.013   6.297
46895SOL    HW142517   4.365   5.071   6.292
46895SOL    HW242518   4.318   4.939   6.350
46896SOL     OW42519   8.654   2.548   0.620
46896SOL    HW142520   8.656   2.453   0.633
46896SOL    HW242521   8.672   2.560   0.527
46897SOL     OW42522   4.664   5.716   4.706
46897SOL    HW142523   4.616   5.639   4.675
46897SOL    HW242524   4.654   5.780   4.635
46898SOL     OW42525   2.820   1.651  13.975
46898SOL    HW142526   2.735   1.695  13.982
46898SOL    HW242527   2.884   1.720  13.994
46899SOL     OW42528   5.910  13.084   3.514
46899SOL    HW142529   5.826  13.040   3.520
46899SOL    HW242530   5.935  13.075   3.422
46900SOL     OW42531   5.566  14.853   3.606
46900SOL    HW142532   5.481  14.811   3.597
46900SOL    HW242533   5.572   0.033   3.529
46901SOL     OW42534   8.535  10.428   2.420
46901SOL    HW142535   8.535  10.511   2.373
46901SOL    HW242536   8.461  10.435   2.481
46902SOL     OW42537  10.032  14.205  11.035
46902SOL    HW142538  10.064  14.232  10.949
46902SOL    HW242539  10.026  14.110  11.030
46903SOL     OW42540  14.082   3.929  12.912
46903SOL    HW142541  14.010   3.867  12.923
46903SOL    HW242542  14.069   3.966  12.825
46904SOL     OW42543   3.471  10.699   3.358
46904SOL    HW142544   3.530  10.712   3.285
46904SOL    HW242545   3.445  10.787   3.384
46905SOL     OW42546  12.013   3.249  10.092
46905SOL    HW142547  12.006   3.300  10.012
46905SOL    HW242548  12.020   3.314  10.162
46906SOL     OW42549  13.774   5.091  12.742
46906SOL    HW142550  13.866   5.101  12.714
46906SOL    HW242551  13.777   5.095  12.837
46907SOL     OW42552   1.990  10.291  14.326
46907SOL    HW142553   1.976  10.208  14.372
46907SOL    HW242554   2.083  10.291  14.304
46908SOL     OW42555   7.430   7.183   7.814
46908SOL    HW142556   7.456   7.091   7.811
46908SOL    HW242557   7.355   7.185   7.873
46909SOL     OW42558   0.620  11.184   6.582
46909SOL    HW142559   0.565  11.185   6.661
46909SOL    HW242560   0.622  11.276   6.554
46910SOL     OW42561   1.039  11.415   3.456
46910SOL    HW142562   1.051  11.501   3.497
46910SOL    HW242563   1.048  11.431   3.363
46911SOL     OW42564   7.918   4.710   0.132
46911SOL    HW142565   7.868   4.698   0.051
46911SOL    HW242566   7.943   4.802   0.131
46912SOL     OW42567   8.391   5.432   7.047
46912SOL    HW142568   8.330   5.487   6.998
46912SOL    HW242569   8.429   5.373   6.982
46913SOL     OW42570   1.158   4.045   7.608
46913SOL    HW142571   1.095   4.117   7.604
46913SOL    HW242572   1.159   4.019   7.700
46914SOL     OW42573   3.623  12.940   7.169
46914SOL    HW142574   3.624  12.878   7.095
46914SOL    HW242575   3.629  13.026   7.127
46915SOL     OW42576  12.425   6.086   5.283
46915SOL    HW142577  12.461   6.174   5.299
46915SOL    HW242578  12.403   6.086   5.190
46916SOL     OW42579   2.348   7.769  10.545
46916SOL    HW142580   2.295   7.691  10.529
46916SOL    HW242581   2.420   7.762  10.483
46917SOL     OW42582   5.155  12.032   8.186
46917SOL    HW142583   5.085  12.088   8.221
46917SOL    HW242584   5.133  12.021   8.094
46918SOL     OW42585   4.418  11.106   9.411
46918SOL    HW142586   4.404  11.044   9.482
46918SOL    HW242587   4.365  11.073   9.338
46919SOL     OW42588  12.940   6.277   3.005
46919SOL    HW142589  12.978   6.198   3.041
46919SOL    HW242590  12.926   6.257   2.912
46920SOL     OW42591   6.534   4.023   2.698
46920SOL    HW142592   6.446   4.009   2.663
46920SOL    HW242593   6.552   3.945   2.750
46921SOL     OW42594   5.110   7.582  14.562
46921SOL    HW142595   5.065   7.508  14.523
46921SOL    HW242596   5.184   7.600  14.504
46922SOL     OW42597   1.265  14.271   3.270
46922SOL    HW142598   1.283  14.215   3.195
46922SOL    HW242599   1.237  14.211   3.339
46923SOL     OW42600   8.303  13.950   3.524
46923SOL    HW142601   8.307  13.855   3.513
46923SOL    HW242602   8.225  13.976   3.475
46924SOL     OW42603   0.184   7.997  10.055
46924SOL    HW142604   0.260   7.957  10.013
46924SOL    HW242605   0.163   7.940  10.129
46925SOL     OW42606   4.436   0.654  11.519
46925SOL    HW142607   4.381   0.586  11.481
46925SOL    HW242608   4.507   0.606  11.563
46926SOL     OW42609  10.029   1.370  11.518
46926SOL    HW142610  10.068   1.374  11.431
46926SOL    HW242611  10.081   1.431  11.570
46927SOL     OW42612   3.958  11.944  12.665
46927SOL    HW142613   3.896  11.965  12.735
46927SOL    HW242614   4.042  11.933  12.709
46928SOL     OW42615  13.987   6.920   3.288
46928SOL    HW142616  14.030   6.910   3.203
46928SOL    HW242617  13.938   6.838   3.299
46929SOL     OW42618  13.309  14.698   4.483
46929SOL    HW142619  13.349  14.773   4.438
46929SOL    HW242620  13.222  14.729   4.509
46930SOL     OW42621   8.557  11.063   9.612
46930SOL    HW142622   8.615  11.053   9.536
46930SOL    HW242623   8.574  10.986   9.666
46931SOL     OW42624   2.581   9.157   7.760
46931SOL    HW142625   2.647   9.188   7.697
46931SOL    HW242626   2.595   9.212   7.837
46932SOL     OW42627   4.544  12.227   9.927
46932SOL    HW142628   4.577  12.273  10.004
46932SOL    HW242629   4.587  12.142   9.930
46933SOL     OW42630  10.588   6.606   5.125
46933SOL    HW142631  10.555   6.589   5.037
46933SOL    HW242632  10.678   6.634   5.112
46934SOL     OW42633  13.021   6.612  10.824
46934SOL    HW142634  13.002   6.697  10.865
46934SOL    HW242635  13.078   6.634  10.750
46935SOL     OW42636   2.135   1.113  12.456
46935SOL    HW142637   2.162   1.026  12.427
46935SOL    HW242638   2.167   1.172  12.387
46936SOL     OW42639   9.884  14.209   4.311
46936SOL    HW142640   9.863  14.211   4.405
46936SOL    HW242641   9.976  14.233   4.307
46937SOL     OW42642  11.316   3.585  11.741
46937SOL    HW142643  11.394   3.555  11.695
46937SOL    HW242644  11.340   3.580  11.834
46938SOL     OW42645   1.901  11.848  10.358
46938SOL    HW142646   1.839  11.922  10.354
46938SOL    HW242647   1.954  11.857  10.279
46939SOL     OW42648   2.920  11.536  13.269
46939SOL    HW142649   2.850  11.566  13.210
46939SOL    HW242650   2.965  11.467  13.220
46940SOL     OW42651  12.023   5.253   2.389
46940SOL    HW142652  12.036   5.164   2.355
46940SOL    HW242653  11.962   5.241   2.462
46941SOL     OW42654  14.405   1.904   8.163
46941SOL    HW142655  14.427   1.861   8.246
46941SOL    HW242656  14.453   1.855   8.097
46942SOL     OW42657   2.967   1.133   9.701
46942SOL    HW142658   3.061   1.146   9.712
46942SOL    HW242659   2.949   1.157   9.610
46943SOL     OW42660   1.178   9.854  13.759
46943SOL    HW142661   1.089   9.861  13.725
46943SOL    HW242662   1.198   9.942  13.791
46944SOL     OW42663  12.157   1.957  10.305
46944SOL    HW142664  12.089   1.892  10.290
46944SOL    HW242665  12.112   2.041  10.295
46945SOL     OW42666   1.675   6.089   1.045
46945SOL    HW142667   1.666   6.184   1.058
46945SOL    HW242668   1.744   6.080   0.980
46946SOL     OW42669   9.810  11.215  11.088
46946SOL    HW142670   9.864  11.271  11.033
46946SOL    HW242671   9.871  11.149  11.121
46947SOL     OW42672  12.300   3.847   1.483
46947SOL    HW142673  12.273   3.896   1.561
46947SOL    HW242674  12.379   3.800   1.511
46948SOL     OW42675   0.685   2.059   5.175
46948SOL    HW142676   0.737   2.048   5.255
46948SOL    HW242677   0.680   1.971   5.137
46949SOL     OW42678   1.398   7.653  10.010
46949SOL    HW142679   1.435   7.741  10.014
46949SOL    HW242680   1.338   7.649  10.085
46950SOL     OW42681   4.500   0.582  12.945
46950SOL    HW142682   4.564   0.538  12.890
46950SOL    HW242683   4.550   0.612  13.021
46951SOL     OW42684   4.888  12.705   0.177
46951SOL    HW142685   4.823  12.646   0.216
46951SOL    HW242686   4.852  12.792   0.190
46952SOL     OW42687   2.858  14.459   6.529
46952SOL    HW142688   2.898  14.546   6.519
46952SOL    HW242689   2.776  14.465   6.480
46953SOL     OW42690  12.168  11.847   3.896
46953SOL    HW142691  12.190  11.829   3.805
46953SOL    HW242692  12.246  11.822   3.946
46954SOL     OW42693  14.808  13.478   5.810
46954SOL    HW142694  14.825  13.567   5.779
46954SOL    HW242695  14.798  13.488   5.905
46955SOL     OW42696   0.307   7.358   3.615
46955SOL    HW142697   0.374   7.398   3.672
46955SOL    HW242698   0.224   7.390   3.650
46956SOL     OW42699   3.791   8.412  11.895
46956SOL    HW142700   3.772   8.502  11.868
46956SOL    HW242701   3.720   8.389  11.955
46957SOL     OW42702   3.377  14.747   5.265
46957SOL    HW142703   3.327  14.759   5.346
46957SOL    HW242704   3.466  14.729   5.294
46958SOL     OW42705   6.141  11.969  11.975
46958SOL    HW142706   6.168  11.890  11.929
46958SOL    HW242707   6.125  12.034  11.906
46959SOL     OW42708   0.336   5.431  14.004
46959SOL    HW142709   0.298   5.344  14.014
46959SOL    HW242710   0.428   5.420  14.031
46960SOL     OW42711   0.939   7.211   3.258
46960SOL    HW142712   0.911   7.120   3.247
46960SOL    HW242713   1.030   7.205   3.285
46961SOL     OW42714  12.321  13.255  13.134
46961SOL    HW142715  12.228  13.236  13.130
46961SOL    HW242716  12.359  13.182  13.183
46962SOL     OW42717   7.216  11.789   3.640
46962SOL    HW142718   7.268  11.832   3.571
46962SOL    HW242719   7.252  11.700   3.644
46963SOL     OW42720   1.027  13.714  12.233
46963SOL    HW142721   0.961  13.646  12.244
46963SOL    HW242722   1.051  13.709  12.140
46964SOL     OW42723  10.975  13.109  11.840
46964SOL    HW142724  11.026  13.048  11.787
46964SOL    HW242725  11.035  13.136  11.910
46965SOL     OW42726  11.581   3.752  10.744
46965SOL    HW142727  11.539   3.711  10.819
46965SOL    HW242728  11.613   3.836  10.777
46966SOL     OW42729   4.314   4.975   8.799
46966SOL    HW142730   4.336   4.955   8.890
46966SOL    HW242731   4.220   4.958   8.792
46967SOL     OW42732   2.067  13.969  10.204
46967SOL    HW142733   1.972  13.961  10.200
46967SOL    HW242734   2.088  14.033  10.135
46968SOL     OW42735   1.296   5.413  13.610
46968SOL    HW142736   1.348   5.493  13.603
46968SOL    HW242737   1.293   5.379  13.521
46969SOL     OW42738   2.489   7.556   1.546
46969SOL    HW142739   2.553   7.519   1.486
46969SOL    HW242740   2.492   7.651   1.529
46970SOL     OW42741   3.524  12.982   0.694
46970SOL    HW142742   3.486  12.929   0.763
46970SOL    HW242743   3.569  12.919   0.638
46971SOL     OW42744   3.864   2.184   0.981
46971SOL    HW142745   3.822   2.109   0.939
46971SOL    HW242746   3.913   2.146   1.054
46972SOL     OW42747   2.392  13.936  13.366
46972SOL    HW142748   2.382  14.032  13.370
46972SOL    HW242749   2.379  13.914  13.274
46973SOL     OW42750   6.950   9.122  12.548
46973SOL    HW142751   6.933   9.174  12.627
46973SOL    HW242752   6.906   9.039  12.564
46974SOL     OW42753  10.040   2.536  14.745
46974SOL    HW142754  10.027   2.441  14.747
46974SOL    HW242755  10.135   2.547  14.739
46975SOL     OW42756   6.895   9.814   2.083
46975SOL    HW142757   6.986   9.793   2.103
46975SOL    HW242758   6.897   9.843   1.991
46976SOL     OW42759   5.214   6.557   8.910
46976SOL    HW142760   5.179   6.645   8.901
46976SOL    HW242761   5.300   6.562   8.869
46977SOL     OW42762  12.983  12.928   4.580
46977SOL    HW142763  13.037  12.888   4.513
46977SOL    HW242764  12.894  12.903   4.557
46978SOL     OW42765  11.667   7.661  12.217
46978SOL    HW142766  11.762   7.663  12.209
46978SOL    HW242767  11.645   7.747  12.253
46979SOL     OW42768   7.688  12.979  13.963
46979SOL    HW142769   7.647  13.060  13.994
46979SOL    HW242770   7.688  12.921  14.040
46980SOL     OW42771  10.934   8.083   7.345
46980SOL    HW142772  10.865   8.148   7.329
46980SOL    HW242773  10.987   8.121   7.415
46981SOL     OW42774  12.550   6.793   1.914
46981SOL    HW142775  12.570   6.886   1.912
46981SOL    HW242776  12.574   6.765   2.003
46982SOL     OW42777   3.659  12.887   4.868
46982SOL    HW142778   3.614  12.834   4.933
46982SOL    HW242779   3.624  12.857   4.784
46983SOL     OW42780   0.067  13.316   3.900
46983SOL    HW142781   0.009  13.241   3.912
46983SOL    HW242782   0.148  13.279   3.866
46984SOL     OW42783  13.915  10.976   7.595
46984SOL    HW142784  13.896  11.027   7.674
46984SOL    HW242785  13.906  10.885   7.622
46985SOL     OW42786   8.687  11.957   9.012
46985SOL    HW142787   8.782  11.952   9.016
46985SOL    HW242788   8.668  12.019   8.941
46986SOL     OW42789   3.740  14.070   8.518
46986SOL    HW142790   3.721  14.104   8.431
46986SOL    HW242791   3.763  13.978   8.505
46987SOL     OW42792   3.687  13.607   1.969
46987SOL    HW142793   3.686  13.512   1.981
46987SOL    HW242794   3.596  13.630   1.953
46988SOL     OW42795   0.316   8.229  12.282
46988SOL    HW142796   0.370   8.192  12.351
46988SOL    HW242797   0.378   8.254  12.214
46989SOL     OW42798   8.253  10.407   6.021
46989SOL    HW142799   8.160  10.389   6.011
46989SOL    HW242800   8.296  10.328   5.987
46990SOL     OW42801   3.595   8.738  10.383
46990SOL    HW142802   3.500   8.747  10.390
46990SOL    HW242803   3.613   8.652  10.423
46991SOL     OW42804   1.272   8.151   9.814
46991SOL    HW142805   1.186   8.108   9.815
46991SOL    HW242806   1.252   8.245   9.812
46992SOL     OW42807   2.008   1.646   2.517
46992SOL    HW142808   1.914   1.664   2.516
46992SOL    HW242809   2.017   1.569   2.574
46993SOL     OW42810   5.080   2.889   5.621
46993SOL    HW142811   5.023   2.838   5.564
46993SOL    HW242812   5.020   2.942   5.674
46994SOL     OW42813  11.732   2.641   2.719
46994SOL    HW142814  11.654   2.599   2.683
46994SOL    HW242815  11.772   2.684   2.644
46995SOL     OW42816  12.645  12.565   8.870
46995SOL    HW142817  12.655  12.540   8.778
46995SOL    HW242818  12.557  12.601   8.875
46996SOL     OW42819   6.815   8.799   8.727
46996SOL    HW142820   6.817   8.755   8.643
46996SOL    HW242821   6.722   8.806   8.749
46997SOL     OW42822   2.455   8.699   3.121
46997SOL    HW142823   2.444   8.745   3.204
46997SOL    HW242824   2.524   8.747   3.076
46998SOL     OW42825   0.884   7.497   2.908
46998SOL    HW142826   0.972   7.480   2.941
46998SOL    HW242827   0.842   7.410   2.906
46999SOL     OW42828  12.137   9.976   4.724
46999SOL    HW142829  12.194  10.053   4.726
46999SOL    HW242830  12.162   9.929   4.644
47000SOL     OW42831   2.938   8.677  13.463
47000SOL    HW142832   2.951   8.727  13.383
47000SOL    HW242833   2.985   8.725  13.530
47001SOL     OW42834   8.171   2.053  14.735
47001SOL    HW142835   8.093   2.067  14.790
47001SOL    HW242836   8.221   2.135  14.743
47002SOL     OW42837   6.138  12.266   8.402
47002SOL    HW142838   6.153  12.196   8.466
47002SOL    HW242839   6.159  12.226   8.317
47003SOL     OW42840  13.824   8.062   9.776
47003SOL    HW142841  13.808   8.079   9.868
47003SOL    HW242842  13.867   7.977   9.774
47004SOL     OW42843   1.360  14.282   3.577
47004SOL    HW142844   1.293  14.221   3.548
47004SOL    HW242845   1.312  14.349   3.627
47005SOL     OW42846   2.151  14.182   5.025
47005SOL    HW142847   2.216  14.181   4.955
47005SOL    HW242848   2.161  14.097   5.069
47006SOL     OW42849   9.763   1.397   0.941
47006SOL    HW142850   9.743   1.355   1.025
47006SOL    HW242851   9.851   1.434   0.954
47007SOL     OW42852  13.152   8.582   7.049
47007SOL    HW142853  13.110   8.512   7.000
47007SOL    HW242854  13.197   8.634   6.983
47008SOL     OW42855   7.975   2.198  11.306
47008SOL    HW142856   8.009   2.269  11.252
47008SOL    HW242857   8.044   2.131  11.302
47009SOL     OW42858  11.918   2.288   1.165
47009SOL    HW142859  11.975   2.355   1.202
47009SOL    HW242860  11.978   2.220   1.135
47010SOL     OW42861   8.858  10.268   9.282
47010SOL    HW142862   8.791  10.324   9.321
47010SOL    HW242863   8.843  10.275   9.187
47011SOL     OW42864   4.227   2.410  12.717
47011SOL    HW142865   4.258   2.493  12.752
47011SOL    HW242866   4.259   2.408  12.627
47012SOL     OW42867  13.193  12.130   3.972
47012SOL    HW142868  13.198  12.207   4.028
47012SOL    HW242869  13.154  12.062   4.027
47013SOL     OW42870  13.858  11.565   2.284
47013SOL    HW142871  13.917  11.640   2.297
47013SOL    HW242872  13.815  11.583   2.201
47014SOL     OW42873   9.731   4.173   3.897
47014SOL    HW142874   9.733   4.199   3.805
47014SOL    HW242875   9.744   4.078   3.895
47015SOL     OW42876   8.405  14.843   5.747
47015SOL    HW142877   8.395  14.820   5.654
47015SOL    HW242878   8.425   0.060   5.747
47016SOL     OW42879   7.129   5.924   3.952
47016SOL    HW142880   7.186   5.891   4.022
47016SOL    HW242881   7.086   6.001   3.991
47017SOL     OW42882   8.581   7.524   0.144
47017SOL    HW142883   8.558   7.461   0.212
47017SOL    HW242884   8.506   7.585   0.141
47018SOL     OW42885  10.094  13.693   6.821
47018SOL    HW142886  10.061  13.703   6.732
47018SOL    HW242887  10.189  13.697   6.813
47019SOL     OW42888   4.387   8.546  13.023
47019SOL    HW142889   4.471   8.502  13.038
47019SOL    HW242890   4.396   8.630  13.068
47020SOL     OW42891   0.427   7.327   9.848
47020SOL    HW142892   0.336   7.307   9.827
47020SOL    HW242893   0.472   7.328   9.763
47021SOL     OW42894   2.085   2.246   9.399
47021SOL    HW142895   2.167   2.252   9.448
47021SOL    HW242896   2.079   2.329   9.352
47022SOL     OW42897   9.432   0.078   0.279
47022SOL    HW142898   9.403   0.168   0.262
47022SOL    HW242899   9.526   0.080   0.257
47023SOL     OW42900   0.275   9.998   2.314
47023SOL    HW142901   0.206   9.940   2.347
47023SOL    HW242902   0.255  10.009   2.221
47024SOL     OW42903  14.668  10.096  13.500
47024SOL    HW142904  14.636  10.066  13.416
47024SOL    HW242905  14.713  10.179  13.481
47025SOL     OW42906  14.797   3.293   2.130
47025SOL    HW142907  14.817   3.384   2.153
47025SOL    HW242908  14.840   3.280   2.046
47026SOL     OW42909  14.315  12.837  12.066
47026SOL    HW142910  14.270  12.841  12.151
47026SOL    HW242911  14.346  12.747  12.060
47027SOL     OW42912   2.406   7.801   3.953
47027SOL    HW142913   2.355   7.751   3.890
47027SOL    HW242914   2.350   7.876   3.975
47028SOL     OW42915  11.546   5.047  10.677
47028SOL    HW142916  11.537   5.007  10.591
47028SOL    HW242917  11.462   5.092  10.691
47029SOL     OW42918   8.974  13.985   4.274
47029SOL    HW142919   8.971  13.936   4.356
47029SOL    HW242920   9.012  13.924   4.211
47030SOL     OW42921  14.133   3.365   1.356
47030SOL    HW142922  14.209   3.331   1.404
47030SOL    HW242923  14.069   3.387   1.424
47031SOL     OW42924   5.392   0.729  11.650
47031SOL    HW142925   5.375   0.695  11.562
47031SOL    HW242926   5.479   0.696  11.672
47032SOL     OW42927   9.142   9.175   0.531
47032SOL    HW142928   9.183   9.241   0.587
47032SOL    HW242929   9.100   9.225   0.461
47033SOL     OW42930  13.560   9.353   0.905
47033SOL    HW142931  13.525   9.433   0.945
47033SOL    HW242932  13.634   9.328   0.961
47034SOL     OW42933   8.180   7.103   0.574
47034SOL    HW142934   8.171   7.136   0.663
47034SOL    HW242935   8.091   7.100   0.539
47035SOL     OW42936  13.981  12.053  10.316
47035SOL    HW142937  14.012  11.996  10.246
47035SOL    HW242938  13.892  12.022  10.335
47036SOL     OW42939   5.280  11.776   0.564
47036SOL    HW142940   5.241  11.813   0.643
47036SOL    HW242941   5.367  11.745   0.592
47037SOL     OW42942   6.444   7.406   7.183
47037SOL    HW142943   6.374   7.447   7.233
47037SOL    HW242944   6.522   7.416   7.238
47038SOL     OW42945   4.611  11.286   8.875
47038SOL    HW142946   4.635  11.268   8.966
47038SOL    HW242947   4.626  11.380   8.865
47039SOL     OW42948  13.825  12.563   4.652
47039SOL    HW142949  13.904  12.541   4.603
47039SOL    HW242950  13.845  12.536   4.742
47040SOL     OW42951  10.221   6.657   1.443
47040SOL    HW142952  10.130   6.629   1.456
47040SOL    HW242953  10.269   6.575   1.429
47041SOL     OW42954  11.719   1.362   8.819
47041SOL    HW142955  11.705   1.442   8.768
47041SOL    HW242956  11.769   1.305   8.761
47042SOL     OW42957   0.824  12.353  12.588
47042SOL    HW142958   0.904  12.364  12.639
47042SOL    HW242959   0.764  12.418  12.624
47043SOL     OW42960   4.997  10.747   8.076
47043SOL    HW142961   4.912  10.715   8.106
47043SOL    HW242962   4.978  10.791   7.993
47044SOL     OW42963  14.472   3.462   4.872
47044SOL    HW142964  14.463   3.552   4.840
47044SOL    HW242965  14.531   3.470   4.948
47045SOL     OW42966   9.646  12.270   9.552
47045SOL    HW142967   9.700  12.318   9.489
47045SOL    HW242968   9.630  12.332   9.623
47046SOL     OW42969   0.719   5.037   3.616
47046SOL    HW142970   0.805   5.076   3.631
47046SOL    HW242971   0.722   4.954   3.664
47047SOL     OW42972   7.017  10.861  10.086
47047SOL    HW142973   6.992  10.851   9.994
47047SOL    HW242974   6.962  10.933  10.118
47048SOL     OW42975   2.358   5.479   3.631
47048SOL    HW142976   2.408   5.415   3.682
47048SOL    HW242977   2.340   5.551   3.692
47049SOL     OW42978   2.306   5.185   7.098
47049SOL    HW142979   2.321   5.115   7.034
47049SOL    HW242980   2.357   5.259   7.064
47050SOL     OW42981  10.709   6.842  13.551
47050SOL    HW142982  10.614   6.841  13.552
47050SOL    HW242983  10.735   6.810  13.637
47051SOL     OW42984   8.109  10.212   6.652
47051SOL    HW142985   8.173  10.239   6.718
47051SOL    HW242986   8.088  10.121   6.674
47052SOL     OW42987  12.591  14.758   5.739
47052SOL    HW142988  12.561  14.845   5.713
47052SOL    HW242989  12.618  14.717   5.656
47053SOL     OW42990   3.615  10.649   1.537
47053SOL    HW142991   3.573  10.719   1.487
47053SOL    HW242992   3.674  10.607   1.474
47054SOL     OW42993   0.863   7.010   0.244
47054SOL    HW142994   0.847   7.071   0.172
47054SOL    HW242995   0.843   6.924   0.208
47055SOL     OW42996   4.165   3.105  14.062
47055SOL    HW142997   4.185   3.166  14.133
47055SOL    HW242998   4.147   3.022  14.107
47056SOL     OW42999  12.683   8.647   8.651
47056SOL    HW143000  12.719   8.607   8.572
47056SOL    HW243001  12.662   8.737   8.625
47057SOL     OW43002   1.468   8.562   7.226
47057SOL    HW143003   1.496   8.509   7.152
47057SOL    HW243004   1.466   8.501   7.300
47058SOL     OW43005   4.968   6.624   7.583
47058SOL    HW143006   4.972   6.536   7.623
47058SOL    HW243007   5.010   6.681   7.648
47059SOL     OW43008  11.379   3.132   5.482
47059SOL    HW143009  11.350   3.041   5.480
47059SOL    HW243010  11.471   3.128   5.454
47060SOL     OW43011   5.404  12.987   1.610
47060SOL    HW143012   5.420  12.894   1.624
47060SOL    HW243013   5.470  13.014   1.546
47061SOL     OW43014   7.998  11.158   1.802
47061SOL    HW143015   8.076  11.200   1.837
47061SOL    HW243016   7.949  11.129   1.879
47062SOL     OW43017  11.867   5.651   6.069
47062SOL    HW143018  11.793   5.629   6.126
47062SOL    HW243019  11.936   5.591   6.094
47063SOL     OW43020  10.349  11.581  14.389
47063SOL    HW143021  10.413  11.611  14.454
47063SOL    HW243022  10.282  11.650  14.388
47064SOL     OW43023  13.544  14.827   2.185
47064SOL    HW143024  13.492   0.026   2.216
47064SOL    HW243025  13.635  14.854   2.199
47065SOL     OW43026   2.613   8.965   5.698
47065SOL    HW143027   2.610   8.870   5.683
47065SOL    HW243028   2.594   8.975   5.791
47066SOL     OW43029   8.321  11.976   6.073
47066SOL    HW143030   8.356  12.043   6.014
47066SOL    HW243031   8.336  11.894   6.026
47067SOL     OW43032   0.550   9.934   8.745
47067SOL    HW143033   0.473   9.918   8.689
47067SOL    HW243034   0.612   9.865   8.721
47068SOL     OW43035   6.310  10.459  13.873
47068SOL    HW143036   6.216  10.449  13.861
47068SOL    HW243037   6.326  10.553  13.867
47069SOL     OW43038  11.482  11.759  13.791
47069SOL    HW143039  11.418  11.779  13.859
47069SOL    HW243040  11.448  11.681  13.748
47070SOL     OW43041   9.010   6.240  11.801
47070SOL    HW143042   8.951   6.313  11.818
47070SOL    HW243043   8.956   6.175  11.755
47071SOL     OW43044   1.457   1.353  11.683
47071SOL    HW143045   1.382   1.364  11.742
47071SOL    HW243046   1.417   1.345  11.596
47072SOL     OW43047   8.975  10.572  14.156
47072SOL    HW143048   8.953  10.482  14.134
47072SOL    HW243049   8.967  10.576  14.251
47073SOL     OW43050  10.754   8.874   4.693
47073SOL    HW143051  10.662   8.848   4.697
47073SOL    HW243052  10.791   8.820   4.623
47074SOL     OW43053  12.441   0.493   2.689
47074SOL    HW143054  12.368   0.479   2.748
47074SOL    HW243055  12.416   0.570   2.637
47075SOL     OW43056   4.811  10.541   0.723
47075SOL    HW143057   4.795  10.626   0.764
47075SOL    HW243058   4.763  10.479   0.779
47076SOL     OW43059  14.552   1.325   9.737
47076SOL    HW143060  14.457   1.314   9.744
47076SOL    HW243061  14.564   1.390   9.668
47077SOL     OW43062  13.099   8.778   0.350
47077SOL    HW143063  13.052   8.849   0.396
47077SOL    HW243064  13.092   8.703   0.409
47078SOL     OW43065   4.012   5.381   7.815
47078SOL    HW143066   3.947   5.315   7.790
47078SOL    HW243067   4.009   5.384   7.910
47079SOL     OW43068   5.280   2.689   0.385
47079SOL    HW143069   5.208   2.742   0.420
47079SOL    HW243070   5.305   2.733   0.304
47080SOL     OW43071  11.526   3.214   6.968
47080SOL    HW143072  11.554   3.150   6.903
47080SOL    HW243073  11.463   3.168   7.023
47081SOL     OW43074   5.374  10.243  12.827
47081SOL    HW143075   5.318  10.300  12.879
47081SOL    HW243076   5.421  10.302  12.768
47082SOL     OW43077   7.076   0.798   0.384
47082SOL    HW143078   7.078   0.783   0.289
47082SOL    HW243079   7.115   0.885   0.395
47083SOL     OW43080  13.254  10.195  13.800
47083SOL    HW143081  13.328  10.168  13.744
47083SOL    HW243082  13.250  10.127  13.868
47084SOL     OW43083  13.528   3.336   0.691
47084SOL    HW143084  13.562   3.425   0.695
47084SOL    HW243085  13.435   3.345   0.710
47085SOL     OW43086  10.367   2.391   7.816
47085SOL    HW143087  10.274   2.394   7.792
47085SOL    HW243088  10.368   2.351   7.903
47086SOL     OW43089  14.570   7.814  13.016
47086SOL    HW143090  14.642   7.865  13.055
47086SOL    HW243091  14.492   7.845  13.061
47087SOL     OW43092   6.402   2.528  11.556
47087SOL    HW143093   6.409   2.538  11.461
47087SOL    HW243094   6.379   2.436  11.569
47088SOL     OW43095   2.361   8.813  10.815
47088SOL    HW143096   2.416   8.754  10.866
47088SOL    HW243097   2.423   8.870  10.770
47089SOL     OW43098   3.621   5.845   7.677
47089SOL    HW143099   3.618   5.754   7.649
47089SOL    HW243100   3.611   5.896   7.596
47090SOL     OW43101   8.733   0.221  11.767
47090SOL    HW143102   8.737   0.126  11.754
47090SOL    HW243103   8.824   0.246  11.784
47091SOL     OW43104   0.148   0.390  13.498
47091SOL    HW143105   0.234   0.416  13.532
47091SOL    HW243106   0.086   0.420  13.564
47092SOL     OW43107   0.388  10.964   0.291
47092SOL    HW143108   0.373  11.010   0.208
47092SOL    HW243109   0.433  10.883   0.266
47093SOL     OW43110   0.721  10.040   9.993
47093SOL    HW143111   0.817  10.040   9.996
47093SOL    HW243112   0.700  10.024   9.901
47094SOL     OW43113   3.211   5.531   2.911
47094SOL    HW143114   3.261   5.577   2.843
47094SOL    HW243115   3.277   5.478   2.957
47095SOL     OW43116   6.645   1.382   3.724
47095SOL    HW143117   6.620   1.460   3.676
47095SOL    HW243118   6.568   1.325   3.719
47096SOL     OW43119   8.016   9.340   2.978
47096SOL    HW143120   8.035   9.313   3.067
47096SOL    HW243121   8.015   9.435   2.981
47097SOL     OW43122  13.684   3.534   8.328
47097SOL    HW143123  13.648   3.463   8.274
47097SOL    HW243124  13.646   3.520   8.415
47098SOL     OW43125   0.599   0.753   7.811
47098SOL    HW143126   0.540   0.775   7.883
47098SOL    HW243127   0.553   0.784   7.733
47099SOL     OW43128   7.438   8.039   0.450
47099SOL    HW143129   7.390   7.988   0.514
47099SOL    HW243130   7.386   8.033   0.370
47100SOL     OW43131  10.992   2.391  10.569
47100SOL    HW143132  11.035   2.471  10.541
47100SOL    HW243133  11.035   2.321  10.520
47101SOL     OW43134   7.740   4.935  13.461
47101SOL    HW143135   7.824   4.904  13.494
47101SOL    HW243136   7.748   4.928  13.366
47102SOL     OW43137   1.515   1.765   7.887
47102SOL    HW143138   1.596   1.717   7.902
47102SOL    HW243139   1.543   1.850   7.854
47103SOL     OW43140   7.896   7.080  10.975
47103SOL    HW143141   7.960   7.055  11.042
47103SOL    HW243142   7.871   7.169  10.998
47104SOL     OW43143  13.730   3.095   2.482
47104SOL    HW143144  13.643   3.115   2.447
47104SOL    HW243145  13.743   3.002   2.463
47105SOL     OW43146   2.036   7.788  12.313
47105SOL    HW143147   2.019   7.740  12.394
47105SOL    HW243148   2.067   7.721  12.252
47106SOL     OW43149   4.951  10.203  10.695
47106SOL    HW143150   4.983  10.280  10.744
47106SOL    HW243151   4.905  10.240  10.620
47107SOL     OW43152   7.214   1.951   7.560
47107SOL    HW143153   7.280   2.020   7.571
47107SOL    HW243154   7.254   1.888   7.500
47108SOL     OW43155  11.906  10.760  13.001
47108SOL    HW143156  11.907  10.800  12.914
47108SOL    HW243157  11.843  10.688  12.993
47109SOL     OW43158  14.359   4.170   0.017
47109SOL    HW143159  14.347   4.265   0.012
47109SOL    HW243160  14.301   4.142   0.088
47110SOL     OW43161   8.820   9.689   9.843
47110SOL    HW143162   8.764   9.623   9.803
47110SOL    HW243163   8.793   9.771   9.802
47111SOL     OW43164   3.265  10.663  10.621
47111SOL    HW143165   3.183  10.709  10.605
47111SOL    HW243166   3.247  10.572  10.596
47112SOL     OW43167   4.023   2.881   8.151
47112SOL    HW143168   4.106   2.868   8.195
47112SOL    HW243169   4.046   2.898   8.060
47113SOL     OW43170  11.039  13.236   8.571
47113SOL    HW143171  11.121  13.191   8.594
47113SOL    HW243172  11.067  13.318   8.531
47114SOL     OW43173   6.717   8.320   5.179
47114SOL    HW143174   6.681   8.328   5.268
47114SOL    HW243175   6.807   8.351   5.187
47115SOL     OW43176   6.404   2.502   6.090
47115SOL    HW143177   6.449   2.418   6.095
47115SOL    HW243178   6.337   2.490   6.023
47116SOL     OW43179   1.503   9.544   8.655
47116SOL    HW143180   1.461   9.575   8.574
47116SOL    HW243181   1.517   9.624   8.706
47117SOL     OW43182   0.796   1.570   6.183
47117SOL    HW143183   0.840   1.603   6.104
47117SOL    HW243184   0.789   1.646   6.240
47118SOL     OW43185   0.468   4.760  13.430
47118SOL    HW143186   0.542   4.699  13.421
47118SOL    HW243187   0.503   4.832  13.482
47119SOL     OW43188  12.979   6.675  14.383
47119SOL    HW143189  13.020   6.757  14.355
47119SOL    HW243190  12.947   6.636  14.302
47120SOL     OW43191   1.611  14.122   9.262
47120SOL    HW143192   1.622  14.211   9.295
47120SOL    HW243193   1.516  14.111   9.253
47121SOL     OW43194  10.062   3.447  10.140
47121SOL    HW143195   9.991   3.389  10.166
47121SOL    HW243196  10.128   3.436  10.209
47122SOL     OW43197   5.070  12.621   2.465
47122SOL    HW143198   4.992  12.587   2.421
47122SOL    HW243199   5.036  12.668   2.541
47123SOL     OW43200  14.789   2.364   6.844
47123SOL    HW143201  14.811   2.420   6.919
47123SOL    HW243202  14.859   2.380   6.781
47124SOL     OW43203   4.688   5.792  14.308
47124SOL    HW143204   4.730   5.815  14.225
47124SOL    HW243205   4.655   5.703  14.295
47125SOL     OW43206   8.242  11.671   9.144
47125SOL    HW143207   8.235  11.649   9.237
47125SOL    HW243208   8.321  11.625   9.115
47126SOL     OW43209   1.406  11.399  11.137
47126SOL    HW143210   1.444  11.441  11.215
47126SOL    HW243211   1.319  11.438  11.128
47127SOL     OW43212   8.103  10.519  11.506
47127SOL    HW143213   8.169  10.450  11.515
47127SOL    HW243214   8.022  10.471  11.488
47128SOL     OW43215   4.020   8.493   1.159
47128SOL    HW143216   4.063   8.497   1.245
47128SOL    HW243217   3.927   8.483   1.178
47129SOL     OW43218   8.524  11.422   5.268
47129SOL    HW143219   8.582  11.347   5.280
47129SOL    HW243220   8.566  11.493   5.317
47130SOL     OW43221   3.800   7.895   5.401
47130SOL    HW143222   3.789   7.807   5.367
47130SOL    HW243223   3.831   7.883   5.491
47131SOL     OW43224   6.418   6.667   3.018
47131SOL    HW143225   6.489   6.686   3.079
47131SOL    HW243226   6.454   6.687   2.932
47132SOL     OW43227  11.167   1.611   8.442
47132SOL    HW143228  11.122   1.533   8.475
47132SOL    HW243229  11.136   1.683   8.497
47133SOL     OW43230   8.671   6.777   4.981
47133SOL    HW143231   8.748   6.795   5.034
47133SOL    HW243232   8.705   6.732   4.904
47134SOL     OW43233   6.920   7.876   5.893
47134SOL    HW143234   6.941   7.791   5.933
47134SOL    HW243235   6.846   7.857   5.836
47135SOL     OW43236   9.880   6.398  10.452
47135SOL    HW143237   9.974   6.415  10.443
47135SOL    HW243238   9.845   6.410  10.363
47136SOL     OW43239   9.765  14.658   0.722
47136SOL    HW143240   9.756  14.675   0.628
47136SOL    HW243241   9.860  14.659   0.737
47137SOL     OW43242   6.942  10.414   7.471
47137SOL    HW143243   6.883  10.486   7.496
47137SOL    HW243244   6.938  10.413   7.375
47138SOL     OW43245   3.932  10.568  14.387
47138SOL    HW143246   3.837  10.570  14.391
47138SOL    HW243247   3.955  10.479  14.416
47139SOL     OW43248   2.795   9.058   3.598
47139SOL    HW143249   2.782   9.137   3.546
47139SOL    HW243250   2.843   8.999   3.541
47140SOL     OW43251   9.254   3.114   9.852
47140SOL    HW143252   9.188   3.171   9.893
47140SOL    HW243253   9.221   3.098   9.764
47141SOL     OW43254  11.595  13.784   7.869
47141SOL    HW143255  11.533  13.711   7.879
47141SOL    HW243256  11.586  13.833   7.951
47142SOL     OW43257  10.727   0.352  11.322
47142SOL    HW143258  10.801   0.397  11.282
47142SOL    HW243259  10.656   0.363  11.260
47143SOL     OW43260   8.787  11.987   2.703
47143SOL    HW143261   8.730  12.038   2.645
47143SOL    HW243262   8.740  11.983   2.786
47144SOL     OW43263  10.788   1.294   5.143
47144SOL    HW143264  10.790   1.198   5.149
47144SOL    HW243265  10.695   1.315   5.132
47145SOL     OW43266   1.753  12.577   4.176
47145SOL    HW143267   1.838  12.538   4.157
47145SOL    HW243268   1.772  12.670   4.191
47146SOL     OW43269   2.173   6.232   3.392
47146SOL    HW143270   2.095   6.243   3.445
47146SOL    HW243271   2.240   6.286   3.435
47147SOL     OW43272  12.088   5.674  12.535
47147SOL    HW143273  12.131   5.590  12.553
47147SOL    HW243274  11.996   5.652  12.521
47148SOL     OW43275   1.381   3.575   8.822
47148SOL    HW143276   1.439   3.506   8.792
47148SOL    HW243277   1.330   3.600   8.744
47149SOL     OW43278  13.986   1.746  13.208
47149SOL    HW143279  14.035   1.793  13.275
47149SOL    HW243280  14.053   1.715  13.146
47150SOL     OW43281  10.946   1.197   4.141
47150SOL    HW143282  11.025   1.174   4.093
47150SOL    HW243283  10.971   1.273   4.195
47151SOL     OW43284   3.242   5.000   7.782
47151SOL    HW143285   3.283   5.057   7.846
47151SOL    HW243286   3.216   4.923   7.831
47152SOL     OW43287  11.314   6.005  10.988
47152SOL    HW143288  11.257   6.071  10.949
47152SOL    HW243289  11.400   6.022  10.950
47153SOL     OW43290  12.111   1.196   5.104
47153SOL    HW143291  12.182   1.244   5.061
47153SOL    HW243292  12.114   1.108   5.065
47154SOL     OW43293   4.469   1.554   5.133
47154SOL    HW143294   4.549   1.556   5.080
47154SOL    HW243295   4.486   1.617   5.203
47155SOL     OW43296   9.596  11.873  14.456
47155SOL    HW143297   9.686  11.875  14.488
47155SOL    HW243298   9.561  11.959  14.479
47156SOL     OW43299   0.886  10.062   9.085
47156SOL    HW143300   0.857   9.974   9.063
47156SOL    HW243301   0.928  10.095   9.005
47157SOL     OW43302   5.486  10.789   4.817
47157SOL    HW143303   5.405  10.838   4.805
47157SOL    HW243304   5.475  10.711   4.763
47158SOL     OW43305   4.501   6.387  14.462
47158SOL    HW143306   4.480   6.453  14.528
47158SOL    HW243307   4.597   6.381  14.465
47159SOL     OW43308   6.821   6.268   3.337
47159SOL    HW143309   6.846   6.211   3.265
47159SOL    HW243310   6.734   6.238   3.362
47160SOL     OW43311   3.973  10.297  13.762
47160SOL    HW143312   4.038  10.345  13.710
47160SOL    HW243313   3.956  10.218  13.712
47161SOL     OW43314  14.678   6.830   9.671
47161SOL    HW143315  14.726   6.785   9.603
47161SOL    HW243316  14.662   6.763   9.738
47162SOL     OW43317  12.393   9.793  11.194
47162SOL    HW143318  12.348   9.877  11.187
47162SOL    HW243319  12.478   9.815  11.234
47163SOL     OW43320  13.113   8.405   2.397
47163SOL    HW143321  13.184   8.347   2.425
47163SOL    HW243322  13.146   8.447   2.317
47164SOL     OW43323   8.103   7.398  12.034
47164SOL    HW143324   8.031   7.388  12.096
47164SOL    HW243325   8.140   7.310  12.026
47165SOL     OW43326   7.584   6.929   2.754
47165SOL    HW143327   7.491   6.953   2.757
47165SOL    HW243328   7.623   6.992   2.694
47166SOL     OW43329   3.896   3.559   1.343
47166SOL    HW143330   3.903   3.546   1.249
47166SOL    HW243331   3.979   3.597   1.369
47167SOL     OW43332  11.981  10.372   7.963
47167SOL    HW143333  11.889  10.396   7.963
47167SOL    HW243334  11.999  10.345   7.873
47168SOL     OW43335  13.520   8.078   2.270
47168SOL    HW143336  13.540   7.987   2.252
47168SOL    HW243337  13.564   8.126   2.199
47169SOL     OW43338  11.159  11.577  13.682
47169SOL    HW143339  11.132  11.487  13.701
47169SOL    HW243340  11.085  11.631  13.710
47170SOL     OW43341   5.571   3.625   8.669
47170SOL    HW143342   5.523   3.662   8.743
47170SOL    HW243343   5.530   3.539   8.654
47171SOL     OW43344   9.800   6.201  11.527
47171SOL    HW143345   9.764   6.270  11.582
47171SOL    HW243346   9.730   6.136  11.520
47172SOL     OW43347   1.179   7.081   6.279
47172SOL    HW143348   1.096   7.129   6.278
47172SOL    HW243349   1.235   7.133   6.337
47173SOL     OW43350   6.478   6.591  10.975
47173SOL    HW143351   6.436   6.569  11.058
47173SOL    HW243352   6.480   6.508  10.927
47174SOL     OW43353   7.753   2.372   1.027
47174SOL    HW143354   7.825   2.427   0.998
47174SOL    HW243355   7.680   2.433   1.042
47175SOL     OW43356  12.483   1.742  11.103
47175SOL    HW143357  12.415   1.780  11.047
47175SOL    HW243358  12.465   1.778  11.190
47176SOL     OW43359   9.358   9.171   5.425
47176SOL    HW143360   9.274   9.167   5.471
47176SOL    HW243361   9.379   9.265   5.423
47177SOL     OW43362  14.150  14.535  13.556
47177SOL    HW143363  14.088  14.604  13.530
47177SOL    HW243364  14.229  14.582  13.584
47178SOL     OW43365  12.071  12.431  11.335
47178SOL    HW143366  12.032  12.355  11.377
47178SOL    HW243367  12.095  12.489  11.408
47179SOL     OW43368  12.956   6.303   7.380
47179SOL    HW143369  13.008   6.284   7.458
47179SOL    HW243370  13.008   6.270   7.307
47180SOL     OW43371  14.490   1.377   5.608
47180SOL    HW143372  14.570   1.325   5.616
47180SOL    HW243373  14.465   1.370   5.516
47181SOL     OW43374   8.083   2.097  13.151
47181SOL    HW143375   8.034   2.051  13.082
47181SOL    HW243376   8.154   2.037  13.174
47182SOL     OW43377   7.986  14.799  13.024
47182SOL    HW143378   8.063  14.746  13.047
47182SOL    HW243379   8.022   0.010  13.005
47183SOL     OW43380   7.166   0.104   2.833
47183SOL    HW143381   7.224   0.135   2.902
47183SOL    HW243382   7.129   0.184   2.795
47184SOL     OW43383  10.618   3.858   2.312
47184SOL    HW143384  10.582   3.785   2.261
47184SOL    HW243385  10.549   3.879   2.375
47185SOL     OW43386   0.663   9.352   4.931
47185SOL    HW143387   0.608   9.275   4.918
47185SOL    HW243388   0.720   9.330   5.005
47186SOL     OW43389   4.306   8.793   0.870
47186SOL    HW143390   4.373   8.838   0.819
47186SOL    HW243391   4.265   8.863   0.922
47187SOL     OW43392  12.684   2.816   4.750
47187SOL    HW143393  12.746   2.887   4.734
47187SOL    HW243394  12.611   2.834   4.690
47188SOL     OW43395   0.911   7.067   6.495
47188SOL    HW143396   0.927   7.138   6.433
47188SOL    HW243397   0.818   7.076   6.518
47189SOL     OW43398   9.666  11.651   0.279
47189SOL    HW143399   9.625  11.595   0.345
47189SOL    HW243400   9.600  11.659   0.211
47190SOL     OW43401   2.239   1.192   9.876
47190SOL    HW143402   2.180   1.251   9.829
47190SOL    HW243403   2.193   1.108   9.878
47191SOL     OW43404  13.158   7.533  14.851
47191SOL    HW143405  13.154   7.441  14.876
47191SOL    HW243406  13.081   7.546  14.795
47192SOL     OW43407   8.888  10.260   7.763
47192SOL    HW143408   8.859  10.351   7.772
47192SOL    HW243409   8.818  10.217   7.713
47193SOL     OW43410   4.414  10.595  11.044
47193SOL    HW143411   4.322  10.608  11.023
47193SOL    HW243412   4.418  10.506  11.080
47194SOL     OW43413   3.285  11.584  10.741
47194SOL    HW143414   3.380  11.595  10.731
47194SOL    HW243415   3.257  11.543  10.659
47195SOL     OW43416   3.068   8.508   6.638
47195SOL    HW143417   3.035   8.594   6.612
47195SOL    HW243418   2.992   8.464   6.677
47196SOL     OW43419   0.392   2.676   7.013
47196SOL    HW143420   0.411   2.632   6.930
47196SOL    HW243421   0.366   2.606   7.073
47197SOL     OW43422   2.393  14.219  10.976
47197SOL    HW143423   2.408  14.193  10.885
47197SOL    HW243424   2.386  14.314  10.974
47198SOL     OW43425   8.905  13.645  13.960
47198SOL    HW143426   8.893  13.554  13.986
47198SOL    HW243427   8.908  13.693  14.043
47199SOL     OW43428  10.109   0.909  11.086
47199SOL    HW143429  10.026   0.955  11.096
47199SOL    HW243430  10.095   0.825  11.129
47200SOL     OW43431   5.833   6.127   9.266
47200SOL    HW143432   5.902   6.166   9.321
47200SOL    HW243433   5.797   6.058   9.320
47201SOL     OW43434   3.797   4.014   1.029
47201SOL    HW143435   3.889   4.016   1.002
47201SOL    HW243436   3.800   4.001   1.123
47202SOL     OW43437  13.438   9.166   8.524
47202SOL    HW143438  13.393   9.235   8.475
47202SOL    HW243439  13.485   9.116   8.458
47203SOL     OW43440   5.389  11.347   0.941
47203SOL    HW143441   5.483  11.333   0.946
47203SOL    HW243442   5.369  11.401   1.018
47204SOL     OW43443   3.146   9.319   0.557
47204SOL    HW143444   3.118   9.394   0.505
47204SOL    HW243445   3.211   9.355   0.617
47205SOL     OW43446   1.253  12.589  11.304
47205SOL    HW143447   1.158  12.590  11.320
47205SOL    HW243448   1.291  12.562  11.387
47206SOL     OW43449   2.759  13.015   4.628
47206SOL    HW143450   2.742  12.923   4.606
47206SOL    HW243451   2.853  13.026   4.617
47207SOL     OW43452  12.869   5.316   5.144
47207SOL    HW143453  12.801   5.271   5.095
47207SOL    HW243454  12.822   5.368   5.209
47208SOL     OW43455   2.248   2.410   5.717
47208SOL    HW143456   2.206   2.406   5.803
47208SOL    HW243457   2.270   2.503   5.705
47209SOL     OW43458   2.229  12.318  14.843
47209SOL    HW143459   2.208  12.323   0.060
47209SOL    HW243460   2.181  12.241  14.811
47210SOL     OW43461  11.446  10.282   8.586
47210SOL    HW143462  11.509  10.353   8.601
47210SOL    HW243463  11.437  10.241   8.672
47211SOL     OW43464  12.577   8.442   7.651
47211SOL    HW143465  12.590   8.441   7.556
47211SOL    HW243466  12.498   8.390   7.665
47212SOL     OW43467   5.484   4.201   2.759
47212SOL    HW143468   5.429   4.273   2.790
47212SOL    HW243469   5.464   4.128   2.818
47213SOL     OW43470  13.529   8.009   7.844
47213SOL    HW143471  13.540   7.978   7.934
47213SOL    HW243472  13.579   8.091   7.840
47214SOL     OW43473   9.085  13.258   0.378
47214SOL    HW143474   9.086  13.163   0.368
47214SOL    HW243475   9.123  13.292   0.297
47215SOL     OW43476   9.650  14.077  14.404
47215SOL    HW143477   9.668  14.087  14.497
47215SOL    HW243478   9.556  14.097  14.395
47216SOL     OW43479   0.962   9.250  13.657
47216SOL    HW143480   0.902   9.216  13.724
47216SOL    HW243481   0.916   9.233  13.574
47217SOL     OW43482   0.519   6.525   0.942
47217SOL    HW143483   0.598   6.560   0.983
47217SOL    HW243484   0.451   6.535   1.008
47218SOL     OW43485   6.745  12.445  13.171
47218SOL    HW143486   6.699  12.361  13.164
47218SOL    HW243487   6.723  12.491  13.091
47219SOL     OW43488   7.083   1.796   8.935
47219SOL    HW143489   7.111   1.886   8.955
47219SOL    HW243490   6.997   1.788   8.975
47220SOL     OW43491   2.300  12.479   7.953
47220SOL    HW143492   2.217  12.523   7.969
47220SOL    HW243493   2.276  12.389   7.932
47221SOL     OW43494   8.215   7.052   7.995
47221SOL    HW143495   8.218   7.052   8.091
47221SOL    HW243496   8.127   7.082   7.974
47222SOL     OW43497  14.356   3.815  12.739
47222SOL    HW143498  14.305   3.818  12.820
47222SOL    HW243499  14.372   3.721  12.725
47223SOL     OW43500   6.807   1.929  14.301
47223SOL    HW143501   6.800   1.850  14.355
47223SOL    HW243502   6.777   1.900  14.214
47224SOL     OW43503  13.223   2.171   7.972
47224SOL    HW143504  13.291   2.162   8.039
47224SOL    HW243505  13.267   2.150   7.890
47225SOL     OW43506   8.257  14.526   1.274
47225SOL    HW143507   8.291  14.445   1.313
47225SOL    HW243508   8.234  14.581   1.349
47226SOL     OW43509   4.707   4.747  11.918
47226SOL    HW143510   4.722   4.786  11.831
47226SOL    HW243511   4.752   4.806  11.978
47227SOL     OW43512   3.200   5.550   4.588
47227SOL    HW143513   3.119   5.554   4.538
47227SOL    HW243514   3.220   5.456   4.593
47228SOL     OW43515   0.527   1.516  13.288
47228SOL    HW143516   0.520   1.579  13.216
47228SOL    HW243517   0.602   1.462  13.265
47229SOL     OW43518  12.065  14.763   9.789
47229SOL    HW143519  12.007  14.747   9.863
47229SOL    HW243520  12.011  14.747   9.712
47230SOL     OW43521   3.244   6.672  11.462
47230SOL    HW143522   3.252   6.587  11.419
47230SOL    HW243523   3.239   6.734  11.390
47231SOL     OW43524   2.253   2.767   7.722
47231SOL    HW143525   2.299   2.839   7.764
47231SOL    HW243526   2.288   2.688   7.764
47232SOL     OW43527  14.787   2.090   5.232
47232SOL    HW143528  14.844   2.122   5.161
47232SOL    HW243529  14.732   2.024   5.190
47233SOL     OW43530   3.261   8.671   7.791
47233SOL    HW143531   3.326   8.601   7.782
47233SOL    HW243532   3.234   8.666   7.883
47234SOL     OW43533   0.353  13.262  12.975
47234SOL    HW143534   0.280  13.324  12.982
47234SOL    HW243535   0.371  13.237  13.065
47235SOL     OW43536   8.588   7.809   1.665
47235SOL    HW143537   8.601   7.786   1.573
47235SOL    HW243538   8.665   7.860   1.688
47236SOL     OW43539   0.491   5.130   0.571
47236SOL    HW143540   0.574   5.149   0.615
47236SOL    HW243541   0.481   5.035   0.578
47237SOL     OW43542  14.308   3.208   6.927
47237SOL    HW143543  14.257   3.288   6.920
47237SOL    HW243544  14.384   3.232   6.980
47238SOL     OW43545  12.146   9.116   9.913
47238SOL    HW143546  12.194   9.189   9.872
47238SOL    HW243547  12.057   9.124   9.880
47239SOL     OW43548   6.937  11.077   4.546
47239SOL    HW143549   6.850  11.068   4.507
47239SOL    HW243550   6.949  11.171   4.555
47240SOL     OW43551   0.839  14.480   5.073
47240SOL    HW143552   0.823  14.468   4.980
47240SOL    HW243553   0.756  14.513   5.108
47241SOL     OW43554   4.721  14.377   9.024
47241SOL    HW143555   4.696  14.307   8.963
47241SOL    HW243556   4.668  14.360   9.102
47242SOL     OW43557  13.450  12.928  13.321
47242SOL    HW143558  13.532  12.968  13.352
47242SOL    HW243559  13.383  12.966  13.378
47243SOL     OW43560   4.628   4.489   5.676
47243SOL    HW143561   4.659   4.568   5.632
47243SOL    HW243562   4.539   4.476   5.641
47244SOL     OW43563  14.374   6.676  13.874
47244SOL    HW143564  14.293   6.626  13.863
47244SOL    HW243565  14.351   6.765  13.846
47245SOL     OW43566   2.207  12.004   6.538
47245SOL    HW143567   2.115  11.980   6.549
47245SOL    HW243568   2.218  12.084   6.589
47246SOL     OW43569   6.954   4.005  13.333
47246SOL    HW143570   7.028   3.964  13.289
47246SOL    HW243571   6.913   3.934  13.383
47247SOL     OW43572  13.592  12.653   3.568
47247SOL    HW143573  13.591  12.623   3.659
47247SOL    HW243574  13.518  12.713   3.561
47248SOL     OW43575   8.643  14.275  10.258
47248SOL    HW143576   8.680  14.252  10.173
47248SOL    HW243577   8.636  14.192  10.305
47249SOL     OW43578  14.313  12.513   2.528
47249SOL    HW143579  14.338  12.486   2.616
47249SOL    HW243580  14.349  12.602   2.520
47250SOL     OW43581   3.520   7.398   3.457
47250SOL    HW143582   3.484   7.380   3.370
47250SOL    HW243583   3.593   7.336   3.466
47251SOL     OW43584   9.469  12.475   4.160
47251SOL    HW143585   9.508  12.395   4.125
47251SOL    HW243586   9.544  12.527   4.190
47252SOL     OW43587   8.151   4.684  14.871
47252SOL    HW143588   8.204   4.605   0.007
47252SOL    HW243589   8.074   4.669   0.050
47253SOL     OW43590   3.299   8.968   4.133
47253SOL    HW143591   3.370   8.966   4.070
47253SOL    HW243592   3.239   9.035   4.100
47254SOL     OW43593   6.943   4.234  14.686
47254SOL    HW143594   6.853   4.264  14.673
47254SOL    HW243595   6.984   4.303  14.739
47255SOL     OW43596  12.416   7.961  13.230
47255SOL    HW143597  12.454   8.028  13.174
47255SOL    HW243598  12.372   8.009  13.300
47256SOL     OW43599  11.478   4.526   3.467
47256SOL    HW143600  11.466   4.613   3.505
47256SOL    HW243601  11.407   4.474   3.503
47257SOL     OW43602   8.637   4.225  10.805
47257SOL    HW143603   8.556   4.215  10.854
47257SOL    HW243604   8.622   4.302  10.750
47258SOL     OW43605  12.813   4.527  13.365
47258SOL    HW143606  12.752   4.600  13.352
47258SOL    HW243607  12.852   4.512  13.279
47259SOL     OW43608   8.085  11.186  11.536
47259SOL    HW143609   8.105  11.103  11.580
47259SOL    HW243610   8.009  11.220  11.583
47260SOL     OW43611  14.688   8.482   1.844
47260SOL    HW143612  14.780   8.509   1.835
47260SOL    HW243613  14.669   8.492   1.937
47261SOL     OW43614  14.845  14.561  11.748
47261SOL    HW143615  14.836  14.548  11.842
47261SOL    HW243616   0.007  14.479  11.716
47262SOL     OW43617   1.073  12.278   0.674
47262SOL    HW143618   1.060  12.232   0.591
47262SOL    HW243619   1.063  12.209   0.741
47263SOL     OW43620  13.238   4.801   3.477
47263SOL    HW143621  13.209   4.748   3.551
47263SOL    HW243622  13.333   4.787   3.474
47264SOL     OW43623  14.310   2.790  11.913
47264SOL    HW143624  14.306   2.805  11.819
47264SOL    HW243625  14.403   2.801  11.935
47265SOL     OW43626   8.699   8.037   4.080
47265SOL    HW143627   8.771   8.058   4.021
47265SOL    HW243628   8.731   8.064   4.166
47266SOL     OW43629   1.606  10.755   0.817
47266SOL    HW143630   1.652  10.836   0.840
47266SOL    HW243631   1.526  10.757   0.869
47267SOL     OW43632   0.506   1.493  14.079
47267SOL    HW143633   0.423   1.484  14.033
47267SOL    HW243634   0.559   1.420  14.047
47268SOL     OW43635   1.921   2.377   5.384
47268SOL    HW143636   1.991   2.376   5.319
47268SOL    HW243637   1.958   2.332   5.460
47269SOL     OW43638  13.735  14.303  10.462
47269SOL    HW143639  13.713  14.370  10.397
47269SOL    HW243640  13.760  14.352  10.540
47270SOL     OW43641   5.303  11.818   5.695
47270SOL    HW143642   5.253  11.738   5.709
47270SOL    HW243643   5.392  11.788   5.676
47271SOL     OW43644  14.659   4.872  14.050
47271SOL    HW143645  14.687   4.787  14.085
47271SOL    HW243646  14.672   4.864  13.955
47272SOL     OW43647  10.451  12.741   8.656
47272SOL    HW143648  10.543  12.748   8.632
47272SOL    HW243649  10.425  12.654   8.626
47273SOL     OW43650   1.965   4.529   0.254
47273SOL    HW143651   2.010   4.612   0.274
47273SOL    HW243652   1.959   4.484   0.339
47274SOL     OW43653   9.589   5.992   1.110
47274SOL    HW143654   9.670   5.949   1.084
47274SOL    HW243655   9.534   5.991   1.031
47275SOL     OW43656  12.461   8.370   8.927
47275SOL    HW143657  12.432   8.320   8.851
47275SOL    HW243658  12.408   8.337   8.999
47276SOL     OW43659  11.514   0.015   7.373
47276SOL    HW143660  11.520  14.852   7.461
47276SOL    HW243661  11.479  14.821   7.318
47277SOL     OW43662   9.752   1.071  14.651
47277SOL    HW143663   9.684   1.138  14.656
47277SOL    HW243664   9.831   1.115  14.682
47278SOL     OW43665   8.953   4.390   6.017
47278SOL    HW143666   9.033   4.400   6.069
47278SOL    HW243667   8.895   4.339   6.073
47279SOL     OW43668  12.450   9.976   3.723
47279SOL    HW143669  12.497   9.894   3.709
47279SOL    HW243670  12.369   9.950   3.766
47280SOL     OW43671  10.591  14.848   6.466
47280SOL    HW143672  10.652   0.017   6.524
47280SOL    HW243673  10.578  14.763   6.506
47281SOL     OW43674   2.961   7.394  12.748
47281SOL    HW143675   2.994   7.305  12.754
47281SOL    HW243676   3.020   7.438  12.687
47282SOL     OW43677   0.312   0.457  12.034
47282SOL    HW143678   0.239   0.498  12.080
47282SOL    HW243679   0.379   0.525  12.028
47283SOL     OW43680   9.231   0.422  10.133
47283SOL    HW143681   9.187   0.338  10.122
47283SOL    HW243682   9.238   0.457  10.044
47284SOL     OW43683   8.841  10.799   4.384
47284SOL    HW143684   8.813  10.709   4.369
47284SOL    HW243685   8.775  10.852   4.340
47285SOL     OW43686   9.040   0.797   7.506
47285SOL    HW143687   9.027   0.779   7.413
47285SOL    HW243688   8.979   0.738   7.550
47286SOL     OW43689   6.358  10.987   8.470
47286SOL    HW143690   6.281  10.930   8.463
47286SOL    HW243691   6.329  11.060   8.525
47287SOL     OW43692   9.215   1.809   5.047
47287SOL    HW143693   9.282   1.764   4.995
47287SOL    HW243694   9.170   1.865   4.984
47288SOL     OW43695   7.385   2.920   0.804
47288SOL    HW143696   7.478   2.939   0.814
47288SOL    HW243697   7.348   2.998   0.763
47289SOL     OW43698   5.367  10.556  11.393
47289SOL    HW143699   5.287  10.608  11.395
47289SOL    HW243700   5.347  10.483  11.333
47290SOL     OW43701   2.096  13.935   1.241
47290SOL    HW143702   2.010  13.941   1.199
47290SOL    HW243703   2.106  14.018   1.289
47291SOL     OW43704   9.047  13.815   6.230
47291SOL    HW143705   9.002  13.805   6.146
47291SOL    HW243706   9.134  13.779   6.215
47292SOL     OW43707  12.543   4.768   2.320
47292SOL    HW143708  12.506   4.689   2.358
47292SOL    HW243709  12.621   4.738   2.274
47293SOL     OW43710   7.979   9.928   0.288
47293SOL    HW143711   8.013   9.930   0.199
47293SOL    HW243712   8.034   9.863   0.333
47294SOL     OW43713   9.927   8.160   6.690
47294SOL    HW143714   9.910   8.113   6.772
47294SOL    HW243715   9.992   8.226   6.714
47295SOL     OW43716   7.724  13.896   7.700
47295SOL    HW143717   7.756  13.810   7.676
47295SOL    HW243718   7.793  13.957   7.672
47296SOL     OW43719  12.453  12.833   7.476
47296SOL    HW143720  12.400  12.761   7.511
47296SOL    HW243721  12.522  12.790   7.425
47297SOL     OW43722  10.453  12.824   7.619
47297SOL    HW143723  10.397  12.761   7.665
47297SOL    HW243724  10.541  12.806   7.652
47298SOL     OW43725   3.410   5.799   5.152
47298SOL    HW143726   3.474   5.755   5.098
47298SOL    HW243727   3.386   5.877   5.102
47299SOL     OW43728  12.541   2.850   0.070
47299SOL    HW143729  12.504   2.772   0.113
47299SOL    HW243730  12.464   2.904   0.050
47300SOL     OW43731   3.887  14.123   4.898
47300SOL    HW143732   3.866  14.078   4.979
47300SOL    HW243733   3.917  14.054   4.839
47301SOL     OW43734   8.742  12.290   0.212
47301SOL    HW143735   8.763  12.378   0.181
47301SOL    HW243736   8.710  12.244   0.135
47302SOL     OW43737   2.548   0.859   5.945
47302SOL    HW143738   2.573   0.938   5.898
47302SOL    HW243739   2.520   0.890   6.032
47303SOL     OW43740  14.450   1.226  12.652
47303SOL    HW143741  14.529   1.171  12.648
47303SOL    HW243742  14.434   1.251  12.561
47304SOL     OW43743   1.467   6.182   2.833
47304SOL    HW143744   1.438   6.209   2.746
47304SOL    HW243745   1.511   6.259   2.869
47305SOL     OW43746   9.721  11.186  12.161
47305SOL    HW143747   9.653  11.121  12.143
47305SOL    HW243748   9.734  11.182  12.256
47306SOL     OW43749   8.648   4.725   9.959
47306SOL    HW143750   8.586   4.731  10.032
47306SOL    HW243751   8.641   4.635   9.928
47307SOL     OW43752  11.679   8.689   5.585
47307SOL    HW143753  11.753   8.746   5.604
47307SOL    HW243754  11.658   8.706   5.493
47308SOL     OW43755   8.322   0.969   7.913
47308SOL    HW143756   8.414   0.979   7.938
47308SOL    HW243757   8.316   0.878   7.883
47309SOL     OW43758   2.119   8.604   5.094
47309SOL    HW143759   2.057   8.675   5.108
47309SOL    HW243760   2.183   8.613   5.165
47310SOL     OW43761   8.896   5.846   6.412
47310SOL    HW143762   8.841   5.768   6.408
47310SOL    HW243763   8.959   5.834   6.341
47311SOL     OW43764  13.723   7.476   6.891
47311SOL    HW143765  13.640   7.430   6.907
47311SOL    HW243766  13.732   7.477   6.796
47312SOL     OW43767   6.329   5.002  10.595
47312SOL    HW143768   6.329   5.097  10.584
47312SOL    HW243769   6.420   4.977  10.580
47313SOL     OW43770  12.999   3.073   5.773
47313SOL    HW143771  13.082   3.106   5.806
47313SOL    HW243772  12.998   3.096   5.680
47314SOL     OW43773   8.409   5.164   0.142
47314SOL    HW143774   8.418   5.088   0.084
47314SOL    HW243775   8.364   5.129   0.220
47315SOL     OW43776   8.857   5.955   8.451
47315SOL    HW143777   8.792   5.893   8.485
47315SOL    HW243778   8.890   5.999   8.529
47316SOL     OW43779   9.415  10.531   1.385
47316SOL    HW143780   9.396  10.611   1.336
47316SOL    HW243781   9.329  10.492   1.399
47317SOL     OW43782  12.094   5.599   8.533
47317SOL    HW143783  12.081   5.539   8.606
47317SOL    HW243784  12.017   5.656   8.534
47318SOL     OW43785  14.512  12.504   6.848
47318SOL    HW143786  14.435  12.550   6.883
47318SOL    HW243787  14.569  12.491   6.923
47319SOL     OW43788   3.876   4.218  11.466
47319SOL    HW143789   3.821   4.286  11.505
47319SOL    HW243790   3.934   4.190  11.537
47320SOL     OW43791   6.405   0.120   8.814
47320SOL    HW143792   6.443   0.048   8.762
47320SOL    HW243793   6.481   0.170   8.844
47321SOL     OW43794   9.236   7.458   8.443
47321SOL    HW143795   9.313   7.420   8.401
47321SOL    HW243796   9.271   7.531   8.495
47322SOL     OW43797   8.624  10.276   5.612
47322SOL    HW143798   8.631  10.290   5.517
47322SOL    HW243799   8.714  10.261   5.641
47323SOL     OW43800   3.337  12.374   5.400
47323SOL    HW143801   3.426  12.408   5.399
47323SOL    HW243802   3.321  12.351   5.491
47324SOL     OW43803   8.048   4.585   7.817
47324SOL    HW143804   8.108   4.659   7.823
47324SOL    HW243805   8.101   4.509   7.840
47325SOL     OW43806  14.483   5.773   0.648
47325SOL    HW143807  14.508   5.816   0.567
47325SOL    HW243808  14.535   5.817   0.715
47326SOL     OW43809   6.961  11.750   0.258
47326SOL    HW143810   6.917  11.674   0.220
47326SOL    HW243811   6.897  11.821   0.251
47327SOL     OW43812  12.624  11.846   6.710
47327SOL    HW143813  12.603  11.856   6.803
47327SOL    HW243814  12.553  11.891   6.664
47328SOL     OW43815   4.834   8.822   5.929
47328SOL    HW143816   4.838   8.840   5.835
47328SOL    HW243817   4.753   8.864   5.958
47329SOL     OW43818   3.714   3.434   6.828
47329SOL    HW143819   3.774   3.496   6.871
47329SOL    HW243820   3.698   3.473   6.742
47330SOL     OW43821   7.264   3.923   5.566
47330SOL    HW143822   7.332   3.982   5.600
47330SOL    HW243823   7.196   3.923   5.633
47331SOL     OW43824   8.936   0.296   9.143
47331SOL    HW143825   8.849   0.305   9.184
47331SOL    HW243826   8.983   0.236   9.201
47332SOL     OW43827  14.685   1.107   6.411
47332SOL    HW143828  14.617   1.173   6.402
47332SOL    HW243829  14.759   1.154   6.451
47333SOL     OW43830  11.135   2.341   6.933
47333SOL    HW143831  11.167   2.315   6.847
47333SOL    HW243832  11.214   2.349   6.987
47334SOL     OW43833   5.035  14.478  13.433
47334SOL    HW143834   5.040  14.392  13.473
47334SOL    HW243835   5.073  14.467  13.346
47335SOL     OW43836   5.476   6.755   1.775
47335SOL    HW143837   5.458   6.799   1.691
47335SOL    HW243838   5.502   6.826   1.834
47336SOL     OW43839   7.708   5.057   9.272
47336SOL    HW143840   7.666   5.024   9.351
47336SOL    HW243841   7.767   4.986   9.245
47337SOL     OW43842   3.181   6.005  11.597
47337SOL    HW143843   3.252   5.996  11.661
47337SOL    HW243844   3.226   6.011  11.513
47338SOL     OW43845   8.049   2.672  14.045
47338SOL    HW143846   7.977   2.706  13.993
47338SOL    HW243847   8.050   2.578  14.028
47339SOL     OW43848  14.172   2.873  12.528
47339SOL    HW143849  14.179   2.778  12.539
47339SOL    HW243850  14.262   2.903  12.521
47340SOL     OW43851  13.555   4.830   1.022
47340SOL    HW143852  13.496   4.884   1.074
47340SOL    HW243853  13.588   4.764   1.084
47341SOL     OW43854   5.495   6.596  11.719
47341SOL    HW143855   5.549   6.618  11.796
47341SOL    HW243856   5.555   6.603  11.645
47342SOL     OW43857   8.682  10.936   4.234
47342SOL    HW143858   8.662  10.894   4.150
47342SOL    HW243859   8.665  11.029   4.219
47343SOL     OW43860   8.775   1.827  13.369
47343SOL    HW143861   8.684   1.820  13.343
47343SOL    HW243862   8.776   1.900  13.432
47344SOL     OW43863   5.419  14.846  12.028
47344SOL    HW143864   5.468  14.826  11.947
47344SOL    HW243865   5.444   0.061  12.048
47345SOL     OW43866   3.345   4.747  12.687
47345SOL    HW143867   3.388   4.822  12.729
47345SOL    HW243868   3.416   4.700  12.643
47346SOL     OW43869  12.129  10.953  14.037
47346SOL    HW143870  12.127  11.002  14.119
47346SOL    HW243871  12.037  10.936  14.017
47347SOL     OW43872   5.419   9.248  12.094
47347SOL    HW143873   5.378   9.273  12.177
47347SOL    HW243874   5.503   9.294  12.094
47348SOL     OW43875   1.533   7.466   2.082
47348SOL    HW143876   1.522   7.546   2.134
47348SOL    HW243877   1.446   7.447   2.047
47349SOL     OW43878   1.276   6.259   7.339
47349SOL    HW143879   1.299   6.230   7.427
47349SOL    HW243880   1.259   6.353   7.349
47350SOL     OW43881  10.150   5.486   7.461
47350SOL    HW143882  10.101   5.416   7.505
47350SOL    HW243883  10.099   5.565   7.479
47351SOL     OW43884  10.996  12.245   5.134
47351SOL    HW143885  11.014  12.155   5.162
47351SOL    HW243886  11.061  12.262   5.066
47352SOL     OW43887  12.615   8.375   2.595
47352SOL    HW143888  12.613   8.301   2.535
47352SOL    HW243889  12.708   8.384   2.619
47353SOL     OW43890  13.453  13.487   2.757
47353SOL    HW143891  13.504  13.554   2.802
47353SOL    HW243892  13.401  13.535   2.693
47354SOL     OW43893  14.033   7.902   6.946
47354SOL    HW143894  14.040   7.968   6.877
47354SOL    HW243895  14.115   7.853   6.939
47355SOL     OW43896   2.951   3.053  14.184
47355SOL    HW143897   2.877   3.104  14.149
47355SOL    HW243898   3.020   3.063  14.118
47356SOL     OW43899  14.194   8.360   9.021
47356SOL    HW143900  14.143   8.433   9.054
47356SOL    HW243901  14.194   8.295   9.092
47357SOL     OW43902   6.052   0.608  10.171
47357SOL    HW143903   6.130   0.599  10.226
47357SOL    HW243904   6.062   0.693  10.129
47358SOL     OW43905   5.519   1.199   7.705
47358SOL    HW143906   5.572   1.125   7.676
47358SOL    HW243907   5.475   1.230   7.625
47359SOL     OW43908   0.186  12.031   5.984
47359SOL    HW143909   0.222  11.983   5.909
47359SOL    HW243910   0.115  12.083   5.947
47360SOL     OW43911   7.024  11.327  11.729
47360SOL    HW143912   7.009  11.240  11.767
47360SOL    HW243913   7.052  11.381  11.803
47361SOL     OW43914  10.712   9.624   0.146
47361SOL    HW143915  10.692   9.700   0.091
47361SOL    HW243916  10.769   9.659   0.215
47362SOL     OW43917   2.309   5.237   1.405
47362SOL    HW143918   2.391   5.280   1.382
47362SOL    HW243919   2.328   5.143   1.398
47363SOL     OW43920   4.633  10.248  10.803
47363SOL    HW143921   4.560  10.256  10.865
47363SOL    HW243922   4.603  10.295  10.725
47364SOL     OW43923   2.074   9.890   8.001
47364SOL    HW143924   2.104   9.841   8.078
47364SOL    HW243925   2.007   9.834   7.962
47365SOL     OW43926   5.324   6.992   0.806
47365SOL    HW143927   5.258   6.938   0.850
47365SOL    HW243928   5.350   6.941   0.729
47366SOL     OW43929   6.001   5.450   0.554
47366SOL    HW143930   6.078   5.396   0.567
47366SOL    HW243931   5.935   5.391   0.518
47367SOL     OW43932   6.603   3.720  14.741
47367SOL    HW143933   6.644   3.789  14.689
47367SOL    HW243934   6.511   3.747  14.748
47368SOL     OW43935  12.270  11.003   7.114
47368SOL    HW143936  12.260  10.932   7.176
47368SOL    HW243937  12.362  11.000   7.088
47369SOL     OW43938   7.541   9.676   8.128
47369SOL    HW143939   7.471   9.656   8.191
47369SOL    HW243940   7.536   9.606   8.063
47370SOL     OW43941  12.091   6.429  10.600
47370SOL    HW143942  12.030   6.447  10.672
47370SOL    HW243943  12.099   6.334  10.599
47371SOL     OW43944   6.162   5.027  12.098
47371SOL    HW143945   6.132   4.991  12.014
47371SOL    HW243946   6.103   5.101  12.114
47372SOL     OW43947   2.897   2.953   4.849
47372SOL    HW143948   2.810   2.987   4.830
47372SOL    HW243949   2.881   2.867   4.888
47373SOL     OW43950  11.663   8.363  10.704
47373SOL    HW143951  11.673   8.458  10.713
47373SOL    HW243952  11.751   8.328  10.718
47374SOL     OW43953   8.392  14.288  12.585
47374SOL    HW143954   8.428  14.356  12.529
47374SOL    HW243955   8.406  14.320  12.674
47375SOL     OW43956   8.057  14.335   1.509
47375SOL    HW143957   8.077  14.335   1.416
47375SOL    HW243958   8.140  14.356   1.552
47376SOL     OW43959   5.800   8.541  10.115
47376SOL    HW143960   5.833   8.455  10.139
47376SOL    HW243961   5.729   8.559  10.177
47377SOL     OW43962  11.149  10.276   1.690
47377SOL    HW143963  11.110  10.240   1.770
47377SOL    HW243964  11.181  10.363   1.715
47378SOL     OW43965   8.717   5.053   5.963
47378SOL    HW143966   8.795   5.067   5.909
47378SOL    HW243967   8.644   5.052   5.900
47379SOL     OW43968   5.420   5.452  12.449
47379SOL    HW143969   5.393   5.489  12.365
47379SOL    HW243970   5.368   5.499  12.514
47380SOL     OW43971  13.103   9.183   8.213
47380SOL    HW143972  13.090   9.204   8.120
47380SOL    HW243973  13.045   9.109   8.229
47381SOL     OW43974   7.719   9.727  11.813
47381SOL    HW143975   7.639   9.778  11.805
47381SOL    HW243976   7.783   9.788  11.851
47382SOL     OW43977   6.152   9.082  11.044
47382SOL    HW143978   6.082   9.025  11.076
47382SOL    HW243979   6.137   9.166  11.088
47383SOL     OW43980   5.656   1.351   0.932
47383SOL    HW143981   5.694   1.300   0.860
47383SOL    HW243982   5.615   1.426   0.889
47384SOL     OW43983   4.473  12.516   5.230
47384SOL    HW143984   4.453  12.598   5.275
47384SOL    HW243985   4.463  12.448   5.297
47385SOL     OW43986   4.178  14.051   7.739
47385SOL    HW143987   4.233  13.974   7.727
47385SOL    HW243988   4.143  14.069   7.651
47386SOL     OW43989   9.850   5.139   3.150
47386SOL    HW143990   9.858   5.229   3.182
47386SOL    HW243991   9.797   5.095   3.216
47387SOL     OW43992   0.649   0.405   2.218
47387SOL    HW143993   0.610   0.337   2.274
47387SOL    HW243994   0.574   0.443   2.172
47388SOL     OW43995  12.748  12.323  13.314
47388SOL    HW143996  12.778  12.274  13.390
47388SOL    HW243997  12.825  12.372  13.285
47389SOL     OW43998   4.099   2.915   5.994
47389SOL    HW143999   4.174   2.894   6.049
47389SOL    HW244000   4.036   2.956   6.053
47390SOL     OW44001   0.527  13.108  10.634
47390SOL    HW144002   0.618  13.088  10.658
47390SOL    HW244003   0.476  13.037  10.673
47391SOL     OW44004   5.451  13.577   1.570
47391SOL    HW144005   5.398  13.615   1.500
47391SOL    HW244006   5.517  13.644   1.588
47392SOL     OW44007   5.906   4.532   8.748
47392SOL    HW144008   5.869   4.444   8.743
47392SOL    HW244009   5.891   4.559   8.839
47393SOL     OW44010   7.946   7.463   4.047
47393SOL    HW144011   7.981   7.459   4.136
47393SOL    HW244012   7.851   7.456   4.058
47394SOL     OW44013  11.992   1.937  13.670
47394SOL    HW144014  11.986   1.848  13.705
47394SOL    HW244015  11.955   1.993  13.739
47395SOL     OW44016  13.608   2.682   4.417
47395SOL    HW144017  13.673   2.691   4.487
47395SOL    HW244018  13.526   2.664   4.464
47396SOL     OW44019   4.072   5.892   9.391
47396SOL    HW144020   4.158   5.881   9.431
47396SOL    HW244021   4.026   5.953   9.448
47397SOL     OW44022   6.412   9.793   9.860
47397SOL    HW144023   6.467   9.730   9.812
47397SOL    HW244024   6.473   9.863   9.884
47398SOL     OW44025  13.425   6.294   7.250
47398SOL    HW144026  13.474   6.212   7.247
47398SOL    HW244027  13.442   6.336   7.166
47399SOL     OW44028   3.037   1.014   6.328
47399SOL    HW144029   2.953   1.019   6.283
47399SOL    HW244030   3.014   1.006   6.420
47400SOL     OW44031   2.990  11.724  11.706
47400SOL    HW144032   2.950  11.749  11.623
47400SOL    HW244033   2.930  11.658  11.742
47401SOL     OW44034   1.566   4.217   5.192
47401SOL    HW144035   1.519   4.168   5.260
47401SOL    HW244036   1.498   4.266   5.146
47402SOL     OW44037   9.653  14.579   8.524
47402SOL    HW144038   9.612  14.497   8.494
47402SOL    HW244039   9.746  14.558   8.530
47403SOL     OW44040   0.204  14.329   2.251
47403SOL    HW144041   0.175  14.238   2.264
47403SOL    HW244042   0.296  14.321   2.227
47404SOL     OW44043  11.147   1.640  11.571
47404SOL    HW144044  11.158   1.734  11.565
47404SOL    HW244045  11.219   1.611  11.628
47405SOL     OW44046   8.095   9.810  12.603
47405SOL    HW144047   8.081   9.890  12.654
47405SOL    HW244048   8.069   9.834  12.514
47406SOL     OW44049   7.023  10.618  11.346
47406SOL    HW144050   7.023  10.551  11.277
47406SOL    HW244051   7.014  10.568  11.427
47407SOL     OW44052   4.222   8.557  14.378
47407SOL    HW144053   4.162   8.560  14.304
47407SOL    HW244054   4.239   8.464  14.392
47408SOL     OW44055   3.453   6.226   2.770
47408SOL    HW144056   3.530   6.253   2.819
47408SOL    HW244057   3.402   6.307   2.760
47409SOL     OW44058   2.379   3.856   9.223
47409SOL    HW144059   2.350   3.774   9.262
47409SOL    HW244060   2.444   3.830   9.157
47410SOL     OW44061  11.069   6.558  14.163
47410SOL    HW144062  11.090   6.466  14.144
47410SOL    HW244063  10.974   6.558  14.179
47411SOL     OW44064   8.296   2.945  12.563
47411SOL    HW144065   8.291   2.863  12.513
47411SOL    HW244066   8.205   2.967  12.583
47412SOL     OW44067  13.388   3.788   8.321
47412SOL    HW144068  13.423   3.780   8.233
47412SOL    HW244069  13.371   3.698   8.349
47413SOL     OW44070  13.599   5.640   5.174
47413SOL    HW144071  13.626   5.631   5.265
47413SOL    HW244072  13.542   5.565   5.158
47414SOL     OW44073   9.245   6.747   2.705
47414SOL    HW144074   9.150   6.756   2.709
47414SOL    HW244075   9.268   6.779   2.617
47415SOL     OW44076  12.800   8.200   2.132
47415SOL    HW144077  12.800   8.259   2.207
47415SOL    HW244078  12.844   8.251   2.063
47416SOL     OW44079   3.408  10.992   8.505
47416SOL    HW144080   3.450  11.072   8.474
47416SOL    HW244081   3.384  10.946   8.424
47417SOL     OW44082   2.964   9.897   9.494
47417SOL    HW144083   2.891   9.838   9.516
47417SOL    HW244084   3.012   9.906   9.576
47418SOL     OW44085   7.107  10.019  11.621
47418SOL    HW144086   7.031  10.056  11.575
47418SOL    HW244087   7.098   9.924  11.611
47419SOL     OW44088   9.976   4.198  14.678
47419SOL    HW144089   9.987   4.124  14.618
47419SOL    HW244090   9.916   4.257  14.632
47420SOL     OW44091   4.062   6.305  11.535
47420SOL    HW144092   4.075   6.400  11.541
47420SOL    HW244093   3.993   6.286  11.599
47421SOL     OW44094  10.701  13.772   7.799
47421SOL    HW144095  10.739  13.758   7.712
47421SOL    HW244096  10.606  13.773   7.783
47422SOL     OW44097   3.275   0.165  12.757
47422SOL    HW144098   3.268   0.117  12.674
47422SOL    HW244099   3.344   0.230  12.740
47423SOL     OW44100   7.891   0.065   3.059
47423SOL    HW144101   7.984   0.069   3.040
47423SOL    HW244102   7.874  14.849   3.079
47424SOL     OW44103  12.362  12.268  10.765
47424SOL    HW144104  12.427  12.262  10.695
47424SOL    HW244105  12.288  12.314  10.726
47425SOL     OW44106   7.087   7.390   0.420
47425SOL    HW144107   7.035   7.311   0.434
47425SOL    HW244108   7.032   7.461   0.451
47426SOL     OW44109   5.365   5.570  13.246
47426SOL    HW144110   5.371   5.520  13.165
47426SOL    HW244111   5.352   5.660  13.218
47427SOL     OW44112   1.543  13.294  11.811
47427SOL    HW144113   1.504  13.332  11.890
47427SOL    HW244114   1.632  13.329  11.809
47428SOL     OW44115  13.769  11.127   3.662
47428SOL    HW144116  13.733  11.215   3.673
47428SOL    HW244117  13.862  11.136   3.684
47429SOL     OW44118   2.559  13.383   7.750
47429SOL    HW144119   2.558  13.448   7.821
47429SOL    HW244120   2.641  13.400   7.704
47430SOL     OW44121   0.892  14.274   1.158
47430SOL    HW144122   0.950  14.339   1.198
47430SOL    HW244123   0.924  14.265   1.068
47431SOL     OW44124   7.401   9.798  10.120
47431SOL    HW144125   7.477   9.741  10.117
47431SOL    HW244126   7.370   9.792  10.211
47432SOL     OW44127  14.037   4.357   5.103
47432SOL    HW144128  13.992   4.400   5.175
47432SOL    HW244129  14.066   4.429   5.047
47433SOL     OW44130  13.197   1.816   3.609
47433SOL    HW144131  13.119   1.850   3.653
47433SOL    HW244132  13.202   1.864   3.527
47434SOL     OW44133   2.929   7.581  13.281
47434SOL    HW144134   2.875   7.547  13.210
47434SOL    HW244135   2.966   7.502  13.322
47435SOL     OW44136   0.118   6.586   3.409
47435SOL    HW144137   0.180   6.609   3.478
47435SOL    HW244138   0.152   6.505   3.372
47436SOL     OW44139  13.412   6.341   6.257
47436SOL    HW144140  13.465   6.412   6.293
47436SOL    HW244141  13.472   6.266   6.255
47437SOL     OW44142   0.641  12.273   2.982
47437SOL    HW144143   0.604  12.283   2.894
47437SOL    HW244144   0.608  12.188   3.012
47438SOL     OW44145   0.038  10.400   9.844
47438SOL    HW144146   0.127  10.369   9.831
47438SOL    HW244147   0.031  10.478   9.790
47439SOL     OW44148   8.140   5.444   7.553
47439SOL    HW144149   8.115   5.483   7.469
47439SOL    HW244150   8.071   5.382   7.572
47440SOL     OW44151   0.018   4.348   6.155
47440SOL    HW144152  14.823   4.365   6.217
47440SOL    HW244153  14.859   4.281   6.097
47441SOL     OW44154   9.026   5.785   3.704
47441SOL    HW144155   8.990   5.874   3.699
47441SOL    HW244156   9.009   5.748   3.618
47442SOL     OW44157   1.434   9.230  12.557
47442SOL    HW144158   1.493   9.281  12.612
47442SOL    HW244159   1.466   9.140  12.563
47443SOL     OW44160   0.957  12.385   7.816
47443SOL    HW144161   1.001  12.363   7.734
47443SOL    HW244162   0.879  12.331   7.817
47444SOL     OW44163   5.693  11.991   5.714
47444SOL    HW144164   5.699  12.039   5.796
47444SOL    HW244165   5.781  11.956   5.700
47445SOL     OW44166   9.006   1.185   4.206
47445SOL    HW144167   9.013   1.098   4.165
47445SOL    HW244168   8.913   1.194   4.225
47446SOL     OW44169  11.835  14.566  14.134
47446SOL    HW144170  11.870  14.535  14.218
47446SOL    HW244171  11.749  14.603  14.156
47447SOL     OW44172   0.016   0.518  10.495
47447SOL    HW144173   0.053   0.603  10.520
47447SOL    HW244174  14.853   0.534  10.409
47448SOL     OW44175   3.987  11.523  11.248
47448SOL    HW144176   3.943  11.530  11.164
47448SOL    HW244177   3.932  11.572  11.309
47449SOL     OW44178  11.514   1.094  12.686
47449SOL    HW144179  11.530   1.104  12.592
47449SOL    HW244180  11.454   1.020  12.692
47450SOL     OW44181  10.208   7.874  12.478
47450SOL    HW144182  10.276   7.915  12.424
47450SOL    HW244183  10.241   7.883  12.568
47451SOL     OW44184   7.087   8.051  10.933
47451SOL    HW144185   7.045   8.102  10.864
47451SOL    HW244186   7.020   8.044  11.001
47452SOL     OW44187   9.270   9.654  12.671
47452SOL    HW144188   9.331   9.667  12.744
47452SOL    HW244189   9.238   9.564  12.682
47453SOL     OW44190  11.995  12.180   7.759
47453SOL    HW144191  12.052  12.257   7.746
47453SOL    HW244192  11.919  12.197   7.704
47454SOL     OW44193   7.934   6.795  11.369
47454SOL    HW144194   7.881   6.786  11.449
47454SOL    HW244195   7.926   6.888  11.346
47455SOL     OW44196  10.084   0.068   4.514
47455SOL    HW144197  10.105   0.117   4.435
47455SOL    HW244198  10.082  14.853   4.486
47456SOL     OW44199  12.238   5.301   1.021
47456SOL    HW144200  12.206   5.302   0.931
47456SOL    HW244201  12.299   5.226   1.024
47457SOL     OW44202  10.518   2.912  13.943
47457SOL    HW144203  10.547   2.915  14.034
47457SOL    HW244204  10.590   2.871  13.896
47458SOL     OW44205   6.026   7.046  11.465
47458SOL    HW144206   6.004   6.975  11.405
47458SOL    HW244207   6.062   7.002  11.542
47459SOL     OW44208   1.417   1.540   0.455
47459SOL    HW144209   1.435   1.451   0.424
47459SOL    HW244210   1.399   1.529   0.548
47460SOL     OW44211   4.898   9.833  13.327
47460SOL    HW144212   4.962   9.764  13.307
47460SOL    HW244213   4.835   9.828  13.255
47461SOL     OW44214   5.226  10.678  13.152
47461SOL    HW144215   5.268  10.748  13.101
47461SOL    HW244216   5.276  10.674  13.233
47462SOL     OW44217   0.313   5.297   0.685
47462SOL    HW144218   0.377   5.261   0.624
47462SOL    HW244219   0.254   5.223   0.704
47463SOL     OW44220   1.662   4.388  13.480
47463SOL    HW144221   1.707   4.460  13.524
47463SOL    HW244222   1.634   4.425  13.397
47464SOL     OW44223   6.025   5.924   9.686
47464SOL    HW144224   5.984   5.910   9.600
47464SOL    HW244225   5.953   5.956   9.741
47465SOL     OW44226  13.899  13.439   9.207
47465SOL    HW144227  13.861  13.518   9.247
47465SOL    HW244228  13.830  13.407   9.148
47466SOL     OW44229  11.554  10.359   6.430
47466SOL    HW144230  11.562  10.265   6.418
47466SOL    HW244231  11.627  10.396   6.380
47467SOL     OW44232   0.492   8.096   2.209
47467SOL    HW144233   0.489   8.001   2.193
47467SOL    HW244234   0.476   8.135   2.123
47468SOL     OW44235  13.862  14.308   7.289
47468SOL    HW144236  13.914  14.365   7.232
47468SOL    HW244237  13.850  14.228   7.239
47469SOL     OW44238   1.838   1.999   9.138
47469SOL    HW144239   1.810   1.910   9.120
47469SOL    HW244240   1.843   2.041   9.052
47470SOL     OW44241   2.415   4.789   8.254
47470SOL    HW144242   2.477   4.719   8.234
47470SOL    HW244243   2.366   4.802   8.172
47471SOL     OW44244   1.917  11.035   9.881
47471SOL    HW144245   1.842  10.999   9.834
47471SOL    HW244246   1.963  11.087   9.816
47472SOL     OW44247   3.719   2.656   3.512
47472SOL    HW144248   3.626   2.663   3.493
47472SOL    HW244249   3.728   2.685   3.603
47473SOL     OW44250  14.758   1.141  10.320
47473SOL    HW144251  14.751   1.228  10.282
47473SOL    HW244252  14.731   1.151  10.411
47474SOL     OW44253   3.576   6.943  10.990
47474SOL    HW144254   3.636   6.996  11.041
47474SOL    HW244255   3.537   7.004  10.927
47475SOL     OW44256   9.585  14.085   0.531
47475SOL    HW144257   9.556  14.059   0.444
47475SOL    HW244258   9.552  14.174   0.542
47476SOL     OW44259   3.237   2.209   0.236
47476SOL    HW144260   3.158   2.167   0.270
47476SOL    HW244261   3.221   2.303   0.244
47477SOL     OW44262   1.601   3.149   5.680
47477SOL    HW144263   1.525   3.112   5.635
47477SOL    HW244264   1.676   3.110   5.636
47478SOL     OW44265   0.977   6.421  10.276
47478SOL    HW144266   1.040   6.485  10.243
47478SOL    HW244267   0.905   6.423  10.212
47479SOL     OW44268   8.834  13.620   7.153
47479SOL    HW144269   8.777  13.551   7.187
47479SOL    HW244270   8.779  13.698   7.150
47480SOL     OW44271   3.028  13.330   0.619
47480SOL    HW144272   3.035  13.277   0.698
47480SOL    HW244273   2.962  13.396   0.641
47481SOL     OW44274   8.077  10.253  11.338
47481SOL    HW144275   8.132  10.284  11.410
47481SOL    HW244276   8.131  10.187  11.294
47482SOL     OW44277  10.192  14.274  10.780
47482SOL    HW144278  10.227  14.188  10.759
47482SOL    HW244279  10.264  14.319  10.825
47483SOL     OW44280   2.649   5.221  12.588
47483SOL    HW144281   2.591   5.165  12.640
47483SOL    HW244282   2.590   5.285  12.548
47484SOL     OW44283   5.926  14.833   2.874
47484SOL    HW144284   5.876   0.031   2.909
47484SOL    HW244285   5.887  14.817   2.788
47485SOL     OW44286  14.094   1.947   0.149
47485SOL    HW144287  14.011   1.932   0.195
47485SOL    HW244288  14.160   1.942   0.218
47486SOL     OW44289   6.419   5.365  12.022
47486SOL    HW144290   6.368   5.343  12.100
47486SOL    HW244291   6.459   5.282  11.995
47487SOL     OW44292   5.542   3.294   2.078
47487SOL    HW144293   5.469   3.293   2.015
47487SOL    HW244294   5.610   3.346   2.035
47488SOL     OW44295   8.826  10.859  11.659
47488SOL    HW144296   8.885  10.890  11.590
47488SOL    HW244297   8.756  10.925  11.662
47489SOL     OW44298   8.800   4.871   0.683
47489SOL    HW144299   8.717   4.906   0.717
47489SOL    HW244300   8.851   4.949   0.659
47490SOL     OW44301  13.642   9.115   3.966
47490SOL    HW144302  13.610   9.089   3.879
47490SOL    HW244303  13.585   9.187   3.992
47491SOL     OW44304   8.993   4.986   7.824
47491SOL    HW144305   8.986   5.056   7.889
47491SOL    HW244306   8.936   4.917   7.857
47492SOL     OW44307   0.466   7.242  14.180
47492SOL    HW144308   0.465   7.148  14.159
47492SOL    HW244309   0.482   7.285  14.097
47493SOL     OW44310   1.460   6.987   1.002
47493SOL    HW144311   1.481   6.963   0.911
47493SOL    HW244312   1.389   7.050   0.994
47494SOL     OW44313   8.544   0.018   7.284
47494SOL    HW144314   8.495  14.873   7.205
47494SOL    HW244315   8.636   0.008   7.259
47495SOL     OW44316   9.118   7.872   8.101
47495SOL    HW144317   9.202   7.871   8.147
47495SOL    HW244318   9.118   7.792   8.049
47496SOL     OW44319   5.447   0.229   9.326
47496SOL    HW144320   5.424   0.175   9.250
47496SOL    HW244321   5.503   0.298   9.289
47497SOL     OW44322   9.710   7.260  14.069
47497SOL    HW144323   9.634   7.217  14.030
47497SOL    HW244324   9.694   7.254  14.163
47498SOL     OW44325   7.603  12.210  10.644
47498SOL    HW144326   7.637  12.195  10.732
47498SOL    HW244327   7.579  12.303  10.644
47499SOL     OW44328   2.700  11.838   6.738
47499SOL    HW144329   2.623  11.879   6.778
47499SOL    HW244330   2.670  11.809   6.652
47500SOL     OW44331   0.865  11.245  12.757
47500SOL    HW144332   0.850  11.175  12.693
47500SOL    HW244333   0.799  11.231  12.825
47501SOL     OW44334  13.134   1.505   7.965
47501SOL    HW144335  13.122   1.442   7.894
47501SOL    HW244336  13.203   1.564   7.933
47502SOL     OW44337   4.471  10.015  11.518
47502SOL    HW144338   4.542  10.034  11.580
47502SOL    HW244339   4.400  10.074  11.544
47503SOL     OW44340  11.218   3.266   4.626
47503SOL    HW144341  11.236   3.350   4.668
47503SOL    HW244342  11.295   3.248   4.572
47504SOL     OW44343   7.369  14.129  10.624
47504SOL    HW144344   7.405  14.217  10.609
47504SOL    HW244345   7.414  14.097  10.702
47505SOL     OW44346   3.428   4.656   1.313
47505SOL    HW144347   3.512   4.672   1.270
47505SOL    HW244348   3.365   4.708   1.262
47506SOL     OW44349  14.342  14.430  12.991
47506SOL    HW144350  14.429  14.425  12.951
47506SOL    HW244351  14.356  14.408  13.083
47507SOL     OW44352  12.323   4.203  14.432
47507SOL    HW144353  12.235   4.206  14.469
47507SOL    HW244354  12.361   4.288  14.453
47508SOL     OW44355   2.277  14.649  10.819
47508SOL    HW144356   2.200  14.688  10.778
47508SOL    HW244357   2.255  14.557  10.830
47509SOL     OW44358   6.179   9.414   1.983
47509SOL    HW144359   6.179   9.440   1.891
47509SOL    HW244360   6.191   9.319   1.981
47510SOL     OW44361  13.703   0.144   6.483
47510SOL    HW144362  13.726   0.237   6.480
47510SOL    HW244363  13.695   0.125   6.577
47511SOL     OW44364   1.503   2.372   8.930
47511SOL    HW144365   1.525   2.458   8.965
47511SOL    HW244366   1.503   2.314   9.006
47512SOL     OW44367   9.516  12.892  10.267
47512SOL    HW144368   9.520  12.969  10.211
47512SOL    HW244369   9.443  12.908  10.326
47513SOL     OW44370   5.821  11.322  10.421
47513SOL    HW144371   5.872  11.331  10.340
47513SOL    HW244372   5.862  11.384  10.482
47514SOL     OW44373   8.772   8.490   8.459
47514SOL    HW144374   8.676   8.487   8.463
47514SOL    HW244375   8.798   8.400   8.437
47515SOL     OW44376  10.385   1.765  12.726
47515SOL    HW144377  10.313   1.820  12.756
47515SOL    HW244378  10.416   1.721  12.805
47516SOL     OW44379   2.853   0.181  13.971
47516SOL    HW144380   2.938   0.206  13.933
47516SOL    HW244381   2.873   0.159  14.062
47517SOL     OW44382   4.677  10.746   6.545
47517SOL    HW144383   4.658  10.653   6.531
47517SOL    HW244384   4.771  10.749   6.564
47518SOL     OW44385  12.307   1.173  11.608
47518SOL    HW144386  12.361   1.230  11.663
47518SOL    HW244387  12.348   1.178  11.521
47519SOL     OW44388  14.316   5.145   2.890
47519SOL    HW144389  14.372   5.177   2.961
47519SOL    HW244390  14.286   5.059   2.919
47520SOL     OW44391   9.071   7.760  13.000
47520SOL    HW144392   9.135   7.730  13.064
47520SOL    HW244393   9.050   7.850  13.027
47521SOL     OW44394   9.575  10.313  12.784
47521SOL    HW144395   9.618  10.242  12.832
47521SOL    HW244396   9.482  10.289  12.785
47522SOL     OW44397   2.524   0.127   6.846
47522SOL    HW144398   2.542   0.076   6.925
47522SOL    HW244399   2.462   0.074   6.796
47523SOL     OW44400   4.789   1.179  10.809
47523SOL    HW144401   4.828   1.124  10.741
47523SOL    HW244402   4.762   1.258  10.763
47524SOL     OW44403   7.170   0.233   8.022
47524SOL    HW144404   7.086   0.259   8.060
47524SOL    HW244405   7.213   0.182   8.090
47525SOL     OW44406  14.584   9.233   9.876
47525SOL    HW144407  14.530   9.154   9.876
47525SOL    HW244408  14.544   9.290   9.810
47526SOL     OW44409   6.019  11.193  14.296
47526SOL    HW144410   6.067  11.139  14.358
47526SOL    HW244411   6.074  11.194  14.217
47527SOL     OW44412  11.145  11.320  11.990
47527SOL    HW144413  11.164  11.226  11.985
47527SOL    HW244414  11.145  11.340  12.083
47528SOL     OW44415  14.572   1.366   2.183
47528SOL    HW144416  14.555   1.332   2.095
47528SOL    HW244417  14.660   1.334   2.204
47529SOL     OW44418   3.473  13.310   5.172
47529SOL    HW144419   3.493  13.367   5.246
47529SOL    HW244420   3.474  13.368   5.096
47530SOL     OW44421   4.140  13.297  14.873
47530SOL    HW144422   4.123  13.329  14.784
47530SOL    HW244423   4.089  13.216   0.003
47531SOL     OW44424   1.076  11.208   7.794
47531SOL    HW144425   0.986  11.191   7.824
47531SOL    HW244426   1.066  11.232   7.702
47532SOL     OW44427  14.438   1.546   4.428
47532SOL    HW144428  14.348   1.519   4.444
47532SOL    HW244429  14.473   1.563   4.516
47533SOL     OW44430   5.092  11.951   4.319
47533SOL    HW144431   5.162  11.959   4.384
47533SOL    HW244432   5.035  12.026   4.336
47534SOL     OW44433   6.103   6.479   4.343
47534SOL    HW144434   6.198   6.481   4.335
47534SOL    HW244435   6.076   6.570   4.332
47535SOL     OW44436   8.608   9.349   6.246
47535SOL    HW144437   8.606   9.332   6.151
47535SOL    HW244438   8.687   9.400   6.260
47536SOL     OW44439   0.900   3.785  12.989
47536SOL    HW144440   0.892   3.849  12.918
47536SOL    HW244441   0.941   3.708  12.948
47537SOL     OW44442   8.978  14.385   6.149
47537SOL    HW144443   8.901  14.337   6.180
47537SOL    HW244444   8.958  14.476   6.168
47538SOL     OW44445   8.425   3.552   5.522
47538SOL    HW144446   8.368   3.477   5.537
47538SOL    HW244447   8.512   3.522   5.547
47539SOL     OW44448   8.576   6.542  13.633
47539SOL    HW144449   8.570   6.449  13.652
47539SOL    HW244450   8.636   6.577  13.698
47540SOL     OW44451  14.471   8.763   3.751
47540SOL    HW144452  14.479   8.789   3.659
47540SOL    HW244453  14.389   8.714   3.754
47541SOL     OW44454   9.686  10.256   4.616
47541SOL    HW144455   9.660  10.164   4.630
47541SOL    HW244456   9.609  10.296   4.573
47542SOL     OW44457   4.711  13.170   6.614
47542SOL    HW144458   4.798  13.202   6.591
47542SOL    HW244459   4.700  13.196   6.705
47543SOL     OW44460  11.554  11.361   5.755
47543SOL    HW144461  11.479  11.415   5.783
47543SOL    HW244462  11.585  11.403   5.675
47544SOL     OW44463   7.855  10.896   3.547
47544SOL    HW144464   7.911  10.922   3.474
47544SOL    HW244465   7.907  10.829   3.594
47545SOL     OW44466  11.336   3.090   1.874
47545SOL    HW144467  11.422   3.130   1.860
47545SOL    HW244468  11.308   3.062   1.787
47546SOL     OW44469  11.866   4.749   3.924
47546SOL    HW144470  11.791   4.768   3.868
47546SOL    HW244471  11.925   4.697   3.869
47547SOL     OW44472  13.774   1.089   7.590
47547SOL    HW144473  13.836   1.051   7.653
47547SOL    HW244474  13.801   1.053   7.505
47548SOL     OW44475  12.629   1.892   1.955
47548SOL    HW144476  12.541   1.856   1.944
47548SOL    HW244477  12.650   1.875   2.047
47549SOL     OW44478   2.477   3.393   0.598
47549SOL    HW144479   2.484   3.300   0.579
47549SOL    HW244480   2.509   3.437   0.519
47550SOL     OW44481  13.813   2.807   0.990
47550SOL    HW144482  13.855   2.806   0.904
47550SOL    HW244483  13.839   2.725   1.031
47551SOL     OW44484   2.201  10.966   9.988
47551SOL    HW144485   2.201  11.060  10.010
47551SOL    HW244486   2.109  10.945   9.976
47552SOL     OW44487  14.136  14.002   6.511
47552SOL    HW144488  14.187  14.083   6.497
47552SOL    HW244489  14.167  13.943   6.442
47553SOL     OW44490   2.501  14.852   3.973
47553SOL    HW144491   2.497   0.044   4.041
47553SOL    HW244492   2.594  14.847   3.949
47554SOL     OW44493  13.710   6.561  14.806
47554SOL    HW144494  13.720   6.640  14.859
47554SOL    HW244495  13.775   6.571  14.736
47555SOL     OW44496  11.890   7.786   0.540
47555SOL    HW144497  11.985   7.773   0.540
47555SOL    HW244498  11.857   7.716   0.596
47556SOL     OW44499   3.852  12.341   0.031
47556SOL    HW144500   3.770  12.349   0.079
47556SOL    HW244501   3.896  12.266   0.071
47557SOL     OW44502   7.050  12.565   6.850
47557SOL    HW144503   6.982  12.627   6.876
47557SOL    HW244504   7.063  12.581   6.756
47558SOL     OW44505   7.498   1.566  11.701
47558SOL    HW144506   7.528   1.479  11.727
47558SOL    HW244507   7.485   1.613  11.784
47559SOL     OW44508   8.607   6.098   6.111
47559SOL    HW144509   8.631   6.166   6.174
47559SOL    HW244510   8.520   6.122   6.081
47560SOL     OW44511   7.069   0.493   9.192
47560SOL    HW144512   7.137   0.497   9.125
47560SOL    HW244513   7.000   0.439   9.153
47561SOL     OW44514  12.958   2.560   0.744
47561SOL    HW144515  12.881   2.614   0.761
47561SOL    HW244516  12.933   2.472   0.770
47562SOL     OW44517  11.625  13.915  13.948
47562SOL    HW144518  11.716  13.888  13.961
47562SOL    HW244519  11.589  13.919  14.037
47563SOL     OW44520  12.092  12.345  14.307
47563SOL    HW144521  12.061  12.435  14.296
47563SOL    HW244522  12.027  12.304  14.364
47564SOL     OW44523   8.031   8.407   4.270
47564SOL    HW144524   8.060   8.482   4.322
47564SOL    HW244525   8.079   8.415   4.187
47565SOL     OW44526  10.681   1.944   2.055
47565SOL    HW144527  10.703   1.853   2.074
47565SOL    HW244528  10.766   1.987   2.045
47566SOL     OW44529   1.900   4.886  13.490
47566SOL    HW144530   1.969   4.820  13.495
47566SOL    HW244531   1.879   4.907  13.581
47567SOL     OW44532   1.055   7.483  12.959
47567SOL    HW144533   1.143   7.511  12.982
47567SOL    HW244534   1.067   7.399  12.916
47568SOL     OW44535  14.543   4.830   0.988
47568SOL    HW144536  14.490   4.753   0.969
47568SOL    HW244537  14.492   4.878   1.054
47569SOL     OW44538   8.924  12.167  14.802
47569SOL    HW144539   8.944  12.172   0.020
47569SOL    HW244540   9.004  12.196  14.759
47570SOL     OW44541  10.219   4.131   5.493
47570SOL    HW144542  10.157   4.063   5.467
47570SOL    HW244543  10.237   4.180   5.413
47571SOL     OW44544  14.813   1.313   4.584
47571SOL    HW144545  14.749   1.357   4.640
47571SOL    HW244546  14.831   1.230   4.629
47572SOL     OW44547   3.346   9.324   9.175
47572SOL    HW144548   3.432   9.366   9.175
47572SOL    HW244549   3.302   9.360   9.098
47573SOL     OW44550  13.333  14.159   8.124
47573SOL    HW144551  13.426  14.178   8.111
47573SOL    HW244552  13.328  14.063   8.123
47574SOL     OW44553  13.529  13.401  12.079
47574SOL    HW144554  13.619  13.388  12.108
47574SOL    HW244555  13.536  13.464  12.007
47575SOL     OW44556  14.543   9.016   0.307
47575SOL    HW144557  14.616   8.984   0.254
47575SOL    HW244558  14.478   9.045   0.243
47576SOL     OW44559   4.701  14.123  14.644
47576SOL    HW144560   4.692  14.046  14.699
47576SOL    HW244561   4.705  14.089  14.555
47577SOL     OW44562   4.680  12.602  14.797
47577SOL    HW144563   4.746  12.668  14.775
47577SOL    HW244564   4.730  12.520  14.803
47578SOL     OW44565   3.314   2.399  13.927
47578SOL    HW144566   3.381   2.452  13.885
47578SOL    HW244567   3.318   2.422  14.020
47579SOL     OW44568   7.528  11.573   3.027
47579SOL    HW144569   7.506  11.665   3.044
47579SOL    HW244570   7.443  11.528   3.026
47580SOL     OW44571   3.520   3.230   3.397
47580SOL    HW144572   3.502   3.241   3.490
47580SOL    HW244573   3.459   3.290   3.353
47581SOL     OW44574  10.193  10.759  10.715
47581SOL    HW144575  10.284  10.753  10.744
47581SOL    HW244576  10.198  10.768  10.620
47582SOL     OW44577   4.278  13.585   8.597
47582SOL    HW144578   4.342  13.599   8.666
47582SOL    HW244579   4.197  13.564   8.643
47583SOL     OW44580  13.315   2.148   0.386
47583SOL    HW144581  13.385   2.143   0.321
47583SOL    HW244582  13.359   2.173   0.467
47584SOL     OW44583  10.029   4.958   4.632
47584SOL    HW144584  10.041   5.044   4.673
47584SOL    HW244585  10.094   4.902   4.674
47585SOL     OW44586   1.151  10.314  13.200
47585SOL    HW144587   1.236  10.271  13.203
47585SOL    HW244588   1.167  10.401  13.238
47586SOL     OW44589  14.252   5.885  11.771
47586SOL    HW144590  14.290   5.804  11.805
47586SOL    HW244591  14.311   5.911  11.701
47587SOL     OW44592   5.684   2.686   3.770
47587SOL    HW144593   5.669   2.740   3.847
47587SOL    HW244594   5.642   2.735   3.699
47588SOL     OW44595  13.885   7.690   0.918
47588SOL    HW144596  13.866   7.597   0.907
47588SOL    HW244597  13.946   7.711   0.847
47589SOL     OW44598   3.665   7.468  14.162
47589SOL    HW144599   3.623   7.390  14.199
47589SOL    HW244600   3.669   7.450  14.068
47590SOL     OW44601   6.532   0.815   7.616
47590SOL    HW144602   6.624   0.842   7.611
47590SOL    HW244603   6.497   0.863   7.692
47591SOL     OW44604   6.291   8.114   0.515
47591SOL    HW144605   6.203   8.101   0.549
47591SOL    HW244606   6.309   8.034   0.465
47592SOL     OW44607   4.084   7.945   7.463
47592SOL    HW144608   4.127   7.861   7.450
47592SOL    HW244609   4.099   7.966   7.556
47593SOL     OW44610  13.075   0.082   3.237
47593SOL    HW144611  13.081   0.004   3.293
47593SOL    HW244612  13.000   0.066   3.180
47594SOL     OW44613   5.652   8.536  12.485
47594SOL    HW144614   5.608   8.536  12.400
47594SOL    HW244615   5.676   8.444  12.498
47595SOL     OW44616   0.524  12.838   2.696
47595SOL    HW144617   0.612  12.866   2.723
47595SOL    HW244618   0.502  12.767   2.755
47596SOL     OW44619   3.929   3.446   8.668
47596SOL    HW144620   3.914   3.352   8.673
47596SOL    HW244621   3.940   3.474   8.759
47597SOL     OW44622  12.956  12.160   6.057
47597SOL    HW144623  12.908  12.179   6.139
47597SOL    HW244624  12.901  12.096   6.012
47598SOL     OW44625   9.085  11.563   8.075
47598SOL    HW144626   9.171  11.528   8.098
47598SOL    HW244627   9.025  11.519   8.135
47599SOL     OW44628   8.040   6.293   1.326
47599SOL    HW144629   7.949   6.266   1.311
47599SOL    HW244630   8.079   6.296   1.239
47600SOL     OW44631  12.956   1.148   5.943
47600SOL    HW144632  12.884   1.193   5.988
47600SOL    HW244633  12.913   1.084   5.886
47601SOL     OW44634   4.520   6.621   1.905
47601SOL    HW144635   4.480   6.573   1.978
47601SOL    HW244636   4.578   6.557   1.863
47602SOL     OW44637  14.059   5.362   6.292
47602SOL    HW144638  14.067   5.322   6.379
47602SOL    HW244639  14.149   5.381   6.266
47603SOL     OW44640   2.498   6.204   7.321
47603SOL    HW144641   2.443   6.224   7.397
47603SOL    HW244642   2.492   6.108   7.312
47604SOL     OW44643   4.560   4.962   3.938
47604SOL    HW144644   4.522   4.935   3.855
47604SOL    HW244645   4.651   4.981   3.917
47605SOL     OW44646   2.457   5.916   8.732
47605SOL    HW144647   2.488   5.958   8.812
47605SOL    HW244648   2.478   5.823   8.743
47606SOL     OW44649  12.772  10.301  12.358
47606SOL    HW144650  12.787  10.207  12.361
47606SOL    HW244651  12.860  10.339  12.347
47607SOL     OW44652  13.784  10.460   2.459
47607SOL    HW144653  13.812  10.472   2.368
47607SOL    HW244654  13.727  10.535   2.476
47608SOL     OW44655  13.991  12.958  13.024
47608SOL    HW144656  14.043  12.998  13.094
47608SOL    HW244657  13.968  13.031  12.966
47609SOL     OW44658   0.386   1.056   6.778
47609SOL    HW144659   0.301   1.076   6.819
47609SOL    HW244660   0.371   0.972   6.734
47610SOL     OW44661   0.728   3.388   0.740
47610SOL    HW144662   0.705   3.460   0.682
47610SOL    HW244663   0.662   3.389   0.809
47611SOL     OW44664   6.478  10.205  13.476
47611SOL    HW144665   6.547  10.271  13.469
47611SOL    HW244666   6.472  10.185  13.569
47612SOL     OW44667  10.902   5.562   9.103
47612SOL    HW144668  10.911   5.569   9.008
47612SOL    HW244669  10.809   5.578   9.120
47613SOL     OW44670   9.685   0.332   1.489
47613SOL    HW144671   9.780   0.331   1.501
47613SOL    HW244672   9.673   0.354   1.397
47614SOL     OW44673   5.724   3.068   7.522
47614SOL    HW144674   5.807   3.029   7.551
47614SOL    HW244675   5.721   3.051   7.428
47615SOL     OW44676   8.027   4.372   5.714
47615SOL    HW144677   8.015   4.280   5.693
47615SOL    HW244678   7.964   4.418   5.659
47616SOL     OW44679   8.323   2.484  13.513
47616SOL    HW144680   8.389   2.431  13.468
47616SOL    HW244681   8.280   2.532  13.442
47617SOL     OW44682  11.022   4.521  11.197
47617SOL    HW144683  10.931   4.514  11.224
47617SOL    HW244684  11.071   4.530  11.279
47618SOL     OW44685   5.852   4.960  13.488
47618SOL    HW144686   5.782   4.895  13.491
47618SOL    HW244687   5.808   5.043  13.467
47619SOL     OW44688  13.241   1.712  10.085
47619SOL    HW144689  13.151   1.735  10.109
47619SOL    HW244690  13.279   1.793  10.053
47620SOL     OW44691   8.718  10.781   7.015
47620SOL    HW144692   8.675  10.831   7.085
47620SOL    HW244693   8.648  10.730   6.976
47621SOL     OW44694   4.475  13.849   3.866
47621SOL    HW144695   4.522  13.778   3.911
47621SOL    HW244696   4.456  13.815   3.779
47622SOL     OW44697   8.841   3.973   3.839
47622SOL    HW144698   8.928   4.013   3.848
47622SOL    HW244699   8.793   4.003   3.916
47623SOL     OW44700   5.177   2.679   6.448
47623SOL    HW144701   5.190   2.649   6.537
47623SOL    HW244702   5.254   2.649   6.400
47624SOL     OW44703   6.252  12.855   4.118
47624SOL    HW144704   6.226  12.765   4.139
47624SOL    HW244705   6.171  12.906   4.128
47625SOL     OW44706   3.878   4.313   2.521
47625SOL    HW144707   3.848   4.308   2.612
47625SOL    HW244708   3.936   4.390   2.520
47626SOL     OW44709  10.233   0.422   0.759
47626SOL    HW144710  10.190   0.392   0.839
47626SOL    HW244711  10.176   0.492   0.726
47627SOL     OW44712  13.580   3.052  13.226
47627SOL    HW144713  13.587   2.976  13.169
47627SOL    HW244714  13.653   3.043  13.288
47628SOL     OW44715   1.479  11.871   4.720
47628SOL    HW144716   1.559  11.831   4.686
47628SOL    HW244717   1.420  11.798   4.735
47629SOL     OW44718   1.020   8.854  11.895
47629SOL    HW144719   1.000   8.889  11.982
47629SOL    HW244720   0.968   8.909  11.836
47630SOL     OW44721  12.415   3.940  11.309
47630SOL    HW144722  12.459   3.991  11.377
47630SOL    HW244723  12.479   3.874  11.282
47631SOL     OW44724   0.103  12.438  14.479
47631SOL    HW144725   0.185  12.481  14.501
47631SOL    HW244726   0.055  12.504  14.428
47632SOL     OW44727  13.562  14.203   4.797
47632SOL    HW144728  13.516  14.213   4.880
47632SOL    HW244729  13.538  14.280   4.745
47633SOL     OW44730  13.671   0.487  12.740
47633SOL    HW144731  13.735   0.439  12.794
47633SOL    HW244732  13.586   0.450  12.766
47634SOL     OW44733   9.486   9.196   9.223
47634SOL    HW144734   9.549   9.159   9.286
47634SOL    HW244735   9.478   9.288   9.248
47635SOL     OW44736   9.632   5.841   4.377
47635SOL    HW144737   9.553   5.882   4.343
47635SOL    HW244738   9.602   5.760   4.419
47636SOL     OW44739   1.904   9.301  12.985
47636SOL    HW144740   1.994   9.294  13.018
47636SOL    HW244741   1.859   9.355  13.049
47637SOL     OW44742  13.913  14.733  10.817
47637SOL    HW144743  13.818  14.741  10.826
47637SOL    HW244744  13.948  14.758  10.903
47638SOL     OW44745   0.760   1.552   1.884
47638SOL    HW144746   0.781   1.625   1.826
47638SOL    HW244747   0.794   1.475   1.839
47639SOL     OW44748   9.055   2.437   5.675
47639SOL    HW144749   8.963   2.452   5.695
47639SOL    HW244750   9.099   2.448   5.759
47640SOL     OW44751   6.925   0.616   7.186
47640SOL    HW144752   6.864   0.560   7.137
47640SOL    HW244753   7.005   0.615   7.133
47641SOL     OW44754   0.054  11.092   0.114
47641SOL    HW144755   0.005  11.174   0.102
47641SOL    HW244756   0.060  11.082   0.209
47642SOL     OW44757   5.022  12.514   8.771
47642SOL    HW144758   4.962  12.443   8.797
47642SOL    HW244759   4.986  12.592   8.813
47643SOL     OW44760   4.015  13.113  11.701
47643SOL    HW144761   4.050  13.083  11.617
47643SOL    HW244762   3.960  13.040  11.731
47644SOL     OW44763   8.634  11.722   7.457
47644SOL    HW144764   8.674  11.799   7.497
47644SOL    HW244765   8.585  11.681   7.529
47645SOL     OW44766   5.175   5.578   1.202
47645SOL    HW144767   5.195   5.614   1.288
47645SOL    HW244768   5.140   5.490   1.220
47646SOL     OW44769  13.704  12.765  14.147
47646SOL    HW144770  13.719  12.801  14.235
47646SOL    HW244771  13.758  12.686  14.144
47647SOL     OW44772  10.941   5.884   1.796
47647SOL    HW144773  10.949   5.947   1.724
47647SOL    HW244774  10.849   5.888   1.821
47648SOL     OW44775  13.544  12.848   2.678
47648SOL    HW144776  13.460  12.828   2.718
47648SOL    HW244777  13.538  12.940   2.651
47649SOL     OW44778   9.766  11.864   6.998
47649SOL    HW144779   9.673  11.872   6.979
47649SOL    HW244780   9.774  11.782   7.046
47650SOL     OW44781  10.208   2.720   3.436
47650SOL    HW144782  10.232   2.735   3.528
47650SOL    HW244783  10.113   2.708   3.438
47651SOL     OW44784   3.879   0.242   1.398
47651SOL    HW144785   3.842   0.321   1.357
47651SOL    HW244786   3.950   0.275   1.453
47652SOL     OW44787   7.373  12.621  10.032
47652SOL    HW144788   7.433  12.671  10.088
47652SOL    HW244789   7.304  12.592  10.091
47653SOL     OW44790   4.202   9.596   1.665
47653SOL    HW144791   4.242   9.524   1.712
47653SOL    HW244792   4.237   9.590   1.576
47654SOL     OW44793   6.296   0.259   6.333
47654SOL    HW144794   6.370   0.200   6.320
47654SOL    HW244795   6.267   0.243   6.423
47655SOL     OW44796   2.409  10.501  14.181
47655SOL    HW144797   2.376  10.430  14.126
47655SOL    HW244798   2.334  10.558  14.196
47656SOL     OW44799   2.970  11.254   4.865
47656SOL    HW144800   3.059  11.224   4.884
47656SOL    HW244801   2.950  11.313   4.938
47657SOL     OW44802  12.644  14.499  11.821
47657SOL    HW144803  12.562  14.539  11.791
47657SOL    HW244804  12.617  14.414  11.855
47658SOL     OW44805   8.464  11.981  11.702
47658SOL    HW144806   8.486  11.949  11.615
47658SOL    HW244807   8.388  11.929  11.728
47659SOL     OW44808  11.372   4.066   9.917
47659SOL    HW144809  11.329   4.125   9.978
47659SOL    HW244810  11.404   3.993   9.971
47660SOL     OW44811   7.715   4.917   5.194
47660SOL    HW144812   7.763   4.925   5.112
47660SOL    HW244813   7.701   5.007   5.222
47661SOL     OW44814   7.572   3.250  13.388
47661SOL    HW144815   7.627   3.329  13.384
47661SOL    HW244816   7.522   3.252  13.306
47662SOL     OW44817  11.169   8.073  11.121
47662SOL    HW144818  11.132   8.161  11.125
47662SOL    HW244819  11.113   8.020  11.177
47663SOL     OW44820   4.584   0.277   0.124
47663SOL    HW144821   4.529   0.356   0.125
47663SOL    HW244822   4.621   0.273   0.212
47664SOL     OW44823  10.863   3.718   7.293
47664SOL    HW144824  10.788   3.692   7.347
47664SOL    HW244825  10.858   3.660   7.217
47665SOL     OW44826  13.312   0.596  13.080
47665SOL    HW144827  13.404   0.622  13.076
47665SOL    HW244828  13.286   0.586  12.988
47666SOL     OW44829   1.370   0.727   0.007
47666SOL    HW144830   1.320   0.677  14.818
47666SOL    HW244831   1.321   0.808   0.017
47667SOL     OW44832   8.752   2.036   7.990
47667SOL    HW144833   8.661   2.064   8.000
47667SOL    HW244834   8.746   1.942   7.972
47668SOL     OW44835   0.502  12.357   8.570
47668SOL    HW144836   0.570  12.418   8.543
47668SOL    HW244837   0.424  12.411   8.581
47669SOL     OW44838  12.525   1.822   6.805
47669SOL    HW144839  12.513   1.917   6.812
47669SOL    HW244840  12.450   1.785   6.852
47670SOL     OW44841  11.197  12.186   0.931
47670SOL    HW144842  11.166  12.134   1.005
47670SOL    HW244843  11.209  12.122   0.861
47671SOL     OW44844   4.300  13.476   9.700
47671SOL    HW144845   4.382  13.496   9.747
47671SOL    HW244846   4.231  13.498   9.763
47672SOL     OW44847   4.153  13.978  12.333
47672SOL    HW144848   4.150  13.996  12.427
47672SOL    HW244849   4.160  14.064  12.292
47673SOL     OW44850   2.462   2.857   5.029
47673SOL    HW144851   2.437   2.765   5.042
47673SOL    HW244852   2.378   2.904   5.028
47674SOL     OW44853  13.185   8.896   6.215
47674SOL    HW144854  13.163   8.850   6.296
47674SOL    HW244855  13.156   8.838   6.145
47675SOL     OW44856   7.784  12.576   9.879
47675SOL    HW144857   7.822  12.560   9.793
47675SOL    HW244858   7.858  12.572   9.939
47676SOL     OW44859  10.735  12.790   4.733
47676SOL    HW144860  10.639  12.780   4.732
47676SOL    HW244861  10.768  12.701   4.725
47677SOL     OW44862   2.210   8.018  13.214
47677SOL    HW144863   2.192   8.100  13.169
47677SOL    HW244864   2.147   8.015  13.286
47678SOL     OW44865  11.944   7.914  10.974
47678SOL    HW144866  11.958   7.956  10.890
47678SOL    HW244867  12.007   7.955  11.033
47679SOL     OW44868   8.407   9.301   2.942
47679SOL    HW144869   8.359   9.228   2.904
47679SOL    HW244870   8.497   9.271   2.947
47680SOL     OW44871   5.967   5.545  12.875
47680SOL    HW144872   6.053   5.584  12.860
47680SOL    HW244873   5.973   5.458  12.837
47681SOL     OW44874   8.631   0.353  12.656
47681SOL    HW144875   8.720   0.387  12.652
47681SOL    HW244876   8.606   0.340  12.564
47682SOL     OW44877   1.183   2.759   3.242
47682SOL    HW144878   1.224   2.845   3.241
47682SOL    HW244879   1.122   2.760   3.168
47683SOL     OW44880  14.207   6.876   4.765
47683SOL    HW144881  14.126   6.899   4.811
47683SOL    HW244882  14.263   6.837   4.832
47684SOL     OW44883   8.561   9.162  14.216
47684SOL    HW144884   8.630   9.183  14.153
47684SOL    HW244885   8.512   9.090  14.175
47685SOL     OW44886   3.846  11.639   6.548
47685SOL    HW144887   3.941  11.640   6.556
47685SOL    HW244888   3.818  11.564   6.602
47686SOL     OW44889   2.829   7.859   6.255
47686SOL    HW144890   2.824   7.928   6.189
47686SOL    HW244891   2.867   7.784   6.208
47687SOL     OW44892   5.775   7.576  13.796
47687SOL    HW144893   5.770   7.484  13.769
47687SOL    HW244894   5.743   7.577  13.886
47688SOL     OW44895   2.645   9.849   1.340
47688SOL    HW144896   2.557   9.812   1.330
47688SOL    HW244897   2.650   9.917   1.273
47689SOL     OW44898   3.593   7.809   1.780
47689SOL    HW144899   3.634   7.774   1.858
47689SOL    HW244900   3.653   7.877   1.749
47690SOL     OW44901   5.466  12.845  14.371
47690SOL    HW144902   5.481  12.896  14.292
47690SOL    HW244903   5.515  12.892  14.439
47691SOL     OW44904   1.405  12.064   4.283
47691SOL    HW144905   1.427  11.973   4.266
47691SOL    HW244906   1.326  12.060   4.337
47692SOL     OW44907  11.139   9.362   1.323
47692SOL    HW144908  11.085   9.307   1.267
47692SOL    HW244909  11.116   9.452   1.299
47693SOL     OW44910  13.260   6.506   9.979
47693SOL    HW144911  13.185   6.541  10.028
47693SOL    HW244912  13.331   6.503  10.042
47694SOL     OW44913  12.388  10.137   2.891
47694SOL    HW144914  12.453  10.187   2.842
47694SOL    HW244915  12.383  10.181   2.976
47695SOL     OW44916   7.570   7.495   4.688
47695SOL    HW144917   7.475   7.508   4.697
47695SOL    HW244918   7.585   7.490   4.594
47696SOL     OW44919  12.143   4.357   7.627
47696SOL    HW144920  12.178   4.371   7.539
47696SOL    HW244921  12.105   4.269   7.624
47697SOL     OW44922   0.264  13.964   2.775
47697SOL    HW144923   0.348  13.936   2.811
47697SOL    HW244924   0.222  13.883   2.746
47698SOL     OW44925   2.818   9.709   4.005
47698SOL    HW144926   2.862   9.750   4.079
47698SOL    HW244927   2.731   9.749   4.004
47699SOL     OW44928  14.182  13.563   3.195
47699SOL    HW144929  14.138  13.535   3.114
47699SOL    HW244930  14.189  13.658   3.186
47700SOL     OW44931   2.167   2.109  13.372
47700SOL    HW144932   2.080   2.113  13.410
47700SOL    HW244933   2.206   2.195  13.391
47701SOL     OW44934  14.581  14.290   0.123
47701SOL    HW144935  14.609  14.198   0.118
47701SOL    HW244936  14.650  14.338   0.079
47702SOL     OW44937  10.778   6.523  10.347
47702SOL    HW144938  10.706   6.572  10.386
47702SOL    HW244939  10.759   6.431  10.367
47703SOL     OW44940  10.053   5.830  10.388
47703SOL    HW144941  10.039   5.887  10.463
47703SOL    HW244942   9.965   5.814  10.353
47704SOL     OW44943   6.864  13.412  11.223
47704SOL    HW144944   6.949  13.426  11.180
47704SOL    HW244945   6.805  13.388  11.151
47705SOL     OW44946   9.199  11.587   8.758
47705SOL    HW144947   9.123  11.611   8.705
47705SOL    HW244948   9.220  11.666   8.807
47706SOL     OW44949   0.664  14.351  10.310
47706SOL    HW144950   0.678  14.349  10.405
47706SOL    HW244951   0.751  14.368  10.274
47707SOL     OW44952   8.769   5.442   8.278
47707SOL    HW144953   8.712   5.518   8.290
47707SOL    HW244954   8.730   5.374   8.333
47708SOL     OW44955   0.343   7.577  13.280
47708SOL    HW144956   0.294   7.496  13.280
47708SOL    HW244957   0.359   7.596  13.373
47709SOL     OW44958   2.638   9.544   1.882
47709SOL    HW144959   2.680   9.577   1.803
47709SOL    HW244960   2.544   9.544   1.862
47710SOL     OW44961   6.095   6.566  14.696
47710SOL    HW144962   6.087   6.482  14.742
47710SOL    HW244963   6.137   6.544  14.613
47711SOL     OW44964  11.461  13.619  10.724
47711SOL    HW144965  11.534  13.559  10.709
47711SOL    HW244966  11.503  13.705  10.735
47712SOL     OW44967   9.530  13.618   4.189
47712SOL    HW144968   9.598  13.565   4.147
47712SOL    HW244969   9.571  13.703   4.204
47713SOL     OW44970  11.448   7.775   1.045
47713SOL    HW144971  11.357   7.746   1.054
47713SOL    HW244972  11.460   7.790   0.951
47714SOL     OW44973   1.462  11.955   9.024
47714SOL    HW144974   1.479  11.974   8.931
47714SOL    HW244975   1.431  12.038   9.060
47715SOL     OW44976  12.067  11.312   6.883
47715SOL    HW144977  12.138  11.374   6.898
47715SOL    HW244978  11.988  11.360   6.910
47716SOL     OW44979   2.236   4.609   5.953
47716SOL    HW144980   2.213   4.520   5.926
47716SOL    HW244981   2.277   4.648   5.875
47717SOL     OW44982   4.793   9.859  12.695
47717SOL    HW144983   4.703   9.827  12.690
47717SOL    HW244984   4.796   9.932  12.634
47718SOL     OW44985  13.600  14.010   5.348
47718SOL    HW144986  13.619  13.919   5.326
47718SOL    HW244987  13.558  14.046   5.270
47719SOL     OW44988   6.294   2.833   5.453
47719SOL    HW144989   6.343   2.852   5.533
47719SOL    HW244990   6.241   2.911   5.438
47720SOL     OW44991   7.864  12.261  13.641
47720SOL    HW144992   7.959  12.273  13.639
47720SOL    HW244993   7.850  12.174  13.604
47721SOL     OW44994   1.226   7.587   2.211
47721SOL    HW144995   1.190   7.563   2.125
47721SOL    HW244996   1.300   7.644   2.191
47722SOL     OW44997   1.036   3.154   9.119
47722SOL    HW144998   1.102   3.099   9.161
47722SOL    HW244999   1.002   3.100   9.048
47723SOL     OW45000  10.866   8.690   3.953
47723SOL    HW145001  10.834   8.778   3.973
47723SOL    HW245002  10.829   8.634   4.022
47724SOL     OW45003  14.215   5.104  14.785
47724SOL    HW145004  14.230   5.038  14.718
47724SOL    HW245005  14.265   5.180  14.756
47725SOL     OW45006   7.080   8.220  14.674
47725SOL    HW145007   7.086   8.196  14.766
47725SOL    HW245008   7.166   8.255  14.652
47726SOL     OW45009   7.457  13.706   9.905
47726SOL    HW145010   7.377  13.664   9.938
47726SOL    HW245011   7.426  13.784   9.859
47727SOL     OW45012   8.444  10.776   3.561
47727SOL    HW145013   8.377  10.827   3.606
47727SOL    HW245014   8.420  10.780   3.468
47728SOL     OW45015   4.438   7.275  10.070
47728SOL    HW145016   4.393   7.275  10.154
47728SOL    HW245017   4.531   7.269  10.093
47729SOL     OW45018   7.996   3.501  12.210
47729SOL    HW145019   8.059   3.432  12.189
47729SOL    HW245020   8.040   3.582  12.186
47730SOL     OW45021   5.465   5.515   1.003
47730SOL    HW145022   5.377   5.523   1.041
47730SOL    HW245023   5.450   5.503   0.910
47731SOL     OW45024   8.776  12.536   8.594
47731SOL    HW145025   8.843  12.567   8.533
47731SOL    HW245026   8.701  12.594   8.579
47732SOL     OW45027  11.553   2.064   3.623
47732SOL    HW145028  11.551   2.036   3.531
47732SOL    HW245029  11.461   2.074   3.647
47733SOL     OW45030   6.382   0.885   0.019
47733SOL    HW145031   6.414   0.858  14.809
47733SOL    HW245032   6.311   0.947   0.000
47734SOL     OW45033  14.701   1.443  14.145
47734SOL    HW145034  14.717   1.488  14.062
47734SOL    HW245035  14.612   1.470  14.169
47735SOL     OW45036   3.757   1.534   3.439
47735SOL    HW145037   3.839   1.581   3.427
47735SOL    HW245038   3.757   1.509   3.532
47736SOL     OW45039   5.763   7.204  13.717
47736SOL    HW145040   5.673   7.186  13.743
47736SOL    HW245041   5.814   7.131  13.752
47737SOL     OW45042  13.143   2.895   2.203
47737SOL    HW145043  13.180   2.943   2.278
47737SOL    HW245044  13.061   2.939   2.184
47738SOL     OW45045   9.370   1.695   9.792
47738SOL    HW145046   9.424   1.666   9.865
47738SOL    HW245047   9.398   1.640   9.719
47739SOL     OW45048  14.602  14.214   0.435
47739SOL    HW145049  14.658  14.279   0.477
47739SOL    HW245050  14.568  14.258   0.357
47740SOL     OW45051   6.409   3.981   8.538
47740SOL    HW145052   6.455   4.040   8.597
47740SOL    HW245053   6.316   4.000   8.552
47741SOL     OW45054  10.803   8.589  10.062
47741SOL    HW145055  10.774   8.531   9.992
47741SOL    HW245056  10.826   8.529  10.134
47742SOL     OW45057   6.071   6.228   4.800
47742SOL    HW145058   6.046   6.229   4.708
47742SOL    HW245059   6.165   6.212   4.800
47743SOL     OW45060  12.952   4.956  10.107
47743SOL    HW145061  12.915   4.872  10.078
47743SOL    HW245062  13.043   4.953  10.076
47744SOL     OW45063  10.424   2.562   3.529
47744SOL    HW145064  10.426   2.629   3.460
47744SOL    HW245065  10.456   2.483   3.486
47745SOL     OW45066  14.265   1.574  13.157
47745SOL    HW145067  14.191   1.514  13.150
47745SOL    HW245068  14.260   1.628  13.079
47746SOL     OW45069   7.148   6.679  13.484
47746SOL    HW145070   7.117   6.749  13.426
47746SOL    HW245071   7.242   6.676  13.470
47747SOL     OW45072  12.355   2.810   2.236
47747SOL    HW145073  12.371   2.724   2.277
47747SOL    HW245074  12.381   2.873   2.303
47748SOL     OW45075   6.394   2.758   2.634
47748SOL    HW145076   6.471   2.712   2.601
47748SOL    HW245077   6.408   2.765   2.728
47749SOL     OW45078  12.636   7.387   3.877
47749SOL    HW145079  12.711   7.413   3.822
47749SOL    HW245080  12.585   7.468   3.887
47750SOL     OW45081  14.259   3.704   1.494
47750SOL    HW145082  14.286   3.616   1.522
47750SOL    HW245083  14.208   3.689   1.414
47751SOL     OW45084  14.357  13.526   1.001
47751SOL    HW145085  14.410  13.563   1.072
47751SOL    HW245086  14.356  13.594   0.933
47752SOL     OW45087  13.121  12.252  13.202
47752SOL    HW145088  13.047  12.237  13.143
47752SOL    HW245089  13.130  12.171  13.251
47753SOL     OW45090   3.169  12.788   2.784
47753SOL    HW145091   3.116  12.788   2.705
47753SOL    HW245092   3.115  12.835   2.849
47754SOL     OW45093   3.448   5.266   2.021
47754SOL    HW145094   3.505   5.343   2.012
47754SOL    HW245095   3.423   5.265   2.113
47755SOL     OW45096   4.908  10.368  12.482
47755SOL    HW145097   4.834  10.382  12.541
47755SOL    HW245098   4.867  10.336  12.401
47756SOL     OW45099   7.940  13.336   2.302
47756SOL    HW145100   7.852  13.354   2.269
47756SOL    HW245101   7.956  13.406   2.365
47757SOL     OW45102   7.847  12.206   9.044
47757SOL    HW145103   7.789  12.132   9.027
47757SOL    HW245104   7.844  12.218   9.139
47758SOL     OW45105   7.009   7.004   0.553
47758SOL    HW145106   7.013   7.047   0.468
47758SOL    HW245107   6.929   7.037   0.593
47759SOL     OW45108   2.712   4.428   6.886
47759SOL    HW145109   2.687   4.347   6.842
47759SOL    HW245110   2.639   4.447   6.945
47760SOL     OW45111   7.895   5.171   7.480
47760SOL    HW145112   7.811   5.216   7.476
47760SOL    HW245113   7.884   5.106   7.550
47761SOL     OW45114   5.883   7.888  12.285
47761SOL    HW145115   5.940   7.812  12.302
47761SOL    HW245116   5.795   7.854  12.298
47762SOL     OW45117   0.530   6.015   6.502
47762SOL    HW145118   0.530   6.043   6.411
47762SOL    HW245119   0.560   5.924   6.498
47763SOL     OW45120   8.609   9.854   0.428
47763SOL    HW145121   8.581   9.807   0.507
47763SOL    HW245122   8.693   9.815   0.406
47764SOL     OW45123  12.943  12.476  10.209
47764SOL    HW145124  12.939  12.543  10.140
47764SOL    HW245125  12.882  12.408  10.180
47765SOL     OW45126   2.117  11.009  11.074
47765SOL    HW145127   2.206  11.010  11.040
47765SOL    HW245128   2.113  11.082  11.135
47766SOL     OW45129   0.682   3.126   8.455
47766SOL    HW145130   0.694   3.065   8.528
47766SOL    HW245131   0.727   3.085   8.381
47767SOL     OW45132   8.039  12.381   8.201
47767SOL    HW145133   8.050  12.353   8.292
47767SOL    HW245134   7.996  12.466   8.207
47768SOL     OW45135  13.587   6.585  11.111
47768SOL    HW145136  13.527   6.582  11.185
47768SOL    HW245137  13.674   6.578  11.150
47769SOL     OW45138  11.275   7.293   9.115
47769SOL    HW145139  11.289   7.260   9.204
47769SOL    HW245140  11.290   7.218   9.058
47770SOL     OW45141   3.241  10.550  14.535
47770SOL    HW145142   3.272  10.566  14.446
47770SOL    HW245143   3.162  10.498  14.524
47771SOL     OW45144  13.080   3.523   3.770
47771SOL    HW145145  13.150   3.572   3.813
47771SOL    HW245146  13.037   3.476   3.842
47772SOL     OW45147  11.652   2.009  11.702
47772SOL    HW145148  11.557   2.005  11.692
47772SOL    HW245149  11.667   2.077  11.767
47773SOL     OW45150   7.368  11.134  10.565
47773SOL    HW145151   7.348  11.228  10.573
47773SOL    HW245152   7.416  11.127  10.483
47774SOL     OW45153   9.718   5.673   2.429
47774SOL    HW145154   9.762   5.758   2.435
47774SOL    HW245155   9.708   5.657   2.335
47775SOL     OW45156  13.137   8.514   4.373
47775SOL    HW145157  13.080   8.528   4.297
47775SOL    HW245158  13.217   8.562   4.353
47776SOL     OW45159   3.706  12.145   4.363
47776SOL    HW145160   3.795  12.150   4.400
47776SOL    HW245161   3.717  12.176   4.273
47777SOL     OW45162   0.029  14.507  12.012
47777SOL    HW145163   0.015  14.421  12.050
47777SOL    HW245164   0.124  14.520  12.018
47778SOL     OW45165   5.558   4.073   4.032
47778SOL    HW145166   5.567   4.146   4.093
47778SOL    HW245167   5.617   4.094   3.960
47779SOL     OW45168   3.564   2.646   0.697
47779SOL    HW145169   3.621   2.643   0.774
47779SOL    HW245170   3.546   2.555   0.676
47780SOL     OW45171  13.619  11.136  12.793
47780SOL    HW145172  13.584  11.053  12.760
47780SOL    HW245173  13.541  11.186  12.820
47781SOL     OW45174   7.760  11.818  11.042
47781SOL    HW145175   7.789  11.819  10.951
47781SOL    HW245176   7.834  11.854  11.091
47782SOL     OW45177   9.359  11.469   6.230
47782SOL    HW145178   9.311  11.545   6.197
47782SOL    HW245179   9.392  11.497   6.316
47783SOL     OW45180   6.424   0.784   4.128
47783SOL    HW145181   6.518   0.777   4.110
47783SOL    HW245182   6.419   0.841   4.204
47784SOL     OW45183   8.089   8.540  12.729
47784SOL    HW145184   8.076   8.618  12.783
47784SOL    HW245185   8.050   8.469  12.780
47785SOL     OW45186  13.119   9.217   4.558
47785SOL    HW145187  13.211   9.192   4.542
47785SOL    HW245188  13.097   9.274   4.484
47786SOL     OW45189   8.256  14.377  11.757
47786SOL    HW145190   8.212  14.292  11.758
47786SOL    HW245191   8.344  14.359  11.725
47787SOL     OW45192  14.566   3.439   8.426
47787SOL    HW145193  14.546   3.456   8.335
47787SOL    HW245194  14.482   3.421   8.468
47788SOL     OW45195   9.266  13.055  13.502
47788SOL    HW145196   9.187  13.017  13.540
47788SOL    HW245197   9.263  13.148  13.527
47789SOL     OW45198   5.073  11.572   6.988
47789SOL    HW145199   5.131  11.515   6.937
47789SOL    HW245200   5.000  11.516   7.012
47790SOL     OW45201  14.405   4.356   2.275
47790SOL    HW145202  14.426   4.420   2.343
47790SOL    HW245203  14.348   4.404   2.215
47791SOL     OW45204   3.350   0.371   3.077
47791SOL    HW145205   3.422   0.384   3.014
47791SOL    HW245206   3.272   0.397   3.030
47792SOL     OW45207   5.225   4.447   2.513
47792SOL    HW145208   5.188   4.362   2.487
47792SOL    HW245209   5.215   4.502   2.435
47793SOL     OW45210   1.310   5.121   9.119
47793SOL    HW145211   1.344   5.073   9.194
47793SOL    HW245212   1.233   5.168   9.153
47794SOL     OW45213  14.430  13.485   7.769
47794SOL    HW145214  14.336  13.482   7.748
47794SOL    HW245215  14.442  13.416   7.835
47795SOL     OW45216   9.118   9.989   0.036
47795SOL    HW145217   9.063  10.066   0.038
47795SOL    HW245218   9.063   9.922  14.871
47796SOL     OW45219   9.199   5.282   0.770
47796SOL    HW145220   9.107   5.307   0.777
47796SOL    HW245221   9.247   5.364   0.786
47797SOL     OW45222  12.597  12.852   5.758
47797SOL    HW145223  12.671  12.863   5.817
47797SOL    HW245224  12.537  12.793   5.805
47798SOL     OW45225   8.703   2.562   2.728
47798SOL    HW145226   8.728   2.584   2.638
47798SOL    HW245227   8.749   2.479   2.746
47799SOL     OW45228   6.545   8.152  12.897
47799SOL    HW145229   6.609   8.084  12.921
47799SOL    HW245230   6.595   8.233  12.898
47800SOL     OW45231  11.382   1.479   4.904
47800SOL    HW145232  11.368   1.518   4.818
47800SOL    HW245233  11.306   1.422   4.917
47801SOL     OW45234   6.677   7.493   7.319
47801SOL    HW145235   6.757   7.441   7.324
47801SOL    HW245236   6.647   7.499   7.410
47802SOL     OW45237  12.962   3.043   2.963
47802SOL    HW145238  12.935   3.073   3.050
47802SOL    HW245239  12.889   3.068   2.906
47803SOL     OW45240   4.923   5.930   5.509
47803SOL    HW145241   4.850   5.989   5.493
47803SOL    HW245242   4.890   5.843   5.489
47804SOL     OW45243  13.182   2.150  10.124
47804SOL    HW145244  13.177   2.207  10.047
47804SOL    HW245245  13.254   2.090  10.104
47805SOL     OW45246  13.312   4.051  11.829
47805SOL    HW145247  13.347   4.131  11.868
47805SOL    HW245248  13.224   4.044  11.864
47806SOL     OW45249  12.950  11.044   1.701
47806SOL    HW145250  12.855  11.045   1.707
47806SOL    HW245251  12.979  11.119   1.752
47807SOL     OW45252   2.109  13.952   7.630
47807SOL    HW145253   2.126  13.967   7.537
47807SOL    HW245254   2.105  14.039   7.668
47808SOL     OW45255  13.172   5.673   8.196
47808SOL    HW145256  13.225   5.735   8.247
47808SOL    HW245257  13.135   5.615   8.262
47809SOL     OW45258  10.249   7.490   8.149
47809SOL    HW145259  10.155   7.478   8.131
47809SOL    HW245260  10.285   7.520   8.066
47810SOL     OW45261  11.300  13.217  13.309
47810SOL    HW145262  11.351  13.273  13.368
47810SOL    HW245263  11.267  13.277  13.242
47811SOL     OW45264  13.152   6.783   4.152
47811SOL    HW145265  13.112   6.866   4.177
47811SOL    HW245266  13.210   6.805   4.079
47812SOL     OW45267  11.993   3.687   9.523
47812SOL    HW145268  11.935   3.710   9.450
47812SOL    HW245269  12.006   3.769   9.570
47813SOL     OW45270   6.473   6.718  14.634
47813SOL    HW145271   6.402   6.748  14.579
47813SOL    HW245272   6.500   6.635  14.596
47814SOL     OW45273   7.190   5.956   2.748
47814SOL    HW145274   7.195   6.051   2.746
47814SOL    HW245275   7.241   5.927   2.673
47815SOL     OW45276   9.851   1.699  11.623
47815SOL    HW145277   9.891   1.781  11.592
47815SOL    HW245278   9.901   1.676  11.702
47816SOL     OW45279   2.718   9.771  12.534
47816SOL    HW145280   2.716   9.819  12.452
47816SOL    HW245281   2.725   9.679  12.508
47817SOL     OW45282  11.548   9.203   0.990
47817SOL    HW145283  11.599   9.170   0.916
47817SOL    HW245284  11.473   9.145   0.996
47818SOL     OW45285   8.159   9.647   4.234
47818SOL    HW145286   8.150   9.729   4.186
47818SOL    HW245287   8.231   9.663   4.295
47819SOL     OW45288   1.176   1.182   8.244
47819SOL    HW145289   1.101   1.226   8.204
47819SOL    HW245290   1.155   1.179   8.337
47820SOL     OW45291  13.977   5.454   1.613
47820SOL    HW145292  13.912   5.423   1.550
47820SOL    HW245293  13.963   5.398   1.690
47821SOL     OW45294   9.178  13.749   7.495
47821SOL    HW145295   9.131  13.765   7.413
47821SOL    HW245296   9.268  13.778   7.477
47822SOL     OW45297  14.835   1.949   9.442
47822SOL    HW145298  14.758   1.913   9.487
47822SOL    HW245299   0.014   1.982   9.513
47823SOL     OW45300   9.339   7.560   2.864
47823SOL    HW145301   9.286   7.490   2.827
47823SOL    HW245302   9.428   7.525   2.864
47824SOL     OW45303   5.339   0.478  10.846
47824SOL    HW145304   5.402   0.550  10.847
47824SOL    HW245305   5.393   0.400  10.863
47825SOL     OW45306   2.969   9.967   6.328
47825SOL    HW145307   2.960   9.892   6.387
47825SOL    HW245308   2.898  10.026   6.353
47826SOL     OW45309  12.650   3.135   4.566
47826SOL    HW145310  12.645   3.127   4.661
47826SOL    HW245311  12.744   3.131   4.546
47827SOL     OW45312  13.470  10.676  12.096
47827SOL    HW145313  13.498  10.617  12.026
47827SOL    HW245314  13.446  10.618  12.168
47828SOL     OW45315   4.320  11.898   3.239
47828SOL    HW145316   4.331  11.823   3.180
47828SOL    HW245317   4.405  11.942   3.238
47829SOL     OW45318   4.055   6.930   9.273
47829SOL    HW145319   4.047   6.998   9.206
47829SOL    HW245320   3.971   6.885   9.273
47830SOL     OW45321   7.532   4.810  11.124
47830SOL    HW145322   7.546   4.730  11.175
47830SOL    HW245323   7.618   4.832  11.089
47831SOL     OW45324   1.991  13.454   9.016
47831SOL    HW145325   2.075  13.411   9.036
47831SOL    HW245326   2.014  13.524   8.955
47832SOL     OW45327   6.052   8.001  13.148
47832SOL    HW145328   5.995   7.955  13.086
47832SOL    HW245329   6.012   8.088  13.157
47833SOL     OW45330   8.417  11.951   3.551
47833SOL    HW145331   8.453  11.983   3.634
47833SOL    HW245332   8.492  11.913   3.506
47834SOL     OW45333  13.620  11.777   9.076
47834SOL    HW145334  13.576  11.697   9.047
47834SOL    HW245335  13.707  11.749   9.104
47835SOL     OW45336   2.576  10.257  14.694
47835SOL    HW145337   2.553  10.166  14.675
47835SOL    HW245338   2.496  10.306  14.675
47836SOL     OW45339  12.645  14.587   9.680
47836SOL    HW145340  12.684  14.674   9.677
47836SOL    HW245341  12.715  14.530   9.711
47837SOL     OW45342  12.805   2.046   2.807
47837SOL    HW145343  12.721   2.022   2.845
47837SOL    HW245344  12.782   2.101   2.732
47838SOL     OW45345   3.208   9.221  12.161
47838SOL    HW145346   3.246   9.184  12.081
47838SOL    HW245347   3.117   9.238  12.138
47839SOL     OW45348   8.626   3.148   6.945
47839SOL    HW145349   8.707   3.198   6.929
47839SOL    HW245350   8.616   3.148   7.040
47840SOL     OW45351   8.263  11.919  10.624
47840SOL    HW145352   8.188  11.977  10.618
47840SOL    HW245353   8.329  11.958  10.567
47841SOL     OW45354  14.002  12.691  10.845
47841SOL    HW145355  14.094  12.666  10.853
47841SOL    HW245356  14.004  12.784  10.825
47842SOL     OW45357   7.630   8.490  10.370
47842SOL    HW145358   7.642   8.421  10.305
47842SOL    HW245359   7.621   8.570  10.318
47843SOL     OW45360  12.631  13.101   9.345
47843SOL    HW145361  12.550  13.077   9.301
47843SOL    HW245362  12.690  13.026   9.331
47844SOL     OW45363   0.719  10.361   1.280
47844SOL    HW145364   0.626  10.340   1.289
47844SOL    HW245365   0.748  10.375   1.370
47845SOL     OW45366  13.800   6.928   4.003
47845SOL    HW145367  13.801   6.947   4.097
47845SOL    HW245368  13.728   6.981   3.968
47846SOL     OW45369  14.195  11.450  11.927
47846SOL    HW145370  14.190  11.491  12.013
47846SOL    HW245371  14.119  11.392  11.924
47847SOL     OW45372   2.283  11.987   2.446
47847SOL    HW145373   2.215  12.054   2.442
47847SOL    HW245374   2.327  12.002   2.530
47848SOL     OW45375   9.109   1.233  12.499
47848SOL    HW145376   9.195   1.201  12.526
47848SOL    HW245377   9.070   1.268  12.579
47849SOL     OW45378   8.089  13.017  11.999
47849SOL    HW145379   8.170  12.993  11.953
47849SOL    HW245380   8.106  12.992  12.090
47850SOL     OW45381  10.297   0.491   7.281
47850SOL    HW145382  10.255   0.405   7.277
47850SOL    HW245383  10.355   0.492   7.205
47851SOL     OW45384  13.369   1.696   6.851
47851SOL    HW145385  13.418   1.634   6.905
47851SOL    HW245386  13.390   1.671   6.761
47852SOL     OW45387  13.658  13.998   1.092
47852SOL    HW145388  13.658  13.989   0.997
47852SOL    HW245389  13.683  14.089   1.108
47853SOL     OW45390   3.588   2.651   5.449
47853SOL    HW145391   3.592   2.563   5.412
47853SOL    HW245392   3.590   2.637   5.544
47854SOL     OW45393   7.586  10.502   5.408
47854SOL    HW145394   7.549  10.583   5.374
47854SOL    HW245395   7.537  10.432   5.364
47855SOL     OW45396  11.247  13.638  10.862
47855SOL    HW145397  11.337  13.638  10.829
47855SOL    HW245398  11.217  13.728  10.845
47856SOL     OW45399  11.864   4.350   6.330
47856SOL    HW145400  11.852   4.372   6.422
47856SOL    HW245401  11.776   4.333   6.297
47857SOL     OW45402   9.933   4.204  14.296
47857SOL    HW145403  10.007   4.232  14.350
47857SOL    HW245404   9.944   4.250  14.213
47858SOL     OW45405  13.646   1.340  14.619
47858SOL    HW145406  13.739   1.318  14.607
47858SOL    HW245407  13.605   1.317  14.536
47859SOL     OW45408   5.803   1.113   7.854
47859SOL    HW145409   5.816   1.204   7.825
47859SOL    HW245410   5.883   1.092   7.903
47860SOL     OW45411   9.644  14.675   9.837
47860SOL    HW145412   9.700  14.656   9.912
47860SOL    HW245413   9.555  14.675   9.873
47861SOL     OW45414   3.575   5.212   1.641
47861SOL    HW145415   3.671   5.217   1.645
47861SOL    HW245416   3.544   5.284   1.697
47862SOL     OW45417   8.428   3.119   7.611
47862SOL    HW145418   8.442   3.212   7.592
47862SOL    HW245419   8.504   3.094   7.665
47863SOL     OW45420  10.406  13.536   9.357
47863SOL    HW145421  10.394  13.491   9.440
47863SOL    HW245422  10.424  13.466   9.294
47864SOL     OW45423   7.514  12.225  12.001
47864SOL    HW145424   7.508  12.315  11.970
47864SOL    HW245425   7.424  12.203  12.026
47865SOL     OW45426  13.185   6.133   3.776
47865SOL    HW145427  13.228   6.167   3.697
47865SOL    HW245428  13.149   6.049   3.749
47866SOL     OW45429  11.097  10.027  12.440
47866SOL    HW145430  11.004  10.007  12.432
47866SOL    HW245431  11.136   9.946  12.473
47867SOL     OW45432  11.034  13.102   0.753
47867SOL    HW145433  10.973  13.036   0.785
47867SOL    HW245434  10.993  13.137   0.674
47868SOL     OW45435  12.913  11.469   1.674
47868SOL    HW145436  12.968  11.412   1.728
47868SOL    HW245437  12.865  11.523   1.737
47869SOL     OW45438   2.094  12.089   8.841
47869SOL    HW145439   2.055  12.015   8.890
47869SOL    HW245440   2.183  12.060   8.822
47870SOL     OW45441   7.581   0.627   6.126
47870SOL    HW145442   7.655   0.617   6.067
47870SOL    HW245443   7.522   0.555   6.104
47871SOL     OW45444   1.387   9.577   6.203
47871SOL    HW145445   1.305   9.616   6.232
47871SOL    HW245446   1.393   9.599   6.110
47872SOL     OW45447   5.478  13.511  13.117
47872SOL    HW145448   5.390  13.478  13.133
47872SOL    HW245449   5.534  13.460  13.175
47873SOL     OW45450  11.917   6.109   4.300
47873SOL    HW145451  11.833   6.087   4.260
47873SOL    HW245452  11.965   6.026   4.301
47874SOL     OW45453  13.797  13.406   1.465
47874SOL    HW145454  13.884  13.436   1.488
47874SOL    HW245455  13.805  13.374   1.375
47875SOL     OW45456   8.761   7.822   9.856
47875SOL    HW145457   8.827   7.753   9.859
47875SOL    HW245458   8.679   7.778   9.878
47876SOL     OW45459   3.221   3.435   4.841
47876SOL    HW145460   3.263   3.521   4.844
47876SOL    HW245461   3.130   3.454   4.817
47877SOL     OW45462  14.519   8.014  12.765
47877SOL    HW145463  14.563   7.939  12.806
47877SOL    HW245464  14.440   7.977  12.726
47878SOL     OW45465   0.798  13.197   6.854
47878SOL    HW145466   0.819  13.164   6.767
47878SOL    HW245467   0.863  13.266   6.870
47879SOL     OW45468  13.587   6.462  11.636
47879SOL    HW145469  13.516   6.469  11.700
47879SOL    HW245470  13.546   6.425  11.558
47880SOL     OW45471  11.125  14.771   1.521
47880SOL    HW145472  11.185  14.702   1.493
47880SOL    HW245473  11.039  14.727   1.524
47881SOL     OW45474   4.948  11.924   1.310
47881SOL    HW145475   4.863  11.959   1.337
47881SOL    HW245476   4.935  11.829   1.309
47882SOL     OW45477   4.781   0.629   4.544
47882SOL    HW145478   4.759   0.655   4.633
47882SOL    HW245479   4.706   0.577   4.515
47883SOL     OW45480   9.004   2.993   1.532
47883SOL    HW145481   8.972   2.905   1.511
47883SOL    HW245482   8.925   3.043   1.554
47884SOL     OW45483   4.507   3.084   1.205
47884SOL    HW145484   4.519   3.083   1.300
47884SOL    HW245485   4.413   3.071   1.193
47885SOL     OW45486   6.287   2.251  12.654
47885SOL    HW145487   6.356   2.204  12.608
47885SOL    HW245488   6.217   2.261  12.590
47886SOL     OW45489  11.615   9.137  12.901
47886SOL    HW145490  11.548   9.185  12.950
47886SOL    HW245491  11.570   9.057  12.873
47887SOL     OW45492  14.794   9.868   2.916
47887SOL    HW145493  14.709   9.897   2.882
47887SOL    HW245494  14.774   9.797   2.976
47888SOL     OW45495   0.735   3.597   8.225
47888SOL    HW145496   0.795   3.573   8.154
47888SOL    HW245497   0.687   3.517   8.244
47889SOL     OW45498   0.249   2.357   3.951
47889SOL    HW145499   0.322   2.363   3.890
47889SOL    HW245500   0.180   2.313   3.901
47890SOL     OW45501   2.303   8.300   2.244
47890SOL    HW145502   2.265   8.238   2.307
47890SOL    HW245503   2.235   8.314   2.179
47891SOL     OW45504  10.138  12.912   2.410
47891SOL    HW145505  10.101  12.971   2.476
47891SOL    HW245506  10.067  12.898   2.348
47892SOL     OW45507   2.313   5.974   4.842
47892SOL    HW145508   2.317   6.041   4.910
47892SOL    HW245509   2.349   6.018   4.764
47893SOL     OW45510   7.527   8.494   2.580
47893SOL    HW145511   7.514   8.586   2.603
47893SOL    HW245512   7.443   8.453   2.595
47894SOL     OW45513   3.314  12.157   7.261
47894SOL    HW145514   3.393  12.204   7.233
47894SOL    HW245515   3.347  12.077   7.302
47895SOL     OW45516   1.610   6.977   3.656
47895SOL    HW145517   1.534   6.925   3.627
47895SOL    HW245518   1.658   6.995   3.575
47896SOL     OW45519   4.847   3.111   2.106
47896SOL    HW145520   4.845   3.032   2.161
47896SOL    HW245521   4.760   3.116   2.067
47897SOL     OW45522   8.831   5.267   0.427
47897SOL    HW145523   8.804   5.335   0.366
47897SOL    HW245524   8.756   5.208   0.433
47898SOL     OW45525   4.133  11.340   6.026
47898SOL    HW145526   4.052  11.309   5.987
47898SOL    HW245527   4.128  11.312   6.118
47899SOL     OW45528   8.607  11.191   6.429
47899SOL    HW145529   8.697  11.207   6.460
47899SOL    HW245530   8.618  11.161   6.339
47900SOL     OW45531   7.920   0.305  13.749
47900SOL    HW145532   7.907   0.400  13.745
47900SOL    HW245533   7.843   0.273  13.797
47901SOL     OW45534  10.709   7.918   4.303
47901SOL    HW145535  10.756   7.876   4.232
47901SOL    HW245536  10.773   7.927   4.374
47902SOL     OW45537   5.759   6.052  13.295
47902SOL    HW145538   5.838   6.023  13.249
47902SOL    HW245539   5.754   6.146  13.279
47903SOL     OW45540   7.120   1.455   5.237
47903SOL    HW145541   7.204   1.499   5.228
47903SOL    HW245542   7.077   1.466   5.151
47904SOL     OW45543   0.400   7.662   7.703
47904SOL    HW145544   0.428   7.705   7.785
47904SOL    HW245545   0.404   7.569   7.722
47905SOL     OW45546   2.618  11.196   9.083
47905SOL    HW145547   2.538  11.235   9.119
47905SOL    HW245548   2.631  11.116   9.134
47906SOL     OW45549  11.854   1.678   0.334
47906SOL    HW145550  11.832   1.592   0.369
47906SOL    HW245551  11.941   1.667   0.295
47907SOL     OW45552  12.319  11.755  10.035
47907SOL    HW145553  12.286  11.744   9.945
47907SOL    HW245554  12.344  11.667  10.062
47908SOL     OW45555   0.739   3.511   1.609
47908SOL    HW145556   0.738   3.518   1.705
47908SOL    HW245557   0.740   3.601   1.578
47909SOL     OW45558   1.840   8.914   4.998
47909SOL    HW145559   1.879   8.991   4.957
47909SOL    HW245560   1.746   8.921   4.979
47910SOL     OW45561  10.087   8.733   6.629
47910SOL    HW145562  10.053   8.644   6.616
47910SOL    HW245563  10.032   8.788   6.573
47911SOL     OW45564   5.310   1.303  14.055
47911SOL    HW145565   5.338   1.292  14.146
47911SOL    HW245566   5.306   1.397  14.042
47912SOL     OW45567   9.148  14.109  12.158
47912SOL    HW145568   9.169  14.081  12.069
47912SOL    HW245569   9.211  14.179  12.177
47913SOL     OW45570   6.437   1.154   7.679
47913SOL    HW145571   6.520   1.160   7.633
47913SOL    HW245572   6.371   1.180   7.615
47914SOL     OW45573  12.088   6.292   0.979
47914SOL    HW145574  12.042   6.212   0.953
47914SOL    HW245575  12.018   6.356   0.993
47915SOL     OW45576   4.100  14.809  11.046
47915SOL    HW145577   4.105   0.028  11.040
47915SOL    HW245578   4.015  14.787  11.007
47916SOL     OW45579  13.422  14.341  10.657
47916SOL    HW145580  13.516  14.323  10.662
47916SOL    HW245581  13.391  14.333  10.747
47917SOL     OW45582   7.933   9.052  13.664
47917SOL    HW145583   7.918   9.147  13.658
47917SOL    HW245584   7.975   9.030  13.581
47918SOL     OW45585  11.620   7.783  13.759
47918SOL    HW145586  11.529   7.775  13.786
47918SOL    HW245587  11.640   7.700  13.717
47919SOL     OW45588   6.434  12.315   6.453
47919SOL    HW145589   6.522  12.283   6.430
47919SOL    HW245590   6.385  12.236   6.476
47920SOL     OW45591  12.188   7.581   2.328
47920SOL    HW145592  12.277   7.557   2.352
47920SOL    HW245593  12.137   7.501   2.341
47921SOL     OW45594   6.627   8.112  14.488
47921SOL    HW145595   6.649   8.030  14.533
47921SOL    HW245596   6.698   8.171  14.510
47922SOL     OW45597  10.062  10.337   6.102
47922SOL    HW145598  10.011  10.300   6.030
47922SOL    HW245599   9.999  10.391   6.150
47923SOL     OW45600   5.426   1.522  10.006
47923SOL    HW145601   5.461   1.451  10.059
47923SOL    HW245602   5.454   1.602  10.051
47924SOL     OW45603   8.000   3.670  13.149
47924SOL    HW145604   8.053   3.678  13.228
47924SOL    HW245605   8.045   3.604  13.096
47925SOL     OW45606   3.745   7.459   1.571
47925SOL    HW145607   3.667   7.511   1.594
47925SOL    HW245608   3.718   7.368   1.587
47926SOL     OW45609   6.828   6.934   7.513
47926SOL    HW145610   6.832   6.939   7.609
47926SOL    HW245611   6.765   6.865   7.495
47927SOL     OW45612   2.522   5.890   7.799
47927SOL    HW145613   2.431   5.860   7.790
47927SOL    HW245614   2.516   5.985   7.800
47928SOL     OW45615   4.035   6.303   8.388
47928SOL    HW145616   3.995   6.341   8.466
47928SOL    HW245617   4.117   6.266   8.419
47929SOL     OW45618   9.914   4.427   7.683
47929SOL    HW145619   9.865   4.346   7.698
47929SOL    HW245620   9.902   4.477   7.764
47930SOL     OW45621  13.486   9.305   8.087
47930SOL    HW145622  13.581   9.311   8.078
47930SOL    HW245623  13.452   9.348   8.008
47931SOL     OW45624   6.809  14.508   1.212
47931SOL    HW145625   6.758  14.486   1.134
47931SOL    HW245626   6.873  14.437   1.220
47932SOL     OW45627  12.704   0.686  11.297
47932SOL    HW145628  12.698   0.639  11.380
47932SOL    HW245629  12.619   0.730  11.288
47933SOL     OW45630  11.860   1.526   3.014
47933SOL    HW145631  11.834   1.436   2.995
47933SOL    HW245632  11.951   1.519   3.042
47934SOL     OW45633  10.943   6.010   9.772
47934SOL    HW145634  11.034   6.039   9.775
47934SOL    HW245635  10.899   6.060   9.841
47935SOL     OW45636   2.989   4.936  12.654
47935SOL    HW145637   3.032   4.855  12.626
47935SOL    HW245638   3.039   5.006  12.613
47936SOL     OW45639  11.259  14.469   1.602
47936SOL    HW145640  11.242  14.375   1.613
47936SOL    HW245641  11.280  14.500   1.690
47937SOL     OW45642  12.053  14.858  13.379
47937SOL    HW145643  12.105  14.804  13.439
47937SOL    HW245644  12.053   0.069  13.419
47938SOL     OW45645   0.113  10.876   4.595
47938SOL    HW145646   0.184  10.935   4.618
47938SOL    HW245647   0.157  10.796   4.565
47939SOL     OW45648  13.858   1.260   3.115
47939SOL    HW145649  13.806   1.331   3.078
47939SOL    HW245650  13.863   1.280   3.208
47940SOL     OW45651  13.845   0.880   9.541
47940SOL    HW145652  13.851   0.954   9.480
47940SOL    HW245653  13.856   0.919   9.628
47941SOL     OW45654  10.311   2.716   2.906
47941SOL    HW145655  10.246   2.646   2.900
47941SOL    HW245656  10.344   2.710   2.996
47942SOL     OW45657  11.867   9.009   3.301
47942SOL    HW145658  11.844   8.987   3.211
47942SOL    HW245659  11.925   9.085   3.293
47943SOL     OW45660   9.057   2.348   5.004
47943SOL    HW145661   9.002   2.410   4.956
47943SOL    HW245662   9.002   2.269   5.010
47944SOL     OW45663  10.155  12.873   5.662
47944SOL    HW145664  10.067  12.902   5.640
47944SOL    HW245665  10.202  12.954   5.684
47945SOL     OW45666  11.685  11.974  12.672
47945SOL    HW145667  11.748  12.023  12.725
47945SOL    HW245668  11.700  12.005  12.583
47946SOL     OW45669   2.125   9.921  12.053
47946SOL    HW145670   2.044   9.921  12.003
47946SOL    HW245671   2.119   9.844  12.109
47947SOL     OW45672   6.679  13.008   4.365
47947SOL    HW145673   6.622  12.948   4.413
47947SOL    HW245674   6.621  13.051   4.302
47948SOL     OW45675   6.360   2.595   0.435
47948SOL    HW145676   6.441   2.638   0.462
47948SOL    HW245677   6.330   2.549   0.513
47949SOL     OW45678   7.227   7.954   7.884
47949SOL    HW145679   7.143   7.914   7.861
47949SOL    HW245680   7.268   7.972   7.800
47950SOL     OW45681   2.685   5.627   1.365
47950SOL    HW145682   2.641   5.705   1.399
47950SOL    HW245683   2.647   5.555   1.415
47951SOL     OW45684   4.509   2.018   8.613
47951SOL    HW145685   4.533   2.040   8.523
47951SOL    HW245686   4.560   1.940   8.633
47952SOL     OW45687   6.683   7.238  10.357
47952SOL    HW145688   6.643   7.215  10.273
47952SOL    HW245689   6.610   7.241  10.419
47953SOL     OW45690   3.861   6.945   5.999
47953SOL    HW145691   3.872   7.009   5.928
47953SOL    HW245692   3.864   6.860   5.955
47954SOL     OW45693   6.128   3.922   5.585
47954SOL    HW145694   6.069   3.864   5.633
47954SOL    HW245695   6.106   4.010   5.617
47955SOL     OW45696   0.956  12.511  13.392
47955SOL    HW145697   1.003  12.437  13.355
47955SOL    HW245698   1.020  12.556  13.447
47956SOL     OW45699   5.661  11.060   1.942
47956SOL    HW145700   5.595  11.126   1.963
47956SOL    HW245701   5.744  11.106   1.947
47957SOL     OW45702   4.970   6.981   1.780
47957SOL    HW145703   5.000   6.968   1.690
47957SOL    HW245704   4.948   6.893   1.810
47958SOL     OW45705   7.756   0.197  14.830
47958SOL    HW145706   7.741   0.272   0.012
47958SOL    HW245707   7.668   0.160  14.818
47959SOL     OW45708  12.876   2.555   7.452
47959SOL    HW145709  12.937   2.522   7.386
47959SOL    HW245710  12.869   2.483   7.515
47960SOL     OW45711   6.413   0.930  10.299
47960SOL    HW145712   6.405   0.835  10.287
47960SOL    HW245713   6.400   0.944  10.393
47961SOL     OW45714  10.505   0.006   0.410
47961SOL    HW145715  10.440  14.813   0.426
47961SOL    HW245716  10.549   0.017   0.495
47962SOL     OW45717  14.282   0.165  12.129
47962SOL    HW145718  14.291   0.237  12.067
47962SOL    HW245719  14.371   0.150  12.162
47963SOL     OW45720   5.954   9.202   2.425
47963SOL    HW145721   5.972   9.265   2.355
47963SOL    HW245722   5.991   9.120   2.393
47964SOL     OW45723  12.723   5.985   5.485
47964SOL    HW145724  12.744   6.078   5.489
47964SOL    HW245725  12.802   5.941   5.517
47965SOL     OW45726  13.769  12.943   5.307
47965SOL    HW145727  13.689  12.901   5.277
47965SOL    HW245728  13.755  13.036   5.290
47966SOL     OW45729  10.215  14.148  13.104
47966SOL    HW145730  10.137  14.093  13.113
47966SOL    HW245731  10.187  14.234  13.135
47967SOL     OW45732   9.953   2.014  12.808
47967SOL    HW145733   9.916   1.932  12.777
47967SOL    HW245734   9.879   2.061  12.847
47968SOL     OW45735   0.780   7.189  12.216
47968SOL    HW145736   0.703   7.186  12.272
47968SOL    HW245737   0.801   7.282  12.209
47969SOL     OW45738   6.280   9.848   7.869
47969SOL    HW145739   6.261   9.909   7.941
47969SOL    HW245740   6.367   9.814   7.889
47970SOL     OW45741   9.195   4.741   7.657
47970SOL    HW145742   9.228   4.660   7.698
47970SOL    HW245743   9.201   4.806   7.726
47971SOL     OW45744  12.459   9.569   0.847
47971SOL    HW145745  12.506   9.487   0.861
47971SOL    HW245746  12.452   9.577   0.752
47972SOL     OW45747  13.018  10.289   6.254
47972SOL    HW145748  12.995  10.305   6.345
47972SOL    HW245749  13.020  10.193   6.246
47973SOL     OW45750  13.904   4.684   7.311
47973SOL    HW145751  13.934   4.714   7.397
47973SOL    HW245752  13.808   4.692   7.315
47974SOL     OW45753   0.709   1.622  10.960
47974SOL    HW145754   0.624   1.617  11.004
47974SOL    HW245755   0.719   1.715  10.939
47975SOL     OW45756  10.012  12.299   0.085
47975SOL    HW145757   9.933  12.343   0.054
47975SOL    HW245758  10.041  12.352   0.160
47976SOL     OW45759  12.308   0.924   4.114
47976SOL    HW145760  12.394   0.956   4.139
47976SOL    HW245761  12.269   0.895   4.197
47977SOL     OW45762  12.249   6.658   8.810
47977SOL    HW145763  12.296   6.575   8.820
47977SOL    HW245764  12.228   6.685   8.900
47978SOL     OW45765   8.670  12.148  14.434
47978SOL    HW145766   8.706  12.211  14.496
47978SOL    HW245767   8.659  12.068  14.485
47979SOL     OW45768  14.689  14.838   2.213
47979SOL    HW145769  14.686  14.814   2.120
47979SOL    HW245770  14.685   0.058   2.214
47980SOL     OW45771   6.181   5.856  11.350
47980SOL    HW145772   6.256   5.876  11.405
47980SOL    HW245773   6.179   5.760  11.345
47981SOL     OW45774   6.378  14.276   3.509
47981SOL    HW145775   6.407  14.359   3.471
47981SOL    HW245776   6.377  14.292   3.603
47982SOL     OW45777   1.985  11.595   3.322
47982SOL    HW145778   2.037  11.566   3.247
47982SOL    HW245779   2.043  11.584   3.397
47983SOL     OW45780  13.009  14.583  10.388
47983SOL    HW145781  13.049  14.505  10.350
47983SOL    HW245782  13.000  14.643  10.314
47984SOL     OW45783  11.908   7.287   1.178
47984SOL    HW145784  11.896   7.192   1.182
47984SOL    HW245785  11.824   7.323   1.208
47985SOL     OW45786  14.847   5.602   6.315
47985SOL    HW145787  14.804   5.653   6.384
47985SOL    HW245788   0.064   5.601   6.341
47986SOL     OW45789  14.666   8.416   6.470
47986SOL    HW145790  14.728   8.346   6.454
47986SOL    HW245791  14.669   8.430   6.565
47987SOL     OW45792   5.434   0.262  12.072
47987SOL    HW145793   5.437   0.335  12.011
47987SOL    HW245794   5.401   0.300  12.154
47988SOL     OW45795   0.004  13.211   2.250
47988SOL    HW145796  14.859  13.125   2.214
47988SOL    HW245797   0.099  13.218   2.243
47989SOL     OW45798  14.006  13.144   5.162
47989SOL    HW145799  14.029  13.166   5.252
47989SOL    HW245800  14.054  13.063   5.145
47990SOL     OW45801   2.694   2.092   3.754
47990SOL    HW145802   2.694   1.997   3.763
47990SOL    HW245803   2.634   2.109   3.681
47991SOL     OW45804   6.853   1.242  10.397
47991SOL    HW145805   6.885   1.153  10.384
47991SOL    HW245806   6.814   1.266  10.313
47992SOL     OW45807  14.584  13.914   3.701
47992SOL    HW145808  14.525  13.954   3.637
47992SOL    HW245809  14.562  13.955   3.784
47993SOL     OW45810   2.388  12.368   0.642
47993SOL    HW145811   2.482  12.352   0.652
47993SOL    HW245812   2.348  12.332   0.721
47994SOL     OW45813   0.986  10.226   1.505
47994SOL    HW145814   0.967  10.257   1.593
47994SOL    HW245815   0.929  10.280   1.449
47995SOL     OW45816  13.064  12.185   5.248
47995SOL    HW145817  13.093  12.276   5.238
47995SOL    HW245818  12.974  12.185   5.218
47996SOL     OW45819  11.897   8.329   4.216
47996SOL    HW145820  11.897   8.290   4.303
47996SOL    HW245821  11.958   8.403   4.223
47997SOL     OW45822  13.106   1.865  10.484
47997SOL    HW145823  13.089   1.941  10.428
47997SOL    HW245824  13.032   1.807  10.468
47998SOL     OW45825   3.862   8.634  11.593
47998SOL    HW145826   3.952   8.637  11.627
47998SOL    HW245827   3.873   8.633  11.498
47999SOL     OW45828  10.438  11.868   8.991
47999SOL    HW145829  10.500  11.936   8.968
47999SOL    HW245830  10.396  11.899   9.071
48000SOL     OW45831   8.973  11.369   9.772
48000SOL    HW145832   8.989  11.355   9.679
48000SOL    HW245833   9.025  11.301   9.816
48001SOL     OW45834   6.482   7.041  12.270
48001SOL    HW145835   6.561   7.059  12.220
48001SOL    HW245836   6.438   7.126  12.277
48002SOL     OW45837   7.170  11.841  13.304
48002SOL    HW145838   7.179  11.903  13.232
48002SOL    HW245839   7.075  11.837  13.321
48003SOL     OW45840   5.832   4.846  13.162
48003SOL    HW145841   5.922   4.815  13.177
48003SOL    HW245842   5.825   4.924  13.217
48004SOL     OW45843  12.435   1.129   2.853
48004SOL    HW145844  12.452   1.036   2.840
48004SOL    HW245845  12.514   1.162   2.897
48005SOL     OW45846   3.500  10.022   1.294
48005SOL    HW145847   3.584  10.052   1.259
48005SOL    HW245848   3.445  10.009   1.217
48006SOL     OW45849   4.904  10.080  14.137
48006SOL    HW145850   4.967  10.151  14.135
48006SOL    HW245851   4.916  10.034  14.054
48007SOL     OW45852   4.836   8.989   6.923
48007SOL    HW145853   4.791   8.953   7.000
48007SOL    HW245854   4.771   8.984   6.853
48008SOL     OW45855   5.103   3.285   5.518
48008SOL    HW145856   5.146   3.268   5.602
48008SOL    HW245857   5.128   3.210   5.463
48009SOL     OW45858   4.527   9.824  12.016
48009SOL    HW145859   4.510   9.842  12.109
48009SOL    HW245860   4.511   9.907  11.972
48010SOL     OW45861   6.961   1.125   9.321
48010SOL    HW145862   6.868   1.124   9.346
48010SOL    HW245863   6.978   1.037   9.288
48011SOL     OW45864  14.519  14.047   1.115
48011SOL    HW145865  14.551  14.043   1.025
48011SOL    HW245866  14.497  14.139   1.129
48012SOL     OW45867   0.295  10.467  12.210
48012SOL    HW145868   0.312  10.377  12.184
48012SOL    HW245869   0.212  10.463  12.258
48013SOL     OW45870   8.821   9.979  13.068
48013SOL    HW145871   8.885  10.027  13.120
48013SOL    HW245872   8.794  10.041  13.000
48014SOL     OW45873  13.857   2.402   7.169
48014SOL    HW145874  13.881   2.469   7.105
48014SOL    HW245875  13.838   2.325   7.117
48015SOL     OW45876   6.913  11.196  12.542
48015SOL    HW145877   6.872  11.109  12.549
48015SOL    HW245878   6.980  11.197  12.610
48016SOL     OW45879   2.517  10.857   4.690
48016SOL    HW145880   2.479  10.800   4.757
48016SOL    HW245881   2.546  10.797   4.621
48017SOL     OW45882   1.022   1.314   2.500
48017SOL    HW145883   1.085   1.373   2.459
48017SOL    HW245884   0.936   1.352   2.478
48018SOL     OW45885   3.726   9.657   9.719
48018SOL    HW145886   3.719   9.699   9.632
48018SOL    HW245887   3.820   9.647   9.733
48019SOL     OW45888  14.560  12.228   4.900
48019SOL    HW145889  14.572  12.320   4.923
48019SOL    HW245890  14.626  12.181   4.952
48020SOL     OW45891   3.971   2.709  11.594
48020SOL    HW145892   4.019   2.741  11.670
48020SOL    HW245893   3.989   2.615  11.592
48021SOL     OW45894   2.680  12.092   3.265
48021SOL    HW145895   2.725  12.148   3.202
48021SOL    HW245896   2.737  12.015   3.275
48022SOL     OW45897  14.798  12.361   6.665
48022SOL    HW145898  14.834  12.446   6.640
48022SOL    HW245899  14.718  12.353   6.613
48023SOL     OW45900   5.215   5.172   6.516
48023SOL    HW145901   5.250   5.119   6.588
48023SOL    HW245902   5.219   5.262   6.548
48024SOL     OW45903   0.611   0.621  14.104
48024SOL    HW145904   0.629   0.566  14.027
48024SOL    HW245905   0.531   0.585  14.141
48025SOL     OW45906   2.407   3.527  14.546
48025SOL    HW145907   2.332   3.507  14.490
48025SOL    HW245908   2.449   3.443  14.563
48026SOL     OW45909   7.913  13.448   2.558
48026SOL    HW145910   7.843  13.498   2.600
48026SOL    HW245911   7.994  13.485   2.594
48027SOL     OW45912   3.761   3.771   1.488
48027SOL    HW145913   3.798   3.713   1.421
48027SOL    HW245914   3.677   3.798   1.451
48028SOL     OW45915   7.476   9.348  10.939
48028SOL    HW145916   7.423   9.424  10.916
48028SOL    HW245917   7.414   9.276  10.946
48029SOL     OW45918  10.999  14.791   2.256
48029SOL    HW145919  10.998  14.800   2.160
48029SOL    HW245920  10.959  14.872   2.288
48030SOL     OW45921   5.097  13.332   9.879
48030SOL    HW145922   5.107  13.302   9.788
48030SOL    HW245923   5.065  13.422   9.871
48031SOL     OW45924   8.280  13.329  13.367
48031SOL    HW145925   8.319  13.255  13.320
48031SOL    HW245926   8.191  13.335  13.333
48032SOL     OW45927   9.843   1.222   1.865
48032SOL    HW145928   9.753   1.249   1.845
48032SOL    HW245929   9.896   1.262   1.796
48033SOL     OW45930   2.684   7.813   4.667
48033SOL    HW145931   2.740   7.772   4.732
48033SOL    HW245932   2.729   7.894   4.643
48034SOL     OW45933   1.732   4.630   1.813
48034SOL    HW145934   1.659   4.603   1.756
48034SOL    HW245935   1.717   4.582   1.894
48035SOL     OW45936  13.318  12.499   7.223
48035SOL    HW145937  13.226  12.518   7.204
48035SOL    HW245938  13.367  12.558   7.165
48036SOL     OW45939  10.866   7.254   9.685
48036SOL    HW145940  10.932   7.261   9.616
48036SOL    HW245941  10.877   7.334   9.737
48037SOL     OW45942  11.471   2.856  10.599
48037SOL    HW145943  11.422   2.813  10.669
48037SOL    HW245944  11.525   2.921  10.643
48038SOL     OW45945   3.082   0.498   4.810
48038SOL    HW145946   3.158   0.446   4.836
48038SOL    HW245947   3.056   0.461   4.725
48039SOL     OW45948   1.890   8.757   3.599
48039SOL    HW145949   1.970   8.770   3.548
48039SOL    HW245950   1.910   8.687   3.660
48040SOL     OW45951  10.343  14.586   5.352
48040SOL    HW145952  10.412  14.541   5.304
48040SOL    HW245953  10.379  14.599   5.440
48041SOL     OW45954  10.158   4.327  10.873
48041SOL    HW145955  10.243   4.365  10.897
48041SOL    HW245956  10.141   4.361  10.785
48042SOL     OW45957   7.912   6.492  11.831
48042SOL    HW145958   7.858   6.487  11.752
48042SOL    HW245959   7.926   6.401  11.856
48043SOL     OW45960   3.766   9.845   9.141
48043SOL    HW145961   3.707   9.785   9.094
48043SOL    HW245962   3.800   9.903   9.072
48044SOL     OW45963  14.801   6.403  14.503
48044SOL    HW145964  14.803   6.333  14.438
48044SOL    HW245965  14.811   6.483  14.452
48045SOL     OW45966  11.590   9.085  13.294
48045SOL    HW145967  11.680   9.118  13.295
48045SOL    HW245968  11.538   9.158  13.260
48046SOL     OW45969   0.676  11.157  10.899
48046SOL    HW145970   0.723  11.234  10.866
48046SOL    HW245971   0.592  11.159  10.854
48047SOL     OW45972  13.633   9.320   9.587
48047SOL    HW145973  13.633   9.226   9.602
48047SOL    HW245974  13.697   9.355   9.648
48048SOL     OW45975   0.112   3.155   3.972
48048SOL    HW145976   0.141   3.216   3.905
48048SOL    HW245977   0.192   3.113   4.003
48049SOL     OW45978   4.327   8.895   8.835
48049SOL    HW145979   4.271   8.913   8.910
48049SOL    HW245980   4.386   8.826   8.864
48050SOL     OW45981   5.166   4.720   7.165
48050SOL    HW145982   5.151   4.629   7.139
48050SOL    HW245983   5.251   4.719   7.208
48051SOL     OW45984   7.348  12.353   3.963
48051SOL    HW145985   7.364  12.447   3.952
48051SOL    HW245986   7.411  12.311   3.905
48052SOL     OW45987  10.473   1.561  11.778
48052SOL    HW145988  10.479   1.503  11.854
48052SOL    HW245989  10.384   1.548  11.745
48053SOL     OW45990   9.549  11.902  13.105
48053SOL    HW145991   9.555  11.809  13.081
48053SOL    HW245992   9.468  11.931  13.065
48054SOL     OW45993   9.502   0.003  11.408
48054SOL    HW145994   9.466  14.856  11.322
48054SOL    HW245995   9.592  14.846  11.405
48055SOL     OW45996   8.391   1.008   8.373
48055SOL    HW145997   8.327   0.977   8.438
48055SOL    HW245998   8.476   0.980   8.408
48056SOL     OW45999   3.587   3.804   9.304
48056SOL    HW146000   3.639   3.856   9.365
48056SOL    HW246001   3.511   3.776   9.356
48057SOL     OW46002  12.676   7.151   7.296
48057SOL    HW146003  12.648   7.134   7.386
48057SOL    HW246004  12.611   7.212   7.261
48058SOL     OW46005   9.067   4.600   8.989
48058SOL    HW146006   8.983   4.553   8.993
48058SOL    HW246007   9.130   4.533   8.962
48059SOL     OW46008   5.365   3.844   0.066
48059SOL    HW146009   5.441   3.849   0.123
48059SOL    HW246010   5.389   3.781  14.875
48060SOL     OW46011   9.887   9.998   0.385
48060SOL    HW146012   9.825  10.071   0.391
48060SOL    HW246013   9.965  10.029   0.431
48061SOL     OW46014   6.819   4.077   6.105
48061SOL    HW146015   6.897   4.061   6.052
48061SOL    HW246016   6.758   4.008   6.080
48062SOL     OW46017   9.542   9.297   3.522
48062SOL    HW146018   9.528   9.366   3.586
48062SOL    HW246019   9.634   9.271   3.533
48063SOL     OW46020   7.338  14.294   2.888
48063SOL    HW146021   7.355  14.386   2.909
48063SOL    HW246022   7.314  14.295   2.796
48064SOL     OW46023   8.946   0.840   9.104
48064SOL    HW146024   8.967   0.805   9.191
48064SOL    HW246025   8.856   0.813   9.088
48065SOL     OW46026  11.252   1.389  12.750
48065SOL    HW146027  11.285   1.320  12.809
48065SOL    HW246028  11.284   1.364  12.664
48066SOL     OW46029   0.130   7.917  11.809
48066SOL    HW146030   0.147   7.855  11.738
48066SOL    HW246031   0.042   7.949  11.792
48067SOL     OW46032   1.047   1.778   0.116
48067SOL    HW146033   1.102   1.848   0.150
48067SOL    HW246034   1.065   1.704   0.174
48068SOL     OW46035   3.557   6.479  10.236
48068SOL    HW146036   3.626   6.454  10.175
48068SOL    HW246037   3.505   6.544  10.188
48069SOL     OW46038   7.045   3.318  12.555
48069SOL    HW146039   7.041   3.223  12.541
48069SOL    HW246040   7.015   3.330  12.645
48070SOL     OW46041   9.730   3.424   5.407
48070SOL    HW146042   9.715   3.446   5.499
48070SOL    HW246043   9.792   3.489   5.376
48071SOL     OW46044   5.258  13.903   8.807
48071SOL    HW146045   5.242  13.847   8.731
48071SOL    HW246046   5.274  13.990   8.770
48072SOL     OW46047  14.036  11.911   0.640
48072SOL    HW146048  14.061  11.975   0.573
48072SOL    HW246049  13.966  11.860   0.599
48073SOL     OW46050   1.076   4.109  13.781
48073SOL    HW146051   0.996   4.062  13.763
48073SOL    HW246052   1.075   4.183  13.721
48074SOL     OW46053   1.268  12.551  11.642
48074SOL    HW146054   1.214  12.485  11.598
48074SOL    HW246055   1.347  12.556  11.589
48075SOL     OW46056   3.992   0.949  11.890
48075SOL    HW146057   4.035   0.864  11.880
48075SOL    HW246058   4.056   1.003  11.936
48076SOL     OW46059  10.159   3.597  14.046
48076SOL    HW146060  10.108   3.592  13.965
48076SOL    HW246061  10.109   3.656  14.102
48077SOL     OW46062   1.264  12.772   3.008
48077SOL    HW146063   1.241  12.855   3.050
48077SOL    HW246064   1.194  12.756   2.945
48078SOL     OW46065  10.365   9.640  11.609
48078SOL    HW146066  10.436   9.578  11.595
48078SOL    HW246067  10.336   9.624  11.698
48079SOL     OW46068   8.357   7.222  13.207
48079SOL    HW146069   8.349   7.154  13.274
48079SOL    HW246070   8.413   7.183  13.140
48080SOL     OW46071   2.695  12.057  10.839
48080SOL    HW146072   2.640  12.000  10.784
48080SOL    HW246073   2.715  12.132  10.784
48081SOL     OW46074   4.086   7.931   5.975
48081SOL    HW146075   4.173   7.932   6.015
48081SOL    HW246076   4.071   7.840   5.953
48082SOL     OW46077   4.864   9.870   1.407
48082SOL    HW146078   4.919   9.948   1.420
48082SOL    HW246079   4.922   9.808   1.363
48083SOL     OW46080  13.316   6.390  14.301
48083SOL    HW146081  13.340   6.299  14.318
48083SOL    HW246082  13.342   6.437  14.380
48084SOL     OW46083   8.986  11.117  10.754
48084SOL    HW146084   8.945  11.191  10.799
48084SOL    HW246085   8.936  11.106  10.673
48085SOL     OW46086   3.665   0.162   4.740
48085SOL    HW146087   3.677   0.233   4.803
48085SOL    HW246088   3.575   0.132   4.754
48086SOL     OW46089   9.325   0.061  12.860
48086SOL    HW146090   9.230   0.069  12.862
48086SOL    HW246091   9.348   0.024  12.945
48087SOL     OW46092   8.362   0.670  10.455
48087SOL    HW146093   8.389   0.754  10.418
48087SOL    HW246094   8.374   0.607  10.384
48088SOL     OW46095   4.646   4.998   0.594
48088SOL    HW146096   4.612   5.065   0.653
48088SOL    HW246097   4.686   4.933   0.652
48089SOL     OW46098   7.418   1.322   2.866
48089SOL    HW146099   7.380   1.390   2.921
48089SOL    HW246100   7.464   1.370   2.797
48090SOL     OW46101  12.664   7.455  13.397
48090SOL    HW146102  12.680   7.548  13.382
48090SOL    HW246103  12.577   7.439  13.360
48091SOL     OW46104  14.195   4.203   0.493
48091SOL    HW146105  14.237   4.222   0.577
48091SOL    HW246106  14.101   4.202   0.513
48092SOL     OW46107   2.381   5.087   8.792
48092SOL    HW146108   2.440   5.146   8.841
48092SOL    HW246109   2.435   5.055   8.719
48093SOL     OW46110  11.096  13.381   8.823
48093SOL    HW146111  11.043  13.364   8.745
48093SOL    HW246112  11.151  13.456   8.800
48094SOL     OW46113   9.287   8.281   8.733
48094SOL    HW146114   9.280   8.298   8.639
48094SOL    HW246115   9.377   8.251   8.745
48095SOL     OW46116  10.121   1.057  14.081
48095SOL    HW146117  10.065   1.104  14.142
48095SOL    HW246118  10.209   1.090  14.099
48096SOL     OW46119   2.572  10.290  12.027
48096SOL    HW146120   2.657  10.313  12.064
48096SOL    HW246121   2.573  10.327  11.938
48097SOL     OW46122   7.713   1.254   9.815
48097SOL    HW146123   7.724   1.179   9.874
48097SOL    HW246124   7.648   1.225   9.751
48098SOL     OW46125  10.466  10.882   1.078
48098SOL    HW146126  10.420  10.875   1.162
48098SOL    HW246127  10.559  10.878   1.101
48099SOL     OW46128   5.629   9.836   8.460
48099SOL    HW146129   5.586   9.918   8.484
48099SOL    HW246130   5.653   9.847   8.368
48100SOL     OW46131   3.875   0.068   2.767
48100SOL    HW146132   3.822   0.124   2.710
48100SOL    HW246133   3.872  14.858   2.726
48101SOL     OW46134   0.803   5.785   4.350
48101SOL    HW146135   0.862   5.751   4.417
48101SOL    HW246136   0.786   5.710   4.292
48102SOL     OW46137  11.467  11.619   3.356
48102SOL    HW146138  11.447  11.601   3.447
48102SOL    HW246139  11.384  11.651   3.319
48103SOL     OW46140   2.248   6.086   0.826
48103SOL    HW146141   2.329   6.135   0.844
48103SOL    HW246142   2.178   6.151   0.836
48104SOL     OW46143  11.341   1.154  13.901
48104SOL    HW146144  11.254   1.181  13.930
48104SOL    HW246145  11.324   1.085  13.837
48105SOL     OW46146  13.569   9.636   6.639
48105SOL    HW146147  13.476   9.642   6.614
48105SOL    HW246148  13.615   9.683   6.570
48106SOL     OW46149  14.597  10.422   2.102
48106SOL    HW146150  14.614  10.357   2.034
48106SOL    HW246151  14.504  10.413   2.122
48107SOL     OW46152   1.445   8.020  11.184
48107SOL    HW146153   1.506   7.946  11.184
48107SOL    HW246154   1.491   8.089  11.233
48108SOL     OW46155   9.860   0.189   9.285
48108SOL    HW146156   9.801   0.149   9.221
48108SOL    HW246157   9.804   0.243   9.340
48109SOL     OW46158  13.511  11.287   3.454
48109SOL    HW146159  13.542  11.377   3.468
48109SOL    HW246160  13.527  11.243   3.538
48110SOL     OW46161   0.750  10.516  11.232
48110SOL    HW146162   0.679  10.454  11.247
48110SOL    HW246163   0.755  10.568  11.312
48111SOL     OW46164   0.821  14.684   0.473
48111SOL    HW146165   0.874  14.609   0.447
48111SOL    HW246166   0.848  14.704   0.562
48112SOL     OW46167   5.140   1.729   7.788
48112SOL    HW146168   5.149   1.639   7.820
48112SOL    HW246169   5.172   1.726   7.698
48113SOL     OW46170   7.981   2.293   7.100
48113SOL    HW146171   8.057   2.253   7.142
48113SOL    HW246172   7.906   2.247   7.139
48114SOL     OW46173   1.458  10.893   1.698
48114SOL    HW146174   1.511  10.856   1.768
48114SOL    HW246175   1.432  10.817   1.645
48115SOL     OW46176   1.780   5.876   9.685
48115SOL    HW146177   1.753   5.892   9.594
48115SOL    HW246178   1.770   5.961   9.727
48116SOL     OW46179   9.453  11.137   7.679
48116SOL    HW146180   9.487  11.060   7.634
48116SOL    HW246181   9.407  11.187   7.612
48117SOL     OW46182  14.329   8.322   0.173
48117SOL    HW146183  14.417   8.359   0.179
48117SOL    HW246184  14.338   8.233   0.205
48118SOL     OW46185   1.397  14.452  12.703
48118SOL    HW146186   1.370  14.362  12.684
48118SOL    HW246187   1.452  14.476  12.628
48119SOL     OW46188   2.246   4.637  10.429
48119SOL    HW146189   2.302   4.648  10.353
48119SOL    HW246190   2.289   4.570  10.482
48120SOL     OW46191  13.518   1.968  11.942
48120SOL    HW146192  13.467   2.010  11.872
48120SOL    HW246193  13.577   2.036  11.973
48121SOL     OW46194   5.908  11.543   5.246
48121SOL    HW146195   5.930  11.629   5.281
48121SOL    HW246196   5.990  11.510   5.210
48122SOL     OW46197   8.581   0.494   9.629
48122SOL    HW146198   8.605   0.585   9.640
48122SOL    HW246199   8.645   0.445   9.681
48123SOL     OW46200   8.400   4.243   7.710
48123SOL    HW146201   8.455   4.215   7.636
48123SOL    HW246202   8.331   4.296   7.670
48124SOL     OW46203   8.831  10.128  12.170
48124SOL    HW146204   8.772  10.189  12.214
48124SOL    HW246205   8.848  10.060  12.235
48125SOL     OW46206   6.514   7.678   1.406
48125SOL    HW146207   6.426   7.641   1.401
48125SOL    HW246208   6.520   7.713   1.495
48126SOL     OW46209  12.697  12.003  12.695
48126SOL    HW146210  12.640  12.075  12.722
48126SOL    HW246211  12.763  11.998  12.764
48127SOL     OW46212   3.273   5.427  12.474
48127SOL    HW146213   3.259   5.519  12.496
48127SOL    HW246214   3.227   5.379  12.543
48128SOL     OW46215   8.222   3.775   9.879
48128SOL    HW146216   8.254   3.865   9.870
48128SOL    HW246217   8.270   3.726   9.812
48129SOL     OW46218  10.933   2.637   0.728
48129SOL    HW146219  10.922   2.726   0.762
48129SOL    HW246220  11.027   2.621   0.731
48130SOL     OW46221  11.602  11.236   0.008
48130SOL    HW146222  11.697  11.237   0.022
48130SOL    HW246223  11.581  11.144  14.870
48131SOL     OW46224   3.595  13.155  10.826
48131SOL    HW146225   3.511  13.199  10.843
48131SOL    HW246226   3.582  13.065  10.856
48132SOL     OW46227   5.366   7.415   8.784
48132SOL    HW146228   5.441   7.471   8.763
48132SOL    HW246229   5.301   7.475   8.819
48133SOL     OW46230   1.913  13.320   7.523
48133SOL    HW146231   1.833  13.373   7.522
48133SOL    HW246232   1.944  13.325   7.613
48134SOL     OW46233  14.443   1.253  11.808
48134SOL    HW146234  14.400   1.302  11.738
48134SOL    HW246235  14.423   1.162  11.790
48135SOL     OW46236   6.010   2.682   4.377
48135SOL    HW146237   6.024   2.728   4.295
48135SOL    HW246238   5.998   2.751   4.442
48136SOL     OW46239  14.428   2.955  12.550
48136SOL    HW146240  14.437   3.034  12.603
48136SOL    HW246241  14.517   2.921  12.542
48137SOL     OW46242   0.351  10.245   7.319
48137SOL    HW146243   0.318  10.245   7.409
48137SOL    HW246244   0.406  10.166   7.315
48138SOL     OW46245  10.005   3.897   1.174
48138SOL    HW146246  10.009   3.846   1.093
48138SOL    HW246247  10.090   3.940   1.179
48139SOL     OW46248   0.883   0.623  11.026
48139SOL    HW146249   0.830   0.559  11.074
48139SOL    HW246250   0.932   0.570  10.962
48140SOL     OW46251   3.632   3.430   9.315
48140SOL    HW146252   3.608   3.436   9.408
48140SOL    HW246253   3.697   3.360   9.313
48141SOL     OW46254   3.299   8.815  12.309
48141SOL    HW146255   3.312   8.740  12.366
48141SOL    HW246256   3.382   8.863  12.312
48142SOL     OW46257   7.758  12.645   5.932
48142SOL    HW146258   7.696  12.574   5.950
48142SOL    HW246259   7.841  12.600   5.914
48143SOL     OW46260  12.632  13.938  11.485
48143SOL    HW146261  12.669  13.855  11.514
48143SOL    HW246262  12.654  14.000  11.554
48144SOL     OW46263  13.939   2.301  10.741
48144SOL    HW146264  13.911   2.290  10.650
48144SOL    HW246265  13.999   2.376  10.739
48145SOL     OW46266  10.329  12.570   0.259
48145SOL    HW146267  10.390  12.509   0.216
48145SOL    HW246268  10.252  12.517   0.278
48146SOL     OW46269   1.303   7.717  13.968
48146SOL    HW146270   1.357   7.647  14.002
48146SOL    HW246271   1.294   7.697  13.874
48147SOL     OW46272   6.110   3.434   8.169
48147SOL    HW146273   6.072   3.514   8.206
48147SOL    HW246274   6.200   3.432   8.202
48148SOL     OW46275  12.744   6.775  10.696
48148SOL    HW146276  12.765   6.688  10.731
48148SOL    HW246277  12.709   6.823  10.771
48149SOL     OW46278  12.786  11.246   6.853
48149SOL    HW146279  12.854  11.182   6.874
48149SOL    HW246280  12.806  11.275   6.764
48150SOL     OW46281   2.385   7.174   3.958
48150SOL    HW146282   2.462   7.189   3.903
48150SOL    HW246283   2.418   7.129   4.036
48151SOL     OW46284   7.053   0.592   8.341
48151SOL    HW146285   7.087   0.619   8.426
48151SOL    HW246286   7.083   0.660   8.281
48152SOL     OW46287   1.296  11.310   2.611
48152SOL    HW146288   1.216  11.362   2.617
48152SOL    HW246289   1.268  11.221   2.634
48153SOL     OW46290  11.356   0.935  13.650
48153SOL    HW146291  11.302   0.860  13.625
48153SOL    HW246292  11.444   0.913  13.618
48154SOL     OW46293  12.818   6.059   9.108
48154SOL    HW146294  12.888   6.071   9.172
48154SOL    HW246295  12.755   6.002   9.152
48155SOL     OW46296   3.304   2.813   4.855
48155SOL    HW146297   3.247   2.777   4.924
48155SOL    HW246298   3.297   2.908   4.865
48156SOL     OW46299  11.331   2.489   8.663
48156SOL    HW146300  11.373   2.575   8.665
48156SOL    HW246301  11.255   2.501   8.605
48157SOL     OW46302   4.272   3.134   3.530
48157SOL    HW146303   4.240   3.125   3.620
48157SOL    HW246304   4.235   3.059   3.484
48158SOL     OW46305   5.468  14.035   1.362
48158SOL    HW146306   5.524  14.029   1.284
48158SOL    HW246307   5.487  14.122   1.398
48159SOL     OW46308   9.716   6.553   0.085
48159SOL    HW146309   9.676   6.480   0.037
48159SOL    HW246310   9.739   6.617   0.017
48160SOL     OW46311   3.030   5.770  13.015
48160SOL    HW146312   3.004   5.842  13.073
48160SOL    HW246313   3.015   5.804  12.927
48161SOL     OW46314   6.663   2.945  14.530
48161SOL    HW146315   6.658   3.030  14.574
48161SOL    HW246316   6.646   2.881  14.600
48162SOL     OW46317   6.573   6.257   5.082
48162SOL    HW146318   6.609   6.254   4.993
48162SOL    HW246319   6.580   6.168   5.115
48163SOL     OW46320  11.411   5.037  14.368
48163SOL    HW146321  11.379   5.078  14.448
48163SOL    HW246322  11.483   5.093  14.339
48164SOL     OW46323   5.961   6.654   0.221
48164SOL    HW146324   5.983   6.690   0.307
48164SOL    HW246325   5.907   6.577   0.241
48165SOL     OW46326   9.484   6.279   3.266
48165SOL    HW146327   9.518   6.360   3.303
48165SOL    HW246328   9.500   6.287   3.172
48166SOL     OW46329  10.192  11.890  11.853
48166SOL    HW146330  10.100  11.908  11.871
48166SOL    HW246331  10.193  11.802  11.816
48167SOL     OW46332   2.609   9.354   9.738
48167SOL    HW146333   2.655   9.417   9.793
48167SOL    HW246334   2.678   9.317   9.682
48168SOL     OW46335   1.787   7.649   7.264
48168SOL    HW146336   1.767   7.742   7.254
48168SOL    HW246337   1.852   7.647   7.335
48169SOL     OW46338   0.431   3.481   5.397
48169SOL    HW146339   0.374   3.550   5.431
48169SOL    HW246340   0.383   3.400   5.414
48170SOL     OW46341   1.513   8.675   8.626
48170SOL    HW146342   1.513   8.662   8.531
48170SOL    HW246343   1.541   8.766   8.637
48171SOL     OW46344   4.353   9.531  10.490
48171SOL    HW146345   4.424   9.476  10.524
48171SOL    HW246346   4.274   9.498  10.532
48172SOL     OW46347   1.912  11.966  14.029
48172SOL    HW146348   1.897  11.961  14.124
48172SOL    HW246349   1.924  12.059  14.011
48173SOL     OW46350  12.347   4.207   8.347
48173SOL    HW146351  12.299   4.286   8.321
48173SOL    HW246352  12.334   4.202   8.442
48174SOL     OW46353   1.361   0.420   4.854
48174SOL    HW146354   1.392   0.333   4.879
48174SOL    HW246355   1.267   0.410   4.842
48175SOL     OW46356   0.956   4.894   6.870
48175SOL    HW146357   1.042   4.855   6.849
48175SOL    HW246358   0.976   4.965   6.931
48176SOL     OW46359  13.041   1.049   6.915
48176SOL    HW146360  12.949   1.058   6.891
48176SOL    HW246361  13.064   0.959   6.890
48177SOL     OW46362   2.660   8.931  11.840
48177SOL    HW146363   2.611   8.957  11.917
48177SOL    HW246364   2.748   8.964  11.855
48178SOL     OW46365   2.130   6.711   7.852
48178SOL    HW146366   2.182   6.674   7.781
48178SOL    HW246367   2.188   6.708   7.928
48179SOL     OW46368   3.271  11.210   5.896
48179SOL    HW146369   3.288  11.301   5.922
48179SOL    HW246370   3.318  11.199   5.813
48180SOL     OW46371  10.094   9.294   7.799
48180SOL    HW146372  10.109   9.329   7.887
48180SOL    HW246373  10.148   9.215   7.796
48181SOL     OW46374   0.619  14.626   0.302
48181SOL    HW146375   0.587  14.714   0.281
48181SOL    HW246376   0.683  14.640   0.372
48182SOL     OW46377   2.785   1.539   9.677
48182SOL    HW146378   2.728   1.602   9.720
48182SOL    HW246379   2.865   1.588   9.656
48183SOL     OW46380   3.265  10.925   5.646
48183SOL    HW146381   3.336  10.987   5.661
48183SOL    HW246382   3.191  10.980   5.621
48184SOL     OW46383   1.433  12.697   4.985
48184SOL    HW146384   1.378  12.682   4.908
48184SOL    HW246385   1.386  12.763   5.036
48185SOL     OW46386   5.988   0.977  14.101
48185SOL    HW146387   5.913   0.925  14.133
48185SOL    HW246388   6.058   0.959  14.164
48186SOL     OW46389  14.765   6.943   1.633
48186SOL    HW146390  14.823   6.972   1.562
48186SOL    HW246391  14.788   6.999   1.707
48187SOL     OW46392  13.044  12.328  10.464
48187SOL    HW146393  13.053  12.369  10.378
48187SOL    HW246394  13.127  12.280  10.476
48188SOL     OW46395   9.109   6.944  10.852
48188SOL    HW146396   9.146   7.029  10.831
48188SOL    HW246397   9.014   6.957  10.846
48189SOL     OW46398  12.671   0.407  12.649
48189SOL    HW146399  12.764   0.410  12.628
48189SOL    HW246400  12.657   0.483  12.707
48190SOL     OW46401  12.203   3.910   7.075
48190SOL    HW146402  12.267   3.954   7.131
48190SOL    HW246403  12.248   3.899   6.992
48191SOL     OW46404  10.469   5.645   3.246
48191SOL    HW146405  10.417   5.721   3.220
48191SOL    HW246406  10.407   5.586   3.289
48192SOL     OW46407   6.061   0.297  11.454
48192SOL    HW146408   6.145   0.257  11.433
48192SOL    HW246409   6.034   0.257  11.536
48193SOL     OW46410   5.469   7.049   7.008
48193SOL    HW146411   5.559   7.060   7.039
48193SOL    HW246412   5.477   7.046   6.912
48194SOL     OW46413   1.587  10.981  10.403
48194SOL    HW146414   1.623  10.944  10.484
48194SOL    HW246415   1.520  11.042  10.433
48195SOL     OW46416  14.021  13.729  14.844
48195SOL    HW146417  13.927  13.738  14.860
48195SOL    HW246418  14.031  13.744  14.750
48196SOL     OW46419   9.508  10.506  14.349
48196SOL    HW146420   9.486  10.417  14.378
48196SOL    HW246421   9.600  10.500  14.322
48197SOL     OW46422   2.298   5.968   9.820
48197SOL    HW146423   2.285   6.035   9.887
48197SOL    HW246424   2.283   6.014   9.737
48198SOL     OW46425   7.728   4.919   4.904
48198SOL    HW146426   7.747   4.876   4.821
48198SOL    HW246427   7.632   4.924   4.907
48199SOL     OW46428  13.295   8.052   9.806
48199SOL    HW146429  13.381   8.059   9.848
48199SOL    HW246430  13.246   8.128   9.837
48200SOL     OW46431  10.925  11.479   0.326
48200SOL    HW146432  11.015  11.491   0.355
48200SOL    HW246433  10.901  11.562   0.286
48201SOL     OW46434   7.442  11.990  11.723
48201SOL    HW146435   7.524  12.039  11.718
48201SOL    HW246436   7.451  11.922  11.656
48202SOL     OW46437   2.498  13.159  13.471
48202SOL    HW146438   2.444  13.228  13.435
48202SOL    HW246439   2.467  13.149  13.561
48203SOL     OW46440  12.292   8.148   8.068
48203SOL    HW146441  12.259   8.114   7.985
48203SOL    HW246442  12.387   8.133   8.064
48204SOL     OW46443   0.489   5.640  14.443
48204SOL    HW146444   0.459   5.551  14.462
48204SOL    HW246445   0.472   5.689  14.524
48205SOL     OW46446  12.291  12.997   7.755
48205SOL    HW146447  12.349  13.004   7.680
48205SOL    HW246448  12.315  13.071   7.811
48206SOL     OW46449   8.597  11.741   1.478
48206SOL    HW146450   8.601  11.753   1.383
48206SOL    HW246451   8.668  11.796   1.512
48207SOL     OW46452  13.865   6.229   7.816
48207SOL    HW146453  13.886   6.165   7.749
48207SOL    HW246454  13.785   6.197   7.857
48208SOL     OW46455  12.936  14.569  13.894
48208SOL    HW146456  13.025  14.604  13.884
48208SOL    HW246457  12.945  14.476  13.875
48209SOL     OW46458  10.385   6.885   9.854
48209SOL    HW146459  10.457   6.825   9.834
48209SOL    HW246460  10.311   6.851   9.803
48210SOL     OW46461  12.723   9.110   7.532
48210SOL    HW146462  12.786   9.180   7.514
48210SOL    HW246463  12.654   9.152   7.583
48211SOL     OW46464   2.783   6.373   8.303
48211SOL    HW146465   2.730   6.421   8.366
48211SOL    HW246466   2.721   6.317   8.256
48212SOL     OW46467   8.491   4.397  14.144
48212SOL    HW146468   8.501   4.469  14.083
48212SOL    HW246469   8.404   4.361  14.126
48213SOL     OW46470   6.937   6.175   1.333
48213SOL    HW146471   6.893   6.170   1.248
48213SOL    HW246472   6.981   6.260   1.332
48214SOL     OW46473   9.152   3.894  13.631
48214SOL    HW146474   9.196   3.975  13.655
48214SOL    HW246475   9.182   3.875  13.542
48215SOL     OW46476   0.144   3.813  10.382
48215SOL    HW146477   0.079   3.831  10.314
48215SOL    HW246478   0.095   3.771  10.452
48216SOL     OW46479  12.221   4.301   3.575
48216SOL    HW146480  12.241   4.394   3.584
48216SOL    HW246481  12.182   4.276   3.659
48217SOL     OW46482   9.883   6.678   5.505
48217SOL    HW146483   9.965   6.685   5.554
48217SOL    HW246484   9.830   6.618   5.556
48218SOL     OW46485  10.129   7.639   4.986
48218SOL    HW146486  10.206   7.693   4.973
48218SOL    HW246487  10.066   7.670   4.920
48219SOL     OW46488   2.070   9.611   6.201
48219SOL    HW146489   2.015   9.538   6.229
48219SOL    HW246490   2.009   9.684   6.190
48220SOL     OW46491   0.391   9.512   6.447
48220SOL    HW146492   0.304   9.547   6.429
48220SOL    HW246493   0.427   9.571   6.514
48221SOL     OW46494   3.853  14.372   6.445
48221SOL    HW146495   3.857  14.399   6.537
48221SOL    HW246496   3.761  14.348   6.432
48222SOL     OW46497   8.818  12.251   3.028
48222SOL    HW146498   8.909  12.262   3.054
48222SOL    HW246499   8.819  12.261   2.933
48223SOL     OW46500   4.764  14.115   0.558
48223SOL    HW146501   4.810  14.037   0.587
48223SOL    HW246502   4.673  14.086   0.546
48224SOL     OW46503   3.502   7.227  11.509
48224SOL    HW146504   3.530   7.136  11.518
48224SOL    HW246505   3.580   7.278  11.528
48225SOL     OW46506   7.328   0.317  12.855
48225SOL    HW146507   7.402   0.376  12.844
48225SOL    HW246508   7.312   0.281  12.768
48226SOL     OW46509   4.705   3.479  11.522
48226SOL    HW146510   4.642   3.524  11.579
48226SOL    HW246511   4.728   3.544  11.455
48227SOL     OW46512   1.086   0.352  14.317
48227SOL    HW146513   1.132   0.272  14.291
48227SOL    HW246514   1.103   0.413  14.245
48228SOL     OW46515  14.240  10.677   5.530
48228SOL    HW146516  14.203  10.613   5.591
48228SOL    HW246517  14.320  10.708   5.573
48229SOL     OW46518   8.121  11.966   9.722
48229SOL    HW146519   8.077  11.886   9.751
48229SOL    HW246520   8.066  11.999   9.651
48230SOL     OW46521   3.940   6.772   1.813
48230SOL    HW146522   3.996   6.726   1.750
48230SOL    HW246523   4.001   6.822   1.868
48231SOL     OW46524   8.637  10.148   8.493
48231SOL    HW146525   8.584  10.094   8.552
48231SOL    HW246526   8.719  10.161   8.540
48232SOL     OW46527  11.683   1.249  12.121
48232SOL    HW146528  11.729   1.211  12.196
48232SOL    HW246529  11.591   1.249  12.146
48233SOL     OW46530  12.312   9.636   7.183
48233SOL    HW146531  12.219   9.655   7.190
48233SOL    HW246532  12.338   9.606   7.270
48234SOL     OW46533   8.647   9.319   0.146
48234SOL    HW146534   8.567   9.327   0.200
48234SOL    HW246535   8.659   9.224   0.136
48235SOL     OW46536  13.062   9.682   4.743
48235SOL    HW146537  13.004   9.725   4.806
48235SOL    HW246538  13.003   9.640   4.680
48236SOL     OW46539   8.031  14.269  14.108
48236SOL    HW146540   8.027  14.182  14.149
48236SOL    HW246541   8.119  14.300  14.129
48237SOL     OW46542   6.641   2.500   0.024
48237SOL    HW146543   6.689   2.439   0.080
48237SOL    HW246544   6.609   2.568   0.084
48238SOL     OW46545   0.839   9.542  14.290
48238SOL    HW146546   0.834   9.484  14.214
48238SOL    HW246547   0.751   9.579  14.296
48239SOL     OW46548  12.052  13.213  13.123
48239SOL    HW146549  11.997  13.218  13.202
48239SOL    HW246550  11.991  13.228  13.051
48240SOL     OW46551   3.309   4.126   1.321
48240SOL    HW146552   3.388   4.106   1.272
48240SOL    HW246553   3.315   4.219   1.342
48241SOL     OW46554  13.127   0.179   6.747
48241SOL    HW146555  13.175   0.257   6.773
48241SOL    HW246556  13.052   0.212   6.697
48242SOL     OW46557  12.116   1.231  13.035
48242SOL    HW146558  12.087   1.227  12.944
48242SOL    HW246559  12.041   1.265  13.083
48243SOL     OW46560   4.078   5.398   1.769
48243SOL    HW146561   4.158   5.348   1.755
48243SOL    HW246562   4.052   5.377   1.859
48244SOL     OW46563   8.376   1.426   1.627
48244SOL    HW146564   8.448   1.484   1.652
48244SOL    HW246565   8.370   1.436   1.532
48245SOL     OW46566  14.478   7.112   3.268
48245SOL    HW146567  14.504   7.042   3.328
48245SOL    HW246568  14.440   7.066   3.193
48246SOL     OW46569   1.666   4.362   3.965
48246SOL    HW146570   1.758   4.384   3.949
48246SOL    HW246571   1.647   4.402   4.050
48247SOL     OW46572  12.100  14.782   3.842
48247SOL    HW146573  12.113  14.754   3.932
48247SOL    HW246574  12.126  14.874   3.842
48248SOL     OW46575   9.566   3.718   4.461
48248SOL    HW146576   9.567   3.777   4.386
48248SOL    HW246577   9.515   3.642   4.431
48249SOL     OW46578   8.035   1.418   2.174
48249SOL    HW146579   7.946   1.453   2.171
48249SOL    HW246580   8.063   1.419   2.082
48250SOL     OW46581   9.655  13.602   6.368
48250SOL    HW146582   9.584  13.541   6.349
48250SOL    HW246583   9.646  13.671   6.302
48251SOL     OW46584   1.951  13.234  14.617
48251SOL    HW146585   1.968  13.140  14.626
48251SOL    HW246586   1.901  13.241  14.535
48252SOL     OW46587   4.135   5.320   9.612
48252SOL    HW146588   4.130   5.383   9.683
48252SOL    HW246589   4.209   5.264   9.635
48253SOL     OW46590   8.045   3.191   0.564
48253SOL    HW146591   8.027   3.160   0.653
48253SOL    HW246592   8.014   3.120   0.508
48254SOL     OW46593   6.684   9.913   4.743
48254SOL    HW146594   6.667   9.820   4.729
48254SOL    HW246595   6.770   9.915   4.785
48255SOL     OW46596  14.423  10.059   7.180
48255SOL    HW146597  14.403  10.118   7.107
48255SOL    HW246598  14.433  10.117   7.255
48256SOL     OW46599  13.738   2.635   5.679
48256SOL    HW146600  13.649   2.654   5.709
48256SOL    HW246601  13.746   2.540   5.687
48257SOL     OW46602  11.430  12.664   9.032
48257SOL    HW146603  11.474  12.597   8.980
48257SOL    HW246604  11.462  12.649   9.122
48258SOL     OW46605   5.831   3.049   1.495
48258SOL    HW146606   5.827   3.013   1.407
48258SOL    HW246607   5.913   3.014   1.531
48259SOL     OW46608   8.352   1.299   2.610
48259SOL    HW146609   8.426   1.359   2.621
48259SOL    HW246610   8.346   1.285   2.516
48260SOL     OW46611   5.088   6.923   2.789
48260SOL    HW146612   5.159   6.980   2.761
48260SOL    HW246613   5.019   6.982   2.816
48261SOL     OW46614  13.452   2.657  11.424
48261SOL    HW146615  13.447   2.703  11.507
48261SOL    HW246616  13.545   2.653  11.403
48262SOL     OW46617  13.881  13.984   8.645
48262SOL    HW146618  13.946  13.983   8.715
48262SOL    HW246619  13.861  14.076   8.632
48263SOL     OW46620   1.705  14.243   7.493
48263SOL    HW146621   1.796  14.239   7.464
48263SOL    HW246622   1.699  14.180   7.565
48264SOL     OW46623   6.390   4.495  13.499
48264SOL    HW146624   6.418   4.437  13.428
48264SOL    HW246625   6.434   4.578  13.481
48265SOL     OW46626   8.987  10.869   5.287
48265SOL    HW146627   8.935  10.941   5.323
48265SOL    HW246628   9.011  10.898   5.199
48266SOL     OW46629   3.080  11.073  11.656
48266SOL    HW146630   3.058  11.134  11.586
48266SOL    HW246631   3.100  11.129  11.731
48267SOL     OW46632  11.545   1.890   5.513
48267SOL    HW146633  11.469   1.896   5.571
48267SOL    HW246634  11.532   1.808   5.465
48268SOL     OW46635  12.204   0.895   5.647
48268SOL    HW146636  12.248   0.876   5.564
48268SOL    HW246637  12.132   0.832   5.651
48269SOL     OW46638   6.053   9.499  11.036
48269SOL    HW146639   6.032   9.468  11.124
48269SOL    HW246640   6.009   9.437  10.977
48270SOL     OW46641   5.878   8.615   3.665
48270SOL    HW146642   5.859   8.709   3.668
48270SOL    HW246643   5.838   8.586   3.582
48271SOL     OW46644   4.385   4.144   6.067
48271SOL    HW146645   4.441   4.134   6.144
48271SOL    HW246646   4.382   4.238   6.052
48272SOL     OW46647   2.229   7.704  11.380
48272SOL    HW146648   2.265   7.772  11.436
48272SOL    HW246649   2.295   7.692  11.311
48273SOL     OW46650  10.179  14.043   5.460
48273SOL    HW146651  10.203  14.122   5.508
48273SOL    HW246652  10.150  14.074   5.375
48274SOL     OW46653   9.223  10.993   8.623
48274SOL    HW146654   9.244  10.967   8.533
48274SOL    HW246655   9.132  10.968   8.635
48275SOL     OW46656   5.168   0.677   1.113
48275SOL    HW146657   5.222   0.749   1.145
48275SOL    HW246658   5.079   0.701   1.138
48276SOL     OW46659   1.648  13.937   6.250
48276SOL    HW146660   1.722  13.953   6.308
48276SOL    HW246661   1.605  14.022   6.241
48277SOL     OW46662   6.562   4.037  11.367
48277SOL    HW146663   6.520   3.964  11.412
48277SOL    HW246664   6.650   4.006  11.348
48278SOL     OW46665   7.311   9.628   1.986
48278SOL    HW146666   7.267   9.711   1.998
48278SOL    HW246667   7.276   9.593   1.903
48279SOL     OW46668  13.512  12.603   7.050
48279SOL    HW146669  13.595  12.556   7.050
48279SOL    HW246670  13.514  12.657   7.129
48280SOL     OW46671   4.922   3.716   2.731
48280SOL    HW146672   4.927   3.690   2.823
48280SOL    HW246673   4.847   3.667   2.697
48281SOL     OW46674   0.215   1.011   9.918
48281SOL    HW146675   0.209   0.994  10.012
48281SOL    HW246676   0.243   1.103   9.912
48282SOL     OW46677   9.491   8.381  13.298
48282SOL    HW146678   9.527   8.356  13.383
48282SOL    HW246679   9.445   8.464  13.314
48283SOL     OW46680   8.873   4.864  12.765
48283SOL    HW146681   8.952   4.847  12.815
48283SOL    HW246682   8.900   4.855  12.673
48284SOL     OW46683   9.179  14.125   7.594
48284SOL    HW146684   9.231  14.087   7.523
48284SOL    HW246685   9.165  14.216   7.567
48285SOL     OW46686   4.895   7.102   3.345
48285SOL    HW146687   4.908   7.010   3.365
48285SOL    HW246688   4.800   7.115   3.355
48286SOL     OW46689   5.219   2.560   5.023
48286SOL    HW146690   5.167   2.558   5.103
48286SOL    HW246691   5.297   2.509   5.044
48287SOL     OW46692   2.836  12.951  11.951
48287SOL    HW146693   2.796  12.864  11.947
48287SOL    HW246694   2.894  12.955  11.875
48288SOL     OW46695   4.891   7.815  13.712
48288SOL    HW146696   4.879   7.854  13.625
48288SOL    HW246697   4.858   7.726  13.703
48289SOL     OW46698  13.680   9.303   4.213
48289SOL    HW146699  13.769   9.319   4.182
48289SOL    HW246700  13.635   9.387   4.201
48290SOL     OW46701  11.183  12.175   7.981
48290SOL    HW146702  11.113  12.190   7.917
48290SOL    HW246703  11.199  12.081   7.978
48291SOL     OW46704   3.992  14.431  10.897
48291SOL    HW146705   4.077  14.388  10.899
48291SOL    HW246706   4.009  14.517  10.858
48292SOL     OW46707   9.593  12.740  10.051
48292SOL    HW146708   9.581  12.780  10.138
48292SOL    HW246709   9.656  12.798  10.008
48293SOL     OW46710  11.916   5.289   0.624
48293SOL    HW146711  11.886   5.353   0.688
48293SOL    HW246712  11.889   5.325   0.540
48294SOL     OW46713  14.395   1.062   0.546
48294SOL    HW146714  14.315   1.083   0.496
48294SOL    HW246715  14.387   1.113   0.626
48295SOL     OW46716   9.326   1.888   1.135
48295SOL    HW146717   9.363   1.876   1.222
48295SOL    HW246718   9.232   1.873   1.145
48296SOL     OW46719  13.642  10.702  11.751
48296SOL    HW146720  13.692  10.735  11.825
48296SOL    HW246721  13.708  10.671  11.689
48297SOL     OW46722  13.409  11.743  10.319
48297SOL    HW146723  13.428  11.750  10.226
48297SOL    HW246724  13.329  11.691  10.323
48298SOL     OW46725  13.777   4.505  14.010
48298SOL    HW146726  13.784   4.543  13.922
48298SOL    HW246727  13.688   4.472  14.015
48299SOL     OW46728   3.323  14.370   2.420
48299SOL    HW146729   3.264  14.432   2.376
48299SOL    HW246730   3.348  14.308   2.352
48300SOL     OW46731   4.730   6.540   4.340
48300SOL    HW146732   4.714   6.564   4.431
48300SOL    HW246733   4.712   6.620   4.291
48301SOL     OW46734  10.776   1.876   2.386
48301SOL    HW146735  10.697   1.930   2.396
48301SOL    HW246736  10.752   1.793   2.428
48302SOL     OW46737   5.261  14.245   0.541
48302SOL    HW146738   5.328  14.284   0.485
48302SOL    HW246739   5.224  14.174   0.489
48303SOL     OW46740   1.012   1.881   6.403
48303SOL    HW146741   1.099   1.907   6.373
48303SOL    HW246742   1.008   1.907   6.495
48304SOL     OW46743  11.732  10.967   9.221
48304SOL    HW146744  11.809  10.995   9.270
48304SOL    HW246745  11.697  10.894   9.272
48305SOL     OW46746   0.186   8.716   0.491
48305SOL    HW146747   0.281   8.714   0.501
48305SOL    HW246748   0.160   8.624   0.492
48306SOL     OW46749   1.351   8.513   2.263
48306SOL    HW146750   1.356   8.596   2.311
48306SOL    HW246751   1.265   8.515   2.220
48307SOL     OW46752  12.423   3.385   5.202
48307SOL    HW146753  12.328   3.383   5.216
48307SOL    HW246754  12.459   3.374   5.290
48308SOL     OW46755  13.921   3.125   7.532
48308SOL    HW146756  13.964   3.199   7.576
48308SOL    HW246757  13.990   3.083   7.481
48309SOL     OW46758   4.290   8.404   0.234
48309SOL    HW146759   4.383   8.389   0.248
48309SOL    HW246760   4.273   8.490   0.272
48310SOL     OW46761   3.624   5.051   3.363
48310SOL    HW146762   3.581   5.040   3.278
48310SOL    HW246763   3.718   5.045   3.343
48311SOL     OW46764  12.159  10.680   1.644
48311SOL    HW146765  12.066  10.660   1.641
48311SOL    HW246766  12.195  10.639   1.565
48312SOL     OW46767   0.458  11.389  11.770
48312SOL    HW146768   0.408  11.469  11.755
48312SOL    HW246769   0.546  11.419  11.793
48313SOL     OW46770   3.765   1.055  13.540
48313SOL    HW146771   3.688   1.004  13.565
48313SOL    HW246772   3.823   0.991  13.497
48314SOL     OW46773   8.653   4.654   2.377
48314SOL    HW146774   8.614   4.598   2.309
48314SOL    HW246775   8.659   4.740   2.336
48315SOL     OW46776  12.888   2.941  14.642
48315SOL    HW146777  12.812   2.886  14.660
48315SOL    HW246778  12.852   3.030  14.642
48316SOL     OW46779  13.563   3.964   2.744
48316SOL    HW146780  13.613   3.893   2.784
48316SOL    HW246781  13.549   4.027   2.815
48317SOL     OW46782   0.755   4.328   5.325
48317SOL    HW146783   0.664   4.338   5.353
48317SOL    HW246784   0.796   4.276   5.394
48318SOL     OW46785   0.529   4.587   2.456
48318SOL    HW146786   0.440   4.563   2.432
48318SOL    HW246787   0.584   4.545   2.389
48319SOL     OW46788   2.035   5.183   5.340
48319SOL    HW146789   1.974   5.161   5.270
48319SOL    HW246790   2.119   5.149   5.310
48320SOL     OW46791  13.897   6.695   6.646
48320SOL    HW146792  13.981   6.726   6.614
48320SOL    HW246793  13.917   6.614   6.694
48321SOL     OW46794   0.100   5.637   9.246
48321SOL    HW146795   0.069   5.563   9.298
48321SOL    HW246796   0.026   5.698   9.246
48322SOL     OW46797   2.022   0.824  14.760
48322SOL    HW146798   1.996   0.733  14.747
48322SOL    HW246799   2.037   0.832  14.855
48323SOL     OW46800   6.528   2.361   0.922
48323SOL    HW146801   6.516   2.275   0.962
48323SOL    HW246802   6.620   2.383   0.938
48324SOL     OW46803   5.331   0.623  10.142
48324SOL    HW146804   5.418   0.634  10.104
48324SOL    HW246805   5.346   0.614  10.236
48325SOL     OW46806  12.826   0.012   7.200
48325SOL    HW146807  12.836  14.792   7.195
48325SOL    HW246808  12.903   0.042   7.247
48326SOL     OW46809  14.226   3.909  11.384
48326SOL    HW146810  14.213   3.988  11.333
48326SOL    HW246811  14.271   3.938  11.463
48327SOL     OW46812   9.989   7.063  10.404
48327SOL    HW146813   9.940   6.989  10.369
48327SOL    HW246814   9.940   7.088  10.483
48328SOL     OW46815   0.534   5.838   9.375
48328SOL    HW146816   0.608   5.882   9.414
48328SOL    HW246817   0.473   5.908   9.352
48329SOL     OW46818   5.511  14.049   6.296
48329SOL    HW146819   5.425  14.078   6.328
48329SOL    HW246820   5.570  14.120   6.321
48330SOL     OW46821  13.227  10.406   7.584
48330SOL    HW146822  13.181  10.347   7.524
48330SOL    HW246823  13.218  10.365   7.670
48331SOL     OW46824  14.557   5.217   0.388
48331SOL    HW146825  14.483   5.244   0.334
48331SOL    HW246826  14.622   5.185   0.326
48332SOL     OW46827  14.807  11.733   6.832
48332SOL    HW146828  14.726  11.764   6.873
48332SOL    HW246829  14.790  11.642   6.810
48333SOL     OW46830  12.647   9.539   2.593
48333SOL    HW146831  12.577   9.562   2.532
48333SOL    HW246832  12.662   9.446   2.578
48334SOL     OW46833   4.868   5.539   2.133
48334SOL    HW146834   4.846   5.447   2.123
48334SOL    HW246835   4.823   5.583   2.061
48335SOL     OW46836   0.644   9.821   0.984
48335SOL    HW146837   0.637   9.843   1.077
48335SOL    HW246838   0.660   9.727   0.982
48336SOL     OW46839  11.441   7.891   3.027
48336SOL    HW146840  11.376   7.832   3.065
48336SOL    HW246841  11.470   7.847   2.948
48337SOL     OW46842  10.446   7.873   2.507
48337SOL    HW146843  10.412   7.803   2.452
48337SOL    HW246844  10.477   7.827   2.586
48338SOL     OW46845   8.536   0.655   6.553
48338SOL    HW146846   8.599   0.720   6.584
48338SOL    HW246847   8.585   0.573   6.552
48339SOL     OW46848   7.667   7.845   4.014
48339SOL    HW146849   7.740   7.863   3.955
48339SOL    HW246850   7.704   7.791   4.083
48340SOL     OW46851  11.004  11.304  12.631
48340SOL    HW146852  10.951  11.325  12.708
48340SOL    HW246853  11.005  11.208  12.628
48341SOL     OW46854  14.821  13.218   6.401
48341SOL    HW146855   0.014  13.182   6.458
48341SOL    HW246856  14.784  13.291   6.451
48342SOL     OW46857  12.245   0.275   6.907
48342SOL    HW146858  12.193   0.306   6.832
48342SOL    HW246859  12.328   0.245   6.868
48343SOL     OW46860  13.633  11.323   6.077
48343SOL    HW146861  13.593  11.252   6.028
48343SOL    HW246862  13.724  11.296   6.089
48344SOL     OW46863   5.130   2.281  12.433
48344SOL    HW146864   5.162   2.224  12.363
48344SOL    HW246865   5.042   2.246  12.453
48345SOL     OW46866   2.085   0.966   9.880
48345SOL    HW146867   2.105   0.897   9.943
48345SOL    HW246868   1.995   0.948   9.853
48346SOL     OW46869   4.116   2.804  11.811
48346SOL    HW146870   4.069   2.848  11.881
48346SOL    HW246871   4.192   2.860  11.795
48347SOL     OW46872   3.422  10.426  13.966
48347SOL    HW146873   3.405  10.498  13.905
48347SOL    HW246874   3.517  10.416  13.966
48348SOL     OW46875  13.762   8.793  11.764
48348SOL    HW146876  13.701   8.865  11.744
48348SOL    HW246877  13.716   8.740  11.829
48349SOL     OW46878  10.645  14.301   1.580
48349SOL    HW146879  10.643  14.262   1.492
48349SOL    HW246880  10.689  14.236   1.634
48350SOL     OW46881   7.930   7.863  11.979
48350SOL    HW146882   7.928   7.826  11.891
48350SOL    HW246883   7.926   7.957  11.966
48351SOL     OW46884   1.685   4.726   0.135
48351SOL    HW146885   1.599   4.702   0.100
48351SOL    HW246886   1.747   4.672   0.086
48352SOL     OW46887   5.928   0.525   5.513
48352SOL    HW146888   5.862   0.585   5.547
48352SOL    HW246889   6.011   0.565   5.538
48353SOL     OW46890  14.129  14.228   8.239
48353SOL    HW146891  14.121  14.309   8.289
48353SOL    HW246892  14.044  14.219   8.194
48354SOL     OW46893   8.651  12.858  14.371
48354SOL    HW146894   8.695  12.939  14.346
48354SOL    HW246895   8.619  12.874  14.460
48355SOL     OW46896  11.943  12.443   0.557
48355SOL    HW146897  11.952  12.471   0.648
48355SOL    HW246898  11.905  12.355   0.563
48356SOL     OW46899   7.016  11.354  13.483
48356SOL    HW146900   7.049  11.412  13.415
48356SOL    HW246901   7.094  11.317  13.524
48357SOL     OW46902   5.515  13.083   9.241
48357SOL    HW146903   5.465  13.149   9.288
48357SOL    HW246904   5.574  13.133   9.184
48358SOL     OW46905   9.971   5.414  14.545
48358SOL    HW146906   9.972   5.432  14.451
48358SOL    HW246907  10.063   5.417  14.571
48359SOL     OW46908   6.039   0.884  11.859
48359SOL    HW146909   6.076   0.812  11.808
48359SOL    HW246910   6.029   0.955  11.795
48360SOL     OW46911   6.721  12.953   5.573
48360SOL    HW146912   6.634  12.920   5.598
48360SOL    HW246913   6.703  13.036   5.530
48361SOL     OW46914   6.354   8.251  13.981
48361SOL    HW146915   6.294   8.232  13.909
48361SOL    HW246916   6.309   8.318  14.032
48362SOL     OW46917   9.952   3.360  13.323
48362SOL    HW146918   9.957   3.271  13.288
48362SOL    HW246919  10.029   3.404  13.287
48363SOL     OW46920   4.841  13.757   1.918
48363SOL    HW146921   4.828  13.736   2.011
48363SOL    HW246922   4.830  13.673   1.873
48364SOL     OW46923   8.770   0.068   0.950
48364SOL    HW146924   8.746   0.115   0.871
48364SOL    HW246925   8.804  14.860   0.919
48365SOL     OW46926  10.967   4.986   5.725
48365SOL    HW146927  10.955   5.047   5.653
48365SOL    HW246928  11.053   5.008   5.761
48366SOL     OW46929  10.753   1.510   9.063
48366SOL    HW146930  10.814   1.583   9.051
48366SOL    HW246931  10.770   1.480   9.152
48367SOL     OW46932   2.686   4.864  12.001
48367SOL    HW146933   2.697   4.923  11.927
48367SOL    HW246934   2.592   4.855  12.012
48368SOL     OW46935  11.001   2.514  14.876
48368SOL    HW146936  10.979   2.434   0.047
48368SOL    HW246937  10.957   2.583   0.048
48369SOL     OW46938   0.983  13.457   7.345
48369SOL    HW146939   1.007  13.415   7.262
48369SOL    HW246940   1.064  13.496   7.376
48370SOL     OW46941   5.177   8.484   9.327
48370SOL    HW146942   5.144   8.512   9.412
48370SOL    HW246943   5.141   8.396   9.315
48371SOL     OW46944   0.083  11.675   8.277
48371SOL    HW146945   0.005  11.625   8.254
48371SOL    HW246946   0.139  11.613   8.323
48372SOL     OW46947  10.783   6.600   7.302
48372SOL    HW146948  10.781   6.683   7.253
48372SOL    HW246949  10.860   6.554   7.269
48373SOL     OW46950   0.005  11.727   1.194
48373SOL    HW146951   0.083  11.734   1.139
48373SOL    HW246952  14.813  11.774   1.146
48374SOL     OW46953   2.193   1.106  11.744
48374SOL    HW146954   2.136   1.094  11.668
48374SOL    HW246955   2.235   1.191  11.730
48375SOL     OW46956   3.458   7.489   9.947
48375SOL    HW146957   3.524   7.454  10.008
48375SOL    HW246958   3.470   7.584   9.951
48376SOL     OW46959   4.786   9.501   1.529
48376SOL    HW146960   4.761   9.410   1.544
48376SOL    HW246961   4.830   9.500   1.444
48377SOL     OW46962  14.552   1.951  11.514
48377SOL    HW146963  14.595   1.886  11.459
48377SOL    HW246964  14.623   1.996  11.559
48378SOL     OW46965   7.151  13.290  14.637
48378SOL    HW146966   7.084  13.333  14.584
48378SOL    HW246967   7.133  13.320  14.726
48379SOL     OW46968   1.267   8.097  12.649
48379SOL    HW146969   1.276   8.059  12.562
48379SOL    HW246970   1.339   8.058  12.700
48380SOL     OW46971   8.210   1.807   0.028
48380SOL    HW146972   8.238   1.890  14.865
48380SOL    HW246973   8.280   1.745   0.006
48381SOL     OW46974   1.013  12.472   1.054
48381SOL    HW146975   1.089  12.495   1.001
48381SOL    HW246976   1.045  12.472   1.144
48382SOL     OW46977  14.757   5.528   1.918
48382SOL    HW146978  14.780   5.546   1.827
48382SOL    HW246979  14.777   5.610   1.964
48383SOL     OW46980   5.222  10.951  14.243
48383SOL    HW146981   5.151  10.920  14.186
48383SOL    HW246982   5.233  11.043  14.219
48384SOL     OW46983  10.392  11.499   5.186
48384SOL    HW146984  10.434  11.423   5.227
48384SOL    HW246985  10.299  11.488   5.206
48385SOL     OW46986   1.778   0.727   4.695
48385SOL    HW146987   1.873   0.731   4.698
48385SOL    HW246988   1.751   0.803   4.645
48386SOL     OW46989  12.690  10.239  10.871
48386SOL    HW146990  12.722  10.326  10.849
48386SOL    HW246991  12.709  10.229  10.964
48387SOL     OW46992   7.345   7.436   2.574
48387SOL    HW146993   7.327   7.403   2.487
48387SOL    HW246994   7.359   7.530   2.562
48388SOL     OW46995   6.064   1.854  11.282
48388SOL    HW146996   6.026   1.819  11.362
48388SOL    HW246997   6.044   1.948  11.285
48389SOL     OW46998   5.432   6.064  12.015
48389SOL    HW146999   5.459   6.121  11.943
48389SOL    HW247000   5.338   6.078  12.022
48390SOL     OW47001  14.122   1.690   8.348
48390SOL    HW147002  14.155   1.643   8.271
48390SOL    HW247003  14.156   1.779   8.338
48391SOL     OW47004   3.845   9.336  10.428
48391SOL    HW147005   3.904   9.366  10.497
48391SOL    HW247006   3.770   9.299  10.475
48392SOL     OW47007  10.485   9.494   4.764
48392SOL    HW147008  10.518   9.409   4.735
48392SOL    HW247009  10.564   9.547   4.776
48393SOL     OW47010  12.519   4.782  10.681
48393SOL    HW147011  12.487   4.769  10.592
48393SOL    HW247012  12.612   4.757  10.677
48394SOL     OW47013   0.973  13.453   2.954
48394SOL    HW147014   0.986  13.504   3.034
48394SOL    HW247015   0.930  13.373   2.984
48395SOL     OW47016   3.695   9.653   5.836
48395SOL    HW147017   3.658   9.565   5.830
48395SOL    HW247018   3.646   9.704   5.772
48396SOL     OW47019   5.496   8.774   5.014
48396SOL    HW147020   5.528   8.690   5.049
48396SOL    HW247021   5.427   8.801   5.074
48397SOL     OW47022   9.546   2.011  11.845
48397SOL    HW147023   9.623   1.998  11.901
48397SOL    HW247024   9.475   2.030  11.906
48398SOL     OW47025  14.633  11.091   4.290
48398SOL    HW147026  14.705  11.028   4.295
48398SOL    HW247027  14.620  11.119   4.381
48399SOL     OW47028   3.741  10.134   4.664
48399SOL    HW147029   3.803  10.190   4.617
48399SOL    HW247030   3.760  10.046   4.633
48400SOL     OW47031   0.737   7.639   3.182
48400SOL    HW147032   0.802   7.588   3.230
48400SOL    HW247033   0.658   7.636   3.237
48401SOL     OW47034  12.991   6.409  11.862
48401SOL    HW147035  12.942   6.359  11.797
48401SOL    HW247036  12.961   6.499  11.852
48402SOL     OW47037   2.776   6.376   5.556
48402SOL    HW147038   2.808   6.301   5.606
48402SOL    HW247039   2.854   6.412   5.513
48403SOL     OW47040   8.671   1.765   6.870
48403SOL    HW147041   8.668   1.687   6.815
48403SOL    HW247042   8.609   1.825   6.829
48404SOL     OW47043  12.795   3.224   8.665
48404SOL    HW147044  12.781   3.162   8.737
48404SOL    HW247045  12.790   3.310   8.707
48405SOL     OW47046  10.455  13.104  13.629
48405SOL    HW147047  10.483  13.149  13.709
48405SOL    HW247048  10.537  13.081  13.584
48406SOL     OW47049  13.155  10.401  10.719
48406SOL    HW147050  13.248  10.378  10.728
48406SOL    HW247051  13.149  10.489  10.755
48407SOL     OW47052   5.580  11.674  10.306
48407SOL    HW147053   5.516  11.648  10.239
48407SOL    HW247054   5.533  11.665  10.389
48408SOL     OW47055   2.206   1.349  12.737
48408SOL    HW147056   2.301   1.338  12.742
48408SOL    HW247057   2.193   1.416  12.669
48409SOL     OW47058   1.920  13.743  12.599
48409SOL    HW147059   1.935  13.727  12.505
48409SOL    HW247060   1.888  13.660  12.633
48410SOL     OW47061  12.955   9.911   5.496
48410SOL    HW147062  12.968   9.818   5.512
48410SOL    HW247063  12.995   9.928   5.411
48411SOL     OW47064  11.587  10.099   4.272
48411SOL    HW147065  11.584  10.140   4.358
48411SOL    HW247066  11.660  10.038   4.276
48412SOL     OW47067  13.779   8.918   9.232
48412SOL    HW147068  13.778   8.862   9.154
48412SOL    HW247069  13.872   8.941   9.243
48413SOL     OW47070   8.192   2.008   9.710
48413SOL    HW147071   8.167   2.005   9.618
48413SOL    HW247072   8.110   2.025   9.756
48414SOL     OW47073   0.165  13.487   0.137
48414SOL    HW147074   0.260  13.473   0.142
48414SOL    HW247075   0.143  13.468   0.046
48415SOL     OW47076  13.986   0.494   7.415
48415SOL    HW147077  13.973   0.421   7.475
48415SOL    HW247078  14.078   0.518   7.425
48416SOL     OW47079   8.260   4.553   0.558
48416SOL    HW147080   8.211   4.531   0.480
48416SOL    HW247081   8.194   4.580   0.622
48417SOL     OW47082   2.629  11.926  11.562
48417SOL    HW147083   2.666  12.001  11.514
48417SOL    HW247084   2.539  11.920  11.530
48418SOL     OW47085   4.052   4.380  11.926
48418SOL    HW147086   3.999   4.371  12.006
48418SOL    HW247087   3.990   4.412  11.860
48419SOL     OW47088   1.842  13.548   2.902
48419SOL    HW147089   1.926  13.508   2.923
48419SOL    HW247090   1.856  13.594   2.820
48420SOL     OW47091  13.154   3.712  11.578
48420SOL    HW147092  13.106   3.709  11.495
48420SOL    HW247093  13.239   3.749  11.555
48421SOL     OW47094   5.602   1.259   4.188
48421SOL    HW147095   5.617   1.167   4.163
48421SOL    HW247096   5.537   1.290   4.125
48422SOL     OW47097  12.392   1.320   8.124
48422SOL    HW147098  12.436   1.246   8.165
48422SOL    HW247099  12.438   1.397   8.157
48423SOL     OW47100  12.899  10.785  14.300
48423SOL    HW147101  12.897  10.748  14.211
48423SOL    HW247102  12.808  10.811  14.316
48424SOL     OW47103  12.342   6.351   6.760
48424SOL    HW147104  12.325   6.411   6.687
48424SOL    HW247105  12.426   6.380   6.795
48425SOL     OW47106   2.002   8.331   8.354
48425SOL    HW147107   1.993   8.406   8.413
48425SOL    HW247108   1.948   8.354   8.279
48426SOL     OW47109  12.613   0.407   9.597
48426SOL    HW147110  12.657   0.456   9.527
48426SOL    HW247111  12.632   0.458   9.676
48427SOL     OW47112   9.449   2.260   2.476
48427SOL    HW147113   9.479   2.173   2.448
48427SOL    HW247114   9.396   2.292   2.403
48428SOL     OW47115   8.201  12.416   0.182
48428SOL    HW147116   8.247  12.352   0.127
48428SOL    HW247117   8.262  12.491   0.186
48429SOL     OW47118   0.850   5.923   6.676
48429SOL    HW147119   0.910   5.902   6.748
48429SOL    HW247120   0.810   6.006   6.701
48430SOL     OW47121   7.295   9.681  14.493
48430SOL    HW147122   7.352   9.649  14.422
48430SOL    HW247123   7.207   9.658  14.465
48431SOL     OW47124   8.924   1.397  11.414
48431SOL    HW147125   8.948   1.322  11.360
48431SOL    HW247126   8.901   1.466  11.352
48432SOL     OW47127   3.996  13.775  12.240
48432SOL    HW147128   4.026  13.865  12.256
48432SOL    HW247129   4.075  13.729  12.209
48433SOL     OW47130   1.918  10.046   2.674
48433SOL    HW147131   1.976  10.047   2.751
48433SOL    HW247132   1.887   9.955   2.669
48434SOL     OW47133   1.928   5.963   0.856
48434SOL    HW147134   2.000   5.930   0.801
48434SOL    HW247135   1.945   6.058   0.861
48435SOL     OW47136   1.703   4.257   7.201
48435SOL    HW147137   1.628   4.270   7.258
48435SOL    HW247138   1.755   4.337   7.209
48436SOL     OW47139   0.408   9.811  14.565
48436SOL    HW147140   0.325   9.765  14.573
48436SOL    HW247141   0.385   9.896  14.527
48437SOL     OW47142   6.944  11.121  11.846
48437SOL    HW147143   6.879  11.096  11.912
48437SOL    HW247144   7.027  11.121  11.893
48438SOL     OW47145   1.449   5.487  12.567
48438SOL    HW147146   1.430   5.445  12.483
48438SOL    HW247147   1.367   5.531  12.591
48439SOL     OW47148  11.239   5.345   5.889
48439SOL    HW147149  11.145   5.347   5.907
48439SOL    HW247150  11.260   5.434   5.863
48440SOL     OW47151   7.521   8.060   1.360
48440SOL    HW147152   7.486   8.098   1.279
48440SOL    HW247153   7.616   8.070   1.352
48441SOL     OW47154  14.166   6.493  13.620
48441SOL    HW147155  14.141   6.455  13.536
48441SOL    HW247156  14.207   6.577  13.597
48442SOL     OW47157   1.888   4.266   8.114
48442SOL    HW147158   1.794   4.284   8.124
48442SOL    HW247159   1.930   4.322   8.179
48443SOL     OW47160   8.540   8.316   1.062
48443SOL    HW147161   8.492   8.233   1.053
48443SOL    HW247162   8.524   8.343   1.152
48444SOL     OW47163  14.672  11.843   3.889
48444SOL    HW147164  14.615  11.812   3.959
48444SOL    HW247165  14.645  11.793   3.812
48445SOL     OW47166   0.216   8.027   0.491
48445SOL    HW147167   0.163   7.996   0.564
48445SOL    HW247168   0.175   8.109   0.465
48446SOL     OW47169   6.595  13.401   2.867
48446SOL    HW147170   6.552  13.344   2.931
48446SOL    HW247171   6.560  13.372   2.783
48447SOL     OW47172   6.274   1.114   3.493
48447SOL    HW147173   6.225   1.070   3.562
48447SOL    HW247174   6.356   1.065   3.487
48448SOL     OW47175   5.323  14.153   3.480
48448SOL    HW147176   5.390  14.177   3.543
48448SOL    HW247177   5.359  14.178   3.395
48449SOL     OW47178   6.204   2.003   7.267
48449SOL    HW147179   6.125   2.053   7.243
48449SOL    HW247180   6.205   1.930   7.206
48450SOL     OW47181  10.891   4.559   9.271
48450SOL    HW147182  10.804   4.527   9.298
48450SOL    HW247183  10.875   4.650   9.245
48451SOL     OW47184  14.373   8.296  11.174
48451SOL    HW147185  14.294   8.295  11.120
48451SOL    HW247186  14.351   8.354  11.247
48452SOL     OW47187  11.625   7.593   2.081
48452SOL    HW147188  11.717   7.587   2.055
48452SOL    HW247189  11.599   7.682   2.058
48453SOL     OW47190   5.294   9.886   7.812
48453SOL    HW147191   5.366   9.840   7.768
48453SOL    HW247192   5.215   9.841   7.782
48454SOL     OW47193   1.520   8.475  10.997
48454SOL    HW147194   1.547   8.528  11.072
48454SOL    HW247195   1.425   8.481  10.996
48455SOL     OW47196  10.709  10.180   2.777
48455SOL    HW147197  10.758  10.256   2.809
48455SOL    HW247198  10.727  10.111   2.841
48456SOL     OW47199  11.420   8.684  13.439
48456SOL    HW147200  11.436   8.672  13.346
48456SOL    HW247201  11.480   8.754  13.465
48457SOL     OW47202   0.129   0.036   6.829
48457SOL    HW147203   0.071   0.090   6.882
48457SOL    HW247204   0.132  14.828   6.874
48458SOL     OW47205  11.024  13.784   0.655
48458SOL    HW147206  10.942  13.816   0.692
48458SOL    HW247207  11.081  13.861   0.651
48459SOL     OW47208   1.505   4.932  10.750
48459SOL    HW147209   1.471   5.014  10.713
48459SOL    HW247210   1.483   4.866  10.684
48460SOL     OW47211  11.822  10.048   6.948
48460SOL    HW147212  11.882   9.974   6.940
48460SOL    HW247213  11.789  10.043   7.038
48461SOL     OW47214  10.976   3.423  11.851
48461SOL    HW147215  10.948   3.473  11.774
48461SOL    HW247216  10.918   3.347  11.853
48462SOL     OW47217   9.458   4.604   4.506
48462SOL    HW147218   9.473   4.546   4.581
48462SOL    HW247219   9.537   4.593   4.452
48463SOL     OW47220  14.193   8.756   2.309
48463SOL    HW147221  14.192   8.829   2.248
48463SOL    HW247222  14.278   8.715   2.297
48464SOL     OW47223  12.399   0.783   3.807
48464SOL    HW147224  12.325   0.816   3.858
48464SOL    HW247225  12.383   0.815   3.718
48465SOL     OW47226   5.025  13.383   1.839
48465SOL    HW147227   5.020  13.319   1.768
48465SOL    HW247228   5.011  13.332   1.919
48466SOL     OW47229   8.181   6.346  13.769
48466SOL    HW147230   8.096   6.391  13.775
48466SOL    HW247231   8.213   6.341  13.859
48467SOL     OW47232   3.648   0.091   4.260
48467SOL    HW147233   3.642   0.146   4.181
48467SOL    HW247234   3.684   0.150   4.327
48468SOL     OW47235  10.932   7.636  14.086
48468SOL    HW147236  10.877   7.656  14.010
48468SOL    HW247237  10.911   7.545  14.107
48469SOL     OW47238   9.966   1.194   4.083
48469SOL    HW147239  10.059   1.178   4.097
48469SOL    HW247240   9.929   1.196   4.172
48470SOL     OW47241  11.717  11.402  13.240
48470SOL    HW147242  11.726  11.363  13.153
48470SOL    HW247243  11.629  11.440  13.239
48471SOL     OW47244   9.305   1.529  13.486
48471SOL    HW147245   9.262   1.483  13.414
48471SOL    HW247246   9.261   1.614  13.490
48472SOL     OW47247  14.787  10.730  11.955
48472SOL    HW147248  14.874  10.701  11.983
48472SOL    HW247249  14.728  10.702  12.025
48473SOL     OW47250   1.780   8.822  13.776
48473SOL    HW147251   1.769   8.884  13.848
48473SOL    HW247252   1.844   8.758  13.808
48474SOL     OW47253  10.980   6.403  12.445
48474SOL    HW147254  11.074   6.413  12.433
48474SOL    HW247255  10.959   6.456  12.522
48475SOL     OW47256   1.338  10.710  11.098
48475SOL    HW147257   1.363  10.801  11.117
48475SOL    HW247258   1.259  10.696  11.150
48476SOL     OW47259   4.470  10.826   5.799
48476SOL    HW147260   4.545  10.814   5.741
48476SOL    HW247261   4.411  10.754   5.777
48477SOL     OW47262   0.638   6.646   6.199
48477SOL    HW147263   0.682   6.699   6.266
48477SOL    HW247264   0.710   6.614   6.143
48478SOL     OW47265   5.723  13.208   8.495
48478SOL    HW147266   5.656  13.257   8.542
48478SOL    HW247267   5.791  13.190   8.560
48479SOL     OW47268   0.294   5.609  13.203
48479SOL    HW147269   0.353   5.665  13.253
48479SOL    HW247270   0.345   5.582  13.127
48480SOL     OW47271  14.263   3.998  12.253
48480SOL    HW147272  14.260   3.945  12.333
48480SOL    HW247273  14.189   4.059  12.262
48481SOL     OW47274   5.038   5.466   2.383
48481SOL    HW147275   4.980   5.390   2.391
48481SOL    HW247276   5.000   5.518   2.313
48482SOL     OW47277   3.132  13.232  13.968
48482SOL    HW147278   3.096  13.208  14.053
48482SOL    HW247279   3.222  13.200  13.969
48483SOL     OW47280   7.189  14.394  14.084
48483SOL    HW147281   7.213  14.482  14.111
48483SOL    HW247282   7.271  14.345  14.086
48484SOL     OW47283   8.883  13.528   3.519
48484SOL    HW147284   8.855  13.502   3.431
48484SOL    HW247285   8.861  13.453   3.574
48485SOL     OW47286   3.530   1.155  10.234
48485SOL    HW147287   3.587   1.182  10.305
48485SOL    HW247288   3.453   1.116  10.277
48486SOL     OW47289   1.923   0.396   6.590
48486SOL    HW147290   1.831   0.402   6.614
48486SOL    HW247291   1.954   0.487   6.590
48487SOL     OW47292  11.844   3.996   0.588
48487SOL    HW147293  11.867   3.921   0.643
48487SOL    HW247294  11.927   4.041   0.573
48488SOL     OW47295   5.111  12.122   1.400
48488SOL    HW147296   5.197  12.082   1.410
48488SOL    HW247297   5.061  12.059   1.347
48489SOL     OW47298   9.254   5.539   6.484
48489SOL    HW147299   9.232   5.454   6.446
48489SOL    HW247300   9.248   5.600   6.411
48490SOL     OW47301   2.975   0.560   6.668
48490SOL    HW147302   2.945   0.651   6.662
48490SOL    HW247303   2.964   0.525   6.580
48491SOL     OW47304   0.648  11.354   3.058
48491SOL    HW147305   0.623  11.366   3.150
48491SOL    HW247306   0.573  11.309   3.018
48492SOL     OW47307  12.095   0.869  10.927
48492SOL    HW147308  12.142   0.870  10.844
48492SOL    HW247309  12.147   0.924  10.986
48493SOL     OW47310  14.792   8.038   8.633
48493SOL    HW147311  14.772   8.102   8.564
48493SOL    HW247312  14.752   8.074   8.711
48494SOL     OW47313   3.746   5.478   6.943
48494SOL    HW147314   3.681   5.424   6.988
48494SOL    HW247315   3.695   5.530   6.881
48495SOL     OW47316  12.239   2.094  11.604
48495SOL    HW147317  12.182   2.159  11.564
48495SOL    HW247318  12.191   2.065  11.682
48496SOL     OW47319  10.501  11.249   6.466
48496SOL    HW147320  10.543  11.163   6.471
48496SOL    HW247321  10.409  11.231   6.485
48497SOL     OW47322   3.248   9.823  10.220
48497SOL    HW147323   3.216   9.841  10.309
48497SOL    HW247324   3.312   9.753  10.233
48498SOL     OW47325  10.058   9.530   4.397
48498SOL    HW147326  10.014   9.558   4.477
48498SOL    HW247327  10.022   9.444   4.378
48499SOL     OW47328   1.286   0.703   3.276
48499SOL    HW147329   1.307   0.724   3.367
48499SOL    HW247330   1.361   0.735   3.226
48500SOL     OW47331   3.124  10.313   0.397
48500SOL    HW147332   3.188  10.255   0.437
48500SOL    HW247333   3.082  10.358   0.471
48501SOL     OW47334   1.498   5.744   2.838
48501SOL    HW147335   1.592   5.727   2.831
48501SOL    HW247336   1.485   5.774   2.928
48502SOL     OW47337   1.982  10.019  11.049
48502SOL    HW147338   1.932  10.000  10.969
48502SOL    HW247339   1.948  10.103  11.079
48503SOL     OW47340  13.101   1.401  13.688
48503SOL    HW147341  13.055   1.484  13.672
48503SOL    HW247342  13.189   1.415  13.652
48504SOL     OW47343   8.526  14.827   1.957
48504SOL    HW147344   8.590  14.817   1.888
48504SOL    HW247345   8.577  14.826   2.038
48505SOL     OW47346   0.833  13.315   8.811
48505SOL    HW147347   0.753  13.270   8.838
48505SOL    HW247348   0.880  13.251   8.758
48506SOL     OW47349   0.175   4.126  12.830
48506SOL    HW147350   0.187   4.033  12.849
48506SOL    HW247351   0.087   4.133  12.795
48507SOL     OW47352   3.849   1.580   7.130
48507SOL    HW147353   3.833   1.656   7.074
48507SOL    HW247354   3.766   1.566   7.175
48508SOL     OW47355   3.992  11.422  13.024
48508SOL    HW147356   4.059  11.490  13.038
48508SOL    HW247357   3.917  11.452  13.075
48509SOL     OW47358   2.516  10.912   9.737
48509SOL    HW147359   2.442  10.946   9.787
48509SOL    HW247360   2.485  10.908   9.647
48510SOL     OW47361  12.797   7.866   3.548
48510SOL    HW147362  12.725   7.892   3.605
48510SOL    HW247363  12.826   7.948   3.507
48511SOL     OW47364  10.213   4.622  14.869
48511SOL    HW147365  10.182   4.566   0.064
48511SOL    HW247366  10.291   4.664   0.029
48512SOL     OW47367   4.421  13.279   0.042
48512SOL    HW147368   4.329  13.280   0.016
48512SOL    HW247369   4.468  13.268  14.835
48513SOL     OW47370  12.256   2.773   1.984
48513SOL    HW147371  12.313   2.826   1.928
48513SOL    HW247372  12.286   2.791   2.073
48514SOL     OW47373   2.051   0.901  14.138
48514SOL    HW147374   2.050   0.900  14.043
48514SOL    HW247375   2.143   0.893  14.162
48515SOL     OW47376  12.434   4.404   1.710
48515SOL    HW147377  12.509   4.403   1.651
48515SOL    HW247378  12.436   4.491   1.750
48516SOL     OW47379  10.078   2.837   8.408
48516SOL    HW147380  10.029   2.774   8.460
48516SOL    HW247381  10.097   2.909   8.468
48517SOL     OW47382   0.915   2.851   2.253
48517SOL    HW147383   0.834   2.889   2.289
48517SOL    HW247384   0.920   2.764   2.293
48518SOL     OW47385  11.910  14.604   5.886
48518SOL    HW147386  11.987  14.660   5.876
48518SOL    HW247387  11.912  14.547   5.809
48519SOL     OW47388  12.984  12.120   4.741
48519SOL    HW147389  13.005  12.181   4.670
48519SOL    HW247390  12.894  12.142   4.765
48520SOL     OW47391   7.507   1.487   2.102
48520SOL    HW147392   7.549   1.467   2.018
48520SOL    HW247393   7.577   1.520   2.157
48521SOL     OW47394   9.722   5.184   4.577
48521SOL    HW147395   9.774   5.259   4.604
48521SOL    HW247396   9.765   5.153   4.497
48522SOL     OW47397   7.464   8.619  13.583
48522SOL    HW147398   7.438   8.662  13.502
48522SOL    HW247399   7.498   8.689  13.638
48523SOL     OW47400   9.186  13.901  10.127
48523SOL    HW147401   9.238  13.835  10.081
48523SOL    HW247402   9.248  13.972  10.145
48524SOL     OW47403  10.206   2.677   7.618
48524SOL    HW147404  10.254   2.734   7.558
48524SOL    HW247405  10.114   2.690   7.593
48525SOL     OW47406   1.278   9.649  13.583
48525SOL    HW147407   1.267   9.594  13.660
48525SOL    HW247408   1.306   9.734  13.618
48526SOL     OW47409  13.155   9.458  14.624
48526SOL    HW147410  13.141   9.552  14.632
48526SOL    HW247411  13.106   9.433  14.546
48527SOL     OW47412   2.227   6.237   5.058
48527SOL    HW147413   2.229   6.290   4.979
48527SOL    HW247414   2.285   6.283   5.119
48528SOL     OW47415   3.342   1.129  14.065
48528SOL    HW147416   3.376   1.160  14.149
48528SOL    HW247417   3.289   1.053  14.087
48529SOL     OW47418   3.971  11.099  11.249
48529SOL    HW147419   4.040  11.164  11.238
48529SOL    HW247420   3.913  11.136  11.315
48530SOL     OW47421   7.327  14.014   8.599
48530SOL    HW147422   7.366  14.013   8.686
48530SOL    HW247423   7.258  14.081   8.604
48531SOL     OW47424   0.979   3.361  13.172
48531SOL    HW147425   0.989   3.283  13.118
48531SOL    HW247426   1.045   3.352  13.241
48532SOL     OW47427  11.931   5.860   0.140
48532SOL    HW147428  11.956   5.924   0.207
48532SOL    HW247429  12.012   5.841   0.093
48533SOL     OW47430   0.744  11.093   5.054
48533SOL    HW147431   0.824  11.073   5.103
48533SOL    HW247432   0.674  11.084   5.118
48534SOL     OW47433   5.940   5.086  11.468
48534SOL    HW147434   6.009   5.069  11.404
48534SOL    HW247435   5.880   5.146  11.422
48535SOL     OW47436  13.625   9.597   0.747
48535SOL    HW147437  13.600   9.510   0.716
48535SOL    HW247438  13.716   9.587   0.776
48536SOL     OW47439   7.072   0.902   3.246
48536SOL    HW147440   6.977   0.896   3.253
48536SOL    HW247441   7.103   0.921   3.334
48537SOL     OW47442   7.575   3.834   2.974
48537SOL    HW147443   7.510   3.870   3.034
48537SOL    HW247444   7.636   3.786   3.031
48538SOL     OW47445   4.290  10.920  11.547
48538SOL    HW147446   4.297  10.896  11.640
48538SOL    HW247447   4.380  10.920  11.516
48539SOL     OW47448  14.373  13.068   0.644
48539SOL    HW147449  14.310  12.998   0.666
48539SOL    HW247450  14.404  13.099   0.729
48540SOL     OW47451  10.806  12.837   9.134
48540SOL    HW147452  10.845  12.846   9.221
48540SOL    HW247453  10.720  12.880   9.142
48541SOL     OW47454  14.188  11.277   3.307
48541SOL    HW147455  14.209  11.370   3.296
48541SOL    HW247456  14.094  11.271   3.293
48542SOL     OW47457  11.297   4.211  10.473
48542SOL    HW147458  11.235   4.167  10.415
48542SOL    HW247459  11.264   4.301  10.481
48543SOL     OW47460  13.714   5.782  13.111
48543SOL    HW147461  13.644   5.847  13.110
48543SOL    HW247462  13.759   5.794  13.028
48544SOL     OW47463  11.125   9.702  13.915
48544SOL    HW147464  11.122   9.797  13.913
48544SOL    HW247465  11.142   9.676  13.825
48545SOL     OW47466  14.803   5.998   4.524
48545SOL    HW147467  14.758   6.078   4.495
48545SOL    HW247468  14.805   5.942   4.446
48546SOL     OW47469  12.967   6.311  12.558
48546SOL    HW147470  13.056   6.308  12.594
48546SOL    HW247471  12.913   6.269  12.625
48547SOL     OW47472   9.582  12.763   2.488
48547SOL    HW147473   9.491  12.785   2.504
48547SOL    HW247474   9.583  12.729   2.398
48548SOL     OW47475   7.202   5.778   1.613
48548SOL    HW147476   7.223   5.686   1.594
48548SOL    HW247477   7.150   5.807   1.539
48549SOL     OW47478  11.567   1.671  10.199
48549SOL    HW147479  11.599   1.637  10.116
48549SOL    HW247480  11.602   1.612  10.265
48550SOL     OW47481  11.895   5.837   9.482
48550SOL    HW147482  11.940   5.792   9.411
48550SOL    HW247483  11.820   5.782   9.502
48551SOL     OW47484  10.023   8.177   5.730
48551SOL    HW147485  10.091   8.162   5.795
48551SOL    HW247486  10.011   8.091   5.688
48552SOL     OW47487  11.019   6.989   9.390
48552SOL    HW147488  10.981   6.910   9.350
48552SOL    HW247489  10.964   7.061   9.357
48553SOL     OW47490  12.780  13.846   2.194
48553SOL    HW147491  12.761  13.757   2.165
48553SOL    HW247492  12.826  13.886   2.120
48554SOL     OW47493   1.616  10.924  14.583
48554SOL    HW147494   1.581  10.986  14.647
48554SOL    HW247495   1.585  10.955  14.499
48555SOL     OW47496  14.502  13.312   3.927
48555SOL    HW147497  14.545  13.273   4.003
48555SOL    HW247498  14.498  13.241   3.863
48556SOL     OW47499   4.080   1.806  12.139
48556SOL    HW147500   4.063   1.860  12.216
48556SOL    HW247501   4.125   1.864  12.078
48557SOL     OW47502  12.659   6.601  10.423
48557SOL    HW147503  12.568   6.574  10.417
48557SOL    HW247504  12.708   6.529  10.383
48558SOL     OW47505   9.665  14.387   3.380
48558SOL    HW147506   9.641  14.382   3.287
48558SOL    HW247507   9.619  14.313   3.420
48559SOL     OW47508  13.927   3.995   5.234
48559SOL    HW147509  13.847   4.007   5.285
48559SOL    HW247510  13.908   4.036   5.149
48560SOL     OW47511   7.149   3.904   6.891
48560SOL    HW147512   7.071   3.958   6.880
48560SOL    HW247513   7.169   3.911   6.985
48561SOL     OW47514  14.171   6.221   4.995
48561SOL    HW147515  14.119   6.155   4.947
48561SOL    HW247516  14.154   6.202   5.087
48562SOL     OW47517   9.458   6.438  12.548
48562SOL    HW147518   9.497   6.410  12.631
48562SOL    HW247519   9.418   6.522  12.568
48563SOL     OW47520   7.098   2.816   2.923
48563SOL    HW147521   7.100   2.762   2.844
48563SOL    HW247522   7.008   2.845   2.931
48564SOL     OW47523   7.113   2.249   3.976
48564SOL    HW147524   7.138   2.236   3.885
48564SOL    HW247525   7.038   2.308   3.972
48565SOL     OW47526  10.909   2.258   4.513
48565SOL    HW147527  10.973   2.242   4.582
48565SOL    HW247528  10.904   2.175   4.466
48566SOL     OW47529   7.756   1.287   5.409
48566SOL    HW147530   7.815   1.264   5.481
48566SOL    HW247531   7.773   1.220   5.342
48567SOL     OW47532   6.635   5.421   8.565
48567SOL    HW147533   6.540   5.419   8.556
48567SOL    HW247534   6.667   5.397   8.478
48568SOL     OW47535   9.884   6.934  14.355
48568SOL    HW147536   9.902   7.026  14.374
48568SOL    HW247537   9.881   6.930  14.259
48569SOL     OW47538   8.759   2.656   9.574
48569SOL    HW147539   8.708   2.639   9.653
48569SOL    HW247540   8.791   2.745   9.584
48570SOL     OW47541  12.618  10.055  10.691
48570SOL    HW147542  12.528  10.089  10.686
48570SOL    HW247543  12.653  10.094  10.772
48571SOL     OW47544   5.843   9.509   9.760
48571SOL    HW147545   5.931   9.529   9.791
48571SOL    HW247546   5.848   9.418   9.729
48572SOL     OW47547   3.813  11.693  13.531
48572SOL    HW147548   3.899  11.735  13.533
48572SOL    HW247549   3.829  11.607  13.493
48573SOL     OW47550   1.073   3.470   1.020
48573SOL    HW147551   0.995   3.457   1.073
48573SOL    HW247552   1.043   3.519   0.944
48574SOL     OW47553   8.909   5.422  10.335
48574SOL    HW147554   8.858   5.445  10.412
48574SOL    HW247555   8.987   5.378  10.369
48575SOL     OW47556   9.305   7.773   2.101
48575SOL    HW147557   9.256   7.741   2.025
48575SOL    HW247558   9.356   7.847   2.067
48576SOL     OW47559  12.013  12.792  12.035
48576SOL    HW147560  11.924  12.816  12.062
48576SOL    HW247561  12.055  12.763  12.116
48577SOL     OW47562  14.001  11.702   0.234
48577SOL    HW147563  13.965  11.767   0.293
48577SOL    HW247564  13.924  11.657   0.199
48578SOL     OW47565  10.431   3.333  13.125
48578SOL    HW147566  10.374   3.374  13.190
48578SOL    HW247567  10.474   3.262  13.172
48579SOL     OW47568   1.684  12.941   0.006
48579SOL    HW147569   1.619  12.954  14.812
48579SOL    HW247570   1.725  13.026   0.016
48580SOL     OW47571   3.187  14.217  12.072
48580SOL    HW147572   3.100  14.253  12.056
48580SOL    HW247573   3.244  14.294  12.076
48581SOL     OW47574   5.001   3.748   3.271
48581SOL    HW147575   4.989   3.653   3.278
48581SOL    HW247576   5.014   3.777   3.362
48582SOL     OW47577  10.291   7.855  12.746
48582SOL    HW147578  10.370   7.852  12.800
48582SOL    HW247579  10.233   7.916  12.791
48583SOL     OW47580  10.139   7.780  13.331
48583SOL    HW147581  10.055   7.825  13.322
48583SOL    HW247582  10.116   7.687  13.331
48584SOL     OW47583  13.912   1.480  14.862
48584SOL    HW147584  13.872   1.486   0.073
48584SOL    HW247585  13.939   1.389  14.854
48585SOL     OW47586  12.761  14.791   9.053
48585SOL    HW147587  12.683  14.763   9.005
48585SOL    HW247588  12.816  14.833   8.987
48586SOL     OW47589   6.193   8.356  14.790
48586SOL    HW147590   6.169   8.387  14.703
48586SOL    HW247591   6.223   8.435  14.836
48587SOL     OW47592  11.958  10.347  11.644
48587SOL    HW147593  11.915  10.263  11.627
48587SOL    HW247594  12.013  10.361  11.567
48588SOL     OW47595  11.732   0.687   0.769
48588SOL    HW147596  11.758   0.772   0.735
48588SOL    HW247597  11.813   0.635   0.770
48589SOL     OW47598   7.759   4.924  14.162
48589SOL    HW147599   7.703   4.986  14.115
48589SOL    HW247600   7.841   4.923  14.112
48590SOL     OW47601   0.953   9.270  14.696
48590SOL    HW147602   0.873   9.322  14.707
48590SOL    HW247603   1.021   9.335  14.677
48591SOL     OW47604  12.941   8.514   8.478
48591SOL    HW147605  12.945   8.428   8.436
48591SOL    HW247606  12.939   8.495   8.571
48592SOL     OW47607  13.027   1.062   9.212
48592SOL    HW147608  12.987   1.089   9.129
48592SOL    HW247609  13.013   1.136   9.271
48593SOL     OW47610  13.085  14.576   7.326
48593SOL    HW147611  13.170  14.572   7.282
48593SOL    HW247612  13.086  14.503   7.388
48594SOL     OW47613  13.886   9.845   4.842
48594SOL    HW147614  13.806   9.864   4.793
48594SOL    HW247615  13.927   9.930   4.856
48595SOL     OW47616  10.893   7.652   3.378
48595SOL    HW147617  10.798   7.653   3.392
48595SOL    HW247618  10.918   7.745   3.379
48596SOL     OW47619   5.826  14.285  12.351
48596SOL    HW147620   5.883  14.275  12.274
48596SOL    HW247621   5.808  14.379  12.356
48597SOL     OW47622   4.998  11.988  12.150
48597SOL    HW147623   4.938  11.974  12.224
48597SOL    HW247624   4.983  11.912  12.093
48598SOL     OW47625  10.765   0.637  14.573
48598SOL    HW147626  10.671   0.635  14.558
48598SOL    HW247627  10.776   0.604  14.662
48599SOL     OW47628   6.679   8.890   4.016
48599SOL    HW147629   6.609   8.893   4.082
48599SOL    HW247630   6.683   8.979   3.982
48600SOL     OW47631   1.131   4.896   1.800
48600SOL    HW147632   1.049   4.907   1.850
48600SOL    HW247633   1.133   4.803   1.778
48601SOL     OW47634   7.332   1.578  14.184
48601SOL    HW147635   7.284   1.661  14.180
48601SOL    HW247636   7.327   1.552  14.276
48602SOL     OW47637  10.071   0.867   4.576
48602SOL    HW147638  10.062   0.792   4.635
48602SOL    HW247639  10.060   0.944   4.633
48603SOL     OW47640   2.561   6.594   1.692
48603SOL    HW147641   2.565   6.559   1.603
48603SOL    HW247642   2.632   6.550   1.738
48604SOL     OW47643   0.910  11.563  12.165
48604SOL    HW147644   0.821  11.583  12.139
48604SOL    HW247645   0.910  11.468  12.179
48605SOL     OW47646   5.186  11.728  10.662
48605SOL    HW147647   5.094  11.753  10.667
48605SOL    HW247648   5.190  11.640  10.699
48606SOL     OW47649   8.815  12.594   3.914
48606SOL    HW147650   8.884  12.657   3.894
48606SOL    HW247651   8.736  12.646   3.924
48607SOL     OW47652   8.338   8.478   4.325
48607SOL    HW147653   8.346   8.410   4.391
48607SOL    HW247654   8.420   8.527   4.331
48608SOL     OW47655   8.957   5.212   2.575
48608SOL    HW147656   9.047   5.181   2.587
48608SOL    HW247657   8.932   5.247   2.660
48609SOL     OW47658  14.484   7.328   5.599
48609SOL    HW147659  14.571   7.340   5.637
48609SOL    HW247660  14.427   7.384   5.651
48610SOL     OW47661   3.182   1.954  13.570
48610SOL    HW147662   3.099   1.973  13.526
48610SOL    HW247663   3.187   1.859  13.572
48611SOL     OW47664  12.217   1.564  14.514
48611SOL    HW147665  12.161   1.583  14.439
48611SOL    HW247666  12.157   1.553  14.587
48612SOL     OW47667   1.498   3.318   6.429
48612SOL    HW147668   1.542   3.313   6.344
48612SOL    HW247669   1.421   3.262   6.420
48613SOL     OW47670  12.837   7.639   1.297
48613SOL    HW147671  12.802   7.726   1.276
48613SOL    HW247672  12.803   7.582   1.228
48614SOL     OW47673   5.594   6.029   4.207
48614SOL    HW147674   5.653   6.100   4.232
48614SOL    HW247675   5.584   5.977   4.286
48615SOL     OW47676   2.603   0.415  12.428
48615SOL    HW147677   2.640   0.346  12.483
48615SOL    HW247678   2.599   0.491  12.485
48616SOL     OW47679   1.861   3.909  14.288
48616SOL    HW147680   1.868   3.845  14.359
48616SOL    HW247681   1.812   3.863  14.220
48617SOL     OW47682  12.811   4.593  11.159
48617SOL    HW147683  12.746   4.538  11.203
48617SOL    HW247684  12.896   4.559  11.189
48618SOL     OW47685   7.596  10.180   4.817
48618SOL    HW147686   7.531  10.246   4.791
48618SOL    HW247687   7.546  10.115   4.866
48619SOL     OW47688  14.689   0.539   8.740
48619SOL    HW147689  14.623   0.472   8.723
48619SOL    HW247690  14.683   0.599   8.665
48620SOL     OW47691  12.909   9.078   8.588
48620SOL    HW147692  12.992   9.079   8.540
48620SOL    HW247693  12.880   8.987   8.585
48621SOL     OW47694   1.225   0.305   3.841
48621SOL    HW147695   1.272   0.240   3.787
48621SOL    HW247696   1.294   0.349   3.890
48622SOL     OW47697   5.443  10.327  14.262
48622SOL    HW147698   5.382  10.268  14.306
48622SOL    HW247699   5.470  10.389  14.329
48623SOL     OW47700   2.011   0.411   5.958
48623SOL    HW147701   2.048   0.499   5.958
48623SOL    HW247702   1.935   0.417   6.015
48624SOL     OW47703   7.124   4.581   6.966
48624SOL    HW147704   7.092   4.655   6.914
48624SOL    HW247705   7.219   4.590   6.964
48625SOL     OW47706   5.926   8.541  14.081
48625SOL    HW147707   5.944   8.458  14.038
48625SOL    HW247708   5.831   8.551  14.077
48626SOL     OW47709  14.661   5.544   3.989
48626SOL    HW147710  14.752   5.555   3.965
48626SOL    HW247711  14.655   5.574   4.079
48627SOL     OW47712   4.394   0.264   9.078
48627SOL    HW147713   4.325   0.199   9.093
48627SOL    HW247714   4.473   0.212   9.064
48628SOL     OW47715   7.308   5.468  12.675
48628SOL    HW147716   7.371   5.524  12.721
48628SOL    HW247717   7.243   5.528  12.641
48629SOL     OW47718   0.792  10.911   4.346
48629SOL    HW147719   0.776  10.824   4.384
48629SOL    HW247720   0.872  10.900   4.294
48630SOL     OW47721  13.543   3.988   8.420
48630SOL    HW147722  13.580   3.995   8.509
48630SOL    HW247723  13.473   3.924   8.428
48631SOL     OW47724   5.250   4.766  10.328
48631SOL    HW147725   5.322   4.779  10.267
48631SOL    HW247726   5.181   4.725  10.276
48632SOL     OW47727   4.437  11.875   5.177
48632SOL    HW147728   4.445  11.818   5.101
48632SOL    HW247729   4.453  11.963   5.143
48633SOL     OW47730   4.504   9.347   7.499
48633SOL    HW147731   4.488   9.383   7.412
48633SOL    HW247732   4.469   9.413   7.559
48634SOL     OW47733  10.168   6.774  13.419
48634SOL    HW147734  10.079   6.739  13.410
48634SOL    HW247735  10.215   6.739  13.344
48635SOL     OW47736  10.526  11.272   5.606
48635SOL    HW147737  10.614  11.299   5.579
48635SOL    HW247738  10.514  11.186   5.564
48636SOL     OW47739  12.527  11.317   7.650
48636SOL    HW147740  12.476  11.249   7.694
48636SOL    HW247741  12.470  11.394   7.651
48637SOL     OW47742   6.553   4.985  11.736
48637SOL    HW147743   6.487   4.925  11.701
48637SOL    HW247744   6.541   4.982  11.831
48638SOL     OW47745   2.469  14.231  13.091
48638SOL    HW147746   2.378  14.258  13.091
48638SOL    HW247747   2.486  14.203  13.181
48639SOL     OW47748  13.444  13.537   0.073
48639SOL    HW147749  13.494  13.541   0.154
48639SOL    HW247750  13.390  13.616   0.075
48640SOL     OW47751   1.862   1.704  14.311
48640SOL    HW147752   1.818   1.756  14.243
48640SOL    HW247753   1.836   1.614  14.293
48641SOL     OW47754   6.600  12.399   2.454
48641SOL    HW147755   6.505  12.409   2.446
48641SOL    HW247756   6.632  12.397   2.363
48642SOL     OW47757   7.642   4.610  12.386
48642SOL    HW147758   7.674   4.700  12.379
48642SOL    HW247759   7.638   4.579  12.295
48643SOL     OW47760   3.957   9.557   8.088
48643SOL    HW147761   3.872   9.515   8.095
48643SOL    HW247762   4.014   9.505   8.145
48644SOL     OW47763   5.596   3.270   7.391
48644SOL    HW147764   5.626   3.211   7.459
48644SOL    HW247765   5.600   3.219   7.310
48645SOL     OW47766  14.248   8.682  13.150
48645SOL    HW147767  14.152   8.673  13.148
48645SOL    HW247768  14.267   8.713  13.239
48646SOL     OW47769  11.839  10.637  14.137
48646SOL    HW147770  11.848  10.696  14.212
48646SOL    HW247771  11.892  10.561  14.161
48647SOL     OW47772   1.318   0.810  11.178
48647SOL    HW147773   1.286   0.738  11.124
48647SOL    HW247774   1.326   0.772  11.266
48648SOL     OW47775  14.036  13.953   0.864
48648SOL    HW147776  14.065  14.025   0.920
48648SOL    HW247777  14.093  13.880   0.886
48649SOL     OW47778  11.247   7.005  13.645
48649SOL    HW147779  11.219   6.916  13.667
48649SOL    HW247780  11.342   7.001  13.645
48650SOL     OW47781   6.210   6.489   3.076
48650SOL    HW147782   6.280   6.553   3.091
48650SOL    HW247783   6.165   6.483   3.160
48651SOL     OW47784   1.938   6.245  12.109
48651SOL    HW147785   1.972   6.237  12.198
48651SOL    HW247786   2.016   6.238  12.053
48652SOL     OW47787  12.460   8.084  12.110
48652SOL    HW147788  12.450   8.046  12.197
48652SOL    HW247789  12.447   8.010  12.050
48653SOL     OW47790   5.290   4.208   5.121
48653SOL    HW147791   5.308   4.284   5.066
48653SOL    HW247792   5.214   4.235   5.174
48654SOL     OW47793   7.836  11.148   6.206
48654SOL    HW147794   7.929  11.124   6.209
48654SOL    HW247795   7.833  11.223   6.147
48655SOL     OW47796   2.502   6.929   1.994
48655SOL    HW147797   2.490   6.911   1.900
48655SOL    HW247798   2.550   6.853   2.027
48656SOL     OW47799   3.293   7.753   6.501
48656SOL    HW147800   3.331   7.711   6.424
48656SOL    HW247801   3.312   7.692   6.573
48657SOL     OW47802   8.672  14.426   9.382
48657SOL    HW147803   8.707  14.501   9.431
48657SOL    HW247804   8.745  14.400   9.325
48658SOL     OW47805   7.114   1.146  12.901
48658SOL    HW147806   7.036   1.108  12.861
48658SOL    HW247807   7.088   1.167  12.991
48659SOL     OW47808  12.794   1.149   6.835
48659SOL    HW147809  12.766   1.217   6.773
48659SOL    HW247810  12.803   1.196   6.919
48660SOL     OW47811  11.254   9.421   3.296
48660SOL    HW147812  11.334   9.469   3.314
48660SOL    HW247813  11.225   9.389   3.382
48661SOL     OW47814   4.494   4.697   6.916
48661SOL    HW147815   4.449   4.754   6.979
48661SOL    HW247816   4.582   4.734   6.909
48662SOL     OW47817   8.764   9.952   2.693
48662SOL    HW147818   8.757   9.930   2.601
48662SOL    HW247819   8.852   9.922   2.718
48663SOL     OW47820   6.569   9.537   9.796
48663SOL    HW147821   6.565   9.498   9.708
48663SOL    HW247822   6.662   9.538   9.818
48664SOL     OW47823  12.234   7.043   1.276
48664SOL    HW147824  12.293   6.989   1.329
48664SOL    HW247825  12.146   7.019   1.306
48665SOL     OW47826   1.534   5.442  10.783
48665SOL    HW147827   1.579   5.358  10.785
48665SOL    HW247828   1.546   5.473  10.693
48666SOL     OW47829   7.029   9.419   6.344
48666SOL    HW147830   6.999   9.396   6.432
48666SOL    HW247831   6.974   9.367   6.286
48667SOL     OW47832   8.971  13.681   3.833
48667SOL    HW147833   8.928  13.717   3.755
48667SOL    HW247834   9.043  13.741   3.851
48668SOL     OW47835   5.414  13.499  10.914
48668SOL    HW147836   5.410  13.473  10.823
48668SOL    HW247837   5.499  13.467  10.945
48669SOL     OW47838  14.121  11.874   2.716
48669SOL    HW147839  14.174  11.795   2.726
48669SOL    HW247840  14.078  11.886   2.800
48670SOL     OW47841   0.010   3.009  10.898
48670SOL    HW147842  14.825   2.938  10.917
48670SOL    HW247843  14.836   3.069  10.842
48671SOL     OW47844   3.440  12.937  11.182
48671SOL    HW147845   3.414  12.934  11.274
48671SOL    HW247846   3.394  13.014  11.146
48672SOL     OW47847  12.089   1.555   3.190
48672SOL    HW147848  12.047   1.616   3.251
48672SOL    HW247849  12.097   1.474   3.240
48673SOL     OW47850  12.538  10.626   7.881
48673SOL    HW147851  12.602  10.653   7.815
48673SOL    HW247852  12.591  10.593   7.954
48674SOL     OW47853  10.871  13.790   2.008
48674SOL    HW147854  10.888  13.756   2.096
48674SOL    HW247855  10.804  13.857   2.021
48675SOL     OW47856   7.533   5.262  12.729
48675SOL    HW147857   7.450   5.311  12.727
48675SOL    HW247858   7.506   5.170  12.722
48676SOL     OW47859  14.460  11.315   1.146
48676SOL    HW147860  14.527  11.246   1.152
48676SOL    HW247861  14.406  11.290   1.071
48677SOL     OW47862   7.556  13.327   0.310
48677SOL    HW147863   7.605  13.258   0.266
48677SOL    HW247864   7.536  13.291   0.396
48678SOL     OW47865   0.345   6.478  10.023
48678SOL    HW147866   0.368   6.533  10.098
48678SOL    HW247867   0.356   6.535   9.947
48679SOL     OW47868   0.823  10.794   3.921
48679SOL    HW147869   0.733  10.778   3.948
48679SOL    HW247870   0.843  10.722   3.861
48680SOL     OW47871  13.776  10.808  12.394
48680SOL    HW147872  13.752  10.864  12.320
48680SOL    HW247873  13.807  10.868  12.461
48681SOL     OW47874   4.931   1.462   1.915
48681SOL    HW147875   5.020   1.496   1.905
48681SOL    HW247876   4.875   1.539   1.903
48682SOL     OW47877   1.204  10.961   5.566
48682SOL    HW147878   1.186  11.003   5.482
48682SOL    HW247879   1.245  11.029   5.619
48683SOL     OW47880  13.611  11.195   1.191
48683SOL    HW147881  13.550  11.156   1.128
48683SOL    HW247882  13.579  11.166   1.276
48684SOL     OW47883  10.022   5.903   2.679
48684SOL    HW147884  10.012   5.979   2.621
48684SOL    HW247885   9.932   5.873   2.694
48685SOL     OW47886   9.245  14.752   1.627
48685SOL    HW147887   9.296  14.691   1.573
48685SOL    HW247888   9.276  14.838   1.601
48686SOL     OW47889   7.524  11.257   8.397
48686SOL    HW147890   7.533  11.203   8.318
48686SOL    HW247891   7.555  11.200   8.468
48687SOL     OW47892  12.007   5.802   5.251
48687SOL    HW147893  12.072   5.871   5.267
48687SOL    HW247894  11.931   5.829   5.302
48688SOL     OW47895   0.864  10.654   5.034
48688SOL    HW147896   0.875  10.561   5.015
48688SOL    HW247897   0.782  10.659   5.083
48689SOL     OW47898   5.473   6.801   2.393
48689SOL    HW147899   5.541   6.783   2.457
48689SOL    HW247900   5.505   6.762   2.312
48690SOL     OW47901   6.114  13.361  11.818
48690SOL    HW147902   6.050  13.432  11.804
48690SOL    HW247903   6.197  13.397  11.786
48691SOL     OW47904   6.434   5.939  11.413
48691SOL    HW147905   6.461   5.847  11.421
48691SOL    HW247906   6.516   5.987  11.399
48692SOL     OW47907  14.482   1.104  13.034
48692SOL    HW147908  14.490   1.098  13.129
48692SOL    HW247909  14.521   1.188  13.012
48693SOL     OW47910   9.928   9.738   3.323
48693SOL    HW147911  10.011   9.713   3.284
48693SOL    HW247912   9.952   9.774   3.409
48694SOL     OW47913   9.177   4.561   4.218
48694SOL    HW147914   9.184   4.616   4.296
48694SOL    HW247915   9.267   4.554   4.185
48695SOL     OW47916  10.405  11.660  13.325
48695SOL    HW147917  10.328  11.666  13.268
48695SOL    HW247918  10.475  11.701  13.274
48696SOL     OW47919  12.392   4.760   4.793
48696SOL    HW147920  12.475   4.802   4.813
48696SOL    HW247921  12.332   4.833   4.776
48697SOL     OW47922   1.168   6.254   0.426
48697SOL    HW147923   1.097   6.191   0.412
48697SOL    HW247924   1.123   6.336   0.448
48698SOL     OW47925  10.384   3.052   5.901
48698SOL    HW147926  10.415   3.142   5.907
48698SOL    HW247927  10.359   3.041   5.809
48699SOL     OW47928   0.355  10.583   6.138
48699SOL    HW147929   0.330  10.508   6.193
48699SOL    HW247930   0.279  10.596   6.080
48700SOL     OW47931  13.581  14.073  10.485
48700SOL    HW147932  13.643  14.140  10.455
48700SOL    HW247933  13.589  14.003  10.420
48701SOL     OW47934   6.485   3.670   0.366
48701SOL    HW147935   6.464   3.763   0.381
48701SOL    HW247936   6.451   3.651   0.279
48702SOL     OW47937   3.849   6.222   5.094
48702SOL    HW147938   3.818   6.301   5.050
48702SOL    HW247939   3.925   6.194   5.043
48703SOL     OW47940   4.824  12.967  12.531
48703SOL    HW147941   4.911  12.932  12.552
48703SOL    HW247942   4.831  12.991  12.438
48704SOL     OW47943   4.918  14.146   0.120
48704SOL    HW147944   4.843  14.187   0.078
48704SOL    HW247945   4.968  14.219   0.156
48705SOL     OW47946   2.346   0.132   9.844
48705SOL    HW147947   2.397   0.114   9.923
48705SOL    HW247948   2.287   0.203   9.869
48706SOL     OW47949   5.084   8.123   0.755
48706SOL    HW147950   5.134   8.199   0.726
48706SOL    HW247951   5.110   8.052   0.697
48707SOL     OW47952  11.389   9.949   5.872
48707SOL    HW147953  11.298   9.931   5.895
48707SOL    HW247954  11.413  10.023   5.927
48708SOL     OW47955  12.650   4.111  10.031
48708SOL    HW147956  12.713   4.055  10.077
48708SOL    HW247957  12.678   4.109   9.939
48709SOL     OW47958  12.001  11.170  10.693
48709SOL    HW147959  11.973  11.151  10.603
48709SOL    HW247960  11.955  11.251  10.715
48710SOL     OW47961   2.079   1.252   4.612
48710SOL    HW147962   2.113   1.309   4.681
48710SOL    HW247963   1.986   1.243   4.633
48711SOL     OW47964   5.747   9.296   6.991
48711SOL    HW147965   5.831   9.275   7.033
48711SOL    HW247966   5.727   9.384   7.022
48712SOL     OW47967   1.572   3.311  10.140
48712SOL    HW147968   1.540   3.313  10.050
48712SOL    HW247969   1.508   3.362  10.190
48713SOL     OW47970   4.845   1.008  11.265
48713SOL    HW147971   4.797   1.070  11.209
48713SOL    HW247972   4.911   0.971  11.206
48714SOL     OW47973   1.171   7.837  11.938
48714SOL    HW147974   1.182   7.778  11.863
48714SOL    HW247975   1.080   7.823  11.965
48715SOL     OW47976   5.899  13.642   2.485
48715SOL    HW147977   5.815  13.632   2.530
48715SOL    HW247978   5.953  13.569   2.517
48716SOL     OW47979   7.512  14.291   6.861
48716SOL    HW147980   7.489  14.357   6.795
48716SOL    HW247981   7.428  14.261   6.895
48717SOL     OW47982   4.995  13.166   2.058
48717SOL    HW147983   5.085  13.133   2.065
48717SOL    HW247984   4.968  13.182   2.149
48718SOL     OW47985  13.697  12.106   8.608
48718SOL    HW147986  13.658  12.034   8.656
48718SOL    HW247987  13.713  12.174   8.674
48719SOL     OW47988  14.343   2.188  11.753
48719SOL    HW147989  14.324   2.096  11.733
48719SOL    HW247990  14.350   2.230  11.667
48720SOL     OW47991   8.699   9.520   7.197
48720SOL    HW147992   8.674   9.581   7.128
48720SOL    HW247993   8.744   9.449   7.151
48721SOL     OW47994   6.051   9.907   5.028
48721SOL    HW147995   5.962   9.892   5.061
48721SOL    HW247996   6.102   9.924   5.107
48722SOL     OW47997   8.794   0.066   9.318
48722SOL    HW147998   8.881   0.084   9.353
48722SOL    HW247999   8.736   0.068   9.394
48723SOL     OW48000   7.789  10.804   6.819
48723SOL    HW148001   7.797  10.866   6.891
48723SOL    HW248002   7.835  10.725   6.849
48724SOL     OW48003   3.027  12.995   4.618
48724SOL    HW148004   3.114  12.974   4.583
48724SOL    HW248005   3.028  12.959   4.706
48725SOL     OW48006   0.092   9.945   3.134
48725SOL    HW148007   0.044   9.904   3.063
48725SOL    HW248008   0.095  10.038   3.111
48726SOL     OW48009   4.502   9.552   6.893
48726SOL    HW148010   4.506   9.518   6.983
48726SOL    HW248011   4.420   9.602   6.891
48727SOL     OW48012   1.175  14.517  11.237
48727SOL    HW148013   1.195  14.587  11.175
48727SOL    HW248014   1.230  14.444  11.209
48728SOL     OW48015   0.505   3.525  10.970
48728SOL    HW148016   0.436   3.462  10.950
48728SOL    HW248017   0.461   3.610  10.966
48729SOL     OW48018   7.365   1.214  13.659
48729SOL    HW148019   7.433   1.226  13.725
48729SOL    HW248020   7.359   1.299  13.615
48730SOL     OW48021   4.458  10.381  10.604
48730SOL    HW148022   4.366  10.375  10.578
48730SOL    HW248023   4.465  10.466  10.647
48731SOL     OW48024   5.048   9.802   9.105
48731SOL    HW148025   5.065   9.887   9.064
48731SOL    HW248026   4.962   9.776   9.072
48732SOL     OW48027   6.795  10.072   0.007
48732SOL    HW148028   6.720  10.118  14.844
48732SOL    HW248029   6.778   9.979  14.866
48733SOL     OW48030  14.491  13.532  13.259
48733SOL    HW148031  14.553  13.463  13.285
48733SOL    HW248032  14.413  13.484  13.230
48734SOL     OW48033   5.554   0.670  10.796
48734SOL    HW148034   5.564   0.761  10.770
48734SOL    HW248035   5.642   0.632  10.784
48735SOL     OW48036  12.707   1.580   0.970
48735SOL    HW148037  12.692   1.672   0.949
48735SOL    HW248038  12.799   1.576   0.997
48736SOL     OW48039   1.573  12.457   5.362
48736SOL    HW148040   1.655  12.507   5.359
48736SOL    HW248041   1.577  12.410   5.445
48737SOL     OW48042   6.269   2.091  10.683
48737SOL    HW148043   6.355   2.104  10.723
48737SOL    HW248044   6.230   2.019  10.732
48738SOL     OW48045   9.144   9.180   1.173
48738SOL    HW148046   9.177   9.114   1.111
48738SOL    HW248047   9.192   9.163   1.254
48739SOL     OW48048   7.964   6.293  10.878
48739SOL    HW148049   7.905   6.305  10.804
48739SOL    HW248050   7.921   6.338  10.951
48740SOL     OW48051   7.229  13.176   4.367
48740SOL    HW148052   7.190  13.246   4.315
48740SOL    HW248053   7.323  13.189   4.359
48741SOL     OW48054   3.176  12.810  11.264
48741SOL    HW148055   3.140  12.858  11.190
48741SOL    HW248056   3.101  12.789  11.319
48742SOL     OW48057   8.117   5.419  14.692
48742SOL    HW148058   8.088   5.404  14.602
48742SOL    HW248059   8.204   5.458  14.683
48743SOL     OW48060   8.217   2.691   8.432
48743SOL    HW148061   8.262   2.771   8.458
48743SOL    HW248062   8.130   2.720   8.403
48744SOL     OW48063  12.534   3.953   7.659
48744SOL    HW148064  12.567   3.911   7.579
48744SOL    HW248065  12.613   3.973   7.709
48745SOL     OW48066  12.139  14.809   8.383
48745SOL    HW148067  12.185  14.824   8.465
48745SOL    HW248068  12.166   0.006   8.327
48746SOL     OW48069   6.933   6.433  13.555
48746SOL    HW148070   6.925   6.528  13.542
48746SOL    HW248071   6.843   6.401  13.548
48747SOL     OW48072   9.203  11.244   1.921
48747SOL    HW148073   9.167  11.181   1.983
48747SOL    HW248074   9.147  11.322   1.931
48748SOL     OW48075  12.923   5.222   8.451
48748SOL    HW148076  13.004   5.202   8.403
48748SOL    HW248077  12.855   5.221   8.384
48749SOL     OW48078  13.912  12.587  14.191
48749SOL    HW148079  13.994  12.575  14.238
48749SOL    HW248080  13.915  12.521  14.121
48750SOL     OW48081  13.749   7.421   4.217
48750SOL    HW148082  13.673   7.365   4.199
48750SOL    HW248083  13.717   7.510   4.207
48751SOL     OW48084   6.643   6.054   9.158
48751SOL    HW148085   6.587   6.040   9.082
48751SOL    HW248086   6.597   6.119   9.211
48752SOL     OW48087  14.858   2.575   8.524
48752SOL    HW148088   0.012   2.646   8.581
48752SOL    HW248089  14.764   2.589   8.515
48753SOL     OW48090   8.080  12.747  13.710
48753SOL    HW148091   8.011  12.705  13.659
48753SOL    HW248092   8.051  12.739  13.801
48754SOL     OW48093   6.053   5.072   2.369
48754SOL    HW148094   6.098   5.063   2.285
48754SOL    HW248095   6.087   5.001   2.423
48755SOL     OW48096   8.890   1.584   9.055
48755SOL    HW148097   8.912   1.647   8.987
48755SOL    HW248098   8.955   1.599   9.124
48756SOL     OW48099   2.024   8.595   2.956
48756SOL    HW148100   2.111   8.600   2.918
48756SOL    HW248101   1.976   8.669   2.917
48757SOL     OW48102   2.197  11.691  11.855
48757SOL    HW148103   2.190  11.784  11.834
48757SOL    HW248104   2.209  11.689  11.950
48758SOL     OW48105  10.653   6.195  11.886
48758SOL    HW148106  10.565   6.216  11.915
48758SOL    HW248107  10.706   6.270  11.913
48759SOL     OW48108   1.051   0.175  12.399
48759SOL    HW148109   1.067   0.269  12.395
48759SOL    HW248110   0.956   0.167  12.393
48760SOL     OW48111   8.939   9.988   8.177
48760SOL    HW148112   8.846   9.984   8.201
48760SOL    HW248113   8.939  10.012   8.084
48761SOL     OW48114  14.146  13.642   6.137
48761SOL    HW148115  14.225  13.659   6.188
48761SOL    HW248116  14.089  13.718   6.155
48762SOL     OW48117  10.768   2.264  13.162
48762SOL    HW148118  10.764   2.350  13.204
48762SOL    HW248119  10.682   2.225  13.177
48763SOL     OW48120  10.938   6.319   6.344
48763SOL    HW148121  10.857   6.295   6.390
48763SOL    HW248122  10.908   6.357   6.262
48764SOL     OW48123  13.603  11.348   1.949
48764SOL    HW148124  13.628  11.324   1.859
48764SOL    HW248125  13.682  11.387   1.986
48765SOL     OW48126   4.173  13.531   1.243
48765SOL    HW148127   4.157  13.596   1.312
48765SOL    HW248128   4.086  13.506   1.212
48766SOL     OW48129   6.921  14.363  14.564
48766SOL    HW148130   7.012  14.385  14.587
48766SOL    HW248131   6.875  14.364  14.648
48767SOL     OW48132  11.050   5.890   7.355
48767SOL    HW148133  11.006   5.817   7.312
48767SOL    HW248134  11.052   5.960   7.289
48768SOL     OW48135  13.643   9.765   8.707
48768SOL    HW148136  13.633   9.765   8.802
48768SOL    HW248137  13.727   9.809   8.692
48769SOL     OW48138   5.610   9.656   5.946
48769SOL    HW148139   5.654   9.695   6.022
48769SOL    HW248140   5.666   9.679   5.872
48770SOL     OW48141  13.846   8.716   1.780
48770SOL    HW148142  13.781   8.692   1.847
48770SOL    HW248143  13.804   8.693   1.697
48771SOL     OW48144   2.990   9.182   9.662
48771SOL    HW148145   2.942   9.104   9.690
48771SOL    HW248146   3.067   9.147   9.616
48772SOL     OW48147   1.148   7.704  13.119
48772SOL    HW148148   1.180   7.756  13.045
48772SOL    HW248149   1.213   7.634  13.129
48773SOL     OW48150   9.728  12.611   8.785
48773SOL    HW148151   9.804  12.665   8.762
48773SOL    HW248152   9.665  12.627   8.714
48774SOL     OW48153  14.496   5.458   6.824
48774SOL    HW148154  14.506   5.371   6.786
48774SOL    HW248155  14.562   5.461   6.894
48775SOL     OW48156  13.173  14.096   5.200
48775SOL    HW148157  13.123  14.175   5.177
48775SOL    HW248158  13.232  14.124   5.270
48776SOL     OW48159   2.250   2.999  10.044
48776SOL    HW148160   2.246   2.968  10.135
48776SOL    HW248161   2.335   2.970  10.013
48777SOL     OW48162  11.661  13.825   7.236
48777SOL    HW148163  11.635  13.745   7.284
48777SOL    HW248164  11.740  13.800   7.188
48778SOL     OW48165   8.300   8.863   2.160
48778SOL    HW148166   8.376   8.906   2.122
48778SOL    HW248167   8.334   8.781   2.196
48779SOL     OW48168  13.799   5.786   9.670
48779SOL    HW148169  13.838   5.716   9.616
48779SOL    HW248170  13.707   5.786   9.647
48780SOL     OW48171  10.505   0.064   0.665
48780SOL    HW148172  10.436   0.117   0.625
48780SOL    HW248173  10.465   0.030   0.745
48781SOL     OW48174   4.713   1.685   1.623
48781SOL    HW148175   4.698   1.738   1.544
48781SOL    HW248176   4.781   1.623   1.597
48782SOL     OW48177  12.995  13.058  13.288
48782SOL    HW148178  13.023  12.975  13.248
48782SOL    HW248179  13.074  13.111  13.288
48783SOL     OW48180   8.823  12.802   1.739
48783SOL    HW148181   8.911  12.840   1.733
48783SOL    HW248182   8.764  12.874   1.719
48784SOL     OW48183  14.614  10.775  14.481
48784SOL    HW148184  14.642  10.838  14.415
48784SOL    HW248185  14.588  10.698  14.431
48785SOL     OW48186  12.203  11.098  14.260
48785SOL    HW148187  12.186  11.181  14.216
48785SOL    HW248188  12.178  11.114  14.351
48786SOL     OW48189  10.405  13.707   4.941
48786SOL    HW148190  10.316  13.728   4.971
48786SOL    HW248191  10.436  13.787   4.898
48787SOL     OW48192   8.929   9.455   1.897
48787SOL    HW148193   8.948   9.541   1.860
48787SOL    HW248194   8.940   9.465   1.991
48788SOL     OW48195  12.336   4.015   5.589
48788SOL    HW148196  12.389   3.945   5.627
48788SOL    HW248197  12.246   3.983   5.595
48789SOL     OW48198   1.534  12.262  13.510
48789SOL    HW148199   1.573  12.244  13.425
48789SOL    HW248200   1.440  12.261  13.494
48790SOL     OW48201  14.383  14.119   4.415
48790SOL    HW148202  14.428  14.065   4.480
48790SOL    HW248203  14.296  14.134   4.453
48791SOL     OW48204   1.674   7.482   1.007
48791SOL    HW148205   1.670   7.504   0.914
48791SOL    HW248206   1.698   7.389   1.008
48792SOL     OW48207   2.718   0.174   8.085
48792SOL    HW148208   2.771   0.246   8.050
48792SOL    HW248209   2.746   0.097   8.036
48793SOL     OW48210   4.736  13.746   3.245
48793SOL    HW148211   4.829  13.738   3.223
48793SOL    HW248212   4.692  13.684   3.187
48794SOL     OW48213   9.884   9.832  13.993
48794SOL    HW148214   9.804   9.855  13.947
48794SOL    HW248215   9.936   9.913  13.992
48795SOL     OW48216   4.799   1.453  10.682
48795SOL    HW148217   4.892   1.478  10.678
48795SOL    HW248218   4.752   1.530  10.650
48796SOL     OW48219   1.431  11.030   3.157
48796SOL    HW148220   1.387  11.109   3.188
48796SOL    HW248221   1.385  10.958   3.200
48797SOL     OW48222   2.008   7.311  14.108
48797SOL    HW148223   2.083   7.284  14.160
48797SOL    HW248224   2.013   7.407  14.107
48798SOL     OW48225   4.592   4.711   0.057
48798SOL    HW148226   4.579   4.780  14.868
48798SOL    HW248227   4.627   4.757   0.134
48799SOL     OW48228   4.450  12.989  13.197
48799SOL    HW148229   4.361  12.997  13.164
48799SOL    HW248230   4.454  12.903  13.238
48800SOL     OW48231   8.723  11.030   4.533
48800SOL    HW148232   8.718  11.036   4.437
48800SOL    HW248233   8.657  10.965   4.556
48801SOL     OW48234   9.817   7.833   0.428
48801SOL    HW148235   9.868   7.756   0.452
48801SOL    HW248236   9.768   7.806   0.350
48802SOL     OW48237   7.216   4.582  10.558
48802SOL    HW148238   7.232   4.664  10.512
48802SOL    HW248239   7.258   4.516  10.503
48803SOL     OW48240   0.431  12.162   1.503
48803SOL    HW148241   0.439  12.255   1.483
48803SOL    HW248242   0.373  12.160   1.579
48804SOL     OW48243   7.494   9.085   2.285
48804SOL    HW148244   7.552   9.035   2.228
48804SOL    HW248245   7.553   9.134   2.343
48805SOL     OW48246  12.817   4.060   2.377
48805SOL    HW148247  12.748   3.994   2.366
48805SOL    HW248248  12.813   4.113   2.298
48806SOL     OW48249  14.218  12.321   0.196
48806SOL    HW148250  14.283  12.266   0.239
48806SOL    HW248251  14.242  12.317   0.103
48807SOL     OW48252  14.028  14.386   4.632
48807SOL    HW148253  13.945  14.399   4.678
48807SOL    HW248254  14.014  14.426   4.546
48808SOL     OW48255  11.154  11.589   5.176
48808SOL    HW148256  11.182  11.586   5.268
48808SOL    HW248257  11.191  11.510   5.137
48809SOL     OW48258  14.198   4.974   1.588
48809SOL    HW148259  14.276   5.028   1.598
48809SOL    HW248260  14.127   5.028   1.622
48810SOL     OW48261   4.144   7.820  11.000
48810SOL    HW148262   4.199   7.818  11.078
48810SOL    HW248263   4.102   7.905  11.002
48811SOL     OW48264   6.969  11.682  12.530
48811SOL    HW148265   6.972  11.605  12.586
48811SOL    HW248266   6.940  11.649  12.445
48812SOL     OW48267   7.767  12.893   3.209
48812SOL    HW148268   7.673  12.911   3.207
48812SOL    HW248269   7.773  12.799   3.224
48813SOL     OW48270   6.578   5.168   5.553
48813SOL    HW148271   6.508   5.108   5.530
48813SOL    HW248272   6.651   5.111   5.579
48814SOL     OW48273   9.895   6.400   8.755
48814SOL    HW148274   9.899   6.309   8.782
48814SOL    HW248275   9.804   6.414   8.729
48815SOL     OW48276   4.686   5.082   0.340
48815SOL    HW148277   4.659   5.058   0.429
48815SOL    HW248278   4.663   5.175   0.332
48816SOL     OW48279  10.068   9.190   8.272
48816SOL    HW148280   9.987   9.154   8.237
48816SOL    HW248281  10.073   9.157   8.362
48817SOL     OW48282   1.934  13.207   5.095
48817SOL    HW148283   1.854  13.219   5.043
48817SOL    HW248284   1.971  13.296   5.102
48818SOL     OW48285   0.655   7.871   6.832
48818SOL    HW148286   0.661   7.872   6.928
48818SOL    HW248287   0.692   7.955   6.805
48819SOL     OW48288   7.067  10.161   9.369
48819SOL    HW148289   7.123  10.093   9.331
48819SOL    HW248290   6.978  10.128   9.357
48820SOL     OW48291   9.072   8.029   8.522
48820SOL    HW148292   9.018   8.063   8.593
48820SOL    HW248293   9.085   8.103   8.463
48821SOL     OW48294   3.858  13.173  11.058
48821SOL    HW148295   3.837  13.263  11.034
48821SOL    HW248296   3.835  13.121  10.981
48822SOL     OW48297  11.562   6.343  10.573
48822SOL    HW148298  11.582   6.412  10.636
48822SOL    HW248299  11.611   6.267  10.604
48823SOL     OW48300   8.013   5.745   6.396
48823SOL    HW148301   8.033   5.721   6.487
48823SOL    HW248302   7.921   5.772   6.398
48824SOL     OW48303   5.767   8.753  14.788
48824SOL    HW148304   5.766   8.843  14.819
48824SOL    HW248305   5.794   8.702  14.865
48825SOL     OW48306  13.836   4.376   9.276
48825SOL    HW148307  13.772   4.404   9.341
48825SOL    HW248308  13.805   4.291   9.245
48826SOL     OW48309  13.254  12.619   2.582
48826SOL    HW148310  13.257  12.526   2.604
48826SOL    HW248311  13.273  12.663   2.665
48827SOL     OW48312   0.224   5.216  14.838
48827SOL    HW148313   0.129   5.214  14.825
48827SOL    HW248314   0.246   5.128  14.869
48828SOL     OW48315   2.443   7.703   9.075
48828SOL    HW148316   2.379   7.687   9.007
48828SOL    HW248317   2.399   7.762   9.136
48829SOL     OW48318  13.544  13.745  12.558
48829SOL    HW148319  13.460  13.699  12.545
48829SOL    HW248320  13.596  13.721  12.482
48830SOL     OW48321   6.931   5.633   9.158
48830SOL    HW148322   7.000   5.569   9.178
48830SOL    HW248323   6.863   5.615   9.223
48831SOL     OW48324   1.315   1.278  12.112
48831SOL    HW148325   1.394   1.303  12.160
48831SOL    HW248326   1.261   1.232  12.176
48832SOL     OW48327   7.450   8.337   8.871
48832SOL    HW148328   7.371   8.328   8.925
48832SOL    HW248329   7.417   8.348   8.782
48833SOL     OW48330   3.808  13.479   3.303
48833SOL    HW148331   3.789  13.401   3.251
48833SOL    HW248332   3.817  13.549   3.238
48834SOL     OW48333   5.582  11.549   6.974
48834SOL    HW148334   5.661  11.571   6.923
48834SOL    HW248335   5.563  11.629   7.023
48835SOL     OW48336   9.786   2.748   8.294
48835SOL    HW148337   9.829   2.678   8.244
48835SOL    HW248338   9.783   2.714   8.384
48836SOL     OW48339   7.855   2.584  12.723
48836SOL    HW148340   7.892   2.505  12.760
48836SOL    HW248341   7.780   2.554  12.672
48837SOL     OW48342   0.884  13.067   1.847
48837SOL    HW148343   0.863  12.973   1.845
48837SOL    HW248344   0.955  13.074   1.911
48838SOL     OW48345  13.236   0.082   0.018
48838SOL    HW148346  13.211   0.085  14.802
48838SOL    HW248347  13.154   0.087   0.067
48839SOL     OW48348   8.546  12.713  13.074
48839SOL    HW148349   8.539  12.737  13.166
48839SOL    HW248350   8.591  12.787  13.033
48840SOL     OW48351   1.065  12.948   2.519
48840SOL    HW148352   1.118  12.872   2.495
48840SOL    HW248353   1.064  13.003   2.441
48841SOL     OW48354  11.499   8.570   5.119
48841SOL    HW148355  11.477   8.643   5.061
48841SOL    HW248356  11.420   8.517   5.122
48842SOL     OW48357   7.230   6.120   3.435
48842SOL    HW148358   7.190   6.205   3.416
48842SOL    HW248359   7.223   6.112   3.530
48843SOL     OW48360  14.186   6.527   2.690
48843SOL    HW148361  14.122   6.588   2.727
48843SOL    HW248362  14.248   6.583   2.642
48844SOL     OW48363   6.669   7.133   9.023
48844SOL    HW148364   6.749   7.113   8.974
48844SOL    HW248365   6.695   7.126   9.115
48845SOL     OW48366   1.950   5.698  12.056
48845SOL    HW148367   2.008   5.629  12.088
48845SOL    HW248368   1.875   5.696  12.115
48846SOL     OW48369   9.523   3.226  13.560
48846SOL    HW148370   9.618   3.218  13.569
48846SOL    HW248371   9.488   3.191  13.641
48847SOL     OW48372   2.021   8.373   7.758
48847SOL    HW148373   2.043   8.461   7.787
48847SOL    HW248374   1.925   8.369   7.767
48848SOL     OW48375  13.058   5.308   8.969
48848SOL    HW148376  13.007   5.300   8.888
48848SOL    HW248377  13.010   5.255   9.032
48849SOL     OW48378  11.471  11.340   2.724
48849SOL    HW148379  11.441  11.416   2.674
48849SOL    HW248380  11.428  11.349   2.809
48850SOL     OW48381   2.102   4.517   7.262
48850SOL    HW148382   2.114   4.476   7.347
48850SOL    HW248383   2.139   4.455   7.200
48851SOL     OW48384  12.742  13.957   8.270
48851SOL    HW148385  12.759  13.985   8.180
48851SOL    HW248386  12.735  14.039   8.319
48852SOL     OW48387   4.211   9.300   9.872
48852SOL    HW148388   4.190   9.347   9.953
48852SOL    HW248389   4.138   9.319   9.813
48853SOL     OW48390   7.040   9.704   9.120
48853SOL    HW148391   7.093   9.627   9.138
48853SOL    HW248392   7.034   9.749   9.205
48854SOL     OW48393   1.955   0.603   2.732
48854SOL    HW148394   1.960   0.661   2.808
48854SOL    HW248395   1.950   0.515   2.771
48855SOL     OW48396   2.418  12.149  11.731
48855SOL    HW148397   2.344  12.210  11.727
48855SOL    HW248398   2.494  12.205  11.749
48856SOL     OW48399   8.970   7.513  13.068
48856SOL    HW148400   9.057   7.473  13.070
48856SOL    HW248401   8.985   7.600  13.029
48857SOL     OW48402   3.850   5.167  13.713
48857SOL    HW148403   3.882   5.256  13.699
48857SOL    HW248404   3.926   5.119  13.746
48858SOL     OW48405  11.679   8.062  11.452
48858SOL    HW148406  11.752   8.108  11.412
48858SOL    HW248407  11.603   8.086  11.398
48859SOL     OW48408   7.955   6.218   8.346
48859SOL    HW148409   7.937   6.237   8.438
48859SOL    HW248410   8.017   6.144   8.349
48860SOL     OW48411   6.002  11.935   2.589
48860SOL    HW148412   6.090  11.904   2.609
48860SOL    HW248413   5.977  11.888   2.510
48861SOL     OW48414   7.930   5.746   7.579
48861SOL    HW148415   7.920   5.780   7.668
48861SOL    HW248416   7.878   5.666   7.578
48862SOL     OW48417   3.866   1.401   9.729
48862SOL    HW148418   3.904   1.387   9.816
48862SOL    HW248419   3.809   1.326   9.715
48863SOL     OW48420   9.346  10.645  14.700
48863SOL    HW148421   9.390  10.684  14.625
48863SOL    HW248422   9.389  10.686  14.776
48864SOL     OW48423  11.422   7.555   7.754
48864SOL    HW148424  11.427   7.499   7.831
48864SOL    HW248425  11.429   7.644   7.789
48865SOL     OW48426   2.867   9.493  10.070
48865SOL    HW148427   2.944   9.549  10.059
48865SOL    HW248428   2.839   9.473   9.981
48866SOL     OW48429   4.289  12.770  12.831
48866SOL    HW148430   4.377  12.736  12.849
48866SOL    HW248431   4.230  12.698  12.854
48867SOL     OW48432   7.789   6.922   4.894
48867SOL    HW148433   7.732   6.907   4.969
48867SOL    HW248434   7.737   6.977   4.835
48868SOL     OW48435  12.247  12.166   8.853
48868SOL    HW148436  12.265  12.228   8.782
48868SOL    HW248437  12.312  12.097   8.841
48869SOL     OW48438   2.355   3.874   1.177
48869SOL    HW148439   2.356   3.888   1.083
48869SOL    HW248440   2.297   3.798   1.189
48870SOL     OW48441  14.100   7.050   1.285
48870SOL    HW148442  14.102   7.127   1.228
48870SOL    HW248443  14.074   6.979   1.226
48871SOL     OW48444  13.038   8.783   8.737
48871SOL    HW148445  13.086   8.703   8.714
48871SOL    HW248446  12.984   8.801   8.660
48872SOL     OW48447   3.179  14.646   9.509
48872SOL    HW148448   3.097  14.670   9.466
48872SOL    HW248449   3.188  14.552   9.491
48873SOL     OW48450   2.656   1.240   3.844
48873SOL    HW148451   2.667   1.334   3.831
48873SOL    HW248452   2.688   1.200   3.763
48874SOL     OW48453   2.603  11.605  13.727
48874SOL    HW148454   2.524  11.557  13.700
48874SOL    HW248455   2.662  11.599  13.652
48875SOL     OW48456   5.998   8.289  14.270
48875SOL    HW148457   5.926   8.338  14.310
48875SOL    HW248458   5.964   8.201  14.257
48876SOL     OW48459  10.727   5.078  14.785
48876SOL    HW148460  10.656   5.014  14.782
48876SOL    HW248461  10.778   5.054  14.863
48877SOL     OW48462   9.324   3.378   7.931
48877SOL    HW148463   9.325   3.426   7.848
48877SOL    HW248464   9.317   3.286   7.905
48878SOL     OW48465   2.402   2.470   3.554
48878SOL    HW148466   2.487   2.494   3.516
48878SOL    HW248467   2.340   2.531   3.514
48879SOL     OW48468   9.526   2.190  12.630
48879SOL    HW148469   9.563   2.116  12.678
48879SOL    HW248470   9.603   2.242  12.605
48880SOL     OW48471  13.759   3.476   1.322
48880SOL    HW148472  13.781   3.563   1.288
48880SOL    HW248473  13.671   3.458   1.288
48881SOL     OW48474   2.353   3.611   4.886
48881SOL    HW148475   2.267   3.621   4.927
48881SOL    HW248476   2.335   3.614   4.792
48882SOL     OW48477  10.069   2.441   5.955
48882SOL    HW148478  10.030   2.505   5.896
48882SOL    HW248479  10.159   2.472   5.968
48883SOL     OW48480   1.542  10.029   0.653
48883SOL    HW148481   1.520  10.029   0.560
48883SOL    HW248482   1.565   9.938   0.672
48884SOL     OW48483   8.291  10.063   8.881
48884SOL    HW148484   8.286  10.046   8.975
48884SOL    HW248485   8.385  10.068   8.863
48885SOL     OW48486  13.727   8.919   4.128
48885SOL    HW148487  13.711   8.965   4.045
48885SOL    HW248488  13.675   8.966   4.192
48886SOL     OW48489  12.059   3.428   1.808
48886SOL    HW148490  12.068   3.430   1.903
48886SOL    HW248491  12.112   3.502   1.777
48887SOL     OW48492   4.472  14.197  12.894
48887SOL    HW148493   4.531  14.214  12.821
48887SOL    HW248494   4.525  14.213  12.972
48888SOL     OW48495   4.426  12.034  13.030
48888SOL    HW148496   4.506  12.082  13.049
48888SOL    HW248497   4.454  11.943  13.020
48889SOL     OW48498  13.065  13.508   6.861
48889SOL    HW148499  13.061  13.582   6.799
48889SOL    HW248500  13.149  13.519   6.906
48890SOL     OW48501  12.993   9.152   5.971
48890SOL    HW148502  12.923   9.088   5.982
48890SOL    HW248503  13.002   9.193   6.057
48891SOL     OW48504   4.602   0.145  13.350
48891SOL    HW148505   4.570   0.139  13.260
48891SOL    HW248506   4.580   0.060  13.389
48892SOL     OW48507   1.252  11.899   9.661
48892SOL    HW148508   1.340  11.920   9.694
48892SOL    HW248509   1.257  11.916   9.567
48893SOL     OW48510   2.799  14.497   8.693
48893SOL    HW148511   2.751  14.464   8.768
48893SOL    HW248512   2.734  14.541   8.639
48894SOL     OW48513   6.011   3.437   5.230
48894SOL    HW148514   6.080   3.494   5.194
48894SOL    HW248515   6.045   3.407   5.314
48895SOL     OW48516   4.492  10.333   0.308
48895SOL    HW148517   4.562  10.380   0.353
48895SOL    HW248518   4.536  10.287   0.236
48896SOL     OW48519   7.914   3.795  14.562
48896SOL    HW148520   7.936   3.761  14.475
48896SOL    HW248521   7.998   3.824  14.599
48897SOL     OW48522   5.621   8.662   0.637
48897SOL    HW148523   5.647   8.652   0.728
48897SOL    HW248524   5.532   8.697   0.641
48898SOL     OW48525   7.337  12.079   6.551
48898SOL    HW148526   7.399  12.125   6.608
48898SOL    HW248527   7.381  11.998   6.527
48899SOL     OW48528  12.449   1.287   7.023
48899SOL    HW148529  12.502   1.244   6.956
48899SOL    HW248530  12.439   1.221   7.091
48900SOL     OW48531   3.473  11.686   0.992
48900SOL    HW148532   3.562  11.690   1.026
48900SOL    HW248533   3.479  11.721   0.904
48901SOL     OW48534   7.036   4.210   8.392
48901SOL    HW148535   7.129   4.209   8.416
48901SOL    HW248536   7.026   4.134   8.334
48902SOL     OW48537  12.878   8.049   4.724
48902SOL    HW148538  12.843   8.031   4.811
48902SOL    HW248539  12.804   8.086   4.675
48903SOL     OW48540   2.185  10.315   6.892
48903SOL    HW148541   2.159  10.289   6.803
48903SOL    HW248542   2.207  10.233   6.935
48904SOL     OW48543   0.436   8.014  10.274
48904SOL    HW148544   0.459   8.041  10.185
48904SOL    HW248545   0.348   7.978  10.266
48905SOL     OW48546   7.065  14.383   1.962
48905SOL    HW148547   7.050  14.466   1.917
48905SOL    HW248548   7.058  14.317   1.893
48906SOL     OW48549   5.221  12.589   6.889
48906SOL    HW148550   5.224  12.657   6.822
48906SOL    HW248551   5.129  12.586   6.917
48907SOL     OW48552   5.733  14.343   3.758
48907SOL    HW148553   5.656  14.375   3.805
48907SOL    HW248554   5.786  14.421   3.741
48908SOL     OW48555   6.067  10.253   5.137
48908SOL    HW148556   5.972  10.242   5.135
48908SOL    HW248557   6.093  10.253   5.045
48909SOL     OW48558   3.463  12.240  14.171
48909SOL    HW148559   3.557  12.254  14.166
48909SOL    HW248560   3.445  12.175  14.103
48910SOL     OW48561  13.699   8.236   3.163
48910SOL    HW148562  13.738   8.317   3.131
48910SOL    HW248563  13.723   8.233   3.256
48911SOL     OW48564  14.236   9.300  11.577
48911SOL    HW148565  14.316   9.260  11.611
48911SOL    HW248566  14.261   9.391  11.559
48912SOL     OW48567   0.998   9.953   6.865
48912SOL    HW148568   0.988   9.858   6.871
48912SOL    HW248569   1.043   9.978   6.946
48913SOL     OW48570   2.882  11.232  13.723
48913SOL    HW148571   2.916  11.281  13.648
48913SOL    HW248572   2.788  11.252  13.724
48914SOL     OW48573  11.095  13.471  12.856
48914SOL    HW148574  11.058  13.401  12.802
48914SOL    HW248575  11.122  13.538  12.794
48915SOL     OW48576   8.494   7.722   9.935
48915SOL    HW148577   8.481   7.637   9.978
48915SOL    HW248578   8.416   7.735   9.882
48916SOL     OW48579   0.714   5.403  11.836
48916SOL    HW148580   0.657   5.348  11.890
48916SOL    HW248581   0.666   5.415  11.754
48917SOL     OW48582  13.347   6.303  10.727
48917SOL    HW148583  13.291   6.344  10.792
48917SOL    HW248584  13.432   6.294  10.770
48918SOL     OW48585   8.999   7.376   5.412
48918SOL    HW148586   8.938   7.446   5.433
48918SOL    HW248587   8.993   7.315   5.486
48919SOL     OW48588   4.976   3.436   1.925
48919SOL    HW148589   4.961   3.512   1.981
48919SOL    HW248590   4.949   3.466   1.838
48920SOL     OW48591   5.605   3.282   7.792
48920SOL    HW148592   5.651   3.229   7.856
48920SOL    HW248593   5.667   3.292   7.720
48921SOL     OW48594   2.248   5.806  11.321
48921SOL    HW148595   2.197   5.793  11.241
48921SOL    HW248596   2.280   5.896  11.315
48922SOL     OW48597   0.032   2.019   7.936
48922SOL    HW148598  14.873   1.951   7.877
48922SOL    HW248599  14.843   2.025   8.006
48923SOL     OW48600   2.144   9.944   7.277
48923SOL    HW148601   2.163  10.038   7.272
48923SOL    HW248602   2.208   9.903   7.218
48924SOL     OW48603   9.904   7.365   2.120
48924SOL    HW148604   9.990   7.349   2.083
48924SOL    HW248605   9.921   7.389   2.211
48925SOL     OW48606   1.240   8.163   7.669
48925SOL    HW148607   1.313   8.196   7.721
48925SOL    HW248608   1.172   8.230   7.677
48926SOL     OW48609   2.475   5.253   1.090
48926SOL    HW148610   2.441   5.288   1.008
48926SOL    HW248611   2.566   5.282   1.093
48927SOL     OW48612   4.511   7.923   8.952
48927SOL    HW148613   4.481   7.946   8.864
48927SOL    HW248614   4.520   7.827   8.950
48928SOL     OW48615  10.205   8.591  12.015
48928SOL    HW148616  10.264   8.527  11.974
48928SOL    HW248617  10.155   8.628  11.943
48929SOL     OW48618   9.832   1.296   7.706
48929SOL    HW148619   9.911   1.251   7.678
48929SOL    HW248620   9.815   1.360   7.637
48930SOL     OW48621   7.558   6.129   4.910
48930SOL    HW148622   7.463   6.120   4.901
48930SOL    HW248623   7.580   6.204   4.854
48931SOL     OW48624   4.978  12.457  14.173
48931SOL    HW148625   5.043  12.388  14.187
48931SOL    HW248626   4.936  12.435  14.090
48932SOL     OW48627  10.888   5.798   2.645
48932SOL    HW148628  10.817   5.795   2.581
48932SOL    HW248629  10.857   5.744   2.718
48933SOL     OW48630   0.372  11.039   7.508
48933SOL    HW148631   0.297  10.980   7.506
48933SOL    HW248632   0.351  11.107   7.445
48934SOL     OW48633   3.927   4.313   9.097
48934SOL    HW148634   3.869   4.241   9.073
48934SOL    HW248635   3.872   4.372   9.148
48935SOL     OW48636   5.156   4.508  12.952
48935SOL    HW148637   5.141   4.449  13.026
48935SOL    HW248638   5.251   4.514  12.946
48936SOL     OW48639  14.325  14.360   5.272
48936SOL    HW148640  14.343  14.269   5.252
48936SOL    HW248641  14.234  14.361   5.302
48937SOL     OW48642   9.526   0.934  14.351
48937SOL    HW148643   9.462   0.975  14.293
48937SOL    HW248644   9.477   0.916  14.432
48938SOL     OW48645   2.596   3.566   0.396
48938SOL    HW148646   2.583   3.599   0.307
48938SOL    HW248647   2.659   3.627   0.435
48939SOL     OW48648   7.257  11.917   5.837
48939SOL    HW148649   7.333  11.943   5.784
48939SOL    HW248650   7.241  11.993   5.894
48940SOL     OW48651   5.932   2.050   1.925
48940SOL    HW148652   5.881   2.098   1.991
48940SOL    HW248653   6.000   2.006   1.976
48941SOL     OW48654  12.402   2.163  12.874
48941SOL    HW148655  12.453   2.222  12.818
48941SOL    HW248656  12.463   2.092  12.895
48942SOL     OW48657   1.515   4.885   6.312
48942SOL    HW148658   1.453   4.837   6.257
48942SOL    HW248659   1.555   4.818   6.368
48943SOL     OW48660   0.370   2.790   3.162
48943SOL    HW148661   0.297   2.852   3.157
48943SOL    HW248662   0.447   2.843   3.139
48944SOL     OW48663  13.474  10.470   8.666
48944SOL    HW148664  13.539  10.412   8.626
48944SOL    HW248665  13.390  10.439   8.633
48945SOL     OW48666  11.171  13.243   2.116
48945SOL    HW148667  11.242  13.289   2.161
48945SOL    HW248668  11.094  13.256   2.172
48946SOL     OW48669   5.753   0.646  13.131
48946SOL    HW148670   5.786   0.647  13.041
48946SOL    HW248671   5.661   0.624  13.123
48947SOL     OW48672  14.302   1.970  12.041
48947SOL    HW148673  14.335   1.939  11.957
48947SOL    HW248674  14.232   2.032  12.017
48948SOL     OW48675  11.372   1.731   2.617
48948SOL    HW148676  11.315   1.663   2.582
48948SOL    HW248677  11.362   1.724   2.712
48949SOL     OW48678   2.420   0.170  13.950
48949SOL    HW148679   2.354   0.103  13.969
48949SOL    HW248680   2.471   0.177  14.031
48950SOL     OW48681  11.933   7.956   0.806
48950SOL    HW148682  11.909   7.976   0.896
48950SOL    HW248683  11.912   7.863   0.796
48951SOL     OW48684  14.567  13.001   6.768
48951SOL    HW148685  14.650  13.048   6.773
48951SOL    HW248686  14.529  13.029   6.685
48952SOL     OW48687   5.832  10.711  12.902
48952SOL    HW148688   5.898  10.759  12.952
48952SOL    HW248689   5.752  10.763  12.912
48953SOL     OW48690  12.000   1.931  14.294
48953SOL    HW148691  12.062   2.003  14.282
48953SOL    HW248692  11.931   1.948  14.230
48954SOL     OW48693   9.212   3.396   4.909
48954SOL    HW148694   9.157   3.389   4.988
48954SOL    HW248695   9.289   3.444   4.938
48955SOL     OW48696   1.723   4.910   4.335
48955SOL    HW148697   1.672   4.979   4.292
48955SOL    HW248698   1.711   4.926   4.428
48956SOL     OW48699   3.182   1.309  12.416
48956SOL    HW148700   3.268   1.323  12.377
48956SOL    HW248701   3.176   1.374  12.486
48957SOL     OW48702   1.395   1.924  10.957
48957SOL    HW148703   1.443   1.922  11.039
48957SOL    HW248704   1.414   2.010  10.920
48958SOL     OW48705   7.468   0.404   6.011
48958SOL    HW148706   7.487   0.330   6.069
48958SOL    HW248707   7.425   0.364   5.935
48959SOL     OW48708   3.336   3.785  11.225
48959SOL    HW148709   3.325   3.850  11.155
48959SOL    HW248710   3.326   3.701  11.181
48960SOL     OW48711  11.203   5.195   8.447
48960SOL    HW148712  11.295   5.176   8.429
48960SOL    HW248713  11.186   5.277   8.400
48961SOL     OW48714  11.909   7.348   2.476
48961SOL    HW148715  11.823   7.378   2.448
48961SOL    HW248716  11.894   7.260   2.510
48962SOL     OW48717   8.614   5.612  12.650
48962SOL    HW148718   8.531   5.570  12.629
48962SOL    HW248719   8.681   5.555  12.613
48963SOL     OW48720   9.375  11.718  10.509
48963SOL    HW148721   9.426  11.791  10.473
48963SOL    HW248722   9.440  11.663  10.552
48964SOL     OW48723   4.547   9.335   2.923
48964SOL    HW148724   4.539   9.264   2.986
48964SOL    HW248725   4.640   9.358   2.924
48965SOL     OW48726   5.042   9.226   7.213
48965SOL    HW148727   4.966   9.206   7.159
48965SOL    HW248728   5.117   9.196   7.162
48966SOL     OW48729   7.539  13.289  10.822
48966SOL    HW148730   7.472  13.223  10.803
48966SOL    HW248731   7.606  13.276  10.755
48967SOL     OW48732  12.238   0.357   0.331
48967SOL    HW148733  12.328   0.388   0.347
48967SOL    HW248734  12.184   0.435   0.341
48968SOL     OW48735   8.346   8.016   5.293
48968SOL    HW148736   8.262   7.984   5.326
48968SOL    HW248737   8.411   7.959   5.334
48969SOL     OW48738   6.285   8.723   8.425
48969SOL    HW148739   6.380   8.722   8.419
48969SOL    HW248740   6.256   8.658   8.362
48970SOL     OW48741   9.727  11.964   1.633
48970SOL    HW148742   9.807  12.011   1.653
48970SOL    HW248743   9.658  12.031   1.636
48971SOL     OW48744   1.794   3.477   7.180
48971SOL    HW148745   1.853   3.484   7.106
48971SOL    HW248746   1.730   3.410   7.155
48972SOL     OW48747   9.032   1.421  12.678
48972SOL    HW148748   9.092   1.493  12.661
48972SOL    HW248749   9.014   1.427  12.772
48973SOL     OW48750   8.119   9.900   4.167
48973SOL    HW148751   8.064   9.877   4.242
48973SOL    HW248752   8.082   9.983   4.136
48974SOL     OW48753  12.985   7.357   4.591
48974SOL    HW148754  12.936   7.398   4.520
48974SOL    HW248755  12.918   7.323   4.650
48975SOL     OW48756  13.645  13.928   6.059
48975SOL    HW148757  13.704  13.953   5.988
48975SOL    HW248758  13.580  13.871   6.017
48976SOL     OW48759   6.245   1.835  10.949
48976SOL    HW148760   6.312   1.768  10.957
48976SOL    HW248761   6.181   1.814  11.017
48977SOL     OW48762   4.925   0.490   3.171
48977SOL    HW148763   5.013   0.465   3.142
48977SOL    HW248764   4.882   0.521   3.091
48978SOL     OW48765   4.043   4.381   1.837
48978SOL    HW148766   4.130   4.391   1.797
48978SOL    HW248767   4.061   4.379   1.931
48979SOL     OW48768  12.506   1.508   1.153
48979SOL    HW148769  12.593   1.539   1.128
48979SOL    HW248770  12.478   1.453   1.081
48980SOL     OW48771   8.236  14.275   8.697
48980SOL    HW148772   8.164  14.239   8.750
48980SOL    HW248773   8.279  14.198   8.659
48981SOL     OW48774   5.347  10.907  14.762
48981SOL    HW148775   5.366  10.932  14.672
48981SOL    HW248776   5.324  10.989  14.806
48982SOL     OW48777   5.107  14.412   5.701
48982SOL    HW148778   5.193  14.392   5.736
48982SOL    HW248779   5.063  14.328   5.694
48983SOL     OW48780   1.148   7.523   0.194
48983SOL    HW148781   1.053   7.519   0.204
48983SOL    HW248782   1.161   7.571   0.112
48984SOL     OW48783   6.082   6.812  14.607
48984SOL    HW148784   6.154   6.854  14.652
48984SOL    HW248785   6.083   6.722  14.639
48985SOL     OW48786  10.290   3.073   6.909
48985SOL    HW148787  10.347   3.082   6.985
48985SOL    HW248788  10.349   3.078   6.833
48986SOL     OW48789   2.027   3.861   3.985
48986SOL    HW148790   2.082   3.884   3.910
48986SOL    HW248791   2.040   3.934   4.046
48987SOL     OW48792   1.350  11.806   3.862
48987SOL    HW148793   1.341  11.873   3.794
48987SOL    HW248794   1.288  11.832   3.930
48988SOL     OW48795   1.062  14.595   3.505
48988SOL    HW148796   0.972  14.564   3.513
48988SOL    HW248797   1.108  14.554   3.578
48989SOL     OW48798   0.326   1.605  11.023
48989SOL    HW148799   0.306   1.631  10.933
48989SOL    HW248800   0.383   1.675  11.056
48990SOL     OW48801   2.106   6.798   4.015
48990SOL    HW148802   2.073   6.733   4.077
48990SOL    HW248803   2.076   6.767   3.930
48991SOL     OW48804   6.911   5.156   2.010
48991SOL    HW148805   6.876   5.128   1.926
48991SOL    HW248806   6.836   5.152   2.069
48992SOL     OW48807   1.081  10.359  12.095
48992SOL    HW148808   1.161  10.309  12.080
48992SOL    HW248809   1.025  10.301  12.147
48993SOL     OW48810   6.414   3.141   9.918
48993SOL    HW148811   6.482   3.076   9.930
48993SOL    HW248812   6.449   3.220   9.959
48994SOL     OW48813   2.616  13.909  13.001
48994SOL    HW148814   2.536  13.948  13.035
48994SOL    HW248815   2.638  13.963  12.925
48995SOL     OW48816  12.166   0.496   4.280
48995SOL    HW148817  12.125   0.418   4.317
48995SOL    HW248818  12.241   0.514   4.337
48996SOL     OW48819  14.620  10.417   6.081
48996SOL    HW148820  14.586  10.344   6.134
48996SOL    HW248821  14.714  10.417   6.099
48997SOL     OW48822   4.860   0.916  10.689
48997SOL    HW148823   4.896   0.933  10.602
48997SOL    HW248824   4.903   0.835  10.718
48998SOL     OW48825   5.221   0.823   9.637
48998SOL    HW148826   5.260   0.890   9.692
48998SOL    HW248827   5.221   0.744   9.691
48999SOL     OW48828   6.303   5.132   0.180
48999SOL    HW148829   6.215   5.125   0.215
48999SOL    HW248830   6.301   5.085   0.097
49000SOL     OW48831  10.698   2.433   0.298
49000SOL    HW148832  10.680   2.433   0.392
49000SOL    HW248833  10.696   2.526   0.273
49001SOL     OW48834   4.705   0.917   9.250
49001SOL    HW148835   4.785   0.968   9.239
49001SOL    HW248836   4.691   0.914   9.345
49002SOL     OW48837  11.809   8.375   1.307
49002SOL    HW148838  11.837   8.359   1.397
49002SOL    HW248839  11.757   8.455   1.312
49003SOL     OW48840   4.342  13.433  12.866
49003SOL    HW148841   4.428  13.452  12.904
49003SOL    HW248842   4.362  13.394  12.780
49004SOL     OW48843   2.384  13.894   1.360
49004SOL    HW148844   2.332  13.820   1.328
49004SOL    HW248845   2.324  13.940   1.419
49005SOL     OW48846  11.975   7.969   6.620
49005SOL    HW148847  11.904   7.907   6.638
49005SOL    HW248848  11.933   8.040   6.572
49006SOL     OW48849   6.207  13.637   3.004
49006SOL    HW148850   6.202  13.572   3.074
49006SOL    HW248851   6.118  13.669   2.994
49007SOL     OW48852   9.655   0.487   4.279
49007SOL    HW148853   9.697   0.418   4.228
49007SOL    HW248854   9.685   0.472   4.369
49008SOL     OW48855  14.621   0.179   5.650
49008SOL    HW148856  14.609   0.101   5.596
49008SOL    HW248857  14.641   0.145   5.737
49009SOL     OW48858   0.973   4.059  10.356
49009SOL    HW148859   1.062   4.045  10.388
49009SOL    HW248860   0.940   3.972  10.336
49010SOL     OW48861   3.367   5.150   9.278
49010SOL    HW148862   3.274   5.152   9.301
49010SOL    HW248863   3.406   5.221   9.328
49011SOL     OW48864   8.480  10.750  14.579
49011SOL    HW148865   8.389  10.731  14.556
49011SOL    HW248866   8.497  10.836  14.541
49012SOL     OW48867   8.281  13.782  12.256
49012SOL    HW148868   8.319  13.695  12.270
49012SOL    HW248869   8.334  13.821  12.187
49013SOL     OW48870   0.301   0.254   6.802
49013SOL    HW148871   0.260   0.169   6.814
49013SOL    HW248872   0.228   0.315   6.793
49014SOL     OW48873   6.716   0.772   0.177
49014SOL    HW148874   6.699   0.865   0.166
49014SOL    HW248875   6.666   0.747   0.255
49015SOL     OW48876   3.061   6.971  11.526
49015SOL    HW148877   3.036   6.898  11.469
49015SOL    HW248878   3.129   6.935  11.583
49016SOL     OW48879   7.483   8.913  10.851
49016SOL    HW148880   7.418   8.845  10.869
49016SOL    HW248881   7.454   8.954  10.770
49017SOL     OW48882   2.784   3.331   0.769
49017SOL    HW148883   2.751   3.266   0.706
49017SOL    HW248884   2.729   3.320   0.846
49018SOL     OW48885   0.404   2.069  13.589
49018SOL    HW148886   0.437   2.022  13.666
49018SOL    HW248887   0.350   2.139  13.625
49019SOL     OW48888  10.914  14.767  12.823
49019SOL    HW148889  10.872  14.853  12.824
49019SOL    HW248890  11.008  14.786  12.826
49020SOL     OW48891  13.698   3.002   1.731
49020SOL    HW148892  13.635   3.071   1.752
49020SOL    HW248893  13.764   3.044   1.677
49021SOL     OW48894  10.628   9.440   3.321
49021SOL    HW148895  10.700   9.407   3.268
49021SOL    HW248896  10.579   9.497   3.261
49022SOL     OW48897   2.248   7.099   3.668
49022SOL    HW148898   2.211   7.187   3.669
49022SOL    HW248899   2.243   7.070   3.759
49023SOL     OW48900   0.143   8.939   9.837
49023SOL    HW148901   0.122   8.950   9.930
49023SOL    HW248902   0.093   9.008   9.793
49024SOL     OW48903   6.863   8.904   8.081
49024SOL    HW148904   6.830   8.817   8.101
49024SOL    HW248905   6.941   8.888   8.028
49025SOL     OW48906   6.756   7.282   1.051
49025SOL    HW148907   6.753   7.378   1.052
49025SOL    HW248908   6.775   7.258   1.142
49026SOL     OW48909   8.326  10.510   9.473
49026SOL    HW148910   8.314  10.529   9.566
49026SOL    HW248911   8.420  10.509   9.460
49027SOL     OW48912  11.552   0.816   6.204
49027SOL    HW148913  11.605   0.736   6.211
49027SOL    HW248914  11.462   0.785   6.202
49028SOL     OW48915   4.284  12.971   2.333
49028SOL    HW148916   4.351  12.960   2.265
49028SOL    HW248917   4.207  13.005   2.286
49029SOL     OW48918   6.501   3.048   1.549
49029SOL    HW148919   6.419   3.094   1.566
49029SOL    HW248920   6.562   3.082   1.615
49030SOL     OW48921   3.378  11.270   5.053
49030SOL    HW148922   3.403  11.303   5.139
49030SOL    HW248923   3.290  11.236   5.065
49031SOL     OW48924   4.646  11.664   6.838
49031SOL    HW148925   4.554  11.686   6.851
49031SOL    HW248926   4.694  11.732   6.886
49032SOL     OW48927   6.437   6.281  11.887
49032SOL    HW148928   6.440   6.201  11.939
49032SOL    HW248929   6.508   6.271  11.824
49033SOL     OW48930   8.613   0.162  14.552
49033SOL    HW148931   8.682   0.223  14.578
49033SOL    HW248932   8.628   0.148  14.458
49034SOL     OW48933  11.134  13.662   9.981
49034SOL    HW148934  11.094  13.625   9.902
49034SOL    HW248935  11.082  13.625  10.053
49035SOL     OW48936   3.443   1.119   2.617
49035SOL    HW148937   3.530   1.157   2.602
49035SOL    HW248938   3.444   1.093   2.709
49036SOL     OW48939   4.172  12.522   4.241
49036SOL    HW148940   4.195  12.474   4.162
49036SOL    HW248941   4.215  12.474   4.312
49037SOL     OW48942  11.935   9.249   9.270
49037SOL    HW148943  12.016   9.299   9.267
49037SOL    HW248944  11.963   9.157   9.264
49038SOL     OW48945   9.206   2.109  12.656
49038SOL    HW148946   9.255   2.028  12.672
49038SOL    HW248947   9.161   2.127  12.738
49039SOL     OW48948   1.677   7.882  10.531
49039SOL    HW148949   1.715   7.830  10.602
49039SOL    HW248950   1.621   7.821  10.483
49040SOL     OW48951  11.132   0.124  10.243
49040SOL    HW148952  11.124   0.168  10.327
49040SOL    HW248953  11.057   0.154  10.192
49041SOL     OW48954  14.352  10.136   6.775
49041SOL    HW148955  14.373  10.057   6.824
49041SOL    HW248956  14.412  10.136   6.701
49042SOL     OW48957  10.659   2.043   1.275
49042SOL    HW148958  10.635   2.064   1.365
49042SOL    HW248959  10.646   2.125   1.227
49043SOL     OW48960   6.974   6.903   4.207
49043SOL    HW148961   6.935   6.866   4.128
49043SOL    HW248962   6.901   6.916   4.267
49044SOL     OW48963  11.225  11.936   8.297
49044SOL    HW148964  11.180  11.907   8.377
49044SOL    HW248965  11.297  11.874   8.286
49045SOL     OW48966  10.263   5.385  12.747
49045SOL    HW148967  10.216   5.468  12.737
49045SOL    HW248968  10.287   5.360  12.658
49046SOL     OW48969  12.727   0.214   3.874
49046SOL    HW148970  12.673   0.198   3.797
49046SOL    HW248971  12.717   0.308   3.891
49047SOL     OW48972  14.435   9.319  10.225
49047SOL    HW148973  14.479   9.234  10.219
49047SOL    HW248974  14.379   9.323  10.148
49048SOL     OW48975  13.949  13.098   9.814
49048SOL    HW148976  13.984  13.105   9.725
49048SOL    HW248977  14.027  13.099   9.870
49049SOL     OW48978   7.713   6.446   9.914
49049SOL    HW148979   7.709   6.530   9.870
49049SOL    HW248980   7.622   6.423   9.932
49050SOL     OW48981   5.754  10.069  13.246
49050SOL    HW148982   5.735  10.086  13.338
49050SOL    HW248983   5.782   9.978  13.244
49051SOL     OW48984   4.005   0.973   5.765
49051SOL    HW148985   3.922   1.015   5.788
49051SOL    HW248986   3.980   0.884   5.740
49052SOL     OW48987   1.110   9.707   6.220
49052SOL    HW148988   1.032   9.651   6.216
49052SOL    HW248989   1.091   9.778   6.159
49053SOL     OW48990   9.076  13.863   9.679
49053SOL    HW148991   9.034  13.936   9.634
49053SOL    HW248992   9.155  13.902   9.717
49054SOL     OW48993  12.272   1.985   4.324
49054SOL    HW148994  12.347   2.040   4.348
49054SOL    HW248995  12.272   1.985   4.228
49055SOL     OW48996   8.586   5.065   5.721
49055SOL    HW148997   8.550   5.126   5.657
49055SOL    HW248998   8.673   5.043   5.686
49056SOL     OW48999   9.720  10.542  13.942
49056SOL    HW149000   9.698  10.633  13.964
49056SOL    HW249001   9.802  10.549  13.894
49057SOL     OW49002   1.816  11.089   7.247
49057SOL    HW149003   1.856  11.008   7.279
49057SOL    HW249004   1.884  11.131   7.194
49058SOL     OW49005   6.105   3.218  10.597
49058SOL    HW149006   6.074   3.291  10.544
49058SOL    HW249007   6.117   3.255  10.684
49059SOL     OW49008   1.429   9.635   9.336
49059SOL    HW149009   1.442   9.553   9.383
49059SOL    HW249010   1.402   9.607   9.248
49060SOL     OW49011  13.069  11.730   5.930
49060SOL    HW149012  13.026  11.770   5.855
49060SOL    HW249013  13.127  11.799   5.964
49061SOL     OW49014   0.103   6.992   8.343
49061SOL    HW149015   0.117   7.014   8.435
49061SOL    HW249016   0.024   7.040   8.318
49062SOL     OW49017  11.361   7.414   7.995
49062SOL    HW149018  11.441   7.363   8.010
49062SOL    HW249019  11.342   7.454   8.079
49063SOL     OW49020  10.457   5.773   2.063
49063SOL    HW149021  10.417   5.690   2.092
49063SOL    HW249022  10.500   5.807   2.141
49064SOL     OW49023   7.880   4.040   7.582
49064SOL    HW149024   7.862   4.132   7.565
49064SOL    HW249025   7.895   4.002   7.495
49065SOL     OW49026   1.188   8.851   9.244
49065SOL    HW149027   1.139   8.769   9.240
49065SOL    HW249028   1.154   8.895   9.322
49066SOL     OW49029   5.402   0.564   8.718
49066SOL    HW149030   5.308   0.578   8.732
49066SOL    HW249031   5.444   0.617   8.786
49067SOL     OW49032  13.160  10.426   1.087
49067SOL    HW149033  13.112  10.500   1.125
49067SOL    HW249034  13.140  10.352   1.145
49068SOL     OW49035  12.657  10.630  13.372
49068SOL    HW149036  12.565  10.612  13.392
49068SOL    HW249037  12.685  10.693  13.438
49069SOL     OW49038  12.469  10.519   5.774
49069SOL    HW149039  12.543  10.574   5.797
49069SOL    HW249040  12.395  10.579   5.769
49070SOL     OW49041   6.220   1.296   9.874
49070SOL    HW149042   6.273   1.217   9.876
49070SOL    HW249043   6.174   1.292   9.790
49071SOL     OW49044   3.006   7.823  12.519
49071SOL    HW149045   2.998   7.886  12.447
49071SOL    HW249046   3.044   7.745  12.479
49072SOL     OW49047   7.867   7.480  14.799
49072SOL    HW149048   7.886   7.414  14.865
49072SOL    HW249049   7.828   7.552  14.847
49073SOL     OW49050  14.595  13.392   0.020
49073SOL    HW149051  14.646  13.360   0.095
49073SOL    HW249052  14.610  13.326  14.827
49074SOL     OW49053  11.352  14.697   6.016
49074SOL    HW149054  11.406  14.696   5.937
49074SOL    HW249055  11.413  14.715   6.087
49075SOL     OW49056   6.401  12.583   5.682
49075SOL    HW149057   6.351  12.551   5.757
49075SOL    HW249058   6.485  12.612   5.719
49076SOL     OW49059  13.880   5.300   0.454
49076SOL    HW149060  13.872   5.379   0.399
49076SOL    HW249061  13.792   5.284   0.486
49077SOL     OW49062  13.353  11.507   6.934
49077SOL    HW149063  13.325  11.579   6.991
49077SOL    HW249064  13.273  11.458   6.916
49078SOL     OW49065  11.366  13.649  11.305
49078SOL    HW149066  11.406  13.702  11.236
49078SOL    HW249067  11.437  13.594  11.337
49079SOL     OW49068   5.195   4.420   0.912
49079SOL    HW149069   5.121   4.360   0.895
49079SOL    HW249070   5.162   4.506   0.885
49080SOL     OW49071   7.328  14.282   8.168
49080SOL    HW149072   7.322  14.207   8.109
49080SOL    HW249073   7.249  14.278   8.221
49081SOL     OW49074  10.294  14.043  11.934
49081SOL    HW149075  10.199  14.047  11.945
49081SOL    HW249076  10.327  14.116  11.986
49082SOL     OW49077  11.774   1.218   4.185
49082SOL    HW149078  11.760   1.234   4.091
49082SOL    HW249079  11.817   1.298   4.216
49083SOL     OW49080   8.328  14.343   8.199
49083SOL    HW149081   8.266  14.397   8.150
49083SOL    HW249082   8.327  14.259   8.153
49084SOL     OW49083  13.059   5.291   2.083
49084SOL    HW149084  13.120   5.363   2.065
49084SOL    HW249085  12.976   5.334   2.101
49085SOL     OW49086  10.036   0.027  14.773
49085SOL    HW149087  10.054   0.018  14.680
49085SOL    HW249088   9.979  14.829  14.793
49086SOL     OW49089   8.579   3.855  13.264
49086SOL    HW149090   8.616   3.785  13.210
49086SOL    HW249091   8.495   3.875  13.223
49087SOL     OW49092   9.406   3.037  13.852
49087SOL    HW149093   9.400   2.947  13.885
49087SOL    HW249094   9.350   3.088  13.911
49088SOL     OW49095   2.274  11.289  12.747
49088SOL    HW149096   2.194  11.251  12.711
49088SOL    HW249097   2.332  11.298  12.671
49089SOL     OW49098   1.944   8.795   1.568
49089SOL    HW149099   1.970   8.762   1.482
49089SOL    HW249100   2.024   8.793   1.620
49090SOL     OW49101   7.350   9.895   4.544
49090SOL    HW149102   7.285   9.907   4.475
49090SOL    HW249103   7.314   9.941   4.620
49091SOL     OW49104   4.657   6.756   0.543
49091SOL    HW149105   4.619   6.764   0.630
49091SOL    HW249106   4.625   6.833   0.496
49092SOL     OW49107  14.357   5.470   3.966
49092SOL    HW149108  14.438   5.491   4.012
49092SOL    HW249109  14.358   5.526   3.888
49093SOL     OW49110   1.416   6.269  13.495
49093SOL    HW149111   1.431   6.339  13.432
49093SOL    HW249112   1.326   6.241  13.479
49094SOL     OW49113   0.078   6.351   2.468
49094SOL    HW149114   0.166   6.316   2.457
49094SOL    HW249115   0.033   6.329   2.387
49095SOL     OW49116   8.187  14.212   0.058
49095SOL    HW149117   8.227  14.273  14.873
49095SOL    HW249118   8.259  14.179   0.111
49096SOL     OW49119   0.250  12.543   0.529
49096SOL    HW149120   0.235  12.595   0.608
49096SOL    HW249121   0.321  12.484   0.552
49097SOL     OW49122   6.571  14.497  10.803
49097SOL    HW149123   6.575  14.592  10.816
49097SOL    HW249124   6.593  14.485  10.710
49098SOL     OW49125  10.017  11.143  12.438
49098SOL    HW149126   9.922  11.156  12.439
49098SOL    HW249127  10.029  11.055  12.403
49099SOL     OW49128   7.102  11.316   8.043
49099SOL    HW149129   7.101  11.394   7.988
49099SOL    HW249130   7.051  11.340   8.120
49100SOL     OW49131   8.060  11.246  12.365
49100SOL    HW149132   8.018  11.327  12.393
49100SOL    HW249133   8.005  11.213  12.294
49101SOL     OW49134  13.889   2.920  12.607
49101SOL    HW149135  13.904   2.826  12.602
49101SOL    HW249136  13.954   2.958  12.548
49102SOL     OW49137  13.498  11.398   9.370
49102SOL    HW149138  13.442  11.406   9.293
49102SOL    HW249139  13.587  11.392   9.334
49103SOL     OW49140   6.999  10.061   4.628
49103SOL    HW149141   7.002   9.999   4.700
49103SOL    HW249142   7.058  10.025   4.562
49104SOL     OW49143   8.096  11.725  12.643
49104SOL    HW149144   8.153  11.788  12.600
49104SOL    HW249145   8.046  11.777  12.706
49105SOL     OW49146   6.756   1.811  12.081
49105SOL    HW149147   6.770   1.896  12.122
49105SOL    HW249148   6.743   1.830  11.988
49106SOL     OW49149  10.696   7.576   1.588
49106SOL    HW149150  10.757   7.569   1.661
49106SOL    HW249151  10.676   7.669   1.582
49107SOL     OW49152  12.647  11.723  10.510
49107SOL    HW149153  12.702  11.796  10.539
49107SOL    HW249154  12.578  11.717  10.576
49108SOL     OW49155   6.505  11.359   1.150
49108SOL    HW149156   6.576  11.296   1.167
49108SOL    HW249157   6.452  11.318   1.081
49109SOL     OW49158   0.521  14.705  13.192
49109SOL    HW149159   0.574  14.732  13.116
49109SOL    HW249160   0.468  14.782  13.212
49110SOL     OW49161  10.774   9.125   1.849
49110SOL    HW149162  10.831   9.048   1.848
49110SOL    HW249163  10.695   9.096   1.893
49111SOL     OW49164   3.974   4.252   0.904
49111SOL    HW149165   4.001   4.339   0.931
49111SOL    HW249166   4.019   4.192   0.964
49112SOL     OW49167   6.494   1.483   4.439
49112SOL    HW149168   6.426   1.529   4.390
49112SOL    HW249169   6.482   1.511   4.529
49113SOL     OW49170  12.472   6.264   5.884
49113SOL    HW149171  12.505   6.258   5.794
49113SOL    HW249172  12.516   6.193   5.930
49114SOL     OW49173  14.666  10.747   6.952
49114SOL    HW149174  14.585  10.717   6.911
49114SOL    HW249175  14.639  10.773   7.041
49115SOL     OW49176  13.735   1.755  12.145
49115SOL    HW149177  13.651   1.750  12.100
49115SOL    HW249178  13.750   1.666  12.178
49116SOL     OW49179   9.601   6.820   9.490
49116SOL    HW149180   9.511   6.852   9.491
49116SOL    HW249181   9.596   6.737   9.443
49117SOL     OW49182   9.703   9.928   4.900
49117SOL    HW149183   9.716   9.945   4.993
49117SOL    HW249184   9.611   9.905   4.892
49118SOL     OW49185   1.466   2.853   2.912
49118SOL    HW149186   1.467   2.861   2.817
49118SOL    HW249187   1.537   2.793   2.932
49119SOL     OW49188   0.146  14.784   8.411
49119SOL    HW149189   0.237  14.754   8.413
49119SOL    HW249190   0.136  14.826   8.326
49120SOL     OW49191  14.313   6.422   5.445
49120SOL    HW149192  14.356   6.464   5.370
49120SOL    HW249193  14.385   6.397   5.502
49121SOL     OW49194   3.015  13.494   2.430
49121SOL    HW149195   3.074  13.496   2.506
49121SOL    HW249196   3.027  13.407   2.392
49122SOL     OW49197  11.875  13.195  10.683
49122SOL    HW149198  11.834  13.262  10.628
49122SOL    HW249199  11.952  13.167  10.634
49123SOL     OW49200   7.288   5.721   5.241
49123SOL    HW149201   7.194   5.737   5.256
49123SOL    HW249202   7.332   5.779   5.304
49124SOL     OW49203  14.764   8.481   2.632
49124SOL    HW149204  14.710   8.436   2.568
49124SOL    HW249205  14.825   8.534   2.581
49125SOL     OW49206   7.322  14.635   3.213
49125SOL    HW149207   7.345  14.605   3.125
49125SOL    HW249208   7.391  14.696   3.237
49126SOL     OW49209  14.430   2.672   6.108
49126SOL    HW149210  14.348   2.681   6.059
49126SOL    HW249211  14.467   2.589   6.079
49127SOL     OW49212   4.061   5.783  10.685
49127SOL    HW149213   4.139   5.734  10.713
49127SOL    HW249214   4.097   5.858  10.636
49128SOL     OW49215   9.274  13.709  13.284
49128SOL    HW149216   9.270  13.744  13.373
49128SOL    HW249217   9.251  13.784  13.228
49129SOL     OW49218  13.656   6.192   9.673
49129SOL    HW149219  13.588   6.258   9.659
49129SOL    HW249220  13.727   6.239   9.717
49130SOL     OW49221  13.390   0.810   7.838
49130SOL    HW149222  13.368   0.718   7.846
49130SOL    HW249223  13.483   0.814   7.861
49131SOL     OW49224  10.210  10.243   8.085
49131SOL    HW149225  10.201  10.277   8.174
49131SOL    HW249226  10.210  10.148   8.095
49132SOL     OW49227  14.454  12.735   6.042
49132SOL    HW149228  14.452  12.643   6.068
49132SOL    HW249229  14.474  12.733   5.949
49133SOL     OW49230   0.423   5.614  13.811
49133SOL    HW149231   0.375   5.558  13.873
49133SOL    HW249232   0.488   5.556  13.772
49134SOL     OW49233  12.926   3.750  12.654
49134SOL    HW149234  12.977   3.821  12.694
49134SOL    HW249235  12.861   3.727  12.721
49135SOL     OW49236   9.426   4.388  12.071
49135SOL    HW149237   9.374   4.453  12.118
49135SOL    HW249238   9.510   4.385  12.118
49136SOL     OW49239  12.942   4.089  13.664
49136SOL    HW149240  12.930   4.032  13.740
49136SOL    HW249241  13.010   4.046  13.612
49137SOL     OW49242   1.769   3.780   9.878
49137SOL    HW149243   1.789   3.722   9.951
49137SOL    HW249244   1.675   3.768   9.863
49138SOL     OW49245   6.694   4.759  14.832
49138SOL    HW149246   6.773   4.802  14.865
49138SOL    HW249247   6.727   4.695  14.769
49139SOL     OW49248   0.255   9.133   6.851
49139SOL    HW149249   0.317   9.066   6.821
49139SOL    HW249250   0.194   9.087   6.907
49140SOL     OW49251  14.808   5.101   9.330
49140SOL    HW149252  14.811   5.017   9.375
49140SOL    HW249253  14.807   5.079   9.237
49141SOL     OW49254   5.378   9.065  13.020
49141SOL    HW149255   5.404   9.148  12.980
49141SOL    HW249256   5.358   9.088  13.111
49142SOL     OW49257   6.212   7.358   1.657
49142SOL    HW149258   6.181   7.382   1.745
49142SOL    HW249259   6.157   7.285   1.631
49143SOL     OW49260   2.276  13.009   1.412
49143SOL    HW149261   2.202  12.961   1.376
49143SOL    HW249262   2.341  12.942   1.431
49144SOL     OW49263   4.987   5.094   4.791
49144SOL    HW149264   4.963   5.067   4.880
49144SOL    HW249265   4.904   5.117   4.750
49145SOL     OW49266   2.122   0.885   4.173
49145SOL    HW149267   2.139   0.965   4.124
49145SOL    HW249268   2.032   0.893   4.203
49146SOL     OW49269  13.391   4.123   3.145
49146SOL    HW149270  13.473   4.112   3.096
49146SOL    HW249271  13.400   4.209   3.186
49147SOL     OW49272  14.040  11.275   6.400
49147SOL    HW149273  14.116  11.221   6.380
49147SOL    HW249274  13.986  11.221   6.457
49148SOL     OW49275   1.559  11.210   0.285
49148SOL    HW149276   1.610  11.219   0.365
49148SOL    HW249277   1.477  11.170   0.312
49149SOL     OW49278   6.599  11.282   2.840
49149SOL    HW149279   6.652  11.360   2.852
49149SOL    HW249280   6.562  11.264   2.926
49150SOL     OW49281   6.464   5.294   3.781
49150SOL    HW149282   6.430   5.210   3.753
49150SOL    HW249283   6.554   5.297   3.747
49151SOL     OW49284   1.425   6.559  14.815
49151SOL    HW149285   1.396   6.487  14.760
49151SOL    HW249286   1.365   6.557   0.014
49152SOL     OW49287   7.153   6.002   1.739
49152SOL    HW149288   7.171   5.921   1.692
49152SOL    HW249289   7.064   5.992   1.773
49153SOL     OW49290   3.430  10.457  11.242
49153SOL    HW149291   3.480  10.511  11.180
49153SOL    HW249292   3.431  10.370  11.203
49154SOL     OW49293   6.503   6.435   2.710
49154SOL    HW149294   6.555   6.476   2.780
49154SOL    HW249295   6.416   6.426   2.748
49155SOL     OW49296   9.715   5.909  12.093
49155SOL    HW149297   9.801   5.913  12.135
49155SOL    HW249298   9.699   5.998  12.061
49156SOL     OW49299   9.861   1.442   6.611
49156SOL    HW149300   9.950   1.478   6.607
49156SOL    HW249301   9.874   1.349   6.631
49157SOL     OW49302   1.375   2.154   8.775
49157SOL    HW149303   1.422   2.227   8.814
49157SOL    HW249304   1.438   2.082   8.774
49158SOL     OW49305  13.466  14.278  13.211
49158SOL    HW149306  13.415  14.228  13.275
49158SOL    HW249307  13.400  14.313  13.150
49159SOL     OW49308   0.555   6.076   0.590
49159SOL    HW149309   0.490   6.006   0.596
49159SOL    HW249310   0.504   6.154   0.568
49160SOL     OW49311   9.304  11.870   5.694
49160SOL    HW149312   9.320  11.900   5.784
49160SOL    HW249313   9.391  11.856   5.657
49161SOL     OW49314   3.725   2.483  10.895
49161SOL    HW149315   3.764   2.503  10.981
49161SOL    HW249316   3.642   2.441  10.916
49162SOL     OW49317   7.552   3.793  13.262
49162SOL    HW149318   7.642   3.823  13.252
49162SOL    HW249319   7.529   3.760  13.175
49163SOL     OW49320   8.667   2.746   7.817
49163SOL    HW149321   8.701   2.835   7.829
49163SOL    HW249322   8.732   2.689   7.859
49164SOL     OW49323  12.754  11.817  11.715
49164SOL    HW149324  12.758  11.911  11.701
49164SOL    HW249325  12.742  11.807  11.809
49165SOL     OW49326  11.657   0.370  13.651
49165SOL    HW149327  11.680   0.387  13.743
49165SOL    HW249328  11.583   0.310  13.656
49166SOL     OW49329   1.617   5.711   8.935
49166SOL    HW149330   1.663   5.640   8.980
49166SOL    HW249331   1.685   5.754   8.883
49167SOL     OW49332  10.728   2.648   7.053
49167SOL    HW149333  10.734   2.742   7.039
49167SOL    HW249334  10.710   2.612   6.966
49168SOL     OW49335  10.609   6.170   6.837
49168SOL    HW149336  10.665   6.197   6.765
49168SOL    HW249337  10.632   6.078   6.852
49169SOL     OW49338   6.198   6.178   2.369
49169SOL    HW149339   6.292   6.162   2.364
49169SOL    HW249340   6.162   6.097   2.404
49170SOL     OW49341   8.560  11.696   8.531
49170SOL    HW149342   8.617  11.670   8.459
49170SOL    HW249343   8.554  11.618   8.586
49171SOL     OW49344   7.914  11.985   0.747
49171SOL    HW149345   7.853  11.951   0.681
49171SOL    HW249346   7.950  11.907   0.788
49172SOL     OW49347  14.662  12.098   5.739
49172SOL    HW149348  14.618  12.158   5.799
49172SOL    HW249349  14.756  12.115   5.752
49173SOL     OW49350   3.100   6.192  12.674
49173SOL    HW149351   3.164   6.135  12.717
49173SOL    HW249352   3.137   6.209  12.587
49174SOL     OW49353  12.328   8.104   5.249
49174SOL    HW149354  12.328   8.008   5.244
49174SOL    HW249355  12.404   8.125   5.304
49175SOL     OW49356   7.886   6.197  11.690
49175SOL    HW149357   7.929   6.114  11.670
49175SOL    HW249358   7.888   6.246  11.607
49176SOL     OW49359  13.288   2.429   6.678
49176SOL    HW149360  13.282   2.346   6.630
49176SOL    HW249361  13.213   2.479   6.649
49177SOL     OW49362   1.223   7.961  13.363
49177SOL    HW149363   1.217   7.870  13.333
49177SOL    HW249364   1.133   7.994  13.356
49178SOL     OW49365   1.712  14.844  11.270
49178SOL    HW149366   1.755   0.020  11.203
49178SOL    HW249367   1.738   0.008  11.353
49179SOL     OW49368   7.020   8.960   6.827
49179SOL    HW149369   7.057   9.024   6.888
49179SOL    HW249370   6.930   8.947   6.857
49180SOL     OW49371   4.668   3.812  13.830
49180SOL    HW149372   4.600   3.875  13.805
49180SOL    HW249373   4.663   3.743  13.764
49181SOL     OW49374  12.846   0.124   1.064
49181SOL    HW149375  12.906   0.095   1.133
49181SOL    HW249376  12.874   0.074   0.987
49182SOL     OW49377   1.732   6.921  11.989
49182SOL    HW149378   1.693   6.922  12.076
49182SOL    HW249379   1.664   6.959  11.932
49183SOL     OW49380  10.719   6.971   2.544
49183SOL    HW149381  10.699   6.927   2.461
49183SOL    HW249382  10.722   7.064   2.522
49184SOL     OW49383   6.836  10.646   0.808
49184SOL    HW149384   6.816  10.553   0.818
49184SOL    HW249385   6.752  10.690   0.813
49185SOL     OW49386   7.795  13.048  10.285
49185SOL    HW149387   7.713  13.000  10.269
49185SOL    HW249388   7.792  13.069  10.378
49186SOL     OW49389   0.523   6.875   2.564
49186SOL    HW149390   0.560   6.817   2.631
49186SOL    HW249391   0.446   6.828   2.531
49187SOL     OW49392  10.785   5.766  12.404
49187SOL    HW149393  10.749   5.724  12.325
49187SOL    HW249394  10.880   5.759  12.394
49188SOL     OW49395   3.281  11.644   3.638
49188SOL    HW149396   3.314  11.731   3.615
49188SOL    HW249397   3.301  11.635   3.731
49189SOL     OW49398   2.966   4.801   1.802
49189SOL    HW149399   2.936   4.759   1.721
49189SOL    HW249400   2.912   4.878   1.811
49190SOL     OW49401   2.175   1.121   0.121
49190SOL    HW149402   2.141   1.194   0.070
49190SOL    HW249403   2.216   1.161   0.198
49191SOL     OW49404  13.703  14.249   3.824
49191SOL    HW149405  13.725  14.327   3.772
49191SOL    HW249406  13.670  14.186   3.759
49192SOL     OW49407   9.096   4.526   0.225
49192SOL    HW149408   9.186   4.495   0.237
49192SOL    HW249409   9.097   4.615   0.261
49193SOL     OW49410   1.288  14.227   9.279
49193SOL    HW149411   1.261  14.142   9.245
49193SOL    HW249412   1.275  14.287   9.206
49194SOL     OW49413   1.479   4.974   5.782
49194SOL    HW149414   1.421   4.902   5.757
49194SOL    HW249415   1.551   4.969   5.719
49195SOL     OW49416   2.393   8.414   5.914
49195SOL    HW149417   2.392   8.416   5.818
49195SOL    HW249418   2.312   8.369   5.938
49196SOL     OW49419   3.218   5.893   9.460
49196SOL    HW149420   3.269   5.950   9.403
49196SOL    HW249421   3.203   5.945   9.539
49197SOL     OW49422  11.752  10.327  12.428
49197SOL    HW149423  11.686  10.315  12.497
49197SOL    HW249424  11.835  10.310  12.471
49198SOL     OW49425   9.289   4.482  14.494
49198SOL    HW149426   9.384   4.473  14.484
49198SOL    HW249427   9.253   4.415  14.437
49199SOL     OW49428   9.641   7.401   3.490
49199SOL    HW149429   9.602   7.410   3.577
49199SOL    HW249430   9.595   7.466   3.437
49200SOL     OW49431   6.219  13.500   4.211
49200SOL    HW149432   6.146  13.466   4.264
49200SOL    HW249433   6.176  13.548   4.141
49201SOL     OW49434  10.215  12.231   4.928
49201SOL    HW149435  10.222  12.234   5.023
49201SOL    HW249436  10.121  12.231   4.910
49202SOL     OW49437   6.532   2.248   1.244
49202SOL    HW149438   6.556   2.338   1.220
49202SOL    HW249439   6.603   2.219   1.301
49203SOL     OW49440  11.970   7.056  11.067
49203SOL    HW149441  11.916   7.130  11.093
49203SOL    HW249442  11.942   7.035  10.977
49204SOL     OW49443  11.186   8.103   9.081
49204SOL    HW149444  11.095   8.131   9.086
49204SOL    HW249445  11.182   8.010   9.060
49205SOL     OW49446  12.655  14.420   8.507
49205SOL    HW149447  12.746  14.449   8.501
49205SOL    HW249448  12.623  14.423   8.417
49206SOL     OW49449   4.016   2.966  14.370
49206SOL    HW149450   4.074   2.924  14.307
49206SOL    HW249451   3.928   2.933  14.347
49207SOL     OW49452   3.343   9.745   5.586
49207SOL    HW149453   3.301   9.821   5.545
49207SOL    HW249454   3.378   9.695   5.512
49208SOL     OW49455   7.509   6.706  10.680
49208SOL    HW149456   7.515   6.789  10.727
49208SOL    HW249457   7.427   6.712  10.630
49209SOL     OW49458   1.524  14.183   2.359
49209SOL    HW149459   1.484  14.107   2.317
49209SOL    HW249460   1.617  14.164   2.360
49210SOL     OW49461  14.592   9.590   1.028
49210SOL    HW149462  14.513   9.556   0.987
49210SOL    HW249463  14.591   9.684   1.010
49211SOL     OW49464   8.200   1.088   6.050
49211SOL    HW149465   8.161   1.133   6.125
49211SOL    HW249466   8.175   0.997   6.060
49212SOL     OW49467   0.530  12.285  11.761
49212SOL    HW149468   0.444  12.275  11.722
49212SOL    HW249469   0.589  12.236  11.704
49213SOL     OW49470   9.626   4.656   9.187
49213SOL    HW149471   9.647   4.614   9.270
49213SOL    HW249472   9.537   4.627   9.167
49214SOL     OW49473  12.822   9.595   2.800
49214SOL    HW149474  12.748   9.547   2.762
49214SOL    HW249475  12.812   9.684   2.767
49215SOL     OW49476  13.014   4.515  12.433
49215SOL    HW149477  13.074   4.558  12.372
49215SOL    HW249478  12.927   4.529  12.397
49216SOL     OW49479   2.891   0.234   5.289
49216SOL    HW149480   2.846   0.227   5.373
49216SOL    HW249481   2.832   0.191   5.227
49217SOL     OW49482   4.708  13.494  10.793
49217SOL    HW149483   4.696  13.399  10.794
49217SOL    HW249484   4.777  13.510  10.857
49218SOL     OW49485   1.511   2.939  13.416
49218SOL    HW149486   1.478   2.882  13.485
49218SOL    HW249487   1.593   2.974  13.451
49219SOL     OW49488   8.094   1.498   0.968
49219SOL    HW149489   8.052   1.567   0.916
49219SOL    HW249490   8.035   1.423   0.960
49220SOL     OW49491  11.060   1.930  14.033
49220SOL    HW149492  11.050   1.975  14.116
49220SOL    HW249493  10.972   1.927  13.996
49221SOL     OW49494  14.376  10.948   5.145
49221SOL    HW149495  14.388  10.866   5.096
49221SOL    HW249496  14.464  10.975   5.169
49222SOL     OW49497   0.111   4.043  10.781
49222SOL    HW149498   0.205   4.058  10.773
49222SOL    HW249499   0.088   4.083  10.865
49223SOL     OW49500  13.204  13.335   2.606
49223SOL    HW149501  13.238  13.420   2.580
49223SOL    HW249502  13.149  13.354   2.682
49224SOL     OW49503   2.989   5.026  11.222
49224SOL    HW149504   2.955   5.065  11.141
49224SOL    HW249505   2.967   4.933  11.215
49225SOL     OW49506  10.530   1.105  10.541
49225SOL    HW149507  10.607   1.068  10.582
49225SOL    HW249508  10.552   1.111  10.448
49226SOL     OW49509   3.089   8.895   1.146
49226SOL    HW149510   3.082   8.979   1.192
49226SOL    HW249511   3.177   8.894   1.111
49227SOL     OW49512  13.920   0.360   2.215
49227SOL    HW149513  13.925   0.332   2.307
49227SOL    HW249514  13.872   0.289   2.172
49228SOL     OW49515   4.580   1.211  14.100
49228SOL    HW149516   4.614   1.171  14.180
49228SOL    HW249517   4.518   1.147  14.065
49229SOL     OW49518   2.249   1.043  10.419
49229SOL    HW149519   2.194   1.105  10.372
49229SOL    HW249520   2.248   0.964  10.365
49230SOL     OW49521   4.906  10.405   0.109
49230SOL    HW149522   4.904  10.479   0.047
49230SOL    HW249523   4.999  10.384   0.117
49231SOL     OW49524   1.174   4.550   1.491
49231SOL    HW149525   1.101   4.573   1.433
49231SOL    HW249526   1.233   4.499   1.437
49232SOL     OW49527   8.360   9.777   0.685
49232SOL    HW149528   8.453   9.792   0.698
49232SOL    HW249529   8.335   9.840   0.617
49233SOL     OW49530  12.301  14.456   8.276
49233SOL    HW149531  12.225  14.467   8.333
49233SOL    HW249532  12.373  14.434   8.336
49234SOL     OW49533   2.259   0.463  13.195
49234SOL    HW149534   2.170   0.486  13.168
49234SOL    HW249535   2.303   0.439  13.114
49235SOL     OW49536   0.042   3.344   6.836
49235SOL    HW149537  14.872   3.416   6.793
49235SOL    HW249538   0.024   3.355   6.929
49236SOL     OW49539   7.281   5.359   9.701
49236SOL    HW149540   7.317   5.301   9.633
49236SOL    HW249541   7.305   5.316   9.783
49237SOL     OW49542   9.150   5.414   1.380
49237SOL    HW149543   9.220   5.389   1.319
49237SOL    HW249544   9.089   5.340   1.377
49238SOL     OW49545   7.236   4.566   1.232
49238SOL    HW149546   7.221   4.607   1.317
49238SOL    HW249547   7.208   4.475   1.244
49239SOL     OW49548   0.426   8.419   4.306
49239SOL    HW149549   0.332   8.431   4.289
49239SOL    HW249550   0.440   8.325   4.296
49240SOL     OW49551   8.922  11.689   6.068
49240SOL    HW149552   8.982  11.718   5.999
49240SOL    HW249553   8.963  11.609   6.102
49241SOL     OW49554   0.135  11.314   1.984
49241SOL    HW149555   0.088  11.326   1.901
49241SOL    HW249556   0.096  11.236   2.023
49242SOL     OW49557   0.162   5.702   0.938
49242SOL    HW149558   0.135   5.618   0.901
49242SOL    HW249559   0.256   5.708   0.917
49243SOL     OW49560  11.871  11.199   5.208
49243SOL    HW149561  11.873  11.187   5.303
49243SOL    HW249562  11.834  11.118   5.174
49244SOL     OW49563  10.264   7.047   8.112
49244SOL    HW149564  10.289   7.079   8.025
49244SOL    HW249565  10.290   6.955   8.111
49245SOL     OW49566   6.556  13.598   6.229
49245SOL    HW149567   6.559  13.588   6.324
49245SOL    HW249568   6.647  13.614   6.204
49246SOL     OW49569  12.454  13.656  13.225
49246SOL    HW149570  12.509  13.583  13.197
49246SOL    HW249571  12.491  13.683  13.309
49247SOL     OW49572   8.436   6.744   2.960
49247SOL    HW149573   8.428   6.659   2.918
49247SOL    HW249574   8.345   6.772   2.974
49248SOL     OW49575   1.233   6.898   4.392
49248SOL    HW149576   1.171   6.967   4.415
49248SOL    HW249577   1.319   6.938   4.403
49249SOL     OW49578  12.471  14.134   0.477
49249SOL    HW149579  12.544  14.195   0.480
49249SOL    HW249580  12.404  14.173   0.534
49250SOL     OW49581   8.743   6.834   8.931
49250SOL    HW149582   8.815   6.871   8.983
49250SOL    HW249583   8.677   6.903   8.930
49251SOL     OW49584   6.513   4.388   2.948
49251SOL    HW149585   6.545   4.401   3.037
49251SOL    HW249586   6.486   4.475   2.919
49252SOL     OW49587   2.857  11.223   5.697
49252SOL    HW149588   2.925  11.224   5.629
49252SOL    HW249589   2.847  11.131   5.719
49253SOL     OW49590   1.725   4.978  11.376
49253SOL    HW149591   1.768   4.997  11.293
49253SOL    HW249592   1.785   5.011  11.443
49254SOL     OW49593   6.240  12.953  12.263
49254SOL    HW149594   6.196  12.874  12.234
49254SOL    HW249595   6.302  12.974  12.194
49255SOL     OW49596   9.373  12.141  12.699
49255SOL    HW149597   9.399  12.049  12.697
49255SOL    HW249598   9.399  12.175  12.614
49256SOL     OW49599   0.780  13.095   5.483
49256SOL    HW149600   0.750  13.181   5.513
49256SOL    HW249601   0.700  13.044   5.475
49257SOL     OW49602  13.197  14.730  14.547
49257SOL    HW149603  13.194  14.716  14.641
49257SOL    HW249604  13.155  14.814  14.533
49258SOL     OW49605  10.533  12.843   3.489
49258SOL    HW149606  10.608  12.794   3.524
49258SOL    HW249607  10.473  12.775   3.459
49259SOL     OW49608   8.688   8.569  14.466
49259SOL    HW149609   8.732   8.654  14.464
49259SOL    HW249610   8.667   8.551  14.374
49260SOL     OW49611  12.219   1.672   8.854
49260SOL    HW149612  12.291   1.718   8.813
49260SOL    HW249613  12.255   1.586   8.876
49261SOL     OW49614   0.554  11.104   2.508
49261SOL    HW149615   0.642  11.139   2.497
49261SOL    HW249616   0.500  11.160   2.452
49262SOL     OW49617   4.694   1.293  10.491
49262SOL    HW149618   4.749   1.285  10.412
49262SOL    HW249619   4.749   1.339  10.554
49263SOL     OW49620   2.764  10.086  10.864
49263SOL    HW149621   2.758  10.100  10.769
49263SOL    HW249622   2.757   9.991  10.874
49264SOL     OW49623   1.795  14.578  11.187
49264SOL    HW149624   1.757  14.666  11.190
49264SOL    HW249625   1.873  14.588  11.133
49265SOL     OW49626   0.039  13.069  14.808
49265SOL    HW149627   0.102  13.133  14.776
49265SOL    HW249628   0.090  13.012  14.866
49266SOL     OW49629   0.403  10.273   6.191
49266SOL    HW149630   0.347  10.208   6.235
49266SOL    HW249631   0.378  10.268   6.099
49267SOL     OW49632   2.131   4.235   7.418
49267SOL    HW149633   2.167   4.174   7.483
49267SOL    HW249634   2.037   4.219   7.421
49268SOL     OW49635   1.934   6.839   1.055
49268SOL    HW149636   1.978   6.867   1.135
49268SOL    HW249637   1.855   6.893   1.051
49269SOL     OW49638   2.526  14.498   8.801
49269SOL    HW149639   2.449  14.556   8.792
49269SOL    HW249640   2.534  14.484   8.895
49270SOL     OW49641   9.207   7.197   7.132
49270SOL    HW149642   9.196   7.102   7.125
49270SOL    HW249643   9.301   7.211   7.119
49271SOL     OW49644  10.433  13.816   0.859
49271SOL    HW149645  10.453  13.743   0.801
49271SOL    HW249646  10.451  13.894   0.805
49272SOL     OW49647   5.387   8.688   6.843
49272SOL    HW149648   5.342   8.603   6.836
49272SOL    HW249649   5.373   8.730   6.758
49273SOL     OW49650  11.460   9.465   1.039
49273SOL    HW149651  11.369   9.473   1.068
49273SOL    HW249652  11.479   9.371   1.046
49274SOL     OW49653   6.871   0.758   9.800
49274SOL    HW149654   6.871   0.796   9.712
49274SOL    HW249655   6.856   0.833   9.858
49275SOL     OW49656   7.092   3.958  14.127
49275SOL    HW149657   7.186   3.953  14.111
49275SOL    HW249658   7.078   4.046  14.162
49276SOL     OW49659  10.543   9.428   7.058
49276SOL    HW149660  10.624   9.472   7.032
49276SOL    HW249661  10.562   9.335   7.048
49277SOL     OW49662  13.500   6.394   3.192
49277SOL    HW149663  13.540   6.313   3.223
49277SOL    HW249664  13.503   6.453   3.267
49278SOL     OW49665   7.694  13.032   4.271
49278SOL    HW149666   7.657  13.008   4.186
49278SOL    HW249667   7.764  13.094   4.249
49279SOL     OW49668   7.863   2.600   0.914
49279SOL    HW149669   7.930   2.638   0.858
49279SOL    HW249670   7.781   2.617   0.868
49280SOL     OW49671   9.508   6.397   0.786
49280SOL    HW149672   9.478   6.488   0.783
49280SOL    HW249673   9.553   6.388   0.870
49281SOL     OW49674  12.769  13.208   8.188
49281SOL    HW149675  12.810  13.231   8.271
49281SOL    HW249676  12.769  13.112   8.187
49282SOL     OW49677   1.219   9.783   0.828
49282SOL    HW149678   1.144   9.803   0.883
49282SOL    HW249679   1.281   9.854   0.844
49283SOL     OW49680  14.588  13.148   9.666
49283SOL    HW149681  14.649  13.185   9.602
49283SOL    HW249682  14.568  13.061   9.633
49284SOL     OW49683   7.768   5.438   0.199
49284SOL    HW149684   7.859   5.437   0.230
49284SOL    HW249685   7.765   5.368   0.133
49285SOL     OW49686  12.082   5.453   8.761
49285SOL    HW149687  12.111   5.516   8.827
49285SOL    HW249688  12.137   5.377   8.774
49286SOL     OW49689   2.819   9.153   2.237
49286SOL    HW149690   2.812   9.155   2.332
49286SOL    HW249691   2.742   9.202   2.207
49287SOL     OW49692   5.379  10.039   9.532
49287SOL    HW149693   5.320  10.111   9.555
49287SOL    HW249694   5.390  10.048   9.437
49288SOL     OW49695   5.439   5.052  13.554
49288SOL    HW149696   5.449   5.055  13.650
49288SOL    HW249697   5.418   4.961  13.535
49289SOL     OW49698   9.069  13.932   5.602
49289SOL    HW149699   9.116  13.855   5.631
49289SOL    HW249700   9.076  13.994   5.675
49290SOL     OW49701   5.109   3.807   4.742
49290SOL    HW149702   5.124   3.787   4.649
49290SOL    HW249703   5.186   3.857   4.768
49291SOL     OW49704   9.449  11.155   9.702
49291SOL    HW149705   9.392  11.135   9.628
49291SOL    HW249706   9.495  11.235   9.677
49292SOL     OW49707   9.691   0.191  12.775
49292SOL    HW149708   9.710   0.112  12.824
49292SOL    HW249709   9.598   0.186  12.754
49293SOL     OW49710  13.504  13.598  11.042
49293SOL    HW149711  13.449  13.668  11.006
49293SOL    HW249712  13.480  13.521  10.990
49294SOL     OW49713   0.342   6.228   2.531
49294SOL    HW149714   0.370   6.297   2.591
49294SOL    HW249715   0.420   6.205   2.482
49295SOL     OW49716   4.757  11.118   4.217
49295SOL    HW149717   4.730  11.151   4.131
49295SOL    HW249718   4.765  11.024   4.205
49296SOL     OW49719   3.769   8.006   9.384
49296SOL    HW149720   3.759   7.914   9.408
49296SOL    HW249721   3.863   8.023   9.393
49297SOL     OW49722   8.395   9.091  14.730
49297SOL    HW149723   8.451   9.164  14.758
49297SOL    HW249724   8.374   9.110  14.639
49298SOL     OW49725   3.032  12.199  13.892
49298SOL    HW149726   3.040  12.155  13.976
49298SOL    HW249727   3.076  12.141  13.830
49299SOL     OW49728   3.984   7.177   9.149
49299SOL    HW149729   3.965   7.252   9.206
49299SOL    HW249730   3.898   7.149   9.118
49300SOL     OW49731   0.929   6.437   3.295
49300SOL    HW149732   0.853   6.494   3.283
49300SOL    HW249733   0.892   6.348   3.295
49301SOL     OW49734   6.181   7.748   8.900
49301SOL    HW149735   6.166   7.840   8.919
49301SOL    HW249736   6.094   7.711   8.885
49302SOL     OW49737   3.787  11.928   6.645
49302SOL    HW149738   3.872  11.970   6.640
49302SOL    HW249739   3.783  11.873   6.567
49303SOL     OW49740   8.179  12.220   8.889
49303SOL    HW149741   8.171  12.169   8.969
49303SOL    HW249742   8.177  12.155   8.818
49304SOL     OW49743   3.280  10.721   0.600
49304SOL    HW149744   3.186  10.737   0.589
49304SOL    HW249745   3.293  10.632   0.569
49305SOL     OW49746  10.269  12.004   1.737
49305SOL    HW149747  10.278  12.100   1.739
49305SOL    HW249748  10.177  11.988   1.756
49306SOL     OW49749   6.383   2.898   7.838
49306SOL    HW149750   6.450   2.951   7.795
49306SOL    HW249751   6.335   2.857   7.766
49307SOL     OW49752   4.716   1.352   3.426
49307SOL    HW149753   4.799   1.389   3.454
49307SOL    HW249754   4.726   1.334   3.333
49308SOL     OW49755  14.354   4.951   4.949
49308SOL    HW149756  14.277   4.986   4.906
49308SOL    HW249757  14.428   4.989   4.901
49309SOL     OW49758   5.271   1.220   6.250
49309SOL    HW149759   5.237   1.148   6.303
49309SOL    HW249760   5.269   1.187   6.160
49310SOL     OW49761  12.349   2.685   7.859
49310SOL    HW149762  12.337   2.776   7.833
49310SOL    HW249763  12.262   2.646   7.848
49311SOL     OW49764   1.837   2.103   2.323
49311SOL    HW149765   1.750   2.092   2.362
49311SOL    HW249766   1.867   2.189   2.353
49312SOL     OW49767   1.835  13.414  12.639
49312SOL    HW149768   1.879  13.410  12.554
49312SOL    HW249769   1.781  13.335  12.642
49313SOL     OW49770   1.269   1.156  10.273
49313SOL    HW149771   1.223   1.199  10.345
49313SOL    HW249772   1.312   1.081  10.314
49314SOL     OW49773  13.887   5.937   9.267
49314SOL    HW149774  13.860   5.971   9.352
49314SOL    HW249775  13.982   5.926   9.275
49315SOL     OW49776  12.856   5.649  12.636
49315SOL    HW149777  12.918   5.673  12.568
49315SOL    HW249778  12.856   5.725  12.696
49316SOL     OW49779  10.901   6.158   5.473
49316SOL    HW149780  10.910   6.243   5.430
49316SOL    HW249781  10.813   6.160   5.512
49317SOL     OW49782   0.469  11.878   3.506
49317SOL    HW149783   0.451  11.967   3.478
49317SOL    HW249784   0.517  11.839   3.433
49318SOL     OW49785   0.745   5.262   4.782
49318SOL    HW149786   0.678   5.292   4.843
49318SOL    HW249787   0.740   5.167   4.785
49319SOL     OW49788   2.769  14.427  13.412
49319SOL    HW149789   2.807  14.511  13.439
49319SOL    HW249790   2.841  14.365  13.421
49320SOL     OW49791   6.210  14.072   7.456
49320SOL    HW149792   6.134  14.129   7.443
49320SOL    HW249793   6.177  14.002   7.512
49321SOL     OW49794  12.795  11.944  14.743
49321SOL    HW149795  12.825  12.033  14.725
49321SOL    HW249796  12.832  11.891  14.672
49322SOL     OW49797   2.096   5.364  14.458
49322SOL    HW149798   2.168   5.366  14.395
49322SOL    HW249799   2.131   5.321  14.535
49323SOL     OW49800  10.452  14.322   1.119
49323SOL    HW149801  10.547  14.321   1.109
49323SOL    HW249802  10.429  14.415   1.121
49324SOL     OW49803   6.737   1.472   8.089
49324SOL    HW149804   6.776   1.452   8.174
49324SOL    HW249805   6.713   1.387   8.053
49325SOL     OW49806   7.160   6.083  10.426
49325SOL    HW149807   7.066   6.097  10.429
49325SOL    HW249808   7.170   5.990  10.403
49326SOL     OW49809   1.722   0.098   0.416
49326SOL    HW149810   1.807   0.137   0.435
49326SOL    HW249811   1.720   0.019   0.470
49327SOL     OW49812  12.289   3.015  12.342
49327SOL    HW149813  12.240   3.062  12.275
49327SOL    HW249814  12.274   3.064  12.422
49328SOL     OW49815   2.292   8.038   4.383
49328SOL    HW149816   2.240   8.040   4.463
49328SOL    HW249817   2.227   8.037   4.312
49329SOL     OW49818   5.047   2.100   0.792
49329SOL    HW149819   4.986   2.172   0.778
49329SOL    HW249820   5.123   2.140   0.834
49330SOL     OW49821   4.893  14.874   7.107
49330SOL    HW149822   4.892  14.800   7.046
49330SOL    HW249823   4.807  14.871   7.149
49331SOL     OW49824   0.643  11.959   6.721
49331SOL    HW149825   0.615  12.048   6.742
49331SOL    HW249826   0.562  11.914   6.697
49332SOL     OW49827   9.932   2.503  10.514
49332SOL    HW149828   9.975   2.488  10.429
49332SOL    HW249829  10.004   2.504  10.577
49333SOL     OW49830   2.826   1.739   8.886
49333SOL    HW149831   2.819   1.685   8.965
49333SOL    HW249832   2.768   1.813   8.902
49334SOL     OW49833  14.675   0.878   7.030
49334SOL    HW149834  14.584   0.859   7.053
49334SOL    HW249835  14.708   0.795   6.996
49335SOL     OW49836   6.486   2.561   9.558
49335SOL    HW149837   6.518   2.650   9.576
49335SOL    HW249838   6.448   2.532   9.641
49336SOL     OW49839   4.919   1.073   0.108
49336SOL    HW149840   4.986   1.006   0.120
49336SOL    HW249841   4.844   1.025   0.073
49337SOL     OW49842  11.315   4.114   9.436
49337SOL    HW149843  11.363   4.182   9.485
49337SOL    HW249844  11.232   4.155   9.413
49338SOL     OW49845   6.824  13.199  10.038
49338SOL    HW149846   6.784  13.239  10.115
49338SOL    HW249847   6.750  13.179   9.980
49339SOL     OW49848   2.265   4.837   6.998
49339SOL    HW149849   2.307   4.843   7.083
49339SOL    HW249850   2.338   4.834   6.935
49340SOL     OW49851   9.542  14.176   7.539
49340SOL    HW149852   9.483  14.240   7.578
49340SOL    HW249853   9.484  14.113   7.496
49341SOL     OW49854   5.648  13.466  12.056
49341SOL    HW149855   5.728  13.506  12.090
49341SOL    HW249856   5.668  13.446  11.964
49342SOL     OW49857   3.869  10.340   4.519
49342SOL    HW149858   3.854  10.408   4.585
49342SOL    HW249859   3.965  10.335   4.511
49343SOL     OW49860   0.429   5.566   3.284
49343SOL    HW149861   0.523   5.565   3.305
49343SOL    HW249862   0.404   5.474   3.284
49344SOL     OW49863   9.332   9.645  12.168
49344SOL    HW149864   9.326   9.572  12.107
49344SOL    HW249865   9.278   9.618  12.242
49345SOL     OW49866   4.194   9.303  12.740
49345SOL    HW149867   4.251   9.299  12.663
49345SOL    HW249868   4.254   9.291  12.814
49346SOL     OW49869  11.369   9.603   6.338
49346SOL    HW149870  11.335   9.692   6.325
49346SOL    HW249871  11.293   9.553   6.367
49347SOL     OW49872   9.687  13.334   8.657
49347SOL    HW149873   9.636  13.405   8.619
49347SOL    HW249874   9.660  13.257   8.606
49348SOL     OW49875   2.065   4.444  14.346
49348SOL    HW149876   2.129   4.383  14.308
49348SOL    HW249877   2.061   4.420  14.438
49349SOL     OW49878   6.348  14.765  12.011
49349SOL    HW149879   6.387  14.839  12.056
49349SOL    HW249880   6.404  14.691  12.032
49350SOL     OW49881  10.835  10.733  13.709
49350SOL    HW149882  10.818  10.666  13.775
49350SOL    HW249883  10.803  10.695  13.627
49351SOL     OW49884   4.543   4.192  10.979
49351SOL    HW149885   4.615   4.200  10.916
49351SOL    HW249886   4.546   4.274  11.029
49352SOL     OW49887  10.854   8.700   5.580
49352SOL    HW149888  10.900   8.767   5.630
49352SOL    HW249889  10.797   8.657   5.644
49353SOL     OW49890  11.954  14.205   3.306
49353SOL    HW149891  11.937  14.119   3.344
49353SOL    HW249892  12.006  14.252   3.371
49354SOL     OW49893  13.715   8.362  13.135
49354SOL    HW149894  13.725   8.296  13.204
49354SOL    HW249895  13.644   8.329  13.080
49355SOL     OW49896   6.306  10.128   4.650
49355SOL    HW149897   6.265  10.071   4.715
49355SOL    HW249898   6.391  10.151   4.688
49356SOL     OW49899   5.693   4.878   2.720
49356SOL    HW149900   5.615   4.877   2.775
49356SOL    HW249901   5.683   4.802   2.662
49357SOL     OW49902   8.426   5.667   8.090
49357SOL    HW149903   8.361   5.646   8.023
49357SOL    HW249904   8.377   5.716   8.156
49358SOL     OW49905   6.522   1.449   3.975
49358SOL    HW149906   6.452   1.384   3.970
49358SOL    HW249907   6.561   1.449   3.888
49359SOL     OW49908   4.111  14.225   1.962
49359SOL    HW149909   4.063  14.170   1.900
49359SOL    HW249910   4.188  14.254   1.912
49360SOL     OW49911   8.455   2.441  14.859
49360SOL    HW149912   8.517   2.514  14.859
49360SOL    HW249913   8.502   2.370  14.815
49361SOL     OW49914   0.191   9.869  11.280
49361SOL    HW149915   0.198   9.942  11.219
49361SOL    HW249916   0.126   9.897  11.345
49362SOL     OW49917   5.607   5.098   0.212
49362SOL    HW149918   5.535   5.138   0.262
49362SOL    HW249919   5.658   5.173   0.181
49363SOL     OW49920  10.506   0.306  14.685
49363SOL    HW149921  10.598   0.281  14.693
49363SOL    HW249922  10.460   0.223  14.668
49364SOL     OW49923   5.578   7.414   2.384
49364SOL    HW149924   5.490   7.385   2.360
49364SOL    HW249925   5.563   7.478   2.454
49365SOL     OW49926   9.989   4.614  10.978
49365SOL    HW149927  10.062   4.676  10.988
49365SOL    HW249928   9.970   4.585  11.067
49366SOL     OW49929   5.079   1.509   1.235
49366SOL    HW149930   5.162   1.555   1.250
49366SOL    HW249931   5.101   1.440   1.172
49367SOL     OW49932   2.489   7.304  12.765
49367SOL    HW149933   2.582   7.327  12.755
49367SOL    HW249934   2.485   7.256  12.847
49368SOL     OW49935   4.275  12.972   9.698
49368SOL    HW149936   4.200  12.954   9.755
49368SOL    HW249937   4.293  12.889   9.654
49369SOL     OW49938  13.336   8.807  12.618
49369SOL    HW149939  13.357   8.721  12.584
49369SOL    HW249940  13.299   8.790  12.705
49370SOL     OW49941   7.361   1.873   4.641
49370SOL    HW149942   7.410   1.839   4.567
49370SOL    HW249943   7.377   1.967   4.641
49371SOL     OW49944   3.937  11.530   2.443
49371SOL    HW149945   3.898  11.446   2.419
49371SOL    HW249946   3.875  11.567   2.506
49372SOL     OW49947  10.883   9.108  12.145
49372SOL    HW149948  10.971   9.131  12.174
49372SOL    HW249949  10.895   9.031  12.089
49373SOL     OW49950   3.865   0.895  10.048
49373SOL    HW149951   3.794   0.870   9.989
49373SOL    HW249952   3.942   0.850  10.013
49374SOL     OW49953   7.650  12.807  14.169
49374SOL    HW149954   7.694  12.730  14.133
49374SOL    HW249955   7.557  12.785  14.167
49375SOL     OW49956  14.548  14.356   4.473
49375SOL    HW149957  14.638  14.383   4.457
49375SOL    HW249958  14.543  14.267   4.437
49376SOL     OW49959  13.631  14.414   7.370
49376SOL    HW149960  13.588  14.349   7.426
49376SOL    HW249961  13.709  14.368   7.337
49377SOL     OW49962   5.400   4.444   2.077
49377SOL    HW149963   5.315   4.479   2.049
49377SOL    HW249964   5.377   4.372   2.135
49378SOL     OW49965   4.335   9.857  14.006
49378SOL    HW149966   4.391   9.921  13.963
49378SOL    HW249967   4.395   9.797  14.049
49379SOL     OW49968   5.514   4.649   1.557
49379SOL    HW149969   5.459   4.722   1.528
49379SOL    HW249970   5.596   4.660   1.509
49380SOL     OW49971  10.506   8.984   0.994
49380SOL    HW149972  10.517   8.896   0.958
49380SOL    HW249973  10.560   9.040   0.938
49381SOL     OW49974   8.711   6.399   6.539
49381SOL    HW149975   8.622   6.433   6.527
49381SOL    HW249976   8.698   6.314   6.583
49382SOL     OW49977   8.955   2.190   2.123
49382SOL    HW149978   8.979   2.279   2.097
49382SOL    HW249979   9.016   2.134   2.076
49383SOL     OW49980  11.021   7.848   6.715
49383SOL    HW149981  11.064   7.932   6.699
49383SOL    HW249982  10.935   7.871   6.750
49384SOL     OW49983   7.493   3.107  12.211
49384SOL    HW149984   7.435   3.156  12.270
49384SOL    HW249985   7.581   3.133  12.238
49385SOL     OW49986   0.401   6.761   9.026
49385SOL    HW149987   0.412   6.850   8.992
49385SOL    HW249988   0.388   6.773   9.120
49386SOL     OW49989   6.703  13.703  11.969
49386SOL    HW149990   6.677  13.793  11.992
49386SOL    HW249991   6.712  13.704  11.874
49387SOL     OW49992  11.879  13.072  14.411
49387SOL    HW149993  11.974  13.061  14.417
49387SOL    HW249994  11.863  13.158  14.449
49388SOL     OW49995  10.082  10.646   2.814
49388SOL    HW149996  10.043  10.572   2.768
49388SOL    HW249997  10.025  10.659   2.891
49389SOL     OW49998   1.354   5.530   6.557
49389SOL    HW149999   1.310   5.445   6.558
49389SOL    HW250000   1.443   5.511   6.528
49390SOL     OW50001  10.214   4.036  11.426
49390SOL    HW150002  10.127   4.066  11.400
49390SOL    HW250003  10.221   3.948  11.388
49391SOL     OW50004   2.989   8.763  12.120
49391SOL    HW150005   3.048   8.688  12.119
49391SOL    HW250006   3.010   8.809  12.201
49392SOL     OW50007   4.545   0.147  13.088
49392SOL    HW150008   4.462   0.127  13.044
49392SOL    HW250009   4.607   0.163  13.017
49393SOL     OW50010   8.930   3.190  12.399
49393SOL    HW150011   8.840   3.211  12.373
49393SOL    HW250012   8.976   3.174  12.316
49394SOL     OW50013   2.227   7.308   3.339
49394SOL    HW150014   2.311   7.301   3.385
49394SOL    HW250015   2.226   7.235   3.278
49395SOL     OW50016  12.521   0.714  12.393
49395SOL    HW150017  12.566   0.631  12.402
49395SOL    HW250018  12.453   0.713  12.461
49396SOL     OW50019  12.017   6.973   3.699
49396SOL    HW150020  11.977   6.934   3.777
49396SOL    HW250021  11.944   6.982   3.637
49397SOL     OW50022   8.870  11.935   5.039
49397SOL    HW150023   8.818  11.863   5.075
49397SOL    HW250024   8.821  11.963   4.961
49398SOL     OW50025   3.735   0.286   5.021
49398SOL    HW150026   3.826   0.315   5.014
49398SOL    HW250027   3.697   0.342   5.089
49399SOL     OW50028   7.316   6.790  14.540
49399SOL    HW150029   7.232   6.810  14.499
49399SOL    HW250030   7.333   6.699  14.516
49400SOL     OW50031   1.411   6.611   8.742
49400SOL    HW150032   1.500   6.622   8.707
49400SOL    HW250033   1.368   6.553   8.679
49401SOL     OW50034  14.750  10.483   4.019
49401SOL    HW150035  14.662  10.520   4.028
49401SOL    HW250036  14.800  10.550   3.975
49402SOL     OW50037   8.918   6.365  11.346
49402SOL    HW150038   8.900   6.272  11.358
49402SOL    HW250039   8.998   6.381  11.396
49403SOL     OW50040   2.866   0.877   2.242
49403SOL    HW150041   2.889   0.786   2.260
49403SOL    HW250042   2.951   0.921   2.233
49404SOL     OW50043   0.043   1.272   5.849
49404SOL    HW150044   0.086   1.293   5.932
49404SOL    HW250045   0.043   1.354   5.800
49405SOL     OW50046  12.586   0.355   4.483
49405SOL    HW150047  12.570   0.291   4.414
49405SOL    HW250048  12.588   0.304   4.564
49406SOL     OW50049  12.959   4.282   5.908
49406SOL    HW150050  12.872   4.316   5.888
49406SOL    HW250051  13.007   4.357   5.943
49407SOL     OW50052  10.877   9.944   4.461
49407SOL    HW150053  10.788   9.974   4.478
49407SOL    HW250054  10.931   9.995   4.523
49408SOL     OW50055   4.318  14.673   4.255
49408SOL    HW150056   4.260  14.682   4.180
49408SOL    HW250057   4.307  14.582   4.284
49409SOL     OW50058   5.024   0.423   7.893
49409SOL    HW150059   4.975   0.425   7.811
49409SOL    HW250060   4.976   0.481   7.952
49410SOL     OW50061   8.847  11.418   2.630
49410SOL    HW150062   8.816  11.508   2.621
49410SOL    HW250063   8.926  11.424   2.684
49411SOL     OW50064   1.359   8.150   1.032
49411SOL    HW150065   1.325   8.197   0.956
49411SOL    HW250066   1.452   8.138   1.013
49412SOL     OW50067   3.477  12.275  12.275
49412SOL    HW150068   3.560  12.232  12.252
49412SOL    HW250069   3.504  12.353  12.324
49413SOL     OW50070   0.416   6.485   0.396
49413SOL    HW150071   0.417   6.457   0.487
49413SOL    HW250072   0.365   6.566   0.396
49414SOL     OW50073   6.701   8.152   2.961
49414SOL    HW150074   6.700   8.217   2.891
49414SOL    HW250075   6.643   8.189   3.028
49415SOL     OW50076   4.819   4.513   0.058
49415SOL    HW150077   4.877   4.564   0.001
49415SOL    HW250078   4.764   4.580   0.101
49416SOL     OW50079   5.042   4.295   2.125
49416SOL    HW150080   5.009   4.302   2.036
49416SOL    HW250081   4.967   4.317   2.180
49417SOL     OW50082  10.526  13.268   2.273
49417SOL    HW150083  10.586  13.232   2.208
49417SOL    HW250084  10.450  13.209   2.270
49418SOL     OW50085   0.501   9.254  14.138
49418SOL    HW150086   0.564   9.183  14.131
49418SOL    HW250087   0.420   9.220  14.099
49419SOL     OW50088   8.456   9.977  11.541
49419SOL    HW150089   8.491  10.058  11.577
49419SOL    HW250090   8.515   9.909  11.571
49420SOL     OW50091   8.657   0.016   0.410
49420SOL    HW150092   8.677   0.097   0.364
49420SOL    HW250093   8.739  14.842   0.408
49421SOL     OW50094   6.221  14.081   6.600
49421SOL    HW150095   6.219  13.985   6.598
49421SOL    HW250096   6.181  14.104   6.684
49422SOL     OW50097   1.792   8.488   1.807
49422SOL    HW150098   1.887   8.477   1.811
49422SOL    HW250099   1.758   8.401   1.784
49423SOL     OW50100   1.206   1.066  13.766
49423SOL    HW150101   1.260   1.131  13.720
49423SOL    HW250102   1.176   1.007  13.697
49424SOL     OW50103   6.469  10.157   5.294
49424SOL    HW150104   6.510  10.084   5.247
49424SOL    HW250105   6.523  10.170   5.371
49425SOL     OW50106   0.863  13.925   6.972
49425SOL    HW150107   0.797  13.966   6.916
49425SOL    HW250108   0.939  13.913   6.915
49426SOL     OW50109   2.310  13.612   1.323
49426SOL    HW150110   2.216  13.608   1.306
49426SOL    HW250111   2.320  13.581   1.413
49427SOL     OW50112   0.717   4.709   1.431
49427SOL    HW150113   0.634   4.718   1.383
49427SOL    HW250114   0.739   4.616   1.423
49428SOL     OW50115  11.971  12.514   4.322
49428SOL    HW150116  12.025  12.473   4.254
49428SOL    HW250117  11.940  12.441   4.375
49429SOL     OW50118   7.370   1.887   2.453
49429SOL    HW150119   7.332   1.881   2.365
49429SOL    HW250120   7.302   1.927   2.506
49430SOL     OW50121   5.541   2.597   5.954
49430SOL    HW150122   5.579   2.672   5.907
49430SOL    HW250123   5.542   2.526   5.890
49431SOL     OW50124  13.752   8.261   5.396
49431SOL    HW150125  13.815   8.206   5.442
49431SOL    HW250126  13.775   8.350   5.421
49432SOL     OW50127  11.456   1.421  14.864
49432SOL    HW150128  11.431   1.459   0.073
49432SOL    HW250129  11.503   1.492  14.819
49433SOL     OW50130   3.060   9.019  12.690
49433SOL    HW150131   3.121   8.945  12.692
49433SOL    HW250132   2.990   8.991  12.631
49434SOL     OW50133   1.328  12.574  14.627
49434SOL    HW150134   1.278  12.656  14.625
49434SOL    HW250135   1.271  12.510  14.584
49435SOL     OW50136   3.569   2.162   0.674
49435SOL    HW150137   3.576   2.093   0.609
49435SOL    HW250138   3.636   2.141   0.739
49436SOL     OW50139   7.966   0.001   2.776
49436SOL    HW150140   8.023  14.807   2.742
49436SOL    HW250141   8.000   0.017   2.864
49437SOL     OW50142  10.866   0.252   0.949
49437SOL    HW150143  10.926   0.223   1.018
49437SOL    HW250144  10.837   0.339   0.977
49438SOL     OW50145   4.461   4.614  14.230
49438SOL    HW150146   4.468   4.519  14.238
49438SOL    HW250147   4.489   4.633  14.141
49439SOL     OW50148   9.418   0.833  13.125
49439SOL    HW150149   9.491   0.880  13.165
49439SOL    HW250150   9.448   0.810  13.038
49440SOL     OW50151  11.497  14.291   8.021
49440SOL    HW150152  11.478  14.385   8.022
49440SOL    HW250153  11.590  14.286   8.000
49441SOL     OW50154   8.644   4.670   4.160
49441SOL    HW150155   8.617   4.750   4.115
49441SOL    HW250156   8.567   4.646   4.212
49442SOL     OW50157   2.629   3.017   3.023
49442SOL    HW150158   2.639   3.109   3.049
49442SOL    HW250159   2.544   2.992   3.059
49443SOL     OW50160  13.894  11.020   4.301
49443SOL    HW150161  13.937  10.950   4.351
49443SOL    HW250162  13.834  10.974   4.242
49444SOL     OW50163   1.977  13.911   2.848
49444SOL    HW150164   1.927  13.918   2.929
49444SOL    HW250165   2.067  13.897   2.876
49445SOL     OW50166  13.368  14.743   4.992
49445SOL    HW150167  13.401  14.729   4.903
49445SOL    HW250168  13.358  14.838   4.999
49446SOL     OW50169  12.979  10.018   6.018
49446SOL    HW150170  13.013   9.959   5.951
49446SOL    HW250171  12.955  10.097   5.970
49447SOL     OW50172   5.828   0.741   7.421
49447SOL    HW150173   5.919   0.714   7.418
49447SOL    HW250174   5.791   0.695   7.496
49448SOL     OW50175   1.396   6.350   5.827
49448SOL    HW150176   1.377   6.437   5.862
49448SOL    HW250177   1.443   6.306   5.897
49449SOL     OW50178   8.188   7.628   2.088
49449SOL    HW150179   8.162   7.717   2.066
49449SOL    HW250180   8.170   7.576   2.010
49450SOL     OW50181   8.001   2.558   1.325
49450SOL    HW150182   8.022   2.598   1.409
49450SOL    HW250183   7.906   2.550   1.326
49451SOL     OW50184   7.863   5.715   1.189
49451SOL    HW150185   7.958   5.710   1.202
49451SOL    HW250186   7.835   5.624   1.184
49452SOL     OW50187   3.065  11.835  10.435
49452SOL    HW150188   3.142  11.892  10.437
49452SOL    HW250189   3.067  11.795  10.348
49453SOL     OW50190  10.699   6.271  10.386
49453SOL    HW150191  10.624   6.323  10.415
49453SOL    HW250192  10.661   6.191  10.351
49454SOL     OW50193  12.407  13.309   4.453
49454SOL    HW150194  12.432  13.399   4.435
49454SOL    HW250195  12.351  13.315   4.531
49455SOL     OW50196   8.727   4.236  14.212
49455SOL    HW150197   8.708   4.158  14.161
49455SOL    HW250198   8.662   4.300  14.184
49456SOL     OW50199   4.949   1.672  10.181
49456SOL    HW150200   4.898   1.749  10.203
49456SOL    HW250201   4.896   1.598  10.212
49457SOL     OW50202  11.060  11.109  10.957
49457SOL    HW150203  10.982  11.068  10.992
49457SOL    HW250204  11.084  11.174  11.023
49458SOL     OW50205   8.950   8.731   5.201
49458SOL    HW150206   9.000   8.806   5.235
49458SOL    HW250207   8.858   8.759   5.207
49459SOL     OW50208   9.799   0.283   4.139
49459SOL    HW150209   9.857   0.208   4.150
49459SOL    HW250210   9.743   0.259   4.064
49460SOL     OW50211  11.792   6.999   4.511
49460SOL    HW150212  11.748   6.985   4.428
49460SOL    HW250213  11.722   7.027   4.571
49461SOL     OW50214   0.659   3.214   0.492
49461SOL    HW150215   0.713   3.176   0.423
49461SOL    HW250216   0.721   3.263   0.546
49462SOL     OW50217   6.919   8.511   3.110
49462SOL    HW150218   6.921   8.581   3.175
49462SOL    HW250219   6.887   8.435   3.157
49463SOL     OW50220   7.469  11.521  10.341
49463SOL    HW150221   7.379  11.499  10.318
49463SOL    HW250222   7.515  11.527  10.258
49464SOL     OW50223   5.538   8.558   7.418
49464SOL    HW150224   5.605   8.554   7.486
49464SOL    HW250225   5.568   8.496   7.351
49465SOL     OW50226   7.624   6.358  12.053
49465SOL    HW150227   7.645   6.308  11.974
49465SOL    HW250228   7.529   6.365  12.053
49466SOL     OW50229  13.760   9.536  12.137
49466SOL    HW150230  13.729   9.531  12.228
49466SOL    HW250231  13.700   9.599  12.096
49467SOL     OW50232  13.442  13.284   9.773
49467SOL    HW150233  13.435  13.191   9.750
49467SOL    HW250234  13.536  13.301   9.779
49468SOL     OW50235  10.271   1.119   2.714
49468SOL    HW150236  10.275   1.059   2.639
49468SOL    HW250237  10.199   1.084   2.767
49469SOL     OW50238   9.219   6.666   1.007
49469SOL    HW150239   9.130   6.632   1.023
49469SOL    HW250240   9.208   6.761   1.005
49470SOL     OW50241   1.718   4.401   8.657
49470SOL    HW150242   1.807   4.413   8.692
49470SOL    HW250243   1.679   4.335   8.715
49471SOL     OW50244   2.392   7.176   0.907
49471SOL    HW150245   2.298   7.160   0.908
49471SOL    HW250246   2.432   7.090   0.919
49472SOL     OW50247  14.643   7.778  11.186
49472SOL    HW150248  14.602   7.777  11.099
49472SOL    HW250249  14.717   7.717  11.179
49473SOL     OW50250  13.326   2.686   5.508
49473SOL    HW150251  13.351   2.706   5.598
49473SOL    HW250252  13.235   2.658   5.514
49474SOL     OW50253   6.158  12.170   3.373
49474SOL    HW150254   6.201  12.137   3.294
49474SOL    HW250255   6.229  12.182   3.435
49475SOL     OW50256  13.969   1.789   6.499
49475SOL    HW150257  13.881   1.825   6.498
49475SOL    HW250258  14.022   1.856   6.543
49476SOL     OW50259   5.583   2.959   1.399
49476SOL    HW150260   5.650   2.964   1.467
49476SOL    HW250261   5.608   2.882   1.347
49477SOL     OW50262  10.388   4.297   7.428
49477SOL    HW150263  10.360   4.375   7.379
49477SOL    HW250264  10.339   4.302   7.510
49478SOL     OW50265   7.949   3.901   9.242
49478SOL    HW150266   7.974   3.906   9.335
49478SOL    HW250267   7.997   3.973   9.201
49479SOL     OW50268  14.442  12.131   5.326
49479SOL    HW150269  14.418  12.205   5.270
49479SOL    HW250270  14.359  12.095   5.357
49480SOL     OW50271   8.890  14.027   6.352
49480SOL    HW150272   8.810  14.002   6.397
49480SOL    HW250273   8.912  13.950   6.299
49481SOL     OW50274   9.011  10.532   6.640
49481SOL    HW150275   8.998  10.439   6.621
49481SOL    HW250276   8.986  10.540   6.732
49482SOL     OW50277   3.049   9.734   1.481
49482SOL    HW150278   3.048   9.657   1.538
49482SOL    HW250279   2.987   9.795   1.521
49483SOL     OW50280   5.581   0.629  10.026
49483SOL    HW150281   5.645   0.604  10.092
49483SOL    HW250282   5.621   0.702   9.979
49484SOL     OW50283   8.143  11.030  11.989
49484SOL    HW150284   8.236  11.052  11.982
49484SOL    HW250285   8.143  10.941  12.025
49485SOL     OW50286   2.311   3.008   2.148
49485SOL    HW150287   2.317   3.023   2.053
49485SOL    HW250288   2.359   2.927   2.163
49486SOL     OW50289  10.164   4.269   6.065
49486SOL    HW150290  10.103   4.198   6.087
49486SOL    HW250291  10.221   4.232   5.998
49487SOL     OW50292  14.409   2.914   5.153
49487SOL    HW150293  14.438   2.847   5.215
49487SOL    HW250294  14.324   2.942   5.186
49488SOL     OW50295   0.763   5.033   2.777
49488SOL    HW150296   0.815   4.978   2.835
49488SOL    HW250297   0.781   4.999   2.689
49489SOL     OW50298   3.440   8.382  11.478
49489SOL    HW150299   3.440   8.449  11.410
49489SOL    HW250300   3.379   8.315  11.445
49490SOL     OW50301   3.317   9.851   7.556
49490SOL    HW150302   3.356   9.766   7.534
49490SOL    HW250303   3.232   9.829   7.593
49491SOL     OW50304  12.240   7.651  10.520
49491SOL    HW150305  12.264   7.678  10.609
49491SOL    HW250306  12.162   7.598  10.531
49492SOL     OW50307   2.345   1.878  10.686
49492SOL    HW150308   2.351   1.878  10.781
49492SOL    HW250309   2.253   1.856  10.668
49493SOL     OW50310   4.532   3.280  14.507
49493SOL    HW150311   4.443   3.313  14.493
49493SOL    HW250312   4.523   3.218  14.580
49494SOL     OW50313   1.714   2.858   3.559
49494SOL    HW150314   1.711   2.848   3.464
49494SOL    HW250315   1.801   2.827   3.583
49495SOL     OW50316   8.142  14.825  14.390
49495SOL    HW150317   8.101  14.872  14.317
49495SOL    HW250318   8.196  14.758  14.349
49496SOL     OW50319  12.465   7.507   8.709
49496SOL    HW150320  12.436   7.589   8.750
49496SOL    HW250321  12.561   7.514   8.708
49497SOL     OW50322   1.818  12.686  12.498
49497SOL    HW150323   1.838  12.780  12.506
49497SOL    HW250324   1.827  12.652  12.587
49498SOL     OW50325   4.552  12.605  10.893
49498SOL    HW150326   4.593  12.540  10.950
49498SOL    HW250327   4.507  12.665  10.954
49499SOL     OW50328   6.452  11.636   6.708
49499SOL    HW150329   6.524  11.641   6.645
49499SOL    HW250330   6.454  11.545   6.738
49500SOL     OW50331   3.985  12.668   5.151
49500SOL    HW150332   3.979  12.730   5.079
49500SOL    HW250333   3.901  12.676   5.197
49501SOL     OW50334   1.944   4.764   9.633
49501SOL    HW150335   1.919   4.756   9.725
49501SOL    HW250336   2.024   4.816   9.634
49502SOL     OW50337  13.977   3.781   3.646
49502SOL    HW150338  14.058   3.790   3.596
49502SOL    HW250339  14.003   3.734   3.725
49503SOL     OW50340  11.523  11.133  11.928
49503SOL    HW150341  11.446  11.109  11.980
49503SOL    HW250342  11.549  11.052  11.884
49504SOL     OW50343  12.125   6.512  10.938
49504SOL    HW150344  12.069   6.447  10.981
49504SOL    HW250345  12.082   6.596  10.955
49505SOL     OW50346   7.290  13.883  14.308
49505SOL    HW150347   7.378  13.892  14.270
49505SOL    HW250348   7.306  13.847  14.396
49506SOL     OW50349   7.814  11.183   0.696
49506SOL    HW150350   7.902  11.197   0.663
49506SOL    HW250351   7.821  11.109   0.756
49507SOL     OW50352  12.505   1.093  11.120
49507SOL    HW150353  12.593   1.061  11.136
49507SOL    HW250354  12.508   1.129  11.031
49508SOL     OW50355   4.352   6.543   8.046
49508SOL    HW150356   4.337   6.621   7.994
49508SOL    HW250357   4.443   6.519   8.029
49509SOL     OW50358  10.779   6.436   9.639
49509SOL    HW150359  10.698   6.479   9.666
49509SOL    HW250360  10.770   6.425   9.545
49510SOL     OW50361   2.497   4.687   1.575
49510SOL    HW150362   2.425   4.742   1.606
49510SOL    HW250363   2.556   4.747   1.529
49511SOL     OW50364   4.300   3.213   0.218
49511SOL    HW150365   4.231   3.227   0.282
49511SOL    HW250366   4.258   3.228   0.133
49512SOL     OW50367   1.563   0.490   8.567
49512SOL    HW150368   1.622   0.559   8.600
49512SOL    HW250369   1.549   0.513   8.475
49513SOL     OW50370   1.451   8.912   1.910
49513SOL    HW150371   1.438   8.885   2.001
49513SOL    HW250372   1.522   8.855   1.879
49514SOL     OW50373   7.353   6.852   5.140
49514SOL    HW150374   7.268   6.885   5.171
49514SOL    HW250375   7.342   6.757   5.136
49515SOL     OW50376  14.141   1.136   0.436
49515SOL    HW150377  14.059   1.179   0.412
49515SOL    HW250378  14.115   1.066   0.496
49516SOL     OW50379   4.706  14.549   8.700
49516SOL    HW150380   4.729  14.466   8.742
49516SOL    HW250381   4.699  14.526   8.607
49517SOL     OW50382  13.839   8.520   7.836
49517SOL    HW150383  13.914   8.576   7.815
49517SOL    HW250384  13.872   8.457   7.900
49518SOL     OW50385   6.494  14.022   6.995
49518SOL    HW150386   6.504  13.927   7.004
49518SOL    HW250387   6.434  14.032   6.921
49519SOL     OW50388   5.878   1.550   0.056
49519SOL    HW150389   5.908   1.572   0.144
49519SOL    HW250390   5.828   1.469   0.067
49520SOL     OW50391  13.595   0.540   4.745
49520SOL    HW150392  13.610   0.501   4.832
49520SOL    HW250393  13.605   0.467   4.684
49521SOL     OW50394   0.133   3.315   9.891
49521SOL    HW150395   0.170   3.364   9.965
49521SOL    HW250396   0.038   3.323   9.903
49522SOL     OW50397   4.225   6.137   4.731
49522SOL    HW150398   4.213   6.210   4.792
49522SOL    HW250399   4.285   6.171   4.665
49523SOL     OW50400   8.539   5.713   6.676
49523SOL    HW150401   8.472   5.731   6.742
49523SOL    HW250402   8.619   5.751   6.711
49524SOL     OW50403   5.016   6.539  10.827
49524SOL    HW150404   5.025   6.491  10.745
49524SOL    HW250405   5.101   6.530  10.870
49525SOL     OW50406   8.770   9.320   7.034
49525SOL    HW150407   8.738   9.378   6.965
49525SOL    HW250408   8.810   9.247   6.988
49526SOL     OW50409   4.036  11.094  11.771
49526SOL    HW150410   4.067  11.103  11.681
49526SOL    HW250411   3.957  11.148  11.775
49527SOL     OW50412   1.673   6.193   7.631
49527SOL    HW150413   1.627   6.134   7.572
49527SOL    HW250414   1.710   6.136   7.698
49528SOL     OW50415   3.862   5.536   0.752
49528SOL    HW150416   3.832   5.586   0.676
49528SOL    HW250417   3.835   5.589   0.827
49529SOL     OW50418   8.002  11.679   7.856
49529SOL    HW150419   8.011  11.766   7.895
49529SOL    HW250420   7.930  11.688   7.793
49530SOL     OW50421   4.159   5.177   0.249
49530SOL    HW150422   4.236   5.220   0.284
49530SOL    HW250423   4.085   5.218   0.294
49531SOL     OW50424   6.423  10.213   3.009
49531SOL    HW150425   6.490  10.159   2.967
49531SOL    HW250426   6.358  10.150   3.041
49532SOL     OW50427  14.701  12.967  14.148
49532SOL    HW150428  14.728  12.921  14.069
49532SOL    HW250429  14.700  13.059  14.122
49533SOL     OW50430  10.543  13.675   6.126
49533SOL    HW150431  10.544  13.640   6.037
49533SOL    HW250432  10.497  13.758   6.119
49534SOL     OW50433   6.886   5.319   1.609
49534SOL    HW150434   6.981   5.314   1.622
49534SOL    HW250435   6.866   5.244   1.553
49535SOL     OW50436   2.217  12.027   5.150
49535SOL    HW150437   2.261  12.046   5.233
49535SOL    HW250438   2.288  12.000   5.092
49536SOL     OW50439  14.854   7.147   6.999
49536SOL    HW150440  14.794   7.184   7.064
49536SOL    HW250441  14.856   7.211   6.929
49537SOL     OW50442   0.513   3.054  12.495
49537SOL    HW150443   0.474   3.083  12.578
49537SOL    HW250444   0.500   2.959  12.494
49538SOL     OW50445   4.861   1.032  13.188
49538SOL    HW150446   4.816   0.967  13.241
49538SOL    HW250447   4.952   1.028  13.215
49539SOL     OW50448  12.637  11.121   3.308
49539SOL    HW150449  12.667  11.180   3.239
49539SOL    HW250450  12.715  11.102   3.359
49540SOL     OW50451   6.720  12.355   4.170
49540SOL    HW150452   6.768  12.331   4.090
49540SOL    HW250453   6.775  12.323   4.241
49541SOL     OW50454   6.375   7.116   0.214
49541SOL    HW150455   6.291   7.149   0.181
49541SOL    HW250456   6.386   7.031   0.171
49542SOL     OW50457  12.402  10.796   6.876
49542SOL    HW150458  12.419  10.867   6.938
49542SOL    HW250459  12.476  10.737   6.887
49543SOL     OW50460   3.089   0.211   2.721
49543SOL    HW150461   3.170   0.250   2.753
49543SOL    HW250462   3.039   0.191   2.799
49544SOL     OW50463   2.293  13.887   1.064
49544SOL    HW150464   2.215  13.887   1.120
49544SOL    HW250465   2.303  13.795   1.038
49545SOL     OW50466   9.683  12.410  13.805
49545SOL    HW150467   9.725  12.493  13.781
49545SOL    HW250468   9.589  12.428  13.796
49546SOL     OW50469  14.585   2.899   7.400
49546SOL    HW150470  14.590   2.927   7.492
49546SOL    HW250471  14.652   2.952   7.356
49547SOL     OW50472   0.423   5.013  14.585
49547SOL    HW150473   0.468   4.954  14.524
49547SOL    HW250474   0.337   4.973  14.597
49548SOL     OW50475   8.050  14.127  13.475
49548SOL    HW150476   7.989  14.103  13.405
49548SOL    HW250477   8.026  14.071  13.549
49549SOL     OW50478   1.354  11.615   4.744
49549SOL    HW150479   1.414  11.550   4.780
49549SOL    HW250480   1.267  11.578   4.760
49550SOL     OW50481   0.944   1.653   8.716
49550SOL    HW150482   0.878   1.588   8.690
49550SOL    HW250483   0.917   1.680   8.803
49551SOL     OW50484  11.733   6.672   1.746
49551SOL    HW150485  11.693   6.615   1.811
49551SOL    HW250486  11.806   6.621   1.711
49552SOL     OW50487   9.680   5.084   2.064
49552SOL    HW150488   9.687   4.993   2.093
49552SOL    HW250489   9.761   5.101   2.017
49553SOL     OW50490  10.900   5.467   0.015
49553SOL    HW150491  10.888   5.406   0.088
49553SOL    HW250492  10.887   5.414  14.812
49554SOL     OW50493  11.391  13.008   8.878
49554SOL    HW150494  11.328  12.946   8.916
49554SOL    HW250495  11.394  13.081   8.939
49555SOL     OW50496  14.178   9.248  12.572
49555SOL    HW150497  14.128   9.261  12.652
49555SOL    HW250498  14.193   9.336  12.537
49556SOL     OW50499   4.681   2.281   4.709
49556SOL    HW150500   4.747   2.262   4.776
49556SOL    HW250501   4.697   2.372   4.686
49557SOL     OW50502   6.358  14.388  11.490
49557SOL    HW150503   6.385  14.298  11.506
49557SOL    HW250504   6.383  14.405  11.399
49558SOL     OW50505   2.708  14.637   4.793
49558SOL    HW150506   2.668  14.576   4.730
49558SOL    HW250507   2.802  14.630   4.775
49559SOL     OW50508   8.225  11.645  14.122
49559SOL    HW150509   8.308  11.668  14.080
49559SOL    HW250510   8.250  11.597  14.201
49560SOL     OW50511   2.031   0.107  11.155
49560SOL    HW150512   2.086   0.170  11.109
49560SOL    HW250513   2.066   0.103  11.244
49561SOL     OW50514   3.768  14.191  14.705
49561SOL    HW150515   3.727  14.168  14.621
49561SOL    HW250516   3.797  14.107  14.741
49562SOL     OW50517   8.500   0.324   9.448
49562SOL    HW150518   8.549   0.253   9.490
49562SOL    HW250519   8.543   0.404   9.480
49563SOL     OW50520   6.011   6.123   5.535
49563SOL    HW150521   6.010   6.046   5.592
49563SOL    HW250522   6.103   6.144   5.524
49564SOL     OW50523   6.612   7.430  11.650
49564SOL    HW150524   6.612   7.456  11.741
49564SOL    HW250525   6.583   7.507  11.602
49565SOL     OW50526  14.665  14.691   1.965
49565SOL    HW150527  14.749  14.657   1.933
49565SOL    HW250528  14.615  14.613   1.988
49566SOL     OW50529   6.782  14.276  10.981
49566SOL    HW150530   6.815  14.346  10.925
49566SOL    HW250531   6.710  14.316  11.030
49567SOL     OW50532   2.495  14.583   2.609
49567SOL    HW150533   2.517  14.604   2.519
49567SOL    HW250534   2.401  14.567   2.608
49568SOL     OW50535  10.015  13.926   5.650
49568SOL    HW150536  10.092  13.955   5.602
49568SOL    HW250537   9.941  13.971   5.607
49569SOL     OW50538   1.889   5.318  14.271
49569SOL    HW150539   1.949   5.328  14.345
49569SOL    HW250540   1.847   5.233  14.286
49570SOL     OW50541  10.589  11.233   5.163
49570SOL    HW150542  10.549  11.147   5.174
49570SOL    HW250543  10.665  11.232   5.222
49571SOL     OW50544   9.736   2.160   1.398
49571SOL    HW150545   9.679   2.124   1.467
49571SOL    HW250546   9.726   2.100   1.325
49572SOL     OW50547  10.846   4.089  14.567
49572SOL    HW150548  10.905   4.153  14.526
49572SOL    HW250549  10.895   4.007  14.565
49573SOL     OW50550   2.074   8.526   1.860
49573SOL    HW150551   2.080   8.501   1.768
49573SOL    HW250552   2.064   8.621   1.859
49574SOL     OW50553  13.947   9.070  14.532
49574SOL    HW150554  13.949   9.025  14.448
49574SOL    HW250555  14.010   9.023  14.587
49575SOL     OW50556  11.346   5.490   4.889
49575SOL    HW150557  11.263   5.461   4.850
49575SOL    HW250558  11.412   5.433   4.850
49576SOL     OW50559   6.341  13.765   1.813
49576SOL    HW150560   6.437  13.775   1.808
49576SOL    HW250561   6.313  13.758   1.723
49577SOL     OW50562   6.876   2.643  10.434
49577SOL    HW150563   6.862   2.554  10.467
49577SOL    HW250564   6.909   2.631  10.345
49578SOL     OW50565   4.517   0.944   7.168
49578SOL    HW150566   4.532   1.008   7.099
49578SOL    HW250567   4.553   0.985   7.247
49579SOL     OW50568   2.980   8.992  14.702
49579SOL    HW150569   3.051   8.960  14.646
49579SOL    HW250570   2.964   9.082  14.671
49580SOL     OW50571  11.720  11.424   6.567
49580SOL    HW150572  11.667  11.385   6.637
49580SOL    HW250573  11.719  11.359   6.497
49581SOL     OW50574   0.553   9.881   0.265
49581SOL    HW150575   0.541   9.819   0.194
49581SOL    HW250576   0.589   9.829   0.337
49582SOL     OW50577   0.571   7.295   2.821
49582SOL    HW150578   0.638   7.306   2.889
49582SOL    HW250579   0.504   7.240   2.863
49583SOL     OW50580  11.481   2.263  11.449
49583SOL    HW150581  11.529   2.296  11.525
49583SOL    HW250582  11.533   2.189  11.418
49584SOL     OW50583  11.192   6.809  10.186
49584SOL    HW150584  11.222   6.850  10.267
49584SOL    HW250585  11.125   6.868  10.153
49585SOL     OW50586   4.779  13.604  10.097
49585SOL    HW150587   4.795  13.678  10.155
49585SOL    HW250588   4.866  13.571  10.075
49586SOL     OW50589   1.991   2.484   9.279
49586SOL    HW150590   1.955   2.562   9.236
49586SOL    HW250591   1.973   2.498   9.372
49587SOL     OW50592   9.857  12.703   4.900
49587SOL    HW150593   9.926  12.667   4.844
49587SOL    HW250594   9.803  12.756   4.842
49588SOL     OW50595   1.231  13.841   2.539
49588SOL    HW150596   1.320  13.830   2.506
49588SOL    HW250597   1.192  13.753   2.534
49589SOL     OW50598   9.382   0.991   8.108
49589SOL    HW150599   9.439   0.940   8.050
49589SOL    HW250600   9.315   1.026   8.051
49590SOL     OW50601   6.523   2.199   8.603
49590SOL    HW150602   6.581   2.162   8.669
49590SOL    HW250603   6.564   2.175   8.520
49591SOL     OW50604   1.011   6.341   2.925
49591SOL    HW150605   0.963   6.260   2.911
49591SOL    HW250606   1.085   6.315   2.981
49592SOL     OW50607   8.477   1.531   9.567
49592SOL    HW150608   8.481   1.438   9.592
49592SOL    HW250609   8.516   1.533   9.479
49593SOL     OW50610   5.594   1.034   0.021
49593SOL    HW150611   5.660   1.021   0.089
49593SOL    HW250612   5.621   1.114  14.852
49594SOL     OW50613   9.777   5.853   9.474
49594SOL    HW150614   9.835   5.928   9.484
49594SOL    HW250615   9.815   5.786   9.531
49595SOL     OW50616   9.406   2.677   7.668
49595SOL    HW150617   9.388   2.615   7.739
49595SOL    HW250618   9.460   2.627   7.606
49596SOL     OW50619   1.799   9.578   0.365
49596SOL    HW150620   1.743   9.543   0.434
49596SOL    HW250621   1.804   9.672   0.384
49597SOL     OW50622  14.337   7.723   8.177
49597SOL    HW150623  14.406   7.693   8.118
49597SOL    HW250624  14.383   7.774   8.244
49598SOL     OW50625  13.853  12.621  11.144
49598SOL    HW150626  13.766  12.661  11.147
49598SOL    HW250627  13.904  12.670  11.208
49599SOL     OW50628   8.706   8.425   0.878
49599SOL    HW150629   8.707   8.360   0.809
49599SOL    HW250630   8.650   8.387   0.946
49600SOL     OW50631  11.552   6.500   7.336
49600SOL    HW150632  11.563   6.436   7.405
49600SOL    HW250633  11.572   6.584   7.378
49601SOL     OW50634  10.875   9.544  11.625
49601SOL    HW150635  10.813   9.615  11.643
49601SOL    HW250636  10.946   9.558  11.688
49602SOL     OW50637  13.756   0.878  11.101
49602SOL    HW150638  13.790   0.825  11.173
49602SOL    HW250639  13.667   0.847  11.088
49603SOL     OW50640   9.214  10.395   2.680
49603SOL    HW150641   9.238  10.421   2.769
49603SOL    HW250642   9.260  10.313   2.666
49604SOL     OW50643  11.858  12.096  12.828
49604SOL    HW150644  11.894  12.181  12.853
49604SOL    HW250645  11.914  12.032  12.872
49605SOL     OW50646   7.790  14.669  13.198
49605SOL    HW150647   7.868  14.704  13.156
49605SOL    HW250648   7.717  14.710  13.152
49606SOL     OW50649  10.417  10.583   6.752
49606SOL    HW150650  10.378  10.559   6.668
49606SOL    HW250651  10.508  10.556   6.745
49607SOL     OW50652   7.665   1.927   0.195
49607SOL    HW150653   7.593   1.921   0.257
49607SOL    HW250654   7.633   1.985   0.126
49608SOL     OW50655  13.478  13.524   6.952
49608SOL    HW150656  13.505  13.447   7.001
49608SOL    HW250657  13.558  13.576   6.943
49609SOL     OW50658   0.075  12.973   1.875
49609SOL    HW150659   0.107  13.063   1.877
49609SOL    HW250660   0.038  12.958   1.962
49610SOL     OW50661  13.999  14.649   7.746
49610SOL    HW150662  13.935  14.632   7.677
49610SOL    HW250663  14.005  14.566   7.794
49611SOL     OW50664   6.879   5.430   4.793
49611SOL    HW150665   6.908   5.474   4.713
49611SOL    HW250666   6.783   5.431   4.787
49612SOL     OW50667   1.970   4.506   1.013
49612SOL    HW150668   2.014   4.434   0.967
49612SOL    HW250669   1.964   4.476   1.104
49613SOL     OW50670   5.322  12.950   4.239
49613SOL    HW150671   5.368  12.884   4.187
49613SOL    HW250672   5.390  13.011   4.265
49614SOL     OW50673   6.406   2.713   4.164
49614SOL    HW150674   6.463   2.769   4.111
49614SOL    HW250675   6.428   2.735   4.254
49615SOL     OW50676  12.850   5.697   8.149
49615SOL    HW150677  12.827   5.644   8.226
49615SOL    HW250678  12.914   5.644   8.102
49616SOL     OW50679  10.686   0.945   1.492
49616SOL    HW150680  10.630   0.877   1.453
49616SOL    HW250681  10.625   1.004   1.536
49617SOL     OW50682   6.229   6.147   0.803
49617SOL    HW150683   6.234   6.235   0.764
49617SOL    HW250684   6.138   6.121   0.793
49618SOL     OW50685  14.625   1.583   2.447
49618SOL    HW150686  14.587   1.620   2.367
49618SOL    HW250687  14.609   1.489   2.440
49619SOL     OW50688   5.641   9.694   0.162
49619SOL    HW150689   5.560   9.668   0.119
49619SOL    HW250690   5.653   9.786   0.139
49620SOL     OW50691   7.882   7.703   5.324
49620SOL    HW150692   7.842   7.708   5.411
49620SOL    HW250693   7.933   7.622   5.325
49621SOL     OW50694   7.599  10.325   4.386
49621SOL    HW150695   7.535  10.269   4.344
49621SOL    HW250696   7.635  10.271   4.457
49622SOL     OW50697   8.044   4.232   3.961
49622SOL    HW150698   8.119   4.244   4.019
49622SOL    HW250699   7.975   4.286   3.999
49623SOL     OW50700   1.499   3.287   6.713
49623SOL    HW150701   1.417   3.306   6.759
49623SOL    HW250702   1.474   3.277   6.621
49624SOL     OW50703  12.548   3.718   1.864
49624SOL    HW150704  12.618   3.749   1.921
49624SOL    HW250705  12.506   3.797   1.831
49625SOL     OW50706   7.849   6.760  12.218
49625SOL    HW150707   7.764   6.717  12.210
49625SOL    HW250708   7.841   6.815  12.296
49626SOL     OW50709   3.647   8.248   7.744
49626SOL    HW150710   3.734   8.210   7.752
49626SOL    HW250711   3.651   8.300   7.664
49627SOL     OW50712   6.183   1.349   9.360
49627SOL    HW150713   6.228   1.320   9.281
49627SOL    HW250714   6.231   1.426   9.388
49628SOL     OW50715  11.279  11.909   7.192
49628SOL    HW150716  11.225  11.881   7.119
49628SOL    HW250717  11.369  11.889   7.165
49629SOL     OW50718  11.963  14.767   3.091
49629SOL    HW150719  11.873  14.762   3.124
49629SOL    HW250720  11.968  14.852   3.047
49630SOL     OW50721   0.663   1.773  11.403
49630SOL    HW150722   0.703   1.860  11.405
49630SOL    HW250723   0.586   1.781  11.460
49631SOL     OW50724  12.545   8.890   6.364
49631SOL    HW150725  12.515   8.908   6.454
49631SOL    HW250726  12.544   8.975   6.321
49632SOL     OW50727  11.051  11.237   6.983
49632SOL    HW150728  10.965  11.279   6.984
49632SOL    HW250729  11.042  11.163   7.043
49633SOL     OW50730   9.135  12.361  10.270
49633SOL    HW150731   9.048  12.334  10.239
49633SOL    HW250732   9.191  12.353  10.193
49634SOL     OW50733   0.088   7.566   1.783
49634SOL    HW150734   0.015   7.628   1.781
49634SOL    HW250735   0.055   7.489   1.737
49635SOL     OW50736   5.867   4.229  12.545
49635SOL    HW150737   5.776   4.239  12.574
49635SOL    HW250738   5.889   4.138  12.564
49636SOL     OW50739   3.272   5.527  11.514
49636SOL    HW150740   3.181   5.552  11.528
49636SOL    HW250741   3.323   5.596  11.556
49637SOL     OW50742   6.821  13.242  12.126
49637SOL    HW150743   6.805  13.201  12.211
49637SOL    HW250744   6.914  13.227  12.109
49638SOL     OW50745  10.791  10.527   3.655
49638SOL    HW150746  10.859  10.491   3.711
49638SOL    HW250747  10.802  10.622   3.663
49639SOL     OW50748  14.698  11.916  14.273
49639SOL    HW150749  14.720  11.932  14.365
49639SOL    HW250750  14.777  11.878  14.235
49640SOL     OW50751   1.671   8.341   9.137
49640SOL    HW150752   1.604   8.408   9.127
49640SOL    HW250753   1.685   8.308   9.049
49641SOL     OW50754  10.895   4.634   7.155
49641SOL    HW150755  10.930   4.571   7.218
49641SOL    HW250756  10.969   4.654   7.097
49642SOL     OW50757   7.099   0.791   9.493
49642SOL    HW150758   7.101   0.821   9.403
49642SOL    HW250759   7.006   0.788   9.515
49643SOL     OW50760  12.597   6.376  10.164
49643SOL    HW150761  12.611   6.399  10.072
49643SOL    HW250762  12.685   6.377  10.202
49644SOL     OW50763   7.786   7.244   5.677
49644SOL    HW150764   7.797   7.150   5.690
49644SOL    HW250765   7.731   7.251   5.599
49645SOL     OW50766  13.976  14.411   2.918
49645SOL    HW150767  13.945  14.499   2.897
49645SOL    HW250768  13.924  14.353   2.862
49646SOL     OW50769   2.369   6.655   2.750
49646SOL    HW150770   2.340   6.676   2.661
49646SOL    HW250771   2.373   6.740   2.794
49647SOL     OW50772   0.035   6.678   8.771
49647SOL    HW150773   0.101   6.740   8.739
49647SOL    HW250774   0.003   6.635   8.692
49648SOL     OW50775   6.201   0.394  11.836
49648SOL    HW150776   6.182   0.330  11.905
49648SOL    HW250777   6.116   0.433  11.816
49649SOL     OW50778   7.329   2.758   0.457
49649SOL    HW150779   7.407   2.759   0.511
49649SOL    HW250780   7.350   2.698   0.385
49650SOL     OW50781   8.721   4.199  11.379
49650SOL    HW150782   8.790   4.132  11.383
49650SOL    HW250783   8.669   4.175  11.303
49651SOL     OW50784   2.712   4.939  12.951
49651SOL    HW150785   2.700   4.920  12.858
49651SOL    HW250786   2.704   5.034  12.957
49652SOL     OW50787  10.207  10.036   7.027
49652SOL    HW150788  10.114  10.055   7.033
49652SOL    HW250789  10.235  10.074   6.944
49653SOL     OW50790   6.623   5.165  14.607
49653SOL    HW150791   6.698   5.197  14.658
49653SOL    HW250792   6.641   5.194  14.517
49654SOL     OW50793   7.009   2.952   1.700
49654SOL    HW150794   6.985   3.010   1.773
49654SOL    HW250795   6.947   2.975   1.630
49655SOL     OW50796  11.384   7.472   2.047
49655SOL    HW150797  11.456   7.516   2.091
49655SOL    HW250798  11.330   7.437   2.118
49656SOL     OW50799  11.112  13.150  11.576
49656SOL    HW150800  11.143  13.162  11.486
49656SOL    HW250801  11.020  13.176  11.573
49657SOL     OW50802  14.698  12.560  12.282
49657SOL    HW150803  14.739  12.633  12.330
49657SOL    HW250804  14.607  12.588  12.271
49658SOL     OW50805  11.683   5.339   4.811
49658SOL    HW150806  11.756   5.277   4.807
49658SOL    HW250807  11.678   5.364   4.904
49659SOL     OW50808   3.016  10.749   0.888
49659SOL    HW150809   2.957  10.779   0.957
49659SOL    HW250810   3.098  10.730   0.933
49660SOL     OW50811   7.367   3.992  14.093
49660SOL    HW150812   7.397   3.955  14.176
49660SOL    HW250813   7.417   3.946  14.027
49661SOL     OW50814   4.881   1.223   7.811
49661SOL    HW150815   4.955   1.168   7.837
49661SOL    HW250816   4.851   1.263   7.892
49662SOL     OW50817  11.067  11.571   5.839
49662SOL    HW150818  11.082  11.483   5.804
49662SOL    HW250819  11.128  11.579   5.912
49663SOL     OW50820  13.628  12.152   9.843
49663SOL    HW150821  13.676  12.196   9.773
49663SOL    HW250822  13.694  12.102   9.890
49664SOL     OW50823   0.251   6.112   5.986
49664SOL    HW150824   0.204   6.165   6.050
49664SOL    HW250825   0.234   6.021   6.012
49665SOL     OW50826   1.156  13.841  12.801
49665SOL    HW150827   1.200  13.762  12.770
49665SOL    HW250828   1.139  13.892  12.722
49666SOL     OW50829  14.070   4.239  12.264
49666SOL    HW150830  14.034   4.150  12.268
49666SOL    HW250831  13.993   4.295  12.252
49667SOL     OW50832   4.984   3.359   4.027
49667SOL    HW150833   4.955   3.325   4.112
49667SOL    HW250834   5.072   3.322   4.016
49668SOL     OW50835  10.906   2.047  13.417
49668SOL    HW150836  10.824   2.051  13.368
49668SOL    HW250837  10.927   2.139  13.435
49669SOL     OW50838  11.618   8.801   0.068
49669SOL    HW150839  11.525   8.813   0.087
49669SOL    HW250840  11.624   8.805  14.849
49670SOL     OW50841   2.365  14.325   0.963
49670SOL    HW150842   2.351  14.255   1.028
49670SOL    HW250843   2.278  14.341   0.927
49671SOL     OW50844   0.098  14.008   3.906
49671SOL    HW150845   0.074  13.916   3.916
49671SOL    HW250846   0.091  14.025   3.812
49672SOL     OW50847  13.049  12.477  12.140
49672SOL    HW150848  13.043  12.411  12.209
49672SOL    HW250849  12.962  12.517  12.138
49673SOL     OW50850   5.408   4.698  12.583
49673SOL    HW150851   5.407   4.789  12.614
49673SOL    HW250852   5.323   4.686  12.541
49674SOL     OW50853   1.415  12.260   8.347
49674SOL    HW150854   1.455  12.184   8.390
49674SOL    HW250855   1.443  12.335   8.399
49675SOL     OW50856   9.855   0.381  12.911
49675SOL    HW150857   9.814   0.324  12.846
49675SOL    HW250858   9.949   0.373  12.894
49676SOL     OW50859   0.098   9.821   9.954
49676SOL    HW150860   0.184   9.804   9.916
49676SOL    HW250861   0.074   9.908   9.923
49677SOL     OW50862   1.432  14.655   9.508
49677SOL    HW150863   1.378  14.727   9.541
49677SOL    HW250864   1.369  14.585   9.489
49678SOL     OW50865   2.529   0.113   2.047
49678SOL    HW150866   2.580   0.048   2.094
49678SOL    HW250867   2.511   0.182   2.111
49679SOL     OW50868   0.197  10.065  13.772
49679SOL    HW150869   0.179  10.044  13.681
49679SOL    HW250870   0.220   9.981  13.813
49680SOL     OW50871   9.476  14.298  13.904
49680SOL    HW150872   9.425  14.316  13.825
49680SOL    HW250873   9.544  14.237  13.874
49681SOL     OW50874  14.509   4.895   5.912
49681SOL    HW150875  14.467   4.918   5.994
49681SOL    HW250876  14.455   4.937   5.845
49682SOL     OW50877   2.032   8.776   1.856
49682SOL    HW150878   1.967   8.838   1.888
49682SOL    HW250879   2.088   8.829   1.798
49683SOL     OW50880   0.144   2.282   4.569
49683SOL    HW150881   0.224   2.296   4.620
49683SOL    HW250882   0.141   2.357   4.509
49684SOL     OW50883   6.278  12.290  14.077
49684SOL    HW150884   6.280  12.385  14.090
49684SOL    HW250885   6.186  12.266  14.085
49685SOL     OW50886  11.621  14.236   4.248
49685SOL    HW150887  11.600  14.200   4.334
49685SOL    HW250888  11.662  14.164   4.200
49686SOL     OW50889  11.794  11.940   0.788
49686SOL    HW150890  11.735  11.874   0.824
49686SOL    HW250891  11.879  11.920   0.828
49687SOL     OW50892   9.130   0.749  11.524
49687SOL    HW150893   9.199   0.684  11.508
49687SOL    HW250894   9.114   0.745  11.618
49688SOL     OW50895   9.879   7.912   8.714
49688SOL    HW150896   9.910   7.997   8.681
49688SOL    HW250897   9.955   7.854   8.704
49689SOL     OW50898   6.513   1.147   2.746
49689SOL    HW150899   6.465   1.111   2.672
49689SOL    HW250900   6.533   1.071   2.801
49690SOL     OW50901   8.081   4.901   8.668
49690SOL    HW150902   8.136   4.977   8.648
49690SOL    HW250903   7.999   4.917   8.622
49691SOL     OW50904   3.859   1.763   0.980
49691SOL    HW150905   3.901   1.841   1.016
49691SOL    HW250906   3.906   1.690   1.019
49692SOL     OW50907   3.023  10.006   2.479
49692SOL    HW150908   3.028   9.952   2.400
49692SOL    HW250909   2.936   9.990   2.514
49693SOL     OW50910   2.779   1.594   9.115
49693SOL    HW150911   2.784   1.618   9.207
49693SOL    HW250912   2.838   1.519   9.106
49694SOL     OW50913  13.304   9.325   5.369
49694SOL    HW150914  13.360   9.272   5.424
49694SOL    HW250915  13.215   9.293   5.386
49695SOL     OW50916   0.037  13.000   7.208
49695SOL    HW150917   0.039  12.919   7.258
49695SOL    HW250918  14.849  12.983   7.138
49696SOL     OW50919  10.639   5.995  10.334
49696SOL    HW150920  10.660   5.915  10.285
49696SOL    HW250921  10.697   5.994  10.409
49697SOL     OW50922   8.067  14.368   4.521
49697SOL    HW150923   8.156  14.400   4.508
49697SOL    HW250924   8.025  14.435   4.576
49698SOL     OW50925   4.886  13.078  10.702
49698SOL    HW150926   4.792  13.060  10.702
49698SOL    HW250927   4.927  12.991  10.702
49699SOL     OW50928   8.056   4.250  14.763
49699SOL    HW150929   8.053   4.181  14.830
49699SOL    HW250930   7.965   4.268  14.744
49700SOL     OW50931   5.612  10.475   7.741
49700SOL    HW150932   5.589  10.492   7.649
49700SOL    HW250933   5.584  10.384   7.755
49701SOL     OW50934   0.110   4.500   7.908
49701SOL    HW150935   0.022   4.532   7.931
49701SOL    HW250936   0.100   4.465   7.819
49702SOL     OW50937   8.060   0.812   8.166
49702SOL    HW150938   8.088   0.895   8.127
49702SOL    HW250939   8.007   0.838   8.241
49703SOL     OW50940  13.131   5.733  11.547
49703SOL    HW150941  13.203   5.688  11.503
49703SOL    HW250942  13.078   5.770  11.476
49704SOL     OW50943   1.423   6.079   4.432
49704SOL    HW150944   1.420   5.992   4.392
49704SOL    HW250945   1.512   6.085   4.467
49705SOL     OW50946  13.652   9.721   4.936
49705SOL    HW150947  13.623   9.793   4.880
49705SOL    HW250948  13.689   9.657   4.876
49706SOL     OW50949   8.917  10.261   7.214
49706SOL    HW150950   8.846  10.269   7.276
49706SOL    HW250951   8.977  10.332   7.237
49707SOL     OW50952  10.427  10.051   9.261
49707SOL    HW150953  10.332  10.058   9.273
49707SOL    HW250954  10.440  10.070   9.168
49708SOL     OW50955   0.790   9.474  11.262
49708SOL    HW150956   0.760   9.546  11.207
49708SOL    HW250957   0.815   9.405  11.200
49709SOL     OW50958   2.386   6.563   3.128
49709SOL    HW150959   2.447   6.557   3.055
49709SOL    HW250960   2.368   6.656   3.137
49710SOL     OW50961  13.195  13.857   1.562
49710SOL    HW150962  13.150  13.845   1.479
49710SOL    HW250963  13.282  13.821   1.548
49711SOL     OW50964   1.660  10.267   5.180
49711SOL    HW150965   1.567  10.287   5.172
49711SOL    HW250966   1.692  10.260   5.090
49712SOL     OW50967   0.321   3.852  13.864
49712SOL    HW150968   0.405   3.873  13.822
49712SOL    HW250969   0.343   3.838  13.956
49713SOL     OW50970   7.248   9.747   9.670
49713SOL    HW150971   7.237   9.762   9.764
49713SOL    HW250972   7.215   9.659   9.656
49714SOL     OW50973   6.342   6.133   7.920
49714SOL    HW150974   6.394   6.207   7.951
49714SOL    HW250975   6.306   6.163   7.836
49715SOL     OW50976   7.277   1.474   1.278
49715SOL    HW150977   7.181   1.480   1.277
49715SOL    HW250978   7.306   1.556   1.318
49716SOL     OW50979   4.308   3.860   4.720
49716SOL    HW150980   4.346   3.777   4.693
49716SOL    HW250981   4.331   3.870   4.812
49717SOL     OW50982   6.974   8.205  12.647
49717SOL    HW150983   7.044   8.255  12.605
49717SOL    HW250984   6.997   8.113  12.630
49718SOL     OW50985   4.122   9.842   6.707
49718SOL    HW150986   4.092   9.816   6.619
49718SOL    HW250987   4.088   9.931   6.717
49719SOL     OW50988  14.341   9.657  11.856
49719SOL    HW150989  14.249   9.682  11.846
49719SOL    HW250990  14.370   9.636  11.767
49720SOL     OW50991   4.924   0.001   4.422
49720SOL    HW150992   4.890   0.076   4.471
49720SOL    HW250993   4.953  14.815   4.490
49721SOL     OW50994   3.354  13.038   9.685
49721SOL    HW150995   3.361  13.133   9.693
49721SOL    HW250996   3.433  13.013   9.638
49722SOL     OW50997   0.849  14.615   6.173
49722SOL    HW150998   0.820  14.554   6.241
49722SOL    HW250999   0.806  14.584   6.093
49723SOL     OW51000  11.470  11.224   4.538
49723SOL    HW151001  11.533  11.296   4.532
49723SOL    HW251002  11.505  11.156   4.480
49724SOL     OW51003  12.650   0.008   3.523
49724SOL    HW151004  12.640   0.071   3.452
49724SOL    HW251005  12.734   0.030   3.564
49725SOL     OW51006   2.177   8.898   2.455
49725SOL    HW151007   2.122   8.881   2.378
49725SOL    HW251008   2.185   8.993   2.458
49726SOL     OW51009   1.944   0.382  11.659
49726SOL    HW151010   1.864   0.333  11.676
49726SOL    HW251011   1.981   0.399  11.745
49727SOL     OW51012  10.587  10.716  12.896
49727SOL    HW151013  10.673  10.742  12.861
49727SOL    HW251014  10.524  10.754  12.834
49728SOL     OW51015  13.387   7.809  12.925
49728SOL    HW151016  13.361   7.719  12.946
49728SOL    HW251017  13.455   7.800  12.858
49729SOL     OW51018   8.724  12.198   1.624
49729SOL    HW151019   8.796  12.199   1.561
49729SOL    HW251020   8.712  12.290   1.648
49730SOL     OW51021  14.684   5.655   7.109
49730SOL    HW151022  14.723   5.624   7.027
49730SOL    HW251023  14.605   5.700   7.081
49731SOL     OW51024  13.899  12.725   0.175
49731SOL    HW151025  13.925  12.632   0.174
49731SOL    HW251026  13.910  12.753   0.084
49732SOL     OW51027  11.674   8.460   9.554
49732SOL    HW151028  11.730   8.471   9.476
49732SOL    HW251029  11.696   8.372   9.586
49733SOL     OW51030   7.739   4.793   2.681
49733SOL    HW151031   7.684   4.797   2.760
49733SOL    HW251032   7.761   4.884   2.663
49734SOL     OW51033   8.627   1.535   2.173
49734SOL    HW151034   8.610   1.629   2.185
49734SOL    HW251035   8.555   1.505   2.118
49735SOL     OW51036   5.570   1.381   1.401
49735SOL    HW151037   5.544   1.424   1.482
49735SOL    HW251038   5.565   1.287   1.421
49736SOL     OW51039  13.834  14.644   2.836
49736SOL    HW151040  13.808  14.633   2.744
49736SOL    HW251041  13.826  14.739   2.851
49737SOL     OW51042   5.431   8.945   3.726
49737SOL    HW151043   5.511   8.912   3.766
49737SOL    HW251044   5.364   8.934   3.793
49738SOL     OW51045   9.587   1.893  14.423
49738SOL    HW151046   9.540   1.823  14.468
49738SOL    HW251047   9.575   1.970  14.479
49739SOL     OW51048   3.115  12.268   3.571
49739SOL    HW151049   3.023  12.277   3.546
49739SOL    HW251050   3.131  12.174   3.568
49740SOL     OW51051  12.084   9.039   9.138
49740SOL    HW151052  12.107   9.057   9.046
49740SOL    HW251053  12.167   9.048   9.185
49741SOL     OW51054   8.009   9.942   3.593
49741SOL    HW151055   8.006   9.966   3.685
49741SOL    HW251056   7.988   9.848   3.592
49742SOL     OW51057  10.536  10.059   6.671
49742SOL    HW151058  10.488  10.126   6.719
49742SOL    HW251059  10.627  10.068   6.700
49743SOL     OW51060   2.720   4.391   1.350
49743SOL    HW151061   2.712   4.487   1.355
49743SOL    HW251062   2.771   4.368   1.428
49744SOL     OW51063   4.531  12.668   8.403
49744SOL    HW151064   4.523  12.753   8.447
49744SOL    HW251065   4.553  12.607   8.473
49745SOL     OW51066  14.556   3.501   9.319
49745SOL    HW151067  14.529   3.427   9.264
49745SOL    HW251068  14.533   3.475   9.408
49746SOL     OW51069   7.749   0.501   5.960
49746SOL    HW151070   7.721   0.420   5.918
49746SOL    HW251071   7.820   0.474   6.018
49747SOL     OW51072  12.405  11.328  14.773
49747SOL    HW151073  12.363  11.277  14.842
49747SOL    HW251074  12.335  11.343  14.709
49748SOL     OW51075   5.488   5.485   4.302
49748SOL    HW151076   5.435   5.420   4.348
49748SOL    HW251077   5.429   5.559   4.288
49749SOL     OW51078   1.384   3.222  13.553
49749SOL    HW151079   1.324   3.158  13.591
49749SOL    HW251080   1.413   3.182  13.472
49750SOL     OW51081  13.922   1.902  13.614
49750SOL    HW151082  13.996   1.959  13.593
49750SOL    HW251083  13.857   1.961  13.654
49751SOL     OW51084   3.236  13.961   7.825
49751SOL    HW151085   3.195  13.885   7.866
49751SOL    HW251086   3.329  13.952   7.844
49752SOL     OW51087   2.373   4.658   0.560
49752SOL    HW151088   2.416   4.674   0.644
49752SOL    HW251089   2.286   4.624   0.584
49753SOL     OW51090   6.301   3.379  12.178
49753SOL    HW151091   6.232   3.425  12.131
49753SOL    HW251092   6.257   3.302  12.216
49754SOL     OW51093  14.134  12.886  11.087
49754SOL    HW151094  14.064  12.866  11.149
49754SOL    HW251095  14.090  12.893  11.002
49755SOL     OW51096   6.006  11.409  14.876
49755SOL    HW151097   6.030  11.378  14.788
49755SOL    HW251098   6.089  11.427   0.043
49756SOL     OW51099   0.182   2.727  13.202
49756SOL    HW151100   0.215   2.639  13.180
49756SOL    HW251101   0.098   2.733  13.156
49757SOL     OW51102  14.125  13.195   1.287
49757SOL    HW151103  14.198  13.134   1.276
49757SOL    HW251104  14.063  13.149   1.344
49758SOL     OW51105   8.538  11.948   0.909
49758SOL    HW151106   8.529  12.025   0.853
49758SOL    HW251107   8.460  11.948   0.964
49759SOL     OW51108   1.880   6.933   8.989
49759SOL    HW151109   1.893   7.027   9.000
49759SOL    HW251110   1.914   6.894   9.069
49760SOL     OW51111   4.389   7.764   6.958
49760SOL    HW151112   4.402   7.673   6.982
49760SOL    HW251113   4.303   7.786   6.994
49761SOL     OW51114  11.965   1.041  13.695
49761SOL    HW151115  12.056   1.056  13.721
49761SOL    HW251116  11.953   1.093  13.615
49762SOL     OW51117   3.793   5.768   8.632
49762SOL    HW151118   3.809   5.841   8.691
49762SOL    HW251119   3.796   5.807   8.544
49763SOL     OW51120  12.799   4.094  14.388
49763SOL    HW151121  12.860   4.021  14.401
49763SOL    HW251122  12.792   4.103  14.293
49764SOL     OW51123   4.308   2.022  13.759
49764SOL    HW151124   4.305   1.972  13.841
49764SOL    HW251125   4.220   2.058  13.749
49765SOL     OW51126   1.751   8.125  13.016
49765SOL    HW151127   1.806   8.047  13.007
49765SOL    HW251128   1.717   8.120  13.105
49766SOL     OW51129   1.387  10.297  11.547
49766SOL    HW151130   1.444  10.370  11.572
49766SOL    HW251131   1.431  10.255  11.474
49767SOL     OW51132   4.564   5.352   8.894
49767SOL    HW151133   4.648   5.375   8.854
49767SOL    HW251134   4.531   5.279   8.841
49768SOL     OW51135   5.747   6.401   7.384
49768SOL    HW151136   5.804   6.433   7.314
49768SOL    HW251137   5.724   6.312   7.358
49769SOL     OW51138   8.554   1.591  10.614
49769SOL    HW151139   8.535   1.648  10.539
49769SOL    HW251140   8.645   1.566  10.602
49770SOL     OW51141  12.914   3.756   3.941
49770SOL    HW151142  12.843   3.814   3.971
49770SOL    HW251143  12.941   3.792   3.857
49771SOL     OW51144   0.000   1.373   2.087
49771SOL    HW151145   0.046   1.301   2.043
49771SOL    HW251146   0.070   1.433   2.114
49772SOL     OW51147  10.630   1.755   9.528
49772SOL    HW151148  10.688   1.749   9.604
49772SOL    HW251149  10.543   1.769   9.565
49773SOL     OW51150   8.207   5.206   8.348
49773SOL    HW151151   8.294   5.193   8.311
49773SOL    HW251152   8.212   5.290   8.393
49774SOL     OW51153   7.306  10.822  14.461
49774SOL    HW151154   7.367  10.824  14.535
49774SOL    HW251155   7.288  10.914  14.442
49775SOL     OW51156   2.355   8.134  11.019
49775SOL    HW151157   2.414   8.187  11.072
49775SOL    HW251158   2.390   8.139  10.930
49776SOL     OW51159   3.161  13.970   5.178
49776SOL    HW151160   3.238  14.009   5.219
49776SOL    HW251161   3.143  14.025   5.102
49777SOL     OW51162   1.682   3.445   6.266
49777SOL    HW151163   1.633   3.507   6.212
49777SOL    HW251164   1.683   3.485   6.353
49778SOL     OW51165   2.359   5.021   0.018
49778SOL    HW151166   2.277   5.020   0.068
49778SOL    HW251167   2.399   5.105   0.040
49779SOL     OW51168   9.384   9.382  12.705
49779SOL    HW151169   9.383   9.288  12.689
49779SOL    HW251170   9.446   9.417  12.640
49780SOL     OW51171   2.815   5.127   5.857
49780SOL    HW151172   2.810   5.183   5.935
49780SOL    HW251173   2.810   5.187   5.783
49781SOL     OW51174   1.737  10.680   9.198
49781SOL    HW151175   1.818  10.629   9.202
49781SOL    HW251176   1.742  10.726   9.115
49782SOL     OW51177   8.290   8.249   6.937
49782SOL    HW151178   8.207   8.278   6.974
49782SOL    HW251179   8.266   8.207   6.854
49783SOL     OW51180   7.024   9.835   6.071
49783SOL    HW151181   6.982   9.772   6.129
49783SOL    HW251182   7.015   9.797   5.983
49784SOL     OW51183   0.445   8.112   4.606
49784SOL    HW151184   0.417   8.027   4.571
49784SOL    HW251185   0.365   8.164   4.609
49785SOL     OW51186   5.961  14.233   5.691
49785SOL    HW151187   5.984  14.143   5.715
49785SOL    HW251188   6.012  14.252   5.613
49786SOL     OW51189   2.967   3.259  10.487
49786SOL    HW151190   2.919   3.249  10.405
49786SOL    HW251191   3.019   3.179  10.495
49787SOL     OW51192   2.838  12.543   4.346
49787SOL    HW151193   2.768  12.579   4.291
49787SOL    HW251194   2.907  12.609   4.343
49788SOL     OW51195  10.799   7.695   0.963
49788SOL    HW151196  10.759   7.742   0.890
49788SOL    HW251197  10.728   7.685   1.026
49789SOL     OW51198   4.516  10.843   4.858
49789SOL    HW151199   4.531  10.831   4.764
49789SOL    HW251200   4.518  10.755   4.894
49790SOL     OW51201   6.129  10.408  14.678
49790SOL    HW151202   6.048  10.372  14.643
49790SOL    HW251203   6.106  10.496  14.707
49791SOL     OW51204  14.181   6.979   6.971
49791SOL    HW151205  14.214   6.902   6.926
49791SOL    HW251206  14.088   6.962   6.984
49792SOL     OW51207   9.221   0.289  11.254
49792SOL    HW151208   9.205   0.384  11.254
49792SOL    HW251209   9.301   0.278  11.204
49793SOL     OW51210   1.296  12.683   0.426
49793SOL    HW151211   1.225  12.628   0.457
49793SOL    HW251212   1.372  12.657   0.479
49794SOL     OW51213   6.744  13.925   4.100
49794SOL    HW151214   6.768  13.897   4.188
49794SOL    HW251215   6.650  13.911   4.094
49795SOL     OW51216  10.087  13.322   2.765
49795SOL    HW151217  10.044  13.303   2.682
49795SOL    HW251218  10.156  13.385   2.743
49796SOL     OW51219   6.485  12.698  14.455
49796SOL    HW151220   6.573  12.665  14.471
49796SOL    HW251221   6.497  12.770  14.393
49797SOL     OW51222   5.424   3.565  13.771
49797SOL    HW151223   5.496   3.520  13.814
49797SOL    HW251224   5.423   3.529  13.682
49798SOL     OW51225   8.772   2.891   3.719
49798SOL    HW151226   8.774   2.833   3.796
49798SOL    HW251227   8.807   2.974   3.751
49799SOL     OW51228   9.354   5.723  12.902
49799SOL    HW151229   9.429   5.664  12.914
49799SOL    HW251230   9.355   5.744  12.808
49800SOL     OW51231   8.113   5.069   7.392
49800SOL    HW151232   8.157   5.127   7.331
49800SOL    HW251233   8.035   5.117   7.419
49801SOL     OW51234   2.186  11.320  11.708
49801SOL    HW151235   2.165  11.398  11.657
49801SOL    HW251236   2.193  11.250  11.644
49802SOL     OW51237  14.666   8.047  10.505
49802SOL    HW151238  14.613   8.058  10.584
49802SOL    HW251239  14.718   8.127  10.499
49803SOL     OW51240  11.924   8.804   7.819
49803SOL    HW151241  11.907   8.746   7.893
49803SOL    HW251242  11.885   8.887   7.844
49804SOL     OW51243   7.579   4.034   9.366
49804SOL    HW151244   7.538   3.956   9.402
49804SOL    HW251245   7.514   4.069   9.304
49805SOL     OW51246   3.016   9.549   5.934
49805SOL    HW151247   2.931   9.591   5.950
49805SOL    HW251248   3.009   9.514   5.845
49806SOL     OW51249   1.053   9.321   4.619
49806SOL    HW151250   0.992   9.383   4.579
49806SOL    HW251251   0.997   9.258   4.664
49807SOL     OW51252   7.614   9.622  10.175
49807SOL    HW151253   7.583   9.575  10.252
49807SOL    HW251254   7.569   9.581  10.101
49808SOL     OW51255   8.427  10.646   0.157
49808SOL    HW151256   8.437  10.550   0.154
49808SOL    HW251257   8.387  10.663   0.242
49809SOL     OW51258   1.225  13.603   8.925
49809SOL    HW151259   1.147  13.557   8.954
49809SOL    HW251260   1.294  13.574   8.984
49810SOL     OW51261   4.968   8.867  12.389
49810SOL    HW151262   5.004   8.792  12.343
49810SOL    HW251263   4.973   8.844  12.482
49811SOL     OW51264  12.937   9.192   8.871
49811SOL    HW151265  12.924   9.166   8.780
49811SOL    HW251266  12.992   9.271   8.866
49812SOL     OW51267   0.113  12.072  12.699
49812SOL    HW151268   0.139  11.985  12.727
49812SOL    HW251269   0.040  12.057  12.639
49813SOL     OW51270   6.486  11.180  13.172
49813SOL    HW151271   6.495  11.269  13.139
49813SOL    HW251272   6.558  11.170  13.234
49814SOL     OW51273   4.040   8.327  10.168
49814SOL    HW151274   3.949   8.357  10.173
49814SOL    HW251275   4.055   8.312  10.074
49815SOL     OW51276  14.840  14.136   9.187
49815SOL    HW151277   0.040  14.125   9.131
49815SOL    HW251278  14.778  14.069   9.159
49816SOL     OW51279  10.197   4.609   4.924
49816SOL    HW151280  10.145   4.572   4.995
49816SOL    HW251281  10.287   4.603   4.955
49817SOL     OW51282   1.542  13.244  10.495
49817SOL    HW151283   1.630  13.207  10.485
49817SOL    HW251284   1.539  13.314  10.430
49818SOL     OW51285  10.840  12.140  12.904
49818SOL    HW151286  10.799  12.146  12.990
49818SOL    HW251287  10.808  12.217  12.856
49819SOL     OW51288   6.192   2.682  11.650
49819SOL    HW151289   6.174   2.688  11.556
49819SOL    HW251290   6.261   2.616  11.658
49820SOL     OW51291   0.642  14.609  12.806
49820SOL    HW151292   0.650  14.563  12.722
49820SOL    HW251293   0.703  14.565  12.864
49821SOL     OW51294   2.574   3.817   9.049
49821SOL    HW151295   2.575   3.724   9.073
49821SOL    HW251296   2.591   3.818   8.955
49822SOL     OW51297   3.269   5.214   0.230
49822SOL    HW151298   3.314   5.299   0.226
49822SOL    HW251299   3.332   5.152   0.194
49823SOL     OW51300  10.179  11.070  13.708
49823SOL    HW151301  10.096  11.083  13.662
49823SOL    HW251302  10.246  11.087  13.642
49824SOL     OW51303   3.417   5.737   7.325
49824SOL    HW151304   3.488   5.754   7.263
49824SOL    HW251305   3.376   5.657   7.293
49825SOL     OW51306  12.305   3.209   9.907
49825SOL    HW151307  12.300   3.192  10.001
49825SOL    HW251308  12.230   3.162   9.871
49826SOL     OW51309   8.918  12.608   5.095
49826SOL    HW151310   8.827  12.620   5.069
49826SOL    HW251311   8.935  12.515   5.082
49827SOL     OW51312   1.016  11.428   2.620
49827SOL    HW151313   0.978  11.462   2.539
49827SOL    HW251314   1.005  11.498   2.683
49828SOL     OW51315   7.835   1.180  13.858
49828SOL    HW151316   7.819   1.253  13.797
49828SOL    HW251317   7.881   1.115  13.805
49829SOL     OW51318  13.754   5.448  12.160
49829SOL    HW151319  13.693   5.476  12.229
49829SOL    HW251320  13.779   5.529  12.116
49830SOL     OW51321   1.083   6.337   0.880
49830SOL    HW151322   0.997   6.297   0.886
49830SOL    HW251323   1.098   6.377   0.966
49831SOL     OW51324   9.474   3.244   6.975
49831SOL    HW151325   9.399   3.249   6.916
49831SOL    HW251326   9.439   3.271   7.060
49832SOL     OW51327   8.706   8.069  10.943
49832SOL    HW151328   8.711   8.078  10.848
49832SOL    HW251329   8.759   8.141  10.976
49833SOL     OW51330   6.372  11.067   1.978
49833SOL    HW151331   6.417  11.026   2.053
49833SOL    HW251332   6.442  11.108   1.928
49834SOL     OW51333   2.903  14.742   0.978
49834SOL    HW151334   2.905  14.813   0.913
49834SOL    HW251335   2.857  14.671   0.934
49835SOL     OW51336   6.253  12.682   5.103
49835SOL    HW151337   6.203  12.691   5.021
49835SOL    HW251338   6.326  12.625   5.080
49836SOL     OW51339  13.693   3.176   6.367
49836SOL    HW151340  13.685   3.235   6.293
49836SOL    HW251341  13.754   3.108   6.337
49837SOL     OW51342   5.325   7.838   2.774
49837SOL    HW151343   5.304   7.828   2.866
49837SOL    HW251344   5.278   7.766   2.731
49838SOL     OW51345   9.241   2.318   0.515
49838SOL    HW151346   9.184   2.276   0.579
49838SOL    HW251347   9.180   2.370   0.461
49839SOL     OW51348  14.620   4.160   3.817
49839SOL    HW151349  14.675   4.227   3.776
49839SOL    HW251350  14.677   4.084   3.825
49840SOL     OW51351   4.306  12.371   6.559
49840SOL    HW151352   4.401  12.371   6.551
49840SOL    HW251353   4.274  12.380   6.469
49841SOL     OW51354  14.141  11.066   6.082
49841SOL    HW151355  14.207  11.106   6.026
49841SOL    HW251356  14.111  10.989   6.033
49842SOL     OW51357   4.494   3.216  12.622
49842SOL    HW151358   4.548   3.149  12.664
49842SOL    HW251359   4.457   3.266  12.694
49843SOL     OW51360  14.357   0.830   7.425
49843SOL    HW151361  14.398   0.915   7.409
49843SOL    HW251362  14.288   0.824   7.358
49844SOL     OW51363   2.218  13.838  13.554
49844SOL    HW151364   2.263  13.784  13.619
49844SOL    HW251365   2.287  13.861  13.491
49845SOL     OW51366   8.987   7.116   2.607
49845SOL    HW151367   8.923   7.181   2.577
49845SOL    HW251368   9.070   7.144   2.566
49846SOL     OW51369   6.247  13.455   1.536
49846SOL    HW151370   6.296  13.372   1.541
49846SOL    HW251371   6.158  13.431   1.562
49847SOL     OW51372   8.891   3.478   0.564
49847SOL    HW151373   8.814   3.429   0.536
49847SOL    HW251374   8.966   3.425   0.535
49848SOL     OW51375   2.714  12.486   0.002
49848SOL    HW151376   2.650  12.461   0.069
49848SOL    HW251377   2.703  12.420  14.809
49849SOL     OW51378   5.694  12.603   8.210
49849SOL    HW151379   5.747  12.662   8.264
49849SOL    HW251380   5.739  12.519   8.215
49850SOL     OW51381  13.123   2.553   5.654
49850SOL    HW151382  13.086   2.486   5.712
49850SOL    HW251383  13.093   2.635   5.692
49851SOL     OW51384  12.221  11.012   9.156
49851SOL    HW151385  12.198  11.000   9.249
49851SOL    HW251386  12.156  11.074   9.123
49852SOL     OW51387   5.264   5.706   7.971
49852SOL    HW151388   5.175   5.740   7.958
49852SOL    HW251389   5.300   5.759   8.042
49853SOL     OW51390   1.185  13.239  10.100
49853SOL    HW151391   1.203  13.150  10.068
49853SOL    HW251392   1.252  13.293  10.058
49854SOL     OW51393   6.816  12.994   2.577
49854SOL    HW151394   6.812  12.956   2.665
49854SOL    HW251395   6.734  13.043   2.568
49855SOL     OW51396  12.472   0.230   4.273
49855SOL    HW151397  12.397   0.273   4.314
49855SOL    HW251398  12.486   0.281   4.193
49856SOL     OW51399   8.251   8.831  11.545
49856SOL    HW151400   8.213   8.747  11.573
49856SOL    HW251401   8.191   8.863  11.478
49857SOL     OW51402  14.298   4.599   0.153
49857SOL    HW151403  14.347   4.561   0.226
49857SOL    HW251404  14.314   4.540   0.079
49858SOL     OW51405   7.619   4.167  10.316
49858SOL    HW151406   7.578   4.227  10.378
49858SOL    HW251407   7.612   4.210  10.231
49859SOL     OW51408   2.378   9.446   9.814
49859SOL    HW151409   2.403   9.537   9.793
49859SOL    HW251410   2.457   9.395   9.799
49860SOL     OW51411   0.045   7.777   6.042
49860SOL    HW151412   0.047   7.866   6.007
49860SOL    HW251413   0.064   7.721   5.967
49861SOL     OW51414   3.118   3.230   0.025
49861SOL    HW151415   3.104   3.144   0.064
49861SOL    HW251416   3.045   3.241  14.840
49862SOL     OW51417  11.789  13.556   3.013
49862SOL    HW151418  11.757  13.506   3.088
49862SOL    HW251419  11.881  13.531   3.006
49863SOL     OW51420   6.137  14.409   5.155
49863SOL    HW151421   6.089  14.455   5.086
49863SOL    HW251422   6.227  14.402   5.121
49864SOL     OW51423   1.528   6.388   4.413
49864SOL    HW151424   1.457   6.439   4.451
49864SOL    HW251425   1.493   6.299   4.405
49865SOL     OW51426   1.351   3.730  12.821
49865SOL    HW151427   1.406   3.734  12.899
49865SOL    HW251428   1.326   3.821  12.804
49866SOL     OW51429   1.340  12.314   3.870
49866SOL    HW151430   1.407  12.377   3.895
49866SOL    HW251431   1.343  12.312   3.775
49867SOL     OW51432  12.706  12.687   0.274
49867SOL    HW151433  12.780  12.627   0.286
49867SOL    HW251434  12.636  12.648   0.328
49868SOL     OW51435  13.802   7.577  10.089
49868SOL    HW151436  13.739   7.629  10.040
49868SOL    HW251437  13.766   7.489  10.091
49869SOL     OW51438  10.397   9.757   9.024
49869SOL    HW151439  10.468   9.735   9.084
49869SOL    HW251440  10.335   9.685   9.033
49870SOL     OW51441  12.789   9.722  11.409
49870SOL    HW151442  12.724   9.702  11.476
49870SOL    HW251443  12.852   9.650  11.414
49871SOL     OW51444   9.892   2.487   2.442
49871SOL    HW151445   9.838   2.545   2.388
49871SOL    HW251446   9.982   2.510   2.420
49872SOL     OW51447   3.837   3.369   2.187
49872SOL    HW151448   3.857   3.277   2.166
49872SOL    HW251449   3.920   3.415   2.173
49873SOL     OW51450   9.207   9.996   8.257
49873SOL    HW151451   9.247  10.054   8.192
49873SOL    HW251452   9.122   9.973   8.220
49874SOL     OW51453   1.668  11.311   7.528
49874SOL    HW151454   1.605  11.381   7.542
49874SOL    HW251455   1.632  11.259   7.457
49875SOL     OW51456   2.604  14.835  14.551
49875SOL    HW151457   2.608  14.739  14.557
49875SOL    HW251458   2.511  14.855  14.546
49876SOL     OW51459   6.353   0.559   0.836
49876SOL    HW151460   6.337   0.514   0.919
49876SOL    HW251461   6.319   0.647   0.849
49877SOL     OW51462  10.050  14.502   4.419
49877SOL    HW151463  10.026  14.442   4.348
49877SOL    HW251464   9.966  14.532   4.454
49878SOL     OW51465  12.238   3.762   5.775
49878SOL    HW151466  12.321   3.778   5.821
49878SOL    HW251467  12.229   3.666   5.775
49879SOL     OW51468   8.538   0.498   0.525
49879SOL    HW151469   8.506   0.535   0.442
49879SOL    HW251470   8.461   0.496   0.582
49880SOL     OW51471   5.810   1.642   3.176
49880SOL    HW151472   5.717   1.642   3.197
49880SOL    HW251473   5.845   1.566   3.221
49881SOL     OW51474   0.412  10.005   1.833
49881SOL    HW151475   0.503   9.977   1.826
49881SOL    HW251476   0.414  10.099   1.814
49882SOL     OW51477   5.733   2.063   4.367
49882SOL    HW151478   5.763   2.136   4.314
49882SOL    HW251479   5.812   2.012   4.386
49883SOL     OW51480   3.307   9.867   5.258
49883SOL    HW151481   3.391   9.910   5.272
49883SOL    HW251482   3.329   9.775   5.245
49884SOL     OW51483   5.335  11.634   2.137
49884SOL    HW151484   5.254  11.597   2.173
49884SOL    HW251485   5.351  11.584   2.057
49885SOL     OW51486   4.470   1.283  13.019
49885SOL    HW151487   4.553   1.252  13.055
49885SOL    HW251488   4.437   1.345  13.084
49886SOL     OW51489   8.510   8.104  11.908
49886SOL    HW151490   8.427   8.129  11.950
49886SOL    HW251491   8.486   8.088  11.817
49887SOL     OW51492  10.975   8.266   3.492
49887SOL    HW151493  10.946   8.358   3.497
49887SOL    HW251494  11.039   8.258   3.562
49888SOL     OW51495   8.678   2.620   3.149
49888SOL    HW151496   8.718   2.539   3.180
49888SOL    HW251497   8.657   2.669   3.229
49889SOL     OW51498   3.984   4.672   6.198
49889SOL    HW151499   3.939   4.735   6.253
49889SOL    HW251500   3.923   4.654   6.127
49890SOL     OW51501   8.183   5.011   5.678
49890SOL    HW151502   8.278   5.026   5.674
49890SOL    HW251503   8.148   5.093   5.715
49891SOL     OW51504   9.150   9.242   1.876
49891SOL    HW151505   9.088   9.315   1.874
49891SOL    HW251506   9.236   9.283   1.869
49892SOL     OW51507   9.479   7.335  10.363
49892SOL    HW151508   9.457   7.396  10.292
49892SOL    HW251509   9.399   7.328  10.414
49893SOL     OW51510   2.160   4.912   9.634
49893SOL    HW151511   2.209   4.961   9.568
49893SOL    HW251512   2.222   4.902   9.707
49894SOL     OW51513  14.226   8.381   1.777
49894SOL    HW151514  14.319   8.361   1.773
49894SOL    HW251515  14.217   8.435   1.855
49895SOL     OW51516   4.953   5.049   0.812
49895SOL    HW151517   4.998   5.018   0.891
49895SOL    HW251518   4.899   4.974   0.785
49896SOL     OW51519   5.874   1.662  11.841
49896SOL    HW151520   5.926   1.725  11.891
49896SOL    HW251521   5.939   1.610  11.794
49897SOL     OW51522   2.475   7.085   4.193
49897SOL    HW151523   2.559   7.102   4.236
49897SOL    HW251524   2.464   6.990   4.198
49898SOL     OW51525  14.113   1.095   9.784
49898SOL    HW151526  14.098   1.073   9.692
49898SOL    HW251527  14.138   1.012   9.825
49899SOL     OW51528   7.823  12.181   0.917
49899SOL    HW151529   7.852  12.105   0.867
49899SOL    HW251530   7.755  12.147   0.976
49900SOL     OW51531   2.640   4.624   4.843
49900SOL    HW151532   2.729   4.606   4.875
49900SOL    HW251533   2.619   4.710   4.880
49901SOL     OW51534   0.919   0.059  11.387
49901SOL    HW151535   0.880   0.144  11.405
49901SOL    HW251536   0.856  14.871  11.421
49902SOL     OW51537   1.601  13.499   6.079
49902SOL    HW151538   1.660  13.425   6.067
49902SOL    HW251539   1.516  13.469   6.046
49903SOL     OW51540  11.458   6.624   6.216
49903SOL    HW151541  11.428   6.537   6.241
49903SOL    HW251542  11.553   6.617   6.211
49904SOL     OW51543   0.688  13.299  13.638
49904SOL    HW151544   0.617  13.299  13.701
49904SOL    HW251545   0.653  13.344  13.561
49905SOL     OW51546   5.970   7.342   0.009
49905SOL    HW151547   5.952   7.436   0.001
49905SOL    HW251548   5.886   7.305   0.037
49906SOL     OW51549  11.436   1.169  14.347
49906SOL    HW151550  11.483   1.116  14.282
49906SOL    HW251551  11.365   1.210  14.299
49907SOL     OW51552  12.579   7.768  12.353
49907SOL    HW151553  12.625   7.850  12.374
49907SOL    HW251554  12.488   7.795  12.338
49908SOL     OW51555   0.881   5.074   3.339
49908SOL    HW151556   0.843   5.161   3.347
49908SOL    HW251557   0.895   5.062   3.245
49909SOL     OW51558   9.137   7.120   1.535
49909SOL    HW151559   9.043   7.133   1.520
49909SOL    HW251560   9.143   7.038   1.584
49910SOL     OW51561  13.727   5.180  14.113
49910SOL    HW151562  13.696   5.209  14.026
49910SOL    HW251563  13.814   5.218  14.121
49911SOL     OW51564   7.236   2.437   0.398
49911SOL    HW151565   7.202   2.497   0.465
49911SOL    HW251566   7.247   2.491   0.320
49912SOL     OW51567  10.816   2.298  12.026
49912SOL    HW151568  10.879   2.369  12.011
49912SOL    HW251569  10.785   2.275  11.939
49913SOL     OW51570   1.497   3.075  11.131
49913SOL    HW151571   1.451   3.143  11.081
49913SOL    HW251572   1.586   3.075  11.095
49914SOL     OW51573  10.887   8.779   2.578
49914SOL    HW151574  10.892   8.839   2.652
49914SOL    HW251575  10.809   8.726   2.596
49915SOL     OW51576   8.476  10.012   9.608
49915SOL    HW151577   8.472   9.962   9.526
49915SOL    HW251578   8.385  10.035   9.626
49916SOL     OW51579  10.150   9.393   3.443
49916SOL    HW151580  10.132   9.301   3.423
49916SOL    HW251581  10.244   9.404   3.428
49917SOL     OW51582   6.261  12.529  12.630
49917SOL    HW151583   6.287  12.593  12.696
49917SOL    HW251584   6.226  12.456  12.681
49918SOL     OW51585   1.809  14.519   8.415
49918SOL    HW151586   1.862  14.592   8.448
49918SOL    HW251587   1.785  14.546   8.326
49919SOL     OW51588  10.781   5.525  13.059
49919SOL    HW151589  10.720   5.562  13.122
49919SOL    HW251590  10.850   5.486  13.112
49920SOL     OW51591   8.745  12.103   1.047
49920SOL    HW151592   8.707  12.181   1.088
49920SOL    HW251593   8.669  12.051   1.020
49921SOL     OW51594  14.158   3.400  10.372
49921SOL    HW151595  14.096   3.472  10.380
49921SOL    HW251596  14.190   3.385  10.461
49922SOL     OW51597   8.942   3.761  13.040
49922SOL    HW151598   8.896   3.766  12.957
49922SOL    HW251599   8.974   3.671  13.045
49923SOL     OW51600   6.567  11.903  10.496
49923SOL    HW151601   6.593  11.938  10.411
49923SOL    HW251602   6.519  11.975  10.538
49924SOL     OW51603   2.318  13.335   5.472
49924SOL    HW151604   2.343  13.322   5.381
49924SOL    HW251605   2.368  13.412   5.500
49925SOL     OW51606  14.285   1.862   0.343
49925SOL    HW151607  14.199   1.828   0.369
49925SOL    HW251608  14.312   1.917   0.416
49926SOL     OW51609   9.002   7.591  13.700
49926SOL    HW151610   8.966   7.666  13.748
49926SOL    HW251611   9.095   7.613  13.690
49927SOL     OW51612  14.648   1.042   8.562
49927SOL    HW151613  14.608   1.129   8.570
49927SOL    HW251614  14.692   1.043   8.477
49928SOL     OW51615   3.935   3.074   8.989
49928SOL    HW151616   3.844   3.057   9.012
49928SOL    HW251617   3.981   2.993   9.012
49929SOL     OW51618  11.576   0.527  13.445
49929SOL    HW151619  11.620   0.611  13.433
49929SOL    HW251620  11.635   0.478  13.503
49930SOL     OW51621   5.876   5.025   2.596
49930SOL    HW151622   5.850   5.021   2.504
49930SOL    HW251623   5.797   5.003   2.644
49931SOL     OW51624   4.617   4.720   3.684
49931SOL    HW151625   4.534   4.714   3.732
49931SOL    HW251626   4.591   4.722   3.592
49932SOL     OW51627   6.266   7.191   2.624
49932SOL    HW151628   6.234   7.221   2.709
49932SOL    HW251629   6.197   7.135   2.589
49933SOL     OW51630   1.729  12.589  14.587
49933SOL    HW151631   1.672  12.533  14.534
49933SOL    HW251632   1.796  12.530  14.621
49934SOL     OW51633  12.679  13.672  13.730
49934SOL    HW151634  12.706  13.656  13.639
49934SOL    HW251635  12.640  13.759  13.729
49935SOL     OW51636   1.324   3.498  11.908
49935SOL    HW151637   1.235   3.467  11.887
49935SOL    HW251638   1.379   3.421  11.895
49936SOL     OW51639  10.291  10.880   1.278
49936SOL    HW151640  10.255  10.793   1.258
49936SOL    HW251641  10.269  10.895   1.369
49937SOL     OW51642   0.910   8.498  14.293
49937SOL    HW151643   0.856   8.576  14.277
49937SOL    HW251644   0.950   8.514  14.378
49938SOL     OW51645   7.525  12.818   6.050
49938SOL    HW151646   7.453  12.845   5.994
49938SOL    HW251647   7.603  12.856   6.009
49939SOL     OW51648   4.099   4.281  12.813
49939SOL    HW151649   4.090   4.188  12.792
49939SOL    HW251650   4.040   4.296  12.886
49940SOL     OW51651   0.694   9.769   5.973
49940SOL    HW151652   0.748   9.848   5.977
49940SOL    HW251653   0.711   9.733   5.885
49941SOL     OW51654   5.560  13.955   9.925
49941SOL    HW151655   5.600  14.035   9.891
49941SOL    HW251656   5.544  13.973  10.018
49942SOL     OW51657   2.868   5.808   0.820
49942SOL    HW151658   2.817   5.867   0.764
49942SOL    HW251659   2.953   5.800   0.775
49943SOL     OW51660   2.402   8.002   5.932
49943SOL    HW151661   2.470   7.936   5.947
49943SOL    HW251662   2.385   8.039   6.019
49944SOL     OW51663   8.038  11.139   6.704
49944SOL    HW151664   8.100  11.100   6.642
49944SOL    HW251665   8.076  11.224   6.725
49945SOL     OW51666   9.921   6.894  13.789
49945SOL    HW151667   9.932   6.967  13.729
49945SOL    HW251668   9.952   6.818  13.740
49946SOL     OW51669  10.594   6.125  12.673
49946SOL    HW151670  10.670   6.129  12.732
49946SOL    HW251671  10.588   6.033  12.648
49947SOL     OW51672   8.606   7.523  12.221
49947SOL    HW151673   8.587   7.460  12.151
49947SOL    HW251674   8.526   7.524  12.274
49948SOL     OW51675   9.034  10.316   8.940
49948SOL    HW151676   9.039  10.253   9.012
49948SOL    HW251677   9.049  10.263   8.862
49949SOL     OW51678  11.419   3.493   8.618
49949SOL    HW151679  11.325   3.510   8.612
49949SOL    HW251680  11.425   3.399   8.638
49950SOL     OW51681   0.242   0.708  11.783
49950SOL    HW151682   0.213   0.706  11.692
49950SOL    HW251683   0.246   0.616  11.809
49951SOL     OW51684   8.717   6.855   0.929
49951SOL    HW151685   8.753   6.943   0.933
49951SOL    HW251686   8.694   6.842   0.837
49952SOL     OW51687   6.180   5.721  12.776
49952SOL    HW151688   6.273   5.704  12.763
49952SOL    HW251689   6.168   5.813  12.753
49953SOL     OW51690  11.049   5.372   9.475
49953SOL    HW151691  11.046   5.365   9.379
49953SOL    HW251692  11.120   5.313   9.500
49954SOL     OW51693  11.062  11.286  10.723
49954SOL    HW151694  11.140  11.266  10.672
49954SOL    HW251695  11.056  11.214  10.786
49955SOL     OW51696   7.748  14.730   8.498
49955SOL    HW151697   7.830  14.775   8.477
49955SOL    HW251698   7.749  14.723   8.593
49956SOL     OW51699   1.263   8.265  11.588
49956SOL    HW151700   1.308   8.193  11.632
49956SOL    HW251701   1.172   8.235  11.579
49957SOL     OW51702  13.205   4.167  11.055
49957SOL    HW151703  13.190   4.260  11.042
49957SOL    HW251704  13.211   4.156  11.149
49958SOL     OW51705   4.097   5.717   4.848
49958SOL    HW151706   4.004   5.709   4.870
49958SOL    HW251707   4.119   5.807   4.874
49959SOL     OW51708  14.700  13.777   6.036
49959SOL    HW151709  14.665  13.707   6.091
49959SOL    HW251710  14.782  13.742   6.001
49960SOL     OW51711   9.731   7.482   7.728
49960SOL    HW151712   9.640   7.511   7.726
49960SOL    HW251713   9.725   7.387   7.744
49961SOL     OW51714   7.951  12.522   7.144
49961SOL    HW151715   7.892  12.594   7.120
49961SOL    HW251716   7.997  12.554   7.222
49962SOL     OW51717  14.165   6.248   0.464
49962SOL    HW151718  14.215   6.240   0.545
49962SOL    HW251719  14.117   6.165   0.457
49963SOL     OW51720   3.701  12.721  13.606
49963SOL    HW151721   3.648  12.787  13.562
49963SOL    HW251722   3.722  12.657  13.538
49964SOL     OW51723   0.976   5.180   3.683
49964SOL    HW151724   1.029   5.155   3.759
49964SOL    HW251725   0.928   5.257   3.713
49965SOL     OW51726  13.606  10.627   1.646
49965SOL    HW151727  13.583  10.705   1.696
49965SOL    HW251728  13.577  10.647   1.557
49966SOL     OW51729  12.604  13.392   6.369
49966SOL    HW151730  12.665  13.398   6.442
49966SOL    HW251731  12.518  13.401   6.409
49967SOL     OW51732   6.141  11.711   4.042
49967SOL    HW151733   6.110  11.738   3.956
49967SOL    HW251734   6.101  11.625   4.057
49968SOL     OW51735  14.210  13.848  11.197
49968SOL    HW151736  14.166  13.850  11.113
49968SOL    HW251737  14.149  13.802  11.255
49969SOL     OW51738   7.135   5.010   4.783
49969SOL    HW151739   7.089   5.086   4.748
49969SOL    HW251740   7.159   5.035   4.872
49970SOL     OW51741  12.362   1.821   2.591
49970SOL    HW151742  12.279   1.808   2.545
49970SOL    HW251743  12.337   1.862   2.674
49971SOL     OW51744   4.649   3.461   8.861
49971SOL    HW151745   4.717   3.527   8.870
49971SOL    HW251746   4.694   3.385   8.825
49972SOL     OW51747  14.481  14.114   3.865
49972SOL    HW151748  14.516  14.149   3.948
49972SOL    HW251749  14.409  14.057   3.891
49973SOL     OW51750   9.346  11.012  11.435
49973SOL    HW151751   9.439  11.028  11.447
49973SOL    HW251752   9.340  10.954  11.359
49974SOL     OW51753  12.429   2.977  11.289
49974SOL    HW151754  12.454   3.023  11.209
49974SOL    HW251755  12.406   2.889  11.260
49975SOL     OW51756  13.256   5.675   0.826
49975SOL    HW151757  13.243   5.590   0.868
49975SOL    HW251758  13.297   5.729   0.893
49976SOL     OW51759   2.005  12.933   0.813
49976SOL    HW151760   2.007  13.025   0.786
49976SOL    HW251761   1.983  12.885   0.733
49977SOL     OW51762  14.246   3.768   5.589
49977SOL    HW151763  14.328   3.814   5.574
49977SOL    HW251764  14.197   3.781   5.508
49978SOL     OW51765   5.697   2.129   9.710
49978SOL    HW151766   5.709   2.223   9.700
49978SOL    HW251767   5.677   2.098   9.622
49979SOL     OW51768   8.550  11.206   2.941
49979SOL    HW151769   8.475  11.265   2.933
49979SOL    HW251770   8.521  11.139   3.004
49980SOL     OW51771  10.674   1.649  10.701
49980SOL    HW151772  10.676   1.704  10.780
49980SOL    HW251773  10.647   1.563  10.733
49981SOL     OW51774   9.094   6.533   3.585
49981SOL    HW151775   9.115   6.447   3.621
49981SOL    HW251776   9.175   6.584   3.593
49982SOL     OW51777   5.429  10.545   4.688
49982SOL    HW151778   5.519  10.534   4.658
49982SOL    HW251779   5.385  10.590   4.616
49983SOL     OW51780   8.137   6.811   1.303
49983SOL    HW151781   8.113   6.729   1.347
49983SOL    HW251782   8.231   6.821   1.320
49984SOL     OW51783  12.115   7.691   1.024
49984SOL    HW151784  12.077   7.674   1.110
49984SOL    HW251785  12.203   7.654   1.029
49985SOL     OW51786   4.290   1.635  12.735
49985SOL    HW151787   4.342   1.602  12.662
49985SOL    HW251788   4.290   1.563  12.799
49986SOL     OW51789   4.569   6.510  11.367
49986SOL    HW151790   4.501   6.477  11.308
49986SOL    HW251791   4.520   6.540  11.444
49987SOL     OW51792   0.886   7.485   0.122
49987SOL    HW151793   0.850   7.459   0.207
49987SOL    HW251794   0.821   7.455   0.059
49988SOL     OW51795   0.117   3.229   4.360
49988SOL    HW151796   0.191   3.287   4.343
49988SOL    HW251797   0.079   3.214   4.273
49989SOL     OW51798   1.514   5.391  11.073
49989SOL    HW151799   1.483   5.470  11.118
49989SOL    HW251800   1.507   5.412  10.980
49990SOL     OW51801  13.784   2.812   3.248
49990SOL    HW151802  13.690   2.795   3.240
49990SOL    HW251803  13.824   2.754   3.183
49991SOL     OW51804   3.817   7.423   0.144
49991SOL    HW151805   3.912   7.410   0.144
49991SOL    HW251806   3.783   7.354   0.087
49992SOL     OW51807   1.033  10.420  12.972
49992SOL    HW151808   1.091  10.382  13.038
49992SOL    HW251809   1.034  10.514  12.990
49993SOL     OW51810   4.425   6.540   3.520
49993SOL    HW151811   4.365   6.552   3.594
49993SOL    HW251812   4.498   6.599   3.539
49994SOL     OW51813   8.461   6.017   5.332
49994SOL    HW151814   8.499   6.035   5.246
49994SOL    HW251815   8.529   5.971   5.379
49995SOL     OW51816   9.512  11.495   9.709
49995SOL    HW151817   9.420  11.507   9.730
49995SOL    HW251818   9.559  11.547   9.774
49996SOL     OW51819  11.922  14.553   3.274
49996SOL    HW151820  11.847  14.595   3.232
49996SOL    HW251821  11.974  14.519   3.201
49997SOL     OW51822   8.728   2.840   5.191
49997SOL    HW151823   8.723   2.852   5.286
49997SOL    HW251824   8.722   2.745   5.179
49998SOL     OW51825  10.859  14.527   7.297
49998SOL    HW151826  10.766  14.537   7.280
49998SOL    HW251827  10.866  14.522   7.393
49999SOL     OW51828   9.327  11.249   5.369
49999SOL    HW151829   9.232  11.259   5.364
49999SOL    HW251830   9.344  11.217   5.458
50000SOL     OW51831  11.000   1.922   0.488
50000SOL    HW151832  10.948   1.888   0.415
50000SOL    HW251833  10.957   2.003   0.513
50001SOL     OW51834  14.479   9.804  11.166
50001SOL    HW151835  14.558   9.823  11.215
50001SOL    HW251836  14.447   9.722  11.204
50002SOL     OW51837   1.100   5.473   3.190
50002SOL    HW151838   1.113   5.380   3.171
50002SOL    HW251839   1.109   5.480   3.285
50003SOL     OW51840   9.481   2.356   1.388
50003SOL    HW151841   9.508   2.362   1.297
50003SOL    HW251842   9.560   2.328   1.435
50004SOL     OW51843  12.216  10.451   8.118
50004SOL    HW151844  12.141  10.418   8.070
50004SOL    HW251845  12.209  10.546   8.112
50005SOL     OW51846  12.255   8.107  13.416
50005SOL    HW151847  12.189   8.061  13.467
50005SOL    HW251848  12.219   8.195  13.403
50006SOL     OW51849   0.148   4.652   5.463
50006SOL    HW151850   0.166   4.587   5.530
50006SOL    HW251851   0.167   4.736   5.506
50007SOL     OW51852   1.290  12.585  12.985
50007SOL    HW151853   1.239  12.615  12.910
50007SOL    HW251854   1.243  12.618  13.061
50008SOL     OW51855   1.263  11.352   7.965
50008SOL    HW151856   1.340  11.305   7.932
50008SOL    HW251857   1.189  11.309   7.923
50009SOL     OW51858  14.098   4.777   1.424
50009SOL    HW151859  14.170   4.838   1.439
50009SOL    HW251860  14.051   4.813   1.348
50010SOL     OW51861   6.796   4.773  11.579
50010SOL    HW151862   6.848   4.738  11.507
50010SOL    HW251863   6.729   4.707  11.595
50011SOL     OW51864   2.889   1.439   5.768
50011SOL    HW151865   2.975   1.452   5.728
50011SOL    HW251866   2.881   1.345   5.779
50012SOL     OW51867  10.787   1.265   0.033
50012SOL    HW151868  10.834   1.217   0.100
50012SOL    HW251869  10.739   1.333   0.081
50013SOL     OW51870  11.685   5.628   9.472
50013SOL    HW151871  11.689   5.644   9.378
50013SOL    HW251872  11.594   5.602   9.488
50014SOL     OW51873   6.263   8.965   0.605
50014SOL    HW151874   6.289   8.874   0.591
50014SOL    HW251875   6.193   8.961   0.670
50015SOL     OW51876   9.551  12.225   3.440
50015SOL    HW151877   9.527  12.136   3.416
50015SOL    HW251878   9.543  12.274   3.358
50016SOL     OW51879   5.896   0.252   5.482
50016SOL    HW151880   5.811   0.253   5.438
50016SOL    HW251881   5.915   0.344   5.498
50017SOL     OW51882   0.816   2.408   5.797
50017SOL    HW151883   0.727   2.434   5.770
50017SOL    HW251884   0.830   2.455   5.880
50018SOL     OW51885   7.223   8.870   3.849
50018SOL    HW151886   7.285   8.871   3.776
50018SOL    HW251887   7.260   8.806   3.910
50019SOL     OW51888   6.028   0.128   4.356
50019SOL    HW151889   6.083   0.073   4.413
50019SOL    HW251890   6.016   0.209   4.404
50020SOL     OW51891   6.035   9.518   6.895
50020SOL    HW151892   5.968   9.527   6.826
50020SOL    HW251893   6.014   9.435   6.937
50021SOL     OW51894   3.934  13.814   0.447
50021SOL    HW151895   3.866  13.832   0.382
50021SOL    HW251896   3.909  13.732   0.488
50022SOL     OW51897   7.527   5.633   5.770
50022SOL    HW151898   7.506   5.545   5.738
50022SOL    HW251899   7.619   5.628   5.796
50023SOL     OW51900  10.262  14.652   1.714
50023SOL    HW151901  10.232  14.742   1.703
50023SOL    HW251902  10.221  14.622   1.795
50024SOL     OW51903   7.964   4.127   3.208
50024SOL    HW151904   8.015   4.046   3.216
50024SOL    HW251905   8.022   4.186   3.160
50025SOL     OW51906   1.380   6.439   9.070
50025SOL    HW151907   1.333   6.520   9.051
50025SOL    HW251908   1.441   6.429   8.996
50026SOL     OW51909  10.688   0.292   8.628
50026SOL    HW151910  10.767   0.277   8.576
50026SOL    HW251911  10.668   0.205   8.664
50027SOL     OW51912  13.018  10.289   7.344
50027SOL    HW151913  13.047  10.231   7.414
50027SOL    HW251914  12.946  10.339   7.383
50028SOL     OW51915   7.660  13.736   3.069
50028SOL    HW151916   7.719  13.661   3.061
50028SOL    HW251917   7.586  13.703   3.119
50029SOL     OW51918   0.323  11.403  14.091
50029SOL    HW151919   0.275  11.366  14.165
50029SOL    HW251920   0.382  11.468  14.131
50030SOL     OW51921   2.223  11.121   0.266
50030SOL    HW151922   2.209  11.114   0.172
50030SOL    HW251923   2.206  11.033   0.300
50031SOL     OW51924  12.736  13.379   6.622
50031SOL    HW151925  12.710  13.452   6.679
50031SOL    HW251926  12.717  13.301   6.673
50032SOL     OW51927   5.043   7.751   8.666
50032SOL    HW151928   5.076   7.675   8.714
50032SOL    HW251929   5.119   7.783   8.617
50033SOL     OW51930  13.945   3.632   3.122
50033SOL    HW151931  14.002   3.561   3.092
50033SOL    HW251932  13.882   3.590   3.181
50034SOL     OW51933   2.736   7.430   5.187
50034SOL    HW151934   2.730   7.339   5.161
50034SOL    HW251935   2.804   7.431   5.255
50035SOL     OW51936   7.648   2.280   0.440
50035SOL    HW151937   7.553   2.273   0.449
50035SOL    HW251938   7.682   2.248   0.524
50036SOL     OW51939   1.086   4.975   5.964
50036SOL    HW151940   1.152   5.028   5.919
50036SOL    HW251941   1.032   5.038   6.011
50037SOL     OW51942   3.997   0.190  11.045
50037SOL    HW151943   3.911   0.231  11.044
50037SOL    HW251944   4.054   0.252  10.999
50038SOL     OW51945  14.152   2.233  14.128
50038SOL    HW151946  14.202   2.156  14.103
50038SOL    HW251947  14.206   2.307  14.099
50039SOL     OW51948   7.009   6.166  11.247
50039SOL    HW151949   6.929   6.199  11.287
50039SOL    HW251950   7.014   6.209  11.162
50040SOL     OW51951  13.873  12.400   7.711
50040SOL    HW151952  13.900  12.443   7.630
50040SOL    HW251953  13.778  12.413   7.715
50041SOL     OW51954   2.287   7.636   1.821
50041SOL    HW151955   2.196   7.621   1.847
50041SOL    HW251956   2.283   7.649   1.726
50042SOL     OW51957  11.665   7.889  12.346
50042SOL    HW151958  11.757   7.896  12.370
50042SOL    HW251959  11.628   7.829  12.411
50043SOL     OW51960  14.317   7.382   8.749
50043SOL    HW151961  14.230   7.420   8.754
50043SOL    HW251962  14.304   7.288   8.756
50044SOL     OW51963   2.828   6.054  12.630
50044SOL    HW151964   2.796   6.121  12.569
50044SOL    HW251965   2.923   6.065  12.629
50045SOL     OW51966  12.478  10.253   2.436
50045SOL    HW151967  12.384  10.253   2.415
50045SOL    HW251968  12.521  10.265   2.352
50046SOL     OW51969   6.673   1.553   5.069
50046SOL    HW151970   6.633   1.467   5.063
50046SOL    HW251971   6.677   1.572   5.162
50047SOL     OW51972   4.196   1.182   3.913
50047SOL    HW151973   4.262   1.165   3.845
50047SOL    HW251974   4.212   1.115   3.979
50048SOL     OW51975   4.028   5.463   4.386
50048SOL    HW151976   4.121   5.482   4.380
50048SOL    HW251977   4.021   5.397   4.455
50049SOL     OW51978   2.777   4.520   5.925
50049SOL    HW151979   2.690   4.497   5.892
50049SOL    HW251980   2.765   4.528   6.020
50050SOL     OW51981   5.799  11.927   6.370
50050SOL    HW151982   5.714  11.898   6.402
50050SOL    HW251983   5.861  11.900   6.438
50051SOL     OW51984  10.372   1.699   8.849
50051SOL    HW151985  10.334   1.744   8.773
50051SOL    HW251986  10.392   1.611   8.817
50052SOL     OW51987   8.752   5.471   9.955
50052SOL    HW151988   8.708   5.494   9.874
50052SOL    HW251989   8.696   5.506  10.024
50053SOL     OW51990  10.981   1.821   9.668
50053SOL    HW151991  10.923   1.749   9.640
50053SOL    HW251992  10.951   1.844   9.756
50054SOL     OW51993   3.243   9.347  12.928
50054SOL    HW151994   3.157   9.330  12.888
50054SOL    HW251995   3.284   9.260  12.934
50055SOL     OW51996   9.133   0.733   4.668
50055SOL    HW151997   9.153   0.760   4.579
50055SOL    HW251998   9.169   0.645   4.675
50056SOL     OW51999   1.821   4.124   3.489
50056SOL    HW152000   1.753   4.161   3.433
50056SOL    HW252001   1.779   4.048   3.530
50057SOL     OW52002  11.951   8.247  14.836
50057SOL    HW152003  11.915   8.320  14.786
50057SOL    HW252004  11.877   8.211   0.008
50058SOL     OW52005  10.328   2.859   2.288
50058SOL    HW152006  10.380   2.937   2.309
50058SOL    HW252007  10.391   2.798   2.249
50059SOL     OW52008   8.626   6.345   2.529
50059SOL    HW152009   8.603   6.412   2.465
50059SOL    HW252010   8.633   6.264   2.477
50060SOL     OW52011   2.234   1.940  12.156
50060SOL    HW152012   2.250   1.949  12.250
50060SOL    HW252013   2.280   1.859  12.133
50061SOL     OW52014  14.389  12.684   4.838
50061SOL    HW152015  14.445  12.696   4.762
50061SOL    HW252016  14.329  12.758   4.836
50062SOL     OW52017   2.487   3.022   5.942
50062SOL    HW152018   2.449   2.953   5.887
50062SOL    HW252019   2.580   3.000   5.948
50063SOL     OW52020   1.249   3.007   9.218
50063SOL    HW152021   1.221   2.925   9.259
50063SOL    HW252022   1.284   3.059   9.290
50064SOL     OW52023  12.582  11.828   3.592
50064SOL    HW152024  12.513  11.774   3.554
50064SOL    HW252025  12.661  11.804   3.543
50065SOL     OW52026   8.767   0.828  14.732
50065SOL    HW152027   8.804   0.891  14.795
50065SOL    HW252028   8.839   0.810  14.672
50066SOL     OW52029   9.266   2.355   2.794
50066SOL    HW152030   9.249   2.265   2.768
50066SOL    HW252031   9.208   2.370   2.869
50067SOL     OW52032   9.986  12.574  13.927
50067SOL    HW152033  10.010  12.498  13.980
50067SOL    HW252034  10.028  12.559  13.842
50068SOL     OW52035   9.949  14.392  11.467
50068SOL    HW152036   9.943  14.301  11.496
50068SOL    HW252037   9.966  14.386  11.372
50069SOL     OW52038   9.863   7.782   6.083
50069SOL    HW152039   9.957   7.801   6.081
50069SOL    HW252040   9.823   7.861   6.119
50070SOL     OW52041   4.606   3.690   3.116
50070SOL    HW152042   4.678   3.648   3.069
50070SOL    HW252043   4.649   3.757   3.170
50071SOL     OW52044   0.485   7.575   4.989
50071SOL    HW152045   0.504   7.532   5.073
50071SOL    HW252046   0.396   7.546   4.967
50072SOL     OW52047   1.702   7.756  12.837
50072SOL    HW152048   1.641   7.723  12.770
50072SOL    HW252049   1.765   7.685  12.849
50073SOL     OW52050  12.213   2.577   6.686
50073SOL    HW152051  12.282   2.622   6.637
50073SOL    HW252052  12.203   2.629   6.766
50074SOL     OW52053  12.924   8.968   1.815
50074SOL    HW152054  12.910   9.052   1.773
50074SOL    HW252055  12.974   8.989   1.894
50075SOL     OW52056  10.714  11.302  12.670
50075SOL    HW152057  10.746  11.348  12.592
50075SOL    HW252058  10.625  11.334  12.682
50076SOL     OW52059   7.461  14.618  12.119
50076SOL    HW152060   7.391  14.670  12.081
50076SOL    HW252061   7.538  14.638  12.066
50077SOL     OW52062  10.362  11.189   2.498
50077SOL    HW152063  10.434  11.176   2.560
50077SOL    HW252064  10.323  11.272   2.523
50078SOL     OW52065   1.427   3.888   5.893
50078SOL    HW152066   1.398   3.806   5.932
50078SOL    HW252067   1.365   3.904   5.822
50079SOL     OW52068   5.662  11.409  12.592
50079SOL    HW152069   5.616  11.475  12.540
50079SOL    HW252070   5.727  11.459  12.641
50080SOL     OW52071   4.372   7.946   9.996
50080SOL    HW152072   4.315   7.994   9.936
50080SOL    HW252073   4.436   7.903   9.939
50081SOL     OW52074   1.889   2.867  10.031
50081SOL    HW152075   1.973   2.895   9.993
50081SOL    HW252076   1.893   2.772  10.027
50082SOL     OW52077   4.891   5.261  14.353
50082SOL    HW152078   4.977   5.223  14.338
50082SOL    HW252079   4.893   5.344  14.305
50083SOL     OW52080   4.839   1.571   0.878
50083SOL    HW152081   4.835   1.550   0.972
50083SOL    HW252082   4.758   1.619   0.861
50084SOL     OW52083  11.413   7.663  12.904
50084SOL    HW152084  11.495   7.614  12.890
50084SOL    HW252085  11.423   7.742  12.851
50085SOL     OW52086   8.559   5.644   7.174
50085SOL    HW152087   8.525   5.730   7.199
50085SOL    HW252088   8.483   5.597   7.140
50086SOL     OW52089   0.365   7.108   2.944
50086SOL    HW152090   0.351   7.043   2.876
50086SOL    HW252091   0.285   7.106   2.996
50087SOL     OW52092   7.242   5.586   6.383
50087SOL    HW152093   7.226   5.536   6.303
50087SOL    HW252094   7.260   5.520   6.450
50088SOL     OW52095   3.225  10.817  14.313
50088SOL    HW152096   3.181  10.886  14.362
50088SOL    HW252097   3.155  10.776  14.262
50089SOL     OW52098   2.299   9.055  10.935
50089SOL    HW152099   2.374   9.113  10.944
50089SOL    HW252100   2.337   8.967  10.933
50090SOL     OW52101   5.360   9.459   6.736
50090SOL    HW152102   5.317   9.377   6.759
50090SOL    HW252103   5.385   9.449   6.644
50091SOL     OW52104   5.420   4.531  14.310
50091SOL    HW152105   5.396   4.622  14.295
50091SOL    HW252106   5.515   4.533  14.323
50092SOL     OW52107   9.398   5.342   4.206
50092SOL    HW152108   9.461   5.413   4.197
50092SOL    HW252109   9.401   5.319   4.299
50093SOL     OW52110   2.743  10.916   4.961
50093SOL    HW152111   2.765  10.966   4.883
50093SOL    HW252112   2.740  10.825   4.931
50094SOL     OW52113   9.591   3.534   0.999
50094SOL    HW152114   9.578   3.587   0.920
50094SOL    HW252115   9.503   3.521   1.034
50095SOL     OW52116   7.204   1.838  14.216
50095SOL    HW152117   7.193   1.829  14.121
50095SOL    HW252118   7.184   1.930  14.233
50096SOL     OW52119   2.798  13.773   8.085
50096SOL    HW152120   2.883  13.741   8.055
50096SOL    HW252121   2.750  13.793   8.005
50097SOL     OW52122   7.392  10.664   0.499
50097SOL    HW152123   7.346  10.656   0.416
50097SOL    HW252124   7.408  10.758   0.509
50098SOL     OW52125   8.965  12.649  11.094
50098SOL    HW152126   8.964  12.744  11.083
50098SOL    HW252127   9.056  12.628  11.113
50099SOL     OW52128   8.251   3.437   3.956
50099SOL    HW152129   8.294   3.352   3.969
50099SOL    HW252130   8.236   3.441   3.862
50100SOL     OW52131   7.877   7.117   9.108
50100SOL    HW152132   7.857   7.046   9.168
50100SOL    HW252133   7.803   7.177   9.116
50101SOL     OW52134   2.409   1.776   1.471
50101SOL    HW152135   2.448   1.692   1.492
50101SOL    HW252136   2.399   1.820   1.556
50102SOL     OW52137  11.155  12.325  14.388
50102SOL    HW152138  11.241  12.300  14.353
50102SOL    HW252139  11.113  12.241  14.407
50103SOL     OW52140   4.903   8.156  14.500
50103SOL    HW152141   4.883   8.064  14.515
50103SOL    HW252142   4.986   8.170  14.545
50104SOL     OW52143  13.788   1.492  12.228
50104SOL    HW152144  13.849   1.504  12.302
50104SOL    HW252145  13.771   1.398  12.227
50105SOL     OW52146  13.180   0.888  11.400
50105SOL    HW152147  13.274   0.878  11.407
50105SOL    HW252148  13.169   0.974  11.359
50106SOL     OW52149   0.245   7.072  14.374
50106SOL    HW152150   0.332   7.062  14.334
50106SOL    HW252151   0.227   7.166  14.370
50107SOL     OW52152  13.540   9.987   7.402
50107SOL    HW152153  13.587  10.060   7.442
50107SOL    HW252154  13.608   9.930   7.367
50108SOL     OW52155   6.988  10.146   8.927
50108SOL    HW152156   6.985  10.066   8.979
50108SOL    HW252157   7.081  10.163   8.914
50109SOL     OW52158  13.965  13.655   2.452
50109SOL    HW152159  13.993  13.713   2.381
50109SOL    HW252160  14.039  13.596   2.466
50110SOL     OW52161   5.606   6.194   0.057
50110SOL    HW152162   5.579   6.249  14.859
50110SOL    HW252163   5.533   6.199   0.118
50111SOL     OW52164   5.440  11.465   5.729
50111SOL    HW152165   5.354  11.505   5.713
50111SOL    HW252166   5.500  11.516   5.673
50112SOL     OW52167   3.931  14.779  12.664
50112SOL    HW152168   3.852  14.726  12.660
50112SOL    HW252169   3.912  14.846  12.729
50113SOL     OW52170  11.874   0.695   8.408
50113SOL    HW152171  11.782   0.720   8.402
50113SOL    HW252172  11.880   0.644   8.489
50114SOL     OW52173  13.999   6.718  10.548
50114SOL    HW152174  14.036   6.744  10.633
50114SOL    HW252175  14.019   6.624  10.541
50115SOL     OW52176   8.851   3.069   2.368
50115SOL    HW152177   8.769   3.029   2.396
50115SOL    HW252178   8.874   3.025   2.286
50116SOL     OW52179  13.876   6.401   3.400
50116SOL    HW152180  13.812   6.346   3.445
50116SOL    HW252181  13.844   6.490   3.412
50117SOL     OW52182  13.304   1.361   6.073
50117SOL    HW152183  13.392   1.356   6.033
50117SOL    HW252184  13.245   1.339   6.001
50118SOL     OW52185   4.993  13.963   6.235
50118SOL    HW152186   5.009  13.870   6.219
50118SOL    HW252187   4.950  13.965   6.321
50119SOL     OW52188   8.481   2.491   0.296
50119SOL    HW152189   8.507   2.575   0.258
50119SOL    HW252190   8.448   2.440   0.222
50120SOL     OW52191  13.869  12.306   7.981
50120SOL    HW152192  13.853  12.328   7.889
50120SOL    HW252193  13.782  12.304   8.020
50121SOL     OW52194   7.825  11.617  13.858
50121SOL    HW152195   7.807  11.711  13.857
50121SOL    HW252196   7.858  11.598  13.770
50122SOL     OW52197   2.755  12.358  10.794
50122SOL    HW152198   2.691  12.382  10.861
50122SOL    HW252199   2.735  12.416  10.720
50123SOL     OW52200   5.014   6.743   2.620
50123SOL    HW152201   5.086   6.720   2.560
50123SOL    HW252202   5.048   6.816   2.672
50124SOL     OW52203   0.477   2.350   3.785
50124SOL    HW152204   0.502   2.266   3.823
50124SOL    HW252205   0.493   2.340   3.691
50125SOL     OW52206  11.329   6.133   6.522
50125SOL    HW152207  11.416   6.158   6.492
50125SOL    HW252208  11.269   6.181   6.465
50126SOL     OW52209   3.624   0.258   3.051
50126SOL    HW152210   3.650   0.299   3.133
50126SOL    HW252211   3.702   0.262   2.996
50127SOL     OW52212   3.071   9.404   7.380
50127SOL    HW152213   2.980   9.397   7.350
50127SOL    HW252214   3.124   9.390   7.302
50128SOL     OW52215   8.329  10.473  12.835
50128SOL    HW152216   8.247  10.487  12.882
50128SOL    HW252217   8.392  10.531  12.877
50129SOL     OW52218   6.088   2.617   5.867
50129SOL    HW152219   6.142   2.596   5.792
50129SOL    HW252220   6.112   2.707   5.891
50130SOL     OW52221   8.308   2.291   5.980
50130SOL    HW152222   8.251   2.323   5.910
50130SOL    HW252223   8.248   2.247   6.041
50131SOL     OW52224   2.344   1.688   9.988
50131SOL    HW152225   2.259   1.669   9.948
50131SOL    HW252226   2.377   1.603  10.016
50132SOL     OW52227   4.119   9.114   2.831
50132SOL    HW152228   4.133   9.118   2.925
50132SOL    HW252229   4.080   9.027   2.816
50133SOL     OW52230   5.692   0.264  10.119
50133SOL    HW152231   5.719   0.355  10.132
50133SOL    HW252232   5.670   0.259  10.026
50134SOL     OW52233   7.453  12.728   2.834
50134SOL    HW152234   7.440  12.788   2.908
50134SOL    HW252235   7.380  12.748   2.775
50135SOL     OW52236  13.930   3.975   5.574
50135SOL    HW152237  13.841   3.944   5.560
50135SOL    HW252238  13.985   3.919   5.519
50136SOL     OW52239   3.219   2.163   5.187
50136SOL    HW152240   3.151   2.182   5.123
50136SOL    HW252241   3.171   2.130   5.263
50137SOL     OW52242   0.659   6.640  11.001
50137SOL    HW152243   0.703   6.606  10.924
50137SOL    HW252244   0.618   6.564  11.041
50138SOL     OW52245   2.907   0.739  11.251
50138SOL    HW152246   2.882   0.826  11.283
50138SOL    HW252247   2.950   0.698  11.327
50139SOL     OW52248   4.782   4.138   2.542
50139SOL    HW152249   4.845   4.123   2.472
50139SOL    HW252250   4.823   4.101   2.620
50140SOL     OW52251   0.186   0.744   9.498
50140SOL    HW152252   0.204   0.829   9.537
50140SOL    HW252253   0.176   0.761   9.405
50141SOL     OW52254  12.000   1.538  13.413
50141SOL    HW152255  11.993   1.631  13.434
50141SOL    HW252256  12.058   1.535  13.336
50142SOL     OW52257   1.295   8.764   7.570
50142SOL    HW152258   1.362   8.726   7.514
50142SOL    HW252259   1.344   8.822   7.629
50143SOL     OW52260   2.468   6.112   5.717
50143SOL    HW152261   2.445   6.202   5.696
50143SOL    HW252262   2.390   6.061   5.694
50144SOL     OW52263   1.826   7.501   0.740
50144SOL    HW152264   1.911   7.506   0.784
50144SOL    HW252265   1.823   7.581   0.686
50145SOL     OW52266   6.782   5.304  14.411
50145SOL    HW152267   6.864   5.336  14.448
50145SOL    HW252268   6.806   5.225  14.363
50146SOL     OW52269  12.025   1.288  11.840
50146SOL    HW152270  12.107   1.284  11.889
50146SOL    HW252271  12.044   1.244  11.758
50147SOL     OW52272   7.090   9.689   0.995
50147SOL    HW152273   7.080   9.605   0.951
50147SOL    HW252274   7.183   9.694   1.017
50148SOL     OW52275  13.530   1.052   7.504
50148SOL    HW152276  13.558   1.053   7.412
50148SOL    HW252277  13.612   1.040   7.553
50149SOL     OW52278   8.730   5.801   9.473
50149SOL    HW152279   8.703   5.868   9.536
50149SOL    HW252280   8.817   5.829   9.444
50150SOL     OW52281  11.077   2.304  12.594
50150SOL    HW152282  11.149   2.278  12.538
50150SOL    HW252283  11.038   2.379  12.550
50151SOL     OW52284   8.627   8.723   1.177
50151SOL    HW152285   8.541   8.746   1.143
50151SOL    HW252286   8.685   8.792   1.144
50152SOL     OW52287   4.838   7.739   1.338
50152SOL    HW152288   4.758   7.728   1.287
50152SOL    HW252289   4.818   7.701   1.423
50153SOL     OW52290   6.769  13.321   7.590
50153SOL    HW152291   6.699  13.342   7.529
50153SOL    HW252292   6.754  13.380   7.664
50154SOL     OW52293  14.532   0.447   6.293
50154SOL    HW152294  14.575   0.517   6.244
50154SOL    HW252295  14.477   0.402   6.229
50155SOL     OW52296   1.428  10.235   3.519
50155SOL    HW152297   1.399  10.251   3.609
50155SOL    HW252298   1.476  10.315   3.496
50156SOL     OW52299   0.483   7.761   4.072
50156SOL    HW152300   0.460   7.668   4.069
50156SOL    HW252301   0.562   7.764   4.125
50157SOL     OW52302   4.946   2.922   2.586
50157SOL    HW152303   4.965   2.891   2.498
50157SOL    HW252304   4.851   2.911   2.596
50158SOL     OW52305  10.234  12.851  13.949
50158SOL    HW152306  10.286  12.923  13.986
50158SOL    HW252307  10.298  12.783  13.928
50159SOL     OW52308   2.222   3.276  10.112
50159SOL    HW152309   2.201   3.183  10.113
50159SOL    HW252310   2.244   3.297  10.203
50160SOL     OW52311   9.564   4.133  11.427
50160SOL    HW152312   9.571   4.188  11.505
50160SOL    HW252313   9.644   4.149  11.378
50161SOL     OW52314   2.535   5.393  10.743
50161SOL    HW152315   2.586   5.472  10.761
50161SOL    HW252316   2.567   5.363  10.658
50162SOL     OW52317   8.766  13.245   3.579
50162SOL    HW152318   8.697  13.294   3.624
50162SOL    HW252319   8.824  13.215   3.649
50163SOL     OW52320   9.563   5.946   8.452
50163SOL    HW152321   9.526   5.871   8.405
50163SOL    HW252322   9.605   5.908   8.529
50164SOL     OW52323  14.371   2.843   3.117
50164SOL    HW152324  14.292   2.794   3.093
50164SOL    HW252325  14.437   2.816   3.054
50165SOL     OW52326   0.476   5.328  13.004
50165SOL    HW152327   0.536   5.260  13.035
50165SOL    HW252328   0.456   5.303  12.914
50166SOL     OW52329   3.783  13.120   2.003
50166SOL    HW152330   3.807  13.170   1.925
50166SOL    HW252331   3.754  13.036   1.970
50167SOL     OW52332   1.682   1.518  11.674
50167SOL    HW152333   1.610   1.462  11.705
50167SOL    HW252334   1.639   1.599  11.648
50168SOL     OW52335   3.851   9.561   7.360
50168SOL    HW152336   3.914   9.509   7.309
50168SOL    HW252337   3.883   9.553   7.450
50169SOL     OW52338   4.133   7.415   3.561
50169SOL    HW152339   4.056   7.359   3.554
50169SOL    HW252340   4.102   7.492   3.610
50170SOL     OW52341  11.855   2.538   7.119
50170SOL    HW152342  11.900   2.557   7.037
50170SOL    HW252343  11.784   2.478   7.095
50171SOL     OW52344   5.852  12.284   2.262
50171SOL    HW152345   5.761  12.257   2.264
50171SOL    HW252346   5.891  12.246   2.340
50172SOL     OW52347  12.328   0.744  12.158
50172SOL    HW152348  12.302   0.773  12.245
50172SOL    HW252349  12.331   0.648  12.165
50173SOL     OW52350  12.115   2.971   5.620
50173SOL    HW152351  12.103   3.035   5.550
50173SOL    HW252352  12.163   3.018   5.688
50174SOL     OW52353   5.743   2.539  12.951
50174SOL    HW152354   5.739   2.461  12.896
50174SOL    HW252355   5.654   2.550  12.984
50175SOL     OW52356  11.095  10.631   4.565
50175SOL    HW152357  11.051  10.645   4.648
50175SOL    HW252358  11.106  10.537   4.559
50176SOL     OW52359   5.135   1.403  13.229
50176SOL    HW152360   5.042   1.410  13.205
50176SOL    HW252361   5.157   1.489  13.266
50177SOL     OW52362  10.072  10.956   1.521
50177SOL    HW152363  10.019  10.998   1.589
50177SOL    HW252364  10.162  10.965   1.552
50178SOL     OW52365  13.149   5.485   2.305
50178SOL    HW152366  13.178   5.462   2.393
50178SOL    HW252367  13.055   5.465   2.305
50179SOL     OW52368   4.949  11.987   3.139
50179SOL    HW152369   5.032  11.939   3.145
50179SOL    HW252370   4.892  11.942   3.201
50180SOL     OW52371  10.457  11.405  12.735
50180SOL    HW152372  10.368  11.439  12.727
50180SOL    HW252373  10.479  11.416  12.828
50181SOL     OW52374   5.101   0.145  10.483
50181SOL    HW152375   5.035   0.150  10.415
50181SOL    HW252376   5.122   0.052  10.490
50182SOL     OW52377  12.463   3.007   9.426
50182SOL    HW152378  12.452   3.101   9.439
50182SOL    HW252379  12.429   2.991   9.338
50183SOL     OW52380   0.483   7.012   1.766
50183SOL    HW152381   0.424   7.071   1.812
50183SOL    HW252382   0.571   7.044   1.787
50184SOL     OW52383   8.395   5.200   9.594
50184SOL    HW152384   8.305   5.230   9.609
50184SOL    HW252385   8.403   5.193   9.499
50185SOL     OW52386   5.077   0.310   3.625
50185SOL    HW152387   5.123   0.274   3.700
50185SOL    HW252388   5.144   0.317   3.557
50186SOL     OW52389  14.855   9.880   5.681
50186SOL    HW152390  14.786   9.916   5.626
50186SOL    HW252391  14.845   9.785   5.673
50187SOL     OW52392   9.156   6.608   1.560
50187SOL    HW152393   9.085   6.544   1.557
50187SOL    HW252394   9.222   6.568   1.616
50188SOL     OW52395   7.766   8.727  11.367
50188SOL    HW152396   7.789   8.640  11.400
50188SOL    HW252397   7.676   8.718  11.336
50189SOL     OW52398   6.263   5.036   4.610
50189SOL    HW152399   6.247   5.075   4.524
50189SOL    HW252400   6.355   5.054   4.628
50190SOL     OW52401  10.408   6.192   7.101
50190SOL    HW152402  10.364   6.176   7.018
50190SOL    HW252403  10.360   6.265   7.141
50191SOL     OW52404   8.086   7.208   3.955
50191SOL    HW152405   8.165   7.256   3.929
50191SOL    HW252406   8.047   7.180   3.873
50192SOL     OW52407   3.612   9.958   9.322
50192SOL    HW152408   3.665   9.904   9.263
50192SOL    HW252409   3.565  10.017   9.264
50193SOL     OW52410  14.476   1.724   9.659
50193SOL    HW152411  14.507   1.726   9.750
50193SOL    HW252412  14.529   1.656   9.617
50194SOL     OW52413   0.426   6.760   7.609
50194SOL    HW152414   0.518   6.772   7.587
50194SOL    HW252415   0.404   6.672   7.576
50195SOL     OW52416  11.950   6.662   4.957
50195SOL    HW152417  11.914   6.695   4.874
50195SOL    HW252418  11.963   6.740   5.011
50196SOL     OW52419  14.379   5.248  10.678
50196SOL    HW152420  14.407   5.270  10.767
50196SOL    HW252421  14.378   5.332  10.633
50197SOL     OW52422  12.797   5.102  13.634
50197SOL    HW152423  12.846   5.182  13.616
50197SOL    HW252424  12.789   5.099  13.729
50198SOL     OW52425  12.741  11.181  10.580
50198SOL    HW152426  12.746  11.094  10.539
50198SOL    HW252427  12.812  11.231  10.540
50199SOL     OW52428   9.606   1.255   5.762
50199SOL    HW152429   9.700   1.260   5.781
50199SOL    HW252430   9.574   1.185   5.818
50200SOL     OW52431   8.862   7.672   3.509
50200SOL    HW152432   8.833   7.728   3.581
50200SOL    HW252433   8.913   7.730   3.453
50201SOL     OW52434  14.059   7.900  12.935
50201SOL    HW152435  13.992   7.955  12.894
50201SOL    HW252436  14.086   7.839  12.866
50202SOL     OW52437   8.764  10.169   8.010
50202SOL    HW152438   8.829  10.193   7.943
50202SOL    HW252439   8.686  10.147   7.960
50203SOL     OW52440  12.187  14.391   9.689
50203SOL    HW152441  12.215  14.481   9.708
50203SOL    HW252442  12.134  14.367   9.765
50204SOL     OW52443  13.587   7.965   3.990
50204SOL    HW152444  13.505   8.005   3.963
50204SOL    HW252445  13.563   7.908   4.064
50205SOL     OW52446  11.089  14.741  12.394
50205SOL    HW152447  11.080  14.646  12.403
50205SOL    HW252448  11.003  14.775  12.418
50206SOL     OW52449  10.938   6.092  12.305
50206SOL    HW152450  10.864   6.131  12.352
50206SOL    HW252451  10.905   6.078  12.216
50207SOL     OW52452   8.616  11.610   6.644
50207SOL    HW152453   8.522  11.627   6.644
50207SOL    HW252454   8.627  11.537   6.705
50208SOL     OW52455  12.587   4.135  11.481
50208SOL    HW152456  12.509   4.190  11.483
50208SOL    HW252457  12.589   4.093  11.567
50209SOL     OW52458  12.421   7.510   6.133
50209SOL    HW152459  12.469   7.579   6.087
50209SOL    HW252460  12.396   7.449   6.064
50210SOL     OW52461   8.280   1.564   6.322
50210SOL    HW152462   8.324   1.572   6.238
50210SOL    HW252463   8.187   1.578   6.302
50211SOL     OW52464   1.625  13.156   7.721
50211SOL    HW152465   1.653  13.077   7.767
50211SOL    HW252466   1.686  13.224   7.749
50212SOL     OW52467   6.658   5.005  11.436
50212SOL    HW152468   6.654   4.918  11.474
50212SOL    HW252469   6.671   5.064  11.511
50213SOL     OW52470   9.522   2.396   7.669
50213SOL    HW152471   9.443   2.344   7.656
50213SOL    HW252472   9.561   2.360   7.748
50214SOL     OW52473  12.189  12.338   6.078
50214SOL    HW152474  12.176  12.401   6.149
50214SOL    HW252475  12.107  12.342   6.028
50215SOL     OW52476  13.542   2.249  12.371
50215SOL    HW152477  13.580   2.205  12.447
50215SOL    HW252478  13.614   2.301  12.335
50216SOL     OW52479  14.849   5.932  13.900
50216SOL    HW152480   0.068   5.922  13.913
50216SOL    HW252481  14.831   6.022  13.925
50217SOL     OW52482  12.182  11.570   2.894
50217SOL    HW152483  12.128  11.507   2.847
50217SOL    HW252484  12.158  11.655   2.857
50218SOL     OW52485   7.672   2.566   8.613
50218SOL    HW152486   7.631   2.480   8.624
50218SOL    HW252487   7.627   2.622   8.676
50219SOL     OW52488  13.900   8.112  11.641
50219SOL    HW152489  13.990   8.144  11.635
50219SOL    HW252490  13.886   8.063  11.560
50220SOL     OW52491  10.281   5.783  13.241
50220SOL    HW152492  10.350   5.723  13.213
50220SOL    HW252493  10.315   5.823  13.322
50221SOL     OW52494   5.212   4.034   7.443
50221SOL    HW152495   5.157   3.956   7.454
50221SOL    HW252496   5.184   4.070   7.359
50222SOL     OW52497  13.247   0.098   7.231
50222SOL    HW152498  13.258   0.077   7.138
50222SOL    HW252499  13.303   0.036   7.277
50223SOL     OW52500   4.887   7.267   7.999
50223SOL    HW152501   4.814   7.285   7.939
50223SOL    HW252502   4.909   7.176   7.983
50224SOL     OW52503   7.563   2.759   0.594
50224SOL    HW152504   7.570   2.697   0.667
50224SOL    HW252505   7.651   2.765   0.558
50225SOL     OW52506   7.854  10.521  11.704
50225SOL    HW152507   7.853  10.492  11.613
50225SOL    HW252508   7.908  10.600  11.704
50226SOL     OW52509   4.500   4.499  10.882
50226SOL    HW152510   4.494   4.589  10.849
50226SOL    HW252511   4.588   4.493  10.918
50227SOL     OW52512   5.797   2.676  12.246
50227SOL    HW152513   5.853   2.661  12.170
50227SOL    HW252514   5.710   2.689  12.208
50228SOL     OW52515  11.268  12.837  12.193
50228SOL    HW152516  11.256  12.771  12.262
50228SOL    HW252517  11.182  12.877  12.183
50229SOL     OW52518   2.555   1.272   3.321
50229SOL    HW152519   2.569   1.217   3.399
50229SOL    HW252520   2.570   1.213   3.248
50230SOL     OW52521  13.971  13.388   0.387
50230SOL    HW152522  14.009  13.473   0.367
50230SOL    HW252523  14.036  13.346   0.445
50231SOL     OW52524   5.340  13.815  11.296
50231SOL    HW152525   5.359  13.729  11.334
50231SOL    HW252526   5.334  13.799  11.201
50232SOL     OW52527  13.063   8.016   6.411
50232SOL    HW152528  13.053   8.104   6.447
50232SOL    HW252529  13.155   7.994   6.427
50233SOL     OW52530   5.961   0.670   7.135
50233SOL    HW152531   5.906   0.641   7.062
50233SOL    HW252532   5.900   0.713   7.196
50234SOL     OW52533  10.675  13.886   9.086
50234SOL    HW152534  10.733  13.820   9.048
50234SOL    HW252535  10.610  13.835   9.135
50235SOL     OW52536   2.108  11.972   0.008
50235SOL    HW152537   2.191  11.926   0.022
50235SOL    HW252538   2.043  11.918   0.053
50236SOL     OW52539   1.415   8.081  11.722
50236SOL    HW152540   1.446   7.998  11.686
50236SOL    HW252541   1.488   8.113  11.775
50237SOL     OW52542  10.976  10.710   5.834
50237SOL    HW152543  10.932  10.626   5.821
50237SOL    HW252544  10.938  10.744   5.916
50238SOL     OW52545   7.602   5.129   5.840
50238SOL    HW152546   7.625   5.154   5.750
50238SOL    HW252547   7.668   5.173   5.894
50239SOL     OW52548  10.212  10.661  12.282
50239SOL    HW152549  10.293  10.620  12.310
50239SOL    HW252550  10.155  10.589  12.257
50240SOL     OW52551   2.655  10.737   6.657
50240SOL    HW152552   2.572  10.699   6.684
50240SOL    HW252553   2.694  10.670   6.601
50241SOL     OW52554  12.567   7.968   6.298
50241SOL    HW152555  12.524   7.885   6.280
50241SOL    HW252556  12.541   7.991   6.387
50242SOL     OW52557  12.717   2.817   3.669
50242SOL    HW152558  12.639   2.777   3.631
50242SOL    HW252559  12.740   2.759   3.742
50243SOL     OW52560   6.069   2.266  10.677
50243SOL    HW152561   6.125   2.190  10.694
50243SOL    HW252562   6.121   2.321  10.618
50244SOL     OW52563   7.813   0.876  12.521
50244SOL    HW152564   7.886   0.846  12.468
50244SOL    HW252565   7.738   0.878  12.460
50245SOL     OW52566   3.247  11.276  14.604
50245SOL    HW152567   3.198  11.344  14.559
50245SOL    HW252568   3.211  11.273  14.692
50246SOL     OW52569  10.569   8.782   0.353
50246SOL    HW152570  10.505   8.823   0.411
50246SOL    HW252571  10.525   8.774   0.269
50247SOL     OW52572   3.799   3.183   6.862
50247SOL    HW152573   3.888   3.212   6.885
50247SOL    HW252574   3.754   3.262   6.833
50248SOL     OW52575   0.086   1.853   4.762
50248SOL    HW152576   0.103   1.944   4.740
50248SOL    HW252577   0.090   1.850   4.858
50249SOL     OW52578  13.825   0.210   5.361
50249SOL    HW152579  13.831   0.241   5.452
50249SOL    HW252580  13.794   0.285   5.312
50250SOL     OW52581   5.115   0.875   5.860
50250SOL    HW152582   5.135   0.917   5.777
50250SOL    HW252583   5.021   0.857   5.856
50251SOL     OW52584   6.845  11.292   8.220
50251SOL    HW152585   6.769  11.299   8.278
50251SOL    HW252586   6.835  11.365   8.159
50252SOL     OW52587   3.327  11.087   0.684
50252SOL    HW152588   3.253  11.102   0.742
50252SOL    HW252589   3.302  11.129   0.601
50253SOL     OW52590   2.995   2.788   2.239
50253SOL    HW152591   2.919   2.837   2.208
50253SOL    HW252592   2.966   2.751   2.323
50254SOL     OW52593   3.392  12.400   5.952
50254SOL    HW152594   3.325  12.346   5.910
50254SOL    HW252595   3.466  12.399   5.890
50255SOL     OW52596   0.522   2.206  11.520
50255SOL    HW152597   0.444   2.175  11.474
50255SOL    HW252598   0.563   2.268  11.459
50256SOL     OW52599  11.317   4.061   2.324
50256SOL    HW152600  11.390   4.056   2.262
50256SOL    HW252601  11.259   4.128   2.287
50257SOL     OW52602   7.828   1.388  12.299
50257SOL    HW152603   7.910   1.433  12.317
50257SOL    HW252604   7.786   1.441  12.231
50258SOL     OW52605   4.652   9.478   8.572
50258SOL    HW152606   4.614   9.551   8.620
50258SOL    HW252607   4.705   9.432   8.637
50259SOL     OW52608  12.304  13.219  12.532
50259SOL    HW152609  12.354  13.156  12.481
50259SOL    HW252610  12.320  13.194  12.623
50260SOL     OW52611   8.596  12.264   1.204
50260SOL    HW152612   8.598  12.351   1.244
50260SOL    HW252613   8.506  12.233   1.219
50261SOL     OW52614  14.750  12.997   5.243
50261SOL    HW152615  14.679  13.022   5.184
50261SOL    HW252616  14.720  13.027   5.329
50262SOL     OW52617   6.098  13.096   8.266
50262SOL    HW152618   6.064  13.026   8.209
50262SOL    HW252619   6.174  13.130   8.219
50263SOL     OW52620  12.120  14.436   7.023
50263SOL    HW152621  12.150  14.455   7.111
50263SOL    HW252622  12.138  14.343   7.011
50264SOL     OW52623   8.853   8.802  12.936
50264SOL    HW152624   8.795   8.870  12.902
50264SOL    HW252625   8.805   8.720  12.921
50265SOL     OW52626   6.075   9.545  11.570
50265SOL    HW152627   6.170   9.531  11.565
50265SOL    HW252628   6.037   9.465  11.532
50266SOL     OW52629   2.559  13.923   4.179
50266SOL    HW152630   2.526  13.844   4.221
50266SOL    HW252631   2.563  13.987   4.250
50267SOL     OW52632   6.741   8.081   0.349
50267SOL    HW152633   6.692   8.001   0.331
50267SOL    HW252634   6.681   8.136   0.399
50268SOL     OW52635   6.092   4.586   6.997
50268SOL    HW152636   6.125   4.506   6.957
50268SOL    HW252637   6.159   4.652   6.979
50269SOL     OW52638   0.627   7.154  13.497
50269SOL    HW152639   0.685   7.082  13.472
50269SOL    HW252640   0.686   7.228  13.510
50270SOL     OW52641   3.862   2.883   2.151
50270SOL    HW152642   3.899   2.965   2.183
50270SOL    HW252643   3.802   2.855   2.220
50271SOL     OW52644   9.072   4.487   4.695
50271SOL    HW152645   9.132   4.414   4.682
50271SOL    HW252646   8.999   4.451   4.745
50272SOL     OW52647   9.988   8.894   8.651
50272SOL    HW152648  10.052   8.875   8.582
50272SOL    HW252649   9.952   8.980   8.627
50273SOL     OW52650   2.416   2.640  11.967
50273SOL    HW152651   2.354   2.708  11.995
50273SOL    HW252652   2.388   2.617  11.879
50274SOL     OW52653   0.206   7.909   7.745
50274SOL    HW152654   0.199   7.822   7.706
50274SOL    HW252655   0.127   7.954   7.717
50275SOL     OW52656  13.599   8.009  11.432
50275SOL    HW152657  13.610   8.085  11.490
50275SOL    HW252658  13.512   8.021  11.395
50276SOL     OW52659  14.753   2.557   5.454
50276SOL    HW152660  14.820   2.531   5.391
50276SOL    HW252661  14.673   2.514   5.424
50277SOL     OW52662   2.322   3.423   6.081
50277SOL    HW152663   2.374   3.379   6.013
50277SOL    HW252664   2.359   3.391   6.163
50278SOL     OW52665  14.691   7.648  13.691
50278SOL    HW152666  14.644   7.567  13.711
50278SOL    HW252667  14.708   7.688  13.776
50279SOL     OW52668  11.943   5.753   4.639
50279SOL    HW152669  11.926   5.846   4.622
50279SOL    HW252670  11.870   5.726   4.694
50280SOL     OW52671  11.660   8.051   7.108
50280SOL    HW152672  11.567   8.026   7.104
50280SOL    HW252673  11.684   8.036   7.199
50281SOL     OW52674   9.689   5.670  14.409
50281SOL    HW152675   9.717   5.762  14.410
50281SOL    HW252676   9.688   5.646  14.316
50282SOL     OW52677  14.806  12.426   6.933
50282SOL    HW152678  14.776  12.418   6.842
50282SOL    HW252679  14.847  12.342   6.953
50283SOL     OW52680   2.772   1.810   6.979
50283SOL    HW152681   2.865   1.828   6.961
50283SOL    HW252682   2.774   1.736   7.039
50284SOL     OW52683   4.126   4.357  10.191
50284SOL    HW152684   4.134   4.452  10.194
50284SOL    HW252685   4.046   4.337  10.240
50285SOL     OW52686   2.297   4.067   8.329
50285SOL    HW152687   2.336   4.150   8.304
50285SOL    HW252688   2.291   4.017   8.247
50286SOL     OW52689  14.114   3.774   4.089
50286SOL    HW152690  14.087   3.864   4.109
50286SOL    HW252691  14.045   3.740   4.032
50287SOL     OW52692   4.040   5.186   9.902
50287SOL    HW152693   4.087   5.251   9.850
50287SOL    HW252694   4.050   5.217   9.992
50288SOL     OW52695   2.007   0.808   2.917
50288SOL    HW152696   2.071   0.737   2.914
50288SOL    HW252697   2.059   0.887   2.932
50289SOL     OW52698   0.376   7.151  12.155
50289SOL    HW152699   0.395   7.184  12.067
50289SOL    HW252700   0.281   7.143  12.158
50290SOL     OW52701   8.145   7.844   8.870
50290SOL    HW152702   8.215   7.798   8.823
50290SOL    HW252703   8.190   7.887   8.943
50291SOL     OW52704   0.281   5.431   1.279
50291SOL    HW152705   0.296   5.525   1.274
50291SOL    HW252706   0.300   5.408   1.370
50292SOL     OW52707   8.731   3.280   5.936
50292SOL    HW152708   8.779   3.253   5.858
50292SOL    HW252709   8.785   3.348   5.976
50293SOL     OW52710   3.779   1.425   7.727
50293SOL    HW152711   3.703   1.449   7.781
50293SOL    HW252712   3.842   1.495   7.741
50294SOL     OW52713   0.308   3.264   9.648
50294SOL    HW152714   0.243   3.244   9.581
50294SOL    HW252715   0.264   3.246   9.731
50295SOL     OW52716  12.499   9.134   3.574
50295SOL    HW152717  12.410   9.166   3.584
50295SOL    HW252718  12.545   9.205   3.529
50296SOL     OW52719   8.471   9.582   2.279
50296SOL    HW152720   8.381   9.569   2.249
50296SOL    HW252721   8.525   9.547   2.208
50297SOL     OW52722   5.687   8.970   0.263
50297SOL    HW152723   5.724   9.025   0.332
50297SOL    HW252724   5.595   8.996   0.258
50298SOL     OW52725   9.825   7.345   6.252
50298SOL    HW152726   9.874   7.263   6.246
50298SOL    HW252727   9.853   7.395   6.175
50299SOL     OW52728   3.444   8.787   8.009
50299SOL    HW152729   3.483   8.856   8.063
50299SOL    HW252730   3.399   8.730   8.071
50300SOL     OW52731  11.616   6.266   1.678
50300SOL    HW152732  11.521   6.275   1.676
50300SOL    HW252733  11.632   6.173   1.660
50301SOL     OW52734   6.057   4.901   3.643
50301SOL    HW152735   6.059   4.840   3.717
50301SOL    HW252736   6.145   4.894   3.605
50302SOL     OW52737   8.664   2.297  11.112
50302SOL    HW152738   8.684   2.219  11.060
50302SOL    HW252739   8.682   2.271  11.202
50303SOL     OW52740  11.328   7.411   7.536
50303SOL    HW152741  11.376   7.438   7.614
50303SOL    HW252742  11.341   7.316   7.532
50304SOL     OW52743   6.855   3.931   9.192
50304SOL    HW152744   6.888   3.877   9.119
50304SOL    HW252745   6.786   3.984   9.152
50305SOL     OW52746  12.401   9.662   5.250
50305SOL    HW152747  12.322   9.702   5.213
50305SOL    HW252748  12.442   9.617   5.176
50306SOL     OW52749   1.834   5.808  14.757
50306SOL    HW152750   1.797   5.890  14.725
50306SOL    HW252751   1.801   5.800  14.847
50307SOL     OW52752   8.915   3.369   5.663
50307SOL    HW152753   8.959   3.287   5.684
50307SOL    HW252754   8.941   3.388   5.573
50308SOL     OW52755   2.592   9.345   5.327
50308SOL    HW152756   2.668   9.290   5.345
50308SOL    HW252757   2.582   9.399   5.405
50309SOL     OW52758   9.927   5.877   1.596
50309SOL    HW152759   9.836   5.849   1.610
50309SOL    HW252760   9.919   5.963   1.554
50310SOL     OW52761  12.200   6.920  11.052
50310SOL    HW152762  12.190   6.866  10.974
50310SOL    HW252763  12.112   6.954  11.069
50311SOL     OW52764  10.897   3.472   0.892
50311SOL    HW152765  10.856   3.559   0.897
50311SOL    HW252766  10.891   3.437   0.981
50312SOL     OW52767   6.337  13.658   9.104
50312SOL    HW152768   6.429  13.652   9.081
50312SOL    HW252769   6.316  13.751   9.095
50313SOL     OW52770   1.940   0.148   9.323
50313SOL    HW152771   1.869   0.083   9.319
50313SOL    HW252772   1.904   0.220   9.374
50314SOL     OW52773   1.976   3.367  10.079
50314SOL    HW152774   1.949   3.308  10.149
50314SOL    HW252775   2.072   3.365  10.081
50315SOL     OW52776   3.564  10.995   1.039
50315SOL    HW152777   3.659  10.982   1.032
50315SOL    HW252778   3.536  11.004   0.948
50316SOL     OW52779  11.286   8.751   6.198
50316SOL    HW152780  11.306   8.755   6.104
50316SOL    HW252781  11.191   8.745   6.202
50317SOL     OW52782  10.827   5.307  14.678
50317SOL    HW152783  10.790   5.219  14.690
50317SOL    HW252784  10.856   5.308  14.587
50318SOL     OW52785   1.897   2.896   9.483
50318SOL    HW152786   1.963   2.958   9.514
50318SOL    HW252787   1.880   2.922   9.393
50319SOL     OW52788   2.267  14.656   4.504
50319SOL    HW152789   2.351  14.701   4.517
50319SOL    HW252790   2.235  14.690   4.420
50320SOL     OW52791  11.173   1.915  14.534
50320SOL    HW152792  11.245   1.976  14.520
50320SOL    HW252793  11.196   1.839  14.480
50321SOL     OW52794   6.809   0.609   2.124
50321SOL    HW152795   6.843   0.561   2.048
50321SOL    HW252796   6.876   0.598   2.192
50322SOL     OW52797  10.889   7.975   8.245
50322SOL    HW152798  10.951   8.006   8.311
50322SOL    HW252799  10.940   7.918   8.188
50323SOL     OW52800  11.045   9.381  13.206
50323SOL    HW152801  11.094   9.431  13.271
50323SOL    HW252802  11.098   9.303  13.191
50324SOL     OW52803  12.902   9.664   2.498
50324SOL    HW152804  12.871   9.591   2.552
50324SOL    HW252805  12.906   9.628   2.409
50325SOL     OW52806   9.420   2.386  12.199
50325SOL    HW152807   9.372   2.345  12.271
50325SOL    HW252808   9.378   2.353  12.120
50326SOL     OW52809   8.714   6.154   8.095
50326SOL    HW152810   8.770   6.147   8.018
50326SOL    HW252811   8.770   6.188   8.164
50327SOL     OW52812  14.259  12.203   9.495
50327SOL    HW152813  14.250  12.283   9.442
50327SOL    HW252814  14.223  12.226   9.580
50328SOL     OW52815   8.841   7.528   0.702
50328SOL    HW152816   8.828   7.559   0.792
50328SOL    HW252817   8.818   7.603   0.648
50329SOL     OW52818  13.668   1.315   1.104
50329SOL    HW152819  13.661   1.221   1.116
50329SOL    HW252820  13.632   1.353   1.183
50330SOL     OW52821   0.629   5.646   7.903
50330SOL    HW152822   0.710   5.614   7.943
50330SOL    HW252823   0.657   5.683   7.819
50331SOL     OW52824   4.466   4.576   0.387
50331SOL    HW152825   4.398   4.641   0.366
50331SOL    HW252826   4.446   4.501   0.330
50332SOL     OW52827   5.186  12.737  13.271
50332SOL    HW152828   5.101  12.731  13.227
50332SOL    HW252829   5.245  12.685  13.216
50333SOL     OW52830  10.422   7.201   4.044
50333SOL    HW152831  10.450   7.123   4.092
50333SOL    HW252832  10.326   7.198   4.048
50334SOL     OW52833   4.809  13.900  12.275
50334SOL    HW152834   4.804  13.812  12.311
50334SOL    HW252835   4.743  13.902  12.206
50335SOL     OW52836  11.022   3.287  13.247
50335SOL    HW152837  10.996   3.379  13.251
50335SOL    HW252838  11.084   3.283  13.175
50336SOL     OW52839  13.369  11.841   3.756
50336SOL    HW152840  13.303  11.820   3.690
50336SOL    HW252841  13.350  11.781   3.828
50337SOL     OW52842   4.401   1.317   1.291
50337SOL    HW152843   4.443   1.264   1.359
50337SOL    HW252844   4.349   1.382   1.340
50338SOL     OW52845   5.460   4.179  10.438
50338SOL    HW152846   5.483   4.098  10.483
50338SOL    HW252847   5.526   4.187  10.368
50339SOL     OW52848   0.126  14.457   6.611
50339SOL    HW152849   0.186  14.430   6.681
50339SOL    HW252850   0.080  14.376   6.587
50340SOL     OW52851  10.751   4.230  11.229
50340SOL    HW152852  10.718   4.320  11.242
50340SOL    HW252853  10.672   4.178  11.218
50341SOL     OW52854  14.832   7.577   7.830
50341SOL    HW152855  14.842   7.609   7.920
50341SOL    HW252856   0.025   7.622   7.781
50342SOL     OW52857   0.483   8.271   5.817
50342SOL    HW152858   0.403   8.266   5.869
50342SOL    HW252859   0.535   8.197   5.847
50343SOL     OW52860   7.544   9.476   3.940
50343SOL    HW152861   7.616   9.468   3.878
50343SOL    HW252862   7.571   9.424   4.016
50344SOL     OW52863   4.999   2.527   1.269
50344SOL    HW152864   5.030   2.596   1.329
50344SOL    HW252865   4.923   2.566   1.225
50345SOL     OW52866  11.238  11.771   4.505
50345SOL    HW152867  11.270  11.859   4.522
50345SOL    HW252868  11.290  11.740   4.431
50346SOL     OW52869   1.621  14.240   1.962
50346SOL    HW152870   1.601  14.317   2.016
50346SOL    HW252871   1.676  14.185   2.018
50347SOL     OW52872  10.262   3.635   1.089
50347SOL    HW152873  10.246   3.646   0.995
50347SOL    HW252874  10.337   3.691   1.107
50348SOL     OW52875   5.071  12.934   1.017
50348SOL    HW152876   5.023  12.854   1.041
50348SOL    HW252877   5.035  13.002   1.074
50349SOL     OW52878   3.449  10.423   1.201
50349SOL    HW152879   3.519  10.398   1.262
50349SOL    HW252880   3.377  10.448   1.258
50350SOL     OW52881   7.004   3.332  13.967
50350SOL    HW152882   7.006   3.427  13.977
50350SOL    HW252883   7.005   3.298  14.056
50351SOL     OW52884  10.604   3.970  13.347
50351SOL    HW152885  10.524   4.002  13.388
50351SOL    HW252886  10.577   3.948  13.257
50352SOL     OW52887   9.304   3.631  10.171
50352SOL    HW152888   9.231   3.651  10.111
50352SOL    HW252889   9.264   3.631  10.258
50353SOL     OW52890   0.909   7.111   0.499
50353SOL    HW152891   0.887   7.082   0.411
50353SOL    HW252892   0.825   7.118   0.544
50354SOL     OW52893  10.856   3.274   7.083
50354SOL    HW152894  10.948   3.282   7.108
50354SOL    HW252895  10.823   3.202   7.137
50355SOL     OW52896   6.531   4.413   3.413
50355SOL    HW152897   6.569   4.486   3.364
50355SOL    HW252898   6.436   4.424   3.402
50356SOL     OW52899   3.000   5.190   3.494
50356SOL    HW152900   3.034   5.279   3.501
50356SOL    HW252901   2.985   5.162   3.584
50357SOL     OW52902   4.597   1.811   3.015
50357SOL    HW152903   4.518   1.759   3.033
50357SOL    HW252904   4.611   1.801   2.921
50358SOL     OW52905   4.916  12.136   4.850
50358SOL    HW152906   4.972  12.060   4.868
50358SOL    HW252907   4.841  12.101   4.804
50359SOL     OW52908   1.520  14.849   3.422
50359SOL    HW152909   1.452  14.812   3.478
50359SOL    HW252910   1.567  14.772   3.388
50360SOL     OW52911  13.540   5.735  12.031
50360SOL    HW152912  13.471   5.674  12.059
50360SOL    HW252913  13.613   5.716  12.089
50361SOL     OW52914   7.888   0.936   8.837
50361SOL    HW152915   7.948   0.868   8.807
50361SOL    HW252916   7.863   0.984   8.758
50362SOL     OW52917   8.247   7.367   3.629
50362SOL    HW152918   8.163   7.411   3.615
50362SOL    HW252919   8.268   7.327   3.544
50363SOL     OW52920   3.877   3.625   5.414
50363SOL    HW152921   3.812   3.676   5.365
50363SOL    HW252922   3.923   3.690   5.467
50364SOL     OW52923   0.665  10.577  10.509
50364SOL    HW152924   0.652  10.625  10.427
50364SOL    HW252925   0.698  10.643  10.570
50365SOL     OW52926  14.313   9.609   7.538
50365SOL    HW152927  14.343   9.700   7.541
50365SOL    HW252928  14.251   9.603   7.611
50366SOL     OW52929   7.245  10.050   3.204
50366SOL    HW152930   7.202  10.053   3.290
50366SOL    HW252931   7.229  10.137   3.167
50367SOL     OW52932   5.632   3.924   5.136
50367SOL    HW152933   5.608   3.832   5.140
50367SOL    HW252934   5.728   3.923   5.138
50368SOL     OW52935   5.334  13.081  12.549
50368SOL    HW152936   5.272  13.130  12.496
50368SOL    HW252937   5.417  13.128  12.540
50369SOL     OW52938  13.303  14.430  10.203
50369SOL    HW152939  13.231  14.390  10.155
50369SOL    HW252940  13.294  14.396  10.293
50370SOL     OW52941  14.457  14.436   8.972
50370SOL    HW152942  14.476  14.349   8.936
50370SOL    HW252943  14.522  14.446   9.043
50371SOL     OW52944   6.863  10.793  13.346
50371SOL    HW152945   6.950  10.832  13.356
50371SOL    HW252946   6.821  10.807  13.431
50372SOL     OW52947   8.003  12.460   0.605
50372SOL    HW152948   7.921  12.436   0.562
50372SOL    HW252949   8.072  12.421   0.551
50373SOL     OW52950  11.573  12.056  10.441
50373SOL    HW152951  11.584  12.115  10.366
50373SOL    HW252952  11.576  12.114  10.517
50374SOL     OW52953  10.751   8.369  14.188
50374SOL    HW152954  10.803   8.371  14.108
50374SOL    HW252955  10.687   8.440  14.177
50375SOL     OW52956   6.221   2.752  10.476
50375SOL    HW152957   6.258   2.819  10.533
50375SOL    HW252958   6.162   2.800  10.418
50376SOL     OW52959  12.248   5.366   5.114
50376SOL    HW152960  12.327   5.360   5.166
50376SOL    HW252961  12.204   5.282   5.126
50377SOL     OW52962   9.244   5.071   0.166
50377SOL    HW152963   9.287   5.071   0.251
50377SOL    HW252964   9.316   5.077   0.102
50378SOL     OW52965   4.051   7.339   3.120
50378SOL    HW152966   3.998   7.382   3.188
50378SOL    HW252967   4.061   7.406   3.052
50379SOL     OW52968   0.451  10.883   9.610
50379SOL    HW152969   0.540  10.849   9.606
50379SOL    HW252970   0.397  10.812   9.573
50380SOL     OW52971  10.316   1.015   0.614
50380SOL    HW152972  10.306   0.928   0.576
50380SOL    HW252973  10.233   1.059   0.593
50381SOL     OW52974  14.370  13.069   0.922
50381SOL    HW152975  14.414  13.143   0.881
50381SOL    HW252976  14.294  13.052   0.866
50382SOL     OW52977  12.725   9.865   3.163
50382SOL    HW152978  12.760   9.927   3.226
50382SOL    HW252979  12.638   9.898   3.142
50383SOL     OW52980   8.977  14.489   8.372
50383SOL    HW152981   8.889  14.453   8.359
50383SOL    HW252982   8.977  14.519   8.463
50384SOL     OW52983  14.223   5.106  13.641
50384SOL    HW152984  14.148   5.052  13.665
50384SOL    HW252985  14.201   5.140  13.555
50385SOL     OW52986   8.039   2.860   4.836
50385SOL    HW152987   7.951   2.872   4.801
50385SOL    HW252988   8.080   2.946   4.830
50386SOL     OW52989   0.128   2.732   7.508
50386SOL    HW152990   0.110   2.779   7.427
50386SOL    HW252991   0.104   2.641   7.489
50387SOL     OW52992  12.319   2.106   5.575
50387SOL    HW152993  12.286   2.064   5.654
50387SOL    HW252994  12.294   2.198   5.583
50388SOL     OW52995   8.457   1.867   6.369
50388SOL    HW152996   8.483   1.849   6.279
50388SOL    HW252997   8.367   1.900   6.362
50389SOL     OW52998   4.572   5.705   8.247
50389SOL    HW152999   4.480   5.715   8.272
50389SOL    HW253000   4.573   5.626   8.193
50390SOL     OW53001   4.486  13.887  13.982
50390SOL    HW153002   4.425  13.813  13.986
50390SOL    HW253003   4.523  13.883  13.894
50391SOL     OW53004   3.072   6.527   7.140
50391SOL    HW153005   3.000   6.575   7.100
50391SOL    HW253006   3.072   6.554   7.232
50392SOL     OW53007  12.004   5.506  13.731
50392SOL    HW153008  11.933   5.569  13.741
50392SOL    HW253009  12.079   5.547  13.773
50393SOL     OW53010  12.716   5.016  14.839
50393SOL    HW153011  12.655   4.965   0.016
50393SOL    HW253012  12.803   4.994  14.874
50394SOL     OW53013   5.442   7.946   7.771
50394SOL    HW153014   5.491   7.906   7.843
50394SOL    HW253015   5.476   7.902   7.693
50395SOL     OW53016  11.057   0.679  12.365
50395SOL    HW153017  11.060   0.586  12.385
50395SOL    HW253018  11.026   0.721  12.445
50396SOL     OW53019   3.081   3.020   6.961
50396SOL    HW153020   3.005   3.059   7.003
50396SOL    HW253021   3.151   3.084   6.972
50397SOL     OW53022   4.608   9.502   5.392
50397SOL    HW153023   4.684   9.513   5.450
50397SOL    HW253024   4.556   9.580   5.407
50398SOL     OW53025  12.537   0.151   9.456
50398SOL    HW153026  12.466   0.122   9.513
50398SOL    HW253027  12.583   0.218   9.507
50399SOL     OW53028   3.992   6.916   6.649
50399SOL    HW153029   3.898   6.929   6.640
50399SOL    HW253030   4.003   6.821   6.644
50400SOL     OW53031  11.767  13.049   1.524
50400SOL    HW153032  11.676  13.060   1.497
50400SOL    HW253033  11.761  13.008   1.611
50401SOL     OW53034  10.476  13.323   8.437
50401SOL    HW153035  10.527  13.268   8.497
50401SOL    HW253036  10.417  13.372   8.494
50402SOL     OW53037  13.753   8.646  13.069
50402SOL    HW153038  13.670   8.688  13.048
50402SOL    HW253039  13.732   8.553  13.076
50403SOL     OW53040   4.485  11.489   5.346
50403SOL    HW153041   4.503  11.543   5.422
50403SOL    HW253042   4.533  11.530   5.275
50404SOL     OW53043  12.335  13.641   2.129
50404SOL    HW153044  12.393  13.709   2.094
50404SOL    HW253045  12.318  13.668   2.219
50405SOL     OW53046   4.688  11.449   6.116
50405SOL    HW153047   4.615  11.509   6.128
50405SOL    HW253048   4.658  11.387   6.049
50406SOL     OW53049  10.069  14.486   8.885
50406SOL    HW153050  10.092  14.427   8.813
50406SOL    HW253051  10.105  14.443   8.963
50407SOL     OW53052   6.341   8.928  14.092
50407SOL    HW153053   6.435   8.934  14.109
50407SOL    HW253054   6.325   8.835  14.081
50408SOL     OW53055  14.039   1.689  13.496
50408SOL    HW153056  13.999   1.773  13.519
50408SOL    HW253057  14.128   1.712  13.470
50409SOL     OW53058  11.586   8.738   3.886
50409SOL    HW153059  11.546   8.821   3.856
50409SOL    HW253060  11.637   8.708   3.811
50410SOL     OW53061  13.438  13.557   6.635
50410SOL    HW153062  13.440  13.531   6.727
50410SOL    HW253063  13.452  13.651   6.636
50411SOL     OW53064   2.245   6.782   1.060
50411SOL    HW153065   2.248   6.877   1.047
50411SOL    HW253066   2.152   6.763   1.073
50412SOL     OW53067   1.716  12.990   6.996
50412SOL    HW153068   1.708  13.022   7.085
50412SOL    HW253069   1.697  12.896   7.003
50413SOL     OW53070   8.954   8.392  11.695
50413SOL    HW153071   8.882   8.451  11.720
50413SOL    HW253072   8.949   8.320  11.758
50414SOL     OW53073   4.634   8.325   5.425
50414SOL    HW153074   4.637   8.389   5.355
50414SOL    HW253075   4.712   8.270   5.412
50415SOL     OW53076   4.844   9.598  10.686
50415SOL    HW153077   4.842   9.620  10.593
50415SOL    HW253078   4.887   9.672  10.728
50416SOL     OW53079   4.176   1.846  10.413
50416SOL    HW153080   4.165   1.939  10.396
50416SOL    HW253081   4.267   1.836  10.439
50417SOL     OW53082   5.071   6.182  14.393
50417SOL    HW153083   5.103   6.173  14.482
50417SOL    HW253084   5.051   6.093  14.365
50418SOL     OW53085   1.356   0.501  13.642
50418SOL    HW153086   1.306   0.451  13.577
50418SOL    HW253087   1.443   0.462  13.640
50419SOL     OW53088   6.268  12.859   8.731
50419SOL    HW153089   6.185  12.873   8.685
50419SOL    HW253090   6.256  12.776   8.778
50420SOL     OW53091  11.941  12.292   0.859
50420SOL    HW153092  12.029  12.291   0.896
50420SOL    HW253093  11.894  12.223   0.907
50421SOL     OW53094   2.701   9.759   6.383
50421SOL    HW153095   2.782   9.719   6.413
50421SOL    HW253096   2.688   9.723   6.295
50422SOL     OW53097   1.779   4.081  10.963
50422SOL    HW153098   1.695   4.085  11.009
50422SOL    HW253099   1.755   4.057  10.874
50423SOL     OW53100  10.847   2.306   3.069
50423SOL    HW153101  10.939   2.332   3.070
50423SOL    HW253102  10.843   2.230   3.012
50424SOL     OW53103   2.009   7.489   8.543
50424SOL    HW153104   1.961   7.430   8.601
50424SOL    HW253105   2.081   7.436   8.510
50425SOL     OW53106   5.897   6.046   0.727
50425SOL    HW153107   5.836   6.115   0.703
50425SOL    HW253108   5.886   6.037   0.822
50426SOL     OW53109   5.446  13.659  13.502
50426SOL    HW153110   5.403  13.580  13.536
50426SOL    HW253111   5.388  13.730  13.530
50427SOL     OW53112   5.020   9.483   6.331
50427SOL    HW153113   4.993   9.406   6.283
50427SOL    HW253114   4.985   9.557   6.280
50428SOL     OW53115   8.408  14.608  11.565
50428SOL    HW153116   8.488  14.617  11.513
50428SOL    HW253117   8.360  14.537  11.524
50429SOL     OW53118   0.087   2.582  14.785
50429SOL    HW153119   0.171   2.538  14.772
50429SOL    HW253120   0.022   2.516  14.763
50430SOL     OW53121  10.609   4.906   8.690
50430SOL    HW153122  10.696   4.874   8.713
50430SOL    HW253123  10.585   4.964   8.763
50431SOL     OW53124  13.416   3.612   0.036
50431SOL    HW153125  13.483   3.563  14.865
50431SOL    HW253126  13.349   3.630  14.846
50432SOL     OW53127  12.253   3.613   8.174
50432SOL    HW153128  12.345   3.587   8.179
50432SOL    HW253129  12.213   3.574   8.251
50433SOL     OW53130   8.573   7.273   6.236
50433SOL    HW153131   8.535   7.244   6.153
50433SOL    HW253132   8.498   7.309   6.285
50434SOL     OW53133  14.199  13.386   3.874
50434SOL    HW153134  14.284  13.352   3.902
50434SOL    HW253135  14.210  13.481   3.871
50435SOL     OW53136   5.541   1.614   2.964
50435SOL    HW153137   5.525   1.659   3.046
50435SOL    HW253138   5.540   1.521   2.987
50436SOL     OW53139  11.970   4.174   9.455
50436SOL    HW153140  11.916   4.124   9.394
50436SOL    HW253141  11.912   4.195   9.528
50437SOL     OW53142   3.031  12.512  12.850
50437SOL    HW153143   3.042  12.470  12.764
50437SOL    HW253144   3.025  12.605  12.830
50438SOL     OW53145   5.270   9.157   3.278
50438SOL    HW153146   5.181   9.139   3.309
50438SOL    HW253147   5.259   9.224   3.211
50439SOL     OW53148  14.540  13.044   3.831
50439SOL    HW153149  14.524  13.083   3.745
50439SOL    HW253150  14.467  12.983   3.843
50440SOL     OW53151   5.280  11.265   0.188
50440SOL    HW153152   5.242  11.212   0.258
50440SOL    HW253153   5.252  11.355   0.209
50441SOL     OW53154   7.572  13.727   9.259
50441SOL    HW153155   7.646  13.740   9.317
50441SOL    HW253156   7.583  13.638   9.225
50442SOL     OW53157  10.294  10.932   5.542
50442SOL    HW153158  10.281  10.849   5.589
50442SOL    HW253159  10.388  10.950   5.553
50443SOL     OW53160   6.351   0.715   9.813
50443SOL    HW153161   6.329   0.663   9.890
50443SOL    HW253162   6.269   0.721   9.764
50444SOL     OW53163   7.327   4.108  13.174
50444SOL    HW153164   7.272   4.172  13.128
50444SOL    HW253165   7.416   4.139  13.161
50445SOL     OW53166  13.819   2.750   6.714
50445SOL    HW153167  13.889   2.686   6.701
50445SOL    HW253168  13.842   2.823   6.656
50446SOL     OW53169  12.909   1.168   5.128
50446SOL    HW153170  12.865   1.089   5.099
50446SOL    HW253171  12.844   1.238   5.117
50447SOL     OW53172  14.066   6.090   2.443
50447SOL    HW153173  14.004   6.162   2.428
50447SOL    HW253174  14.010   6.015   2.463
50448SOL     OW53175   7.655   1.238  10.554
50448SOL    HW153176   7.699   1.315  10.591
50448SOL    HW253177   7.690   1.233  10.465
50449SOL     OW53178   3.655   1.720  11.443
50449SOL    HW153179   3.609   1.722  11.527
50449SOL    HW253180   3.612   1.651  11.393
50450SOL     OW53181   1.012  14.507   1.315
50450SOL    HW153182   1.097  14.464   1.306
50450SOL    HW253183   1.027  14.577   1.379
50451SOL     OW53184   6.874   5.732  12.700
50451SOL    HW153185   6.880   5.737  12.796
50451SOL    HW253186   6.906   5.644  12.679
50452SOL     OW53187   9.424  14.113   6.533
50452SOL    HW153188   9.422  14.072   6.446
50452SOL    HW253189   9.512  14.094   6.566
50453SOL     OW53190   7.293   7.668   0.922
50453SOL    HW153191   7.366   7.610   0.898
50453SOL    HW253192   7.227   7.652   0.855
50454SOL     OW53193   7.933   5.861  12.278
50454SOL    HW153194   7.896   5.940  12.238
50454SOL    HW253195   7.986   5.822  12.208
50455SOL     OW53196   5.029   6.375   9.076
50455SOL    HW153197   5.116   6.414   9.084
50455SOL    HW253198   4.974   6.446   9.045
50456SOL     OW53199  14.427   2.912   8.371
50456SOL    HW153200  14.428   2.995   8.323
50456SOL    HW253201  14.431   2.938   8.463
50457SOL     OW53202   0.911   5.249   2.818
50457SOL    HW153203   0.871   5.321   2.767
50457SOL    HW253204   0.849   5.177   2.809
50458SOL     OW53205   6.463   5.806   2.847
50458SOL    HW153206   6.551   5.833   2.872
50458SOL    HW253207   6.406   5.841   2.915
50459SOL     OW53208  14.518   9.242   9.471
50459SOL    HW153209  14.516   9.283   9.385
50459SOL    HW253210  14.601   9.272   9.509
50460SOL     OW53211  11.608   5.295  11.461
50460SOL    HW153212  11.674   5.365  11.459
50460SOL    HW253213  11.556   5.308  11.383
50461SOL     OW53214  13.739   8.362   7.322
50461SOL    HW153215  13.710   8.278   7.286
50461SOL    HW253216  13.686   8.373   7.401
50462SOL     OW53217   3.657   1.980   6.166
50462SOL    HW153218   3.625   1.911   6.107
50462SOL    HW253219   3.717   1.936   6.225
50463SOL     OW53220   6.510   2.631   5.310
50463SOL    HW153221   6.520   2.715   5.353
50463SOL    HW253222   6.488   2.570   5.380
50464SOL     OW53223  11.414   4.964   6.966
50464SOL    HW153224  11.350   5.004   7.024
50464SOL    HW253225  11.368   4.890   6.926
50465SOL     OW53226   4.606   0.378   1.266
50465SOL    HW153227   4.573   0.356   1.352
50465SOL    HW253228   4.528   0.387   1.211
50466SOL     OW53229  12.551   5.667   1.759
50466SOL    HW153230  12.460   5.689   1.780
50466SOL    HW253231  12.586   5.747   1.718
50467SOL     OW53232  12.161  12.409   6.650
50467SOL    HW153233  12.087  12.468   6.668
50467SOL    HW253234  12.126  12.345   6.588
50468SOL     OW53235   7.930   1.239  14.494
50468SOL    HW153236   7.926   1.303  14.565
50468SOL    HW253237   7.946   1.156  14.538
50469SOL     OW53238   3.462   8.560  10.072
50469SOL    HW153239   3.404   8.495  10.111
50469SOL    HW253240   3.430   8.644  10.105
50470SOL     OW53241  10.775  13.352  12.481
50470SOL    HW153242  10.798  13.385  12.395
50470SOL    HW253243  10.852  13.368  12.535
50471SOL     OW53244   4.944  13.227   8.573
50471SOL    HW153245   4.871  13.175   8.607
50471SOL    HW253246   5.014  13.215   8.637
50472SOL     OW53247   4.532   8.761   4.435
50472SOL    HW153248   4.582   8.773   4.516
50472SOL    HW253249   4.594   8.719   4.375
50473SOL     OW53250   7.669  12.302   4.041
50473SOL    HW153251   7.702  12.219   4.074
50473SOL    HW253252   7.660  12.288   3.946
50474SOL     OW53253  12.635  13.922   5.056
50474SOL    HW153254  12.544  13.917   5.084
50474SOL    HW253255  12.645  13.852   4.992
50475SOL     OW53256   3.392   8.580  13.944
50475SOL    HW153257   3.393   8.512  14.010
50475SOL    HW253258   3.369   8.535  13.863
50476SOL     OW53259   7.363  13.079   8.683
50476SOL    HW153260   7.281  13.088   8.731
50476SOL    HW253261   7.430  13.075   8.751
50477SOL     OW53262   0.181  12.044   4.909
50477SOL    HW153263   0.162  12.105   4.838
50477SOL    HW253264   0.152  12.089   4.988
50478SOL     OW53265   2.158   6.508   4.293
50478SOL    HW153266   2.253   6.510   4.292
50478SOL    HW253267   2.135   6.428   4.247
50479SOL     OW53268   5.520   7.755  13.607
50479SOL    HW153269   5.430   7.745  13.576
50479SOL    HW253270   5.564   7.675  13.579
50480SOL     OW53271   0.900   5.237   7.492
50480SOL    HW153272   0.980   5.185   7.498
50480SOL    HW253273   0.844   5.202   7.562
50481SOL     OW53274   7.032   8.327   1.799
50481SOL    HW153275   7.000   8.415   1.780
50481SOL    HW253276   6.953   8.273   1.803
50482SOL     OW53277   4.320   6.794   8.259
50482SOL    HW153278   4.369   6.712   8.267
50482SOL    HW253279   4.337   6.824   8.170
50483SOL     OW53280   3.272   0.011  11.424
50483SOL    HW153281   3.257  14.797  11.396
50483SOL    HW253282   3.199   0.031  11.482
50484SOL     OW53283   5.634  10.025  12.188
50484SOL    HW153284   5.554  10.034  12.240
50484SOL    HW253285   5.641  10.108  12.141
50485SOL     OW53286  14.017   7.027  10.810
50485SOL    HW153287  14.035   6.937  10.781
50485SOL    HW253288  13.947   7.057  10.752
50486SOL     OW53289   6.235  12.701   1.281
50486SOL    HW153290   6.157  12.703   1.226
50486SOL    HW253291   6.263  12.610   1.280
50487SOL     OW53292   4.956  11.982  13.864
50487SOL    HW153293   4.925  11.940  13.944
50487SOL    HW253294   4.934  11.919  13.795
50488SOL     OW53295   7.189   6.462  10.612
50488SOL    HW153296   7.260   6.418  10.565
50488SOL    HW253297   7.167   6.538  10.557
50489SOL     OW53298   5.431   3.025  10.249
50489SOL    HW153299   5.521   3.048  10.226
50489SOL    HW253300   5.410   3.080  10.324
50490SOL     OW53301  14.665   0.812   2.125
50490SOL    HW153302  14.635   0.852   2.207
50490SOL    HW253303  14.596   0.750   2.101
50491SOL     OW53304  11.217   8.452   5.963
50491SOL    HW153305  11.186   8.386   5.901
50491SOL    HW253306  11.163   8.529   5.945
50492SOL     OW53307   8.547   5.901  13.399
50492SOL    HW153308   8.617   5.910  13.335
50492SOL    HW253309   8.590   5.911  13.484
50493SOL     OW53310   5.179  11.411  10.457
50493SOL    HW153311   5.224  11.420  10.541
50493SOL    HW253312   5.192  11.496  10.414
50494SOL     OW53313   6.794   6.483   6.251
50494SOL    HW153314   6.845   6.448   6.324
50494SOL    HW253315   6.841   6.562   6.225
50495SOL     OW53316  14.028   3.630  13.783
50495SOL    HW153317  14.105   3.628  13.726
50495SOL    HW253318  13.989   3.716  13.767
50496SOL     OW53319   0.336  10.566  13.564
50496SOL    HW153320   0.424  10.528  13.569
50496SOL    HW253321   0.323  10.607  13.649
50497SOL     OW53322   9.387  12.642   0.601
50497SOL    HW153323   9.482  12.645   0.589
50497SOL    HW253324   9.372  12.562   0.652
50498SOL     OW53325   1.524   8.226  10.171
50498SOL    HW153326   1.446   8.173  10.187
50498SOL    HW253327   1.557   8.249  10.258
50499SOL     OW53328  12.115  14.080   4.229
50499SOL    HW153329  12.091  14.164   4.188
50499SOL    HW253330  12.047  14.019   4.199
50500SOL     OW53331  10.272   4.055   9.227
50500SOL    HW153332  10.328   4.095   9.293
50500SOL    HW253333  10.198   4.020   9.276
50501SOL     OW53334   6.257   4.002   3.051
50501SOL    HW153335   6.222   4.054   3.123
50501SOL    HW253336   6.343   4.040   3.034
50502SOL     OW53337   4.905   1.647  12.934
50502SOL    HW153338   4.850   1.721  12.962
50502SOL    HW253339   4.867   1.621  12.849
50503SOL     OW53340   6.472   7.335   6.622
50503SOL    HW153341   6.396   7.389   6.643
50503SOL    HW253342   6.504   7.304   6.706
50504SOL     OW53343   1.090  13.965   5.355
50504SOL    HW153344   1.040  14.046   5.358
50504SOL    HW253345   1.100  13.938   5.446
50505SOL     OW53346   7.643   8.187   9.827
50505SOL    HW153347   7.704   8.114   9.814
50505SOL    HW253348   7.635   8.228   9.741
50506SOL     OW53349   6.710   9.786   3.237
50506SOL    HW153350   6.648   9.843   3.190
50506SOL    HW253351   6.796   9.822   3.215
50507SOL     OW53352   5.318  14.465   2.196
50507SOL    HW153353   5.232  14.497   2.167
50507SOL    HW253354   5.314  14.371   2.183
50508SOL     OW53355   9.794   7.576  13.186
50508SOL    HW153356   9.841   7.596  13.267
50508SOL    HW253357   9.701   7.574  13.211
50509SOL     OW53358   8.453  12.944   4.486
50509SOL    HW153359   8.423  13.022   4.531
50509SOL    HW253360   8.382  12.881   4.498
50510SOL     OW53361   8.592  11.628   3.165
50510SOL    HW153362   8.541  11.706   3.142
50510SOL    HW253363   8.644  11.610   3.087
50511SOL     OW53364   9.174   3.245   9.371
50511SOL    HW153365   9.099   3.201   9.330
50511SOL    HW253366   9.186   3.199   9.454
50512SOL     OW53367   8.749   1.770   4.481
50512SOL    HW153368   8.809   1.822   4.428
50512SOL    HW253369   8.786   1.772   4.569
50513SOL     OW53370  13.411   7.220  12.425
50513SOL    HW153371  13.364   7.140  12.449
50513SOL    HW253372  13.489   7.219  12.481
50514SOL     OW53373   1.199   8.855   9.927
50514SOL    HW153374   1.193   8.923   9.860
50514SOL    HW253375   1.141   8.785   9.894
50515SOL     OW53376   0.808   8.269   9.434
50515SOL    HW153377   0.756   8.203   9.390
50515SOL    HW253378   0.787   8.259   9.527
50516SOL     OW53379   2.235   3.898  12.763
50516SOL    HW153380   2.279   3.981  12.742
50516SOL    HW253381   2.154   3.901  12.713
50517SOL     OW53382   0.655   2.929   7.502
50517SOL    HW153383   0.686   2.962   7.587
50517SOL    HW253384   0.560   2.926   7.512
50518SOL     OW53385   7.736   2.312  11.126
50518SOL    HW153386   7.763   2.266  11.205
50518SOL    HW253387   7.641   2.320  11.135
50519SOL     OW53388  14.525   4.152   2.709
50519SOL    HW153389  14.576   4.135   2.787
50519SOL    HW253390  14.566   4.098   2.641
50520SOL     OW53391  11.035  14.783   6.765
50520SOL    HW153392  11.113  14.775   6.819
50520SOL    HW253393  11.068  14.782   6.675
50521SOL     OW53394  13.724   1.129   5.672
50521SOL    HW153395  13.790   1.123   5.602
50521SOL    HW253396  13.641   1.110   5.628
50522SOL     OW53397   6.019   8.264   1.453
50522SOL    HW153398   5.938   8.304   1.421
50522SOL    HW253399   5.998   8.234   1.541
50523SOL     OW53400  11.131   9.138   4.974
50523SOL    HW153401  11.224   9.157   4.963
50523SOL    HW253402  11.099   9.207   5.033
50524SOL     OW53403   2.226   0.781   0.137
50524SOL    HW153404   2.190   0.845   0.199
50524SOL    HW253405   2.295   0.828   0.091
50525SOL     OW53406  14.165   3.920   7.383
50525SOL    HW153407  14.152   3.907   7.477
50525SOL    HW253408  14.128   3.840   7.343
50526SOL     OW53409   6.600   3.449   6.908
50526SOL    HW153410   6.596   3.475   7.000
50526SOL    HW253411   6.561   3.362   6.906
50527SOL     OW53412  13.352  10.715  13.889
50527SOL    HW153413  13.364  10.807  13.913
50527SOL    HW253414  13.417  10.698  13.822
50528SOL     OW53415   2.030  12.020   8.235
50528SOL    HW153416   2.019  12.114   8.216
50528SOL    HW253417   2.083  11.988   8.162
50529SOL     OW53418   5.305   4.982   5.581
50529SOL    HW153419   5.233   4.967   5.642
50529SOL    HW253420   5.359   5.048   5.624
50530SOL     OW53421   4.748   2.271   0.795
50530SOL    HW153422   4.823   2.305   0.844
50530SOL    HW253423   4.697   2.222   0.859
50531SOL     OW53424   0.824   8.250  14.205
50531SOL    HW153425   0.841   8.342  14.228
50531SOL    HW253426   0.832   8.203  14.288
50532SOL     OW53427  11.139   2.908  11.362
50532SOL    HW153428  11.102   2.995  11.345
50532SOL    HW253429  11.190   2.887  11.284
50533SOL     OW53430   0.299   8.158   7.747
50533SOL    HW153431   0.333   8.163   7.657
50533SOL    HW253432   0.284   8.065   7.762
50534SOL     OW53433   7.529   5.072   4.717
50534SOL    HW153434   7.466   5.094   4.649
50534SOL    HW253435   7.605   5.037   4.670
50535SOL     OW53436   8.785   4.107   0.124
50535SOL    HW153437   8.793   4.202   0.128
50535SOL    HW253438   8.698   4.091   0.087
50536SOL     OW53439   1.095   7.052   9.533
50536SOL    HW153440   1.153   6.994   9.484
50536SOL    HW253441   1.045   7.099   9.466
50537SOL     OW53442  13.499   7.729   4.932
50537SOL    HW153443  13.482   7.810   4.979
50537SOL    HW253444  13.576   7.748   4.878
50538SOL     OW53445  14.594   0.955   2.754
50538SOL    HW153446  14.639   0.995   2.829
50538SOL    HW253447  14.587   1.025   2.689
50539SOL     OW53448   8.350  14.602   6.064
50539SOL    HW153449   8.387  14.689   6.083
50539SOL    HW253450   8.269  14.620   6.017
50540SOL     OW53451  12.166  13.342   2.829
50540SOL    HW153452  12.115  13.261   2.825
50540SOL    HW253453  12.172  13.362   2.922
50541SOL     OW53454  11.188  11.359   5.027
50541SOL    HW153455  11.106  11.401   5.002
50541SOL    HW253456  11.256  11.411   4.984
50542SOL     OW53457   0.558  10.314   8.911
50542SOL    HW153458   0.579  10.323   8.818
50542SOL    HW253459   0.597  10.392   8.951
50543SOL     OW53460   7.506   3.324   2.467
50543SOL    HW153461   7.527   3.244   2.515
50543SOL    HW253462   7.491   3.390   2.535
50544SOL     OW53463   2.613   6.447   3.332
50544SOL    HW153464   2.518   6.445   3.337
50544SOL    HW253465   2.637   6.361   3.298
50545SOL     OW53466   3.422   6.720   3.951
50545SOL    HW153467   3.449   6.717   3.859
50545SOL    HW253468   3.362   6.646   3.961
50546SOL     OW53469   8.015   8.882   3.847
50546SOL    HW153470   8.017   8.894   3.752
50546SOL    HW253471   8.103   8.854   3.871
50547SOL     OW53472  13.745   5.774   7.110
50547SOL    HW153473  13.701   5.835   7.051
50547SOL    HW253474  13.673   5.726   7.152
50548SOL     OW53475  12.698  14.867   9.765
50548SOL    HW153476  12.706   0.068   9.822
50548SOL    HW253477  12.751   0.013   9.688
50549SOL     OW53478  11.952   7.352   6.764
50549SOL    HW153479  11.990   7.342   6.851
50549SOL    HW253480  11.955   7.446   6.747
50550SOL     OW53481   5.187   4.624   2.318
50550SOL    HW153482   5.200   4.706   2.365
50550SOL    HW253483   5.172   4.650   2.227
50551SOL     OW53484  12.898   5.359  14.273
50551SOL    HW153485  12.914   5.308  14.352
50551SOL    HW253486  12.843   5.303  14.218
50552SOL     OW53487  12.394  10.622  13.461
50552SOL    HW153488  12.334  10.558  13.499
50552SOL    HW253489  12.337  10.692  13.429
50553SOL     OW53490   3.720   7.947   9.075
50553SOL    HW153491   3.637   7.969   9.035
50553SOL    HW253492   3.705   7.862   9.118
50554SOL     OW53493  11.452   1.038   5.027
50554SOL    HW153494  11.530   1.014   5.077
50554SOL    HW253495  11.393   1.076   5.092
50555SOL     OW53496  13.923   7.379   1.977
50555SOL    HW153497  13.987   7.309   1.961
50555SOL    HW253498  13.851   7.336   2.023
50556SOL     OW53499   1.468  11.787   5.861
50556SOL    HW153500   1.489  11.714   5.920
50556SOL    HW253501   1.553  11.827   5.841
50557SOL     OW53502   5.937  14.384  14.661
50557SOL    HW153503   5.985  14.433  14.727
50557SOL    HW253504   5.958  14.292  14.677
50558SOL     OW53505   7.533  13.208  12.620
50558SOL    HW153506   7.484  13.182  12.698
50558SOL    HW253507   7.494  13.158  12.549
50559SOL     OW53508   7.642   9.408   2.977
50559SOL    HW153509   7.611   9.435   3.064
50559SOL    HW253510   7.666   9.490   2.934
50560SOL     OW53511   4.106   2.702   5.617
50560SOL    HW153512   4.022   2.664   5.644
50560SOL    HW253513   4.099   2.795   5.640
50561SOL     OW53514   2.893  10.546  13.961
50561SOL    HW153515   2.814  10.513  14.005
50561SOL    HW253516   2.859  10.604  13.893
50562SOL     OW53517   9.181  10.836  10.895
50562SOL    HW153518   9.215  10.923  10.913
50562SOL    HW253519   9.189  10.826  10.801
50563SOL     OW53520   2.802  12.217   4.962
50563SOL    HW153521   2.812  12.247   4.871
50563SOL    HW253522   2.712  12.241   4.985
50564SOL     OW53523   4.102  11.125   2.732
50564SOL    HW153524   4.098  11.208   2.684
50564SOL    HW253525   4.123  11.150   2.822
50565SOL     OW53526   7.311   5.768   1.220
50565SOL    HW153527   7.282   5.834   1.284
50565SOL    HW253528   7.387   5.807   1.178
50566SOL     OW53529   9.979   2.415   3.705
50566SOL    HW153530  10.000   2.323   3.719
50566SOL    HW253531  10.063   2.457   3.688
50567SOL     OW53532   4.346   3.541   4.056
50567SOL    HW153533   4.255   3.511   4.058
50567SOL    HW253534   4.339   3.637   4.057
50568SOL     OW53535   8.962  10.248   9.552
50568SOL    HW153536   8.937  10.218   9.465
50568SOL    HW253537   8.888  10.226   9.608
50569SOL     OW53538   9.172   0.875   1.622
50569SOL    HW153539   9.216   0.792   1.602
50569SOL    HW253540   9.101   0.880   1.558
50570SOL     OW53541   0.351   1.591  13.768
50570SOL    HW153542   0.300   1.511  13.777
50570SOL    HW253543   0.417   1.570  13.702
50571SOL     OW53544   7.899  10.987  10.741
50571SOL    HW153545   7.854  10.908  10.773
50571SOL    HW253546   7.831  11.037  10.697
50572SOL     OW53547  14.626   8.283  14.542
50572SOL    HW153548  14.557   8.288  14.609
50572SOL    HW253549  14.594   8.217  14.480
50573SOL     OW53550   6.520   1.314   4.972
50573SOL    HW153551   6.551   1.235   5.015
50573SOL    HW253552   6.514   1.290   4.879
50574SOL     OW53553   9.670   5.239  13.452
50574SOL    HW153554   9.678   5.316  13.395
50574SOL    HW253555   9.733   5.256  13.523
50575SOL     OW53556  14.295   8.915   0.637
50575SOL    HW153557  14.262   8.827   0.619
50575SOL    HW253558  14.265   8.968   0.564
50576SOL     OW53559   2.333  11.823   4.735
50576SOL    HW153560   2.344  11.782   4.649
50576SOL    HW253561   2.390  11.899   4.733
50577SOL     OW53562  13.240   4.508   6.332
50577SOL    HW153563  13.191   4.450   6.391
50577SOL    HW253564  13.181   4.582   6.317
50578SOL     OW53565   0.706   4.721   9.652
50578SOL    HW153566   0.796   4.725   9.619
50578SOL    HW253567   0.693   4.805   9.696
50579SOL     OW53568   0.058   5.584   4.868
50579SOL    HW153569   0.080   5.627   4.951
50579SOL    HW253570   0.141   5.547   4.837
50580SOL     OW53571   7.290   9.272  12.791
50580SOL    HW153572   7.379   9.253  12.820
50580SOL    HW253573   7.235   9.253  12.867
50581SOL     OW53574   2.532   7.461  12.031
50581SOL    HW153575   2.461   7.403  12.002
50581SOL    HW253576   2.603   7.402  12.055
50582SOL     OW53577   2.537   6.475  11.405
50582SOL    HW153578   2.601   6.484  11.335
50582SOL    HW253579   2.459   6.520  11.372
50583SOL     OW53580  12.908  10.094  10.598
50583SOL    HW153581  12.944  10.098  10.686
50583SOL    HW253582  12.813  10.088  10.611
50584SOL     OW53583  11.230   9.120   9.328
50584SOL    HW153584  11.138   9.145   9.336
50584SOL    HW253585  11.234   9.031   9.363
50585SOL     OW53586   4.802   3.217   1.373
50585SOL    HW153587   4.853   3.168   1.436
50585SOL    HW253588   4.724   3.165   1.358
50586SOL     OW53589   0.870   4.517  13.177
50586SOL    HW153590   0.959   4.491  13.201
50586SOL    HW253591   0.858   4.482  13.089
50587SOL     OW53592  11.434  14.501   3.003
50587SOL    HW153593  11.416  14.473   3.093
50587SOL    HW253594  11.347  14.504   2.961
50588SOL     OW53595  14.146   9.480   3.245
50588SOL    HW153596  14.218   9.425   3.213
50588SOL    HW253597  14.101   9.425   3.310
50589SOL     OW53598  11.224  10.673   1.575
50589SOL    HW153599  11.261  10.760   1.589
50589SOL    HW253600  11.166  10.684   1.499
50590SOL     OW53601   3.662  11.920   3.339
50590SOL    HW153602   3.742  11.880   3.374
50590SOL    HW253603   3.688  12.008   3.313
50591SOL     OW53604   0.265  10.826   0.033
50591SOL    HW153605   0.329  10.775   0.082
50591SOL    HW253606   0.180  10.791   0.060
50592SOL     OW53607   3.311   1.219  11.721
50592SOL    HW153608   3.381   1.235  11.784
50592SOL    HW253609   3.255   1.154  11.763
50593SOL     OW53610   8.597   5.078  10.463
50593SOL    HW153611   8.670   5.020  10.483
50593SOL    HW253612   8.636   5.145  10.406
50594SOL     OW53613   6.831   6.437   0.260
50594SOL    HW153614   6.757   6.476   0.306
50594SOL    HW253615   6.808   6.344   0.251
50595SOL     OW53616   3.676   8.001  12.292
50595SOL    HW153617   3.674   7.949  12.372
50595SOL    HW253618   3.721   7.946  12.228
50596SOL     OW53619   1.798   9.767   5.455
50596SOL    HW153620   1.762   9.697   5.510
50596SOL    HW253621   1.851   9.820   5.515
50597SOL     OW53622  10.110  12.625  10.682
50597SOL    HW153623  10.139  12.709  10.719
50597SOL    HW253624  10.156  12.619  10.599
50598SOL     OW53625   3.065  14.089   9.054
50598SOL    HW153626   3.027  14.123   9.135
50598SOL    HW253627   3.159  14.104   9.064
50599SOL     OW53628  13.843  13.813   2.915
50599SOL    HW153629  13.848  13.882   2.850
50599SOL    HW253630  13.899  13.743   2.880
50600SOL     OW53631   8.604   4.009  14.478
50600SOL    HW153632   8.598   3.914  14.471
50600SOL    HW253633   8.571   4.042  14.395
50601SOL     OW53634   6.409  13.662   5.011
50601SOL    HW153635   6.454  13.689   4.931
50601SOL    HW253636   6.346  13.596   4.982
50602SOL     OW53637   8.300  10.425   3.081
50602SOL    HW153638   8.262  10.342   3.112
50602SOL    HW253639   8.235  10.459   3.019
50603SOL     OW53640  10.582   2.207   3.967
50603SOL    HW153641  10.600   2.296   3.938
50603SOL    HW253642  10.625   2.201   4.053
50604SOL     OW53643   0.707  11.816   1.998
50604SOL    HW153644   0.615  11.820   1.972
50604SOL    HW253645   0.732  11.907   2.014
50605SOL     OW53646   2.728   3.256   1.045
50605SOL    HW153647   2.718   3.187   1.110
50605SOL    HW253648   2.689   3.334   1.087
50606SOL     OW53649   7.107  13.270  12.857
50606SOL    HW153650   7.104  13.361  12.826
50606SOL    HW253651   7.137  13.277  12.947
50607SOL     OW53652  10.554   1.226  14.379
50607SOL    HW153653  10.641   1.265  14.371
50607SOL    HW253654  10.550   1.194  14.469
50608SOL     OW53655   3.373   3.722  14.625
50608SOL    HW153656   3.385   3.767  14.709
50608SOL    HW253657   3.303   3.770  14.582
50609SOL     OW53658   2.114   0.199   3.904
50609SOL    HW153659   2.165   0.265   3.950
50609SOL    HW253660   2.177   0.131   3.882
50610SOL     OW53661   8.880   8.225   2.870
50610SOL    HW153662   8.920   8.160   2.813
50610SOL    HW253663   8.918   8.208   2.956
50611SOL     OW53664  12.919   3.818   4.258
50611SOL    HW153665  12.954   3.729   4.269
50611SOL    HW253666  12.902   3.825   4.164
50612SOL     OW53667   6.766  13.654   8.586
50612SOL    HW153668   6.734  13.581   8.638
50612SOL    HW253669   6.804  13.613   8.508
50613SOL     OW53670  13.537  12.738  10.384
50613SOL    HW153671  13.626  12.704  10.384
50613SOL    HW253672  13.509  12.730  10.292
50614SOL     OW53673   5.082  14.857   3.586
50614SOL    HW153674   5.030  14.795   3.535
50614SOL    HW253675   5.017   0.037   3.629
50615SOL     OW53676   5.497   0.398   6.771
50615SOL    HW153677   5.528   0.308   6.757
50615SOL    HW253678   5.516   0.442   6.688
50616SOL     OW53679   2.771  12.324   6.679
50616SOL    HW153680   2.856  12.365   6.659
50616SOL    HW253681   2.708  12.395   6.669
50617SOL     OW53682   9.831  11.263   1.500
50617SOL    HW153683   9.902  11.288   1.559
50617SOL    HW253684   9.869  11.196   1.443
50618SOL     OW53685   1.210  10.809   6.561
50618SOL    HW153686   1.286  10.771   6.517
50618SOL    HW253687   1.206  10.899   6.528
50619SOL     OW53688  12.238  10.387  10.563
50619SOL    HW153689  12.190  10.395  10.480
50619SOL    HW253690  12.169  10.382  10.629
50620SOL     OW53691   1.497   5.080   6.957
50620SOL    HW153692   1.477   5.145   6.890
50620SOL    HW253693   1.580   5.110   6.995
50621SOL     OW53694   4.697   9.414  13.426
50621SOL    HW153695   4.755   9.341  13.446
50621SOL    HW253696   4.715   9.478  13.495
50622SOL     OW53697  10.125   4.675   4.669
50622SOL    HW153698  10.203   4.696   4.619
50622SOL    HW253699  10.158   4.653   4.756
50623SOL     OW53700  13.882   9.429   2.170
50623SOL    HW153701  13.820   9.372   2.124
50623SOL    HW253702  13.958   9.373   2.187
50624SOL     OW53703   3.275   6.373   7.228
50624SOL    HW153704   3.198   6.412   7.187
50624SOL    HW253705   3.302   6.437   7.294
50625SOL     OW53706   2.832  12.289  12.903
50625SOL    HW153707   2.836  12.265  12.811
50625SOL    HW253708   2.882  12.370  12.910
50626SOL     OW53709   9.897  10.116  10.814
50626SOL    HW153710   9.957  10.075  10.877
50626SOL    HW253711   9.855  10.043  10.770
50627SOL     OW53712   5.676   5.069  11.059
50627SOL    HW153713   5.716   5.004  11.115
50627SOL    HW253714   5.634   5.019  10.989
50628SOL     OW53715   9.114   5.984   6.181
50628SOL    HW153716   9.164   5.993   6.262
50628SOL    HW253717   9.097   5.890   6.174
50629SOL     OW53718   0.123   4.973   0.296
50629SOL    HW153719   0.035   4.936   0.305
50629SOL    HW253720   0.182   4.903   0.325
50630SOL     OW53721   1.883   5.780   2.398
50630SOL    HW153722   1.795   5.768   2.362
50630SOL    HW253723   1.937   5.715   2.352
50631SOL     OW53724   6.108   8.641  14.254
50631SOL    HW153725   6.071   8.688  14.329
50631SOL    HW253726   6.032   8.607  14.208
50632SOL     OW53727  14.123   5.277   2.473
50632SOL    HW153728  14.213   5.303   2.458
50632SOL    HW253729  14.124   5.181   2.467
50633SOL     OW53730   2.585   9.424   8.415
50633SOL    HW153731   2.537   9.455   8.493
50633SOL    HW253732   2.673   9.407   8.447
50634SOL     OW53733   1.003   9.432   5.034
50634SOL    HW153734   0.966   9.424   5.122
50634SOL    HW253735   1.098   9.433   5.048
50635SOL     OW53736  14.423   5.920   6.054
50635SOL    HW153737  14.483   5.959   5.990
50635SOL    HW253738  14.358   5.988   6.070
50636SOL     OW53739   4.959   2.208   9.006
50636SOL    HW153740   4.914   2.260   9.073
50636SOL    HW253741   5.033   2.262   8.980
50637SOL     OW53742  13.883   6.675  10.950
50637SOL    HW153743  13.889   6.630  11.034
50637SOL    HW253744  13.818   6.743  10.964
50638SOL     OW53745   8.347  12.658  14.808
50638SOL    HW153746   8.427  12.643  14.756
50638SOL    HW253747   8.281  12.604  14.765
50639SOL     OW53748  13.142  10.584  11.966
50639SOL    HW153749  13.049  10.575  11.944
50639SOL    HW253750  13.153  10.677  11.987
50640SOL     OW53751  11.793   6.167   8.471
50640SOL    HW153752  11.884   6.169   8.439
50640SOL    HW253753  11.752   6.097   8.419
50641SOL     OW53754   6.492  11.484  13.755
50641SOL    HW153755   6.463  11.437  13.833
50641SOL    HW253756   6.430  11.458  13.686
50642SOL     OW53757   5.146   8.986   9.211
50642SOL    HW153758   5.210   9.018   9.146
50642SOL    HW253759   5.198   8.930   9.269
50643SOL     OW53760  12.622   1.423   7.581
50643SOL    HW153761  12.698   1.370   7.606
50643SOL    HW253762  12.549   1.385   7.630
50644SOL     OW53763  11.307  12.026   4.523
50644SOL    HW153764  11.263  12.097   4.476
50644SOL    HW253765  11.390  12.013   4.477
50645SOL     OW53766  10.809   7.341  10.837
50645SOL    HW153767  10.730   7.358  10.887
50645SOL    HW253768  10.784   7.357  10.746
50646SOL     OW53769   0.177  11.355   5.984
50646SOL    HW153770   0.203  11.435   6.030
50646SOL    HW253771   0.210  11.284   6.039
50647SOL     OW53772  11.108  12.409  11.456
50647SOL    HW153773  11.104  12.352  11.533
50647SOL    HW253774  11.019  12.446  11.449
50648SOL     OW53775  13.178  12.924   2.139
50648SOL    HW153776  13.161  12.906   2.047
50648SOL    HW253777  13.269  12.953   2.142
50649SOL     OW53778  12.455   3.548   6.913
50649SOL    HW153779  12.541   3.549   6.873
50649SOL    HW253780  12.467   3.500   6.995
50650SOL     OW53781  10.856  14.355   0.793
50650SOL    HW153782  10.903  14.421   0.744
50650SOL    HW253783  10.765  14.383   0.790
50651SOL     OW53784   8.031   7.103  13.662
50651SOL    HW153785   8.046   7.105  13.756
50651SOL    HW253786   8.118   7.102  13.623
50652SOL     OW53787   7.494   5.484  13.790
50652SOL    HW153788   7.459   5.410  13.740
50652SOL    HW253789   7.440   5.559  13.763
50653SOL     OW53790   4.489   0.572   0.083
50653SOL    HW153791   4.577   0.605   0.104
50653SOL    HW253792   4.460   0.629   0.011
50654SOL     OW53793   4.238  14.279  12.275
50654SOL    HW153794   4.275  14.363  12.248
50654SOL    HW253795   4.238  14.282  12.370
50655SOL     OW53796  10.147   9.179  11.234
50655SOL    HW153797  10.144   9.230  11.315
50655SOL    HW253798  10.057   9.148  11.222
50656SOL     OW53799  12.922  12.722  10.060
50656SOL    HW153800  12.887  12.804  10.024
50656SOL    HW253801  12.985  12.693   9.994
50657SOL     OW53802   5.301   1.583   3.196
50657SOL    HW153803   5.227   1.522   3.194
50657SOL    HW253804   5.279   1.650   3.132
50658SOL     OW53805   6.330   4.874   5.932
50658SOL    HW153806   6.343   4.912   6.018
50658SOL    HW253807   6.401   4.811   5.922
50659SOL     OW53808   8.060   3.491  12.946
50659SOL    HW153809   8.096   3.575  12.919
50659SOL    HW253810   8.102   3.427  12.888
50660SOL     OW53811   5.006   6.390   7.731
50660SOL    HW153812   5.063   6.315   7.749
50660SOL    HW253813   4.982   6.423   7.817
50661SOL     OW53814   0.401   1.090  12.968
50661SOL    HW153815   0.398   1.104  12.873
50661SOL    HW253816   0.313   1.112  12.998
50662SOL     OW53817   8.814   9.643  10.144
50662SOL    HW153818   8.755   9.659  10.070
50662SOL    HW253819   8.842   9.552  10.132
50663SOL     OW53820   1.166   9.030   7.031
50663SOL    HW153821   1.161   8.991   7.118
50663SOL    HW253822   1.083   9.005   6.989
50664SOL     OW53823   4.963   0.043   2.283
50664SOL    HW153824   4.983   0.063   2.192
50664SOL    HW253825   4.919  14.834   2.280
50665SOL     OW53826  13.408   3.687   2.390
50665SOL    HW153827  13.392   3.695   2.484
50665SOL    HW253828  13.497   3.721   2.377
50666SOL     OW53829  11.281   4.972   3.395
50666SOL    HW153830  11.288   5.066   3.410
50666SOL    HW253831  11.213   4.963   3.329
50667SOL     OW53832   0.062  10.201   1.911
50667SOL    HW153833   0.108  10.284   1.921
50667SOL    HW253834   0.090  10.168   1.826
50668SOL     OW53835   1.756   3.175   1.292
50668SOL    HW153836   1.755   3.079   1.288
50668SOL    HW253837   1.831   3.195   1.348
50669SOL     OW53838  13.424   7.394   7.911
50669SOL    HW153839  13.415   7.459   7.841
50669SOL    HW253840  13.440   7.446   7.989
50670SOL     OW53841   8.304   1.762  10.139
50670SOL    HW153842   8.318   1.765  10.044
50670SOL    HW253843   8.213   1.735  10.149
50671SOL     OW53844   0.457   7.941   6.126
50671SOL    HW153845   0.493   7.859   6.159
50671SOL    HW253846   0.372   7.949   6.169
50672SOL     OW53847   1.579   1.355   1.028
50672SOL    HW153848   1.607   1.420   1.092
50672SOL    HW253849   1.661   1.324   0.989
50673SOL     OW53850   2.062  12.776  11.072
50673SOL    HW153851   2.076  12.711  11.002
50673SOL    HW253852   2.115  12.851  11.045
50674SOL     OW53853  12.375   5.394   2.805
50674SOL    HW153854  12.287   5.432   2.807
50674SOL    HW253855  12.415   5.424   2.886
50675SOL     OW53856   0.332   1.896   0.093
50675SOL    HW153857   0.280   1.816   0.088
50675SOL    HW253858   0.331   1.919   0.186
50676SOL     OW53859  12.352  10.630  10.412
50676SOL    HW153860  12.346  10.540  10.442
50676SOL    HW253861  12.398  10.676  10.482
50677SOL     OW53862   5.041   2.516   9.033
50677SOL    HW153863   4.964   2.533   8.978
50677SOL    HW253864   5.115   2.521   8.973
50678SOL     OW53865  12.981  10.425  12.280
50678SOL    HW153866  13.063  10.443  12.326
50678SOL    HW253867  12.948  10.511  12.256
50679SOL     OW53868   9.389  11.436  11.875
50679SOL    HW153869   9.454  11.432  11.945
50679SOL    HW253870   9.337  11.357  11.886
50680SOL     OW53871   2.773  10.122   4.286
50680SOL    HW153872   2.811  10.095   4.202
50680SOL    HW253873   2.756  10.216   4.276
50681SOL     OW53874  11.557  11.301   5.111
50681SOL    HW153875  11.612  11.330   5.184
50681SOL    HW253876  11.539  11.380   5.061
50682SOL     OW53877  12.519  10.765   1.916
50682SOL    HW153878  12.556  10.852   1.901
50682SOL    HW253879  12.424  10.779   1.917
50683SOL     OW53880   7.077  12.776  14.732
50683SOL    HW153881   7.086  12.871  14.719
50683SOL    HW253882   7.086  12.764  14.827
50684SOL     OW53883   4.852  11.291  13.914
50684SOL    HW153884   4.914  11.277  13.843
50684SOL    HW253885   4.845  11.206  13.957
50685SOL     OW53886   1.104  12.032   7.862
50685SOL    HW153887   1.125  11.939   7.872
50685SOL    HW253888   1.174  12.078   7.909
50686SOL     OW53889   1.288   7.243  12.040
50686SOL    HW153890   1.209   7.227  11.988
50686SOL    HW253891   1.310   7.335  12.023
50687SOL     OW53892  13.361   1.525   0.994
50687SOL    HW153893  13.381   1.477   1.074
50687SOL    HW253894  13.427   1.593   0.989
50688SOL     OW53895   9.377   6.033   3.659
50688SOL    HW153896   9.320   5.998   3.590
50688SOL    HW253897   9.452   5.973   3.661
50689SOL     OW53898   4.987   2.667   0.252
50689SOL    HW153899   5.032   2.739   0.294
50689SOL    HW253900   4.989   2.596   0.317
50690SOL     OW53901   4.354   5.697  14.163
50690SOL    HW153902   4.358   5.789  14.189
50690SOL    HW253903   4.329   5.651  14.243
50691SOL     OW53904   6.489   4.999   0.866
50691SOL    HW153905   6.406   4.970   0.830
50691SOL    HW253906   6.470   5.020   0.958
50692SOL     OW53907  10.071   0.473   3.674
50692SOL    HW153908  10.009   0.432   3.734
50692SOL    HW253909  10.015   0.516   3.609
50693SOL     OW53910  13.620   8.167   0.571
50693SOL    HW153911  13.616   8.249   0.621
50693SOL    HW253912  13.535   8.162   0.526
50694SOL     OW53913  14.011   2.267   1.888
50694SOL    HW153914  13.942   2.333   1.888
50694SOL    HW253915  14.023   2.246   1.981
50695SOL     OW53916  11.696  10.776   3.412
50695SOL    HW153917  11.757  10.716   3.454
50695SOL    HW253918  11.746  10.814   3.339
50696SOL     OW53919   7.753   5.418   9.602
50696SOL    HW153920   7.800   5.345   9.561
50696SOL    HW253921   7.708   5.378   9.676
50697SOL     OW53922  13.191   1.945   3.112
50697SOL    HW153923  13.280   1.944   3.077
50697SOL    HW253924  13.138   1.983   3.042
50698SOL     OW53925   7.630  11.016  14.121
50698SOL    HW153926   7.652  11.062  14.040
50698SOL    HW253927   7.536  10.998  14.114
50699SOL     OW53928   7.326  12.984  10.201
50699SOL    HW153929   7.378  12.904  10.206
50699SOL    HW253930   7.387  13.051  10.170
50700SOL     OW53931   1.137   6.207  11.024
50700SOL    HW153932   1.094   6.131  10.986
50700SOL    HW253933   1.226   6.206  10.988
50701SOL     OW53934   3.687   5.389  13.420
50701SOL    HW153935   3.602   5.398  13.376
50701SOL    HW253936   3.675   5.435  13.503
50702SOL     OW53937   4.882   2.088   5.575
50702SOL    HW153938   4.929   2.123   5.651
50702SOL    HW253939   4.827   2.161   5.546
50703SOL     OW53940   4.716   4.970  14.313
50703SOL    HW153941   4.666   4.888  14.323
50703SOL    HW253942   4.760   4.981  14.397
50704SOL     OW53943  13.774   7.759   0.361
50704SOL    HW153944  13.687   7.766   0.321
50704SOL    HW253945  13.776   7.828   0.427
50705SOL     OW53946   3.773   0.016   5.096
50705SOL    HW153947   3.811  14.854   5.017
50705SOL    HW253948   3.755   0.107   5.073
50706SOL     OW53949  13.674   6.023  13.984
50706SOL    HW153950  13.749   6.064  14.027
50706SOL    HW253951  13.630   6.096  13.939
50707SOL     OW53952   3.149   0.281  10.012
50707SOL    HW153953   3.197   0.343   9.956
50707SOL    HW253954   3.071   0.258   9.962
50708SOL     OW53955   7.483  10.466  12.608
50708SOL    HW153956   7.576  10.456  12.586
50708SOL    HW253957   7.450  10.377  12.615
50709SOL     OW53958   9.018   3.835   0.887
50709SOL    HW153959   8.967   3.756   0.867
50709SOL    HW253960   9.014   3.887   0.806
50710SOL     OW53961  14.297   7.854   2.380
50710SOL    HW153962  14.286   7.945   2.407
50710SOL    HW253963  14.391   7.838   2.388
50711SOL     OW53964   9.953   6.944   4.143
50711SOL    HW153965  10.015   6.921   4.213
50711SOL    HW253966   9.868   6.917   4.177
50712SOL     OW53967   4.379  11.136   4.848
50712SOL    HW153968   4.354  11.045   4.867
50712SOL    HW253969   4.315  11.189   4.894
50713SOL     OW53970   5.797   2.222  13.990
50713SOL    HW153971   5.713   2.267  13.992
50713SOL    HW253972   5.779   2.139  13.945
50714SOL     OW53973  11.502   1.473   0.246
50714SOL    HW153974  11.483   1.548   0.302
50714SOL    HW253975  11.450   1.402   0.283
50715SOL     OW53976  10.692   1.267  12.162
50715SOL    HW153977  10.637   1.277  12.239
50715SOL    HW253978  10.748   1.345  12.162
50716SOL     OW53979   0.095  12.618   6.509
50716SOL    HW153980   0.102  12.585   6.420
50716SOL    HW253981   0.055  12.705   6.498
50717SOL     OW53982   7.649  10.193   7.144
50717SOL    HW153983   7.722  10.146   7.184
50717SOL    HW253984   7.598  10.125   7.100
50718SOL     OW53985   7.163   7.031   2.394
50718SOL    HW153986   7.096   7.010   2.459
50718SOL    HW253987   7.199   7.115   2.422
50719SOL     OW53988  10.946   7.335  12.726
50719SOL    HW153989  10.965   7.373  12.812
50719SOL    HW253990  10.931   7.411  12.670
50720SOL     OW53991  13.634   2.762   9.249
50720SOL    HW153992  13.686   2.836   9.282
50720SOL    HW253993  13.681   2.732   9.172
50721SOL     OW53994   1.624   4.126  13.498
50721SOL    HW153995   1.585   4.134  13.411
50721SOL    HW253996   1.640   4.216  13.525
50722SOL     OW53997  12.307   7.109   2.465
50722SOL    HW153998  12.290   7.200   2.442
50722SOL    HW253999  12.309   7.063   2.381
50723SOL     OW54000  12.129  13.064  11.347
50723SOL    HW154001  12.136  13.154  11.377
50723SOL    HW254002  12.098  13.070  11.257
50724SOL     OW54003  11.038   1.311   3.211
50724SOL    HW154004  11.100   1.243   3.187
50724SOL    HW254005  11.050   1.322   3.306
50725SOL     OW54006  13.643  11.840  11.244
50725SOL    HW154007  13.692  11.918  11.270
50725SOL    HW254008  13.570  11.835  11.305
50726SOL     OW54009   6.595   3.310   8.382
50726SOL    HW154010   6.507   3.332   8.412
50726SOL    HW254011   6.617   3.229   8.430
50727SOL     OW54012  10.496   3.636   3.990
50727SOL    HW154013  10.403   3.629   4.011
50727SOL    HW254014  10.514   3.562   3.932
50728SOL     OW54015   3.997  12.457   5.519
50728SOL    HW154016   3.993  12.384   5.457
50728SOL    HW254017   4.062  12.517   5.482
50729SOL     OW54018  14.202   3.617   5.071
50729SOL    HW154019  14.182   3.686   5.135
50729SOL    HW254020  14.276   3.651   5.021
50730SOL     OW54021  11.288  14.015   3.954
50730SOL    HW154022  11.257  13.959   3.883
50730SOL    HW254023  11.359  13.965   3.995
50731SOL     OW54024   5.617   2.875   5.841
50731SOL    HW154025   5.570   2.881   5.758
50731SOL    HW254026   5.623   2.965   5.872
50732SOL     OW54027  10.202   5.220   8.788
50732SOL    HW154028  10.227   5.292   8.845
50732SOL    HW254029  10.275   5.212   8.726
50733SOL     OW54030   7.788   9.337   9.505
50733SOL    HW154031   7.768   9.317   9.597
50733SOL    HW254032   7.854   9.406   9.509
50734SOL     OW54033  12.791   5.066  14.267
50734SOL    HW154034  12.801   5.025  14.353
50734SOL    HW254035  12.872   5.044  14.220
50735SOL     OW54036   0.055   7.767  14.745
50735SOL    HW154037   0.027   7.815  14.668
50735SOL    HW254038  14.860   7.778  14.808
50736SOL     OW54039  13.966   2.575   6.995
50736SOL    HW154040  14.031   2.641   7.021
50736SOL    HW254041  13.973   2.571   6.900
50737SOL     OW54042   0.602  14.705  13.634
50737SOL    HW154043   0.620  14.615  13.663
50737SOL    HW254044   0.528  14.697  13.574
50738SOL     OW54045  14.559   9.371   6.490
50738SOL    HW154046  14.578   9.281   6.461
50738SOL    HW254047  14.466   9.383   6.472
50739SOL     OW54048   0.040   8.307   9.698
50739SOL    HW154049   0.008   8.292   9.787
50739SOL    HW254050   0.098   8.233   9.681
50740SOL     OW54051  12.129   1.640   6.726
50740SOL    HW154052  12.041   1.672   6.748
50740SOL    HW254053  12.186   1.678   6.793
50741SOL     OW54054  12.416  11.715  12.061
50741SOL    HW154055  12.478  11.787  12.046
50741SOL    HW254056  12.411  11.707  12.156
50742SOL     OW54057  12.245   0.168  10.627
50742SOL    HW154058  12.325   0.146  10.579
50742SOL    HW254059  12.269   0.245  10.679
50743SOL     OW54060  12.949   7.023  14.124
50743SOL    HW154061  12.874   6.979  14.084
50743SOL    HW254062  12.981   7.083  14.057
50744SOL     OW54063   0.700  14.179  13.604
50744SOL    HW154064   0.750  14.175  13.523
50744SOL    HW254065   0.746  14.121  13.665
50745SOL     OW54066   3.989   8.397  10.655
50745SOL    HW154067   3.903   8.406  10.696
50745SOL    HW254068   3.975   8.333  10.584
50746SOL     OW54069  14.144   3.629   0.141
50746SOL    HW154070  14.150   3.607   0.048
50746SOL    HW254071  14.079   3.568   0.176
50747SOL     OW54072   3.642   0.186   2.655
50747SOL    HW154073   3.660   0.272   2.692
50747SOL    HW254074   3.558   0.160   2.693
50748SOL     OW54075   9.550  12.852   8.980
50748SOL    HW154076   9.623  12.869   8.920
50748SOL    HW254077   9.471  12.866   8.927
50749SOL     OW54078  14.555   3.540   6.306
50749SOL    HW154079  14.463   3.533   6.283
50749SOL    HW254080  14.598   3.570   6.226
50750SOL     OW54081   5.182   6.156  12.436
50750SOL    HW154082   5.175   6.209  12.516
50750SOL    HW254083   5.240   6.084  12.459
50751SOL     OW54084   9.124   4.732   8.654
50751SOL    HW154085   9.068   4.669   8.607
50751SOL    HW254086   9.063   4.783   8.707
50752SOL     OW54087  12.007   8.991   4.498
50752SOL    HW154088  11.984   9.020   4.586
50752SOL    HW254089  12.070   8.920   4.511
50753SOL     OW54090   5.345  12.801   6.413
50753SOL    HW154091   5.428  12.760   6.437
50753SOL    HW254092   5.333  12.778   6.320
50754SOL     OW54093   2.112   4.548   0.642
50754SOL    HW154094   2.127   4.566   0.735
50754SOL    HW254095   2.062   4.623   0.611
50755SOL     OW54096  11.292   1.487   8.712
50755SOL    HW154097  11.276   1.457   8.802
50755SOL    HW254098  11.204   1.492   8.673
50756SOL     OW54099   7.775  11.865  12.222
50756SOL    HW154100   7.794  11.891  12.312
50756SOL    HW254101   7.861  11.847  12.184
50757SOL     OW54102   9.091  11.140   9.190
50757SOL    HW154103   9.163  11.193   9.225
50757SOL    HW254104   9.128  11.053   9.180
50758SOL     OW54105  12.340   7.710   1.520
50758SOL    HW154106  12.266   7.653   1.501
50758SOL    HW254107  12.353   7.703   1.614
50759SOL     OW54108   3.601  11.106  10.128
50759SOL    HW154109   3.644  11.024  10.149
50759SOL    HW254110   3.602  11.110  10.032
50760SOL     OW54111   8.390   5.103   4.556
50760SOL    HW154112   8.463   5.164   4.567
50760SOL    HW254113   8.428   5.017   4.572
50761SOL     OW54114   1.005  11.279  13.113
50761SOL    HW154115   0.965  11.193  13.102
50761SOL    HW254116   1.090  11.272  13.071
50762SOL     OW54117   2.473   4.318   9.959
50762SOL    HW154118   2.396   4.318   9.901
50762SOL    HW254119   2.548   4.325   9.900
50763SOL     OW54120   6.768  11.199   3.417
50763SOL    HW154121   6.748  11.265   3.350
50763SOL    HW254122   6.771  11.116   3.369
50764SOL     OW54123   5.489   0.478  11.189
50764SOL    HW154124   5.524   0.502  11.274
50764SOL    HW254125   5.510   0.551  11.132
50765SOL     OW54126   2.174   8.851  10.308
50765SOL    HW154127   2.212   8.910  10.373
50765SOL    HW254128   2.080   8.855  10.323
50766SOL     OW54129  13.276  12.826   5.122
50766SOL    HW154130  13.224  12.849   5.199
50766SOL    HW254131  13.280  12.730   5.124
50767SOL     OW54132   4.428   4.807  12.052
50767SOL    HW154133   4.478   4.775  12.127
50767SOL    HW254134   4.491   4.809  11.980
50768SOL     OW54135   1.995   5.151  10.752
50768SOL    HW154136   1.936   5.162  10.677
50768SOL    HW254137   2.033   5.064  10.741
50769SOL     OW54138   5.805   0.954  13.258
50769SOL    HW154139   5.739   1.004  13.306
50769SOL    HW254140   5.841   0.893  13.323
50770SOL     OW54141  14.783  12.962   4.706
50770SOL    HW154142  14.847  13.031   4.722
50770SOL    HW254143  14.726  12.963   4.783
50771SOL     OW54144   7.634   0.259   0.359
50771SOL    HW154145   7.594   0.176   0.334
50771SOL    HW254146   7.640   0.309   0.278
50772SOL     OW54147  11.245  12.989  13.156
50772SOL    HW154148  11.263  13.053  13.225
50772SOL    HW254149  11.292  12.910  13.184
50773SOL     OW54150   7.118   3.192  11.096
50773SOL    HW154151   7.094   3.108  11.136
50773SOL    HW254152   7.035   3.233  11.073
50774SOL     OW54153   4.024  12.550   2.807
50774SOL    HW154154   4.003  12.588   2.892
50774SOL    HW254155   4.114  12.576   2.791
50775SOL     OW54156   4.045   9.468   6.323
50775SOL    HW154157   3.969   9.527   6.321
50775SOL    HW254158   4.121   9.526   6.316
50776SOL     OW54159  13.468   3.178  12.900
50776SOL    HW154160  13.473   3.082  12.900
50776SOL    HW254161  13.480   3.202  12.808
50777SOL     OW54162   1.593   7.707   4.028
50777SOL    HW154163   1.497   7.713   4.027
50777SOL    HW254164   1.621   7.796   4.051
50778SOL     OW54165   9.424   9.970   5.849
50778SOL    HW154166   9.455   9.997   5.936
50778SOL    HW254167   9.331   9.989   5.850
50779SOL     OW54168  11.264  12.607  12.337
50779SOL    HW154169  11.182  12.591  12.290
50779SOL    HW254170  11.318  12.530  12.318
50780SOL     OW54171   7.285  11.718  13.516
50780SOL    HW154172   7.258  11.761  13.436
50780SOL    HW254173   7.231  11.639  13.521
50781SOL     OW54174  12.039   6.779   6.052
50781SOL    HW154175  12.102   6.709   6.072
50781SOL    HW254176  11.987   6.788   6.132
50782SOL     OW54177  11.880   7.138  10.438
50782SOL    HW154178  11.965   7.135  10.483
50782SOL    HW254179  11.833   7.061  10.470
50783SOL     OW54180   9.485  13.841   7.904
50783SOL    HW154181   9.434  13.919   7.925
50783SOL    HW254182   9.427  13.788   7.850
50784SOL     OW54183   7.454  11.398   2.781
50784SOL    HW154184   7.543  11.403   2.814
50784SOL    HW254185   7.426  11.309   2.802
50785SOL     OW54186   0.125   6.667   9.306
50785SOL    HW154187   0.110   6.705   9.219
50785SOL    HW254188   0.179   6.731   9.352
50786SOL     OW54189   5.301   7.484   3.171
50786SOL    HW154190   5.370   7.545   3.199
50786SOL    HW254191   5.228   7.503   3.229
50787SOL     OW54192  13.440   5.950   1.228
50787SOL    HW154193  13.478   6.030   1.192
50787SOL    HW254194  13.350   5.950   1.196
50788SOL     OW54195   5.504  10.230   7.794
50788SOL    HW154196   5.468  10.226   7.883
50788SOL    HW254197   5.491  10.141   7.760
50789SOL     OW54198   2.978   1.405  14.798
50789SOL    HW154199   3.002   1.329  14.745
50789SOL    HW254200   3.061   1.448  14.819
50790SOL     OW54201   0.637  11.979   5.482
50790SOL    HW154202   0.605  12.070   5.482
50790SOL    HW254203   0.617  11.947   5.570
50791SOL     OW54204  11.674   7.590   9.967
50791SOL    HW154205  11.623   7.530   9.913
50791SOL    HW254206  11.621   7.670   9.969
50792SOL     OW54207   3.703   7.634   7.152
50792SOL    HW154208   3.650   7.607   7.226
50792SOL    HW254209   3.692   7.729   7.148
50793SOL     OW54210   6.922  12.333   4.796
50793SOL    HW154211   6.857  12.266   4.777
50793SOL    HW254212   6.892  12.372   4.878
50794SOL     OW54213  10.514   2.014   7.886
50794SOL    HW154214  10.465   2.090   7.918
50794SOL    HW254215  10.605   2.032   7.909
50795SOL     OW54216   4.178  11.541   7.433
50795SOL    HW154217   4.172  11.450   7.461
50795SOL    HW254218   4.115  11.548   7.361
50796SOL     OW54219  10.244  10.896  11.228
50796SOL    HW154220  10.274  10.865  11.313
50796SOL    HW254221  10.311  10.958  11.199
50797SOL     OW54222  12.305  10.517  10.161
50797SOL    HW154223  12.319  10.582  10.230
50797SOL    HW254224  12.379  10.458  10.168
50798SOL     OW54225   5.872   3.068  12.494
50798SOL    HW154226   5.953   3.106  12.527
50798SOL    HW254227   5.830   3.031  12.571
50799SOL     OW54228   3.282   5.961   3.312
50799SOL    HW154229   3.212   6.006   3.265
50799SOL    HW254230   3.363   5.994   3.272
50800SOL     OW54231   8.220  13.293   4.178
50800SOL    HW154232   8.300  13.290   4.230
50800SOL    HW254233   8.170  13.216   4.205
50801SOL     OW54234   4.776  11.049  10.412
50801SOL    HW154235   4.812  11.083  10.331
50801SOL    HW254236   4.845  10.994  10.448
50802SOL     OW54237   6.761  13.715   7.815
50802SOL    HW154238   6.846  13.748   7.846
50802SOL    HW254239   6.697  13.756   7.873
50803SOL     OW54240   4.578   4.645  13.418
50803SOL    HW154241   4.583   4.572  13.480
50803SOL    HW254242   4.665   4.649  13.379
50804SOL     OW54243  10.713   1.463  13.452
50804SOL    HW154244  10.785   1.452  13.390
50804SOL    HW254245  10.676   1.375  13.461
50805SOL     OW54246   5.814   9.433  13.172
50805SOL    HW154247   5.803   9.403  13.082
50805SOL    HW254248   5.779   9.363  13.226
50806SOL     OW54249   8.918   5.183   6.127
50806SOL    HW154250   8.999   5.201   6.079
50806SOL    HW254251   8.873   5.118   6.073
50807SOL     OW54252   4.730   3.746   7.809
50807SOL    HW154253   4.824   3.730   7.811
50807SOL    HW254254   4.692   3.677   7.864
50808SOL     OW54255   0.606   8.666   8.012
50808SOL    HW154256   0.666   8.657   7.938
50808SOL    HW254257   0.657   8.636   8.088
50809SOL     OW54258  13.712  12.815   3.378
50809SOL    HW154259  13.778  12.879   3.404
50809SOL    HW254260  13.689  12.769   3.459
50810SOL     OW54261  14.373   0.885   8.610
50810SOL    HW154262  14.396   0.876   8.517
50810SOL    HW254263  14.440   0.944   8.645
50811SOL     OW54264   5.077   8.566   6.951
50811SOL    HW154265   5.137   8.518   6.894
50811SOL    HW254266   5.059   8.506   7.023
50812SOL     OW54267   5.816   3.976   0.264
50812SOL    HW154268   5.770   4.050   0.226
50812SOL    HW254269   5.900   3.974   0.218
50813SOL     OW54270   0.475   2.248  12.282
50813SOL    HW154271   0.513   2.240  12.369
50813SOL    HW254272   0.394   2.297  12.296
50814SOL     OW54273  10.393  12.218   0.756
50814SOL    HW154274  10.467  12.222   0.695
50814SOL    HW254275  10.362  12.308   0.763
50815SOL     OW54276  11.648   4.387   8.346
50815SOL    HW154277  11.724   4.333   8.327
50815SOL    HW254278  11.604   4.342   8.419
50816SOL     OW54279  12.356   2.809   2.592
50816SOL    HW154280  12.347   2.834   2.684
50816SOL    HW254281  12.439   2.848   2.564
50817SOL     OW54282   1.712  12.782  13.571
50817SOL    HW154283   1.695  12.689  13.563
50817SOL    HW254284   1.772  12.790  13.646
50818SOL     OW54285  11.202   9.104   5.945
50818SOL    HW154286  11.225   9.157   5.869
50818SOL    HW254287  11.218   9.014   5.917
50819SOL     OW54288   6.555  13.995   9.592
50819SOL    HW154289   6.507  13.953   9.664
50819SOL    HW254290   6.527  13.946   9.515
50820SOL     OW54291   9.563   9.474  12.545
50820SOL    HW154292   9.647   9.449  12.506
50820SOL    HW254293   9.563   9.569  12.543
50821SOL     OW54294  11.655  13.068  10.485
50821SOL    HW154295  11.578  13.123  10.492
50821SOL    HW254296  11.721  13.111  10.539
50822SOL     OW54297   4.174  10.770   0.865
50822SOL    HW154298   4.233  10.745   0.937
50822SOL    HW254299   4.136  10.687   0.836
50823SOL     OW54300  12.591  14.635   0.975
50823SOL    HW154301  12.628  14.563   1.027
50823SOL    HW254302  12.657  14.704   0.980
50824SOL     OW54303   8.993   7.788   2.735
50824SOL    HW154304   8.948   7.721   2.786
50824SOL    HW254305   9.086   7.776   2.753
50825SOL     OW54306   3.881   0.623  13.400
50825SOL    HW154307   3.904   0.715  13.386
50825SOL    HW254308   3.785   0.622  13.401
50826SOL     OW54309   5.771   7.141  14.415
50826SOL    HW154310   5.825   7.062  14.402
50826SOL    HW254311   5.805   7.203  14.351
50827SOL     OW54312   0.976   3.240   7.322
50827SOL    HW154313   0.963   3.296   7.246
50827SOL    HW254314   1.045   3.179   7.296
50828SOL     OW54315  12.653   5.289   7.975
50828SOL    HW154316  12.653   5.201   7.937
50828SOL    HW254317  12.732   5.291   8.029
50829SOL     OW54318  13.188  12.330   2.484
50829SOL    HW154319  13.158  12.397   2.423
50829SOL    HW254320  13.283  12.333   2.478
50830SOL     OW54321   7.185   4.780  11.742
50830SOL    HW154322   7.218   4.702  11.698
50830SOL    HW254323   7.189   4.759  11.836
50831SOL     OW54324   0.886  12.972   4.244
50831SOL    HW154325   0.795  12.980   4.273
50831SOL    HW254326   0.937  12.968   4.325
50832SOL     OW54327   0.269   8.995  13.291
50832SOL    HW154328   0.257   9.063  13.224
50832SOL    HW254329   0.302   9.042  13.367
50833SOL     OW54330   6.777   0.958   7.211
50833SOL    HW154331   6.754   1.051   7.200
50833SOL    HW254332   6.761   0.920   7.124
50834SOL     OW54333  13.686   5.247   8.600
50834SOL    HW154334  13.621   5.212   8.660
50834SOL    HW254335  13.673   5.342   8.602
50835SOL     OW54336   7.330   7.521   3.725
50835SOL    HW154337   7.373   7.565   3.798
50835SOL    HW254338   7.398   7.514   3.658
50836SOL     OW54339  14.342  13.937  13.941
50836SOL    HW154340  14.399  13.886  13.884
50836SOL    HW254341  14.329  13.883  14.018
50837SOL     OW54342   3.495  11.396  14.734
50837SOL    HW154343   3.482  11.324  14.673
50837SOL    HW254344   3.579  11.435  14.709
50838SOL     OW54345   8.487   2.705   5.262
50838SOL    HW154346   8.479   2.792   5.223
50838SOL    HW254347   8.510   2.722   5.354
50839SOL     OW54348   7.735   5.957   4.781
50839SOL    HW154349   7.683   6.005   4.846
50839SOL    HW254350   7.779   6.025   4.730
50840SOL     OW54351  13.279   2.481   2.660
50840SOL    HW154352  13.214   2.514   2.599
50840SOL    HW254353  13.227   2.440   2.729
50841SOL     OW54354   9.685  12.223   0.308
50841SOL    HW154355   9.599  12.188   0.287
50841SOL    HW254356   9.667  12.302   0.359
50842SOL     OW54357  11.372   4.274  11.972
50842SOL    HW154358  11.387   4.273  11.878
50842SOL    HW254359  11.360   4.183  11.996
50843SOL     OW54360   2.232  14.279   3.435
50843SOL    HW154361   2.324  14.293   3.461
50843SOL    HW254362   2.220  14.184   3.440
50844SOL     OW54363  14.209   9.637  11.174
50844SOL    HW154364  14.114   9.641  11.171
50844SOL    HW254365  14.229   9.571  11.241
50845SOL     OW54366   8.372   1.973   2.383
50845SOL    HW154367   8.296   1.920   2.408
50845SOL    HW254368   8.386   2.032   2.457
50846SOL     OW54369   1.500   7.721  10.411
50846SOL    HW154370   1.414   7.728  10.370
50846SOL    HW254371   1.490   7.653  10.477
50847SOL     OW54372  12.362  14.080   2.706
50847SOL    HW154373  12.311  14.144   2.757
50847SOL    HW254374  12.350  14.107   2.615
50848SOL     OW54375   7.496  12.872  11.544
50848SOL    HW154376   7.502  12.793  11.597
50848SOL    HW254377   7.581  12.877  11.499
50849SOL     OW54378   9.197   9.608  10.843
50849SOL    HW154379   9.107   9.603  10.811
50849SOL    HW254380   9.250   9.616  10.764
50850SOL     OW54381  12.279  11.181   4.176
50850SOL    HW154382  12.308  11.175   4.085
50850SOL    HW254383  12.258  11.091   4.200
50851SOL     OW54384  14.309   4.114   1.762
50851SOL    HW154385  14.381   4.057   1.739
50851SOL    HW254386  14.285   4.089   1.851
50852SOL     OW54387   8.856   9.161   0.626
50852SOL    HW154388   8.896   9.213   0.557
50852SOL    HW254389   8.889   9.072   0.611
50853SOL     OW54390   2.221   0.641   2.974
50853SOL    HW154391   2.271   0.572   2.931
50853SOL    HW254392   2.194   0.603   3.058
50854SOL     OW54393   4.905   6.061   7.340
50854SOL    HW154394   4.855   6.142   7.325
50854SOL    HW254395   4.838   5.994   7.352
50855SOL     OW54396   6.274  11.507   1.638
50855SOL    HW154397   6.262  11.452   1.715
50855SOL    HW254398   6.351  11.471   1.594
50856SOL     OW54399   9.757   6.653   0.334
50856SOL    HW154400   9.693   6.598   0.379
50856SOL    HW254401   9.751   6.626   0.242
50857SOL     OW54402   3.447   2.677   3.472
50857SOL    HW154403   3.378   2.722   3.425
50857SOL    HW254404   3.463   2.731   3.550
50858SOL     OW54405  10.339   4.679  12.912
50858SOL    HW154406  10.255   4.637  12.892
50858SOL    HW254407  10.315   4.766  12.946
50859SOL     OW54408   4.444   8.134   0.561
50859SOL    HW154409   4.418   8.082   0.485
50859SOL    HW254410   4.383   8.109   0.630
50860SOL     OW54411  14.145   4.479   8.280
50860SOL    HW154412  14.149   4.505   8.188
50860SOL    HW254413  14.230   4.505   8.316
50861SOL     OW54414   6.282   5.557   3.800
50861SOL    HW154415   6.342   5.483   3.799
50861SOL    HW254416   6.261   5.573   3.708
50862SOL     OW54417  12.817   2.041  13.905
50862SOL    HW154418  12.721   2.044  13.911
50862SOL    HW254419  12.845   2.128  13.935
50863SOL     OW54420   9.987   7.816   0.108
50863SOL    HW154421   9.927   7.742   0.120
50863SOL    HW254422  10.061   7.795   0.164
50864SOL     OW54423   6.852   6.406  14.854
50864SOL    HW154424   6.775   6.432  14.805
50864SOL    HW254425   6.839   6.442   0.066
50865SOL     OW54426   3.956  13.401  13.321
50865SOL    HW154427   3.957  13.452  13.402
50865SOL    HW254428   3.869  13.360  13.319
50866SOL     OW54429  14.540   1.615   7.337
50866SOL    HW154430  14.478   1.566   7.391
50866SOL    HW254431  14.625   1.577   7.357
50867SOL     OW54432   9.193   0.578   7.210
50867SOL    HW154433   9.277   0.574   7.256
50867SOL    HW254434   9.199   0.656   7.156
50868SOL     OW54435  11.254   5.129   3.014
50868SOL    HW154436  11.206   5.140   3.096
50868SOL    HW254437  11.215   5.194   2.955
50869SOL     OW54438   7.767   6.299  12.412
50869SOL    HW154439   7.824   6.259  12.478
50869SOL    HW254440   7.703   6.350  12.462
50870SOL     OW54441  12.765   7.354   7.892
50870SOL    HW154442  12.854   7.377   7.919
50870SOL    HW254443  12.732   7.433   7.850
50871SOL     OW54444   7.756  13.345   6.609
50871SOL    HW154445   7.676  13.308   6.646
50871SOL    HW254446   7.729  13.428   6.570
50872SOL     OW54447   9.065   5.056  11.183
50872SOL    HW154448   9.072   5.138  11.233
50872SOL    HW254449   8.972   5.049  11.163
50873SOL     OW54450   3.451  12.470   6.198
50873SOL    HW154451   3.365  12.499   6.231
50873SOL    HW254452   3.432  12.431   6.113
50874SOL     OW54453   2.065   4.364  14.076
50874SOL    HW154454   2.007   4.288  14.085
50874SOL    HW254455   2.053   4.413  14.157
50875SOL     OW54456   1.400   1.710   3.460
50875SOL    HW154457   1.345   1.704   3.382
50875SOL    HW254458   1.486   1.737   3.426
50876SOL     OW54459  14.496   7.410  13.706
50876SOL    HW154460  14.429   7.378  13.646
50876SOL    HW254461  14.507   7.338  13.769
50877SOL     OW54462  13.103  12.155   9.352
50877SOL    HW154463  13.091  12.094   9.425
50877SOL    HW254464  13.167  12.113   9.295
50878SOL     OW54465   4.893   5.248   1.567
50878SOL    HW154466   4.892   5.325   1.511
50878SOL    HW254467   4.977   5.253   1.613
50879SOL     OW54468   2.927  13.812   2.179
50879SOL    HW154469   2.868  13.847   2.113
50879SOL    HW254470   2.967  13.890   2.220
50880SOL     OW54471   8.878   2.954  14.836
50880SOL    HW154472   8.942   2.957  14.765
50880SOL    HW254473   8.822   2.879  14.815
50881SOL     OW54474   3.839   5.175   7.790
50881SOL    HW154475   3.765   5.218   7.747
50881SOL    HW254476   3.799   5.124   7.861
50882SOL     OW54477  12.508   6.675   2.438
50882SOL    HW154478  12.462   6.593   2.420
50882SOL    HW254479  12.448   6.725   2.494
50883SOL     OW54480  12.809  11.684   2.237
50883SOL    HW154481  12.797  11.592   2.216
50883SOL    HW254482  12.873  11.716   2.174
50884SOL     OW54483  14.352   5.870   3.963
50884SOL    HW154484  14.428   5.863   3.906
50884SOL    HW254485  14.307   5.949   3.933
50885SOL     OW54486   0.172  14.357   3.866
50885SOL    HW154487   0.230  14.308   3.807
50885SOL    HW254488   0.177  14.310   3.949
50886SOL     OW54489   3.107  13.253  11.960
50886SOL    HW154490   3.136  13.328  12.012
50886SOL    HW254491   3.013  13.245  11.978
50887SOL     OW54492   1.080   2.737   3.553
50887SOL    HW154493   1.052   2.652   3.517
50887SOL    HW254494   1.141   2.772   3.488
50888SOL     OW54495   4.207   9.551   8.665
50888SOL    HW154496   4.124   9.569   8.708
50888SOL    HW254497   4.189   9.475   8.609
50889SOL     OW54498   4.665   9.395  14.225
50889SOL    HW154499   4.721   9.471  14.245
50889SOL    HW254500   4.577   9.425  14.246
50890SOL     OW54501  13.782   0.215   5.943
50890SOL    HW154502  13.720   0.189   6.011
50890SOL    HW254503  13.829   0.290   5.980
50891SOL     OW54504  10.154   7.874  14.560
50891SOL    HW154505  10.207   7.818  14.504
50891SOL    HW254506  10.099   7.923  14.500
50892SOL     OW54507   4.474   8.660  13.661
50892SOL    HW154508   4.483   8.679  13.754
50892SOL    HW254509   4.512   8.573  13.650
50893SOL     OW54510   7.899  10.826   8.335
50893SOL    HW154511   7.874  10.771   8.409
50893SOL    HW254512   7.879  10.915   8.365
50894SOL     OW54513   6.992   0.131  11.620
50894SOL    HW154514   6.970   0.122  11.713
50894SOL    HW254515   7.077   0.176  11.620
50895SOL     OW54516   4.510  12.473   1.389
50895SOL    HW154517   4.430  12.436   1.427
50895SOL    HW254518   4.479  12.528   1.317
50896SOL     OW54519  10.474   5.973   7.932
50896SOL    HW154520  10.452   5.974   7.838
50896SOL    HW254521  10.526   6.052   7.945
50897SOL     OW54522   3.623   5.682   0.033
50897SOL    HW154523   3.562   5.731   0.089
50897SOL    HW254524   3.580   5.681  14.823
50898SOL     OW54525  11.544  10.240  13.782
50898SOL    HW154526  11.504  10.276  13.862
50898SOL    HW254527  11.479  10.256  13.714
50899SOL     OW54528  12.859   0.794   1.490
50899SOL    HW154529  12.830   0.704   1.479
50899SOL    HW254530  12.952   0.787   1.513
50900SOL     OW54531   1.325   8.770   9.592
50900SOL    HW154532   1.287   8.683   9.578
50900SOL    HW254533   1.260   8.830   9.557
50901SOL     OW54534   3.932   6.619   8.333
50901SOL    HW154535   3.960   6.706   8.361
50901SOL    HW254536   3.991   6.597   8.260
50902SOL     OW54537   7.427  14.278   1.555
50902SOL    HW154538   7.444  14.359   1.507
50902SOL    HW254539   7.336  14.286   1.584
50903SOL     OW54540   2.613   1.109   5.810
50903SOL    HW154541   2.699   1.117   5.770
50903SOL    HW254542   2.552   1.117   5.737
50904SOL     OW54543   5.031   3.812   9.395
50904SOL    HW154544   5.050   3.892   9.444
50904SOL    HW254545   5.065   3.742   9.450
50905SOL     OW54546  11.311   3.430   1.769
50905SOL    HW154547  11.316   3.524   1.750
50905SOL    HW254548  11.389   3.393   1.727
50906SOL     OW54549   2.223   8.871   0.529
50906SOL    HW154550   2.159   8.890   0.461
50906SOL    HW254551   2.206   8.780   0.553
50907SOL     OW54552   2.752   7.336   7.244
50907SOL    HW154553   2.778   7.402   7.309
50907SOL    HW254554   2.669   7.367   7.210
50908SOL     OW54555   3.467   7.077   7.778
50908SOL    HW154556   3.405   7.010   7.750
50908SOL    HW254557   3.452   7.151   7.719
50909SOL     OW54558   2.552   5.715   5.192
50909SOL    HW154559   2.481   5.709   5.129
50909SOL    HW254560   2.632   5.706   5.140
50910SOL     OW54561  10.450   8.912   3.483
50910SOL    HW154562  10.535   8.955   3.490
50910SOL    HW254563  10.429   8.915   3.389
50911SOL     OW54564   2.729   7.092   8.914
50911SOL    HW154565   2.811   7.142   8.911
50911SOL    HW254566   2.689   7.118   8.998
50912SOL     OW54567  10.245   1.459   5.441
50912SOL    HW154568  10.176   1.483   5.379
50912SOL    HW254569  10.211   1.486   5.526
50913SOL     OW54570   9.905   1.842   3.602
50913SOL    HW154571   9.860   1.843   3.687
50913SOL    HW254572   9.990   1.802   3.620
50914SOL     OW54573  10.486  10.754   6.958
50914SOL    HW154574  10.451  10.686   6.901
50914SOL    HW254575  10.546  10.708   7.017
50915SOL     OW54576   1.241  11.267   3.569
50915SOL    HW154577   1.165  11.322   3.553
50915SOL    HW254578   1.253  11.268   3.664
50916SOL     OW54579   4.672   4.476   7.245
50916SOL    HW154580   4.592   4.483   7.297
50916SOL    HW254581   4.732   4.425   7.299
50917SOL     OW54582  14.416   1.041  14.184
50917SOL    HW154583  14.357   1.031  14.109
50917SOL    HW254584  14.490   1.090  14.150
50918SOL     OW54585  11.989  11.308  13.217
50918SOL    HW154586  11.978  11.310  13.122
50918SOL    HW254587  11.925  11.370  13.250
50919SOL     OW54588   5.542  10.957   3.639
50919SOL    HW154589   5.492  10.895   3.693
50919SOL    HW254590   5.548  11.035   3.694
50920SOL     OW54591   6.488  11.019   7.073
50920SOL    HW154592   6.478  10.932   7.036
50920SOL    HW254593   6.530  11.005   7.158
50921SOL     OW54594   1.995  10.478  14.717
50921SOL    HW154595   1.907  10.510  14.733
50921SOL    HW254596   2.035  10.473  14.804
50922SOL     OW54597  14.842  10.775   7.975
50922SOL    HW154598  14.774  10.725   7.930
50922SOL    HW254599  14.802  10.798   8.059
50923SOL     OW54600  13.119   4.836   1.640
50923SOL    HW154601  13.049   4.794   1.590
50923SOL    HW254602  13.116   4.794   1.726
50924SOL     OW54603   4.797   0.460   2.825
50924SOL    HW154604   4.734   0.390   2.811
50924SOL    HW254605   4.750   0.525   2.879
50925SOL     OW54606   4.611  10.138   3.858
50925SOL    HW154607   4.637  10.084   3.933
50925SOL    HW254608   4.516  10.127   3.853
50926SOL     OW54609   7.863   0.064  12.777
50926SOL    HW154610   7.848  14.847  12.790
50926SOL    HW254611   7.948   0.069  12.733
50927SOL     OW54612   5.286   1.581   9.630
50927SOL    HW154613   5.240   1.507   9.669
50927SOL    HW254614   5.224   1.654   9.638
50928SOL     OW54615   6.558   0.771   9.097
50928SOL    HW154616   6.546   0.715   9.020
50928SOL    HW254617   6.652   0.789   9.098
50929SOL     OW54618  10.067   7.499  11.306
50929SOL    HW154619  10.153   7.469  11.275
50929SOL    HW254620  10.077   7.504  11.401
50930SOL     OW54621  14.473  12.767   5.781
50930SOL    HW154622  14.383  12.787   5.756
50930SOL    HW254623  14.525  12.798   5.708
50931SOL     OW54624  14.465   2.977  10.632
50931SOL    HW154625  14.386   2.927  10.652
50931SOL    HW254626  14.485   3.023  10.714
50932SOL     OW54627   2.727   4.557  12.088
50932SOL    HW154628   2.690   4.585  12.005
50932SOL    HW254629   2.659   4.576  12.152
50933SOL     OW54630   3.430   2.151   3.157
50933SOL    HW154631   3.374   2.087   3.115
50933SOL    HW254632   3.395   2.236   3.129
50934SOL     OW54633   3.959   5.663   7.838
50934SOL    HW154634   3.929   5.577   7.809
50934SOL    HW254635   3.942   5.720   7.762
50935SOL     OW54636   6.474   2.596   8.250
50935SOL    HW154637   6.469   2.534   8.323
50935SOL    HW254638   6.410   2.565   8.187
50936SOL     OW54639  13.428  12.921  13.064
50936SOL    HW154640  13.451  12.926  13.156
50936SOL    HW254641  13.509  12.896  13.020
50937SOL     OW54642   8.601   0.706  12.708
50937SOL    HW154643   8.565   0.626  12.671
50937SOL    HW254644   8.525   0.756  12.737
50938SOL     OW54645   6.864   5.590  12.330
50938SOL    HW154646   6.846   5.680  12.357
50938SOL    HW254647   6.784   5.561  12.287
50939SOL     OW54648   8.483   0.316   3.594
50939SOL    HW154649   8.391   0.297   3.575
50939SOL    HW254650   8.516   0.235   3.635
50940SOL     OW54651  12.292  12.638   8.505
50940SOL    HW154652  12.284  12.726   8.541
50940SOL    HW254653  12.242  12.641   8.423
50941SOL     OW54654   8.523   2.406  13.300
50941SOL    HW154655   8.608   2.378  13.268
50941SOL    HW254656   8.507   2.490  13.258
50942SOL     OW54657   8.365   3.463  11.576
50942SOL    HW154658   8.434   3.398  11.567
50942SOL    HW254659   8.291   3.428  11.526
50943SOL     OW54660  10.974  11.382   9.623
50943SOL    HW154661  10.916  11.439   9.674
50943SOL    HW254662  10.947  11.293   9.647
50944SOL     OW54663   6.419   2.693   1.178
50944SOL    HW154664   6.418   2.638   1.099
50944SOL    HW254665   6.401   2.633   1.250
50945SOL     OW54666   5.633  13.764  13.357
50945SOL    HW154667   5.678  13.682  13.335
50945SOL    HW254668   5.559  13.736  13.411
50946SOL     OW54669  10.651  11.243   1.543
50946SOL    HW154670  10.726  11.247   1.484
50946SOL    HW254671  10.590  11.182   1.501
50947SOL     OW54672  14.006   1.200  10.068
50947SOL    HW154673  14.053   1.135  10.016
50947SOL    HW254674  14.000   1.161  10.156
50948SOL     OW54675  14.633   7.586   9.620
50948SOL    HW154676  14.538   7.593   9.627
50948SOL    HW254677  14.654   7.501   9.659
50949SOL     OW54678   5.550   5.228   6.589
50949SOL    HW154679   5.481   5.291   6.572
50949SOL    HW254680   5.556   5.176   6.509
50950SOL     OW54681   9.937   2.843  12.160
50950SOL    HW154682   9.983   2.909  12.212
50950SOL    HW254683   9.974   2.759  12.188
50951SOL     OW54684   8.902  11.809   0.846
50951SOL    HW154685   8.840  11.737   0.857
50951SOL    HW254686   8.858  11.868   0.784
50952SOL     OW54687   1.979   4.973   5.541
50952SOL    HW154688   2.034   4.898   5.521
50952SOL    HW254689   1.977   5.024   5.461
50953SOL     OW54690   0.280  10.413  10.140
50953SOL    HW154691   0.243  10.352  10.076
50953SOL    HW254692   0.257  10.500  10.106
50954SOL     OW54693   8.461   3.801   8.542
50954SOL    HW154694   8.497   3.885   8.570
50954SOL    HW254695   8.436   3.757   8.623
50955SOL     OW54696   1.995   4.750   1.608
50955SOL    HW154697   1.972   4.743   1.701
50955SOL    HW254698   1.947   4.679   1.566
50956SOL     OW54699   7.394  13.263  10.568
50956SOL    HW154700   7.398  13.344  10.618
50956SOL    HW254701   7.469  13.266  10.509
50957SOL     OW54702   3.402  12.175  10.856
50957SOL    HW154703   3.344  12.220  10.917
50957SOL    HW254704   3.368  12.086  10.851
50958SOL     OW54705  12.048  13.682  11.249
50958SOL    HW154706  12.101  13.762  11.241
50958SOL    HW254707  12.077  13.642  11.331
50959SOL     OW54708   9.002   9.324  13.568
50959SOL    HW154709   8.991   9.370  13.484
50959SOL    HW254710   8.978   9.233  13.548
50960SOL     OW54711  13.374   2.506  12.879
50960SOL    HW154712  13.425   2.524  12.958
50960SOL    HW254713  13.306   2.574  12.877
50961SOL     OW54714   9.717  11.159  12.697
50961SOL    HW154715   9.712  11.069  12.730
50961SOL    HW254716   9.756  11.208  12.769
50962SOL     OW54717  11.520   7.131  10.944
50962SOL    HW154718  11.435   7.111  10.905
50962SOL    HW254719  11.508   7.116  11.038
50963SOL     OW54720   0.191   2.077   5.324
50963SOL    HW154721   0.167   2.060   5.233
50963SOL    HW254722   0.209   1.991   5.361
50964SOL     OW54723   9.741   4.785   4.861
50964SOL    HW154724   9.720   4.775   4.768
50964SOL    HW254725   9.748   4.880   4.874
50965SOL     OW54726   1.448   6.143   8.704
50965SOL    HW154727   1.538   6.120   8.682
50965SOL    HW254728   1.402   6.060   8.705
50966SOL     OW54729   4.139   3.717   1.725
50966SOL    HW154730   4.074   3.788   1.718
50966SOL    HW254731   4.221   3.762   1.743
50967SOL     OW54732  12.299   7.462   0.968
50967SOL    HW154733  12.217   7.464   0.918
50967SOL    HW254734  12.274   7.420   1.050
50968SOL     OW54735  13.971   4.069   5.829
50968SOL    HW154736  13.937   4.017   5.756
50968SOL    HW254737  13.932   4.028   5.906
50969SOL     OW54738  12.417  13.291   9.751
50969SOL    HW154739  12.391  13.368   9.700
50969SOL    HW254740  12.511  13.302   9.764
50970SOL     OW54741   2.820   7.137   3.943
50970SOL    HW154742   2.867   7.221   3.938
50970SOL    HW254743   2.835   7.106   4.032
50971SOL     OW54744   7.773  10.872  12.217
50971SOL    HW154745   7.726  10.854  12.298
50971SOL    HW254746   7.800  10.964  12.225
50972SOL     OW54747   3.449   8.880   7.408
50972SOL    HW154748   3.475   8.801   7.456
50972SOL    HW254749   3.529   8.933   7.405
50973SOL     OW54750   3.765  12.358   0.619
50973SOL    HW154751   3.708  12.315   0.555
50973SOL    HW254752   3.792  12.288   0.678
50974SOL     OW54753  14.475   4.502   8.613
50974SOL    HW154754  14.548   4.559   8.635
50974SOL    HW254755  14.514   4.415   8.605
50975SOL     OW54756   2.357   7.773   2.410
50975SOL    HW154757   2.301   7.776   2.332
50975SOL    HW254758   2.303   7.728   2.476
50976SOL     OW54759  14.275   9.801   2.800
50976SOL    HW154760  14.224   9.722   2.815
50976SOL    HW254761  14.268   9.816   2.705
50977SOL     OW54762   5.736   1.126  11.256
50977SOL    HW154763   5.664   1.067  11.279
50977SOL    HW254764   5.740   1.188  11.329
50978SOL     OW54765  10.889  13.792  13.578
50978SOL    HW154766  10.965  13.844  13.551
50978SOL    HW254767  10.899  13.783  13.673
50979SOL     OW54768  14.654   3.936   1.286
50979SOL    HW154769  14.621   4.018   1.325
50979SOL    HW254770  14.748   3.937   1.304
50980SOL     OW54771   7.904   1.048  12.703
50980SOL    HW154772   7.998   1.030  12.710
50980SOL    HW254773   7.874   0.990  12.633
50981SOL     OW54774   4.963   1.537  14.872
50981SOL    HW154775   5.010   1.456   0.015
50981SOL    HW254776   4.873   1.509  14.857
50982SOL     OW54777  13.583   7.955  10.321
50982SOL    HW154778  13.618   7.909  10.245
50982SOL    HW254779  13.501   7.910  10.341
50983SOL     OW54780  11.959   3.587  12.147
50983SOL    HW154781  12.048   3.620  12.135
50983SOL    HW254782  11.935   3.613  12.236
50984SOL     OW54783   5.995  11.991   1.102
50984SOL    HW154784   6.063  11.924   1.090
50984SOL    HW254785   5.914  11.945   1.081
50985SOL     OW54786   5.835   0.306  10.727
50985SOL    HW154787   5.874   0.232  10.775
50985SOL    HW254788   5.849   0.285  10.635
50986SOL     OW54789  14.000   4.017  13.540
50986SOL    HW154790  13.921   4.009  13.486
50986SOL    HW254791  14.069   4.042  13.478
50987SOL     OW54792   7.097   5.226   5.491
50987SOL    HW154793   7.192   5.234   5.493
50987SOL    HW254794   7.080   5.139   5.453
50988SOL     OW54795   3.240   7.142   1.828
50988SOL    HW154796   3.229   7.047   1.839
50988SOL    HW254797   3.331   7.158   1.852
50989SOL     OW54798  12.770  10.957   9.228
50989SOL    HW154799  12.691  10.921   9.269
50989SOL    HW254800  12.791  10.895   9.159
50990SOL     OW54801  14.767  14.511   6.755
50990SOL    HW154802  14.860  14.518   6.730
50990SOL    HW254803  14.720  14.508   6.672
50991SOL     OW54804  12.046   7.082   7.340
50991SOL    HW154805  12.035   7.120   7.427
50991SOL    HW254806  12.136   7.048   7.340
50992SOL     OW54807  13.544   8.463   2.268
50992SOL    HW154808  13.453   8.443   2.248
50992SOL    HW254809  13.545   8.558   2.281
50993SOL     OW54810   5.732  12.062   1.816
50993SOL    HW154811   5.802  12.015   1.861
50993SOL    HW254812   5.705  12.130   1.879
50994SOL     OW54813  13.568   0.934   1.521
50994SOL    HW154814  13.583   0.976   1.437
50994SOL    HW254815  13.603   0.845   1.511
50995SOL     OW54816   7.786  14.453  13.777
50995SOL    HW154817   7.842  14.460  13.700
50995SOL    HW254818   7.844  14.471  13.851
50996SOL     OW54819  12.662   0.853  14.780
50996SOL    HW154820  12.599   0.784  14.802
50996SOL    HW254821  12.632   0.887  14.696
50997SOL     OW54822   4.073   1.263   1.260
50997SOL    HW154823   4.122   1.331   1.306
50997SOL    HW254824   4.114   1.257   1.174
50998SOL     OW54825  12.448   7.469  13.839
50998SOL    HW154826  12.532   7.449  13.798
50998SOL    HW254827  12.405   7.384  13.849
50999SOL     OW54828   9.433  10.476   9.941
50999SOL    HW154829   9.360  10.433   9.985
50999SOL    HW254830   9.408  10.568   9.937
51000SOL     OW54831   1.813   5.533   2.640
51000SOL    HW154832   1.806   5.438   2.654
51000SOL    HW254833   1.760   5.549   2.562
51001SOL     OW54834   9.065   7.813   9.547
51001SOL    HW154835   9.111   7.806   9.463
51001SOL    HW254836   9.104   7.888   9.590
51002SOL     OW54837  14.302   8.272  12.765
51002SOL    HW154838  14.258   8.221  12.832
51002SOL    HW254839  14.394   8.273  12.792
51003SOL     OW54840   7.815   7.364   2.642
51003SOL    HW154841   7.747   7.422   2.675
51003SOL    HW254842   7.893   7.419   2.638
51004SOL     OW54843   2.938  14.482   9.144
51004SOL    HW154844   2.862  14.440   9.105
51004SOL    HW254845   3.000  14.410   9.159
51005SOL     OW54846   7.085   7.674  10.569
51005SOL    HW154847   7.180   7.675  10.557
51005SOL    HW254848   7.068   7.745  10.631
51006SOL     OW54849   6.613  10.854   8.511
51006SOL    HW154850   6.574  10.767   8.509
51006SOL    HW254851   6.540  10.914   8.498
51007SOL     OW54852   2.189   7.250  12.940
51007SOL    HW154853   2.215   7.171  12.988
51007SOL    HW254854   2.211   7.322  12.999
51008SOL     OW54855   0.568  14.010   9.098
51008SOL    HW154856   0.568  13.914   9.102
51008SOL    HW254857   0.489  14.031   9.047
51009SOL     OW54858  12.671   5.381   9.389
51009SOL    HW154859  12.714   5.355   9.471
51009SOL    HW254860  12.587   5.335   9.391
51010SOL     OW54861  14.452  10.651   9.076
51010SOL    HW154862  14.403  10.575   9.045
51010SOL    HW254863  14.509  10.674   9.002
51011SOL     OW54864   0.713  11.230  12.089
51011SOL    HW154865   0.691  11.265  12.175
51011SOL    HW254866   0.647  11.163  12.071
51012SOL     OW54867   5.918   5.866   8.845
51012SOL    HW154868   5.974   5.940   8.822
51012SOL    HW254869   5.912   5.815   8.764
51013SOL     OW54870   1.096   0.773   0.094
51013SOL    HW154871   1.105   0.729   0.009
51013SOL    HW254872   1.054   0.857   0.074
51014SOL     OW54873   3.705   8.995  10.261
51014SOL    HW154874   3.780   9.031  10.309
51014SOL    HW254875   3.663   8.936  10.324
51015SOL     OW54876   3.765   7.207   8.869
51015SOL    HW154877   3.740   7.174   8.782
51015SOL    HW254878   3.829   7.276   8.850
51016SOL     OW54879   3.443   3.662   8.405
51016SOL    HW154880   3.385   3.652   8.330
51016SOL    HW254881   3.519   3.608   8.384
51017SOL     OW54882  13.174   0.880  11.067
51017SOL    HW154883  13.197   0.953  11.125
51017SOL    HW254884  13.113   0.827  11.118
51018SOL     OW54885   1.104   7.103  14.495
51018SOL    HW154886   1.055   7.133  14.418
51018SOL    HW254887   1.195   7.107  14.468
51019SOL     OW54888  11.205  11.488  12.593
51019SOL    HW154889  11.182  11.552  12.660
51019SOL    HW254890  11.145  11.415  12.607
51020SOL     OW54891   0.922   9.631  12.019
51020SOL    HW154892   0.855   9.627  12.087
51020SOL    HW254893   0.899   9.708  11.967
51021SOL     OW54894  10.945   9.530  12.292
51021SOL    HW154895  10.857   9.492  12.299
51021SOL    HW254896  10.959   9.573  12.376
51022SOL     OW54897  13.461   6.609   1.134
51022SOL    HW154898  13.488   6.566   1.215
51022SOL    HW254899  13.378   6.567   1.112
51023SOL     OW54900   4.926  10.326   3.097
51023SOL    HW154901   4.832  10.332   3.118
51023SOL    HW254902   4.959  10.415   3.110
51024SOL     OW54903   1.637  12.373   9.057
51024SOL    HW154904   1.720  12.336   9.025
51024SOL    HW254905   1.591  12.298   9.094
51025SOL     OW54906   8.680  10.212   2.301
51025SOL    HW154907   8.614  10.276   2.329
51025SOL    HW254908   8.762  10.262   2.298
51026SOL     OW54909   4.140  14.837   3.364
51026SOL    HW154910   4.173  14.748   3.376
51026SOL    HW254911   4.144  14.851   3.270
51027SOL     OW54912   5.342   7.290   3.661
51027SOL    HW154913   5.420   7.265   3.711
51027SOL    HW254914   5.299   7.356   3.714
51028SOL     OW54915   9.157   9.971   6.857
51028SOL    HW154916   9.079   9.934   6.816
51028SOL    HW254917   9.123  10.037   6.918
51029SOL     OW54918   4.539   2.104   0.461
51029SOL    HW154919   4.552   2.182   0.514
51029SOL    HW254920   4.469   2.056   0.505
51030SOL     OW54921  12.311  14.102   8.065
51030SOL    HW154922  12.222  14.088   8.032
51030SOL    HW254923  12.353  14.016   8.059
51031SOL     OW54924   2.943  11.091   8.727
51031SOL    HW154925   3.038  11.099   8.737
51031SOL    HW254926   2.930  10.999   8.703
51032SOL     OW54927  10.532   8.158  11.154
51032SOL    HW154928  10.592   8.191  11.087
51032SOL    HW254929  10.554   8.208  11.233
51033SOL     OW54930   7.894  10.904  14.126
51033SOL    HW154931   7.869  10.851  14.050
51033SOL    HW254932   7.833  10.978  14.124
51034SOL     OW54933   6.879  10.368   0.030
51034SOL    HW154934   6.908  10.417   0.107
51034SOL    HW254935   6.784  10.383   0.026
51035SOL     OW54936   3.691   3.560  11.326
51035SOL    HW154937   3.686   3.605  11.411
51035SOL    HW254938   3.681   3.629  11.261
51036SOL     OW54939   1.780   8.139   3.311
51036SOL    HW154940   1.719   8.065   3.317
51036SOL    HW254941   1.773   8.167   3.219
51037SOL     OW54942   8.292   3.066   6.583
51037SOL    HW154943   8.232   3.098   6.650
51037SOL    HW254944   8.267   2.974   6.570
51038SOL     OW54945  13.166   8.647   2.614
51038SOL    HW154946  13.115   8.629   2.536
51038SOL    HW254947  13.101   8.673   2.680
51039SOL     OW54948   1.927   3.090  14.288
51039SOL    HW154949   1.919   3.088  14.193
51039SOL    HW254950   1.870   3.019  14.319
51040SOL     OW54951  12.321   5.867   5.354
51040SOL    HW154952  12.369   5.947   5.332
51040SOL    HW254953  12.319   5.817   5.272
51041SOL     OW54954   9.723   0.550  13.657
51041SOL    HW154955   9.703   0.640  13.684
51041SOL    HW254956   9.764   0.560  13.571
51042SOL     OW54957  14.479  14.310   8.446
51042SOL    HW154958  14.405  14.369   8.430
51042SOL    HW254959  14.514  14.291   8.359
51043SOL     OW54960   1.581   4.790  11.506
51043SOL    HW154961   1.641   4.857  11.474
51043SOL    HW254962   1.625   4.707  11.488
51044SOL     OW54963   0.933  11.011  10.597
51044SOL    HW154964   0.955  11.003  10.504
51044SOL    HW254965   0.997  11.074  10.630
51045SOL     OW54966   2.810  12.065   0.381
51045SOL    HW154967   2.901  12.036   0.380
51045SOL    HW254968   2.761  11.995   0.337
51046SOL     OW54969  14.732  11.341   4.988
51046SOL    HW154970  14.814  11.303   4.955
51046SOL    HW254971  14.664  11.304   4.931
51047SOL     OW54972   9.387   3.753   3.628
51047SOL    HW154973   9.330   3.830   3.630
51047SOL    HW254974   9.327   3.679   3.625
51048SOL     OW54975   2.613   0.745  13.760
51048SOL    HW154976   2.697   0.699  13.751
51048SOL    HW254977   2.557   0.705  13.693
51049SOL     OW54978  13.200   6.202  14.516
51049SOL    HW154979  13.161   6.185  14.430
51049SOL    HW254980  13.148   6.275  14.552
51050SOL     OW54981   6.162   8.744   2.162
51050SOL    HW154982   6.244   8.781   2.192
51050SOL    HW254983   6.158   8.767   2.069
51051SOL     OW54984   8.607   0.429   1.880
51051SOL    HW154985   8.622   0.358   1.819
51051SOL    HW254986   8.634   0.394   1.965
51052SOL     OW54987   2.499  10.027   0.926
51052SOL    HW154988   2.425   9.969   0.914
51052SOL    HW254989   2.463  10.115   0.916
51053SOL     OW54990   8.018   9.958   0.740
51053SOL    HW154991   8.113   9.946   0.741
51053SOL    HW254992   8.005  10.039   0.691
51054SOL     OW54993   2.629  10.115   2.417
51054SOL    HW154994   2.644  10.076   2.331
51054SOL    HW254995   2.688  10.068   2.476
51055SOL     OW54996   1.277   4.659   0.272
51055SOL    HW154997   1.185   4.661   0.247
51055SOL    HW254998   1.278   4.682   0.365
51056SOL     OW54999   8.836  10.069   3.454
51056SOL    HW155000   8.787   9.988   3.443
51056SOL    HW255001   8.870  10.089   3.367
51057SOL     OW55002  14.543   5.441   7.940
51057SOL    HW155003  14.464   5.388   7.951
51057SOL    HW255004  14.572   5.422   7.850
51058SOL     OW55005   2.589   9.061   0.411
51058SOL    HW155006   2.676   9.087   0.379
51058SOL    HW255007   2.542   9.143   0.423
51059SOL     OW55008  11.183  10.923  14.411
51059SOL    HW155009  11.227  11.006  14.391
51059SOL    HW255010  11.253  10.866  14.443
51060SOL     OW55011   6.578   1.236  13.738
51060SOL    HW155012   6.658   1.250  13.689
51060SOL    HW255013   6.576   1.307  13.803
51061SOL     OW55014  11.708  12.514   3.681
51061SOL    HW155015  11.761  12.437   3.701
51061SOL    HW255016  11.758  12.588   3.717
51062SOL     OW55017   9.246   0.515   9.852
51062SOL    HW155018   9.255   0.605   9.884
51062SOL    HW255019   9.230   0.525   9.758
51063SOL     OW55020   2.066  12.564  10.832
51063SOL    HW155021   1.985  12.535  10.790
51063SOL    HW255022   2.112  12.613  10.764
51064SOL     OW55023   3.133   5.096   7.138
51064SOL    HW155024   3.056   5.140   7.102
51064SOL    HW255025   3.105   5.006   7.151
51065SOL     OW55026   4.288   6.619   0.297
51065SOL    HW155027   4.275   6.708   0.329
51065SOL    HW255028   4.213   6.602   0.241
51066SOL     OW55029  13.652   7.577   7.138
51066SOL    HW155030  13.688   7.539   7.058
51066SOL    HW255031  13.717   7.558   7.206
51067SOL     OW55032  11.745   4.145   1.131
51067SOL    HW155033  11.664   4.181   1.168
51067SOL    HW255034  11.716   4.089   1.059
51068SOL     OW55035  14.114  12.837   3.939
51068SOL    HW155036  14.087  12.907   3.997
51068SOL    HW255037  14.180  12.876   3.882
51069SOL     OW55038  11.082   8.331   8.150
51069SOL    HW155039  11.035   8.267   8.095
51069SOL    HW255040  11.023   8.347   8.223
51070SOL     OW55041  13.338   9.750  14.830
51070SOL    HW155042  13.404   9.693  14.869
51070SOL    HW255043  13.377   9.779  14.747
51071SOL     OW55044   3.221  13.346   9.030
51071SOL    HW155045   3.230  13.261   9.073
51071SOL    HW255046   3.174  13.326   8.949
51072SOL     OW55047   4.638   2.429   9.189
51072SOL    HW155048   4.651   2.492   9.119
51072SOL    HW255049   4.551   2.448   9.223
51073SOL     OW55050   5.563  10.806  10.422
51073SOL    HW155051   5.631  10.805  10.490
51073SOL    HW255052   5.604  10.848  10.347
51074SOL     OW55053   1.609   9.880   9.672
51074SOL    HW155054   1.684   9.939   9.663
51074SOL    HW255055   1.554   9.920   9.739
51075SOL     OW55056   0.041   9.275   5.596
51075SOL    HW155057   0.133   9.246   5.592
51075SOL    HW255058   0.021   9.278   5.689
51076SOL     OW55059   0.804   3.650  12.348
51076SOL    HW155060   0.818   3.558  12.372
51076SOL    HW255061   0.891   3.682  12.324
51077SOL     OW55062  13.311   2.918   8.510
51077SOL    HW155063  13.381   2.867   8.470
51077SOL    HW255064  13.346   2.945   8.595
51078SOL     OW55065  13.859  11.392   5.373
51078SOL    HW155066  13.827  11.482   5.377
51078SOL    HW255067  13.936  11.391   5.430
51079SOL     OW55068  10.184   3.632   3.328
51079SOL    HW155069  10.089   3.641   3.336
51079SOL    HW255070  10.201   3.636   3.234
51080SOL     OW55071   9.340   4.095   3.141
51080SOL    HW155072   9.364   4.079   3.050
51080SOL    HW255073   9.331   4.190   3.147
51081SOL     OW55074   6.146  13.232  13.125
51081SOL    HW155075   6.137  13.191  13.211
51081SOL    HW255076   6.240  13.251  13.118
51082SOL     OW55077  13.215   3.708   7.642
51082SOL    HW155078  13.132   3.675   7.609
51082SOL    HW255079  13.238   3.647   7.713
51083SOL     OW55080  12.448  14.021   0.022
51083SOL    HW155081  12.509  14.063  14.838
51083SOL    HW255082  12.388  13.973  14.842
51084SOL     OW55083   8.655  14.774   3.422
51084SOL    HW155084   8.642  14.680   3.436
51084SOL    HW255085   8.735  14.794   3.472
51085SOL     OW55086  10.388  10.076  13.462
51085SOL    HW155087  10.472  10.055  13.421
51085SOL    HW255088  10.334  10.109  13.389
51086SOL     OW55089   8.274  13.404  10.347
51086SOL    HW155090   8.288  13.412  10.441
51086SOL    HW255091   8.342  13.345  10.317
51087SOL     OW55092  14.663   7.320   3.147
51087SOL    HW155093  14.628   7.237   3.180
51087SOL    HW255094  14.610   7.387   3.190
51088SOL     OW55095   7.397   4.610   2.225
51088SOL    HW155096   7.341   4.668   2.174
51088SOL    HW255097   7.478   4.660   2.238
51089SOL     OW55098   2.818   3.378   5.038
51089SOL    HW155099   2.752   3.447   5.048
51089SOL    HW255100   2.825   3.339   5.126
51090SOL     OW55101   7.395   5.246  10.335
51090SOL    HW155102   7.401   5.314  10.403
51090SOL    HW255103   7.412   5.293  10.253
51091SOL     OW55104   8.901  11.214   0.303
51091SOL    HW155105   8.868  11.285   0.249
51091SOL    HW255106   8.825  11.183   0.352
51092SOL     OW55107   3.758  10.999   8.764
51092SOL    HW155108   3.698  10.927   8.745
51092SOL    HW255109   3.708  11.057   8.822
51093SOL     OW55110   4.262   5.378  12.312
51093SOL    HW155111   4.297   5.290  12.295
51093SOL    HW255112   4.324   5.416  12.375
51094SOL     OW55113  14.427   0.988   6.521
51094SOL    HW155114  14.386   1.070   6.493
51094SOL    HW255115  14.451   1.002   6.612
51095SOL     OW55116   7.365   2.367   3.300
51095SOL    HW155117   7.293   2.430   3.292
51095SOL    HW255118   7.444   2.421   3.306
51096SOL     OW55119   9.852   4.353   2.300
51096SOL    HW155120   9.942   4.358   2.331
51096SOL    HW255121   9.824   4.444   2.291
51097SOL     OW55122   4.701  10.632   3.573
51097SOL    HW155123   4.792  10.632   3.544
51097SOL    HW255124   4.653  10.671   3.499
51098SOL     OW55125  13.479  10.796   6.490
51098SOL    HW155126  13.408  10.855   6.466
51098SOL    HW255127  13.523  10.777   6.407
51099SOL     OW55128  14.627   8.019   3.129
51099SOL    HW155129  14.538   7.997   3.156
51099SOL    HW255130  14.655   7.945   3.074
51100SOL     OW55131   9.091  10.857   3.285
51100SOL    HW155132   9.064  10.771   3.316
51100SOL    HW255133   9.053  10.918   3.348
51101SOL     OW55134   5.762  10.124   7.869
51101SOL    HW155135   5.709  10.055   7.909
51101SOL    HW255136   5.702  10.170   7.810
51102SOL     OW55137   5.143  11.308  12.796
51102SOL    HW155138   5.122  11.337  12.885
51102SOL    HW255139   5.076  11.242  12.777
51103SOL     OW55140  10.678  14.540  11.877
51103SOL    HW155141  10.672  14.622  11.925
51103SOL    HW255142  10.615  14.481  11.919
51104SOL     OW55143   0.515  12.616  12.397
51104SOL    HW155144   0.598  12.621  12.350
51104SOL    HW255145   0.533  12.556  12.470
51105SOL     OW55146   1.421   8.581   1.476
51105SOL    HW155147   1.458   8.580   1.564
51105SOL    HW255148   1.345   8.523   1.481
51106SOL     OW55149   2.861   8.923  11.589
51106SOL    HW155150   2.898   8.953  11.671
51106SOL    HW255151   2.882   8.830  11.585
51107SOL     OW55152   5.042   3.632  10.907
51107SOL    HW155153   4.981   3.577  10.956
51107SOL    HW255154   5.125   3.584  10.912
51108SOL     OW55155   6.190   9.679   2.471
51108SOL    HW155156   6.229   9.694   2.385
51108SOL    HW255157   6.103   9.646   2.453
51109SOL     OW55158  13.273   0.046   9.992
51109SOL    HW155159  13.361   0.080   9.979
51109SOL    HW255160  13.263   0.038  10.086
51110SOL     OW55161  12.066  14.830  10.936
51110SOL    HW155162  12.087  14.774  11.010
51110SOL    HW255163  12.057  14.770  10.862
51111SOL     OW55164   0.550  12.517   5.627
51111SOL    HW155165   0.597  12.450   5.577
51111SOL    HW255166   0.555  12.596   5.574
51112SOL     OW55167   1.548   9.616   9.634
51112SOL    HW155168   1.567   9.707   9.655
51112SOL    HW255169   1.612   9.593   9.567
51113SOL     OW55170  13.773  12.095  11.477
51113SOL    HW155171  13.849  12.037  11.484
51113SOL    HW255172  13.763  12.110  11.383
51114SOL     OW55173   8.648  11.691  12.852
51114SOL    HW155174   8.743  11.702  12.848
51114SOL    HW255175   8.621  11.749  12.923
51115SOL     OW55176  12.512   5.488   0.268
51115SOL    HW155177  12.527   5.582   0.263
51115SOL    HW255178  12.464   5.476   0.351
51116SOL     OW55179   1.472   0.910  14.670
51116SOL    HW155180   1.394   0.927  14.618
51116SOL    HW255181   1.439   0.870  14.751
51117SOL     OW55182   0.308   9.232   5.702
51117SOL    HW155183   0.372   9.193   5.643
51117SOL    HW255184   0.302   9.323   5.673
51118SOL     OW55185   2.957   8.639   6.949
51118SOL    HW155186   3.014   8.574   6.907
51118SOL    HW255187   2.898   8.667   6.880
51119SOL     OW55188   9.871   4.067  10.588
51119SOL    HW155189   9.787   4.052  10.630
51119SOL    HW255190   9.853   4.060  10.494
51120SOL     OW55191   3.480   2.860  10.917
51120SOL    HW155192   3.403   2.837  10.865
51120SOL    HW255193   3.491   2.788  10.979
51121SOL     OW55194   6.655  10.184   8.946
51121SOL    HW155195   6.736  10.170   8.995
51121SOL    HW255196   6.659  10.276   8.921
51122SOL     OW55197  10.089  14.405   5.868
51122SOL    HW155198  10.185  14.405   5.862
51122SOL    HW255199  10.060  14.414   5.777
51123SOL     OW55200   5.824   3.675   2.138
51123SOL    HW155201   5.773   3.704   2.213
51123SOL    HW255202   5.829   3.751   2.081
51124SOL     OW55203  12.789  13.698   0.666
51124SOL    HW155204  12.726  13.680   0.597
51124SOL    HW255205  12.814  13.611   0.699
51125SOL     OW55206  10.796  11.775   3.283
51125SOL    HW155207  10.749  11.787   3.200
51125SOL    HW255208  10.734  11.729   3.339
51126SOL     OW55209   5.607   6.451   3.896
51126SOL    HW155210   5.616   6.498   3.813
51126SOL    HW255211   5.695   6.447   3.932
51127SOL     OW55212   3.368   1.731  10.390
51127SOL    HW155213   3.305   1.659  10.379
51127SOL    HW255214   3.452   1.687  10.404
51128SOL     OW55215  10.356   4.720   6.322
51128SOL    HW155216  10.339   4.791   6.384
51128SOL    HW255217  10.432   4.674   6.358
51129SOL     OW55218   2.181   0.719  10.621
51129SOL    HW155219   2.250   0.684  10.677
51129SOL    HW255220   2.132   0.779  10.677
51130SOL     OW55221  14.734   3.881   3.879
51130SOL    HW155222  14.703   3.820   3.945
51130SOL    HW255223  14.814   3.919   3.916
51131SOL     OW55224   4.607   0.056   9.109
51131SOL    HW155225   4.687   0.080   9.156
51131SOL    HW255226   4.629  14.849   9.066
51132SOL     OW55227   0.707   9.058   9.512
51132SOL    HW155228   0.728   9.048   9.605
51132SOL    HW255229   0.730   8.973   9.474
51133SOL     OW55230   3.347   3.511   1.815
51133SOL    HW155231   3.372   3.580   1.876
51133SOL    HW255232   3.396   3.532   1.735
51134SOL     OW55233   6.406  11.918   6.023
51134SOL    HW155234   6.500  11.924   6.011
51134SOL    HW255235   6.370  11.928   5.935
51135SOL     OW55236   7.258   7.735   2.584
51135SOL    HW155237   7.323   7.803   2.566
51135SOL    HW255238   7.182   7.782   2.619
51136SOL     OW55239   4.609  12.834   0.280
51136SOL    HW155240   4.572  12.771   0.341
51136SOL    HW255241   4.663  12.891   0.334
51137SOL     OW55242   5.015   2.867   3.417
51137SOL    HW155243   4.957   2.897   3.346
51137SOL    HW255244   5.096   2.842   3.372
51138SOL     OW55245  11.449   3.137   8.302
51138SOL    HW155246  11.411   3.052   8.280
51138SOL    HW255247  11.543   3.121   8.310
51139SOL     OW55248   7.896   1.051  11.679
51139SOL    HW155249   7.818   1.009  11.717
51139SOL    HW255250   7.895   1.139  11.715
51140SOL     OW55251   7.407   7.918   0.801
51140SOL    HW155252   7.367   7.854   0.858
51140SOL    HW255253   7.456   7.866   0.737
51141SOL     OW55254   0.956   6.240  13.176
51141SOL    HW155255   0.908   6.310  13.133
51141SOL    HW255256   0.992   6.281  13.255
51142SOL     OW55257  13.682  11.393   1.026
51142SOL    HW155258  13.739  11.455   1.072
51142SOL    HW255259  13.667  11.323   1.089
51143SOL     OW55260   4.323   2.525   9.050
51143SOL    HW155261   4.295   2.436   9.072
51143SOL    HW255262   4.412   2.515   9.016
51144SOL     OW55263  11.000   2.355   8.973
51144SOL    HW155264  11.088   2.318   8.977
51144SOL    HW255265  10.994   2.395   8.886
51145SOL     OW55266   8.120   1.388  13.819
51145SOL    HW155267   8.092   1.324  13.753
51145SOL    HW255268   8.147   1.464  13.768
51146SOL     OW55269  13.991   9.712   8.369
51146SOL    HW155270  13.919   9.652   8.391
51146SOL    HW255271  13.971   9.792   8.417
51147SOL     OW55272  12.507   5.725   9.539
51147SOL    HW155273  12.544   5.664   9.603
51147SOL    HW255274  12.486   5.803   9.590
51148SOL     OW55275   1.181   1.304   8.806
51148SOL    HW155276   1.158   1.214   8.828
51148SOL    HW255277   1.105   1.356   8.831
51149SOL     OW55278   8.541   5.724   2.841
51149SOL    HW155279   8.586   5.731   2.757
51149SOL    HW255280   8.457   5.683   2.820
51150SOL     OW55281  10.796   5.412  13.396
51150SOL    HW155282  10.794   5.333  13.451
51150SOL    HW255283  10.783   5.484  13.457
51151SOL     OW55284   1.822  10.603  10.579
51151SOL    HW155285   1.796  10.694  10.573
51151SOL    HW255286   1.890  10.602  10.647
51152SOL     OW55287   2.517  10.976  11.322
51152SOL    HW155288   2.585  10.910  11.308
51152SOL    HW255289   2.557  11.038  11.384
51153SOL     OW55290   7.644   2.816   4.375
51153SOL    HW155291   7.717   2.872   4.401
51153SOL    HW255292   7.579   2.826   4.444
51154SOL     OW55293  11.000  12.650   8.672
51154SOL    HW155294  11.033  12.728   8.628
51154SOL    HW255295  10.940  12.685   8.739
51155SOL     OW55296   1.104   8.858   7.235
51155SOL    HW155297   1.038   8.790   7.221
51155SOL    HW255298   1.086   8.891   7.323
51156SOL     OW55299   0.589   8.631   5.458
51156SOL    HW155300   0.663   8.622   5.517
51156SOL    HW255301   0.557   8.721   5.471
51157SOL     OW55302   3.369   2.153   3.489
51157SOL    HW155303   3.446   2.203   3.463
51157SOL    HW255304   3.357   2.176   3.582
51158SOL     OW55305   7.307  11.619  11.254
51158SOL    HW155306   7.383  11.664  11.219
51158SOL    HW255307   7.343  11.549  11.308
51159SOL     OW55308   4.791   1.830   7.656
51159SOL    HW155309   4.847   1.815   7.580
51159SOL    HW255310   4.852   1.839   7.729
51160SOL     OW55311   8.375   8.429   2.027
51160SOL    HW155312   8.462   8.390   2.026
51160SOL    HW255313   8.331   8.388   2.102
51161SOL     OW55314  12.715  11.074  12.472
51161SOL    HW155315  12.696  10.987  12.509
51161SOL    HW255316  12.648  11.131  12.510
51162SOL     OW55317  10.331   6.177   6.791
51162SOL    HW155318  10.427   6.180   6.787
51162SOL    HW255319  10.308   6.095   6.749
51163SOL     OW55320  12.035  12.920   7.787
51163SOL    HW155321  12.060  12.863   7.859
51163SOL    HW255322  12.114  12.971   7.767
51164SOL     OW55323   0.996   9.855   5.074
51164SOL    HW155324   1.058   9.813   5.015
51164SOL    HW255325   0.931   9.787   5.093
51165SOL     OW55326   0.987   6.044   0.373
51165SOL    HW155327   0.903   6.082   0.400
51165SOL    HW255328   1.007   6.088   0.290
51166SOL     OW55329   3.220   3.973   7.190
51166SOL    HW155330   3.131   4.007   7.184
51166SOL    HW255331   3.211   3.878   7.178
51167SOL     OW55332   3.211  12.495   5.188
51167SOL    HW155333   3.256  12.442   5.254
51167SOL    HW255334   3.164  12.561   5.239
51168SOL     OW55335  14.200  10.087   9.354
51168SOL    HW155336  14.223  10.003   9.392
51168SOL    HW255337  14.262  10.149   9.393
51169SOL     OW55338   8.416  10.067   2.961
51169SOL    HW155339   8.435  10.133   2.893
51169SOL    HW255340   8.420  10.116   3.043
51170SOL     OW55341  10.478   0.078  11.372
51170SOL    HW155342  10.532   0.002  11.392
51170SOL    HW255343  10.506   0.105  11.285
51171SOL     OW55344   6.537   8.451   4.241
51171SOL    HW155345   6.620   8.491   4.266
51171SOL    HW255346   6.520   8.385   4.308
51172SOL     OW55347   4.001   4.546   2.434
51172SOL    HW155348   4.090   4.583   2.440
51172SOL    HW255349   3.962   4.590   2.359
51173SOL     OW55350   3.939   2.651   3.726
51173SOL    HW155351   3.915   2.570   3.680
51173SOL    HW255352   3.902   2.641   3.813
51174SOL     OW55353  10.618   3.586   0.697
51174SOL    HW155354  10.695   3.531   0.717
51174SOL    HW255355  10.636   3.669   0.742
51175SOL     OW55356  14.467   5.839   7.354
51175SOL    HW155357  14.440   5.928   7.330
51175SOL    HW255358  14.472   5.792   7.270
51176SOL     OW55359   5.338   7.306   0.108
51176SOL    HW155360   5.265   7.346   0.060
51176SOL    HW255361   5.376   7.243   0.046
51177SOL     OW55362   0.225   6.125  12.252
51177SOL    HW155363   0.223   6.207  12.301
51177SOL    HW255364   0.315   6.119  12.220
51178SOL     OW55365   2.248  13.801   5.771
51178SOL    HW155366   2.271  13.734   5.708
51178SOL    HW255367   2.189  13.860   5.724
51179SOL     OW55368   6.917  14.836  12.267
51179SOL    HW155369   6.895  14.816  12.176
51179SOL    HW255370   6.849  14.791  12.318
51180SOL     OW55371  12.435  10.738   9.679
51180SOL    HW155372  12.465  10.651   9.655
51180SOL    HW255373  12.397  10.728   9.766
51181SOL     OW55374   3.387  14.392   8.667
51181SOL    HW155375   3.366  14.347   8.585
51181SOL    HW255376   3.483  14.393   8.670
51182SOL     OW55377   0.116   4.107  13.612
51182SOL    HW155378   0.043   4.152  13.571
51182SOL    HW255379   0.159   4.174  13.666
51183SOL     OW55380   7.156   8.510   2.376
51183SOL    HW155381   7.129   8.464   2.456
51183SOL    HW255382   7.181   8.597   2.406
51184SOL     OW55383  12.116   5.719   6.948
51184SOL    HW155384  12.108   5.803   6.902
51184SOL    HW255385  12.203   5.687   6.925
51185SOL     OW55386   9.992  11.627   8.508
51185SOL    HW155387  10.016  11.593   8.594
51185SOL    HW255388  10.060  11.593   8.450
51186SOL     OW55389  13.370  14.215   4.323
51186SOL    HW155390  13.461  14.238   4.303
51186SOL    HW255391  13.321  14.296   4.313
51187SOL     OW55392   3.201   1.749   2.708
51187SOL    HW155393   3.126   1.718   2.658
51187SOL    HW255394   3.226   1.675   2.764
51188SOL     OW55395   3.241   6.155  13.291
51188SOL    HW155396   3.266   6.122  13.205
51188SOL    HW255397   3.209   6.244  13.274
51189SOL     OW55398   2.758  13.744  13.371
51189SOL    HW155399   2.689  13.700  13.321
51189SOL    HW255400   2.776  13.684  13.444
51190SOL     OW55401  10.029   2.126   3.740
51190SOL    HW155402  10.102   2.093   3.688
51190SOL    HW255403  10.000   2.050   3.791
51191SOL     OW55404   9.142  10.114  10.171
51191SOL    HW155405   9.143  10.143  10.263
51191SOL    HW255406   9.092  10.032  10.173
51192SOL     OW55407   0.948  14.575  10.808
51192SOL    HW155408   0.890  14.609  10.876
51192SOL    HW255409   1.005  14.513  10.854
51193SOL     OW55410   5.430   7.841   6.332
51193SOL    HW155411   5.455   7.786   6.258
51193SOL    HW255412   5.501   7.904   6.341
51194SOL     OW55413   1.820  13.512  10.835
51194SOL    HW155414   1.820  13.418  10.851
51194SOL    HW255415   1.862  13.550  10.913
51195SOL     OW55416   3.473  12.520   0.376
51195SOL    HW155417   3.381  12.511   0.404
51195SOL    HW255418   3.469  12.518   0.281
51196SOL     OW55419  10.690   4.809   6.487
51196SOL    HW155420  10.611   4.756   6.494
51196SOL    HW255421  10.668   4.891   6.532
51197SOL     OW55422   0.827  12.022   2.124
51197SOL    HW155423   0.853  12.026   2.216
51197SOL    HW255424   0.822  12.113   2.096
51198SOL     OW55425   0.362   4.410   9.005
51198SOL    HW155426   0.442   4.420   9.057
51198SOL    HW255427   0.328   4.324   9.030
51199SOL     OW55428   6.279   6.097   0.378
51199SOL    HW155429   6.279   6.013   0.422
51199SOL    HW255430   6.371   6.125   0.378
51200SOL     OW55431  12.021  11.294  14.408
51200SOL    HW155432  12.114  11.313  14.423
51200SOL    HW255433  11.975  11.354  14.468
51201SOL     OW55434   6.110   1.132   1.840
51201SOL    HW155435   6.059   1.090   1.771
51201SOL    HW255436   6.169   1.191   1.793
51202SOL     OW55437   6.248   0.847  12.039
51202SOL    HW155438   6.215   0.863  11.950
51202SOL    HW255439   6.183   0.886  12.096
51203SOL     OW55440   2.842   2.963  10.262
51203SOL    HW155441   2.824   3.057  10.267
51203SOL    HW255442   2.870   2.939  10.350
51204SOL     OW55443  10.403  11.197   0.036
51204SOL    HW155444  10.324  11.223   0.085
51204SOL    HW255445  10.458  11.155   0.102
51205SOL     OW55446   1.370   1.879  13.588
51205SOL    HW155447   1.315   1.892  13.511
51205SOL    HW255448   1.393   1.786  13.587
51206SOL     OW55449   5.066  10.924   0.953
51206SOL    HW155450   5.046  10.999   1.010
51206SOL    HW255451   5.132  10.958   0.893
51207SOL     OW55452   8.716  10.863   7.966
51207SOL    HW155453   8.804  10.897   7.981
51207SOL    HW255454   8.704  10.797   8.034
51208SOL     OW55455   5.763   4.737   3.662
51208SOL    HW155456   5.854   4.763   3.650
51208SOL    HW255457   5.740   4.690   3.582
51209SOL     OW55458   2.441   3.304   4.186
51209SOL    HW155459   2.409   3.323   4.098
51209SOL    HW255460   2.506   3.235   4.173
51210SOL     OW55461   3.110   4.187   1.171
51210SOL    HW155462   3.070   4.116   1.121
51210SOL    HW255463   3.183   4.146   1.216
51211SOL     OW55464   1.578   1.038   5.119
51211SOL    HW155465   1.549   1.129   5.129
51211SOL    HW255466   1.666   1.036   5.157
51212SOL     OW55467   6.054   1.211   7.245
51212SOL    HW155468   5.969   1.174   7.268
51212SOL    HW255469   6.055   1.210   7.149
51213SOL     OW55470  12.087   4.471   7.093
51213SOL    HW155471  12.118   4.403   7.154
51213SOL    HW255472  11.994   4.451   7.081
51214SOL     OW55473  14.615  11.192   2.027
51214SOL    HW155474  14.655  11.186   1.940
51214SOL    HW255475  14.606  11.101   2.055
51215SOL     OW55476  10.155  11.127  10.416
51215SOL    HW155477  10.180  11.189  10.484
51215SOL    HW255478  10.236  11.107  10.369
51216SOL     OW55479   5.154   1.866  10.212
51216SOL    HW155480   5.094   1.791  10.217
51216SOL    HW255481   5.122   1.917  10.137
51217SOL     OW55482   8.631   7.376   1.917
51217SOL    HW155483   8.655   7.376   2.010
51217SOL    HW255484   8.642   7.467   1.890
51218SOL     OW55485   8.884  10.578  11.141
51218SOL    HW155486   8.888  10.624  11.225
51218SOL    HW255487   8.894  10.648  11.076
51219SOL     OW55488  10.922   0.042  12.155
51219SOL    HW155489  11.015   0.062  12.151
51219SOL    HW255490  10.886   0.104  12.219
51220SOL     OW55491   0.551  12.499   4.537
51220SOL    HW155492   0.524  12.591   4.533
51220SOL    HW255493   0.647  12.502   4.539
51221SOL     OW55494   4.809   2.693  10.524
51221SOL    HW155495   4.831   2.634  10.452
51221SOL    HW255496   4.723   2.727  10.501
51222SOL     OW55497   9.894  12.035   0.267
51222SOL    HW155498   9.829  12.068   0.206
51222SOL    HW255499   9.883  12.088   0.346
51223SOL     OW55500  14.232   9.174  13.045
51223SOL    HW155501  14.244   9.120  12.967
51223SOL    HW255502  14.294   9.246  13.034
51224SOL     OW55503  12.801   8.951   3.563
51224SOL    HW155504  12.824   9.020   3.625
51224SOL    HW255505  12.731   8.902   3.606
51225SOL     OW55506   1.792  10.605   8.777
51225SOL    HW155507   1.786  10.517   8.813
51225SOL    HW255508   1.741  10.602   8.697
51226SOL     OW55509   5.576   3.288  10.005
51226SOL    HW155510   5.555   3.221   9.940
51226SOL    HW255511   5.622   3.240  10.074
51227SOL     OW55512  13.348   2.226   8.900
51227SOL    HW155513  13.352   2.205   8.993
51227SOL    HW255514  13.332   2.143   8.856
51228SOL     OW55515   4.120  10.572  14.201
51228SOL    HW155516   4.140  10.666  14.198
51228SOL    HW255517   4.056  10.564  14.272
51229SOL     OW55518   7.435  11.495   9.699
51229SOL    HW155519   7.498  11.424   9.683
51229SOL    HW255520   7.409  11.484   9.791
51230SOL     OW55521   2.737  12.033   1.370
51230SOL    HW155522   2.702  12.066   1.453
51230SOL    HW255523   2.827  12.064   1.368
51231SOL     OW55524   6.015   4.505  14.542
51231SOL    HW155525   6.025   4.576  14.478
51231SOL    HW255526   5.925   4.512  14.572
51232SOL     OW55527   8.541   3.546   3.938
51232SOL    HW155528   8.448   3.524   3.942
51232SOL    HW255529   8.576   3.489   3.869
51233SOL     OW55530  11.069   5.987   5.614
51233SOL    HW155531  11.051   6.031   5.697
51233SOL    HW255532  11.012   6.030   5.551
51234SOL     OW55533  11.514   4.165   3.902
51234SOL    HW155534  11.498   4.081   3.858
51234SOL    HW255535  11.469   4.157   3.986
51235SOL     OW55536  14.753  13.687   1.481
51235SOL    HW155537  14.724  13.735   1.403
51235SOL    HW255538  14.707  13.602   1.475
51236SOL     OW55539   9.926   5.442  13.024
51236SOL    HW155540   9.929   5.363  12.970
51236SOL    HW255541   9.879   5.506  12.970
51237SOL     OW55542  10.554   8.623   9.257
51237SOL    HW155543  10.563   8.539   9.212
51237SOL    HW255544  10.524   8.600   9.344
51238SOL     OW55545   9.389  14.005  12.294
51238SOL    HW155546   9.320  13.940  12.280
51238SOL    HW255547   9.417  13.991  12.385
51239SOL     OW55548   1.501   3.830  10.154
51239SOL    HW155549   1.469   3.919  10.160
51239SOL    HW255550   1.580   3.828  10.208
51240SOL     OW55551  11.483  12.994  11.117
51240SOL    HW155552  11.522  12.967  11.034
51240SOL    HW255553  11.390  12.974  11.108
51241SOL     OW55554   0.842  10.029   4.286
51241SOL    HW155555   0.750  10.016   4.311
51241SOL    HW255556   0.869  10.107   4.336
51242SOL     OW55557   0.259   3.428  10.126
51242SOL    HW155558   0.266   3.517  10.161
51242SOL    HW255559   0.350   3.399  10.117
51243SOL     OW55560   8.586   6.286   5.486
51243SOL    HW155561   8.592   6.312   5.394
51243SOL    HW255562   8.648   6.213   5.494
51244SOL     OW55563  11.682   2.804   1.053
51244SOL    HW155564  11.702   2.719   1.014
51244SOL    HW255565  11.618   2.785   1.122
51245SOL     OW55566   3.306   6.601   6.933
51245SOL    HW155567   3.265   6.615   7.018
51245SOL    HW255568   3.394   6.638   6.942
51246SOL     OW55569   8.014  14.273  12.308
51246SOL    HW155570   8.078  14.204  12.288
51246SOL    HW255571   8.055  14.324  12.378
51247SOL     OW55572   7.346   5.289   6.128
51247SOL    HW155573   7.292   5.358   6.166
51247SOL    HW255574   7.309   5.208   6.161
51248SOL     OW55575  12.461  14.315  14.620
51248SOL    HW155576  12.527  14.378  14.591
51248SOL    HW255577  12.377  14.360  14.609
51249SOL     OW55578   4.030   4.990   1.720
51249SOL    HW155579   4.123   5.004   1.734
51249SOL    HW255580   4.017   4.896   1.729
51250SOL     OW55581   9.633   2.298   1.794
51250SOL    HW155582   9.612   2.364   1.729
51250SOL    HW255583   9.715   2.329   1.834
51251SOL     OW55584   5.993   0.812   1.869
51251SOL    HW155585   5.976   0.900   1.904
51251SOL    HW255586   6.018   0.760   1.945
51252SOL     OW55587   5.590   5.251   3.726
51252SOL    HW155588   5.629   5.308   3.792
51252SOL    HW255589   5.559   5.175   3.775
51253SOL     OW55590  13.038   0.366   0.301
51253SOL    HW155591  12.981   0.443   0.303
51253SOL    HW255592  12.989   0.299   0.348
51254SOL     OW55593  13.814   9.826  11.601
51254SOL    HW155594  13.809   9.921  11.598
51254SOL    HW255595  13.803   9.798  11.510
51255SOL     OW55596   0.206  13.784  12.844
51255SOL    HW155597   0.263  13.808  12.917
51255SOL    HW255598   0.263  13.789  12.767
51256SOL     OW55599   2.924   5.460   3.882
51256SOL    HW155600   2.930   5.485   3.790
51256SOL    HW255601   2.953   5.538   3.929
51257SOL     OW55602   9.794   0.701   2.146
51257SOL    HW155603   9.802   0.790   2.112
51257SOL    HW255604   9.770   0.712   2.238
51258SOL     OW55605   4.463  12.882  14.236
51258SOL    HW155606   4.476  12.934  14.315
51258SOL    HW255607   4.368  12.871  14.230
51259SOL     OW55608  12.371   4.929   0.695
51259SOL    HW155609  12.362   4.867   0.767
51259SOL    HW255610  12.301   4.904   0.634
51260SOL     OW55611  13.688  10.335  14.166
51260SOL    HW155612  13.680  10.391  14.243
51260SOL    HW255613  13.698  10.246  14.202
51261SOL     OW55614   2.785  14.121   4.901
51261SOL    HW155615   2.871  14.088   4.929
51261SOL    HW255616   2.743  14.150   4.981
51262SOL     OW55617  10.979   5.661   0.792
51262SOL    HW155618  11.010   5.671   0.702
51262SOL    HW255619  11.056   5.630   0.840
51263SOL     OW55620  14.390  10.228   9.446
51263SOL    HW155621  14.402  10.240   9.540
51263SOL    HW255622  14.397  10.316   9.409
51264SOL     OW55623  12.215   7.839   8.936
51264SOL    HW155624  12.190   7.861   9.026
51264SOL    HW255625  12.155   7.769   8.911
51265SOL     OW55626   8.837  14.715   7.442
51265SOL    HW155627   8.823  14.622   7.462
51265SOL    HW255628   8.789  14.762   7.509
51266SOL     OW55629  10.413   7.403  13.221
51266SOL    HW155630  10.483   7.372  13.163
51266SOL    HW255631  10.451   7.477  13.267
51267SOL     OW55632  14.305   7.699  10.823
51267SOL    HW155633  14.281   7.735  10.738
51267SOL    HW255634  14.241   7.630  10.839
51268SOL     OW55635   8.727   1.060   1.632
51268SOL    HW155636   8.643   1.018   1.652
51268SOL    HW255637   8.793   0.997   1.662
51269SOL     OW55638  12.624   3.842   6.272
51269SOL    HW155639  12.635   3.791   6.192
51269SOL    HW255640  12.645   3.780   6.342
51270SOL     OW55641   5.731  12.000   6.709
51270SOL    HW155642   5.740  12.093   6.730
51270SOL    HW255643   5.808  11.980   6.656
51271SOL     OW55644   9.747   2.540   7.607
51271SOL    HW155645   9.666   2.506   7.645
51271SOL    HW255646   9.736   2.526   7.512
51272SOL     OW55647   3.091   8.573  11.069
51272SOL    HW155648   3.007   8.580  11.024
51272SOL    HW255649   3.068   8.562  11.161
51273SOL     OW55650   1.238   1.651  13.087
51273SOL    HW155651   1.322   1.683  13.055
51273SOL    HW255652   1.220   1.574  13.032
51274SOL     OW55653   6.080   3.979   2.856
51274SOL    HW155654   6.087   4.067   2.818
51274SOL    HW255655   6.142   3.979   2.928
51275SOL     OW55656   5.955  10.829   3.571
51275SOL    HW155657   5.907  10.847   3.651
51275SOL    HW255658   5.912  10.752   3.534
51276SOL     OW55659   4.521  14.160   3.358
51276SOL    HW155660   4.558  14.183   3.443
51276SOL    HW255661   4.462  14.087   3.376
51277SOL     OW55662   7.344   0.621  12.395
51277SOL    HW155663   7.295   0.543  12.419
51277SOL    HW255664   7.322   0.636  12.303
51278SOL     OW55665   0.499  14.658   9.361
51278SOL    HW155666   0.465  14.707   9.286
51278SOL    HW255667   0.572  14.608   9.324
51279SOL     OW55668   7.672   9.666   2.860
51279SOL    HW155669   7.578   9.684   2.864
51279SOL    HW255670   7.712   9.751   2.882
51280SOL     OW55671   1.983   8.249   5.675
51280SOL    HW155672   1.888   8.238   5.669
51280SOL    HW255673   2.013   8.168   5.717
51281SOL     OW55674  12.613   2.288   5.548
51281SOL    HW155675  12.571   2.293   5.462
51281SOL    HW255676  12.542   2.308   5.610
51282SOL     OW55677   4.597   2.847   4.247
51282SOL    HW155678   4.660   2.911   4.277
51282SOL    HW255679   4.630   2.817   4.162
51283SOL     OW55680   1.412   4.683   6.173
51283SOL    HW155681   1.492   4.632   6.187
51283SOL    HW255682   1.352   4.623   6.130
51284SOL     OW55683  14.453   8.276   9.194
51284SOL    HW155684  14.401   8.196   9.203
51284SOL    HW255685  14.544   8.246   9.193
51285SOL     OW55686  13.391   9.864  13.285
51285SOL    HW155687  13.300   9.877  13.256
51285SOL    HW255688  13.438   9.940  13.253
51286SOL     OW55689   2.798   0.501   9.357
51286SOL    HW155690   2.758   0.576   9.400
51286SOL    HW255691   2.877   0.483   9.408
51287SOL     OW55692   8.795   9.269   5.340
51287SOL    HW155693   8.750   9.189   5.366
51287SOL    HW255694   8.825   9.308   5.422
51288SOL     OW55695   2.908   6.818   2.272
51288SOL    HW155696   2.983   6.797   2.217
51288SOL    HW255697   2.887   6.736   2.317
51289SOL     OW55698  13.206   5.959  11.089
51289SOL    HW155699  13.169   5.877  11.121
51289SOL    HW255700  13.270   5.932  11.023
51290SOL     OW55701  10.041   0.461   9.511
51290SOL    HW155702  10.035   0.370   9.483
51290SOL    HW255703  10.135   0.476   9.524
51291SOL     OW55704   0.837   3.943   0.809
51291SOL    HW155705   0.783   3.864   0.818
51291SOL    HW255706   0.777   4.015   0.827
51292SOL     OW55707   7.434  14.267  14.075
51292SOL    HW155708   7.453  14.202  14.142
51292SOL    HW255709   7.436  14.218  13.993
51293SOL     OW55710   2.922   6.866   6.337
51293SOL    HW155711   3.015   6.845   6.339
51293SOL    HW255712   2.886   6.823   6.414
51294SOL     OW55713  12.898   4.289   3.298
51294SOL    HW155714  12.900   4.318   3.389
51294SOL    HW255715  12.807   4.301   3.271
51295SOL     OW55716   9.446  14.804   0.974
51295SOL    HW155717   9.458   0.005   0.918
51295SOL    HW255718   9.511  14.741   0.944
51296SOL     OW55719   0.779   4.190   5.891
51296SOL    HW155720   0.761   4.243   5.812
51296SOL    HW255721   0.838   4.245   5.943
51297SOL     OW55722  10.471  14.545   2.223
51297SOL    HW155723  10.544  14.508   2.272
51297SOL    HW255724  10.512  14.596   2.154
51298SOL     OW55725   2.203  12.774   2.516
51298SOL    HW155726   2.236  12.694   2.473
51298SOL    HW255727   2.258  12.784   2.593
51299SOL     OW55728   4.099   8.594   5.807
51299SOL    HW155729   4.102   8.500   5.792
51299SOL    HW255730   4.190   8.623   5.802
51300SOL     OW55731   4.937  13.517   5.312
51300SOL    HW155732   4.974  13.510   5.224
51300SOL    HW255733   4.944  13.429   5.349
51301SOL     OW55734   3.886   9.183   2.673
51301SOL    HW155735   3.971   9.180   2.718
51301SOL    HW255736   3.837   9.109   2.710
51302SOL     OW55737   9.665   2.340   5.843
51302SOL    HW155738   9.650   2.342   5.938
51302SOL    HW255739   9.758   2.364   5.834
51303SOL     OW55740   1.821   9.034  10.462
51303SOL    HW155741   1.865   8.970  10.518
51303SOL    HW255742   1.733   9.043  10.499
51304SOL     OW55743   4.148   7.573  10.236
51304SOL    HW155744   4.090   7.593  10.163
51304SOL    HW255745   4.229   7.620  10.217
51305SOL     OW55746   5.262   3.763   5.808
51305SOL    HW155747   5.352   3.732   5.796
51305SOL    HW255748   5.263   3.852   5.773
51306SOL     OW55749   8.038  10.329   0.050
51306SOL    HW155750   8.034  10.290  14.838
51306SOL    HW255751   8.082  10.413   0.036
51307SOL     OW55752   9.891   7.398   1.852
51307SOL    HW155753   9.838   7.334   1.805
51307SOL    HW255754   9.873   7.381   1.944
51308SOL     OW55755   3.807  10.227   9.219
51308SOL    HW155756   3.845  10.295   9.164
51308SOL    HW255757   3.798  10.151   9.162
51309SOL     OW55758  14.180   6.106   9.871
51309SOL    HW155759  14.110   6.108   9.937
51309SOL    HW255760  14.182   6.194   9.835
51310SOL     OW55761   8.098   8.547   2.586
51310SOL    HW155762   8.189   8.572   2.571
51310SOL    HW255763   8.050   8.630   2.581
51311SOL     OW55764   6.580   5.978  14.519
51311SOL    HW155765   6.563   5.887  14.543
51311SOL    HW255766   6.521   5.995  14.446
51312SOL     OW55767   7.619  12.159   6.354
51312SOL    HW155768   7.630  12.123   6.442
51312SOL    HW255769   7.553  12.103   6.314
51313SOL     OW55770   3.598   5.869   0.776
51313SOL    HW155771   3.590   5.800   0.843
51313SOL    HW255772   3.606   5.950   0.827
51314SOL     OW55773   3.638  12.696  12.057
51314SOL    HW155774   3.680  12.718  11.974
51314SOL    HW255775   3.557  12.747  12.057
51315SOL     OW55776   5.159  12.126   6.176
51315SOL    HW155777   5.095  12.090   6.114
51315SOL    HW255778   5.157  12.066   6.250
51316SOL     OW55779   1.459  12.038   1.818
51316SOL    HW155780   1.461  11.975   1.747
51316SOL    HW255781   1.369  12.073   1.817
51317SOL     OW55782   0.237   7.417   7.853
51317SOL    HW155783   0.155   7.465   7.860
51317SOL    HW255784   0.212   7.325   7.854
51318SOL     OW55785   1.075   6.924  12.495
51318SOL    HW155786   1.145   6.863  12.472
51318SOL    HW255787   1.064   6.979  12.418
51319SOL     OW55788   7.037  13.148  11.625
51319SOL    HW155789   7.051  13.059  11.592
51319SOL    HW255790   6.983  13.136  11.703
51320SOL     OW55791   4.870   4.519  13.350
51320SOL    HW155792   4.846   4.446  13.293
51320SOL    HW255793   4.925   4.574  13.295
51321SOL     OW55794   8.640   1.065   6.852
51321SOL    HW155795   8.619   1.123   6.926
51321SOL    HW255796   8.731   1.083   6.832
51322SOL     OW55797   0.302   3.871   5.498
51322SOL    HW155798   0.282   3.777   5.505
51322SOL    HW255799   0.217   3.912   5.483
51323SOL     OW55800   3.938  13.436  12.649
51323SOL    HW155801   3.940  13.437  12.554
51323SOL    HW255802   4.005  13.373  12.674
51324SOL     OW55803  12.124   0.756   2.828
51324SOL    HW155804  12.052   0.762   2.765
51324SOL    HW255805  12.080   0.752   2.913
51325SOL     OW55806  14.253   3.083   6.186
51325SOL    HW155807  14.303   3.026   6.245
51325SOL    HW255808  14.209   3.145   6.244
51326SOL     OW55809   5.794  10.767  13.328
51326SOL    HW155810   5.884  10.742  13.348
51326SOL    HW255811   5.743  10.687  13.336
51327SOL     OW55812   6.989  12.823   9.243
51327SOL    HW155813   7.040  12.748   9.273
51327SOL    HW255814   7.051  12.877   9.195
51328SOL     OW55815   3.700   6.823   6.424
51328SOL    HW155816   3.724   6.731   6.433
51328SOL    HW255817   3.770   6.862   6.372
51329SOL     OW55818  13.619   5.252   0.508
51329SOL    HW155819  13.571   5.333   0.523
51329SOL    HW255820  13.557   5.182   0.528
51330SOL     OW55821   5.214   2.484  13.020
51330SOL    HW155822   5.153   2.511  12.951
51330SOL    HW255823   5.197   2.390  13.032
51331SOL     OW55824  11.801   3.318   1.168
51331SOL    HW155825  11.796   3.354   1.080
51331SOL    HW255826  11.803   3.223   1.156
51332SOL     OW55827   2.202  10.520   0.964
51332SOL    HW155828   2.122  10.474   0.991
51332SOL    HW255829   2.220  10.580   1.036
51333SOL     OW55830   5.841  11.418   6.082
51333SOL    HW155831   5.860  11.476   6.008
51333SOL    HW255832   5.746  11.407   6.080
51334SOL     OW55833   2.341   2.888   0.823
51334SOL    HW155834   2.339   2.974   0.780
51334SOL    HW255835   2.270   2.839   0.782
51335SOL     OW55836   4.797   0.633   5.574
51335SOL    HW155837   4.710   0.669   5.587
51335SOL    HW255838   4.814   0.580   5.652
51336SOL     OW55839   5.503   2.023   5.817
51336SOL    HW155840   5.425   2.057   5.773
51336SOL    HW255841   5.536   2.098   5.867
51337SOL     OW55842   6.927   1.656   8.251
51337SOL    HW155843   6.953   1.679   8.161
51337SOL    HW255844   6.875   1.731   8.280
51338SOL     OW55845  12.612  13.587  10.793
51338SOL    HW155846  12.617  13.529  10.717
51338SOL    HW255847  12.591  13.528  10.867
51339SOL     OW55848   4.739   6.779  12.531
51339SOL    HW155849   4.659   6.736  12.562
51339SOL    HW255850   4.790   6.794  12.611
51340SOL     OW55851  10.155  13.434   0.093
51340SOL    HW155852  10.171  13.499   0.025
51340SOL    HW255853  10.243  13.404   0.119
51341SOL     OW55854   4.074   8.986   4.309
51341SOL    HW155855   4.100   9.071   4.273
51341SOL    HW255856   4.143   8.965   4.373
51342SOL     OW55857   9.229   1.772   3.887
51342SOL    HW155858   9.243   1.854   3.840
51342SOL    HW255859   9.228   1.705   3.819
51343SOL     OW55860  11.017   3.365   8.715
51343SOL    HW155861  11.061   3.417   8.647
51343SOL    HW255862  11.086   3.308   8.749
51344SOL     OW55863   2.700   0.073   2.273
51344SOL    HW155864   2.785   0.107   2.300
51344SOL    HW255865   2.695  14.862   2.314
51345SOL     OW55866   8.926   8.425   0.589
51345SOL    HW155867   9.022   8.418   0.580
51345SOL    HW255868   8.899   8.473   0.510
51346SOL     OW55869   6.032  11.968  14.248
51346SOL    HW155870   6.012  11.880  14.216
51346SOL    HW255871   5.958  11.990  14.304
51347SOL     OW55872   2.754   3.230   9.940
51347SOL    HW155873   2.821   3.286   9.901
51347SOL    HW255874   2.781   3.141   9.917
51348SOL     OW55875   7.126   3.227   8.421
51348SOL    HW155876   7.140   3.265   8.335
51348SOL    HW255877   7.139   3.133   8.408
51349SOL     OW55878   4.346  13.945   4.104
51349SOL    HW155879   4.387  13.924   4.020
51349SOL    HW255880   4.386  13.883   4.166
51350SOL     OW55881  10.642   7.469  14.824
51350SOL    HW155882  10.552   7.444  14.803
51350SOL    HW255883  10.675   7.511  14.745
51351SOL     OW55884   1.542   9.523   3.195
51351SOL    HW155885   1.468   9.503   3.138
51351SOL    HW255886   1.544   9.451   3.258
51352SOL     OW55887   4.390   2.899  10.591
51352SOL    HW155888   4.356   2.944  10.668
51352SOL    HW255889   4.394   2.807  10.616
51353SOL     OW55890   2.405   1.980   2.636
51353SOL    HW155891   2.409   1.894   2.594
51353SOL    HW255892   2.344   1.969   2.709
51354SOL     OW55893  12.917   5.887   6.884
51354SOL    HW155894  12.953   5.801   6.862
51354SOL    HW255895  12.952   5.945   6.817
51355SOL     OW55896   8.258  10.723   0.367
51355SOL    HW155897   8.252  10.782   0.443
51355SOL    HW255898   8.243  10.636   0.404
51356SOL     OW55899  10.879   9.276   9.100
51356SOL    HW155900  10.908   9.324   9.023
51356SOL    HW255901  10.934   9.198   9.102
51357SOL     OW55902   7.075   4.656  12.560
51357SOL    HW155903   7.169   4.656  12.544
51357SOL    HW255904   7.037   4.625  12.477
51358SOL     OW55905   7.843   3.077  10.076
51358SOL    HW155906   7.927   3.096  10.034
51358SOL    HW255907   7.785   3.148  10.047
51359SOL     OW55908   2.256   2.184   5.039
51359SOL    HW155909   2.306   2.207   4.961
51359SOL    HW255910   2.317   2.133   5.092
51360SOL     OW55911   6.663   3.028   7.519
51360SOL    HW155912   6.725   2.996   7.453
51360SOL    HW255913   6.640   3.116   7.490
51361SOL     OW55914   3.850   3.135  10.405
51361SOL    HW155915   3.786   3.106  10.469
51361SOL    HW255916   3.850   3.067  10.338
51362SOL     OW55917   0.896   4.335  10.371
51362SOL    HW155918   0.911   4.246  10.338
51362SOL    HW255919   0.832   4.372  10.311
51363SOL     OW55920  10.107  10.381   8.500
51363SOL    HW155921  10.182  10.333   8.465
51363SOL    HW255922  10.076  10.434   8.427
51364SOL     OW55923   4.982   9.355   5.790
51364SOL    HW155924   4.889   9.336   5.796
51364SOL    HW255925   5.009   9.318   5.705
51365SOL     OW55926  12.169   6.122   2.522
51365SOL    HW155927  12.232   6.167   2.577
51365SOL    HW255928  12.134   6.052   2.578
51366SOL     OW55929  12.931   0.388   2.713
51366SOL    HW155930  13.004   0.394   2.776
51366SOL    HW255931  12.853   0.400   2.767
51367SOL     OW55932   6.012  10.365   9.370
51367SOL    HW155933   6.007  10.425   9.295
51367SOL    HW255934   5.948  10.297   9.350
51368SOL     OW55935   5.444   6.923   8.099
51368SOL    HW155936   5.535   6.940   8.077
51368SOL    HW255937   5.417   6.998   8.151
51369SOL     OW55938   2.434  10.538   6.325
51369SOL    HW155939   2.416  10.488   6.246
51369SOL    HW255940   2.354  10.528   6.377
51370SOL     OW55941   4.271  11.897   8.107
51370SOL    HW155942   4.213  11.907   8.032
51370SOL    HW255943   4.258  11.806   8.135
51371SOL     OW55944   0.691   0.046  13.428
51371SOL    HW155945   0.673   0.069  13.520
51371SOL    HW255946   0.703  14.827  13.429
51372SOL     OW55947  12.746  11.632   1.249
51372SOL    HW155948  12.701  11.715   1.230
51372SOL    HW255949  12.756  11.590   1.164
51373SOL     OW55950   6.312  13.100   0.211
51373SOL    HW155951   6.248  13.047   0.164
51373SOL    HW255952   6.260  13.163   0.261
51374SOL     OW55953  14.574   8.101   8.000
51374SOL    HW155954  14.663   8.126   7.977
51374SOL    HW255955  14.543   8.048   7.927
51375SOL     OW55956  14.838   3.446   7.065
51375SOL    HW155957   0.033   3.498   7.103
51375SOL    HW255958  14.785   3.419   7.140
51376SOL     OW55959   7.488   0.515  10.817
51376SOL    HW155960   7.580   0.506  10.841
51376SOL    HW255961   7.488   0.580  10.746
51377SOL     OW55962   6.872   7.341  10.860
51377SOL    HW155963   6.831   7.268  10.906
51377SOL    HW255964   6.807   7.366  10.794
51378SOL     OW55965   3.591   7.696   0.370
51378SOL    HW155966   3.590   7.789   0.395
51378SOL    HW255967   3.616   7.696   0.278
51379SOL     OW55968   8.867   5.746  13.619
51379SOL    HW155969   8.773   5.728  13.619
51379SOL    HW255970   8.876   5.827  13.570
51380SOL     OW55971   6.685   9.279  12.526
51380SOL    HW155972   6.738   9.205  12.557
51380SOL    HW255973   6.605   9.238  12.495
51381SOL     OW55974   2.860  14.118   7.675
51381SOL    HW155975   2.920  14.167   7.731
51381SOL    HW255976   2.881  14.147   7.586
51382SOL     OW55977   8.120   5.120   2.996
51382SOL    HW155978   8.072   5.044   2.962
51382SOL    HW255979   8.054   5.170   3.045
51383SOL     OW55980   1.499   0.898  10.433
51383SOL    HW155981   1.510   0.809  10.466
51383SOL    HW255982   1.455   0.945  10.504
51384SOL     OW55983   7.414  12.416   0.513
51384SOL    HW155984   7.432  12.492   0.458
51384SOL    HW255985   7.400  12.345   0.451
51385SOL     OW55986   8.676   5.263   4.330
51385SOL    HW155987   8.601   5.306   4.371
51385SOL    HW255988   8.744   5.264   4.398
51386SOL     OW55989   5.695  14.708  12.597
51386SOL    HW155990   5.773  14.760  12.613
51386SOL    HW255991   5.631  14.740  12.660
51387SOL     OW55992   8.967  13.522  10.171
51387SOL    HW155993   9.053  13.527  10.212
51387SOL    HW255994   8.957  13.431  10.144
51388SOL     OW55995   7.911   8.870   0.600
51388SOL    HW155996   7.968   8.917   0.539
51388SOL    HW255997   7.966   8.800   0.635
51389SOL     OW55998   9.821   0.182  10.291
51389SOL    HW155999   9.898   0.125  10.296
51389SOL    HW256000   9.821   0.229  10.375
51390SOL     OW56001  10.768   3.786  13.007
51390SOL    HW156002  10.695   3.841  13.036
51390SOL    HW256003  10.829   3.848  12.966
51391SOL     OW56004   4.270   8.662   4.393
51391SOL    HW156005   4.226   8.702   4.318
51391SOL    HW256006   4.357   8.702   4.394
51392SOL     OW56007  12.638   6.433   6.742
51392SOL    HW156008  12.670   6.494   6.808
51392SOL    HW256009  12.667   6.347   6.774
51393SOL     OW56010   7.259  12.626   3.265
51393SOL    HW156011   7.239  12.581   3.183
51393SOL    HW256012   7.189  12.691   3.274
51394SOL     OW56013   1.032   2.383   1.558
51394SOL    HW156014   1.110   2.437   1.571
51394SOL    HW256015   1.060   2.315   1.496
51395SOL     OW56016  10.058   5.776   9.921
51395SOL    HW156017  10.031   5.784  10.013
51395SOL    HW256018   9.992   5.826   9.873
51396SOL     OW56019   9.067  14.820   1.287
51396SOL    HW156020   9.056  14.729   1.316
51396SOL    HW256021   9.160  14.826   1.263
51397SOL     OW56022  13.596   5.224  10.095
51397SOL    HW156023  13.622   5.194  10.182
51397SOL    HW256024  13.649   5.172  10.035
51398SOL     OW56025   9.217   1.504  14.645
51398SOL    HW156026   9.126   1.473  14.647
51398SOL    HW256027   9.221   1.570  14.715
51399SOL     OW56028  14.056  13.051   0.044
51399SOL    HW156029  13.967  13.017   0.037
51399SOL    HW256030  14.075  13.048   0.138
51400SOL     OW56031   9.797  14.802   4.383
51400SOL    HW156032   9.757  14.795   4.469
51400SOL    HW256033   9.724  14.820   4.324
51401SOL     OW56034   2.013   7.247   5.987
51401SOL    HW156035   1.959   7.187   5.936
51401SOL    HW256036   2.064   7.295   5.921
51402SOL     OW56037  11.704  13.959   6.608
51402SOL    HW156038  11.746  14.016   6.543
51402SOL    HW256039  11.765  13.958   6.682
51403SOL     OW56040   7.672   2.529   6.976
51403SOL    HW156041   7.652   2.610   6.930
51403SOL    HW256042   7.766   2.516   6.962
51404SOL     OW56043   3.568   5.510   8.536
51404SOL    HW156044   3.662   5.493   8.542
51404SOL    HW256045   3.545   5.544   8.623
51405SOL     OW56046   6.228   4.531   1.259
51405SOL    HW156047   6.223   4.554   1.166
51405SOL    HW256048   6.321   4.517   1.276
51406SOL     OW56049   6.360   5.138   7.496
51406SOL    HW156050   6.287   5.200   7.502
51406SOL    HW256051   6.320   5.058   7.461
51407SOL     OW56052   0.319   7.100   6.814
51407SOL    HW156053   0.351   7.187   6.790
51407SOL    HW256054   0.397   7.053   6.843
51408SOL     OW56055  14.750   1.582  13.890
51408SOL    HW156056  14.815   1.520  13.860
51408SOL    HW256057  14.798   1.664  13.902
51409SOL     OW56058   6.690   0.733  14.457
51409SOL    HW156059   6.679   0.644  14.425
51409SOL    HW256060   6.612   0.780  14.426
51410SOL     OW56061   0.183   2.908   1.179
51410SOL    HW156062   0.152   2.995   1.154
51410SOL    HW256063   0.111   2.872   1.231
51411SOL     OW56064  13.299  11.721  12.820
51411SOL    HW156065  13.276  11.801  12.772
51411SOL    HW256066  13.392  11.707  12.801
51412SOL     OW56067  10.404   7.352   4.406
51412SOL    HW156068  10.433   7.378   4.319
51412SOL    HW256069  10.366   7.431   4.444
51413SOL     OW56070   2.416   7.011  10.248
51413SOL    HW156071   2.424   7.081  10.312
51413SOL    HW256072   2.336   6.964  10.274
51414SOL     OW56073  11.931   8.265  10.723
51414SOL    HW156074  11.921   8.308  10.638
51414SOL    HW256075  11.944   8.173  10.702
51415SOL     OW56076   1.859  14.622  14.039
51415SOL    HW156077   1.904  14.615  14.123
51415SOL    HW256078   1.925  14.600  13.973
51416SOL     OW56079  14.007   4.720  11.433
51416SOL    HW156080  14.030   4.812  11.440
51416SOL    HW256081  14.016   4.687  11.523
51417SOL     OW56082   7.007  12.397  13.211
51417SOL    HW156083   7.044  12.464  13.269
51417SOL    HW256084   6.919  12.428  13.193
51418SOL     OW56085   9.481   9.615  13.284
51418SOL    HW156086   9.412   9.681  13.280
51418SOL    HW256087   9.508   9.603  13.193
51419SOL     OW56088   0.202   0.993  13.677
51419SOL    HW156089   0.170   0.911  13.639
51419SOL    HW256090   0.291   1.002  13.644
51420SOL     OW56091   1.548  12.234   8.089
51420SOL    HW156092   1.570  12.327   8.087
51420SOL    HW256093   1.520  12.218   8.179
51421SOL     OW56094   2.884   0.346   7.984
51421SOL    HW156095   2.952   0.408   8.011
51421SOL    HW256096   2.851   0.381   7.902
51422SOL     OW56097  14.147  11.798   5.547
51422SOL    HW156098  14.157  11.773   5.639
51422SOL    HW256099  14.170  11.719   5.498
51423SOL     OW56100  14.480  14.416   6.269
51423SOL    HW156101  14.532  14.412   6.349
51423SOL    HW256102  14.539  14.383   6.201
51424SOL     OW56103   6.859   3.945   6.667
51424SOL    HW156104   6.896   4.011   6.727
51424SOL    HW256105   6.787   3.991   6.623
51425SOL     OW56106   0.431   2.116  10.865
51425SOL    HW156107   0.493   2.050  10.835
51425SOL    HW256108   0.448   2.192  10.810
51426SOL     OW56109  10.150   1.071   6.881
51426SOL    HW156110  10.166   1.004   6.814
51426SOL    HW256111  10.068   1.113   6.853
51427SOL     OW56112   7.868  11.289  10.611
51427SOL    HW156113   7.926  11.222  10.574
51427SOL    HW256114   7.788  11.283  10.559
51428SOL     OW56115   1.375   8.522  10.322
51428SOL    HW156116   1.464   8.490  10.338
51428SOL    HW256117   1.388   8.609  10.285
51429SOL     OW56118  13.629   8.174  11.875
51429SOL    HW156119  13.696   8.167  11.943
51429SOL    HW256120  13.596   8.084  11.865
51430SOL     OW56121   7.910  13.693  10.566
51430SOL    HW156122   7.961  13.675  10.645
51430SOL    HW256123   7.970  13.672  10.494
51431SOL     OW56124   1.803   0.414   6.913
51431SOL    HW156125   1.873   0.401   6.977
51431SOL    HW256126   1.800   0.509   6.901
51432SOL     OW56127   4.806  10.229   7.381
51432SOL    HW156128   4.750  10.228   7.458
51432SOL    HW256129   4.879  10.287   7.404
51433SOL     OW56130   1.473  10.843   1.052
51433SOL    HW156131   1.484  10.938   1.048
51433SOL    HW256132   1.483  10.821   1.145
51434SOL     OW56133  12.931   1.269  10.624
51434SOL    HW156134  12.969   1.211  10.557
51434SOL    HW256135  12.999   1.275  10.691
51435SOL     OW56136   8.099   7.798   6.532
51435SOL    HW156137   8.043   7.746   6.474
51435SOL    HW256138   8.043   7.870   6.561
51436SOL     OW56139   5.064   2.499  10.418
51436SOL    HW156140   5.021   2.572  10.372
51436SOL    HW256141   5.155   2.505  10.391
51437SOL     OW56142   5.344   1.049  14.744
51437SOL    HW156143   5.433   1.034  14.776
51437SOL    HW256144   5.290   0.989  14.795
51438SOL     OW56145   4.746   8.845   3.341
51438SOL    HW156146   4.817   8.790   3.376
51438SOL    HW256147   4.702   8.879   3.419
51439SOL     OW56148   0.709  12.279   7.780
51439SOL    HW156149   0.644  12.216   7.810
51439SOL    HW256150   0.661  12.361   7.768
51440SOL     OW56151  11.055  12.989   3.169
51440SOL    HW156152  11.130  12.945   3.209
51440SOL    HW256153  11.061  12.966   3.076
51441SOL     OW56154  12.956   4.785  14.622
51441SOL    HW156155  13.026   4.815  14.564
51441SOL    HW256156  12.988   4.701  14.656
51442SOL     OW56157   2.629   7.719   9.567
51442SOL    HW156158   2.548   7.707   9.517
51442SOL    HW256159   2.691   7.661   9.525
51443SOL     OW56160   4.173  11.543  13.783
51443SOL    HW156161   4.221  11.531  13.865
51443SOL    HW256162   4.089  11.500  13.796
51444SOL     OW56163  13.844  14.529   6.695
51444SOL    HW156164  13.821  14.596   6.759
51444SOL    HW256165  13.915  14.479   6.737
51445SOL     OW56166   0.594   4.418   9.139
51445SOL    HW156167   0.588   4.497   9.193
51445SOL    HW256168   0.662   4.365   9.182
51446SOL     OW56169   4.631  10.722   2.547
51446SOL    HW156170   4.548  10.680   2.569
51446SOL    HW256171   4.628  10.732   2.452
51447SOL     OW56172   3.489   6.770   7.040
51447SOL    HW156173   3.430   6.788   7.113
51447SOL    HW256174   3.482   6.847   6.984
51448SOL     OW56175   8.387  13.639   3.361
51448SOL    HW156176   8.368  13.627   3.268
51448SOL    HW256177   8.459  13.703   3.363
51449SOL     OW56178   5.267   3.755   0.413
51449SOL    HW156179   5.273   3.794   0.500
51449SOL    HW256180   5.349   3.706   0.403
51450SOL     OW56181   5.069   1.686   6.512
51450SOL    HW156182   5.013   1.656   6.583
51450SOL    HW256183   5.076   1.611   6.453
51451SOL     OW56184   8.693   1.370   9.902
51451SOL    HW156185   8.655   1.447   9.943
51451SOL    HW256186   8.695   1.304   9.972
51452SOL     OW56187   8.741  11.332   4.403
51452SOL    HW156188   8.837  11.331   4.405
51452SOL    HW256189   8.717  11.372   4.486
51453SOL     OW56190   7.343   5.940   4.415
51453SOL    HW156191   7.429   5.936   4.373
51453SOL    HW256192   7.328   6.033   4.431
51454SOL     OW56193   7.934   6.407  14.667
51454SOL    HW156194   7.843   6.377  14.665
51454SOL    HW256195   7.983   6.337  14.623
51455SOL     OW56196   1.443  13.327   1.326
51455SOL    HW156197   1.387  13.325   1.248
51455SOL    HW256198   1.446  13.236   1.355
51456SOL     OW56199   0.956   6.865   5.097
51456SOL    HW156200   0.958   6.796   5.163
51456SOL    HW256201   0.903   6.934   5.137
51457SOL     OW56202  14.455   1.163  10.868
51457SOL    HW156203  14.436   1.127  10.954
51457SOL    HW256204  14.547   1.143  10.853
51458SOL     OW56205   0.910   9.049   4.222
51458SOL    HW156206   0.958   9.132   4.215
51458SOL    HW256207   0.886   9.042   4.314
51459SOL     OW56208   9.384   6.917   8.401
51459SOL    HW156209   9.449   6.853   8.431
51459SOL    HW256210   9.403   6.929   8.308
51460SOL     OW56211  14.582   4.807   6.482
51460SOL    HW156212  14.579   4.758   6.400
51460SOL    HW256213  14.490   4.815   6.509
51461SOL     OW56214   2.671   7.381   1.395
51461SOL    HW156215   2.750   7.355   1.442
51461SOL    HW256216   2.633   7.299   1.363
51462SOL     OW56217   8.360  11.415   8.961
51462SOL    HW156218   8.360  11.323   8.989
51462SOL    HW256219   8.422  11.458   9.020
51463SOL     OW56220  12.755   0.784  13.471
51463SOL    HW156221  12.663   0.811  13.479
51463SOL    HW256222  12.795   0.852  13.417
51464SOL     OW56223   2.938  13.195  12.653
51464SOL    HW156224   2.990  13.160  12.725
51464SOL    HW256225   2.858  13.143  12.653
51465SOL     OW56226   0.676   1.259   8.399
51465SOL    HW156227   0.668   1.178   8.450
51465SOL    HW256228   0.708   1.230   8.314
51466SOL     OW56229   8.219  14.398   2.470
51466SOL    HW156230   8.283  14.353   2.415
51466SOL    HW256231   8.262  14.479   2.497
51467SOL     OW56232   4.630  13.241   3.375
51467SOL    HW156233   4.657  13.158   3.414
51467SOL    HW256234   4.564  13.275   3.436
51468SOL     OW56235   0.678   6.912   8.154
51468SOL    HW156236   0.653   7.003   8.173
51468SOL    HW256237   0.606   6.860   8.189
51469SOL     OW56238   5.639  10.567   8.528
51469SOL    HW156239   5.622  10.562   8.434
51469SOL    HW256240   5.718  10.620   8.536
51470SOL     OW56241   3.677   1.217   0.694
51470SOL    HW156242   3.606   1.235   0.756
51470SOL    HW256243   3.734   1.156   0.740
51471SOL     OW56244   5.889  11.511   9.696
51471SOL    HW156245   5.899  11.417   9.679
51471SOL    HW256246   5.910  11.552   9.612
51472SOL     OW56247   2.903   7.358   5.793
51472SOL    HW156248   2.912   7.310   5.711
51472SOL    HW256249   2.809   7.375   5.801
51473SOL     OW56250   0.618  11.951   4.462
51473SOL    HW156251   0.522  11.948   4.462
51473SOL    HW256252   0.640  12.015   4.530
51474SOL     OW56253  13.344   7.658  11.039
51474SOL    HW156254  13.278   7.590  11.050
51474SOL    HW256255  13.425   7.611  11.022
51475SOL     OW56256   6.054   1.538   0.787
51475SOL    HW156257   6.083   1.600   0.854
51475SOL    HW256258   6.105   1.560   0.709
51476SOL     OW56259   9.676   9.509   2.783
51476SOL    HW156260   9.597   9.478   2.827
51476SOL    HW256261   9.665   9.480   2.692
51477SOL     OW56262   2.663  11.445   4.626
51477SOL    HW156263   2.644  11.508   4.556
51477SOL    HW256264   2.695  11.498   4.698
51478SOL     OW56265   9.535  11.703  12.064
51478SOL    HW156266   9.503  11.757  12.136
51478SOL    HW256267   9.523  11.613  12.095
51479SOL     OW56268  13.339   1.952   8.848
51479SOL    HW156269  13.306   1.926   8.762
51479SOL    HW256270  13.289   1.899   8.910
51480SOL     OW56271   9.850  14.076   8.143
51480SOL    HW156272   9.894  14.019   8.206
51480SOL    HW256273   9.890  14.056   8.059
51481SOL     OW56274   3.194   8.563  12.787
51481SOL    HW156275   3.241   8.489  12.749
51481SOL    HW256276   3.176   8.537  12.877
51482SOL     OW56277  11.679   3.305   4.366
51482SOL    HW156278  11.743   3.240   4.337
51482SOL    HW256279  11.712   3.389   4.334
51483SOL     OW56280  10.198   4.980   5.749
51483SOL    HW156281  10.210   5.026   5.666
51483SOL    HW256282  10.208   4.888   5.727
51484SOL     OW56283   2.796   6.343   6.904
51484SOL    HW156284   2.889   6.364   6.908
51484SOL    HW256285   2.772   6.359   6.813
51485SOL     OW56286  13.053  13.131   0.889
51485SOL    HW156287  13.009  13.048   0.907
51485SOL    HW256288  13.145  13.113   0.909
51486SOL     OW56289   4.129   6.654  11.380
51486SOL    HW156290   4.192   6.588  11.349
51486SOL    HW256291   4.124   6.639  11.475
51487SOL     OW56292   8.725   8.244   0.678
51487SOL    HW156293   8.773   8.301   0.618
51487SOL    HW256294   8.650   8.213   0.626
51488SOL     OW56295   3.842   5.017   6.567
51488SOL    HW156296   3.766   5.054   6.611
51488SOL    HW256297   3.917   5.053   6.615
51489SOL     OW56298   8.804   5.481   2.555
51489SOL    HW156299   8.781   5.482   2.462
51489SOL    HW256300   8.897   5.504   2.558
51490SOL     OW56301  10.731   1.966   7.427
51490SOL    HW156302  10.665   1.989   7.361
51490SOL    HW256303  10.683   1.966   7.509
51491SOL     OW56304  11.350  10.787   8.994
51491SOL    HW156305  11.296  10.830   8.929
51491SOL    HW256306  11.363  10.698   8.960
51492SOL     OW56307  12.808   5.743  11.936
51492SOL    HW156308  12.783   5.678  11.870
51492SOL    HW256309  12.804   5.695  12.019
51493SOL     OW56310   8.082   9.122   1.491
51493SOL    HW156311   8.173   9.101   1.514
51493SOL    HW256312   8.041   9.144   1.575
51494SOL     OW56313   4.728   1.602  11.762
51494SOL    HW156314   4.795   1.535  11.749
51494SOL    HW256315   4.748   1.668  11.696
51495SOL     OW56316  11.045   5.576   4.764
51495SOL    HW156317  10.963   5.570   4.813
51495SOL    HW256318  11.083   5.659   4.793
51496SOL     OW56319   5.743  13.658  10.757
51496SOL    HW156320   5.830  13.655  10.797
51496SOL    HW256321   5.757  13.629  10.667
51497SOL     OW56322   4.368   5.164   9.698
51497SOL    HW156323   4.402   5.099   9.637
51497SOL    HW256324   4.396   5.134   9.784
51498SOL     OW56325   6.357   0.797   2.045
51498SOL    HW156326   6.382   0.705   2.038
51498SOL    HW256327   6.313   0.817   1.963
51499SOL     OW56328   7.679  13.684   1.167
51499SOL    HW156329   7.693  13.590   1.172
51499SOL    HW256330   7.682  13.714   1.257
51500SOL     OW56331   3.570  12.892   9.863
51500SOL    HW156332   3.575  12.798   9.881
51500SOL    HW256333   3.569  12.898   9.768
51501SOL     OW56334   0.588   0.387   5.006
51501SOL    HW156335   0.625   0.384   4.918
51501SOL    HW256336   0.663   0.373   5.064
51502SOL     OW56337  10.661   4.970   2.135
51502SOL    HW156338  10.748   4.962   2.097
51502SOL    HW256339  10.642   4.884   2.171
51503SOL     OW56340   2.767   5.057   0.498
51503SOL    HW156341   2.732   5.070   0.410
51503SOL    HW256342   2.730   5.128   0.550
51504SOL     OW56343  11.528   6.394  14.289
51504SOL    HW156344  11.546   6.474  14.339
51504SOL    HW256345  11.554   6.323  14.347
51505SOL     OW56346   9.941  13.932   7.945
51505SOL    HW156347   9.869  13.891   7.897
51505SOL    HW256348   9.997  13.858   7.971
51506SOL     OW56349   0.590   9.979   3.910
51506SOL    HW156350   0.500  10.011   3.901
51506SOL    HW256351   0.589   9.894   3.866
51507SOL     OW56352   9.514   7.271  14.561
51507SOL    HW156353   9.419   7.266  14.559
51507SOL    HW256354   9.535   7.355  14.520
51508SOL     OW56355   6.716  12.060   3.789
51508SOL    HW156356   6.715  12.018   3.702
51508SOL    HW256357   6.686  11.992   3.849
51509SOL     OW56358  11.064   2.634   5.625
51509SOL    HW156359  11.145   2.612   5.578
51509SOL    HW256360  11.003   2.659   5.556
51510SOL     OW56361   5.855   4.325   2.665
51510SOL    HW156362   5.804   4.250   2.635
51510SOL    HW256363   5.937   4.287   2.697
51511SOL     OW56364   2.086   5.964   6.380
51511SOL    HW156365   2.099   5.899   6.310
51511SOL    HW256366   2.061   6.044   6.334
51512SOL     OW56367   7.940   2.423   6.023
51512SOL    HW156368   8.005   2.356   6.000
51512SOL    HW256369   7.993   2.497   6.054
51513SOL     OW56370   9.057   8.830   7.757
51513SOL    HW156371   9.088   8.917   7.730
51513SOL    HW256372   8.965   8.844   7.779
51514SOL     OW56373   8.929  12.161  12.063
51514SOL    HW156374   8.921  12.103  11.988
51514SOL    HW256375   8.862  12.228  12.050
51515SOL     OW56376   4.916  11.625   1.222
51515SOL    HW156377   4.879  11.592   1.304
51515SOL    HW256378   4.934  11.547   1.170
51516SOL     OW56379  10.951  11.640   4.767
51516SOL    HW156380  10.996  11.723   4.751
51516SOL    HW256381  10.905  11.620   4.686
51517SOL     OW56382   4.721  10.111   7.124
51517SOL    HW156383   4.777  10.177   7.083
51517SOL    HW256384   4.716  10.138   7.216
51518SOL     OW56385  12.454   2.479   2.879
51518SOL    HW156386  12.541   2.516   2.873
51518SOL    HW256387  12.402   2.544   2.925
51519SOL     OW56388   2.105   8.829   3.424
51519SOL    HW156389   2.104   8.783   3.340
51519SOL    HW256390   2.195   8.862   3.432
51520SOL     OW56391   0.745   9.372  13.241
51520SOL    HW156392   0.768   9.433  13.171
51520SOL    HW256393   0.746   9.426  13.321
51521SOL     OW56394  11.522  12.416   8.890
51521SOL    HW156395  11.615  12.399   8.904
51521SOL    HW256396  11.479  12.335   8.916
51522SOL     OW56397   3.268  11.733   5.520
51522SOL    HW156398   3.211  11.809   5.536
51522SOL    HW256399   3.333  11.737   5.589
51523SOL     OW56400  11.754   8.123   7.365
51523SOL    HW156401  11.829   8.106   7.421
51523SOL    HW256402  11.759   8.216   7.346
51524SOL     OW56403   7.150   3.998   3.822
51524SOL    HW156404   7.155   4.027   3.731
51524SOL    HW256405   7.091   3.923   3.820
51525SOL     OW56406   3.542  13.029   4.335
51525SOL    HW156407   3.466  13.033   4.276
51525SOL    HW256408   3.566  13.120   4.348
51526SOL     OW56409  10.239   7.480   6.681
51526SOL    HW156410  10.198   7.548   6.627
51526SOL    HW256411  10.176   7.408   6.681
51527SOL     OW56412  12.679   4.029   3.438
51527SOL    HW156413  12.723   4.090   3.497
51527SOL    HW256414  12.592   4.066   3.426
51528SOL     OW56415   8.020   4.637   0.651
51528SOL    HW156416   7.980   4.711   0.605
51528SOL    HW256417   7.946   4.595   0.696
51529SOL     OW56418  14.190   1.168   3.168
51529SOL    HW156419  14.280   1.165   3.200
51529SOL    HW256420  14.140   1.117   3.232
51530SOL     OW56421   4.686   7.447   5.272
51530SOL    HW156422   4.731   7.364   5.286
51530SOL    HW256423   4.728   7.484   5.195
51531SOL     OW56424   0.418   3.605  10.654
51531SOL    HW156425   0.370   3.561  10.724
51531SOL    HW256426   0.449   3.687  10.694
51532SOL     OW56427  10.191   6.854   3.554
51532SOL    HW156428  10.195   6.880   3.462
51532SOL    HW256429  10.263   6.793   3.565
51533SOL     OW56430   9.499   7.435   6.056
51533SOL    HW156431   9.571   7.374   6.069
51533SOL    HW256432   9.424   7.380   6.032
51534SOL     OW56433   5.470  12.125   3.356
51534SOL    HW156434   5.375  12.120   3.355
51534SOL    HW256435   5.494  12.102   3.446
51535SOL     OW56436   7.612   0.897   8.697
51535SOL    HW156437   7.653   0.982   8.679
51535SOL    HW256438   7.577   0.906   8.786
51536SOL     OW56439   7.809  13.546   3.814
51536SOL    HW156440   7.774  13.523   3.728
51536SOL    HW256441   7.732  13.566   3.867
51537SOL     OW56442   6.668   3.988  10.385
51537SOL    HW156443   6.684   4.012  10.294
51537SOL    HW256444   6.740   4.029  10.434
51538SOL     OW56445   2.840  12.670  14.030
51538SOL    HW156446   2.838  12.575  14.045
51538SOL    HW256447   2.757  12.688  13.987
51539SOL     OW56448  11.730   9.319   9.097
51539SOL    HW156449  11.787   9.292   9.169
51539SOL    HW256450  11.790   9.336   9.024
51540SOL     OW56451   4.989  12.356   8.091
51540SOL    HW156452   4.913  12.373   8.035
51540SOL    HW256453   5.064  12.365   8.032
51541SOL     OW56454   9.878   5.405   4.652
51541SOL    HW156455   9.815   5.444   4.713
51541SOL    HW256456   9.860   5.448   4.569
51542SOL     OW56457   2.396   5.156   6.096
51542SOL    HW156458   2.338   5.110   6.036
51542SOL    HW256459   2.338   5.211   6.149
51543SOL     OW56460   0.627  13.116   4.515
51543SOL    HW156461   0.583  13.194   4.480
51543SOL    HW256462   0.595  13.044   4.460
51544SOL     OW56463   0.730   9.554   9.175
51544SOL    HW156464   0.652   9.535   9.229
51544SOL    HW256465   0.795   9.584   9.238
51545SOL     OW56466   2.017  13.206  10.803
51545SOL    HW156467   1.924  13.198  10.825
51545SOL    HW256468   2.042  13.118  10.774
51546SOL     OW56469   4.659   0.299   3.872
51546SOL    HW156470   4.631   0.251   3.950
51546SOL    HW256471   4.579   0.340   3.839
51547SOL     OW56472   8.818  14.623   1.876
51547SOL    HW156473   8.728  14.609   1.903
51547SOL    HW256474   8.813  14.686   1.804
51548SOL     OW56475   6.238  13.054   6.878
51548SOL    HW156476   6.195  13.003   6.946
51548SOL    HW256477   6.198  13.141   6.884
51549SOL     OW56478  13.030  12.670   7.512
51549SOL    HW156479  12.951  12.625   7.483
51549SOL    HW256480  13.039  12.743   7.451
51550SOL     OW56481   5.523   9.221   2.169
51550SOL    HW156482   5.502   9.166   2.245
51550SOL    HW256483   5.510   9.311   2.201
51551SOL     OW56484  13.616   6.823   4.793
51551SOL    HW156485  13.586   6.733   4.781
51551SOL    HW256486  13.571   6.852   4.872
51552SOL     OW56487   5.934   4.893   8.231
51552SOL    HW156488   5.997   4.863   8.297
51552SOL    HW256489   5.929   4.988   8.245
51553SOL     OW56490  10.458   9.664   8.469
51553SOL    HW156491  10.416   9.741   8.508
51553SOL    HW256492  10.402   9.591   8.494
51554SOL     OW56493   8.019   4.701  12.489
51554SOL    HW156494   8.101   4.651  12.494
51554SOL    HW256495   7.965   4.666  12.560
51555SOL     OW56496   8.230   1.117   1.044
51555SOL    HW156497   8.221   1.026   1.015
51555SOL    HW256498   8.140   1.147   1.056
51556SOL     OW56499  11.243  12.466  13.341
51556SOL    HW156500  11.288  12.385  13.316
51556SOL    HW256501  11.210  12.501  13.259
51557SOL     OW56502   4.916   5.622  12.182
51557SOL    HW156503   4.981   5.618  12.112
51557SOL    HW256504   4.845   5.675  12.146
51558SOL     OW56505  12.965   8.768   2.260
51558SOL    HW156506  13.056   8.768   2.292
51558SOL    HW256507  12.957   8.851   2.212
51559SOL     OW56508   9.161  10.567   8.522
51559SOL    HW156509   9.179  10.646   8.471
51559SOL    HW256510   9.220  10.573   8.597
51560SOL     OW56511   8.104  10.554   8.666
51560SOL    HW156512   8.088  10.460   8.674
51560SOL    HW256513   8.128  10.567   8.574
51561SOL     OW56514  11.611   2.925   3.394
51561SOL    HW156515  11.610   3.020   3.405
51561SOL    HW256516  11.523   2.897   3.418
51562SOL     OW56517  13.719  10.510  13.406
51562SOL    HW156518  13.675  10.575  13.351
51562SOL    HW256519  13.677  10.519  13.492
51563SOL     OW56520   4.214   0.005   9.600
51563SOL    HW156521   4.267   0.071   9.644
51563SOL    HW256522   4.151   0.056   9.548
51564SOL     OW56523   2.695   5.356   7.991
51564SOL    HW156524   2.767   5.385   8.047
51564SOL    HW256525   2.653   5.437   7.962
51565SOL     OW56526   3.186   7.215   3.991
51565SOL    HW156527   3.275   7.240   3.970
51565SOL    HW256528   3.131   7.272   3.938
51566SOL     OW56529  13.941  12.015  12.708
51566SOL    HW156530  13.987  12.065  12.641
51566SOL    HW256531  13.887  12.079  12.753
51567SOL     OW56532  13.703  14.118  11.922
51567SOL    HW156533  13.641  14.052  11.892
51567SOL    HW256534  13.648  14.189  11.954
51568SOL     OW56535   5.566   9.980   7.171
51568SOL    HW156536   5.522  10.059   7.204
51568SOL    HW256537   5.509   9.950   7.100
51569SOL     OW56538   6.669   6.436   4.290
51569SOL    HW156539   6.718   6.385   4.355
51569SOL    HW256540   6.735   6.492   4.248
51570SOL     OW56541   6.586   0.340   2.578
51570SOL    HW156542   6.633   0.271   2.623
51570SOL    HW256543   6.646   0.370   2.510
51571SOL     OW56544   8.316   0.417   0.335
51571SOL    HW156545   8.243   0.446   0.390
51571SOL    HW256546   8.305   0.464   0.253
51572SOL     OW56547   0.490   6.958  14.218
51572SOL    HW156548   0.559   6.965  14.284
51572SOL    HW256549   0.470   6.865  14.213
51573SOL     OW56550   0.794   8.405   7.636
51573SOL    HW156551   0.719   8.409   7.696
51573SOL    HW256552   0.860   8.354   7.683
51574SOL     OW56553   3.953   9.279  14.796
51574SOL    HW156554   3.996   9.195  14.786
51574SOL    HW256555   4.002   9.323  14.865
51575SOL     OW56556   8.748  13.403   6.191
51575SOL    HW156557   8.726  13.444   6.275
51575SOL    HW256558   8.842  13.419   6.182
51576SOL     OW56559  13.125   0.485   4.345
51576SOL    HW156560  13.189   0.416   4.360
51576SOL    HW256561  13.042   0.450   4.378
51577SOL     OW56562   1.764  14.311   6.904
51577SOL    HW156563   1.785  14.268   6.986
51577SOL    HW256564   1.734  14.398   6.929
51578SOL     OW56565  11.681   3.876   2.387
51578SOL    HW156566  11.637   3.883   2.302
51578SOL    HW256567  11.681   3.966   2.421
51579SOL     OW56568  14.022   0.323   1.527
51579SOL    HW156569  13.950   0.354   1.583
51579SOL    HW256570  14.089   0.391   1.534
51580SOL     OW56571  11.264  10.588   5.225
51580SOL    HW156572  11.256  10.519   5.159
51580SOL    HW256573  11.295  10.664   5.176
51581SOL     OW56574   8.724   0.407   8.938
51581SOL    HW156575   8.715   0.432   9.030
51581SOL    HW256576   8.725   0.311   8.940
51582SOL     OW56577   4.246  12.343   9.028
51582SOL    HW156578   4.318  12.397   9.059
51582SOL    HW256579   4.222  12.290   9.104
51583SOL     OW56580   4.737  10.344   4.512
51583SOL    HW156581   4.683  10.331   4.434
51583SOL    HW256582   4.813  10.288   4.497
51584SOL     OW56583   7.054   1.497   2.143
51584SOL    HW156584   6.964   1.471   2.164
51584SOL    HW256585   7.105   1.416   2.151
51585SOL     OW56586  11.027   8.884  12.861
51585SOL    HW156587  10.987   8.801  12.837
51585SOL    HW256588  10.961   8.950  12.840
51586SOL     OW56589  14.454  13.962   6.015
51586SOL    HW156590  14.409  13.936   5.934
51586SOL    HW256591  14.527  13.901   6.022
51587SOL     OW56592  13.626  12.723   9.399
51587SOL    HW156593  13.654  12.631   9.400
51587SOL    HW256594  13.702  12.770   9.364
51588SOL     OW56595  10.114  11.756   9.649
51588SOL    HW156596  10.154  11.843   9.644
51588SOL    HW256597  10.057  11.751   9.572
51589SOL     OW56598   7.615   4.907   3.960
51589SOL    HW156599   7.586   4.996   3.976
51589SOL    HW256600   7.682   4.915   3.892
51590SOL     OW56601   6.972   1.859  13.335
51590SOL    HW156602   6.879   1.841  13.320
51590SOL    HW256603   6.974   1.900  13.421
51591SOL     OW56604   6.146  11.632   3.408
51591SOL    HW156605   6.092  11.568   3.455
51591SOL    HW256606   6.103  11.640   3.322
51592SOL     OW56607  13.964   4.447   1.254
51592SOL    HW156608  13.919   4.529   1.277
51592SOL    HW256609  13.941   4.388   1.325
51593SOL     OW56610   1.962   6.138  11.194
51593SOL    HW156611   2.020   6.072  11.158
51593SOL    HW256612   1.979   6.136  11.288
51594SOL     OW56613   6.172   1.899   5.566
51594SOL    HW156614   6.202   1.818   5.525
51594SOL    HW256615   6.226   1.907   5.646
51595SOL     OW56616   9.979  14.720   3.993
51595SOL    HW156617   9.951  14.677   3.913
51595SOL    HW256618   9.972  14.653   4.061
51596SOL     OW56619   3.658   1.053   0.462
51596SOL    HW156620   3.594   1.094   0.405
51596SOL    HW256621   3.679   1.119   0.527
51597SOL     OW56622  10.328   7.233  10.081
51597SOL    HW156623  10.281   7.315  10.069
51597SOL    HW256624  10.343   7.228  10.176
51598SOL     OW56625   0.374   3.763   8.797
51598SOL    HW156626   0.366   3.840   8.853
51598SOL    HW256627   0.430   3.792   8.725
51599SOL     OW56628  10.112  13.650   4.540
51599SOL    HW156629  10.193  13.629   4.586
51599SOL    HW256630  10.129  13.625   4.449
51600SOL     OW56631   5.185   9.141  11.900
51600SOL    HW156632   5.194   9.148  11.805
51600SOL    HW256633   5.099   9.180  11.917
51601SOL     OW56634   7.547  12.402   1.155
51601SOL    HW156635   7.520  12.488   1.123
51601SOL    HW256636   7.634  12.388   1.116
51602SOL     OW56637  12.275   8.272   7.294
51602SOL    HW156638  12.315   8.318   7.221
51602SOL    HW256639  12.183   8.298   7.291
51603SOL     OW56640   3.107   0.443   9.136
51603SOL    HW156641   3.032   0.396   9.173
51603SOL    HW256642   3.119   0.404   9.049
51604SOL     OW56643   3.637  10.734   8.981
51604SOL    HW156644   3.677  10.733   8.894
51604SOL    HW256645   3.666  10.653   9.022
51605SOL     OW56646   6.420   6.590   5.470
51605SOL    HW156647   6.404   6.544   5.387
51605SOL    HW256648   6.409   6.523   5.537
51606SOL     OW56649   7.803   2.831   8.687
51606SOL    HW156650   7.759   2.751   8.714
51606SOL    HW256651   7.738   2.879   8.636
51607SOL     OW56652   8.575  13.598  13.294
51607SOL    HW156653   8.481  13.607  13.280
51607SOL    HW256654   8.614  13.675  13.252
51608SOL     OW56655  12.252  14.452  13.094
51608SOL    HW156656  12.328  14.396  13.078
51608SOL    HW256657  12.177  14.398  13.072
51609SOL     OW56658   5.367   5.472   9.762
51609SOL    HW156659   5.412   5.531   9.822
51609SOL    HW256660   5.275   5.492   9.773
51610SOL     OW56661   5.743   5.903  10.915
51610SOL    HW156662   5.810   5.892  10.982
51610SOL    HW256663   5.713   5.994  10.925
51611SOL     OW56664   0.495   4.971   1.439
51611SOL    HW156665   0.548   4.976   1.518
51611SOL    HW256666   0.546   5.017   1.373
51612SOL     OW56667   6.683  12.360   2.182
51612SOL    HW156668   6.744  12.421   2.142
51612SOL    HW256669   6.630  12.328   2.109
51613SOL     OW56670   1.612   0.439  10.936
51613SOL    HW156671   1.538   0.499  10.936
51613SOL    HW256672   1.573   0.352  10.942
51614SOL     OW56673   0.101  12.270   0.534
51614SOL    HW156674   0.141  12.356   0.520
51614SOL    HW256675   0.088  12.235   0.446
51615SOL     OW56676   1.177  10.591  14.012
51615SOL    HW156677   1.134  10.641  14.082
51615SOL    HW256678   1.232  10.656  13.967
51616SOL     OW56679   8.602  12.923  12.081
51616SOL    HW156680   8.549  12.928  12.161
51616SOL    HW256681   8.670  12.858  12.102
51617SOL     OW56682   3.466   6.920   9.842
51617SOL    HW156683   3.491   6.971   9.764
51617SOL    HW256684   3.448   6.833   9.809
51618SOL     OW56685   0.436   5.108   2.884
51618SOL    HW156686   0.510   5.047   2.885
51618SOL    HW256687   0.358   5.052   2.892
51619SOL     OW56688  14.428   3.049   0.719
51619SOL    HW156689  14.438   3.132   0.673
51619SOL    HW256690  14.492   3.052   0.790
51620SOL     OW56691   8.188  10.168   3.191
51620SOL    HW156692   8.135  10.204   3.262
51620SOL    HW256693   8.162  10.076   3.186
51621SOL     OW56694   4.783   7.076   2.225
51621SOL    HW156695   4.807   7.093   2.317
51621SOL    HW256696   4.781   6.981   2.218
51622SOL     OW56697   2.476   1.142  12.483
51622SOL    HW156698   2.561   1.111  12.513
51622SOL    HW256699   2.488   1.236  12.468
51623SOL     OW56700  11.442  12.918  10.261
51623SOL    HW156701  11.378  12.856  10.226
51623SOL    HW256702  11.390  12.975  10.319
51624SOL     OW56703   4.120   2.069   3.374
51624SOL    HW156704   4.127   2.049   3.467
51624SOL    HW256705   4.040   2.120   3.366
51625SOL     OW56706   6.625  10.334   7.923
51625SOL    HW156707   6.698  10.325   7.862
51625SOL    HW256708   6.653  10.402   7.984
51626SOL     OW56709   3.688   5.912   8.213
51626SOL    HW156710   3.602   5.939   8.181
51626SOL    HW256711   3.746   5.920   8.137
51627SOL     OW56712  11.135   5.303   1.493
51627SOL    HW156713  11.063   5.253   1.454
51627SOL    HW256714  11.184   5.336   1.417
51628SOL     OW56715  12.703   9.225  11.897
51628SOL    HW156716  12.771   9.175  11.851
51628SOL    HW256717  12.626   9.219  11.840
51629SOL     OW56718   0.301   3.516   7.838
51629SOL    HW156719   0.308   3.546   7.929
51629SOL    HW256720   0.387   3.478   7.819
51630SOL     OW56721   9.140   1.679   7.030
51630SOL    HW156722   9.066   1.719   7.076
51630SOL    HW256723   9.206   1.748   7.026
51631SOL     OW56724   0.385  10.321  13.127
51631SOL    HW156725   0.365  10.317  13.033
51631SOL    HW256726   0.476  10.293  13.133
51632SOL     OW56727   0.642  12.210   6.303
51632SOL    HW156728   0.575  12.148   6.330
51632SOL    HW256729   0.720  12.156   6.287
51633SOL     OW56730  10.359   2.742   6.988
51633SOL    HW156731  10.395   2.807   6.928
51633SOL    HW256732  10.436   2.696   7.022
51634SOL     OW56733   9.101  11.529   5.540
51634SOL    HW156734   9.088  11.465   5.470
51634SOL    HW256735   9.155  11.597   5.500
51635SOL     OW56736   0.096   1.693  11.395
51635SOL    HW156737   0.162   1.628  11.418
51635SOL    HW256738   0.144   1.776  11.390
51636SOL     OW56739   3.572   7.683   5.912
51636SOL    HW156740   3.639   7.619   5.936
51636SOL    HW256741   3.493   7.655   5.959
51637SOL     OW56742  10.789   4.110   6.789
51637SOL    HW156743  10.828   4.193   6.817
51637SOL    HW256744  10.703   4.134   6.755
51638SOL     OW56745   7.719   4.396   7.828
51638SOL    HW156746   7.761   4.439   7.753
51638SOL    HW256747   7.628   4.383   7.801
51639SOL     OW56748   2.182   4.484   3.657
51639SOL    HW156749   2.103   4.432   3.645
51639SOL    HW256750   2.169   4.561   3.601
51640SOL     OW56751  11.988   8.140   3.231
51640SOL    HW156752  11.923   8.208   3.246
51640SOL    HW256753  12.073   8.183   3.246
51641SOL     OW56754  13.546   2.290   1.538
51641SOL    HW156755  13.625   2.294   1.485
51641SOL    HW256756  13.560   2.354   1.608
51642SOL     OW56757  12.603  10.074   5.441
51642SOL    HW156758  12.530  10.015   5.460
51642SOL    HW256759  12.676  10.016   5.419
51643SOL     OW56760   1.494   3.453   5.908
51643SOL    HW156761   1.511   3.510   5.833
51643SOL    HW256762   1.474   3.513   5.980
51644SOL     OW56763   4.609  14.346   7.128
51644SOL    HW156764   4.703  14.338   7.140
51644SOL    HW256765   4.571  14.307   7.206
51645SOL     OW56766   4.013   5.562   1.437
51645SOL    HW156767   3.933   5.612   1.422
51645SOL    HW256768   4.030   5.517   1.355
51646SOL     OW56769   4.346  11.692   9.509
51646SOL    HW156770   4.333  11.760   9.575
51646SOL    HW256771   4.431  11.711   9.471
51647SOL     OW56772   3.332   2.457   8.715
51647SOL    HW156773   3.382   2.536   8.699
51647SOL    HW256774   3.358   2.397   8.646
51648SOL     OW56775  13.317  10.697   7.329
51648SOL    HW156776  13.392  10.709   7.272
51648SOL    HW256777  13.241  10.699   7.270
51649SOL     OW56778   6.203   5.253  11.154
51649SOL    HW156779   6.257   5.177  11.135
51649SOL    HW256780   6.257   5.328  11.128
51650SOL     OW56781   4.444   9.294   5.958
51650SOL    HW156782   4.378   9.229   5.984
51650SOL    HW256783   4.405   9.378   5.981
51651SOL     OW56784   4.368   4.309  12.311
51651SOL    HW156785   4.321   4.239  12.265
51651SOL    HW256786   4.364   4.384  12.250
51652SOL     OW56787   0.097   3.628  12.360
51652SOL    HW156788   0.022   3.666  12.406
51652SOL    HW256789   0.171   3.683  12.386
51653SOL     OW56790   2.301   6.342   4.813
51653SOL    HW156791   2.282   6.370   4.724
51653SOL    HW256792   2.396   6.333   4.815
51654SOL     OW56793  12.534   0.632   0.029
51654SOL    HW156794  12.595   0.561   0.050
51654SOL    HW256795  12.454   0.608   0.075
51655SOL     OW56796   5.830   4.003   7.739
51655SOL    HW156797   5.897   4.072   7.734
51655SOL    HW256798   5.841   3.966   7.826
51656SOL     OW56799  11.426   9.679   6.650
51656SOL    HW156800  11.499   9.617   6.641
51656SOL    HW256801  11.369   9.660   6.576
51657SOL     OW56802  14.299   4.448   4.676
51657SOL    HW156803  14.335   4.527   4.718
51657SOL    HW256804  14.237   4.414   4.740
51658SOL     OW56805  12.064   3.993   4.452
51658SOL    HW156806  12.158   4.006   4.462
51658SOL    HW256807  12.025   4.075   4.481
51659SOL     OW56808   7.371   2.067  14.035
51659SOL    HW156809   7.432   2.141  14.029
51659SOL    HW256810   7.314   2.089  14.109
51660SOL     OW56811  11.529  13.145   4.677
51660SOL    HW156812  11.519  13.090   4.600
51660SOL    HW256813  11.568  13.088   4.743
51661SOL     OW56814   9.311   0.507  13.771
51661SOL    HW156815   9.257   0.572  13.727
51661SOL    HW256816   9.312   0.535  13.863
51662SOL     OW56817   1.026  10.377  13.610
51662SOL    HW156818   1.040  10.283  13.616
51662SOL    HW256819   1.114  10.413  13.599
51663SOL     OW56820   7.777   2.508   0.461
51663SOL    HW156821   7.736   2.423   0.446
51663SOL    HW256822   7.764   2.556   0.379
51664SOL     OW56823   1.397   7.355   5.174
51664SOL    HW156824   1.479   7.305   5.178
51664SOL    HW256825   1.396   7.393   5.087
51665SOL     OW56826   1.588  10.830   2.688
51665SOL    HW156827   1.658  10.829   2.753
51665SOL    HW256828   1.508  10.845   2.739
51666SOL     OW56829   4.689  14.340   6.376
51666SOL    HW156830   4.623  14.405   6.400
51666SOL    HW256831   4.685  14.336   6.280
51667SOL     OW56832   0.414   1.682   6.546
51667SOL    HW156833   0.471   1.690   6.622
51667SOL    HW256834   0.333   1.644   6.581
51668SOL     OW56835  10.332  12.107   5.165
51668SOL    HW156836  10.253  12.052   5.167
51668SOL    HW256837  10.401  12.049   5.133
51669SOL     OW56838   0.025   2.833  11.895
51669SOL    HW156839   0.001   2.890  11.968
51669SOL    HW256840   0.092   2.775  11.932
51670SOL     OW56841   9.734   1.958   5.185
51670SOL    HW156842   9.703   1.868   5.178
51670SOL    HW256843   9.778   1.975   5.101
51671SOL     OW56844  13.093   4.733   1.897
51671SOL    HW156845  13.151   4.787   1.951
51671SOL    HW256846  13.029   4.697   1.959
51672SOL     OW56847   2.687   9.835   0.849
51672SOL    HW156848   2.662   9.919   0.887
51672SOL    HW256849   2.622   9.820   0.780
51673SOL     OW56850  14.716  10.149   7.811
51673SOL    HW156851  14.762  10.216   7.761
51673SOL    HW256852  14.728  10.173   7.902
51674SOL     OW56853  12.046  12.308   5.807
51674SOL    HW156854  12.108  12.378   5.788
51674SOL    HW256855  12.098  12.228   5.804
51675SOL     OW56856  12.868  14.789   9.306
51675SOL    HW156857  12.815  14.812   9.229
51675SOL    HW256858  12.883  14.695   9.297
51676SOL     OW56859  10.925   8.146   7.998
51676SOL    HW156860  10.884   8.137   8.084
51676SOL    HW256861  10.858   8.190   7.945
51677SOL     OW56862  12.923   7.409  14.765
51677SOL    HW156863  12.877   7.460  14.698
51677SOL    HW256864  12.921   7.319  14.732
51678SOL     OW56865  11.184   0.851   7.953
51678SOL    HW156866  11.241   0.924   7.928
51678SOL    HW256867  11.234   0.804   8.020
51679SOL     OW56868   4.910  11.559   5.977
51679SOL    HW156869   4.990  11.506   5.978
51679SOL    HW256870   4.861  11.530   6.054
51680SOL     OW56871   6.978  11.162  12.161
51680SOL    HW156872   6.922  11.101  12.113
51680SOL    HW256873   6.985  11.124  12.248
51681SOL     OW56874   1.014   5.746   7.584
51681SOL    HW156875   0.991   5.757   7.491
51681SOL    HW256876   1.089   5.804   7.597
51682SOL     OW56877  14.533  13.905   2.592
51682SOL    HW156878  14.564  13.993   2.569
51682SOL    HW256879  14.599  13.846   2.555
51683SOL     OW56880  14.866   4.929   7.588
51683SOL    HW156881  14.782   4.927   7.542
51683SOL    HW256882  14.874   5.020   7.619
51684SOL     OW56883   6.001   7.036  12.442
51684SOL    HW156884   6.025   6.945  12.463
51684SOL    HW256885   6.034   7.050  12.353
51685SOL     OW56886   7.126   7.211  11.056
51685SOL    HW156887   7.160   7.292  11.017
51685SOL    HW256888   7.173   7.141  11.013
51686SOL     OW56889   6.862  12.773   6.798
51686SOL    HW156890   6.899  12.859   6.777
51686SOL    HW256891   6.870  12.723   6.716
51687SOL     OW56892  12.293   1.245  13.529
51687SOL    HW156893  12.276   1.339  13.524
51687SOL    HW256894  12.223   1.206  13.476
51688SOL     OW56895   9.455   7.812   1.418
51688SOL    HW156896   9.394   7.791   1.347
51688SOL    HW256897   9.429   7.899   1.447
51689SOL     OW56898  12.960   5.236   8.739
51689SOL    HW156899  12.865   5.241   8.732
51689SOL    HW256900  12.991   5.233   8.648
51690SOL     OW56901   2.194   2.404   8.788
51690SOL    HW156902   2.162   2.396   8.878
51690SOL    HW256903   2.153   2.485   8.755
51691SOL     OW56904  14.864   3.365  12.079
51691SOL    HW156905   0.045   3.437  12.053
51691SOL    HW256906   0.037   3.320  12.149
51692SOL     OW56907  13.793   8.141  13.332
51692SOL    HW156908  13.729   8.091  13.281
51692SOL    HW256909  13.811   8.086  13.408
51693SOL     OW56910   5.057   1.294   0.629
51693SOL    HW156911   4.979   1.347   0.611
51693SOL    HW256912   5.024   1.220   0.681
51694SOL     OW56913   4.305  12.426  12.570
51694SOL    HW156914   4.320  12.379  12.652
51694SOL    HW256915   4.351  12.375  12.504
51695SOL     OW56916   0.020   8.073   6.274
51695SOL    HW156917  14.857   8.087   6.360
51695SOL    HW256918   0.105   8.033   6.293
51696SOL     OW56919   8.014   5.992   5.596
51696SOL    HW156920   8.079   6.015   5.529
51696SOL    HW256921   8.064   5.946   5.664
51697SOL     OW56922   1.160  12.343   4.065
51697SOL    HW156923   1.221  12.349   3.991
51697SOL    HW256924   1.075  12.362   4.027
51698SOL     OW56925   6.387   0.939  12.608
51698SOL    HW156926   6.361   0.972  12.694
51698SOL    HW256927   6.409   1.018  12.558
51699SOL     OW56928   5.221   9.430   7.445
51699SOL    HW156929   5.280   9.488   7.398
51699SOL    HW256930   5.259   9.343   7.435
51700SOL     OW56931   7.542   3.656  13.022
51700SOL    HW156932   7.630   3.642  12.986
51700SOL    HW256933   7.486   3.596  12.973
51701SOL     OW56934   7.338   4.790   1.093
51701SOL    HW156935   7.315   4.711   1.143
51701SOL    HW256936   7.429   4.808   1.117
51702SOL     OW56937   2.850   5.963   0.255
51702SOL    HW156938   2.866   6.051   0.222
51702SOL    HW256939   2.756   5.950   0.244
51703SOL     OW56940  10.820   9.068   4.063
51703SOL    HW156941  10.844   9.100   3.976
51703SOL    HW256942  10.748   9.125   4.090
51704SOL     OW56943   6.453   9.556   1.923
51704SOL    HW156944   6.449   9.650   1.939
51704SOL    HW256945   6.379   9.538   1.866
51705SOL     OW56946   8.402   3.123  10.589
51705SOL    HW156947   8.361   3.129  10.503
51705SOL    HW256948   8.452   3.041  10.586
51706SOL     OW56949   1.060  10.835   6.224
51706SOL    HW156950   1.145  10.860   6.260
51706SOL    HW256951   1.027  10.769   6.285
51707SOL     OW56952   6.425  11.900   5.733
51707SOL    HW156953   6.520  11.900   5.718
51707SOL    HW256954   6.398  11.810   5.714
51708SOL     OW56955   8.784   5.903   7.055
51708SOL    HW156956   8.873   5.938   7.049
51708SOL    HW256957   8.795   5.809   7.039
51709SOL     OW56958   9.612   1.744  12.350
51709SOL    HW156959   9.580   1.814  12.293
51709SOL    HW256960   9.653   1.790  12.423
51710SOL     OW56961  11.205   2.760   0.319
51710SOL    HW156962  11.182   2.691   0.381
51710SOL    HW256963  11.272   2.812   0.365
51711SOL     OW56964   7.445  12.683   0.339
51711SOL    HW156965   7.395  12.624   0.283
51711SOL    HW256966   7.447  12.766   0.291
51712SOL     OW56967   9.454   0.882  11.793
51712SOL    HW156968   9.528   0.831  11.824
51712SOL    HW256969   9.470   0.971  11.825
51713SOL     OW56970   0.311   5.061   9.791
51713SOL    HW156971   0.364   5.061   9.711
51713SOL    HW256972   0.367   5.102   9.857
51714SOL     OW56973   4.036   6.698   5.678
51714SOL    HW156974   4.089   6.647   5.616
51714SOL    HW256975   4.031   6.786   5.640
51715SOL     OW56976  11.517   0.923   5.544
51715SOL    HW156977  11.480   0.976   5.615
51715SOL    HW256978  11.553   0.846   5.588
51716SOL     OW56979  10.348  10.967   1.583
51716SOL    HW156980  10.404  11.009   1.518
51716SOL    HW256981  10.385  10.992   1.667
51717SOL     OW56982   5.396   8.363   1.729
51717SOL    HW156983   5.349   8.285   1.701
51717SOL    HW256984   5.463   8.331   1.789
51718SOL     OW56985   6.790   4.670   0.869
51718SOL    HW156986   6.842   4.687   0.948
51718SOL    HW256987   6.778   4.575   0.868
51719SOL     OW56988  11.994   2.436   8.927
51719SOL    HW156989  12.069   2.479   8.886
51719SOL    HW256990  12.011   2.343   8.917
51720SOL     OW56991   4.343   7.036   9.070
51720SOL    HW156992   4.318   6.951   9.034
51720SOL    HW256993   4.328   7.028   9.164
51721SOL     OW56994  11.105   7.659   7.956
51721SOL    HW156995  11.099   7.735   8.013
51721SOL    HW256996  11.147   7.692   7.876
51722SOL     OW56997   9.692  13.533  11.890
51722SOL    HW156998   9.615  13.493  11.849
51722SOL    HW256999   9.703  13.617  11.845
51723SOL     OW57000   1.070   9.173  10.649
51723SOL    HW157001   1.067   9.078  10.661
51723SOL    HW257002   1.005   9.206  10.711
51724SOL     OW57003  12.923   5.074   5.337
51724SOL    HW157004  12.902   5.010   5.269
51724SOL    HW257005  12.935   5.156   5.290
51725SOL     OW57006  10.703  11.322   2.391
51725SOL    HW157007  10.638  11.295   2.326
51725SOL    HW257008  10.699  11.255   2.459
51726SOL     OW57009  14.088   6.281   4.168
51726SOL    HW157010  14.174   6.240   4.179
51726SOL    HW257011  14.073   6.329   4.249
51727SOL     OW57012   3.727  14.436  14.446
51727SOL    HW157013   3.702  14.347  14.469
51727SOL    HW257014   3.744  14.433  14.352
51728SOL     OW57015   6.395   5.881   7.490
51728SOL    HW157016   6.440   5.882   7.405
51728SOL    HW257017   6.337   5.805   7.486
51729SOL     OW57018   9.048  12.194   6.556
51729SOL    HW157019   9.097  12.122   6.516
51729SOL    HW257020   8.956  12.167   6.550
51730SOL     OW57021  12.666  10.445  11.756
51730SOL    HW157022  12.675  10.388  11.680
51730SOL    HW257023  12.586  10.416  11.799
51731SOL     OW57024  12.724   5.286   6.312
51731SOL    HW157025  12.781   5.286   6.389
51731SOL    HW257026  12.683   5.372   6.313
51732SOL     OW57027   4.659  12.943   0.735
51732SOL    HW157028   4.706  12.889   0.798
51732SOL    HW257029   4.726  13.002   0.700
51733SOL     OW57030  12.129   4.109   1.854
51733SOL    HW157031  12.104   4.127   1.763
51733SOL    HW257032  12.084   4.027   1.875
51734SOL     OW57033   2.530   8.174   4.017
51734SOL    HW157034   2.597   8.126   3.969
51734SOL    HW257035   2.451   8.121   4.009
51735SOL     OW57036   7.538   6.996   4.754
51735SOL    HW157037   7.470   6.987   4.688
51735SOL    HW257038   7.541   7.089   4.775
51736SOL     OW57039   8.421  11.057   5.117
51736SOL    HW157040   8.354  10.995   5.146
51736SOL    HW257041   8.402  11.070   5.024
51737SOL     OW57042   8.436  14.126   4.254
51737SOL    HW157043   8.421  14.044   4.207
51737SOL    HW257044   8.402  14.194   4.195
51738SOL     OW57045  11.859  13.831   1.925
51738SOL    HW157046  11.861  13.806   1.833
51738SOL    HW257047  11.951  13.848   1.947
51739SOL     OW57048  11.076   5.351   3.528
51739SOL    HW157049  11.027   5.320   3.604
51739SOL    HW257050  11.044   5.298   3.456
51740SOL     OW57051  13.397   6.497   0.833
51740SOL    HW157052  13.403   6.588   0.861
51740SOL    HW257053  13.306   6.486   0.806
51741SOL     OW57054  10.568  13.643  14.460
51741SOL    HW157055  10.657  13.613  14.476
51741SOL    HW257056  10.565  13.730  14.498
51742SOL     OW57057   0.497  14.338  13.857
51742SOL    HW157058   0.556  14.317  13.929
51742SOL    HW257059   0.436  14.403  13.894
51743SOL     OW57060  13.789   1.146  14.803
51743SOL    HW157061  13.864   1.172  14.856
51743SOL    HW257062  13.827   1.123  14.718
51744SOL     OW57063  12.677   3.137   4.836
51744SOL    HW157064  12.605   3.091   4.879
51744SOL    HW257065  12.753   3.121   4.892
51745SOL     OW57066   8.930  12.253  11.307
51745SOL    HW157067   8.965  12.200  11.235
51745SOL    HW257068   8.958  12.207  11.386
51746SOL     OW57069  14.315  13.897   0.689
51746SOL    HW157070  14.329  13.907   0.783
51746SOL    HW257071  14.282  13.808   0.679
51747SOL     OW57072   8.644   6.143  11.931
51747SOL    HW157073   8.633   6.103  11.844
51747SOL    HW257074   8.558   6.134  11.972
51748SOL     OW57075  12.639  13.827  10.112
51748SOL    HW157076  12.576  13.894  10.138
51748SOL    HW257077  12.719  13.876  10.094
51749SOL     OW57078  10.929  13.431  13.464
51749SOL    HW157079  10.912  13.337  13.461
51749SOL    HW257080  10.966  13.445  13.551
51750SOL     OW57081   8.223  13.040   7.275
51750SOL    HW157082   8.161  13.044   7.348
51750SOL    HW257083   8.257  12.950   7.278
51751SOL     OW57084   1.432   9.496  11.987
51751SOL    HW157085   1.385   9.576  12.010
51751SOL    HW257086   1.371   9.425  12.008
51752SOL     OW57087  13.622   0.720   8.378
51752SOL    HW157088  13.538   0.678   8.362
51752SOL    HW257089  13.661   0.668   8.449
51753SOL     OW57090   9.433   2.023   8.553
51753SOL    HW157091   9.388   2.035   8.470
51753SOL    HW257092   9.490   2.100   8.560
51754SOL     OW57093   6.820  12.212   8.887
51754SOL    HW157094   6.738  12.164   8.874
51754SOL    HW257095   6.888  12.149   8.863
51755SOL     OW57096   1.126   1.572  12.325
51755SOL    HW157097   1.093   1.607  12.407
51755SOL    HW257098   1.201   1.518  12.350
51756SOL     OW57099   4.181  12.133   6.124
51756SOL    HW157100   4.217  12.217   6.154
51756SOL    HW257101   4.086  12.142   6.135
51757SOL     OW57102   3.312   2.781   6.684
51757SOL    HW157103   3.397   2.793   6.726
51757SOL    HW257104   3.324   2.706   6.626
51758SOL     OW57105   2.198   6.402  11.199
51758SOL    HW157106   2.278   6.435  11.157
51758SOL    HW257107   2.215   6.308  11.212
51759SOL     OW57108   2.577   6.540  10.165
51759SOL    HW157109   2.499   6.547  10.110
51759SOL    HW257110   2.574   6.617  10.221
51760SOL     OW57111   2.921   2.555  10.931
51760SOL    HW157112   2.942   2.638  10.973
51760SOL    HW257113   2.877   2.579  10.849
51761SOL     OW57114   0.518   7.721  11.898
51761SOL    HW157115   0.468   7.652  11.853
51761SOL    HW257116   0.530   7.688  11.987
51762SOL     OW57117   2.198   5.692   9.263
51762SOL    HW157118   2.155   5.667   9.181
51762SOL    HW257119   2.245   5.773   9.241
51763SOL     OW57120   2.027   1.945   7.327
51763SOL    HW157121   2.063   2.032   7.343
51763SOL    HW257122   1.949   1.960   7.273
51764SOL     OW57123  14.210  11.221   8.548
51764SOL    HW157124  14.252  11.190   8.468
51764SOL    HW257125  14.282  11.254   8.602
51765SOL     OW57126   3.509   3.916   0.331
51765SOL    HW157127   3.415   3.933   0.339
51765SOL    HW257128   3.550   3.981   0.388
51766SOL     OW57129   0.364  12.433  10.840
51766SOL    HW157130   0.427  12.398  10.777
51766SOL    HW257131   0.288  12.375  10.833
51767SOL     OW57132   6.924  10.365   7.199
51767SOL    HW157133   6.925  10.270   7.212
51767SOL    HW257134   6.867  10.379   7.124
51768SOL     OW57135   9.543   4.777   6.114
51768SOL    HW157136   9.575   4.832   6.043
51768SOL    HW257137   9.608   4.787   6.183
51769SOL     OW57138   9.209   9.789  10.388
51769SOL    HW157139   9.119   9.783  10.357
51769SOL    HW257140   9.217   9.879  10.421
51770SOL     OW57141   2.591  10.383   2.883
51770SOL    HW157142   2.515  10.404   2.828
51770SOL    HW257143   2.553  10.347   2.963
51771SOL     OW57144   0.896  10.146   6.436
51771SOL    HW157145   0.937  10.151   6.522
51771SOL    HW257146   0.937  10.216   6.385
51772SOL     OW57147  13.472   5.576  10.974
51772SOL    HW157148  13.545   5.617  10.928
51772SOL    HW257149  13.441   5.643  11.035
51773SOL     OW57150   0.129   7.752  10.773
51773SOL    HW157151   0.070   7.691  10.816
51773SOL    HW257152   0.102   7.838  10.804
51774SOL     OW57153   6.582  10.107   9.313
51774SOL    HW157154   6.501  10.144   9.347
51774SOL    HW257155   6.553  10.050   9.241
51775SOL     OW57156   4.246  10.912   2.791
51775SOL    HW157157   4.216  10.977   2.728
51775SOL    HW257158   4.170  10.895   2.847
51776SOL     OW57159   6.702   7.622   9.952
51776SOL    HW157160   6.638   7.577  10.007
51776SOL    HW257161   6.784   7.616  10.001
51777SOL     OW57162   6.327  10.339  10.945
51777SOL    HW157163   6.296  10.410  11.001
51777SOL    HW257164   6.372  10.279  11.004
51778SOL     OW57165   6.312  11.883   8.303
51778SOL    HW157166   6.333  11.820   8.234
51778SOL    HW257167   6.219  11.871   8.319
51779SOL     OW57168   2.093  14.826   5.986
51779SOL    HW157169   2.156   0.022   5.978
51779SOL    HW257170   2.131  14.768   6.052
51780SOL     OW57171   8.118  12.325   3.355
51780SOL    HW157172   8.141  12.247   3.406
51780SOL    HW257173   8.027  12.310   3.329
51781SOL     OW57174   8.756   7.687   9.205
51781SOL    HW157175   8.781   7.765   9.255
51781SOL    HW257176   8.660   7.684   9.212
51782SOL     OW57177  12.436   0.993   7.723
51782SOL    HW157178  12.429   1.088   7.721
51782SOL    HW257179  12.492   0.974   7.799
51783SOL     OW57180  13.359   8.166  10.616
51783SOL    HW157181  13.446   8.204  10.597
51783SOL    HW257182  13.299   8.218  10.563
51784SOL     OW57183   1.215   2.355  13.875
51784SOL    HW157184   1.127   2.384  13.854
51784SOL    HW257185   1.203   2.271  13.919
51785SOL     OW57186   0.055   1.784  10.465
51785SOL    HW157187  14.875   1.750  10.395
51785SOL    HW257188   0.026   1.738  10.544
51786SOL     OW57189  12.081   8.969   2.216
51786SOL    HW157190  12.145   8.983   2.285
51786SOL    HW257191  12.016   8.910   2.255
51787SOL     OW57192   9.358   3.645  13.065
51787SOL    HW157193   9.430   3.683  13.117
51787SOL    HW257194   9.298   3.609  13.131
51788SOL     OW57195   8.465   2.808   6.794
51788SOL    HW157196   8.469   2.826   6.888
51788SOL    HW257197   8.378   2.770   6.780
51789SOL     OW57198   4.044  12.981  11.994
51789SOL    HW157199   3.985  13.055  11.985
51789SOL    HW257200   4.103  13.005  12.066
51790SOL     OW57201  12.179   0.617  11.034
51790SOL    HW157202  12.232   0.605  10.955
51790SOL    HW257203  12.133   0.700  11.019
51791SOL     OW57204  11.554   7.312   4.340
51791SOL    HW157205  11.490   7.350   4.401
51791SOL    HW257206  11.604   7.387   4.309
51792SOL     OW57207   7.320   9.455  11.728
51792SOL    HW157208   7.381   9.494  11.791
51792SOL    HW257209   7.267   9.528  11.698
51793SOL     OW57210   3.407  12.063   9.700
51793SOL    HW157211   3.434  12.138   9.753
51793SOL    HW257212   3.354  12.101   9.630
51794SOL     OW57213  13.263  12.852  12.844
51794SOL    HW157214  13.314  12.917  12.795
51794SOL    HW257215  13.283  12.869  12.936
51795SOL     OW57216   0.686   3.035  11.608
51795SOL    HW157217   0.620   2.998  11.666
51795SOL    HW257218   0.657   3.008  11.520
51796SOL     OW57219   8.955   6.612   6.221
51796SOL    HW157220   9.010   6.539   6.191
51796SOL    HW257221   8.983   6.686   6.168
51797SOL     OW57222   9.962   3.692  14.251
51797SOL    HW157223   9.980   3.663  14.341
51797SOL    HW257224   9.924   3.779  14.261
51798SOL     OW57225   0.998   9.934  12.398
51798SOL    HW157226   1.074   9.880  12.376
51798SOL    HW257227   0.996   9.937  12.493
51799SOL     OW57228   0.944   9.797   9.287
51799SOL    HW157229   0.897   9.836   9.361
51799SOL    HW257230   1.029   9.771   9.324
51800SOL     OW57231   2.938  11.223   3.796
51800SOL    HW157232   2.940  11.145   3.740
51800SOL    HW257233   2.932  11.296   3.734
51801SOL     OW57234  11.674  11.899   7.279
51801SOL    HW157235  11.650  11.823   7.226
51801SOL    HW257236  11.610  11.901   7.350
51802SOL     OW57237   5.492  11.704   2.851
51802SOL    HW157238   5.426  11.697   2.783
51802SOL    HW257239   5.547  11.777   2.824
51803SOL     OW57240  13.263   7.503   4.609
51803SOL    HW157241  13.257   7.523   4.703
51803SOL    HW257242  13.204   7.429   4.596
51804SOL     OW57243  11.186   9.099   5.637
51804SOL    HW157244  11.119   9.032   5.626
51804SOL    HW257245  11.137   9.178   5.663
51805SOL     OW57246   7.166   3.366  10.695
51805SOL    HW157247   7.127   3.415  10.623
51805SOL    HW257248   7.191   3.432  10.759
51806SOL     OW57249  13.253  11.311  13.168
51806SOL    HW157250  13.268  11.329  13.261
51806SOL    HW257251  13.229  11.218  13.165
51807SOL     OW57252  10.081   0.088  10.372
51807SOL    HW157253  10.154   0.045  10.326
51807SOL    HW257254  10.083   0.050  10.459
51808SOL     OW57255   3.410   7.898   4.087
51808SOL    HW157256   3.428   7.813   4.127
51808SOL    HW257257   3.447   7.962   4.148
51809SOL     OW57258   8.988   9.121  10.164
51809SOL    HW157259   8.941   9.073  10.231
51809SOL    HW257260   8.979   9.068  10.085
51810SOL     OW57261  14.488   1.627   2.218
51810SOL    HW157262  14.501   1.537   2.189
51810SOL    HW257263  14.404   1.653   2.180
51811SOL     OW57264  11.193   1.520   2.736
51811SOL    HW157265  11.107   1.549   2.705
51811SOL    HW257266  11.201   1.430   2.704
51812SOL     OW57267   1.331   9.959   2.774
51812SOL    HW157268   1.287   9.913   2.703
51812SOL    HW257269   1.359   9.890   2.834
51813SOL     OW57270  14.455  13.191  13.694
51813SOL    HW157271  14.471  13.099  13.674
51813SOL    HW257272  14.360  13.200  13.687
51814SOL     OW57273   7.403   1.165   0.801
51814SOL    HW157274   7.387   1.198   0.712
51814SOL    HW257275   7.331   1.105   0.817
51815SOL     OW57276  12.102   7.430   7.217
51815SOL    HW157277  12.031   7.475   7.172
51815SOL    HW257278  12.173   7.495   7.221
51816SOL     OW57279   4.303  11.374  13.603
51816SOL    HW157280   4.319  11.316  13.678
51816SOL    HW257281   4.292  11.461  13.643
51817SOL     OW57282   0.162  14.796   9.343
51817SOL    HW157283   0.212  14.773   9.264
51817SOL    HW257284   0.072  14.773   9.321
51818SOL     OW57285   7.306   9.151  14.088
51818SOL    HW157286   7.250   9.109  14.153
51818SOL    HW257287   7.375   9.192  14.139
51819SOL     OW57288   1.274   0.881  11.951
51819SOL    HW157289   1.292   0.912  11.862
51819SOL    HW257290   1.353   0.834  11.977
51820SOL     OW57291   0.669   0.406   3.985
51820SOL    HW157292   0.734   0.445   3.928
51820SOL    HW257293   0.595   0.385   3.927
51821SOL     OW57294   8.347   2.524  11.642
51821SOL    HW157295   8.409   2.531  11.715
51821SOL    HW257296   8.343   2.612  11.605
51822SOL     OW57297   5.585   3.812   9.075
51822SOL    HW157298   5.523   3.880   9.102
51822SOL    HW257299   5.655   3.860   9.030
51823SOL     OW57300   8.541   3.246  11.500
51823SOL    HW157301   8.580   3.168  11.539
51823SOL    HW257302   8.592   3.261  11.420
51824SOL     OW57303   9.546   6.767   7.719
51824SOL    HW157304   9.497   6.847   7.702
51824SOL    HW257305   9.637   6.792   7.709
51825SOL     OW57306   6.616  14.422   4.770
51825SOL    HW157307   6.702  14.379   4.774
51825SOL    HW257308   6.627  14.502   4.822
51826SOL     OW57309  12.405  12.946   6.680
51826SOL    HW157310  12.466  12.902   6.621
51826SOL    HW257311  12.414  12.899   6.763
51827SOL     OW57312   8.897   8.484   9.651
51827SOL    HW157313   8.874   8.573   9.626
51827SOL    HW257314   8.992   8.484   9.659
51828SOL     OW57315  12.972  13.950   2.614
51828SOL    HW157316  12.999  14.022   2.557
51828SOL    HW257317  12.885  13.976   2.646
51829SOL     OW57318  10.274   5.109   2.887
51829SOL    HW157319  10.232   5.052   2.951
51829SOL    HW257320  10.299   5.050   2.815
51830SOL     OW57321   4.873   3.279   4.267
51830SOL    HW157322   4.939   3.261   4.334
51830SOL    HW257323   4.839   3.365   4.289
51831SOL     OW57324  13.129   2.551  13.885
51831SOL    HW157325  13.180   2.564  13.965
51831SOL    HW257326  13.057   2.494  13.910
51832SOL     OW57327   2.025   2.458   1.385
51832SOL    HW157328   2.085   2.529   1.411
51832SOL    HW257329   2.078   2.405   1.325
51833SOL     OW57330   1.464   3.865   7.303
51833SOL    HW157331   1.522   3.788   7.296
51833SOL    HW257332   1.497   3.925   7.236
51834SOL     OW57333  12.006   7.151   0.184
51834SOL    HW157334  11.990   7.139   0.278
51834SOL    HW257335  11.960   7.232   0.163
51835SOL     OW57336   8.847   7.853   0.190
51835SOL    HW157337   8.910   7.783   0.204
51835SOL    HW257338   8.900   7.933   0.188
51836SOL     OW57339  14.230   9.924   6.269
51836SOL    HW157340  14.140   9.906   6.242
51836SOL    HW257341  14.236  10.019   6.275
51837SOL     OW57342   9.119   3.826   6.223
51837SOL    HW157343   9.104   3.914   6.256
51837SOL    HW257344   9.046   3.808   6.164
51838SOL     OW57345   1.037   5.578   4.019
51838SOL    HW157346   0.965   5.516   4.028
51838SOL    HW257347   1.079   5.554   3.937
51839SOL     OW57348   4.933   1.718   8.535
51839SOL    HW157349   4.933   1.644   8.473
51839SOL    HW257350   4.849   1.709   8.581
51840SOL     OW57351   0.630  12.743   7.850
51840SOL    HW157352   0.601  12.761   7.939
51840SOL    HW257353   0.551  12.714   7.804
51841SOL     OW57354   9.955   3.325   1.245
51841SOL    HW157355  10.032   3.377   1.223
51841SOL    HW257356   9.937   3.346   1.337
51842SOL     OW57357   6.349   4.456   7.343
51842SOL    HW157358   6.301   4.438   7.423
51842SOL    HW257359   6.310   4.398   7.277
51843SOL     OW57360  11.502  12.492   6.158
51843SOL    HW157361  11.592  12.505   6.128
51843SOL    HW257362  11.499  12.531   6.245
51844SOL     OW57363   1.456  10.720   9.492
51844SOL    HW157364   1.519  10.791   9.481
51844SOL    HW257365   1.505  10.652   9.538
51845SOL     OW57366  13.071   1.539  14.581
51845SOL    HW157367  12.993   1.587  14.556
51845SOL    HW257368  13.143   1.601  14.569
51846SOL     OW57369   5.695   9.818   8.198
51846SOL    HW157370   5.687   9.855   8.110
51846SOL    HW257371   5.667   9.727   8.189
51847SOL     OW57372  14.623   8.578  11.941
51847SOL    HW157373  14.552   8.526  11.979
51847SOL    HW257374  14.624   8.554  11.849
51848SOL     OW57375   2.141   9.184   3.466
51848SOL    HW157376   2.193   9.232   3.401
51848SOL    HW257377   2.054   9.177   3.426
51849SOL     OW57378   0.199  12.935   6.748
51849SOL    HW157379   0.272  12.966   6.803
51849SOL    HW257380   0.186  13.006   6.684
51850SOL     OW57381   0.243   6.939   7.078
51850SOL    HW157382   0.269   7.019   7.123
51850SOL    HW257383   0.222   6.967   6.989
51851SOL     OW57384   0.335   3.286   6.741
51851SOL    HW157385   0.367   3.245   6.820
51851SOL    HW257386   0.250   3.324   6.765
51852SOL     OW57387  12.806  13.621   9.765
51852SOL    HW157388  12.893  13.655   9.788
51852SOL    HW257389  12.819  13.574   9.683
51853SOL     OW57390   4.616   4.311   3.053
51853SOL    HW157391   4.655   4.341   3.135
51853SOL    HW257392   4.571   4.229   3.076
51854SOL     OW57393  14.754   0.329   5.117
51854SOL    HW157394  14.789   0.418   5.124
51854SOL    HW257395  14.792   0.283   5.192
51855SOL     OW57396   8.166   7.774   3.275
51855SOL    HW157397   8.227   7.746   3.207
51855SOL    HW257398   8.135   7.860   3.246
51856SOL     OW57399   7.959   1.256  12.038
51856SOL    HW157400   7.905   1.193  12.085
51856SOL    HW257401   7.901   1.331  12.023
51857SOL     OW57402  10.779   0.180   0.323
51857SOL    HW157403  10.767   0.254   0.264
51857SOL    HW257404  10.734   0.207   0.404
51858SOL     OW57405   3.478   7.160  10.848
51858SOL    HW157406   3.415   7.118  10.789
51858SOL    HW257407   3.526   7.221  10.791
51859SOL     OW57408   8.961  13.014  12.839
51859SOL    HW157409   8.911  12.935  12.820
51859SOL    HW257410   9.041  13.004  12.787
51860SOL     OW57411   7.388  12.926   5.245
51860SOL    HW157412   7.412  13.010   5.207
51860SOL    HW257413   7.367  12.946   5.336
51861SOL     OW57414   4.830  14.281   7.289
51861SOL    HW157415   4.923  14.280   7.309
51861SOL    HW257416   4.797  14.198   7.325
51862SOL     OW57417  10.799   1.086  13.493
51862SOL    HW157418  10.724   1.133  13.456
51862SOL    HW257419  10.803   1.005  13.442
51863SOL     OW57420   0.612   0.315   5.835
51863SOL    HW157421   0.692   0.267   5.813
51863SOL    HW257422   0.591   0.286   5.924
51864SOL     OW57423   7.949   1.930   0.862
51864SOL    HW157424   7.956   1.906   0.954
51864SOL    HW257425   7.943   2.025   0.862
51865SOL     OW57426   8.344   6.440   3.224
51865SOL    HW157427   8.382   6.522   3.255
51865SOL    HW257428   8.394   6.420   3.145
51866SOL     OW57429  12.097   1.057   0.129
51866SOL    HW157430  12.144   1.084   0.050
51866SOL    HW257431  12.032   1.126   0.142
51867SOL     OW57432   8.392   0.536   6.837
51867SOL    HW157433   8.430   0.624   6.824
51867SOL    HW257434   8.464   0.476   6.819
51868SOL     OW57435  10.489   3.912   1.776
51868SOL    HW157436  10.455   3.926   1.688
51868SOL    HW257437  10.573   3.867   1.763
51869SOL     OW57438   2.063   2.854   5.858
51869SOL    HW157439   2.139   2.873   5.803
51869SOL    HW257440   2.069   2.917   5.930
51870SOL     OW57441   4.571  14.277   3.588
51870SOL    HW157442   4.523  14.342   3.535
51870SOL    HW257443   4.628  14.330   3.644
51871SOL     OW57444   0.682  10.967   6.997
51871SOL    HW157445   0.614  10.930   7.054
51871SOL    HW257446   0.748  10.898   6.992
51872SOL     OW57447  14.652  11.761  13.927
51872SOL    HW157448  14.670  11.667  13.938
51872SOL    HW257449  14.726  11.804  13.971
51873SOL     OW57450   7.442  13.261   9.532
51873SOL    HW157451   7.466  13.349   9.502
51873SOL    HW257452   7.521  13.208   9.517
51874SOL     OW57453   9.366   1.427   6.553
51874SOL    HW157454   9.395   1.411   6.643
51874SOL    HW257455   9.377   1.522   6.541
51875SOL     OW57456   5.598   1.107  14.178
51875SOL    HW157457   5.692   1.122  14.177
51875SOL    HW257458   5.562   1.178  14.231
51876SOL     OW57459   5.673   1.724   7.567
51876SOL    HW157460   5.645   1.791   7.630
51876SOL    HW257461   5.608   1.654   7.577
51877SOL     OW57462   3.154   1.571   8.569
51877SOL    HW157463   3.126   1.545   8.657
51877SOL    HW257464   3.225   1.634   8.584
51878SOL     OW57465   3.291   6.966  10.594
51878SOL    HW157466   3.258   6.968  10.504
51878SOL    HW257467   3.351   6.891  10.595
51879SOL     OW57468   7.975   4.419   1.488
51879SOL    HW157469   8.017   4.450   1.408
51879SOL    HW257470   8.005   4.480   1.556
51880SOL     OW57471   3.366   2.856  14.875
51880SOL    HW157472   3.426   2.785   0.020
51880SOL    HW257473   3.418   2.917  14.822
51881SOL     OW57474   1.394   1.695   1.265
51881SOL    HW157475   1.485   1.665   1.257
51881SOL    HW257476   1.388   1.731   1.353
51882SOL     OW57477   2.157   1.403  14.003
51882SOL    HW157478   2.134   1.454  13.926
51882SOL    HW257479   2.210   1.462  14.056
51883SOL     OW57480   6.347   9.643   1.090
51883SOL    HW157481   6.431   9.689   1.093
51883SOL    HW257482   6.342   9.606   1.002
51884SOL     OW57483  10.733   4.164  11.624
51884SOL    HW157484  10.733   4.120  11.709
51884SOL    HW257485  10.670   4.113  11.571
51885SOL     OW57486   6.885   5.988  10.029
51885SOL    HW157487   6.810   5.962   9.975
51885SOL    HW257488   6.847   6.002  10.116
51886SOL     OW57489   7.830   7.474  13.577
51886SOL    HW157490   7.920   7.502  13.590
51886SOL    HW257491   7.837   7.396  13.522
51887SOL     OW57492  11.252  11.862   2.022
51887SOL    HW157493  11.308  11.810   1.965
51887SOL    HW257494  11.257  11.951   1.987
51888SOL     OW57495  10.592  12.997   7.323
51888SOL    HW157496  10.682  13.028   7.326
51888SOL    HW257497  10.555  13.021   7.407
51889SOL     OW57498   6.526  11.611  14.491
51889SOL    HW157499   6.619  11.589  14.482
51889SOL    HW257500   6.526  11.705  14.509
51890SOL     OW57501   3.996  12.696   7.770
51890SOL    HW157502   3.904  12.721   7.778
51890SOL    HW257503   4.036  12.724   7.852
51891SOL     OW57504   2.845   0.757  10.237
51891SOL    HW157505   2.857   0.795  10.150
51891SOL    HW257506   2.812   0.669  10.221
51892SOL     OW57507   0.693   4.129  14.120
51892SOL    HW157508   0.713   4.102  14.209
51892SOL    HW257509   0.711   4.223  14.119
51893SOL     OW57510  10.800   9.687   4.461
51893SOL    HW157511  10.824   9.774   4.429
51893SOL    HW257512  10.763   9.642   4.385
51894SOL     OW57513   2.017   5.676  13.945
51894SOL    HW157514   1.969   5.620  14.006
51894SOL    HW257515   2.099   5.628  13.929
51895SOL     OW57516   2.538   6.457   0.331
51895SOL    HW157517   2.456   6.435   0.376
51895SOL    HW257518   2.516   6.532   0.276
51896SOL     OW57519  11.249  12.182  14.670
51896SOL    HW157520  11.162  12.205  14.638
51896SOL    HW257521  11.244  12.193  14.765
51897SOL     OW57522  10.564   9.639   1.786
51897SOL    HW157523  10.642   9.590   1.810
51897SOL    HW257524  10.520   9.584   1.721
51898SOL     OW57525  14.599   8.670   8.918
51898SOL    HW157526  14.606   8.598   8.855
51898SOL    HW257527  14.548   8.633   8.990
51899SOL     OW57528  13.358   2.150   8.499
51899SOL    HW157529  13.445   2.151   8.540
51899SOL    HW257530  13.321   2.236   8.521
51900SOL     OW57531   5.595   1.277   7.161
51900SOL    HW157532   5.520   1.287   7.103
51900SOL    HW257533   5.653   1.350   7.139
51901SOL     OW57534  12.971   2.227   3.156
51901SOL    HW157535  12.898   2.250   3.097
51901SOL    HW257536  13.018   2.158   3.110
51902SOL     OW57537  12.026   8.164   5.487
51902SOL    HW157538  12.089   8.210   5.542
51902SOL    HW257539  11.941   8.191   5.521
51903SOL     OW57540  14.864   8.806   0.702
51903SOL    HW157541   0.070   8.761   0.680
51903SOL    HW257542   0.016   8.888   0.742
51904SOL     OW57543   8.946  14.246   0.864
51904SOL    HW157544   8.871  14.292   0.902
51904SOL    HW257545   9.018  14.309   0.867
51905SOL     OW57546   0.230   1.011   2.330
51905SOL    HW157547   0.255   0.995   2.239
51905SOL    HW257548   0.268   1.096   2.351
51906SOL     OW57549  13.684  14.589   4.993
51906SOL    HW157550  13.658  14.680   4.977
51906SOL    HW257551  13.771  14.596   5.032
51907SOL     OW57552   3.972  10.155  14.500
51907SOL    HW157553   3.952  10.077  14.551
51907SOL    HW257554   4.020  10.123  14.424
51908SOL     OW57555   6.372   6.130   8.401
51908SOL    HW157556   6.302   6.065   8.409
51908SOL    HW257557   6.330   6.213   8.426
51909SOL     OW57558   4.504   8.629  12.353
51909SOL    HW157559   4.465   8.711  12.385
51909SOL    HW257560   4.577   8.612  12.413
51910SOL     OW57561   2.775   8.898   2.154
51910SOL    HW157562   2.806   8.984   2.184
51910SOL    HW257563   2.804   8.893   2.063
51911SOL     OW57564  10.330   8.560   0.469
51911SOL    HW157565  10.364   8.504   0.400
51911SOL    HW257566  10.404   8.573   0.528
51912SOL     OW57567   5.982  12.393   3.289
51912SOL    HW157568   5.964  12.343   3.209
51912SOL    HW257569   6.024  12.329   3.347
51913SOL     OW57570   1.373   0.696   8.632
51913SOL    HW157571   1.409   0.608   8.642
51913SOL    HW257572   1.398   0.723   8.544
51914SOL     OW57573   9.522   0.410   2.343
51914SOL    HW157574   9.514   0.433   2.251
51914SOL    HW257575   9.483   0.484   2.389
51915SOL     OW57576   8.289   7.181   8.610
51915SOL    HW157577   8.353   7.112   8.625
51915SOL    HW257578   8.210   7.135   8.582
51916SOL     OW57579   7.892   8.680   1.229
51916SOL    HW157580   7.798   8.674   1.212
51916SOL    HW257581   7.927   8.725   1.153
51917SOL     OW57582   2.404  12.976   1.135
51917SOL    HW157583   2.331  13.027   1.101
51917SOL    HW257584   2.398  12.984   1.230
51918SOL     OW57585  14.869   1.311   5.047
51918SOL    HW157586   0.043   1.284   4.970
51918SOL    HW257587   0.049   1.288   5.121
51919SOL     OW57588   7.333   6.053   2.230
51919SOL    HW157589   7.300   6.107   2.158
51919SOL    HW257590   7.397   5.994   2.188
51920SOL     OW57591   1.093   0.064   1.490
51920SOL    HW157592   1.180   0.097   1.466
51920SOL    HW257593   1.034   0.138   1.476
51921SOL     OW57594   5.226  10.380   2.387
51921SOL    HW157595   5.177  10.307   2.348
51921SOL    HW257596   5.159  10.444   2.411
51922SOL     OW57597   0.554   3.150   0.906
51922SOL    HW157598   0.509   3.155   0.991
51922SOL    HW257599   0.554   3.057   0.884
51923SOL     OW57600   9.872   9.558  10.177
51923SOL    HW157601   9.902   9.629  10.234
51923SOL    HW257602   9.811   9.601  10.116
51924SOL     OW57603   4.697   5.178  11.987
51924SOL    HW157604   4.787   5.207  11.999
51924SOL    HW257605   4.679   5.124  12.064
51925SOL     OW57606   7.066   0.859  13.875
51925SOL    HW157607   7.154   0.831  13.849
51925SOL    HW257608   7.033   0.909  13.800
51926SOL     OW57609  12.948  11.050   6.894
51926SOL    HW157610  12.927  10.975   6.839
51926SOL    HW257611  13.038  11.073   6.871
51927SOL     OW57612   5.259   0.526  14.074
51927SOL    HW157613   5.323   0.502  14.007
51927SOL    HW257614   5.212   0.600  14.036
51928SOL     OW57615   3.774  10.559   1.344
51928SOL    HW157616   3.849  10.501   1.360
51928SOL    HW257617   3.756  10.549   1.250
51929SOL     OW57618  10.688   6.963   4.974
51929SOL    HW157619  10.746   7.025   4.930
51929SOL    HW257620  10.703   6.979   5.067
51930SOL     OW57621   5.427   8.917  14.235
51930SOL    HW157622   5.354   8.961  14.278
51930SOL    HW257623   5.414   8.824  14.253
51931SOL     OW57624   6.592   3.417   9.015
51931SOL    HW157625   6.672   3.418   9.068
51931SOL    HW257626   6.624   3.405   8.925
51932SOL     OW57627   1.615  13.066  11.664
51932SOL    HW157628   1.611  13.018  11.747
51932SOL    HW257629   1.574  13.150  11.683
51933SOL     OW57630   8.031  13.733   3.056
51933SOL    HW157631   8.041  13.817   3.100
51933SOL    HW257632   7.936  13.721   3.048
51934SOL     OW57633   5.334   3.156  11.477
51934SOL    HW157634   5.398   3.091  11.506
51934SOL    HW257635   5.301   3.196  11.558
51935SOL     OW57636   0.043  12.454   0.225
51935SOL    HW157637   0.080  12.532   0.267
51935SOL    HW257638   0.033  12.479   0.133
51936SOL     OW57639   2.690   6.240   2.876
51936SOL    HW157640   2.689   6.188   2.956
51936SOL    HW257641   2.637   6.189   2.814
51937SOL     OW57642   8.618  11.358   9.590
51937SOL    HW157643   8.590  11.267   9.598
51937SOL    HW257644   8.634  11.387   9.679
51938SOL     OW57645  13.081   5.004   3.382
51938SOL    HW157646  13.157   4.950   3.405
51938SOL    HW257647  13.098   5.088   3.424
51939SOL     OW57648   1.355  14.532   6.931
51939SOL    HW157649   1.296  14.463   6.901
51939SOL    HW257650   1.297  14.606   6.951
51940SOL     OW57651  11.772   0.277   3.201
51940SOL    HW157652  11.789   0.212   3.132
51940SOL    HW257653  11.847   0.269   3.260
51941SOL     OW57654  14.575   2.035   2.251
51941SOL    HW157655  14.492   2.082   2.249
51941SOL    HW257656  14.563   1.968   2.319
51942SOL     OW57657  14.687   7.505  13.218
51942SOL    HW157658  14.720   7.459  13.296
51942SOL    HW257659  14.753   7.571  13.200
51943SOL     OW57660   4.273   6.376  13.597
51943SOL    HW157661   4.195   6.432  13.598
51943SOL    HW257662   4.326   6.411  13.526
51944SOL     OW57663   5.857   1.390   3.262
51944SOL    HW157664   5.921   1.343   3.315
51944SOL    HW257665   5.772   1.364   3.299
51945SOL     OW57666   4.930  13.305   6.563
51945SOL    HW157667   4.861  13.372   6.562
51945SOL    HW257668   5.011  13.353   6.578
51946SOL     OW57669   8.508  10.472   8.069
51946SOL    HW157670   8.507  10.406   8.137
51946SOL    HW257671   8.513  10.422   7.987
51947SOL     OW57672   7.705   7.794   7.363
51947SOL    HW157673   7.758   7.774   7.287
51947SOL    HW257674   7.618   7.761   7.342
51948SOL     OW57675   2.844   1.363   4.067
51948SOL    HW157676   2.806   1.383   4.152
51948SOL    HW257677   2.770   1.333   4.014
51949SOL     OW57678   7.275   2.090  11.039
51949SOL    HW157679   7.236   2.140  10.968
51949SOL    HW257680   7.212   2.021  11.058
51950SOL     OW57681   6.515   2.684  13.375
51950SOL    HW157682   6.590   2.699  13.433
51950SOL    HW257683   6.444   2.734  13.416
51951SOL     OW57684   9.589   2.195   7.376
51951SOL    HW157685   9.679   2.189   7.342
51951SOL    HW257686   9.561   2.105   7.387
51952SOL     OW57687   2.279  11.212   1.499
51952SOL    HW157688   2.186  11.231   1.490
51952SOL    HW257689   2.282  11.121   1.528
51953SOL     OW57690  14.407  13.572   4.857
51953SOL    HW157691  14.361  13.488   4.865
51953SOL    HW257692  14.349  13.626   4.803
51954SOL     OW57693   4.921   4.181   5.046
51954SOL    HW157694   4.984   4.137   4.990
51954SOL    HW257695   4.856   4.114   5.066
51955SOL     OW57696  13.276   6.197   2.808
51955SOL    HW157697  13.210   6.247   2.856
51955SOL    HW257698  13.343   6.177   2.873
51956SOL     OW57699   6.295  10.142  12.779
51956SOL    HW157700   6.217  10.159  12.832
51956SOL    HW257701   6.368  10.158  12.838
51957SOL     OW57702   6.896   6.521   0.822
51957SOL    HW157703   6.845   6.602   0.816
51957SOL    HW257704   6.843   6.455   0.777
51958SOL     OW57705   4.945  14.741  14.716
51958SOL    HW157706   4.885  14.716  14.786
51958SOL    HW257707   4.989  14.819  14.748
51959SOL     OW57708   6.578  13.089   6.657
51959SOL    HW157709   6.585  13.092   6.752
51959SOL    HW257710   6.488  13.118   6.639
51960SOL     OW57711   4.157   4.633   7.289
51960SOL    HW157712   4.156   4.720   7.328
51960SOL    HW257713   4.250   4.613   7.278
51961SOL     OW57714   0.277  14.108   2.009
51961SOL    HW157715   0.316  14.185   2.051
51961SOL    HW257716   0.343  14.040   2.017
51962SOL     OW57717   7.329  13.342  13.472
51962SOL    HW157718   7.331  13.429  13.513
51962SOL    HW257719   7.236  13.320  13.467
51963SOL     OW57720   7.996  14.512  13.948
51963SOL    HW157721   8.024  14.424  13.973
51963SOL    HW257722   8.077  14.561  13.937
51964SOL     OW57723   8.918   5.246   9.915
51964SOL    HW157724   8.996   5.301   9.905
51964SOL    HW257725   8.846   5.307   9.926
51965SOL     OW57726  10.733   0.828  13.845
51965SOL    HW157727  10.803   0.804  13.784
51965SOL    HW257728  10.720   0.922  13.831
51966SOL     OW57729   5.468   5.758   8.239
51966SOL    HW157730   5.414   5.836   8.251
51966SOL    HW257731   5.526   5.757   8.316
51967SOL     OW57732  11.423  10.908   7.966
51967SOL    HW157733  11.492  10.900   8.031
51967SOL    HW257734  11.394  10.999   7.974
51968SOL     OW57735   8.930   5.481   9.131
51968SOL    HW157736   9.018   5.519   9.120
51968SOL    HW257737   8.872   5.557   9.138
51969SOL     OW57738   0.288   2.838   2.884
51969SOL    HW157739   0.338   2.917   2.865
51969SOL    HW257740   0.220   2.835   2.817
51970SOL     OW57741   6.746   9.019   4.616
51970SOL    HW157742   6.684   8.972   4.672
51970SOL    HW257743   6.828   9.019   4.665
51971SOL     OW57744  10.681   2.924  10.882
51971SOL    HW157745  10.702   2.861  10.813
51971SOL    HW257746  10.763   2.935  10.931
51972SOL     OW57747   4.240  11.133  12.615
51972SOL    HW157748   4.175  11.176  12.560
51972SOL    HW257749   4.195  11.115  12.697
51973SOL     OW57750   5.124   1.912   4.869
51973SOL    HW157751   5.173   1.833   4.890
51973SOL    HW257752   5.173   1.982   4.913
51974SOL     OW57753   7.690   4.659   0.399
51974SOL    HW157754   7.709   4.675   0.306
51974SOL    HW257755   7.776   4.658   0.441
51975SOL     OW57756   2.262  12.778   8.095
51975SOL    HW157757   2.300  12.699   8.134
51975SOL    HW257758   2.323  12.848   8.117
51976SOL     OW57759   6.952   5.925   5.807
51976SOL    HW157760   6.863   5.960   5.813
51976SOL    HW257761   7.002   5.975   5.872
51977SOL     OW57762  12.335  13.232  13.488
51977SOL    HW157763  12.296  13.247  13.574
51977SOL    HW257764  12.357  13.319  13.456
51978SOL     OW57765  10.809   9.535   6.179
51978SOL    HW157766  10.714   9.532   6.165
51978SOL    HW257767  10.820   9.538   6.274
51979SOL     OW57768  13.947  14.336  13.403
51979SOL    HW157769  13.966  14.326  13.309
51979SOL    HW257770  13.891  14.413  13.408
51980SOL     OW57771   9.623   5.304  11.076
51980SOL    HW157772   9.653   5.391  11.050
51980SOL    HW257773   9.587   5.266  10.996
51981SOL     OW57774   4.999  12.816   8.670
51981SOL    HW157775   5.002  12.741   8.611
51981SOL    HW257776   5.088  12.851   8.670
51982SOL     OW57777   4.487   6.865   2.323
51982SOL    HW157778   4.408   6.874   2.270
51982SOL    HW257779   4.482   6.937   2.385
51983SOL     OW57780   9.208   3.168  14.402
51983SOL    HW157781   9.300   3.166  14.377
51983SOL    HW257782   9.195   3.087  14.453
51984SOL     OW57783  10.866   9.228  10.875
51984SOL    HW157784  10.811   9.249  10.951
51984SOL    HW257785  10.900   9.312  10.846
51985SOL     OW57786   5.016   0.885  11.767
51985SOL    HW157787   5.037   0.796  11.739
51985SOL    HW257788   4.943   0.876  11.827
51986SOL     OW57789   7.845   4.343  11.692
51986SOL    HW157790   7.808   4.420  11.649
51986SOL    HW257791   7.935   4.338  11.660
51987SOL     OW57792   6.582  12.309   0.981
51987SOL    HW157793   6.580  12.392   0.935
51987SOL    HW257794   6.626  12.328   1.064
51988SOL     OW57795   4.316  10.441  13.724
51988SOL    HW157796   4.333  10.411  13.813
51988SOL    HW257797   4.395  10.488  13.698
51989SOL     OW57798   7.583  10.284  14.774
51989SOL    HW157799   7.663  10.297  14.825
51989SOL    HW257800   7.535  10.216  14.822
51990SOL     OW57801   1.125   8.564   1.647
51990SOL    HW157802   1.036   8.560   1.682
51990SOL    HW257803   1.156   8.651   1.671
51991SOL     OW57804   4.130  10.475   7.739
51991SOL    HW157805   4.171  10.507   7.819
51991SOL    HW257806   4.058  10.420   7.769
51992SOL     OW57807  11.095   6.578  10.006
51992SOL    HW157808  11.137   6.650  10.053
51992SOL    HW257809  11.131   6.499  10.046
51993SOL     OW57810   9.143   4.262   8.750
51993SOL    HW157811   9.086   4.288   8.678
51993SOL    HW257812   9.098   4.187   8.790
51994SOL     OW57813   4.763   4.308  13.217
51994SOL    HW157814   4.683   4.306  13.268
51994SOL    HW257815   4.737   4.277  13.130
51995SOL     OW57816   0.813  10.806   8.548
51995SOL    HW157817   0.796  10.837   8.459
51995SOL    HW257818   0.840  10.885   8.596
51996SOL     OW57819   7.491  14.115   0.457
51996SOL    HW157820   7.430  14.061   0.508
51996SOL    HW257821   7.525  14.056   0.390
51997SOL     OW57822   5.081   5.338   1.269
51997SOL    HW157823   5.049   5.383   1.347
51997SOL    HW257824   5.143   5.273   1.302
51998SOL     OW57825   6.023   4.994   8.511
51998SOL    HW157826   5.993   5.082   8.491
51998SOL    HW257827   6.104   5.007   8.561
51999SOL     OW57828   0.545   0.870   9.454
51999SOL    HW157829   0.543   0.850   9.548
51999SOL    HW257830   0.568   0.787   9.412
52000SOL     OW57831   8.065  13.347  10.985
52000SOL    HW157832   8.002  13.372  11.053
52000SOL    HW257833   8.149  13.340  11.032
52001SOL     OW57834   1.457  12.861   8.827
52001SOL    HW157835   1.375  12.821   8.857
52001SOL    HW257836   1.432  12.950   8.804
52002SOL     OW57837   9.839   9.089   3.312
52002SOL    HW157838   9.762   9.063   3.362
52002SOL    HW257839   9.814   9.171   3.269
52003SOL     OW57840  10.555  12.339  14.059
52003SOL    HW157841  10.520  12.287  13.987
52003SOL    HW257842  10.519  12.427  14.044
52004SOL     OW57843  10.198   0.824   0.884
52004SOL    HW157844  10.145   0.846   0.807
52004SOL    HW257845  10.134   0.802   0.952
52005SOL     OW57846   3.087   5.845  12.752
52005SOL    HW157847   3.140   5.782  12.702
52005SOL    HW257848   3.146   5.919  12.768
52006SOL     OW57849   1.576  12.436   2.865
52006SOL    HW157850   1.628  12.506   2.826
52006SOL    HW257851   1.499  12.482   2.900
52007SOL     OW57852   9.571  10.276   1.698
52007SOL    HW157853   9.552  10.364   1.666
52007SOL    HW257854   9.552  10.219   1.624
52008SOL     OW57855   3.448  11.391   3.139
52008SOL    HW157856   3.543  11.386   3.145
52008SOL    HW257857   3.432  11.436   3.056
52009SOL     OW57858   6.652  11.907   6.475
52009SOL    HW157859   6.672  11.992   6.515
52009SOL    HW257860   6.557  11.899   6.481
52010SOL     OW57861  13.742   5.284   2.320
52010SOL    HW157862  13.733   5.207   2.376
52010SOL    HW257863  13.834   5.282   2.292
52011SOL     OW57864   6.958  11.645   2.331
52011SOL    HW157865   6.895  11.710   2.361
52011SOL    HW257866   6.950  11.646   2.236
52012SOL     OW57867   9.561  10.198  13.558
52012SOL    HW157868   9.633  10.136  13.554
52012SOL    HW257869   9.579  10.250  13.636
52013SOL     OW57870  12.891  10.626   3.699
52013SOL    HW157871  12.807  10.603   3.658
52013SOL    HW257872  12.957  10.593   3.638
52014SOL     OW57873  14.051  11.126  13.857
52014SOL    HW157874  14.101  11.044  13.860
52014SOL    HW257875  14.072  11.170  13.939
52015SOL     OW57876   9.925   3.549   6.856
52015SOL    HW157877   9.849   3.530   6.801
52015SOL    HW257878   9.913   3.497   6.935
52016SOL     OW57879   2.798   7.357   8.048
52016SOL    HW157880   2.709   7.377   8.017
52016SOL    HW257881   2.792   7.268   8.081
52017SOL     OW57882   1.941   6.291   9.924
52017SOL    HW157883   1.857   6.331   9.900
52017SOL    HW257884   1.995   6.301   9.846
52018SOL     OW57885   5.494  12.994  11.597
52018SOL    HW157886   5.541  12.972  11.517
52018SOL    HW257887   5.449  12.914  11.622
52019SOL     OW57888  14.607  14.025   5.524
52019SOL    HW157889  14.669  14.069   5.582
52019SOL    HW257890  14.521  14.043   5.563
52020SOL     OW57891   3.916  11.968   1.807
52020SOL    HW157892   3.945  12.015   1.885
52020SOL    HW257893   3.971  12.003   1.736
52021SOL     OW57894   7.182  14.361  12.337
52021SOL    HW157895   7.207  14.453  12.321
52021SOL    HW257896   7.223  14.340  12.421
52022SOL     OW57897   1.885  11.674   1.373
52022SOL    HW157898   1.813  11.671   1.309
52022SOL    HW257899   1.904  11.767   1.382
52023SOL     OW57900  12.097   9.969   5.369
52023SOL    HW157901  12.030  10.037   5.362
52023SOL    HW257902  12.076   9.923   5.451
52024SOL     OW57903   0.576  13.737   5.837
52024SOL    HW157904   0.608  13.812   5.786
52024SOL    HW257905   0.617  13.748   5.923
52025SOL     OW57906  14.261   2.175   1.009
52025SOL    HW157907  14.271   2.089   1.050
52025SOL    HW257908  14.166   2.186   0.999
52026SOL     OW57909   3.336  14.202   6.898
52026SOL    HW157910   3.292  14.198   6.983
52026SOL    HW257911   3.375  14.290   6.896
52027SOL     OW57912   8.216  14.661  13.871
52027SOL    HW157913   8.290  14.689  13.924
52027SOL    HW257914   8.201  14.732  13.810
52028SOL     OW57915  13.657   7.549   9.818
52028SOL    HW157916  13.580   7.605   9.820
52028SOL    HW257917  13.727   7.605   9.785
52029SOL     OW57918   1.238  13.957  14.440
52029SOL    HW157919   1.272  13.914  14.362
52029SOL    HW257920   1.304  13.941  14.507
52030SOL     OW57921   7.084   0.284   6.686
52030SOL    HW157922   7.128   0.350   6.632
52030SOL    HW257923   6.992   0.310   6.687
52031SOL     OW57924   2.984   9.212   3.169
52031SOL    HW157925   2.917   9.146   3.152
52031SOL    HW257926   3.030   9.180   3.246
52032SOL     OW57927   2.367   0.280   7.345
52032SOL    HW157928   2.325   0.222   7.281
52032SOL    HW257929   2.439   0.321   7.296
52033SOL     OW57930   4.525   9.672  14.064
52033SOL    HW157931   4.593   9.708  14.122
52033SOL    HW257932   4.478   9.609  14.119
52034SOL     OW57933   8.336   3.065   6.975
52034SOL    HW157934   8.357   3.042   7.065
52034SOL    HW257935   8.419   3.059   6.928
52035SOL     OW57936  14.695   3.614  14.382
52035SOL    HW157937  14.614   3.589  14.338
52035SOL    HW257938  14.719   3.538  14.434
52036SOL     OW57939   6.954   4.331  11.241
52036SOL    HW157940   6.894   4.292  11.178
52036SOL    HW257941   6.915   4.310  11.326
52037SOL     OW57942   2.370  14.590  13.388
52037SOL    HW157943   2.427  14.665  13.406
52037SOL    HW257944   2.387  14.529  13.459
52038SOL     OW57945  10.724  12.017   5.530
52038SOL    HW157946  10.781  11.957   5.481
52038SOL    HW257947  10.768  12.028   5.614
52039SOL     OW57948   3.573   4.727   7.657
52039SOL    HW157949   3.564   4.814   7.617
52039SOL    HW257950   3.485   4.704   7.685
52040SOL     OW57951  14.833   5.502  11.708
52040SOL    HW157952  14.797   5.516  11.620
52040SOL    HW257953  14.795   5.573  11.760
52041SOL     OW57954   3.250   5.709  12.547
52041SOL    HW157955   3.315   5.777  12.564
52041SOL    HW257956   3.182   5.753  12.496
52042SOL     OW57957   6.409   9.252   2.480
52042SOL    HW157958   6.390   9.176   2.535
52042SOL    HW257959   6.345   9.249   2.410
52043SOL     OW57960  10.674  11.217  11.940
52043SOL    HW157961  10.753  11.270  11.953
52043SOL    HW257962  10.607  11.262  11.991
52044SOL     OW57963   4.138  13.451   7.273
52044SOL    HW157964   4.161  13.395   7.199
52044SOL    HW257965   4.044  13.439   7.284
52045SOL     OW57966   2.822   6.983   3.727
52045SOL    HW157967   2.789   7.056   3.780
52045SOL    HW257968   2.892   6.944   3.780
52046SOL     OW57969   1.730  10.894  11.212
52046SOL    HW157970   1.777  10.811  11.205
52046SOL    HW257971   1.690  10.906  11.126
52047SOL     OW57972  14.825   0.999   5.130
52047SOL    HW157973   0.044   1.008   5.120
52047SOL    HW257974  14.794   0.972   5.044
52048SOL     OW57975   9.311  14.617   8.660
52048SOL    HW157976   9.335  14.588   8.572
52048SOL    HW257977   9.296  14.711   8.650
52049SOL     OW57978   2.782   1.919   3.259
52049SOL    HW157979   2.835   1.860   3.206
52049SOL    HW257980   2.831   1.929   3.340
52050SOL     OW57981   4.827   4.418   2.503
52050SOL    HW157982   4.855   4.422   2.411
52050SOL    HW257983   4.794   4.329   2.514
52051SOL     OW57984   0.014   8.526  10.055
52051SOL    HW157985   0.105   8.554  10.056
52051SOL    HW257986   0.018   8.431  10.041
52052SOL     OW57987   1.667  10.820   5.421
52052SOL    HW157988   1.650  10.739   5.373
52052SOL    HW257989   1.591  10.830   5.478
52053SOL     OW57990  14.026   1.655   1.439
52053SOL    HW157991  14.023   1.750   1.452
52053SOL    HW257992  14.116   1.630   1.461
52054SOL     OW57993   4.180   6.401  14.735
52054SOL    HW157994   4.162   6.388  14.641
52054SOL    HW257995   4.239   6.329  14.757
52055SOL     OW57996   0.892   2.895  10.333
52055SOL    HW157997   0.885   2.981  10.374
52055SOL    HW257998   0.854   2.835  10.398
52056SOL     OW57999  10.587   8.426   5.951
52056SOL    HW158000  10.583   8.418   6.046
52056SOL    HW258001  10.496   8.432   5.922
52057SOL     OW58002   7.500   4.699   3.801
52057SOL    HW158003   7.557   4.755   3.854
52057SOL    HW258004   7.440   4.760   3.757
52058SOL     OW58005   3.861   8.153   9.728
52058SOL    HW158006   3.896   8.226   9.676
52058SOL    HW258007   3.897   8.075   9.687
52059SOL     OW58008  14.530   3.180  11.114
52059SOL    HW158009  14.520   3.247  11.182
52059SOL    HW258010  14.462   3.201  11.050
52060SOL     OW58011   5.957   1.289  12.111
52060SOL    HW158012   6.051   1.272  12.106
52060SOL    HW258013   5.949   1.384  12.103
52061SOL     OW58014   9.483  11.820   3.924
52061SOL    HW158015   9.463  11.911   3.906
52061SOL    HW258016   9.398  11.779   3.942
52062SOL     OW58017  12.933   3.035   2.078
52062SOL    HW158018  12.912   3.017   1.987
52062SOL    HW258019  12.920   3.129   2.088
52063SOL     OW58020  14.553  12.423  10.898
52063SOL    HW158021  14.500  12.348  10.924
52063SOL    HW258022  14.637  12.385  10.871
52064SOL     OW58023   3.208   8.781   2.315
52064SOL    HW158024   3.199   8.857   2.258
52064SOL    HW258025   3.125   8.776   2.362
52065SOL     OW58026  11.184   6.237   6.284
52065SOL    HW158027  11.169   6.221   6.191
52065SOL    HW258028  11.105   6.283   6.313
52066SOL     OW58029  12.019   5.828   7.621
52066SOL    HW158030  12.068   5.907   7.644
52066SOL    HW258031  12.081   5.757   7.631
52067SOL     OW58032   0.397   8.904  14.008
52067SOL    HW158033   0.427   8.884  13.919
52067SOL    HW258034   0.307   8.933  13.997
52068SOL     OW58035  11.166   5.272   4.708
52068SOL    HW158036  11.221   5.217   4.764
52068SOL    HW258037  11.220   5.291   4.632
52069SOL     OW58038  10.987   4.009   0.742
52069SOL    HW158039  10.906   4.034   0.785
52069SOL    HW258040  10.963   3.936   0.686
52070SOL     OW58041   1.307   6.774   5.251
52070SOL    HW158042   1.399   6.773   5.278
52070SOL    HW258043   1.267   6.844   5.303
52071SOL     OW58044   7.515   2.043   2.165
52071SOL    HW158045   7.566   2.116   2.130
52071SOL    HW258046   7.434   2.044   2.115
52072SOL     OW58047   6.209  14.666   0.398
52072SOL    HW158048   6.220  14.685   0.305
52072SOL    HW258049   6.156  14.738   0.431
52073SOL     OW58050   9.515  10.516   3.908
52073SOL    HW158051   9.467  10.463   3.844
52073SOL    HW258052   9.606  10.488   3.897
52074SOL     OW58053   2.659   7.416   3.331
52074SOL    HW158054   2.739   7.460   3.301
52074SOL    HW258055   2.593   7.486   3.333
52075SOL     OW58056   6.466  14.827   6.115
52075SOL    HW158057   6.469  14.874   6.199
52075SOL    HW258058   6.385  14.857   6.074
52076SOL     OW58059   9.050   5.867   2.458
52076SOL    HW158060   9.022   5.956   2.480
52076SOL    HW258061   9.058   5.867   2.362
52077SOL     OW58062   6.396   6.049  11.679
52077SOL    HW158063   6.402   6.053  11.584
52077SOL    HW258064   6.311   6.085  11.700
52078SOL     OW58065   8.137  12.377  10.448
52078SOL    HW158066   8.218  12.406  10.407
52078SOL    HW258067   8.085  12.339  10.376
52079SOL     OW58068  11.998   9.536   9.393
52079SOL    HW158069  12.057   9.604   9.427
52079SOL    HW258070  12.055   9.478   9.343
52080SOL     OW58071   6.562  12.625  13.430
52080SOL    HW158072   6.501  12.576  13.485
52080SOL    HW258073   6.648  12.590  13.452
52081SOL     OW58074   2.529  10.718   2.388
52081SOL    HW158075   2.467  10.656   2.350
52081SOL    HW258076   2.602  10.719   2.327
52082SOL     OW58077   1.262   4.882  14.414
52082SOL    HW158078   1.243   4.832  14.335
52082SOL    HW258079   1.348   4.852  14.442
52083SOL     OW58080  10.920  10.953  14.604
52083SOL    HW158081  10.825  10.966  14.609
52083SOL    HW258082  10.946  10.993  14.522
52084SOL     OW58083   3.926   5.327   3.249
52084SOL    HW158084   3.913   5.402   3.307
52084SOL    HW258085   4.020   5.325   3.233
52085SOL     OW58086   7.773   4.279   7.510
52085SOL    HW158087   7.688   4.299   7.470
52085SOL    HW258088   7.800   4.361   7.551
52086SOL     OW58089  14.212  13.980  12.803
52086SOL    HW158090  14.191  13.888  12.787
52086SOL    HW258091  14.128  14.026  12.790
52087SOL     OW58092   3.829  12.845   2.688
52087SOL    HW158093   3.924  12.836   2.698
52087SOL    HW258094   3.808  12.799   2.607
52088SOL     OW58095  13.422   2.407   6.984
52088SOL    HW158096  13.371   2.425   6.905
52088SOL    HW258097  13.502   2.365   6.952
52089SOL     OW58098  14.754   4.968   8.401
52089SOL    HW158099  14.812   4.905   8.443
52089SOL    HW258100  14.807   5.047   8.391
52090SOL     OW58101   5.681   5.826   0.752
52090SOL    HW158102   5.743   5.878   0.803
52090SOL    HW258103   5.729   5.746   0.731
52091SOL     OW58104   4.121   0.560  12.359
52091SOL    HW158105   4.163   0.643  12.333
52091SOL    HW258106   4.031   0.568  12.329
52092SOL     OW58107  10.134   1.169  10.560
52092SOL    HW158108  10.153   1.158  10.654
52092SOL    HW258109  10.039   1.159  10.554
52093SOL     OW58110   9.535   5.310   2.120
52093SOL    HW158111   9.592   5.238   2.146
52093SOL    HW258112   9.588   5.388   2.133
52094SOL     OW58113   2.722  13.343   8.940
52094SOL    HW158114   2.667  13.400   8.993
52094SOL    HW258115   2.810  13.356   8.974
52095SOL     OW58116   1.685  13.472   9.858
52095SOL    HW158117   1.619  13.530   9.896
52095SOL    HW258118   1.720  13.522   9.784
52096SOL     OW58119  11.643   8.385   8.072
52096SOL    HW158120  11.668   8.419   7.987
52096SOL    HW258121  11.556   8.348   8.059
52097SOL     OW58122   1.313  13.654  14.731
52097SOL    HW158123   1.314  13.687  14.821
52097SOL    HW258124   1.221  13.638  14.712
52098SOL     OW58125   6.841   2.656   1.655
52098SOL    HW158126   6.858   2.748   1.678
52098SOL    HW258127   6.752   2.657   1.621
52099SOL     OW58128   0.242   1.463   3.475
52099SOL    HW158129   0.224   1.535   3.414
52099SOL    HW258130   0.276   1.392   3.420
52100SOL     OW58131  13.300  13.777   0.187
52100SOL    HW158132  13.286  13.828   0.107
52100SOL    HW258133  13.212  13.767   0.225
52101SOL     OW58134   0.633   3.906   2.756
52101SOL    HW158135   0.727   3.899   2.771
52101SOL    HW258136   0.608   3.823   2.715
52102SOL     OW58137  14.162  10.852  11.428
52102SOL    HW158138  14.192  10.911  11.497
52102SOL    HW258139  14.146  10.909  11.353
52103SOL     OW58140   5.120   5.323  10.946
52103SOL    HW158141   5.085   5.235  10.954
52103SOL    HW258142   5.091   5.352  10.860
52104SOL     OW58143  13.727   5.368   4.013
52104SOL    HW158144  13.755   5.286   4.054
52104SOL    HW258145  13.731   5.432   4.084
52105SOL     OW58146   0.044  11.307   8.313
52105SOL    HW158147  14.833  11.298   8.274
52105SOL    HW258148   0.042  11.251   8.391
52106SOL     OW58149   9.199   2.093   9.703
52106SOL    HW158150   9.158   2.047   9.776
52106SOL    HW258151   9.134   2.090   9.633
52107SOL     OW58152   8.415   4.605  11.326
52107SOL    HW158153   8.408   4.583  11.233
52107SOL    HW258154   8.494   4.560  11.356
52108SOL     OW58155   2.716  11.086   1.238
52108SOL    HW158156   2.629  11.046   1.233
52108SOL    HW258157   2.705  11.172   1.197
52109SOL     OW58158  10.029   8.644   7.176
52109SOL    HW158159  10.005   8.712   7.239
52109SOL    HW258160  10.056   8.692   7.098
52110SOL     OW58161   3.396   6.209   1.823
52110SOL    HW158162   3.462   6.154   1.864
52110SOL    HW258163   3.421   6.299   1.847
52111SOL     OW58164   7.991  14.818  13.366
52111SOL    HW158165   7.938  14.760  13.311
52111SOL    HW258166   8.061  14.763  13.399
52112SOL     OW58167   9.992   3.529   2.147
52112SOL    HW158168  10.080   3.568   2.144
52112SOL    HW258169   9.997   3.455   2.086
52113SOL     OW58170  10.503   5.209  11.315
52113SOL    HW158171  10.555   5.230  11.392
52113SOL    HW258172  10.564   5.218  11.241
52114SOL     OW58173  14.531  12.144   6.939
52114SOL    HW158174  14.526  12.136   7.034
52114SOL    HW258175  14.486  12.226   6.919
52115SOL     OW58176   2.912   9.835  10.343
52115SOL    HW158177   2.923   9.893  10.267
52115SOL    HW258178   2.941   9.887  10.418
52116SOL     OW58179   5.350   3.665   7.544
52116SOL    HW158180   5.307   3.605   7.605
52116SOL    HW258181   5.380   3.737   7.600
52117SOL     OW58182  12.759   7.446  12.909
52117SOL    HW158183  12.762   7.463  12.815
52117SOL    HW258184  12.701   7.514  12.944
52118SOL     OW58185   6.178  10.740   4.304
52118SOL    HW158186   6.269  10.713   4.316
52118SOL    HW258187   6.130  10.691   4.372
52119SOL     OW58188  12.156   2.187   7.684
52119SOL    HW158189  12.209   2.208   7.608
52119SOL    HW258190  12.217   2.188   7.758
52120SOL     OW58191   3.236   2.003  11.551
52120SOL    HW158192   3.195   1.954  11.479
52120SOL    HW258193   3.252   2.090  11.515
52121SOL     OW58194   7.354  13.462   0.073
52121SOL    HW158195   7.407  13.484  14.872
52121SOL    HW258196   7.388  13.378   0.103
52122SOL     OW58197   1.212   6.478   6.233
52122SOL    HW158198   1.304   6.503   6.223
52122SOL    HW258199   1.210   6.432   6.318
52123SOL     OW58200   9.912  12.343   7.890
52123SOL    HW158201   9.875  12.381   7.810
52123SOL    HW258202   9.844  12.357   7.956
52124SOL     OW58203  13.547  10.136  12.385
52124SOL    HW158204  13.460  10.157  12.352
52124SOL    HW258205  13.587  10.084  12.315
52125SOL     OW58206   6.533  13.315  12.377
52125SOL    HW158207   6.556  13.262  12.453
52125SOL    HW258208   6.567  13.402  12.398
52126SOL     OW58209   4.731   3.489  10.944
52126SOL    HW158210   4.678   3.557  10.902
52126SOL    HW258211   4.667   3.428  10.981
52127SOL     OW58212  13.195  10.648  10.831
52127SOL    HW158213  13.277  10.675  10.789
52127SOL    HW258214  13.131  10.713  10.801
52128SOL     OW58215   9.702   0.446   9.954
52128SOL    HW158216   9.722   0.455   9.861
52128SOL    HW258217   9.788   0.448   9.997
52129SOL     OW58218   8.634   7.453   6.447
52129SOL    HW158219   8.577   7.442   6.371
52129SOL    HW258220   8.574   7.471   6.520
52130SOL     OW58221  10.729  13.856  14.164
52130SOL    HW158222  10.634  13.864  14.171
52130SOL    HW258223  10.744  13.763  14.147
52131SOL     OW58224  11.391   8.533   1.903
52131SOL    HW158225  11.431   8.521   1.817
52131SOL    HW258226  11.341   8.614   1.895
52132SOL     OW58227   7.725  14.455   6.867
52132SOL    HW158228   7.788  14.384   6.854
52132SOL    HW258229   7.641  14.410   6.882
52133SOL     OW58230   5.670  12.134   9.463
52133SOL    HW158231   5.663  12.173   9.375
52133SOL    HW258232   5.708  12.204   9.516
52134SOL     OW58233  11.873   0.826  13.088
52134SOL    HW158234  11.925   0.749  13.066
52134SOL    HW258235  11.783   0.796  13.089
52135SOL     OW58236   7.495  14.290   3.263
52135SOL    HW158237   7.441  14.223   3.305
52135SOL    HW258238   7.523  14.250   3.181
52136SOL     OW58239   6.017  12.339   1.751
52136SOL    HW158240   6.108  12.354   1.723
52136SOL    HW258241   5.979  12.426   1.757
52137SOL     OW58242   7.987   8.135  10.536
52137SOL    HW158243   7.994   8.185  10.455
52137SOL    HW258244   8.063   8.076  10.535
52138SOL     OW58245   1.804  14.177   7.810
52138SOL    HW158246   1.876  14.136   7.857
52138SOL    HW258247   1.830  14.268   7.799
52139SOL     OW58248   3.404   9.787   5.837
52139SOL    HW158249   3.382   9.757   5.749
52139SOL    HW258250   3.432   9.877   5.825
52140SOL     OW58251   0.551  11.820   6.194
52140SOL    HW158252   0.471  11.864   6.221
52140SOL    HW258253   0.562  11.749   6.258
52141SOL     OW58254  13.081   1.117   3.532
52141SOL    HW158255  13.121   1.186   3.480
52141SOL    HW258256  13.097   1.143   3.623
52142SOL     OW58257   7.011   5.235   5.871
52142SOL    HW158258   6.930   5.286   5.880
52142SOL    HW258259   7.065   5.287   5.812
52143SOL     OW58260  13.522  14.659  12.287
52143SOL    HW158261  13.431  14.663  12.317
52143SOL    HW258262  13.573  14.652  12.367
52144SOL     OW58263   0.654   2.536  10.136
52144SOL    HW158264   0.730   2.551  10.194
52144SOL    HW258265   0.686   2.475  10.069
52145SOL     OW58266  12.029   2.978   6.556
52145SOL    HW158267  11.951   2.972   6.501
52145SOL    HW258268  12.029   2.896   6.607
52146SOL     OW58269  10.588  13.216   1.371
52146SOL    HW158270  10.670  13.206   1.323
52146SOL    HW258271  10.611  13.269   1.447
52147SOL     OW58272   5.662   2.055   0.894
52147SOL    HW158273   5.649   2.123   0.960
52147SOL    HW258274   5.583   2.057   0.840
52148SOL     OW58275  13.676   9.098   4.376
52148SOL    HW158276  13.768   9.104   4.403
52148SOL    HW258277  13.663   9.173   4.317
52149SOL     OW58278  11.011   9.198  14.611
52149SOL    HW158279  11.096   9.201  14.654
52149SOL    HW258280  10.950   9.170  14.679
52150SOL     OW58281   9.583  14.152   5.487
52150SOL    HW158282   9.551  14.225   5.434
52150SOL    HW258283   9.511  14.089   5.486
52151SOL     OW58284  10.620  14.034   8.478
52151SOL    HW158285  10.599  13.985   8.399
52151SOL    HW258286  10.672  14.109   8.447
52152SOL     OW58287   9.292   5.798   0.821
52152SOL    HW158288   9.279   5.788   0.727
52152SOL    HW258289   9.385   5.818   0.830
52153SOL     OW58290   5.798  11.880   9.389
52153SOL    HW158291   5.770  11.969   9.410
52153SOL    HW258292   5.854  11.890   9.312
52154SOL     OW58293   1.271   1.513   4.004
52154SOL    HW158294   1.315   1.428   4.015
52154SOL    HW258295   1.339   1.578   4.023
52155SOL     OW58296   0.064   0.820   4.179
52155SOL    HW158297  14.847   0.842   4.178
52155SOL    HW258298   0.094   0.842   4.267
52156SOL     OW58299   8.250   3.167   9.793
52156SOL    HW158300   8.193   3.132   9.724
52156SOL    HW258301   8.201   3.150   9.874
52157SOL     OW58302  12.256   6.898   5.577
52157SOL    HW158303  12.274   6.843   5.654
52157SOL    HW258304  12.305   6.856   5.506
52158SOL     OW58305  13.125   5.840   7.317
52158SOL    HW158306  13.142   5.923   7.272
52158SOL    HW258307  13.111   5.865   7.409
52159SOL     OW58308   8.964   4.386   4.145
52159SOL    HW158309   8.994   4.338   4.067
52159SOL    HW258310   9.044   4.399   4.197
52160SOL     OW58311   6.084   3.065  13.080
52160SOL    HW158312   6.047   3.138  13.031
52160SOL    HW258313   6.106   3.000  13.013
52161SOL     OW58314  14.523   3.452   8.176
52161SOL    HW158315  14.474   3.492   8.104
52161SOL    HW258316  14.584   3.393   8.134
52162SOL     OW58317   1.117  10.716  11.313
52162SOL    HW158318   1.127  10.643  11.373
52162SOL    HW258319   1.137  10.794  11.365
52163SOL     OW58320   7.685  12.246   8.202
52163SOL    HW158321   7.675  12.305   8.128
52163SOL    HW258322   7.597  12.210   8.217
52164SOL     OW58323  13.050   8.735   7.719
52164SOL    HW158324  13.045   8.830   7.708
52164SOL    HW258325  13.054   8.701   7.629
52165SOL     OW58326   0.755   3.287   8.047
52165SOL    HW158327   0.753   3.295   8.142
52165SOL    HW258328   0.842   3.253   8.028
52166SOL     OW58329   9.961   5.360   8.087
52166SOL    HW158330  10.016   5.285   8.063
52166SOL    HW258331   9.965   5.419   8.012
52167SOL     OW58332  11.598  14.635   3.470
52167SOL    HW158333  11.568  14.652   3.559
52167SOL    HW258334  11.522  14.652   3.415
52168SOL     OW58335  10.399   1.346  10.296
52168SOL    HW158336  10.359   1.271  10.340
52168SOL    HW258337  10.430   1.402  10.367
52169SOL     OW58338   0.463   6.702  11.531
52169SOL    HW158339   0.528   6.686  11.599
52169SOL    HW258340   0.429   6.790  11.550
52170SOL     OW58341   9.854  12.255   0.976
52170SOL    HW158342   9.940  12.293   0.998
52170SOL    HW258343   9.867  12.219   0.888
52171SOL     OW58344   9.090  14.412   4.726
52171SOL    HW158345   9.146  14.439   4.652
52171SOL    HW258346   9.074  14.319   4.711
52172SOL     OW58347   3.365  10.787   4.199
52172SOL    HW158348   3.283  10.783   4.248
52172SOL    HW258349   3.429  10.819   4.262
52173SOL     OW58350   2.196   8.699   5.845
52173SOL    HW158351   2.288   8.727   5.840
52173SOL    HW258352   2.178   8.694   5.938
52174SOL     OW58353   0.675   8.081  11.328
52174SOL    HW158354   0.641   7.991  11.330
52174SOL    HW258355   0.675   8.109  11.420
52175SOL     OW58356   1.447  13.637  13.035
52175SOL    HW158357   1.407  13.643  12.948
52175SOL    HW258358   1.389  13.578  13.083
52176SOL     OW58359   7.723   6.240  10.736
52176SOL    HW158360   7.664   6.216  10.807
52176SOL    HW258361   7.774   6.161  10.718
52177SOL     OW58362   2.539  14.503   8.309
52177SOL    HW158363   2.565  14.471   8.395
52177SOL    HW258364   2.454  14.544   8.324
52178SOL     OW58365   6.314   9.788  14.855
52178SOL    HW158366   6.394   9.796   0.031
52178SOL    HW258367   6.325   9.706  14.807
52179SOL     OW58368   9.184  13.365   9.387
52179SOL    HW158369   9.159  13.289   9.439
52179SOL    HW258370   9.194  13.435   9.451
52180SOL     OW58371   3.535  10.932   2.922
52180SOL    HW158372   3.527  10.942   2.827
52180SOL    HW258373   3.478  11.001   2.958
52181SOL     OW58374  14.799   4.493   3.453
52181SOL    HW158375  14.797   4.422   3.389
52181SOL    HW258376  14.808   4.573   3.400
52182SOL     OW58377   3.031   7.716  10.598
52182SOL    HW158378   3.084   7.638  10.582
52182SOL    HW258379   3.021   7.719  10.694
52183SOL     OW58380  12.626   2.457   0.155
52183SOL    HW158381  12.556   2.512   0.190
52183SOL    HW258382  12.705   2.484   0.202
52184SOL     OW58383   4.398   4.415  11.394
52184SOL    HW158384   4.378   4.416  11.300
52184SOL    HW258385   4.313   4.424  11.437
52185SOL     OW58386   3.523   7.773   9.980
52185SOL    HW158387   3.553   7.814   9.899
52185SOL    HW258388   3.442   7.820  10.002
52186SOL     OW58389   0.518   3.832   0.269
52186SOL    HW158390   0.516   3.738   0.291
52186SOL    HW258391   0.573   3.837   0.191
52187SOL     OW58392   5.512  13.860   4.949
52187SOL    HW158393   5.546  13.785   4.999
52187SOL    HW258394   5.528  13.837   4.858
52188SOL     OW58395   0.952   0.785   4.452
52188SOL    HW158396   0.875   0.750   4.409
52188SOL    HW258397   1.005   0.822   4.381
52189SOL     OW58398   6.229  13.731   1.552
52189SOL    HW158399   6.142  13.763   1.529
52189SOL    HW258400   6.224  13.636   1.540
52190SOL     OW58401   9.596   1.638  11.249
52190SOL    HW158402   9.581   1.659  11.341
52190SOL    HW258403   9.691   1.645  11.239
52191SOL     OW58404  14.291  12.595   9.577
52191SOL    HW158405  14.349  12.615   9.503
52191SOL    HW258406  14.333  12.521   9.620
52192SOL     OW58407   6.107   7.407   3.258
52192SOL    HW158408   6.022   7.363   3.255
52192SOL    HW258409   6.170   7.336   3.247
52193SOL     OW58410  12.226  12.539  13.591
52193SOL    HW158411  12.229  12.578  13.678
52193SOL    HW258412  12.281  12.595  13.537
52194SOL     OW58413   6.410   1.031   9.757
52194SOL    HW158414   6.450   0.944   9.760
52194SOL    HW258415   6.456   1.081   9.826
52195SOL     OW58416  12.424  13.719   0.826
52195SOL    HW158417  12.383  13.658   0.765
52195SOL    HW258418  12.429  13.802   0.778
52196SOL     OW58419  10.765   7.518   6.516
52196SOL    HW158420  10.849   7.565   6.522
52196SOL    HW258421  10.777   7.458   6.443
52197SOL     OW58422   7.393   8.341   4.586
52197SOL    HW158423   7.418   8.344   4.678
52197SOL    HW258424   7.466   8.297   4.542
52198SOL     OW58425   5.690   4.445   3.930
52198SOL    HW158426   5.609   4.448   3.980
52198SOL    HW258427   5.681   4.368   3.873
52199SOL     OW58428   0.033  10.591  10.432
52199SOL    HW158429   0.056  10.683  10.448
52199SOL    HW258430  14.835  10.575  10.491
52200SOL     OW58431   6.033   9.582   8.230
52200SOL    HW158432   6.036   9.655   8.291
52200SOL    HW258433   6.072   9.509   8.279
52201SOL     OW58434   2.642  12.244  10.457
52201SOL    HW158435   2.667  12.316  10.515
52201SOL    HW258436   2.572  12.280  10.403
52202SOL     OW58437   4.855  11.874  12.630
52202SOL    HW158438   4.862  11.823  12.711
52202SOL    HW258439   4.943  11.870  12.592
52203SOL     OW58440   1.754   8.792   5.320
52203SOL    HW158441   1.846   8.815   5.310
52203SOL    HW258442   1.729   8.829   5.405
52204SOL     OW58443   4.317   3.713   6.758
52204SOL    HW158444   4.402   3.748   6.786
52204SOL    HW258445   4.267   3.790   6.730
52205SOL     OW58446   5.256  10.904  11.076
52205SOL    HW158447   5.325  10.935  11.135
52205SOL    HW258448   5.280  10.813  11.057
52206SOL     OW58449   1.426  14.554   5.777
52206SOL    HW158450   1.489  14.541   5.848
52206SOL    HW258451   1.391  14.467   5.761
52207SOL     OW58452  10.690   6.191   7.213
52207SOL    HW158453  10.747   6.131   7.166
52207SOL    HW258454  10.606   6.184   7.169
52208SOL     OW58455   4.706   9.156   9.178
52208SOL    HW158456   4.790   9.196   9.199
52208SOL    HW258457   4.656   9.226   9.136
52209SOL     OW58458   1.756   3.334   6.690
52209SOL    HW158459   1.662   3.330   6.708
52209SOL    HW258460   1.772   3.266   6.625
52210SOL     OW58461  11.921  12.204  11.541
52210SOL    HW158462  11.890  12.260  11.612
52210SOL    HW258463  11.907  12.115  11.573
52211SOL     OW58464   0.814   4.738   1.684
52211SOL    HW158465   0.758   4.726   1.607
52211SOL    HW258466   0.888   4.680   1.669
52212SOL     OW58467   8.466   7.268  13.824
52212SOL    HW158468   8.542   7.319  13.795
52212SOL    HW258469   8.409   7.265  13.747
52213SOL     OW58470   4.494   0.736  14.740
52213SOL    HW158471   4.585   0.765  14.752
52213SOL    HW258472   4.483   0.730  14.645
52214SOL     OW58473   4.698  10.692  12.698
52214SOL    HW158474   4.676  10.764  12.639
52214SOL    HW258475   4.790  10.707  12.719
52215SOL     OW58476  11.071   6.209  12.982
52215SOL    HW158477  11.145   6.245  13.031
52215SOL    HW258478  11.109   6.185  12.897
52216SOL     OW58479   5.320  11.655   7.919
52216SOL    HW158480   5.364  11.665   7.834
52216SOL    HW258481   5.256  11.585   7.905
52217SOL     OW58482   8.905  11.068   5.475
52217SOL    HW158483   8.968  11.023   5.532
52217SOL    HW258484   8.823  11.066   5.524
52218SOL     OW58485   2.816  10.669   1.748
52218SOL    HW158486   2.739  10.679   1.805
52218SOL    HW258487   2.890  10.691   1.804
52219SOL     OW58488   9.224   2.071  14.565
52219SOL    HW158489   9.319   2.065  14.561
52219SOL    HW258490   9.206   2.143  14.625
52220SOL     OW58491   7.949   7.599   6.376
52220SOL    HW158492   7.922   7.516   6.415
52220SOL    HW258493   7.874   7.627   6.324
52221SOL     OW58494   1.431   6.112   0.766
52221SOL    HW158495   1.450   6.019   0.765
52221SOL    HW258496   1.430   6.136   0.859
52222SOL     OW58497   2.382   3.978   1.574
52222SOL    HW158498   2.452   4.022   1.622
52222SOL    HW258499   2.411   3.887   1.568
52223SOL     OW58500   5.290  11.094  10.237
52223SOL    HW158501   5.272  11.150  10.162
52223SOL    HW258502   5.263  11.007  10.210
52224SOL     OW58503  13.418  10.813   9.046
52224SOL    HW158504  13.366  10.732   9.050
52224SOL    HW258505  13.509  10.783   9.051
52225SOL     OW58506  12.517   8.356   0.620
52225SOL    HW158507  12.528   8.261   0.615
52225SOL    HW258508  12.528   8.386   0.530
52226SOL     OW58509   5.141  13.439   6.956
52226SOL    HW158510   5.068  13.407   7.010
52226SOL    HW258511   5.099  13.466   6.874
52227SOL     OW58512   7.589  13.155   8.834
52227SOL    HW158513   7.656  13.202   8.784
52227SOL    HW258514   7.624  13.066   8.842
52228SOL     OW58515   6.718   4.057   1.345
52228SOL    HW158516   6.730   4.152   1.348
52228SOL    HW258517   6.745   4.026   1.431
52229SOL     OW58518   9.201  11.535  13.032
52229SOL    HW158519   9.171  11.504  13.117
52229SOL    HW258520   9.165  11.623  13.025
52230SOL     OW58521   7.321  14.853   0.863
52230SOL    HW158522   7.301  14.845   0.957
52230SOL    HW258523   7.365   0.062   0.855
52231SOL     OW58524   2.111   8.358   3.449
52231SOL    HW158525   2.020   8.380   3.468
52231SOL    HW258526   2.155   8.443   3.444
52232SOL     OW58527  13.112   3.621   2.878
52232SOL    HW158528  13.097   3.637   2.971
52232SOL    HW258529  13.042   3.560   2.852
52233SOL     OW58530   9.145  10.981  13.131
52233SOL    HW158531   9.082  10.913  13.107
52233SOL    HW258532   9.178  10.955  13.217
52234SOL     OW58533   2.791  11.679   3.819
52234SOL    HW158534   2.743  11.647   3.895
52234SOL    HW258535   2.883  11.661   3.839
52235SOL     OW58536  10.503   0.172  10.763
52235SOL    HW158537  10.457   0.255  10.764
52235SOL    HW258538  10.588   0.192  10.724
52236SOL     OW58539   8.934  10.865  12.879
52236SOL    HW158540   8.902  10.789  12.831
52236SOL    HW258541   8.855  10.911  12.907
52237SOL     OW58542  13.306  11.130  10.826
52237SOL    HW158543  13.308  11.065  10.756
52237SOL    HW258544  13.252  11.201  10.792
52238SOL     OW58545   2.844   9.172   0.337
52238SOL    HW158546   2.862   9.115   0.262
52238SOL    HW258547   2.866   9.260   0.306
52239SOL     OW58548   9.966   7.520   3.798
52239SOL    HW158549  10.048   7.528   3.848
52239SOL    HW258550   9.898   7.518   3.865
52240SOL     OW58551  14.099   2.694   3.625
52240SOL    HW158552  14.029   2.690   3.690
52240SOL    HW258553  14.143   2.609   3.632
52241SOL     OW58554   5.221  11.217   1.269
52241SOL    HW158555   5.297  11.171   1.233
52241SOL    HW258556   5.198  11.281   1.202
52242SOL     OW58557   7.567   0.217  12.638
52242SOL    HW158558   7.630   0.167  12.586
52242SOL    HW258559   7.482   0.181  12.614
52243SOL     OW58560   5.692   7.684   1.191
52243SOL    HW158561   5.777   7.651   1.162
52243SOL    HW258562   5.660   7.620   1.254
52244SOL     OW58563   8.826   9.345   8.688
52244SOL    HW158564   8.768   9.357   8.764
52244SOL    HW258565   8.858   9.433   8.669
52245SOL     OW58566   0.696   8.936  10.120
52245SOL    HW158567   0.725   8.962  10.208
52245SOL    HW258568   0.601   8.924  10.128
52246SOL     OW58569   7.199   0.573  14.692
52246SOL    HW158570   7.126   0.634  14.679
52246SOL    HW258571   7.260   0.594  14.621
52247SOL     OW58572  12.286   9.615  10.164
52247SOL    HW158573  12.331   9.675  10.105
52247SOL    HW258574  12.202   9.597  10.121
52248SOL     OW58575   4.402   2.059  11.570
52248SOL    HW158576   4.318   2.105  11.572
52248SOL    HW258577   4.447   2.093  11.493
52249SOL     OW58578   8.367  10.717   4.136
52249SOL    HW158579   8.368  10.665   4.216
52249SOL    HW258580   8.410  10.800   4.161
52250SOL     OW58581  10.026  12.777   6.080
52250SOL    HW158582  10.008  12.854   6.027
52250SOL    HW258583   9.966  12.784   6.154
52251SOL     OW58584  12.527  14.874  11.787
52251SOL    HW158585  12.614  14.857  11.825
52251SOL    HW258586  12.500  14.790  11.750
52252SOL     OW58587   4.251  13.644   0.814
52252SOL    HW158588   4.235  13.557   0.851
52252SOL    HW258589   4.170  13.665   0.768
52253SOL     OW58590  14.463  14.551   2.736
52253SOL    HW158591  14.459  14.646   2.753
52253SOL    HW258592  14.372  14.522   2.744
52254SOL     OW58593   8.704  12.024   4.845
52254SOL    HW158594   8.688  12.016   4.751
52254SOL    HW258595   8.628  11.983   4.886
52255SOL     OW58596   1.254   0.324   2.640
52255SOL    HW158597   1.334   0.301   2.687
52255SOL    HW258598   1.198   0.365   2.705
52256SOL     OW58599   1.532   8.444   2.086
52256SOL    HW158600   1.523   8.354   2.054
52256SOL    HW258601   1.451   8.459   2.135
52257SOL     OW58602   1.737  13.829   7.941
52257SOL    HW158603   1.660  13.824   7.884
52257SOL    HW258604   1.702  13.827   8.030
52258SOL     OW58605   9.019   7.993  11.545
52258SOL    HW158606   9.085   8.060  11.566
52258SOL    HW258607   9.000   7.951  11.629
52259SOL     OW58608   0.161   0.447   5.353
52259SOL    HW158609   0.139   0.441   5.260
52259SOL    HW258610   0.175   0.541   5.368
52260SOL     OW58611  12.262   0.356   3.580
52260SOL    HW158612  12.247   0.269   3.542
52260SOL    HW258613  12.197   0.363   3.650
52261SOL     OW58614   5.274  12.566   1.258
52261SOL    HW158615   5.319  12.648   1.278
52261SOL    HW258616   5.291  12.552   1.164
52262SOL     OW58617  14.511  14.170  14.642
52262SOL    HW158618  14.452  14.219  14.699
52262SOL    HW258619  14.527  14.229  14.568
52263SOL     OW58620  12.200   4.958  12.244
52263SOL    HW158621  12.238   4.996  12.324
52263SOL    HW258622  12.274   4.917  12.200
52264SOL     OW58623   5.499   3.889   3.213
52264SOL    HW158624   5.403   3.887   3.211
52264SOL    HW258625   5.521   3.879   3.306
52265SOL     OW58626   7.985   5.709   6.912
52265SOL    HW158627   8.071   5.742   6.886
52265SOL    HW258628   7.950   5.776   6.971
52266SOL     OW58629   5.861   2.307   7.808
52266SOL    HW158630   5.835   2.394   7.777
52266SOL    HW258631   5.856   2.251   7.731
52267SOL     OW58632   2.884  11.984  14.463
52267SOL    HW158633   2.937  12.061  14.442
52267SOL    HW258634   2.853  11.953  14.378
52268SOL     OW58635   6.465   8.245   4.449
52268SOL    HW158636   6.514   8.239   4.531
52268SOL    HW258637   6.389   8.189   4.462
52269SOL     OW58638   1.993  14.599   5.807
52269SOL    HW158639   2.041  14.644   5.876
52269SOL    HW258640   1.981  14.510   5.841
52270SOL     OW58641   8.011  13.075   6.403
52270SOL    HW158642   8.019  13.033   6.318
52270SOL    HW258643   8.095  13.057   6.447
52271SOL     OW58644   5.077  14.168   4.205
52271SOL    HW158645   5.159  14.176   4.254
52271SOL    HW258646   5.016  14.227   4.250
52272SOL     OW58647   8.989   6.742   5.922
52272SOL    HW158648   8.982   6.730   5.827
52272SOL    HW258649   9.064   6.801   5.933
52273SOL     OW58650   6.361   6.855   7.849
52273SOL    HW158651   6.430   6.921   7.864
52273SOL    HW258652   6.300   6.898   7.789
52274SOL     OW58653  14.287  10.902   0.020
52274SOL    HW158654  14.213  10.959   0.042
52274SOL    HW258655  14.276  10.826   0.077
52275SOL     OW58656   7.599   0.499   0.956
52275SOL    HW158657   7.575   0.563   0.888
52275SOL    HW258658   7.602   0.551   1.037
52276SOL     OW58659   9.252  11.271   8.866
52276SOL    HW158660   9.306  11.345   8.893
52276SOL    HW258661   9.278  11.200   8.926
52277SOL     OW58662   9.228  11.142   6.521
52277SOL    HW158663   9.280  11.147   6.441
52277SOL    HW258664   9.157  11.204   6.508
52278SOL     OW58665   2.185   5.535   7.910
52278SOL    HW158666   2.156   5.560   7.998
52278SOL    HW258667   2.242   5.459   7.925
52279SOL     OW58668   1.834   0.673  10.331
52279SOL    HW158669   1.747   0.698  10.364
52279SOL    HW258670   1.878   0.635  10.407
52280SOL     OW58671   1.485   0.999   7.550
52280SOL    HW158672   1.417   0.935   7.529
52280SOL    HW258673   1.553   0.948   7.593
52281SOL     OW58674   9.680   5.150   1.565
52281SOL    HW158675   9.611   5.102   1.611
52281SOL    HW258676   9.650   5.154   1.474
52282SOL     OW58677   4.678   2.883  10.933
52282SOL    HW158678   4.603   2.935  10.961
52282SOL    HW258679   4.718   2.934  10.863
52283SOL     OW58680  10.522   9.398  12.574
52283SOL    HW158681  10.477   9.479  12.599
52283SOL    HW258682  10.522   9.345  12.654
52284SOL     OW58683  13.593   0.122   5.654
52284SOL    HW158684  13.681   0.159   5.661
52284SOL    HW258685  13.541   0.191   5.612
52285SOL     OW58686  10.285   4.696   9.991
52285SOL    HW158687  10.275   4.676  10.084
52285SOL    HW258688  10.276   4.791   9.986
52286SOL     OW58689   3.462   8.909   0.099
52286SOL    HW158690   3.422   8.923   0.185
52286SOL    HW258691   3.387   8.899   0.040
52287SOL     OW58692   7.264   6.320   3.687
52287SOL    HW158693   7.228   6.403   3.657
52287SOL    HW258694   7.194   6.281   3.739
52288SOL     OW58695   1.468   6.915   6.551
52288SOL    HW158696   1.413   6.899   6.627
52288SOL    HW258697   1.421   6.874   6.478
52289SOL     OW58698  13.548   6.435   8.904
52289SOL    HW158699  13.589   6.468   8.824
52289SOL    HW258700  13.552   6.340   8.896
52290SOL     OW58701   9.447   0.394   1.696
52290SOL    HW158702   9.519   0.382   1.634
52290SOL    HW258703   9.475   0.347   1.774
52291SOL     OW58704   7.489  13.671   5.848
52291SOL    HW158705   7.523  13.585   5.825
52291SOL    HW258706   7.563  13.716   5.889
52292SOL     OW58707  12.439   6.138  14.148
52292SOL    HW158708  12.503   6.143  14.219
52292SOL    HW258709  12.423   6.044  14.137
52293SOL     OW58710   0.954   5.540   6.558
52293SOL    HW158711   0.937   5.460   6.608
52293SOL    HW258712   0.868   5.567   6.527
52294SOL     OW58713   3.308   3.155   1.395
52294SOL    HW158714   3.235   3.095   1.382
52294SOL    HW258715   3.386   3.099   1.389
52295SOL     OW58716   4.186   9.467   6.631
52295SOL    HW158717   4.281   9.465   6.645
52295SOL    HW258718   4.174   9.429   6.544
52296SOL     OW58719  13.283  13.085  14.621
52296SOL    HW158720  13.363  13.085  14.674
52296SOL    HW258721  13.313  13.109  14.533
52297SOL     OW58722   7.724   0.662   1.838
52297SOL    HW158723   7.645   0.627   1.798
52297SOL    HW258724   7.693   0.736   1.891
52298SOL     OW58725  12.521   0.130   7.543
52298SOL    HW158726  12.496   0.202   7.485
52298SOL    HW258727  12.444   0.116   7.598
52299SOL     OW58728  14.229  10.127   9.060
52299SOL    HW158729  14.213  10.085   9.145
52299SOL    HW258730  14.225  10.055   8.997
52300SOL     OW58731   9.640  13.853   3.085
52300SOL    HW158732   9.687  13.868   3.002
52300SOL    HW258733   9.550  13.836   3.058
52301SOL     OW58734   6.462  10.935   1.329
52301SOL    HW158735   6.404  10.984   1.272
52301SOL    HW258736   6.531  10.902   1.272
52302SOL     OW58737  14.484  10.259   5.674
52302SOL    HW158738  14.459  10.287   5.586
52302SOL    HW258739  14.431  10.181   5.691
52303SOL     OW58740   3.316   0.217   1.275
52303SOL    HW158741   3.225   0.209   1.301
52303SOL    HW258742   3.366   0.194   1.353
52304SOL     OW58743   9.230   5.121  12.841
52304SOL    HW158744   9.193   5.090  12.924
52304SOL    HW258745   9.267   5.207  12.862
52305SOL     OW58746   7.296   5.374   5.298
52305SOL    HW158747   7.307   5.372   5.203
52305SOL    HW258748   7.237   5.448   5.314
52306SOL     OW58749   7.189   2.588  12.598
52306SOL    HW158750   7.117   2.620  12.544
52306SOL    HW258751   7.156   2.591  12.687
52307SOL     OW58752   8.957   0.941   1.959
52307SOL    HW158753   8.942   0.893   1.877
52307SOL    HW258754   8.944   0.876   2.028
52308SOL     OW58755   4.987   9.022   2.127
52308SOL    HW158756   5.071   8.980   2.109
52308SOL    HW258757   4.922   8.966   2.086
52309SOL     OW58758  12.189   6.388   4.902
52309SOL    HW158759  12.223   6.474   4.878
52309SOL    HW258760  12.150   6.402   4.989
52310SOL     OW58761   8.651   6.727   7.572
52310SOL    HW158762   8.700   6.803   7.542
52310SOL    HW258763   8.560   6.756   7.576
52311SOL     OW58764   6.914   3.563   6.384
52311SOL    HW158765   6.893   3.655   6.368
52311SOL    HW258766   6.831   3.524   6.411
52312SOL     OW58767   7.903   6.478  11.092
52312SOL    HW158768   7.946   6.516  11.169
52312SOL    HW258769   7.815   6.516  11.093
52313SOL     OW58770   9.983   3.716   6.523
52313SOL    HW158771  10.065   3.668   6.512
52313SOL    HW258772   9.917   3.649   6.539
52314SOL     OW58773   3.226   4.856   8.490
52314SOL    HW158774   3.275   4.810   8.423
52314SOL    HW258775   3.284   4.926   8.519
52315SOL     OW58776  12.027  10.327   1.587
52315SOL    HW158777  11.947  10.278   1.568
52315SOL    HW258778  12.087  10.263   1.624
52316SOL     OW58779   0.016  12.832   0.783
52316SOL    HW158780   0.077  12.769   0.823
52316SOL    HW258781   0.051  12.918   0.806
52317SOL     OW58782   2.437  13.154   3.487
52317SOL    HW158783   2.350  13.126   3.515
52317SOL    HW258784   2.428  13.247   3.469
52318SOL     OW58785   8.501   5.107  11.060
52318SOL    HW158786   8.463   5.194  11.068
52318SOL    HW258787   8.496   5.070  11.148
52319SOL     OW58788  10.479  14.708  12.140
52319SOL    HW158789  10.559  14.747  12.105
52319SOL    HW258790  10.461  14.634  12.082
52320SOL     OW58791  13.063   3.154  11.461
52320SOL    HW158792  13.074   3.196  11.546
52320SOL    HW258793  13.103   3.068  11.471
52321SOL     OW58794  12.257   6.397   3.769
52321SOL    HW158795  12.193   6.326   3.764
52321SOL    HW258796  12.271   6.424   3.678
52322SOL     OW58797   0.216  10.508   2.878
52322SOL    HW158798   0.244  10.546   2.961
52322SOL    HW258799   0.238  10.574   2.812
52323SOL     OW58800   1.696   7.941   0.440
52323SOL    HW158801   1.677   7.929   0.347
52323SOL    HW258802   1.719   7.854   0.472
52324SOL     OW58803  11.227   7.640   0.936
52324SOL    HW158804  11.211   7.671   0.847
52324SOL    HW258805  11.178   7.558   0.942
52325SOL     OW58806  13.188   4.222  11.335
52325SOL    HW158807  13.225   4.160  11.398
52325SOL    HW258808  13.132   4.279  11.387
52326SOL     OW58809  13.353   6.848  10.620
52326SOL    HW158810  13.342   6.912  10.549
52326SOL    HW258811  13.421   6.789  10.588
52327SOL     OW58812  14.091   6.795   1.152
52327SOL    HW158813  14.016   6.803   1.093
52327SOL    HW258814  14.165   6.778   1.093
52328SOL     OW58815   6.307  13.415   4.939
52328SOL    HW158816   6.252  13.337   4.949
52328SOL    HW258817   6.367  13.394   4.868
52329SOL     OW58818   0.418   2.804  12.539
52329SOL    HW158819   0.358   2.732  12.517
52329SOL    HW258820   0.367   2.861  12.596
52330SOL     OW58821  12.336   5.395   1.901
52330SOL    HW158822  12.266   5.331   1.896
52330SOL    HW258823  12.416   5.345   1.886
52331SOL     OW58824   2.084  13.043  10.506
52331SOL    HW158825   2.064  13.000  10.423
52331SOL    HW258826   2.165  13.091  10.489
52332SOL     OW58827  13.088  11.894   1.444
52332SOL    HW158828  13.166  11.887   1.499
52332SOL    HW258829  13.020  11.849   1.493
52333SOL     OW58830   6.655   5.685   8.520
52333SOL    HW158831   6.667   5.596   8.555
52333SOL    HW258832   6.718   5.738   8.567
52334SOL     OW58833   5.646  14.400   0.918
52334SOL    HW158834   5.717  14.402   0.983
52334SOL    HW258835   5.659  14.479   0.866
52335SOL     OW58836   2.242  14.641   9.225
52335SOL    HW158837   2.284  14.650   9.311
52335SOL    HW258838   2.149  14.627   9.244
52336SOL     OW58839   7.525   2.446  11.428
52336SOL    HW158840   7.554   2.496  11.351
52336SOL    HW258841   7.573   2.363  11.422
52337SOL     OW58842   3.584   7.134  13.785
52337SOL    HW158843   3.578   7.168  13.874
52337SOL    HW258844   3.646   7.193  13.741
52338SOL     OW58845   6.349  14.012   5.377
52338SOL    HW158846   6.414  14.083   5.380
52338SOL    HW258847   6.400  13.934   5.356
52339SOL     OW58848   3.786   2.759   1.467
52339SOL    HW158849   3.813   2.828   1.405
52339SOL    HW258850   3.794   2.801   1.553
52340SOL     OW58851   4.139  14.606   4.031
52340SOL    HW158852   4.088  14.554   4.093
52340SOL    HW258853   4.086  14.607   3.952
52341SOL     OW58854  10.968   3.260   3.185
52341SOL    HW158855  11.028   3.202   3.138
52341SOL    HW258856  10.928   3.313   3.116
52342SOL     OW58857   8.967  12.309   6.262
52342SOL    HW158858   8.896  12.371   6.276
52342SOL    HW258859   9.033  12.333   6.327
52343SOL     OW58860   2.238   5.280   0.884
52343SOL    HW158861   2.271   5.293   0.796
52343SOL    HW258862   2.209   5.366   0.913
52344SOL     OW58863   4.742   9.831  14.464
52344SOL    HW158864   4.677   9.867  14.524
52344SOL    HW258865   4.822   9.824  14.518
52345SOL     OW58866  11.398  13.320   1.829
52345SOL    HW158867  11.317  13.354   1.867
52345SOL    HW258868  11.370  13.278   1.747
52346SOL     OW58869   6.119  12.741  10.013
52346SOL    HW158870   6.045  12.690   9.980
52346SOL    HW258871   6.173  12.757   9.936
52347SOL     OW58872   3.343  14.178  10.218
52347SOL    HW158873   3.405  14.247  10.243
52347SOL    HW258874   3.377  14.099  10.261
52348SOL     OW58875   2.303   2.930   6.273
52348SOL    HW158876   2.240   2.878   6.222
52348SOL    HW258877   2.249   2.975   6.338
52349SOL     OW58878  12.455  13.855   5.690
52349SOL    HW158879  12.448  13.772   5.737
52349SOL    HW258880  12.523  13.904   5.737
52350SOL     OW58881  13.143  11.102   0.955
52350SOL    HW158882  13.055  11.082   0.986
52350SOL    HW258883  13.199  11.085   1.031
52351SOL     OW58884   4.491   2.593  10.235
52351SOL    HW158885   4.402   2.627  10.219
52351SOL    HW258886   4.479   2.521  10.296
52352SOL     OW58887   2.375  13.976   7.692
52352SOL    HW158888   2.291  13.965   7.647
52352SOL    HW258889   2.424  14.035   7.635
52353SOL     OW58890   6.951   2.206   5.366
52353SOL    HW158891   6.865   2.167   5.347
52353SOL    HW258892   6.936   2.259   5.444
52354SOL     OW58893   8.587  11.465   0.151
52354SOL    HW158894   8.549  11.397   0.207
52354SOL    HW258895   8.669  11.427   0.119
52355SOL     OW58896   0.840  10.977  14.828
52355SOL    HW158897   0.839  11.048   0.016
52355SOL    HW258898   0.748  10.958  14.811
52356SOL     OW58899   6.583  13.666  14.237
52356SOL    HW158900   6.521  13.609  14.193
52356SOL    HW258901   6.608  13.618  14.316
52357SOL     OW58902   1.369   3.210   0.493
52357SOL    HW158903   1.442   3.259   0.456
52357SOL    HW258904   1.368   3.128   0.444
52358SOL     OW58905  14.607  10.002   9.941
52358SOL    HW158906  14.655   9.936   9.990
52358SOL    HW258907  14.665  10.079   9.940
52359SOL     OW58908  11.090  12.216   2.688
52359SOL    HW158909  11.066  12.243   2.600
52359SOL    HW258910  11.008  12.220   2.737
52360SOL     OW58911   3.528   8.384  14.431
52360SOL    HW158912   3.592   8.312  14.434
52360SOL    HW258913   3.573   8.453  14.383
52361SOL     OW58914   5.250  12.008   3.160
52361SOL    HW158915   5.314  11.952   3.204
52361SOL    HW258916   5.233  11.964   3.076
52362SOL     OW58917   4.219   3.407  14.047
52362SOL    HW158918   4.165   3.328  14.055
52362SOL    HW258919   4.158   3.480  14.058
52363SOL     OW58920   9.682   3.961   8.474
52363SOL    HW158921   9.761   4.016   8.476
52363SOL    HW258922   9.714   3.874   8.452
52364SOL     OW58923   1.646   2.313  14.757
52364SOL    HW158924   1.565   2.265  14.743
52364SOL    HW258925   1.711   2.246  14.776
52365SOL     OW58926   4.352   2.504   1.692
52365SOL    HW158927   4.273   2.552   1.671
52365SOL    HW258928   4.321   2.425   1.736
52366SOL     OW58929  12.434  14.173   8.291
52366SOL    HW158930  12.366  14.142   8.231
52366SOL    HW258931  12.439  14.268   8.275
52367SOL     OW58932  13.544   2.645   7.273
52367SOL    HW158933  13.600   2.656   7.350
52367SOL    HW258934  13.456   2.634   7.309
52368SOL     OW58935   1.105   0.062   0.207
52368SOL    HW158936   1.023   0.034   0.166
52368SOL    HW258937   1.086   0.061   0.301
52369SOL     OW58938   9.604  14.788   4.196
52369SOL    HW158939   9.616  14.843   4.119
52369SOL    HW258940   9.510  14.780   4.205
52370SOL     OW58941  11.863   7.457  13.707
52370SOL    HW158942  11.794   7.413  13.756
52370SOL    HW258943  11.884   7.396  13.636
52371SOL     OW58944  11.463   4.231   1.161
52371SOL    HW158945  11.471   4.321   1.190
52371SOL    HW258946  11.469   4.236   1.065
52372SOL     OW58947  13.824   5.378   4.550
52372SOL    HW158948  13.761   5.445   4.575
52372SOL    HW258949  13.908   5.424   4.550
52373SOL     OW58950  10.410   8.602   7.809
52373SOL    HW158951  10.477   8.573   7.748
52373SOL    HW258952  10.349   8.529   7.815
52374SOL     OW58953   5.421   6.265  14.416
52374SOL    HW158954   5.346   6.226  14.372
52374SOL    HW258955   5.384   6.340  14.464
52375SOL     OW58956   2.319  10.883  14.124
52375SOL    HW158957   2.347  10.843  14.042
52375SOL    HW258958   2.312  10.809  14.185
52376SOL     OW58959   9.785   9.244   6.584
52376SOL    HW158960   9.712   9.239   6.647
52376SOL    HW258961   9.762   9.181   6.516
52377SOL     OW58962   3.261   4.887  11.423
52377SOL    HW158963   3.334   4.850  11.473
52377SOL    HW258964   3.202   4.924  11.489
52378SOL     OW58965   6.663  11.248  12.227
52378SOL    HW158966   6.589  11.212  12.179
52378SOL    HW258967   6.736  11.246  12.165
52379SOL     OW58968   2.061   4.026   9.166
52379SOL    HW158969   2.055   3.942   9.212
52379SOL    HW258970   1.973   4.063   9.171
52380SOL     OW58971   3.717  13.831   9.756
52380SOL    HW158972   3.652  13.888   9.798
52380SOL    HW258973   3.769  13.889   9.701
52381SOL     OW58974   2.508  13.639  10.459
52381SOL    HW158975   2.511  13.572  10.390
52381SOL    HW258976   2.423  13.627  10.500
52382SOL     OW58977   5.350   5.382   1.382
52382SOL    HW158978   5.445   5.390   1.377
52382SOL    HW258979   5.319   5.473   1.390
52383SOL     OW58980   7.489   9.921  11.105
52383SOL    HW158981   7.463   9.843  11.057
52383SOL    HW258982   7.556   9.890  11.167
52384SOL     OW58983   7.531  13.376   1.006
52384SOL    HW158984   7.582  13.379   1.087
52384SOL    HW258985   7.590  13.413   0.940
52385SOL     OW58986   6.903   9.735  13.084
52385SOL    HW158987   6.934   9.799  13.021
52385SOL    HW258988   6.896   9.783  13.167
52386SOL     OW58989   4.961   3.335   2.242
52386SOL    HW158990   5.055   3.322   2.249
52386SOL    HW258991   4.926   3.250   2.216
52387SOL     OW58992   8.822   7.492   6.229
52387SOL    HW158993   8.761   7.482   6.302
52387SOL    HW258994   8.906   7.465   6.265
52388SOL     OW58995   1.583  10.297   0.722
52388SOL    HW158996   1.570  10.205   0.697
52388SOL    HW258997   1.539  10.305   0.807
52389SOL     OW58998   0.837   7.128   5.172
52389SOL    HW158999   0.885   7.142   5.253
52389SOL    HW259000   0.902   7.136   5.103
52390SOL     OW59001   6.279  11.913   5.478
52390SOL    HW159002   6.213  11.973   5.443
52390SOL    HW259003   6.302  11.950   5.564
52391SOL     OW59004   5.002  12.941   4.417
52391SOL    HW159005   5.035  13.007   4.356
52391SOL    HW259006   5.074  12.925   4.478
52392SOL     OW59007   6.366   2.455   5.477
52392SOL    HW159008   6.395   2.388   5.539
52392SOL    HW259009   6.319   2.406   5.410
52393SOL     OW59010  14.229  11.638   9.244
52393SOL    HW159011  14.258  11.626   9.154
52393SOL    HW259012  14.248  11.730   9.264
52394SOL     OW59013  14.641  14.349   9.944
52394SOL    HW159014  14.648  14.273   9.886
52394SOL    HW259015  14.550  14.379   9.932
52395SOL     OW59016   9.083   8.207   6.664
52395SOL    HW159017   9.024   8.218   6.739
52395SOL    HW259018   9.024   8.183   6.592
52396SOL     OW59019   7.012   9.431   0.269
52396SOL    HW159020   7.045   9.446   0.180
52396SOL    HW259021   6.931   9.482   0.274
52397SOL     OW59022   5.540   1.445   4.922
52397SOL    HW159023   5.473   1.378   4.907
52397SOL    HW259024   5.623   1.397   4.918
52398SOL     OW59025  14.355   7.780   1.369
52398SOL    HW159026  14.262   7.794   1.354
52398SOL    HW259027  14.385   7.859   1.414
52399SOL     OW59028  10.610   5.612  14.866
52399SOL    HW159029  10.651   5.544  14.811
52399SOL    HW259030  10.516   5.598  14.855
52400SOL     OW59031   3.456  14.319   9.558
52400SOL    HW159032   3.418  14.343   9.642
52400SOL    HW259033   3.465  14.224   9.562
52401SOL     OW59034   3.869   9.627   6.655
52401SOL    HW159035   3.955   9.590   6.672
52401SOL    HW259036   3.807   9.559   6.679
52402SOL     OW59037   9.849   7.480  12.538
52402SOL    HW159038   9.911   7.547  12.510
52402SOL    HW259039   9.811   7.513  12.619
52403SOL     OW59040  11.823   7.758  10.770
52403SOL    HW159041  11.734   7.732  10.793
52403SOL    HW259042  11.855   7.805  10.847
52404SOL     OW59043   9.512   4.768   0.134
52404SOL    HW159044   9.537   4.726   0.052
52404SOL    HW259045   9.448   4.709   0.173
52405SOL     OW59046   6.226  11.421   2.689
52405SOL    HW159047   6.256  11.342   2.734
52405SOL    HW259048   6.222  11.487   2.758
52406SOL     OW59049  10.014   3.645   9.658
52406SOL    HW159050  10.078   3.716   9.662
52406SOL    HW259051  10.046   3.580   9.720
52407SOL     OW59052  14.611   6.276   2.866
52407SOL    HW159053  14.681   6.277   2.800
52407SOL    HW259054  14.550   6.344   2.837
52408SOL     OW59055  11.188  13.836   0.210
52408SOL    HW159056  11.155  13.913   0.164
52408SOL    HW259057  11.197  13.865   0.301
52409SOL     OW59058  12.564  11.375   9.026
52409SOL    HW159059  12.632  11.308   9.026
52409SOL    HW259060  12.506  11.350   9.098
52410SOL     OW59061   9.113  13.971   0.043
52410SOL    HW159062   9.056  13.896   0.055
52410SOL    HW259063   9.176  13.965   0.114
52411SOL     OW59064   9.802   7.567   7.986
52411SOL    HW159065   9.856   7.646   7.988
52411SOL    HW259066   9.788   7.551   7.892
52412SOL     OW59067   4.458   2.637   4.876
52412SOL    HW159068   4.372   2.631   4.834
52412SOL    HW259069   4.450   2.583   4.955
52413SOL     OW59070   6.373   6.051   1.471
52413SOL    HW159071   6.311   6.104   1.521
52413SOL    HW259072   6.346   5.961   1.487
52414SOL     OW59073   1.286   3.760   6.444
52414SOL    HW159074   1.350   3.783   6.376
52414SOL    HW259075   1.323   3.683   6.486
52415SOL     OW59076   2.384   5.465  14.494
52415SOL    HW159077   2.333   5.524  14.549
52415SOL    HW259078   2.460   5.517  14.466
52416SOL     OW59079  10.295  12.651   2.998
52416SOL    HW159080  10.290  12.720   3.064
52416SOL    HW259081  10.208  12.648   2.958
52417SOL     OW59082   9.914   7.722   4.844
52417SOL    HW159083   9.887   7.799   4.795
52417SOL    HW259084   9.872   7.649   4.799
52418SOL     OW59085  13.902   4.614   8.330
52418SOL    HW159086  13.908   4.675   8.257
52418SOL    HW259087  13.973   4.552   8.316
52419SOL     OW59088   3.197   8.102  14.235
52419SOL    HW159089   3.290   8.121  14.246
52419SOL    HW259090   3.194   8.030  14.173
52420SOL     OW59091   6.757  13.732  13.233
52420SOL    HW159092   6.726  13.692  13.314
52420SOL    HW259093   6.833  13.784  13.259
52421SOL     OW59094  14.156  12.463   9.043
52421SOL    HW159095  14.105  12.466   8.962
52421SOL    HW259096  14.247  12.458   9.013
52422SOL     OW59097  13.259  11.583   0.366
52422SOL    HW159098  13.210  11.644   0.422
52422SOL    HW259099  13.191  11.535   0.319
52423SOL     OW59100   3.614  13.129   8.872
52423SOL    HW159101   3.607  13.044   8.829
52423SOL    HW259102   3.531  13.139   8.918
52424SOL     OW59103   4.972  10.875   2.490
52424SOL    HW159104   4.979  10.858   2.584
52424SOL    HW259105   5.008  10.796   2.449
52425SOL     OW59106   5.421   6.177   8.328
52425SOL    HW159107   5.333   6.215   8.328
52425SOL    HW259108   5.466   6.222   8.256
52426SOL     OW59109   4.951  13.272   4.585
52426SOL    HW159110   4.985  13.342   4.529
52426SOL    HW259111   4.871  13.243   4.541
52427SOL     OW59112   0.223   0.938   4.987
52427SOL    HW159113   0.210   0.845   4.969
52427SOL    HW259114   0.292   0.965   4.925
52428SOL     OW59115  13.326   4.990  13.560
52428SOL    HW159116  13.235   4.987  13.591
52428SOL    HW259117  13.325   5.057  13.491
52429SOL     OW59118  13.311   9.346   4.246
52429SOL    HW159119  13.217   9.361   4.253
52429SOL    HW259120  13.321   9.251   4.256
52430SOL     OW59121  11.680  13.342  11.694
52430SOL    HW159122  11.754  13.398  11.669
52430SOL    HW259123  11.678  13.273  11.627
52431SOL     OW59124  14.715   8.006   0.692
52431SOL    HW159125  14.797   7.982   0.735
52431SOL    HW259126  14.697   8.095   0.723
52432SOL     OW59127  11.023   4.966   4.513
52432SOL    HW159128  10.969   5.025   4.565
52432SOL    HW259129  11.096   4.943   4.570
52433SOL     OW59130  11.355  10.659  12.216
52433SOL    HW159131  11.448  10.664  12.239
52433SOL    HW259132  11.351  10.589  12.151
52434SOL     OW59133   2.110   7.288   9.394
52434SOL    HW159134   2.178   7.333   9.344
52434SOL    HW259135   2.157   7.221   9.443
52435SOL     OW59136   7.450   2.619   9.981
52435SOL    HW159137   7.409   2.555  10.039
52435SOL    HW259138   7.519   2.658  10.034
52436SOL     OW59139   0.027   0.070  10.595
52436SOL    HW159140   0.100   0.009  10.605
52436SOL    HW259141  14.839   0.024  10.540
52437SOL     OW59142   5.705  10.737   1.616
52437SOL    HW159143   5.618  10.705   1.639
52437SOL    HW259144   5.696  10.832   1.611
52438SOL     OW59145   2.020  12.550  14.867
52438SOL    HW159146   1.940  12.503   0.013
52438SOL    HW259147   2.088  12.508   0.045
52439SOL     OW59148   2.549   0.659   3.874
52439SOL    HW159149   2.608   0.611   3.816
52439SOL    HW259150   2.599   0.673   3.954
52440SOL     OW59151   4.726   3.019   9.978
52440SOL    HW159152   4.685   2.953   9.922
52440SOL    HW259153   4.756   2.970  10.055
52441SOL     OW59154   0.586   0.144   6.987
52441SOL    HW159155   0.518   0.187   6.936
52441SOL    HW259156   0.604   0.063   6.940
52442SOL     OW59157   6.430  14.485  13.805
52442SOL    HW159158   6.406  14.393  13.807
52442SOL    HW259159   6.400  14.520  13.889
52443SOL     OW59160   6.105  14.636  10.540
52443SOL    HW159161   6.014  14.625  10.569
52443SOL    HW259162   6.137  14.547  10.528
52444SOL     OW59163   3.210   8.996   2.153
52444SOL    HW159164   3.288   9.029   2.199
52444SOL    HW259165   3.164   9.075   2.125
52445SOL     OW59166   5.910   2.787   1.919
52445SOL    HW159167   5.980   2.793   1.854
52445SOL    HW259168   5.829   2.788   1.868
52446SOL     OW59169   0.855   7.480  12.182
52446SOL    HW159170   0.803   7.474  12.263
52446SOL    HW259171   0.941   7.511  12.211
52447SOL     OW59172  10.333   2.919   9.571
52447SOL    HW159173  10.283   2.885   9.645
52447SOL    HW259174  10.386   2.989   9.609
52448SOL     OW59175  14.307   7.053   5.605
52448SOL    HW159176  14.367   6.990   5.644
52448SOL    HW259177  14.363   7.126   5.578
52449SOL     OW59178   4.086   9.753   9.567
52449SOL    HW159179   4.014   9.770   9.505
52449SOL    HW259180   4.154   9.816   9.543
52450SOL     OW59181   7.971  12.890   3.472
52450SOL    HW159182   8.001  12.818   3.417
52450SOL    HW259183   7.911  12.940   3.416
52451SOL     OW59184   9.080   3.129   8.852
52451SOL    HW159185   9.122   3.116   8.938
52451SOL    HW259186   9.140   3.186   8.805
52452SOL     OW59187   8.245   3.350   1.914
52452SOL    HW159188   8.265   3.259   1.935
52452SOL    HW259189   8.215   3.348   1.823
52453SOL     OW59190   7.969  11.155  12.622
52453SOL    HW159191   8.052  11.158  12.575
52453SOL    HW259192   7.911  11.214  12.574
52454SOL     OW59193   3.400  14.792   4.607
52454SOL    HW159194   3.308  14.774   4.630
52454SOL    HW259195   3.419  14.876   4.649
52455SOL     OW59196  13.639   4.633   3.623
52455SOL    HW159197  13.585   4.568   3.667
52455SOL    HW259198  13.620   4.715   3.668
52456SOL     OW59199   6.065  13.644  12.465
52456SOL    HW159200   6.116  13.721  12.491
52456SOL    HW259201   6.121  13.598  12.403
52457SOL     OW59202   9.793   4.971  10.214
52457SOL    HW159203   9.800   4.890  10.264
52457SOL    HW259204   9.741   4.948  10.137
52458SOL     OW59205   6.484   8.727   0.838
52458SOL    HW159206   6.420   8.727   0.767
52458SOL    HW259207   6.521   8.639   0.838
52459SOL     OW59208   9.686   5.040  10.653
52459SOL    HW159209   9.724   4.980  10.718
52459SOL    HW259210   9.758   5.098  10.629
52460SOL     OW59211   9.007  13.490  12.911
52460SOL    HW159212   9.007  13.554  12.982
52460SOL    HW259213   8.937  13.429  12.934
52461SOL     OW59214   2.972   9.678   7.867
52461SOL    HW159215   2.880   9.704   7.877
52461SOL    HW259216   2.976   9.637   7.781
52462SOL     OW59217   5.109  12.700   1.992
52462SOL    HW159218   5.124  12.733   2.081
52462SOL    HW259219   5.067  12.615   2.004
52463SOL     OW59220   9.303   5.378   8.665
52463SOL    HW159221   9.341   5.448   8.611
52463SOL    HW259222   9.361   5.372   8.741
52464SOL     OW59223   3.206   5.318   8.242
52464SOL    HW159224   3.228   5.350   8.330
52464SOL    HW259225   3.291   5.314   8.197
52465SOL     OW59226   6.280   2.153   2.623
52465SOL    HW159227   6.276   2.058   2.614
52465SOL    HW259228   6.310   2.168   2.712
52466SOL     OW59229  13.757  10.200   3.960
52466SOL    HW159230  13.682  10.227   3.907
52466SOL    HW259231  13.833  10.221   3.905
52467SOL     OW59232  11.577  13.900   9.598
52467SOL    HW159233  11.662  13.942   9.589
52467SOL    HW259234  11.582  13.855   9.682
52468SOL     OW59235  12.167   3.073   3.154
52468SOL    HW159236  12.125   3.140   3.208
52468SOL    HW259237  12.181   3.000   3.214
52469SOL     OW59238   8.124   4.274  10.448
52469SOL    HW159239   8.132   4.210  10.518
52469SOL    HW259240   8.103   4.222  10.370
52470SOL     OW59241   2.739   2.391   2.091
52470SOL    HW159242   2.726   2.448   2.166
52470SOL    HW259243   2.802   2.437   2.035
52471SOL     OW59244   9.110   3.195   0.675
52471SOL    HW159245   9.023   3.204   0.714
52471SOL    HW259246   9.103   3.239   0.590
52472SOL     OW59247   7.150   0.716   6.130
52472SOL    HW159248   7.133   0.754   6.216
52472SOL    HW259249   7.191   0.631   6.150
52473SOL     OW59250   8.237  14.722   7.915
52473SOL    HW159251   8.201  14.649   7.964
52473SOL    HW259252   8.329  14.702   7.904
52474SOL     OW59253   3.635  13.364   9.808
52474SOL    HW159254   3.708  13.415   9.774
52474SOL    HW259255   3.605  13.414   9.884
52475SOL     OW59256   1.685   9.429   2.618
52475SOL    HW159257   1.765   9.478   2.638
52475SOL    HW259258   1.711   9.337   2.624
52476SOL     OW59259   8.109  14.448   9.714
52476SOL    HW159260   8.082  14.463   9.623
52476SOL    HW259261   8.118  14.536   9.751
52477SOL     OW59262   8.611   0.899   8.466
52477SOL    HW159263   8.648   0.906   8.554
52477SOL    HW259264   8.625   0.808   8.441
52478SOL     OW59265   1.088   0.786   9.186
52478SOL    HW159266   1.086   0.738   9.103
52478SOL    HW259267   1.075   0.878   9.161
52479SOL     OW59268  11.898   6.954   7.170
52479SOL    HW159269  11.937   7.006   7.240
52479SOL    HW259270  11.854   7.018   7.114
52480SOL     OW59271   4.981  11.222   2.972
52480SOL    HW159272   5.072  11.249   2.959
52480SOL    HW259273   4.987  11.133   3.005
52481SOL     OW59274   5.134   0.030   1.370
52481SOL    HW159275   5.224   0.005   1.354
52481SOL    HW259276   5.083  14.862   1.302
52482SOL     OW59277  13.720  14.582   7.602
52482SOL    HW159278  13.739  14.666   7.561
52482SOL    HW259279  13.669  14.534   7.536
52483SOL     OW59280   5.319  12.838   3.115
52483SOL    HW159281   5.273  12.857   3.033
52483SOL    HW259282   5.249  12.822   3.179
52484SOL     OW59283  14.062   2.212   0.025
52484SOL    HW159284  14.129   2.272   0.057
52484SOL    HW259285  14.083   2.128   0.067
52485SOL     OW59286   6.110   8.441  12.479
52485SOL    HW159287   6.046   8.389  12.430
52485SOL    HW259288   6.187   8.444  12.422
52486SOL     OW59289  10.206   5.302   0.836
52486SOL    HW159290  10.281   5.354   0.865
52486SOL    HW259291  10.240   5.213   0.827
52487SOL     OW59292  12.609   2.873   6.711
52487SOL    HW159293  12.565   2.936   6.768
52487SOL    HW259294  12.693   2.913   6.691
52488SOL     OW59295  10.704   7.222   2.417
52488SOL    HW159296  10.635   7.234   2.352
52488SOL    HW259297  10.733   7.311   2.437
52489SOL     OW59298  14.433  12.637   8.648
52489SOL    HW159299  14.364  12.654   8.584
52489SOL    HW259300  14.404  12.683   8.727
52490SOL     OW59301   8.651   0.677   1.387
52490SOL    HW159302   8.691   0.764   1.390
52490SOL    HW259303   8.558   0.694   1.370
52491SOL     OW59304   0.907  10.252  13.251
52491SOL    HW159305   0.916  10.315  13.322
52491SOL    HW259306   0.995  10.242  13.215
52492SOL     OW59307   8.368   8.631  10.497
52492SOL    HW159308   8.304   8.678  10.443
52492SOL    HW259309   8.337   8.641  10.586
52493SOL     OW59310   1.210   3.257   3.385
52493SOL    HW159311   1.151   3.320   3.344
52493SOL    HW259312   1.278   3.311   3.426
52494SOL     OW59313   8.791   2.969   5.479
52494SOL    HW159314   8.768   3.054   5.442
52494SOL    HW259315   8.856   2.989   5.547
52495SOL     OW59316   8.758   5.344   3.273
52495SOL    HW159317   8.772   5.381   3.361
52495SOL    HW259318   8.695   5.402   3.232
52496SOL     OW59319  10.311  14.236   7.509
52496SOL    HW159320  10.244  14.289   7.466
52496SOL    HW259321  10.262  14.172   7.561
52497SOL     OW59322   4.273   8.901   6.253
52497SOL    HW159323   4.306   8.986   6.224
52497SOL    HW259324   4.208   8.922   6.320
52498SOL     OW59325   5.195  11.024  11.700
52498SOL    HW159326   5.229  10.983  11.780
52498SOL    HW259327   5.273  11.054  11.654
52499SOL     OW59328   0.660   0.958   0.628
52499SOL    HW159329   0.624   0.999   0.707
52499SOL    HW259330   0.725   1.021   0.596
52500SOL     OW59331  11.705   1.677   9.168
52500SOL    HW159332  11.624   1.710   9.128
52500SOL    HW259333  11.760   1.653   9.094
52501SOL     OW59334  13.582   0.948   9.750
52501SOL    HW159335  13.677   0.941   9.755
52501SOL    HW259336  13.566   1.034   9.711
52502SOL     OW59337   1.889   7.190   2.373
52502SOL    HW159338   1.811   7.169   2.425
52502SOL    HW259339   1.885   7.284   2.361
52503SOL     OW59340  10.289   8.957   8.765
52503SOL    HW159341  10.311   9.002   8.846
52503SOL    HW259342  10.299   8.864   8.785
52504SOL     OW59343   6.661  12.314   0.053
52504SOL    HW159344   6.686  12.363  14.851
52504SOL    HW259345   6.686  12.224   0.034
52505SOL     OW59346  14.108   1.134   0.868
52505SOL    HW159347  14.174   1.137   0.799
52505SOL    HW259348  14.025   1.149   0.823
52506SOL     OW59349  13.557  10.499   3.563
52506SOL    HW159350  13.519  10.489   3.475
52506SOL    HW259351  13.559  10.593   3.577
52507SOL     OW59352   3.267   7.704  12.690
52507SOL    HW159353   3.283   7.787  12.645
52507SOL    HW259354   3.176   7.683  12.671
52508SOL     OW59355  13.140  13.218  13.682
52508SOL    HW159356  13.139  13.123  13.689
52508SOL    HW259357  13.190  13.236  13.602
52509SOL     OW59358  12.323   9.006   6.829
52509SOL    HW159359  12.244   8.953   6.829
52509SOL    HW259360  12.307   9.073   6.896
52510SOL     OW59361   2.206   5.549   1.454
52510SOL    HW159362   2.267   5.612   1.492
52510SOL    HW259363   2.155   5.517   1.528
52511SOL     OW59364   6.697   1.153  12.227
52511SOL    HW159365   6.746   1.075  12.201
52511SOL    HW259366   6.628   1.161  12.161
52512SOL     OW59367  10.828   5.664   5.213
52512SOL    HW159368  10.747   5.697   5.174
52512SOL    HW259369  10.802   5.629   5.298
52513SOL     OW59370   1.235   5.276   5.589
52513SOL    HW159371   1.174   5.345   5.612
52513SOL    HW259372   1.202   5.242   5.505
52514SOL     OW59373   3.540   5.165   7.910
52514SOL    HW159374   3.560   5.073   7.930
52514SOL    HW259375   3.523   5.166   7.816
52515SOL     OW59376   1.280   2.501   1.678
52515SOL    HW159377   1.319   2.561   1.615
52515SOL    HW259378   1.353   2.476   1.735
52516SOL     OW59379   9.073  12.206  11.640
52516SOL    HW159380   8.978  12.198  11.647
52516SOL    HW259381   9.095  12.152  11.564
52517SOL     OW59382   4.921  10.304   9.489
52517SOL    HW159383   4.954  10.215   9.500
52517SOL    HW259384   4.839  10.293   9.441
52518SOL     OW59385  13.372  10.493   4.412
52518SOL    HW159386  13.292  10.522   4.368
52518SOL    HW259387  13.350  10.494   4.505
52519SOL     OW59388   8.016  11.864   4.444
52519SOL    HW159389   8.094  11.893   4.493
52519SOL    HW259390   8.005  11.931   4.376
52520SOL     OW59391   1.003   2.740   8.213
52520SOL    HW159392   0.922   2.735   8.163
52520SOL    HW259393   1.067   2.692   8.160
52521SOL     OW59394   1.922   7.082   9.404
52521SOL    HW159395   1.988   7.151   9.401
52521SOL    HW259396   1.879   7.094   9.489
52522SOL     OW59397  10.962   7.449  11.499
52522SOL    HW159398  11.018   7.380  11.464
52522SOL    HW259399  10.946   7.423  11.589
52523SOL     OW59400   2.621   8.880   8.660
52523SOL    HW159401   2.657   8.968   8.649
52523SOL    HW259402   2.538   8.882   8.612
52524SOL     OW59403  12.545   6.514   8.374
52524SOL    HW159404  12.614   6.535   8.436
52524SOL    HW259405  12.464   6.535   8.421
52525SOL     OW59406   2.069   6.236   2.428
52525SOL    HW159407   2.137   6.180   2.392
52525SOL    HW259408   2.011   6.177   2.475
52526SOL     OW59409  11.981   3.070   1.254
52526SOL    HW159410  11.997   3.148   1.307
52526SOL    HW259411  12.028   3.087   1.172
52527SOL     OW59412  14.793   3.979   9.305
52527SOL    HW159413  14.770   3.910   9.367
52527SOL    HW259414  14.729   3.970   9.233
52528SOL     OW59415  14.681   2.185  13.718
52528SOL    HW159416  14.763   2.138  13.732
52528SOL    HW259417  14.623   2.153  13.787
52529SOL     OW59418   4.470   2.402   2.409
52529SOL    HW159419   4.389   2.430   2.367
52529SOL    HW259420   4.455   2.310   2.430
52530SOL     OW59421  13.763   4.651   8.919
52530SOL    HW159422  13.792   4.729   8.967
52530SOL    HW259423  13.825   4.643   8.847
52531SOL     OW59424   8.585   6.407  10.239
52531SOL    HW159425   8.680   6.399  10.253
52531SOL    HW259426   8.570   6.362  10.155
52532SOL     OW59427   7.122   7.777  12.929
52532SOL    HW159428   7.200   7.734  12.965
52532SOL    HW259429   7.080   7.818  13.004
52533SOL     OW59430   8.559   3.935   0.253
52533SOL    HW159431   8.464   3.919   0.260
52533SOL    HW259432   8.568   3.995   0.180
52534SOL     OW59433   7.221   8.113  14.023
52534SOL    HW159434   7.154   8.062  14.069
52534SOL    HW259435   7.304   8.079  14.056
52535SOL     OW59436   6.365  13.443  13.577
52535SOL    HW159437   6.353  13.530  13.615
52535SOL    HW259438   6.321  13.448  13.492
52536SOL     OW59439   3.101   3.942  12.917
52536SOL    HW159440   3.141   4.020  12.879
52536SOL    HW259441   3.028   3.975  12.969
52537SOL     OW59442   7.487   8.472   9.736
52537SOL    HW159443   7.497   8.397   9.678
52537SOL    HW259444   7.461   8.435   9.820
52538SOL     OW59445   7.972   3.128  11.638
52538SOL    HW159446   8.053   3.169  11.670
52538SOL    HW259447   8.002   3.056  11.582
52539SOL     OW59448   1.476   8.366   7.673
52539SOL    HW159449   1.487   8.336   7.763
52539SOL    HW259450   1.392   8.412   7.673
52540SOL     OW59451   7.532   8.203  10.820
52540SOL    HW159452   7.485   8.140  10.764
52540SOL    HW259453   7.563   8.270  10.759
52541SOL     OW59454  10.859   4.183  10.428
52541SOL    HW159455  10.793   4.249  10.406
52541SOL    HW259456  10.879   4.199  10.520
52542SOL     OW59457   8.146   3.024   0.952
52542SOL    HW159458   8.070   3.070   0.918
52542SOL    HW259459   8.111   2.968   1.022
52543SOL     OW59460   3.690   9.832   5.536
52543SOL    HW159461   3.679   9.740   5.516
52543SOL    HW259462   3.687   9.876   5.451
52544SOL     OW59463   9.101  12.526   0.281
52544SOL    HW159464   9.075  12.576   0.204
52544SOL    HW259465   9.050  12.565   0.353
52545SOL     OW59466   8.734   2.976   9.119
52545SOL    HW159467   8.705   3.052   9.169
52545SOL    HW259468   8.653   2.928   9.100
52546SOL     OW59469   7.863   1.466   9.861
52546SOL    HW159470   7.945   1.428   9.830
52546SOL    HW259471   7.796   1.401   9.838
52547SOL     OW59472   9.041  14.500  13.694
52547SOL    HW159473   9.096  14.535  13.624
52547SOL    HW259474   8.952  14.500  13.657
52548SOL     OW59475   4.462   0.643  10.604
52548SOL    HW159476   4.505   0.690  10.533
52548SOL    HW259477   4.498   0.681  10.684
52549SOL     OW59478   7.387   9.816  11.995
52549SOL    HW159479   7.463   9.863  11.962
52549SOL    HW259480   7.312   9.861  11.957
52550SOL     OW59481   3.574   5.389   0.706
52550SOL    HW159482   3.614   5.379   0.619
52550SOL    HW259483   3.480   5.381   0.690
52551SOL     OW59484  12.190   5.489   2.473
52551SOL    HW159485  12.156   5.526   2.554
52551SOL    HW259486  12.130   5.418   2.451
52552SOL     OW59487   7.459   7.923  13.989
52552SOL    HW159488   7.383   7.869  13.967
52552SOL    HW259489   7.507   7.872  14.054
52553SOL     OW59490   3.359   9.543   7.922
52553SOL    HW159491   3.388   9.495   7.844
52553SOL    HW259492   3.377   9.635   7.901
52554SOL     OW59493   6.121  10.251   7.222
52554SOL    HW159494   6.169  10.259   7.305
52554SOL    HW259495   6.055  10.184   7.239
52555SOL     OW59496   3.315   0.806  10.762
52555SOL    HW159497   3.231   0.785  10.723
52555SOL    HW259498   3.368   0.839  10.689
52556SOL     OW59499   9.292  12.570   9.195
52556SOL    HW159500   9.275  12.561   9.101
52556SOL    HW259501   9.316  12.483   9.224
52557SOL     OW59502   9.711  10.189   3.416
52557SOL    HW159503   9.672  10.113   3.373
52557SOL    HW259504   9.651  10.210   3.487
52558SOL     OW59505  14.751   0.061  11.685
52558SOL    HW159506  14.678   0.004  11.663
52558SOL    HW259507  14.798   0.072  11.602
52559SOL     OW59508   0.765   5.804   1.795
52559SOL    HW159509   0.786   5.892   1.762
52559SOL    HW259510   0.684   5.816   1.844
52560SOL     OW59511   3.043   2.352  11.844
52560SOL    HW159512   3.116   2.347  11.905
52560SOL    HW259513   3.049   2.440  11.806
52561SOL     OW59514   0.818  12.079  11.079
52561SOL    HW159515   0.749  12.135  11.114
52561SOL    HW259516   0.899  12.127  11.096
52562SOL     OW59517   2.425   9.642  12.038
52562SOL    HW159518   2.348   9.591  12.014
52562SOL    HW259519   2.417   9.654  12.133
52563SOL     OW59520  11.485  12.717   7.202
52563SOL    HW159521  11.528  12.633   7.187
52563SOL    HW259522  11.554  12.772   7.240
52564SOL     OW59523  11.909  11.349   4.612
52564SOL    HW159524  11.990  11.300   4.625
52564SOL    HW259525  11.851  11.319   4.682
52565SOL     OW59526  10.025   4.818  10.111
52565SOL    HW159527   9.975   4.895  10.135
52565SOL    HW259528  10.108   4.852  10.077
52566SOL     OW59529   4.951  14.309   7.717
52566SOL    HW159530   4.925  14.228   7.762
52566SOL    HW259531   4.996  14.279   7.639
52567SOL     OW59532   0.470  14.050   8.291
52567SOL    HW159533   0.434  14.118   8.235
52567SOL    HW259534   0.475  14.090   8.378
52568SOL     OW59535  11.914   9.526  12.801
52568SOL    HW159536  11.832   9.478  12.811
52568SOL    HW259537  11.923   9.576  12.882
52569SOL     OW59538   5.909   1.032  13.543
52569SOL    HW159539   5.917   1.111  13.596
52569SOL    HW259540   5.834   0.986  13.581
52570SOL     OW59541   4.845   8.676   9.903
52570SOL    HW159542   4.832   8.771   9.893
52570SOL    HW259543   4.777   8.636   9.850
52571SOL     OW59544   6.978   5.614   8.484
52571SOL    HW159545   6.971   5.601   8.389
52571SOL    HW259546   7.062   5.573   8.507
52572SOL     OW59547   8.867   7.075   9.295
52572SOL    HW159548   8.887   7.154   9.345
52572SOL    HW259549   8.935   7.072   9.228
52573SOL     OW59550   9.260  10.912   3.998
52573SOL    HW159551   9.174  10.922   4.039
52573SOL    HW259552   9.247  10.940   3.907
52574SOL     OW59553  10.835   1.867   3.104
52574SOL    HW159554  10.885   1.786   3.112
52574SOL    HW259555  10.751   1.840   3.066
52575SOL     OW59556   7.456   9.193  10.119
52575SOL    HW159557   7.424   9.126  10.059
52575SOL    HW259558   7.439   9.157  10.206
52576SOL     OW59559   6.617   2.937   2.375
52576SOL    HW159560   6.560   3.014   2.383
52576SOL    HW259561   6.697   2.961   2.421
52577SOL     OW59562   2.071   5.600   6.354
52577SOL    HW159563   2.030   5.515   6.339
52577SOL    HW259564   2.050   5.651   6.275
52578SOL     OW59565   1.479  13.532   8.656
52578SOL    HW159566   1.384  13.523   8.646
52578SOL    HW259567   1.508  13.446   8.686
52579SOL     OW59568   2.450  12.566  13.137
52579SOL    HW159569   2.378  12.504  13.143
52579SOL    HW259570   2.522  12.525  13.185
52580SOL     OW59571   4.168   5.893   9.854
52580SOL    HW159572   4.218   5.974   9.843
52580SOL    HW259573   4.200   5.835   9.786
52581SOL     OW59574   1.870   6.660   6.313
52581SOL    HW159575   1.942   6.711   6.350
52581SOL    HW259576   1.801   6.724   6.296
52582SOL     OW59577   4.676   4.623   3.237
52582SOL    HW159578   4.702   4.648   3.149
52582SOL    HW259579   4.756   4.587   3.276
52583SOL     OW59580   4.065   3.406   7.352
52583SOL    HW159581   4.125   3.339   7.318
52583SOL    HW259582   4.059   3.388   7.446
52584SOL     OW59583   6.666   6.730  11.494
52584SOL    HW159584   6.699   6.817  11.515
52584SOL    HW259585   6.571   6.740  11.496
52585SOL     OW59586   2.022   7.563  10.828
52585SOL    HW159587   2.052   7.570  10.918
52585SOL    HW259588   1.995   7.651  10.804
52586SOL     OW59589   2.408   3.610   7.877
52586SOL    HW159590   2.328   3.605   7.929
52586SOL    HW259591   2.380   3.645   7.793
52587SOL     OW59592  10.916   2.516   8.211
52587SOL    HW159593  10.849   2.576   8.244
52587SOL    HW259594  10.934   2.546   8.122
52588SOL     OW59595   1.139  13.582   2.802
52588SOL    HW159596   1.128  13.674   2.825
52588SOL    HW259597   1.068  13.537   2.846
52589SOL     OW59598   7.816  11.247  11.184
52589SOL    HW159599   7.829  11.234  11.090
52589SOL    HW259600   7.795  11.160  11.218
52590SOL     OW59601   8.638   9.302  10.488
52590SOL    HW159602   8.609   9.214  10.514
52590SOL    HW259603   8.576   9.361  10.530
52591SOL     OW59604   0.540   3.720   4.290
52591SOL    HW159605   0.571   3.810   4.287
52591SOL    HW259606   0.556   3.692   4.380
52592SOL     OW59607  13.702   6.158   4.751
52592SOL    HW159608  13.696   6.063   4.737
52592SOL    HW259609  13.764   6.168   4.823
52593SOL     OW59610   5.303   1.103   7.290
52593SOL    HW159611   5.267   1.085   7.377
52593SOL    HW259612   5.226   1.109   7.233
52594SOL     OW59613   4.216   4.685  14.052
52594SOL    HW159614   4.241   4.667  14.143
52594SOL    HW259615   4.126   4.719  14.058
52595SOL     OW59616  12.140  13.935   0.806
52595SOL    HW159617  12.064  13.991   0.821
52595SOL    HW259618  12.117  13.883   0.729
52596SOL     OW59619   6.534   1.747   4.620
52596SOL    HW159620   6.610   1.694   4.645
52596SOL    HW259621   6.567   1.803   4.550
52597SOL     OW59622  11.309  13.865   2.629
52597SOL    HW159623  11.383  13.916   2.662
52597SOL    HW259624  11.319  13.779   2.670
52598SOL     OW59625   3.606  12.455  12.410
52598SOL    HW159626   3.677  12.475  12.349
52598SOL    HW259627   3.644  12.471  12.496
52599SOL     OW59628  14.258  12.038   5.114
52599SOL    HW159629  14.241  12.024   5.207
52599SOL    HW259630  14.305  12.121   5.110
52600SOL     OW59631   0.217  11.294  11.945
52600SOL    HW159632   0.291  11.237  11.965
52600SOL    HW259633   0.220  11.306  11.850
52601SOL     OW59634  14.025   2.571   2.382
52601SOL    HW159635  14.008   2.613   2.466
52601SOL    HW259636  14.071   2.637   2.330
52602SOL     OW59637  12.492   3.180  11.979
52602SOL    HW159638  12.471   3.228  11.899
52602SOL    HW259639  12.588   3.176  11.980
52603SOL     OW59640  10.707   2.353  12.603
52603SOL    HW159641  10.742   2.340  12.691
52603SOL    HW259642  10.710   2.266  12.562
52604SOL     OW59643   0.746   3.113  13.718
52604SOL    HW159644   0.769   3.100  13.810
52604SOL    HW259645   0.801   3.186  13.689
52605SOL     OW59646   4.135  11.999   2.522
52605SOL    HW159647   4.121  11.910   2.491
52605SOL    HW259648   4.100  12.055   2.453
52606SOL     OW59649   1.579   5.128   0.740
52606SOL    HW159650   1.660   5.076   0.742
52606SOL    HW259651   1.511   5.068   0.771
52607SOL     OW59652   6.026   9.329  11.243
52607SOL    HW159653   6.020   9.306  11.336
52607SOL    HW259654   5.942   9.301  11.206
52608SOL     OW59655   8.096  13.126   2.840
52608SOL    HW159656   8.078  13.123   2.933
52608SOL    HW259657   8.049  13.203   2.808
52609SOL     OW59658  12.554   7.991   2.691
52609SOL    HW159659  12.585   8.007   2.602
52609SOL    HW259660  12.509   8.072   2.715
52610SOL     OW59661   7.034   1.247   0.989
52610SOL    HW159662   7.077   1.258   1.074
52610SOL    HW259663   6.941   1.236   1.011
52611SOL     OW59664  12.520  14.722   7.629
52611SOL    HW159665  12.524  14.775   7.550
52611SOL    HW259666  12.445  14.664   7.614
52612SOL     OW59667  11.398  14.043   0.882
52612SOL    HW159668  11.451  14.012   0.809
52612SOL    HW259669  11.440  14.006   0.960
52613SOL     OW59670  12.994  12.958  12.950
52613SOL    HW159671  12.930  13.027  12.932
52613SOL    HW259672  12.960  12.882  12.903
52614SOL     OW59673   9.848   4.666  11.477
52614SOL    HW159674   9.768   4.642  11.523
52614SOL    HW259675   9.912   4.684  11.546
52615SOL     OW59676  13.705   6.310   8.200
52615SOL    HW159677  13.672   6.367   8.130
52615SOL    HW259678  13.645   6.325   8.273
52616SOL     OW59679   6.685  14.472  10.532
52616SOL    HW159680   6.625  14.424  10.473
52616SOL    HW259681   6.751  14.509  10.474
52617SOL     OW59682  13.049  10.820   8.343
52617SOL    HW159683  13.024  10.912   8.354
52617SOL    HW259684  12.971  10.778   8.306
52618SOL     OW59685   2.624   7.108  12.561
52618SOL    HW159686   2.559   7.132  12.627
52618SOL    HW259687   2.629   7.012  12.567
52619SOL     OW59688   2.531  13.809   3.792
52619SOL    HW159689   2.570  13.847   3.870
52619SOL    HW259690   2.439  13.833   3.797
52620SOL     OW59691  14.644   6.216  12.491
52620SOL    HW159692  14.612   6.227  12.581
52620SOL    HW259693  14.739   6.215  12.499
52621SOL     OW59694   8.415   0.047  14.200
52621SOL    HW159695   8.371   0.124  14.164
52621SOL    HW259696   8.508   0.070  14.200
52622SOL     OW59697  11.088   8.085   7.760
52622SOL    HW159698  11.015   8.092   7.822
52622SOL    HW259699  11.063   8.141   7.687
52623SOL     OW59700  11.413  11.965   7.957
52623SOL    HW159701  11.406  11.914   8.038
52623SOL    HW259702  11.371  11.910   7.891
52624SOL     OW59703   4.460  13.657   0.059
52624SOL    HW159704   4.371  13.637   0.086
52624SOL    HW259705   4.468  13.619  14.847
52625SOL     OW59706  10.852   1.323  10.580
52625SOL    HW159707  10.804   1.302  10.500
52625SOL    HW259708  10.790   1.306  10.651
52626SOL     OW59709  13.279   1.168   1.313
52626SOL    HW159710  13.304   1.137   1.400
52626SOL    HW259711  13.278   1.090   1.258
52627SOL     OW59712  14.283   7.196   9.575
52627SOL    HW159713  14.350   7.264   9.570
52627SOL    HW259714  14.294   7.146   9.494
52628SOL     OW59715  14.861   8.600   2.879
52628SOL    HW159716   0.065   8.598   2.825
52628SOL    HW259717  14.805   8.532   2.841
52629SOL     OW59718   8.894   5.400   4.876
52629SOL    HW159719   8.812   5.420   4.921
52629SOL    HW259720   8.889   5.449   4.794
52630SOL     OW59721  12.650   8.319   3.421
52630SOL    HW159722  12.689   8.345   3.338
52630SOL    HW259723  12.572   8.373   3.429
52631SOL     OW59724   4.381   9.896   2.460
52631SOL    HW159725   4.350   9.959   2.524
52631SOL    HW259726   4.390   9.814   2.508
52632SOL     OW59727  13.168   0.074  10.269
52632SOL    HW159728  13.189   0.052  10.360
52632SOL    HW259729  13.149   0.168  10.272
52633SOL     OW59730   8.441   8.949   2.985
52633SOL    HW159731   8.391   9.007   2.927
52633SOL    HW259732   8.528   8.947   2.947
52634SOL     OW59733   3.821   8.700   6.606
52634SOL    HW159734   3.883   8.721   6.536
52634SOL    HW259735   3.848   8.613   6.636
52635SOL     OW59736   2.389   1.894   8.556
52635SOL    HW159737   2.321   1.961   8.557
52635SOL    HW259738   2.467   1.940   8.525
52636SOL     OW59739   6.593  10.208   5.017
52636SOL    HW159740   6.584  10.254   5.101
52636SOL    HW259741   6.568  10.118   5.036
52637SOL     OW59742  11.913   3.267   2.802
52637SOL    HW159743  11.862   3.282   2.882
52637SOL    HW259744  11.879   3.330   2.739
52638SOL     OW59745  10.516   7.419   8.986
52638SOL    HW159746  10.538   7.437   8.895
52638SOL    HW259747  10.599   7.428   9.033
52639SOL     OW59748  12.128  11.528  12.512
52639SOL    HW159749  12.121  11.611  12.558
52639SOL    HW259750  12.221  11.520  12.490
52640SOL     OW59751   9.416   7.514   3.157
52640SOL    HW159752   9.460   7.542   3.238
52640SOL    HW259753   9.403   7.595   3.107
52641SOL     OW59754   0.228   7.542   5.378
52641SOL    HW159755   0.266   7.625   5.407
52641SOL    HW259756   0.190   7.504   5.458
52642SOL     OW59757  11.664   3.127  13.220
52642SOL    HW159758  11.691   3.216  13.243
52642SOL    HW259759  11.574   3.135  13.191
52643SOL     OW59760   8.447   0.002  11.975
52643SOL    HW159761   8.459  14.814  11.904
52643SOL    HW259762   8.354  14.870  11.998
52644SOL     OW59763   3.799   0.390   2.455
52644SOL    HW159764   3.760   0.361   2.372
52644SOL    HW259765   3.741   0.353   2.522
52645SOL     OW59766   9.959   2.905   4.447
52645SOL    HW159767  10.045   2.925   4.411
52645SOL    HW259768   9.954   2.810   4.448
52646SOL     OW59769   4.786   1.178   1.083
52646SOL    HW159770   4.760   1.087   1.098
52646SOL    HW259771   4.878   1.182   1.111
52647SOL     OW59772   7.609   1.337   2.477
52647SOL    HW159773   7.528   1.286   2.479
52647SOL    HW259774   7.583   1.422   2.442
52648SOL     OW59775  13.931   7.867  14.621
52648SOL    HW159776  13.839   7.840  14.624
52648SOL    HW259777  13.964   7.828  14.540
52649SOL     OW59778   6.405   2.722   9.289
52649SOL    HW159779   6.469   2.683   9.349
52649SOL    HW259780   6.336   2.755   9.346
52650SOL     OW59781   2.475   2.759   6.458
52650SOL    HW159782   2.425   2.802   6.528
52650SOL    HW259783   2.495   2.830   6.396
52651SOL     OW59784  10.514   1.209   9.937
52651SOL    HW159785  10.549   1.190  10.024
52651SOL    HW259786  10.435   1.260   9.954
52652SOL     OW59787  13.164   1.474  12.266
52652SOL    HW159788  13.219   1.457  12.190
52652SOL    HW259789  13.110   1.549  12.241
52653SOL     OW59790   0.659   9.265   9.136
52653SOL    HW159791   0.616   9.225   9.212
52653SOL    HW259792   0.703   9.342   9.170
52654SOL     OW59793   8.150   2.551   8.023
52654SOL    HW159794   8.226   2.573   7.969
52654SOL    HW259795   8.126   2.633   8.066
52655SOL     OW59796   8.684  10.793   5.894
52655SOL    HW159797   8.679  10.699   5.875
52655SOL    HW259798   8.741  10.799   5.970
52656SOL     OW59799   8.292   2.251   8.284
52656SOL    HW159800   8.271   2.158   8.285
52656SOL    HW259801   8.214   2.294   8.320
52657SOL     OW59802   8.239   6.555  10.821
52657SOL    HW159803   8.145   6.564  10.805
52657SOL    HW259804   8.248   6.471  10.867
52658SOL     OW59805  12.130  12.850  11.499
52658SOL    HW159806  12.115  12.931  11.451
52658SOL    HW259807  12.215  12.862  11.540
52659SOL     OW59808   2.163   2.096   0.543
52659SOL    HW159809   2.151   2.177   0.493
52659SOL    HW259810   2.142   2.120   0.634
52660SOL     OW59811   3.680   4.762   6.286
52660SOL    HW159812   3.686   4.680   6.335
52660SOL    HW259813   3.613   4.746   6.220
52661SOL     OW59814   1.991  11.618   9.022
52661SOL    HW159815   1.962  11.527   9.030
52661SOL    HW259816   1.921  11.662   8.975
52662SOL     OW59817   8.145  13.415   3.039
52662SOL    HW159818   8.078  13.476   3.008
52662SOL    HW259819   8.103  13.370   3.113
52663SOL     OW59820   4.964   6.005  12.984
52663SOL    HW159821   4.972   5.931  13.044
52663SOL    HW259822   4.943   6.079  13.040
52664SOL     OW59823   9.692  12.835   5.084
52664SOL    HW159824   9.715  12.926   5.067
52664SOL    HW259825   9.739  12.785   5.016
52665SOL     OW59826   6.602  10.550   8.330
52665SOL    HW159827   6.640  10.571   8.416
52665SOL    HW259828   6.529  10.612   8.321
52666SOL     OW59829   8.211   9.332   3.956
52666SOL    HW159830   8.278   9.392   3.990
52666SOL    HW259831   8.241   9.245   3.981
52667SOL     OW59832   2.048   0.111   7.655
52667SOL    HW159833   2.136   0.101   7.692
52667SOL    HW259834   2.002   0.169   7.716
52668SOL     OW59835   0.978  14.322   2.787
52668SOL    HW159836   0.935  14.372   2.718
52668SOL    HW259837   0.958  14.369   2.868
52669SOL     OW59838   1.046   2.659   8.955
52669SOL    HW159839   1.122   2.710   8.984
52669SOL    HW259840   1.015   2.704   8.876
52670SOL     OW59841   4.632   1.034   5.645
52670SOL    HW159842   4.717   1.074   5.664
52670SOL    HW259843   4.617   1.052   5.552
52671SOL     OW59844  14.645   3.871   6.195
52671SOL    HW159845  14.563   3.891   6.240
52671SOL    HW259846  14.619   3.815   6.121
52672SOL     OW59847  13.870   3.730   0.039
52672SOL    HW159848  13.941   3.708  14.856
52672SOL    HW259849  13.824   3.802  14.872
52673SOL     OW59850  10.070  11.847   8.864
52673SOL    HW159851  10.020  11.840   8.945
52673SOL    HW259852  10.037  11.776   8.809
52674SOL     OW59853   2.579  12.521   6.855
52674SOL    HW159854   2.535  12.584   6.912
52674SOL    HW259855   2.612  12.573   6.781
52675SOL     OW59856   0.101   2.908   7.240
52675SOL    HW159857   0.179   2.913   7.184
52675SOL    HW259858   0.084   2.998   7.266
52676SOL     OW59859   7.816  14.291   3.975
52676SOL    HW159860   7.756  14.334   4.036
52676SOL    HW259861   7.896  14.343   3.980
52677SOL     OW59862   8.887  13.434   9.538
52677SOL    HW159863   8.890  13.524   9.504
52677SOL    HW259864   8.979  13.406   9.539
52678SOL     OW59865  10.564  11.338   7.833
52678SOL    HW159866  10.508  11.275   7.788
52678SOL    HW259867  10.629  11.285   7.879
52679SOL     OW59868   2.651  10.507   4.106
52679SOL    HW159869   2.736  10.470   4.082
52679SOL    HW259870   2.622  10.455   4.181
52680SOL     OW59871   4.720   4.868  10.019
52680SOL    HW159872   4.676   4.951  10.000
52680SOL    HW259873   4.653   4.801  10.003
52681SOL     OW59874   9.357  12.242   5.290
52681SOL    HW159875   9.345  12.258   5.197
52681SOL    HW259876   9.270  12.214   5.320
52682SOL     OW59877  12.909   8.645   1.431
52682SOL    HW159878  12.854   8.567   1.418
52682SOL    HW259879  12.887   8.702   1.357
52683SOL     OW59880  13.749   6.343   1.157
52683SOL    HW159881  13.780   6.263   1.200
52683SOL    HW259882  13.727   6.402   1.229
52684SOL     OW59883   4.752   8.232   3.889
52684SOL    HW159884   4.845   8.237   3.910
52684SOL    HW259885   4.745   8.161   3.826
52685SOL     OW59886   2.701  11.048   5.375
52685SOL    HW159887   2.678  11.053   5.282
52685SOL    HW259888   2.720  11.138   5.399
52686SOL     OW59889   2.848  12.737  11.545
52686SOL    HW159890   2.796  12.658  11.532
52686SOL    HW259891   2.845  12.782  11.460
52687SOL     OW59892   5.152  14.413  12.530
52687SOL    HW159893   5.220  14.440  12.468
52687SOL    HW259894   5.176  14.324  12.555
52688SOL     OW59895   2.984  10.836  11.648
52688SOL    HW159896   3.008  10.929  11.644
52688SOL    HW259897   2.889  10.836  11.659
52689SOL     OW59898   4.851   9.005   4.341
52689SOL    HW159899   4.864   8.970   4.430
52689SOL    HW259900   4.925   8.970   4.291
52690SOL     OW59901   6.596  14.336   5.990
52690SOL    HW159902   6.506  14.367   5.987
52690SOL    HW259903   6.648  14.415   6.002
52691SOL     OW59904   9.396  11.362   9.954
52691SOL    HW159905   9.368  11.285   9.905
52691SOL    HW259906   9.491  11.363   9.944
52692SOL     OW59907   0.225  14.447  13.077
52692SOL    HW159908   0.172  14.526  13.086
52692SOL    HW259909   0.282  14.465  13.003
52693SOL     OW59910   5.933   9.883   5.493
52693SOL    HW159911   6.003   9.863   5.555
52693SOL    HW259912   5.951   9.828   5.417
52694SOL     OW59913  11.119   6.218  12.697
52694SOL    HW159914  11.213   6.220  12.681
52694SOL    HW259915  11.084   6.163  12.626
52695SOL     OW59916   1.604  12.910   5.186
52695SOL    HW159917   1.659  12.835   5.210
52695SOL    HW259918   1.643  12.943   5.105
52696SOL     OW59919   3.974  12.644   9.271
52696SOL    HW159920   3.970  12.563   9.219
52696SOL    HW259921   4.016  12.617   9.353
52697SOL     OW59922   7.882  13.835  12.198
52697SOL    HW159923   7.946  13.873  12.138
52697SOL    HW259924   7.923  13.840  12.284
52698SOL     OW59925   7.289   0.817   7.929
52698SOL    HW159926   7.288   0.755   7.856
52698SOL    HW259927   7.319   0.899   7.891
52699SOL     OW59928  10.090   0.111   9.096
52699SOL    HW159929  10.012   0.162   9.117
52699SOL    HW259930  10.059   0.045   9.034
52700SOL     OW59931  13.405   8.920   1.465
52700SOL    HW159932  13.441   8.842   1.507
52700SOL    HW259933  13.339   8.887   1.404
52701SOL     OW59934   9.852  10.572   7.517
52701SOL    HW159935   9.767  10.546   7.553
52701SOL    HW259936   9.844  10.666   7.501
52702SOL     OW59937   5.825  11.577   6.837
52702SOL    HW159938   5.819  11.543   6.747
52702SOL    HW259939   5.900  11.532   6.875
52703SOL     OW59940   8.014   2.344   8.342
52703SOL    HW159941   7.979   2.417   8.392
52703SOL    HW259942   8.018   2.271   8.404
52704SOL     OW59943   2.793   1.389   9.995
52704SOL    HW159944   2.874   1.357  10.034
52704SOL    HW259945   2.780   1.475  10.035
52705SOL     OW59946   8.406  13.106  14.791
52705SOL    HW159947   8.410  13.198  14.765
52705SOL    HW259948   8.316  13.079  14.770
52706SOL     OW59949   6.767  11.091   2.911
52706SOL    HW159950   6.833  11.148   2.951
52706SOL    HW259951   6.703  11.151   2.873
52707SOL     OW59952   3.250   0.594   1.553
52707SOL    HW159953   3.192   0.555   1.487
52707SOL    HW259954   3.223   0.555   1.636
52708SOL     OW59955   8.371  13.128   1.674
52708SOL    HW159956   8.440  13.115   1.740
52708SOL    HW259957   8.354  13.040   1.640
52709SOL     OW59958   9.245  10.976   9.428
52709SOL    HW159959   9.272  11.058   9.469
52709SOL    HW259960   9.299  10.968   9.350
52710SOL     OW59961   3.755   9.005   9.443
52710SOL    HW159962   3.748   8.910   9.433
52710SOL    HW259963   3.716   9.023   9.528
52711SOL     OW59964   9.449  12.471   7.974
52711SOL    HW159965   9.466  12.543   7.913
52711SOL    HW259966   9.407  12.404   7.921
52712SOL     OW59967   4.934   4.346  12.314
52712SOL    HW159968   4.969   4.324  12.401
52712SOL    HW259969   5.010   4.340  12.256
52713SOL     OW59970  12.267  11.109  10.089
52713SOL    HW159971  12.348  11.081  10.047
52713SOL    HW259972  12.209  11.032  10.084
52714SOL     OW59973   9.303   0.647  14.783
52714SOL    HW159974   9.302   0.735  14.819
52714SOL    HW259975   9.393   0.617  14.795
52715SOL     OW59976  12.471   7.449  12.671
52715SOL    HW159977  12.542   7.509  12.648
52715SOL    HW259978  12.419   7.441  12.591
52716SOL     OW59979  10.217  12.531  11.120
52716SOL    HW159980  10.143  12.500  11.068
52716SOL    HW259981  10.210  12.626  11.119
52717SOL     OW59982   8.957   3.544   7.236
52717SOL    HW159983   9.045   3.575   7.254
52717SOL    HW259984   8.954   3.531   7.142
52718SOL     OW59985   4.681  12.260   1.808
52718SOL    HW159986   4.775  12.245   1.796
52718SOL    HW259987   4.665  12.345   1.766
52719SOL     OW59988   4.837   7.409   5.041
52719SOL    HW159989   4.891   7.331   5.058
52719SOL    HW259990   4.900   7.480   5.032
52720SOL     OW59991  14.770  13.378   3.496
52720SOL    HW159992  14.700  13.427   3.452
52720SOL    HW259993  14.791  13.432   3.573
52721SOL     OW59994  11.052  14.735  14.857
52721SOL    HW159995  11.132  14.788  14.862
52721SOL    HW259996  10.985  14.790   0.022
52722SOL     OW59997   6.160  11.014  11.957
52722SOL    HW159998   6.236  10.956  11.949
52722SOL    HW259999   6.135  11.009  12.049
52723SOL     OW60000   2.794   7.343   1.828
52723SOL    HW160001   2.799   7.275   1.896
52723SOL    HW260002   2.881   7.344   1.788
52724SOL     OW60003  11.724   6.704  11.098
52724SOL    HW160004  11.759   6.678  11.183
52724SOL    HW260005  11.637   6.664  11.095
52725SOL     OW60006   1.139  11.568  10.633
52725SOL    HW160007   1.120  11.594  10.723
52725SOL    HW260008   1.062  11.595  10.583
52726SOL     OW60009   7.043   1.778  11.438
52726SOL    HW160010   6.975   1.756  11.374
52726SOL    HW260011   7.048   1.702  11.495
52727SOL     OW60012   0.269   7.399   9.141
52727SOL    HW160013   0.257   7.306   9.161
52727SOL    HW260014   0.302   7.400   9.051
52728SOL     OW60015  12.442  14.150   2.439
52728SOL    HW160016  12.466  14.057   2.443
52728SOL    HW260017  12.372  14.153   2.374
52729SOL     OW60018   3.483   5.961  11.910
52729SOL    HW160019   3.437   6.042  11.933
52729SOL    HW260020   3.554   5.990  11.852
52730SOL     OW60021   1.197  13.149   4.531
52730SOL    HW160022   1.250  13.112   4.460
52730SOL    HW260023   1.121  13.186   4.488
52731SOL     OW60024   0.336  13.551   3.638
52731SOL    HW160025   0.317  13.605   3.715
52731SOL    HW260026   0.324  13.461   3.668
52732SOL     OW60027   2.075   1.477  11.291
52732SOL    HW160028   2.035   1.424  11.360
52732SOL    HW260029   2.169   1.464  11.302
52733SOL     OW60030   3.506  12.745   9.427
52733SOL    HW160031   3.598  12.727   9.442
52733SOL    HW260032   3.493  12.730   9.333
52734SOL     OW60033   7.255  12.167  11.139
52734SOL    HW160034   7.339  12.207  11.163
52734SOL    HW260035   7.276  12.109  11.066
52735SOL     OW60036  11.768   3.668   1.671
52735SOL    HW160037  11.694   3.674   1.730
52735SOL    HW260038  11.792   3.575   1.671
52736SOL     OW60039   0.157   5.072  14.397
52736SOL    HW160040   0.171   4.988  14.440
52736SOL    HW260041   0.234   5.084  14.341
52737SOL     OW60042   3.796  11.270   7.178
52737SOL    HW160043   3.861  11.291   7.245
52737SOL    HW260044   3.749  11.352   7.162
52738SOL     OW60045   5.307   5.162  14.661
52738SOL    HW160046   5.241   5.129  14.722
52738SOL    HW260047   5.387   5.166  14.714
52739SOL     OW60048   8.118   5.519  11.579
52739SOL    HW160049   8.172   5.594  11.553
52739SOL    HW260050   8.078   5.545  11.661
52740SOL     OW60051   9.039  13.322   8.260
52740SOL    HW160052   8.950  13.303   8.228
52740SOL    HW260053   9.094  13.313   8.183
52741SOL     OW60054   8.863   2.580   0.297
52741SOL    HW160055   8.876   2.674   0.281
52741SOL    HW260056   8.948   2.549   0.327
52742SOL     OW60057  13.520   6.593   8.479
52742SOL    HW160058  13.604   6.616   8.438
52742SOL    HW260059  13.460   6.662   8.450
52743SOL     OW60060   5.447   5.202  14.075
52743SOL    HW160061   5.433   5.216  14.168
52743SOL    HW260062   5.427   5.287  14.034
52744SOL     OW60063   8.110  12.931  13.139
52744SOL    HW160064   8.069  12.996  13.082
52744SOL    HW260065   8.093  12.963  13.228
52745SOL     OW60066   0.547   3.635   3.240
52745SOL    HW160067   0.482   3.699   3.209
52745SOL    HW260068   0.611   3.688   3.288
52746SOL     OW60069   4.769   2.927   6.761
52746SOL    HW160070   4.739   2.936   6.851
52746SOL    HW260071   4.841   2.990   6.753
52747SOL     OW60072   8.525   2.403  12.878
52747SOL    HW160073   8.466   2.390  12.803
52747SOL    HW260074   8.610   2.425  12.838
52748SOL     OW60075  11.258   2.150   7.582
52748SOL    HW160076  11.349   2.123   7.595
52748SOL    HW260077  11.208   2.069   7.589
52749SOL     OW60078  10.650   6.587  14.777
52749SOL    HW160079  10.609   6.508  14.813
52749SOL    HW260080  10.730   6.598  14.828
52750SOL     OW60081  13.914   5.297  13.642
52750SOL    HW160082  13.887   5.385  13.614
52750SOL    HW260083  13.996   5.311  13.690
52751SOL     OW60084   1.578  14.512  11.809
52751SOL    HW160085   1.550  14.454  11.737
52751SOL    HW260086   1.578  14.456  11.886
52752SOL     OW60087   5.692   9.544   4.678
52752SOL    HW160088   5.646   9.523   4.759
52752SOL    HW260089   5.712   9.458   4.640
52753SOL     OW60090   6.814   7.651   7.662
52753SOL    HW160091   6.840   7.622   7.749
52753SOL    HW260092   6.724   7.682   7.673
52754SOL     OW60093  14.092   0.882   4.789
52754SOL    HW160094  14.053   0.796   4.781
52754SOL    HW260095  14.033   0.941   4.742
52755SOL     OW60096   5.350   3.682   1.012
52755SOL    HW160097   5.437   3.711   1.038
52755SOL    HW260098   5.326   3.616   1.077
52756SOL     OW60099  13.279   5.283   5.650
52756SOL    HW160100  13.290   5.254   5.741
52756SOL    HW260101  13.311   5.209   5.598
52757SOL     OW60102   2.026  14.799   9.562
52757SOL    HW160103   2.101  14.847   9.528
52757SOL    HW260104   1.958  14.811   9.497
52758SOL     OW60105   4.912  14.017  12.787
52758SOL    HW160106   4.855  13.941  12.795
52758SOL    HW260107   4.880  14.064  12.710
52759SOL     OW60108  14.652   5.347   4.819
52759SOL    HW160109  14.683   5.311   4.902
52759SOL    HW260110  14.582   5.287   4.792
52760SOL     OW60111  11.845   8.451   5.384
52760SOL    HW160112  11.864   8.503   5.306
52760SOL    HW260113  11.925   8.453   5.435
52761SOL     OW60114   1.592  12.006  11.388
52761SOL    HW160115   1.564  12.041  11.303
52761SOL    HW260116   1.512  11.972  11.428
52762SOL     OW60117  13.876   5.939   6.121
52762SOL    HW160118  13.871   5.868   6.185
52762SOL    HW260119  13.905   5.897   6.041
52763SOL     OW60120   0.162  13.776  13.702
52763SOL    HW160121   0.120  13.832  13.767
52763SOL    HW260122   0.098  13.769  13.631
52764SOL     OW60123   3.666  11.159   2.235
52764SOL    HW160124   3.587  11.116   2.267
52764SOL    HW260125   3.739  11.106   2.268
52765SOL     OW60126   8.479  11.802   9.678
52765SOL    HW160127   8.479  11.896   9.696
52765SOL    HW260128   8.557  11.787   9.624
52766SOL     OW60129   8.009   9.630   1.784
52766SOL    HW160130   7.994   9.541   1.816
52766SOL    HW260131   8.056   9.674   1.855
52767SOL     OW60132   7.602  11.232  10.075
52767SOL    HW160133   7.661  11.290  10.028
52767SOL    HW260134   7.660  11.180  10.131
52768SOL     OW60135  13.886   0.994   2.781
52768SOL    HW160136  13.919   0.904   2.774
52768SOL    HW260137  13.858   1.016   2.692
52769SOL     OW60138   4.206   2.628   8.365
52769SOL    HW160139   4.196   2.677   8.447
52769SOL    HW260140   4.227   2.696   8.300
52770SOL     OW60141  14.695   7.248   7.165
52770SOL    HW160142  14.623   7.310   7.175
52770SOL    HW260143  14.680   7.182   7.232
52771SOL     OW60144   5.922   9.562   0.666
52771SOL    HW160145   5.885   9.593   0.748
52771SOL    HW260146   5.935   9.641   0.613
52772SOL     OW60147   2.393   4.788   7.219
52772SOL    HW160148   2.348   4.746   7.292
52772SOL    HW260149   2.476   4.740   7.210
52773SOL     OW60150  10.828   8.555   3.001
52773SOL    HW160151  10.839   8.650   2.997
52773SOL    HW260152  10.858   8.531   3.088
52774SOL     OW60153   8.822  12.097   8.620
52774SOL    HW160154   8.737  12.067   8.652
52774SOL    HW260155   8.866  12.017   8.591
52775SOL     OW60156  11.388   5.672   3.048
52775SOL    HW160157  11.322   5.737   3.024
52775SOL    HW260158  11.396   5.680   3.143
52776SOL     OW60159   8.656  10.497   1.936
52776SOL    HW160160   8.659  10.559   2.010
52776SOL    HW260161   8.569  10.512   1.897
52777SOL     OW60162  13.221   6.086   4.737
52777SOL    HW160163  13.198   6.174   4.709
52777SOL    HW260164  13.293   6.098   4.800
52778SOL     OW60165  13.813  11.226   8.652
52778SOL    HW160166  13.740  11.166   8.637
52778SOL    HW260167  13.876  11.175   8.702
52779SOL     OW60168   5.762   8.474   7.566
52779SOL    HW160169   5.843   8.437   7.531
52779SOL    HW260170   5.724   8.403   7.618
52780SOL     OW60171   1.983   7.350   8.215
52780SOL    HW160172   2.068   7.394   8.215
52780SOL    HW260173   1.994   7.276   8.156
52781SOL     OW60174  13.531   4.730   2.624
52781SOL    HW160175  13.502   4.704   2.712
52781SOL    HW260176  13.452   4.762   2.581
52782SOL     OW60177  12.669  14.842   1.217
52782SOL    HW160178  12.724  14.789   1.274
52782SOL    HW260179  12.729   0.003   1.152
52783SOL     OW60180   3.510   1.276   7.274
52783SOL    HW160181   3.539   1.366   7.290
52783SOL    HW260182   3.547   1.226   7.347
52784SOL     OW60183   1.700   7.940   1.726
52784SOL    HW160184   1.610   7.966   1.708
52784SOL    HW260185   1.694   7.888   1.807
52785SOL     OW60186   8.635   6.480   7.947
52785SOL    HW160187   8.600   6.564   7.917
52785SOL    HW260188   8.564   6.442   7.998
52786SOL     OW60189  13.642  13.313   1.892
52786SOL    HW160190  13.568  13.279   1.842
52786SOL    HW260191  13.719  13.282   1.845
52787SOL     OW60192  11.653   7.242   0.542
52787SOL    HW160193  11.643   7.268   0.451
52787SOL    HW260194  11.597   7.301   0.591
52788SOL     OW60195  13.605  12.345  13.780
52788SOL    HW160196  13.513  12.350  13.753
52788SOL    HW260197  13.655  12.368  13.701
52789SOL     OW60198   7.442  13.390   5.875
52789SOL    HW160199   7.448  13.312   5.819
52789SOL    HW260200   7.353  13.424   5.860
52790SOL     OW60201   8.176   6.097   9.574
52790SOL    HW160202   8.115   6.067   9.507
52790SOL    HW260203   8.260   6.101   9.530
52791SOL     OW60204   2.067   8.594  10.320
52791SOL    HW160205   2.125   8.666  10.295
52791SOL    HW260206   1.989   8.607  10.266
52792SOL     OW60207  13.319   3.717   2.671
52792SOL    HW160208  13.274   3.697   2.753
52792SOL    HW260209  13.383   3.783   2.694
52793SOL     OW60210   5.660  13.453   0.568
52793SOL    HW160211   5.665  13.484   0.658
52793SOL    HW260212   5.594  13.384   0.570
52794SOL     OW60213  11.955   5.930   8.002
52794SOL    HW160214  12.001   5.958   8.082
52794SOL    HW260215  11.936   5.837   8.016
52795SOL     OW60216   2.771  14.440  10.077
52795SOL    HW160217   2.725  14.479  10.151
52795SOL    HW260218   2.723  14.470  10.000
52796SOL     OW60219  12.084  14.816   8.839
52796SOL    HW160220  12.084  14.747   8.905
52796SOL    HW260221  12.005  14.801   8.788
52797SOL     OW60222   4.540   3.424   4.596
52797SOL    HW160223   4.479   3.350   4.592
52797SOL    HW260224   4.556   3.447   4.504
52798SOL     OW60225   9.465  13.497  11.038
52798SOL    HW160226   9.476  13.588  11.011
52798SOL    HW260227   9.370  13.486  11.046
52799SOL     OW60228   1.681  14.627   3.131
52799SOL    HW160229   1.704  14.635   3.223
52799SOL    HW260230   1.586  14.628   3.129
52800SOL     OW60231  10.257   5.507   1.720
52800SOL    HW160232  10.195   5.579   1.705
52800SOL    HW260233  10.238   5.477   1.809
52801SOL     OW60234  11.248  10.461   8.465
52801SOL    HW160235  11.179  10.441   8.528
52801SOL    HW260236  11.329  10.451   8.515
52802SOL     OW60237  10.487   7.151   9.858
52802SOL    HW160238  10.453   7.186   9.941
52802SOL    HW260239  10.450   7.063   9.853
52803SOL     OW60240   8.701  12.061  11.187
52803SOL    HW160241   8.778  12.088  11.236
52803SOL    HW260242   8.690  11.968  11.209
52804SOL     OW60243   7.651   4.337   1.587
52804SOL    HW160244   7.700   4.277   1.643
52804SOL    HW260245   7.667   4.424   1.625
52805SOL     OW60246   9.802   8.920   0.101
52805SOL    HW160247   9.775   8.838   0.059
52805SOL    HW260248   9.732   8.939   0.164
52806SOL     OW60249  11.419   6.550   1.915
52806SOL    HW160250  11.486   6.616   1.933
52806SOL    HW260251  11.449   6.473   1.963
52807SOL     OW60252  13.854  14.646   1.289
52807SOL    HW160253  13.885  14.687   1.208
52807SOL    HW260254  13.841  14.719   1.349
52808SOL     OW60255   4.688   9.261  11.226
52808SOL    HW160256   4.734   9.345  11.218
52808SOL    HW260257   4.635   9.256  11.146
52809SOL     OW60258   9.374   0.852   2.748
52809SOL    HW160259   9.409   0.941   2.752
52809SOL    HW260260   9.420   0.804   2.816
52810SOL     OW60261  11.570   7.893   0.056
52810SOL    HW160262  11.504   7.963   0.051
52810SOL    HW260263  11.594   7.890   0.148
52811SOL     OW60264   5.613  13.360   4.803
52811SOL    HW160265   5.651  13.377   4.717
52811SOL    HW260266   5.675  13.400   4.864
52812SOL     OW60267   2.005   8.559   6.599
52812SOL    HW160268   2.045   8.622   6.659
52812SOL    HW260269   2.079   8.505   6.569
52813SOL     OW60270   8.892  14.813   3.593
52813SOL    HW160271   8.867  14.875   3.662
52813SOL    HW260272   8.903  14.729   3.639
52814SOL     OW60273  14.510   2.233   7.414
52814SOL    HW160274  14.415   2.240   7.412
52814SOL    HW260275  14.528   2.161   7.474
52815SOL     OW60276  13.036  10.602   9.552
52815SOL    HW160277  13.092  10.530   9.579
52815SOL    HW260278  12.992  10.631   9.632
52816SOL     OW60279   2.719   5.211  13.304
52816SOL    HW160280   2.810   5.213  13.335
52816SOL    HW260281   2.723   5.251  13.217
52817SOL     OW60282  13.118   4.203   2.597
52817SOL    HW160283  13.181   4.223   2.666
52817SOL    HW260284  13.122   4.108   2.588
52818SOL     OW60285  12.858   7.722   4.971
52818SOL    HW160286  12.933   7.731   4.913
52818SOL    HW260287  12.868   7.792   5.035
52819SOL     OW60288   4.942   2.253   5.811
52819SOL    HW160289   4.903   2.298   5.886
52819SOL    HW260290   4.969   2.324   5.752
52820SOL     OW60291   1.694   8.464   4.120
52820SOL    HW160292   1.624   8.437   4.179
52820SOL    HW260293   1.650   8.487   4.038
52821SOL     OW60294   4.811   9.720  13.081
52821SOL    HW160295   4.872   9.777  13.034
52821SOL    HW260296   4.728   9.730  13.034
52822SOL     OW60297   3.258   5.162  10.971
52822SOL    HW160298   3.342   5.118  10.959
52822SOL    HW260299   3.234   5.143  11.062
52823SOL     OW60300   1.253   7.533  12.541
52823SOL    HW160301   1.346   7.554  12.555
52823SOL    HW260302   1.206   7.606  12.581
52824SOL     OW60303  13.488  10.782   3.553
52824SOL    HW160304  13.431  10.855   3.527
52824SOL    HW260305  13.554  10.822   3.610
52825SOL     OW60306  14.458   3.692  13.904
52825SOL    HW160307  14.387   3.746  13.869
52825SOL    HW260308  14.538   3.736  13.875
52826SOL     OW60309   4.798   2.518   7.441
52826SOL    HW160310   4.771   2.560   7.522
52826SOL    HW260311   4.778   2.425   7.454
52827SOL     OW60312   6.052   7.484   4.625
52827SOL    HW160313   6.011   7.497   4.710
52827SOL    HW260314   5.992   7.524   4.563
52828SOL     OW60315   6.847   7.423  10.449
52828SOL    HW160316   6.798   7.428  10.531
52828SOL    HW260317   6.791   7.370  10.392
52829SOL     OW60318  11.542   0.303   3.806
52829SOL    HW160319  11.523   0.373   3.869
52829SOL    HW260320  11.525   0.342   3.721
52830SOL     OW60321  10.569   8.911   1.332
52830SOL    HW160322  10.520   8.993   1.340
52830SOL    HW260323  10.511   8.853   1.283
52831SOL     OW60324   7.143   5.043   8.720
52831SOL    HW160325   7.195   5.013   8.645
52831SOL    HW260326   7.179   5.129   8.742
52832SOL     OW60327  10.505   3.318  14.827
52832SOL    HW160328  10.429   3.294   0.004
52832SOL    HW260329  10.473   3.390  14.772
52833SOL     OW60330   5.204  10.436  13.450
52833SOL    HW160331   5.128  10.410  13.397
52833SOL    HW260332   5.256  10.492  13.392
52834SOL     OW60333   1.747   3.777   8.460
52834SOL    HW160334   1.674   3.715   8.452
52834SOL    HW260335   1.797   3.765   8.379
52835SOL     OW60336   0.957   4.377  11.697
52835SOL    HW160337   0.897   4.327  11.642
52835SOL    HW260338   0.982   4.315  11.766
52836SOL     OW60339   8.576   8.215   9.565
52836SOL    HW160340   8.580   8.290   9.623
52836SOL    HW260341   8.667   8.192   9.548
52837SOL     OW60342   8.427  14.190   5.160
52837SOL    HW160343   8.400  14.191   5.252
52837SOL    HW260344   8.462  14.102   5.146
52838SOL     OW60345  12.182   2.610   7.195
52838SOL    HW160346  12.233   2.687   7.219
52838SOL    HW260347  12.241   2.536   7.211
52839SOL     OW60348  12.313  14.087   7.692
52839SOL    HW160349  12.356  14.162   7.732
52839SOL    HW260350  12.229  14.080   7.737
52840SOL     OW60351   4.073  13.723   6.322
52840SOL    HW160352   3.989  13.682   6.342
52840SOL    HW260353   4.139  13.657   6.346
52841SOL     OW60354   5.483   3.052   8.514
52841SOL    HW160355   5.536   2.973   8.526
52841SOL    HW260356   5.547   3.118   8.487
52842SOL     OW60357   0.358  10.438   0.091
52842SOL    HW160358   0.351  10.346   0.116
52842SOL    HW260359   0.368  10.437  14.872
52843SOL     OW60360  10.239  11.075  11.745
52843SOL    HW160361  10.151  11.050  11.772
52843SOL    HW260362  10.290  10.994  11.751
52844SOL     OW60363   8.957  14.239  13.997
52844SOL    HW160364   9.036  14.189  14.018
52844SOL    HW260365   8.919  14.194  13.921
52845SOL     OW60366   7.664  13.627   4.123
52845SOL    HW160367   7.670  13.533   4.138
52845SOL    HW260368   7.747  13.662   4.155
52846SOL     OW60369   1.564   6.697   9.033
52846SOL    HW160370   1.469   6.701   9.039
52846SOL    HW260371   1.585   6.745   8.953
52847SOL     OW60372   8.206   2.469   6.461
52847SOL    HW160373   8.268   2.402   6.433
52847SOL    HW260374   8.254   2.520   6.526
52848SOL     OW60375   5.288   2.407   1.467
52848SOL    HW160376   5.316   2.472   1.402
52848SOL    HW260377   5.211   2.366   1.427
52849SOL     OW60378   7.157   6.867  12.157
52849SOL    HW160379   7.199   6.785  12.129
52849SOL    HW260380   7.224   6.934  12.143
52850SOL     OW60381  11.908   7.553   4.539
52850SOL    HW160382  11.973   7.614   4.573
52850SOL    HW260383  11.942   7.528   4.453
52851SOL     OW60384  12.875   8.423   9.684
52851SOL    HW160385  12.801   8.442   9.627
52851SOL    HW260386  12.866   8.330   9.704
52852SOL     OW60387  10.088  13.622  12.545
52852SOL    HW160388  10.051  13.551  12.494
52852SOL    HW260389  10.172  13.641  12.503
52853SOL     OW60390  13.439   8.960   1.864
52853SOL    HW160391  13.378   8.890   1.843
52853SOL    HW260392  13.401   9.002   1.942
52854SOL     OW60393   6.723   5.355  12.085
52854SOL    HW160394   6.806   5.376  12.042
52854SOL    HW260395   6.694   5.275  12.042
52855SOL     OW60396   3.254   3.004   5.786
52855SOL    HW160397   3.325   2.999   5.849
52855SOL    HW260398   3.279   3.074   5.726
52856SOL     OW60399   6.040   9.216  13.065
52856SOL    HW160400   6.023   9.264  12.984
52856SOL    HW260401   6.018   9.279  13.135
52857SOL     OW60402   5.248  14.446  13.253
52857SOL    HW160403   5.311  14.374  13.246
52857SOL    HW260404   5.295  14.516  13.298
52858SOL     OW60405   5.449   5.434   4.629
52858SOL    HW160406   5.390   5.394   4.694
52858SOL    HW260407   5.457   5.369   4.560
52859SOL     OW60408   7.373  11.406   8.599
52859SOL    HW160409   7.413  11.395   8.513
52859SOL    HW260410   7.293  11.456   8.583
52860SOL     OW60411  13.644   7.038   3.142
52860SOL    HW160412  13.689   7.117   3.111
52860SOL    HW260413  13.667   7.033   3.235
52861SOL     OW60414  12.604   8.646   6.206
52861SOL    HW160415  12.584   8.731   6.246
52861SOL    HW260416  12.592   8.661   6.112
52862SOL     OW60417   7.201   2.721   0.690
52862SOL    HW160418   7.228   2.761   0.607
52862SOL    HW260419   7.259   2.761   0.755
52863SOL     OW60420   5.225  14.072  12.169
52863SOL    HW160421   5.130  14.077  12.181
52863SOL    HW260422   5.261  14.113  12.247
52864SOL     OW60423   1.880  12.232   7.717
52864SOL    HW160424   1.826  12.254   7.642
52864SOL    HW260425   1.895  12.137   7.709
52865SOL     OW60426   5.340  13.323   0.682
52865SOL    HW160427   5.292  13.253   0.727
52865SOL    HW260428   5.390  13.278   0.614
52866SOL     OW60429  10.024  10.996  11.527
52866SOL    HW160430  10.009  11.079  11.482
52866SOL    HW260431   9.988  11.008  11.615
52867SOL     OW60432   9.333   1.993   3.710
52867SOL    HW160433   9.284   2.017   3.632
52867SOL    HW260434   9.378   2.074   3.736
52868SOL     OW60435  11.020   4.793   1.597
52868SOL    HW160436  10.971   4.855   1.650
52868SOL    HW260437  11.049   4.843   1.520
52869SOL     OW60438   5.571   4.589   8.265
52869SOL    HW160439   5.653   4.627   8.231
52869SOL    HW260440   5.536   4.540   8.191
52870SOL     OW60441   7.066   4.719  14.149
52870SOL    HW160442   7.129   4.648  14.160
52870SOL    HW260443   6.983   4.683  14.178
52871SOL     OW60444   3.539   5.101  11.581
52871SOL    HW160445   3.631   5.116  11.605
52871SOL    HW260446   3.520   5.169  11.516
52872SOL     OW60447  10.116   9.526  11.050
52872SOL    HW160448  10.126   9.443  11.097
52872SOL    HW260449  10.139   9.505  10.960
52873SOL     OW60450  11.167   9.703  10.745
52873SOL    HW160451  11.181   9.690  10.839
52873SOL    HW260452  11.191   9.795  10.730
52874SOL     OW60453   2.753  11.440   7.982
52874SOL    HW160454   2.741  11.458   8.075
52874SOL    HW260455   2.848  11.442   7.970
52875SOL     OW60456   1.620   7.192   7.425
52875SOL    HW160457   1.687   7.165   7.488
52875SOL    HW260458   1.551   7.231   7.478
52876SOL     OW60459  12.452  11.429   4.125
52876SOL    HW160460  12.424  11.515   4.157
52876SOL    HW260461  12.370  11.382   4.110
52877SOL     OW60462   0.587   6.015  14.090
52877SOL    HW160463   0.529   6.011  14.167
52877SOL    HW260464   0.629   5.930  14.088
52878SOL     OW60465   5.402   4.140  14.240
52878SOL    HW160466   5.317   4.149  14.282
52878SOL    HW260467   5.403   4.050  14.208
52879SOL     OW60468   9.826  11.178   5.397
52879SOL    HW160469   9.827  11.123   5.476
52879SOL    HW260470   9.810  11.117   5.325
52880SOL     OW60471  11.404  10.896  13.646
52880SOL    HW160472  11.471  10.941  13.593
52880SOL    HW260473  11.452  10.864  13.723
52881SOL     OW60474   0.188   8.679   0.001
52881SOL    HW160475   0.205   8.723   0.085
52881SOL    HW260476   0.275   8.660  14.842
52882SOL     OW60477   9.456   4.283   5.503
52882SOL    HW160478   9.504   4.345   5.448
52882SOL    HW260479   9.507   4.278   5.584
52883SOL     OW60480  13.459   6.973   3.598
52883SOL    HW160481  13.435   7.063   3.577
52883SOL    HW260482  13.394   6.919   3.553
52884SOL     OW60483  14.645   0.416  10.631
52884SOL    HW160484  14.731   0.444  10.603
52884SOL    HW260485  14.655   0.323  10.651
52885SOL     OW60486   5.544   3.542   9.942
52885SOL    HW160487   5.547   3.446   9.946
52885SOL    HW260488   5.636   3.568   9.941
52886SOL     OW60489  10.015   0.842   5.996
52886SOL    HW160490   9.977   0.830   5.910
52886SOL    HW260491   9.952   0.802   6.056
52887SOL     OW60492  11.934   4.931   4.743
52887SOL    HW160493  11.911   4.936   4.650
52887SOL    HW260494  11.968   4.842   4.754
52888SOL     OW60495   3.967  10.041  13.626
52888SOL    HW160496   3.913   9.962  13.631
52888SOL    HW260497   4.057  10.007  13.618
52889SOL     OW60498   9.772   6.410   2.994
52889SOL    HW160499   9.820   6.350   2.936
52889SOL    HW260500   9.836   6.433   3.062
52890SOL     OW60501   7.772   4.866  11.679
52890SOL    HW160502   7.714   4.877  11.603
52890SOL    HW260503   7.860   4.861  11.641
52891SOL     OW60504   0.910   0.421   1.158
52891SOL    HW160505   0.842   0.369   1.116
52891SOL    HW260506   0.865   0.502   1.185
52892SOL     OW60507  12.915  13.223   7.875
52892SOL    HW160508  12.973  13.178   7.936
52892SOL    HW260509  12.827  13.191   7.897
52893SOL     OW60510   8.356  11.696  13.621
52893SOL    HW160511   8.333  11.784  13.591
52893SOL    HW260512   8.328  11.695  13.713
52894SOL     OW60513   6.619   9.112   4.298
52894SOL    HW160514   6.655   9.031   4.263
52894SOL    HW260515   6.685   9.178   4.279
52895SOL     OW60516   9.324  13.094   9.313
52895SOL    HW160517   9.302  13.187   9.311
52895SOL    HW260518   9.260  13.053   9.255
52896SOL     OW60519   2.268   1.040  10.720
52896SOL    HW160520   2.245   1.072  10.633
52896SOL    HW260521   2.190   0.994  10.750
52897SOL     OW60522   8.405   8.009   9.729
52897SOL    HW160523   8.476   8.054   9.684
52897SOL    HW260524   8.362   8.078   9.781
52898SOL     OW60525   0.362   2.537  14.160
52898SOL    HW160526   0.371   2.609  14.098
52898SOL    HW260527   0.323   2.466  14.109
52899SOL     OW60528   4.026   6.681   6.335
52899SOL    HW160529   4.001   6.646   6.250
52899SOL    HW260530   4.021   6.776   6.325
52900SOL     OW60531   9.261  10.162   1.285
52900SOL    HW160532   9.246  10.073   1.318
52900SOL    HW260533   9.346  10.157   1.242
52901SOL     OW60534  12.403  13.451   5.010
52901SOL    HW160535  12.401  13.359   4.984
52901SOL    HW260536  12.316  13.468   5.046
52902SOL     OW60537  10.873  10.112   2.430
52902SOL    HW160538  10.883  10.195   2.385
52902SOL    HW260539  10.789  10.118   2.474
52903SOL     OW60540   0.769   6.181   0.493
52903SOL    HW160541   0.701   6.138   0.546
52903SOL    HW260542   0.804   6.249   0.550
52904SOL     OW60543   3.212  14.756   9.770
52904SOL    HW160544   3.135  14.811   9.786
52904SOL    HW260545   3.208  14.736   9.677
52905SOL     OW60546   3.908  10.752  11.446
52905SOL    HW160547   3.950  10.777  11.529
52905SOL    HW260548   3.965  10.789  11.379
52906SOL     OW60549  14.268  11.910   6.063
52906SOL    HW160550  14.262  11.819   6.093
52906SOL    HW260551  14.349  11.913   6.012
52907SOL     OW60552  13.633   0.733   0.748
52907SOL    HW160553  13.552   0.773   0.779
52907SOL    HW260554  13.637   0.649   0.794
52908SOL     OW60555  11.329  12.877  13.673
52908SOL    HW160556  11.302  12.791  13.640
52908SOL    HW260557  11.313  12.872  13.767
52909SOL     OW60558  12.238   2.779   0.546
52909SOL    HW160559  12.144   2.766   0.548
52909SOL    HW260560  12.253   2.843   0.476
52910SOL     OW60561   2.870  14.306  10.884
52910SOL    HW160562   2.800  14.363  10.916
52910SOL    HW260563   2.876  14.236  10.949
52911SOL     OW60564   4.883   7.551   2.950
52911SOL    HW160565   4.801   7.503   2.962
52911SOL    HW260566   4.868   7.635   2.993
52912SOL     OW60567  10.285   1.367   0.076
52912SOL    HW160568  10.313   1.345  14.863
52912SOL    HW260569  10.350   1.429   0.107
52913SOL     OW60570  14.581  13.804  11.578
52913SOL    HW160571  14.524  13.850  11.516
52913SOL    HW260572  14.669  13.832  11.554
52914SOL     OW60573  14.042   2.780  14.721
52914SOL    HW160574  14.062   2.689  14.741
52914SOL    HW260575  13.947   2.782  14.710
52915SOL     OW60576   7.153   3.794   0.722
52915SOL    HW160577   7.228   3.774   0.667
52915SOL    HW260578   7.080   3.804   0.661
52916SOL     OW60579   8.862  11.811   6.546
52916SOL    HW160580   8.821  11.754   6.481
52916SOL    HW260581   8.912  11.752   6.602
52917SOL     OW60582   2.621   1.200   7.462
52917SOL    HW160583   2.549   1.234   7.409
52917SOL    HW260584   2.585   1.197   7.551
52918SOL     OW60585   0.889   7.290  13.438
52918SOL    HW160586   0.964   7.271  13.495
52918SOL    HW260587   0.911   7.248  13.355
52919SOL     OW60588   3.537  10.858  13.945
52919SOL    HW160589   3.627  10.826  13.949
52919SOL    HW260590   3.531  10.922  14.016
52920SOL     OW60591   8.545  11.134   7.388
52920SOL    HW160592   8.451  11.134   7.408
52920SOL    HW260593   8.575  11.221   7.416
52921SOL     OW60594   7.786  13.200  12.428
52921SOL    HW160595   7.746  13.126  12.383
52921SOL    HW260596   7.737  13.208  12.510
52922SOL     OW60597   0.662   2.793   6.055
52922SOL    HW160598   0.575   2.788   6.094
52922SOL    HW260599   0.703   2.869   6.096
52923SOL     OW60600  11.592  13.084  14.793
52923SOL    HW160601  11.499  13.078  14.815
52923SOL    HW260602  11.611  13.002  14.748
52924SOL     OW60603   5.974  12.927   1.062
52924SOL    HW160604   6.008  12.837   1.069
52924SOL    HW260605   6.039  12.981   1.107
52925SOL     OW60606   6.004   7.753   5.311
52925SOL    HW160607   5.955   7.683   5.267
52925SOL    HW260608   5.939   7.797   5.366
52926SOL     OW60609   9.418   6.742   6.185
52926SOL    HW160610   9.499   6.791   6.168
52926SOL    HW260611   9.380   6.785   6.262
52927SOL     OW60612  13.492   4.638   4.685
52927SOL    HW160613  13.469   4.656   4.776
52927SOL    HW260614  13.470   4.718   4.638
52928SOL     OW60615   1.588   4.173   5.777
52928SOL    HW160616   1.590   4.257   5.822
52928SOL    HW260617   1.608   4.109   5.846
52929SOL     OW60618   3.691   6.154   0.147
52929SOL    HW160619   3.716   6.108   0.067
52929SOL    HW260620   3.598   6.137   0.156
52930SOL     OW60621  10.701   0.257   9.442
52930SOL    HW160622  10.691   0.294   9.530
52930SOL    HW260623  10.707   0.333   9.385
52931SOL     OW60624   9.765  12.503   8.101
52931SOL    HW160625   9.746  12.415   8.132
52931SOL    HW260626   9.679  12.545   8.096
52932SOL     OW60627   3.493  13.963  10.007
52932SOL    HW160628   3.422  13.992   9.949
52932SOL    HW260629   3.462  13.881  10.045
52933SOL     OW60630  10.338   8.185  13.834
52933SOL    HW160631  10.353   8.279  13.838
52933SOL    HW260632  10.381   8.157  13.753
52934SOL     OW60633  10.203  12.908  10.754
52934SOL    HW160634  10.222  12.995  10.791
52934SOL    HW260635  10.173  12.927  10.665
52935SOL     OW60636   2.621  10.785   2.647
52935SOL    HW160637   2.587  10.780   2.557
52935SOL    HW260638   2.554  10.833   2.695
52936SOL     OW60639   4.280  11.806   4.703
52936SOL    HW160640   4.202  11.760   4.733
52936SOL    HW260641   4.267  11.896   4.732
52937SOL     OW60642   1.442   5.720  12.224
52937SOL    HW160643   1.426   5.629  12.249
52937SOL    HW260644   1.527   5.741  12.263
52938SOL     OW60645  13.979  11.264   0.941
52938SOL    HW160646  14.050  11.200   0.931
52938SOL    HW260647  13.939  11.242   1.025
52939SOL     OW60648   9.326   6.039  11.418
52939SOL    HW160649   9.297   6.071  11.503
52939SOL    HW260650   9.305   5.945  11.420
52940SOL     OW60651   4.142   4.102   9.016
52940SOL    HW160652   4.070   4.162   9.037
52940SOL    HW260653   4.214   4.132   9.072
52941SOL     OW60654  12.817   8.678  14.021
52941SOL    HW160655  12.833   8.668  14.115
52941SOL    HW260656  12.802   8.589  13.989
52942SOL     OW60657  12.958  10.383   1.919
52942SOL    HW160658  12.977  10.337   2.001
52942SOL    HW260659  13.040  10.381   1.870
52943SOL     OW60660   8.646   0.706   3.883
52943SOL    HW160661   8.566   0.713   3.830
52943SOL    HW260662   8.678   0.618   3.866
52944SOL     OW60663   9.612  10.154   7.827
52944SOL    HW160664   9.618  10.075   7.880
52944SOL    HW260665   9.688  10.206   7.853
52945SOL     OW60666   5.201  12.315   5.545
52945SOL    HW160667   5.278  12.329   5.600
52945SOL    HW260668   5.188  12.220   5.548
52946SOL     OW60669   1.382   9.465  13.838
52946SOL    HW160670   1.409   9.556  13.823
52946SOL    HW260671   1.337   9.468  13.923
52947SOL     OW60672  10.362  11.509   3.104
52947SOL    HW160673  10.313  11.502   3.022
52947SOL    HW260674  10.379  11.603   3.113
52948SOL     OW60675   5.221   6.744   1.389
52948SOL    HW160676   5.146   6.739   1.330
52948SOL    HW260677   5.194   6.695   1.466
52949SOL     OW60678  11.112  11.922   2.620
52949SOL    HW160679  11.067  11.945   2.538
52949SOL    HW260680  11.114  12.004   2.670
52950SOL     OW60681   3.970   3.506   3.215
52950SOL    HW160682   3.922   3.460   3.146
52950SOL    HW260683   4.056   3.524   3.177
52951SOL     OW60684   7.921  13.061   2.373
52951SOL    HW160685   7.927  13.156   2.379
52951SOL    HW260686   7.827  13.043   2.377
52952SOL     OW60687   5.199  14.535  10.124
52952SOL    HW160688   5.203  14.577  10.038
52952SOL    HW260689   5.117  14.485  10.122
52953SOL     OW60690  11.610   9.933  12.307
52953SOL    HW160691  11.628   9.874  12.233
52953SOL    HW260692  11.514   9.937  12.311
52954SOL     OW60693   7.760   3.878   3.434
52954SOL    HW160694   7.846   3.880   3.476
52954SOL    HW260695   7.727   3.967   3.441
52955SOL     OW60696   1.828   7.177   1.572
52955SOL    HW160697   1.822   7.178   1.476
52955SOL    HW260698   1.780   7.256   1.599
52956SOL     OW60699  10.576   8.929   7.694
52956SOL    HW160700  10.571   8.934   7.790
52956SOL    HW260701  10.596   9.019   7.667
52957SOL     OW60702   4.088   9.442  10.617
52957SOL    HW160703   4.121   9.514  10.670
52957SOL    HW260704   4.077   9.370  10.679
52958SOL     OW60705   5.670   3.490   1.386
52958SOL    HW160706   5.667   3.492   1.481
52958SOL    HW260707   5.659   3.581   1.359
52959SOL     OW60708   1.027   0.128  11.967
52959SOL    HW160709   1.017   0.055  12.029
52959SOL    HW260710   1.100   0.179  12.001
52960SOL     OW60711   7.533   6.082   2.400
52960SOL    HW160712   7.462   6.074   2.336
52960SOL    HW260713   7.538   6.176   2.417
52961SOL     OW60714   5.654  10.689   7.941
52961SOL    HW160715   5.749  10.696   7.936
52961SOL    HW260716   5.634  10.604   7.900
52962SOL     OW60717  12.576  14.577   4.833
52962SOL    HW160718  12.647  14.516   4.855
52962SOL    HW260719  12.582  14.646   4.899
52963SOL     OW60720  14.004   3.886   9.993
52963SOL    HW160721  13.926   3.892  10.049
52963SOL    HW260722  14.012   3.793   9.973
52964SOL     OW60723  12.680  14.409   1.268
52964SOL    HW160724  12.589  14.386   1.283
52964SOL    HW260725  12.713  14.435   1.355
52965SOL     OW60726   2.156   4.791  12.676
52965SOL    HW160727   2.063   4.811  12.686
52965SOL    HW260728   2.159   4.731  12.601
52966SOL     OW60729   5.535   0.077   8.307
52966SOL    HW160730   5.482   0.021   8.250
52966SOL    HW260731   5.529   0.164   8.268
52967SOL     OW60732  14.666  14.148   2.400
52967SOL    HW160733  14.666  14.141   2.304
52967SOL    HW260734  14.726  14.221   2.418
52968SOL     OW60735   5.425  14.165  10.492
52968SOL    HW160736   5.489  14.237  10.490
52968SOL    HW260737   5.347  14.201  10.450
52969SOL     OW60738   6.522  10.624   4.661
52969SOL    HW160739   6.543  10.717   4.655
52969SOL    HW260740   6.479  10.614   4.746
52970SOL     OW60741  13.415   1.733  12.156
52970SOL    HW160742  13.381   1.707  12.070
52970SOL    HW260743  13.413   1.652  12.207
52971SOL     OW60744  13.820  14.526   1.574
52971SOL    HW160745  13.825  14.474   1.494
52971SOL    HW260746  13.802  14.615   1.544
52972SOL     OW60747   7.784   9.838   0.692
52972SOL    HW160748   7.859   9.892   0.718
52972SOL    HW260749   7.724   9.844   0.766
52973SOL     OW60750   1.607   4.607   8.198
52973SOL    HW160751   1.640   4.677   8.254
52973SOL    HW260752   1.517   4.632   8.179
52974SOL     OW60753  12.096   4.597  11.943
52974SOL    HW160754  12.052   4.633  11.865
52974SOL    HW260755  12.129   4.512  11.914
52975SOL     OW60756   5.117   5.187   0.482
52975SOL    HW160757   5.141   5.119   0.545
52975SOL    HW260758   5.078   5.256   0.535
52976SOL     OW60759   2.454  10.353   6.902
52976SOL    HW160760   2.369  10.309   6.899
52976SOL    HW260761   2.518  10.283   6.892
52977SOL     OW60762   7.014   4.393  12.132
52977SOL    HW160763   6.959   4.326  12.091
52977SOL    HW260764   6.957   4.435  12.197
52978SOL     OW60765   5.736   1.944  10.890
52978SOL    HW160766   5.772   1.907  10.970
52978SOL    HW260767   5.651   1.901  10.879
52979SOL     OW60768   5.799   6.133   2.043
52979SOL    HW160769   5.791   6.191   1.967
52979SOL    HW260770   5.892   6.135   2.065
52980SOL     OW60771   7.393   3.986   1.577
52980SOL    HW160772   7.449   4.034   1.516
52980SOL    HW260773   7.443   3.984   1.659
52981SOL     OW60774  13.128  11.389   8.479
52981SOL    HW160775  13.162  11.302   8.499
52981SOL    HW260776  13.036  11.386   8.507
52982SOL     OW60777   3.714   8.488   2.031
52982SOL    HW160778   3.641   8.438   2.067
52982SOL    HW260779   3.684   8.513   1.943
52983SOL     OW60780   6.064   3.965  13.202
52983SOL    HW160781   6.045   3.900  13.134
52983SOL    HW260782   6.154   3.947  13.227
52984SOL     OW60783   5.408  10.665   3.378
52984SOL    HW160784   5.321  10.664   3.340
52984SOL    HW260785   5.396  10.636   3.469
52985SOL     OW60786   0.218   4.035   8.856
52985SOL    HW160787   0.133   4.008   8.890
52985SOL    HW260788   0.207   4.128   8.834
52986SOL     OW60789   8.601  12.918   0.702
52986SOL    HW160790   8.529  12.967   0.662
52986SOL    HW260791   8.568  12.895   0.789
52987SOL     OW60792  14.780   2.813   0.950
52987SOL    HW160793  14.808   2.772   1.032
52987SOL    HW260794  14.857   2.806   0.893
52988SOL     OW60795   0.930   8.806  12.936
52988SOL    HW160796   0.966   8.806  13.024
52988SOL    HW260797   1.003   8.833  12.880
52989SOL     OW60798  14.490  14.811   8.957
52989SOL    HW160799  14.558  14.798   8.891
52989SOL    HW260800  14.512   0.018   8.999
52990SOL     OW60801   1.586   8.626   5.506
52990SOL    HW160802   1.525   8.655   5.573
52990SOL    HW260803   1.652   8.696   5.502
52991SOL     OW60804   9.187  10.550   8.987
52991SOL    HW160805   9.143  10.619   8.937
52991SOL    HW260806   9.128  10.475   8.981
52992SOL     OW60807  10.501  14.509   9.984
52992SOL    HW160808  10.458  14.569   9.923
52992SOL    HW260809  10.591  14.504   9.954
52993SOL     OW60810   3.112   9.430   3.431
52993SOL    HW160811   3.102   9.336   3.414
52993SOL    HW260812   3.081   9.441   3.521
52994SOL     OW60813  13.286   1.177   9.866
52994SOL    HW160814  13.245   1.263   9.866
52994SOL    HW260815  13.246   1.131   9.793
52995SOL     OW60816   7.322   6.599  12.083
52995SOL    HW160817   7.370   6.518  12.067
52995SOL    HW260818   7.274   6.616  12.002
52996SOL     OW60819   4.065   0.457   0.566
52996SOL    HW160820   4.078   0.542   0.607
52996SOL    HW260821   3.989   0.469   0.509
52997SOL     OW60822   7.841   8.381   1.723
52997SOL    HW160823   7.824   8.454   1.663
52997SOL    HW260824   7.811   8.412   1.808
52998SOL     OW60825   3.272   1.958  12.267
52998SOL    HW160826   3.333   2.027  12.241
52998SOL    HW260827   3.201   1.964  12.203
52999SOL     OW60828   9.130   2.439  12.715
52999SOL    HW160829   9.198   2.497  12.681
52999SOL    HW260830   9.175   2.385  12.780
53000SOL     OW60831   4.136   2.283   0.272
53000SOL    HW160832   4.150   2.276   0.366
53000SOL    HW260833   4.220   2.311   0.237
53001SOL     OW60834   5.392  13.181   1.155
53001SOL    HW160835   5.447  13.137   1.091
53001SOL    HW260836   5.395  13.273   1.129
53002SOL     OW60837  10.206   8.150   5.964
53002SOL    HW160838  10.281   8.100   5.933
53002SOL    HW260839  10.206   8.137   6.059
53003SOL     OW60840  13.437   2.368   3.677
53003SOL    HW160841  13.492   2.343   3.603
53003SOL    HW260842  13.427   2.288   3.728
53004SOL     OW60843   1.297  13.806   7.176
53004SOL    HW160844   1.374  13.753   7.198
53004SOL    HW260845   1.239  13.746   7.130
53005SOL     OW60846  14.096  13.655   3.669
53005SOL    HW160847  14.141  13.596   3.608
53005SOL    HW260848  14.014  13.609   3.690
53006SOL     OW60849   1.727   6.457   9.866
53006SOL    HW160850   1.636   6.476   9.841
53006SOL    HW260851   1.732   6.485   9.957
53007SOL     OW60852  10.192  10.257   1.670
53007SOL    HW160853  10.162  10.275   1.759
53007SOL    HW260854  10.176  10.338   1.622
53008SOL     OW60855   7.279   5.425  12.969
53008SOL    HW160856   7.354   5.403  13.025
53008SOL    HW260857   7.317   5.430  12.881
53009SOL     OW60858   7.881   5.906   7.120
53009SOL    HW160859   7.840   5.949   7.195
53009SOL    HW260860   7.850   5.956   7.044
53010SOL     OW60861   6.592  10.876   4.700
53010SOL    HW160862   6.620  10.948   4.644
53010SOL    HW260863   6.550  10.919   4.775
53011SOL     OW60864   3.285  11.747  12.062
53011SOL    HW160865   3.352  11.792  12.113
53011SOL    HW260866   3.255  11.676  12.118
53012SOL     OW60867   4.356   7.040   6.880
53012SOL    HW160868   4.447   7.020   6.858
53012SOL    HW260869   4.351   7.029   6.975
53013SOL     OW60870   0.272   5.961   4.453
53013SOL    HW160871   0.278   5.927   4.542
53013SOL    HW260872   0.189   5.927   4.420
53014SOL     OW60873   7.394   3.042  13.073
53014SOL    HW160874   7.331   3.018  13.141
53014SOL    HW260875   7.377   2.980  13.002
53015SOL     OW60876   1.116  13.945   6.806
53015SOL    HW160877   1.148  14.018   6.858
53015SOL    HW260878   1.195  13.906   6.768
53016SOL     OW60879   7.990   3.427  11.760
53016SOL    HW160880   7.897   3.410  11.747
53016SOL    HW260881   8.026   3.344  11.789
53017SOL     OW60882  14.371  12.053   0.178
53017SOL    HW160883  14.334  11.988   0.118
53017SOL    HW260884  14.464  12.056   0.155
53018SOL     OW60885  12.520   5.837  12.312
53018SOL    HW160886  12.531   5.821  12.406
53018SOL    HW260887  12.440   5.888  12.305
53019SOL     OW60888   1.546   1.530   6.544
53019SOL    HW160889   1.556   1.625   6.551
53019SOL    HW260890   1.516   1.515   6.454
53020SOL     OW60891  14.816   0.512  12.632
53020SOL    HW160892  14.779   0.540  12.548
53020SOL    HW260893  14.803   0.417  12.634
53021SOL     OW60894   5.569  12.879  13.776
53021SOL    HW160895   5.550  12.786  13.759
53021SOL    HW260896   5.525  12.898  13.859
53022SOL     OW60897   4.640   5.069   1.380
53022SOL    HW160898   4.614   5.146   1.330
53022SOL    HW260899   4.646   4.999   1.314
53023SOL     OW60900   7.493   0.672   9.976
53023SOL    HW160901   7.461   0.602  10.032
53023SOL    HW260902   7.550   0.724  10.033
53024SOL     OW60903   9.388  12.039   6.539
53024SOL    HW160904   9.337  12.089   6.475
53024SOL    HW260905   9.323  12.002   6.599
53025SOL     OW60906  12.969   8.974   0.495
53025SOL    HW160907  12.875   8.978   0.513
53025SOL    HW260908  13.006   9.049   0.543
53026SOL     OW60909  14.347   3.153   1.442
53026SOL    HW160910  14.440   3.141   1.463
53026SOL    HW260911  14.346   3.208   1.364
53027SOL     OW60912  13.812   2.447   9.059
53027SOL    HW160913  13.727   2.407   9.039
53027SOL    HW260914  13.875   2.394   9.012
53028SOL     OW60915  10.718  12.456   7.589
53028SOL    HW160916  10.649  12.432   7.527
53028SOL    HW260917  10.695  12.409   7.669
53029SOL     OW60918   2.213  13.138   6.674
53029SOL    HW160919   2.300  13.103   6.655
53029SOL    HW260920   2.176  13.076   6.738
53030SOL     OW60921   4.965   9.061   3.268
53030SOL    HW160922   4.917   9.133   3.308
53030SOL    HW260923   4.994   9.007   3.342
53031SOL     OW60924  13.391   3.796   6.951
53031SOL    HW160925  13.411   3.820   7.042
53031SOL    HW260926  13.334   3.720   6.959
53032SOL     OW60927  12.769   4.150  12.313
53032SOL    HW160928  12.691   4.205  12.308
53032SOL    HW260929  12.759   4.102  12.395
53033SOL     OW60930   5.680   8.073  10.744
53033SOL    HW160931   5.616   8.015  10.703
53033SOL    HW260932   5.646   8.087  10.833
53034SOL     OW60933   7.645   0.929  12.097
53034SOL    HW160934   7.553   0.912  12.077
53034SOL    HW260935   7.683   0.951  12.012
53035SOL     OW60936  12.982   5.521   1.734
53035SOL    HW160937  12.980   5.538   1.829
53035SOL    HW260938  13.069   5.548   1.706
53036SOL     OW60939   8.460   9.314   3.621
53036SOL    HW160940   8.541   9.300   3.670
53036SOL    HW260941   8.391   9.282   3.679
53037SOL     OW60942   9.946  10.028   6.939
53037SOL    HW160943   9.862  10.074   6.932
53037SOL    HW260944   9.972  10.012   6.849
53038SOL     OW60945  11.775   3.253  10.862
53038SOL    HW160946  11.864   3.271  10.832
53038SOL    HW260947  11.785   3.229  10.954
53039SOL     OW60948  11.373   6.508  10.727
53039SOL    HW160949  11.460   6.545  10.716
53039SOL    HW260950  11.322   6.546  10.655
53040SOL     OW60951  14.501   4.483   5.253
53040SOL    HW160952  14.469   4.554   5.198
53040SOL    HW260953  14.498   4.518   5.342
53041SOL     OW60954   0.713   2.321   0.221
53041SOL    HW160955   0.770   2.276   0.158
53041SOL    HW260956   0.763   2.399   0.247
53042SOL     OW60957   5.359   9.045   5.805
53042SOL    HW160958   5.268   9.019   5.790
53042SOL    HW260959   5.375   9.023   5.897
53043SOL     OW60960   7.125   4.862   8.392
53043SOL    HW160961   7.220   4.860   8.387
53043SOL    HW260962   7.104   4.818   8.474
53044SOL     OW60963   1.846   1.896  11.485
53044SOL    HW160964   1.857   1.819  11.430
53044SOL    HW260965   1.922   1.896  11.543
53045SOL     OW60966  11.669  12.418   8.066
53045SOL    HW160967  11.628  12.494   8.026
53045SOL    HW260968  11.762  12.440   8.071
53046SOL     OW60969   2.245  13.468   1.592
53046SOL    HW160970   2.235  13.428   1.678
53046SOL    HW260971   2.207  13.555   1.601
53047SOL     OW60972   8.709   0.559   7.212
53047SOL    HW160973   8.662   0.608   7.279
53047SOL    HW260974   8.678   0.469   7.221
53048SOL     OW60975   7.181  11.490  13.308
53048SOL    HW160976   7.199  11.583  13.302
53048SOL    HW260977   7.228  11.451  13.235
53049SOL     OW60978  13.227   7.688   4.427
53049SOL    HW160979  13.135   7.715   4.436
53049SOL    HW260980  13.234   7.610   4.482
53050SOL     OW60981  14.263   3.359  14.058
53050SOL    HW160982  14.274   3.448  14.090
53050SOL    HW260983  14.305   3.359  13.972
53051SOL     OW60984  11.287   6.287   3.601
53051SOL    HW160985  11.226   6.290   3.674
53051SOL    HW260986  11.353   6.353   3.622
53052SOL     OW60987  12.912   3.792  14.375
53052SOL    HW160988  12.824   3.755  14.380
53052SOL    HW260989  12.950   3.773  14.461
53053SOL     OW60990   8.899  14.336  12.196
53053SOL    HW160991   8.960  14.263  12.183
53053SOL    HW260992   8.837  14.327  12.123
53054SOL     OW60993   5.908   2.933   4.210
53054SOL    HW160994   5.962   2.877   4.154
53054SOL    HW260995   5.965   3.007   4.232
53055SOL     OW60996   0.015   5.010   3.093
53055SOL    HW160997  14.824   4.946   3.069
53055SOL    HW260998  14.847   5.095   3.083
53056SOL     OW60999   5.639   4.784   7.909
53056SOL    HW161000   5.615   4.865   7.863
53056SOL    HW261001   5.657   4.721   7.839
53057SOL     OW61002   9.470  10.274   0.889
53057SOL    HW161003   9.503  10.197   0.935
53057SOL    HW261004   9.402  10.309   0.946
53058SOL     OW61005  12.588   2.612   7.004
53058SOL    HW161006  12.598   2.598   7.099
53058SOL    HW261007  12.505   2.657   6.995
53059SOL     OW61008  11.497   5.916   8.109
53059SOL    HW161009  11.552   5.973   8.056
53059SOL    HW261010  11.408   5.932   8.079
53060SOL     OW61011   6.608  14.555   9.909
53060SOL    HW161012   6.621  14.646   9.882
53060SOL    HW261013   6.542  14.521   9.849
53061SOL     OW61014   9.177   1.713  12.364
53061SOL    HW161015   9.103   1.655  12.381
53061SOL    HW261016   9.249   1.676  12.416
53062SOL     OW61017   6.569  13.648   2.557
53062SOL    HW161018   6.560  13.717   2.492
53062SOL    HW261019   6.590  13.569   2.506
53063SOL     OW61020  14.033   9.689   4.331
53063SOL    HW161021  14.066   9.599   4.336
53063SOL    HW261022  14.018   9.705   4.238
53064SOL     OW61023   0.311   1.038   2.830
53064SOL    HW161024   0.249   0.976   2.869
53064SOL    HW261025   0.381   0.984   2.794
53065SOL     OW61026   0.647   9.882   2.550
53065SOL    HW161027   0.571   9.917   2.597
53065SOL    HW261028   0.722   9.902   2.607
53066SOL     OW61029   0.443   1.726  10.352
53066SOL    HW161030   0.482   1.702  10.268
53066SOL    HW261031   0.484   1.666  10.415
53067SOL     OW61032  12.046  10.945   1.218
53067SOL    HW161033  12.119  10.995   1.180
53067SOL    HW261034  12.085  10.898   1.292
53068SOL     OW61035   8.528  12.509   6.712
53068SOL    HW161036   8.598  12.534   6.652
53068SOL    HW261037   8.547  12.419   6.736
53069SOL     OW61038  14.874  13.192   7.479
53069SOL    HW161039  14.868  13.119   7.540
53069SOL    HW261040  14.826  13.263   7.522
53070SOL     OW61041   2.991   2.772   6.090
53070SOL    HW161042   2.925   2.725   6.140
53070SOL    HW261043   3.070   2.719   6.096
53071SOL     OW61044  11.389   2.706   3.111
53071SOL    HW161045  11.477   2.674   3.131
53071SOL    HW261046  11.386   2.712   3.016
53072SOL     OW61047   7.672   4.491   5.989
53072SOL    HW161048   7.580   4.472   6.008
53072SOL    HW261049   7.676   4.586   5.982
53073SOL     OW61050  14.653  12.679   3.385
53073SOL    HW161051  14.696  12.752   3.429
53073SOL    HW261052  14.630  12.713   3.299
53074SOL     OW61053   9.844  14.556  12.260
53074SOL    HW161054   9.881  14.640  12.288
53074SOL    HW261055   9.781  14.533  12.329
53075SOL     OW61056   1.804  12.851   4.308
53075SOL    HW161057   1.834  12.794   4.380
53075SOL    HW261058   1.883  12.894   4.277
53076SOL     OW61059  10.741   7.475   9.131
53076SOL    HW161060  10.823   7.433   9.155
53076SOL    HW261061  10.685   7.464   9.208
53077SOL     OW61062   4.723  10.515   7.217
53077SOL    HW161063   4.759  10.518   7.305
53077SOL    HW261064   4.718  10.607   7.190
53078SOL     OW61065   6.179   4.127   3.925
53078SOL    HW161066   6.268   4.162   3.932
53078SOL    HW261067   6.162   4.123   3.831
53079SOL     OW61068   6.518   3.558   2.100
53079SOL    HW161069   6.519   3.615   2.022
53079SOL    HW261070   6.439   3.506   2.090
53080SOL     OW61071  14.787   9.873   3.966
53080SOL    HW161072  14.846   9.815   4.016
53080SOL    HW261073  14.834   9.956   3.961
53081SOL     OW61074  12.413  10.276   9.936
53081SOL    HW161075  12.451  10.288  10.023
53081SOL    HW261076  12.325  10.315   9.943
53082SOL     OW61077   8.340   5.406   2.422
53082SOL    HW161078   8.419   5.382   2.470
53082SOL    HW261079   8.284   5.328   2.428
53083SOL     OW61080   9.948  11.042  10.243
53083SOL    HW161081  10.034  11.081  10.259
53083SOL    HW261082   9.958  10.950  10.267
53084SOL     OW61083   0.347   8.518   8.007
53084SOL    HW161084   0.441   8.537   7.995
53084SOL    HW261085   0.334   8.519   8.101
53085SOL     OW61086   5.787   4.714   1.019
53085SOL    HW161087   5.792   4.634   1.072
53085SOL    HW261088   5.794   4.683   0.929
53086SOL     OW61089   0.741   4.315  11.852
53086SOL    HW161090   0.659   4.311  11.802
53086SOL    HW261091   0.732   4.247  11.918
53087SOL     OW61092  13.530  10.902  12.691
53087SOL    HW161093  13.448  10.885  12.737
53087SOL    HW261094  13.590  10.834  12.721
53088SOL     OW61095  13.627   1.583   2.144
53088SOL    HW161096  13.633   1.565   2.238
53088SOL    HW261097  13.615   1.678   2.138
53089SOL     OW61098   3.224  12.136  12.598
53089SOL    HW161099   3.313  12.157  12.629
53089SOL    HW261100   3.224  12.165  12.507
53090SOL     OW61101   1.221  12.498   7.303
53090SOL    HW161102   1.261  12.560   7.365
53090SOL    HW261103   1.210  12.549   7.223
53091SOL     OW61104   8.726  10.519   8.445
53091SOL    HW161105   8.740  10.447   8.383
53091SOL    HW261106   8.806  10.520   8.499
53092SOL     OW61107   4.629   6.753   3.482
53092SOL    HW161108   4.618   6.805   3.561
53092SOL    HW261109   4.706   6.699   3.499
53093SOL     OW61110  10.462   4.250  13.151
53093SOL    HW161111  10.508   4.196  13.215
53093SOL    HW261112  10.526   4.267  13.082
53094SOL     OW61113  11.020   2.260  14.447
53094SOL    HW161114  10.952   2.310  14.401
53094SOL    HW261115  11.052   2.198  14.382
53095SOL     OW61116   8.542   0.303   6.750
53095SOL    HW161117   8.633   0.314   6.722
53095SOL    HW261118   8.495   0.279   6.670
53096SOL     OW61119  12.482  12.478  12.351
53096SOL    HW161120  12.476  12.389  12.385
53096SOL    HW261121  12.413  12.526  12.397
53097SOL     OW61122   1.462  10.528   1.980
53097SOL    HW161123   1.370  10.529   1.957
53097SOL    HW261124   1.465  10.567   2.068
53098SOL     OW61125  11.726   6.548   9.472
53098SOL    HW161126  11.642   6.593   9.464
53098SOL    HW261127  11.703   6.455   9.474
53099SOL     OW61128   2.417   4.724   8.698
53099SOL    HW161129   2.412   4.676   8.780
53099SOL    HW261130   2.478   4.674   8.644
53100SOL     OW61131  14.124   1.001  12.410
53100SOL    HW161132  14.198   1.050  12.446
53100SOL    HW261133  14.091   0.949  12.483
53101SOL     OW61134   1.770  11.042   8.305
53101SOL    HW161135   1.811  11.111   8.356
53101SOL    HW261136   1.794  10.961   8.350
53102SOL     OW61137   0.097  13.217   9.247
53102SOL    HW161138   0.181  13.244   9.285
53102SOL    HW261139   0.052  13.300   9.229
53103SOL     OW61140  13.455   5.651   6.951
53103SOL    HW161141  13.528   5.652   6.889
53103SOL    HW261142  13.485   5.593   7.022
53104SOL     OW61143   2.778   5.501  13.526
53104SOL    HW161144   2.775   5.413  13.563
53104SOL    HW261145   2.737   5.556  13.594
53105SOL     OW61146   2.238   7.570   3.195
53105SOL    HW161147   2.199   7.489   3.226
53105SOL    HW261148   2.164   7.623   3.165
53106SOL     OW61149   0.946   8.826   0.380
53106SOL    HW161150   0.989   8.762   0.322
53106SOL    HW261151   0.972   8.798   0.469
53107SOL     OW61152  14.864   2.045  14.339
53107SOL    HW161153   0.067   1.997  14.362
53107SOL    HW261154  14.838   2.010  14.254
53108SOL     OW61155   2.042  12.495   7.577
53108SOL    HW161156   2.110  12.429   7.563
53108SOL    HW261157   2.052  12.556   7.504
53109SOL     OW61158   7.273   2.829  12.199
53109SOL    HW161159   7.282   2.735  12.212
53109SOL    HW261160   7.262   2.864  12.287
53110SOL     OW61161   4.835   6.377  10.141
53110SOL    HW161162   4.781   6.351  10.066
53110SOL    HW261163   4.786   6.346  10.217
53111SOL     OW61164  10.756  11.091   1.764
53111SOL    HW161165  10.711  11.012   1.736
53111SOL    HW261166  10.729  11.158   1.702
53112SOL     OW61167   3.680   8.132   8.573
53112SOL    HW161168   3.677   8.158   8.665
53112SOL    HW261169   3.773   8.136   8.551
53113SOL     OW61170  14.298   2.890   1.927
53113SOL    HW161171  14.391   2.904   1.910
53113SOL    HW261172  14.253   2.954   1.873
53114SOL     OW61173  10.102   8.434   0.572
53114SOL    HW161174  10.126   8.440   0.664
53114SOL    HW261175  10.177   8.471   0.525
53115SOL     OW61176   9.647   8.118  10.972
53115SOL    HW161177   9.620   8.108  10.881
53115SOL    HW261178   9.590   8.187  11.006
53116SOL     OW61179   0.493  12.260  12.642
53116SOL    HW161180   0.498  12.253  12.547
53116SOL    HW261181   0.401  12.280  12.660
53117SOL     OW61182  13.702   0.787  13.928
53117SOL    HW161183  13.675   0.878  13.915
53117SOL    HW261184  13.745   0.763  13.846
53118SOL     OW61185  11.731   6.150   3.931
53118SOL    HW161186  11.753   6.057   3.933
53118SOL    HW261187  11.709   6.171   4.022
53119SOL     OW61188   5.040  11.643   0.276
53119SOL    HW161189   5.011  11.693   0.352
53119SOL    HW261190   5.132  11.667   0.266
53120SOL     OW61191   0.458   4.729  14.431
53120SOL    HW161192   0.513   4.766  14.362
53120SOL    HW261193   0.520   4.706  14.501
53121SOL     OW61194   6.853  11.419   9.689
53121SOL    HW161195   6.806  11.389   9.611
53121SOL    HW261196   6.873  11.340   9.738
53122SOL     OW61197   2.819   1.676   4.410
53122SOL    HW161198   2.888   1.613   4.431
53122SOL    HW261199   2.851   1.760   4.443
53123SOL     OW61200  11.837   6.430   0.950
53123SOL    HW161201  11.823   6.518   0.985
53123SOL    HW261202  11.806   6.434   0.860
53124SOL     OW61203   7.809   4.255   6.572
53124SOL    HW161204   7.880   4.231   6.631
53124SOL    HW261205   7.854   4.282   6.491
53125SOL     OW61206   7.735  13.972   9.926
53125SOL    HW161207   7.686  13.893   9.948
53125SOL    HW261208   7.820  13.940   9.895
53126SOL     OW61209   3.163   4.099   7.451
53126SOL    HW161210   3.178   4.036   7.381
53126SOL    HW261211   3.074   4.080   7.482
53127SOL     OW61212  12.828  14.429  12.102
53127SOL    HW161213  12.888  14.375  12.051
53127SOL    HW261214  12.752  14.441  12.046
53128SOL     OW61215   8.408   2.726   9.989
53128SOL    HW161216   8.497   2.753  10.009
53128SOL    HW261217   8.406   2.633  10.010
53129SOL     OW61218   8.138   3.375  11.322
53129SOL    HW161219   8.078   3.429  11.373
53129SOL    HW261220   8.161   3.303  11.381
53130SOL     OW61221  14.132  12.880   4.456
53130SOL    HW161222  14.207  12.931   4.485
53130SOL    HW261223  14.149  12.791   4.486
53131SOL     OW61224  12.847   3.286  12.339
53131SOL    HW161225  12.823   3.222  12.406
53131SOL    HW261226  12.840   3.371  12.382
53132SOL     OW61227  10.471  13.818  14.184
53132SOL    HW161228  10.436  13.754  14.122
53132SOL    HW261229  10.438  13.789  14.269
53133SOL     OW61230  13.098  11.376   6.921
53133SOL    HW161231  13.071  11.310   6.985
53133SOL    HW261232  13.017  11.424   6.901
53134SOL     OW61233   0.735   3.190   5.901
53134SOL    HW161234   0.661   3.147   5.944
53134SOL    HW261235   0.755   3.134   5.826
53135SOL     OW61236   8.103  11.102   3.071
53135SOL    HW161237   8.122  11.029   3.012
53135SOL    HW261238   8.019  11.080   3.110
53136SOL     OW61239  12.572  10.717  11.236
53136SOL    HW161240  12.536  10.791  11.284
53136SOL    HW261241  12.547  10.733  11.145
53137SOL     OW61242   9.728   1.761   3.927
53137SOL    HW161243   9.741   1.677   3.882
53137SOL    HW261244   9.657   1.744   3.989
53138SOL     OW61245   0.517   8.649   7.594
53138SOL    HW161246   0.450   8.615   7.654
53138SOL    HW261247   0.600   8.633   7.639
53139SOL     OW61248   6.939   0.010  14.069
53139SOL    HW161249   6.959   0.093  14.025
53139SOL    HW261250   6.865   0.031  14.126
53140SOL     OW61251   1.154   1.914  11.069
53140SOL    HW161252   1.215   1.841  11.055
53140SOL    HW261253   1.200   1.991  11.035
53141SOL     OW61254  14.768   7.687   8.415
53141SOL    HW161255  14.820   7.653   8.343
53141SOL    HW261256  14.696   7.625   8.424
53142SOL     OW61257   1.391   0.607   8.110
53142SOL    HW161258   1.388   0.524   8.062
53142SOL    HW261259   1.469   0.650   8.077
53143SOL     OW61260   9.514   7.329  12.674
53143SOL    HW161261   9.587   7.314  12.615
53143SOL    HW261262   9.437   7.300  12.626
53144SOL     OW61263   6.835   0.599   6.451
53144SOL    HW161264   6.783   0.524   6.480
53144SOL    HW261265   6.771   0.665   6.425
53145SOL     OW61266   3.415  10.538   7.160
53145SOL    HW161267   3.453  10.450   7.158
53145SOL    HW261268   3.457  10.581   7.234
53146SOL     OW61269   2.932   5.010  12.354
53146SOL    HW161270   2.971   5.043  12.435
53146SOL    HW261271   2.974   5.059  12.284
53147SOL     OW61272  10.384   6.012   7.325
53147SOL    HW161273  10.414   6.062   7.401
53147SOL    HW261274  10.383   6.075   7.254
53148SOL     OW61275  13.986   9.467   7.482
53148SOL    HW161276  13.913   9.406   7.486
53148SOL    HW261277  13.946   9.554   7.486
53149SOL     OW61278   9.746   4.203   2.042
53149SOL    HW161279   9.828   4.234   2.081
53149SOL    HW261280   9.766   4.192   1.949
53150SOL     OW61281   9.238  14.575   8.368
53150SOL    HW161282   9.227  14.670   8.364
53150SOL    HW261283   9.150  14.541   8.378
53151SOL     OW61284  13.484  10.260  10.290
53151SOL    HW161285  13.402  10.234  10.331
53151SOL    HW261286  13.459  10.327  10.227
53152SOL     OW61287   8.558   7.485   0.482
53152SOL    HW161288   8.644   7.493   0.522
53152SOL    HW261289   8.561   7.403   0.433
53153SOL     OW61290  14.140   2.067  11.585
53153SOL    HW161291  14.090   1.999  11.630
53153SOL    HW261292  14.115   2.149  11.629
53154SOL     OW61293  11.186   9.965   7.562
53154SOL    HW161294  11.119   9.995   7.500
53154SOL    HW261295  11.214   9.880   7.528
53155SOL     OW61296   3.832   4.786  11.627
53155SOL    HW161297   3.822   4.873  11.665
53155SOL    HW261298   3.751   4.740  11.652
53156SOL     OW61299   7.465  14.728   9.278
53156SOL    HW161300   7.481  14.694   9.367
53156SOL    HW261301   7.456  14.650   9.224
53157SOL     OW61302   7.243   9.232   6.751
53157SOL    HW161303   7.245   9.305   6.689
53157SOL    HW261304   7.158   9.238   6.794
53158SOL     OW61305   1.797  13.296   4.801
53158SOL    HW161306   1.864  13.236   4.769
53158SOL    HW261307   1.818  13.379   4.758
53159SOL     OW61308   7.870  11.873   6.168
53159SOL    HW161309   7.910  11.900   6.085
53159SOL    HW261310   7.945  11.850   6.223
53160SOL     OW61311   4.522  13.465   5.058
53160SOL    HW161312   4.443  13.412   5.049
53160SOL    HW261313   4.528  13.483   5.152
53161SOL     OW61314   7.427   0.928  13.682
53161SOL    HW161315   7.414   1.017  13.650
53161SOL    HW261316   7.514   0.903  13.649
53162SOL     OW61317  11.601   2.408  14.014
53162SOL    HW161318  11.674   2.346  14.018
53162SOL    HW261319  11.545   2.376  13.943
53163SOL     OW61320   9.050  13.171   7.145
53163SOL    HW161321   9.136  13.129   7.141
53163SOL    HW261322   9.066  13.255   7.187
53164SOL     OW61323   8.440  14.806   8.450
53164SOL    HW161324   8.478  14.824   8.364
53164SOL    HW261325   8.347  14.796   8.433
53165SOL     OW61326   2.603   0.694   7.218
53165SOL    HW161327   2.637   0.697   7.129
53165SOL    HW261328   2.680   0.707   7.273
53166SOL     OW61329  14.408   5.874  11.548
53166SOL    HW161330  14.439   5.783  11.550
53166SOL    HW261331  14.457   5.914  11.476
53167SOL     OW61332   6.716  12.481   8.150
53167SOL    HW161333   6.670  12.543   8.094
53167SOL    HW261334   6.806  12.513   8.152
53168SOL     OW61335   2.452   7.775  12.987
53168SOL    HW161336   2.471   7.855  13.036
53168SOL    HW261337   2.504   7.708  13.030
53169SOL     OW61338  12.794   1.680   7.589
53169SOL    HW161339  12.788   1.584   7.592
53169SOL    HW261340  12.703   1.709   7.588
53170SOL     OW61341   7.995  13.335  13.264
53170SOL    HW161342   7.911  13.345  13.309
53170SOL    HW261343   7.971  13.307  13.176
53171SOL     OW61344   7.147   3.382   3.668
53171SOL    HW161345   7.065   3.357   3.627
53171SOL    HW261346   7.122   3.416   3.754
53172SOL     OW61347   6.321   3.419  14.271
53172SOL    HW161348   6.314   3.510  14.300
53172SOL    HW261349   6.405   3.415  14.224
53173SOL     OW61350  13.346   5.503  12.101
53173SOL    HW161351  13.375   5.420  12.063
53173SOL    HW261352  13.266   5.525  12.053
53174SOL     OW61353  11.810   3.030  10.630
53174SOL    HW161354  11.748   3.093  10.593
53174SOL    HW261355  11.833   3.067  10.715
53175SOL     OW61356  10.185  14.321   5.562
53175SOL    HW161357  10.132  14.400   5.555
53175SOL    HW261358  10.269  14.352   5.597
53176SOL     OW61359   5.109  13.806  10.952
53176SOL    HW161360   5.192  13.820  10.997
53176SOL    HW261361   5.131  13.801  10.859
53177SOL     OW61362   3.910   9.107  12.263
53177SOL    HW161363   3.939   9.098  12.172
53177SOL    HW261364   3.904   9.017  12.295
53178SOL     OW61365   4.697   0.263   8.228
53178SOL    HW161366   4.736   0.310   8.154
53178SOL    HW261367   4.603   0.268   8.213
53179SOL     OW61368   2.464   3.435   5.159
53179SOL    HW161369   2.377   3.457   5.126
53179SOL    HW261370   2.524   3.474   5.095
53180SOL     OW61371  14.014   6.722   2.834
53180SOL    HW161372  13.926   6.758   2.831
53180SOL    HW261373  14.007   6.648   2.894
53181SOL     OW61374  11.572   7.690   4.477
53181SOL    HW161375  11.617   7.628   4.420
53181SOL    HW261376  11.639   7.754   4.502
53182SOL     OW61377  10.752  11.520  11.517
53182SOL    HW161378  10.842  11.553  11.504
53182SOL    HW261379  10.716  11.577  11.585
53183SOL     OW61380   0.435   7.866   8.475
53183SOL    HW161381   0.345   7.887   8.451
53183SOL    HW261382   0.468   7.945   8.517
53184SOL     OW61383   8.887   9.564   0.625
53184SOL    HW161384   8.856   9.504   0.693
53184SOL    HW261385   8.813   9.569   0.564
53185SOL     OW61386   9.411   0.757   6.515
53185SOL    HW161387   9.435   0.804   6.594
53185SOL    HW261388   9.346   0.692   6.544
53186SOL     OW61389  13.964   3.105   7.893
53186SOL    HW161390  13.975   3.197   7.918
53186SOL    HW261391  14.014   3.056   7.957
53187SOL     OW61392  14.088   9.968  10.670
53187SOL    HW161393  14.030  10.043  10.680
53187SOL    HW261394  14.158   9.983  10.734
53188SOL     OW61395  10.994  10.191  12.950
53188SOL    HW161396  11.077  10.233  12.925
53188SOL    HW261397  10.953  10.254  13.010
53189SOL     OW61398  14.673  14.422   2.886
53189SOL    HW161399  14.605  14.487   2.874
53189SOL    HW261400  14.680  14.377   2.802
53190SOL     OW61401  12.972   4.687   7.624
53190SOL    HW161402  12.899   4.632   7.653
53190SOL    HW261403  13.022   4.704   7.704
53191SOL     OW61404   2.200   5.509  11.061
53191SOL    HW161405   2.120   5.547  11.098
53191SOL    HW261406   2.263   5.511  11.133
53192SOL     OW61407   8.150  10.664   0.044
53192SOL    HW161408   8.237  10.672   0.083
53192SOL    HW261409   8.166  10.620  14.836
53193SOL     OW61410   7.490  10.736   3.330
53193SOL    HW161411   7.516  10.730   3.423
53193SOL    HW261412   7.395  10.732   3.332
53194SOL     OW61413   9.221   3.718   3.063
53194SOL    HW161414   9.254   3.798   3.103
53194SOL    HW261415   9.299   3.673   3.031
53195SOL     OW61416   0.534   7.292   5.675
53195SOL    HW161417   0.538   7.208   5.629
53195SOL    HW261418   0.624   7.309   5.702
53196SOL     OW61419   3.316   6.046   9.220
53196SOL    HW161420   3.259   6.119   9.244
53196SOL    HW261421   3.402   6.087   9.205
53197SOL     OW61422   7.192  11.508  10.527
53197SOL    HW161423   7.113  11.526  10.578
53197SOL    HW261424   7.179  11.555  10.444
53198SOL     OW61425   2.082   7.267   1.738
53198SOL    HW161426   2.031   7.203   1.689
53198SOL    HW261427   2.017   7.322   1.780
53199SOL     OW61428  13.463   6.152   7.549
53199SOL    HW161429  13.550   6.170   7.514
53199SOL    HW261430  13.451   6.057   7.536
53200SOL     OW61431  11.104   2.685  12.677
53200SOL    HW161432  11.162   2.760  12.663
53200SOL    HW261433  11.097   2.677  12.772
53201SOL     OW61434   3.894   8.588  11.332
53201SOL    HW161435   3.951   8.512  11.319
53201SOL    HW261436   3.881   8.623  11.244
53202SOL     OW61437   6.479  13.645   3.070
53202SOL    HW161438   6.476  13.591   3.150
53202SOL    HW261439   6.388  13.655   3.044
53203SOL     OW61440   9.123   8.799   2.477
53203SOL    HW161441   9.083   8.771   2.395
53203SOL    HW261442   9.078   8.748   2.545
53204SOL     OW61443   7.039   5.306   7.447
53204SOL    HW161444   6.970   5.240   7.446
53204SOL    HW261445   7.090   5.286   7.526
53205SOL     OW61446  11.927  11.094   9.363
53205SOL    HW161447  11.861  11.162   9.375
53205SOL    HW261448  11.931  11.050   9.448
53206SOL     OW61449  11.138   6.236   3.843
53206SOL    HW161450  11.143   6.156   3.791
53206SOL    HW261451  11.080   6.214   3.915
53207SOL     OW61452  11.823   9.592  14.084
53207SOL    HW161453  11.786   9.615  14.169
53207SOL    HW261454  11.874   9.513  14.101
53208SOL     OW61455   8.885  13.644   2.152
53208SOL    HW161456   8.836  13.608   2.079
53208SOL    HW261457   8.819  13.680   2.210
53209SOL     OW61458  12.326   3.086   0.874
53209SOL    HW161459  12.342   3.084   0.780
53209SOL    HW261460  12.344   2.997   0.904
53210SOL     OW61461  13.390   7.852  13.948
53210SOL    HW161462  13.387   7.868  14.042
53210SOL    HW261463  13.325   7.783  13.933
53211SOL     OW61464  12.935   2.841   8.979
53211SOL    HW161465  12.899   2.904   8.916
53211SOL    HW261466  12.869   2.772   8.984
53212SOL     OW61467   6.541   0.171  10.070
53212SOL    HW161468   6.452   0.165  10.034
53212SOL    HW261469   6.575   0.082  10.061
53213SOL     OW61470   7.508   6.716   4.807
53213SOL    HW161471   7.499   6.790   4.747
53213SOL    HW261472   7.430   6.663   4.793
53214SOL     OW61473   5.503   0.733   4.748
53214SOL    HW161474   5.493   0.799   4.816
53214SOL    HW261475   5.413   0.706   4.727
53215SOL     OW61476  11.604   9.457  13.129
53215SOL    HW161477  11.605   9.510  13.050
53215SOL    HW261478  11.586   9.518  13.200
53216SOL     OW61479   3.658   4.576   3.650
53216SOL    HW161480   3.686   4.605   3.563
53216SOL    HW261481   3.597   4.504   3.633
53217SOL     OW61482   4.975  12.557  13.892
53217SOL    HW161483   4.884  12.550  13.919
53217SOL    HW261484   4.977  12.634  13.834
53218SOL     OW61485   3.868   2.248   8.001
53218SOL    HW161486   3.918   2.230   8.080
53218SOL    HW261487   3.914   2.321   7.959
53219SOL     OW61488   0.964   4.114   9.414
53219SOL    HW161489   1.001   4.120   9.326
53219SOL    HW261490   0.885   4.169   9.410
53220SOL     OW61491   7.344  14.423   4.110
53220SOL    HW161492   7.274  14.425   4.045
53220SOL    HW261493   7.418  14.383   4.063
53221SOL     OW61494  14.853   8.384   7.639
53221SOL    HW161495   0.072   8.392   7.646
53221SOL    HW261496  14.819   8.460   7.687
53222SOL     OW61497  14.598   5.473  10.817
53222SOL    HW161498  14.603   5.441  10.727
53222SOL    HW261499  14.682   5.516  10.832
53223SOL     OW61500  12.973   8.238   8.463
53223SOL    HW161501  12.986   8.241   8.558
53223SOL    HW261502  13.058   8.213   8.428
53224SOL     OW61503  13.735   1.639  11.402
53224SOL    HW161504  13.823   1.602  11.407
53224SOL    HW261505  13.717   1.648  11.309
53225SOL     OW61506   2.912   8.316   6.985
53225SOL    HW161507   3.005   8.304   6.964
53225SOL    HW261508   2.911   8.369   7.064
53226SOL     OW61509  14.666   1.981   0.263
53226SOL    HW161510  14.625   1.894   0.256
53226SOL    HW261511  14.732   1.981   0.194
53227SOL     OW61512   2.882   2.227   8.980
53227SOL    HW161513   2.887   2.322   8.978
53227SOL    HW261514   2.914   2.202   9.066
53228SOL     OW61515   8.271  14.838  12.937
53228SOL    HW161516   8.314   0.025  12.880
53228SOL    HW261517   8.297  14.752  12.902
53229SOL     OW61518   3.021   0.179  11.889
53229SOL    HW161519   3.076   0.101  11.881
53229SOL    HW261520   2.965   0.161  11.965
53230SOL     OW61521   6.702  14.800  13.794
53230SOL    HW161522   6.616  14.833  13.820
53230SOL    HW261523   6.753  14.797  13.875
53231SOL     OW61524   1.335  14.651  11.768
53231SOL    HW161525   1.331  14.651  11.672
53231SOL    HW261526   1.415  14.602  11.788
53232SOL     OW61527   3.268   2.243   4.814
53232SOL    HW161528   3.286   2.285   4.730
53232SOL    HW261529   3.355   2.231   4.853
53233SOL     OW61530  10.447   7.249  12.242
53233SOL    HW161531  10.381   7.304  12.285
53233SOL    HW261532  10.478   7.301  12.168
53234SOL     OW61533   1.391   7.184   0.120
53234SOL    HW161534   1.303   7.155   0.097
53234SOL    HW261535   1.408   7.258   0.061
53235SOL     OW61536   9.516   6.432  13.765
53235SOL    HW161537   9.534   6.346  13.728
53235SOL    HW261538   9.588   6.448  13.825
53236SOL     OW61539   8.789   3.844   3.587
53236SOL    HW161540   8.789   3.749   3.593
53236SOL    HW261541   8.801   3.873   3.678
53237SOL     OW61542   9.238   4.442   6.457
53237SOL    HW161543   9.328   4.469   6.443
53237SOL    HW261544   9.242   4.347   6.465
53238SOL     OW61545   7.530   9.333   0.641
53238SOL    HW161546   7.593   9.381   0.695
53238SOL    HW261547   7.569   9.330   0.554
53239SOL     OW61548   1.728   8.228   4.884
53239SOL    HW161549   1.813   8.234   4.841
53239SOL    HW261550   1.727   8.301   4.946
53240SOL     OW61551  10.469   8.154  13.612
53240SOL    HW161552  10.516   8.182  13.534
53240SOL    HW261553  10.407   8.089  13.581
53241SOL     OW61554   4.709  10.277  10.468
53241SOL    HW161555   4.620  10.246  10.488
53241SOL    HW261556   4.709  10.369  10.494
53242SOL     OW61557   9.974   0.599  10.233
53242SOL    HW161558   9.891   0.645  10.246
53242SOL    HW261559   9.952   0.523  10.180
53243SOL     OW61560   7.047  13.340   9.976
53243SOL    HW161561   6.994  13.381   9.908
53243SOL    HW261562   6.986  13.283  10.022
53244SOL     OW61563   4.041   1.107   3.347
53244SOL    HW161564   4.059   1.013   3.340
53244SOL    HW261565   4.053   1.127   3.440
53245SOL     OW61566   2.806   6.982   4.992
53245SOL    HW161567   2.719   7.013   4.968
53245SOL    HW261568   2.792   6.893   5.025
53246SOL     OW61569  12.649  13.555  10.164
53246SOL    HW161570  12.657  13.650  10.158
53246SOL    HW261571  12.725  13.521  10.118
53247SOL     OW61572   9.083   2.481   0.081
53247SOL    HW161573   9.087   2.399   0.131
53247SOL    HW261574   8.991   2.488   0.054
53248SOL     OW61575  14.282  12.882   9.616
53248SOL    HW161576  14.240  12.806   9.657
53248SOL    HW261577  14.224  12.955   9.635
53249SOL     OW61578   1.680   2.822   5.109
53249SOL    HW161579   1.772   2.795   5.106
53249SOL    HW261580   1.668   2.875   5.030
53250SOL     OW61581  14.556  11.179   6.648
53250SOL    HW161582  14.607  11.128   6.584
53250SOL    HW261583  14.595  11.157   6.733
53251SOL     OW61584   1.545   9.826  13.568
53251SOL    HW161585   1.639   9.826  13.551
53251SOL    HW261586   1.537   9.796  13.659
53252SOL     OW61587  13.585   3.381   8.087
53252SOL    HW161588  13.562   3.318   8.018
53252SOL    HW261589  13.676   3.359   8.109
53253SOL     OW61590   8.248   5.777  11.216
53253SOL    HW161591   8.164   5.785  11.171
53253SOL    HW261592   8.302   5.847  11.179
53254SOL     OW61593   6.725   9.178   4.001
53254SOL    HW161594   6.806   9.168   3.951
53254SOL    HW261595   6.731   9.265   4.039
53255SOL     OW61596  11.087   2.711   1.478
53255SOL    HW161597  11.166   2.657   1.475
53255SOL    HW261598  11.110   2.790   1.430
53256SOL     OW61599   6.762   8.553  13.864
53256SOL    HW161600   6.836   8.600  13.901
53256SOL    HW261601   6.694   8.619  13.852
53257SOL     OW61602  11.745   1.658  10.629
53257SOL    HW161603  11.732   1.696  10.541
53257SOL    HW261604  11.693   1.715  10.686
53258SOL     OW61605   3.769  10.184   3.887
53258SOL    HW161606   3.822  10.170   3.966
53258SOL    HW261607   3.686  10.218   3.920
53259SOL     OW61608   9.715   2.756   5.308
53259SOL    HW161609   9.790   2.711   5.347
53259SOL    HW261610   9.682   2.694   5.242
53260SOL     OW61611   5.293  13.783   7.760
53260SOL    HW161612   5.333  13.705   7.723
53260SOL    HW261613   5.199  13.768   7.753
53261SOL     OW61614   3.715  11.235   3.247
53261SOL    HW161615   3.765  11.313   3.271
53261SOL    HW261616   3.668  11.211   3.327
53262SOL     OW61617   8.252   4.499   5.334
53262SOL    HW161618   8.218   4.578   5.291
53262SOL    HW261619   8.311   4.532   5.402
53263SOL     OW61620  12.936   3.581   8.725
53263SOL    HW161621  12.900   3.612   8.641
53263SOL    HW261622  12.873   3.612   8.790
53264SOL     OW61623   4.310   2.941   9.641
53264SOL    HW161624   4.281   3.033   9.635
53264SOL    HW261625   4.353   2.935   9.726
53265SOL     OW61626   9.720   0.802  13.758
53265SOL    HW161627   9.685   0.836  13.840
53265SOL    HW261628   9.781   0.870  13.728
53266SOL     OW61629   9.383   4.134   9.925
53266SOL    HW161630   9.331   4.213   9.916
53266SOL    HW261631   9.380   4.092   9.840
53267SOL     OW61632   2.021   5.812  10.520
53267SOL    HW161633   1.964   5.808  10.443
53267SOL    HW261634   1.991   5.889  10.568
53268SOL     OW61635   6.491  10.506  14.664
53268SOL    HW161636   6.545  10.481  14.589
53268SOL    HW261637   6.460  10.422  14.699
53269SOL     OW61638  12.429   9.713   4.630
53269SOL    HW161639  12.405   9.802   4.603
53269SOL    HW261640  12.409   9.659   4.554
53270SOL     OW61641  12.335   6.419   1.564
53270SOL    HW161642  12.318   6.502   1.520
53270SOL    HW261643  12.319   6.437   1.657
53271SOL     OW61644  13.903  12.782   5.503
53271SOL    HW161645  13.865  12.847   5.444
53271SOL    HW261646  13.909  12.827   5.587
53272SOL     OW61647   5.658   6.380   4.557
53272SOL    HW161648   5.704   6.452   4.602
53272SOL    HW261649   5.613   6.333   4.627
53273SOL     OW61650   9.925   0.975   9.151
53273SOL    HW161651   9.857   1.013   9.206
53273SOL    HW261652  10.007   1.003   9.191
53274SOL     OW61653  14.091   8.477   2.356
53274SOL    HW161654  14.116   8.549   2.298
53274SOL    HW261655  13.996   8.468   2.342
53275SOL     OW61656   4.821   2.721   4.931
53275SOL    HW161657   4.747   2.703   4.990
53275SOL    HW261658   4.799   2.674   4.851
53276SOL     OW61659  12.880  11.099   1.051
53276SOL    HW161660  12.881  11.138   0.964
53276SOL    HW261661  12.849  11.168   1.109
53277SOL     OW61662  11.836   8.468   3.625
53277SOL    HW161663  11.910   8.493   3.569
53277SOL    HW261664  11.876   8.420   3.698
53278SOL     OW61665   8.522   8.789   9.743
53278SOL    HW161666   8.506   8.743   9.661
53278SOL    HW261667   8.435   8.820   9.770
53279SOL     OW61668   1.798   7.268   0.262
53279SOL    HW161669   1.802   7.345   0.205
53279SOL    HW261670   1.889   7.244   0.277
53280SOL     OW61671   3.472   4.456   2.341
53280SOL    HW161672   3.410   4.527   2.359
53280SOL    HW261673   3.517   4.442   2.424
53281SOL     OW61674   0.415   0.417   0.998
53281SOL    HW161675   0.360   0.349   1.036
53281SOL    HW261676   0.375   0.436   0.913
53282SOL     OW61677  10.152  11.357   5.700
53282SOL    HW161678  10.102  11.375   5.620
53282SOL    HW261679  10.237  11.397   5.685
53283SOL     OW61680  10.001   8.963   2.838
53283SOL    HW161681   9.938   8.976   2.909
53283SOL    HW261682   9.967   9.015   2.766
53284SOL     OW61683   6.115   0.444   0.575
53284SOL    HW161684   6.137   0.506   0.506
53284SOL    HW261685   6.126   0.493   0.657
53285SOL     OW61686  11.038   7.849  12.952
53285SOL    HW161687  11.096   7.855  13.028
53285SOL    HW261688  11.041   7.936  12.912
53286SOL     OW61689  11.543   4.283   7.650
53286SOL    HW161690  11.571   4.265   7.560
53286SOL    HW261691  11.602   4.353   7.679
53287SOL     OW61692  12.246  11.585  11.915
53287SOL    HW161693  12.179  11.543  11.969
53287SOL    HW261694  12.300  11.634  11.977
53288SOL     OW61695   5.659   7.168   5.037
53288SOL    HW161696   5.741   7.120   5.030
53288SOL    HW261697   5.685   7.260   5.045
53289SOL     OW61698  12.254  11.002   2.988
53289SOL    HW161699  12.285  11.042   2.906
53289SOL    HW261700  12.257  11.073   3.052
53290SOL     OW61701  12.946   6.915  13.719
53290SOL    HW161702  13.030   6.871  13.702
53290SOL    HW261703  12.880   6.857  13.681
53291SOL     OW61704  10.530   9.051   4.564
53291SOL    HW161705  10.523   9.007   4.649
53291SOL    HW261706  10.561   8.983   4.505
53292SOL     OW61707   0.499  12.601   8.272
53292SOL    HW161708   0.435  12.593   8.343
53292SOL    HW261709   0.469  12.541   8.205
53293SOL     OW61710   1.707   4.099   1.422
53293SOL    HW161711   1.661   4.183   1.416
53293SOL    HW261712   1.736   4.095   1.513
53294SOL     OW61713   4.992  11.086   6.985
53294SOL    HW161714   5.051  11.150   6.945
53294SOL    HW261715   4.922  11.074   6.920
53295SOL     OW61716   4.601   4.686   0.812
53295SOL    HW161717   4.641   4.662   0.895
53295SOL    HW261718   4.519   4.637   0.810
53296SOL     OW61719   2.579   5.399   9.760
53296SOL    HW161720   2.623   5.446   9.689
53296SOL    HW261721   2.566   5.465   9.828
53297SOL     OW61722   6.194   3.659   3.883
53297SOL    HW161723   6.131   3.700   3.942
53297SOL    HW261724   6.217   3.729   3.820
53298SOL     OW61725  11.607  10.434   1.077
53298SOL    HW161726  11.616  10.417   1.170
53298SOL    HW261727  11.513  10.434   1.061
53299SOL     OW61728   0.885   0.703  13.143
53299SOL    HW161729   0.825   0.695  13.217
53299SOL    HW261730   0.868   0.625  13.090
53300SOL     OW61731   4.339   5.283   6.688
53300SOL    HW161732   4.260   5.229   6.693
53300SOL    HW261733   4.408   5.221   6.664
53301SOL     OW61734   5.810   3.466   6.329
53301SOL    HW161735   5.726   3.498   6.362
53301SOL    HW261736   5.854   3.545   6.296
53302SOL     OW61737  12.688  12.316   8.088
53302SOL    HW161738  12.640  12.328   8.007
53302SOL    HW261739  12.743  12.394   8.096
53303SOL     OW61740   9.951   4.067   4.378
53303SOL    HW161741   9.975   4.077   4.287
53303SOL    HW261742   9.978   3.977   4.400
53304SOL     OW61743  14.298   7.499   6.791
53304SOL    HW161744  14.250   7.417   6.782
53304SOL    HW261745  14.349   7.488   6.871
53305SOL     OW61746   1.106   1.043   0.629
53305SOL    HW161747   1.073   1.025   0.717
53305SOL    HW261748   1.195   1.006   0.629
53306SOL     OW61749   7.775   7.638   0.104
53306SOL    HW161750   7.683   7.617   0.120
53306SOL    HW261751   7.813   7.645   0.191
53307SOL     OW61752   6.600   1.665  12.935
53307SOL    HW161753   6.689   1.660  12.898
53307SOL    HW261754   6.588   1.757  12.957
53308SOL     OW61755   1.752  12.221   6.703
53308SOL    HW161756   1.808  12.288   6.663
53308SOL    HW261757   1.663  12.244   6.677
53309SOL     OW61758   3.556   6.036   9.985
53309SOL    HW161759   3.462   6.034   9.965
53309SOL    HW261760   3.572   5.955  10.034
53310SOL     OW61761  12.460   0.509   0.688
53310SOL    HW161762  12.420   0.594   0.671
53310SOL    HW261763  12.502   0.485   0.605
53311SOL     OW61764   0.470  12.383  13.970
53311SOL    HW161765   0.550  12.340  13.938
53311SOL    HW261766   0.487  12.477  13.958
53312SOL     OW61767   0.593  14.085   6.285
53312SOL    HW161768   0.631  14.011   6.334
53312SOL    HW261769   0.610  14.161   6.340
53313SOL     OW61770   3.670   1.624  12.615
53313SOL    HW161771   3.737   1.610  12.549
53313SOL    HW261772   3.632   1.709  12.592
53314SOL     OW61773  13.505   2.123  14.708
53314SOL    HW161774  13.534   2.109  14.618
53314SOL    HW261775  13.537   2.047  14.756
53315SOL     OW61776   1.500  11.345   5.011
53315SOL    HW161777   1.561  11.303   5.071
53315SOL    HW261778   1.414  11.311   5.037
53316SOL     OW61779   4.550   6.057   9.634
53316SOL    HW161780   4.489   6.105   9.690
53316SOL    HW261781   4.511   6.063   9.546
53317SOL     OW61782   1.016   2.195   7.051
53317SOL    HW161783   0.962   2.273   7.065
53317SOL    HW261784   1.026   2.189   6.956
53318SOL     OW61785  10.680   2.911   7.026
53318SOL    HW161786  10.669   2.906   6.932
53318SOL    HW261787  10.619   2.980   7.054
53319SOL     OW61788   5.683   8.585   9.210
53319SOL    HW161789   5.674   8.520   9.279
53319SOL    HW261790   5.771   8.622   9.223
53320SOL     OW61791  12.578   6.975   8.981
53320SOL    HW161792  12.649   6.926   9.023
53320SOL    HW261793  12.505   6.970   9.043
53321SOL     OW61794  13.125   7.999   5.327
53321SOL    HW161795  13.215   7.969   5.323
53321SOL    HW261796  13.073   7.920   5.309
53322SOL     OW61797   5.890  10.740   9.035
53322SOL    HW161798   5.804  10.708   9.063
53322SOL    HW261799   5.910  10.811   9.096
53323SOL     OW61800   5.749  13.024   8.770
53323SOL    HW161801   5.805  13.101   8.765
53323SOL    HW261802   5.804  12.956   8.809
53324SOL     OW61803   5.037  13.257  12.935
53324SOL    HW161804   5.004  13.193  12.999
53324SOL    HW261805   5.063  13.204  12.860
53325SOL     OW61806   5.368   1.117   5.717
53325SOL    HW161807   5.353   1.024   5.700
53325SOL    HW261808   5.433   1.143   5.652
53326SOL     OW61809  13.987  14.860   5.405
53326SOL    HW161810  13.943   0.061   5.369
53326SOL    HW261811  13.953  14.852   5.494
53327SOL     OW61812  13.740  10.491   9.210
53327SOL    HW161813  13.647  10.497   9.189
53327SOL    HW261814  13.784  10.515   9.128
53328SOL     OW61815  13.265  14.438  14.341
53328SOL    HW161816  13.349  14.442  14.385
53328SOL    HW261817  13.232  14.528  14.344
53329SOL     OW61818  14.268  10.055   5.994
53329SOL    HW161819  14.350  10.051   6.043
53329SOL    HW261820  14.222  10.131   6.029
53330SOL     OW61821   2.685   7.540   1.979
53330SOL    HW161822   2.603   7.501   2.010
53330SOL    HW261823   2.726   7.472   1.926
53331SOL     OW61824   1.053  13.258  13.594
53331SOL    HW161825   1.054  13.243  13.688
53331SOL    HW261826   1.139  13.295  13.574
53332SOL     OW61827   3.446   1.746   6.954
53332SOL    HW161828   3.433   1.719   7.044
53332SOL    HW261829   3.512   1.815   6.959
53333SOL     OW61830  11.942  11.333   8.007
53333SOL    HW161831  11.982  11.252   7.975
53333SOL    HW261832  11.964  11.399   7.940
53334SOL     OW61833  12.516   7.666  11.401
53334SOL    HW161834  12.442   7.712  11.442
53334SOL    HW261835  12.539   7.597  11.464
53335SOL     OW61836   8.168   1.544   2.498
53335SOL    HW161837   8.208   1.550   2.412
53335SOL    HW261838   8.203   1.464   2.536
53336SOL     OW61839  11.842  13.515  13.796
53336SOL    HW161840  11.898  13.474  13.730
53336SOL    HW261841  11.878  13.603  13.807
53337SOL     OW61842  10.101   7.289   4.991
53337SOL    HW161843  10.139   7.345   5.059
53337SOL    HW261844  10.008   7.288   5.010
53338SOL     OW61845   6.997   8.573  10.849
53338SOL    HW161846   6.962   8.498  10.896
53338SOL    HW261847   6.919   8.624  10.825
53339SOL     OW61848   9.236  10.034  11.121
53339SOL    HW161849   9.316  10.049  11.072
53339SOL    HW261850   9.206   9.948  11.093
53340SOL     OW61851   9.294   9.752  13.727
53340SOL    HW161852   9.201   9.737  13.709
53340SOL    HW261853   9.299   9.759  13.822
53341SOL     OW61854  13.136   1.111  11.226
53341SOL    HW161855  13.062   1.166  11.250
53341SOL    HW261856  13.173   1.153  11.148
53342SOL     OW61857   0.279   9.836   3.885
53342SOL    HW161858   0.309   9.807   3.799
53342SOL    HW261859   0.296   9.762   3.943
53343SOL     OW61860   4.176   4.447   5.441
53343SOL    HW161861   4.212   4.428   5.354
53343SOL    HW261862   4.121   4.524   5.428
53344SOL     OW61863   7.962  10.371  10.269
53344SOL    HW161864   7.971  10.308  10.340
53344SOL    HW261865   7.997  10.453  10.304
53345SOL     OW61866  11.805   4.940   0.023
53345SOL    HW161867  11.893   4.917   0.053
53345SOL    HW261868  11.756   4.957   0.104
53346SOL     OW61869   7.986   8.265   1.452
53346SOL    HW161870   7.942   8.184   1.430
53346SOL    HW261871   7.961   8.282   1.542
53347SOL     OW61872   4.234   4.897   2.337
53347SOL    HW161873   4.304   4.961   2.326
53347SOL    HW261874   4.163   4.930   2.281
53348SOL     OW61875  10.836   9.992  12.384
53348SOL    HW161876  10.799   9.923  12.329
53348SOL    HW261877  10.760  10.044  12.412
53349SOL     OW61878   7.006   1.558   2.625
53349SOL    HW161879   7.101   1.557   2.615
53349SOL    HW261880   6.990   1.521   2.712
53350SOL     OW61881   5.616  10.267   7.529
53350SOL    HW161882   5.609  10.178   7.563
53350SOL    HW261883   5.525  10.297   7.523
53351SOL     OW61884  14.037  11.157   3.749
53351SOL    HW161885  14.111  11.096   3.750
53351SOL    HW261886  14.065  11.231   3.802
53352SOL     OW61887   1.816  13.348   7.801
53352SOL    HW161888   1.794  13.435   7.766
53352SOL    HW261889   1.774  13.347   7.888
53353SOL     OW61890   8.246   6.968   7.702
53353SOL    HW161891   8.160   7.003   7.680
53353SOL    HW261892   8.254   6.981   7.796
53354SOL     OW61893   9.229  10.863  13.380
53354SOL    HW161894   9.312  10.816  13.380
53354SOL    HW261895   9.224  10.905  13.467
53355SOL     OW61896   5.289   9.769   8.120
53355SOL    HW161897   5.256   9.754   8.032
53355SOL    HW261898   5.318   9.682   8.149
53356SOL     OW61899   6.431   9.943   5.755
53356SOL    HW161900   6.471   9.858   5.737
53356SOL    HW261901   6.441   9.954   5.850
53357SOL     OW61902  10.380   6.512  11.489
53357SOL    HW161903  10.339   6.591  11.454
53357SOL    HW261904  10.427   6.542  11.567
53358SOL     OW61905  10.512  11.399   4.697
53358SOL    HW161906  10.557  11.430   4.776
53358SOL    HW261907  10.579  11.401   4.629
53359SOL     OW61908   2.757   4.720   1.180
53359SOL    HW161909   2.669   4.715   1.142
53359SOL    HW261910   2.808   4.656   1.131
53360SOL     OW61911   9.400   6.957   6.815
53360SOL    HW161912   9.434   7.015   6.883
53360SOL    HW261913   9.325   6.914   6.855
53361SOL     OW61914  14.557   9.174   5.391
53361SOL    HW161915  14.577   9.111   5.461
53361SOL    HW261916  14.496   9.128   5.334
53362SOL     OW61917  10.522   2.174  10.914
53362SOL    HW161918  10.537   2.085  10.945
53362SOL    HW261919  10.608   2.205  10.887
53363SOL     OW61920   0.436  12.188  10.693
53363SOL    HW161921   0.523  12.206  10.728
53363SOL    HW261922   0.405  12.111  10.740
53364SOL     OW61923  12.076  10.177   6.790
53364SOL    HW161924  12.130  10.097   6.788
53364SOL    HW261925  12.015  10.163   6.863
53365SOL     OW61926   8.031   8.595  10.903
53365SOL    HW161927   8.087   8.527  10.867
53365SOL    HW261928   8.004   8.561  10.989
53366SOL     OW61929   3.056   4.443   6.223
53366SOL    HW161930   2.978   4.406   6.264
53366SOL    HW261931   3.101   4.489   6.294
53367SOL     OW61932   3.675   3.340  10.977
53367SOL    HW161933   3.665   3.248  10.954
53367SOL    HW261934   3.715   3.338  11.064
53368SOL     OW61935  10.449  12.559   8.154
53368SOL    HW161936  10.514  12.498   8.119
53368SOL    HW261937  10.383  12.503   8.193
53369SOL     OW61938  13.915   5.662  12.683
53369SOL    HW161939  13.912   5.688  12.591
53369SOL    HW261940  13.977   5.589  12.686
53370SOL     OW61941   0.173   3.096   1.667
53370SOL    HW161942   0.181   3.090   1.572
53370SOL    HW261943   0.236   3.164   1.693
53371SOL     OW61944   6.164  12.402   7.668
53371SOL    HW161945   6.155  12.473   7.731
53371SOL    HW261946   6.074  12.388   7.636
53372SOL     OW61947  10.648   8.890   5.955
53372SOL    HW161948  10.557   8.896   5.926
53372SOL    HW261949  10.671   8.980   5.976
53373SOL     OW61950   8.672   9.155   2.612
53373SOL    HW161951   8.615   9.207   2.555
53373SOL    HW261952   8.645   9.065   2.598
53374SOL     OW61953  11.896   9.863   7.193
53374SOL    HW161954  11.989   9.882   7.207
53374SOL    HW261955  11.896   9.784   7.140
53375SOL     OW61956  11.203  11.342   4.456
53375SOL    HW161957  11.172  11.269   4.402
53375SOL    HW261958  11.296  11.324   4.469
53376SOL     OW61959  10.528   6.686   1.330
53376SOL    HW161960  10.531   6.780   1.344
53376SOL    HW261961  10.456   6.673   1.268
53377SOL     OW61962  13.265   4.687  11.439
53377SOL    HW161963  13.210   4.758  11.473
53377SOL    HW261964  13.347   4.695  11.488
53378SOL     OW61965   9.564   0.616  11.693
53378SOL    HW161966   9.599   0.655  11.773
53378SOL    HW261967   9.637   0.568  11.655
53379SOL     OW61968   3.996   5.877   6.217
53379SOL    HW161969   3.914   5.834   6.243
53379SOL    HW261970   4.052   5.806   6.188
53380SOL     OW61971  12.073   0.547   0.404
53380SOL    HW161972  12.137   0.617   0.396
53380SOL    HW261973  11.989   0.589   0.390
53381SOL     OW61974   7.186   7.442  13.505
53381SOL    HW161975   7.200   7.354  13.469
53381SOL    HW261976   7.273   7.481  13.507
53382SOL     OW61977   2.122  11.614  12.824
53382SOL    HW161978   2.063  11.657  12.886
53382SOL    HW261979   2.130  11.677  12.752
53383SOL     OW61980   0.407   2.002   9.008
53383SOL    HW161981   0.495   2.007   9.044
53383SOL    HW261982   0.361   1.941   9.067
53384SOL     OW61983   4.837  11.451   1.008
53384SOL    HW161984   4.873  11.375   0.962
53384SOL    HW261985   4.844  11.523   0.945
53385SOL     OW61986   3.076   4.612   5.324
53385SOL    HW161987   3.146   4.547   5.329
53385SOL    HW261988   3.107   4.677   5.261
53386SOL     OW61989   3.469  14.649   2.784
53386SOL    HW161990   3.418  14.716   2.738
53386SOL    HW261991   3.457  14.569   2.732
53387SOL     OW61992   4.400   0.522   8.876
53387SOL    HW161993   4.457   0.448   8.897
53387SOL    HW261994   4.444   0.598   8.915
53388SOL     OW61995   1.894   0.645  13.935
53388SOL    HW161996   1.971   0.685  13.893
53388SOL    HW261997   1.828   0.714  13.935
53389SOL     OW61998   5.825  13.419   9.132
53389SOL    HW161999   5.805  13.394   9.222
53389SOL    HW262000   5.850  13.511   9.137
53390SOL     OW62001  10.075   5.575  13.766
53390SOL    HW162002  10.148   5.624  13.729
53390SOL    HW262003  10.114   5.521  13.834
53391SOL     OW62004   9.913   4.893   3.020
53391SOL    HW162005   9.889   4.982   3.044
53391SOL    HW262006   9.931   4.897   2.926
53392SOL     OW62007   2.564  14.651   4.338
53392SOL    HW162008   2.495  14.660   4.272
53392SOL    HW262009   2.642  14.686   4.295
53393SOL     OW62010   2.396  14.644   5.708
53393SOL    HW162011   2.474  14.642   5.652
53393SOL    HW262012   2.325  14.669   5.649
53394SOL     OW62013  12.781  11.577   5.808
53394SOL    HW162014  12.755  11.489   5.780
53394SOL    HW262015  12.786  11.627   5.726
53395SOL     OW62016   8.928  12.479  14.710
53395SOL    HW162017   8.912  12.539  14.638
53395SOL    HW262018   8.942  12.535  14.786
53396SOL     OW62019   0.808   6.287  12.375
53396SOL    HW162020   0.809   6.192  12.357
53396SOL    HW262021   0.838   6.327  12.293
53397SOL     OW62022  13.852  11.751  11.941
53397SOL    HW162023  13.804  11.822  11.984
53397SOL    HW262024  13.881  11.789  11.858
53398SOL     OW62025   3.871   6.933   3.168
53398SOL    HW162026   3.881   7.007   3.108
53398SOL    HW262027   3.886   6.969   3.255
53399SOL     OW62028   1.793  10.499  13.193
53399SOL    HW162029   1.786  10.575  13.250
53399SOL    HW262030   1.755  10.528  13.110
53400SOL     OW62031  14.365   0.757  14.793
53400SOL    HW162032  14.447   0.708  14.801
53400SOL    HW262033  14.376   0.809  14.713
53401SOL     OW62034   2.663   0.618   0.118
53401SOL    HW162035   2.611   0.590   0.193
53401SOL    HW262036   2.676   0.537   0.067
53402SOL     OW62037  10.953   2.973   4.323
53402SOL    HW162038  10.907   3.003   4.245
53402SOL    HW262039  10.894   2.995   4.395
53403SOL     OW62040   1.677   3.426   3.275
53403SOL    HW162041   1.612   3.407   3.206
53403SOL    HW262042   1.680   3.347   3.328
53404SOL     OW62043  14.255  13.571  11.756
53404SOL    HW162044  14.165  13.567  11.787
53404SOL    HW262045  14.250  13.613  11.671
53405SOL     OW62046   5.496   2.009  12.272
53405SOL    HW162047   5.541   2.018  12.188
53405SOL    HW262048   5.429   1.943  12.257
53406SOL     OW62049  13.273   7.842   7.785
53406SOL    HW162050  13.351   7.894   7.806
53406SOL    HW262051  13.238   7.817   7.871
53407SOL     OW62052  13.367   3.521   8.740
53407SOL    HW162053  13.290   3.476   8.776
53407SOL    HW262054  13.330   3.585   8.678
53408SOL     OW62055   0.213   8.962   5.265
53408SOL    HW162056   0.143   8.992   5.207
53408SOL    HW262057   0.288   8.948   5.207
53409SOL     OW62058   7.229  11.386   5.475
53409SOL    HW162059   7.303  11.392   5.414
53409SOL    HW262060   7.263  11.339   5.551
53410SOL     OW62061  14.161   2.472   0.811
53410SOL    HW162062  14.081   2.473   0.864
53410SOL    HW262063  14.162   2.385   0.772
53411SOL     OW62064   3.791   1.867   7.645
53411SOL    HW162065   3.788   1.961   7.625
53411SOL    HW262066   3.701   1.845   7.669
53412SOL     OW62067  13.458  10.694   1.271
53412SOL    HW162068  13.399  10.747   1.217
53412SOL    HW262069  13.473  10.615   1.219
53413SOL     OW62070   9.981  12.541  12.380
53413SOL    HW162071  10.018  12.550  12.292
53413SOL    HW262072  10.030  12.603  12.433
53414SOL     OW62073  14.306   2.458  10.759
53414SOL    HW162074  14.373   2.458  10.691
53414SOL    HW262075  14.223   2.467  10.712
53415SOL     OW62076   1.047   1.977   3.348
53415SOL    HW162077   1.077   1.926   3.424
53415SOL    HW262078   1.092   2.061   3.355
53416SOL     OW62079   0.323   9.954   8.584
53416SOL    HW162080   0.259   9.996   8.641
53416SOL    HW262081   0.336  10.016   8.512
53417SOL     OW62082  11.487  10.835   1.927
53417SOL    HW162083  11.485  10.785   1.846
53417SOL    HW262084  11.405  10.885   1.927
53418SOL     OW62085  13.475   3.053  14.369
53418SOL    HW162086  13.532   3.130  14.367
53418SOL    HW262087  13.534   2.980  14.390
53419SOL     OW62088  11.732   4.160   2.488
53419SOL    HW162089  11.793   4.166   2.561
53419SOL    HW262090  11.788   4.158   2.410
53420SOL     OW62091   5.237  11.134   0.844
53420SOL    HW162092   5.292  11.105   0.771
53420SOL    HW262093   5.287  11.206   0.883
53421SOL     OW62094   0.519  11.900   3.998
53421SOL    HW162095   0.575  11.829   3.965
53421SOL    HW262096   0.432  11.860   4.006
53422SOL     OW62097   9.053   9.471   4.956
53422SOL    HW162098   9.004   9.410   4.902
53422SOL    HW262099   8.987   9.520   5.004
53423SOL     OW62100  10.098  13.307  12.104
53423SOL    HW162101  10.055  13.303  12.189
53423SOL    HW262102  10.167  13.373  12.115
53424SOL     OW62103  12.518   8.664   8.370
53424SOL    HW162104  12.506   8.717   8.292
53424SOL    HW262105  12.533   8.575   8.337
53425SOL     OW62106   8.642   2.339   2.319
53425SOL    HW162107   8.698   2.416   2.323
53425SOL    HW262108   8.557   2.373   2.289
53426SOL     OW62109   6.687  10.093  10.482
53426SOL    HW162110   6.745  10.031  10.439
53426SOL    HW262111   6.743  10.167  10.506
53427SOL     OW62112   5.154   3.016  14.201
53427SOL    HW162113   5.248   3.007  14.187
53427SOL    HW262114   5.114   2.966  14.131
53428SOL     OW62115   2.763   9.202  12.730
53428SOL    HW162116   2.844   9.214  12.779
53428SOL    HW262117   2.783   9.232  12.642
53429SOL     OW62118   9.779   6.756   7.368
53429SOL    HW162119   9.729   6.826   7.327
53429SOL    HW262120   9.720   6.721   7.436
53430SOL     OW62121  11.443   8.410   6.924
53430SOL    HW162122  11.374   8.397   6.859
53430SOL    HW262123  11.442   8.331   6.978
53431SOL     OW62124  14.159   9.314   7.653
53431SOL    HW162125  14.109   9.367   7.715
53431SOL    HW262126  14.167   9.369   7.575
53432SOL     OW62127  12.905  13.013  13.656
53432SOL    HW162128  12.824  12.980  13.618
53432SOL    HW262129  12.926  13.090  13.603
53433SOL     OW62130   0.121  12.337   5.609
53433SOL    HW162131   0.115  12.431   5.628
53433SOL    HW262132   0.077  12.327   5.525
53434SOL     OW62133   2.562   0.896  11.879
53434SOL    HW162134   2.470   0.870  11.886
53434SOL    HW262135   2.610   0.827  11.925
53435SOL     OW62136   5.404  12.955   9.534
53435SOL    HW162137   5.375  12.886   9.593
53435SOL    HW262138   5.438  12.908   9.457
53436SOL     OW62139   9.014  13.629  13.159
53436SOL    HW162140   9.096  13.652  13.201
53436SOL    HW262141   8.982  13.711  13.121
53437SOL     OW62142   2.269   3.167   9.312
53437SOL    HW162143   2.336   3.217   9.267
53437SOL    HW262144   2.187   3.199   9.276
53438SOL     OW62145   8.507   8.132   0.075
53438SOL    HW162146   8.502   8.181   0.157
53438SOL    HW262147   8.442   8.173   0.018
53439SOL     OW62148  12.307   9.050   3.289
53439SOL    HW162149  12.276   9.097   3.366
53439SOL    HW262150  12.237   8.989   3.268
53440SOL     OW62151   3.729  14.806  13.655
53440SOL    HW162152   3.794  14.849  13.600
53440SOL    HW262153   3.745  14.840  13.743
53441SOL     OW62154   5.604  10.585   9.566
53441SOL    HW162155   5.628  10.669   9.526
53441SOL    HW262156   5.536  10.550   9.509
53442SOL     OW62157   7.010   2.910   4.572
53442SOL    HW162158   6.922   2.947   4.569
53442SOL    HW262159   7.049   2.950   4.650
53443SOL     OW62160  13.284   7.815   3.620
53443SOL    HW162161  13.305   7.908   3.614
53443SOL    HW262162  13.312   7.779   3.536
53444SOL     OW62163   5.036  12.815   0.728
53444SOL    HW162164   4.980  12.815   0.805
53444SOL    HW262165   4.980  12.850   0.658
53445SOL     OW62166   5.596   5.362  14.480
53445SOL    HW162167   5.521   5.410  14.447
53445SOL    HW262168   5.603   5.286  14.422
53446SOL     OW62169   7.064   4.973   5.440
53446SOL    HW162170   7.025   4.892   5.407
53446SOL    HW262171   7.123   4.944   5.510
53447SOL     OW62172   2.682   6.289  10.216
53447SOL    HW162173   2.651   6.380  10.210
53447SOL    HW262174   2.650   6.247  10.136
53448SOL     OW62175   6.315   9.961  11.011
53448SOL    HW162176   6.380   9.913  11.063
53448SOL    HW262177   6.235   9.957  11.062
53449SOL     OW62178   8.733   6.562  10.037
53449SOL    HW162179   8.674   6.623  10.082
53449SOL    HW262180   8.785   6.523  10.108
53450SOL     OW62181   2.013   3.322   5.914
53450SOL    HW162182   2.042   3.286   5.998
53450SOL    HW262183   1.927   3.283   5.900
53451SOL     OW62184   1.581  11.451  11.518
53451SOL    HW162185   1.598  11.445  11.612
53451SOL    HW262186   1.639  11.522  11.488
53452SOL     OW62187   6.227   3.456   2.172
53452SOL    HW162188   6.153   3.471   2.112
53452SOL    HW262189   6.207   3.373   2.214
53453SOL     OW62190   8.122  14.006   7.921
53453SOL    HW162191   8.125  14.016   7.826
53453SOL    HW262192   8.101  13.914   7.935
53454SOL     OW62193  11.302  12.969   6.717
53454SOL    HW162194  11.241  13.006   6.782
53454SOL    HW262195  11.288  12.875   6.722
53455SOL     OW62196  14.530  13.209   5.873
53455SOL    HW162197  14.532  13.262   5.793
53455SOL    HW262198  14.586  13.257   5.934
53456SOL     OW62199   8.117   7.512   0.668
53456SOL    HW162200   8.199   7.559   0.684
53456SOL    HW262201   8.107   7.514   0.573
53457SOL     OW62202   0.449   1.133   9.633
53457SOL    HW162203   0.473   1.197   9.567
53457SOL    HW262204   0.415   1.185   9.706
53458SOL     OW62205  12.733   1.213   2.525
53458SOL    HW162206  12.801   1.228   2.590
53458SOL    HW262207  12.727   1.117   2.519
53459SOL     OW62208  13.165   1.256  13.930
53459SOL    HW162209  13.180   1.303  13.848
53459SOL    HW262210  13.132   1.171  13.903
53460SOL     OW62211  10.892  14.836   9.691
53460SOL    HW162212  10.946   0.008   9.753
53460SOL    HW262213  10.840   0.028   9.647
53461SOL     OW62214   1.033   4.345  12.454
53461SOL    HW162215   1.122   4.367  12.482
53461SOL    HW262216   1.024   4.386  12.368
53462SOL     OW62217   2.258   0.530   8.357
53462SOL    HW162218   2.261   0.516   8.262
53462SOL    HW262219   2.208   0.455   8.390
53463SOL     OW62220   9.149   8.054   3.555
53463SOL    HW162221   9.149   7.975   3.609
53463SOL    HW262222   9.089   8.033   3.483
53464SOL     OW62223   6.080   8.431  12.776
53464SOL    HW162224   6.112   8.463  12.692
53464SOL    HW262225   5.986   8.418  12.763
53465SOL     OW62226  10.493   7.731  12.447
53465SOL    HW162227  10.551   7.655  12.442
53465SOL    HW262228  10.405   7.696  12.435
53466SOL     OW62229   9.264  13.972   9.276
53466SOL    HW162230   9.176  13.937   9.267
53466SOL    HW262231   9.301  13.968   9.188
53467SOL     OW62232   9.424   6.435   2.563
53467SOL    HW162233   9.459   6.477   2.642
53467SOL    HW262234   9.375   6.360   2.596
53468SOL     OW62235  12.126   4.416   1.148
53468SOL    HW162236  12.052   4.399   1.090
53468SOL    HW262237  12.112   4.506   1.179
53469SOL     OW62238   9.929  14.162   0.199
53469SOL    HW162239   9.966  14.099   0.137
53469SOL    HW262240  10.005  14.203   0.240
53470SOL     OW62241  10.684   5.547   3.796
53470SOL    HW162242  10.756   5.565   3.856
53470SOL    HW262243  10.680   5.452   3.790
53471SOL     OW62244   7.863   8.821   4.232
53471SOL    HW162245   7.885   8.775   4.151
53471SOL    HW262246   7.846   8.751   4.296
53472SOL     OW62247  10.202   2.989   2.929
53472SOL    HW162248  10.221   2.895   2.932
53472SOL    HW262249  10.247   3.024   3.006
53473SOL     OW62250   4.503   5.142   8.730
53473SOL    HW162251   4.484   5.180   8.644
53473SOL    HW262252   4.430   5.082   8.745
53474SOL     OW62253   4.493  13.964   8.540
53474SOL    HW162254   4.520  13.889   8.487
53474SOL    HW262255   4.493  13.930   8.630
53475SOL     OW62256   6.793   7.915  12.718
53475SOL    HW162257   6.731   7.884  12.651
53475SOL    HW262258   6.740   7.922  12.798
53476SOL     OW62259   3.484   9.116   4.709
53476SOL    HW162260   3.401   9.140   4.749
53476SOL    HW262261   3.461   9.052   4.642
53477SOL     OW62262   6.176   8.295  10.881
53477SOL    HW162263   6.093   8.324  10.842
53477SOL    HW262264   6.150   8.239  10.955
53478SOL     OW62265  13.548   1.173   7.876
53478SOL    HW162266  13.580   1.236   7.941
53478SOL    HW262267  13.604   1.187   7.799
53479SOL     OW62268   0.471  14.491   7.119
53479SOL    HW162269   0.375  14.485   7.115
53479SOL    HW262270   0.487  14.554   7.189
53480SOL     OW62271   8.522   6.714  10.920
53480SOL    HW162272   8.615   6.693  10.916
53480SOL    HW262273   8.478   6.639  10.881
53481SOL     OW62274   6.698  13.340  10.233
53481SOL    HW162275   6.617  13.289  10.230
53481SOL    HW262276   6.676  13.424  10.192
53482SOL     OW62277  11.474   7.885  12.752
53482SOL    HW162278  11.560   7.895  12.793
53482SOL    HW262279  11.492   7.860  12.662
53483SOL     OW62280   1.410  10.591   3.698
53483SOL    HW162281   1.392  10.631   3.783
53483SOL    HW262282   1.417  10.498   3.716
53484SOL     OW62283  10.765  10.650  13.980
53484SOL    HW162284  10.808  10.565  13.970
53484SOL    HW262285  10.720  10.644  14.064
53485SOL     OW62286   5.043  14.852   1.625
53485SOL    HW162287   5.082  14.855   1.538
53485SOL    HW262288   4.996   0.059   1.634
53486SOL     OW62289  14.506   2.745  12.830
53486SOL    HW162290  14.438   2.798  12.872
53486SOL    HW262291  14.537   2.800  12.758
53487SOL     OW62292  12.605   0.089   1.982
53487SOL    HW162293  12.531   0.106   1.924
53487SOL    HW262294  12.570   0.107   2.070
53488SOL     OW62295  12.400  13.518   5.787
53488SOL    HW162296  12.417  13.501   5.695
53488SOL    HW262297  12.335  13.453   5.813
53489SOL     OW62298   7.211   7.390   2.973
53489SOL    HW162299   7.283   7.432   2.925
53489SOL    HW262300   7.138   7.389   2.912
53490SOL     OW62301   0.793  11.130  13.059
53490SOL    HW162302   0.725  11.139  12.992
53490SOL    HW262303   0.745  11.134  13.142
53491SOL     OW62304  13.602   8.354  12.469
53491SOL    HW162305  13.618   8.301  12.547
53491SOL    HW262306  13.607   8.292  12.396
53492SOL     OW62307   8.695  14.685   9.465
53492SOL    HW162308   8.649  14.679   9.549
53492SOL    HW262309   8.781  14.721   9.487
53493SOL     OW62310   9.376   5.297  13.268
53493SOL    HW162311   9.386   5.335  13.355
53493SOL    HW262312   9.466   5.287  13.235
53494SOL     OW62313   3.913  12.228  10.767
53494SOL    HW162314   3.847  12.247  10.833
53494SOL    HW262315   3.993  12.269  10.800
53495SOL     OW62316   1.434   4.325   4.207
53495SOL    HW162317   1.502   4.259   4.218
53495SOL    HW262318   1.421   4.360   4.295
53496SOL     OW62319   0.275  11.790   3.996
53496SOL    HW162320   0.248  11.882   3.999
53496SOL    HW262321   0.255  11.756   4.083
53497SOL     OW62322  11.188   7.988   4.938
53497SOL    HW162323  11.122   8.047   4.901
53497SOL    HW262324  11.226   7.944   4.862
53498SOL     OW62325   3.443  12.574   8.730
53498SOL    HW162326   3.386  12.651   8.738
53498SOL    HW262327   3.479  12.580   8.642
53499SOL     OW62328   7.410   8.134   7.311
53499SOL    HW162329   7.440   8.205   7.253
53499SOL    HW262330   7.363   8.075   7.253
53500SOL     OW62331  11.343   9.363   0.777
53500SOL    HW162332  11.415   9.403   0.825
53500SOL    HW262333  11.383   9.287   0.735
53501SOL     OW62334   5.852   3.677   5.727
53501SOL    HW162335   5.869   3.746   5.663
53501SOL    HW262336   5.808   3.608   5.677
53502SOL     OW62337   6.111  11.231   2.222
53502SOL    HW162338   6.191  11.227   2.273
53502SOL    HW262339   6.062  11.153   2.249
53503SOL     OW62340   7.801   5.222   4.955
53503SOL    HW162341   7.742   5.172   4.898
53503SOL    HW262342   7.745   5.256   5.024
53504SOL     OW62343  11.748   6.930   4.903
53504SOL    HW162344  11.843   6.919   4.908
53504SOL    HW262345  11.727   6.991   4.974
53505SOL     OW62346  10.654   7.478  13.810
53505SOL    HW162347  10.670   7.435  13.726
53505SOL    HW262348  10.561   7.498  13.810
53506SOL     OW62349   7.234   4.695  11.073
53506SOL    HW162350   7.238   4.746  10.992
53506SOL    HW262351   7.320   4.708  11.114
53507SOL     OW62352  13.002   0.889   7.866
53507SOL    HW162353  12.944   0.892   7.790
53507SOL    HW262354  13.071   0.827   7.841
53508SOL     OW62355   3.528   0.652  12.877
53508SOL    HW162356   3.521   0.579  12.938
53508SOL    HW262357   3.456   0.711  12.901
53509SOL     OW62358  12.170   8.728   8.149
53509SOL    HW162359  12.170   8.737   8.244
53509SOL    HW262360  12.261   8.744   8.123
53510SOL     OW62361   9.124   6.153   9.484
53510SOL    HW162362   9.187   6.151   9.413
53510SOL    HW262363   9.098   6.245   9.490
53511SOL     OW62364   9.690   2.118   6.545
53511SOL    HW162365   9.771   2.136   6.591
53511SOL    HW262366   9.716   2.105   6.454
53512SOL     OW62367  13.669   7.392  14.851
53512SOL    HW162368  13.584   7.351  14.839
53512SOL    HW262369  13.712   7.338   0.043
53513SOL     OW62370  11.885  14.042   6.400
53513SOL    HW162371  11.911  14.132   6.382
53513SOL    HW262372  11.949  13.989   6.352
53514SOL     OW62373   3.065   3.169   0.762
53514SOL    HW162374   3.053   3.236   0.696
53514SOL    HW262375   3.053   3.086   0.716
53515SOL     OW62376   2.904  10.692   7.737
53515SOL    HW162377   2.999  10.701   7.745
53515SOL    HW262378   2.891  10.610   7.691
53516SOL     OW62379   1.195  12.671   4.835
53516SOL    HW162380   1.262  12.705   4.777
53516SOL    HW262381   1.188  12.736   4.905
53517SOL     OW62382   5.395   9.624   9.632
53517SOL    HW162383   5.368   9.665   9.550
53517SOL    HW262384   5.327   9.559   9.650
53518SOL     OW62385  10.849  13.751   2.511
53518SOL    HW162386  10.760  13.770   2.540
53518SOL    HW262387  10.903  13.818   2.553
53519SOL     OW62388   7.770   1.279   1.245
53519SOL    HW162389   7.699   1.340   1.227
53519SOL    HW262390   7.849   1.323   1.214
53520SOL     OW62391  12.314   2.922   9.620
53520SOL    HW162392  12.262   2.844   9.601
53520SOL    HW262393  12.373   2.929   9.545
53521SOL     OW62394   7.266   3.287   5.991
53521SOL    HW162395   7.241   3.271   6.081
53521SOL    HW262396   7.332   3.220   5.972
53522SOL     OW62397   9.215   8.446   6.723
53522SOL    HW162398   9.301   8.407   6.705
53522SOL    HW262399   9.153   8.380   6.693
53523SOL     OW62400  14.160  14.168   4.554
53523SOL    HW162401  14.133  14.246   4.603
53523SOL    HW262402  14.103  14.098   4.588
53524SOL     OW62403  13.658  11.884   7.437
53524SOL    HW162404  13.639  11.878   7.344
53524SOL    HW262405  13.753  11.893   7.442
53525SOL     OW62406  13.777  13.016   8.121
53525SOL    HW162407  13.864  12.977   8.129
53525SOL    HW262408  13.763  13.024   8.027
53526SOL     OW62409   9.328   7.557   4.061
53526SOL    HW162410   9.382   7.563   4.140
53526SOL    HW262411   9.364   7.483   4.013
53527SOL     OW62412  13.659   8.242  14.178
53527SOL    HW162413  13.662   8.209  14.088
53527SOL    HW262414  13.729   8.194  14.223
53528SOL     OW62415   4.849  12.999   0.349
53528SOL    HW162416   4.879  13.035   0.432
53528SOL    HW262417   4.847  13.074   0.289
53529SOL     OW62418   3.711  13.432  11.816
53529SOL    HW162419   3.630  13.428  11.765
53529SOL    HW262420   3.683  13.460  11.903
53530SOL     OW62421   6.910   1.826  13.823
53530SOL    HW162422   6.928   1.877  13.744
53530SOL    HW262423   6.896   1.737  13.792
53531SOL     OW62424  14.377  14.654   2.125
53531SOL    HW162425  14.451  14.691   2.078
53531SOL    HW262426  14.373  14.702   2.207
53532SOL     OW62427  14.440   2.382   6.355
53532SOL    HW162428  14.534   2.394   6.346
53532SOL    HW262429  14.416   2.320   6.287
53533SOL     OW62430   7.842   7.021  12.107
53533SOL    HW162431   7.847   6.930  12.136
53533SOL    HW262432   7.776   7.021  12.037
53534SOL     OW62433   8.148   2.619  11.376
53534SOL    HW162434   8.091   2.556  11.331
53534SOL    HW262435   8.207   2.566  11.428
53535SOL     OW62436   8.382   7.700   0.218
53535SOL    HW162437   8.465   7.717   0.263
53535SOL    HW262438   8.325   7.772   0.246
53536SOL     OW62439   1.234  13.493   4.715
53536SOL    HW162440   1.198  13.472   4.801
53536SOL    HW262441   1.254  13.587   4.720
53537SOL     OW62442   8.884  13.295  14.666
53537SOL    HW162443   8.943  13.357  14.623
53537SOL    HW262444   8.841  13.249  14.594
53538SOL     OW62445   3.750  12.837   7.791
53538SOL    HW162446   3.682  12.835   7.724
53538SOL    HW262447   3.704  12.858   7.872
53539SOL     OW62448   6.753  10.729   1.983
53539SOL    HW162449   6.705  10.679   2.049
53539SOL    HW262450   6.825  10.672   1.957
53540SOL     OW62451   8.560  14.463   8.121
53540SOL    HW162452   8.616  14.472   8.198
53540SOL    HW262453   8.481  14.419   8.153
53541SOL     OW62454  10.089   9.924   3.825
53541SOL    HW162455  10.115  10.011   3.855
53541SOL    HW262456  10.108   9.866   3.899
53542SOL     OW62457  12.146   6.364   3.256
53542SOL    HW162458  12.161   6.302   3.184
53542SOL    HW262459  12.076   6.421   3.224
53543SOL     OW62460   9.350  10.374   0.404
53543SOL    HW162461   9.418  10.387   0.338
53543SOL    HW262462   9.372  10.291   0.446
53544SOL     OW62463  10.006  10.677   9.070
53544SOL    HW162464   9.958  10.607   9.115
53544SOL    HW262465  10.094  10.674   9.108
53545SOL     OW62466   9.263   5.544   6.197
53545SOL    HW162467   9.334   5.565   6.136
53545SOL    HW262468   9.233   5.457   6.171
53546SOL     OW62469  11.635  14.778  13.399
53546SOL    HW162470  11.652  14.868  13.427
53546SOL    HW262471  11.661  14.725  13.474
53547SOL     OW62472   2.768   2.223   5.797
53547SOL    HW162473   2.706   2.181   5.736
53547SOL    HW262474   2.853   2.186   5.774
53548SOL     OW62475   8.930  14.674   6.606
53548SOL    HW162476   8.917  14.584   6.575
53548SOL    HW262477   8.865  14.684   6.675
53549SOL     OW62478   3.393   0.676   0.590
53549SOL    HW162479   3.337   0.721   0.525
53549SOL    HW262480   3.481   0.682   0.553
53550SOL     OW62481   6.225  11.711  10.318
53550SOL    HW162482   6.277  11.776  10.270
53550SOL    HW262483   6.268  11.705  10.403
53551SOL     OW62484  12.743   9.076  10.420
53551SOL    HW162485  12.773   9.052  10.508
53551SOL    HW262486  12.649   9.058  10.421
53552SOL     OW62487   8.987  13.581  12.388
53552SOL    HW162488   9.029  13.651  12.438
53552SOL    HW262489   9.007  13.501  12.436
53553SOL     OW62490  11.025   6.865   2.179
53553SOL    HW162491  10.988   6.830   2.260
53553SOL    HW262492  10.991   6.809   2.110
53554SOL     OW62493   7.173   5.475   2.672
53554SOL    HW162494   7.243   5.526   2.631
53554SOL    HW262495   7.217   5.425   2.741
53555SOL     OW62496   8.598  10.103   3.913
53555SOL    HW162497   8.640  10.170   3.859
53555SOL    HW262498   8.514  10.087   3.870
53556SOL     OW62499  14.726   2.986  14.740
53556SOL    HW162500  14.752   2.968  14.830
53556SOL    HW262501  14.804   2.966  14.688
53557SOL     OW62502   8.015   2.203   6.635
53557SOL    HW162503   8.011   2.238   6.546
53557SOL    HW262504   7.924   2.182   6.656
53558SOL     OW62505   4.200   2.161   0.774
53558SOL    HW162506   4.195   2.124   0.863
53558SOL    HW262507   4.292   2.185   0.764
53559SOL     OW62508   1.959  10.697   7.577
53559SOL    HW162509   1.884  10.638   7.581
53559SOL    HW262510   2.025  10.654   7.631
53560SOL     OW62511   7.323  11.516   3.668
53560SOL    HW162512   7.381  11.444   3.692
53560SOL    HW262513   7.328  11.522   3.573
53561SOL     OW62514   3.898   8.146   4.786
53561SOL    HW162515   3.942   8.227   4.761
53561SOL    HW262516   3.933   8.125   4.872
53562SOL     OW62517   3.696   0.439  14.688
53562SOL    HW162518   3.733   0.353  14.707
53562SOL    HW262519   3.755   0.477  14.623
53563SOL     OW62520   4.843  12.518   2.802
53563SOL    HW162521   4.869  12.561   2.884
53563SOL    HW262522   4.875  12.576   2.733
53564SOL     OW62523   4.374   7.512   0.936
53564SOL    HW162524   4.348   7.567   1.010
53564SOL    HW262525   4.458   7.550   0.907
53565SOL     OW62526   4.354   2.929   0.389
53565SOL    HW162527   4.277   2.981   0.414
53565SOL    HW262528   4.425   2.964   0.443
53566SOL     OW62529   3.384   0.424   7.581
53566SOL    HW162530   3.398   0.331   7.595
53566SOL    HW262531   3.425   0.466   7.657
53567SOL     OW62532  11.770  13.217   6.686
53567SOL    HW162533  11.774  13.144   6.747
53567SOL    HW262534  11.847  13.270   6.706
53568SOL     OW62535   8.830   4.857   2.627
53568SOL    HW162536   8.780   4.787   2.669
53568SOL    HW262537   8.768   4.930   2.622
53569SOL     OW62538  11.321  10.648   5.929
53569SOL    HW162539  11.286  10.730   5.895
53569SOL    HW262540  11.414  10.667   5.945
53570SOL     OW62541   0.474   5.594  12.991
53570SOL    HW162542   0.460   5.613  12.898
53570SOL    HW262543   0.466   5.499  12.998
53571SOL     OW62544  11.564   4.517   5.247
53571SOL    HW162545  11.476   4.529   5.211
53571SOL    HW262546  11.549   4.472   5.331
53572SOL     OW62547   5.228   6.871   3.596
53572SOL    HW162548   5.191   6.810   3.660
53572SOL    HW262549   5.321   6.876   3.619
53573SOL     OW62550   0.187  10.478   7.834
53573SOL    HW162551   0.098  10.492   7.801
53573SOL    HW262552   0.189  10.386   7.860
53574SOL     OW62553   2.895  12.607   3.669
53574SOL    HW162554   2.835  12.569   3.733
53574SOL    HW262555   2.982  12.589   3.706
53575SOL     OW62556   5.794   0.650  11.254
53575SOL    HW162557   5.737   0.707  11.203
53575SOL    HW262558   5.859   0.708  11.292
53576SOL     OW62559   3.537   9.781   6.866
53576SOL    HW162560   3.563   9.852   6.924
53576SOL    HW262561   3.462   9.816   6.817
53577SOL     OW62562  12.834   3.910   8.263
53577SOL    HW162563  12.876   3.934   8.180
53577SOL    HW262564  12.815   3.993   8.306
53578SOL     OW62565  10.297  14.306  10.061
53578SOL    HW162566  10.246  14.370  10.011
53578SOL    HW262567  10.367  14.357  10.101
53579SOL     OW62568   3.735  11.345  10.214
53579SOL    HW162569   3.694  11.379  10.293
53579SOL    HW262570   3.703  11.255  10.207
53580SOL     OW62571   9.245   9.592  11.505
53580SOL    HW162572   9.280   9.554  11.586
53580SOL    HW262573   9.212   9.678  11.531
53581SOL     OW62574  11.619  13.203   5.985
53581SOL    HW162575  11.629  13.136   6.052
53581SOL    HW262576  11.613  13.154   5.903
53582SOL     OW62577  11.072  10.141  13.294
53582SOL    HW162578  11.138  10.081  13.329
53582SOL    HW262579  11.049  10.104  13.209
53583SOL     OW62580   4.636  14.531   2.095
53583SOL    HW162581   4.541  14.534   2.107
53583SOL    HW262582   4.647  14.505   2.003
53584SOL     OW62583   8.033   4.825   7.207
53584SOL    HW162584   8.076   4.903   7.243
53584SOL    HW262585   8.062   4.822   7.116
53585SOL     OW62586  13.256  12.837  11.264
53585SOL    HW162587  13.251  12.827  11.359
53585SOL    HW262588  13.170  12.811  11.232
53586SOL     OW62589  12.219   7.600  11.961
53586SOL    HW162590  12.175   7.667  11.909
53586SOL    HW262591  12.176   7.518  11.935
53587SOL     OW62592  14.609   5.588   8.151
53587SOL    HW162593  14.620   5.544   8.066
53587SOL    HW262594  14.556   5.527   8.203
53588SOL     OW62595  14.337  11.067   7.821
53588SOL    HW162596  14.318  11.076   7.728
53588SOL    HW262597  14.388  10.986   7.828
53589SOL     OW62598   6.859   9.362   7.565
53589SOL    HW162599   6.781   9.366   7.619
53589SOL    HW262600   6.827   9.370   7.475
53590SOL     OW62601  10.122   0.381  12.819
53590SOL    HW162602  10.212   0.360  12.844
53590SOL    HW262603  10.101   0.320  12.748
53591SOL     OW62604  13.903   6.868   8.276
53591SOL    HW162605  13.895   6.793   8.217
53591SOL    HW262606  13.838   6.930   8.244
53592SOL     OW62607   9.667   5.939   3.076
53592SOL    HW162608   9.584   5.944   3.125
53592SOL    HW262609   9.657   6.002   3.005
53593SOL     OW62610  12.668  10.648   1.716
53593SOL    HW162611  12.627  10.656   1.631
53593SOL    HW262612  12.607  10.689   1.777
53594SOL     OW62613   6.566  14.319   4.283
53594SOL    HW162614   6.597  14.401   4.243
53594SOL    HW262615   6.640  14.259   4.273
53595SOL     OW62616   2.507   1.151  11.871
53595SOL    HW162617   2.525   1.060  11.896
53595SOL    HW262618   2.440   1.145  11.804
53596SOL     OW62619  14.463   5.851   2.499
53596SOL    HW162620  14.464   5.779   2.563
53596SOL    HW262621  14.375   5.888   2.506
53597SOL     OW62622   6.780  12.752   9.492
53597SOL    HW162623   6.768  12.836   9.449
53597SOL    HW262624   6.867  12.757   9.532
53598SOL     OW62625  14.046   7.620   3.101
53598SOL    HW162626  13.958   7.638   3.135
53598SOL    HW262627  14.073   7.540   3.146
53599SOL     OW62628  10.934   1.333  13.314
53599SOL    HW162629  10.981   1.320  13.396
53599SOL    HW262630  10.955   1.256  13.261
53600SOL     OW62631  13.554   1.309   6.732
53600SOL    HW162632  13.577   1.401   6.726
53600SOL    HW262633  13.506   1.301   6.815
53601SOL     OW62634  14.273  13.916   3.922
53601SOL    HW162635  14.317  13.831   3.936
53601SOL    HW262636  14.227  13.933   4.003
53602SOL     OW62637  13.964   3.915   4.884
53602SOL    HW162638  13.939   3.946   4.797
53602SOL    HW262639  13.987   3.994   4.932
53603SOL     OW62640   6.513   5.665   6.630
53603SOL    HW162641   6.588   5.653   6.572
53603SOL    HW262642   6.518   5.757   6.655
53604SOL     OW62643   4.548   8.392  13.642
53604SOL    HW162644   4.470   8.397  13.586
53604SOL    HW262645   4.521   8.336  13.715
53605SOL     OW62646  12.431   1.890  11.628
53605SOL    HW162647  12.473   1.962  11.675
53605SOL    HW262648  12.488   1.815  11.644
53606SOL     OW62649   1.336   2.144   4.790
53606SOL    HW162650   1.257   2.190   4.816
53606SOL    HW262651   1.403   2.172   4.853
53607SOL     OW62652   6.358   0.621   6.699
53607SOL    HW162653   6.319   0.536   6.723
53607SOL    HW262654   6.371   0.616   6.604
53608SOL     OW62655  12.151   9.741   2.253
53608SOL    HW162656  12.210   9.762   2.326
53608SOL    HW262657  12.209   9.709   2.184
53609SOL     OW62658   1.969   0.234  12.839
53609SOL    HW162659   2.041   0.218  12.901
53609SOL    HW262660   1.890   0.213  12.889
53610SOL     OW62661   3.220  10.186  11.199
53610SOL    HW162662   3.170  10.241  11.259
53610SOL    HW262663   3.212  10.230  11.114
53611SOL     OW62664  13.808   6.764   4.262
53611SOL    HW162665  13.847   6.765   4.350
53611SOL    HW262666  13.766   6.850   4.254
53612SOL     OW62667   7.432  10.867  14.002
53612SOL    HW162668   7.420  10.772  14.006
53612SOL    HW262669   7.470  10.883  13.916
53613SOL     OW62670  12.823  14.595   7.224
53613SOL    HW162671  12.794  14.505   7.238
53613SOL    HW262672  12.910  14.599   7.264
53614SOL     OW62673   0.315   0.123  10.014
53614SOL    HW162674   0.305   0.149  10.106
53614SOL    HW262675   0.230   0.140   9.975
53615SOL     OW62676   3.025  11.942   3.763
53615SOL    HW162677   3.042  11.855   3.726
53615SOL    HW262678   2.930  11.949   3.765
53616SOL     OW62679  10.617   9.055   8.750
53616SOL    HW162680  10.565   9.016   8.679
53616SOL    HW262681  10.587   9.145   8.756
53617SOL     OW62682  12.450   9.386  12.190
53617SOL    HW162683  12.463   9.425  12.104
53617SOL    HW262684  12.538   9.364  12.221
53618SOL     OW62685   6.163   9.980  13.805
53618SOL    HW162686   6.144   9.895  13.847
53618SOL    HW262687   6.106   9.980  13.728
53619SOL     OW62688  12.003   0.357   2.665
53619SOL    HW162689  12.010   0.306   2.745
53619SOL    HW262690  11.932   0.419   2.683
53620SOL     OW62691   7.880   7.509   8.967
53620SOL    HW162692   7.922   7.498   8.882
53620SOL    HW262693   7.856   7.601   8.970
53621SOL     OW62694   1.477   4.902  11.717
53621SOL    HW162695   1.398   4.849  11.721
53621SOL    HW262696   1.511   4.888  11.628
53622SOL     OW62697  11.613  13.769   4.300
53622SOL    HW162698  11.527  13.775   4.340
53622SOL    HW262699  11.632  13.676   4.295
53623SOL     OW62700   8.034   4.522  11.089
53623SOL    HW162701   8.087   4.591  11.129
53623SOL    HW262702   7.970   4.498  11.156
53624SOL     OW62703   4.863   2.808   1.735
53624SOL    HW162704   4.935   2.803   1.798
53624SOL    HW262705   4.828   2.897   1.746
53625SOL     OW62706  13.864   5.582  10.057
53625SOL    HW162707  13.926   5.562  10.127
53625SOL    HW262708  13.778   5.575  10.099
53626SOL     OW62709   5.515   0.094  14.109
53626SOL    HW162710   5.513   0.119  14.016
53626SOL    HW262711   5.594   0.135  14.143
53627SOL     OW62712  13.054   4.817   2.757
53627SOL    HW162713  12.960   4.805   2.741
53627SOL    HW262714  13.067   4.782   2.845
53628SOL     OW62715   8.264   7.181   2.606
53628SOL    HW162716   8.262   7.152   2.515
53628SOL    HW262717   8.272   7.100   2.657
53629SOL     OW62718   4.287  12.910  10.212
53629SOL    HW162719   4.284  13.003  10.236
53629SOL    HW262720   4.351  12.873  10.272
53630SOL     OW62721   2.783  13.722  12.736
53630SOL    HW162722   2.782  13.660  12.808
53630SOL    HW262723   2.702  13.704  12.688
53631SOL     OW62724   6.473   2.479   2.361
53631SOL    HW162725   6.420   2.488   2.440
53631SOL    HW262726   6.412   2.449   2.294
53632SOL     OW62727  10.543  12.959   4.316
53632SOL    HW162728  10.615  13.009   4.279
53632SOL    HW262729  10.486  12.940   4.242
53633SOL     OW62730   8.701  10.962   3.256
53633SOL    HW162731   8.691  11.051   3.289
53633SOL    HW262732   8.747  10.915   3.326
53634SOL     OW62733   1.141  11.763   9.175
53634SOL    HW162734   1.048  11.780   9.160
53634SOL    HW262735   1.166  11.828   9.241
53635SOL     OW62736   9.408  14.517   4.285
53635SOL    HW162737   9.418  14.462   4.207
53635SOL    HW262738   9.368  14.598   4.253
53636SOL     OW62739  11.122   6.374  10.188
53636SOL    HW162740  11.140   6.372  10.282
53636SOL    HW262741  11.065   6.298  10.173
53637SOL     OW62742   2.275  10.538   0.661
53637SOL    HW162743   2.220  10.523   0.738
53637SOL    HW262744   2.268  10.632   0.644
53638SOL     OW62745  14.683   0.346   9.908
53638SOL    HW162746  14.636   0.389   9.837
53638SOL    HW262747  14.616   0.296   9.955
53639SOL     OW62748  13.797  12.984   2.675
53639SOL    HW162749  13.712  12.940   2.674
53639SOL    HW262750  13.838  12.957   2.593
53640SOL     OW62751   5.662   4.989   1.708
53640SOL    HW162752   5.735   5.046   1.683
53640SOL    HW262753   5.643   4.939   1.629
53641SOL     OW62754   8.196  11.753   3.967
53641SOL    HW162755   8.210  11.741   3.873
53641SOL    HW262756   8.222  11.843   3.984
53642SOL     OW62757  12.963   4.403   0.959
53642SOL    HW162758  12.928   4.316   0.979
53642SOL    HW262759  12.892   4.448   0.912
53643SOL     OW62760   2.784  10.939   6.797
53643SOL    HW162761   2.741  10.875   6.740
53643SOL    HW262762   2.815  10.887   6.872
53644SOL     OW62763   4.201  11.226   7.142
53644SOL    HW162764   4.151  11.145   7.157
53644SOL    HW262765   4.145  11.279   7.086
53645SOL     OW62766   9.597  12.055   6.720
53645SOL    HW162767   9.572  11.990   6.785
53645SOL    HW262768   9.531  12.047   6.652
53646SOL     OW62769   2.197   4.064  11.458
53646SOL    HW162770   2.238   4.148  11.479
53646SOL    HW262771   2.270   4.002  11.457
53647SOL     OW62772  13.297  10.976   2.939
53647SOL    HW162773  13.343  10.947   3.017
53647SOL    HW262774  13.340  10.930   2.867
53648SOL     OW62775   9.330   5.874   8.982
53648SOL    HW162776   9.273   5.874   9.059
53648SOL    HW262777   9.273   5.849   8.910
53649SOL     OW62778   5.571  12.976  10.033
53649SOL    HW162779   5.551  12.898   9.982
53649SOL    HW262780   5.562  12.948  10.124
53650SOL     OW62781  10.473   8.795   2.842
53650SOL    HW162782  10.533   8.826   2.910
53650SOL    HW262783  10.386   8.800   2.883
53651SOL     OW62784  10.299   2.368   8.282
53651SOL    HW162785  10.255   2.442   8.325
53651SOL    HW262786  10.386   2.366   8.322
53652SOL     OW62787   6.913  10.821   6.615
53652SOL    HW162788   6.952  10.908   6.626
53652SOL    HW262789   6.972  10.776   6.554
53653SOL     OW62790  10.334   3.418   7.812
53653SOL    HW162791  10.342   3.504   7.853
53653SOL    HW262792  10.402   3.418   7.744
53654SOL     OW62793   3.336   4.785   8.959
53654SOL    HW162794   3.360   4.842   9.032
53654SOL    HW262795   3.282   4.717   8.999
53655SOL     OW62796   0.458   8.585   3.526
53655SOL    HW162797   0.535   8.557   3.575
53655SOL    HW262798   0.472   8.678   3.510
53656SOL     OW62799   6.714   0.806   6.993
53656SOL    HW162800   6.702   0.766   6.907
53656SOL    HW262801   6.752   0.736   7.047
53657SOL     OW62802   1.455  11.875   8.666
53657SOL    HW162803   1.443  11.800   8.607
53657SOL    HW262804   1.390  11.939   8.637
53658SOL     OW62805  14.724   6.801   0.822
53658SOL    HW162806  14.654   6.849   0.868
53658SOL    HW262807  14.678   6.753   0.753
53659SOL     OW62808   5.357  12.570  13.562
53659SOL    HW162809   5.306  12.622  13.499
53659SOL    HW262810   5.307  12.489  13.572
53660SOL     OW62811  10.192  13.259   0.373
53660SOL    HW162812  10.276  13.215   0.361
53660SOL    HW262813  10.189  13.324   0.302
53661SOL     OW62814   8.582   3.945   2.814
53661SOL    HW162815   8.670   3.983   2.810
53661SOL    HW262816   8.585   3.888   2.890
53662SOL     OW62817   5.653  10.009  11.571
53662SOL    HW162818   5.668  10.091  11.523
53662SOL    HW262819   5.577   9.970  11.528
53663SOL     OW62820   6.046  14.254   0.378
53663SOL    HW162821   5.986  14.218   0.313
53663SOL    HW262822   6.127  14.271   0.329
53664SOL     OW62823   8.701   3.340  12.198
53664SOL    HW162824   8.731   3.314  12.111
53664SOL    HW262825   8.670   3.258  12.237
53665SOL     OW62826   0.358   2.542  10.265
53665SOL    HW162827   0.445   2.501  10.258
53665SOL    HW262828   0.375   2.635  10.252
53666SOL     OW62829   6.260   4.475   5.098
53666SOL    HW162830   6.320   4.407   5.067
53666SOL    HW262831   6.243   4.529   5.021
53667SOL     OW62832  11.839   2.725  14.406
53667SOL    HW162833  11.902   2.683  14.465
53667SOL    HW262834  11.882   2.724  14.320
53668SOL     OW62835  10.466   6.196   4.323
53668SOL    HW162836  10.384   6.241   4.343
53668SOL    HW262837  10.475   6.131   4.394
53669SOL     OW62838   5.589  13.805  13.915
53669SOL    HW162839   5.605  13.890  13.874
53669SOL    HW262840   5.588  13.823  14.009
53670SOL     OW62841   7.970   8.817  14.523
53670SOL    HW162842   7.998   8.909  14.518
53670SOL    HW262843   7.879   8.818  14.495
53671SOL     OW62844  12.340   8.157   4.976
53671SOL    HW162845  12.338   8.111   5.059
53671SOL    HW262846  12.424   8.203   4.975
53672SOL     OW62847  10.465  12.574  12.342
53672SOL    HW162848  10.409  12.649  12.322
53672SOL    HW262849  10.405  12.501  12.356
53673SOL     OW62850   0.067   3.696  14.771
53673SOL    HW162851   0.134   3.719  14.835
53673SOL    HW262852   0.111   3.701  14.687
53674SOL     OW62853   2.129   7.302   2.196
53674SOL    HW162854   2.146   7.261   2.111
53674SOL    HW262855   2.159   7.237   2.260
53675SOL     OW62856   5.619   2.758  11.758
53675SOL    HW162857   5.711   2.746  11.781
53675SOL    HW262858   5.598   2.682  11.704
53676SOL     OW62859   5.827   2.593   9.547
53676SOL    HW162860   5.871   2.601   9.632
53676SOL    HW262861   5.897   2.573   9.485
53677SOL     OW62862  13.522  11.088   4.980
53677SOL    HW162863  13.590  11.101   4.914
53677SOL    HW262864  13.571  11.072   5.061
53678SOL     OW62865  12.935   1.339  12.386
53678SOL    HW162866  12.979   1.417  12.420
53678SOL    HW262867  12.842   1.355  12.401
53679SOL     OW62868  13.329  10.050   1.306
53679SOL    HW162869  13.386  10.006   1.244
53679SOL    HW262870  13.366  10.139   1.314
53680SOL     OW62871   8.919   4.890   6.251
53680SOL    HW162872   8.959   4.958   6.306
53680SOL    HW262873   8.989   4.863   6.192
53681SOL     OW62874   9.494   0.023  13.541
53681SOL    HW162875   9.481  14.805  13.526
53681SOL    HW262876   9.438   0.043  13.615
53682SOL     OW62877   3.221  12.140   2.597
53682SOL    HW162878   3.225  12.052   2.635
53682SOL    HW262879   3.137  12.143   2.551
53683SOL     OW62880  12.188  10.109  13.370
53683SOL    HW162881  12.267  10.148  13.409
53683SOL    HW262882  12.128  10.182  13.358
53684SOL     OW62883   3.702   3.726   3.070
53684SOL    HW162884   3.786   3.737   3.027
53684SOL    HW262885   3.716   3.757   3.160
53685SOL     OW62886   5.354  10.760   7.244
53685SOL    HW162887   5.295  10.821   7.288
53685SOL    HW262888   5.440  10.780   7.280
53686SOL     OW62889   9.735  11.543   6.018
53686SOL    HW162890   9.799  11.598   6.062
53686SOL    HW262891   9.756  11.550   5.925
53687SOL     OW62892   9.733   0.328   6.281
53687SOL    HW162893   9.653   0.287   6.249
53687SOL    HW262894   9.714   0.422   6.281
53688SOL     OW62895  14.760  10.557   3.070
53688SOL    HW162896  14.763  10.461   3.063
53688SOL    HW262897  14.693  10.574   3.137
53689SOL     OW62898   1.765   8.922   7.727
53689SOL    HW162899   1.734   8.936   7.816
53689SOL    HW262900   1.828   8.993   7.712
53690SOL     OW62901   1.905   6.712  12.211
53690SOL    HW162902   1.838   6.779  12.196
53690SOL    HW262903   1.941   6.694  12.124
53691SOL     OW62904   9.955   2.562  12.149
53691SOL    HW162905  10.036   2.547  12.099
53691SOL    HW262906   9.920   2.475  12.164
53692SOL     OW62907   1.650   6.112  13.107
53692SOL    HW162908   1.560   6.136  13.083
53692SOL    HW262909   1.653   6.122  13.202
53693SOL     OW62910   8.543  12.891  13.568
53693SOL    HW162911   8.592  12.933  13.639
53693SOL    HW262912   8.506  12.812  13.608
53694SOL     OW62913   9.082   5.436  13.988
53694SOL    HW162914   9.026   5.479  13.923
53694SOL    HW262915   9.171   5.453  13.958
53695SOL     OW62916  14.151  14.220   2.085
53695SOL    HW162917  14.093  14.234   2.010
53695SOL    HW262918  14.136  14.296   2.141
53696SOL     OW62919   6.392   9.154   6.391
53696SOL    HW162920   6.430   9.170   6.305
53696SOL    HW262921   6.437   9.075   6.423
53697SOL     OW62922   6.775   3.537   9.974
53697SOL    HW162923   6.716   3.544   9.899
53697SOL    HW262924   6.818   3.622   9.979
53698SOL     OW62925   2.326   5.568   8.511
53698SOL    HW162926   2.289   5.480   8.520
53698SOL    HW262927   2.342   5.576   8.417
53699SOL     OW62928  11.977   9.249   3.318
53699SOL    HW162929  12.035   9.323   3.298
53699SOL    HW262930  11.944   9.268   3.406
53700SOL     OW62931   9.829   3.084  12.815
53700SOL    HW162932   9.894   3.053  12.753
53700SOL    HW262933   9.809   3.008  12.870
53701SOL     OW62934   9.051   8.187   7.986
53701SOL    HW162935   9.108   8.156   7.916
53701SOL    HW262936   9.000   8.110   8.011
53702SOL     OW62937   5.401   9.234   8.833
53702SOL    HW162938   5.388   9.166   8.898
53702SOL    HW262939   5.372   9.195   8.750
53703SOL     OW62940   5.144   4.087   4.389
53703SOL    HW162941   5.232   4.056   4.368
53703SOL    HW262942   5.117   4.136   4.311
53704SOL     OW62943  10.567   7.040   5.430
53704SOL    HW162944  10.631   6.985   5.475
53704SOL    HW262945  10.522   7.087   5.500
53705SOL     OW62946   1.623   3.917  12.734
53705SOL    HW162947   1.660   3.888  12.651
53705SOL    HW262948   1.583   4.002  12.715
53706SOL     OW62949   5.779   0.117   1.441
53706SOL    HW162950   5.828   0.128   1.359
53706SOL    HW262951   5.811   0.187   1.498
53707SOL     OW62952   9.051  13.322   5.402
53707SOL    HW162953   9.015  13.235   5.416
53707SOL    HW262954   9.111  13.336   5.476
53708SOL     OW62955  10.123   6.108  13.244
53708SOL    HW162956  10.184   6.116  13.317
53708SOL    HW262957  10.173   6.139  13.168
53709SOL     OW62958  10.129   2.865  11.067
53709SOL    HW162959  10.123   2.957  11.091
53709SOL    HW262960  10.044   2.846  11.026
53710SOL     OW62961   0.860   4.172  13.317
53710SOL    HW162962   0.842   4.142  13.228
53710SOL    HW262963   0.778   4.156  13.364
53711SOL     OW62964   3.639   4.538  14.868
53711SOL    HW162965   3.723   4.558   0.032
53711SOL    HW262966   3.575   4.554   0.061
53712SOL     OW62967  12.829   4.716  10.070
53712SOL    HW162968  12.772   4.643  10.046
53712SOL    HW262969  12.863   4.693  10.156
53713SOL     OW62970   8.347   9.930   1.663
53713SOL    HW162971   8.364  10.006   1.720
53713SOL    HW262972   8.358   9.964   1.574
53714SOL     OW62973   2.282   8.660  14.604
53714SOL    HW162974   2.365   8.630  14.567
53714SOL    HW262975   2.308   8.706  14.684
53715SOL     OW62976   5.785   4.715  13.651
53715SOL    HW162977   5.762   4.623  13.635
53715SOL    HW262978   5.869   4.727  13.605
53716SOL     OW62979  11.829   3.169  12.026
53716SOL    HW162980  11.781   3.203  11.951
53716SOL    HW262981  11.766   3.172  12.098
53717SOL     OW62982   7.760   3.599   6.281
53717SOL    HW162983   7.826   3.583   6.213
53717SOL    HW262984   7.677   3.595   6.234
53718SOL     OW62985  13.383   0.088  14.213
53718SOL    HW162986  13.457   0.102  14.273
53718SOL    HW262987  13.314   0.146  14.245
53719SOL     OW62988   5.942  14.452   6.605
53719SOL    HW162989   5.878  14.499   6.552
53719SOL    HW262990   5.889  14.400   6.666
53720SOL     OW62991   9.590   8.110   9.964
53720SOL    HW162992   9.533   8.183   9.989
53720SOL    HW262993   9.599   8.058  10.043
53721SOL     OW62994   9.362   7.207   8.250
53721SOL    HW162995   9.278   7.213   8.205
53721SOL    HW262996   9.401   7.127   8.217
53722SOL     OW62997  10.605  13.469   4.038
53722SOL    HW162998  10.643  13.386   4.010
53722SOL    HW262999  10.648  13.488   4.122
53723SOL     OW63000   0.362   9.130  13.508
53723SOL    HW163001   0.315   9.207  13.477
53723SOL    HW263002   0.334   9.119  13.599
53724SOL     OW63003   5.900   7.827   2.687
53724SOL    HW163004   5.893   7.825   2.592
53724SOL    HW263005   5.992   7.846   2.704
53725SOL     OW63006   5.723   2.464   8.189
53725SOL    HW163007   5.696   2.399   8.254
53725SOL    HW263008   5.722   2.416   8.106
53726SOL     OW63009  13.293  12.199  10.472
53726SOL    HW163010  13.285  12.133  10.541
53726SOL    HW263011  13.302  12.149  10.391
53727SOL     OW63012  13.640  10.032  11.325
53727SOL    HW163013  13.548  10.046  11.346
53727SOL    HW263014  13.659  10.094  11.254
53728SOL     OW63015  12.367   7.594   7.761
53728SOL    HW163016  12.301   7.539   7.719
53728SOL    HW263017  12.437   7.533   7.786
53729SOL     OW63018   8.380  11.396  11.114
53729SOL    HW163019   8.447  11.341  11.073
53729SOL    HW263020   8.327  11.336  11.166
53730SOL     OW63021  10.868  14.491   0.357
53730SOL    HW163022  10.799  14.556   0.341
53730SOL    HW263023  10.943  14.542   0.386
53731SOL     OW63024  14.103   8.695   1.699
53731SOL    HW163025  14.015   8.697   1.738
53731SOL    HW263026  14.088   8.712   1.606
53732SOL     OW63027  14.262  10.141   2.023
53732SOL    HW163028  14.206  10.113   1.951
53732SOL    HW263029  14.323  10.068   2.036
53733SOL     OW63030  10.616  10.844   3.370
53733SOL    HW163031  10.571  10.826   3.453
53733SOL    HW263032  10.545  10.865   3.309
53734SOL     OW63033   0.308   4.573   4.655
53734SOL    HW163034   0.216   4.599   4.648
53734SOL    HW263035   0.308   4.506   4.724
53735SOL     OW63036   5.247   1.545   2.627
53735SOL    HW163037   5.228   1.456   2.596
53735SOL    HW263038   5.293   1.531   2.710
53736SOL     OW63039   9.567  13.266   6.739
53736SOL    HW163040   9.628  13.269   6.812
53736SOL    HW263041   9.616  13.304   6.665
53737SOL     OW63042   3.494  11.748   0.727
53737SOL    HW163043   3.442  11.816   0.684
53737SOL    HW263044   3.465  11.666   0.686
53738SOL     OW63045   8.050   2.776   1.518
53738SOL    HW163046   8.117   2.756   1.452
53738SOL    HW263047   8.004   2.852   1.482
53739SOL     OW63048   4.132   2.402   2.296
53739SOL    HW163049   4.116   2.392   2.390
53739SOL    HW263050   4.054   2.447   2.263
53740SOL     OW63051   8.302   3.516   2.749
53740SOL    HW163052   8.357   3.573   2.696
53740SOL    HW263053   8.275   3.447   2.688
53741SOL     OW63054  10.410   2.654   1.657
53741SOL    HW163055  10.400   2.561   1.675
53741SOL    HW263056  10.383   2.697   1.738
53742SOL     OW63057   5.288   8.989   9.591
53742SOL    HW163058   5.380   9.010   9.607
53742SOL    HW263059   5.289   8.923   9.522
53743SOL     OW63060  10.843   4.407  12.107
53743SOL    HW163061  10.829   4.403  12.013
53743SOL    HW263062  10.934   4.435  12.117
53744SOL     OW63063   7.964   5.090   1.468
53744SOL    HW163064   7.932   5.178   1.449
53744SOL    HW263065   7.891   5.033   1.445
53745SOL     OW63066   5.120   5.244   1.731
53745SOL    HW163067   5.203   5.217   1.692
53745SOL    HW263068   5.134   5.232   1.825
53746SOL     OW63069   5.720  11.958   3.326
53746SOL    HW163070   5.718  12.006   3.408
53746SOL    HW263071   5.646  11.993   3.276
53747SOL     OW63072   8.809  12.744  12.792
53747SOL    HW163073   8.802  12.651  12.815
53747SOL    HW263074   8.719  12.775  12.793
53748SOL     OW63075   4.283   5.456   4.275
53748SOL    HW163076   4.266   5.469   4.181
53748SOL    HW263077   4.355   5.393   4.278
53749SOL     OW63078   9.802  10.245  12.056
53749SOL    HW163079   9.822  10.184  12.127
53749SOL    HW263080   9.883  10.250  12.005
53750SOL     OW63081   3.318  11.156   4.170
53750SOL    HW163082   3.272  11.093   4.225
53750SOL    HW263083   3.255  11.181   4.103
53751SOL     OW63084   9.221   8.560  12.918
53751SOL    HW163085   9.188   8.611  12.845
53751SOL    HW263086   9.292   8.613  12.955
53752SOL     OW63087  12.152   4.685  14.192
53752SOL    HW163088  12.149   4.752  14.260
53752SOL    HW263089  12.206   4.723  14.123
53753SOL     OW63090   5.979   0.055  11.967
53753SOL    HW163091   5.936   0.140  11.976
53753SOL    HW263092   5.924   0.008  11.904
53754SOL     OW63093  14.343   7.128   6.005
53754SOL    HW163094  14.315   7.216   5.979
53754SOL    HW263095  14.384   7.092   5.927
53755SOL     OW63096   0.910  14.683  11.209
53755SOL    HW163097   0.990  14.635  11.233
53755SOL    HW263098   0.891  14.739  11.284
53756SOL     OW63099   1.232   5.266   6.620
53756SOL    HW163100   1.145   5.267   6.661
53756SOL    HW263101   1.228   5.193   6.558
53757SOL     OW63102   3.916   8.093  11.423
53757SOL    HW163103   3.944   8.029  11.489
53757SOL    HW263104   3.987   8.094  11.359
53758SOL     OW63105  12.884   6.307   8.698
53758SOL    HW163106  12.873   6.217   8.729
53758SOL    HW263107  12.961   6.303   8.641
53759SOL     OW63108  11.128  13.310   2.698
53759SOL    HW163109  11.161  13.365   2.769
53759SOL    HW263110  11.128  13.367   2.621
53760SOL     OW63111   7.808   8.699   8.159
53760SOL    HW163112   7.763   8.782   8.175
53760SOL    HW263113   7.836   8.670   8.245
53761SOL     OW63114   8.506   1.215   4.875
53761SOL    HW163115   8.473   1.147   4.933
53761SOL    HW263116   8.600   1.217   4.890
53762SOL     OW63117   8.627  13.013  11.148
53762SOL    HW163118   8.618  12.918  11.141
53762SOL    HW263119   8.615  13.032  11.241
53763SOL     OW63120  13.158  12.914   8.589
53763SOL    HW163121  13.140  12.973   8.663
53763SOL    HW263122  13.174  12.829   8.630
53764SOL     OW63123  13.381   3.985  14.661
53764SOL    HW163124  13.445   3.917  14.684
53764SOL    HW263125  13.357   3.965  14.570
53765SOL     OW63126   6.538  11.480   9.774
53765SOL    HW163127   6.561  11.396   9.736
53765SOL    HW263128   6.533  11.540   9.700
53766SOL     OW63129  12.265   1.726   9.901
53766SOL    HW163130  12.170   1.738   9.894
53766SOL    HW263131  12.296   1.801   9.950
53767SOL     OW63132  12.760   2.618   8.950
53767SOL    HW163133  12.687   2.557   8.937
53767SOL    HW263134  12.836   2.572   8.916
53768SOL     OW63135   7.292   9.795  10.355
53768SOL    HW163136   7.316   9.838  10.438
53768SOL    HW263137   7.209   9.751  10.374
53769SOL     OW63138  10.763   4.801   7.308
53769SOL    HW163139  10.719   4.828   7.227
53769SOL    HW263140  10.805   4.718   7.286
53770SOL     OW63141   9.324  11.821   4.550
53770SOL    HW163142   9.269  11.812   4.472
53770SOL    HW263143   9.322  11.915   4.568
53771SOL     OW63144  13.760   9.009  14.252
53771SOL    HW163145  13.824   8.972  14.312
53771SOL    HW263146  13.777   9.103  14.254
53772SOL     OW63147  12.278   6.745   3.682
53772SOL    HW163148  12.287   6.810   3.612
53772SOL    HW263149  12.208   6.687   3.652
53773SOL     OW63150   2.885  12.167   6.901
53773SOL    HW163151   2.858  12.171   6.809
53773SOL    HW263152   2.833  12.236   6.944
53774SOL     OW63153   1.437   8.726   5.699
53774SOL    HW163154   1.474   8.679   5.774
53774SOL    HW263155   1.492   8.803   5.689
53775SOL     OW63156   8.673  13.023   8.574
53775SOL    HW163157   8.618  13.051   8.647
53775SOL    HW263158   8.656  12.929   8.566
53776SOL     OW63159  12.234  13.504   6.347
53776SOL    HW163160  12.231  13.415   6.311
53776SOL    HW263161  12.277  13.495   6.432
53777SOL     OW63162   0.337   9.274   6.577
53777SOL    HW163163   0.409   9.258   6.638
53777SOL    HW263164   0.356   9.359   6.539
53778SOL     OW63165   2.936   6.223   1.545
53778SOL    HW163166   3.024   6.256   1.565
53778SOL    HW263167   2.936   6.133   1.577
53779SOL     OW63168   3.636   3.762   6.490
53779SOL    HW163169   3.548   3.740   6.520
53779SOL    HW263170   3.676   3.677   6.468
53780SOL     OW63171   2.699   9.197  12.394
53780SOL    HW163172   2.682   9.284  12.430
53780SOL    HW263173   2.698   9.209  12.299
53781SOL     OW63174   2.320  11.567   8.444
53781SOL    HW163175   2.282  11.489   8.485
53781SOL    HW263176   2.409  11.541   8.419
53782SOL     OW63177   0.340  13.305   9.388
53782SOL    HW163178   0.332  13.386   9.439
53782SOL    HW263179   0.428  13.273   9.407
53783SOL     OW63180   7.702   1.463  14.452
53783SOL    HW163181   7.756   1.500  14.382
53783SOL    HW263182   7.683   1.374  14.423
53784SOL     OW63183   7.592  10.613   6.205
53784SOL    HW163184   7.517  10.579   6.156
53784SOL    HW263185   7.668  10.595   6.149
53785SOL     OW63186  14.832  10.308   3.008
53785SOL    HW163187   0.041  10.279   2.976
53785SOL    HW263188  14.779  10.228   3.011
53786SOL     OW63189   5.157  10.781   0.674
53786SOL    HW163190   5.086  10.842   0.656
53786SOL    HW263191   5.212  10.783   0.595
53787SOL     OW63192   1.596   7.944  14.213
53787SOL    HW163193   1.626   8.034  14.223
53787SOL    HW263194   1.584   7.933  14.118
53788SOL     OW63195   7.046   0.452   3.857
53788SOL    HW163196   6.964   0.498   3.842
53788SOL    HW263197   7.041   0.373   3.803
53789SOL     OW63198  10.724  14.009   6.315
53789SOL    HW163199  10.675  13.927   6.312
53789SOL    HW263200  10.808  13.988   6.273
53790SOL     OW63201   5.254   0.527   1.745
53790SOL    HW163202   5.230   0.619   1.755
53790SOL    HW263203   5.346   0.530   1.717
53791SOL     OW63204  13.761  10.803   9.996
53791SOL    HW163205  13.838  10.799   9.940
53791SOL    HW263206  13.763  10.722  10.047
53792SOL     OW63207   0.434  14.662  14.384
53792SOL    HW163208   0.487  14.739  14.403
53792SOL    HW263209   0.458  14.637  14.295
53793SOL     OW63210   7.927   8.143   0.324
53793SOL    HW163211   7.873   8.118   0.249
53793SOL    HW263212   7.869   8.131   0.399
53794SOL     OW63213  12.789   4.931  12.096
53794SOL    HW163214  12.869   4.956  12.141
53794SOL    HW263215  12.719   4.967  12.150
53795SOL     OW63216  11.860   6.854   5.543
53795SOL    HW163217  11.789   6.908   5.578
53795SOL    HW263218  11.936   6.878   5.595
53796SOL     OW63219   5.113   5.428   7.591
53796SOL    HW163220   5.157   5.508   7.560
53796SOL    HW263221   5.043   5.413   7.528
53797SOL     OW63222   9.394   0.897  14.605
53797SOL    HW163223   9.306   0.931  14.622
53797SOL    HW263224   9.446   0.928  14.679
53798SOL     OW63225  14.593   8.203  11.898
53798SOL    HW163226  14.597   8.281  11.842
53798SOL    HW263227  14.529   8.146  11.855
53799SOL     OW63228  14.400   5.706   8.425
53799SOL    HW163229  14.379   5.621   8.463
53799SOL    HW263230  14.320   5.731   8.378
53800SOL     OW63231   8.477  14.392   2.318
53800SOL    HW163232   8.473  14.321   2.254
53800SOL    HW263233   8.458  14.471   2.266
53801SOL     OW63234   0.280   8.720   1.056
53801SOL    HW163235   0.276   8.629   1.084
53801SOL    HW263236   0.260   8.717   0.963
53802SOL     OW63237   7.573   3.587   0.714
53802SOL    HW163238   7.504   3.530   0.679
53802SOL    HW263239   7.617   3.622   0.636
53803SOL     OW63240   4.789  13.328  11.320
53803SOL    HW163241   4.800  13.394  11.388
53803SOL    HW263242   4.768  13.247  11.367
53804SOL     OW63243   0.252   9.111   9.501
53804SOL    HW163244   0.257   9.016   9.493
53804SOL    HW263245   0.254   9.128   9.595
53805SOL     OW63246  13.864   9.187   5.444
53805SOL    HW163247  13.816   9.143   5.514
53805SOL    HW263248  13.927   9.242   5.490
53806SOL     OW63249   4.349   3.777   0.347
53806SOL    HW163250   4.304   3.845   0.297
53806SOL    HW263251   4.442   3.789   0.325
53807SOL     OW63252   5.272   1.212  11.109
53807SOL    HW163253   5.182   1.181  11.121
53807SOL    HW263254   5.269   1.268  11.032
53808SOL     OW63255   9.798   4.185   0.767
53808SOL    HW163256   9.723   4.226   0.810
53808SOL    HW263257   9.761   4.136   0.694
53809SOL     OW63258   4.046   8.340   5.390
53809SOL    HW163259   4.042   8.285   5.468
53809SOL    HW263260   3.996   8.418   5.414
53810SOL     OW63261   1.186   1.536   1.476
53810SOL    HW163262   1.259   1.598   1.480
53810SOL    HW263263   1.111   1.585   1.510
53811SOL     OW63264  12.831   8.857   6.804
53811SOL    HW163265  12.858   8.893   6.719
53811SOL    HW263266  12.762   8.915   6.835
53812SOL     OW63267   3.954   6.670  14.628
53812SOL    HW163268   3.910   6.659  14.544
53812SOL    HW263269   4.017   6.740  14.613
53813SOL     OW63270   3.477   8.153   3.613
53813SOL    HW163271   3.529   8.137   3.534
53813SOL    HW263272   3.449   8.066   3.642
53814SOL     OW63273   6.206  13.829   7.903
53814SOL    HW163274   6.229  13.740   7.930
53814SOL    HW263275   6.237  13.835   7.812
53815SOL     OW63276   3.697   0.916  14.198
53815SOL    HW163277   3.691   1.009  14.174
53815SOL    HW263278   3.721   0.871  14.117
53816SOL     OW63279   9.060   3.127   4.778
53816SOL    HW163280   9.110   3.205   4.800
53816SOL    HW263281   9.126   3.060   4.760
53817SOL     OW63282   6.537   4.706  14.045
53817SOL    HW163283   6.528   4.724  14.138
53817SOL    HW263284   6.493   4.622  14.032
53818SOL     OW63285   7.700   9.686   4.175
53818SOL    HW163286   7.626   9.746   4.164
53818SOL    HW263287   7.694   9.659   4.267
53819SOL     OW63288  12.718  12.926   9.668
53819SOL    HW163289  12.710  12.833   9.689
53819SOL    HW263290  12.630  12.952   9.639
53820SOL     OW63291  13.969  11.306   0.218
53820SOL    HW163292  13.969  11.212   0.199
53820SOL    HW263293  13.879  11.333   0.203
53821SOL     OW63294   0.503   5.074   0.977
53821SOL    HW163295   0.441   5.004   0.960
53821SOL    HW263296   0.511   5.078   1.072
53822SOL     OW63297   1.614  13.634   3.338
53822SOL    HW163298   1.528  13.625   3.381
53822SOL    HW263299   1.633  13.728   3.346
53823SOL     OW63300  14.609  10.846  12.704
53823SOL    HW163301  14.527  10.812  12.739
53823SOL    HW263302  14.583  10.900  12.629
53824SOL     OW63303  10.352   4.130   0.064
53824SOL    HW163304  10.324   4.176  14.861
53824SOL    HW263305  10.274   4.083   0.094
53825SOL     OW63306   4.544  10.649  11.501
53825SOL    HW163307   4.579  10.655  11.412
53825SOL    HW263308   4.589  10.719  11.549
53826SOL     OW63309   1.044  14.182  10.233
53826SOL    HW163310   1.084  14.097  10.253
53826SOL    HW263311   1.040  14.226  10.318
53827SOL     OW63312   0.876   5.350  14.010
53827SOL    HW163313   0.882   5.299  14.091
53827SOL    HW263314   0.945   5.315  13.954
53828SOL     OW63315  11.007   5.771  10.327
53828SOL    HW163316  11.007   5.764  10.232
53828SOL    HW263317  10.931   5.721  10.355
53829SOL     OW63318   8.574   3.569   8.914
53829SOL    HW163319   8.556   3.475   8.905
53829SOL    HW263320   8.510   3.611   8.858
53830SOL     OW63321  14.253   8.654  11.062
53830SOL    HW163322  14.205   8.579  11.027
53830SOL    HW263323  14.218   8.666  11.150
53831SOL     OW63324   0.986  14.034   5.088
53831SOL    HW163325   1.004  14.088   5.165
53831SOL    HW263326   1.041  13.956   5.100
53832SOL     OW63327  11.612   4.341   0.761
53832SOL    HW163328  11.659   4.421   0.784
53832SOL    HW263329  11.669   4.297   0.697
53833SOL     OW63330   7.853  13.698  13.385
53833SOL    HW163331   7.882  13.621  13.433
53833SOL    HW263332   7.821  13.664  13.301
53834SOL     OW63333  14.065  11.683   1.316
53834SOL    HW163334  14.081  11.686   1.410
53834SOL    HW263335  14.118  11.608   1.285
53835SOL     OW63336  11.974   0.528  12.863
53835SOL    HW163337  12.044   0.593  12.859
53835SOL    HW263338  12.018   0.447  12.886
53836SOL     OW63339  11.893   1.902   0.883
53836SOL    HW163340  11.833   1.856   0.825
53836SOL    HW263341  11.939   1.964   0.826
53837SOL     OW63342  11.086   6.460   3.072
53837SOL    HW163343  11.066   6.533   3.131
53837SOL    HW263344  11.157   6.413   3.116
53838SOL     OW63345   4.191  10.045   7.233
53838SOL    HW163346   4.165  10.134   7.260
53838SOL    HW263347   4.214  10.054   7.141
53839SOL     OW63348   2.901   2.859   8.379
53839SOL    HW163349   2.977   2.911   8.406
53839SOL    HW263350   2.828   2.921   8.378
53840SOL     OW63351   7.853  13.704   5.556
53840SOL    HW163352   7.856  13.655   5.474
53840SOL    HW263353   7.908  13.781   5.540
53841SOL     OW63354  12.372   3.530   9.313
53841SOL    HW163355  12.375   3.603   9.251
53841SOL    HW263356  12.427   3.558   9.387
53842SOL     OW63357  14.369   1.037   5.571
53842SOL    HW163358  14.442   1.081   5.615
53842SOL    HW263359  14.369   1.074   5.482
53843SOL     OW63360   1.976   1.411   8.230
53843SOL    HW163361   2.014   1.494   8.260
53843SOL    HW263362   1.938   1.373   8.309
53844SOL     OW63363   5.541   1.608   3.272
53844SOL    HW163364   5.561   1.568   3.357
53844SOL    HW263365   5.448   1.594   3.259
53845SOL     OW63366   2.807   0.248   8.875
53845SOL    HW163367   2.825   0.339   8.852
53845SOL    HW263368   2.765   0.253   8.961
53846SOL     OW63369   4.812   1.187   5.300
53846SOL    HW163370   4.836   1.101   5.335
53846SOL    HW263371   4.716   1.188   5.303
53847SOL     OW63372   5.988   9.773  10.991
53847SOL    HW163373   6.022   9.830  11.060
53847SOL    HW263374   6.026   9.687  11.010
53848SOL     OW63375   6.504   9.414   3.324
53848SOL    HW163376   6.435   9.365   3.369
53848SOL    HW263377   6.520   9.365   3.244
53849SOL     OW63378   0.578  13.213   9.764
53849SOL    HW163379   0.545  13.152   9.830
53849SOL    HW263380   0.586  13.296   9.811
53850SOL     OW63381   4.329   6.507  11.541
53850SOL    HW163382   4.252   6.546  11.583
53850SOL    HW263383   4.309   6.413  11.536
53851SOL     OW63384   1.253   8.042   3.663
53851SOL    HW163385   1.246   8.040   3.758
53851SOL    HW263386   1.261   8.135   3.641
53852SOL     OW63387   0.913   0.123   3.633
53852SOL    HW163388   0.950   0.203   3.595
53852SOL    HW263389   0.937   0.054   3.571
53853SOL     OW63390  10.465  10.185   6.065
53853SOL    HW163391  10.410  10.109   6.085
53853SOL    HW263392  10.435  10.254   6.124
53854SOL     OW63393   1.956   6.191  13.866
53854SOL    HW163394   2.031   6.246  13.846
53854SOL    HW263395   1.994   6.107  13.892
53855SOL     OW63396   2.760   7.246   8.430
53855SOL    HW163397   2.772   7.227   8.337
53855SOL    HW263398   2.790   7.167   8.475
53856SOL     OW63399   8.825   6.580  13.005
53856SOL    HW163400   8.825   6.669  13.038
53856SOL    HW263401   8.850   6.588  12.913
53857SOL     OW63402  11.130   3.670   2.314
53857SOL    HW163403  11.136   3.751   2.366
53857SOL    HW263404  11.039   3.644   2.322
53858SOL     OW63405  13.794   0.193  14.650
53858SOL    HW163406  13.748   0.124  14.601
53858SOL    HW263407  13.750   0.274  14.623
53859SOL     OW63408   0.259   9.602   5.172
53859SOL    HW163409   0.209   9.623   5.251
53859SOL    HW263410   0.207   9.533   5.129
53860SOL     OW63411   1.845  13.535   3.695
53860SOL    HW163412   1.749  13.537   3.702
53860SOL    HW263413   1.869  13.624   3.672
53861SOL     OW63414  13.447  14.236   6.360
53861SOL    HW163415  13.414  14.266   6.444
53861SOL    HW263416  13.389  14.164   6.335
53862SOL     OW63417   9.139   0.689  10.267
53862SOL    HW163418   9.076   0.755  10.239
53862SOL    HW263419   9.114   0.610  10.220
53863SOL     OW63420   4.637  12.351  14.199
53863SOL    HW163421   4.697  12.306  14.259
53863SOL    HW263422   4.574  12.394  14.256
53864SOL     OW63423  13.576   6.897  14.700
53864SOL    HW163424  13.483   6.910  14.681
53864SOL    HW263425  13.597   6.966  14.762
53865SOL     OW63426  10.180   6.362   6.948
53865SOL    HW163427  10.230   6.303   6.892
53865SOL    HW263428  10.091   6.359   6.914
53866SOL     OW63429   7.401   2.450   3.949
53866SOL    HW163430   7.465   2.520   3.942
53866SOL    HW263431   7.334   2.472   3.884
53867SOL     OW63432   0.402   1.965   7.016
53867SOL    HW163433   0.375   1.999   7.101
53867SOL    HW263434   0.498   1.973   7.016
53868SOL     OW63435   0.910   1.362   6.342
53868SOL    HW163436   0.841   1.414   6.300
53868SOL    HW263437   0.920   1.401   6.429
53869SOL     OW63438   7.222   2.201  10.665
53869SOL    HW163439   7.206   2.242  10.750
53869SOL    HW263440   7.248   2.274  10.608
53870SOL     OW63441  12.972   0.421   1.453
53870SOL    HW163442  13.019   0.398   1.533
53870SOL    HW263443  12.908   0.351   1.441
53871SOL     OW63444   3.132   5.538  12.180
53871SOL    HW163445   3.204   5.601  12.188
53871SOL    HW263446   3.163   5.460  12.225
53872SOL     OW63447  14.790  11.398   1.036
53872SOL    HW163448  14.751  11.332   0.978
53872SOL    HW263449  14.800  11.476   0.980
53873SOL     OW63450   1.314   7.977  13.958
53873SOL    HW163451   1.287   7.887  13.941
53873SOL    HW263452   1.408   7.971  13.976
53874SOL     OW63453   9.281  14.732  12.115
53874SOL    HW163454   9.353  14.730  12.052
53874SOL    HW263455   9.260  14.640  12.131
53875SOL     OW63456  13.271  12.549  11.008
53875SOL    HW163457  13.332  12.477  10.993
53875SOL    HW263458  13.288  12.611  10.937
53876SOL     OW63459   9.355   8.178   0.860
53876SOL    HW163460   9.397   8.098   0.891
53876SOL    HW263461   9.301   8.207   0.933
53877SOL     OW63462   1.188   8.457   5.877
53877SOL    HW163463   1.248   8.417   5.815
53877SOL    HW263464   1.241   8.474   5.955
53878SOL     OW63465   1.023  11.504   5.483
53878SOL    HW163466   0.945  11.470   5.438
53878SOL    HW263467   1.064  11.562   5.419
53879SOL     OW63468   8.995   0.291  13.270
53879SOL    HW163469   8.991   0.295  13.175
53879SOL    HW263470   8.920   0.237  13.296
53880SOL     OW63471  13.813  10.341   6.125
53880SOL    HW163472  13.730  10.311   6.161
53880SOL    HW263473  13.853  10.393   6.196
53881SOL     OW63474   4.115   3.277   2.476
53881SOL    HW163475   4.114   3.339   2.549
53881SOL    HW263476   4.075   3.197   2.511
53882SOL     OW63477   6.722   6.148  10.624
53882SOL    HW163478   6.741   6.234  10.662
53882SOL    HW263479   6.627   6.143  10.624
53883SOL     OW63480   2.020   2.431  14.481
53883SOL    HW163481   2.044   2.341  14.456
53883SOL    HW263482   1.925   2.431  14.483
53884SOL     OW63483   5.240   0.618   2.600
53884SOL    HW163484   5.315   0.662   2.640
53884SOL    HW263485   5.169   0.682   2.608
53885SOL     OW63486   7.595   8.109   5.503
53885SOL    HW163487   7.506   8.088   5.474
53885SOL    HW263488   7.583   8.170   5.576
53886SOL     OW63489  12.681  12.607   4.436
53886SOL    HW163490  12.651  12.584   4.348
53886SOL    HW263491  12.776  12.599   4.432
53887SOL     OW63492  13.458  12.731   0.197
53887SOL    HW163493  13.506  12.663   0.150
53887SOL    HW263494  13.496  12.813   0.164
53888SOL     OW63495   2.101   5.497  13.711
53888SOL    HW163496   2.057   5.412  13.713
53888SOL    HW263497   2.162   5.495  13.785
53889SOL     OW63498   7.044   6.415   1.691
53889SOL    HW163499   6.982   6.385   1.758
53889SOL    HW263500   6.988   6.442   1.618
53890SOL     OW63501  14.121   1.368  11.131
53890SOL    HW163502  14.037   1.382  11.089
53890SOL    HW263503  14.150   1.282  11.101
53891SOL     OW63504   0.509   9.151   2.336
53891SOL    HW163505   0.430   9.102   2.311
53891SOL    HW263506   0.524   9.210   2.262
53892SOL     OW63507   2.118  14.358   8.422
53892SOL    HW163508   2.056  14.358   8.495
53892SOL    HW263509   2.129  14.266   8.400
53893SOL     OW63510   1.394  12.815   5.460
53893SOL    HW163511   1.487  12.790   5.466
53893SOL    HW263512   1.391  12.876   5.386
53894SOL     OW63513  10.151  10.573  14.290
53894SOL    HW163514  10.090  10.620  14.233
53894SOL    HW263515  10.152  10.624  14.371
53895SOL     OW63516  10.070  11.330  14.667
53895SOL    HW163517  10.135  11.353  14.600
53895SOL    HW263518  10.122  11.310  14.745
53896SOL     OW63519   3.358  10.884   6.261
53896SOL    HW163520   3.276  10.927   6.287
53896SOL    HW263521   3.330  10.811   6.206
53897SOL     OW63522   2.898  11.905   6.459
53897SOL    HW163523   2.846  11.983   6.481
53897SOL    HW263524   2.860  11.873   6.378
53898SOL     OW63525   4.848  10.437  14.471
53898SOL    HW163526   4.802  10.353  14.468
53898SOL    HW263527   4.861  10.461  14.380
53899SOL     OW63528  10.037   9.924   4.189
53899SOL    HW163529  10.080   9.975   4.257
53899SOL    HW263530   9.961   9.977   4.163
53900SOL     OW63531  12.712   0.202  11.019
53900SOL    HW163532  12.741   0.165  11.103
53900SOL    HW263533  12.736   0.295  11.024
53901SOL     OW63534  10.903   9.566  11.332
53901SOL    HW163535  10.848   9.627  11.283
53901SOL    HW263536  10.876   9.576  11.423
53902SOL     OW63537  14.208  11.788   6.339
53902SOL    HW163538  14.128  11.809   6.291
53902SOL    HW263539  14.198  11.696   6.365
53903SOL     OW63540   2.026  13.372  11.075
53903SOL    HW163541   2.028  13.295  11.019
53903SOL    HW263542   2.118  13.394  11.091
53904SOL     OW63543   9.466   0.276  13.015
53904SOL    HW163544   9.520   0.300  13.090
53904SOL    HW263545   9.458   0.181  13.021
53905SOL     OW63546  14.371  14.255  14.323
53905SOL    HW163547  14.356  14.248  14.229
53905SOL    HW263548  14.464  14.279  14.331
53906SOL     OW63549  12.895  13.366   7.020
53906SOL    HW163550  12.946  13.426   6.965
53906SOL    HW263551  12.944  13.284   7.017
53907SOL     OW63552   7.051   8.985   6.566
53907SOL    HW163553   6.994   8.912   6.542
53907SOL    HW263554   7.047   8.988   6.662
53908SOL     OW63555   9.570   4.889   7.268
53908SOL    HW163556   9.489   4.941   7.267
53908SOL    HW263557   9.540   4.799   7.278
53909SOL     OW63558  13.657  13.328  13.125
53909SOL    HW163559  13.685  13.409  13.083
53909SOL    HW263560  13.562  13.336  13.133
53910SOL     OW63561  10.707   7.051   0.469
53910SOL    HW163562  10.778   7.086   0.523
53910SOL    HW263563  10.678   6.973   0.515
53911SOL     OW63564   4.082  14.702  11.708
53911SOL    HW163565   4.056  14.616  11.744
53911SOL    HW263566   4.172  14.690  11.680
53912SOL     OW63567   6.124  11.975   2.264
53912SOL    HW163568   6.061  11.912   2.300
53912SOL    HW263569   6.173  12.006   2.340
53913SOL     OW63570   9.055  13.274   4.984
53913SOL    HW163571   9.013  13.360   4.978
53913SOL    HW263572   8.982  13.213   4.999
53914SOL     OW63573   7.679   6.446   7.938
53914SOL    HW163574   7.697   6.461   8.031
53914SOL    HW263575   7.691   6.533   7.898
53915SOL     OW63576  14.368   5.749   3.400
53915SOL    HW163577  14.324   5.669   3.370
53915SOL    HW263578  14.457   5.742   3.364
53916SOL     OW63579   4.442   3.632   7.279
53916SOL    HW163580   4.443   3.629   7.374
53916SOL    HW263581   4.436   3.725   7.257
53917SOL     OW63582   5.707   6.217   0.648
53917SOL    HW163583   5.667   6.278   0.710
53917SOL    HW263584   5.644   6.210   0.577
53918SOL     OW63585  14.332   7.374  10.392
53918SOL    HW163586  14.359   7.410  10.476
53918SOL    HW263587  14.274   7.301  10.414
53919SOL     OW63588   7.859  11.229   0.022
53919SOL    HW163589   7.845  11.218  14.803
53919SOL    HW263590   7.785  11.283   0.051
53920SOL     OW63591   0.484   4.459   2.955
53920SOL    HW163592   0.448   4.534   3.002
53920SOL    HW263593   0.495   4.391   3.022
53921SOL     OW63594   3.907  11.701   0.132
53921SOL    HW163595   3.984  11.711   0.189
53921SOL    HW263596   3.835  11.685   0.192
53922SOL     OW63597   4.775   2.459  11.923
53922SOL    HW163598   4.688   2.430  11.952
53922SOL    HW263599   4.817   2.380  11.889
53923SOL     OW63600   9.552  14.707   7.570
53923SOL    HW163601   9.511  14.760   7.502
53923SOL    HW263602   9.623  14.661   7.526
53924SOL     OW63603   9.071   6.770   6.439
53924SOL    HW163604   9.032   6.759   6.526
53924SOL    HW263605   9.054   6.687   6.394
53925SOL     OW63606  12.658  12.171  13.112
53925SOL    HW163607  12.652  12.084  13.152
53925SOL    HW263608  12.692  12.227  13.182
53926SOL     OW63609   5.548   8.926  12.152
53926SOL    HW163610   5.556   8.841  12.111
53926SOL    HW263611   5.550   8.908  12.246
53927SOL     OW63612   2.904  12.865  11.309
53927SOL    HW163613   2.910  12.959  11.295
53927SOL    HW263614   2.814  12.843  11.286
53928SOL     OW63615   1.386  14.577   3.130
53928SOL    HW163616   1.317  14.610   3.188
53928SOL    HW263617   1.339  14.520   3.069
53929SOL     OW63618  11.419   2.292  12.175
53929SOL    HW163619  11.392   2.300  12.084
53929SOL    HW263620  11.515   2.293  12.172
53930SOL     OW63621   2.819   3.502  14.736
53930SOL    HW163622   2.748   3.477  14.794
53930SOL    HW263623   2.834   3.595  14.755
53931SOL     OW63624   9.330   8.092   3.955
53931SOL    HW163625   9.383   8.149   4.010
53931SOL    HW263626   9.385   8.014   3.941
53932SOL     OW63627   2.159   7.585  13.850
53932SOL    HW163628   2.237   7.627  13.813
53932SOL    HW263629   2.114   7.549  13.774
53933SOL     OW63630   6.131  10.733   0.216
53933SOL    HW163631   6.191  10.794   0.173
53933SOL    HW263632   6.185  10.656   0.236
53934SOL     OW63633   9.728   0.731   3.147
53934SOL    HW163634   9.696   0.650   3.186
53934SOL    HW263635   9.819   0.713   3.125
53935SOL     OW63636   2.381  14.255  12.411
53935SOL    HW163637   2.346  14.196  12.344
53935SOL    HW263638   2.357  14.214  12.494
53936SOL     OW63639   8.538  10.393   7.795
53936SOL    HW163640   8.459  10.390   7.741
53936SOL    HW263641   8.551  10.302   7.823
53937SOL     OW63642   9.364   8.045   8.032
53937SOL    HW163643   9.339   8.006   7.948
53937SOL    HW263644   9.394   7.972   8.085
53938SOL     OW63645   8.452   3.465   1.639
53938SOL    HW163646   8.400   3.403   1.587
53938SOL    HW263647   8.438   3.550   1.597
53939SOL     OW63648   2.400  13.193   4.498
53939SOL    HW163649   2.400  13.195   4.403
53939SOL    HW263650   2.313  13.224   4.523
53940SOL     OW63651  13.373  14.148  14.309
53940SOL    HW163652  13.459  14.189  14.305
53940SOL    HW263653  13.377  14.077  14.244
53941SOL     OW63654   4.286   0.075   6.930
53941SOL    HW163655   4.220   0.105   6.994
53941SOL    HW263656   4.240   0.010   6.877
53942SOL     OW63657   9.877   9.481   1.051
53942SOL    HW163658   9.828   9.449   0.974
53942SOL    HW263659   9.966   9.495   1.018
53943SOL     OW63660   0.320   8.862   8.041
53943SOL    HW163661   0.329   8.815   8.124
53943SOL    HW263662   0.362   8.805   7.977
53944SOL     OW63663   7.183   2.663   2.686
53944SOL    HW163664   7.186   2.716   2.606
53944SOL    HW263665   7.144   2.580   2.658
53945SOL     OW63666  13.600   5.259  13.871
53945SOL    HW163667  13.622   5.242  13.779
53945SOL    HW263668  13.590   5.354  13.875
53946SOL     OW63669  14.216   2.103   2.610
53946SOL    HW163670  14.284   2.109   2.677
53946SOL    HW263671  14.191   2.194   2.594
53947SOL     OW63672  12.275   4.893  11.142
53947SOL    HW163673  12.283   4.909  11.048
53947SOL    HW263674  12.181   4.895  11.159
53948SOL     OW63675   3.545   4.777   8.792
53948SOL    HW163676   3.573   4.869   8.789
53948SOL    HW263677   3.483   4.773   8.865
53949SOL     OW63678   9.602   1.106   6.297
53949SOL    HW163679   9.612   1.195   6.331
53949SOL    HW263680   9.642   1.109   6.210
53950SOL     OW63681  14.789  12.153   5.088
53950SOL    HW163682  14.833  12.096   5.150
53950SOL    HW263683  14.858  12.209   5.052
53951SOL     OW63684  11.403   3.441   0.925
53951SOL    HW163685  11.428   3.529   0.896
53951SOL    HW263686  11.315   3.452   0.962
53952SOL     OW63687  12.857   9.552   5.982
53952SOL    HW163688  12.822   9.476   5.936
53952SOL    HW263689  12.781   9.590   6.026
53953SOL     OW63690   3.748  11.931  12.897
53953SOL    HW163691   3.681  11.922  12.964
53953SOL    HW263692   3.776  12.023  12.903
53954SOL     OW63693   8.002   5.482   5.006
53954SOL    HW163694   7.985   5.455   4.916
53954SOL    HW263695   8.030   5.573   4.999
53955SOL     OW63696   3.303   3.135   8.106
53955SOL    HW163697   3.382   3.140   8.160
53955SOL    HW263698   3.323   3.189   8.030
53956SOL     OW63699  10.441   0.892  14.076
53956SOL    HW163700  10.535   0.894  14.061
53956SOL    HW263701  10.425   0.967  14.133
53957SOL     OW63702  13.855   4.453   6.494
53957SOL    HW163703  13.778   4.507   6.512
53957SOL    HW263704  13.911   4.465   6.571
53958SOL     OW63705  11.673   1.849   4.987
53958SOL    HW163706  11.708   1.785   5.049
53958SOL    HW263707  11.749   1.877   4.935
53959SOL     OW63708   9.468  13.812   7.393
53959SOL    HW163709   9.478  13.779   7.303
53959SOL    HW263710   9.529  13.758   7.444
53960SOL     OW63711   2.479   5.832   3.193
53960SOL    HW163712   2.498   5.740   3.211
53960SOL    HW263713   2.519   5.880   3.266
53961SOL     OW63714  10.735  12.856   2.448
53961SOL    HW163715  10.749  12.836   2.356
53961SOL    HW263716  10.640  12.863   2.457
53962SOL     OW63717  12.901  14.099  12.345
53962SOL    HW163718  12.979  14.135  12.386
53962SOL    HW263719  12.844  14.174  12.330
53963SOL     OW63720   1.131   0.095   9.105
53963SOL    HW163721   1.188   0.170   9.121
53963SOL    HW263722   1.137   0.081   9.010
53964SOL     OW63723   0.616  12.706   0.755
53964SOL    HW163724   0.606  12.696   0.850
53964SOL    HW263725   0.603  12.799   0.739
53965SOL     OW63726   5.721   2.293   1.389
53965SOL    HW163727   5.796   2.346   1.416
53965SOL    HW263728   5.664   2.290   1.466
53966SOL     OW63729   0.397   9.351  11.862
53966SOL    HW163730   0.431   9.264  11.886
53966SOL    HW263731   0.302   9.342  11.866
53967SOL     OW63732   3.360   9.587   7.454
53967SOL    HW163733   3.352   9.507   7.402
53967SOL    HW263734   3.450   9.617   7.439
53968SOL     OW63735   6.531  13.712   4.363
53968SOL    HW163736   6.534  13.674   4.451
53968SOL    HW263737   6.610  13.766   4.358
53969SOL     OW63738  12.670   3.494   1.062
53969SOL    HW163739  12.731   3.558   1.025
53969SOL    HW263740  12.586   3.514   1.020
53970SOL     OW63741   0.001  13.088   4.359
53970SOL    HW163742  14.842  13.027   4.293
53970SOL    HW263743  14.803  13.104   4.418
53971SOL     OW63744   8.687   0.914   8.756
53971SOL    HW163745   8.763   0.858   8.739
53971SOL    HW263746   8.625   0.858   8.803
53972SOL     OW63747   9.813  11.491   0.895
53972SOL    HW163748   9.806  11.490   0.991
53972SOL    HW263749   9.812  11.398   0.871
53973SOL     OW63750   5.847   3.690  11.889
53973SOL    HW163751   5.818   3.599  11.880
53973SOL    HW263752   5.937   3.690  11.857
53974SOL     OW63753   4.131  13.253  12.768
53974SOL    HW163754   4.162  13.333  12.809
53974SOL    HW263755   4.135  13.187  12.838
53975SOL     OW63756  14.246   7.247   6.820
53975SOL    HW163757  14.153   7.235   6.837
53975SOL    HW263758  14.256   7.229   6.727
53976SOL     OW63759   1.245  11.813  12.788
53976SOL    HW163760   1.278  11.814  12.877
53976SOL    HW263761   1.189  11.735  12.784
53977SOL     OW63762   6.261  14.133   4.854
53977SOL    HW163763   6.177  14.157   4.891
53977SOL    HW263764   6.292  14.060   4.908
53978SOL     OW63765   6.931  10.937   1.397
53978SOL    HW163766   7.019  10.953   1.431
53978SOL    HW263767   6.944  10.870   1.329
53979SOL     OW63768   0.255   6.062   8.655
53979SOL    HW163769   0.247   5.974   8.618
53979SOL    HW263770   0.174   6.075   8.705
53980SOL     OW63771   2.686   2.298  10.267
53980SOL    HW163772   2.703   2.223  10.323
53980SOL    HW263773   2.756   2.360  10.289
53981SOL     OW63774  13.971  13.724  10.828
53981SOL    HW163775  13.896  13.667  10.844
53981SOL    HW263776  13.972  13.735  10.733
53982SOL     OW63777   7.520   4.760  12.082
53982SOL    HW163778   7.574   4.764  12.003
53982SOL    HW263779   7.508   4.851  12.108
53983SOL     OW63780   4.766  10.935   5.010
53983SOL    HW163781   4.691  10.899   4.963
53983SOL    HW263782   4.806  10.858   5.052
53984SOL     OW63783  12.915  11.049  10.012
53984SOL    HW163784  12.927  10.956   9.993
53984SOL    HW263785  13.002  11.087  10.004
53985SOL     OW63786  10.779   8.524   3.765
53985SOL    HW163787  10.813   8.594   3.821
53985SOL    HW263788  10.739   8.462   3.826
53986SOL     OW63789  10.041   0.371  13.366
53986SOL    HW163790  10.035   0.362  13.461
53986SOL    HW263791   9.991   0.451  13.347
53987SOL     OW63792   0.604   8.571   0.718
53987SOL    HW163793   0.682   8.530   0.680
53987SOL    HW263794   0.638   8.631   0.784
53988SOL     OW63795  10.160   4.980   2.340
53988SOL    HW163796  10.070   4.996   2.367
53988SOL    HW263797  10.156   4.971   2.245
53989SOL     OW63798   8.570   2.329   8.195
53989SOL    HW163799   8.479   2.327   8.225
53989SOL    HW263800   8.621   2.305   8.273
53990SOL     OW63801  14.786   9.582   5.646
53990SOL    HW163802  14.820   9.493   5.655
53990SOL    HW263803  14.720   9.575   5.576
53991SOL     OW63804  12.040   9.040   3.511
53991SOL    HW163805  12.001   9.116   3.554
53991SOL    HW263806  11.983   9.024   3.436
53992SOL     OW63807   2.850   4.711  11.419
53992SOL    HW163808   2.868   4.751  11.334
53992SOL    HW263809   2.755   4.707  11.424
53993SOL     OW63810   2.086  11.551   1.528
53993SOL    HW163811   2.010  11.588   1.484
53993SOL    HW263812   2.151  11.622   1.527
53994SOL     OW63813   0.473   6.564   2.393
53994SOL    HW163814   0.548   6.542   2.337
53994SOL    HW263815   0.490   6.519   2.475
53995SOL     OW63816  11.031  14.632  12.040
53995SOL    HW163817  11.126  14.633  12.034
53995SOL    HW263818  11.011  14.699  12.105
53996SOL     OW63819   1.800  12.056  11.742
53996SOL    HW163820   1.739  12.115  11.696
53996SOL    HW263821   1.847  12.011  11.672
53997SOL     OW63822   9.535   1.466   3.330
53997SOL    HW163823   9.616   1.464   3.381
53997SOL    HW263824   9.559   1.429   3.245
53998SOL     OW63825   2.526   1.924   3.975
53998SOL    HW163826   2.468   1.912   3.899
53998SOL    HW263827   2.614   1.912   3.940
53999SOL     OW63828   5.922  11.979  12.162
53999SOL    HW163829   5.997  11.957  12.108
53999SOL    HW263830   5.921  11.913  12.231
54000SOL     OW63831   2.163   9.484   8.628
54000SOL    HW163832   2.180   9.542   8.554
54000SOL    HW263833   2.127   9.404   8.589
54001SOL     OW63834   0.253   3.721   4.499
54001SOL    HW163835   0.194   3.669   4.554
54001SOL    HW263836   0.225   3.702   4.410
54002SOL     OW63837   4.944  11.898   5.670
54002SOL    HW163838   4.915  11.809   5.694
54002SOL    HW263839   4.928  11.904   5.576
54003SOL     OW63840   6.987   8.256  10.721
54003SOL    HW163841   6.901   8.288  10.693
54003SOL    HW263842   7.048   8.327  10.700
54004SOL     OW63843  10.505  14.850   5.575
54004SOL    HW163844  10.450  14.869   5.651
54004SOL    HW263845  10.468   0.026   5.504
54005SOL     OW63846   2.903  14.447   4.945
54005SOL    HW163847   2.958  14.394   5.003
54005SOL    HW263848   2.962  14.473   4.874
54006SOL     OW63849   9.649  14.035  10.640
54006SOL    HW163850   9.668  13.975  10.567
54006SOL    HW263851   9.555  14.026  10.655
54007SOL     OW63852   0.256  13.188   2.165
54007SOL    HW163853   0.315  13.261   2.148
54007SOL    HW263854   0.304  13.110   2.136
54008SOL     OW63855   0.251   1.240   6.999
54008SOL    HW163856   0.280   1.152   7.022
54008SOL    HW263857   0.171   1.226   6.948
54009SOL     OW63858   8.827  12.884   0.519
54009SOL    HW163859   8.787  12.907   0.435
54009SOL    HW263860   8.755  12.886   0.582
54010SOL     OW63861   5.064  14.704  11.087
54010SOL    HW163862   5.109  14.734  11.008
54010SOL    HW263863   5.116  14.629  11.118
54011SOL     OW63864   5.000   4.102  11.914
54011SOL    HW163865   4.962   4.189  11.921
54011SOL    HW263866   5.094   4.117  11.905
54012SOL     OW63867  14.096   7.161  13.077
54012SOL    HW163868  14.018   7.200  13.116
54012SOL    HW263869  14.168   7.217  13.106
54013SOL     OW63870   8.271  10.037   3.523
54013SOL    HW163871   8.282   9.988   3.441
54013SOL    HW263872   8.185  10.011   3.555
54014SOL     OW63873  12.446  13.476  12.043
54014SOL    HW163874  12.525  13.523  12.014
54014SOL    HW263875  12.425  13.514  12.128
54015SOL     OW63876  13.429  14.177   6.050
54015SOL    HW163877  13.455  14.202   5.961
54015SOL    HW263878  13.484  14.101   6.070
54016SOL     OW63879   7.059   9.416   1.436
54016SOL    HW163880   7.039   9.437   1.345
54016SOL    HW263881   7.001   9.342   1.457
54017SOL     OW63882  10.761   0.335   9.094
54017SOL    HW163883  10.702   0.300   9.160
54017SOL    HW263884  10.798   0.257   9.052
54018SOL     OW63885   6.885  12.203   6.341
54018SOL    HW163886   6.978  12.183   6.354
54018SOL    HW263887   6.856  12.234   6.426
54019SOL     OW63888   2.613  11.144  12.186
54019SOL    HW163889   2.593  11.073  12.125
54019SOL    HW263890   2.655  11.211  12.132
54020SOL     OW63891  13.274   9.678  12.616
54020SOL    HW163892  13.286   9.607  12.553
54020SOL    HW263893  13.275   9.634  12.701
54021SOL     OW63894   9.119   3.955   8.494
54021SOL    HW163895   9.119   3.983   8.402
54021SOL    HW263896   9.058   4.015   8.537
54022SOL     OW63897   4.690   7.130   1.717
54022SOL    HW163898   4.684   7.224   1.735
54022SOL    HW263899   4.697   7.090   1.804
54023SOL     OW63900   3.858  10.363   7.546
54023SOL    HW163901   3.845  10.345   7.639
54023SOL    HW263902   3.770  10.379   7.512
54024SOL     OW63903   7.261  12.236  10.332
54024SOL    HW163904   7.297  12.293  10.264
54024SOL    HW263905   7.280  12.281  10.414
54025SOL     OW63906   9.482   0.654   2.927
54025SOL    HW163907   9.452   0.655   3.018
54025SOL    HW263908   9.410   0.616   2.878
54026SOL     OW63909  13.513  13.316   2.492
54026SOL    HW163910  13.443  13.331   2.556
54026SOL    HW263911  13.522  13.221   2.490
54027SOL     OW63912   9.005  13.913   8.447
54027SOL    HW163913   8.954  13.929   8.526
54027SOL    HW263914   9.082  13.865   8.477
54028SOL     OW63915   2.317  14.689  11.472
54028SOL    HW163916   2.399  14.648  11.503
54028SOL    HW263917   2.335  14.783  11.475
54029SOL     OW63918  11.513   9.351   5.234
54029SOL    HW163919  11.479   9.262   5.224
54029SOL    HW263920  11.608   9.341   5.228
54030SOL     OW63921   3.769  11.839   5.013
54030SOL    HW163922   3.783  11.758   4.964
54030SOL    HW263923   3.674  11.853   5.010
54031SOL     OW63924   3.695  10.420   0.323
54031SOL    HW163925   3.610  10.433   0.281
54031SOL    HW263926   3.678  10.360   0.395
54032SOL     OW63927   0.254   8.633   8.472
54032SOL    HW163928   0.290   8.686   8.401
54032SOL    HW263929   0.164   8.614   8.445
54033SOL     OW63930   2.162   3.666   1.172
54033SOL    HW163931   2.145   3.708   1.087
54033SOL    HW263932   2.091   3.603   1.183
54034SOL     OW63933   3.338  11.158  11.309
54034SOL    HW163934   3.408  11.181  11.249
54034SOL    HW263935   3.351  11.065  11.328
54035SOL     OW63936   3.910  11.074   5.041
54035SOL    HW163937   3.969  11.140   5.006
54035SOL    HW263938   3.823  11.114   5.037
54036SOL     OW63939  13.545   9.442   3.013
54036SOL    HW163940  13.571   9.533   3.022
54036SOL    HW263941  13.620   9.392   3.044
54037SOL     OW63942   8.549   4.965   8.094
54037SOL    HW163943   8.531   4.907   8.020
54037SOL    HW263944   8.644   4.958   8.107
54038SOL     OW63945  10.247   4.602  13.970
54038SOL    HW163946  10.206   4.686  13.994
54038SOL    HW263947  10.340   4.615  13.988
54039SOL     OW63948  13.755   0.117  14.052
54039SOL    HW163949  13.706   0.049  14.098
54039SOL    HW263950  13.844   0.082  14.046
54040SOL     OW63951   6.250  14.854  12.676
54040SOL    HW163952   6.288  14.794  12.740
54040SOL    HW263953   6.323   0.003  12.619
54041SOL     OW63954   8.639   4.207   1.381
54041SOL    HW163955   8.717   4.262   1.386
54041SOL    HW263956   8.639   4.173   1.292
54042SOL     OW63957   3.910   2.613   4.739
54042SOL    HW163958   3.816   2.598   4.728
54042SOL    HW263959   3.952   2.555   4.675
54043SOL     OW63960   2.811   9.340   9.550
54043SOL    HW163961   2.784   9.303   9.465
54043SOL    HW263962   2.892   9.294   9.570
54044SOL     OW63963   3.074  11.974   5.711
54044SOL    HW163964   2.992  11.996   5.755
54044SOL    HW263965   3.118  12.058   5.699
54045SOL     OW63966   9.450   7.922  11.168
54045SOL    HW163967   9.487   7.862  11.233
54045SOL    HW263968   9.408   7.865  11.104
54046SOL     OW63969   5.505   9.585   0.850
54046SOL    HW163970   5.499   9.498   0.811
54046SOL    HW263971   5.599   9.603   0.854
54047SOL     OW63972   8.523   9.584  14.423
54047SOL    HW163973   8.600   9.624  14.461
54047SOL    HW263974   8.460   9.579  14.495
54048SOL     OW63975  11.685   2.765   4.456
54048SOL    HW163976  11.730   2.709   4.393
54048SOL    HW263977  11.691   2.718   4.539
54049SOL     OW63978  11.610  14.168   0.384
54049SOL    HW163979  11.547  14.227   0.343
54049SOL    HW263980  11.695  14.203   0.359
54050SOL     OW63981  11.227  12.304  10.380
54050SOL    HW163982  11.219  12.250  10.459
54050SOL    HW263983  11.139  12.307  10.344
54051SOL     OW63984   3.224   2.476   0.218
54051SOL    HW163985   3.158   2.454   0.152
54051SOL    HW263986   3.274   2.547   0.179
54052SOL     OW63987   2.441   5.989   4.567
54052SOL    HW163988   2.435   5.896   4.589
54052SOL    HW263989   2.354   6.012   4.535
54053SOL     OW63990   0.717  12.364   0.587
54053SOL    HW163991   0.740  12.320   0.506
54053SOL    HW263992   0.739  12.456   0.571
54054SOL     OW63993  13.146   4.791   0.110
54054SOL    HW163994  13.194   4.873   0.097
54054SOL    HW263995  13.209   4.722   0.089
54055SOL     OW63996  12.333   6.480  13.141
54055SOL    HW163997  12.300   6.400  13.183
54055SOL    HW263998  12.367   6.533  13.213
54056SOL     OW63999   9.347   7.916   6.716
54056SOL    HW164000   9.340   7.825   6.744
54056SOL    HW264001   9.303   7.966   6.784
54057SOL     OW64002   1.860   4.839   6.159
54057SOL    HW164003   1.783   4.857   6.105
54057SOL    HW264004   1.845   4.888   6.239
54058SOL     OW64005   9.281  10.718   1.206
54058SOL    HW164006   9.271  10.797   1.152
54058SOL    HW264007   9.232  10.738   1.286
54059SOL     OW64008  12.870   2.856  13.590
54059SOL    HW164009  12.960   2.833  13.614
54059SOL    HW264010  12.817   2.788  13.631
54060SOL     OW64011  11.513   1.476   1.357
54060SOL    HW164012  11.436   1.452   1.304
54060SOL    HW264013  11.548   1.554   1.315
54061SOL     OW64014   3.675   7.797  10.189
54061SOL    HW164015   3.615   7.808  10.115
54061SOL    HW264016   3.741   7.865  10.178
54062SOL     OW64017  10.599   7.651   7.584
54062SOL    HW164018  10.615   7.726   7.526
54062SOL    HW264019  10.509   7.663   7.614
54063SOL     OW64020   3.133   6.351  14.235
54063SOL    HW164021   3.227   6.365  14.246
54063SOL    HW264022   3.126   6.287  14.164
54064SOL     OW64023   6.120   5.203  13.864
54064SOL    HW164024   6.098   5.187  13.773
54064SOL    HW264025   6.213   5.184  13.871
54065SOL     OW64026  13.497   6.746   6.802
54065SOL    HW164027  13.477   6.701   6.884
54065SOL    HW264028  13.487   6.839   6.823
54066SOL     OW64029   5.505  11.926  14.582
54066SOL    HW164030   5.492  11.982  14.659
54066SOL    HW264031   5.521  11.988  14.511
54067SOL     OW64032  13.013   8.025  13.071
54067SOL    HW164033  13.045   8.028  12.981
54067SOL    HW264034  12.933   8.078  13.071
54068SOL     OW64035   2.383  11.398   5.150
54068SOL    HW164036   2.457  11.362   5.199
54068SOL    HW264037   2.418  11.416   5.063
54069SOL     OW64038  14.176   7.194  12.787
54069SOL    HW164039  14.144   7.105  12.775
54069SOL    HW264040  14.167   7.210  12.881
54070SOL     OW64041  12.949  13.526   1.851
54070SOL    HW164042  12.888  13.579   1.800
54070SOL    HW264043  13.033  13.534   1.805
54071SOL     OW64044  10.089   1.388   1.380
54071SOL    HW164045  10.176   1.411   1.347
54071SOL    HW264046  10.076   1.446   1.454
54072SOL     OW64047   9.453   9.196   8.363
54072SOL    HW164048   9.508   9.262   8.405
54072SOL    HW264049   9.387   9.247   8.316
54073SOL     OW64050   1.105   2.580   4.547
54073SOL    HW164051   1.154   2.553   4.469
54073SOL    HW264052   1.157   2.651   4.584
54074SOL     OW64053   3.027   9.041   8.086
54074SOL    HW164054   3.031   9.119   8.141
54074SOL    HW264055   3.030   9.074   7.997
54075SOL     OW64056  10.591   0.296   3.349
54075SOL    HW164057  10.634   0.316   3.432
54075SOL    HW264058  10.498   0.307   3.368
54076SOL     OW64059  11.397   7.615   6.553
54076SOL    HW164060  11.302   7.603   6.559
54076SOL    HW264061  11.424   7.557   6.482
54077SOL     OW64062   7.074   4.337   5.090
54077SOL    HW164063   6.986   4.326   5.126
54077SOL    HW264064   7.061   4.339   4.995
54078SOL     OW64065   8.203   0.081   8.330
54078SOL    HW164066   8.195   0.074   8.235
54078SOL    HW264067   8.232   0.171   8.344
54079SOL     OW64068  12.974   7.378   3.919
54079SOL    HW164069  13.064   7.402   3.941
54079SOL    HW264070  12.931   7.366   4.003
54080SOL     OW64071  11.407   5.319   7.337
54080SOL    HW164072  11.388   5.351   7.249
54080SOL    HW264073  11.384   5.226   7.334
54081SOL     OW64074  11.838   6.127   6.939
54081SOL    HW164075  11.843   6.191   7.010
54081SOL    HW264076  11.794   6.051   6.978
54082SOL     OW64077   2.189   5.476   2.418
54082SOL    HW164078   2.163   5.511   2.503
54082SOL    HW264079   2.144   5.392   2.412
54083SOL     OW64080   4.726   0.870   2.334
54083SOL    HW164081   4.740   0.853   2.241
54083SOL    HW264082   4.685   0.790   2.367
54084SOL     OW64083  10.687  14.443   9.043
54084SOL    HW164084  10.595  14.467   9.043
54084SOL    HW264085  10.688  14.351   9.016
54085SOL     OW64086   3.213   7.539   8.033
54085SOL    HW164087   3.129   7.585   8.030
54085SOL    HW264088   3.226   7.519   8.126
54086SOL     OW64089  14.070   2.628  13.942
54086SOL    HW164090  14.147   2.572  13.948
54086SOL    HW264091  14.103   2.717  13.950
54087SOL     OW64092   9.208  14.147  14.031
54087SOL    HW164093   9.274  14.216  14.034
54087SOL    HW264094   9.249  14.073  14.077
54088SOL     OW64095  13.284   4.297   1.592
54088SOL    HW164096  13.330   4.279   1.510
54088SOL    HW264097  13.276   4.393   1.595
54089SOL     OW64098  11.573   4.822   4.383
54089SOL    HW164099  11.595   4.799   4.293
54089SOL    HW264100  11.620   4.903   4.400
54090SOL     OW64101  12.612  11.019   0.937
54090SOL    HW164102  12.603  11.113   0.925
54090SOL    HW264103  12.685  11.009   0.998
54091SOL     OW64104   1.520   4.710   4.349
54091SOL    HW164105   1.442   4.752   4.312
54091SOL    HW264106   1.584   4.782   4.357
54092SOL     OW64107   7.402   2.381   0.873
54092SOL    HW164108   7.475   2.323   0.851
54092SOL    HW264109   7.360   2.340   0.948
54093SOL     OW64110   3.082  11.342   7.205
54093SOL    HW164111   3.030  11.389   7.270
54093SOL    HW264112   3.019  11.285   7.161
54094SOL     OW64113   3.508   8.068   5.644
54094SOL    HW164114   3.471   8.000   5.700
54094SOL    HW264115   3.578   8.108   5.696
54095SOL     OW64116   6.728   1.330   5.384
54095SOL    HW164117   6.697   1.330   5.474
54095SOL    HW264118   6.718   1.421   5.355
54096SOL     OW64119  14.424   8.602   2.222
54096SOL    HW164120  14.451   8.578   2.311
54096SOL    HW264121  14.493   8.566   2.166
54097SOL     OW64122   6.315   9.983  12.561
54097SOL    HW164123   6.396   9.940  12.588
54097SOL    HW264124   6.312  10.063  12.613
54098SOL     OW64125   9.018   2.596   6.975
54098SOL    HW164126   9.024   2.591   7.071
54098SOL    HW264127   8.926   2.616   6.958
54099SOL     OW64128   7.491  14.010  10.872
54099SOL    HW164129   7.506  13.971  10.959
54099SOL    HW264130   7.555  14.082  10.868
54100SOL     OW64131  13.152   0.155   9.774
54100SOL    HW164132  13.060   0.177   9.791
54100SOL    HW264133  13.183   0.118   9.857
54101SOL     OW64134   4.348  13.655  13.993
54101SOL    HW164135   4.266  13.672  13.947
54101SOL    HW264136   4.373  13.566  13.967
54102SOL     OW64137   6.568   3.929   5.210
54102SOL    HW164138   6.570   3.835   5.195
54102SOL    HW264139   6.479   3.946   5.242
54103SOL     OW64140   0.440   5.308   2.304
54103SOL    HW164141   0.348   5.281   2.303
54103SOL    HW264142   0.490   5.227   2.293
54104SOL     OW64143  12.917   5.231   7.606
54104SOL    HW164144  12.913   5.138   7.628
54104SOL    HW264145  12.936   5.232   7.512
54105SOL     OW64146  11.630   3.234  13.742
54105SOL    HW164147  11.586   3.318  13.731
54105SOL    HW264148  11.689   3.248  13.816
54106SOL     OW64149   2.026   4.783  10.403
54106SOL    HW164150   2.100   4.722  10.399
54106SOL    HW264151   1.998   4.780  10.494
54107SOL     OW64152  11.185   9.905   0.399
54107SOL    HW164153  11.243   9.863   0.463
54107SOL    HW264154  11.099   9.906   0.441
54108SOL     OW64155   1.352   5.644   8.499
54108SOL    HW164156   1.387   5.573   8.552
54108SOL    HW264157   1.266   5.612   8.470
54109SOL     OW64158   8.184  11.680  12.338
54109SOL    HW164159   8.226  11.755  12.380
54109SOL    HW264160   8.240  11.661  12.262
54110SOL     OW64161   8.650   2.013   5.066
54110SOL    HW164162   8.598   2.066   5.005
54110SOL    HW264163   8.593   2.002   5.142
54111SOL     OW64164   4.172  14.495   9.077
54111SOL    HW164165   4.220  14.577   9.077
54111SOL    HW264166   4.174  14.465   8.986
54112SOL     OW64167   9.879   1.352   9.459
54112SOL    HW164168   9.934   1.422   9.422
54112SOL    HW264169   9.939   1.278   9.470
54113SOL     OW64170   8.510  13.708   0.865
54113SOL    HW164171   8.454  13.779   0.834
54113SOL    HW264172   8.512  13.719   0.960
54114SOL     OW64173   4.349   4.186   9.143
54114SOL    HW164174   4.304   4.171   9.226
54114SOL    HW264175   4.400   4.106   9.128
54115SOL     OW64176  10.248   9.579   6.297
54115SOL    HW164177  10.185   9.508   6.310
54115SOL    HW264178  10.212   9.653   6.347
54116SOL     OW64179   2.565  13.378  11.337
54116SOL    HW164180   2.604  13.371  11.250
54116SOL    HW264181   2.540  13.289  11.360
54117SOL     OW64182  10.393  12.131   2.546
54117SOL    HW164183  10.298  12.121   2.536
54117SOL    HW264184  10.411  12.220   2.517
54118SOL     OW64185   5.538   8.775   3.209
54118SOL    HW164186   5.538   8.745   3.118
54118SOL    HW264187   5.465   8.728   3.249
54119SOL     OW64188  14.464   7.089   9.925
54119SOL    HW164189  14.559   7.080   9.929
54119SOL    HW264190  14.442   7.149   9.996
54120SOL     OW64191   4.468   3.594   5.046
54120SOL    HW164192   4.473   3.689   5.034
54120SOL    HW264193   4.553   3.571   5.084
54121SOL     OW64194   6.129  14.650   3.537
54121SOL    HW164195   6.223  14.633   3.544
54121SOL    HW264196   6.113  14.724   3.594
54122SOL     OW64197  10.669   4.505   5.872
54122SOL    HW164198  10.753   4.476   5.835
54122SOL    HW264199  10.689   4.528   5.962
54123SOL     OW64200   0.608   0.606   6.077
54123SOL    HW164201   0.558   0.600   5.996
54123SOL    HW264202   0.570   0.680   6.124
54124SOL     OW64203  14.374   9.139   3.770
54124SOL    HW164204  14.303   9.107   3.714
54124SOL    HW264205  14.454   9.103   3.730
54125SOL     OW64206   5.910  13.009  14.473
54125SOL    HW164207   5.870  12.926  14.500
54125SOL    HW264208   5.963  12.985  14.397
54126SOL     OW64209  10.388   8.966  12.777
54126SOL    HW164210  10.335   9.019  12.836
54126SOL    HW264211  10.342   8.883  12.772
54127SOL     OW64212   6.673   0.722  13.316
54127SOL    HW164213   6.697   0.680  13.398
54127SOL    HW264214   6.624   0.800  13.342
54128SOL     OW64215  11.885  10.503   5.469
54128SOL    HW164216  11.838  10.558   5.532
54128SOL    HW264217  11.820  10.437   5.442
54129SOL     OW64218   9.913   8.874   0.497
54129SOL    HW164219   9.976   8.856   0.566
54129SOL    HW264220   9.952   8.838   0.417
54130SOL     OW64221   1.971   8.032   2.227
54130SOL    HW164222   1.949   8.077   2.146
54130SOL    HW264223   2.052   7.985   2.207
54131SOL     OW64224   9.716   2.653   9.395
54131SOL    HW164225   9.645   2.599   9.360
54131SOL    HW264226   9.681   2.742   9.396
54132SOL     OW64227   2.398   7.722  12.014
54132SOL    HW164228   2.425   7.723  12.106
54132SOL    HW264229   2.435   7.641  11.980
54133SOL     OW64230   7.118   9.764  13.349
54133SOL    HW164231   7.027   9.793  13.356
54133SOL    HW264232   7.167   9.821  13.409
54134SOL     OW64233   2.480   3.084   2.405
54134SOL    HW164234   2.422   3.013   2.375
54134SOL    HW264235   2.446   3.107   2.491
54135SOL     OW64236   9.654  11.136   4.530
54135SOL    HW164237   9.619  11.165   4.446
54135SOL    HW264238   9.650  11.213   4.586
54136SOL     OW64239  12.833   5.184  12.968
54136SOL    HW164240  12.895   5.111  12.960
54136SOL    HW264241  12.887   5.262  12.956
54137SOL     OW64242   6.114  11.157   3.398
54137SOL    HW164243   6.020  11.139   3.407
54137SOL    HW264244   6.128  11.167   3.304
54138SOL     OW64245   5.503   8.926  13.464
54138SOL    HW164246   5.598   8.934  13.449
54138SOL    HW264247   5.466   9.002  13.419
54139SOL     OW64248  11.804   2.719   3.434
54139SOL    HW164249  11.752   2.799   3.422
54139SOL    HW264250  11.824   2.717   3.527
54140SOL     OW64251   1.667  10.917   4.008
54140SOL    HW164252   1.706  10.996   4.045
54140SOL    HW264253   1.688  10.848   4.072
54141SOL     OW64254   7.034   7.668   3.617
54141SOL    HW164255   6.977   7.742   3.598
54141SOL    HW264256   7.041   7.667   3.713
54142SOL     OW64257   6.228  14.426   1.981
54142SOL    HW164258   6.151  14.478   1.958
54142SOL    HW264259   6.201  14.375   2.057
54143SOL     OW64260   8.467   0.867   5.682
54143SOL    HW164261   8.487   0.937   5.744
54143SOL    HW264262   8.526   0.796   5.706
54144SOL     OW64263   4.946   3.148  10.984
54144SOL    HW164264   4.925   3.135  11.077
54144SOL    HW264265   4.916   3.067  10.942
54145SOL     OW64266   1.463   0.689   9.198
54145SOL    HW164267   1.456   0.785   9.197
54145SOL    HW264268   1.461   0.664   9.106
54146SOL     OW64269   9.850   4.785   4.518
54146SOL    HW164270   9.911   4.854   4.543
54146SOL    HW264271   9.837   4.798   4.424
54147SOL     OW64272   8.376   9.483   7.355
54147SOL    HW164273   8.356   9.408   7.299
54147SOL    HW264274   8.296   9.496   7.407
54148SOL     OW64275  13.350  10.413   2.867
54148SOL    HW164276  13.338  10.504   2.895
54148SOL    HW264277  13.313  10.361   2.939
54149SOL     OW64278   9.654   2.067   8.049
54149SOL    HW164279   9.589   1.999   8.064
54149SOL    HW264280   9.720   2.052   8.117
54150SOL     OW64281  14.387   6.465   6.926
54150SOL    HW164282  14.321   6.485   6.859
54150SOL    HW264283  14.413   6.551   6.960
54151SOL     OW64284   8.469   9.326   6.006
54151SOL    HW164285   8.390   9.378   6.015
54151SOL    HW264286   8.438   9.235   6.004
54152SOL     OW64287   7.949  12.915   2.665
54152SOL    HW164288   8.002  12.973   2.719
54152SOL    HW264289   7.918  12.970   2.593
54153SOL     OW64290   6.733   9.657   4.005
54153SOL    HW164291   6.697   9.631   4.089
54153SOL    HW264292   6.726   9.578   3.951
54154SOL     OW64293   6.832   7.653   4.878
54154SOL    HW164294   6.818   7.621   4.789
54154SOL    HW264295   6.927   7.657   4.888
54155SOL     OW64296  13.113   9.480   0.004
54155SOL    HW164297  13.164   9.437  14.811
54155SOL    HW264298  13.154   9.566   0.014
54156SOL     OW64299   3.088   4.900   5.102
54156SOL    HW164300   3.170   4.851   5.112
54156SOL    HW264301   3.089   4.963   5.175
54157SOL     OW64302   8.044  13.758   4.468
54157SOL    HW164303   8.051  13.850   4.440
54157SOL    HW264304   8.093  13.710   4.402
54158SOL     OW64305   9.098   9.748  13.121
54158SOL    HW164306   9.107   9.819  13.058
54158SOL    HW264307   9.138   9.672  13.079
54159SOL     OW64308   2.231  10.827  12.724
54159SOL    HW164309   2.243  10.745  12.771
54159SOL    HW264310   2.270  10.894  12.780
54160SOL     OW64311   0.348   8.167  11.347
54160SOL    HW164312   0.370   8.205  11.432
54160SOL    HW264313   0.332   8.075  11.365
54161SOL     OW64314   6.841   0.333   7.338
54161SOL    HW164315   6.848   0.302   7.248
54161SOL    HW264316   6.749   0.319   7.361
54162SOL     OW64317   1.160   5.523   0.739
54162SOL    HW164318   1.114   5.590   0.789
54162SOL    HW264319   1.227   5.571   0.690
54163SOL     OW64320  10.958   2.590  13.723
54163SOL    HW164321  10.959   2.664  13.662
54163SOL    HW264322  10.901   2.526  13.682
54164SOL     OW64323   3.314   5.788   9.176
54164SOL    HW164324   3.330   5.880   9.198
54164SOL    HW264325   3.366   5.772   9.097
54165SOL     OW64326  10.622   3.775   5.933
54165SOL    HW164327  10.598   3.867   5.943
54165SOL    HW264328  10.642   3.746   6.022
54166SOL     OW64329   1.092   5.537   0.107
54166SOL    HW164330   0.997   5.550   0.113
54166SOL    HW264331   1.114   5.564   0.018
54167SOL     OW64332   7.905   2.218  11.777
54167SOL    HW164333   7.934   2.215  11.868
54167SOL    HW264334   7.977   2.179  11.728
54168SOL     OW64335   4.748  13.087   7.690
54168SOL    HW164336   4.667  13.037   7.682
54168SOL    HW264337   4.807  13.048   7.625
54169SOL     OW64338   1.567   7.160   8.025
54169SOL    HW164339   1.516   7.089   7.986
54169SOL    HW264340   1.631   7.184   7.959
54170SOL     OW64341   2.103  10.270  10.923
54170SOL    HW164342   2.180  10.327  10.913
54170SOL    HW264343   2.118  10.199  10.861
54171SOL     OW64344  10.102   6.959   2.899
54171SOL    HW164345  10.094   6.977   2.993
54171SOL    HW264346  10.020   6.915   2.876
54172SOL     OW64347   3.207  13.014   5.192
54172SOL    HW164348   3.123  13.058   5.175
54172SOL    HW264349   3.244  13.000   5.104
54173SOL     OW64350  11.850   0.631   6.493
54173SOL    HW164351  11.788   0.569   6.532
54173SOL    HW264352  11.929   0.624   6.546
54174SOL     OW64353   6.092   9.798  10.543
54174SOL    HW164354   6.003   9.792  10.509
54174SOL    HW264355   6.089   9.868  10.607
54175SOL     OW64356   5.204   8.715   1.672
54175SOL    HW164357   5.169   8.800   1.699
54175SOL    HW264358   5.186   8.657   1.746
54176SOL     OW64359   0.464   0.451  14.443
54176SOL    HW164360   0.499   0.540  14.446
54176SOL    HW264361   0.378   0.457  14.485
54177SOL     OW64362   3.951   1.460   5.378
54177SOL    HW164363   3.939   1.494   5.289
54177SOL    HW264364   4.040   1.426   5.379
54178SOL     OW64365  12.420   5.554   6.123
54178SOL    HW164366  12.499   5.605   6.106
54178SOL    HW264367  12.374   5.554   6.039
54179SOL     OW64368   8.958  11.909   4.714
54179SOL    HW164369   8.898  11.893   4.788
54179SOL    HW264370   9.041  11.933   4.756
54180SOL     OW64371   9.424   0.104   4.719
54180SOL    HW164372   9.340   0.125   4.679
54180SOL    HW264373   9.405   0.030   4.778
54181SOL     OW64374   3.665   3.719   9.047
54181SOL    HW164375   3.589   3.665   9.027
54181SOL    HW264376   3.649   3.751   9.136
54182SOL     OW64377   1.498  11.837   5.233
54182SOL    HW164378   1.478  11.763   5.290
54182SOL    HW264379   1.519  11.798   5.148
54183SOL     OW64380  12.848   2.957   6.532
54183SOL    HW164381  12.797   3.037   6.535
54183SOL    HW264382  12.934   2.984   6.501
54184SOL     OW64383  10.332  14.831   1.416
54184SOL    HW164384  10.409   0.004   1.444
54184SOL    HW264385  10.264   0.021   1.404
54185SOL     OW64386   2.980  12.927   1.984
54185SOL    HW164387   2.934  12.927   2.069
54185SOL    HW264388   3.064  12.886   2.003
54186SOL     OW64389   5.335   9.716  10.085
54186SOL    HW164390   5.301   9.790  10.134
54186SOL    HW264391   5.272   9.704  10.013
54187SOL     OW64392  10.025   1.197   6.082
54187SOL    HW164393  10.115   1.229   6.084
54187SOL    HW264394  10.031   1.106   6.110
54188SOL     OW64395   4.846   0.688  13.936
54188SOL    HW164396   4.803   0.710  14.018
54188SOL    HW264397   4.775   0.665  13.877
54189SOL     OW64398  12.000  14.372   4.165
54189SOL    HW164399  11.953  14.441   4.118
54189SOL    HW264400  11.969  14.379   4.255
54190SOL     OW64401   0.843  12.894   8.660
54190SOL    HW164402   0.769  12.868   8.604
54190SOL    HW264403   0.913  12.833   8.636
54191SOL     OW64404   0.162   0.624  12.496
54191SOL    HW164405   0.233   0.647  12.556
54191SOL    HW264406   0.082   0.649  12.541
54192SOL     OW64407  12.120  13.625   0.453
54192SOL    HW164408  12.109  13.643   0.546
54192SOL    HW264409  12.213  13.644   0.435
54193SOL     OW64410   3.230   5.526   2.498
54193SOL    HW164411   3.244   5.581   2.575
54193SOL    HW264412   3.306   5.468   2.496
54194SOL     OW64413  13.976   3.899  12.036
54194SOL    HW164414  14.042   3.929  11.974
54194SOL    HW264415  13.922   3.839  11.985
54195SOL     OW64416   9.121  13.048   2.324
54195SOL    HW164417   9.145  12.960   2.293
54195SOL    HW264418   9.082  13.091   2.248
54196SOL     OW64419   4.099   1.342  13.557
54196SOL    HW164420   4.079   1.325  13.650
54196SOL    HW264421   4.035   1.289  13.509
54197SOL     OW64422   5.095   1.851   3.546
54197SOL    HW164423   5.140   1.773   3.578
54197SOL    HW264424   5.104   1.846   3.451
54198SOL     OW64425  14.221   0.534   5.379
54198SOL    HW164426  14.243   0.523   5.287
54198SOL    HW264427  14.300   0.571   5.419
54199SOL     OW64428   5.325   0.156   6.548
54199SOL    HW164429   5.282   0.098   6.485
54199SOL    HW264430   5.293   0.126   6.633
54200SOL     OW64431   6.105  13.228   7.987
54200SOL    HW164432   6.175  13.244   8.051
54200SOL    HW264433   6.126  13.143   7.949
54201SOL     OW64434   6.880   0.231   6.408
54201SOL    HW164435   6.883   0.278   6.491
54201SOL    HW264436   6.862   0.140   6.432
54202SOL     OW64437  13.167   2.573   6.978
54202SOL    HW164438  13.200   2.643   7.035
54202SOL    HW264439  13.130   2.509   7.039
54203SOL     OW64440   0.896   9.820   8.759
54203SOL    HW164441   0.880   9.734   8.721
54203SOL    HW264442   0.869   9.812   8.850
54204SOL     OW64443  14.606   6.170  10.898
54204SOL    HW164444  14.626   6.153  10.806
54204SOL    HW264445  14.685   6.146  10.945
54205SOL     OW64446   6.135   0.534  14.219
54205SOL    HW164447   6.097   0.527  14.306
54205SOL    HW264448   6.152   0.628  14.208
54206SOL     OW64449   1.474   9.796   7.196
54206SOL    HW164450   1.482   9.750   7.112
54206SOL    HW264451   1.381   9.815   7.205
54207SOL     OW64452   7.183   4.950  12.599
54207SOL    HW164453   7.098   4.989  12.621
54207SOL    HW264454   7.161   4.866  12.559
54208SOL     OW64455  12.201   4.967   2.653
54208SOL    HW164456  12.281   4.914   2.650
54208SOL    HW264457  12.224   5.047   2.605
54209SOL     OW64458   1.094  11.586  14.519
54209SOL    HW164459   1.117  11.493  14.518
54209SOL    HW264460   1.170  11.630  14.480
54210SOL     OW64461  14.207   4.115  13.376
54210SOL    HW164462  14.262   4.192  13.393
54210SOL    HW264463  14.154   4.139  13.301
54211SOL     OW64464   5.693   4.664   8.570
54211SOL    HW164465   5.684   4.757   8.591
54211SOL    HW264466   5.787   4.647   8.577
54212SOL     OW64467  12.993   5.092  11.035
54212SOL    HW164468  12.995   5.094  11.131
54212SOL    HW264469  13.081   5.117  11.009
54213SOL     OW64470  14.349  11.390  11.139
54213SOL    HW164471  14.370  11.322  11.203
54213SOL    HW264472  14.378  11.354  11.055
54214SOL     OW64473  14.365   9.336  11.888
54214SOL    HW164474  14.280   9.300  11.913
54214SOL    HW264475  14.410   9.264  11.843
54215SOL     OW64476   6.965  11.683   4.382
54215SOL    HW164477   7.017  11.645   4.311
54215SOL    HW264478   6.885  11.631   4.385
54216SOL     OW64479  11.803   2.743   2.383
54216SOL    HW164480  11.897   2.753   2.394
54216SOL    HW264481  11.787   2.767   2.292
54217SOL     OW64482   9.881   5.650   3.611
54217SOL    HW164483   9.910   5.634   3.701
54217SOL    HW264484   9.885   5.745   3.600
54218SOL     OW64485   1.999   4.475  10.361
54218SOL    HW164486   2.055   4.499  10.435
54218SOL    HW264487   1.934   4.545  10.357
54219SOL     OW64488  11.904   6.415   4.047
54219SOL    HW164489  11.972   6.349   4.045
54219SOL    HW264490  11.933   6.478   4.112
54220SOL     OW64491   9.647   7.467   9.057
54220SOL    HW164492   9.709   7.504   8.995
54220SOL    HW264493   9.686   7.383   9.083
54221SOL     OW64494   9.804   6.972   2.919
54221SOL    HW164495   9.724   6.987   2.969
54221SOL    HW264496   9.785   7.008   2.832
54222SOL     OW64497  13.333   0.057  12.376
54222SOL    HW164498  13.300   0.144  12.353
54222SOL    HW264499  13.390   0.072  12.452
54223SOL     OW64500  10.061  13.949   7.037
54223SOL    HW164501  10.059  14.044   7.041
54223SOL    HW264502  10.031  13.928   6.948
54224SOL     OW64503  12.646  12.634  11.305
54224SOL    HW164504  12.593  12.556  11.290
54224SOL    HW264505  12.708  12.607  11.373
54225SOL     OW64506  14.862   8.216   6.535
54225SOL    HW164507   0.064   8.189   6.584
54225SOL    HW264508  14.875   8.309   6.518
54226SOL     OW64509   7.447  14.649   0.689
54226SOL    HW164510   7.517  14.709   0.666
54226SOL    HW264511   7.404  14.690   0.764
54227SOL     OW64512  13.489   2.367   1.980
54227SOL    HW164513  13.482   2.385   1.887
54227SOL    HW264514  13.424   2.425   2.021
54228SOL     OW64515   0.027  13.916   3.134
54228SOL    HW164516   0.104  13.942   3.084
54228SOL    HW264517   0.003  13.995   3.184
54229SOL     OW64518  13.235   5.355   7.287
54229SOL    HW164519  13.226   5.409   7.365
54229SOL    HW264520  13.211   5.413   7.215
54230SOL     OW64521   7.980  10.397   9.838
54230SOL    HW164522   7.994  10.468   9.900
54230SOL    HW264523   7.982  10.317   9.891
54231SOL     OW64524   3.730  11.106  14.447
54231SOL    HW164525   3.779  11.118  14.529
54231SOL    HW264526   3.727  11.012  14.434
54232SOL     OW64527  12.673   2.348   2.264
54232SOL    HW164528  12.684   2.259   2.230
54232SOL    HW264529  12.758   2.389   2.252
54233SOL     OW64530   8.420   1.625  14.798
54233SOL    HW164531   8.496   1.598  14.849
54233SOL    HW264532   8.456   1.682  14.731
54234SOL     OW64533   0.140   8.527   1.470
54234SOL    HW164534   0.229   8.507   1.441
54234SOL    HW264535   0.084   8.478   1.410
54235SOL     OW64536   5.143   7.643  13.833
54235SOL    HW164537   5.064   7.697  13.825
54235SOL    HW264538   5.124   7.565  13.782
54236SOL     OW64539   8.694  11.118   0.434
54236SOL    HW164540   8.627  11.056   0.406
54236SOL    HW264541   8.663  11.151   0.518
54237SOL     OW64542   8.322   7.059   3.767
54237SOL    HW164543   8.325   7.000   3.842
54237SOL    HW264544   8.414   7.070   3.742
54238SOL     OW64545  11.649   3.603  11.127
54238SOL    HW164546  11.709   3.635  11.195
54238SOL    HW264547  11.605   3.682  11.096
54239SOL     OW64548   5.221   2.328   5.974
54239SOL    HW164549   5.127   2.327   5.988
54239SOL    HW264550   5.240   2.249   5.924
54240SOL     OW64551   2.727   0.226   1.437
54240SOL    HW164552   2.698   0.219   1.346
54240SOL    HW264553   2.720   0.137   1.472
54241SOL     OW64554   9.853   1.056  13.694
54241SOL    HW164555   9.833   1.083  13.783
54241SOL    HW264556   9.948   1.051  13.691
54242SOL     OW64557   5.577   1.828   6.467
54242SOL    HW164558   5.587   1.757   6.531
54242SOL    HW264559   5.482   1.839   6.458
54243SOL     OW64560   5.683   6.325  10.007
54243SOL    HW164561   5.711   6.391   9.944
54243SOL    HW264562   5.643   6.376  10.078
54244SOL     OW64563  11.685   0.028   4.645
54244SOL    HW164564  11.741   0.054   4.718
54244SOL    HW264565  11.609   0.085   4.651
54245SOL     OW64566   2.351  10.079   3.697
54245SOL    HW164567   2.388  10.051   3.614
54245SOL    HW264568   2.418  10.059   3.762
54246SOL     OW64569   1.437   0.941   9.360
54246SOL    HW164570   1.405   0.954   9.449
54246SOL    HW264571   1.359   0.952   9.305
54247SOL     OW64572   7.270  10.743   7.809
54247SOL    HW164573   7.325  10.748   7.887
54247SOL    HW264574   7.194  10.691   7.837
54248SOL     OW64575  13.139   1.297   6.877
54248SOL    HW164576  13.099   1.215   6.908
54248SOL    HW264577  13.077   1.365   6.904
54249SOL     OW64578   6.889   3.838  14.246
54249SOL    HW164579   6.951   3.903  14.214
54249SOL    HW264580   6.816   3.841  14.184
54250SOL     OW64581  11.431   2.417  10.639
54250SOL    HW164582  11.428   2.492  10.580
54250SOL    HW264583  11.444   2.456  10.726
54251SOL     OW64584   1.853   3.652  11.967
54251SOL    HW164585   1.884   3.577  11.917
54251SOL    HW264586   1.917   3.664  12.037
54252SOL     OW64587   7.022   1.779   2.914
54252SOL    HW164588   7.049   1.871   2.906
54252SOL    HW264589   6.962   1.766   2.840
54253SOL     OW64590  11.933   4.101  11.897
54253SOL    HW164591  11.949   4.015  11.856
54253SOL    HW264592  11.912   4.080  11.988
54254SOL     OW64593   8.495   0.197  11.439
54254SOL    HW164594   8.497   0.125  11.502
54254SOL    HW264595   8.538   0.161  11.361
54255SOL     OW64596  12.645  14.109  14.716
54255SOL    HW164597  12.592  14.180  14.680
54255SOL    HW264598  12.694  14.076  14.640
54256SOL     OW64599   3.440   0.442   7.319
54256SOL    HW164600   3.354   0.458   7.280
54256SOL    HW264601   3.425   0.443   7.413
54257SOL     OW64602   6.517  11.220   3.100
54257SOL    HW164603   6.505  11.126   3.112
54257SOL    HW264604   6.479  11.259   3.179
54258SOL     OW64605   8.833  10.044  11.919
54258SOL    HW164606   8.889   9.966  11.916
54258SOL    HW264607   8.815  10.057  12.012
54259SOL     OW64608  13.047  14.294  11.934
54259SOL    HW164609  12.987  14.252  11.872
54259SOL    HW264610  13.075  14.222  11.991
54260SOL     OW64611   6.633   6.055  13.046
54260SOL    HW164612   6.643   5.967  13.082
54260SOL    HW264613   6.678   6.051  12.962
54261SOL     OW64614   3.697  14.212  12.084
54261SOL    HW164615   3.688  14.302  12.051
54261SOL    HW264616   3.716  14.224  12.177
54262SOL     OW64617   9.147   4.842   7.413
54262SOL    HW164618   9.158   4.787   7.490
54262SOL    HW264619   9.233   4.881   7.399
54263SOL     OW64620   8.069   9.918   3.170
54263SOL    HW164621   8.064   9.825   3.190
54263SOL    HW264622   7.978   9.948   3.170
54264SOL     OW64623   7.370  10.754  11.865
54264SOL    HW164624   7.324  10.735  11.947
54264SOL    HW264625   7.403  10.843  11.876
54265SOL     OW64626  10.341  13.101  12.289
54265SOL    HW164627  10.329  13.149  12.207
54265SOL    HW264628  10.427  13.129  12.322
54266SOL     OW64629   3.180   5.708   0.008
54266SOL    HW164630   3.168   5.774  14.816
54266SOL    HW264631   3.093   5.668   0.018
54267SOL     OW64632   8.374   3.784   4.205
54267SOL    HW164633   8.394   3.829   4.123
54267SOL    HW264634   8.371   3.854   4.270
54268SOL     OW64635  10.896   0.465   6.769
54268SOL    HW164636  10.934   0.459   6.857
54268SOL    HW264637  10.955   0.523   6.722
54269SOL     OW64638   9.275  12.294  13.104
54269SOL    HW164639   9.346  12.233  13.087
54269SOL    HW264640   9.308  12.352  13.173
54270SOL     OW64641  11.949   7.872  12.124
54270SOL    HW164642  11.910   7.935  12.064
54270SOL    HW264643  11.948   7.916  12.209
54271SOL     OW64644   7.184  14.618   7.615
54271SOL    HW164645   7.259  14.559   7.628
54271SOL    HW264646   7.174  14.624   7.520
54272SOL     OW64647   4.125   9.800   3.862
54272SOL    HW164648   4.151   9.740   3.792
54272SOL    HW264649   4.149   9.754   3.943
54273SOL     OW64650   7.398   4.628   5.882
54273SOL    HW164651   7.392   4.578   5.964
54273SOL    HW264652   7.463   4.696   5.899
54274SOL     OW64653  14.623   2.562   2.767
54274SOL    HW164654  14.582   2.476   2.760
54274SOL    HW264655  14.715   2.546   2.747
54275SOL     OW64656   2.090   8.623  10.001
54275SOL    HW164657   2.034   8.697  10.028
54275SOL    HW264658   2.179   8.657  10.010
54276SOL     OW64659   3.600   4.847   0.202
54276SOL    HW164660   3.507   4.843   0.182
54276SOL    HW264661   3.605   4.834   0.297
54277SOL     OW64662  11.838  11.643   6.722
54277SOL    HW164663  11.832  11.568   6.663
54277SOL    HW264664  11.847  11.604   6.809
54278SOL     OW64665  11.301  13.069   3.005
54278SOL    HW164666  11.234  13.133   3.029
54278SOL    HW264667  11.280  13.046   2.914
54279SOL     OW64668  13.721  10.290   0.289
54279SOL    HW164669  13.754  10.205   0.258
54279SOL    HW264670  13.756  10.353   0.227
54280SOL     OW64671   7.310  12.507  13.917
54280SOL    HW164672   7.374  12.551  13.974
54280SOL    HW264673   7.323  12.548  13.831
54281SOL     OW64674   1.673   6.316   3.951
54281SOL    HW164675   1.681   6.403   3.912
54281SOL    HW264676   1.579   6.301   3.956
54282SOL     OW64677   1.983  12.471  14.601
54282SOL    HW164678   2.036  12.518  14.537
54282SOL    HW264679   2.008  12.509  14.685
54283SOL     OW64680  13.158  13.071   8.835
54283SOL    HW164681  13.133  13.163   8.844
54283SOL    HW264682  13.146  13.034   8.922
54284SOL     OW64683   0.262   4.970   1.690
54284SOL    HW164684   0.268   4.881   1.656
54284SOL    HW264685   0.209   5.017   1.626
54285SOL     OW64686   9.099  10.217  14.403
54285SOL    HW164687   9.183  10.235  14.444
54285SOL    HW264688   9.036  10.216  14.475
54286SOL     OW64689  14.066  11.942   3.008
54286SOL    HW164690  14.110  11.984   3.082
54286SOL    HW264691  13.974  11.937   3.035
54287SOL     OW64692   2.986   6.011   6.267
54287SOL    HW164693   3.004   5.917   6.274
54287SOL    HW264694   3.072   6.051   6.258
54288SOL     OW64695   4.133  10.909   3.987
54288SOL    HW164696   4.151  10.955   4.069
54288SOL    HW264697   4.083  10.972   3.935
54289SOL     OW64698  14.371   9.073  12.601
54289SOL    HW164699  14.457   9.103  12.572
54289SOL    HW264700  14.311   9.143  12.577
54290SOL     OW64701  14.210  10.658   2.347
54290SOL    HW164702  14.157  10.696   2.417
54290SOL    HW264703  14.213  10.726   2.280
54291SOL     OW64704   3.804   1.682   4.572
54291SOL    HW164705   3.840   1.731   4.499
54291SOL    HW264706   3.737   1.626   4.533
54292SOL     OW64707   3.160   6.818   4.731
54292SOL    HW164708   3.087   6.841   4.674
54292SOL    HW264709   3.200   6.742   4.689
54293SOL     OW64710  14.291   0.615   6.156
54293SOL    HW164711  14.276   0.664   6.075
54293SOL    HW264712  14.300   0.682   6.223
54294SOL     OW64713   0.119   7.384   1.423
54294SOL    HW164714   0.184   7.452   1.405
54294SOL    HW264715   0.168   7.314   1.466
54295SOL     OW64716  10.075   8.858  11.165
54295SOL    HW164717  10.090   8.862  11.070
54295SOL    HW264718  10.131   8.927  11.201
54296SOL     OW64719   9.529  12.870  11.512
54296SOL    HW164720   9.475  12.816  11.455
54296SOL    HW264721   9.618  12.834  11.501
54297SOL     OW64722   5.230   1.736   2.200
54297SOL    HW164723   5.141   1.722   2.231
54297SOL    HW264724   5.285   1.708   2.273
54298SOL     OW64725   0.860   1.338  11.364
54298SOL    HW164726   0.894   1.269  11.420
54298SOL    HW264727   0.816   1.292  11.292
54299SOL     OW64728   3.835  10.766  12.811
54299SOL    HW164729   3.765  10.702  12.813
54299SOL    HW264730   3.809  10.829  12.743
54300SOL     OW64731   1.446   2.901   8.998
54300SOL    HW164732   1.536   2.931   8.981
54300SOL    HW264733   1.400   2.980   9.026
54301SOL     OW64734  10.394  13.100   1.925
54301SOL    HW164735  10.299  13.112   1.925
54301SOL    HW264736  10.416  13.078   2.015
54302SOL     OW64737   8.490   9.378   9.475
54302SOL    HW164738   8.418   9.319   9.498
54302SOL    HW264739   8.451   9.440   9.414
54303SOL     OW64740   2.271   5.489  14.253
54303SOL    HW164741   2.306   5.500  14.341
54303SOL    HW264742   2.275   5.577  14.214
54304SOL     OW64743   5.222   2.046  12.772
54304SOL    HW164744   5.274   2.125  12.759
54304SOL    HW264745   5.192   2.022  12.684
54305SOL     OW64746  13.057   4.008   2.104
54305SOL    HW164747  13.084   4.099   2.112
54305SOL    HW264748  13.104   3.962   2.173
54306SOL     OW64749  11.194   8.724   7.962
54306SOL    HW164750  11.126   8.668   7.925
54306SOL    HW264751  11.242   8.757   7.886
54307SOL     OW64752  11.020  11.061  10.298
54307SOL    HW164753  11.101  11.111  10.285
54307SOL    HW264754  11.038  10.976  10.259
54308SOL     OW64755  14.722   5.678  13.564
54308SOL    HW164756  14.702   5.762  13.523
54308SOL    HW264757  14.810   5.689  13.601
54309SOL     OW64758   6.373   6.283   9.330
54309SOL    HW164759   6.397   6.280   9.423
54309SOL    HW264760   6.287   6.241   9.326
54310SOL     OW64761   9.696  12.252   6.939
54310SOL    HW164762   9.666  12.341   6.954
54310SOL    HW264763   9.630  12.213   6.883
54311SOL     OW64764   9.240   2.125   5.153
54311SOL    HW164765   9.147   2.114   5.129
54311SOL    HW264766   9.250   2.078   5.235
54312SOL     OW64767  12.528  11.090   4.927
54312SOL    HW164768  12.560  11.101   4.837
54312SOL    HW264769  12.432  11.088   4.918
54313SOL     OW64770   5.417  10.197   7.253
54313SOL    HW164771   5.362  10.210   7.330
54313SOL    HW264772   5.457  10.282   7.237
54314SOL     OW64773   1.155   6.891  11.230
54314SOL    HW164774   1.150   6.966  11.170
54314SOL    HW264775   1.064   6.861  11.237
54315SOL     OW64776  11.476  13.129   4.256
54315SOL    HW164777  11.481  13.080   4.338
54315SOL    HW264778  11.469  13.220   4.282
54316SOL     OW64779  13.542   7.197   0.515
54316SOL    HW164780  13.538   7.264   0.447
54316SOL    HW264781  13.566   7.117   0.469
54317SOL     OW64782   1.446  11.392  14.164
54317SOL    HW164783   1.382  11.353  14.106
54317SOL    HW264784   1.525  11.400  14.111
54318SOL     OW64785   2.226  13.002  11.021
54318SOL    HW164786   2.226  13.069  11.089
54318SOL    HW264787   2.299  13.026  10.964
54319SOL     OW64788  13.729   8.620   6.247
54319SOL    HW164789  13.656   8.562   6.227
54319SOL    HW264790  13.745   8.606   6.341
54320SOL     OW64791   8.037  13.998  11.974
54320SOL    HW164792   8.031  14.093  11.976
54320SOL    HW264793   8.010  13.974  11.885
54321SOL     OW64794   3.820   2.906   7.923
54321SOL    HW164795   3.763   2.965   7.973
54321SOL    HW264796   3.903   2.954   7.916
54322SOL     OW64797  11.273   1.643   7.358
54322SOL    HW164798  11.297   1.551   7.343
54322SOL    HW264799  11.209   1.639   7.429
54323SOL     OW64800  13.935   5.412   8.319
54323SOL    HW164801  13.942   5.503   8.290
54323SOL    HW264802  13.970   5.413   8.408
54324SOL     OW64803   1.342   1.363   5.988
54324SOL    HW164804   1.259   1.330   6.024
54324SOL    HW264805   1.330   1.357   5.893
54325SOL     OW64806   0.414   8.595  13.905
54325SOL    HW164807   0.403   8.566  13.814
54325SOL    HW264808   0.437   8.688  13.898
54326SOL     OW64809  12.362   0.118  14.729
54326SOL    HW164810  12.360   0.046  14.792
54326SOL    HW264811  12.364   0.197  14.784
54327SOL     OW64812   1.974  14.215   7.467
54327SOL    HW164813   2.014  14.283   7.522
54327SOL    HW264814   2.043  14.149   7.457
54328SOL     OW64815   1.203   7.815   0.101
54328SOL    HW164816   1.299   7.807   0.098
54328SOL    HW264817   1.178   7.770   0.182
54329SOL     OW64818  10.235   8.751   0.977
54329SOL    HW164819  10.286   8.714   1.050
54329SOL    HW264820  10.202   8.834   1.011
54330SOL     OW64821  12.156   4.748   9.475
54330SOL    HW164822  12.069   4.782   9.454
54330SOL    HW264823  12.185   4.706   9.394
54331SOL     OW64824   9.603   7.728   7.370
54331SOL    HW164825   9.562   7.786   7.434
54331SOL    HW264826   9.529   7.692   7.320
54332SOL     OW64827  13.354   0.279  10.710
54332SOL    HW164828  13.285   0.335  10.746
54332SOL    HW264829  13.373   0.217  10.781
54333SOL     OW64830   3.791   8.101   7.000
54333SOL    HW164831   3.863   8.102   7.063
54333SOL    HW264832   3.795   8.186   6.957
54334SOL     OW64833  13.631   0.507  12.260
54334SOL    HW164834  13.599   0.538  12.345
54334SOL    HW264835  13.586   0.424  12.245
54335SOL     OW64836   7.344  11.368  13.098
54335SOL    HW164837   7.388  11.340  13.018
54335SOL    HW264838   7.414  11.376  13.163
54336SOL     OW64839   2.141   8.113  10.443
54336SOL    HW164840   2.156   8.025  10.408
54336SOL    HW264841   2.047   8.126  10.436
54337SOL     OW64842   8.267   0.440   7.134
54337SOL    HW164843   8.312   0.397   7.207
54337SOL    HW264844   8.311   0.406   7.056
54338SOL     OW64845   8.188   7.298   6.521
54338SOL    HW164846   8.225   7.236   6.584
54338SOL    HW264847   8.162   7.373   6.575
54339SOL     OW64848   5.443  13.496  12.819
54339SOL    HW164849   5.438  13.541  12.903
54339SOL    HW264850   5.491  13.415  12.837
54340SOL     OW64851   2.161   8.695   8.945
54340SOL    HW164852   2.163   8.659   8.856
54340SOL    HW264853   2.076   8.669   8.980
54341SOL     OW64854  14.113  12.974  11.675
54341SOL    HW164855  14.201  12.936  11.665
54341SOL    HW264856  14.069  12.916  11.736
54342SOL     OW64857   4.331   4.281   5.254
54342SOL    HW164858   4.353   4.226   5.329
54342SOL    HW264859   4.259   4.235   5.212
54343SOL     OW64860   9.003  14.515   4.953
54343SOL    HW164861   9.069  14.580   4.977
54343SOL    HW264862   9.032  14.482   4.868
54344SOL     OW64863   6.146   0.669   0.407
54344SOL    HW164864   6.196   0.649   0.328
54344SOL    HW264865   6.175   0.756   0.432
54345SOL     OW64866   2.016   6.783   3.738
54345SOL    HW164867   2.058   6.767   3.654
54345SOL    HW264868   1.964   6.862   3.725
54346SOL     OW64869   9.435  10.747   6.389
54346SOL    HW164870   9.363  10.766   6.449
54346SOL    HW264871   9.428  10.815   6.321
54347SOL     OW64872   0.806  13.086  10.564
54347SOL    HW164873   0.822  13.176  10.537
54347SOL    HW264874   0.874  13.035  10.520
54348SOL     OW64875   4.407   3.604  14.588
54348SOL    HW164876   4.337   3.670  14.596
54348SOL    HW264877   4.370   3.537  14.530
54349SOL     OW64878   7.941   4.683   2.026
54349SOL    HW164879   8.032   4.674   1.998
54349SOL    HW264880   7.942   4.761   2.082
54350SOL     OW64881   6.837  13.297   4.106
54350SOL    HW164882   6.760  13.249   4.076
54350SOL    HW264883   6.890  13.230   4.151
54351SOL     OW64884   7.756   0.022   3.664
54351SOL    HW164885   7.686   0.084   3.684
54351SOL    HW264886   7.712  14.813   3.661
54352SOL     OW64887  12.206   6.742  11.543
54352SOL    HW164888  12.228   6.695  11.623
54352SOL    HW264889  12.276   6.807  11.533
54353SOL     OW64890   1.665   8.970   7.989
54353SOL    HW164891   1.721   9.046   8.004
54353SOL    HW264892   1.670   8.920   8.071
54354SOL     OW64893   0.286   0.773  10.793
54354SOL    HW164894   0.261   0.686  10.826
54354SOL    HW264895   0.255   0.834  10.860
54355SOL     OW64896  14.124   8.691   9.407
54355SOL    HW164897  14.198   8.640   9.376
54355SOL    HW264898  14.094   8.740   9.331
54356SOL     OW64899   8.409  12.709  10.228
54356SOL    HW164900   8.429  12.778  10.164
54356SOL    HW264901   8.384  12.633  10.175
54357SOL     OW64902  12.082  12.734  12.772
54357SOL    HW164903  12.177  12.740  12.775
54357SOL    HW264904  12.055  12.729  12.864
54358SOL     OW64905  11.676  10.851  14.634
54358SOL    HW164906  11.699  10.785  14.699
54358SOL    HW264907  11.736  10.834  14.561
54359SOL     OW64908   8.511  14.040   9.540
54359SOL    HW164909   8.416  14.039   9.540
54359SOL    HW264910   8.536  13.968   9.599
54360SOL     OW64911   7.582  11.535  13.804
54360SOL    HW164912   7.671  11.553  13.833
54360SOL    HW264913   7.553  11.617  13.763
54361SOL     OW64914   2.603   6.119   4.159
54361SOL    HW164915   2.670   6.181   4.130
54361SOL    HW264916   2.648   6.062   4.222
54362SOL     OW64917   8.038   6.901   5.906
54362SOL    HW164918   8.004   6.909   5.816
54362SOL    HW264919   8.067   6.989   5.928
54363SOL     OW64920  12.423  14.445   4.619
54363SOL    HW164921  12.451  14.355   4.606
54363SOL    HW264922  12.499  14.490   4.655
54364SOL     OW64923   2.032   1.475   5.503
54364SOL    HW164924   1.952   1.479   5.451
54364SOL    HW264925   2.085   1.408   5.461
54365SOL     OW64926  13.787   0.599   3.083
54365SOL    HW164927  13.734   0.649   3.021
54365SOL    HW264928  13.877   0.613   3.053
54366SOL     OW64929   4.199   9.344  14.278
54366SOL    HW164930   4.147   9.317  14.202
54366SOL    HW264931   4.138   9.395  14.332
54367SOL     OW64932   1.994   9.489  11.509
54367SOL    HW164933   1.905   9.515  11.535
54367SOL    HW264934   2.047   9.506  11.587
54368SOL     OW64935   5.129   8.824   0.098
54368SOL    HW164936   5.101   8.748   0.149
54368SOL    HW264937   5.220   8.806   0.076
54369SOL     OW64938   3.304  11.655   3.933
54369SOL    HW164939   3.400  11.654   3.941
54369SOL    HW264940   3.276  11.728   3.989
54370SOL     OW64941  10.726   8.786  14.852
54370SOL    HW164942  10.657   8.768   0.041
54370SOL    HW264943  10.682   8.777  14.767
54371SOL     OW64944   7.421  11.132   2.802
54371SOL    HW164945   7.339  11.131   2.851
54371SOL    HW264946   7.406  11.074   2.728
54372SOL     OW64947   1.849  13.158  10.147
54372SOL    HW164948   1.842  13.172  10.242
54372SOL    HW264949   1.845  13.246  10.110
54373SOL     OW64950   7.804  14.647   3.176
54373SOL    HW164951   7.818  14.688   3.261
54373SOL    HW264952   7.776  14.558   3.196
54374SOL     OW64953   3.991  12.011  12.399
54374SOL    HW164954   3.972  12.004  12.493
54374SOL    HW264955   3.907  11.997  12.357
54375SOL     OW64956   5.804   1.300   6.403
54375SOL    HW164957   5.714   1.278   6.378
54375SOL    HW264958   5.855   1.224   6.376
54376SOL     OW64959   6.685  11.453  10.148
54376SOL    HW164960   6.678  11.358  10.159
54376SOL    HW264961   6.777  11.468  10.129
54377SOL     OW64962   7.825  10.759   1.962
54377SOL    HW164963   7.827  10.810   1.881
54377SOL    HW264964   7.852  10.821   2.030
54378SOL     OW64965  12.220   7.381   9.315
54378SOL    HW164966  12.308   7.420   9.316
54378SOL    HW264967  12.217   7.326   9.393
54379SOL     OW64968   1.462   1.618   4.273
54379SOL    HW164969   1.381   1.661   4.302
54379SOL    HW264970   1.459   1.532   4.315
54380SOL     OW64971  11.444   3.046   6.203
54380SOL    HW164972  11.538   3.032   6.193
54380SOL    HW264973  11.409   2.958   6.217
54381SOL     OW64974   8.895   6.206   5.816
54381SOL    HW164975   8.882   6.199   5.911
54381SOL    HW264976   8.886   6.300   5.798
54382SOL     OW64977   7.617   1.368   1.870
54382SOL    HW164978   7.609   1.376   1.775
54382SOL    HW264979   7.670   1.289   1.882
54383SOL     OW64980   3.706   1.188  12.456
54383SOL    HW164981   3.644   1.222  12.520
54383SOL    HW264982   3.652   1.142  12.391
54384SOL     OW64983   3.440   4.349   1.952
54384SOL    HW164984   3.433   4.264   1.995
54384SOL    HW264985   3.484   4.404   2.016
54385SOL     OW64986   7.466   5.180   9.541
54385SOL    HW164987   7.505   5.095   9.518
54385SOL    HW264988   7.464   5.229   9.459
54386SOL     OW64989  12.927   0.607   0.331
54386SOL    HW164990  12.974   0.590   0.250
54386SOL    HW264991  12.892   0.696   0.321
54387SOL     OW64992   9.331   7.893   8.792
54387SOL    HW164993   9.355   7.911   8.701
54387SOL    HW264994   9.236   7.884   8.791
54388SOL     OW64995  11.200   1.162   2.343
54388SOL    HW164996  11.286   1.167   2.386
54388SOL    HW264997  11.167   1.075   2.366
54389SOL     OW64998   0.461   6.323   7.354
54389SOL    HW164999   0.458   6.415   7.380
54389SOL    HW265000   0.443   6.275   7.435
54390SOL     OW65001  11.712  12.269  12.301
54390SOL    HW165002  11.674  12.192  12.257
54390SOL    HW265003  11.639  12.330  12.309
54391SOL     OW65004  11.478  11.105   1.352
54391SOL    HW165005  11.489  11.025   1.403
54391SOL    HW265006  11.475  11.075   1.261
54392SOL     OW65007  13.953   8.993   0.110
54392SOL    HW165008  13.913   8.955   0.187
54392SOL    HW265009  13.915   9.081   0.103
54393SOL     OW65010  13.277   6.930   8.866
54393SOL    HW165011  13.317   6.853   8.828
54393SOL    HW265012  13.184   6.908   8.873
54394SOL     OW65013   2.155   2.900   4.484
54394SOL    HW165014   2.074   2.883   4.532
54394SOL    HW265015   2.225   2.891   4.549
54395SOL     OW65016  11.171  10.763   0.952
54395SOL    HW165017  11.123  10.810   0.884
54395SOL    HW265018  11.105  10.745   1.019
54396SOL     OW65019   6.265   5.968   7.706
54396SOL    HW165020   6.344   6.014   7.734
54396SOL    HW265021   6.291   5.919   7.628
54397SOL     OW65022   3.506   2.835   3.673
54397SOL    HW165023   3.575   2.894   3.705
54397SOL    HW265024   3.425   2.881   3.695
54398SOL     OW65025  14.445  11.963  10.290
54398SOL    HW165026  14.398  11.918  10.360
54398SOL    HW265027  14.536  11.935  10.300
54399SOL     OW65028   0.185   2.005  11.169
54399SOL    HW165029   0.138   1.926  11.197
54399SOL    HW265030   0.151   2.023  11.081
54400SOL     OW65031   4.977   9.363   9.836
54400SOL    HW165032   5.005   9.338   9.748
54400SOL    HW265033   4.887   9.394   9.826
54401SOL     OW65034   8.168   1.192   4.969
54401SOL    HW165035   8.253   1.162   4.937
54401SOL    HW265036   8.180   1.284   4.988
54402SOL     OW65037   7.029   4.126   7.795
54402SOL    HW165038   7.034   4.117   7.890
54402SOL    HW265039   7.041   4.037   7.762
54403SOL     OW65040   3.670   0.767   0.553
54403SOL    HW165041   3.750   0.738   0.509
54403SOL    HW265042   3.658   0.857   0.525
54404SOL     OW65043   9.508  10.266   4.310
54404SOL    HW165044   9.456  10.339   4.342
54404SOL    HW265045   9.451  10.190   4.320
54405SOL     OW65046   8.222   5.083  10.982
54405SOL    HW165047   8.167   5.047  11.051
54405SOL    HW265048   8.284   5.139  11.028
54406SOL     OW65049  11.894   8.549  12.402
54406SOL    HW165050  11.899   8.571  12.309
54406SOL    HW265051  11.806   8.513  12.413
54407SOL     OW65052  13.791  14.023   3.974
54407SOL    HW165053  13.850  13.971   3.919
54407SOL    HW265054  13.774  14.102   3.924
54408SOL     OW65055   4.979  11.832   2.108
54408SOL    HW165056   4.980  11.845   2.203
54408SOL    HW265057   4.966  11.738   2.096
54409SOL     OW65058  10.552   0.820  10.742
54409SOL    HW165059  10.472   0.873  10.736
54409SOL    HW265060  10.621   0.877  10.709
54410SOL     OW65061   7.691   7.145   3.163
54410SOL    HW165062   7.725   7.228   3.128
54410SOL    HW265063   7.612   7.128   3.111
54411SOL     OW65064   5.605   9.027   5.671
54411SOL    HW165065   5.522   9.066   5.698
54411SOL    HW265066   5.622   9.064   5.584
54412SOL     OW65067  11.484   7.976   9.202
54412SOL    HW165068  11.528   8.048   9.247
54412SOL    HW265069  11.401   8.013   9.171
54413SOL     OW65070  12.305   3.809   6.850
54413SOL    HW165071  12.354   3.729   6.870
54413SOL    HW265072  12.244   3.784   6.781
54414SOL     OW65073   3.280  13.358  14.862
54414SOL    HW165074   3.273  13.450   0.013
54414SOL    HW265075   3.241  13.309   0.059
54415SOL     OW65076  13.538   5.642   8.023
54415SOL    HW165077  13.501   5.676   7.942
54415SOL    HW265078  13.578   5.719   8.066
54416SOL     OW65079  14.523   2.942   2.520
54416SOL    HW165080  14.532   3.033   2.491
54416SOL    HW265081  14.606   2.923   2.564
54417SOL     OW65082  10.479   4.981   5.453
54417SOL    HW165083  10.549   5.046   5.441
54417SOL    HW265084  10.473   4.936   5.369
54418SOL     OW65085   1.202   8.648   6.656
54418SOL    HW165086   1.172   8.720   6.600
54418SOL    HW265087   1.123   8.619   6.702
54419SOL     OW65088   7.028   4.468   6.382
54419SOL    HW165089   7.016   4.557   6.347
54419SOL    HW265090   7.078   4.423   6.313
54420SOL     OW65091  12.971  12.818   8.434
54420SOL    HW165092  13.046  12.847   8.487
54420SOL    HW265093  13.009  12.757   8.370
54421SOL     OW65094   2.606   7.551   8.819
54421SOL    HW165095   2.686   7.520   8.778
54421SOL    HW265096   2.635   7.613   8.886
54422SOL     OW65097   1.266  11.061   6.405
54422SOL    HW165098   1.258  11.072   6.311
54422SOL    HW265099   1.231  11.142   6.442
54423SOL     OW65100  14.305   7.296  14.388
54423SOL    HW165101  14.210   7.284  14.385
54423SOL    HW265102  14.338   7.216  14.429
54424SOL     OW65103   6.228   1.491   1.958
54424SOL    HW165104   6.160   1.501   2.025
54424SOL    HW265105   6.305   1.462   2.007
54425SOL     OW65106   7.426   6.542   9.349
54425SOL    HW165107   7.516   6.562   9.376
54425SOL    HW265108   7.433   6.460   9.299
54426SOL     OW65109   8.417   7.307   7.008
54426SOL    HW165110   8.338   7.310   7.062
54426SOL    HW265111   8.474   7.374   7.045
54427SOL     OW65112   2.704  12.468  11.233
54427SOL    HW165113   2.777  12.449  11.173
54427SOL    HW265114   2.720  12.411  11.309
54428SOL     OW65115   6.426   7.054   8.999
54428SOL    HW165116   6.410   6.997   9.074
54428SOL    HW265117   6.517   7.082   9.009
54429SOL     OW65118   3.815  14.408   5.830
54429SOL    HW165119   3.901  14.443   5.808
54429SOL    HW265120   3.762  14.421   5.752
54430SOL     OW65121   7.854   4.318   8.496
54430SOL    HW165122   7.761   4.319   8.470
54430SOL    HW265123   7.900   4.286   8.418
54431SOL     OW65124   2.325  14.311  13.544
54431SOL    HW165125   2.381  14.295  13.468
54431SOL    HW265126   2.237  14.288  13.514
54432SOL     OW65127  14.243   8.811   4.867
54432SOL    HW165128  14.308   8.847   4.806
54432SOL    HW265129  14.262   8.853   4.950
54433SOL     OW65130   9.729   1.343   0.107
54433SOL    HW165131   9.765   1.418   0.154
54433SOL    HW265132   9.634   1.359   0.105
54434SOL     OW65133   7.564  14.771  13.437
54434SOL    HW165134   7.627  14.699  13.428
54434SOL    HW265135   7.581  14.828  13.362
54435SOL     OW65136   7.855  10.767   1.145
54435SOL    HW165137   7.882  10.833   1.082
54435SOL    HW265138   7.938  10.733   1.180
54436SOL     OW65139   0.339   5.177  13.708
54436SOL    HW165140   0.432   5.158  13.696
54436SOL    HW265141   0.301   5.094  13.739
54437SOL     OW65142   3.965   9.616   5.915
54437SOL    HW165143   4.009   9.675   5.854
54437SOL    HW265144   3.872   9.626   5.895
54438SOL     OW65145   6.295   2.321   4.368
54438SOL    HW165146   6.390   2.307   4.371
54438SOL    HW265147   6.284   2.416   4.364
54439SOL     OW65148   4.313   5.032  13.991
54439SOL    HW165149   4.385   4.969  13.989
54439SOL    HW265150   4.331   5.086  14.067
54440SOL     OW65151   0.936   7.365   3.623
54440SOL    HW165152   1.026   7.350   3.650
54440SOL    HW265153   0.909   7.283   3.582
54441SOL     OW65154   1.130   4.867   2.660
54441SOL    HW165155   1.143   4.881   2.754
54441SOL    HW265156   1.189   4.795   2.638
54442SOL     OW65157   3.820   1.142   1.723
54442SOL    HW165158   3.736   1.157   1.766
54442SOL    HW265159   3.803   1.071   1.661
54443SOL     OW65160   9.530   0.955   1.476
54443SOL    HW165161   9.543   0.864   1.502
54443SOL    HW265162   9.488   0.997   1.551
54444SOL     OW65163   1.568   5.108   4.258
54444SOL    HW165164   1.630   5.179   4.244
54444SOL    HW265165   1.514   5.107   4.179
54445SOL     OW65166   7.983   0.048  13.753
54445SOL    HW165167   7.976   0.144  13.750
54445SOL    HW265168   8.048   0.028  13.685
54446SOL     OW65169  11.644   5.253   6.203
54446SOL    HW165170  11.697   5.174   6.189
54446SOL    HW265171  11.554   5.221   6.212
54447SOL     OW65172   8.394   5.385   1.685
54447SOL    HW165173   8.311   5.430   1.667
54447SOL    HW265174   8.442   5.389   1.602
54448SOL     OW65175   0.262  11.886  14.509
54448SOL    HW165176   0.347  11.918  14.540
54448SOL    HW265177   0.209  11.965  14.499
54449SOL     OW65178   6.806   0.019   3.674
54449SOL    HW165179   6.831  14.825   3.614
54449SOL    HW265180   6.779   0.092   3.618
54450SOL     OW65181   7.600   4.246  13.099
54450SOL    HW165182   7.655   4.257  13.177
54450SOL    HW265183   7.614   4.327  13.049
54451SOL     OW65184  11.850   8.538   5.973
54451SOL    HW165185  11.768   8.586   5.965
54451SOL    HW265186  11.830   8.464   6.029
54452SOL     OW65187  11.430  11.539  13.634
54452SOL    HW165188  11.436  11.495  13.550
54452SOL    HW265189  11.336  11.549  13.649
54453SOL     OW65190   9.700   3.449   1.985
54453SOL    HW165191   9.783   3.469   2.028
54453SOL    HW265192   9.715   3.472   1.893
54454SOL     OW65193  10.425   0.283   4.044
54454SOL    HW165194  10.520   0.280   4.052
54454SOL    HW265195  10.404   0.218   3.977
54455SOL     OW65196   2.016   7.613  12.539
54455SOL    HW165197   2.020   7.536  12.595
54455SOL    HW265198   2.040   7.686  12.596
54456SOL     OW65199   5.522  14.534  10.959
54456SOL    HW165200   5.555  14.528  10.869
54456SOL    HW265201   5.480  14.620  10.963
54457SOL     OW65202   0.315   4.973   8.963
54457SOL    HW165203   0.293   4.900   8.905
54457SOL    HW265204   0.289   5.051   8.914
54458SOL     OW65205  11.652  11.171   2.967
54458SOL    HW165206  11.728  11.112   2.969
54458SOL    HW265207  11.670  11.231   2.895
54459SOL     OW65208   0.884  12.449   2.338
54459SOL    HW165209   0.914  12.424   2.425
54459SOL    HW265210   0.795  12.481   2.351
54460SOL     OW65211   6.854  10.804   5.173
54460SOL    HW165212   6.857  10.885   5.123
54460SOL    HW265213   6.778  10.757   5.139
54461SOL     OW65214  11.817   1.585  13.736
54461SOL    HW165215  11.785   1.660  13.686
54461SOL    HW265216  11.741   1.552  13.782
54462SOL     OW65217  10.927  11.995  11.514
54462SOL    HW165218  10.989  11.965  11.581
54462SOL    HW265219  10.965  11.964  11.432
54463SOL     OW65220  13.792   4.575   4.225
54463SOL    HW165221  13.852   4.540   4.291
54463SOL    HW265222  13.750   4.497   4.188
54464SOL     OW65223   6.408   8.823  11.543
54464SOL    HW165224   6.450   8.787  11.465
54464SOL    HW265225   6.396   8.747  11.601
54465SOL     OW65226   4.799   1.455   8.618
54465SOL    HW165227   4.729   1.402   8.581
54465SOL    HW265228   4.880   1.412   8.589
54466SOL     OW65229  11.755   4.048  14.429
54466SOL    HW165230  11.681   4.104  14.404
54466SOL    HW265231  11.808   4.042  14.350
54467SOL     OW65232   0.976  12.108   9.516
54467SOL    HW165233   0.925  12.072   9.588
54467SOL    HW265234   0.919  12.175   9.477
54468SOL     OW65235   3.805   0.984   7.085
54468SOL    HW165236   3.879   0.942   7.127
54468SOL    HW265237   3.844   1.035   7.014
54469SOL     OW65238   0.746   5.307   3.364
54469SOL    HW165239   0.761   5.399   3.344
54469SOL    HW265240   0.693   5.308   3.443
54470SOL     OW65241   4.807  12.779   0.903
54470SOL    HW165242   4.792  12.692   0.866
54470SOL    HW265243   4.772  12.774   0.992
54471SOL     OW65244   2.497   1.508  14.702
54471SOL    HW165245   2.583   1.541  14.729
54471SOL    HW265246   2.467   1.456  14.776
54472SOL     OW65247  11.278   9.475  14.051
54472SOL    HW165248  11.249   9.482  13.961
54472SOL    HW265249  11.372   9.494  14.048
54473SOL     OW65250   8.347   8.006   0.973
54473SOL    HW165251   8.277   8.065   0.944
54473SOL    HW265252   8.309   7.958   1.047
54474SOL     OW65253   8.016  13.364   6.345
54474SOL    HW165254   8.063  13.314   6.279
54474SOL    HW265255   7.977  13.297   6.402
54475SOL     OW65256   3.729  13.782   1.761
54475SOL    HW165257   3.746  13.726   1.837
54475SOL    HW265258   3.798  13.759   1.699
54476SOL     OW65259   7.561   2.994   7.862
54476SOL    HW165260   7.584   2.964   7.950
54476SOL    HW265261   7.584   2.922   7.804
54477SOL     OW65262   6.619  11.894   4.095
54477SOL    HW165263   6.709  11.861   4.093
54477SOL    HW265264   6.565  11.815   4.100
54478SOL     OW65265   1.382   4.497   4.412
54478SOL    HW165266   1.296   4.538   4.411
54478SOL    HW265267   1.442   4.567   4.386
54479SOL     OW65268  13.557  13.674   8.616
54479SOL    HW165269  13.617  13.615   8.662
54479SOL    HW265270  13.613  13.739   8.574
54480SOL     OW65271  11.143   6.074  13.366
54480SOL    HW165272  11.239   6.075  13.371
54480SOL    HW265273  11.118   5.995  13.414
54481SOL     OW65274   6.818  12.295   9.733
54481SOL    HW165275   6.840  12.241   9.657
54481SOL    HW265276   6.811  12.234   9.806
54482SOL     OW65277   0.771   7.040   4.298
54482SOL    HW165278   0.735   6.960   4.258
54482SOL    HW265279   0.856   7.013   4.332
54483SOL     OW65280   2.508  10.024   3.509
54483SOL    HW165281   2.552  10.104   3.481
54483SOL    HW265282   2.578   9.966   3.536
54484SOL     OW65283   5.856  11.080   4.128
54484SOL    HW165284   5.876  11.107   4.218
54484SOL    HW265285   5.887  10.989   4.123
54485SOL     OW65286  13.448  13.291   3.923
54485SOL    HW165287  13.356  13.310   3.941
54485SOL    HW265288  13.480  13.249   4.002
54486SOL     OW65289   8.606  11.676   5.369
54486SOL    HW165290   8.619  11.764   5.334
54486SOL    HW265291   8.566  11.690   5.455
54487SOL     OW65292   0.686   5.823  14.758
54487SOL    HW165293   0.763   5.795  14.709
54487SOL    HW265294   0.666   5.750  14.816
54488SOL     OW65295  10.319   2.579   2.505
54488SOL    HW165296  10.264   2.534   2.569
54488SOL    HW265297  10.279   2.666   2.496
54489SOL     OW65298   7.730   7.739   9.487
54489SOL    HW165299   7.804   7.679   9.480
54489SOL    HW265300   7.717   7.771   9.398
54490SOL     OW65301   0.854   3.658   5.171
54490SOL    HW165302   0.912   3.670   5.096
54490SOL    HW265303   0.870   3.734   5.226
54491SOL     OW65304  14.395  13.977  11.441
54491SOL    HW165305  14.419  13.949  11.353
54491SOL    HW265306  14.322  14.038  11.428
54492SOL     OW65307   8.466  11.529   6.197
54492SOL    HW165308   8.528  11.456   6.193
54492SOL    HW265309   8.495  11.580   6.272
54493SOL     OW65310  11.731   8.135  10.195
54493SOL    HW165311  11.697   8.099  10.276
54493SOL    HW265312  11.741   8.060  10.137
54494SOL     OW65313  14.816   9.075   1.321
54494SOL    HW165314  14.848   9.007   1.262
54494SOL    HW265315  14.834   9.157   1.275
54495SOL     OW65316   8.564  13.610  10.364
54495SOL    HW165317   8.485  13.615  10.417
54495SOL    HW265318   8.631  13.655  10.415
54496SOL     OW65319   3.624   0.412   1.052
54496SOL    HW165320   3.552   0.472   1.029
54496SOL    HW265321   3.628   0.350   0.979
54497SOL     OW65322  13.829   9.488   0.917
54497SOL    HW165323  13.860   9.400   0.937
54497SOL    HW265324  13.881   9.546   0.974
54498SOL     OW65325  11.674  14.350  10.357
54498SOL    HW165326  11.662  14.413  10.286
54498SOL    HW265327  11.698  14.402  10.433
54499SOL     OW65328   5.079   3.569   0.810
54499SOL    HW165329   5.031   3.581   0.728
54499SOL    HW265330   5.155   3.627   0.802
54500SOL     OW65331   8.798  11.361   5.497
54500SOL    HW165332   8.877  11.326   5.457
54500SOL    HW265333   8.767  11.290   5.554
54501SOL     OW65334   3.356   4.816   6.714
54501SOL    HW165335   3.452   4.813   6.712
54501SOL    HW265336   3.333   4.888   6.655
54502SOL     OW65337  11.261   2.684  10.788
54502SOL    HW165338  11.202   2.637  10.729
54502SOL    HW265339  11.210   2.758  10.820
54503SOL     OW65340  10.058  10.448   7.379
54503SOL    HW165341  10.005  10.382   7.335
54503SOL    HW265342   9.994  10.503   7.425
54504SOL     OW65343   3.023  10.756  10.574
54504SOL    HW165344   2.983  10.701  10.506
54504SOL    HW265345   3.002  10.846  10.547
54505SOL     OW65346   8.225   4.118   5.469
54505SOL    HW165347   8.281   4.191   5.497
54505SOL    HW265348   8.160   4.109   5.539
54506SOL     OW65349   3.297  11.080  10.498
54506SOL    HW165350   3.300  10.985  10.506
54506SOL    HW265351   3.251  11.096  10.416
54507SOL     OW65352   2.913   9.813   1.107
54507SOL    HW165353   2.835   9.868   1.094
54507SOL    HW265354   2.881   9.741   1.161
54508SOL     OW65355   4.737   0.740  14.547
54508SOL    HW165356   4.776   0.827  14.556
54508SOL    HW265357   4.733   0.725  14.453
54509SOL     OW65358   6.923  10.335   2.500
54509SOL    HW165359   6.944  10.394   2.428
54509SOL    HW265360   6.887  10.391   2.568
54510SOL     OW65361  11.125   6.641   5.128
54510SOL    HW165362  11.166   6.560   5.158
54510SOL    HW265363  11.195   6.687   5.080
54511SOL     OW65364  10.886   0.932   8.671
54511SOL    HW165365  10.901   0.891   8.586
54511SOL    HW265366  10.814   0.993   8.657
54512SOL     OW65367   8.412  14.051  13.754
54512SOL    HW165368   8.471  14.080  13.824
54512SOL    HW265369   8.467  13.996  13.698
54513SOL     OW65370   0.042   0.217   9.080
54513SOL    HW165371   0.045   0.154   9.008
54513SOL    HW265372   0.110   0.281   9.058
54514SOL     OW65373   8.114   3.777   2.860
54514SOL    HW165374   8.088   3.855   2.811
54514SOL    HW265375   8.198   3.752   2.820
54515SOL     OW65376  13.256   8.369   5.100
54515SOL    HW165377  13.264   8.370   5.195
54515SOL    HW265378  13.177   8.317   5.083
54516SOL     OW65379   6.567   3.505  11.037
54516SOL    HW165380   6.523   3.590  11.035
54516SOL    HW265381   6.574   3.479  10.946
54517SOL     OW65382   3.985  12.946  12.905
54517SOL    HW165383   3.913  13.008  12.893
54517SOL    HW265384   4.001  12.911  12.817
54518SOL     OW65385  12.961   4.744   4.130
54518SOL    HW165386  12.944   4.749   4.036
54518SOL    HW265387  13.001   4.828   4.152
54519SOL     OW65388  12.636   3.388   1.333
54519SOL    HW165389  12.678   3.444   1.268
54519SOL    HW265390  12.646   3.299   1.298
54520SOL     OW65391  14.764   8.330   6.170
54520SOL    HW165392  14.678   8.288   6.161
54520SOL    HW265393  14.822   8.259   6.199
54521SOL     OW65394  10.666   3.104   6.554
54521SOL    HW165395  10.707   3.115   6.640
54521SOL    HW265396  10.692   3.182   6.505
54522SOL     OW65397  14.255   1.004   0.003
54522SOL    HW165398  14.204   1.008  14.799
54522SOL    HW265399  14.292   0.916   0.004
54523SOL     OW65400   9.284   4.221   1.407
54523SOL    HW165401   9.216   4.288   1.409
54523SOL    HW265402   9.366   4.269   1.416
54524SOL     OW65403  13.359  10.685   1.865
54524SOL    HW165404  13.384  10.771   1.831
54524SOL    HW265405  13.264  10.681   1.852
54525SOL     OW65406   6.062   8.499  11.077
54525SOL    HW165407   6.106   8.430  11.028
54525SOL    HW265408   5.970   8.470  11.080
54526SOL     OW65409   1.523   4.941   8.485
54526SOL    HW165410   1.514   5.035   8.468
54526SOL    HW265411   1.604   4.934   8.535
54527SOL     OW65412  11.395   6.494   9.871
54527SOL    HW165413  11.392   6.522   9.962
54527SOL    HW265414  11.407   6.399   9.875
54528SOL     OW65415  12.685  14.820  14.710
54528SOL    HW165416  12.697   0.038  14.718
54528SOL    HW265417  12.613  14.810  14.647
54529SOL     OW65418   3.828   3.768  14.648
54529SOL    HW165419   3.734   3.780  14.633
54529SOL    HW265420   3.833   3.725  14.733
54530SOL     OW65421  13.052   2.630   4.578
54530SOL    HW165422  13.026   2.600   4.665
54530SOL    HW265423  13.119   2.696   4.594
54531SOL     OW65424  11.271   6.658  10.527
54531SOL    HW165425  11.191   6.646  10.476
54531SOL    HW265426  11.294   6.750  10.514
54532SOL     OW65427  11.374   8.785   0.225
54532SOL    HW165428  11.365   8.823   0.137
54532SOL    HW265429  11.324   8.704   0.221
54533SOL     OW65430  11.451   4.074  14.647
54533SOL    HW165431  11.403   4.089  14.728
54533SOL    HW265432  11.512   4.148  14.641
54534SOL     OW65433   6.589   7.178  11.032
54534SOL    HW165434   6.525   7.106  11.037
54534SOL    HW265435   6.572   7.219  10.947
54535SOL     OW65436   4.774   0.499  10.892
54535SOL    HW165437   4.848   0.511  10.952
54535SOL    HW265438   4.730   0.584  10.890
54536SOL     OW65439   4.771   7.919  13.283
54536SOL    HW165440   4.804   7.950  13.198
54536SOL    HW265441   4.686   7.880  13.262
54537SOL     OW65442  12.282   6.659   2.205
54537SOL    HW165443  12.203   6.640   2.256
54537SOL    HW265444  12.284   6.591   2.138
54538SOL     OW65445   0.920   7.844  13.052
54538SOL    HW165446   0.902   7.809  12.965
54538SOL    HW265447   1.003   7.804  13.078
54539SOL     OW65448  12.806   9.029  10.683
54539SOL    HW165449  12.743   9.013  10.753
54539SOL    HW265450  12.889   9.044  10.727
54540SOL     OW65451   8.931   0.838  13.813
54540SOL    HW165452   8.957   0.771  13.750
54540SOL    HW265453   8.954   0.800  13.898
54541SOL     OW65454   5.380   6.474   3.622
54541SOL    HW165455   5.302   6.473   3.677
54541SOL    HW265456   5.367   6.404   3.559
54542SOL     OW65457   9.076  10.512   1.907
54542SOL    HW165458   9.104  10.421   1.896
54542SOL    HW265459   9.157  10.563   1.908
54543SOL     OW65460   9.507   8.530   9.363
54543SOL    HW165461   9.538   8.472   9.293
54543SOL    HW265462   9.538   8.617   9.338
54544SOL     OW65463   3.144  13.641   0.686
54544SOL    HW165464   3.117  13.730   0.706
54544SOL    HW265465   3.062  13.594   0.671
54545SOL     OW65466   5.261   8.848  13.245
54545SOL    HW165467   5.323   8.804  13.303
54545SOL    HW265468   5.175   8.828  13.283
54546SOL     OW65469  13.043   0.820   3.257
54546SOL    HW165470  13.062   0.908   3.224
54546SOL    HW265471  12.986   0.835   3.332
54547SOL     OW65472  12.539  14.345   7.675
54547SOL    HW165473  12.590  14.426   7.671
54547SOL    HW265474  12.586  14.290   7.737
54548SOL     OW65475   5.920  13.150  12.117
54548SOL    HW165476   5.899  13.084  12.184
54548SOL    HW265477   5.990  13.202  12.157
54549SOL     OW65478   3.685   2.172   7.826
54549SOL    HW165479   3.735   2.182   7.746
54549SOL    HW265480   3.747   2.193   7.896
54550SOL     OW65481   5.254   7.875   3.465
54550SOL    HW165482   5.291   7.889   3.377
54550SOL    HW265483   5.300   7.799   3.499
54551SOL     OW65484   8.411   4.849   6.350
54551SOL    HW165485   8.377   4.800   6.275
54551SOL    HW265486   8.484   4.900   6.314
54552SOL     OW65487  11.680   0.069   9.261
54552SOL    HW165488  11.600   0.094   9.308
54552SOL    HW265489  11.682  14.849   9.268
54553SOL     OW65490  13.518   0.169   0.326
54553SOL    HW165491  13.543   0.136   0.239
54553SOL    HW265492  13.483   0.257   0.309
54554SOL     OW65493   1.209  14.076  14.058
54554SOL    HW165494   1.191  14.163  14.022
54554SOL    HW265495   1.183  14.016  13.988
54555SOL     OW65496  10.530   3.419   8.406
54555SOL    HW165497  10.560   3.349   8.465
54555SOL    HW265498  10.485   3.373   8.335
54556SOL     OW65499  12.999  13.079   5.194
54556SOL    HW165500  12.905  13.096   5.185
54556SOL    HW265501  13.041  13.147   5.141
54557SOL     OW65502   9.952   4.109  10.131
54557SOL    HW165503   9.881   4.090  10.193
54557SOL    HW265504   9.952   4.034  10.072
54558SOL     OW65505   2.671   1.022   4.770
54558SOL    HW165506   2.716   1.099   4.737
54558SOL    HW265507   2.579   1.038   4.751
54559SOL     OW65508  11.737   8.641  14.403
54559SOL    HW165509  11.697   8.578  14.344
54559SOL    HW265510  11.827   8.648  14.373
54560SOL     OW65511   7.767  14.045   4.398
54560SOL    HW165512   7.704  14.038   4.326
54560SOL    HW265513   7.795  14.136   4.398
54561SOL     OW65514   1.062   0.455  10.548
54561SOL    HW165515   1.104   0.372  10.526
54561SOL    HW265516   1.016   0.437  10.630
54562SOL     OW65517  14.734   3.133   4.746
54562SOL    HW165518  14.817   3.181   4.746
54562SOL    HW265519  14.679   3.180   4.809
54563SOL     OW65520   0.163  13.182   6.588
54563SOL    HW165521   0.144  13.273   6.612
54563SOL    HW265522   0.255  13.183   6.563
54564SOL     OW65523   2.684  12.563   5.384
54564SOL    HW165524   2.624  12.597   5.317
54564SOL    HW265525   2.756  12.526   5.333
54565SOL     OW65526   2.190  11.318   9.548
54565SOL    HW165527   2.189  11.390   9.485
54565SOL    HW265528   2.227  11.357   9.628
54566SOL     OW65529   2.741   5.348  11.734
54566SOL    HW165530   2.746   5.419  11.798
54566SOL    HW265531   2.823   5.355  11.684
54567SOL     OW65532  10.745  14.123   1.764
54567SOL    HW165533  10.741  14.161   1.852
54567SOL    HW265534  10.821  14.065   1.767
54568SOL     OW65535  13.401   4.837  12.684
54568SOL    HW165536  13.342   4.829  12.608
54568SOL    HW265537  13.487   4.851  12.645
54569SOL     OW65538   0.869   8.366   6.787
54569SOL    HW165539   0.909   8.356   6.701
54569SOL    HW265540   0.787   8.414   6.770
54570SOL     OW65541  12.325  11.409   1.875
54570SOL    HW165542  12.316  11.426   1.781
54570SOL    HW265543  12.238  11.381   1.902
54571SOL     OW65544   9.601  13.529   4.666
54571SOL    HW165545   9.658  13.596   4.628
54571SOL    HW265546   9.651  13.448   4.658
54572SOL     OW65547  11.261   2.875  11.115
54572SOL    HW165548  11.185   2.890  11.059
54572SOL    HW265549  11.290   2.786  11.094
54573SOL     OW65550   3.239  14.485  10.968
54573SOL    HW165551   3.200  14.569  10.944
54573SOL    HW265552   3.313  14.475  10.908
54574SOL     OW65553   2.444  13.615   0.284
54574SOL    HW165554   2.429  13.523   0.306
54574SOL    HW265555   2.499  13.612   0.206
54575SOL     OW65556   3.464   7.664   0.881
54575SOL    HW165557   3.386   7.690   0.930
54575SOL    HW265558   3.476   7.733   0.817
54576SOL     OW65559  10.291   1.623  13.739
54576SOL    HW165560  10.208   1.590  13.706
54576SOL    HW265561  10.327   1.551  13.792
54577SOL     OW65562   2.876   1.584  12.766
54577SOL    HW165563   2.849   1.675  12.759
54577SOL    HW265564   2.847   1.557  12.853
54578SOL     OW65565   4.222   1.490   9.725
54578SOL    HW165566   4.252   1.567   9.775
54578SOL    HW265567   4.182   1.526   9.646
54579SOL     OW65568   3.543   5.043   1.867
54579SOL    HW165569   3.554   5.088   1.783
54579SOL    HW265570   3.521   5.112   1.929
54580SOL     OW65571   7.982   3.510  11.491
54580SOL    HW165572   7.894   3.548  11.498
54580SOL    HW265573   8.003   3.481  11.580
54581SOL     OW65574   9.862   3.395   4.437
54581SOL    HW165575   9.950   3.390   4.474
54581SOL    HW265576   9.863   3.336   4.362
54582SOL     OW65577  13.705  13.727  12.025
54582SOL    HW165578  13.652  13.662  11.978
54582SOL    HW265579  13.753  13.773  11.956
54583SOL     OW65580  11.971  11.847   0.360
54583SOL    HW165581  12.012  11.929   0.387
54583SOL    HW265582  12.043  11.794   0.326
54584SOL     OW65583   3.339  11.904   0.548
54584SOL    HW165584   3.305  11.854   0.474
54584SOL    HW265585   3.412  11.953   0.512
54585SOL     OW65586  13.907   9.786   3.615
54585SOL    HW165587  13.812   9.777   3.605
54585SOL    HW265588  13.918   9.837   3.696
54586SOL     OW65589   3.531   4.676   8.552
54586SOL    HW165590   3.525   4.766   8.519
54586SOL    HW265591   3.558   4.685   8.643
54587SOL     OW65592  13.650   5.670   9.210
54587SOL    HW165593  13.656   5.742   9.147
54587SOL    HW265594  13.557   5.645   9.208
54588SOL     OW65595   9.353   8.971  11.399
54588SOL    HW165596   9.421   8.924  11.351
54588SOL    HW265597   9.398   9.048  11.434
54589SOL     OW65598  10.841   3.665  11.431
54589SOL    HW165599  10.928   3.637  11.401
54589SOL    HW265600  10.830   3.752  11.393
54590SOL     OW65601   7.827  12.295   2.594
54590SOL    HW165602   7.813  12.266   2.684
54590SOL    HW265603   7.788  12.226   2.541
54591SOL     OW65604  14.129   3.393   0.827
54591SOL    HW165605  14.216   3.410   0.793
54591SOL    HW265606  14.070   3.436   0.765
54592SOL     OW65607  12.977  11.422   4.198
54592SOL    HW165608  13.067  11.407   4.228
54592SOL    HW265609  12.955  11.341   4.152
54593SOL     OW65610   4.953   9.727   0.430
54593SOL    HW165611   4.967   9.740   0.336
54593SOL    HW265612   5.001   9.647   0.451
54594SOL     OW65613  12.183   7.079   9.360
54594SOL    HW165614  12.206   7.083   9.268
54594SOL    HW265615  12.265   7.095   9.407
54595SOL     OW65616   6.523   7.545  10.411
54595SOL    HW165617   6.533   7.468  10.467
54595SOL    HW265618   6.540   7.619  10.469
54596SOL     OW65619   6.838   6.901   3.981
54596SOL    HW165620   6.840   6.996   3.990
54596SOL    HW265621   6.871   6.884   3.893
54597SOL     OW65622  14.733   2.551  10.840
54597SOL    HW165623  14.820   2.539  10.801
54597SOL    HW265624  14.683   2.474  10.812
54598SOL     OW65625   5.461   3.932  10.227
54598SOL    HW165626   5.435   3.901  10.314
54598SOL    HW265627   5.429   3.864  10.167
54599SOL     OW65628   3.806   4.118   8.101
54599SOL    HW165629   3.768   4.094   8.016
54599SOL    HW265630   3.897   4.140   8.081
54600SOL     OW65631   4.054   0.551  10.061
54600SOL    HW165632   4.059   0.632  10.010
54600SOL    HW265633   4.069   0.481   9.997
54601SOL     OW65634   9.582   2.999  12.627
54601SOL    HW165635   9.668   2.958  12.614
54601SOL    HW265636   9.581   3.071  12.564
54602SOL     OW65637   1.174   5.020   4.994
54602SOL    HW165638   1.198   5.112   4.981
54602SOL    HW265639   1.090   5.010   4.949
54603SOL     OW65640   0.091   8.856   1.197
54603SOL    HW165641   0.096   8.818   1.284
54603SOL    HW265642   0.167   8.820   1.150
54604SOL     OW65643   4.486   9.524   7.171
54604SOL    HW165644   4.574   9.524   7.209
54604SOL    HW265645   4.455   9.614   7.183
54605SOL     OW65646   3.425   2.578   3.166
54605SOL    HW165647   3.465   2.601   3.250
54605SOL    HW265648   3.335   2.554   3.188
54606SOL     OW65649   8.114   0.044   3.945
54606SOL    HW165650   8.078  14.864   4.014
54606SOL    HW265651   8.089   0.133   3.970
54607SOL     OW65652   5.091   2.463   3.234
54607SOL    HW165653   5.172   2.440   3.188
54607SOL    HW265654   5.059   2.541   3.189
54608SOL     OW65655   3.047   6.002  13.900
54608SOL    HW165656   3.017   5.934  13.839
54608SOL    HW265657   2.977   6.007  13.965
54609SOL     OW65658   8.906  13.791  12.980
54609SOL    HW165659   8.896  13.794  12.885
54609SOL    HW265660   8.919  13.882  13.006
54610SOL     OW65661   8.918  11.033  10.149
54610SOL    HW165662   8.847  11.098  10.151
54610SOL    HW265663   8.894  10.974  10.078
54611SOL     OW65664  14.093   5.471   3.069
54611SOL    HW165665  14.009   5.426   3.059
54611SOL    HW265666  14.134   5.463   2.983
54612SOL     OW65667   3.654   8.076  13.150
54612SOL    HW165668   3.670   8.008  13.215
54612SOL    HW265669   3.704   8.049  13.074
54613SOL     OW65670   8.142   1.374  13.122
54613SOL    HW165671   8.094   1.311  13.175
54613SOL    HW265672   8.083   1.449  13.114
54614SOL     OW65673   6.374   4.645   2.974
54614SOL    HW165674   6.374   4.647   2.878
54614SOL    HW265675   6.308   4.710   2.999
54615SOL     OW65676   9.900   5.647   4.040
54615SOL    HW165677   9.827   5.588   4.025
54615SOL    HW265678   9.862   5.725   4.080
54616SOL     OW65679   0.553   0.260  10.461
54616SOL    HW165680   0.463   0.281  10.435
54616SOL    HW265681   0.595   0.231  10.380
54617SOL     OW65682  10.208   8.767   7.708
54617SOL    HW165683  10.153   8.783   7.785
54617SOL    HW265684  10.284   8.719   7.742
54618SOL     OW65685   7.628   2.084  10.731
54618SOL    HW165686   7.625   2.027  10.807
54618SOL    HW265687   7.591   2.167  10.761
54619SOL     OW65688  11.582   1.933   6.822
54619SOL    HW165689  11.497   1.977   6.827
54619SOL    HW265690  11.617   1.938   6.911
54620SOL     OW65691   0.873   8.987   2.910
54620SOL    HW165692   0.950   9.029   2.872
54620SOL    HW265693   0.805   9.054   2.909
54621SOL     OW65694   3.076  14.383   9.791
54621SOL    HW165695   3.132  14.305   9.796
54621SOL    HW265696   3.107  14.439   9.863
54622SOL     OW65697  10.110   3.084  10.215
54622SOL    HW165698  10.060   3.064  10.136
54622SOL    HW265699  10.079   3.171  10.241
54623SOL     OW65700  11.838  10.819  10.864
54623SOL    HW165701  11.845  10.848  10.955
54623SOL    HW265702  11.756  10.857  10.832
54624SOL     OW65703   1.869   3.226   7.056
54624SOL    HW165704   1.862   3.131   7.044
54624SOL    HW265705   1.780   3.254   7.077
54625SOL     OW65706   3.960   0.580  12.739
54625SOL    HW165707   3.954   0.484  12.743
54625SOL    HW265708   3.947   0.609  12.829
54626SOL     OW65709   5.552  12.270   2.240
54626SOL    HW165710   5.519  12.205   2.302
54626SOL    HW265711   5.499  12.348   2.255
54627SOL     OW65712  11.354   9.841   2.705
54627SOL    HW165713  11.412   9.836   2.629
54627SOL    HW265714  11.305   9.759   2.704
54628SOL     OW65715   3.260   0.491  14.009
54628SOL    HW165716   3.330   0.533  13.959
54628SOL    HW265717   3.253   0.404  13.971
54629SOL     OW65718   9.336  12.111  11.119
54629SOL    HW165719   9.353  12.112  11.025
54629SOL    HW265720   9.392  12.042  11.154
54630SOL     OW65721   1.976   5.558   3.739
54630SOL    HW165722   1.906   5.616   3.712
54630SOL    HW265723   1.993   5.503   3.662
54631SOL     OW65724   5.395  10.094  10.626
54631SOL    HW165725   5.473  10.099  10.681
54631SOL    HW265726   5.416  10.147  10.549
54632SOL     OW65727   7.597   2.392  12.948
54632SOL    HW165728   7.686   2.417  12.972
54632SOL    HW265729   7.609   2.312  12.896
54633SOL     OW65730  14.744   8.615  10.737
54633SOL    HW165731  14.696   8.533  10.738
54633SOL    HW265732  14.836   8.589  10.739
54634SOL     OW65733   0.318   3.906   7.048
54634SOL    HW165734   0.412   3.906   7.064
54634SOL    HW265735   0.306   3.841   6.978
54635SOL     OW65736   0.389   6.471   3.516
54635SOL    HW165737   0.373   6.453   3.609
54635SOL    HW265738   0.318   6.425   3.471
54636SOL     OW65739  12.747   8.236  13.429
54636SOL    HW165740  12.815   8.287  13.471
54636SOL    HW265741  12.779   8.221  13.340
54637SOL     OW65742   0.544   5.960   7.070
54637SOL    HW165743   0.591   5.898   7.125
54637SOL    HW265744   0.475   5.995   7.125
54638SOL     OW65745  11.717   1.086   9.724
54638SOL    HW165746  11.692   1.097   9.633
54638SOL    HW265747  11.639   1.110   9.774
54639SOL     OW65748  12.822   6.447  14.335
54639SOL    HW165749  12.738   6.429  14.378
54639SOL    HW265750  12.799   6.464  14.244
54640SOL     OW65751  13.747  12.176   4.603
54640SOL    HW165752  13.752  12.138   4.515
54640SOL    HW265753  13.828  12.149   4.646
54641SOL     OW65754  10.871   0.278  11.851
54641SOL    HW165755  10.961   0.246  11.863
54641SOL    HW265756  10.882   0.369  11.823
54642SOL     OW65757   6.323  13.665   2.679
54642SOL    HW165758   6.411  13.660   2.642
54642SOL    HW265759   6.327  13.611   2.758
54643SOL     OW65760   0.407   0.888   2.595
54643SOL    HW165761   0.393   0.794   2.592
54643SOL    HW265762   0.319   0.926   2.596
54644SOL     OW65763   2.355   6.664   5.045
54644SOL    HW165764   2.448   6.651   5.060
54644SOL    HW265765   2.350   6.736   4.982
54645SOL     OW65766  10.936   2.936   3.095
54645SOL    HW165767  10.972   2.951   3.182
54645SOL    HW265768  11.010   2.906   3.042
54646SOL     OW65769   4.919   3.541   6.877
54646SOL    HW165770   4.876   3.602   6.938
54646SOL    HW265771   4.919   3.458   6.924
54647SOL     OW65772  10.777   3.714   9.264
54647SOL    HW165773  10.764   3.799   9.304
54647SOL    HW265774  10.846   3.728   9.199
54648SOL     OW65775  10.603   9.739  11.029
54648SOL    HW165776  10.542   9.804  11.062
54648SOL    HW265777  10.689   9.780  11.039
54649SOL     OW65778   4.369  11.662   3.120
54649SOL    HW165779   4.462  11.680   3.137
54649SOL    HW265780   4.366  11.568   3.102
54650SOL     OW65781   5.400   3.613   3.955
54650SOL    HW165782   5.403   3.573   3.868
54650SOL    HW265783   5.356   3.548   4.010
54651SOL     OW65784   4.093   0.889   4.369
54651SOL    HW165785   4.099   0.869   4.276
54651SOL    HW265786   4.080   0.805   4.412
54652SOL     OW65787  10.356   1.777   0.857
54652SOL    HW165788  10.370   1.812   0.944
54652SOL    HW265789  10.274   1.817   0.827
54653SOL     OW65790   6.631   8.439  12.597
54653SOL    HW165791   6.545   8.434  12.638
54653SOL    HW265792   6.669   8.352  12.609
54654SOL     OW65793  10.571   1.763   1.294
54654SOL    HW165794  10.611   1.713   1.365
54654SOL    HW265795  10.606   1.851   1.303
54655SOL     OW65796   6.521  11.342   8.279
54655SOL    HW165797   6.456  11.375   8.342
54655SOL    HW265798   6.484  11.260   8.247
54656SOL     OW65799   5.226  11.994  13.341
54656SOL    HW165800   5.254  12.018  13.430
54656SOL    HW265801   5.142  11.951  13.353
54657SOL     OW65802   7.855   8.991   7.134
54657SOL    HW165803   7.869   8.924   7.201
54657SOL    HW265804   7.826   9.068   7.183
54658SOL     OW65805  10.501   3.944   2.517
54658SOL    HW165806  10.565   3.898   2.571
54658SOL    HW265807  10.533   4.034   2.513
54659SOL     OW65808   5.155   1.121  10.123
54659SOL    HW165809   5.245   1.087  10.122
54659SOL    HW265810   5.163   1.206  10.165
54660SOL     OW65811  13.291  11.250   9.485
54660SOL    HW165812  13.206  11.290   9.468
54660SOL    HW265813  13.350  11.288   9.420
54661SOL     OW65814   4.450   4.960   8.332
54661SOL    HW165815   4.378   4.906   8.365
54661SOL    HW265816   4.408   5.040   8.300
54662SOL     OW65817  11.384  13.674   6.464
54662SOL    HW165818  11.359  13.722   6.385
54662SOL    HW265819  11.301  13.651   6.505
54663SOL     OW65820  13.291   2.144  13.090
54663SOL    HW165821  13.348   2.199  13.144
54663SOL    HW265822  13.223   2.204  13.058
54664SOL     OW65823   4.451   5.097  11.680
54664SOL    HW165824   4.447   5.098  11.775
54664SOL    HW265825   4.433   5.187  11.653
54665SOL     OW65826   2.759  12.861   3.597
54665SOL    HW165827   2.743  12.909   3.679
54665SOL    HW265828   2.784  12.773   3.626
54666SOL     OW65829   0.489   8.983  12.651
54666SOL    HW165830   0.508   9.074  12.631
54666SOL    HW265831   0.574   8.939  12.647
54667SOL     OW65832   8.129  14.401   2.061
54667SOL    HW165833   8.112  14.317   2.104
54667SOL    HW265834   8.047  14.449   2.070
54668SOL     OW65835   8.910  12.373   9.077
54668SOL    HW165836   8.913  12.279   9.057
54668SOL    HW265837   8.966  12.383   9.154
54669SOL     OW65838   5.938  11.085   2.492
54669SOL    HW165839   5.923  11.180   2.492
54669SOL    HW265840   6.023  11.075   2.450
54670SOL     OW65841   3.304  11.766  11.029
54670SOL    HW165842   3.286  11.688  11.080
54670SOL    HW265843   3.384  11.802  11.068
54671SOL     OW65844   7.611  11.744   3.663
54671SOL    HW165845   7.652  11.669   3.620
54671SOL    HW265846   7.520  11.717   3.675
54672SOL     OW65847   5.570  12.727   8.976
54672SOL    HW165848   5.579  12.776   8.895
54672SOL    HW265849   5.598  12.638   8.954
54673SOL     OW65850  11.739   6.361   1.210
54673SOL    HW165851  11.765   6.392   1.123
54673SOL    HW265852  11.684   6.431   1.244
54674SOL     OW65853   5.832   1.386  10.558
54674SOL    HW165854   5.915   1.434  10.570
54674SOL    HW265855   5.856   1.310  10.505
54675SOL     OW65856   8.227   5.818   3.675
54675SOL    HW165857   8.134   5.813   3.700
54675SOL    HW265858   8.228   5.797   3.581
54676SOL     OW65859  11.734   5.528   6.279
54676SOL    HW165860  11.708   5.436   6.283
54676SOL    HW265861  11.652   5.577   6.289
54677SOL     OW65862  12.644   1.433  10.065
54677SOL    HW165863  12.676   1.427  10.155
54677SOL    HW265864  12.556   1.471  10.074
54678SOL     OW65865   8.026  10.539   7.010
54678SOL    HW165866   7.949  10.492   7.042
54678SOL    HW265867   8.015  10.628   7.045
54679SOL     OW65868   4.619   9.601  13.251
54679SOL    HW165869   4.648   9.538  13.316
54679SOL    HW265870   4.697   9.621  13.200
54680SOL     OW65871   5.017  10.285   0.736
54680SOL    HW165872   4.991  10.312   0.648
54680SOL    HW265873   4.946  10.228   0.765
54681SOL     OW65874   9.367  14.373   9.250
54681SOL    HW165875   9.334  14.354   9.163
54681SOL    HW265876   9.290  14.398   9.301
54682SOL     OW65877  13.802  12.001  13.709
54682SOL    HW165878  13.842  11.914  13.707
54682SOL    HW265879  13.716  11.989  13.671
54683SOL     OW65880   2.607   6.001   8.990
54683SOL    HW165881   2.637   5.929   9.045
54683SOL    HW265882   2.557   6.057   9.049
54684SOL     OW65883  12.715   9.874   8.876
54684SOL    HW165884  12.729   9.878   8.781
54684SOL    HW265885  12.751   9.957   8.908
54685SOL     OW65886  11.614   5.809   5.653
54685SOL    HW165887  11.532   5.760   5.652
54685SOL    HW265888  11.682   5.742   5.658
54686SOL     OW65889  10.348  13.453   5.677
54686SOL    HW165890  10.359  13.490   5.589
54686SOL    HW265891  10.330  13.360   5.662
54687SOL     OW65892  11.097   7.878   2.092
54687SOL    HW165893  11.061   7.793   2.118
54687SOL    HW265894  11.021   7.937   2.094
54688SOL     OW65895   9.144   8.271  13.629
54688SOL    HW165896   9.193   8.196  13.663
54688SOL    HW265897   9.058   8.235  13.607
54689SOL     OW65898  10.599   5.769   5.436
54689SOL    HW165899  10.650   5.842   5.401
54689SOL    HW265900  10.662   5.697   5.441
54690SOL     OW65901   9.540   5.122   6.007
54690SOL    HW165902   9.538   5.115   6.102
54690SOL    HW265903   9.628   5.092   5.983
54691SOL     OW65904  14.056  14.126  14.871
54691SOL    HW165905  14.028  14.042   0.033
54691SOL    HW265906  14.097  14.173   0.068
54692SOL     OW65907   6.003   6.167   5.056
54692SOL    HW165908   6.004   6.074   5.081
54692SOL    HW265909   6.035   6.168   4.966
54693SOL     OW65910   9.285  10.543  14.116
54693SOL    HW165911   9.354  10.539  14.182
54693SOL    HW265912   9.218  10.600  14.154
54694SOL     OW65913  12.978  12.359   8.309
54694SOL    HW165914  13.061  12.408   8.308
54694SOL    HW265915  12.999  12.277   8.354
54695SOL     OW65916   5.167   9.103  11.467
54695SOL    HW165917   5.109   9.029  11.487
54695SOL    HW265918   5.122   9.179  11.502
54696SOL     OW65919  11.880  12.855  11.249
54696SOL    HW165920  11.941  12.804  11.303
54696SOL    HW265921  11.797  12.808  11.256
54697SOL     OW65922   2.528  11.988  12.459
54697SOL    HW165923   2.497  12.079  12.463
54697SOL    HW265924   2.463  11.943  12.406
54698SOL     OW65925  12.976   1.885   1.579
54698SOL    HW165926  12.948   1.795   1.559
54698SOL    HW265927  13.048   1.901   1.518
54699SOL     OW65928   5.416   2.918   7.992
54699SOL    HW165929   5.489   2.906   8.053
54699SOL    HW265930   5.456   2.916   7.905
54700SOL     OW65931   3.997   8.006  14.082
54700SOL    HW165932   4.002   7.946  14.008
54700SOL    HW265933   4.069   7.978  14.140
54701SOL     OW65934   2.135   7.088   5.303
54701SOL    HW165935   2.115   6.995   5.315
54701SOL    HW265936   2.076   7.116   5.234
54702SOL     OW65937   4.101   8.836  13.057
54702SOL    HW165938   4.055   8.885  13.125
54702SOL    HW265939   4.062   8.749  13.060
54703SOL     OW65940  12.913  10.346   7.700
54703SOL    HW165941  12.917  10.252   7.719
54703SOL    HW265942  12.892  10.387   7.783
54704SOL     OW65943  10.481   0.842   5.326
54704SOL    HW165944  10.569   0.869   5.350
54704SOL    HW265945  10.457   0.777   5.392
54705SOL     OW65946   5.308   1.445  14.553
54705SOL    HW165947   5.328   1.530  14.513
54705SOL    HW265948   5.214   1.433  14.538
54706SOL     OW65949  11.773   3.045  12.655
54706SOL    HW165950  11.857   3.089  12.670
54706SOL    HW265951  11.773   2.972  12.716
54707SOL     OW65952   3.401   8.202  14.621
54707SOL    HW165953   3.416   8.259  14.546
54707SOL    HW265954   3.370   8.260  14.691
54708SOL     OW65955  11.684   7.585   0.338
54708SOL    HW165956  11.687   7.605   0.432
54708SOL    HW265957  11.650   7.665   0.298
54709SOL     OW65958   1.644  12.218   5.545
54709SOL    HW165959   1.672  12.130   5.570
54709SOL    HW265960   1.642  12.217   5.449
54710SOL     OW65961   5.197   4.522  11.917
54710SOL    HW165962   5.110   4.494  11.888
54710SOL    HW265963   5.187   4.616  11.935
54711SOL     OW65964   2.297   6.776  13.890
54711SOL    HW165965   2.392   6.763  13.884
54711SOL    HW265966   2.269   6.718  13.960
54712SOL     OW65967  13.679   5.132   1.284
54712SOL    HW165968  13.707   5.223   1.297
54712SOL    HW265969  13.585   5.138   1.265
54713SOL     OW65970   6.419  11.481   8.723
54713SOL    HW165971   6.512  11.463   8.737
54713SOL    HW265972   6.375  11.439   8.796
54714SOL     OW65973   4.296  14.218  12.017
54714SOL    HW165974   4.269  14.232  12.108
54714SOL    HW265975   4.391  14.208  12.023
54715SOL     OW65976   8.617  12.317   3.793
54715SOL    HW165977   8.627  12.257   3.866
54715SOL    HW265978   8.537  12.366   3.813
54716SOL     OW65979   6.691   5.103  10.832
54716SOL    HW165980   6.747   5.168  10.789
54716SOL    HW265981   6.608   5.107  10.785
54717SOL     OW65982   2.487   4.007   5.501
54717SOL    HW165983   2.439   3.925   5.510
54717SOL    HW265984   2.492   4.022   5.406
54718SOL     OW65985   8.468   0.371  14.207
54718SOL    HW165986   8.531   0.340  14.142
54718SOL    HW265987   8.522   0.416  14.273
54719SOL     OW65988  13.626   9.654  11.930
54719SOL    HW165989  13.615   9.746  11.905
54719SOL    HW265990  13.683   9.618  11.861
54720SOL     OW65991  12.708   3.664   8.851
54720SOL    HW165992  12.697   3.577   8.891
54720SOL    HW265993  12.652   3.663   8.774
54721SOL     OW65994   2.788  13.529   9.862
54721SOL    HW165995   2.802  13.619   9.832
54721SOL    HW265996   2.737  13.538   9.942
54722SOL     OW65997   7.074  13.936  13.623
54722SOL    HW165998   7.122  13.936  13.706
54722SOL    HW265999   6.983  13.920  13.648
54723SOL     OW66000   8.295  10.724   7.661
54723SOL    HW166001   8.303  10.695   7.752
54723SOL    HW266002   8.218  10.780   7.661
54724SOL     OW66003  10.097   5.479   1.170
54724SOL    HW166004  10.091   5.475   1.265
54724SOL    HW266005  10.183   5.443   1.149
54725SOL     OW66006   7.116   9.318   5.850
54725SOL    HW166007   7.120   9.226   5.877
54725SOL    HW266008   7.105   9.316   5.755
54726SOL     OW66009   7.573   2.931   8.603
54726SOL    HW166010   7.528   2.847   8.592
54726SOL    HW266011   7.504   2.993   8.622
54727SOL     OW66012   9.330  12.989  12.461
54727SOL    HW166013   9.321  12.916  12.400
54727SOL    HW266014   9.347  13.065  12.405
54728SOL     OW66015   3.992   4.228  13.594
54728SOL    HW166016   4.059   4.228  13.662
54728SOL    HW266017   4.030   4.180  13.521
54729SOL     OW66018  10.751   5.743   7.655
54729SOL    HW166019  10.689   5.786   7.596
54729SOL    HW266020  10.789   5.815   7.705
54730SOL     OW66021  12.928  13.060  14.361
54730SOL    HW166022  12.872  12.987  14.387
54730SOL    HW266023  12.983  13.025  14.291
54731SOL     OW66024   2.034  10.726  12.063
54731SOL    HW166025   2.098  10.774  12.011
54731SOL    HW266026   2.067  10.732  12.153
54732SOL     OW66027   1.846   2.902   1.271
54732SOL    HW166028   1.931   2.901   1.315
54732SOL    HW266029   1.816   2.812   1.273
54733SOL     OW66030   1.178  11.253  12.462
54733SOL    HW166031   1.271  11.261  12.439
54733SOL    HW266032   1.163  11.159  12.468
54734SOL     OW66033  10.177   8.455   7.567
54734SOL    HW166034  10.151   8.456   7.475
54734SOL    HW266035  10.233   8.532   7.577
54735SOL     OW66036   8.572   1.227  11.150
54735SOL    HW166037   8.573   1.203  11.057
54735SOL    HW266038   8.658   1.199  11.183
54736SOL     OW66039   3.853  13.823  12.504
54736SOL    HW166040   3.830  13.747  12.450
54736SOL    HW266041   3.938  13.852  12.470
54737SOL     OW66042   7.615   2.635   2.341
54737SOL    HW166043   7.648   2.693   2.273
54737SOL    HW266044   7.677   2.645   2.414
54738SOL     OW66045   3.091   9.190   8.802
54738SOL    HW166046   3.034   9.246   8.749
54738SOL    HW266047   3.060   9.101   8.787
54739SOL     OW66048  11.606  11.132  10.589
54739SOL    HW166049  11.594  11.227  10.590
54739SOL    HW266050  11.558  11.103  10.511
54740SOL     OW66051   7.547  11.591  12.962
54740SOL    HW166052   7.544  11.685  12.948
54740SOL    HW266053   7.489  11.555  12.894
54741SOL     OW66054  13.632   3.911   3.403
54741SOL    HW166055  13.625   3.856   3.325
54741SOL    HW266056  13.541   3.926   3.430
54742SOL     OW66057   0.160  10.768   9.785
54742SOL    HW166058   0.096  10.709   9.746
54742SOL    HW266059   0.217  10.794   9.712
54743SOL     OW66060  11.175   7.241  14.069
54743SOL    HW166061  11.240   7.191  14.020
54743SOL    HW266062  11.092   7.224  14.023
54744SOL     OW66063   1.967  12.105  11.947
54744SOL    HW166064   1.931  12.091  11.859
54744SOL    HW266065   1.890  12.125  12.001
54745SOL     OW66066  14.213   4.570   9.908
54745SOL    HW166067  14.263   4.636   9.859
54745SOL    HW266068  14.169   4.620   9.977
54746SOL     OW66069  13.604  14.231   8.126
54746SOL    HW166070  13.635  14.141   8.113
54746SOL    HW266071  13.658  14.265   8.198
54747SOL     OW66072   9.339   8.759   5.939
54747SOL    HW166073   9.320   8.667   5.961
54747SOL    HW266074   9.357   8.800   6.023
54748SOL     OW66075  14.015   0.469   3.388
54748SOL    HW166076  14.077   0.401   3.416
54748SOL    HW266077  14.071   0.541   3.359
54749SOL     OW66078  11.729  12.864  14.338
54749SOL    HW166079  11.786  12.923  14.389
54749SOL    HW266080  11.692  12.920  14.270
54750SOL     OW66081   1.567   6.416   7.172
54750SOL    HW166082   1.658   6.445   7.168
54750SOL    HW266083   1.520   6.490   7.210
54751SOL     OW66084   8.167   5.328   5.178
54751SOL    HW166085   8.124   5.387   5.117
54751SOL    HW266086   8.203   5.258   5.123
54752SOL     OW66087   1.197   0.638   1.887
54752SOL    HW166088   1.128   0.598   1.941
54752SOL    HW266089   1.151   0.663   1.806
54753SOL     OW66090   6.236   0.690   7.252
54753SOL    HW166091   6.292   0.726   7.184
54753SOL    HW266092   6.152   0.673   7.209
54754SOL     OW66093   4.384   8.206  10.233
54754SOL    HW166094   4.361   8.229  10.323
54754SOL    HW266095   4.347   8.276  10.180
54755SOL     OW66096   9.246   3.115   3.583
54755SOL    HW166097   9.308   3.160   3.640
54755SOL    HW266098   9.160   3.144   3.614
54756SOL     OW66099   9.492   5.579   3.339
54756SOL    HW166100   9.469   5.603   3.249
54756SOL    HW266101   9.531   5.658   3.375
54757SOL     OW66102   9.074   2.495  13.630
54757SOL    HW166103   9.055   2.585  13.658
54757SOL    HW266104   9.169   2.488  13.637
54758SOL     OW66105  10.454  12.087   5.482
54758SOL    HW166106  10.466  12.179   5.456
54758SOL    HW266107  10.540  12.061   5.516
54759SOL     OW66108  11.858   2.924   8.592
54759SOL    HW166109  11.850   2.874   8.510
54759SOL    HW266110  11.900   3.006   8.566
54760SOL     OW66111   0.005   6.057   4.185
54760SOL    HW166112   0.035   6.014   4.105
54760SOL    HW266113  14.804   6.108   4.157
54761SOL     OW66114  11.425  13.527   3.227
54761SOL    HW166115  11.330  13.528   3.229
54761SOL    HW266116  11.450  13.619   3.231
54762SOL     OW66117   3.483   7.564   8.534
54762SOL    HW166118   3.443   7.497   8.479
54762SOL    HW266119   3.425   7.640   8.525
54763SOL     OW66120   2.849  11.688   5.291
54763SOL    HW166121   2.801  11.765   5.259
54763SOL    HW266122   2.798  11.614   5.258
54764SOL     OW66123  13.914   6.555  14.604
54764SOL    HW166124  13.977   6.625  14.586
54764SOL    HW266125  13.962   6.493  14.660
54765SOL     OW66126   9.295  14.254   1.446
54765SOL    HW166127   9.284  14.305   1.527
54765SOL    HW266128   9.380  14.212   1.456
54766SOL     OW66129   1.995   6.249   0.838
54766SOL    HW166130   1.922   6.302   0.806
54766SOL    HW266131   2.052   6.311   0.884
54767SOL     OW66132  14.346   1.591   6.603
54767SOL    HW166133  14.379   1.502   6.615
54767SOL    HW266134  14.401   1.645   6.660
54768SOL     OW66135  14.468   5.604  14.052
54768SOL    HW166136  14.519   5.665  14.105
54768SOL    HW266137  14.447   5.653  13.973
54769SOL     OW66138   2.969   8.017  12.690
54769SOL    HW166139   2.989   7.937  12.640
54769SOL    HW266140   2.901   8.061  12.638
54770SOL     OW66141   1.552   4.761  13.685
54770SOL    HW166142   1.526   4.850  13.708
54770SOL    HW266143   1.543   4.758  13.589
54771SOL     OW66144  12.507  12.098  14.535
54771SOL    HW166145  12.556  12.124  14.613
54771SOL    HW266146  12.453  12.175  14.514
54772SOL     OW66147   4.869  12.015  11.369
54772SOL    HW166148   4.866  11.956  11.443
54772SOL    HW266149   4.955  12.057  11.375
54773SOL     OW66150  13.872  11.140   7.275
54773SOL    HW166151  13.947  11.189   7.242
54773SOL    HW266152  13.812  11.137   7.200
54774SOL     OW66153   5.919   2.788  10.680
54774SOL    HW166154   5.828   2.814  10.670
54774SOL    HW266155   5.938   2.736  10.602
54775SOL     OW66156   8.757  11.673  11.460
54775SOL    HW166157   8.808  11.739  11.414
54775SOL    HW266158   8.728  11.612  11.392
54776SOL     OW66159   4.891  12.026   0.162
54776SOL    HW166160   4.981  12.031   0.195
54776SOL    HW266161   4.845  12.095   0.209
54777SOL     OW66162  10.906   2.482   4.692
54777SOL    HW166163  10.965   2.537   4.639
54777SOL    HW266164  10.878   2.413   4.633
54778SOL     OW66165   9.089  10.050  12.526
54778SOL    HW166166   9.020  10.003  12.480
54778SOL    HW266167   9.049  10.134  12.549
54779SOL     OW66168  12.032  14.005  13.218
54779SOL    HW166169  12.045  13.912  13.238
54779SOL    HW266170  11.939  14.013  13.200
54780SOL     OW66171   9.127   1.814  11.252
54780SOL    HW166172   9.083   1.869  11.189
54780SOL    HW266173   9.101   1.849  11.337
54781SOL     OW66174   2.990   5.362  11.635
54781SOL    HW166175   3.006   5.298  11.566
54781SOL    HW266176   3.035   5.441  11.605
54782SOL     OW66177   0.061  13.629   0.996
54782SOL    HW166178  14.845  13.634   0.969
54782SOL    HW266179   0.065  13.550   1.051
54783SOL     OW66180   3.814   1.573   5.132
54783SOL    HW166181   3.846   1.619   5.054
54783SOL    HW266182   3.841   1.482   5.119
54784SOL     OW66183   8.684   8.050  12.813
54784SOL    HW166184   8.670   8.035  12.907
54784SOL    HW266185   8.765   8.100  12.808
54785SOL     OW66186   8.583  12.715   5.584
54785SOL    HW166187   8.527  12.791   5.564
54785SOL    HW266188   8.579  12.661   5.505
54786SOL     OW66189  12.229  12.170   0.734
54786SOL    HW166190  12.307  12.210   0.773
54786SOL    HW266191  12.212  12.222   0.656
54787SOL     OW66192   7.134   3.094   3.030
54787SOL    HW166193   7.148   3.005   2.999
54787SOL    HW266194   7.222   3.131   3.038
54788SOL     OW66195   8.964   1.557   5.931
54788SOL    HW166196   8.948   1.463   5.920
54788SOL    HW266197   8.877   1.596   5.937
54789SOL     OW66198  11.423   4.862   7.969
54789SOL    HW166199  11.467   4.946   7.957
54789SOL    HW266200  11.357   4.878   8.036
54790SOL     OW66201   8.113  13.898   4.931
54790SOL    HW166202   8.154  13.982   4.911
54790SOL    HW266203   8.141  13.840   4.859
54791SOL     OW66204   2.420   5.554   9.052
54791SOL    HW166205   2.408   5.562   8.957
54791SOL    HW266206   2.397   5.463   9.071
54792SOL     OW66207   1.108   7.542  12.279
54792SOL    HW166208   1.152   7.516  12.360
54792SOL    HW266209   1.134   7.633  12.266
54793SOL     OW66210  14.303   5.214  10.067
54793SOL    HW166211  14.209   5.193  10.071
54793SOL    HW266212  14.306   5.305  10.037
54794SOL     OW66213  12.989  12.006   8.286
54794SOL    HW166214  13.060  12.002   8.349
54794SOL    HW266215  12.965  11.915   8.270
54795SOL     OW66216   9.487   6.523  13.362
54795SOL    HW166217   9.426   6.477  13.419
54795SOL    HW266218   9.433   6.554  13.290
54796SOL     OW66219   5.660   1.601  11.666
54796SOL    HW166220   5.678   1.694  11.657
54796SOL    HW266221   5.696   1.578  11.752
54797SOL     OW66222   3.550   5.394   9.985
54797SOL    HW166223   3.566   5.375  10.077
54797SOL    HW266224   3.612   5.338   9.938
54798SOL     OW66225  11.991   6.506  12.927
54798SOL    HW166226  12.084   6.497  12.904
54798SOL    HW266227  11.962   6.417  12.946
54799SOL     OW66228  14.207  11.163   2.940
54799SOL    HW166229  14.156  11.097   2.894
54799SOL    HW266230  14.157  11.244   2.929
54800SOL     OW66231   3.016  10.884   8.247
54800SOL    HW166232   2.935  10.883   8.298
54800SOL    HW266233   3.020  10.797   8.208
54801SOL     OW66234   2.951  10.434   7.969
54801SOL    HW166235   2.859  10.427   7.943
54801SOL    HW266236   2.970  10.350   8.010
54802SOL     OW66237   1.264  10.861  10.381
54802SOL    HW166238   1.270  10.846  10.286
54802SOL    HW266239   1.256  10.774  10.419
54803SOL     OW66240  12.599   0.963   4.824
54803SOL    HW166241  12.616   1.015   4.746
54803SOL    HW266242  12.524   1.005   4.866
54804SOL     OW66243   6.184  10.526  12.236
54804SOL    HW166244   6.210  10.550  12.325
54804SOL    HW266245   6.093  10.497  12.245
54805SOL     OW66246   6.773   3.375   3.090
54805SOL    HW166247   6.681   3.391   3.069
54805SOL    HW266248   6.801   3.452   3.140
54806SOL     OW66249  11.425   0.442   4.846
54806SOL    HW166250  11.462   0.523   4.812
54806SOL    HW266251  11.444   0.444   4.939
54807SOL     OW66252   3.311   5.273   5.522
54807SOL    HW166253   3.396   5.315   5.509
54807SOL    HW266254   3.331   5.179   5.528
54808SOL     OW66255  13.340   5.678   3.330
54808SOL    HW166256  13.268   5.651   3.273
54808SOL    HW266257  13.340   5.614   3.402
54809SOL     OW66258  12.486  11.255   6.372
54809SOL    HW166259  12.455  11.343   6.352
54809SOL    HW266260  12.569  11.248   6.324
54810SOL     OW66261   3.996  13.542   4.342
54810SOL    HW166262   4.084  13.511   4.317
54810SOL    HW266263   4.012  13.614   4.402
54811SOL     OW66264  10.821  13.905   3.766
54811SOL    HW166265  10.787  13.835   3.822
54811SOL    HW266266  10.760  13.908   3.692
54812SOL     OW66267  12.960   4.769  14.028
54812SOL    HW166268  12.947   4.695  13.970
54812SOL    HW266269  12.960   4.731  14.116
54813SOL     OW66270   7.009   7.521   9.930
54813SOL    HW166271   7.017   7.610   9.965
54813SOL    HW266272   7.054   7.466   9.994
54814SOL     OW66273   9.668  13.012   2.879
54814SOL    HW166274   9.580  12.988   2.906
54814SOL    HW266275   9.721  12.935   2.899
54815SOL     OW66276   7.679   8.081   1.007
54815SOL    HW166277   7.612   8.132   1.054
54815SOL    HW266278   7.689   8.002   1.060
54816SOL     OW66279   3.881   5.969   3.189
54816SOL    HW166280   3.852   5.939   3.103
54816SOL    HW266281   3.813   6.031   3.217
54817SOL     OW66282   8.857   5.073   3.229
54817SOL    HW166283   8.855   5.050   3.136
54817SOL    HW266284   8.825   5.163   3.233
54818SOL     OW66285   9.818   0.677   4.673
54818SOL    HW166286   9.731   0.711   4.692
54818SOL    HW266287   9.855   0.658   4.759
54819SOL     OW66288  13.996   1.729   4.495
54819SOL    HW166289  14.006   1.792   4.566
54819SOL    HW266290  13.958   1.780   4.423
54820SOL     OW66291   6.204   4.057   1.416
54820SOL    HW166292   6.274   4.016   1.366
54820SOL    HW266293   6.184   4.138   1.368
54821SOL     OW66294   5.312  14.129   4.351
54821SOL    HW166295   5.345  14.063   4.290
54821SOL    HW266296   5.369  14.204   4.339
54822SOL     OW66297  12.215  12.668  13.829
54822SOL    HW166298  12.160  12.640  13.902
54822SOL    HW266299  12.280  12.725  13.869
54823SOL     OW66300   9.101  10.313   0.627
54823SOL    HW166301   9.052  10.348   0.701
54823SOL    HW266302   9.190  10.300   0.661
54824SOL     OW66303   2.994  12.425   1.117
54824SOL    HW166304   2.900  12.420   1.097
54824SOL    HW266305   2.997  12.463   1.205
54825SOL     OW66306   6.029   6.767   1.467
54825SOL    HW166307   6.051   6.776   1.374
54825SOL    HW266308   6.113   6.765   1.512
54826SOL     OW66309   1.415   6.059  14.585
54826SOL    HW166310   1.356   5.983  14.583
54826SOL    HW266311   1.457   6.059  14.499
54827SOL     OW66312   4.265   6.173   5.519
54827SOL    HW166313   4.215   6.144   5.595
54827SOL    HW266314   4.311   6.252   5.550
54828SOL     OW66315  12.248   2.747  12.352
54828SOL    HW166316  12.252   2.718  12.260
54828SOL    HW266317  12.242   2.842  12.347
54829SOL     OW66318   9.046   8.835   1.665
54829SOL    HW166319   9.035   8.925   1.697
54829SOL    HW266320   9.134   8.811   1.692
54830SOL     OW66321   0.131   1.357  13.143
54830SOL    HW166322   0.190   1.419  13.102
54830SOL    HW266323   0.108   1.397  13.227
54831SOL     OW66324  10.068   5.123   3.484
54831SOL    HW166325  10.086   5.092   3.573
54831SOL    HW266326  10.147   5.170   3.459
54832SOL     OW66327  14.635  10.645  13.672
54832SOL    HW166328  14.541  10.659  13.683
54832SOL    HW266329  14.655  10.569  13.727
54833SOL     OW66330   4.171   2.034   4.265
54833SOL    HW166331   4.203   1.948   4.239
54833SOL    HW266332   4.088   2.045   4.218
54834SOL     OW66333   8.287  11.241  11.736
54834SOL    HW166334   8.322  11.179  11.800
54834SOL    HW266335   8.312  11.204  11.651
54835SOL     OW66336   9.997   7.883  14.092
54835SOL    HW166337  10.074   7.921  14.049
54835SOL    HW266338   9.970   7.812  14.034
54836SOL     OW66339  12.213   0.190   6.211
54836SOL    HW166340  12.253   0.103   6.219
54836SOL    HW266341  12.283   0.250   6.236
54837SOL     OW66342  10.850   8.215   6.608
54837SOL    HW166343  10.853   8.307   6.580
54837SOL    HW266344  10.822   8.167   6.530
54838SOL     OW66345   3.201  12.418   4.100
54838SOL    HW166346   3.161  12.349   4.153
54838SOL    HW266347   3.193  12.497   4.153
54839SOL     OW66348  14.215  10.491  12.054
54839SOL    HW166349  14.249  10.409  12.088
54839SOL    HW266350  14.275  10.515  11.984
54840SOL     OW66351  13.557   9.809  13.019
54840SOL    HW166352  13.589   9.886  13.065
54840SOL    HW266353  13.547   9.742  13.088
54841SOL     OW66354   9.488   9.858  11.218
54841SOL    HW166355   9.568   9.909  11.210
54841SOL    HW266356   9.485   9.806  11.138
54842SOL     OW66357  13.741   7.170  14.245
54842SOL    HW166358  13.707   7.082  14.231
54842SOL    HW266359  13.679   7.227  14.201
54843SOL     OW66360   7.527  12.686   3.235
54843SOL    HW166361   7.433  12.674   3.244
54843SOL    HW266362   7.561  12.677   3.325
54844SOL     OW66363   5.696   7.964  13.967
54844SOL    HW166364   5.764   7.987  13.904
54844SOL    HW266365   5.741   7.959  14.051
54845SOL     OW66366   0.638   6.851  13.651
54845SOL    HW166367   0.728   6.869  13.680
54845SOL    HW266368   0.647   6.827  13.559
54846SOL     OW66369  14.104   6.216   7.989
54846SOL    HW166370  14.176   6.207   7.926
54846SOL    HW266371  14.026   6.200   7.937
54847SOL     OW66372  11.351  11.282  13.118
54847SOL    HW166373  11.302  11.279  13.200
54847SOL    HW266374  11.301  11.341  13.062
54848SOL     OW66375  11.304   3.313   4.091
54848SOL    HW166376  11.377   3.257   4.117
54848SOL    HW266377  11.233   3.252   4.070
54849SOL     OW66378   2.975   6.435   5.190
54849SOL    HW166379   2.894   6.386   5.174
54849SOL    HW266380   3.001   6.468   5.104
54850SOL     OW66381   9.568   5.730   0.626
54850SOL    HW166382   9.601   5.646   0.657
54850SOL    HW266383   9.482   5.711   0.590
54851SOL     OW66384   6.300  10.650  13.625
54851SOL    HW166385   6.230  10.710  13.649
54851SOL    HW266386   6.255  10.577  13.583
54852SOL     OW66387  13.383   6.482  11.882
54852SOL    HW166388  13.436   6.522  11.951
54852SOL    HW266389  13.293   6.504  11.904
54853SOL     OW66390  13.304   2.715  10.243
54853SOL    HW166391  13.323   2.700  10.151
54853SOL    HW266392  13.371   2.665  10.290
54854SOL     OW66393  12.819   2.771  12.602
54854SOL    HW166394  12.773   2.844  12.561
54854SOL    HW266395  12.790   2.694  12.553
54855SOL     OW66396  10.799   6.946   1.844
54855SOL    HW166397  10.864   6.949   1.774
54855SOL    HW266398  10.715   6.955   1.798
54856SOL     OW66399   0.212   7.930   5.298
54856SOL    HW166400   0.265   7.866   5.345
54856SOL    HW266401   0.275   7.979   5.244
54857SOL     OW66402   6.274   5.553  14.798
54857SOL    HW166403   6.255   5.609  14.873
54857SOL    HW266404   6.247   5.605  14.722
54858SOL     OW66405  13.013   6.895   0.181
54858SOL    HW166406  12.918   6.881   0.177
54858SOL    HW266407  13.042   6.842   0.255
54859SOL     OW66408   7.713   1.746  13.216
54859SOL    HW166409   7.652   1.789  13.155
54859SOL    HW266410   7.724   1.809  13.287
54860SOL     OW66411   9.513  14.361   0.475
54860SOL    HW166412   9.528  14.375   0.569
54860SOL    HW266413   9.593  14.392   0.433
54861SOL     OW66414  11.314  11.836   1.379
54861SOL    HW166415  11.361  11.888   1.314
54861SOL    HW266416  11.380  11.815   1.445
54862SOL     OW66417   3.243   9.303   9.568
54862SOL    HW166418   3.336   9.292   9.546
54862SOL    HW266419   3.243   9.324   9.661
54863SOL     OW66420   0.685   7.807   5.343
54863SOL    HW166421   0.743   7.805   5.419
54863SOL    HW266422   0.741   7.837   5.271
54864SOL     OW66423  14.274  12.490   1.096
54864SOL    HW166424  14.350  12.498   1.038
54864SOL    HW266425  14.233  12.407   1.069
54865SOL     OW66426   2.450   3.313   9.187
54865SOL    HW166427   2.517   3.269   9.238
54865SOL    HW266428   2.494   3.339   9.106
54866SOL     OW66429   9.411   5.455   7.992
54866SOL    HW166430   9.354   5.382   7.970
54866SOL    HW266431   9.353   5.520   8.031
54867SOL     OW66432   0.376   8.272   6.399
54867SOL    HW166433   0.427   8.314   6.468
54867SOL    HW266434   0.349   8.188   6.436
54868SOL     OW66435  12.035   4.982   0.173
54868SOL    HW166436  11.961   5.009   0.227
54868SOL    HW266437  12.077   5.064   0.146
54869SOL     OW66438  11.085   6.028   8.342
54869SOL    HW166439  11.149   5.959   8.327
54869SOL    HW266440  11.037   6.035   8.259
54870SOL     OW66441   9.329   6.470   5.893
54870SOL    HW166442   9.323   6.392   5.838
54870SOL    HW266443   9.298   6.542   5.837
54871SOL     OW66444   3.624   4.762   7.287
54871SOL    HW166445   3.659   4.838   7.333
54871SOL    HW266446   3.700   4.723   7.244
54872SOL     OW66447   1.679   2.971  11.663
54872SOL    HW166448   1.646   3.033  11.597
54872SOL    HW266449   1.736   2.912  11.613
54873SOL     OW66450  13.885   2.892   3.773
54873SOL    HW166451  13.854   2.951   3.842
54873SOL    HW266452  13.941   2.948   3.717
54874SOL     OW66453   7.353   7.978   8.264
54874SOL    HW166454   7.410   7.913   8.223
54874SOL    HW266455   7.310   8.022   8.190
54875SOL     OW66456   7.908  13.959   1.401
54875SOL    HW166457   7.987  14.003   1.368
54875SOL    HW266458   7.919  13.960   1.496
54876SOL     OW66459   5.968   4.856   9.971
54876SOL    HW166460   5.949   4.861  10.064
54876SOL    HW266461   6.064   4.856   9.966
54877SOL     OW66462   1.286  13.276   0.108
54877SOL    HW166463   1.204  13.318   0.082
54877SOL    HW266464   1.271  13.183   0.092
54878SOL     OW66465  14.411   4.630  13.887
54878SOL    HW166466  14.351   4.687  13.936
54878SOL    HW266467  14.358   4.553  13.865
54879SOL     OW66468   3.332  11.466   7.665
54879SOL    HW166469   3.335  11.375   7.694
54879SOL    HW266470   3.322  11.462   7.570
54880SOL     OW66471   3.211   5.734   1.201
54880SOL    HW166472   3.144   5.746   1.134
54880SOL    HW266473   3.186   5.654   1.246
54881SOL     OW66474   1.367  11.905   8.285
54881SOL    HW166475   1.390  11.976   8.344
54881SOL    HW266476   1.390  11.825   8.333
54882SOL     OW66477  14.353   9.362   5.576
54882SOL    HW166478  14.357   9.311   5.495
54882SOL    HW266479  14.435   9.410   5.578
54883SOL     OW66480  11.866   8.755   2.686
54883SOL    HW166481  11.947   8.710   2.710
54883SOL    HW266482  11.895   8.836   2.645
54884SOL     OW66483   3.002  11.486   4.527
54884SOL    HW166484   2.932  11.440   4.481
54884SOL    HW266485   3.017  11.435   4.607
54885SOL     OW66486  14.118   9.309   2.769
54885SOL    HW166487  14.064   9.332   2.693
54885SOL    HW266488  14.057   9.311   2.843
54886SOL     OW66489  14.016   2.450  11.159
54886SOL    HW166490  14.095   2.422  11.112
54886SOL    HW266491  14.014   2.393  11.236
54887SOL     OW66492  13.791   5.032  10.945
54887SOL    HW166493  13.769   4.957  11.000
54887SOL    HW266494  13.877   5.010  10.909
54888SOL     OW66495   0.929  12.076   1.152
54888SOL    HW166496   0.915  12.023   1.231
54888SOL    HW266497   0.844  12.114   1.133
54889SOL     OW66498  10.220  14.228   3.536
54889SOL    HW166499  10.191  14.145   3.574
54889SOL    HW266500  10.312  14.236   3.562
54890SOL     OW66501   0.670  12.930  12.113
54890SOL    HW166502   0.726  12.999  12.077
54890SOL    HW266503   0.702  12.918  12.203
54891SOL     OW66504  11.105  11.589   2.932
54891SOL    HW166505  11.073  11.616   3.018
54891SOL    HW266506  11.035  11.616   2.871
54892SOL     OW66507  11.390  12.534   0.912
54892SOL    HW166508  11.342  12.484   0.978
54892SOL    HW266509  11.441  12.468   0.865
54893SOL     OW66510   3.481  13.633   8.683
54893SOL    HW166511   3.555  13.677   8.724
54893SOL    HW266512   3.436  13.588   8.755
54894SOL     OW66513   2.030   7.772   7.424
54894SOL    HW166514   2.109   7.729   7.390
54894SOL    HW266515   2.005   7.834   7.356
54895SOL     OW66516   3.041   5.070  13.108
54895SOL    HW166517   3.026   5.125  13.185
54895SOL    HW266518   3.086   5.127  13.046
54896SOL     OW66519   6.082   2.524   1.984
54896SOL    HW166520   6.034   2.467   1.924
54896SOL    HW266521   6.033   2.606   1.984
54897SOL     OW66522   4.495   6.489   9.038
54897SOL    HW166523   4.538   6.404   9.042
54897SOL    HW266524   4.497   6.513   8.946
54898SOL     OW66525   6.621   5.145   9.587
54898SOL    HW166526   6.624   5.050   9.593
54898SOL    HW266527   6.700   5.174   9.633
54899SOL     OW66528   9.616  10.549  12.511
54899SOL    HW166529   9.595  10.511  12.425
54899SOL    HW266530   9.608  10.643  12.498
54900SOL     OW66531  11.834  13.013   4.387
54900SOL    HW166532  11.860  13.011   4.295
54900SOL    HW266533  11.817  12.921   4.408
54901SOL     OW66534   8.188  11.040  10.719
54901SOL    HW166535   8.095  11.031  10.739
54901SOL    HW266536   8.234  11.006  10.796
54902SOL     OW66537   1.297  12.640   7.525
54902SOL    HW166538   1.373  12.586   7.549
54902SOL    HW266539   1.239  12.633   7.601
54903SOL     OW66540   9.270   0.084  14.106
54903SOL    HW166541   9.310   0.134  14.177
54903SOL    HW266542   9.310  14.873  14.112
54904SOL     OW66543  12.057  13.374   8.673
54904SOL    HW166544  12.107  13.423   8.608
54904SOL    HW266545  12.012  13.305   8.623
54905SOL     OW66546  14.436   0.602   5.761
54905SOL    HW166547  14.520   0.561   5.782
54905SOL    HW266548  14.428   0.592   5.666
54906SOL     OW66549  11.121   6.262   0.952
54906SOL    HW166550  11.079   6.327   1.008
54906SOL    HW266551  11.049   6.219   0.906
54907SOL     OW66552   1.247  13.242  13.330
54907SOL    HW166553   1.285  13.165  13.288
54907SOL    HW266554   1.177  13.270  13.271
54908SOL     OW66555  12.850  10.958   3.441
54908SOL    HW166556  12.889  10.978   3.525
54908SOL    HW266557  12.781  10.894   3.461
54909SOL     OW66558  14.641   7.520   6.546
54909SOL    HW166559  14.623   7.517   6.452
54909SOL    HW266560  14.707   7.589   6.556
54910SOL     OW66561  10.635   9.973  13.408
54910SOL    HW166562  10.658   9.917  13.334
54910SOL    HW266563  10.698  10.045  13.404
54911SOL     OW66564  12.692   4.423  11.561
54911SOL    HW166565  12.697   4.332  11.530
54911SOL    HW266566  12.652   4.471  11.488
54912SOL     OW66567  14.109   8.632  14.054
54912SOL    HW166568  14.059   8.708  14.027
54912SOL    HW266569  14.051   8.558  14.036
54913SOL     OW66570   2.084   9.998   6.334
54913SOL    HW166571   2.012   9.951   6.292
54913SOL    HW266572   2.045  10.038   6.412
54914SOL     OW66573   5.811   8.293   2.827
54914SOL    HW166574   5.737   8.328   2.876
54914SOL    HW266575   5.855   8.234   2.889
54915SOL     OW66576   7.560   4.626  13.883
54915SOL    HW166577   7.470   4.593  13.875
54915SOL    HW266578   7.563   4.701  13.823
54916SOL     OW66579  13.842  13.003  13.639
54916SOL    HW166580  13.909  12.942  13.669
54916SOL    HW266581  13.762  12.975  13.682
54917SOL     OW66582  13.644   9.562  13.836
54917SOL    HW166583  13.549   9.571  13.843
54917SOL    HW266584  13.676   9.652  13.825
54918SOL     OW66585   8.358   6.475  13.499
54918SOL    HW166586   8.445   6.507  13.524
54918SOL    HW266587   8.316   6.452  13.582
54919SOL     OW66588   5.548   2.314  14.013
54919SOL    HW166589   5.497   2.233  14.016
54919SOL    HW266590   5.490   2.381  14.049
54920SOL     OW66591   3.220  10.006   7.354
54920SOL    HW166592   3.292  10.005   7.291
54920SOL    HW266593   3.254   9.958   7.430
54921SOL     OW66594   1.938   3.155   5.631
54921SOL    HW166595   1.916   3.064   5.652
54921SOL    HW266596   1.955   3.196   5.716
54922SOL     OW66597  12.940   0.930  13.333
54922SOL    HW166598  12.923   1.022  13.313
54922SOL    HW266599  13.016   0.908  13.279
54923SOL     OW66600  11.306   4.540   5.083
54923SOL    HW166601  11.289   4.633   5.065
54923SOL    HW266602  11.266   4.495   5.008
54924SOL     OW66603   0.843   4.544   2.034
54924SOL    HW166604   0.874   4.483   1.967
54924SOL    HW266605   0.923   4.584   2.070
54925SOL     OW66606   1.047   3.916  12.052
54925SOL    HW166607   0.958   3.944  12.032
54925SOL    HW266608   1.100   3.954  11.982
54926SOL     OW66609   6.906   7.689  10.353
54926SOL    HW166610   6.869   7.602  10.370
54926SOL    HW266611   6.963   7.705  10.429
54927SOL     OW66612   0.772   7.210   3.012
54927SOL    HW166613   0.806   7.244   3.095
54927SOL    HW266614   0.743   7.121   3.033
54928SOL     OW66615  13.284   3.460   5.842
54928SOL    HW166616  13.298   3.477   5.935
54928SOL    HW266617  13.320   3.372   5.828
54929SOL     OW66618   1.405  11.813  10.787
54929SOL    HW166619   1.356  11.822  10.706
54929SOL    HW266620   1.497  11.812  10.759
54930SOL     OW66621   7.550   6.187  11.307
54930SOL    HW166622   7.574   6.278  11.294
54930SOL    HW266623   7.620   6.137  11.265
54931SOL     OW66624  10.477   2.948   9.116
54931SOL    HW166625  10.497   2.855   9.123
54931SOL    HW266626  10.427   2.968   9.195
54932SOL     OW66627   3.200   0.355   9.660
54932SOL    HW166628   3.175   0.298   9.588
54932SOL    HW266629   3.293   0.337   9.673
54933SOL     OW66630   8.583   0.996   4.243
54933SOL    HW166631   8.640   1.072   4.232
54933SOL    HW266632   8.497   1.026   4.216
54934SOL     OW66633  12.087  11.718   5.595
54934SOL    HW166634  12.163  11.660   5.597
54934SOL    HW266635  12.080  11.753   5.684
54935SOL     OW66636   8.446   8.461   3.134
54935SOL    HW166637   8.437   8.454   3.039
54935SOL    HW266638   8.460   8.554   3.150
54936SOL     OW66639   6.282   1.304  12.654
54936SOL    HW166640   6.273   1.392  12.618
54936SOL    HW266641   6.315   1.251  12.582
54937SOL     OW66642   6.216   3.099   5.472
54937SOL    HW166643   6.154   3.169   5.492
54937SOL    HW266644   6.299   3.144   5.460
54938SOL     OW66645  11.306  14.000  11.116
54938SOL    HW166646  11.330  14.072  11.175
54938SOL    HW266647  11.364  13.928  11.141
54939SOL     OW66648   7.468  11.500   2.174
54939SOL    HW166649   7.476  11.538   2.087
54939SOL    HW266650   7.485  11.573   2.234
54940SOL     OW66651   4.048  12.766  11.178
54940SOL    HW166652   4.094  12.688  11.146
54940SOL    HW266653   4.034  12.750  11.271
54941SOL     OW66654   0.238   5.383   3.724
54941SOL    HW166655   0.298   5.310   3.735
54941SOL    HW266656   0.160   5.357   3.774
54942SOL     OW66657   4.860   8.278  11.174
54942SOL    HW166658   4.885   8.330  11.250
54942SOL    HW266659   4.795   8.333  11.128
54943SOL     OW66660   6.620  12.369   8.420
54943SOL    HW166661   6.654  12.408   8.339
54943SOL    HW266662   6.567  12.295   8.391
54944SOL     OW66663   5.090  12.550   8.244
54944SOL    HW166664   5.168  12.508   8.280
54944SOL    HW266665   5.044  12.481   8.197
54945SOL     OW66666   5.740   4.156   3.819
54945SOL    HW166667   5.781   4.070   3.807
54945SOL    HW266668   5.765   4.205   3.741
54946SOL     OW66669   2.081   3.869   6.819
54946SOL    HW166670   2.094   3.784   6.776
54946SOL    HW266671   1.987   3.873   6.834
54947SOL     OW66672  12.373   0.046   3.339
54947SOL    HW166673  12.302   0.039   3.402
54947SOL    HW266674  12.407  14.833   3.330
54948SOL     OW66675   3.454  10.579   8.492
54948SOL    HW166676   3.425  10.489   8.477
54948SOL    HW266677   3.498  10.604   8.411
54949SOL     OW66678   4.476   2.918   0.126
54949SOL    HW166679   4.566   2.895   0.151
54949SOL    HW266680   4.435   2.946   0.207
54950SOL     OW66681   1.226   4.104  14.530
54950SOL    HW166682   1.180   4.060  14.459
54950SOL    HW266683   1.281   4.036  14.569
54951SOL     OW66684  14.149   4.323  10.626
54951SOL    HW166685  14.090   4.349  10.697
54951SOL    HW266686  14.204   4.400  10.611
54952SOL     OW66687   7.401  13.057  12.431
54952SOL    HW166688   7.356  12.975  12.451
54952SOL    HW266689   7.478  13.029  12.381
54953SOL     OW66690   3.292  12.130   1.581
54953SOL    HW166691   3.348  12.054   1.596
54953SOL    HW266692   3.219  12.119   1.641
54954SOL     OW66693   0.888  13.722   4.159
54954SOL    HW166694   0.903  13.628   4.172
54954SOL    HW266695   0.962  13.750   4.105
54955SOL     OW66696  14.783  13.304   0.495
54955SOL    HW166697  14.848  13.310   0.565
54955SOL    HW266698  14.711  13.360   0.525
54956SOL     OW66699  14.085   2.713   4.099
54956SOL    HW166700  14.028   2.733   4.172
54956SOL    HW266701  14.037   2.648   4.047
54957SOL     OW66702   5.673   7.840  11.731
54957SOL    HW166703   5.578   7.856  11.730
54957SOL    HW266704   5.685   7.767  11.670
54958SOL     OW66705   5.107  13.249   5.618
54958SOL    HW166706   5.185  13.245   5.674
54958SOL    HW266707   5.076  13.340   5.628
54959SOL     OW66708  13.035   9.866   1.386
54959SOL    HW166709  13.039   9.779   1.345
54959SOL    HW266710  13.125   9.882   1.416
54960SOL     OW66711   6.027   1.793  11.551
54960SOL    HW166712   6.076   1.857  11.602
54960SOL    HW266713   6.046   1.709  11.593
54961SOL     OW66714   0.608   8.140   1.197
54961SOL    HW166715   0.675   8.078   1.167
54961SOL    HW266716   0.639   8.169   1.283
54962SOL     OW66717   8.687   0.342   7.623
54962SOL    HW166718   8.711   0.267   7.568
54962SOL    HW266719   8.654   0.408   7.562
54963SOL     OW66720   0.675  10.236   0.554
54963SOL    HW166721   0.608  10.285   0.506
54963SOL    HW266722   0.704  10.169   0.492
54964SOL     OW66723   2.798   7.735   0.405
54964SOL    HW166724   2.789   7.686   0.323
54964SOL    HW266725   2.884   7.712   0.438
54965SOL     OW66726   3.634   8.429  11.104
54965SOL    HW166727   3.723   8.426  11.068
54965SOL    HW266728   3.629   8.353  11.161
54966SOL     OW66729   4.541  14.606   1.709
54966SOL    HW166730   4.571  14.522   1.746
54966SOL    HW266731   4.621  14.647   1.676
54967SOL     OW66732   1.055  11.348   0.886
54967SOL    HW166733   1.067  11.313   0.975
54967SOL    HW266734   1.139  11.333   0.843
54968SOL     OW66735   0.209  12.601  11.454
54968SOL    HW166736   0.242  12.690  11.472
54968SOL    HW266737   0.281  12.544  11.480
54969SOL     OW66738   0.498  14.145   6.897
54969SOL    HW166739   0.462  14.064   6.932
54969SOL    HW266740   0.558  14.177   6.965
54970SOL     OW66741   5.360   3.926   9.345
54970SOL    HW166742   5.356   3.831   9.346
54970SOL    HW266743   5.327   3.953   9.431
54971SOL     OW66744  13.668  10.695  12.803
54971SOL    HW166745  13.722  10.667  12.877
54971SOL    HW266746  13.684  10.629  12.735
54972SOL     OW66747   8.806   5.928  10.873
54972SOL    HW166748   8.783   5.874  10.797
54972SOL    HW266749   8.762   6.012  10.857
54973SOL     OW66750  12.741  13.640   7.347
54973SOL    HW166751  12.797  13.575   7.388
54973SOL    HW266752  12.730  13.708   7.413
54974SOL     OW66753   9.934   8.651  10.455
54974SOL    HW166754   9.977   8.597  10.388
54974SOL    HW266755   9.992   8.645  10.531
54975SOL     OW66756   9.083   5.946   4.990
54975SOL    HW166757   9.091   6.041   4.981
54975SOL    HW266758   8.990   5.932   5.009
54976SOL     OW66759   3.711   2.991   7.019
54976SOL    HW166760   3.745   3.070   6.977
54976SOL    HW266761   3.655   3.024   7.090
54977SOL     OW66762   1.982   1.814   5.952
54977SOL    HW166763   2.010   1.892   6.000
54977SOL    HW266764   2.061   1.782   5.910
54978SOL     OW66765  13.528   0.390   9.093
54978SOL    HW166766  13.500   0.299   9.098
54978SOL    HW266767  13.544   0.415   9.184
54979SOL     OW66768   7.034   3.018   6.846
54979SOL    HW166769   7.091   3.019   6.923
54979SOL    HW266770   6.954   3.060   6.876
54980SOL     OW66771  10.941  13.786   3.409
54980SOL    HW166772  10.960  13.834   3.489
54980SOL    HW266773  10.886  13.713   3.437
54981SOL     OW66774   2.724  14.583   5.357
54981SOL    HW166775   2.720  14.491   5.334
54981SOL    HW266776   2.716  14.630   5.274
54982SOL     OW66777   9.434   2.242   7.914
54982SOL    HW166778   9.491   2.182   7.962
54982SOL    HW266779   9.354   2.193   7.900
54983SOL     OW66780  14.655   7.633   9.298
54983SOL    HW166781  14.733   7.688   9.304
54983SOL    HW266782  14.688   7.544   9.309
54984SOL     OW66783  11.922  12.559   6.458
54984SOL    HW166784  11.890  12.476   6.493
54984SOL    HW266785  11.950  12.609   6.534
54985SOL     OW66786   4.169   7.370   1.032
54985SOL    HW166787   4.129   7.454   1.012
54985SOL    HW266788   4.257   7.376   0.995
54986SOL     OW66789   9.417  12.585   1.374
54986SOL    HW166790   9.473  12.637   1.317
54986SOL    HW266791   9.350  12.549   1.315
54987SOL     OW66792  11.750  12.347  10.525
54987SOL    HW166793  11.738  12.437  10.495
54987SOL    HW266794  11.831  12.350  10.576
54988SOL     OW66795   3.631   1.862  10.179
54988SOL    HW166796   3.661   1.879  10.089
54988SOL    HW266797   3.611   1.769  10.180
54989SOL     OW66798   7.094  12.141   0.253
54989SOL    HW166799   7.052  12.091   0.323
54989SOL    HW266800   7.073  12.232   0.272
54990SOL     OW66801   2.146   1.402   7.215
54990SOL    HW166802   2.236   1.375   7.196
54990SOL    HW266803   2.152   1.497   7.228
54991SOL     OW66804  12.092   0.259   8.305
54991SOL    HW166805  12.154   0.204   8.258
54991SOL    HW266806  12.141   0.292   8.380
54992SOL     OW66807   5.157   8.402  14.610
54992SOL    HW166808   5.215   8.376  14.538
54992SOL    HW266809   5.129   8.491  14.588
54993SOL     OW66810   8.573  14.480   1.564
54993SOL    HW166811   8.663  14.509   1.547
54993SOL    HW266812   8.518  14.550   1.529
54994SOL     OW66813   2.714  10.906   3.785
54994SOL    HW166814   2.714  10.811   3.793
54994SOL    HW266815   2.804  10.928   3.760
54995SOL     OW66816   5.035   1.980   5.887
54995SOL    HW166817   4.994   2.058   5.850
54995SOL    HW266818   5.001   1.908   5.834
54996SOL     OW66819   6.413  14.826  11.269
54996SOL    HW166820   6.397  14.748  11.323
54996SOL    HW266821   6.329  14.842  11.225
54997SOL     OW66822   1.264   0.376  11.401
54997SOL    HW166823   1.173   0.382  11.372
54997SOL    HW266824   1.292   0.289  11.372
54998SOL     OW66825  11.727   6.515  12.174
54998SOL    HW166826  11.789   6.514  12.246
54998SOL    HW266827  11.721   6.607  12.148
54999SOL     OW66828   0.556   3.675  10.060
54999SOL    HW166829   0.499   3.619  10.112
54999SOL    HW266830   0.497   3.736  10.016
55000SOL     OW66831   0.929   6.501   4.756
55000SOL    HW166832   0.911   6.554   4.834
55000SOL    HW266833   1.017   6.528   4.729
55001SOL     OW66834  10.412  13.347   4.757
55001SOL    HW166835  10.498  13.369   4.792
55001SOL    HW266836  10.422  13.258   4.723
55002SOL     OW66837  10.611   7.845   1.752
55002SOL    HW166838  10.628   7.933   1.786
55002SOL    HW266839  10.545   7.859   1.683
55003SOL     OW66840   2.821  11.229  14.846
55003SOL    HW166841   2.881  11.154  14.851
55003SOL    HW266842   2.783  11.235   0.058
55004SOL     OW66843   7.008   2.221   9.428
55004SOL    HW166844   7.063   2.266   9.363
55004SOL    HW266845   6.979   2.290   9.488
55005SOL     OW66846   6.309   4.947  12.805
55005SOL    HW166847   6.331   4.854  12.807
55005SOL    HW266848   6.366   4.984  12.737
55006SOL     OW66849   4.147   4.625   3.961
55006SOL    HW166850   4.117   4.711   3.987
55006SOL    HW266851   4.067   4.574   3.949
55007SOL     OW66852   7.630   1.616   9.429
55007SOL    HW166853   7.606   1.702   9.462
55007SOL    HW266854   7.670   1.633   9.344
55008SOL     OW66855   0.404  13.004  12.588
55008SOL    HW166856   0.490  13.025  12.624
55008SOL    HW266857   0.377  13.084  12.543
55009SOL     OW66858   0.644   2.859   4.679
55009SOL    HW166859   0.714   2.816   4.629
55009SOL    HW266860   0.619   2.934   4.625
55010SOL     OW66861  13.850  13.616   9.948
55010SOL    HW166862  13.876  13.572  10.029
55010SOL    HW266863  13.931  13.656   9.916
55011SOL     OW66864   2.719   6.307   5.142
55011SOL    HW166865   2.633   6.287   5.181
55011SOL    HW266866   2.716   6.267   5.056
55012SOL     OW66867  11.303  13.111   4.034
55012SOL    HW166868  11.355  13.132   4.112
55012SOL    HW266869  11.346  13.160   3.963
55013SOL     OW66870   1.607   7.312  13.334
55013SOL    HW166871   1.555   7.258  13.274
55013SOL    HW266872   1.641   7.249  13.398
55014SOL     OW66873   0.585   9.132   3.377
55014SOL    HW166874   0.494   9.163   3.379
55014SOL    HW266875   0.625   9.169   3.456
55015SOL     OW66876  10.057   2.550   6.752
55015SOL    HW166877  10.038   2.478   6.693
55015SOL    HW266878  10.152   2.551   6.760
55016SOL     OW66879  14.484  11.156   6.206
55016SOL    HW166880  14.466  11.089   6.271
55016SOL    HW266881  14.482  11.110   6.122
55017SOL     OW66882  11.937   3.119  13.210
55017SOL    HW166883  11.968   3.042  13.164
55017SOL    HW266884  11.842   3.118  13.197
55018SOL     OW66885   0.219   8.975   2.570
55018SOL    HW166886   0.250   9.025   2.645
55018SOL    HW266887   0.171   9.038   2.516
55019SOL     OW66888   7.757   3.516   2.427
55019SOL    HW166889   7.739   3.422   2.435
55019SOL    HW266890   7.848   3.526   2.457
55020SOL     OW66891  13.151   0.419   2.890
55020SOL    HW166892  13.144   0.378   2.977
55020SOL    HW266893  13.207   0.495   2.903
55021SOL     OW66894   7.376   8.117   2.084
55021SOL    HW166895   7.350   8.185   2.022
55021SOL    HW266896   7.387   8.039   2.031
55022SOL     OW66897   8.071  12.678   2.749
55022SOL    HW166898   8.099  12.765   2.723
55022SOL    HW266899   7.976  12.682   2.750
55023SOL     OW66900   0.547  13.807   0.538
55023SOL    HW166901   0.608  13.734   0.542
55023SOL    HW266902   0.602  13.884   0.523
55024SOL     OW66903   2.721   8.457  12.087
55024SOL    HW166904   2.789   8.390  12.084
55024SOL    HW266905   2.752   8.525  12.028
55025SOL     OW66906   1.566   6.662   9.314
55025SOL    HW166907   1.522   6.578   9.302
55025SOL    HW266908   1.580   6.695   9.226
55026SOL     OW66909  13.176   1.094  11.822
55026SOL    HW166910  13.267   1.076  11.798
55026SOL    HW266911  13.175   1.187  11.847
55027SOL     OW66912   3.205   4.168   9.651
55027SOL    HW166913   3.218   4.117   9.571
55027SOL    HW266914   3.147   4.114   9.705
55028SOL     OW66915  12.913   1.559  12.549
55028SOL    HW166916  12.951   1.631  12.599
55028SOL    HW266917  12.823   1.587  12.533
55029SOL     OW66918   3.597   1.250   9.697
55029SOL    HW166919   3.535   1.275   9.766
55029SOL    HW266920   3.616   1.333   9.652
55030SOL     OW66921   4.779  11.968   7.299
55030SOL    HW166922   4.864  12.007   7.282
55030SOL    HW266923   4.787  11.929   7.386
55031SOL     OW66924  11.321  14.398   3.249
55031SOL    HW166925  11.347  14.400   3.341
55031SOL    HW266926  11.290  14.309   3.234
55032SOL     OW66927   4.685  10.828   9.211
55032SOL    HW166928   4.759  10.881   9.241
55032SOL    HW266929   4.723  10.770   9.145
55033SOL     OW66930  10.269  12.855  14.293
55033SOL    HW166931  10.224  12.797  14.232
55033SOL    HW266932  10.199  12.889  14.349
55034SOL     OW66933   4.986   3.139  12.864
55034SOL    HW166934   4.977   3.141  12.960
55034SOL    HW266935   4.983   3.231  12.838
55035SOL     OW66936  11.017   7.615   2.136
55035SOL    HW166937  10.947   7.561   2.172
55035SOL    HW266938  11.071   7.555   2.085
55036SOL     OW66939  13.229   5.781  13.098
55036SOL    HW166940  13.240   5.698  13.143
55036SOL    HW266941  13.271   5.845  13.155
55037SOL     OW66942  11.545  13.533   8.266
55037SOL    HW166943  11.520  13.446   8.298
55037SOL    HW266944  11.594  13.514   8.186
55038SOL     OW66945  12.506   0.339   1.439
55038SOL    HW166946  12.430   0.283   1.427
55038SOL    HW266947  12.555   0.332   1.357
55039SOL     OW66948   1.442   8.108   4.193
55039SOL    HW166949   1.373   8.133   4.131
55039SOL    HW266950   1.397   8.099   4.277
55040SOL     OW66951   9.700   0.958   2.967
55040SOL    HW166952   9.790   0.981   2.946
55040SOL    HW266953   9.707   0.881   3.023
55041SOL     OW66954  13.275   5.231   3.336
55041SOL    HW166955  13.334   5.259   3.266
55041SOL    HW266956  13.325   5.244   3.417
55042SOL     OW66957  14.043   7.529   3.932
55042SOL    HW166958  13.951   7.527   3.957
55042SOL    HW266959  14.058   7.618   3.900
55043SOL     OW66960  10.596  14.101  12.848
55043SOL    HW166961  10.568  14.021  12.805
55043SOL    HW266962  10.569  14.089  12.940
55044SOL     OW66963  10.837  13.235   1.234
55044SOL    HW166964  10.838  13.144   1.202
55044SOL    HW266965  10.783  13.281   1.170
55045SOL     OW66966   4.090   0.275   6.377
55045SOL    HW166967   4.031   0.228   6.319
55045SOL    HW266968   4.126   0.345   6.323
55046SOL     OW66969   3.302  12.494  12.462
55046SOL    HW166970   3.310  12.552  12.538
55046SOL    HW266971   3.387  12.500  12.418
55047SOL     OW66972  11.579   1.182   0.521
55047SOL    HW166973  11.592   1.191   0.616
55047SOL    HW266974  11.522   1.255   0.497
55048SOL     OW66975  14.719  14.149   1.922
55048SOL    HW166976  14.686  14.161   2.011
55048SOL    HW266977  14.796  14.092   1.933
55049SOL     OW66978   4.149  12.326  11.263
55049SOL    HW166979   4.123  12.236  11.245
55049SOL    HW266980   4.111  12.344  11.350
55050SOL     OW66981   8.398   8.025   8.180
55050SOL    HW166982   8.487   8.054   8.161
55050SOL    HW266983   8.346   8.059   8.108
55051SOL     OW66984  12.506   2.985   6.395
55051SOL    HW166985  12.572   3.047   6.426
55051SOL    HW266986  12.425   3.013   6.439
55052SOL     OW66987   3.233   1.180   5.923
55052SOL    HW166988   3.271   1.261   5.955
55052SOL    HW266989   3.161   1.208   5.866
55053SOL     OW66990  11.490  13.879   1.120
55053SOL    HW166991  11.471  13.912   1.208
55053SOL    HW266992  11.408  13.840   1.091
55054SOL     OW66993  10.588  14.443   3.379
55054SOL    HW166994  10.514  14.504   3.384
55054SOL    HW266995  10.578  14.387   3.456
55055SOL     OW66996  14.516   4.640   9.630
55055SOL    HW166997  14.597   4.627   9.580
55055SOL    HW266998  14.486   4.552   9.650
55056SOL     OW66999   8.704   1.334   0.581
55056SOL    HW167000   8.647   1.406   0.556
55056SOL    HW267001   8.793   1.366   0.563
55057SOL     OW67002   0.455   4.768   2.849
55057SOL    HW167003   0.489   4.705   2.785
55057SOL    HW267004   0.371   4.797   2.813
55058SOL     OW67005   0.221   1.769  10.799
55058SOL    HW167006   0.164   1.705  10.756
55058SOL    HW267007   0.238   1.835  10.731
55059SOL     OW67008   7.755   2.482   1.560
55059SOL    HW167009   7.679   2.492   1.502
55059SOL    HW267010   7.752   2.559   1.617
55060SOL     OW67011  13.916   7.400  13.194
55060SOL    HW167012  13.944   7.406  13.286
55060SOL    HW267013  13.825   7.432  13.195
55061SOL     OW67014  10.755  14.849   6.241
55061SOL    HW167015  10.693  14.830   6.311
55061SOL    HW267016  10.820  14.779   6.246
55062SOL     OW67017  12.640  14.072   0.777
55062SOL    HW167018  12.549  14.069   0.806
55062SOL    HW267019  12.651  14.160   0.742
55063SOL     OW67020   1.286  11.540   1.934
55063SOL    HW167021   1.238  11.551   1.852
55063SOL    HW267022   1.219  11.548   2.002
55064SOL     OW67023   4.417   5.536   6.492
55064SOL    HW167024   4.341   5.555   6.436
55064SOL    HW267025   4.387   5.464   6.548
55065SOL     OW67026  11.401  12.071   1.912
55065SOL    HW167027  11.448  12.005   1.862
55065SOL    HW267028  11.378  12.139   1.848
55066SOL     OW67029  10.326   3.855   4.326
55066SOL    HW167030  10.235   3.882   4.313
55066SOL    HW267031  10.373   3.891   4.251
55067SOL     OW67032  10.604  13.247   7.011
55067SOL    HW167033  10.580  13.158   7.036
55067SOL    HW267034  10.565  13.259   6.925
55068SOL     OW67035  13.362   5.860   7.549
55068SOL    HW167036  13.279   5.902   7.572
55068SOL    HW267037  13.339   5.799   7.479
55069SOL     OW67038  13.048   0.064  11.025
55069SOL    HW167039  13.033  14.871  11.090
55069SOL    HW267040  13.080   0.138  11.076
55070SOL     OW67041  12.800   3.291   0.578
55070SOL    HW167042  12.857   3.334   0.515
55070SOL    HW267043  12.730   3.355   0.595
55071SOL     OW67044   9.957   5.206  10.623
55071SOL    HW167045   9.930   5.295  10.644
55071SOL    HW267046   9.998   5.213  10.537
55072SOL     OW67047  11.283   2.776   7.914
55072SOL    HW167048  11.222   2.728   7.971
55072SOL    HW267049  11.328   2.707   7.864
55073SOL     OW67050  12.203  14.818  13.646
55073SOL    HW167051  12.205  14.874  13.723
55073SOL    HW267052  12.292  14.820  13.612
55074SOL     OW67053   4.797  12.858  12.015
55074SOL    HW167054   4.782  12.787  11.953
55074SOL    HW267055   4.808  12.936  11.960
55075SOL     OW67056  13.979  11.424   5.082
55075SOL    HW167057  13.943  11.506   5.117
55075SOL    HW267058  14.061  11.450   5.040
55076SOL     OW67059   9.970   3.067   0.366
55076SOL    HW167060   9.887   3.022   0.378
55076SOL    HW267061  10.000   3.038   0.279
55077SOL     OW67062   9.366   4.138   9.638
55077SOL    HW167063   9.441   4.181   9.598
55077SOL    HW267064   9.354   4.057   9.587
55078SOL     OW67065  12.557  11.082  10.342
55078SOL    HW167066  12.641  11.079  10.297
55078SOL    HW267067  12.544  11.175  10.363
55079SOL     OW67068  10.719   8.539   0.295
55079SOL    HW167069  10.689   8.630   0.291
55079SOL    HW267070  10.773   8.534   0.373
55080SOL     OW67071   3.383   4.513   0.144
55080SOL    HW167072   3.338   4.597   0.144
55080SOL    HW267073   3.426   4.509   0.230
55081SOL     OW67074   6.842  13.450   9.220
55081SOL    HW167075   6.931  13.446   9.255
55081SOL    HW267076   6.848  13.406   9.135
55082SOL     OW67077   6.001  11.861   4.282
55082SOL    HW167078   6.074  11.801   4.296
55082SOL    HW267079   6.023  11.938   4.333
55083SOL     OW67080   1.392   0.112   7.291
55083SOL    HW167081   1.425   0.022   7.294
55083SOL    HW267082   1.353   0.120   7.204
55084SOL     OW67083  12.335   7.475   8.048
55084SOL    HW167084  12.363   7.427   8.126
55084SOL    HW267085  12.396   7.447   7.980
55085SOL     OW67086   2.445  11.456   2.021
55085SOL    HW167087   2.426  11.548   2.044
55085SOL    HW267088   2.526  11.436   2.068
55086SOL     OW67089   7.544   3.263   6.860
55086SOL    HW167090   7.610   3.328   6.885
55086SOL    HW267091   7.572   3.231   6.775
55087SOL     OW67092  10.857  13.523   4.189
55087SOL    HW167093  10.895  13.439   4.163
55087SOL    HW267094  10.891  13.538   4.277
55088SOL     OW67095   4.952   2.603   0.823
55088SOL    HW167096   4.918   2.673   0.768
55088SOL    HW267097   5.047   2.617   0.823
55089SOL     OW67098   2.146   0.883   1.583
55089SOL    HW167099   2.143   0.957   1.643
55089SOL    HW267100   2.196   0.816   1.630
55090SOL     OW67101  11.542   5.252   3.873
55090SOL    HW167102  11.602   5.263   3.800
55090SOL    HW267103  11.593   5.205   3.939
55091SOL     OW67104   0.661   6.096   3.915
55091SOL    HW167105   0.571   6.082   3.889
55091SOL    HW267106   0.674   6.036   3.989
55092SOL     OW67107  11.888   3.642  10.009
55092SOL    HW167108  11.932   3.668  10.090
55092SOL    HW267109  11.833   3.717   9.987
55093SOL     OW67110  13.091   5.592   7.185
55093SOL    HW167111  13.012   5.588   7.239
55093SOL    HW267112  13.130   5.677   7.207
55094SOL     OW67113   8.272  13.860   6.816
55094SOL    HW167114   8.313  13.807   6.884
55094SOL    HW267115   8.337  13.927   6.795
55095SOL     OW67116   8.586   6.899  12.720
55095SOL    HW167117   8.541   6.815  12.718
55095SOL    HW267118   8.528   6.959  12.674
55096SOL     OW67119   1.906  11.369   9.288
55096SOL    HW167120   1.896  11.442   9.349
55096SOL    HW267121   1.855  11.298   9.327
55097SOL     OW67122   2.436   7.225   0.260
55097SOL    HW167123   2.428   7.132   0.283
55097SOL    HW267124   2.459   7.268   0.342
55098SOL     OW67125   2.776  14.011   9.652
55098SOL    HW167126   2.838  14.000   9.581
55098SOL    HW267127   2.690  14.015   9.609
55099SOL     OW67128   9.644   0.470  12.531
55099SOL    HW167129   9.616   0.519  12.607
55099SOL    HW267130   9.573   0.408  12.514
55100SOL     OW67131   2.222  12.734   1.613
55100SOL    HW167132   2.262  12.712   1.697
55100SOL    HW267133   2.128  12.737   1.631
55101SOL     OW67134  11.843   1.551   0.661
55101SOL    HW167135  11.841   1.495   0.583
55101SOL    HW267136  11.802   1.633   0.634
55102SOL     OW67137   8.093   8.525   8.125
55102SOL    HW167138   8.087   8.620   8.118
55102SOL    HW267139   8.124   8.496   8.040
55103SOL     OW67140   0.011   3.882  13.740
55103SOL    HW167141   0.093   3.929  13.726
55103SOL    HW267142  14.856   3.860  13.652
55104SOL     OW67143   0.346   9.711   8.259
55104SOL    HW167144   0.427   9.698   8.210
55104SOL    HW267145   0.287   9.755   8.198
55105SOL     OW67146  11.534  14.868   2.368
55105SOL    HW167147  11.546  14.775   2.346
55105SOL    HW267148  11.617   0.033   2.346
55106SOL     OW67149   9.881  11.137  14.360
55106SOL    HW167150   9.832  11.157  14.440
55106SOL    HW267151   9.814  11.119  14.294
55107SOL     OW67152  13.626   1.806  10.771
55107SOL    HW167153  13.679   1.732  10.743
55107SOL    HW267154  13.553   1.808  10.710
55108SOL     OW67155   1.326   7.265   5.695
55108SOL    HW167156   1.312   7.174   5.723
55108SOL    HW267157   1.348   7.312   5.775
55109SOL     OW67158   6.624   1.198  12.497
55109SOL    HW167159   6.530   1.204  12.481
55109SOL    HW267160   6.660   1.163  12.416
55110SOL     OW67161  10.806  13.012   6.593
55110SOL    HW167162  10.864  13.038   6.664
55110SOL    HW267163  10.718  13.014   6.632
55111SOL     OW67164   8.475   2.490   9.682
55111SOL    HW167165   8.416   2.431   9.634
55111SOL    HW267166   8.418   2.561   9.712
55112SOL     OW67167   0.097   6.142   5.545
55112SOL    HW167168   0.174   6.092   5.571
55112SOL    HW267169   0.101   6.222   5.597
55113SOL     OW67170  13.949   7.823   7.302
55113SOL    HW167171  13.929   7.908   7.340
55113SOL    HW267172  13.917   7.829   7.212
55114SOL     OW67173   1.287   2.911   5.808
55114SOL    HW167174   1.275   2.828   5.762
55114SOL    HW267175   1.330   2.887   5.890
55115SOL     OW67176  12.356  12.474   7.329
55115SOL    HW167177  12.287  12.508   7.387
55115SOL    HW267178  12.347  12.524   7.248
55116SOL     OW67179   8.950   7.963   7.337
55116SOL    HW167180   8.900   8.023   7.393
55116SOL    HW267181   8.885   7.929   7.275
55117SOL     OW67182   0.618  11.949  13.739
55117SOL    HW167183   0.612  12.010  13.666
55117SOL    HW267184   0.704  11.909  13.731
55118SOL     OW67185   7.291  12.546   5.455
55118SOL    HW167186   7.202  12.519   5.431
55118SOL    HW267187   7.333  12.566   5.371
55119SOL     OW67188   9.261   5.442  12.333
55119SOL    HW167189   9.227   5.462  12.420
55119SOL    HW267190   9.191   5.470  12.273
55120SOL     OW67191   0.608   8.432  12.127
55120SOL    HW167192   0.533   8.376  12.107
55120SOL    HW267193   0.682   8.387  12.088
55121SOL     OW67194   9.847   9.175   2.696
55121SOL    HW167195   9.883   9.169   2.608
55121SOL    HW267196   9.752   9.173   2.684
55122SOL     OW67197  13.642   7.572   7.542
55122SOL    HW167198  13.575   7.615   7.490
55122SOL    HW267199  13.594   7.520   7.606
55123SOL     OW67200   0.121   3.360  14.534
55123SOL    HW167201   0.125   3.452  14.560
55123SOL    HW267202   0.027   3.339  14.536
55124SOL     OW67203  11.747  13.395  13.510
55124SOL    HW167204  11.837  13.428  13.504
55124SOL    HW267205  11.757  13.305  13.541
55125SOL     OW67206   0.320   0.582   4.954
55125SOL    HW167207   0.395   0.636   4.980
55125SOL    HW267208   0.343   0.551   4.866
55126SOL     OW67209   6.901   5.522   7.337
55126SOL    HW167210   6.917   5.482   7.251
55126SOL    HW267211   6.929   5.455   7.400
55127SOL     OW67212  13.104   2.578  13.125
55127SOL    HW167213  13.049   2.652  13.100
55127SOL    HW267214  13.051   2.501  13.107
55128SOL     OW67215  14.146   7.431   4.607
55128SOL    HW167216  14.195   7.352   4.629
55128SOL    HW267217  14.155   7.487   4.684
55129SOL     OW67218   7.532   5.559  12.243
55129SOL    HW167219   7.617   5.588  12.276
55129SOL    HW267220   7.512   5.618  12.171
55130SOL     OW67221  12.154  12.971  13.097
55130SOL    HW167222  12.248  12.978  13.084
55130SOL    HW267223  12.124  13.061  13.103
55131SOL     OW67224   1.144   1.080  14.032
55131SOL    HW167225   1.137   1.084  13.936
55131SOL    HW267226   1.234   1.105  14.050
55132SOL     OW67227   5.119   8.500  10.834
55132SOL    HW167228   5.214   8.513  10.834
55132SOL    HW267229   5.083   8.587  10.816
55133SOL     OW67230   8.432  14.193   4.520
55133SOL    HW167231   8.388  14.273   4.491
55133SOL    HW267232   8.468  14.155   4.440
55134SOL     OW67233   0.273   9.707   8.514
55134SOL    HW167234   0.304   9.795   8.536
55134SOL    HW267235   0.300   9.694   8.423
55135SOL     OW67236   3.514   1.308   2.844
55135SOL    HW167237   3.570   1.342   2.913
55135SOL    HW267238   3.436   1.276   2.890
55136SOL     OW67239   8.214  11.769  14.679
55136SOL    HW167240   8.267  11.842  14.647
55136SOL    HW267241   8.245  11.693  14.628
55137SOL     OW67242  13.422   7.061  14.366
55137SOL    HW167243  13.389   6.998  14.430
55137SOL    HW267244  13.465   7.007  14.300
55138SOL     OW67245   9.985   9.853   1.091
55138SOL    HW167246   9.946   9.876   1.007
55138SOL    HW267247   9.918   9.878   1.156
55139SOL     OW67248   6.054  13.991   0.510
55139SOL    HW167249   6.080  14.082   0.520
55139SOL    HW267250   5.961  13.994   0.489
55140SOL     OW67251  14.865   8.651   9.125
55140SOL    HW167252  14.788   8.620   9.172
55140SOL    HW267253  14.830   8.689   9.044
55141SOL     OW67254  14.862   0.721   5.526
55141SOL    HW167255  14.802   0.694   5.457
55141SOL    HW267256   0.041   0.788   5.485
55142SOL     OW67257   1.148   7.752   8.304
55142SOL    HW167258   1.098   7.782   8.228
55142SOL    HW267259   1.120   7.810   8.375
55143SOL     OW67260   9.016   8.464  10.336
55143SOL    HW167261   9.085   8.453  10.401
55143SOL    HW267262   8.964   8.384  10.343
55144SOL     OW67263   9.740   8.583   5.130
55144SOL    HW167264   9.760   8.563   5.222
55144SOL    HW267265   9.773   8.671   5.117
55145SOL     OW67266   2.564   0.542  10.571
55145SOL    HW167267   2.579   0.619  10.626
55145SOL    HW267268   2.503   0.488  10.621
55146SOL     OW67269   0.720   1.349  13.167
55146SOL    HW167270   0.723   1.316  13.077
55146SOL    HW267271   0.774   1.288  13.217
55147SOL     OW67272   9.397   1.385   8.313
55147SOL    HW167273   9.304   1.375   8.330
55147SOL    HW267274   9.436   1.305   8.347
55148SOL     OW67275  14.081   2.711  11.275
55148SOL    HW167276  14.168   2.697  11.311
55148SOL    HW267277  14.057   2.627  11.235
55149SOL     OW67278   9.399  11.979   9.001
55149SOL    HW167279   9.494  11.969   8.997
55149SOL    HW267280   9.373  11.927   9.077
55150SOL     OW67281  10.929  13.178   6.897
55150SOL    HW167282  10.856  13.120   6.918
55150SOL    HW267283  10.911  13.209   6.808
55151SOL     OW67284   5.438   9.317   9.467
55151SOL    HW167285   5.450   9.363   9.383
55151SOL    HW267286   5.508   9.252   9.469
55152SOL     OW67287  11.776   8.532  11.045
55152SOL    HW167288  11.701   8.559  10.993
55152SOL    HW267289  11.750   8.450  11.086
55153SOL     OW67290   1.111  10.869   1.293
55153SOL    HW167291   1.060  10.837   1.366
55153SOL    HW267292   1.173  10.800   1.274
55154SOL     OW67293  14.683   8.960   2.442
55154SOL    HW167294  14.701   9.021   2.370
55154SOL    HW267295  14.664   9.017   2.516
55155SOL     OW67296   8.258  11.396   3.580
55155SOL    HW167297   8.308  11.475   3.561
55155SOL    HW267298   8.169  11.427   3.598
55156SOL     OW67299   8.475  10.977   0.434
55156SOL    HW167300   8.409  10.909   0.423
55156SOL    HW267301   8.521  10.953   0.515
55157SOL     OW67302   5.058   8.337   1.963
55157SOL    HW167303   5.025   8.247   1.955
55157SOL    HW267304   4.991   8.382   2.015
55158SOL     OW67305  13.962   2.922   2.951
55158SOL    HW167306  14.028   2.862   2.986
55158SOL    HW267307  13.973   3.002   3.001
55159SOL     OW67308   9.596  11.138   5.881
55159SOL    HW167309   9.565  11.196   5.951
55159SOL    HW267310   9.627  11.198   5.813
55160SOL     OW67311   4.703   1.353   3.149
55160SOL    HW167312   4.627   1.349   3.090
55160SOL    HW267313   4.774   1.385   3.093
55161SOL     OW67314   8.397   9.344   1.810
55161SOL    HW167315   8.418   9.336   1.717
55161SOL    HW267316   8.302   9.356   1.813
55162SOL     OW67317   7.720  14.240  10.046
55162SOL    HW167318   7.703  14.146  10.037
55162SOL    HW267319   7.777  14.261   9.971
55163SOL     OW67320   4.421   5.337   7.769
55163SOL    HW167321   4.337   5.294   7.784
55163SOL    HW267322   4.422   5.408   7.833
55164SOL     OW67323  11.990   0.427   3.974
55164SOL    HW167324  12.085   0.435   3.980
55164SOL    HW267325  11.956   0.484   4.042
55165SOL     OW67326  14.691   6.255   8.446
55165SOL    HW167327  14.767   6.199   8.461
55165SOL    HW267328  14.707   6.296   8.361
55166SOL     OW67329  14.255   5.430  14.084
55166SOL    HW167330  14.305   5.508  14.106
55166SOL    HW267331  14.303   5.391  14.010
55167SOL     OW67332   5.891   0.509   8.563
55167SOL    HW167333   5.871   0.591   8.609
55167SOL    HW267334   5.842   0.515   8.481
55168SOL     OW67335  13.427   0.250   2.962
55168SOL    HW167336  13.350   0.285   3.006
55168SOL    HW267337  13.392   0.188   2.897
55169SOL     OW67338  13.827   5.722   6.354
55169SOL    HW167339  13.826   5.628   6.335
55169SOL    HW267340  13.734   5.748   6.351
55170SOL     OW67341   7.403  11.125   9.668
55170SOL    HW167342   7.331  11.183   9.643
55170SOL    HW267343   7.367  11.071   9.738
55171SOL     OW67344   3.313   8.240   7.370
55171SOL    HW167345   3.343   8.195   7.449
55171SOL    HW267346   3.275   8.322   7.403
55172SOL     OW67347   6.904   4.874   4.982
55172SOL    HW167348   6.895   4.959   4.940
55172SOL    HW267349   6.982   4.882   5.037
55173SOL     OW67350   2.342   9.156   6.472
55173SOL    HW167351   2.353   9.062   6.483
55173SOL    HW267352   2.353   9.192   6.560
55174SOL     OW67353   4.909  14.092   3.377
55174SOL    HW167354   4.890  14.040   3.455
55174SOL    HW267355   4.853  14.056   3.309
55175SOL     OW67356   5.518   1.629  13.172
55175SOL    HW167357   5.537   1.698  13.235
55175SOL    HW267358   5.431   1.596  13.197
55176SOL     OW67359   3.870   3.620   6.953
55176SOL    HW167360   3.883   3.714   6.958
55176SOL    HW267361   3.899   3.587   7.038
55177SOL     OW67362   8.157  10.909   8.476
55177SOL    HW167363   8.219  10.876   8.411
55177SOL    HW267364   8.098  10.965   8.426
55178SOL     OW67365   5.481   5.840   7.860
55178SOL    HW167366   5.398   5.793   7.859
55178SOL    HW267367   5.521   5.822   7.775
55179SOL     OW67368  13.005   9.784   6.860
55179SOL    HW167369  13.060   9.849   6.903
55179SOL    HW267370  13.017   9.801   6.766
55180SOL     OW67371  13.740   9.985   0.464
55180SOL    HW167372  13.699  10.052   0.519
55180SOL    HW267373  13.823  10.024   0.437
55181SOL     OW67374  11.918  13.316   6.257
55181SOL    HW167375  11.921  13.404   6.293
55181SOL    HW267376  11.838  13.278   6.293
55182SOL     OW67377   7.360  13.248   1.572
55182SOL    HW167378   7.368  13.209   1.659
55182SOL    HW267379   7.399  13.184   1.513
55183SOL     OW67380  12.719   1.344  11.456
55183SOL    HW167381  12.717   1.383  11.368
55183SOL    HW267382  12.791   1.281  11.452
55184SOL     OW67383   8.240  12.715   9.522
55184SOL    HW167384   8.276  12.633   9.489
55184SOL    HW267385   8.181  12.688   9.593
55185SOL     OW67386   2.305   0.395   4.011
55185SOL    HW167387   2.355   0.332   4.063
55185SOL    HW267388   2.322   0.479   4.055
55186SOL     OW67389   6.631   6.479  12.152
55186SOL    HW167390   6.675   6.545  12.207
55186SOL    HW267391   6.693   6.463  12.081
55187SOL     OW67392   5.592  13.293  14.144
55187SOL    HW167393   5.551  13.375  14.117
55187SOL    HW267394   5.621  13.308  14.234
55188SOL     OW67395   7.630  11.644   4.238
55188SOL    HW167396   7.697  11.588   4.198
55188SOL    HW267397   7.550  11.624   4.189
55189SOL     OW67398   8.734   9.804   7.528
55189SOL    HW167399   8.679   9.827   7.453
55189SOL    HW267400   8.719   9.710   7.540
55190SOL     OW67401   5.681   0.142   8.894
55190SOL    HW167402   5.589   0.167   8.905
55190SOL    HW267403   5.708   0.185   8.813
55191SOL     OW67404  10.744   6.950  14.519
55191SOL    HW167405  10.798   6.903  14.455
55191SOL    HW267406  10.666   6.976  14.470
55192SOL     OW67407  12.604   4.414   4.290
55192SOL    HW167408  12.536   4.369   4.239
55192SOL    HW267409  12.593   4.506   4.268
55193SOL     OW67410  10.841   1.821   7.772
55193SOL    HW167411  10.840   1.858   7.860
55193SOL    HW267412  10.854   1.727   7.785
55194SOL     OW67413   2.386   2.185   5.784
55194SOL    HW167414   2.382   2.157   5.876
55194SOL    HW267415   2.319   2.253   5.777
55195SOL     OW67416  11.878   4.688  11.264
55195SOL    HW167417  11.902   4.774  11.228
55195SOL    HW267418  11.810   4.708  11.328
55196SOL     OW67419   5.265   1.936  14.644
55196SOL    HW167420   5.179   1.960  14.678
55196SOL    HW267421   5.313   2.019  14.638
55197SOL     OW67422   9.020   3.350  12.670
55197SOL    HW167423   9.060   3.370  12.586
55197SOL    HW267424   8.939   3.305  12.647
55198SOL     OW67425   6.127   8.755   0.207
55198SOL    HW167426   6.213   8.774   0.169
55198SOL    HW267427   6.133   8.664   0.235
55199SOL     OW67428  10.213   4.588   8.335
55199SOL    HW167429  10.296   4.601   8.288
55199SOL    HW267430  10.209   4.661   8.396
55200SOL     OW67431  10.494   0.578  14.558
55200SOL    HW167432  10.423   0.628  14.598
55200SOL    HW267433  10.490   0.492  14.599
55201SOL     OW67434   3.482   3.050   8.311
55201SOL    HW167435   3.560   3.047   8.367
55201SOL    HW267436   3.418   3.102   8.361
55202SOL     OW67437  14.045  12.958  14.350
55202SOL    HW167438  14.088  13.023  14.406
55202SOL    HW267439  13.969  12.930  14.400
55203SOL     OW67440  13.843  14.432  11.155
55203SOL    HW167441  13.802  14.454  11.239
55203SOL    HW267442  13.838  14.513  11.104
55204SOL     OW67443   5.523  10.742   2.590
55204SOL    HW167444   5.572  10.668   2.625
55204SOL    HW267445   5.454  10.701   2.537
55205SOL     OW67446   9.074   4.623   7.969
55205SOL    HW167447   9.098   4.611   8.061
55205SOL    HW267448   9.156   4.611   7.922
55206SOL     OW67449   8.690   9.526   4.421
55206SOL    HW167450   8.600   9.502   4.399
55206SOL    HW267451   8.737   9.443   4.422
55207SOL     OW67452  12.117  14.476   8.052
55207SOL    HW167453  12.166  14.460   8.133
55207SOL    HW267454  12.184  14.498   7.987
55208SOL     OW67455   5.796   4.077   0.537
55208SOL    HW167456   5.821   4.005   0.596
55208SOL    HW267457   5.815   4.045   0.449
55209SOL     OW67458   5.838  10.762   2.580
55209SOL    HW167459   5.764  10.702   2.584
55209SOL    HW267460   5.903  10.724   2.639
55210SOL     OW67461   9.257  11.887  13.584
55210SOL    HW167462   9.187  11.821  13.588
55210SOL    HW267463   9.227  11.949  13.518
55211SOL     OW67464   5.070   8.273  13.266
55211SOL    HW167465   5.120   8.331  13.208
55211SOL    HW267466   5.137   8.232  13.321
55212SOL     OW67467   0.786   9.264   1.165
55212SOL    HW167468   0.759   9.349   1.129
55212SOL    HW267469   0.867   9.283   1.212
55213SOL     OW67470  11.768   6.670   1.057
55213SOL    HW167471  11.715   6.713   0.990
55213SOL    HW267472  11.726   6.695   1.140
55214SOL     OW67473   8.860   6.996  10.805
55214SOL    HW167474   8.881   7.082  10.842
55214SOL    HW267475   8.808   7.015  10.728
55215SOL     OW67476   0.590  14.425   2.526
55215SOL    HW167477   0.609  14.519   2.531
55215SOL    HW267478   0.502  14.416   2.562
55216SOL     OW67479  13.320   6.874  13.057
55216SOL    HW167480  13.244   6.857  13.002
55216SOL    HW267481  13.351   6.961  13.030
55217SOL     OW67482   3.424   4.475   6.745
55217SOL    HW167483   3.478   4.410   6.699
55217SOL    HW267484   3.415   4.547   6.682
55218SOL     OW67485   1.593   2.136  10.046
55218SOL    HW167486   1.608   2.045  10.021
55218SOL    HW267487   1.500   2.151  10.026
55219SOL     OW67488   9.313   8.775   8.300
55219SOL    HW167489   9.249   8.788   8.231
55219SOL    HW267490   9.332   8.863   8.334
55220SOL     OW67491  10.543   6.113  13.812
55220SOL    HW167492  10.554   6.174  13.739
55220SOL    HW267493  10.624   6.062  13.813
55221SOL     OW67494   7.377   4.448   7.001
55221SOL    HW167495   7.329   4.381   7.050
55221SOL    HW267496   7.424   4.497   7.068
55222SOL     OW67497  11.878   2.995   3.605
55222SOL    HW167498  11.950   2.982   3.667
55222SOL    HW267499  11.799   2.973   3.655
55223SOL     OW67500   6.449  14.200   7.418
55223SOL    HW167501   6.380  14.158   7.468
55223SOL    HW267502   6.523  14.139   7.422
55224SOL     OW67503   1.576   3.985   0.184
55224SOL    HW167504   1.569   3.950   0.273
55224SOL    HW267505   1.668   3.975   0.160
55225SOL     OW67506   8.223   8.437  10.252
55225SOL    HW167507   8.312   8.468  10.238
55225SOL    HW267508   8.182   8.441  10.166
55226SOL     OW67509  10.138  12.474  14.409
55226SOL    HW167510  10.214  12.442  14.361
55226SOL    HW267511  10.173  12.513  14.488
55227SOL     OW67512   3.381   6.321   6.880
55227SOL    HW167513   3.335   6.284   6.804
55227SOL    HW267514   3.420   6.402   6.847
55228SOL     OW67515   1.233  13.827  14.191
55228SOL    HW167516   1.245  13.906  14.138
55228SOL    HW267517   1.157  13.784  14.153
55229SOL     OW67518  13.607   2.291  13.087
55229SOL    HW167519  13.604   2.234  13.163
55229SOL    HW267520  13.556   2.245  13.020
55230SOL     OW67521  13.243   7.455   3.499
55230SOL    HW167522  13.229   7.501   3.582
55230SOL    HW267523  13.324   7.492   3.464
55231SOL     OW67524   0.816  11.582  10.907
55231SOL    HW167525   0.780  11.535  10.982
55231SOL    HW267526   0.740  11.614  10.859
55232SOL     OW67527   4.385   9.427   9.444
55232SOL    HW167528   4.347   9.503   9.400
55232SOL    HW267529   4.374   9.355   9.382
55233SOL     OW67530   1.977   6.263   4.341
55233SOL    HW167531   1.966   6.194   4.275
55233SOL    HW267532   1.903   6.322   4.326
55234SOL     OW67533  12.855   3.823  13.274
55234SOL    HW167534  12.812   3.856  13.353
55234SOL    HW267535  12.834   3.730  13.273
55235SOL     OW67536   8.812   3.242   8.739
55235SOL    HW167537   8.787   3.210   8.652
55235SOL    HW267538   8.876   3.179   8.770
55236SOL     OW67539   9.206  13.693   7.196
55236SOL    HW167540   9.205  13.649   7.111
55236SOL    HW267541   9.296  13.722   7.207
55237SOL     OW67542  10.353   5.881  12.465
55237SOL    HW167543  10.308   5.962  12.492
55237SOL    HW267544  10.435   5.881  12.515
55238SOL     OW67545   7.453   9.252   1.780
55238SOL    HW167546   7.449   9.301   1.699
55238SOL    HW267547   7.372   9.200   1.781
55239SOL     OW67548   2.936   6.830  12.660
55239SOL    HW167549   2.885   6.859  12.736
55239SOL    HW267550   3.027   6.832  12.690
55240SOL     OW67551   6.759   8.133   0.831
55240SOL    HW167552   6.829   8.113   0.769
55240SOL    HW267553   6.678   8.118   0.783
55241SOL     OW67554   6.366  14.116   8.888
55241SOL    HW167555   6.296  14.158   8.838
55241SOL    HW267556   6.442  14.172   8.874
55242SOL     OW67557   3.113   3.946  10.172
55242SOL    HW167558   3.038   3.940  10.231
55242SOL    HW267559   3.121   4.039  10.153
55243SOL     OW67560   5.928   2.215   5.233
55243SOL    HW167561   5.959   2.159   5.305
55243SOL    HW267562   5.881   2.286   5.276
55244SOL     OW67563   7.578   0.160   5.152
55244SOL    HW167564   7.573   0.248   5.115
55244SOL    HW267565   7.520   0.162   5.228
55245SOL     OW67566   1.378   7.119   4.700
55245SOL    HW167567   1.419   7.098   4.785
55245SOL    HW267568   1.294   7.074   4.702
55246SOL     OW67569   9.586  11.515   1.075
55246SOL    HW167570   9.548  11.436   1.037
55246SOL    HW267571   9.659  11.484   1.128
55247SOL     OW67572   1.212  11.622   8.820
55247SOL    HW167573   1.148  11.691   8.802
55247SOL    HW267574   1.291  11.668   8.846
55248SOL     OW67575   4.901   5.036   6.353
55248SOL    HW167576   4.906   5.100   6.424
55248SOL    HW267577   4.823   5.060   6.303
55249SOL     OW67578   1.518   4.300  13.798
55249SOL    HW167579   1.463   4.243  13.851
55249SOL    HW267580   1.520   4.383  13.847
55250SOL     OW67581  12.995   2.979  12.388
55250SOL    HW167582  12.903   2.962  12.405
55250SOL    HW267583  13.016   2.924  12.312
55251SOL     OW67584  12.216   4.925   5.128
55251SOL    HW167585  12.212   4.927   5.032
55251SOL    HW267586  12.159   4.996   5.156
55252SOL     OW67587   0.870   0.085   9.427
55252SOL    HW167588   0.885   0.018   9.360
55252SOL    HW267589   0.788   0.060   9.469
55253SOL     OW67590   9.411   5.940  12.089
55253SOL    HW167591   9.358   6.013  12.120
55253SOL    HW267592   9.502   5.969  12.097
55254SOL     OW67593   6.460  12.966   8.223
55254SOL    HW167594   6.425  12.926   8.303
55254SOL    HW267595   6.520  12.901   8.187
55255SOL     OW67596   6.056  14.522   1.133
55255SOL    HW167597   5.963  14.499   1.133
55255SOL    HW267598   6.078  14.532   1.041
55256SOL     OW67599   0.582  11.662  14.362
55256SOL    HW167600   0.677  11.672  14.354
55256SOL    HW267601   0.548  11.678  14.274
55257SOL     OW67602   9.936   7.667   9.457
55257SOL    HW167603   9.959   7.617   9.379
55257SOL    HW267604   9.846   7.640   9.477
55258SOL     OW67605   4.744   5.832  12.952
55258SOL    HW167606   4.701   5.882  12.882
55258SOL    HW267607   4.826   5.878  12.968
55259SOL     OW67608  14.402   6.162  12.005
55259SOL    HW167609  14.381   6.243  11.958
55259SOL    HW267610  14.453   6.111  11.941
55260SOL     OW67611  13.760  13.666   0.769
55260SOL    HW167612  13.690  13.602   0.763
55260SOL    HW267613  13.789  13.661   0.860
55261SOL     OW67614   7.530   0.499   1.739
55261SOL    HW167615   7.436   0.480   1.747
55261SOL    HW267616   7.551   0.473   1.649
55262SOL     OW67617  10.289  12.664   3.902
55262SOL    HW167618  10.287  12.664   3.806
55262SOL    HW267619  10.248  12.747   3.927
55263SOL     OW67620  12.950  10.971  10.747
55263SOL    HW167621  12.926  10.904  10.812
55263SOL    HW267622  12.931  11.054  10.790
55264SOL     OW67623   3.801   0.890   4.556
55264SOL    HW167624   3.881   0.846   4.529
55264SOL    HW267625   3.741   0.818   4.580
55265SOL     OW67626  11.421   3.963  11.583
55265SOL    HW167627  11.488   3.936  11.520
55265SOL    HW267628  11.365   3.886  11.594
55266SOL     OW67629   3.142   0.650  11.127
55266SOL    HW167630   3.190   0.618  11.204
55266SOL    HW267631   3.059   0.682  11.163
55267SOL     OW67632  11.527  14.641   9.568
55267SOL    HW167633  11.539  14.554   9.528
55267SOL    HW267634  11.445  14.673   9.530
55268SOL     OW67635   2.668  14.093  12.793
55268SOL    HW167636   2.748  14.139  12.818
55268SOL    HW267637   2.658  14.111  12.700
55269SOL     OW67638   8.338   5.592  14.711
55269SOL    HW167639   8.346   5.649  14.788
55269SOL    HW267640   8.379   5.509  14.739
55270SOL     OW67641   8.475   1.952   6.820
55270SOL    HW167642   8.517   2.010   6.757
55270SOL    HW267643   8.382   1.952   6.796
55271SOL     OW67644   2.793  13.662   4.383
55271SOL    HW167645   2.762  13.673   4.472
55271SOL    HW267646   2.717  13.682   4.328
55272SOL     OW67647  12.670   1.573   9.288
55272SOL    HW167648  12.740   1.585   9.224
55272SOL    HW267649  12.701   1.618   9.366
55273SOL     OW67650  11.348   6.485   3.237
55273SOL    HW167651  11.328   6.571   3.276
55273SOL    HW267652  11.377   6.506   3.148
55274SOL     OW67653  11.843   4.814   9.548
55274SOL    HW167654  11.847   4.853   9.635
55274SOL    HW267655  11.845   4.719   9.564
55275SOL     OW67656   0.458   6.442   2.680
55275SOL    HW167657   0.413   6.508   2.734
55275SOL    HW267658   0.526   6.406   2.738
55276SOL     OW67659   4.301   1.141   9.304
55276SOL    HW167660   4.378   1.196   9.290
55276SOL    HW267661   4.331   1.053   9.281
55277SOL     OW67662  12.560   7.950   3.663
55277SOL    HW167663  12.493   7.941   3.595
55277SOL    HW267664  12.514   7.931   3.745
55278SOL     OW67665  14.254   1.836   7.445
55278SOL    HW167666  14.268   1.918   7.399
55278SOL    HW267667  14.194   1.787   7.388
55279SOL     OW67668   8.677  11.399   6.036
55279SOL    HW167669   8.674  11.421   5.943
55279SOL    HW267670   8.765  11.424   6.064
55280SOL     OW67671  10.186  13.629   0.707
55280SOL    HW167672  10.093  13.606   0.709
55280SOL    HW267673  10.187  13.720   0.679
55281SOL     OW67674   4.073   8.813  10.717
55281SOL    HW167675   4.028   8.816  10.633
55281SOL    HW267676   4.108   8.901  10.730
55282SOL     OW67677   1.319  10.918  11.608
55282SOL    HW167678   1.284  10.839  11.651
55282SOL    HW267679   1.413  10.912  11.620
55283SOL     OW67680  11.149   0.307   6.923
55283SOL    HW167681  11.177   0.370   6.990
55283SOL    HW267682  11.204   0.327   6.847
55284SOL     OW67683   8.083   9.564  13.246
55284SOL    HW167684   7.991   9.585  13.230
55284SOL    HW267685   8.082   9.475  13.282
55285SOL     OW67686   9.823   3.880   3.812
55285SOL    HW167687   9.812   3.868   3.718
55285SOL    HW267688   9.782   3.802   3.851
55286SOL     OW67689   7.187   8.349   3.288
55286SOL    HW167690   7.222   8.303   3.365
55286SOL    HW267691   7.093   8.356   3.304
55287SOL     OW67692  11.664  13.199   2.649
55287SOL    HW167693  11.627  13.191   2.737
55287SOL    HW267694  11.752  13.233   2.663
55288SOL     OW67695   8.114  13.439   5.817
55288SOL    HW167696   8.193  13.402   5.856
55288SOL    HW267697   8.126  13.427   5.723
55289SOL     OW67698   7.624   1.372   1.608
55289SOL    HW167699   7.624   1.290   1.560
55289SOL    HW267700   7.712   1.407   1.598
55290SOL     OW67701   5.878  12.200   3.108
55290SOL    HW167702   5.800  12.237   3.150
55290SOL    HW267703   5.844  12.130   3.052
55291SOL     OW67704   4.200   7.266   2.807
55291SOL    HW167705   4.142   7.318   2.863
55291SOL    HW267706   4.147   7.242   2.732
55292SOL     OW67707   5.689  12.741  14.165
55292SOL    HW167708   5.669  12.648  14.174
55292SOL    HW267709   5.771  12.743  14.116
55293SOL     OW67710  12.003   4.184   1.318
55293SOL    HW167711  12.054   4.234   1.255
55293SOL    HW267712  11.912   4.206   1.298
55294SOL     OW67713  12.872   5.291   0.286
55294SOL    HW167714  12.813   5.239   0.230
55294SOL    HW267715  12.938   5.325   0.226
55295SOL     OW67716   6.490  14.552  12.673
55295SOL    HW167717   6.485  14.572  12.580
55295SOL    HW267718   6.511  14.636  12.714
55296SOL     OW67719   8.179   1.638   5.628
55296SOL    HW167720   8.183   1.713   5.570
55296SOL    HW267721   8.164   1.563   5.571
55297SOL     OW67722   3.870  11.277   2.425
55297SOL    HW167723   3.890  11.197   2.377
55297SOL    HW267724   3.781  11.264   2.458
55298SOL     OW67725   8.642  12.018  12.353
55298SOL    HW167726   8.634  12.113  12.356
55298SOL    HW267727   8.663  11.993  12.443
55299SOL     OW67728   1.117  13.921   9.741
55299SOL    HW167729   1.165  13.953   9.665
55299SOL    HW267730   1.116  13.994   9.803
55300SOL     OW67731   6.655   7.765   1.954
55300SOL    HW167732   6.642   7.733   1.865
55300SOL    HW267733   6.737   7.814   1.950
55301SOL     OW67734   4.069   1.565  10.638
55301SOL    HW167735   4.093   1.506  10.567
55301SOL    HW267736   3.981   1.538  10.664
55302SOL     OW67737   2.690  12.104   0.017
55302SOL    HW167738   2.700  12.013  14.865
55302SOL    HW267739   2.624  12.101   0.087
55303SOL     OW67740  14.814   7.198   3.473
55303SOL    HW167741  14.835   7.217   3.382
55303SOL    HW267742  14.806   7.102   3.477
55304SOL     OW67743  14.857   1.404   3.670
55304SOL    HW167744  14.843   1.475   3.608
55304SOL    HW267745  14.814   1.434   3.751
55305SOL     OW67746  14.234  12.459   7.424
55305SOL    HW167747  14.289  12.496   7.355
55305SOL    HW267748  14.287  12.388   7.461
55306SOL     OW67749  12.690  13.430   0.392
55306SOL    HW167750  12.718  13.341   0.412
55306SOL    HW267751  12.685  13.433   0.296
55307SOL     OW67752  12.172   5.028   4.440
55307SOL    HW167753  12.173   5.057   4.349
55307SOL    HW267754  12.168   5.109   4.491
55308SOL     OW67755   0.728   0.970   2.228
55308SOL    HW167756   0.764   0.909   2.164
55308SOL    HW267757   0.703   0.915   2.302
55309SOL     OW67758   9.180   8.459  10.766
55309SOL    HW167759   9.173   8.544  10.809
55309SOL    HW267760   9.272   8.453  10.739
55310SOL     OW67761   7.113   4.110  11.640
55310SOL    HW167762   7.034   4.139  11.594
55310SOL    HW267763   7.182   4.168  11.606
55311SOL     OW67764   0.173   4.390   4.826
55311SOL    HW167765   0.259   4.348   4.828
55311SOL    HW267766   0.120   4.332   4.771
55312SOL     OW67767  10.730   7.122   8.639
55312SOL    HW167768  10.809   7.106   8.586
55312SOL    HW267769  10.659   7.087   8.585
55313SOL     OW67770   6.175   6.600   8.599
55313SOL    HW167771   6.110   6.633   8.537
55313SOL    HW267772   6.181   6.506   8.579
55314SOL     OW67773  10.366  13.503  13.507
55314SOL    HW167774  10.313  13.497  13.587
55314SOL    HW267775  10.404  13.591  13.511
55315SOL     OW67776   7.006   2.155  10.532
55315SOL    HW167777   7.081   2.168  10.590
55315SOL    HW267778   7.019   2.068  10.495
55316SOL     OW67779   7.752  12.634   7.414
55316SOL    HW167780   7.791  12.644   7.328
55316SOL    HW267781   7.673  12.582   7.398
55317SOL     OW67782   1.267   3.272  10.398
55317SOL    HW167783   1.333   3.213  10.360
55317SOL    HW267784   1.230   3.318  10.322
55318SOL     OW67785  13.943   8.591   3.273
55318SOL    HW167786  14.026   8.637   3.262
55318SOL    HW267787  13.945   8.559   3.364
55319SOL     OW67788   4.144  12.677   7.537
55319SOL    HW167789   4.080  12.677   7.608
55319SOL    HW267790   4.144  12.586   7.505
55320SOL     OW67791   1.595   8.449  14.320
55320SOL    HW167792   1.687   8.454  14.346
55320SOL    HW267793   1.546   8.475  14.399
55321SOL     OW67794  11.319  12.978   3.309
55321SOL    HW167795  11.339  13.058   3.260
55321SOL    HW267796  11.292  13.009   3.395
55322SOL     OW67797   0.850   2.146  10.077
55322SOL    HW167798   0.925   2.150  10.136
55322SOL    HW267799   0.780   2.107  10.130
55323SOL     OW67800   8.529   6.809  13.081
55323SOL    HW167801   8.536   6.751  13.005
55323SOL    HW267802   8.538   6.750  13.156
55324SOL     OW67803  13.154   0.146   2.771
55324SOL    HW167804  13.119   0.145   2.682
55324SOL    HW267805  13.169   0.239   2.790
55325SOL     OW67806   5.095  11.528   6.278
55325SOL    HW167807   5.148  11.485   6.210
55325SOL    HW267808   5.148  11.520   6.358
55326SOL     OW67809  12.070  14.730   2.758
55326SOL    HW167810  12.022  14.812   2.748
55326SOL    HW267811  12.013  14.664   2.719
55327SOL     OW67812  11.842   7.711   2.263
55327SOL    HW167813  11.835   7.618   2.285
55327SOL    HW267814  11.921   7.718   2.210
55328SOL     OW67815   7.041   3.335   5.394
55328SOL    HW167816   6.961   3.282   5.392
55328SOL    HW267817   7.054   3.361   5.302
55329SOL     OW67818   6.170   5.911   1.335
55329SOL    HW167819   6.177   5.824   1.374
55329SOL    HW267820   6.115   5.960   1.396
55330SOL     OW67821   1.013  13.832  14.462
55330SOL    HW167822   1.105  13.855  14.470
55330SOL    HW267823   0.976  13.899  14.405
55331SOL     OW67824  14.487   4.041  10.131
55331SOL    HW167825  14.447   3.955  10.148
55331SOL    HW267826  14.413   4.098  10.110
55332SOL     OW67827  11.683   8.831   6.865
55332SOL    HW167828  11.751   8.868   6.921
55332SOL    HW267829  11.706   8.861   6.777
55333SOL     OW67830   9.824   7.789   4.156
55333SOL    HW167831   9.787   7.735   4.226
55333SOL    HW267832   9.772   7.869   4.158
55334SOL     OW67833   8.753  11.517  13.718
55334SOL    HW167834   8.776  11.530  13.810
55334SOL    HW267835   8.717  11.428  13.716
55335SOL     OW67836  10.536   9.653   1.102
55335SOL    HW167837  10.570   9.743   1.101
55335SOL    HW267838  10.611   9.599   1.079
55336SOL     OW67839  10.242  12.788   2.105
55336SOL    HW167840  10.244  12.693   2.113
55336SOL    HW267841  10.148  12.809   2.100
55337SOL     OW67842   4.913   0.405   3.991
55337SOL    HW167843   4.939   0.476   3.933
55337SOL    HW267844   4.829   0.374   3.955
55338SOL     OW67845  12.607   4.351  12.231
55338SOL    HW167846  12.573   4.371  12.318
55338SOL    HW267847  12.692   4.395  12.228
55339SOL     OW67848   5.518   1.148   4.704
55339SOL    HW167849   5.463   1.209   4.754
55339SOL    HW267850   5.456   1.098   4.650
55340SOL     OW67851  11.905   5.156   0.950
55340SOL    HW167852  11.984   5.103   0.958
55340SOL    HW267853  11.850   5.109   0.887
55341SOL     OW67854   5.244   0.016   5.303
55341SOL    HW167855   5.267   0.070   5.378
55341SOL    HW267856   5.154   0.042   5.281
55342SOL     OW67857   1.100   4.966   1.175
55342SOL    HW167858   1.134   4.891   1.127
55342SOL    HW267859   1.096   4.937   1.266
55343SOL     OW67860   8.829   3.670   5.319
55343SOL    HW167861   8.734   3.664   5.316
55343SOL    HW267862   8.849   3.754   5.277
55344SOL     OW67863  10.903  13.153   4.876
55344SOL    HW167864  10.900  13.168   4.782
55344SOL    HW267865  10.992  13.177   4.901
55345SOL     OW67866   1.261   0.916   8.823
55345SOL    HW167867   1.299   0.868   8.749
55345SOL    HW267868   1.335   0.930   8.882
55346SOL     OW67869   4.581   2.836  13.827
55346SOL    HW167870   4.505   2.869  13.874
55346SOL    HW267871   4.631   2.914  13.803
55347SOL     OW67872   7.310  12.739   0.723
55347SOL    HW167873   7.293  12.652   0.685
55347SOL    HW267874   7.321  12.796   0.648
55348SOL     OW67875  14.387  13.008   1.193
55348SOL    HW167876  14.449  12.937   1.183
55348SOL    HW267877  14.375  13.043   1.104
55349SOL     OW67878  11.532   9.008   8.018
55349SOL    HW167879  11.544   8.915   8.001
55349SOL    HW267880  11.559   9.020   8.109
55350SOL     OW67881   1.569   0.627  10.171
55350SOL    HW167882   1.525   0.633  10.256
55350SOL    HW267883   1.499   0.602  10.110
55351SOL     OW67884   3.794   0.523   4.781
55351SOL    HW167885   3.858   0.454   4.769
55351SOL    HW267886   3.825   0.572   4.857
55352SOL     OW67887  14.452   5.490  10.506
55352SOL    HW167888  14.494   5.446  10.432
55352SOL    HW267889  14.522   5.545  10.544
55353SOL     OW67890  10.693  13.707  12.935
55353SOL    HW167891  10.696  13.631  12.994
55353SOL    HW267892  10.745  13.774  12.979
55354SOL     OW67893  10.748  11.098   9.164
55354SOL    HW167894  10.802  11.026   9.132
55354SOL    HW267895  10.677  11.056   9.211
55355SOL     OW67896  12.941   7.786   0.070
55355SOL    HW167897  12.910   7.699   0.094
55355SOL    HW267898  12.931   7.789  14.851
55356SOL     OW67899   2.614  10.179   5.509
55356SOL    HW167900   2.640  10.094   5.543
55356SOL    HW267901   2.694  10.231   5.510
55357SOL     OW67902  13.897   3.675   1.607
55357SOL    HW167903  13.937   3.734   1.671
55357SOL    HW267904  13.867   3.734   1.537
55358SOL     OW67905   5.206  11.879   3.911
55358SOL    HW167906   5.133  11.877   3.972
55358SOL    HW267907   5.187  11.809   3.848
55359SOL     OW67908   3.214  12.492   3.422
55359SOL    HW167909   3.166  12.431   3.478
55359SOL    HW267910   3.267  12.436   3.366
55360SOL     OW67911   0.077   0.715  13.212
55360SOL    HW167912   0.097   0.806  13.188
55360SOL    HW267913  14.857   0.711  13.212
55361SOL     OW67914   6.917  14.323   6.029
55361SOL    HW167915   6.881  14.404   5.992
55361SOL    HW267916   6.932  14.267   5.953
55362SOL     OW67917  10.309   6.366   5.231
55362SOL    HW167918  10.258   6.433   5.185
55362SOL    HW267919  10.274   6.366   5.320
55363SOL     OW67920   2.823  13.999   7.228
55363SOL    HW167921   2.857  13.929   7.173
55363SOL    HW267922   2.772  13.954   7.295
55364SOL     OW67923   3.523  14.587   5.948
55364SOL    HW167924   3.582  14.518   5.918
55364SOL    HW267925   3.535  14.658   5.885
55365SOL     OW67926   1.122  11.587   5.086
55365SOL    HW167927   1.166  11.652   5.031
55365SOL    HW267928   1.094  11.637   5.163
55366SOL     OW67929   1.862   9.519  12.130
55366SOL    HW167930   1.770   9.495  12.144
55366SOL    HW267931   1.912   9.442  12.159
55367SOL     OW67932   9.625   9.036   1.255
55367SOL    HW167933   9.667   9.102   1.200
55367SOL    HW267934   9.638   8.954   1.207
55368SOL     OW67935   9.864   7.246   2.484
55368SOL    HW167936   9.892   7.230   2.574
55368SOL    HW267937   9.812   7.168   2.461
55369SOL     OW67938  11.655  14.077   5.087
55369SOL    HW167939  11.733  14.022   5.096
55369SOL    HW267940  11.602  14.032   5.020
55370SOL     OW67941   4.442  10.796   4.072
55370SOL    HW167942   4.514  10.775   4.012
55370SOL    HW267943   4.407  10.879   4.038
55371SOL     OW67944   0.604   8.883   4.567
55371SOL    HW167945   0.521   8.926   4.585
55371SOL    HW267946   0.584   8.819   4.499
55372SOL     OW67947   9.313   4.106   4.050
55372SOL    HW167948   9.230   4.063   4.071
55372SOL    HW267949   9.357   4.046   3.990
55373SOL     OW67950   9.787   4.324  11.478
55373SOL    HW167951   9.742   4.390  11.425
55373SOL    HW267952   9.878   4.354  11.482
55374SOL     OW67953   8.283   3.463  14.868
55374SOL    HW167954   8.347   3.534  14.875
55374SOL    HW267955   8.220   3.495  14.802
55375SOL     OW67956   5.901   5.329   8.609
55375SOL    HW167957   5.886   5.405   8.665
55375SOL    HW267958   5.878   5.359   8.521
55376SOL     OW67959  10.645   9.656  11.791
55376SOL    HW167960  10.554   9.685  11.796
55376SOL    HW267961  10.648   9.577  11.844
55377SOL     OW67962   6.255   1.194   7.919
55377SOL    HW167963   6.226   1.285   7.923
55377SOL    HW267964   6.300   1.187   7.834
55378SOL     OW67965   8.751   1.242  13.542
55378SOL    HW167966   8.779   1.212  13.455
55378SOL    HW267967   8.737   1.161  13.591
55379SOL     OW67968   5.207   0.261   1.820
55379SOL    HW167969   5.222   0.348   1.782
55379SOL    HW267970   5.198   0.277   1.914
55380SOL     OW67971   4.105  14.283   4.970
55380SOL    HW167972   4.041  14.214   4.954
55380SOL    HW267973   4.091  14.309   5.061
55381SOL     OW67974  13.596   7.125   9.420
55381SOL    HW167975  13.596   7.094   9.510
55381SOL    HW267976  13.665   7.074   9.377
55382SOL     OW67977   7.159  13.531   1.056
55382SOL    HW167978   7.250  13.552   1.036
55382SOL    HW267979   7.161  13.488   1.141
55383SOL     OW67980  14.274  13.064   7.821
55383SOL    HW167981  14.340  13.133   7.809
55383SOL    HW267982  14.223  13.093   7.896
55384SOL     OW67983   2.999   9.787   7.498
55384SOL    HW167984   2.996   9.696   7.526
55384SOL    HW267985   2.981   9.783   7.404
55385SOL     OW67986   4.340  11.574   7.091
55385SOL    HW167987   4.382  11.488   7.094
55385SOL    HW267988   4.259  11.563   7.142
55386SOL     OW67989   2.785   4.462  14.502
55386SOL    HW167990   2.868   4.445  14.548
55386SOL    HW267991   2.723   4.480  14.572
55387SOL     OW67992   6.638   6.300   9.487
55387SOL    HW167993   6.656   6.392   9.506
55387SOL    HW267994   6.554   6.282   9.530
55388SOL     OW67995  14.049   5.779  10.763
55388SOL    HW167996  13.959   5.811  10.752
55388SOL    HW267997  14.100   5.829  10.700
55389SOL     OW67998  11.289   0.679   4.513
55389SOL    HW167999  11.195   0.684   4.496
55389SOL    HW268000  11.325   0.639   4.434
55390SOL     OW68001   8.112   7.775   4.668
55390SOL    HW168002   8.062   7.818   4.598
55390SOL    HW268003   8.182   7.836   4.689
55391SOL     OW68004   7.291  10.878   4.645
55391SOL    HW168005   7.246  10.847   4.566
55391SOL    HW268006   7.317  10.968   4.623
55392SOL     OW68007   1.874   0.404   4.073
55392SOL    HW168008   1.846   0.482   4.121
55392SOL    HW268009   1.953   0.432   4.027
55393SOL     OW68010  11.360   2.803   4.033
55393SOL    HW168011  11.306   2.875   3.999
55393SOL    HW268012  11.368   2.742   3.961
55394SOL     OW68013   0.456   1.292   4.348
55394SOL    HW168014   0.387   1.278   4.283
55394SOL    HW268015   0.431   1.373   4.393
55395SOL     OW68016   3.552   2.131   8.696
55395SOL    HW168017   3.632   2.101   8.740
55395SOL    HW268018   3.482   2.083   8.738
55396SOL     OW68019  12.474   7.022   5.337
55396SOL    HW168020  12.509   7.096   5.287
55396SOL    HW268021  12.453   7.058   5.423
55397SOL     OW68022  10.296   9.761   1.732
55397SOL    HW168023  10.279   9.834   1.672
55397SOL    HW268024  10.322   9.804   1.814
55398SOL     OW68025  10.853  12.344  10.095
55398SOL    HW168026  10.832  12.251  10.098
55398SOL    HW268027  10.820  12.374  10.010
55399SOL     OW68028  12.542  13.649   6.262
55399SOL    HW168029  12.470  13.597   6.298
55399SOL    HW268030  12.579  13.593   6.193
55400SOL     OW68031   9.775  11.441   3.296
55400SOL    HW168032   9.819  11.407   3.218
55400SOL    HW268033   9.793  11.376   3.364
55401SOL     OW68034   7.240   8.555   0.555
55401SOL    HW168035   7.330   8.540   0.583
55401SOL    HW268036   7.194   8.474   0.579
55402SOL     OW68037   4.501  12.058   1.707
55402SOL    HW168038   4.570  12.113   1.743
55402SOL    HW268039   4.501  12.078   1.613
55403SOL     OW68040   0.033   3.119   2.700
55403SOL    HW168041   0.110   3.112   2.756
55403SOL    HW268042   0.064   3.097   2.612
55404SOL     OW68043  11.969   4.808  10.751
55404SOL    HW168044  12.053   4.765  10.737
55404SOL    HW268045  11.911   4.769  10.686
55405SOL     OW68046   8.989   8.593   8.247
55405SOL    HW168047   8.911   8.537   8.252
55405SOL    HW268048   9.055   8.538   8.205
55406SOL     OW68049  13.476   2.660   7.010
55406SOL    HW168050  13.456   2.566   7.012
55406SOL    HW268051  13.518   2.677   7.095
55407SOL     OW68052  12.025   1.190   2.191
55407SOL    HW168053  11.981   1.210   2.273
55407SOL    HW268054  11.960   1.211   2.123
55408SOL     OW68055   6.204   1.656   0.606
55408SOL    HW168056   6.187   1.730   0.548
55408SOL    HW268057   6.297   1.636   0.593
55409SOL     OW68058   1.184   4.552   9.697
55409SOL    HW168059   1.177   4.530   9.789
55409SOL    HW268060   1.157   4.473   9.650
55410SOL     OW68061   6.184   6.737   8.042
55410SOL    HW168062   6.252   6.783   7.992
55410SOL    HW268063   6.103   6.783   8.019
55411SOL     OW68064   3.990   9.591   5.112
55411SOL    HW168065   3.959   9.641   5.036
55411SOL    HW268066   4.003   9.502   5.078
55412SOL     OW68067   4.915  14.561   6.454
55412SOL    HW168068   4.972  14.487   6.476
55412SOL    HW268069   4.965  14.638   6.481
55413SOL     OW68070   2.182   5.810  10.741
55413SOL    HW168071   2.129   5.798  10.662
55413SOL    HW268072   2.123   5.786  10.812
55414SOL     OW68073   3.187  11.072   1.132
55414SOL    HW168074   3.273  11.109   1.153
55414SOL    HW268075   3.176  11.089   1.038
55415SOL     OW68076  10.688   6.299   8.367
55415SOL    HW168077  10.627   6.229   8.343
55415SOL    HW268078  10.722   6.272   8.452
55416SOL     OW68079   2.855   4.048   2.293
55416SOL    HW168080   2.896   4.129   2.262
55416SOL    HW268081   2.908   4.021   2.368
55417SOL     OW68082   2.463   0.029   7.458
55417SOL    HW168083   2.428   0.114   7.433
55417SOL    HW268084   2.531   0.011   7.393
55418SOL     OW68085   1.142  12.924   6.793
55418SOL    HW168086   1.125  12.875   6.713
55418SOL    HW268087   1.217  12.880   6.833
55419SOL     OW68088   2.508   5.995   9.270
55419SOL    HW168089   2.545   5.924   9.218
55419SOL    HW268090   2.413   5.988   9.257
55420SOL     OW68091   3.503   1.503  12.917
55420SOL    HW168092   3.560   1.546  12.854
55420SOL    HW268093   3.427   1.475  12.866
55421SOL     OW68094   9.347  12.727   3.299
55421SOL    HW168095   9.345  12.640   3.338
55421SOL    HW268096   9.383  12.784   3.368
55422SOL     OW68097  10.295   5.328   7.780
55422SOL    HW168098  10.387   5.331   7.756
55422SOL    HW268099  10.283   5.242   7.821
55423SOL     OW68100   2.607   9.571   5.168
55423SOL    HW168101   2.614   9.501   5.233
55423SOL    HW268102   2.512   9.583   5.156
55424SOL     OW68103  12.597   5.135   0.269
55424SOL    HW168104  12.537   5.123   0.195
55424SOL    HW268105  12.589   5.228   0.291
55425SOL     OW68106   9.146   4.769  14.727
55425SOL    HW168107   9.122   4.716  14.651
55425SOL    HW268108   9.118   4.858  14.704
55426SOL     OW68109   1.433  11.925   1.570
55426SOL    HW168110   1.373  11.968   1.510
55426SOL    HW268111   1.520  11.946   1.536
55427SOL     OW68112  13.514   7.955   3.105
55427SOL    HW168113  13.443   7.946   3.170
55427SOL    HW268114  13.560   8.034   3.131
55428SOL     OW68115  12.233   9.340   2.747
55428SOL    HW168116  12.232   9.354   2.653
55428SOL    HW268117  12.321   9.308   2.767
55429SOL     OW68118   2.350   5.332   5.337
55429SOL    HW168119   2.301   5.410   5.364
55429SOL    HW268120   2.351   5.277   5.416
55430SOL     OW68121   4.903   2.922   5.173
55430SOL    HW168122   4.812   2.895   5.173
55430SOL    HW268123   4.952   2.846   5.203
55431SOL     OW68124   5.188   9.950   3.301
55431SOL    HW168125   5.130   9.883   3.266
55431SOL    HW268126   5.269   9.941   3.251
55432SOL     OW68127   2.831  11.296  11.231
55432SOL    HW168128   2.897  11.272  11.166
55432SOL    HW268129   2.810  11.387  11.211
55433SOL     OW68130   0.885   5.837  13.249
55433SOL    HW168131   0.847   5.885  13.322
55433SOL    HW268132   0.819   5.773  13.224
55434SOL     OW68133   3.802  11.800   7.309
55434SOL    HW168134   3.848  11.880   7.335
55434SOL    HW268135   3.740  11.783   7.380
55435SOL     OW68136   8.585   4.294  12.606
55435SOL    HW168137   8.606   4.363  12.544
55435SOL    HW268138   8.666   4.246  12.618
55436SOL     OW68139   5.476   1.233   7.990
55436SOL    HW168140   5.476   1.233   7.894
55436SOL    HW268141   5.406   1.293   8.014
55437SOL     OW68142   1.248   8.468  11.067
55437SOL    HW168143   1.266   8.406  11.138
55437SOL    HW268144   1.266   8.554  11.104
55438SOL     OW68145  14.459  11.703   6.280
55438SOL    HW168146  14.383  11.732   6.332
55438SOL    HW268147  14.441  11.611   6.261
55439SOL     OW68148   2.610   2.224  14.027
55439SOL    HW168149   2.535   2.274  13.996
55439SOL    HW268150   2.614   2.243  14.121
55440SOL     OW68151   5.785  13.234  13.925
55440SOL    HW168152   5.828  13.319  13.920
55440SOL    HW268153   5.709  13.249  13.981
55441SOL     OW68154   9.041   3.760  14.799
55441SOL    HW168155   9.019   3.853  14.803
55441SOL    HW268156   9.109   3.754  14.732
55442SOL     OW68157   0.861   3.706   2.233
55442SOL    HW168158   0.771   3.676   2.242
55442SOL    HW268159   0.881   3.748   2.317
55443SOL     OW68160  12.512   7.099  13.301
55443SOL    HW168161  12.558   7.169  13.349
55443SOL    HW268162  12.491   7.138  13.216
55444SOL     OW68163  11.619   1.590   2.599
55444SOL    HW168164  11.619   1.598   2.503
55444SOL    HW268165  11.556   1.656   2.628
55445SOL     OW68166   5.685   5.990  13.009
55445SOL    HW168167   5.666   5.954  12.923
55445SOL    HW268168   5.606   6.037  13.034
55446SOL     OW68169  12.680   4.418   7.566
55446SOL    HW168170  12.646   4.502   7.534
55446SOL    HW268171  12.720   4.378   7.489
55447SOL     OW68172   7.952  13.570   9.917
55447SOL    HW168173   7.888  13.520   9.966
55447SOL    HW268174   8.034  13.559   9.965
55448SOL     OW68175   1.997   3.609  11.634
55448SOL    HW168176   2.013   3.577  11.545
55448SOL    HW268177   1.936   3.682  11.623
55449SOL     OW68178   8.844   8.398  12.840
55449SOL    HW168179   8.901   8.437  12.774
55449SOL    HW268180   8.788   8.338  12.791
55450SOL     OW68181  12.802   4.483   0.712
55450SOL    HW168182  12.854   4.542   0.658
55450SOL    HW268183  12.757   4.427   0.649
55451SOL     OW68184  13.214   3.928   3.260
55451SOL    HW168185  13.294   3.962   3.219
55451SOL    HW268186  13.144   3.978   3.219
55452SOL     OW68187   8.825  14.084   4.608
55452SOL    HW168188   8.918  14.106   4.616
55452SOL    HW268189   8.793  14.084   4.699
55453SOL     OW68190  11.872  12.342   7.234
55453SOL    HW168191  11.804  12.289   7.276
55453SOL    HW268192  11.870  12.425   7.282
55454SOL     OW68193   3.434   8.605   2.686
55454SOL    HW168194   3.422   8.546   2.760
55454SOL    HW268195   3.422   8.549   2.609
55455SOL     OW68196  12.793   7.580  10.135
55455SOL    HW168197  12.770   7.664  10.173
55455SOL    HW268198  12.788   7.518  10.207
55456SOL     OW68199  11.781   4.017   5.739
55456SOL    HW168200  11.769   4.028   5.833
55456SOL    HW268201  11.735   3.936   5.717
55457SOL     OW68202   9.554   3.534  12.602
55457SOL    HW168203   9.580   3.447  12.632
55457SOL    HW268204   9.484   3.560  12.661
55458SOL     OW68205  14.647  13.721   8.199
55458SOL    HW168206  14.583  13.771   8.148
55458SOL    HW268207  14.597  13.688   8.274
55459SOL     OW68208  13.802   1.216   6.245
55459SOL    HW168209  13.866   1.274   6.286
55459SOL    HW268210  13.775   1.157   6.315
55460SOL     OW68211   2.360   3.125   4.989
55460SOL    HW168212   2.391   3.151   4.902
55460SOL    HW268213   2.437   3.134   5.046
55461SOL     OW68214   2.021  13.418   1.994
55461SOL    HW168215   2.049  13.497   1.948
55461SOL    HW268216   1.926  13.425   1.999
55462SOL     OW68217   6.806   0.728   3.507
55462SOL    HW168218   6.789   0.690   3.593
55462SOL    HW268219   6.901   0.717   3.495
55463SOL     OW68220  11.483   5.386   0.481
55463SOL    HW168221  11.520   5.325   0.417
55463SOL    HW268222  11.394   5.402   0.450
55464SOL     OW68223   8.524   3.750  10.014
55464SOL    HW168224   8.462   3.725   9.947
55464SOL    HW268225   8.508   3.844  10.029
55465SOL     OW68226   5.555  12.007   7.735
55465SOL    HW168227   5.526  12.078   7.793
55465SOL    HW268228   5.536  11.927   7.783
55466SOL     OW68229  13.775   0.426  13.721
55466SOL    HW168230  13.703   0.477  13.758
55466SOL    HW268231  13.758   0.425  13.627
55467SOL     OW68232  11.518   7.818   2.768
55467SOL    HW168233  11.426   7.802   2.749
55467SOL    HW268234  11.560   7.733   2.751
55468SOL     OW68235   6.424   3.619   5.366
55468SOL    HW168236   6.447   3.623   5.273
55468SOL    HW268237   6.432   3.710   5.397
55469SOL     OW68238   9.782   6.343   4.567
55469SOL    HW168239   9.774   6.262   4.517
55469SOL    HW268240   9.852   6.392   4.523
55470SOL     OW68241  14.726  14.714   2.608
55470SOL    HW168242  14.775  14.711   2.526
55470SOL    HW268243  14.662  14.643   2.600
55471SOL     OW68244   0.599   9.918  13.930
55471SOL    HW168245   0.563   9.891  13.846
55471SOL    HW268246   0.589  10.013  13.931
55472SOL     OW68247   1.726   6.759   8.371
55472SOL    HW168248   1.738   6.853   8.353
55472SOL    HW268249   1.777   6.715   8.304
55473SOL     OW68250  12.794   6.291   9.789
55473SOL    HW168251  12.868   6.264   9.735
55473SOL    HW268252  12.774   6.214   9.842
55474SOL     OW68253  13.609   7.289   7.324
55474SOL    HW168254  13.636   7.272   7.234
55474SOL    HW268255  13.673   7.353   7.357
55475SOL     OW68256  12.003   9.537   6.838
55475SOL    HW168257  11.937   9.482   6.880
55475SOL    HW268258  11.990   9.522   6.744
55476SOL     OW68259   4.110   8.438  11.191
55476SOL    HW168260   4.193   8.439  11.238
55476SOL    HW268261   4.100   8.527  11.159
55477SOL     OW68262   7.275  14.436   0.706
55477SOL    HW168263   7.327  14.513   0.683
55477SOL    HW268264   7.288  14.375   0.633
55478SOL     OW68265   4.849   9.473   5.533
55478SOL    HW168266   4.917   9.407   5.518
55478SOL    HW268267   4.895   9.557   5.528
55479SOL     OW68268  12.793   3.490   5.136
55479SOL    HW168269  12.726   3.469   5.072
55479SOL    HW268270  12.799   3.586   5.134
55480SOL     OW68271  12.263   2.895  10.925
55480SOL    HW168272  12.317   2.828  10.883
55480SOL    HW268273  12.286   2.976  10.880
55481SOL     OW68274   5.941   0.840   3.690
55481SOL    HW168275   5.932   0.744   3.687
55481SOL    HW268276   5.852   0.872   3.677
55482SOL     OW68277   1.410   1.463   6.336
55482SOL    HW168278   1.417   1.369   6.355
55482SOL    HW268279   1.342   1.469   6.269
55483SOL     OW68280   5.397   3.056  13.623
55483SOL    HW168281   5.423   3.035  13.533
55483SOL    HW268282   5.427   2.981  13.675
55484SOL     OW68283  12.103   3.334   0.834
55484SOL    HW168284  12.133   3.396   0.767
55484SOL    HW268285  12.098   3.386   0.914
55485SOL     OW68286  12.458   7.185   5.605
55485SOL    HW168287  12.437   7.276   5.584
55485SOL    HW268288  12.428   7.174   5.695
55486SOL     OW68289   1.247   8.554   5.099
55486SOL    HW168290   1.317   8.551   5.165
55486SOL    HW268291   1.167   8.535   5.148
55487SOL     OW68292   7.380  13.143   2.844
55487SOL    HW168293   7.392  13.083   2.919
55487SOL    HW268294   7.329  13.092   2.781
55488SOL     OW68295   0.376  13.312   2.427
55488SOL    HW168296   0.341  13.269   2.349
55488SOL    HW268297   0.464  13.276   2.437
55489SOL     OW68298   4.752   2.118   1.055
55489SOL    HW168299   4.803   2.098   1.134
55489SOL    HW268300   4.729   2.210   1.064
55490SOL     OW68301   3.355  10.170   1.465
55490SOL    HW168302   3.277  10.115   1.460
55490SOL    HW268303   3.419  10.127   1.409
55491SOL     OW68304   2.323  13.580  13.146
55491SOL    HW168305   2.296  13.505  13.092
55491SOL    HW268306   2.281  13.563  13.230
55492SOL     OW68307   2.188   7.417  11.993
55492SOL    HW168308   2.254   7.350  12.014
55492SOL    HW268309   2.106   7.368  11.985
55493SOL     OW68310  10.760   2.755   8.030
55493SOL    HW168311  10.670   2.767   7.998
55493SOL    HW268312  10.815   2.800   7.967
55494SOL     OW68313  14.619  10.977   5.529
55494SOL    HW168314  14.588  11.034   5.459
55494SOL    HW268315  14.542  10.928   5.556
55495SOL     OW68316   7.547   8.154  14.839
55495SOL    HW168317   7.568   8.189  14.753
55495SOL    HW268318   7.503   8.070  14.820
55496SOL     OW68319  10.674  10.989   3.734
55496SOL    HW168320  10.746  10.932   3.761
55496SOL    HW268321  10.716  11.065   3.694
55497SOL     OW68322   0.449   7.178   4.607
55497SOL    HW168323   0.523   7.203   4.551
55497SOL    HW268324   0.379   7.155   4.545
55498SOL     OW68325   4.440   1.036   6.505
55498SOL    HW168326   4.378   1.037   6.578
55498SOL    HW268327   4.405   1.102   6.443
55499SOL     OW68328  12.972   9.183   6.475
55499SOL    HW168329  13.005   9.172   6.386
55499SOL    HW268330  12.955   9.277   6.483
55500SOL     OW68331  11.687  12.193   4.068
55500SOL    HW168332  11.711  12.149   3.987
55500SOL    HW268333  11.605  12.152   4.095
55501SOL     OW68334  13.455   9.566   4.733
55501SOL    HW168335  13.478   9.509   4.806
55501SOL    HW268336  13.417   9.644   4.774
55502SOL     OW68337   4.947   2.427   8.427
55502SOL    HW168338   4.906   2.481   8.495
55502SOL    HW268339   5.040   2.426   8.451
55503SOL     OW68340  11.390   9.244   1.350
55503SOL    HW168341  11.404   9.338   1.361
55503SOL    HW268342  11.300   9.236   1.319
55504SOL     OW68343   9.634   5.263   0.255
55504SOL    HW168344   9.635   5.178   0.211
55504SOL    HW268345   9.609   5.326   0.188
55505SOL     OW68346   4.907  10.045   4.289
55505SOL    HW168347   4.975  10.034   4.223
55505SOL    HW268348   4.941  10.114   4.347
55506SOL     OW68349   0.600   2.857   9.906
55506SOL    HW168350   0.548   2.777   9.897
55506SOL    HW268351   0.540   2.928   9.885
55507SOL     OW68352   9.853  11.845  14.843
55507SOL    HW168353   9.795  11.915  14.873
55507SOL    HW268354   9.917  11.835   0.038
55508SOL     OW68355  14.269   9.685   8.389
55508SOL    HW168356  14.185   9.681   8.344
55508SOL    HW268357  14.263   9.763   8.445
55509SOL     OW68358   4.967   5.996  13.958
55509SOL    HW168359   5.015   6.078  13.946
55509SOL    HW268360   4.937   5.973  13.870
55510SOL     OW68361   6.592   3.537   9.780
55510SOL    HW168362   6.562   3.461   9.730
55510SOL    HW268363   6.594   3.609   9.717
55511SOL     OW68364  13.325   9.470   1.912
55511SOL    HW168365  13.314   9.556   1.871
55511SOL    HW268366  13.363   9.489   1.997
55512SOL     OW68367   3.867  11.263   1.804
55512SOL    HW168368   3.837  11.330   1.742
55512SOL    HW268369   3.839  11.297   1.889
55513SOL     OW68370   9.487   9.950   4.209
55513SOL    HW168371   9.493   9.983   4.119
55513SOL    HW268372   9.395   9.959   4.232
55514SOL     OW68373   5.199  10.037  12.903
55514SOL    HW168374   5.228   9.962  12.851
55514SOL    HW268375   5.280  10.082  12.927
55515SOL     OW68376   0.643   0.869   6.544
55515SOL    HW168377   0.671   0.819   6.621
55515SOL    HW268378   0.718   0.926   6.524
55516SOL     OW68379  14.521   9.229  11.475
55516SOL    HW168380  14.519   9.188  11.388
55516SOL    HW268381  14.579   9.304  11.464
55517SOL     OW68382  11.098  10.130   6.173
55517SOL    HW168383  11.156  10.054   6.174
55517SOL    HW268384  11.094  10.156   6.081
55518SOL     OW68385   9.567  13.074   4.162
55518SOL    HW168386   9.564  12.989   4.118
55518SOL    HW268387   9.552  13.138   4.092
55519SOL     OW68388  10.150   3.014   9.082
55519SOL    HW168389  10.065   2.986   9.114
55519SOL    HW268390  10.140   3.108   9.064
55520SOL     OW68391  14.149   0.443   0.149
55520SOL    HW168392  14.109   0.392   0.078
55520SOL    HW268393  14.241   0.452   0.123
55521SOL     OW68394   7.365   1.920   1.296
55521SOL    HW168395   7.350   1.854   1.363
55521SOL    HW268396   7.344   2.003   1.339
55522SOL     OW68397   0.006   4.221   0.965
55522SOL    HW168398  14.842   4.307   0.977
55522SOL    HW268399  14.847   4.168   1.037
55523SOL     OW68400   0.924  10.086  11.459
55523SOL    HW168401   0.876  10.166  11.478
55523SOL    HW268402   0.959  10.058  11.544
55524SOL     OW68403   0.149   4.470   0.140
55524SOL    HW168404   0.202   4.442   0.214
55524SOL    HW268405   0.066   4.499   0.179
55525SOL     OW68406   2.635  10.226  14.355
55525SOL    HW168407   2.697  10.159  14.381
55525SOL    HW268408   2.589  10.189  14.279
55526SOL     OW68409   4.647   3.228   3.400
55526SOL    HW168410   4.727   3.179   3.415
55526SOL    HW268411   4.623   3.208   3.309
55527SOL     OW68412  10.337   2.296  11.411
55527SOL    HW168413  10.337   2.371  11.470
55527SOL    HW268414  10.403   2.317  11.346
55528SOL     OW68415   4.828   6.053   2.746
55528SOL    HW168416   4.794   5.975   2.789
55528SOL    HW268417   4.765   6.069   2.675
55529SOL     OW68418   2.959  10.249  11.002
55529SOL    HW168419   2.958  10.250  11.097
55529SOL    HW268420   2.895  10.182  10.978
55530SOL     OW68421   7.784   8.634   1.597
55530SOL    HW168422   7.812   8.688   1.522
55530SOL    HW268423   7.786   8.694   1.671
55531SOL     OW68424  13.016   0.116   7.361
55531SOL    HW168425  13.083   0.128   7.293
55531SOL    HW268426  13.050   0.044   7.415
55532SOL     OW68427   7.866  13.538   8.265
55532SOL    HW168428   7.942  13.583   8.302
55532SOL    HW268429   7.792  13.595   8.284
55533SOL     OW68430   2.952   7.649  12.137
55533SOL    HW168431   3.037   7.606  12.127
55533SOL    HW268432   2.902   7.591  12.194
55534SOL     OW68433   9.227  10.185   4.987
55534SOL    HW168434   9.229  10.271   5.028
55534SOL    HW268435   9.294  10.189   4.918
55535SOL     OW68436   0.689   6.928   4.564
55535SOL    HW168437   0.607   6.977   4.566
55535SOL    HW268438   0.745   6.972   4.628
55536SOL     OW68439   2.158   1.561  12.308
55536SOL    HW168440   2.214   1.616  12.253
55536SOL    HW268441   2.098   1.623  12.349
55537SOL     OW68442   7.959   3.630  12.467
55537SOL    HW168443   7.988   3.552  12.420
55537SOL    HW268444   7.943   3.696  12.399
55538SOL     OW68445  14.489   1.483  11.161
55538SOL    HW168446  14.397   1.500  11.140
55538SOL    HW268447  14.537   1.555  11.119
55539SOL     OW68448   4.975  14.079   8.901
55539SOL    HW168449   4.936  13.994   8.878
55539SOL    HW268450   5.062  14.076   8.863
55540SOL     OW68451   4.957   9.883  12.905
55540SOL    HW168452   4.899   9.884  12.829
55540SOL    HW268453   5.000   9.969  12.904
55541SOL     OW68454   6.760  12.247   9.196
55541SOL    HW168455   6.767  12.267   9.102
55541SOL    HW268456   6.706  12.318   9.231
55542SOL     OW68457   6.229   6.218   3.228
55542SOL    HW168458   6.286   6.285   3.189
55542SOL    HW268459   6.145   6.230   3.185
55543SOL     OW68460  14.443   7.995  14.520
55543SOL    HW168461  14.443   8.068  14.457
55543SOL    HW268462  14.355   7.996  14.557
55544SOL     OW68463  12.748   2.635   9.260
55544SOL    HW168464  12.838   2.665   9.273
55544SOL    HW268465  12.735   2.637   9.165
55545SOL     OW68466   7.318   9.532   7.550
55545SOL    HW168467   7.338   9.531   7.644
55545SOL    HW268468   7.244   9.473   7.541
55546SOL     OW68469   1.811   3.452  13.978
55546SOL    HW168470   1.728   3.478  14.017
55546SOL    HW268471   1.878   3.480  14.041
55547SOL     OW68472   5.491   6.867   9.008
55547SOL    HW168473   5.500   6.773   8.992
55547SOL    HW268474   5.402   6.888   8.980
55548SOL     OW68475   5.031  14.006   0.871
55548SOL    HW168476   4.959  13.957   0.832
55548SOL    HW268477   5.076  13.942   0.927
55549SOL     OW68478  13.790   8.072   6.528
55549SOL    HW168479  13.865   8.052   6.472
55549SOL    HW268480  13.720   8.018   6.493
55550SOL     OW68481  11.674  11.606   1.186
55550SOL    HW168482  11.597  11.590   1.240
55550SOL    HW268483  11.680  11.530   1.129
55551SOL     OW68484  11.330   6.755   9.740
55551SOL    HW168485  11.292   6.735   9.655
55551SOL    HW268486  11.360   6.670   9.774
55552SOL     OW68487   2.684   9.072  14.836
55552SOL    HW168488   2.714   9.108  14.753
55552SOL    HW268489   2.618   9.007  14.811
55553SOL     OW68490  10.131   1.411   5.167
55553SOL    HW168491  10.171   1.498   5.157
55553SOL    HW268492  10.106   1.387   5.078
55554SOL     OW68493  13.090   7.076   3.419
55554SOL    HW168494  13.020   7.116   3.368
55554SOL    HW268495  13.044   7.015   3.478
55555SOL     OW68496   4.492   1.498   3.898
55555SOL    HW168497   4.556   1.482   3.967
55555SOL    HW268498   4.453   1.582   3.920
55556SOL     OW68499   3.402  10.502   9.318
55556SOL    HW168500   3.440  10.414   9.325
55556SOL    HW268501   3.421  10.528   9.228
55557SOL     OW68502  10.159   9.739   5.642
55557SOL    HW168503  10.134   9.723   5.733
55557SOL    HW268504  10.229   9.804   5.647
55558SOL     OW68505   2.205   6.243   3.827
55558SOL    HW168506   2.291   6.201   3.831
55558SOL    HW268507   2.157   6.194   3.761
55559SOL     OW68508  13.225   4.730   6.551
55559SOL    HW168509  13.209   4.756   6.460
55559SOL    HW268510  13.159   4.663   6.569
55560SOL     OW68511  10.130   6.465  12.411
55560SOL    HW168512  10.186   6.438  12.338
55560SOL    HW268513  10.165   6.549  12.439
55561SOL     OW68514   8.179   2.904   0.006
55561SOL    HW168515   8.131   2.851  14.818
55561SOL    HW268516   8.113   2.930   0.070
55562SOL     OW68517   5.558   7.686   6.597
55562SOL    HW168518   5.525   7.711   6.684
55562SOL    HW268519   5.630   7.747   6.580
55563SOL     OW68520   4.268  11.046  14.483
55563SOL    HW168521   4.182  11.015  14.452
55563SOL    HW268522   4.330  10.981  14.448
55564SOL     OW68523   1.772   5.811   7.327
55564SOL    HW168524   1.745   5.748   7.394
55564SOL    HW268525   1.720   5.787   7.250
55565SOL     OW68526   2.548  10.313   9.902
55565SOL    HW168527   2.528  10.351   9.816
55565SOL    HW268528   2.521  10.381   9.964
55566SOL     OW68529  11.288   6.023  10.358
55566SOL    HW168530  11.316   5.990  10.443
55566SOL    HW268531  11.201   6.059  10.374
55567SOL     OW68532  10.327  12.465  12.963
55567SOL    HW168533  10.339  12.554  12.996
55567SOL    HW268534  10.238  12.442  12.990
55568SOL     OW68535   0.300   2.129   9.357
55568SOL    HW168536   0.279   2.202   9.416
55568SOL    HW268537   0.215   2.092   9.335
55569SOL     OW68538   2.329   5.608  11.506
55569SOL    HW168539   2.364   5.541  11.447
55569SOL    HW268540   2.269   5.659  11.451
55570SOL     OW68541   5.132   0.998   5.592
55570SOL    HW168542   5.045   0.963   5.572
55570SOL    HW268543   5.159   1.043   5.512
55571SOL     OW68544   9.738   7.702  10.302
55571SOL    HW168545   9.753   7.669  10.390
55571SOL    HW268546   9.729   7.797  10.312
55572SOL     OW68547   7.042  14.483  13.832
55572SOL    HW168548   6.999  14.418  13.777
55572SOL    HW268549   7.078  14.433  13.905
55573SOL     OW68550  14.454   9.453   6.770
55573SOL    HW168551  14.530   9.509   6.754
55573SOL    HW268552  14.437   9.410   6.686
55574SOL     OW68553   5.780   4.895   8.709
55574SOL    HW168554   5.848   4.906   8.776
55574SOL    HW268555   5.743   4.982   8.697
55575SOL     OW68556   3.942  12.971   4.558
55575SOL    HW168557   3.980  12.893   4.516
55575SOL    HW268558   3.951  13.040   4.493
55576SOL     OW68559   7.652  10.899  11.743
55576SOL    HW168560   7.578  10.942  11.787
55576SOL    HW268561   7.617  10.814  11.717
55577SOL     OW68562   6.441  14.508  12.097
55577SOL    HW168563   6.494  14.462  12.031
55577SOL    HW268564   6.361  14.455  12.104
55578SOL     OW68565   5.326  14.044   0.242
55578SOL    HW168566   5.239  14.069   0.272
55578SOL    HW268567   5.384  14.112   0.276
55579SOL     OW68568  10.625   3.215   2.122
55579SOL    HW168569  10.686   3.145   2.098
55579SOL    HW268570  10.676   3.296   2.112
55580SOL     OW68571  12.959  10.820   4.570
55580SOL    HW168572  12.907  10.740   4.571
55580SOL    HW268573  13.046  10.792   4.544
55581SOL     OW68574   4.406   6.038   0.361
55581SOL    HW168575   4.382   6.124   0.326
55581SOL    HW268576   4.475   6.056   0.425
55582SOL     OW68577   7.202   5.183  12.293
55582SOL    HW168578   7.215   5.128  12.371
55582SOL    HW268579   7.237   5.268  12.319
55583SOL     OW68580   6.006   9.281   7.042
55583SOL    HW168581   6.059   9.294   7.120
55583SOL    HW268582   6.045   9.205   6.998
55584SOL     OW68583   4.163  11.894   5.852
55584SOL    HW168584   4.177  11.805   5.885
55584SOL    HW268585   4.075  11.892   5.815
55585SOL     OW68586   8.454   9.578   3.598
55585SOL    HW168587   8.529   9.631   3.626
55585SOL    HW268588   8.481   9.488   3.612
55586SOL     OW68589   0.522   3.102   7.955
55586SOL    HW168590   0.437   3.146   7.960
55586SOL    HW268591   0.581   3.159   8.004
55587SOL     OW68592   4.713  12.501   0.956
55587SOL    HW168593   4.619  12.486   0.950
55587SOL    HW268594   4.745  12.431   1.013
55588SOL     OW68595  12.940   0.726   9.551
55588SOL    HW168596  12.934   0.795   9.618
55588SOL    HW268597  12.993   0.764   9.482
55589SOL     OW68598  11.433   0.967   8.449
55589SOL    HW168599  11.465   1.023   8.520
55589SOL    HW268600  11.416   1.028   8.377
55590SOL     OW68601   4.517  12.708   6.889
55590SOL    HW168602   4.607  12.737   6.876
55590SOL    HW268603   4.525  12.630   6.945
55591SOL     OW68604  12.482  14.817   2.303
55591SOL    HW168605  12.551  14.751   2.315
55591SOL    HW268606  12.529   0.023   2.287
55592SOL     OW68607   5.728   5.704   6.943
55592SOL    HW168608   5.756   5.796   6.942
55592SOL    HW268609   5.718   5.681   6.851
55593SOL     OW68610  12.489   6.175   0.377
55593SOL    HW168611  12.506   6.112   0.447
55593SOL    HW268612  12.574   6.215   0.360
55594SOL     OW68613   9.530   2.285   3.392
55594SOL    HW168614   9.555   2.201   3.432
55594SOL    HW268615   9.584   2.292   3.314
55595SOL     OW68616   6.671  10.396  13.435
55595SOL    HW168617   6.720  10.450  13.497
55595SOL    HW268618   6.733  10.380  13.363
55596SOL     OW68619   1.914  11.139   3.883
55596SOL    HW168620   2.007  11.145   3.908
55596SOL    HW268621   1.913  11.080   3.808
55597SOL     OW68622  13.108   4.499  11.705
55597SOL    HW168623  13.094   4.561  11.777
55597SOL    HW268624  13.155   4.549  11.639
55598SOL     OW68625   9.982   8.567   4.692
55598SOL    HW168626  10.023   8.495   4.739
55598SOL    HW268627   9.926   8.525   4.626
55599SOL     OW68628   0.789   9.194   3.563
55599SOL    HW168629   0.850   9.125   3.537
55599SOL    HW268630   0.825   9.274   3.523
55600SOL     OW68631   2.482   7.731   0.308
55600SOL    HW168632   2.514   7.654   0.262
55600SOL    HW268633   2.521   7.725   0.395
55601SOL     OW68634   0.129  12.558  14.004
55601SOL    HW168635   0.141  12.464  14.014
55601SOL    HW268636   0.217  12.595  14.008
55602SOL     OW68637   0.859   0.702   7.873
55602SOL    HW168638   0.770   0.729   7.850
55602SOL    HW268639   0.898   0.779   7.914
55603SOL     OW68640  11.577   3.289   9.398
55603SOL    HW168641  11.670   3.293   9.375
55603SOL    HW268642  11.557   3.374   9.436
55604SOL     OW68643   1.996  12.642   6.803
55604SOL    HW168644   2.013  12.636   6.897
55604SOL    HW268645   1.946  12.563   6.782
55605SOL     OW68646  14.773   9.415   4.794
55605SOL    HW168647  14.745   9.358   4.866
55605SOL    HW268648  14.782   9.502   4.834
55606SOL     OW68649  13.212  14.366  12.223
55606SOL    HW168650  13.216  14.462  12.229
55606SOL    HW268651  13.271  14.345  12.150
55607SOL     OW68652  10.085  12.023  14.196
55607SOL    HW168653  10.132  12.090  14.145
55607SOL    HW268654  10.077  11.949  14.136
55608SOL     OW68655  14.291   8.108   8.032
55608SOL    HW168656  14.385   8.099   8.045
55608SOL    HW268657  14.272   8.055   7.955
55609SOL     OW68658   6.253   0.249   5.447
55609SOL    HW168659   6.240   0.155   5.457
55609SOL    HW268660   6.169   0.288   5.473
55610SOL     OW68661   9.982  10.730  14.138
55610SOL    HW168662  10.054  10.731  14.075
55610SOL    HW268663   9.920  10.795  14.105
55611SOL     OW68664  13.166   1.676   5.316
55611SOL    HW168665  13.176   1.592   5.360
55611SOL    HW268666  13.105   1.725   5.371
55612SOL     OW68667   4.437  14.842   0.269
55612SOL    HW168668   4.405  14.751   0.270
55612SOL    HW268669   4.473  14.854   0.181
55613SOL     OW68670   8.649   2.531   1.755
55613SOL    HW168671   8.584   2.530   1.684
55613SOL    HW268672   8.655   2.439   1.783
55614SOL     OW68673  13.310   3.327  14.212
55614SOL    HW168674  13.310   3.417  14.181
55614SOL    HW268675  13.402   3.310  14.235
55615SOL     OW68676   6.934   6.199  10.469
55615SOL    HW168677   6.859   6.180  10.526
55615SOL    HW268678   6.919   6.288  10.438
55616SOL     OW68679   8.489   7.664   9.349
55616SOL    HW168680   8.536   7.627   9.424
55616SOL    HW268681   8.486   7.593   9.285
55617SOL     OW68682   8.635   3.489   8.075
55617SOL    HW168683   8.715   3.462   8.030
55617SOL    HW268684   8.564   3.458   8.019
55618SOL     OW68685   3.105  13.027   7.066
55618SOL    HW168686   3.033  13.044   7.005
55618SOL    HW268687   3.182  13.062   7.022
55619SOL     OW68688   7.940   4.807   1.343
55619SOL    HW168689   7.861   4.812   1.289
55619SOL    HW268690   8.001   4.867   1.300
55620SOL     OW68691   7.644   1.041   8.401
55620SOL    HW168692   7.677   1.007   8.318
55620SOL    HW268693   7.667   0.974   8.465
55621SOL     OW68694   8.929   5.130   0.638
55621SOL    HW168695   9.023   5.127   0.620
55621SOL    HW268696   8.890   5.166   0.558
55622SOL     OW68697   6.983   1.792   5.223
55622SOL    HW168698   6.973   1.699   5.242
55622SOL    HW268699   6.997   1.832   5.309
55623SOL     OW68700   9.070  13.899   7.723
55623SOL    HW168701   9.016  13.961   7.772
55623SOL    HW268702   9.125  13.953   7.668
55624SOL     OW68703   3.805   6.737   7.982
55624SOL    HW168704   3.862   6.814   7.979
55624SOL    HW268705   3.865   6.663   7.990
55625SOL     OW68706  14.833  13.133   2.520
55625SOL    HW168707  14.838  13.163   2.429
55625SOL    HW268708  14.782  13.200   2.565
55626SOL     OW68709  11.201   6.651  13.245
55626SOL    HW168710  11.120   6.626  13.201
55626SOL    HW268711  11.270   6.635  13.180
55627SOL     OW68712   1.230  13.498  13.904
55627SOL    HW168713   1.248  13.457  13.988
55627SOL    HW268714   1.239  13.428  13.840
55628SOL     OW68715   7.382   0.935  12.056
55628SOL    HW168716   7.315   0.967  12.118
55628SOL    HW268717   7.335   0.926  11.973
55629SOL     OW68718   9.090   1.000  14.308
55629SOL    HW168719   9.091   1.028  14.400
55629SOL    HW268720   9.156   1.054  14.265
55630SOL     OW68721   0.149   3.650   3.081
55630SOL    HW168722   0.115   3.616   3.164
55630SOL    HW268723   0.102   3.601   3.014
55631SOL     OW68724   9.172  14.658   2.740
55631SOL    HW168725   9.221  14.679   2.661
55631SOL    HW268726   9.239  14.630   2.803
55632SOL     OW68727   2.960  10.774  14.444
55632SOL    HW168728   2.993  10.715  14.376
55632SOL    HW268729   2.877  10.806  14.409
55633SOL     OW68730   2.063  14.839  11.428
55633SOL    HW168731   2.152  14.872  11.431
55633SOL    HW268732   2.063  14.776  11.356
55634SOL     OW68733   5.188  10.371  12.560
55634SOL    HW168734   5.109  10.403  12.517
55634SOL    HW268735   5.164  10.284  12.593
55635SOL     OW68736   8.942   3.253   1.117
55635SOL    HW168737   8.922   3.167   1.080
55635SOL    HW268738   9.035   3.249   1.139
55636SOL     OW68739   0.902  14.688   8.016
55636SOL    HW168740   0.828  14.747   7.996
55636SOL    HW268741   0.862  14.616   8.065
55637SOL     OW68742  13.179   7.593   1.853
55637SOL    HW168743  13.166   7.659   1.785
55637SOL    HW268744  13.226   7.639   1.922
55638SOL     OW68745   8.703  10.665  14.035
55638SOL    HW168746   8.708  10.608  14.112
55638SOL    HW268747   8.696  10.754  14.071
55639SOL     OW68748   3.060   5.640   4.997
55639SOL    HW168749   3.044   5.617   5.089
55639SOL    HW268750   2.995   5.591   4.948
55640SOL     OW68751   9.197  12.667  10.598
55640SOL    HW168752   9.254  12.607  10.646
55640SOL    HW268753   9.236  12.671  10.510
55641SOL     OW68754   4.225   4.380   2.502
55641SOL    HW168755   4.241   4.474   2.513
55641SOL    HW268756   4.132   4.374   2.480
55642SOL     OW68757   5.036  13.657  14.662
55642SOL    HW168758   5.099  13.712  14.617
55642SOL    HW268759   5.060  13.567  14.638
55643SOL     OW68760   6.965   0.243   2.152
55643SOL    HW168761   6.909   0.164   2.149
55643SOL    HW268762   6.986   0.253   2.245
55644SOL     OW68763   5.590   9.802  14.673
55644SOL    HW168764   5.659   9.855  14.634
55644SOL    HW268765   5.633   9.719  14.693
55645SOL     OW68766   5.480  10.241   3.194
55645SOL    HW168767   5.405  10.236   3.136
55645SOL    HW268768   5.481  10.158   3.241
55646SOL     OW68769   4.882  14.492   9.465
55646SOL    HW168770   4.902  14.413   9.415
55646SOL    HW268771   4.792  14.513   9.442
55647SOL     OW68772  13.576  12.724   5.009
55647SOL    HW168773  13.541  12.669   4.938
55647SOL    HW268774  13.498  12.759   5.052
55648SOL     OW68775   3.953   4.540  13.485
55648SOL    HW168776   3.921   4.523  13.396
55648SOL    HW268777   4.040   4.500  13.487
55649SOL     OW68778   4.667   2.428   1.970
55649SOL    HW168779   4.723   2.499   2.001
55649SOL    HW268780   4.695   2.413   1.879
55650SOL     OW68781   1.307   1.928   3.967
55650SOL    HW168782   1.355   1.874   4.029
55650SOL    HW268783   1.232   1.875   3.941
55651SOL     OW68784   5.640  14.388   4.468
55651SOL    HW168785   5.730  14.410   4.490
55651SOL    HW268786   5.641  14.293   4.456
55652SOL     OW68787  14.849  14.260  11.219
55652SOL    HW168788   0.063  14.286  11.197
55652SOL    HW268789  14.859  14.206  11.297
55653SOL     OW68790   1.236  11.000   3.492
55653SOL    HW168791   1.239  10.962   3.580
55653SOL    HW268792   1.226  11.094   3.506
55654SOL     OW68793   9.481   2.056   1.809
55654SOL    HW168794   9.540   2.131   1.810
55654SOL    HW268795   9.399   2.089   1.845
55655SOL     OW68796   8.292   3.497  10.538
55655SOL    HW168797   8.212   3.443  10.542
55655SOL    HW268798   8.362   3.438  10.565
55656SOL     OW68799   5.069   9.951   2.696
55656SOL    HW168800   5.107   9.992   2.619
55656SOL    HW268801   4.982   9.923   2.668
55657SOL     OW68802   1.093  14.509  11.782
55657SOL    HW168803   1.126  14.419  11.790
55657SOL    HW268804   1.169  14.560  11.754
55658SOL     OW68805   3.357  10.971  14.668
55658SOL    HW168806   3.396  10.909  14.730
55658SOL    HW268807   3.346  11.052  14.718
55659SOL     OW68808  12.209   0.031   4.938
55659SOL    HW168809  12.283  14.861   4.979
55659SOL    HW268810  12.235   0.124   4.938
55660SOL     OW68811   0.724   2.804  11.427
55660SOL    HW168812   0.796   2.825  11.368
55660SOL    HW268813   0.764   2.796  11.513
55661SOL     OW68814   0.113   6.583   8.112
55661SOL    HW168815   0.084   6.493   8.124
55661SOL    HW268816   0.041   6.636   8.148
55662SOL     OW68817   1.389   7.491   3.194
55662SOL    HW168818   1.438   7.572   3.182
55662SOL    HW268819   1.297   7.517   3.180
55663SOL     OW68820   6.907   3.836   3.792
55663SOL    HW168821   6.937   3.828   3.702
55663SOL    HW268822   6.816   3.866   3.785
55664SOL     OW68823   8.242  12.018   5.101
55664SOL    HW168824   8.205  11.930   5.099
55664SOL    HW268825   8.211  12.056   5.183
55665SOL     OW68826   9.350   7.654   6.808
55665SOL    HW168827   9.394   7.572   6.785
55665SOL    HW268828   9.257   7.630   6.815
55666SOL     OW68829   9.007  11.892   3.767
55666SOL    HW168830   9.091  11.858   3.736
55666SOL    HW268831   8.950  11.886   3.690
55667SOL     OW68832  13.134   1.504   0.454
55667SOL    HW168833  13.126   1.410   0.474
55667SOL    HW268834  13.059   1.544   0.497
55668SOL     OW68835  11.127   6.770   7.797
55668SOL    HW168836  11.200   6.708   7.797
55668SOL    HW268837  11.049   6.715   7.800
55669SOL     OW68838  13.078   3.138   2.742
55669SOL    HW168839  13.036   3.089   2.814
55669SOL    HW268840  13.155   3.086   2.720
55670SOL     OW68841   7.595   7.733   7.715
55670SOL    HW168842   7.560   7.664   7.772
55670SOL    HW268843   7.525   7.747   7.650
55671SOL     OW68844  14.256  11.883  10.764
55671SOL    HW168845  14.335  11.929  10.791
55671SOL    HW268846  14.243  11.815  10.830
55672SOL     OW68847   7.034   5.364  14.487
55672SOL    HW168848   7.100   5.342  14.553
55672SOL    HW268849   7.086   5.385  14.409
55673SOL     OW68850  11.053  11.882  12.429
55673SOL    HW168851  11.135  11.917  12.394
55673SOL    HW268852  10.986  11.945  12.403
55674SOL     OW68853  10.842   7.657  12.835
55674SOL    HW168854  10.884   7.674  12.919
55674SOL    HW268855  10.857   7.737  12.784
55675SOL     OW68856   1.739  12.528   7.566
55675SOL    HW168857   1.832  12.519   7.583
55675SOL    HW268858   1.730  12.514   7.471
55676SOL     OW68859  10.038   1.496   4.129
55676SOL    HW168860  10.099   1.559   4.091
55676SOL    HW268861  10.093   1.426   4.163
55677SOL     OW68862  10.248   0.275   8.740
55677SOL    HW168863  10.341   0.254   8.743
55677SOL    HW268864  10.242   0.350   8.680
55678SOL     OW68865  12.133  12.346   1.836
55678SOL    HW168866  12.144  12.300   1.920
55678SOL    HW268867  12.157  12.437   1.856
55679SOL     OW68868   4.624  12.948   9.227
55679SOL    HW168869   4.573  12.993   9.160
55679SOL    HW268870   4.570  12.953   9.306
55680SOL     OW68871   2.808   0.026   8.674
55680SOL    HW168872   2.776   0.101   8.723
55680SOL    HW268873   2.892   0.055   8.637
55681SOL     OW68874   4.656   5.916   2.502
55681SOL    HW168875   4.572   5.913   2.456
55681SOL    HW268876   4.682   5.824   2.509
55682SOL     OW68877   8.463  10.104   7.000
55682SOL    HW168878   8.408  10.166   7.049
55682SOL    HW268879   8.552  10.121   7.031
55683SOL     OW68880  10.309   0.742   9.963
55683SOL    HW168881  10.332   0.655   9.997
55683SOL    HW268882  10.376   0.761   9.898
55684SOL     OW68883   8.628  10.140  14.809
55684SOL    HW168884   8.676  10.111   0.011
55684SOL    HW268885   8.536  10.124  14.831
55685SOL     OW68886   5.244   3.611   5.121
55685SOL    HW168887   5.181   3.569   5.180
55685SOL    HW268888   5.216   3.584   5.033
55686SOL     OW68889   9.995   1.072   2.542
55686SOL    HW168890   9.927   1.123   2.498
55686SOL    HW268891  10.075   1.094   2.496
55687SOL     OW68892  11.111   6.381  14.546
55687SOL    HW168893  11.040   6.376  14.610
55687SOL    HW268894  11.109   6.471  14.515
55688SOL     OW68895   7.868   9.706   7.367
55688SOL    HW168896   7.835   9.650   7.437
55688SOL    HW268897   7.954   9.735   7.397
55689SOL     OW68898   9.913  10.030  10.341
55689SOL    HW168899   9.849  10.095  10.313
55689SOL    HW268900   9.968  10.077  10.404
55690SOL     OW68901   7.807   1.214   3.300
55690SOL    HW168902   7.750   1.195   3.226
55690SOL    HW268903   7.892   1.177   3.275
55691SOL     OW68904   2.342  12.589   4.881
55691SOL    HW168905   2.291  12.561   4.805
55691SOL    HW268906   2.282  12.576   4.955
55692SOL     OW68907   6.535   1.948  12.691
55692SOL    HW168908   6.457   1.925  12.641
55692SOL    HW268909   6.606   1.902  12.646
55693SOL     OW68910  10.344   9.955  11.889
55693SOL    HW168911  10.325   9.886  11.953
55693SOL    HW268912  10.283  10.026  11.912
55694SOL     OW68913  12.872  11.849  10.894
55694SOL    HW168914  12.804  11.856  10.827
55694SOL    HW268915  12.892  11.939  10.918
55695SOL     OW68916  13.377   0.576   8.976
55695SOL    HW168917  13.313   0.574   9.047
55695SOL    HW268918  13.425   0.494   8.986
55696SOL     OW68919   5.465   2.980  11.804
55696SOL    HW168920   5.440   2.960  11.894
55696SOL    HW268921   5.521   2.907  11.777
55697SOL     OW68922   1.098   3.994   3.207
55697SOL    HW168923   1.002   3.992   3.208
55697SOL    HW268924   1.124   3.994   3.299
55698SOL     OW68925   0.776  11.217   1.595
55698SOL    HW168926   0.720  11.236   1.671
55698SOL    HW268927   0.860  11.258   1.617
55699SOL     OW68928   5.534   4.274  13.511
55699SOL    HW168929   5.554   4.180  13.504
55699SOL    HW268930   5.452   4.276  13.560
55700SOL     OW68931   9.069   0.750  14.059
55700SOL    HW168932   9.138   0.702  14.105
55700SOL    HW268933   8.996   0.751  14.121
55701SOL     OW68934   2.059   9.855  11.265
55701SOL    HW168935   2.025   9.906  11.190
55701SOL    HW268936   2.092   9.775  11.226
55702SOL     OW68937  11.686   8.162   4.134
55702SOL    HW168938  11.657   8.149   4.044
55702SOL    HW268939  11.765   8.215   4.127
55703SOL     OW68940  12.193  10.965   3.610
55703SOL    HW168941  12.166  10.931   3.695
55703SOL    HW268942  12.280  11.001   3.625
55704SOL     OW68943   0.856   6.404   1.193
55704SOL    HW168944   0.882   6.314   1.214
55704SOL    HW268945   0.938   6.453   1.192
55705SOL     OW68946   7.635   3.007  13.933
55705SOL    HW168947   7.634   3.084  13.876
55705SOL    HW268948   7.570   2.948  13.894
55706SOL     OW68949   9.432   1.588  12.450
55706SOL    HW168950   9.436   1.503  12.406
55706SOL    HW268951   9.509   1.635  12.416
55707SOL     OW68952   2.257   2.543   7.366
55707SOL    HW168953   2.195   2.597   7.415
55707SOL    HW268954   2.320   2.513   7.431
55708SOL     OW68955  11.805   6.737   5.888
55708SOL    HW168956  11.891   6.760   5.922
55708SOL    HW268957  11.762   6.690   5.960
55709SOL     OW68958   2.003   7.703   8.378
55709SOL    HW168959   2.020   7.623   8.427
55709SOL    HW268960   2.087   7.725   8.338
55710SOL     OW68961   1.838   4.292   2.322
55710SOL    HW168962   1.923   4.252   2.300
55710SOL    HW268963   1.860   4.379   2.354
55711SOL     OW68964   8.544  10.570   2.838
55711SOL    HW168965   8.618  10.572   2.778
55711SOL    HW268966   8.482  10.634   2.801
55712SOL     OW68967   7.380   8.838   4.526
55712SOL    HW168968   7.373   8.768   4.591
55712SOL    HW268969   7.291   8.872   4.518
55713SOL     OW68970   4.722   8.398  12.116
55713SOL    HW168971   4.745   8.345  12.040
55713SOL    HW268972   4.781   8.473  12.111
55714SOL     OW68973  14.808   6.514   5.300
55714SOL    HW168974  14.817   6.535   5.207
55714SOL    HW268975  14.849   6.588   5.345
55715SOL     OW68976  11.708   6.345   7.118
55715SOL    HW168977  11.762   6.303   7.185
55715SOL    HW268978  11.626   6.365   7.164
55716SOL     OW68979  13.465   5.095   8.745
55716SOL    HW168980  13.465   5.174   8.799
55716SOL    HW268981  13.373   5.066   8.744
55717SOL     OW68982   1.117   1.629  11.906
55717SOL    HW168983   1.118   1.703  11.846
55717SOL    HW268984   1.126   1.668  11.993
55718SOL     OW68985   6.834   5.571   4.150
55718SOL    HW168986   6.810   5.623   4.227
55718SOL    HW268987   6.769   5.595   4.084
55719SOL     OW68988  10.623  14.046   5.279
55719SOL    HW168989  10.656  14.130   5.310
55719SOL    HW268990  10.566  14.014   5.350
55720SOL     OW68991  10.216  13.339   5.340
55720SOL    HW168992  10.280  13.297   5.282
55720SOL    HW268993  10.166  13.397   5.283
55721SOL     OW68994   7.000   5.103   8.324
55721SOL    HW168995   7.054   5.024   8.313
55721SOL    HW268996   6.918   5.071   8.360
55722SOL     OW68997  13.409  13.102  11.551
55722SOL    HW168998  13.364  13.103  11.635
55722SOL    HW268999  13.367  13.033  11.500
55723SOL     OW69000  12.266  13.530  12.560
55723SOL    HW169001  12.176  13.497  12.551
55723SOL    HW269002  12.317  13.452  12.583
55724SOL     OW69003  14.397   7.479   4.862
55724SOL    HW169004  14.338   7.554   4.850
55724SOL    HW269005  14.459   7.486   4.790
55725SOL     OW69006   6.780  10.642  14.854
55725SOL    HW169007   6.818  10.587  14.785
55725SOL    HW269008   6.815  10.606   0.059
55726SOL     OW69009   0.089  10.357  11.817
55726SOL    HW169010  14.870  10.346  11.823
55726SOL    HW269011   0.104  10.385  11.726
55727SOL     OW69012   4.012  14.455  11.827
55727SOL    HW169013   3.920  14.429  11.817
55727SOL    HW269014   4.060  14.372  11.827
55728SOL     OW69015   4.794   3.451   0.361
55728SOL    HW169016   4.866   3.389   0.377
55728SOL    HW269017   4.770   3.436   0.270
55729SOL     OW69018   0.239   2.241   1.377
55729SOL    HW169019   0.250   2.193   1.458
55729SOL    HW269020   0.148   2.268   1.377
55730SOL     OW69021   3.457   0.308   5.331
55730SOL    HW169022   3.472   0.353   5.248
55730SOL    HW269023   3.366   0.330   5.353
55731SOL     OW69024   6.708  13.475   1.850
55731SOL    HW169025   6.660  13.461   1.931
55731SOL    HW269026   6.765  13.398   1.843
55732SOL     OW69027   8.685   7.829   2.767
55732SOL    HW169028   8.710   7.874   2.686
55732SOL    HW269029   8.762   7.777   2.790
55733SOL     OW69030  12.543   0.787  11.046
55733SOL    HW169031  12.496   0.711  11.013
55733SOL    HW269032  12.495   0.813  11.125
55734SOL     OW69033  10.363  10.454   6.522
55734SOL    HW169034  10.452  10.418   6.522
55734SOL    HW269035  10.316  10.403   6.456
55735SOL     OW69036  10.376   8.749   3.686
55735SOL    HW169037  10.371   8.784   3.597
55735SOL    HW269038  10.408   8.660   3.674
55736SOL     OW69039   9.918   2.456   8.359
55736SOL    HW169040   9.884   2.455   8.449
55736SOL    HW269041  10.003   2.498   8.366
55737SOL     OW69042   3.274  10.557   9.030
55737SOL    HW169043   3.209  10.589   9.092
55737SOL    HW269044   3.314  10.637   8.994
55738SOL     OW69045  11.112  14.446  13.685
55738SOL    HW169046  11.039  14.396  13.721
55738SOL    HW269047  11.071  14.524  13.646
55739SOL     OW69048   5.785   3.867   8.266
55739SOL    HW169049   5.711   3.848   8.325
55739SOL    HW269050   5.840   3.789   8.271
55740SOL     OW69051   3.489  10.263   2.501
55740SOL    HW169052   3.476  10.180   2.546
55740SOL    HW269053   3.453  10.249   2.414
55741SOL     OW69054   9.685   3.026   6.457
55741SOL    HW169055   9.715   2.945   6.416
55741SOL    HW269056   9.684   3.090   6.385
55742SOL     OW69057  13.808   8.866  10.273
55742SOL    HW169058  13.886   8.883  10.326
55742SOL    HW269059  13.757   8.947  10.278
55743SOL     OW69060   2.612  12.809   2.610
55743SOL    HW169061   2.644  12.792   2.699
55743SOL    HW269062   2.626  12.726   2.564
55744SOL     OW69063   7.584   9.128   3.745
55744SOL    HW169064   7.529   9.058   3.709
55744SOL    HW269065   7.618   9.091   3.827
55745SOL     OW69066   5.344   3.758  11.958
55745SOL    HW169067   5.271   3.782  11.900
55745SOL    HW269068   5.351   3.663  11.950
55746SOL     OW69069   5.274   7.841   2.034
55746SOL    HW169070   5.253   7.817   2.124
55746SOL    HW269071   5.220   7.782   1.981
55747SOL     OW69072  14.807   4.334   5.362
55747SOL    HW169073  14.731   4.279   5.348
55747SOL    HW269074   0.004   4.285   5.324
55748SOL     OW69075   6.089   2.793  13.842
55748SOL    HW169076   6.051   2.728  13.782
55748SOL    HW269077   6.182   2.768  13.848
55749SOL     OW69078   2.293   7.985   4.951
55749SOL    HW169079   2.374   8.034   4.965
55749SOL    HW269080   2.318   7.893   4.963
55750SOL     OW69081   1.221   2.805   3.999
55750SOL    HW169082   1.232   2.833   4.090
55750SOL    HW269083   1.133   2.767   3.996
55751SOL     OW69084  11.132   1.996   1.515
55751SOL    HW169085  11.108   2.056   1.444
55751SOL    HW269086  11.135   2.051   1.593
55752SOL     OW69087  11.583   0.848   2.744
55752SOL    HW169088  11.621   0.929   2.708
55752SOL    HW269089  11.557   0.872   2.833
55753SOL     OW69090   8.995   3.652  14.379
55753SOL    HW169091   8.909   3.662  14.338
55753SOL    HW269092   9.012   3.737  14.420
55754SOL     OW69093  13.162   4.113   7.252
55754SOL    HW169094  13.108   4.111   7.331
55754SOL    HW269095  13.142   4.197   7.211
55755SOL     OW69096   9.891  11.253  11.890
55755SOL    HW169097   9.898  11.215  11.977
55755SOL    HW269098   9.834  11.192  11.842
55756SOL     OW69099   9.104  11.617  12.276
55756SOL    HW169100   9.135  11.704  12.251
55756SOL    HW269101   9.092  11.572  12.192
55757SOL     OW69102   2.882   5.468   2.199
55757SOL    HW169103   2.929   5.405   2.254
55757SOL    HW269104   2.903   5.553   2.238
55758SOL     OW69105  14.082   4.054   1.134
55758SOL    HW169106  14.057   4.105   1.057
55758SOL    HW269107  14.094   3.965   1.101
55759SOL     OW69108  14.010  11.892   1.792
55759SOL    HW169109  14.050  11.979   1.786
55759SOL    HW269110  14.016  11.869   1.884
55760SOL     OW69111   1.413  13.996   8.641
55760SOL    HW169112   1.369  13.927   8.692
55760SOL    HW269113   1.411  14.073   8.698
55761SOL     OW69114  14.197  10.546  13.879
55761SOL    HW169115  14.228  10.604  13.949
55761SOL    HW269116  14.270  10.486  13.864
55762SOL     OW69117   3.942   2.334   6.402
55762SOL    HW169118   3.878   2.391   6.360
55762SOL    HW269119   3.939   2.358   6.494
55763SOL     OW69120  12.308   6.196   8.014
55763SOL    HW169121  12.382   6.226   7.961
55763SOL    HW269122  12.236   6.253   7.988
55764SOL     OW69123  12.705   3.107   9.072
55764SOL    HW169124  12.782   3.086   9.125
55764SOL    HW269125  12.652   3.164   9.128
55765SOL     OW69126   5.288  10.663   5.441
55765SOL    HW169127   5.300  10.757   5.423
55765SOL    HW269128   5.201  10.657   5.481
55766SOL     OW69129  11.219  13.620   5.652
55766SOL    HW169130  11.149  13.556   5.665
55766SOL    HW269131  11.298  13.567   5.645
55767SOL     OW69132   0.411   3.925   5.737
55767SOL    HW169133   0.361   3.883   5.667
55767SOL    HW269134   0.384   4.017   5.733
55768SOL     OW69135  14.221   9.785   6.046
55768SOL    HW169136  14.259   9.802   6.132
55768SOL    HW269137  14.212   9.872   6.006
55769SOL     OW69138   2.386   5.949  10.611
55769SOL    HW169139   2.313   5.895  10.642
55769SOL    HW269140   2.360   6.039  10.634
55770SOL     OW69141  10.473   3.635   5.763
55770SOL    HW169142  10.389   3.665   5.799
55770SOL    HW269143  10.538   3.681   5.815
55771SOL     OW69144   6.586   8.129  13.976
55771SOL    HW169145   6.502   8.161  14.009
55771SOL    HW269146   6.628   8.088  14.052
55772SOL     OW69147   5.816   9.829   5.202
55772SOL    HW169148   5.768   9.775   5.265
55772SOL    HW269149   5.767   9.911   5.198
55773SOL     OW69150   1.286   0.715   6.419
55773SOL    HW169151   1.351   0.650   6.394
55773SOL    HW269152   1.313   0.744   6.507
55774SOL     OW69153   7.640  12.874   7.709
55774SOL    HW169154   7.601  12.943   7.762
55774SOL    HW269155   7.613  12.893   7.620
55775SOL     OW69156   0.702   8.122   4.668
55775SOL    HW169157   0.737   8.190   4.609
55775SOL    HW269158   0.612   8.109   4.639
55776SOL     OW69159  11.857   1.654  11.291
55776SOL    HW169160  11.803   1.583  11.324
55776SOL    HW269161  11.896   1.619  11.211
55777SOL     OW69162  10.209   7.205   2.838
55777SOL    HW169163  10.256   7.217   2.920
55777SOL    HW269164  10.180   7.114   2.840
55778SOL     OW69165  12.112   8.394  12.775
55778SOL    HW169166  12.082   8.443  12.851
55778SOL    HW269167  12.059   8.314  12.775
55779SOL     OW69168   9.977   5.046   9.318
55779SOL    HW169169  10.037   4.979   9.352
55779SOL    HW269170   9.955   5.016   9.230
55780SOL     OW69171  10.671   9.634   9.186
55780SOL    HW169172  10.748   9.668   9.140
55780SOL    HW269173  10.633   9.711   9.229
55781SOL     OW69174   3.496   2.562   4.551
55781SOL    HW169175   3.587   2.540   4.529
55781SOL    HW269176   3.504   2.625   4.622
55782SOL     OW69177   0.331  14.476   1.980
55782SOL    HW169178   0.347  14.404   2.042
55782SOL    HW269179   0.291  14.434   1.904
55783SOL     OW69180   7.050   4.566   3.997
55783SOL    HW169181   7.103   4.565   4.077
55783SOL    HW269182   7.069   4.482   3.955
55784SOL     OW69183   7.256   9.345  14.325
55784SOL    HW169184   7.191   9.346  14.255
55784SOL    HW269185   7.215   9.293  14.395
55785SOL     OW69186   8.386  10.494   9.091
55785SOL    HW169187   8.303  10.529   9.058
55785SOL    HW269188   8.434  10.467   9.013
55786SOL     OW69189   8.493   0.044  10.866
55786SOL    HW169190   8.520   0.125  10.907
55786SOL    HW269191   8.442   0.071  10.790
55787SOL     OW69192   8.405   8.100   4.455
55787SOL    HW169193   8.487   8.145   4.477
55787SOL    HW269194   8.399   8.106   4.360
55788SOL     OW69195   3.625   3.107  12.441
55788SOL    HW169196   3.640   3.015  12.419
55788SOL    HW269197   3.562   3.105  12.513
55789SOL     OW69198   6.305   6.069   2.909
55789SOL    HW169199   6.278   6.138   2.848
55789SOL    HW269200   6.226   6.050   2.959
55790SOL     OW69201   5.238  11.317  13.952
55790SOL    HW169202   5.237  11.290  14.044
55790SOL    HW269203   5.146  11.320  13.926
55791SOL     OW69204   1.980  13.059  13.954
55791SOL    HW169205   2.065  13.020  13.978
55791SOL    HW269206   1.992  13.153  13.968
55792SOL     OW69207  14.047  12.508  12.059
55792SOL    HW169208  14.136  12.518  12.024
55792SOL    HW269209  14.000  12.459  11.991
55793SOL     OW69210  14.247  14.766   2.576
55793SOL    HW169211  14.289  14.768   2.489
55793SOL    HW269212  14.174  14.705   2.566
55794SOL     OW69213   8.012   9.074   5.821
55794SOL    HW169214   8.044   9.162   5.802
55794SOL    HW269215   7.919   9.076   5.795
55795SOL     OW69216   0.888   5.633   8.075
55795SOL    HW169217   0.902   5.704   8.137
55795SOL    HW269218   0.805   5.594   8.102
55796SOL     OW69219   0.807   3.202   4.415
55796SOL    HW169220   0.732   3.169   4.464
55796SOL    HW269221   0.872   3.223   4.482
55797SOL     OW69222   5.752   5.677   9.731
55797SOL    HW169223   5.776   5.645   9.644
55797SOL    HW269224   5.661   5.650   9.742
55798SOL     OW69225  14.696   8.917   3.803
55798SOL    HW169226  14.646   8.835   3.801
55798SOL    HW269227  14.662   8.967   3.730
55799SOL     OW69228  14.303  14.434  10.178
55799SOL    HW169229  14.311  14.389  10.094
55799SOL    HW269230  14.270  14.521  10.156
55800SOL     OW69231   0.717   3.523   0.070
55800SOL    HW169232   0.722   3.427   0.078
55800SOL    HW269233   0.625   3.541   0.049
55801SOL     OW69234   4.235  10.314   1.369
55801SOL    HW169235   4.328  10.313   1.392
55801SOL    HW269236   4.214  10.406   1.356
55802SOL     OW69237  13.615   3.949   1.548
55802SOL    HW169238  13.654   4.036   1.544
55802SOL    HW269239  13.566   3.940   1.466
55803SOL     OW69240  10.268   7.013  14.563
55803SOL    HW169241  10.185   7.007  14.515
55803SOL    HW269242  10.252   6.964  14.644
55804SOL     OW69243   9.832   9.916  12.955
55804SOL    HW169244   9.855  10.006  12.980
55804SOL    HW269245   9.818   9.871  13.039
55805SOL     OW69246   7.909   4.886  12.111
55805SOL    HW169247   7.940   4.797  12.096
55805SOL    HW269248   7.862   4.882  12.194
55806SOL     OW69249   3.063  10.929   3.440
55806SOL    HW169250   3.049  10.918   3.346
55806SOL    HW269251   3.158  10.923   3.451
55807SOL     OW69252   7.068   0.937  14.735
55807SOL    HW169253   7.119   1.010  14.772
55807SOL    HW269254   7.113   0.915  14.654
55808SOL     OW69255   2.453   0.002   0.053
55808SOL    HW169256   2.547  14.857   0.057
55808SOL    HW269257   2.450   0.097   0.044
55809SOL     OW69258  14.186   0.770  12.904
55809SOL    HW169259  14.121   0.725  12.959
55809SOL    HW269260  14.259   0.710  12.898
55810SOL     OW69261   5.318   3.293   7.103
55810SOL    HW169262   5.330   3.203   7.134
55810SOL    HW269263   5.333   3.347   7.181
55811SOL     OW69264   8.577   5.963   4.620
55811SOL    HW169265   8.665   5.926   4.629
55811SOL    HW269266   8.525   5.893   4.580
55812SOL     OW69267   1.643   0.846   4.137
55812SOL    HW169268   1.693   0.908   4.191
55812SOL    HW269269   1.658   0.761   4.178
55813SOL     OW69270   4.499  11.399   3.299
55813SOL    HW169271   4.493  11.318   3.349
55813SOL    HW269272   4.590  11.402   3.269
55814SOL     OW69273  12.827   1.628   5.204
55814SOL    HW169274  12.885   1.647   5.130
55814SOL    HW269275  12.801   1.537   5.191
55815SOL     OW69276   7.263  11.272   1.549
55815SOL    HW169277   7.202  11.225   1.492
55815SOL    HW269278   7.211  11.292   1.627
55816SOL     OW69279   6.677  14.870  14.269
55816SOL    HW169280   6.652  14.785  14.235
55816SOL    HW269281   6.682  14.858  14.364
55817SOL     OW69282   9.270   7.857  14.524
55817SOL    HW169283   9.249   7.812  14.606
55817SOL    HW269284   9.350   7.814  14.494
55818SOL     OW69285  12.208  12.428  11.639
55818SOL    HW169286  12.266  12.501  11.658
55818SOL    HW269287  12.126  12.469  11.611
55819SOL     OW69288   9.527  10.365   5.127
55819SOL    HW169289   9.504  10.279   5.092
55819SOL    HW269290   9.590  10.347   5.197
55820SOL     OW69291   8.078   6.116   6.829
55820SOL    HW169292   7.992   6.092   6.793
55820SOL    HW269293   8.139   6.097   6.758
55821SOL     OW69294   8.826   4.184  10.531
55821SOL    HW169295   8.763   4.119  10.563
55821SOL    HW269296   8.817   4.181  10.436
55822SOL     OW69297   6.882  11.134   5.911
55822SOL    HW169298   6.935  11.110   5.835
55822SOL    HW269299   6.928  11.094   5.985
55823SOL     OW69300   1.126  14.268  10.487
55823SOL    HW169301   1.178  14.344  10.461
55823SOL    HW269302   1.045  14.305  10.522
55824SOL     OW69303   1.987   9.141   1.393
55824SOL    HW169304   1.910   9.190   1.363
55824SOL    HW269305   1.961   9.106   1.478
55825SOL     OW69306   4.321  12.765   2.075
55825SOL    HW169307   4.328  12.786   1.982
55825SOL    HW269308   4.405  12.726   2.097
55826SOL     OW69309   0.527  12.976   0.735
55826SOL    HW169310   0.526  13.063   0.776
55826SOL    HW269311   0.435  12.950   0.733
55827SOL     OW69312   0.007   5.545   4.177
55827SOL    HW169313   0.090   5.589   4.197
55827SOL    HW269314  14.820   5.581   4.239
55828SOL     OW69315   3.586   8.960  13.275
55828SOL    HW169316   3.492   8.961  13.254
55828SOL    HW269317   3.629   8.946  13.190
55829SOL     OW69318   7.968   3.653   9.125
55829SOL    HW169319   7.958   3.746   9.146
55829SOL    HW269320   7.881   3.626   9.095
55830SOL     OW69321   1.777  13.178   8.200
55830SOL    HW169322   1.792  13.231   8.278
55830SOL    HW269323   1.732  13.099   8.233
55831SOL     OW69324   9.036   7.409   8.112
55831SOL    HW169325   9.008   7.452   8.031
55831SOL    HW269326   9.043   7.480   8.175
55832SOL     OW69327   6.632  11.429  14.723
55832SOL    HW169328   6.567  11.440  14.653
55832SOL    HW269329   6.664  11.518  14.740
55833SOL     OW69330   8.519  12.420  11.658
55833SOL    HW169331   8.444  12.363  11.642
55833SOL    HW269332   8.534  12.465  11.574
55834SOL     OW69333   9.323   1.896   8.782
55834SOL    HW169334   9.370   1.921   8.702
55834SOL    HW269335   9.302   1.980   8.824
55835SOL     OW69336   5.546  12.115  14.823
55835SOL    HW169337   5.559  12.209  14.808
55835SOL    HW269338   5.478  12.111   0.014
55836SOL     OW69339   8.533  12.993   9.031
55836SOL    HW169340   8.587  13.035   9.098
55836SOL    HW269341   8.565  12.903   9.028
55837SOL     OW69342   5.672   9.878   4.917
55837SOL    HW169343   5.587   9.906   4.881
55837SOL    HW269344   5.649   9.820   4.990
55838SOL     OW69345   6.616   2.641   9.846
55838SOL    HW169346   6.601   2.664   9.938
55838SOL    HW269347   6.542   2.585   9.822
55839SOL     OW69348   8.030  13.830   8.597
55839SOL    HW169349   7.964  13.764   8.616
55839SOL    HW269350   8.112  13.781   8.587
55840SOL     OW69351   0.461   3.529  12.390
55840SOL    HW169352   0.478   3.497  12.479
55840SOL    HW269353   0.501   3.616  12.387
55841SOL     OW69354   2.464   4.290   3.145
55841SOL    HW169355   2.477   4.254   3.057
55841SOL    HW269356   2.541   4.346   3.160
55842SOL     OW69357   1.563   4.836   7.622
55842SOL    HW169358   1.561   4.916   7.675
55842SOL    HW269359   1.473   4.806   7.621
55843SOL     OW69360  12.453   8.409  14.765
55843SOL    HW169361  12.424   8.499  14.748
55843SOL    HW269362  12.532   8.399  14.711
55844SOL     OW69363   3.833   4.494   3.005
55844SOL    HW169364   3.768   4.440   3.050
55844SOL    HW269365   3.789   4.524   2.926
55845SOL     OW69366   6.524   5.336  10.679
55845SOL    HW169367   6.564   5.411  10.721
55845SOL    HW269368   6.581   5.318  10.604
55846SOL     OW69369   3.533  10.577   4.288
55846SOL    HW169370   3.623  10.603   4.270
55846SOL    HW269371   3.480  10.647   4.248
55847SOL     OW69372  10.077   6.022   0.725
55847SOL    HW169373  10.050   5.978   0.645
55847SOL    HW269374  10.014   5.993   0.791
55848SOL     OW69375   3.550   4.649  12.528
55848SOL    HW169376   3.493   4.645  12.452
55848SOL    HW269377   3.632   4.684  12.495
55849SOL     OW69378   9.706   9.458   0.800
55849SOL    HW169379   9.751   9.428   0.721
55849SOL    HW269380   9.654   9.532   0.772
55850SOL     OW69381  13.564  11.139  13.072
55850SOL    HW169382  13.479  11.105  13.102
55850SOL    HW269383  13.578  11.097  12.987
55851SOL     OW69384  13.951  11.159   7.800
55851SOL    HW169385  13.907  11.176   7.883
55851SOL    HW269386  14.027  11.217   7.800
55852SOL     OW69387   6.258   2.698  10.130
55852SOL    HW169388   6.189   2.673  10.192
55852SOL    HW269389   6.217   2.765  10.075
55853SOL     OW69390  11.678   9.331   2.855
55853SOL    HW169391  11.722   9.320   2.939
55853SOL    HW269392  11.593   9.288   2.866
55854SOL     OW69393   5.742   2.613   4.151
55854SOL    HW169394   5.727   2.684   4.088
55854SOL    HW269395   5.763   2.658   4.233
55855SOL     OW69396  13.686   6.760  12.574
55855SOL    HW169397  13.623   6.790  12.508
55855SOL    HW269398  13.758   6.725  12.523
55856SOL     OW69399   3.419   3.421   5.346
55856SOL    HW169400   3.420   3.479   5.422
55856SOL    HW269401   3.332   3.433   5.308
55857SOL     OW69402   4.714   3.722  11.670
55857SOL    HW169403   4.751   3.798  11.715
55857SOL    HW269404   4.636   3.756  11.626
55858SOL     OW69405  14.615  13.829   7.392
55858SOL    HW169406  14.575  13.758   7.441
55858SOL    HW269407  14.609  13.905   7.450
55859SOL     OW69408   9.031  12.208   0.160
55859SOL    HW169409   9.078  12.289   0.143
55859SOL    HW269410   8.974  12.228   0.234
55860SOL     OW69411   3.232  13.424   5.256
55860SOL    HW169412   3.174  13.408   5.181
55860SOL    HW269413   3.303  13.361   5.245
55861SOL     OW69414   1.717   3.330   3.695
55861SOL    HW169415   1.742   3.250   3.739
55861SOL    HW269416   1.798   3.381   3.688
55862SOL     OW69417   4.983   5.795   5.750
55862SOL    HW169418   5.003   5.869   5.692
55862SOL    HW269419   5.068   5.765   5.781
55863SOL     OW69420  14.722   4.514   6.960
55863SOL    HW169421  14.673   4.575   6.905
55863SOL    HW269422  14.654   4.466   7.007
55864SOL     OW69423   8.841   6.687  14.492
55864SOL    HW169424   8.908   6.669  14.558
55864SOL    HW269425   8.770   6.627  14.514
55865SOL     OW69426  11.369  14.756  12.368
55865SOL    HW169427  11.277  14.739  12.347
55865SOL    HW269428  11.401  14.809  12.296
55866SOL     OW69429  10.186  13.693   9.260
55866SOL    HW169430  10.187  13.630   9.188
55866SOL    HW269431  10.275  13.691   9.295
55867SOL     OW69432  11.470  14.617   7.838
55867SOL    HW169433  11.483  14.583   7.927
55867SOL    HW269434  11.514  14.552   7.782
55868SOL     OW69435   5.329  10.521   8.463
55868SOL    HW169436   5.363  10.539   8.550
55868SOL    HW269437   5.253  10.578   8.455
55869SOL     OW69438   3.935   5.938   4.379
55869SOL    HW169439   3.910   5.852   4.412
55869SOL    HW269440   4.009   5.965   4.433
55870SOL     OW69441   1.628  12.502   3.690
55870SOL    HW169442   1.615  12.509   3.784
55870SOL    HW269443   1.714  12.541   3.675
55871SOL     OW69444   6.797  12.691   0.791
55871SOL    HW169445   6.785  12.714   0.883
55871SOL    HW269446   6.815  12.774   0.747
55872SOL     OW69447  11.464  13.809   1.410
55872SOL    HW169448  11.558  13.820   1.394
55872SOL    HW269449  11.452  13.839   1.500
55873SOL     OW69450  11.036   6.924  13.260
55873SOL    HW169451  11.038   6.833  13.288
55873SOL    HW269452  10.965   6.964  13.309
55874SOL     OW69453   8.091   7.274   0.797
55874SOL    HW169454   8.096   7.357   0.750
55874SOL    HW269455   8.179   7.263   0.835
55875SOL     OW69456  14.570   7.366   8.032
55875SOL    HW169457  14.480   7.365   7.999
55875SOL    HW269458  14.594   7.459   8.036
55876SOL     OW69459   0.675   7.985   3.517
55876SOL    HW169460   0.658   8.029   3.434
55876SOL    HW269461   0.611   8.023   3.578
55877SOL     OW69462   7.754   2.175   9.859
55877SOL    HW169463   7.751   2.167   9.764
55877SOL    HW269464   7.662   2.177   9.886
55878SOL     OW69465  11.121   9.880  10.975
55878SOL    HW169466  11.093   9.967  11.005
55878SOL    HW269467  11.198   9.861  11.028
55879SOL     OW69468  10.475   6.110   3.843
55879SOL    HW169469  10.561   6.088   3.878
55879SOL    HW269470  10.492   6.175   3.775
55880SOL     OW69471  10.701   3.205   9.542
55880SOL    HW169472  10.654   3.228   9.462
55880SOL    HW269473  10.690   3.111   9.551
55881SOL     OW69474   0.192   8.008  12.575
55881SOL    HW169475   0.111   7.966  12.547
55881SOL    HW269476   0.198   8.087  12.521
55882SOL     OW69477   7.838   5.727   5.607
55882SOL    HW169478   7.788   5.677   5.542
55882SOL    HW269479   7.929   5.721   5.578
55883SOL     OW69480  12.126   6.875   1.939
55883SOL    HW169481  12.169   6.812   1.880
55883SOL    HW269482  12.162   6.960   1.914
55884SOL     OW69483   6.744  10.007   5.653
55884SOL    HW169484   6.739  10.006   5.557
55884SOL    HW269485   6.787   9.925   5.676
55885SOL     OW69486   7.095   6.043   5.592
55885SOL    HW169487   7.041   5.993   5.653
55885SOL    HW269488   7.032   6.090   5.537
55886SOL     OW69489   4.026  11.061   9.202
55886SOL    HW169490   3.987  11.144   9.231
55886SOL    HW269491   4.015  11.061   9.107
55887SOL     OW69492   7.108   7.312  10.085
55887SOL    HW169493   7.090   7.226  10.047
55887SOL    HW269494   7.155   7.293  10.166
55888SOL     OW69495   0.770   5.202  10.007
55888SOL    HW169496   0.767   5.221   9.913
55888SOL    HW269497   0.710   5.264  10.047
55889SOL     OW69498   2.641   3.143   9.702
55889SOL    HW169499   2.566   3.087   9.724
55889SOL    HW269500   2.656   3.193   9.782
55890SOL     OW69501   1.531   0.764  11.983
55890SOL    HW169502   1.552   0.713  12.061
55890SOL    HW269503   1.616   0.788  11.947
55891SOL     OW69504   9.433   9.658  10.988
55891SOL    HW169505   9.344   9.663  10.953
55891SOL    HW269506   9.479   9.598  10.930
55892SOL     OW69507  13.803   0.535   5.870
55892SOL    HW169508  13.712   0.520   5.846
55892SOL    HW269509  13.822   0.624   5.839
55893SOL     OW69510  12.502  10.456  13.969
55893SOL    HW169511  12.570  10.449  13.901
55893SOL    HW269512  12.516  10.542  14.008
55894SOL     OW69513   4.008   9.369   9.699
55894SOL    HW169514   3.945   9.357   9.628
55894SOL    HW269515   3.981   9.450   9.742
55895SOL     OW69516   6.283  13.844   4.169
55895SOL    HW169517   6.312  13.805   4.252
55895SOL    HW269518   6.242  13.772   4.122
55896SOL     OW69519   3.726   8.972   2.746
55896SOL    HW169520   3.730   8.896   2.689
55896SOL    HW269521   3.660   8.949   2.812
55897SOL     OW69522   9.338  14.223  10.357
55897SOL    HW169523   9.430  14.240  10.379
55897SOL    HW269524   9.341  14.176  10.274
55898SOL     OW69525   3.668   2.913   0.260
55898SOL    HW169526   3.713   2.888   0.340
55898SOL    HW269527   3.711   2.995   0.233
55899SOL     OW69528  11.427   0.389  14.624
55899SOL    HW169529  11.503   0.445  14.637
55899SOL    HW269530  11.369   0.411  14.697
55900SOL     OW69531   9.218  12.195   7.480
55900SOL    HW169532   9.201  12.103   7.463
55900SOL    HW269533   9.153  12.219   7.547
55901SOL     OW69534   9.141   6.888   1.260
55901SOL    HW169535   9.171   6.959   1.204
55901SOL    HW269536   9.050   6.911   1.281
55902SOL     OW69537   1.884   2.023   7.548
55902SOL    HW169538   1.823   2.061   7.484
55902SOL    HW269539   1.948   1.976   7.496
55903SOL     OW69540   5.388   7.249  13.204
55903SOL    HW169541   5.459   7.187  13.188
55903SOL    HW269542   5.337   7.248  13.124
55904SOL     OW69543   3.990   1.214   6.170
55904SOL    HW169544   3.986   1.216   6.265
55904SOL    HW269545   3.900   1.193   6.143
55905SOL     OW69546   3.438  11.213   1.151
55905SOL    HW169547   3.448  11.280   1.083
55905SOL    HW269548   3.505  11.148   1.131
55906SOL     OW69549   6.728   3.011   0.825
55906SOL    HW169550   6.747   3.080   0.888
55906SOL    HW269551   6.811   2.966   0.812
55907SOL     OW69552  13.313  12.143  11.930
55907SOL    HW169553  13.296  12.085  11.856
55907SOL    HW269554  13.242  12.207  11.927
55908SOL     OW69555   3.568   7.533   4.769
55908SOL    HW169556   3.526   7.516   4.685
55908SOL    HW269557   3.521   7.478   4.832
55909SOL     OW69558   5.373   9.563   3.864
55909SOL    HW169559   5.458   9.539   3.900
55909SOL    HW269560   5.329   9.611   3.934
55910SOL     OW69561  13.234   4.327   2.366
55910SOL    HW169562  13.180   4.281   2.430
55910SOL    HW269563  13.227   4.419   2.390
55911SOL     OW69564   2.146  12.444  13.353
55911SOL    HW169565   2.231  12.456  13.396
55911SOL    HW269566   2.106  12.371  13.399
55912SOL     OW69567   7.469   0.200  11.152
55912SOL    HW169568   7.415   0.199  11.231
55912SOL    HW269569   7.558   0.184  11.183
55913SOL     OW69570  11.747   9.471   7.331
55913SOL    HW169571  11.788   9.399   7.380
55913SOL    HW269572  11.717   9.531   7.399
55914SOL     OW69573   9.208   3.103  12.442
55914SOL    HW169574   9.138   3.162  12.472
55914SOL    HW269575   9.220   3.041  12.514
55915SOL     OW69576   6.409   7.817  12.300
55915SOL    HW169577   6.412   7.894  12.356
55915SOL    HW269578   6.413   7.851  12.211
55916SOL     OW69579   6.320  11.287   9.898
55916SOL    HW169580   6.341  11.223   9.966
55916SOL    HW269581   6.405  11.323   9.872
55917SOL     OW69582  13.758  11.419   7.595
55917SOL    HW169583  13.847  11.386   7.600
55917SOL    HW269584  13.764  11.496   7.539
55918SOL     OW69585   5.488   8.618  10.535
55918SOL    HW169586   5.487   8.713  10.526
55918SOL    HW269587   5.580   8.596  10.548
55919SOL     OW69588   2.565  10.769   0.609
55919SOL    HW169589   2.558  10.751   0.702
55919SOL    HW269590   2.608  10.692   0.572
55920SOL     OW69591   6.003   5.546   1.877
55920SOL    HW169592   5.943   5.486   1.921
55920SOL    HW269593   6.086   5.499   1.873
55921SOL     OW69594  13.804  13.077   2.345
55921SOL    HW169595  13.870  13.063   2.277
55921SOL    HW269596  13.847  13.133   2.409
55922SOL     OW69597   8.262   9.084   0.133
55922SOL    HW169598   8.176   9.125   0.139
55922SOL    HW269599   8.250   9.010   0.073
55923SOL     OW69600   1.081   6.504   4.286
55923SOL    HW169601   1.057   6.524   4.377
55923SOL    HW269602   1.005   6.457   4.251
55924SOL     OW69603   5.428   2.134   8.409
55924SOL    HW169604   5.458   2.053   8.368
55924SOL    HW269605   5.387   2.183   8.338
55925SOL     OW69606   3.992   5.014  14.117
55925SOL    HW169607   4.071   5.004  14.064
55925SOL    HW269608   3.958   4.925  14.127
55926SOL     OW69609  14.700   4.073   2.109
55926SOL    HW169610  14.781   4.109   2.073
55926SOL    HW269611  14.662   4.022   2.037
55927SOL     OW69612   9.947  11.872   3.757
55927SOL    HW169613  10.024  11.877   3.815
55927SOL    HW269614   9.964  11.938   3.689
55928SOL     OW69615  11.485   1.569  12.620
55928SOL    HW169616  11.453   1.510  12.553
55928SOL    HW269617  11.471   1.522  12.702
55929SOL     OW69618   8.338   7.095   9.281
55929SOL    HW169619   8.284   7.033   9.230
55929SOL    HW269620   8.334   7.061   9.371
55930SOL     OW69621   9.712  12.742   7.442
55930SOL    HW169622   9.624  12.779   7.453
55930SOL    HW269623   9.736  12.763   7.352
55931SOL     OW69624   6.919  12.688   3.957
55931SOL    HW169625   6.975  12.741   3.899
55931SOL    HW269626   6.854  12.650   3.898
55932SOL     OW69627  12.377   9.130   5.104
55932SOL    HW169628  12.470   9.112   5.111
55932SOL    HW269629  12.366   9.217   5.142
55933SOL     OW69630   4.860   8.407  13.403
55933SOL    HW169631   4.937   8.355  13.381
55933SOL    HW269632   4.840   8.454  13.322
55934SOL     OW69633   3.648   0.264   4.034
55934SOL    HW169634   3.619   0.192   3.977
55934SOL    HW269635   3.647   0.341   3.978
55935SOL     OW69636  12.931  11.075  13.350
55935SOL    HW169637  12.854  11.037  13.392
55935SOL    HW269638  12.993  11.089  13.421
55936SOL     OW69639   6.192  14.868   1.552
55936SOL    HW169640   6.167  14.783   1.516
55936SOL    HW269641   6.108   0.032   1.577
55937SOL     OW69642  11.330   6.371  11.957
55937SOL    HW169643  11.372   6.455  11.976
55937SOL    HW269644  11.305   6.337  12.043
55938SOL     OW69645  10.366   3.796   6.981
55938SOL    HW169646  10.315   3.790   6.900
55938SOL    HW269647  10.360   3.709   7.019
55939SOL     OW69648   3.505  13.270  10.207
55939SOL    HW169649   3.481  13.199  10.267
55939SOL    HW269650   3.540  13.225  10.130
55940SOL     OW69651  14.388  13.062   5.644
55940SOL    HW169652  14.431  13.080   5.727
55940SOL    HW269653  14.330  12.988   5.662
55941SOL     OW69654   5.893   9.927   9.472
55941SOL    HW169655   5.844   9.854   9.511
55941SOL    HW269656   5.963   9.884   9.422
55942SOL     OW69657  13.552  10.083   1.555
55942SOL    HW169658  13.578  10.153   1.615
55942SOL    HW269659  13.516  10.129   1.479
55943SOL     OW69660   5.022   1.357   4.825
55943SOL    HW169661   4.984   1.291   4.766
55943SOL    HW269662   4.990   1.333   4.912
55944SOL     OW69663  12.557   4.462  10.679
55944SOL    HW169664  12.621   4.479  10.609
55944SOL    HW269665  12.490   4.409  10.636
55945SOL     OW69666  13.882   5.626   0.517
55945SOL    HW169667  13.804   5.613   0.463
55945SOL    HW269668  13.953   5.639   0.453
55946SOL     OW69669   2.652   6.002   1.204
55946SOL    HW169670   2.582   5.946   1.173
55946SOL    HW269671   2.710   6.012   1.129
55947SOL     OW69672  13.961   0.122  11.642
55947SOL    HW169673  13.954   0.067  11.720
55947SOL    HW269674  13.989   0.062  11.572
55948SOL     OW69675   5.990  12.460   7.948
55948SOL    HW169676   6.043  12.522   7.999
55948SOL    HW269677   6.035  12.376   7.957
55949SOL     OW69678   5.146   4.611  13.603
55949SOL    HW169679   5.121   4.693  13.561
55949SOL    HW269680   5.073   4.591  13.662
55950SOL     OW69681   0.947   9.883   0.398
55950SOL    HW169682   0.938   9.794   0.365
55950SOL    HW269683   0.907   9.881   0.485
55951SOL     OW69684   2.890   3.761   9.736
55951SOL    HW169685   2.836   3.690   9.701
55951SOL    HW269686   2.953   3.780   9.667
55952SOL     OW69687   3.369  12.745   4.188
55952SOL    HW169688   3.451  12.711   4.223
55952SOL    HW269689   3.380  12.740   4.093
55953SOL     OW69690   3.487   5.256  10.618
55953SOL    HW169691   3.487   5.340  10.665
55953SOL    HW269692   3.410   5.210  10.652
55954SOL     OW69693   9.710   2.695   1.678
55954SOL    HW169694   9.690   2.675   1.586
55954SOL    HW269695   9.630   2.734   1.712
55955SOL     OW69696   5.384   3.986  11.615
55955SOL    HW169697   5.398   3.952  11.526
55955SOL    HW269698   5.433   4.068  11.617
55956SOL     OW69699  10.760   3.202  13.529
55956SOL    HW169700  10.836   3.238  13.483
55956SOL    HW269701  10.752   3.257  13.608
55957SOL     OW69702   1.805   9.545   7.942
55957SOL    HW169703   1.826   9.606   8.013
55957SOL    HW269704   1.751   9.478   7.983
55958SOL     OW69705  12.563  12.148  12.314
55958SOL    HW169706  12.565  12.075  12.376
55958SOL    HW269707  12.624  12.122  12.245
55959SOL     OW69708   5.352  10.684  12.421
55959SOL    HW169709   5.423  10.684  12.485
55959SOL    HW269710   5.273  10.664  12.471
55960SOL     OW69711  12.997   9.381   3.454
55960SOL    HW169712  12.997   9.453   3.391
55960SOL    HW269713  12.937   9.316   3.415
55961SOL     OW69714  12.354   3.706  11.640
55961SOL    HW169715  12.439   3.749  11.643
55961SOL    HW269716  12.295   3.767  11.685
55962SOL     OW69717   4.314   8.683   5.647
55962SOL    HW169718   4.273   8.736   5.578
55962SOL    HW269719   4.351   8.608   5.601
55963SOL     OW69720  14.859  11.585   0.557
55963SOL    HW169721  14.806  11.641   0.501
55963SOL    HW269722  14.858  11.500   0.514
55964SOL     OW69723  12.923   5.270  12.646
55964SOL    HW169724  12.930   5.315  12.730
55964SOL    HW269725  12.880   5.332  12.588
55965SOL     OW69726  12.990   2.699  10.309
55965SOL    HW169727  12.948   2.614  10.319
55965SOL    HW269728  13.078   2.678  10.278
55966SOL     OW69729   8.964   0.310   1.492
55966SOL    HW169730   8.905   0.375   1.531
55966SOL    HW269731   8.910   0.232   1.481
55967SOL     OW69732   0.476   8.004   6.474
55967SOL    HW169733   0.500   8.043   6.558
55967SOL    HW269734   0.559   7.969   6.440
55968SOL     OW69735  10.314   7.599   9.079
55968SOL    HW169736  10.334   7.682   9.036
55968SOL    HW269737  10.382   7.539   9.048
55969SOL     OW69738  13.764   9.037   4.803
55969SOL    HW169739  13.734   9.086   4.879
55969SOL    HW269740  13.727   9.084   4.728
55970SOL     OW69741  10.616   0.737   1.309
55970SOL    HW169742  10.684   0.677   1.276
55970SOL    HW269743  10.599   0.795   1.235
55971SOL     OW69744  14.806   6.452   6.336
55971SOL    HW169745  14.821   6.408   6.253
55971SOL    HW269746  14.797   6.381   6.400
55972SOL     OW69747   0.446   5.263   3.288
55972SOL    HW169748   0.505   5.201   3.329
55972SOL    HW269749   0.364   5.215   3.277
55973SOL     OW69750   1.232   5.842   0.915
55973SOL    HW169751   1.285   5.764   0.931
55973SOL    HW269752   1.278   5.888   0.845
55974SOL     OW69753   7.784   1.526   8.471
55974SOL    HW169754   7.765   1.451   8.414
55974SOL    HW269755   7.713   1.588   8.455
55975SOL     OW69756   7.758   7.391   3.028
55975SOL    HW169757   7.839   7.441   3.035
55975SOL    HW269758   7.699   7.448   2.978
55976SOL     OW69759  10.608   3.573   8.922
55976SOL    HW169760  10.578   3.484   8.905
55976SOL    HW269761  10.703   3.569   8.915
55977SOL     OW69762   6.935  10.979  13.774
55977SOL    HW169763   6.855  11.012  13.814
55977SOL    HW269764   6.979  10.931  13.844
55978SOL     OW69765   1.475   3.619   4.993
55978SOL    HW169766   1.448   3.641   5.082
55978SOL    HW269767   1.396   3.585   4.952
55979SOL     OW69768   8.575   1.580   4.348
55979SOL    HW169769   8.641   1.646   4.372
55979SOL    HW269770   8.578   1.577   4.253
55980SOL     OW69771  11.608  13.836   0.384
55980SOL    HW169772  11.670  13.842   0.311
55980SOL    HW269773  11.581  13.927   0.399
55981SOL     OW69774  14.643   9.347   5.963
55981SOL    HW169775  14.735   9.360   5.937
55981SOL    HW269776  14.611   9.434   5.984
55982SOL     OW69777  14.097   2.499  10.594
55982SOL    HW169778  14.068   2.435  10.529
55982SOL    HW269779  14.021   2.554  10.610
55983SOL     OW69780  12.632   2.107   3.678
55983SOL    HW169781  12.592   2.024   3.651
55983SOL    HW269782  12.703   2.121   3.615
55984SOL     OW69783  12.787  10.663  12.291
55984SOL    HW169784  12.748  10.627  12.371
55984SOL    HW269785  12.810  10.753  12.314
55985SOL     OW69786   8.053   4.588   6.387
55985SOL    HW169787   8.052   4.657   6.320
55985SOL    HW269788   8.050   4.635   6.470
55986SOL     OW69789   2.864   6.522  13.609
55986SOL    HW169790   2.874   6.573  13.528
55986SOL    HW269791   2.798   6.456  13.588
55987SOL     OW69792  12.997  11.673  10.477
55987SOL    HW169793  13.058  11.714  10.415
55987SOL    HW269794  13.034  11.692  10.563
55988SOL     OW69795  12.879   3.236  13.855
55988SOL    HW169796  12.848   3.323  13.829
55988SOL    HW269797  12.944   3.254  13.923
55989SOL     OW69798   3.462  14.047  14.135
55989SOL    HW169799   3.476  14.069  14.228
55989SOL    HW269800   3.506  13.963  14.123
55990SOL     OW69801   7.238  14.493   8.736
55990SOL    HW169802   7.179  14.538   8.676
55990SOL    HW269803   7.314  14.551   8.741
55991SOL     OW69804  14.620  11.627  13.228
55991SOL    HW169805  14.695  11.603  13.282
55991SOL    HW269806  14.545  11.619  13.287
55992SOL     OW69807   7.023  13.689  10.818
55992SOL    HW169808   7.026  13.756  10.750
55992SOL    HW269809   7.039  13.607  10.772
55993SOL     OW69810   7.527   7.678  13.268
55993SOL    HW169811   7.609   7.688  13.317
55993SOL    HW269812   7.462   7.659  13.335
55994SOL     OW69813  12.634   3.729   8.326
55994SOL    HW169814  12.562   3.783   8.360
55994SOL    HW269815  12.705   3.791   8.311
55995SOL     OW69816   4.852   1.400  12.080
55995SOL    HW169817   4.781   1.412  12.143
55995SOL    HW269818   4.816   1.341  12.014
55996SOL     OW69819   5.933  13.552  13.022
55996SOL    HW169820   5.874  13.543  12.947
55996SOL    HW269821   6.000  13.613  12.992
55997SOL     OW69822   2.396   3.705  12.549
55997SOL    HW169823   2.448   3.717  12.628
55997SOL    HW269824   2.305   3.710  12.579
55998SOL     OW69825  13.705   6.062  12.743
55998SOL    HW169826  13.716   5.975  12.705
55998SOL    HW269827  13.743   6.055  12.831
55999SOL     OW69828   8.105   9.018   6.423
55999SOL    HW169829   8.167   8.945   6.422
55999SOL    HW269830   8.020   8.976   6.441
56000SOL     OW69831   5.254   1.439  11.274
56000SOL    HW169832   5.288   1.473  11.191
56000SOL    HW269833   5.261   1.344  11.266
56001SOL     OW69834   8.633   9.504  11.386
56001SOL    HW169835   8.585   9.577  11.425
56001SOL    HW269836   8.572   9.467  11.322
56002SOL     OW69837   3.535  10.786   2.445
56002SOL    HW169838   3.508  10.698   2.474
56002SOL    HW269839   3.601  10.769   2.379
56003SOL     OW69840  12.473   5.822   5.025
56003SOL    HW169841  12.528   5.832   5.102
56003SOL    HW269842  12.414   5.750   5.048
56004SOL     OW69843   7.146   5.102   6.959
56004SOL    HW169844   7.186   5.189   6.956
56004SOL    HW269845   7.166   5.071   7.048
56005SOL     OW69846  14.271   9.108   3.398
56005SOL    HW169847  14.192   9.076   3.355
56005SOL    HW269848  14.240   9.169   3.465
56006SOL     OW69849  14.143  10.266   0.656
56006SOL    HW169850  14.215  10.327   0.673
56006SOL    HW269851  14.184  10.191   0.614
56007SOL     OW69852  14.636   7.613   2.724
56007SOL    HW169853  14.680   7.571   2.797
56007SOL    HW269854  14.687   7.588   2.647
56008SOL     OW69855   2.141   3.613  12.599
56008SOL    HW169856   2.188   3.569  12.670
56008SOL    HW269857   2.095   3.686  12.642
56009SOL     OW69858  12.716   8.798   0.565
56009SOL    HW169859  12.672   8.785   0.481
56009SOL    HW269860  12.649   8.837   0.622
56010SOL     OW69861   0.056   9.637   7.954
56010SOL    HW169862   0.144   9.645   7.919
56010SOL    HW269863   0.034   9.725   7.985
56011SOL     OW69864   0.856   8.032  11.865
56011SOL    HW169865   0.901   8.115  11.853
56011SOL    HW269866   0.901   7.991  11.939
56012SOL     OW69867   1.852   0.350   6.163
56012SOL    HW169868   1.905   0.272   6.173
56012SOL    HW269869   1.764   0.317   6.145
56013SOL     OW69870   7.795   1.328   9.496
56013SOL    HW169871   7.760   1.389   9.561
56013SOL    HW269872   7.825   1.253   9.547
56014SOL     OW69873   4.546   3.336   9.687
56014SOL    HW169874   4.464   3.293   9.711
56014SOL    HW269875   4.519   3.418   9.646
56015SOL     OW69876   1.619  12.712   7.727
56015SOL    HW169877   1.659  12.629   7.701
56015SOL    HW269878   1.671  12.779   7.683
56016SOL     OW69879  14.548   6.819  11.118
56016SOL    HW169880  14.468   6.829  11.067
56016SOL    HW269881  14.523   6.842  11.207
56017SOL     OW69882   3.593  11.889  13.286
56017SOL    HW169883   3.524  11.883  13.219
56017SOL    HW269884   3.584  11.977  13.322
56018SOL     OW69885  14.628  11.417  12.832
56018SOL    HW169886  14.569  11.469  12.887
56018SOL    HW269887  14.649  11.340  12.886
56019SOL     OW69888  11.201  10.407  14.847
56019SOL    HW169889  11.173  10.480   0.027
56019SOL    HW269890  11.212  10.333   0.031
56020SOL     OW69891   1.958   2.040   4.403
56020SOL    HW169892   2.034   2.000   4.445
56020SOL    HW269893   1.994   2.116   4.356
56021SOL     OW69894   0.493   2.497   1.294
56021SOL    HW169895   0.583   2.517   1.270
56021SOL    HW269896   0.484   2.531   1.383
56022SOL     OW69897  13.860   0.774  11.305
56022SOL    HW169898  13.822   0.690  11.330
56022SOL    HW269899  13.832   0.835  11.374
56023SOL     OW69900   8.866   2.209   2.528
56023SOL    HW169901   8.821   2.256   2.457
56023SOL    HW269902   8.804   2.141   2.555
56024SOL     OW69903  13.678   1.583   2.417
56024SOL    HW169904  13.624   1.604   2.493
56024SOL    HW269905  13.755   1.639   2.427
56025SOL     OW69906   7.046   5.316   4.094
56025SOL    HW169907   7.056   5.409   4.116
56025SOL    HW269908   7.127   5.275   4.126
56026SOL     OW69909  13.716   6.957   3.453
56026SOL    HW169910  13.634   6.966   3.501
56026SOL    HW269911  13.771   6.903   3.510
56027SOL     OW69912   8.947   5.729   7.367
56027SOL    HW169913   8.865   5.778   7.367
56027SOL    HW269914   8.993   5.761   7.444
56028SOL     OW69915  14.481   2.892  14.607
56028SOL    HW169916  14.575   2.907  14.621
56028SOL    HW269917  14.446   2.876  14.694
56029SOL     OW69918  12.707   0.597   1.284
56029SOL    HW169919  12.668   0.511   1.271
56029SOL    HW269920  12.790   0.593   1.236
56030SOL     OW69921   0.064   6.236   6.155
56030SOL    HW169922   0.109   6.210   6.236
56030SOL    HW269923  14.868   6.173   6.148
56031SOL     OW69924  10.380   8.567  12.980
56031SOL    HW169925  10.363   8.620  12.902
56031SOL    HW269926  10.326   8.606  13.048
56032SOL     OW69927  11.103   2.992   3.310
56032SOL    HW169928  11.149   3.076   3.315
56032SOL    HW269929  11.027   3.003   3.367
56033SOL     OW69930   9.223   2.736   6.036
56033SOL    HW169931   9.151   2.734   6.099
56033SOL    HW269932   9.243   2.829   6.025
56034SOL     OW69933   2.488   7.509   3.078
56034SOL    HW169934   2.415   7.543   3.129
56034SOL    HW269935   2.466   7.417   3.061
56035SOL     OW69936   1.769  11.995   9.534
56035SOL    HW169937   1.821  12.075   9.536
56035SOL    HW269938   1.758  11.976   9.441
56036SOL     OW69939   8.093   7.918   7.019
56036SOL    HW169940   8.176   7.909   6.973
56036SOL    HW269941   8.029   7.939   6.950
56037SOL     OW69942  10.770  14.264   6.232
56037SOL    HW169943  10.769  14.180   6.279
56037SOL    HW269944  10.806  14.326   6.295
56038SOL     OW69945   0.986   5.065   5.522
56038SOL    HW169946   0.942   5.079   5.606
56038SOL    HW269947   0.968   5.145   5.472
56039SOL     OW69948   1.162  12.392   6.969
56039SOL    HW169949   1.229  12.406   6.903
56039SOL    HW269950   1.139  12.480   6.999
56040SOL     OW69951   5.929  10.009  11.685
56040SOL    HW169952   5.840  10.012  11.650
56040SOL    HW269953   5.938   9.922  11.722
56041SOL     OW69954   1.793   3.250   8.660
56041SOL    HW169955   1.855   3.243   8.733
56041SOL    HW269956   1.769   3.342   8.658
56042SOL     OW69957  13.477   4.864  13.781
56042SOL    HW169958  13.557   4.828  13.743
56042SOL    HW269959  13.436   4.911  13.708
56043SOL     OW69960   3.212  11.247   9.179
56043SOL    HW169961   3.159  11.174   9.210
56043SOL    HW269962   3.217  11.307   9.254
56044SOL     OW69963  12.850  11.986  11.262
56044SOL    HW169964  12.864  11.892  11.269
56044SOL    HW269965  12.780  12.005  11.325
56045SOL     OW69966   7.780   7.107  11.756
56045SOL    HW169967   7.847   7.166  11.720
56045SOL    HW269968   7.827   7.027  11.776
56046SOL     OW69969   0.003  11.436   3.608
56046SOL    HW169970  14.865  11.345   3.636
56046SOL    HW269971  14.815  11.486   3.658
56047SOL     OW69972   2.212   9.603   8.077
56047SOL    HW169973   2.154   9.540   8.119
56047SOL    HW269974   2.268   9.551   8.020
56048SOL     OW69975   5.056  13.659  11.633
56048SOL    HW169976   5.135  13.708  11.610
56048SOL    HW269977   5.086  13.570  11.649
56049SOL     OW69978  13.126   8.046   0.028
56049SOL    HW169979  13.133   8.034  14.809
56049SOL    HW269980  13.033   8.037   0.047
56050SOL     OW69981   2.274  10.641  11.333
56050SOL    HW169982   2.311  10.605  11.252
56050SOL    HW269983   2.203  10.698  11.305
56051SOL     OW69984  13.227   1.976   3.383
56051SOL    HW169985  13.315   1.964   3.346
56051SOL    HW269986  13.168   1.957   3.311
56052SOL     OW69987   7.758  10.229   1.380
56052SOL    HW169988   7.735  10.219   1.288
56052SOL    HW269989   7.728  10.316   1.404
56053SOL     OW69990   8.270   8.770  11.226
56053SOL    HW169991   8.214   8.845  11.248
56053SOL    HW269992   8.229   8.696  11.271
56054SOL     OW69993  13.051   6.289  13.978
56054SOL    HW169994  13.008   6.373  13.991
56054SOL    HW269995  12.981   6.224  13.989
56055SOL     OW69996  12.580   3.055   7.714
56055SOL    HW169997  12.619   3.033   7.629
56055SOL    HW269998  12.652   3.094   7.764
56056SOL     OW69999   5.375   8.670   2.457
56056SOL    HW170000   5.415   8.603   2.402
56056SOL    HW270001   5.308   8.711   2.402
56057SOL     OW70002   6.535  13.109   1.678
56057SOL    HW170003   6.533  13.202   1.657
56057SOL    HW270004   6.619  13.079   1.643
56058SOL     OW70005   3.676   3.313  13.251
56058SOL    HW170006   3.731   3.247  13.293
56058SOL    HW270007   3.716   3.397  13.277
56059SOL     OW70008   9.538   8.242  14.187
56059SOL    HW170009   9.458   8.256  14.237
56059SOL    HW270010   9.542   8.317  14.127
56060SOL     OW70011   5.624   5.332   8.083
56060SOL    HW170012   5.658   5.282   8.008
56060SOL    HW270013   5.566   5.270   8.128
56061SOL     OW70014   8.005   3.030   7.053
56061SOL    HW170015   7.910   3.018   7.052
56061SOL    HW270016   8.038   2.960   7.109
56062SOL     OW70017  10.024   2.838  10.292
56062SOL    HW170018  10.111   2.868  10.317
56062SOL    HW270019   9.991   2.906  10.234
56063SOL     OW70020   8.208  11.058  12.450
56063SOL    HW170021   8.291  11.104  12.463
56063SOL    HW270022   8.149  11.125  12.415
56064SOL     OW70023   5.206   0.918  13.288
56064SOL    HW170024   5.183   1.009  13.306
56064SOL    HW270025   5.232   0.917  13.196
56065SOL     OW70026   0.714  11.235  14.675
56065SOL    HW170027   0.699  11.329  14.686
56065SOL    HW270028   0.732  11.203  14.763
56066SOL     OW70029   2.470  13.862   2.305
56066SOL    HW170030   2.413  13.797   2.347
56066SOL    HW270031   2.535  13.811   2.258
56067SOL     OW70032   9.005  11.197   9.561
56067SOL    HW170033   9.072  11.167   9.499
56067SOL    HW270034   8.990  11.122   9.619
56068SOL     OW70035   0.116   7.534  11.875
56068SOL    HW170036   0.211   7.535  11.888
56068SOL    HW270037   0.098   7.446  11.841
56069SOL     OW70038   9.135  14.868   0.880
56069SOL    HW170039   9.214  14.828   0.917
56069SOL    HW270040   9.162   0.082   0.858
56070SOL     OW70041   7.906   3.940   7.343
56070SOL    HW170042   7.972   3.901   7.286
56070SOL    HW270043   7.861   4.004   7.287
56071SOL     OW70044   6.091   5.679   7.299
56071SOL    HW170045   6.019   5.650   7.243
56071SOL    HW270046   6.080   5.774   7.305
56072SOL     OW70047   5.194   6.563  12.448
56072SOL    HW170048   5.176   6.505  12.374
56072SOL    HW270049   5.118   6.555  12.505
56073SOL     OW70050  14.131  13.246  12.276
56073SOL    HW170051  14.195  13.182  12.243
56073SOL    HW270052  14.116  13.305  12.203
56074SOL     OW70053   7.789  14.119   0.757
56074SOL    HW170054   7.766  14.173   0.681
56074SOL    HW270055   7.707  14.111   0.806
56075SOL     OW70056   0.760   8.705   7.787
56075SOL    HW170057   0.831   8.704   7.723
56075SOL    HW270058   0.738   8.797   7.799
56076SOL     OW70059   6.514   7.339   8.182
56076SOL    HW170060   6.556   7.256   8.200
56076SOL    HW270061   6.540   7.396   8.255
56077SOL     OW70062   2.221   2.131   7.992
56077SOL    HW170063   2.209   2.131   7.897
56077SOL    HW270064   2.150   2.187   8.024
56078SOL     OW70065   0.007   8.721   1.608
56078SOL    HW170066   0.045   8.646   1.561
56078SOL    HW270067  14.804   8.742   1.559
56079SOL     OW70068  10.117   6.828   7.831
56079SOL    HW170069  10.079   6.787   7.909
56079SOL    HW270070  10.165   6.758   7.789
56080SOL     OW70071   9.210   8.180   4.333
56080SOL    HW170072   9.145   8.165   4.402
56080SOL    HW270073   9.284   8.220   4.378
56081SOL     OW70074   0.170   2.676   4.255
56081SOL    HW170075   0.259   2.641   4.258
56081SOL    HW270076   0.150   2.683   4.162
56082SOL     OW70077  14.551   0.484   9.704
56082SOL    HW170078  14.606   0.559   9.728
56082SOL    HW270079  14.471   0.524   9.671
56083SOL     OW70080   2.438   0.371  13.634
56083SOL    HW170081   2.502   0.411  13.694
56083SOL    HW270082   2.418   0.286  13.673
56084SOL     OW70083   3.344  14.074   1.172
56084SOL    HW170084   3.381  14.009   1.113
56084SOL    HW270085   3.320  14.147   1.114
56085SOL     OW70086   1.884   9.858  10.829
56085SOL    HW170087   1.829   9.797  10.779
56085SOL    HW270088   1.928   9.803  10.894
56086SOL     OW70089  11.627  13.051   5.716
56086SOL    HW170090  11.588  12.986   5.775
56086SOL    HW270091  11.605  13.019   5.628
56087SOL     OW70092  14.827  10.202   8.077
56087SOL    HW170093   0.023  10.186   8.138
56087SOL    HW270094  14.753  10.225   8.132
56088SOL     OW70095  11.627  10.042   2.474
56088SOL    HW170096  11.535  10.020   2.459
56088SOL    HW270097  11.634  10.056   2.568
56089SOL     OW70098   9.155   4.905   4.577
56089SOL    HW170099   9.131   4.818   4.544
56089SOL    HW270100   9.250   4.902   4.588
56090SOL     OW70101   4.779   6.015  12.207
56090SOL    HW170102   4.844   5.995  12.275
56090SOL    HW270103   4.775   6.110  12.205
56091SOL     OW70104   6.667   4.498  11.952
56091SOL    HW170105   6.735   4.545  12.000
56091SOL    HW270106   6.714   4.452  11.882
56092SOL     OW70107   3.554   5.527  11.145
56092SOL    HW170108   3.578   5.609  11.188
56092SOL    HW270109   3.632   5.473  11.150
56093SOL     OW70110  12.160   8.564   6.481
56093SOL    HW170111  12.157   8.660   6.486
56093SOL    HW270112  12.070   8.536   6.496
56094SOL     OW70113   3.085  11.639   2.958
56094SOL    HW170114   3.013  11.700   2.939
56094SOL    HW270115   3.124  11.673   3.039
56095SOL     OW70116  14.201  14.403   8.724
56095SOL    HW170117  14.128  14.418   8.784
56095SOL    HW270118  14.269  14.464   8.753
56096SOL     OW70119   1.893  12.420   5.365
56096SOL    HW170120   1.906  12.325   5.364
56096SOL    HW270121   1.874  12.442   5.274
56097SOL     OW70122   5.428   6.108   7.853
56097SOL    HW170123   5.388   6.049   7.790
56097SOL    HW270124   5.485   6.052   7.905
56098SOL     OW70125   3.104   1.184   4.340
56098SOL    HW170126   3.153   1.222   4.413
56098SOL    HW270127   3.154   1.206   4.262
56099SOL     OW70128   1.373  13.379   5.980
56099SOL    HW170129   1.333  13.382   5.893
56099SOL    HW270130   1.324  13.444   6.031
56100SOL     OW70131  13.087   7.159  13.931
56100SOL    HW170132  13.119   7.249  13.927
56100SOL    HW270133  13.165   7.105  13.918
56101SOL     OW70134  14.024   6.982   5.720
56101SOL    HW170135  14.116   6.961   5.737
56101SOL    HW270136  13.985   6.900   5.690
56102SOL     OW70137   3.941   4.546  14.647
56102SOL    HW170138   4.020   4.503  14.678
56102SOL    HW270139   3.940   4.630  14.692
56103SOL     OW70140   1.797  14.371  14.232
56103SOL    HW170141   1.786  14.457  14.272
56103SOL    HW270142   1.708  14.344  14.209
56104SOL     OW70143   3.112   7.322   5.228
56104SOL    HW170144   3.129   7.237   5.269
56104SOL    HW270145   3.061   7.370   5.292
56105SOL     OW70146  13.804   5.157   9.089
56105SOL    HW170147  13.876   5.186   9.145
56105SOL    HW270148  13.816   5.063   9.082
56106SOL     OW70149   0.114   9.533   3.816
56106SOL    HW170150   0.088   9.448   3.782
56106SOL    HW270151   0.037   9.588   3.807
56107SOL     OW70152   5.590   9.511  12.137
56107SOL    HW170153   5.639   9.592  12.150
56107SOL    HW270154   5.505   9.528  12.178
56108SOL     OW70155   7.333   5.535   3.325
56108SOL    HW170156   7.381   5.488   3.392
56108SOL    HW270157   7.387   5.611   3.305
56109SOL     OW70158   9.188   0.110   4.578
56109SOL    HW170159   9.167   0.058   4.501
56109SOL    HW270160   9.198   0.199   4.545
56110SOL     OW70161   8.335   2.257   0.629
56110SOL    HW170162   8.325   2.164   0.648
56110SOL    HW270163   8.262   2.277   0.570
56111SOL     OW70164  14.274  14.845   5.655
56111SOL    HW170165  14.297   0.044   5.601
56111SOL    HW270166  14.354  14.823   5.703
56112SOL     OW70167   7.202  12.057   9.961
56112SOL    HW170168   7.222  11.985   9.900
56112SOL    HW270169   7.273  12.120   9.948
56113SOL     OW70170   1.580   8.763  11.997
56113SOL    HW170171   1.493   8.723  12.009
56113SOL    HW270172   1.589   8.823  12.071
56114SOL     OW70173   6.873  12.168   7.620
56114SOL    HW170174   6.824  12.183   7.701
56114SOL    HW270175   6.835  12.088   7.583
56115SOL     OW70176   9.292   0.844   9.424
56115SOL    HW170177   9.383   0.855   9.454
56115SOL    HW270178   9.287   0.753   9.397
56116SOL     OW70179  14.653  14.631   1.529
56116SOL    HW170180  14.679  14.715   1.490
56116SOL    HW270181  14.726  14.608   1.587
56117SOL     OW70182   2.219   6.177   2.775
56117SOL    HW170183   2.263   6.154   2.857
56117SOL    HW270184   2.151   6.110   2.766
56118SOL     OW70185   4.455  14.184  10.722
56118SOL    HW170186   4.532  14.162  10.669
56118SOL    HW270187   4.386  14.127  10.688
56119SOL     OW70188  13.937   8.859  11.329
56119SOL    HW170189  13.904   8.940  11.289
56119SOL    HW270190  13.883   8.790  11.291
56120SOL     OW70191   3.036   9.158  11.757
56120SOL    HW170192   3.003   9.095  11.821
56120SOL    HW270193   2.991   9.240  11.779
56121SOL     OW70194   4.263   8.768   2.252
56121SOL    HW170195   4.291   8.680   2.276
56121SOL    HW270196   4.291   8.778   2.161
56122SOL     OW70197   4.870   8.083   2.213
56122SOL    HW170198   4.940   8.069   2.149
56122SOL    HW270199   4.900   8.158   2.265
56123SOL     OW70200   8.300   9.890   5.650
56123SOL    HW170201   8.211   9.880   5.684
56123SOL    HW270202   8.309   9.984   5.635
56124SOL     OW70203   5.296  13.844  13.625
56124SOL    HW170204   5.330  13.917  13.676
56124SOL    HW270205   5.202  13.863  13.615
56125SOL     OW70206   7.788   2.645   5.243
56125SOL    HW170207   7.734   2.717   5.209
56125SOL    HW270208   7.869   2.651   5.193
56126SOL     OW70209   9.186  10.793   0.426
56126SOL    HW170210   9.180  10.787   0.330
56126SOL    HW270211   9.160  10.883   0.446
56127SOL     OW70212   9.081   7.028  11.299
56127SOL    HW170213   9.031   7.059  11.374
56127SOL    HW270214   9.149   6.973  11.337
56128SOL     OW70215  13.442  14.607  14.488
56128SOL    HW170216  13.458  14.578  14.578
56128SOL    HW270217  13.354  14.645  14.491
56129SOL     OW70218   9.415  11.219   0.602
56129SOL    HW170219   9.391  11.126   0.598
56129SOL    HW270220   9.425  11.237   0.696
56130SOL     OW70221   1.211  12.759  10.242
56130SOL    HW170222   1.178  12.722  10.160
56130SOL    HW270223   1.263  12.835  10.216
56131SOL     OW70224  11.014  10.023  13.661
56131SOL    HW170225  11.046   9.942  13.621
56131SOL    HW270226  11.023  10.009  13.755
56132SOL     OW70227   0.158  13.003  14.165
56132SOL    HW170228   0.131  13.024  14.255
56132SOL    HW270229   0.206  12.920  14.174
56133SOL     OW70230  14.428   5.228   5.099
56133SOL    HW170231  14.448   5.152   5.155
56133SOL    HW270232  14.480   5.299   5.136
56134SOL     OW70233   7.398  10.351   5.289
56134SOL    HW170234   7.394  10.273   5.234
56134SOL    HW270235   7.335  10.411   5.249
56135SOL     OW70236   3.542  10.310  12.348
56135SOL    HW170237   3.636  10.296  12.338
56135SOL    HW270238   3.514  10.348  12.265
56136SOL     OW70239   7.438  10.175  12.358
56136SOL    HW170240   7.468  10.209  12.274
56136SOL    HW270241   7.516  10.174  12.413
56137SOL     OW70242   9.857   5.913   0.573
56137SOL    HW170243   9.765   5.900   0.548
56137SOL    HW270244   9.901   5.832   0.547
56138SOL     OW70245  13.349  14.052   2.588
56138SOL    HW170246  13.283  14.121   2.584
56138SOL    HW270247  13.409  14.073   2.516
56139SOL     OW70248   5.037   2.516  11.947
56139SOL    HW170249   4.942   2.521  11.936
56139SOL    HW270250   5.050   2.457  12.022
56140SOL     OW70251   3.938  11.006   9.895
56140SOL    HW170252   3.912  10.928   9.846
56140SOL    HW270253   3.972  10.971   9.978
56141SOL     OW70254  11.772  13.768  14.595
56141SOL    HW170255  11.722  13.734  14.669
56141SOL    HW270256  11.705  13.796  14.532
56142SOL     OW70257   0.718   2.793  13.693
56142SOL    HW170258   0.772   2.809  13.770
56142SOL    HW270259   0.633   2.764  13.727
56143SOL     OW70260   9.909   8.393  11.311
56143SOL    HW170261   9.924   8.472  11.362
56143SOL    HW270262   9.839   8.417  11.250
56144SOL     OW70263  12.678   3.589   4.762
56144SOL    HW170264  12.676   3.519   4.828
56144SOL    HW270265  12.588   3.622   4.759
56145SOL     OW70266   0.779   2.287  12.925
56145SOL    HW170267   0.799   2.204  12.881
56145SOL    HW270268   0.756   2.347  12.854
56146SOL     OW70269   1.008  11.705  12.586
56146SOL    HW170270   0.926  11.745  12.613
56146SOL    HW270271   0.998  11.612  12.605
56147SOL     OW70272   6.478  10.368  12.682
56147SOL    HW170273   6.444  10.445  12.727
56147SOL    HW270274   6.402  10.331  12.637
56148SOL     OW70275   4.880   7.744  14.564
56148SOL    HW170276   4.898   7.815  14.627
56148SOL    HW270277   4.966   7.706  14.546
56149SOL     OW70278   1.873   8.158   6.626
56149SOL    HW170279   1.819   8.135   6.702
56149SOL    HW270280   1.960   8.125   6.648
56150SOL     OW70281   3.636   5.021  12.363
56150SOL    HW170282   3.551   5.024  12.319
56150SOL    HW270283   3.692   5.078  12.311
56151SOL     OW70284   2.705  11.227   7.302
56151SOL    HW170285   2.624  11.271   7.327
56151SOL    HW270286   2.750  11.290   7.246
56152SOL     OW70287   8.699   2.919   1.212
56152SOL    HW170288   8.687   3.014   1.212
56152SOL    HW270289   8.793   2.906   1.218
56153SOL     OW70290   7.986   1.742   7.559
56153SOL    HW170291   7.989   1.800   7.483
56153SOL    HW270292   7.918   1.779   7.615
56154SOL     OW70293  14.404   8.709  12.184
56154SOL    HW170294  14.465   8.679  12.251
56154SOL    HW270295  14.395   8.635  12.124
56155SOL     OW70296  14.863   9.773  11.671
56155SOL    HW170297   0.066   9.734  11.708
56155SOL    HW270298  14.791   9.726  11.715
56156SOL     OW70299   2.355   2.282  11.488
56156SOL    HW170300   2.406   2.202  11.501
56156SOL    HW270301   2.372   2.307  11.398
56157SOL     OW70302   6.459   4.008   1.271
56157SOL    HW170303   6.550   4.013   1.299
56157SOL    HW270304   6.454   3.926   1.221
56158SOL     OW70305   8.188   8.088   7.276
56158SOL    HW170306   8.135   8.136   7.340
56158SOL    HW270307   8.148   8.108   7.192
56159SOL     OW70308   8.994  12.654   8.430
56159SOL    HW170309   9.034  12.708   8.361
56159SOL    HW270310   8.997  12.709   8.508
56160SOL     OW70311  14.751   6.028   1.676
56160SOL    HW170312  14.746   6.060   1.585
56160SOL    HW270313  14.785   6.103   1.725
56161SOL     OW70314   5.041   4.279   5.731
56161SOL    HW170315   4.948   4.293   5.717
56161SOL    HW270316   5.083   4.303   5.649
56162SOL     OW70317   2.341   0.349   1.251
56162SOL    HW170318   2.292   0.424   1.217
56162SOL    HW270319   2.302   0.274   1.207
56163SOL     OW70320  12.217  11.041   4.582
56163SOL    HW170321  12.236  11.075   4.670
56163SOL    HW270322  12.275  11.091   4.525
56164SOL     OW70323  13.433  11.895  11.432
56164SOL    HW170324  13.414  11.988  11.440
56164SOL    HW270325  13.493  11.876  11.504
56165SOL     OW70326   1.791   5.710  13.791
56165SOL    HW170327   1.878   5.692  13.827
56165SOL    HW270328   1.792   5.803  13.770
56166SOL     OW70329  10.804   3.023   2.053
56166SOL    HW170330  10.850   2.960   1.997
56166SOL    HW270331  10.872   3.054   2.113
56167SOL     OW70332  13.327   9.946   5.120
56167SOL    HW170333  13.259   9.922   5.183
56167SOL    HW270334  13.389   9.873   5.123
56168SOL     OW70335   1.851   5.497   3.112
56168SOL    HW170336   1.784   5.566   3.107
56168SOL    HW270337   1.932   5.545   3.131
56169SOL     OW70338   4.581  10.143   3.083
56169SOL    HW170339   4.515  10.171   3.147
56169SOL    HW270340   4.584  10.215   3.019
56170SOL     OW70341   8.642  11.699   0.892
56170SOL    HW170342   8.625  11.793   0.897
56170SOL    HW270343   8.578  11.667   0.828
56171SOL     OW70344   8.778  12.536   0.110
56171SOL    HW170345   8.857  12.578   0.077
56171SOL    HW270346   8.741  12.598   0.172
56172SOL     OW70347   3.390  13.756  10.691
56172SOL    HW170348   3.389  13.665  10.660
56172SOL    HW270349   3.378  13.748  10.786
56173SOL     OW70350  10.379   1.899   8.333
56173SOL    HW170351  10.292   1.871   8.306
56173SOL    HW270352  10.410   1.828   8.390
56174SOL     OW70353  12.527   9.029   4.763
56174SOL    HW170354  12.440   9.064   4.780
56174SOL    HW270355  12.533   9.024   4.668
56175SOL     OW70356   3.374  10.461   3.431
56175SOL    HW170357   3.427  10.540   3.423
56175SOL    HW270358   3.420  10.407   3.496
56176SOL     OW70359   2.834  14.820   2.001
56176SOL    HW170360   2.804   0.007   1.936
56176SOL    HW270361   2.912  14.780   1.962
56177SOL     OW70362  10.517   4.247   4.773
56177SOL    HW170363  10.554   4.159   4.776
56177SOL    HW270364  10.520   4.272   4.681
56178SOL     OW70365   2.855   0.448   9.657
56178SOL    HW170366   2.911   0.509   9.705
56178SOL    HW270367   2.766   0.466   9.690
56179SOL     OW70368   6.271  10.181   1.374
56179SOL    HW170369   6.220  10.261   1.380
56179SOL    HW270370   6.206  10.113   1.353
56180SOL     OW70371  12.020   4.764   6.680
56180SOL    HW170372  12.002   4.751   6.587
56180SOL    HW270373  11.954   4.827   6.709
56181SOL     OW70374  11.030  11.639  12.043
56181SOL    HW170375  11.037  11.641  12.138
56181SOL    HW270376  11.099  11.579  12.015
56182SOL     OW70377   8.905   7.067   3.670
56182SOL    HW170378   8.940   7.132   3.731
56182SOL    HW270379   8.857   7.120   3.606
56183SOL     OW70380  11.572   1.371   8.173
56183SOL    HW170381  11.658   1.396   8.208
56183SOL    HW270382  11.516   1.447   8.189
56184SOL     OW70383  10.065  12.146  13.064
56184SOL    HW170384  10.095  12.237  13.066
56184SOL    HW270385  10.083  12.113  13.152
56185SOL     OW70386  14.555   4.510   4.485
56185SOL    HW170387  14.542   4.601   4.457
56185SOL    HW270388  14.521   4.458   4.412
56186SOL     OW70389   7.023  13.062  10.939
56186SOL    HW170390   6.981  13.048  11.023
56186SOL    HW270391   6.952  13.095  10.882
56187SOL     OW70392   6.497   0.921   1.602
56187SOL    HW170393   6.419   0.869   1.584
56187SOL    HW270394   6.470   1.012   1.586
56188SOL     OW70395  13.821  12.224   6.054
56188SOL    HW170396  13.772  12.142   6.047
56188SOL    HW270397  13.765  12.288   6.011
56189SOL     OW70398  12.766   6.115  10.015
56189SOL    HW170399  12.770   6.025   9.983
56189SOL    HW270400  12.845   6.126  10.068
56190SOL     OW70401   9.089   9.044   9.483
56190SOL    HW170402   9.092   9.079   9.572
56190SOL    HW270403   9.003   9.071   9.450
56191SOL     OW70404   4.047  11.236   5.400
56191SOL    HW170405   4.050  11.253   5.306
56191SOL    HW270406   4.114  11.293   5.437
56192SOL     OW70407  11.906   8.269  12.209
56192SOL    HW170408  11.915   8.277  12.304
56192SOL    HW270409  11.819   8.231  12.197
56193SOL     OW70410  14.723   1.665  13.128
56193SOL    HW170411  14.670   1.587  13.110
56193SOL    HW270412  14.811   1.630  13.144
56194SOL     OW70413  12.754  12.420   3.067
56194SOL    HW170414  12.810  12.343   3.079
56194SOL    HW270415  12.815  12.493   3.058
56195SOL     OW70416   7.291   9.573   8.743
56195SOL    HW170417   7.250   9.486   8.752
56195SOL    HW270418   7.226   9.634   8.777
56196SOL     OW70419   8.609   9.042  11.227
56196SOL    HW170420   8.600   9.036  11.131
56196SOL    HW270421   8.691   9.090  11.240
56197SOL     OW70422   4.479   2.646  12.996
56197SOL    HW170423   4.532   2.567  13.009
56197SOL    HW270424   4.408   2.618  12.939
56198SOL     OW70425   0.817  12.023  10.537
56198SOL    HW170426   0.769  12.072  10.471
56198SOL    HW270427   0.892  12.078  10.558
56199SOL     OW70428   3.374   2.313  10.035
56199SOL    HW170429   3.449   2.321   9.977
56199SOL    HW270430   3.342   2.403  10.044
56200SOL     OW70431   4.005   9.823   8.444
56200SOL    HW170432   3.961   9.803   8.526
56200SOL    HW270433   4.046   9.740   8.417
56201SOL     OW70434   2.052   1.068  14.368
56201SOL    HW170435   2.112   1.041  14.438
56201SOL    HW270436   2.026   0.986  14.327
56202SOL     OW70437  14.225   0.532   8.745
56202SOL    HW170438  14.199   0.494   8.828
56202SOL    HW270439  14.198   0.623   8.750
56203SOL     OW70440   3.470   9.313   1.234
56203SOL    HW170441   3.466   9.339   1.142
56203SOL    HW270442   3.559   9.336   1.261
56204SOL     OW70443   5.539   0.438  14.517
56204SOL    HW170444   5.587   0.356  14.505
56204SOL    HW270445   5.447   0.411  14.522
56205SOL     OW70446   6.759   9.006   6.262
56205SOL    HW170447   6.780   8.932   6.319
56205SOL    HW270448   6.795   8.982   6.177
56206SOL     OW70449   4.141   6.164   2.469
56206SOL    HW170450   4.053   6.201   2.462
56206SOL    HW270451   4.194   6.216   2.409
56207SOL     OW70452   5.233   3.279   9.388
56207SOL    HW170453   5.274   3.329   9.317
56207SOL    HW270454   5.219   3.192   9.351
56208SOL     OW70455  13.903   3.594  10.034
56208SOL    HW170456  13.811   3.619  10.043
56208SOL    HW270457  13.918   3.530  10.104
56209SOL     OW70458   2.223   0.780   3.413
56209SOL    HW170459   2.192   0.727   3.339
56209SOL    HW270460   2.242   0.865   3.374
56210SOL     OW70461   8.821   0.822   1.724
56210SOL    HW170462   8.837   0.780   1.640
56210SOL    HW270463   8.734   0.792   1.749
56211SOL     OW70464   5.312   2.167  10.068
56211SOL    HW170465   5.357   2.107  10.008
56211SOL    HW270466   5.341   2.254  10.041
56212SOL     OW70467   7.254   9.165   3.645
56212SOL    HW170468   7.243   9.075   3.615
56212SOL    HW270469   7.245   9.218   3.565
56213SOL     OW70470   9.024   4.711   1.178
56213SOL    HW170471   8.950   4.762   1.147
56213SOL    HW270472   9.052   4.660   1.103
56214SOL     OW70473   4.825   5.939   1.828
56214SOL    HW170474   4.810   6.021   1.781
56214SOL    HW270475   4.824   5.964   1.921
56215SOL     OW70476   6.457   5.403   7.626
56215SOL    HW170477   6.522   5.467   7.597
56215SOL    HW270478   6.480   5.385   7.717
56216SOL     OW70479  11.459   3.115   2.710
56216SOL    HW170480  11.506   3.096   2.629
56216SOL    HW270481  11.459   3.210   2.715
56217SOL     OW70482   5.359  13.658  13.806
56217SOL    HW170483   5.345  13.699  13.721
56217SOL    HW270484   5.443  13.695  13.837
56218SOL     OW70485  10.789  12.357   7.244
56218SOL    HW170486  10.716  12.301   7.269
56218SOL    HW270487  10.861  12.331   7.302
56219SOL     OW70488   5.005   5.331  12.874
56219SOL    HW170489   4.913   5.356  12.871
56219SOL    HW270490   5.032   5.327  12.783
56220SOL     OW70491  10.100  14.220  12.501
56220SOL    HW170492  10.140  14.262  12.425
56220SOL    HW270493  10.069  14.292  12.555
56221SOL     OW70494   6.139  14.143   2.234
56221SOL    HW170495   6.093  14.071   2.192
56221SOL    HW270496   6.232  14.124   2.218
56222SOL     OW70497  10.181   2.933  14.393
56222SOL    HW170498  10.206   2.957  14.304
56222SOL    HW270499  10.244   2.865  14.419
56223SOL     OW70500  11.554   2.207  10.484
56223SOL    HW170501  11.533   2.249  10.401
56223SOL    HW270502  11.494   2.247  10.547
56224SOL     OW70503   0.317  10.221  10.602
56224SOL    HW170504   0.243  10.282  10.600
56224SOL    HW270505   0.394  10.277  10.588
56225SOL     OW70506   2.680   1.258   8.805
56225SOL    HW170507   2.670   1.267   8.900
56225SOL    HW270508   2.638   1.336   8.769
56226SOL     OW70509   8.641  10.293   5.925
56226SOL    HW170510   8.675  10.287   6.015
56226SOL    HW270511   8.635  10.202   5.896
56227SOL     OW70512   1.372  10.443  12.671
56227SOL    HW170513   1.316  10.387  12.617
56227SOL    HW270514   1.326  10.526  12.676
56228SOL     OW70515  13.002   8.744   6.063
56228SOL    HW170516  12.966   8.682   6.126
56228SOL    HW270517  12.945   8.821   6.070
56229SOL     OW70518  10.431  13.593  12.048
56229SOL    HW170519  10.369  13.648  12.000
56229SOL    HW270520  10.375  13.534  12.099
56230SOL     OW70521   4.834   9.959   5.809
56230SOL    HW170522   4.928   9.967   5.794
56230SOL    HW270523   4.824   9.970   5.904
56231SOL     OW70524   0.517  13.268   7.570
56231SOL    HW170525   0.566  13.253   7.651
56231SOL    HW270526   0.552  13.203   7.508
56232SOL     OW70527   8.288  14.628   7.182
56232SOL    HW170528   8.266  14.597   7.270
56232SOL    HW270529   8.215  14.686   7.159
56233SOL     OW70530   4.160  14.651  10.358
56233SOL    HW170531   4.179  14.739  10.325
56233SOL    HW270532   4.066  14.641  10.345
56234SOL     OW70533   9.164   1.439   0.032
56234SOL    HW170534   9.189   1.446   0.124
56234SOL    HW270535   9.125   1.523   0.010
56235SOL     OW70536   4.363   5.395   1.722
56235SOL    HW170537   4.450   5.380   1.684
56235SOL    HW270538   4.367   5.353   1.808
56236SOL     OW70539   3.296  11.465   2.896
56236SOL    HW170540   3.230  11.530   2.918
56236SOL    HW270541   3.247  11.397   2.848
56237SOL     OW70542  14.789  10.445   3.670
56237SOL    HW170543  14.762  10.358   3.700
56237SOL    HW270544  14.858  10.471   3.732
56238SOL     OW70545  11.007   8.592   4.617
56238SOL    HW170546  10.965   8.526   4.562
56238SOL    HW270547  11.061   8.643   4.557
56239SOL     OW70548   0.590   5.282   8.089
56239SOL    HW170549   0.685   5.297   8.083
56239SOL    HW270550   0.566   5.324   8.172
56240SOL     OW70551  11.897  11.311   3.555
56240SOL    HW170552  11.861  11.396   3.580
56240SOL    HW270553  11.822  11.264   3.517
56241SOL     OW70554   9.028   9.226   6.951
56241SOL    HW170555   9.062   9.316   6.952
56241SOL    HW270556   8.980   9.218   7.034
56242SOL     OW70557   7.128   8.709   9.633
56242SOL    HW170558   7.068   8.743   9.566
56242SOL    HW270559   7.182   8.645   9.586
56243SOL     OW70560  10.561  12.738   0.631
56243SOL    HW170561  10.544  12.683   0.708
56243SOL    HW270562  10.533  12.826   0.658
56244SOL     OW70563   7.790   2.554   8.145
56244SOL    HW170564   7.750   2.513   8.068
56244SOL    HW270565   7.835   2.483   8.190
56245SOL     OW70566   8.357  12.116   9.737
56245SOL    HW170567   8.280  12.059   9.736
56245SOL    HW270568   8.363  12.146   9.828
56246SOL     OW70569   4.244  10.530   7.980
56246SOL    HW170570   4.333  10.506   8.003
56246SOL    HW270571   4.210  10.575   8.057
56247SOL     OW70572   0.390  11.269   4.003
56247SOL    HW170573   0.483  11.252   3.993
56247SOL    HW270574   0.367  11.325   3.928
56248SOL     OW70575   5.318  13.419  12.381
56248SOL    HW170576   5.241  13.409  12.437
56248SOL    HW270577   5.375  13.479  12.428
56249SOL     OW70578   1.503   9.427   9.119
56249SOL    HW170579   1.423   9.475   9.097
56249SOL    HW270580   1.483   9.384   9.202
56250SOL     OW70581   5.185   7.998  10.516
56250SOL    HW170582   5.102   7.950  10.510
56250SOL    HW270583   5.160   8.088  10.537
56251SOL     OW70584  13.345   4.784   5.913
56251SOL    HW170585  13.340   4.847   5.985
56251SOL    HW270586  13.268   4.802   5.859
56252SOL     OW70587  12.508   2.903  10.243
56252SOL    HW170588  12.578   2.845  10.274
56252SOL    HW270589  12.430   2.846  10.240
56253SOL     OW70590   2.299   7.371  12.547
56253SOL    HW170591   2.342   7.362  12.631
56253SOL    HW270592   2.324   7.292  12.498
56254SOL     OW70593   4.544  14.309   4.715
56254SOL    HW170594   4.574  14.362   4.642
56254SOL    HW270595   4.459  14.346   4.738
56255SOL     OW70596  12.147   5.082   7.197
56255SOL    HW170597  12.131   5.095   7.104
56255SOL    HW270598  12.066   5.044   7.231
56256SOL     OW70599   1.793  10.940  13.379
56256SOL    HW170600   1.791  10.942  13.475
56256SOL    HW270601   1.844  11.017  13.354
56257SOL     OW70602   5.136   0.823  14.766
56257SOL    HW170603   5.096   0.783  14.689
56257SOL    HW270604   5.084   0.791  14.840
56258SOL     OW70605   0.820   5.378   9.448
56258SOL    HW170606   0.897   5.398   9.502
56258SOL    HW270607   0.774   5.461   9.441
56259SOL     OW70608  11.601   8.275   0.873
56259SOL    HW170609  11.634   8.185   0.873
56259SOL    HW270610  11.551   8.283   0.954
56260SOL     OW70611  13.727  13.880  10.333
56260SOL    HW170612  13.749  13.850  10.422
56260SOL    HW270613  13.812  13.899  10.293
56261SOL     OW70614   0.419   9.419  13.693
56261SOL    HW170615   0.331   9.457  13.694
56261SOL    HW270616   0.445   9.415  13.785
56262SOL     OW70617  10.169   0.947   2.223
56262SOL    HW170618  10.115   0.976   2.149
56262SOL    HW270619  10.111   0.890   2.273
56263SOL     OW70620   8.748   7.068   0.652
56263SOL    HW170621   8.795   7.151   0.644
56263SOL    HW270622   8.812   7.007   0.688
56264SOL     OW70623   5.992  11.849   9.195
56264SOL    HW170624   5.999  11.919   9.130
56264SOL    HW270625   6.051  11.877   9.266
56265SOL     OW70626   6.608  12.004   7.665
56265SOL    HW170627   6.544  12.061   7.707
56265SOL    HW270628   6.572  11.990   7.577
56266SOL     OW70629   5.231   8.059  11.905
56266SOL    HW170630   5.319   8.023  11.916
56266SOL    HW270631   5.187   8.039  11.987
56267SOL     OW70632   7.007   4.419  13.686
56267SOL    HW170633   6.995   4.327  13.712
56267SOL    HW270634   7.074   4.417  13.618
56268SOL     OW70635   1.183   1.959  13.805
56268SOL    HW170636   1.157   2.047  13.777
56268SOL    HW270637   1.206   1.913  13.725
56269SOL     OW70638  10.512   0.155  11.100
56269SOL    HW170639  10.598   0.143  11.061
56269SOL    HW270640  10.454   0.169  11.024
56270SOL     OW70641  11.151  10.371   0.301
56270SOL    HW170642  11.078  10.334   0.251
56270SOL    HW270643  11.159  10.461   0.270
56271SOL     OW70644   9.486   2.797   6.389
56271SOL    HW170645   9.478   2.835   6.301
56271SOL    HW270646   9.396   2.791   6.421
56272SOL     OW70647   0.034  11.688   1.781
56272SOL    HW170648   0.017  11.635   1.703
56272SOL    HW270649  14.856  11.649   1.849
56273SOL     OW70650   8.416   5.801   2.268
56273SOL    HW170651   8.386   5.725   2.218
56273SOL    HW270652   8.504   5.818   2.235
56274SOL     OW70653   1.826  12.600   0.336
56274SOL    HW170654   1.826  12.549   0.255
56274SOL    HW270655   1.793  12.539   0.402
56275SOL     OW70656   5.690   8.764  10.287
56275SOL    HW170657   5.654   8.751  10.374
56275SOL    HW270658   5.615   8.788  10.233
56276SOL     OW70659  10.465   4.806   7.713
56276SOL    HW170660  10.530   4.753   7.759
56276SOL    HW270661  10.398   4.743   7.684
56277SOL     OW70662   0.238   0.913   2.028
56277SOL    HW170663   0.168   0.855   2.057
56277SOL    HW270664   0.289   0.861   1.967
56278SOL     OW70665   9.657  13.523  10.289
56278SOL    HW170666   9.599  13.530  10.365
56278SOL    HW270667   9.630  13.595  10.231
56279SOL     OW70668   8.363  13.442   2.561
56279SOL    HW170669   8.269  13.463   2.560
56279SOL    HW270670   8.391  13.458   2.651
56280SOL     OW70671   3.638   1.829  12.220
56280SOL    HW170672   3.631   1.917  12.182
56280SOL    HW270673   3.710   1.788  12.172
56281SOL     OW70674   9.773   1.470   8.003
56281SOL    HW170675   9.782   1.375   8.011
56281SOL    HW270676   9.858   1.504   8.031
56282SOL     OW70677  10.162   4.351  14.058
56282SOL    HW170678  10.072   4.386  14.063
56282SOL    HW270679  10.213   4.423  14.020
56283SOL     OW70680  14.211   0.514   6.688
56283SOL    HW170681  14.279   0.562   6.641
56283SOL    HW270682  14.247   0.426   6.700
56284SOL     OW70683  13.076   8.164   6.145
56284SOL    HW170684  13.026   8.182   6.066
56284SOL    HW270685  13.090   8.250   6.185
56285SOL     OW70686   4.499   9.339   8.350
56285SOL    HW170687   4.485   9.249   8.322
56285SOL    HW270688   4.568   9.333   8.416
56286SOL     OW70689   4.612  13.459  11.148
56286SOL    HW170690   4.606  13.387  11.085
56286SOL    HW270691   4.660  13.422  11.222
56287SOL     OW70692   0.179   7.341   4.475
56287SOL    HW170693   0.212   7.255   4.501
56287SOL    HW270694   0.187   7.342   4.380
56288SOL     OW70695  11.928   9.706   5.297
56288SOL    HW170696  11.840   9.742   5.287
56288SOL    HW270697  11.954   9.727   5.386
56289SOL     OW70698   8.864  10.259  10.175
56289SOL    HW170699   8.860  10.300  10.261
56289SOL    HW270700   8.957  10.259  10.152
56290SOL     OW70701   2.145   1.402   3.389
56290SOL    HW170702   2.117   1.471   3.449
56290SOL    HW270703   2.071   1.342   3.384
56291SOL     OW70704   2.088   2.500   4.872
56291SOL    HW170705   2.052   2.416   4.843
56291SOL    HW270706   2.133   2.535   4.794
56292SOL     OW70707   6.537   5.332  14.175
56292SOL    HW170708   6.623   5.367  14.152
56292SOL    HW270709   6.554   5.242  14.204
56293SOL     OW70710   7.917   3.483   3.638
56293SOL    HW170711   7.978   3.467   3.566
56293SOL    HW270712   7.837   3.515   3.595
56294SOL     OW70713   7.086  12.661   2.589
56294SOL    HW170714   7.038  12.721   2.647
56294SOL    HW270715   7.018  12.619   2.537
56295SOL     OW70716  12.627  11.351   2.471
56295SOL    HW170717  12.676  11.353   2.553
56295SOL    HW270718  12.605  11.443   2.454
56296SOL     OW70719  14.401   6.851   5.021
56296SOL    HW170720  14.340   6.860   5.094
56296SOL    HW270721  14.480   6.813   5.060
56297SOL     OW70722  14.060  10.366  10.314
56297SOL    HW170723  14.066  10.434  10.382
56297SOL    HW270724  14.011  10.295  10.355
56298SOL     OW70725   5.922   7.984  10.889
56298SOL    HW170726   5.893   7.923  10.821
56298SOL    HW270727   5.864   8.059  10.880
56299SOL     OW70728  10.512   0.316   8.852
56299SOL    HW170729  10.568   0.345   8.780
56299SOL    HW270730  10.551   0.233   8.880
56300SOL     OW70731  10.460  10.402  12.813
56300SOL    HW170732  10.436  10.329  12.871
56300SOL    HW270733  10.554  10.391  12.799
56301SOL     OW70734  13.218   4.955   9.692
56301SOL    HW170735  13.247   4.992   9.609
56301SOL    HW270736  13.167   4.877   9.667
56302SOL     OW70737  12.728   7.530   7.289
56302SOL    HW170738  12.713   7.521   7.195
56302SOL    HW270739  12.791   7.601   7.297
56303SOL     OW70740   2.842   2.831   0.215
56303SOL    HW170741   2.792   2.815   0.135
56303SOL    HW270742   2.908   2.896   0.190
56304SOL     OW70743  14.683   4.405   6.318
56304SOL    HW170744  14.588   4.392   6.326
56304SOL    HW270745  14.712   4.424   6.408
56305SOL     OW70746   2.538   2.632  11.225
56305SOL    HW170747   2.530   2.541  11.197
56305SOL    HW270748   2.473   2.642  11.294
56306SOL     OW70749  11.891   2.585  13.152
56306SOL    HW170750  11.900   2.680  13.143
56306SOL    HW270751  11.820   2.574  13.216
56307SOL     OW70752   1.741   2.034  12.886
56307SOL    HW170753   1.714   2.067  12.972
56307SOL    HW270754   1.662   1.995  12.850
56308SOL     OW70755   6.566   8.141  13.285
56308SOL    HW170756   6.636   8.097  13.332
56308SOL    HW270757   6.499   8.074  13.272
56309SOL     OW70758   7.409   0.597   3.014
56309SOL    HW170759   7.324   0.554   3.013
56309SOL    HW270760   7.471   0.528   3.037
56310SOL     OW70761   3.257  13.896   3.823
56310SOL    HW170762   3.341  13.865   3.858
56310SOL    HW270763   3.240  13.977   3.871
56311SOL     OW70764   0.480  12.148   7.914
56311SOL    HW170765   0.510  12.071   7.865
56311SOL    HW270766   0.396  12.121   7.951
56312SOL     OW70767   8.287   1.432   4.012
56312SOL    HW170768   8.378   1.457   4.029
56312SOL    HW270769   8.239   1.515   4.008
56313SOL     OW70770   4.351   3.418   7.164
56313SOL    HW170771   4.392   3.431   7.079
56313SOL    HW270772   4.394   3.481   7.222
56314SOL     OW70773  13.591   6.893   5.068
56314SOL    HW170774  13.659   6.826   5.057
56314SOL    HW270775  13.615   6.938   5.149
56315SOL     OW70776   8.792  11.125   9.762
56315SOL    HW170777   8.710  11.109   9.715
56315SOL    HW270778   8.796  11.220   9.772
56316SOL     OW70779   2.041   3.886  12.948
56316SOL    HW170780   1.966   3.859  12.894
56316SOL    HW270781   2.117   3.869  12.892
56317SOL     OW70782  14.044   3.503   8.264
56317SOL    HW170783  13.999   3.532   8.343
56317SOL    HW270784  14.131   3.544   8.270
56318SOL     OW70785   0.185  12.444   5.967
56318SOL    HW170786   0.264  12.418   5.920
56318SOL    HW270787   0.138  12.501   5.906
56319SOL     OW70788  13.069   0.815  12.422
56319SOL    HW170789  13.059   0.832  12.329
56319SOL    HW270790  13.028   0.890  12.466
56320SOL     OW70791   4.626  12.250   2.686
56320SOL    HW170792   4.558  12.242   2.752
56320SOL    HW270793   4.603  12.185   2.619
56321SOL     OW70794   4.104   2.267  12.081
56321SOL    HW170795   4.030   2.236  12.134
56321SOL    HW270796   4.108   2.361  12.099
56322SOL     OW70797  10.453   6.939   1.386
56322SOL    HW170798  10.504   7.017   1.408
56322SOL    HW270799  10.414   6.958   1.300
56323SOL     OW70800   0.573   2.814   1.411
56323SOL    HW170801   0.544   2.748   1.474
56323SOL    HW270802   0.606   2.764   1.337
56324SOL     OW70803   6.758   9.685  13.684
56324SOL    HW170804   6.678   9.634  13.690
56324SOL    HW270805   6.813   9.637  13.623
56325SOL     OW70806   3.602   6.203  14.640
56325SOL    HW170807   3.680   6.187  14.692
56325SOL    HW270808   3.602   6.133  14.574
56326SOL     OW70809   7.130   0.583   5.224
56326SOL    HW170810   7.195   0.532   5.271
56326SOL    HW270811   7.081   0.630   5.293
56327SOL     OW70812   7.730  14.872  14.517
56327SOL    HW170813   7.666   0.066  14.534
56327SOL    HW270814   7.693  14.822  14.444
56328SOL     OW70815   9.244  12.763   7.630
56328SOL    HW170816   9.333  12.770   7.596
56328SOL    HW270817   9.210  12.853   7.627
56329SOL     OW70818   7.043  14.394   0.437
56329SOL    HW170819   6.990  14.339   0.494
56329SOL    HW270820   7.133  14.363   0.450
56330SOL     OW70821  11.454  14.025   5.275
56330SOL    HW170822  11.504  14.055   5.200
56330SOL    HW270823  11.416  13.941   5.247
56331SOL     OW70824  12.668   8.852   3.167
56331SOL    HW170825  12.747   8.876   3.216
56331SOL    HW270826  12.700   8.815   3.085
56332SOL     OW70827  13.513   9.223  10.666
56332SOL    HW170828  13.597   9.205  10.708
56332SOL    HW270829  13.535   9.237  10.574
56333SOL     OW70830   1.016  12.827   0.687
56333SOL    HW170831   1.084  12.828   0.619
56333SOL    HW270832   1.004  12.919   0.709
56334SOL     OW70833   2.892  10.471   1.227
56334SOL    HW170834   2.985  10.457   1.206
56334SOL    HW270835   2.886  10.565   1.244
56335SOL     OW70836   1.785  11.289   6.923
56335SOL    HW170837   1.768  11.243   6.840
56335SOL    HW270838   1.725  11.364   6.921
56336SOL     OW70839  10.219   7.857  11.406
56336SOL    HW170840  10.174   7.802  11.471
56336SOL    HW270841  10.152   7.879  11.342
56337SOL     OW70842  12.743  13.470   3.539
56337SOL    HW170843  12.803  13.518   3.481
56337SOL    HW270844  12.680  13.429   3.480
56338SOL     OW70845   7.644  14.310   4.535
56338SOL    HW170846   7.605  14.228   4.504
56338SOL    HW270847   7.608  14.377   4.477
56339SOL     OW70848  14.208   3.708   6.926
56339SOL    HW170849  14.240   3.692   6.837
56339SOL    HW270850  14.228   3.800   6.942
56340SOL     OW70851   7.079  10.876   8.996
56340SOL    HW170852   7.115  10.808   9.053
56340SOL    HW270853   7.066  10.951   9.054
56341SOL     OW70854   6.060   0.683   8.173
56341SOL    HW170855   6.015   0.649   8.251
56341SOL    HW270856   6.116   0.753   8.206
56342SOL     OW70857  10.500  12.978   1.675
56342SOL    HW170858  10.467  13.022   1.753
56342SOL    HW270859  10.513  13.048   1.611
56343SOL     OW70860   2.332   3.182  11.621
56343SOL    HW170861   2.302   3.203  11.710
56343SOL    HW270862   2.344   3.267  11.579
56344SOL     OW70863   8.266   8.072   9.024
56344SOL    HW170864   8.209   8.032   9.089
56344SOL    HW270865   8.207   8.098   8.953
56345SOL     OW70866  13.424   2.159   5.263
56345SOL    HW170867  13.507   2.205   5.277
56345SOL    HW270868  13.448   2.085   5.206
56346SOL     OW70869   2.202   6.715  13.351
56346SOL    HW170870   2.130   6.736  13.411
56346SOL    HW270871   2.281   6.733  13.402
56347SOL     OW70872  12.702  10.737   3.486
56347SOL    HW170873  12.674  10.647   3.468
56347SOL    HW270874  12.630  10.775   3.537
56348SOL     OW70875   1.184   1.410  12.926
56348SOL    HW170876   1.144   1.394  13.011
56348SOL    HW270877   1.266   1.361  12.928
56349SOL     OW70878  11.968   7.243   5.669
56349SOL    HW170879  11.970   7.339   5.662
56349SOL    HW270880  11.914   7.215   5.595
56350SOL     OW70881  10.869  12.920   9.395
56350SOL    HW170882  10.821  12.903   9.476
56350SOL    HW270883  10.961  12.910   9.420
56351SOL     OW70884   4.986  11.661   1.649
56351SOL    HW170885   4.916  11.715   1.688
56351SOL    HW270886   5.027  11.719   1.585
56352SOL     OW70887  14.237  14.285   9.354
56352SOL    HW170888  14.185  14.318   9.427
56352SOL    HW270889  14.259  14.363   9.303
56353SOL     OW70890  10.612   9.682   5.763
56353SOL    HW170891  10.689   9.715   5.811
56353SOL    HW270892  10.576   9.759   5.719
56354SOL     OW70893  12.838   1.852  11.965
56354SOL    HW170894  12.851   1.915  11.893
56354SOL    HW270895  12.745   1.859  11.987
56355SOL     OW70896  10.371  13.769   1.854
56355SOL    HW170897  10.453  13.726   1.831
56355SOL    HW270898  10.378  13.857   1.815
56356SOL     OW70899   7.905   9.860   1.205
56356SOL    HW170900   7.904   9.919   1.281
56356SOL    HW270901   7.815   9.863   1.173
56357SOL     OW70902   1.248   5.506   8.168
56357SOL    HW170903   1.175   5.468   8.218
56357SOL    HW270904   1.206   5.550   8.094
56358SOL     OW70905  13.836  14.246   1.633
56358SOL    HW170906  13.833  14.157   1.598
56358SOL    HW270907  13.860  14.300   1.558
56359SOL     OW70908   0.262  11.533  12.099
56359SOL    HW170909   0.315  11.457  12.120
56359SOL    HW270910   0.201  11.503  12.032
56360SOL     OW70911   8.775   7.362   4.827
56360SOL    HW170912   8.844   7.332   4.768
56360SOL    HW270913   8.730   7.431   4.778
56361SOL     OW70914  14.183  11.608   3.871
56361SOL    HW170915  14.266  11.649   3.894
56361SOL    HW270916  14.155  11.563   3.950
56362SOL     OW70917   2.540   1.069  10.771
56362SOL    HW170918   2.531   1.086  10.864
56362SOL    HW270919   2.452   1.081  10.735
56363SOL     OW70920  14.293  12.398   1.409
56363SOL    HW170921  14.297  12.401   1.314
56363SOL    HW270922  14.372  12.444   1.438
56364SOL     OW70923   0.915  10.359   1.768
56364SOL    HW170924   0.852  10.419   1.728
56364SOL    HW270925   0.864  10.309   1.831
56365SOL     OW70926   9.486  11.189   4.321
56365SOL    HW170927   9.468  11.184   4.227
56365SOL    HW270928   9.431  11.120   4.359
56366SOL     OW70929   1.310  14.855   4.287
56366SOL    HW170930   1.296   0.042   4.216
56366SOL    HW270931   1.377   0.020   4.342
56367SOL     OW70932   1.278   3.464   4.879
56367SOL    HW170933   1.199   3.519   4.882
56367SOL    HW270934   1.266   3.410   4.801
56368SOL     OW70935   1.328  11.008   8.598
56368SOL    HW170936   1.374  10.972   8.522
56368SOL    HW270937   1.393  11.062   8.643
56369SOL     OW70938  13.859   8.542   4.198
56369SOL    HW170939  13.845   8.633   4.225
56369SOL    HW270940  13.797   8.491   4.250
56370SOL     OW70941  13.028  11.413  11.650
56370SOL    HW170942  12.957  11.477  11.656
56370SOL    HW270943  13.067  11.427  11.564
56371SOL     OW70944   4.086  11.248   6.290
56371SOL    HW170945   3.996  11.267   6.263
56371SOL    HW270946   4.099  11.300   6.369
56372SOL     OW70947   9.909   7.230   5.300
56372SOL    HW170948   9.824   7.188   5.314
56372SOL    HW270949   9.913   7.247   5.206
56373SOL     OW70950   9.191   0.806  11.786
56373SOL    HW170951   9.149   0.874  11.839
56373SOL    HW270952   9.283   0.833  11.781
56374SOL     OW70953   1.891   6.393  11.078
56374SOL    HW170954   1.905   6.486  11.063
56374SOL    HW270955   1.964   6.366  11.133
56375SOL     OW70956  12.704  12.921  12.505
56375SOL    HW170957  12.746  13.007  12.509
56375SOL    HW270958  12.622  12.937  12.458
56376SOL     OW70959   3.749  12.567   6.985
56376SOL    HW170960   3.832  12.533   7.019
56376SOL    HW270961   3.774  12.644   6.935
56377SOL     OW70962   8.858   5.343   3.736
56377SOL    HW170963   8.932   5.396   3.767
56377SOL    HW270964   8.895   5.255   3.724
56378SOL     OW70965   3.315   0.751   2.935
56378SOL    HW170966   3.286   0.806   3.007
56378SOL    HW270967   3.255   0.676   2.937
56379SOL     OW70968   1.077  13.328   9.435
56379SOL    HW170969   1.019  13.383   9.487
56379SOL    HW270970   1.031  13.316   9.352
56380SOL     OW70971   2.522  14.167   6.463
56380SOL    HW170972   2.432  14.170   6.432
56380SOL    HW270973   2.575  14.187   6.386
56381SOL     OW70974   0.344  12.636   6.135
56381SOL    HW170975   0.299  12.570   6.082
56381SOL    HW270976   0.429  12.597   6.155
56382SOL     OW70977   3.711   4.830  13.616
56382SOL    HW170978   3.805   4.847  13.627
56382SOL    HW270979   3.669   4.914  13.632
56383SOL     OW70980   3.526   6.031   0.565
56383SOL    HW170981   3.575   5.975   0.625
56383SOL    HW270982   3.583   6.107   0.551
56384SOL     OW70983   5.758   5.172   4.054
56384SOL    HW170984   5.812   5.095   4.036
56384SOL    HW270985   5.811   5.225   4.115
56385SOL     OW70986  11.582   6.312   3.258
56385SOL    HW170987  11.645   6.382   3.274
56385SOL    HW270988  11.498   6.357   3.249
56386SOL     OW70989   0.231  13.577   6.468
56386SOL    HW170990   0.277  13.638   6.525
56386SOL    HW270991   0.298  13.543   6.409
56387SOL     OW70992   7.078   3.114  12.266
56387SOL    HW170993   7.141   3.172  12.309
56387SOL    HW270994   7.120   3.091  12.183
56388SOL     OW70995   3.067   6.927   6.659
56388SOL    HW170996   3.033   7.011   6.689
56388SOL    HW270997   3.129   6.949   6.589
56389SOL     OW70998   5.753  12.238  12.960
56389SOL    HW170999   5.665  12.206  12.942
56389SOL    HW271000   5.806  12.203  12.888
56390SOL     OW71001   4.452   8.487   5.540
56390SOL    HW171002   4.493   8.412   5.496
56390SOL    HW271003   4.444   8.460   5.631
56391SOL     OW71004   2.758   4.504  12.765
56391SOL    HW171005   2.850   4.479  12.754
56391SOL    HW271006   2.759   4.600  12.763
56392SOL     OW71007   7.729  11.142  14.354
56392SOL    HW171008   7.650  11.194  14.367
56392SOL    HW271009   7.698  11.058  14.319
56393SOL     OW71010   2.829   4.622   7.741
56393SOL    HW171011   2.845   4.717   7.742
56393SOL    HW271012   2.798   4.604   7.653
56394SOL     OW71013  10.760   8.012   4.757
56394SOL    HW171014  10.747   7.988   4.849
56394SOL    HW271015  10.684   8.066   4.735
56395SOL     OW71016   6.439   5.980   1.094
56395SOL    HW171017   6.516   5.924   1.082
56395SOL    HW271018   6.396   5.946   1.173
56396SOL     OW71019   0.322  11.881   1.488
56396SOL    HW171020   0.395  11.821   1.474
56396SOL    HW271021   0.363  11.968   1.489
56397SOL     OW71022   0.695   3.431   5.491
56397SOL    HW171023   0.760   3.399   5.428
56397SOL    HW271024   0.614   3.437   5.442
56398SOL     OW71025  14.849   0.270  11.942
56398SOL    HW171026   0.022   0.248  12.021
56398SOL    HW271027  14.817   0.186  11.909
56399SOL     OW71028  11.637   8.761   8.002
56399SOL    HW171029  11.607   8.670   8.000
56399SOL    HW271030  11.732   8.754   7.998
56400SOL     OW71031   0.886   7.620   5.016
56400SOL    HW171032   0.980   7.606   5.020
56400SOL    HW271033   0.852   7.579   5.095
56401SOL     OW71034   4.904   1.386   2.934
56401SOL    HW171035   4.929   1.309   2.883
56401SOL    HW271036   4.850   1.438   2.875
56402SOL     OW71037   8.767  10.810   0.859
56402SOL    HW171038   8.801  10.828   0.947
56402SOL    HW271039   8.821  10.738   0.827
56403SOL     OW71040   9.069  10.489   0.068
56403SOL    HW171041   9.073  10.563   0.129
56403SOL    HW271042   9.092  10.527  14.859
56404SOL     OW71043  14.381  13.837  14.810
56404SOL    HW171044  14.359  13.748  14.838
56404SOL    HW271045  14.385  13.888   0.015
56405SOL     OW71046   4.540   6.134   6.696
56405SOL    HW171047   4.534   6.216   6.648
56405SOL    HW271048   4.540   6.160   6.788
56406SOL     OW71049   4.844   3.673   8.956
56406SOL    HW171050   4.923   3.720   8.931
56406SOL    HW271051   4.777   3.741   8.963
56407SOL     OW71052   5.346  12.176  14.379
56407SOL    HW171053   5.432  12.151  14.347
56407SOL    HW271054   5.306  12.225  14.307
56408SOL     OW71055  10.374   9.964  14.728
56408SOL    HW171056  10.375   9.930  14.817
56408SOL    HW271057  10.286   9.947  14.696
56409SOL     OW71058   1.923  12.568  12.273
56409SOL    HW171059   1.880  12.609  12.347
56409SOL    HW271060   1.976  12.637  12.234
56410SOL     OW71061   8.482   6.449   6.835
56410SOL    HW171062   8.407   6.441   6.893
56410SOL    HW271063   8.533   6.522   6.871
56411SOL     OW71064   9.594   6.914   7.199
56411SOL    HW171065   9.665   6.896   7.137
56411SOL    HW271066   9.550   6.830   7.210
56412SOL     OW71067  10.304   7.573   9.956
56412SOL    HW171068  10.384   7.556  10.005
56412SOL    HW271069  10.255   7.635  10.010
56413SOL     OW71070   7.886  13.884   2.654
56413SOL    HW171071   7.935  13.949   2.705
56413SOL    HW271072   7.897  13.803   2.703
56414SOL     OW71073   8.103  12.076   8.109
56414SOL    HW171074   8.023  12.056   8.157
56414SOL    HW271075   8.078  12.148   8.050
56415SOL     OW71076   2.231   9.746   5.884
56415SOL    HW171077   2.139   9.759   5.907
56415SOL    HW271078   2.253   9.822   5.830
56416SOL     OW71079   0.846   7.164   9.119
56416SOL    HW171080   0.887   7.193   9.201
56416SOL    HW271081   0.873   7.230   9.055
56417SOL     OW71082   9.943   6.843   9.364
56417SOL    HW171083   9.898   6.759   9.350
56417SOL    HW271084   9.910   6.874   9.449
56418SOL     OW71085   1.676  11.083   0.849
56418SOL    HW171086   1.686  11.064   0.755
56418SOL    HW271087   1.765  11.076   0.884
56419SOL     OW71088   8.278  11.878  12.529
56419SOL    HW171089   8.316  11.958  12.492
56419SOL    HW271090   8.336  11.856  12.602
56420SOL     OW71091   7.874  14.239   8.845
56420SOL    HW171092   7.899  14.231   8.753
56420SOL    HW271093   7.955  14.262   8.890
56421SOL     OW71094   5.705   5.640   4.245
56421SOL    HW171095   5.654   5.651   4.164
56421SOL    HW271096   5.664   5.565   4.288
56422SOL     OW71097   9.927   6.094  10.096
56422SOL    HW171098   9.901   6.184  10.113
56422SOL    HW271099   9.989   6.073  10.165
56423SOL     OW71100  13.840  10.831   5.418
56423SOL    HW171101  13.920  10.860   5.462
56423SOL    HW271102  13.854  10.851   5.326
56424SOL     OW71103   6.459  12.780   2.843
56424SOL    HW171104   6.394  12.782   2.914
56424SOL    HW271105   6.409  12.761   2.764
56425SOL     OW71106  12.840  13.326   9.164
56425SOL    HW171107  12.771  13.269   9.131
56425SOL    HW271108  12.886  13.273   9.229
56426SOL     OW71109  12.804   0.967   8.945
56426SOL    HW171110  12.827   1.057   8.968
56426SOL    HW271111  12.799   0.922   9.029
56427SOL     OW71112   7.371   8.789   6.668
56427SOL    HW171113   7.445   8.788   6.729
56427SOL    HW271114   7.301   8.743   6.714
56428SOL     OW71115   4.958   3.712  11.220
56428SOL    HW171116   5.049   3.737  11.235
56428SOL    HW271117   4.935   3.758  11.139
56429SOL     OW71118  11.953  13.500   1.224
56429SOL    HW171119  11.895  13.533   1.156
56429SOL    HW271120  11.965  13.408   1.203
56430SOL     OW71121  12.338  12.122   8.174
56430SOL    HW171122  12.413  12.181   8.164
56430SOL    HW271123  12.351  12.081   8.259
56431SOL     OW71124  14.179  11.920  10.129
56431SOL    HW171125  14.193  12.011  10.105
56431SOL    HW271126  14.261  11.892  10.169
56432SOL     OW71127  11.052   1.979  13.139
56432SOL    HW171128  11.086   1.915  13.201
56432SOL    HW271129  10.958   1.959  13.134
56433SOL     OW71130  10.520   9.920  10.049
56433SOL    HW171131  10.440   9.870  10.062
56433SOL    HW271132  10.567   9.912  10.132
56434SOL     OW71133   2.289  10.011  13.166
56434SOL    HW171134   2.241  10.065  13.102
56434SOL    HW271135   2.307   9.929  13.119
56435SOL     OW71136   7.527  12.014   3.252
56435SOL    HW171137   7.608  12.049   3.214
56435SOL    HW271138   7.457  12.050   3.197
56436SOL     OW71139  14.461   6.166   3.876
56436SOL    HW171140  14.498   6.223   3.943
56436SOL    HW271141  14.366   6.177   3.886
56437SOL     OW71142  12.085   6.844   2.878
56437SOL    HW171143  12.148   6.800   2.821
56437SOL    HW271144  11.999   6.818   2.843
56438SOL     OW71145  12.702   0.577   7.162
56438SOL    HW171146  12.647   0.503   7.187
56438SOL    HW271147  12.645   0.653   7.170
56439SOL     OW71148  13.920   9.074   8.271
56439SOL    HW171149  13.981   9.035   8.334
56439SOL    HW271150  13.928   9.020   8.193
56440SOL     OW71151   9.475   0.586   6.950
56440SOL    HW171152   9.529   0.631   7.014
56440SOL    HW271153   9.451   0.504   6.993
56441SOL     OW71154  13.122   2.316   5.278
56441SOL    HW171155  13.159   2.403   5.267
56441SOL    HW271156  13.192   2.266   5.321
56442SOL     OW71157   9.576   5.919   2.311
56442SOL    HW171158   9.671   5.927   2.297
56442SOL    HW271159   9.539   5.999   2.274
56443SOL     OW71160   6.464   1.980   7.419
56443SOL    HW171161   6.509   1.897   7.406
56443SOL    HW271162   6.401   1.985   7.347
56444SOL     OW71163   6.386   9.427   0.912
56444SOL    HW171164   6.330   9.369   0.860
56444SOL    HW271165   6.472   9.386   0.911
56445SOL     OW71166   4.027  10.519   2.383
56445SOL    HW171167   4.044  10.465   2.460
56445SOL    HW271168   4.022  10.456   2.311
56446SOL     OW71169   2.645   7.274   2.352
56446SOL    HW171170   2.657   7.201   2.292
56446SOL    HW271171   2.563   7.315   2.322
56447SOL     OW71172   7.392  13.502   1.463
56447SOL    HW171173   7.481  13.512   1.498
56447SOL    HW271174   7.363  13.417   1.498
56448SOL     OW71175   5.814   1.180   6.744
56448SOL    HW171176   5.780   1.187   6.655
56448SOL    HW271177   5.784   1.095   6.776
56449SOL     OW71178   3.558   0.743   3.889
56449SOL    HW171179   3.604   0.713   3.967
56449SOL    HW271180   3.608   0.819   3.859
56450SOL     OW71181   8.347   8.405  11.981
56450SOL    HW171182   8.253   8.421  11.975
56450SOL    HW271183   8.362   8.385  12.073
56451SOL     OW71184  12.118   2.667   8.617
56451SOL    HW171185  12.134   2.744   8.672
56451SOL    HW271186  12.177   2.600   8.653
56452SOL     OW71187  13.601   5.270   4.404
56452SOL    HW171188  13.586   5.251   4.496
56452SOL    HW271189  13.693   5.298   4.400
56453SOL     OW71190   8.164   1.898   3.612
56453SOL    HW171191   8.082   1.931   3.647
56453SOL    HW271192   8.166   1.926   3.521
56454SOL     OW71193  14.856  11.109  10.328
56454SOL    HW171194  14.770  11.086  10.364
56454SOL    HW271195  14.838  11.172  10.259
56455SOL     OW71196   6.900   4.525   9.364
56455SOL    HW171197   6.943   4.503   9.281
56455SOL    HW271198   6.807   4.509   9.348
56456SOL     OW71199   0.691  14.668  11.493
56456SOL    HW171200   0.663  14.705  11.577
56456SOL    HW271201   0.783  14.644  11.507
56457SOL     OW71202   8.747  11.331  12.478
56457SOL    HW171203   8.675  11.275  12.506
56457SOL    HW271204   8.705  11.397  12.422
56458SOL     OW71205  13.824  13.554   3.760
56458SOL    HW171206  13.789  13.473   3.724
56458SOL    HW271207  13.784  13.561   3.847
56459SOL     OW71208  13.654   9.349   0.628
56459SOL    HW171209  13.639   9.260   0.597
56459SOL    HW271210  13.631   9.347   0.721
56460SOL     OW71211   9.939  14.596   8.648
56460SOL    HW171212   9.922  14.594   8.742
56460SOL    HW271213   9.989  14.677   8.635
56461SOL     OW71214  14.869   3.675   5.178
56461SOL    HW171215   0.080   3.705   5.152
56461SOL    HW271216  14.829   3.751   5.221
56462SOL     OW71217   7.781  14.373   3.709
56462SOL    HW171218   7.688  14.393   3.718
56462SOL    HW271219   7.801  14.318   3.785
56463SOL     OW71220   6.589   2.429  10.478
56463SOL    HW171221   6.680   2.409  10.499
56463SOL    HW271222   6.550   2.454  10.562
56464SOL     OW71223   1.965   9.042   9.490
56464SOL    HW171224   2.024   9.108   9.526
56464SOL    HW271225   1.894   9.036   9.554
56465SOL     OW71226  14.323   6.905   0.955
56465SOL    HW171227  14.330   6.994   0.991
56465SOL    HW271228  14.304   6.918   0.863
56466SOL     OW71229   7.923   9.530   4.082
56466SOL    HW171230   7.994   9.567   4.134
56466SOL    HW271231   7.848   9.588   4.098
56467SOL     OW71232   5.143   9.384  14.062
56467SOL    HW171233   5.111   9.297  14.082
56467SOL    HW271234   5.227   9.369  14.017
56468SOL     OW71235  12.783   7.448   4.923
56468SOL    HW171236  12.819   7.432   4.836
56468SOL    HW271237  12.795   7.542   4.937
56469SOL     OW71238  10.641   8.090   0.078
56469SOL    HW171239  10.552   8.057   0.067
56469SOL    HW271240  10.673   8.102  14.864
56470SOL     OW71241   9.782   6.628   9.331
56470SOL    HW171242   9.763   6.632   9.237
56470SOL    HW271243   9.804   6.536   9.348
56471SOL     OW71244   7.152   4.162   1.449
56471SOL    HW171245   7.231   4.207   1.480
56471SOL    HW271246   7.115   4.222   1.384
56472SOL     OW71247  14.615   9.866  12.324
56472SOL    HW171248  14.649   9.955  12.317
56472SOL    HW271249  14.662   9.818  12.256
56473SOL     OW71250   6.923  10.095   1.552
56473SOL    HW171251   7.016  10.114   1.565
56473SOL    HW271252   6.899  10.041   1.627
56474SOL     OW71253  13.782   6.190   6.144
56474SOL    HW171254  13.820   6.102   6.144
56474SOL    HW271255  13.830   6.236   6.075
56475SOL     OW71256  10.237  12.426   8.316
56475SOL    HW171257  10.153  12.466   8.337
56475SOL    HW271258  10.219  12.332   8.315
56476SOL     OW71259  10.412   2.688   8.313
56476SOL    HW171260  10.470   2.637   8.257
56476SOL    HW271261  10.393   2.767   8.262
56477SOL     OW71262   8.728   8.008  14.712
56477SOL    HW171263   8.776   8.083  14.748
56477SOL    HW271264   8.791   7.967  14.653
56478SOL     OW71265   3.424   7.449   5.621
56478SOL    HW171266   3.447   7.372   5.673
56478SOL    HW271267   3.328   7.451   5.622
56479SOL     OW71268   9.800  10.795  13.161
56479SOL    HW171269   9.818  10.753  13.077
56479SOL    HW271270   9.797  10.722  13.224
56480SOL     OW71271  10.924  10.788   6.290
56480SOL    HW171272  10.948  10.763   6.379
56480SOL    HW271273  10.976  10.729   6.235
56481SOL     OW71274   0.141  12.739   9.414
56481SOL    HW171275   0.115  12.829   9.437
56481SOL    HW271276   0.233  12.746   9.390
56482SOL     OW71277   0.494   7.653   6.212
56482SOL    HW171278   0.583   7.632   6.242
56482SOL    HW271279   0.442   7.658   6.292
56483SOL     OW71280   8.054   1.182   0.215
56483SOL    HW171281   8.137   1.201   0.259
56483SOL    HW271282   8.003   1.134   0.280
56484SOL     OW71283  11.596  11.340  12.215
56484SOL    HW171284  11.638  11.353  12.130
56484SOL    HW271285  11.646  11.271  12.257
56485SOL     OW71286   0.828   3.784   7.552
56485SOL    HW171287   0.820   3.879   7.555
56485SOL    HW271288   0.919   3.767   7.531
56486SOL     OW71289   0.844   3.966   0.292
56486SOL    HW171290   0.887   4.052   0.299
56486SOL    HW271291   0.822   3.959   0.199
56487SOL     OW71292   5.097   4.207   2.443
56487SOL    HW171293   5.042   4.180   2.369
56487SOL    HW271294   5.158   4.135   2.454
56488SOL     OW71295  13.498   2.504   9.325
56488SOL    HW171296  13.521   2.596   9.314
56488SOL    HW271297  13.459   2.479   9.241
56489SOL     OW71298  12.119  10.273   1.224
56489SOL    HW171299  12.082  10.192   1.190
56489SOL    HW271300  12.044  10.320   1.260
56490SOL     OW71301   3.339   9.153   8.427
56490SOL    HW171302   3.326   9.243   8.396
56490SOL    HW271303   3.256   9.129   8.466
56491SOL     OW71304  11.183   6.479   4.731
56491SOL    HW171305  11.095   6.516   4.730
56491SOL    HW271306  11.235   6.540   4.679
56492SOL     OW71307   6.150   6.999   3.850
56492SOL    HW171308   6.116   7.051   3.777
56492SOL    HW271309   6.230   6.960   3.817
56493SOL     OW71310   3.784  14.043   1.863
56493SOL    HW171311   3.749  13.954   1.853
56493SOL    HW271312   3.724  14.098   1.812
56494SOL     OW71313  11.372   6.217   7.071
56494SOL    HW171314  11.442   6.187   7.013
56494SOL    HW271315  11.390   6.311   7.083
56495SOL     OW71316  10.270   8.721   8.932
56495SOL    HW171317  10.205   8.707   9.001
56495SOL    HW271318  10.344   8.667   8.958
56496SOL     OW71319   5.914   5.580   2.850
56496SOL    HW171320   5.895   5.638   2.924
56496SOL    HW271321   6.006   5.556   2.861
56497SOL     OW71322   1.736   6.510   8.920
56497SOL    HW171323   1.679   6.458   8.864
56497SOL    HW271324   1.675   6.558   8.977
56498SOL     OW71325   3.268  10.859   9.266
56498SOL    HW171326   3.190  10.897   9.227
56498SOL    HW271327   3.333  10.858   9.196
56499SOL     OW71328  12.841   1.396   4.617
56499SOL    HW171329  12.817   1.474   4.566
56499SOL    HW271330  12.883   1.338   4.554
56500SOL     OW71331   0.905   4.807   3.379
56500SOL    HW171332   0.907   4.903   3.378
56500SOL    HW271333   0.823   4.785   3.334
56501SOL     OW71334   2.844   0.741   7.337
56501SOL    HW171335   2.840   0.754   7.432
56501SOL    HW271336   2.871   0.826   7.303
56502SOL     OW71337  10.004   9.361   0.189
56502SOL    HW171338  10.096   9.355   0.214
56502SOL    HW271339   9.961   9.291   0.238
56503SOL     OW71340  10.696   7.835  14.749
56503SOL    HW171341  10.657   7.919  14.725
56503SOL    HW271342  10.652   7.771  14.693
56504SOL     OW71343   5.814  12.451  13.326
56504SOL    HW171344   5.879  12.516  13.299
56504SOL    HW271345   5.734  12.502  13.339
56505SOL     OW71346   2.033   7.262  11.364
56505SOL    HW171347   1.938   7.267  11.354
56505SOL    HW271348   2.056   7.340  11.414
56506SOL     OW71349   7.927   3.652   5.803
56506SOL    HW171350   7.909   3.635   5.896
56506SOL    HW271351   7.847   3.693   5.770
56507SOL     OW71352   8.540   7.358   2.537
56507SOL    HW171353   8.580   7.272   2.551
56507SOL    HW271354   8.450   7.339   2.512
56508SOL     OW71355   1.317   9.742   5.980
56508SOL    HW171356   1.318   9.797   5.901
56508SOL    HW271357   1.275   9.796   6.047
56509SOL     OW71358  11.993   9.558   2.354
56509SOL    HW171359  12.024   9.635   2.306
56509SOL    HW271360  12.028   9.569   2.443
56510SOL     OW71361   7.108   4.387   5.963
56510SOL    HW171362   7.018   4.408   5.990
56510SOL    HW271363   7.160   4.397   6.042
56511SOL     OW71364   4.852  14.667   2.099
56511SOL    HW171365   4.835  14.752   2.058
56511SOL    HW271366   4.767  14.625   2.104
56512SOL     OW71367   8.522   0.809  14.063
56512SOL    HW171368   8.573   0.728  14.053
56512SOL    HW271369   8.569   0.873  14.010
56513SOL     OW71370  13.657   5.782   4.114
56513SOL    HW171371  13.652   5.779   4.019
56513SOL    HW271372  13.746   5.812   4.132
56514SOL     OW71373   7.137   0.687  10.245
56514SOL    HW171374   7.077   0.658  10.313
56514SOL    HW271375   7.095   0.661  10.163
56515SOL     OW71376   9.050   5.553  11.565
56515SOL    HW171377   9.069   5.634  11.611
56515SOL    HW271378   9.104   5.487  11.608
56516SOL     OW71379   9.605  13.453  13.318
56516SOL    HW171380   9.561  13.502  13.387
56516SOL    HW271381   9.603  13.362  13.348
56517SOL     OW71382   9.942  10.528   7.007
56517SOL    HW171383  10.016  10.476   7.041
56517SOL    HW271384   9.961  10.536   6.914
56518SOL     OW71385   1.630   2.793  11.293
56518SOL    HW171386   1.586   2.857  11.236
56518SOL    HW271387   1.611   2.709  11.252
56519SOL     OW71388  13.646   6.431   2.287
56519SOL    HW171389  13.664   6.352   2.236
56519SOL    HW271390  13.658   6.503   2.226
56520SOL     OW71391   7.716   7.998  13.365
56520SOL    HW171392   7.707   7.998  13.270
56520SOL    HW271393   7.730   8.089  13.389
56521SOL     OW71394   2.721   9.160   2.497
56521SOL    HW171395   2.712   9.072   2.533
56521SOL    HW271396   2.682   9.217   2.564
56522SOL     OW71397   2.796  14.792   4.238
56522SOL    HW171398   2.878  14.743   4.225
56522SOL    HW271399   2.816   0.004   4.207
56523SOL     OW71400   6.376   5.745   8.246
56523SOL    HW171401   6.358   5.802   8.171
56523SOL    HW271402   6.341   5.793   8.321
56524SOL     OW71403   3.289   6.287  10.686
56524SOL    HW171404   3.362   6.314  10.630
56524SOL    HW271405   3.212   6.326  10.645
56525SOL     OW71406  11.823   3.469   2.639
56525SOL    HW171407  11.769   3.507   2.709
56525SOL    HW271408  11.897   3.528   2.631
56526SOL     OW71409  11.955   4.865   1.627
56526SOL    HW171410  11.994   4.782   1.655
56526SOL    HW271411  11.985   4.876   1.536
56527SOL     OW71412  12.594   1.664  14.353
56527SOL    HW171413  12.661   1.618  14.303
56527SOL    HW271414  12.545   1.595  14.397
56528SOL     OW71415   5.936   2.153   3.299
56528SOL    HW171416   5.919   2.066   3.263
56528SOL    HW271417   5.873   2.210   3.256
56529SOL     OW71418   8.489  13.412   1.121
56529SOL    HW171419   8.460  13.342   1.180
56529SOL    HW271420   8.584  13.411   1.129
56530SOL     OW71421   9.134  11.901  10.659
56530SOL    HW171422   9.051  11.874  10.618
56530SOL    HW271423   9.200  11.845  10.618
56531SOL     OW71424  10.857   9.030   8.627
56531SOL    HW171425  10.877   9.058   8.716
56531SOL    HW271426  10.766   9.056   8.614
56532SOL     OW71427   0.026   8.769   4.790
56532SOL    HW171428   0.094   8.759   4.724
56532SOL    HW271429  14.827   8.807   4.743
56533SOL     OW71430   5.812   7.753   4.833
56533SOL    HW171431   5.733   7.796   4.866
56533SOL    HW271432   5.781   7.701   4.759
56534SOL     OW71433   4.374   8.064   4.315
56534SOL    HW171434   4.396   8.157   4.318
56534SOL    HW271435   4.344   8.043   4.404
56535SOL     OW71436   4.927  12.766  13.202
56535SOL    HW171437   4.853  12.827  13.202
56535SOL    HW271438   4.892  12.685  13.166
56536SOL     OW71439  10.115   1.256   9.709
56536SOL    HW171440  10.086   1.343   9.736
56536SOL    HW271441  10.110   1.203   9.789
56537SOL     OW71442   6.970   8.516   0.094
56537SOL    HW171443   6.891   8.463   0.104
56537SOL    HW271444   6.994   8.541   0.183
56538SOL     OW71445   2.141  10.649   8.640
56538SOL    HW171446   2.089  10.686   8.568
56538SOL    HW271447   2.167  10.724   8.692
56539SOL     OW71448  13.677  10.748   8.974
56539SOL    HW171449  13.739  10.766   8.904
56539SOL    HW271450  13.657  10.654   8.965
56540SOL     OW71451   9.349   3.546  11.733
56540SOL    HW171452   9.310   3.485  11.671
56540SOL    HW271453   9.361   3.495  11.814
56541SOL     OW71454  13.611   6.341  10.838
56541SOL    HW171455  13.694   6.348  10.790
56541SOL    HW271456  13.590   6.431  10.862
56542SOL     OW71457   7.708   2.104   5.274
56542SOL    HW171458   7.681   2.196   5.277
56542SOL    HW271459   7.677   2.067   5.357
56543SOL     OW71460   8.267  14.792   2.025
56543SOL    HW171461   8.228  14.874   2.058
56543SOL    HW271462   8.355  14.818   1.997
56544SOL     OW71463   1.333   4.473  12.620
56544SOL    HW171464   1.260   4.509  12.670
56544SOL    HW271465   1.402   4.460  12.685
56545SOL     OW71466   4.640  11.762  12.321
56545SOL    HW171467   4.690  11.684  12.343
56545SOL    HW271468   4.701  11.835  12.332
56546SOL     OW71469   1.432   0.739  13.157
56546SOL    HW171470   1.342   0.739  13.190
56546SOL    HW271471   1.441   0.654  13.113
56547SOL     OW71472   8.167   4.779   9.534
56547SOL    HW171473   8.114   4.854   9.560
56547SOL    HW271474   8.240   4.779   9.596
56548SOL     OW71475   2.832  13.421   1.131
56548SOL    HW171476   2.824  13.362   1.206
56548SOL    HW271477   2.741  13.436   1.103
56549SOL     OW71478  11.798   9.906   9.238
56549SOL    HW171479  11.794   9.845   9.165
56549SOL    HW271480  11.811   9.850   9.315
56550SOL     OW71481   3.635   1.573   4.388
56550SOL    HW171482   3.567   1.606   4.447
56550SOL    HW271483   3.594   1.574   4.302
56551SOL     OW71484   0.843   9.068   0.957
56551SOL    HW171485   0.904   9.036   1.023
56551SOL    HW271486   0.798   9.141   0.999
56552SOL     OW71487   7.262   4.663   0.040
56552SOL    HW171488   7.210   4.622   0.109
56552SOL    HW271489   7.212   4.647  14.836
56553SOL     OW71490  14.740   4.677  14.768
56553SOL    HW171491  14.797   4.754  14.773
56553SOL    HW271492  14.772   4.628  14.693
56554SOL     OW71493   8.869  13.116   9.904
56554SOL    HW171494   8.784  13.120   9.949
56554SOL    HW271495   8.854  13.055   9.832
56555SOL     OW71496   5.574   5.004   6.906
56555SOL    HW171497   5.629   4.998   6.828
56555SOL    HW271498   5.559   4.914   6.932
56556SOL     OW71499  13.376   4.549  10.652
56556SOL    HW171500  13.332   4.576  10.572
56556SOL    HW271501  13.414   4.464  10.631
56557SOL     OW71502   4.528   0.995   0.208
56557SOL    HW171503   4.499   1.086   0.214
56557SOL    HW271504   4.577   0.980   0.289
56558SOL     OW71505  13.639  12.589  14.657
56558SOL    HW171506  13.571  12.656  14.665
56558SOL    HW271507  13.658  12.586  14.563
56559SOL     OW71508   3.496   4.713   6.063
56559SOL    HW171509   3.416   4.766   6.067
56559SOL    HW271510   3.465   4.623   6.075
56560SOL     OW71511  10.594   1.806  11.744
56560SOL    HW171512  10.538   1.729  11.751
56560SOL    HW271513  10.611   1.815  11.650
56561SOL     OW71514   7.737   2.007   4.786
56561SOL    HW171515   7.724   1.967   4.700
56561SOL    HW271516   7.658   2.060   4.800
56562SOL     OW71517   0.055   1.418   9.942
56562SOL    HW171518   0.139   1.400   9.899
56562SOL    HW271519   0.049   1.514   9.941
56563SOL     OW71520  11.886   5.956  13.230
56563SOL    HW171521  11.836   5.893  13.281
56563SOL    HW271522  11.823   5.994  13.169
56564SOL     OW71523   5.085   6.260  13.990
56564SOL    HW171524   5.167   6.242  14.035
56564SOL    HW271525   5.111   6.298  13.906
56565SOL     OW71526   7.682   3.623   8.462
56565SOL    HW171527   7.712   3.703   8.418
56565SOL    HW271528   7.697   3.554   8.398
56566SOL     OW71529   3.902  10.290   3.675
56566SOL    HW171530   3.942  10.374   3.698
56566SOL    HW271531   3.867  10.256   3.757
56567SOL     OW71532   7.871   0.577   5.357
56567SOL    HW171533   7.860   0.529   5.276
56567SOL    HW271534   7.802   0.644   5.355
56568SOL     OW71535   5.727   0.696  14.654
56568SOL    HW171536   5.735   0.657  14.741
56568SOL    HW271537   5.646   0.658  14.619
56569SOL     OW71538   3.678  12.402   3.679
56569SOL    HW171539   3.767  12.368   3.680
56569SOL    HW271540   3.644  12.377   3.593
56570SOL     OW71541  12.016   1.889   4.269
56570SOL    HW171542  11.992   1.882   4.361
56570SOL    HW271543  12.111   1.899   4.269
56571SOL     OW71544  11.997   5.541   3.500
56571SOL    HW171545  11.931   5.476   3.476
56571SOL    HW271546  12.043   5.561   3.418
56572SOL     OW71547   8.137  14.251   2.911
56572SOL    HW171548   8.150  14.266   3.005
56572SOL    HW271549   8.145  14.338   2.872
56573SOL     OW71550   5.359   7.258   5.089
56573SOL    HW171551   5.369   7.164   5.105
56573SOL    HW271552   5.435   7.298   5.131
56574SOL     OW71553  13.758   8.552   2.028
56574SOL    HW171554  13.774   8.460   2.005
56574SOL    HW271555  13.684   8.578   1.974
56575SOL     OW71556  11.650  14.874  10.114
56575SOL    HW171557  11.714   0.063  10.085
56575SOL    HW271558  11.570   0.050  10.131
56576SOL     OW71559   6.918  10.792   2.686
56576SOL    HW171560   6.934  10.788   2.592
56576SOL    HW271561   6.992  10.841   2.721
56577SOL     OW71562  12.308   5.059   7.757
56577SOL    HW171563  12.260   4.991   7.710
56577SOL    HW271564  12.369   5.095   7.692
56578SOL     OW71565   6.939  11.019  11.537
56578SOL    HW171566   6.995  11.026  11.614
56578SOL    HW271567   6.994  10.977  11.471
56579SOL     OW71568  11.737   3.566  11.925
56579SOL    HW171569  11.695   3.593  12.006
56579SOL    HW271570  11.830   3.558  11.948
56580SOL     OW71571   7.779   9.881   5.085
56580SOL    HW171572   7.744   9.910   5.169
56580SOL    HW271573   7.874   9.886   5.096
56581SOL     OW71574   4.314  12.461   7.241
56581SOL    HW171575   4.393  12.478   7.292
56581SOL    HW271576   4.338  12.388   7.184
56582SOL     OW71577  10.280   2.261   4.096
56582SOL    HW171578  10.348   2.226   4.039
56582SOL    HW271579  10.246   2.185   4.143
56583SOL     OW71580  11.867  10.480   4.623
56583SOL    HW171581  11.861  10.548   4.691
56583SOL    HW271582  11.931  10.514   4.561
56584SOL     OW71583   2.294   3.653  13.166
56584SOL    HW171584   2.290   3.570  13.118
56584SOL    HW271585   2.254   3.633  13.251
56585SOL     OW71586  10.320  13.334   7.797
56585SOL    HW171587  10.235  13.346   7.837
56585SOL    HW271588  10.303  13.338   7.702
56586SOL     OW71589   2.588   7.071  13.854
56586SOL    HW171590   2.560   7.122  13.930
56586SOL    HW271591   2.682   7.088  13.847
56587SOL     OW71592   2.969   8.578  10.455
56587SOL    HW171593   3.005   8.629  10.527
56587SOL    HW271594   3.017   8.495  10.457
56588SOL     OW71595   0.918   0.932   1.725
56588SOL    HW171596   0.955   0.962   1.808
56588SOL    HW271597   0.947   0.841   1.717
56589SOL     OW71598   2.003   1.074   8.466
56589SOL    HW171599   2.093   1.099   8.487
56589SOL    HW271600   2.007   1.038   8.378
56590SOL     OW71601   7.213   8.362  10.578
56590SOL    HW171602   7.225   8.445  10.533
56590SOL    HW271603   7.238   8.296  10.514
56591SOL     OW71604  14.006   7.587  12.447
56591SOL    HW171605  14.075   7.533  12.485
56591SOL    HW271606  13.987   7.546  12.362
56592SOL     OW71607  10.455   7.023  14.173
56592SOL    HW171608  10.486   7.051  14.259
56592SOL    HW271609  10.488   6.934  14.163
56593SOL     OW71610   3.971  11.423  12.134
56593SOL    HW171611   4.047  11.435  12.192
56593SOL    HW271612   4.007  11.425  12.046
56594SOL     OW71613   8.280   2.590   1.913
56594SOL    HW171614   8.360   2.640   1.905
56594SOL    HW271615   8.212   2.648   1.879
56595SOL     OW71616   2.119   9.134   7.164
56595SOL    HW171617   2.075   9.076   7.227
56595SOL    HW271618   2.048   9.183   7.123
56596SOL     OW71619   2.454  11.325  14.783
56596SOL    HW171620   2.359  11.322  14.777
56596SOL    HW271621   2.480  11.238  14.812
56597SOL     OW71622   8.148   9.554  10.917
56597SOL    HW171623   8.061   9.526  10.947
56597SOL    HW271624   8.197   9.473  10.906
56598SOL     OW71625   3.968  10.827  11.125
56598SOL    HW171626   3.968  10.735  11.102
56598SOL    HW271627   4.060  10.848  11.141
56599SOL     OW71628   7.360   0.866  13.152
56599SOL    HW171629   7.329   0.898  13.237
56599SOL    HW271630   7.445   0.909  13.140
56600SOL     OW71631   6.589   3.050  13.214
56600SOL    HW171632   6.593   3.019  13.304
56600SOL    HW271633   6.536   3.130  13.219
56601SOL     OW71634   6.209   3.579   7.955
56601SOL    HW171635   6.161   3.539   8.027
56601SOL    HW271636   6.171   3.667   7.947
56602SOL     OW71637  13.398   6.643   3.828
56602SOL    HW171638  13.339   6.685   3.765
56602SOL    HW271639  13.392   6.550   3.807
56603SOL     OW71640   6.678   9.826  14.797
56603SOL    HW171641   6.604   9.831  14.736
56603SOL    HW271642   6.644   9.777  14.872
56604SOL     OW71643   4.213  10.668  12.245
56604SOL    HW171644   4.149  10.678  12.174
56604SOL    HW271645   4.162  10.631  12.317
56605SOL     OW71646   5.867   4.344   0.030
56605SOL    HW171647   5.900   4.384   0.111
56605SOL    HW271648   5.791   4.398   0.006
56606SOL     OW71649  13.220   0.455   7.169
56606SOL    HW171650  13.196   0.388   7.105
56606SOL    HW271651  13.162   0.529   7.149
56607SOL     OW71652   5.919   6.355   6.905
56607SOL    HW171653   5.831   6.362   6.868
56607SOL    HW271654   5.911   6.390   6.994
56608SOL     OW71655   4.577   0.282  11.404
56608SOL    HW171656   4.668   0.305  11.421
56608SOL    HW271657   4.543   0.255  11.490
56609SOL     OW71658   0.757  13.176  11.437
56609SOL    HW171659   0.671  13.144  11.464
56609SOL    HW271660   0.806  13.097  11.414
56610SOL     OW71661  12.490   6.675   6.033
56610SOL    HW171662  12.579   6.698   6.061
56610SOL    HW271663  12.433   6.734   6.083
56611SOL     OW71664  12.811   5.041   0.404
56611SOL    HW171665  12.871   5.115   0.391
56611SOL    HW271666  12.730   5.068   0.361
56612SOL     OW71667   6.054   7.125  12.165
56612SOL    HW171668   5.983   7.072  12.128
56612SOL    HW271669   6.025   7.215  12.153
56613SOL     OW71670   6.654   7.820   5.406
56613SOL    HW171671   6.626   7.865   5.327
56613SOL    HW271672   6.630   7.729   5.392
56614SOL     OW71673   2.404   9.389   0.964
56614SOL    HW171674   2.475   9.329   0.939
56614SOL    HW271675   2.449   9.471   0.985
56615SOL     OW71676   5.027   1.821   0.062
56615SOL    HW171677   5.005   1.729   0.046
56615SOL    HW271678   4.972   1.845   0.137
56616SOL     OW71679  12.160  13.423   2.132
56616SOL    HW171680  12.124  13.463   2.053
56616SOL    HW271681  12.223  13.487   2.165
56617SOL     OW71682   7.877   5.341   1.399
56617SOL    HW171683   7.890   5.421   1.450
56617SOL    HW271684   7.925   5.356   1.318
56618SOL     OW71685   0.191  13.159   9.593
56618SOL    HW171686   0.189  13.249   9.627
56618SOL    HW271687   0.283  13.133   9.599
56619SOL     OW71688   3.531   4.915  10.104
56619SOL    HW171689   3.464   4.978  10.129
56619SOL    HW271690   3.524   4.908  10.009
56620SOL     OW71691  10.723   3.457   7.254
56620SOL    HW171692  10.773   3.447   7.335
56620SOL    HW271693  10.777   3.415   7.187
56621SOL     OW71694   4.123   6.570  14.223
56621SOL    HW171695   4.123   6.631  14.296
56621SOL    HW271696   4.215   6.549  14.209
56622SOL     OW71697   2.895  11.429   3.190
56622SOL    HW171698   2.934  11.343   3.179
56622SOL    HW271699   2.831  11.419   3.261
56623SOL     OW71700  14.005   9.595   6.742
56623SOL    HW171701  13.966   9.554   6.665
56623SOL    HW271702  14.023   9.522   6.802
56624SOL     OW71703   8.334   4.232   2.983
56624SOL    HW171704   8.323   4.139   3.005
56624SOL    HW271705   8.265   4.277   3.032
56625SOL     OW71706  14.701  11.913  14.817
56625SOL    HW171707  14.792  11.904  14.789
56625SOL    HW271708  14.679  11.827  14.854
56626SOL     OW71709  10.964   6.265   9.274
56626SOL    HW171710  11.059   6.255   9.267
56626SOL    HW271711  10.939   6.313   9.196
56627SOL     OW71712  11.011  10.080   5.457
56627SOL    HW171713  10.986  10.161   5.414
56627SOL    HW271714  11.067  10.107   5.529
56628SOL     OW71715  13.174   4.267   7.883
56628SOL    HW171716  13.154   4.247   7.975
56628SOL    HW271717  13.090   4.260   7.838
56629SOL     OW71718  12.225   3.696  12.473
56629SOL    HW171719  12.149   3.719  12.420
56629SOL    HW271720  12.300   3.732  12.424
56630SOL     OW71721  14.035   2.015   0.743
56630SOL    HW171722  13.971   2.024   0.813
56630SOL    HW271723  14.029   2.096   0.693
56631SOL     OW71724  10.365   5.038   2.092
56631SOL    HW171725  10.450   5.037   2.136
56631SOL    HW271726  10.363   4.957   2.040
56632SOL     OW71727   3.864  11.553   4.768
56632SOL    HW171728   3.829  11.564   4.680
56632SOL    HW271729   3.809  11.484   4.807
56633SOL     OW71730   4.673   3.037  12.197
56633SOL    HW171731   4.621   3.079  12.128
56633SOL    HW271732   4.678   3.103  12.266
56634SOL     OW71733  11.039   4.574   6.278
56634SOL    HW171734  11.023   4.483   6.302
56634SOL    HW271735  11.013   4.625   6.355
56635SOL     OW71736   7.947   9.817   6.428
56635SOL    HW171737   8.027   9.863   6.451
56635SOL    HW271738   7.923   9.769   6.507
56636SOL     OW71739   5.930   4.638   9.008
56636SOL    HW171740   5.945   4.731   8.992
56636SOL    HW271741   6.017   4.599   9.010
56637SOL     OW71742   1.821   8.743   6.509
56637SOL    HW171743   1.774   8.719   6.430
56637SOL    HW271744   1.874   8.665   6.530
56638SOL     OW71745  10.784   2.782   8.315
56638SOL    HW171746  10.759   2.789   8.223
56638SOL    HW271747  10.846   2.854   8.328
56639SOL     OW71748  13.582  12.939  13.741
56639SOL    HW171749  13.494  12.903  13.752
56639SOL    HW271750  13.612  12.957  13.830
56640SOL     OW71751  13.473   5.260   3.125
56640SOL    HW171752  13.468   5.303   3.040
56640SOL    HW271753  13.505   5.172   3.106
56641SOL     OW71754   9.928   9.678  11.759
56641SOL    HW171755   9.884   9.655  11.677
56641SOL    HW271756   9.891   9.764  11.782
56642SOL     OW71757  13.713  13.352   8.999
56642SOL    HW171758  13.670  13.267   9.007
56642SOL    HW271759  13.644  13.415   9.020
56643SOL     OW71760  12.916   3.967  11.613
56643SOL    HW171761  12.895   3.874  11.609
56643SOL    HW271762  12.908   3.989  11.706
56644SOL     OW71763  12.836  11.842   8.741
56644SOL    HW171764  12.859  11.923   8.697
56644SOL    HW271765  12.755  11.813   8.699
56645SOL     OW71766  12.205   5.600  13.076
56645SOL    HW171767  12.138   5.581  13.011
56645SOL    HW271768  12.249   5.516  13.092
56646SOL     OW71769   1.036  12.903   4.040
56646SOL    HW171770   1.055  12.979   3.985
56646SOL    HW271771   0.989  12.939   4.116
56647SOL     OW71772   6.799  11.234  14.032
56647SOL    HW171773   6.852  11.254  13.955
56647SOL    HW271774   6.744  11.161  14.005
56648SOL     OW71775   5.750   2.457  10.721
56648SOL    HW171776   5.685   2.504  10.774
56648SOL    HW271777   5.757   2.371  10.763
56649SOL     OW71778   8.669   2.154   2.845
56649SOL    HW171779   8.601   2.206   2.889
56649SOL    HW271780   8.631   2.067   2.837
56650SOL     OW71781   3.988   3.698   7.670
56650SOL    HW171782   3.968   3.605   7.653
56650SOL    HW271783   3.947   3.745   7.597
56651SOL     OW71784   4.196   1.247   0.395
56651SOL    HW171785   4.156   1.313   0.338
56651SOL    HW271786   4.270   1.291   0.436
56652SOL     OW71787  12.960   8.925   8.237
56652SOL    HW171788  12.969   8.882   8.152
56652SOL    HW271789  13.049   8.923   8.274
56653SOL     OW71790   0.970   9.236  10.371
56653SOL    HW171791   0.982   9.330  10.366
56653SOL    HW271792   0.992   9.213  10.461
56654SOL     OW71793  10.686   9.108   0.841
56654SOL    HW171794  10.737   9.163   0.782
56654SOL    HW271795  10.747   9.082   0.909
56655SOL     OW71796  11.046   6.481   7.158
56655SOL    HW171797  11.101   6.404   7.172
56655SOL    HW271798  11.073   6.514   7.072
56656SOL     OW71799   8.615   3.402   0.853
56656SOL    HW171800   8.587   3.312   0.872
56656SOL    HW271801   8.620   3.444   0.939
56657SOL     OW71802  13.483   0.960   7.044
56657SOL    HW171803  13.538   0.948   7.121
56657SOL    HW271804  13.399   0.992   7.078
56658SOL     OW71805  13.885   8.400   4.839
56658SOL    HW171806  13.942   8.474   4.861
56658SOL    HW271807  13.915   8.329   4.895
56659SOL     OW71808   5.912  10.060   7.208
56659SOL    HW171809   5.876   9.981   7.250
56659SOL    HW271810   5.978  10.027   7.148
56660SOL     OW71811   1.026   0.711   3.182
56660SOL    HW171812   0.981   0.744   3.260
56660SOL    HW271813   1.115   0.692   3.211
56661SOL     OW71814  11.487   5.713   1.238
56661SOL    HW171815  11.438   5.781   1.285
56661SOL    HW271816  11.495   5.746   1.149
56662SOL     OW71817   9.079   7.552  11.643
56662SOL    HW171818   9.107   7.478  11.697
56662SOL    HW271819   9.002   7.586  11.687
56663SOL     OW71820   5.239  11.163   8.864
56663SOL    HW171821   5.285  11.246   8.851
56663SOL    HW271822   5.190  11.150   8.783
56664SOL     OW71823   1.397  11.345   7.181
56664SOL    HW171824   1.319  11.345   7.237
56664SOL    HW271825   1.447  11.268   7.211
56665SOL     OW71826   8.297   2.630   4.483
56665SOL    HW171827   8.324   2.663   4.397
56665SOL    HW271828   8.201   2.629   4.478
56666SOL     OW71829   4.352   0.326   7.567
56666SOL    HW171830   4.263   0.322   7.532
56666SOL    HW271831   4.398   0.256   7.521
56667SOL     OW71832  11.961  11.688   1.764
56667SOL    HW171833  11.949  11.767   1.710
56667SOL    HW271834  11.960  11.720   1.854
56668SOL     OW71835  10.397   4.114   8.293
56668SOL    HW171836  10.453   4.114   8.370
56668SOL    HW271837  10.316   4.070   8.322
56669SOL     OW71838   3.120   7.599  10.005
56669SOL    HW171839   3.174   7.651  10.064
56669SOL    HW271840   3.131   7.640   9.920
56670SOL     OW71841   7.394   4.878   0.337
56670SOL    HW171842   7.401   4.968   0.305
56670SOL    HW271843   7.301   4.855   0.325
56671SOL     OW71844   8.379   2.159   4.219
56671SOL    HW171845   8.361   2.197   4.132
56671SOL    HW271846   8.314   2.200   4.276
56672SOL     OW71847  14.642   1.869  11.972
56672SOL    HW171848  14.607   1.941  12.025
56672SOL    HW271849  14.593   1.874  11.889
56673SOL     OW71850  13.543   5.631   6.491
56673SOL    HW171851  13.544   5.582   6.409
56673SOL    HW271852  13.619   5.598   6.540
56674SOL     OW71853   8.857   0.739  14.244
56674SOL    HW171854   8.902   0.748  14.328
56674SOL    HW271855   8.773   0.785  14.257
56675SOL     OW71856  13.895  12.131   1.061
56675SOL    HW171857  13.819  12.153   1.007
56675SOL    HW271858  13.947  12.073   1.006
56676SOL     OW71859   3.785  13.988   6.401
56676SOL    HW171860   3.872  14.010   6.434
56676SOL    HW271861   3.772  13.897   6.429
56677SOL     OW71862   3.421  13.696   1.083
56677SOL    HW171863   3.401  13.603   1.081
56677SOL    HW271864   3.477  13.708   1.160
56678SOL     OW71865   6.246   0.872   8.753
56678SOL    HW171866   6.158   0.854   8.721
56678SOL    HW271867   6.283   0.932   8.688
56679SOL     OW71868   7.860  14.004  13.319
56679SOL    HW171869   7.783  14.025  13.371
56679SOL    HW271870   7.855  13.909  13.305
56680SOL     OW71871   9.905  14.818  14.531
56680SOL    HW171872   9.837  14.789  14.471
56680SOL    HW271873   9.894   0.037  14.537
56681SOL     OW71874  10.462   2.711   3.126
56681SOL    HW171875  10.547   2.702   3.082
56681SOL    HW271876  10.476   2.779   3.192
56682SOL     OW71877   1.310   2.046  10.223
56682SOL    HW171878   1.332   2.074  10.134
56682SOL    HW271879   1.313   1.951  10.220
56683SOL     OW71880   7.414   2.393   5.954
56683SOL    HW171881   7.508   2.410   5.964
56683SOL    HW271882   7.381   2.390   6.044
56684SOL     OW71883   5.389  13.499  12.115
56684SOL    HW171884   5.366  13.454  12.197
56684SOL    HW271885   5.483  13.486  12.106
56685SOL     OW71886  12.990   3.349   6.634
56685SOL    HW171887  13.044   3.376   6.560
56685SOL    HW271888  13.051   3.345   6.708
56686SOL     OW71889   4.503  10.055   0.609
56686SOL    HW171890   4.539   9.968   0.594
56686SOL    HW271891   4.577  10.114   0.597
56687SOL     OW71892   5.538   0.826   6.732
56687SOL    HW171893   5.629   0.856   6.743
56687SOL    HW271894   5.547   0.737   6.700
56688SOL     OW71895   0.594  12.250  11.152
56688SOL    HW171896   0.503  12.278  11.148
56688SOL    HW271897   0.644  12.330  11.137
56689SOL     OW71898  11.090   3.480  11.532
56689SOL    HW171899  11.112   3.426  11.456
56689SOL    HW271900  11.175   3.500  11.572
56690SOL     OW71901  12.334   7.820   8.580
56690SOL    HW171902  12.359   7.904   8.540
56690SOL    HW271903  12.384   7.816   8.661
56691SOL     OW71904  14.841  12.126   4.249
56691SOL    HW171905  14.841  12.221   4.237
56691SOL    HW271906  14.751  12.100   4.230
56692SOL     OW71907   1.342  14.125   7.578
56692SOL    HW171908   1.310  14.072   7.505
56692SOL    HW271909   1.320  14.215   7.555
56693SOL     OW71910   5.591   2.539  13.872
56693SOL    HW171911   5.510   2.527  13.822
56693SOL    HW271912   5.608   2.453  13.911
56694SOL     OW71913   8.283   3.567  11.174
56694SOL    HW171914   8.297   3.537  11.084
56694SOL    HW271915   8.217   3.507  11.209
56695SOL     OW71916  11.131   9.966  10.284
56695SOL    HW171917  11.044   9.952  10.321
56695SOL    HW271918  11.190   9.965  10.360
56696SOL     OW71919   8.481  10.347  13.935
56696SOL    HW171920   8.482  10.263  13.981
56696SOL    HW271921   8.565  10.387  13.957
56697SOL     OW71922  11.895   5.746  10.482
56697SOL    HW171923  11.950   5.720  10.556
56697SOL    HW271924  11.947   5.722  10.405
56698SOL     OW71925   6.385   8.696   6.854
56698SOL    HW171926   6.389   8.667   6.945
56698SOL    HW271927   6.379   8.616   6.802
56699SOL     OW71928  14.569  13.739   9.712
56699SOL    HW171929  14.518  13.672   9.757
56699SOL    HW271930  14.657  13.731   9.748
56700SOL     OW71931  11.172  10.747   8.737
56700SOL    HW171932  11.114  10.821   8.752
56700SOL    HW271933  11.140  10.706   8.657
56701SOL     OW71934   6.686   2.279   5.922
56701SOL    HW171935   6.780   2.286   5.933
56701SOL    HW271936   6.651   2.280   6.011
56702SOL     OW71937  14.805   7.941  13.074
56702SOL    HW171938  14.861   7.929  12.997
56702SOL    HW271939  14.795   8.036  13.082
56703SOL     OW71940   7.521  11.703   4.847
56703SOL    HW171941   7.554  11.721   4.759
56703SOL    HW271942   7.593  11.657   4.891
56704SOL     OW71943   7.802   6.640   2.229
56704SOL    HW171944   7.749   6.598   2.297
56704SOL    HW271945   7.876   6.678   2.277
56705SOL     OW71946   6.267   1.990   6.171
56705SOL    HW171947   6.257   2.059   6.237
56705SOL    HW271948   6.202   2.012   6.104
56706SOL     OW71949   7.285   0.827   9.889
56706SOL    HW171950   7.322   0.749   9.929
56706SOL    HW271951   7.246   0.876   9.962
56707SOL     OW71952   3.935   0.475  11.243
56707SOL    HW171953   3.951   0.381  11.249
56707SOL    HW271954   3.969   0.499  11.157
56708SOL     OW71955   7.667   2.584   0.199
56708SOL    HW171956   7.635   2.536   0.122
56708SOL    HW271957   7.614   2.663   0.202
56709SOL     OW71958   4.625  14.828  11.315
56709SOL    HW171959   4.683  14.786  11.379
56709SOL    HW271960   4.656   0.043  11.310
56710SOL     OW71961  10.811   3.212  11.931
56710SOL    HW171962  10.885   3.153  11.945
56710SOL    HW271963  10.781   3.233  12.019
56711SOL     OW71964  14.481   4.422   1.529
56711SOL    HW171965  14.448   4.337   1.499
56711SOL    HW271966  14.407   4.481   1.518
56712SOL     OW71967   9.116   2.195  14.785
56712SOL    HW171968   9.056   2.176  14.857
56712SOL    HW271969   9.195   2.227  14.828
56713SOL     OW71970  11.986   8.436   7.000
56713SOL    HW171971  11.892   8.446   6.982
56713SOL    HW271972  12.021   8.394   6.922
56714SOL     OW71973  13.119   5.530  13.697
56714SOL    HW171974  13.146   5.439  13.693
56714SOL    HW271975  13.191   5.575  13.741
56715SOL     OW71976   1.895   0.999   6.982
56715SOL    HW171977   1.888   1.070   6.919
56715SOL    HW271978   1.805   0.965   6.989
56716SOL     OW71979   3.447   9.432   9.780
56716SOL    HW171980   3.458   9.369   9.709
56716SOL    HW271981   3.524   9.420   9.835
56717SOL     OW71982  14.744   4.426   1.359
56717SOL    HW171983  14.674   4.368   1.389
56717SOL    HW271984  14.702   4.483   1.294
56718SOL     OW71985   4.901   1.021   9.026
56718SOL    HW171986   4.958   0.992   8.955
56718SOL    HW271987   4.813   0.998   8.996
56719SOL     OW71988   8.044  13.741   1.956
56719SOL    HW171989   7.956  13.777   1.954
56719SOL    HW271990   8.073  13.754   2.047
56720SOL     OW71991   7.732   5.349  12.240
56720SOL    HW171992   7.729   5.298  12.159
56720SOL    HW271993   7.662   5.413  12.231
56721SOL     OW71994   2.222   0.174   5.989
56721SOL    HW171995   2.157   0.244   5.981
56721SOL    HW271996   2.279   0.185   5.913
56722SOL     OW71997  12.866  12.813  13.456
56722SOL    HW171998  12.875  12.895  13.407
56722SOL    HW271999  12.881  12.745  13.392
56723SOL     OW72000   4.074  11.751   2.394
56723SOL    HW172001   4.058  11.763   2.301
56723SOL    HW272002   4.016  11.679   2.420
56724SOL     OW72003  13.014   7.951  10.119
56724SOL    HW172004  12.934   7.948  10.067
56724SOL    HW272005  13.045   7.860  10.119
56725SOL     OW72006   2.567   1.181   8.005
56725SOL    HW172007   2.525   1.257   7.965
56725SOL    HW272008   2.568   1.201   8.099
56726SOL     OW72009  12.994   4.457   1.249
56726SOL    HW172010  12.971   4.465   1.156
56726SOL    HW272011  13.029   4.542   1.273
56727SOL     OW72012   8.728  13.933  10.913
56727SOL    HW172013   8.671  13.981  10.972
56727SOL    HW272014   8.670  13.872  10.867
56728SOL     OW72015  13.375   4.218   8.234
56728SOL    HW172016  13.454   4.197   8.284
56728SOL    HW272017  13.335   4.290   8.283
56729SOL     OW72018   4.265   8.125   6.522
56729SOL    HW172019   4.178   8.131   6.563
56729SOL    HW272020   4.315   8.068   6.580
56730SOL     OW72021   0.332  13.313   8.578
56730SOL    HW172022   0.256  13.262   8.606
56730SOL    HW272023   0.295  13.397   8.549
56731SOL     OW72024  11.364  12.614  10.394
56731SOL    HW172025  11.330  12.649  10.311
56731SOL    HW272026  11.315  12.532  10.406
56732SOL     OW72027  13.073   6.784   2.953
56732SOL    HW172028  13.009   6.842   2.996
56732SOL    HW272029  13.050   6.697   2.984
56733SOL     OW72030   8.603   3.978   7.656
56733SOL    HW172031   8.517   3.977   7.614
56733SOL    HW272032   8.658   3.925   7.597
56734SOL     OW72033   5.050  13.911   0.081
56734SOL    HW172034   5.125  13.892   0.137
56734SOL    HW272035   5.006  13.985   0.123
56735SOL     OW72036  11.693   7.721   3.197
56735SOL    HW172037  11.785   7.699   3.212
56735SOL    HW272038  11.695   7.786   3.126
56736SOL     OW72039   0.967   2.118   6.611
56736SOL    HW172040   1.006   2.138   6.525
56736SOL    HW272041   0.873   2.108   6.593
56737SOL     OW72042   8.935   5.974  10.579
56737SOL    HW172043   8.859   5.917  10.592
56737SOL    HW272044   8.914   6.054  10.625
56738SOL     OW72045  11.159  14.136   1.136
56738SOL    HW172046  11.225  14.198   1.105
56738SOL    HW272047  11.197  14.096   1.214
56739SOL     OW72048   4.168  11.991  10.772
56739SOL    HW172049   4.078  12.004  10.743
56739SOL    HW272050   4.200  12.079  10.792
56740SOL     OW72051   0.534   0.982   0.336
56740SOL    HW172052   0.466   1.047   0.355
56740SOL    HW272053   0.602   0.999   0.401
56741SOL     OW72054   1.821   1.509   3.317
56741SOL    HW172055   1.847   1.540   3.404
56741SOL    HW272056   1.751   1.567   3.290
56742SOL     OW72057  10.064   7.913   5.307
56742SOL    HW172058  10.044   7.903   5.214
56742SOL    HW272059  10.053   7.825   5.343
56743SOL     OW72060   5.303   6.661   6.546
56743SOL    HW172061   5.354   6.671   6.627
56743SOL    HW272062   5.219   6.704   6.565
56744SOL     OW72063   0.455  12.185   4.796
56744SOL    HW172064   0.397  12.223   4.863
56744SOL    HW272065   0.395  12.162   4.724
56745SOL     OW72066   1.021   6.806  14.218
56745SOL    HW172067   0.930   6.834  14.230
56745SOL    HW272068   1.055   6.796  14.307
56746SOL     OW72069  13.135   4.315   4.494
56746SOL    HW172070  13.152   4.360   4.411
56746SOL    HW272071  13.206   4.343   4.551
56747SOL     OW72072   3.693   9.333  12.625
56747SOL    HW172073   3.631   9.374  12.686
56747SOL    HW272074   3.777   9.336  12.670
56748SOL     OW72075   4.004  11.213   0.948
56748SOL    HW172076   4.057  11.265   0.888
56748SOL    HW272077   4.027  11.123   0.928
56749SOL     OW72078   5.175   7.127   2.285
56749SOL    HW172079   5.079   7.132   2.275
56749SOL    HW272080   5.209   7.156   2.200
56750SOL     OW72081  11.423   7.625   7.319
56750SOL    HW172082  11.413   7.681   7.396
56750SOL    HW272083  11.391   7.539   7.349
56751SOL     OW72084   6.368   3.327   5.358
56751SOL    HW172085   6.451   3.282   5.375
56751SOL    HW272086   6.387   3.419   5.373
56752SOL     OW72087   7.039   7.003   2.846
56752SOL    HW172088   7.043   6.954   2.764
56752SOL    HW272089   7.131   7.027   2.863
56753SOL     OW72090   9.962  13.998   6.748
56753SOL    HW172091   9.981  14.092   6.742
56753SOL    HW272092  10.038  13.956   6.707
56754SOL     OW72093   3.379  14.333  12.949
56754SOL    HW172094   3.457  14.388  12.957
56754SOL    HW272095   3.398  14.275  12.875
56755SOL     OW72096   1.173   8.304  14.354
56755SOL    HW172097   1.126   8.222  14.365
56755SOL    HW272098   1.107   8.372  14.369
56756SOL     OW72099   3.837  13.600   9.796
56756SOL    HW172100   3.794  13.686   9.790
56756SOL    HW272101   3.915  13.609   9.742
56757SOL     OW72102  14.473   2.820   4.873
56757SOL    HW172103  14.412   2.751   4.846
56757SOL    HW272104  14.444   2.844   4.961
56758SOL     OW72105  11.195   3.222   7.557
56758SOL    HW172106  11.252   3.159   7.601
56758SOL    HW272107  11.114   3.222   7.608
56759SOL     OW72108   6.104   2.484   3.894
56759SOL    HW172109   6.020   2.442   3.913
56759SOL    HW272110   6.092   2.523   3.807
56760SOL     OW72111  11.951   6.567  12.651
56760SOL    HW172112  11.922   6.558  12.742
56760SOL    HW272113  12.040   6.602  12.657
56761SOL     OW72114   9.258   3.286   1.354
56761SOL    HW172115   9.255   3.302   1.260
56761SOL    HW272116   9.298   3.200   1.363
56762SOL     OW72117   0.796  11.084   7.358
56762SOL    HW172118   0.813  10.992   7.337
56762SOL    HW272119   0.868  11.108   7.418
56763SOL     OW72120   7.276   8.263   5.498
56763SOL    HW172121   7.299   8.201   5.429
56763SOL    HW272122   7.258   8.345   5.451
56764SOL     OW72123   2.370   4.290   5.445
56764SOL    HW172124   2.434   4.318   5.511
56764SOL    HW272125   2.382   4.195   5.439
56765SOL     OW72126   8.315  11.789   1.667
56765SOL    HW172127   8.327  11.765   1.759
56765SOL    HW272128   8.402  11.781   1.628
56766SOL     OW72129   2.931   2.119   2.994
56766SOL    HW172130   2.854   2.145   2.943
56766SOL    HW272131   2.959   2.037   2.956
56767SOL     OW72132  10.119  12.414   0.316
56767SOL    HW172133  10.054  12.469   0.360
56767SOL    HW272134  10.143  12.349   0.382
56768SOL     OW72135   6.175   5.178   4.079
56768SOL    HW172136   6.151   5.099   4.031
56768SOL    HW272137   6.151   5.250   4.021
56769SOL     OW72138  10.936  10.506   6.865
56769SOL    HW172139  10.959  10.486   6.774
56769SOL    HW272140  10.952  10.600   6.873
56770SOL     OW72141   9.469   9.940   2.614
56770SOL    HW172142   9.519   9.872   2.658
56770SOL    HW272143   9.398   9.961   2.674
56771SOL     OW72144   9.115  13.303  14.273
56771SOL    HW172145   9.177  13.235  14.301
56771SOL    HW272146   9.097  13.353  14.353
56772SOL     OW72147   7.490  11.866  13.991
56772SOL    HW172148   7.499  11.946  14.043
56772SOL    HW272149   7.539  11.800  14.040
56773SOL     OW72150  10.981  13.046   5.229
56773SOL    HW172151  10.956  13.137   5.242
56773SOL    HW272152  10.981  13.008   5.317
56774SOL     OW72153   2.815   6.050  14.033
56774SOL    HW172154   2.738   5.996  14.048
56774SOL    HW272155   2.783   6.123  13.979
56775SOL     OW72156   6.731   8.194   3.822
56775SOL    HW172157   6.754   8.247   3.898
56775SOL    HW272158   6.637   8.180   3.830
56776SOL     OW72159  14.300  14.854   0.990
56776SOL    HW172160  14.220   0.031   1.001
56776SOL    HW272161  14.332   0.000   0.903
56777SOL     OW72162  12.404   8.108   6.572
56777SOL    HW172163  12.415   8.198   6.541
56777SOL    HW272164  12.438   8.109   6.661
56778SOL     OW72165   7.448   1.039   7.012
56778SOL    HW172166   7.517   1.077   6.959
56778SOL    HW272167   7.493   0.983   7.076
56779SOL     OW72168   8.560  11.610  14.328
56779SOL    HW172169   8.543  11.644  14.416
56779SOL    HW272170   8.628  11.544  14.341
56780SOL     OW72171  12.909   8.092   6.808
56780SOL    HW172172  12.901   8.169   6.752
56780SOL    HW272173  12.999   8.063   6.796
56781SOL     OW72174   7.825   7.214   2.286
56781SOL    HW172175   7.911   7.256   2.280
56781SOL    HW272176   7.843   7.123   2.310
56782SOL     OW72177   5.862   5.269  10.220
56782SOL    HW172178   5.903   5.308  10.298
56782SOL    HW272179   5.917   5.297  10.147
56783SOL     OW72180   2.737   9.665   3.080
56783SOL    HW172181   2.774   9.748   3.109
56783SOL    HW272182   2.791   9.599   3.123
56784SOL     OW72183  12.389   1.016   4.501
56784SOL    HW172184  12.482   1.037   4.508
56784SOL    HW272185  12.345   1.080   4.557
56785SOL     OW72186  14.265   3.701   0.553
56785SOL    HW172187  14.281   3.790   0.522
56785SOL    HW272188  14.352   3.668   0.575
56786SOL     OW72189   7.214  12.849   8.523
56786SOL    HW172190   7.129  12.812   8.499
56786SOL    HW272191   7.196  12.898   8.604
56787SOL     OW72192  13.694   6.431   6.993
56787SOL    HW172193  13.714   6.524   6.980
56787SOL    HW272194  13.626   6.412   6.929
56788SOL     OW72195   7.906   0.382  14.048
56788SOL    HW172196   7.903   0.287  14.057
56788SOL    HW272197   7.992   0.400  14.010
56789SOL     OW72198   4.031   8.165  12.706
56789SOL    HW172199   4.015   8.175  12.800
56789SOL    HW272200   4.127   8.162  12.698
56790SOL     OW72201   7.953  12.810   4.809
56790SOL    HW172202   7.866  12.850   4.802
56790SOL    HW272203   7.976  12.788   4.719
56791SOL     OW72204  12.815  12.803  11.804
56791SOL    HW172205  12.833  12.805  11.899
56791SOL    HW272206  12.889  12.755  11.767
56792SOL     OW72207  12.113   1.121   0.911
56792SOL    HW172208  12.169   1.072   0.971
56792SOL    HW272209  12.089   1.057   0.843
56793SOL     OW72210   2.405  12.059  14.575
56793SOL    HW172211   2.473  12.060  14.507
56793SOL    HW272212   2.360  12.143  14.565
56794SOL     OW72213   1.312   4.001  12.771
56794SOL    HW172214   1.285   4.012  12.862
56794SOL    HW272215   1.387   4.060  12.761
56795SOL     OW72216   1.079   3.261   4.967
56795SOL    HW172217   1.144   3.191   4.960
56795SOL    HW272218   1.099   3.320   4.894
56796SOL     OW72219   0.543  11.791  12.925
56796SOL    HW172220   0.566  11.862  12.864
56796SOL    HW272221   0.587  11.714  12.889
56797SOL     OW72222  10.263   1.124   2.407
56797SOL    HW172223  10.234   1.085   2.324
56797SOL    HW272224  10.348   1.163   2.386
56798SOL     OW72225   8.309   4.464  12.189
56798SOL    HW172226   8.282   4.378  12.158
56798SOL    HW272227   8.357   4.446  12.270
56799SOL     OW72228   0.608  14.684   9.736
56799SOL    HW172229   0.581  14.736   9.812
56799SOL    HW272230   0.526  14.650   9.700
56800SOL     OW72231   9.695   8.902   0.812
56800SOL    HW172232   9.700   8.892   0.907
56800SOL    HW272233   9.616   8.854   0.787
56801SOL     OW72234  10.019   4.146   0.914
56801SOL    HW172235  10.074   4.068   0.920
56801SOL    HW272236   9.942   4.117   0.865
56802SOL     OW72237   6.478   9.897  10.420
56802SOL    HW172238   6.535   9.969  10.449
56802SOL    HW272239   6.539   9.826  10.399
56803SOL     OW72240   1.873   1.268  10.461
56803SOL    HW172241   1.783   1.301  10.466
56803SOL    HW272242   1.863   1.173  10.463
56804SOL     OW72243   8.646   4.822   0.372
56804SOL    HW172244   8.678   4.816   0.282
56804SOL    HW272245   8.557   4.786   0.368
56805SOL     OW72246  14.021   0.358   3.128
56805SOL    HW172247  13.971   0.277   3.144
56805SOL    HW272248  14.014   0.406   3.210
56806SOL     OW72249   8.956   0.171   1.152
56806SOL    HW172250   8.996   0.086   1.171
56806SOL    HW272251   8.893   0.152   1.082
56807SOL     OW72252   2.953   8.903  10.395
56807SOL    HW172253   3.005   8.966  10.446
56807SOL    HW272254   2.866   8.908  10.434
56808SOL     OW72255  12.119   5.582   4.760
56808SOL    HW172256  12.067   5.644   4.709
56808SOL    HW272257  12.060   5.554   4.830
56809SOL     OW72258   4.741   1.355   2.480
56809SOL    HW172259   4.715   1.379   2.391
56809SOL    HW272260   4.768   1.263   2.474
56810SOL     OW72261   7.822  12.745   1.044
56810SOL    HW172262   7.882  12.820   1.050
56810SOL    HW272263   7.852  12.697   0.967
56811SOL     OW72264   2.809  12.733  13.496
56811SOL    HW172265   2.902  12.727  13.477
56811SOL    HW272266   2.781  12.815  13.455
56812SOL     OW72267   8.654   7.572   9.559
56812SOL    HW172268   8.746   7.561   9.583
56812SOL    HW272269   8.606   7.525   9.627
56813SOL     OW72270   7.260   7.969  11.780
56813SOL    HW172271   7.327   7.919  11.825
56813SOL    HW272272   7.177   7.937  11.815
56814SOL     OW72273  13.977   9.907   6.127
56814SOL    HW172274  13.906   9.963   6.095
56814SOL    HW272275  14.005   9.858   6.050
56815SOL     OW72276   0.603  13.734  12.937
56815SOL    HW172277   0.572  13.645  12.923
56815SOL    HW272278   0.594  13.777  12.852
56816SOL     OW72279  11.699  14.202   8.331
56816SOL    HW172280  11.626  14.262   8.314
56816SOL    HW272281  11.777  14.254   8.312
56817SOL     OW72282  14.745  13.731   8.526
56817SOL    HW172283  14.794  13.672   8.469
56817SOL    HW272284  14.696  13.788   8.465
56818SOL     OW72285   2.603  10.129  14.084
56818SOL    HW172286   2.602  10.148  13.990
56818SOL    HW272287   2.637  10.040  14.090
56819SOL     OW72288   9.791   4.283   9.391
56819SOL    HW172289   9.829   4.342   9.325
56819SOL    HW272290   9.864   4.229   9.419
56820SOL     OW72291   1.392   6.941   8.717
56820SOL    HW172292   1.316   6.991   8.687
56820SOL    HW272293   1.355   6.869   8.768
56821SOL     OW72294  10.940   9.574   4.017
56821SOL    HW172295  11.002   9.505   4.038
56821SOL    HW272296  10.978   9.619   3.941
56822SOL     OW72297   7.147  11.058   5.750
56822SOL    HW172298   7.098  10.997   5.694
56822SOL    HW272299   7.144  11.018   5.837
56823SOL     OW72300   7.370   1.945   3.198
56823SOL    HW172301   7.297   1.907   3.248
56823SOL    HW272302   7.328   2.003   3.135
56824SOL     OW72303   1.690  13.979   7.660
56824SOL    HW172304   1.618  13.943   7.712
56824SOL    HW272305   1.731  14.043   7.718
56825SOL     OW72306  14.347   0.374  12.727
56825SOL    HW172307  14.435   0.410  12.734
56825SOL    HW272308  14.318   0.362  12.817
56826SOL     OW72309  11.334  14.640   2.188
56826SOL    HW172310  11.424  14.668   2.199
56826SOL    HW272311  11.293  14.656   2.273
56827SOL     OW72312   0.064   8.167  12.366
56827SOL    HW172313   0.028   8.115  12.294
56827SOL    HW272314   0.149   8.198  12.334
56828SOL     OW72315   6.817  10.683   4.426
56828SOL    HW172316   6.755  10.748   4.395
56828SOL    HW272317   6.793  10.603   4.380
56829SOL     OW72318   0.025  13.052  13.402
56829SOL    HW172319  14.874  13.056  13.493
56829SOL    HW272320  14.862  12.972  13.368
56830SOL     OW72321  12.364   4.504   7.693
56830SOL    HW172322  12.283   4.457   7.710
56830SOL    HW272323  12.429   4.463   7.750
56831SOL     OW72324   0.447   1.847  13.753
56831SOL    HW172325   0.391   1.769  13.761
56831SOL    HW272326   0.459   1.876  13.844
56832SOL     OW72327   5.638   0.289   5.384
56832SOL    HW172328   5.630   0.371   5.335
56832SOL    HW272329   5.589   0.225   5.332
56833SOL     OW72330  14.080   0.132  11.316
56833SOL    HW172331  14.108   0.199  11.378
56833SOL    HW272332  14.158   0.111  11.266
56834SOL     OW72333  12.585  10.532   3.314
56834SOL    HW172334  12.530  10.492   3.246
56834SOL    HW272335  12.526  10.594   3.357
56835SOL     OW72336   2.977  10.240   3.896
56835SOL    HW172337   3.053  10.247   3.839
56835SOL    HW272338   2.985  10.313   3.957
56836SOL     OW72339  13.883  10.831   4.929
56836SOL    HW172340  13.793  10.799   4.930
56836SOL    HW272341  13.875  10.924   4.906
56837SOL     OW72342   6.472  11.984  12.966
56837SOL    HW172343   6.464  11.959  12.874
56837SOL    HW272344   6.414  12.059  12.975
56838SOL     OW72345  11.665   1.466  14.399
56838SOL    HW172346  11.717   1.432  14.326
56838SOL    HW272347  11.711   1.545  14.426
56839SOL     OW72348   8.173   9.454   9.294
56839SOL    HW172349   8.149   9.396   9.222
56839SOL    HW272350   8.260   9.485   9.272
56840SOL     OW72351   1.089  10.799   2.555
56840SOL    HW172352   1.172  10.751   2.560
56840SOL    HW272353   1.022  10.730   2.550
56841SOL     OW72354   4.807   2.866   9.220
56841SOL    HW172355   4.801   2.818   9.303
56841SOL    HW272356   4.820   2.957   9.246
56842SOL     OW72357  12.251  12.106   3.593
56842SOL    HW172358  12.234  12.094   3.499
56842SOL    HW272359  12.319  12.173   3.597
56843SOL     OW72360   2.895   4.092  13.030
56843SOL    HW172361   2.900   4.185  13.054
56843SOL    HW272362   2.828   4.056  13.088
56844SOL     OW72363  13.044  14.378   9.246
56844SOL    HW172364  13.018  14.286   9.242
56844SOL    HW272365  13.139  14.376   9.238
56845SOL     OW72366   9.383   0.380   7.406
56845SOL    HW172367   9.383   0.338   7.492
56845SOL    HW272368   9.376   0.474   7.425
56846SOL     OW72369   0.740   5.996   4.173
56846SOL    HW172370   0.754   5.919   4.228
56846SOL    HW272371   0.827   6.036   4.166
56847SOL     OW72372  11.068   0.988  14.577
56847SOL    HW172373  11.050   0.923  14.645
56847SOL    HW272374  10.990   0.989  14.522
56848SOL     OW72375  14.213  10.414   5.230
56848SOL    HW172376  14.204  10.372   5.316
56848SOL    HW272377  14.172  10.499   5.240
56849SOL     OW72378   2.992  13.251   8.592
56849SOL    HW172379   2.958  13.336   8.564
56849SOL    HW272380   3.045  13.271   8.669
56850SOL     OW72381   9.828   7.705  13.770
56850SOL    HW172382   9.884   7.763  13.719
56850SOL    HW272383   9.821   7.746  13.856
56851SOL     OW72384   9.106   1.682  13.696
56851SOL    HW172385   9.147   1.747  13.640
56851SOL    HW272386   9.012   1.694  13.684
56852SOL     OW72387   3.769   1.097   2.969
56852SOL    HW172388   3.711   1.024   2.991
56852SOL    HW272389   3.721   1.147   2.903
56853SOL     OW72390   7.049  12.061   0.001
56853SOL    HW172391   7.096  11.977   0.002
56853SOL    HW272392   7.068  12.100   0.086
56854SOL     OW72393   4.432  11.174  14.261
56854SOL    HW172394   4.372  11.247  14.245
56854SOL    HW272395   4.474  11.159  14.176
56855SOL     OW72396  13.386   2.406  13.842
56855SOL    HW172397  13.373   2.500  13.830
56855SOL    HW272398  13.341   2.386  13.924
56856SOL     OW72399  14.409   0.738   3.557
56856SOL    HW172400  14.317   0.714   3.569
56856SOL    HW272401  14.406   0.828   3.524
56857SOL     OW72402   9.296  11.916   0.886
56857SOL    HW172403   9.239  11.842   0.906
56857SOL    HW272404   9.369  11.908   0.948
56858SOL     OW72405  13.650   5.389  11.111
56858SOL    HW172406  13.606   5.368  11.194
56858SOL    HW272407  13.600   5.461  11.074
56859SOL     OW72408   2.556   3.392  12.112
56859SOL    HW172409   2.530   3.396  12.204
56859SOL    HW272410   2.629   3.332  12.111
56860SOL     OW72411   4.210  11.421   1.479
56860SOL    HW172412   4.197  11.482   1.551
56860SOL    HW272413   4.269  11.467   1.419
56861SOL     OW72414   9.778   2.285   2.232
56861SOL    HW172415   9.845   2.266   2.297
56861SOL    HW272416   9.721   2.349   2.275
56862SOL     OW72417   5.350  14.271   9.742
56862SOL    HW172418   5.258  14.277   9.716
56862SOL    HW272419   5.394  14.232   9.667
56863SOL     OW72420  11.112   8.842   0.394
56863SOL    HW172421  11.115   8.790   0.474
56863SOL    HW272422  11.125   8.779   0.324
56864SOL     OW72423   0.424  10.296   2.178
56864SOL    HW172424   0.362  10.309   2.250
56864SOL    HW272425   0.505  10.268   2.221
56865SOL     OW72426   8.237   5.107   1.385
56865SOL    HW172427   8.147   5.078   1.402
56865SOL    HW272428   8.289   5.027   1.388
56866SOL     OW72429   8.369   8.510   8.264
56866SOL    HW172430   8.364   8.433   8.322
56866SOL    HW272431   8.297   8.498   8.202
56867SOL     OW72432   9.231   3.724  12.641
56867SOL    HW172433   9.312   3.735  12.690
56867SOL    HW272434   9.257   3.730  12.549
56868SOL     OW72435  11.782  14.425   1.311
56868SOL    HW172436  11.763  14.504   1.261
56868SOL    HW272437  11.869  14.439   1.347
56869SOL     OW72438   2.557   5.862   9.726
56869SOL    HW172439   2.573   5.956   9.740
56869SOL    HW272440   2.463   5.855   9.712
56870SOL     OW72441   8.503   3.350  10.645
56870SOL    HW172442   8.457   3.269  10.623
56870SOL    HW272443   8.556   3.370  10.568
56871SOL     OW72444   8.927   0.838   5.571
56871SOL    HW172445   8.840   0.837   5.533
56871SOL    HW272446   8.981   0.786   5.511
56872SOL     OW72447   3.315  12.134   2.068
56872SOL    HW172448   3.225  12.161   2.085
56872SOL    HW272449   3.357  12.135   2.154
56873SOL     OW72450   2.582   6.094   2.480
56873SOL    HW172451   2.624   6.037   2.544
56873SOL    HW272452   2.653   6.146   2.443
56874SOL     OW72453   4.947   8.884   4.583
56874SOL    HW172454   4.857   8.858   4.601
56874SOL    HW272455   4.973   8.935   4.660
56875SOL     OW72456   1.613   7.912  13.915
56875SOL    HW172457   1.678   7.977  13.886
56875SOL    HW272458   1.580   7.874  13.834
56876SOL     OW72459   4.645  13.814   0.586
56876SOL    HW172460   4.714  13.817   0.521
56876SOL    HW272461   4.617  13.722   0.588
56877SOL     OW72462   1.946   0.564   7.846
56877SOL    HW172463   1.962   0.615   7.767
56877SOL    HW272464   2.032   0.528   7.869
56878SOL     OW72465  11.593   3.970   7.552
56878SOL    HW172466  11.545   3.969   7.635
56878SOL    HW272467  11.554   4.043   7.503
56879SOL     OW72468  12.495   4.815   6.346
56879SOL    HW172469  12.402   4.803   6.366
56879SOL    HW272470  12.508   4.910   6.352
56880SOL     OW72471   3.776   4.816  12.439
56880SOL    HW172472   3.845   4.835  12.376
56880SOL    HW272473   3.711   4.884  12.425
56881SOL     OW72474   1.766   1.780   6.118
56881SOL    HW172475   1.844   1.757   6.066
56881SOL    HW272476   1.701   1.714   6.094
56882SOL     OW72477  12.574  11.740  11.351
56882SOL    HW172478  12.591  11.814  11.410
56882SOL    HW272479  12.549  11.781  11.268
56883SOL     OW72480   2.946   9.979   0.004
56883SOL    HW172481   2.996  10.023   0.072
56883SOL    HW272482   2.991   9.895  14.868
56884SOL     OW72483  12.841  10.544   6.346
56884SOL    HW172484  12.915  10.586   6.301
56884SOL    HW272485  12.787  10.508   6.276
56885SOL     OW72486  13.670   0.520   5.295
56885SOL    HW172487  13.594   0.566   5.329
56885SOL    HW272488  13.731   0.590   5.268
56886SOL     OW72489  11.187  13.453   3.460
56886SOL    HW172490  11.239  13.513   3.514
56886SOL    HW272491  11.164  13.504   3.382
56887SOL     OW72492   8.170  10.152  14.379
56887SOL    HW172493   8.228  10.076  14.367
56887SOL    HW272494   8.106  10.144  14.309
56888SOL     OW72495   2.427   7.199   6.271
56888SOL    HW172496   2.370   7.129   6.302
56888SOL    HW272497   2.503   7.154   6.234
56889SOL     OW72498   9.170   6.464  11.442
56889SOL    HW172499   9.246   6.412  11.418
56889SOL    HW272500   9.184   6.548  11.399
56890SOL     OW72501   5.206  10.990   6.581
56890SOL    HW172502   5.143  11.042   6.531
56890SOL    HW272503   5.273  11.053   6.607
56891SOL     OW72504   7.502  12.275  11.107
56891SOL    HW172505   7.528  12.303  11.019
56891SOL    HW272506   7.572  12.216  11.135
56892SOL     OW72507   2.077  13.341  14.857
56892SOL    HW172508   2.017  13.325  14.785
56892SOL    HW272509   2.128  13.261  14.864
56893SOL     OW72510  12.753  10.277  14.075
56893SOL    HW172511  12.657  10.273  14.082
56893SOL    HW272512  12.777  10.199  14.025
56894SOL     OW72513  12.672   5.037  11.877
56894SOL    HW172514  12.725   5.008  11.952
56894SOL    HW272515  12.706   5.124  11.857
56895SOL     OW72516   9.849   3.129   7.128
56895SOL    HW172517   9.911   3.186   7.082
56895SOL    HW272518   9.773   3.125   7.070
56896SOL     OW72519   2.840  10.357   9.965
56896SOL    HW172520   2.866  10.323   9.879
56896SOL    HW272521   2.756  10.399   9.950
56897SOL     OW72522   9.736   5.969   3.870
56897SOL    HW172523   9.806   5.999   3.813
56897SOL    HW272524   9.708   6.047   3.918
56898SOL     OW72525   8.823  13.680  12.073
56898SOL    HW172526   8.807  13.611  12.137
56898SOL    HW272527   8.879  13.743  12.119
56899SOL     OW72528   0.931  13.733   2.130
56899SOL    HW172529   0.878  13.695   2.061
56899SOL    HW272530   0.964  13.657   2.179
56900SOL     OW72531  14.439   1.961   6.094
56900SOL    HW172532  14.405   2.005   6.172
56900SOL    HW272533  14.413   1.869   6.105
56901SOL     OW72534   4.841   7.658   8.189
56901SOL    HW172535   4.872   7.703   8.268
56901SOL    HW272536   4.917   7.609   8.159
56902SOL     OW72537   5.457  12.811   7.883
56902SOL    HW172538   5.425  12.896   7.855
56902SOL    HW272539   5.384  12.773   7.933
56903SOL     OW72540   7.573   4.788   2.923
56903SOL    HW172541   7.511   4.797   2.995
56903SOL    HW272542   7.645   4.847   2.946
56904SOL     OW72543   0.802   1.902   5.523
56904SOL    HW172544   0.883   1.886   5.475
56904SOL    HW272545   0.810   1.991   5.556
56905SOL     OW72546  14.278   8.392   1.175
56905SOL    HW172547  14.274   8.356   1.263
56905SOL    HW272548  14.369   8.415   1.161
56906SOL     OW72549   4.007   5.986   3.443
56906SOL    HW172550   3.956   5.969   3.364
56906SOL    HW272551   4.041   6.075   3.431
56907SOL     OW72552   2.040   4.373  10.042
56907SOL    HW172553   2.027   4.295   9.988
56907SOL    HW272554   2.061   4.339  10.129
56908SOL     OW72555  13.923   6.942  13.498
56908SOL    HW172556  13.993   6.893  13.453
56908SOL    HW272557  13.869   6.976  13.428
56909SOL     OW72558   7.186   0.816   2.715
56909SOL    HW172559   7.167   0.903   2.750
56909SOL    HW272560   7.221   0.767   2.790
56910SOL     OW72561   0.015  14.268  12.907
56910SOL    HW172562   0.017  14.236  12.817
56910SOL    HW272563   0.023  14.363  12.899
56911SOL     OW72564   2.764   4.454  14.234
56911SOL    HW172565   2.856   4.478  14.220
56911SOL    HW272566   2.745   4.481  14.323
56912SOL     OW72567   1.276   0.176   4.606
56912SOL    HW172568   1.285   0.116   4.680
56912SOL    HW272569   1.340   0.144   4.542
56913SOL     OW72570   7.022   1.869   9.530
56913SOL    HW172571   7.103   1.918   9.544
56913SOL    HW272572   7.051   1.779   9.514
56914SOL     OW72573  11.018   2.844   9.944
56914SOL    HW172574  10.956   2.835  10.016
56914SOL    HW272575  11.089   2.783   9.966
56915SOL     OW72576   7.423   1.294   4.587
56915SOL    HW172577   7.425   1.373   4.641
56915SOL    HW272578   7.500   1.244   4.613
56916SOL     OW72579   2.127   2.577   8.191
56916SOL    HW172580   2.101   2.586   8.099
56916SOL    HW272581   2.203   2.634   8.200
56917SOL     OW72582  14.732   2.322  10.074
56917SOL    HW172583  14.702   2.356   9.990
56917SOL    HW272584  14.755   2.400  10.124
56918SOL     OW72585   3.680   8.860  12.065
56918SOL    HW172586   3.654   8.925  12.000
56918SOL    HW272587   3.609   8.796  12.064
56919SOL     OW72588   1.097   6.793   0.488
56919SOL    HW172589   1.072   6.700   0.492
56919SOL    HW272590   1.170   6.795   0.427
56920SOL     OW72591   7.795   3.132  10.869
56920SOL    HW172592   7.751   3.048  10.861
56920SOL    HW272593   7.888   3.112  10.865
56921SOL     OW72594   2.195   2.564   4.089
56921SOL    HW172595   2.126   2.572   4.023
56921SOL    HW272596   2.216   2.471   4.090
56922SOL     OW72597   2.224   1.749  13.465
56922SOL    HW172598   2.232   1.828  13.518
56922SOL    HW272599   2.133   1.721  13.477
56923SOL     OW72600   1.940   5.369   6.309
56923SOL    HW172601   1.847   5.346   6.318
56923SOL    HW272602   1.983   5.286   6.290
56924SOL     OW72603   3.846   8.903  14.679
56924SOL    HW172604   3.765   8.877  14.723
56924SOL    HW272605   3.879   8.822  14.639
56925SOL     OW72606   6.563  13.139  11.637
56925SOL    HW172607   6.582  13.191  11.559
56925SOL    HW272608   6.620  13.176  11.705
56926SOL     OW72609  13.898   7.072   1.480
56926SOL    HW172610  13.851   6.990   1.464
56926SOL    HW272611  13.978   7.064   1.428
56927SOL     OW72612   1.196  11.594   6.034
56927SOL    HW172613   1.245  11.575   5.954
56927SOL    HW272614   1.251  11.658   6.080
56928SOL     OW72615  13.854   9.665   3.957
56928SOL    HW172616  13.824   9.756   3.958
56928SOL    HW272617  13.946   9.669   3.983
56929SOL     OW72618   1.017   2.696  14.380
56929SOL    HW172619   0.921   2.688  14.381
56929SOL    HW272620   1.040   2.704  14.287
56930SOL     OW72621  13.967   9.394  14.486
56930SOL    HW172622  14.024   9.317  14.484
56930SOL    HW272623  13.947   9.412  14.394
56931SOL     OW72624   8.339   0.070   3.170
56931SOL    HW172625   8.435   0.073   3.170
56931SOL    HW272626   8.313   0.162   3.174
56932SOL     OW72627  14.365   4.431   9.716
56932SOL    HW172628  14.290   4.444   9.775
56932SOL    HW272629  14.411   4.356   9.754
56933SOL     OW72630   9.451   7.264   0.935
56933SOL    HW172631   9.535   7.264   0.890
56933SOL    HW272632   9.460   7.198   1.004
56934SOL     OW72633   6.471   0.587   1.460
56934SOL    HW172634   6.544   0.545   1.506
56934SOL    HW272635   6.450   0.527   1.389
56935SOL     OW72636   5.728  10.342   8.940
56935SOL    HW172637   5.774  10.258   8.949
56935SOL    HW272638   5.652  10.321   8.885
56936SOL     OW72639   9.979   2.941   3.626
56936SOL    HW172640   9.984   2.918   3.719
56936SOL    HW272641   9.905   2.890   3.593
56937SOL     OW72642   0.119  12.932   5.770
56937SOL    HW172643   0.164  13.014   5.788
56937SOL    HW272644   0.031  12.945   5.805
56938SOL     OW72645  10.365  11.961   1.997
56938SOL    HW172646  10.456  11.944   1.974
56938SOL    HW272647  10.320  11.973   1.913
56939SOL     OW72648   8.634  10.889   9.087
56939SOL    HW172649   8.716  10.844   9.110
56939SOL    HW272650   8.647  10.978   9.117
56940SOL     OW72651   1.872   3.139  12.927
56940SOL    HW172652   1.891   3.045  12.917
56940SOL    HW272653   1.908   3.161  13.013
56941SOL     OW72654  10.119  10.815   5.146
56941SOL    HW172655  10.089  10.858   5.066
56941SOL    HW272656  10.107  10.880   5.215
56942SOL     OW72657  11.862   8.852  13.718
56942SOL    HW172658  11.924   8.781  13.734
56942SOL    HW272659  11.777   8.818  13.746
56943SOL     OW72660   1.853  13.748   9.998
56943SOL    HW172661   1.835  13.802  10.075
56943SOL    HW272662   1.767  13.717   9.970
56944SOL     OW72663  11.687  12.124   8.569
56944SOL    HW172664  11.710  12.069   8.495
56944SOL    HW272665  11.605  12.087   8.602
56945SOL     OW72666  12.313  12.659   1.219
56945SOL    HW172667  12.355  12.693   1.299
56945SOL    HW272668  12.361  12.578   1.200
56946SOL     OW72669  12.257   1.246   7.914
56946SOL    HW172670  12.296   1.288   7.991
56946SOL    HW272671  12.204   1.175   7.950
56947SOL     OW72672  11.188   8.486   0.533
56947SOL    HW172673  11.199   8.572   0.573
56947SOL    HW272674  11.170   8.505   0.441
56948SOL     OW72675  13.068  13.705  14.706
56948SOL    HW172676  13.027  13.635  14.757
56948SOL    HW272677  13.089  13.772  14.770
56949SOL     OW72678  14.538   9.290   3.936
56949SOL    HW172679  14.475   9.236   3.890
56949SOL    HW272680  14.621   9.275   3.891
56950SOL     OW72681   4.210   7.344  12.942
56950SOL    HW172682   4.170   7.321  13.026
56950SOL    HW272683   4.288   7.394  12.966
56951SOL     OW72684   8.293   3.100  14.664
56951SOL    HW172685   8.351   3.061  14.729
56951SOL    HW272686   8.232   3.029  14.641
56952SOL     OW72687   3.480   2.778  13.343
56952SOL    HW172688   3.505   2.869  13.357
56952SOL    HW272689   3.478   2.740  13.430
56953SOL     OW72690   5.047   2.072  13.695
56953SOL    HW172691   5.073   2.059  13.603
56953SOL    HW272692   4.951   2.067  13.693
56954SOL     OW72693   1.888  11.714   8.064
56954SOL    HW172694   1.983  11.720   8.067
56954SOL    HW272695   1.860  11.801   8.035
56955SOL     OW72696  13.204  13.573   4.467
56955SOL    HW172697  13.293  13.608   4.470
56955SOL    HW272698  13.215  13.483   4.436
56956SOL     OW72699  12.776  10.648  11.484
56956SOL    HW172700  12.841  10.713  11.459
56956SOL    HW272701  12.698  10.672  11.434
56957SOL     OW72702  10.443   2.976   4.287
56957SOL    HW172703  10.349   2.963   4.272
56957SOL    HW272704  10.448   3.022   4.370
56958SOL     OW72705   2.534   7.399   7.933
56958SOL    HW172706   2.523   7.316   7.979
56958SOL    HW272707   2.445   7.433   7.923
56959SOL     OW72708   4.142   4.135  14.785
56959SOL    HW172709   4.099   4.063  14.831
56959SOL    HW272710   4.091   4.146  14.704
56960SOL     OW72711   2.701   8.404   5.717
56960SOL    HW172712   2.748   8.442   5.791
56960SOL    HW272713   2.767   8.396   5.648
56961SOL     OW72714  12.290   2.892  13.468
56961SOL    HW172715  12.226   2.962  13.458
56961SOL    HW272716  12.370   2.936  13.496
56962SOL     OW72717   7.008  12.132   1.833
56962SOL    HW172718   6.990  12.046   1.796
56962SOL    HW272719   7.092  12.122   1.879
56963SOL     OW72720   6.791  13.489   4.297
56963SOL    HW172721   6.862  13.552   4.310
56963SOL    HW272722   6.812  13.444   4.216
56964SOL     OW72723   1.318   8.151   6.231
56964SOL    HW172724   1.265   8.185   6.303
56964SOL    HW272725   1.368   8.227   6.201
56965SOL     OW72726  11.576  13.255   0.274
56965SOL    HW172727  11.488  13.282   0.249
56965SOL    HW272728  11.576  13.160   0.266
56966SOL     OW72729   5.121  11.850  11.679
56966SOL    HW172730   5.177  11.803  11.741
56966SOL    HW272731   5.173  11.855  11.599
56967SOL     OW72732   9.063   5.515   5.956
56967SOL    HW172733   9.137   5.570   5.928
56967SOL    HW272734   9.099   5.426   5.956
56968SOL     OW72735   3.015   3.207   9.009
56968SOL    HW172736   3.024   3.213   8.914
56968SOL    HW272737   2.927   3.170   9.022
56969SOL     OW72738   9.113  11.870   8.165
56969SOL    HW172739   9.102  11.778   8.190
56969SOL    HW272740   9.109  11.918   8.247
56970SOL     OW72741   8.336   6.037  11.103
56970SOL    HW172742   8.424   5.998  11.104
56970SOL    HW272743   8.344   6.114  11.160
56971SOL     OW72744   8.098  12.691   7.311
56971SOL    HW172745   8.190  12.686   7.286
56971SOL    HW272746   8.093  12.765   7.371
56972SOL     OW72747  12.788  12.614   6.417
56972SOL    HW172748  12.709  12.630   6.467
56972SOL    HW272749  12.787  12.519   6.401
56973SOL     OW72750   3.341   3.653   9.245
56973SOL    HW172751   3.299   3.628   9.328
56973SOL    HW272752   3.417   3.595   9.239
56974SOL     OW72753  13.096   5.657   4.886
56974SOL    HW172754  13.097   5.563   4.904
56974SOL    HW272755  13.003   5.678   4.873
56975SOL     OW72756   3.170  13.725   2.352
56975SOL    HW172757   3.092  13.671   2.365
56975SOL    HW272758   3.191  13.759   2.439
56976SOL     OW72759  12.998   6.618   6.475
56976SOL    HW172760  12.970   6.615   6.383
56976SOL    HW272761  12.916   6.616   6.525
56977SOL     OW72762   6.686  12.466  14.681
56977SOL    HW172763   6.782  12.468  14.684
56977SOL    HW272764   6.665  12.421  14.599
56978SOL     OW72765  13.879   6.420  13.901
56978SOL    HW172766  13.880   6.385  13.990
56978SOL    HW272767  13.870   6.343  13.844
56979SOL     OW72768   3.246  12.430  14.592
56979SOL    HW172769   3.276  12.444  14.682
56979SOL    HW272770   3.290  12.350  14.565
56980SOL     OW72771   3.105  10.230   5.423
56980SOL    HW172772   3.030  10.256   5.476
56980SOL    HW272773   3.092  10.137   5.406
56981SOL     OW72774   0.839  10.092   2.703
56981SOL    HW172775   0.763  10.139   2.668
56981SOL    HW272776   0.822  10.085   2.797
56982SOL     OW72777   2.271   4.569   1.099
56982SOL    HW172778   2.293   4.620   1.176
56982SOL    HW272779   2.253   4.481   1.133
56983SOL     OW72780  14.173   0.461   7.813
56983SOL    HW172781  14.103   0.420   7.763
56983SOL    HW272782  14.132   0.540   7.849
56984SOL     OW72783  14.021  14.608   7.386
56984SOL    HW172784  14.020  14.554   7.307
56984SOL    HW272785  13.943  14.664   7.378
56985SOL     OW72786  10.352   9.032  12.485
56985SOL    HW172787  10.384   9.045  12.574
56985SOL    HW272788  10.257   9.025  12.494
56986SOL     OW72789   0.022   8.038   5.999
56986SOL    HW172790   0.044   8.051   6.091
56986SOL    HW272791  14.814   8.083   5.988
56987SOL     OW72792  11.476  13.573   5.608
56987SOL    HW172793  11.500  13.491   5.651
56987SOL    HW272794  11.558  13.620   5.596
56988SOL     OW72795   3.237   9.868   4.385
56988SOL    HW172796   3.285   9.786   4.382
56988SOL    HW272797   3.213   9.879   4.477
56989SOL     OW72798   7.891   4.196   2.094
56989SOL    HW172799   7.972   4.238   2.067
56989SOL    HW272800   7.910   4.102   2.091
56990SOL     OW72801  13.953   6.836  11.415
56990SOL    HW172802  13.997   6.790  11.486
56990SOL    HW272803  13.873   6.786  11.400
56991SOL     OW72804   3.909  12.600   1.897
56991SOL    HW172805   3.823  12.641   1.904
56991SOL    HW272806   3.960  12.637   1.969
56992SOL     OW72807   5.938   5.800  12.516
56992SOL    HW172808   5.919   5.783  12.608
56992SOL    HW272809   6.018   5.750  12.498
56993SOL     OW72810   7.547  10.830   7.877
56993SOL    HW172811   7.459  10.865   7.860
56993SOL    HW272812   7.572  10.871   7.960
56994SOL     OW72813   0.964  10.409   5.763
56994SOL    HW172814   1.029  10.380   5.826
56994SOL    HW272815   0.884  10.419   5.814
56995SOL     OW72816   4.148   3.036   6.455
56995SOL    HW172817   4.195   2.954   6.442
56995SOL    HW272818   4.215   3.099   6.480
56996SOL     OW72819   5.516   9.284  14.524
56996SOL    HW172820   5.476   9.276  14.437
56996SOL    HW272821   5.609   9.265  14.510
56997SOL     OW72822   0.497   6.637  13.738
56997SOL    HW172823   0.547   6.713  13.709
56997SOL    HW272824   0.408   6.653  13.705
56998SOL     OW72825  10.652  13.377   5.376
56998SOL    HW172826  10.697  13.427   5.443
56998SOL    HW272827  10.560  13.400   5.386
56999SOL     OW72828  13.236   4.826  12.476
56999SOL    HW172829  13.143   4.835  12.499
56999SOL    HW272830  13.235   4.772  12.397
57000SOL     OW72831   0.350   5.127  12.734
57000SOL    HW172832   0.356   5.032  12.747
57000SOL    HW272833   0.435   5.152  12.698
57001SOL     OW72834   3.964   4.082   0.381
57001SOL    HW172835   4.002   4.007   0.335
57001SOL    HW272836   3.967   4.057   0.473
57002SOL     OW72837  14.339  10.206  13.560
57002SOL    HW172838  14.343  10.112  13.544
57002SOL    HW272839  14.386  10.245  13.486
57003SOL     OW72840   4.789   1.616  12.676
57003SOL    HW172841   4.716   1.560  12.702
57003SOL    HW272842   4.850   1.558  12.632
57004SOL     OW72843   5.289  13.895  10.198
57004SOL    HW172844   5.317  13.804  10.190
57004SOL    HW272845   5.368  13.946  10.184
57005SOL     OW72846  11.207  12.963  10.494
57005SOL    HW172847  11.115  12.989  10.500
57005SOL    HW272848  11.217  12.897  10.563
57006SOL     OW72849   6.089  13.080  14.653
57006SOL    HW172850   6.006  13.042  14.625
57006SOL    HW272851   6.154  13.044  14.592
57007SOL     OW72852   9.674   9.877  12.072
57007SOL    HW172853   9.580   9.887  12.084
57007SOL    HW272854   9.688   9.880  11.978
57008SOL     OW72855   9.240   0.408   4.925
57008SOL    HW172856   9.267   0.398   4.833
57008SOL    HW272857   9.147   0.429   4.921
57009SOL     OW72858   1.744   9.347   1.588
57009SOL    HW172859   1.754   9.425   1.643
57009SOL    HW272860   1.743   9.381   1.498
57010SOL     OW72861   3.824   2.135  11.369
57010SOL    HW172862   3.892   2.067  11.372
57010SOL    HW272863   3.743   2.088  11.354
57011SOL     OW72864  11.786   5.952  10.024
57011SOL    HW172865  11.810   6.003  10.102
57011SOL    HW272866  11.788   6.016   9.953
57012SOL     OW72867   2.726  10.109  13.456
57012SOL    HW172868   2.769  10.110  13.542
57012SOL    HW272869   2.795  10.136  13.395
57013SOL     OW72870   2.111   9.778   2.675
57013SOL    HW172871   2.018   9.797   2.669
57013SOL    HW272872   2.149   9.821   2.598
57014SOL     OW72873   5.287   6.559   0.834
57014SOL    HW172874   5.212   6.605   0.794
57014SOL    HW272875   5.278   6.469   0.803
57015SOL     OW72876   2.294   0.309   5.322
57015SOL    HW172877   2.266   0.232   5.272
57015SOL    HW272878   2.223   0.372   5.309
57016SOL     OW72879  14.146   2.232  12.099
57016SOL    HW172880  14.053   2.210  12.097
57016SOL    HW272881  14.176   2.203  12.185
57017SOL     OW72882   2.072  14.165   3.654
57017SOL    HW172883   2.138  14.100   3.629
57017SOL    HW272884   1.990  14.130   3.618
57018SOL     OW72885   6.979   9.258   6.590
57018SOL    HW172886   6.912   9.224   6.650
57018SOL    HW272887   7.031   9.181   6.566
57019SOL     OW72888  10.953   9.321   6.063
57019SOL    HW172889  11.022   9.354   6.006
57019SOL    HW272890  10.909   9.399   6.096
57020SOL     OW72891  12.327  14.042   6.077
57020SOL    HW172892  12.300  14.098   6.003
57020SOL    HW272893  12.394  14.094   6.122
57021SOL     OW72894  14.345  14.684  13.647
57021SOL    HW172895  14.302  14.735  13.716
57021SOL    HW272896  14.398  14.747  13.599
57022SOL     OW72897   2.905   4.403   4.695
57022SOL    HW172898   2.961   4.327   4.681
57022SOL    HW272899   2.875   4.395   4.786
57023SOL     OW72900   6.437   0.470   8.085
57023SOL    HW172901   6.440   0.490   8.179
57023SOL    HW272902   6.414   0.553   8.043
57024SOL     OW72903  10.861  10.450   4.752
57024SOL    HW172904  10.818  10.387   4.810
57024SOL    HW272905  10.942  10.472   4.798
57025SOL     OW72906   8.570  13.712  10.735
57025SOL    HW172907   8.493  13.763  10.711
57025SOL    HW272908   8.535  13.630  10.770
57026SOL     OW72909  13.883   9.265   6.891
57026SOL    HW172910  13.830   9.329   6.843
57026SOL    HW272911  13.856   9.180   6.855
57027SOL     OW72912  14.452   0.553   7.418
57027SOL    HW172913  14.432   0.646   7.430
57027SOL    HW272914  14.530   0.553   7.361
57028SOL     OW72915   1.948  11.181   0.911
57028SOL    HW172916   2.015  11.142   0.855
57028SOL    HW272917   1.914  11.255   0.860
57029SOL     OW72918   7.378   2.762   3.214
57029SOL    HW172919   7.316   2.835   3.219
57029SOL    HW272920   7.460   2.802   3.188
57030SOL     OW72921   5.903   7.966  14.176
57030SOL    HW172922   5.985   7.976  14.129
57030SOL    HW272923   5.925   7.987  14.267
57031SOL     OW72924   6.675   5.586   2.182
57031SOL    HW172925   6.647   5.495   2.179
57031SOL    HW272926   6.691   5.603   2.275
57032SOL     OW72927   4.183   5.600   0.651
57032SOL    HW172928   4.088   5.594   0.641
57032SOL    HW272929   4.206   5.682   0.607
57033SOL     OW72930  14.302   1.121   1.551
57033SOL    HW172931  14.219   1.073   1.551
57033SOL    HW272932  14.302   1.169   1.468
57034SOL     OW72933   0.684   9.124  14.857
57034SOL    HW172934   0.727   9.063   0.041
57034SOL    HW272935   0.689   9.081  14.771
57035SOL     OW72936   9.461   6.587  14.447
57035SOL    HW172937   9.444   6.533  14.370
57035SOL    HW272938   9.379   6.635  14.461
57036SOL     OW72939   0.521   9.999   6.948
57036SOL    HW172940   0.565   9.921   6.984
57036SOL    HW272941   0.576  10.026   6.875
57037SOL     OW72942   5.859  12.623  10.107
57037SOL    HW172943   5.898  12.537  10.091
57037SOL    HW272944   5.803  12.639  10.031
57038SOL     OW72945   7.528   8.156  13.888
57038SOL    HW172946   7.528   8.062  13.908
57038SOL    HW272947   7.464   8.165  13.817
57039SOL     OW72948   1.269   9.274   5.420
57039SOL    HW172949   1.262   9.184   5.388
57039SOL    HW272950   1.247   9.268   5.513
57040SOL     OW72951   3.055   1.465  13.222
57040SOL    HW172952   3.075   1.558  13.220
57040SOL    HW272953   3.122   1.428  13.280
57041SOL     OW72954   7.201   3.667   8.185
57041SOL    HW172955   7.129   3.719   8.221
57041SOL    HW272956   7.269   3.670   8.252
57042SOL     OW72957   0.359  12.476   2.785
57042SOL    HW172958   0.268  12.504   2.784
57042SOL    HW272959   0.356  12.383   2.764
57043SOL     OW72960   1.365   9.674   1.133
57043SOL    HW172961   1.291   9.614   1.141
57043SOL    HW272962   1.332   9.758   1.165
57044SOL     OW72963   1.382   7.987   7.918
57044SOL    HW172964   1.290   7.959   7.918
57044SOL    HW272965   1.399   8.013   8.009
57045SOL     OW72966   6.846  12.831   0.380
57045SOL    HW172967   6.918  12.769   0.392
57045SOL    HW272968   6.770  12.785   0.416
57046SOL     OW72969   4.464   0.963   4.220
57046SOL    HW172970   4.554   0.990   4.203
57046SOL    HW272971   4.472   0.876   4.259
57047SOL     OW72972  14.237   1.557  11.258
57047SOL    HW172973  14.174   1.577  11.327
57047SOL    HW272974  14.200   1.482  11.212
57048SOL     OW72975   7.080  14.367  10.534
57048SOL    HW172976   7.039  14.409  10.459
57048SOL    HW272977   7.037  14.282  10.540
57049SOL     OW72978   1.216  14.041   9.516
57049SOL    HW172979   1.256  14.109   9.570
57049SOL    HW272980   1.276  14.031   9.442
57050SOL     OW72981  13.646   4.298   8.620
57050SOL    HW172982  13.677   4.362   8.555
57050SOL    HW272983  13.585   4.347   8.674
57051SOL     OW72984   0.588   3.143   2.131
57051SOL    HW172985   0.504   3.105   2.103
57051SOL    HW272986   0.621   3.082   2.197
57052SOL     OW72987   9.007   6.120   9.793
57052SOL    HW172988   9.041   6.172   9.866
57052SOL    HW272989   9.013   6.179   9.717
57053SOL     OW72990   3.348  12.717   2.143
57053SOL    HW172991   3.360  12.738   2.236
57053SOL    HW272992   3.399  12.784   2.097
57054SOL     OW72993   4.834   5.724  11.763
57054SOL    HW172994   4.832   5.768  11.678
57054SOL    HW272995   4.883   5.784  11.820
57055SOL     OW72996  14.241   4.878  10.767
57055SOL    HW172997  14.336   4.881  10.757
57055SOL    HW272998  14.221   4.950  10.827
57056SOL     OW72999  11.143   2.933   1.316
57056SOL    HW173000  11.069   2.968   1.265
57056SOL    HW273001  11.218   2.985   1.288
57057SOL     OW73002   6.959  10.605  12.649
57057SOL    HW173003   7.040  10.554  12.653
57057SOL    HW273004   6.891  10.541  12.631
57058SOL     OW73005   9.775  13.077   4.955
57058SOL    HW173006   9.706  13.140   4.972
57058SOL    HW273007   9.741  13.024   4.882
57059SOL     OW73008   8.531  10.104   7.907
57059SOL    HW173009   8.541  10.038   7.838
57059SOL    HW273010   8.458  10.072   7.960
57060SOL     OW73011  12.895   1.125   0.195
57060SOL    HW173012  12.838   1.176   0.138
57060SOL    HW273013  12.909   1.181   0.271
57061SOL     OW73014   8.773   7.065  12.203
57061SOL    HW173015   8.804   6.998  12.143
57061SOL    HW273016   8.717   7.122  12.150
57062SOL     OW73017   3.677  10.948  10.638
57062SOL    HW173018   3.602  10.951  10.578
57062SOL    HW273019   3.712  10.859  10.628
57063SOL     OW73020  14.718   1.479   0.517
57063SOL    HW173021  14.793   1.487   0.575
57063SOL    HW273022  14.746   1.520   0.435
57064SOL     OW73023  12.740   9.786  11.029
57064SOL    HW173024  12.751   9.694  11.052
57064SOL    HW273025  12.678   9.786  10.956
57065SOL     OW73026   4.027  11.237   2.145
57065SOL    HW173027   3.947  11.260   2.097
57065SOL    HW273028   4.007  11.153   2.185
57066SOL     OW73029  11.248   3.526   4.729
57066SOL    HW173030  11.327   3.527   4.782
57066SOL    HW273031  11.180   3.563   4.786
57067SOL     OW73032  14.566   1.898  12.460
57067SOL    HW173033  14.575   1.915  12.554
57067SOL    HW273034  14.655   1.876  12.432
57068SOL     OW73035   8.888   8.876  11.986
57068SOL    HW173036   8.818   8.836  11.934
57068SOL    HW273037   8.967   8.830  11.958
57069SOL     OW73038   4.652   0.330   2.058
57069SOL    HW173039   4.633   0.424   2.049
57069SOL    HW273040   4.732   0.327   2.110
57070SOL     OW73041  11.247   9.874   4.310
57070SOL    HW173042  11.330   9.836   4.280
57070SOL    HW273043  11.196   9.799   4.340
57071SOL     OW73044   7.455   7.565  12.115
57071SOL    HW173045   7.509   7.623  12.167
57071SOL    HW273046   7.369   7.568  12.157
57072SOL     OW73047   2.094   2.226   4.245
57072SOL    HW173048   2.066   2.309   4.283
57072SOL    HW273049   2.121   2.249   4.156
57073SOL     OW73050  11.004  13.885   1.395
57073SOL    HW173051  10.931  13.882   1.457
57073SOL    HW273052  10.972  13.839   1.317
57074SOL     OW73053   0.978   5.719   0.842
57074SOL    HW173054   0.929   5.779   0.787
57074SOL    HW273055   1.038   5.775   0.892
57075SOL     OW73056  12.739   5.968   0.863
57075SOL    HW173057  12.741   5.889   0.916
57075SOL    HW273058  12.740   6.040   0.927
57076SOL     OW73059   9.307   4.575   0.029
57076SOL    HW173060   9.283   4.483   0.029
57076SOL    HW273061   9.238   4.618  14.855
57077SOL     OW73062   0.395   7.635  14.063
57077SOL    HW173063   0.416   7.726  14.085
57077SOL    HW273064   0.313   7.641  14.014
57078SOL     OW73065  10.513  13.468  13.809
57078SOL    HW173066  10.519  13.378  13.841
57078SOL    HW273067  10.604  13.494  13.795
57079SOL     OW73068  12.133   8.952  11.563
57079SOL    HW173069  12.060   8.943  11.625
57079SOL    HW273070  12.200   8.892  11.595
57080SOL     OW73071  10.939   3.782   8.114
57080SOL    HW173072  10.922   3.719   8.043
57080SOL    HW273073  10.970   3.728   8.186
57081SOL     OW73074   2.935   3.859   7.506
57081SOL    HW173075   2.935   3.805   7.428
57081SOL    HW273076   3.020   3.843   7.547
57082SOL     OW73077   2.062   3.995  11.711
57082SOL    HW173078   2.094   4.075  11.754
57082SOL    HW273079   2.068   4.014  11.618
57083SOL     OW73080   0.868   3.754   4.592
57083SOL    HW173081   0.849   3.819   4.525
57083SOL    HW273082   0.901   3.805   4.666
57084SOL     OW73083  10.529   0.101   4.660
57084SOL    HW173084  10.528   0.020   4.609
57084SOL    HW273085  10.437   0.115   4.683
57085SOL     OW73086  12.736  14.508   6.326
57085SOL    HW173087  12.771  14.461   6.402
57085SOL    HW273088  12.792  14.482   6.254
57086SOL     OW73089   8.553  11.893  13.342
57086SOL    HW173090   8.547  11.970  13.399
57086SOL    HW273091   8.536  11.819  13.400
57087SOL     OW73092   7.680   0.844  14.483
57087SOL    HW173093   7.595   0.862  14.443
57087SOL    HW273094   7.661   0.778  14.550
57088SOL     OW73095   7.984  11.077   5.248
57088SOL    HW173096   7.973  11.145   5.315
57088SOL    HW273097   7.994  11.126   5.167
57089SOL     OW73098  12.957   1.053   2.902
57089SOL    HW173099  12.995   1.132   2.864
57089SOL    HW273100  12.998   1.046   2.988
57090SOL     OW73101  14.803   3.409   5.189
57090SOL    HW173102  14.860   3.379   5.261
57090SOL    HW273103  14.814   3.504   5.187
57091SOL     OW73104   1.320   5.988   5.894
57091SOL    HW173105   1.371   5.908   5.903
57091SOL    HW273106   1.282   5.983   5.807
57092SOL     OW73107   3.068   4.229   7.769
57092SOL    HW173108   3.128   4.156   7.784
57092SOL    HW273109   3.003   4.193   7.708
57093SOL     OW73110   5.586  11.765  11.087
57093SOL    HW173111   5.502  11.810  11.083
57093SOL    HW273112   5.642  11.812  11.026
57094SOL     OW73113   8.091   5.595   3.271
57094SOL    HW173114   8.063   5.504   3.276
57094SOL    HW273115   8.114   5.619   3.360
57095SOL     OW73116   0.641   6.741   5.231
57095SOL    HW173117   0.691   6.659   5.239
57095SOL    HW273118   0.593   6.748   5.313
57096SOL     OW73119   3.051  10.854   1.842
57096SOL    HW173120   3.073  10.765   1.870
57096SOL    HW273121   3.136  10.897   1.832
57097SOL     OW73122   9.516  13.046  13.863
57097SOL    HW173123   9.537  13.139  13.854
57097SOL    HW273124   9.425  13.044  13.891
57098SOL     OW73125   1.415  12.495  12.643
57098SOL    HW173126   1.452  12.481  12.556
57098SOL    HW273127   1.404  12.407  12.679
57099SOL     OW73128   8.069   4.216  10.153
57099SOL    HW173129   8.019   4.149  10.105
57099SOL    HW273130   8.003   4.280  10.181
57100SOL     OW73131   0.407  10.470   4.477
57100SOL    HW173132   0.474  10.486   4.543
57100SOL    HW273133   0.414  10.377   4.458
57101SOL     OW73134  14.513  14.069   7.890
57101SOL    HW173135  14.442  14.122   7.927
57101SOL    HW273136  14.469  13.992   7.854
57102SOL     OW73137   8.025  13.280  12.599
57102SOL    HW173138   7.982  13.288  12.514
57102SOL    HW273139   8.053  13.369  12.619
57103SOL     OW73140   8.439  13.306  11.585
57103SOL    HW173141   8.394  13.377  11.631
57103SOL    HW273142   8.392  13.298  11.502
57104SOL     OW73143  10.533  11.896   0.770
57104SOL    HW173144  10.458  11.858   0.723
57104SOL    HW273145  10.531  11.989   0.747
57105SOL     OW73146   9.352   2.530  12.565
57105SOL    HW173147   9.399   2.477  12.501
57105SOL    HW273148   9.312   2.600  12.513
57106SOL     OW73149  11.777  10.161  12.199
57106SOL    HW173150  11.738  10.076  12.218
57106SOL    HW273151  11.758  10.214  12.277
57107SOL     OW73152   4.589  10.137   9.962
57107SOL    HW173153   4.570  10.126   9.868
57107SOL    HW273154   4.644  10.063   9.985
57108SOL     OW73155   4.652   2.254   6.738
57108SOL    HW173156   4.614   2.185   6.683
57108SOL    HW273157   4.662   2.329   6.680
57109SOL     OW73158  11.793   8.657   8.473
57109SOL    HW173159  11.729   8.586   8.474
57109SOL    HW273160  11.876   8.614   8.453
57110SOL     OW73161   6.345   5.074  14.636
57110SOL    HW173162   6.388   5.150  14.674
57110SOL    HW273163   6.302   5.030  14.709
57111SOL     OW73164   0.198   5.127  11.546
57111SOL    HW173165   0.223   5.037  11.566
57111SOL    HW273166   0.239   5.179  11.616
57112SOL     OW73167   7.041   9.903   9.562
57112SOL    HW173168   6.980   9.940   9.626
57112SOL    HW273169   7.122   9.889   9.611
57113SOL     OW73170   0.752  11.262  12.423
57113SOL    HW173171   0.838  11.291  12.395
57113SOL    HW273172   0.705  11.343  12.445
57114SOL     OW73173   3.278   2.484  13.430
57114SOL    HW173174   3.214   2.414  13.426
57114SOL    HW273175   3.338   2.467  13.358
57115SOL     OW73176   4.306  12.213  10.051
57115SOL    HW173177   4.256  12.288  10.021
57115SOL    HW273178   4.379  12.206   9.990
57116SOL     OW73179   8.869   7.421   3.925
57116SOL    HW173180   8.788   7.464   3.898
57116SOL    HW273181   8.913   7.486   3.980
57117SOL     OW73182   2.561   5.043   8.596
57117SOL    HW173183   2.590   5.006   8.513
57117SOL    HW273184   2.642   5.074   8.638
57118SOL     OW73185  13.835   2.120   4.189
57118SOL    HW173186  13.783   2.173   4.250
57118SOL    HW273187  13.801   2.031   4.199
57119SOL     OW73188  12.620  13.425   0.133
57119SOL    HW173189  12.541  13.446   0.083
57119SOL    HW273190  12.665  13.359   0.081
57120SOL     OW73191   1.191  12.449   5.907
57120SOL    HW173192   1.231  12.494   5.833
57120SOL    HW273193   1.119  12.506   5.934
57121SOL     OW73194   0.482   1.713   9.353
57121SOL    HW173195   0.508   1.724   9.444
57121SOL    HW273196   0.551   1.758   9.303
57122SOL     OW73197   1.836   4.067   7.082
57122SOL    HW173198   1.774   4.133   7.112
57122SOL    HW273199   1.783   4.003   7.036
57123SOL     OW73200   8.663  10.846   0.613
57123SOL    HW173201   8.754  10.861   0.586
57123SOL    HW273202   8.666  10.850   0.708
57124SOL     OW73203   1.375   6.745  10.672
57124SOL    HW173204   1.281   6.746  10.691
57124SOL    HW273205   1.396   6.837  10.653
57125SOL     OW73206   0.239   0.527   8.307
57125SOL    HW173207   0.172   0.559   8.246
57125SOL    HW273208   0.301   0.600   8.315
57126SOL     OW73209   0.576   7.548   9.676
57126SOL    HW173210   0.511   7.591   9.621
57126SOL    HW273211   0.615   7.481   9.621
57127SOL     OW73212  13.006   3.837   8.507
57127SOL    HW173213  12.951   3.892   8.563
57127SOL    HW273214  13.019   3.890   8.428
57128SOL     OW73215  13.193   8.937  14.127
57128SOL    HW173216  13.159   9.014  14.083
57128SOL    HW273217  13.261   8.971  14.185
57129SOL     OW73218   3.811   9.375  14.583
57129SOL    HW173219   3.757   9.451  14.603
57129SOL    HW273220   3.856   9.355  14.665
57130SOL     OW73221   0.004  14.121  12.621
57130SOL    HW173222  14.794  14.100  12.585
57130SOL    HW273223   0.028  14.203  12.578
57131SOL     OW73224  13.098   8.518  11.184
57131SOL    HW173225  13.109   8.607  11.219
57131SOL    HW273226  13.120   8.461  11.258
57132SOL     OW73227   1.120  11.891   8.772
57132SOL    HW173228   1.114  11.959   8.838
57132SOL    HW273229   1.170  11.930   8.701
57133SOL     OW73230   0.139   0.757  14.863
57133SOL    HW173231   0.135   0.812   0.065
57133SOL    HW273232   0.233   0.747  14.846
57134SOL     OW73233  13.001  13.711  13.628
57134SOL    HW173234  12.913  13.734  13.599
57134SOL    HW273235  12.989  13.633  13.682
57135SOL     OW73236   4.514   1.531  12.577
57135SOL    HW173237   4.539   1.618  12.543
57135SOL    HW273238   4.513   1.475  12.499
57136SOL     OW73239   5.600   5.087   7.517
57136SOL    HW173240   5.529   5.146   7.490
57136SOL    HW273241   5.662   5.088   7.444
57137SOL     OW73242  12.258   1.807   6.919
57137SOL    HW173243  12.284   1.899   6.922
57137SOL    HW273244  12.228   1.787   7.008
57138SOL     OW73245   7.292   3.084   7.959
57138SOL    HW173246   7.385   3.072   7.943
57138SOL    HW273247   7.286   3.117   8.049
57139SOL     OW73248   4.722   2.424   6.497
57139SOL    HW173249   4.630   2.449   6.490
57139SOL    HW273250   4.768   2.507   6.514
57140SOL     OW73251   7.961   2.153  13.826
57140SOL    HW173252   7.988   2.095  13.897
57140SOL    HW273253   7.884   2.200  13.860
57141SOL     OW73254  11.945  14.217  11.315
57141SOL    HW173255  11.950  14.146  11.379
57141SOL    HW273256  11.948  14.174  11.230
57142SOL     OW73257   3.734   8.183   4.543
57142SOL    HW173258   3.645   8.181   4.577
57142SOL    HW273259   3.789   8.174   4.620
57143SOL     OW73260  13.436  13.712   2.251
57143SOL    HW173261  13.390  13.640   2.208
57143SOL    HW273262  13.513  13.670   2.291
57144SOL     OW73263  11.862  14.352   0.336
57144SOL    HW173264  11.957  14.364   0.333
57144SOL    HW273265  11.828  14.439   0.357
57145SOL     OW73266  11.740   0.425   4.813
57145SOL    HW173267  11.784   0.441   4.896
57145SOL    HW273268  11.685   0.502   4.800
57146SOL     OW73269  14.740   8.064   2.843
57146SOL    HW173270  14.712   7.976   2.869
57146SOL    HW273271  14.798   8.093   2.913
57147SOL     OW73272  10.733   6.530   0.229
57147SOL    HW173273  10.731   6.438   0.257
57147SOL    HW273274  10.735   6.580   0.310
57148SOL     OW73275   8.092   0.250  11.224
57148SOL    HW173276   8.050   0.193  11.288
57148SOL    HW273277   8.049   0.335  11.234
57149SOL     OW73278   9.389   3.434   1.568
57149SOL    HW173279   9.408   3.411   1.477
57149SOL    HW273280   9.314   3.380   1.591
57150SOL     OW73281   4.319   3.585   5.411
57150SOL    HW173282   4.355   3.661   5.365
57150SOL    HW273283   4.257   3.547   5.348
57151SOL     OW73284   0.586   5.006   3.381
57151SOL    HW173285   0.631   5.018   3.465
57151SOL    HW273286   0.648   5.038   3.316
57152SOL     OW73287  12.672   6.795  13.083
57152SOL    HW173288  12.725   6.717  13.067
57152SOL    HW273289  12.731   6.868  13.064
57153SOL     OW73290   9.187   6.808  12.467
57153SOL    HW173291   9.193   6.901  12.489
57153SOL    HW273292   9.123   6.804  12.397
57154SOL     OW73293  12.778  11.477   1.022
57154SOL    HW173294  12.864  11.437   1.029
57154SOL    HW273295  12.767  11.495   0.929
57155SOL     OW73296   2.766   1.655   6.518
57155SOL    HW173297   2.845   1.641   6.465
57155SOL    HW273298   2.694   1.653   6.455
57156SOL     OW73299   8.884   3.189   9.665
57156SOL    HW173300   8.813   3.184   9.601
57156SOL    HW273301   8.840   3.184   9.750
57157SOL     OW73302   3.206   5.597   6.871
57157SOL    HW173303   3.118   5.580   6.839
57157SOL    HW273304   3.213   5.548   6.953
57158SOL     OW73305   7.390  11.395  10.673
57158SOL    HW173306   7.326  11.446  10.622
57158SOL    HW273307   7.357  11.398  10.763
57159SOL     OW73308   3.173   5.995   1.546
57159SOL    HW173309   3.246   5.935   1.562
57159SOL    HW273310   3.146   5.976   1.457
57160SOL     OW73311  12.120  11.867   4.307
57160SOL    HW173312  12.197  11.847   4.360
57160SOL    HW273313  12.046  11.836   4.360
57161SOL     OW73314   1.402   1.242   4.022
57161SOL    HW173315   1.402   1.163   4.077
57161SOL    HW273316   1.417   1.210   3.933
57162SOL     OW73317   2.423   7.261   2.929
57162SOL    HW173318   2.362   7.326   2.895
57162SOL    HW273319   2.467   7.226   2.852
57163SOL     OW73320  14.864   4.316   1.685
57163SOL    HW173321  14.859   4.404   1.649
57163SOL    HW273322  14.779   4.303   1.728
57164SOL     OW73323   3.019   7.502   6.414
57164SOL    HW173324   2.925   7.493   6.399
57164SOL    HW273325   3.025   7.549   6.496
57165SOL     OW73326  11.214  12.349  11.225
57165SOL    HW173327  11.293  12.335  11.276
57165SOL    HW273328  11.150  12.381  11.288
57166SOL     OW73329   3.751   7.116   4.788
57166SOL    HW173330   3.821   7.085   4.731
57166SOL    HW273331   3.776   7.206   4.811
57167SOL     OW73332   6.099  12.354   6.871
57167SOL    HW173333   6.058  12.305   6.942
57167SOL    HW273334   6.190  12.323   6.870
57168SOL     OW73335   1.567   0.657  14.582
57168SOL    HW173336   1.499   0.646  14.515
57168SOL    HW273337   1.536   0.730  14.635
57169SOL     OW73338   5.016   4.260   4.564
57169SOL    HW173339   5.054   4.187   4.516
57169SOL    HW273340   4.924   4.235   4.578
57170SOL     OW73341   3.860   4.302  12.951
57170SOL    HW173342   3.777   4.336  12.917
57170SOL    HW273343   3.841   4.211  12.974
57171SOL     OW73344   4.802  12.569  11.036
57171SOL    HW173345   4.819  12.481  11.070
57171SOL    HW273346   4.820  12.627  11.110
57172SOL     OW73347   8.272  10.984   2.590
57172SOL    HW173348   8.299  10.970   2.499
57172SOL    HW273349   8.240  11.074   2.592
57173SOL     OW73350   1.126   7.663   6.082
57173SOL    HW173351   1.132   7.759   6.088
57173SOL    HW273352   1.059   7.647   6.016
57174SOL     OW73353   8.475   2.785   1.274
57174SOL    HW173354   8.545   2.844   1.246
57174SOL    HW273355   8.435   2.830   1.349
57175SOL     OW73356   8.799   3.457  11.440
57175SOL    HW173357   8.825   3.526  11.379
57175SOL    HW273358   8.736   3.404  11.392
57176SOL     OW73359   4.830   6.530   0.181
57176SOL    HW173360   4.774   6.591   0.133
57176SOL    HW273361   4.807   6.444   0.146
57177SOL     OW73362  12.901   9.498  13.032
57177SOL    HW173363  12.970   9.481  12.968
57177SOL    HW273364  12.947   9.522  13.112
57178SOL     OW73365   9.665  11.742   7.852
57178SOL    HW173366   9.595  11.677   7.859
57178SOL    HW273367   9.724  11.721   7.925
57179SOL     OW73368   5.542   8.170  11.984
57179SOL    HW173369   5.479   8.100  12.004
57179SOL    HW273370   5.624   8.141  12.023
57180SOL     OW73371   7.604  12.861   0.921
57180SOL    HW173372   7.659  12.803   0.973
57180SOL    HW273373   7.659  12.889   0.849
57181SOL     OW73374   0.605   4.448   7.884
57181SOL    HW173375   0.514   4.425   7.900
57181SOL    HW273376   0.639   4.469   7.971
57182SOL     OW73377  10.888  14.210   2.528
57182SOL    HW173378  10.854  14.237   2.614
57182SOL    HW273379  10.934  14.128   2.546
57183SOL     OW73380   8.431   9.181  12.972
57183SOL    HW173381   8.347   9.187  12.927
57183SOL    HW273382   8.437   9.090  13.002
57184SOL     OW73383   3.770  11.594  11.949
57184SOL    HW173384   3.732  11.682  11.957
57184SOL    HW273385   3.773  11.561  12.038
57185SOL     OW73386   7.223   7.769  13.664
57185SOL    HW173387   7.178   7.849  13.637
57185SOL    HW273388   7.155   7.702  13.665
57186SOL     OW73389   8.536   6.278  13.730
57186SOL    HW173390   8.569   6.190  13.709
57186SOL    HW273391   8.466   6.262  13.795
57187SOL     OW73392   9.388   1.063   6.931
57187SOL    HW173393   9.451   1.072   7.002
57187SOL    HW273394   9.412   0.980   6.888
57188SOL     OW73395   0.223   1.251   8.499
57188SOL    HW173396   0.289   1.201   8.546
57188SOL    HW273397   0.152   1.263   8.562
57189SOL     OW73398   3.056  13.475   1.004
57189SOL    HW173399   2.979  13.470   1.062
57189SOL    HW273400   3.027  13.434   0.923
57190SOL     OW73401   1.013   6.658  13.590
57190SOL    HW173402   1.103   6.674  13.619
57190SOL    HW273403   0.958   6.686  13.663
57191SOL     OW73404  13.765   9.555   8.467
57191SOL    HW173405  13.713   9.547   8.547
57191SOL    HW273406  13.762   9.469   8.427
57192SOL     OW73407   2.598   3.718   0.167
57192SOL    HW173408   2.539   3.705   0.093
57192SOL    HW273409   2.603   3.814   0.177
57193SOL     OW73410  14.272   0.363   0.841
57193SOL    HW173411  14.289   0.424   0.769
57193SOL    HW273412  14.357   0.323   0.859
57194SOL     OW73413   7.033  12.497  11.619
57194SOL    HW173414   6.965  12.433  11.640
57194SOL    HW273415   7.045  12.489  11.524
57195SOL     OW73416  13.852   2.097   0.920
57195SOL    HW173417  13.915   2.093   0.992
57195SOL    HW273418  13.767   2.108   0.964
57196SOL     OW73419  12.961  13.370   4.667
57196SOL    HW173420  13.031  13.430   4.695
57196SOL    HW273421  12.911  13.420   4.603
57197SOL     OW73422   0.947   6.453   1.898
57197SOL    HW173423   0.859   6.414   1.894
57197SOL    HW273424   0.981   6.426   1.983
57198SOL     OW73425   4.481  10.060  12.956
57198SOL    HW173426   4.487  10.153  12.981
57198SOL    HW273427   4.432  10.060  12.874
57199SOL     OW73428   2.716  14.103   0.624
57199SOL    HW173429   2.742  14.137   0.710
57199SOL    HW273430   2.783  14.134   0.564
57200SOL     OW73431  10.090   6.802  13.040
57200SOL    HW173432  10.022   6.857  13.079
57200SOL    HW273433  10.095   6.831  12.949
57201SOL     OW73434   3.059   0.248   7.298
57201SOL    HW173435   3.056   0.177   7.233
57201SOL    HW273436   3.022   0.209   7.377
57202SOL     OW73437  11.009  10.936  13.667
57202SOL    HW173438  10.924  10.917  13.707
57202SOL    HW273439  11.048  10.850  13.652
57203SOL     OW73440   3.268   7.685  12.390
57203SOL    HW173441   3.218   7.631  12.329
57203SOL    HW273442   3.295   7.624  12.459
57204SOL     OW73443   8.412   8.444   2.849
57204SOL    HW173444   8.413   8.525   2.799
57204SOL    HW273445   8.504   8.417   2.853
57205SOL     OW73446  10.000  10.408   0.886
57205SOL    HW173447  10.023  10.424   0.978
57205SOL    HW273448  10.029  10.486   0.840
57206SOL     OW73449   5.713   7.323   0.554
57206SOL    HW173450   5.697   7.229   0.540
57206SOL    HW273451   5.771   7.326   0.629
57207SOL     OW73452   0.002  14.506   9.352
57207SOL    HW173453   0.084  14.458   9.339
57207SOL    HW273454  14.822  14.477   9.280
57208SOL     OW73455  13.573  10.957   1.614
57208SOL    HW173456  13.556  11.043   1.574
57208SOL    HW273457  13.633  10.976   1.686
57209SOL     OW73458   4.253   8.637   8.597
57209SOL    HW173459   4.347   8.625   8.610
57209SOL    HW273460   4.240   8.731   8.602
57210SOL     OW73461  12.015  13.870   9.098
57210SOL    HW173462  11.919  13.875   9.103
57210SOL    HW273463  12.032  13.834   9.011
57211SOL     OW73464  13.039  14.295  10.261
57211SOL    HW173465  12.945  14.277  10.270
57211SOL    HW273466  13.065  14.245  10.183
57212SOL     OW73467   9.183   6.192   4.386
57212SOL    HW173468   9.097   6.169   4.349
57212SOL    HW273469   9.170   6.188   4.481
57213SOL     OW73470   4.809   6.341  12.488
57213SOL    HW173471   4.808   6.302  12.400
57213SOL    HW273472   4.796   6.268  12.547
57214SOL     OW73473  11.847   2.216  13.066
57214SOL    HW173474  11.834   2.254  13.153
57214SOL    HW273475  11.773   2.248  13.015
57215SOL     OW73476   5.911  11.157   1.045
57215SOL    HW173477   5.992  11.191   1.007
57215SOL    HW273478   5.918  11.062   1.035
57216SOL     OW73479  11.109  14.554   3.740
57216SOL    HW173480  11.080  14.480   3.793
57216SOL    HW273481  11.076  14.632   3.786
57217SOL     OW73482   4.552   5.319   7.268
57217SOL    HW173483   4.624   5.376   7.242
57217SOL    HW273484   4.538   5.338   7.361
57218SOL     OW73485   0.627   8.364   7.226
57218SOL    HW173486   0.607   8.441   7.278
57218SOL    HW273487   0.723   8.364   7.220
57219SOL     OW73488  14.651  14.674  12.897
57219SOL    HW173489  14.725  14.623  12.862
57219SOL    HW273490  14.630  14.736  12.827
57220SOL     OW73491  14.770   1.484   8.586
57220SOL    HW173492  14.686   1.514   8.621
57220SOL    HW273493  14.834   1.510   8.652
57221SOL     OW73494   6.713  14.741   7.818
57221SOL    HW173495   6.682  14.823   7.856
57221SOL    HW273496   6.668  14.734   7.734
57222SOL     OW73497   7.768   3.689   6.825
57222SOL    HW173498   7.747   3.771   6.868
57222SOL    HW273499   7.750   3.705   6.732
57223SOL     OW73500   4.229   9.058   5.989
57223SOL    HW173501   4.161   9.121   6.012
57223SOL    HW273502   4.208   8.979   6.039
57224SOL     OW73503  14.773   1.216   9.846
57224SOL    HW173504  14.830   1.285   9.880
57224SOL    HW273505  14.694   1.261   9.818
57225SOL     OW73506   4.888   8.067   7.420
57225SOL    HW173507   4.841   8.110   7.491
57225SOL    HW273508   4.966   8.030   7.462
57226SOL     OW73509   7.489   9.454  10.014
57226SOL    HW173510   7.476   9.368  10.052
57226SOL    HW273511   7.447   9.449   9.928
57227SOL     OW73512  13.288  12.623   7.957
57227SOL    HW173513  13.382  12.631   7.968
57227SOL    HW273514  13.268  12.532   7.977
57228SOL     OW73515   4.449   9.088   9.658
57228SOL    HW173516   4.355   9.104   9.656
57228SOL    HW273517   4.488   9.173   9.679
57229SOL     OW73518   6.564   3.638   8.283
57229SOL    HW173519   6.653   3.669   8.268
57229SOL    HW273520   6.514   3.718   8.304
57230SOL     OW73521  14.834  14.133   5.689
57230SOL    HW173522  14.756  14.145   5.744
57230SOL    HW273523   0.011  14.211   5.704
57231SOL     OW73524  11.506  12.670   9.440
57231SOL    HW173525  11.478  12.580   9.423
57231SOL    HW273526  11.601  12.669   9.425
57232SOL     OW73527   7.826   9.523   8.315
57232SOL    HW173528   7.895   9.581   8.282
57232SOL    HW273529   7.835   9.442   8.265
57233SOL     OW73530  12.357   4.073   9.889
57233SOL    HW173531  12.280   4.033   9.930
57233SOL    HW273532  12.346   4.167   9.904
57234SOL     OW73533  10.104   7.032   1.971
57234SOL    HW173534  10.080   7.119   1.937
57234SOL    HW273535  10.105   7.043   2.066
57235SOL     OW73536   9.568   2.997  11.481
57235SOL    HW173537   9.533   2.967  11.397
57235SOL    HW273538   9.642   2.939  11.498
57236SOL     OW73539   4.193  14.039   3.645
57236SOL    HW173540   4.130  13.969   3.665
57236SOL    HW273541   4.223  14.018   3.556
57237SOL     OW73542  11.762   0.583   5.526
57237SOL    HW173543  11.766   0.669   5.485
57237SOL    HW273544  11.669   0.566   5.538
57238SOL     OW73545   3.442   5.327   8.112
57238SOL    HW173546   3.510   5.392   8.128
57238SOL    HW273547   3.476   5.275   8.039
57239SOL     OW73548   0.724   5.525   9.926
57239SOL    HW173549   0.802   5.577   9.906
57239SOL    HW273550   0.656   5.561   9.869
57240SOL     OW73551   7.565   8.956   1.538
57240SOL    HW173552   7.576   8.984   1.447
57240SOL    HW273553   7.650   8.976   1.579
57241SOL     OW73554   5.660   1.121   9.737
57241SOL    HW173555   5.604   1.198   9.722
57241SOL    HW273556   5.726   1.126   9.668
57242SOL     OW73557   2.411   1.690  10.505
57242SOL    HW173558   2.377   1.761  10.560
57242SOL    HW273559   2.412   1.728  10.417
57243SOL     OW73560   3.641  13.718  11.208
57243SOL    HW173561   3.641  13.671  11.124
57243SOL    HW273562   3.620  13.808  11.185
57244SOL     OW73563   8.622  11.708   9.140
57244SOL    HW173564   8.646  11.759   9.063
57244SOL    HW273565   8.697  11.717   9.199
57245SOL     OW73566   3.357   7.732   5.206
57245SOL    HW173567   3.377   7.771   5.292
57245SOL    HW273568   3.442   7.730   5.161
57246SOL     OW73569   3.568   1.893   0.248
57246SOL    HW173570   3.535   1.826   0.187
57246SOL    HW273571   3.498   1.904   0.311
57247SOL     OW73572  13.773  14.232   9.828
57247SOL    HW173573  13.799  14.302   9.768
57247SOL    HW273574  13.712  14.274   9.889
57248SOL     OW73575   3.185   2.403  10.449
57248SOL    HW173576   3.276   2.403  10.420
57248SOL    HW273577   3.189   2.424  10.542
57249SOL     OW73578  13.848   9.838   9.569
57249SOL    HW173579  13.822   9.852   9.660
57249SOL    HW273580  13.906   9.910   9.549
57250SOL     OW73581   6.771   8.760   1.523
57250SOL    HW173582   6.765   8.756   1.618
57250SOL    HW273583   6.821   8.682   1.498
57251SOL     OW73584   3.414  12.497   8.003
57251SOL    HW173585   3.362  12.547   7.939
57251SOL    HW273586   3.352  12.479   8.074
57252SOL     OW73587   7.094   2.854   4.251
57252SOL    HW173588   7.046   2.926   4.209
57252SOL    HW273589   7.139   2.895   4.325
57253SOL     OW73590  10.809   6.280  13.429
57253SOL    HW173591  10.849   6.217  13.488
57253SOL    HW273592  10.806   6.234  13.344
57254SOL     OW73593  11.325  10.186  11.041
57254SOL    HW173594  11.386  10.118  11.070
57254SOL    HW273595  11.238  10.148  11.055
57255SOL     OW73596   1.220  10.093  12.993
57255SOL    HW173597   1.181  10.104  13.080
57255SOL    HW273598   1.262  10.177  12.976
57256SOL     OW73599  13.764   6.620  12.981
57256SOL    HW173600  13.756   6.572  12.899
57256SOL    HW273601  13.846   6.590  13.020
57257SOL     OW73602  12.760   9.208   5.569
57257SOL    HW173603  12.700   9.280   5.550
57257SOL    HW273604  12.716   9.130   5.533
57258SOL     OW73605   8.292   2.293   3.969
57258SOL    HW173606   8.202   2.279   3.939
57258SOL    HW273607   8.345   2.237   3.911
57259SOL     OW73608  13.730  11.836  10.592
57259SOL    HW173609  13.722  11.746  10.622
57259SOL    HW273610  13.815  11.865  10.625
57260SOL     OW73611  12.225   1.176   8.660
57260SOL    HW173612  12.161   1.217   8.718
57260SOL    HW273613  12.173   1.142   8.587
57261SOL     OW73614  13.144  13.089  11.716
57261SOL    HW173615  13.122  13.180  11.736
57261SOL    HW273616  13.085  13.066  11.644
57262SOL     OW73617  14.515   9.767   8.550
57262SOL    HW173618  14.419   9.762   8.551
57262SOL    HW273619  14.538   9.774   8.457
57263SOL     OW73620  12.228  11.184  12.029
57263SOL    HW173621  12.209  11.091  12.037
57263SOL    HW273622  12.322  11.188  12.012
57264SOL     OW73623   2.633   7.983  12.766
57264SOL    HW173624   2.676   7.915  12.818
57264SOL    HW273625   2.546   7.947  12.748
57265SOL     OW73626   4.748  14.181   4.319
57265SOL    HW173627   4.810  14.250   4.295
57265SOL    HW273628   4.704  14.215   4.397
57266SOL     OW73629  12.436   0.861   2.887
57266SOL    HW173630  12.439   0.880   2.794
57266SOL    HW273631  12.451   0.766   2.892
57267SOL     OW73632   6.070   0.463  10.973
57267SOL    HW173633   6.081   0.557  10.966
57267SOL    HW273634   6.151   0.427  10.936
57268SOL     OW73635   3.400  14.187   2.257
57268SOL    HW173636   3.491  14.160   2.268
57268SOL    HW273637   3.351  14.105   2.256
57269SOL     OW73638   8.166   3.015   2.682
57269SOL    HW173639   8.072   3.003   2.694
57269SOL    HW273640   8.182   2.987   2.591
57270SOL     OW73641  12.971  14.302   3.025
57270SOL    HW173642  12.877  14.306   3.041
57270SOL    HW273643  12.992  14.385   2.982
57271SOL     OW73644   7.713  14.545  13.427
57271SOL    HW173645   7.734  14.544  13.334
57271SOL    HW273646   7.778  14.488  13.468
57272SOL     OW73647   7.782   6.550   1.962
57272SOL    HW173648   7.783   6.567   2.056
57272SOL    HW273649   7.717   6.612   1.927
57273SOL     OW73650   4.084  14.447   9.898
57273SOL    HW173651   4.037  14.501   9.835
57273SOL    HW273652   4.133  14.384   9.844
57274SOL     OW73653   7.752   0.359  10.250
57274SOL    HW173654   7.731   0.269  10.228
57274SOL    HW273655   7.719   0.410  10.176
57275SOL     OW73656  10.886   6.863   2.809
57275SOL    HW173657  10.981   6.858   2.810
57275SOL    HW273658  10.865   6.912   2.730
57276SOL     OW73659   8.597   9.676   0.946
57276SOL    HW173660   8.566   9.589   0.923
57276SOL    HW273661   8.587   9.681   1.042
57277SOL     OW73662   3.348  13.217  10.891
57277SOL    HW173663   3.300  13.218  10.974
57277SOL    HW273664   3.293  13.165  10.833
57278SOL     OW73665  12.539  14.858   0.343
57278SOL    HW173666  12.610  14.811   0.386
57278SOL    HW273667  12.465  14.850   0.403
57279SOL     OW73668   9.102   3.513   9.287
57279SOL    HW173669   9.140   3.579   9.345
57279SOL    HW273670   9.141   3.430   9.314
57280SOL     OW73671  12.566  14.782  12.809
57280SOL    HW173672  12.491  14.746  12.856
57280SOL    HW273673  12.537  14.869  12.780
57281SOL     OW73674  14.011   6.470   2.992
57281SOL    HW173675  13.935   6.501   3.040
57281SOL    HW273676  14.071   6.438   3.059
57282SOL     OW73677   8.410  11.075  11.914
57282SOL    HW173678   8.477  11.105  11.975
57282SOL    HW273679   8.435  10.985  11.893
57283SOL     OW73680   7.942   5.541  13.985
57283SOL    HW173681   7.849   5.538  13.963
57283SOL    HW273682   7.981   5.600  13.921
57284SOL     OW73683   0.529  14.248   1.346
57284SOL    HW173684   0.452  14.260   1.291
57284SOL    HW273685   0.533  14.154   1.363
57285SOL     OW73686  13.525   5.024   5.898
57285SOL    HW173687  13.567   4.941   5.874
57285SOL    HW273688  13.594   5.072   5.944
57286SOL     OW73689   9.697   6.692  14.149
57286SOL    HW173690   9.763   6.760  14.161
57286SOL    HW273691   9.621   6.739  14.114
57287SOL     OW73692   8.642  12.620  10.029
57287SOL    HW173693   8.645  12.600   9.935
57287SOL    HW273694   8.591  12.548  10.067
57288SOL     OW73695   5.675  13.658   5.039
57288SOL    HW173696   5.750  13.604   5.015
57288SOL    HW273697   5.661  13.640   5.132
57289SOL     OW73698  14.796  10.511   6.673
57289SOL    HW173699   0.006  10.550   6.688
57289SOL    HW273700  14.780  10.457   6.750
57290SOL     OW73701   1.222   0.354   7.721
57290SOL    HW173702   1.131   0.336   7.699
57290SOL    HW273703   1.272   0.296   7.664
57291SOL     OW73704   9.845   0.251   3.724
57291SOL    HW173705   9.928   0.208   3.746
57291SOL    HW273706   9.791   0.182   3.687
57292SOL     OW73707   8.012   7.819  14.525
57292SOL    HW173708   8.105   7.824  14.501
57292SOL    HW273709   7.991   7.726  14.518
57293SOL     OW73710   1.609   0.393   5.123
57293SOL    HW173711   1.692   0.346   5.114
57293SOL    HW273712   1.547   0.339   5.074
57294SOL     OW73713   2.953  13.247  11.246
57294SOL    HW173714   2.983  13.239  11.336
57294SOL    HW273715   2.931  13.339  11.236
57295SOL     OW73716   0.611  11.022   1.017
57295SOL    HW173717   0.706  11.016   1.007
57295SOL    HW273718   0.575  10.967   0.947
57296SOL     OW73719  11.108  11.847   6.967
57296SOL    HW173720  11.128  11.757   6.939
57296SOL    HW273721  11.013  11.853   6.963
57297SOL     OW73722   0.212   3.265   9.180
57297SOL    HW173723   0.236   3.355   9.199
57297SOL    HW273724   0.182   3.230   9.265
57298SOL     OW73725  11.445  12.311  11.638
57298SOL    HW173726  11.513  12.369  11.671
57298SOL    HW273727  11.481  12.274  11.558
57299SOL     OW73728   7.490  12.361   5.503
57299SOL    HW173729   7.433  12.438   5.501
57299SOL    HW273730   7.457  12.306   5.432
57300SOL     OW73731  10.329  11.110   9.807
57300SOL    HW173732  10.340  11.021   9.775
57300SOL    HW273733  10.250  11.142   9.765
57301SOL     OW73734   6.903  14.077   3.418
57301SOL    HW173735   6.855  14.159   3.417
57301SOL    HW273736   6.870  14.030   3.494
57302SOL     OW73737   0.966   2.493  14.706
57302SOL    HW173738   1.028   2.565  14.693
57302SOL    HW273739   0.935   2.471  14.617
57303SOL     OW73740   5.032   2.917   0.042
57303SOL    HW173741   5.044   2.984   0.110
57303SOL    HW273742   4.972   2.853   0.081
57304SOL     OW73743   3.975  11.444  14.111
57304SOL    HW173744   3.896  11.484  14.073
57304SOL    HW273745   3.945  11.358  14.141
57305SOL     OW73746   5.036   8.622   5.946
57305SOL    HW173747   4.957   8.676   5.943
57305SOL    HW273748   5.023   8.556   5.879
57306SOL     OW73749   6.315  10.143   3.446
57306SOL    HW173750   6.254  10.147   3.373
57306SOL    HW273751   6.356  10.230   3.447
57307SOL     OW73752  13.337   4.392  13.534
57307SOL    HW173753  13.258   4.347  13.503
57307SOL    HW273754  13.403   4.374  13.467
57308SOL     OW73755   7.203  11.201  13.645
57308SOL    HW173756   7.285  11.240  13.675
57308SOL    HW273757   7.226  11.153  13.566
57309SOL     OW73758   2.295   9.674   3.267
57309SOL    HW173759   2.241   9.637   3.197
57309SOL    HW273760   2.268   9.627   3.346
57310SOL     OW73761   3.958   5.614   6.534
57310SOL    HW173762   3.985   5.524   6.553
57310SOL    HW273763   4.026   5.649   6.477
57311SOL     OW73764  11.453  10.097   7.128
57311SOL    HW173765  11.514  10.144   7.072
57311SOL    HW273766  11.500  10.084   7.210
57312SOL     OW73767   2.900   5.991   2.266
57312SOL    HW173768   2.925   6.036   2.186
57312SOL    HW273769   2.808   6.014   2.279
57313SOL     OW73770  10.358   1.569   1.480
57313SOL    HW173771  10.364   1.528   1.394
57313SOL    HW273772  10.401   1.507   1.539
57314SOL     OW73773   9.136   2.364   8.426
57314SOL    HW173774   9.091   2.286   8.456
57314SOL    HW273775   9.124   2.428   8.497
57315SOL     OW73776  10.882  13.572   6.107
57315SOL    HW173777  10.828  13.522   6.045
57315SOL    HW273778  10.902  13.510   6.177
57316SOL     OW73779   3.344   1.026   7.542
57316SOL    HW173780   3.401   1.094   7.576
57316SOL    HW273781   3.277   1.015   7.610
57317SOL     OW73782   1.430   3.931   8.299
57317SOL    HW173783   1.363   3.863   8.288
57317SOL    HW273784   1.444   3.935   8.393
57318SOL     OW73785   1.488   2.690   0.584
57318SOL    HW173786   1.512   2.714   0.673
57318SOL    HW273787   1.570   2.697   0.534
57319SOL     OW73788  11.454   9.161   8.682
57319SOL    HW173789  11.435   9.139   8.591
57319SOL    HW273790  11.391   9.111   8.733
57320SOL     OW73791   0.670  13.502   0.308
57320SOL    HW173792   0.720  13.569   0.356
57320SOL    HW273793   0.720  13.422   0.320
57321SOL     OW73794   6.125  11.741   1.127
57321SOL    HW173795   6.129  11.741   1.222
57321SOL    HW273796   6.201  11.793   1.099
57322SOL     OW73797   7.922   3.780   1.629
57322SOL    HW173798   7.901   3.725   1.705
57322SOL    HW273799   7.992   3.734   1.584
57323SOL     OW73800   5.626   5.812  13.290
57323SOL    HW173801   5.668   5.898  13.296
57323SOL    HW273802   5.609   5.800  13.197
57324SOL     OW73803   6.628   7.484  14.481
57324SOL    HW173804   6.539   7.459  14.455
57324SOL    HW273805   6.677   7.401  14.481
57325SOL     OW73806  10.277   1.561  14.087
57325SOL    HW173807  10.248   1.500  14.156
57325SOL    HW273808  10.296   1.505  14.012
57326SOL     OW73809  13.770   5.661  11.202
57326SOL    HW173810  13.860   5.677  11.173
57326SOL    HW273811  13.777   5.653  11.297
57327SOL     OW73812   5.284   9.408  11.436
57327SOL    HW173813   5.205   9.457  11.412
57327SOL    HW273814   5.258   9.358  11.513
57328SOL     OW73815  14.039   5.542  11.650
57328SOL    HW173816  14.110   5.541  11.586
57328SOL    HW273817  14.064   5.475  11.714
57329SOL     OW73818   4.835   2.588   2.072
57329SOL    HW173819   4.813   2.606   2.164
57329SOL    HW273820   4.924   2.622   2.062
57330SOL     OW73821   9.096   2.613  13.219
57330SOL    HW173822   9.145   2.622  13.301
57330SOL    HW273823   9.017   2.666  13.232
57331SOL     OW73824  10.428  11.875   7.450
57331SOL    HW173825  10.431  11.879   7.354
57331SOL    HW273826  10.343  11.913   7.473
57332SOL     OW73827   4.115  11.431  11.904
57332SOL    HW173828   4.115  11.418  11.809
57332SOL    HW273829   4.116  11.343  11.940
57333SOL     OW73830  12.507   1.970   7.605
57333SOL    HW173831  12.521   1.875   7.612
57333SOL    HW273832  12.569   1.999   7.539
57334SOL     OW73833   6.549   9.908   7.183
57334SOL    HW173834   6.477   9.923   7.121
57334SOL    HW273835   6.555   9.989   7.233
57335SOL     OW73836   8.143  12.439  11.453
57335SOL    HW173837   8.158  12.491  11.532
57335SOL    HW273838   8.050  12.420  11.454
57336SOL     OW73839   2.741   7.741   3.526
57336SOL    HW173840   2.773   7.824   3.490
57336SOL    HW273841   2.701   7.697   3.451
57337SOL     OW73842   0.993  11.403   4.934
57337SOL    HW173843   0.936  11.365   5.001
57337SOL    HW273844   1.036  11.476   4.978
57338SOL     OW73845   0.831  13.619   5.218
57338SOL    HW173846   0.830  13.617   5.313
57338SOL    HW273847   0.756  13.673   5.194
57339SOL     OW73848   4.202   1.467   1.707
57339SOL    HW173849   4.185   1.498   1.796
57339SOL    HW273850   4.146   1.390   1.697
57340SOL     OW73851   9.222   4.525   7.221
57340SOL    HW173852   9.180   4.439   7.224
57340SOL    HW273853   9.153   4.584   7.190
57341SOL     OW73854   0.534  12.946  10.934
57341SOL    HW173855   0.500  12.918  10.849
57341SOL    HW273856   0.457  12.948  10.991
57342SOL     OW73857  10.875   8.737   1.282
57342SOL    HW173858  10.952   8.696   1.243
57342SOL    HW273859  10.907   8.818   1.320
57343SOL     OW73860   7.515   0.175   5.576
57343SOL    HW173861   7.486   0.091   5.540
57343SOL    HW273862   7.494   0.239   5.508
57344SOL     OW73863   8.053   1.137   5.826
57344SOL    HW173864   8.009   1.052   5.836
57344SOL    HW273865   8.121   1.136   5.894
57345SOL     OW73866  11.071  14.484  12.478
57345SOL    HW173867  10.993  14.455  12.431
57345SOL    HW273868  11.068  14.437  12.561
57346SOL     OW73869   5.771  11.097  14.359
57346SOL    HW173870   5.856  11.133  14.334
57346SOL    HW273871   5.789  11.005  14.380
57347SOL     OW73872   3.017   2.383   2.743
57347SOL    HW173873   3.001   2.335   2.662
57347SOL    HW273874   3.113   2.389   2.748
57348SOL     OW73875  14.664   8.638   8.402
57348SOL    HW173876  14.602   8.609   8.335
57348SOL    HW273877  14.681   8.561   8.455
57349SOL     OW73878   6.876   0.051   8.903
57349SOL    HW173879   6.847  14.861   8.841
57349SOL    HW273880   6.934   0.004   8.964
57350SOL     OW73881   4.988   3.364   9.087
57350SOL    HW173882   5.026   3.422   9.021
57350SOL    HW273883   4.929   3.306   9.038
57351SOL     OW73884   4.409   5.952  13.800
57351SOL    HW173885   4.382   6.042  13.820
57351SOL    HW273886   4.487   5.938  13.855
57352SOL     OW73887  12.871  14.251  10.559
57352SOL    HW173888  12.943  14.196  10.526
57352SOL    HW273889  12.794  14.221  10.511
57353SOL     OW73890   7.432   3.444   8.677
57353SOL    HW173891   7.528   3.451   8.674
57353SOL    HW273892   7.415   3.351   8.664
57354SOL     OW73893   3.652  10.780   3.151
57354SOL    HW173894   3.610  10.834   3.084
57354SOL    HW273895   3.712  10.724   3.103
57355SOL     OW73896   5.356   6.286   2.975
57355SOL    HW173897   5.324   6.270   2.886
57355SOL    HW273898   5.338   6.378   2.991
57356SOL     OW73899   2.531   4.862  10.033
57356SOL    HW173900   2.510   4.776   9.996
57356SOL    HW273901   2.510   4.924   9.963
57357SOL     OW73902   4.068  10.544  11.244
57357SOL    HW173903   4.092  10.457  11.277
57357SOL    HW273904   4.099  10.605  11.310
57358SOL     OW73905   2.021   8.841  14.788
57358SOL    HW173906   1.969   8.840  14.707
57358SOL    HW273907   2.093   8.900  14.769
57359SOL     OW73908   8.026  13.622   6.236
57359SOL    HW173909   8.020  13.545   6.293
57359SOL    HW273910   8.119  13.636   6.223
57360SOL     OW73911  10.877   4.216   3.987
57360SOL    HW173912  10.902   4.241   3.898
57360SOL    HW273913  10.855   4.298   4.030
57361SOL     OW73914  14.210   3.896   5.843
57361SOL    HW173915  14.153   3.966   5.811
57361SOL    HW273916  14.196   3.824   5.781
57362SOL     OW73917   7.525   1.541  14.680
57362SOL    HW173918   7.565   1.627  14.691
57362SOL    HW273919   7.573   1.501  14.608
57363SOL     OW73920   6.501  10.225   3.759
57363SOL    HW173921   6.441  10.245   3.831
57363SOL    HW273922   6.491  10.130   3.745
57364SOL     OW73923  13.342  12.979  13.998
57364SOL    HW173924  13.296  13.049  14.045
57364SOL    HW273925  13.338  12.904  14.058
57365SOL     OW73926  10.422  12.073   3.078
57365SOL    HW173927  10.382  12.147   3.124
57365SOL    HW273928  10.403  12.090   2.985
57366SOL     OW73929   8.101   6.934  12.583
57366SOL    HW173930   8.100   6.986  12.663
57366SOL    HW273931   8.151   6.855  12.607
57367SOL     OW73932  12.222  11.305   4.422
57367SOL    HW173933  12.255  11.274   4.338
57367SOL    HW273934  12.269  11.387   4.438
57368SOL     OW73935   2.596   2.059   1.560
57368SOL    HW173936   2.610   2.090   1.471
57368SOL    HW273937   2.681   2.024   1.587
57369SOL     OW73938   4.522   9.341   3.247
57369SOL    HW173939   4.526   9.267   3.186
57369SOL    HW273940   4.607   9.339   3.292
57370SOL     OW73941   4.198  10.129   2.175
57370SOL    HW173942   4.267  10.063   2.170
57370SOL    HW273943   4.245  10.213   2.176
57371SOL     OW73944   1.196   3.914  10.317
57371SOL    HW173945   1.153   3.881  10.237
57371SOL    HW273946   1.259   3.979  10.286
57372SOL     OW73947  13.467   7.156   2.998
57372SOL    HW173948  13.389   7.171   3.050
57372SOL    HW273949  13.528   7.114   3.058
57373SOL     OW73950  10.071   0.177   9.540
57373SOL    HW173951  10.090   0.096   9.588
57373SOL    HW273952  10.038   0.148   9.455
57374SOL     OW73953   5.449  11.319   6.428
57374SOL    HW173954   5.476  11.320   6.520
57374SOL    HW273955   5.477  11.234   6.395
57375SOL     OW73956  12.132   4.136  12.435
57375SOL    HW173957  12.167   4.053  12.467
57375SOL    HW273958  12.193   4.203  12.468
57376SOL     OW73959   2.101   7.244  13.827
57376SOL    HW173960   2.182   7.193  13.831
57376SOL    HW273961   2.068   7.243  13.917
57377SOL     OW73962  10.397   5.863   6.011
57377SOL    HW173963  10.456   5.939   6.017
57377SOL    HW273964  10.317   5.898   5.972
57378SOL     OW73965  10.270   4.371   3.518
57378SOL    HW173966  10.192   4.341   3.472
57378SOL    HW273967  10.264   4.332   3.605
57379SOL     OW73968  11.324   6.328  11.185
57379SOL    HW173969  11.354   6.324  11.094
57379SOL    HW273970  11.230   6.345  11.178
57380SOL     OW73971   0.593   9.844   1.258
57380SOL    HW173972   0.508   9.804   1.275
57380SOL    HW273973   0.622   9.877   1.343
57381SOL     OW73974   8.794   6.237   0.934
57381SOL    HW173975   8.717   6.221   0.989
57381SOL    HW273976   8.791   6.331   0.916
57382SOL     OW73977   4.139   7.825   7.064
57382SOL    HW173978   4.102   7.760   7.124
57382SOL    HW273979   4.093   7.906   7.086
57383SOL     OW73980  13.667   2.698  12.785
57383SOL    HW173981  13.757   2.682  12.759
57383SOL    HW273982  13.639   2.616  12.827
57384SOL     OW73983  10.576   2.350   9.618
57384SOL    HW173984  10.539   2.414   9.678
57384SOL    HW273985  10.503   2.324   9.562
57385SOL     OW73986  10.620   2.517   5.194
57385SOL    HW173987  10.579   2.602   5.209
57385SOL    HW273988  10.588   2.461   5.264
57386SOL     OW73989   3.088   6.473  11.871
57386SOL    HW173990   3.019   6.406  11.874
57386SOL    HW273991   3.121   6.477  11.960
57387SOL     OW73992   4.951   4.944   9.290
57387SOL    HW173993   4.974   4.854   9.312
57387SOL    HW273994   4.876   4.964   9.346
57388SOL     OW73995  10.117  10.750  10.297
57388SOL    HW173996  10.187  10.790  10.348
57388SOL    HW273997  10.162  10.697  10.231
57389SOL     OW73998   0.419   8.142   5.295
57389SOL    HW173999   0.407   8.127   5.389
57389SOL    HW274000   0.512   8.162   5.286
57390SOL     OW74001  13.410   7.993   6.352
57390SOL    HW174002  13.390   8.006   6.445
57390SOL    HW274003  13.401   7.899   6.338
57391SOL     OW74004  10.855   2.799   8.684
57391SOL    HW174005  10.768   2.774   8.653
57391SOL    HW274006  10.844   2.885   8.723
57392SOL     OW74007   4.296  14.812   2.351
57392SOL    HW174008   4.384  14.838   2.377
57392SOL    HW274009   4.301  14.717   2.342
57393SOL     OW74010   8.331   6.615   0.371
57393SOL    HW174011   8.362   6.587   0.285
57393SOL    HW274012   8.268   6.548   0.397
57394SOL     OW74013   6.604  13.571  13.748
57394SOL    HW174014   6.545  13.514  13.798
57394SOL    HW274015   6.606  13.653  13.797
57395SOL     OW74016  10.225  14.598  10.439
57395SOL    HW174017  10.238  14.688  10.411
57395SOL    HW274018  10.214  14.604  10.534
57396SOL     OW74019  12.335   6.726   5.761
57396SOL    HW174020  12.421   6.765   5.777
57396SOL    HW274021  12.276   6.772   5.821
57397SOL     OW74022   3.417   1.327  14.639
57397SOL    HW174023   3.326   1.301  14.657
57397SOL    HW274024   3.468   1.286  14.709
57398SOL     OW74025   6.945   3.937   1.884
57398SOL    HW174026   6.957   3.964   1.976
57398SOL    HW274027   6.990   4.005   1.834
57399SOL     OW74028  14.353   8.282   5.496
57399SOL    HW174029  14.402   8.350   5.542
57399SOL    HW274030  14.418   8.241   5.439
57400SOL     OW74031   2.430   5.116  12.711
57400SOL    HW174032   2.362   5.087  12.650
57400SOL    HW274033   2.394   5.096  12.798
57401SOL     OW74034   2.261  11.607  13.922
57401SOL    HW174035   2.184  11.659  13.897
57401SOL    HW274036   2.334  11.669  13.917
57402SOL     OW74037   6.376   6.814  10.533
57402SOL    HW174038   6.329   6.817  10.616
57402SOL    HW274039   6.452   6.871  10.547
57403SOL     OW74040   2.946  13.297   6.436
57403SOL    HW174041   2.872  13.297   6.375
57403SOL    HW274042   2.987  13.212   6.423
57404SOL     OW74043  11.107   7.866  11.376
57404SOL    HW174044  11.201   7.849  11.385
57404SOL    HW274045  11.066   7.809  11.441
57405SOL     OW74046  14.438   1.116   2.319
57405SOL    HW174047  14.367   1.177   2.337
57405SOL    HW274048  14.481   1.149   2.240
57406SOL     OW74049  13.486   7.503   9.131
57406SOL    HW174050  13.430   7.555   9.189
57406SOL    HW274051  13.553   7.466   9.189
57407SOL     OW74052   7.869   1.428  10.638
57407SOL    HW174053   7.952   1.380  10.636
57407SOL    HW274054   7.871   1.482  10.558
57408SOL     OW74055   3.286   2.957   2.372
57408SOL    HW174056   3.247   2.874   2.346
57408SOL    HW274057   3.358   2.933   2.430
57409SOL     OW74058   9.452   3.368   9.360
57409SOL    HW174059   9.489   3.325   9.436
57409SOL    HW274060   9.373   3.318   9.340
57410SOL     OW74061   2.678  12.899   3.175
57410SOL    HW174062   2.753  12.842   3.160
57410SOL    HW274063   2.654  12.883   3.266
57411SOL     OW74064  11.917   8.309   6.124
57411SOL    HW174065  11.851   8.361   6.170
57411SOL    HW274066  12.000   8.332   6.166
57412SOL     OW74067   5.074  11.497   7.929
57412SOL    HW174068   5.042  11.495   8.019
57412SOL    HW274069   5.067  11.407   7.899
57413SOL     OW74070   8.800   4.507  10.382
57413SOL    HW174071   8.880   4.533  10.428
57413SOL    HW274072   8.761   4.441  10.440
57414SOL     OW74073   9.607   4.464   5.742
57414SOL    HW174074   9.679   4.496   5.797
57414SOL    HW274075   9.599   4.371   5.765
57415SOL     OW74076   8.215   5.639   6.232
57415SOL    HW174077   8.160   5.579   6.182
57415SOL    HW274078   8.160   5.666   6.306
57416SOL     OW74079   7.778  14.843   3.966
57416SOL    HW174080   7.691  14.875   3.988
57416SOL    HW274081   7.790  14.866   3.874
57417SOL     OW74082   3.602  10.041   9.566
57417SOL    HW174083   3.605  10.004   9.478
57417SOL    HW274084   3.638  10.129   9.556
57418SOL     OW74085   6.743   6.554   5.395
57418SOL    HW174086   6.736   6.557   5.300
57418SOL    HW274087   6.654   6.536   5.425
57419SOL     OW74088  14.454   1.491   0.681
57419SOL    HW174089  14.509   1.506   0.758
57419SOL    HW274090  14.511   1.511   0.606
57420SOL     OW74091   1.502  11.701   2.427
57420SOL    HW174092   1.437  11.642   2.390
57420SOL    HW274093   1.564  11.716   2.355
57421SOL     OW74094   4.788  11.859   1.643
57421SOL    HW174095   4.757  11.924   1.579
57421SOL    HW274096   4.764  11.896   1.728
57422SOL     OW74097  13.231   2.996   2.999
57422SOL    HW174098  13.225   2.982   2.904
57422SOL    HW274099  13.209   3.089   3.011
57423SOL     OW74100   4.653  12.595   4.655
57423SOL    HW174101   4.704  12.577   4.576
57423SOL    HW274102   4.681  12.528   4.718
57424SOL     OW74103  14.541   8.186   6.306
57424SOL    HW174104  14.538   8.232   6.391
57424SOL    HW274105  14.453   8.149   6.295
57425SOL     OW74106   2.852   1.036  11.091
57425SOL    HW174107   2.947   1.025  11.096
57425SOL    HW274108   2.817   0.972  11.153
57426SOL     OW74109   4.258  14.711   5.540
57426SOL    HW174110   4.275  14.722   5.634
57426SOL    HW274111   4.303  14.630   5.517
57427SOL     OW74112  11.693  12.456   4.132
57427SOL    HW174113  11.779  12.471   4.172
57427SOL    HW274114  11.689  12.361   4.121
57428SOL     OW74115  12.267   9.303   7.774
57428SOL    HW174116  12.245   9.267   7.860
57428SOL    HW274117  12.240   9.394   7.778
57429SOL     OW74118   2.425   8.486  12.054
57429SOL    HW174119   2.516   8.456  12.054
57429SOL    HW274120   2.407   8.509  11.963
57430SOL     OW74121   0.596   1.577  12.043
57430SOL    HW174122   0.674   1.631  12.054
57430SOL    HW274123   0.610   1.502  12.101
57431SOL     OW74124  12.136   9.600   8.783
57431SOL    HW174125  12.074   9.663   8.746
57431SOL    HW274126  12.210   9.653   8.814
57432SOL     OW74127  10.939   0.463  13.340
57432SOL    HW174128  11.020   0.431  13.302
57432SOL    HW274129  10.966   0.531  13.401
57433SOL     OW74130  12.926   7.575   8.967
57433SOL    HW174131  12.911   7.547   9.058
57433SOL    HW274132  12.993   7.643   8.973
57434SOL     OW74133   4.981   4.268   2.998
57434SOL    HW174134   4.964   4.271   2.904
57434SOL    HW274135   5.011   4.356   3.020
57435SOL     OW74136   8.254   1.198   3.880
57435SOL    HW174137   8.240   1.190   3.786
57435SOL    HW274138   8.245   1.292   3.897
57436SOL     OW74139   1.969   6.536   4.534
57436SOL    HW174140   1.879   6.563   4.520
57436SOL    HW274141   2.003   6.520   4.446
57437SOL     OW74142   1.783  12.936  14.404
57437SOL    HW174143   1.813  12.984  14.328
57437SOL    HW274144   1.757  12.850  14.369
57438SOL     OW74145   6.637   4.486   9.346
57438SOL    HW174146   6.590   4.403   9.344
57438SOL    HW274147   6.647   4.506   9.439
57439SOL     OW74148   6.385  11.798   9.975
57439SOL    HW174149   6.425  11.714   9.997
57439SOL    HW274150   6.371  11.841  10.059
57440SOL     OW74151  14.374  13.283  14.588
57440SOL    HW174152  14.464  13.263  14.562
57440SOL    HW274153  14.372  13.268  14.682
57441SOL     OW74154   8.277  10.649  12.354
57441SOL    HW174155   8.356  10.700  12.339
57441SOL    HW274156   8.297  10.594  12.430
57442SOL     OW74157   9.676  11.657   6.568
57442SOL    HW174158   9.722  11.737   6.593
57442SOL    HW274159   9.606  11.687   6.510
57443SOL     OW74160  14.310   0.261  11.459
57443SOL    HW174161  14.331   0.237  11.549
57443SOL    HW274162  14.368   0.207  11.405
57444SOL     OW74163  11.494   8.664   8.580
57444SOL    HW174164  11.493   8.726   8.507
57444SOL    HW274165  11.518   8.717   8.656
57445SOL     OW74166  10.532   5.688  13.157
57445SOL    HW174167  10.518   5.751  13.087
57445SOL    HW274168  10.610   5.721  13.203
57446SOL     OW74169   3.081  10.588   1.893
57446SOL    HW174170   3.035  10.504   1.902
57446SOL    HW274171   3.173  10.563   1.883
57447SOL     OW74172   5.532   4.822  13.164
57447SOL    HW174173   5.625   4.804  13.155
57447SOL    HW274174   5.525   4.918  13.163
57448SOL     OW74175   0.537  10.321  10.166
57448SOL    HW174176   0.450  10.361  10.162
57448SOL    HW274177   0.521  10.229  10.186
57449SOL     OW74178   8.781   6.764  14.217
57449SOL    HW174179   8.809   6.678  14.184
57449SOL    HW274180   8.746   6.746  14.304
57450SOL     OW74181   0.116   5.610   0.451
57450SOL    HW174182   0.026   5.578   0.458
57450SOL    HW274183   0.155   5.556   0.383
57451SOL     OW74184   9.240  11.960   3.453
57451SOL    HW174185   9.203  11.914   3.378
57451SOL    HW274186   9.323  11.914   3.471
57452SOL     OW74187   1.813   6.958   4.129
57452SOL    HW174188   1.797   6.909   4.048
57452SOL    HW274189   1.791   6.895   4.199
57453SOL     OW74190   1.632  11.220  14.300
57453SOL    HW174191   1.659  11.311  14.312
57453SOL    HW274192   1.682  11.190  14.224
57454SOL     OW74193  12.256   0.462  10.494
57454SOL    HW174194  12.334   0.412  10.468
57454SOL    HW274195  12.258   0.461  10.590
57455SOL     OW74196   7.377  14.346   0.945
57455SOL    HW174197   7.337  14.391   0.870
57455SOL    HW274198   7.468  14.332   0.918
57456SOL     OW74199  12.874   0.970   8.449
57456SOL    HW174200  12.787   1.003   8.428
57456SOL    HW274201  12.903   0.926   8.369
57457SOL     OW74202   1.688   9.883  12.125
57457SOL    HW174203   1.731   9.810  12.081
57457SOL    HW274204   1.601   9.887  12.085
57458SOL     OW74205  11.568   5.452   4.360
57458SOL    HW174206  11.659   5.478   4.351
57458SOL    HW274207  11.519   5.534   4.368
57459SOL     OW74208   2.999  13.060   5.444
57459SOL    HW174209   2.995  13.154   5.464
57459SOL    HW274210   3.016  13.057   5.350
57460SOL     OW74211   6.482  11.018   5.621
57460SOL    HW174212   6.562  10.992   5.576
57460SOL    HW274213   6.413  10.967   5.579
57461SOL     OW74214  11.923   0.905  10.137
57461SOL    HW174215  11.838   0.861  10.138
57461SOL    HW274216  11.900   0.998  10.133
57462SOL     OW74217   1.898   7.932  12.578
57462SOL    HW174218   1.820   7.908  12.627
57462SOL    HW274219   1.884   8.024  12.556
57463SOL     OW74220   2.567  11.786   3.707
57463SOL    HW174221   2.640  11.747   3.755
57463SOL    HW274222   2.526  11.713   3.661
57464SOL     OW74223   6.075   6.355   9.669
57464SOL    HW174224   6.046   6.390   9.753
57464SOL    HW274225   6.141   6.289   9.693
57465SOL     OW74226  10.223   9.108   3.993
57465SOL    HW174227  10.284   9.119   3.919
57465SOL    HW274228  10.257   9.166   4.061
57466SOL     OW74229   1.884   7.715   6.606
57466SOL    HW174230   1.807   7.672   6.569
57466SOL    HW274231   1.852   7.761   6.684
57467SOL     OW74232  12.321   3.735   0.333
57467SOL    HW174233  12.246   3.761   0.387
57467SOL    HW274234  12.294   3.757   0.244
57468SOL     OW74235   6.888  14.525   7.153
57468SOL    HW174236   6.925  14.612   7.136
57468SOL    HW274237   6.830  14.539   7.228
57469SOL     OW74238  14.080   6.799   9.826
57469SOL    HW174239  14.057   6.809   9.919
57469SOL    HW274240  14.118   6.884   9.802
57470SOL     OW74241  11.732  13.930   9.137
57470SOL    HW174242  11.732  13.958   9.045
57470SOL    HW274243  11.644  13.897   9.153
57471SOL     OW74244   9.013   1.177  11.180
57471SOL    HW174245   9.051   1.235  11.115
57471SOL    HW274246   9.081   1.166  11.246
57472SOL     OW74247   3.501  12.088   2.842
57472SOL    HW174248   3.415  12.053   2.862
57472SOL    HW274249   3.488  12.142   2.764
57473SOL     OW74250   8.783  10.216   0.234
57473SOL    HW174251   8.744  10.303   0.239
57473SOL    HW274252   8.751  10.170   0.311
57474SOL     OW74253  11.794   0.039   7.821
57474SOL    HW174254  11.796   0.130   7.851
57474SOL    HW274255  11.875   0.001   7.854
57475SOL     OW74256   5.152  14.622   8.077
57475SOL    HW174257   5.141  14.699   8.021
57475SOL    HW274258   5.112  14.646   8.160
57476SOL     OW74259   9.330  10.952   3.441
57476SOL    HW174260   9.258  10.918   3.387
57476SOL    HW274261   9.404  10.959   3.380
57477SOL     OW74262   3.635  10.835   5.456
57477SOL    HW174263   3.708  10.870   5.406
57477SOL    HW274264   3.619  10.900   5.524
57478SOL     OW74265   8.125  10.277   1.594
57478SOL    HW174266   8.132  10.212   1.663
57478SOL    HW274267   8.142  10.229   1.513
57479SOL     OW74268  13.521   7.052  10.385
57479SOL    HW174269  13.474   7.121  10.431
57479SOL    HW274270  13.491   7.059  10.295
57480SOL     OW74271  13.815   5.544   6.580
57480SOL    HW174272  13.879   5.610   6.553
57480SOL    HW274273  13.857   5.499   6.653
57481SOL     OW74274   7.808   8.858  11.118
57481SOL    HW174275   7.902   8.874  11.112
57481SOL    HW274276   7.800   8.771  11.157
57482SOL     OW74277   7.815   2.933  11.996
57482SOL    HW174278   7.895   2.887  12.022
57482SOL    HW274279   7.746   2.893  12.049
57483SOL     OW74280  12.358  11.763   6.824
57483SOL    HW174281  12.372  11.802   6.737
57483SOL    HW274282  12.412  11.816   6.883
57484SOL     OW74283  11.276   8.352   9.432
57484SOL    HW174284  11.221   8.409   9.486
57484SOL    HW274285  11.365   8.386   9.444
57485SOL     OW74286   0.038   9.951  11.995
57485SOL    HW174287  14.864   9.948  11.913
57485SOL    HW274288   0.116   9.899  11.979
57486SOL     OW74289  13.401   6.149  10.007
57486SOL    HW174290  13.345   6.169   9.932
57486SOL    HW274291  13.472   6.096   9.971
57487SOL     OW74292   4.826  11.278  14.428
57487SOL    HW174293   4.858  11.189  14.440
57487SOL    HW274294   4.901  11.333  14.450
57488SOL     OW74295   5.716   2.262   8.020
57488SOL    HW174296   5.635   2.242   7.975
57488SOL    HW274297   5.783   2.258   7.952
57489SOL     OW74298   6.635   6.592  14.833
57489SOL    HW174299   6.656   6.658   0.023
57489SOL    HW274300   6.575   6.636  14.773
57490SOL     OW74301   9.070  10.671   8.038
57490SOL    HW174302   9.047  10.633   8.123
57490SOL    HW274303   9.029  10.614   7.974
57491SOL     OW74304   0.902  12.658   7.884
57491SOL    HW174305   0.818  12.700   7.867
57491SOL    HW274306   0.892  12.569   7.849
57492SOL     OW74307   3.742  11.621   1.093
57492SOL    HW174308   3.825  11.666   1.079
57492SOL    HW274309   3.746  11.545   1.035
57493SOL     OW74310  14.150   7.567   9.746
57493SOL    HW174311  14.109   7.547   9.662
57493SOL    HW274312  14.242   7.585   9.724
57494SOL     OW74313   6.099   7.951   5.133
57494SOL    HW174314   6.079   7.872   5.182
57494SOL    HW274315   6.014   7.991   5.114
57495SOL     OW74316   2.396   3.063  12.627
57495SOL    HW174317   2.418   2.970  12.630
57495SOL    HW274318   2.455   3.104  12.690
57496SOL     OW74319   9.066  11.110   2.105
57496SOL    HW174320   8.999  11.045   2.084
57496SOL    HW274321   9.069  11.113   2.200
57497SOL     OW74322   1.024  11.816   0.702
57497SOL    HW174323   0.928  11.815   0.703
57497SOL    HW274324   1.046  11.860   0.619
57498SOL     OW74325   5.961   1.850   3.721
57498SOL    HW174326   5.912   1.822   3.799
57498SOL    HW274327   5.893   1.868   3.656
57499SOL     OW74328  14.003   3.684   2.259
57499SOL    HW174329  13.989   3.628   2.183
57499SOL    HW274330  13.982   3.628   2.334
57500SOL     OW74331   9.762   9.555   1.425
57500SOL    HW174332   9.814   9.633   1.441
57500SOL    HW274333   9.679   9.571   1.471
57501SOL     OW74334   5.507   0.501   6.113
57501SOL    HW174335   5.504   0.465   6.024
57501SOL    HW274336   5.494   0.595   6.102
57502SOL     OW74337  11.597  14.340   5.044
57502SOL    HW174338  11.648  14.373   5.118
57502SOL    HW274339  11.620  14.248   5.038
57503SOL     OW74340  12.683   4.422   7.221
57503SOL    HW174341  12.633   4.488   7.268
57503SOL    HW274342  12.715   4.467   7.143
57504SOL     OW74343   9.090  11.244  11.641
57504SOL    HW174344   9.165  11.214  11.589
57504SOL    HW274345   9.082  11.337  11.620
57505SOL     OW74346  10.023  12.014  10.404
57505SOL    HW174347  10.047  12.027  10.312
57505SOL    HW274348   9.938  11.971  10.401
57506SOL     OW74349  11.485  10.094   1.145
57506SOL    HW174350  11.547  10.162   1.171
57506SOL    HW274351  11.523  10.013   1.181
57507SOL     OW74352   7.484   8.514   3.789
57507SOL    HW174353   7.469   8.465   3.871
57507SOL    HW274354   7.469   8.605   3.813
57508SOL     OW74355  13.576   8.652   8.365
57508SOL    HW174356  13.505   8.652   8.301
57508SOL    HW274357  13.601   8.560   8.373
57509SOL     OW74358   9.759  14.587  13.678
57509SOL    HW174359   9.812  14.527  13.626
57509SOL    HW274360   9.749  14.543  13.762
57510SOL     OW74361   4.887   8.426   5.055
57510SOL    HW174362   4.912   8.462   5.140
57510SOL    HW274363   4.969   8.423   5.006
57511SOL     OW74364  13.032  12.417   4.194
57511SOL    HW174365  12.969  12.348   4.175
57511SOL    HW274366  13.113  12.388   4.151
57512SOL     OW74367   9.474   1.547  10.795
57512SOL    HW174368   9.533   1.621  10.810
57512SOL    HW274369   9.486   1.491  10.871
57513SOL     OW74370   7.300   0.130   9.007
57513SOL    HW174371   7.352   0.180   9.071
57513SOL    HW274372   7.359   0.062   8.976
57514SOL     OW74373  11.399   6.399   6.334
57514SOL    HW174374  11.329   6.356   6.285
57514SOL    HW274375  11.466   6.332   6.344
57515SOL     OW74376  12.626   5.176   3.161
57515SOL    HW174377  12.561   5.213   3.221
57515SOL    HW274378  12.676   5.115   3.215
57516SOL     OW74379  12.230   7.239  13.449
57516SOL    HW174380  12.294   7.180  13.407
57516SOL    HW274381  12.278   7.278  13.522
57517SOL     OW74382   5.610   0.608  13.391
57517SOL    HW174383   5.650   0.644  13.312
57517SOL    HW274384   5.623   0.514  13.384
57518SOL     OW74385  11.491   7.176  14.780
57518SOL    HW174386  11.405   7.151  14.815
57518SOL    HW274387  11.533   7.094  14.757
57519SOL     OW74388   5.494   3.648   7.797
57519SOL    HW174389   5.519   3.716   7.859
57519SOL    HW274390   5.459   3.577   7.852
57520SOL     OW74391   3.402   1.459  12.329
57520SOL    HW174392   3.411   1.534  12.270
57520SOL    HW274393   3.488   1.417  12.326
57521SOL     OW74394  14.745   3.665  11.873
57521SOL    HW174395  14.745   3.572  11.848
57521SOL    HW274396  14.669   3.675  11.930
57522SOL     OW74397   4.883   2.588  11.553
57522SOL    HW174398   4.952   2.523  11.564
57522SOL    HW274399   4.928   2.666  11.521
57523SOL     OW74400   8.376  11.721   4.232
57523SOL    HW174401   8.388  11.816   4.225
57523SOL    HW274402   8.330  11.697   4.151
57524SOL     OW74403   3.086  11.711  10.178
57524SOL    HW174404   3.150  11.715  10.107
57524SOL    HW274405   3.065  11.618  10.185
57525SOL     OW74406   5.215   9.714   6.598
57525SOL    HW174407   5.285   9.656   6.625
57525SOL    HW274408   5.247   9.754   6.517
57526SOL     OW74409   1.659   2.295   2.593
57526SOL    HW174410   1.751   2.289   2.617
57526SOL    HW274411   1.658   2.335   2.507
57527SOL     OW74412  10.781  12.545   4.973
57527SOL    HW174413  10.701  12.533   5.024
57527SOL    HW274414  10.755  12.528   4.882
57528SOL     OW74415   6.573   0.254   7.002
57528SOL    HW174416   6.569   0.202   7.083
57528SOL    HW274417   6.491   0.232   6.956
57529SOL     OW74418   8.355   0.448   0.703
57529SOL    HW174419   8.312   0.389   0.641
57529SOL    HW274420   8.333   0.413   0.789
57530SOL     OW74421  13.977  14.108  12.726
57530SOL    HW174422  13.934  14.155  12.655
57530SOL    HW274423  13.933  14.137  12.805
57531SOL     OW74424   4.549   7.154   8.098
57531SOL    HW174425   4.570   7.099   8.173
57531SOL    HW274426   4.603   7.232   8.109
57532SOL     OW74427   4.315   0.503   2.116
57532SOL    HW174428   4.354   0.573   2.168
57532SOL    HW274429   4.260   0.548   2.052
57533SOL     OW74430   2.651  12.667  12.802
57533SOL    HW174431   2.637  12.700  12.713
57533SOL    HW274432   2.617  12.578  12.800
57534SOL     OW74433  12.203   4.408  14.232
57534SOL    HW174434  12.129   4.386  14.288
57534SOL    HW274435  12.212   4.503  14.239
57535SOL     OW74436   8.157   7.270  11.412
57535SOL    HW174437   8.149   7.360  11.442
57535SOL    HW274438   8.250   7.250  11.420
57536SOL     OW74439   1.776   8.638   5.058
57536SOL    HW174440   1.733   8.665   5.139
57536SOL    HW274441   1.844   8.704   5.044
57537SOL     OW74442   9.345   8.685   9.730
57537SOL    HW174443   9.265   8.738   9.732
57537SOL    HW274444   9.348   8.649   9.642
57538SOL     OW74445   7.139  11.518   5.001
57538SOL    HW174446   7.188  11.438   4.984
57538SOL    HW274447   7.091  11.534   4.920
57539SOL     OW74448  10.036  11.424   5.953
57539SOL    HW174449  10.065  11.405   5.864
57539SOL    HW274450   9.941  11.417   5.950
57540SOL     OW74451  13.539   7.940  11.776
57540SOL    HW174452  13.615   7.886  11.756
57540SOL    HW274453  13.495   7.894  11.848
57541SOL     OW74454  14.076   0.983   8.658
57541SOL    HW174455  14.109   0.900   8.693
57541SOL    HW274456  13.981   0.973   8.656
57542SOL     OW74457  11.917  11.368  12.482
57542SOL    HW174458  11.957  11.307  12.420
57542SOL    HW274459  11.989  11.425  12.509
57543SOL     OW74460  13.247  14.384   4.676
57543SOL    HW174461  13.207  14.463   4.713
57543SOL    HW274462  13.230  14.391   4.582
57544SOL     OW74463   6.925   4.443   8.368
57544SOL    HW174464   6.834   4.415   8.358
57544SOL    HW274465   6.974   4.361   8.376
57545SOL     OW74466  11.175  14.829  13.905
57545SOL    HW174467  11.139  14.798  13.988
57545SOL    HW274468  11.229  14.756  13.873
57546SOL     OW74469   2.663  13.783  12.130
57546SOL    HW174470   2.722  13.805  12.057
57546SOL    HW274471   2.672  13.856  12.191
57547SOL     OW74472  11.994  10.800   6.037
57547SOL    HW174473  12.016  10.739   5.967
57547SOL    HW274474  12.034  10.762   6.116
57548SOL     OW74475  14.450  13.623   2.407
57548SOL    HW174476  14.540  13.648   2.429
57548SOL    HW274477  14.438  13.654   2.317
57549SOL     OW74478  14.150  13.119   8.041
57549SOL    HW174479  14.121  13.032   8.068
57549SOL    HW274480  14.070  13.170   8.036
57550SOL     OW74481  12.736   6.023   3.912
57550SOL    HW174482  12.735   5.989   4.002
57550SOL    HW274483  12.749   6.117   3.923
57551SOL     OW74484   2.989  13.901   6.244
57551SOL    HW174485   2.896  13.877   6.237
57551SOL    HW274486   3.021  13.852   6.319
57552SOL     OW74487   1.599  12.367   9.456
57552SOL    HW174488   1.628  12.403   9.539
57552SOL    HW274489   1.676  12.323   9.420
57553SOL     OW74490   7.924  11.306   5.392
57553SOL    HW174491   7.947  11.266   5.476
57553SOL    HW274492   7.863  11.376   5.414
57554SOL     OW74493  11.936   0.847   3.438
57554SOL    HW174494  11.986   0.893   3.505
57554SOL    HW274495  11.858   0.815   3.484
57555SOL     OW74496   3.747  11.191   2.777
57555SOL    HW174497   3.745  11.268   2.720
57555SOL    HW274498   3.698  11.124   2.729
57556SOL     OW74499   5.360  12.485   3.754
57556SOL    HW174500   5.365  12.579   3.735
57556SOL    HW274501   5.310  12.448   3.681
57557SOL     OW74502   6.758  14.174   2.072
57557SOL    HW174503   6.712  14.231   2.010
57557SOL    HW274504   6.829  14.227   2.106
57558SOL     OW74505  10.499   1.056  14.791
57558SOL    HW174506  10.475   1.112  14.718
57558SOL    HW274507  10.423   0.999  14.803
57559SOL     OW74508   2.591   2.127   4.396
57559SOL    HW174509   2.602   2.222   4.389
57559SOL    HW274510   2.496   2.114   4.394
57560SOL     OW74511   2.000   2.444   3.633
57560SOL    HW174512   1.969   2.504   3.702
57560SOL    HW274513   1.948   2.467   3.556
57561SOL     OW74514  14.195   7.594   1.798
57561SOL    HW174515  14.255   7.519   1.798
57561SOL    HW274516  14.170   7.605   1.890
57562SOL     OW74517   1.863   0.680   7.225
57562SOL    HW174518   1.854   0.690   7.319
57562SOL    HW274519   1.923   0.750   7.198
57563SOL     OW74520  11.459   3.400   3.487
57563SOL    HW174521  11.550   3.430   3.480
57563SOL    HW274522  11.426   3.441   3.567
57564SOL     OW74523  12.056   2.305   6.993
57564SOL    HW174524  12.125   2.351   7.040
57564SOL    HW274525  12.007   2.373   6.948
57565SOL     OW74526   9.475   2.986   2.460
57565SOL    HW174527   9.492   2.913   2.400
57565SOL    HW274528   9.413   3.042   2.413
57566SOL     OW74529   4.526  13.170   3.818
57566SOL    HW174530   4.455  13.232   3.835
57566SOL    HW274531   4.482  13.091   3.785
57567SOL     OW74532  14.195   8.761   5.942
57567SOL    HW174533  14.287   8.766   5.967
57567SOL    HW274534  14.166   8.674   5.972
57568SOL     OW74535   0.129   9.387   5.072
57568SOL    HW174536   0.180   9.340   5.006
57568SOL    HW274537   0.047   9.410   5.028
57569SOL     OW74538   3.725  10.324  11.111
57569SOL    HW174539   3.648  10.275  11.137
57569SOL    HW274540   3.788  10.258  11.082
57570SOL     OW74541   8.148  14.425   0.405
57570SOL    HW174542   8.164  14.502   0.350
57570SOL    HW274543   8.089  14.457   0.473
57571SOL     OW74544   5.552   5.156   1.100
57571SOL    HW174545   5.499   5.132   1.024
57571SOL    HW274546   5.585   5.244   1.080
57572SOL     OW74547   7.317   1.108   6.034
57572SOL    HW174548   7.375   1.179   6.006
57572SOL    HW274549   7.375   1.033   6.046
57573SOL     OW74550   0.497   4.116   8.004
57573SOL    HW174551   0.480   4.127   7.910
57573SOL    HW274552   0.592   4.121   8.012
57574SOL     OW74553   6.673  12.416   8.696
57574SOL    HW174554   6.645  12.400   8.605
57574SOL    HW274555   6.728  12.341   8.718
57575SOL     OW74556   2.383   0.028  12.585
57575SOL    HW174557   2.338  14.875  12.665
57575SOL    HW274558   2.363  14.836  12.521
57576SOL     OW74559   7.209   6.039   9.277
57576SOL    HW174560   7.209   6.091   9.357
57576SOL    HW274561   7.131   6.068   9.229
57577SOL     OW74562  11.409  10.647   0.853
57577SOL    HW174563  11.351  10.682   0.921
57577SOL    HW274564  11.392  10.552   0.853
57578SOL     OW74565   8.401   1.536  10.836
57578SOL    HW174566   8.455   1.538  10.757
57578SOL    HW274567   8.374   1.626  10.850
57579SOL     OW74568   8.352  14.453   5.430
57579SOL    HW174569   8.377  14.371   5.389
57579SOL    HW274570   8.318  14.507   5.358
57580SOL     OW74571  13.273  12.233   5.860
57580SOL    HW174572  13.207  12.178   5.818
57580SOL    HW274573  13.333  12.170   5.901
57581SOL     OW74574   8.370   4.206  10.631
57581SOL    HW174575   8.278   4.180  10.627
57581SOL    HW274576   8.367   4.298  10.658
57582SOL     OW74577   1.357   6.198   2.156
57582SOL    HW174578   1.407   6.253   2.096
57582SOL    HW274579   1.329   6.258   2.226
57583SOL     OW74580   4.106   3.663  14.640
57583SOL    HW174581   4.109   3.647  14.546
57583SOL    HW274582   4.020   3.631  14.668
57584SOL     OW74583  10.599   5.000   3.639
57584SOL    HW174584  10.520   5.055   3.642
57584SOL    HW274585  10.639   5.020   3.555
57585SOL     OW74586   9.599  14.250  11.465
57585SOL    HW174587   9.669  14.209  11.516
57585SOL    HW274588   9.582  14.189  11.393
57586SOL     OW74589   1.469   6.604  11.447
57586SOL    HW174590   1.552   6.600  11.401
57586SOL    HW274591   1.456   6.516  11.482
57587SOL     OW74592  14.478   8.579   6.352
57587SOL    HW174593  14.550   8.533   6.395
57587SOL    HW274594  14.454   8.523   6.278
57588SOL     OW74595   4.878   1.693   9.430
57588SOL    HW174596   4.880   1.692   9.335
57588SOL    HW274597   4.969   1.678   9.457
57589SOL     OW74598   7.542   1.520  10.373
57589SOL    HW174599   7.462   1.487  10.331
57589SOL    HW274600   7.589   1.563  10.302
57590SOL     OW74601   9.855   3.424   3.192
57590SOL    HW174602   9.926   3.424   3.128
57590SOL    HW274603   9.826   3.333   3.195
57591SOL     OW74604   0.439   8.249   6.141
57591SOL    HW174605   0.431   8.226   6.233
57591SOL    HW274606   0.436   8.165   6.095
57592SOL     OW74607  14.181  12.189  12.637
57592SOL    HW174608  14.274  12.204  12.621
57592SOL    HW274609  14.177  12.155  12.727
57593SOL     OW74610   2.252   2.116  11.041
57593SOL    HW174611   2.295   2.045  10.994
57593SOL    HW274612   2.171   2.133  10.993
57594SOL     OW74613   5.914  12.403   0.713
57594SOL    HW174614   5.982  12.371   0.772
57594SOL    HW274615   5.928  12.354   0.632
57595SOL     OW74616  12.196  14.535   0.072
57595SOL    HW174617  12.232  14.452   0.104
57595SOL    HW274618  12.153  14.512  14.865
57596SOL     OW74619   1.463   8.402   8.475
57596SOL    HW174620   1.421   8.463   8.536
57596SOL    HW274621   1.537   8.367   8.524
57597SOL     OW74622   4.595   1.973  12.065
57597SOL    HW174623   4.624   2.015  11.984
57597SOL    HW274624   4.595   1.879  12.045
57598SOL     OW74625  12.466   9.471   9.127
57598SOL    HW174626  12.469   9.484   9.032
57598SOL    HW274627  12.555   9.447   9.152
57599SOL     OW74628   9.492   8.084   3.127
57599SOL    HW174629   9.556   8.146   3.091
57599SOL    HW274630   9.525   8.063   3.214
57600SOL     OW74631   1.872   3.331   7.721
57600SOL    HW174632   1.944   3.352   7.661
57600SOL    HW274633   1.796   3.375   7.685
57601SOL     OW74634   2.389   1.511  13.212
57601SOL    HW174635   2.465   1.529  13.157
57601SOL    HW274636   2.402   1.565  13.290
57602SOL     OW74637   1.523  12.971   0.518
57602SOL    HW174638   1.542  13.064   0.506
57602SOL    HW274639   1.555  12.929   0.439
57603SOL     OW74640   3.604   1.870  12.839
57603SOL    HW174641   3.510   1.854  12.842
57603SOL    HW274642   3.627   1.856  12.747
57604SOL     OW74643   4.779   0.726   0.723
57604SOL    HW174644   4.774   0.689   0.811
57604SOL    HW274645   4.752   0.655   0.666
57605SOL     OW74646  14.837   0.980  13.209
57605SOL    HW174647   0.047   0.997  13.247
57605SOL    HW274648  14.778   0.976  13.284
57606SOL     OW74649  10.372   1.058  12.124
57606SOL    HW174650  10.367   1.031  12.032
57606SOL    HW274651  10.402   1.149  12.120
57607SOL     OW74652   9.020  11.362  12.363
57607SOL    HW174653   8.927  11.355  12.382
57607SOL    HW274654   9.034  11.456  12.349
57608SOL     OW74655  12.662  13.693   0.421
57608SOL    HW174656  12.680  13.599   0.411
57608SOL    HW274657  12.714  13.735   0.353
57609SOL     OW74658  13.602   9.044   9.663
57609SOL    HW174659  13.507   9.050   9.651
57609SOL    HW274660  13.628   8.966   9.615
57610SOL     OW74661   6.373   1.639  12.094
57610SOL    HW174662   6.309   1.707  12.113
57610SOL    HW274663   6.447   1.659  12.151
57611SOL     OW74664   1.007   7.745   0.469
57611SOL    HW174665   1.096   7.746   0.433
57611SOL    HW274666   0.966   7.668   0.429
57612SOL     OW74667   2.394   1.593   1.063
57612SOL    HW174668   2.473   1.641   1.087
57612SOL    HW274669   2.384   1.527   1.131
57613SOL     OW74670   3.430   6.998   6.849
57613SOL    HW174671   3.482   6.937   6.797
57613SOL    HW274672   3.367   7.035   6.787
57614SOL     OW74673   5.415   6.405  13.196
57614SOL    HW174674   5.336   6.367  13.158
57614SOL    HW274675   5.421   6.492  13.157
57615SOL     OW74676   1.193   1.216   3.105
57615SOL    HW174677   1.256   1.246   3.041
57615SOL    HW274678   1.190   1.121   3.093
57616SOL     OW74679  11.516   7.492   2.930
57616SOL    HW174680  11.591   7.463   2.980
57616SOL    HW274681  11.550   7.504   2.841
57617SOL     OW74682   6.473   0.401  10.260
57617SOL    HW174683   6.468   0.310  10.228
57617SOL    HW274684   6.521   0.395  10.342
57618SOL     OW74685  10.986   2.336  10.247
57618SOL    HW174686  10.935   2.257  10.267
57618SOL    HW274687  11.076   2.311  10.265
57619SOL     OW74688  11.913   5.225   6.803
57619SOL    HW174689  11.947   5.314   6.808
57619SOL    HW274690  11.901   5.209   6.709
57620SOL     OW74691  10.253   8.581   3.468
57620SOL    HW174692  10.262   8.492   3.502
57620SOL    HW274693  10.282   8.575   3.377
57621SOL     OW74694   3.345   9.503  13.860
57621SOL    HW174695   3.288   9.448  13.806
57621SOL    HW274696   3.348   9.460  13.945
57622SOL     OW74697  12.439   3.825   6.486
57622SOL    HW174698  12.457   3.763   6.415
57622SOL    HW274699  12.452   3.911   6.446
57623SOL     OW74700   0.156  11.483  10.641
57623SOL    HW174701   0.100  11.560  10.642
57623SOL    HW274702   0.199  11.484  10.555
57624SOL     OW74703   8.516   6.643  12.858
57624SOL    HW174704   8.453   6.572  12.872
57624SOL    HW274705   8.588   6.602  12.810
57625SOL     OW74706   7.788   5.001   6.170
57625SOL    HW174707   7.857   5.028   6.110
57625SOL    HW274708   7.801   4.906   6.181
57626SOL     OW74709   5.304  11.878  11.477
57626SOL    HW174710   5.364  11.916  11.413
57626SOL    HW274711   5.353  11.805  11.515
57627SOL     OW74712   0.633   9.267  12.805
57627SOL    HW174713   0.581   9.273  12.724
57627SOL    HW274714   0.578   9.217  12.865
57628SOL     OW74715   8.826  14.410   5.134
57628SOL    HW174716   8.885  14.372   5.199
57628SOL    HW274717   8.883  14.437   5.062
57629SOL     OW74718  11.107   7.698   0.353
57629SOL    HW174719  11.187   7.709   0.300
57629SOL    HW274720  11.055   7.776   0.334
57630SOL     OW74721   6.768   8.535  11.773
57630SOL    HW174722   6.826   8.527  11.849
57630SOL    HW274723   6.821   8.578  11.706
57631SOL     OW74724   7.677   5.048   4.422
57631SOL    HW174725   7.649   4.956   4.422
57631SOL    HW274726   7.770   5.044   4.398
57632SOL     OW74727   5.854   3.268   6.966
57632SOL    HW174728   5.861   3.318   7.047
57632SOL    HW274729   5.861   3.177   6.994
57633SOL     OW74730   1.705   9.744  13.134
57633SOL    HW174731   1.777   9.763  13.193
57633SOL    HW274732   1.703   9.819  13.074
57634SOL     OW74733   5.736   2.744   2.265
57634SOL    HW174734   5.742   2.711   2.176
57634SOL    HW274735   5.701   2.671   2.316
57635SOL     OW74736   5.377   0.814   1.529
57635SOL    HW174737   5.324   0.835   1.452
57635SOL    HW274738   5.359   0.721   1.546
57636SOL     OW74739   5.304  13.997   5.440
57636SOL    HW174740   5.395  14.028   5.435
57636SOL    HW274741   5.303  13.939   5.516
57637SOL     OW74742  14.010   8.455  11.674
57637SOL    HW174743  13.981   8.543  11.653
57637SOL    HW274744  13.943   8.398  11.636
57638SOL     OW74745   3.694   5.236   6.074
57638SOL    HW174746   3.754   5.309   6.058
57638SOL    HW274747   3.742   5.159   6.044
57639SOL     OW74748  11.452   3.526   4.352
57639SOL    HW174749  11.533   3.570   4.325
57639SOL    HW274750  11.470   3.497   4.442
57640SOL     OW74751   6.634  11.979   0.632
57640SOL    HW174752   6.671  12.051   0.581
57640SOL    HW274753   6.647  12.006   0.723
57641SOL     OW74754  10.682   4.839  11.322
57641SOL    HW174755  10.633   4.824  11.403
57641SOL    HW274756  10.742   4.910  11.343
57642SOL     OW74757   4.905   9.305  13.155
57642SOL    HW174758   4.959   9.272  13.227
57642SOL    HW274759   4.968   9.331  13.088
57643SOL     OW74760   1.147   9.965  13.371
57643SOL    HW174761   1.079   9.918  13.322
57643SOL    HW274762   1.098  10.024  13.428
57644SOL     OW74763   5.659   9.248  10.259
57644SOL    HW174764   5.672   9.175  10.199
57644SOL    HW274765   5.618   9.316  10.205
57645SOL     OW74766  14.180  11.845   4.485
57645SOL    HW174767  14.130  11.845   4.567
57645SOL    HW274768  14.123  11.889   4.422
57646SOL     OW74769   5.026   4.525   7.513
57646SOL    HW174770   4.949   4.581   7.508
57646SOL    HW274771   5.071   4.551   7.594
57647SOL     OW74772   0.786   5.526   8.632
57647SOL    HW174773   0.846   5.543   8.560
57647SOL    HW274774   0.810   5.590   8.699
57648SOL     OW74775   4.540  13.206   0.269
57648SOL    HW174776   4.496  13.249   0.196
57648SOL    HW274777   4.629  13.192   0.238
57649SOL     OW74778   9.657   7.970  13.818
57649SOL    HW174779   9.728   8.027  13.788
57649SOL    HW274780   9.680   7.949  13.909
57650SOL     OW74781   8.680  13.211  12.320
57650SOL    HW174782   8.756  13.164  12.355
57650SOL    HW274783   8.611  13.195  12.384
57651SOL     OW74784   9.537   1.018   7.152
57651SOL    HW174785   9.627   1.033   7.181
57651SOL    HW274786   9.483   1.051   7.224
57652SOL     OW74787   0.597   7.474   4.689
57652SOL    HW174788   0.552   7.408   4.637
57652SOL    HW274789   0.529   7.512   4.744
57653SOL     OW74790   2.842  10.765   1.298
57653SOL    HW174791   2.915  10.785   1.240
57653SOL    HW274792   2.838  10.840   1.358
57654SOL     OW74793   5.491   8.807  14.548
57654SOL    HW174794   5.474   8.746  14.620
57654SOL    HW274795   5.420   8.870  14.553
57655SOL     OW74796   2.211  11.463   1.745
57655SOL    HW174797   2.306  11.455   1.733
57655SOL    HW274798   2.177  11.473   1.656
57656SOL     OW74799  10.371   1.481   6.570
57656SOL    HW174800  10.317   1.446   6.641
57656SOL    HW274801  10.328   1.450   6.490
57657SOL     OW74802   4.494  12.345   1.975
57657SOL    HW174803   4.452  12.276   2.026
57657SOL    HW274804   4.537  12.300   1.903
57658SOL     OW74805   2.692  14.341   5.265
57658SOL    HW174806   2.614  14.300   5.303
57658SOL    HW274807   2.668  14.356   5.173
57659SOL     OW74808   4.653   7.763  12.142
57659SOL    HW174809   4.612   7.695  12.197
57659SOL    HW274810   4.735   7.782  12.187
57660SOL     OW74811   4.528  12.827   7.230
57660SOL    HW174812   4.435  12.803   7.236
57660SOL    HW274813   4.534  12.876   7.148
57661SOL     OW74814   3.141   4.643  14.740
57661SOL    HW174815   3.067   4.584  14.738
57661SOL    HW274816   3.121   4.705  14.811
57662SOL     OW74817   1.338  11.923   3.070
57662SOL    HW174818   1.385  11.997   3.108
57662SOL    HW274819   1.317  11.951   2.981
57663SOL     OW74820   1.022  12.081   6.104
57663SOL    HW174821   0.988  12.080   6.194
57663SOL    HW274822   0.944  12.081   6.049
57664SOL     OW74823   3.300   5.965  12.326
57664SOL    HW174824   3.212   5.927  12.327
57664SOL    HW274825   3.321   5.981  12.418
57665SOL     OW74826  10.145  11.739   1.683
57665SOL    HW174827  10.053  11.723   1.705
57665SOL    HW274828  10.151  11.833   1.672
57666SOL     OW74829   2.934  14.003   4.642
57666SOL    HW174830   3.019  14.035   4.612
57666SOL    HW274831   2.943  13.996   4.737
57667SOL     OW74832   4.964   8.869   3.742
57667SOL    HW174833   4.985   8.930   3.671
57667SOL    HW274834   5.041   8.873   3.800
57668SOL     OW74835   1.589  10.802   4.261
57668SOL    HW174836   1.527  10.872   4.281
57668SOL    HW274837   1.619  10.772   4.346
57669SOL     OW74838   6.222   9.528   1.731
57669SOL    HW174839   6.260   9.615   1.720
57669SOL    HW274840   6.211   9.494   1.642
57670SOL     OW74841   1.334   1.382  12.390
57670SOL    HW174842   1.304   1.291  12.389
57670SOL    HW274843   1.331   1.408  12.482
57671SOL     OW74844   0.423   2.574   8.249
57671SOL    HW174845   0.358   2.528   8.302
57671SOL    HW274846   0.391   2.664   8.243
57672SOL     OW74847   0.144   8.209   8.683
57672SOL    HW174848   0.104   8.140   8.734
57672SOL    HW274849   0.162   8.279   8.746
57673SOL     OW74850   2.450   5.878   5.928
57673SOL    HW174851   2.453   5.808   5.863
57673SOL    HW274852   2.524   5.934   5.906
57674SOL     OW74853   0.627   1.760  13.116
57674SOL    HW174854   0.705   1.736  13.067
57674SOL    HW274855   0.629   1.855  13.121
57675SOL     OW74856   5.719  11.788   7.808
57675SOL    HW174857   5.788  11.852   7.823
57675SOL    HW274858   5.758  11.723   7.750
57676SOL     OW74859   8.814   1.916  11.200
57676SOL    HW174860   8.835   1.850  11.265
57676SOL    HW274861   8.740   1.880  11.151
57677SOL     OW74862  14.573   7.922   9.812
57677SOL    HW174863  14.606   7.881   9.891
57677SOL    HW274864  14.567   8.015   9.833
57678SOL     OW74865  10.260   9.863   6.372
57678SOL    HW174866  10.313   9.880   6.449
57678SOL    HW274867  10.170   9.880   6.400
57679SOL     OW74868  13.042   4.571   8.260
57679SOL    HW174869  13.082   4.579   8.173
57679SOL    HW274870  12.964   4.626   8.255
57680SOL     OW74871   5.997   4.622   2.671
57680SOL    HW174872   5.992   4.620   2.575
57680SOL    HW274873   6.054   4.548   2.694
57681SOL     OW74874  14.818   0.086  13.414
57681SOL    HW174875  14.830   0.009  13.469
57681SOL    HW274876  14.742   0.066  13.359
57682SOL     OW74877   8.593   0.529   5.429
57682SOL    HW174878   8.600   0.612   5.382
57682SOL    HW274879   8.506   0.495   5.406
57683SOL     OW74880   5.366  11.338   0.651
57683SOL    HW174881   5.361  11.334   0.747
57683SOL    HW274882   5.295  11.397   0.626
57684SOL     OW74883   8.136  14.805   8.927
57684SOL    HW174884   8.220  14.830   8.964
57684SOL    HW274885   8.157  14.777   8.837
57685SOL     OW74886   0.781   9.663   8.263
57685SOL    HW174887   0.722   9.598   8.300
57685SOL    HW274888   0.759   9.666   8.170
57686SOL     OW74889   3.703   7.110  11.175
57686SOL    HW174890   3.698   7.205  11.170
57686SOL    HW274891   3.753   7.092  11.255
57687SOL     OW74892   6.375   9.274   9.621
57687SOL    HW174893   6.337   9.260   9.708
57687SOL    HW274894   6.375   9.187   9.581
57688SOL     OW74895   8.013  10.471  13.250
57688SOL    HW174896   8.033  10.383  13.218
57688SOL    HW274897   7.919  10.482  13.231
57689SOL     OW74898   1.802   2.845   4.193
57689SOL    HW174899   1.829   2.936   4.205
57689SOL    HW274900   1.883   2.795   4.204
57690SOL     OW74901   2.214   0.662   9.750
57690SOL    HW174902   2.146   0.666   9.683
57690SOL    HW274903   2.292   0.631   9.703
57691SOL     OW74904  11.406  11.297   8.638
57691SOL    HW174905  11.444  11.307   8.725
57691SOL    HW274906  11.455  11.225   8.599
57692SOL     OW74907   6.784   1.177  13.246
57692SOL    HW174908   6.770   1.234  13.322
57692SOL    HW274909   6.698   1.138  13.230
57693SOL     OW74910  12.616  11.402  11.593
57693SOL    HW174911  12.680  11.472  11.595
57693SOL    HW274912  12.667  11.321  11.600
57694SOL     OW74913   3.614   7.593  11.607
57694SOL    HW174914   3.592   7.652  11.534
57694SOL    HW274915   3.683   7.537  11.572
57695SOL     OW74916   9.128   9.395  10.558
57695SOL    HW174917   9.092   9.412  10.471
57695SOL    HW274918   9.216   9.431  10.555
57696SOL     OW74919  11.919  12.439  14.005
57696SOL    HW174920  11.897  12.454  14.097
57696SOL    HW274921  11.953  12.349  14.004
57697SOL     OW74922   8.807   2.671  12.323
57697SOL    HW174923   8.719   2.656  12.359
57697SOL    HW274924   8.863   2.611  12.373
57698SOL     OW74925   0.919  10.642   4.421
57698SOL    HW174926   0.986  10.664   4.356
57698SOL    HW274927   0.917  10.546   4.421
57699SOL     OW74928  14.456  13.311   5.470
57699SOL    HW174929  14.463  13.325   5.565
57699SOL    HW274930  14.402  13.233   5.462
57700SOL     OW74931  13.512   4.451   8.787
57700SOL    HW174932  13.425   4.484   8.809
57700SOL    HW274933  13.565   4.467   8.866
57701SOL     OW74934   5.331   8.210   6.342
57701SOL    HW174935   5.288   8.131   6.374
57701SOL    HW274936   5.329   8.270   6.417
57702SOL     OW74937   0.064  11.026   4.161
57702SOL    HW174938   0.136  11.082   4.192
57702SOL    HW274939   0.047  10.967   4.233
57703SOL     OW74940   3.000   3.499  10.656
57703SOL    HW174941   3.017   3.574  10.599
57703SOL    HW274942   2.993   3.425  10.596
57704SOL     OW74943   3.222   1.298   4.571
57704SOL    HW174944   3.155   1.291   4.640
57704SOL    HW274945   3.303   1.315   4.619
57705SOL     OW74946  11.021  10.085   5.782
57705SOL    HW174947  10.979  10.170   5.793
57705SOL    HW274948  11.096  10.102   5.724
57706SOL     OW74949  12.547  14.002   5.905
57706SOL    HW174950  12.619  14.023   5.966
57706SOL    HW274951  12.505  13.925   5.943
57707SOL     OW74952   8.564  14.482   1.925
57707SOL    HW174953   8.478  14.498   1.885
57707SOL    HW274954   8.589  14.395   1.893
57708SOL     OW74955  11.585   7.339   0.292
57708SOL    HW174956  11.494   7.338   0.263
57708SOL    HW274957  11.607   7.432   0.298
57709SOL     OW74958   4.648   9.099   0.858
57709SOL    HW174959   4.598   9.064   0.784
57709SOL    HW274960   4.710   9.030   0.880
57710SOL     OW74961   5.706  14.125  14.063
57710SOL    HW174962   5.648  14.198  14.045
57710SOL    HW274963   5.788  14.147  14.017
57711SOL     OW74964   8.435   6.880  14.016
57711SOL    HW174965   8.527   6.856  14.006
57711SOL    HW274966   8.437   6.968  14.054
57712SOL     OW74967   0.018   7.650   7.414
57712SOL    HW174968   0.051   7.724   7.363
57712SOL    HW274969  14.801   7.647   7.395
57713SOL     OW74970  11.798   9.080   7.939
57713SOL    HW174971  11.858   9.086   8.014
57713SOL    HW274972  11.724   9.029   7.972
57714SOL     OW74973   0.773   4.174   7.999
57714SOL    HW174974   0.778   4.221   8.082
57714SOL    HW274975   0.836   4.218   7.942
57715SOL     OW74976  10.807  10.549  10.300
57715SOL    HW174977  10.766  10.512  10.221
57715SOL    HW274978  10.801  10.643  10.289
57716SOL     OW74979   1.601   1.353   2.330
57716SOL    HW174980   1.568   1.263   2.341
57716SOL    HW274981   1.651   1.370   2.409
57717SOL     OW74982  11.374   3.056   0.085
57717SOL    HW174983  11.402   3.113   0.157
57717SOL    HW274984  11.455   3.018   0.052
57718SOL     OW74985   0.480   0.084   7.842
57718SOL    HW174986   0.445   0.137   7.770
57718SOL    HW274987   0.490   0.145   7.914
57719SOL     OW74988   1.513  14.726   0.427
57719SOL    HW174989   1.473  14.763   0.349
57719SOL    HW274990   1.595  14.688   0.396
57720SOL     OW74991  10.645   4.499  14.258
57720SOL    HW174992  10.684   4.415  14.282
57720SOL    HW274993  10.559   4.498  14.300
57721SOL     OW74994   2.435  10.103  10.703
57721SOL    HW174995   2.483  10.140  10.628
57721SOL    HW274996   2.401  10.179  10.750
57722SOL     OW74997  11.191   7.543  11.624
57722SOL    HW174998  11.238   7.621  11.653
57722SOL    HW274999  11.104   7.574  11.601
57723SOL     OW75000   2.455   3.812   0.419
57723SOL    HW175001   2.361   3.824   0.435
57723SOL    HW275002   2.468   3.717   0.424
57724SOL     OW75003   1.118   2.776  13.802
57724SOL    HW175004   1.120   2.737  13.715
57724SOL    HW275005   1.201   2.749  13.842
57725SOL     OW75006   4.152   3.379  11.329
57725SOL    HW175007   4.057   3.392  11.339
57725SOL    HW275008   4.161   3.287  11.306
57726SOL     OW75009  12.090   9.435   0.507
57726SOL    HW175010  12.176   9.428   0.465
57726SOL    HW275011  12.067   9.528   0.499
57727SOL     OW75012   8.222   1.696   1.169
57727SOL    HW175013   8.277   1.764   1.130
57727SOL    HW275014   8.221   1.625   1.104
57728SOL     OW75015   5.646   7.410   0.896
57728SOL    HW175016   5.653   7.346   0.967
57728SOL    HW275017   5.579   7.374   0.838
57729SOL     OW75018   7.022   4.736   1.499
57729SOL    HW175019   7.106   4.692   1.511
57729SOL    HW275020   6.956   4.667   1.508
57730SOL     OW75021  10.930   5.914   4.094
57730SOL    HW175022  11.010   5.959   4.123
57730SOL    HW275023  10.874   5.913   4.172
57731SOL     OW75024  12.391   8.413   9.705
57731SOL    HW175025  12.470   8.431   9.655
57731SOL    HW275026  12.408   8.329   9.748
57732SOL     OW75027   8.876  11.366   2.181
57732SOL    HW175028   8.825  11.408   2.251
57732SOL    HW275029   8.811  11.316   2.131
57733SOL     OW75030   5.211   2.749  14.378
57733SOL    HW175031   5.145   2.768  14.445
57733SOL    HW275032   5.162   2.751  14.296
57734SOL     OW75033   1.229   5.436   4.752
57734SOL    HW175034   1.229   5.525   4.719
57734SOL    HW275035   1.279   5.386   4.687
57735SOL     OW75036   3.790  10.088   1.532
57735SOL    HW175037   3.826  10.162   1.581
57735SOL    HW275038   3.827  10.097   1.445
57736SOL     OW75039  11.257   6.341   2.698
57736SOL    HW175040  11.272   6.372   2.609
57736SOL    HW275041  11.168   6.306   2.696
57737SOL     OW75042  13.695   3.662  12.316
57737SOL    HW175043  13.687   3.575  12.276
57737SOL    HW275044  13.674   3.649  12.408
57738SOL     OW75045  13.150  13.917  14.851
57738SOL    HW175046  13.161  13.942  14.759
57738SOL    HW275047  13.145  14.000   0.023
57739SOL     OW75048   0.643   6.169  11.238
57739SOL    HW175049   0.701   6.191  11.311
57739SOL    HW275050   0.579   6.241  11.236
57740SOL     OW75051  12.297   4.145   1.262
57740SOL    HW175052  12.362   4.078   1.243
57740SOL    HW275053  12.236   4.142   1.189
57741SOL     OW75054   5.078  13.412  12.550
57741SOL    HW175055   5.131  13.434  12.627
57741SOL    HW275056   5.010  13.354  12.584
57742SOL     OW75057   0.257   0.460   6.017
57742SOL    HW175058   0.317   0.487   5.947
57742SOL    HW275059   0.215   0.541   6.045
57743SOL     OW75060   5.019  13.437   0.270
57743SOL    HW175061   4.960  13.459   0.342
57743SOL    HW275062   5.099  13.407   0.312
57744SOL     OW75063   4.302  11.361   9.418
57744SOL    HW175064   4.294  11.266   9.419
57744SOL    HW275065   4.376  11.378   9.360
57745SOL     OW75066   7.138   9.203  10.285
57745SOL    HW175067   7.060   9.221  10.337
57745SOL    HW275068   7.138   9.108  10.274
57746SOL     OW75069   6.898  14.781   2.337
57746SOL    HW175070   6.869  14.811   2.251
57746SOL    HW275071   6.925  14.861   2.382
57747SOL     OW75072  11.343   8.867   1.214
57747SOL    HW175073  11.385   8.926   1.151
57747SOL    HW275074  11.402   8.792   1.219
57748SOL     OW75075   2.507   4.739   6.884
57748SOL    HW175076   2.489   4.645   6.881
57748SOL    HW275077   2.586   4.747   6.937
57749SOL     OW75078  11.789   8.128   7.966
57749SOL    HW175079  11.696   8.129   7.944
57749SOL    HW275080  11.794   8.167   8.053
57750SOL     OW75081  14.115   4.303   5.749
57750SOL    HW175082  14.185   4.295   5.814
57750SOL    HW275083  14.034   4.288   5.799
57751SOL     OW75084   8.105   4.484  10.686
57751SOL    HW175085   8.171   4.484  10.755
57751SOL    HW275086   8.023   4.466  10.731
57752SOL     OW75087   5.676  10.064   5.319
57752SOL    HW175088   5.581  10.077   5.319
57752SOL    HW275089   5.694  10.020   5.402
57753SOL     OW75090   9.001   0.134   5.143
57753SOL    HW175091   8.944   0.211   5.150
57753SOL    HW275092   8.962   0.070   5.202
57754SOL     OW75093   1.589   4.192   1.687
57754SOL    HW175094   1.607   4.154   1.773
57754SOL    HW275095   1.590   4.118   1.627
57755SOL     OW75096  10.936   3.838  14.600
57755SOL    HW175097  10.911   3.772  14.536
57755SOL    HW275098  10.876   3.825  14.673
57756SOL     OW75099   1.557   5.923  10.675
57756SOL    HW175100   1.533   6.015  10.690
57756SOL    HW275101   1.649   5.927  10.648
57757SOL     OW75102  11.069  10.732   0.477
57757SOL    HW175103  11.088  10.642   0.503
57757SOL    HW275104  10.973  10.735   0.470
57758SOL     OW75105  11.535   8.244  14.724
57758SOL    HW175106  11.547   8.210  14.813
57758SOL    HW275107  11.601   8.199  14.672
57759SOL     OW75108   3.479   7.222   3.963
57759SOL    HW175109   3.469   7.131   3.993
57759SOL    HW275110   3.528   7.216   3.881
57760SOL     OW75111  11.432  11.709   5.440
57760SOL    HW175112  11.360  11.654   5.410
57760SOL    HW275113  11.404  11.799   5.421
57761SOL     OW75114  14.654  12.073  12.737
57761SOL    HW175115  14.617  11.998  12.783
57761SOL    HW275116  14.695  12.036  12.659
57762SOL     OW75117   4.421   9.878   3.843
57762SOL    HW175118   4.375   9.957   3.870
57762SOL    HW275119   4.460   9.845   3.924
57763SOL     OW75120  11.077   6.988   2.545
57763SOL    HW175121  11.033   7.022   2.467
57763SOL    HW275122  11.101   7.067   2.595
57764SOL     OW75123   8.986   7.794   1.106
57764SOL    HW175124   8.968   7.794   1.200
57764SOL    HW275125   8.963   7.883   1.078
57765SOL     OW75126  10.110   0.266   6.155
57765SOL    HW175127  10.054   0.238   6.228
57765SOL    HW275128  10.175   0.323   6.196
57766SOL     OW75129   8.297   9.706   1.917
57766SOL    HW175130   8.343   9.668   1.842
57766SOL    HW275131   8.329   9.796   1.923
57767SOL     OW75132  13.802   7.411  14.031
57767SOL    HW175133  13.748   7.355  13.976
57767SOL    HW275134  13.886   7.366  14.037
57768SOL     OW75135  14.014   2.266   6.918
57768SOL    HW175136  14.102   2.253   6.953
57768SOL    HW275137  14.008   2.360   6.902
57769SOL     OW75138  13.920   4.313   1.795
57769SOL    HW175139  13.918   4.402   1.830
57769SOL    HW275140  14.008   4.282   1.814
57770SOL     OW75141   5.710  14.160  11.767
57770SOL    HW175142   5.615  14.158  11.777
57770SOL    HW275143   5.727  14.120  11.682
57771SOL     OW75144   8.121   4.991   5.284
57771SOL    HW175145   8.060   4.920   5.305
57771SOL    HW275146   8.098   5.017   5.195
57772SOL     OW75147  14.253   4.286   5.976
57772SOL    HW175148  14.218   4.353   6.035
57772SOL    HW275149  14.242   4.204   6.024
57773SOL     OW75150  12.735  11.244   6.287
57773SOL    HW175151  12.777  11.330   6.287
57773SOL    HW275152  12.791  11.190   6.231
57774SOL     OW75153  12.925   9.466  13.789
57774SOL    HW175154  12.894   9.516  13.864
57774SOL    HW275155  12.943   9.532  13.722
57775SOL     OW75156  12.989   5.821   4.412
57775SOL    HW175157  13.023   5.908   4.392
57775SOL    HW275158  12.949   5.830   4.499
57776SOL     OW75159   4.396   7.645  14.750
57776SOL    HW175160   4.472   7.660  14.805
57776SOL    HW275161   4.326   7.624  14.812
57777SOL     OW75162   3.915   2.708   4.315
57777SOL    HW175163   3.839   2.765   4.325
57777SOL    HW275164   3.948   2.726   4.227
57778SOL     OW75165   9.460  13.901   6.784
57778SOL    HW175166   9.546  13.936   6.807
57778SOL    HW275167   9.403  13.978   6.777
57779SOL     OW75168  11.115   7.208   2.755
57779SOL    HW175169  11.077   7.184   2.839
57779SOL    HW275170  11.206   7.231   2.776
57780SOL     OW75171   2.462  14.079   6.869
57780SOL    HW175172   2.542  14.027   6.872
57780SOL    HW275173   2.428  14.075   6.959
57781SOL     OW75174   6.023   9.174  14.312
57781SOL    HW175175   5.998   9.106  14.249
57781SOL    HW275176   6.118   9.168  14.315
57782SOL     OW75177   5.288   6.594   3.045
57782SOL    HW175178   5.200   6.625   3.025
57782SOL    HW275179   5.346   6.655   2.999
57783SOL     OW75180  10.096   4.538   1.847
57783SOL    HW175181  10.113   4.565   1.757
57783SOL    HW275182  10.183   4.537   1.888
57784SOL     OW75183   2.896   7.514   3.656
57784SOL    HW175184   2.845   7.593   3.636
57784SOL    HW275185   2.979   7.528   3.611
57785SOL     OW75186   0.594   4.840  10.345
57785SOL    HW175187   0.564   4.861  10.257
57785SOL    HW275188   0.626   4.750  10.339
57786SOL     OW75189   0.602   9.485   9.418
57786SOL    HW175190   0.639   9.398   9.434
57786SOL    HW275191   0.550   9.503   9.496
57787SOL     OW75192   2.467   3.280   8.578
57787SOL    HW175193   2.372   3.280   8.566
57787SOL    HW275194   2.483   3.347   8.645
57788SOL     OW75195   3.245  10.355  14.865
57788SOL    HW175196   3.178  10.306  14.815
57788SOL    HW275197   3.208  10.442  14.876
57789SOL     OW75198   3.336   8.557   7.329
57789SOL    HW175199   3.382   8.583   7.408
57789SOL    HW275200   3.249   8.530   7.359
57790SOL     OW75201   6.513   3.126   3.278
57790SOL    HW175202   6.418   3.142   3.275
57790SOL    HW275203   6.532   3.080   3.196
57791SOL     OW75204   9.018   1.357   3.824
57791SOL    HW175205   8.984   1.274   3.792
57791SOL    HW275206   9.094   1.376   3.769
57792SOL     OW75207   6.349  13.040   6.361
57792SOL    HW175208   6.291  12.984   6.413
57792SOL    HW275209   6.360  13.119   6.415
57793SOL     OW75210  12.346  14.094  13.271
57793SOL    HW175211  12.400  14.171  13.253
57793SOL    HW275212  12.275  14.126  13.327
57794SOL     OW75213  10.224   6.298   7.674
57794SOL    HW175214  10.195   6.340   7.593
57794SOL    HW275215  10.317   6.319   7.681
57795SOL     OW75216   7.538   7.285  10.698
57795SOL    HW175217   7.525   7.270  10.792
57795SOL    HW275218   7.506   7.205  10.657
57796SOL     OW75219  13.192  12.189  12.546
57796SOL    HW175220  13.108  12.143  12.538
57796SOL    HW275221  13.193  12.222  12.636
57797SOL     OW75222   2.524   5.140  14.472
57797SOL    HW175223   2.451   5.137  14.535
57797SOL    HW275224   2.584   5.205  14.508
57798SOL     OW75225   4.632   8.003   2.801
57798SOL    HW175226   4.669   7.952   2.730
57798SOL    HW275227   4.541   7.974   2.807
57799SOL     OW75228   1.485   8.237   3.565
57799SOL    HW175229   1.525   8.310   3.519
57799SOL    HW275230   1.508   8.160   3.513
57800SOL     OW75231   3.231   0.885   8.611
57800SOL    HW175232   3.155   0.834   8.583
57800SOL    HW275233   3.266   0.922   8.530
57801SOL     OW75234   6.017   1.758   8.618
57801SOL    HW175235   5.998   1.809   8.697
57801SOL    HW275236   5.936   1.763   8.566
57802SOL     OW75237   1.315   9.916  11.623
57802SOL    HW175238   1.361   9.963  11.554
57802SOL    HW275239   1.280   9.985  11.680
57803SOL     OW75240  13.727  13.573   0.236
57803SOL    HW175241  13.806  13.579   0.289
57803SOL    HW275242  13.660  13.618   0.287
57804SOL     OW75243  14.283   3.417   9.912
57804SOL    HW175244  14.297   3.411  10.006
57804SOL    HW275245  14.311   3.332   9.877
57805SOL     OW75246  13.273  13.265   1.537
57805SOL    HW175247  13.245  13.346   1.494
57805SOL    HW275248  13.257  13.196   1.473
57806SOL     OW75249  10.833   0.457   7.712
57806SOL    HW175250  10.784   0.528   7.671
57806SOL    HW275251  10.793   0.377   7.678
57807SOL     OW75252   1.248   9.959   0.526
57807SOL    HW175253   1.178   9.960   0.592
57807SOL    HW275254   1.287  10.046   0.531
57808SOL     OW75255   5.316  12.287  11.325
57808SOL    HW175256   5.384  12.228  11.357
57808SOL    HW275257   5.320  12.362  11.384
57809SOL     OW75258  13.422   1.180  12.422
57809SOL    HW175259  13.438   1.267  12.457
57809SOL    HW275260  13.487   1.170  12.353
57810SOL     OW75261   8.245  13.134   5.379
57810SOL    HW175262   8.164  13.105   5.421
57810SOL    HW275263   8.304  13.058   5.385
57811SOL     OW75264   9.713   9.248   2.969
57811SOL    HW175265   9.676   9.332   2.940
57811SOL    HW275266   9.754   9.212   2.891
57812SOL     OW75267  12.273   4.889   1.801
57812SOL    HW175268  12.364   4.911   1.819
57812SOL    HW275269  12.247   4.948   1.731
57813SOL     OW75270  10.299   9.740   5.923
57813SOL    HW175271  10.207   9.748   5.948
57813SOL    HW275272  10.346   9.782   5.995
57814SOL     OW75273   9.746   8.404  10.118
57814SOL    HW175274   9.730   8.497  10.106
57814SOL    HW275275   9.733   8.366  10.031
57815SOL     OW75276   7.509  12.865   7.974
57815SOL    HW175277   7.496  12.901   8.062
57815SOL    HW275278   7.421  12.839   7.945
57816SOL     OW75279  13.386   1.763   5.848
57816SOL    HW175280  13.310   1.744   5.793
57816SOL    HW275281  13.375   1.854   5.875
57817SOL     OW75282   5.919   3.173   2.451
57817SOL    HW175283   5.858   3.150   2.381
57817SOL    HW275284   5.951   3.089   2.483
57818SOL     OW75285   3.717  10.163   1.205
57818SOL    HW175286   3.706  10.218   1.283
57818SOL    HW275287   3.798  10.193   1.166
57819SOL     OW75288   4.823   2.793  12.619
57819SOL    HW175289   4.760   2.804  12.548
57819SOL    HW275290   4.909   2.794  12.576
57820SOL     OW75291   5.128  13.935  11.928
57820SOL    HW175292   5.129  13.844  11.960
57820SOL    HW275293   5.173  13.984  11.997
57821SOL     OW75294   9.263   7.179  10.931
57821SOL    HW175295   9.317   7.191  10.853
57821SOL    HW275296   9.325   7.181  11.004
57822SOL     OW75297   5.297  12.237   6.528
57822SOL    HW175298   5.369  12.224   6.466
57822SOL    HW275299   5.242  12.159   6.518
57823SOL     OW75300  11.450   8.607   4.503
57823SOL    HW175301  11.509   8.549   4.455
57823SOL    HW275302  11.504   8.649   4.569
57824SOL     OW75303  14.848   1.909   8.714
57824SOL    HW175304   0.035   1.979   8.699
57824SOL    HW275305  14.857   1.852   8.639
57825SOL     OW75306  13.766   9.268   3.654
57825SOL    HW175307  13.799   9.353   3.681
57825SOL    HW275308  13.812   9.205   3.710
57826SOL     OW75309   9.237  12.002  14.629
57826SOL    HW175310   9.211  12.086  14.666
57826SOL    HW275311   9.174  11.987  14.558
57827SOL     OW75312  12.519   9.305   8.116
57827SOL    HW175313  12.500   9.222   8.072
57827SOL    HW275314  12.558   9.278   8.200
57828SOL     OW75315   5.369  13.739  11.921
57828SOL    HW175316   5.355  13.661  11.975
57828SOL    HW275317   5.406  13.705  11.839
57829SOL     OW75318   3.201   1.499  10.471
57829SOL    HW175319   3.226   1.410  10.496
57829SOL    HW275320   3.144   1.487  10.394
57830SOL     OW75321  14.695  10.916   1.574
57830SOL    HW175322  14.735  10.929   1.660
57830SOL    HW275323  14.748  10.848   1.533
57831SOL     OW75324   6.369   0.893  11.301
57831SOL    HW175325   6.372   0.844  11.220
57831SOL    HW275326   6.430   0.848  11.359
57832SOL     OW75327  12.329  14.572  13.724
57832SOL    HW175328  12.345  14.601  13.814
57832SOL    HW275329  12.283  14.645  13.683
57833SOL     OW75330   3.938   7.865   3.691
57833SOL    HW175331   3.966   7.888   3.780
57833SOL    HW275332   3.842   7.867   3.695
57834SOL     OW75333  10.342   0.720  13.328
57834SOL    HW175334  10.296   0.638  13.347
57834SOL    HW275335  10.379   0.746  13.412
57835SOL     OW75336  13.490   0.379   8.629
57835SOL    HW175337  13.547   0.414   8.698
57835SOL    HW275338  13.412   0.434   8.634
57836SOL     OW75339   5.938  10.402  12.327
57836SOL    HW175340   5.987  10.324  12.353
57836SOL    HW275341   5.905  10.438  12.410
57837SOL     OW75342   8.720   4.940  13.525
57837SOL    HW175343   8.697   5.011  13.584
57837SOL    HW275344   8.814   4.949  13.511
57838SOL     OW75345   0.375   7.304  10.288
57838SOL    HW175346   0.294   7.258  10.311
57838SOL    HW275347   0.417   7.321  10.372
57839SOL     OW75348  10.976   1.106   4.950
57839SOL    HW175349  11.007   1.017   4.935
57839SOL    HW275350  10.923   1.100   5.029
57840SOL     OW75351   3.552  13.498   3.043
57840SOL    HW175352   3.557  13.457   2.957
57840SOL    HW275353   3.584  13.431   3.104
57841SOL     OW75354  10.077   7.419  13.633
57841SOL    HW175355  10.128   7.362  13.576
57841SOL    HW275356  10.030   7.359  13.691
57842SOL     OW75357  10.537   5.027   1.634
57842SOL    HW175358  10.569   5.072   1.556
57842SOL    HW275359  10.496   4.947   1.601
57843SOL     OW75360  13.851   6.655   8.109
57843SOL    HW175361  13.908   6.629   8.037
57843SOL    HW275362  13.763   6.631   8.079
57844SOL     OW75363   0.088   3.979   3.964
57844SOL    HW175364   0.150   4.025   3.908
57844SOL    HW275365   0.078   4.035   4.041
57845SOL     OW75366   4.897   9.195  11.903
57845SOL    HW175367   4.804   9.196  11.884
57845SOL    HW275368   4.919   9.286  11.922
57846SOL     OW75369   7.366   1.105   2.508
57846SOL    HW175370   7.281   1.067   2.532
57846SOL    HW275371   7.427   1.071   2.574
57847SOL     OW75372  10.902  13.909   3.175
57847SOL    HW175373  10.986  13.916   3.131
57847SOL    HW275374  10.923  13.874   3.262
57848SOL     OW75375   5.822   6.963   9.071
57848SOL    HW175376   5.779   7.048   9.063
57848SOL    HW275377   5.915   6.984   9.081
57849SOL     OW75378  14.800   4.781   2.029
57849SOL    HW175379  14.794   4.807   1.937
57849SOL    HW275380  14.710   4.785   2.061
57850SOL     OW75381   1.120  14.200  14.476
57850SOL    HW175382   1.120  14.105  14.463
57850SOL    HW275383   1.182  14.233  14.410
57851SOL     OW75384  14.532   1.058  13.575
57851SOL    HW175385  14.480   1.138  13.577
57851SOL    HW275386  14.499   1.006  13.649
57852SOL     OW75387  14.744   5.456  13.070
57852SOL    HW175388  14.795   5.528  13.033
57852SOL    HW275389  14.691   5.497  13.138
57853SOL     OW75390   6.280   5.544   5.450
57853SOL    HW175391   6.344   5.503   5.509
57853SOL    HW275392   6.333   5.588   5.384
57854SOL     OW75393   5.883  13.635   4.105
57854SOL    HW175394   5.855  13.719   4.142
57854SOL    HW275395   5.880  13.574   4.178
57855SOL     OW75396  12.404   3.708  10.477
57855SOL    HW175397  12.474   3.766  10.508
57855SOL    HW275398  12.420   3.699  10.383
57856SOL     OW75399  13.533   0.095   0.599
57856SOL    HW175400  13.528   0.131   0.510
57856SOL    HW275401  13.593   0.021   0.591
57857SOL     OW75402  14.090   7.585   7.323
57857SOL    HW175403  14.031   7.656   7.301
57857SOL    HW275404  14.153   7.582   7.251
57858SOL     OW75405  14.538   1.225  11.241
57858SOL    HW175406  14.629   1.230  11.271
57858SOL    HW275407  14.516   1.315  11.216
57859SOL     OW75408   1.240   1.661   4.864
57859SOL    HW175409   1.219   1.625   4.778
57859SOL    HW275410   1.280   1.745   4.846
57860SOL     OW75411  13.686   5.066   5.054
57860SOL    HW175412  13.735   5.100   5.129
57860SOL    HW275413  13.686   4.971   5.067
57861SOL     OW75414   2.509   8.133  14.514
57861SOL    HW175415   2.591   8.166  14.478
57861SOL    HW275416   2.507   8.165  14.604
57862SOL     OW75417   9.706  12.699   0.967
57862SOL    HW175418   9.729  12.699   1.060
57862SOL    HW275419   9.623  12.651   0.962
57863SOL     OW75420   7.099   8.105   1.020
57863SOL    HW175421   7.145   8.097   0.936
57863SOL    HW275422   7.040   8.179   1.009
57864SOL     OW75423  13.547  14.438  12.130
57864SOL    HW175424  13.641  14.423  12.130
57864SOL    HW275425  13.534  14.506  12.196
57865SOL     OW75426  10.937   8.631   4.901
57865SOL    HW175427  11.002   8.561   4.887
57865SOL    HW275428  10.906   8.653   4.813
57866SOL     OW75429   6.416   8.521   1.948
57866SOL    HW175430   6.363   8.552   1.875
57866SOL    HW275431   6.443   8.601   1.993
57867SOL     OW75432  14.213  13.003  10.029
57867SOL    HW175433  14.242  13.084   9.988
57867SOL    HW275434  14.176  12.951   9.957
57868SOL     OW75435  10.089   7.334   2.372
57868SOL    HW175436  10.144   7.353   2.447
57868SOL    HW275437  10.009   7.296   2.410
57869SOL     OW75438  12.577  13.005  12.838
57869SOL    HW175439  12.521  12.994  12.915
57869SOL    HW275440  12.618  12.920  12.825
57870SOL     OW75441   0.837   3.013  14.258
57870SOL    HW175442   0.916   3.001  14.205
57870SOL    HW275443   0.869   3.023  14.348
57871SOL     OW75444   7.271   5.192  10.653
57871SOL    HW175445   7.346   5.144  10.687
57871SOL    HW275446   7.307   5.242  10.579
57872SOL     OW75447   6.119   3.890   8.211
57872SOL    HW175448   6.102   3.881   8.305
57872SOL    HW275449   6.142   3.982   8.200
57873SOL     OW75450   9.262   2.688   2.942
57873SOL    HW175451   9.329   2.639   2.896
57873SOL    HW275452   9.180   2.661   2.901
57874SOL     OW75453   7.086   7.809   4.662
57874SOL    HW175454   7.023   7.875   4.633
57874SOL    HW275455   7.169   7.856   4.669
57875SOL     OW75456   4.334   5.564  14.392
57875SOL    HW175457   4.329   5.615  14.473
57875SOL    HW275458   4.262   5.502  14.398
57876SOL     OW75459   5.846  12.460   2.043
57876SOL    HW175460   5.815  12.413   2.121
57876SOL    HW275461   5.897  12.395   1.994
57877SOL     OW75462   3.149  10.081   4.644
57877SOL    HW175463   3.078  10.144   4.655
57877SOL    HW275464   3.214  10.128   4.591
57878SOL     OW75465   4.877   5.691   7.757
57878SOL    HW175466   4.840   5.603   7.759
57878SOL    HW275467   4.806   5.746   7.723
57879SOL     OW75468   4.020   4.236   8.445
57879SOL    HW175469   4.115   4.230   8.455
57879SOL    HW275470   4.002   4.330   8.438
57880SOL     OW75471   3.863   4.712   0.929
57880SOL    HW175472   3.877   4.805   0.950
57880SOL    HW275473   3.939   4.689   0.875
57881SOL     OW75474   7.869  10.496   2.248
57881SOL    HW175475   7.870  10.476   2.154
57881SOL    HW275476   7.902  10.416   2.289
57882SOL     OW75477  11.592   0.622  10.108
57882SOL    HW175478  11.652   0.623  10.034
57882SOL    HW275479  11.646   0.599  10.184
57883SOL     OW75480  12.146   8.743  13.210
57883SOL    HW175481  12.137   8.833  13.180
57883SOL    HW275482  12.123   8.745  13.303
57884SOL     OW75483   0.780  10.381   9.263
57884SOL    HW175484   0.743  10.458   9.305
57884SOL    HW275485   0.842  10.416   9.199
57885SOL     OW75486  14.771  13.509   8.910
57885SOL    HW175487  14.771  13.587   8.854
57885SOL    HW275488  14.679  13.496   8.932
57886SOL     OW75489   4.670   3.781   6.630
57886SOL    HW175490   4.760   3.760   6.606
57886SOL    HW275491   4.634   3.823   6.552
57887SOL     OW75492  14.856  13.002   8.357
57887SOL    HW175493   0.031  13.031   8.281
57887SOL    HW275494  14.767  13.032   8.340
57888SOL     OW75495  13.405   7.510   0.500
57888SOL    HW175496  13.462   7.572   0.545
57888SOL    HW275497  13.419   7.527   0.407
57889SOL     OW75498   7.457   7.658  11.622
57889SOL    HW175499   7.376   7.703  11.598
57889SOL    HW275500   7.434   7.607  11.699
57890SOL     OW75501  13.214   8.172   7.194
57890SOL    HW175502  13.132   8.141   7.156
57890SOL    HW275503  13.212   8.267   7.183
57891SOL     OW75504  10.368  12.550  13.995
57891SOL    HW175505  10.285  12.596  14.004
57891SOL    HW275506  10.415  12.570  14.076
57892SOL     OW75507   7.625   0.174  12.930
57892SOL    HW175508   7.687   0.139  12.865
57892SOL    HW275509   7.540   0.170  12.886
57893SOL     OW75510   9.663  14.560  11.874
57893SOL    HW175511   9.757  14.552  11.887
57893SOL    HW275512   9.651  14.550  11.780
57894SOL     OW75513   0.874   2.389   5.521
57894SOL    HW175514   0.781   2.395   5.498
57894SOL    HW275515   0.879   2.425   5.610
57895SOL     OW75516  11.167   3.678   1.992
57895SOL    HW175517  11.172   3.773   1.979
57895SOL    HW275518  11.137   3.668   2.083
57896SOL     OW75519   9.959   3.407  13.615
57896SOL    HW175520  10.041   3.359  13.606
57896SOL    HW275521   9.904   3.373  13.544
57897SOL     OW75522   1.342   4.005   9.336
57897SOL    HW175523   1.266   3.956   9.368
57897SOL    HW275524   1.325   4.095   9.365
57898SOL     OW75525   4.547   6.266  11.105
57898SOL    HW175526   4.505   6.186  11.137
57898SOL    HW275527   4.548   6.255  11.010
57899SOL     OW75528   7.173   2.962  11.238
57899SOL    HW175529   7.137   2.936  11.322
57899SOL    HW275530   7.267   2.966  11.252
57900SOL     OW75531   7.110   1.303  12.388
57900SOL    HW175532   7.159   1.345  12.459
57900SOL    HW275533   7.162   1.320  12.310
57901SOL     OW75534  10.334   9.025   2.257
57901SOL    HW175535  10.323   8.962   2.328
57901SOL    HW275536  10.403   8.987   2.202
57902SOL     OW75537  13.725  12.849  12.034
57902SOL    HW175538  13.804  12.885  12.075
57902SOL    HW275539  13.727  12.756  12.056
57903SOL     OW75540  12.606   9.164   4.238
57903SOL    HW175541  12.661   9.223   4.186
57903SOL    HW275542  12.604   9.083   4.187
57904SOL     OW75543   0.098   3.614  12.088
57904SOL    HW175544   0.018   3.667  12.092
57904SOL    HW275545   0.116   3.592  12.179
57905SOL     OW75546  14.254  12.915   8.555
57905SOL    HW175547  14.167  12.954   8.548
57905SOL    HW275548  14.290  12.951   8.636
57906SOL     OW75549  12.281   5.615   1.343
57906SOL    HW175550  12.259   5.625   1.435
57906SOL    HW275551  12.279   5.704   1.308
57907SOL     OW75552   6.784  10.792   2.934
57907SOL    HW175553   6.822  10.772   2.849
57907SOL    HW275554   6.768  10.886   2.932
57908SOL     OW75555   3.600  14.428   2.421
57908SOL    HW175556   3.513  14.463   2.401
57908SOL    HW275557   3.658  14.503   2.415
57909SOL     OW75558   4.621   5.274  14.784
57909SOL    HW175559   4.556   5.273  14.714
57909SOL    HW275560   4.574   5.309  14.860
57910SOL     OW75561   0.909  11.689   5.966
57910SOL    HW175562   1.000  11.671   5.989
57910SOL    HW275563   0.899  11.653   5.879
57911SOL     OW75564   4.081   0.864   2.866
57911SOL    HW175565   4.154   0.925   2.869
57911SOL    HW275566   4.033   0.888   2.787
57912SOL     OW75567   7.258   3.539   0.057
57912SOL    HW175568   7.225   3.563  14.846
57912SOL    HW275569   7.239   3.615   0.112
57913SOL     OW75570   3.840   2.529   7.738
57913SOL    HW175571   3.853   2.553   7.830
57913SOL    HW275572   3.911   2.467   7.720
57914SOL     OW75573   0.061  12.168   8.740
57914SOL    HW175574   0.103  12.125   8.815
57914SOL    HW275575  14.843  12.158   8.757
57915SOL     OW75576  12.377  12.224   4.813
57915SOL    HW175577  12.334  12.143   4.788
57915SOL    HW275578  12.430  12.247   4.736
57916SOL     OW75579  11.086  11.852   0.115
57916SOL    HW175580  11.064  11.944   0.134
57916SOL    HW275581  11.180  11.853   0.100
57917SOL     OW75582   8.645   5.934   8.735
57917SOL    HW175583   8.576   5.903   8.677
57917SOL    HW275584   8.640   5.876   8.811
57918SOL     OW75585  10.706   9.265   6.513
57918SOL    HW175586  10.729   9.220   6.431
57918SOL    HW275587  10.623   9.308   6.493
57919SOL     OW75588  10.413   0.001  11.731
57919SOL    HW175589  10.499   0.042  11.740
57919SOL    HW275590  10.366   0.028  11.809
57920SOL     OW75591   1.386  10.607   7.251
57920SOL    HW175592   1.413  10.591   7.161
57920SOL    HW275593   1.368  10.701   7.255
57921SOL     OW75594  10.521   7.696   1.997
57921SOL    HW175595  10.538   7.743   1.915
57921SOL    HW275596  10.603   7.652   2.017
57922SOL     OW75597   4.740   8.136   3.025
57922SOL    HW175598   4.681   8.137   3.101
57922SOL    HW275599   4.702   8.071   2.966
57923SOL     OW75600   1.055   6.603   2.855
57923SOL    HW175601   1.056   6.514   2.890
57923SOL    HW275602   1.140   6.612   2.811
57924SOL     OW75603   2.211   9.926   2.446
57924SOL    HW175604   2.217   9.948   2.353
57924SOL    HW275605   2.236  10.007   2.491
57925SOL     OW75606   7.409   1.264   0.543
57925SOL    HW175607   7.418   1.247   0.449
57925SOL    HW275608   7.440   1.354   0.554
57926SOL     OW75609   0.441  11.403  10.557
57926SOL    HW175610   0.526  11.363  10.537
57926SOL    HW275611   0.455  11.446  10.642
57927SOL     OW75612   4.049   0.806   4.091
57927SOL    HW175613   4.011   0.874   4.035
57927SOL    HW275614   4.137   0.792   4.056
57928SOL     OW75615   4.406   1.572   8.638
57928SOL    HW175616   4.444   1.566   8.725
57928SOL    HW275617   4.446   1.500   8.589
57929SOL     OW75618   5.040   1.952  11.430
57929SOL    HW175619   5.124   1.913  11.454
57929SOL    HW275620   5.038   1.947  11.334
57930SOL     OW75621   8.208   3.440   7.774
57930SOL    HW175622   8.163   3.448   7.690
57930SOL    HW275623   8.165   3.504   7.831
57931SOL     OW75624   8.911   0.413  11.454
57931SOL    HW175625   8.869   0.439  11.372
57931SOL    HW275626   8.841   0.373  11.506
57932SOL     OW75627   7.233   1.627   7.230
57932SOL    HW175628   7.138   1.639   7.228
57932SOL    HW275629   7.257   1.646   7.320
57933SOL     OW75630  14.855   7.595  11.173
57933SOL    HW175631  14.852   7.522  11.235
57933SOL    HW275632   0.061   7.583  11.126
57934SOL     OW75633  11.436   4.572   6.479
57934SOL    HW175634  11.395   4.575   6.392
57934SOL    HW275635  11.364   4.590   6.540
57935SOL     OW75636  10.805   2.645  12.625
57935SOL    HW175637  10.773   2.556  12.636
57935SOL    HW275638  10.900   2.638  12.632
57936SOL     OW75639   3.912   9.264   8.914
57936SOL    HW175640   3.960   9.248   8.833
57936SOL    HW275641   3.820   9.263   8.888
57937SOL     OW75642   5.770   0.814   3.204
57937SOL    HW175643   5.738   0.728   3.233
57937SOL    HW275644   5.717   0.835   3.127
57938SOL     OW75645   4.854   2.691   5.779
57938SOL    HW175646   4.765   2.727   5.777
57938SOL    HW275647   4.884   2.707   5.868
57939SOL     OW75648  14.620   2.780   8.233
57939SOL    HW175649  14.615   2.689   8.261
57939SOL    HW275650  14.573   2.829   8.300
57940SOL     OW75651  13.150   8.872   0.701
57940SOL    HW175652  13.126   8.944   0.643
57940SOL    HW275653  13.068   8.846   0.743
57941SOL     OW75654   3.144  12.529   2.558
57941SOL    HW175655   3.062  12.481   2.551
57941SOL    HW275656   3.167  12.523   2.651
57942SOL     OW75657  12.387   8.163  14.873
57942SOL    HW175658  12.355   8.181   0.086
57942SOL    HW275659  12.410   8.249  14.839
57943SOL     OW75660  11.689   3.276  14.344
57943SOL    HW175661  11.600   3.298  14.371
57943SOL    HW275662  11.690   3.180  14.341
57944SOL     OW75663   5.398   1.216   8.633
57944SOL    HW175664   5.347   1.211   8.552
57944SOL    HW275665   5.347   1.271   8.691
57945SOL     OW75666  14.824   6.843   4.191
57945SOL    HW175667  14.776   6.766   4.161
57945SOL    HW275668  14.757   6.897   4.233
57946SOL     OW75669   7.914  13.181   4.064
57946SOL    HW175670   7.995  13.145   4.099
57946SOL    HW275671   7.943  13.241   3.995
57947SOL     OW75672  10.517  13.170  13.888
57947SOL    HW175673  10.603  13.170  13.929
57947SOL    HW275674  10.462  13.119  13.948
57948SOL     OW75675  12.424   4.804   2.689
57948SOL    HW175676  12.471   4.830   2.768
57948SOL    HW275677  12.432   4.708   2.686
57949SOL     OW75678  10.342  13.509  14.522
57949SOL    HW175679  10.414  13.543  14.469
57949SOL    HW275680  10.306  13.437  14.471
57950SOL     OW75681   5.465   2.011   1.352
57950SOL    HW175682   5.554   2.007   1.388
57950SOL    HW275683   5.468   1.952   1.276
57951SOL     OW75684   4.903   0.623  11.121
57951SOL    HW175685   4.985   0.574  11.130
57951SOL    HW275686   4.841   0.576  11.178
57952SOL     OW75687   6.529  11.033   4.001
57952SOL    HW175688   6.508  11.101   3.937
57952SOL    HW275689   6.618  11.055   4.030
57953SOL     OW75690   9.336   6.457  14.756
57953SOL    HW175691   9.348   6.549  14.734
57953SOL    HW275692   9.421   6.429  14.791
57954SOL     OW75693   0.841   4.182   2.000
57954SOL    HW175694   0.857   4.161   2.093
57954SOL    HW275695   0.914   4.140   1.954
57955SOL     OW75696   7.028  13.192   1.053
57955SOL    HW175697   7.050  13.099   1.049
57955SOL    HW275698   7.113  13.236   1.044
57956SOL     OW75699   1.364  10.918   5.243
57956SOL    HW175700   1.362  10.828   5.276
57956SOL    HW275701   1.374  10.909   5.148
57957SOL     OW75702  14.126   6.980   4.226
57957SOL    HW175703  14.159   6.963   4.314
57957SOL    HW275704  14.053   7.041   4.239
57958SOL     OW75705   8.327  12.212   1.494
57958SOL    HW175706   8.366  12.299   1.506
57958SOL    HW275707   8.344  12.192   1.402
57959SOL     OW75708   8.290   2.923  11.300
57959SOL    HW175709   8.255   2.874  11.225
57959SOL    HW275710   8.344   2.859  11.347
57960SOL     OW75711   7.522  14.068   0.882
57960SOL    HW175712   7.494  13.981   0.856
57960SOL    HW275713   7.450  14.102   0.936
57961SOL     OW75714  13.202   9.060   4.868
57961SOL    HW175715  13.200   9.130   4.803
57961SOL    HW275716  13.120   9.011   4.854
57962SOL     OW75717   3.839  12.299   5.932
57962SOL    HW175718   3.848  12.238   6.005
57962SOL    HW275719   3.844  12.386   5.973
57963SOL     OW75720   2.119   7.506   6.429
57963SOL    HW175721   2.104   7.600   6.435
57963SOL    HW275722   2.206   7.493   6.466
57964SOL     OW75723   9.143   8.357   2.920
57964SOL    HW175724   9.076   8.291   2.902
57964SOL    HW275725   9.095   8.432   2.953
57965SOL     OW75726   5.928   1.420  14.337
57965SOL    HW175727   5.936   1.508  14.373
57965SOL    HW275728   5.840   1.392  14.361
57966SOL     OW75729   7.020  11.761   8.757
57966SOL    HW175730   7.056  11.672   8.750
57966SOL    HW275731   6.928  11.748   8.778
57967SOL     OW75732  11.614   2.921   0.150
57967SOL    HW175733  11.571   2.860   0.091
57967SOL    HW275734  11.602   2.883   0.237
57968SOL     OW75735   4.824   0.737   9.051
57968SOL    HW175736   4.791   0.766   9.136
57968SOL    HW275737   4.903   0.687   9.071
57969SOL     OW75738   3.188   9.400   1.084
57969SOL    HW175739   3.272   9.442   1.102
57969SOL    HW275740   3.126   9.472   1.074
57970SOL     OW75741  13.196  10.261   6.609
57970SOL    HW175742  13.185  10.213   6.691
57970SOL    HW275743  13.113  10.307   6.597
57971SOL     OW75744   1.150   9.858   3.149
57971SOL    HW175745   1.184   9.931   3.098
57971SOL    HW275746   1.055   9.865   3.141
57972SOL     OW75747  12.657   5.904  13.270
57972SOL    HW175748  12.597   5.860  13.331
57972SOL    HW275749  12.741   5.902  13.315
57973SOL     OW75750  14.341  11.074   0.629
57973SOL    HW175751  14.374  11.040   0.545
57973SOL    HW275752  14.263  11.124   0.605
57974SOL     OW75753  14.673   6.033   9.696
57974SOL    HW175754  14.667   5.987   9.780
57974SOL    HW275755  14.750   5.996   9.654
57975SOL     OW75756   3.054  11.376  13.091
57975SOL    HW175757   3.145  11.401  13.108
57975SOL    HW275758   3.049  11.364  12.996
57976SOL     OW75759   1.521  10.520  11.922
57976SOL    HW175760   1.594  10.581  11.935
57976SOL    HW275761   1.563  10.434  11.916
57977SOL     OW75762   6.743  11.746  10.717
57977SOL    HW175763   6.693  11.792  10.649
57977SOL    HW275764   6.834  11.758  10.692
57978SOL     OW75765   3.535   6.674   6.100
57978SOL    HW175766   3.538   6.743   6.033
57978SOL    HW275767   3.626   6.660   6.125
57979SOL     OW75768   7.373   9.045   1.211
57979SOL    HW175769   7.426   9.081   1.283
57979SOL    HW275770   7.291   9.093   1.217
57980SOL     OW75771   3.883   7.541   0.384
57980SOL    HW175772   3.840   7.491   0.315
57980SOL    HW275773   3.924   7.615   0.338
57981SOL     OW75774   7.229   9.040   5.812
57981SOL    HW175775   7.302   8.981   5.795
57981SOL    HW275776   7.185   9.050   5.728
57982SOL     OW75777   0.356  10.024   0.581
57982SOL    HW175778   0.415  10.024   0.657
57982SOL    HW275779   0.271  10.051   0.616
57983SOL     OW75780  12.208  14.330   1.549
57983SOL    HW175781  12.133  14.385   1.574
57983SOL    HW275782  12.280  14.362   1.603
57984SOL     OW75783   2.963   6.593   6.204
57984SOL    HW175784   2.982   6.639   6.286
57984SOL    HW275785   3.024   6.520   6.202
57985SOL     OW75786   9.520  10.027   3.269
57985SOL    HW175787   9.506  10.017   3.175
57985SOL    HW275788   9.559   9.945   3.297
57986SOL     OW75789  10.532   2.243   6.906
57986SOL    HW175790  10.520   2.242   6.811
57986SOL    HW275791  10.443   2.257   6.940
57987SOL     OW75792  13.693   4.432  14.573
57987SOL    HW175793  13.787   4.447  14.564
57987SOL    HW275794  13.659   4.432  14.484
57988SOL     OW75795   7.685   1.912   4.481
57988SOL    HW175796   7.612   1.851   4.478
57988SOL    HW275797   7.757   1.867   4.437
57989SOL     OW75798   3.207   4.561   0.939
57989SOL    HW175799   3.270   4.492   0.961
57989SOL    HW275800   3.239   4.596   0.856
57990SOL     OW75801   6.904  13.843   9.782
57990SOL    HW175802   6.884  13.770   9.723
57990SOL    HW275803   6.855  13.917   9.746
57991SOL     OW75804   7.399   5.949  11.056
57991SOL    HW175805   7.481   5.998  11.043
57991SOL    HW275806   7.333   6.001  11.011
57992SOL     OW75807   3.415   9.790   4.680
57992SOL    HW175808   3.348   9.721   4.676
57992SOL    HW275809   3.451   9.792   4.591
57993SOL     OW75810  14.111   7.326   0.409
57993SOL    HW175811  14.026   7.294   0.439
57993SOL    HW275812  14.104   7.325   0.313
57994SOL     OW75813   3.294   7.933   7.801
57994SOL    HW175814   3.326   7.878   7.872
57994SOL    HW275815   3.205   7.902   7.785
57995SOL     OW75816  10.589   0.292   5.634
57995SOL    HW175817  10.623   0.354   5.698
57995SOL    HW275818  10.661   0.230   5.620
57996SOL     OW75819  12.566   4.519  13.644
57996SOL    HW175820  12.545   4.575  13.569
57996SOL    HW275821  12.635   4.461  13.611
57997SOL     OW75822  14.350  14.374   1.441
57997SOL    HW175823  14.394  14.410   1.517
57997SOL    HW275824  14.397  14.411   1.366
57998SOL     OW75825   3.331   4.762   1.590
57998SOL    HW175826   3.362   4.744   1.501
57998SOL    HW275827   3.398   4.723   1.647
57999SOL     OW75828   7.479  12.862   6.457
57999SOL    HW175829   7.458  12.954   6.444
57999SOL    HW275830   7.425  12.815   6.394
58000SOL     OW75831   0.873   4.315  14.458
58000SOL    HW175832   0.866   4.331  14.552
58000SOL    HW275833   0.852   4.222  14.448
58001SOL     OW75834   2.032  11.623   5.040
58001SOL    HW175835   1.969  11.557   5.066
58001SOL    HW275836   2.094  11.628   5.112
58002SOL     OW75837  12.013  11.388   9.976
58002SOL    HW175838  12.108  11.393   9.967
58002SOL    HW275839  11.988  11.314   9.922
58003SOL     OW75840   2.057   5.842   5.775
58003SOL    HW175841   2.133   5.872   5.725
58003SOL    HW275842   2.094   5.785   5.842
58004SOL     OW75843  10.085   6.066   8.350
58004SOL    HW175844  10.036   6.146   8.330
58004SOL    HW275845  10.173   6.096   8.373
58005SOL     OW75846  14.009   7.941   6.431
58005SOL    HW175847  14.015   7.904   6.343
58005SOL    HW275848  14.008   7.865   6.489
58006SOL     OW75849   2.684   3.110   2.699
58006SOL    HW175850   2.695   3.157   2.617
58006SOL    HW275851   2.602   3.144   2.735
58007SOL     OW75852  13.277   5.314   0.252
58007SOL    HW175853  13.371   5.308   0.236
58007SOL    HW275854  13.268   5.321   0.347
58008SOL     OW75855   0.579   8.358   1.518
58008SOL    HW175856   0.505   8.343   1.460
58008SOL    HW275857   0.625   8.275   1.520
58009SOL     OW75858  11.067   2.620   6.389
58009SOL    HW175859  11.014   2.696   6.414
58009SOL    HW275860  11.135   2.615   6.456
58010SOL     OW75861   1.161   4.669  13.569
58010SOL    HW175862   1.176   4.684  13.662
58010SOL    HW275863   1.069   4.694  13.555
58011SOL     OW75864   4.506   5.751   8.934
58011SOL    HW175865   4.443   5.680   8.920
58011SOL    HW275866   4.585   5.707   8.965
58012SOL     OW75867  10.472   2.187  13.477
58012SOL    HW175868  10.383   2.157  13.458
58012SOL    HW275869  10.507   2.214  13.392
58013SOL     OW75870  11.667   0.324  11.371
58013SOL    HW175871  11.708   0.363  11.448
58013SOL    HW275872  11.649   0.398  11.313
58014SOL     OW75873   7.201  10.398  14.706
58014SOL    HW175874   7.242  10.322  14.665
58014SOL    HW275875   7.139  10.360  14.769
58015SOL     OW75876   2.206  14.279   8.090
58015SOL    HW175877   2.172  14.247   8.173
58015SOL    HW275878   2.230  14.200   8.041
58016SOL     OW75879   1.857  13.034   3.684
58016SOL    HW175880   1.934  13.061   3.735
58016SOL    HW275881   1.893  12.990   3.608
58017SOL     OW75882  13.213   0.427   0.968
58017SOL    HW175883  13.295   0.383   0.990
58017SOL    HW275884  13.172   0.447   1.052
58018SOL     OW75885   3.193   0.263  13.617
58018SOL    HW175886   3.265   0.291  13.674
58018SOL    HW275887   3.204   0.168  13.610
58019SOL     OW75888   0.570   1.880   2.917
58019SOL    HW175889   0.656   1.878   2.874
58019SOL    HW275890   0.522   1.806   2.878
58020SOL     OW75891   3.621  10.856  11.867
58020SOL    HW175892   3.649  10.862  11.775
58020SOL    HW275893   3.673  10.922  11.912
58021SOL     OW75894  10.965   9.385   3.672
58021SOL    HW175895  11.021   9.453   3.634
58021SOL    HW275896  10.891   9.434   3.709
58022SOL     OW75897   0.394   8.050   0.809
58022SOL    HW175898   0.487   8.035   0.829
58022SOL    HW275899   0.395   8.125   0.750
58023SOL     OW75900   1.710   0.474  11.978
58023SOL    HW175901   1.674   0.496  12.064
58023SOL    HW275902   1.658   0.399  11.950
58024SOL     OW75903   7.905   6.731   9.397
58024SOL    HW175904   7.965   6.781   9.342
58024SOL    HW275905   7.957   6.657   9.429
58025SOL     OW75906  12.951  12.550   9.423
58025SOL    HW175907  13.000  12.521   9.345
58025SOL    HW275908  13.018  12.562   9.490
58026SOL     OW75909  11.201   7.283  14.334
58026SOL    HW175910  11.190   7.295  14.240
58026SOL    HW275911  11.289   7.248  14.344
58027SOL     OW75912   1.661   3.444   9.584
58027SOL    HW175913   1.706   3.387   9.646
58027SOL    HW275914   1.568   3.427   9.598
58028SOL     OW75915   9.150   0.972  13.131
58028SOL    HW175916   9.245   0.971  13.135
58028SOL    HW275917   9.128   1.060  13.100
58029SOL     OW75918   3.098   0.748  11.845
58029SOL    HW175919   3.143   0.684  11.790
58029SOL    HW275920   3.005   0.730  11.832
58030SOL     OW75921   0.858  13.556  14.432
58030SOL    HW175922   0.766  13.579  14.447
58030SOL    HW275923   0.905  13.639  14.437
58031SOL     OW75924  13.629  13.935  12.152
58031SOL    HW175925  13.673  13.868  12.099
58031SOL    HW275926  13.538  13.933  12.123
58032SOL     OW75927   8.188  13.343  11.439
58032SOL    HW175928   8.162  13.257  11.472
58032SOL    HW275929   8.130  13.405  11.483
58033SOL     OW75930   3.253  13.093  11.821
58033SOL    HW175931   3.217  13.015  11.863
58033SOL    HW275932   3.209  13.166  11.866
58034SOL     OW75933   4.594   7.796   2.528
58034SOL    HW175934   4.638   7.864   2.477
58034SOL    HW275935   4.501   7.821   2.525
58035SOL     OW75936  14.175   3.014   6.762
58035SOL    HW175937  14.225   3.070   6.821
58035SOL    HW275938  14.085   3.045   6.771
58036SOL     OW75939   6.937  12.085   6.119
58036SOL    HW175940   6.992  12.018   6.159
58036SOL    HW275941   6.917  12.145   6.190
58037SOL     OW75942   4.881  14.471   2.321
58037SOL    HW175943   4.954  14.515   2.366
58037SOL    HW275944   4.861  14.527   2.247
58038SOL     OW75945   3.207  14.785  10.771
58038SOL    HW175946   3.123  14.743  10.791
58038SOL    HW275947   3.195  14.822  10.684
58039SOL     OW75948   7.597   5.609   9.454
58039SOL    HW175949   7.641   5.524   9.456
58039SOL    HW275950   7.636   5.658   9.526
58040SOL     OW75951   0.065   2.409   4.285
58040SOL    HW175952  14.863   2.378   4.330
58040SOL    HW275953   0.061   2.505   4.294
58041SOL     OW75954   4.449   1.666  14.058
58041SOL    HW175955   4.437   1.589  14.114
58041SOL    HW275956   4.471   1.629  13.972
58042SOL     OW75957   6.329  10.972   4.637
58042SOL    HW175958   6.324  10.971   4.732
58042SOL    HW275959   6.417  10.939   4.617
58043SOL     OW75960   0.316  12.365   3.517
58043SOL    HW175961   0.222  12.385   3.510
58043SOL    HW275962   0.359  12.448   3.497
58044SOL     OW75963  13.819   9.387   4.494
58044SOL    HW175964  13.808   9.353   4.405
58044SOL    HW275965  13.904   9.431   4.492
58045SOL     OW75966  12.032   6.682  14.366
58045SOL    HW175967  12.036   6.593  14.331
58045SOL    HW275968  12.108   6.726  14.327
58046SOL     OW75969  10.855   7.396   6.287
58046SOL    HW175970  10.940   7.430   6.260
58046SOL    HW275971  10.809   7.378   6.205
58047SOL     OW75972   9.955   2.996   7.388
58047SOL    HW175973   9.902   3.010   7.309
58047SOL    HW275974  10.022   2.933   7.361
58048SOL     OW75975   1.169  13.139   5.514
58048SOL    HW175976   1.107  13.212   5.501
58048SOL    HW275977   1.196  13.116   5.425
58049SOL     OW75978   6.541   8.272  12.327
58049SOL    HW175979   6.488   8.208  12.375
58049SOL    HW275980   6.544   8.238  12.237
58050SOL     OW75981   0.812   1.221   2.902
58050SOL    HW175982   0.725   1.234   2.940
58050SOL    HW275983   0.834   1.131   2.923
58051SOL     OW75984   5.501  12.629   2.519
58051SOL    HW175985   5.591  12.600   2.538
58051SOL    HW275986   5.496  12.715   2.560
58052SOL     OW75987   4.364   4.876  10.216
58052SOL    HW175988   4.330   4.807  10.159
58052SOL    HW275989   4.293   4.893  10.278
58053SOL     OW75990   3.797   3.602   8.462
58053SOL    HW175991   3.799   3.697   8.459
58053SOL    HW275992   3.855   3.578   8.535
58054SOL     OW75993   4.585   5.334   5.877
58054SOL    HW175994   4.535   5.375   5.806
58054SOL    HW275995   4.662   5.390   5.887
58055SOL     OW75996  11.524   5.167   9.247
58055SOL    HW175997  11.609   5.184   9.288
58055SOL    HW275998  11.474   5.119   9.313
58056SOL     OW75999  13.446  11.844  10.569
58056SOL    HW176000  13.538  11.867  10.584
58056SOL    HW276001  13.439  11.836  10.474
58057SOL     OW76002   5.243   2.195  14.858
58057SOL    HW176003   5.172   2.154  14.809
58057SOL    HW276004   5.261   2.276  14.810
58058SOL     OW76005   6.524   7.755  10.225
58058SOL    HW176006   6.519   7.838  10.271
58058SOL    HW276007   6.532   7.689  10.294
58059SOL     OW76008   9.079   8.011   0.160
58059SOL    HW176009   9.117   8.096   0.182
58059SOL    HW276010   9.111   7.992   0.072
58060SOL     OW76011  14.516   7.788   6.641
58060SOL    HW176012  14.508   7.830   6.556
58060SOL    HW276013  14.605   7.752   6.642
58061SOL     OW76014   7.335   4.003  10.488
58061SOL    HW176015   7.372   4.064  10.552
58061SOL    HW276016   7.405   3.941  10.469
58062SOL     OW76017  13.264   9.938   6.971
58062SOL    HW176018  13.286   9.903   7.058
58062SOL    HW276019  13.316  10.018   6.965
58063SOL     OW76020   1.918   2.190   2.038
58063SOL    HW176021   1.890   2.138   2.113
58063SOL    HW276022   1.979   2.132   1.991
58064SOL     OW76023   9.085   9.927   3.011
58064SOL    HW176024   9.015   9.933   2.946
58064SOL    HW276025   9.054   9.861   3.073
58065SOL     OW76026  13.851  14.069   5.396
58065SOL    HW176027  13.759  14.062   5.419
58065SOL    HW276028  13.852  14.103   5.306
58066SOL     OW76029   0.000   4.023   6.349
58066SOL    HW176030   0.011   4.095   6.287
58066SOL    HW276031  14.781   4.017   6.362
58067SOL     OW76032   6.689   2.299   5.505
58067SOL    HW176033   6.682   2.221   5.451
58067SOL    HW276034   6.607   2.303   5.554
58068SOL     OW76035   3.878   1.040  12.816
58068SOL    HW176036   3.837   1.029  12.731
58068SOL    HW276037   3.829   1.113  12.856
58069SOL     OW76038  10.191  14.074   5.791
58069SOL    HW176039  10.175  14.163   5.761
58069SOL    HW276040  10.109  14.027   5.772
58070SOL     OW76041   4.237   3.730   0.826
58070SOL    HW176042   4.214   3.672   0.754
58070SOL    HW276043   4.186   3.697   0.900
58071SOL     OW76044   4.107   4.300   6.503
58071SOL    HW176045   4.169   4.230   6.521
58071SOL    HW276046   4.026   4.272   6.548
58072SOL     OW76047   9.585   7.719   0.278
58072SOL    HW176048   9.508   7.672   0.245
58072SOL    HW276049   9.553   7.764   0.356
58073SOL     OW76050  11.423   7.449   6.821
58073SOL    HW176051  11.357   7.466   6.754
58073SOL    HW276052  11.372   7.429   6.900
58074SOL     OW76053   2.364   0.419   0.793
58074SOL    HW176054   2.425   0.450   0.860
58074SOL    HW276055   2.279   0.453   0.820
58075SOL     OW76056  13.754  14.199  12.892
58075SOL    HW176057  13.715  14.178  12.977
58075SOL    HW276058  13.737  14.121  12.838
58076SOL     OW76059   4.829   8.233   7.642
58076SOL    HW176060   4.847   8.327   7.648
58076SOL    HW276061   4.896   8.192   7.697
58077SOL     OW76062   2.376   6.337   9.357
58077SOL    HW176063   2.348   6.418   9.316
58077SOL    HW276064   2.423   6.364   9.437
58078SOL     OW76065   0.481  13.340   3.975
58078SOL    HW176066   0.455  13.351   4.067
58078SOL    HW276067   0.553  13.402   3.963
58079SOL     OW76068   4.334   3.847  12.532
58079SOL    HW176069   4.349   3.786  12.460
58079SOL    HW276070   4.372   3.930  12.503
58080SOL     OW76071   9.626   9.742  14.517
58080SOL    HW176072   9.625   9.834  14.492
58080SOL    HW276073   9.648   9.743  14.610
58081SOL     OW76074   7.011   2.476   2.615
58081SOL    HW176075   7.028   2.419   2.541
58081SOL    HW276076   6.991   2.417   2.688
58082SOL     OW76077  11.534  14.153  10.217
58082SOL    HW176078  11.589  14.203  10.277
58082SOL    HW276079  11.507  14.216  10.150
58083SOL     OW76080  12.017   1.628   4.113
58083SOL    HW176081  12.052   1.686   4.180
58083SOL    HW276082  12.055   1.659   4.031
58084SOL     OW76083  10.650  13.981   9.977
58084SOL    HW176084  10.729  13.975   9.924
58084SOL    HW276085  10.644  14.074  10.000
58085SOL     OW76086   5.140  13.212  14.267
58085SOL    HW176087   5.203  13.261  14.320
58085SOL    HW276088   5.072  13.276  14.246
58086SOL     OW76089  11.056  12.603   4.919
58086SOL    HW176090  11.090  12.514   4.921
58086SOL    HW276091  10.962  12.594   4.935
58087SOL     OW76092   4.957  12.805   1.806
58087SOL    HW176093   5.007  12.777   1.883
58087SOL    HW276094   4.874  12.837   1.842
58088SOL     OW76095   3.535  11.376   0.137
58088SOL    HW176096   3.527  11.387   0.042
58088SOL    HW276097   3.580  11.293   0.147
58089SOL     OW76098   8.984  11.629   9.878
58089SOL    HW176099   9.028  11.611   9.962
58089SOL    HW276100   8.998  11.549   9.827
58090SOL     OW76101   9.880  13.753  12.637
58090SOL    HW176102   9.965  13.711  12.619
58090SOL    HW276103   9.832  13.745  12.554
58091SOL     OW76104  10.783   4.003  12.394
58091SOL    HW176105  10.767   4.081  12.340
58091SOL    HW276106  10.744   4.025  12.478
58092SOL     OW76107   8.604  10.033   5.884
58092SOL    HW176108   8.540   9.984   5.935
58092SOL    HW276109   8.622   9.976   5.808
58093SOL     OW76110   9.397  10.910  12.349
58093SOL    HW176111   9.437  10.970  12.286
58093SOL    HW276112   9.313  10.886  12.310
58094SOL     OW76113  14.194   2.677  10.904
58094SOL    HW176114  14.111   2.659  10.948
58094SOL    HW276115  14.211   2.598  10.852
58095SOL     OW76116  10.647   0.729  13.194
58095SOL    HW176117  10.631   0.770  13.109
58095SOL    HW276118  10.742   0.719  13.200
58096SOL     OW76119   5.337   3.044   7.213
58096SOL    HW176120   5.288   3.008   7.287
58096SOL    HW276121   5.377   2.968   7.171
58097SOL     OW76122   8.207   9.314  14.471
58097SOL    HW176123   8.248   9.281  14.391
58097SOL    HW276124   8.275   9.367  14.512
58098SOL     OW76125  11.183  13.178   7.809
58098SOL    HW176126  11.089  13.193   7.802
58098SOL    HW276127  11.222  13.242   7.750
58099SOL     OW76128   4.263   8.654   6.138
58099SOL    HW176129   4.307   8.654   6.053
58099SOL    HW276130   4.277   8.743   6.172
58100SOL     OW76131   5.967   4.636   6.572
58100SOL    HW176132   5.997   4.682   6.650
58100SOL    HW276133   5.944   4.548   6.603
58101SOL     OW76134   3.261   5.167   4.938
58101SOL    HW176135   3.305   5.106   4.879
58101SOL    HW276136   3.178   5.124   4.960
58102SOL     OW76137   8.864  11.464   4.064
58102SOL    HW176138   8.885  11.556   4.080
58102SOL    HW276139   8.939  11.416   4.099
58103SOL     OW76140   7.480   1.726   4.861
58103SOL    HW176141   7.445   1.756   4.945
58103SOL    HW276142   7.449   1.791   4.798
58104SOL     OW76143  10.591   5.193  11.581
58104SOL    HW176144  10.687   5.200  11.582
58104SOL    HW276145  10.563   5.236  11.661
58105SOL     OW76146   8.748   5.209  10.754
58105SOL    HW176147   8.814   5.263  10.796
58105SOL    HW276148   8.790   5.123  10.742
58106SOL     OW76149   6.481   4.606   7.167
58106SOL    HW176150   6.501   4.685   7.217
58106SOL    HW276151   6.432   4.551   7.228
58107SOL     OW76152   3.248   9.878  12.944
58107SOL    HW176153   3.292   9.944  12.997
58107SOL    HW276154   3.310   9.857  12.875
58108SOL     OW76155   0.438   1.210  14.181
58108SOL    HW176156   0.458   1.268  14.254
58108SOL    HW276157   0.502   1.139  14.188
58109SOL     OW76158   2.991   2.289  13.932
58109SOL    HW176159   3.082   2.319  13.920
58109SOL    HW276160   2.964   2.328  14.015
58110SOL     OW76161   6.531   9.661   0.091
58110SOL    HW176162   6.520   9.566   0.091
58110SOL    HW276163   6.489   9.691   0.172
58111SOL     OW76164   5.133   7.362   0.905
58111SOL    HW176165   5.191   7.418   0.957
58111SOL    HW276166   5.186   7.334   0.831
58112SOL     OW76167   7.410   6.881   1.660
58112SOL    HW176168   7.435   6.843   1.576
58112SOL    HW276169   7.371   6.966   1.638
58113SOL     OW76170   5.665   1.314   8.194
58113SOL    HW176171   5.607   1.278   8.127
58113SOL    HW276172   5.753   1.305   8.158
58114SOL     OW76173   1.189  14.718  13.395
58114SOL    HW176174   1.200  14.667  13.315
58114SOL    HW276175   1.137  14.793  13.369
58115SOL     OW76176   1.807   8.380   5.100
58115SOL    HW176177   1.900   8.386   5.079
58115SOL    HW276178   1.778   8.470   5.109
58116SOL     OW76179  13.512   2.557  13.100
58116SOL    HW176180  13.536   2.606  13.179
58116SOL    HW276181  13.548   2.469  13.114
58117SOL     OW76182  12.298   6.858  14.546
58117SOL    HW176183  12.266   6.885  14.460
58117SOL    HW276184  12.220   6.822  14.590
58118SOL     OW76185  11.054   4.751  14.070
58118SOL    HW176186  11.098   4.690  14.130
58118SOL    HW276187  10.968   4.766  14.109
58119SOL     OW76188   1.703   6.552  12.330
58119SOL    HW176189   1.781   6.591  12.292
58119SOL    HW276190   1.702   6.462  12.296
58120SOL     OW76191   8.648   6.881   3.595
58120SOL    HW176192   8.615   6.824   3.665
58120SOL    HW276193   8.687   6.822   3.531
58121SOL     OW76194   6.462  12.808   9.273
58121SOL    HW176195   6.555  12.830   9.272
58121SOL    HW276196   6.442  12.783   9.182
58122SOL     OW76197   4.551   0.939   8.527
58122SOL    HW176198   4.646   0.944   8.512
58122SOL    HW276199   4.516   1.019   8.488
58123SOL     OW76200   3.211   7.375   6.148
58123SOL    HW176201   3.245   7.380   6.059
58123SOL    HW276202   3.117   7.387   6.138
58124SOL     OW76203   5.161   8.739   3.238
58124SOL    HW176204   5.160   8.648   3.207
58124SOL    HW276205   5.200   8.789   3.166
58125SOL     OW76206   9.851  14.154   4.843
58125SOL    HW176207   9.797  14.076   4.858
58125SOL    HW276208   9.881  14.179   4.930
58126SOL     OW76209   5.676   2.400   9.642
58126SOL    HW176210   5.604   2.458   9.667
58126SOL    HW276211   5.738   2.457   9.596
58127SOL     OW76212   2.079  10.804  11.270
58127SOL    HW176213   2.098  10.871  11.205
58127SOL    HW276214   2.015  10.845  11.329
58128SOL     OW76215   4.983   3.763   5.173
58128SOL    HW176216   5.057   3.797   5.123
58128SOL    HW276217   5.021   3.736   5.257
58129SOL     OW76218   1.782   9.664   9.931
58129SOL    HW176219   1.859   9.657   9.987
58129SOL    HW276220   1.773   9.758   9.914
58130SOL     OW76221   1.481   8.983   0.032
58130SOL    HW176222   1.395   9.025   0.038
58130SOL    HW276223   1.480   8.916   0.101
58131SOL     OW76224   3.844   1.113   0.895
58131SOL    HW176225   3.923   1.147   0.854
58131SOL    HW276226   3.847   1.147   0.984
58132SOL     OW76227  14.120   1.028  14.633
58132SOL    HW176228  14.032   1.066  14.625
58132SOL    HW276229  14.173   1.076  14.569
58133SOL     OW76230   1.484   2.772   3.253
58133SOL    HW176231   1.449   2.859   3.269
58133SOL    HW276232   1.453   2.719   3.327
58134SOL     OW76233   4.417   7.491   7.674
58134SOL    HW176234   4.457   7.430   7.611
58134SOL    HW276235   4.342   7.443   7.709
58135SOL     OW76236  13.194  11.456  14.256
58135SOL    HW176237  13.238  11.379  14.292
58135SOL    HW276238  13.223  11.460  14.165
58136SOL     OW76239   1.935  11.464  11.133
58136SOL    HW176240   1.986  11.442  11.211
58136SOL    HW276241   1.940  11.559  11.127
58137SOL     OW76242   1.408  13.476   9.605
58137SOL    HW176243   1.357  13.425   9.669
58137SOL    HW276244   1.382  13.567   9.620
58138SOL     OW76245   4.433  13.081   9.036
58138SOL    HW176246   4.349  13.104   9.074
58138SOL    HW276247   4.415  13.070   8.943
58139SOL     OW76248   8.340   7.377   5.376
58139SOL    HW176249   8.358   7.291   5.414
58139SOL    HW276250   8.425   7.408   5.345
58140SOL     OW76251   3.408  13.972   2.866
58140SOL    HW176252   3.368  13.933   2.943
58140SOL    HW276253   3.466  14.040   2.900
58141SOL     OW76254   6.129  12.353  10.055
58141SOL    HW176255   6.104  12.269  10.093
58141SOL    HW276256   6.184  12.394  10.122
58142SOL     OW76257   6.338   4.736   2.467
58142SOL    HW176258   6.260   4.766   2.514
58142SOL    HW276259   6.411   4.759   2.525
58143SOL     OW76260   1.120   0.583   5.540
58143SOL    HW176261   1.141   0.490   5.534
58143SOL    HW276262   1.063   0.591   5.616
58144SOL     OW76263  10.435  13.804   7.743
58144SOL    HW176264  10.420  13.797   7.649
58144SOL    HW276265  10.419  13.895   7.764
58145SOL     OW76266   5.614  11.759  13.913
58145SOL    HW176267   5.698  11.717  13.930
58145SOL    HW276268   5.556  11.687  13.889
58146SOL     OW76269   2.113   7.553  11.081
58146SOL    HW176270   2.208   7.554  11.070
58146SOL    HW276271   2.095   7.619  11.147
58147SOL     OW76272   1.862  12.468  10.142
58147SOL    HW176273   1.825  12.443  10.226
58147SOL    HW276274   1.863  12.387  10.091
58148SOL     OW76275   4.731   5.045   9.448
58148SOL    HW176276   4.782   5.126   9.445
58148SOL    HW276277   4.652   5.064   9.398
58149SOL     OW76278   9.926   5.184   5.143
58149SOL    HW176279   9.864   5.191   5.216
58149SOL    HW276280   9.979   5.263   5.150
58150SOL     OW76281  11.373  12.840   3.638
58150SOL    HW176282  11.313  12.786   3.586
58150SOL    HW276283  11.461  12.813   3.609
58151SOL     OW76284   0.643  12.745   7.173
58151SOL    HW176285   0.679  12.808   7.111
58151SOL    HW276286   0.573  12.793   7.218
58152SOL     OW76287  13.444  11.259  12.417
58152SOL    HW176288  13.411  11.339  12.458
58152SOL    HW276289  13.527  11.285  12.378
58153SOL     OW76290  10.036   3.003   4.019
58153SOL    HW176291  10.063   3.094   4.034
58153SOL    HW276292   9.958   3.010   3.964
58154SOL     OW76293   4.669   5.027   5.418
58154SOL    HW176294   4.624   5.098   5.372
58154SOL    HW276295   4.638   4.947   5.376
58155SOL     OW76296   8.016   1.944   2.697
58155SOL    HW176297   7.986   2.035   2.706
58155SOL    HW276298   7.943   1.892   2.731
58156SOL     OW76299   9.464  12.885  11.785
58156SOL    HW176300   9.516  12.917  11.711
58156SOL    HW276301   9.390  12.839  11.745
58157SOL     OW76302   1.909   9.489   6.453
58157SOL    HW176303   1.928   9.553   6.521
58157SOL    HW276304   1.991   9.441   6.442
58158SOL     OW76305   1.913   7.546   2.594
58158SOL    HW176306   1.930   7.474   2.654
58158SOL    HW276307   1.853   7.510   2.529
58159SOL     OW76308   9.230  10.271   2.198
58159SOL    HW176309   9.244  10.350   2.145
58159SOL    HW276310   9.301  10.212   2.173
58160SOL     OW76311   0.154   2.635   3.986
58160SOL    HW176312   0.177   2.665   3.898
58160SOL    HW276313   0.168   2.541   3.984
58161SOL     OW76314   5.431   5.433   6.455
58161SOL    HW176315   5.408   5.448   6.364
58161SOL    HW276316   5.382   5.499   6.504
58162SOL     OW76317   7.660   8.285   5.035
58162SOL    HW176318   7.734   8.339   5.008
58162SOL    HW276319   7.676   8.269   5.128
58163SOL     OW76320   4.512   4.868   9.318
58163SOL    HW176321   4.550   4.827   9.240
58163SOL    HW276322   4.485   4.795   9.373
58164SOL     OW76323   6.721   7.981  12.964
58164SOL    HW176324   6.674   7.905  12.998
58164SOL    HW276325   6.775   8.010  13.037
58165SOL     OW76326   4.488   1.411   2.993
58165SOL    HW176327   4.443   1.492   3.018
58165SOL    HW276328   4.519   1.427   2.904
58166SOL     OW76329   4.280  13.512   0.534
58166SOL    HW176330   4.278  13.467   0.618
58166SOL    HW276331   4.273  13.441   0.469
58167SOL     OW76332  14.250  12.195  11.957
58167SOL    HW176333  14.303  12.130  11.911
58167SOL    HW276334  14.309  12.231  12.023
58168SOL     OW76335  14.798   6.181  12.186
58168SOL    HW176336  14.796   6.111  12.251
58168SOL    HW276337  14.806   6.136  12.102
58169SOL     OW76338   1.763   9.892   3.043
58169SOL    HW176339   1.742   9.807   3.081
58169SOL    HW276340   1.859   9.892   3.035
58170SOL     OW76341   5.167  12.284  10.289
58170SOL    HW176342   5.189  12.376  10.299
58170SOL    HW276343   5.093  12.284  10.228
58171SOL     OW76344  13.312  13.959  13.536
58171SOL    HW176345  13.390  14.008  13.511
58171SOL    HW276346  13.338  13.867  13.532
58172SOL     OW76347   9.473   5.459   1.235
58172SOL    HW176348   9.500   5.542   1.195
58172SOL    HW276349   9.552   5.424   1.275
58173SOL     OW76350   2.148   5.884   7.439
58173SOL    HW176351   2.073   5.839   7.478
58173SOL    HW276352   2.112   5.930   7.363
58174SOL     OW76353   8.304  12.242  14.833
58174SOL    HW176354   8.349  12.211  14.754
58174SOL    HW276355   8.236  12.301  14.800
58175SOL     OW76356  12.086   4.768   4.466
58175SOL    HW176357  12.145   4.842   4.477
58175SOL    HW276358  12.063   4.768   4.373
58176SOL     OW76359   6.258   4.868   1.131
58176SOL    HW176360   6.313   4.944   1.114
58176SOL    HW276361   6.311   4.794   1.101
58177SOL     OW76362   4.127   8.742  10.094
58177SOL    HW176363   4.096   8.711  10.009
58177SOL    HW276364   4.067   8.813  10.117
58178SOL     OW76365   6.331  14.566   4.725
58178SOL    HW176366   6.322  14.471   4.729
58178SOL    HW276367   6.424  14.581   4.712
58179SOL     OW76368   4.186   2.265   9.167
58179SOL    HW176369   4.150   2.181   9.194
58179SOL    HW276370   4.223   2.248   9.080
58180SOL     OW76371  14.580   6.228  11.540
58180SOL    HW176372  14.553   6.150  11.491
58180SOL    HW276373  14.672   6.241  11.516
58181SOL     OW76374   4.520   5.397  13.764
58181SOL    HW176375   4.470   5.319  13.740
58181SOL    HW276376   4.474   5.433  13.840
58182SOL     OW76377   2.222  13.524  11.941
58182SOL    HW176378   2.279  13.479  12.004
58182SOL    HW276379   2.142  13.542  11.989
58183SOL     OW76380   6.975  11.418  12.396
58183SOL    HW176381   7.069  11.413  12.416
58183SOL    HW276382   6.939  11.337  12.430
58184SOL     OW76383   6.472   7.084   1.414
58184SOL    HW176384   6.431   7.029   1.347
58184SOL    HW276385   6.420   7.069   1.492
58185SOL     OW76386   3.625   5.812   3.254
58185SOL    HW176387   3.692   5.749   3.228
58185SOL    HW276388   3.594   5.850   3.172
58186SOL     OW76389   7.701   2.563  10.939
58186SOL    HW176390   7.698   2.482  10.990
58186SOL    HW276391   7.616   2.604  10.954
58187SOL     OW76392   0.277   5.219   8.864
58187SOL    HW176393   0.200   5.259   8.903
58187SOL    HW276394   0.344   5.224   8.933
58188SOL     OW76395   1.139   6.669  10.193
58188SOL    HW176396   1.228   6.634  10.185
58188SOL    HW276397   1.112   6.687  10.103
58189SOL     OW76398   3.219   2.622   7.368
58189SOL    HW176399   3.291   2.637   7.430
58189SOL    HW276400   3.146   2.672   7.404
58190SOL     OW76401   4.937  10.555  12.887
58190SOL    HW176402   4.949  10.627  12.948
58190SOL    HW276403   4.928  10.596  12.801
58191SOL     OW76404  14.025   1.875   1.169
58191SOL    HW176405  13.982   1.875   1.254
58191SOL    HW276406  13.961   1.836   1.109
58192SOL     OW76407   7.976   7.330   1.955
58192SOL    HW176408   8.010   7.326   1.865
58192SOL    HW276409   7.992   7.243   1.990
58193SOL     OW76410   9.267   0.126   9.549
58193SOL    HW176411   9.215   0.048   9.569
58193SOL    HW276412   9.324   0.137   9.626
58194SOL     OW76413  11.831  12.591  12.961
58194SOL    HW176414  11.903  12.646  12.991
58194SOL    HW276415  11.752  12.641  12.981
58195SOL     OW76416   7.273  13.163  14.067
58195SOL    HW176417   7.240  13.073  14.071
58195SOL    HW276418   7.325  13.166  13.986
58196SOL     OW76419   8.450  12.614   5.351
58196SOL    HW176420   8.439  12.561   5.272
58196SOL    HW276421   8.360  12.630   5.381
58197SOL     OW76422  14.641   1.630   0.890
58197SOL    HW176423  14.659   1.604   0.980
58197SOL    HW276424  14.727   1.636   0.849
58198SOL     OW76425  14.123   3.363  14.359
58198SOL    HW176426  14.101   3.278  14.321
58198SOL    HW276427  14.066   3.369  14.436
58199SOL     OW76428   8.523  11.204   4.666
58199SOL    HW176429   8.596  11.166   4.616
58199SOL    HW276430   8.520  11.295   4.638
58200SOL     OW76431   3.759   4.818   4.428
58200SOL    HW176432   3.778   4.870   4.349
58200SOL    HW276433   3.842   4.816   4.476
58201SOL     OW76434   1.569   2.723   9.216
58201SOL    HW176435   1.522   2.762   9.142
58201SOL    HW276436   1.567   2.629   9.198
58202SOL     OW76437  13.838  13.970  13.509
58202SOL    HW176438  13.878  14.024  13.441
58202SOL    HW276439  13.911  13.923  13.548
58203SOL     OW76440   6.170  12.858  13.917
58203SOL    HW176441   6.165  12.904  13.834
58203SOL    HW276442   6.229  12.911  13.970
58204SOL     OW76443   4.235  12.661   1.497
58204SOL    HW176444   4.272  12.702   1.418
58204SOL    HW276445   4.152  12.706   1.510
58205SOL     OW76446   6.864   5.794   8.663
58205SOL    HW176447   6.904   5.718   8.620
58205SOL    HW276448   6.883   5.782   8.756
58206SOL     OW76449  13.078  12.403   1.908
58206SOL    HW176450  13.087  12.494   1.879
58206SOL    HW276451  13.034  12.409   1.993
58207SOL     OW76452   7.468  10.457  14.593
58207SOL    HW176453   7.541  10.493  14.544
58207SOL    HW276454   7.507  10.393  14.653
58208SOL     OW76455  10.705   7.356  11.333
58208SOL    HW176456  10.695   7.433  11.276
58208SOL    HW276457  10.704   7.392  11.422
58209SOL     OW76458  14.379   1.400   9.185
58209SOL    HW176459  14.455   1.459   9.182
58209SOL    HW276460  14.397   1.334   9.118
58210SOL     OW76461   3.821  12.878  14.566
58210SOL    HW176462   3.832  12.915  14.654
58210SOL    HW276463   3.777  12.795  14.580
58211SOL     OW76464   9.875  13.219   8.809
58211SOL    HW176465   9.967  13.224   8.782
58211SOL    HW276466   9.826  13.254   8.735
58212SOL     OW76467   2.424  13.331   9.153
58212SOL    HW176468   2.446  13.239   9.166
58212SOL    HW276469   2.333  13.330   9.123
58213SOL     OW76470   3.025   9.059   9.219
58213SOL    HW176471   3.112   9.057   9.258
58213SOL    HW276472   3.034   9.009   9.138
58214SOL     OW76473   6.733   4.589   1.331
58214SOL    HW176474   6.665   4.655   1.339
58214SOL    HW276475   6.761   4.594   1.239
58215SOL     OW76476   7.568   3.470   2.736
58215SOL    HW176477   7.645   3.429   2.776
58215SOL    HW276478   7.529   3.522   2.806
58216SOL     OW76479   8.523   0.912   2.860
58216SOL    HW176480   8.498   0.974   2.928
58216SOL    HW276481   8.580   0.963   2.801
58217SOL     OW76482   9.997  11.344   9.571
58217SOL    HW176483  10.047  11.273   9.611
58217SOL    HW276484   9.988  11.409   9.640
58218SOL     OW76485  13.679   2.142   3.212
58218SOL    HW176486  13.700   2.152   3.119
58218SOL    HW276487  13.747   2.083   3.245
58219SOL     OW76488   2.779  14.709   7.098
58219SOL    HW176489   2.689  14.724   7.069
58219SOL    HW276490   2.809  14.634   7.046
58220SOL     OW76491   9.388  10.634   0.548
58220SOL    HW176492   9.319  10.687   0.507
58220SOL    HW276493   9.366  10.544   0.525
58221SOL     OW76494   1.127   1.055   2.630
58221SOL    HW176495   1.074   1.000   2.687
58221SOL    HW276496   1.069   1.127   2.606
58222SOL     OW76497   9.643   8.644  12.155
58222SOL    HW176498   9.582   8.577  12.186
58222SOL    HW276499   9.593   8.725  12.160
58223SOL     OW76500   1.954  14.536   2.421
58223SOL    HW176501   1.882  14.572   2.473
58223SOL    HW276502   1.990  14.611   2.374
58224SOL     OW76503  12.853   3.006   1.823
58224SOL    HW176504  12.913   2.932   1.832
58224SOL    HW276505  12.879   3.047   1.740
58225SOL     OW76506  11.438  12.085   9.519
58225SOL    HW176507  11.489  12.004   9.511
58225SOL    HW276508  11.396  12.078   9.605
58226SOL     OW76509   6.632  10.474   9.997
58226SOL    HW176510   6.643  10.551   9.941
58226SOL    HW276511   6.550  10.435   9.968
58227SOL     OW76512   3.091  12.847   6.081
58227SOL    HW176513   3.033  12.836   6.006
58227SOL    HW276514   3.142  12.766   6.084
58228SOL     OW76515   6.839   9.449  13.082
58228SOL    HW176516   6.845   9.543  13.065
58228SOL    HW276517   6.921   9.414  13.048
58229SOL     OW76518   9.356   3.385   8.190
58229SOL    HW176519   9.386   3.295   8.201
58229SOL    HW276520   9.352   3.398   8.095
58230SOL     OW76521   5.355   6.834   1.149
58230SOL    HW176522   5.333   6.820   1.241
58230SOL    HW276523   5.275   6.870   1.110
58231SOL     OW76524   4.662   2.855   3.633
58231SOL    HW176525   4.641   2.948   3.645
58231SOL    HW276526   4.578   2.810   3.646
58232SOL     OW76527   5.661  11.915  10.175
58232SOL    HW176528   5.730  11.852  10.153
58232SOL    HW276529   5.603  11.867  10.233
58233SOL     OW76530   3.020   2.890   5.819
58233SOL    HW176531   3.000   2.847   5.902
58233SOL    HW276532   3.103   2.935   5.835
58234SOL     OW76533  13.065   2.495   6.187
58234SOL    HW176534  13.004   2.568   6.191
58234SOL    HW276535  13.144   2.527   6.233
58235SOL     OW76536   3.579  13.818   2.433
58235SOL    HW176537   3.667  13.855   2.435
58235SOL    HW276538   3.551  13.827   2.342
58236SOL     OW76539   7.936   9.852   5.983
58236SOL    HW176540   8.000   9.888   6.044
58236SOL    HW276541   7.906   9.771   6.024
58237SOL     OW76542  12.779  10.499   8.839
58237SOL    HW176543  12.765  10.410   8.806
58237SOL    HW276544  12.701  10.547   8.814
58238SOL     OW76545   2.602  10.783   1.864
58238SOL    HW176546   2.563  10.824   1.941
58238SOL    HW276547   2.606  10.853   1.799
58239SOL     OW76548  13.271   7.329   4.196
58239SOL    HW176549  13.194   7.382   4.217
58239SOL    HW276550  13.292   7.351   4.105
58240SOL     OW76551  13.157   9.541  13.546
58240SOL    HW176552  13.124   9.454  13.526
58240SOL    HW276553  13.232   9.552  13.488
58241SOL     OW76554  11.473   8.498   9.340
58241SOL    HW176555  11.397   8.525   9.289
58241SOL    HW276556  11.497   8.576   9.390
58242SOL     OW76557   6.581   8.975  13.470
58242SOL    HW176558   6.492   9.000  13.444
58242SOL    HW276559   6.569   8.897  13.525
58243SOL     OW76560   1.087  12.189   5.801
58243SOL    HW176561   1.127  12.220   5.882
58243SOL    HW276562   1.093  12.093   5.806
58244SOL     OW76563   0.876   3.032   7.053
58244SOL    HW176564   0.825   3.038   7.133
58244SOL    HW276565   0.836   2.961   7.004
58245SOL     OW76566  13.683  14.441  12.759
58245SOL    HW176567  13.688  14.372  12.825
58245SOL    HW276568  13.592  14.437  12.728
58246SOL     OW76569   1.329   9.339  14.660
58246SOL    HW176570   1.353   9.262  14.608
58246SOL    HW276571   1.322   9.410  14.596
58247SOL     OW76572  14.602   3.132  14.090
58247SOL    HW176573  14.525   3.085  14.122
58247SOL    HW276574  14.600   3.216  14.136
58248SOL     OW76575   2.174  10.309  14.607
58248SOL    HW176576   2.251  10.356  14.577
58248SOL    HW276577   2.109  10.378  14.624
58249SOL     OW76578   3.308  13.533  11.462
58249SOL    HW176579   3.316  13.628  11.467
58249SOL    HW276580   3.332  13.512  11.371
58250SOL     OW76581   9.897   4.382   0.162
58250SOL    HW176582   9.904   4.477   0.169
58250SOL    HW276583   9.841   4.357   0.236
58251SOL     OW76584   9.895  12.109   0.753
58251SOL    HW176585   9.956  12.085   0.683
58251SOL    HW276586   9.824  12.045   0.745
58252SOL     OW76587   6.218   9.740   5.389
58252SOL    HW176588   6.247   9.673   5.451
58252SOL    HW276589   6.251   9.822   5.426
58253SOL     OW76590  13.983  11.202   8.327
58253SOL    HW176591  13.928  11.156   8.391
58253SOL    HW276592  13.965  11.295   8.344
58254SOL     OW76593   3.438   2.019   5.102
58254SOL    HW176594   3.348   2.039   5.129
58254SOL    HW276595   3.472   1.966   5.174
58255SOL     OW76596   3.377   3.249   0.560
58255SOL    HW176597   3.397   3.262   0.468
58255SOL    HW276598   3.453   3.283   0.607
58256SOL     OW76599  10.558   1.628   9.891
58256SOL    HW176600  10.481   1.676   9.862
58256SOL    HW276601  10.523   1.544   9.921
58257SOL     OW76602   8.186   9.591  13.501
58257SOL    HW176603   8.141   9.607  13.418
58257SOL    HW276604   8.119   9.605  13.568
58258SOL     OW76605  14.177   4.518   2.494
58258SOL    HW176606  14.151   4.481   2.578
58258SOL    HW276607  14.272   4.532   2.502
58259SOL     OW76608  10.309   7.550   1.345
58259SOL    HW176609  10.276   7.471   1.301
58259SOL    HW276610  10.364   7.516   1.415
58260SOL     OW76611   8.647   5.221   0.797
58260SOL    HW176612   8.714   5.185   0.855
58260SOL    HW276613   8.646   5.163   0.721
58261SOL     OW76614   4.588  13.842  13.726
58261SOL    HW176615   4.561  13.751  13.725
58261SOL    HW276616   4.532  13.885  13.661
58262SOL     OW76617   8.255  10.437  14.745
58262SOL    HW176618   8.344  10.473  14.746
58262SOL    HW276619   8.234  10.428  14.652
58263SOL     OW76620   7.687  12.947   4.758
58263SOL    HW176621   7.614  12.885   4.757
58263SOL    HW276622   7.691  12.979   4.849
58264SOL     OW76623   2.618  14.042  11.857
58264SOL    HW176624   2.662  14.063  11.940
58264SOL    HW276625   2.548  13.982  11.881
58265SOL     OW76626   1.048   0.862  11.054
58265SOL    HW176627   1.136   0.835  11.081
58265SOL    HW276628   0.998   0.780  11.049
58266SOL     OW76629   3.230  11.759   8.850
58266SOL    HW176630   3.285  11.785   8.924
58266SOL    HW276631   3.271  11.680   8.816
58267SOL     OW76632   7.481  10.070  10.546
58267SOL    HW176633   7.408  10.031  10.594
58267SOL    HW276634   7.439  10.129  10.482
58268SOL     OW76635   4.701   4.030   6.852
58268SOL    HW176636   4.640   4.078   6.797
58268SOL    HW276637   4.659   3.946   6.867
58269SOL     OW76638  13.354   3.403   4.006
58269SOL    HW176639  13.387   3.355   3.930
58269SOL    HW276640  13.428   3.408   4.066
58270SOL     OW76641   2.676  13.664   1.355
58270SOL    HW176642   2.756  13.614   1.365
58270SOL    HW276643   2.616  13.627   1.420
58271SOL     OW76644   0.726   0.784   2.764
58271SOL    HW176645   0.670   0.773   2.841
58271SOL    HW276646   0.711   0.705   2.712
58272SOL     OW76647   5.373   5.969   3.667
58272SOL    HW176648   5.370   5.909   3.742
58272SOL    HW276649   5.433   6.039   3.694
58273SOL     OW76650   4.188  13.172  13.449
58273SOL    HW176651   4.201  13.211  13.363
58273SOL    HW276652   4.145  13.241  13.500
58274SOL     OW76653  13.757   5.415   1.274
58274SOL    HW176654  13.846   5.432   1.303
58274SOL    HW276655  13.757   5.440   1.181
58275SOL     OW76656  14.352  13.357   6.979
58275SOL    HW176657  14.429  13.412   6.990
58275SOL    HW276658  14.278  13.415   6.995
58276SOL     OW76659  12.392  13.942  10.550
58276SOL    HW176660  12.328  14.006  10.583
58276SOL    HW276661  12.345  13.895  10.482
58277SOL     OW76662   8.898  12.278   4.918
58277SOL    HW176663   8.950  12.291   4.997
58277SOL    HW276664   8.912  12.187   4.894
58278SOL     OW76665  12.272   8.651   5.665
58278SOL    HW176666  12.200   8.607   5.710
58278SOL    HW276667  12.350   8.602   5.692
58279SOL     OW76668   5.789   3.429  11.838
58279SOL    HW176669   5.738   3.348  11.838
58279SOL    HW276670   5.875   3.402  11.804
58280SOL     OW76671   3.724   0.351   2.183
58280SOL    HW176672   3.708   0.260   2.158
58280SOL    HW276673   3.764   0.390   2.105
58281SOL     OW76674   0.696   3.071  10.768
58281SOL    HW176675   0.622   3.020  10.800
58281SOL    HW276676   0.731   3.021  10.694
58282SOL     OW76677   8.801   9.301   3.533
58282SOL    HW176678   8.873   9.238   3.536
58282SOL    HW276679   8.725   9.248   3.509
58283SOL     OW76680   7.520   9.904  14.661
58283SOL    HW176681   7.564   9.821  14.641
58283SOL    HW276682   7.500   9.899  14.754
58284SOL     OW76683   7.769   8.398  12.064
58284SOL    HW176684   7.731   8.324  12.110
58284SOL    HW276685   7.713   8.411  11.988
58285SOL     OW76686   0.466   5.397   7.593
58285SOL    HW176687   0.433   5.379   7.681
58285SOL    HW276688   0.523   5.322   7.573
58286SOL     OW76689   3.155   5.170   3.267
58286SOL    HW176690   3.145   5.239   3.201
58286SOL    HW276691   3.093   5.193   3.336
58287SOL     OW76692   4.327   0.612   3.972
58287SOL    HW176693   4.381   0.620   4.050
58287SOL    HW276694   4.269   0.538   3.989
58288SOL     OW76695   4.836  11.277   2.742
58288SOL    HW176696   4.873  11.276   2.830
58288SOL    HW276697   4.752  11.232   2.750
58289SOL     OW76698   5.509   4.043   1.858
58289SOL    HW176699   5.577   4.075   1.798
58289SOL    HW276700   5.428   4.083   1.824
58290SOL     OW76701   0.564   5.363   8.615
58290SOL    HW176702   0.643   5.406   8.648
58290SOL    HW276703   0.540   5.301   8.685
58291SOL     OW76704  10.419  10.775   3.575
58291SOL    HW176705  10.420  10.686   3.540
58291SOL    HW276706  10.334  10.810   3.550
58292SOL     OW76707   5.443  14.220  10.823
58292SOL    HW176708   5.355  14.198  10.792
58292SOL    HW276709   5.464  14.302  10.779
58293SOL     OW76710   4.103  12.507   9.471
58293SOL    HW176711   4.172  12.458   9.427
58293SOL    HW276712   4.127  12.506   9.563
58294SOL     OW76713  13.629  12.423   1.320
58294SOL    HW176714  13.559  12.379   1.271
58294SOL    HW276715  13.685  12.461   1.253
58295SOL     OW76716  10.746  14.822   9.229
58295SOL    HW176717  10.825  14.822   9.174
58295SOL    HW276718  10.686   0.006   9.184
58296SOL     OW76719   8.804   4.204  13.458
58296SOL    HW176720   8.836   4.123  13.496
58296SOL    HW276721   8.805   4.189  13.363
58297SOL     OW76722  11.120   1.150   5.525
58297SOL    HW176723  11.150   1.062   5.500
58297SOL    HW276724  11.118   1.198   5.442
58298SOL     OW76725  12.989  11.086   8.411
58298SOL    HW176726  12.907  11.130   8.433
58298SOL    HW276727  13.032  11.073   8.496
58299SOL     OW76728  10.349   3.294   8.215
58299SOL    HW176729  10.391   3.242   8.146
58299SOL    HW276730  10.326   3.376   8.172
58300SOL     OW76731   3.783  11.638  11.384
58300SOL    HW176732   3.780  11.647  11.479
58300SOL    HW276733   3.750  11.721  11.351
58301SOL     OW76734   0.258   2.951   4.871
58301SOL    HW176735   0.319   2.903   4.927
58301SOL    HW276736   0.184   2.973   4.928
58302SOL     OW76737   7.833   0.029   6.842
58302SOL    HW176738   7.758   0.040   6.900
58302SOL    HW276739   7.886   0.108   6.855
58303SOL     OW76740  10.099   2.394   0.613
58303SOL    HW176741  10.143   2.349   0.686
58303SOL    HW276742  10.167   2.449   0.574
58304SOL     OW76743   8.243   2.113  14.025
58304SOL    HW176744   8.291   2.112  13.942
58304SOL    HW276745   8.281   2.042  14.076
58305SOL     OW76746  12.817   8.359  11.418
58305SOL    HW176747  12.862   8.443  11.411
58305SOL    HW276748  12.849   8.321  11.500
58306SOL     OW76749   8.142   1.634   5.892
58306SOL    HW176750   8.170   1.644   5.801
58306SOL    HW276751   8.064   1.578   5.887
58307SOL     OW76752   8.607   3.616   9.183
58307SOL    HW176753   8.598   3.620   9.087
58307SOL    HW276754   8.602   3.707   9.212
58308SOL     OW76755   4.799   6.834  12.785
58308SOL    HW176756   4.775   6.910  12.839
58308SOL    HW276757   4.856   6.782  12.841
58309SOL     OW76758   5.385  10.754   1.742
58309SOL    HW176759   5.368  10.848   1.756
58309SOL    HW276760   5.375  10.715   1.829
58310SOL     OW76761  13.802  12.498   7.065
58310SOL    HW176762  13.852  12.484   7.145
58310SOL    HW276763  13.857  12.556   7.013
58311SOL     OW76764  13.072  10.182  12.668
58311SOL    HW176765  13.107  10.206  12.754
58311SOL    HW276766  13.099  10.091  12.655
58312SOL     OW76767   4.882  13.516   8.982
58312SOL    HW176768   4.873  13.504   8.887
58312SOL    HW276769   4.977  13.524   8.996
58313SOL     OW76770   6.931   8.555   6.327
58313SOL    HW176771   7.006   8.542   6.269
58313SOL    HW276772   6.857   8.517   6.280
58314SOL     OW76773   1.119   4.520   2.512
58314SOL    HW176774   1.045   4.581   2.509
58314SOL    HW276775   1.192   4.573   2.545
58315SOL     OW76776   4.172  11.947  12.095
58315SOL    HW176777   4.142  11.857  12.083
58315SOL    HW276778   4.263  11.938  12.123
58316SOL     OW76779   6.696   0.337  13.526
58316SOL    HW176780   6.729   0.312  13.439
58316SOL    HW276781   6.735   0.423  13.542
58317SOL     OW76782   6.910   6.100   3.120
58317SOL    HW176783   7.001   6.128   3.105
58317SOL    HW276784   6.889   6.046   3.044
58318SOL     OW76785   6.819   7.043   5.030
58318SOL    HW176786   6.764   7.018   5.104
58318SOL    HW276787   6.900   7.073   5.070
58319SOL     OW76788  13.741  13.941   0.784
58319SOL    HW176789  13.734  13.853   0.747
58319SOL    HW276790  13.821  13.939   0.838
58320SOL     OW76791   5.295   1.677  13.602
58320SOL    HW176792   5.376   1.725  13.584
58320SOL    HW276793   5.240   1.739  13.650
58321SOL     OW76794   8.191   1.013  12.668
58321SOL    HW176795   8.202   1.030  12.574
58321SOL    HW276796   8.270   0.965  12.694
58322SOL     OW76797   9.772   3.765   0.949
58322SOL    HW176798   9.739   3.698   1.009
58322SOL    HW276799   9.698   3.823   0.936
58323SOL     OW76800   0.034   0.433  10.020
58323SOL    HW176801  14.839   0.410   9.959
58323SOL    HW276802  14.866   0.474  10.094
58324SOL     OW76803  14.115   8.486  10.844
58324SOL    HW176804  14.173   8.511  10.772
58324SOL    HW276805  14.143   8.397  10.867
58325SOL     OW76806   3.523  10.044   5.256
58325SOL    HW176807   3.464  10.107   5.213
58325SOL    HW276808   3.585  10.098   5.305
58326SOL     OW76809   8.954   2.229   8.574
58326SOL    HW176810   8.895   2.304   8.568
58326SOL    HW276811   8.962   2.211   8.667
58327SOL     OW76812   1.072   7.893   5.101
58327SOL    HW176813   1.134   7.929   5.164
58327SOL    HW276814   1.068   7.800   5.120
58328SOL     OW76815   1.626   4.147   1.124
58328SOL    HW176816   1.538   4.111   1.126
58328SOL    HW276817   1.664   4.122   1.208
58329SOL     OW76818   4.472  14.569   7.078
58329SOL    HW176819   4.390  14.524   7.062
58329SOL    HW276820   4.538  14.499   7.080
58330SOL     OW76821   4.345   6.471   7.643
58330SOL    HW176822   4.310   6.549   7.687
58330SOL    HW276823   4.440   6.487   7.641
58331SOL     OW76824  13.609   4.345   1.595
58331SOL    HW176825  13.598   4.299   1.679
58331SOL    HW276826  13.606   4.438   1.618
58332SOL     OW76827   4.712   3.404  10.109
58332SOL    HW176828   4.747   3.475  10.163
58332SOL    HW276829   4.656   3.448  10.045
58333SOL     OW76830  13.523  11.464  10.745
58333SOL    HW176831  13.605  11.506  10.721
58333SOL    HW276832  13.507  11.401  10.675
58334SOL     OW76833  10.639  13.970   3.556
58334SOL    HW176834  10.547  13.959   3.579
58334SOL    HW276835  10.649  13.924   3.473
58335SOL     OW76836  13.032  10.737   0.461
58335SOL    HW176837  13.121  10.704   0.468
58335SOL    HW276838  13.031  10.787   0.379
58336SOL     OW76839   8.818  10.321   8.272
58336SOL    HW176840   8.769  10.261   8.215
58336SOL    HW276841   8.856  10.264   8.339
58337SOL     OW76842  12.913   6.477  11.419
58337SOL    HW176843  12.957   6.547  11.468
58337SOL    HW276844  12.978   6.407  11.415
58338SOL     OW76845  13.511   0.307  14.003
58338SOL    HW176846  13.516   0.212  14.011
58338SOL    HW276847  13.584   0.339  14.056
58339SOL     OW76848   2.593   1.812   0.020
58339SOL    HW176849   2.597   1.728  14.850
58339SOL    HW276850   2.637   1.873  14.836
58340SOL     OW76851   2.904   6.874   0.156
58340SOL    HW176852   2.970   6.805   0.148
58340SOL    HW276853   2.948   6.944   0.204
58341SOL     OW76854  10.597  11.285  10.519
58341SOL    HW176855  10.598  11.362  10.462
58341SOL    HW276856  10.685  11.284  10.558
58342SOL     OW76857  11.476   8.951  11.872
58342SOL    HW176858  11.432   8.972  11.790
58342SOL    HW276859  11.499   9.036  11.909
58343SOL     OW76860   0.442   9.837   5.649
58343SOL    HW176861   0.472   9.760   5.601
58343SOL    HW276862   0.520   9.868   5.695
58344SOL     OW76863   5.394  13.754   6.430
58344SOL    HW176864   5.306  13.783   6.403
58344SOL    HW276865   5.435  13.724   6.349
58345SOL     OW76866  14.776   3.691   7.401
58345SOL    HW176867  14.837   3.764   7.409
58345SOL    HW276868  14.736   3.701   7.315
58346SOL     OW76869   9.039   7.981   5.743
58346SOL    HW176870   9.095   8.044   5.698
58346SOL    HW276871   9.061   7.989   5.836
58347SOL     OW76872   3.394  13.613   8.102
58347SOL    HW176873   3.426  13.683   8.159
58347SOL    HW276874   3.365  13.544   8.162
58348SOL     OW76875  14.307   3.604   4.099
58348SOL    HW176876  14.265   3.532   4.146
58348SOL    HW276877  14.240   3.673   4.096
58349SOL     OW76878   4.728  14.149   4.802
58349SOL    HW176879   4.661  14.211   4.774
58349SOL    HW276880   4.692  14.109   4.881
58350SOL     OW76881   2.704  14.794  12.025
58350SOL    HW176882   2.797  14.787  12.003
58350SOL    HW276883   2.682   0.010  12.007
58351SOL     OW76884   8.788   2.724   5.869
58351SOL    HW176885   8.883   2.730   5.856
58351SOL    HW276886   8.766   2.635   5.845
58352SOL     OW76887  14.346  14.510   4.611
58352SOL    HW176888  14.384  14.423   4.599
58352SOL    HW276889  14.419  14.566   4.636
58353SOL     OW76890  12.772   0.250   1.483
58353SOL    HW176891  12.689   0.291   1.461
58353SOL    HW276892  12.760   0.216   1.571
58354SOL     OW76893  13.906   1.304   0.392
58354SOL    HW176894  13.831   1.279   0.339
58354SOL    HW276895  13.912   1.399   0.382
58355SOL     OW76896   5.267   0.920   0.757
58355SOL    HW176897   5.280   1.011   0.733
58355SOL    HW276898   5.212   0.923   0.836
58356SOL     OW76899   3.517  13.323  13.533
58356SOL    HW176900   3.451  13.384  13.500
58356SOL    HW276901   3.547  13.361  13.615
58357SOL     OW76902   1.972   8.284   7.371
58357SOL    HW176903   1.969   8.352   7.304
58357SOL    HW276904   1.934   8.207   7.328
58358SOL     OW76905   8.170  12.458  13.286
58358SOL    HW176906   8.131  12.498  13.207
58358SOL    HW276907   8.095  12.446  13.345
58359SOL     OW76908   6.277   0.486   5.801
58359SOL    HW176909   6.343   0.425   5.834
58359SOL    HW276910   6.268   0.551   5.871
58360SOL     OW76911   9.961  10.300   8.252
58360SOL    HW176912   9.974  10.213   8.216
58360SOL    HW276913   9.918  10.285   8.336
58361SOL     OW76914   6.250   1.442   2.676
58361SOL    HW176915   6.161   1.422   2.705
58361SOL    HW276916   6.275   1.369   2.620
58362SOL     OW76917  11.630   9.633   6.407
58362SOL    HW176918  11.657   9.542   6.393
58362SOL    HW276919  11.540   9.636   6.373
58363SOL     OW76920   5.387  12.318  13.146
58363SOL    HW176921   5.310  12.262  13.153
58363SOL    HW276922   5.456  12.270  13.191
58364SOL     OW76923  12.471  11.746  12.749
58364SOL    HW176924  12.541  11.749  12.815
58364SOL    HW276925  12.455  11.653  12.735
58365SOL     OW76926  10.152   5.877  12.048
58365SOL    HW176927  10.132   5.966  12.019
58365SOL    HW276928  10.155   5.826  11.967
58366SOL     OW76929   3.100   1.539  12.600
58366SOL    HW176930   3.112   1.608  12.535
58366SOL    HW276931   3.015   1.557  12.639
58367SOL     OW76932   5.929  10.309  14.486
58367SOL    HW176933   5.882  10.231  14.453
58367SOL    HW276934   5.895  10.381  14.432
58368SOL     OW76935  10.257  14.253   4.826
58368SOL    HW176936  10.265  14.159   4.812
58368SOL    HW276937  10.191  14.282   4.763
58369SOL     OW76938   7.503   2.086   0.915
58369SOL    HW176939   7.531   2.080   1.007
58369SOL    HW276940   7.545   2.011   0.872
58370SOL     OW76941   3.619  10.216  11.873
58370SOL    HW176942   3.591  10.304  11.847
58370SOL    HW276943   3.711  10.211  11.846
58371SOL     OW76944   3.447  11.517  14.374
58371SOL    HW176945   3.478  11.447  14.432
58371SOL    HW276946   3.527  11.560  14.344
58372SOL     OW76947  11.150  14.312  12.003
58372SOL    HW176948  11.184  14.226  11.979
58372SOL    HW276949  11.066  14.319  11.958
58373SOL     OW76950  12.566   2.384   6.653
58373SOL    HW176951  12.500   2.338   6.704
58373SOL    HW276952  12.531   2.473   6.644
58374SOL     OW76953  12.735   6.994   3.773
58374SOL    HW176954  12.698   7.067   3.724
58374SOL    HW276955  12.758   7.032   3.858
58375SOL     OW76956   8.085   6.752   7.468
58375SOL    HW176957   8.093   6.684   7.535
58375SOL    HW276958   8.127   6.714   7.391
58376SOL     OW76959  11.911   2.205   5.995
58376SOL    HW176960  11.971   2.142   6.035
58376SOL    HW276961  11.932   2.288   6.038
58377SOL     OW76962  10.419  10.199   3.667
58377SOL    HW176963  10.356  10.270   3.684
58377SOL    HW276964  10.501  10.244   3.648
58378SOL     OW76965  13.256   6.465   4.657
58378SOL    HW176966  13.285   6.410   4.729
58378SOL    HW276967  13.294   6.551   4.676
58379SOL     OW76968   5.599  13.508   4.259
58379SOL    HW176969   5.556  13.498   4.344
58379SOL    HW276970   5.553  13.580   4.217
58380SOL     OW76971  12.396   9.443   9.473
58380SOL    HW176972  12.324   9.406   9.523
58380SOL    HW276973  12.437   9.368   9.430
58381SOL     OW76974   1.995  12.957   8.408
58381SOL    HW176975   2.052  13.033   8.411
58381SOL    HW276976   1.910  12.989   8.437
58382SOL     OW76977   3.118  12.947   0.409
58382SOL    HW176978   3.110  12.922   0.501
58382SOL    HW276979   3.047  13.010   0.395
58383SOL     OW76980   5.432   2.785  12.937
58383SOL    HW176981   5.343   2.819  12.931
58383SOL    HW276982   5.477   2.846  12.995
58384SOL     OW76983   7.744   3.975  12.359
58384SOL    HW176984   7.778   4.013  12.440
58384SOL    HW276985   7.672   3.919  12.387
58385SOL     OW76986   6.680  10.828  12.642
58385SOL    HW176987   6.769  10.852  12.617
58385SOL    HW276988   6.650  10.900  12.697
58386SOL     OW76989  12.461   7.753  10.100
58386SOL    HW176990  12.538   7.763  10.155
58386SOL    HW276991  12.388   7.777  10.157
58387SOL     OW76992   5.066   2.503   7.775
58387SOL    HW176993   4.992   2.446   7.791
58387SOL    HW276994   5.139   2.462   7.822
58388SOL     OW76995   8.541  11.176   8.705
58388SOL    HW176996   8.512  11.087   8.684
58388SOL    HW276997   8.469  11.212   8.757
58389SOL     OW76998   5.753   3.676   9.265
58389SOL    HW176999   5.713   3.646   9.347
58389SOL    HW277000   5.681   3.716   9.217
58390SOL     OW77001   5.796   4.270   1.389
58390SOL    HW177002   5.800   4.184   1.346
58390SOL    HW277003   5.739   4.322   1.333
58391SOL     OW77004   7.017  14.110   7.457
58391SOL    HW177005   6.993  14.199   7.431
58391SOL    HW277006   7.078  14.081   7.389
58392SOL     OW77007   4.935  13.332   0.869
58392SOL    HW177008   4.958  13.397   0.936
58392SOL    HW277009   4.984  13.358   0.792
58393SOL     OW77010   5.000   0.273   6.383
58393SOL    HW177011   4.917   0.321   6.373
58393SOL    HW277012   5.064   0.327   6.337
58394SOL     OW77013   6.900   1.051   6.321
58394SOL    HW177014   6.826   1.056   6.260
58394SOL    HW277015   6.973   1.090   6.273
58395SOL     OW77016  14.710   5.948   3.974
58395SOL    HW177017  14.732   6.020   3.915
58395SOL    HW277018  14.633   5.978   4.021
58396SOL     OW77019   6.772   5.555   8.027
58396SOL    HW177020   6.705   5.602   7.977
58396SOL    HW277021   6.737   5.551   8.116
58397SOL     OW77022   3.020   0.037  11.581
58397SOL    HW177023   2.995  14.842  11.640
58397SOL    HW277024   2.939   0.086  11.566
58398SOL     OW77025   3.578   8.533   0.100
58398SOL    HW177026   3.553   8.445   0.127
58398SOL    HW277027   3.536   8.590   0.165
58399SOL     OW77028   3.269   9.658  12.686
58399SOL    HW177029   3.285   9.566  12.663
58399SOL    HW277030   3.177   9.661  12.712
58400SOL     OW77031   9.243   1.409   6.307
58400SOL    HW177032   9.250   1.415   6.403
58400SOL    HW277033   9.235   1.315   6.290
58401SOL     OW77034  13.979   1.002   3.273
58401SOL    HW177035  13.936   1.012   3.358
58401SOL    HW277036  13.907   1.003   3.210
58402SOL     OW77037  12.663  10.363  13.014
58402SOL    HW177038  12.598  10.398  12.953
58402SOL    HW277039  12.731  10.325  12.958
58403SOL     OW77040   1.050  10.757   8.030
58403SOL    HW177041   1.093  10.703   8.096
58403SOL    HW277042   1.116  10.821   8.004
58404SOL     OW77043   5.744   1.724   2.819
58404SOL    HW177044   5.685   1.694   2.889
58404SOL    HW277045   5.759   1.646   2.766
58405SOL     OW77046   9.092  12.024   0.563
58405SOL    HW177047   9.029  12.067   0.505
58405SOL    HW277048   9.170  12.011   0.509
58406SOL     OW77049   2.908  12.501  12.043
58406SOL    HW177050   2.999  12.531  12.037
58406SOL    HW277051   2.906  12.444  12.119
58407SOL     OW77052   5.549  14.593  13.098
58407SOL    HW177053   5.543  14.579  13.004
58407SOL    HW277054   5.634  14.555  13.123
58408SOL     OW77055   9.485   7.110   9.856
58408SOL    HW177056   9.526   7.038   9.904
58408SOL    HW277057   9.527   7.189   9.890
58409SOL     OW77058   1.277  11.795   0.778
58409SOL    HW177059   1.182  11.782   0.769
58409SOL    HW277060   1.295  11.776   0.870
58410SOL     OW77061   3.211  12.563   4.572
58410SOL    HW177062   3.302  12.574   4.597
58410SOL    HW277063   3.193  12.470   4.588
58411SOL     OW77064  10.607  10.320   6.362
58411SOL    HW177065  10.685  10.309   6.307
58411SOL    HW277066  10.557  10.239   6.348
58412SOL     OW77067   2.868  11.909   7.591
58412SOL    HW177068   2.964  11.908   7.593
58412SOL    HW277069   2.842  11.891   7.681
58413SOL     OW77070   5.531   1.339  10.180
58413SOL    HW177071   5.485   1.297  10.253
58413SOL    HW277072   5.569   1.266  10.131
58414SOL     OW77073   2.125   5.610   3.143
58414SOL    HW177074   2.143   5.702   3.126
58414SOL    HW277075   2.144   5.598   3.236
58415SOL     OW77076   6.386   2.747   3.690
58415SOL    HW177077   6.329   2.676   3.659
58415SOL    HW277078   6.361   2.823   3.637
58416SOL     OW77079  10.621  12.338  13.224
58416SOL    HW177080  10.693  12.400  13.215
58416SOL    HW277081  10.552  12.387  13.269
58417SOL     OW77082  11.983   4.562   6.135
58417SOL    HW177083  11.990   4.536   6.227
58417SOL    HW277084  11.972   4.480   6.087
58418SOL     OW77085   4.057  13.987   4.103
58418SOL    HW177086   4.057  13.973   4.198
58418SOL    HW277087   4.150  13.992   4.080
58419SOL     OW77088   5.483   4.638   3.190
58419SOL    HW177089   5.416   4.650   3.122
58419SOL    HW277090   5.542   4.572   3.153
58420SOL     OW77091   7.270   5.951  13.750
58420SOL    HW177092   7.293   6.010  13.678
58420SOL    HW277093   7.303   5.866  13.723
58421SOL     OW77094  14.748   5.242   7.822
58421SOL    HW177095  14.835   5.241   7.784
58421SOL    HW277096  14.700   5.308   7.772
58422SOL     OW77097  13.497   0.787  11.047
58422SOL    HW177098  13.481   0.874  11.010
58422SOL    HW277099  13.410   0.754  11.068
58423SOL     OW77100   7.981   1.850   5.017
58423SOL    HW177101   7.991   1.758   4.994
58423SOL    HW277102   7.887   1.868   5.009
58424SOL     OW77103   4.927   8.159   8.324
58424SOL    HW177104   4.989   8.147   8.396
58424SOL    HW277105   4.960   8.102   8.254
58425SOL     OW77106  12.726   2.093  10.579
58425SOL    HW177107  12.674   2.052  10.648
58425SOL    HW277108  12.814   2.100  10.618
58426SOL     OW77109  10.464   7.359  14.629
58426SOL    HW177110  10.427   7.389  14.545
58426SOL    HW277111  10.393   7.309  14.669
58427SOL     OW77112  11.356   7.269  12.372
58427SOL    HW177113  11.391   7.267  12.283
58427SOL    HW277114  11.268   7.232  12.365
58428SOL     OW77115   7.320   4.593   3.129
58428SOL    HW177116   7.234   4.631   3.109
58428SOL    HW277117   7.367   4.664   3.173
58429SOL     OW77118   8.639   7.239   7.548
58429SOL    HW177119   8.570   7.246   7.481
58429SOL    HW277120   8.598   7.190   7.619
58430SOL     OW77121   3.515   2.263   9.032
58430SOL    HW177122   3.546   2.290   8.946
58430SOL    HW277123   3.565   2.184   9.052
58431SOL     OW77124   8.241   2.879  11.879
58431SOL    HW177125   8.177   2.823  11.837
58431SOL    HW277126   8.192   2.924  11.948
58432SOL     OW77127  14.745   7.656   9.888
58432SOL    HW177128  14.675   7.596   9.913
58432SOL    HW277129  14.719   7.689   9.802
58433SOL     OW77130   2.975   5.486   9.020
58433SOL    HW177131   2.999   5.526   8.936
58433SOL    HW277132   3.044   5.513   9.080
58434SOL     OW77133   1.815   7.435   4.205
58434SOL    HW177134   1.862   7.485   4.138
58434SOL    HW277135   1.861   7.351   4.209
58435SOL     OW77136  13.063   8.144   3.071
58435SOL    HW177137  13.146   8.103   3.047
58435SOL    HW277138  12.996   8.089   3.031
58436SOL     OW77139  12.585   4.082  11.973
58436SOL    HW177140  12.563   4.173  11.952
58436SOL    HW277141  12.529   4.060  12.047
58437SOL     OW77142  14.440  10.746   8.103
58437SOL    HW177143  14.417  10.720   8.192
58437SOL    HW277144  14.477  10.668   8.063
58438SOL     OW77145  11.548   2.858   4.221
58438SOL    HW177146  11.603   2.780   4.214
58438SOL    HW277147  11.470   2.837   4.169
58439SOL     OW77148  11.510   2.814  12.323
58439SOL    HW177149  11.560   2.890  12.294
58439SOL    HW277150  11.429   2.850  12.359
58440SOL     OW77151   9.473   7.350   3.708
58440SOL    HW177152   9.508   7.409   3.775
58440SOL    HW277153   9.395   7.395   3.675
58441SOL     OW77154   8.009   9.722   8.624
58441SOL    HW177155   7.947   9.648   8.623
58441SOL    HW277156   7.955   9.798   8.606
58442SOL     OW77157  13.294   2.612   0.707
58442SOL    HW177158  13.252   2.646   0.787
58442SOL    HW277159  13.387   2.614   0.727
58443SOL     OW77160   3.478   1.701   3.362
58443SOL    HW177161   3.569   1.721   3.386
58443SOL    HW277162   3.428   1.775   3.395
58444SOL     OW77163  13.252   2.909   5.707
58444SOL    HW177164  13.291   2.919   5.794
58444SOL    HW277165  13.165   2.872   5.723
58445SOL     OW77166   7.511   6.498   5.650
58445SOL    HW177167   7.482   6.428   5.708
58445SOL    HW277168   7.601   6.474   5.627
58446SOL     OW77169   8.750   8.816  14.016
58446SOL    HW177170   8.780   8.790  13.929
58446SOL    HW277171   8.827   8.809  14.071
58447SOL     OW77172  14.678  14.531   0.520
58447SOL    HW177173  14.768  14.515   0.548
58447SOL    HW277174  14.679  14.523   0.425
58448SOL     OW77175   6.638   9.969   4.220
58448SOL    HW177176   6.655   9.998   4.310
58448SOL    HW277177   6.544   9.953   4.217
58449SOL     OW77178   4.773   9.527  12.797
58449SOL    HW177179   4.787   9.432  12.795
58449SOL    HW277180   4.728   9.543  12.880
58450SOL     OW77181   7.655   2.542   7.342
58450SOL    HW177182   7.686   2.481   7.410
58450SOL    HW277183   7.610   2.486   7.279
58451SOL     OW77184  13.397   0.957   9.950
58451SOL    HW177185  13.358   1.042   9.969
58451SOL    HW277186  13.442   0.969   9.867
58452SOL     OW77187  13.950   4.595   5.806
58452SOL    HW177188  13.906   4.605   5.722
58452SOL    HW277189  14.044   4.597   5.784
58453SOL     OW77190   7.367   9.902   0.638
58453SOL    HW177191   7.307   9.835   0.671
58453SOL    HW277192   7.454   9.866   0.654
58454SOL     OW77193   9.745   2.974  11.028
58454SOL    HW177194   9.693   2.942  10.954
58454SOL    HW277195   9.781   3.058  10.998
58455SOL     OW77196   6.201   0.256   6.611
58455SOL    HW177197   6.233   0.219   6.693
58455SOL    HW277198   6.172   0.344   6.635
58456SOL     OW77199   0.182   5.127   3.337
58456SOL    HW177200   0.156   5.088   3.254
58456SOL    HW277201   0.174   5.056   3.400
58457SOL     OW77202   4.432  10.399  12.527
58457SOL    HW177203   4.357  10.343  12.546
58457SOL    HW277204   4.409  10.484  12.565
58458SOL     OW77205   1.835   0.050  10.075
58458SOL    HW177206   1.865   0.121  10.131
58458SOL    HW277207   1.867   0.074   9.988
58459SOL     OW77208  13.977  12.519  10.621
58459SOL    HW177209  13.978  12.564  10.705
58459SOL    HW277210  14.056  12.549  10.576
58460SOL     OW77211  11.721   8.004   2.851
58460SOL    HW177212  11.737   8.029   2.942
58460SOL    HW277213  11.651   7.940   2.856
58461SOL     OW77214   8.123   7.851   4.086
58461SOL    HW177215   8.197   7.858   4.025
58461SOL    HW277216   8.063   7.921   4.059
58462SOL     OW77217   6.511   5.212   8.025
58462SOL    HW177218   6.518   5.301   7.993
58462SOL    HW277219   6.481   5.161   7.949
58463SOL     OW77220   6.138  13.348   8.764
58463SOL    HW177221   6.114  13.274   8.707
58463SOL    HW277222   6.181  13.410   8.706
58464SOL     OW77223  12.040  13.474   5.502
58464SOL    HW177224  12.030  13.570   5.501
58464SOL    HW277225  11.985  13.443   5.430
58465SOL     OW77226  14.297   6.162  12.742
58465SOL    HW177227  14.301   6.066  12.740
58465SOL    HW277228  14.388   6.190  12.742
58466SOL     OW77229   9.773  10.304   8.016
58466SOL    HW177230   9.859  10.292   8.056
58466SOL    HW277231   9.712  10.267   8.080
58467SOL     OW77232   0.992   1.726   4.988
58467SOL    HW177233   1.003   1.813   4.949
58467SOL    HW277234   1.078   1.685   4.979
58468SOL     OW77235   9.743   6.446  10.238
58468SOL    HW177236   9.681   6.378  10.213
58468SOL    HW277237   9.700   6.528  10.215
58469SOL     OW77238  13.612  13.123   6.822
58469SOL    HW177239  13.674  13.103   6.751
58469SOL    HW277240  13.663  13.175   6.884
58470SOL     OW77241   3.011  10.465   4.067
58470SOL    HW177242   3.008  10.560   4.057
58470SOL    HW277243   3.101  10.446   4.092
58471SOL     OW77244   4.403   2.636   9.334
58471SOL    HW177245   4.332   2.653   9.272
58471SOL    HW277246   4.451   2.719   9.338
58472SOL     OW77247   5.968   5.560  11.288
58472SOL    HW177248   6.027   5.550  11.213
58472SOL    HW277249   5.949   5.470  11.316
58473SOL     OW77250   7.438   5.350   5.885
58473SOL    HW177251   7.485   5.267   5.880
58473SOL    HW277252   7.406   5.355   5.975
58474SOL     OW77253   9.511   6.286   2.996
58474SOL    HW177254   9.529   6.208   2.944
58474SOL    HW277255   9.590   6.341   2.986
58475SOL     OW77256  10.965  11.176  14.014
58475SOL    HW177257  10.948  11.084  14.033
58475SOL    HW277258  11.045  11.197  14.063
58476SOL     OW77259   4.713  13.613   9.626
58476SOL    HW177260   4.762  13.670   9.686
58476SOL    HW277261   4.633  13.591   9.674
58477SOL     OW77262   9.176   6.336   5.540
58477SOL    HW177263   9.233   6.389   5.484
58477SOL    HW277264   9.090   6.378   5.535
58478SOL     OW77265   7.339  11.718   1.531
58478SOL    HW177266   7.323  11.780   1.460
58478SOL    HW277267   7.361  11.636   1.487
58479SOL     OW77268  14.115   7.259  10.089
58479SOL    HW177269  14.085   7.319  10.021
58479SOL    HW277270  14.054   7.273  10.161
58480SOL     OW77271  13.947   8.979   2.614
58480SOL    HW177272  14.036   8.975   2.651
58480SOL    HW277273  13.894   9.018   2.683
58481SOL     OW77274  10.491   0.655   8.980
58481SOL    HW177275  10.585   0.640   8.972
58481SOL    HW277276  10.464   0.684   8.892
58482SOL     OW77277   8.076  12.465  10.693
58482SOL    HW177278   8.152  12.474  10.751
58482SOL    HW277279   8.112  12.469  10.605
58483SOL     OW77280   1.369   2.684   1.479
58483SOL    HW177281   1.408   2.760   1.521
58483SOL    HW277282   1.337   2.717   1.395
58484SOL     OW77283  11.232   9.632   4.615
58484SOL    HW177284  11.222   9.569   4.687
58484SOL    HW277285  11.161   9.611   4.555
58485SOL     OW77286  10.838   4.860   2.557
58485SOL    HW177287  10.927   4.845   2.590
58485SOL    HW277288  10.830   4.802   2.482
58486SOL     OW77289   9.191   5.544   9.158
58486SOL    HW177290   9.240   5.465   9.180
58486SOL    HW277291   9.194   5.549   9.063
58487SOL     OW77292  13.881  10.047   1.533
58487SOL    HW177293  13.876  10.054   1.438
58487SOL    HW277294  13.955  10.103   1.558
58488SOL     OW77295  10.491   1.216   2.323
58488SOL    HW177296  10.514   1.306   2.300
58488SOL    HW277297  10.484   1.170   2.239
58489SOL     OW77298  12.356   6.125   6.659
58489SOL    HW177299  12.274   6.139   6.613
58489SOL    HW277300  12.361   6.195   6.723
58490SOL     OW77301  12.722   1.401   5.087
58490SOL    HW177302  12.730   1.428   4.996
58490SOL    HW277303  12.632   1.423   5.111
58491SOL     OW77304  10.677  14.122   0.903
58491SOL    HW177305  10.757  14.109   0.852
58491SOL    HW277306  10.697  14.194   0.962
58492SOL     OW77307   9.208   5.623   6.755
58492SOL    HW177308   9.278   5.589   6.811
58492SOL    HW277309   9.228   5.589   6.668
58493SOL     OW77310   9.875  10.542  14.544
58493SOL    HW177311   9.914  10.457  14.527
58493SOL    HW277312   9.829  10.564  14.462
58494SOL     OW77313   7.865   5.251   0.864
58494SOL    HW177314   7.818   5.172   0.890
58494SOL    HW277315   7.922   5.223   0.792
58495SOL     OW77316   5.382   1.547   9.395
58495SOL    HW177317   5.303   1.568   9.345
58495SOL    HW277318   5.358   1.560   9.486
58496SOL     OW77319  11.758  13.823  13.433
58496SOL    HW177320  11.715  13.740  13.417
58496SOL    HW277321  11.687  13.887  13.434
58497SOL     OW77322  12.701   2.106  14.388
58497SOL    HW177323  12.670   2.121  14.477
58497SOL    HW277324  12.634   2.146  14.332
58498SOL     OW77325  14.063  13.167   0.727
58498SOL    HW177326  14.021  13.251   0.707
58498SOL    HW277327  14.063  13.162   0.822
58499SOL     OW77328  12.393  13.379   5.561
58499SOL    HW177329  12.420  13.292   5.590
58499SOL    HW277330  12.303  13.366   5.530
58500SOL     OW77331  11.919   8.578  12.126
58500SOL    HW177332  11.991   8.585  12.063
58500SOL    HW277333  11.894   8.485  12.123
58501SOL     OW77334  13.827  14.722  14.672
58501SOL    HW177335  13.745  14.751  14.631
58501SOL    HW277336  13.853  14.646  14.620
58502SOL     OW77337   0.947  13.823  14.013
58502SOL    HW177338   0.974  13.734  14.038
58502SOL    HW277339   0.870  13.810  13.958
58503SOL     OW77340  13.699   5.502   7.338
58503SOL    HW177341  13.760   5.428   7.336
58503SOL    HW277342  13.642   5.488   7.262
58504SOL     OW77343   7.846   4.926   5.859
58504SOL    HW177344   7.876   4.890   5.776
58504SOL    HW277345   7.820   5.016   5.838
58505SOL     OW77346  12.000  14.785  12.316
58505SOL    HW177347  12.096  14.784  12.307
58505SOL    HW277348  11.972  14.703  12.276
58506SOL     OW77349   9.091  12.962  14.131
58506SOL    HW177350   9.138  12.981  14.212
58506SOL    HW277351   9.029  12.893  14.154
58507SOL     OW77352  12.922   1.182   6.514
58507SOL    HW177353  12.979   1.249   6.476
58507SOL    HW277354  12.848   1.231   6.550
58508SOL     OW77355   7.447  10.517   6.013
58508SOL    HW177356   7.474  10.449   5.952
58508SOL    HW277357   7.361  10.545   5.981
58509SOL     OW77358   8.070  12.649   2.132
58509SOL    HW177359   8.034  12.587   2.068
58509SOL    HW277360   8.165  12.645   2.119
58510SOL     OW77361   2.962  12.859   9.323
58510SOL    HW177362   3.044  12.882   9.366
58510SOL    HW277363   2.919  12.798   9.383
58511SOL     OW77364  14.765   2.412  10.363
58511SOL    HW177365  14.708   2.466  10.308
58511SOL    HW277366  14.853   2.433  10.333
58512SOL     OW77367   2.027   5.938   1.853
58512SOL    HW177368   1.978   5.873   1.904
58512SOL    HW277369   1.985   5.938   1.767
58513SOL     OW77370  11.453   1.706  13.641
58513SOL    HW177371  11.526   1.758  13.607
58513SOL    HW277372  11.493   1.643  13.701
58514SOL     OW77373  13.693   3.933  11.509
58514SOL    HW177374  13.738   3.880  11.443
58514SOL    HW277375  13.642   3.871  11.561
58515SOL     OW77376  14.660   5.559  12.643
58515SOL    HW177377  14.741   5.511  12.631
58515SOL    HW277378  14.666   5.633  12.582
58516SOL     OW77379  10.692   9.646  10.657
58516SOL    HW177380  10.634   9.621  10.728
58516SOL    HW277381  10.741   9.567  10.636
58517SOL     OW77382   3.892  11.130  12.518
58517SOL    HW177383   3.846  11.124  12.434
58517SOL    HW277384   3.911  11.223  12.529
58518SOL     OW77385   5.948   7.295  13.533
58518SOL    HW177386   5.946   7.390  13.549
58518SOL    HW277387   5.868   7.262  13.575
58519SOL     OW77388   1.058   0.746  14.428
58519SOL    HW177389   1.044   0.714  14.339
58519SOL    HW277390   0.974   0.782  14.454
58520SOL     OW77391   0.738  12.847   6.780
58520SOL    HW177392   0.643  12.862   6.774
58520SOL    HW277393   0.763  12.819   6.692
58521SOL     OW77394  11.576  10.186   2.850
58521SOL    HW177395  11.575  10.091   2.866
58521SOL    HW277396  11.484  10.210   2.843
58522SOL     OW77397   8.499  10.568  10.373
58522SOL    HW177398   8.562  10.568  10.301
58522SOL    HW277399   8.431  10.506  10.346
58523SOL     OW77400  14.781  13.666  13.048
58523SOL    HW177401  14.808  13.585  13.092
58523SOL    HW277402  14.822  13.736  13.098
58524SOL     OW77403  10.284   2.641  14.683
58524SOL    HW177404  10.369   2.605  14.708
58524SOL    HW277405  10.290   2.656  14.589
58525SOL     OW77406   2.586  10.111  13.792
58525SOL    HW177407   2.566  10.020  13.771
58525SOL    HW277408   2.501  10.154  13.799
58526SOL     OW77409  13.902  10.591   7.961
58526SOL    HW177410  13.903  10.544   7.877
58526SOL    HW277411  13.986  10.570   8.001
58527SOL     OW77412   7.065  14.207   6.226
58527SOL    HW177413   7.140  14.266   6.236
58527SOL    HW277414   7.012  14.247   6.157
58528SOL     OW77415   8.065   6.956   6.507
58528SOL    HW177416   8.121   7.023   6.546
58528SOL    HW277417   8.037   6.994   6.423
58529SOL     OW77418   7.958   7.572   1.092
58529SOL    HW177419   7.922   7.495   1.136
58529SOL    HW277420   7.916   7.573   1.006
58530SOL     OW77421   5.580   3.364   0.857
58530SOL    HW177422   5.636   3.400   0.926
58530SOL    HW277423   5.560   3.275   0.886
58531SOL     OW77424   1.824   4.689   4.519
58531SOL    HW177425   1.904   4.689   4.467
58531SOL    HW277426   1.851   4.723   4.604
58532SOL     OW77427   7.566   0.182  10.734
58532SOL    HW177428   7.617   0.253  10.772
58532SOL    HW277429   7.584   0.188  10.640
58533SOL     OW77430   6.295  12.557  14.162
58533SOL    HW177431   6.255  12.622  14.105
58533SOL    HW277432   6.223  12.522  14.214
58534SOL     OW77433   2.029   1.131   8.183
58534SOL    HW177434   1.979   1.212   8.188
58534SOL    HW277435   2.104   1.152   8.127
58535SOL     OW77436  11.647   9.523   6.733
58535SOL    HW177437  11.695   9.484   6.807
58535SOL    HW277438  11.635   9.451   6.671
58536SOL     OW77439   1.726  14.099  14.678
58536SOL    HW177440   1.687  14.140  14.600
58536SOL    HW277441   1.800  14.156  14.700
58537SOL     OW77442   0.045   8.598   8.307
58537SOL    HW177443  14.847   8.653   8.332
58537SOL    HW277444   0.017   8.554   8.227
58538SOL     OW77445   5.205   7.008  12.574
58538SOL    HW177446   5.180   6.953  12.648
58538SOL    HW277447   5.128   7.011  12.518
58539SOL     OW77448   4.015   5.236   2.334
58539SOL    HW177449   4.020   5.332   2.328
58539SOL    HW277450   4.017   5.218   2.428
58540SOL     OW77451   0.771  14.299   3.192
58540SOL    HW177452   0.744  14.218   3.149
58540SOL    HW277453   0.692  14.331   3.235
58541SOL     OW77454   2.602   5.541  13.052
58541SOL    HW177455   2.674   5.516  13.111
58541SOL    HW277456   2.546   5.597  13.106
58542SOL     OW77457   1.181  12.014   1.746
58542SOL    HW177458   1.138  11.991   1.828
58542SOL    HW277459   1.233  11.937   1.723
58543SOL     OW77460   2.316   5.442  12.198
58543SOL    HW177461   2.368   5.382  12.143
58543SOL    HW277462   2.345   5.529  12.172
58544SOL     OW77463   5.993   6.122   8.832
58544SOL    HW177464   5.986   6.163   8.746
58544SOL    HW277465   5.932   6.171   8.887
58545SOL     OW77466   8.713   5.132   9.368
58545SOL    HW177467   8.773   5.198   9.403
58545SOL    HW277468   8.764   5.083   9.305
58546SOL     OW77469   1.225  13.683   9.705
58546SOL    HW177470   1.198  13.772   9.726
58546SOL    HW277471   1.260  13.688   9.616
58547SOL     OW77472  12.340  10.533   2.357
58547SOL    HW177473  12.310  10.442   2.353
58547SOL    HW277474  12.336  10.564   2.267
58548SOL     OW77475  12.323  10.176  14.719
58548SOL    HW177476  12.230  10.159  14.705
58548SOL    HW277477  12.367  10.099  14.685
58549SOL     OW77478   0.628  14.679   0.895
58549SOL    HW177479   0.607  14.613   0.830
58549SOL    HW277480   0.648  14.628   0.974
58550SOL     OW77481   7.736   9.601   1.079
58550SOL    HW177482   7.829   9.578   1.076
58550SOL    HW277483   7.732   9.687   1.038
58551SOL     OW77484   1.226   3.727   7.336
58551SOL    HW177485   1.301   3.784   7.318
58551SOL    HW277486   1.244   3.648   7.286
58552SOL     OW77487   9.617   3.951  13.817
58552SOL    HW177488   9.567   3.955  13.736
58552SOL    HW277489   9.688   4.014  13.804
58553SOL     OW77490   9.249   3.445   7.073
58553SOL    HW177491   9.199   3.377   7.118
58553SOL    HW277492   9.226   3.434   6.981
58554SOL     OW77493   6.398  11.621   0.794
58554SOL    HW177494   6.408  11.684   0.723
58554SOL    HW277495   6.444  11.660   0.868
58555SOL     OW77496   8.495  14.842  10.414
58555SOL    HW177497   8.558  14.789  10.464
58555SOL    HW277498   8.452   0.020  10.480
58556SOL     OW77499   4.736  14.581  11.459
58556SOL    HW177500   4.684  14.505  11.433
58556SOL    HW277501   4.784  14.553  11.537
58557SOL     OW77502   2.094   6.425   5.273
58557SOL    HW177503   2.091   6.334   5.244
58557SOL    HW277504   2.187   6.447   5.277
58558SOL     OW77505   7.967   9.893   5.456
58558SOL    HW177506   7.915   9.897   5.376
58558SOL    HW277507   7.914   9.844   5.518
58559SOL     OW77508   5.229   2.136  11.056
58559SOL    HW177509   5.212   2.213  11.110
58559SOL    HW277510   5.260   2.070  11.118
58560SOL     OW77511   8.819   5.951   2.101
58560SOL    HW177512   8.910   5.933   2.078
58560SOL    HW277513   8.816   6.046   2.113
58561SOL     OW77514   1.483   8.376   6.188
58561SOL    HW177515   1.575   8.390   6.167
58561SOL    HW277516   1.436   8.441   6.136
58562SOL     OW77517  12.833   5.107   0.710
58562SOL    HW177518  12.847   5.013   0.700
58562SOL    HW277519  12.844   5.122   0.804
58563SOL     OW77520   1.019   0.014  11.009
58563SOL    HW177521   1.086   0.067  11.051
58563SOL    HW277522   0.982  14.837  11.080
58564SOL     OW77523   9.318   0.808   8.738
58564SOL    HW177524   9.401   0.853   8.718
58564SOL    HW277525   9.255   0.879   8.752
58565SOL     OW77526  11.314   2.548   5.482
58565SOL    HW177527  11.281   2.512   5.400
58565SOL    HW277528  11.387   2.491   5.506
58566SOL     OW77529  10.928  13.167  13.433
58566SOL    HW177530  10.996  13.111  13.472
58566SOL    HW277531  10.912  13.129  13.347
58567SOL     OW77532   3.366   4.931  14.700
58567SOL    HW177533   3.272   4.934  14.716
58567SOL    HW277534   3.376   4.968  14.613
58568SOL     OW77535  13.102   5.618   3.228
58568SOL    HW177536  13.075   5.527   3.240
58568SOL    HW277537  13.052   5.666   3.294
58569SOL     OW77538  10.293   6.091   5.114
58569SOL    HW177539  10.355   6.116   5.182
58569SOL    HW277540  10.230   6.164   5.111
58570SOL     OW77541   2.734   0.247   7.106
58570SOL    HW177542   2.796   0.319   7.095
58570SOL    HW277543   2.698   0.233   7.019
58571SOL     OW77544  11.678   2.196   6.117
58571SOL    HW177545  11.627   2.246   6.054
58571SOL    HW277546  11.769   2.203   6.086
58572SOL     OW77547   6.335   2.647  14.609
58572SOL    HW177548   6.387   2.593  14.549
58572SOL    HW277549   6.280   2.700  14.552
58573SOL     OW77550   9.159   1.076   7.974
58573SOL    HW177551   9.149   1.109   7.885
58573SOL    HW277552   9.128   1.147   8.030
58574SOL     OW77553  14.003  13.830  12.659
58574SOL    HW177554  13.961  13.914  12.674
58574SOL    HW277555  13.990  13.781  12.740
58575SOL     OW77556   5.285   8.352   0.543
58575SOL    HW177557   5.328   8.427   0.586
58575SOL    HW277558   5.346   8.324   0.475
58576SOL     OW77559   5.544   7.098   0.408
58576SOL    HW177560   5.452   7.106   0.430
58576SOL    HW277561   5.551   7.013   0.364
58577SOL     OW77562   9.462  14.129   9.397
58577SOL    HW177563   9.404  14.062   9.362
58577SOL    HW277564   9.422  14.212   9.371
58578SOL     OW77565  11.155   2.621   6.024
58578SOL    HW177566  11.157   2.566   6.102
58578SOL    HW277567  11.101   2.571   5.961
58579SOL     OW77568   2.013   3.560   5.650
58579SOL    HW177569   1.940   3.497   5.653
58579SOL    HW277570   2.091   3.506   5.640
58580SOL     OW77571   9.304  10.742   5.528
58580SOL    HW177572   9.301  10.681   5.455
58580SOL    HW277573   9.380  10.715   5.579
58581SOL     OW77574   9.205   6.466   8.599
58581SOL    HW177575   9.164   6.497   8.518
58581SOL    HW277576   9.259   6.392   8.571
58582SOL     OW77577   0.847   6.244  10.741
58582SOL    HW177578   0.856   6.319  10.682
58582SOL    HW277579   0.772   6.196  10.707
58583SOL     OW77580   5.767   5.265  11.340
58583SOL    HW177581   5.678   5.248  11.371
58583SOL    HW277582   5.758   5.266  11.244
58584SOL     OW77583  11.179   1.254   0.673
58584SOL    HW177584  11.167   1.346   0.650
58584SOL    HW277585  11.239   1.255   0.747
58585SOL     OW77586   9.775   5.445   5.203
58585SOL    HW177587   9.706   5.468   5.141
58585SOL    HW277588   9.741   5.370   5.251
58586SOL     OW77589  13.890   9.042  13.858
58586SOL    HW177590  13.941   9.029  13.778
58586SOL    HW277591  13.854   9.131  13.849
58587SOL     OW77592   6.006  12.484   4.999
58587SOL    HW177593   6.002  12.474   4.904
58587SOL    HW277594   5.935  12.429   5.032
58588SOL     OW77595   0.150   8.940   1.476
58588SOL    HW177596   0.089   9.010   1.453
58588SOL    HW277597   0.100   8.883   1.534
58589SOL     OW77598  10.229   0.295   6.778
58589SOL    HW177599  10.177   0.243   6.717
58589SOL    HW277600  10.307   0.241   6.793
58590SOL     OW77601  10.665   4.310   9.613
58590SOL    HW177602  10.590   4.255   9.636
58590SOL    HW277603  10.695   4.347   9.696
58591SOL     OW77604   3.145  14.349  10.249
58591SOL    HW177605   3.071  14.330  10.191
58591SOL    HW277606   3.216  14.294  10.216
58592SOL     OW77607   6.963  12.805   5.565
58592SOL    HW177608   6.935  12.738   5.502
58592SOL    HW277609   6.883  12.853   5.585
58593SOL     OW77610   3.759  11.250   9.875
58593SOL    HW177611   3.823  11.200   9.823
58593SOL    HW277612   3.813  11.311   9.926
58594SOL     OW77613   0.973   5.093   4.164
58594SOL    HW177614   1.024   5.155   4.215
58594SOL    HW277615   1.003   5.007   4.194
58595SOL     OW77616   5.191   4.712   6.483
58595SOL    HW177617   5.257   4.724   6.415
58595SOL    HW277618   5.135   4.790   6.476
58596SOL     OW77619   8.376   9.210  12.320
58596SOL    HW177620   8.437   9.160  12.266
58596SOL    HW277621   8.307   9.238  12.260
58597SOL     OW77622   8.844   2.167   6.487
58597SOL    HW177623   8.898   2.190   6.563
58597SOL    HW277624   8.906   2.152   6.416
58598SOL     OW77625   9.497  13.441   8.863
58598SOL    HW177626   9.432  13.381   8.826
58598SOL    HW277627   9.549  13.387   8.922
58599SOL     OW77628  13.041  13.864   4.328
58599SOL    HW177629  13.078  13.859   4.240
58599SOL    HW277630  13.117  13.859   4.386
58600SOL     OW77631   1.786   8.206   1.693
58600SOL    HW177632   1.756   8.115   1.692
58600SOL    HW277633   1.865   8.206   1.638
58601SOL     OW77634  12.921  11.574   8.279
58601SOL    HW177635  12.865  11.545   8.207
58601SOL    HW277636  13.006  11.589   8.238
58602SOL     OW77637   2.886   0.058  10.157
58602SOL    HW177638   2.900   0.130  10.096
58602SOL    HW277639   2.953  14.869  10.133
58603SOL     OW77640  13.678   4.071   4.038
58603SOL    HW177641  13.596   4.115   4.016
58603SOL    HW277642  13.737   4.141   4.064
58604SOL     OW77643   1.438  12.186   4.993
58604SOL    HW177644   1.350  12.173   4.958
58604SOL    HW277645   1.444  12.281   5.008
58605SOL     OW77646   4.215   3.734   6.250
58605SOL    HW177647   4.171   3.672   6.192
58605SOL    HW277648   4.285   3.683   6.291
58606SOL     OW77649   5.216   2.197   4.791
58606SOL    HW177650   5.257   2.134   4.731
58606SOL    HW277651   5.271   2.275   4.784
58607SOL     OW77652   5.501   9.743   7.595
58607SOL    HW177653   5.436   9.768   7.529
58607SOL    HW277654   5.490   9.648   7.605
58608SOL     OW77655  14.351  13.209   1.623
58608SOL    HW177656  14.297  13.283   1.597
58608SOL    HW277657  14.415  13.199   1.553
58609SOL     OW77658   8.926   5.940   0.244
58609SOL    HW177659   8.886   5.878   0.305
58609SOL    HW277660   8.884   5.920   0.160
58610SOL     OW77661   3.088   6.646   6.467
58610SOL    HW177662   3.128   6.633   6.553
58610SOL    HW277663   3.159   6.632   6.405
58611SOL     OW77664   3.137  13.542  10.893
58611SOL    HW177665   3.184  13.606  10.946
58611SOL    HW277666   3.205  13.504  10.837
58612SOL     OW77667  14.577   1.229   4.111
58612SOL    HW177668  14.555   1.164   4.044
58612SOL    HW277669  14.661   1.200   4.146
58613SOL     OW77670   6.498  13.735   7.261
58613SOL    HW177671   6.540  13.745   7.346
58613SOL    HW277672   6.413  13.778   7.271
58614SOL     OW77673   7.832   6.984   9.541
58614SOL    HW177674   7.784   6.997   9.622
58614SOL    HW277675   7.855   6.891   9.542
58615SOL     OW77676  11.859   3.761  11.294
58615SOL    HW177677  11.882   3.841  11.340
58615SOL    HW277678  11.931   3.701  11.312
58616SOL     OW77679   2.289   7.430   9.248
58616SOL    HW177680   2.381   7.454   9.236
58616SOL    HW277681   2.241   7.512   9.240
58617SOL     OW77682   1.619   0.872  12.814
58617SOL    HW177683   1.613   0.865  12.719
58617SOL    HW277684   1.705   0.835  12.835
58618SOL     OW77685   5.324  14.520   2.865
58618SOL    HW177686   5.257  14.559   2.922
58618SOL    HW277687   5.404  14.521   2.918
58619SOL     OW77688   9.015   7.810   4.580
58619SOL    HW177689   9.000   7.902   4.603
58619SOL    HW277690   9.004   7.762   4.662
58620SOL     OW77691   0.728   3.742   4.055
58620SOL    HW177692   0.664   3.770   4.121
58620SOL    HW277693   0.738   3.648   4.069
58621SOL     OW77694   1.441   7.816   0.971
58621SOL    HW177695   1.426   7.853   0.884
58621SOL    HW277696   1.530   7.842   0.993
58622SOL     OW77697  11.241   6.802  11.057
58622SOL    HW177698  11.324   6.794  11.010
58622SOL    HW277699  11.174   6.806  10.988
58623SOL     OW77700   5.101   0.669   6.642
58623SOL    HW177701   5.121   0.714   6.725
58623SOL    HW277702   5.170   0.604   6.633
58624SOL     OW77703  10.121  14.009   0.402
58624SOL    HW177704  10.148  14.099   0.385
58624SOL    HW277705  10.113  13.969   0.316
58625SOL     OW77706  14.142   5.523   8.996
58625SOL    HW177707  14.084   5.524   9.072
58625SOL    HW277708  14.099   5.464   8.934
58626SOL     OW77709  13.416   6.216  12.083
58626SOL    HW177710  13.337   6.261  12.113
58626SOL    HW277711  13.384   6.139  12.037
58627SOL     OW77712   4.967   4.386  11.825
58627SOL    HW177713   4.980   4.362  11.733
58627SOL    HW277714   4.873   4.405  11.831
58628SOL     OW77715  13.464   3.982   6.454
58628SOL    HW177716  13.437   3.890   6.458
58628SOL    HW277717  13.408   4.027   6.517
58629SOL     OW77718   2.623  12.997   7.312
58629SOL    HW177719   2.674  13.057   7.257
58629SOL    HW277720   2.552  13.051   7.347
58630SOL     OW77721  13.549  14.483   3.419
58630SOL    HW177722  13.624  14.424   3.412
58630SOL    HW277723  13.483  14.445   3.362
58631SOL     OW77724   8.773   3.945   5.243
58631SOL    HW177725   8.854   3.996   5.235
58631SOL    HW277726   8.731   3.955   5.158
58632SOL     OW77727   5.326   5.835   6.367
58632SOL    HW177728   5.323   5.751   6.321
58632SOL    HW277729   5.377   5.892   6.311
58633SOL     OW77730  10.924   6.564   4.699
58633SOL    HW177731  10.886   6.634   4.753
58633SOL    HW277732  10.919   6.486   4.754
58634SOL     OW77733   6.082  12.099   5.827
58634SOL    HW177734   6.095  12.126   5.918
58634SOL    HW277735   6.162  12.126   5.782
58635SOL     OW77736   5.927  12.822  12.265
58635SOL    HW177737   5.994  12.786  12.207
58635SOL    HW277738   5.891  12.745  12.311
58636SOL     OW77739   7.809   6.966   2.403
58636SOL    HW177740   7.721   6.939   2.375
58636SOL    HW277741   7.854   6.883   2.421
58637SOL     OW77742   5.408   0.380  12.712
58637SOL    HW177743   5.316   0.355  12.724
58637SOL    HW277744   5.432   0.419  12.796
58638SOL     OW77745   6.936   4.645  11.381
58638SOL    HW177746   7.013   4.604  11.343
58638SOL    HW277747   6.870   4.576  11.382
58639SOL     OW77748   0.070  14.675  13.135
58639SOL    HW177749   0.103  14.763  13.156
58639SOL    HW277750  14.851  14.686  13.129
58640SOL     OW77751   5.741   7.756   8.361
58640SOL    HW177752   5.741   7.836   8.309
58640SOL    HW277753   5.652   7.750   8.397
58641SOL     OW77754   3.657   3.007   9.006
58641SOL    HW177755   3.629   2.916   9.015
58641SOL    HW277756   3.578   3.054   8.980
58642SOL     OW77757  10.503  14.198   5.866
58642SOL    HW177758  10.483  14.106   5.855
58642SOL    HW277759  10.599  14.203   5.862
58643SOL     OW77760   1.335  10.275  12.075
58643SOL    HW177761   1.370  10.266  11.986
58643SOL    HW277762   1.411  10.261  12.132
58644SOL     OW77763   1.302   3.260  13.176
58644SOL    HW177764   1.308   3.165  13.177
58644SOL    HW277765   1.289   3.282  13.083
58645SOL     OW77766   7.894  13.575  14.385
58645SOL    HW177767   7.945  13.532  14.316
58645SOL    HW277768   7.861  13.655  14.345
58646SOL     OW77769   0.777   6.967  14.748
58646SOL    HW177770   0.718   6.967  14.673
58646SOL    HW277771   0.862   6.941  14.714
58647SOL     OW77772  10.571  14.024   2.436
58647SOL    HW177773  10.592  13.966   2.508
58647SOL    HW277774  10.488  14.065   2.461
58648SOL     OW77775  14.070   3.337   7.684
58648SOL    HW177776  14.140   3.400   7.696
58648SOL    HW277777  14.022   3.339   7.767
58649SOL     OW77778   9.108   9.330   8.810
58649SOL    HW177779   9.025   9.378   8.816
58649SOL    HW277780   9.173   9.392   8.842
58650SOL     OW77781   2.509   3.584   4.275
58650SOL    HW177782   2.504   3.539   4.191
58650SOL    HW277783   2.479   3.673   4.256
58651SOL     OW77784   0.779  10.403   4.876
58651SOL    HW177785   0.821  10.444   4.800
58651SOL    HW277786   0.695  10.448   4.885
58652SOL     OW77787   2.949   5.182   1.507
58652SOL    HW177788   2.970   5.089   1.500
58652SOL    HW277789   2.917   5.192   1.597
58653SOL     OW77790   6.759   2.905   8.883
58653SOL    HW177791   6.765   2.810   8.887
58653SOL    HW277792   6.673   2.922   8.843
58654SOL     OW77793   3.506  10.731   8.267
58654SOL    HW177794   3.465  10.705   8.185
58654SOL    HW277795   3.440  10.786   8.310
58655SOL     OW77796   0.233  13.652   3.393
58655SOL    HW177797   0.185  13.734   3.403
58655SOL    HW277798   0.252  13.624   3.482
58656SOL     OW77799   1.030   8.879   4.680
58656SOL    HW177800   1.061   8.790   4.697
58656SOL    HW277801   1.102   8.935   4.709
58657SOL     OW77802  12.660   2.659  13.240
58657SOL    HW177803  12.573   2.631  13.214
58657SOL    HW277804  12.671   2.746  13.201
58658SOL     OW77805  14.724   9.840  13.892
58658SOL    HW177806  14.780   9.866  13.965
58658SOL    HW277807  14.645   9.806  13.934
58659SOL     OW77808  12.048   5.888   1.030
58659SOL    HW177809  12.023   5.913   1.118
58659SOL    HW277810  12.007   5.954   0.973
58660SOL     OW77811  13.475  12.613  13.882
58660SOL    HW177812  13.535  12.554  13.928
58660SOL    HW277813  13.434  12.665  13.951
58661SOL     OW77814  12.587  14.610   4.374
58661SOL    HW177815  12.586  14.677   4.306
58661SOL    HW277816  12.557  14.657   4.453
58662SOL     OW77817   9.586   8.541   8.673
58662SOL    HW177818   9.515   8.591   8.713
58662SOL    HW277819   9.547   8.505   8.593
58663SOL     OW77820   2.658  11.190   6.871
58663SOL    HW177821   2.565  11.176   6.855
58663SOL    HW277822   2.696  11.102   6.867
58664SOL     OW77823   0.559   0.927   1.764
58664SOL    HW177824   0.635   0.908   1.708
58664SOL    HW277825   0.593   0.987   1.830
58665SOL     OW77826   2.691   0.184   9.622
58665SOL    HW177827   2.738   0.112   9.662
58665SOL    HW277828   2.753   0.258   9.625
58666SOL     OW77829   0.901   5.222  10.273
58666SOL    HW177830   0.851   5.170  10.336
58666SOL    HW277831   0.861   5.202  10.188
58667SOL     OW77832  11.121   9.986   5.220
58667SOL    HW177833  11.202   9.942   5.245
58667SOL    HW277834  11.093  10.031   5.300
58668SOL     OW77835   1.616  13.483   6.725
58668SOL    HW177836   1.558  13.557   6.742
58668SOL    HW277837   1.558  13.412   6.698
58669SOL     OW77838  13.946   4.506   4.428
58669SOL    HW177839  14.014   4.442   4.451
58669SOL    HW277840  13.967   4.583   4.480
58670SOL     OW77841   0.571   3.548   8.575
58670SOL    HW177842   0.620   3.539   8.493
58670SOL    HW277843   0.638   3.569   8.640
58671SOL     OW77844  10.649  10.677   4.697
58671SOL    HW177845  10.656  10.582   4.692
58671SOL    HW277846  10.557  10.696   4.678
58672SOL     OW77847  10.763   7.133   2.058
58672SOL    HW177848  10.688   7.164   2.007
58672SOL    HW277849  10.790   7.053   2.014
58673SOL     OW77850   5.948   2.573   2.253
58673SOL    HW177851   5.932   2.544   2.164
58673SOL    HW277852   5.872   2.628   2.274
58674SOL     OW77853  13.459  10.000   6.105
58674SOL    HW177854  13.390  10.046   6.057
58674SOL    HW277855  13.421   9.914   6.125
58675SOL     OW77856   8.681  13.470   2.676
58675SOL    HW177857   8.727  13.544   2.714
58675SOL    HW277858   8.598  13.466   2.725
58676SOL     OW77859   6.015   8.181   7.384
58676SOL    HW177860   6.055   8.094   7.389
58676SOL    HW277861   6.004   8.208   7.475
58677SOL     OW77862   0.473   0.745  11.352
58677SOL    HW177863   0.482   0.651  11.367
58677SOL    HW277864   0.415   0.775  11.422
58678SOL     OW77865   0.561   9.726   8.096
58678SOL    HW177866   0.509   9.798   8.059
58678SOL    HW277867   0.565   9.661   8.026
58679SOL     OW77868   6.894   2.666  11.960
58679SOL    HW177869   6.911   2.695  12.050
58679SOL    HW277870   6.804   2.693  11.943
58680SOL     OW77871   0.641  14.425  12.616
58680SOL    HW177872   0.607  14.356  12.558
58680SOL    HW277873   0.659  14.379  12.699
58681SOL     OW77874   0.931   2.056   1.339
58681SOL    HW177875   0.970   1.990   1.282
58681SOL    HW277876   0.871   2.006   1.395
58682SOL     OW77877   5.606   9.212   9.785
58682SOL    HW177878   5.607   9.217   9.881
58682SOL    HW277879   5.591   9.120   9.766
58683SOL     OW77880   3.450   0.039   3.130
58683SOL    HW177881   3.522   0.089   3.093
58683SOL    HW277882   3.397   0.104   3.176
58684SOL     OW77883   9.924   2.069   3.427
58684SOL    HW177884   9.930   1.989   3.479
58684SOL    HW277885   9.948   2.041   3.338
58685SOL     OW77886   7.880  11.536  12.717
58685SOL    HW177887   7.970  11.503  12.712
58685SOL    HW277888   7.889  11.629  12.738
58686SOL     OW77889   5.536  14.572   9.660
58686SOL    HW177890   5.620  14.531   9.640
58686SOL    HW277891   5.559  14.656   9.700
58687SOL     OW77892  11.149   2.899   0.093
58687SOL    HW177893  11.166   2.850   0.174
58687SOL    HW277894  11.230   2.948   0.077
58688SOL     OW77895   0.653   8.106   8.804
58688SOL    HW177896   0.741   8.096   8.766
58688SOL    HW277897   0.663   8.080   8.895
58689SOL     OW77898  10.005  11.518  10.956
58689SOL    HW177899  10.047  11.574  10.890
58689SOL    HW277900   9.970  11.579  11.021
58690SOL     OW77901   8.209   9.257   0.447
58690SOL    HW177902   8.156   9.177   0.441
58690SOL    HW277903   8.187   9.293   0.533
58691SOL     OW77904   6.133   1.754  13.750
58691SOL    HW177905   6.053   1.757  13.803
58691SOL    HW277906   6.107   1.708  13.670
58692SOL     OW77907   0.051  10.587   8.552
58692SOL    HW177908   0.091  10.657   8.603
58692SOL    HW277909   0.124  10.548   8.503
58693SOL     OW77910   3.664   2.606  12.418
58693SOL    HW177911   3.654   2.587  12.511
58693SOL    HW277912   3.659   2.701  12.413
58694SOL     OW77913   4.825   3.976  12.098
58694SOL    HW177914   4.869   4.036  12.038
58694SOL    HW277915   4.803   4.030  12.174
58695SOL     OW77916   5.502   9.694  11.584
58695SOL    HW177917   5.525   9.659  11.670
58695SOL    HW277918   5.563   9.652  11.523
58696SOL     OW77919   2.449  14.558   5.123
58696SOL    HW177920   2.521  14.523   5.071
58696SOL    HW277921   2.420  14.485   5.177
58697SOL     OW77922   0.327  12.950  10.045
58697SOL    HW177923   0.319  13.032   9.997
58697SOL    HW277924   0.394  12.968  10.111
58698SOL     OW77925   4.523   9.538  11.348
58698SOL    HW177926   4.608   9.549  11.307
58698SOL    HW277927   4.466   9.508  11.277
58699SOL     OW77928   7.580   5.104   2.790
58699SOL    HW177929   7.659   5.060   2.759
58699SOL    HW277930   7.598   5.197   2.777
58700SOL     OW77931  12.332   5.415  11.603
58700SOL    HW177932  12.327   5.506  11.572
58700SOL    HW277933  12.266   5.369  11.551
58701SOL     OW77934   1.261  12.992   0.127
58701SOL    HW177935   1.181  12.951   0.096
58701SOL    HW277936   1.317  12.919   0.153
58702SOL     OW77937   7.672  10.569  10.324
58702SOL    HW177938   7.655  10.496  10.264
58702SOL    HW277939   7.747  10.615  10.286
58703SOL     OW77940   5.679  10.088   5.600
58703SOL    HW177941   5.718  10.001   5.590
58703SOL    HW277942   5.736  10.134   5.660
58704SOL     OW77943  10.304   9.794   9.552
58704SOL    HW177944  10.384   9.742   9.564
58704SOL    HW277945  10.286   9.789   9.458
58705SOL     OW77946  10.565  10.038  11.787
58705SOL    HW177947  10.506   9.982  11.838
58705SOL    HW277948  10.604  10.097  11.852
58706SOL     OW77949  10.010   1.676  14.320
58706SOL    HW177950  10.019   1.745  14.255
58706SOL    HW277951   9.962   1.606  14.275
58707SOL     OW77952   0.802   1.574  13.004
58707SOL    HW177953   0.820   1.495  13.055
58707SOL    HW277954   0.740   1.545  12.937
58708SOL     OW77955  10.662  11.969  10.872
58708SOL    HW177956  10.694  11.897  10.926
58708SOL    HW277957  10.741  12.017  10.846
58709SOL     OW77958  12.492  11.005   3.647
58709SOL    HW177959  12.515  11.097   3.665
58709SOL    HW277960  12.518  10.958   3.726
58710SOL     OW77961   3.473   1.764  14.417
58710SOL    HW177962   3.510   1.679  14.442
58710SOL    HW277963   3.508   1.825  14.482
58711SOL     OW77964   2.196  10.473  10.276
58711SOL    HW177965   2.111  10.457  10.235
58711SOL    HW277966   2.182  10.455  10.369
58712SOL     OW77967   8.318   6.852  10.483
58712SOL    HW177968   8.405   6.831  10.517
58712SOL    HW277969   8.292   6.930  10.531
58713SOL     OW77970   4.937   9.557   4.411
58713SOL    HW177971   4.893   9.569   4.327
58713SOL    HW277972   4.941   9.644   4.450
58714SOL     OW77973  14.109  14.020  11.644
58714SOL    HW177974  14.061  14.089  11.691
58714SOL    HW277975  14.189  14.007  11.696
58715SOL     OW77976   9.743   9.373  10.708
58715SOL    HW177977   9.784   9.344  10.789
58715SOL    HW277978   9.816   9.382  10.647
58716SOL     OW77979  12.048   8.820   0.510
58716SOL    HW177980  12.021   8.761   0.580
58716SOL    HW277981  11.972   8.877   0.496
58717SOL     OW77982   3.377   2.840   5.486
58717SOL    HW177983   3.427   2.774   5.438
58717SOL    HW277984   3.360   2.800   5.571
58718SOL     OW77985   1.481   6.474  14.446
58718SOL    HW177986   1.515   6.409  14.384
58718SOL    HW277987   1.472   6.425  14.528
58719SOL     OW77988  10.673   4.261   7.427
58719SOL    HW177989  10.588   4.278   7.387
58719SOL    HW277990  10.699   4.175   7.394
58720SOL     OW77991  14.732   9.489  11.183
58720SOL    HW177992  14.814   9.538  11.185
58720SOL    HW277993  14.726   9.454  11.095
58721SOL     OW77994   7.794  11.128   6.584
58721SOL    HW177995   7.871  11.118   6.639
58721SOL    HW277996   7.800  11.218   6.551
58722SOL     OW77997  11.396   8.143   8.437
58722SOL    HW177998  11.425   8.212   8.378
58722SOL    HW277999  11.402   8.182   8.524
58723SOL     OW78000   8.192  14.176  10.371
58723SOL    HW178001   8.210  14.085  10.347
58723SOL    HW278002   8.251  14.228  10.317
58724SOL     OW78003  10.039   0.619   1.797
58724SOL    HW178004  10.067   0.710   1.810
58724SOL    HW278005   9.958   0.612   1.848
58725SOL     OW78006   1.846   2.980   1.009
58725SOL    HW178007   1.833   2.956   1.101
58725SOL    HW278008   1.872   3.072   1.012
58726SOL     OW78009  10.605   2.465   8.632
58726SOL    HW178010  10.600   2.554   8.598
58726SOL    HW278011  10.685   2.464   8.685
58727SOL     OW78012   0.799  13.674   7.382
58727SOL    HW178013   0.877  13.619   7.392
58727SOL    HW278014   0.828  13.747   7.328
58728SOL     OW78015   5.954   2.543   3.137
58728SOL    HW178016   5.895   2.584   3.074
58728SOL    HW278017   5.976   2.459   3.098
58729SOL     OW78018   9.939   9.223   2.452
58729SOL    HW178019  10.009   9.240   2.389
58729SOL    HW278020   9.868   9.186   2.399
58730SOL     OW78021   6.054   4.962  11.194
58730SOL    HW178022   6.069   4.871  11.167
58730SOL    HW278023   6.139   5.005  11.183
58731SOL     OW78024   9.634   3.295   6.572
58731SOL    HW178025   9.620   3.323   6.482
58731SOL    HW278026   9.551   3.255   6.598
58732SOL     OW78027   8.002  12.354  11.738
58732SOL    HW178028   8.003  12.260  11.718
58732SOL    HW278029   7.961  12.394  11.661
58733SOL     OW78030   0.245  13.979  13.388
58733SOL    HW178031   0.273  14.069  13.368
58733SOL    HW278032   0.150  13.984  13.391
58734SOL     OW78033   4.691  10.273   0.556
58734SOL    HW178034   4.723  10.267   0.466
58734SOL    HW278035   4.645  10.357   0.559
58735SOL     OW78036   2.932   4.353   5.201
58735SOL    HW178037   2.977   4.270   5.187
58735SOL    HW278038   3.001   4.415   5.226
58736SOL     OW78039   3.644   5.414   8.924
58736SOL    HW178040   3.639   5.319   8.910
58736SOL    HW278041   3.709   5.424   8.994
58737SOL     OW78042   6.600   5.729   8.815
58737SOL    HW178043   6.618   5.759   8.903
58737SOL    HW278044   6.686   5.714   8.776
58738SOL     OW78045  12.081   0.971   6.368
58738SOL    HW178046  12.045   0.910   6.433
58738SOL    HW278047  12.169   0.936   6.350
58739SOL     OW78048   3.888   5.400  12.578
58739SOL    HW178049   3.859   5.484  12.613
58739SOL    HW278050   3.962   5.375  12.633
58740SOL     OW78051  12.952   2.798  14.430
58740SOL    HW178052  12.938   2.843  14.513
58740SOL    HW278053  13.015   2.729  14.450
58741SOL     OW78054   3.152  10.092   8.263
58741SOL    HW178055   3.209  10.042   8.322
58741SOL    HW278056   3.211  10.133   8.201
58742SOL     OW78057   7.520   9.470   7.941
58742SOL    HW178058   7.537   9.540   7.878
58742SOL    HW278059   7.440   9.428   7.909
58743SOL     OW78060   4.666   5.703  10.150
58743SOL    HW178061   4.681   5.785  10.197
58743SOL    HW278062   4.586   5.717  10.101
58744SOL     OW78063  10.847   0.807  12.924
58744SOL    HW178064  10.753   0.811  12.905
58744SOL    HW278065  10.889   0.836  12.843
58745SOL     OW78066   2.562  12.509  14.399
58745SOL    HW178067   2.607  12.551  14.472
58745SOL    HW278068   2.590  12.417  14.404
58746SOL     OW78069   0.211   4.662   6.536
58746SOL    HW178070   0.143   4.719   6.501
58746SOL    HW278071   0.168   4.612   6.605
58747SOL     OW78072   6.013   9.565   5.723
58747SOL    HW178073   5.921   9.551   5.744
58747SOL    HW278074   6.036   9.647   5.767
58748SOL     OW78075  10.239   5.674  11.705
58748SOL    HW178076  10.279   5.644  11.623
58748SOL    HW278077  10.252   5.769  11.705
58749SOL     OW78078   1.533   7.503  12.208
58749SOL    HW178079   1.542   7.597  12.194
58749SOL    HW278080   1.560   7.489  12.299
58750SOL     OW78081   3.673   4.675   2.614
58750SOL    HW178082   3.753   4.624   2.626
58750SOL    HW278083   3.650   4.705   2.702
58751SOL     OW78084  14.012  13.497   7.406
58751SOL    HW178085  14.029  13.428   7.471
58751SOL    HW278086  14.074  13.566   7.428
58752SOL     OW78087   5.781  10.270   5.003
58752SOL    HW178088   5.761  10.290   5.094
58752SOL    HW278089   5.699  10.287   4.956
58753SOL     OW78090   4.714   9.958   1.842
58753SOL    HW178091   4.625   9.931   1.865
58753SOL    HW278092   4.767   9.879   1.858
58754SOL     OW78093  12.749   2.648  14.036
58754SOL    HW178094  12.743   2.646  14.131
58754SOL    HW278095  12.838   2.678  14.018
58755SOL     OW78096   8.601  11.370   3.988
58755SOL    HW178097   8.689  11.395   4.015
58755SOL    HW278098   8.579  11.430   3.918
58756SOL     OW78099   7.725  10.441   5.646
58756SOL    HW178100   7.700  10.518   5.696
58756SOL    HW278101   7.663  10.436   5.574
58757SOL     OW78102   4.800   1.917   4.546
58757SOL    HW178103   4.778   1.947   4.634
58757SOL    HW278104   4.889   1.948   4.530
58758SOL     OW78105  10.693  13.108   2.093
58758SOL    HW178106  10.651  13.032   2.052
58758SOL    HW278107  10.786  13.086   2.097
58759SOL     OW78108  10.658   4.370  10.910
58759SOL    HW178109  10.732   4.324  10.948
58759SOL    HW278110  10.693   4.456  10.887
58760SOL     OW78111   9.814  13.067   8.368
58760SOL    HW178112   9.845  13.141   8.420
58760SOL    HW278113   9.876  13.062   8.295
58761SOL     OW78114   7.630   8.678   9.648
58761SOL    HW178115   7.646   8.640   9.561
58761SOL    HW278116   7.573   8.615   9.692
58762SOL     OW78117   4.770   7.274   0.228
58762SOL    HW178118   4.848   7.228   0.258
58762SOL    HW278119   4.719   7.208   0.182
58763SOL     OW78120   0.148  11.413  13.076
58763SOL    HW178121   0.152  11.380  13.165
58763SOL    HW278122   0.099  11.495  13.083
58764SOL     OW78123   7.253   2.077   2.963
58764SOL    HW178124   7.265   2.098   2.870
58764SOL    HW278125   7.158   2.078   2.976
58765SOL     OW78126  12.753  10.432   5.644
58765SOL    HW178127  12.719  10.501   5.701
58765SOL    HW278128  12.799  10.372   5.704
58766SOL     OW78129  14.782   1.345  10.155
58766SOL    HW178130  14.847   1.375  10.091
58766SOL    HW278131  14.700   1.385  10.126
58767SOL     OW78132   4.184   4.387  13.240
58767SOL    HW178133   4.199   4.427  13.325
58767SOL    HW278134   4.092   4.406  13.220
58768SOL     OW78135  11.041   4.764  10.526
58768SOL    HW178136  11.047   4.669  10.530
58768SOL    HW278137  11.131   4.794  10.534
58769SOL     OW78138  13.291   0.750  10.639
58769SOL    HW178139  13.228   0.683  10.612
58769SOL    HW278140  13.376   0.715  10.613
58770SOL     OW78141  11.069  14.233  10.546
58770SOL    HW178142  11.092  14.279  10.465
58770SOL    HW278143  11.149  14.186  10.571
58771SOL     OW78144   1.571   6.649   6.476
58771SOL    HW178145   1.476   6.641   6.485
58771SOL    HW278146   1.591   6.739   6.500
58772SOL     OW78147  11.634   1.635   6.249
58772SOL    HW178148  11.603   1.631   6.340
58772SOL    HW278149  11.698   1.706   6.249
58773SOL     OW78150  12.623  14.244   1.784
58773SOL    HW178151  12.600  14.196   1.705
58773SOL    HW278152  12.644  14.176   1.849
58774SOL     OW78153   3.859  14.402   1.110
58774SOL    HW178154   3.941  14.376   1.152
58774SOL    HW278155   3.862  14.361   1.023
58775SOL     OW78156  12.449   2.180   0.435
58775SOL    HW178157  12.425   2.188   0.528
58775SOL    HW278158  12.536   2.219   0.430
58776SOL     OW78159   1.594  10.500   9.542
58776SOL    HW178160   1.538  10.435   9.584
58776SOL    HW278161   1.639  10.543   9.614
58777SOL     OW78162   0.875  10.076  12.978
58777SOL    HW178163   0.888  10.082  13.072
58777SOL    HW278164   0.858  10.166  12.950
58778SOL     OW78165   2.552   9.378  12.803
58778SOL    HW178166   2.624   9.317  12.790
58778SOL    HW278167   2.582   9.436  12.873
58779SOL     OW78168  12.406  11.969   3.152
58779SOL    HW178169  12.384  11.894   3.096
58779SOL    HW278170  12.501  11.977   3.145
58780SOL     OW78171   1.974  11.923  10.085
58780SOL    HW178172   2.042  11.983  10.054
58780SOL    HW278173   1.979  11.848  10.026
58781SOL     OW78174   7.989  13.935  13.662
58781SOL    HW178175   8.004  13.841  13.652
58781SOL    HW278176   7.897  13.941  13.690
58782SOL     OW78177   9.173   9.950   4.797
58782SOL    HW178178   9.191  10.002   4.876
58782SOL    HW278179   9.253   9.956   4.745
58783SOL     OW78180   0.782   4.275   3.499
58783SOL    HW178181   0.856   4.274   3.438
58783SOL    HW278182   0.709   4.309   3.447
58784SOL     OW78183   0.728  13.941   1.099
58784SOL    HW178184   0.813  13.939   1.055
58784SOL    HW278185   0.664  13.926   1.029
58785SOL     OW78186  12.351  14.164  14.343
58785SOL    HW178187  12.388  14.232  14.399
58785SOL    HW278188  12.427  14.121  14.305
58786SOL     OW78189  13.332  13.472   5.040
58786SOL    HW178190  13.277  13.545   5.069
58786SOL    HW278191  13.318  13.468   4.945
58787SOL     OW78192   0.930   7.962  10.785
58787SOL    HW178193   0.964   7.950  10.873
58787SOL    HW278194   0.859   7.898  10.778
58788SOL     OW78195  10.409  14.567  14.481
58788SOL    HW178196  10.328  14.568  14.532
58788SOL    HW278197  10.477  14.540  14.543
58789SOL     OW78198   5.259  12.542  10.331
58789SOL    HW178199   5.199  12.599  10.380
58789SOL    HW278200   5.338  12.539  10.385
58790SOL     OW78201  11.292   5.684   2.158
58790SOL    HW178202  11.374   5.719   2.193
58790SOL    HW278203  11.247   5.760   2.122
58791SOL     OW78204  13.165  12.253  12.811
58791SOL    HW178205  13.070  12.242  12.815
58791SOL    HW278206  13.201  12.174  12.851
58792SOL     OW78207   4.059   3.380   7.634
58792SOL    HW178208   4.028   3.289   7.630
58792SOL    HW278209   4.102   3.387   7.718
58793SOL     OW78210  10.171   4.131  11.069
58793SOL    HW178211  10.094   4.166  11.113
58793SOL    HW278212  10.205   4.205  11.017
58794SOL     OW78213  13.387   0.356   1.466
58794SOL    HW178214  13.404   0.331   1.557
58794SOL    HW278215  13.325   0.290   1.435
58795SOL     OW78216   1.199   1.556  10.267
58795SOL    HW178217   1.269   1.491  10.267
58795SOL    HW278218   1.212   1.606  10.348
58796SOL     OW78219   6.082   9.377  12.525
58796SOL    HW178220   6.004   9.410  12.570
58796SOL    HW278221   6.150   9.440  12.546
58797SOL     OW78222  12.291   9.454   4.187
58797SOL    HW178223  12.327   9.421   4.105
58797SOL    HW278224  12.301   9.381   4.249
58798SOL     OW78225  10.375   4.555  10.599
58798SOL    HW178226  10.440   4.625  10.608
58798SOL    HW278227  10.409   4.500  10.529
58799SOL     OW78228  12.508   2.467   3.380
58799SOL    HW178229  12.538   2.527   3.312
58799SOL    HW278230  12.428   2.428   3.345
58800SOL     OW78231  12.464   1.390   4.668
58800SOL    HW178232  12.507   1.412   4.585
58800SOL    HW278233  12.469   1.470   4.720
58801SOL     OW78234   8.034   9.763   7.687
58801SOL    HW178235   8.018   9.838   7.744
58801SOL    HW278236   8.040   9.801   7.599
58802SOL     OW78237   2.704  11.674   7.119
58802SOL    HW178238   2.634  11.697   7.057
58802SOL    HW278239   2.706  11.747   7.181
58803SOL     OW78240   1.284  11.523  12.985
58803SOL    HW178241   1.358  11.484  13.030
58803SOL    HW278242   1.294  11.495  12.894
58804SOL     OW78243   0.175   7.609   3.925
58804SOL    HW178244   0.095   7.602   3.977
58804SOL    HW278245   0.185   7.703   3.908
58805SOL     OW78246   4.165  12.600   5.346
58805SOL    HW178247   4.245  12.653   5.353
58805SOL    HW278248   4.114  12.643   5.278
58806SOL     OW78249  10.157   3.658  10.482
58806SOL    HW178250  10.216   3.731  10.464
58806SOL    HW278251  10.076   3.681  10.435
58807SOL     OW78252   6.024  14.367   3.435
58807SOL    HW178253   6.021  14.462   3.449
58807SOL    HW278254   6.016  14.330   3.523
58808SOL     OW78255   5.257  11.726  13.948
58808SOL    HW178256   5.266  11.714  13.853
58808SOL    HW278257   5.270  11.819  13.962
58809SOL     OW78258   2.814   0.782   7.602
58809SOL    HW178259   2.784   0.872   7.598
58809SOL    HW278260   2.902   0.787   7.637
58810SOL     OW78261   8.421   5.146   0.926
58810SOL    HW178262   8.474   5.169   0.850
58810SOL    HW278263   8.483   5.105   0.987
58811SOL     OW78264  10.879   0.459  12.799
58811SOL    HW178265  10.816   0.471  12.728
58811SOL    HW278266  10.916   0.546  12.813
58812SOL     OW78267   1.889  11.131   2.047
58812SOL    HW178268   1.907  11.093   1.961
58812SOL    HW278269   1.926  11.068   2.109
58813SOL     OW78270  10.201   9.879   8.530
58813SOL    HW178271  10.156   9.960   8.555
58813SOL    HW278272  10.131   9.818   8.508
58814SOL     OW78273   8.530  13.871   1.562
58814SOL    HW178274   8.460  13.831   1.512
58814SOL    HW278275   8.498  13.959   1.582
58815SOL     OW78276   0.482   8.972   8.432
58815SOL    HW178277   0.502   8.921   8.510
58815SOL    HW278278   0.455   9.058   8.466
58816SOL     OW78279  10.625  14.474   1.820
58816SOL    HW178280  10.715  14.446   1.838
58816SOL    HW278281  10.610  14.449   1.729
58817SOL     OW78282  12.581  10.306   2.192
58817SOL    HW178283  12.541  10.382   2.151
58817SOL    HW278284  12.675  10.324   2.190
58818SOL     OW78285   6.121   9.059   7.431
58818SOL    HW178286   6.184   9.026   7.367
58818SOL    HW278287   6.152   9.025   7.515
58819SOL     OW78288   8.586   4.675   2.761
58819SOL    HW178289   8.525   4.709   2.695
58819SOL    HW278290   8.560   4.584   2.772
58820SOL     OW78291   4.368   9.257   6.868
58820SOL    HW178292   4.361   9.215   6.783
58820SOL    HW278293   4.443   9.213   6.910
58821SOL     OW78294   0.189   7.653   8.369
58821SOL    HW178295   0.121   7.590   8.346
58821SOL    HW278296   0.269   7.617   8.330
58822SOL     OW78297  14.119   1.849  11.339
58822SOL    HW178298  14.150   1.931  11.378
58822SOL    HW278299  14.033   1.835  11.378
58823SOL     OW78300   1.517  11.138   5.239
58823SOL    HW178301   1.467  11.059   5.220
58823SOL    HW278302   1.603  11.107   5.268
58824SOL     OW78303  12.467  13.362   3.698
58824SOL    HW178304  12.549  13.392   3.658
58824SOL    HW278305  12.465  13.407   3.782
58825SOL     OW78306  12.643   6.054   5.972
58825SOL    HW178307  12.709   6.113   6.007
58825SOL    HW278308  12.692   5.995   5.915
58826SOL     OW78309   4.469  10.544   1.506
58826SOL    HW178310   4.485  10.596   1.585
58826SOL    HW278311   4.449  10.608   1.438
58827SOL     OW78312  12.992   0.501  14.071
58827SOL    HW178313  13.072   0.530  14.115
58827SOL    HW278314  12.985   0.557  13.994
58828SOL     OW78315  11.190   7.466   1.860
58828SOL    HW178316  11.168   7.382   1.819
58828SOL    HW278317  11.263   7.444   1.919
58829SOL     OW78318   3.179   0.412  11.912
58829SOL    HW178319   3.132   0.329  11.908
58829SOL    HW278320   3.251   0.403  11.849
58830SOL     OW78321   8.305   7.584   2.359
58830SOL    HW178322   8.268   7.601   2.272
58830SOL    HW278323   8.263   7.649   2.416
58831SOL     OW78324  14.012   0.507   2.646
58831SOL    HW178325  13.957   0.502   2.724
58831SOL    HW278326  13.975   0.579   2.595
58832SOL     OW78327  14.068   1.220  11.543
58832SOL    HW178328  14.160   1.208  11.520
58832SOL    HW278329  14.070   1.244  11.636
58833SOL     OW78330   0.374  12.480   8.902
58833SOL    HW178331   0.295  12.480   8.957
58833SOL    HW278332   0.438  12.430   8.952
58834SOL     OW78333   2.985  10.493   1.594
58834SOL    HW178334   2.933  10.541   1.658
58834SOL    HW278335   3.037  10.561   1.551
58835SOL     OW78336   7.373  10.937   0.475
58835SOL    HW178337   7.321  10.994   0.532
58835SOL    HW278338   7.458  10.981   0.467
58836SOL     OW78339   9.303   7.425   9.882
58836SOL    HW178340   9.384   7.386   9.915
58836SOL    HW278341   9.329   7.466   9.799
58837SOL     OW78342  11.610  14.657   2.211
58837SOL    HW178343  11.678  14.618   2.157
58837SOL    HW278344  11.602  14.596   2.285
58838SOL     OW78345   8.781  12.382   4.087
58838SOL    HW178346   8.789  12.448   4.018
58838SOL    HW278347   8.743  12.428   4.161
58839SOL     OW78348   7.089   5.672  12.156
58839SOL    HW178349   6.994   5.677  12.143
58839SOL    HW278350   7.121   5.625  12.079
58840SOL     OW78351  12.488   8.142  10.853
58840SOL    HW178352  12.581   8.165  10.860
58840SOL    HW278353  12.484   8.049  10.875
58841SOL     OW78354  10.942   1.019  11.193
58841SOL    HW178355  10.851   1.020  11.162
58841SOL    HW278356  10.969   1.110  11.190
58842SOL     OW78357   5.097   7.351   6.450
58842SOL    HW178358   5.045   7.410   6.395
58842SOL    HW278359   5.140   7.409   6.513
58843SOL     OW78360   8.786   7.109   6.176
58843SOL    HW178361   8.748   7.176   6.232
58843SOL    HW278362   8.829   7.049   6.237
58844SOL     OW78363   7.363  10.637   8.130
58844SOL    HW178364   7.350  10.730   8.112
58844SOL    HW278365   7.297  10.615   8.195
58845SOL     OW78366  10.529   1.226  13.464
58845SOL    HW178367  10.534   1.220  13.368
58845SOL    HW278368  10.436   1.224  13.483
58846SOL     OW78369   4.812   3.757   1.333
58846SOL    HW178370   4.870   3.684   1.356
58846SOL    HW278371   4.727   3.732   1.369
58847SOL     OW78372   6.884   9.477   2.672
58847SOL    HW178373   6.856   9.386   2.678
58847SOL    HW278374   6.878   9.498   2.578
58848SOL     OW78375   2.767   4.557   2.413
58848SOL    HW178376   2.835   4.494   2.392
58848SOL    HW278377   2.799   4.602   2.492
58849SOL     OW78378   3.312  11.456  13.067
58849SOL    HW178379   3.381  11.467  13.001
58849SOL    HW278380   3.350  11.399  13.133
58850SOL     OW78381   2.086   3.995   1.500
58850SOL    HW178382   2.119   3.906   1.516
58850SOL    HW278383   2.164   4.051   1.507
58851SOL     OW78384  11.975   6.599   4.272
58851SOL    HW178385  11.944   6.689   4.287
58851SOL    HW278386  11.911   6.545   4.318
58852SOL     OW78387   6.876   3.544  10.288
58852SOL    HW178388   6.799   3.499  10.325
58852SOL    HW278389   6.864   3.538  10.194
58853SOL     OW78390   8.627  12.673   6.473
58853SOL    HW178391   8.538  12.708   6.471
58853SOL    HW278392   8.675  12.727   6.410
58854SOL     OW78393   4.401   6.507  14.182
58854SOL    HW178394   4.443   6.500  14.268
58854SOL    HW278395   4.474   6.518  14.121
58855SOL     OW78396   1.586   0.703   2.896
58855SOL    HW178397   1.649   0.774   2.883
58855SOL    HW278398   1.639   0.631   2.930
58856SOL     OW78399   4.095  12.449  13.535
58856SOL    HW178400   4.103  12.450  13.630
58856SOL    HW278401   4.119  12.538  13.508
58857SOL     OW78402   7.528   9.315  11.593
58857SOL    HW178403   7.540   9.226  11.626
58857SOL    HW278404   7.469   9.356  11.656
58858SOL     OW78405   3.962   4.101   5.926
58858SOL    HW178406   3.929   4.019   5.889
58858SOL    HW278407   4.023   4.073   5.994
58859SOL     OW78408  11.464  11.478   3.599
58859SOL    HW178409  11.484  11.402   3.544
58859SOL    HW278410  11.479  11.448   3.689
58860SOL     OW78411   5.443  14.588   9.199
58860SOL    HW178412   5.361  14.606   9.154
58860SOL    HW278413   5.428  14.620   9.288
58861SOL     OW78414  11.358   1.457  10.407
58861SOL    HW178415  11.372   1.551  10.411
58861SOL    HW278416  11.298   1.438  10.479
58862SOL     OW78417   0.811   4.410   5.050
58862SOL    HW178418   0.752   4.420   4.975
58862SOL    HW278419   0.769   4.343   5.104
58863SOL     OW78420  11.156   0.675  13.183
58863SOL    HW178421  11.209   0.596  13.190
58863SOL    HW278422  11.185   0.717  13.102
58864SOL     OW78423   6.730   6.190   6.729
58864SOL    HW178424   6.781   6.270   6.725
58864SOL    HW278425   6.781   6.126   6.678
58865SOL     OW78426   4.044  12.396   7.476
58865SOL    HW178427   3.969  12.415   7.532
58865SOL    HW278428   4.009  12.394   7.388
58866SOL     OW78429   9.063   8.806   9.663
58866SOL    HW178430   8.972   8.780   9.679
58866SOL    HW278431   9.056   8.882   9.605
58867SOL     OW78432   9.359   5.748  12.605
58867SOL    HW178433   9.324   5.658  12.605
58867SOL    HW278434   9.389   5.761  12.515
58868SOL     OW78435   4.362   3.752   9.554
58868SOL    HW178436   4.429   3.820   9.541
58868SOL    HW278437   4.310   3.754   9.474
58869SOL     OW78438   7.691  12.740   5.222
58869SOL    HW178439   7.752  12.728   5.295
58869SOL    HW278440   7.608  12.764   5.264
58870SOL     OW78441   3.256   6.423   2.887
58870SOL    HW178442   3.305   6.455   2.962
58870SOL    HW278443   3.191   6.491   2.869
58871SOL     OW78444  11.970  14.485  12.518
58871SOL    HW178445  12.047  14.469  12.573
58871SOL    HW278446  11.902  14.514  12.579
58872SOL     OW78447   1.769  12.101   3.389
58872SOL    HW178448   1.675  12.118   3.385
58872SOL    HW278449   1.804  12.173   3.442
58873SOL     OW78450   3.501  14.813   5.013
58873SOL    HW178451   3.437  14.809   5.084
58873SOL    HW278452   3.586  14.815   5.056
58874SOL     OW78453   4.981  11.763  14.387
58874SOL    HW178454   4.927  11.840  14.364
58874SOL    HW278455   4.925  11.712  14.445
58875SOL     OW78456   9.212   1.505   1.648
58875SOL    HW178457   9.127   1.535   1.615
58875SOL    HW278458   9.193   1.423   1.693
58876SOL     OW78459   1.142   7.146   7.549
58876SOL    HW178460   1.093   7.226   7.529
58876SOL    HW278461   1.077   7.087   7.589
58877SOL     OW78462  13.839   7.502   7.351
58877SOL    HW178463  13.931   7.531   7.348
58877SOL    HW278464  13.800   7.555   7.420
58878SOL     OW78465   4.142  12.687   5.764
58878SOL    HW178466   4.079  12.709   5.696
58878SOL    HW278467   4.176  12.772   5.793
58879SOL     OW78468   4.829  14.205   2.016
58879SOL    HW178469   4.761  14.202   2.083
58879SOL    HW278470   4.903  14.157   2.053
58880SOL     OW78471   1.171   7.957   6.084
58880SOL    HW178472   1.242   7.935   6.023
58880SOL    HW278473   1.211   8.019   6.146
58881SOL     OW78474  12.138  12.652   2.460
58881SOL    HW178475  12.211  12.613   2.508
58881SOL    HW278476  12.092  12.704   2.526
58882SOL     OW78477   0.601   6.421   3.966
58882SOL    HW178478   0.673   6.388   3.913
58882SOL    HW278479   0.565   6.343   4.010
58883SOL     OW78480   2.000   7.509   6.177
58883SOL    HW178481   2.051   7.449   6.122
58883SOL    HW278482   2.051   7.516   6.257
58884SOL     OW78483   8.359   8.432  12.683
58884SOL    HW178484   8.288   8.491  12.710
58884SOL    HW278485   8.319   8.371  12.622
58885SOL     OW78486   7.616   2.805  12.136
58885SOL    HW178487   7.527   2.818  12.168
58885SOL    HW278488   7.607   2.741  12.065
58886SOL     OW78489   3.871   4.225  10.727
58886SOL    HW178490   3.804   4.157  10.738
58886SOL    HW278491   3.937   4.204  10.792
58887SOL     OW78492   4.206   0.745  14.686
58887SOL    HW178493   4.242   0.815  14.740
58887SOL    HW278494   4.248   0.665  14.719
58888SOL     OW78495   7.826   2.294   0.204
58888SOL    HW178496   7.764   2.316   0.274
58888SOL    HW278497   7.786   2.329   0.125
58889SOL     OW78498   9.175   5.426   0.105
58889SOL    HW178499   9.223   5.357   0.059
58889SOL    HW278500   9.105   5.451   0.045
58890SOL     OW78501   6.823  14.568  11.807
58890SOL    HW178502   6.729  14.554  11.813
58890SOL    HW278503   6.837  14.602  11.719
58891SOL     OW78504   7.247   9.029  12.978
58891SOL    HW178505   7.209   8.941  12.977
58891SOL    HW278506   7.316   9.026  12.911
58892SOL     OW78507  12.591  12.488   5.432
58892SOL    HW178508  12.512  12.542   5.435
58892SOL    HW278509  12.621  12.484   5.523
58893SOL     OW78510   2.489   3.814  12.784
58893SOL    HW178511   2.534   3.894  12.757
58893SOL    HW278512   2.397   3.840  12.792
58894SOL     OW78513   4.732  13.907  14.773
58894SOL    HW178514   4.802  13.842  14.779
58894SOL    HW278515   4.694  13.910  14.861
58895SOL     OW78516   3.565   3.595  14.457
58895SOL    HW178517   3.488   3.638  14.495
58895SOL    HW278518   3.533   3.508  14.431
58896SOL     OW78519   3.631   5.813  11.004
58896SOL    HW178520   3.619   5.802  11.098
58896SOL    HW278521   3.661   5.727  10.974
58897SOL     OW78522   2.505  13.506  11.565
58897SOL    HW178523   2.551  13.475  11.487
58897SOL    HW278524   2.574  13.542  11.621
58898SOL     OW78525  11.886   2.030  12.197
58898SOL    HW178526  11.843   1.969  12.258
58898SOL    HW278527  11.978   2.002  12.196
58899SOL     OW78528   1.551  14.200   0.201
58899SOL    HW178529   1.601  14.233   0.127
58899SOL    HW278530   1.612  14.146   0.250
58900SOL     OW78531   9.155   8.218  11.586
58900SOL    HW178532   9.091   8.284  11.614
58900SOL    HW278533   9.239   8.256  11.609
58901SOL     OW78534   3.305   1.293   1.839
58901SOL    HW178535   3.309   1.389   1.837
58901SOL    HW278536   3.228   1.274   1.893
58902SOL     OW78537   9.396   1.775   0.310
58902SOL    HW178538   9.435   1.751   0.226
58902SOL    HW278539   9.341   1.851   0.290
58903SOL     OW78540   2.651  10.333   4.821
58903SOL    HW178541   2.579  10.332   4.759
58903SOL    HW278542   2.721  10.285   4.777
58904SOL     OW78543   3.811  11.453   1.621
58904SOL    HW178544   3.809  11.547   1.639
58904SOL    HW278545   3.882  11.441   1.558
58905SOL     OW78546   4.564   8.021  13.704
58905SOL    HW178547   4.657   8.027  13.686
58905SOL    HW278548   4.541   7.930  13.683
58906SOL     OW78549   3.023   4.847  12.950
58906SOL    HW178550   3.019   4.919  13.013
58906SOL    HW278551   2.958   4.869  12.883
58907SOL     OW78552  10.796   8.987   8.048
58907SOL    HW178553  10.859   9.059   8.055
58907SOL    HW278554  10.775   8.966   8.139
58908SOL     OW78555   1.457  11.831   7.434
58908SOL    HW178556   1.551  11.827   7.416
58908SOL    HW278557   1.449  11.805   7.526
58909SOL     OW78558  13.079  14.381   4.177
58909SOL    HW178559  13.130  14.407   4.100
58909SOL    HW278560  13.054  14.290   4.161
58910SOL     OW78561   5.745   6.083   1.219
58910SOL    HW178562   5.717   6.162   1.264
58910SOL    HW278563   5.834   6.101   1.191
58911SOL     OW78564   5.769  13.300  10.632
58911SOL    HW178565   5.724  13.380  10.603
58911SOL    HW278566   5.725  13.229  10.586
58912SOL     OW78567   4.649  13.635   2.117
58912SOL    HW178568   4.651  13.730   2.125
58912SOL    HW278569   4.562  13.614   2.085
58913SOL     OW78570   6.099   4.782  10.333
58913SOL    HW178571   6.057   4.852  10.283
58913SOL    HW278572   6.128   4.824  10.414
58914SOL     OW78573  14.313   0.593   2.686
58914SOL    HW178574  14.221   0.580   2.710
58914SOL    HW278575  14.350   0.645   2.757
58915SOL     OW78576  14.569   3.808  11.583
58915SOL    HW178577  14.525   3.892  11.576
58915SOL    HW278578  14.509   3.754  11.635
58916SOL     OW78579   8.895   4.719  12.175
58916SOL    HW178580   8.917   4.626  12.173
58916SOL    HW278581   8.948   4.757  12.106
58917SOL     OW78582   9.103  14.504   3.507
58917SOL    HW178583   9.047  14.515   3.429
58917SOL    HW278584   9.192  14.518   3.474
58918SOL     OW78585  14.537   4.367   4.249
58918SOL    HW178586  14.532   4.292   4.308
58918SOL    HW278587  14.507   4.334   4.165
58919SOL     OW78588   1.703   8.173   3.720
58919SOL    HW178589   1.767   8.222   3.668
58919SOL    HW278590   1.618   8.204   3.688
58920SOL     OW78591  13.268   0.751  13.620
58920SOL    HW178592  13.273   0.701  13.539
58920SOL    HW278593  13.202   0.818  13.602
58921SOL     OW78594   7.518  13.243  11.551
58921SOL    HW178595   7.447  13.220  11.611
58921SOL    HW278596   7.597  13.209  11.592
58922SOL     OW78597  13.268   2.752   6.523
58922SOL    HW178598  13.292   2.845   6.525
58922SOL    HW278599  13.223   2.737   6.606
58923SOL     OW78600   6.905   2.708   4.783
58923SOL    HW178601   6.915   2.716   4.688
58923SOL    HW278602   6.811   2.717   4.798
58924SOL     OW78603   9.656  12.909   0.080
58924SOL    HW178604   9.623  12.854   0.009
58924SOL    HW278605   9.751  12.909   0.067
58925SOL     OW78606  11.306  12.114   4.806
58925SOL    HW178607  11.369  12.061   4.856
58925SOL    HW278608  11.282  12.060   4.732
58926SOL     OW78609   4.574  11.979   3.209
58926SOL    HW178610   4.656  12.007   3.250
58926SOL    HW278611   4.594  11.975   3.116
58927SOL     OW78612   8.917   6.135   3.157
58927SOL    HW178613   8.831   6.131   3.116
58927SOL    HW278614   8.909   6.080   3.235
58928SOL     OW78615   7.030   6.141  14.325
58928SOL    HW178616   6.961   6.164  14.263
58928SOL    HW278617   7.077   6.068  14.283
58929SOL     OW78618   1.177   9.227  12.661
58929SOL    HW178619   1.131   9.143  12.660
58929SOL    HW278620   1.270   9.203  12.657
58930SOL     OW78621   2.296  14.375   9.540
58930SOL    HW178622   2.242  14.451   9.560
58930SOL    HW278623   2.276  14.312   9.609
58931SOL     OW78624  13.212   8.546   9.359
58931SOL    HW178625  13.267   8.613   9.320
58931SOL    HW278626  13.201   8.574   9.450
58932SOL     OW78627   5.590  14.600  12.119
58932SOL    HW178628   5.525  14.666  12.144
58932SOL    HW278629   5.581  14.591  12.025
58933SOL     OW78630   7.791   6.404  10.516
58933SOL    HW178631   7.780   6.337  10.583
58933SOL    HW278632   7.704   6.444  10.508
58934SOL     OW78633   9.521   0.096   9.728
58934SOL    HW178634   9.527   0.175   9.781
58934SOL    HW278635   9.556   0.027   9.785
58935SOL     OW78636   3.363  13.441  10.754
58935SOL    HW178637   3.389  13.404  10.670
58935SOL    HW278638   3.343  13.365  10.809
58936SOL     OW78639  13.172  12.646   1.881
58936SOL    HW178640  13.247  12.654   1.940
58936SOL    HW278641  13.131  12.732   1.883
58937SOL     OW78642   5.683   1.770   0.934
58937SOL    HW178643   5.646   1.717   0.864
58937SOL    HW278644   5.681   1.859   0.901
58938SOL     OW78645  10.976   6.010  12.566
58938SOL    HW178646  10.968   6.021  12.471
58938SOL    HW278647  10.965   5.916  12.580
58939SOL     OW78648   2.254   5.794   1.892
58939SOL    HW178649   2.202   5.718   1.866
58939SOL    HW278650   2.191   5.865   1.899
58940SOL     OW78651   1.245   0.632   1.313
58940SOL    HW178652   1.184   0.706   1.320
58940SOL    HW278653   1.261   0.623   1.219
58941SOL     OW78654   5.068   0.570   8.535
58941SOL    HW178655   5.124   0.549   8.609
58941SOL    HW278656   4.989   0.518   8.549
58942SOL     OW78657   4.022   6.786   1.527
58942SOL    HW178658   4.117   6.774   1.518
58942SOL    HW278659   3.984   6.720   1.470
58943SOL     OW78660   3.657  14.778   3.282
58943SOL    HW178661   3.582  14.808   3.232
58943SOL    HW278662   3.731  14.784   3.221
58944SOL     OW78663   6.189   9.846   5.688
58944SOL    HW178664   6.280   9.874   5.698
58944SOL    HW278665   6.154   9.847   5.777
58945SOL     OW78666  14.449   6.146   5.184
58945SOL    HW178667  14.364   6.186   5.201
58945SOL    HW278668  14.506   6.220   5.162
58946SOL     OW78669  14.456   3.290   0.603
58946SOL    HW178670  14.501   3.313   0.521
58946SOL    HW278671  14.433   3.374   0.642
58947SOL     OW78672  14.134   0.767   2.372
58947SOL    HW178673  14.229   0.765   2.379
58947SOL    HW278674  14.114   0.853   2.334
58948SOL     OW78675  10.665   2.565   1.513
58948SOL    HW178676  10.745   2.544   1.562
58948SOL    HW278677  10.673   2.658   1.493
58949SOL     OW78678   9.706  11.699  11.852
58949SOL    HW178679   9.637  11.702  11.918
58949SOL    HW278680   9.663  11.726  11.771
58950SOL     OW78681  14.189   4.244   8.535
58950SOL    HW178682  14.272   4.208   8.503
58950SOL    HW278683  14.122   4.198   8.484
58951SOL     OW78684  13.771   6.545  12.035
58951SOL    HW178685  13.693   6.593  12.062
58951SOL    HW278686  13.757   6.457  12.068
58952SOL     OW78687   6.910   0.085  10.618
58952SOL    HW178688   6.853   0.075  10.542
58952SOL    HW278689   6.874   0.026  10.684
58953SOL     OW78690   4.261   2.733   6.388
58953SOL    HW178691   4.185   2.685   6.356
58953SOL    HW278692   4.249   2.736   6.483
58954SOL     OW78693   4.444   8.794  13.127
58954SOL    HW178694   4.529   8.792  13.171
58954SOL    HW278695   4.380   8.797  13.198
58955SOL     OW78696   1.366   1.174   2.641
58955SOL    HW178697   1.273   1.152   2.640
58955SOL    HW278698   1.390   1.176   2.733
58956SOL     OW78699   9.057   0.211   8.445
58956SOL    HW178700   8.976   0.195   8.494
58956SOL    HW278701   9.119   0.241   8.511
58957SOL     OW78702   6.348   2.491   1.607
58957SOL    HW178703   6.369   2.544   1.684
58957SOL    HW278704   6.342   2.401   1.640
58958SOL     OW78705   9.610  11.339   5.402
58958SOL    HW178706   9.532  11.290   5.379
58958SOL    HW278707   9.683  11.278   5.386
58959SOL     OW78708   9.964  12.563   5.872
58959SOL    HW178709   9.978  12.620   5.947
58959SOL    HW278710  10.034  12.586   5.811
58960SOL     OW78711   9.333   0.897   6.302
58960SOL    HW178712   9.326   0.879   6.395
58960SOL    HW278713   9.283   0.978   6.289
58961SOL     OW78714   8.530   9.776  13.291
58961SOL    HW178715   8.462   9.797  13.355
58961SOL    HW278716   8.482   9.750  13.213
58962SOL     OW78717  12.298  13.938   5.473
58962SOL    HW178718  12.260  13.854   5.446
58962SOL    HW278719  12.376  13.913   5.522
58963SOL     OW78720   3.464   7.548   8.208
58963SOL    HW178721   3.407   7.529   8.133
58963SOL    HW278722   3.512   7.626   8.183
58964SOL     OW78723  12.150   8.373   8.724
58964SOL    HW178724  12.085   8.437   8.755
58964SOL    HW278725  12.100   8.314   8.668
58965SOL     OW78726   8.896  14.241   3.348
58965SOL    HW178727   8.938  14.325   3.326
58965SOL    HW278728   8.867  14.206   3.264
58966SOL     OW78729   4.812  10.595   8.242
58966SOL    HW178730   4.824  10.526   8.308
58966SOL    HW278731   4.723  10.627   8.257
58967SOL     OW78732   9.903  12.810   6.375
58967SOL    HW178733   9.908  12.876   6.445
58967SOL    HW278734   9.824  12.760   6.395
58968SOL     OW78735  12.330   3.820   8.563
58968SOL    HW178736  12.356   3.863   8.482
58968SOL    HW278737  12.259   3.874   8.598
58969SOL     OW78738   8.100   0.364   7.596
58969SOL    HW178739   8.030   0.306   7.627
58969SOL    HW278740   8.089   0.365   7.501
58970SOL     OW78741  13.315  10.360   2.263
58970SOL    HW178742  13.310  10.384   2.171
58970SOL    HW278743  13.409  10.350   2.281
58971SOL     OW78744   2.539   5.273   8.402
58971SOL    HW178745   2.634   5.258   8.407
58971SOL    HW278746   2.504   5.226   8.478
58972SOL     OW78747   2.285   1.364   8.298
58972SOL    HW178748   2.215   1.428   8.283
58972SOL    HW278749   2.366   1.415   8.288
58973SOL     OW78750   6.759   7.527   5.775
58973SOL    HW178751   6.682   7.527   5.718
58973SOL    HW278752   6.725   7.505   5.861
58974SOL     OW78753   8.552   2.317   3.180
58974SOL    HW178754   8.635   2.353   3.211
58974SOL    HW278755   8.549   2.340   3.087
58975SOL     OW78756   1.006  12.465   5.710
58975SOL    HW178757   1.087  12.485   5.663
58975SOL    HW278758   1.028  12.389   5.764
58976SOL     OW78759   2.093   2.357  13.204
58976SOL    HW178760   2.163   2.399  13.152
58976SOL    HW278761   2.122   2.366  13.294
58977SOL     OW78762   3.407   7.707   9.114
58977SOL    HW178763   3.400   7.739   9.024
58977SOL    HW278764   3.354   7.627   9.116
58978SOL     OW78765   8.918   9.424   6.041
58978SOL    HW178766   9.013   9.427   6.032
58978SOL    HW278767   8.892   9.513   6.065
58979SOL     OW78768   6.478   1.253   6.802
58979SOL    HW178769   6.440   1.334   6.835
58979SOL    HW278770   6.426   1.184   6.843
58980SOL     OW78771   5.733   4.465  10.837
58980SOL    HW178772   5.754   4.538  10.896
58980SOL    HW278773   5.648   4.433  10.868
58981SOL     OW78774   8.266   7.309  14.542
58981SOL    HW178775   8.271   7.310  14.637
58981SOL    HW278776   8.272   7.401  14.516
58982SOL     OW78777  14.864   9.983   5.933
58982SOL    HW178778   0.015   9.940   5.852
58982SOL    HW278779  14.825  10.065   5.905
58983SOL     OW78780   8.152   6.510   3.884
58983SOL    HW178781   8.150   6.500   3.789
58983SOL    HW278782   8.090   6.581   3.902
58984SOL     OW78783   3.842  14.265  13.198
58984SOL    HW178784   3.908  14.239  13.133
58984SOL    HW278785   3.838  14.361  13.190
58985SOL     OW78786   8.645  10.879  14.172
58985SOL    HW178787   8.583  10.943  14.135
58985SOL    HW278788   8.714  10.933  14.211
58986SOL     OW78789   6.048   3.446  14.191
58986SOL    HW178790   6.139   3.425  14.213
58986SOL    HW278791   6.032   3.530  14.235
58987SOL     OW78792   7.930   2.066   0.059
58987SOL    HW178793   7.981   2.017   0.123
58987SOL    HW278794   7.904   2.146   0.105
58988SOL     OW78795  12.796  12.471   7.427
58988SOL    HW178796  12.747  12.393   7.455
58988SOL    HW278797  12.822  12.452   7.337
58989SOL     OW78798  12.988  11.825   5.693
58989SOL    HW178799  12.905  11.841   5.648
58989SOL    HW278800  13.044  11.786   5.626
58990SOL     OW78801   3.707   0.446   3.577
58990SOL    HW178802   3.775   0.430   3.511
58990SOL    HW278803   3.625   0.441   3.528
58991SOL     OW78804  13.086   6.874   9.466
58991SOL    HW178805  13.176   6.875   9.433
58991SOL    HW278806  13.044   6.948   9.422
58992SOL     OW78807   2.708   1.544  13.310
58992SOL    HW178808   2.632   1.569  13.363
58992SOL    HW278809   2.691   1.452  13.288
58993SOL     OW78810   9.799   2.597  10.871
58993SOL    HW178811   9.840   2.538  10.808
58993SOL    HW278812   9.854   2.592  10.949
58994SOL     OW78813   8.624   4.266  12.205
58994SOL    HW178814   8.691   4.321  12.165
58994SOL    HW278815   8.588   4.215  12.132
58995SOL     OW78816  10.334   0.343  11.253
58995SOL    HW178817  10.370   0.427  11.223
58995SOL    HW278818  10.395   0.278  11.219
58996SOL     OW78819   9.017   6.065   0.748
58996SOL    HW178820   9.007   6.059   0.843
58996SOL    HW278821   9.040   6.156   0.732
58997SOL     OW78822   6.710   6.646   3.576
58997SOL    HW178823   6.625   6.605   3.595
58997SOL    HW278824   6.716   6.717   3.640
58998SOL     OW78825  12.026  12.550   3.645
58998SOL    HW178826  12.053  12.634   3.608
58998SOL    HW278827  11.998  12.571   3.734
58999SOL     OW78828  10.075   0.703  10.539
58999SOL    HW178829  10.100   0.762  10.611
58999SOL    HW278830  10.150   0.707  10.479
59000SOL     OW78831   0.007  13.529  14.414
59000SOL    HW178832   0.086  13.574  14.384
59000SOL    HW278833  14.813  13.594  14.403
59001SOL     OW78834   2.759   9.274  10.802
59001SOL    HW178835   2.802   9.266  10.718
59001SOL    HW278836   2.829   9.295  10.864
59002SOL     OW78837   6.457   2.024   7.044
59002SOL    HW178838   6.406   2.065   7.114
59002SOL    HW278839   6.548   2.029   7.074
59003SOL     OW78840   4.074   2.990  10.050
59003SOL    HW178841   4.006   2.990  10.117
59003SOL    HW278842   4.034   2.948   9.974
59004SOL     OW78843   0.408   3.968   4.383
59004SOL    HW178844   0.352   3.917   4.442
59004SOL    HW278845   0.349   3.993   4.311
59005SOL     OW78846   2.699   5.044   6.953
59005SOL    HW178847   2.608   5.033   6.926
59005SOL    HW278848   2.714   4.973   7.015
59006SOL     OW78849   4.808  10.238  11.896
59006SOL    HW178850   4.768  10.321  11.923
59006SOL    HW278851   4.768  10.218  11.811
59007SOL     OW78852   5.975   5.072   1.151
59007SOL    HW178853   6.000   5.000   1.093
59007SOL    HW278854   5.891   5.103   1.116
59008SOL     OW78855   5.234   0.545   4.841
59008SOL    HW178856   5.237   0.566   4.934
59008SOL    HW278857   5.215   0.451   4.838
59009SOL     OW78858   8.444   1.167  14.145
59009SOL    HW178859   8.522   1.157  14.090
59009SOL    HW278860   8.392   1.233  14.101
59010SOL     OW78861   4.247   7.622  14.271
59010SOL    HW178862   4.302   7.670  14.332
59010SOL    HW278863   4.157   7.647  14.295
59011SOL     OW78864   9.805   8.494   6.365
59011SOL    HW178865   9.752   8.571   6.341
59011SOL    HW278866   9.854   8.474   6.285
59012SOL     OW78867   2.598   6.734   6.265
59012SOL    HW178868   2.677   6.773   6.227
59012SOL    HW278869   2.598   6.644   6.233
59013SOL     OW78870   3.233  11.949  10.069
59013SOL    HW178871   3.321  11.979  10.045
59013SOL    HW278872   3.243  11.913  10.157
59014SOL     OW78873   6.021  13.598   0.380
59014SOL    HW178874   6.021  13.608   0.285
59014SOL    HW278875   5.958  13.664   0.411
59015SOL     OW78876   5.837   3.408   6.723
59015SOL    HW178877   5.838   3.368   6.810
59015SOL    HW278878   5.744   3.411   6.699
59016SOL     OW78879  13.310  12.532   4.857
59016SOL    HW178880  13.261  12.605   4.818
59016SOL    HW278881  13.299  12.545   4.951
59017SOL     OW78882   9.703  13.680  11.401
59017SOL    HW178883   9.763  13.623  11.451
59017SOL    HW278884   9.643  13.619  11.358
59018SOL     OW78885   1.199   1.476  12.656
59018SOL    HW178886   1.111   1.501  12.626
59018SOL    HW278887   1.187   1.451  12.747
59019SOL     OW78888   2.139   4.763   6.744
59019SOL    HW178889   2.187   4.681   6.732
59019SOL    HW278890   2.167   4.794   6.831
59020SOL     OW78891   9.038  11.791  12.978
59020SOL    HW178892   9.033  11.850  12.902
59020SOL    HW278893   8.969  11.823  13.037
59021SOL     OW78894   5.749  13.605  12.811
59021SOL    HW178895   5.703  13.520  12.809
59021SOL    HW278896   5.682  13.667  12.840
59022SOL     OW78897   3.672   4.902   9.302
59022SOL    HW178898   3.767   4.901   9.289
59022SOL    HW278899   3.658   4.843   9.377
59023SOL     OW78900   3.833  10.828   2.155
59023SOL    HW178901   3.912  10.781   2.128
59023SOL    HW278902   3.787  10.766   2.213
59024SOL     OW78903  11.907   2.660   5.466
59024SOL    HW178904  11.904   2.649   5.371
59024SOL    HW278905  11.898   2.572   5.501
59025SOL     OW78906  14.589  14.259   8.171
59025SOL    HW178907  14.659  14.198   8.147
59025SOL    HW278908  14.508  14.214   8.147
59026SOL     OW78909  10.061   8.801  10.206
59026SOL    HW178910  10.067   8.724  10.263
59026SOL    HW278911  10.026   8.767  10.124
59027SOL     OW78912  12.245   6.011   7.592
59027SOL    HW178913  12.299   6.020   7.670
59027SOL    HW278914  12.239   6.100   7.557
59028SOL     OW78915  13.812  12.338   5.018
59028SOL    HW178916  13.776  12.328   4.930
59028SOL    HW278917  13.868  12.416   5.013
59029SOL     OW78918   3.250   7.867   8.205
59029SOL    HW178919   3.338   7.828   8.206
59029SOL    HW278920   3.266   7.962   8.208
59030SOL     OW78921  11.371   4.731   9.335
59030SOL    HW178922  11.304   4.763   9.275
59030SOL    HW278923  11.328   4.730   9.421
59031SOL     OW78924  10.325   6.683   6.462
59031SOL    HW178925  10.377   6.709   6.538
59031SOL    HW278926  10.336   6.754   6.400
59032SOL     OW78927  10.212  11.509   1.856
59032SOL    HW178928  10.204  11.588   1.801
59032SOL    HW278929  10.217  11.437   1.793
59033SOL     OW78930   1.002   4.575   4.655
59033SOL    HW178931   0.948   4.496   4.664
59033SOL    HW278932   0.988   4.604   4.565
59034SOL     OW78933   6.454   6.713   4.080
59034SOL    HW178934   6.451   6.634   4.026
59034SOL    HW278935   6.363   6.742   4.085
59035SOL     OW78936   7.427   9.148   4.808
59035SOL    HW178937   7.459   9.068   4.850
59035SOL    HW278938   7.339   9.126   4.777
59036SOL     OW78939  14.101   8.163  11.874
59036SOL    HW178940  14.014   8.125  11.865
59036SOL    HW278941  14.152   8.124  11.803
59037SOL     OW78942  12.263   1.500   2.943
59037SOL    HW178943  12.206   1.474   2.872
59037SOL    HW278944  12.213   1.481   3.023
59038SOL     OW78945  14.119   8.078   0.392
59038SOL    HW178946  14.077   8.159   0.424
59038SOL    HW278947  14.065   8.050   0.319
59039SOL     OW78948   6.768   7.205   8.221
59039SOL    HW178949   6.765   7.110   8.215
59039SOL    HW278950   6.842   7.230   8.165
59040SOL     OW78951  10.210   2.205  13.904
59040SOL    HW178952  10.196   2.284  13.852
59040SOL    HW278953  10.259   2.234  13.981
59041SOL     OW78954   4.652  11.263   9.394
59041SOL    HW178955   4.572  11.214   9.372
59041SOL    HW278956   4.637  11.295   9.483
59042SOL     OW78957   9.399  13.730   9.017
59042SOL    HW178958   9.388  13.822   8.993
59042SOL    HW278959   9.321  13.687   8.983
59043SOL     OW78960   6.607  12.047   1.518
59043SOL    HW178961   6.636  12.053   1.609
59043SOL    HW278962   6.680  12.005   1.472
59044SOL     OW78963  10.966   8.203  14.315
59044SOL    HW178964  10.910   8.281  14.314
59044SOL    HW278965  11.047   8.231  14.274
59045SOL     OW78966   1.897  13.787  10.675
59045SOL    HW178967   1.838  13.863  10.669
59045SOL    HW278968   1.850  13.717  10.631
59046SOL     OW78969  14.391  12.278   7.566
59046SOL    HW178970  14.390  12.184   7.550
59046SOL    HW278971  14.484  12.302   7.566
59047SOL     OW78972   3.761   0.347  12.041
59047SOL    HW178973   3.822   0.311  11.976
59047SOL    HW278974   3.681   0.296  12.028
59048SOL     OW78975  12.951   3.513   6.964
59048SOL    HW178976  12.979   3.425   6.992
59048SOL    HW278977  13.017   3.571   7.002
59049SOL     OW78978  10.122  11.622   7.619
59049SOL    HW178979  10.132  11.710   7.583
59049SOL    HW278980  10.156  11.629   7.709
59050SOL     OW78981   8.834   5.744  13.288
59050SOL    HW178982   8.790   5.667  13.323
59050SOL    HW278983   8.903   5.709  13.231
59051SOL     OW78984   2.036  10.295   9.897
59051SOL    HW178985   2.114  10.249   9.929
59051SOL    HW278986   2.009  10.350   9.970
59052SOL     OW78987   4.439  13.380   0.814
59052SOL    HW178988   4.533  13.362   0.817
59052SOL    HW278989   4.409  13.362   0.903
59053SOL     OW78990   4.865   4.324   3.519
59053SOL    HW178991   4.902   4.261   3.581
59053SOL    HW278992   4.806   4.378   3.572
59054SOL     OW78993   7.005   2.648   5.474
59054SOL    HW178994   6.926   2.638   5.527
59054SOL    HW278995   7.051   2.564   5.483
59055SOL     OW78996   3.996   3.779   0.026
59055SOL    HW178997   4.064   3.766  14.835
59055SOL    HW278998   3.971   3.871   0.017
59056SOL     OW78999   3.098   7.874  14.472
59056SOL    HW179000   3.194   7.876  14.473
59056SOL    HW279001   3.073   7.888  14.563
59057SOL     OW79002   2.528   6.258  14.428
59057SOL    HW179003   2.505   6.268  14.520
59057SOL    HW279004   2.620   6.285  14.424
59058SOL     OW79005  10.315  13.969   9.124
59058SOL    HW179006  10.243  13.920   9.164
59058SOL    HW279007  10.383  13.904   9.109
59059SOL     OW79008   2.179   5.264   0.077
59059SOL    HW179009   2.145   5.205   0.144
59059SOL    HW279010   2.129   5.345   0.088
59060SOL     OW79011  10.329   7.170   6.135
59060SOL    HW179012  10.255   7.185   6.075
59060SOL    HW279013  10.301   7.210   6.217
59061SOL     OW79014   1.436   7.594   1.148
59061SOL    HW179015   1.389   7.658   1.095
59061SOL    HW279016   1.502   7.558   1.089
59062SOL     OW79017   6.779   6.152  11.933
59062SOL    HW179018   6.687   6.127  11.939
59062SOL    HW279019   6.820   6.109  12.009
59063SOL     OW79020   1.806  12.510   5.132
59063SOL    HW179021   1.770  12.563   5.061
59063SOL    HW279022   1.785  12.420   5.107
59064SOL     OW79023   0.900  12.056   7.659
59064SOL    HW179024   0.876  12.140   7.620
59064SOL    HW279025   0.982  12.075   7.705
59065SOL     OW79026  10.505   1.783   1.813
59065SOL    HW179027  10.601   1.778   1.818
59065SOL    HW279028  10.488   1.867   1.769
59066SOL     OW79029   1.028  14.361   2.499
59066SOL    HW179030   1.036  14.446   2.456
59066SOL    HW279031   1.113  14.319   2.488
59067SOL     OW79032   2.740   0.430  10.942
59067SOL    HW179033   2.809   0.388  10.992
59067SOL    HW279034   2.771   0.520  10.929
59068SOL     OW79035   7.971   9.882  10.521
59068SOL    HW179036   7.945   9.862  10.431
59068SOL    HW279037   7.893   9.921  10.561
59069SOL     OW79038   4.662  11.294  10.572
59069SOL    HW179039   4.645  11.343  10.492
59069SOL    HW279040   4.689  11.207  10.542
59070SOL     OW79041   2.256  11.075  14.538
59070SOL    HW179042   2.292  11.065  14.627
59070SOL    HW279043   2.330  11.054  14.481
59071SOL     OW79044  11.396   8.430  10.819
59071SOL    HW179045  11.458   8.385  10.761
59071SOL    HW279046  11.334   8.361  10.845
59072SOL     OW79047  14.276  12.055   2.559
59072SOL    HW179048  14.209  12.091   2.501
59072SOL    HW279049  14.226  12.016   2.631
59073SOL     OW79050  13.189  14.504   7.660
59073SOL    HW179051  13.102  14.542   7.674
59073SOL    HW279052  13.172  14.426   7.607
59074SOL     OW79053   1.975   0.431  11.949
59074SOL    HW179054   1.982   0.348  11.997
59074SOL    HW279055   1.884   0.458  11.961
59075SOL     OW79056   1.661  10.084   8.328
59075SOL    HW179057   1.665  10.155   8.392
59075SOL    HW279058   1.747  10.042   8.334
59076SOL     OW79059  10.393   1.010   4.717
59076SOL    HW179060  10.322   1.065   4.748
59076SOL    HW279061  10.423   1.052   4.637
59077SOL     OW79062   7.118   6.464   6.591
59077SOL    HW179063   7.162   6.535   6.544
59077SOL    HW279064   7.172   6.449   6.668
59078SOL     OW79065  12.224   3.301  10.478
59078SOL    HW179066  12.148   3.244  10.487
59078SOL    HW279067  12.300   3.242  10.479
59079SOL     OW79068   6.971   7.835  10.758
59079SOL    HW179069   6.954   7.856  10.850
59079SOL    HW279070   6.908   7.766  10.738
59080SOL     OW79071   0.999   3.875  12.496
59080SOL    HW179072   0.930   3.941  12.508
59080SOL    HW279073   1.081   3.924  12.506
59081SOL     OW79074   2.987  14.065   4.143
59081SOL    HW179075   2.911  14.117   4.170
59081SOL    HW279076   2.993  13.996   4.209
59082SOL     OW79077   8.507   6.370   3.023
59082SOL    HW179078   8.552   6.437   2.971
59082SOL    HW279079   8.571   6.300   3.033
59083SOL     OW79080   9.609   0.366  14.806
59083SOL    HW179081   9.611   0.461  14.820
59083SOL    HW279082   9.699   0.338  14.819
59084SOL     OW79083   0.736   5.735   5.946
59084SOL    HW179084   0.818   5.691   5.968
59084SOL    HW279085   0.750   5.826   5.971
59085SOL     OW79086  14.375   7.944   3.222
59085SOL    HW179087  14.299   7.999   3.204
59085SOL    HW279088  14.366   7.919   3.314
59086SOL     OW79089  12.924   5.789  11.344
59086SOL    HW179090  12.845   5.747  11.378
59086SOL    HW279091  12.918   5.777  11.249
59087SOL     OW79092   2.231   8.404   4.269
59087SOL    HW179093   2.137   8.420   4.266
59087SOL    HW279094   2.245   8.356   4.350
59088SOL     OW79095   6.221   6.723   0.117
59088SOL    HW179096   6.138   6.677   0.125
59088SOL    HW279097   6.202   6.796   0.057
59089SOL     OW79098   3.720   5.260   3.065
59089SOL    HW179099   3.669   5.179   3.068
59089SOL    HW279100   3.775   5.257   3.143
59090SOL     OW79101   9.861  11.843   6.735
59090SOL    HW179102   9.891  11.753   6.751
59090SOL    HW279103   9.816  11.867   6.816
59091SOL     OW79104  11.689   0.458   6.662
59091SOL    HW179105  11.726   0.377   6.627
59091SOL    HW279106  11.683   0.443   6.757
59092SOL     OW79107   5.235   0.279   9.483
59092SOL    HW179108   5.319   0.251   9.446
59092SOL    HW279109   5.256   0.305   9.573
59093SOL     OW79110   5.187   1.302   4.119
59093SOL    HW179111   5.264   1.285   4.065
59093SOL    HW279112   5.223   1.319   4.206
59094SOL     OW79113  13.249   1.230  10.764
59094SOL    HW179114  13.325   1.201  10.713
59094SOL    HW279115  13.199   1.150  10.780
59095SOL     OW79116   6.702   0.909  14.107
59095SOL    HW179117   6.702   0.999  14.140
59095SOL    HW279118   6.649   0.912  14.028
59096SOL     OW79119   3.349   7.607   6.719
59096SOL    HW179120   3.398   7.654   6.787
59096SOL    HW279121   3.395   7.524   6.710
59097SOL     OW79122  10.392   5.066   6.770
59097SOL    HW179123  10.374   5.146   6.819
59097SOL    HW279124  10.480   5.040   6.797
59098SOL     OW79125   9.362  10.747   9.980
59098SOL    HW179126   9.390  10.830   9.941
59098SOL    HW279127   9.268  10.743   9.962
59099SOL     OW79128   7.897   7.893   7.546
59099SOL    HW179129   7.887   7.855   7.633
59099SOL    HW279130   7.828   7.852   7.494
59100SOL     OW79131  12.514  11.519   9.951
59100SOL    HW179132  12.514  11.522   9.855
59100SOL    HW279133  12.606  11.526   9.975
59101SOL     OW79134  11.017  10.404  14.605
59101SOL    HW179135  11.088  10.412  14.669
59101SOL    HW279136  11.061  10.402  14.520
59102SOL     OW79137   8.620   9.909  11.771
59102SOL    HW179138   8.671   9.952  11.840
59102SOL    HW279139   8.533   9.949  11.778
59103SOL     OW79140   7.837   7.793   8.950
59103SOL    HW179141   7.925   7.822   8.924
59103SOL    HW279142   7.818   7.843   9.029
59104SOL     OW79143   1.927   3.409  11.818
59104SOL    HW179144   1.959   3.484  11.767
59104SOL    HW279145   2.004   3.353  11.829
59105SOL     OW79146   2.277   4.777   3.969
59105SOL    HW179147   2.262   4.827   3.888
59105SOL    HW279148   2.333   4.704   3.942
59106SOL     OW79149   7.922   9.464  10.449
59106SOL    HW179150   8.015   9.443  10.456
59106SOL    HW279151   7.880   9.415  10.519
59107SOL     OW79152   3.752   0.327  12.334
59107SOL    HW179153   3.705   0.362  12.258
59107SOL    HW279154   3.684   0.311  12.400
59108SOL     OW79155  12.778   8.427  10.240
59108SOL    HW179156  12.747   8.517  10.227
59108SOL    HW279157  12.825   8.406  10.159
59109SOL     OW79158  14.755   7.937   3.551
59109SOL    HW179159  14.749   7.852   3.507
59109SOL    HW279160  14.769   8.000   3.480
59110SOL     OW79161   6.718   1.442  14.540
59110SOL    HW179162   6.787   1.380  14.516
59110SOL    HW279163   6.765   1.514  14.582
59111SOL     OW79164   8.396  14.541   3.266
59111SOL    HW179165   8.481  14.584   3.280
59111SOL    HW279166   8.419  14.456   3.229
59112SOL     OW79167   1.711   1.251   0.597
59112SOL    HW179168   1.618   1.245   0.576
59112SOL    HW279169   1.754   1.262   0.512
59113SOL     OW79170   9.820  10.942   6.832
59113SOL    HW179171   9.900  10.947   6.884
59113SOL    HW279172   9.779  11.028   6.842
59114SOL     OW79173   2.182  12.280  10.902
59114SOL    HW179174   2.232  12.231  10.837
59114SOL    HW279175   2.171  12.367  10.864
59115SOL     OW79176   8.180  14.556  11.974
59115SOL    HW179177   8.169  14.650  11.965
59115SOL    HW279178   8.214  14.527  11.890
59116SOL     OW79179   7.026   8.906   3.535
59116SOL    HW179180   7.100   8.862   3.578
59116SOL    HW279181   6.953   8.894   3.597
59117SOL     OW79182   6.265   0.174  10.157
59117SOL    HW179183   6.278   0.097  10.213
59117SOL    HW279184   6.184   0.213  10.189
59118SOL     OW79185  13.700   4.957   3.540
59118SOL    HW179186  13.793   4.948   3.562
59118SOL    HW279187  13.696   4.938   3.447
59119SOL     OW79188   5.256   5.785   5.761
59119SOL    HW179189   5.265   5.691   5.749
59119SOL    HW279190   5.274   5.823   5.675
59120SOL     OW79191  10.183   5.513  13.035
59120SOL    HW179192  10.215   5.476  12.953
59120SOL    HW279193  10.106   5.461  13.057
59121SOL     OW79194  11.032   9.297   5.346
59121SOL    HW179195  10.958   9.242   5.372
59121SOL    HW279196  11.029   9.299   5.251
59122SOL     OW79197  14.811   6.995   5.645
59122SOL    HW179198   0.031   6.987   5.639
59122SOL    HW279199  14.783   7.012   5.555
59123SOL     OW79200  12.598   1.581   7.926
59123SOL    HW179201  12.557   1.528   7.858
59123SOL    HW279202  12.536   1.578   8.000
59124SOL     OW79203   7.405  12.177   6.096
59124SOL    HW179204   7.422  12.101   6.153
59124SOL    HW279205   7.311  12.172   6.077
59125SOL     OW79206   5.101   3.172   8.836
59125SOL    HW179207   5.054   3.176   8.753
59125SOL    HW279208   5.180   3.123   8.816
59126SOL     OW79209   3.242   6.158  10.234
59126SOL    HW179210   3.221   6.106  10.311
59126SOL    HW279211   3.328   6.197  10.253
59127SOL     OW79212   8.983   4.811  13.116
59127SOL    HW179213   8.952   4.757  13.189
59127SOL    HW279214   9.035   4.751  13.062
59128SOL     OW79215   9.819   8.967   2.436
59128SOL    HW179216   9.787   8.929   2.518
59128SOL    HW279217   9.871   8.898   2.395
59129SOL     OW79218  10.761   6.211   2.958
59129SOL    HW179219  10.670   6.197   2.984
59129SOL    HW279220  10.799   6.123   2.951
59130SOL     OW79221  11.496   4.098   7.188
59130SOL    HW179222  11.500   4.007   7.160
59130SOL    HW279223  11.436   4.099   7.262
59131SOL     OW79224   0.630   1.210   8.751
59131SOL    HW179225   0.647   1.146   8.681
59131SOL    HW279226   0.604   1.289   8.704
59132SOL     OW79227  12.715  14.854   4.914
59132SOL    HW179228  12.756  14.798   4.980
59132SOL    HW279229  12.778  14.858   4.843
59133SOL     OW79230  14.056  13.464   1.449
59133SOL    HW179231  14.078  13.500   1.363
59133SOL    HW279232  14.138  13.464   1.497
59134SOL     OW79233   7.112   5.752   6.764
59134SOL    HW179234   7.081   5.764   6.674
59134SOL    HW279235   7.127   5.842   6.796
59135SOL     OW79236   3.112   4.389  14.545
59135SOL    HW179237   3.130   4.471  14.498
59135SOL    HW279238   3.175   4.327  14.510
59136SOL     OW79239   1.879  14.425   7.804
59136SOL    HW179240   1.881  14.489   7.733
59136SOL    HW279241   1.971  14.411   7.826
59137SOL     OW79242   4.632  10.816  14.151
59137SOL    HW179243   4.622  10.873  14.227
59137SOL    HW279244   4.643  10.728  14.188
59138SOL     OW79245   9.657   7.406  14.848
59138SOL    HW179246   9.692   7.472   0.032
59138SOL    HW279247   9.641   7.329   0.028
59139SOL     OW79248  13.392  13.195   4.180
59139SOL    HW179249  13.393  13.125   4.245
59139SOL    HW279250  13.363  13.272   4.229
59140SOL     OW79251  10.298   8.049  12.268
59140SOL    HW179252  10.320   7.990  12.196
59140SOL    HW279253  10.261   8.126  12.225
59141SOL     OW79254  12.303   8.436   4.919
59141SOL    HW179255  12.388   8.432   4.876
59141SOL    HW279256  12.278   8.345   4.932
59142SOL     OW79257   8.271   2.089  12.350
59142SOL    HW179258   8.347   2.147  12.345
59142SOL    HW279259   8.216   2.116  12.276
59143SOL     OW79260   7.040   7.150  13.252
59143SOL    HW179261   7.001   7.217  13.307
59143SOL    HW279262   7.127   7.135  13.291
59144SOL     OW79263   4.157  13.405   8.895
59144SOL    HW179264   4.091  13.357   8.945
59144SOL    HW279265   4.226  13.424   8.958
59145SOL     OW79266   1.707   4.818   7.355
59145SOL    HW179267   1.691   4.912   7.346
59145SOL    HW279268   1.678   4.797   7.443
59146SOL     OW79269   2.443  11.077  12.415
59146SOL    HW179270   2.499  11.055  12.490
59146SOL    HW279271   2.503  11.091  12.343
59147SOL     OW79272   4.485   3.524   9.475
59147SOL    HW179273   4.529   3.581   9.412
59147SOL    HW279274   4.422   3.580   9.519
59148SOL     OW79275  14.191   9.766   3.267
59148SOL    HW179276  14.173   9.672   3.270
59148SOL    HW279277  14.270   9.774   3.214
59149SOL     OW79278   3.577   3.446   4.911
59149SOL    HW179279   3.540   3.530   4.939
59149SOL    HW279280   3.549   3.384   4.979
59150SOL     OW79281   3.556  11.243   3.459
59150SOL    HW179282   3.503  11.323   3.468
59150SOL    HW279283   3.590  11.228   3.547
59151SOL     OW79284   5.848  13.539   3.483
59151SOL    HW179285   5.796  13.617   3.459
59151SOL    HW279286   5.891  13.514   3.402
59152SOL     OW79287   8.230  13.906  10.322
59152SOL    HW179288   8.225  13.877  10.231
59152SOL    HW279289   8.312  13.869  10.354
59153SOL     OW79290   9.625   3.387  11.640
59153SOL    HW179291   9.638   3.431  11.556
59153SOL    HW279292   9.713   3.370  11.673
59154SOL     OW79293   8.463   4.377  14.724
59154SOL    HW179294   8.549   4.412  14.746
59154SOL    HW279295   8.470   4.352  14.632
59155SOL     OW79296   9.886   3.162   2.245
59155SOL    HW179297   9.861   3.072   2.269
59155SOL    HW279298   9.954   3.186   2.307
59156SOL     OW79299  13.703  14.783   4.532
59156SOL    HW179300  13.746  14.755   4.613
59156SOL    HW279301  13.773  14.819   4.478
59157SOL     OW79302   2.535  13.507   5.597
59157SOL    HW179303   2.462  13.569   5.597
59157SOL    HW279304   2.609  13.557   5.561
59158SOL     OW79305  10.316   7.445   0.567
59158SOL    HW179306  10.406   7.418   0.585
59158SOL    HW279307  10.315   7.465   0.473
59159SOL     OW79308   6.356   1.120   0.386
59159SOL    HW179309   6.322   1.033   0.407
59159SOL    HW279310   6.297   1.153   0.318
59160SOL     OW79311   3.111   9.771  11.972
59160SOL    HW179312   3.133   9.732  11.888
59160SOL    HW279313   3.037   9.720  12.004
59161SOL     OW79314  10.301   5.000  13.708
59161SOL    HW179315  10.335   4.911  13.711
59161SOL    HW279316  10.206   4.990  13.716
59162SOL     OW79317   0.540  13.686   7.487
59162SOL    HW179318   0.563  13.704   7.578
59162SOL    HW279319   0.623  13.688   7.440
59163SOL     OW79320  13.701  12.500   8.980
59163SOL    HW179321  13.683  12.476   9.071
59163SOL    HW279322  13.778  12.556   8.984
59164SOL     OW79323  12.080   7.192  14.689
59164SOL    HW179324  11.987   7.213  14.692
59164SOL    HW279325  12.106   7.210  14.599
59165SOL     OW79326   7.884   1.232   7.545
59165SOL    HW179327   7.910   1.271   7.629
59165SOL    HW279328   7.831   1.300   7.503
59166SOL     OW79329  14.498  11.881   4.233
59166SOL    HW179330  14.514  11.975   4.234
59166SOL    HW279331  14.585  11.841   4.233
59167SOL     OW79332   2.297   7.715   5.547
59167SOL    HW179333   2.359   7.749   5.482
59167SOL    HW279334   2.211   7.734   5.511
59168SOL     OW79335   4.135   2.028   8.348
59168SOL    HW179336   4.193   2.019   8.423
59168SOL    HW279337   4.103   1.940   8.331
59169SOL     OW79338   8.254   5.986   3.923
59169SOL    HW179339   8.332   5.959   3.971
59169SOL    HW279340   8.246   5.924   3.851
59170SOL     OW79341   7.568   5.878   6.507
59170SOL    HW179342   7.478   5.852   6.527
59170SOL    HW279343   7.592   5.826   6.430
59171SOL     OW79344   9.911   5.253  12.841
59171SOL    HW179345   9.980   5.249  12.776
59171SOL    HW279346   9.839   5.203  12.803
59172SOL     OW79347   4.446   2.901   2.726
59172SOL    HW179348   4.385   2.932   2.658
59172SOL    HW279349   4.396   2.835   2.774
59173SOL     OW79350  14.429   9.551  14.558
59173SOL    HW179351  14.355   9.598  14.597
59173SOL    HW279352  14.389   9.480  14.509
59174SOL     OW79353  13.484  14.712   7.001
59174SOL    HW179354  13.474  14.617   6.997
59174SOL    HW279355  13.396  14.744   7.019
59175SOL     OW79356   0.520   6.305   9.919
59175SOL    HW179357   0.455   6.367   9.950
59175SOL    HW279358   0.469   6.228   9.892
59176SOL     OW79359   7.035   7.903   2.692
59176SOL    HW179360   7.076   7.979   2.733
59176SOL    HW279361   6.944   7.905   2.723
59177SOL     OW79362   8.603   5.207  10.038
59177SOL    HW179363   8.646   5.139   9.986
59177SOL    HW279364   8.567   5.267   9.973
59178SOL     OW79365  10.319   9.517  13.727
59178SOL    HW179366  10.374   9.566  13.666
59178SOL    HW279367  10.244   9.574  13.743
59179SOL     OW79368  14.149  10.602   8.083
59179SOL    HW179369  14.172  10.677   8.028
59179SOL    HW279370  14.159  10.634   8.172
59180SOL     OW79371  14.010  12.627   6.296
59180SOL    HW179372  13.997  12.545   6.248
59180SOL    HW279373  14.099  12.621   6.331
59181SOL     OW79374   9.252  12.600   2.899
59181SOL    HW179375   9.222  12.691   2.907
59181SOL    HW279376   9.197  12.551   2.959
59182SOL     OW79377   0.855   0.957   3.025
59182SOL    HW179378   0.885   0.963   3.115
59182SOL    HW279379   0.787   0.889   3.026
59183SOL     OW79380   9.388   1.603   5.607
59183SOL    HW179381   9.313   1.655   5.636
59183SOL    HW279382   9.386   1.525   5.662
59184SOL     OW79383   2.938   6.575  12.544
59184SOL    HW179384   3.032   6.593  12.535
59184SOL    HW279385   2.906   6.643  12.603
59185SOL     OW79386   5.234   1.352   6.586
59185SOL    HW179387   5.320   1.393   6.576
59185SOL    HW279388   5.187   1.375   6.506
59186SOL     OW79389  13.238   7.321   2.050
59186SOL    HW179390  13.282   7.406   2.056
59186SOL    HW279391  13.232   7.291   2.140
59187SOL     OW79392  14.869   9.842   7.513
59187SOL    HW179393  14.860   9.807   7.602
59187SOL    HW279394   0.018   9.767   7.460
59188SOL     OW79395   5.326   7.062   5.984
59188SOL    HW179396   5.301   7.119   5.911
59188SOL    HW279397   5.383   7.117   6.038
59189SOL     OW79398  10.768   3.471   0.139
59189SOL    HW179399  10.727   3.395   0.181
59189SOL    HW279400  10.861   3.449   0.137
59190SOL     OW79401   4.312   9.522   5.991
59190SOL    HW179402   4.219   9.542   5.979
59190SOL    HW279403   4.356   9.568   5.919
59191SOL     OW79404  12.059   5.867  13.019
59191SOL    HW179405  11.989   5.873  13.084
59191SOL    HW279406  12.095   5.780  13.030
59192SOL     OW79407   4.331   4.895   1.481
59192SOL    HW179408   4.243   4.863   1.457
59192SOL    HW279409   4.383   4.815   1.491
59193SOL     OW79410  14.562  14.262  10.191
59193SOL    HW179411  14.506  14.339  10.194
59193SOL    HW279412  14.596  14.260  10.102
59194SOL     OW79413   9.451  13.979  13.618
59194SOL    HW179414   9.413  14.057  13.659
59194SOL    HW279415   9.536  14.007  13.586
59195SOL     OW79416  10.732   8.249   2.945
59195SOL    HW179417  10.737   8.344   2.959
59195SOL    HW279418  10.720   8.213   3.033
59196SOL     OW79419   1.151  11.777   7.913
59196SOL    HW179420   1.081  11.719   7.943
59196SOL    HW279421   1.231  11.724   7.920
59197SOL     OW79422  14.693  11.525   2.241
59197SOL    HW179423  14.604  11.527   2.277
59197SOL    HW279424  14.738  11.458   2.291
59198SOL     OW79425   7.899   8.816   1.777
59198SOL    HW179426   7.909   8.759   1.853
59198SOL    HW279427   7.989   8.834   1.748
59199SOL     OW79428   8.000   3.903   3.560
59199SOL    HW179429   8.033   3.823   3.602
59199SOL    HW279430   8.047   3.973   3.605
59200SOL     OW79431  12.755   1.374   1.696
59200SOL    HW179432  12.716   1.295   1.733
59200SOL    HW279433  12.838   1.385   1.744
59201SOL     OW79434  14.638  13.376  12.755
59201SOL    HW179435  14.599  13.459  12.783
59201SOL    HW279436  14.695  13.351  12.828
59202SOL     OW79437   5.192  14.671  11.556
59202SOL    HW179438   5.251  14.612  11.509
59202SOL    HW279439   5.154  14.726  11.488
59203SOL     OW79440   1.484   7.183   2.141
59203SOL    HW179441   1.570   7.198   2.102
59203SOL    HW279442   1.423   7.227   2.082
59204SOL     OW79443   0.745   5.122   4.024
59204SOL    HW179444   0.731   5.030   4.046
59204SOL    HW279445   0.818   5.149   4.079
59205SOL     OW79446   3.320   9.096   3.547
59205SOL    HW179447   3.348   9.037   3.476
59205SOL    HW279448   3.401   9.113   3.596
59206SOL     OW79449  11.010   4.937   0.409
59206SOL    HW179450  11.095   4.904   0.440
59206SOL    HW279451  11.027   4.966   0.319
59207SOL     OW79452   1.420   5.568  14.647
59207SOL    HW179453   1.492   5.525  14.692
59207SOL    HW279454   1.423   5.534  14.557
59208SOL     OW79455   2.823  12.952   9.805
59208SOL    HW179456   2.851  13.035   9.844
59208SOL    HW279457   2.878  12.886   9.846
59209SOL     OW79458   0.975  13.871  11.033
59209SOL    HW179459   0.940  13.898  10.948
59209SOL    HW279460   0.966  13.775  11.033
59210SOL     OW79461  14.279   6.434  14.736
59210SOL    HW179462  14.273   6.529  14.742
59210SOL    HW279463  14.355   6.411  14.790
59211SOL     OW79464   4.249  11.733  13.604
59211SOL    HW179465   4.240  11.657  13.660
59211SOL    HW279466   4.192  11.715  13.529
59212SOL     OW79467   7.671   6.693  11.265
59212SOL    HW179468   7.682   6.755  11.337
59212SOL    HW279469   7.740   6.717  11.203
59213SOL     OW79470  13.110   2.143   6.921
59213SOL    HW179471  13.062   2.181   6.847
59213SOL    HW279472  13.154   2.066   6.884
59214SOL     OW79473  13.272   4.634  12.834
59214SOL    HW179474  13.338   4.701  12.851
59214SOL    HW279475  13.314   4.573  12.773
59215SOL     OW79476  14.168  13.385   9.258
59215SOL    HW179477  14.197  13.422   9.342
59215SOL    HW279478  14.074  13.373   9.269
59216SOL     OW79479   9.464   8.406  14.798
59216SOL    HW179480   9.464   8.405  14.702
59216SOL    HW279481   9.394   8.466  14.821
59217SOL     OW79482   0.442  13.737   0.214
59217SOL    HW179483   0.537  13.749   0.210
59217SOL    HW279484   0.424  13.671   0.147
59218SOL     OW79485  10.784  13.427   3.782
59218SOL    HW179486  10.869  13.440   3.824
59218SOL    HW279487  10.748  13.348   3.823
59219SOL     OW79488  13.914  10.438   4.721
59219SOL    HW179489  13.820  10.456   4.726
59219SOL    HW279490  13.953  10.503   4.779
59220SOL     OW79491  14.603  12.844   8.926
59220SOL    HW179492  14.549  12.780   8.971
59220SOL    HW279493  14.683  12.850   8.978
59221SOL     OW79494   0.518   4.423   1.350
59221SOL    HW179495   0.607   4.453   1.332
59221SOL    HW279496   0.517   4.404   1.444
59222SOL     OW79497  10.348   4.037  13.480
59222SOL    HW179498  10.400   4.069  13.553
59222SOL    HW279499  10.307   3.957  13.513
59223SOL     OW79500   8.634   3.385   7.240
59223SOL    HW179501   8.586   3.454   7.196
59223SOL    HW279502   8.724   3.418   7.246
59224SOL     OW79503   2.064  10.074  10.733
59224SOL    HW179504   2.137  10.065  10.672
59224SOL    HW279505   2.051   9.986  10.769
59225SOL     OW79506   0.868   4.513  11.999
59225SOL    HW179507   0.930   4.542  11.932
59225SOL    HW279508   0.814   4.448  11.954
59226SOL     OW79509   3.756   2.966  11.830
59226SOL    HW179510   3.725   3.007  11.911
59226SOL    HW279511   3.835   3.015  11.806
59227SOL     OW79512  14.044   7.646  13.339
59227SOL    HW179513  14.127   7.619  13.299
59227SOL    HW279514  14.006   7.706  13.274
59228SOL     OW79515   7.339  14.071  13.228
59228SOL    HW179516   7.323  14.120  13.309
59228SOL    HW279517   7.255  14.029  13.210
59229SOL     OW79518   9.550   6.295  10.134
59229SOL    HW179519   9.527   6.204  10.115
59229SOL    HW279520   9.467   6.335  10.162
59230SOL     OW79521  13.436  13.715   7.324
59230SOL    HW179522  13.360  13.682   7.371
59230SOL    HW279523  13.484  13.637   7.297
59231SOL     OW79524   2.116   8.642   0.620
59231SOL    HW179525   2.106   8.675   0.709
59231SOL    HW279526   2.032   8.600   0.600
59232SOL     OW79527   3.510   6.748   8.915
59232SOL    HW179528   3.546   6.832   8.887
59232SOL    HW279529   3.463   6.768   8.996
59233SOL     OW79530   3.093  10.452   0.876
59233SOL    HW179531   3.079  10.526   0.935
59233SOL    HW279532   3.175  10.413   0.906
59234SOL     OW79533  13.091   0.250  12.637
59234SOL    HW179534  13.099   0.240  12.732
59234SOL    HW279535  13.106   0.162  12.603
59235SOL     OW79536  10.264   1.525   0.543
59235SOL    HW179537  10.219   1.554   0.622
59235SOL    HW279538  10.336   1.470   0.575
59236SOL     OW79539  12.581  12.787   6.554
59236SOL    HW179540  12.634  12.847   6.606
59236SOL    HW279541  12.571  12.830   6.469
59237SOL     OW79542   1.198   6.640  11.678
59237SOL    HW179543   1.229   6.712  11.624
59237SOL    HW279544   1.176   6.571  11.616
59238SOL     OW79545   1.126  14.584   0.769
59238SOL    HW179546   1.096  14.506   0.815
59238SOL    HW279547   1.045  14.630   0.746
59239SOL     OW79548   2.418   4.276  14.267
59239SOL    HW179549   2.384   4.237  14.186
59239SOL    HW279550   2.459   4.203  14.313
59240SOL     OW79551  12.074   3.504   7.526
59240SOL    HW179552  12.142   3.525   7.461
59240SOL    HW279553  12.019   3.439   7.482
59241SOL     OW79554   4.159   7.046   4.301
59241SOL    HW179555   4.125   7.115   4.244
59241SOL    HW279556   4.233   7.087   4.347
59242SOL     OW79557   5.267   9.993   0.671
59242SOL    HW179558   5.225   9.917   0.711
59242SOL    HW279559   5.269  10.059   0.740
59243SOL     OW79560  13.864  11.430  12.524
59243SOL    HW179561  13.832  11.438  12.614
59243SOL    HW279562  13.854  11.518  12.487
59244SOL     OW79563   4.799   4.434   2.205
59244SOL    HW179564   4.798   4.504   2.139
59244SOL    HW279565   4.708   4.427   2.234
59245SOL     OW79566   6.545   5.838  10.676
59245SOL    HW179567   6.581   5.872  10.758
59245SOL    HW279568   6.610   5.861  10.609
59246SOL     OW79569  11.909   5.250   8.197
59246SOL    HW179570  11.882   5.238   8.288
59246SOL    HW279571  11.992   5.299   8.203
59247SOL     OW79572   4.589   6.623   4.574
59247SOL    HW179573   4.577   6.535   4.610
59247SOL    HW279574   4.537   6.680   4.632
59248SOL     OW79575   9.504   2.040   9.363
59248SOL    HW179576   9.463   2.106   9.419
59248SOL    HW279577   9.532   1.972   9.423
59249SOL     OW79578   3.196   6.772  13.233
59249SOL    HW179579   3.266   6.730  13.184
59249SOL    HW279580   3.231   6.781  13.322
59250SOL     OW79581   6.502   5.857   0.057
59250SOL    HW179582   6.484   5.810  14.852
59250SOL    HW279583   6.445   5.934   0.052
59251SOL     OW79584   5.900  11.960   8.771
59251SOL    HW179585   5.958  11.895   8.731
59251SOL    HW279586   5.911  12.039   8.718
59252SOL     OW79587  14.451   7.618  10.283
59252SOL    HW179588  14.390   7.560  10.327
59252SOL    HW279589  14.537   7.576  10.294
59253SOL     OW79590   9.257   6.985   8.670
59253SOL    HW179591   9.303   7.049   8.614
59253SOL    HW279592   9.326   6.928   8.704
59254SOL     OW79593   6.400  14.661  11.490
59254SOL    HW179594   6.421  14.568  11.499
59254SOL    HW279595   6.480  14.707  11.516
59255SOL     OW79596   1.025   5.614  10.395
59255SOL    HW179597   1.087   5.541  10.396
59255SOL    HW279598   0.974   5.601  10.314
59256SOL     OW79599   7.188   4.776  14.620
59256SOL    HW179600   7.281   4.784  14.598
59256SOL    HW279601   7.155   4.866  14.620
59257SOL     OW79602  14.099  11.166   9.295
59257SOL    HW179603  14.141  11.205   9.218
59257SOL    HW279604  14.058  11.240   9.340
59258SOL     OW79605  13.323   8.014   6.611
59258SOL    HW179606  13.384   8.006   6.685
59258SOL    HW279607  13.238   7.989   6.648
59259SOL     OW79608  12.560  14.666   8.857
59259SOL    HW179609  12.633  14.606   8.844
59259SOL    HW279610  12.483  14.610   8.859
59260SOL     OW79611  11.684   0.592   7.975
59260SOL    HW179612  11.600   0.561   7.942
59260SOL    HW279613  11.662   0.663   8.035
59261SOL     OW79614   5.477   3.244   3.895
59261SOL    HW179615   5.553   3.217   3.843
59261SOL    HW279616   5.438   3.316   3.845
59262SOL     OW79617   2.575  12.328   8.350
59262SOL    HW179618   2.504  12.268   8.328
59262SOL    HW279619   2.655  12.278   8.332
59263SOL     OW79620   9.143  14.022   8.051
59263SOL    HW179621   9.131  14.064   8.136
59263SOL    HW279622   9.236  14.030   8.033
59264SOL     OW79623   9.438   1.914  13.122
59264SOL    HW179624   9.518   1.902  13.173
59264SOL    HW279625   9.400   1.994  13.156
59265SOL     OW79626   5.936  11.542  12.846
59265SOL    HW179627   5.939  11.505  12.934
59265SOL    HW279628   5.843  11.559  12.830
59266SOL     OW79629  11.648   8.299  13.977
59266SOL    HW179630  11.734   8.312  14.016
59266SOL    HW279631  11.597   8.375  14.005
59267SOL     OW79632   7.919  12.135   8.585
59267SOL    HW179633   7.898  12.044   8.564
59267SOL    HW279634   7.977  12.163   8.515
59268SOL     OW79635   0.926  13.809   7.905
59268SOL    HW179636   0.927  13.746   7.834
59268SOL    HW279637   1.019  13.819   7.929
59269SOL     OW79638  10.062   7.031   6.986
59269SOL    HW179639  10.054   7.120   6.951
59269SOL    HW279640   9.980   7.016   7.034
59270SOL     OW79641   3.216  10.997   4.403
59270SOL    HW179642   3.272  11.037   4.470
59270SOL    HW279643   3.180  10.919   4.445
59271SOL     OW79644   2.727  11.935  13.883
59271SOL    HW179645   2.805  11.887  13.911
59271SOL    HW279646   2.720  12.008  13.944
59272SOL     OW79647   7.395   7.223   3.115
59272SOL    HW179648   7.395   7.272   3.197
59272SOL    HW279649   7.338   7.274   3.057
59273SOL     OW79650   0.484   6.211   1.854
59273SOL    HW179651   0.451   6.147   1.791
59273SOL    HW279652   0.550   6.260   1.806
59274SOL     OW79653  10.509   4.601  13.396
59274SOL    HW179654  10.457   4.527  13.365
59274SOL    HW279655  10.494   4.671  13.332
59275SOL     OW79656  11.139   7.828   0.692
59275SOL    HW179657  11.082   7.895   0.653
59275SOL    HW279658  11.194   7.876   0.754
59276SOL     OW79659  13.309   4.327  11.907
59276SOL    HW179660  13.229   4.358  11.864
59276SOL    HW279661  13.380   4.370  11.858
59277SOL     OW79662  12.838   0.966   9.859
59277SOL    HW179663  12.914   1.012   9.823
59277SOL    HW279664  12.763   1.021   9.836
59278SOL     OW79665  10.425   1.434   8.760
59278SOL    HW179666  10.430   1.471   8.672
59278SOL    HW279667  10.400   1.342   8.746
59279SOL     OW79668  13.956   4.937   3.066
59279SOL    HW179669  13.999   4.882   3.001
59279SOL    HW279670  13.880   4.975   3.021
59280SOL     OW79671  13.283   3.598   4.993
59280SOL    HW179672  13.354   3.659   5.012
59280SOL    HW279673  13.266   3.608   4.899
59281SOL     OW79674   7.708  14.519  10.509
59281SOL    HW179675   7.799  14.492  10.502
59281SOL    HW279676   7.705  14.573  10.588
59282SOL     OW79677   8.967  12.762   0.905
59282SOL    HW179678   9.050  12.740   0.863
59282SOL    HW279679   8.904  12.700   0.868
59283SOL     OW79680  12.818   5.545  14.453
59283SOL    HW179681  12.904   5.570  14.487
59283SOL    HW279682  12.837   5.483  14.382
59284SOL     OW79683   5.835   1.829  11.113
59284SOL    HW179684   5.845   1.743  11.072
59284SOL    HW279685   5.909   1.836  11.173
59285SOL     OW79686  14.679  13.951   9.115
59285SOL    HW179687  14.712  13.863   9.136
59285SOL    HW279688  14.592  13.936   9.080
59286SOL     OW79689  14.253   7.155   1.554
59286SOL    HW179690  14.339   7.128   1.520
59286SOL    HW279691  14.217   7.075   1.592
59287SOL     OW79692   4.616  11.384   1.168
59287SOL    HW179693   4.687  11.403   1.108
59287SOL    HW279694   4.657  11.336   1.240
59288SOL     OW79695   1.649   5.043   5.578
59288SOL    HW179696   1.633   5.033   5.485
59288SOL    HW279697   1.702   5.122   5.585
59289SOL     OW79698   4.643   5.627  11.156
59289SOL    HW179699   4.624   5.701  11.098
59289SOL    HW279700   4.623   5.659  11.244
59290SOL     OW79701   2.738  14.721   2.474
59290SOL    HW179702   2.705  14.756   2.557
59290SOL    HW279703   2.762  14.630   2.495
59291SOL     OW79704   9.421   8.991  10.378
59291SOL    HW179705   9.494   9.008  10.319
59291SOL    HW279706   9.355   9.057  10.355
59292SOL     OW79707   7.101  11.129  12.765
59292SOL    HW179708   7.195  11.114  12.769
59292SOL    HW279709   7.077  11.158  12.853
59293SOL     OW79710  11.336  10.629  11.303
59293SOL    HW179711  11.323  10.574  11.226
59293SOL    HW279712  11.413  10.682  11.281
59294SOL     OW79713  12.013   4.334   3.960
59294SOL    HW179714  11.952   4.339   3.887
59294SOL    HW279715  12.072   4.261   3.937
59295SOL     OW79716   5.285  14.718   7.656
59295SOL    HW179717   5.377  14.697   7.641
59295SOL    HW279718   5.251  14.641   7.703
59296SOL     OW79719   9.669   5.260   8.646
59296SOL    HW179720   9.652   5.330   8.583
59296SOL    HW279721   9.759   5.276   8.674
59297SOL     OW79722   5.564   0.515   7.019
59297SOL    HW179723   5.574   0.610   7.028
59297SOL    HW279724   5.556   0.501   6.925
59298SOL     OW79725   9.420   1.394   8.033
59298SOL    HW179726   9.508   1.416   8.003
59298SOL    HW279727   9.430   1.385   8.128
59299SOL     OW79728  14.820   6.187   3.874
59299SOL    HW179729  14.770   6.267   3.857
59299SOL    HW279730   0.035   6.215   3.878
59300SOL     OW79731   1.629  14.310  14.861
59300SOL    HW179732   1.707  14.261  14.834
59300SOL    HW279733   1.652  14.402  14.844
59301SOL     OW79734   4.532  12.211   4.440
59301SOL    HW179735   4.572  12.125   4.424
59301SOL    HW279736   4.504  12.208   4.531
59302SOL     OW79737  10.918  11.656   9.026
59302SOL    HW179738  10.907  11.686   8.936
59302SOL    HW279739  10.853  11.587   9.036
59303SOL     OW79740   0.409  10.773  10.960
59303SOL    HW179741   0.460  10.809  10.887
59303SOL    HW279742   0.439  10.821  11.037
59304SOL     OW79743  10.770  12.936   0.191
59304SOL    HW179744  10.836  12.980   0.137
59304SOL    HW279745  10.788  12.964   0.280
59305SOL     OW79746   7.395  12.789   4.436
59305SOL    HW179747   7.476  12.821   4.396
59305SOL    HW279748   7.424  12.729   4.504
59306SOL     OW79749   7.382   6.706  13.359
59306SOL    HW179750   7.438   6.670  13.290
59306SOL    HW279751   7.442   6.759  13.412
59307SOL     OW79752  12.403   4.784  11.364
59307SOL    HW179753  12.321   4.758  11.406
59307SOL    HW279754  12.377   4.831  11.285
59308SOL     OW79755  10.974   8.851  11.088
59308SOL    HW179756  10.984   8.830  10.995
59308SOL    HW279757  10.879   8.856  11.102
59309SOL     OW79758   0.842   3.330   6.104
59309SOL    HW179759   0.826   3.320   6.010
59309SOL    HW279760   0.931   3.366   6.109
59310SOL     OW79761   7.932  13.458  14.846
59310SOL    HW179762   7.931  13.497   0.058
59310SOL    HW279763   7.900  13.369  14.859
59311SOL     OW79764   5.456  10.725   5.935
59311SOL    HW179765   5.426  10.814   5.918
59311SOL    HW279766   5.477  10.689   5.849
59312SOL     OW79767  12.523   2.694   6.051
59312SOL    HW179768  12.577   2.746   5.993
59312SOL    HW279769  12.585   2.641   6.101
59313SOL     OW79770   9.036   9.023  12.793
59313SOL    HW179771   9.084   9.031  12.875
59313SOL    HW279772   8.948   8.994  12.819
59314SOL     OW79773   0.969  14.789   9.642
59314SOL    HW179774   0.950  14.876   9.678
59314SOL    HW279775   0.936  14.728   9.707
59315SOL     OW79776  12.484  13.052   4.472
59315SOL    HW179777  12.439  13.022   4.551
59315SOL    HW279778  12.468  13.146   4.469
59316SOL     OW79779  12.178   5.930  13.770
59316SOL    HW179780  12.253   5.978  13.806
59316SOL    HW279781  12.105   5.992  13.775
59317SOL     OW79782   6.446  11.032  12.916
59317SOL    HW179783   6.468  11.113  12.962
59317SOL    HW279784   6.427  11.059  12.826
59318SOL     OW79785   9.504  10.392   5.503
59318SOL    HW179786   9.598  10.400   5.492
59318SOL    HW279787   9.468  10.412   5.416
59319SOL     OW79788   5.951   4.455   2.422
59319SOL    HW179789   5.981   4.383   2.366
59319SOL    HW279790   5.937   4.414   2.507
59320SOL     OW79791   3.547  12.876   8.732
59320SOL    HW179792   3.593  12.819   8.670
59320SOL    HW279793   3.455  12.862   8.712
59321SOL     OW79794   1.904  12.996   6.528
59321SOL    HW179795   1.936  13.072   6.578
59321SOL    HW279796   1.878  13.032   6.444
59322SOL     OW79797   2.829  13.871  14.563
59322SOL    HW179798   2.787  13.917  14.490
59322SOL    HW279799   2.875  13.798  14.523
59323SOL     OW79800  14.606  12.875  12.631
59323SOL    HW179801  14.604  12.937  12.704
59323SOL    HW279802  14.699  12.862  12.612
59324SOL     OW79803  13.275  12.012   7.149
59324SOL    HW179804  13.334  12.083   7.176
59324SOL    HW279805  13.289  11.943   7.214
59325SOL     OW79806   6.256   6.906   6.867
59325SOL    HW179807   6.180   6.887   6.922
59325SOL    HW279808   6.259   7.001   6.861
59326SOL     OW79809   0.792   9.701  10.703
59326SOL    HW179810   0.754   9.760  10.768
59326SOL    HW279811   0.823   9.626  10.753
59327SOL     OW79812  11.546  10.034   9.612
59327SOL    HW179813  11.596   9.982   9.674
59327SOL    HW279814  11.610  10.063   9.547
59328SOL     OW79815   9.647   3.184  12.976
59328SOL    HW179816   9.608   3.264  12.941
59328SOL    HW279817   9.722   3.167  12.919
59329SOL     OW79818   8.055  11.971  12.844
59329SOL    HW179819   8.046  12.018  12.760
59329SOL    HW279820   8.144  11.991  12.872
59330SOL     OW79821   2.899  13.037   7.781
59330SOL    HW179822   2.859  13.118   7.748
59330SOL    HW279823   2.829  12.992   7.828
59331SOL     OW79824  11.908   9.014   5.008
59331SOL    HW179825  11.999   8.989   4.995
59331SOL    HW279826  11.906   9.050   5.097
59332SOL     OW79827   8.647   4.541   7.969
59332SOL    HW179828   8.582   4.543   7.899
59332SOL    HW279829   8.727   4.511   7.927
59333SOL     OW79830   7.334  11.901   4.864
59333SOL    HW179831   7.397  11.829   4.862
59333SOL    HW279832   7.374  11.969   4.809
59334SOL     OW79833   1.344  11.332   9.744
59334SOL    HW179834   1.305  11.244   9.748
59334SOL    HW279835   1.307  11.371   9.666
59335SOL     OW79836   0.046   0.695  14.396
59335SOL    HW179837   0.032   0.684  14.302
59335SOL    HW279838  14.856   0.639  14.438
59336SOL     OW79839  13.239  13.118   0.183
59336SOL    HW179840  13.304  13.188   0.192
59336SOL    HW279841  13.266  13.052   0.247
59337SOL     OW79842   7.812   1.534  10.409
59337SOL    HW179843   7.827   1.627  10.394
59337SOL    HW279844   7.727   1.516  10.370
59338SOL     OW79845   1.596   2.504   7.636
59338SOL    HW179846   1.644   2.575   7.678
59338SOL    HW279847   1.656   2.430   7.639
59339SOL     OW79848   8.975  13.148   0.974
59339SOL    HW179849   8.959  13.109   0.888
59339SOL    HW279850   9.055  13.199   0.963
59340SOL     OW79851   8.163   6.909   1.704
59340SOL    HW179852   8.082   6.859   1.715
59340SOL    HW279853   8.147   6.963   1.626
59341SOL     OW79854   4.851   8.221  13.104
59341SOL    HW179855   4.905   8.273  13.164
59341SOL    HW279856   4.913   8.186  13.040
59342SOL     OW79857   0.343  11.670  13.209
59342SOL    HW179858   0.343  11.756  13.168
59342SOL    HW279859   0.380  11.611  13.142
59343SOL     OW79860   8.101   9.083  13.868
59343SOL    HW179861   8.090   9.178  13.872
59343SOL    HW279862   8.067   9.059  13.781
59344SOL     OW79863   5.740   0.258   0.334
59344SOL    HW179864   5.736   0.257   0.430
59344SOL    HW279865   5.833   0.253   0.313
59345SOL     OW79866   7.278   4.717   7.894
59345SOL    HW179867   7.205   4.760   7.850
59345SOL    HW279868   7.246   4.629   7.914
59346SOL     OW79869   6.234   5.743   8.830
59346SOL    HW179870   6.213   5.752   8.736
59346SOL    HW279871   6.311   5.798   8.843
59347SOL     OW79872  13.479   1.497   0.100
59347SOL    HW179873  13.421   1.452   0.038
59347SOL    HW279874  13.420   1.530   0.168
59348SOL     OW79875   7.456   3.792  11.963
59348SOL    HW179876   7.461   3.716  11.904
59348SOL    HW279877   7.363   3.798  11.985
59349SOL     OW79878  11.075   3.772   5.282
59349SOL    HW179879  11.034   3.791   5.366
59349SOL    HW279880  11.009   3.796   5.217
59350SOL     OW79881   4.724   0.074  11.936
59350SOL    HW179882   4.753   0.165  11.928
59350SOL    HW279883   4.628   0.080  11.942
59351SOL     OW79884  10.017   9.722  10.643
59351SOL    HW179885   9.956   9.790  10.613
59351SOL    HW279886  10.003   9.718  10.738
59352SOL     OW79887   8.708  14.767   7.107
59352SOL    HW179888   8.695  14.677   7.077
59352SOL    HW279889   8.710  14.819   7.027
59353SOL     OW79890  11.264   5.871   0.813
59353SOL    HW179891  11.327   5.867   0.741
59353SOL    HW279892  11.307   5.924   0.880
59354SOL     OW79893   9.874   2.032  11.660
59354SOL    HW179894   9.958   1.986  11.662
59354SOL    HW279895   9.836   2.016  11.746
59355SOL     OW79896  13.477   8.477   5.285
59355SOL    HW179897  13.564   8.478   5.246
59355SOL    HW279898  13.456   8.570   5.299
59356SOL     OW79899   0.059   8.081  14.172
59356SOL    HW179900   0.108   8.157  14.140
59356SOL    HW279901   0.094   8.007  14.121
59357SOL     OW79902   8.641   3.962   5.478
59357SOL    HW179903   8.558   3.966   5.431
59357SOL    HW279904   8.708   3.975   5.411
59358SOL     OW79905   4.808   7.499  10.203
59358SOL    HW179906   4.804   7.451  10.286
59358SOL    HW279907   4.757   7.445  10.142
59359SOL     OW79908  13.104  10.309   9.582
59359SOL    HW179909  13.185  10.304   9.532
59359SOL    HW279910  13.133  10.311   9.673
59360SOL     OW79911   7.134  12.276   5.215
59360SOL    HW179912   7.121  12.245   5.126
59360SOL    HW279913   7.229  12.271   5.229
59361SOL     OW79914   9.188  14.525   2.163
59361SOL    HW179915   9.171  14.436   2.133
59361SOL    HW279916   9.283  14.533   2.163
59362SOL     OW79917  12.174   4.878   1.417
59362SOL    HW179918  12.211   4.822   1.349
59362SOL    HW279919  12.213   4.964   1.401
59363SOL     OW79920   0.328   5.038   1.948
59363SOL    HW179921   0.237   5.064   1.960
59363SOL    HW279922   0.332   5.006   1.858
59364SOL     OW79923   1.568  10.566   7.047
59364SOL    HW179924   1.660  10.575   7.020
59364SOL    HW279925   1.566  10.486   7.099
59365SOL     OW79926  12.508  12.539   3.072
59365SOL    HW179927  12.582  12.486   3.103
59365SOL    HW279928  12.543  12.589   2.998
59366SOL     OW79929   3.060   2.566  11.681
59366SOL    HW179930   3.024   2.655  11.675
59366SOL    HW279931   3.053   2.532  11.592
59367SOL     OW79932   3.965   1.084   8.862
59367SOL    HW179933   3.983   1.165   8.813
59367SOL    HW279934   3.955   1.017   8.795
59368SOL     OW79935   1.570  13.978   3.440
59368SOL    HW179936   1.551  13.944   3.527
59368SOL    HW279937   1.656  14.018   3.449
59369SOL     OW79938  12.213   3.690   6.631
59369SOL    HW179939  12.141   3.679   6.569
59369SOL    HW279940  12.266   3.611   6.619
59370SOL     OW79941  13.072  13.797  12.534
59370SOL    HW179942  13.008  13.792  12.605
59370SOL    HW279943  13.022  13.778  12.455
59371SOL     OW79944  14.176   4.343   4.459
59371SOL    HW179945  14.241   4.386   4.514
59371SOL    HW279946  14.204   4.251   4.457
59372SOL     OW79947   5.044   6.916   0.443
59372SOL    HW179948   4.980   6.942   0.377
59372SOL    HW279949   5.012   6.833   0.478
59373SOL     OW79950   9.168   6.426   6.597
59373SOL    HW179951   9.228   6.448   6.526
59373SOL    HW279952   9.220   6.441   6.677
59374SOL     OW79953   1.888   1.238   2.934
59374SOL    HW179954   1.932   1.276   2.858
59374SOL    HW279955   1.936   1.273   3.009
59375SOL     OW79956  13.277   0.111   5.805
59375SOL    HW179957  13.358   0.066   5.829
59375SOL    HW279958  13.212   0.041   5.795
59376SOL     OW79959  10.028  11.286   9.316
59376SOL    HW179960  10.021  11.326   9.402
59376SOL    HW279961  10.023  11.192   9.333
59377SOL     OW79962  13.137   7.425  12.533
59377SOL    HW179963  13.154   7.367  12.608
59377SOL    HW279964  13.052   7.464  12.553
59378SOL     OW79965  10.786  11.301   6.996
59378SOL    HW179966  10.773  11.211   7.025
59378SOL    HW279967  10.705  11.347   7.019
59379SOL     OW79968   1.064  10.497   6.087
59379SOL    HW179969   0.981  10.522   6.049
59379SOL    HW279970   1.127  10.558   6.050
59380SOL     OW79971  10.197  11.481   3.807
59380SOL    HW179972  10.149  11.489   3.889
59380SOL    HW279973  10.208  11.571   3.777
59381SOL     OW79974   3.477  14.582   4.297
59381SOL    HW179975   3.419  14.639   4.247
59381SOL    HW279976   3.463  14.494   4.261
59382SOL     OW79977   4.998   3.589   9.935
59382SOL    HW179978   4.957   3.644   9.868
59382SOL    HW279979   4.990   3.641  10.015
59383SOL     OW79980  11.804  13.324   9.406
59383SOL    HW179981  11.839  13.413   9.401
59383SOL    HW279982  11.709  13.335   9.400
59384SOL     OW79983   8.716   5.817  10.640
59384SOL    HW179984   8.641   5.785  10.689
59384SOL    HW279985   8.687   5.816  10.549
59385SOL     OW79986  11.849   5.840   0.682
59385SOL    HW179987  11.908   5.766   0.693
59385SOL    HW279988  11.814   5.831   0.594
59386SOL     OW79989  10.887  13.426   6.334
59386SOL    HW179990  10.959  13.372   6.302
59386SOL    HW279991  10.817  13.364   6.353
59387SOL     OW79992   2.148  11.238   3.125
59387SOL    HW179993   2.141  11.157   3.076
59387SOL    HW279994   2.100  11.222   3.206
59388SOL     OW79995   1.223   7.152  13.258
59388SOL    HW179996   1.223   7.108  13.343
59388SOL    HW279997   1.241   7.083  13.195
59389SOL     OW79998   7.265   7.263  11.907
59389SOL    HW179999   7.347   7.219  11.928
59389SOL    HW280000   7.237   7.302  11.990
59390SOL     OW80001   1.685   5.356   4.128
59390SOL    HW180002   1.779   5.339   4.123
59390SOL    HW280003   1.677   5.427   4.191
59391SOL     OW80004   1.589   2.338   4.172
59391SOL    HW180005   1.555   2.249   4.175
59391SOL    HW280006   1.588   2.368   4.263
59392SOL     OW80007   7.460   5.408   7.344
59392SOL    HW180008   7.391   5.469   7.370
59392SOL    HW280009   7.472   5.424   7.251
59393SOL     OW80010  12.640   1.564  14.020
59393SOL    HW180011  12.677   1.557  14.108
59393SOL    HW280012  12.590   1.484  14.008
59394SOL     OW80013  12.955  13.360   3.240
59394SOL    HW180014  12.915  13.324   3.318
59394SOL    HW280015  13.040  13.394   3.270
59395SOL     OW80016   3.051   8.074   5.905
59395SOL    HW180017   3.079   8.133   5.834
59395SOL    HW280018   3.081   7.988   5.877
59396SOL     OW80019   8.824   7.683   8.717
59396SOL    HW180020   8.735   7.693   8.683
59396SOL    HW280021   8.822   7.599   8.762
59397SOL     OW80022   2.824  11.748   7.361
59397SOL    HW180023   2.891  11.774   7.297
59397SOL    HW280024   2.837  11.808   7.434
59398SOL     OW80025   1.456   4.987  12.593
59398SOL    HW180026   1.409   4.944  12.664
59398SOL    HW280027   1.389   5.040  12.548
59399SOL     OW80028  12.828   0.375   4.849
59399SOL    HW180029  12.838   0.295   4.901
59399SOL    HW280030  12.866   0.353   4.764
59400SOL     OW80031  12.419   7.458   5.571
59400SOL    HW180032  12.400   7.482   5.662
59400SOL    HW280033  12.485   7.521   5.543
59401SOL     OW80034   4.080   5.466  10.459
59401SOL    HW180035   4.099   5.405  10.388
59401SOL    HW280036   4.143   5.537  10.448
59402SOL     OW80037   9.967   2.050  14.591
59402SOL    HW180038  10.034   2.021  14.529
59402SOL    HW280039   9.937   1.970  14.633
59403SOL     OW80040   3.571   0.175   7.326
59403SOL    HW180041   3.662   0.191   7.300
59403SOL    HW280042   3.557   0.232   7.401
59404SOL     OW80043   7.551   7.203  12.407
59404SOL    HW180044   7.621   7.211  12.342
59404SOL    HW280045   7.571   7.121  12.453
59405SOL     OW80046  14.501   8.540   8.178
59405SOL    HW180047  14.568   8.558   8.112
59405SOL    HW280048  14.522   8.451   8.208
59406SOL     OW80049   4.608  14.321   1.547
59406SOL    HW180050   4.532  14.351   1.498
59406SOL    HW280051   4.572  14.284   1.628
59407SOL     OW80052  11.208   6.211   9.219
59407SOL    HW180053  11.234   6.151   9.148
59407SOL    HW280054  11.289   6.227   9.267
59408SOL     OW80055   9.376  12.916   4.396
59408SOL    HW180056   9.444  12.854   4.367
59408SOL    HW280057   9.351  12.962   4.316
59409SOL     OW80058   4.821   1.617   3.891
59409SOL    HW180059   4.859   1.606   3.978
59409SOL    HW280060   4.857   1.699   3.859
59410SOL     OW80061  14.701   6.605  10.404
59410SOL    HW180062  14.763   6.633  10.336
59410SOL    HW280063  14.616   6.602  10.359
59411SOL     OW80064  12.508   7.069  10.092
59411SOL    HW180065  12.436   7.058  10.154
59411SOL    HW280066  12.473   7.039  10.008
59412SOL     OW80067   5.942   9.297  14.710
59412SOL    HW180068   6.022   9.348  14.697
59412SOL    HW280069   5.893   9.308  14.629
59413SOL     OW80070   2.280   3.402  12.075
59413SOL    HW180071   2.231   3.379  12.154
59413SOL    HW280072   2.372   3.402  12.103
59414SOL     OW80073   2.084   0.224   8.132
59414SOL    HW180074   2.094   0.145   8.186
59414SOL    HW280075   1.995   0.218   8.097
59415SOL     OW80076   1.447   0.657   9.611
59415SOL    HW180077   1.428   0.674   9.519
59415SOL    HW280078   1.410   0.571   9.629
59416SOL     OW80079  14.633   8.118   6.037
59416SOL    HW180080  14.601   8.119   6.128
59416SOL    HW280081  14.559   8.151   5.986
59417SOL     OW80082   0.487   6.530   4.289
59417SOL    HW180083   0.487   6.449   4.238
59417SOL    HW280084   0.430   6.589   4.241
59418SOL     OW80085  14.204   3.998   1.997
59418SOL    HW180086  14.155   4.023   2.075
59418SOL    HW280087  14.152   3.929   1.956
59419SOL     OW80088  11.045   0.296   6.563
59419SOL    HW180089  11.126   0.282   6.612
59419SOL    HW280090  10.997   0.361   6.613
59420SOL     OW80091  14.774   8.110   4.242
59420SOL    HW180092  14.826   8.039   4.279
59420SOL    HW280093  14.701   8.121   4.304
59421SOL     OW80094  10.838   1.471   2.275
59421SOL    HW180095  10.819   1.393   2.221
59421SOL    HW280096  10.899   1.439   2.341
59422SOL     OW80097  13.572  11.668  12.764
59422SOL    HW180098  13.652  11.684  12.715
59422SOL    HW280099  13.594  11.690  12.855
59423SOL     OW80100   7.930   6.842   6.130
59423SOL    HW180101   7.840   6.840   6.096
59423SOL    HW280102   7.983   6.868   6.055
59424SOL     OW80103   2.176   5.927   6.632
59424SOL    HW180104   2.221   5.843   6.622
59424SOL    HW280105   2.159   5.957   6.543
59425SOL     OW80106   0.053   3.567   7.735
59425SOL    HW180107   0.140   3.548   7.768
59425SOL    HW280108   0.044   3.662   7.742
59426SOL     OW80109   3.336   9.151   6.962
59426SOL    HW180110   3.307   9.241   6.945
59426SOL    HW280111   3.256   9.106   6.990
59427SOL     OW80112  14.223  14.014  13.092
59427SOL    HW180113  14.233  14.017  12.997
59427SOL    HW280114  14.312  14.017  13.125
59428SOL     OW80115  13.714   7.748   4.707
59428SOL    HW180116  13.679   7.687   4.642
59428SOL    HW280117  13.703   7.834   4.667
59429SOL     OW80118   1.383   6.142  13.069
59429SOL    HW180119   1.323   6.215  13.081
59429SOL    HW280120   1.381   6.124  12.975
59430SOL     OW80121   5.780   0.488  11.494
59430SOL    HW180122   5.829   0.418  11.450
59430SOL    HW280123   5.784   0.562  11.433
59431SOL     OW80124   6.846   2.600   5.208
59431SOL    HW180125   6.925   2.574   5.160
59431SOL    HW280126   6.879   2.635   5.290
59432SOL     OW80127  13.280  10.019   3.117
59432SOL    HW180128  13.189  10.002   3.142
59432SOL    HW280129  13.324   9.934   3.130
59433SOL     OW80130   2.610  11.018  12.625
59433SOL    HW180131   2.562  10.968  12.691
59433SOL    HW280132   2.679  11.062  12.674
59434SOL     OW80133   6.398  10.234  13.760
59434SOL    HW180134   6.314  10.190  13.749
59434SOL    HW280135   6.378  10.314  13.808
59435SOL     OW80136   3.403  14.497   3.431
59435SOL    HW180137   3.398  14.588   3.403
59435SOL    HW280138   3.492  14.486   3.462
59436SOL     OW80139   7.589   4.471   8.511
59436SOL    HW180140   7.508   4.484   8.561
59436SOL    HW280141   7.562   4.473   8.420
59437SOL     OW80142   7.323   9.355   2.327
59437SOL    HW180143   7.405   9.306   2.326
59437SOL    HW280144   7.269   9.312   2.260
59438SOL     OW80145   9.672  10.057  10.104
59438SOL    HW180146   9.691   9.964  10.091
59438SOL    HW280147   9.577  10.059  10.121
59439SOL     OW80148   3.296  14.838   9.052
59439SOL    HW180149   3.279  14.744   9.059
59439SOL    HW280150   3.342  14.860   9.133
59440SOL     OW80151   1.304   6.646   6.504
59440SOL    HW180152   1.223   6.611   6.540
59440SOL    HW280153   1.276   6.703   6.431
59441SOL     OW80154   1.419   2.343   8.203
59441SOL    HW180155   1.423   2.332   8.298
59441SOL    HW280156   1.344   2.290   8.176
59442SOL     OW80157  11.015   3.636   3.022
59442SOL    HW180158  11.029   3.584   3.101
59442SOL    HW280159  11.009   3.571   2.952
59443SOL     OW80160   3.820   3.536  14.353
59443SOL    HW180161   3.742   3.554  14.407
59443SOL    HW280162   3.816   3.601  14.283
59444SOL     OW80163  11.385   1.283  11.771
59444SOL    HW180164  11.443   1.265  11.697
59444SOL    HW280165  11.296   1.278  11.734
59445SOL     OW80166   2.320   1.649  11.205
59445SOL    HW180167   2.257   1.718  11.227
59445SOL    HW280168   2.314   1.641  11.110
59446SOL     OW80169  13.121   5.266  12.230
59446SOL    HW180170  13.193   5.229  12.180
59446SOL    HW280171  13.061   5.301  12.164
59447SOL     OW80172   3.095  13.111  12.888
59447SOL    HW180173   3.150  13.042  12.850
59447SOL    HW280174   3.152  13.188  12.891
59448SOL     OW80175   7.862   8.751  12.423
59448SOL    HW180176   7.949   8.715  12.441
59448SOL    HW280177   7.836   8.709  12.341
59449SOL     OW80178  13.590  10.453  14.623
59449SOL    HW180179  13.540  10.393  14.569
59449SOL    HW280180  13.630  10.514  14.561
59450SOL     OW80181  10.621   5.785   5.136
59450SOL    HW180182  10.539   5.739   5.153
59450SOL    HW280183  10.632   5.843   5.211
59451SOL     OW80184  10.114   5.716   2.173
59451SOL    HW180185  10.083   5.806   2.164
59451SOL    HW280186  10.089   5.674   2.091
59452SOL     OW80187   3.715   5.597   2.769
59452SOL    HW180188   3.733   5.681   2.811
59452SOL    HW280189   3.726   5.615   2.675
59453SOL     OW80190   2.990   0.448   5.536
59453SOL    HW180191   2.899   0.454   5.508
59453SOL    HW280192   2.999   0.515   5.604
59454SOL     OW80193   0.895  12.041   6.327
59454SOL    HW180194   0.944  12.055   6.408
59454SOL    HW280195   0.864  11.951   6.333
59455SOL     OW80196  14.661  11.836   2.944
59455SOL    HW180197  14.614  11.765   2.987
59455SOL    HW280198  14.661  11.907   3.007
59456SOL     OW80199   9.922   7.834   9.938
59456SOL    HW180200   9.899   7.910   9.885
59456SOL    HW280201   9.863   7.765   9.910
59457SOL     OW80202  14.470  12.930   7.983
59457SOL    HW180203  14.462  12.937   7.888
59457SOL    HW280204  14.397  12.875   8.010
59458SOL     OW80205   6.854   5.626   3.093
59458SOL    HW180206   6.913   5.605   3.021
59458SOL    HW280207   6.839   5.543   3.138
59459SOL     OW80208  13.453   2.108   4.341
59459SOL    HW180209  13.407   2.095   4.258
59459SOL    HW280210  13.384   2.137   4.402
59460SOL     OW80211  10.750   0.570   8.660
59460SOL    HW180212  10.697   0.491   8.649
59460SOL    HW280213  10.839   0.538   8.675
59461SOL     OW80214   2.997   2.471  11.445
59461SOL    HW180215   2.908   2.481  11.411
59461SOL    HW280216   3.008   2.377  11.457
59462SOL     OW80217   6.417   8.119   2.131
59462SOL    HW180218   6.372   8.169   2.062
59462SOL    HW280219   6.509   8.141   2.121
59463SOL     OW80220   0.232  13.583   0.764
59463SOL    HW180221   0.183  13.595   0.683
59463SOL    HW280222   0.173  13.614   0.833
59464SOL     OW80223   1.696   1.815  12.197
59464SOL    HW180224   1.636   1.762  12.249
59464SOL    HW280225   1.706   1.768  12.114
59465SOL     OW80226   6.588   3.681   7.614
59465SOL    HW180227   6.559   3.740   7.684
59465SOL    HW280228   6.683   3.687   7.616
59466SOL     OW80229  11.700   0.116  10.688
59466SOL    HW180230  11.766   0.081  10.628
59466SOL    HW280231  11.726   0.084  10.774
59467SOL     OW80232   0.150   9.132  14.222
59467SOL    HW180233   0.208   9.128  14.146
59467SOL    HW280234   0.065   9.103  14.188
59468SOL     OW80235  14.714  12.971   0.324
59468SOL    HW180236  14.709  12.963   0.229
59468SOL    HW280237  14.738  13.062   0.340
59469SOL     OW80238  12.671  10.340   9.776
59469SOL    HW180239  12.712  10.368   9.694
59469SOL    HW280240  12.689  10.246   9.780
59470SOL     OW80241   4.757   8.237   1.651
59470SOL    HW180242   4.783   8.325   1.627
59470SOL    HW280243   4.674   8.223   1.605
59471SOL     OW80244   1.166  13.630   8.409
59471SOL    HW180245   1.131  13.717   8.432
59471SOL    HW280246   1.157  13.579   8.489
59472SOL     OW80247  12.828   5.016   1.602
59472SOL    HW180248  12.820   4.978   1.689
59472SOL    HW280249  12.744   4.998   1.559
59473SOL     OW80250   2.144   1.450  13.068
59473SOL    HW180251   2.145   1.354  13.068
59473SOL    HW280252   2.227   1.474  13.109
59474SOL     OW80253   2.800  10.835   9.387
59474SOL    HW180254   2.785  10.744   9.412
59474SOL    HW280255   2.781  10.885   9.467
59475SOL     OW80256  11.245  10.089   4.482
59475SOL    HW180257  11.243  10.016   4.421
59475SOL    HW280258  11.169  10.076   4.538
59476SOL     OW80259   9.385   1.696   6.503
59476SOL    HW180260   9.429   1.774   6.536
59476SOL    HW280261   9.294   1.724   6.491
59477SOL     OW80262  12.388   5.695   6.847
59477SOL    HW180263  12.390   5.747   6.767
59477SOL    HW280264  12.473   5.710   6.888
59478SOL     OW80265  10.855  14.198   3.894
59478SOL    HW180266  10.906  14.123   3.864
59478SOL    HW280267  10.791  14.213   3.824
59479SOL     OW80268   6.764   5.576   6.890
59479SOL    HW180269   6.782   5.484   6.909
59479SOL    HW280270   6.824   5.624   6.948
59480SOL     OW80271   8.502  10.792   3.165
59480SOL    HW180272   8.575  10.854   3.166
59480SOL    HW280273   8.543  10.706   3.168
59481SOL     OW80274   2.083   3.639  10.822
59481SOL    HW180275   2.071   3.725  10.864
59481SOL    HW280276   2.150   3.596  10.874
59482SOL     OW80277   6.137  12.562   2.476
59482SOL    HW180278   6.057  12.614   2.477
59482SOL    HW280279   6.115  12.483   2.526
59483SOL     OW80280   7.176  13.375   8.126
59483SOL    HW180281   7.101  13.417   8.085
59483SOL    HW280282   7.252  13.418   8.087
59484SOL     OW80283   3.435  10.734   6.984
59484SOL    HW180284   3.445  10.709   6.892
59484SOL    HW280285   3.422  10.651   7.030
59485SOL     OW80286   9.150   3.020   4.052
59485SOL    HW180287   9.083   2.985   4.111
59485SOL    HW280288   9.215   2.950   4.044
59486SOL     OW80289   9.768   6.617  11.944
59486SOL    HW180290   9.703   6.616  12.014
59486SOL    HW280291   9.801   6.527  11.941
59487SOL     OW80292  11.696  11.397   8.674
59487SOL    HW180293  11.744  11.330   8.722
59487SOL    HW280294  11.663  11.352   8.596
59488SOL     OW80295  14.560   7.392   3.956
59488SOL    HW180296  14.626   7.450   3.995
59488SOL    HW280297  14.535   7.333   4.027
59489SOL     OW80298  11.989   3.280  14.751
59489SOL    HW180299  11.978   3.206  14.810
59489SOL    HW280300  11.995   3.356  14.809
59490SOL     OW80301   9.643   5.513   1.530
59490SOL    HW180302   9.709   5.458   1.489
59490SOL    HW280303   9.622   5.468   1.612
59491SOL     OW80304   7.168   4.813   3.496
59491SOL    HW180305   7.215   4.729   3.496
59491SOL    HW280306   7.184   4.849   3.583
59492SOL     OW80307   4.922   9.846   4.466
59492SOL    HW180308   4.900   9.902   4.392
59492SOL    HW280309   5.017   9.832   4.458
59493SOL     OW80310   5.233   6.970   7.286
59493SOL    HW180311   5.147   6.939   7.259
59493SOL    HW280312   5.216   7.029   7.359
59494SOL     OW80313   9.600   6.046  10.666
59494SOL    HW180314   9.547   6.042  10.587
59494SOL    HW280315   9.538   6.024  10.737
59495SOL     OW80316   6.961   8.343   9.897
59495SOL    HW180317   7.027   8.289   9.854
59495SOL    HW280318   6.926   8.399   9.827
59496SOL     OW80319   3.706   6.291   1.986
59496SOL    HW180320   3.641   6.359   1.966
59496SOL    HW280321   3.693   6.225   1.918
59497SOL     OW80322   8.155   3.060   2.131
59497SOL    HW180323   8.124   2.970   2.122
59497SOL    HW280324   8.076   3.113   2.137
59498SOL     OW80325  10.662   2.308   1.153
59498SOL    HW180326  10.613   2.357   1.220
59498SOL    HW280327  10.595   2.282   1.089
59499SOL     OW80328  13.156   6.260   9.872
59499SOL    HW180329  13.090   6.208   9.918
59499SOL    HW280330  13.175   6.333   9.931
59500SOL     OW80331   6.038   1.836   4.787
59500SOL    HW180332   6.008   1.751   4.820
59500SOL    HW280333   6.133   1.827   4.782
59501SOL     OW80334   3.390   4.542  11.318
59501SOL    HW180335   3.378   4.583  11.403
59501SOL    HW280336   3.305   4.502  11.298
59502SOL     OW80337   0.501   4.950  11.300
59502SOL    HW180338   0.545   5.009  11.362
59502SOL    HW280339   0.557   4.872  11.297
59503SOL     OW80340   7.442   7.461   2.833
59503SOL    HW180341   7.507   7.527   2.810
59503SOL    HW280342   7.401   7.438   2.750
59504SOL     OW80343   0.673   3.169  10.120
59504SOL    HW180344   0.669   3.151  10.026
59504SOL    HW280345   0.750   3.225  10.131
59505SOL     OW80346   0.882   8.078  12.577
59505SOL    HW180347   0.883   8.047  12.668
59505SOL    HW280348   0.894   8.173  12.584
59506SOL     OW80349  14.826   3.529   1.790
59506SOL    HW180350   0.036   3.563   1.767
59506SOL    HW280351  14.765   3.578   1.735
59507SOL     OW80352   2.456   6.469   2.451
59507SOL    HW180353   2.407   6.414   2.390
59507SOL    HW280354   2.426   6.441   2.537
59508SOL     OW80355   0.189   3.887   9.248
59508SOL    HW180356   0.101   3.915   9.226
59508SOL    HW280357   0.243   3.915   9.174
59509SOL     OW80358  12.730   8.371  13.725
59509SOL    HW180359  12.689   8.346  13.642
59509SOL    HW280360  12.656   8.397  13.781
59510SOL     OW80361   6.471   1.210  11.440
59510SOL    HW180362   6.386   1.181  11.473
59510SOL    HW280363   6.481   1.299  11.475
59511SOL     OW80364  10.772  14.635  13.377
59511SOL    HW180365  10.798  14.625  13.286
59511SOL    HW280366  10.853  14.651  13.424
59512SOL     OW80367  12.501  10.955   0.672
59512SOL    HW180368  12.506  11.048   0.648
59512SOL    HW280369  12.517  10.955   0.766
59513SOL     OW80370   6.028   1.738  14.386
59513SOL    HW180371   5.978   1.794  14.446
59513SOL    HW280372   5.980   1.743  14.304
59514SOL     OW80373  13.918   2.733  12.158
59514SOL    HW180374  13.999   2.684  12.144
59514SOL    HW280375  13.888   2.756  12.070
59515SOL     OW80376   1.820  12.136  12.206
59515SOL    HW180377   1.875  12.070  12.164
59515SOL    HW280378   1.820  12.111  12.299
59516SOL     OW80379   0.910  12.917   0.256
59516SOL    HW180380   0.855  12.962   0.319
59516SOL    HW280381   0.901  12.824   0.277
59517SOL     OW80382   3.912   8.060   0.945
59517SOL    HW180383   3.827   8.061   0.900
59517SOL    HW280384   3.974   8.030   0.879
59518SOL     OW80385   4.620   6.558   7.679
59518SOL    HW180386   4.664   6.550   7.594
59518SOL    HW280387   4.634   6.649   7.705
59519SOL     OW80388  10.766   5.799   9.115
59519SOL    HW180389  10.786   5.877   9.167
59519SOL    HW280390  10.808   5.816   9.031
59520SOL     OW80391   6.438  13.875   8.784
59520SOL    HW180392   6.509  13.840   8.838
59520SOL    HW280393   6.411  13.954   8.829
59521SOL     OW80394   7.619   7.845   5.783
59521SOL    HW180395   7.625   7.779   5.852
59521SOL    HW280396   7.530   7.838   5.751
59522SOL     OW80397   0.214   4.975  13.822
59522SOL    HW180398   0.182   4.968  13.913
59522SOL    HW280399   0.146   4.933  13.770
59523SOL     OW80400   5.375  11.065   3.266
59523SOL    HW180401   5.374  11.061   3.170
59523SOL    HW280402   5.449  11.011   3.292
59524SOL     OW80403   5.333   6.778   0.629
59524SOL    HW180404   5.289   6.727   0.561
59524SOL    HW280405   5.368   6.712   0.690
59525SOL     OW80406   5.042  10.254   7.131
59525SOL    HW180407   5.006  10.342   7.122
59525SOL    HW280408   5.100  10.259   7.206
59526SOL     OW80409   4.598  11.349   4.608
59526SOL    HW180410   4.568  11.430   4.566
59526SOL    HW280411   4.675  11.376   4.659
59527SOL     OW80412   1.252   8.512  12.651
59527SOL    HW180413   1.327   8.462  12.620
59527SOL    HW280414   1.278   8.543  12.737
59528SOL     OW80415  11.775   9.836   0.478
59528SOL    HW180416  11.773   9.885   0.395
59528SOL    HW280417  11.772   9.903   0.546
59529SOL     OW80418  14.742  12.942   1.145
59529SOL    HW180419  14.677  12.880   1.111
59529SOL    HW280420  14.817  12.887   1.168
59530SOL     OW80421   8.243  13.588  12.896
59530SOL    HW180422   8.312  13.643  12.933
59530SOL    HW280423   8.229  13.520  12.962
59531SOL     OW80424  12.179  14.781  10.638
59531SOL    HW180425  12.226  14.724  10.698
59531SOL    HW280426  12.214  14.868  10.654
59532SOL     OW80427   1.511   5.565   6.957
59532SOL    HW180428   1.440   5.614   6.999
59532SOL    HW280429   1.579   5.631   6.939
59533SOL     OW80430   0.465   7.218  11.900
59533SOL    HW180431   0.468   7.178  11.813
59533SOL    HW280432   0.553   7.206  11.935
59534SOL     OW80433  12.687   8.233   6.296
59534SOL    HW180434  12.641   8.149   6.296
59534SOL    HW280435  12.729   8.237   6.210
59535SOL     OW80436   1.888   3.011  13.737
59535SOL    HW180437   1.826   3.083  13.731
59535SOL    HW280438   1.872   2.959  13.658
59536SOL     OW80439   5.231   8.855   0.510
59536SOL    HW180440   5.260   8.799   0.437
59536SOL    HW280441   5.251   8.944   0.481
59537SOL     OW80442  13.539   0.278  12.065
59537SOL    HW180443  13.446   0.303  12.061
59537SOL    HW280444  13.538   0.185  12.086
59538SOL     OW80445  12.594   3.431  14.321
59538SOL    HW180446  12.591   3.344  14.360
59538SOL    HW280447  12.557   3.419  14.233
59539SOL     OW80448  11.656  11.198   2.112
59539SOL    HW180449  11.692  11.267   2.057
59539SOL    HW280450  11.685  11.220   2.200
59540SOL     OW80451   2.444   2.193   3.947
59540SOL    HW180452   2.505   2.125   3.921
59540SOL    HW280453   2.473   2.271   3.900
59541SOL     OW80454  10.890   9.952  10.425
59541SOL    HW180455  10.835   9.876  10.406
59541SOL    HW280456  10.885   9.960  10.520
59542SOL     OW80457   8.095  11.886   5.705
59542SOL    HW180458   8.035  11.868   5.633
59542SOL    HW280459   8.109  11.801   5.747
59543SOL     OW80460  14.451   4.847   0.191
59543SOL    HW180461  14.375   4.789   0.195
59543SOL    HW280462  14.415   4.935   0.201
59544SOL     OW80463   6.431   2.729   2.910
59544SOL    HW180464   6.478   2.653   2.876
59544SOL    HW280465   6.406   2.704   2.999
59545SOL     OW80466  10.968  12.027  10.471
59545SOL    HW180467  11.041  12.080  10.503
59545SOL    HW280468  11.008  11.942  10.449
59546SOL     OW80469   5.466   7.464   5.545
59546SOL    HW180470   5.494   7.437   5.633
59546SOL    HW280471   5.465   7.559   5.549
59547SOL     OW80472   9.078   3.625   4.747
59547SOL    HW180473   9.114   3.539   4.771
59547SOL    HW280474   9.040   3.612   4.660
59548SOL     OW80475   8.749   6.779   6.309
59548SOL    HW180476   8.735   6.803   6.217
59548SOL    HW280477   8.810   6.705   6.305
59549SOL     OW80478   9.628   4.827   2.120
59549SOL    HW180479   9.607   4.817   2.213
59549SOL    HW280480   9.591   4.750   2.078
59550SOL     OW80481   3.355   0.192   7.140
59550SOL    HW180482   3.421   0.218   7.204
59550SOL    HW280483   3.291   0.263   7.142
59551SOL     OW80484   9.825   3.845  11.665
59551SOL    HW180485   9.847   3.772  11.722
59551SOL    HW280486   9.731   3.859  11.679
59552SOL     OW80487   3.873   0.636  12.993
59552SOL    HW180488   3.936   0.707  12.996
59552SOL    HW280489   3.805   0.662  13.056
59553SOL     OW80490  11.926  12.066  11.288
59553SOL    HW180491  11.981  11.995  11.255
59553SOL    HW280492  11.969  12.094  11.369
59554SOL     OW80493   5.837   0.845   5.336
59554SOL    HW180494   5.891   0.853   5.415
59554SOL    HW280495   5.752   0.816   5.369
59555SOL     OW80496  10.444   6.607   2.144
59555SOL    HW180497  10.412   6.660   2.071
59555SOL    HW280498  10.483   6.530   2.103
59556SOL     OW80499   2.492   2.260   9.577
59556SOL    HW180500   2.567   2.214   9.614
59556SOL    HW280501   2.513   2.268   9.483
59557SOL     OW80502   5.537  13.039  12.056
59557SOL    HW180503   5.612  13.069  12.005
59557SOL    HW280504   5.464  13.038  11.994
59558SOL     OW80505  14.562  13.409   5.708
59558SOL    HW180506  14.519  13.463   5.774
59558SOL    HW280507  14.648  13.449   5.697
59559SOL     OW80508   4.304  14.730   7.500
59559SOL    HW180509   4.279  14.734   7.592
59559SOL    HW280510   4.227  14.762   7.453
59560SOL     OW80511   0.148   1.184   1.956
59560SOL    HW180512   0.145   1.181   1.860
59560SOL    HW280513   0.182   1.098   1.981
59561SOL     OW80514  14.145   8.522   4.222
59561SOL    HW180515  14.063   8.549   4.182
59561SOL    HW280516  14.184   8.462   4.158
59562SOL     OW80517   3.560   8.751   6.681
59562SOL    HW180518   3.639   8.721   6.636
59562SOL    HW280519   3.550   8.691   6.755
59563SOL     OW80520   9.343   0.917   5.765
59563SOL    HW180521   9.336   0.989   5.828
59563SOL    HW280522   9.300   0.951   5.686
59564SOL     OW80523  10.461   8.285   7.983
59564SOL    HW180524  10.458   8.324   7.896
59564SOL    HW280525  10.375   8.245   7.995
59565SOL     OW80526   1.899  14.241  14.818
59565SOL    HW180527   1.931  14.254   0.031
59565SOL    HW280528   1.976  14.253  14.763
59566SOL     OW80529  11.176  12.475   8.731
59566SOL    HW180530  11.101  12.522   8.695
59566SOL    HW280531  11.183  12.504   8.821
59567SOL     OW80532   1.056  10.418   3.062
59567SOL    HW180533   1.070  10.500   3.109
59567SOL    HW280534   1.120  10.420   2.991
59568SOL     OW80535   3.000   8.812   8.506
59568SOL    HW180536   2.907   8.797   8.495
59568SOL    HW280537   3.034   8.730   8.542
59569SOL     OW80538   8.247   1.440   0.257
59569SOL    HW180539   8.333   1.397   0.260
59569SOL    HW280540   8.227   1.448   0.164
59570SOL     OW80541  14.441   1.401   1.081
59570SOL    HW180542  14.461   1.475   1.138
59570SOL    HW280543  14.500   1.331   1.110
59571SOL     OW80544   5.357  13.613   9.862
59571SOL    HW180545   5.379  13.522   9.842
59571SOL    HW280546   5.387  13.625   9.953
59572SOL     OW80547  11.379   8.429   8.345
59572SOL    HW180548  11.340   8.505   8.388
59572SOL    HW280549  11.323   8.413   8.269
59573SOL     OW80550   5.036  10.105   1.365
59573SOL    HW180551   4.960  10.162   1.349
59573SOL    HW280552   5.096  10.125   1.293
59574SOL     OW80553  11.670   3.299  11.817
59574SOL    HW180554  11.663   3.317  11.723
59574SOL    HW280555  11.675   3.386  11.857
59575SOL     OW80556  10.358   8.377   9.763
59575SOL    HW180557  10.349   8.349   9.672
59575SOL    HW280558  10.330   8.301   9.815
59576SOL     OW80559   0.573   3.453   7.894
59576SOL    HW180560   0.647   3.506   7.867
59576SOL    HW280561   0.611   3.385   7.949
59577SOL     OW80562   9.254   0.708   9.010
59577SOL    HW180563   9.167   0.669   9.009
59577SOL    HW280564   9.287   0.696   8.921
59578SOL     OW80565  12.141  14.281  13.481
59578SOL    HW180566  12.110  14.322  13.562
59578SOL    HW280567  12.078  14.309  13.414
59579SOL     OW80568   2.947   6.380   1.028
59579SOL    HW180569   2.991   6.328   1.095
59579SOL    HW280570   3.003   6.456   1.015
59580SOL     OW80571   0.729   5.561  13.554
59580SOL    HW180572   0.819   5.556  13.523
59580SOL    HW280573   0.691   5.634  13.506
59581SOL     OW80574   3.000   9.113  10.603
59581SOL    HW180575   3.092   9.142  10.602
59581SOL    HW280576   2.950   9.191  10.579
59582SOL     OW80577   3.289   2.891   3.443
59582SOL    HW180578   3.278   2.940   3.524
59582SOL    HW280579   3.266   2.954   3.374
59583SOL     OW80580  12.984   6.085   1.141
59583SOL    HW180581  12.898   6.120   1.117
59583SOL    HW280582  12.974   6.056   1.231
59584SOL     OW80583   5.964   6.459  10.367
59584SOL    HW180584   5.869   6.466  10.360
59584SOL    HW280585   5.990   6.533  10.422
59585SOL     OW80586  11.735   0.851  14.734
59585SOL    HW180587  11.673   0.924  14.726
59585SOL    HW280588  11.795   0.862  14.661
59586SOL     OW80589   2.708   5.048   0.850
59586SOL    HW180590   2.751   5.037   0.935
59586SOL    HW280591   2.735   5.136   0.822
59587SOL     OW80592   4.267   9.738   2.861
59587SOL    HW180593   4.173   9.728   2.878
59587SOL    HW280594   4.296   9.803   2.924
59588SOL     OW80595  11.208  10.681  10.387
59588SOL    HW180596  11.297  10.645  10.384
59588SOL    HW280597  11.158  10.616  10.437
59589SOL     OW80598  13.826  11.139  10.075
59589SOL    HW180599  13.850  11.078  10.004
59589SOL    HW280600  13.787  11.213  10.030
59590SOL     OW80601  13.177   1.261  11.584
59590SOL    HW180602  13.081   1.260  11.583
59590SOL    HW280603  13.201   1.185  11.636
59591SOL     OW80604   6.013   5.163   8.811
59591SOL    HW180605   5.996   5.233   8.747
59591SOL    HW280606   6.103   5.136   8.793
59592SOL     OW80607  12.912   1.397   3.782
59592SOL    HW180608  13.004   1.394   3.811
59592SOL    HW280609  12.880   1.308   3.795
59593SOL     OW80610   8.883   5.745   3.018
59593SOL    HW180611   8.821   5.767   3.087
59593SOL    HW280612   8.902   5.829   2.975
59594SOL     OW80613   3.794   1.027   2.099
59594SOL    HW180614   3.725   0.975   2.059
59594SOL    HW280615   3.753   1.111   2.119
59595SOL     OW80616   6.554  10.133  14.362
59595SOL    HW180617   6.485  10.157  14.424
59595SOL    HW280618   6.626  10.193  14.381
59596SOL     OW80619  14.432   1.443  14.112
59596SOL    HW180620  14.345   1.474  14.138
59596SOL    HW280621  14.418   1.400  14.027
59597SOL     OW80622  12.487  10.098   1.008
59597SOL    HW180623  12.465  10.108   1.101
59597SOL    HW280624  12.515  10.007   1.000
59598SOL     OW80625   5.199   4.922   1.073
59598SOL    HW180626   5.273   4.863   1.058
59598SOL    HW280627   5.123   4.864   1.081
59599SOL     OW80628   5.948  12.151  13.907
59599SOL    HW180629   5.981  12.224  13.960
59599SOL    HW280630   5.989  12.163  13.822
59600SOL     OW80631  11.175   5.903   3.511
59600SOL    HW180632  11.156   5.822   3.464
59600SOL    HW280633  11.269   5.900   3.528
59601SOL     OW80634   3.200   2.997  14.043
59601SOL    HW180635   3.125   2.961  13.995
59601SOL    HW280636   3.241   2.921  14.084
59602SOL     OW80637   3.554   8.617   2.366
59602SOL    HW180638   3.508   8.687   2.320
59602SOL    HW280639   3.484   8.566   2.407
59603SOL     OW80640  11.437   7.116  11.682
59603SOL    HW180641  11.469   7.206  11.678
59603SOL    HW280642  11.490   7.068  11.619
59604SOL     OW80643   2.161  12.147  14.388
59604SOL    HW180644   2.224  12.214  14.413
59604SOL    HW280645   2.093  12.152  14.455
59605SOL     OW80646  13.758   4.957   8.083
59605SOL    HW180647  13.822   5.025   8.102
59605SOL    HW280648  13.679   4.983   8.131
59606SOL     OW80649  12.365   4.858   0.270
59606SOL    HW180650  12.441   4.848   0.328
59606SOL    HW280651  12.324   4.771   0.269
59607SOL     OW80652   0.740  10.199   5.817
59607SOL    HW180653   0.663  10.256   5.812
59607SOL    HW280654   0.738  10.150   5.734
59608SOL     OW80655   1.163  10.220  10.110
59608SOL    HW180656   1.206  10.305  10.108
59608SOL    HW280657   1.218  10.163  10.056
59609SOL     OW80658  11.621   3.973   7.952
59609SOL    HW180659  11.676   3.907   7.995
59609SOL    HW280660  11.541   3.926   7.929
59610SOL     OW80661   2.372   0.599   5.173
59610SOL    HW180662   2.437   0.531   5.189
59610SOL    HW280663   2.304   0.556   5.121
59611SOL     OW80664  13.384   4.302   5.760
59611SOL    HW180665  13.289   4.295   5.759
59611SOL    HW280666  13.402   4.376   5.818
59612SOL     OW80667  12.501   0.717   6.815
59612SOL    HW180668  12.567   0.663   6.772
59612SOL    HW280669  12.538   0.806   6.813
59613SOL     OW80670   2.929  14.161   6.316
59613SOL    HW180671   2.967  14.142   6.402
59613SOL    HW280672   2.951  14.085   6.262
59614SOL     OW80673   5.652   6.387   6.802
59614SOL    HW180674   5.619   6.430   6.880
59614SOL    HW280675   5.573   6.367   6.750
59615SOL     OW80676   8.512  13.833   3.801
59615SOL    HW180677   8.544  13.846   3.712
59615SOL    HW280678   8.468  13.748   3.799
59616SOL     OW80679   5.634   2.547   3.131
59616SOL    HW180680   5.635   2.453   3.153
59616SOL    HW280681   5.631   2.591   3.216
59617SOL     OW80682   4.714   5.006   8.844
59617SOL    HW180683   4.639   5.056   8.812
59617SOL    HW280684   4.721   5.030   8.937
59618SOL     OW80685   3.861   4.952   1.006
59618SOL    HW180686   3.769   4.976   0.995
59618SOL    HW280687   3.887   4.995   1.088
59619SOL     OW80688   2.366   8.788  12.189
59619SOL    HW180689   2.333   8.796  12.099
59619SOL    HW280690   2.347   8.698  12.214
59620SOL     OW80691   8.134   8.696   4.347
59620SOL    HW180692   8.072   8.769   4.354
59620SOL    HW280693   8.163   8.681   4.436
59621SOL     OW80694   0.199   5.250   6.167
59621SOL    HW180695   0.262   5.199   6.218
59621SOL    HW280696   0.116   5.202   6.178
59622SOL     OW80697  12.569  12.368   6.978
59622SOL    HW180698  12.607  12.304   7.038
59622SOL    HW280699  12.553  12.320   6.897
59623SOL     OW80700   1.588  12.850   1.133
59623SOL    HW180701   1.522  12.891   1.190
59623SOL    HW280702   1.538  12.815   1.060
59624SOL     OW80703   6.212   5.696   9.525
59624SOL    HW180704   6.294   5.728   9.563
59624SOL    HW280705   6.143   5.740   9.575
59625SOL     OW80706  10.354   1.044   7.118
59625SOL    HW180707  10.300   1.096   7.059
59625SOL    HW280708  10.439   1.087   7.118
59626SOL     OW80709   1.768  12.625   9.921
59626SOL    HW180710   1.792  12.587  10.005
59626SOL    HW280711   1.849  12.668   9.891
59627SOL     OW80712   0.097   0.719   5.991
59627SOL    HW180713   0.077   0.812   5.983
59627SOL    HW280714   0.058   0.693   6.075
59628SOL     OW80715   6.339   6.053   4.665
59628SOL    HW180716   6.248   6.043   4.637
59628SOL    HW280717   6.378   5.967   4.649
59629SOL     OW80718   7.650  14.802   0.598
59629SOL    HW180719   7.651  14.876   0.659
59629SOL    HW280720   7.642  14.842   0.512
59630SOL     OW80721   4.679   1.838   0.432
59630SOL    HW180722   4.635   1.808   0.353
59630SOL    HW280723   4.642   1.925   0.448
59631SOL     OW80724   9.536   9.273   1.389
59631SOL    HW180725   9.553   9.187   1.350
59631SOL    HW280726   9.623   9.305   1.414
59632SOL     OW80727  12.100   9.938   2.827
59632SOL    HW180728  12.061  10.011   2.875
59632SOL    HW280729  12.189   9.965   2.808
59633SOL     OW80730   7.352   5.556   3.065
59633SOL    HW180731   7.359   5.468   3.029
59633SOL    HW280732   7.328   5.543   3.156
59634SOL     OW80733  14.101   5.188  12.095
59634SOL    HW180734  14.093   5.125  12.024
59634SOL    HW280735  14.072   5.140  12.173
59635SOL     OW80736  13.587   5.074   5.517
59635SOL    HW180737  13.515   5.011   5.510
59635SOL    HW280738  13.560   5.147   5.460
59636SOL     OW80739   2.889   2.040   1.460
59636SOL    HW180740   2.828   2.075   1.395
59636SOL    HW280741   2.975   2.054   1.421
59637SOL     OW80742   7.769   7.391   6.457
59637SOL    HW180743   7.719   7.383   6.376
59637SOL    HW280744   7.748   7.312   6.506
59638SOL     OW80745  14.524   3.791  13.142
59638SOL    HW180746  14.573   3.830  13.070
59638SOL    HW280747  14.491   3.866  13.192
59639SOL     OW80748   8.288  12.212  12.991
59639SOL    HW180749   8.242  12.200  13.074
59639SOL    HW280750   8.356  12.276  13.009
59640SOL     OW80751   4.895   0.772   4.975
59640SOL    HW180752   4.961   0.782   4.906
59640SOL    HW280753   4.913   0.843   5.036
59641SOL     OW80754   8.550   7.684  11.169
59641SOL    HW180755   8.471   7.631  11.173
59641SOL    HW280756   8.533   7.758  11.227
59642SOL     OW80757  11.280  12.481  10.791
59642SOL    HW180758  11.299  12.406  10.848
59642SOL    HW280759  11.365  12.504  10.754
59643SOL     OW80760   0.409  12.413   6.358
59643SOL    HW180761   0.331  12.420   6.303
59643SOL    HW280762   0.381  12.362   6.433
59644SOL     OW80763   2.298  12.708   9.971
59644SOL    HW180764   2.261  12.787  10.010
59644SOL    HW280765   2.224  12.648   9.962
59645SOL     OW80766  14.034  14.481   1.951
59645SOL    HW180767  13.964  14.541   1.927
59645SOL    HW280768  14.017  14.402   1.900
59646SOL     OW80769   0.822   0.322  12.321
59646SOL    HW180770   0.730   0.301  12.338
59646SOL    HW280771   0.820   0.412  12.288
59647SOL     OW80772  11.895   6.012  11.838
59647SOL    HW180773  11.867   5.960  11.763
59647SOL    HW280774  11.828   5.994  11.905
59648SOL     OW80775  10.662   0.905   5.839
59648SOL    HW180776  10.683   0.985   5.887
59648SOL    HW280777  10.698   0.919   5.751
59649SOL     OW80778  13.706   1.889   6.930
59649SOL    HW180779  13.740   1.936   7.006
59649SOL    HW280780  13.698   1.956   6.862
59650SOL     OW80781   6.419  11.815   0.581
59650SOL    HW180782   6.498  11.867   0.565
59650SOL    HW280783   6.364  11.872   0.636
59651SOL     OW80784   4.994  14.393   8.097
59651SOL    HW180785   4.924  14.409   8.034
59651SOL    HW280786   5.058  14.463   8.081
59652SOL     OW80787   6.233   7.201   4.590
59652SOL    HW180788   6.280   7.284   4.599
59652SOL    HW280789   6.295   7.144   4.544
59653SOL     OW80790  12.658   1.306   7.264
59653SOL    HW180791  12.604   1.378   7.298
59653SOL    HW280792  12.596   1.234   7.251
59654SOL     OW80793   7.229   9.248   3.387
59654SOL    HW180794   7.176   9.289   3.319
59654SOL    HW280795   7.281   9.319   3.424
59655SOL     OW80796   8.856   6.452   2.242
59655SOL    HW180797   8.895   6.539   2.246
59655SOL    HW280798   8.768   6.468   2.206
59656SOL     OW80799   1.284  14.229  12.858
59656SOL    HW180800   1.204  14.268  12.893
59656SOL    HW280801   1.272  14.135  12.869
59657SOL     OW80802   3.858  13.565  13.516
59657SOL    HW180803   3.858  13.653  13.480
59657SOL    HW280804   3.824  13.575  13.605
59658SOL     OW80805  12.149   3.093  12.901
59658SOL    HW180806  12.056   3.077  12.918
59658SOL    HW280807  12.195   3.030  12.958
59659SOL     OW80808  11.266  10.292  13.641
59659SOL    HW180809  11.206  10.226  13.606
59659SOL    HW280810  11.304  10.333  13.563
59660SOL     OW80811   5.522  12.675   0.177
59660SOL    HW180812   5.536  12.750   0.119
59660SOL    HW280813   5.464  12.707   0.245
59661SOL     OW80814   3.526  13.900   5.067
59661SOL    HW180815   3.451  13.943   5.107
59661SOL    HW280816   3.603  13.943   5.105
59662SOL     OW80817  12.020  13.622  10.321
59662SOL    HW180818  11.969  13.545  10.295
59662SOL    HW280819  11.955  13.687  10.347
59663SOL     OW80820   0.369   2.863   8.850
59663SOL    HW180821   0.301   2.919   8.812
59663SOL    HW280822   0.412   2.823   8.774
59664SOL     OW80823   9.251   4.769   9.548
59664SOL    HW180824   9.221   4.691   9.503
59664SOL    HW280825   9.330   4.795   9.502
59665SOL     OW80826   4.423  14.173   6.349
59665SOL    HW180827   4.393  14.213   6.267
59665SOL    HW280828   4.518  14.172   6.342
59666SOL     OW80829  11.099  14.184  13.064
59666SOL    HW180830  11.073  14.106  13.112
59666SOL    HW280831  11.154  14.152  12.993
59667SOL     OW80832   4.063   9.046   6.355
59667SOL    HW180833   4.119   9.096   6.414
59667SOL    HW280834   3.974   9.063   6.386
59668SOL     OW80835  11.780  11.604  14.054
59668SOL    HW180836  11.742  11.534  14.002
59668SOL    HW280837  11.867  11.617  14.017
59669SOL     OW80838   5.602   6.724   2.737
59669SOL    HW180839   5.588   6.635   2.702
59669SOL    HW280840   5.668   6.761   2.679
59670SOL     OW80841  11.753   8.788   0.362
59670SOL    HW180842  11.776   8.853   0.429
59670SOL    HW280843  11.709   8.839   0.294
59671SOL     OW80844   8.427   1.911   3.411
59671SOL    HW180845   8.435   1.829   3.459
59671SOL    HW280846   8.500   1.910   3.348
59672SOL     OW80847  14.658  14.840   0.930
59672SOL    HW180848  14.747  14.820   0.899
59672SOL    HW280849  14.658  14.813   1.022
59673SOL     OW80850   4.973   0.040  12.609
59673SOL    HW180851   5.042  14.850  12.619
59673SOL    HW280852   5.000   0.090  12.532
59674SOL     OW80853   8.382  14.043  12.380
59674SOL    HW180854   8.470  14.034  12.342
59674SOL    HW280855   8.385  14.128  12.425
59675SOL     OW80856   6.251   4.040  14.607
59675SOL    HW180857   6.290   3.984  14.539
59675SOL    HW280858   6.241   4.125  14.565
59676SOL     OW80859   5.521   6.157   5.421
59676SOL    HW180860   5.522   6.215   5.497
59676SOL    HW280861   5.587   6.091   5.439
59677SOL     OW80862   2.866  10.404   2.215
59677SOL    HW180863   2.826  10.343   2.152
59677SOL    HW280864   2.949  10.429   2.174
59678SOL     OW80865  12.002   6.256  13.117
59678SOL    HW180866  12.033   6.294  13.200
59678SOL    HW280867  11.908   6.242  13.131
59679SOL     OW80868   8.764   9.711  14.099
59679SOL    HW180869   8.684   9.759  14.120
59679SOL    HW280870   8.737   9.647  14.032
59680SOL     OW80871   4.370   2.501   5.110
59680SOL    HW180872   4.434   2.527   5.176
59680SOL    HW280873   4.285   2.507   5.154
59681SOL     OW80874  11.285   8.649  14.048
59681SOL    HW180875  11.283   8.584  13.978
59681SOL    HW280876  11.194   8.674  14.060
59682SOL     OW80877   0.005   6.327  11.743
59682SOL    HW180878  14.806   6.380  11.769
59682SOL    HW280879   0.077   6.358  11.797
59683SOL     OW80880  13.109   9.359  10.272
59683SOL    HW180881  13.062   9.278  10.290
59683SOL    HW280882  13.173   9.366  10.343
59684SOL     OW80883   3.904   4.916   0.446
59684SOL    HW180884   3.866   4.850   0.504
59684SOL    HW280885   3.932   4.866   0.369
59685SOL     OW80886  12.435   1.047   8.882
59685SOL    HW180887  12.423   1.102   8.959
59685SOL    HW280888  12.355   1.060   8.830
59686SOL     OW80889   2.636   0.167  12.594
59686SOL    HW180890   2.565   0.103  12.607
59686SOL    HW280891   2.693   0.155  12.670
59687SOL     OW80892   4.763  10.554   7.509
59687SOL    HW180893   4.826  10.581   7.576
59687SOL    HW280894   4.684  10.533   7.558
59688SOL     OW80895  12.017   9.560  10.055
59688SOL    HW180896  11.941   9.618  10.056
59688SOL    HW280897  11.989   9.482  10.102
59689SOL     OW80898   5.480  10.527  14.042
59689SOL    HW180899   5.404  10.524  14.100
59689SOL    HW280900   5.517  10.438  14.047
59690SOL     OW80901  13.236  11.859  10.985
59690SOL    HW180902  13.194  11.840  11.069
59690SOL    HW280903  13.164  11.892  10.930
59691SOL     OW80904   3.550  10.901   0.684
59691SOL    HW180905   3.584  10.905   0.594
59691SOL    HW280906   3.460  10.935   0.677
59692SOL     OW80907   0.503  10.124  14.241
59692SOL    HW180908   0.521  10.030  14.250
59692SOL    HW280909   0.522  10.143  14.149
59693SOL     OW80910   8.205   0.264   6.252
59693SOL    HW180911   8.184   0.255   6.345
59693SOL    HW280912   8.206   0.174   6.219
59694SOL     OW80913   9.451  14.482   4.705
59694SOL    HW180914   9.496  14.454   4.625
59694SOL    HW280915   9.369  14.521   4.674
59695SOL     OW80916  12.598  13.912   7.038
59695SOL    HW180917  12.622  13.863   6.960
59695SOL    HW280918  12.580  13.846   7.104
59696SOL     OW80919   1.736   2.422   4.654
59696SOL    HW180920   1.750   2.516   4.641
59696SOL    HW280921   1.678   2.417   4.731
59697SOL     OW80922   5.329   6.465   7.156
59697SOL    HW180923   5.257   6.445   7.097
59697SOL    HW280924   5.352   6.380   7.195
59698SOL     OW80925   1.097  12.792   8.022
59698SOL    HW180926   1.017  12.744   8.001
59698SOL    HW280927   1.094  12.869   7.966
59699SOL     OW80928   0.081   8.852   6.483
59699SOL    HW180929   0.037   8.778   6.440
59699SOL    HW280930   0.024   8.927   6.466
59700SOL     OW80931   3.409   6.392  14.261
59700SOL    HW180932   3.492   6.397  14.309
59700SOL    HW280933   3.428   6.434  14.177
59701SOL     OW80934   3.788   9.331   8.311
59701SOL    HW180935   3.753   9.372   8.232
59701SOL    HW280936   3.832   9.402   8.357
59702SOL     OW80937   4.161   5.591   3.113
59702SOL    HW180938   4.148   5.671   3.165
59702SOL    HW280939   4.215   5.619   3.039
59703SOL     OW80940   1.969  11.732  11.150
59703SOL    HW180941   1.889  11.780  11.172
59703SOL    HW280942   1.994  11.766  11.064
59704SOL     OW80943   9.727  12.362  12.725
59704SOL    HW180944   9.691  12.411  12.651
59704SOL    HW280945   9.701  12.412  12.802
59705SOL     OW80946   0.498  12.053   8.668
59705SOL    HW180947   0.472  12.142   8.644
59705SOL    HW280948   0.472  11.999   8.594
59706SOL     OW80949   1.444   4.648   0.959
59706SOL    HW180950   1.491   4.565   0.953
59706SOL    HW280951   1.395   4.654   0.877
59707SOL     OW80952  12.661  10.321   9.060
59707SOL    HW180953  12.578  10.305   9.105
59707SOL    HW280954  12.684  10.235   9.023
59708SOL     OW80955   1.515   3.948  14.371
59708SOL    HW180956   1.458   3.917  14.441
59708SOL    HW280957   1.473   3.920  14.290
59709SOL     OW80958   5.536   7.352   5.261
59709SOL    HW180959   5.621   7.342   5.305
59709SOL    HW280960   5.497   7.428   5.304
59710SOL     OW80961   3.747   8.913   3.886
59710SOL    HW180962   3.826   8.946   3.928
59710SOL    HW280963   3.756   8.939   3.794
59711SOL     OW80964   6.827   9.259   4.534
59711SOL    HW180965   6.806   9.166   4.531
59711SOL    HW280966   6.920   9.263   4.511
59712SOL     OW80967   8.392   8.628   2.264
59712SOL    HW180968   8.457   8.633   2.195
59712SOL    HW280969   8.342   8.548   2.245
59713SOL     OW80970  12.514   3.150   3.595
59713SOL    HW180971  12.600   3.109   3.591
59713SOL    HW280972  12.486   3.137   3.685
59714SOL     OW80973   3.729   2.399  13.481
59714SOL    HW180974   3.641   2.361  13.474
59714SOL    HW280975   3.787   2.324  13.480
59715SOL     OW80976   5.378   8.299   4.118
59715SOL    HW180977   5.297   8.318   4.165
59715SOL    HW280978   5.350   8.277   4.029
59716SOL     OW80979   8.749  13.411  13.975
59716SOL    HW180980   8.732  13.396  13.882
59716SOL    HW280981   8.681  13.473  14.002
59717SOL     OW80982   8.004   2.100   9.921
59717SOL    HW180983   7.918   2.141   9.909
59717SOL    HW280984   8.045   2.149   9.992
59718SOL     OW80985  12.935  11.988   1.239
59718SOL    HW180986  12.847  12.021   1.256
59718SOL    HW280987  12.970  11.965   1.325
59719SOL     OW80988  10.949   8.945  11.889
59719SOL    HW180989  10.986   9.008  11.828
59719SOL    HW280990  10.877   8.904  11.841
59720SOL     OW80991   3.896  13.950   8.941
59720SOL    HW180992   3.941  13.868   8.922
59720SOL    HW280993   3.871  13.943   9.033
59721SOL     OW80994   9.804   4.176   1.350
59721SOL    HW180995   9.779   4.239   1.417
59721SOL    HW280996   9.889   4.208   1.318
59722SOL     OW80997  11.800   2.103   2.721
59722SOL    HW180998  11.751   2.179   2.689
59722SOL    HW280999  11.771   2.030   2.666
59723SOL     OW81000   8.660  11.208   4.947
59723SOL    HW181001   8.593  11.187   4.883
59723SOL    HW281002   8.720  11.133   4.944
59724SOL     OW81003   9.340   9.985   9.152
59724SOL    HW181004   9.303   9.963   9.238
59724SOL    HW281005   9.334  10.080   9.147
59725SOL     OW81006  12.320   8.107  10.328
59725SOL    HW181007  12.260   8.051  10.281
59725SOL    HW281008  12.355   8.167  10.262
59726SOL     OW81009   7.469  13.714   6.253
59726SOL    HW181010   7.536  13.645   6.259
59726SOL    HW281011   7.387  13.666   6.244
59727SOL     OW81012   2.960   3.493  11.479
59727SOL    HW181013   3.047   3.521  11.450
59727SOL    HW281014   2.949   3.530  11.566
59728SOL     OW81015   4.872   9.314   1.302
59728SOL    HW181016   4.954   9.360   1.318
59728SOL    HW281017   4.898   9.223   1.284
59729SOL     OW81018   4.526   0.962   8.127
59729SOL    HW181019   4.540   0.954   8.032
59729SOL    HW281020   4.453   0.904   8.146
59730SOL     OW81021   5.325  13.569  11.470
59730SOL    HW181022   5.372  13.552  11.551
59730SOL    HW281023   5.321  13.485  11.425
59731SOL     OW81024   3.911   4.047   2.050
59731SOL    HW181025   3.940   4.099   2.125
59731SOL    HW281026   3.849   4.103   2.004
59732SOL     OW81027   5.863  11.535  12.027
59732SOL    HW181028   5.809  11.597  12.076
59732SOL    HW281029   5.823  11.450  12.044
59733SOL     OW81030  11.036  10.537   3.826
59733SOL    HW181031  11.113  10.544   3.770
59733SOL    HW281032  11.058  10.470   3.890
59734SOL     OW81033  12.320   3.619   4.464
59734SOL    HW181034  12.399   3.566   4.481
59734SOL    HW281035  12.353   3.699   4.424
59735SOL     OW81036   4.393   3.787   5.862
59735SOL    HW181037   4.368   3.876   5.890
59735SOL    HW281038   4.310   3.744   5.844
59736SOL     OW81039   5.276  12.318   7.414
59736SOL    HW181040   5.248  12.369   7.339
59736SOL    HW281041   5.361  12.281   7.389
59737SOL     OW81042   3.053   1.965   5.512
59737SOL    HW181043   2.992   1.894   5.532
59737SOL    HW281044   3.048   2.023   5.588
59738SOL     OW81045   8.164   8.175   3.718
59738SOL    HW181046   8.220   8.252   3.732
59738SOL    HW281047   8.084   8.209   3.680
59739SOL     OW81048  12.763  11.401  10.078
59739SOL    HW181049  12.709  11.374  10.152
59739SOL    HW281050  12.837  11.448  10.117
59740SOL     OW81051   4.012   3.147  11.168
59740SOL    HW181052   3.961   3.081  11.121
59740SOL    HW281053   3.961   3.228  11.158
59741SOL     OW81054   1.614  11.818   6.875
59741SOL    HW181055   1.519  11.826   6.872
59741SOL    HW281056   1.645  11.908   6.888
59742SOL     OW81057   0.288   1.170  12.084
59742SOL    HW181058   0.312   1.240  12.023
59742SOL    HW281059   0.367   1.156  12.136
59743SOL     OW81060   1.497   1.530   9.383
59743SOL    HW181061   1.580   1.543   9.338
59743SOL    HW281062   1.509   1.570   9.469
59744SOL     OW81063  13.102   8.712   6.383
59744SOL    HW181064  13.177   8.654   6.369
59744SOL    HW281065  13.028   8.667   6.342
59745SOL     OW81066   0.708   7.879   9.038
59745SOL    HW181067   0.678   7.958   9.083
59745SOL    HW281068   0.631   7.823   9.034
59746SOL     OW81069   3.947   6.059  11.630
59746SOL    HW181070   4.025   6.084  11.582
59746SOL    HW281071   3.970   6.069  11.722
59747SOL     OW81072   4.953  14.740   3.355
59747SOL    HW181073   4.899  14.792   3.296
59747SOL    HW281074   5.038  14.734   3.311
59748SOL     OW81075   2.073   3.250   8.257
59748SOL    HW181076   1.986   3.287   8.272
59748SOL    HW281077   2.085   3.187   8.328
59749SOL     OW81078   3.096   1.040   2.029
59749SOL    HW181079   3.009   1.043   1.991
59749SOL    HW281080   3.154   1.022   1.955
59750SOL     OW81081   9.503  12.446   0.357
59750SOL    HW181082   9.487  12.387   0.431
59750SOL    HW281083   9.550  12.520   0.396
59751SOL     OW81084   5.172   0.376   9.755
59751SOL    HW181085   5.140   0.460   9.787
59751SOL    HW281086   5.207   0.332   9.832
59752SOL     OW81087   5.263   7.965  13.773
59752SOL    HW181088   5.325   7.892  13.778
59752SOL    HW281089   5.234   7.977  13.864
59753SOL     OW81090  12.991   5.010  12.278
59753SOL    HW181091  12.949   4.969  12.354
59753SOL    HW281092  13.046   5.079  12.315
59754SOL     OW81093   2.905   3.681   6.561
59754SOL    HW181094   2.810   3.672   6.555
59754SOL    HW281095   2.939   3.616   6.499
59755SOL     OW81096  10.810   4.301  13.254
59755SOL    HW181097  10.760   4.310  13.173
59755SOL    HW281098  10.887   4.356  13.240
59756SOL     OW81099   0.562  10.786  12.949
59756SOL    HW181100   0.471  10.790  12.977
59756SOL    HW281101   0.587  10.878  12.937
59757SOL     OW81102  10.779   7.379  14.039
59757SOL    HW181103  10.748   7.418  13.957
59757SOL    HW281104  10.702   7.378  14.095
59758SOL     OW81105   0.843  14.658   5.519
59758SOL    HW181106   0.830  14.711   5.440
59758SOL    HW281107   0.833  14.720   5.591
59759SOL     OW81108   8.874  12.140   0.394
59759SOL    HW181109   8.820  12.211   0.361
59759SOL    HW281110   8.871  12.151   0.489
59760SOL     OW81111   2.350   9.509   0.612
59760SOL    HW181112   2.290   9.540   0.680
59760SOL    HW281113   2.437   9.531   0.646
59761SOL     OW81114  12.203  12.006   7.361
59761SOL    HW181115  12.225  12.005   7.454
59761SOL    HW281116  12.276  12.052   7.319
59762SOL     OW81117  10.619  13.920   4.078
59762SOL    HW181118  10.646  13.882   4.162
59762SOL    HW281119  10.700  13.953   4.039
59763SOL     OW81120  10.784  14.236   5.934
59763SOL    HW181121  10.855  14.178   5.906
59763SOL    HW281122  10.785  14.230   6.030
59764SOL     OW81123   8.843  13.451   0.859
59764SOL    HW181124   8.828  13.410   0.773
59764SOL    HW281125   8.853  13.544   0.839
59765SOL     OW81126   9.468  10.762  13.478
59765SOL    HW181127   9.418  10.700  13.530
59765SOL    HW281128   9.469  10.725  13.390
59766SOL     OW81129   3.198   2.106   2.613
59766SOL    HW181130   3.178   2.037   2.549
59766SOL    HW281131   3.135   2.176   2.592
59767SOL     OW81132   7.187   1.539   7.672
59767SOL    HW181133   7.226   1.481   7.607
59767SOL    HW281134   7.192   1.490   7.754
59768SOL     OW81135   5.226   5.506   5.075
59768SOL    HW181136   5.193   5.468   4.994
59768SOL    HW281137   5.188   5.594   5.078
59769SOL     OW81138   3.785   4.647   2.034
59769SOL    HW181139   3.809   4.597   1.955
59769SOL    HW281140   3.736   4.722   2.001
59770SOL     OW81141   6.517   9.825   0.733
59770SOL    HW181142   6.596   9.874   0.753
59770SOL    HW281143   6.500   9.843   0.640
59771SOL     OW81144   3.941   3.609   2.423
59771SOL    HW181145   3.997   3.591   2.348
59771SOL    HW281146   3.858   3.566   2.402
59772SOL     OW81147   6.623   4.455  14.202
59772SOL    HW181148   6.618   4.427  14.110
59772SOL    HW281149   6.576   4.387  14.250
59773SOL     OW81150   5.336   1.969   9.024
59773SOL    HW181151   5.293   2.009   8.948
59773SOL    HW281152   5.398   1.906   8.986
59774SOL     OW81153   7.311   7.306   5.885
59774SOL    HW181154   7.391   7.353   5.860
59774SOL    HW281155   7.286   7.346   5.969
59775SOL     OW81156  13.411   1.185   8.246
59775SOL    HW181157  13.316   1.184   8.230
59775SOL    HW281158  13.423   1.128   8.321
59776SOL     OW81159  11.588   6.646   4.381
59776SOL    HW181160  11.568   6.734   4.411
59776SOL    HW281161  11.600   6.655   4.286
59777SOL     OW81162   6.007   5.395   0.004
59777SOL    HW181163   5.936   5.457   0.019
59777SOL    HW281164   6.010   5.384  14.785
59778SOL     OW81165   2.007   9.844  13.160
59778SOL    HW181166   2.026   9.924  13.209
59778SOL    HW281167   2.092   9.818  13.124
59779SOL     OW81168   2.735   4.020   1.283
59779SOL    HW181169   2.772   4.082   1.346
59779SOL    HW281170   2.693   3.954   1.338
59780SOL     OW81171   9.170   0.014   5.968
59780SOL    HW181172   9.221   0.004   6.048
59780SOL    HW281173   9.106   0.082   5.988
59781SOL     OW81174   3.161  12.465  12.220
59781SOL    HW181175   3.233  12.489  12.163
59781SOL    HW281176   3.176  12.515  12.301
59782SOL     OW81177  11.828   8.689  12.799
59782SOL    HW181178  11.754   8.693  12.737
59782SOL    HW281179  11.905   8.683  12.742
59783SOL     OW81180   7.224   7.427   6.096
59783SOL    HW181181   7.149   7.484   6.082
59783SOL    HW281182   7.239   7.430   6.191
59784SOL     OW81183   2.746  12.803  14.265
59784SOL    HW181184   2.654  12.781  14.256
59784SOL    HW281185   2.784  12.785  14.179
59785SOL     OW81186  11.927  13.080   8.865
59785SOL    HW181187  11.833  13.065   8.857
59785SOL    HW281188  11.965  13.039   8.788
59786SOL     OW81189   6.735   0.571   0.436
59786SOL    HW181190   6.680   0.593   0.510
59786SOL    HW281191   6.679   0.520   0.377
59787SOL     OW81192   0.443  14.282   2.134
59787SOL    HW181193   0.499  14.255   2.207
59787SOL    HW281194   0.500  14.277   2.057
59788SOL     OW81195   9.623   8.243   8.993
59788SOL    HW181196   9.568   8.167   9.009
59788SOL    HW281197   9.639   8.241   8.899
59789SOL     OW81198   5.806   0.307  11.909
59789SOL    HW181199   5.874   0.373  11.898
59789SOL    HW281200   5.751   0.317  11.831
59790SOL     OW81201   5.106   2.123   3.649
59790SOL    HW181202   5.117   2.178   3.572
59790SOL    HW281203   5.072   2.041   3.616
59791SOL     OW81204  13.094   1.619   0.972
59791SOL    HW181205  13.189   1.605   0.964
59791SOL    HW281206  13.057   1.560   0.906
59792SOL     OW81207  12.613   3.411   1.615
59792SOL    HW181208  12.693   3.392   1.664
59792SOL    HW281209  12.637   3.398   1.523
59793SOL     OW81210   2.857   2.889   9.706
59793SOL    HW181211   2.947   2.909   9.679
59793SOL    HW281212   2.805   2.962   9.672
59794SOL     OW81213  13.121   7.117   0.013
59794SOL    HW181214  13.103   7.023   0.003
59794SOL    HW281215  13.054   7.160  14.836
59795SOL     OW81216   3.536   1.018   1.738
59795SOL    HW181217   3.518   1.108   1.710
59795SOL    HW281218   3.587   0.980   1.667
59796SOL     OW81219   5.412   8.615  14.738
59796SOL    HW181220   5.317   8.610  14.727
59796SOL    HW281221   5.433   8.549  14.804
59797SOL     OW81222   0.239  14.744   1.736
59797SOL    HW181223   0.305  14.812   1.751
59797SOL    HW281224   0.278  14.688   1.669
59798SOL     OW81225   9.253   3.561   0.616
59798SOL    HW181226   9.285   3.488   0.563
59798SOL    HW281227   9.160   3.543   0.629
59799SOL     OW81228   4.575   3.270  11.101
59799SOL    HW181229   4.638   3.233  11.164
59799SOL    HW281230   4.518   3.325  11.154
59800SOL     OW81231  14.266   4.041   3.139
59800SOL    HW181232  14.200   3.974   3.158
59800SOL    HW281233  14.296   4.069   3.226
59801SOL     OW81234   6.500   6.053  13.897
59801SOL    HW181235   6.518   6.051  13.991
59801SOL    HW281236   6.449   5.974  13.880
59802SOL     OW81237   3.460  14.233   5.942
59802SOL    HW181238   3.413  14.255   5.862
59802SOL    HW281239   3.391  14.210   6.005
59803SOL     OW81240  10.628  14.178  14.522
59803SOL    HW181241  10.705  14.174  14.580
59803SOL    HW281242  10.554  14.191  14.581
59804SOL     OW81243   6.800   5.453  14.142
59804SOL    HW181244   6.795   5.428  14.235
59804SOL    HW281245   6.801   5.549  14.144
59805SOL     OW81246   1.648   5.320   2.164
59805SOL    HW181247   1.594   5.275   2.098
59805SOL    HW281248   1.605   5.300   2.247
59806SOL     OW81249  10.728   8.868   1.547
59806SOL    HW181250  10.678   8.887   1.468
59806SOL    HW281251  10.767   8.953   1.572
59807SOL     OW81252  14.161   0.633   5.756
59807SOL    HW181253  14.255   0.649   5.745
59807SOL    HW281254  14.149   0.543   5.725
59808SOL     OW81255  13.258   1.058   0.809
59808SOL    HW181256  13.266   1.098   0.722
59808SOL    HW281257  13.302   1.121   0.868
59809SOL     OW81258   1.835   9.805  13.446
59809SOL    HW181259   1.863   9.814  13.537
59809SOL    HW281260   1.874   9.880  13.401
59810SOL     OW81261  12.477  11.115  12.020
59810SOL    HW181262  12.535  11.135  11.945
59810SOL    HW281263  12.521  11.044  12.066
59811SOL     OW81264  10.735   3.015  14.774
59811SOL    HW181265  10.740   3.060  14.858
59811SOL    HW281266  10.814   3.042  14.727
59812SOL     OW81267  10.383   2.667   9.446
59812SOL    HW181268  10.357   2.757   9.464
59812SOL    HW281269  10.320   2.637   9.380
59813SOL     OW81270   9.257   5.301  14.421
59813SOL    HW181271   9.258   5.375  14.481
59813SOL    HW281272   9.318   5.325  14.352
59814SOL     OW81273   4.135   7.881   8.887
59814SOL    HW181274   4.204   7.835   8.934
59814SOL    HW281275   4.106   7.819   8.821
59815SOL     OW81276  12.142   0.051   5.232
59815SOL    HW181277  12.128   0.096   5.315
59815SOL    HW281278  12.074   0.084   5.174
59816SOL     OW81279  12.652   7.707   9.881
59816SOL    HW181280  12.704   7.629   9.861
59816SOL    HW281281  12.605   7.685   9.961
59817SOL     OW81282   0.359   3.108   7.353
59817SOL    HW181283   0.348   3.070   7.440
59817SOL    HW281284   0.355   3.202   7.368
59818SOL     OW81285   0.518   5.948   1.182
59818SOL    HW181286   0.596   5.982   1.139
59818SOL    HW281287   0.527   5.852   1.176
59819SOL     OW81288  12.497   9.121  14.283
59819SOL    HW181289  12.535   9.192  14.232
59819SOL    HW281290  12.422   9.092  14.232
59820SOL     OW81291  12.442   0.699   3.521
59820SOL    HW181292  12.461   0.742   3.437
59820SOL    HW281293  12.374   0.635   3.500
59821SOL     OW81294   5.045  12.558   3.219
59821SOL    HW181295   5.027  12.464   3.217
59821SOL    HW281296   5.064  12.581   3.128
59822SOL     OW81297  14.445  10.989  14.663
59822SOL    HW181298  14.526  11.014  14.709
59822SOL    HW281299  14.389  10.954  14.732
59823SOL     OW81300   3.920   9.729  12.909
59823SOL    HW181301   3.912   9.639  12.942
59823SOL    HW281302   3.834   9.768  12.924
59824SOL     OW81303  14.821  10.439  13.454
59824SOL    HW181304  14.734  10.477  13.448
59824SOL    HW281305  14.846  10.450  13.546
59825SOL     OW81306   3.112  14.285   3.817
59825SOL    HW181307   3.175  14.226   3.859
59825SOL    HW281308   3.158  14.319   3.740
59826SOL     OW81309  13.775   4.867   4.281
59826SOL    HW181310  13.777   4.895   4.373
59826SOL    HW281311  13.791   4.773   4.284
59827SOL     OW81312  11.994   2.257  14.551
59827SOL    HW181313  11.987   2.162  14.542
59827SOL    HW281314  11.947   2.291  14.474
59828SOL     OW81315   6.066   5.975   3.042
59828SOL    HW181316   6.024   6.047   3.089
59828SOL    HW281317   6.001   5.906   3.040
59829SOL     OW81318   8.586   4.288  11.712
59829SOL    HW181319   8.644   4.282  11.788
59829SOL    HW281320   8.638   4.249  11.641
59830SOL     OW81321   4.765  10.921   7.752
59830SOL    HW181322   4.807  10.931   7.667
59830SOL    HW281323   4.706  10.996   7.759
59831SOL     OW81324   9.477   4.809   4.146
59831SOL    HW181325   9.420   4.841   4.215
59831SOL    HW281326   9.523   4.886   4.114
59832SOL     OW81327  14.250  12.530  10.658
59832SOL    HW181328  14.295  12.445  10.659
59832SOL    HW281329  14.304  12.585  10.602
59833SOL     OW81330  10.211   8.831   4.015
59833SOL    HW181331  10.211   8.927   4.019
59833SOL    HW281332  10.302   8.808   3.994
59834SOL     OW81333   7.428  10.829   1.415
59834SOL    HW181334   7.394  10.796   1.332
59834SOL    HW281335   7.493  10.895   1.391
59835SOL     OW81336  14.419   7.150   8.935
59835SOL    HW181337  14.411   7.132   9.029
59835SOL    HW281338  14.450   7.240   8.931
59836SOL     OW81339   3.304   1.409  11.528
59836SOL    HW181340   3.298   1.319  11.561
59836SOL    HW281341   3.295   1.400  11.433
59837SOL     OW81342   7.020   8.751   7.090
59837SOL    HW181343   7.009   8.701   7.170
59837SOL    HW281344   6.932   8.785   7.070
59838SOL     OW81345   6.103  12.334   2.594
59838SOL    HW181346   6.151  12.303   2.671
59838SOL    HW281347   6.066  12.255   2.555
59839SOL     OW81348   7.042  11.177   5.063
59839SOL    HW181349   7.112  11.242   5.060
59839SOL    HW281350   6.975  11.217   5.118
59840SOL     OW81351  12.568  10.316   1.465
59840SOL    HW181352  12.474  10.330   1.456
59840SOL    HW281353  12.606  10.367   1.394
59841SOL     OW81354   6.568  13.419   0.576
59841SOL    HW181355   6.560  13.481   0.649
59841SOL    HW281356   6.499  13.354   0.592
59842SOL     OW81357  14.706   8.990   3.343
59842SOL    HW181358  14.686   9.039   3.263
59842SOL    HW281359  14.785   8.939   3.322
59843SOL     OW81360  12.724   1.195   6.128
59843SOL    HW181361  12.688   1.253   6.194
59843SOL    HW281362  12.674   1.215   6.049
59844SOL     OW81363  14.803   7.737   6.572
59844SOL    HW181364  14.813   7.825   6.606
59844SOL    HW281365  14.833   7.742   6.481
59845SOL     OW81366   9.937  12.562   0.845
59845SOL    HW181367   9.966  12.526   0.929
59845SOL    HW281368   9.853  12.602   0.864
59846SOL     OW81369  11.112   3.250   9.930
59846SOL    HW181370  11.023   3.217   9.944
59846SOL    HW281371  11.105   3.345   9.936
59847SOL     OW81372  14.020  14.169  14.243
59847SOL    HW181373  14.025  14.237  14.310
59847SOL    HW281374  14.024  14.087  14.291
59848SOL     OW81375   1.300   8.677  12.052
59848SOL    HW181376   1.313   8.673  11.957
59848SOL    HW281377   1.292   8.586  12.079
59849SOL     OW81378   9.202   7.857  11.369
59849SOL    HW181379   9.274   7.919  11.382
59849SOL    HW281380   9.129   7.894  11.418
59850SOL     OW81381   6.249   4.500   0.567
59850SOL    HW181382   6.247   4.573   0.629
59850SOL    HW281383   6.320   4.522   0.506
59851SOL     OW81384   8.046  10.047  14.147
59851SOL    HW181385   7.979  10.008  14.204
59851SOL    HW281386   8.053   9.986  14.074
59852SOL     OW81387   6.621   3.257   9.262
59852SOL    HW181388   6.576   3.177   9.234
59852SOL    HW281389   6.701   3.258   9.210
59853SOL     OW81390   9.314  10.996   4.425
59853SOL    HW181391   9.219  11.003   4.431
59853SOL    HW281392   9.328  10.914   4.378
59854SOL     OW81393  12.466  14.472   6.990
59854SOL    HW181394  12.474  14.411   7.064
59854SOL    HW281395  12.473  14.559   7.029
59855SOL     OW81396   7.525   5.902   0.044
59855SOL    HW181397   7.446   5.885  14.868
59855SOL    HW281398   7.563   5.815   0.059
59856SOL     OW81399  13.740   7.861   7.152
59856SOL    HW181400  13.688   7.780   7.156
59856SOL    HW281401  13.700   7.911   7.081
59857SOL     OW81402   7.221   4.921   5.669
59857SOL    HW181403   7.183   4.936   5.756
59857SOL    HW281404   7.269   4.838   5.678
59858SOL     OW81405   6.532   5.986   6.675
59858SOL    HW181406   6.595   6.054   6.697
59858SOL    HW281407   6.458   6.002   6.734
59859SOL     OW81408   8.052   8.845   5.231
59859SOL    HW181409   8.020   8.888   5.152
59859SOL    HW281410   8.044   8.751   5.212
59860SOL     OW81411  11.040   5.997   2.547
59860SOL    HW181412  10.962   5.949   2.572
59860SOL    HW281413  11.065   5.960   2.462
59861SOL     OW81414  13.049   7.923   9.086
59861SOL    HW181415  13.141   7.945   9.101
59861SOL    HW281416  13.011   7.918   9.174
59862SOL     OW81417   1.391   0.922  13.543
59862SOL    HW181418   1.346   0.838  13.551
59862SOL    HW281419   1.324   0.983  13.511
59863SOL     OW81420   4.758   7.660   4.685
59863SOL    HW181421   4.793   7.574   4.706
59863SOL    HW281422   4.781   7.714   4.760
59864SOL     OW81423  10.851   3.038  14.098
59864SOL    HW181424  10.871   2.995  14.015
59864SOL    HW281425  10.877   3.129  14.084
59865SOL     OW81426   1.466   7.475   6.203
59865SOL    HW181427   1.458   7.417   6.279
59865SOL    HW281428   1.541   7.442   6.155
59866SOL     OW81429   1.169   3.418   2.755
59866SOL    HW181430   1.212   3.472   2.822
59866SOL    HW281431   1.143   3.481   2.687
59867SOL     OW81432  10.657   9.443   7.415
59867SOL    HW181433  10.685   9.487   7.335
59867SOL    HW281434  10.571   9.482   7.435
59868SOL     OW81435  12.975   6.708   7.183
59868SOL    HW181436  13.035   6.706   7.258
59868SOL    HW281437  12.919   6.783   7.199
59869SOL     OW81438  10.414   1.606   6.146
59869SOL    HW181439  10.358   1.608   6.223
59869SOL    HW281440  10.359   1.566   6.078
59870SOL     OW81441   1.064   6.269   9.698
59870SOL    HW181442   1.030   6.339   9.753
59870SOL    HW281443   1.131   6.226   9.751
59871SOL     OW81444   0.413   8.830   4.242
59871SOL    HW181445   0.380   8.825   4.152
59871SOL    HW281446   0.365   8.902   4.281
59872SOL     OW81447   0.246  10.016  10.398
59872SOL    HW181448   0.263  10.104  10.432
59872SOL    HW281449   0.269   9.957  10.471
59873SOL     OW81450   5.466   7.773   8.436
59873SOL    HW181451   5.440   7.699   8.382
59873SOL    HW281452   5.387   7.827   8.443
59874SOL     OW81453   2.786   6.637   3.716
59874SOL    HW181454   2.866   6.688   3.730
59874SOL    HW281455   2.745   6.632   3.802
59875SOL     OW81456   9.811   4.613   8.384
59875SOL    HW181457   9.864   4.691   8.402
59875SOL    HW281458   9.744   4.612   8.452
59876SOL     OW81459   6.413  10.799  12.467
59876SOL    HW181460   6.496  10.786  12.513
59876SOL    HW281461   6.364  10.718  12.485
59877SOL     OW81462   0.080  12.138  13.453
59877SOL    HW181463   0.128  12.162  13.374
59877SOL    HW281464   0.129  12.177  13.525
59878SOL     OW81465   7.009   0.939   1.187
59878SOL    HW181466   6.989   0.883   1.112
59878SOL    HW281467   6.923   0.962   1.224
59879SOL     OW81468   9.055   4.662  11.827
59879SOL    HW181469   9.140   4.626  11.852
59879SOL    HW281470   9.040   4.733  11.890
59880SOL     OW81471   3.684   8.600   6.003
59880SOL    HW181472   3.766   8.558   6.028
59880SOL    HW281473   3.621   8.568   6.068
59881SOL     OW81474   1.421   6.361   5.507
59881SOL    HW181475   1.341   6.328   5.547
59881SOL    HW281476   1.488   6.352   5.575
59882SOL     OW81477  10.069   9.634  13.853
59882SOL    HW181478   9.988   9.679  13.876
59882SOL    HW281479  10.063   9.549  13.897
59883SOL     OW81480  13.857   4.908   2.279
59883SOL    HW181481  13.903   4.979   2.324
59883SOL    HW281482  13.909   4.830   2.299
59884SOL     OW81483   8.160   3.226  14.869
59884SOL    HW181484   8.186   3.196  14.781
59884SOL    HW281485   8.230   3.285   0.021
59885SOL     OW81486   1.519   7.302   8.958
59885SOL    HW181487   1.518   7.398   8.960
59885SOL    HW281488   1.599   7.279   9.006
59886SOL     OW81489   1.230   4.255   8.489
59886SOL    HW181490   1.253   4.259   8.582
59886SOL    HW281491   1.294   4.313   8.447
59887SOL     OW81492   0.814   7.398  10.721
59887SOL    HW181493   0.811   7.315  10.768
59887SOL    HW281494   0.894   7.393  10.668
59888SOL     OW81495   9.534  13.367   3.953
59888SOL    HW181496   9.527  13.406   3.866
59888SOL    HW281497   9.607  13.414   3.995
59889SOL     OW81498   3.357   6.084   7.613
59889SOL    HW181499   3.291   6.107   7.547
59889SOL    HW281500   3.439   6.079   7.564
59890SOL     OW81501   0.453   3.071   6.049
59890SOL    HW181502   0.408   3.141   6.095
59890SOL    HW281503   0.383   3.016   6.013
59891SOL     OW81504  10.009   3.520   7.381
59891SOL    HW181505   9.991   3.435   7.423
59891SOL    HW281506  10.028   3.579   7.454
59892SOL     OW81507   9.739  14.734  11.426
59892SOL    HW181508   9.710  14.663  11.369
59892SOL    HW281509   9.743  14.694  11.513
59893SOL     OW81510   1.373   2.650   0.926
59893SOL    HW181511   1.317   2.598   0.984
59893SOL    HW281512   1.329   2.736   0.921
59894SOL     OW81513   4.038   5.557   8.546
59894SOL    HW181514   3.980   5.586   8.617
59894SOL    HW281515   4.125   5.554   8.586
59895SOL     OW81516  12.272  14.049  12.879
59895SOL    HW181517  12.349  14.049  12.822
59895SOL    HW281518  12.287  13.975  12.939
59896SOL     OW81519   1.413   7.490  11.767
59896SOL    HW181520   1.415   7.398  11.741
59896SOL    HW281521   1.423   7.538  11.685
59897SOL     OW81522   3.920   9.765   0.575
59897SOL    HW181523   3.992   9.825   0.591
59897SOL    HW281524   3.865   9.811   0.511
59898SOL     OW81525  14.619   1.701   9.886
59898SOL    HW181526  14.638   1.763   9.956
59898SOL    HW281527  14.602   1.618   9.931
59899SOL     OW81528   1.362   1.322   7.872
59899SOL    HW181529   1.438   1.284   7.827
59899SOL    HW281530   1.303   1.248   7.885
59900SOL     OW81531  12.637   4.175   9.333
59900SOL    HW181532  12.662   4.094   9.289
59900SOL    HW281533  12.616   4.149   9.423
59901SOL     OW81534  11.910   2.386   3.485
59901SOL    HW181535  11.887   2.477   3.466
59901SOL    HW281536  11.830   2.348   3.521
59902SOL     OW81537   5.953   1.725   9.574
59902SOL    HW181538   5.943   1.817   9.599
59902SOL    HW281539   5.993   1.684   9.651
59903SOL     OW81540  11.596  10.930   2.184
59903SOL    HW181541  11.537  10.899   2.116
59903SOL    HW281542  11.613  11.022   2.162
59904SOL     OW81543   5.712  12.801   0.689
59904SOL    HW181544   5.671  12.718   0.665
59904SOL    HW281545   5.806  12.781   0.690
59905SOL     OW81546  12.555   4.055   8.868
59905SOL    HW181547  12.541   3.969   8.828
59905SOL    HW281548  12.467   4.089   8.884
59906SOL     OW81549   3.843   1.117  10.606
59906SOL    HW181550   3.800   1.153  10.528
59906SOL    HW281551   3.833   1.186  10.672
59907SOL     OW81552   4.758  12.512   3.644
59907SOL    HW181553   4.792  12.559   3.720
59907SOL    HW281554   4.746  12.422   3.675
59908SOL     OW81555   0.452   7.513   3.780
59908SOL    HW181556   0.525   7.552   3.827
59908SOL    HW281557   0.374   7.544   3.827
59909SOL     OW81558  11.068   8.676  11.575
59909SOL    HW181559  10.979   8.703  11.552
59909SOL    HW281560  11.124   8.730  11.519
59910SOL     OW81561   2.651   2.475   6.764
59910SOL    HW181562   2.663   2.499   6.672
59910SOL    HW281563   2.680   2.551   6.813
59911SOL     OW81564  13.141   3.411   8.797
59911SOL    HW181565  13.069   3.467   8.766
59911SOL    HW281566  13.106   3.322   8.791
59912SOL     OW81567   8.638  10.128  12.906
59912SOL    HW181568   8.677  10.197  12.960
59912SOL    HW281569   8.544  10.148  12.905
59913SOL     OW81570   5.076  14.082   2.766
59913SOL    HW181571   5.070  14.159   2.822
59913SOL    HW281572   4.985  14.063   2.742
59914SOL     OW81573   8.905  11.418   8.578
59914SOL    HW181574   8.992  11.379   8.564
59914SOL    HW281575   8.860  11.408   8.494
59915SOL     OW81576  12.249   5.247  14.423
59915SOL    HW181577  12.296   5.212  14.499
59915SOL    HW281578  12.223   5.335  14.450
59916SOL     OW81579   1.971  14.187   4.135
59916SOL    HW181580   1.917  14.172   4.058
59916SOL    HW281581   2.005  14.101   4.158
59917SOL     OW81582   5.116   4.446   3.155
59917SOL    HW181583   5.148   4.535   3.139
59917SOL    HW281584   5.193   4.399   3.186
59918SOL     OW81585  12.101   3.015  12.097
59918SOL    HW181586  12.039   2.951  12.131
59918SOL    HW281587  12.049   3.073  12.042
59919SOL     OW81588  14.161  13.148   9.062
59919SOL    HW181589  14.080  13.157   9.013
59919SOL    HW281590  14.193  13.237   9.072
59920SOL     OW81591  12.154   5.688  13.893
59920SOL    HW181592  12.221   5.663  13.830
59920SOL    HW281593  12.134   5.780  13.872
59921SOL     OW81594   2.997   0.274  10.653
59921SOL    HW181595   2.982   0.343  10.588
59921SOL    HW281596   3.070   0.223  10.617
59922SOL     OW81597   2.030   1.915  14.284
59922SOL    HW181598   1.966   1.844  14.287
59922SOL    HW281599   2.111   1.876  14.318
59923SOL     OW81600  10.617  11.595   8.273
59923SOL    HW181601  10.590  11.505   8.251
59923SOL    HW281602  10.569  11.650   8.210
59924SOL     OW81603   5.987   4.549   5.954
59924SOL    HW181604   5.932   4.604   5.898
59924SOL    HW281605   5.925   4.504   6.012
59925SOL     OW81606   7.049   9.583   2.913
59925SOL    HW181607   7.060   9.614   2.823
59925SOL    HW281608   7.110   9.637   2.964
59926SOL     OW81609   3.200   2.112  10.069
59926SOL    HW181610   3.261   2.185  10.077
59926SOL    HW281611   3.204   2.067  10.153
59927SOL     OW81612   0.347   4.456   3.957
59927SOL    HW181613   0.407   4.384   3.940
59927SOL    HW281614   0.386   4.530   3.910
59928SOL     OW81615   6.451  10.164   0.647
59928SOL    HW181616   6.370  10.114   0.635
59928SOL    HW281617   6.453  10.184   0.740
59929SOL     OW81618  14.269   4.865  14.009
59929SOL    HW181619  14.185   4.905  13.986
59929SOL    HW281620  14.325   4.938  14.034
59930SOL     OW81621   7.498   7.029   9.174
59930SOL    HW181622   7.527   7.028   9.083
59930SOL    HW281623   7.575   7.059   9.223
59931SOL     OW81624   7.591   1.403   7.194
59931SOL    HW181625   7.644   1.429   7.270
59931SOL    HW281626   7.619   1.314   7.174
59932SOL     OW81627   7.862   3.430  10.817
59932SOL    HW181628   7.843   3.487  10.891
59932SOL    HW281629   7.825   3.345  10.842
59933SOL     OW81630   4.512  13.540  14.201
59933SOL    HW181631   4.514  13.444  14.194
59933SOL    HW281632   4.476  13.570  14.118
59934SOL     OW81633   9.685   0.307  10.815
59934SOL    HW181634   9.694   0.401  10.828
59934SOL    HW281635   9.691   0.269  10.902
59935SOL     OW81636  13.791  11.055   4.803
59935SOL    HW181637  13.748  11.039   4.719
59935SOL    HW281638  13.848  11.130   4.786
59936SOL     OW81639   0.970   8.162   4.935
59936SOL    HW181640   0.958   8.125   5.022
59936SOL    HW281641   1.049   8.216   4.942
59937SOL     OW81642  14.455   8.013   8.440
59937SOL    HW181643  14.381   8.069   8.461
59937SOL    HW281644  14.427   7.925   8.463
59938SOL     OW81645   4.051  12.708   2.347
59938SOL    HW181646   3.983  12.654   2.388
59938SOL    HW281647   4.105  12.739   2.419
59939SOL     OW81648   2.270  14.103  10.727
59939SOL    HW181649   2.266  14.030  10.664
59939SOL    HW281650   2.300  14.177  10.675
59940SOL     OW81651   1.254   1.530  11.335
59940SOL    HW181652   1.168   1.525  11.376
59940SOL    HW281653   1.289   1.614  11.363
59941SOL     OW81654   6.681   2.938  10.964
59941SOL    HW181655   6.740   2.943  11.039
59941SOL    HW281656   6.613   2.876  10.990
59942SOL     OW81657   1.577   0.306   0.923
59942SOL    HW181658   1.617   0.385   0.959
59942SOL    HW281659   1.487   0.332   0.902
59943SOL     OW81660   8.671  14.617  11.410
59943SOL    HW181661   8.743  14.680  11.412
59943SOL    HW281662   8.635  14.626  11.322
59944SOL     OW81663  11.989   0.435   3.689
59944SOL    HW181664  11.997   0.528   3.668
59944SOL    HW281665  12.000   0.431   3.784
59945SOL     OW81666   1.577   1.852   4.230
59945SOL    HW181667   1.673   1.850   4.236
59945SOL    HW281668   1.551   1.761   4.245
59946SOL     OW81669  14.219   9.334   5.928
59946SOL    HW181670  14.248   9.424   5.915
59946SOL    HW281671  14.154   9.340   5.998
59947SOL     OW81672   0.060   5.658  13.022
59947SOL    HW181673  14.874   5.714  13.069
59947SOL    HW281674   0.143   5.670  13.068
59948SOL     OW81675  11.502   6.804   6.504
59948SOL    HW181676  11.511   6.712   6.529
59948SOL    HW281677  11.407   6.819   6.502
59949SOL     OW81678   9.120   9.372   9.336
59949SOL    HW181679   9.136   9.306   9.269
59949SOL    HW281680   9.206   9.394   9.370
59950SOL     OW81681   4.179  13.506  14.417
59950SOL    HW181682   4.168  13.598  14.394
59950SOL    HW281683   4.273  13.497  14.434
59951SOL     OW81684   7.823  14.337   7.840
59951SOL    HW181685   7.829  14.348   7.935
59951SOL    HW281686   7.913  14.342   7.809
59952SOL     OW81687   4.327  12.727   9.579
59952SOL    HW181688   4.412  12.703   9.616
59952SOL    HW281689   4.296  12.648   9.536
59953SOL     OW81690   5.151  13.638   2.483
59953SOL    HW181691   5.155  13.679   2.570
59953SOL    HW281692   5.219  13.682   2.432
59954SOL     OW81693   6.263  11.795   2.553
59954SOL    HW181694   6.249  11.797   2.647
59954SOL    HW281695   6.260  11.702   2.530
59955SOL     OW81696  11.776   9.646   3.418
59955SOL    HW181697  11.756   9.736   3.390
59955SOL    HW281698  11.859   9.626   3.376
59956SOL     OW81699   6.257   3.267   4.774
59956SOL    HW181700   6.179   3.270   4.829
59956SOL    HW281701   6.296   3.181   4.792
59957SOL     OW81702   4.581   3.321  10.555
59957SOL    HW181703   4.604   3.328  10.648
59957SOL    HW281704   4.640   3.255  10.520
59958SOL     OW81705   9.484  13.165   0.146
59958SOL    HW181706   9.563  13.114   0.128
59958SOL    HW281707   9.417  13.123   0.092
59959SOL     OW81708   6.850   3.427   7.488
59959SOL    HW181709   6.839   3.332   7.492
59959SOL    HW281710   6.943   3.442   7.504
59960SOL     OW81711   1.661  13.160   3.524
59960SOL    HW181712   1.706  13.157   3.440
59960SOL    HW281713   1.728  13.137   3.588
59961SOL     OW81714   3.412  11.704   7.213
59961SOL    HW181715   3.336  11.756   7.238
59961SOL    HW281716   3.387  11.662   7.131
59962SOL     OW81717   8.301  10.856   8.880
59962SOL    HW181718   8.302  10.760   8.874
59962SOL    HW281719   8.232  10.875   8.943
59963SOL     OW81720   4.944  12.345   1.443
59963SOL    HW181721   4.992  12.384   1.516
59963SOL    HW281722   4.995  12.267   1.421
59964SOL     OW81723  14.012   8.265   8.266
59964SOL    HW181724  13.976   8.177   8.266
59964SOL    HW281725  14.098   8.256   8.308
59965SOL     OW81726   7.508   6.102  11.605
59965SOL    HW181727   7.420   6.067  11.601
59965SOL    HW281728   7.526   6.135  11.517
59966SOL     OW81729   9.789  10.674   6.322
59966SOL    HW181730   9.766  10.684   6.415
59966SOL    HW281731   9.882  10.652   6.322
59967SOL     OW81732   0.505   0.465   8.422
59967SOL    HW181733   0.470   0.554   8.430
59967SOL    HW281734   0.488   0.442   8.330
59968SOL     OW81735   6.494  13.516   4.114
59968SOL    HW181736   6.576  13.551   4.150
59968SOL    HW281737   6.425  13.565   4.159
59969SOL     OW81738   9.384   6.666   2.095
59969SOL    HW181739   9.389   6.587   2.150
59969SOL    HW281740   9.319   6.721   2.138
59970SOL     OW81741  13.174   1.997  11.955
59970SOL    HW181742  13.106   2.063  11.965
59970SOL    HW281743  13.243   2.024  12.015
59971SOL     OW81744  13.197   7.707   0.697
59971SOL    HW181745  13.205   7.641   0.629
59971SOL    HW281746  13.258   7.680   0.765
59972SOL     OW81747   6.781   2.635   8.295
59972SOL    HW181748   6.700   2.665   8.254
59972SOL    HW281749   6.773   2.540   8.298
59973SOL     OW81750   3.993  10.048   5.308
59973SOL    HW181751   3.970   9.971   5.359
59973SOL    HW281752   4.086  10.063   5.327
59974SOL     OW81753   8.945  14.558   1.052
59974SOL    HW181754   8.924  14.612   1.128
59974SOL    HW281755   8.885  14.589   0.984
59975SOL     OW81756   2.932   4.303   1.486
59975SOL    HW181757   2.979   4.237   1.537
59975SOL    HW281758   2.983   4.312   1.405
59976SOL     OW81759   8.916  14.043  13.319
59976SOL    HW181760   8.949  14.106  13.383
59976SOL    HW281761   8.931  13.957  13.359
59977SOL     OW81762  12.852   7.252   0.729
59977SOL    HW181763  12.844   7.158   0.746
59977SOL    HW281764  12.919   7.258   0.661
59978SOL     OW81765  10.500  11.454   6.714
59978SOL    HW181766  10.417  11.419   6.748
59978SOL    HW281767  10.511  11.410   6.629
59979SOL     OW81768  12.643   6.910  10.918
59979SOL    HW181769  12.584   6.980  10.947
59979SOL    HW281770  12.627   6.839  10.979
59980SOL     OW81771  12.517   4.424   3.883
59980SOL    HW181772  12.434   4.385   3.857
59980SOL    HW281773  12.502   4.518   3.879
59981SOL     OW81774   6.580   1.554   7.127
59981SOL    HW181775   6.508   1.492   7.139
59981SOL    HW281776   6.540   1.628   7.082
59982SOL     OW81777  11.969  13.431  12.543
59982SOL    HW181778  11.933  13.359  12.492
59982SOL    HW281779  11.893  13.470  12.586
59983SOL     OW81780   0.177   2.624   3.695
59983SOL    HW181781   0.130   2.593   3.619
59983SOL    HW281782   0.260   2.575   3.694
59984SOL     OW81783   2.333   9.777   5.311
59984SOL    HW181784   2.292   9.821   5.236
59984SOL    HW281785   2.290   9.691   5.315
59985SOL     OW81786   1.135   3.192  12.566
59985SOL    HW181787   1.045   3.173  12.591
59985SOL    HW281788   1.184   3.114  12.592
59986SOL     OW81789   0.211   1.594  14.480
59986SOL    HW181790   0.145   1.580  14.412
59986SOL    HW281791   0.272   1.521  14.470
59987SOL     OW81792   4.018  13.346  14.573
59987SOL    HW181793   4.008  13.261  14.529
59987SOL    HW281794   4.063  13.401  14.510
59988SOL     OW81795  14.215   2.568   0.539
59988SOL    HW181796  14.191   2.490   0.589
59988SOL    HW281797  14.285   2.609   0.591
59989SOL     OW81798   8.661  14.729  13.769
59989SOL    HW181799   8.744  14.770  13.796
59989SOL    HW281800   8.688  14.658  13.710
59990SOL     OW81801   3.552   1.992  11.354
59990SOL    HW181802   3.581   1.906  11.383
59990SOL    HW281803   3.522   2.035  11.434
59991SOL     OW81804   9.541   3.174   9.907
59991SOL    HW181805   9.567   3.095   9.955
59991SOL    HW281806   9.453   3.155   9.874
59992SOL     OW81807  14.594  14.563   5.249
59992SOL    HW181808  14.500  14.545   5.247
59992SOL    HW281809  14.602  14.638   5.308
59993SOL     OW81810  12.567   8.735   1.203
59993SOL    HW181811  12.646   8.782   1.176
59993SOL    HW281812  12.542   8.684   1.127
59994SOL     OW81813  13.715   3.397   6.157
59994SOL    HW181814  13.807   3.387   6.133
59994SOL    HW281815  13.666   3.367   6.080
59995SOL     OW81816   7.437  14.826  11.644
59995SOL    HW181817   7.379  14.810  11.719
59995SOL    HW281818   7.498   0.016  11.676
59996SOL     OW81819  14.247   8.014   8.848
59996SOL    HW181820  14.296   8.094   8.829
59996SOL    HW281821  14.254   8.004   8.943
59997SOL     OW81822   4.917   4.387   2.765
59997SOL    HW181823   4.900   4.379   2.671
59997SOL    HW281824   4.986   4.453   2.771
59998SOL     OW81825   7.035  11.125   2.524
59998SOL    HW181826   7.084  11.082   2.454
59998SOL    HW281827   7.034  11.218   2.498
59999SOL     OW81828   1.052  13.495   2.222
59999SOL    HW181829   1.136  13.537   2.202
59999SOL    HW281830   1.044  13.427   2.155
60000SOL     OW81831  11.853  14.066  14.109
60000SOL    HW181832  11.895  14.106  14.185
60000SOL    HW281833  11.777  14.020  14.145
60001SOL     OW81834  14.831   0.892  10.320
60001SOL    HW181835  14.791   0.977  10.336
60001SOL    HW281836  14.820   0.844  10.403
60002SOL     OW81837   7.895   6.005   3.015
60002SOL    HW181838   7.840   5.972   2.944
60002SOL    HW281839   7.903   5.931   3.074
60003SOL     OW81840   9.665  11.617   3.051
60003SOL    HW181841   9.748  11.654   3.021
60003SOL    HW281842   9.690  11.560   3.124
60004SOL     OW81843  14.236   1.691   9.049
60004SOL    HW181844  14.224   1.660   8.959
60004SOL    HW281845  14.189   1.628   9.103
60005SOL     OW81846  11.867  12.913   8.275
60005SOL    HW181847  11.836  12.962   8.351
60005SOL    HW281848  11.788  12.892   8.225
60006SOL     OW81849  13.952   6.613   4.818
60006SOL    HW181850  14.045   6.588   4.818
60006SOL    HW281851  13.950   6.694   4.869
60007SOL     OW81852   2.082   1.434   8.551
60007SOL    HW181853   2.003   1.387   8.524
60007SOL    HW281854   2.150   1.367   8.557
60008SOL     OW81855  12.965   2.571   2.409
60008SOL    HW181856  12.926   2.534   2.329
60008SOL    HW281857  13.007   2.652   2.380
60009SOL     OW81858   6.659  10.790   2.336
60009SOL    HW181859   6.686  10.877   2.363
60009SOL    HW281860   6.641  10.744   2.418
60010SOL     OW81861   5.730   1.597  13.939
60010SOL    HW181862   5.799   1.532  13.931
60010SOL    HW281863   5.650   1.551  13.915
60011SOL     OW81864   5.056  10.671   5.783
60011SOL    HW181865   4.979  10.692   5.836
60011SOL    HW281866   5.098  10.599   5.830
60012SOL     OW81867   4.773  10.129   5.428
60012SOL    HW181868   4.731  10.201   5.474
60012SOL    HW281869   4.853  10.112   5.478
60013SOL     OW81870   5.979  10.341   3.644
60013SOL    HW181871   5.914  10.273   3.663
60013SOL    HW281872   6.062  10.302   3.668
60014SOL     OW81873   8.524  10.091   5.174
60014SOL    HW181874   8.524  10.136   5.089
60014SOL    HW281875   8.493  10.157   5.236
60015SOL     OW81876   5.131  11.927  12.515
60015SOL    HW181877   5.159  11.935  12.606
60015SOL    HW281878   5.135  11.833  12.497
60016SOL     OW81879   5.135   9.761   0.239
60016SOL    HW181880   5.151   9.832   0.301
60016SOL    HW281881   5.208   9.701   0.253
60017SOL     OW81882   4.217   3.161   7.153
60017SOL    HW181883   4.257   3.247   7.143
60017SOL    HW281884   4.291   3.103   7.174
60018SOL     OW81885  11.849   5.681   0.373
60018SOL    HW181886  11.888   5.736   0.305
60018SOL    HW281887  11.785   5.738   0.416
60019SOL     OW81888   9.332   1.535   4.165
60019SOL    HW181889   9.258   1.479   4.140
60019SOL    HW281890   9.405   1.504   4.112
60020SOL     OW81891  13.249   9.188  10.798
60020SOL    HW181892  13.225   9.279  10.780
60020SOL    HW281893  13.331   9.175  10.751
60021SOL     OW81894   8.063  12.255   0.820
60021SOL    HW181895   7.982  12.210   0.843
60021SOL    HW281896   8.035  12.337   0.780
60022SOL     OW81897   7.426   8.510   9.103
60022SOL    HW181898   7.358   8.557   9.054
60022SOL    HW281899   7.478   8.466   9.036
60023SOL     OW81900   6.481  10.134   2.354
60023SOL    HW181901   6.416  10.111   2.288
60023SOL    HW281902   6.439  10.114   2.437
60024SOL     OW81903   1.495   0.175   1.615
60024SOL    HW181904   1.419   0.222   1.650
60024SOL    HW281905   1.500   0.202   1.523
60025SOL     OW81906   1.136   4.494   9.971
60025SOL    HW181907   1.154   4.505  10.064
60025SOL    HW281908   1.098   4.407   9.964
60026SOL     OW81909   3.279  11.407   1.742
60026SOL    HW181910   3.201  11.433   1.790
60026SOL    HW281911   3.249  11.336   1.685
60027SOL     OW81912  10.537   0.390   5.225
60027SOL    HW181913  10.564   0.389   5.133
60027SOL    HW281914  10.478   0.465   5.231
60028SOL     OW81915  12.556  11.551   3.276
60028SOL    HW181916  12.626  11.614   3.260
60028SOL    HW281917  12.494  11.598   3.331
60029SOL     OW81918  11.025   1.834   8.520
60029SOL    HW181919  10.988   1.916   8.487
60029SOL    HW281920  11.054   1.856   8.609
60030SOL     OW81921   1.704   3.608  11.405
60030SOL    HW181922   1.685   3.514  11.410
60030SOL    HW281923   1.620   3.650  11.426
60031SOL     OW81924   3.698   9.172   0.986
60031SOL    HW181925   3.693   9.150   0.892
60031SOL    HW281926   3.765   9.240   0.991
60032SOL     OW81927   7.480  12.345   4.269
60032SOL    HW181928   7.414  12.413   4.281
60032SOL    HW281929   7.514  12.359   4.181
60033SOL     OW81930   3.982  13.490  12.380
60033SOL    HW181931   3.897  13.526  12.355
60033SOL    HW281932   4.012  13.443  12.302
60034SOL     OW81933   1.293   9.290   4.009
60034SOL    HW181934   1.308   9.367   3.954
60034SOL    HW281935   1.372   9.283   4.061
60035SOL     OW81936  12.594  11.396  10.352
60035SOL    HW181937  12.557  11.446  10.425
60035SOL    HW281938  12.518  11.363  10.304
60036SOL     OW81939   6.082   6.125  12.122
60036SOL    HW181940   6.034   6.043  12.136
60036SOL    HW281941   6.149   6.102  12.058
60037SOL     OW81942   9.602   0.707   0.586
60037SOL    HW181943   9.654   0.777   0.547
60037SOL    HW281944   9.666   0.638   0.606
60038SOL     OW81945  10.993   5.036   9.254
60038SOL    HW181946  10.994   5.131   9.242
60038SOL    HW281947  11.009   5.023   9.347
60039SOL     OW81948  12.335  13.955   7.239
60039SOL    HW181949  12.363  13.927   7.326
60039SOL    HW281950  12.409  13.933   7.182
60040SOL     OW81951   2.342   4.095   9.368
60040SOL    HW181952   2.328   4.035   9.294
60040SOL    HW281953   2.395   4.045   9.430
60041SOL     OW81954   4.715  14.190   8.827
60041SOL    HW181955   4.803  14.183   8.865
60041SOL    HW281956   4.704  14.110   8.776
60042SOL     OW81957  10.876   8.513   3.519
60042SOL    HW181958  10.959   8.555   3.542
60042SOL    HW281959  10.830   8.503   3.602
60043SOL     OW81960  10.290  11.344   2.076
60043SOL    HW181961  10.210  11.309   2.117
60043SOL    HW281962  10.259  11.417   2.023
60044SOL     OW81963  14.289   4.161   7.738
60044SOL    HW181964  14.360   4.214   7.702
60044SOL    HW281965  14.210   4.200   7.702
60045SOL     OW81966   0.580   7.049   1.213
60045SOL    HW181967   0.657   7.021   1.263
60045SOL    HW281968   0.524   6.972   1.210
60046SOL     OW81969  10.049   1.426   4.856
60046SOL    HW181970  10.111   1.406   4.786
60046SOL    HW281971   9.963   1.407   4.819
60047SOL     OW81972  11.893   5.617   8.085
60047SOL    HW181973  11.929   5.613   7.996
60047SOL    HW281974  11.962   5.579   8.140
60048SOL     OW81975   4.810  11.630  14.561
60048SOL    HW181976   4.716  11.626  14.576
60048SOL    HW281977   4.846  11.559  14.614
60049SOL     OW81978   7.146   7.902   1.248
60049SOL    HW181979   7.195   7.965   1.195
60049SOL    HW281980   7.062   7.946   1.266
60050SOL     OW81981   1.035   6.826   0.821
60050SOL    HW181982   1.038   6.738   0.785
60050SOL    HW281983   1.084   6.880   0.758
60051SOL     OW81984   0.529  12.294   2.212
60051SOL    HW181985   0.614  12.301   2.168
60051SOL    HW281986   0.481  12.230   2.159
60052SOL     OW81987   3.612   6.472   9.726
60052SOL    HW181988   3.700   6.453   9.693
60052SOL    HW281989   3.607   6.427   9.810
60053SOL     OW81990   3.284   9.442  13.511
60053SOL    HW181991   3.280   9.441  13.415
60053SOL    HW281992   3.364   9.394  13.532
60054SOL     OW81993  13.258   5.513   7.499
60054SOL    HW181994  13.169   5.538   7.522
60054SOL    HW281995  13.292   5.468   7.576
60055SOL     OW81996   7.629   5.538   4.209
60055SOL    HW181997   7.640   5.542   4.304
60055SOL    HW281998   7.539   5.509   4.197
60056SOL     OW81999   0.441  12.359   0.550
60056SOL    HW182000   0.421  12.284   0.606
60056SOL    HW282001   0.533  12.378   0.567
60057SOL     OW82002   6.265  13.206  11.519
60057SOL    HW182003   6.171  13.223  11.532
60057SOL    HW282004   6.304  13.292  11.508
60058SOL     OW82005   4.457  10.468   9.112
60058SOL    HW182006   4.474  10.513   9.029
60058SOL    HW282007   4.506  10.518   9.177
60059SOL     OW82008   1.962   3.498   3.775
60059SOL    HW182009   1.989   3.525   3.863
60059SOL    HW282010   1.947   3.579   3.728
60060SOL     OW82011   4.104   3.816  11.843
60060SOL    HW182012   4.143   3.898  11.874
60060SOL    HW282013   4.107   3.822  11.747
60061SOL     OW82014  13.763   9.004   6.853
60061SOL    HW182015  13.690   8.980   6.910
60061SOL    HW282016  13.834   8.946   6.880
60062SOL     OW82017  10.981   7.998   5.562
60062SOL    HW182018  10.915   8.032   5.623
60062SOL    HW282019  11.044   8.069   5.553
60063SOL     OW82020   8.804  13.330   8.933
60063SOL    HW182021   8.885  13.316   8.883
60063SOL    HW282022   8.806  13.264   9.002
60064SOL     OW82023   5.150   5.125   8.891
60064SOL    HW182024   5.200   5.161   8.818
60064SOL    HW282025   5.096   5.056   8.852
60065SOL     OW82026   9.384   7.180   5.231
60065SOL    HW182027   9.332   7.260   5.226
60065SOL    HW282028   9.327   7.118   5.278
60066SOL     OW82029   2.740   1.723   4.134
60066SOL    HW182030   2.662   1.765   4.170
60066SOL    HW282031   2.776   1.674   4.208
60067SOL     OW82032   1.767   8.874  13.502
60067SOL    HW182033   1.815   8.793  13.484
60067SOL    HW282034   1.764   8.879  13.598
60068SOL     OW82035  14.456   1.065   7.356
60068SOL    HW182036  14.419   1.066   7.268
60068SOL    HW282037  14.430   1.149   7.393
60069SOL     OW82038   1.342   0.443   0.887
60069SOL    HW182039   1.247   0.457   0.882
60069SOL    HW282040   1.375   0.476   0.804
60070SOL     OW82041  12.749   3.140   1.499
60070SOL    HW182042  12.831   3.096   1.518
60070SOL    HW282043  12.756   3.164   1.406
60071SOL     OW82044   7.045  13.274  13.484
60071SOL    HW182045   6.962  13.314  13.511
60071SOL    HW282046   7.092  13.259  13.566
60072SOL     OW82047   4.617   8.781   2.563
60072SOL    HW182048   4.691   8.754   2.617
60072SOL    HW282049   4.573   8.849   2.614
60073SOL     OW82050   6.257   6.658  13.824
60073SOL    HW182051   6.163   6.652  13.808
60073SOL    HW282052   6.297   6.596  13.763
60074SOL     OW82053   5.185  10.408   7.357
60074SOL    HW182054   5.232  10.373   7.433
60074SOL    HW282055   5.093  10.396   7.377
60075SOL     OW82056   3.893   8.715   5.051
60075SOL    HW182057   3.988   8.721   5.067
60075SOL    HW282058   3.875   8.786   4.989
60076SOL     OW82059   5.284   7.367   2.445
60076SOL    HW182060   5.258   7.399   2.359
60076SOL    HW282061   5.273   7.272   2.440
60077SOL     OW82062   2.330   9.101   7.858
60077SOL    HW182063   2.422   9.081   7.838
60077SOL    HW282064   2.312   9.181   7.808
60078SOL     OW82065   7.811   2.032   8.350
60078SOL    HW182066   7.902   2.062   8.350
60078SOL    HW282067   7.812   1.954   8.294
60079SOL     OW82068   1.776   8.884   2.227
60079SOL    HW182069   1.861   8.903   2.189
60079SOL    HW282070   1.750   8.800   2.189
60080SOL     OW82071   6.503  13.787   5.749
60080SOL    HW182072   6.544  13.713   5.704
60080SOL    HW282073   6.529  13.777   5.840
60081SOL     OW82074   4.922   3.764  11.494
60081SOL    HW182075   4.946   3.694  11.433
60081SOL    HW282076   4.846   3.729  11.541
60082SOL     OW82077   9.360   5.621  14.771
60082SOL    HW182078   9.372   5.588  14.860
60082SOL    HW282079   9.358   5.716  14.781
60083SOL     OW82080  14.260  13.197   4.222
60083SOL    HW182081  14.171  13.233   4.215
60083SOL    HW282082  14.317  13.272   4.205
60084SOL     OW82083   3.820  13.908   2.750
60084SOL    HW182084   3.821  14.000   2.722
60084SOL    HW282085   3.819  13.858   2.669
60085SOL     OW82086   2.019  14.227  13.782
60085SOL    HW182087   2.000  14.183  13.699
60085SOL    HW282088   1.947  14.203  13.840
60086SOL     OW82089   7.512   9.611   9.171
60086SOL    HW182090   7.529   9.517   9.167
60086SOL    HW282091   7.586   9.647   9.219
60087SOL     OW82092   1.705   9.883   8.579
60087SOL    HW182093   1.740   9.959   8.627
60087SOL    HW282094   1.678   9.822   8.647
60088SOL     OW82095   7.614  14.760   0.042
60088SOL    HW182096   7.528  14.764  14.876
60088SOL    HW282097   7.667  14.707  14.858
60089SOL     OW82098   8.864   8.135   7.085
60089SOL    HW182099   8.872   8.138   7.180
60089SOL    HW282100   8.812   8.057   7.067
60090SOL     OW82101  12.389  13.201  12.777
60090SOL    HW182102  12.444  13.279  12.782
60090SOL    HW282103  12.450  13.128  12.790
60091SOL     OW82104  10.462   5.405  13.142
60091SOL    HW182105  10.504   5.491  13.140
60091SOL    HW282106  10.379   5.419  13.187
60092SOL     OW82107   1.876   1.520   3.709
60092SOL    HW182108   1.917   1.444   3.750
60092SOL    HW282109   1.948   1.565   3.664
60093SOL     OW82110   1.818  11.243  11.618
60093SOL    HW182111   1.733  11.230  11.660
60093SOL    HW282112   1.818  11.183  11.543
60094SOL     OW82113   8.854   6.876  12.806
60094SOL    HW182114   8.762   6.879  12.782
60094SOL    HW282115   8.884   6.967  12.797
60095SOL     OW82116   2.597   2.267  14.303
60095SOL    HW182117   2.690   2.246  14.308
60095SOL    HW282118   2.553   2.185  14.324
60096SOL     OW82119   3.610  13.355   8.141
60096SOL    HW182120   3.641  13.264   8.139
60096SOL    HW282121   3.690  13.407   8.148
60097SOL     OW82122  14.214   4.927  12.373
60097SOL    HW182123  14.302   4.890  12.366
60097SOL    HW282124  14.179   4.891  12.454
60098SOL     OW82125   0.603   1.810   3.698
60098SOL    HW182126   0.527   1.824   3.641
60098SOL    HW282127   0.675   1.789   3.638
60099SOL     OW82128   5.445   5.567   9.528
60099SOL    HW182129   5.376   5.515   9.486
60099SOL    HW282130   5.424   5.563   9.621
60100SOL     OW82131   1.185   4.664   4.845
60100SOL    HW182132   1.124   4.649   4.774
60100SOL    HW282133   1.143   4.625   4.922
60101SOL     OW82134  11.788   0.178   5.395
60101SOL    HW182135  11.799   0.190   5.301
60101SOL    HW282136  11.693   0.175   5.408
60102SOL     OW82137   7.536   6.867   0.920
60102SOL    HW182138   7.442   6.883   0.923
60102SOL    HW282139   7.575   6.938   0.970
60103SOL     OW82140   7.843   4.201   1.752
60103SOL    HW182141   7.826   4.127   1.811
60103SOL    HW282142   7.918   4.246   1.792
60104SOL     OW82143   4.765  14.557   4.037
60104SOL    HW182144   4.744  14.594   3.951
60104SOL    HW282145   4.750  14.463   4.026
60105SOL     OW82146   9.630   6.422  12.339
60105SOL    HW182147   9.696   6.486  12.363
60105SOL    HW282148   9.571   6.418  12.414
60106SOL     OW82149   6.197   5.293  11.434
60106SOL    HW182150   6.279   5.342  11.439
60106SOL    HW282151   6.166   5.307  11.344
60107SOL     OW82152  12.333   1.566  12.403
60107SOL    HW182153  12.428   1.558  12.393
60107SOL    HW282154  12.321   1.624  12.478
60108SOL     OW82155   9.723  12.246   8.178
60108SOL    HW182156   9.777  12.184   8.129
60108SOL    HW282157   9.703  12.201   8.260
60109SOL     OW82158   2.903  12.943   6.676
60109SOL    HW182159   2.886  13.015   6.736
60109SOL    HW282160   2.901  12.983   6.589
60110SOL     OW82161   6.795  10.699   7.796
60110SOL    HW182162   6.701  10.707   7.807
60110SOL    HW282163   6.829  10.692   7.885
60111SOL     OW82164  12.559   1.198  12.779
60111SOL    HW182165  12.596   1.141  12.712
60111SOL    HW282166  12.514   1.138  12.839
60112SOL     OW82167  14.117   0.659   1.335
60112SOL    HW182168  14.077   0.640   1.419
60112SOL    HW282169  14.068   0.734   1.301
60113SOL     OW82170   5.557  12.742   1.396
60113SOL    HW182171   5.525  12.736   1.487
60113SOL    HW282172   5.652  12.745   1.405
60114SOL     OW82173  10.642   1.943   9.884
60114SOL    HW182174  10.556   1.901   9.892
60114SOL    HW282175  10.704   1.871   9.892
60115SOL     OW82176  11.758  11.960   6.995
60115SOL    HW182177  11.833  12.018   6.985
60115SOL    HW282178  11.784  11.898   7.063
60116SOL     OW82179   7.836   0.099   1.353
60116SOL    HW182180   7.897   0.026   1.340
60116SOL    HW282181   7.829   0.139   1.266
60117SOL     OW82182  12.705   3.189   9.864
60117SOL    HW182183  12.635   3.133   9.831
60117SOL    HW282184  12.740   3.141   9.939
60118SOL     OW82185   0.450  14.654   5.015
60118SOL    HW182186   0.484  14.732   4.971
60118SOL    HW282187   0.468  14.669   5.108
60119SOL     OW82188   4.451   8.642   5.154
60119SOL    HW182189   4.382   8.577   5.162
60119SOL    HW282190   4.532   8.592   5.166
60120SOL     OW82191   2.752   6.871   2.913
60120SOL    HW182192   2.794   6.859   2.998
60120SOL    HW282193   2.727   6.963   2.910
60121SOL     OW82194  10.902  13.692   9.014
60121SOL    HW182195  10.908  13.745   9.094
60121SOL    HW282196  10.958  13.617   9.031
60122SOL     OW82197  13.163   6.870  12.326
60122SOL    HW182198  13.100   6.912  12.267
60122SOL    HW282199  13.150   6.913  12.410
60123SOL     OW82200  14.276   8.542  10.611
60123SOL    HW182201  14.317   8.460  10.584
60123SOL    HW282202  14.242   8.580  10.530
60124SOL     OW82203   3.421  10.599   3.942
60124SOL    HW182204   3.463  10.685   3.935
60124SOL    HW282205   3.344  10.605   3.885
60125SOL     OW82206  14.180   5.762   2.442
60125SOL    HW182207  14.084   5.765   2.444
60125SOL    HW282208  14.203   5.716   2.523
60126SOL     OW82209   8.605  14.578   1.002
60126SOL    HW182210   8.644  14.594   1.088
60126SOL    HW282211   8.603  14.664   0.960
60127SOL     OW82212   9.422  14.099   1.782
60127SOL    HW182213   9.331  14.119   1.804
60127SOL    HW282214   9.469  14.180   1.799
60128SOL     OW82215  11.739  13.641  12.638
60128SOL    HW182216  11.785  13.641  12.721
60128SOL    HW282217  11.762  13.724  12.597
60129SOL     OW82218  12.388  14.332   0.098
60129SOL    HW182219  12.433  14.307   0.017
60129SOL    HW282220  12.334  14.256   0.120
60130SOL     OW82221   2.737  12.367  10.006
60130SOL    HW182222   2.765  12.430  10.072
60130SOL    HW282223   2.642  12.371  10.008
60131SOL     OW82224  11.873   7.133   4.120
60131SOL    HW182225  11.897   7.156   4.210
60131SOL    HW282226  11.943   7.074   4.091
60132SOL     OW82227  12.309   8.864   4.873
60132SOL    HW182228  12.284   8.850   4.782
60132SOL    HW282229  12.405   8.869   4.871
60133SOL     OW82230   3.065   8.890   7.063
60133SOL    HW182231   3.152   8.864   7.092
60133SOL    HW282232   3.037   8.820   7.005
60134SOL     OW82233   5.662   0.298  13.571
60134SOL    HW182234   5.639   0.288  13.478
60134SOL    HW282235   5.739   0.355  13.571
60135SOL     OW82236   8.395   1.319   2.075
60135SOL    HW182237   8.455   1.270   2.019
60135SOL    HW282238   8.366   1.393   2.021
60136SOL     OW82239  10.061  14.660  14.396
60136SOL    HW182240   9.999  14.718  14.440
60136SOL    HW282241  10.079  14.591  14.461
60137SOL     OW82242   5.006   6.986  12.365
60137SOL    HW182243   4.910   6.993  12.368
60137SOL    HW282244   5.035   7.070  12.331
60138SOL     OW82245   2.560   7.846   6.711
60138SOL    HW182246   2.588   7.759   6.683
60138SOL    HW282247   2.630   7.905   6.682
60139SOL     OW82248   6.635  12.133  12.253
60139SOL    HW182249   6.553  12.087  12.233
60139SOL    HW282250   6.652  12.112  12.345
60140SOL     OW82251   0.714  13.048  13.859
60140SOL    HW182252   0.662  13.074  13.782
60140SOL    HW282253   0.682  13.104  13.929
60141SOL     OW82254  14.338   9.946   2.315
60141SOL    HW182255  14.406   9.982   2.372
60141SOL    HW282256  14.384   9.924   2.234
60142SOL     OW82257  13.561   8.372  12.070
60142SOL    HW182258  13.574   8.307  12.002
60142SOL    HW282259  13.588   8.455  12.030
60143SOL     OW82260   2.003  14.292   1.938
60143SOL    HW182261   2.015  14.199   1.920
60143SOL    HW282262   2.026  14.301   2.031
60144SOL     OW82263  13.719  14.714   6.869
60144SOL    HW182264  13.748  14.804   6.856
60144SOL    HW282265  13.631  14.722   6.906
60145SOL     OW82266   2.496   7.193  10.464
60145SOL    HW182267   2.542   7.266  10.422
60145SOL    HW282268   2.557   7.162  10.531
60146SOL     OW82269  11.128   0.499  14.664
60146SOL    HW182270  11.134   0.403  14.662
60146SOL    HW282271  11.183   0.524  14.738
60147SOL     OW82272  13.030   7.109  10.753
60147SOL    HW182273  12.940   7.137  10.734
60147SOL    HW282274  13.071   7.104  10.667
60148SOL     OW82275   8.722  14.382  13.713
60148SOL    HW182276   8.768  14.309  13.672
60148SOL    HW282277   8.707  14.444  13.641
60149SOL     OW82278  13.689   1.265   0.218
60149SOL    HW182279  13.644   1.190   0.258
60149SOL    HW282280  13.619   1.327   0.198
60150SOL     OW82281   2.324   6.684   3.903
60150SOL    HW182282   2.262   6.712   3.970
60150SOL    HW282283   2.365   6.764   3.872
60151SOL     OW82284  10.715  10.690   2.914
60151SOL    HW182285  10.751  10.740   2.841
60151SOL    HW282286  10.774  10.709   2.987
60152SOL     OW82287  11.673   9.159   8.525
60152SOL    HW182288  11.693   9.076   8.567
60152SOL    HW282289  11.628   9.210   8.592
60153SOL     OW82290  11.660  13.894   3.204
60153SOL    HW182291  11.739  13.933   3.167
60153SOL    HW282292  11.624  13.962   3.260
60154SOL     OW82293   8.571   5.357   2.597
60154SOL    HW182294   8.634   5.428   2.607
60154SOL    HW282295   8.531   5.348   2.684
60155SOL     OW82296   8.154  10.286  11.935
60155SOL    HW182297   8.225  10.306  11.996
60155SOL    HW282298   8.165  10.350  11.864
60156SOL     OW82299   3.646   5.322   7.336
60156SOL    HW182300   3.560   5.290   7.362
60156SOL    HW282301   3.699   5.243   7.326
60157SOL     OW82302   8.367  13.273   2.908
60157SOL    HW182303   8.273  13.285   2.921
60157SOL    HW282304   8.402  13.254   2.995
60158SOL     OW82305   6.843   3.170   2.278
60158SOL    HW182306   6.864   3.105   2.345
60158SOL    HW282307   6.851   3.123   2.196
60159SOL     OW82308  11.554   9.687  11.831
60159SOL    HW182309  11.611   9.704  11.906
60159SOL    HW282310  11.613   9.658  11.761
60160SOL     OW82311   3.438   1.249   5.401
60160SOL    HW182312   3.484   1.261   5.318
60160SOL    HW282313   3.397   1.163   5.393
60161SOL     OW82314   6.245   9.980   1.931
60161SOL    HW182315   6.243  10.053   1.993
60161SOL    HW282316   6.237  10.021   1.845
60162SOL     OW82317   7.825   0.354   0.843
60162SOL    HW182318   7.814   0.335   0.750
60162SOL    HW282319   7.739   0.388   0.870
60163SOL     OW82320  13.843  13.931  11.048
60163SOL    HW182321  13.786  13.900  10.979
60163SOL    HW282322  13.859  13.853  11.102
60164SOL     OW82323  13.128   2.800  11.121
60164SOL    HW182324  13.130   2.727  11.059
60164SOL    HW282325  13.086   2.764  11.200
60165SOL     OW82326   0.918  14.250   3.467
60165SOL    HW182327   0.900  14.249   3.373
60165SOL    HW282328   0.901  14.340   3.493
60166SOL     OW82329  13.512  13.405  13.936
60166SOL    HW182330  13.456  13.483  13.944
60166SOL    HW282331  13.601  13.439  13.940
60167SOL     OW82332   3.335  12.631   2.908
60167SOL    HW182333   3.284  12.603   2.984
60167SOL    HW282334   3.291  12.711   2.879
60168SOL     OW82335   8.767   7.022   8.275
60168SOL    HW182336   8.745   7.067   8.193
60168SOL    HW282337   8.855   6.988   8.261
60169SOL     OW82338   0.499   7.093  11.657
60169SOL    HW182339   0.423   7.037  11.673
60169SOL    HW282340   0.567   7.033  11.627
60170SOL     OW82341   4.816   2.321   7.913
60170SOL    HW182342   4.858   2.301   7.997
60170SOL    HW282343   4.730   2.278   7.919
60171SOL     OW82344   1.400   4.446   8.409
60171SOL    HW182345   1.381   4.521   8.352
60171SOL    HW282346   1.395   4.482   8.498
60172SOL     OW82347   2.049   7.297   3.548
60172SOL    HW182348   2.051   7.201   3.541
60172SOL    HW282349   2.092   7.328   3.469
60173SOL     OW82350  14.632   9.682   0.593
60173SOL    HW182351  14.674   9.617   0.649
60173SOL    HW282352  14.562   9.634   0.549
60174SOL     OW82353   6.419   4.328  14.600
60174SOL    HW182354   6.437   4.265  14.670
60174SOL    HW282355   6.324   4.327  14.590
60175SOL     OW82356   0.287  14.570  12.296
60175SOL    HW182357   0.350  14.590  12.365
60175SOL    HW282358   0.341  14.551  12.219
60176SOL     OW82359   0.913  14.132   8.935
60176SOL    HW182360   0.964  14.202   8.896
60176SOL    HW282361   0.825  14.169   8.944
60177SOL     OW82362  12.485  10.310  10.187
60177SOL    HW182363  12.557  10.373  10.182
60177SOL    HW282364  12.494  10.271  10.273
60178SOL     OW82365   7.317   0.191   7.360
60178SOL    HW182366   7.384   0.168   7.425
60178SOL    HW282367   7.234   0.174   7.404
60179SOL     OW82368   0.644  12.355  12.850
60179SOL    HW182369   0.634  12.447  12.875
60179SOL    HW282370   0.616  12.351  12.759
60180SOL     OW82371   8.513   0.704   2.135
60180SOL    HW182372   8.575   0.715   2.063
60180SOL    HW282373   8.565   0.715   2.214
60181SOL     OW82374   0.859   2.382  11.366
60181SOL    HW182375   0.777   2.432  11.356
60181SOL    HW282376   0.835   2.292  11.344
60182SOL     OW82377   2.813   7.599   6.672
60182SOL    HW182378   2.751   7.580   6.602
60182SOL    HW282379   2.873   7.664   6.635
60183SOL     OW82380  13.806   3.178   9.518
60183SOL    HW182381  13.816   3.110   9.585
60183SOL    HW282382  13.892   3.220   9.514
60184SOL     OW82383   3.667   1.991   4.329
60184SOL    HW182384   3.589   2.046   4.330
60184SOL    HW282385   3.717   2.020   4.406
60185SOL     OW82386   8.142   7.373  13.066
60185SOL    HW182387   8.060   7.330  13.090
60185SOL    HW282388   8.210   7.314  13.098
60186SOL     OW82389   2.858   2.621   1.380
60186SOL    HW182390   2.796   2.691   1.359
60186SOL    HW282391   2.844   2.604   1.473
60187SOL     OW82392  12.036  13.726  14.622
60187SOL    HW182393  11.942  13.713  14.635
60187SOL    HW282394  12.055  13.685  14.538
60188SOL     OW82395   0.806   3.803  10.287
60188SOL    HW182396   0.797   3.711  10.314
60188SOL    HW282397   0.718   3.839  10.294
60189SOL     OW82398   9.457  13.987   1.232
60189SOL    HW182399   9.401  14.048   1.183
60189SOL    HW282400   9.403  13.959   1.306
60190SOL     OW82401   7.674   8.661   2.976
60190SOL    HW182402   7.736   8.610   2.924
60190SOL    HW282403   7.706   8.751   2.971
60191SOL     OW82404  14.786   7.908   9.022
60191SOL    HW182405  14.806   7.969   9.094
60191SOL    HW282406  14.772   7.965   8.946
60192SOL     OW82407  12.398   2.637  13.184
60192SOL    HW182408  12.316   2.643  13.233
60192SOL    HW282409  12.382   2.570  13.118
60193SOL     OW82410  12.680  12.151   1.257
60193SOL    HW182411  12.683  12.244   1.280
60193SOL    HW282412  12.626  12.111   1.325
60194SOL     OW82413   2.761  10.102   6.435
60194SOL    HW182414   2.672  10.068   6.436
60194SOL    HW282415   2.759  10.173   6.370
60195SOL     OW82416   0.732  12.296   8.113
60195SOL    HW182417   0.715  12.237   8.186
60195SOL    HW282418   0.803  12.254   8.064
60196SOL     OW82419   1.683   3.206  13.724
60196SOL    HW182420   1.679   3.260  13.645
60196SOL    HW282421   1.626   3.250  13.787
60197SOL     OW82422   1.561   2.257   3.679
60197SOL    HW182423   1.531   2.332   3.627
60197SOL    HW282424   1.495   2.247   3.747
60198SOL     OW82425   1.532   7.569   2.582
60198SOL    HW182426   1.459   7.581   2.643
60198SOL    HW282427   1.561   7.657   2.560
60199SOL     OW82428   0.330  14.729   8.815
60199SOL    HW182429   0.405  14.674   8.792
60199SOL    HW282430   0.361  14.818   8.805
60200SOL     OW82431   5.280   2.625   7.124
60200SOL    HW182432   5.205   2.648   7.070
60200SOL    HW282433   5.344   2.695   7.108
60201SOL     OW82434  10.109   9.128   8.552
60201SOL    HW182435  10.069   9.207   8.588
60201SOL    HW282436  10.168   9.097   8.621
60202SOL     OW82437   5.473   4.499   0.897
60202SOL    HW182438   5.377   4.491   0.901
60202SOL    HW282439   5.488   4.589   0.869
60203SOL     OW82440   9.103   3.010  13.331
60203SOL    HW182441   9.192   3.045  13.322
60203SOL    HW282442   9.063   3.026  13.245
60204SOL     OW82443   6.113   6.733   6.251
60204SOL    HW182444   6.024   6.700   6.251
60204SOL    HW282445   6.117   6.794   6.177
60205SOL     OW82446   7.544   4.230   1.183
60205SOL    HW182447   7.547   4.135   1.193
60205SOL    HW282448   7.513   4.244   1.094
60206SOL     OW82449  13.764   6.951   5.867
60206SOL    HW182450  13.808   6.993   5.942
60206SOL    HW282451  13.740   7.024   5.810
60207SOL     OW82452  12.108   2.605  13.996
60207SOL    HW182453  12.182   2.547  13.982
60207SOL    HW282454  12.103   2.616  14.091
60208SOL     OW82455  12.445   2.404   7.803
60208SOL    HW182456  12.533   2.412   7.838
60208SOL    HW282457  12.405   2.333   7.853
60209SOL     OW82458   8.796   3.294   9.053
60209SOL    HW182459   8.818   3.386   9.067
60209SOL    HW282460   8.832   3.274   8.966
60210SOL     OW82461   0.677  10.973   2.187
60210SOL    HW182462   0.674  11.069   2.186
60210SOL    HW282463   0.765  10.952   2.219
60211SOL     OW82464  12.836   7.386   3.675
60211SOL    HW182465  12.858   7.332   3.599
60211SOL    HW282466  12.912   7.377   3.733
60212SOL     OW82467   4.937  14.448  10.155
60212SOL    HW182468   4.913  14.361  10.189
60212SOL    HW282469   4.860  14.502  10.170
60213SOL     OW82470  11.473   0.891   9.677
60213SOL    HW182471  11.488   0.821   9.614
60213SOL    HW282472  11.553   0.944   9.674
60214SOL     OW82473  12.321   9.549   4.446
60214SOL    HW182474  12.242   9.595   4.475
60214SOL    HW282475  12.313   9.545   4.351
60215SOL     OW82476   5.823   7.618  14.471
60215SOL    HW182477   5.866   7.602  14.387
60215SOL    HW282478   5.804   7.531  14.505
60216SOL     OW82479  14.341   0.247  10.749
60216SOL    HW182480  14.365   0.339  10.741
60216SOL    HW282481  14.389   0.217  10.826
60217SOL     OW82482   1.507  13.182   5.481
60217SOL    HW182483   1.586  13.235   5.469
60217SOL    HW282484   1.538  13.101   5.521
60218SOL     OW82485   6.726   0.735   4.125
60218SOL    HW182486   6.779   0.739   4.045
60218SOL    HW282487   6.667   0.661   4.111
60219SOL     OW82488  14.487  14.739   0.215
60219SOL    HW182489  14.471  14.832   0.200
60219SOL    HW282490  14.581  14.729   0.200
60220SOL     OW82491   8.723  14.217   9.679
60220SOL    HW182492   8.737  14.181   9.767
60220SOL    HW282493   8.630  14.203   9.662
60221SOL     OW82494   8.197  12.006  14.224
60221SOL    HW182495   8.196  12.016  14.128
60221SOL    HW282496   8.108  11.980  14.246
60222SOL     OW82497   2.691   5.675   3.310
60222SOL    HW182498   2.614   5.619   3.324
60222SOL    HW282499   2.729   5.644   3.228
60223SOL     OW82500   8.978   9.463   6.736
60223SOL    HW182501   8.902   9.465   6.793
60223SOL    HW282502   9.009   9.554   6.733
60224SOL     OW82503  11.750   1.894   2.533
60224SOL    HW182504  11.718   1.807   2.556
60224SOL    HW282505  11.707   1.914   2.450
60225SOL     OW82506  10.076   2.692   1.226
60225SOL    HW182507  10.164   2.674   1.259
60225SOL    HW282508  10.028   2.723   1.303
60226SOL     OW82509  11.311   5.663  10.252
60226SOL    HW182510  11.366   5.700  10.183
60226SOL    HW282511  11.302   5.733  10.316
60227SOL     OW82512   2.594   0.867  13.050
60227SOL    HW182513   2.619   0.932  12.985
60227SOL    HW282514   2.578   0.918  13.130
60228SOL     OW82515   0.835   2.390   3.758
60228SOL    HW182516   0.794   2.415   3.841
60228SOL    HW282517   0.929   2.405   3.772
60229SOL     OW82518   3.418   5.155  13.603
60229SOL    HW182519   3.332   5.115  13.618
60229SOL    HW282520   3.460   5.099  13.538
60230SOL     OW82521   1.296   8.084   2.894
60230SOL    HW182522   1.345   8.132   2.827
60230SOL    HW282523   1.205   8.110   2.881
60231SOL     OW82524   6.414  13.847  10.622
60231SOL    HW182525   6.501  13.886  10.612
60231SOL    HW282526   6.362  13.886  10.552
60232SOL     OW82527  13.984  11.902  10.708
60232SOL    HW182528  13.969  11.829  10.768
60232SOL    HW282529  14.075  11.927  10.723
60233SOL     OW82530  13.749   7.506   0.277
60233SOL    HW182531  13.690   7.527   0.204
60233SOL    HW282532  13.767   7.590   0.319
60234SOL     OW82533   6.122  11.196   7.187
60234SOL    HW182534   6.097  11.212   7.096
60234SOL    HW282535   6.153  11.106   7.188
60235SOL     OW82536   0.316   6.706   3.155
60235SOL    HW182537   0.340   6.723   3.246
60235SOL    HW282538   0.372   6.766   3.104
60236SOL     OW82539  11.119   5.846  13.540
60236SOL    HW182540  11.091   5.762  13.505
60236SOL    HW282541  11.123   5.832  13.635
60237SOL     OW82542   0.441  13.769  13.496
60237SOL    HW182543   0.385  13.837  13.458
60237SOL    HW282544   0.467  13.804  13.581
60238SOL     OW82545   4.446   6.015  11.186
60238SOL    HW182546   4.362   5.997  11.144
60238SOL    HW282547   4.491   5.930  11.187
60239SOL     OW82548   1.031   1.046   8.815
60239SOL    HW182549   0.994   1.051   8.903
60239SOL    HW282550   1.106   0.987   8.824
60240SOL     OW82551   1.497  13.824   7.793
60240SOL    HW182552   1.470  13.755   7.733
60240SOL    HW282553   1.425  13.830   7.856
60241SOL     OW82554   0.901  13.388  11.311
60241SOL    HW182555   0.886  13.400  11.218
60241SOL    HW282556   0.837  13.322  11.337
60242SOL     OW82557  11.706   6.958  13.898
60242SOL    HW182558  11.741   6.971  13.810
60242SOL    HW282559  11.740   6.873  13.925
60243SOL     OW82560   4.420   4.690   4.988
60243SOL    HW182561   4.471   4.771   4.994
60243SOL    HW282562   4.381   4.680   5.075
60244SOL     OW82563   4.159   0.092   3.035
60244SOL    HW182564   4.134   0.026   2.970
60244SOL    HW282565   4.190   0.166   2.982
60245SOL     OW82566   5.602   5.433  13.307
60245SOL    HW182567   5.520   5.482  13.302
60245SOL    HW282568   5.653   5.463  13.232
60246SOL     OW82569   2.461   6.432   3.958
60246SOL    HW182570   2.435   6.504   3.900
60246SOL    HW282571   2.391   6.368   3.950
60247SOL     OW82572  10.606  11.390   3.789
60247SOL    HW182573  10.607  11.445   3.867
60247SOL    HW282574  10.653  11.442   3.723
60248SOL     OW82575   5.017   8.826   2.717
60248SOL    HW182576   5.022   8.815   2.812
60248SOL    HW282577   5.037   8.739   2.682
60249SOL     OW82578  14.209   6.205   3.579
60249SOL    HW182579  14.240   6.115   3.577
60249SOL    HW282580  14.126   6.201   3.627
60250SOL     OW82581   3.766   7.589  10.386
60250SOL    HW182582   3.817   7.633  10.454
60250SOL    HW282583   3.719   7.660  10.342
60251SOL     OW82584   6.104  12.917  10.394
60251SOL    HW182585   6.176  12.857  10.377
60251SOL    HW282586   6.025  12.864  10.385
60252SOL     OW82587   9.875   2.730   4.962
60252SOL    HW182588   9.965   2.706   4.984
60252SOL    HW282589   9.876   2.739   4.867
60253SOL     OW82590  11.663   3.624   9.008
60253SOL    HW182591  11.679   3.532   8.989
60253SOL    HW282592  11.578   3.643   8.968
60254SOL     OW82593   7.839  12.606   3.475
60254SOL    HW182594   7.882  12.521   3.475
60254SOL    HW282595   7.803  12.614   3.386
60255SOL     OW82596   2.490   1.336  12.750
60255SOL    HW182597   2.492   1.417  12.801
60255SOL    HW282598   2.517   1.361  12.662
60256SOL     OW82599   4.482   3.362   7.562
60256SOL    HW182600   4.449   3.452   7.559
60256SOL    HW282601   4.415   3.310   7.518
60257SOL     OW82602  11.973   9.102   3.008
60257SOL    HW182603  11.886   9.064   3.017
60257SOL    HW282604  12.030   9.041   3.056
60258SOL     OW82605  14.242   1.157   8.782
60258SOL    HW182606  14.183   1.084   8.762
60258SOL    HW282607  14.296   1.166   8.703
60259SOL     OW82608   3.541  13.147   9.979
60259SOL    HW182609   3.593  13.204   9.922
60259SOL    HW282610   3.542  13.062   9.936
60260SOL     OW82611   3.798  13.642   4.662
60260SOL    HW182612   3.873  13.610   4.613
60260SOL    HW282613   3.767  13.566   4.711
60261SOL     OW82614   5.995   4.600   0.572
60261SOL    HW182615   6.012   4.690   0.544
60261SOL    HW282616   6.080   4.557   0.564
60262SOL     OW82617   2.628  13.584   9.565
60262SOL    HW182618   2.557  13.570   9.503
60262SOL    HW282619   2.660  13.496   9.586
60263SOL     OW82620   6.066   9.768   7.730
60263SOL    HW182621   6.128   9.813   7.787
60263SOL    HW282622   6.023   9.704   7.787
60264SOL     OW82623  12.574  13.988   0.250
60264SOL    HW182624  12.541  14.024   0.167
60264SOL    HW282625  12.570  14.062   0.311
60265SOL     OW82626   5.498   4.907  12.801
60265SOL    HW182627   5.590   4.895  12.776
60265SOL    HW282628   5.468   4.820  12.827
60266SOL     OW82629   0.107   1.747  13.810
60266SOL    HW182630   0.116   1.725  13.718
60266SOL    HW282631   0.177   1.700  13.854
60267SOL     OW82632   0.562  13.243  12.236
60267SOL    HW182633   0.560  13.149  12.216
60267SOL    HW282634   0.656  13.263  12.246
60268SOL     OW82635   1.243  14.425   2.955
60268SOL    HW182636   1.266  14.427   2.862
60268SOL    HW282637   1.155  14.386   2.957
60269SOL     OW82638  10.482   5.727   9.069
60269SOL    HW182639  10.559   5.729   9.126
60269SOL    HW282640  10.496   5.651   9.013
60270SOL     OW82641   3.879   4.157   6.597
60270SOL    HW182642   3.867   4.114   6.512
60270SOL    HW282643   3.865   4.088   6.661
60271SOL     OW82644  14.453   7.968   9.563
60271SOL    HW182645  14.520   8.031   9.536
60271SOL    HW282646  14.482   7.938   9.649
60272SOL     OW82647   1.593  14.802   1.715
60272SOL    HW182648   1.591  14.814   1.810
60272SOL    HW282649   1.568   0.011   1.679
60273SOL     OW82650  12.245  14.422  10.674
60273SOL    HW182651  12.308  14.442  10.605
60273SOL    HW282652  12.286  14.455  10.754
60274SOL     OW82653   5.101  12.280   5.944
60274SOL    HW182654   5.142  12.244   6.022
60274SOL    HW282655   5.040  12.211   5.915
60275SOL     OW82656   2.254  12.192   2.728
60275SOL    HW182657   2.319  12.122   2.740
60275SOL    HW282658   2.235  12.223   2.817
60276SOL     OW82659   3.356   1.864  14.185
60276SOL    HW182660   3.396   1.808  14.251
60276SOL    HW282661   3.308   1.930  14.236
60277SOL     OW82662   8.190   9.905   9.921
60277SOL    HW182663   8.218   9.983   9.967
60277SOL    HW282664   8.196   9.928   9.828
60278SOL     OW82665  14.296  11.503   5.644
60278SOL    HW182666  14.346  11.534   5.568
60278SOL    HW282667  14.308  11.571   5.710
60279SOL     OW82668  10.910   7.455   7.645
60279SOL    HW182669  11.003   7.477   7.658
60279SOL    HW282670  10.874   7.449   7.733
60280SOL     OW82671   7.605  14.116   7.851
60280SOL    HW182672   7.647  14.200   7.834
60280SOL    HW282673   7.661  14.052   7.808
60281SOL     OW82674   7.663   6.847   5.406
60281SOL    HW182675   7.732   6.782   5.393
60281SOL    HW282676   7.582   6.797   5.391
60282SOL     OW82677   9.694   5.060   2.760
60282SOL    HW182678   9.710   5.071   2.666
60282SOL    HW282679   9.751   4.988   2.786
60283SOL     OW82680  14.546   6.095   5.894
60283SOL    HW182681  14.556   6.188   5.877
60283SOL    HW282682  14.505   6.060   5.815
60284SOL     OW82683   8.052  14.655   3.871
60284SOL    HW182684   8.072  14.747   3.889
60284SOL    HW282685   8.080  14.642   3.780
60285SOL     OW82686  13.945   3.915   8.294
60285SOL    HW182687  14.030   3.902   8.336
60285SOL    HW282688  13.916   4.002   8.324
60286SOL     OW82689   5.094   0.800   4.811
60286SOL    HW182690   5.125   0.712   4.792
60286SOL    HW282691   5.146   0.857   4.755
60287SOL     OW82692   3.194  11.905   8.079
60287SOL    HW182693   3.180  11.855   8.159
60287SOL    HW282694   3.187  11.996   8.105
60288SOL     OW82695   2.907   4.325   9.581
60288SOL    HW182696   2.940   4.408   9.616
60288SOL    HW282697   2.963   4.258   9.619
60289SOL     OW82698  11.050   8.480   6.308
60289SOL    HW182699  11.028   8.418   6.238
60289SOL    HW282700  11.015   8.563   6.277
60290SOL     OW82701   6.050   3.831   8.473
60290SOL    HW182702   5.980   3.791   8.525
60290SOL    HW282703   6.127   3.776   8.491
60291SOL     OW82704   2.548   3.051   6.208
60291SOL    HW182705   2.469   3.009   6.243
60291SOL    HW282706   2.527   3.068   6.116
60292SOL     OW82707  11.520  11.300   5.395
60292SOL    HW182708  11.573  11.318   5.474
60292SOL    HW282709  11.546  11.212   5.368
60293SOL     OW82710   2.922  14.197   0.485
60293SOL    HW182711   3.017  14.189   0.491
60293SOL    HW282712   2.907  14.268   0.422
60294SOL     OW82713   8.518   7.269   0.275
60294SOL    HW182714   8.516   7.228   0.188
60294SOL    HW282715   8.578   7.214   0.325
60295SOL     OW82716   3.032  10.635   6.138
60295SOL    HW182717   3.009  10.705   6.077
60295SOL    HW282718   3.127  10.628   6.131
60296SOL     OW82719   2.686   7.709   7.915
60296SOL    HW182720   2.709   7.629   7.867
60296SOL    HW282721   2.762   7.765   7.905
60297SOL     OW82722   4.934   1.515  11.559
60297SOL    HW182723   4.939   1.450  11.489
60297SOL    HW282724   4.993   1.585  11.531
60298SOL     OW82725  10.423  14.171  12.425
60298SOL    HW182726  10.446  14.210  12.510
60298SOL    HW282727  10.378  14.240  12.378
60299SOL     OW82728  11.101   4.832   2.655
60299SOL    HW182729  11.133   4.844   2.745
60299SOL    HW282730  11.108   4.919   2.615
60300SOL     OW82731  14.004   4.648   8.751
60300SOL    HW182732  13.934   4.676   8.692
60300SOL    HW282733  14.057   4.588   8.698
60301SOL     OW82734  11.166   4.191   0.706
60301SOL    HW182735  11.147   4.192   0.612
60301SOL    HW282736  11.103   4.127   0.742
60302SOL     OW82737   3.752  12.674   3.839
60302SOL    HW182738   3.772  12.715   3.755
60302SOL    HW282739   3.658  12.653   3.834
60303SOL     OW82740   3.327  11.885   9.092
60303SOL    HW182741   3.309  11.978   9.079
60303SOL    HW282742   3.365  11.880   9.180
60304SOL     OW82743  11.617   4.498   5.974
60304SOL    HW182744  11.679   4.428   5.955
60304SOL    HW282745  11.667   4.561   6.026
60305SOL     OW82746   5.794   0.718  11.934
60305SOL    HW182747   5.822   0.709  12.025
60305SOL    HW282748   5.797   0.812  11.918
60306SOL     OW82749   0.444  11.316  13.293
60306SOL    HW182750   0.533  11.294  13.319
60306SOL    HW282751   0.454  11.378  13.221
60307SOL     OW82752   3.533   2.532   8.290
60307SOL    HW182753   3.483   2.613   8.294
60307SOL    HW282754   3.535   2.510   8.197
60308SOL     OW82755   5.458   9.992  11.349
60308SOL    HW182756   5.481   9.911  11.302
60308SOL    HW282757   5.363   9.989  11.356
60309SOL     OW82758  12.921   5.612  10.136
60309SOL    HW182759  12.910   5.647  10.224
60309SOL    HW282760  12.893   5.520  10.143
60310SOL     OW82761  14.742  10.844   7.620
60310SOL    HW182762  14.714  10.808   7.536
60310SOL    HW282763  14.726  10.773   7.683
60311SOL     OW82764  14.399   1.970   6.583
60311SOL    HW182765  14.422   1.888   6.627
60311SOL    HW282766  14.480   2.021   6.584
60312SOL     OW82767  13.746  10.761  14.757
60312SOL    HW182768  13.766  10.679  14.710
60312SOL    HW282769  13.656  10.781  14.732
60313SOL     OW82770   7.005   0.499  13.906
60313SOL    HW182771   6.928   0.537  13.949
60313SOL    HW282772   7.010   0.544  13.822
60314SOL     OW82773  13.253  13.483   5.376
60314SOL    HW182774  13.308  13.535   5.317
60314SOL    HW282775  13.176  13.538   5.391
60315SOL     OW82776   0.883   6.954  13.622
60315SOL    HW182777   0.910   6.947  13.531
60315SOL    HW282778   0.962   6.936  13.673
60316SOL     OW82779  13.852   7.438  14.657
60316SOL    HW182780  13.817   7.448  14.569
60316SOL    HW282781  13.775   7.428  14.713
60317SOL     OW82782  11.488   6.265   7.532
60317SOL    HW182783  11.571   6.296   7.569
60317SOL    HW282784  11.512   6.184   7.486
60318SOL     OW82785   2.298   4.698   1.331
60318SOL    HW182786   2.274   4.788   1.354
60318SOL    HW282787   2.346   4.665   1.407
60319SOL     OW82788   0.179  10.356   6.365
60319SOL    HW182789   0.229  10.275   6.364
60319SOL    HW282790   0.216  10.407   6.437
60320SOL     OW82791   3.908   2.456   9.069
60320SOL    HW182792   3.907   2.481   9.162
60320SOL    HW282793   3.867   2.530   9.024
60321SOL     OW82794  12.584   8.997   8.884
60321SOL    HW182795  12.573   8.922   8.827
60321SOL    HW282796  12.504   9.048   8.874
60322SOL     OW82797   8.704   9.251  13.504
60322SOL    HW182798   8.783   9.198  13.504
60322SOL    HW282799   8.734   9.338  13.477
60323SOL     OW82800   4.286  12.090   4.812
60323SOL    HW182801   4.193  12.107   4.827
60323SOL    HW282802   4.324  12.088   4.900
60324SOL     OW82803   3.728   1.984   2.713
60324SOL    HW182804   3.659   1.940   2.762
60324SOL    HW282805   3.807   1.969   2.765
60325SOL     OW82806   7.700   0.216  11.287
60325SOL    HW182807   7.708   0.294  11.233
60325SOL    HW282808   7.732   0.242  11.373
60326SOL     OW82809  14.834  14.139   8.241
60326SOL    HW182810  14.857  14.049   8.217
60326SOL    HW282811  14.839  14.139   8.337
60327SOL     OW82812   5.109   6.212  13.538
60327SOL    HW182813   5.150   6.125  13.535
60327SOL    HW282814   5.024   6.199  13.494
60328SOL     OW82815   4.835   2.894  14.185
60328SOL    HW182816   4.912   2.891  14.242
60328SOL    HW282817   4.813   2.803  14.168
60329SOL     OW82818   8.727  11.895   1.683
60329SOL    HW182819   8.741  11.910   1.776
60329SOL    HW282820   8.720  11.983   1.645
60330SOL     OW82821   0.859   2.927  10.067
60330SOL    HW182822   0.862   2.922  10.162
60330SOL    HW282823   0.774   2.891  10.044
60331SOL     OW82824  14.178   7.032  10.234
60331SOL    HW182825  14.126   6.962  10.193
60331SOL    HW282826  14.175   7.104  10.171
60332SOL     OW82827   9.392   1.345  11.810
60332SOL    HW182828   9.448   1.421  11.829
60332SOL    HW282829   9.303   1.376  11.828
60333SOL     OW82830   1.739   8.419   6.149
60333SOL    HW182831   1.831   8.426   6.125
60333SOL    HW282832   1.727   8.487   6.216
60334SOL     OW82833   6.622  14.467   5.440
60334SOL    HW182834   6.669  14.385   5.425
60334SOL    HW282835   6.674  14.533   5.395
60335SOL     OW82836   2.039   7.812   5.459
60335SOL    HW182837   2.012   7.762   5.382
60335SOL    HW282838   1.978   7.886   5.462
60336SOL     OW82839   5.223  10.189   0.876
60336SOL    HW182840   5.156  10.240   0.829
60336SOL    HW282841   5.191  10.184   0.966
60337SOL     OW82842   4.540   9.811   4.086
60337SOL    HW182843   4.613   9.751   4.069
60337SOL    HW282844   4.582   9.891   4.118
60338SOL     OW82845   8.361  12.945  11.022
60338SOL    HW182846   8.418  13.014  10.987
60338SOL    HW282847   8.396  12.864  10.984
60339SOL     OW82848   2.720   5.586   2.490
60339SOL    HW182849   2.647   5.648   2.491
60339SOL    HW282850   2.798   5.641   2.486
60340SOL     OW82851   0.915   1.893   6.833
60340SOL    HW182852   1.005   1.921   6.817
60340SOL    HW282853   0.895   1.836   6.758
60341SOL     OW82854  11.764  14.138   5.866
60341SOL    HW182855  11.764  14.115   5.959
60341SOL    HW282856  11.841  14.194   5.854
60342SOL     OW82857   3.322   7.871   1.747
60342SOL    HW182858   3.415   7.879   1.724
60342SOL    HW282859   3.314   7.783   1.782
60343SOL     OW82860   4.926  12.864   6.609
60343SOL    HW182861   4.864  12.878   6.680
60343SOL    HW282862   4.941  12.769   6.609
60344SOL     OW82863   6.626  10.450   8.846
60344SOL    HW182864   6.532  10.465   8.833
60344SOL    HW282865   6.653  10.516   8.909
60345SOL     OW82866   8.760   1.670   3.155
60345SOL    HW182867   8.666   1.673   3.143
60345SOL    HW282868   8.796   1.686   3.068
60346SOL     OW82869  12.267   7.998  11.486
60346SOL    HW182870  12.263   8.066  11.418
60346SOL    HW282871  12.296   8.044  11.564
60347SOL     OW82872   4.778   6.967   5.163
60347SOL    HW182873   4.807   6.978   5.073
60347SOL    HW282874   4.825   7.034   5.212
60348SOL     OW82875   2.173   1.096   2.081
60348SOL    HW182876   2.106   1.038   2.116
60348SOL    HW282877   2.126   1.176   2.057
60349SOL     OW82878  12.929   2.222   6.686
60349SOL    HW182879  12.838   2.192   6.681
60349SOL    HW282880  12.939   2.281   6.611
60350SOL     OW82881   8.229   5.781   7.260
60350SOL    HW182882   8.319   5.779   7.292
60350SOL    HW282883   8.237   5.797   7.166
60351SOL     OW82884  14.119  11.725   9.810
60351SOL    HW182885  14.173  11.647   9.799
60351SOL    HW282886  14.157  11.789   9.749
60352SOL     OW82887   8.241  14.588   0.220
60352SOL    HW182888   8.284  14.671   0.241
60352SOL    HW282889   8.197  14.605   0.136
60353SOL     OW82890   4.690   2.605   4.708
60353SOL    HW182891   4.656   2.609   4.618
60353SOL    HW282892   4.611   2.604   4.763
60354SOL     OW82893   6.124   4.241   2.775
60354SOL    HW182894   6.180   4.286   2.711
60354SOL    HW282895   6.118   4.303   2.848
60355SOL     OW82896   7.528   2.131   4.203
60355SOL    HW182897   7.556   2.048   4.164
60355SOL    HW282898   7.434   2.134   4.186
60356SOL     OW82899  10.029   5.195  13.991
60356SOL    HW182900  10.034   5.285  14.021
60356SOL    HW282901  10.118   5.160  14.003
60357SOL     OW82902  11.711  12.829  10.667
60357SOL    HW182903  11.706  12.874  10.583
60357SOL    HW282904  11.732  12.738  10.644
60358SOL     OW82905  14.326  12.517  11.987
60358SOL    HW182906  14.404  12.562  11.955
60358SOL    HW282907  14.359  12.432  12.018
60359SOL     OW82908   4.590   0.797  14.100
60359SOL    HW182909   4.559   0.713  14.133
60359SOL    HW282910   4.598   0.852  14.177
60360SOL     OW82911  11.758   8.579  13.518
60360SOL    HW182912  11.832   8.537  13.563
60360SOL    HW282913  11.684   8.565  13.577
60361SOL     OW82914   9.279   7.842   8.422
60361SOL    HW182915   9.184   7.858   8.430
60361SOL    HW282916   9.293   7.763   8.474
60362SOL     OW82917   9.245   7.575  12.555
60362SOL    HW182918   9.334   7.611  12.550
60362SOL    HW282919   9.198   7.636  12.611
60363SOL     OW82920   8.618   6.994  13.625
60363SOL    HW182921   8.689   7.058  13.626
60363SOL    HW282922   8.560   7.021  13.696
60364SOL     OW82923   4.656   2.869   9.005
60364SOL    HW182924   4.632   2.962   8.993
60364SOL    HW282925   4.699   2.866   9.090
60365SOL     OW82926  14.401   3.431   6.551
60365SOL    HW182927  14.451   3.415   6.471
60365SOL    HW282928  14.444   3.378   6.618
60366SOL     OW82929  10.912   3.084   3.526
60366SOL    HW182930  10.822   3.090   3.493
60366SOL    HW282931  10.902   3.076   3.621
60367SOL     OW82932   1.937  10.211   5.773
60367SOL    HW182933   2.024  10.226   5.810
60367SOL    HW282934   1.903  10.136   5.821
60368SOL     OW82935  11.662   9.053   5.460
60368SOL    HW182936  11.632   9.069   5.371
60368SOL    HW282937  11.588   9.011   5.504
60369SOL     OW82938   9.005   3.540  13.721
60369SOL    HW182939   8.980   3.481  13.650
60369SOL    HW282940   8.925   3.589  13.742
60370SOL     OW82941   5.694   6.166   9.625
60370SOL    HW182942   5.731   6.247   9.591
60370SOL    HW282943   5.671   6.115   9.547
60371SOL     OW82944  11.089   3.661   6.500
60371SOL    HW182945  11.114   3.647   6.408
60371SOL    HW282946  11.105   3.754   6.515
60372SOL     OW82947   7.633   5.321   1.165
60372SOL    HW182948   7.713   5.366   1.137
60372SOL    HW282949   7.663   5.259   1.232
60373SOL     OW82950  14.721   9.016   5.559
60373SOL    HW182951  14.771   9.088   5.598
60373SOL    HW282952  14.786   8.947   5.544
60374SOL     OW82953  13.033   1.995   8.629
60374SOL    HW182954  12.961   1.948   8.586
60374SOL    HW282955  13.078   1.928   8.679
60375SOL     OW82956  12.292   0.874   2.313
60375SOL    HW182957  12.256   0.840   2.396
60375SOL    HW282958  12.328   0.960   2.336
60376SOL     OW82959   6.450   4.067   2.060
60376SOL    HW182960   6.470   4.112   2.142
60376SOL    HW282961   6.525   4.010   2.045
60377SOL     OW82962   1.531  13.822  10.575
60377SOL    HW182963   1.533  13.740  10.625
60377SOL    HW282964   1.574  13.886  10.632
60378SOL     OW82965   6.391   2.848   4.404
60378SOL    HW182966   6.356   2.922   4.455
60378SOL    HW282967   6.475   2.880   4.371
60379SOL     OW82968   1.003   0.379   6.401
60379SOL    HW182969   1.070   0.428   6.351
60379SOL    HW282970   0.953   0.447   6.446
60380SOL     OW82971   6.675   5.876   1.003
60380SOL    HW182972   6.723   5.931   0.941
60380SOL    HW282973   6.678   5.788   0.965
60381SOL     OW82974  11.030   9.390  10.039
60381SOL    HW182975  10.995   9.360  10.123
60381SOL    HW282976  11.089   9.321  10.011
60382SOL     OW82977   6.214   0.792  13.270
60382SOL    HW182978   6.237   0.840  13.190
60382SOL    HW282979   6.290   0.804  13.328
60383SOL     OW82980   6.825  13.942   6.040
60383SOL    HW182981   6.884  13.967   5.969
60383SOL    HW282982   6.880  13.895   6.103
60384SOL     OW82983   9.295  10.271   9.461
60384SOL    HW182984   9.293  10.366   9.451
60384SOL    HW282985   9.320  10.256   9.552
60385SOL     OW82986   7.324   7.854   9.408
60385SOL    HW182987   7.242   7.873   9.363
60385SOL    HW282988   7.325   7.759   9.418
60386SOL     OW82989   8.558   2.228  14.722
60386SOL    HW182990   8.493   2.202  14.656
60386SOL    HW282991   8.631   2.167  14.710
60387SOL     OW82992  10.973   8.033  11.641
60387SOL    HW182993  11.003   8.020  11.731
60387SOL    HW282994  11.043   8.085  11.600
60388SOL     OW82995   5.635  14.754   2.811
60388SOL    HW182996   5.654  14.841   2.844
60388SOL    HW282997   5.587  14.768   2.730
60389SOL     OW82998  14.554  10.142  10.467
60389SOL    HW182999  14.481  10.147  10.529
60389SOL    HW283000  14.601  10.062  10.493
60390SOL     OW83001  13.661   9.948   6.573
60390SOL    HW183002  13.653  10.024   6.630
60390SOL    HW283003  13.722   9.975   6.504
60391SOL     OW83004   6.468   0.978   5.585
60391SOL    HW183005   6.555   0.963   5.550
60391SOL    HW283006   6.435   1.055   5.538
60392SOL     OW83007   3.745   9.924   7.929
60392SOL    HW183008   3.704   9.877   7.856
60392SOL    HW283009   3.829   9.879   7.943
60393SOL     OW83010   8.483   0.087   8.222
60393SOL    HW183011   8.528   0.068   8.139
60393SOL    HW283012   8.392   0.102   8.197
60394SOL     OW83013   1.244  10.880   1.955
60394SOL    HW183014   1.153  10.905   1.939
60394SOL    HW283015   1.293  10.927   1.887
60395SOL     OW83016  12.535  11.878   4.999
60395SOL    HW183017  12.557  11.971   4.999
60395SOL    HW283018  12.605  11.836   4.950
60396SOL     OW83019   9.785   3.274   5.177
60396SOL    HW183020   9.797   3.352   5.122
60396SOL    HW283021   9.755   3.309   5.261
60397SOL     OW83022  13.092   6.964   0.892
60397SOL    HW183023  13.057   6.940   0.978
60397SOL    HW283024  13.125   7.053   0.904
60398SOL     OW83025  10.706   4.068   0.824
60398SOL    HW183026  10.712   4.116   0.907
60398SOL    HW283027  10.679   4.134   0.760
60399SOL     OW83028   0.232   7.180  10.530
60399SOL    HW183029   0.187   7.157  10.449
60399SOL    HW283030   0.271   7.099  10.561
60400SOL     OW83031   6.072   1.212   3.324
60400SOL    HW183032   6.132   1.287   3.319
60400SOL    HW283033   6.126   1.141   3.359
60401SOL     OW83034   4.842  13.799   8.920
60401SOL    HW183035   4.796  13.824   9.000
60401SOL    HW283036   4.836  13.703   8.918
60402SOL     OW83037   1.454   1.751   8.727
60402SOL    HW183038   1.431   1.663   8.696
60402SOL    HW283039   1.381   1.776   8.784
60403SOL     OW83040   4.276   9.608   0.804
60403SOL    HW183041   4.354   9.557   0.783
60403SOL    HW283042   4.235   9.559   0.876
60404SOL     OW83043   4.980   6.191   5.201
60404SOL    HW183044   5.021   6.171   5.284
60404SOL    HW283045   4.937   6.276   5.215
60405SOL     OW83046   6.808  10.628   8.693
60405SOL    HW183047   6.874  10.659   8.631
60405SOL    HW283048   6.830  10.536   8.706
60406SOL     OW83049   2.108   5.939   8.691
60406SOL    HW183050   2.101   5.916   8.599
60406SOL    HW283051   2.168   6.014   8.693
60407SOL     OW83052   2.690   8.526   1.069
60407SOL    HW183053   2.613   8.484   1.028
60407SOL    HW283054   2.741   8.558   0.995
60408SOL     OW83055   8.288   1.490  10.375
60408SOL    HW183056   8.197   1.462  10.384
60408SOL    HW283057   8.305   1.486  10.280
60409SOL     OW83058  11.849  10.216   4.710
60409SOL    HW183059  11.854  10.308   4.682
60409SOL    HW283060  11.917  10.207   4.776
60410SOL     OW83061  13.689  12.778   6.569
60410SOL    HW183062  13.661  12.795   6.479
60410SOL    HW283063  13.737  12.695   6.564
60411SOL     OW83064   5.673   4.570   5.489
60411SOL    HW183065   5.751   4.586   5.436
60411SOL    HW283066   5.635   4.491   5.450
60412SOL     OW83067   7.186  12.712  12.334
60412SOL    HW183068   7.263  12.736  12.386
60412SOL    HW283069   7.125  12.785  12.347
60413SOL     OW83070  14.640   0.354   7.807
60413SOL    HW183071  14.698   0.306   7.747
60413SOL    HW283072  14.555   0.312   7.797
60414SOL     OW83073  14.194   5.241   3.908
60414SOL    HW183074  14.207   5.198   3.992
60414SOL    HW283075  14.259   5.311   3.906
60415SOL     OW83076   6.666   0.343   0.622
60415SOL    HW183077   6.637   0.276   0.560
60415SOL    HW283078   6.751   0.312   0.653
60416SOL     OW83079   6.748   8.106   0.004
60416SOL    HW183080   6.815   8.059   0.053
60416SOL    HW283081   6.769   8.199   0.017
60417SOL     OW83082   3.875   5.591   6.224
60417SOL    HW183083   3.958   5.548   6.203
60417SOL    HW283084   3.813   5.519   6.232
60418SOL     OW83085   3.901   7.338   6.142
60418SOL    HW183086   3.978   7.294   6.105
60418SOL    HW283087   3.829   7.279   6.125
60419SOL     OW83088   6.904   9.524   3.399
60419SOL    HW183089   6.907   9.503   3.492
60419SOL    HW283090   6.810   9.531   3.380
60420SOL     OW83091   7.217   6.174   7.743
60420SOL    HW183092   7.143   6.234   7.748
60420SOL    HW283093   7.293   6.227   7.769
60421SOL     OW83094   0.311   7.336  14.608
60421SOL    HW183095   0.257   7.395  14.661
60421SOL    HW283096   0.283   7.352  14.518
60422SOL     OW83097   6.260   2.939   2.467
60422SOL    HW183098   6.269   3.022   2.515
60422SOL    HW283099   6.316   2.878   2.515
60423SOL     OW83100   0.318  14.170  12.954
60423SOL    HW183101   0.308  14.266  12.958
60423SOL    HW283102   0.269  14.138  13.029
60424SOL     OW83103  14.124   3.389   6.931
60424SOL    HW183104  14.053   3.336   6.895
60424SOL    HW283105  14.091   3.479   6.929
60425SOL     OW83106   7.939   6.559   1.290
60425SOL    HW183107   7.962   6.469   1.311
60425SOL    HW283108   7.959   6.568   1.197
60426SOL     OW83109   6.854  10.360   3.232
60426SOL    HW183110   6.813  10.434   3.275
60426SOL    HW283111   6.808  10.283   3.266
60427SOL     OW83112   0.920   4.749  12.885
60427SOL    HW183113   0.968   4.820  12.842
60427SOL    HW283114   0.971   4.730  12.964
60428SOL     OW83115   4.499  11.821   4.003
60428SOL    HW183116   4.446  11.744   3.986
60428SOL    HW283117   4.539  11.842   3.919
60429SOL     OW83118  13.445   1.823   0.492
60429SOL    HW183119  13.494   1.846   0.571
60429SOL    HW283120  13.354   1.847   0.513
60430SOL     OW83121   6.386   8.485   6.683
60430SOL    HW183122   6.332   8.411   6.712
60430SOL    HW283123   6.354   8.504   6.595
60431SOL     OW83124  12.920   8.519   4.788
60431SOL    HW183125  12.925   8.428   4.816
60431SOL    HW283126  12.931   8.515   4.693
60432SOL     OW83127   8.954  13.048   4.090
60432SOL    HW183128   8.881  13.051   4.151
60432SOL    HW283129   9.004  12.970   4.115
60433SOL     OW83130   4.700   8.881  11.344
60433SOL    HW183131   4.749   8.833  11.411
60433SOL    HW283132   4.610   8.849  11.353
60434SOL     OW83133   9.152   0.296  10.806
60434SOL    HW183134   9.141   0.201  10.800
60434SOL    HW283135   9.244   0.310  10.782
60435SOL     OW83136  12.655  10.766  12.081
60435SOL    HW183137  12.709  10.845  12.088
60435SOL    HW283138  12.677  10.715  12.159
60436SOL     OW83139  14.468   4.755   3.578
60436SOL    HW183140  14.427   4.772   3.493
60436SOL    HW283141  14.421   4.681   3.614
60437SOL     OW83142  11.651  10.390   1.357
60437SOL    HW183143  11.619  10.321   1.415
60437SOL    HW283144  11.613  10.470   1.392
60438SOL     OW83145   7.107   0.275   4.855
60438SOL    HW183146   7.020   0.309   4.874
60438SOL    HW283147   7.092   0.183   4.834
60439SOL     OW83148  14.573  11.738   8.264
60439SOL    HW183149  14.583  11.648   8.295
60439SOL    HW283150  14.580  11.731   8.168
60440SOL     OW83151   7.828   2.661   4.753
60440SOL    HW183152   7.764   2.625   4.814
60440SOL    HW283153   7.790   2.743   4.724
60441SOL     OW83154  12.991   2.420   0.069
60441SOL    HW183155  13.072   2.368   0.076
60441SOL    HW283156  13.016   2.507   0.101
60442SOL     OW83157   6.449   6.858  13.259
60442SOL    HW183158   6.437   6.769  13.226
60442SOL    HW283159   6.464   6.911  13.180
60443SOL     OW83160   7.494   9.531  14.222
60443SOL    HW183161   7.584   9.502  14.233
60443SOL    HW283162   7.447   9.489  14.294
60444SOL     OW83163   6.681   6.534   6.582
60444SOL    HW183164   6.721   6.621   6.581
60444SOL    HW283165   6.622   6.533   6.507
60445SOL     OW83166   6.472  14.529   1.801
60445SOL    HW183167   6.401  14.535   1.865
60445SOL    HW283168   6.530  14.602   1.821
60446SOL     OW83169   9.774  10.399   3.907
60446SOL    HW183170   9.867  10.393   3.929
60446SOL    HW283171   9.729  10.369   3.985
60447SOL     OW83172   9.468   1.993   9.717
60447SOL    HW183173   9.438   1.922   9.775
60447SOL    HW283174   9.396   2.056   9.718
60448SOL     OW83175  12.837   3.298  10.263
60448SOL    HW183176  12.758   3.245  10.256
60448SOL    HW283177  12.909   3.234  10.256
60449SOL     OW83178   4.629   2.020   7.242
60449SOL    HW183179   4.674   1.957   7.186
60449SOL    HW283180   4.662   2.001   7.330
60450SOL     OW83181  12.804  12.653   7.089
60450SOL    HW183182  12.829  12.566   7.119
60450SOL    HW283183  12.791  12.643   6.994
60451SOL     OW83184   3.111   4.126   2.876
60451SOL    HW183185   3.170   4.153   2.947
60451SOL    HW283186   3.084   4.037   2.899
60452SOL     OW83187   5.568  11.781   0.338
60452SOL    HW183188   5.495  11.822   0.292
60452SOL    HW283189   5.641  11.787   0.277
60453SOL     OW83190   5.695  12.818   1.844
60453SOL    HW183191   5.695  12.894   1.902
60453SOL    HW283192   5.765  12.836   1.781
60454SOL     OW83193   4.017  12.520   4.616
60454SOL    HW183194   4.048  12.601   4.574
60454SOL    HW283195   4.090  12.493   4.671
60455SOL     OW83196   4.154   5.623   2.634
60455SOL    HW183197   4.236   5.616   2.683
60455SOL    HW283198   4.175   5.681   2.561
60456SOL     OW83199  10.832   2.335   5.810
60456SOL    HW183200  10.905   2.305   5.863
60456SOL    HW283201  10.796   2.410   5.858
60457SOL     OW83202  10.781   9.110  10.111
60457SOL    HW183203  10.852   9.122  10.048
60457SOL    HW283204  10.762   9.017  10.108
60458SOL     OW83205  11.047  10.779  14.789
60458SOL    HW183206  11.002  10.831  14.723
60458SOL    HW283207  10.977  10.742  14.842
60459SOL     OW83208   8.916   4.691  10.059
60459SOL    HW183209   8.832   4.712  10.019
60459SOL    HW283210   8.941   4.607  10.021
60460SOL     OW83211   6.308   0.664  10.814
60460SOL    HW183212   6.282   0.755  10.821
60460SOL    HW283213   6.338   0.640  10.902
60461SOL     OW83214   0.993   8.353   5.600
60461SOL    HW183215   1.073   8.340   5.651
60461SOL    HW283216   1.008   8.304   5.519
60462SOL     OW83217   9.730   2.655  14.644
60462SOL    HW183218   9.813   2.668  14.599
60462SOL    HW283219   9.734   2.714  14.720
60463SOL     OW83220   9.828  13.315   2.272
60463SOL    HW183221   9.882  13.393   2.278
60463SOL    HW283222   9.740  13.348   2.252
60464SOL     OW83223   9.288   2.152  10.861
60464SOL    HW183224   9.293   2.243  10.890
60464SOL    HW283225   9.375   2.116  10.879
60465SOL     OW83226   7.136   5.613   5.903
60465SOL    HW183227   7.204   5.678   5.887
60465SOL    HW283228   7.150   5.547   5.835
60466SOL     OW83229   6.712   4.268   3.873
60466SOL    HW183230   6.756   4.264   3.958
60466SOL    HW283231   6.726   4.358   3.844
60467SOL     OW83232   8.470   2.116   3.736
60467SOL    HW183233   8.535   2.059   3.777
60467SOL    HW283234   8.431   2.062   3.667
60468SOL     OW83235   7.957   2.197  14.652
60468SOL    HW183236   7.925   2.145  14.726
60468SOL    HW283237   7.983   2.281  14.690
60469SOL     OW83238  12.943   7.245  12.697
60469SOL    HW183239  12.873   7.193  12.737
60469SOL    HW283240  12.898   7.305  12.638
60470SOL     OW83241   3.147  11.325  11.241
60470SOL    HW183242   3.224  11.270  11.253
60470SOL    HW283243   3.108  11.295  11.159
60471SOL     OW83244   9.840   0.030  12.950
60471SOL    HW183245   9.919  14.851  12.948
60471SOL    HW283246   9.862   0.101  13.012
60472SOL     OW83247  12.771   2.213   7.066
60472SOL    HW183248  12.790   2.128   7.026
60472SOL    HW283249  12.847   2.231   7.121
60473SOL     OW83250  11.293   4.474  13.097
60473SOL    HW183251  11.313   4.530  13.021
60473SOL    HW283252  11.327   4.522  13.172
60474SOL     OW83253  11.076  13.309   6.191
60474SOL    HW183254  11.120  13.394   6.196
60474SOL    HW283255  11.147  13.246   6.181
60475SOL     OW83256  12.033   9.876  11.461
60475SOL    HW183257  12.093   9.864  11.535
60475SOL    HW283258  12.091   9.879  11.384
60476SOL     OW83259   0.817   3.928   3.150
60476SOL    HW183260   0.746   3.985   3.120
60476SOL    HW283261   0.794   3.907   3.241
60477SOL     OW83262   5.916   2.473   0.897
60477SOL    HW183263   5.890   2.384   0.873
60477SOL    HW283264   5.844   2.528   0.866
60478SOL     OW83265  14.519  13.408   6.184
60478SOL    HW183266  14.516  13.313   6.191
60478SOL    HW283267  14.461  13.439   6.254
60479SOL     OW83268  13.040   7.356  13.348
60479SOL    HW183269  13.121   7.362  13.297
60479SOL    HW283270  12.988   7.432  13.319
60480SOL     OW83271  14.702   2.490   3.594
60480SOL    HW183272  14.742   2.509   3.679
60480SOL    HW283273  14.775   2.486   3.533
60481SOL     OW83274   0.075  14.856   7.216
60481SOL    HW183275   0.042  14.805   7.142
60481SOL    HW283276   0.062  14.799   7.292
60482SOL     OW83277  10.254   2.120   6.873
60482SOL    HW183278  10.196   2.196   6.872
60482SOL    HW283279  10.199   2.048   6.905
60483SOL     OW83280  14.528   9.858   2.788
60483SOL    HW183281  14.435   9.837   2.794
60483SOL    HW283282  14.537   9.908   2.707
60484SOL     OW83283  10.727   1.507  14.545
60484SOL    HW183284  10.693   1.521  14.456
60484SOL    HW283285  10.722   1.593  14.586
60485SOL     OW83286   3.716   1.121  12.002
60485SOL    HW183287   3.787   1.162  11.952
60485SOL    HW283288   3.738   1.140  12.093
60486SOL     OW83289  10.521   6.260   3.322
60486SOL    HW183290  10.427   6.242   3.317
60486SOL    HW283291  10.532   6.340   3.272
60487SOL     OW83292   8.641  13.979   6.504
60487SOL    HW183293   8.595  14.038   6.444
60487SOL    HW283294   8.579  13.906   6.516
60488SOL     OW83295   2.729   4.034   4.768
60488SOL    HW183296   2.688   3.948   4.759
60488SOL    HW283297   2.819   4.021   4.740
60489SOL     OW83298  10.243   4.051  12.629
60489SOL    HW183299  10.227   3.988  12.699
60489SOL    HW283300  10.212   4.135  12.664
60490SOL     OW83301   2.001   2.951  10.331
60490SOL    HW183302   2.063   2.923  10.264
60490SOL    HW283303   1.946   3.017  10.287
60491SOL     OW83304   8.868   1.424   4.423
60491SOL    HW183305   8.848   1.470   4.505
60491SOL    HW283306   8.955   1.456   4.398
60492SOL     OW83307  11.780  13.994   4.247
60492SOL    HW183308  11.855  13.957   4.202
60492SOL    HW283309  11.727  13.917   4.271
60493SOL     OW83310   1.471   3.701  12.225
60493SOL    HW183311   1.514   3.744  12.151
60493SOL    HW283312   1.515   3.616  12.232
60494SOL     OW83313   7.127   9.521   9.534
60494SOL    HW183314   7.093   9.445   9.487
60494SOL    HW283315   7.108   9.595   9.477
60495SOL     OW83316  11.775   0.493   2.740
60495SOL    HW183317  11.710   0.526   2.678
60495SOL    HW283318  11.726   0.477   2.820
60496SOL     OW83319   3.761   1.829   8.952
60496SOL    HW183320   3.852   1.802   8.960
60496SOL    HW283321   3.714   1.777   9.018
60497SOL     OW83322  12.130   8.244   4.441
60497SOL    HW183323  12.210   8.262   4.391
60497SOL    HW283324  12.124   8.316   4.504
60498SOL     OW83325   5.859   2.977  13.178
60498SOL    HW183326   5.931   3.040  13.176
60498SOL    HW283327   5.900   2.892  13.158
60499SOL     OW83328   1.715  10.970   0.607
60499SOL    HW183329   1.773  10.916   0.661
60499SOL    HW283330   1.714  10.925   0.522
60500SOL     OW83331  10.232   9.351   2.544
60500SOL    HW183332  10.197   9.420   2.488
60500SOL    HW283333  10.168   9.342   2.614
60501SOL     OW83334   5.164   0.960  13.762
60501SOL    HW183335   5.102   1.032  13.771
60501SOL    HW283336   5.182   0.954  13.669
60502SOL     OW83337   8.079  13.359   9.135
60502SOL    HW183338   8.149  13.383   9.075
60502SOL    HW283339   8.015  13.313   9.080
60503SOL     OW83340  13.871   9.537   1.528
60503SOL    HW183341  13.834   9.622   1.551
60503SOL    HW283342  13.802   9.474   1.549
60504SOL     OW83343  13.499   7.357  14.160
60504SOL    HW183344  13.417   7.349  14.207
60504SOL    HW283345  13.503   7.279  14.105
60505SOL     OW83346   6.601   6.517   9.764
60505SOL    HW183347   6.649   6.557   9.692
60505SOL    HW283348   6.566   6.590   9.814
60506SOL     OW83349  11.211   2.532  13.799
60506SOL    HW183350  11.264   2.586  13.741
60506SOL    HW283351  11.120   2.553  13.776
60507SOL     OW83352  10.504  10.611  12.597
60507SOL    HW183353  10.587  10.658  12.609
60507SOL    HW283354  10.498  10.554  12.673
60508SOL     OW83355   1.638  13.120   4.980
60508SOL    HW183356   1.567  13.065   4.947
60508SOL    HW283357   1.673  13.163   4.902
60509SOL     OW83358   6.094   9.632   2.742
60509SOL    HW183359   6.072   9.543   2.714
60509SOL    HW283360   6.149   9.666   2.671
60510SOL     OW83361   3.745  14.289   7.357
60510SOL    HW183362   3.654  14.263   7.366
60510SOL    HW283363   3.750  14.373   7.402
60511SOL     OW83364   8.925   5.566   2.835
60511SOL    HW183365   8.840   5.573   2.792
60511SOL    HW283366   8.918   5.622   2.912
60512SOL     OW83367  11.669  11.336   1.167
60512SOL    HW183368  11.684  11.315   1.075
60512SOL    HW283369  11.733  11.285   1.214
60513SOL     OW83370   5.571  11.222   0.524
60513SOL    HW183371   5.612  11.298   0.483
60513SOL    HW283372   5.497  11.258   0.572
60514SOL     OW83373   1.361   7.067  14.405
60514SOL    HW183374   1.364   7.093  14.313
60514SOL    HW283375   1.393   6.977  14.406
60515SOL     OW83376  13.131  11.396   8.843
60515SOL    HW183377  13.058  11.440   8.887
60515SOL    HW283378  13.090  11.348   8.771
60516SOL     OW83379   5.432  11.722   7.679
60516SOL    HW183380   5.508  11.666   7.663
60516SOL    HW283381   5.414  11.764   7.595
60517SOL     OW83382   2.109  11.962   5.773
60517SOL    HW183383   2.173  12.011   5.825
60517SOL    HW283384   2.135  11.870   5.782
60518SOL     OW83385  10.519   3.242   7.673
60518SOL    HW183386  10.451   3.205   7.617
60518SOL    HW283387  10.498   3.210   7.761
60519SOL     OW83388  10.358  12.445  11.978
60519SOL    HW183389  10.266  12.444  12.002
60519SOL    HW283390  10.390  12.530  12.009
60520SOL     OW83391  13.712  12.594   9.717
60520SOL    HW183392  13.645  12.586   9.649
60520SOL    HW283393  13.693  12.677   9.761
60521SOL     OW83394  14.595  11.788   6.530
60521SOL    HW183395  14.594  11.811   6.437
60521SOL    HW283396  14.531  11.717   6.538
60522SOL     OW83397   8.813   5.384   8.023
60522SOL    HW183398   8.780   5.402   8.111
60522SOL    HW283399   8.775   5.453   7.969
60523SOL     OW83400   8.557   6.769  10.602
60523SOL    HW183401   8.576   6.764  10.508
60523SOL    HW283402   8.642   6.760  10.645
60524SOL     OW83403   3.063  11.096  11.051
60524SOL    HW183404   2.978  11.101  11.007
60524SOL    HW283405   3.050  11.034  11.123
60525SOL     OW83406   8.921   0.668   0.545
60525SOL    HW183407   8.852   0.609   0.515
60525SOL    HW283408   9.002   0.627   0.516
60526SOL     OW83409  14.601  10.555   0.775
60526SOL    HW183410  14.636  10.589   0.858
60526SOL    HW283411  14.667  10.577   0.710
60527SOL     OW83412  14.374  12.865  11.759
60527SOL    HW183413  14.345  12.817  11.837
60527SOL    HW283414  14.456  12.822  11.733
60528SOL     OW83415   2.520   1.926  13.055
60528SOL    HW183416   2.584   1.891  13.118
60528SOL    HW283417   2.439   1.934  13.105
60529SOL     OW83418  12.041   1.556  14.724
60529SOL    HW183419  12.014   1.477  14.771
60529SOL    HW283420  12.049   1.623  14.792
60530SOL     OW83421   0.974   8.323  10.463
60530SOL    HW183422   1.057   8.355  10.499
60530SOL    HW283423   0.999   8.274  10.385
60531SOL     OW83424   8.377   4.959   8.887
60531SOL    HW183425   8.410   5.048   8.874
60531SOL    HW283426   8.403   4.912   8.808
60532SOL     OW83427  13.773   7.277   3.305
60532SOL    HW183428  13.853   7.242   3.343
60532SOL    HW283429  13.759   7.361   3.350
60533SOL     OW83430   0.910  14.162   6.488
60533SOL    HW183431   0.893  14.070   6.507
60533SOL    HW283432   0.992  14.181   6.534
60534SOL     OW83433  11.075   6.234   9.529
60534SOL    HW183434  11.024   6.250   9.450
60534SOL    HW283435  11.066   6.314   9.580
60535SOL     OW83436   9.358  11.226  14.453
60535SOL    HW183437   9.420  11.211  14.524
60535SOL    HW283438   9.386  11.165  14.384
60536SOL     OW83439  11.949   7.682   6.381
60536SOL    HW183440  11.887   7.754   6.371
60536SOL    HW283441  11.914   7.611   6.328
60537SOL     OW83442   4.176   0.809   2.465
60537SOL    HW183443   4.104   0.853   2.419
60537SOL    HW283444   4.231   0.880   2.497
60538SOL     OW83445  11.612   0.583  14.670
60538SOL    HW183446  11.570   0.664  14.643
60538SOL    HW283447  11.700   0.608  14.695
60539SOL     OW83448  14.129  12.106   4.289
60539SOL    HW183449  14.134  12.114   4.193
60539SOL    HW283450  14.066  12.174   4.315
60540SOL     OW83451  13.135  10.506   3.595
60540SOL    HW183452  13.137  10.479   3.686
60540SOL    HW283453  13.217  10.553   3.581
60541SOL     OW83454   4.966   8.571   6.641
60541SOL    HW183455   5.010   8.486   6.644
60541SOL    HW283456   5.014   8.621   6.576
60542SOL     OW83457  10.455  13.106   3.510
60542SOL    HW183458  10.499  13.026   3.483
60542SOL    HW283459  10.515  13.177   3.485
60543SOL     OW83460   3.838   6.831   4.507
60543SOL    HW183461   3.911   6.888   4.481
60543SOL    HW283462   3.762   6.866   4.461
60544SOL     OW83463   9.950  14.398   5.064
60544SOL    HW183464  10.031  14.384   5.112
60544SOL    HW283465   9.887  14.338   5.105
60545SOL     OW83466   2.430   5.539   3.000
60545SOL    HW183467   2.494   5.469   2.988
60545SOL    HW283468   2.394   5.554   2.913
60546SOL     OW83469   2.819   1.100  10.802
60546SOL    HW183470   2.839   1.078  10.893
60546SOL    HW283471   2.726   1.078  10.792
60547SOL     OW83472  11.336  13.592   6.748
60547SOL    HW183473  11.314  13.508   6.787
60547SOL    HW283474  11.271  13.604   6.678
60548SOL     OW83475   5.439   9.423   5.923
60548SOL    HW183476   5.448   9.379   6.008
60548SOL    HW283477   5.491   9.503   5.933
60549SOL     OW83478   3.090   2.365   5.970
60549SOL    HW183479   3.099   2.290   5.911
60549SOL    HW283480   3.042   2.331   6.046
60550SOL     OW83481  11.946  12.292   1.485
60550SOL    HW183482  12.034  12.329   1.488
60550SOL    HW283483  11.893  12.358   1.439
60551SOL     OW83484  13.804   6.639  14.366
60551SOL    HW183485  13.836   6.612  14.452
60551SOL    HW283486  13.880   6.682  14.325
60552SOL     OW83487   7.980   6.863   3.419
60552SOL    HW183488   8.030   6.942   3.400
60552SOL    HW283489   7.913   6.860   3.350
60553SOL     OW83490   5.069   9.364  11.118
60553SOL    HW183491   5.025   9.314  11.050
60553SOL    HW283492   5.154   9.386  11.080
60554SOL     OW83493   1.055  12.357   0.114
60554SOL    HW183494   1.106  12.438   0.125
60554SOL    HW283495   1.027  12.359   0.022
60555SOL     OW83496  11.444   3.087   8.889
60555SOL    HW183497  11.484   3.139   8.819
60555SOL    HW283498  11.482   3.000   8.878
60556SOL     OW83499  14.485   7.246   9.275
60556SOL    HW183500  14.505   7.289   9.192
60556SOL    HW283501  14.429   7.308   9.322
60557SOL     OW83502   3.158  10.957   6.570
60557SOL    HW183503   3.200  11.022   6.513
60557SOL    HW283504   3.135  11.007   6.649
60558SOL     OW83505  13.301   2.494   2.126
60558SOL    HW183506  13.309   2.434   2.200
60558SOL    HW283507  13.365   2.562   2.143
60559SOL     OW83508   9.378   6.334   4.241
60559SOL    HW183509   9.329   6.261   4.278
60559SOL    HW283510   9.329   6.360   4.164
60560SOL     OW83511  13.344   0.178  12.971
60560SOL    HW183512  13.357   0.086  12.996
60560SOL    HW283513  13.332   0.224  13.053
60561SOL     OW83514  13.355  12.515  11.937
60561SOL    HW183515  13.361  12.479  12.025
60561SOL    HW283516  13.310  12.599  11.948
60562SOL     OW83517   7.425   1.859   8.906
60562SOL    HW183518   7.520   1.868   8.913
60562SOL    HW283519   7.406   1.879   8.815
60563SOL     OW83520   7.438   7.858   4.443
60563SOL    HW183521   7.404   7.771   4.420
60563SOL    HW283522   7.365   7.917   4.428
60564SOL     OW83523   0.509   5.799   3.699
60564SOL    HW183524   0.557   5.717   3.714
60564SOL    HW283525   0.561   5.845   3.634
60565SOL     OW83526   9.169   9.212  10.762
60565SOL    HW183527   9.093   9.165  10.794
60565SOL    HW283528   9.135   9.267  10.691
60566SOL     OW83529  13.472   7.181   0.060
60566SOL    HW183530  13.527   7.103   0.068
60566SOL    HW283531  13.433   7.174  14.849
60567SOL     OW83532  12.968   9.556   7.628
60567SOL    HW183533  12.938   9.535   7.539
60567SOL    HW283534  12.899   9.521   7.685
60568SOL     OW83535   2.832   8.268   9.868
60568SOL    HW183536   2.752   8.258   9.921
60568SOL    HW283537   2.849   8.180   9.834
60569SOL     OW83538  14.409  14.694  12.315
60569SOL    HW183539  14.429  14.672  12.224
60569SOL    HW283540  14.493  14.720  12.353
60570SOL     OW83541   7.363  11.700   5.099
60570SOL    HW183542   7.274  11.670   5.080
60570SOL    HW283543   7.396  11.732   5.015
60571SOL     OW83544   6.338   1.455  13.530
60571SOL    HW183545   6.322   1.454  13.624
60571SOL    HW283546   6.335   1.363  13.503
60572SOL     OW83547   6.524   0.080   6.330
60572SOL    HW183548   6.551   0.051   6.418
60572SOL    HW283549   6.600   0.127   6.296
60573SOL     OW83550   7.894   7.242   1.272
60573SOL    HW183551   7.913   7.217   1.182
60573SOL    HW283552   7.820   7.302   1.265
60574SOL     OW83553  12.086   9.512   1.903
60574SOL    HW183554  12.174   9.550   1.899
60574SOL    HW283555  12.040   9.563   1.969
60575SOL     OW83556  11.249  13.205  11.333
60575SOL    HW183557  11.168  13.195  11.282
60575SOL    HW283558  11.314  13.154  11.284
60576SOL     OW83559   7.377  11.971   8.744
60576SOL    HW183560   7.325  11.911   8.691
60576SOL    HW283561   7.436  12.014   8.682
60577SOL     OW83562  11.555   0.516   2.919
60577SOL    HW183563  11.482   0.576   2.906
60577SOL    HW283564  11.524   0.432   2.886
60578SOL     OW83565  10.441  14.690   4.139
60578SOL    HW183566  10.380  14.734   4.082
60578SOL    HW283567  10.513  14.752   4.151
60579SOL     OW83568  13.083  11.801   6.708
60579SOL    HW183569  12.991  11.806   6.682
60579SOL    HW283570  13.130  11.852   6.641
60580SOL     OW83571   6.369  13.758  10.209
60580SOL    HW183572   6.404  13.730  10.123
60580SOL    HW283573   6.357  13.852  10.200
60581SOL     OW83574   4.021   6.970  10.554
60581SOL    HW183575   4.070   6.936  10.629
60581SOL    HW283576   3.962   7.035  10.592
60582SOL     OW83577  11.801   9.058  14.385
60582SOL    HW183578  11.706   9.053  14.397
60582SOL    HW283579  11.837   9.006  14.458
60583SOL     OW83580  10.987   1.879   9.973
60583SOL    HW183581  10.953   1.828  10.047
60583SOL    HW283582  11.081   1.861   9.973
60584SOL     OW83583   3.663  11.783   0.323
60584SOL    HW183584   3.603  11.709   0.334
60584SOL    HW283585   3.728  11.772   0.392
60585SOL     OW83586  14.852   4.490  10.565
60585SOL    HW183587   0.043   4.498  10.632
60585SOL    HW283588   0.022   4.510  10.483
60586SOL     OW83589   6.126   1.984   5.005
60586SOL    HW183590   6.095   1.923   5.072
60586SOL    HW283591   6.089   1.951   4.923
60587SOL     OW83592   0.334   8.563  10.204
60587SOL    HW183593   0.255   8.566  10.258
60587SOL    HW283594   0.362   8.471  10.210
60588SOL     OW83595   0.847   9.426   3.837
60588SOL    HW183596   0.826   9.357   3.900
60588SOL    HW283597   0.894   9.492   3.888
60589SOL     OW83598   4.451   4.882   7.922
60589SOL    HW183599   4.357   4.895   7.907
60589SOL    HW283600   4.494   4.938   7.859
60590SOL     OW83601  12.874   2.199   9.918
60590SOL    HW183602  12.798   2.229   9.869
60590SOL    HW283603  12.838   2.138   9.983
60591SOL     OW83604  13.202  13.415   6.521
60591SOL    HW183605  13.242  13.482   6.466
60591SOL    HW283606  13.108  13.431   6.514
60592SOL     OW83607   0.607  13.437   9.254
60592SOL    HW183608   0.591  13.408   9.344
60592SOL    HW283609   0.579  13.363   9.200
60593SOL     OW83610  14.001  11.412  12.835
60593SOL    HW183611  13.908  11.389  12.833
60593SOL    HW283612  14.042  11.345  12.890
60594SOL     OW83613   8.598   8.616   8.220
60594SOL    HW183614   8.509   8.582   8.223
60594SOL    HW283615   8.597   8.681   8.150
60595SOL     OW83616  11.767   6.998   5.914
60595SOL    HW183617  11.738   7.010   6.005
60595SOL    HW283618  11.764   6.904   5.900
60596SOL     OW83619   4.078   8.889   6.656
60596SOL    HW183620   4.063   8.844   6.573
60596SOL    HW283621   4.079   8.819   6.722
60597SOL     OW83622   4.018   0.296   6.007
60597SOL    HW183623   4.067   0.232   5.957
60597SOL    HW283624   3.984   0.246   6.082
60598SOL     OW83625  11.176   1.609   0.972
60598SOL    HW183626  11.186   1.597   0.877
60598SOL    HW283627  11.094   1.564   0.993
60599SOL     OW83628   0.116   0.824   2.882
60599SOL    HW183629   0.054   0.793   2.947
60599SOL    HW283630   0.085   0.789   2.799
60600SOL     OW83631   6.565   2.736  14.725
60600SOL    HW183632   6.608   2.668  14.777
60600SOL    HW283633   6.492   2.691  14.683
60601SOL     OW83634   6.629  12.862   8.910
60601SOL    HW183635   6.536  12.877   8.929
60601SOL    HW283636   6.668  12.949   8.913
60602SOL     OW83637   1.950  12.030   3.207
60602SOL    HW183638   1.964  12.113   3.161
60602SOL    HW283639   1.908  12.054   3.289
60603SOL     OW83640  10.285   3.465   4.326
60603SOL    HW183641  10.290   3.505   4.239
60603SOL    HW283642  10.369   3.420   4.336
60604SOL     OW83643   6.170   3.239   8.467
60604SOL    HW183644   6.129   3.306   8.412
60604SOL    HW283645   6.206   3.176   8.404
60605SOL     OW83646   1.667   4.957   9.810
60605SOL    HW183647   1.735   5.003   9.760
60605SOL    HW283648   1.651   4.877   9.761
60606SOL     OW83649  12.202   0.972  13.022
60606SOL    HW183650  12.181   1.065  13.011
60606SOL    HW283651  12.169   0.950  13.108
60607SOL     OW83652   4.838   8.022  13.533
60607SOL    HW183653   4.931   8.042  13.544
60607SOL    HW283654   4.828   8.005  13.439
60608SOL     OW83655   2.365   9.787   7.880
60608SOL    HW183656   2.365   9.709   7.825
60608SOL    HW283657   2.278   9.789   7.920
60609SOL     OW83658  14.419  13.274   0.345
60609SOL    HW183659  14.427  13.328   0.267
60609SOL    HW283660  14.408  13.185   0.311
60610SOL     OW83661   8.268   5.533   8.714
60610SOL    HW183662   8.302   5.595   8.778
60610SOL    HW283663   8.197   5.488   8.760
60611SOL     OW83664   6.572   8.744  12.552
60611SOL    HW183665   6.508   8.734  12.622
60611SOL    HW283666   6.538   8.692  12.480
60612SOL     OW83667   0.616   8.720  12.487
60612SOL    HW183668   0.651   8.710  12.398
60612SOL    HW283669   0.682   8.770  12.533
60613SOL     OW83670  10.153  14.828  10.629
60613SOL    HW183671  10.234  14.782  10.651
60613SOL    HW283672  10.102  14.827  10.710
60614SOL     OW83673   2.273  10.879   2.052
60614SOL    HW183674   2.245  10.955   2.001
60614SOL    HW283675   2.365  10.897   2.072
60615SOL     OW83676   4.447   1.438   2.447
60615SOL    HW183677   4.495   1.383   2.385
60615SOL    HW283678   4.395   1.376   2.499
60616SOL     OW83679  14.459   3.925   4.148
60616SOL    HW183680  14.369   3.942   4.118
60616SOL    HW283681  14.498   3.871   4.079
60617SOL     OW83682   9.203  10.973  13.631
60617SOL    HW183683   9.276  10.988  13.691
60617SOL    HW283684   9.142  11.045  13.648
60618SOL     OW83685   0.963   6.838  11.768
60618SOL    HW183686   1.035   6.789  11.808
60618SOL    HW283687   0.981   6.834  11.674
60619SOL     OW83688  14.819  13.249  11.983
60619SOL    HW183689   0.026  13.270  12.026
60619SOL    HW283690  14.779  13.182  12.039
60620SOL     OW83691   0.858  13.256   6.224
60620SOL    HW183692   0.911  13.207   6.160
60620SOL    HW283693   0.819  13.188   6.279
60621SOL     OW83694   9.479  12.245   2.063
60621SOL    HW183695   9.511  12.277   2.147
60621SOL    HW283696   9.399  12.295   2.046
60622SOL     OW83697   9.719   6.950   0.377
60622SOL    HW183698   9.652   6.882   0.372
60622SOL    HW283699   9.746   6.965   0.286
60623SOL     OW83700  14.196  12.398   3.759
60623SOL    HW183701  14.252  12.354   3.694
60623SOL    HW283702  14.128  12.441   3.707
60624SOL     OW83703   2.239   9.419  14.630
60624SOL    HW183704   2.281   9.455  14.708
60624SOL    HW283705   2.156   9.383  14.662
60625SOL     OW83706  14.191   5.085  13.086
60625SOL    HW183707  14.219   5.169  13.050
60625SOL    HW283708  14.233   5.081  13.172
60626SOL     OW83709   9.744   0.451   4.539
60626SOL    HW183710   9.789   0.381   4.586
60626SOL    HW283711   9.764   0.530   4.590
60627SOL     OW83712   9.117   5.850  14.820
60627SOL    HW183713   9.150   5.820   0.030
60627SOL    HW283714   9.076   5.772  14.782
60628SOL     OW83715   4.487   5.364  13.037
60628SOL    HW183716   4.455   5.274  13.042
60628SOL    HW283717   4.535   5.377  13.119
60629SOL     OW83718   7.443   7.087  14.369
60629SOL    HW183719   7.401   7.170  14.347
60629SOL    HW283720   7.404   7.023  14.309
60630SOL     OW83721   4.004   1.114   5.203
60630SOL    HW183722   4.070   1.052   5.232
60630SOL    HW283723   4.033   1.198   5.239
60631SOL     OW83724   6.797   4.992   4.627
60631SOL    HW183725   6.769   5.024   4.542
60631SOL    HW283726   6.814   4.898   4.614
60632SOL     OW83727  11.458   6.881   7.708
60632SOL    HW183728  11.461   6.826   7.786
60632SOL    HW283729  11.460   6.819   7.635
60633SOL     OW83730  11.618   6.947   0.643
60633SOL    HW183731  11.523   6.932   0.640
60633SOL    HW283732  11.630   7.031   0.599
60634SOL     OW83733   7.321   5.707   2.318
60634SOL    HW183734   7.254   5.639   2.313
60634SOL    HW283735   7.401   5.661   2.344
60635SOL     OW83736   6.752  11.348   3.195
60635SOL    HW183737   6.774  11.437   3.167
60635SOL    HW283738   6.673  11.326   3.145
60636SOL     OW83739   3.734  10.363   5.255
60636SOL    HW183740   3.823  10.377   5.224
60636SOL    HW283741   3.718  10.436   5.315
60637SOL     OW83742   7.094  11.832  11.592
60637SOL    HW183743   7.115  11.869  11.507
60637SOL    HW283744   7.057  11.904  11.642
60638SOL     OW83745  11.770  13.198   7.267
60638SOL    HW183746  11.804  13.286   7.286
60638SOL    HW283747  11.723  13.209   7.184
60639SOL     OW83748   0.566   9.720   3.356
60639SOL    HW183749   0.629   9.757   3.418
60639SOL    HW283750   0.504   9.791   3.338
60640SOL     OW83751   3.364   5.571   2.206
60640SOL    HW183752   3.399   5.490   2.243
60640SOL    HW283753   3.392   5.639   2.267
60641SOL     OW83754  11.237   6.229  14.348
60641SOL    HW183755  11.205   6.288  14.416
60641SOL    HW283756  11.319   6.268  14.319
60642SOL     OW83757   6.029  14.265  10.892
60642SOL    HW183758   6.072  14.252  10.807
60642SOL    HW283759   6.002  14.178  10.919
60643SOL     OW83760   7.539   8.296   9.554
60643SOL    HW183761   7.505   8.350   9.483
60643SOL    HW283762   7.544   8.208   9.517
60644SOL     OW83763  14.771   5.802   4.773
60644SOL    HW183764  14.791   5.720   4.728
60644SOL    HW283765  14.823   5.799   4.853
60645SOL     OW83766  10.927   3.023   8.288
60645SOL    HW183767  11.007   3.019   8.236
60645SOL    HW283768  10.956   3.053   8.375
60646SOL     OW83769  11.587  11.742   8.425
60646SOL    HW183770  11.625  11.825   8.398
60646SOL    HW283771  11.544  11.761   8.509
60647SOL     OW83772  12.112   8.374   7.585
60647SOL    HW183773  12.121   8.396   7.493
60647SOL    HW283774  12.047   8.304   7.587
60648SOL     OW83775   8.367   8.750   8.691
60648SOL    HW183776   8.442   8.783   8.740
60648SOL    HW283777   8.355   8.660   8.724
60649SOL     OW83778   4.172  10.306   2.577
60649SOL    HW183779   4.214  10.222   2.595
60649SOL    HW283780   4.244  10.368   2.569
60650SOL     OW83781   3.653   7.252   7.264
60650SOL    HW183782   3.595   7.214   7.198
60650SOL    HW283783   3.597   7.269   7.339
60651SOL     OW83784   7.477  11.191   7.110
60651SOL    HW183785   7.421  11.266   7.129
60651SOL    HW283786   7.465  11.175   7.016
60652SOL     OW83787   8.813  12.498  13.058
60652SOL    HW183788   8.756  12.520  12.984
60652SOL    HW283789   8.762  12.524  13.135
60653SOL     OW83790   9.894  11.878  12.161
60653SOL    HW183791   9.853  11.927  12.089
60653SOL    HW283792   9.928  11.799  12.120
60654SOL     OW83793  13.153  13.823  12.008
60654SOL    HW183794  13.148  13.737  11.967
60654SOL    HW283795  13.206  13.809  12.086
60655SOL     OW83796  13.482  14.538   8.722
60655SOL    HW183797  13.418  14.590   8.771
60655SOL    HW283798  13.550  14.600   8.697
60656SOL     OW83799  11.126   4.381   8.602
60656SOL    HW183800  11.132   4.350   8.512
60656SOL    HW283801  11.174   4.464   8.602
60657SOL     OW83802   6.359  12.573   2.134
60657SOL    HW183803   6.365  12.652   2.187
60657SOL    HW283804   6.386  12.502   2.193
60658SOL     OW83805   1.740   9.794   6.823
60658SOL    HW183806   1.669   9.739   6.854
60658SOL    HW283807   1.709   9.884   6.836
60659SOL     OW83808   6.990   0.124   4.564
60659SOL    HW183809   6.979   0.219   4.571
60659SOL    HW283810   6.910   0.088   4.604
60660SOL     OW83811   2.504   9.962  10.250
60660SOL    HW183812   2.539   9.887  10.298
60660SOL    HW283813   2.580  10.000  10.206
60661SOL     OW83814   0.290   6.009   1.517
60661SOL    HW183815   0.259   5.994   1.606
60661SOL    HW283816   0.229   5.960   1.462
60662SOL     OW83817   1.166   3.667   2.559
60662SOL    HW183818   1.193   3.671   2.651
60662SOL    HW283819   1.082   3.712   2.556
60663SOL     OW83820   3.194  14.210   7.131
60663SOL    HW183821   3.111  14.165   7.114
60663SOL    HW283822   3.168  14.293   7.169
60664SOL     OW83823  14.361   5.550   9.543
60664SOL    HW183824  14.266   5.552   9.531
60664SOL    HW283825  14.382   5.637   9.577
60665SOL     OW83826  11.954   2.755   1.827
60665SOL    HW183827  11.891   2.826   1.835
60665SOL    HW283828  12.005   2.758   1.907
60666SOL     OW83829   9.062   8.943  10.573
60666SOL    HW183830   9.009   8.948  10.652
60666SOL    HW283831   9.000   8.954  10.501
60667SOL     OW83832   2.475   5.178   3.797
60667SOL    HW183833   2.409   5.136   3.743
60667SOL    HW283834   2.426   5.232   3.859
60668SOL     OW83835   4.102   0.783   1.486
60668SOL    HW183836   4.027   0.725   1.473
60668SOL    HW283837   4.177   0.725   1.493
60669SOL     OW83838   0.672   7.719   2.926
60669SOL    HW183839   0.669   7.714   3.021
60669SOL    HW283840   0.749   7.668   2.901
60670SOL     OW83841  14.017   2.833   9.095
60670SOL    HW183842  14.017   2.866   9.185
60670SOL    HW283843  13.925   2.817   9.075
60671SOL     OW83844   8.198   4.652   3.929
60671SOL    HW183845   8.173   4.670   4.020
60671SOL    HW283846   8.118   4.621   3.888
60672SOL     OW83847   1.221   7.181  10.652
60672SOL    HW183848   1.279   7.105  10.644
60672SOL    HW283849   1.148   7.163  10.594
60673SOL     OW83850  13.868  10.517  13.825
60673SOL    HW183851  13.880  10.514  13.730
60673SOL    HW283852  13.942  10.570  13.856
60674SOL     OW83853   1.628   8.309   2.767
60674SOL    HW183854   1.598   8.381   2.711
60674SOL    HW283855   1.702   8.345   2.815
60675SOL     OW83856   9.889  13.939   1.638
60675SOL    HW183857   9.970  13.922   1.686
60675SOL    HW283858   9.870  13.857   1.593
60676SOL     OW83859   8.303   7.960   2.692
60676SOL    HW183860   8.392   7.995   2.684
60676SOL    HW283861   8.252   8.032   2.728
60677SOL     OW83862   3.633  11.136   5.026
60677SOL    HW183863   3.612  11.054   5.071
60677SOL    HW283864   3.553  11.188   5.033
60678SOL     OW83865  11.232   1.367   8.253
60678SOL    HW183866  11.291   1.442   8.264
60678SOL    HW283867  11.289   1.291   8.257
60679SOL     OW83868   5.891   6.821   3.912
60679SOL    HW183869   5.937   6.778   3.840
60679SOL    HW283870   5.943   6.798   3.990
60680SOL     OW83871   7.368  14.336  12.035
60680SOL    HW183872   7.358  14.409  12.097
60680SOL    HW283873   7.332  14.369  11.953
60681SOL     OW83874  12.902  12.014   3.456
60681SOL    HW183875  12.986  12.055   3.435
60681SOL    HW283876  12.895  12.020   3.551
60682SOL     OW83877   5.240   1.037   7.538
60682SOL    HW183878   5.145   1.037   7.546
60682SOL    HW283879   5.266   0.947   7.559
60683SOL     OW83880   7.263   1.138   3.846
60683SOL    HW183881   7.239   1.189   3.923
60683SOL    HW283882   7.296   1.055   3.881
60684SOL     OW83883   7.348   2.834  10.379
60684SOL    HW183884   7.406   2.910  10.381
60684SOL    HW283885   7.268   2.866  10.339
60685SOL     OW83886   0.312   5.952   0.606
60685SOL    HW183887   0.333   5.864   0.576
60685SOL    HW283888   0.248   5.939   0.676
60686SOL     OW83889   3.613  11.974   2.135
60686SOL    HW183890   3.575  11.887   2.122
60686SOL    HW283891   3.707  11.963   2.122
60687SOL     OW83892   1.101   7.085   1.182
60687SOL    HW183893   1.133   7.112   1.096
60687SOL    HW283894   1.011   7.117   1.185
60688SOL     OW83895   5.544  13.463   6.344
60688SOL    HW183896   5.623  13.502   6.381
60688SOL    HW283897   5.486  13.449   6.419
60689SOL     OW83898   5.198  14.425  12.811
60689SOL    HW183899   5.199  14.405  12.717
60689SOL    HW283900   5.136  14.362  12.848
60690SOL     OW83901   6.039  10.446  13.847
60690SOL    HW183902   5.994  10.375  13.801
60690SOL    HW283903   5.975  10.477  13.911
60691SOL     OW83904   7.052   8.386  13.516
60691SOL    HW183905   7.118   8.385  13.446
60691SOL    HW283906   7.100   8.359  13.594
60692SOL     OW83907  14.459  14.706   6.449
60692SOL    HW183908  14.389  14.771   6.461
60692SOL    HW283909  14.539  14.751   6.476
60693SOL     OW83910   1.155   2.290  11.224
60693SOL    HW183911   1.079   2.321  11.272
60693SOL    HW283912   1.207   2.242  11.288
60694SOL     OW83913   7.632  13.355   8.410
60694SOL    HW183914   7.601  13.334   8.322
60694SOL    HW283915   7.606  13.446   8.424
60695SOL     OW83916   3.722  13.617  12.337
60695SOL    HW183917   3.737  13.653  12.250
60695SOL    HW283918   3.649  13.557  12.327
60696SOL     OW83919  10.532   8.333  14.790
60696SOL    HW183920  10.604   8.393  14.771
60696SOL    HW283921  10.453   8.382  14.769
60697SOL     OW83922   9.468   0.166   0.842
60697SOL    HW183923   9.422   0.226   0.901
60697SOL    HW283924   9.430   0.184   0.755
60698SOL     OW83925   6.081  13.257   4.592
60698SOL    HW183926   6.020  13.259   4.666
60698SOL    HW283927   6.078  13.346   4.556
60699SOL     OW83928   7.060  11.268  11.040
60699SOL    HW183929   7.062  11.358  11.072
60699SOL    HW283930   7.115  11.219  11.102
60700SOL     OW83931   3.091   2.614   1.236
60700SOL    HW183932   3.054   2.590   1.151
60700SOL    HW283933   3.015   2.617   1.294
60701SOL     OW83934   3.383   0.489  10.662
60701SOL    HW183935   3.420   0.552  10.600
60701SOL    HW283936   3.422   0.514  10.746
60702SOL     OW83937  12.742   7.554   5.869
60702SOL    HW183938  12.683   7.488   5.833
60702SOL    HW283939  12.819   7.552   5.812
60703SOL     OW83940   1.989   5.177   0.379
60703SOL    HW183941   1.994   5.219   0.465
60703SOL    HW283942   1.898   5.147   0.372
60704SOL     OW83943  13.127  11.539   7.811
60704SOL    HW183944  13.112  11.470   7.746
60704SOL    HW283945  13.082  11.615   7.776
60705SOL     OW83946   6.169   3.095  11.980
60705SOL    HW183947   6.221   3.021  11.949
60705SOL    HW283948   6.106   3.110  11.909
60706SOL     OW83949   6.096   4.286   1.313
60706SOL    HW183950   6.007   4.320   1.328
60706SOL    HW283951   6.144   4.361   1.278
60707SOL     OW83952  12.018   3.197   3.453
60707SOL    HW183953  11.995   3.108   3.482
60707SOL    HW283954  11.951   3.253   3.492
60708SOL     OW83955  12.933   0.760   5.453
60708SOL    HW183956  13.021   0.797   5.441
60708SOL    HW283957  12.915   0.773   5.547
60709SOL     OW83958   1.665  14.247  12.547
60709SOL    HW183959   1.628  14.226  12.461
60709SOL    HW283960   1.622  14.186  12.607
60710SOL     OW83961  13.991   7.425   8.390
60710SOL    HW183962  14.082   7.447   8.411
60710SOL    HW283963  13.998   7.369   8.312
60711SOL     OW83964  11.038   6.800   0.387
60711SOL    HW183965  11.057   6.890   0.412
60711SOL    HW283966  11.091   6.784   0.309
60712SOL     OW83967   6.316   2.254  13.693
60712SOL    HW183968   6.362   2.204  13.760
60712SOL    HW283969   6.224   2.249  13.718
60713SOL     OW83970   8.255   4.577   5.851
60713SOL    HW183971   8.232   4.660   5.809
60713SOL    HW283972   8.171   4.538   5.874
60714SOL     OW83973   0.562   0.442   3.716
60714SOL    HW183974   0.482   0.470   3.673
60714SOL    HW283975   0.584   0.359   3.674
60715SOL     OW83976   7.996   3.957   2.037
60715SOL    HW183977   8.041   3.960   2.122
60715SOL    HW283978   8.063   3.927   1.976
60716SOL     OW83979   2.582  13.017   5.084
60716SOL    HW183980   2.632  13.075   5.026
60716SOL    HW283981   2.566  12.938   5.032
60717SOL     OW83982   1.749   5.951   6.283
60717SOL    HW183983   1.773   5.903   6.362
60717SOL    HW283984   1.749   6.043   6.310
60718SOL     OW83985   1.211   4.859  13.859
60718SOL    HW183986   1.302   4.887  13.846
60718SOL    HW283987   1.167   4.880  13.777
60719SOL     OW83988   8.573  13.001   2.181
60719SOL    HW183989   8.611  12.928   2.230
60719SOL    HW283990   8.497  13.028   2.234
60720SOL     OW83991   5.041  14.474   3.209
60720SOL    HW183992   5.018  14.405   3.271
60720SOL    HW283993   5.092  14.537   3.261
60721SOL     OW83994   2.518  11.309   1.804
60721SOL    HW183995   2.611  11.329   1.817
60721SOL    HW283996   2.473  11.357   1.873
60722SOL     OW83997   5.059  13.627   1.729
60722SOL    HW183998   5.023  13.558   1.785
60722SOL    HW283999   5.033  13.601   1.640
60723SOL     OW84000  12.619   8.631   4.015
60723SOL    HW184001  12.535   8.676   4.016
60723SOL    HW284002  12.611   8.566   3.945
60724SOL     OW84003  11.847   7.566   9.755
60724SOL    HW184004  11.780   7.577   9.822
60724SOL    HW284005  11.805   7.594   9.673
60725SOL     OW84006   2.830   6.055  11.470
60725SOL    HW184007   2.767   6.007  11.417
60725SOL    HW284008   2.881   6.106  11.407
60726SOL     OW84009  14.728   3.345   0.039
60726SOL    HW184010  14.792   3.327   0.108
60726SOL    HW284011  14.682   3.424   0.069
60727SOL     OW84012  12.797  14.485   5.772
60727SOL    HW184013  12.782  14.393   5.754
60727SOL    HW284014  12.738  14.531   5.713
60728SOL     OW84015   9.411   2.745  13.159
60728SOL    HW184016   9.374   2.726  13.073
60728SOL    HW284017   9.440   2.836  13.153
60729SOL     OW84018   0.503   0.469  12.423
60729SOL    HW184019   0.487   0.388  12.373
60729SOL    HW284020   0.526   0.439  12.511
60730SOL     OW84021  13.976   2.235   8.861
60730SOL    HW184022  13.904   2.172   8.855
60730SOL    HW284023  14.048   2.194   8.813
60731SOL     OW84024   6.272   2.833  11.901
60731SOL    HW184025   6.248   2.834  11.808
60731SOL    HW284026   6.259   2.741  11.927
60732SOL     OW84027   2.793  10.225  11.829
60732SOL    HW184028   2.887  10.219  11.814
60732SOL    HW284029   2.766  10.135  11.849
60733SOL     OW84030  14.264  14.518   6.513
60733SOL    HW184031  14.199  14.524   6.442
60733SOL    HW284032  14.348  14.512   6.468
60734SOL     OW84033  11.687   4.835  14.667
60734SOL    HW184034  11.598   4.868  14.678
60734SOL    HW284035  11.740   4.886  14.729
60735SOL     OW84036   7.806   4.122  12.597
60735SOL    HW184037   7.769   4.210  12.591
60735SOL    HW284038   7.901   4.136  12.600
60736SOL     OW84039   1.187   2.297   0.511
60736SOL    HW184040   1.262   2.343   0.548
60736SOL    HW284041   1.160   2.236   0.579
60737SOL     OW84042   6.941   6.774   8.383
60737SOL    HW184043   7.016   6.761   8.441
60737SOL    HW284044   6.942   6.697   8.325
60738SOL     OW84045   9.904   3.413   7.089
60738SOL    HW184046   9.812   3.405   7.113
60738SOL    HW284047   9.953   3.389   7.168
60739SOL     OW84048   3.472   9.202   2.617
60739SOL    HW184049   3.388   9.177   2.581
60739SOL    HW284050   3.535   9.145   2.575
60740SOL     OW84051  13.820  13.088   8.416
60740SOL    HW184052  13.853  13.145   8.347
60740SOL    HW284053  13.769  13.145   8.473
60741SOL     OW84054  11.487   8.065   6.181
60741SOL    HW184055  11.429   8.138   6.160
60741SOL    HW284056  11.551   8.064   6.110
60742SOL     OW84057   3.808  10.257   9.477
60742SOL    HW184058   3.809  10.244   9.382
60742SOL    HW284059   3.733  10.314   9.492
60743SOL     OW84060   6.044   7.151  13.986
60743SOL    HW184061   6.084   7.238  13.986
60743SOL    HW284062   6.117   7.090  13.986
60744SOL     OW84063  12.983   7.489  10.817
60744SOL    HW184064  12.942   7.556  10.762
60744SOL    HW284065  13.031   7.434  10.756
60745SOL     OW84066   6.956   6.194   1.868
60745SOL    HW184067   7.027   6.135   1.843
60745SOL    HW284068   6.920   6.156   1.948
60746SOL     OW84069  13.637   8.500  11.315
60746SOL    HW184070  13.569   8.461  11.260
60746SOL    HW284071  13.688   8.554  11.255
60747SOL     OW84072   0.940   9.803  11.297
60747SOL    HW184073   0.977   9.858  11.365
60747SOL    HW284074   1.014   9.749  11.267
60748SOL     OW84075  13.495   0.184   9.388
60748SOL    HW184076  13.473   0.226   9.471
60748SOL    HW284077  13.585   0.154   9.399
60749SOL     OW84078   3.096   1.515  13.794
60749SOL    HW184079   3.134   1.429  13.812
60749SOL    HW284080   3.010   1.513  13.835
60750SOL     OW84081  11.674   5.395   5.071
60750SOL    HW184082  11.754   5.402   5.124
60750SOL    HW284083  11.627   5.477   5.088
60751SOL     OW84084   6.507   2.190  12.491
60751SOL    HW184085   6.598   2.159  12.491
60751SOL    HW284086   6.511   2.276  12.448
60752SOL     OW84087  13.797   5.476   8.079
60752SOL    HW184088  13.827   5.448   8.165
60752SOL    HW284089  13.723   5.534   8.097
60753SOL     OW84090  12.319  14.715  13.967
60753SOL    HW184091  12.332  14.796  13.917
60753SOL    HW284092  12.238  14.731  14.016
60754SOL     OW84093   3.940   7.346   7.731
60754SOL    HW184094   3.847   7.345   7.708
60754SOL    HW284095   3.975   7.423   7.686
60755SOL     OW84096  13.833   2.234   3.543
60755SOL    HW184097  13.918   2.278   3.534
60755SOL    HW284098  13.775   2.281   3.484
60756SOL     OW84099   3.356   5.419  14.299
60756SOL    HW184100   3.326   5.334  14.266
60756SOL    HW284101   3.443   5.430  14.262
60757SOL     OW84102  14.669  13.287  10.571
60757SOL    HW184103  14.668  13.382  10.585
60757SOL    HW284104  14.631  13.251  10.651
60758SOL     OW84105   0.236   6.114  11.453
60758SOL    HW184106   0.193   6.033  11.479
60758SOL    HW284107   0.319   6.114  11.500
60759SOL     OW84108   9.599   2.838   9.136
60759SOL    HW184109   9.577   2.749   9.161
60759SOL    HW284110   9.565   2.848   9.047
60760SOL     OW84111   0.885  13.376   2.385
60760SOL    HW184112   0.920  13.402   2.470
60760SOL    HW284113   0.923  13.439   2.324
60761SOL     OW84114   0.833   0.811  14.024
60761SOL    HW184115   0.798   0.881  14.080
60761SOL    HW284116   0.772   0.738  14.037
60762SOL     OW84117   8.402  11.297   1.413
60762SOL    HW184118   8.368  11.340   1.334
60762SOL    HW284119   8.327  11.296   1.473
60763SOL     OW84120   1.654   4.815   3.952
60763SOL    HW184121   1.600   4.884   3.913
60763SOL    HW284122   1.744   4.847   3.943
60764SOL     OW84123   9.843  11.079   7.476
60764SOL    HW184124   9.825  11.161   7.429
60764SOL    HW284125   9.763  11.061   7.525
60765SOL     OW84126   3.389   8.295   9.183
60765SOL    HW184127   3.459   8.267   9.242
60765SOL    HW284128   3.311   8.300   9.238
60766SOL     OW84129  10.767   4.458   6.951
60766SOL    HW184130  10.676   4.467   6.921
60766SOL    HW284131  10.762   4.471   7.046
60767SOL     OW84132  12.891   2.467  10.103
60767SOL    HW184133  12.873   2.374  10.093
60767SOL    HW284134  12.960   2.486  10.039
60768SOL     OW84135   8.789   7.221   9.596
60768SOL    HW184136   8.735   7.142   9.598
60768SOL    HW284137   8.780   7.260   9.683
60769SOL     OW84138   7.005  10.863   4.391
60769SOL    HW184139   6.948  10.788   4.406
60769SOL    HW284140   6.974  10.930   4.452
60770SOL     OW84141  13.247   0.575  14.096
60770SOL    HW184142  13.340   0.573  14.072
60770SOL    HW284143  13.246   0.614  14.183
60771SOL     OW84144   0.268  11.285  10.802
60771SOL    HW184145   0.230  11.330  10.726
60771SOL    HW284146   0.350  11.332  10.819
60772SOL     OW84147   6.151  10.935  12.751
60772SOL    HW184148   6.057  10.945  12.735
60772SOL    HW284149   6.158  10.929  12.847
60773SOL     OW84150  11.809   6.054  10.917
60773SOL    HW184151  11.750   5.978  10.918
60773SOL    HW284152  11.891   6.021  10.952
60774SOL     OW84153   4.129   2.583   9.979
60774SOL    HW184154   4.147   2.489   9.972
60774SOL    HW284155   4.034   2.589   9.974
60775SOL     OW84156  14.853   1.166   9.195
60775SOL    HW184157   0.027   1.135   9.271
60775SOL    HW284158  14.776   1.109   9.194
60776SOL     OW84159   3.682   1.768   5.558
60776SOL    HW184160   3.758   1.709   5.557
60776SOL    HW284161   3.662   1.782   5.465
60777SOL     OW84162  11.937  14.386  13.179
60777SOL    HW184163  11.851  14.359  13.211
60777SOL    HW284164  11.964  14.317  13.118
60778SOL     OW84165  10.016   7.399   8.972
60778SOL    HW184166   9.973   7.431   8.893
60778SOL    HW284167  10.096   7.358   8.940
60779SOL     OW84168   1.163   6.402  10.537
60779SOL    HW184169   1.132   6.321  10.497
60779SOL    HW284170   1.087   6.459  10.540
60780SOL     OW84171  12.813   8.487   9.953
60780SOL    HW184172  12.750   8.553   9.981
60780SOL    HW284173  12.830   8.507   9.861
60781SOL     OW84174   8.305   9.770   3.969
60781SOL    HW184175   8.300   9.765   3.874
60781SOL    HW284176   8.215   9.789   3.997
60782SOL     OW84177   5.079   3.641   1.316
60782SOL    HW184178   5.092   3.721   1.368
60782SOL    HW284179   5.076   3.673   1.225
60783SOL     OW84180   4.159  12.535  11.092
60783SOL    HW184181   4.145  12.461  11.150
60783SOL    HW284182   4.235  12.510  11.039
60784SOL     OW84183  13.666   4.769  14.014
60784SOL    HW184184  13.729   4.737  13.949
60784SOL    HW284185  13.582   4.771  13.967
60785SOL     OW84186   7.017   1.121   4.250
60785SOL    HW184187   7.101   1.109   4.295
60785SOL    HW284188   6.959   1.158   4.317
60786SOL     OW84189   5.672   8.932  14.409
60786SOL    HW184190   5.617   8.876  14.463
60786SOL    HW284191   5.616   8.958  14.336
60787SOL     OW84192  11.972   2.087   0.721
60787SOL    HW184193  12.066   2.079   0.711
60787SOL    HW284194  11.955   2.181   0.727
60788SOL     OW84195   2.323  11.050   2.336
60788SOL    HW184196   2.373  11.051   2.418
60788SOL    HW284197   2.390  11.048   2.267
60789SOL     OW84198  11.921   8.303   1.949
60789SOL    HW184199  11.920   8.353   2.030
60789SOL    HW284200  12.013   8.277   1.938
60790SOL     OW84201   7.887  13.893   7.323
60790SOL    HW184202   7.813  13.938   7.282
60790SOL    HW284203   7.855  13.805   7.342
60791SOL     OW84204   5.981   8.867   2.842
60791SOL    HW184205   5.911   8.868   2.906
60791SOL    HW284206   6.012   8.957   2.838
60792SOL     OW84207  13.052  10.675   1.932
60792SOL    HW184208  13.000  10.680   1.852
60792SOL    HW284209  13.029  10.591   1.971
60793SOL     OW84210   8.207  12.034  12.006
60793SOL    HW184211   8.155  11.971  11.956
60793SOL    HW284212   8.294  11.995  12.010
60794SOL     OW84213  12.051   7.927   1.104
60794SOL    HW184214  12.070   7.841   1.066
60794SOL    HW284215  12.130   7.979   1.086
60795SOL     OW84216   6.950   6.063   1.015
60795SOL    HW184217   6.987   6.004   0.950
60795SOL    HW284218   6.911   6.005   1.081
60796SOL     OW84219  10.108   4.212   9.051
60796SOL    HW184220  10.165   4.179   9.119
60796SOL    HW284221  10.110   4.145   8.982
60797SOL     OW84222   8.413   7.199  11.433
60797SOL    HW184223   8.449   7.120  11.475
60797SOL    HW284224   8.489   7.255  11.418
60798SOL     OW84225  13.183  11.143  10.001
60798SOL    HW184226  13.274  11.167  10.018
60798SOL    HW284227  13.170  11.159   9.908
60799SOL     OW84228   5.572  14.562   2.969
60799SOL    HW184229   5.658  14.527   2.993
60799SOL    HW284230   5.591  14.637   2.914
60800SOL     OW84231   7.040   9.217  13.027
60800SOL    HW184232   6.986   9.180  13.098
60800SOL    HW284233   7.111   9.155  13.017
60801SOL     OW84234   7.143   0.700  14.317
60801SOL    HW184235   7.220   0.646  14.304
60801SOL    HW284236   7.094   0.692  14.235
60802SOL     OW84237  12.896   6.199   7.844
60802SOL    HW184238  12.840   6.122   7.854
60802SOL    HW284239  12.839   6.273   7.866
60803SOL     OW84240   1.590   1.621   5.190
60803SOL    HW184241   1.576   1.597   5.099
60803SOL    HW284242   1.503   1.614   5.230
60804SOL     OW84243   9.198  14.838   8.349
60804SOL    HW184244   9.191   0.049   8.389
60804SOL    HW284245   9.122  14.832   8.291
60805SOL     OW84246   8.042  12.285   7.951
60805SOL    HW184247   7.986  12.328   7.886
60805SOL    HW284248   8.032  12.337   8.030
60806SOL     OW84249  14.265   9.708   6.577
60806SOL    HW184250  14.251   9.803   6.577
60806SOL    HW284251  14.218   9.677   6.654
60807SOL     OW84252   0.124  11.845  13.587
60807SOL    HW184253   0.204  11.871  13.541
60807SOL    HW284254   0.054  11.868  13.526
60808SOL     OW84255  13.748   5.125   5.714
60808SOL    HW184256  13.699   5.127   5.632
60808SOL    HW284257  13.721   5.043   5.756
60809SOL     OW84258   5.764   9.321   2.096
60809SOL    HW184259   5.737   9.404   2.057
60809SOL    HW284260   5.683   9.277   2.119
60810SOL     OW84261   3.295   7.316  10.972
60810SOL    HW184262   3.341   7.249  10.923
60810SOL    HW284263   3.299   7.394  10.917
60811SOL     OW84264   6.344   6.591  12.215
60811SOL    HW184265   6.278   6.530  12.179
60811SOL    HW284266   6.427   6.544  12.205
60812SOL     OW84267   6.597   3.584   6.350
60812SOL    HW184268   6.558   3.625   6.272
60812SOL    HW284269   6.563   3.636   6.423
60813SOL     OW84270   9.488  13.882  12.513
60813SOL    HW184271   9.433  13.810  12.544
60813SOL    HW284272   9.567  13.840  12.481
60814SOL     OW84273   6.207   1.999  13.855
60814SOL    HW184274   6.138   2.035  13.799
60814SOL    HW284275   6.221   1.910  13.821
60815SOL     OW84276   1.242  14.851   9.557
60815SOL    HW184277   1.149  14.830   9.562
60815SOL    HW284278   1.252   0.051   9.615
60816SOL     OW84279   1.817   7.015   8.671
60816SOL    HW184280   1.869   6.955   8.724
60816SOL    HW284281   1.856   7.011   8.584
60817SOL     OW84282   5.742  11.848   3.019
60817SOL    HW184283   5.705  11.760   3.013
60817SOL    HW284284   5.765  11.858   3.111
60818SOL     OW84285   1.460   8.542   5.264
60818SOL    HW184286   1.499   8.458   5.239
60818SOL    HW284287   1.512   8.571   5.339
60819SOL     OW84288   4.334   1.190   4.294
60819SOL    HW184289   4.245   1.184   4.328
60819SOL    HW284290   4.362   1.099   4.283
60820SOL     OW84291   9.277  14.678  13.608
60820SOL    HW184292   9.307  14.666  13.698
60820SOL    HW284293   9.344  14.633  13.555
60821SOL     OW84294  13.770   2.022   9.506
60821SOL    HW184295  13.783   2.049   9.415
60821SOL    HW284296  13.745   2.102   9.551
60822SOL     OW84297   1.601   1.914   9.900
60822SOL    HW184298   1.586   1.960   9.817
60822SOL    HW284299   1.543   1.838   9.895
60823SOL     OW84300   6.535  11.853   0.960
60823SOL    HW184301   6.461  11.913   0.964
60823SOL    HW284302   6.513  11.783   1.022
60824SOL     OW84303  13.173   6.380   0.309
60824SOL    HW184304  13.083   6.376   0.277
60824SOL    HW284305  13.224   6.411   0.234
60825SOL     OW84306  13.330   9.112   9.650
60825SOL    HW184307  13.291   9.184   9.601
60825SOL    HW284308  13.261   9.085   9.711
60826SOL     OW84309   4.544   9.160   0.503
60826SOL    HW184310   4.627   9.134   0.462
60826SOL    HW284311   4.545   9.255   0.500
60827SOL     OW84312  11.374   4.737   6.805
60827SOL    HW184313  11.430   4.781   6.742
60827SOL    HW284314  11.304   4.698   6.753
60828SOL     OW84315  14.508   9.124   7.727
60828SOL    HW184316  14.522   9.117   7.633
60828SOL    HW284317  14.586   9.085   7.766
60829SOL     OW84318  14.437   0.465   4.597
60829SOL    HW184319  14.379   0.423   4.532
60829SOL    HW284320  14.389   0.543   4.625
60830SOL     OW84321   7.163  11.020  10.686
60830SOL    HW184322   7.247  11.064  10.678
60830SOL    HW284323   7.179  10.932  10.653
60831SOL     OW84324   9.183   0.720   7.973
60831SOL    HW184325   9.194   0.691   8.063
60831SOL    HW284326   9.268   0.703   7.931
60832SOL     OW84327   3.726  11.040   5.931
60832SOL    HW184328   3.766  10.994   6.005
60832SOL    HW284329   3.634  11.052   5.958
60833SOL     OW84330   8.806   8.495   1.192
60833SOL    HW184331   8.724   8.543   1.192
60833SOL    HW284332   8.808   8.451   1.107
60834SOL     OW84333   0.042   4.784   4.310
60834SOL    HW184334   0.006   4.826   4.232
60834SOL    HW284335   0.083   4.855   4.359
60835SOL     OW84336  10.197   4.904   6.501
60835SOL    HW184337  10.207   4.995   6.529
60835SOL    HW284338  10.108   4.898   6.468
60836SOL     OW84339  11.092  14.276   8.405
60836SOL    HW184340  11.092  14.319   8.320
60836SOL    HW284341  11.028  14.206   8.396
60837SOL     OW84342   8.769   1.194   4.919
60837SOL    HW184343   8.803   1.235   4.998
60837SOL    HW284344   8.811   1.108   4.917
60838SOL     OW84345   7.924   3.498   9.349
60838SOL    HW184346   8.009   3.503   9.394
60838SOL    HW284347   7.939   3.543   9.266
60839SOL     OW84348   8.006   6.417   8.084
60839SOL    HW184349   8.064   6.363   8.138
60839SOL    HW284350   7.975   6.359   8.015
60840SOL     OW84351  12.605   4.427   0.489
60840SOL    HW184352  12.526   4.438   0.542
60840SOL    HW284353  12.619   4.332   0.486
60841SOL     OW84354  10.423   8.312   7.719
60841SOL    HW184355  10.485   8.358   7.662
60841SOL    HW284356  10.339   8.320   7.675
60842SOL     OW84357   2.031   5.264  10.231
60842SOL    HW184358   2.083   5.187  10.254
60842SOL    HW284359   2.010   5.304  10.316
60843SOL     OW84360   6.811  10.258   4.243
60843SOL    HW184361   6.778  10.237   4.330
60843SOL    HW284362   6.747  10.220   4.183
60844SOL     OW84363  11.246   3.452  10.679
60844SOL    HW184364  11.283   3.365  10.694
60844SOL    HW284365  11.214   3.479  10.766
60845SOL     OW84366   3.543  13.806   8.218
60845SOL    HW184367   3.614  13.870   8.202
60845SOL    HW284368   3.560  13.775   8.307
60846SOL     OW84369   5.089   5.203   2.660
60846SOL    HW184370   5.039   5.122   2.665
60846SOL    HW284371   5.031   5.270   2.696
60847SOL     OW84372   8.959   7.339   2.843
60847SOL    HW184373   8.875   7.293   2.845
60847SOL    HW284374   8.982   7.343   2.750
60848SOL     OW84375  14.238   8.985  10.481
60848SOL    HW184376  14.231   9.080  10.482
60848SOL    HW284377  14.253   8.962  10.573
60849SOL     OW84378   6.225  10.255   8.316
60849SOL    HW184379   6.293  10.247   8.382
60849SOL    HW284380   6.269  10.290   8.239
60850SOL     OW84381   1.013   2.426   0.835
60850SOL    HW184382   0.933   2.421   0.887
60850SOL    HW284383   1.067   2.490   0.880
60851SOL     OW84384   0.425  10.852   3.481
60851SOL    HW184385   0.439  10.925   3.422
60851SOL    HW284386   0.477  10.873   3.559
60852SOL     OW84387   1.286   4.740  12.440
60852SOL    HW184388   1.200   4.782  12.435
60852SOL    HW284389   1.302   4.729  12.534
60853SOL     OW84390  12.359  10.044  12.643
60853SOL    HW184391  12.336   9.963  12.596
60853SOL    HW284392  12.382  10.014  12.732
60854SOL     OW84393  14.452   4.497   1.841
60854SOL    HW184394  14.496   4.487   1.756
60854SOL    HW284395  14.501   4.441   1.901
60855SOL     OW84396   7.863  14.304   1.279
60855SOL    HW184397   7.866  14.268   1.191
60855SOL    HW284398   7.872  14.228   1.337
60856SOL     OW84399   5.789   0.815   2.840
60856SOL    HW184400   5.821   0.775   2.759
60856SOL    HW284401   5.836   0.769   2.909
60857SOL     OW84402   1.955   1.423   7.685
60857SOL    HW184403   1.968   1.328   7.690
60857SOL    HW284404   1.948   1.451   7.777
60858SOL     OW84405   6.921   0.996  12.149
60858SOL    HW184406   6.947   1.047  12.072
60858SOL    HW284407   6.987   1.016  12.215
60859SOL     OW84408   1.563   5.485   5.852
60859SOL    HW184409   1.635   5.471   5.913
60859SOL    HW284410   1.485   5.458   5.901
60860SOL     OW84411   0.997   2.387  12.582
60860SOL    HW184412   1.030   2.315  12.636
60860SOL    HW284413   1.020   2.363  12.493
60861SOL     OW84414   2.042   4.253   2.761
60861SOL    HW184415   2.080   4.302   2.688
60861SOL    HW284416   1.995   4.181   2.719
60862SOL     OW84417   2.470   2.354   9.913
60862SOL    HW184418   2.429   2.270   9.929
60862SOL    HW284419   2.402   2.406   9.870
60863SOL     OW84420   0.112   7.589   9.681
60863SOL    HW184421   0.070   7.608   9.765
60863SOL    HW284422   0.073   7.507   9.652
60864SOL     OW84423  14.148   9.089   6.680
60864SOL    HW184424  14.243   9.076   6.684
60864SOL    HW284425  14.124   9.118   6.768
60865SOL     OW84426  14.211  11.061   8.298
60865SOL    HW184427  14.130  11.113   8.302
60865SOL    HW284428  14.206  11.016   8.214
60866SOL     OW84429  11.638   5.650   3.526
60866SOL    HW184430  11.674   5.609   3.448
60866SOL    HW284431  11.600   5.732   3.494
60867SOL     OW84432  10.328  13.192   8.870
60867SOL    HW184433  10.380  13.273   8.862
60867SOL    HW284434  10.393  13.123   8.877
60868SOL     OW84435   2.260   3.900   7.059
60868SOL    HW184436   2.224   3.912   6.971
60868SOL    HW284437   2.208   3.958   7.115
60869SOL     OW84438  11.528   0.609   0.535
60869SOL    HW184439  11.517   0.642   0.625
60869SOL    HW284440  11.568   0.523   0.546
60870SOL     OW84441   4.097  12.939   9.903
60870SOL    HW184442   4.002  12.946   9.912
60870SOL    HW284443   4.129  13.026   9.928
60871SOL     OW84444   7.006   9.590   0.703
60871SOL    HW184445   6.992   9.521   0.638
60871SOL    HW284446   6.937   9.655   0.685
60872SOL     OW84447  12.185   9.947   6.731
60872SOL    HW184448  12.229   9.917   6.810
60872SOL    HW284449  12.250   9.936   6.662
60873SOL     OW84450   1.568   5.338   3.881
60873SOL    HW184451   1.615   5.338   3.964
60873SOL    HW284452   1.573   5.429   3.851
60874SOL     OW84453   0.745  12.861   3.211
60874SOL    HW184454   0.750  12.912   3.131
60874SOL    HW284455   0.825  12.808   3.212
60875SOL     OW84456   4.867  13.477  12.842
60875SOL    HW184457   4.929  13.418  12.885
60875SOL    HW284458   4.788  13.472  12.896
60876SOL     OW84459  12.575  11.764  14.786
60876SOL    HW184460  12.502  11.804  14.738
60876SOL    HW284461  12.641  11.832  14.789
60877SOL     OW84462   2.871  11.658  13.820
60877SOL    HW184463   2.912  11.593  13.763
60877SOL    HW284464   2.779  11.659  13.793
60878SOL     OW84465  13.790  13.307  12.670
60878SOL    HW184466  13.885  13.323  12.670
60878SOL    HW284467  13.755  13.374  12.611
60879SOL     OW84468  13.798   5.869   9.027
60879SOL    HW184469  13.838   5.875   9.113
60879SOL    HW284470  13.871   5.851   8.968
60880SOL     OW84471  13.005   3.893  10.560
60880SOL    HW184472  13.024   3.952  10.633
60880SOL    HW284473  12.994   3.807  10.600
60881SOL     OW84474   0.365   1.440   1.499
60881SOL    HW184475   0.444   1.390   1.477
60881SOL    HW284476   0.381   1.527   1.463
60882SOL     OW84477   1.397   6.472  10.733
60882SOL    HW184478   1.321   6.439  10.686
60882SOL    HW284479   1.419   6.554  10.689
60883SOL     OW84480   2.045   5.153   7.687
60883SOL    HW184481   2.028   5.205   7.609
60883SOL    HW284482   2.023   5.063   7.661
60884SOL     OW84483   5.099   6.423  10.243
60884SOL    HW184484   5.092   6.518  10.252
60884SOL    HW284485   5.016   6.397  10.203
60885SOL     OW84486   5.799   8.584   2.611
60885SOL    HW184487   5.796   8.631   2.694
60885SOL    HW284488   5.734   8.514   2.620
60886SOL     OW84489   3.258   4.375   4.778
60886SOL    HW184490   3.227   4.391   4.867
60886SOL    HW284491   3.240   4.282   4.763
60887SOL     OW84492   9.833   7.552   0.114
60887SOL    HW184493   9.925   7.531   0.129
60887SOL    HW284494   9.788   7.517   0.191
60888SOL     OW84495   0.869  14.333  12.157
60888SOL    HW184496   0.855  14.260  12.217
60888SOL    HW284497   0.886  14.408  12.214
60889SOL     OW84498   3.846   8.560  13.587
60889SOL    HW184499   3.778   8.626  13.602
60889SOL    HW284500   3.886   8.585  13.503
60890SOL     OW84501   7.736  10.511  10.933
60890SOL    HW184502   7.683  10.449  10.983
60890SOL    HW284503   7.814  10.461  10.909
60891SOL     OW84504   2.190   2.004   3.742
60891SOL    HW184505   2.174   1.974   3.832
60891SOL    HW284506   2.188   2.100   3.748
60892SOL     OW84507   8.116  11.736   6.129
60892SOL    HW184508   8.169  11.701   6.058
60892SOL    HW284509   8.179  11.776   6.189
60893SOL     OW84510   0.560  12.169  11.436
60893SOL    HW184511   0.535  12.261  11.433
60893SOL    HW284512   0.636  12.166  11.493
60894SOL     OW84513   2.664   3.741   6.348
60894SOL    HW184514   2.692   3.666   6.296
60894SOL    HW284515   2.712   3.815   6.311
60895SOL     OW84516   6.744  10.456  13.918
60895SOL    HW184517   6.730  10.361  13.916
60895SOL    HW284518   6.741  10.483  13.826
60896SOL     OW84519   0.820   9.414   7.888
60896SOL    HW184520   0.895   9.394   7.944
60896SOL    HW284521   0.855   9.474   7.822
60897SOL     OW84522   0.747   6.671   0.733
60897SOL    HW184523   0.655   6.675   0.761
60897SOL    HW284524   0.790   6.740   0.784
60898SOL     OW84525   6.213   9.792   2.917
60898SOL    HW184526   6.301   9.813   2.885
60898SOL    HW284527   6.181   9.724   2.858
60899SOL     OW84528  12.839   8.309   2.373
60899SOL    HW184529  12.842   8.404   2.363
60899SOL    HW284530  12.931   8.282   2.378
60900SOL     OW84531   0.416   8.386   8.270
60900SOL    HW184532   0.375   8.308   8.308
60900SOL    HW284533   0.421   8.448   8.342
60901SOL     OW84534   4.848  11.713   5.032
60901SOL    HW184535   4.809  11.747   5.113
60901SOL    HW284536   4.889  11.631   5.058
60902SOL     OW84537   7.620   5.340   7.558
60902SOL    HW184538   7.570   5.286   7.620
60902SOL    HW284539   7.563   5.348   7.482
60903SOL     OW84540   4.233  12.307  13.813
60903SOL    HW184541   4.279  12.280  13.892
60903SOL    HW284542   4.145  12.329  13.844
60904SOL     OW84543   5.034   2.187  11.588
60904SOL    HW184544   5.070   2.268  11.552
60904SOL    HW284545   5.066   2.119  11.529
60905SOL     OW84546   9.848   7.684   8.436
60905SOL    HW184547   9.856   7.590   8.419
60905SOL    HW284548   9.923   7.703   8.493
60906SOL     OW84549   2.435   4.633   3.358
60906SOL    HW184550   2.365   4.643   3.294
60906SOL    HW284551   2.432   4.714   3.409
60907SOL     OW84552   1.460  13.043   8.146
60907SOL    HW184553   1.399  12.969   8.157
60907SOL    HW284554   1.546  13.005   8.161
60908SOL     OW84555  13.882   2.371  12.900
60908SOL    HW184556  13.845   2.283  12.893
60908SOL    HW284557  13.845   2.418  12.826
60909SOL     OW84558   6.796   8.865   6.984
60909SOL    HW184559   6.747   8.807   6.926
60909SOL    HW284560   6.746   8.946   6.984
60910SOL     OW84561   5.234   4.574  11.111
60910SOL    HW184562   5.180   4.595  11.187
60910SOL    HW284563   5.244   4.479  11.114
60911SOL     OW84564   5.263   2.443   4.259
60911SOL    HW184565   5.194   2.405   4.205
60911SOL    HW284566   5.245   2.412   4.348
60912SOL     OW84567  14.385   9.287  14.696
60912SOL    HW184568  14.460   9.230  14.680
60912SOL    HW284569  14.326   9.235  14.751
60913SOL     OW84570  14.813  12.355  10.805
60913SOL    HW184571  14.782  12.389  10.721
60913SOL    HW284572  14.859  12.274  10.782
60914SOL     OW84573   6.892   1.251   6.526
60914SOL    HW184574   6.844   1.219   6.602
60914SOL    HW284575   6.898   1.175   6.468
60915SOL     OW84576   6.240  10.506   4.688
60915SOL    HW184577   6.251  10.456   4.607
60915SOL    HW284578   6.304  10.469   4.749
60916SOL     OW84579  14.122  11.684   8.757
60916SOL    HW184580  14.038  11.638   8.764
60916SOL    HW284581  14.099  11.768   8.717
60917SOL     OW84582   4.716   1.244  12.374
60917SOL    HW184583   4.664   1.169  12.345
60917SOL    HW284584   4.666   1.320  12.345
60918SOL     OW84585   9.744  14.797   7.208
60918SOL    HW184586   9.689  14.828   7.137
60918SOL    HW284587   9.702  14.717   7.238
60919SOL     OW84588   3.791  11.715   1.667
60919SOL    HW184589   3.728  11.786   1.668
60919SOL    HW284590   3.857  11.741   1.731
60920SOL     OW84591   5.907   4.151  13.310
60920SOL    HW184592   5.863   4.183  13.231
60920SOL    HW284593   5.952   4.071  13.281
60921SOL     OW84594  14.637  10.561  14.092
60921SOL    HW184595  14.657  10.654  14.098
60921SOL    HW284596  14.629  10.544  13.998
60922SOL     OW84597   5.087  11.872   6.872
60922SOL    HW184598   5.164  11.916   6.909
60922SOL    HW284599   5.114  11.780   6.864
60923SOL     OW84600   7.376   3.988   0.545
60923SOL    HW184601   7.430   4.060   0.513
60923SOL    HW284602   7.432   3.944   0.610
60924SOL     OW84603   2.950   5.470   0.536
60924SOL    HW184604   2.960   5.503   0.447
60924SOL    HW284605   2.956   5.374   0.527
60925SOL     OW84606   8.552   9.930  12.326
60925SOL    HW184607   8.578   9.911  12.236
60925SOL    HW284608   8.621   9.890  12.379
60926SOL     OW84609  13.772  10.548   5.464
60926SOL    HW184610  13.820  10.628   5.440
60926SOL    HW284611  13.820  10.513   5.539
60927SOL     OW84612   0.143   0.074  13.216
60927SOL    HW184613   0.139   0.155  13.165
60927SOL    HW284614   0.071   0.082  13.279
60928SOL     OW84615  10.419  10.473  14.121
60928SOL    HW184616  10.435  10.403  14.057
60928SOL    HW284617  10.372  10.540  14.071
60929SOL     OW84618   7.029  12.578   5.790
60929SOL    HW184619   7.118  12.607   5.806
60929SOL    HW284620   6.999  12.629   5.715
60930SOL     OW84621  13.427  10.954  13.228
60930SOL    HW184622  13.522  10.961  13.224
60930SOL    HW284623  13.411  10.875  13.280
60931SOL     OW84624   9.784  12.591  11.069
60931SOL    HW184625   9.812  12.677  11.040
60931SOL    HW284626   9.862  12.535  11.059
60932SOL     OW84627   1.947  11.327  14.860
60932SOL    HW184628   1.933  11.355   0.074
60932SOL    HW284629   1.860  11.330  14.820
60933SOL     OW84630   6.184   0.375   7.269
60933SOL    HW184631   6.163   0.358   7.177
60933SOL    HW284632   6.234   0.456   7.268
60934SOL     OW84633   3.578   8.703  13.029
60934SOL    HW184634   3.525   8.644  13.082
60934SOL    HW284635   3.668   8.678  13.047
60935SOL     OW84636   3.462   6.939  11.856
60935SOL    HW184637   3.528   6.872  11.841
60935SOL    HW284638   3.512   7.018  11.874
60936SOL     OW84639   2.768   9.907   2.548
60936SOL    HW184640   2.729   9.830   2.507
60936SOL    HW284641   2.708   9.932   2.618
60937SOL     OW84642   7.798   0.602   9.798
60937SOL    HW184643   7.873   0.625   9.743
60937SOL    HW284644   7.810   0.656   9.877
60938SOL     OW84645  13.977  11.769  10.057
60938SOL    HW184646  14.005  11.761   9.966
60938SOL    HW284647  14.049  11.815  10.100
60939SOL     OW84648   0.500  10.750   6.908
60939SOL    HW184649   0.419  10.800   6.916
60939SOL    HW284650   0.569  10.816   6.901
60940SOL     OW84651  13.678   4.883   3.245
60940SOL    HW184652  13.699   4.959   3.191
60940SOL    HW284653  13.710   4.808   3.195
60941SOL     OW84654  11.861  11.584   3.687
60941SOL    HW184655  11.918  11.554   3.757
60941SOL    HW284656  11.776  11.597   3.729
60942SOL     OW84657  13.635  14.186   0.624
60942SOL    HW184658  13.637  14.124   0.551
60942SOL    HW284659  13.704  14.154   0.683
60943SOL     OW84660   1.868   1.442   4.365
60943SOL    HW184661   1.898   1.526   4.332
60943SOL    HW284662   1.839   1.460   4.455
60944SOL     OW84663   3.290   3.300   8.747
60944SOL    HW184664   3.195   3.294   8.740
60944SOL    HW284665   3.308   3.394   8.755
60945SOL     OW84666   0.843   0.567   6.557
60945SOL    HW184667   0.803   0.491   6.599
60945SOL    HW284668   0.825   0.640   6.616
60946SOL     OW84669   1.861   5.634   5.843
60946SOL    HW184670   1.838   5.707   5.900
60946SOL    HW284671   1.836   5.556   5.892
60947SOL     OW84672   1.381   3.610   1.749
60947SOL    HW184673   1.461   3.621   1.801
60947SOL    HW284674   1.412   3.609   1.658
60948SOL     OW84675   9.130   9.956  12.068
60948SOL    HW184676   9.084   9.888  12.019
60948SOL    HW284677   9.139   9.920  12.156
60949SOL     OW84678   8.665   9.930   1.674
60949SOL    HW184679   8.640   9.840   1.695
60949SOL    HW284680   8.682   9.929   1.580
60950SOL     OW84681   6.901  12.271   1.168
60950SOL    HW184682   6.851  12.342   1.207
60950SOL    HW284683   6.929  12.305   1.083
60951SOL     OW84684   2.737   5.163   6.594
60951SOL    HW184685   2.663   5.199   6.644
60951SOL    HW284686   2.714   5.071   6.581
60952SOL     OW84687  10.179   5.880  12.942
60952SOL    HW184688  10.203   5.863  13.033
60952SOL    HW284689  10.097   5.930  12.948
60953SOL     OW84690  10.269   6.141  12.255
60953SOL    HW184691  10.265   6.151  12.160
60953SOL    HW284692  10.357   6.172  12.279
60954SOL     OW84693  11.069  11.643   3.551
60954SOL    HW184694  11.130  11.663   3.480
60954SOL    HW284695  11.105  11.565   3.592
60955SOL     OW84696   4.184   2.537  11.874
60955SOL    HW184697   4.156   2.529  11.966
60955SOL    HW284698   4.160   2.626  11.850
60956SOL     OW84699  12.585  10.082   6.527
60956SOL    HW184700  12.613  10.138   6.600
60956SOL    HW284701  12.532  10.140   6.472
60957SOL     OW84702   3.850  13.704  13.887
60957SOL    HW184703   3.767  13.725  13.929
60957SOL    HW284704   3.875  13.786  13.843
60958SOL     OW84705  13.156  13.653   5.051
60958SOL    HW184706  13.086  13.718   5.042
60958SOL    HW284707  13.237  13.704   5.045
60959SOL     OW84708  12.708  14.379   1.016
60959SOL    HW184709  12.661  14.295   1.016
60959SOL    HW284710  12.703  14.409   1.106
60960SOL     OW84711  11.143   1.230  11.643
60960SOL    HW184712  11.050   1.251  11.633
60960SOL    HW284713  11.170   1.199  11.556
60961SOL     OW84714   6.835   9.219   2.776
60961SOL    HW184715   6.754   9.168   2.779
60961SOL    HW284716   6.903   9.157   2.801
60962SOL     OW84717  12.553  11.871   6.973
60962SOL    HW184718  12.626  11.830   7.020
60962SOL    HW284719  12.529  11.947   7.025
60963SOL     OW84720   2.607   8.917   8.948
60963SOL    HW184721   2.586   8.896   8.857
60963SOL    HW284722   2.691   8.874   8.963
60964SOL     OW84723  12.849  14.457   1.791
60964SOL    HW184724  12.913  14.401   1.835
60964SOL    HW284725  12.764  14.420   1.815
60965SOL     OW84726   5.180   6.145   3.148
60965SOL    HW184727   5.184   6.202   3.224
60965SOL    HW284728   5.223   6.194   3.078
60966SOL     OW84729   7.653   3.936   8.777
60966SOL    HW184730   7.721   3.875   8.805
60966SOL    HW284731   7.671   4.017   8.825
60967SOL     OW84732   5.691   6.777   0.790
60967SOL    HW184733   5.648   6.848   0.742
60967SOL    HW284734   5.685   6.701   0.732
60968SOL     OW84735  12.626   3.396   7.620
60968SOL    HW184736  12.542   3.422   7.582
60968SOL    HW284737  12.620   3.425   7.711
60969SOL     OW84738   0.084   7.479   8.904
60969SOL    HW184739   0.034   7.478   8.822
60969SOL    HW284740   0.157   7.420   8.888
60970SOL     OW84741   4.137  10.084   5.746
60970SOL    HW184742   4.177  10.133   5.673
60970SOL    HW284743   4.211  10.048   5.794
60971SOL     OW84744   9.893   9.509   3.511
60971SOL    HW184745   9.987   9.497   3.497
60971SOL    HW284746   9.857   9.522   3.423
60972SOL     OW84747   4.338   1.922   9.014
60972SOL    HW184748   4.330   1.995   8.952
60972SOL    HW284749   4.301   1.847   8.968
60973SOL     OW84750   7.525   1.209  12.179
60973SOL    HW184751   7.581   1.259  12.120
60973SOL    HW284752   7.543   1.117  12.157
60974SOL     OW84753   3.820   4.982  11.169
60974SOL    HW184754   3.808   4.967  11.075
60974SOL    HW284755   3.829   5.076  11.177
60975SOL     OW84756   0.025  12.548  14.855
60975SOL    HW184757   0.050  12.635  14.825
60975SOL    HW284758  14.835  12.518  14.792
60976SOL     OW84759  12.863  10.294   6.788
60976SOL    HW184760  12.772  10.269   6.804
60976SOL    HW284761  12.914  10.218   6.817
60977SOL     OW84762   0.993   7.967  14.695
60977SOL    HW184763   1.075   8.015  14.706
60977SOL    HW284764   0.993   7.942  14.602
60978SOL     OW84765   9.038   6.254   4.633
60978SOL    HW184766   9.104   6.264   4.701
60978SOL    HW284767   8.963   6.215   4.678
60979SOL     OW84768   7.856   7.665   3.587
60979SOL    HW184769   7.833   7.668   3.680
60979SOL    HW284770   7.805   7.737   3.548
60980SOL     OW84771  12.656   5.925   9.758
60980SOL    HW184772  12.688   5.859   9.821
60980SOL    HW284773  12.698   5.901   9.675
60981SOL     OW84774  13.476   0.935  14.326
60981SOL    HW184775  13.426   0.975  14.254
60981SOL    HW284776  13.446   0.981  14.404
60982SOL     OW84777  11.355   2.707  14.430
60982SOL    HW184778  11.274   2.687  14.477
60982SOL    HW284779  11.360   2.640  14.362
60983SOL     OW84780   3.276  11.590  14.708
60983SOL    HW184781   3.230  11.546  14.779
60983SOL    HW284782   3.350  11.533  14.688
60984SOL     OW84783  13.469   7.786   1.689
60984SOL    HW184784  13.384   7.810   1.654
60984SOL    HW284785  13.484   7.697   1.659
60985SOL     OW84786   2.803   2.354  11.064
60985SOL    HW184787   2.793   2.394  11.150
60985SOL    HW284788   2.839   2.424  11.009
60986SOL     OW84789  14.581   1.262   5.118
60986SOL    HW184790  14.675   1.278   5.117
60986SOL    HW284791  14.572   1.173   5.152
60987SOL     OW84792   3.926   1.302   0.438
60987SOL    HW184793   3.954   1.368   0.375
60987SOL    HW284794   3.946   1.218   0.395
60988SOL     OW84795  13.659  10.226   7.177
60988SOL    HW184796  13.638  10.151   7.121
60988SOL    HW284797  13.718  10.190   7.244
60989SOL     OW84798   1.163   0.331   5.567
60989SOL    HW184799   1.210   0.269   5.624
60989SOL    HW284800   1.102   0.276   5.518
60990SOL     OW84801   2.229  14.745  13.686
60990SOL    HW184802   2.271  14.829  13.667
60990SOL    HW284803   2.141  14.754  13.648
60991SOL     OW84804   3.777  12.655  14.014
60991SOL    HW184805   3.708  12.591  13.994
60991SOL    HW284806   3.857  12.614  13.984
60992SOL     OW84807   3.408   4.803   3.357
60992SOL    HW184808   3.340   4.741   3.330
60992SOL    HW284809   3.390   4.822   3.448
60993SOL     OW84810   6.571   9.409   6.338
60993SOL    HW184811   6.575   9.377   6.248
60993SOL    HW284812   6.660   9.439   6.357
60994SOL     OW84813   8.684   7.934   7.081
60994SOL    HW184814   8.661   7.877   7.155
60994SOL    HW284815   8.601   7.970   7.052
60995SOL     OW84816   9.723   3.751  10.191
60995SOL    HW184817   9.673   3.782  10.116
60995SOL    HW284818   9.684   3.667  10.214
60996SOL     OW84819   8.843  10.401   9.817
60996SOL    HW184820   8.795  10.468   9.866
60996SOL    HW284821   8.891  10.450   9.750
60997SOL     OW84822   5.238   6.997   3.092
60997SOL    HW184823   5.264   6.944   3.016
60997SOL    HW284824   5.270   6.948   3.167
60998SOL     OW84825   7.161   3.932  11.396
60998SOL    HW184826   7.144   3.838  11.397
60998SOL    HW284827   7.098   3.968  11.458
60999SOL     OW84828   5.833   9.053   7.404
60999SOL    HW184829   5.791   9.026   7.322
60999SOL    HW284830   5.924   9.072   7.379
61000SOL     OW84831  11.033   0.394   7.359
61000SOL    HW184832  11.000   0.314   7.319
61000SOL    HW284833  10.956   0.451   7.364
61001SOL     OW84834   4.720   0.215   0.429
61001SOL    HW184835   4.754   0.130   0.401
61001SOL    HW284836   4.677   0.197   0.513
61002SOL     OW84837  10.495   9.816   1.971
61002SOL    HW184838  10.446   9.762   2.032
61002SOL    HW284839  10.540   9.754   1.914
61003SOL     OW84840   6.426   5.423  11.469
61003SOL    HW184841   6.479   5.344  11.474
61003SOL    HW284842   6.386   5.431  11.556
61004SOL     OW84843   0.412  12.031  10.102
61004SOL    HW184844   0.351  12.104  10.098
61004SOL    HW284845   0.357  11.953  10.106
61005SOL     OW84846   6.727   2.896   3.726
61005SOL    HW184847   6.746   2.839   3.652
61005SOL    HW284848   6.725   2.838   3.802
61006SOL     OW84849   9.340   6.683  10.849
61006SOL    HW184850   9.299   6.747  10.907
61006SOL    HW284851   9.370   6.613  10.907
61007SOL     OW84852   8.596   1.587   8.998
61007SOL    HW184853   8.611   1.497   9.025
61007SOL    HW284854   8.682   1.629   9.006
61008SOL     OW84855   6.096   3.848   5.313
61008SOL    HW184856   6.059   3.929   5.277
61008SOL    HW284857   6.105   3.865   5.406
61009SOL     OW84858   1.215  12.125   3.347
61009SOL    HW184859   1.172  12.197   3.393
61009SOL    HW284860   1.165  12.113   3.267
61010SOL     OW84861   9.584   4.158   1.114
61010SOL    HW184862   9.587   4.076   1.163
61010SOL    HW284863   9.669   4.199   1.131
61011SOL     OW84864  13.907   2.159  13.512
61011SOL    HW184865  13.840   2.226  13.500
61011SOL    HW284866  13.912   2.115  13.427
61012SOL     OW84867   4.224  12.006   6.418
61012SOL    HW184868   4.163  12.075   6.445
61012SOL    HW284869   4.224  11.944   6.491
61013SOL     OW84870   7.273  13.152  10.924
61013SOL    HW184871   7.189  13.114  10.949
61013SOL    HW284872   7.250  13.222  10.862
61014SOL     OW84873   5.343   7.277   3.001
61014SOL    HW184874   5.308   7.353   3.047
61014SOL    HW284875   5.351   7.210   3.069
61015SOL     OW84876   4.189  12.959   6.814
61015SOL    HW184877   4.251  12.887   6.825
61015SOL    HW284878   4.146  12.966   6.899
61016SOL     OW84879   3.261   5.846  13.645
61016SOL    HW184880   3.302   5.923  13.685
61016SOL    HW284881   3.331   5.780  13.644
61017SOL     OW84882   4.583  13.676  11.297
61017SOL    HW184883   4.583  13.603  11.235
61017SOL    HW284884   4.513  13.655  11.358
61018SOL     OW84885  13.930  13.499   8.892
61018SOL    HW184886  13.958  13.583   8.930
61018SOL    HW284887  13.844  13.483   8.932
61019SOL     OW84888  11.455  13.033  12.074
61019SOL    HW184889  11.383  12.971  12.061
61019SOL    HW284890  11.438  13.103  12.012
61020SOL     OW84891  13.221  10.876   6.988
61020SOL    HW184892  13.311  10.875   7.021
61020SOL    HW284893  13.227  10.925   6.906
61021SOL     OW84894   8.128  11.106   6.179
61021SOL    HW184895   8.128  11.055   6.099
61021SOL    HW284896   8.160  11.192   6.153
61022SOL     OW84897   3.809  12.115   8.475
61022SOL    HW184898   3.866  12.070   8.537
61022SOL    HW284899   3.727  12.127   8.522
61023SOL     OW84900  14.672   7.974   5.207
61023SOL    HW184901  14.609   7.905   5.185
61023SOL    HW284902  14.754   7.928   5.221
61024SOL     OW84903   7.527  12.394  14.151
61024SOL    HW184904   7.535  12.330  14.222
61024SOL    HW284905   7.541  12.343  14.071
61025SOL     OW84906  12.140   7.375  11.847
61025SOL    HW184907  12.176   7.291  11.875
61025SOL    HW284908  12.046   7.360  11.838
61026SOL     OW84909  14.520  11.216  12.646
61026SOL    HW184910  14.578  11.286  12.675
61026SOL    HW284911  14.455  11.207  12.717
61027SOL     OW84912  13.251  14.759   8.649
61027SOL    HW184913  13.239  14.850   8.623
61027SOL    HW284914  13.285  14.764   8.739
61028SOL     OW84915   6.770   1.264  10.125
61028SOL    HW184916   6.690   1.315  10.141
61028SOL    HW284917   6.807   1.302  10.046
61029SOL     OW84918   4.587  13.656  12.218
61029SOL    HW184919   4.579  13.617  12.305
61029SOL    HW284920   4.626  13.587  12.164
61030SOL     OW84921   3.522   2.033   3.907
61030SOL    HW184922   3.470   1.987   3.840
61030SOL    HW284923   3.530   1.969   3.978
61031SOL     OW84924   8.303  12.536  14.403
61031SOL    HW184925   8.358  12.559  14.478
61031SOL    HW284926   8.215  12.566  14.428
61032SOL     OW84927  10.732   1.185   2.479
61032SOL    HW184928  10.722   1.243   2.554
61032SOL    HW284929  10.650   1.194   2.430
61033SOL     OW84930  10.478  11.967   3.749
61033SOL    HW184931  10.517  11.889   3.710
61033SOL    HW284932  10.496  11.958   3.843
61034SOL     OW84933   2.163   5.117  14.287
61034SOL    HW184934   2.143   5.128  14.194
61034SOL    HW284935   2.132   5.029  14.308
61035SOL     OW84936   0.258   1.728   8.767
61035SOL    HW184937   0.274   1.814   8.728
61035SOL    HW284938   0.320   1.722   8.839
61036SOL     OW84939   4.962   3.760   2.312
61036SOL    HW184940   4.979   3.668   2.292
61036SOL    HW284941   5.026   3.782   2.380
61037SOL     OW84942  13.893  10.260  11.430
61037SOL    HW184943  13.895  10.354  11.410
61037SOL    HW284944  13.819  10.227  11.380
61038SOL     OW84945   9.876   4.107   6.290
61038SOL    HW184946   9.951   4.068   6.245
61038SOL    HW284947   9.815   4.035   6.302
61039SOL     OW84948  11.602  13.893   3.500
61039SOL    HW184949  11.576  13.867   3.411
61039SOL    HW284950  11.690  13.930   3.489
61040SOL     OW84951  13.086  11.955   0.335
61040SOL    HW184952  13.019  11.930   0.271
61040SOL    HW284953  13.037  11.975   0.414
61041SOL     OW84954  10.728   6.919   3.490
61041SOL    HW184955  10.701   6.998   3.442
61041SOL    HW284956  10.657   6.857   3.473
61042SOL     OW84957   4.197  12.375   1.462
61042SOL    HW184958   4.206  12.466   1.489
61042SOL    HW284959   4.181  12.327   1.543
61043SOL     OW84960   9.192   2.094  14.298
61043SOL    HW184961   9.182   2.006  14.261
61043SOL    HW284962   9.189   2.081  14.393
61044SOL     OW84963   8.728   2.742   1.917
61044SOL    HW184964   8.810   2.773   1.881
61044SOL    HW284965   8.712   2.658   1.874
61045SOL     OW84966   1.739  11.547   3.028
61045SOL    HW184967   1.764  11.637   3.048
61045SOL    HW284968   1.798  11.521   2.957
61046SOL     OW84969   0.400   8.843   3.754
61046SOL    HW184970   0.426   8.864   3.664
61046SOL    HW284971   0.448   8.763   3.775
61047SOL     OW84972   3.869   4.912  13.086
61047SOL    HW184973   3.793   4.900  13.142
61047SOL    HW284974   3.839   4.971  13.017
61048SOL     OW84975  13.840   0.351   6.787
61048SOL    HW184976  13.862   0.408   6.713
61048SOL    HW284977  13.915   0.356   6.845
61049SOL     OW84978   9.485   3.916  13.511
61049SOL    HW184979   9.468   4.008  13.528
61049SOL    HW284980   9.399   3.878  13.494
61050SOL     OW84981   8.763   0.055   6.917
61050SOL    HW184982   8.829   0.107   6.872
61050SOL    HW284983   8.730  14.871   6.850
61051SOL     OW84984  11.763  10.908   1.020
61051SOL    HW184985  11.802  10.905   1.108
61051SOL    HW284986  11.806  10.838   0.972
61052SOL     OW84987   0.050   3.070   6.935
61052SOL    HW184988   0.071   3.154   6.894
61052SOL    HW284989   0.135   3.028   6.948
61053SOL     OW84990  10.106   6.199   1.811
61053SOL    HW184991  10.160   6.279   1.813
61053SOL    HW284992  10.157   6.138   1.758
61054SOL     OW84993  12.341   2.399   7.152
61054SOL    HW184994  12.424   2.373   7.193
61054SOL    HW284995  12.360   2.401   7.059
61055SOL     OW84996   3.467   0.700   7.054
61055SOL    HW184997   3.429   0.766   7.111
61055SOL    HW284998   3.530   0.749   7.000
61056SOL     OW84999   4.691  10.790  10.099
61056SOL    HW185000   4.700  10.708  10.148
61056SOL    HW285001   4.645  10.764  10.019
61057SOL     OW85002   6.012  10.454   9.098
61057SOL    HW185003   5.938  10.417   9.050
61057SOL    HW285004   6.032  10.536   9.052
61058SOL     OW85005   4.960   3.099   6.666
61058SOL    HW185006   4.999   3.115   6.752
61058SOL    HW285007   5.029   3.119   6.604
61059SOL     OW85008   5.674   8.387  12.227
61059SOL    HW185009   5.723   8.448  12.173
61059SOL    HW285010   5.586   8.385  12.189
61060SOL     OW85011  11.702   0.959  10.975
61060SOL    HW185012  11.648   0.929  11.047
61060SOL    HW285013  11.648   0.946  10.897
61061SOL     OW85014   4.840   6.661   5.262
61061SOL    HW185015   4.917   6.703   5.301
61061SOL    HW285016   4.766   6.716   5.288
61062SOL     OW85017  12.341  10.677  10.789
61062SOL    HW185018  12.248  10.658  10.804
61062SOL    HW285019  12.341  10.747  10.724
61063SOL     OW85020   5.519   3.561   6.167
61063SOL    HW185021   5.496   3.546   6.259
61063SOL    HW285022   5.531   3.473   6.131
61064SOL     OW85023  12.051  13.989   8.255
61064SOL    HW185024  11.964  13.970   8.291
61064SOL    HW285025  12.068  14.080   8.279
61065SOL     OW85026  11.784  12.984  12.887
61065SOL    HW185027  11.766  13.009  12.978
61065SOL    HW285028  11.778  12.888  12.887
61066SOL     OW85029   1.406  13.328  14.058
61066SOL    HW185030   1.468  13.296  13.994
61066SOL    HW285031   1.459  13.375  14.122
61067SOL     OW85032  11.341  12.289   0.085
61067SOL    HW185033  11.292  12.309   0.165
61067SOL    HW285034  11.431  12.276   0.116
61068SOL     OW85035   7.247   6.303  14.279
61068SOL    HW185036   7.279   6.329  14.365
61068SOL    HW285037   7.167   6.253  14.296
61069SOL     OW85038   3.787  14.280  13.475
61069SOL    HW185039   3.806  14.270  13.382
61069SOL    HW285040   3.714  14.341  13.478
61070SOL     OW85041   7.903   3.995  14.323
61070SOL    HW185042   7.851   4.027  14.396
61070SOL    HW285043   7.851   4.017  14.245
61071SOL     OW85044   7.532  12.415  10.828
61071SOL    HW185045   7.603  12.456  10.877
61071SOL    HW285046   7.513  12.476  10.758
61072SOL     OW85047   8.124   7.182   4.398
61072SOL    HW185048   8.182   7.122   4.444
61072SOL    HW285049   8.110   7.254   4.460
61073SOL     OW85050   5.694   8.483   4.749
61073SOL    HW185051   5.635   8.412   4.775
61073SOL    HW285052   5.732   8.514   4.831
61074SOL     OW85053   1.142   4.496   6.144
61074SOL    HW185054   1.167   4.412   6.183
61074SOL    HW285055   1.096   4.472   6.063
61075SOL     OW85056   5.169  10.353   9.309
61075SOL    HW185057   5.162  10.404   9.228
61075SOL    HW285058   5.079  10.343   9.339
61076SOL     OW85059   8.568   3.223   4.827
61076SOL    HW185060   8.526   3.293   4.776
61076SOL    HW285061   8.651   3.207   4.782
61077SOL     OW85062   4.359   0.762   3.106
61077SOL    HW185063   4.388   0.831   3.166
61077SOL    HW285064   4.286   0.719   3.152
61078SOL     OW85065   3.911  11.607  12.762
61078SOL    HW185066   4.005  11.612  12.782
61078SOL    HW285067   3.875  11.553  12.833
61079SOL     OW85068  12.753   7.310   5.749
61079SOL    HW185069  12.841   7.347   5.739
61079SOL    HW285070  12.701   7.352   5.682
61080SOL     OW85071  14.589   8.692   0.792
61080SOL    HW185072  14.552   8.780   0.798
61080SOL    HW285073  14.682   8.704   0.810
61081SOL     OW85074   6.651   2.166   1.737
61081SOL    HW185075   6.727   2.112   1.758
61081SOL    HW285076   6.679   2.256   1.756
61082SOL     OW85077   4.289  13.745   1.819
61082SOL    HW185078   4.331  13.822   1.783
61082SOL    HW285079   4.205  13.776   1.853
61083SOL     OW85080   2.345  12.581   2.381
61083SOL    HW185081   2.296  12.503   2.354
61083SOL    HW285082   2.418  12.586   2.319
61084SOL     OW85083  10.764  10.852   1.492
61084SOL    HW185084  10.723  10.783   1.543
61084SOL    HW285085  10.730  10.933   1.529
61085SOL     OW85086  14.638   1.446   6.760
61085SOL    HW185087  14.643   1.459   6.855
61085SOL    HW285088  14.730   1.445   6.732
61086SOL     OW85089  11.722  11.319   4.200
61086SOL    HW185090  11.795  11.282   4.249
61086SOL    HW285091  11.683  11.244   4.155
61087SOL     OW85092  10.666   1.877  11.464
61087SOL    HW185093  10.738   1.940  11.471
61087SOL    HW285094  10.607   1.915  11.399
61088SOL     OW85095  12.462   7.500   9.198
61088SOL    HW185096  12.553   7.481   9.175
61088SOL    HW285097  12.459   7.595   9.208
61089SOL     OW85098   1.032  10.145   3.698
61089SOL    HW185099   0.990  10.059   3.695
61089SOL    HW285100   1.102  10.135   3.762
61090SOL     OW85101  10.971  12.135   9.824
61090SOL    HW185102  10.929  12.087   9.753
61090SOL    HW285103  11.023  12.069   9.870
61091SOL     OW85104   5.734   5.541  10.849
61091SOL    HW185105   5.708   5.466  10.902
61091SOL    HW285106   5.826   5.554  10.870
61092SOL     OW85107   7.342  10.647   6.500
61092SOL    HW185108   7.386  10.643   6.585
61092SOL    HW285109   7.327  10.556   6.476
61093SOL     OW85110  10.720  13.381  14.536
61093SOL    HW185111  10.781  13.454  14.521
61093SOL    HW285112  10.766  13.305  14.500
61094SOL     OW85113  11.282   3.682   5.587
61094SOL    HW185114  11.288   3.589   5.563
61094SOL    HW285115  11.295   3.728   5.504
61095SOL     OW85116   9.013   3.543   6.299
61095SOL    HW185117   8.933   3.559   6.349
61095SOL    HW285118   9.071   3.615   6.323
61096SOL     OW85119  13.738  12.461   9.301
61096SOL    HW185120  13.714  12.391   9.363
61096SOL    HW285121  13.820  12.429   9.262
61097SOL     OW85122   1.563   0.003  10.682
61097SOL    HW185123   1.576  14.784  10.681
61097SOL    HW285124   1.483   0.017  10.633
61098SOL     OW85125  10.349  10.354   9.558
61098SOL    HW185126  10.299  10.274   9.541
61098SOL    HW285127  10.332  10.373   9.650
61099SOL     OW85128   4.866   8.429   2.133
61099SOL    HW185129   4.854   8.516   2.170
61099SOL    HW285130   4.845   8.369   2.206
61100SOL     OW85131   8.502   6.183   2.765
61100SOL    HW185132   8.406   6.187   2.770
61100SOL    HW285133   8.525   6.257   2.709
61101SOL     OW85134  10.075   3.407   2.966
61101SOL    HW185135  10.090   3.326   3.014
61101SOL    HW285136  10.142   3.467   2.998
61102SOL     OW85137  11.846  12.166  12.025
61102SOL    HW185138  11.866  12.245  11.975
61102SOL    HW285139  11.900  12.172  12.104
61103SOL     OW85140  14.482   4.208   6.190
61103SOL    HW185141  14.500   4.282   6.132
61103SOL    HW285142  14.426   4.150   6.138
61104SOL     OW85143   7.923   8.454   0.279
61104SOL    HW185144   7.938   8.371   0.323
61104SOL    HW285145   8.009   8.477   0.242
61105SOL     OW85146   0.718  12.068   4.199
61105SOL    HW185147   0.649  12.032   4.142
61105SOL    HW285148   0.709  12.021   4.281
61106SOL     OW85149   1.512   4.174  13.226
61106SOL    HW185150   1.592   4.145  13.183
61106SOL    HW285151   1.502   4.265  13.199
61107SOL     OW85152  10.804   0.753   1.015
61107SOL    HW185153  10.813   0.755   0.920
61107SOL    HW285154  10.772   0.840   1.038
61108SOL     OW85155   2.534   2.722  14.638
61108SOL    HW185156   2.552   2.637  14.598
61108SOL    HW285157   2.439   2.731  14.633
61109SOL     OW85158  11.200   4.801   3.122
61109SOL    HW185159  11.119   4.836   3.160
61109SOL    HW285160  11.184   4.800   3.028
61110SOL     OW85161   7.882   4.120   7.877
61110SOL    HW185162   7.843   4.202   7.846
61110SOL    HW285163   7.860   4.056   7.810
61111SOL     OW85164  11.577   1.759  11.406
61111SOL    HW185165  11.573   1.665  11.390
61111SOL    HW285166  11.598   1.766  11.499
61112SOL     OW85167   6.976   2.748  12.213
61112SOL    HW185168   6.926   2.817  12.257
61112SOL    HW285169   7.066   2.781  12.211
61113SOL     OW85170   5.467  12.585  10.549
61113SOL    HW185171   5.381  12.582  10.592
61113SOL    HW285172   5.527  12.549  10.614
61114SOL     OW85173   4.830  11.393   0.070
61114SOL    HW185174   4.815  11.302   0.046
61114SOL    HW285175   4.892  11.425   0.005
61115SOL     OW85176  14.038   1.821   0.444
61115SOL    HW185177  13.992   1.905   0.456
61115SOL    HW285178  14.040   1.783   0.532
61116SOL     OW85179  11.719   0.516  10.313
61116SOL    HW185180  11.798   0.570  10.311
61116SOL    HW285181  11.744   0.440  10.366
61117SOL     OW85182  11.656   6.864   8.416
61117SOL    HW185183  11.751   6.860   8.418
61117SOL    HW285184  11.628   6.774   8.436
61118SOL     OW85185   9.255   8.942  11.962
61118SOL    HW185186   9.327   8.924  11.901
61118SOL    HW285187   9.197   8.867  11.954
61119SOL     OW85188   3.760   3.847  11.556
61119SOL    HW185189   3.814   3.918  11.521
61119SOL    HW285190   3.676   3.856  11.511
61120SOL     OW85191   5.153   3.319   7.545
61120SOL    HW185192   5.146   3.273   7.628
61120SOL    HW285193   5.167   3.249   7.481
61121SOL     OW85194  12.421   0.593  11.923
61121SOL    HW185195  12.493   0.547  11.965
61121SOL    HW285196  12.377   0.639  11.994
61122SOL     OW85197  10.906   0.778   1.542
61122SOL    HW185198  10.914   0.738   1.455
61122SOL    HW285199  10.828   0.832   1.536
61123SOL     OW85200  11.478   5.205   1.382
61123SOL    HW185201  11.561   5.170   1.414
61123SOL    HW285202  11.412   5.144   1.416
61124SOL     OW85203  11.500   4.352   9.221
61124SOL    HW185204  11.465   4.401   9.146
61124SOL    HW285205  11.590   4.383   9.229
61125SOL     OW85206   1.301  13.833   3.004
61125SOL    HW185207   1.322  13.821   3.096
61125SOL    HW285208   1.342  13.759   2.960
61126SOL     OW85209  10.598   7.633   8.386
61126SOL    HW185210  10.547   7.657   8.464
61126SOL    HW285211  10.631   7.716   8.352
61127SOL     OW85212   8.581   9.805   5.713
61127SOL    HW185213   8.500   9.814   5.664
61127SOL    HW285214   8.559   9.745   5.784
61128SOL     OW85215   4.762  11.459  10.034
61128SOL    HW185216   4.755  11.553  10.050
61128SOL    HW285217   4.673  11.426  10.043
61129SOL     OW85218  12.859   6.441   5.834
61129SOL    HW185219  12.776   6.482   5.814
61129SOL    HW285220  12.923   6.489   5.781
61130SOL     OW85221   2.965  12.384   6.170
61130SOL    HW185222   2.935  12.298   6.141
61130SOL    HW285223   2.933  12.444   6.103
61131SOL     OW85224  10.702   1.353   1.416
61131SOL    HW185225  10.733   1.443   1.421
61131SOL    HW285226  10.782   1.301   1.406
61132SOL     OW85227  12.753   9.127   9.040
61132SOL    HW185228  12.702   9.063   8.992
61132SOL    HW285229  12.827   9.146   8.982
61133SOL     OW85230   0.460   2.727  13.090
61133SOL    HW185231   0.525   2.704  13.156
61133SOL    HW285232   0.380   2.745  13.140
61134SOL     OW85233  13.074   3.028   8.556
61134SOL    HW185234  13.154   2.980   8.532
61134SOL    HW285235  13.003   2.971   8.527
61135SOL     OW85236   8.970   3.901   4.331
61135SOL    HW185237   8.929   3.827   4.377
61135SOL    HW285238   9.063   3.883   4.334
61136SOL     OW85239   7.554   2.326   9.960
61136SOL    HW185240   7.544   2.247  10.012
61136SOL    HW285241   7.629   2.371   9.998
61137SOL     OW85242   1.297  13.857   4.893
61137SOL    HW185243   1.247  13.803   4.832
61137SOL    HW285244   1.347  13.794   4.945
61138SOL     OW85245   9.487   8.446  10.676
61138SOL    HW185246   9.489   8.533  10.635
61138SOL    HW285247   9.579   8.420  10.681
61139SOL     OW85248   5.480   8.096   2.818
61139SOL    HW185249   5.398   8.135   2.848
61139SOL    HW285250   5.460   8.003   2.808
61140SOL     OW85251   2.475   4.096   9.008
61140SOL    HW185252   2.405   4.045   8.969
61140SOL    HW285253   2.488   4.056   9.094
61141SOL     OW85254   0.487   5.480   5.248
61141SOL    HW185255   0.419   5.414   5.235
61141SOL    HW285256   0.556   5.435   5.295
61142SOL     OW85257   8.134  11.437  10.053
61142SOL    HW185258   8.040  11.434  10.035
61142SOL    HW285259   8.140  11.457  10.147
61143SOL     OW85260   1.568   4.237   9.232
61143SOL    HW185261   1.583   4.331   9.224
61143SOL    HW285262   1.573   4.220   9.326
61144SOL     OW85263  13.740   1.086   5.272
61144SOL    HW185264  13.813   1.103   5.330
61144SOL    HW285265  13.780   1.057   5.190
61145SOL     OW85266   5.334   1.495   8.029
61145SOL    HW185267   5.407   1.541   7.987
61145SOL    HW285268   5.301   1.558   8.093
61146SOL     OW85269  10.632   6.671   8.147
61146SOL    HW185270  10.609   6.758   8.116
61146SOL    HW285271  10.632   6.680   8.243
61147SOL     OW85272   2.084  12.871   1.279
61147SOL    HW185273   2.117  12.871   1.189
61147SOL    HW285274   1.990  12.881   1.270
61148SOL     OW85275   5.772   7.280   4.759
61148SOL    HW185276   5.746   7.230   4.681
61148SOL    HW285277   5.867   7.273   4.761
61149SOL     OW85278  14.547   0.990   5.181
61149SOL    HW185279  14.636   0.992   5.144
61149SOL    HW285280  14.492   0.957   5.110
61150SOL     OW85281   2.545   9.845  13.760
61150SOL    HW185282   2.494   9.767  13.782
61150SOL    HW285283   2.586   9.825  13.676
61151SOL     OW85284   9.184   2.155   2.535
61151SOL    HW185285   9.097   2.130   2.565
61151SOL    HW285286   9.236   2.075   2.542
61152SOL     OW85287   8.129   7.193  14.201
61152SOL    HW185288   8.154   7.145  14.280
61152SOL    HW285289   8.088   7.273  14.234
61153SOL     OW85290   3.058   5.810  10.152
61153SOL    HW185291   3.032   5.719  10.168
61153SOL    HW285292   3.147   5.816  10.185
61154SOL     OW85293  12.115  10.674   6.534
61154SOL    HW185294  12.105  10.757   6.580
61154SOL    HW285295  12.030  10.631   6.541
61155SOL     OW85296   9.065  11.200   1.499
61155SOL    HW185297   9.079  11.180   1.591
61155SOL    HW285298   9.123  11.274   1.481
61156SOL     OW85299   4.730  11.822  11.200
61156SOL    HW185300   4.796  11.882  11.234
61156SOL    HW285301   4.755  11.736  11.235
61157SOL     OW85302  10.099   5.298  13.604
61157SOL    HW185303  10.111   5.259  13.518
61157SOL    HW285304  10.119   5.391  13.592
61158SOL     OW85305   8.376   3.102   4.267
61158SOL    HW185306   8.330   3.126   4.186
61158SOL    HW285307   8.456   3.058   4.236
61159SOL     OW85308  12.823  10.144   5.118
61159SOL    HW185309  12.792  10.186   5.198
61159SOL    HW285310  12.779  10.059   5.118
61160SOL     OW85311   8.186   4.131  11.695
61160SOL    HW185312   8.277   4.104  11.709
61160SOL    HW285313   8.147   4.058  11.647
61161SOL     OW85314  11.547  11.625   6.905
61161SOL    HW185315  11.504  11.586   6.829
61161SOL    HW285316  11.606  11.691   6.868
61162SOL     OW85317   3.363   0.037   4.365
61162SOL    HW185318   3.393  14.859   4.292
61162SOL    HW285319   3.389  14.864   4.444
61163SOL     OW85320   4.744  10.522   5.805
61163SOL    HW185321   4.715  10.558   5.721
61163SOL    HW285322   4.752  10.428   5.789
61164SOL     OW85323   4.923  13.939   9.386
61164SOL    HW185324   4.930  14.034   9.380
61164SOL    HW285325   4.860  13.924   9.456
61165SOL     OW85326   8.094   3.754   4.810
61165SOL    HW185327   8.042   3.695   4.757
61165SOL    HW285328   8.137   3.697   4.874
61166SOL     OW85329   0.221   8.591  10.852
61166SOL    HW185330   0.189   8.548  10.932
61166SOL    HW285331   0.312   8.562  10.845
61167SOL     OW85332   6.814   5.601   0.741
61167SOL    HW185333   6.846   5.549   0.815
61167SOL    HW285334   6.722   5.618   0.761
61168SOL     OW85335   7.804  13.768   6.169
61168SOL    HW185336   7.722  13.721   6.186
61168SOL    HW285337   7.872  13.700   6.171
61169SOL     OW85338   0.546   1.829   2.080
61169SOL    HW185339   0.555   1.785   2.165
61169SOL    HW285340   0.635   1.838   2.048
61170SOL     OW85341   5.641   8.508  14.028
61170SOL    HW185342   5.635   8.526  13.934
61170SOL    HW285343   5.612   8.417  14.037
61171SOL     OW85344   3.618   3.430   1.459
61171SOL    HW185345   3.662   3.477   1.530
61171SOL    HW285346   3.677   3.358   1.438
61172SOL     OW85347   2.040   8.924   2.170
61172SOL    HW185348   2.121   8.889   2.134
61172SOL    HW285349   2.001   8.974   2.099
61173SOL     OW85350  11.525   5.977  14.013
61173SOL    HW185351  11.521   5.922  14.091
61173SOL    HW285352  11.614   5.966  13.981
61174SOL     OW85353   0.209   0.962   9.650
61174SOL    HW185354   0.286   1.007   9.616
61174SOL    HW285355   0.216   0.971   9.745
61175SOL     OW85356  11.265  12.974  12.886
61175SOL    HW185357  11.247  12.991  12.979
61175SOL    HW285358  11.245  12.881  12.874
61176SOL     OW85359   5.040   2.080  14.714
61176SOL    HW185360   4.999   2.151  14.664
61176SOL    HW285361   4.966   2.024  14.740
61177SOL     OW85362  11.639   2.665  12.129
61177SOL    HW185363  11.639   2.736  12.065
61177SOL    HW285364  11.591   2.701  12.204
61178SOL     OW85365   2.373   3.988   2.938
61178SOL    HW185366   2.403   3.897   2.942
61178SOL    HW285367   2.280   3.984   2.958
61179SOL     OW85368   8.371   5.745   5.998
61179SOL    HW185369   8.337   5.754   6.087
61179SOL    HW285370   8.397   5.653   5.991
61180SOL     OW85371   0.706  12.381  11.946
61180SOL    HW185372   0.639  12.352  11.883
61180SOL    HW285373   0.697  12.476  11.948
61181SOL     OW85374   4.692  13.056   7.304
61181SOL    HW185375   4.737  13.054   7.389
61181SOL    HW285376   4.645  12.972   7.300
61182SOL     OW85377   2.010  12.938  12.936
61182SOL    HW185378   2.084  12.911  12.990
61182SOL    HW285379   1.956  12.992  12.994
61183SOL     OW85380  14.095   0.279   8.288
61183SOL    HW185381  14.186   0.268   8.263
61183SOL    HW285382  14.094   0.360   8.340
61184SOL     OW85383   7.409   5.721  10.612
61184SOL    HW185384   7.389   5.693  10.523
61184SOL    HW285385   7.360   5.661  10.668
61185SOL     OW85386   0.021   8.497   3.123
61185SOL    HW185387   0.005   8.527   3.034
61185SOL    HW285388  14.812   8.506   3.167
61186SOL     OW85389   1.964   7.304  14.755
61186SOL    HW185390   2.024   7.238  14.787
61186SOL    HW285391   1.950   7.282  14.663
61187SOL     OW85392   8.392   1.523   2.973
61187SOL    HW185393   8.432   1.610   2.977
61187SOL    HW285394   8.327   1.522   3.042
61188SOL     OW85395  11.279   2.783   3.350
61188SOL    HW185396  11.323   2.766   3.267
61188SOL    HW285397  11.227   2.862   3.333
61189SOL     OW85398   5.759   2.901  13.695
61189SOL    HW185399   5.795   2.895  13.606
61189SOL    HW285400   5.675   2.856  13.689
61190SOL     OW85401   2.705   7.184   7.009
61190SOL    HW185402   2.787   7.136   7.019
61190SOL    HW285403   2.704   7.244   7.083
61191SOL     OW85404   5.727   4.042   1.692
61191SOL    HW185405   5.802   4.092   1.725
61191SOL    HW285406   5.764   3.980   1.629
61192SOL     OW85407  12.086  13.358  10.139
61192SOL    HW185408  12.096  13.434  10.082
61192SOL    HW285409  12.013  13.380  10.196
61193SOL     OW85410  11.409   7.830  14.313
61193SOL    HW185411  11.394   7.793  14.400
61193SOL    HW285412  11.431   7.754  14.259
61194SOL     OW85413   2.931   9.846   6.071
61194SOL    HW185414   3.015   9.850   6.025
61194SOL    HW285415   2.955   9.834   6.163
61195SOL     OW85416   5.635   2.157  10.155
61195SOL    HW185417   5.725   2.157  10.123
61195SOL    HW285418   5.583   2.127  10.081
61196SOL     OW85419  13.862  13.336   1.215
61196SOL    HW185420  13.931  13.270   1.226
61196SOL    HW285421  13.908  13.417   1.195
61197SOL     OW85422   5.416   5.914   5.553
61197SOL    HW185423   5.472   5.901   5.629
61197SOL    HW285424   5.381   6.003   5.565
61198SOL     OW85425   6.113  10.793  12.138
61198SOL    HW185426   6.026  10.778  12.100
61198SOL    HW285427   6.146  10.706  12.158
61199SOL     OW85428   9.707   8.265   1.443
61199SOL    HW185429   9.682   8.193   1.500
61199SOL    HW285430   9.802   8.253   1.430
61200SOL     OW85431  14.339  10.665   5.028
61200SOL    HW185432  14.283  10.672   5.106
61200SOL    HW285433  14.287  10.703   4.958
61201SOL     OW85434  14.418   1.467   1.784
61201SOL    HW185435  14.494   1.413   1.806
61201SOL    HW285436  14.456   1.548   1.749
61202SOL     OW85437   1.828   5.887   4.388
61202SOL    HW185438   1.901   5.902   4.328
61202SOL    HW285439   1.766   5.834   4.338
61203SOL     OW85440   8.405   4.338   6.613
61203SOL    HW185441   8.472   4.293   6.665
61203SOL    HW285442   8.369   4.270   6.557
61204SOL     OW85443  11.043   5.718  13.168
61204SOL    HW185444  11.051   5.645  13.107
61204SOL    HW285445  11.039   5.676  13.254
61205SOL     OW85446   9.322   7.904  12.108
61205SOL    HW185447   9.344   7.820  12.068
61205SOL    HW285448   9.337   7.968  12.039
61206SOL     OW85449  13.397   1.666   7.303
61206SOL    HW185450  13.483   1.676   7.343
61206SOL    HW285451  13.337   1.653   7.377
61207SOL     OW85452   1.456  13.108   6.762
61207SOL    HW185453   1.478  13.041   6.697
61207SOL    HW285454   1.515  13.091   6.835
61208SOL     OW85455   5.127   9.983   9.934
61208SOL    HW185456   5.062   9.956   9.869
61208SOL    HW285457   5.207   9.938   9.906
61209SOL     OW85458   1.583   9.142  10.573
61209SOL    HW185459   1.564   9.226  10.533
61209SOL    HW285460   1.503   9.118  10.620
61210SOL     OW85461  13.014   4.573   6.529
61210SOL    HW185462  12.992   4.540   6.442
61210SOL    HW285463  12.946   4.638   6.548
61211SOL     OW85464   0.883   6.364   4.046
61211SOL    HW185465   0.956   6.396   3.992
61211SOL    HW285466   0.911   6.277   4.075
61212SOL     OW85467   1.703  11.719  11.468
61212SOL    HW185468   1.747  11.758  11.392
61212SOL    HW285469   1.771  11.711  11.534
61213SOL     OW85470   5.200   3.866   3.116
61213SOL    HW185471   5.153   3.811   3.179
61213SOL    HW285472   5.150   3.948   3.114
61214SOL     OW85473  13.630   3.513  12.537
61214SOL    HW185474  13.608   3.549  12.623
61214SOL    HW285475  13.675   3.431  12.557
61215SOL     OW85476   1.937   7.230   4.769
61215SOL    HW185477   1.912   7.145   4.733
61215SOL    HW285478   1.938   7.288   4.693
61216SOL     OW85479   7.757   6.054  14.344
61216SOL    HW185480   7.732   6.140  14.312
61216SOL    HW285481   7.805   6.014  14.271
61217SOL     OW85482  11.886  13.214  13.921
61217SOL    HW185483  11.832  13.224  13.999
61217SOL    HW285484  11.887  13.300  13.880
61218SOL     OW85485   1.206   1.081   9.254
61218SOL    HW185486   1.164   1.117   9.333
61218SOL    HW285487   1.251   1.156   9.215
61219SOL     OW85488   0.173   6.430   4.000
61219SOL    HW185489   0.140   6.520   3.990
61219SOL    HW285490   0.138   6.401   4.084
61220SOL     OW85491   0.876   3.379  12.371
61220SOL    HW185492   0.866   3.299  12.320
61220SOL    HW285493   0.855   3.353  12.461
61221SOL     OW85494   7.800   1.401   6.618
61221SOL    HW185495   7.831   1.486   6.586
61221SOL    HW285496   7.861   1.338   6.580
61222SOL     OW85497   2.798   7.984   6.630
61222SOL    HW185498   2.869   7.925   6.655
61222SOL    HW285499   2.840   8.048   6.573
61223SOL     OW85500   8.828   0.482  11.199
61223SOL    HW185501   8.899   0.424  11.171
61223SOL    HW285502   8.831   0.556  11.138
61224SOL     OW85503   1.816   4.855   5.097
61224SOL    HW185504   1.891   4.819   5.048
61224SOL    HW285505   1.840   4.945   5.115
61225SOL     OW85506   9.713   2.479  10.270
61225SOL    HW185507   9.701   2.555  10.326
61225SOL    HW285508   9.802   2.487  10.236
61226SOL     OW85509  13.298   6.082   1.476
61226SOL    HW185510  13.245   6.007   1.504
61226SOL    HW285511  13.330   6.057   1.389
61227SOL     OW85512   0.043  10.198  12.119
61227SOL    HW185513  14.874  10.261  12.063
61227SOL    HW285514   0.044  10.117  12.068
61228SOL     OW85515  12.953  12.440   0.985
61228SOL    HW185516  13.012  12.506   0.948
61228SOL    HW285517  12.962  12.450   1.080
61229SOL     OW85518  14.442   4.595   7.213
61229SOL    HW185519  14.363   4.643   7.188
61229SOL    HW285520  14.491   4.656   7.268
61230SOL     OW85521   5.755   6.100  12.565
61230SOL    HW185522   5.844   6.116  12.533
61230SOL    HW285523   5.719   6.035  12.505
61231SOL     OW85524   4.232   8.176   9.276
61231SOL    HW185525   4.321   8.152   9.253
61231SOL    HW285526   4.186   8.182   9.192
61232SOL     OW85527   7.753   0.621   7.051
61232SOL    HW185528   7.834   0.622   6.999
61232SOL    HW285529   7.751   0.533   7.089
61233SOL     OW85530   7.738   0.778   5.522
61233SOL    HW185531   7.820   0.749   5.560
61233SOL    HW285532   7.704   0.842   5.585
61234SOL     OW85533   9.748   6.122   4.422
61234SOL    HW185534   9.780   6.099   4.335
61234SOL    HW285535   9.655   6.143   4.409
61235SOL     OW85536   8.402  10.063  11.831
61235SOL    HW185537   8.388  10.157  11.843
61235SOL    HW285538   8.321  10.031  11.791
61236SOL     OW85539   3.291  10.413  13.213
61236SOL    HW185540   3.237  10.405  13.134
61236SOL    HW285541   3.273  10.333  13.262
61237SOL     OW85542   7.066  14.705   2.988
61237SOL    HW185543   7.005  14.758   2.936
61237SOL    HW285544   7.109  14.767   3.046
61238SOL     OW85545   8.688   0.115  14.294
61238SOL    HW185546   8.703   0.155  14.208
61238SOL    HW285547   8.773   0.080  14.320
61239SOL     OW85548   4.657  13.049   7.034
61239SOL    HW185549   4.670  13.126   6.979
61239SOL    HW285550   4.698  13.071   7.117
61240SOL     OW85551   3.498   6.491   0.991
61240SOL    HW185552   3.546   6.489   1.074
61240SOL    HW285553   3.491   6.585   0.970
61241SOL     OW85554   0.252   1.809   7.564
61241SOL    HW185555   0.250   1.720   7.599
61241SOL    HW285556   0.209   1.802   7.479
61242SOL     OW85557   7.115  12.201   7.497
61242SOL    HW185558   7.032  12.207   7.545
61242SOL    HW285559   7.154  12.288   7.506
61243SOL     OW85560   6.327   1.638   2.888
61243SOL    HW185561   6.258   1.589   2.933
61243SOL    HW285562   6.353   1.582   2.816
61244SOL     OW85563   9.043  13.141   9.433
61244SOL    HW185564   9.032  13.083   9.508
61244SOL    HW285565   9.055  13.082   9.359
61245SOL     OW85566  11.369   2.862   8.293
61245SOL    HW185567  11.376   2.774   8.257
61245SOL    HW285568  11.415   2.858   8.377
61246SOL     OW85569  14.645   1.617  14.577
61246SOL    HW185570  14.610   1.549  14.519
61246SOL    HW285571  14.577   1.684  14.579
61247SOL     OW85572   2.157   8.639  14.313
61247SOL    HW185573   2.116   8.590  14.385
61247SOL    HW285574   2.119   8.600  14.234
61248SOL     OW85575   0.223   8.937   7.047
61248SOL    HW185576   0.261   8.865   6.998
61248SOL    HW285577   0.296   8.970   7.101
61249SOL     OW85578   8.164   0.644   5.370
61249SOL    HW185579   8.073   0.636   5.342
61249SOL    HW285580   8.160   0.701   5.447
61250SOL     OW85581   1.482   9.031   5.291
61250SOL    HW185582   1.428   8.953   5.297
61250SOL    HW285583   1.518   9.029   5.202
61251SOL     OW85584   1.712   4.264   9.767
61251SOL    HW185585   1.804   4.255   9.745
61251SOL    HW285586   1.676   4.321   9.699
61252SOL     OW85587   1.418  12.310   9.956
61252SOL    HW185588   1.432  12.250  10.029
61252SOL    HW285589   1.331  12.286   9.922
61253SOL     OW85590  13.138   4.953   9.100
61253SOL    HW185591  13.112   5.037   9.139
61253SOL    HW285592  13.056   4.917   9.067
61254SOL     OW85593   1.790   1.670   7.280
61254SOL    HW185594   1.695   1.679   7.274
61254SOL    HW285595   1.811   1.701   7.369
61255SOL     OW85596   2.349   5.564   9.613
61255SOL    HW185597   2.334   5.517   9.531
61255SOL    HW285598   2.443   5.580   9.615
61256SOL     OW85599   4.507   5.184   2.595
61256SOL    HW185600   4.439   5.234   2.641
61256SOL    HW285601   4.517   5.104   2.648
61257SOL     OW85602   6.780   0.063   5.441
61257SOL    HW185603   6.725  14.865   5.469
61257SOL    HW285604   6.812   0.037   5.355
61258SOL     OW85605   2.137   2.356   9.045
61258SOL    HW185606   2.179   2.275   9.073
61258SOL    HW285607   2.082   2.381   9.120
61259SOL     OW85608   7.549   1.309   8.920
61259SOL    HW185609   7.471   1.275   8.876
61259SOL    HW285610   7.540   1.404   8.917
61260SOL     OW85611   2.633  10.223   6.205
61260SOL    HW185612   2.705  10.207   6.144
61260SOL    HW285613   2.587  10.298   6.170
61261SOL     OW85614  12.182   5.269   5.413
61261SOL    HW185615  12.105   5.321   5.437
61261SOL    HW285616  12.254   5.310   5.459
61262SOL     OW85617  10.006  14.134  11.873
61262SOL    HW185618  10.044  14.081  11.804
61262SOL    HW285619  10.017  14.224  11.845
61263SOL     OW85620  10.707  14.797   3.189
61263SOL    HW185621  10.640  14.864   3.177
61263SOL    HW285622  10.747  14.819   3.274
61264SOL     OW85623  14.332   1.191  10.031
61264SOL    HW185624  14.365   1.109   9.994
61264SOL    HW285625  14.303   1.242   9.955
61265SOL     OW85626   4.329   3.256   6.487
61265SOL    HW185627   4.412   3.252   6.439
61265SOL    HW285628   4.285   3.334   6.453
61266SOL     OW85629   0.142  14.827   1.078
61266SOL    HW185630   0.203  14.755   1.094
61266SOL    HW285631   0.184   0.003   1.008
61267SOL     OW85632   1.130   3.369   5.213
61267SOL    HW185633   1.169   3.453   5.190
61267SOL    HW285634   1.104   3.331   5.129
61268SOL     OW85635  13.161   7.985   4.290
61268SOL    HW185636  13.085   7.961   4.342
61268SOL    HW285637  13.124   8.032   4.215
61269SOL     OW85638  14.084   5.473   7.105
61269SOL    HW185639  14.015   5.433   7.157
61269SOL    HW285640  14.146   5.402   7.088
61270SOL     OW85641   8.226   2.398   1.273
61270SOL    HW185642   8.153   2.460   1.269
61270SOL    HW285643   8.186   2.313   1.251
61271SOL     OW85644   3.742   9.862   6.679
61271SOL    HW185645   3.811   9.797   6.689
61271SOL    HW285646   3.671   9.830   6.735
61272SOL     OW85647   2.434   7.549  14.276
61272SOL    HW185648   2.420   7.641  14.253
61272SOL    HW285649   2.484   7.552  14.357
61273SOL     OW85650  11.507  11.782   5.119
61273SOL    HW185651  11.481  11.819   5.034
61273SOL    HW285652  11.424  11.764   5.163
61274SOL     OW85653   2.239   5.065  10.479
61274SOL    HW185654   2.203   5.054  10.391
61274SOL    HW285655   2.229   5.158  10.498
61275SOL     OW85656  11.084  11.833   6.585
61275SOL    HW185657  11.034  11.772   6.531
61275SOL    HW285658  11.053  11.920   6.559
61276SOL     OW85659   6.419  14.581   3.528
61276SOL    HW185660   6.473  14.585   3.449
61276SOL    HW285661   6.480  14.588   3.601
61277SOL     OW85662   4.102   8.761  11.661
61277SOL    HW185663   4.146   8.706  11.596
61277SOL    HW285664   4.140   8.848  11.650
61278SOL     OW85665   3.807   5.614  10.906
61278SOL    HW185666   3.801   5.522  10.930
61278SOL    HW285667   3.782   5.616  10.814
61279SOL     OW85668  10.496   0.451   0.996
61279SOL    HW185669  10.495   0.379   1.060
61279SOL    HW285670  10.404   0.479   0.991
61280SOL     OW85671  10.508   6.183   9.293
61280SOL    HW185672  10.487   6.202   9.201
61280SOL    HW285673  10.597   6.149   9.290
61281SOL     OW85674   6.716  11.928   0.233
61281SOL    HW185675   6.737  11.982   0.157
61281SOL    HW285676   6.717  11.988   0.307
61282SOL     OW85677   6.764   6.880  14.190
61282SOL    HW185678   6.818   6.895  14.267
61282SOL    HW285679   6.825   6.885  14.117
61283SOL     OW85680  10.193   9.538  14.185
61283SOL    HW185681  10.145   9.496  14.114
61283SOL    HW285682  10.125   9.563  14.248
61284SOL     OW85683   8.044   5.270   3.266
61284SOL    HW185684   8.065   5.246   3.356
61284SOL    HW285685   7.955   5.236   3.253
61285SOL     OW85686   3.574   8.594   7.817
61285SOL    HW185687   3.531   8.606   7.902
61285SOL    HW285688   3.657   8.551   7.838
61286SOL     OW85689   8.069  14.807  12.255
61286SOL    HW185690   8.053  14.873  12.188
61286SOL    HW285691   8.124  14.851  12.320
61287SOL     OW85692  12.098  12.512   7.462
61287SOL    HW185693  12.089  12.417   7.450
61287SOL    HW285694  12.016  12.548   7.428
61288SOL     OW85695   9.608   6.608   5.247
61288SOL    HW185696   9.582   6.608   5.154
61288SOL    HW285697   9.694   6.566   5.247
61289SOL     OW85698  13.261   2.717   2.989
61289SOL    HW185699  13.181   2.704   3.041
61289SOL    HW285700  13.285   2.808   3.007
61290SOL     OW85701   7.914   4.499   8.875
61290SOL    HW185702   8.009   4.490   8.871
61290SOL    HW285703   7.891   4.546   8.796
61291SOL     OW85704   3.589  10.711   4.717
61291SOL    HW185705   3.591  10.708   4.621
61291SOL    HW285706   3.651  10.643   4.744
61292SOL     OW85707  10.098   6.711   9.707
61292SOL    HW185708  10.023   6.769   9.692
61292SOL    HW285709  10.171   6.755   9.663
61293SOL     OW85710   4.827   2.066  14.081
61293SOL    HW185711   4.772   2.004  14.128
61293SOL    HW285712   4.781   2.149  14.088
61294SOL     OW85713   1.179   7.001   8.051
61294SOL    HW185714   1.215   7.058   8.118
61294SOL    HW285715   1.117   7.056   8.003
61295SOL     OW85716   5.340   8.816   3.446
61295SOL    HW185717   5.368   8.739   3.494
61295SOL    HW285718   5.284   8.782   3.376
61296SOL     OW85719  11.872   1.551   1.341
61296SOL    HW185720  11.913   1.626   1.385
61296SOL    HW285721  11.864   1.579   1.250
61297SOL     OW85722   4.675  10.140  11.676
61297SOL    HW185723   4.737  10.090  11.623
61297SOL    HW285724   4.676  10.228  11.637
61298SOL     OW85725   7.923   9.229  11.361
61298SOL    HW185726   8.006   9.266  11.331
61298SOL    HW285727   7.889   9.294  11.423
61299SOL     OW85728  11.642   5.837   1.577
61299SOL    HW185729  11.730   5.857   1.545
61299SOL    HW285730  11.640   5.741   1.582
61300SOL     OW85731   9.653   3.941  14.570
61300SOL    HW185732   9.585   3.882  14.540
61300SOL    HW285733   9.727   3.884  14.591
61301SOL     OW85734   9.958   3.761   3.048
61301SOL    HW185735   9.921   3.842   3.014
61301SOL    HW285736   9.998   3.718   2.972
61302SOL     OW85737  12.364  12.045  11.397
61302SOL    HW185738  12.394  11.970  11.448
61302SOL    HW285739  12.331  12.107  11.462
61303SOL     OW85740   7.446   3.116  10.434
61303SOL    HW185741   7.459   3.204  10.401
61303SOL    HW285742   7.392   3.127  10.512
61304SOL     OW85743   1.881   5.391  11.805
61304SOL    HW185744   1.915   5.303  11.793
61304SOL    HW285745   1.956   5.442  11.836
61305SOL     OW85746   4.270   5.393  11.169
61305SOL    HW185747   4.340   5.458  11.157
61305SOL    HW285748   4.312   5.321  11.217
61306SOL     OW85749  13.523   1.102   4.480
61306SOL    HW185750  13.488   1.130   4.564
61306SOL    HW285751  13.454   1.124   4.417
61307SOL     OW85752   1.353   1.813   9.716
61307SOL    HW185753   1.280   1.868   9.687
61307SOL    HW285754   1.426   1.837   9.658
61308SOL     OW85755   2.493   7.132   0.580
61308SOL    HW185756   2.471   7.221   0.555
61308SOL    HW285757   2.410   7.093   0.608
61309SOL     OW85758  10.727   9.417   5.618
61309SOL    HW185759  10.688   9.393   5.702
61309SOL    HW285760  10.656   9.403   5.555
61310SOL     OW85761  10.512   6.263   3.626
61310SOL    HW185762  10.507   6.354   3.654
61310SOL    HW285763  10.538   6.267   3.534
61311SOL     OW85764  11.666   0.013   1.851
61311SOL    HW185765  11.610   0.042   1.779
61311SOL    HW285766  11.746   0.064   1.841
61312SOL     OW85767   1.028   3.091   1.436
61312SOL    HW185768   1.022   3.024   1.504
61312SOL    HW285769   1.041   3.173   1.485
61313SOL     OW85770  12.137  10.214   5.536
61313SOL    HW185771  12.139  10.294   5.483
61313SOL    HW285772  12.198  10.155   5.493
61314SOL     OW85773   9.821   2.240  10.371
61314SOL    HW185774   9.767   2.317  10.353
61314SOL    HW285775   9.774   2.167  10.330
61315SOL     OW85776   3.714   8.661   5.270
61315SOL    HW185777   3.762   8.677   5.188
61315SOL    HW285778   3.782   8.639   5.334
61316SOL     OW85779   2.210   8.039   9.127
61316SOL    HW185780   2.166   8.014   9.046
61316SOL    HW285781   2.241   7.957   9.164
61317SOL     OW85782   5.132  13.621   4.762
61317SOL    HW185783   5.120  13.533   4.727
61317SOL    HW285784   5.225  13.639   4.750
61318SOL     OW85785   7.535   1.587   2.707
61318SOL    HW185786   7.603   1.541   2.758
61318SOL    HW285787   7.584   1.637   2.642
61319SOL     OW85788   1.937   0.373   9.071
61319SOL    HW185789   2.004   0.307   9.087
61319SOL    HW285790   1.974   0.454   9.105
61320SOL     OW85791   2.081   5.937   2.491
61320SOL    HW185792   2.151   5.889   2.447
61320SOL    HW285793   2.001   5.896   2.460
61321SOL     OW85794  13.802   2.912   5.214
61321SOL    HW185795  13.714   2.927   5.248
61321SOL    HW285796  13.853   2.885   5.291
61322SOL     OW85797   7.673  14.423  13.103
61322SOL    HW185798   7.749  14.367  13.118
61322SOL    HW285799   7.706  14.512  13.119
61323SOL     OW85800   1.911   2.963  11.852
61323SOL    HW185801   1.881   3.048  11.883
61323SOL    HW285802   1.831   2.919  11.823
61324SOL     OW85803  11.040   5.822   5.311
61324SOL    HW185804  11.064   5.837   5.219
61324SOL    HW285805  10.953   5.783   5.307
61325SOL     OW85806   0.523   3.238  10.639
61325SOL    HW185807   0.569   3.305  10.587
61325SOL    HW285808   0.593   3.194  10.688
61326SOL     OW85809   4.392  10.533   2.879
61326SOL    HW185810   4.442  10.464   2.922
61326SOL    HW285811   4.447  10.560   2.805
61327SOL     OW85812  12.059   7.825   7.207
61327SOL    HW185813  12.098   7.907   7.176
61327SOL    HW285814  11.994   7.803   7.140
61328SOL     OW85815   7.704   9.508   9.763
61328SOL    HW185816   7.635   9.460   9.809
61328SOL    HW285817   7.700   9.597   9.799
61329SOL     OW85818  13.645   4.325   0.632
61329SOL    HW185819  13.718   4.383   0.654
61329SOL    HW285820  13.656   4.250   0.691
61330SOL     OW85821  12.522   2.251   8.995
61330SOL    HW185822  12.529   2.209   9.080
61330SOL    HW285823  12.527   2.179   8.932
61331SOL     OW85824  14.105   4.605   5.326
61331SOL    HW185825  14.145   4.589   5.241
61331SOL    HW285826  14.153   4.548   5.386
61332SOL     OW85827   3.604   7.521   1.048
61332SOL    HW185828   3.562   7.567   0.976
61332SOL    HW285829   3.631   7.591   1.109
61333SOL     OW85830   3.322   3.689  11.635
61333SOL    HW185831   3.259   3.651  11.573
61333SOL    HW285832   3.393   3.624  11.640
61334SOL     OW85833   0.098   6.577   0.211
61334SOL    HW185834   0.180   6.574   0.162
61334SOL    HW285835   0.101   6.661   0.258
61335SOL     OW85836  10.347  13.485   2.067
61335SOL    HW185837  10.424  13.438   2.036
61335SOL    HW285838  10.382  13.565   2.106
61336SOL     OW85839   2.843   8.099   0.025
61336SOL    HW185840   2.931   8.082   0.060
61336SOL    HW285841   2.859   8.135  14.813
61337SOL     OW85842  10.580  13.122  12.748
61337SOL    HW185843  10.581  13.121  12.844
61337SOL    HW285844  10.514  13.187  12.725
61338SOL     OW85845   9.967  12.230   5.739
61338SOL    HW185846  10.018  12.169   5.792
61338SOL    HW285847   9.996  12.215   5.649
61339SOL     OW85848  12.605   1.617   6.625
61339SOL    HW185849  12.540   1.556   6.659
61339SOL    HW285850  12.583   1.701   6.665
61340SOL     OW85851   5.094   2.007   9.987
61340SOL    HW185852   5.018   2.031   9.934
61340SOL    HW285853   5.130   2.092  10.015
61341SOL     OW85854   2.234  14.867   4.846
61341SOL    HW185855   2.224  14.774   4.862
61341SOL    HW285856   2.328   0.004   4.835
61342SOL     OW85857   2.523   1.260   1.489
61342SOL    HW185858   2.458   1.285   1.424
61342SOL    HW285859   2.567   1.183   1.451
61343SOL     OW85860  13.305   6.840   3.447
61343SOL    HW185861  13.213   6.867   3.445
61343SOL    HW285862  13.332   6.840   3.355
61344SOL     OW85863   4.456   6.286   3.880
61344SOL    HW185864   4.440   6.235   3.801
61344SOL    HW285865   4.484   6.223   3.945
61345SOL     OW85866   3.997  11.669   4.135
61345SOL    HW185867   4.037  11.755   4.131
61345SOL    HW285868   3.991  11.649   4.228
61346SOL     OW85869  11.519   3.806  12.421
61346SOL    HW185870  11.546   3.719  12.450
61346SOL    HW285871  11.505   3.856  12.502
61347SOL     OW85872   3.923   9.478   0.870
61347SOL    HW185873   3.939   9.442   0.957
61347SOL    HW285874   3.967   9.418   0.810
61348SOL     OW85875   4.477   3.668  14.070
61348SOL    HW185876   4.525   3.731  14.015
61348SOL    HW285877   4.473   3.589  14.017
61349SOL     OW85878   8.450   0.114   5.112
61349SOL    HW185879   8.409   0.194   5.080
61349SOL    HW285880   8.456   0.057   5.036
61350SOL     OW85881  13.914   3.132   5.413
61350SOL    HW185882  13.831   3.178   5.419
61350SOL    HW285883  13.903   3.054   5.469
61351SOL     OW85884   4.737   4.160   9.355
61351SOL    HW185885   4.789   4.239   9.337
61351SOL    HW285886   4.650   4.193   9.375
61352SOL     OW85887  12.944  14.636   4.101
61352SOL    HW185888  12.940  14.610   4.193
61352SOL    HW285889  12.913  14.727   4.100
61353SOL     OW85890   1.053  12.299  13.269
61353SOL    HW185891   1.027  12.207  13.274
61353SOL    HW285892   1.042  12.322  13.176
61354SOL     OW85893  12.756  11.695   3.150
61354SOL    HW185894  12.737  11.699   3.056
61354SOL    HW285895  12.830  11.635   3.157
61355SOL     OW85896   1.424   6.818   3.944
61355SOL    HW185897   1.455   6.881   4.009
61355SOL    HW285898   1.334   6.844   3.926
61356SOL     OW85899  10.910  11.662   9.978
61356SOL    HW185900  10.894  11.617  10.061
61356SOL    HW285901  10.900  11.755   9.999
61357SOL     OW85902   9.257   8.583   6.979
61357SOL    HW185903   9.306   8.508   7.012
61357SOL    HW285904   9.255   8.572   6.884
61358SOL     OW85905   6.288   6.622  14.181
61358SOL    HW185906   6.350   6.662  14.119
61358SOL    HW285907   6.203   6.658  14.155
61359SOL     OW85908  10.867  12.999   6.199
61359SOL    HW185909  10.787  13.046   6.221
61359SOL    HW285910  10.906  12.978   6.284
61360SOL     OW85911   2.791   3.511   9.669
61360SOL    HW185912   2.855   3.464   9.722
61360SOL    HW285913   2.710   3.463   9.681
61361SOL     OW85914   6.894   7.223   3.988
61361SOL    HW185915   6.960   7.222   4.058
61361SOL    HW285916   6.944   7.205   3.908
61362SOL     OW85917   0.074   3.314  10.956
61362SOL    HW185918   0.140   3.360  10.905
61362SOL    HW285919   0.058   3.233  10.907
61363SOL     OW85920   3.768   7.257   3.433
61363SOL    HW185921   3.813   7.173   3.439
61363SOL    HW285922   3.796   7.305   3.511
61364SOL     OW85923  11.228   3.559  13.647
61364SOL    HW185924  11.246   3.584  13.737
61364SOL    HW285925  11.151   3.611  13.622
61365SOL     OW85926   3.509   9.137  10.109
61365SOL    HW185927   3.570   9.078  10.154
61365SOL    HW285928   3.462   9.181  10.179
61366SOL     OW85929  13.776  11.669   2.047
61366SOL    HW185930  13.849  11.730   2.038
61366SOL    HW285931  13.705  11.709   1.996
61367SOL     OW85932  11.603   4.899  10.893
61367SOL    HW185933  11.603   4.961  10.820
61367SOL    HW285934  11.544   4.829  10.864
61368SOL     OW85935  13.690  13.085   7.196
61368SOL    HW185936  13.651  12.999   7.213
61368SOL    HW285937  13.707  13.121   7.283
61369SOL     OW85938   5.139  14.661   9.885
61369SOL    HW185939   5.066  14.714   9.917
61369SOL    HW285940   5.213  14.722   9.882
61370SOL     OW85941   2.634   0.182  12.017
61370SOL    HW185942   2.571   0.190  12.088
61370SOL    HW285943   2.605   0.247  11.952
61371SOL     OW85944  13.557  12.433   6.793
61371SOL    HW185945  13.523  12.473   6.873
61371SOL    HW285946  13.600  12.353   6.822
61372SOL     OW85947   1.151   3.040  11.446
61372SOL    HW185948   1.094   3.075  11.515
61372SOL    HW285949   1.146   3.105  11.376
61373SOL     OW85950   7.500   5.964  14.637
61373SOL    HW185951   7.495   6.010  14.721
61373SOL    HW285952   7.467   6.028  14.573
61374SOL     OW85953   5.405   7.039   9.539
61374SOL    HW185954   5.374   7.007   9.624
61374SOL    HW285955   5.454   7.119   9.561
61375SOL     OW85956  13.757   5.495  13.188
61375SOL    HW185957  13.736   5.584  13.159
61375SOL    HW285958  13.721   5.439  13.120
61376SOL     OW85959  11.133   3.525   7.153
61376SOL    HW185960  11.200   3.551   7.090
61376SOL    HW285961  11.053   3.569   7.122
61377SOL     OW85962   1.406   6.831   3.374
61377SOL    HW185963   1.374   6.832   3.464
61377SOL    HW285964   1.455   6.913   3.365
61378SOL     OW85965  12.470   4.715  14.028
61378SOL    HW185966  12.496   4.806  14.045
61378SOL    HW285967  12.427   4.718  13.943
61379SOL     OW85968   3.365  13.612  12.276
61379SOL    HW185969   3.275  13.594  12.250
61379SOL    HW285970   3.411  13.529  12.265
61380SOL     OW85971   0.669   9.972  11.454
61380SOL    HW185972   0.764   9.986  11.457
61380SOL    HW285973   0.659   9.877  11.444
61381SOL     OW85974   9.190   1.249   8.437
61381SOL    HW185975   9.194   1.234   8.531
61381SOL    HW285976   9.096   1.256   8.418
61382SOL     OW85977   2.218   2.525   6.516
61382SOL    HW185978   2.144   2.500   6.460
61382SOL    HW285979   2.252   2.442   6.548
61383SOL     OW85980   2.702   6.658   2.730
61383SOL    HW185981   2.722   6.724   2.797
61383SOL    HW285982   2.610   6.637   2.743
61384SOL     OW85983   0.720   0.744   9.978
61384SOL    HW185984   0.777   0.674   9.945
61384SOL    HW285985   0.643   0.697  10.012
61385SOL     OW85986   9.013  13.061  10.717
61385SOL    HW185987   9.072  12.986  10.710
61385SOL    HW285988   8.932  13.024  10.754
61386SOL     OW85989   4.847   5.205   7.813
61386SOL    HW185990   4.919   5.187   7.873
61386SOL    HW285991   4.885   5.198   7.725
61387SOL     OW85992   9.894  11.526  10.355
61387SOL    HW185993   9.986  11.518  10.329
61387SOL    HW285994   9.897  11.545  10.449
61388SOL     OW85995   0.472  11.410   5.289
61388SOL    HW185996   0.494  11.496   5.255
61388SOL    HW285997   0.377  11.402   5.274
61389SOL     OW85998   4.569   8.981   2.019
61389SOL    HW185999   4.573   8.996   2.113
61389SOL    HW286000   4.517   8.901   2.009
61390SOL     OW86001   9.118   0.223  12.165
61390SOL    HW186002   9.173   0.300  12.182
61390SOL    HW286003   9.148   0.191  12.080
61391SOL     OW86004  11.477   6.899   6.243
61391SOL    HW186005  11.487   6.870   6.333
61391SOL    HW286006  11.482   6.819   6.190
61392SOL     OW86007  12.818   6.596  12.271
61392SOL    HW186008  12.772   6.545  12.204
61392SOL    HW286009  12.762   6.673  12.285
61393SOL     OW86010  13.082   0.421   1.205
61393SOL    HW186011  13.032   0.452   1.281
61393SOL    HW286012  13.053   0.330   1.193
61394SOL     OW86013   9.416   3.405   5.779
61394SOL    HW186014   9.460   3.348   5.716
61394SOL    HW286015   9.353   3.455   5.727
61395SOL     OW86016   2.878   0.017  12.371
61395SOL    HW186017   2.912   0.066  12.446
61395SOL    HW286018   2.809  14.837  12.408
61396SOL     OW86019  13.166   8.435   7.761
61396SOL    HW186020  13.235   8.371   7.780
61396SOL    HW286021  13.155   8.432   7.666
61397SOL     OW86022   2.722  12.321   8.052
61397SOL    HW186023   2.816  12.339   8.046
61397SOL    HW286024   2.682  12.407   8.067
61398SOL     OW86025  14.727  10.090  14.306
61398SOL    HW186026  14.650  10.132  14.345
61398SOL    HW286027  14.797  10.153  14.317
61399SOL     OW86028   0.221   7.340   7.316
61399SOL    HW186029   0.154   7.331   7.384
61399SOL    HW286030   0.179   7.393   7.248
61400SOL     OW86031   6.517   7.157   5.854
61400SOL    HW186032   6.564   7.074   5.845
61400SOL    HW286033   6.566   7.205   5.921
61401SOL     OW86034   4.270   8.087   9.793
61401SOL    HW186035   4.201   8.043   9.743
61401SOL    HW286036   4.328   8.124   9.727
61402SOL     OW86037   3.206   7.379   1.122
61402SOL    HW186038   3.214   7.474   1.110
61402SOL    HW286039   3.247   7.363   1.207
61403SOL     OW86040   4.089   2.573  14.496
61403SOL    HW186041   4.104   2.496  14.551
61403SOL    HW286042   4.144   2.641  14.534
61404SOL     OW86043  10.354   5.063   5.005
61404SOL    HW186044  10.330   4.971   5.008
61404SOL    HW286045  10.272   5.108   4.983
61405SOL     OW86046   8.496  12.839   5.052
61405SOL    HW186047   8.485  12.914   4.994
61405SOL    HW286048   8.410  12.825   5.091
61406SOL     OW86049   1.492   9.341  11.233
61406SOL    HW186050   1.505   9.267  11.174
61406SOL    HW286051   1.418   9.315  11.288
61407SOL     OW86052   1.853  11.630   3.727
61407SOL    HW186053   1.767  11.645   3.688
61407SOL    HW286054   1.838  11.561   3.792
61408SOL     OW86055   5.804   1.013   8.682
61408SOL    HW186056   5.782   1.057   8.600
61408SOL    HW286057   5.721   0.979   8.714
61409SOL     OW86058   6.373  13.995   8.045
61409SOL    HW186059   6.312  13.944   7.992
61409SOL    HW286060   6.317  14.044   8.105
61410SOL     OW86061   7.385  10.275   7.067
61410SOL    HW186062   7.315  10.214   7.091
61410SOL    HW286063   7.457  10.252   7.126
61411SOL     OW86064  11.473   6.458  13.678
61411SOL    HW186065  11.391   6.466  13.727
61411SOL    HW286066  11.447   6.474  13.587
61412SOL     OW86067  11.793  14.324  12.840
61412SOL    HW186068  11.726  14.293  12.900
61412SOL    HW286069  11.801  14.255  12.775
61413SOL     OW86070  10.072   8.475   4.330
61413SOL    HW186071  10.054   8.564   4.300
61413SOL    HW286072  10.008   8.461   4.401
61414SOL     OW86073   3.568  13.429   1.253
61414SOL    HW186074   3.566  13.334   1.241
61414SOL    HW286075   3.489  13.448   1.303
61415SOL     OW86076   2.605   6.271  14.105
61415SOL    HW186077   2.691   6.287  14.144
61415SOL    HW286078   2.567   6.358  14.093
61416SOL     OW86079   3.578   0.999  11.681
61416SOL    HW186080   3.666   0.993  11.719
61416SOL    HW286081   3.520   1.012  11.757
61417SOL     OW86082  10.485   3.040  12.039
61417SOL    HW186083  10.550   2.983  12.079
61417SOL    HW286084  10.527   3.074  11.959
61418SOL     OW86085  10.383   5.424   4.940
61418SOL    HW186086  10.463   5.393   4.983
61418SOL    HW286087  10.406   5.511   4.908
61419SOL     OW86088  13.180   8.746   3.320
61419SOL    HW186089  13.170   8.686   3.246
61419SOL    HW286090  13.269   8.778   3.314
61420SOL     OW86091   4.049   7.146  14.516
61420SOL    HW186092   4.092   7.220  14.559
61420SOL    HW286093   3.973   7.185  14.472
61421SOL     OW86094  12.059   7.114   7.612
61421SOL    HW186095  12.108   7.117   7.694
61421SOL    HW286096  11.972   7.083   7.637
61422SOL     OW86097   4.446  14.308   5.279
61422SOL    HW186098   4.370  14.364   5.298
61422SOL    HW286099   4.420  14.222   5.311
61423SOL     OW86100  12.922   8.828   9.716
61423SOL    HW186101  12.922   8.852   9.808
61423SOL    HW286102  12.869   8.895   9.673
61424SOL     OW86103   5.598   2.647  12.054
61424SOL    HW186104   5.614   2.569  12.001
61424SOL    HW286105   5.555   2.708  11.994
61425SOL     OW86106  10.219   5.946  10.080
61425SOL    HW186107  10.161   5.904  10.017
61425SOL    HW286108  10.301   5.897  10.074
61426SOL     OW86109   4.765   9.186   6.139
61426SOL    HW186110   4.806   9.134   6.070
61426SOL    HW286111   4.834   9.199   6.204
61427SOL     OW86112   2.579  12.669   8.854
61427SOL    HW186113   2.571  12.603   8.923
61427SOL    HW286114   2.573  12.620   8.772
61428SOL     OW86115   0.367  11.075  11.940
61428SOL    HW186116   0.428  11.081  11.867
61428SOL    HW286117   0.314  10.999  11.921
61429SOL     OW86118  10.320   8.532   0.127
61429SOL    HW186119  10.379   8.461   0.154
61429SOL    HW286120  10.233   8.491   0.128
61430SOL     OW86121  12.912   0.358   3.462
61430SOL    HW186122  12.930   0.452   3.467
61430SOL    HW286123  12.817   0.351   3.461
61431SOL     OW86124   6.284   9.299  13.918
61431SOL    HW186125   6.370   9.330  13.890
61431SOL    HW286126   6.233   9.295  13.838
61432SOL     OW86127   4.725  10.360   2.233
61432SOL    HW186128   4.807  10.409   2.233
61432SOL    HW286129   4.742  10.285   2.176
61433SOL     OW86130  13.573   4.644   5.199
61433SOL    HW186131  13.661   4.670   5.170
61433SOL    HW286132  13.555   4.699   5.275
61434SOL     OW86133   2.771   4.837   0.704
61434SOL    HW186134   2.770   4.887   0.622
61434SOL    HW286135   2.741   4.899   0.770
61435SOL     OW86136   4.272   8.342   6.123
61435SOL    HW186137   4.350   8.310   6.078
61435SOL    HW286138   4.273   8.437   6.106
61436SOL     OW86139   6.391   0.183   0.988
61436SOL    HW186140   6.465   0.215   1.039
61436SOL    HW286141   6.396   0.231   0.905
61437SOL     OW86142  12.320   5.816   4.010
61437SOL    HW186143  12.371   5.876   3.956
61437SOL    HW286144  12.229   5.844   3.997
61438SOL     OW86145   9.002   7.615   1.988
61438SOL    HW186146   9.006   7.589   2.080
61438SOL    HW286147   8.919   7.580   1.957
61439SOL     OW86148   8.590   7.698   8.607
61439SOL    HW186149   8.497   7.687   8.627
61439SOL    HW286150   8.591   7.726   8.515
61440SOL     OW86151   7.291  10.005   6.739
61440SOL    HW186152   7.205   9.965   6.729
61440SOL    HW286153   7.347   9.960   6.675
61441SOL     OW86154   8.188  10.493   5.216
61441SOL    HW186155   8.140  10.543   5.283
61441SOL    HW286156   8.224  10.560   5.158
61442SOL     OW86157   4.304  13.955   3.387
61442SOL    HW186158   4.321  13.861   3.383
61442SOL    HW286159   4.261  13.976   3.304
61443SOL     OW86160   0.559   9.031   6.433
61443SOL    HW186161   0.571   9.067   6.345
61443SOL    HW286162   0.464   9.023   6.443
61444SOL     OW86163   0.839   7.206   1.182
61444SOL    HW186164   0.756   7.157   1.175
61444SOL    HW286165   0.812   7.298   1.185
61445SOL     OW86166   0.129  12.058  14.869
61445SOL    HW186167   0.088  11.995  14.810
61445SOL    HW286168   0.168  12.124  14.811
61446SOL     OW86169   4.048   6.624   9.624
61446SOL    HW186170   4.087   6.654   9.542
61446SOL    HW286171   3.984   6.558   9.597
61447SOL     OW86172   8.594   5.837  10.393
61447SOL    HW186173   8.584   5.862  10.301
61447SOL    HW286174   8.505   5.819  10.424
61448SOL     OW86175   4.414  12.483   3.644
61448SOL    HW186176   4.354  12.544   3.686
61448SOL    HW286177   4.402  12.400   3.690
61449SOL     OW86178  11.396   3.117  11.275
61449SOL    HW186179  11.360   3.206  11.274
61449SOL    HW286180  11.352   3.072  11.203
61450SOL     OW86181  11.342   0.031   6.532
61450SOL    HW186182  11.383   0.097   6.477
61450SOL    HW286183  11.249   0.036   6.509
61451SOL     OW86184  10.584   4.481  13.640
61451SOL    HW186185  10.550   4.528  13.564
61451SOL    HW286186  10.506   4.465  13.694
61452SOL     OW86187   1.280   2.521   4.890
61452SOL    HW186188   1.231   2.533   4.809
61452SOL    HW286189   1.360   2.573   4.878
61453SOL     OW86190  11.673  13.722  12.083
61453SOL    HW186191  11.684  13.628  12.101
61453SOL    HW286192  11.757  13.761  12.109
61454SOL     OW86193  12.036   0.559   7.566
61454SOL    HW186194  11.963   0.503   7.590
61454SOL    HW286195  12.053   0.612   7.644
61455SOL     OW86196   7.319   5.063   8.165
61455SOL    HW186197   7.402   5.064   8.117
61455SOL    HW286198   7.254   5.089   8.099
61456SOL     OW86199   3.522   4.459   4.702
61456SOL    HW186200   3.444   4.463   4.758
61456SOL    HW286201   3.489   4.431   4.617
61457SOL     OW86202   0.431   0.650   0.206
61457SOL    HW186203   0.512   0.601   0.222
61457SOL    HW286204   0.385   0.648   0.291
61458SOL     OW86205  11.539  12.690   9.874
61458SOL    HW186206  11.585  12.606   9.876
61458SOL    HW286207  11.592  12.747   9.929
61459SOL     OW86208   8.127   1.774  12.983
61459SOL    HW186209   8.201   1.750  12.927
61459SOL    HW286210   8.051   1.737  12.940
61460SOL     OW86211   1.599   9.358   6.709
61460SOL    HW186212   1.657   9.315   6.771
61460SOL    HW286213   1.634   9.334   6.623
61461SOL     OW86214   9.331   6.808   2.954
61461SOL    HW186215   9.399   6.753   2.992
61461SOL    HW286216   9.317   6.773   2.866
61462SOL     OW86217   1.631   7.409   1.645
61462SOL    HW186218   1.682   7.426   1.724
61462SOL    HW286219   1.569   7.482   1.640
61463SOL     OW86220  11.013   1.938   7.517
61463SOL    HW186221  10.935   1.960   7.466
61463SOL    HW286222  10.997   1.849   7.548
61464SOL     OW86223  11.494   7.296  14.537
61464SOL    HW186224  11.486   7.255  14.623
61464SOL    HW286225  11.447   7.237  14.478
61465SOL     OW86226  12.676  10.465  11.239
61465SOL    HW186227  12.655  10.558  11.229
61465SOL    HW286228  12.632  10.423  11.165
61466SOL     OW86229   8.674   5.473   0.776
61466SOL    HW186230   8.631   5.472   0.690
61466SOL    HW286231   8.666   5.383   0.808
61467SOL     OW86232  12.176  10.307  13.099
61467SOL    HW186233  12.169  10.389  13.149
61467SOL    HW286234  12.270  10.298  13.081
61468SOL     OW86235  10.662  11.416   3.332
61468SOL    HW186236  10.616  11.499   3.344
61468SOL    HW286237  10.613  11.353   3.385
61469SOL     OW86238  12.238   6.088   9.399
61469SOL    HW186239  12.211   6.134   9.319
61469SOL    HW286240  12.155   6.061   9.439
61470SOL     OW86241  12.427   3.355   3.919
61470SOL    HW186242  12.444   3.262   3.932
61470SOL    HW286243  12.339   3.369   3.955
61471SOL     OW86244   7.592  10.678   2.056
61471SOL    HW186245   7.683  10.709   2.050
61471SOL    HW286246   7.557  10.689   1.967
61472SOL     OW86247  11.778   5.543  10.975
61472SOL    HW186248  11.693   5.525  10.937
61472SOL    HW286249  11.759   5.576  11.063
61473SOL     OW86250  12.154   4.339  11.082
61473SOL    HW186251  12.165   4.433  11.095
61473SOL    HW286252  12.176   4.325  10.990
61474SOL     OW86253   2.954  14.216   6.987
61474SOL    HW186254   2.967  14.310   6.979
61474SOL    HW286255   2.952  14.184   6.897
61475SOL     OW86256   6.349   2.892   9.590
61475SOL    HW186257   6.336   2.882   9.684
61475SOL    HW286258   6.338   2.986   9.574
61476SOL     OW86259  12.578  13.706   3.270
61476SOL    HW186260  12.648  13.669   3.323
61476SOL    HW286261  12.620  13.733   3.188
61477SOL     OW86262   5.907   6.415   5.156
61477SOL    HW186263   5.961   6.336   5.163
61477SOL    HW286264   5.845   6.409   5.229
61478SOL     OW86265   5.934  14.370   1.701
61478SOL    HW186266   5.961  14.287   1.661
61478SOL    HW286267   5.949  14.357   1.794
61479SOL     OW86268   2.980   8.957  14.332
61479SOL    HW186269   3.038   8.960  14.409
61479SOL    HW286270   2.988   8.867  14.300
61480SOL     OW86271   1.529  11.611   6.078
61480SOL    HW186272   1.459  11.572   6.132
61480SOL    HW286273   1.610  11.585   6.122
61481SOL     OW86274   7.338  11.168   5.288
61481SOL    HW186275   7.408  11.112   5.321
61481SOL    HW286276   7.378  11.254   5.276
61482SOL     OW86277   4.643   5.924   7.288
61482SOL    HW186278   4.615   5.924   7.196
61482SOL    HW286279   4.579   5.979   7.333
61483SOL     OW86280  10.514  13.036   5.820
61483SOL    HW186281  10.494  13.019   5.912
61483SOL    HW286282  10.509  12.950   5.778
61484SOL     OW86283  10.778  12.801   2.192
61484SOL    HW186284  10.730  12.862   2.137
61484SOL    HW286285  10.764  12.715   2.152
61485SOL     OW86286   1.374   5.074   0.968
61485SOL    HW186287   1.343   5.013   0.900
61485SOL    HW286288   1.341   5.159   0.940
61486SOL     OW86289   8.559   4.589  14.377
61486SOL    HW186290   8.652   4.610  14.382
61486SOL    HW286291   8.553   4.521  14.310
61487SOL     OW86292   4.513   6.270   2.605
61487SOL    HW186293   4.529   6.323   2.683
61487SOL    HW286294   4.445   6.208   2.631
61488SOL     OW86295   9.353   8.209   8.247
61488SOL    HW186296   9.358   8.165   8.163
61488SOL    HW286297   9.393   8.295   8.231
61489SOL     OW86298   9.979   1.130   3.459
61489SOL    HW186299  10.065   1.171   3.464
61489SOL    HW286300   9.996   1.036   3.463
61490SOL     OW86301   1.272  10.787  10.114
61490SOL    HW186302   1.212  10.828  10.052
61490SOL    HW286303   1.357  10.829  10.097
61491SOL     OW86304  14.345  11.606  10.457
61491SOL    HW186305  14.352  11.574  10.367
61491SOL    HW286306  14.264  11.566  10.490
61492SOL     OW86307   3.473  11.348  10.893
61492SOL    HW186308   3.418  11.270  10.885
61492SOL    HW286309   3.472  11.387  10.806
61493SOL     OW86310   7.705  12.007   1.558
61493SOL    HW186311   7.725  12.100   1.567
61493SOL    HW286312   7.790  11.964   1.557
61494SOL     OW86313  13.709   6.757  14.030
61494SOL    HW186314  13.803   6.776  14.021
61494SOL    HW286315  13.706   6.666  14.058
61495SOL     OW86316  11.381  11.273   7.049
61495SOL    HW186317  11.319  11.345   7.037
61495SOL    HW286318  11.440  11.280   6.974
61496SOL     OW86319   7.995   0.437   6.088
61496SOL    HW186320   8.001   0.469   6.178
61496SOL    HW286321   8.025   0.346   6.092
61497SOL     OW86322  13.300  11.111   8.303
61497SOL    HW186323  13.240  11.093   8.375
61497SOL    HW286324  13.258  11.181   8.254
61498SOL     OW86325  12.619   7.628  10.529
61498SOL    HW186326  12.584   7.565  10.466
61498SOL    HW286327  12.567   7.707  10.515
61499SOL     OW86328  11.900   2.815   1.241
61499SOL    HW186329  11.817   2.856   1.264
61499SOL    HW286330  11.967   2.872   1.280
61500SOL     OW86331   5.862   7.452  11.523
61500SOL    HW186332   5.901   7.433  11.608
61500SOL    HW286333   5.866   7.368  11.476
61501SOL     OW86334   4.633   8.638   9.121
61501SOL    HW186335   4.724   8.628   9.093
61501SOL    HW286336   4.628   8.726   9.157
61502SOL     OW86337  13.957  14.553  14.525
61502SOL    HW186338  14.031  14.562  14.584
61502SOL    HW286339  13.956  14.460  14.502
61503SOL     OW86340   4.237   1.720   8.865
61503SOL    HW186341   4.253   1.628   8.843
61503SOL    HW286342   4.148   1.737   8.835
61504SOL     OW86343   1.447   6.347   6.941
61504SOL    HW186344   1.475   6.355   7.032
61504SOL    HW286345   1.417   6.434   6.917
61505SOL     OW86346   8.105   9.695  14.558
61505SOL    HW186347   8.023   9.734  14.590
61505SOL    HW286348   8.163   9.770  14.543
61506SOL     OW86349   3.691  10.550  12.847
61506SOL    HW186350   3.597  10.570  12.849
61506SOL    HW286351   3.705  10.507  12.763
61507SOL     OW86352   7.662   5.894  10.344
61507SOL    HW186353   7.621   5.972  10.383
61507SOL    HW286354   7.628   5.892  10.255
61508SOL     OW86355  11.207   4.647  10.969
61508SOL    HW186356  11.138   4.685  11.023
61508SOL    HW286357  11.176   4.558  10.950
61509SOL     OW86358   9.647  13.207   1.022
61509SOL    HW186359   9.588  13.235   1.092
61509SOL    HW286360   9.624  13.115   1.007
61510SOL     OW86361   7.064  12.987  10.495
61510SOL    HW186362   7.041  13.059  10.554
61510SOL    HW286363   7.070  13.028  10.409
61511SOL     OW86364  10.359   7.919   9.959
61511SOL    HW186365  10.363   7.903   9.865
61511SOL    HW286366  10.289   7.862   9.990
61512SOL     OW86367   6.675   0.828   2.345
61512SOL    HW186368   6.757   0.861   2.380
61512SOL    HW286369   6.699   0.786   2.262
61513SOL     OW86370   0.973   3.143  13.020
61513SOL    HW186371   1.052   3.163  12.970
61513SOL    HW286372   0.985   3.053  13.050
61514SOL     OW86373  11.245   6.137   1.186
61514SOL    HW186374  11.201   6.164   1.106
61514SOL    HW286375  11.298   6.062   1.160
61515SOL     OW86376  14.493   8.338   5.909
61515SOL    HW186377  14.531   8.418   5.872
61515SOL    HW286378  14.538   8.267   5.863
61516SOL     OW86379   9.342   7.007   9.557
61516SOL    HW186380   9.304   7.059   9.628
61516SOL    HW286381   9.321   7.055   9.477
61517SOL     OW86382   0.714   1.835   9.321
61517SOL    HW186383   0.778   1.805   9.256
61517SOL    HW286384   0.690   1.923   9.293
61518SOL     OW86385  14.139   9.107   4.288
61518SOL    HW186386  14.104   9.097   4.199
61518SOL    HW286387  14.065   9.136   4.341
61519SOL     OW86388   1.234   2.857   4.920
61519SOL    HW186389   1.233   2.847   5.015
61519SOL    HW286390   1.258   2.949   4.905
61520SOL     OW86391   1.684   4.847   9.080
61520SOL    HW186392   1.761   4.897   9.107
61520SOL    HW286393   1.659   4.799   9.159
61521SOL     OW86394   8.738   0.900   9.450
61521SOL    HW186395   8.831   0.897   9.428
61521SOL    HW286396   8.712   0.990   9.429
61522SOL     OW86397  11.698   4.478  13.011
61522SOL    HW186398  11.786   4.515  13.009
61522SOL    HW286399  11.694   4.431  13.095
61523SOL     OW86400   2.196   9.438   2.924
61523SOL    HW186401   2.258   9.430   2.853
61523SOL    HW286402   2.126   9.493   2.889
61524SOL     OW86403   1.346  11.316   8.363
61524SOL    HW186404   1.331  11.353   8.450
61524SOL    HW286405   1.410  11.376   8.323
61525SOL     OW86406   9.585   7.960  11.868
61525SOL    HW186407   9.513   7.960  11.805
61525SOL    HW286408   9.637   8.037  11.845
61526SOL     OW86409  13.337   3.711   3.611
61526SOL    HW186410  13.413   3.653   3.616
61526SOL    HW286411  13.303   3.713   3.701
61527SOL     OW86412   4.553   5.784  12.404
61527SOL    HW186413   4.640   5.773  12.365
61527SOL    HW286414   4.571   5.820  12.491
61528SOL     OW86415  12.015   4.559  10.271
61528SOL    HW186416  11.939   4.617  10.276
61528SOL    HW286417  12.038   4.556  10.178
61529SOL     OW86418   5.788  11.760  13.100
61529SOL    HW186419   5.870  11.804  13.078
61529SOL    HW286420   5.807  11.667  13.091
61530SOL     OW86421   8.922  13.128  11.644
61530SOL    HW186422   8.861  13.196  11.613
61530SOL    HW286423   8.874  13.082  11.712
61531SOL     OW86424   9.452   9.260   4.253
61531SOL    HW186425   9.523   9.205   4.288
61531SOL    HW286426   9.385   9.258   4.321
61532SOL     OW86427   9.998   4.588  12.845
61532SOL    HW186428   9.965   4.549  12.764
61532SOL    HW286429  10.002   4.682  12.825
61533SOL     OW86430  10.224   4.364   0.792
61533SOL    HW186431  10.176   4.387   0.872
61533SOL    HW286432  10.159   4.368   0.723
61534SOL     OW86433   6.084   3.241   2.827
61534SOL    HW186434   6.111   3.298   2.899
61534SOL    HW286435   6.018   3.291   2.780
61535SOL     OW86436   9.943   4.679   2.076
61535SOL    HW186437   9.862   4.730   2.075
61535SOL    HW286438  10.012   4.744   2.064
61536SOL     OW86439   6.081   7.417  14.082
61536SOL    HW186440   6.116   7.496  14.040
61536SOL    HW286441   6.086   7.436  14.176
61537SOL     OW86442   3.508   9.702   2.649
61537SOL    HW186443   3.568   9.713   2.575
61537SOL    HW286444   3.430   9.662   2.611
61538SOL     OW86445   7.521  10.265   5.866
61538SOL    HW186446   7.616  10.269   5.852
61538SOL    HW286447   7.489  10.208   5.797
61539SOL     OW86448   1.767   3.511  10.142
61539SOL    HW186449   1.702   3.441  10.150
61539SOL    HW286450   1.849   3.465  10.121
61540SOL     OW86451  14.294   3.152   9.300
61540SOL    HW186452  14.203   3.182   9.297
61540SOL    HW286453  14.288   3.057   9.291
61541SOL     OW86454  11.825   4.484   4.473
61541SOL    HW186455  11.760   4.543   4.510
61541SOL    HW286456  11.825   4.503   4.379
61542SOL     OW86457   2.738   8.668   8.576
61542SOL    HW186458   2.706   8.637   8.491
61542SOL    HW286459   2.676   8.738   8.600
61543SOL     OW86460   9.941   5.377   8.363
61543SOL    HW186461  10.009   5.438   8.394
61543SOL    HW286462   9.941   5.387   8.268
61544SOL     OW86463   3.707   4.735  11.926
61544SOL    HW186464   3.715   4.827  11.950
61544SOL    HW286465   3.655   4.735  11.846
61545SOL     OW86466  13.253   6.320  12.699
61545SOL    HW186467  13.318   6.287  12.636
61545SOL    HW286468  13.274   6.413  12.708
61546SOL     OW86469   4.140  14.718   2.680
61546SOL    HW186470   4.197  14.736   2.605
61546SOL    HW286471   4.148  14.795   2.735
61547SOL     OW86472   7.373   5.269   5.537
61547SOL    HW186473   7.380   5.325   5.460
61547SOL    HW286474   7.461   5.267   5.573
61548SOL     OW86475  10.782   6.456  13.060
61548SOL    HW186476  10.773   6.504  12.978
61548SOL    HW286477  10.729   6.377  13.047
61549SOL     OW86478   7.243  13.975  13.843
61549SOL    HW186479   7.275  13.918  13.912
61549SOL    HW286480   7.316  14.035  13.825
61550SOL     OW86481  13.386  11.513  12.520
61550SOL    HW186482  13.339  11.582  12.473
61550SOL    HW286483  13.434  11.559  12.589
61551SOL     OW86484   9.430  14.674  14.822
61551SOL    HW186485   9.339  14.670  14.792
61551SOL    HW286486   9.467  14.748  14.773
61552SOL     OW86487  11.982   7.979   4.142
61552SOL    HW186488  11.960   7.899   4.093
61552SOL    HW286489  11.981   8.049   4.077
61553SOL     OW86490   5.901  11.940   6.121
61553SOL    HW186491   5.990  11.906   6.134
61553SOL    HW286492   5.858  11.927   6.205
61554SOL     OW86493  13.046   8.393  10.876
61554SOL    HW186494  13.120   8.433  10.921
61554SOL    HW286495  13.085   8.341  10.806
61555SOL     OW86496   5.163   3.846  11.770
61555SOL    HW186497   5.194   3.922  11.820
61555SOL    HW286498   5.176   3.870  11.679
61556SOL     OW86499   1.486  10.680  14.564
61556SOL    HW186500   1.534  10.763  14.567
61556SOL    HW286501   1.437  10.683  14.482
61557SOL     OW86502  10.118  12.537  13.690
61557SOL    HW186503  10.049  12.481  13.654
61557SOL    HW286504  10.115  12.616  13.636
61558SOL     OW86505   5.495   9.457  10.552
61558SOL    HW186506   5.539   9.513  10.488
61558SOL    HW286507   5.425   9.415  10.503
61559SOL     OW86508   6.920   7.798   2.447
61559SOL    HW186509   6.826   7.800   2.466
61559SOL    HW286510   6.962   7.813   2.532
61560SOL     OW86511   3.858   0.803   5.553
61560SOL    HW186512   3.870   0.758   5.469
61560SOL    HW286513   3.809   0.882   5.531
61561SOL     OW86514   4.160  13.747   7.214
61561SOL    HW186515   4.155  13.651   7.211
61561SOL    HW286516   4.253  13.765   7.231
61562SOL     OW86517  13.755   2.813   8.161
61562SOL    HW186518  13.783   2.767   8.240
61562SOL    HW286519  13.826   2.802   8.099
61563SOL     OW86520   1.821   4.973   7.636
61563SOL    HW186521   1.831   5.007   7.548
61563SOL    HW286522   1.842   4.879   7.629
61564SOL     OW86523   2.594   3.698   3.336
61564SOL    HW186524   2.685   3.711   3.365
61564SOL    HW286525   2.542   3.749   3.398
61565SOL     OW86526   4.142  14.042   4.414
61565SOL    HW186527   4.136  14.108   4.483
61565SOL    HW286528   4.204  14.078   4.351
61566SOL     OW86529  11.983   1.794  11.508
61566SOL    HW186530  11.949   1.705  11.493
61566SOL    HW286531  12.069   1.781  11.547
61567SOL     OW86532   1.307   6.003   3.991
61567SOL    HW186533   1.227   6.045   3.957
61567SOL    HW286534   1.300   6.012   4.086
61568SOL     OW86535   1.298   5.290   4.991
61568SOL    HW186536   1.289   5.363   5.053
61568SOL    HW286537   1.263   5.323   4.909
61569SOL     OW86538   4.381  10.705  10.330
61569SOL    HW186539   4.426  10.650  10.265
61569SOL    HW286540   4.450  10.764  10.362
61570SOL     OW86541   9.110   8.157   4.083
61570SOL    HW186542   9.123   8.143   4.176
61570SOL    HW286543   9.191   8.125   4.042
61571SOL     OW86544  10.503  10.295   6.946
61571SOL    HW186545  10.506  10.322   7.038
61571SOL    HW286546  10.576  10.341   6.905
61572SOL     OW86547   8.649  11.903  10.631
61572SOL    HW186548   8.587  11.901  10.703
61572SOL    HW286549   8.677  11.995  10.626
61573SOL     OW86550   4.385   8.858  12.417
61573SOL    HW186551   4.357   8.907  12.495
61573SOL    HW286552   4.318   8.879  12.352
61574SOL     OW86553  11.848   5.171   9.033
61574SOL    HW186554  11.809   5.088   9.060
61574SOL    HW286555  11.787   5.208   8.970
61575SOL     OW86556   0.827  12.651   0.614
61575SOL    HW186557   0.751  12.668   0.669
61575SOL    HW286558   0.895  12.709   0.648
61576SOL     OW86559   8.473   6.523   5.650
61576SOL    HW186560   8.531   6.460   5.608
61576SOL    HW286561   8.517   6.607   5.639
61577SOL     OW86562   2.704   2.161   1.301
61577SOL    HW186563   2.701   2.257   1.300
61577SOL    HW286564   2.628   2.134   1.249
61578SOL     OW86565   4.685   5.381  10.341
61578SOL    HW186566   4.666   5.473  10.324
61578SOL    HW286567   4.729   5.382  10.426
61579SOL     OW86568   3.211   8.354  10.458
61579SOL    HW186569   3.162   8.336  10.538
61579SOL    HW286570   3.303   8.356  10.485
61580SOL     OW86571   5.260  12.855   1.195
61580SOL    HW186572   5.238  12.912   1.270
61580SOL    HW286573   5.195  12.877   1.129
61581SOL     OW86574  13.620   1.158   9.551
61581SOL    HW186575  13.680   1.194   9.485
61581SOL    HW286576  13.590   1.234   9.601
61582SOL     OW86577  13.001   6.461   1.543
61582SOL    HW186578  13.057   6.394   1.583
61582SOL    HW286579  12.944   6.490   1.615
61583SOL     OW86580  14.135   6.534  13.875
61583SOL    HW186581  14.057   6.482  13.894
61583SOL    HW286582  14.151   6.518  13.782
61584SOL     OW86583   2.438   0.419   6.952
61584SOL    HW186584   2.424   0.511   6.928
61584SOL    HW286585   2.446   0.420   7.048
61585SOL     OW86586  12.904  11.561  10.247
61585SOL    HW186587  12.834  11.619  10.218
61585SOL    HW286588  12.923  11.589  10.336
61586SOL     OW86589   3.964  10.269   1.690
61586SOL    HW186590   3.932  10.224   1.769
61586SOL    HW286591   4.017  10.341   1.724
61587SOL     OW86592   5.845  13.844  13.572
61587SOL    HW186593   5.876  13.754  13.566
61587SOL    HW286594   5.785  13.853  13.497
61588SOL     OW86595   9.820   3.743   5.741
61588SOL    HW186596   9.909   3.764   5.771
61588SOL    HW286597   9.771   3.725   5.821
61589SOL     OW86598   5.014  10.613   5.530
61589SOL    HW186599   4.999  10.707   5.528
61589SOL    HW286600   5.018  10.591   5.623
61590SOL     OW86601  10.220  10.195   6.369
61590SOL    HW186602  10.291  10.135   6.350
61590SOL    HW286603  10.216  10.253   6.293
61591SOL     OW86604   2.199   9.936   2.165
61591SOL    HW186605   2.112   9.944   2.126
61591SOL    HW286606   2.251  10.005   2.123
61592SOL     OW86607   0.911   0.576   6.159
61592SOL    HW186608   0.853   0.609   6.090
61592SOL    HW286609   0.943   0.492   6.125
61593SOL     OW86610  14.369   5.138   5.738
61593SOL    HW186611  14.382   5.154   5.831
61593SOL    HW286612  14.384   5.223   5.696
61594SOL     OW86613  11.861   2.147   7.162
61594SOL    HW186614  11.936   2.206   7.149
61594SOL    HW286615  11.881   2.103   7.245
61595SOL     OW86616   2.463   4.411   1.540
61595SOL    HW186617   2.494   4.501   1.553
61595SOL    HW286618   2.542   4.358   1.546
61596SOL     OW86619   2.623  11.274  13.654
61596SOL    HW186620   2.613  11.265  13.559
61596SOL    HW286621   2.570  11.351  13.676
61597SOL     OW86622  10.829   8.229   7.755
61597SOL    HW186623  10.789   8.225   7.668
61597SOL    HW286624  10.810   8.317   7.787
61598SOL     OW86625   0.893   3.446   2.154
61598SOL    HW186626   0.958   3.409   2.214
61598SOL    HW286627   0.884   3.538   2.182
61599SOL     OW86628   8.211   0.739   3.737
61599SOL    HW186629   8.151   0.684   3.687
61599SOL    HW286630   8.163   0.821   3.751
61600SOL     OW86631  13.899   9.459   3.772
61600SOL    HW186632  13.911   9.478   3.866
61600SOL    HW286633  13.871   9.542   3.735
61601SOL     OW86634   9.722   2.396   6.433
61601SOL    HW186635   9.769   2.479   6.421
61601SOL    HW286636   9.632   2.423   6.449
61602SOL     OW86637  10.757   8.658   9.645
61602SOL    HW186638  10.671   8.699   9.635
61602SOL    HW286639  10.805   8.717   9.703
61603SOL     OW86640   8.476   9.942  11.088
61603SOL    HW186641   8.522   9.959  11.170
61603SOL    HW286642   8.481   9.847  11.078
61604SOL     OW86643  14.555   7.911   6.383
61604SOL    HW186644  14.574   7.855   6.307
61604SOL    HW286645  14.570   8.000   6.351
61605SOL     OW86646   2.043   7.567   2.187
61605SOL    HW186647   2.086   7.496   2.235
61605SOL    HW286648   2.014   7.528   2.105
61606SOL     OW86649  11.422   4.772  14.235
61606SOL    HW186650  11.386   4.704  14.292
61606SOL    HW286651  11.409   4.853  14.283
61607SOL     OW86652  12.995  12.064   4.362
61607SOL    HW186653  13.013  11.996   4.426
61607SOL    HW286654  12.940  12.127   4.409
61608SOL     OW86655   8.164  11.118  13.285
61608SOL    HW186656   8.157  11.025  13.266
61608SOL    HW286657   8.074  11.150  13.278
61609SOL     OW86658  11.597   9.428   0.094
61609SOL    HW186659  11.539   9.468   0.159
61609SOL    HW286660  11.640   9.356   0.141
61610SOL     OW86661   6.136  14.722  11.506
61610SOL    HW186662   6.229  14.702  11.515
61610SOL    HW286663   6.093  14.667  11.572
61611SOL     OW86664   1.719  12.230   2.142
61611SOL    HW186665   1.685  12.142   2.129
61611SOL    HW286666   1.757  12.229   2.230
61612SOL     OW86667   7.834   2.881  13.563
61612SOL    HW186668   7.741   2.869  13.585
61612SOL    HW286669   7.876   2.802  13.598
61613SOL     OW86670   5.853   0.062   8.636
61613SOL    HW186671   5.763   0.057   8.606
61613SOL    HW286672   5.902   0.093   8.560
61614SOL     OW86673   3.153  11.129   0.869
61614SOL    HW186674   3.064  11.094   0.863
61614SOL    HW286675   3.144  11.222   0.851
61615SOL     OW86676   9.084   3.854  12.025
61615SOL    HW186677   9.131   3.783  12.069
61615SOL    HW286678   9.152   3.906  11.983
61616SOL     OW86679   8.914   1.752  14.065
61616SOL    HW186680   8.846   1.684  14.073
61616SOL    HW286681   8.874   1.830  14.104
61617SOL     OW86682   1.198   2.020  10.567
61617SOL    HW186683   1.186   1.927  10.550
61617SOL    HW286684   1.288   2.038  10.541
61618SOL     OW86685   3.589  13.797  13.980
61618SOL    HW186686   3.560  13.728  14.040
61618SOL    HW286687   3.514  13.811  13.922
61619SOL     OW86688   6.581   1.258   2.314
61619SOL    HW186689   6.555   1.194   2.247
61619SOL    HW286690   6.499   1.294   2.347
61620SOL     OW86691  14.496   3.227  13.163
61620SOL    HW186692  14.507   3.318  13.135
61620SOL    HW286693  14.488   3.178  13.081
61621SOL     OW86694  12.382   9.917   6.532
61621SOL    HW186695  12.407   9.826   6.517
61621SOL    HW286696  12.464   9.966   6.529
61622SOL     OW86697   6.510  11.767  14.137
61622SOL    HW186698   6.536  11.735  14.051
61622SOL    HW286699   6.414  11.761  14.136
61623SOL     OW86700   2.169   7.371  10.655
61623SOL    HW186701   2.103   7.417  10.707
61623SOL    HW286702   2.249   7.378  10.706
61624SOL     OW86703   0.031   2.715   6.472
61624SOL    HW186704   0.014   2.783   6.538
61624SOL    HW286705   0.124   2.697   6.480
61625SOL     OW86706  11.324   4.121   8.504
61625SOL    HW186707  11.255   4.167   8.457
61625SOL    HW286708  11.334   4.037   8.459
61626SOL     OW86709   0.880  14.291   1.876
61626SOL    HW186710   0.818  14.266   1.944
61626SOL    HW286711   0.894  14.385   1.890
61627SOL     OW86712   3.405   7.947   3.820
61627SOL    HW186713   3.404   7.933   3.915
61627SOL    HW286714   3.342   7.883   3.786
61628SOL     OW86715  11.626   3.841   6.697
61628SOL    HW186716  11.532   3.826   6.693
61628SOL    HW286717  11.637   3.929   6.659
61629SOL     OW86718   3.189   0.679   9.475
61629SOL    HW186719   3.156   0.728   9.400
61629SOL    HW286720   3.198   0.589   9.443
61630SOL     OW86721   9.808   8.976   3.055
61630SOL    HW186722   9.737   9.039   3.045
61630SOL    HW286723   9.853   9.001   3.135
61631SOL     OW86724   9.646   7.543  11.250
61631SOL    HW186725   9.671   7.540  11.342
61631SOL    HW286726   9.729   7.539  11.203
61632SOL     OW86727   9.836   7.570  11.825
61632SOL    HW186728   9.746   7.595  11.845
61632SOL    HW286729   9.878   7.652  11.797
61633SOL     OW86730  14.401  13.525  11.974
61633SOL    HW186731  14.491  13.507  11.946
61633SOL    HW286732  14.354  13.541  11.893
61634SOL     OW86733   0.569   8.991   2.562
61634SOL    HW186734   0.546   9.055   2.494
61634SOL    HW286735   0.501   8.924   2.556
61635SOL     OW86736   4.003  10.580   3.598
61635SOL    HW186737   3.910  10.573   3.578
61635SOL    HW286738   4.046  10.583   3.512
61636SOL     OW86739   9.842   8.558   3.376
61636SOL    HW186740   9.871   8.545   3.467
61636SOL    HW286741   9.861   8.475   3.333
61637SOL     OW86742   3.470  11.195  11.642
61637SOL    HW186743   3.526  11.243  11.581
61637SOL    HW286744   3.420  11.264  11.687
61638SOL     OW86745  10.330  12.882   6.777
61638SOL    HW186746  10.335  12.891   6.872
61638SOL    HW286747  10.257  12.938   6.751
61639SOL     OW86748  10.297   6.413   8.252
61639SOL    HW186749  10.319   6.343   8.314
61639SOL    HW286750  10.204   6.399   8.233
61640SOL     OW86751   5.357   2.998   8.768
61640SOL    HW186752   5.348   2.904   8.784
61640SOL    HW286753   5.351   3.008   8.673
61641SOL     OW86754   2.962  12.322   1.635
61641SOL    HW186755   2.930  12.373   1.709
61641SOL    HW286756   2.987  12.238   1.672
61642SOL     OW86757   8.826  11.514   4.800
61642SOL    HW186758   8.761  11.515   4.870
61642SOL    HW286759   8.885  11.443   4.824
61643SOL     OW86760  13.672   5.631   6.807
61643SOL    HW186761  13.695   5.557   6.751
61643SOL    HW286762  13.725   5.703   6.773
61644SOL     OW86763   8.605   3.801   3.863
61644SOL    HW186764   8.569   3.859   3.930
61644SOL    HW286765   8.578   3.713   3.892
61645SOL     OW86766   2.755  13.184   7.173
61645SOL    HW186767   2.840  13.215   7.203
61645SOL    HW286768   2.698  13.260   7.179
61646SOL     OW86769   5.916   9.344   2.812
61646SOL    HW186770   5.979   9.387   2.869
61646SOL    HW286771   5.835   9.396   2.822
61647SOL     OW86772   2.907   4.031   0.824
61647SOL    HW186773   2.912   4.025   0.919
61647SOL    HW286774   2.885   4.123   0.807
61648SOL     OW86775  13.361  11.687   3.182
61648SOL    HW186776  13.434  11.740   3.150
61648SOL    HW286777  13.354  11.615   3.119
61649SOL     OW86778  13.024   2.598  11.796
61649SOL    HW186779  12.944   2.549  11.814
61649SOL    HW286780  13.011   2.633  11.708
61650SOL     OW86781   5.948  12.172   8.073
61650SOL    HW186782   5.936  12.078   8.055
61650SOL    HW286783   5.887  12.189   8.146
61651SOL     OW86784   9.604   0.756   7.119
61651SOL    HW186785   9.664   0.789   7.052
61651SOL    HW286786   9.556   0.834   7.147
61652SOL     OW86787   0.491  12.924   6.181
61652SOL    HW186788   0.404  12.965   6.174
61652SOL    HW286789   0.514  12.901   6.091
61653SOL     OW86790  14.464   8.746  10.898
61653SOL    HW186791  14.389   8.758  10.956
61653SOL    HW286792  14.425   8.725  10.813
61654SOL     OW86793  13.720   4.247  13.492
61654SOL    HW186794  13.649   4.264  13.430
61654SOL    HW286795  13.799   4.244  13.438
61655SOL     OW86796   0.137   9.474   0.224
61655SOL    HW186797   0.217   9.443   0.267
61655SOL    HW286798   0.109   9.549   0.277
61656SOL     OW86799   0.549  10.957  13.773
61656SOL    HW186800   0.478  11.020  13.776
61656SOL    HW286801   0.614  10.990  13.835
61657SOL     OW86802   2.510   0.813   2.417
61657SOL    HW186803   2.450   0.884   2.394
61657SOL    HW286804   2.509   0.756   2.340
61658SOL     OW86805  12.807   3.030   7.319
61658SOL    HW186806  12.781   3.121   7.311
61658SOL    HW286807  12.858   3.027   7.400
61659SOL     OW86808   4.564  11.543  12.522
61659SOL    HW186809   4.546  11.454  12.554
61659SOL    HW286810   4.637  11.531  12.460
61660SOL     OW86811   2.449  11.406   1.575
61660SOL    HW186812   2.475  11.380   1.664
61660SOL    HW286813   2.399  11.331   1.542
61661SOL     OW86814  10.264   9.427  12.040
61661SOL    HW186815  10.194   9.431  11.975
61661SOL    HW286816  10.290   9.335  12.041
61662SOL     OW86817   9.395   7.398   7.925
61662SOL    HW186818   9.373   7.305   7.929
61662SOL    HW286819   9.357   7.435   8.005
61663SOL     OW86820   3.976   1.466   8.878
61663SOL    HW186821   3.885   1.437   8.869
61663SOL    HW286822   4.024   1.412   8.816
61664SOL     OW86823   8.783   9.255  11.731
61664SOL    HW186824   8.799   9.216  11.816
61664SOL    HW286825   8.754   9.183  11.676
61665SOL     OW86826   6.564   4.798   0.224
61665SOL    HW186827   6.630   4.804   0.293
61665SOL    HW286828   6.611   4.770   0.146
61666SOL     OW86829  14.798  11.097   3.475
61666SOL    HW186830  14.708  11.101   3.509
61666SOL    HW286831  14.809  11.006   3.447
61667SOL     OW86832   6.913  10.447   6.400
61667SOL    HW186833   6.841  10.445   6.463
61667SOL    HW286834   6.941  10.355   6.394
61668SOL     OW86835  11.649   5.551  14.662
61668SOL    HW186836  11.681   5.589  14.744
61668SOL    HW286837  11.594   5.478  14.690
61669SOL     OW86838   7.705   5.199   3.704
61669SOL    HW186839   7.782   5.252   3.686
61669SOL    HW286840   7.689   5.210   3.798
61670SOL     OW86841   4.077   4.353  10.511
61670SOL    HW186842   4.000   4.317  10.467
61670SOL    HW286843   4.045   4.378  10.598
61671SOL     OW86844  10.443   4.793   5.076
61671SOL    HW186845  10.439   4.764   5.167
61671SOL    HW286846  10.537   4.804   5.058
61672SOL     OW86847  13.029   9.107  10.333
61672SOL    HW186848  13.095   9.086  10.399
61672SOL    HW286849  12.948   9.069  10.367
61673SOL     OW86850   9.080   9.102   7.253
61673SOL    HW186851   9.072   9.166   7.324
61673SOL    HW286852   9.160   9.053   7.274
61674SOL     OW86853   1.486  12.127  10.141
61674SOL    HW186854   1.553  12.061  10.122
61674SOL    HW286855   1.453  12.103  10.228
61675SOL     OW86856   0.453  11.178   4.442
61675SOL    HW186857   0.440  11.089   4.412
61675SOL    HW286858   0.416  11.233   4.372
61676SOL     OW86859  13.828   1.822  10.289
61676SOL    HW186860  13.850   1.732  10.265
61676SOL    HW286861  13.881   1.876  10.231
61677SOL     OW86862  13.370   5.617   8.739
61677SOL    HW186863  13.305   5.590   8.804
61677SOL    HW286864  13.434   5.667   8.789
61678SOL     OW86865  13.403   3.651  10.922
61678SOL    HW186866  13.392   3.559  10.948
61678SOL    HW286867  13.478   3.650  10.862
61679SOL     OW86868   6.499   8.382   0.078
61679SOL    HW186869   6.501   8.454   0.015
61679SOL    HW286870   6.406   8.364   0.091
61680SOL     OW86871   9.799  13.880   5.287
61680SOL    HW186872   9.712  13.874   5.326
61680SOL    HW286873   9.784  13.870   5.193
61681SOL     OW86874   3.408  13.392   7.877
61681SOL    HW186875   3.471  13.391   7.949
61681SOL    HW286876   3.379  13.483   7.872
61682SOL     OW86877   3.365  14.805  13.288
61682SOL    HW186878   3.270  14.804  13.304
61682SOL    HW286879   3.378  14.874  13.224
61683SOL     OW86880   1.501   5.029   3.358
61683SOL    HW186881   1.538   4.944   3.382
61683SOL    HW286882   1.484   5.072   3.442
61684SOL     OW86883  13.932   7.235   7.968
61684SOL    HW186884  13.998   7.180   8.010
61684SOL    HW286885  13.966   7.251   7.880
61685SOL     OW86886   8.736   4.081  13.749
61685SOL    HW186887   8.741   4.175  13.734
61685SOL    HW286888   8.777   4.042  13.672
61686SOL     OW86889   4.207  12.341   2.597
61686SOL    HW186890   4.133  12.312   2.650
61686SOL    HW286891   4.237  12.421   2.640
61687SOL     OW86892   5.692   2.688   8.949
61687SOL    HW186893   5.667   2.655   9.035
61687SOL    HW286894   5.628   2.756   8.930
61688SOL     OW86895  12.837   6.946  11.175
61688SOL    HW186896  12.783   6.867  11.181
61688SOL    HW286897  12.774   7.018  11.168
61689SOL     OW86898   0.544  11.817   9.902
61689SOL    HW186899   0.468  11.773   9.941
61689SOL    HW286900   0.537  11.908   9.933
61690SOL     OW86901   0.708   0.155  14.151
61690SOL    HW186902   0.747   0.226  14.203
61690SOL    HW286903   0.648   0.200  14.092
61691SOL     OW86904   6.369   9.309   7.095
61691SOL    HW186905   6.437   9.273   7.152
61691SOL    HW286906   6.287   9.283   7.136
61692SOL     OW86907  12.439   0.064  11.271
61692SOL    HW186908  12.371   0.026  11.216
61692SOL    HW286909  12.411   0.154  11.286
61693SOL     OW86910   5.845   4.232  14.653
61693SOL    HW186911   5.790   4.298  14.611
61693SOL    HW286912   5.862   4.267  14.741
61694SOL     OW86913   7.381   7.036  12.141
61694SOL    HW186914   7.371   7.085  12.223
61694SOL    HW286915   7.428   7.095  12.083
61695SOL     OW86916  10.921   3.017   1.185
61695SOL    HW186917  10.917   2.923   1.169
61695SOL    HW286918  10.857   3.054   1.124
61696SOL     OW86919   5.774   5.395   0.933
61696SOL    HW186920   5.684   5.385   0.902
61696SOL    HW286921   5.770   5.375   1.027
61697SOL     OW86922  11.608  11.588   2.994
61697SOL    HW186923  11.645  11.621   3.076
61697SOL    HW286924  11.556  11.512   3.020
61698SOL     OW86925  13.911  11.085   3.989
61698SOL    HW186926  13.978  11.112   4.052
61698SOL    HW286927  13.960  11.065   3.909
61699SOL     OW86928   9.808  13.081  12.571
61699SOL    HW186929   9.878  13.068  12.507
61699SOL    HW286930   9.748  13.009  12.555
61700SOL     OW86931   2.741   2.493   9.447
61700SOL    HW186932   2.682   2.455   9.382
61700SOL    HW286933   2.801   2.547   9.395
61701SOL     OW86934   0.716  12.650   5.092
61701SOL    HW186935   0.720  12.579   5.156
61701SOL    HW286936   0.640  12.702   5.119
61702SOL     OW86937  11.829   8.826  12.058
61702SOL    HW186938  11.844   8.744  12.104
61702SOL    HW286939  11.900   8.884  12.088
61703SOL     OW86940  14.405   5.345  13.325
61703SOL    HW186941  14.319   5.381  13.307
61703SOL    HW286942  14.398   5.252  13.300
61704SOL     OW86943   0.852   6.120  10.125
61704SOL    HW186944   0.880   6.144  10.037
61704SOL    HW286945   0.791   6.189  10.151
61705SOL     OW86946   8.162   0.781  10.787
61705SOL    HW186947   8.238   0.839  10.775
61705SOL    HW286948   8.193   0.695  10.761
61706SOL     OW86949   0.699  13.585   0.708
61706SOL    HW186950   0.695  13.667   0.757
61706SOL    HW286951   0.612  13.576   0.670
61707SOL     OW86952  13.667   9.496   1.873
61707SOL    HW186953  13.714   9.498   1.957
61707SOL    HW286954  13.616   9.415   1.876
61708SOL     OW86955   1.115   3.051   2.192
61708SOL    HW186956   1.145   3.043   2.101
61708SOL    HW286957   1.048   2.982   2.201
61709SOL     OW86958  12.008   1.025   6.074
61709SOL    HW186959  11.915   1.004   6.081
61709SOL    HW286960  12.042   1.014   6.163
61710SOL     OW86961   9.384  14.142   8.470
61710SOL    HW186962   9.398  14.053   8.437
61710SOL    HW286963   9.289  14.153   8.470
61711SOL     OW86964   9.624   8.200  14.457
61711SOL    HW186965   9.614   8.294  14.442
61711SOL    HW286966   9.657   8.193  14.547
61712SOL     OW86967   9.738   0.191  11.047
61712SOL    HW186968   9.680   0.155  11.114
61712SOL    HW286969   9.826   0.177  11.081
61713SOL     OW86970   4.566   2.419   8.487
61713SOL    HW186971   4.518   2.461   8.416
61713SOL    HW286972   4.572   2.328   8.461
61714SOL     OW86973   7.554  11.386   4.468
61714SOL    HW186974   7.597  11.321   4.523
61714SOL    HW286975   7.507  11.335   4.402
61715SOL     OW86976   7.255   1.146  14.636
61715SOL    HW186977   7.275   1.182  14.723
61715SOL    HW286978   7.340   1.128  14.597
61716SOL     OW86979   4.252   4.636   2.472
61716SOL    HW186980   4.339   4.604   2.447
61716SOL    HW286981   4.249   4.726   2.440
61717SOL     OW86982   2.627   9.458  10.208
61717SOL    HW186983   2.706   9.458  10.154
61717SOL    HW286984   2.570   9.393  10.167
61718SOL     OW86985   8.639  14.025  13.263
61718SOL    HW186986   8.646  13.957  13.197
61718SOL    HW286987   8.726  14.066  13.265
61719SOL     OW86988   8.667   6.653  12.397
61719SOL    HW186989   8.595   6.713  12.377
61719SOL    HW286990   8.690   6.672  12.488
61720SOL     OW86991  13.943   7.190   3.700
61720SOL    HW186992  13.862   7.235   3.723
61720SOL    HW286993  13.935   7.173   3.606
61721SOL     OW86994   3.383   5.665   2.700
61721SOL    HW186995   3.418   5.753   2.709
61721SOL    HW286996   3.459   5.607   2.713
61722SOL     OW86997  14.427   3.136  14.499
61722SOL    HW186998  14.458   3.180  14.578
61722SOL    HW286999  14.460   3.046  14.507
61723SOL     OW87000   9.610  13.898   2.756
61723SOL    HW187001   9.603  13.925   2.664
61723SOL    HW287002   9.568  13.812   2.759
61724SOL     OW87003   8.357   3.238   7.839
61724SOL    HW187004   8.370   3.174   7.770
61724SOL    HW287005   8.283   3.291   7.809
61725SOL     OW87006   3.210   7.381  12.915
61725SOL    HW187007   3.274   7.366  12.845
61725SOL    HW287008   3.131   7.338  12.884
61726SOL     OW87009   8.693   3.529   2.692
61726SOL    HW187010   8.682   3.453   2.634
61726SOL    HW287011   8.783   3.557   2.678
61727SOL     OW87012   5.810   3.535  13.084
61727SOL    HW187013   5.807   3.509  12.992
61727SOL    HW287014   5.762   3.466  13.130
61728SOL     OW87015   5.189  11.823   1.128
61728SOL    HW187016   5.104  11.837   1.169
61728SOL    HW287017   5.242  11.779   1.195
61729SOL     OW87018   1.467   7.480   4.914
61729SOL    HW187019   1.394   7.475   4.854
61729SOL    HW287020   1.544   7.462   4.860
61730SOL     OW87021  11.676   6.080   2.478
61730SOL    HW187022  11.683   6.174   2.496
61730SOL    HW287023  11.696   6.038   2.562
61731SOL     OW87024  12.372   0.722   1.626
61731SOL    HW187025  12.322   0.798   1.656
61731SOL    HW287026  12.425   0.756   1.553
61732SOL     OW87027   5.975   6.793   7.648
61732SOL    HW187028   6.059   6.834   7.625
61732SOL    HW287029   5.912   6.830   7.585
61733SOL     OW87030  11.299   0.352   7.305
61733SOL    HW187031  11.212   0.378   7.335
61733SOL    HW287032  11.304   0.387   7.216
61734SOL     OW87033   8.666   3.014  11.613
61734SOL    HW187034   8.591   2.959  11.637
61734SOL    HW287035   8.742   2.961  11.634
61735SOL     OW87036  10.997   0.335   4.483
61735SOL    HW187037  10.958   0.251   4.510
61735SOL    HW287038  11.083   0.336   4.525
61736SOL     OW87039  14.043  12.515   8.779
61736SOL    HW187040  14.107  12.484   8.714
61736SOL    HW287041  13.974  12.556   8.727
61737SOL     OW87042  12.475   1.985   7.906
61737SOL    HW187043  12.498   1.988   7.813
61737SOL    HW287044  12.559   1.972   7.950
61738SOL     OW87045   3.583   1.826  10.888
61738SOL    HW187046   3.650   1.767  10.923
61738SOL    HW287047   3.573   1.893  10.955
61739SOL     OW87048   3.129   3.371   0.273
61739SOL    HW187049   3.118   3.316   0.196
61739SOL    HW287050   3.222   3.366   0.294
61740SOL     OW87051  14.250   5.573   5.011
61740SOL    HW187052  14.211   5.659   4.992
61740SOL    HW287053  14.341   5.592   5.035
61741SOL     OW87054   1.182   3.013  13.612
61741SOL    HW187055   1.220   2.926  13.629
61741SOL    HW287056   1.113   3.021  13.678
61742SOL     OW87057   1.061  11.633   6.903
61742SOL    HW187058   1.141  11.677   6.875
61742SOL    HW287059   0.998  11.703   6.915
61743SOL     OW87060   4.775   8.527  13.186
61743SOL    HW187061   4.796   8.541  13.094
61743SOL    HW287062   4.727   8.445  13.188
61744SOL     OW87063   0.683   4.465   4.788
61744SOL    HW187064   0.704   4.558   4.779
61744SOL    HW287065   0.729   4.423   4.716
61745SOL     OW87066   1.835  14.178   7.138
61745SOL    HW187067   1.854  14.086   7.156
61745SOL    HW287068   1.752  14.194   7.183
61746SOL     OW87069  10.457  14.566   7.638
61746SOL    HW187070  10.369  14.533   7.619
61746SOL    HW287071  10.447  14.661   7.641
61747SOL     OW87072  12.463   6.729  10.657
61747SOL    HW187073  12.425   6.653  10.702
61747SOL    HW287074  12.546   6.697  10.622
61748SOL     OW87075   6.575  13.910   6.351
61748SOL    HW187076   6.646  13.846   6.357
61748SOL    HW287077   6.606  13.974   6.287
61749SOL     OW87078   3.382  14.661   3.055
61749SOL    HW187079   3.410  14.745   3.091
61749SOL    HW287080   3.422  14.656   2.969
61750SOL     OW87081  12.599   1.002  10.698
61750SOL    HW187082  12.559   1.055  10.767
61750SOL    HW287083  12.638   1.066  10.638
61751SOL     OW87084   3.938  14.471   4.170
61751SOL    HW187085   3.872  14.536   4.195
61751SOL    HW287086   3.887  14.398   4.135
61752SOL     OW87087  11.118   4.372   6.832
61752SOL    HW187088  11.072   4.316   6.894
61752SOL    HW287089  11.208   4.375   6.865
61753SOL     OW87090   0.313   2.671   0.477
61753SOL    HW187091   0.381   2.667   0.544
61753SOL    HW287092   0.239   2.713   0.520
61754SOL     OW87093  12.145   1.658  10.623
61754SOL    HW187094  12.065   1.671  10.673
61754SOL    HW287095  12.187   1.582  10.663
61755SOL     OW87096   5.707   7.710   3.326
61755SOL    HW187097   5.708   7.677   3.236
61755SOL    HW287098   5.616   7.703   3.353
61756SOL     OW87099  12.305  11.172   5.357
61756SOL    HW187100  12.281  11.261   5.334
61756SOL    HW287101  12.388  11.157   5.312
61757SOL     OW87102  11.719   1.812   5.815
61757SOL    HW187103  11.802   1.855   5.836
61757SOL    HW287104  11.744   1.732   5.769
61758SOL     OW87105  14.711   0.779   0.158
61758SOL    HW187106  14.792   0.825   0.179
61758SOL    HW287107  14.645   0.817   0.217
61759SOL     OW87108   6.968   1.580   5.422
61759SOL    HW187109   7.015   1.509   5.377
61759SOL    HW287110   7.020   1.596   5.501
61760SOL     OW87111   6.666   4.957   6.297
61760SOL    HW187112   6.654   4.939   6.390
61760SOL    HW287113   6.726   5.032   6.295
61761SOL     OW87114   4.810   3.038  10.753
61761SOL    HW187115   4.770   3.028  10.666
61761SOL    HW287116   4.803   3.131  10.772
61762SOL     OW87117  13.058  12.668   6.319
61762SOL    HW187118  12.969  12.662   6.353
61762SOL    HW287119  13.083  12.578   6.300
61763SOL     OW87120  13.040   0.992   3.804
61763SOL    HW187121  13.055   0.901   3.776
61763SOL    HW287122  13.121   1.018   3.847
61764SOL     OW87123  14.001   5.291   2.213
61764SOL    HW187124  14.048   5.219   2.169
61764SOL    HW287125  14.062   5.321   2.280
61765SOL     OW87126   7.903   0.338  12.818
61765SOL    HW187127   7.876   0.249  12.799
61765SOL    HW287128   7.947   0.368  12.738
61766SOL     OW87129  13.594   8.949   5.330
61766SOL    HW187130  13.559   8.974   5.415
61766SOL    HW287131  13.546   8.870   5.306
61767SOL     OW87132   0.950  12.257   4.590
61767SOL    HW187133   0.933  12.163   4.600
61767SOL    HW287134   1.036  12.270   4.630
61768SOL     OW87135  14.223   5.593   2.232
61768SOL    HW187136  14.224   5.648   2.310
61768SOL    HW287137  14.312   5.599   2.197
61769SOL     OW87138   3.001   9.036   1.557
61769SOL    HW187139   2.934   8.990   1.607
61769SOL    HW287140   2.981   9.129   1.569
61770SOL     OW87141  13.951  12.462  13.732
61770SOL    HW187142  13.904  12.505  13.661
61770SOL    HW287143  14.044  12.478  13.713
61771SOL     OW87144   8.588   1.260   6.517
61771SOL    HW187145   8.663   1.223   6.471
61771SOL    HW287146   8.625   1.333   6.567
61772SOL     OW87147   3.791   6.484   4.280
61772SOL    HW187148   3.722   6.478   4.214
61772SOL    HW287149   3.835   6.567   4.262
61773SOL     OW87150   9.882  12.140  10.758
61773SOL    HW187151   9.956  12.100  10.803
61773SOL    HW287152   9.805  12.092  10.789
61774SOL     OW87153   4.307   9.757   6.945
61774SOL    HW187154   4.218   9.768   6.911
61774SOL    HW287155   4.359   9.820   6.896
61775SOL     OW87156   9.283  11.433   1.515
61775SOL    HW187157   9.283  11.476   1.600
61775SOL    HW287158   9.335  11.490   1.459
61776SOL     OW87159   1.504   4.800   7.956
61776SOL    HW187160   1.569   4.771   7.891
61776SOL    HW287161   1.457   4.720   7.980
61777SOL     OW87162   7.786  13.546  13.140
61777SOL    HW187163   7.717  13.496  13.184
61777SOL    HW287164   7.798  13.501  13.057
61778SOL     OW87165  10.185   2.263   9.090
61778SOL    HW187166  10.229   2.191   9.045
61778SOL    HW287167  10.118   2.221   9.143
61779SOL     OW87168   2.342  11.769   8.648
61779SOL    HW187169   2.353  11.859   8.616
61779SOL    HW287170   2.341  11.715   8.569
61780SOL     OW87171   8.319   7.387   7.922
61780SOL    HW187172   8.325   7.426   7.834
61780SOL    HW287173   8.240   7.426   7.960
61781SOL     OW87174   8.402   0.878  11.364
61781SOL    HW187175   8.484   0.830  11.355
61781SOL    HW287176   8.343   0.835  11.302
61782SOL     OW87177   1.130   6.427  11.532
61782SOL    HW187178   1.222   6.408  11.513
61782SOL    HW287179   1.083   6.405  11.452
61783SOL     OW87180  11.271   8.749  13.080
61783SOL    HW187181  11.328   8.675  13.099
61783SOL    HW287182  11.318   8.798  13.012
61784SOL     OW87183   0.269  12.139   7.632
61784SOL    HW187184   0.351  12.100   7.663
61784SOL    HW287185   0.274  12.231   7.658
61785SOL     OW87186   9.150   8.839  10.278
61785SOL    HW187187   9.217   8.904  10.299
61785SOL    HW287188   9.075   8.863  10.334
61786SOL     OW87189  13.369   5.365  10.808
61786SOL    HW187190  13.367   5.426  10.734
61786SOL    HW287191  13.392   5.419  10.883
61787SOL     OW87192   5.841   9.855  14.016
61787SOL    HW187193   5.917   9.822  13.968
61787SOL    HW287194   5.783   9.779  14.025
61788SOL     OW87195   9.212  11.112  10.901
61788SOL    HW187196   9.182  11.071  10.982
61788SOL    HW287197   9.135  11.111  10.844
61789SOL     OW87198   7.645  11.392   0.066
61789SOL    HW187199   7.629  11.395  14.848
61789SOL    HW287200   7.587  11.459   0.103
61790SOL     OW87201  10.428   1.577  10.430
61790SOL    HW187202  10.523   1.564  10.432
61790SOL    HW287203  10.407   1.615  10.516
61791SOL     OW87204   0.524   1.786  11.128
61791SOL    HW187205   0.487   1.871  11.151
61791SOL    HW287206   0.591   1.770  11.195
61792SOL     OW87207   3.567   1.337   3.377
61792SOL    HW187208   3.637   1.288   3.333
61792SOL    HW287209   3.611   1.413   3.415
61793SOL     OW87210   5.635  11.390  11.967
61793SOL    HW187211   5.690  11.365  11.893
61793SOL    HW287212   5.547  11.399  11.929
61794SOL     OW87213  14.242  10.132   2.668
61794SOL    HW187214  14.330  10.133   2.630
61794SOL    HW287215  14.256  10.123   2.762
61795SOL     OW87216   1.825   2.188  14.029
61795SOL    HW187217   1.739   2.156  14.002
61795SOL    HW287218   1.806   2.255  14.095
61796SOL     OW87219  10.693  14.177  12.404
61796SOL    HW187220  10.601  14.154  12.391
61796SOL    HW287221  10.732  14.099  12.445
61797SOL     OW87222  13.089   5.709  11.111
61797SOL    HW187223  13.072   5.714  11.017
61797SOL    HW287224  13.072   5.617  11.134
61798SOL     OW87225  11.902   4.722   8.130
61798SOL    HW187226  11.832   4.767   8.083
61798SOL    HW287227  11.899   4.632   8.097
61799SOL     OW87228   3.847  13.264   7.248
61799SOL    HW187229   3.770  13.240   7.197
61799SOL    HW287230   3.820  13.341   7.298
61800SOL     OW87231   0.927   0.537  10.321
61800SOL    HW187232   0.963   0.515  10.407
61800SOL    HW287233   0.893   0.454  10.287
61801SOL     OW87234  12.216  14.137   5.164
61801SOL    HW187235  12.250  14.168   5.248
61801SOL    HW287236  12.128  14.174   5.158
61802SOL     OW87237   5.361   1.218  10.364
61802SOL    HW187238   5.447   1.212  10.404
61802SOL    HW287239   5.317   1.137  10.389
61803SOL     OW87240   3.272   7.540   3.945
61803SOL    HW187241   3.186   7.582   3.951
61803SOL    HW287242   3.292   7.515   4.035
61804SOL     OW87243   4.366   8.447  11.318
61804SOL    HW187244   4.426   8.425  11.389
61804SOL    HW287245   4.422   8.474  11.245
61805SOL     OW87246   1.070   0.496   0.925
61805SOL    HW187247   1.045   0.588   0.930
61805SOL    HW287248   1.014   0.452   0.990
61806SOL     OW87249   6.266  10.939   9.508
61806SOL    HW187250   6.262  10.845   9.524
61806SOL    HW287251   6.249  10.979   9.593
61807SOL     OW87252  13.622   6.123  11.005
61807SOL    HW187253  13.612   6.192  10.940
61807SOL    HW287254  13.560   6.146  11.075
61808SOL     OW87255   8.320   4.771  10.667
61808SOL    HW187256   8.310   4.854  10.619
61808SOL    HW287257   8.237   4.726  10.654
61809SOL     OW87258   3.335   7.003   0.982
61809SOL    HW187259   3.402   7.070   0.994
61809SOL    HW287260   3.290   7.029   0.902
61810SOL     OW87261  14.143  11.542   7.310
61810SOL    HW187262  14.206  11.531   7.239
61810SOL    HW287263  14.062  11.569   7.266
61811SOL     OW87264   1.554   5.851   6.840
61811SOL    HW187265   1.553   5.814   6.752
61811SOL    HW287266   1.507   5.933   6.833
61812SOL     OW87267   4.722   2.995   4.877
61812SOL    HW187268   4.750   2.905   4.864
61812SOL    HW287269   4.753   3.043   4.800
61813SOL     OW87270   9.277   5.688   5.893
61813SOL    HW187271   9.327   5.747   5.949
61813SOL    HW287272   9.225   5.745   5.837
61814SOL     OW87273   2.934   7.609  11.721
61814SOL    HW187274   3.016   7.654  11.741
61814SOL    HW287275   2.955   7.552  11.647
61815SOL     OW87276  11.496   9.550   3.387
61815SOL    HW187277  11.522   9.550   3.479
61815SOL    HW287278  11.517   9.639   3.357
61816SOL     OW87279  11.544  12.332  11.365
61816SOL    HW187280  11.560  12.237  11.367
61816SOL    HW287281  11.624  12.368  11.326
61817SOL     OW87282  13.778  13.902   8.930
61817SOL    HW187283  13.859  13.852   8.943
61817SOL    HW287284  13.761  13.897   8.836
61818SOL     OW87285   2.793   5.309   4.091
61818SOL    HW187286   2.830   5.354   4.015
61818SOL    HW287287   2.857   5.322   4.161
61819SOL     OW87288  11.081   3.336  13.571
61819SOL    HW187289  11.045   3.361  13.486
61819SOL    HW287290  11.120   3.417  13.606
61820SOL     OW87291  11.748  14.310   1.641
61820SOL    HW187292  11.755  14.239   1.578
61820SOL    HW287293  11.738  14.389   1.588
61821SOL     OW87294   8.830   0.610  11.768
61821SOL    HW187295   8.860   0.607  11.859
61821SOL    HW287296   8.736   0.591  11.774
61822SOL     OW87297  10.838   6.109  12.801
61822SOL    HW187298  10.903   6.161  12.850
61822SOL    HW287299  10.888   6.069  12.730
61823SOL     OW87300   0.673  10.305   6.206
61823SOL    HW187301   0.584  10.317   6.241
61823SOL    HW287302   0.728  10.294   6.284
61824SOL     OW87303  14.573  13.096  12.800
61824SOL    HW187304  14.552  13.184  12.832
61824SOL    HW287305  14.643  13.066  12.858
61825SOL     OW87306   3.554  14.347  10.228
61825SOL    HW187307   3.566  14.429  10.179
61825SOL    HW287308   3.643  14.315  10.242
61826SOL     OW87309   7.328   9.634   3.696
61826SOL    HW187310   7.237   9.630   3.728
61826SOL    HW287311   7.380   9.596   3.767
61827SOL     OW87312  10.042  10.925   3.198
61827SOL    HW187313   9.971  10.924   3.134
61827SOL    HW287314  10.118  10.891   3.151
61828SOL     OW87315   6.166  11.042   7.675
61828SOL    HW187316   6.253  11.065   7.707
61828SOL    HW287317   6.183  10.981   7.602
61829SOL     OW87318   5.113  10.849   3.031
61829SOL    HW187319   5.108  10.876   3.123
61829SOL    HW287320   5.192  10.892   2.998
61830SOL     OW87321   8.775   8.034   5.767
61830SOL    HW187322   8.777   8.038   5.863
61830SOL    HW287323   8.862   8.002   5.743
61831SOL     OW87324   3.425  10.551   2.524
61831SOL    HW187325   3.468  10.474   2.561
61831SOL    HW287326   3.339  10.553   2.567
61832SOL     OW87327  12.034   1.247   8.822
61832SOL    HW187328  12.004   1.298   8.897
61832SOL    HW287329  12.024   1.156   8.849
61833SOL     OW87330   2.904   9.481   3.213
61833SOL    HW187331   2.911   9.386   3.215
61833SOL    HW287332   2.945   9.510   3.295
61834SOL     OW87333   9.257   4.176  10.291
61834SOL    HW187334   9.246   4.099  10.235
61834SOL    HW287335   9.232   4.249  10.234
61835SOL     OW87336   0.920   9.638   2.291
61835SOL    HW187337   0.940   9.726   2.260
61835SOL    HW287338   0.828   9.641   2.318
61836SOL     OW87339  13.826  10.580  12.999
61836SOL    HW187340  13.794  10.556  13.086
61836SOL    HW287341  13.864  10.498  12.965
61837SOL     OW87342  11.625  13.106  13.829
61837SOL    HW187343  11.720  13.107  13.816
61837SOL    HW287344  11.597  13.021  13.793
61838SOL     OW87345   0.012   6.388   5.935
61838SOL    HW187346   0.025   6.331   6.010
61838SOL    HW287347   0.080   6.455   5.943
61839SOL     OW87348   7.048   0.028   8.333
61839SOL    HW187349   7.034  14.809   8.329
61839SOL    HW287350   7.138   0.040   8.305
61840SOL     OW87351   0.470   1.923   5.754
61840SOL    HW187352   0.482   1.978   5.677
61840SOL    HW287353   0.387   1.877   5.739
61841SOL     OW87354  13.547   2.303  10.726
61841SOL    HW187355  13.557   2.293  10.820
61841SOL    HW287356  13.589   2.226  10.688
61842SOL     OW87357   6.355   6.864   1.308
61842SOL    HW187358   6.365   6.796   1.242
61842SOL    HW287359   6.366   6.819   1.391
61843SOL     OW87360  10.777   8.567   8.629
61843SOL    HW187361  10.742   8.610   8.552
61843SOL    HW287362  10.872   8.564   8.614
61844SOL     OW87363   4.242   8.013   1.070
61844SOL    HW187364   4.278   7.975   1.150
61844SOL    HW287365   4.173   8.072   1.100
61845SOL     OW87366  12.379  12.189   2.721
61845SOL    HW187367  12.303  12.187   2.779
61845SOL    HW287368  12.451  12.218   2.777
61846SOL     OW87369   9.166   8.909   2.837
61846SOL    HW187370   9.251   8.951   2.827
61846SOL    HW287371   9.174   8.857   2.917
61847SOL     OW87372   3.844   1.899  13.834
61847SOL    HW187373   3.766   1.915  13.887
61847SOL    HW287374   3.863   1.807  13.847
61848SOL     OW87375  14.313  10.396  10.772
61848SOL    HW187376  14.232  10.447  10.784
61848SOL    HW287377  14.374  10.434  10.835
61849SOL     OW87378   5.349   1.993   2.277
61849SOL    HW187379   5.271   2.034   2.314
61849SOL    HW287380   5.316   1.914   2.235
61850SOL     OW87381   1.746   0.708   8.629
61850SOL    HW187382   1.692   0.778   8.593
61850SOL    HW287383   1.787   0.668   8.553
61851SOL     OW87384   9.986  12.906   4.232
61851SOL    HW187385   9.992  12.902   4.136
61851SOL    HW287386   9.926  12.980   4.248
61852SOL     OW87387   0.358   1.216   5.092
61852SOL    HW187388   0.407   1.148   5.137
61852SOL    HW287389   0.276   1.223   5.141
61853SOL     OW87390   9.971   0.080   4.152
61853SOL    HW187391  10.058   0.047   4.174
61853SOL    HW287392   9.928   0.006   4.108
61854SOL     OW87393   6.774   4.190   8.693
61854SOL    HW187394   6.852   4.219   8.644
61854SOL    HW287395   6.809   4.156   8.775
61855SOL     OW87396   1.957   7.250   3.888
61855SOL    HW187397   2.014   7.174   3.881
61855SOL    HW287398   1.921   7.245   3.977
61856SOL     OW87399   0.396   4.039   8.606
61856SOL    HW187400   0.304   4.034   8.634
61856SOL    HW287401   0.431   4.113   8.656
61857SOL     OW87402   2.100  12.575   3.719
61857SOL    HW187403   2.102  12.604   3.628
61857SOL    HW287404   2.136  12.487   3.718
61858SOL     OW87405   5.735   2.438   6.571
61858SOL    HW187406   5.642   2.463   6.569
61858SOL    HW287407   5.758   2.424   6.479
61859SOL     OW87408  14.774  11.184   5.217
61859SOL    HW187409  14.732  11.099   5.204
61859SOL    HW287410  14.743  11.238   5.144
61860SOL     OW87411   0.364  10.562   1.516
61860SOL    HW187412   0.334  10.532   1.430
61860SOL    HW287413   0.430  10.629   1.496
61861SOL     OW87414   9.163   8.861   4.588
61861SOL    HW187415   9.140   8.949   4.561
61861SOL    HW287416   9.258   8.858   4.584
61862SOL     OW87417   3.442  12.612   0.971
61862SOL    HW187418   3.356  12.571   0.958
61862SOL    HW287419   3.490  12.593   0.890
61863SOL     OW87420   3.598   4.367  12.528
61863SOL    HW187421   3.600   4.461  12.510
61863SOL    HW287422   3.508   4.341  12.511
61864SOL     OW87423   2.589   1.038   1.315
61864SOL    HW187424   2.521   0.971   1.313
61864SOL    HW287425   2.622   1.041   1.226
61865SOL     OW87426   1.409   8.107   7.005
61865SOL    HW187427   1.388   8.022   7.043
61865SOL    HW287428   1.355   8.112   6.925
61866SOL     OW87429   4.840  12.068   5.103
61866SOL    HW187430   4.882  11.982   5.100
61866SOL    HW287431   4.861  12.108   5.018
61867SOL     OW87432   8.823  13.298   0.345
61867SOL    HW187433   8.779  13.287   0.429
61867SOL    HW287434   8.915  13.282   0.364
61868SOL     OW87435  12.560   0.935  11.628
61868SOL    HW187436  12.629   0.937  11.694
61868SOL    HW287437  12.559   1.024  11.591
61869SOL     OW87438   3.762  11.960   0.973
61869SOL    HW187439   3.706  11.965   1.050
61869SOL    HW287440   3.850  11.976   1.006
61870SOL     OW87441   4.638   5.954   3.358
61870SOL    HW187442   4.706   5.925   3.418
61870SOL    HW287443   4.663   5.918   3.273
61871SOL     OW87444   0.550  13.456  12.933
61871SOL    HW187445   0.551  13.425  12.842
61871SOL    HW287446   0.495  13.393  12.980
61872SOL     OW87447  12.918  14.510   4.362
61872SOL    HW187448  12.845  14.449   4.367
61872SOL    HW287449  12.973  14.475   4.291
61873SOL     OW87450   9.313  10.165   3.424
61873SOL    HW187451   9.289  10.110   3.498
61873SOL    HW287452   9.405  10.144   3.408
61874SOL     OW87453   1.835   8.340   3.502
61874SOL    HW187454   1.849   8.424   3.460
61874SOL    HW287455   1.813   8.280   3.430
61875SOL     OW87456  12.558   7.992  14.511
61875SOL    HW187457  12.605   8.071  14.541
61875SOL    HW287458  12.506   7.964  14.586
61876SOL     OW87459   3.122   3.931  13.700
61876SOL    HW187460   3.152   3.841  13.689
61876SOL    HW287461   3.201   3.980  13.722
61877SOL     OW87462   4.712  14.324  13.661
61877SOL    HW187463   4.726  14.404  13.712
61877SOL    HW287464   4.675  14.262  13.724
61878SOL     OW87465   3.209   6.244   1.625
61878SOL    HW187466   3.206   6.152   1.599
61878SOL    HW287467   3.296   6.256   1.663
61879SOL     OW87468  12.894   1.685  10.413
61879SOL    HW187469  12.831   1.629  10.366
61879SOL    HW287470  12.977   1.639  10.406
61880SOL     OW87471  12.810  11.853   7.073
61880SOL    HW187472  12.810  11.770   7.121
61880SOL    HW287473  12.903  11.870   7.053
61881SOL     OW87474   1.043   9.649   7.958
61881SOL    HW187475   1.034   9.569   8.011
61881SOL    HW287476   1.002   9.626   7.874
61882SOL     OW87477  10.596   7.631  14.579
61882SOL    HW187478  10.615   7.651  14.488
61882SOL    HW287479  10.549   7.548  14.577
61883SOL     OW87480  10.137   3.967   4.147
61883SOL    HW187481  10.218   3.971   4.096
61883SOL    HW287482  10.070   4.002   4.089
61884SOL     OW87483  14.143   3.116   1.871
61884SOL    HW187484  14.080   3.046   1.888
61884SOL    HW287485  14.123   3.183   1.937
61885SOL     OW87486   9.789   3.733  13.895
61885SOL    HW187487   9.743   3.808  13.857
61885SOL    HW287488   9.725   3.693  13.954
61886SOL     OW87489  12.084   0.982   3.627
61886SOL    HW187490  12.106   0.982   3.720
61886SOL    HW287491  12.164   1.012   3.584
61887SOL     OW87492   8.489  11.540   7.241
61887SOL    HW187493   8.554  11.609   7.252
61887SOL    HW287494   8.501  11.482   7.315
61888SOL     OW87495   4.272  10.415   0.807
61888SOL    HW187496   4.256  10.448   0.896
61888SOL    HW287497   4.295  10.323   0.820
61889SOL     OW87498   5.508  10.271   0.727
61889SOL    HW187499   5.423  10.307   0.755
61889SOL    HW287500   5.493  10.177   0.721
61890SOL     OW87501   4.511   9.630   0.373
61890SOL    HW187502   4.462   9.665   0.448
61890SOL    HW287503   4.603   9.636   0.400
61891SOL     OW87504   2.207  13.578   8.489
61891SOL    HW187505   2.300  13.600   8.494
61891SOL    HW287506   2.162  13.658   8.518
61892SOL     OW87507   5.198  14.432   1.556
61892SOL    HW187508   5.150  14.425   1.638
61892SOL    HW287509   5.205  14.342   1.525
61893SOL     OW87510   8.208   8.405  10.833
61893SOL    HW187511   8.163   8.331  10.792
61893SOL    HW287512   8.290   8.368  10.864
61894SOL     OW87513  12.065   8.109   5.964
61894SOL    HW187514  12.032   8.019   5.967
61894SOL    HW287515  12.005   8.158   6.021
61895SOL     OW87516  10.754   5.240  11.806
61895SOL    HW187517  10.752   5.273  11.896
61895SOL    HW287518  10.809   5.302  11.758
61896SOL     OW87519   3.063   8.714   9.217
61896SOL    HW187520   3.035   8.623   9.225
61896SOL    HW287521   2.999   8.755   9.158
61897SOL     OW87522   4.130   8.631   7.920
61897SOL    HW187523   4.075   8.709   7.931
61897SOL    HW287524   4.204   8.645   7.980
61898SOL     OW87525   0.574   4.984   7.305
61898SOL    HW187526   0.507   4.975   7.372
61898SOL    HW287527   0.557   5.068   7.264
61899SOL     OW87528  12.123   1.830   2.468
61899SOL    HW187529  12.099   1.798   2.381
61899SOL    HW287530  12.094   1.921   2.470
61900SOL     OW87531   7.046   1.700   8.687
61900SOL    HW187532   7.082   1.741   8.608
61900SOL    HW287533   7.094   1.741   8.759
61901SOL     OW87534  12.458   4.508   8.353
61901SOL    HW187535  12.478   4.583   8.299
61901SOL    HW287536  12.376   4.473   8.318
61902SOL     OW87537  11.626   3.729  14.286
61902SOL    HW187538  11.574   3.808  14.302
61902SOL    HW287539  11.565   3.668  14.245
61903SOL     OW87540   7.117   8.942   4.465
61903SOL    HW187541   7.106   9.009   4.533
61903SOL    HW287542   7.041   8.953   4.407
61904SOL     OW87543   5.127  10.450   6.480
61904SOL    HW187544   5.097  10.518   6.540
61904SOL    HW287545   5.193  10.493   6.425
61905SOL     OW87546   8.310  11.262   9.267
61905SOL    HW187547   8.350  11.191   9.218
61905SOL    HW287548   8.379  11.329   9.272
61906SOL     OW87549   8.374  11.008   6.298
61906SOL    HW187550   8.299  11.030   6.242
61906SOL    HW287551   8.449  11.044   6.251
61907SOL     OW87552  12.868  11.128   0.765
61907SOL    HW187553  12.916  11.102   0.687
61907SOL    HW287554  12.798  11.185   0.732
61908SOL     OW87555   7.979   6.132  12.611
61908SOL    HW187556   8.065   6.140  12.569
61908SOL    HW287557   7.992   6.170  12.698
61909SOL     OW87558   5.626  12.065   9.018
61909SOL    HW187559   5.621  12.042   8.925
61909SOL    HW287560   5.608  11.983   9.063
61910SOL     OW87561   3.012  10.290   4.751
61910SOL    HW187562   2.943  10.357   4.750
61910SOL    HW287563   3.094  10.339   4.747
61911SOL     OW87564   7.523   7.121   3.833
61911SOL    HW187565   7.471   7.176   3.891
61911SOL    HW287566   7.494   7.032   3.854
61912SOL     OW87567   3.564   7.903  13.482
61912SOL    HW187568   3.606   7.884  13.398
61912SOL    HW287569   3.581   7.996  13.497
61913SOL     OW87570   1.755  14.331  11.633
61913SOL    HW187571   1.788  14.254  11.586
61913SOL    HW287572   1.747  14.399  11.565
61914SOL     OW87573  13.716   9.231   2.068
61914SOL    HW187574  13.641   9.233   2.129
61914SOL    HW287575  13.748   9.140   2.073
61915SOL     OW87576   2.031   7.520  13.625
61915SOL    HW187577   2.093   7.452  13.600
61915SOL    HW287578   2.032   7.581  13.551
61916SOL     OW87579  12.487   3.553   6.426
61916SOL    HW187580  12.551   3.495   6.384
61916SOL    HW287581  12.442   3.497   6.489
61917SOL     OW87582   7.014  14.695   5.979
61917SOL    HW187583   6.965  14.631   5.927
61917SOL    HW287584   6.949  14.735   6.036
61918SOL     OW87585   9.685  13.185   7.220
61918SOL    HW187586   9.671  13.251   7.152
61918SOL    HW287587   9.617  13.120   7.205
61919SOL     OW87588   1.857   5.918   3.015
61919SOL    HW187589   1.834   5.847   2.955
61919SOL    HW287590   1.901   5.982   2.959
61920SOL     OW87591   0.678   2.862  10.593
61920SOL    HW187592   0.696   2.779  10.549
61920SOL    HW287593   0.639   2.917  10.526
61921SOL     OW87594   3.565  11.399   9.183
61921SOL    HW187595   3.505  11.345   9.235
61921SOL    HW287596   3.521  11.483   9.175
61922SOL     OW87597   6.291   3.727   2.863
61922SOL    HW187598   6.372   3.779   2.862
61922SOL    HW287599   6.251   3.743   2.778
61923SOL     OW87600  13.786  11.495  11.086
61923SOL    HW187601  13.881  11.501  11.098
61923SOL    HW287602  13.768  11.559  11.016
61924SOL     OW87603   1.172   3.007  10.035
61924SOL    HW187604   1.228   3.053   9.973
61924SOL    HW287605   1.087   3.050  10.027
61925SOL     OW87606   8.480   1.563  12.200
61925SOL    HW187607   8.503   1.557  12.293
61925SOL    HW287608   8.408   1.625  12.197
61926SOL     OW87609  10.470   1.154   7.862
61926SOL    HW187610  10.398   1.105   7.903
61926SOL    HW287611  10.427   1.208   7.796
61927SOL     OW87612  10.454  10.990   7.568
61927SOL    HW187613  10.515  10.954   7.503
61927SOL    HW287614  10.482  10.951   7.651
61928SOL     OW87615   9.587   3.414   2.486
61928SOL    HW187616   9.634   3.482   2.438
61928SOL    HW287617   9.543   3.363   2.418
61929SOL     OW87618   3.108   5.235   9.960
61929SOL    HW187619   3.078   5.293   9.891
61929SOL    HW287620   3.100   5.286  10.041
61930SOL     OW87621  14.526   0.443   2.268
61930SOL    HW187622  14.438   0.406   2.275
61930SOL    HW287623  14.548   0.469   2.358
61931SOL     OW87624  10.763   7.103   9.926
61931SOL    HW187625  10.699   7.040   9.894
61931SOL    HW287626  10.797   7.145   9.847
61932SOL     OW87627   8.787  13.124   5.721
61932SOL    HW187628   8.847  13.083   5.659
61932SOL    HW287629   8.781  13.215   5.692
61933SOL     OW87630  13.879  11.060   3.411
61933SOL    HW187631  13.898  11.150   3.384
61933SOL    HW287632  13.847  11.068   3.500
61934SOL     OW87633   6.522   5.365   4.047
61934SOL    HW187634   6.444   5.400   4.089
61934SOL    HW287635   6.492   5.338   3.960
61935SOL     OW87636   9.984   7.729   3.256
61935SOL    HW187637   9.989   7.642   3.215
61935SOL    HW287638   9.936   7.715   3.337
61936SOL     OW87639  14.638  12.294  11.245
61936SOL    HW187640  14.576  12.364  11.224
61936SOL    HW287641  14.656  12.252  11.160
61937SOL     OW87642  11.111  12.376   9.990
61937SOL    HW187643  11.146  12.463   9.967
61937SOL    HW287644  11.025  12.394  10.027
61938SOL     OW87645  11.774   1.960   8.895
61938SOL    HW187646  11.713   2.033   8.902
61938SOL    HW287647  11.818   1.957   8.980
61939SOL     OW87648   9.755   5.225  13.964
61939SOL    HW187649   9.847   5.199  13.967
61939SOL    HW287650   9.746   5.274  13.883
61940SOL     OW87651   4.411  14.745   2.940
61940SOL    HW187652   4.339  14.688   2.966
61940SOL    HW287653   4.417  14.809   3.011
61941SOL     OW87654  11.735  12.229   5.209
61941SOL    HW187655  11.640  12.218   5.216
61941SOL    HW287656  11.769  12.207   5.295
61942SOL     OW87657   6.134   4.123  11.123
61942SOL    HW187658   6.131   4.210  11.083
61942SOL    HW287659   6.043   4.095  11.126
61943SOL     OW87660  11.024   1.021  10.741
61943SOL    HW187661  11.060   0.937  10.770
61943SOL    HW287662  11.101   1.075  10.723
61944SOL     OW87663   2.248  13.058   0.587
61944SOL    HW187664   2.336  13.042   0.552
61944SOL    HW287665   2.191  13.060   0.510
61945SOL     OW87666  10.814   4.845   7.571
61945SOL    HW187667  10.726   4.826   7.603
61945SOL    HW287668  10.808   4.836   7.476
61946SOL     OW87669   9.159   2.527   1.542
61946SOL    HW187670   9.072   2.563   1.560
61946SOL    HW287671   9.157   2.504   1.449
61947SOL     OW87672   0.875   6.812   1.171
61947SOL    HW187673   0.878   6.868   1.249
61947SOL    HW287674   0.967   6.799   1.148
61948SOL     OW87675   9.067   1.704  10.254
61948SOL    HW187676   9.037   1.614  10.242
61948SOL    HW287677   9.068   1.716  10.349
61949SOL     OW87678   9.840   5.955   9.882
61949SOL    HW187679   9.857   6.019   9.951
61949SOL    HW287680   9.791   6.003   9.816
61950SOL     OW87681   4.354   0.504  13.929
61950SOL    HW187682   4.372   0.492  13.836
61950SOL    HW287683   4.271   0.460  13.943
61951SOL     OW87684   3.610  12.554   0.769
61951SOL    HW187685   3.664  12.480   0.742
61951SOL    HW287686   3.595  12.605   0.688
61952SOL     OW87687   6.002  12.335   9.818
61952SOL    HW187688   6.049  12.318   9.900
61952SOL    HW287689   5.970  12.425   9.827
61953SOL     OW87690   8.778   7.968  14.085
61953SOL    HW187691   8.796   8.050  14.039
61953SOL    HW287692   8.800   7.900  14.021
61954SOL     OW87693   9.683   5.813   4.078
61954SOL    HW187694   9.712   5.848   3.994
61954SOL    HW287695   9.688   5.887   4.138
61955SOL     OW87696   7.063   0.908  10.713
61955SOL    HW187697   7.081   0.880  10.624
61955SOL    HW287698   7.107   0.992  10.722
61956SOL     OW87699   8.292   6.643   2.222
61956SOL    HW187700   8.278   6.737   2.214
61956SOL    HW287701   8.239   6.604   2.153
61957SOL     OW87702  10.982  12.785  10.920
61957SOL    HW187703  10.902  12.755  10.876
61957SOL    HW287704  10.952  12.816  11.005
61958SOL     OW87705  11.031   7.729   5.597
61958SOL    HW187706  10.997   7.811   5.562
61958SOL    HW287707  10.968   7.705   5.666
61959SOL     OW87708   6.344   0.608   4.665
61959SOL    HW187709   6.341   0.617   4.570
61959SOL    HW287710   6.253   0.593   4.691
61960SOL     OW87711   5.359  13.426   2.204
61960SOL    HW187712   5.283  13.472   2.170
61960SOL    HW287713   5.329  13.389   2.287
61961SOL     OW87714  10.532   2.943   3.620
61961SOL    HW187715  10.448   2.984   3.601
61961SOL    HW287716  10.571   2.998   3.689
61962SOL     OW87717   0.197   8.715  14.331
61962SOL    HW187718   0.175   8.662  14.408
61962SOL    HW287719   0.177   8.805  14.357
61963SOL     OW87720   2.515  10.234   9.094
61963SOL    HW187721   2.459  10.305   9.063
61963SOL    HW287722   2.510  10.168   9.025
61964SOL     OW87723   3.158   5.369  11.178
61964SOL    HW187724   3.171   5.368  11.083
61964SOL    HW287725   3.189   5.455  11.206
61965SOL     OW87726   0.425   2.242   4.692
61965SOL    HW187727   0.425   2.269   4.784
61965SOL    HW287728   0.516   2.215   4.675
61966SOL     OW87729  13.719   3.372  12.924
61966SOL    HW187730  13.736   3.285  12.962
61966SOL    HW287731  13.624   3.375  12.916
61967SOL     OW87732   2.634  11.415   1.376
61967SOL    HW187733   2.545  11.402   1.409
61967SOL    HW287734   2.659  11.501   1.409
61968SOL     OW87735  12.505  14.086   8.920
61968SOL    HW187736  12.512  14.169   8.872
61968SOL    HW287737  12.430  14.098   8.978
61969SOL     OW87738   3.541   9.659  11.997
61969SOL    HW187739   3.498   9.723  12.054
61969SOL    HW287740   3.481   9.584  11.997
61970SOL     OW87741   9.299   0.920  14.003
61970SOL    HW187742   9.216   0.872  14.005
61970SOL    HW287743   9.287   0.988  13.937
61971SOL     OW87744   5.098   1.603   9.973
61971SOL    HW187745   5.030   1.644  10.026
61971SOL    HW287746   5.177   1.654   9.991
61972SOL     OW87747   8.639  11.180  13.199
61972SOL    HW187748   8.551  11.215  13.207
61972SOL    HW287749   8.690  11.250  13.158
61973SOL     OW87750  14.030   4.092  11.830
61973SOL    HW187751  13.975   4.029  11.783
61973SOL    HW287752  13.975   4.170  11.839
61974SOL     OW87753  12.964   1.586   1.802
61974SOL    HW187754  13.047   1.632   1.787
61974SOL    HW287755  12.899   1.638   1.756
61975SOL     OW87756   1.168   0.673  14.700
61975SOL    HW187757   1.172   0.580  14.676
61975SOL    HW287758   1.144   0.718  14.619
61976SOL     OW87759   4.714   1.460  14.499
61976SOL    HW187760   4.790   1.406  14.521
61976SOL    HW287761   4.751   1.542  14.467
61977SOL     OW87762   4.419  10.786   2.088
61977SOL    HW187763   4.391  10.827   2.006
61977SOL    HW287764   4.459  10.703   2.061
61978SOL     OW87765  14.841  14.603   8.036
61978SOL    HW187766  14.847  14.508   8.041
61978SOL    HW287767   0.053  14.634   8.058
61979SOL     OW87768  14.229  12.674  14.775
61979SOL    HW187769  14.293  12.672  14.846
61979SOL    HW287770  14.222  12.767  14.752
61980SOL     OW87771   7.561   0.910   2.648
61980SOL    HW187772   7.627   0.870   2.591
61980SOL    HW287773   7.556   0.850   2.723
61981SOL     OW87774  10.477   1.656  12.964
61981SOL    HW187775  10.450   1.572  13.001
61981SOL    HW287776  10.572   1.651  12.958
61982SOL     OW87777   6.384   3.100   7.260
61982SOL    HW187778   6.384   3.020   7.313
61982SOL    HW287779   6.476   3.112   7.237
61983SOL     OW87780   1.370  14.363  10.164
61983SOL    HW187781   1.314  14.375  10.087
61983SOL    HW287782   1.352  14.274  10.194
61984SOL     OW87783   5.560   6.546   7.034
61984SOL    HW187784   5.591   6.589   7.113
61984SOL    HW287785   5.483   6.496   7.062
61985SOL     OW87786   2.506   8.251  13.688
61985SOL    HW187787   2.496   8.254  13.592
61985SOL    HW287788   2.588   8.297  13.704
61986SOL     OW87789  10.626   1.853   5.571
61986SOL    HW187790  10.683   1.883   5.500
61986SOL    HW287791  10.553   1.811   5.526
61987SOL     OW87792   7.235   6.583   9.559
61987SOL    HW187793   7.290   6.532   9.618
61987SOL    HW287794   7.292   6.601   9.483
61988SOL     OW87795   7.446   3.423   7.937
61988SOL    HW187796   7.360   3.463   7.949
61988SOL    HW287797   7.508   3.492   7.963
61989SOL     OW87798   0.915   2.985   8.936
61989SOL    HW187799   0.883   2.997   8.846
61989SOL    HW287800   0.847   2.934   8.979
61990SOL     OW87801  10.714   1.981  12.897
61990SOL    HW187802  10.687   1.894  12.868
61990SOL    HW287803  10.787   2.003  12.841
61991SOL     OW87804  12.144   8.207   9.601
61991SOL    HW187805  12.179   8.129   9.644
61991SOL    HW287806  12.067   8.232   9.653
61992SOL     OW87807   7.438   9.875   9.491
61992SOL    HW187808   7.506   9.816   9.523
61992SOL    HW287809   7.368   9.868   9.556
61993SOL     OW87810  10.374   3.987   4.024
61993SOL    HW187811  10.437   4.053   4.054
61993SOL    HW287812  10.416   3.947   3.948
61994SOL     OW87813   2.481   8.515  10.329
61994SOL    HW187814   2.506   8.486  10.241
61994SOL    HW287815   2.558   8.563  10.361
61995SOL     OW87816   0.435   9.093   9.838
61995SOL    HW187817   0.381   9.014   9.830
61995SOL    HW287818   0.399   9.139   9.913
61996SOL     OW87819  11.935   6.071   0.335
61996SOL    HW187820  12.021   6.037   0.359
61996SOL    HW287821  11.938   6.163   0.360
61997SOL     OW87822   5.819   3.376   9.457
61997SOL    HW187823   5.849   3.397   9.369
61997SOL    HW287824   5.850   3.449   9.511
61998SOL     OW87825  12.940   9.795  14.197
61998SOL    HW187826  12.932   9.726  14.262
61998SOL    HW287827  12.972   9.871  14.246
61999SOL     OW87828   7.798   4.932   6.450
61999SOL    HW187829   7.825   4.994   6.382
61999SOL    HW287830   7.746   4.984   6.511
62000SOL     OW87831  10.861  10.874  11.577
62000SOL    HW187832  10.783  10.828  11.608
62000SOL    HW287833  10.881  10.832  11.493
62001SOL     OW87834  10.253  12.246   9.641
62001SOL    HW187835  10.309  12.310   9.598
62001SOL    HW287836  10.307  12.210   9.712
62002SOL     OW87837   7.708  13.616   5.082
62002SOL    HW187838   7.716  13.671   5.004
62002SOL    HW287839   7.719  13.526   5.049
62003SOL     OW87840   6.273   0.256   0.139
62003SOL    HW187841   6.250   0.178   0.088
62003SOL    HW287842   6.254   0.329   0.081
62004SOL     OW87843   3.759   5.280  12.869
62004SOL    HW187844   3.773   5.308  12.779
62004SOL    HW287845   3.763   5.360  12.920
62005SOL     OW87846   5.154   2.120  12.211
62005SOL    HW187847   5.193   2.039  12.246
62005SOL    HW287848   5.077   2.090  12.163
62006SOL     OW87849   9.671   2.874   7.386
62006SOL    HW187850   9.710   2.832   7.309
62006SOL    HW287851   9.746   2.912   7.433
62007SOL     OW87852   0.659  14.298  10.030
62007SOL    HW187853   0.566  14.316  10.015
62007SOL    HW287854   0.673  14.320  10.122
62008SOL     OW87855  10.212   9.201   1.737
62008SOL    HW187856  10.199   9.254   1.658
62008SOL    HW287857  10.125   9.167   1.757
62009SOL     OW87858   6.375   0.973   2.539
62009SOL    HW187859   6.381   0.981   2.444
62009SOL    HW287860   6.400   0.882   2.557
62010SOL     OW87861   8.757   3.364   6.298
62010SOL    HW187862   8.827   3.329   6.244
62010SOL    HW287863   8.732   3.292   6.355
62011SOL     OW87864   2.739   8.759   3.817
62011SOL    HW187865   2.645   8.744   3.828
62011SOL    HW287866   2.749   8.785   3.726
62012SOL     OW87867   3.065  13.586  14.009
62012SOL    HW187868   3.070  13.524  13.937
62012SOL    HW287869   3.115  13.662  13.979
62013SOL     OW87870   9.378   6.734   4.656
62013SOL    HW187871   9.390   6.663   4.593
62013SOL    HW287872   9.315   6.793   4.615
62014SOL     OW87873   3.732   5.823  10.499
62014SOL    HW187874   3.769   5.872  10.573
62014SOL    HW287875   3.808   5.796  10.448
62015SOL     OW87876   5.687  14.334   5.722
62015SOL    HW187877   5.682  14.416   5.673
62015SOL    HW287878   5.761  14.288   5.683
62016SOL     OW87879  14.429   7.712   1.082
62016SOL    HW187880  14.442   7.700   1.176
62016SOL    HW287881  14.356   7.774   1.075
62017SOL     OW87882   6.699   8.381   1.969
62017SOL    HW187883   6.681   8.325   1.894
62017SOL    HW287884   6.633   8.450   1.965
62018SOL     OW87885  12.415  12.866  14.477
62018SOL    HW187886  12.425  12.870  14.572
62018SOL    HW287887  12.349  12.799  14.462
62019SOL     OW87888  14.189  13.184  10.576
62019SOL    HW187889  14.224  13.255  10.522
62019SOL    HW287890  14.216  13.206  10.665
62020SOL     OW87891  12.726   7.907   4.235
62020SOL    HW187892  12.640   7.914   4.275
62020SOL    HW287893  12.765   7.994   4.246
62021SOL     OW87894   8.795  10.391   3.022
62021SOL    HW187895   8.851  10.386   3.100
62021SOL    HW287896   8.731  10.459   3.044
62022SOL     OW87897   6.157   7.788  11.796
62022SOL    HW187898   6.137   7.763  11.886
62022SOL    HW287899   6.076   7.827  11.764
62023SOL     OW87900   9.886  12.086   9.109
62023SOL    HW187901   9.981  12.081   9.118
62023SOL    HW287902   9.871  12.170   9.066
62024SOL     OW87903   2.392  10.333   6.527
62024SOL    HW187904   2.308  10.365   6.560
62024SOL    HW287905   2.434  10.411   6.490
62025SOL     OW87906   1.527   9.223   5.751
62025SOL    HW187907   1.556   9.181   5.670
62025SOL    HW287908   1.601   9.278   5.777
62026SOL     OW87909   3.983  13.973   8.243
62026SOL    HW187910   3.949  13.987   8.331
62026SOL    HW287911   4.064  14.023   8.240
62027SOL     OW87912   2.940  11.940  13.333
62027SOL    HW187913   2.969  12.020  13.378
62027SOL    HW287914   3.022  11.894  13.312
62028SOL     OW87915   6.982   7.433   3.478
62028SOL    HW187916   6.993   7.519   3.518
62028SOL    HW287917   7.053   7.380   3.515
62029SOL     OW87918   4.833   0.411   8.577
62029SOL    HW187919   4.831   0.316   8.583
62029SOL    HW287920   4.753   0.440   8.621
62030SOL     OW87921   0.038   8.825   5.446
62030SOL    HW187922   0.090   8.775   5.509
62030SOL    HW287923   0.102   8.860   5.384
62031SOL     OW87924   5.552  11.074   6.357
62031SOL    HW187925   5.534  11.109   6.269
62031SOL    HW287926   5.647  11.076   6.365
62032SOL     OW87927   7.508   2.301   1.242
62032SOL    HW187928   7.533   2.320   1.333
62032SOL    HW287929   7.548   2.216   1.224
62033SOL     OW87930  12.698   1.894  11.031
62033SOL    HW187931  12.627   1.957  11.042
62033SOL    HW287932  12.656   1.808  11.042
62034SOL     OW87933  14.271   8.439  11.409
62034SOL    HW187934  14.255   8.532  11.392
62034SOL    HW287935  14.284   8.433  11.504
62035SOL     OW87936   2.886   0.723  14.147
62035SOL    HW187937   2.952   0.715  14.216
62035SOL    HW287938   2.915   0.663  14.079
62036SOL     OW87939  12.455  12.434   1.188
62036SOL    HW187940  12.434  12.342   1.206
62036SOL    HW287941  12.549  12.434   1.171
62037SOL     OW87942   7.816   2.451   9.735
62037SOL    HW187943   7.822   2.388   9.808
62037SOL    HW287944   7.812   2.536   9.777
62038SOL     OW87945  10.172  11.489  10.364
62038SOL    HW187946  10.232  11.462  10.294
62038SOL    HW287947  10.195  11.434  10.438
62039SOL     OW87948   9.717   4.805   2.594
62039SOL    HW187949   9.679   4.887   2.563
62039SOL    HW287950   9.657   4.737   2.563
62040SOL     OW87951   5.803   0.498   8.300
62040SOL    HW187952   5.820   0.591   8.314
62040SOL    HW287953   5.757   0.495   8.216
62041SOL     OW87954  13.205   3.883   5.779
62041SOL    HW187955  13.155   3.810   5.743
62041SOL    HW287956  13.221   3.859   5.870
62042SOL     OW87957  14.806   5.596   7.733
62042SOL    HW187958   0.021   5.598   7.703
62042SOL    HW287959  14.756   5.567   7.657
62043SOL     OW87960   1.764   1.297   5.548
62043SOL    HW187961   1.778   1.386   5.516
62043SOL    HW287962   1.766   1.242   5.469
62044SOL     OW87963  12.845  13.383  12.354
62044SOL    HW187964  12.775  13.447  12.365
62044SOL    HW287965  12.866  13.387  12.261
62045SOL     OW87966   4.889  12.765  11.768
62045SOL    HW187967   4.969  12.779  11.719
62045SOL    HW287968   4.825  12.738  11.702
62046SOL     OW87969  10.110   5.605   1.493
62046SOL    HW187970  10.203   5.618   1.477
62046SOL    HW287971  10.069   5.684   1.457
62047SOL     OW87972   8.163   2.576   4.790
62047SOL    HW187973   8.236   2.637   4.796
62047SOL    HW287974   8.085   2.632   4.792
62048SOL     OW87975   0.467   3.200  12.729
62048SOL    HW187976   0.475   3.201  12.824
62048SOL    HW287977   0.380   3.236  12.712
62049SOL     OW87978   4.233   2.978   6.835
62049SOL    HW187979   4.315   3.017   6.803
62049SOL    HW287980   4.172   3.051   6.842
62050SOL     OW87981   0.931   1.623   5.608
62050SOL    HW187982   0.948   1.566   5.683
62050SOL    HW287983   0.959   1.710   5.637
62051SOL     OW87984  12.374   6.295   7.143
62051SOL    HW187985  12.334   6.379   7.119
62051SOL    HW287986  12.466   6.304   7.119
62052SOL     OW87987   1.848   8.980  14.221
62052SOL    HW187988   1.759   8.944  14.217
62052SOL    HW287989   1.859   9.005  14.312
62053SOL     OW87990  11.609  14.269   9.100
62053SOL    HW187991  11.640  14.357   9.080
62053SOL    HW287992  11.643  14.250   9.187
62054SOL     OW87993   4.819   4.836   0.285
62054SOL    HW187994   4.796   4.929   0.285
62054SOL    HW287995   4.772   4.800   0.360
62055SOL     OW87996   9.820  14.703  10.553
62055SOL    HW187997   9.842  14.706  10.646
62055SOL    HW287998   9.778  14.788  10.536
62056SOL     OW87999   5.696   5.792   6.324
62056SOL    HW188000   5.695   5.711   6.376
62056SOL    HW288001   5.676   5.861   6.388
62057SOL     OW88002   2.609  12.298   6.260
62057SOL    HW188003   2.586  12.205   6.268
62057SOL    HW288004   2.587  12.336   6.345
62058SOL     OW88005   7.125  14.874  11.426
62058SOL    HW188006   7.101  14.782  11.433
62058SOL    HW288007   7.085   0.040  11.503
62059SOL     OW88008   4.940  12.982   4.909
62059SOL    HW188009   5.030  12.974   4.943
62059SOL    HW288010   4.892  12.913   4.955
62060SOL     OW88011  10.863  11.818   5.377
62060SOL    HW188012  10.816  11.820   5.294
62060SOL    HW288013  10.830  11.740   5.421
62061SOL     OW88014   5.887  14.403  11.393
62061SOL    HW188015   5.801  14.370  11.366
62061SOL    HW288016   5.904  14.477  11.334
62062SOL     OW88017   2.774   5.790   5.027
62062SOL    HW188018   2.777   5.873   4.980
62062SOL    HW288019   2.840   5.736   4.984
62063SOL     OW88020  13.468   2.032  11.678
62063SOL    HW188021  13.471   2.033  11.583
62063SOL    HW288022  13.397   1.971  11.699
62064SOL     OW88023   1.669   9.567   5.621
62064SOL    HW188024   1.598   9.520   5.577
62064SOL    HW288025   1.637   9.579   5.710
62065SOL     OW88026   4.977  12.258   3.275
62065SOL    HW188027   4.890  12.275   3.311
62065SOL    HW288028   4.963  12.187   3.213
62066SOL     OW88029   1.532   0.078   3.832
62066SOL    HW188030   1.590   0.150   3.857
62066SOL    HW288031   1.499   0.104   3.745
62067SOL     OW88032   1.175   6.230  11.865
62067SOL    HW188033   1.100   6.285  11.842
62067SOL    HW288034   1.137   6.161  11.920
62068SOL     OW88035  12.035   4.810  11.688
62068SOL    HW188036  12.014   4.897  11.724
62068SOL    HW288037  12.116   4.824  11.640
62069SOL     OW88038   5.459  12.508  11.081
62069SOL    HW188039   5.433  12.418  11.101
62069SOL    HW288040   5.552  12.503  11.062
62070SOL     OW88041   0.014   4.453   7.624
62070SOL    HW188042  14.795   4.452   7.609
62070SOL    HW288043   0.046   4.377   7.575
62071SOL     OW88044   6.113   3.327   9.850
62071SOL    HW188045   6.121   3.289   9.938
62071SOL    HW288046   6.181   3.283   9.799
62072SOL     OW88047   3.193  14.697   5.891
62072SOL    HW188048   3.170  14.784   5.857
62072SOL    HW288049   3.226  14.713   5.979
62073SOL     OW88050  10.640   5.335   2.749
62073SOL    HW188051  10.600   5.405   2.697
62073SOL    HW288052  10.701   5.292   2.689
62074SOL     OW88053   9.087   7.142   8.828
62074SOL    HW188054   9.155   7.094   8.781
62074SOL    HW288055   9.038   7.186   8.759
62075SOL     OW88056   4.882  13.248  12.624
62075SOL    HW188057   4.879  13.153  12.621
62075SOL    HW288058   4.820  13.272  12.693
62076SOL     OW88059   0.293   9.551   0.853
62076SOL    HW188060   0.254   9.528   0.768
62076SOL    HW288061   0.218   9.560   0.912
62077SOL     OW88062   0.483  12.028   7.014
62077SOL    HW188063   0.398  12.025   6.969
62077SOL    HW288064   0.519  12.114   6.991
62078SOL     OW88065   7.474   3.373   4.236
62078SOL    HW188066   7.568   3.386   4.244
62078SOL    HW288067   7.437   3.414   4.314
62079SOL     OW88068  12.829   7.472   9.764
62079SOL    HW188069  12.894   7.410   9.796
62079SOL    HW288070  12.744   7.431   9.783
62080SOL     OW88071   6.771   9.971   0.542
62080SOL    HW188072   6.758   9.978   0.637
62080SOL    HW288073   6.866   9.978   0.531
62081SOL     OW88074   9.320   3.494   8.438
62081SOL    HW188075   9.294   3.586   8.442
62081SOL    HW288076   9.337   3.478   8.345
62082SOL     OW88077  10.518  12.899   3.829
62082SOL    HW188078  10.573  12.821   3.840
62082SOL    HW288079  10.572  12.959   3.777
62083SOL     OW88080   2.286  10.957   7.466
62083SOL    HW188081   2.269  10.972   7.559
62083SOL    HW288082   2.351  10.887   7.464
62084SOL     OW88083  14.817   7.283  12.298
62084SOL    HW188084  14.762   7.336  12.356
62084SOL    HW288085  14.757   7.242  12.237
62085SOL     OW88086   7.241   3.026   1.953
62085SOL    HW188087   7.296   3.000   1.879
62085SOL    HW288088   7.246   3.122   1.954
62086SOL     OW88089  12.352   5.557  12.824
62086SOL    HW188090  12.353   5.559  12.919
62086SOL    HW288091  12.443   5.540  12.799
62087SOL     OW88092   7.658   7.033  12.574
62087SOL    HW188093   7.608   6.952  12.560
62087SOL    HW288094   7.658   7.045  12.669
62088SOL     OW88095  11.855   4.351   8.588
62088SOL    HW188096  11.859   4.402   8.669
62088SOL    HW288097  11.762   4.354   8.563
62089SOL     OW88098   1.576  11.865  12.788
62089SOL    HW188099   1.601  11.878  12.696
62089SOL    HW288100   1.481  11.879  12.789
62090SOL     OW88101   4.195   2.830   1.510
62090SOL    HW188102   4.285   2.799   1.499
62090SOL    HW288103   4.172   2.806   1.600
62091SOL     OW88104   9.250   9.446   5.199
62091SOL    HW188105   9.342   9.421   5.210
62091SOL    HW288106   9.208   9.366   5.166
62092SOL     OW88107   2.764   9.301   4.332
62092SOL    HW188108   2.780   9.253   4.251
62092SOL    HW288109   2.813   9.253   4.399
62093SOL     OW88110   3.366   7.548   6.317
62093SOL    HW188111   3.374   7.497   6.397
62093SOL    HW288112   3.300   7.501   6.265
62094SOL     OW88113   0.520  14.770   6.882
62094SOL    HW188114   0.449  14.795   6.941
62094SOL    HW288115   0.497  14.808   6.797
62095SOL     OW88116  13.961   4.833   6.125
62095SOL    HW188117  13.975   4.831   6.030
62095SOL    HW288118  13.891   4.769   6.140
62096SOL     OW88119   9.645  14.410   1.593
62096SOL    HW188120   9.658  14.498   1.556
62096SOL    HW288121   9.734  14.377   1.605
62097SOL     OW88122   7.575   6.861  13.467
62097SOL    HW188123   7.532   6.896  13.545
62097SOL    HW288124   7.607   6.938  13.421
62098SOL     OW88125  13.230  10.908   8.113
62098SOL    HW188126  13.320  10.902   8.080
62098SOL    HW288127  13.240  10.950   8.199
62099SOL     OW88128   1.438  14.421   0.896
62099SOL    HW188129   1.483  14.416   0.812
62099SOL    HW288130   1.397  14.507   0.897
62100SOL     OW88131   2.140   1.299   1.264
62100SOL    HW188132   2.084   1.371   1.295
62100SOL    HW288133   2.082   1.243   1.214
62101SOL     OW88134   1.381   8.557  11.611
62101SOL    HW188135   1.337   8.473  11.616
62101SOL    HW288136   1.316   8.621  11.642
62102SOL     OW88137   4.637   6.405   3.378
62102SOL    HW188138   4.629   6.459   3.299
62102SOL    HW288139   4.548   6.401   3.413
62103SOL     OW88140   6.228  10.022  12.041
62103SOL    HW188141   6.161   9.955  12.053
62103SOL    HW288142   6.275  10.024  12.125
62104SOL     OW88143  13.246   2.087   7.361
62104SOL    HW188144  13.221   2.151   7.295
62104SOL    HW288145  13.310   2.132   7.416
62105SOL     OW88146   4.275  11.940  12.418
62105SOL    HW188147   4.195  11.992  12.418
62105SOL    HW288148   4.329  11.979  12.486
62106SOL     OW88149  14.495  13.997   9.361
62106SOL    HW188150  14.498  13.999   9.456
62106SOL    HW288151  14.560  13.932   9.335
62107SOL     OW88152   8.642  12.762   8.401
62107SOL    HW188153   8.613  12.688   8.348
62107SOL    HW288154   8.581  12.833   8.378
62108SOL     OW88155  13.187  14.424  12.620
62108SOL    HW188156  13.281  14.437  12.619
62108SOL    HW288157  13.155  14.488  12.684
62109SOL     OW88158   7.704   0.918   4.917
62109SOL    HW188159   7.620   0.959   4.898
62109SOL    HW288160   7.735   0.885   4.833
62110SOL     OW88161   1.095   0.130  10.567
62110SOL    HW188162   1.143   0.063  10.518
62110SOL    HW288163   1.041   0.081  10.628
62111SOL     OW88164   6.982   9.022   0.380
62111SOL    HW188165   7.064   9.033   0.332
62111SOL    HW288166   7.008   9.025   0.472
62112SOL     OW88167   4.520   3.464   4.307
62112SOL    HW188168   4.435   3.508   4.307
62112SOL    HW288169   4.510   3.392   4.245
62113SOL     OW88170  14.084   1.021   2.257
62113SOL    HW188171  14.103   1.103   2.303
62113SOL    HW288172  14.096   1.042   2.165
62114SOL     OW88173   4.208  14.101   8.533
62114SOL    HW188174   4.293  14.058   8.522
62114SOL    HW288175   4.197  14.109   8.628
62115SOL     OW88176   5.951   2.696   5.295
62115SOL    HW188177   6.022   2.738   5.246
62115SOL    HW288178   5.900   2.650   5.229
62116SOL     OW88179   3.825   5.291  13.207
62116SOL    HW188180   3.822   5.366  13.149
62116SOL    HW288181   3.804   5.327  13.294
62117SOL     OW88182  14.125   8.020  14.352
62117SOL    HW188183  14.076   7.938  14.358
62117SOL    HW288184  14.157   8.035  14.441
62118SOL     OW88185  12.733  14.154   8.457
62118SOL    HW188186  12.802  14.214   8.485
62118SOL    HW288187  12.653  14.204   8.462
62119SOL     OW88188   7.450   2.181  13.052
62119SOL    HW188189   7.364   2.145  13.030
62119SOL    HW288190   7.453   2.265  13.007
62120SOL     OW88191   0.068   5.349   1.114
62120SOL    HW188192   0.096   5.377   1.027
62120SOL    HW288193   0.145   5.363   1.169
62121SOL     OW88194   8.311   1.613   0.750
62121SOL    HW188195   8.217   1.631   0.740
62121SOL    HW288196   8.334   1.658   0.832
62122SOL     OW88197  14.392  13.906   6.783
62122SOL    HW188198  14.477  13.922   6.742
62122SOL    HW288199  14.367  13.819   6.752
62123SOL     OW88200  14.381  14.256   2.930
62123SOL    HW188201  14.395  14.307   3.011
62123SOL    HW288202  14.469  14.248   2.892
62124SOL     OW88203  10.029   0.666   8.324
62124SOL    HW188204  10.041   0.686   8.232
62124SOL    HW288205   9.956   0.603   8.326
62125SOL     OW88206   3.234   9.970   0.366
62125SOL    HW188207   3.255  10.035   0.433
62125SOL    HW288208   3.153   9.929   0.396
62126SOL     OW88209   8.853   6.373   5.470
62126SOL    HW188210   8.846   6.283   5.503
62126SOL    HW288211   8.816   6.369   5.382
62127SOL     OW88212  14.553   9.206  11.155
62127SOL    HW188213  14.601   9.273  11.106
62127SOL    HW288214  14.604   9.126  11.142
62128SOL     OW88215   0.158   4.901  10.929
62128SOL    HW188216   0.104   4.900  11.009
62128SOL    HW288217   0.248   4.910  10.961
62129SOL     OW88218   0.164  14.021   5.378
62129SOL    HW188219   0.129  14.098   5.332
62129SOL    HW288220   0.116  14.018   5.461
62130SOL     OW88221  13.321   4.692  14.817
62130SOL    HW188222  13.326   4.780  14.779
62130SOL    HW288223  13.398   4.648  14.781
62131SOL     OW88224   4.153  10.477   1.752
62131SOL    HW188225   4.212  10.509   1.820
62131SOL    HW288226   4.212  10.453   1.680
62132SOL     OW88227  11.099   9.461   7.331
62132SOL    HW188228  11.179   9.409   7.322
62132SOL    HW288229  11.128   9.546   7.364
62133SOL     OW88230  13.808   4.374  13.719
62133SOL    HW188231  13.814   4.308  13.788
62133SOL    HW288232  13.815   4.324  13.637
62134SOL     OW88233  12.867  13.937   4.084
62134SOL    HW188234  12.953  13.911   4.052
62134SOL    HW288235  12.885  13.992   4.159
62135SOL     OW88236  11.833  14.048   6.863
62135SOL    HW188237  11.874  14.011   6.941
62135SOL    HW288238  11.756  14.095   6.895
62136SOL     OW88239   6.338   7.083  14.191
62136SOL    HW188240   6.281   7.036  14.130
62136SOL    HW288241   6.393   7.138  14.135
62137SOL     OW88242  14.204  13.569   4.251
62137SOL    HW188243  14.260  13.510   4.200
62137SOL    HW288244  14.231  13.657   4.224
62138SOL     OW88245   4.800   5.350  13.642
62138SOL    HW188246   4.710   5.367  13.670
62138SOL    HW288247   4.853   5.365  13.721
62139SOL     OW88248  11.950   2.920   2.741
62139SOL    HW188249  12.007   2.986   2.782
62139SOL    HW288250  11.862   2.944   2.769
62140SOL     OW88251   1.207   8.193   5.406
62140SOL    HW188252   1.224   8.162   5.317
62140SOL    HW288253   1.190   8.286   5.396
62141SOL     OW88254  12.797  12.953   5.916
62141SOL    HW188255  12.822  13.023   5.856
62141SOL    HW288256  12.862  12.957   5.986
62142SOL     OW88257  10.740   4.555  11.279
62142SOL    HW188258  10.724   4.648  11.295
62142SOL    HW288259  10.749   4.516  11.366
62143SOL     OW88260   3.031  13.529  11.320
62143SOL    HW188261   3.067  13.473  11.389
62143SOL    HW288262   3.105  13.582  11.291
62144SOL     OW88263  14.252   8.274  10.486
62144SOL    HW188264  14.245   8.192  10.437
62144SOL    HW288265  14.201   8.337  10.436
62145SOL     OW88266  11.629   2.376  12.432
62145SOL    HW188267  11.558   2.435  12.408
62145SOL    HW288268  11.689   2.430  12.483
62146SOL     OW88269   3.697   7.384   9.490
62146SOL    HW188270   3.697   7.479   9.478
62146SOL    HW288271   3.771   7.353   9.438
62147SOL     OW88272  10.242   1.850  11.210
62147SOL    HW188273  10.280   1.822  11.126
62147SOL    HW288274  10.172   1.910  11.185
62148SOL     OW88275   1.770  14.402   0.611
62148SOL    HW188276   1.853  14.450   0.607
62148SOL    HW288277   1.704  14.468   0.631
62149SOL     OW88278   8.481  13.705  13.752
62149SOL    HW188279   8.567  13.746  13.751
62149SOL    HW288280   8.476  13.656  13.670
62150SOL     OW88281  11.157  12.101  14.169
62150SOL    HW188282  11.078  12.130  14.124
62150SOL    HW288283  11.135  12.013  14.200
62151SOL     OW88284   5.325   9.933   3.541
62151SOL    HW188285   5.311  10.014   3.591
62151SOL    HW288286   5.256   9.934   3.475
62152SOL     OW88287  13.214   0.977  10.810
62152SOL    HW188288  13.195   0.967  10.903
62152SOL    HW288289  13.203   0.889  10.774
62153SOL     OW88290  13.652  11.966   4.122
62153SOL    HW188291  13.656  11.872   4.103
62153SOL    HW288292  13.588  12.000   4.060
62154SOL     OW88293   6.391  13.377   7.120
62154SOL    HW188294   6.314  13.361   7.174
62154SOL    HW288295   6.364  13.353   7.031
62155SOL     OW88296   2.027   5.126  12.016
62155SOL    HW188297   1.935   5.099  12.015
62155SOL    HW288298   2.040   5.163  12.103
62156SOL     OW88299  12.110  11.996   8.413
62156SOL    HW188300  12.064  11.943   8.348
62156SOL    HW288301  12.063  11.980   8.495
62157SOL     OW88302   2.075   9.143  14.868
62157SOL    HW188303   1.986   9.150   0.026
62157SOL    HW288304   2.130   9.186   0.057
62158SOL     OW88305   1.131   7.593   3.672
62158SOL    HW188306   1.167   7.664   3.725
62158SOL    HW288307   1.039   7.588   3.697
62159SOL     OW88308  10.732   9.772  13.249
62159SOL    HW188309  10.761   9.706  13.312
62159SOL    HW288310  10.813   9.800  13.205
62160SOL     OW88311   0.261   2.401   0.060
62160SOL    HW188312   0.225   2.314   0.074
62160SOL    HW288313   0.354   2.386   0.042
62161SOL     OW88314   6.195   1.980   1.986
62161SOL    HW188315   6.260   1.936   1.931
62161SOL    HW288316   6.197   2.071   1.956
62162SOL     OW88317  13.699   4.872  12.968
62162SOL    HW188318  13.710   4.847  12.876
62162SOL    HW288319  13.766   4.939  12.983
62163SOL     OW88320   5.736  14.335   3.057
62163SOL    HW188321   5.794  14.411   3.049
62163SOL    HW288322   5.795  14.262   3.076
62164SOL     OW88323   4.897   1.710   6.970
62164SOL    HW188324   4.912   1.793   6.926
62164SOL    HW288325   4.877   1.649   6.899
62165SOL     OW88326   4.279   2.269   5.865
62165SOL    HW188327   4.268   2.181   5.828
62165SOL    HW288328   4.239   2.327   5.801
62166SOL     OW88329   7.425   2.565  10.290
62166SOL    HW188330   7.511   2.573  10.331
62166SOL    HW288331   7.378   2.644  10.318
62167SOL     OW88332   6.904  12.854  12.045
62167SOL    HW188333   6.814  12.888  12.052
62167SOL    HW288334   6.893  12.763  12.019
62168SOL     OW88335   9.878   1.725   3.280
62168SOL    HW188336   9.834   1.726   3.195
62168SOL    HW288337   9.806   1.732   3.344
62169SOL     OW88338  10.402   2.992   7.719
62169SOL    HW188339  10.461   2.956   7.785
62169SOL    HW288340  10.435   2.959   7.636
62170SOL     OW88341   2.835   0.626   5.260
62170SOL    HW188342   2.869   0.591   5.178
62170SOL    HW288343   2.907   0.678   5.296
62171SOL     OW88344   2.284   9.398  12.808
62171SOL    HW188345   2.379   9.402  12.818
62171SOL    HW288346   2.264   9.305  12.795
62172SOL     OW88347  10.079  13.838  14.003
62172SOL    HW188348  10.080  13.751  13.964
62172SOL    HW288349  10.151  13.885  13.959
62173SOL     OW88350   2.454   6.619  11.919
62173SOL    HW188351   2.531   6.562  11.917
62173SOL    HW288352   2.417   6.605  12.007
62174SOL     OW88353   4.078   2.350  10.202
62174SOL    HW188354   4.048   2.315  10.118
62174SOL    HW288355   4.004   2.401  10.234
62175SOL     OW88356   2.100   0.480  14.579
62175SOL    HW188357   2.131   0.501  14.491
62175SOL    HW288358   2.005   0.479  14.572
62176SOL     OW88359   0.372  13.851  13.068
62176SOL    HW188360   0.384  13.924  13.129
62176SOL    HW288361   0.461  13.825  13.044
62177SOL     OW88362  10.416   7.120  10.697
62177SOL    HW188363  10.492   7.137  10.643
62177SOL    HW288364  10.450   7.074  10.774
62178SOL     OW88365   2.683   0.727   2.930
62178SOL    HW188366   2.622   0.797   2.905
62178SOL    HW288367   2.672   0.718   3.024
62179SOL     OW88368   4.153   4.797   8.166
62179SOL    HW188369   4.140   4.830   8.255
62179SOL    HW288370   4.178   4.706   8.176
62180SOL     OW88371   3.204   3.697   0.417
62180SOL    HW188372   3.127   3.729   0.465
62180SOL    HW288373   3.231   3.770   0.362
62181SOL     OW88374   8.379   5.762   1.311
62181SOL    HW188375   8.440   5.784   1.240
62181SOL    HW288376   8.307   5.824   1.300
62182SOL     OW88377   1.179   9.349  13.361
62182SOL    HW188378   1.169   9.277  13.423
62182SOL    HW288379   1.273   9.362  13.353
62183SOL     OW88380   6.367  12.781   2.310
62183SOL    HW188381   6.277  12.805   2.287
62183SOL    HW288382   6.420  12.851   2.273
62184SOL     OW88383   6.292  14.112   0.596
62184SOL    HW188384   6.355  14.051   0.633
62184SOL    HW288385   6.294  14.096   0.502
62185SOL     OW88386   1.099   3.728   2.073
62185SOL    HW188387   1.166   3.660   2.084
62185SOL    HW288388   1.021   3.690   2.114
62186SOL     OW88389   4.886  13.368   1.395
62186SOL    HW188390   4.875  13.431   1.467
62186SOL    HW288391   4.901  13.284   1.439
62187SOL     OW88392  12.878   1.195   7.423
62187SOL    HW188393  12.875   1.270   7.483
62187SOL    HW288394  12.834   1.226   7.344
62188SOL     OW88395   7.600   2.014  13.752
62188SOL    HW188396   7.529   1.965  13.793
62188SOL    HW288397   7.614   2.089  13.810
62189SOL     OW88398   7.161   7.676   2.335
62189SOL    HW188399   7.207   7.703   2.415
62189SOL    HW288400   7.072   7.709   2.347
62190SOL     OW88401  12.060   6.220   5.381
62190SOL    HW188402  12.087   6.268   5.303
62190SOL    HW288403  11.974   6.255   5.402
62191SOL     OW88404  14.759  11.367   1.516
62191SOL    HW188405  14.799  11.426   1.453
62191SOL    HW288406  14.705  11.308   1.464
62192SOL     OW88407  14.744  10.444   4.841
62192SOL    HW188408  14.814  10.510   4.839
62192SOL    HW288409  14.767  10.387   4.914
62193SOL     OW88410  10.436   7.464   7.328
62193SOL    HW188411  10.347   7.498   7.325
62193SOL    HW288412  10.490   7.535   7.293
62194SOL     OW88413  13.629   2.088  13.266
62194SOL    HW188414  13.556   2.040  13.227
62194SOL    HW288415  13.698   2.022  13.276
62195SOL     OW88416   0.349  12.408  11.195
62195SOL    HW188417   0.278  12.357  11.235
62195SOL    HW288418   0.312  12.439  11.112
62196SOL     OW88419   6.972   1.333  13.090
62196SOL    HW188420   6.928   1.275  13.154
62196SOL    HW288421   6.905   1.349  13.023
62197SOL     OW88422   9.428  14.642  12.421
62197SOL    HW188423   9.381  14.686  12.492
62197SOL    HW288424   9.400  14.551  12.427
62198SOL     OW88425  11.633   6.865  12.366
62198SOL    HW188426  11.614   6.958  12.379
62198SOL    HW288427  11.697   6.844  12.433
62199SOL     OW88428   6.569   3.356   1.181
62199SOL    HW188429   6.485   3.389   1.152
62199SOL    HW288430   6.549   3.270   1.218
62200SOL     OW88431   6.929   2.061   3.457
62200SOL    HW188432   7.006   2.118   3.450
62200SOL    HW288433   6.905   2.064   3.549
62201SOL     OW88434  10.589   9.856   0.021
62201SOL    HW188435  10.581   9.922  14.827
62201SOL    HW288436  10.505   9.859   0.066
62202SOL     OW88437  12.975   8.097   7.063
62202SOL    HW188438  12.919   8.049   7.123
62202SOL    HW288439  12.926   8.100   6.981
62203SOL     OW88440   3.079   3.960   4.328
62203SOL    HW188441   3.044   3.957   4.239
62203SOL    HW288442   3.151   4.023   4.325
62204SOL     OW88443   1.574  14.072  10.398
62204SOL    HW188444   1.510  14.070  10.469
62204SOL    HW288445   1.628  14.149  10.416
62205SOL     OW88446   3.682   8.640   3.017
62205SOL    HW188447   3.677   8.735   3.028
62205SOL    HW288448   3.660   8.605   3.104
62206SOL     OW88449  10.576  12.423  13.548
62206SOL    HW188450  10.505  12.439  13.611
62206SOL    HW288451  10.552  12.476  13.472
62207SOL     OW88452  10.678   9.554  12.389
62207SOL    HW188453  10.602   9.543  12.447
62207SOL    HW288454  10.748   9.586  12.447
62208SOL     OW88455  12.090   1.670   5.630
62208SOL    HW188456  12.075   1.671   5.724
62208SOL    HW288457  12.058   1.584   5.601
62209SOL     OW88458   7.359   8.545   5.705
62209SOL    HW188459   7.271   8.516   5.680
62209SOL    HW288460   7.382   8.491   5.780
62210SOL     OW88461   0.894   1.377  12.236
62210SOL    HW188462   0.972   1.430  12.256
62210SOL    HW288463   0.930   1.299  12.192
62211SOL     OW88464   3.217  10.868  12.996
62211SOL    HW188465   3.205  10.957  12.963
62211SOL    HW288466   3.241  10.880  13.088
62212SOL     OW88467  11.184   8.921  12.323
62212SOL    HW188468  11.163   8.854  12.258
62212SOL    HW288469  11.115   8.914  12.389
62213SOL     OW88470   0.231  13.795   4.765
62213SOL    HW188471   0.301  13.832   4.819
62213SOL    HW288472   0.267  13.794   4.676
62214SOL     OW88473  13.457   3.684   9.474
62214SOL    HW188474  13.544   3.658   9.445
62214SOL    HW288475  13.435   3.761   9.421
62215SOL     OW88476  11.510   0.799   7.785
62215SOL    HW188477  11.486   0.735   7.852
62215SOL    HW288478  11.573   0.754   7.730
62216SOL     OW88479   2.439  13.200   6.981
62216SOL    HW188480   2.415  13.198   6.889
62216SOL    HW288481   2.495  13.277   6.990
62217SOL     OW88482   7.067   9.003  11.124
62217SOL    HW188483   6.973   8.991  11.113
62217SOL    HW288484   7.106   8.923  11.089
62218SOL     OW88485   9.775   1.529   5.571
62218SOL    HW188486   9.750   1.578   5.649
62218SOL    HW288487   9.843   1.468   5.602
62219SOL     OW88488   9.861   5.468   4.364
62219SOL    HW188489   9.829   5.456   4.274
62219SOL    HW288490   9.882   5.561   4.370
62220SOL     OW88491   0.133  10.955   9.221
62220SOL    HW188492   0.163  10.886   9.162
62220SOL    HW288493   0.190  11.029   9.203
62221SOL     OW88494   1.559   4.124   4.865
62221SOL    HW188495   1.495   4.118   4.936
62221SOL    HW288496   1.553   4.041   4.819
62222SOL     OW88497  12.834  10.697   8.539
62222SOL    HW188498  12.784  10.712   8.619
62222SOL    HW288499  12.878  10.614   8.553
62223SOL     OW88500  12.702  11.161   5.460
62223SOL    HW188501  12.630  11.161   5.396
62223SOL    HW288502  12.737  11.250   5.455
62224SOL     OW88503  10.256   1.771   0.126
62224SOL    HW188504  10.201   1.710   0.077
62224SOL    HW288505  10.206   1.791   0.205
62225SOL     OW88506   0.552  14.088  11.015
62225SOL    HW188507   0.516  14.003  11.040
62225SOL    HW288508   0.596  14.119  11.095
62226SOL     OW88509   0.306  13.410   5.526
62226SOL    HW188510   0.350  13.358   5.458
62226SOL    HW288511   0.220  13.428   5.490
62227SOL     OW88512  11.884   1.872   7.064
62227SOL    HW188513  11.940   1.867   7.141
62227SOL    HW288514  11.799   1.902   7.099
62228SOL     OW88515   0.284  12.525   2.240
62228SOL    HW188516   0.277  12.557   2.330
62228SOL    HW288517   0.374  12.545   2.215
62229SOL     OW88518   3.853   2.961   9.524
62229SOL    HW188519   3.811   2.895   9.580
62229SOL    HW288520   3.915   2.911   9.470
62230SOL     OW88521  13.096   7.849  14.593
62230SOL    HW188522  13.134   7.876  14.509
62230SOL    HW288523  13.166   7.798  14.635
62231SOL     OW88524   3.958   4.223   6.272
62231SOL    HW188525   3.991   4.278   6.344
62231SOL    HW288526   4.033   4.168   6.249
62232SOL     OW88527   5.048  14.258   9.091
62232SOL    HW188528   5.120  14.289   9.036
62232SOL    HW288529   5.010  14.185   9.042
62233SOL     OW88530   3.872  10.955  14.805
62233SOL    HW188531   3.881  10.874  14.754
62233SOL    HW288532   3.845  10.927   0.016
62234SOL     OW88533   1.987   1.201   6.110
62234SOL    HW188534   1.940   1.272   6.066
62234SOL    HW288535   1.978   1.221   6.204
62235SOL     OW88536   4.367   5.926   8.581
62235SOL    HW188537   4.379   5.940   8.487
62235SOL    HW288538   4.421   5.850   8.601
62236SOL     OW88539   9.062   5.564   2.547
62236SOL    HW188540   9.082   5.656   2.529
62236SOL    HW288541   9.104   5.546   2.631
62237SOL     OW88542  14.479   9.540  11.294
62237SOL    HW188543  14.426   9.469  11.331
62237SOL    HW288544  14.549   9.496  11.247
62238SOL     OW88545   7.535   6.397   3.017
62238SOL    HW188546   7.504   6.480   2.981
62238SOL    HW288547   7.521   6.333   2.947
62239SOL     OW88548   8.786  11.254  10.905
62239SOL    HW188549   8.836  11.246  10.986
62239SOL    HW288550   8.746  11.168  10.893
62240SOL     OW88551   0.049   6.387   5.659
62240SOL    HW188552   0.005   6.472   5.656
62240SOL    HW288553   0.051   6.364   5.752
62241SOL     OW88554   8.991   6.297  12.622
62241SOL    HW188555   9.049   6.266  12.552
62241SOL    HW288556   8.995   6.393  12.615
62242SOL     OW88557   9.041   1.035   2.534
62242SOL    HW188558   9.042   1.090   2.612
62242SOL    HW288559   9.034   0.946   2.568
62243SOL     OW88560  11.111   7.489   4.389
62243SOL    HW188561  11.089   7.413   4.443
62243SOL    HW288562  11.047   7.556   4.414
62244SOL     OW88563   4.954   6.055   7.873
62244SOL    HW188564   5.028   6.109   7.846
62244SOL    HW288565   4.994   5.971   7.898
62245SOL     OW88566   7.304   1.104  11.518
62245SOL    HW188567   7.290   1.179  11.460
62245SOL    HW288568   7.333   1.034  11.460
62246SOL     OW88569   4.936   3.416  12.186
62246SOL    HW188570   4.883   3.491  12.161
62246SOL    HW288571   4.924   3.353  12.115
62247SOL     OW88572   6.219   6.985   8.281
62247SOL    HW188573   6.154   6.942   8.225
62247SOL    HW288574   6.246   6.917   8.343
62248SOL     OW88575   0.243   8.366  14.864
62248SOL    HW188576   0.179   8.392  14.798
62248SOL    HW288577   0.266   8.448   0.033
62249SOL     OW88578  10.824  14.489   9.933
62249SOL    HW188579  10.843  14.476   9.840
62249SOL    HW288580  10.910  14.502   9.973
62250SOL     OW88581  13.925   0.679   7.141
62250SOL    HW188582  13.878   0.596   7.148
62250SOL    HW288583  13.887   0.722   7.064
62251SOL     OW88584  12.366   6.067   0.148
62251SOL    HW188585  12.421   6.101   0.219
62251SOL    HW288586  12.324   6.145   0.111
62252SOL     OW88587   8.790   9.844  13.326
62252SOL    HW188588   8.699   9.818  13.335
62252SOL    HW288589   8.789   9.917  13.265
62253SOL     OW88590   2.907  11.488   0.939
62253SOL    HW188591   2.975  11.520   0.880
62253SOL    HW288592   2.930  11.525   1.025
62254SOL     OW88593  12.654   4.490  10.063
62254SOL    HW188594  12.721   4.426  10.037
62254SOL    HW288595  12.577   4.437  10.082
62255SOL     OW88596   3.318   1.274   4.134
62255SOL    HW188597   3.373   1.229   4.070
62255SOL    HW288598   3.269   1.338   4.083
62256SOL     OW88599  13.663   0.782   4.287
62256SOL    HW188600  13.620   0.775   4.372
62256SOL    HW288601  13.715   0.862   4.293
62257SOL     OW88602   7.076   5.120   9.959
62257SOL    HW188603   7.111   5.110  10.048
62257SOL    HW288604   7.013   5.191   9.966
62258SOL     OW88605   4.279   8.810  14.451
62258SOL    HW188606   4.258   8.717  14.445
62258SOL    HW288607   4.354   8.821  14.393
62259SOL     OW88608   9.933  12.732  14.617
62259SOL    HW188609   9.930  12.672  14.692
62259SOL    HW288610   9.893  12.683  14.546
62260SOL     OW88611  10.723  13.138   4.184
62260SOL    HW188612  10.671  13.210   4.220
62260SOL    HW288613  10.811  13.173   4.176
62261SOL     OW88614   2.826   9.129   4.119
62261SOL    HW188615   2.777   9.144   4.039
62261SOL    HW288616   2.853   9.037   4.115
62262SOL     OW88617  10.315  13.514   1.596
62262SOL    HW188618  10.239  13.466   1.629
62262SOL    HW288619  10.321  13.490   1.504
62263SOL     OW88620   9.229   2.535   0.806
62263SOL    HW188621   9.316   2.561   0.778
62263SOL    HW288622   9.241   2.502   0.895
62264SOL     OW88623  13.469  12.289   9.687
62264SOL    HW188624  13.523  12.256   9.759
62264SOL    HW288625  13.384  12.246   9.699
62265SOL     OW88626  10.642   8.869   8.953
62265SOL    HW188627  10.655   8.960   8.926
62265SOL    HW288628  10.610   8.876   9.043
62266SOL     OW88629   0.014   6.684   6.452
62266SOL    HW188630  14.871   6.756   6.393
62266SOL    HW288631  14.847   6.608   6.412
62267SOL     OW88632   1.683   4.759   5.593
62267SOL    HW188633   1.702   4.851   5.574
62267SOL    HW288634   1.698   4.714   5.510
62268SOL     OW88635   2.097   6.016   7.191
62268SOL    HW188636   2.117   6.105   7.163
62268SOL    HW288637   2.028   5.987   7.132
62269SOL     OW88638   8.476   1.043   2.223
62269SOL    HW188639   8.540   0.985   2.182
62269SOL    HW288640   8.407   1.052   2.157
62270SOL     OW88641   5.424   3.223   4.446
62270SOL    HW188642   5.469   3.304   4.467
62270SOL    HW288643   5.410   3.180   4.530
62271SOL     OW88644   4.779   0.015   1.992
62271SOL    HW188645   4.847   0.077   1.965
62271SOL    HW288646   4.715   0.017   1.921
62272SOL     OW88647   2.344  14.065   8.510
62272SOL    HW188648   2.411  14.130   8.532
62272SOL    HW288649   2.329  14.017   8.591
62273SOL     OW88650   9.472   6.817   5.500
62273SOL    HW188651   9.485   6.802   5.594
62273SOL    HW288652   9.560   6.823   5.464
62274SOL     OW88653  13.641   6.328  14.674
62274SOL    HW188654  13.616   6.362  14.588
62274SOL    HW288655  13.665   6.406  14.724
62275SOL     OW88656  14.430   7.366  11.517
62275SOL    HW188657  14.477   7.413  11.448
62275SOL    HW288658  14.338   7.382  11.498
62276SOL     OW88659   8.894  14.667   6.189
62276SOL    HW188660   8.811  14.674   6.235
62276SOL    HW288661   8.918  14.758   6.169
62277SOL     OW88662  11.844   9.406   4.710
62277SOL    HW188663  11.934   9.381   4.735
62277SOL    HW288664  11.831   9.366   4.624
62278SOL     OW88665  14.813   6.171  14.371
62278SOL    HW188666  14.818   6.104  14.303
62278SOL    HW288667   0.006   6.147  14.433
62279SOL     OW88668  14.538   3.937  12.372
62279SOL    HW188669  14.585   3.999  12.316
62279SOL    HW288670  14.454   3.923  12.328
62280SOL     OW88671   3.191  13.654   9.535
62280SOL    HW188672   3.182  13.619   9.624
62280SOL    HW288673   3.102  13.677   9.509
62281SOL     OW88674   5.148   8.316   4.269
62281SOL    HW188675   5.079   8.306   4.203
62281SOL    HW288676   5.107   8.287   4.351
62282SOL     OW88677  13.435   6.414  12.941
62282SOL    HW188678  13.431   6.487  13.002
62282SOL    HW288679  13.493   6.443  12.871
62283SOL     OW88680  14.199  11.145   5.026
62283SOL    HW188681  14.120  11.150   5.079
62283SOL    HW288682  14.257  11.087   5.075
62284SOL     OW88683   5.998  11.778  13.689
62284SOL    HW188684   6.002  11.688  13.655
62284SOL    HW288685   6.005  11.833  13.611
62285SOL     OW88686   2.517   5.235   4.163
62285SOL    HW188687   2.592   5.255   4.106
62285SOL    HW288688   2.495   5.144   4.142
62286SOL     OW88689   3.622   5.501   3.437
62286SOL    HW188690   3.669   5.467   3.513
62286SOL    HW288691   3.688   5.548   3.386
62287SOL     OW88692   7.865   1.388   3.482
62287SOL    HW188693   7.861   1.318   3.416
62287SOL    HW288694   7.779   1.431   3.476
62288SOL     OW88695   2.700   1.395  10.775
62288SOL    HW188696   2.793   1.389  10.755
62288SOL    HW288697   2.658   1.412  10.691
62289SOL     OW88698   2.609  12.813   0.336
62289SOL    HW188699   2.663  12.789   0.260
62289SOL    HW288700   2.628  12.745   0.401
62290SOL     OW88701   8.552   1.509  13.435
62290SOL    HW188702   8.575   1.601  13.420
62290SOL    HW288703   8.461   1.502  13.407
62291SOL     OW88704  13.258  13.638   7.085
62291SOL    HW188705  13.267  13.594   7.170
62291SOL    HW288706  13.336  13.612   7.036
62292SOL     OW88707   2.651  13.728   2.148
62292SOL    HW188708   2.690  13.781   2.078
62292SOL    HW288709   2.725  13.685   2.190
62293SOL     OW88710   3.602   9.920   9.925
62293SOL    HW188711   3.654   9.907   9.845
62293SOL    HW288712   3.561   9.836   9.941
62294SOL     OW88713  10.338   8.655   5.387
62294SOL    HW188714  10.264   8.656   5.326
62294SOL    HW288715  10.298   8.661   5.473
62295SOL     OW88716   6.540   2.725   3.923
62295SOL    HW188717   6.479   2.740   3.851
62295SOL    HW288718   6.513   2.640   3.958
62296SOL     OW88719   9.522   9.507  13.921
62296SOL    HW188720   9.465   9.569  13.966
62296SOL    HW288721   9.537   9.438  13.986
62297SOL     OW88722   3.510   1.582   4.126
62297SOL    HW188723   3.419   1.557   4.138
62297SOL    HW288724   3.527   1.566   4.033
62298SOL     OW88725   9.932   1.424   6.326
62298SOL    HW188726   9.886   1.498   6.367
62298SOL    HW288727   9.965   1.458   6.244
62299SOL     OW88728   3.204   4.465  11.848
62299SOL    HW188729   3.120   4.463  11.802
62299SOL    HW288730   3.195   4.402  11.919
62300SOL     OW88731   3.272   8.786   8.423
62300SOL    HW188732   3.293   8.807   8.332
62300SOL    HW288733   3.181   8.814   8.434
62301SOL     OW88734   3.330  11.093   8.977
62301SOL    HW188735   3.315  11.140   9.059
62301SOL    HW288736   3.424  11.103   8.961
62302SOL     OW88737   1.309   6.546   8.044
62302SOL    HW188738   1.241   6.613   8.049
62302SOL    HW288739   1.389   6.595   8.027
62303SOL     OW88740   6.272   5.341   0.762
62303SOL    HW188741   6.241   5.251   0.770
62303SOL    HW288742   6.274   5.357   0.668
62304SOL     OW88743   0.641   7.999  14.262
62304SOL    HW188744   0.660   8.085  14.223
62304SOL    HW288745   0.546   7.993  14.261
62305SOL     OW88746   1.034   4.773   1.364
62305SOL    HW188747   1.075   4.845   1.412
62305SOL    HW288748   0.942   4.776   1.391
62306SOL     OW88749  11.006   5.980   9.113
62306SOL    HW188750  11.064   5.916   9.071
62306SOL    HW288751  11.035   5.981   9.204
62307SOL     OW88752  12.595   3.900  10.590
62307SOL    HW188753  12.642   3.826  10.630
62307SOL    HW288754  12.611   3.973  10.649
62308SOL     OW88755   7.504   8.410   2.152
62308SOL    HW188756   7.457   8.492   2.165
62308SOL    HW288757   7.437   8.342   2.157
62309SOL     OW88758   3.855  13.811   3.988
62309SOL    HW188759   3.928  13.857   4.028
62309SOL    HW288760   3.877  13.718   3.997
62310SOL     OW88761   8.299   0.372   9.709
62310SOL    HW188762   8.274   0.457   9.746
62310SOL    HW288763   8.364   0.394   9.642
62311SOL     OW88764  10.060   4.288  13.235
62311SOL    HW188765  10.099   4.308  13.149
62311SOL    HW288766   9.969   4.316  13.227
62312SOL     OW88767   4.166   7.912   5.624
62312SOL    HW188768   4.192   7.839   5.568
62312SOL    HW288769   4.235   7.917   5.690
62313SOL     OW88770  14.778  11.489   1.287
62313SOL    HW188771  14.855  11.542   1.266
62313SOL    HW288772  14.768  11.430   1.213
62314SOL     OW88773   4.315   3.925  14.635
62314SOL    HW188774   4.345   4.007  14.596
62314SOL    HW288775   4.251   3.891  14.572
62315SOL     OW88776   0.689  13.848   8.042
62315SOL    HW188777   0.626  13.776   8.041
62315SOL    HW288778   0.770  13.809   8.011
62316SOL     OW88779   7.287   8.952  10.648
62316SOL    HW188780   7.212   8.893  10.656
62316SOL    HW288781   7.327   8.928  10.564
62317SOL     OW88782   6.445  14.350   3.014
62317SOL    HW188783   6.381  14.414   3.045
62317SOL    HW288784   6.397  14.267   3.010
62318SOL     OW88785   5.389   0.084   5.935
62318SOL    HW188786   5.313   0.139   5.954
62318SOL    HW288787   5.360   0.027   5.863
62319SOL     OW88788  12.408   0.384   8.770
62319SOL    HW188789  12.391   0.327   8.845
62319SOL    HW288790  12.425   0.470   8.809
62320SOL     OW88791   6.397  10.377   8.510
62320SOL    HW188792   6.308  10.406   8.526
62320SOL    HW288793   6.452  10.448   8.545
62321SOL     OW88794   3.749   8.385  12.674
62321SOL    HW188795   3.703   8.419  12.750
62321SOL    HW288796   3.727   8.292  12.672
62322SOL     OW88797  10.852   8.467   6.524
62322SOL    HW188798  10.904   8.494   6.448
62322SOL    HW288799  10.793   8.541   6.540
62323SOL     OW88800  10.939   7.428   9.471
62323SOL    HW188801  10.969   7.483   9.398
62323SOL    HW288802  10.857   7.469   9.498
62324SOL     OW88803  13.293   3.688   4.739
62324SOL    HW188804  13.374   3.734   4.762
62324SOL    HW288805  13.269   3.722   4.653
62325SOL     OW88806   0.087  12.520   1.723
62325SOL    HW188807   0.174  12.548   1.694
62325SOL    HW288808   0.102  12.486   1.811
62326SOL     OW88809  11.381   2.670   1.477
62326SOL    HW188810  11.474   2.695   1.483
62326SOL    HW288811  11.351   2.670   1.568
62327SOL     OW88812   5.202  12.400   2.598
62327SOL    HW188813   5.183  12.319   2.550
62327SOL    HW288814   5.175  12.470   2.539
62328SOL     OW88815  14.085   0.156   4.288
62328SOL    HW188816  14.023   0.208   4.237
62328SOL    HW288817  14.111   0.084   4.230
62329SOL     OW88818   9.445   8.926   9.142
62329SOL    HW188819   9.499   8.974   9.205
62329SOL    HW288820   9.437   8.985   9.067
62330SOL     OW88821  13.234  10.952   6.470
62330SOL    HW188822  13.147  10.991   6.474
62330SOL    HW288823  13.287  11.017   6.424
62331SOL     OW88824   4.793   3.990   9.572
62331SOL    HW188825   4.810   4.063   9.632
62331SOL    HW288826   4.776   4.031   9.488
62332SOL     OW88827   8.855  12.821   5.560
62332SOL    HW188828   8.897  12.737   5.542
62332SOL    HW288829   8.762  12.801   5.569
62333SOL     OW88830   9.966  10.053  11.243
62333SOL    HW188831  10.011  10.130  11.278
62333SOL    HW288832   9.971   9.988  11.314
62334SOL     OW88833  10.553   0.530  10.013
62334SOL    HW188834  10.527   0.477   9.938
62334SOL    HW288835  10.596   0.607   9.975
62335SOL     OW88836   8.317   4.307   4.516
62335SOL    HW188837   8.376   4.350   4.454
62335SOL    HW288838   8.351   4.218   4.523
62336SOL     OW88839   7.904   5.558   4.654
62336SOL    HW188840   7.933   5.470   4.678
62336SOL    HW288841   7.950   5.616   4.716
62337SOL     OW88842   1.135   4.045   3.702
62337SOL    HW188843   1.149   4.119   3.761
62337SOL    HW288844   1.181   3.972   3.743
62338SOL     OW88845   5.784   1.087   7.304
62338SOL    HW188846   5.757   1.083   7.396
62338SOL    HW288847   5.731   1.020   7.260
62339SOL     OW88848  10.152   7.864   5.740
62339SOL    HW188849  10.189   7.946   5.709
62339SOL    HW288850  10.060   7.868   5.717
62340SOL     OW88851   2.334   8.776  13.288
62340SOL    HW188852   2.405   8.761  13.226
62340SOL    HW288853   2.259   8.799  13.234
62341SOL     OW88854   1.090   2.568   6.257
62341SOL    HW188855   1.179   2.545   6.284
62341SOL    HW288856   1.099   2.651   6.210
62342SOL     OW88857   4.439   4.158   5.515
62342SOL    HW188858   4.461   4.141   5.606
62342SOL    HW288859   4.516   4.130   5.466
62343SOL     OW88860   9.956  10.995   0.151
62343SOL    HW188861  10.017  10.944   0.098
62343SOL    HW288862   9.994  10.994   0.239
62344SOL     OW88863  12.770  14.084   8.009
62344SOL    HW188864  12.685  14.107   7.973
62344SOL    HW288865  12.799  14.163   8.055
62345SOL     OW88866   7.493   8.796  11.933
62345SOL    HW188867   7.443   8.721  11.902
62345SOL    HW288868   7.433   8.842  11.991
62346SOL     OW88869  14.472  10.495   7.104
62346SOL    HW188870  14.440  10.579   7.070
62346SOL    HW288871  14.417  10.429   7.060
62347SOL     OW88872   3.035   8.641   7.662
62347SOL    HW188873   2.976   8.635   7.738
62347SOL    HW288874   3.118   8.670   7.699
62348SOL     OW88875   1.493   6.185   6.028
62348SOL    HW188876   1.447   6.106   5.999
62348SOL    HW288877   1.443   6.217   6.103
62349SOL     OW88878  14.051   8.518   1.118
62349SOL    HW188879  14.088   8.594   1.073
62349SOL    HW288880  14.126   8.461   1.135
62350SOL     OW88881   8.183  13.034   0.396
62350SOL    HW188882   8.226  13.086   0.328
62350SOL    HW288883   8.112  13.090   0.428
62351SOL     OW88884   9.626   0.739   5.051
62351SOL    HW188885   9.566   0.669   5.022
62351SOL    HW288886   9.713   0.707   5.028
62352SOL     OW88887   0.700   8.012  13.675
62352SOL    HW188888   0.783   7.993  13.720
62352SOL    HW288889   0.644   7.938  13.698
62353SOL     OW88890   7.630   9.888  13.045
62353SOL    HW188891   7.626   9.980  13.021
62353SOL    HW288892   7.696   9.884  13.114
62354SOL     OW88893  12.372   5.870  14.097
62354SOL    HW188894  12.279   5.852  14.089
62354SOL    HW288895  12.398   5.828  14.179
62355SOL     OW88896  10.938   1.747  12.957
62355SOL    HW188897  10.870   1.711  12.901
62355SOL    HW288898  10.893   1.813  13.011
62356SOL     OW88899   3.756   7.118   0.455
62356SOL    HW188900   3.684   7.101   0.515
62356SOL    HW288901   3.830   7.141   0.511
62357SOL     OW88902  13.982  12.044   8.173
62357SOL    HW188903  14.044  12.102   8.128
62357SOL    HW288904  14.037  11.992   8.232
62358SOL     OW88905   7.841  14.875   2.056
62358SOL    HW188906   7.901  14.806   2.027
62358SOL    HW288907   7.864   0.013   2.148
62359SOL     OW88908   3.215  13.123   9.171
62359SOL    HW188909   3.256  13.105   9.256
62359SOL    HW288910   3.206  13.037   9.130
62360SOL     OW88911  13.759  12.116   5.247
62360SOL    HW188912  13.699  12.152   5.313
62360SOL    HW288913  13.796  12.193   5.204
62361SOL     OW88914  13.549  10.697   8.378
62361SOL    HW188915  13.543  10.792   8.371
62361SOL    HW288916  13.461  10.666   8.359
62362SOL     OW88917   6.940   7.277   0.040
62362SOL    HW188918   6.976   7.215  14.852
62362SOL    HW288919   6.899   7.222   0.107
62363SOL     OW88920  11.170   2.100   7.127
62363SOL    HW188921  11.111   2.173   7.146
62363SOL    HW288922  11.113   2.033   7.087
62364SOL     OW88923  10.962   8.502   5.432
62364SOL    HW188924  10.927   8.575   5.483
62364SOL    HW288925  10.992   8.542   5.350
62365SOL     OW88926   7.384  12.011  12.711
62365SOL    HW188927   7.443  12.032  12.639
62365SOL    HW288928   7.309  11.968  12.669
62366SOL     OW88929   7.276  13.499   6.284
62366SOL    HW188930   7.239  13.443   6.216
62366SOL    HW288931   7.200  13.545   6.321
62367SOL     OW88932   6.235  11.621   9.150
62367SOL    HW188933   6.329  11.639   9.151
62367SOL    HW288934   6.209  11.638   9.059
62368SOL     OW88935   7.212   9.812   8.058
62368SOL    HW188936   7.223   9.739   8.120
62368SOL    HW288937   7.154   9.777   7.991
62369SOL     OW88938  11.705   9.009   1.943
62369SOL    HW188939  11.681   8.986   1.854
62369SOL    HW288940  11.661   8.944   1.998
62370SOL     OW88941   2.490   8.039  13.846
62370SOL    HW188942   2.503   8.075  13.934
62370SOL    HW288943   2.481   8.116  13.790
62371SOL     OW88944   7.013   2.380  12.904
62371SOL    HW188945   7.070   2.456  12.896
62371SOL    HW288946   6.949   2.405  12.971
62372SOL     OW88947   9.188   3.626   9.548
62372SOL    HW188948   9.120   3.562   9.568
62372SOL    HW288949   9.252   3.615   9.619
62373SOL     OW88950   3.873   3.188   9.680
62373SOL    HW188951   3.962   3.221   9.696
62373SOL    HW288952   3.884   3.093   9.674
62374SOL     OW88953   9.129   6.364  14.257
62374SOL    HW188954   9.043   6.331  14.232
62374SOL    HW288955   9.185   6.286  14.259
62375SOL     OW88956   4.568   6.381   2.876
62375SOL    HW188957   4.663   6.388   2.867
62375SOL    HW288958   4.539   6.471   2.891
62376SOL     OW88959   2.592  10.554  11.692
62376SOL    HW188960   2.521  10.594  11.641
62376SOL    HW288961   2.583  10.592  11.779
62377SOL     OW88962   7.018  12.957  11.266
62377SOL    HW188963   7.013  12.866  11.296
62377SOL    HW288964   7.111  12.975  11.258
62378SOL     OW88965  14.340  14.098   9.858
62378SOL    HW188966  14.263  14.093   9.802
62378SOL    HW288967  14.335  14.019   9.913
62379SOL     OW88968   8.381   4.472   3.563
62379SOL    HW188969   8.395   4.379   3.582
62379SOL    HW288970   8.370   4.477   3.468
62380SOL     OW88971  10.025  12.003   7.273
62380SOL    HW188972   9.985  12.057   7.205
62380SOL    HW288973  10.041  11.919   7.231
62381SOL     OW88974   5.263   1.544   5.255
62381SOL    HW188975   5.240   1.637   5.257
62381SOL    HW288976   5.180   1.499   5.239
62382SOL     OW88977   5.710   8.454   4.340
62382SOL    HW188978   5.706   8.392   4.268
62382SOL    HW288979   5.665   8.532   4.307
62383SOL     OW88980  13.930  12.642   3.977
62383SOL    HW188981  14.001  12.706   3.971
62383SOL    HW288982  13.975  12.557   3.971
62384SOL     OW88983   9.892   3.985   0.355
62384SOL    HW188984   9.955   3.931   0.402
62384SOL    HW288985   9.941   4.021   0.282
62385SOL     OW88986   5.660   5.798   5.122
62385SOL    HW188987   5.570   5.768   5.112
62385SOL    HW288988   5.676   5.794   5.216
62386SOL     OW88989  11.734   9.735  10.314
62386SOL    HW188990  11.732   9.647  10.351
62386SOL    HW288991  11.735   9.793  10.389
62387SOL     OW88992  10.756   3.121   1.629
62387SOL    HW188993  10.704   3.048   1.664
62387SOL    HW288994  10.799   3.159   1.705
62388SOL     OW88995  11.130   2.347  10.824
62388SOL    HW188996  11.185   2.393  10.761
62388SOL    HW288997  11.049   2.329  10.777
62389SOL     OW88998   1.560   5.784   6.580
62389SOL    HW188999   1.515   5.701   6.564
62389SOL    HW289000   1.638   5.780   6.524
62390SOL     OW89001   5.330  12.288   5.803
62390SOL    HW189002   5.243  12.310   5.837
62390SOL    HW289003   5.340  12.194   5.821
62391SOL     OW89004   4.744   0.682   3.871
62391SOL    HW189005   4.674   0.658   3.811
62391SOL    HW289006   4.818   0.627   3.845
62392SOL     OW89007   5.777  13.792   1.806
62392SOL    HW189008   5.871  13.802   1.819
62392SOL    HW289009   5.758  13.702   1.830
62393SOL     OW89010  11.613   7.891  11.666
62393SOL    HW189011  11.644   7.963  11.612
62393SOL    HW289012  11.551   7.931  11.727
62394SOL     OW89013   4.677   0.175   7.623
62394SOL    HW189014   4.612   0.164   7.554
62394SOL    HW289015   4.691   0.087   7.657
62395SOL     OW89016   4.531   4.133   6.326
62395SOL    HW189017   4.487   4.105   6.406
62395SOL    HW289018   4.551   4.225   6.339
62396SOL     OW89019  14.013  13.627   2.797
62396SOL    HW189020  14.031  13.543   2.840
62396SOL    HW289021  14.020  13.608   2.704
62397SOL     OW89022   4.074   7.139   8.867
62397SOL    HW189023   4.084   7.047   8.840
62397SOL    HW289024   4.092   7.139   8.961
62398SOL     OW89025   2.868  13.640   6.096
62398SOL    HW189026   2.938  13.575   6.101
62398SOL    HW289027   2.895  13.699   6.026
62399SOL     OW89028   9.909  11.122   4.471
62399SOL    HW189029   9.927  11.044   4.419
62399SOL    HW289030   9.817  11.113   4.496
62400SOL     OW89031  13.257   2.804  12.439
62400SOL    HW189032  13.295   2.811  12.526
62400SOL    HW289033  13.183   2.864  12.440
62401SOL     OW89034   8.841  11.234   7.092
62401SOL    HW189035   8.876  11.195   7.011
62401SOL    HW289036   8.746  11.233   7.079
62402SOL     OW89037   5.410   9.050   2.347
62402SOL    HW189038   5.349   9.118   2.374
62402SOL    HW289039   5.355   8.981   2.309
62403SOL     OW89040   6.909  11.099   9.386
62403SOL    HW189041   6.951  11.017   9.360
62403SOL    HW289042   6.970  11.167   9.357
62404SOL     OW89043  14.554   3.141   8.524
62404SOL    HW189044  14.541   3.202   8.597
62404SOL    HW289045  14.531   3.192   8.446
62405SOL     OW89046   8.501   6.440  14.193
62405SOL    HW189047   8.473   6.483  14.112
62405SOL    HW289048   8.515   6.513  14.254
62406SOL     OW89049   6.912   6.672   2.566
62406SOL    HW189050   6.864   6.603   2.611
62406SOL    HW289051   7.003   6.640   2.564
62407SOL     OW89052  13.365   6.649  11.267
62407SOL    HW189053  13.364   6.741  11.293
62407SOL    HW289054  13.280   6.636  11.223
62408SOL     OW89055   7.492   9.114   6.788
62408SOL    HW189056   7.399   9.117   6.767
62408SOL    HW289057   7.506   9.191   6.844
62409SOL     OW89058   1.153   3.012  11.126
62409SOL    HW189059   1.208   3.080  11.164
62409SOL    HW289060   1.073   3.057  11.101
62410SOL     OW89061  14.064   4.375  14.683
62410SOL    HW189062  14.062   4.280  14.675
62410SOL    HW289063  14.023   4.407  14.602
62411SOL     OW89064   0.052   0.431   2.332
62411SOL    HW189065   0.044   0.525   2.313
62411SOL    HW289066  14.850   0.411   2.384
62412SOL     OW89067   7.359  12.675   6.262
62412SOL    HW189068   7.398  12.704   6.180
62412SOL    HW289069   7.349  12.580   6.252
62413SOL     OW89070   4.955  14.207   9.378
62413SOL    HW189071   5.028  14.218   9.439
62413SOL    HW289072   4.991  14.226   9.292
62414SOL     OW89073   7.753   7.713   5.583
62414SOL    HW189074   7.700   7.766   5.643
62414SOL    HW289075   7.798   7.650   5.639
62415SOL     OW89076   2.397   2.683   6.073
62415SOL    HW189077   2.490   2.666   6.092
62415SOL    HW289078   2.352   2.664   6.155
62416SOL     OW89079   4.865   3.929  11.747
62416SOL    HW189080   4.900   3.947  11.659
62416SOL    HW289081   4.933   3.960  11.806
62417SOL     OW89082   7.385   7.512  10.727
62417SOL    HW189083   7.307   7.457  10.734
62417SOL    HW289084   7.458   7.451  10.734
62418SOL     OW89085   9.632   2.928   3.439
62418SOL    HW189086   9.671   2.847   3.470
62418SOL    HW289087   9.600   2.909   3.351
62419SOL     OW89088  14.666   7.689   8.964
62419SOL    HW189089  14.746   7.637   8.956
62419SOL    HW289090  14.697   7.779   8.970
62420SOL     OW89091   4.320  12.126  14.036
62420SOL    HW189092   4.257  12.066  13.996
62420SOL    HW289093   4.363  12.073  14.104
62421SOL     OW89094  12.518   0.778   8.972
62421SOL    HW189095  12.547   0.825   9.050
62421SOL    HW289096  12.467   0.842   8.923
62422SOL     OW89097   6.591   1.382  13.471
62422SOL    HW189098   6.602   1.421  13.384
62422SOL    HW289099   6.501   1.403  13.495
62423SOL     OW89100   4.699  12.476   5.057
62423SOL    HW189101   4.752  12.441   5.129
62423SOL    HW289102   4.611  12.486   5.095
62424SOL     OW89103  11.372  13.808   5.162
62424SOL    HW189104  11.372  13.812   5.066
62424SOL    HW289105  11.423  13.730   5.183
62425SOL     OW89106  11.438   9.492   1.461
62425SOL    HW189107  11.354   9.538   1.468
62425SOL    HW289108  11.459   9.469   1.552
62426SOL     OW89109   7.192  14.195  11.021
62426SOL    HW189110   7.156  14.143  10.949
62426SOL    HW289111   7.227  14.274  10.979
62427SOL     OW89112   2.357  10.384  10.870
62427SOL    HW189113   2.442  10.369  10.911
62427SOL    HW289114   2.367  10.465  10.821
62428SOL     OW89115   4.781   8.018   9.049
62428SOL    HW189116   4.725   7.986   8.978
62428SOL    HW289117   4.832   8.089   9.009
62429SOL     OW89118   7.729   7.088   1.795
62429SOL    HW189119   7.725   7.031   1.719
62429SOL    HW289120   7.689   7.170   1.765
62430SOL     OW89121   6.424  11.651   4.816
62430SOL    HW189122   6.364  11.672   4.744
62430SOL    HW289123   6.440  11.736   4.857
62431SOL     OW89124   2.504   4.920   4.967
62431SOL    HW189125   2.426   4.923   5.023
62431SOL    HW289126   2.576   4.901   5.026
62432SOL     OW89127  10.908   0.551   3.445
62432SOL    HW189128  10.980   0.490   3.463
62432SOL    HW289129  10.919   0.621   3.509
62433SOL     OW89130  11.884   5.088   8.697
62433SOL    HW189131  11.931   5.023   8.750
62433SOL    HW289132  11.920   5.078   8.609
62434SOL     OW89133  12.156  13.812   7.041
62434SOL    HW189134  12.201  13.856   6.969
62434SOL    HW289135  12.195  13.850   7.120
62435SOL     OW89136   9.014   5.083   9.576
62435SOL    HW189137   8.954   5.154   9.552
62435SOL    HW289138   9.094   5.127   9.603
62436SOL     OW89139  10.909   1.963  11.831
62436SOL    HW189140  10.882   1.880  11.870
62436SOL    HW289141  10.987   1.989  11.880
62437SOL     OW89142   6.492   6.407   1.563
62437SOL    HW189143   6.515   6.380   1.652
62437SOL    HW289144   6.569   6.385   1.511
62438SOL     OW89145   5.371  10.847   6.327
62438SOL    HW189146   5.311  10.885   6.263
62438SOL    HW289147   5.430  10.918   6.350
62439SOL     OW89148   7.194   4.479   5.281
62439SOL    HW189149   7.125   4.503   5.343
62439SOL    HW289150   7.150   4.420   5.219
62440SOL     OW89151  14.291  14.546   9.223
62440SOL    HW189152  14.352  14.619   9.233
62440SOL    HW289153  14.323  14.498   9.147
62441SOL     OW89154  12.452   6.355   5.412
62441SOL    HW189155  12.394   6.413   5.462
62441SOL    HW289156  12.485   6.411   5.341
62442SOL     OW89157  13.887   5.403  10.950
62442SOL    HW189158  13.832   5.425  10.875
62442SOL    HW289159  13.826   5.393  11.023
62443SOL     OW89160  13.462   8.265   8.291
62443SOL    HW189161  13.522   8.195   8.264
62443SOL    HW289162  13.506   8.307   8.365
62444SOL     OW89163   9.722  12.588   2.675
62444SOL    HW189164   9.656  12.518   2.675
62444SOL    HW289165   9.684  12.657   2.621
62445SOL     OW89166   6.567  12.507   4.962
62445SOL    HW189167   6.600  12.596   4.962
62445SOL    HW289168   6.580  12.476   5.052
62446SOL     OW89169   6.435   3.822  11.472
62446SOL    HW189170   6.345   3.799  11.446
62446SOL    HW289171   6.486   3.743  11.452
62447SOL     OW89172   3.852  13.680   5.846
62447SOL    HW189173   3.817  13.746   5.906
62447SOL    HW289174   3.776  13.632   5.815
62448SOL     OW89175  11.182  13.443   1.930
62448SOL    HW189176  11.168  13.369   1.990
62448SOL    HW289177  11.095  13.481   1.920
62449SOL     OW89178   9.664   2.475   7.353
62449SOL    HW189179   9.671   2.380   7.348
62449SOL    HW289180   9.571   2.492   7.367
62450SOL     OW89181   2.347   2.786  13.093
62450SOL    HW189182   2.441   2.795  13.073
62450SOL    HW289183   2.304   2.835  13.022
62451SOL     OW89184   8.663   1.324   9.632
62451SOL    HW189185   8.667   1.333   9.728
62451SOL    HW289186   8.753   1.337   9.603
62452SOL     OW89187   8.865   4.359  14.430
62452SOL    HW189188   8.808   4.317  14.365
62452SOL    HW289189   8.840   4.451  14.427
62453SOL     OW89190  13.903  14.178   0.708
62453SOL    HW189191  13.890  14.243   0.777
62453SOL    HW289192  13.936  14.100   0.753
62454SOL     OW89193  13.848   5.136  11.615
62454SOL    HW189194  13.846   5.118  11.521
62454SOL    HW289195  13.772   5.090  11.650
62455SOL     OW89196  10.054   1.683   9.880
62455SOL    HW189197  10.125   1.715   9.936
62455SOL    HW289198  10.065   1.731   9.797
62456SOL     OW89199   3.674  11.031   3.691
62456SOL    HW189200   3.590  11.059   3.725
62456SOL    HW289201   3.653  10.966   3.624
62457SOL     OW89202   2.427   0.615   3.490
62457SOL    HW189203   2.404   0.559   3.565
62457SOL    HW289204   2.348   0.665   3.473
62458SOL     OW89205  13.436   3.702  13.664
62458SOL    HW189206  13.353   3.675  13.703
62458SOL    HW289207  13.451   3.640  13.594
62459SOL     OW89208   3.479  12.768   5.554
62459SOL    HW189209   3.511  12.817   5.630
62459SOL    HW289210   3.428  12.832   5.505
62460SOL     OW89211   6.208   7.775   2.514
62460SOL    HW189212   6.257   7.829   2.452
62460SOL    HW289213   6.262   7.696   2.525
62461SOL     OW89214   2.048   1.113  11.997
62461SOL    HW189215   2.102   1.169  12.053
62461SOL    HW289216   2.095   1.110  11.914
62462SOL     OW89217   2.252  12.984  14.531
62462SOL    HW189218   2.289  13.062  14.489
62462SOL    HW289219   2.306  12.972  14.610
62463SOL     OW89220   0.743   6.953   9.893
62463SOL    HW189221   0.797   7.031   9.903
62463SOL    HW289222   0.661   6.975   9.937
62464SOL     OW89223   0.284   1.888  14.423
62464SOL    HW189224   0.268   1.814  14.364
62464SOL    HW289225   0.248   1.861  14.507
62465SOL     OW89226  12.664  14.299  13.789
62465SOL    HW189227  12.749  14.311  13.745
62465SOL    HW289228  12.622  14.228  13.740
62466SOL     OW89229  14.320  13.247  11.900
62466SOL    HW189230  14.307  13.215  11.990
62466SOL    HW289231  14.344  13.339  11.911
62467SOL     OW89232   2.743   2.768   5.341
62467SOL    HW189233   2.734   2.838   5.277
62467SOL    HW289234   2.803   2.803   5.407
62468SOL     OW89235  10.502   8.843   2.151
62468SOL    HW189236  10.533   8.777   2.089
62468SOL    HW289237  10.481   8.793   2.230
62469SOL     OW89238  10.246   4.855   4.101
62469SOL    HW189239  10.195   4.796   4.045
62469SOL    HW289240  10.328   4.809   4.116
62470SOL     OW89241   0.238   9.780   9.080
62470SOL    HW189242   0.219   9.758   8.989
62470SOL    HW289243   0.329   9.752   9.092
62471SOL     OW89244   5.429   1.771  10.162
62471SOL    HW189245   5.349   1.805  10.122
62471SOL    HW289246   5.420   1.793  10.255
62472SOL     OW89247  12.475  12.262   6.545
62472SOL    HW189248  12.423  12.197   6.497
62472SOL    HW289249  12.430  12.345   6.529
62473SOL     OW89250  14.112   3.842   5.374
62473SOL    HW189251  14.084   3.905   5.308
62473SOL    HW289252  14.049   3.770   5.366
62474SOL     OW89253  10.169  10.190   1.333
62474SOL    HW189254  10.264  10.197   1.324
62474SOL    HW289255  10.152  10.096   1.323
62475SOL     OW89256   1.574   8.049   2.889
62475SOL    HW189257   1.481   8.049   2.911
62475SOL    HW289258   1.584   8.119   2.825
62476SOL     OW89259   4.293  11.304   4.394
62476SOL    HW189260   4.290  11.384   4.446
62476SOL    HW289261   4.312  11.235   4.457
62477SOL     OW89262  10.344   6.808   2.311
62477SOL    HW189263  10.379   6.731   2.267
62477SOL    HW289264  10.252   6.787   2.328
62478SOL     OW89265   5.035   7.435   9.352
62478SOL    HW189266   4.996   7.361   9.305
62478SOL    HW289267   5.101   7.394   9.409
62479SOL     OW89268   2.486  10.426   5.288
62479SOL    HW189269   2.460  10.474   5.209
62479SOL    HW289270   2.427  10.351   5.291
62480SOL     OW89271   5.337   3.028   0.496
62480SOL    HW189272   5.400   2.966   0.459
62480SOL    HW289273   5.356   3.028   0.590
62481SOL     OW89274   0.679   8.811   5.786
62481SOL    HW189275   0.698   8.772   5.871
62481SOL    HW289276   0.750   8.781   5.729
62482SOL     OW89277  11.688  12.862  10.327
62482SOL    HW189278  11.696  12.943  10.377
62482SOL    HW289279  11.598  12.862  10.295
62483SOL     OW89280   3.731  12.876  14.297
62483SOL    HW189281   3.784  12.868  14.376
62483SOL    HW289282   3.658  12.933  14.322
62484SOL     OW89283  13.798  13.630   5.737
62484SOL    HW189284  13.828  13.587   5.657
62484SOL    HW289285  13.752  13.561   5.785
62485SOL     OW89286   3.453   6.013   8.107
62485SOL    HW189287   3.416   5.941   8.057
62485SOL    HW289288   3.436   6.091   8.053
62486SOL     OW89289  14.171   1.530   4.433
62486SOL    HW189290  14.144   1.484   4.513
62486SOL    HW289291  14.106   1.600   4.423
62487SOL     OW89292  10.603   8.726  13.364
62487SOL    HW189293  10.643   8.759  13.283
62487SOL    HW289294  10.675   8.686  13.412
62488SOL     OW89295   7.603  12.204   7.566
62488SOL    HW189296   7.698  12.213   7.552
62488SOL    HW289297   7.586  12.256   7.644
62489SOL     OW89298  11.897   2.468   6.823
62489SOL    HW189299  11.831   2.414   6.779
62489SOL    HW289300  11.903   2.547   6.769
62490SOL     OW89301  13.130   4.765   3.043
62490SOL    HW189302  13.175   4.746   3.126
62490SOL    HW289303  13.050   4.713   3.046
62491SOL     OW89304   2.193   8.652  11.613
62491SOL    HW189305   2.098   8.644  11.606
62491SOL    HW289306   2.214   8.731  11.565
62492SOL     OW89307   3.290  13.272   3.594
62492SOL    HW189308   3.240  13.287   3.514
62492SOL    HW289309   3.243  13.201   3.639
62493SOL     OW89310   2.487  13.092  11.406
62493SOL    HW189311   2.523  13.123  11.489
62493SOL    HW289312   2.435  13.015  11.430
62494SOL     OW89313  12.872  12.624  13.239
62494SOL    HW189314  12.859  12.621  13.144
62494SOL    HW289315  12.962  12.591  13.251
62495SOL     OW89316   3.392  12.618   8.412
62495SOL    HW189317   3.372  12.540   8.361
62495SOL    HW289318   3.306  12.657   8.430
62496SOL     OW89319   7.148  12.480   2.203
62496SOL    HW189320   7.200  12.548   2.247
62496SOL    HW289321   7.183  12.397   2.237
62497SOL     OW89322  12.467  14.839  12.066
62497SOL    HW189323  12.550   0.010  12.074
62497SOL    HW289324  12.451  14.835  11.971
62498SOL     OW89325   1.597  14.770  12.622
62498SOL    HW189326   1.681  14.815  12.610
62498SOL    HW289327   1.616  14.679  12.600
62499SOL     OW89328  11.828   2.918   5.478
62499SOL    HW189329  11.839   2.824   5.490
62499SOL    HW289330  11.895   2.942   5.414
62500SOL     OW89331   1.072  13.335  13.129
62500SOL    HW189332   0.978  13.325  13.147
62500SOL    HW289333   1.086  13.283  13.050
62501SOL     OW89334  11.977   1.733   9.893
62501SOL    HW189335  11.934   1.653   9.923
62501SOL    HW289336  11.931   1.757   9.813
62502SOL     OW89337   5.623  10.779   9.105
62502SOL    HW189338   5.564  10.848   9.075
62502SOL    HW289339   5.570  10.700   9.105
62503SOL     OW89340   0.769   3.072  13.437
62503SOL    HW189341   0.787   3.096  13.528
62503SOL    HW289342   0.855   3.058  13.398
62504SOL     OW89343   9.506  10.437   3.147
62504SOL    HW189344   9.575  10.495   3.178
62504SOL    HW289345   9.447  10.428   3.222
62505SOL     OW89346   9.295   2.914   1.597
62505SOL    HW189347   9.205   2.945   1.587
62505SOL    HW289348   9.345   2.961   1.530
62506SOL     OW89349   0.562   6.016   9.067
62506SOL    HW189350   0.499   5.950   9.097
62506SOL    HW289351   0.537   6.033   8.976
62507SOL     OW89352   8.202  11.315   3.867
62507SOL    HW189353   8.245  11.340   3.786
62507SOL    HW289354   8.116  11.283   3.840
62508SOL     OW89355   8.043  13.410  11.677
62508SOL    HW189356   8.011  13.331  11.720
62508SOL    HW289357   7.965  13.460  11.654
62509SOL     OW89358  10.118  12.371  10.793
62509SOL    HW189359  10.116  12.302  10.727
62509SOL    HW289360  10.105  12.452  10.744
62510SOL     OW89361   0.646  11.619  12.141
62510SOL    HW189362   0.627  11.692  12.200
62510SOL    HW289363   0.597  11.545  12.178
62511SOL     OW89364   5.067   7.810  14.750
62511SOL    HW189365   5.141   7.749  14.758
62511SOL    HW289366   5.025   7.809  14.836
62512SOL     OW89367   8.067   2.411   0.286
62512SOL    HW189368   8.092   2.495   0.246
62512SOL    HW289369   7.987   2.386   0.240
62513SOL     OW89370  12.400   9.791   3.355
62513SOL    HW189371  12.391   9.793   3.260
62513SOL    HW289372  12.415   9.882   3.380
62514SOL     OW89373   6.820   3.172  10.484
62514SOL    HW189374   6.898   3.166  10.538
62514SOL    HW289375   6.806   3.083  10.451
62515SOL     OW89376  12.218   0.782   0.816
62515SOL    HW189377  12.156   0.846   0.781
62515SOL    HW289378  12.285   0.774   0.747
62516SOL     OW89379  13.062   7.941   8.816
62516SOL    HW189380  13.046   8.035   8.811
62516SOL    HW289381  13.027   7.915   8.902
62517SOL     OW89382   1.651   0.221   2.496
62517SOL    HW189383   1.680   0.200   2.407
62517SOL    HW289384   1.603   0.143   2.525
62518SOL     OW89385   7.422   6.911   4.271
62518SOL    HW189386   7.507   6.866   4.272
62518SOL    HW289387   7.444   7.003   4.289
62519SOL     OW89388  11.130  13.953   4.965
62519SOL    HW189389  11.204  13.937   4.907
62519SOL    HW289390  11.152  14.034   5.011
62520SOL     OW89391   2.384   5.542   2.708
62520SOL    HW189392   2.437   5.605   2.661
62520SOL    HW289393   2.294   5.567   2.689
62521SOL     OW89394   7.760  11.657   2.898
62521SOL    HW189395   7.839  11.621   2.938
62521SOL    HW289396   7.688  11.620   2.948
62522SOL     OW89397   3.229   1.640   3.734
62522SOL    HW189398   3.193   1.587   3.806
62522SOL    HW289399   3.309   1.593   3.708
62523SOL     OW89400   1.667   0.218  12.667
62523SOL    HW189401   1.713   0.297  12.638
62523SOL    HW289402   1.591   0.212  12.609
62524SOL     OW89403   0.258   5.524   6.893
62524SOL    HW189404   0.192   5.561   6.951
62524SOL    HW289405   0.329   5.496   6.951
62525SOL     OW89406   2.681   7.912  11.472
62525SOL    HW189407   2.599   7.864  11.477
62525SOL    HW289408   2.703   7.931  11.564
62526SOL     OW89409   5.626   1.333  12.445
62526SOL    HW189410   5.683   1.297  12.378
62526SOL    HW289411   5.560   1.266  12.461
62527SOL     OW89412  13.196   9.446  10.755
62527SOL    HW189413  13.247   9.526  10.752
62527SOL    HW289414  13.105   9.475  10.762
62528SOL     OW89415   7.327  12.976  14.376
62528SOL    HW189416   7.282  12.944  14.297
62528SOL    HW289417   7.272  12.948  14.448
62529SOL     OW89418   9.068   7.962  12.571
62529SOL    HW189419   9.066   7.873  12.607
62529SOL    HW289420   9.150   7.965  12.521
62530SOL     OW89421   0.464   5.018  11.856
62530SOL    HW189422   0.543   4.992  11.902
62530SOL    HW289423   0.400   4.949  11.876
62531SOL     OW89424  12.508   3.826  14.587
62531SOL    HW189425  12.522   3.907  14.538
62531SOL    HW289426  12.429   3.788  14.549
62532SOL     OW89427   4.644   9.595   6.502
62532SOL    HW189428   4.572   9.554   6.550
62532SOL    HW289429   4.640   9.556   6.415
62533SOL     OW89430   5.391   5.017   9.579
62533SOL    HW189431   5.421   5.096   9.623
62533SOL    HW289432   5.320   4.984   9.635
62534SOL     OW89433   7.498   2.808   2.660
62534SOL    HW189434   7.476   2.716   2.675
62534SOL    HW289435   7.468   2.825   2.571
62535SOL     OW89436   1.110   4.609   1.735
62535SOL    HW189437   1.060   4.530   1.755
62535SOL    HW289438   1.141   4.596   1.646
62536SOL     OW89439   8.453   5.845   8.589
62536SOL    HW189440   8.427   5.866   8.499
62536SOL    HW289441   8.373   5.854   8.640
62537SOL     OW89442  11.159  11.231   6.722
62537SOL    HW189443  11.139  11.265   6.810
62537SOL    HW289444  11.074  11.198   6.690
62538SOL     OW89445   5.102   1.058  12.887
62538SOL    HW189446   5.099   0.980  12.830
62538SOL    HW289447   5.013   1.066  12.920
62539SOL     OW89448   0.831  12.528   1.649
62539SOL    HW189449   0.857  12.494   1.563
62539SOL    HW289450   0.735  12.529   1.645
62540SOL     OW89451   2.946   0.665   2.442
62540SOL    HW189452   3.036   0.664   2.474
62540SOL    HW289453   2.894   0.629   2.514
62541SOL     OW89454   5.074   2.069   9.527
62541SOL    HW189455   5.071   2.090   9.434
62541SOL    HW289456   5.167   2.055   9.546
62542SOL     OW89457  14.174  10.540   2.707
62542SOL    HW189458  14.215  10.473   2.761
62542SOL    HW289459  14.082  10.514   2.702
62543SOL     OW89460   3.040   4.817   7.455
62543SOL    HW189461   3.040   4.727   7.486
62543SOL    HW289462   2.962   4.856   7.495
62544SOL     OW89463  14.337   1.804   4.446
62544SOL    HW189464  14.396   1.842   4.511
62544SOL    HW289465  14.374   1.717   4.429
62545SOL     OW89466   4.013   5.993   5.565
62545SOL    HW189467   3.994   6.056   5.495
62545SOL    HW289468   3.975   5.911   5.534
62546SOL     OW89469   2.427   0.261  14.725
62546SOL    HW189470   2.442   0.277  14.632
62546SOL    HW289471   2.514   0.261  14.765
62547SOL     OW89472   5.379  14.380   5.238
62547SOL    HW189473   5.355  14.363   5.147
62547SOL    HW289474   5.307  14.343   5.289
62548SOL     OW89475  13.518   2.726   3.167
62548SOL    HW189476  13.484   2.813   3.145
62548SOL    HW289477  13.467   2.699   3.243
62549SOL     OW89478  12.875   1.465   1.275
62549SOL    HW189479  12.965   1.433   1.271
62549SOL    HW289480  12.822   1.393   1.243
62550SOL     OW89481  11.936   2.853   0.241
62550SOL    HW189482  11.938   2.760   0.218
62550SOL    HW289483  11.845   2.870   0.265
62551SOL     OW89484   4.862   0.172   0.100
62551SOL    HW189485   4.896   0.260   0.083
62551SOL    HW289486   4.811   0.181   0.181
62552SOL     OW89487   4.234   3.836  10.038
62552SOL    HW189488   4.276   3.815   9.955
62552SOL    HW289489   4.299   3.811  10.104
62553SOL     OW89490  11.379  12.900   1.937
62553SOL    HW189491  11.415  12.962   1.874
62553SOL    HW289492  11.453  12.842   1.957
62554SOL     OW89493   6.979   9.331  13.385
62554SOL    HW189494   6.884   9.328  13.391
62554SOL    HW289495   7.007   9.241  13.402
62555SOL     OW89496  13.737   6.994   0.622
62555SOL    HW189497  13.794   7.029   0.691
62555SOL    HW289498  13.654   7.041   0.634
62556SOL     OW89499  10.077   7.570   1.764
62556SOL    HW189500  10.039   7.647   1.805
62556SOL    HW289501  10.009   7.502   1.772
62557SOL     OW89502   6.102   3.805  13.872
62557SOL    HW189503   6.071   3.717  13.893
62557SOL    HW289504   6.027   3.862  13.889
62558SOL     OW89505   4.056  13.725   8.879
62558SOL    HW189506   4.065  13.688   8.791
62558SOL    HW289507   4.146  13.747   8.904
62559SOL     OW89508  11.005   6.430   0.193
62559SOL    HW189509  11.026   6.438   0.286
62559SOL    HW289510  10.946   6.355   0.188
62560SOL     OW89511   4.408   8.638  12.759
62560SOL    HW189512   4.348   8.607  12.692
62560SOL    HW289513   4.392   8.582  12.835
62561SOL     OW89514   4.341   3.576   8.806
62561SOL    HW189515   4.414   3.519   8.828
62561SOL    HW289516   4.379   3.664   8.806
62562SOL     OW89517   2.090  12.568  12.984
62562SOL    HW189518   2.053  12.639  12.932
62562SOL    HW289519   2.058  12.583  13.072
62563SOL     OW89520   8.603   9.065   7.352
62563SOL    HW189521   8.694   9.043   7.335
62563SOL    HW289522   8.602   9.161   7.356
62564SOL     OW89523   9.402  13.656   1.004
62564SOL    HW189524   9.339  13.655   1.076
62564SOL    HW289525   9.369  13.590   0.943
62565SOL     OW89526   5.001   5.550   6.210
62565SOL    HW189527   4.979   5.619   6.274
62565SOL    HW289528   5.009   5.597   6.127
62566SOL     OW89529   1.155   6.671   6.852
62566SOL    HW189530   1.210   6.736   6.810
62566SOL    HW289531   1.090   6.721   6.901
62567SOL     OW89532   7.158   5.678   0.610
62567SOL    HW189533   7.105   5.670   0.531
62567SOL    HW289534   7.236   5.626   0.593
62568SOL     OW89535   8.607   5.115   0.425
62568SOL    HW189536   8.521   5.108   0.383
62568SOL    HW289537   8.644   5.027   0.420
62569SOL     OW89538   8.022   8.901   2.121
62569SOL    HW189539   8.014   8.824   2.066
62569SOL    HW289540   8.114   8.902   2.148
62570SOL     OW89541  10.639   5.521   9.702
62570SOL    HW189542  10.660   5.614   9.688
62570SOL    HW289543  10.680   5.476   9.629
62571SOL     OW89544   1.737   1.223   0.859
62571SOL    HW189545   1.725   1.257   0.770
62571SOL    HW289546   1.676   1.149   0.865
62572SOL     OW89547  11.852   0.160   0.262
62572SOL    HW189548  11.941   0.133   0.286
62572SOL    HW289549  11.854   0.162   0.166
62573SOL     OW89550   7.251  12.920  12.812
62573SOL    HW189551   7.265  12.938  12.905
62573SOL    HW289552   7.230  12.827  12.809
62574SOL     OW89553  10.991   1.635   5.072
62574SOL    HW189554  11.079   1.598   5.066
62574SOL    HW289555  10.959   1.606   5.157
62575SOL     OW89556   4.937   8.033  12.019
62575SOL    HW189557   4.918   7.961  12.079
62575SOL    HW289558   4.942   8.110  12.076
62576SOL     OW89559   4.600   7.662   8.970
62576SOL    HW189560   4.673   7.695   8.917
62576SOL    HW289561   4.619   7.694   9.058
62577SOL     OW89562   4.485   6.639   4.937
62577SOL    HW189563   4.517   6.670   5.022
62577SOL    HW289564   4.535   6.559   4.920
62578SOL     OW89565  12.989  14.127   6.537
62578SOL    HW189566  13.049  14.062   6.574
62578SOL    HW289567  13.046  14.197   6.504
62579SOL     OW89568   2.576   5.937   0.302
62579SOL    HW189569   2.551   5.976   0.218
62579SOL    HW289570   2.588   6.012   0.360
62580SOL     OW89571   0.680   3.709   9.776
62580SOL    HW189572   0.622   3.632   9.771
62580SOL    HW289573   0.763   3.674   9.809
62581SOL     OW89574   1.718   0.125  12.915
62581SOL    HW189575   1.720   0.145  12.821
62581SOL    HW289576   1.769   0.044  12.923
62582SOL     OW89577  13.234  14.399   2.320
62582SOL    HW189578  13.310  14.394   2.377
62582SOL    HW289579  13.162  14.422   2.379
62583SOL     OW89580   4.856  13.845  11.630
62583SOL    HW189581   4.866  13.900  11.553
62583SOL    HW289582   4.939  13.798  11.638
62584SOL     OW89583   6.720   9.920  14.448
62584SOL    HW189584   6.653   9.940  14.512
62584SOL    HW289585   6.733  10.001  14.400
62585SOL     OW89586   2.994   2.061   7.563
62585SOL    HW189587   2.915   2.083   7.515
62585SOL    HW289588   3.052   2.136   7.551
62586SOL     OW89589  10.473   3.121   0.976
62586SOL    HW189590  10.452   3.213   0.959
62586SOL    HW289591  10.420   3.098   1.052
62587SOL     OW89592  10.043   8.537  10.229
62587SOL    HW189593   9.994   8.490  10.161
62587SOL    HW289594  10.112   8.476  10.255
62588SOL     OW89595   3.736   8.834  11.377
62588SOL    HW189596   3.686   8.900  11.426
62588SOL    HW289597   3.828   8.852  11.400
62589SOL     OW89598  14.424  12.607  12.286
62589SOL    HW189599  14.383  12.642  12.365
62589SOL    HW289600  14.397  12.515  12.284
62590SOL     OW89601   7.839  13.596   9.656
62590SOL    HW189602   7.897  13.601   9.732
62590SOL    HW289603   7.832  13.502   9.637
62591SOL     OW89604  10.946   0.525   7.046
62591SOL    HW189605  10.902   0.600   7.006
62591SOL    HW289606  10.940   0.541   7.141
62592SOL     OW89607   8.963   5.998  10.308
62592SOL    HW189608   8.932   6.011  10.397
62592SOL    HW289609   8.937   5.908  10.286
62593SOL     OW89610  11.785   6.182  14.229
62593SOL    HW189611  11.784   6.236  14.308
62593SOL    HW289612  11.722   6.223  14.170
62594SOL     OW89613  10.728   2.946   8.913
62594SOL    HW189614  10.639   2.946   8.877
62594SOL    HW289615  10.718   2.917   9.003
62595SOL     OW89616   6.321   3.933   4.478
62595SOL    HW189617   6.333   3.882   4.559
62595SOL    HW289618   6.230   3.961   4.482
62596SOL     OW89619   9.662  13.859  10.444
62596SOL    HW189620   9.724  13.788  10.457
62596SOL    HW289621   9.689  13.900  10.362
62597SOL     OW89622  10.577  11.559   7.281
62597SOL    HW189623  10.651  11.532   7.336
62597SOL    HW289624  10.575  11.655   7.290
62598SOL     OW89625  13.983  12.637   5.200
62598SOL    HW189626  13.929  12.713   5.223
62598SOL    HW289627  13.953  12.568   5.260
62599SOL     OW89628   2.428   5.547   3.287
62599SOL    HW189629   2.352   5.513   3.333
62599SOL    HW289630   2.408   5.535   3.194
62600SOL     OW89631   0.306   5.764  11.791
62600SOL    HW189632   0.300   5.759  11.886
62600SOL    HW289633   0.400   5.756  11.772
62601SOL     OW89634   7.614  12.730   4.970
62601SOL    HW189635   7.577  12.643   4.954
62601SOL    HW289636   7.641  12.728   5.062
62602SOL     OW89637  14.739   0.465   3.008
62602SOL    HW189638  14.678   0.399   2.973
62602SOL    HW289639  14.820   0.417   3.023
62603SOL     OW89640   6.247   2.811  10.849
62603SOL    HW189641   6.329   2.811  10.897
62603SOL    HW289642   6.258   2.879  10.782
62604SOL     OW89643   6.791   0.879  12.355
62604SOL    HW189644   6.828   0.877  12.266
62604SOL    HW289645   6.833   0.954  12.397
62605SOL     OW89646   2.063   4.993   0.180
62605SOL    HW189647   2.025   4.906   0.197
62605SOL    HW289648   2.042   5.044   0.258
62606SOL     OW89649   8.682  12.211   8.841
62606SOL    HW189650   8.756  12.236   8.786
62606SOL    HW289651   8.633  12.148   8.789
62607SOL     OW89652   2.237   9.187   5.102
62607SOL    HW189653   2.228   9.267   5.152
62607SOL    HW289654   2.328   9.186   5.074
62608SOL     OW89655  11.229   6.671  13.510
62608SOL    HW189656  11.223   6.652  13.417
62608SOL    HW289657  11.148   6.718  13.531
62609SOL     OW89658  12.208  14.198   2.883
62609SOL    HW189659  12.207  14.161   2.972
62609SOL    HW289660  12.117  14.196   2.854
62610SOL     OW89661   4.789   5.542   0.030
62610SOL    HW189662   4.833   5.463   0.060
62610SOL    HW289663   4.765   5.588   0.110
62611SOL     OW89664   5.274   7.620  14.329
62611SOL    HW189665   5.290   7.610  14.235
62611SOL    HW289666   5.325   7.697  14.355
62612SOL     OW89667   2.140   5.804   8.446
62612SOL    HW189668   2.210   5.833   8.387
62612SOL    HW289669   2.177   5.729   8.493
62613SOL     OW89670  12.088   7.446   7.944
62613SOL    HW189671  12.077   7.353   7.921
62613SOL    HW289672  12.182   7.458   7.951
62614SOL     OW89673   2.464   6.682   0.191
62614SOL    HW189674   2.387   6.679   0.248
62614SOL    HW289675   2.490   6.775   0.192
62615SOL     OW89676  11.697   5.109   4.046
62615SOL    HW189677  11.743   5.188   4.074
62615SOL    HW289678  11.750   5.037   4.081
62616SOL     OW89679   8.670  14.699  14.691
62616SOL    HW189680   8.682  14.604  14.687
62616SOL    HW289681   8.624  14.721  14.610
62617SOL     OW89682   5.556   8.484  13.773
62617SOL    HW189683   5.556   8.543  13.698
62617SOL    HW289684   5.566   8.397  13.735
62618SOL     OW89685   3.009   1.486  11.921
62618SOL    HW189686   3.069   1.464  11.992
62618SOL    HW289687   3.061   1.538  11.860
62619SOL     OW89688  12.694  11.175   9.921
62619SOL    HW189689  12.768  11.126   9.956
62619SOL    HW289690  12.704  11.263   9.958
62620SOL     OW89691   7.244   6.024   7.388
62620SOL    HW189692   7.200   6.107   7.371
62620SOL    HW289693   7.202   5.990   7.467
62621SOL     OW89694  10.667  12.866   9.609
62621SOL    HW189695  10.591  12.902   9.564
62621SOL    HW289696  10.640  12.778   9.636
62622SOL     OW89697   2.310   0.951   4.482
62622SOL    HW189698   2.232   0.899   4.463
62622SOL    HW289699   2.383   0.889   4.470
62623SOL     OW89700  11.694  14.653   9.259
62623SOL    HW189701  11.711  14.597   9.183
62623SOL    HW289702  11.726  14.601   9.334
62624SOL     OW89703   7.737   9.404  14.240
62624SOL    HW189704   7.798   9.332  14.226
62624SOL    HW289705   7.764   9.443  14.323
62625SOL     OW89706   9.601   5.000  11.886
62625SOL    HW189707   9.693   4.972  11.888
62625SOL    HW289708   9.594   5.053  11.806
62626SOL     OW89709   2.965   0.893  13.009
62626SOL    HW189710   2.951   0.879  12.915
62626SOL    HW289711   2.993   0.807  13.042
62627SOL     OW89712   2.639   9.399  14.226
62627SOL    HW189713   2.577   9.327  14.218
62627SOL    HW289714   2.725   9.358  14.219
62628SOL     OW89715   1.714  12.309   7.175
62628SOL    HW189716   1.642  12.287   7.115
62628SOL    HW289717   1.765  12.228   7.181
62629SOL     OW89718   6.936  13.632   7.172
62629SOL    HW189719   6.883  13.711   7.180
62629SOL    HW289720   6.988  13.629   7.252
62630SOL     OW89721  11.212   3.119   9.019
62630SOL    HW189722  11.244   3.132   9.108
62630SOL    HW289723  11.290   3.124   8.964
62631SOL     OW89724   6.196   7.218   1.414
62631SOL    HW189725   6.291   7.210   1.406
62631SOL    HW289726   6.175   7.303   1.375
62632SOL     OW89727  12.768  13.220  12.564
62632SOL    HW189728  12.800  13.273  12.491
62632SOL    HW289729  12.842  13.216  12.624
62633SOL     OW89730   9.452   1.846   0.903
62633SOL    HW189731   9.487   1.757   0.900
62633SOL    HW289732   9.414   1.854   0.990
62634SOL     OW89733  13.734   7.864  10.120
62634SOL    HW189734  13.792   7.792  10.145
62634SOL    HW289735  13.789   7.922  10.068
62635SOL     OW89736   8.493   1.225  10.282
62635SOL    HW189737   8.504   1.239  10.376
62635SOL    HW289738   8.477   1.312  10.247
62636SOL     OW89739  14.726   3.089   5.381
62636SOL    HW189740  14.664   3.019   5.402
62636SOL    HW289741  14.674   3.155   5.335
62637SOL     OW89742   6.960   7.121  10.369
62637SOL    HW189743   6.884   7.138  10.314
62637SOL    HW289744   7.025   7.185  10.340
62638SOL     OW89745   6.126  12.763  12.095
62638SOL    HW189746   6.136  12.668  12.091
62638SOL    HW289747   6.144  12.792  12.006
62639SOL     OW89748  14.709   5.125   0.602
62639SOL    HW189749  14.683   5.115   0.694
62639SOL    HW289750  14.637   5.174   0.562
62640SOL     OW89751   0.224   8.215  10.279
62640SOL    HW189752   0.131   8.228  10.297
62640SOL    HW289753   0.265   8.214  10.366
62641SOL     OW89754   4.518   4.301   9.410
62641SOL    HW189755   4.535   4.394   9.398
62641SOL    HW289756   4.446   4.298   9.473
62642SOL     OW89757  11.697  11.116   9.943
62642SOL    HW189758  11.624  11.065   9.978
62642SOL    HW289759  11.701  11.193   9.999
62643SOL     OW89760  13.320   1.016  10.515
62643SOL    HW189761  13.262   0.955  10.560
62643SOL    HW289762  13.348   0.969  10.437
62644SOL     OW89763   3.638   9.727   0.974
62644SOL    HW189764   3.692   9.794   1.015
62644SOL    HW289765   3.696   9.688   0.908
62645SOL     OW89766   4.006   6.731   7.522
62645SOL    HW189767   4.096   6.761   7.537
62645SOL    HW289768   3.963   6.806   7.481
62646SOL     OW89769   8.848   2.516  14.789
62646SOL    HW189770   8.837   2.601  14.747
62646SOL    HW289771   8.845   2.453  14.718
62647SOL     OW89772  12.933   2.814   3.370
62647SOL    HW189773  12.995   2.868   3.321
62647SOL    HW289774  12.950   2.835   3.462
62648SOL     OW89775   9.454   2.941  10.759
62648SOL    HW189776   9.547   2.947  10.736
62648SOL    HW289777   9.415   3.018  10.718
62649SOL     OW89778  13.482   3.655   1.021
62649SOL    HW189779  13.558   3.599   1.006
62649SOL    HW289780  13.411   3.611   0.975
62650SOL     OW89781  12.886  13.935   1.220
62650SOL    HW189782  12.896  14.029   1.207
62650SOL    HW289783  12.792  13.920   1.218
62651SOL     OW89784   3.291   9.173   6.110
62651SOL    HW189785   3.329   9.103   6.163
62651SOL    HW289786   3.218   9.132   6.064
62652SOL     OW89787   7.714   1.427   4.122
62652SOL    HW189788   7.798   1.407   4.082
62652SOL    HW289789   7.701   1.358   4.187
62653SOL     OW89790   9.949   9.370   9.811
62653SOL    HW189791   9.888   9.355   9.884
62653SOL    HW289792  10.016   9.428   9.847
62654SOL     OW89793   4.853  11.129   0.681
62654SOL    HW189794   4.780  11.096   0.733
62654SOL    HW289795   4.875  11.058   0.621
62655SOL     OW89796  10.657  14.396   7.585
62655SOL    HW189797  10.580  14.452   7.595
62655SOL    HW289798  10.725  14.454   7.552
62656SOL     OW89799   9.825   9.274   9.317
62656SOL    HW189800   9.776   9.342   9.362
62656SOL    HW289801   9.909   9.269   9.363
62657SOL     OW89802  12.887  10.057   0.280
62657SOL    HW189803  12.898  10.038   0.373
62657SOL    HW289804  12.969  10.029   0.240
62658SOL     OW89805   2.123   8.729   6.804
62658SOL    HW189806   2.194   8.780   6.764
62658SOL    HW289807   2.143   8.728   6.897
62659SOL     OW89808   3.934   5.294   0.397
62659SOL    HW189809   3.939   5.273   0.490
62659SOL    HW289810   3.852   5.254   0.368
62660SOL     OW89811   7.738  10.035  10.287
62660SOL    HW189812   7.718  10.046  10.380
62660SOL    HW289813   7.750  10.124  10.254
62661SOL     OW89814  10.556   6.928   4.122
62661SOL    HW189815  10.627   6.886   4.072
62661SOL    HW289816  10.483   6.867   4.116
62662SOL     OW89817   1.395   2.856  11.491
62662SOL    HW189818   1.419   2.790  11.556
62662SOL    HW289819   1.301   2.867  11.501
62663SOL     OW89820   4.734   2.475  13.036
62663SOL    HW189821   4.788   2.527  13.096
62663SOL    HW289822   4.788   2.466  12.957
62664SOL     OW89823  13.344  14.766  13.071
62664SOL    HW189824  13.270  14.729  13.119
62664SOL    HW289825  13.395  14.690  13.044
62665SOL     OW89826  11.519   6.126   6.274
62665SOL    HW189827  11.539   6.137   6.181
62665SOL    HW289828  11.510   6.032   6.286
62666SOL     OW89829  12.900  10.551  13.897
62666SOL    HW189830  12.845  10.502  13.836
62666SOL    HW289831  12.975  10.495  13.914
62667SOL     OW89832   1.807  10.078   7.893
62667SOL    HW189833   1.774  10.155   7.940
62667SOL    HW289834   1.780  10.093   7.802
62668SOL     OW89835  14.184   6.648   8.677
62668SOL    HW189836  14.115   6.691   8.626
62668SOL    HW289837  14.206   6.710   8.746
62669SOL     OW89838  10.732  11.939   9.810
62669SOL    HW189839  10.771  11.987   9.884
62669SOL    HW289840  10.640  11.928   9.835
62670SOL     OW89841   6.942   5.997  13.121
62670SOL    HW189842   6.944   6.053  13.199
62670SOL    HW289843   6.850   5.990  13.099
62671SOL     OW89844  14.125   9.172  10.696
62671SOL    HW189845  14.136   9.103  10.762
62671SOL    HW289846  14.089   9.246  10.745
62672SOL     OW89847   4.631  11.944   2.930
62672SOL    HW189848   4.716  11.950   2.886
62672SOL    HW289849   4.594  11.861   2.901
62673SOL     OW89850  14.413  10.023   6.510
62673SOL    HW189851  14.355   9.953   6.482
62673SOL    HW289852  14.497  10.004   6.467
62674SOL     OW89853   5.787   1.414   9.774
62674SOL    HW189854   5.802   1.426   9.680
62674SOL    HW289855   5.756   1.499   9.804
62675SOL     OW89856   2.257  11.382  10.253
62675SOL    HW189857   2.246  11.460  10.199
62675SOL    HW289858   2.170  11.365  10.289
62676SOL     OW89859   4.146   5.590   7.043
62676SOL    HW189860   4.195   5.539   7.107
62676SOL    HW289861   4.213   5.634   6.991
62677SOL     OW89862   3.855  10.197  11.368
62677SOL    HW189863   3.816  10.266  11.314
62677SOL    HW289864   3.784  10.133  11.380
62678SOL     OW89865   5.492  14.066   8.348
62678SOL    HW189866   5.531  13.982   8.370
62678SOL    HW289867   5.564  14.129   8.355
62679SOL     OW89868   3.118   1.749  12.370
62679SOL    HW189869   3.187   1.811  12.394
62679SOL    HW289870   3.109   1.760  12.275
62680SOL     OW89871   1.111   7.141   9.788
62680SOL    HW189872   1.206   7.151   9.793
62680SOL    HW289873   1.094   7.114   9.698
62681SOL     OW89874   7.524   6.354   2.397
62681SOL    HW189875   7.554   6.341   2.307
62681SOL    HW289876   7.595   6.403   2.439
62682SOL     OW89877  12.729   5.054  12.628
62682SOL    HW189878  12.792   5.112  12.671
62682SOL    HW289879  12.664   5.113  12.590
62683SOL     OW89880  12.013   4.200   5.315
62683SOL    HW189881  11.945   4.253   5.273
62683SOL    HW289882  12.001   4.215   5.409
62684SOL     OW89883  13.407  10.010   7.768
62684SOL    HW189884  13.359   9.987   7.688
62684SOL    HW289885  13.497   9.980   7.752
62685SOL     OW89886   9.322   9.265   4.928
62685SOL    HW189887   9.248   9.326   4.930
62685SOL    HW289888   9.301   9.199   4.994
62686SOL     OW89889  10.308  13.863  11.597
62686SOL    HW189890  10.389  13.896  11.559
62686SOL    HW289891  10.330  13.843  11.688
62687SOL     OW89892   3.502   2.616   0.364
62687SOL    HW189893   3.519   2.538   0.417
62687SOL    HW289894   3.455   2.675   0.423
62688SOL     OW89895   3.075  11.753   2.458
62688SOL    HW189896   3.123  11.733   2.538
62688SOL    HW289897   3.137  11.804   2.405
62689SOL     OW89898   3.363   0.478   5.616
62689SOL    HW189899   3.317   0.468   5.532
62689SOL    HW289900   3.296   0.464   5.682
62690SOL     OW89901   9.935   9.220  10.443
62690SOL    HW189902   9.945   9.306  10.483
62690SOL    HW289903   9.867   9.177  10.495
62691SOL     OW89904  10.036   7.048   3.149
62691SOL    HW189905   9.949   7.028   3.184
62691SOL    HW289906  10.039   7.143   3.145
62692SOL     OW89907   2.258   6.856   2.150
62692SOL    HW189908   2.187   6.912   2.181
62692SOL    HW289909   2.328   6.916   2.128
62693SOL     OW89910   1.755   7.119   4.965
62693SOL    HW189911   1.823   7.052   4.954
62693SOL    HW289912   1.783   7.191   4.907
62694SOL     OW89913  12.846   7.840   6.464
62694SOL    HW189914  12.869   7.835   6.557
62694SOL    HW289915  12.910   7.902   6.427
62695SOL     OW89916  12.442  10.427  10.769
62695SOL    HW189917  12.449  10.522  10.772
62695SOL    HW289918  12.474  10.403  10.682
62696SOL     OW89919   2.635  11.787   0.550
62696SOL    HW189920   2.668  11.731   0.479
62696SOL    HW289921   2.553  11.824   0.515
62697SOL     OW89922   4.925   8.837   8.242
62697SOL    HW189923   4.983   8.870   8.310
62697SOL    HW289924   4.978   8.842   8.161
62698SOL     OW89925   5.987   5.902   4.712
62698SOL    HW189926   5.972   5.973   4.649
62698SOL    HW289927   5.926   5.919   4.783
62699SOL     OW89928   1.898  12.873  13.731
62699SOL    HW189929   1.905  12.901  13.823
62699SOL    HW289930   1.927  12.949  13.681
62700SOL     OW89931  11.465  10.092   5.512
62700SOL    HW189932  11.518  10.126   5.584
62700SOL    HW289933  11.467   9.997   5.522
62701SOL     OW89934  10.852   5.305  13.904
62701SOL    HW189935  10.911   5.300  13.829
62701SOL    HW289936  10.787   5.237  13.887
62702SOL     OW89937   9.274  10.350   6.763
62702SOL    HW189938   9.323  10.395   6.694
62702SOL    HW289939   9.211  10.296   6.715
62703SOL     OW89940  13.384   5.596   9.152
62703SOL    HW189941  13.343   5.608   9.238
62703SOL    HW289942  13.338   5.522   9.114
62704SOL     OW89943  13.398   9.522  14.375
62704SOL    HW189944  13.341   9.469  14.431
62704SOL    HW289945  13.339   9.575  14.323
62705SOL     OW89946  11.969   5.581  12.903
62705SOL    HW189947  11.908   5.507  12.902
62705SOL    HW289948  11.926   5.646  12.958
62706SOL     OW89949   6.234  13.664  14.301
62706SOL    HW189950   6.238  13.744  14.249
62706SOL    HW289951   6.287  13.601  14.253
62707SOL     OW89952   2.611   0.358  14.122
62707SOL    HW189953   2.657   0.276  14.136
62707SOL    HW289954   2.626   0.378  14.029
62708SOL     OW89955  10.822  10.239  14.493
62708SOL    HW189956  10.856  10.174  14.555
62708SOL    HW289957  10.871  10.319  14.513
62709SOL     OW89958  13.396   8.019   9.044
62709SOL    HW189959  13.435   7.983   9.124
62709SOL    HW289960  13.405   7.949   8.979
62710SOL     OW89961   8.290  14.063   8.352
62710SOL    HW189962   8.342  13.995   8.395
62710SOL    HW289963   8.340  14.087   8.275
62711SOL     OW89964   5.399   0.096   8.871
62711SOL    HW189965   5.408   0.158   8.799
62711SOL    HW289966   5.313   0.055   8.857
62712SOL     OW89967  10.882  11.282   4.635
62712SOL    HW189968  10.888  11.375   4.658
62712SOL    HW289969  10.878  11.281   4.539
62713SOL     OW89970   2.294   3.342  13.813
62713SOL    HW189971   2.277   3.292  13.894
62713SOL    HW289972   2.209   3.348  13.770
62714SOL     OW89973  13.389  10.689   9.917
62714SOL    HW189974  13.419  10.672   9.827
62714SOL    HW289975  13.422  10.777   9.936
62715SOL     OW89976  13.338   2.325  11.582
62715SOL    HW189977  13.424   2.300  11.549
62715SOL    HW289978  13.280   2.252  11.559
62716SOL     OW89979   0.803   9.846   3.446
62716SOL    HW189980   0.851   9.833   3.527
62716SOL    HW289981   0.814   9.939   3.426
62717SOL     OW89982   2.653   5.542   0.432
62717SOL    HW189983   2.591   5.570   0.366
62717SOL    HW289984   2.710   5.618   0.445
62718SOL     OW89985  10.899  14.767   7.947
62718SOL    HW189986  10.885  14.751   7.853
62718SOL    HW289987  10.842  14.841   7.967
62719SOL     OW89988  12.281   8.313   9.398
62719SOL    HW189989  12.354   8.352   9.445
62719SOL    HW289990  12.219   8.286   9.466
62720SOL     OW89991  11.236  14.233   2.645
62720SOL    HW189992  11.307  14.238   2.582
62720SOL    HW289993  11.278  14.244   2.731
62721SOL     OW89994   0.147   2.206   8.223
62721SOL    HW189995   0.235   2.218   8.259
62721SOL    HW289996   0.155   2.229   8.130
62722SOL     OW89997   1.619   6.585   2.166
62722SOL    HW189998   1.622   6.617   2.257
62722SOL    HW289999   1.709   6.558   2.148
62723SOL     OW90000   8.228   9.935  10.298
62723SOL    HW190001   8.319   9.905  10.294
62723SOL    HW290002   8.193   9.892  10.376
62724SOL     OW90003   0.983   1.205   0.311
62724SOL    HW190004   1.029   1.276   0.267
62724SOL    HW290005   0.914   1.249   0.362
62725SOL     OW90006   0.586  11.501  12.423
62725SOL    HW190007   0.506  11.491  12.372
62725SOL    HW290008   0.604  11.595  12.421
62726SOL     OW90009   7.842   6.339   2.575
62726SOL    HW190010   7.911   6.328   2.510
62726SOL    HW290011   7.880   6.395   2.642
62727SOL     OW90012  13.369   9.300  12.227
62727SOL    HW190013  13.393   9.213  12.259
62727SOL    HW290014  13.422   9.312  12.149
62728SOL     OW90015   3.703  11.550   3.617
62728SOL    HW190016   3.777  11.608   3.600
62728SOL    HW290017   3.629  11.591   3.571
62729SOL     OW90018  13.374   0.162  10.950
62729SOL    HW190019  13.351   0.253  10.969
62729SOL    HW290020  13.413   0.130  11.031
62730SOL     OW90021  14.621  14.343   2.157
62730SOL    HW190022  14.611  14.363   2.064
62730SOL    HW290023  14.532  14.340   2.191
62731SOL     OW90024  13.177  12.581   3.577
62731SOL    HW190025  13.099  12.579   3.633
62731SOL    HW290026  13.143  12.588   3.488
62732SOL     OW90027  11.213  10.369   7.485
62732SOL    HW190028  11.180  10.304   7.549
62732SOL    HW290029  11.233  10.446   7.538
62733SOL     OW90030   6.359   3.896   0.480
62733SOL    HW190031   6.392   3.926   0.565
62733SOL    HW290032   6.282   3.843   0.502
62734SOL     OW90033  14.505   9.551  13.487
62734SOL    HW190034  14.559   9.626  13.513
62734SOL    HW290035  14.517   9.544  13.392
62735SOL     OW90036  10.869  14.310  11.913
62735SOL    HW190037  10.869  14.279  11.822
62735SOL    HW290038  10.832  14.398  11.908
62736SOL     OW90039   2.704   1.704   0.269
62736SOL    HW190040   2.664   1.731   0.186
62736SOL    HW290041   2.683   1.610   0.276
62737SOL     OW90042   3.177   0.233  10.333
62737SOL    HW190043   3.134   0.307  10.376
62737SOL    HW290044   3.163   0.248  10.239
62738SOL     OW90045   1.884   2.556  11.234
62738SOL    HW190046   1.797   2.516  11.227
62738SOL    HW290047   1.932   2.498  11.293
62739SOL     OW90048  11.230   9.789   1.273
62739SOL    HW190049  11.256   9.775   1.364
62739SOL    HW290050  11.235   9.884   1.261
62740SOL     OW90051   5.183   0.798  10.617
62740SOL    HW190052   5.219   0.733  10.557
62740SOL    HW290053   5.138   0.746  10.684
62741SOL     OW90054   8.383   6.212   6.375
62741SOL    HW190055   8.437   6.143   6.414
62741SOL    HW290056   8.388   6.196   6.281
62742SOL     OW90057  13.079   7.668   6.307
62742SOL    HW190058  13.080   7.763   6.299
62742SOL    HW290059  13.029   7.638   6.231
62743SOL     OW90060   0.643   5.725  10.651
62743SOL    HW190061   0.704   5.799  10.650
62743SOL    HW290062   0.688   5.658  10.703
62744SOL     OW90063  12.171   9.698   6.169
62744SOL    HW190064  12.201   9.785   6.142
62744SOL    HW290065  12.084   9.690   6.130
62745SOL     OW90066   4.224   3.552  11.103
62745SOL    HW190067   4.172   3.548  11.023
62745SOL    HW290068   4.204   3.470  11.149
62746SOL     OW90069   7.690   4.771   7.758
62746SOL    HW190070   7.681   4.843   7.696
62746SOL    HW290071   7.651   4.696   7.713
62747SOL     OW90072  14.161   0.438  13.531
62747SOL    HW190073  14.252   0.438  13.501
62747SOL    HW290074  14.121   0.511  13.483
62748SOL     OW90075   2.839   8.018   2.745
62748SOL    HW190076   2.912   8.060   2.698
62748SOL    HW290077   2.827   7.934   2.701
62749SOL     OW90078  11.909  11.517   0.762
62749SOL    HW190079  11.973  11.580   0.730
62749SOL    HW290080  11.830  11.569   0.777
62750SOL     OW90081   1.818   8.848   9.045
62750SOL    HW190082   1.836   8.755   9.055
62750SOL    HW290083   1.891   8.892   9.088
62751SOL     OW90084   5.826   5.586   0.171
62751SOL    HW190085   5.781   5.653   0.120
62751SOL    HW290086   5.880   5.634   0.233
62752SOL     OW90087   5.671  14.388   7.923
62752SOL    HW190088   5.578  14.399   7.901
62752SOL    HW290089   5.708  14.342   7.848
62753SOL     OW90090   9.737  12.099   8.443
62753SOL    HW190091   9.730  12.025   8.504
62753SOL    HW290092   9.693  12.171   8.487
62754SOL     OW90093   2.816   3.945   9.098
62754SOL    HW190094   2.835   3.861   9.141
62754SOL    HW290095   2.727   3.934   9.063
62755SOL     OW90096   8.331   7.285   2.280
62755SOL    HW190097   8.353   7.371   2.316
62755SOL    HW290098   8.388   7.277   2.203
62756SOL     OW90099  12.209   0.475   1.762
62756SOL    HW190100  12.190   0.483   1.669
62756SOL    HW290101  12.294   0.518   1.774
62757SOL     OW90102   4.766  13.448   9.226
62757SOL    HW190103   4.799  13.465   9.138
62757SOL    HW290104   4.737  13.357   9.224
62758SOL     OW90105   7.139   3.357  12.063
62758SOL    HW190106   7.077   3.305  12.013
62758SOL    HW290107   7.223   3.344  12.019
62759SOL     OW90108   2.049   6.346   6.803
62759SOL    HW190109   2.130   6.297   6.815
62759SOL    HW290110   1.983   6.279   6.780
62760SOL     OW90111   5.940   4.897   8.935
62760SOL    HW190112   5.962   4.987   8.910
62760SOL    HW290113   5.900   4.906   9.022
62761SOL     OW90114   2.390  14.271   5.237
62761SOL    HW190115   2.402  14.309   5.324
62761SOL    HW290116   2.296  14.254   5.232
62762SOL     OW90117   8.817  11.531   1.858
62762SOL    HW190118   8.825  11.520   1.763
62762SOL    HW290119   8.733  11.491   1.880
62763SOL     OW90120   8.749   2.678   6.901
62763SOL    HW190121   8.667   2.628   6.908
62763SOL    HW290122   8.721   2.769   6.906
62764SOL     OW90123   4.572   3.230   7.853
62764SOL    HW190124   4.539   3.286   7.783
62764SOL    HW290125   4.667   3.230   7.841
62765SOL     OW90126   6.123  12.598   0.088
62765SOL    HW190127   6.032  12.629   0.091
62765SOL    HW290128   6.131  12.542   0.166
62766SOL     OW90129   4.675   4.975  14.701
62766SOL    HW190130   4.587   4.968  14.663
62766SOL    HW290131   4.663   5.029  14.779
62767SOL     OW90132   2.790   1.154   2.762
62767SOL    HW190133   2.833   1.083   2.715
62767SOL    HW290134   2.733   1.111   2.825
62768SOL     OW90135   5.149   7.786   9.354
62768SOL    HW190136   5.198   7.746   9.426
62768SOL    HW290137   5.194   7.870   9.339
62769SOL     OW90138  11.615   4.451  11.682
62769SOL    HW190139  11.568   4.368  11.691
62769SOL    HW290140  11.697   4.428  11.639
62770SOL     OW90141   0.757  14.199  12.341
62770SOL    HW190142   0.666  14.226  12.351
62770SOL    HW290143   0.758  14.107  12.368
62771SOL     OW90144  14.529   2.178  10.143
62771SOL    HW190145  14.461   2.225  10.094
62771SOL    HW290146  14.608   2.230  10.130
62772SOL     OW90147   6.271   9.076  12.237
62772SOL    HW190148   6.207   9.087  12.307
62772SOL    HW290149   6.329   9.007  12.268
62773SOL     OW90150   5.499   8.962  13.951
62773SOL    HW190151   5.516   8.926  14.038
62773SOL    HW290152   5.541   9.048  13.953
62774SOL     OW90153   5.988  14.275   2.551
62774SOL    HW190154   5.895  14.297   2.547
62774SOL    HW290155   6.031  14.357   2.576
62775SOL     OW90156   6.388   0.056   7.606
62775SOL    HW190157   6.386   0.032   7.698
62775SOL    HW290158   6.321   0.124   7.597
62776SOL     OW90159  11.439   9.755  14.368
62776SOL    HW190160  11.404   9.757  14.457
62776SOL    HW290161  11.450   9.848  14.345
62777SOL     OW90162   8.742   9.004   0.842
62777SOL    HW190163   8.793   8.927   0.814
62777SOL    HW290164   8.744   9.063   0.767
62778SOL     OW90165  10.558  11.521   2.798
62778SOL    HW190166  10.560  11.614   2.818
62778SOL    HW290167  10.634  11.484   2.843
62779SOL     OW90168   9.403   6.030   7.069
62779SOL    HW190169   9.445   5.947   7.092
62779SOL    HW290170   9.407   6.033   6.973
62780SOL     OW90171   8.429  11.684   5.966
62780SOL    HW190172   8.446  11.616   6.031
62780SOL    HW290173   8.514  11.726   5.952
62781SOL     OW90174   7.236   2.254   3.726
62781SOL    HW190175   7.329   2.235   3.734
62781SOL    HW290176   7.208   2.208   3.647
62782SOL     OW90177   9.854   3.032   6.800
62782SOL    HW190178   9.905   3.110   6.819
62782SOL    HW290179   9.777   3.039   6.857
62783SOL     OW90180   8.706   4.469  11.984
62783SOL    HW190181   8.640   4.526  12.024
62783SOL    HW290182   8.687   4.473  11.890
62784SOL     OW90183   4.757   5.626   2.429
62784SOL    HW190184   4.853   5.628   2.434
62784SOL    HW290185   4.734   5.533   2.432
62785SOL     OW90186   8.247   6.492  12.609
62785SOL    HW190187   8.156   6.504  12.581
62785SOL    HW290188   8.299   6.506  12.530
62786SOL     OW90189  12.852   8.562   5.902
62786SOL    HW190190  12.934   8.605   5.923
62786SOL    HW290191  12.784   8.625   5.929
62787SOL     OW90192  12.509   5.485   3.029
62787SOL    HW190193  12.469   5.560   3.073
62787SOL    HW290194  12.508   5.415   3.094
62788SOL     OW90195   4.033   9.346   1.949
62788SOL    HW190196   4.007   9.315   2.035
62788SOL    HW290197   4.014   9.439   1.949
62789SOL     OW90198   3.654   4.115  11.345
62789SOL    HW190199   3.629   4.188  11.288
62789SOL    HW290200   3.742   4.137  11.375
62790SOL     OW90201   1.639  12.728   7.024
62790SOL    HW190202   1.683  12.683   7.096
62790SOL    HW290203   1.660  12.675   6.947
62791SOL     OW90204  11.889   2.424  10.170
62791SOL    HW190205  11.836   2.431  10.249
62791SOL    HW290206  11.826   2.409  10.099
62792SOL     OW90207  11.165  12.982  12.639
62792SOL    HW190208  11.226  13.035  12.587
62792SOL    HW290209  11.200  12.985  12.728
62793SOL     OW90210  13.705   7.285  11.394
62793SOL    HW190211  13.773   7.347  11.366
62793SOL    HW290212  13.750   7.201  11.398
62794SOL     OW90213  11.804   1.333   7.256
62794SOL    HW190214  11.766   1.377   7.332
62794SOL    HW290215  11.729   1.307   7.203
62795SOL     OW90216  11.401   4.513   0.342
62795SOL    HW190217  11.411   4.486   0.434
62795SOL    HW290218  11.473   4.574   0.327
62796SOL     OW90219  13.408  10.459  14.027
62796SOL    HW190220  13.384  10.540  13.983
62796SOL    HW290221  13.498  10.442  13.997
62797SOL     OW90222  13.676  11.048   2.703
62797SOL    HW190223  13.586  11.077   2.686
62797SOL    HW290224  13.666  10.974   2.764
62798SOL     OW90225   8.615   7.074   7.106
62798SOL    HW190226   8.562   7.117   7.038
62798SOL    HW290227   8.657   7.001   7.060
62799SOL     OW90228  11.673   8.835  12.450
62799SOL    HW190229  11.758   8.827  12.407
62799SOL    HW290230  11.611   8.801  12.386
62800SOL     OW90231  14.069   2.390   3.526
62800SOL    HW190232  14.004   2.450   3.489
62800SOL    HW290233  14.148   2.406   3.474
62801SOL     OW90234   8.680   9.517  13.937
62801SOL    HW190235   8.737   9.468  13.997
62801SOL    HW290236   8.596   9.471  13.941
62802SOL     OW90237   6.523   7.914   4.885
62802SOL    HW190238   6.460   7.973   4.843
62802SOL    HW290239   6.469   7.848   4.928
62803SOL     OW90240   0.398   8.895   0.718
62803SOL    HW190241   0.382   8.969   0.777
62803SOL    HW290242   0.470   8.924   0.662
62804SOL     OW90243   5.033   1.713  13.381
62804SOL    HW190244   5.055   1.629  13.422
62804SOL    HW290245   4.941   1.705  13.358
62805SOL     OW90246   1.995  10.356   1.374
62805SOL    HW190247   1.922  10.398   1.421
62805SOL    HW290248   1.986  10.387   1.284
62806SOL     OW90249   9.098  10.216  12.154
62806SOL    HW190250   9.003  10.224  12.163
62806SOL    HW290251   9.110  10.140  12.097
62807SOL     OW90252   9.948   2.830   6.640
62807SOL    HW190253   9.921   2.917   6.670
62807SOL    HW290254  10.010   2.799   6.706
62808SOL     OW90255   3.076   3.762   5.230
62808SOL    HW190256   3.011   3.734   5.294
62808SOL    HW290257   3.127   3.683   5.212
62809SOL     OW90258  11.386  10.903   6.114
62809SOL    HW190259  11.378  10.958   6.035
62809SOL    HW290260  11.472  10.862   6.105
62810SOL     OW90261   8.196   1.255   1.445
62810SOL    HW190262   8.108   1.238   1.478
62810SOL    HW290263   8.203   1.351   1.443
62811SOL     OW90264   3.810  12.469   4.440
62811SOL    HW190265   3.838  12.503   4.355
62811SOL    HW290266   3.885  12.481   4.497
62812SOL     OW90267  10.918  14.571   8.929
62812SOL    HW190268  10.848  14.556   8.992
62812SOL    HW290269  10.873  14.578   8.844
62813SOL     OW90270   4.379   7.953  11.974
62813SOL    HW190271   4.370   7.910  12.059
62813SOL    HW290272   4.421   7.887  11.918
62814SOL     OW90273   3.878   9.579   1.655
62814SOL    HW190274   3.970   9.595   1.675
62814SOL    HW290275   3.879   9.502   1.598
62815SOL     OW90276  14.658   2.336   1.016
62815SOL    HW190277  14.625   2.310   0.930
62815SOL    HW290278  14.587   2.316   1.077
62816SOL     OW90279   1.799   1.931   7.966
62816SOL    HW190280   1.821   1.996   8.033
62816SOL    HW290281   1.829   1.848   8.003
62817SOL     OW90282   1.291   0.371   5.857
62817SOL    HW190283   1.311   0.281   5.831
62817SOL    HW290284   1.213   0.394   5.806
62818SOL     OW90285   5.848   3.407   2.717
62818SOL    HW190286   5.786   3.348   2.674
62818SOL    HW290287   5.794   3.478   2.752
62819SOL     OW90288   7.574  13.511   3.328
62819SOL    HW190289   7.510  13.567   3.282
62819SOL    HW290290   7.532  13.426   3.333
62820SOL     OW90291   0.386  12.630  11.711
62820SOL    HW190292   0.337  12.640  11.792
62820SOL    HW290293   0.422  12.542  11.714
62821SOL     OW90294  11.435   0.390  10.001
62821SOL    HW190295  11.375   0.413   9.929
62821SOL    HW290296  11.472   0.473  10.030
62822SOL     OW90297   9.071  10.414   0.383
62822SOL    HW190298   9.061  10.404   0.477
62822SOL    HW290299   9.166  10.410   0.368
62823SOL     OW90300   6.081   5.168   3.794
62823SOL    HW190301   6.149   5.109   3.828
62823SOL    HW290302   6.012   5.110   3.763
62824SOL     OW90303  10.897   1.843   1.237
62824SOL    HW190304  10.857   1.928   1.255
62824SOL    HW290305  10.991   1.859   1.242
62825SOL     OW90306   8.227   0.110   9.739
62825SOL    HW190307   8.155   0.104   9.801
62825SOL    HW290308   8.239   0.203   9.723
62826SOL     OW90309   9.734   5.523   2.168
62826SOL    HW190310   9.810   5.478   2.204
62826SOL    HW290311   9.760   5.550   2.080
62827SOL     OW90312   4.510  10.743   3.426
62827SOL    HW190313   4.502  10.815   3.488
62827SOL    HW290314   4.432  10.750   3.370
62828SOL     OW90315   5.795  14.601   4.086
62828SOL    HW190316   5.841  14.675   4.047
62828SOL    HW290317   5.718  14.589   4.030
62829SOL     OW90318   6.653   1.569  13.752
62829SOL    HW190319   6.622   1.483  13.723
62829SOL    HW290320   6.579   1.628  13.737
62830SOL     OW90321  10.703   9.183   5.956
62830SOL    HW190322  10.663   9.268   5.935
62830SOL    HW290323  10.796   9.194   5.936
62831SOL     OW90324   7.911   3.752   5.218
62831SOL    HW190325   7.934   3.836   5.179
62831SOL    HW290326   7.994   3.717   5.250
62832SOL     OW90327   8.414   1.693   4.545
62832SOL    HW190328   8.465   1.646   4.479
62832SOL    HW290329   8.406   1.782   4.512
62833SOL     OW90330   5.418   5.809   4.971
62833SOL    HW190331   5.352   5.756   4.926
62833SOL    HW290332   5.389   5.899   4.957
62834SOL     OW90333   9.562  10.234  13.263
62834SOL    HW190334   9.607  10.315  13.239
62834SOL    HW290335   9.547  10.241  13.357
62835SOL     OW90336  10.229  10.617   1.150
62835SOL    HW190337  10.216  10.691   1.090
62835SOL    HW290338  10.160  10.554   1.126
62836SOL     OW90339  10.177   7.584   7.326
62836SOL    HW190340  10.181   7.679   7.329
62836SOL    HW290341  10.092   7.564   7.287
62837SOL     OW90342   6.357   1.795  11.254
62837SOL    HW190343   6.271   1.810  11.291
62837SOL    HW290344   6.407   1.874  11.275
62838SOL     OW90345  13.566   9.900  11.824
62838SOL    HW190346  13.511   9.975  11.845
62838SOL    HW290347  13.556   9.889  11.729
62839SOL     OW90348  13.791   9.713  10.897
62839SOL    HW190349  13.795   9.619  10.882
62839SOL    HW290350  13.882   9.741  10.904
62840SOL     OW90351   1.590   4.429   0.898
62840SOL    HW190352   1.601   4.412   0.804
62840SOL    HW290353   1.679   4.425   0.934
62841SOL     OW90354   4.537   9.613   2.856
62841SOL    HW190355   4.458   9.665   2.873
62841SOL    HW290356   4.507   9.522   2.855
62842SOL     OW90357   5.941   5.338  13.611
62842SOL    HW190358   5.880   5.411  13.604
62842SOL    HW290359   6.027   5.379  13.617
62843SOL     OW90360   4.000   8.006   5.020
62843SOL    HW190361   4.031   7.919   4.995
62843SOL    HW290362   3.985   8.001   5.114
62844SOL     OW90363  13.556   3.389  13.232
62844SOL    HW190364  13.546   3.310  13.179
62844SOL    HW290365  13.511   3.369  13.314
62845SOL     OW90366   6.534   9.313   2.735
62845SOL    HW190367   6.555   9.376   2.667
62845SOL    HW290368   6.496   9.365   2.806
62846SOL     OW90369   3.417  14.872   6.499
62846SOL    HW190370   3.480  14.800   6.502
62846SOL    HW290371   3.382   0.001   6.588
62847SOL     OW90372  12.753  14.076   3.099
62847SOL    HW190373  12.719  14.005   3.045
62847SOL    HW290374  12.840  14.045   3.127
62848SOL     OW90375  10.031   6.609  13.712
62848SOL    HW190376  10.062   6.518  13.710
62848SOL    HW290377   9.945   6.605  13.670
62849SOL     OW90378   1.754   0.438   4.729
62849SOL    HW190379   1.741   0.414   4.820
62849SOL    HW290380   1.770   0.532   4.731
62850SOL     OW90381  12.925  10.185   2.402
62850SOL    HW190382  12.890  10.216   2.318
62850SOL    HW290383  12.855  10.130   2.439
62851SOL     OW90384   2.127  11.065   0.769
62851SOL    HW190385   2.216  11.046   0.800
62851SOL    HW290386   2.139  11.099   0.681
62852SOL     OW90387   6.881   2.091  11.195
62852SOL    HW190388   6.896   2.177  11.232
62852SOL    HW290389   6.811   2.053  11.249
62853SOL     OW90390  14.199   8.690   6.291
62853SOL    HW190391  14.290   8.663   6.307
62853SOL    HW290392  14.200   8.785   6.303
62854SOL     OW90393   3.569  10.911   2.051
62854SOL    HW190394   3.661  10.928   2.074
62854SOL    HW290395   3.574  10.850   1.978
62855SOL     OW90396   9.588  13.600   8.513
62855SOL    HW190397   9.669  13.649   8.493
62855SOL    HW290398   9.573  13.547   8.435
62856SOL     OW90399   8.862   3.610   4.228
62856SOL    HW190400   8.799   3.681   4.235
62856SOL    HW290401   8.809   3.532   4.209
62857SOL     OW90402  12.678   3.165  14.403
62857SOL    HW190403  12.712   3.104  14.469
62857SOL    HW290404  12.709   3.131  14.319
62858SOL     OW90405  12.367   4.348  13.575
62858SOL    HW190406  12.429   4.417  13.599
62858SOL    HW290407  12.411   4.299  13.506
62859SOL     OW90408   1.995  12.432   7.865
62859SOL    HW190409   1.952  12.371   7.805
62859SOL    HW290410   2.032  12.500   7.808
62860SOL     OW90411   9.699   3.976   5.150
62860SOL    HW190412   9.794   3.981   5.157
62860SOL    HW290413   9.673   3.907   5.211
62861SOL     OW90414   4.695   3.442  12.599
62861SOL    HW190415   4.615   3.409  12.639
62861SOL    HW290416   4.684   3.537  12.598
62862SOL     OW90417   7.883   8.600  11.143
62862SOL    HW190418   7.856   8.632  11.229
62862SOL    HW290419   7.855   8.508  11.142
62863SOL     OW90420   5.839   2.505  11.541
62863SOL    HW190421   5.748   2.484  11.563
62863SOL    HW290422   5.835   2.592  11.500
62864SOL     OW90423   6.168  11.287   1.299
62864SOL    HW190424   6.209  11.356   1.352
62864SOL    HW290425   6.126  11.334   1.227
62865SOL     OW90426   7.131   0.666   2.010
62865SOL    HW190427   7.220   0.637   2.030
62865SOL    HW290428   7.078   0.587   2.011
62866SOL     OW90429   8.103  10.127  12.213
62866SOL    HW190430   8.124  10.079  12.133
62866SOL    HW290431   8.140  10.214  12.200
62867SOL     OW90432  14.778   1.711  10.227
62867SOL    HW190433  14.705   1.680  10.280
62867SOL    HW290434  14.745   1.789  10.183
62868SOL     OW90435  10.078   1.390   7.469
62868SOL    HW190436  10.006   1.453   7.464
62868SOL    HW290437  10.071   1.338   7.389
62869SOL     OW90438   7.362  13.156  12.817
62869SOL    HW190439   7.319  13.071  12.804
62869SOL    HW290440   7.291  13.214  12.845
62870SOL     OW90441   4.610   6.134   7.568
62870SOL    HW190442   4.530   6.139   7.515
62870SOL    HW290443   4.655   6.216   7.551
62871SOL     OW90444  11.991   7.776   9.965
62871SOL    HW190445  12.032   7.862   9.976
62871SOL    HW290446  12.052   7.727   9.909
62872SOL     OW90447   5.386   5.791  11.385
62872SOL    HW190448   5.359   5.718  11.329
62872SOL    HW290449   5.481   5.779  11.395
62873SOL     OW90450   8.215   3.373  13.859
62873SOL    HW190451   8.215   3.318  13.938
62873SOL    HW290452   8.123   3.400  13.849
62874SOL     OW90453   1.686   1.584   8.254
62874SOL    HW190454   1.680   1.610   8.162
62874SOL    HW290455   1.612   1.525   8.267
62875SOL     OW90456   0.927  10.987   8.942
62875SOL    HW190457   0.996  10.942   8.990
62875SOL    HW290458   0.899  11.057   9.001
62876SOL     OW90459  10.428   6.334   9.070
62876SOL    HW190460  10.363   6.362   9.135
62876SOL    HW290461  10.419   6.397   8.999
62877SOL     OW90462   6.366   7.188   7.048
62877SOL    HW190463   6.274   7.212   7.037
62877SOL    HW290464   6.402   7.257   7.104
62878SOL     OW90465  10.129  14.701  10.921
62878SOL    HW190466  10.194  14.706  10.991
62878SOL    HW290467  10.089  14.788  10.919
62879SOL     OW90468   7.913  10.225   2.312
62879SOL    HW190469   7.846  10.187   2.255
62879SOL    HW290470   7.933  10.156   2.375
62880SOL     OW90471  13.044   7.677  10.085
62880SOL    HW190472  13.106   7.605  10.076
62880SOL    HW290473  12.960   7.634  10.104
62881SOL     OW90474   6.740   1.217   1.504
62881SOL    HW190475   6.828   1.229   1.539
62881SOL    HW290476   6.686   1.281   1.551
62882SOL     OW90477  13.270   6.138  14.854
62882SOL    HW190478  13.292   6.147  14.761
62882SOL    HW290479  13.310   6.215   0.020
62883SOL     OW90480  12.947   6.069   0.473
62883SOL    HW190481  13.040   6.071   0.451
62883SOL    HW290482  12.937   6.137   0.539
62884SOL     OW90483   3.731   3.904   7.924
62884SOL    HW190484   3.706   3.852   8.000
62884SOL    HW290485   3.653   3.904   7.868
62885SOL     OW90486   3.192  12.222   7.960
62885SOL    HW190487   3.166  12.297   7.905
62885SOL    HW290488   3.150  12.147   7.919
62886SOL     OW90489   4.516   9.794  12.657
62886SOL    HW190490   4.462   9.715  12.659
62886SOL    HW290491   4.466   9.856  12.603
62887SOL     OW90492   5.037  14.859   2.573
62887SOL    HW190493   5.125   0.022   2.576
62887SOL    HW290494   5.005   0.004   2.485
62888SOL     OW90495   7.119  14.059   5.990
62888SOL    HW190496   7.112  14.089   6.081
62888SOL    HW290497   7.194  14.000   5.990
62889SOL     OW90498   0.099  13.662   4.288
62889SOL    HW190499   0.145  13.606   4.226
62889SOL    HW290500   0.006  13.650   4.268
62890SOL     OW90501  13.787  11.205   0.003
62890SOL    HW190502  13.745  11.205  14.793
62890SOL    HW290503  13.716  11.187   0.064
62891SOL     OW90504  12.913  10.504  14.193
62891SOL    HW190505  12.869  10.463  14.118
62891SOL    HW290506  12.899  10.442  14.265
62892SOL     OW90507   5.213  13.347   4.428
62892SOL    HW190508   5.187  13.271   4.376
62892SOL    HW290509   5.134  13.401   4.432
62893SOL     OW90510   3.253   3.387   3.753
62893SOL    HW190511   3.181   3.340   3.795
62893SOL    HW290512   3.266   3.464   3.807
62894SOL     OW90513   4.076  14.492   2.779
62894SOL    HW190514   4.098  14.574   2.733
62894SOL    HW290515   4.005  14.454   2.727
62895SOL     OW90516  12.480   6.913  14.729
62895SOL    HW190517  12.481   6.820  14.755
62895SOL    HW290518  12.407   6.920  14.667
62896SOL     OW90519   0.511   3.281   9.841
62896SOL    HW190520   0.461   3.327   9.774
62896SOL    HW290521   0.484   3.189   9.833
62897SOL     OW90522  12.752   0.922  10.917
62897SOL    HW190523  12.701   0.934  10.837
62897SOL    HW290524  12.687   0.891  10.981
62898SOL     OW90525   4.759   9.521  11.178
62898SOL    HW190526   4.714   9.550  11.098
62898SOL    HW290527   4.834   9.580  11.185
62899SOL     OW90528   5.222   0.204   5.002
62899SOL    HW190529   5.279   0.128   4.989
62899SOL    HW290530   5.178   0.188   5.085
62900SOL     OW90531   6.915  13.421   4.606
62900SOL    HW190532   6.939  13.335   4.572
62900SOL    HW290533   6.993  13.475   4.594
62901SOL     OW90534   2.713   9.613  14.430
62901SOL    HW190535   2.676   9.553  14.365
62901SOL    HW290536   2.748   9.555  14.499
62902SOL     OW90537   7.096  12.632   7.164
62902SOL    HW190538   7.152  12.555   7.168
62902SOL    HW290539   7.154  12.705   7.187
62903SOL     OW90540   9.184  13.810  12.403
62903SOL    HW190541   9.168  13.876  12.470
62903SOL    HW290542   9.259  13.760  12.436
62904SOL     OW90543   2.252  13.705   0.100
62904SOL    HW190544   2.206  13.777   0.143
62904SOL    HW290545   2.320  13.679   0.162
62905SOL     OW90546  13.211   0.512   4.765
62905SOL    HW190547  13.231   0.581   4.701
62905SOL    HW290548  13.282   0.516   4.828
62906SOL     OW90549   7.467  11.226  14.398
62906SOL    HW190550   7.431  11.288  14.335
62906SOL    HW290551   7.403  11.155  14.402
62907SOL     OW90552   7.427   3.043   6.986
62907SOL    HW190553   7.474   3.117   6.949
62907SOL    HW290554   7.460   2.967   6.939
62908SOL     OW90555   2.616  11.429   6.699
62908SOL    HW190556   2.656  11.367   6.760
62908SOL    HW290557   2.531  11.449   6.737
62909SOL     OW90558   6.661  11.831   7.850
62909SOL    HW190559   6.723  11.866   7.915
62909SOL    HW290560   6.658  11.897   7.781
62910SOL     OW90561   3.047   7.161  12.869
62910SOL    HW190562   3.054   7.117  12.954
62910SOL    HW290563   3.099   7.106  12.810
62911SOL     OW90564   6.541   2.801  13.136
62911SOL    HW190565   6.527   2.750  13.215
62911SOL    HW290566   6.584   2.881  13.166
62912SOL     OW90567   4.568   8.363   0.253
62912SOL    HW190568   4.623   8.353   0.176
62912SOL    HW290569   4.622   8.334   0.326
62913SOL     OW90570   6.372  14.741  13.050
62913SOL    HW190571   6.285  14.717  13.018
62913SOL    HW290572   6.427  14.665  13.026
62914SOL     OW90573  12.486   6.029  11.833
62914SOL    HW190574  12.469   6.122  11.849
62914SOL    HW290575  12.524   5.998  11.916
62915SOL     OW90576   8.966   2.790  13.416
62915SOL    HW190577   9.015   2.860  13.373
62915SOL    HW290578   8.886   2.781  13.364
62916SOL     OW90579   9.910  11.565  10.611
62916SOL    HW190580   9.999  11.537  10.628
62916SOL    HW290581   9.898  11.642  10.667
62917SOL     OW90582   6.500   2.073   9.200
62917SOL    HW190583   6.490   2.095   9.293
62917SOL    HW290584   6.452   2.141   9.154
62918SOL     OW90585   0.039   5.905  10.835
62918SOL    HW190586   0.029   5.978  10.895
62918SOL    HW290587   0.107   5.933  10.774
62919SOL     OW90588   6.547  10.248   5.577
62919SOL    HW190589   6.479  10.315   5.584
62919SOL    HW290590   6.513  10.174   5.627
62920SOL     OW90591   0.434   5.889  10.694
62920SOL    HW190592   0.424   5.944  10.616
62920SOL    HW290593   0.499   5.823  10.669
62921SOL     OW90594   3.111   5.191   0.430
62921SOL    HW190595   3.157   5.200   0.346
62921SOL    HW290596   3.070   5.105   0.425
62922SOL     OW90597   1.649   2.895   2.256
62922SOL    HW190598   1.574   2.916   2.312
62922SOL    HW290599   1.716   2.958   2.281
62923SOL     OW90600  13.613   2.639  13.330
62923SOL    HW190601  13.702   2.671  13.318
62923SOL    HW290602  13.591   2.660  13.420
62924SOL     OW90603   7.542  11.910   1.369
62924SOL    HW190604   7.604  11.882   1.301
62924SOL    HW290605   7.597  11.936   1.442
62925SOL     OW90606   7.667  13.188   9.329
62925SOL    HW190607   7.601  13.230   9.274
62925SOL    HW290608   7.725  13.143   9.267
62926SOL     OW90609   3.066   5.283  12.847
62926SOL    HW190610   3.048   5.343  12.919
62926SOL    HW290611   2.995   5.297  12.785
62927SOL     OW90612   4.596   0.770   5.685
62927SOL    HW190613   4.556   0.772   5.772
62927SOL    HW290614   4.597   0.861   5.657
62928SOL     OW90615   5.277   0.361   8.042
62928SOL    HW190616   5.186   0.369   8.016
62928SOL    HW290617   5.278   0.290   8.107
62929SOL     OW90618   7.497   7.178  14.064
62929SOL    HW190619   7.456   7.110  14.117
62929SOL    HW290620   7.434   7.250  14.063
62930SOL     OW90621  10.644  11.904  12.067
62930SOL    HW190622  10.601  11.948  12.141
62930SOL    HW290623  10.587  11.829  12.048
62931SOL     OW90624   0.992   4.344   3.360
62931SOL    HW190625   1.083   4.313   3.362
62931SOL    HW290626   0.996   4.432   3.397
62932SOL     OW90627  12.471   1.595   6.392
62932SOL    HW190628  12.394   1.624   6.440
62932SOL    HW290629  12.545   1.631   6.441
62933SOL     OW90630   4.155   9.792   2.325
62933SOL    HW190631   4.178   9.700   2.317
62933SOL    HW290632   4.233   9.834   2.362
62934SOL     OW90633   1.403   7.484   7.344
62934SOL    HW190634   1.492   7.453   7.325
62934SOL    HW290635   1.361   7.489   7.258
62935SOL     OW90636  14.357  11.813   1.226
62935SOL    HW190637  14.348  11.908   1.224
62935SOL    HW290638  14.441  11.797   1.270
62936SOL     OW90639   0.998  11.732   2.134
62936SOL    HW190640   0.911  11.771   2.126
62936SOL    HW290641   1.046  11.793   2.189
62937SOL     OW90642  13.962  11.968   3.633
62937SOL    HW190643  13.974  11.971   3.538
62937SOL    HW290644  13.938  11.877   3.651
62938SOL     OW90645   8.887   2.048  12.714
62938SOL    HW190646   8.919   2.077  12.799
62938SOL    HW290647   8.927   1.961  12.702
62939SOL     OW90648   6.248   2.793   8.924
62939SOL    HW190649   6.259   2.888   8.924
62939SOL    HW290650   6.153   2.780   8.925
62940SOL     OW90651   9.857   1.040   9.609
62940SOL    HW190652   9.923   1.032   9.678
62940SOL    HW290653   9.851   0.952   9.572
62941SOL     OW90654  14.409   7.884  10.392
62941SOL    HW190655  14.461   7.962  10.413
62941SOL    HW290656  14.473   7.812  10.395
62942SOL     OW90657   5.132   7.347   4.848
62942SOL    HW190658   5.205   7.286   4.831
62942SOL    HW290659   5.114   7.336   4.942
62943SOL     OW90660   0.505   6.120   4.436
62943SOL    HW190661   0.457   6.196   4.469
62943SOL    HW290662   0.447   6.046   4.451
62944SOL     OW90663   0.598  11.162   0.367
62944SOL    HW190664   0.562  11.076   0.345
62944SOL    HW290665   0.529  11.205   0.417
62945SOL     OW90666  11.576  13.300   0.913
62945SOL    HW190667  11.634  13.337   0.846
62945SOL    HW290668  11.524  13.374   0.943
62946SOL     OW90669   9.227  10.780   7.509
62946SOL    HW190670   9.231  10.701   7.564
62946SOL    HW290671   9.192  10.749   7.426
62947SOL     OW90672  11.087   3.287   5.982
62947SOL    HW190673  11.122   3.222   6.044
62947SOL    HW290674  11.049   3.234   5.912
62948SOL     OW90675   8.238   0.502   1.457
62948SOL    HW190676   8.159   0.447   1.458
62948SOL    HW290677   8.269   0.501   1.548
62949SOL     OW90678  14.827   6.793  11.086
62949SOL    HW190679  14.856   6.843  11.162
62949SOL    HW290680  14.732   6.790  11.093
62950SOL     OW90681  10.594   9.409  11.924
62950SOL    HW190682  10.582   9.364  12.007
62950SOL    HW290683  10.536   9.364  11.863
62951SOL     OW90684   6.891   0.998   0.512
62951SOL    HW190685   6.877   0.919   0.460
62951SOL    HW290686   6.977   1.030   0.485
62952SOL     OW90687   7.457  11.914   0.365
62952SOL    HW190688   7.507  11.858   0.306
62952SOL    HW290689   7.524  11.957   0.419
62953SOL     OW90690  14.708   8.657  11.383
62953SOL    HW190691  14.767   8.582  11.372
62953SOL    HW290692  14.628   8.630  11.338
62954SOL     OW90693  11.611   1.829  12.083
62954SOL    HW190694  11.681   1.772  12.049
62954SOL    HW290695  11.531   1.780  12.065
62955SOL     OW90696   2.620  12.940   0.880
62955SOL    HW190697   2.526  12.958   0.883
62955SOL    HW290698   2.625  12.844   0.870
62956SOL     OW90699   2.844   8.796   9.553
62956SOL    HW190700   2.909   8.726   9.547
62956SOL    HW290701   2.879   8.855   9.620
62957SOL     OW90702   0.572   1.515   3.475
62957SOL    HW190703   0.627   1.437   3.470
62957SOL    HW290704   0.538   1.526   3.386
62958SOL     OW90705   3.411   4.507   3.023
62958SOL    HW190706   3.356   4.538   3.095
62958SOL    HW290707   3.359   4.523   2.944
62959SOL     OW90708   0.857  11.490   2.977
62959SOL    HW190709   0.775  11.443   2.988
62959SOL    HW290710   0.904  11.475   3.059
62960SOL     OW90711   8.571   4.340   3.122
62960SOL    HW190712   8.563   4.342   3.217
62960SOL    HW290713   8.484   4.315   3.090
62961SOL     OW90714   4.601  10.373   5.390
62961SOL    HW190715   4.558  10.303   5.438
62961SOL    HW290716   4.566  10.454   5.429
62962SOL     OW90717   2.519  12.733  12.438
62962SOL    HW190718   2.607  12.770  12.430
62962SOL    HW290719   2.518  12.662  12.374
62963SOL     OW90720   9.335  10.715   4.325
62963SOL    HW190721   9.338  10.689   4.233
62963SOL    HW290722   9.268  10.658   4.364
62964SOL     OW90723   0.742  13.634   0.045
62964SOL    HW190724   0.742  13.547   0.086
62964SOL    HW290725   0.767  13.693   0.116
62965SOL     OW90726  12.763   2.050   1.438
62965SOL    HW190727  12.813   2.023   1.515
62965SOL    HW290728  12.677   2.076   1.473
62966SOL     OW90729   4.476   8.080   9.200
62966SOL    HW190730   4.545   8.144   9.183
62966SOL    HW290731   4.496   8.007   9.141
62967SOL     OW90732   8.567   3.169  13.150
62967SOL    HW190733   8.571   3.215  13.234
62967SOL    HW290734   8.474   3.156  13.135
62968SOL     OW90735  13.225  13.492   1.402
62968SOL    HW190736  13.239  13.471   1.310
62968SOL    HW290737  13.136  13.526   1.406
62969SOL     OW90738  13.059  11.360  12.247
62969SOL    HW190739  13.073  11.426  12.179
62969SOL    HW290740  13.117  11.288  12.223
62970SOL     OW90741   1.815  14.233  10.653
62970SOL    HW190742   1.760  14.272  10.585
62970SOL    HW290743   1.905  14.243  10.621
62971SOL     OW90744  12.521   1.372   9.444
62971SOL    HW190745  12.572   1.412   9.515
62971SOL    HW290746  12.547   1.421   9.366
62972SOL     OW90747   3.626   1.018   8.698
62972SOL    HW190748   3.576   1.094   8.668
62972SOL    HW290749   3.622   0.956   8.625
62973SOL     OW90750  10.201  11.962  13.778
62973SOL    HW190751  10.119  11.926  13.744
62973SOL    HW290752  10.234  12.017  13.708
62974SOL     OW90753  10.929   2.993  11.762
62974SOL    HW190754  10.866   2.922  11.750
62974SOL    HW290755  11.006   2.966  11.713
62975SOL     OW90756   7.620   6.215  13.687
62975SOL    HW190757   7.612   6.167  13.769
62975SOL    HW290758   7.711   6.200  13.659
62976SOL     OW90759   2.823   4.811  11.172
62976SOL    HW190760   2.764   4.887  11.171
62976SOL    HW290761   2.777   4.745  11.121
62977SOL     OW90762  13.222  10.433   8.266
62977SOL    HW190763  13.161  10.387   8.208
62977SOL    HW290764  13.266  10.362   8.314
62978SOL     OW90765   2.080  10.831  14.443
62978SOL    HW190766   2.115  10.909  14.486
62978SOL    HW290767   2.156  10.787  14.406
62979SOL     OW90768   5.259   2.932   6.871
62979SOL    HW190769   5.295   2.919   6.784
62979SOL    HW290770   5.218   3.018   6.868
62980SOL     OW90771  11.237   4.575   9.886
62980SOL    HW190772  11.145   4.552   9.874
62980SOL    HW290773  11.285   4.507   9.839
62981SOL     OW90774   7.394   0.620  13.528
62981SOL    HW190775   7.325   0.566  13.489
62981SOL    HW290776   7.435   0.564  13.593
62982SOL     OW90777   4.605  14.078   5.046
62982SOL    HW190778   4.682  14.093   5.100
62982SOL    HW290779   4.533  14.117   5.095
62983SOL     OW90780   7.413   3.826   0.071
62983SOL    HW190781   7.466   3.817  14.868
62983SOL    HW290782   7.323   3.828   0.039
62984SOL     OW90783   4.805   6.787   6.435
62984SOL    HW190784   4.732   6.848   6.445
62984SOL    HW290785   4.874   6.824   6.489
62985SOL     OW90786   4.025  12.070  13.058
62985SOL    HW190787   3.973  11.992  13.074
62985SOL    HW290788   4.020  12.084  12.963
62986SOL     OW90789   9.257  14.410   1.677
62986SOL    HW190790   9.201  14.463   1.735
62986SOL    HW290791   9.334  14.465   1.663
62987SOL     OW90792  13.011   6.140   9.320
62987SOL    HW190793  13.005   6.162   9.413
62987SOL    HW290794  13.101   6.110   9.308
62988SOL     OW90795  11.372   5.462  14.338
62988SOL    HW190796  11.382   5.500  14.426
62988SOL    HW290797  11.460   5.433  14.315
62989SOL     OW90798   7.106  10.958   2.061
62989SOL    HW190799   7.024  11.007   2.071
62989SOL    HW290800   7.139  10.947   2.150
62990SOL     OW90801   0.080   8.153   5.416
62990SOL    HW190802   0.096   8.211   5.342
62990SOL    HW290803   0.139   8.079   5.402
62991SOL     OW90804   4.993  12.611   6.610
62991SOL    HW190805   5.025  12.638   6.523
62991SOL    HW290806   5.064  12.557   6.645
62992SOL     OW90807   3.147  14.147  12.592
62992SOL    HW190808   3.128  14.145  12.498
62992SOL    HW290809   3.242  14.160  12.597
62993SOL     OW90810  14.710   7.439   3.576
62993SOL    HW190811  14.742   7.375   3.512
62993SOL    HW290812  14.623   7.409   3.599
62994SOL     OW90813   8.083  13.647  13.652
62994SOL    HW190814   8.151  13.642  13.720
62994SOL    HW290815   8.132  13.647  13.570
62995SOL     OW90816   6.673   3.878   9.935
62995SOL    HW190817   6.748   3.870   9.877
62995SOL    HW290818   6.701   3.941  10.001
62996SOL     OW90819   6.497  10.784   1.718
62996SOL    HW190820   6.452  10.712   1.761
62996SOL    HW290821   6.428  10.845   1.693
62997SOL     OW90822   1.261  10.567   8.168
62997SOL    HW190823   1.298  10.646   8.208
62997SOL    HW290824   1.248  10.507   8.242
62998SOL     OW90825   9.256  12.222  12.342
62998SOL    HW190826   9.237  12.191  12.253
62998SOL    HW290827   9.259  12.317  12.334
62999SOL     OW90828  10.234   4.510   4.316
62999SOL    HW190829  10.219   4.435   4.373
62999SOL    HW290830  10.171   4.576   4.345
63000SOL     OW90831   3.164  11.412   9.420
63000SOL    HW190832   3.178  11.423   9.514
63000SOL    HW290833   3.163  11.502   9.386
63001SOL     OW90834   4.700   3.075  13.794
63001SOL    HW190835   4.716   3.119  13.711
63001SOL    HW290836   4.776   3.097  13.848
63002SOL     OW90837   5.642   0.540   2.899
63002SOL    HW190838   5.737   0.553   2.899
63002SOL    HW290839   5.623   0.497   2.982
63003SOL     OW90840   7.775  13.778   2.090
63003SOL    HW190841   7.762  13.752   2.181
63003SOL    HW290842   7.764  13.873   2.091
63004SOL     OW90843   9.814   5.278   3.873
63004SOL    HW190844   9.753   5.205   3.886
63004SOL    HW290845   9.835   5.275   3.780
63005SOL     OW90846   7.235   2.117   5.073
63005SOL    HW190847   7.254   2.166   4.993
63005SOL    HW290848   7.139   2.115   5.076
63006SOL     OW90849   1.642  13.672   3.054
63006SOL    HW190850   1.622  13.613   3.127
63006SOL    HW290851   1.716  13.632   3.010
63007SOL     OW90852   7.584   6.897  14.568
63007SOL    HW190853   7.496   6.859  14.562
63007SOL    HW290854   7.573   6.972  14.625
63008SOL     OW90855  11.906   4.309   0.977
63008SOL    HW190856  11.847   4.379   1.004
63008SOL    HW290857  11.863   4.228   1.005
63009SOL     OW90858  10.379   7.233   3.081
63009SOL    HW190859  10.420   7.197   3.160
63009SOL    HW290860  10.450   7.234   3.016
63010SOL     OW90861   3.144  12.901  11.988
63010SOL    HW190862   3.153  12.806  11.985
63010SOL    HW290863   3.054  12.917  12.014
63011SOL     OW90864   4.994  10.248   4.459
63011SOL    HW190865   5.059  10.305   4.416
63011SOL    HW290866   5.047  10.186   4.509
63012SOL     OW90867   8.559   7.452  12.699
63012SOL    HW190868   8.608   7.436  12.779
63012SOL    HW290869   8.558   7.548  12.690
63013SOL     OW90870   8.998  11.912  10.941
63013SOL    HW190871   9.052  11.909  10.862
63013SOL    HW290872   8.921  11.964  10.915
63014SOL     OW90873   4.289  11.789  13.218
63014SOL    HW190874   4.368  11.738  13.199
63014SOL    HW290875   4.316  11.851  13.286
63015SOL     OW90876   8.027   9.777  10.080
63015SOL    HW190877   8.078   9.827  10.017
63015SOL    HW290878   7.940   9.818  10.078
63016SOL     OW90879   5.496  14.570  14.370
63016SOL    HW190880   5.585  14.560  14.403
63016SOL    HW290881   5.444  14.512  14.426
63017SOL     OW90882   2.539   0.866  11.602
63017SOL    HW190883   2.525   0.885  11.695
63017SOL    HW290884   2.590   0.785  11.601
63018SOL     OW90885   7.559   4.563  10.371
63018SOL    HW190886   7.503   4.594  10.301
63018SOL    HW290887   7.643   4.607  10.356
63019SOL     OW90888   3.124   3.396   0.597
63019SOL    HW190889   3.196   3.340   0.625
63019SOL    HW290890   3.153   3.435   0.515
63020SOL     OW90891   7.543  13.574   8.530
63020SOL    HW190892   7.484  13.642   8.499
63020SOL    HW290893   7.506  13.546   8.614
63021SOL     OW90894  12.521   4.377  11.947
63021SOL    HW190895  12.530   4.383  12.042
63021SOL    HW290896  12.559   4.458  11.914
63022SOL     OW90897   2.271   4.547   9.249
63022SOL    HW190898   2.286   4.578   9.338
63022SOL    HW290899   2.349   4.496   9.228
63023SOL     OW90900  11.433  13.022   6.461
63023SOL    HW190901  11.383  12.946   6.432
63023SOL    HW290902  11.417  13.027   6.555
63024SOL     OW90903   2.033  11.902  13.401
63024SOL    HW190904   2.101  11.856  13.450
63024SOL    HW290905   2.077  11.935  13.323
63025SOL     OW90906   9.711   6.976   0.097
63025SOL    HW190907   9.700   7.033   0.021
63025SOL    HW290908   9.623   6.947   0.119
63026SOL     OW90909  12.243   5.006   4.838
63026SOL    HW190910  12.255   5.101   4.841
63026SOL    HW290911  12.162   4.993   4.789
63027SOL     OW90912   2.575   4.097   0.868
63027SOL    HW190913   2.523   4.177   0.858
63027SOL    HW290914   2.619   4.107   0.952
63028SOL     OW90915   6.261   8.403   3.120
63028SOL    HW190916   6.260   8.496   3.097
63028SOL    HW290917   6.353   8.378   3.113
63029SOL     OW90918   1.693   0.316   3.894
63029SOL    HW190919   1.745   0.339   3.972
63029SOL    HW290920   1.716   0.384   3.830
63030SOL     OW90921   8.328   9.442  10.002
63030SOL    HW190922   8.236   9.451  10.027
63030SOL    HW290923   8.367   9.527  10.023
63031SOL     OW90924   2.870   5.925   2.983
63031SOL    HW190925   2.927   6.001   2.970
63031SOL    HW290926   2.926   5.850   2.968
63032SOL     OW90927  10.968   2.889   5.723
63032SOL    HW190928  11.027   2.814   5.730
63032SOL    HW290929  10.963   2.908   5.629
63033SOL     OW90930  10.776   4.499   9.990
63033SOL    HW190931  10.775   4.450  10.073
63033SOL    HW290932  10.783   4.590  10.017
63034SOL     OW90933   6.905   4.593  13.469
63034SOL    HW190934   6.849   4.663  13.502
63034SOL    HW290935   6.934   4.546  13.548
63035SOL     OW90936   9.306  13.250   4.029
63035SOL    HW190937   9.300  13.309   4.104
63035SOL    HW290938   9.383  13.280   3.981
63036SOL     OW90939   4.838   0.707  10.313
63036SOL    HW190940   4.825   0.633  10.372
63036SOL    HW290941   4.921   0.690  10.271
63037SOL     OW90942  14.496  14.459   7.982
63037SOL    HW190943  14.561  14.407   7.935
63037SOL    HW290944  14.478  14.534   7.925
63038SOL     OW90945  10.201  11.762   3.925
63038SOL    HW190946  10.189  11.853   3.953
63038SOL    HW290947  10.285  11.736   3.964
63039SOL     OW90948  12.366   3.673   4.722
63039SOL    HW190949  12.335   3.763   4.729
63039SOL    HW290950  12.325   3.639   4.642
63040SOL     OW90951   4.792   2.619   7.180
63040SOL    HW190952   4.779   2.590   7.270
63040SOL    HW290953   4.767   2.711   7.181
63041SOL     OW90954   5.905  14.198  13.459
63041SOL    HW190955   5.937  14.288  13.456
63041SOL    HW290956   5.975  14.147  13.418
63042SOL     OW90957   2.720  11.899   5.169
63042SOL    HW190958   2.755  11.872   5.084
63042SOL    HW290959   2.626  11.880   5.164
63043SOL     OW90960   3.784  12.686   6.483
63043SOL    HW190961   3.787  12.777   6.453
63043SOL    HW290962   3.745  12.637   6.411
63044SOL     OW90963   3.163   7.572   3.183
63044SOL    HW190964   3.213   7.647   3.151
63044SOL    HW290965   3.154   7.587   3.277
63045SOL     OW90966   7.811  11.313   8.296
63045SOL    HW190967   7.717  11.293   8.306
63045SOL    HW290968   7.825  11.311   8.202
63046SOL     OW90969   8.032   8.234  10.775
63046SOL    HW190970   7.986   8.190  10.704
63046SOL    HW290971   7.963   8.270  10.831
63047SOL     OW90972  12.984   4.965   6.475
63047SOL    HW190973  12.922   4.895   6.497
63047SOL    HW290974  12.980   4.971   6.380
63048SOL     OW90975   9.012  13.173   2.106
63048SOL    HW190976   8.929  13.204   2.144
63048SOL    HW290977   8.990  13.153   2.015
63049SOL     OW90978   5.508  10.037  10.930
63049SOL    HW190979   5.598  10.048  10.962
63049SOL    HW290980   5.512   9.959  10.874
63050SOL     OW90981   2.072   9.433   8.227
63050SOL    HW190982   2.007   9.441   8.296
63050SOL    HW290983   2.086   9.339   8.218
63051SOL     OW90984   6.657   3.023  11.281
63051SOL    HW190985   6.569   3.030  11.243
63051SOL    HW290986   6.646   3.054  11.371
63052SOL     OW90987   8.319   2.547   3.890
63052SOL    HW190988   8.238   2.597   3.881
63052SOL    HW290989   8.292   2.462   3.925
63053SOL     OW90990   1.860  14.183   4.658
63053SOL    HW190991   1.921  14.123   4.700
63053SOL    HW290992   1.916  14.249   4.616
63054SOL     OW90993   6.976  10.215   6.927
63054SOL    HW190994   7.017  10.148   6.982
63054SOL    HW290995   7.047  10.246   6.870
63055SOL     OW90996   2.798   2.141  12.615
63055SOL    HW190997   2.772   2.157  12.706
63055SOL    HW290998   2.789   2.225  12.572
63056SOL     OW90999  13.993   8.489   3.568
63056SOL    HW191000  13.972   8.431   3.641
63056SOL    HW291001  14.013   8.431   3.495
63057SOL     OW91002   7.533   2.612   1.432
63057SOL    HW191003   7.590   2.668   1.381
63057SOL    HW291004   7.451   2.609   1.382
63058SOL     OW91005   1.974   8.092  10.828
63058SOL    HW191006   2.042   8.047  10.778
63058SOL    HW291007   2.020   8.165  10.870
63059SOL     OW91008   2.352   1.693  13.876
63059SOL    HW191009   2.267   1.658  13.851
63059SOL    HW291010   2.406   1.685  13.797
63060SOL     OW91011  12.498   6.279   1.768
63060SOL    HW191012  12.409   6.257   1.740
63060SOL    HW291013  12.532   6.334   1.697
63061SOL     OW91014   2.350  11.447   8.759
63061SOL    HW191015   2.341  11.515   8.826
63061SOL    HW291016   2.413  11.483   8.697
63062SOL     OW91017  11.095  14.443   8.634
63062SOL    HW191018  11.006  14.413   8.620
63062SOL    HW291019  11.146  14.398   8.567
63063SOL     OW91020   1.699   5.980   0.594
63063SOL    HW191021   1.660   6.039   0.529
63063SOL    HW291022   1.782   5.953   0.554
63064SOL     OW91023   3.692   1.118   3.549
63064SOL    HW191024   3.762   1.137   3.486
63064SOL    HW291025   3.662   1.204   3.578
63065SOL     OW91026   6.497   9.224   8.076
63065SOL    HW191027   6.514   9.318   8.082
63065SOL    HW291028   6.402   9.216   8.080
63066SOL     OW91029   6.958  11.155  13.237
63066SOL    HW191030   6.882  11.099  13.223
63066SOL    HW291031   6.946  11.189  13.326
63067SOL     OW91032  10.677  14.278   0.394
63067SOL    HW191033  10.752  14.326   0.430
63067SOL    HW291034  10.616  14.347   0.366
63068SOL     OW91035   0.216   8.142  10.981
63068SOL    HW191036   0.248   8.053  10.968
63068SOL    HW291037   0.285   8.199  10.946
63069SOL     OW91038  12.164  13.148  14.805
63069SOL    HW191039  12.253  13.180  14.798
63069SOL    HW291040  12.126  13.198   0.002
63070SOL     OW91041   9.446   0.864   6.054
63070SOL    HW191042   9.440   0.958   6.038
63070SOL    HW291043   9.395   0.850   6.134
63071SOL     OW91044   3.960   3.711   2.976
63071SOL    HW191045   3.953   3.689   2.883
63071SOL    HW291046   4.052   3.695   2.997
63072SOL     OW91047   7.581   0.737   5.182
63072SOL    HW191048   7.563   0.708   5.272
63072SOL    HW291049   7.495   0.753   5.144
63073SOL     OW91050  10.918   3.674  11.696
63073SOL    HW191051  10.866   3.682  11.616
63073SOL    HW291052  11.007   3.662  11.665
63074SOL     OW91053   8.951   5.554   6.486
63074SOL    HW191054   8.944   5.523   6.576
63074SOL    HW291055   9.045   5.558   6.468
63075SOL     OW91056   1.449  11.516  14.786
63075SOL    HW191057   1.356  11.518  14.765
63075SOL    HW291058   1.476  11.608  14.782
63076SOL     OW91059   6.172   8.417  14.482
63076SOL    HW191060   6.253   8.377  14.451
63076SOL    HW291061   6.112   8.411  14.408
63077SOL     OW91062  14.246   2.330   7.648
63077SOL    HW191063  14.227   2.343   7.555
63077SOL    HW291064  14.212   2.243   7.668
63078SOL     OW91065   0.744   7.795   1.295
63078SOL    HW191066   0.759   7.823   1.385
63078SOL    HW291067   0.800   7.718   1.284
63079SOL     OW91068   3.765  10.898  13.410
63079SOL    HW191069   3.852  10.872  13.441
63079SOL    HW291070   3.779  10.982  13.367
63080SOL     OW91071   1.595   0.187   5.944
63080SOL    HW191072   1.526   0.166   5.880
63080SOL    HW291073   1.663   0.122   5.927
63081SOL     OW91074  12.933  14.518   2.699
63081SOL    HW191075  12.922  14.613   2.706
63081SOL    HW291076  12.843  14.485   2.690
63082SOL     OW91077   1.442   8.531  13.867
63082SOL    HW191078   1.511   8.476  13.904
63082SOL    HW291079   1.362   8.505  13.914
63083SOL     OW91080   5.109   7.047   8.260
63083SOL    HW191081   5.121   6.997   8.340
63083SOL    HW291082   5.141   7.135   8.281
63084SOL     OW91083   8.889  10.598   0.755
63084SOL    HW191084   8.956  10.568   0.816
63084SOL    HW291085   8.866  10.520   0.705
63085SOL     OW91086  12.060   3.494   9.292
63085SOL    HW191087  12.094   3.443   9.365
63085SOL    HW291088  12.019   3.571   9.333
63086SOL     OW91089   1.787   6.043  12.069
63086SOL    HW191090   1.844   6.119  12.080
63086SOL    HW291091   1.828   5.993  11.998
63087SOL     OW91092  11.257  10.485  10.824
63087SOL    HW191093  11.173  10.525  10.803
63087SOL    HW291094  11.258  10.476  10.919
63088SOL     OW91095  12.607   1.353   6.322
63088SOL    HW191096  12.688   1.395   6.352
63088SOL    HW291097  12.546   1.426   6.312
63089SOL     OW91098   6.702   7.774  11.411
63089SOL    HW191099   6.627   7.831  11.430
63089SOL    HW291100   6.665   7.698  11.366
63090SOL     OW91101   0.892   1.128  11.520
63090SOL    HW191102   0.891   1.062  11.451
63090SOL    HW291103   0.974   1.111  11.567
63091SOL     OW91104  13.744   3.827   7.024
63091SOL    HW191105  13.726   3.824   7.118
63091SOL    HW291106  13.834   3.860   7.017
63092SOL     OW91107   6.784  14.380  12.451
63092SOL    HW191108   6.735  14.326  12.513
63092SOL    HW291109   6.751  14.356  12.365
63093SOL     OW91110   2.506   4.804   6.121
63093SOL    HW191111   2.592   4.784   6.158
63093SOL    HW291112   2.525   4.833   6.032
63094SOL     OW91113   5.649   3.497   1.662
63094SOL    HW191114   5.691   3.417   1.695
63094SOL    HW291115   5.558   3.472   1.646
63095SOL     OW91116  11.950  10.991   3.463
63095SOL    HW191117  11.876  10.988   3.524
63095SOL    HW291118  12.027  10.995   3.519
63096SOL     OW91119  14.479  11.774   2.301
63096SOL    HW191120  14.528  11.847   2.339
63096SOL    HW291121  14.436  11.733   2.376
63097SOL     OW91122   8.245   8.626   6.238
63097SOL    HW191123   8.248   8.689   6.310
63097SOL    HW291124   8.273   8.543   6.277
63098SOL     OW91125   3.527  14.260   5.153
63098SOL    HW191126   3.542  14.303   5.069
63098SOL    HW291127   3.612  14.264   5.197
63099SOL     OW91128   4.019   4.175   5.431
63099SOL    HW191129   4.016   4.257   5.382
63099SOL    HW291130   4.056   4.199   5.516
63100SOL     OW91131   1.803   6.523   7.234
63100SOL    HW191132   1.869   6.516   7.302
63100SOL    HW291133   1.733   6.576   7.274
63101SOL     OW91134   2.935   4.213   1.891
63101SOL    HW191135   2.869   4.282   1.894
63101SOL    HW291136   2.966   4.214   1.801
63102SOL     OW91137  10.790   1.020   5.139
63102SOL    HW191138  10.728   0.983   5.076
63102SOL    HW291139  10.767   0.978   5.223
63103SOL     OW91140   9.504   8.622  11.506
63103SOL    HW191141   9.582   8.674  11.485
63103SOL    HW291142   9.462   8.606  11.422
63104SOL     OW91143   0.429   4.173  10.799
63104SOL    HW191144   0.439   4.268  10.806
63104SOL    HW291145   0.511   4.137  10.832
63105SOL     OW91146   3.333   1.509   9.163
63105SOL    HW191147   3.330   1.414   9.150
63105SOL    HW291148   3.296   1.546   9.084
63106SOL     OW91149   3.892  14.606   4.953
63106SOL    HW191150   3.864  14.541   4.889
63106SOL    HW291151   3.848  14.687   4.926
63107SOL     OW91152   8.036   3.042   7.657
63107SOL    HW191153   7.977   2.975   7.692
63107SOL    HW291154   7.982   3.120   7.647
63108SOL     OW91155   8.163   6.375   7.394
63108SOL    HW191156   8.249   6.343   7.369
63108SOL    HW291157   8.168   6.389   7.488
63109SOL     OW91158   5.017   1.448   3.235
63109SOL    HW191159   5.076   1.377   3.258
63109SOL    HW291160   4.992   1.430   3.144
63110SOL     OW91161   4.091   8.627   9.845
63110SOL    HW191162   4.141   8.553   9.810
63110SOL    HW291163   4.118   8.702   9.792
63111SOL     OW91164  13.685   3.583  14.185
63111SOL    HW191165  13.651   3.660  14.140
63111SOL    HW291166  13.677   3.512  14.121
63112SOL     OW91167   1.554   9.463   8.083
63112SOL    HW191168   1.551   9.554   8.111
63112SOL    HW291169   1.467   9.428   8.103
63113SOL     OW91170   0.579   9.557  13.463
63113SOL    HW191171   0.511   9.501  13.500
63113SOL    HW291172   0.545   9.583  13.377
63114SOL     OW91173   7.472   9.575   1.232
63114SOL    HW191174   7.396   9.545   1.283
63114SOL    HW291175   7.537   9.506   1.245
63115SOL     OW91176  10.591   5.403   1.292
63115SOL    HW191177  10.674   5.403   1.245
63115SOL    HW291178  10.594   5.483   1.346
63116SOL     OW91179   6.825   2.955   7.012
63116SOL    HW191180   6.778   2.917   6.938
63116SOL    HW291181   6.911   2.912   7.011
63117SOL     OW91182   6.616   5.887  10.033
63117SOL    HW191183   6.592   5.945   9.961
63117SOL    HW291184   6.539   5.887  10.090
63118SOL     OW91185   5.723   9.539   6.427
63118SOL    HW191186   5.787   9.534   6.357
63118SOL    HW291187   5.702   9.633   6.434
63119SOL     OW91188   5.430   0.035   4.967
63119SOL    HW191189   5.511  14.864   4.988
63119SOL    HW291190   5.421   0.025   4.872
63120SOL     OW91191   3.995   0.312  12.699
63120SOL    HW191192   3.977   0.294  12.607
63120SOL    HW291193   4.090   0.303  12.707
63121SOL     OW91194   9.898   9.181  14.124
63121SOL    HW191195   9.968   9.208  14.184
63121SOL    HW291196   9.830   9.145  14.181
63122SOL     OW91197   6.507   2.675  10.374
63122SOL    HW191198   6.420   2.676  10.414
63122SOL    HW291199   6.528   2.583  10.365
63123SOL     OW91200  12.365   7.463  14.240
63123SOL    HW191201  12.397   7.542  14.196
63123SOL    HW291202  12.305   7.496  14.307
63124SOL     OW91203   4.212  10.978  14.776
63124SOL    HW191204   4.213  10.995  14.682
63124SOL    HW291205   4.154  10.903  14.786
63125SOL     OW91206   7.340   5.868   2.545
63125SOL    HW191207   7.408   5.933   2.529
63125SOL    HW291208   7.333   5.819   2.463
63126SOL     OW91209  12.454  13.064  13.306
63126SOL    HW191210  12.399  13.088  13.381
63126SOL    HW291211  12.542  13.058  13.343
63127SOL     OW91212   4.738   1.791   8.111
63127SOL    HW191213   4.676   1.743   8.166
63127SOL    HW291214   4.687   1.862   8.073
63128SOL     OW91215   6.971  13.512   0.851
63128SOL    HW191216   6.895  13.543   0.900
63128SOL    HW291217   7.038  13.498   0.917
63129SOL     OW91218   7.911   5.417   9.260
63129SOL    HW191219   7.852   5.471   9.208
63129SOL    HW291220   7.940   5.475   9.331
63130SOL     OW91221   0.521   3.822  10.372
63130SOL    HW191222   0.537   3.910  10.337
63130SOL    HW291223   0.472   3.837  10.452
63131SOL     OW91224   6.266   7.583   4.164
63131SOL    HW191225   6.344   7.549   4.207
63131SOL    HW291226   6.289   7.586   4.071
63132SOL     OW91227  12.196   1.910  11.189
63132SOL    HW191228  12.279   1.880  11.226
63132SOL    HW291229  12.196   1.875  11.100
63133SOL     OW91230  10.041  14.651   2.484
63133SOL    HW191231   9.974  14.585   2.500
63133SOL    HW291232  10.021  14.721   2.546
63134SOL     OW91233   2.294   3.501  12.808
63134SOL    HW191234   2.386   3.492  12.783
63134SOL    HW291235   2.291   3.470  12.898
63135SOL     OW91236   2.480   1.411  12.241
63135SOL    HW191237   2.412   1.344  12.235
63135SOL    HW291238   2.507   1.425  12.151
63136SOL     OW91239   1.812   5.675   4.621
63136SOL    HW191240   1.863   5.733   4.565
63136SOL    HW291241   1.876   5.614   4.657
63137SOL     OW91242   7.850  14.121   8.221
63137SOL    HW191243   7.814  14.199   8.262
63137SOL    HW291244   7.859  14.058   8.293
63138SOL     OW91245   3.632  14.711   7.544
63138SOL    HW191246   3.657  14.781   7.604
63138SOL    HW291247   3.537  14.706   7.551
63139SOL     OW91248  11.249  12.914  11.337
63139SOL    HW191249  11.165  12.889  11.376
63139SOL    HW291250  11.229  12.928  11.244
63140SOL     OW91251   2.744   0.731   6.967
63140SOL    HW191252   2.826   0.780   6.956
63140SOL    HW291253   2.710   0.722   6.878
63141SOL     OW91254   2.648  12.392  11.544
63141SOL    HW191255   2.618  12.406  11.634
63141SOL    HW291256   2.573  12.416  11.489
63142SOL     OW91257  10.912   8.904   4.331
63142SOL    HW191258  10.905   8.940   4.242
63142SOL    HW291259  10.933   8.980   4.385
63143SOL     OW91260   6.283   3.560   6.363
63143SOL    HW191261   6.263   3.653   6.362
63143SOL    HW291262   6.379   3.556   6.370
63144SOL     OW91263   7.019   8.808  11.861
63144SOL    HW191264   7.069   8.750  11.919
63144SOL    HW291265   7.079   8.824  11.787
63145SOL     OW91266   2.327   4.162   8.596
63145SOL    HW191267   2.254   4.224   8.587
63145SOL    HW291268   2.316   4.103   8.521
63146SOL     OW91269  11.977   7.192   3.107
63146SOL    HW191270  12.065   7.154   3.114
63146SOL    HW291271  11.919   7.122   3.137
63147SOL     OW91272  14.220  13.129  11.095
63147SOL    HW191273  14.315  13.125  11.103
63147SOL    HW291274  14.190  13.040  11.111
63148SOL     OW91275  10.697   1.726  12.775
63148SOL    HW191276  10.701   1.766  12.688
63148SOL    HW291277  10.694   1.632  12.757
63149SOL     OW91278   5.392  10.258   2.599
63149SOL    HW191279   5.392  10.316   2.523
63149SOL    HW291280   5.426  10.175   2.564
63150SOL     OW91281  13.562   5.040  11.681
63150SOL    HW191282  13.495   5.108  11.689
63150SOL    HW291283  13.591   5.025  11.771
63151SOL     OW91284  12.649  12.036   3.331
63151SOL    HW191285  12.582  12.063   3.394
63151SOL    HW291286  12.726  12.015   3.384
63152SOL     OW91287  10.762   8.897   2.347
63152SOL    HW191288  10.846   8.878   2.390
63152SOL    HW291289  10.704   8.826   2.375
63153SOL     OW91290   1.686   9.949   8.081
63153SOL    HW191291   1.664  10.030   8.126
63153SOL    HW291292   1.714   9.976   7.994
63154SOL     OW91293   4.051   2.387   2.643
63154SOL    HW191294   3.979   2.376   2.705
63154SOL    HW291295   4.103   2.307   2.651
63155SOL     OW91296   0.002   5.272  13.991
63155SOL    HW191297   0.022   5.181  13.970
63155SOL    HW291298  14.786   5.272  14.017
63156SOL     OW91299   2.183   5.447   7.285
63156SOL    HW191300   2.276   5.470   7.291
63156SOL    HW291301   2.182   5.353   7.267
63157SOL     OW91302   3.697   8.823   0.544
63157SOL    HW191303   3.716   8.911   0.512
63157SOL    HW291304   3.618   8.796   0.498
63158SOL     OW91305  11.086   5.893   5.040
63158SOL    HW191306  11.098   5.977   4.996
63158SOL    HW291307  11.082   5.829   4.968
63159SOL     OW91308   6.379  10.441   7.835
63159SOL    HW191309   6.337  10.363   7.800
63159SOL    HW291310   6.452  10.408   7.887
63160SOL     OW91311   6.543   0.456   6.210
63160SOL    HW191312   6.458   0.452   6.165
63160SOL    HW291313   6.557   0.549   6.227
63161SOL     OW91314   8.979  14.709   7.010
63161SOL    HW191315   8.934  14.789   6.982
63161SOL    HW291316   8.934  14.682   7.089
63162SOL     OW91317   7.486   7.814   6.990
63162SOL    HW191318   7.430   7.888   7.014
63162SOL    HW291319   7.425   7.747   6.959
63163SOL     OW91320   1.574   6.407   2.989
63163SOL    HW191321   1.590   6.463   2.914
63163SOL    HW291322   1.608   6.456   3.064
63164SOL     OW91323   4.820  14.066   2.707
63164SOL    HW191324   4.730  14.032   2.715
63164SOL    HW291325   4.812  14.142   2.650
63165SOL     OW91326   0.806   4.622  12.497
63165SOL    HW191327   0.730   4.603  12.552
63165SOL    HW291328   0.798   4.561  12.424
63166SOL     OW91329  14.750  10.879   2.655
63166SOL    HW191330  14.678  10.936   2.680
63166SOL    HW291331  14.758  10.816   2.726
63167SOL     OW91332  11.045   6.574   6.528
63167SOL    HW191333  10.987   6.579   6.604
63167SOL    HW291334  11.014   6.499   6.479
63168SOL     OW91335   3.175   3.563   9.428
63168SOL    HW191336   3.217   3.477   9.436
63168SOL    HW291337   3.083   3.546   9.447
63169SOL     OW91338   8.880   7.938  10.117
63169SOL    HW191339   8.792   7.903  10.098
63169SOL    HW291340   8.882   8.022  10.071
63170SOL     OW91341   9.721   8.753   7.229
63170SOL    HW191342   9.644   8.717   7.273
63170SOL    HW291343   9.749   8.825   7.286
63171SOL     OW91344   4.118   6.581   4.190
63171SOL    HW191345   4.154   6.549   4.273
63171SOL    HW291346   4.160   6.666   4.178
63172SOL     OW91347   8.123   5.616   1.321
63172SOL    HW191348   8.212   5.639   1.350
63172SOL    HW291349   8.135   5.534   1.273
63173SOL     OW91350   8.555  12.914   9.545
63173SOL    HW191351   8.534  12.846   9.480
63173SOL    HW291352   8.531  12.996   9.502
63174SOL     OW91353  14.156  11.962  12.182
63174SOL    HW191354  14.122  11.917  12.259
63174SOL    HW291355  14.172  12.051  12.212
63175SOL     OW91356   3.176   1.686  13.587
63175SOL    HW191357   3.136   1.621  13.529
63175SOL    HW291358   3.166   1.648  13.675
63176SOL     OW91359   1.825  11.712  13.288
63176SOL    HW191360   1.744  11.763  13.286
63176SOL    HW291361   1.878  11.755  13.354
63177SOL     OW91362   0.894  10.260   4.428
63177SOL    HW191363   0.932  10.259   4.516
63177SOL    HW291364   0.826  10.326   4.431
63178SOL     OW91365   0.482   9.164   0.205
63178SOL    HW191366   0.540   9.090   0.221
63178SOL    HW291367   0.503   9.194   0.117
63179SOL     OW91368   2.402   2.630   9.768
63179SOL    HW191369   2.494   2.631   9.794
63179SOL    HW291370   2.403   2.608   9.675
63180SOL     OW91371  12.147   4.461  13.020
63180SOL    HW191372  12.132   4.422  13.106
63180SOL    HW291373  12.138   4.389  12.958
63181SOL     OW91374  11.117  12.505   0.518
63181SOL    HW191375  11.077  12.586   0.550
63181SOL    HW291376  11.210  12.524   0.512
63182SOL     OW91377   1.624   0.101   6.924
63182SOL    HW191378   1.675   0.182   6.930
63182SOL    HW291379   1.564   0.116   6.851
63183SOL     OW91380   2.996   8.984   4.940
63183SOL    HW191381   2.952   9.032   5.010
63183SOL    HW291382   2.956   8.897   4.942
63184SOL     OW91383  14.775   3.760  12.511
63184SOL    HW191384  14.721   3.793  12.440
63184SOL    HW291385  14.713   3.719  12.572
63185SOL     OW91386  13.263   6.701   8.181
63185SOL    HW191387  13.282   6.635   8.115
63185SOL    HW291388  13.327   6.770   8.165
63186SOL     OW91389   8.463   4.560   1.197
63186SOL    HW191390   8.516   4.592   1.123
63186SOL    HW291391   8.428   4.476   1.166
63187SOL     OW91392   3.799   1.185   5.794
63187SOL    HW191393   3.881   1.232   5.779
63187SOL    HW291394   3.743   1.210   5.721
63188SOL     OW91395   9.685   7.458  10.513
63188SOL    HW191396   9.615   7.416  10.464
63188SOL    HW291397   9.711   7.393  10.579
63189SOL     OW91398   6.952   7.124  11.243
63189SOL    HW191399   6.868   7.169  11.232
63189SOL    HW291400   7.008   7.160  11.175
63190SOL     OW91401  10.866  10.522  11.064
63190SOL    HW191402  10.773  10.542  11.053
63190SOL    HW291403  10.889  10.561  11.148
63191SOL     OW91404  12.352   6.992  10.560
63191SOL    HW191405  12.409   7.067  10.579
63191SOL    HW291406  12.409   6.916  10.568
63192SOL     OW91407   2.291   6.182   5.480
63192SOL    HW191408   2.281   6.151   5.390
63192SOL    HW291409   2.202   6.179   5.515
63193SOL     OW91410   7.201  14.405   1.335
63193SOL    HW191411   7.293  14.411   1.360
63193SOL    HW291412   7.189  14.472   1.268
63194SOL     OW91413   7.428   6.913   8.438
63194SOL    HW191414   7.394   7.002   8.433
63194SOL    HW291415   7.517   6.919   8.405
63195SOL     OW91416  12.612   0.054   8.741
63195SOL    HW191417  12.579  14.852   8.786
63195SOL    HW291418  12.543   0.120   8.754
63196SOL     OW91419   4.956   5.212   8.634
63196SOL    HW191420   4.950   5.118   8.653
63196SOL    HW291421   5.014   5.218   8.559
63197SOL     OW91422   7.339   6.929   0.311
63197SOL    HW191423   7.395   6.863   0.271
63197SOL    HW291424   7.313   6.986   0.239
63198SOL     OW91425   6.894   3.639  12.755
63198SOL    HW191426   6.910   3.545  12.762
63198SOL    HW291427   6.970   3.673  12.707
63199SOL     OW91428   5.399  13.431   7.956
63199SOL    HW191429   5.431  13.341   7.955
63199SOL    HW291430   5.314  13.425   8.001
63200SOL     OW91431  12.722   1.913   7.192
63200SOL    HW191432  12.801   1.935   7.143
63200SOL    HW291433  12.717   1.817   7.189
63201SOL     OW91434  11.396   8.368  11.146
63201SOL    HW191435  11.438   8.384  11.061
63201SOL    HW291436  11.304   8.353  11.124
63202SOL     OW91437   4.168  14.417  11.560
63202SOL    HW191438   4.183  14.360  11.635
63202SOL    HW291439   4.223  14.494  11.578
63203SOL     OW91440   4.913   2.327  11.307
63203SOL    HW191441   4.860   2.248  11.311
63203SOL    HW291442   4.901   2.359  11.218
63204SOL     OW91443   4.199   2.443   6.512
63204SOL    HW191444   4.182   2.433   6.418
63204SOL    HW291445   4.112   2.445   6.552
63205SOL     OW91446   8.227  12.819   5.143
63205SOL    HW191447   8.167  12.748   5.167
63205SOL    HW291448   8.173  12.898   5.150
63206SOL     OW91449  10.539  11.473   9.738
63206SOL    HW191450  10.630  11.504   9.735
63206SOL    HW291451  10.524  11.433   9.653
63207SOL     OW91452   6.333  11.364   7.913
63207SOL    HW191453   6.253  11.416   7.925
63207SOL    HW291454   6.398  11.428   7.884
63208SOL     OW91455   5.376  10.651  13.395
63208SOL    HW191456   5.465  10.618  13.410
63208SOL    HW291457   5.367  10.724  13.457
63209SOL     OW91458  10.494  12.422   7.020
63209SOL    HW191459  10.577  12.468   7.028
63209SOL    HW291460  10.439  12.479   6.967
63210SOL     OW91461   7.769  14.476   2.056
63210SOL    HW191462   7.685  14.476   2.010
63210SOL    HW291463   7.815  14.553   2.023
63211SOL     OW91464   6.876   5.760   1.494
63211SOL    HW191465   6.887   5.793   1.405
63211SOL    HW291466   6.826   5.828   1.539
63212SOL     OW91467  14.121  10.307  14.209
63212SOL    HW191468  14.162  10.230  14.249
63212SOL    HW291469  14.093  10.276  14.122
63213SOL     OW91470  13.800   7.628  14.200
63213SOL    HW191471  13.802   7.562  14.131
63213SOL    HW291472  13.711   7.663  14.198
63214SOL     OW91473   6.063   7.455  12.033
63214SOL    HW191474   5.988   7.468  11.974
63214SOL    HW291475   6.117   7.390  11.989
63215SOL     OW91476   4.431   2.958  11.042
63215SOL    HW191477   4.369   2.885  11.034
63215SOL    HW291478   4.436   2.974  11.136
63216SOL     OW91479   8.493  14.510   3.606
63216SOL    HW191480   8.510  14.497   3.699
63216SOL    HW291481   8.579  14.501   3.564
63217SOL     OW91482  13.502  12.118  12.950
63217SOL    HW191483  13.494  12.104  12.856
63217SOL    HW291484  13.548  12.201  12.959
63218SOL     OW91485   0.576   5.791  11.756
63218SOL    HW191486   0.602   5.744  11.677
63218SOL    HW291487   0.657   5.829  11.789
63219SOL     OW91488   2.834  13.710  10.398
63219SOL    HW191489   2.842  13.674  10.486
63219SOL    HW291490   2.920  13.697  10.358
63220SOL     OW91491   9.038   9.725   9.185
63220SOL    HW191492   8.957   9.756   9.224
63220SOL    HW291493   9.104   9.738   9.253
63221SOL     OW91494   4.143   0.359   1.639
63221SOL    HW191495   4.208   0.290   1.635
63221SOL    HW291496   4.088   0.336   1.714
63222SOL     OW91497   8.698  14.498   3.435
63222SOL    HW191498   8.658  14.411   3.432
63222SOL    HW291499   8.774  14.491   3.378
63223SOL     OW91500   2.000   8.478   2.372
63223SOL    HW191501   1.987   8.513   2.284
63223SOL    HW291502   1.914   8.486   2.413
63224SOL     OW91503   0.823   2.726   2.538
63224SOL    HW191504   0.764   2.722   2.613
63224SOL    HW291505   0.804   2.810   2.497
63225SOL     OW91506  13.205  11.879   1.168
63225SOL    HW191507  13.192  11.959   1.118
63225SOL    HW291508  13.130  11.874   1.227
63226SOL     OW91509   9.443   9.137   3.105
63226SOL    HW191510   9.510   9.126   3.038
63226SOL    HW291511   9.419   9.229   3.099
63227SOL     OW91512   5.419   7.194   5.509
63227SOL    HW191513   5.507   7.160   5.524
63227SOL    HW291514   5.432   7.288   5.493
63228SOL     OW91515   8.405   2.866  10.343
63228SOL    HW191516   8.408   2.833  10.432
63228SOL    HW291517   8.458   2.804  10.292
63229SOL     OW91518  14.336  12.588   1.847
63229SOL    HW191519  14.264  12.559   1.790
63229SOL    HW291520  14.368  12.508   1.888
63230SOL     OW91521   5.149   6.853   5.912
63230SOL    HW191522   5.229   6.853   5.860
63230SOL    HW291523   5.152   6.935   5.961
63231SOL     OW91524   2.574   9.171  10.516
63231SOL    HW191525   2.520   9.176  10.595
63231SOL    HW291526   2.570   9.260  10.480
63232SOL     OW91527   8.208   4.060   8.202
63232SOL    HW191528   8.227   4.056   8.296
63232SOL    HW291529   8.282   4.017   8.160
63233SOL     OW91530   8.671   5.014   8.765
63233SOL    HW191531   8.633   5.094   8.799
63233SOL    HW291532   8.738   4.989   8.829
63234SOL     OW91533   6.023  13.824   8.140
63234SOL    HW191534   6.063  13.854   8.221
63234SOL    HW291535   6.043  13.892   8.076
63235SOL     OW91536  14.696   5.994   7.201
63235SOL    HW191537  14.613   6.034   7.227
63235SOL    HW291538  14.683   5.966   7.111
63236SOL     OW91539   3.044  11.237   6.422
63236SOL    HW191540   3.023  11.329   6.409
63236SOL    HW291541   2.967  11.200   6.466
63237SOL     OW91542   2.338  11.763   7.340
63237SOL    HW191543   2.409  11.802   7.290
63237SOL    HW291544   2.378  11.735   7.423
63238SOL     OW91545   6.284   8.353  11.622
63238SOL    HW191546   6.285   8.258  11.633
63238SOL    HW291547   6.248   8.367  11.535
63239SOL     OW91548  13.807   8.650  14.749
63239SOL    HW191549  13.825   8.637  14.656
63239SOL    HW291550  13.712   8.638  14.757
63240SOL     OW91551   8.154   6.784  11.666
63240SOL    HW191552   8.170   6.807  11.574
63240SOL    HW291553   8.193   6.698  11.676
63241SOL     OW91554  14.097  10.772   7.048
63241SOL    HW191555  14.003  10.781   7.030
63241SOL    HW291556  14.122  10.856   7.087
63242SOL     OW91557   9.460   5.051   0.022
63242SOL    HW191558   9.424   5.041  14.809
63242SOL    HW291559   9.472   4.961   0.053
63243SOL     OW91560  13.189  13.413  11.382
63243SOL    HW191561  13.170  13.476  11.312
63243SOL    HW291562  13.104  13.397  11.424
63244SOL     OW91563   9.474   7.741   0.774
63244SOL    HW191564   9.540   7.758   0.842
63244SOL    HW291565   9.405   7.806   0.791
63245SOL     OW91566  14.106   8.862   5.669
63245SOL    HW191567  14.186   8.910   5.646
63245SOL    HW291568  14.102   8.865   5.764
63246SOL     OW91569  10.355   7.724  11.188
63246SOL    HW191570  10.296   7.778  11.241
63246SOL    HW291571  10.443   7.750  11.215
63247SOL     OW91572   8.356   5.313  11.410
63247SOL    HW191573   8.262   5.301  11.416
63247SOL    HW291574   8.393   5.237  11.455
63248SOL     OW91575   3.042   4.436   1.228
63248SOL    HW191576   3.002   4.475   1.150
63248SOL    HW291577   3.078   4.353   1.197
63249SOL     OW91578   7.859   1.403   5.754
63249SOL    HW191579   7.886   1.404   5.662
63249SOL    HW291580   7.888   1.318   5.787
63250SOL     OW91581   7.072   5.656   1.051
63250SOL    HW191582   7.154   5.689   1.090
63250SOL    HW291583   7.044   5.727   0.993
63251SOL     OW91584   2.932   8.944  11.903
63251SOL    HW191585   3.004   8.883  11.885
63251SOL    HW291586   2.926   8.946  11.998
63252SOL     OW91587  12.095   2.426   4.672
63252SOL    HW191588  12.127   2.492   4.611
63252SOL    HW291589  12.109   2.343   4.626
63253SOL     OW91590   6.525  12.440   1.488
63253SOL    HW191591   6.495  12.530   1.477
63253SOL    HW291592   6.619  12.448   1.504
63254SOL     OW91593  12.385   7.149  14.463
63254SOL    HW191594  12.457   7.183  14.516
63254SOL    HW291595  12.414   7.061  14.438
63255SOL     OW91596   1.699   0.543   9.301
63255SOL    HW191597   1.615   0.587   9.311
63255SOL    HW291598   1.676   0.454   9.274
63256SOL     OW91599   6.795   0.778  10.151
63256SOL    HW191600   6.827   0.806  10.236
63256SOL    HW291601   6.829   0.844  10.090
63257SOL     OW91602   5.498  12.315   2.564
63257SOL    HW191603   5.431  12.369   2.522
63257SOL    HW291604   5.450  12.264   2.630
63258SOL     OW91605  12.400  14.396  12.565
63258SOL    HW191606  12.394  14.350  12.481
63258SOL    HW291607  12.485  14.371  12.600
63259SOL     OW91608   8.187   5.319  13.224
63259SOL    HW191609   8.155   5.410  13.225
63259SOL    HW291610   8.268   5.323  13.173
63260SOL     OW91611   7.177  13.484   4.561
63260SOL    HW191612   7.242  13.414   4.552
63260SOL    HW291613   7.213  13.557   4.512
63261SOL     OW91614   2.230  12.196  12.027
63261SOL    HW191615   2.301  12.194  12.091
63261SOL    HW291616   2.157  12.151  12.071
63262SOL     OW91617  10.830  12.510   8.252
63262SOL    HW191618  10.764  12.456   8.295
63262SOL    HW291619  10.911  12.493   8.301
63263SOL     OW91620  10.364  12.900  12.537
63263SOL    HW191621  10.433  12.839  12.564
63263SOL    HW291622  10.379  12.912  12.443
63264SOL     OW91623  13.428  14.021   5.661
63264SOL    HW191624  13.465  13.938   5.690
63264SOL    HW291625  13.494  14.086   5.682
63265SOL     OW91626  10.760   9.224  14.368
63265SOL    HW191627  10.748   9.210  14.461
63265SOL    HW291628  10.777   9.318  14.360
63266SOL     OW91629  12.063   1.498   0.894
63266SOL    HW191630  12.152   1.467   0.911
63266SOL    HW291631  12.068   1.536   0.806
63267SOL     OW91632   7.624   3.121   1.430
63267SOL    HW191633   7.583   3.203   1.458
63267SOL    HW291634   7.560   3.080   1.371
63268SOL     OW91635   3.213   3.827   0.798
63268SOL    HW191636   3.126   3.789   0.800
63268SOL    HW291637   3.270   3.757   0.767
63269SOL     OW91638   8.707   6.948   7.854
63269SOL    HW191639   8.770   6.956   7.782
63269SOL    HW291640   8.626   6.984   7.820
63270SOL     OW91641   4.059   5.752   5.859
63270SOL    HW191642   4.034   5.714   5.775
63270SOL    HW291643   3.992   5.818   5.877
63271SOL     OW91644   8.180   9.202   3.215
63271SOL    HW191645   8.267   9.162   3.224
63271SOL    HW291646   8.199   9.295   3.200
63272SOL     OW91647  10.812   9.048   1.107
63272SOL    HW191648  10.835   8.977   1.165
63272SOL    HW291649  10.720   9.066   1.127
63273SOL     OW91650   8.457   7.740  13.048
63273SOL    HW191651   8.425   7.679  13.115
63273SOL    HW291652   8.549   7.754  13.072
63274SOL     OW91653   6.886  12.026  13.918
63274SOL    HW191654   6.872  11.978  14.000
63274SOL    HW291655   6.967  12.074  13.933
63275SOL     OW91656  11.075   2.531  11.172
63275SOL    HW191657  11.043   2.588  11.102
63275SOL    HW291658  11.079   2.444  11.133
63276SOL     OW91659  14.117   2.895  10.404
63276SOL    HW191660  14.106   2.873  10.497
63276SOL    HW291661  14.166   2.977  10.405
63277SOL     OW91662   8.833   1.296   9.221
63277SOL    HW191663   8.899   1.352   9.263
63277SOL    HW291664   8.885   1.229   9.176
63278SOL     OW91665  12.367   2.911  13.085
63278SOL    HW191666  12.429   2.984  13.089
63278SOL    HW291667  12.344   2.894  13.176
63279SOL     OW91668   7.405  10.235   6.101
63279SOL    HW191669   7.330  10.294   6.101
63279SOL    HW291670   7.441  10.243   6.012
63280SOL     OW91671  13.365   6.411   0.063
63280SOL    HW191672  13.386   6.479  14.875
63280SOL    HW291673  13.440   6.411   0.123
63281SOL     OW91674   4.773   9.855   6.416
63281SOL    HW191675   4.739   9.789   6.476
63281SOL    HW291676   4.750   9.823   6.329
63282SOL     OW91677   3.331  10.614  13.421
63282SOL    HW191678   3.352  10.596  13.329
63282SOL    HW291679   3.359  10.535  13.468
63283SOL     OW91680   1.570  12.723  12.826
63283SOL    HW191681   1.590  12.630  12.842
63283SOL    HW291682   1.474  12.728  12.832
63284SOL     OW91683   4.208   7.156   0.502
63284SOL    HW191684   4.299   7.172   0.528
63284SOL    HW291685   4.205   7.180   0.410
63285SOL     OW91686  13.573   7.769   2.933
63285SOL    HW191687  13.540   7.837   2.992
63285SOL    HW291688  13.612   7.817   2.861
63286SOL     OW91689   5.129   5.498  10.358
63286SOL    HW191690   5.207   5.460  10.318
63286SOL    HW291691   5.067   5.426  10.364
63287SOL     OW91692  12.000  11.406   5.606
63287SOL    HW191693  12.089  11.389   5.637
63287SOL    HW291694  11.960  11.458   5.675
63288SOL     OW91695   1.858   7.910   4.363
63288SOL    HW191696   1.780   7.955   4.398
63288SOL    HW291697   1.865   7.830   4.416
63289SOL     OW91698   8.677   8.324  14.557
63289SOL    HW191699   8.592   8.281  14.542
63289SOL    HW291700   8.663   8.414  14.530
63290SOL     OW91701   8.200   6.019   1.233
63290SOL    HW191702   8.221   6.094   1.179
63290SOL    HW291703   8.251   6.032   1.313
63291SOL     OW91704  10.412   0.592  11.547
63291SOL    HW191705  10.389   0.598  11.454
63291SOL    HW291706  10.489   0.536  11.548
63292SOL     OW91707   0.873  11.327   3.803
63292SOL    HW191708   0.968  11.335   3.798
63292SOL    HW291709   0.857  11.233   3.812
63293SOL     OW91710  14.189   3.003  14.595
63293SOL    HW191711  14.191   2.908  14.604
63293SOL    HW291712  14.276   3.031  14.625
63294SOL     OW91713   5.683   6.685  13.730
63294SOL    HW191714   5.687   6.595  13.762
63294SOL    HW291715   5.617   6.727  13.785
63295SOL     OW91716   1.489   1.065   8.569
63295SOL    HW191717   1.498   1.143   8.624
63295SOL    HW291718   1.578   1.031   8.560
63296SOL     OW91719  13.911   8.504   7.166
63296SOL    HW191720  13.836   8.462   7.208
63296SOL    HW291721  13.898   8.598   7.181
63297SOL     OW91722  10.789  10.803   8.478
63297SOL    HW191723  10.784  10.883   8.426
63297SOL    HW291724  10.735  10.740   8.431
63298SOL     OW91725   2.188   8.155   0.900
63298SOL    HW191726   2.220   8.177   0.813
63298SOL    HW291727   2.252   8.092   0.933
63299SOL     OW91728  11.515  13.868   4.056
63299SOL    HW191729  11.602  13.882   4.019
63299SOL    HW291730  11.530  13.859   4.150
63300SOL     OW91731  10.398   4.087   3.135
63300SOL    HW191732  10.331   4.132   3.187
63300SOL    HW291733  10.481   4.121   3.168
63301SOL     OW91734   7.987  11.340   4.251
63301SOL    HW191735   8.010  11.409   4.190
63301SOL    HW291736   8.017  11.372   4.336
63302SOL     OW91737  10.094  14.350   2.562
63302SOL    HW191738  10.139  14.422   2.605
63302SOL    HW291739  10.095  14.372   2.469
63303SOL     OW91740   8.216  11.220   7.199
63303SOL    HW191741   8.230  11.165   7.276
63303SOL    HW291742   8.211  11.157   7.126
63304SOL     OW91743  11.828   4.485   8.852
63304SOL    HW191744  11.811   4.401   8.895
63304SOL    HW291745  11.885   4.533   8.913
63305SOL     OW91746   8.393  10.978   9.218
63305SOL    HW191747   8.442  11.004   9.297
63305SOL    HW291748   8.435  10.897   9.189
63306SOL     OW91749   4.703   2.591   2.335
63306SOL    HW191750   4.631   2.528   2.333
63306SOL    HW291751   4.660   2.675   2.348
63307SOL     OW91752  10.992   0.144   1.398
63307SOL    HW191753  11.004   0.219   1.456
63307SOL    HW291754  11.024   0.069   1.447
63308SOL     OW91755   5.142   8.812  10.728
63308SOL    HW191756   5.232   8.801  10.698
63308SOL    HW291757   5.144   8.891  10.782
63309SOL     OW91758   7.955   1.040  13.225
63309SOL    HW191759   8.010   0.962  13.215
63309SOL    HW291760   7.931   1.064  13.135
63310SOL     OW91761   2.234  14.158   2.175
63310SOL    HW191762   2.291  14.096   2.131
63310SOL    HW291763   2.288  14.196   2.244
63311SOL     OW91764  10.018   0.288  13.632
63311SOL    HW191765  10.109   0.318  13.637
63311SOL    HW291766   9.976   0.322  13.710
63312SOL     OW91767   1.179  14.740   6.998
63312SOL    HW191768   1.087  14.734   7.024
63312SOL    HW291769   1.203  14.831   7.015
63313SOL     OW91770   2.886   3.671   7.301
63313SOL    HW191771   2.855   3.689   7.212
63313SOL    HW291772   2.887   3.575   7.307
63314SOL     OW91773   1.928   3.121   3.136
63314SOL    HW191774   1.955   3.095   3.224
63314SOL    HW291775   1.993   3.186   3.109
63315SOL     OW91776  13.446   4.169   0.801
63315SOL    HW191777  13.399   4.136   0.725
63315SOL    HW291778  13.486   4.092   0.841
63316SOL     OW91779  14.826   8.935  10.623
63316SOL    HW191780   0.015   8.917  10.554
63316SOL    HW291781  14.742   8.940  10.577
63317SOL     OW91782   2.087   5.226   8.178
63317SOL    HW191783   2.170   5.178   8.186
63317SOL    HW291784   2.019   5.160   8.193
63318SOL     OW91785  11.737   8.711  11.263
63318SOL    HW191786  11.764   8.674  11.179
63318SOL    HW291787  11.662   8.658  11.290
63319SOL     OW91788   8.326  14.420   1.583
63319SOL    HW191789   8.297  14.442   1.671
63319SOL    HW291790   8.421  14.421   1.587
63320SOL     OW91791   6.766   1.137   0.151
63320SOL    HW191792   6.729   1.187   0.078
63320SOL    HW291793   6.693   1.085   0.184
63321SOL     OW91794  10.387   3.942   1.511
63321SOL    HW191795  10.360   4.026   1.475
63321SOL    HW291796  10.322   3.880   1.478
63322SOL     OW91797   3.510   7.087   2.661
63322SOL    HW191798   3.582   7.034   2.627
63322SOL    HW291799   3.542   7.120   2.745
63323SOL     OW91800   6.766   6.759   8.746
63323SOL    HW191801   6.760   6.746   8.840
63323SOL    HW291802   6.757   6.672   8.708
63324SOL     OW91803  12.058   3.924   1.352
63324SOL    HW191804  12.133   3.866   1.366
63324SOL    HW291805  12.098   4.010   1.335
63325SOL     OW91806  10.137   1.953   4.704
63325SOL    HW191807  10.215   1.904   4.680
63325SOL    HW291808  10.124   1.934   4.797
63326SOL     OW91809   8.901  12.262   9.433
63326SOL    HW191810   8.891  12.191   9.497
63326SOL    HW291811   8.841  12.238   9.362
63327SOL     OW91812   7.919  13.076   5.849
63327SOL    HW191813   7.847  13.116   5.800
63327SOL    HW291814   7.879  13.005   5.898
63328SOL     OW91815  13.054   8.783   5.800
63328SOL    HW191816  12.990   8.839   5.756
63328SOL    HW291817  13.025   8.781   5.891
63329SOL     OW91818   3.763   2.258  10.735
63329SOL    HW191819   3.771   2.336  10.789
63329SOL    HW291820   3.819   2.193  10.778
63330SOL     OW91821  12.654   9.741  11.913
63330SOL    HW191822  12.718   9.703  11.973
63330SOL    HW291823  12.596   9.793  11.968
63331SOL     OW91824   1.960   3.443   6.293
63331SOL    HW191825   1.991   3.448   6.383
63331SOL    HW291826   1.873   3.404   6.299
63332SOL     OW91827   3.399   8.046   4.600
63332SOL    HW191828   3.318   8.062   4.648
63332SOL    HW291829   3.441   8.132   4.596
63333SOL     OW91830  11.394  14.710   6.346
63333SOL    HW191831  11.380  14.768   6.421
63333SOL    HW291832  11.471  14.746   6.302
63334SOL     OW91833   7.492   3.272   0.894
63334SOL    HW191834   7.513   3.353   0.940
63334SOL    HW291835   7.483   3.297   0.802
63335SOL     OW91836   2.236   3.970   8.929
63335SOL    HW191837   2.192   4.049   8.896
63335SOL    HW291838   2.186   3.946   9.007
63336SOL     OW91839   8.594  11.915   4.070
63336SOL    HW191840   8.629  11.878   3.989
63336SOL    HW291841   8.659  11.891   4.137
63337SOL     OW91842   8.162   7.506  10.958
63337SOL    HW191843   8.186   7.418  10.985
63337SOL    HW291844   8.069   7.501  10.938
63338SOL     OW91845   2.311   7.035   5.024
63338SOL    HW191846   2.250   7.109   5.015
63338SOL    HW291847   2.357   7.053   5.106
63339SOL     OW91848   6.583  13.080   0.273
63339SOL    HW191849   6.599  13.020   0.346
63339SOL    HW291850   6.488  13.083   0.264
63340SOL     OW91851   0.678   5.849   8.695
63340SOL    HW191852   0.715   5.811   8.775
63340SOL    HW291853   0.633   5.928   8.724
63341SOL     OW91854  10.998   4.893   1.031
63341SOL    HW191855  11.052   4.935   1.097
63341SOL    HW291856  10.908   4.906   1.061
63342SOL     OW91857  13.141  12.976   9.827
63342SOL    HW191858  13.075  13.042   9.843
63342SOL    HW291859  13.100  12.915   9.766
63343SOL     OW91860   4.380   7.896   1.267
63343SOL    HW191861   4.339   7.903   1.353
63343SOL    HW291862   4.473   7.915   1.283
63344SOL     OW91863   6.555  11.227   1.832
63344SOL    HW191864   6.553  11.318   1.804
63344SOL    HW291865   6.513  11.179   1.761
63345SOL     OW91866   4.352  12.422   4.038
63345SOL    HW191867   4.396  12.370   4.105
63345SOL    HW291868   4.414  12.493   4.018
63346SOL     OW91869   6.870  14.589  12.598
63346SOL    HW191870   6.844  14.504  12.562
63346SOL    HW291871   6.837  14.588  12.688
63347SOL     OW91872   5.569   6.377   1.190
63347SOL    HW191873   5.511   6.435   1.141
63347SOL    HW291874   5.519   6.353   1.268
63348SOL     OW91875   0.112   7.976   9.244
63348SOL    HW191876   0.171   8.020   9.183
63348SOL    HW291877   0.130   8.016   9.329
63349SOL     OW91878   5.244   5.668   7.524
63349SOL    HW191879   5.208   5.721   7.595
63349SOL    HW291880   5.216   5.711   7.444
63350SOL     OW91881   3.670   3.617   4.612
63350SOL    HW191882   3.702   3.610   4.522
63350SOL    HW291883   3.583   3.578   4.609
63351SOL     OW91884   3.709   6.141   6.423
63351SOL    HW191885   3.652   6.088   6.367
63351SOL    HW291886   3.795   6.135   6.382
63352SOL     OW91887   4.308   6.251   0.078
63352SOL    HW191888   4.252   6.296   0.143
63352SOL    HW291889   4.250   6.186   0.038
63353SOL     OW91890   9.862  13.590  14.066
63353SOL    HW191891   9.827  13.569  14.152
63353SOL    HW291892   9.868  13.686  14.065
63354SOL     OW91893   4.201   3.373   1.598
63354SOL    HW191894   4.257   3.298   1.619
63354SOL    HW291895   4.114   3.346   1.628
63355SOL     OW91896   0.177  11.028  13.565
63355SOL    HW191897   0.115  11.061  13.500
63355SOL    HW291898   0.122  10.984  13.631
63356SOL     OW91899   6.790   0.002   7.070
63356SOL    HW191900   6.727   0.039   7.133
63356SOL    HW291901   6.744  14.804   7.031
63357SOL     OW91902   6.687  14.312  13.946
63357SOL    HW191903   6.774  14.284  13.917
63357SOL    HW291904   6.642  14.339  13.866
63358SOL     OW91905   5.070   4.658  11.304
63358SOL    HW191906   5.075   4.701  11.389
63358SOL    HW291907   5.025   4.721  11.248
63359SOL     OW91908   6.960   2.707   2.484
63359SOL    HW191909   6.987   2.625   2.526
63359SOL    HW291910   6.899   2.680   2.415
63360SOL     OW91911   9.972   3.646  12.751
63360SOL    HW191912  10.010   3.627  12.666
63360SOL    HW291913   9.963   3.560  12.793
63361SOL     OW91914   6.757   2.919  13.758
63361SOL    HW191915   6.837   2.912  13.810
63361SOL    HW291916   6.752   3.011  13.733
63362SOL     OW91917   3.874   2.322   2.109
63362SOL    HW191918   3.814   2.249   2.124
63362SOL    HW291919   3.851   2.387   2.175
63363SOL     OW91920   8.003   6.715   3.644
63363SOL    HW191921   7.943   6.640   3.642
63363SOL    HW291922   7.976   6.769   3.570
63364SOL     OW91923   5.372   9.119   5.002
63364SOL    HW191924   5.397   9.088   5.089
63364SOL    HW291925   5.300   9.062   4.976
63365SOL     OW91926   8.917   4.733   4.251
63365SOL    HW191927   8.852   4.691   4.195
63365SOL    HW291928   8.985   4.667   4.263
63366SOL     OW91929   7.571   0.778   4.567
63366SOL    HW191930   7.617   0.851   4.609
63366SOL    HW291931   7.523   0.736   4.639
63367SOL     OW91932   8.487  13.634   9.387
63367SOL    HW191933   8.483  13.636   9.291
63367SOL    HW291934   8.396  13.628   9.415
63368SOL     OW91935   7.168  14.043   7.987
63368SOL    HW191936   7.192  14.067   7.898
63368SOL    HW291937   7.087  14.091   8.005
63369SOL     OW91938   8.847   8.202   0.408
63369SOL    HW191939   8.850   8.161   0.322
63369SOL    HW291940   8.876   8.292   0.393
63370SOL     OW91941   3.666   2.782   5.898
63370SOL    HW191942   3.720   2.838   5.843
63370SOL    HW291943   3.727   2.743   5.960
63371SOL     OW91944  14.215   3.769   2.599
63371SOL    HW191945  14.264   3.811   2.529
63371SOL    HW291946  14.154   3.836   2.630
63372SOL     OW91947   4.925  11.211   6.089
63372SOL    HW191948   4.836  11.201   6.054
63372SOL    HW291949   4.913  11.229   6.182
63373SOL     OW91950   3.098   0.430   6.079
63373SOL    HW191951   3.043   0.361   6.117
63373SOL    HW291952   3.147   0.464   6.154
63374SOL     OW91953  11.414   9.783   3.007
63374SOL    HW191954  11.369   9.843   2.947
63374SOL    HW291955  11.479   9.739   2.952
63375SOL     OW91956  14.069   5.731   7.188
63375SOL    HW191957  14.088   5.651   7.138
63375SOL    HW291958  14.085   5.802   7.126
63376SOL     OW91959  11.980   5.381  13.478
63376SOL    HW191960  11.990   5.439  13.554
63376SOL    HW291961  12.064   5.336  13.472
63377SOL     OW91962   5.679  13.507   0.195
63377SOL    HW191963   5.722  13.483   0.112
63377SOL    HW291964   5.747  13.551   0.245
63378SOL     OW91965  11.286   8.909  13.312
63378SOL    HW191966  11.298   8.822  13.351
63378SOL    HW291967  11.315   8.899  13.222
63379SOL     OW91968   9.122  13.630   8.503
63379SOL    HW191969   9.148  13.634   8.411
63379SOL    HW291970   9.205  13.621   8.550
63380SOL     OW91971   6.551   3.978   0.291
63380SOL    HW191972   6.608   4.003   0.363
63380SOL    HW291973   6.463   3.977   0.328
63381SOL     OW91974   8.404   5.488   3.451
63381SOL    HW191975   8.461   5.462   3.522
63381SOL    HW291976   8.411   5.583   3.447
63382SOL     OW91977   7.503   4.459   9.116
63382SOL    HW191978   7.413   4.450   9.147
63382SOL    HW291979   7.555   4.475   9.195
63383SOL     OW91980  13.475   0.981   8.432
63383SOL    HW191981  13.516   0.895   8.427
63383SOL    HW291982  13.434   0.984   8.518
63384SOL     OW91983  11.132   0.376   7.669
63384SOL    HW191984  11.162   0.296   7.712
63384SOL    HW291985  11.038   0.362   7.656
63385SOL     OW91986   0.336  10.295   3.076
63385SOL    HW191987   0.257  10.268   3.122
63385SOL    HW291988   0.310  10.300   2.984
63386SOL     OW91989   5.072   3.789  13.829
63386SOL    HW191990   5.121   3.759  13.905
63386SOL    HW291991   5.104   3.735  13.757
63387SOL     OW91992  11.242  14.417   7.469
63387SOL    HW191993  11.239  14.507   7.435
63387SOL    HW291994  11.166  14.374   7.430
63388SOL     OW91995   9.359   5.045  14.624
63388SOL    HW191996   9.400   5.105  14.562
63388SOL    HW291997   9.391   4.958  14.598
63389SOL     OW91998  13.428   4.681   4.962
63389SOL    HW191999  13.381   4.761   4.985
63389SOL    HW292000  13.480   4.660   5.040
63390SOL     OW92001   4.861   0.778   5.843
63390SOL    HW192002   4.805   0.779   5.765
63390SOL    HW292003   4.808   0.820   5.911
63391SOL     OW92004   7.857   4.860   0.518
63391SOL    HW192005   7.877   4.927   0.584
63391SOL    HW292006   7.765   4.837   0.535
63392SOL     OW92007  11.093  11.210  14.660
63392SOL    HW192008  11.159  11.232  14.726
63392SOL    HW292009  11.126  11.248  14.579
63393SOL     OW92010  11.926  12.955   6.409
63393SOL    HW192011  11.883  13.036   6.434
63393SOL    HW292012  11.857  12.902   6.370
63394SOL     OW92013  11.305  10.013  13.450
63394SOL    HW192014  11.330   9.965  13.371
63394SOL    HW292015  11.271   9.946  13.510
63395SOL     OW92016  10.247   7.632   2.923
63395SOL    HW192017  10.255   7.710   2.979
63395SOL    HW292018  10.230   7.667   2.836
63396SOL     OW92019  10.557   7.743   6.964
63396SOL    HW192020  10.474   7.781   6.992
63396SOL    HW292021  10.536   7.696   6.884
63397SOL     OW92022   9.616   8.700   8.967
63397SOL    HW192023   9.524   8.687   8.991
63397SOL    HW292024   9.663   8.632   9.016
63398SOL     OW92025   1.550   6.626   7.758
63398SOL    HW192026   1.583   6.645   7.846
63398SOL    HW292027   1.629   6.623   7.703
63399SOL     OW92028  11.306   8.334   5.109
63399SOL    HW192029  11.311   8.283   5.028
63399SOL    HW292030  11.370   8.293   5.167
63400SOL     OW92031   8.214   2.689  10.576
63400SOL    HW192032   8.169   2.760  10.621
63400SOL    HW292033   8.303   2.689  10.613
63401SOL     OW92034  13.359   3.951   3.501
63401SOL    HW192035  13.299   3.975   3.430
63401SOL    HW292036  13.348   3.856   3.511
63402SOL     OW92037   9.255   6.283  10.703
63402SOL    HW192038   9.259   6.189  10.686
63402SOL    HW292039   9.171   6.295  10.747
63403SOL     OW92040  12.541   4.693  12.273
63403SOL    HW192041  12.468   4.632  12.288
63403SOL    HW292042  12.549   4.740  12.356
63404SOL     OW92043  13.853   0.201   8.625
63404SOL    HW192044  13.893   0.190   8.539
63404SOL    HW292045  13.774   0.148   8.621
63405SOL     OW92046   5.071   7.231   5.088
63405SOL    HW192047   5.066   7.144   5.049
63405SOL    HW292048   5.157   7.234   5.129
63406SOL     OW92049   6.895   9.865   2.965
63406SOL    HW192050   6.976   9.852   2.916
63406SOL    HW292051   6.918   9.927   3.034
63407SOL     OW92052   6.477   5.332   6.394
63407SOL    HW192053   6.439   5.407   6.349
63407SOL    HW292054   6.407   5.266   6.394
63408SOL     OW92055   4.885   0.626   9.372
63408SOL    HW192056   4.927   0.659   9.451
63408SOL    HW292057   4.792   0.623   9.393
63409SOL     OW92058   1.042   8.544  11.831
63409SOL    HW192059   1.070   8.634  11.846
63409SOL    HW292060   0.982   8.549  11.756
63410SOL     OW92061   1.537   8.727   0.146
63410SOL    HW192062   1.555   8.643   0.188
63410SOL    HW292063   1.618   8.749   0.100
63411SOL     OW92064  11.239   3.194   7.943
63411SOL    HW192065  11.201   3.125   7.996
63411SOL    HW292066  11.172   3.263   7.941
63412SOL     OW92067   0.723   9.002  13.102
63412SOL    HW192068   0.664   9.063  13.147
63412SOL    HW292069   0.769   9.056  13.038
63413SOL     OW92070   4.297   7.731   5.152
63413SOL    HW192071   4.323   7.815   5.189
63413SOL    HW292072   4.377   7.695   5.114
63414SOL     OW92073   7.375  13.870   9.401
63414SOL    HW192074   7.405  13.797   9.347
63414SOL    HW292075   7.349  13.937   9.338
63415SOL     OW92076   3.349  14.392   4.478
63415SOL    HW192077   3.422  14.450   4.457
63415SOL    HW292078   3.273  14.430   4.433
63416SOL     OW92079  10.434   4.236   6.514
63416SOL    HW192080  10.527   4.219   6.498
63416SOL    HW292081  10.406   4.287   6.438
63417SOL     OW92082   7.715  10.251  12.274
63417SOL    HW192083   7.790  10.310  12.273
63417SOL    HW292084   7.724  10.201  12.355
63418SOL     OW92085  13.307  11.623  11.933
63418SOL    HW192086  13.309  11.655  11.843
63418SOL    HW292087  13.223  11.577  11.941
63419SOL     OW92088   4.623  10.647  11.208
63419SOL    HW192089   4.658  10.603  11.131
63419SOL    HW292090   4.540  10.683  11.180
63420SOL     OW92091   5.940   5.889   5.683
63420SOL    HW192092   5.872   5.833   5.721
63420SOL    HW292093   5.997   5.828   5.635
63421SOL     OW92094  11.791   1.977   9.167
63421SOL    HW192095  11.746   2.056   9.197
63421SOL    HW292096  11.797   1.922   9.246
63422SOL     OW92097   1.974   4.727  14.798
63422SOL    HW192098   1.904   4.776  14.754
63422SOL    HW292099   1.934   4.643  14.821
63423SOL     OW92100  12.283   1.259   1.267
63423SOL    HW192101  12.204   1.304   1.235
63423SOL    HW292102  12.251   1.173   1.295
63424SOL     OW92103  14.465   5.559   3.075
63424SOL    HW192104  14.506   5.581   3.159
63424SOL    HW292105  14.413   5.636   3.052
63425SOL     OW92106   0.553   5.265   4.282
63425SOL    HW192107   0.545   5.178   4.245
63425SOL    HW292108   0.498   5.320   4.227
63426SOL     OW92109   3.797   5.366   1.787
63426SOL    HW192110   3.855   5.390   1.859
63426SOL    HW292111   3.856   5.338   1.717
63427SOL     OW92112  13.783   6.356   7.242
63427SOL    HW192113  13.734   6.376   7.162
63427SOL    HW292114  13.815   6.441   7.273
63428SOL     OW92115  11.842  13.629   2.532
63428SOL    HW192116  11.784  13.638   2.456
63428SOL    HW292117  11.839  13.715   2.574
63429SOL     OW92118   9.285   1.343   6.846
63429SOL    HW192119   9.346   1.409   6.879
63429SOL    HW292120   9.310   1.263   6.891
63430SOL     OW92121   2.889   8.847   4.018
63430SOL    HW192122   2.833   8.809   3.950
63430SOL    HW292123   2.963   8.885   3.969
63431SOL     OW92124  13.485  10.067   9.664
63431SOL    HW192125  13.463  10.003   9.732
63431SOL    HW292126  13.578  10.055   9.649
63432SOL     OW92127   5.688   7.422   7.529
63432SOL    HW192128   5.723   7.346   7.575
63432SOL    HW292129   5.645   7.385   7.452
63433SOL     OW92130   6.749   1.678   4.809
63433SOL    HW192131   6.781   1.768   4.806
63433SOL    HW292132   6.738   1.659   4.902
63434SOL     OW92133   9.564  12.016   0.517
63434SOL    HW192134   9.597  12.095   0.476
63434SOL    HW292135   9.469  12.019   0.506
63435SOL     OW92136  11.578  14.639  10.617
63435SOL    HW192137  11.539  14.673  10.698
63435SOL    HW292138  11.551  14.702  10.550
63436SOL     OW92139  12.132  13.563   5.055
63436SOL    HW192140  12.058  13.567   4.995
63436SOL    HW292141  12.140  13.653   5.088
63437SOL     OW92142  13.552   6.525   5.019
63437SOL    HW192143  13.591   6.566   4.942
63437SOL    HW292144  13.626   6.489   5.068
63438SOL     OW92145   2.107   1.896   8.148
63438SOL    HW192146   2.071   1.824   8.097
63438SOL    HW292147   2.115   1.968   8.085
63439SOL     OW92148  12.160  13.923   9.974
63439SOL    HW192149  12.239  13.902   9.924
63439SOL    HW292150  12.193  13.944  10.062
63440SOL     OW92151  12.136   9.501   4.966
63440SOL    HW192152  12.054   9.545   4.989
63440SOL    HW292153  12.120   9.409   4.987
63441SOL     OW92154   6.032   2.295  13.804
63441SOL    HW192155   5.982   2.256  13.733
63441SOL    HW292156   5.971   2.302  13.877
63442SOL     OW92157   7.075  12.643   0.116
63442SOL    HW192158   7.158  12.602   0.093
63442SOL    HW292159   7.087  12.678   0.204
63443SOL     OW92160   5.119  10.298   6.173
63443SOL    HW192161   5.168  10.380   6.170
63443SOL    HW292162   5.161  10.248   6.243
63444SOL     OW92163   5.246   2.664  10.078
63444SOL    HW192164   5.205   2.699  10.157
63444SOL    HW292165   5.285   2.740  10.035
63445SOL     OW92166   3.575  13.977  12.062
63445SOL    HW192167   3.650  13.922  12.086
63445SOL    HW292168   3.612  14.065  12.052
63446SOL     OW92169  14.206   1.167   7.635
63446SOL    HW192170  14.191   1.072   7.634
63446SOL    HW292171  14.192   1.194   7.544
63447SOL     OW92172  10.960   2.265   8.306
63447SOL    HW192173  10.936   2.350   8.268
63447SOL    HW292174  10.975   2.284   8.399
63448SOL     OW92175   4.190   2.666   3.490
63448SOL    HW192176   4.142   2.749   3.496
63448SOL    HW292177   4.122   2.600   3.476
63449SOL     OW92178   9.673  11.605  14.319
63449SOL    HW192179   9.736  11.577  14.385
63449SOL    HW292180   9.647  11.693  14.345
63450SOL     OW92181   3.564  14.456  13.463
63450SOL    HW192182   3.553  14.504  13.381
63450SOL    HW292183   3.513  14.506  13.527
63451SOL     OW92184   0.158  12.582   8.278
63451SOL    HW192185   0.106  12.567   8.358
63451SOL    HW292186   0.115  12.529   8.211
63452SOL     OW92187   4.618  10.755   3.855
63452SOL    HW192188   4.600  10.810   3.779
63452SOL    HW292189   4.604  10.666   3.823
63453SOL     OW92190  10.402   4.834   4.600
63453SOL    HW192191  10.427   4.896   4.668
63453SOL    HW292192  10.337   4.881   4.547
63454SOL     OW92193  14.606  13.938   6.312
63454SOL    HW192194  14.547  13.865   6.293
63454SOL    HW292195  14.662  13.946   6.235
63455SOL     OW92196  11.244  10.082   1.532
63455SOL    HW192197  11.226  10.053   1.443
63455SOL    HW292198  11.190  10.160   1.544
63456SOL     OW92199  11.955   3.243   0.618
63456SOL    HW192200  11.961   3.149   0.631
63456SOL    HW292201  11.981   3.281   0.702
63457SOL     OW92202  12.028   8.696  11.742
63457SOL    HW192203  11.979   8.777  11.734
63457SOL    HW292204  12.064   8.698  11.830
63458SOL     OW92205  13.189  12.782   4.451
63458SOL    HW192206  13.220  12.762   4.363
63458SOL    HW292207  13.265  12.768   4.507
63459SOL     OW92208   3.098   1.279   2.590
63459SOL    HW192209   3.070   1.300   2.679
63459SOL    HW292210   3.051   1.341   2.534
63460SOL     OW92211   8.609   8.377   8.103
63460SOL    HW192212   8.684   8.399   8.046
63460SOL    HW292213   8.608   8.447   8.168
63461SOL     OW92214   5.899  14.795   5.483
63461SOL    HW192215   5.994  14.784   5.483
63461SOL    HW292216   5.883  14.873   5.536
63462SOL     OW92217  10.697  14.689  11.423
63462SOL    HW192218  10.765  14.743  11.383
63462SOL    HW292219  10.726  14.677  11.513
63463SOL     OW92220   4.242   7.849   3.026
63463SOL    HW192221   4.282   7.763   3.031
63463SOL    HW292222   4.152   7.836   3.055
63464SOL     OW92223   8.922  10.824  10.354
63464SOL    HW192224   8.926  10.882  10.277
63464SOL    HW292225   8.845  10.854  10.402
63465SOL     OW92226   7.685  14.542   6.534
63465SOL    HW192227   7.754  14.520   6.471
63465SOL    HW292228   7.732  14.574   6.611
63466SOL     OW92229  14.619  12.089   0.110
63466SOL    HW192230  14.701  12.119   0.147
63466SOL    HW292231  14.644  12.033   0.036
63467SOL     OW92232  11.455   9.753   9.494
63467SOL    HW192233  11.484   9.831   9.541
63467SOL    HW292234  11.360   9.754   9.502
63468SOL     OW92235  10.834   8.107  13.296
63468SOL    HW192236  10.896   8.091  13.368
63468SOL    HW292237  10.871   8.182  13.249
63469SOL     OW92238   7.936   5.073   0.669
63469SOL    HW192239   7.933   5.152   0.615
63469SOL    HW292240   8.028   5.047   0.669
63470SOL     OW92241   6.380  11.243   2.474
63470SOL    HW192242   6.463  11.279   2.505
63470SOL    HW292243   6.321  11.252   2.549
63471SOL     OW92244   7.026   3.840  11.039
63471SOL    HW192245   7.023   3.910  10.973
63471SOL    HW292246   7.116   3.844  11.073
63472SOL     OW92247  13.220  11.388  10.777
63472SOL    HW192248  13.251  11.471  10.813
63472SOL    HW292249  13.210  11.404  10.683
63473SOL     OW92250   7.762   8.365   0.909
63473SOL    HW192251   7.759   8.269   0.912
63473SOL    HW292252   7.818   8.390   0.982
63474SOL     OW92253   4.927   9.855   0.868
63474SOL    HW192254   4.876   9.934   0.885
63474SOL    HW292255   4.863   9.784   0.873
63475SOL     OW92256   8.022   1.858   7.955
63475SOL    HW192257   7.970   1.790   7.999
63475SOL    HW292258   8.067   1.812   7.885
63476SOL     OW92259   1.512   4.284  10.034
63476SOL    HW192260   1.464   4.311   9.956
63476SOL    HW292261   1.601   4.268  10.003
63477SOL     OW92262   2.177   3.551  14.372
63477SOL    HW192263   2.233   3.551  14.294
63477SOL    HW292264   2.189   3.638  14.410
63478SOL     OW92265  13.560   1.753   4.540
63478SOL    HW192266  13.598   1.838   4.563
63478SOL    HW292267  13.628   1.689   4.565
63479SOL     OW92268  12.973  13.722  10.386
63479SOL    HW192269  12.936  13.654  10.442
63479SOL    HW292270  13.065  13.697  10.376
63480SOL     OW92271   2.695   9.093   1.435
63480SOL    HW192272   2.734   9.024   1.380
63480SOL    HW292273   2.699   9.057   1.523
63481SOL     OW92274   4.362   9.887  10.765
63481SOL    HW192275   4.419   9.899  10.841
63481SOL    HW292276   4.325   9.973  10.748
63482SOL     OW92277   1.572   9.460  12.379
63482SOL    HW192278   1.591   9.395  12.311
63482SOL    HW292279   1.497   9.424  12.427
63483SOL     OW92280   2.446   9.891  11.919
63483SOL    HW192281   2.397   9.814  11.947
63483SOL    HW292282   2.392   9.965  11.948
63484SOL     OW92283   1.642   1.938  10.734
63484SOL    HW192284   1.692   1.938  10.815
63484SOL    HW292285   1.593   2.021  10.736
63485SOL     OW92286   2.813   1.517   5.015
63485SOL    HW192287   2.728   1.472   5.016
63485SOL    HW292288   2.872   1.458   5.062
63486SOL     OW92289  10.415  13.107   4.532
63486SOL    HW192290  10.452  13.072   4.451
63486SOL    HW292291  10.486  13.102   4.596
63487SOL     OW92292   4.027   5.645   3.900
63487SOL    HW192293   4.032   5.736   3.870
63487SOL    HW292294   3.940   5.637   3.939
63488SOL     OW92295  12.595  11.646  14.249
63488SOL    HW192296  12.652  11.720  14.269
63488SOL    HW292297  12.653  11.583  14.206
63489SOL     OW92298   0.890   0.608   2.971
63489SOL    HW192299   0.940   0.615   3.053
63489SOL    HW292300   0.814   0.664   2.985
63490SOL     OW92301   5.618   2.705  11.280
63490SOL    HW192302   5.710   2.708  11.305
63490SOL    HW292303   5.619   2.700  11.184
63491SOL     OW92304   4.216  13.917  13.781
63491SOL    HW192305   4.163  13.895  13.705
63491SOL    HW292306   4.306  13.914  13.750
63492SOL     OW92307   7.640  12.483   2.598
63492SOL    HW192308   7.663  12.536   2.521
63492SOL    HW292309   7.702  12.411   2.596
63493SOL     OW92310   9.957   3.622   5.319
63493SOL    HW192311   9.900   3.672   5.378
63493SOL    HW292312  10.045   3.655   5.336
63494SOL     OW92313  11.281   5.932   7.054
63494SOL    HW192314  11.286   5.869   6.983
63494SOL    HW292315  11.324   6.011   7.020
63495SOL     OW92316  10.786   4.308  13.533
63495SOL    HW192317  10.717   4.367  13.563
63495SOL    HW292318  10.775   4.302  13.439
63496SOL     OW92319   1.215   4.267   2.920
63496SOL    HW192320   1.129   4.249   2.880
63496SOL    HW292321   1.277   4.254   2.848
63497SOL     OW92322  14.245  10.722   4.741
63497SOL    HW192323  14.249  10.817   4.725
63497SOL    HW292324  14.335  10.692   4.733
63498SOL     OW92325   6.641   9.690   6.805
63498SOL    HW192326   6.603   9.662   6.722
63498SOL    HW292327   6.594   9.639   6.871
63499SOL     OW92328   6.082  14.254  14.259
63499SOL    HW192329   5.992  14.242  14.291
63499SOL    HW292330   6.075  14.244  14.164
63500SOL     OW92331  14.270  14.529   7.505
63500SOL    HW192332  14.202  14.588   7.473
63500SOL    HW292333  14.329  14.518   7.430
63501SOL     OW92334   2.354   8.517  13.743
63501SOL    HW192335   2.373   8.425  13.723
63501SOL    HW292336   2.349   8.559  13.657
63502SOL     OW92337   3.859   8.006  12.922
63502SOL    HW192338   3.954   8.010  12.938
63502SOL    HW292339   3.849   7.941  12.853
63503SOL     OW92340   1.596   6.361   8.548
63503SOL    HW192341   1.640   6.427   8.602
63503SOL    HW292342   1.538   6.412   8.491
63504SOL     OW92343   8.701  10.080   7.654
63504SOL    HW192344   8.632  10.107   7.593
63504SOL    HW292345   8.695   9.985   7.655
63505SOL     OW92346  10.894  12.078   8.299
63505SOL    HW192347  10.888  12.158   8.247
63505SOL    HW292348  10.894  12.109   8.390
63506SOL     OW92349   6.153   4.174  11.466
63506SOL    HW192350   6.245   4.196  11.476
63506SOL    HW292351   6.142   4.162  11.372
63507SOL     OW92352   4.051   3.470   4.117
63507SOL    HW192353   4.043   3.392   4.172
63507SOL    HW292354   4.044   3.438   4.027
63508SOL     OW92355   1.156   3.012   0.094
63508SOL    HW192356   1.204   2.989   0.015
63508SOL    HW292357   1.106   3.090   0.071
63509SOL     OW92358   1.047   2.873   0.301
63509SOL    HW192359   1.083   2.925   0.229
63509SOL    HW292360   1.122   2.851   0.355
63510SOL     OW92361   4.766   5.323   6.143
63510SOL    HW192362   4.678   5.359   6.129
63510SOL    HW292363   4.808   5.386   6.201
63511SOL     OW92364   8.788  14.846  11.694
63511SOL    HW192365   8.700  14.856  11.658
63511SOL    HW292366   8.840  14.813  11.620
63512SOL     OW92367   2.890   3.251  14.726
63512SOL    HW192368   2.925   3.246  14.637
63512SOL    HW292369   2.867   3.343  14.736
63513SOL     OW92370   4.121   0.386  13.019
63513SOL    HW192371   4.150   0.474  12.993
63513SOL    HW292372   4.040   0.401  13.067
63514SOL     OW92373   6.480   6.059   3.738
63514SOL    HW192374   6.452   5.968   3.723
63514SOL    HW292375   6.562   6.050   3.787
63515SOL     OW92376  14.814  14.435   3.117
63515SOL    HW192377  14.772  14.414   3.033
63515SOL    HW292378  14.846  14.524   3.106
63516SOL     OW92379   6.833  12.908  14.049
63516SOL    HW192380   6.817  12.814  14.051
63516SOL    HW292381   6.893  12.923  14.122
63517SOL     OW92382  14.042   9.504  12.099
63517SOL    HW192383  13.947   9.497  12.105
63517SOL    HW292384  14.061   9.595  12.120
63518SOL     OW92385   2.470  11.998   2.673
63518SOL    HW192386   2.517  11.937   2.616
63518SOL    HW292387   2.496  12.084   2.642
63519SOL     OW92388   6.041  14.548   2.626
63519SOL    HW192389   6.073  14.625   2.579
63519SOL    HW292390   5.952  14.571   2.651
63520SOL     OW92391   7.258  13.335   5.571
63520SOL    HW192392   7.202  13.281   5.516
63520SOL    HW292393   7.344  13.334   5.528
63521SOL     OW92394   3.820  10.503   4.131
63521SOL    HW192395   3.876  10.560   4.183
63521SOL    HW292396   3.843  10.522   4.040
63522SOL     OW92397   5.540   4.293  11.419
63522SOL    HW192398   5.542   4.286  11.514
63522SOL    HW292399   5.447   4.307  11.398
63523SOL     OW92400   7.549   3.517   0.981
63523SOL    HW192401   7.538   3.550   0.892
63523SOL    HW292402   7.488   3.568   1.035
63524SOL     OW92403  13.460  14.498  13.858
63524SOL    HW192404  13.516  14.529  13.787
63524SOL    HW292405  13.520  14.483  13.931
63525SOL     OW92406  13.784  14.326   2.132
63525SOL    HW192407  13.860  14.363   2.176
63525SOL    HW292408  13.731  14.402   2.106
63526SOL     OW92409   7.119  10.196   0.024
63526SOL    HW192410   7.043  10.246   0.051
63526SOL    HW292411   7.087  10.106   0.015
63527SOL     OW92412   8.612   3.767   8.083
63527SOL    HW192413   8.518   3.771   8.063
63527SOL    HW292414   8.629   3.674   8.102
63528SOL     OW92415  14.846  10.686  11.038
63528SOL    HW192416  14.869  10.703  10.946
63528SOL    HW292417   0.055  10.680  11.083
63529SOL     OW92418   3.982   0.426   3.475
63529SOL    HW192419   4.030   0.362   3.421
63529SOL    HW292420   4.012   0.408   3.565
63530SOL     OW92421   1.462   6.576   6.220
63530SOL    HW192422   1.517   6.580   6.299
63530SOL    HW292423   1.524   6.557   6.149
63531SOL     OW92424   9.942   0.993   8.348
63531SOL    HW192425  10.037   0.995   8.342
63531SOL    HW292426   9.920   1.064   8.408
63532SOL     OW92427  10.047   4.799   8.145
63532SOL    HW192428  10.100   4.877   8.159
63532SOL    HW292429  10.110   4.729   8.130
63533SOL     OW92430  11.728  10.452  11.843
63533SOL    HW192431  11.702  10.399  11.767
63533SOL    HW292432  11.692  10.405  11.918
63534SOL     OW92433   1.622  12.990   8.477
63534SOL    HW192434   1.654  12.964   8.564
63534SOL    HW292435   1.617  13.085   8.481
63535SOL     OW92436   7.535  14.672   6.912
63535SOL    HW192437   7.621  14.630   6.921
63535SOL    HW292438   7.485  14.642   6.987
63536SOL     OW92439  14.184  12.083   3.736
63536SOL    HW192440  14.215  12.151   3.676
63536SOL    HW292441  14.110  12.042   3.690
63537SOL     OW92442  11.184  14.791   2.958
63537SOL    HW192443  11.188  14.732   2.883
63537SOL    HW292444  11.167  14.734   3.033
63538SOL     OW92445   4.865  11.918   7.574
63538SOL    HW192446   4.859  12.014   7.580
63538SOL    HW292447   4.935  11.894   7.634
63539SOL     OW92448   3.266  12.960   4.945
63539SOL    HW192449   3.274  12.865   4.944
63539SOL    HW292450   3.344  12.991   4.897
63540SOL     OW92451  13.961   3.756  11.489
63540SOL    HW192452  13.889   3.736  11.429
63540SOL    HW292453  14.029   3.794  11.433
63541SOL     OW92454   6.758   0.621  13.579
63541SOL    HW192455   6.722   0.675  13.649
63541SOL    HW292456   6.852   0.617  13.597
63542SOL     OW92457  12.526   8.310  13.276
63542SOL    HW192458  12.565   8.319  13.363
63542SOL    HW292459  12.476   8.392  13.264
63543SOL     OW92460  13.701   0.198   7.076
63543SOL    HW192461  13.754   0.277   7.069
63543SOL    HW292462  13.613   0.225   7.048
63544SOL     OW92463   4.541   6.367   1.734
63544SOL    HW192464   4.507   6.443   1.686
63544SOL    HW292465   4.471   6.302   1.729
63545SOL     OW92466   0.465   7.975   4.946
63545SOL    HW192467   0.510   8.056   4.923
63545SOL    HW292468   0.533   7.908   4.944
63546SOL     OW92469   7.181   7.422  13.153
63546SOL    HW192470   7.085   7.419  13.157
63546SOL    HW292471   7.206   7.341  13.107
63547SOL     OW92472   0.484   1.186  13.288
63547SOL    HW192473   0.553   1.229  13.237
63547SOL    HW292474   0.407   1.242  13.275
63548SOL     OW92475   9.266   3.451  13.766
63548SOL    HW192476   9.334   3.490  13.710
63548SOL    HW292477   9.184   3.492  13.737
63549SOL     OW92478   0.473   2.919  11.753
63549SOL    HW192479   0.417   2.977  11.805
63549SOL    HW292480   0.413   2.879  11.690
63550SOL     OW92481   9.874   4.348   5.598
63550SOL    HW192482   9.918   4.425   5.635
63550SOL    HW292483   9.802   4.330   5.659
63551SOL     OW92484   0.313   3.756  12.562
63551SOL    HW192485   0.331   3.675  12.610
63551SOL    HW292486   0.398   3.784  12.529
63552SOL     OW92487   0.110  12.155   0.789
63552SOL    HW192488   0.123  12.200   0.706
63552SOL    HW292489   0.028  12.107   0.778
63553SOL     OW92490   8.785  12.398  11.500
63553SOL    HW192491   8.756  12.324  11.553
63553SOL    HW292492   8.813  12.360  11.417
63554SOL     OW92493   6.166   5.636   1.395
63554SOL    HW192494   6.119   5.641   1.478
63554SOL    HW292495   6.245   5.585   1.414
63555SOL     OW92496   9.807  11.250   5.738
63555SOL    HW192497   9.867  11.177   5.724
63555SOL    HW292498   9.825  11.311   5.667
63556SOL     OW92499   4.178  10.755   6.403
63556SOL    HW192500   4.113  10.819   6.376
63556SOL    HW292501   4.234  10.802   6.465
63557SOL     OW92502   4.080   2.664   0.567
63557SOL    HW192503   4.095   2.570   0.581
63557SOL    HW292504   4.130   2.685   0.488
63558SOL     OW92505   7.291  10.179   8.927
63558SOL    HW192506   7.297  10.091   8.891
63558SOL    HW292507   7.370  10.223   8.897
63559SOL     OW92508  12.045  10.554   5.888
63559SOL    HW192509  12.088  10.556   5.973
63559SOL    HW292510  12.096  10.490   5.837
63560SOL     OW92511  10.561   9.016  13.968
63560SOL    HW192512  10.595   8.958  13.900
63560SOL    HW292513  10.535   9.095  13.921
63561SOL     OW92514  12.613  11.353   3.465
63561SOL    HW192515  12.608  11.282   3.402
63561SOL    HW292516  12.578  11.429   3.419
63562SOL     OW92517   7.491  13.375  12.294
63562SOL    HW192518   7.578  13.392  12.260
63562SOL    HW292519   7.496  13.286  12.331
63563SOL     OW92520   9.395   4.017  12.550
63563SOL    HW192521   9.322   4.018  12.487
63563SOL    HW292522   9.461   3.961  12.509
63564SOL     OW92523   8.082  14.670   8.683
63564SOL    HW192524   8.002  14.619   8.695
63564SOL    HW292525   8.060  14.732   8.613
63565SOL     OW92526  12.241  11.801  10.603
63565SOL    HW192527  12.333  11.773  10.607
63565SOL    HW292528  12.221  11.827  10.693
63566SOL     OW92529  14.690   0.190  10.426
63566SOL    HW192530  14.731   0.269  10.390
63566SOL    HW292531  14.686   0.129  10.352
63567SOL     OW92532  13.607  12.835   2.087
63567SOL    HW192533  13.630  12.927   2.075
63567SOL    HW292534  13.689  12.792   2.108
63568SOL     OW92535  12.292   4.201   6.904
63568SOL    HW192536  12.346   4.236   6.975
63568SOL    HW292537  12.330   4.237   6.824
63569SOL     OW92538  13.494   4.434   2.790
63569SOL    HW192539  13.506   4.458   2.698
63569SOL    HW292540  13.507   4.515   2.839
63570SOL     OW92541   3.136   8.456   0.644
63570SOL    HW192542   3.054   8.458   0.596
63570SOL    HW292543   3.111   8.467   0.736
63571SOL     OW92544   7.888  10.283  11.897
63571SOL    HW192545   7.900  10.301  11.804
63571SOL    HW292546   7.977  10.275  11.931
63572SOL     OW92547   2.937   0.583   5.020
63572SOL    HW192548   2.982   0.545   4.944
63572SOL    HW292549   2.956   0.677   5.015
63573SOL     OW92550   6.175  10.185   4.243
63573SOL    HW192551   6.089  10.225   4.224
63573SOL    HW292552   6.170  10.098   4.204
63574SOL     OW92553   1.988  12.110  14.653
63574SOL    HW192554   2.044  12.054  14.706
63574SOL    HW292555   1.928  12.050  14.610
63575SOL     OW92556   0.960  14.648  12.135
63575SOL    HW192557   0.911  14.691  12.205
63575SOL    HW292558   0.895  14.629  12.068
63576SOL     OW92559  11.289   4.844   3.852
63576SOL    HW192560  11.266   4.774   3.913
63576SOL    HW292561  11.339   4.906   3.905
63577SOL     OW92562  14.377   9.727   5.605
63577SOL    HW192563  14.433   9.694   5.676
63577SOL    HW292564  14.426   9.706   5.525
63578SOL     OW92565   0.390   6.113   9.779
63578SOL    HW192566   0.298   6.093   9.758
63578SOL    HW292567   0.420   6.163   9.703
63579SOL     OW92568   1.428   1.225   9.555
63579SOL    HW192569   1.481   1.247   9.632
63579SOL    HW292570   1.451   1.292   9.491
63580SOL     OW92571   3.211   9.947  14.644
63580SOL    HW192572   3.242  10.030  14.609
63580SOL    HW292573   3.135   9.969  14.696
63581SOL     OW92574   6.306   2.288   7.313
63581SOL    HW192575   6.266   2.201   7.314
63581SOL    HW292576   6.267   2.331   7.236
63582SOL     OW92577  11.198   8.690   2.901
63582SOL    HW192578  11.174   8.763   2.958
63582SOL    HW292579  11.234   8.732   2.823
63583SOL     OW92580   4.929   5.987   9.514
63583SOL    HW192581   4.964   5.999   9.425
63583SOL    HW292582   5.002   5.951   9.563
63584SOL     OW92583   5.377   1.213   9.012
63584SOL    HW192584   5.469   1.217   8.987
63584SOL    HW292585   5.379   1.186   9.104
63585SOL     OW92586   8.298   1.401  13.351
63585SOL    HW192587   8.214   1.444  13.364
63585SOL    HW292588   8.296   1.372  13.260
63586SOL     OW92589   3.751  10.409  13.572
63586SOL    HW192590   3.816  10.366  13.517
63586SOL    HW292591   3.683  10.343  13.585
63587SOL     OW92592   5.087   4.594   2.712
63587SOL    HW192593   5.129   4.662   2.765
63587SOL    HW292594   5.153   4.568   2.648
63588SOL     OW92595  10.747   4.985  10.831
63588SOL    HW192596  10.784   4.920  10.892
63588SOL    HW292597  10.655   4.992  10.858
63589SOL     OW92598   0.851   1.558  11.869
63589SOL    HW192599   0.835   1.649  11.896
63589SOL    HW292600   0.946   1.547  11.877
63590SOL     OW92601  12.239  11.096   4.916
63590SOL    HW192602  12.166  11.039   4.890
63590SOL    HW292603  12.197  11.178   4.941
63591SOL     OW92604   8.049  14.757   6.244
63591SOL    HW192605   8.053  14.664   6.221
63591SOL    HW292606   8.078  14.803   6.165
63592SOL     OW92607   9.286   1.252   9.383
63592SOL    HW192608   9.308   1.219   9.471
63592SOL    HW292609   9.366   1.296   9.353
63593SOL     OW92610  13.534   2.823   8.373
63593SOL    HW192611  13.531   2.898   8.315
63593SOL    HW292612  13.628   2.803   8.382
63594SOL     OW92613   9.322  10.705  13.887
63594SOL    HW192614   9.321  10.663  13.973
63594SOL    HW292615   9.230  10.706  13.860
63595SOL     OW92616   7.065  13.172   5.437
63595SOL    HW192617   7.013  13.238   5.484
63595SOL    HW292618   7.004  13.137   5.372
63596SOL     OW92619   0.771   7.558  10.973
63596SOL    HW192620   0.843   7.599  11.020
63596SOL    HW292621   0.813   7.499  10.910
63597SOL     OW92622   4.491  13.349  14.649
63597SOL    HW192623   4.417  13.408  14.661
63597SOL    HW292624   4.542  13.387  14.578
63598SOL     OW92625   1.048  13.098   5.776
63598SOL    HW192626   1.021  13.008   5.755
63598SOL    HW292627   1.143  13.096   5.774
63599SOL     OW92628   6.327   0.964   4.344
63599SOL    HW192629   6.234   0.943   4.337
63599SOL    HW292630   6.330   1.039   4.403
63600SOL     OW92631   2.217   6.747  13.085
63600SOL    HW192632   2.165   6.686  13.033
63600SOL    HW292633   2.188   6.732  13.175
63601SOL     OW92634  14.672   6.663   6.777
63601SOL    HW192635  14.690   6.681   6.685
63601SOL    HW292636  14.690   6.746   6.822
63602SOL     OW92637  11.433   8.430   5.753
63602SOL    HW192638  11.484   8.389   5.683
63602SOL    HW292639  11.383   8.358   5.791
63603SOL     OW92640  14.386  11.831   3.307
63603SOL    HW192641  14.466  11.778   3.303
63603SOL    HW292642  14.342  11.802   3.386
63604SOL     OW92643   1.419   4.800   1.374
63604SOL    HW192644   1.472   4.856   1.317
63604SOL    HW292645   1.339   4.850   1.389
63605SOL     OW92646   6.206   0.038   2.668
63605SOL    HW192647   6.120   0.054   2.631
63605SOL    HW292648   6.192   0.036   2.763
63606SOL     OW92649   5.216   1.434   7.772
63606SOL    HW192650   5.180   1.345   7.778
63606SOL    HW292651   5.250   1.452   7.859
63607SOL     OW92652   1.962   2.269   1.583
63607SOL    HW192653   2.036   2.250   1.640
63607SOL    HW292654   2.003   2.306   1.504
63608SOL     OW92655   9.904   4.985   1.683
63608SOL    HW192656   9.994   4.977   1.651
63608SOL    HW292657   9.860   5.038   1.618
63609SOL     OW92658  10.154   6.051   4.473
63609SOL    HW192659  10.151   6.137   4.429
63609SOL    HW292660  10.088   6.058   4.542
63610SOL     OW92661  11.489  13.302   6.704
63610SOL    HW192662  11.534  13.223   6.734
63610SOL    HW292663  11.504  13.366   6.773
63611SOL     OW92664   5.150  11.103   2.413
63611SOL    HW192665   5.240  11.074   2.427
63611SOL    HW292666   5.098  11.051   2.475
63612SOL     OW92667   0.987   1.517   3.478
63612SOL    HW192668   1.023   1.566   3.551
63612SOL    HW292669   0.973   1.582   3.410
63613SOL     OW92670   1.903   5.617   9.452
63613SOL    HW192671   1.970   5.649   9.512
63613SOL    HW292672   1.823   5.615   9.505
63614SOL     OW92673   6.215  11.428   6.380
63614SOL    HW192674   6.288  11.455   6.436
63614SOL    HW292675   6.231  11.335   6.363
63615SOL     OW92676   5.041   5.503  14.613
63615SOL    HW192677   5.074   5.477  14.699
63615SOL    HW292678   4.966   5.446  14.597
63616SOL     OW92679   7.049   3.557   9.022
63616SOL    HW192680   7.097   3.570   8.940
63616SOL    HW292681   7.117   3.549   9.089
63617SOL     OW92682   7.183   3.560   7.225
63617SOL    HW192683   7.274   3.561   7.197
63617SOL    HW292684   7.133   3.582   7.147
63618SOL     OW92685  11.105  14.608   2.056
63618SOL    HW192686  11.065  14.549   2.119
63618SOL    HW292687  11.189  14.632   2.096
63619SOL     OW92688  14.704   3.443  11.047
63619SOL    HW192689  14.713   3.413  11.137
63619SOL    HW292690  14.786   3.417  11.005
63620SOL     OW92691   3.358   6.880   9.393
63620SOL    HW192692   3.321   6.798   9.425
63620SOL    HW292693   3.425   6.903   9.458
63621SOL     OW92694   2.167   3.931  10.728
63621SOL    HW192695   2.242   3.925  10.788
63621SOL    HW292696   2.090   3.922  10.784
63622SOL     OW92697   3.357  12.405  10.373
63622SOL    HW192698   3.336  12.379  10.463
63622SOL    HW292699   3.288  12.365  10.320
63623SOL     OW92700   1.097   4.981  13.656
63623SOL    HW192701   1.028   4.948  13.598
63623SOL    HW292702   1.138   5.052  13.605
63624SOL     OW92703   0.566  12.574   6.930
63624SOL    HW192704   0.585  12.644   6.993
63624SOL    HW292705   0.588  12.612   6.845
63625SOL     OW92706   1.021   4.193   5.707
63625SOL    HW192707   0.934   4.156   5.697
63625SOL    HW292708   1.010   4.287   5.690
63626SOL     OW92709   3.605  11.874  11.996
63626SOL    HW192710   3.594  11.835  12.083
63626SOL    HW292711   3.542  11.946  11.993
63627SOL     OW92712   5.301   8.507  12.686
63627SOL    HW192713   5.283   8.432  12.743
63627SOL    HW292714   5.214   8.541  12.664
63628SOL     OW92715   0.574   4.570  12.646
63628SOL    HW192716   0.574   4.492  12.702
63628SOL    HW292717   0.488   4.567  12.602
63629SOL     OW92718   0.853   5.467  12.557
63629SOL    HW192719   0.818   5.487  12.644
63629SOL    HW292720   0.903   5.546  12.533
63630SOL     OW92721   7.462  10.754   5.467
63630SOL    HW192722   7.372  10.785   5.462
63630SOL    HW292723   7.465  10.701   5.547
63631SOL     OW92724  11.332  14.610   1.230
63631SOL    HW192725  11.298  14.535   1.279
63631SOL    HW292726  11.424  14.589   1.214
63632SOL     OW92727   8.779   8.675  10.287
63632SOL    HW192728   8.832   8.595  10.277
63632SOL    HW292729   8.764   8.704  10.197
63633SOL     OW92730  11.621   3.132  14.603
63633SOL    HW192731  11.667   3.199  14.654
63633SOL    HW292732  11.545   3.179  14.567
63634SOL     OW92733   1.790  14.599  14.411
63634SOL    HW192734   1.819  14.684  14.376
63634SOL    HW292735   1.867  14.563  14.454
63635SOL     OW92736  11.302  11.327   5.924
63635SOL    HW192737  11.268  11.292   6.007
63635SOL    HW292738  11.345  11.408   5.948
63636SOL     OW92739   6.431   3.815   8.819
63636SOL    HW192740   6.351   3.866   8.836
63636SOL    HW292741   6.416   3.775   8.734
63637SOL     OW92742  11.225  12.991   7.165
63637SOL    HW192743  11.311  12.976   7.203
63637SOL    HW292744  11.165  12.942   7.220
63638SOL     OW92745   8.974   4.395   3.034
63638SOL    HW192746   9.068   4.382   3.042
63638SOL    HW292747   8.954   4.462   3.101
63639SOL     OW92748  11.047   7.624   9.320
63639SOL    HW192749  11.034   7.708   9.276
63639SOL    HW292750  11.138   7.626   9.349
63640SOL     OW92751  13.974   2.192   8.498
63640SOL    HW192752  14.056   2.148   8.476
63640SOL    HW292753  13.919   2.124   8.537
63641SOL     OW92754  13.700  11.458  14.601
63641SOL    HW192755  13.657  11.528  14.651
63641SOL    HW292756  13.661  11.378  14.634
63642SOL     OW92757   2.766   9.504   9.129
63642SOL    HW192758   2.832   9.445   9.165
63642SOL    HW292759   2.682   9.463   9.152
63643SOL     OW92760   2.664  13.854   4.924
63643SOL    HW192761   2.740  13.864   4.982
63643SOL    HW292762   2.652  13.940   4.884
63644SOL     OW92763  14.478   6.085   8.189
63644SOL    HW192764  14.438   6.128   8.264
63644SOL    HW292765  14.533   6.016   8.227
63645SOL     OW92766   1.013   5.896  12.137
63645SOL    HW192767   0.951   5.954  12.180
63645SOL    HW292768   1.091   5.949  12.123
63646SOL     OW92769   0.942   9.662  10.232
63646SOL    HW192770   0.991   9.615  10.164
63646SOL    HW292771   0.864   9.693  10.187
63647SOL     OW92772   3.828   5.096   8.415
63647SOL    HW192773   3.845   5.171   8.472
63647SOL    HW292774   3.842   5.129   8.327
63648SOL     OW92775  10.363   7.998   8.658
63648SOL    HW192776  10.416   8.027   8.732
63648SOL    HW292777  10.285   8.053   8.661
63649SOL     OW92778   1.189   8.558   1.941
63649SOL    HW192779   1.164   8.537   2.032
63649SOL    HW292780   1.225   8.476   1.907
63650SOL     OW92781   3.274   7.616  13.265
63650SOL    HW192782   3.235   7.641  13.181
63650SOL    HW292783   3.325   7.537  13.245
63651SOL     OW92784   1.787  11.073   8.609
63651SOL    HW192785   1.753  11.159   8.587
63651SOL    HW292786   1.874  11.089   8.645
63652SOL     OW92787  12.061   7.889  14.199
63652SOL    HW192788  11.989   7.884  14.263
63652SOL    HW292789  12.140   7.899  14.253
63653SOL     OW92790  12.382  11.825   4.076
63653SOL    HW192791  12.375  11.906   4.126
63653SOL    HW292792  12.475  11.818   4.054
63654SOL     OW92793   7.250  11.983   5.098
63654SOL    HW192794   7.260  11.981   5.003
63654SOL    HW292795   7.298  11.905   5.129
63655SOL     OW92796   1.092  14.025   7.167
63655SOL    HW192797   1.012  13.977   7.190
63655SOL    HW292798   1.157  13.956   7.154
63656SOL     OW92799   7.668   1.177   4.296
63656SOL    HW192800   7.668   1.123   4.217
63656SOL    HW292801   7.743   1.145   4.347
63657SOL     OW92802   2.761  14.072   2.714
63657SOL    HW192803   2.691  14.024   2.669
63657SOL    HW292804   2.732  14.163   2.713
63658SOL     OW92805   2.033   9.977   8.551
63658SOL    HW192806   1.949   9.995   8.593
63658SOL    HW292807   2.020  10.003   8.460
63659SOL     OW92808  11.191  13.511   4.264
63659SOL    HW192809  11.152  13.587   4.221
63659SOL    HW292810  11.193  13.535   4.357
63660SOL     OW92811  13.109   3.401  12.066
63660SOL    HW192812  13.120   3.469  12.132
63660SOL    HW292813  13.117   3.318  12.114
63661SOL     OW92814  14.642   5.679  10.581
63661SOL    HW192815  14.719   5.717  10.540
63661SOL    HW292816  14.635   5.723  10.666
63662SOL     OW92817   8.541  12.458  11.051
63662SOL    HW192818   8.559  12.393  10.984
63662SOL    HW292819   8.619  12.459  11.106
63663SOL     OW92820   6.175   3.680  12.560
63663SOL    HW192821   6.137   3.592  12.557
63663SOL    HW292822   6.126   3.729  12.494
63664SOL     OW92823   9.333   0.452   0.497
63664SOL    HW192824   9.249   0.456   0.452
63664SOL    HW292825   9.398   0.446   0.426
63665SOL     OW92826   3.621   6.322   8.220
63665SOL    HW192827   3.552   6.300   8.157
63665SOL    HW292828   3.584   6.393   8.273
63666SOL     OW92829   4.246   1.819  13.581
63666SOL    HW192830   4.172   1.769  13.618
63666SOL    HW292831   4.264   1.886  13.647
63667SOL     OW92832   7.466   1.481   0.066
63667SOL    HW192833   7.465   1.521  14.855
63667SOL    HW292834   7.527   1.408   0.057
63668SOL     OW92835  14.233  11.803   5.015
63668SOL    HW192836  14.240  11.887   5.060
63668SOL    HW292837  14.291  11.745   5.065
63669SOL     OW92838   2.002  14.589   0.587
63669SOL    HW192839   2.051  14.626   0.513
63669SOL    HW292840   2.070  14.568   0.651
63670SOL     OW92841   8.915  14.803   5.298
63670SOL    HW192842   8.879  14.851   5.372
63670SOL    HW292843   8.936  14.716   5.333
63671SOL     OW92844   4.585   0.864  13.679
63671SOL    HW192845   4.596   0.772  13.702
63671SOL    HW292846   4.500   0.868  13.635
63672SOL     OW92847   5.420   2.119  11.365
63672SOL    HW192848   5.402   2.045  11.423
63672SOL    HW292849   5.515   2.129  11.367
63673SOL     OW92850  13.517   8.727   4.863
63673SOL    HW192851  13.591   8.771   4.821
63673SOL    HW292852  13.492   8.785   4.934
63674SOL     OW92853   3.575   9.404   8.841
63674SOL    HW192854   3.599   9.322   8.885
63674SOL    HW292855   3.592   9.387   8.748
63675SOL     OW92856   8.733   9.769  12.475
63675SOL    HW192857   8.794   9.700  12.451
63675SOL    HW292858   8.677   9.730  12.542
63676SOL     OW92859   7.048   9.735   8.831
63676SOL    HW192860   7.028   9.748   8.924
63676SOL    HW292861   6.966   9.703   8.794
63677SOL     OW92862   5.719   1.121   4.514
63677SOL    HW192863   5.773   1.196   4.488
63677SOL    HW292864   5.688   1.144   4.602
63678SOL     OW92865   1.265   5.620  10.149
63678SOL    HW192866   1.351   5.578  10.152
63678SOL    HW292867   1.205   5.554  10.183
63679SOL     OW92868  14.756  13.360   7.711
63679SOL    HW192869  14.683  13.308   7.678
63679SOL    HW292870  14.723  13.401   7.791
63680SOL     OW92871   0.316   9.519   6.068
63680SOL    HW192872   0.314   9.554   5.979
63680SOL    HW292873   0.400   9.548   6.103
63681SOL     OW92874  14.709  13.006  13.011
63681SOL    HW192875  14.644  13.051  13.064
63681SOL    HW292876  14.793  13.028  13.052
63682SOL     OW92877   4.275  14.486   2.423
63682SOL    HW192878   4.334  14.471   2.497
63682SOL    HW292879   4.202  14.426   2.437
63683SOL     OW92880   2.318  12.981   3.115
63683SOL    HW192881   2.322  12.920   3.189
63683SOL    HW292882   2.311  12.925   3.038
63684SOL     OW92883  14.488   9.899  11.676
63684SOL    HW192884  14.488   9.846  11.756
63684SOL    HW292885  14.570   9.948  11.680
63685SOL     OW92886   6.606   1.178  14.174
63685SOL    HW192887   6.676   1.243  14.169
63685SOL    HW292888   6.609   1.147  14.265
63686SOL     OW92889  10.213  13.075   7.076
63686SOL    HW192890  10.161  13.092   6.998
63686SOL    HW292891  10.160  13.014   7.127
63687SOL     OW92892  14.126   7.705   0.746
63687SOL    HW192893  14.205   7.741   0.787
63687SOL    HW292894  14.159   7.654   0.672
63688SOL     OW92895   2.337   1.677   5.605
63688SOL    HW192896   2.273   1.716   5.546
63688SOL    HW292897   2.295   1.598   5.637
63689SOL     OW92898   7.627  11.790  12.625
63689SOL    HW192899   7.712  11.793  12.669
63689SOL    HW292900   7.609  11.881  12.601
63690SOL     OW92901  12.356   3.962  13.349
63690SOL    HW192902  12.381   3.903  13.278
63690SOL    HW292903  12.406   3.931  13.425
63691SOL     OW92904  12.664   9.354   4.783
63691SOL    HW192905  12.755   9.344   4.756
63691SOL    HW292906  12.646   9.277   4.836
63692SOL     OW92907   2.913   3.081   7.422
63692SOL    HW192908   2.957   3.131   7.352
63692SOL    HW292909   2.970   3.092   7.498
63693SOL     OW92910  14.774   6.032   2.165
63693SOL    HW192911  14.703   5.971   2.185
63693SOL    HW292912  14.775   6.093   2.238
63694SOL     OW92913  14.310   2.695  11.411
63694SOL    HW192914  14.296   2.789  11.424
63694SOL    HW292915  14.404   2.683  11.420
63695SOL     OW92916   9.902   4.673   5.767
63695SOL    HW192917   9.898   4.733   5.842
63695SOL    HW292918   9.976   4.615   5.786
63696SOL     OW92919  11.716   7.099   1.829
63696SOL    HW192920  11.661   7.147   1.891
63696SOL    HW292921  11.796   7.080   1.878
63697SOL     OW92922   9.837   6.875  13.370
63697SOL    HW192923   9.895   6.916  13.434
63697SOL    HW292924   9.750   6.909  13.391
63698SOL     OW92925   8.103   9.812   7.408
63698SOL    HW192926   8.190   9.819   7.447
63698SOL    HW292927   8.115   9.840   7.317
63699SOL     OW92928   6.863   8.584   3.769
63699SOL    HW192929   6.957   8.565   3.761
63699SOL    HW292930   6.831   8.519   3.831
63700SOL     OW92931  13.534  13.846   4.869
63700SOL    HW192932  13.529  13.918   4.806
63700SOL    HW292933  13.446  13.841   4.907
63701SOL     OW92934   5.004   0.716  10.809
63701SOL    HW192935   5.042   0.726  10.897
63701SOL    HW292936   5.037   0.631  10.779
63702SOL     OW92937   9.691  14.573   6.930
63702SOL    HW192938   9.629  14.634   6.969
63702SOL    HW292939   9.685  14.589   6.836
63703SOL     OW92940  14.484  11.356   3.255
63703SOL    HW192941  14.406  11.409   3.238
63703SOL    HW292942  14.494  11.302   3.176
63704SOL     OW92943   7.404   1.201   5.515
63704SOL    HW192944   7.314   1.170   5.524
63704SOL    HW292945   7.449   1.131   5.467
63705SOL     OW92946   2.397   8.867  14.091
63705SOL    HW192947   2.350   8.803  14.038
63705SOL    HW292948   2.344   8.876  14.171
63706SOL     OW92949   4.166   1.645   3.867
63706SOL    HW192950   4.247   1.692   3.889
63706SOL    HW292951   4.177   1.559   3.907
63707SOL     OW92952   4.675   7.997  11.921
63707SOL    HW192953   4.640   7.936  11.985
63707SOL    HW292954   4.730   7.943  11.864
63708SOL     OW92955   0.466   8.494   8.586
63708SOL    HW192956   0.410   8.572   8.591
63708SOL    HW292957   0.404   8.421   8.582
63709SOL     OW92958  10.759   2.216   3.587
63709SOL    HW192959  10.668   2.188   3.586
63709SOL    HW292960  10.789   2.204   3.497
63710SOL     OW92961  12.757  10.927   5.281
63710SOL    HW192962  12.728  10.850   5.330
63710SOL    HW292963  12.744  11.000   5.341
63711SOL     OW92964   4.833   1.687   6.031
63711SOL    HW192965   4.765   1.631   5.993
63711SOL    HW292966   4.879   1.724   5.956
63712SOL     OW92967   7.158   0.922   1.416
63712SOL    HW192968   7.228   0.892   1.359
63712SOL    HW292969   7.084   0.937   1.358
63713SOL     OW92970  12.560   9.263   0.889
63713SOL    HW192971  12.608   9.308   0.958
63713SOL    HW292972  12.581   9.170   0.902
63714SOL     OW92973   9.178  12.569   9.706
63714SOL    HW192974   9.214  12.607   9.786
63714SOL    HW292975   9.088  12.548   9.728
63715SOL     OW92976  14.580   6.966   4.220
63715SOL    HW192977  14.576   7.043   4.163
63715SOL    HW292978  14.563   7.000   4.307
63716SOL     OW92979   7.258  11.464  10.127
63716SOL    HW192980   7.317  11.424  10.063
63716SOL    HW292981   7.263  11.558  10.108
63717SOL     OW92982   1.016   5.223   8.536
63717SOL    HW192983   1.054   5.136   8.523
63717SOL    HW292984   1.075   5.267   8.596
63718SOL     OW92985   7.083   8.975   7.474
63718SOL    HW192986   7.044   8.924   7.545
63718SOL    HW292987   7.126   8.910   7.419
63719SOL     OW92988  14.864  14.727  13.522
63719SOL    HW192989   0.040  14.669  13.467
63719SOL    HW292990  14.784  14.677  13.541
63720SOL     OW92991   3.074   1.886  11.376
63720SOL    HW192992   3.033   1.804  11.347
63720SOL    HW292993   3.001   1.938  11.411
63721SOL     OW92994  13.924  10.529  11.750
63721SOL    HW192995  13.959  10.617  11.739
63721SOL    HW292996  13.933  10.511  11.844
63722SOL     OW92997  10.994  13.406   5.644
63722SOL    HW192998  11.017  13.436   5.732
63722SOL    HW292999  10.958  13.319   5.657
63723SOL     OW93000   8.284  10.337  11.513
63723SOL    HW193001   8.360  10.298  11.556
63723SOL    HW293002   8.320  10.389  11.441
63724SOL     OW93003   2.557   4.075   4.527
63724SOL    HW193004   2.582   3.993   4.485
63724SOL    HW293005   2.639   4.115   4.552
63725SOL     OW93006   8.457   1.904  10.786
63725SOL    HW193007   8.445   1.962  10.710
63725SOL    HW293008   8.399   1.830  10.769
63726SOL     OW93009  10.451   7.364   3.820
63726SOL    HW193010  10.533   7.414   3.819
63726SOL    HW293011  10.455   7.314   3.901
63727SOL     OW93012  13.309   7.651  14.649
63727SOL    HW193013  13.396   7.673  14.682
63727SOL    HW293014  13.266   7.607  14.722
63728SOL     OW93015  14.764   5.512  12.320
63728SOL    HW193016  14.802   5.545  12.401
63728SOL    HW293017  14.816   5.434  12.299
63729SOL     OW93018   3.635   2.490   6.606
63729SOL    HW193019   3.720   2.527   6.582
63729SOL    HW293020   3.629   2.503   6.700
63730SOL     OW93021   1.828   4.690  13.105
63730SOL    HW193022   1.829   4.617  13.168
63730SOL    HW293023   1.745   4.734  13.120
63731SOL     OW93024   4.197  14.117   8.215
63731SOL    HW193025   4.201  14.150   8.305
63731SOL    HW293026   4.249  14.179   8.164
63732SOL     OW93027   8.000  12.556   5.853
63732SOL    HW193028   7.969  12.616   5.785
63732SOL    HW293029   8.043  12.485   5.805
63733SOL     OW93030   9.806   7.205  13.304
63733SOL    HW193031   9.735   7.195  13.368
63733SOL    HW293032   9.832   7.297  13.310
63734SOL     OW93033  14.374   5.542  11.009
63734SOL    HW193034  14.289   5.535  10.966
63734SOL    HW293035  14.437   5.536  10.937
63735SOL     OW93036  10.548   7.367  11.967
63735SOL    HW193037  10.585   7.452  11.944
63735SOL    HW293038  10.621   7.305  11.959
63736SOL     OW93039  14.769  11.251   2.756
63736SOL    HW193040  14.816  11.215   2.831
63736SOL    HW293041  14.705  11.183   2.732
63737SOL     OW93042   3.551  13.273   3.499
63737SOL    HW193043   3.458  13.282   3.519
63737SOL    HW293044   3.589  13.358   3.524
63738SOL     OW93045  14.088  11.677   3.089
63738SOL    HW193046  13.992  11.687   3.094
63738SOL    HW293047  14.118  11.760   3.051
63739SOL     OW93048  12.924   6.076  11.240
63739SOL    HW193049  12.830   6.073  11.219
63739SOL    HW293050  12.947   5.986  11.261
63740SOL     OW93051  10.827   6.396   3.146
63740SOL    HW193052  10.798   6.328   3.086
63740SOL    HW293053  10.917   6.414   3.119
63741SOL     OW93054   6.156   8.109  10.076
63741SOL    HW193055   6.092   8.038  10.084
63741SOL    HW293056   6.219   8.078  10.011
63742SOL     OW93057   9.559  10.940   3.946
63742SOL    HW193058   9.526  11.020   3.906
63742SOL    HW293059   9.481  10.897   3.981
63743SOL     OW93060   9.756   2.154   8.802
63743SOL    HW193061   9.796   2.180   8.885
63743SOL    HW293062   9.739   2.060   8.811
63744SOL     OW93063   0.123   5.050   2.631
63744SOL    HW193064   0.206   5.099   2.625
63744SOL    HW293065   0.073   5.097   2.698
63745SOL     OW93066   2.892  13.277   3.916
63745SOL    HW193067   2.927  13.322   3.994
63745SOL    HW293068   2.918  13.186   3.929
63746SOL     OW93069   0.774  10.586  12.381
63746SOL    HW193070   0.743  10.497  12.399
63746SOL    HW293071   0.853  10.574  12.328
63747SOL     OW93072  11.029   6.452   1.538
63747SOL    HW193073  10.938   6.458   1.510
63747SOL    HW293074  11.061   6.370   1.500
63748SOL     OW93075  12.451  12.835   6.928
63748SOL    HW193076  12.436  12.828   7.022
63748SOL    HW293077  12.421  12.751   6.893
63749SOL     OW93078   8.206  14.516   2.851
63749SOL    HW193079   8.155  14.536   2.930
63749SOL    HW293080   8.297  14.530   2.878
63750SOL     OW93081  13.345   2.118   9.155
63750SOL    HW193082  13.342   2.158   9.242
63750SOL    HW293083  13.334   2.024   9.172
63751SOL     OW93084  10.555  12.795   8.260
63751SOL    HW193085  10.566  12.824   8.170
63751SOL    HW293086  10.496  12.719   8.255
63752SOL     OW93087   5.883   9.417  10.360
63752SOL    HW193088   5.806   9.473  10.349
63752SOL    HW293089   5.866   9.342  10.303
63753SOL     OW93090   7.302   6.565  10.840
63753SOL    HW193091   7.327   6.651  10.804
63753SOL    HW293092   7.232   6.534  10.783
63754SOL     OW93093   6.288   4.052   9.814
63754SOL    HW193094   6.300   4.131   9.762
63754SOL    HW293095   6.194   4.052   9.836
63755SOL     OW93096   5.065   1.988   6.418
63755SOL    HW193097   5.042   1.979   6.326
63755SOL    HW293098   5.069   1.898   6.451
63756SOL     OW93099   6.463   3.491   9.266
63756SOL    HW193100   6.494   3.541   9.190
63756SOL    HW293101   6.507   3.406   9.258
63757SOL     OW93102   4.649   2.868  11.413
63757SOL    HW193103   4.620   2.943  11.362
63757SOL    HW293104   4.689   2.809  11.349
63758SOL     OW93105   5.536   6.014   2.460
63758SOL    HW193106   5.611   5.964   2.489
63758SOL    HW293107   5.460   5.960   2.483
63759SOL     OW93108   3.194  11.327  13.363
63759SOL    HW193109   3.227  11.416  13.374
63759SOL    HW293110   3.268  11.276  13.331
63760SOL     OW93111   6.504  12.018  11.967
63760SOL    HW193112   6.470  12.107  11.963
63760SOL    HW293113   6.459  11.978  12.042
63761SOL     OW93114   3.763  13.668   3.076
63761SOL    HW193115   3.797  13.602   3.015
63761SOL    HW293116   3.669  13.650   3.082
63762SOL     OW93117  14.305   9.488   8.601
63762SOL    HW193118  14.270   9.555   8.542
63762SOL    HW293119  14.399   9.490   8.587
63763SOL     OW93120   7.686   2.715   6.697
63763SOL    HW193121   7.776   2.738   6.676
63763SOL    HW293122   7.653   2.671   6.618
63764SOL     OW93123  13.192   1.445  12.754
63764SOL    HW193124  13.122   1.402  12.706
63764SOL    HW293125  13.267   1.444  12.694
63765SOL     OW93126   4.025  13.061  14.815
63765SOL    HW193127   3.993  13.070  14.725
63765SOL    HW293128   4.024  12.967  14.831
63766SOL     OW93129  14.452   2.598   9.079
63766SOL    HW193130  14.438   2.603   9.173
63766SOL    HW293131  14.367   2.622   9.041
63767SOL     OW93132  10.517  11.848   2.859
63767SOL    HW193133  10.549  11.920   2.805
63767SOL    HW293134  10.562  11.860   2.943
63768SOL     OW93135  14.730   3.568   5.496
63768SOL    HW193136  14.640   3.569   5.463
63768SOL    HW293137  14.778   3.513   5.433
63769SOL     OW93138   0.955   4.061  14.043
63769SOL    HW193139   0.863   4.080  14.061
63769SOL    HW293140   0.958   4.046  13.949
63770SOL     OW93141   2.129   2.381   5.184
63770SOL    HW193142   2.173   2.317   5.129
63770SOL    HW293143   2.199   2.421   5.235
63771SOL     OW93144   6.241  12.606   0.839
63771SOL    HW193145   6.252  12.513   0.820
63771SOL    HW293146   6.329  12.642   0.831
63772SOL     OW93147   6.506  13.152  13.946
63772SOL    HW193148   6.534  13.159  14.037
63772SOL    HW293149   6.556  13.077  13.912
63773SOL     OW93150   1.503   9.722  11.736
63773SOL    HW193151   1.469   9.640  11.773
63773SOL    HW293152   1.430   9.755  11.683
63774SOL     OW93153   3.507   2.686   8.693
63774SOL    HW193154   3.564   2.758   8.668
63774SOL    HW293155   3.461   2.717   8.771
63775SOL     OW93156  13.980   9.111   1.377
63775SOL    HW193157  13.920   9.054   1.425
63775SOL    HW293158  14.031   9.053   1.321
63776SOL     OW93159   2.475   2.386  14.763
63776SOL    HW193160   2.497   2.394  14.671
63776SOL    HW293161   2.441   2.472  14.787
63777SOL     OW93162  13.222  10.068  14.623
63777SOL    HW193163  13.205  10.099  14.712
63777SOL    HW293164  13.230  10.148  14.571
63778SOL     OW93165  13.533   8.865  10.040
63778SOL    HW193166  13.463   8.900  10.095
63778SOL    HW293167  13.539   8.772  10.065
63779SOL     OW93168  13.213   2.187   1.819
63779SOL    HW193169  13.194   2.157   1.908
63779SOL    HW293170  13.222   2.282   1.828
63780SOL     OW93171   7.599   6.682   0.722
63780SOL    HW193172   7.566   6.736   0.793
63780SOL    HW293173   7.527   6.675   0.660
63781SOL     OW93174  11.326  13.056   5.516
63781SOL    HW193175  11.301  13.101   5.436
63781SOL    HW293176  11.421  13.065   5.520
63782SOL     OW93177   1.717   6.513   3.205
63782SOL    HW193178   1.658   6.469   3.267
63782SOL    HW293179   1.801   6.514   3.249
63783SOL     OW93180  10.622   7.211  10.522
63783SOL    HW193181  10.681   7.284  10.506
63783SOL    HW293182  10.556   7.218  10.453
63784SOL     OW93183   1.418   2.611  10.674
63784SOL    HW193184   1.448   2.645  10.590
63784SOL    HW293185   1.359   2.678  10.708
63785SOL     OW93186   5.156   2.889  13.667
63785SOL    HW193187   5.222   2.954  13.643
63785SOL    HW293188   5.131   2.848  13.585
63786SOL     OW93189   4.421   5.358   7.505
63786SOL    HW193190   4.408   5.343   7.599
63786SOL    HW293191   4.334   5.382   7.473
63787SOL     OW93192   6.778  10.092   6.766
63787SOL    HW193193   6.833  10.031   6.716
63787SOL    HW293194   6.817  10.094   6.853
63788SOL     OW93195   1.386  10.031   8.595
63788SOL    HW193196   1.426  10.029   8.682
63788SOL    HW293197   1.441   9.974   8.541
63789SOL     OW93198  10.440  10.222   4.628
63789SOL    HW193199  10.388  10.167   4.686
63789SOL    HW293200  10.376  10.263   4.570
63790SOL     OW93201  13.285   1.312   1.923
63790SOL    HW193202  13.259   1.404   1.917
63790SOL    HW293203  13.206   1.267   1.952
63791SOL     OW93204   3.257   6.344  11.142
63791SOL    HW193205   3.240   6.346  11.237
63791SOL    HW293206   3.202   6.414  11.107
63792SOL     OW93207  13.276   3.456   5.542
63792SOL    HW193208  13.311   3.370   5.517
63792SOL    HW293209  13.236   3.442   5.628
63793SOL     OW93210  10.392   0.178   9.715
63793SOL    HW193211  10.307   0.134   9.707
63793SOL    HW293212  10.390   0.247   9.649
63794SOL     OW93213   9.463   5.596   8.822
63794SOL    HW193214   9.480   5.503   8.840
63794SOL    HW293215   9.511   5.642   8.891
63795SOL     OW93216  12.577   6.107  14.407
63795SOL    HW193217  12.670   6.090  14.393
63795SOL    HW293218  12.548   6.038  14.466
63796SOL     OW93219   8.146   8.591   0.195
63796SOL    HW193220   8.108   8.648   0.128
63796SOL    HW293221   8.214   8.644   0.236
63797SOL     OW93222  12.601   6.712   4.818
63797SOL    HW193223  12.686   6.682   4.786
63797SOL    HW293224  12.621   6.789   4.871
63798SOL     OW93225   2.301  12.122   1.407
63798SOL    HW193226   2.238  12.176   1.360
63798SOL    HW293227   2.360  12.089   1.340
63799SOL     OW93228   7.002   5.447   7.847
63799SOL    HW193229   6.957   5.515   7.896
63799SOL    HW293230   6.933   5.386   7.821
63800SOL     OW93231   6.839   7.356   1.310
63800SOL    HW193232   6.806   7.301   1.381
63800SOL    HW293233   6.790   7.438   1.319
63801SOL     OW93234   5.081  12.917   2.904
63801SOL    HW193235   5.089  13.003   2.861
63801SOL    HW293236   5.039  12.936   2.988
63802SOL     OW93237  13.549   1.692   9.484
63802SOL    HW193238  13.485   1.743   9.534
63802SOL    HW293239  13.558   1.738   9.402
63803SOL     OW93240   4.319   0.436   5.910
63803SOL    HW193241   4.232   0.396   5.910
63803SOL    HW293242   4.354   0.416   5.997
63804SOL     OW93243   4.579  14.507   4.515
63804SOL    HW193244   4.641  14.534   4.448
63804SOL    HW293245   4.494  14.509   4.471
63805SOL     OW93246   1.207   2.489   8.367
63805SOL    HW193247   1.167   2.404   8.387
63805SOL    HW293248   1.160   2.521   8.290
63806SOL     OW93249  13.317   3.107  13.106
63806SOL    HW193250  13.358   3.156  13.036
63806SOL    HW293251  13.390   3.078  13.161
63807SOL     OW93252   6.064   6.798   7.003
63807SOL    HW193253   6.069   6.704   7.017
63807SOL    HW293254   5.981   6.825   7.043
63808SOL     OW93255  11.871  14.599   0.047
63808SOL    HW193256  11.783  14.585   0.083
63808SOL    HW293257  11.898  14.683   0.082
63809SOL     OW93258   7.500  10.578   9.678
63809SOL    HW193259   7.541  10.566   9.764
63809SOL    HW293260   7.568  10.552   9.616
63810SOL     OW93261  12.385   8.618   8.838
63810SOL    HW193262  12.445   8.557   8.882
63810SOL    HW293263  12.308   8.621   8.894
63811SOL     OW93264  13.433  12.153   1.382
63811SOL    HW193265  13.466  12.074   1.426
63811SOL    HW293266  13.363  12.185   1.438
63812SOL     OW93267  13.492   6.905   4.210
63812SOL    HW193268  13.434   6.879   4.139
63812SOL    HW293269  13.483   6.835   4.275
63813SOL     OW93270  14.649  10.958  10.461
63813SOL    HW193271  14.596  11.008  10.398
63813SOL    HW293272  14.603  10.970  10.545
63814SOL     OW93273   9.500   9.654   1.890
63814SOL    HW193274   9.425   9.710   1.872
63814SOL    HW293275   9.526   9.678   1.979
63815SOL     OW93276   9.981   9.550  14.378
63815SOL    HW193277   9.932   9.632  14.368
63815SOL    HW293278   9.965   9.523  14.468
63816SOL     OW93279   3.653  11.056  13.597
63816SOL    HW193280   3.722  11.113  13.630
63816SOL    HW293281   3.700  10.990  13.546
63817SOL     OW93282   2.703  12.254   4.097
63817SOL    HW193283   2.780  12.241   4.041
63817SOL    HW293284   2.733  12.230   4.184
63818SOL     OW93285   3.569   3.469   9.588
63818SOL    HW193286   3.615   3.497   9.667
63818SOL    HW293287   3.492   3.422   9.621
63819SOL     OW93288   5.205  10.110   1.158
63819SOL    HW193289   5.176  10.029   1.115
63819SOL    HW293290   5.296  10.121   1.130
63820SOL     OW93291  11.601   2.017  11.291
63820SOL    HW193292  11.591   1.988  11.200
63820SOL    HW293293  11.602   1.936  11.342
63821SOL     OW93294  11.073  12.619   1.658
63821SOL    HW193295  11.127  12.693   1.688
63821SOL    HW293296  11.113  12.592   1.576
63822SOL     OW93297   3.501   1.319  12.601
63822SOL    HW193298   3.435   1.352  12.661
63822SOL    HW293299   3.553   1.396  12.578
63823SOL     OW93300  12.331  10.529  14.238
63823SOL    HW193301  12.425  10.542  14.250
63823SOL    HW293302  12.318  10.536  14.143
63824SOL     OW93303   6.781   6.032  12.815
63824SOL    HW193304   6.820   5.946  12.806
63824SOL    HW293305   6.719   6.039  12.742
63825SOL     OW93306   3.871  13.122   6.212
63825SOL    HW193307   3.924  13.192   6.249
63825SOL    HW293308   3.933  13.067   6.164
63826SOL     OW93309   3.041   6.439  14.523
63826SOL    HW193310   3.105   6.457  14.592
63826SOL    HW293311   3.094   6.415  14.447
63827SOL     OW93312  13.478   5.666  12.683
63827SOL    HW193313  13.464   5.584  12.635
63827SOL    HW293314  13.459   5.735  12.620
63828SOL     OW93315   1.733   0.145  10.428
63828SOL    HW193316   1.811   0.177  10.382
63828SOL    HW293317   1.761   0.133  10.518
63829SOL     OW93318  10.799   9.116  12.473
63829SOL    HW193319  10.713   9.148  12.444
63829SOL    HW293320  10.854   9.123  12.395
63830SOL     OW93321   0.211   5.864  11.539
63830SOL    HW193322   0.265   5.802  11.490
63830SOL    HW293323   0.239   5.853  11.630
63831SOL     OW93324  11.976   3.550  14.283
63831SOL    HW193325  11.939   3.490  14.348
63831SOL    HW293326  12.050   3.503  14.246
63832SOL     OW93327  12.048  13.047  10.536
63832SOL    HW193328  12.009  12.964  10.508
63832SOL    HW293329  12.136  13.023  10.565
63833SOL     OW93330   4.913   7.934  10.681
63833SOL    HW193331   4.871   7.855  10.713
63833SOL    HW293332   4.884   7.941  10.590
63834SOL     OW93333  10.234  12.349   8.953
63834SOL    HW193334  10.223  12.435   8.994
63834SOL    HW293335  10.182  12.356   8.872
63835SOL     OW93336   3.161   3.067   1.920
63835SOL    HW193337   3.088   3.129   1.927
63835SOL    HW293338   3.206   3.092   1.839
63836SOL     OW93339   1.666   3.699   7.325
63836SOL    HW193340   1.745   3.674   7.279
63836SOL    HW293341   1.659   3.637   7.398
63837SOL     OW93342   6.169   5.941   7.268
63837SOL    HW193343   6.231   5.877   7.234
63837SOL    HW293344   6.190   6.022   7.222
63838SOL     OW93345  11.417   9.849   9.891
63838SOL    HW193346  11.425   9.944   9.900
63838SOL    HW293347  11.396   9.818   9.979
63839SOL     OW93348   1.179   5.864  10.052
63839SOL    HW193349   1.216   5.782  10.085
63839SOL    HW293350   1.084   5.850  10.054
63840SOL     OW93351  13.655   4.232   2.904
63840SOL    HW193352  13.590   4.293   2.870
63840SOL    HW293353  13.699   4.281   2.975
63841SOL     OW93354   8.973  10.050   7.558
63841SOL    HW193355   8.953  10.102   7.480
63841SOL    HW293356   8.890  10.048   7.607
63842SOL     OW93357   9.626  12.029   6.168
63842SOL    HW193358   9.633  12.120   6.197
63842SOL    HW293359   9.647  12.033   6.074
63843SOL     OW93360   5.808   3.316   4.672
63843SOL    HW193361   5.817   3.377   4.599
63843SOL    HW293362   5.853   3.236   4.643
63844SOL     OW93363  13.944   7.286   2.710
63844SOL    HW193364  13.977   7.312   2.624
63844SOL    HW293365  13.929   7.368   2.756
63845SOL     OW93366  13.851   9.017  13.265
63845SOL    HW193367  13.840   9.106  13.231
63845SOL    HW293368  13.942   9.012  13.292
63846SOL     OW93369   4.212   5.252  11.540
63846SOL    HW193370   4.188   5.211  11.457
63846SOL    HW293371   4.299   5.290  11.524
63847SOL     OW93372   2.245   8.479   7.187
63847SOL    HW193373   2.270   8.520   7.271
63847SOL    HW293374   2.151   8.495   7.180
63848SOL     OW93375  14.555   6.892   6.420
63848SOL    HW193376  14.622   6.953   6.388
63848SOL    HW293377  14.557   6.819   6.357
63849SOL     OW93378   4.344  13.906   5.549
63849SOL    HW193379   4.383  13.865   5.627
63849SOL    HW293380   4.267  13.953   5.583
63850SOL     OW93381   6.106   2.162   3.654
63850SOL    HW193382   6.038   2.227   3.642
63850SOL    HW293383   6.073   2.084   3.609
63851SOL     OW93384   9.955   7.107   6.292
63851SOL    HW193385   9.907   7.039   6.340
63851SOL    HW293386  10.041   7.068   6.276
63852SOL     OW93387  11.671  13.023   8.497
63852SOL    HW193388  11.657  12.988   8.586
63852SOL    HW293389  11.587  13.011   8.453
63853SOL     OW93390   1.012   8.299   8.167
63853SOL    HW193391   1.029   8.248   8.088
63853SOL    HW293392   1.088   8.282   8.223
63854SOL     OW93393   4.751   9.578  12.106
63854SOL    HW193394   4.694   9.601  12.180
63854SOL    HW293395   4.691   9.552  12.036
63855SOL     OW93396   5.756   0.307   0.612
63855SOL    HW193397   5.701   0.381   0.588
63855SOL    HW293398   5.807   0.337   0.687
63856SOL     OW93399  14.845   1.025   7.688
63856SOL    HW193400  14.814   1.100   7.739
63856SOL    HW293401  14.837   1.053   7.597
63857SOL     OW93402   5.895   2.041   6.703
63857SOL    HW193403   5.847   2.036   6.786
63857SOL    HW293404   5.846   1.985   6.643
63858SOL     OW93405  14.194  14.577   5.727
63858SOL    HW193406  14.268  14.555   5.784
63858SOL    HW293407  14.223  14.654   5.679
63859SOL     OW93408  14.621  14.127  12.406
63859SOL    HW193409  14.582  14.045  12.378
63859SOL    HW293410  14.550  14.190  12.404
63860SOL     OW93411  12.878  11.441   0.775
63860SOL    HW193412  12.810  11.398   0.723
63860SOL    HW293413  12.953  11.382   0.772
63861SOL     OW93414   7.016   1.815   6.418
63861SOL    HW193415   7.106   1.817   6.386
63861SOL    HW293416   7.015   1.743   6.481
63862SOL     OW93417   3.987   2.497   7.986
63862SOL    HW193418   3.955   2.505   8.076
63862SOL    HW293419   4.077   2.527   7.990
63863SOL     OW93420  11.703   5.776   2.393
63863SOL    HW193421  11.795   5.761   2.418
63863SOL    HW293422  11.702   5.761   2.298
63864SOL     OW93423  12.179   2.545   2.575
63864SOL    HW193424  12.262   2.589   2.560
63864SOL    HW293425  12.124   2.612   2.616
63865SOL     OW93426  13.180  14.521  11.856
63865SOL    HW193427  13.244  14.484  11.796
63865SOL    HW293428  13.132  14.445  11.890
63866SOL     OW93429   7.705  12.637   3.736
63866SOL    HW193430   7.751  12.680   3.808
63866SOL    HW293431   7.773  12.624   3.669
63867SOL     OW93432   5.285   3.370   0.907
63867SOL    HW193433   5.361   3.426   0.891
63867SOL    HW293434   5.243   3.361   0.822
63868SOL     OW93435   6.099   1.898   6.868
63868SOL    HW193436   6.189   1.929   6.854
63868SOL    HW293437   6.046   1.952   6.809
63869SOL     OW93438   5.664   5.659   9.146
63869SOL    HW193439   5.747   5.645   9.100
63869SOL    HW293440   5.662   5.592   9.214
63870SOL     OW93441   2.001   9.055  10.860
63870SOL    HW193442   2.008   9.148  10.840
63870SOL    HW293443   2.086   9.032  10.899
63871SOL     OW93444   1.262   0.427   1.504
63871SOL    HW193445   1.272   0.501   1.444
63871SOL    HW293446   1.322   0.447   1.576
63872SOL     OW93447   2.596   4.616   7.228
63872SOL    HW193448   2.579   4.619   7.322
63872SOL    HW293449   2.655   4.542   7.215
63873SOL     OW93450   3.439  10.861  10.268
63873SOL    HW193451   3.485  10.945  10.263
63873SOL    HW293452   3.439  10.829  10.178
63874SOL     OW93453   7.327   2.622  11.147
63874SOL    HW193454   7.303   2.695  11.090
63874SOL    HW293455   7.318   2.657  11.236
63875SOL     OW93456   0.916   2.427   6.661
63875SOL    HW193457   0.838   2.375   6.646
63875SOL    HW293458   0.920   2.487   6.587
63876SOL     OW93459   8.324   3.200  10.845
63876SOL    HW193460   8.368   3.153  10.915
63876SOL    HW293461   8.357   3.160  10.764
63877SOL     OW93462   0.564  14.844  11.105
63877SOL    HW193463   0.630  14.864  11.038
63877SOL    HW293464   0.556   0.049  11.155
63878SOL     OW93465   1.699   2.122  13.370
63878SOL    HW193466   1.636   2.111  13.442
63878SOL    HW293467   1.778   2.078  13.401
63879SOL     OW93468  11.525   2.810   8.524
63879SOL    HW193469  11.481   2.821   8.609
63879SOL    HW293470  11.582   2.734   8.537
63880SOL     OW93471   9.262   4.250  11.219
63880SOL    HW193472   9.324   4.178  11.222
63880SOL    HW293473   9.261   4.277  11.127
63881SOL     OW93474   4.972   7.103  13.266
63881SOL    HW193475   4.969   7.142  13.178
63881SOL    HW293476   5.061   7.120  13.297
63882SOL     OW93477  14.579   2.013   9.203
63882SOL    HW193478  14.590   1.936   9.258
63882SOL    HW293479  14.617   2.085   9.255
63883SOL     OW93480   1.314   9.255   8.818
63883SOL    HW193481   1.245   9.253   8.884
63883SOL    HW293482   1.395   9.253   8.868
63884SOL     OW93483   7.705   4.049   0.268
63884SOL    HW193484   7.717   3.989   0.341
63884SOL    HW293485   7.617   4.030   0.236
63885SOL     OW93486   5.959  10.605  10.701
63885SOL    HW193487   6.024  10.660  10.744
63885SOL    HW293488   5.993  10.592  10.613
63886SOL     OW93489  13.781   8.197   1.363
63886SOL    HW193490  13.758   8.214   1.271
63886SOL    HW293491  13.712   8.138   1.394
63887SOL     OW93492   4.881  13.450   6.168
63887SOL    HW193493   4.801  13.410   6.202
63887SOL    HW293494   4.941  13.377   6.153
63888SOL     OW93495  10.005  11.003  11.138
63888SOL    HW193496  10.068  10.958  11.195
63888SOL    HW293497  10.011  10.957  11.055
63889SOL     OW93498   0.943  14.571   9.857
63889SOL    HW193499   0.848  14.565   9.842
63889SOL    HW293500   0.965  14.489   9.901
63890SOL     OW93501   9.504   6.336  11.893
63890SOL    HW193502   9.482   6.399  11.824
63890SOL    HW293503   9.421   6.294  11.915
63891SOL     OW93504   2.082   0.340   4.680
63891SOL    HW193505   2.147   0.342   4.751
63891SOL    HW293506   1.998   0.339   4.725
63892SOL     OW93507  12.144  12.015   9.794
63892SOL    HW193508  12.091  11.995   9.717
63892SOL    HW293509  12.212  11.948   9.795
63893SOL     OW93510   1.098  14.296   7.753
63893SOL    HW193511   1.093  14.227   7.819
63893SOL    HW293512   1.055  14.371   7.794
63894SOL     OW93513   0.667   0.515  11.476
63894SOL    HW193514   0.684   0.607  11.496
63894SOL    HW293515   0.593   0.492  11.533
63895SOL     OW93516  10.256   5.060  14.535
63895SOL    HW193517  10.278   5.009  14.457
63895SOL    HW293518  10.326   5.124  14.543
63896SOL     OW93519   7.397  14.194  14.643
63896SOL    HW193520   7.352  14.217  14.562
63896SOL    HW293521   7.327  14.171  14.705
63897SOL     OW93522  13.366   1.195   0.192
63897SOL    HW193523  13.342   1.229   0.105
63897SOL    HW293524  13.309   1.119   0.204
63898SOL     OW93525  14.303   9.876   4.974
63898SOL    HW193526  14.376   9.877   5.037
63898SOL    HW293527  14.337   9.825   4.900
63899SOL     OW93528   3.004  14.406  10.479
63899SOL    HW193529   3.061  14.375  10.549
63899SOL    HW293530   3.053  14.388  10.399
63900SOL     OW93531   9.289   8.721   4.827
63900SOL    HW193532   9.282   8.655   4.896
63900SOL    HW293533   9.234   8.794   4.857
63901SOL     OW93534   6.684   2.168   1.465
63901SOL    HW193535   6.743   2.243   1.476
63901SOL    HW293536   6.655   2.148   1.554
63902SOL     OW93537   3.118   5.286   9.405
63902SOL    HW193538   3.035   5.251   9.436
63902SOL    HW293539   3.108   5.381   9.409
63903SOL     OW93540   6.444   9.763   2.765
63903SOL    HW193541   6.535   9.745   2.788
63903SOL    HW293542   6.448   9.792   2.673
63904SOL     OW93543   3.191   4.581   7.516
63904SOL    HW193544   3.231   4.587   7.429
63904SOL    HW293545   3.144   4.497   7.516
63905SOL     OW93546   7.194  12.524   1.216
63905SOL    HW193547   7.275  12.539   1.168
63905SOL    HW293548   7.125  12.544   1.153
63906SOL     OW93549   9.158  14.436  14.819
63906SOL    HW193550   9.093  14.505  14.831
63906SOL    HW293551   9.192  14.450  14.731
63907SOL     OW93552  10.473   7.004   3.232
63907SOL    HW193553  10.538   6.959   3.178
63907SOL    HW293554  10.516   7.016   3.316
63908SOL     OW93555  13.204   1.619   2.332
63908SOL    HW193556  13.111   1.619   2.356
63908SOL    HW293557  13.233   1.530   2.352
63909SOL     OW93558  10.471   5.110   9.149
63909SOL    HW193559  10.388   5.130   9.191
63909SOL    HW293560  10.491   5.020   9.174
63910SOL     OW93561   1.299  13.139   8.603
63910SOL    HW193562   1.365  13.175   8.543
63910SOL    HW293563   1.240  13.089   8.546
63911SOL     OW93564   8.676   8.023  14.377
63911SOL    HW193565   8.741   8.088  14.404
63911SOL    HW293566   8.727   7.949  14.347
63912SOL     OW93567   9.442   2.754   9.547
63912SOL    HW193568   9.403   2.678   9.591
63912SOL    HW293569   9.374   2.783   9.485
63913SOL     OW93570   3.468   2.977   5.978
63913SOL    HW193571   3.541   2.922   5.949
63913SOL    HW293572   3.440   2.938   6.061
63914SOL     OW93573   7.965  12.657  10.881
63914SOL    HW193574   7.956  12.619  10.968
63914SOL    HW293575   8.002  12.586  10.828
63915SOL     OW93576   5.811  11.819   4.807
63915SOL    HW193577   5.890  11.806   4.755
63915SOL    HW293578   5.843  11.835   4.896
63916SOL     OW93579  12.132  11.569   3.621
63916SOL    HW193580  12.043  11.602   3.611
63916SOL    HW293581  12.185  11.648   3.636
63917SOL     OW93582   3.503   8.992   6.166
63917SOL    HW193583   3.563   8.980   6.092
63917SOL    HW293584   3.524   8.919   6.225
63918SOL     OW93585   0.324   8.553   5.099
63918SOL    HW193586   0.329   8.555   5.194
63918SOL    HW293587   0.354   8.465   5.075
63919SOL     OW93588  14.485   8.773   9.400
63919SOL    HW193589  14.545   8.698   9.400
63919SOL    HW293590  14.519   8.832   9.466
63920SOL     OW93591   7.579  10.402   3.946
63920SOL    HW193592   7.614  10.447   3.869
63920SOL    HW293593   7.597  10.310   3.931
63921SOL     OW93594  13.639   5.088  14.697
63921SOL    HW193595  13.691   5.014  14.727
63921SOL    HW293596  13.647   5.153  14.766
63922SOL     OW93597  12.290   6.245   7.457
63922SOL    HW193598  12.297   6.341   7.454
63922SOL    HW293599  12.332   6.216   7.376
63923SOL     OW93600  13.787   8.923   8.014
63923SOL    HW193601  13.746   8.847   8.056
63923SOL    HW293602  13.835   8.886   7.940
63924SOL     OW93603   9.318   2.238  12.440
63924SOL    HW193604   9.393   2.226  12.498
63924SOL    HW293605   9.245   2.256  12.499
63925SOL     OW93606   4.700   4.930   6.556
63925SOL    HW193607   4.767   4.900   6.495
63925SOL    HW293608   4.700   5.025   6.546
63926SOL     OW93609  11.483   5.764   5.915
63926SOL    HW193610  11.443   5.830   5.857
63926SOL    HW293611  11.566   5.803   5.941
63927SOL     OW93612  10.494   7.972   2.855
63927SOL    HW193613  10.539   7.929   2.927
63927SOL    HW293614  10.545   8.052   2.839
63928SOL     OW93615   4.487   4.873   5.773
63928SOL    HW193616   4.418   4.937   5.789
63928SOL    HW293617   4.568   4.918   5.798
63929SOL     OW93618   3.281   0.795   9.816
63929SOL    HW193619   3.250   0.839   9.896
63929SOL    HW293620   3.231   0.835   9.745
63930SOL     OW93621   1.141   5.865  14.844
63930SOL    HW193622   1.076   5.930  14.819
63930SOL    HW293623   1.105   5.823   0.046
63931SOL     OW93624   0.546   7.177   9.164
63931SOL    HW193625   0.555   7.271   9.150
63931SOL    HW293626   0.632   7.141   9.142
63932SOL     OW93627   0.344  12.782   4.635
63932SOL    HW193628   0.323  12.874   4.619
63932SOL    HW293629   0.335  12.739   4.550
63933SOL     OW93630   1.774   9.270   2.283
63933SOL    HW193631   1.731   9.213   2.219
63933SOL    HW293632   1.702   9.324   2.318
63934SOL     OW93633   4.311   5.817  14.583
63934SOL    HW193634   4.381   5.816  14.649
63934SOL    HW293635   4.233   5.840  14.632
63935SOL     OW93636  14.088  13.463   7.691
63935SOL    HW193637  14.103  13.541   7.637
63935SOL    HW293638  13.995  13.468   7.714
63936SOL     OW93639   5.218  14.527  10.548
63936SOL    HW193640   5.306  14.563  10.535
63936SOL    HW293641   5.222  14.483  10.633
63937SOL     OW93642  10.503   9.453   3.886
63937SOL    HW193643  10.477   9.476   3.976
63937SOL    HW293644  10.421   9.457   3.836
63938SOL     OW93645   3.043   3.811   8.609
63938SOL    HW193646   2.961   3.833   8.653
63938SOL    HW293647   3.015   3.776   8.524
63939SOL     OW93648   7.664  12.083  10.887
63939SOL    HW193649   7.598  12.044  10.945
63939SOL    HW293650   7.719  12.010  10.860
63940SOL     OW93651   6.654   6.677   2.130
63940SOL    HW193652   6.703   6.759   2.128
63940SOL    HW293653   6.673   6.639   2.216
63941SOL     OW93654   4.399   8.516   1.013
63941SOL    HW193655   4.450   8.570   0.952
63941SOL    HW293656   4.415   8.556   1.098
63942SOL     OW93657  14.449  14.544   1.215
63942SOL    HW193658  14.533  14.509   1.245
63942SOL    HW293659  14.470  14.630   1.178
63943SOL     OW93660  14.268   8.412   0.840
63943SOL    HW193661  14.319   8.443   0.915
63943SOL    HW293662  14.234   8.327   0.869
63944SOL     OW93663   8.294   2.050   8.553
63944SOL    HW193664   8.353   1.975   8.569
63944SOL    HW293665   8.353   2.125   8.546
63945SOL     OW93666  13.486  10.518   3.291
63945SOL    HW193667  13.393  10.522   3.272
63945SOL    HW293668  13.511  10.428   3.268
63946SOL     OW93669   8.279   1.111  10.129
63946SOL    HW193670   8.310   1.191  10.087
63946SOL    HW293671   8.343   1.092  10.197
63947SOL     OW93672   8.720  13.421   5.635
63947SOL    HW193673   8.654  13.478   5.675
63947SOL    HW293674   8.802  13.471   5.641
63948SOL     OW93675   7.945   7.336  14.340
63948SOL    HW193676   7.945   7.268  14.407
63948SOL    HW293677   7.890   7.301  14.270
63949SOL     OW93678  13.490  13.672   5.231
63949SOL    HW193679  13.522  13.697   5.318
63949SOL    HW293680  13.529  13.585   5.216
63950SOL     OW93681   4.058   3.274   0.282
63950SOL    HW193682   3.980   3.231   0.248
63950SOL    HW293683   4.049   3.366   0.255
63951SOL     OW93684  14.378  12.257   3.163
63951SOL    HW193685  14.339  12.339   3.132
63951SOL    HW293686  14.464  12.254   3.122
63952SOL     OW93687   8.117   8.352  12.322
63952SOL    HW193688   8.039   8.314  12.280
63952SOL    HW293689   8.091   8.442  12.342
63953SOL     OW93690   0.991   0.673   5.302
63953SOL    HW193691   1.007   0.665   5.396
63953SOL    HW293692   1.078   0.662   5.263
63954SOL     OW93693  12.666  12.957   0.451
63954SOL    HW193694  12.646  12.871   0.489
63954SOL    HW293695  12.690  12.938   0.361
63955SOL     OW93696   9.028   0.856   4.415
63955SOL    HW193697   8.989   0.918   4.477
63955SOL    HW293698   9.122   0.864   4.429
63956SOL     OW93699   8.807   3.150   4.716
63956SOL    HW193700   8.898   3.152   4.748
63956SOL    HW293701   8.810   3.091   4.641
63957SOL     OW93702  11.944   1.891  10.754
63957SOL    HW193703  11.957   1.799  10.774
63957SOL    HW293704  11.909   1.928  10.836
63958SOL     OW93705   4.473   8.900   8.601
63958SOL    HW193706   4.420   8.875   8.677
63958SOL    HW293707   4.561   8.912   8.636
63959SOL     OW93708  10.121   3.529   9.856
63959SOL    HW193709  10.145   3.553   9.945
63959SOL    HW293710  10.090   3.439   9.862
63960SOL     OW93711  14.872  11.293  12.107
63960SOL    HW193712  14.834  11.209  12.080
63960SOL    HW293713   0.073  11.305  12.051
63961SOL     OW93714   2.279  10.277   1.170
63961SOL    HW193715   2.241  10.352   1.124
63961SOL    HW293716   2.231  10.201   1.136
63962SOL     OW93717   0.386   3.206   3.598
63962SOL    HW193718   0.399   3.162   3.682
63962SOL    HW293719   0.410   3.139   3.533
63963SOL     OW93720   4.099   8.525  14.115
63963SOL    HW193721   4.131   8.447  14.069
63963SOL    HW293722   4.008   8.504  14.134
63964SOL     OW93723   6.435  11.943  12.255
63964SOL    HW193724   6.372  11.874  12.235
63964SOL    HW293725   6.499  11.901  12.312
63965SOL     OW93726   1.511   1.387   7.388
63965SOL    HW193727   1.502   1.325   7.315
63965SOL    HW293728   1.564   1.340   7.452
63966SOL     OW93729   8.476   0.412   3.961
63966SOL    HW193730   8.557   0.419   3.910
63966SOL    HW293731   8.505   0.411   4.052
63967SOL     OW93732   8.682  13.479   2.300
63967SOL    HW193733   8.655  13.512   2.386
63967SOL    HW293734   8.604  13.490   2.245
63968SOL     OW93735   0.089   9.245   1.008
63968SOL    HW193736   0.096   9.337   1.034
63968SOL    HW293737  14.874   9.222   1.026
63969SOL     OW93738  12.425   6.886  13.051
63969SOL    HW193739  12.512   6.867  13.087
63969SOL    HW293740  12.423   6.981  13.042
63970SOL     OW93741   8.080  12.384   6.946
63970SOL    HW193742   8.024  12.424   7.013
63970SOL    HW293743   8.131  12.457   6.912
63971SOL     OW93744   7.779   4.480  11.919
63971SOL    HW193745   7.797   4.415  11.851
63971SOL    HW293746   7.865   4.510  11.947
63972SOL     OW93747   1.846   5.182   1.297
63972SOL    HW193748   1.798   5.220   1.371
63972SOL    HW293749   1.894   5.108   1.334
63973SOL     OW93750   0.063  12.456  12.442
63973SOL    HW193751   0.003  12.454  12.366
63973SOL    HW293752   0.117  12.533  12.428
63974SOL     OW93753  13.799   2.599  12.385
63974SOL    HW193754  13.876   2.549  12.412
63974SOL    HW293755  13.833   2.660  12.319
63975SOL     OW93756   1.859   7.979   3.853
63975SOL    HW193757   1.817   8.020   3.929
63975SOL    HW293758   1.807   8.008   3.778
63976SOL     OW93759  13.989   5.256  14.057
63976SOL    HW193760  14.040   5.188  14.101
63976SOL    HW293761  14.044   5.334  14.061
63977SOL     OW93762   3.301  11.342  13.744
63977SOL    HW193763   3.320  11.297  13.661
63977SOL    HW293764   3.342  11.287  13.811
63978SOL     OW93765   2.668  12.109   5.489
63978SOL    HW193766   2.701  12.105   5.400
63978SOL    HW293767   2.654  12.202   5.506
63979SOL     OW93768   6.008   5.943   5.244
63979SOL    HW193769   5.930   5.974   5.290
63979SOL    HW293770   6.081   5.969   5.301
63980SOL     OW93771   4.601   2.736   3.977
63980SOL    HW193772   4.682   2.769   3.938
63980SOL    HW293773   4.538   2.807   3.963
63981SOL     OW93774   9.172   6.939   6.038
63981SOL    HW193775   9.252   6.953   6.090
63981SOL    HW293776   9.170   7.012   5.977
63982SOL     OW93777   7.014   6.418   5.792
63982SOL    HW193778   7.034   6.504   5.756
63982SOL    HW293779   7.086   6.401   5.854
63983SOL     OW93780  10.339   5.929   6.611
63983SOL    HW193781  10.415   5.891   6.656
63983SOL    HW293782  10.269   5.866   6.626
63984SOL     OW93783  13.720   5.565   8.518
63984SOL    HW193784  13.752   5.655   8.526
63984SOL    HW293785  13.715   5.550   8.423
63985SOL     OW93786   9.794  14.184  13.212
63985SOL    HW193787   9.767  14.271  13.186
63985SOL    HW293788   9.729  14.125  13.173
63986SOL     OW93789   1.666   0.975  10.929
63986SOL    HW193790   1.751   0.941  10.958
63986SOL    HW293791   1.685   1.016  10.845
63987SOL     OW93792   2.462   0.777   7.451
63987SOL    HW193793   2.498   0.698   7.490
63987SOL    HW293794   2.491   0.774   7.360
63988SOL     OW93795  11.018   8.977  13.919
63988SOL    HW193796  10.940   8.931  13.953
63988SOL    HW293797  11.041   9.039  13.988
63989SOL     OW93798  10.486   4.462   4.964
63989SOL    HW193799  10.485   4.419   5.050
63989SOL    HW293800  10.475   4.390   4.902
63990SOL     OW93801   2.329  12.227   3.444
63990SOL    HW193802   2.258  12.242   3.382
63990SOL    HW293803   2.400  12.284   3.413
63991SOL     OW93804   6.960   6.688   6.152
63991SOL    HW193805   7.032   6.692   6.214
63991SOL    HW293806   6.997   6.720   6.070
63992SOL     OW93807   1.525   8.570   9.153
63992SOL    HW193808   1.521   8.637   9.221
63992SOL    HW293809   1.444   8.580   9.104
63993SOL     OW93810   1.347  11.058  10.573
63993SOL    HW193811   1.344  10.982  10.515
63993SOL    HW293812   1.279  11.117  10.541
63994SOL     OW93813   9.344   1.293  14.497
63994SOL    HW193814   9.285   1.367  14.509
63994SOL    HW293815   9.399   1.318  14.422
63995SOL     OW93816  12.204   8.190  11.863
63995SOL    HW193817  12.164   8.224  11.783
63995SOL    HW293818  12.281   8.141  11.833
63996SOL     OW93819  10.626   0.510  13.523
63996SOL    HW193820  10.689   0.439  13.530
63996SOL    HW293821  10.578   0.491  13.442
63997SOL     OW93822   2.199   9.063   4.788
63997SOL    HW193823   2.225   9.137   4.734
63997SOL    HW293824   2.280   9.012   4.798
63998SOL     OW93825   0.449   2.302  10.657
63998SOL    HW193826   0.484   2.235  10.598
63998SOL    HW293827   0.511   2.374  10.650
63999SOL     OW93828  12.648   6.024  11.182
63999SOL    HW193829  12.635   6.002  11.090
63999SOL    HW293830  12.561   6.046  11.214
64000SOL     OW93831  11.632   9.461   5.810
64000SOL    HW193832  11.572   9.531   5.783
64000SOL    HW293833  11.627   9.396   5.740
64001SOL     OW93834  12.954   4.350  10.284
64001SOL    HW193835  12.962   4.299  10.203
64001SOL    HW293836  12.913   4.289  10.346
64002SOL     OW93837   5.357  10.766  12.166
64002SOL    HW193838   5.369  10.723  12.251
64002SOL    HW293839   5.439  10.749  12.119
64003SOL     OW93840   0.371  11.343   4.924
64003SOL    HW193841   0.425  11.410   4.966
64003SOL    HW293842   0.404  11.340   4.834
64004SOL     OW93843   5.003   3.431   5.947
64004SOL    HW193844   4.951   3.399   5.873
64004SOL    HW293845   4.975   3.522   5.957
64005SOL     OW93846   7.423   0.229  13.384
64005SOL    HW193847   7.404   0.201  13.294
64005SOL    HW293848   7.517   0.214  13.394
64006SOL     OW93849   3.472   2.143  14.027
64006SOL    HW193850   3.436   2.084  13.960
64006SOL    HW293851   3.398   2.158  14.086
64007SOL     OW93852   0.949   2.540  14.102
64007SOL    HW193853   0.858   2.568  14.105
64007SOL    HW293854   0.958   2.495  14.018
64008SOL     OW93855   9.789   6.063   6.981
64008SOL    HW193856   9.839   5.985   6.957
64008SOL    HW293857   9.783   6.059   7.077
64009SOL     OW93858   5.347   5.128  10.568
64009SOL    HW193859   5.364   5.222  10.557
64009SOL    HW293860   5.417   5.097  10.625
64010SOL     OW93861   8.649   2.569   9.099
64010SOL    HW193862   8.623   2.622   9.024
64010SOL    HW293863   8.677   2.632   9.165
64011SOL     OW93864   2.389  10.825  11.508
64011SOL    HW193865   2.347  10.752  11.462
64011SOL    HW293866   2.427  10.878  11.439
64012SOL     OW93867   5.155   7.915   8.190
64012SOL    HW193868   5.165   7.833   8.143
64012SOL    HW293869   5.075   7.954   8.155
64013SOL     OW93870   3.058   3.848  11.560
64013SOL    HW193871   3.146   3.880  11.540
64013SOL    HW293872   3.010   3.857  11.478
64014SOL     OW93873  11.634  10.890  11.823
64014SOL    HW193874  11.699  10.914  11.757
64014SOL    HW293875  11.682  10.835  11.885
64015SOL     OW93876   4.729  13.922   4.240
64015SOL    HW193877   4.747  14.011   4.271
64015SOL    HW293878   4.735  13.929   4.145
64016SOL     OW93879   4.123   4.955   0.833
64016SOL    HW193880   4.093   5.043   0.857
64016SOL    HW293881   4.212   4.950   0.869
64017SOL     OW93882  14.469   0.381  10.143
64017SOL    HW193883  14.471   0.296  10.099
64017SOL    HW293884  14.379   0.412  10.131
64018SOL     OW93885   1.195   0.749  12.353
64018SOL    HW193886   1.157   0.678  12.301
64018SOL    HW293887   1.119   0.799  12.384
64019SOL     OW93888   7.737   2.463  11.744
64019SOL    HW193889   7.781   2.377  11.741
64019SOL    HW293890   7.742   2.495  11.654
64020SOL     OW93891  13.139  11.700   6.952
64020SOL    HW193892  13.066  11.638   6.943
64020SOL    HW293893  13.138  11.749   6.870
64021SOL     OW93894   9.944   6.428  10.763
64021SOL    HW193895   9.938   6.427  10.667
64021SOL    HW293896   9.969   6.338  10.786
64022SOL     OW93897   5.755  14.714  10.842
64022SOL    HW193898   5.832  14.666  10.875
64022SOL    HW293899   5.746  14.684  10.752
64023SOL     OW93900   9.966   8.769  14.281
64023SOL    HW193901   9.901   8.773  14.352
64023SOL    HW293902  10.012   8.852  14.286
64024SOL     OW93903  13.785  13.884   7.684
64024SOL    HW193904  13.835  13.907   7.605
64024SOL    HW293905  13.768  13.968   7.727
64025SOL     OW93906   3.208   3.711   7.584
64025SOL    HW193907   3.212   3.687   7.491
64025SOL    HW293908   3.263   3.789   7.591
64026SOL     OW93909   8.692   9.709   5.220
64026SOL    HW193910   8.633   9.780   5.247
64026SOL    HW293911   8.659   9.632   5.265
64027SOL     OW93912   6.843   5.745  14.843
64027SOL    HW193913   6.865   5.661   0.007
64027SOL    HW293914   6.748   5.742  14.831
64028SOL     OW93915   0.660   6.607   3.219
64028SOL    HW193916   0.644   6.669   3.148
64028SOL    HW293917   0.576   6.563   3.233
64029SOL     OW93918  12.479   9.261   5.925
64029SOL    HW193919  12.456   9.327   5.991
64029SOL    HW293920  12.485   9.179   5.973
64030SOL     OW93921   1.907   6.989   1.770
64030SOL    HW193922   1.916   7.047   1.846
64030SOL    HW293923   1.849   7.037   1.711
64031SOL     OW93924   6.836   9.966  13.707
64031SOL    HW193925   6.801   9.882  13.677
64031SOL    HW293926   6.903   9.943  13.771
64032SOL     OW93927  14.432   3.864   6.366
64032SOL    HW193928  14.339   3.885   6.374
64032SOL    HW293929  14.447   3.798   6.434
64033SOL     OW93930  11.018  13.992  11.753
64033SOL    HW193931  10.943  14.002  11.812
64033SOL    HW293932  11.094  13.986  11.811
64034SOL     OW93933   2.712   6.124   8.011
64034SOL    HW193934   2.716   6.030   7.993
64034SOL    HW293935   2.733   6.166   7.927
64035SOL     OW93936   8.434  11.895   3.136
64035SOL    HW193937   8.445  11.980   3.178
64035SOL    HW293938   8.341  11.888   3.117
64036SOL     OW93939  10.831   6.141   3.822
64036SOL    HW193940  10.848   6.121   3.730
64036SOL    HW293941  10.779   6.068   3.854
64037SOL     OW93942   7.570   7.427   3.312
64037SOL    HW193943   7.612   7.461   3.391
64037SOL    HW293944   7.634   7.367   3.274
64038SOL     OW93945   0.342   6.307   6.227
64038SOL    HW193946   0.418   6.339   6.179
64038SOL    HW293947   0.276   6.376   6.217
64039SOL     OW93948  12.777   4.915  13.897
64039SOL    HW193949  12.782   4.860  13.819
64039SOL    HW293950  12.841   4.877  13.958
64040SOL     OW93951  12.332   3.963  14.799
64040SOL    HW193952  12.356   3.948   0.015
64040SOL    HW293953  12.404   3.924  14.750
64041SOL     OW93954   1.847   1.464   9.863
64041SOL    HW193955   1.805   1.550   9.856
64041SOL    HW293956   1.893   1.466   9.947
64042SOL     OW93957  13.231  13.252   3.684
64042SOL    HW193958  13.201  13.241   3.594
64042SOL    HW293959  13.323  13.229   3.682
64043SOL     OW93960   2.508   1.168  11.028
64043SOL    HW193961   2.583   1.152  11.086
64043SOL    HW293962   2.452   1.227  11.079
64044SOL     OW93963   2.665  14.627  12.441
64044SOL    HW193964   2.576  14.653  12.465
64044SOL    HW293965   2.685  14.553  12.497
64045SOL     OW93966  12.915  14.584   8.237
64045SOL    HW193967  12.910  14.679   8.242
64045SOL    HW293968  12.979  14.560   8.303
64046SOL     OW93969  12.390   4.889  13.112
64046SOL    HW193970  12.394   4.907  13.206
64046SOL    HW293971  12.394   4.793  13.106
64047SOL     OW93972  10.331   5.687   7.447
64047SOL    HW193973  10.298   5.721   7.365
64047SOL    HW293974  10.298   5.597   7.451
64048SOL     OW93975   2.819  12.298   4.475
64048SOL    HW193976   2.882  12.327   4.541
64048SOL    HW293977   2.783  12.379   4.439
64049SOL     OW93978  12.716   6.564   6.497
64049SOL    HW193979  12.705   6.504   6.424
64049SOL    HW293980  12.703   6.510   6.575
64050SOL     OW93981  14.579   8.420  13.590
64050SOL    HW193982  14.673   8.417  13.605
64050SOL    HW293983  14.570   8.452  13.500
64051SOL     OW93984   7.463   8.434  12.823
64051SOL    HW193985   7.523   8.371  12.861
64051SOL    HW293986   7.511   8.471  12.749
64052SOL     OW93987   5.731   2.071   8.962
64052SOL    HW193988   5.770   2.072   8.875
64052SOL    HW293989   5.782   2.006   9.011
64053SOL     OW93990   5.362   0.304   0.505
64053SOL    HW193991   5.278   0.320   0.463
64053SOL    HW293992   5.418   0.271   0.435
64054SOL     OW93993   7.872   5.951  14.128
64054SOL    HW193994   7.879   5.861  14.159
64054SOL    HW293995   7.962   5.982  14.122
64055SOL     OW93996  12.763   2.672  12.003
64055SOL    HW193997  12.739   2.749  11.951
64055SOL    HW293998  12.858   2.678  12.011
64056SOL     OW93999   6.902  11.813   8.474
64056SOL    HW194000   6.816  11.772   8.463
64056SOL    HW294001   6.903  11.840   8.565
64057SOL     OW94002  10.464   3.425   2.717
64057SOL    HW194003  10.457   3.396   2.808
64057SOL    HW294004  10.375   3.417   2.683
64058SOL     OW94005   9.836  10.795   2.534
64058SOL    HW194006   9.880  10.834   2.459
64058SOL    HW294007   9.758  10.849   2.546
64059SOL     OW94008  14.449  11.853  11.649
64059SOL    HW194009  14.469  11.870  11.741
64059SOL    HW294010  14.457  11.938  11.607
64060SOL     OW94011   2.464  14.868  10.847
64060SOL    HW194012   2.452   0.023  10.757
64060SOL    HW294013   2.405  14.793  10.855
64061SOL     OW94014   3.198   5.535   0.361
64061SOL    HW194015   3.194   5.530   0.457
64061SOL    HW294016   3.269   5.595   0.343
64062SOL     OW94017   2.146   5.013  10.227
64062SOL    HW194018   2.160   4.923  10.257
64062SOL    HW294019   2.093   5.004  10.149
64063SOL     OW94020   0.483  14.431   6.161
64063SOL    HW194021   0.481  14.490   6.086
64063SOL    HW294022   0.562  14.378   6.149
64064SOL     OW94023  13.274   1.850   4.424
64064SOL    HW194024  13.211   1.877   4.356
64064SOL    HW294025  13.299   1.932   4.467
64065SOL     OW94026   2.499  10.963   0.451
64065SOL    HW194027   2.520  10.891   0.510
64065SOL    HW294028   2.442  10.923   0.385
64066SOL     OW94029  12.533   5.081  14.479
64066SOL    HW194030  12.621   5.057  14.506
64066SOL    HW294031  12.516   5.027  14.402
64067SOL     OW94032  14.545   9.059   5.057
64067SOL    HW194033  14.581   8.974   5.085
64067SOL    HW294034  14.452   9.054   5.080
64068SOL     OW94035   5.396  14.853  11.655
64068SOL    HW194036   5.357   0.058  11.687
64068SOL    HW294037   5.325  14.788  11.660
64069SOL     OW94038   1.655   8.161  13.280
64069SOL    HW194039   1.578   8.211  13.308
64069SOL    HW294040   1.696   8.133  13.361
64070SOL     OW94041  13.615   8.264   7.809
64070SOL    HW194042  13.571   8.343   7.779
64070SOL    HW294043  13.641   8.283   7.899
64071SOL     OW94044  14.057   3.163  11.525
64071SOL    HW194045  14.052   3.222  11.449
64071SOL    HW294046  14.005   3.087  11.499
64072SOL     OW94047   1.090   2.052   5.099
64072SOL    HW194048   1.081   2.120   5.166
64072SOL    HW294049   1.100   2.100   5.017
64073SOL     OW94050  12.643   9.817   2.680
64073SOL    HW194051  12.633   9.804   2.586
64073SOL    HW294052  12.705   9.889   2.689
64074SOL     OW94053   5.725  11.228   6.928
64074SOL    HW194054   5.630  11.224   6.917
64074SOL    HW294055   5.737  11.280   7.008
64075SOL     OW94056   8.618  10.984  14.486
64075SOL    HW194057   8.561  10.983  14.409
64075SOL    HW294058   8.703  10.956  14.453
64076SOL     OW94059   5.550  13.470  14.317
64076SOL    HW194060   5.519  13.513  14.237
64076SOL    HW294061   5.602  13.536  14.362
64077SOL     OW94062   3.436   2.287   2.425
64077SOL    HW194063   3.489   2.229   2.480
64077SOL    HW294064   3.360   2.234   2.402
64078SOL     OW94065   1.241   4.576   5.492
64078SOL    HW194066   1.278   4.607   5.410
64078SOL    HW294067   1.264   4.483   5.496
64079SOL     OW94068   3.379   6.342   9.107
64079SOL    HW194069   3.318   6.409   9.140
64079SOL    HW294070   3.429   6.386   9.039
64080SOL     OW94071  11.891   2.788   7.225
64080SOL    HW194072  11.890   2.695   7.202
64080SOL    HW294073  11.829   2.829   7.164
64081SOL     OW94074   6.033   7.623  13.077
64081SOL    HW194075   6.086   7.546  13.059
64081SOL    HW294076   6.074   7.693  13.025
64082SOL     OW94077   5.724   1.090   2.856
64082SOL    HW194078   5.749   1.000   2.835
64082SOL    HW294079   5.781   1.114   2.928
64083SOL     OW94080  13.613   3.452   4.124
64083SOL    HW194081  13.631   3.412   4.209
64083SOL    HW294082  13.692   3.438   4.073
64084SOL     OW94083  13.382   2.535   9.068
64084SOL    HW194084  13.343   2.620   9.087
64084SOL    HW294085  13.367   2.521   8.975
64085SOL     OW94086   2.284   0.039  14.620
64085SOL    HW194087   2.252  14.851  14.684
64085SOL    HW294088   2.334   0.102  14.672
64086SOL     OW94089   8.395   1.029  12.032
64086SOL    HW194090   8.324   1.082  12.069
64086SOL    HW294091   8.448   1.091  11.981
64087SOL     OW94092   2.991   7.363  13.442
64087SOL    HW194093   2.982   7.269  13.456
64087SOL    HW294094   3.077   7.385  13.476
64088SOL     OW94095  14.736   0.043   5.907
64088SOL    HW194096  14.821   0.062   5.867
64088SOL    HW294097  14.709   0.127   5.946
64089SOL     OW94098   6.035  14.060   7.980
64089SOL    HW194099   5.946  14.077   8.011
64089SOL    HW294100   6.026  13.986   7.920
64090SOL     OW94101  11.027   5.880   3.139
64090SOL    HW194102  11.033   5.961   3.189
64090SOL    HW294103  10.938   5.880   3.104
64091SOL     OW94104   9.102   9.122   7.606
64091SOL    HW194105   9.024   9.174   7.588
64091SOL    HW294106   9.172   9.165   7.557
64092SOL     OW94107   3.384   2.977   0.250
64092SOL    HW194108   3.356   2.925   0.175
64092SOL    HW294109   3.477   2.957   0.260
64093SOL     OW94110  11.344   5.601  14.095
64093SOL    HW194111  11.343   5.534  14.164
64093SOL    HW294112  11.399   5.671  14.131
64094SOL     OW94113  14.710   3.260   8.059
64094SOL    HW194114  14.734   3.177   8.100
64094SOL    HW294115  14.757   3.261   7.977
64095SOL     OW94116   1.576  10.932  12.975
64095SOL    HW194117   1.484  10.935  12.949
64095SOL    HW294118   1.623  10.975  12.903
64096SOL     OW94119   4.472   1.917   1.373
64096SOL    HW194120   4.566   1.936   1.377
64096SOL    HW294121   4.436   1.956   1.452
64097SOL     OW94122  13.847   6.241   8.929
64097SOL    HW194123  13.791   6.168   8.956
64097SOL    HW294124  13.908   6.252   9.002
64098SOL     OW94125   5.952  13.080   0.806
64098SOL    HW194126   5.897  13.159   0.803
64098SOL    HW294127   5.952  13.054   0.898
64099SOL     OW94128  11.911  11.869   3.882
64099SOL    HW194129  12.002  11.849   3.902
64099SOL    HW294130  11.866  11.868   3.966
64100SOL     OW94131   8.327   5.191   3.723
64100SOL    HW194132   8.289   5.112   3.762
64100SOL    HW294133   8.421   5.172   3.719
64101SOL     OW94134   0.875   3.331  13.605
64101SOL    HW194135   0.925   3.394  13.657
64101SOL    HW294136   0.932   3.309  13.532
64102SOL     OW94137   3.994   4.374  14.063
64102SOL    HW194138   4.070   4.338  14.019
64102SOL    HW294139   4.027   4.403  14.148
64103SOL     OW94140   5.483   1.274  14.664
64103SOL    HW194141   5.425   1.342  14.630
64103SOL    HW294142   5.452   1.193  14.623
64104SOL     OW94143   8.147  13.511  12.628
64104SOL    HW194144   8.195  13.555  12.558
64104SOL    HW294145   8.177  13.554  12.709
64105SOL     OW94146  13.638   2.077   1.153
64105SOL    HW194147  13.543   2.068   1.168
64105SOL    HW294148  13.677   2.010   1.209
64106SOL     OW94149   7.909   1.664  13.678
64106SOL    HW194150   7.849   1.734  13.653
64106SOL    HW294151   7.978   1.666  13.612
64107SOL     OW94152  12.715   7.124   0.127
64107SOL    HW194153  12.707   7.059   0.057
64107SOL    HW294154  12.653   7.193   0.102
64108SOL     OW94155  13.754   6.708   6.914
64108SOL    HW194156  13.825   6.746   6.863
64108SOL    HW294157  13.680   6.703   6.853
64109SOL     OW94158  13.009  13.335  13.458
64109SOL    HW194159  12.938  13.379  13.411
64109SOL    HW294160  12.988  13.350  13.551
64110SOL     OW94161   9.457   3.759   4.725
64110SOL    HW194162   9.510   3.773   4.647
64110SOL    HW294163   9.421   3.671   4.713
64111SOL     OW94164   0.231   1.163  12.450
64111SOL    HW194165   0.271   1.250  12.443
64111SOL    HW294166   0.273   1.111  12.381
64112SOL     OW94167   0.560   9.177  13.262
64112SOL    HW194168   0.631   9.235  13.291
64112SOL    HW294169   0.505   9.167  13.340
64113SOL     OW94170   9.287   7.008   5.423
64113SOL    HW194171   9.348   6.935   5.422
64113SOL    HW294172   9.332   7.077   5.472
64114SOL     OW94173  13.534   3.331   2.762
64114SOL    HW194174  13.620   3.311   2.724
64114SOL    HW294175  13.545   3.314   2.855
64115SOL     OW94176  10.715   2.397  10.527
64115SOL    HW194177  10.663   2.348  10.463
64115SOL    HW294178  10.806   2.375  10.505
64116SOL     OW94179   7.871   5.801   2.333
64116SOL    HW194180   7.852   5.760   2.248
64116SOL    HW294181   7.961   5.832   2.325
64117SOL     OW94182  11.784  10.023   1.129
64117SOL    HW194183  11.872  10.049   1.155
64117SOL    HW294184  11.770  10.066   1.045
64118SOL     OW94185  14.554   8.392   4.234
64118SOL    HW194186  14.546   8.486   4.215
64118SOL    HW294187  14.589   8.389   4.323
64119SOL     OW94188   2.377   5.868   5.341
64119SOL    HW194189   2.322   5.925   5.287
64119SOL    HW294190   2.436   5.826   5.279
64120SOL     OW94191  14.010   3.635   4.859
64120SOL    HW194192  14.042   3.617   4.948
64120SOL    HW294193  13.979   3.726   4.864
64121SOL     OW94194   7.455   8.335   0.554
64121SOL    HW194195   7.525   8.286   0.597
64121SOL    HW294196   7.430   8.280   0.479
64122SOL     OW94197   3.088  13.658   8.792
64122SOL    HW194198   3.158  13.724   8.803
64122SOL    HW294199   3.014  13.694   8.839
64123SOL     OW94200   8.502  10.047   2.608
64123SOL    HW194201   8.549   9.987   2.667
64123SOL    HW294202   8.569  10.108   2.579
64124SOL     OW94203  10.121  11.481   5.238
64124SOL    HW194204  10.092  11.514   5.153
64124SOL    HW294205  10.078  11.538   5.302
64125SOL     OW94206   3.606   4.297  11.146
64125SOL    HW194207   3.656   4.364  11.192
64125SOL    HW294208   3.628   4.309  11.054
64126SOL     OW94209   5.745   8.928   7.143
64126SOL    HW194210   5.775   8.844   7.178
64126SOL    HW294211   5.772   8.927   7.051
64127SOL     OW94212  11.564   4.421  10.081
64127SOL    HW194213  11.659   4.432  10.067
64127SOL    HW294214  11.555   4.414  10.176
64128SOL     OW94215  12.092   3.052  11.465
64128SOL    HW194216  12.008   3.058  11.510
64128SOL    HW294217  12.087   3.118  11.396
64129SOL     OW94218   2.232  14.232  10.031
64129SOL    HW194219   2.287  14.174   9.978
64129SOL    HW294220   2.218  14.309   9.975
64130SOL     OW94221   3.777  14.657   1.406
64130SOL    HW194222   3.837  14.589   1.438
64130SOL    HW294223   3.743  14.698   1.485
64131SOL     OW94224   2.702   8.592  14.718
64131SOL    HW194225   2.749   8.510  14.732
64131SOL    HW294226   2.633   8.569  14.656
64132SOL     OW94227   8.276   1.126   0.441
64132SOL    HW194228   8.344   1.062   0.461
64132SOL    HW294229   8.302   1.204   0.489
64133SOL     OW94230  11.150   4.650   5.801
64133SOL    HW194231  11.208   4.585   5.762
64133SOL    HW294232  11.206   4.698   5.862
64134SOL     OW94233   9.418  12.967   3.006
64134SOL    HW194234   9.344  12.909   2.990
64134SOL    HW294235   9.417  12.982   3.100
64135SOL     OW94236   1.174   3.305  14.096
64135SOL    HW194237   1.215   3.299  14.010
64135SOL    HW294238   1.247   3.294  14.157
64136SOL     OW94239  13.715   3.492   0.924
64136SOL    HW194240  13.709   3.401   0.953
64136SOL    HW294241  13.718   3.486   0.828
64137SOL     OW94242   5.100   2.292   6.324
64137SOL    HW194243   5.098   2.206   6.282
64137SOL    HW294244   5.028   2.340   6.284
64138SOL     OW94245  12.707   2.039   7.431
64138SOL    HW194246  12.799   2.042   7.455
64138SOL    HW294247  12.704   1.992   7.348
64139SOL     OW94248   0.235   9.799  13.488
64139SOL    HW194249   0.156   9.851  13.502
64139SOL    HW294250   0.278   9.840  13.413
64140SOL     OW94251   0.004  10.713   1.469
64140SOL    HW194252   0.031  10.630   1.431
64140SOL    HW294253  14.840  10.761   1.397
64141SOL     OW94254  10.125   2.489   8.969
64141SOL    HW194255  10.179   2.418   9.003
64141SOL    HW294256  10.038   2.471   9.003
64142SOL     OW94257  10.014   3.261   6.879
64142SOL    HW194258  10.106   3.249   6.857
64142SOL    HW294259  10.014   3.327   6.948
64143SOL     OW94260   9.628  11.232   1.294
64143SOL    HW194261   9.607  11.140   1.315
64143SOL    HW294262   9.675  11.263   1.372
64144SOL     OW94263  11.587   7.254   5.699
64144SOL    HW194264  11.627   7.275   5.783
64144SOL    HW294265  11.512   7.313   5.693
64145SOL     OW94266   9.405   4.593   5.629
64145SOL    HW194267   9.461   4.631   5.562
64145SOL    HW294268   9.465   4.546   5.687
64146SOL     OW94269   5.226   1.967   2.711
64146SOL    HW194270   5.164   1.951   2.782
64146SOL    HW294271   5.271   1.883   2.700
64147SOL     OW94272   6.206  11.780   7.320
64147SOL    HW194273   6.220  11.858   7.267
64147SOL    HW294274   6.293  11.747   7.339
64148SOL     OW94275  11.587   9.384   8.174
64148SOL    HW194276  11.517   9.342   8.224
64148SOL    HW294277  11.667   9.360   8.221
64149SOL     OW94278   4.845  10.874   3.980
64149SOL    HW194279   4.835  10.849   4.072
64149SOL    HW294280   4.773  10.830   3.935
64150SOL     OW94281   2.981   7.707   8.112
64150SOL    HW194282   2.931   7.762   8.172
64150SOL    HW294283   3.014   7.767   8.045
64151SOL     OW94284  14.565  10.365   9.164
64151SOL    HW194285  14.556  10.397   9.074
64151SOL    HW294286  14.581  10.271   9.155
64152SOL     OW94287   7.087  12.021   5.540
64152SOL    HW194288   7.082  11.963   5.464
64152SOL    HW294289   7.030  11.979   5.605
64153SOL     OW94290   5.384   2.542   0.894
64153SOL    HW194291   5.370   2.572   0.804
64153SOL    HW294292   5.347   2.612   0.948
64154SOL     OW94293   8.889   9.591   5.511
64154SOL    HW194294   8.932   9.587   5.426
64154SOL    HW294295   8.961   9.591   5.574
64155SOL     OW94296   7.593  11.067   6.319
64155SOL    HW194297   7.678  11.106   6.299
64155SOL    HW294298   7.613  10.980   6.353
64156SOL     OW94299  10.207   1.338   6.402
64156SOL    HW194300  10.205   1.314   6.495
64156SOL    HW294301  10.118   1.368   6.383
64157SOL     OW94302   4.895   6.927   5.564
64157SOL    HW194303   4.965   6.991   5.576
64157SOL    HW294304   4.881   6.889   5.651
64158SOL     OW94305  10.870  11.704   2.826
64158SOL    HW194306  10.844  11.749   2.745
64158SOL    HW294307  10.852  11.612   2.809
64159SOL     OW94308  10.456   3.048  14.686
64159SOL    HW194309  10.551   3.035  14.697
64159SOL    HW294310  10.444   3.142  14.693
64160SOL     OW94311   3.549  11.751  13.792
64160SOL    HW194312   3.538  11.799  13.711
64160SOL    HW294313   3.635  11.777  13.825
64161SOL     OW94314   2.592  13.911   7.933
64161SOL    HW194315   2.535  13.954   7.869
64161SOL    HW294316   2.647  13.982   7.967
64162SOL     OW94317   3.588  13.603   8.440
64162SOL    HW194318   3.537  13.528   8.407
64162SOL    HW294319   3.537  13.636   8.514
64163SOL     OW94320  13.078   2.226   9.668
64163SOL    HW194321  12.994   2.242   9.711
64163SOL    HW294322  13.078   2.285   9.593
64164SOL     OW94323   2.080  11.645   5.764
64164SOL    HW194324   2.139  11.596   5.822
64164SOL    HW294325   1.992  11.625   5.796
64165SOL     OW94326   2.668   4.730  13.705
64165SOL    HW194327   2.720   4.667  13.654
64165SOL    HW294328   2.691   4.712  13.796
64166SOL     OW94329  13.910   5.204   7.969
64166SOL    HW194330  13.925   5.192   8.062
64166SOL    HW294331  13.894   5.298   7.959
64167SOL     OW94332   4.903   6.808   5.818
64167SOL    HW194333   4.998   6.818   5.826
64167SOL    HW294334   4.869   6.837   5.903
64168SOL     OW94335  10.240   5.504  13.500
64168SOL    HW194336  10.306   5.573  13.514
64168SOL    HW294337  10.252   5.478  13.409
64169SOL     OW94338   2.955   5.247   4.843
64169SOL    HW194339   2.873   5.293   4.861
64169SOL    HW294340   3.013   5.274   4.915
64170SOL     OW94341   5.620   8.525   0.891
64170SOL    HW194342   5.593   8.484   0.974
64170SOL    HW294343   5.697   8.577   0.914
64171SOL     OW94344  13.315  13.037   0.935
64171SOL    HW194345  13.317  12.993   1.020
64171SOL    HW294346  13.293  12.967   0.873
64172SOL     OW94347  12.916  12.083   8.913
64172SOL    HW194348  12.905  12.045   8.826
64172SOL    HW294349  13.004  12.058   8.939
64173SOL     OW94350   0.332   5.224  13.257
64173SOL    HW194351   0.259   5.283  13.277
64173SOL    HW294352   0.410   5.273  13.280
64174SOL     OW94353  10.741   4.910  12.333
64174SOL    HW194354  10.819   4.924  12.279
64174SOL    HW294355  10.668   4.919  12.272
64175SOL     OW94356   8.638  13.618  12.541
64175SOL    HW194357   8.680  13.621  12.455
64175SOL    HW294358   8.560  13.673  12.532
64176SOL     OW94359   9.844  11.040   2.164
64176SOL    HW194360   9.784  11.040   2.090
64176SOL    HW294361   9.818  11.116   2.216
64177SOL     OW94362   4.707  12.510   0.274
64177SOL    HW194363   4.724  12.416   0.284
64177SOL    HW294364   4.617  12.516   0.245
64178SOL     OW94365  12.539  13.671   8.183
64178SOL    HW194366  12.531  13.656   8.277
64178SOL    HW294367  12.611  13.614   8.155
64179SOL     OW94368   7.441  13.796   8.977
64179SOL    HW194369   7.444  13.880   8.930
64179SOL    HW294370   7.479  13.815   9.063
64180SOL     OW94371  10.741   6.103   1.123
64180SOL    HW194372  10.664   6.154   1.096
64180SOL    HW294373  10.730   6.093   1.218
64181SOL     OW94374   8.270   5.494   6.762
64181SOL    HW194375   8.326   5.485   6.685
64181SOL    HW294376   8.239   5.584   6.759
64182SOL     OW94377   9.838  10.722   8.540
64182SOL    HW194378   9.871  10.635   8.562
64182SOL    HW294379   9.910  10.781   8.561
64183SOL     OW94380   6.095  10.626  12.800
64183SOL    HW194381   6.054  10.710  12.782
64183SOL    HW294382   6.024  10.571  12.833
64184SOL     OW94383  11.868  13.349   0.177
64184SOL    HW194384  11.853  13.401   0.098
64184SOL    HW294385  11.799  13.377   0.237
64185SOL     OW94386  10.216   3.150  13.048
64185SOL    HW194387  10.219   3.071  12.993
64185SOL    HW294388  10.307   3.176  13.057
64186SOL     OW94389  10.941   7.738  10.906
64186SOL    HW194390  10.925   7.733  11.000
64186SOL    HW294391  11.015   7.679  10.891
64187SOL     OW94392  13.731   9.629  12.613
64187SOL    HW194393  13.817   9.656  12.646
64187SOL    HW294394  13.693   9.577  12.684
64188SOL     OW94395  14.203   1.565  14.129
64188SOL    HW194396  14.122   1.567  14.078
64188SOL    HW294397  14.240   1.652  14.119
64189SOL     OW94398  11.264  11.196   0.505
64189SOL    HW194399  11.265  11.213   0.599
64189SOL    HW294400  11.249  11.102   0.498
64190SOL     OW94401   0.474  10.844   0.561
64190SOL    HW194402   0.473  10.768   0.502
64190SOL    HW294403   0.567  10.857   0.580
64191SOL     OW94404   8.268   7.078   1.197
64191SOL    HW194405   8.209   7.012   1.236
64191SOL    HW294406   8.332   7.027   1.148
64192SOL     OW94407   1.966   1.929  10.068
64192SOL    HW194408   1.985   1.867  10.138
64192SOL    HW294409   1.947   2.012  10.113
64193SOL     OW94410  10.677  13.983   1.124
64193SOL    HW194411  10.766  13.950   1.110
64193SOL    HW294412  10.655  14.031   1.044
64194SOL     OW94413   0.488  10.345   5.500
64194SOL    HW194414   0.461  10.325   5.590
64194SOL    HW294415   0.516  10.261   5.464
64195SOL     OW94416   5.933  10.611   3.987
64195SOL    HW194417   5.853  10.608   3.935
64195SOL    HW294418   5.922  10.543   4.053
64196SOL     OW94419  10.361   7.766   7.736
64196SOL    HW194420  10.286   7.773   7.678
64196SOL    HW294421  10.398   7.855   7.739
64197SOL     OW94422   7.934   0.315   9.783
64197SOL    HW194423   7.968   0.300   9.695
64197SOL    HW294424   7.932   0.411   9.792
64198SOL     OW94425   4.398   7.851  12.234
64198SOL    HW194426   4.365   7.804  12.310
64198SOL    HW294427   4.491   7.827  12.228
64199SOL     OW94428  10.775   1.363   3.174
64199SOL    HW194429  10.762   1.385   3.082
64199SOL    HW294430  10.870   1.366   3.186
64200SOL     OW94431   8.025  12.151   4.270
64200SOL    HW194432   8.093  12.188   4.214
64200SOL    HW294433   7.956  12.122   4.210
64201SOL     OW94434  13.857   2.854   7.486
64201SOL    HW194435  13.862   2.831   7.393
64201SOL    HW294436  13.850   2.950   7.486
64202SOL     OW94437   5.358  11.309  11.886
64202SOL    HW194438   5.268  11.298  11.855
64202SOL    HW294439   5.368  11.242  11.955
64203SOL     OW94440   8.079   6.683   6.878
64203SOL    HW194441   8.048   6.755   6.824
64203SOL    HW294442   8.000   6.645   6.915
64204SOL     OW94443   0.750   4.871   4.952
64204SOL    HW194444   0.658   4.856   4.975
64204SOL    HW294445   0.761   4.826   4.868
64205SOL     OW94446   5.451   1.732   4.938
64205SOL    HW194447   5.542   1.762   4.937
64205SOL    HW294448   5.457   1.638   4.952
64206SOL     OW94449  12.735  12.643  14.694
64206SOL    HW194450  12.752  12.552  14.668
64206SOL    HW294451  12.822  12.684  14.696
64207SOL     OW94452  10.155   0.549   4.240
64207SOL    HW194453  10.080   0.591   4.198
64207SOL    HW294454  10.232   0.592   4.204
64208SOL     OW94455  12.162  12.821   8.007
64208SOL    HW194456  12.188  12.741   8.052
64208SOL    HW294457  12.141  12.883   8.077
64209SOL     OW94458   5.289   4.845  10.608
64209SOL    HW194459   5.304   4.800  10.525
64209SOL    HW294460   5.302   4.938  10.588
64210SOL     OW94461   9.958   0.913   7.004
64210SOL    HW194462  10.017   0.895   7.077
64210SOL    HW294463  10.017   0.930   6.930
64211SOL     OW94464   0.343  11.961  10.808
64211SOL    HW194465   0.248  11.950  10.816
64211SOL    HW294466   0.378  11.922  10.888
64212SOL     OW94467   1.468  12.429  10.347
64212SOL    HW194468   1.420  12.376  10.283
64212SOL    HW294469   1.527  12.483  10.295
64213SOL     OW94470  10.191   3.857  10.987
64213SOL    HW194471  10.156   3.944  11.006
64213SOL    HW294472  10.273   3.873  10.941
64214SOL     OW94473   7.224  13.654   5.021
64214SOL    HW194474   7.252  13.734   5.066
64214SOL    HW294475   7.259  13.662   4.933
64215SOL     OW94476  10.446   7.121  12.557
64215SOL    HW194477  10.512   7.190  12.557
64215SOL    HW294478  10.438   7.096  12.465
64216SOL     OW94479   1.097   8.925   8.763
64216SOL    HW194480   1.026   8.988   8.748
64216SOL    HW294481   1.128   8.945   8.851
64217SOL     OW94482   7.924  11.622   4.343
64217SOL    HW194483   7.948  11.583   4.258
64217SOL    HW294484   7.973  11.704   4.346
64218SOL     OW94485   9.712   5.456   3.478
64218SOL    HW194486   9.618   5.460   3.461
64218SOL    HW294487   9.735   5.545   3.505
64219SOL     OW94488   2.761   2.060   2.434
64219SOL    HW194489   2.699   2.125   2.465
64219SOL    HW294490   2.722   1.976   2.457
64220SOL     OW94491   6.153   7.452  14.378
64220SOL    HW194492   6.142   7.491  14.465
64220SOL    HW294493   6.243   7.420  14.377
64221SOL     OW94494   5.763   9.313   3.472
64221SOL    HW194495   5.837   9.367   3.502
64221SOL    HW294496   5.804   9.248   3.415
64222SOL     OW94497   1.359   0.670   5.431
64222SOL    HW194498   1.293   0.614   5.471
64222SOL    HW294499   1.425   0.610   5.396
64223SOL     OW94500   2.352   3.273   6.378
64223SOL    HW194501   2.447   3.263   6.370
64223SOL    HW294502   2.341   3.354   6.428
64224SOL     OW94503   9.621  14.771   2.332
64224SOL    HW194504   9.694  14.823   2.299
64224SOL    HW294505   9.591  14.819   2.409
64225SOL     OW94506   0.940   8.054  11.077
64225SOL    HW194507   0.898   8.129  11.118
64225SOL    HW294508   1.034   8.071  11.088
64226SOL     OW94509   5.260   3.961   2.047
64226SOL    HW194510   5.265   4.050   2.083
64226SOL    HW294511   5.351   3.933   2.040
64227SOL     OW94512  11.937  13.314   1.798
64227SOL    HW194513  11.868  13.311   1.865
64227SOL    HW294514  11.924  13.235   1.747
64228SOL     OW94515   9.816   4.101   7.142
64228SOL    HW194516   9.795   4.178   7.089
64228SOL    HW294517   9.792   4.125   7.231
64229SOL     OW94518   1.770   5.730   2.824
64229SOL    HW194519   1.797   5.656   2.770
64229SOL    HW294520   1.756   5.801   2.762
64230SOL     OW94521  14.766  11.762   4.269
64230SOL    HW194522  14.850  11.742   4.228
64230SOL    HW294523  14.788  11.787   4.359
64231SOL     OW94524   8.549   4.879   7.784
64231SOL    HW194525   8.605   4.861   7.708
64231SOL    HW294526   8.582   4.961   7.820
64232SOL     OW94527  11.922   2.475   6.340
64232SOL    HW194528  11.898   2.548   6.398
64232SOL    HW294529  11.963   2.411   6.398
64233SOL     OW94530   4.062   0.455   2.903
64233SOL    HW194531   4.114   0.490   2.830
64233SOL    HW294532   4.000   0.524   2.924
64234SOL     OW94533   7.915   0.170   6.197
64234SOL    HW194534   7.963   0.147   6.118
64234SOL    HW294535   7.907   0.087   6.245
64235SOL     OW94536   0.348  13.889   4.523
64235SOL    HW194537   0.413  13.865   4.457
64235SOL    HW294538   0.376  13.975   4.554
64236SOL     OW94539   0.747  14.539  14.375
64236SOL    HW194540   0.732  14.630  14.349
64236SOL    HW294541   0.821  14.544  14.435
64237SOL     OW94542   1.456   6.203  11.244
64237SOL    HW194543   1.545   6.176  11.221
64237SOL    HW294544   1.410   6.209  11.161
64238SOL     OW94545   1.507   0.116   4.437
64238SOL    HW194546   1.559   0.042   4.405
64238SOL    HW294547   1.571   0.174   4.477
64239SOL     OW94548   0.155   4.856   5.195
64239SOL    HW194549   0.249   4.872   5.203
64239SOL    HW294550   0.126   4.842   5.285
64240SOL     OW94551  12.147  14.366  12.682
64240SOL    HW194552  12.240  14.356  12.660
64240SOL    HW294553  12.108  14.281  12.660
64241SOL     OW94554   0.735  11.445   7.796
64241SOL    HW194555   0.714  11.366   7.845
64241SOL    HW294556   0.749  11.415   7.707
64242SOL     OW94557  14.848   3.973   8.973
64242SOL    HW194558  14.802   3.910   9.029
64242SOL    HW294559  14.785   4.045   8.961
64243SOL     OW94560   8.714   0.856   6.619
64243SOL    HW194561   8.809   0.849   6.613
64243SOL    HW294562   8.691   0.930   6.563
64244SOL     OW94563   0.387   9.783   2.144
64244SOL    HW194564   0.404   9.830   2.226
64244SOL    HW294565   0.330   9.842   2.095
64245SOL     OW94566  11.255   6.427  13.887
64245SOL    HW194567  11.249   6.401  13.979
64245SOL    HW294568  11.213   6.356  13.839
64246SOL     OW94569   3.256   5.052  12.320
64246SOL    HW194570   3.319   5.115  12.284
64246SOL    HW294571   3.248   4.985  12.252
64247SOL     OW94572   1.327   7.002   7.403
64247SOL    HW194573   1.238   7.018   7.435
64247SOL    HW294574   1.383   7.044   7.468
64248SOL     OW94575   3.608   0.874   6.910
64248SOL    HW194576   3.621   0.923   6.991
64248SOL    HW294577   3.593   0.940   6.843
64249SOL     OW94578   2.083   5.184  12.923
64249SOL    HW194579   2.025   5.109  12.924
64249SOL    HW294580   2.162   5.154  12.967
64250SOL     OW94581  12.908   5.631   5.740
64250SOL    HW194582  12.986   5.579   5.723
64250SOL    HW294583  12.940   5.709   5.784
64251SOL     OW94584   4.107   4.682  10.922
64251SOL    HW194585   4.081   4.642  11.005
64251SOL    HW294586   4.185   4.733  10.943
64252SOL     OW94587   9.944   9.674  11.267
64252SOL    HW194588   9.995   9.754  11.279
64252SOL    HW294589   9.990   9.627  11.197
64253SOL     OW94590   4.393   1.656   2.604
64253SOL    HW194591   4.397   1.587   2.538
64253SOL    HW294592   4.310   1.702   2.586
64254SOL     OW94593  11.179   9.597   9.897
64254SOL    HW194594  11.165   9.670   9.957
64254SOL    HW294595  11.122   9.527   9.929
64255SOL     OW94596   4.516   0.275   9.517
64255SOL    HW194597   4.499   0.238   9.430
64255SOL    HW294598   4.611   0.266   9.528
64256SOL     OW94599  13.960   0.172   1.310
64256SOL    HW194600  13.884   0.206   1.263
64256SOL    HW294601  13.978   0.238   1.378
64257SOL     OW94602   7.454   3.470  11.077
64257SOL    HW194603   7.529   3.506  11.123
64257SOL    HW294604   7.490   3.399  11.023
64258SOL     OW94605   3.646   3.468   2.977
64258SOL    HW194606   3.652   3.554   3.018
64258SOL    HW294607   3.700   3.474   2.898
64259SOL     OW94608  12.525   0.075   3.063
64259SOL    HW194609  12.453   0.038   3.114
64259SOL    HW294610  12.562   0.001   3.016
64260SOL     OW94611   4.192   2.544  14.230
64260SOL    HW194612   4.159   2.547  14.320
64260SOL    HW294613   4.160   2.461  14.195
64261SOL     OW94614   9.122  10.204  10.933
64261SOL    HW194615   9.083  10.127  10.893
64261SOL    HW294616   9.179  10.170  11.002
64262SOL     OW94617  13.043   3.727  11.321
64262SOL    HW194618  13.016   3.812  11.286
64262SOL    HW294619  12.962   3.689  11.357
64263SOL     OW94620   8.054  12.253  10.903
64263SOL    HW194621   8.142  12.253  10.941
64263SOL    HW294622   8.062  12.305  10.823
64264SOL     OW94623  12.102  12.113  12.157
64264SOL    HW194624  12.057  12.045  12.207
64264SOL    HW294625  12.191  12.113  12.190
64265SOL     OW94626   1.660  11.657   4.586
64265SOL    HW194627   1.617  11.610   4.657
64265SOL    HW294628   1.655  11.597   4.511
64266SOL     OW94629   7.918   2.594   0.123
64266SOL    HW194630   7.912   2.683   0.088
64266SOL    HW294631   7.840   2.584   0.177
64267SOL     OW94632  13.188  14.076   3.582
64267SOL    HW194633  13.260  14.039   3.632
64267SOL    HW294634  13.229  14.120   3.508
64268SOL     OW94635   0.558   0.686   4.996
64268SOL    HW194636   0.596   0.600   5.014
64268SOL    HW294637   0.618   0.726   4.933
64269SOL     OW94638   6.839   5.011   2.384
64269SOL    HW194639   6.930   5.006   2.355
64269SOL    HW294640   6.817   4.922   2.412
64270SOL     OW94641   1.338  14.043   0.321
64270SOL    HW194642   1.403  14.092   0.270
64270SOL    HW294643   1.307  14.107   0.386
64271SOL     OW94644   9.044   4.978   6.786
64271SOL    HW194645   9.126   5.024   6.771
64271SOL    HW294646   8.976   5.037   6.754
64272SOL     OW94647   2.519  10.455   9.675
64272SOL    HW194648   2.434  10.469   9.632
64272SOL    HW294649   2.523  10.523   9.743
64273SOL     OW94650   1.841   2.142  10.670
64273SOL    HW194651   1.750   2.170  10.671
64273SOL    HW294652   1.840   2.061  10.618
64274SOL     OW94653   1.203   3.956   2.221
64274SOL    HW194654   1.169   3.895   2.155
64274SOL    HW294655   1.268   3.906   2.269
64275SOL     OW94656  13.343  11.594  13.176
64275SOL    HW194657  13.342  11.501  13.152
64275SOL    HW294658  13.251  11.619  13.176
64276SOL     OW94659   7.547   2.234   3.832
64276SOL    HW194660   7.613   2.185   3.881
64276SOL    HW294661   7.498   2.282   3.900
64277SOL     OW94662   7.319  10.528   9.331
64277SOL    HW194663   7.332  10.462   9.262
64277SOL    HW294664   7.295  10.477   9.408
64278SOL     OW94665  13.911   9.079   5.715
64278SOL    HW194666  13.922   9.030   5.797
64278SOL    HW294667  13.996   9.120   5.701
64279SOL     OW94668  10.691  14.172   7.735
64279SOL    HW194669  10.614  14.129   7.699
64279SOL    HW294670  10.680  14.264   7.712
64280SOL     OW94671  12.096  13.990  13.997
64280SOL    HW194672  12.087  14.043  13.917
64280SOL    HW294673  12.012  14.000  14.042
64281SOL     OW94674   6.640   7.769   3.675
64281SOL    HW194675   6.671   7.708   3.742
64281SOL    HW294676   6.578   7.826   3.721
64282SOL     OW94677  13.809   0.998   1.700
64282SOL    HW194678  13.726   0.983   1.655
64282SOL    HW294679  13.792   1.070   1.760
64283SOL     OW94680   1.453   5.400   7.244
64283SOL    HW194681   1.527   5.383   7.186
64283SOL    HW294682   1.400   5.320   7.240
64284SOL     OW94683  12.667  11.671   0.524
64284SOL    HW194684  12.607  11.735   0.485
64284SOL    HW294685  12.696  11.712   0.605
64285SOL     OW94686   7.992   6.757   4.863
64285SOL    HW194687   7.920   6.815   4.889
64285SOL    HW294688   8.070   6.796   4.903
64286SOL     OW94689   2.162  14.079   6.665
64286SOL    HW194690   2.200  14.138   6.731
64286SOL    HW294691   2.069  14.077   6.686
64287SOL     OW94692  12.543   1.932   8.965
64287SOL    HW194693  12.460   1.931   9.011
64287SOL    HW294694  12.553   1.843   8.931
64288SOL     OW94695  13.934   0.665   4.760
64288SOL    HW194696  13.845   0.693   4.782
64288SOL    HW294697  13.928   0.633   4.670
64289SOL     OW94698  14.866   1.076   8.393
64289SOL    HW194699  14.872   1.163   8.354
64289SOL    HW294700   0.067   1.069   8.449
64290SOL     OW94701   7.765  11.426   2.595
64290SOL    HW194702   7.685  11.372   2.592
64290SOL    HW294703   7.815  11.390   2.668
64291SOL     OW94704   2.152   8.306   1.994
64291SOL    HW194705   2.236   8.275   1.959
64291SOL    HW294706   2.129   8.381   1.939
64292SOL     OW94707  13.820   2.080   9.222
64292SOL    HW194708  13.903   2.128   9.223
64292SOL    HW294709  13.834   2.010   9.159
64293SOL     OW94710   1.172   0.322   1.169
64293SOL    HW194711   1.085   0.349   1.196
64293SOL    HW294712   1.212   0.403   1.136
64294SOL     OW94713  13.540  10.519   6.063
64294SOL    HW194714  13.595  10.461   6.011
64294SOL    HW294715  13.465  10.465   6.088
64295SOL     OW94716   3.744   9.227   4.680
64295SOL    HW194717   3.736   9.296   4.746
64295SOL    HW294718   3.659   9.184   4.681
64296SOL     OW94719   0.891   9.789   7.138
64296SOL    HW194720   0.826   9.790   7.208
64296SOL    HW294721   0.859   9.723   7.076
64297SOL     OW94722   1.263   8.750   0.337
64297SOL    HW194723   1.351   8.778   0.361
64297SOL    HW294724   1.273   8.658   0.311
64298SOL     OW94725   4.579   0.838   3.643
64298SOL    HW194726   4.484   0.842   3.656
64298SOL    HW294727   4.605   0.929   3.629
64299SOL     OW94728  11.436  13.817  11.670
64299SOL    HW194729  11.345  13.789  11.675
64299SOL    HW294730  11.476  13.758  11.605
64300SOL     OW94731   8.733   2.249   0.853
64300SOL    HW194732   8.677   2.250   0.775
64300SOL    HW294733   8.689   2.308   0.914
64301SOL     OW94734   1.173   5.326   8.732
64301SOL    HW194735   1.128   5.362   8.808
64301SOL    HW294736   1.266   5.339   8.750
64302SOL     OW94737  11.699   3.119   6.146
64302SOL    HW194738  11.792   3.138   6.157
64302SOL    HW294739  11.661   3.203   6.119
64303SOL     OW94740  14.332   2.048   6.321
64303SOL    HW194741  14.287   2.127   6.352
64303SOL    HW294742  14.367   2.008   6.401
64304SOL     OW94743  12.536  12.040   1.493
64304SOL    HW194744  12.468  12.095   1.533
64304SOL    HW294745  12.490  11.959   1.469
64305SOL     OW94746   2.325   9.273   7.059
64305SOL    HW194747   2.307   9.246   6.969
64305SOL    HW294748   2.254   9.235   7.111
64306SOL     OW94749   7.254   4.590   5.014
64306SOL    HW194750   7.254   4.543   5.098
64306SOL    HW294751   7.212   4.674   5.034
64307SOL     OW94752   1.041   8.551   0.879
64307SOL    HW194753   1.115   8.602   0.847
64307SOL    HW294754   0.999   8.516   0.800
64308SOL     OW94755   7.793  10.958   0.847
64308SOL    HW194756   7.744  11.011   0.909
64308SOL    HW294757   7.728  10.901   0.806
64309SOL     OW94758   2.560   6.839   9.047
64309SOL    HW194759   2.615   6.766   9.019
64309SOL    HW294760   2.605   6.917   9.016
64310SOL     OW94761   3.558  13.379   9.222
64310SOL    HW194762   3.587  13.299   9.266
64310SOL    HW294763   3.613  13.385   9.144
64311SOL     OW94764   5.383   0.916   2.240
64311SOL    HW194765   5.358   0.934   2.331
64311SOL    HW294766   5.348   0.991   2.191
64312SOL     OW94767  10.227  12.595   7.718
64312SOL    HW194768  10.239  12.501   7.704
64312SOL    HW294769  10.137  12.612   7.690
64313SOL     OW94770   2.044   8.037   3.459
64313SOL    HW194771   2.075   7.983   3.533
64313SOL    HW294772   1.949   8.039   3.469
64314SOL     OW94773  11.042   5.663   0.511
64314SOL    HW194774  11.008   5.579   0.543
64314SOL    HW294775  11.068   5.645   0.421
64315SOL     OW94776   1.834   7.822  11.412
64315SOL    HW194777   1.802   7.745  11.459
64315SOL    HW294778   1.887   7.869  11.476
64316SOL     OW94779   4.655  10.633   8.555
64316SOL    HW194780   4.665  10.564   8.621
64316SOL    HW294781   4.605  10.591   8.485
64317SOL     OW94782   0.123  12.480   1.244
64317SOL    HW194783   0.057  12.544   1.217
64317SOL    HW294784   0.153  12.440   1.163
64318SOL     OW94785   6.546   3.991  13.023
64318SOL    HW194786   6.522   4.083  13.019
64318SOL    HW294787   6.482   3.947  12.966
64319SOL     OW94788  13.679   4.955   8.494
64319SOL    HW194789  13.607   4.956   8.431
64319SOL    HW294790  13.654   5.021   8.560
64320SOL     OW94791   4.762   1.355   1.333
64320SOL    HW194792   4.826   1.288   1.309
64320SOL    HW294793   4.677   1.317   1.310
64321SOL     OW94794   1.002   5.936  12.525
64321SOL    HW194795   1.026   5.968  12.612
64321SOL    HW294796   0.911   5.907  12.535
64322SOL     OW94797   3.239   1.131   9.785
64322SOL    HW194798   3.257   1.218   9.749
64322SOL    HW294799   3.315   1.110   9.839
64323SOL     OW94800  13.043  13.431   2.819
64323SOL    HW194801  13.039  13.516   2.862
64323SOL    HW294802  13.006  13.370   2.883
64324SOL     OW94803   7.746   8.529   5.211
64324SOL    HW194804   7.690   8.480   5.271
64324SOL    HW294805   7.689   8.552   5.138
64325SOL     OW94806   4.556   0.251   5.333
64325SOL    HW194807   4.468   0.250   5.371
64325SOL    HW294808   4.591   0.164   5.351
64326SOL     OW94809   2.832  10.023   8.343
64326SOL    HW194810   2.923   9.995   8.330
64326SOL    HW294811   2.823  10.027   8.439
64327SOL     OW94812   4.267   4.518   3.273
64327SOL    HW194813   4.282   4.517   3.178
64327SOL    HW294814   4.196   4.581   3.285
64328SOL     OW94815   8.119  11.222   8.074
64328SOL    HW194816   8.164  11.260   7.998
64328SOL    HW294817   8.060  11.157   8.038
64329SOL     OW94818   6.114   1.479   0.218
64329SOL    HW194819   6.183   1.468   0.283
64329SOL    HW294820   6.048   1.534   0.261
64330SOL     OW94821   4.541  10.061  13.970
64330SOL    HW194822   4.597  10.018  14.034
64330SOL    HW294823   4.592  10.063  13.889
64331SOL     OW94824   7.808   3.743   7.966
64331SOL    HW194825   7.890   3.696   7.951
64331SOL    HW294826   7.835   3.827   8.002
64332SOL     OW94827   6.465   9.221  13.059
64332SOL    HW194828   6.403   9.183  12.997
64332SOL    HW294829   6.412   9.245  13.135
64333SOL     OW94830  13.355  13.859  12.849
64333SOL    HW194831  13.410  13.849  12.771
64333SOL    HW294832  13.416  13.860  12.922
64334SOL     OW94833  12.820   3.721  11.675
64334SOL    HW194834  12.895   3.663  11.668
64334SOL    HW294835  12.807   3.732  11.770
64335SOL     OW94836   5.082   1.994   7.204
64335SOL    HW194837   5.053   1.987   7.295
64335SOL    HW294838   5.045   2.077   7.173
64336SOL     OW94839   9.200  14.625   5.902
64336SOL    HW194840   9.253  14.621   5.822
64336SOL    HW294841   9.186  14.718   5.918
64337SOL     OW94842   2.354  13.527   7.127
64337SOL    HW194843   2.294  13.501   7.057
64337SOL    HW294844   2.339  13.464   7.197
64338SOL     OW94845   1.968   2.588  14.800
64338SOL    HW194846   2.017   2.570  14.720
64338SOL    HW294847   2.032   2.626  14.860
64339SOL     OW94848   7.026   0.609  10.013
64339SOL    HW194849   7.059   0.650   9.933
64339SOL    HW294850   6.931   0.621  10.010
64340SOL     OW94851   0.572   6.365   4.779
64340SOL    HW194852   0.508   6.299   4.752
64340SOL    HW294853   0.627   6.379   4.702
64341SOL     OW94854   8.253   0.135   1.265
64341SOL    HW194855   8.289   0.111   1.180
64341SOL    HW294856   8.324   0.119   1.327
64342SOL     OW94857   1.340   4.826   6.599
64342SOL    HW194858   1.286   4.803   6.524
64342SOL    HW294859   1.413   4.764   6.596
64343SOL     OW94860   9.133   6.140   8.888
64343SOL    HW194861   9.066   6.079   8.918
64343SOL    HW294862   9.181   6.164   8.967
64344SOL     OW94863  10.166   2.204  13.388
64344SOL    HW194864  10.197   2.125  13.433
64344SOL    HW294865  10.214   2.204  13.305
64345SOL     OW94866  14.582   8.509  14.792
64345SOL    HW194867  14.537   8.491  14.874
64345SOL    HW294868  14.521   8.481  14.724
64346SOL     OW94869  13.009  10.912   5.191
64346SOL    HW194870  12.928  10.893   5.239
64346SOL    HW294871  12.993  10.878   5.103
64347SOL     OW94872   3.117   5.703   9.890
64347SOL    HW194873   3.107   5.628   9.831
64347SOL    HW294874   3.028   5.722   9.920
64348SOL     OW94875   8.142   3.851   5.804
64348SOL    HW194876   8.106   3.924   5.754
64348SOL    HW294877   8.079   3.780   5.793
64349SOL     OW94878   7.227  10.449   1.971
64349SOL    HW194879   7.149  10.404   1.937
64349SOL    HW294880   7.205  10.542   1.964
64350SOL     OW94881   3.956   8.501   4.554
64350SOL    HW194882   3.982   8.585   4.590
64350SOL    HW294883   3.923   8.452   4.629
64351SOL     OW94884   1.920   1.629   9.467
64351SOL    HW194885   1.972   1.564   9.513
64351SOL    HW294886   1.917   1.704   9.526
64352SOL     OW94887   3.753   4.499  11.211
64352SOL    HW194888   3.742   4.545  11.128
64352SOL    HW294889   3.789   4.565  11.271
64353SOL     OW94890   3.896   0.504  10.584
64353SOL    HW194891   3.950   0.427  10.603
64353SOL    HW294892   3.936   0.574  10.635
64354SOL     OW94893   7.468  11.198   1.190
64354SOL    HW194894   7.411  11.225   1.118
64354SOL    HW294895   7.436  11.248   1.266
64355SOL     OW94896   2.085   9.752   7.599
64355SOL    HW194897   2.026   9.794   7.662
64355SOL    HW294898   2.152   9.817   7.581
64356SOL     OW94899  11.124  14.112   7.902
64356SOL    HW194900  11.056  14.089   7.840
64356SOL    HW294901  11.198  14.056   7.879
64357SOL     OW94902   9.245   0.819   7.089
64357SOL    HW194903   9.288   0.872   7.022
64357SOL    HW294904   9.158   0.858   7.097
64358SOL     OW94905  10.890   8.721   0.951
64358SOL    HW194906  10.902   8.629   0.929
64358SOL    HW294907  10.969   8.744   0.999
64359SOL     OW94908  10.901   0.862   6.672
64359SOL    HW194909  10.953   0.928   6.719
64359SOL    HW294910  10.962   0.826   6.608
64360SOL     OW94911   7.197   4.909   2.794
64360SOL    HW194912   7.118   4.952   2.826
64360SOL    HW294913   7.268   4.946   2.847
64361SOL     OW94914   3.796   4.153  12.643
64361SOL    HW194915   3.763   4.243  12.643
64361SOL    HW294916   3.885   4.160  12.677
64362SOL     OW94917   8.991  12.747   3.220
64362SOL    HW194918   9.035  12.749   3.135
64362SOL    HW294919   8.925  12.678   3.211
64363SOL     OW94920   8.397   2.973   0.713
64363SOL    HW194921   8.423   2.881   0.720
64363SOL    HW294922   8.303   2.972   0.731
64364SOL     OW94923   5.371   3.233   3.010
64364SOL    HW194924   5.442   3.270   2.957
64364SOL    HW294925   5.415   3.173   3.070
64365SOL     OW94926   0.886   1.340   5.506
64365SOL    HW194927   0.980   1.327   5.519
64365SOL    HW294928   0.865   1.416   5.559
64366SOL     OW94929   5.856  12.656   3.585
64366SOL    HW194930   5.815  12.573   3.559
64366SOL    HW294931   5.786  12.705   3.628
64367SOL     OW94932  10.241   4.860   8.401
64367SOL    HW194933  10.298   4.901   8.337
64367SOL    HW294934  10.299   4.835   8.473
64368SOL     OW94935   0.443   8.152   4.248
64368SOL    HW194936   0.480   8.110   4.170
64368SOL    HW294937   0.394   8.082   4.292
64369SOL     OW94938   2.835   5.718   6.517
64369SOL    HW194939   2.741   5.715   6.500
64369SOL    HW294940   2.846   5.789   6.580
64370SOL     OW94941  11.407   2.090   8.957
64370SOL    HW194942  11.350   2.120   8.886
64370SOL    HW294943  11.495   2.113   8.929
64371SOL     OW94944   3.535  10.340  14.522
64371SOL    HW194945   3.617  10.309  14.561
64371SOL    HW294946   3.547  10.329  14.428
64372SOL     OW94947   2.479  13.678   9.774
64372SOL    HW194948   2.523  13.639   9.698
64372SOL    HW294949   2.443  13.603   9.822
64373SOL     OW94950   2.429  12.316   9.563
64373SOL    HW194951   2.342  12.344   9.592
64373SOL    HW294952   2.415  12.273   9.479
64374SOL     OW94953  10.725   4.244  14.334
64374SOL    HW194954  10.727   4.178  14.403
64374SOL    HW294955  10.686   4.199  14.259
64375SOL     OW94956  10.821   6.119  11.351
64375SOL    HW194957  10.816   6.129  11.446
64375SOL    HW294958  10.730   6.124  11.322
64376SOL     OW94959   5.803  11.564  13.951
64376SOL    HW194960   5.740  11.533  13.885
64376SOL    HW294961   5.804  11.494  14.017
64377SOL     OW94962   5.460  13.232   2.543
64377SOL    HW194963   5.471  13.139   2.520
64377SOL    HW294964   5.545  13.271   2.526
64378SOL     OW94965   7.453   1.301   6.862
64378SOL    HW194966   7.480   1.210   6.873
64378SOL    HW294967   7.365   1.295   6.826
64379SOL     OW94968   2.811   7.160   0.956
64379SOL    HW194969   2.902   7.189   0.946
64379SOL    HW294970   2.784   7.135   0.868
64380SOL     OW94971   2.399   2.457  12.173
64380SOL    HW194972   2.412   2.527  12.109
64380SOL    HW294973   2.373   2.381  12.122
64381SOL     OW94974   9.602   9.533   7.072
64381SOL    HW194975   9.649   9.591   7.133
64381SOL    HW294976   9.593   9.585   6.992
64382SOL     OW94977   1.681  10.864   7.413
64382SOL    HW194978   1.650  10.779   7.441
64382SOL    HW294979   1.665  10.922   7.488
64383SOL     OW94980   4.857  13.127   0.597
64383SOL    HW194981   4.778  13.176   0.577
64383SOL    HW294982   4.921  13.193   0.624
64384SOL     OW94983   3.416   5.291   2.302
64384SOL    HW194984   3.340   5.245   2.338
64384SOL    HW294985   3.465   5.321   2.379
64385SOL     OW94986   2.955   9.586  13.363
64385SOL    HW194987   2.891   9.521  13.332
64385SOL    HW294988   2.960   9.572  13.457
64386SOL     OW94989   2.450   4.702  12.888
64386SOL    HW194990   2.510   4.754  12.834
64386SOL    HW294991   2.506   4.666  12.958
64387SOL     OW94992  13.077  12.693  11.731
64387SOL    HW194993  13.086  12.610  11.683
64387SOL    HW294994  13.133  12.683  11.807
64388SOL     OW94995   4.589   0.002   0.018
64388SOL    HW194996   4.650   0.071   0.045
64388SOL    HW294997   4.550   0.035  14.813
64389SOL     OW94998  10.137   8.067   4.361
64389SOL    HW194999  10.104   8.011   4.432
64389SOL    HW295000  10.166   8.005   4.294
64390SOL     OW95001   0.880  10.489   2.060
64390SOL    HW195002   0.889  10.536   2.143
64390SOL    HW295003   0.807  10.532   2.016
64391SOL     OW95004   9.148  10.046  10.456
64391SOL    HW195005   9.215  10.056  10.524
64391SOL    HW295006   9.067  10.073  10.499
64392SOL     OW95007   1.692   1.969   3.489
64392SOL    HW195008   1.680   1.896   3.549
64392SOL    HW295009   1.748   2.030   3.537
64393SOL     OW95010  14.536   9.905   4.756
64393SOL    HW195011  14.503   9.975   4.699
64393SOL    HW295012  14.587   9.848   4.697
64394SOL     OW95013   5.924  13.797   1.528
64394SOL    HW195014   5.875  13.715   1.533
64394SOL    HW295015   5.867  13.861   1.571
64395SOL     OW95016  13.515  14.847  10.718
64395SOL    HW195017  13.567   0.045  10.750
64395SOL    HW295018  13.516  14.784  10.791
64396SOL     OW95019   5.447  14.244   0.363
64396SOL    HW195020   5.532  14.203   0.380
64396SOL    HW295021   5.454  14.276   0.274
64397SOL     OW95022   1.785   1.011  11.273
64397SOL    HW195023   1.706   1.063  11.288
64397SOL    HW295024   1.771   0.930  11.322
64398SOL     OW95025   0.157   0.077   8.131
64398SOL    HW195026   0.084   0.135   8.153
64398SOL    HW295027   0.226   0.136   8.099
64399SOL     OW95028   9.359   5.196   9.682
64399SOL    HW195029   9.334   5.209   9.590
64399SOL    HW295030   9.400   5.110   9.683
64400SOL     OW95031   4.469   4.618   6.645
64400SOL    HW195032   4.557   4.598   6.615
64400SOL    HW295033   4.481   4.658   6.731
64401SOL     OW95034   2.023   6.529   1.620
64401SOL    HW195035   2.097   6.560   1.671
64401SOL    HW295036   1.985   6.459   1.673
64402SOL     OW95037   7.261  12.575   8.333
64402SOL    HW195038   7.281  12.544   8.422
64402SOL    HW295039   7.245  12.669   8.344
64403SOL     OW95040  13.505   7.593   5.241
64403SOL    HW195041  13.487   7.539   5.164
64403SOL    HW295042  13.420   7.600   5.285
64404SOL     OW95043   7.039   7.612   0.750
64404SOL    HW195044   6.979   7.615   0.824
64404SOL    HW295045   7.032   7.523   0.716
64405SOL     OW95046   6.132  10.726  14.385
64405SOL    HW195047   6.186  10.686  14.453
64405SOL    HW295048   6.155  10.679  14.305
64406SOL     OW95049  11.912   0.941  14.525
64406SOL    HW195050  11.906   1.031  14.492
64406SOL    HW295051  11.933   0.888  14.448
64407SOL     OW95052  13.466   1.118   5.565
64407SOL    HW195053  13.402   1.183   5.595
64407SOL    HW295054  13.436   1.036   5.603
64408SOL     OW95055  14.073   6.334  13.363
64408SOL    HW195056  14.004   6.270  13.380
64408SOL    HW295057  14.149   6.280  13.340
64409SOL     OW95058   1.421  14.148   6.345
64409SOL    HW195059   1.403  14.078   6.408
64409SOL    HW295060   1.471  14.212   6.395
64410SOL     OW95061   0.652   4.762  11.980
64410SOL    HW195062   0.707   4.735  11.906
64410SOL    HW295063   0.598   4.685  11.998
64411SOL     OW95064  13.238   7.523   9.385
64411SOL    HW195065  13.235   7.522   9.481
64411SOL    HW295066  13.289   7.446   9.362
64412SOL     OW95067  12.615   8.062   9.071
64412SOL    HW195068  12.641   8.154   9.059
64412SOL    HW295069  12.601   8.029   8.982
64413SOL     OW95070   9.879   7.998   8.318
64413SOL    HW195071   9.908   7.959   8.400
64413SOL    HW295072   9.959   8.031   8.277
64414SOL     OW95073   0.012   6.094   8.475
64414SOL    HW195074  14.856   6.016   8.430
64414SOL    HW295075   0.095   6.114   8.432
64415SOL     OW95076   7.308   9.671  14.754
64415SOL    HW195077   7.358   9.595  14.783
64415SOL    HW295078   7.320   9.672  14.659
64416SOL     OW95079   9.928   3.769  10.356
64416SOL    HW195080   9.851   3.749  10.304
64416SOL    HW295081   9.992   3.800  10.292
64417SOL     OW95082   3.052   7.801   8.389
64417SOL    HW195083   3.100   7.807   8.306
64417SOL    HW295084   3.072   7.883   8.434
64418SOL     OW95085   9.283   4.485   4.930
64418SOL    HW195086   9.205   4.530   4.899
64418SOL    HW295087   9.323   4.448   4.851
64419SOL     OW95088   7.695  14.429  12.756
64419SOL    HW195089   7.623  14.482  12.789
64419SOL    HW295090   7.653  14.354  12.715
64420SOL     OW95091   1.452   8.765   9.325
64420SOL    HW195092   1.462   8.731   9.414
64420SOL    HW295093   1.360   8.791   9.319
64421SOL     OW95094   7.837  10.739  13.590
64421SOL    HW195095   7.861  10.745  13.497
64421SOL    HW295096   7.908  10.687  13.629
64422SOL     OW95097   6.630  14.832  12.712
64422SOL    HW195098   6.648   0.031  12.770
64422SOL    HW295099   6.655  14.755  12.764
64423SOL     OW95100   1.864  13.823   5.876
64423SOL    HW195101   1.911  13.764   5.934
64423SOL    HW295102   1.771  13.801   5.888
64424SOL     OW95103   2.780  10.097   1.733
64424SOL    HW195104   2.779  10.186   1.699
64424SOL    HW295105   2.688  10.073   1.743
64425SOL     OW95106   7.583  10.737   4.806
64425SOL    HW195107   7.538  10.732   4.722
64425SOL    HW295108   7.531  10.800   4.857
64426SOL     OW95109   3.032   3.657   3.720
64426SOL    HW195110   3.014   3.692   3.807
64426SOL    HW295111   3.126   3.639   3.720
64427SOL     OW95112  11.920   4.713   6.989
64427SOL    HW195113  11.987   4.656   7.025
64427SOL    HW295114  11.965   4.796   6.973
64428SOL     OW95115   4.433  14.584   6.269
64428SOL    HW195116   4.353  14.605   6.221
64428SOL    HW295117   4.469  14.508   6.224
64429SOL     OW95118  12.090   7.106  10.031
64429SOL    HW195119  12.060   7.080  10.119
64429SOL    HW295120  12.038   7.051   9.972
64430SOL     OW95121   4.853   1.727  14.145
64430SOL    HW195122   4.866   1.708  14.238
64430SOL    HW295123   4.766   1.766  14.139
64431SOL     OW95124   0.179  14.578  14.297
64431SOL    HW195125   0.123  14.656  14.299
64431SOL    HW295126   0.266  14.611  14.318
64432SOL     OW95127   7.455   4.975  12.440
64432SOL    HW195128   7.536   5.023  12.425
64432SOL    HW295129   7.439   4.981  12.534
64433SOL     OW95130  11.825   5.209   9.767
64433SOL    HW195131  11.857   5.289   9.726
64433SOL    HW295132  11.737   5.197   9.733
64434SOL     OW95133   2.929   8.613  11.286
64434SOL    HW195134   2.845   8.653  11.266
64434SOL    HW295135   2.942   8.629  11.380
64435SOL     OW95136   5.612  12.596   6.171
64435SOL    HW195137   5.527  12.551   6.175
64435SOL    HW295138   5.602  12.658   6.098
64436SOL     OW95139   9.885   8.183   4.508
64436SOL    HW195140   9.895   8.145   4.421
64436SOL    HW295141   9.866   8.276   4.491
64437SOL     OW95142   4.663   0.224   4.891
64437SOL    HW195143   4.633   0.133   4.882
64437SOL    HW295144   4.752   0.217   4.923
64438SOL     OW95145   9.826  13.036   2.226
64438SOL    HW195146   9.839  13.029   2.132
64438SOL    HW295147   9.836  13.129   2.246
64439SOL     OW95148  10.589  14.517  13.861
64439SOL    HW195149  10.496  14.540  13.867
64439SOL    HW295150  10.610  14.527  13.769
64440SOL     OW95151   1.117   2.223  14.514
64440SOL    HW195152   1.075   2.206  14.598
64440SOL    HW295153   1.062   2.178  14.450
64441SOL     OW95154  14.138   5.071   4.878
64441SOL    HW195155  14.045   5.094   4.871
64441SOL    HW295156  14.180   5.151   4.910
64442SOL     OW95157  14.510   3.714   4.761
64442SOL    HW195158  14.457   3.770   4.818
64442SOL    HW295159  14.530   3.769   4.685
64443SOL     OW95160   2.671  14.211   3.489
64443SOL    HW195161   2.758  14.250   3.486
64443SOL    HW295162   2.687  14.118   3.506
64444SOL     OW95163  14.216   0.407   3.848
64444SOL    HW195164  14.159   0.333   3.867
64444SOL    HW295165  14.300   0.383   3.889
64445SOL     OW95166   9.618   1.067   5.553
64445SOL    HW195167   9.589   1.139   5.610
64445SOL    HW295168   9.537   1.028   5.521
64446SOL     OW95169   3.460   9.386   1.589
64446SOL    HW195170   3.537   9.426   1.548
64446SOL    HW295171   3.406   9.461   1.616
64447SOL     OW95172   1.509   3.045  14.045
64447SOL    HW195173   1.562   2.978  14.002
64447SOL    HW295174   1.504   3.016  14.136
64448SOL     OW95175   6.596   0.713   6.452
64448SOL    HW195176   6.532   0.726   6.382
64448SOL    HW295177   6.582   0.787   6.511
64449SOL     OW95178   9.774   6.750  14.806
64449SOL    HW195179   9.705   6.737  14.740
64449SOL    HW295180   9.754   6.835  14.845
64450SOL     OW95181  12.898   2.320  10.462
64450SOL    HW195182  12.969   2.268  10.423
64450SOL    HW295183  12.891   2.286  10.552
64451SOL     OW95184  14.727   9.637   3.801
64451SOL    HW195185  14.722   9.709   3.865
64451SOL    HW295186  14.636   9.615   3.784
64452SOL     OW95187  13.412  13.623   3.650
64452SOL    HW195188  13.328  13.656   3.618
64452SOL    HW295189  13.421  13.536   3.611
64453SOL     OW95190   5.986   6.062   4.480
64453SOL    HW195191   6.008   6.026   4.394
64453SOL    HW295192   6.021   6.151   4.480
64454SOL     OW95193  12.434   6.922   1.455
64454SOL    HW195194  12.477   6.963   1.380
64454SOL    HW295195  12.506   6.897   1.513
64455SOL     OW95196   9.469  14.392   4.037
64455SOL    HW195197   9.532  14.462   4.023
64455SOL    HW295198   9.446  14.362   3.949
64456SOL     OW95199  13.534   5.123  11.066
64456SOL    HW195200  13.597   5.191  11.090
64456SOL    HW295201  13.583   5.065  11.007
64457SOL     OW95202   6.775   8.389   4.038
64457SOL    HW195203   6.864   8.386   4.074
64457SOL    HW295204   6.739   8.472   4.068
64458SOL     OW95205   0.803   7.174   0.050
64458SOL    HW195206   0.782   7.099  14.870
64458SOL    HW295207   0.829   7.243  14.865
64459SOL     OW95208  10.506   9.680   3.145
64459SOL    HW195209  10.414   9.707   3.154
64459SOL    HW295210  10.549   9.756   3.105
64460SOL     OW95211   5.552   6.282  12.769
64460SOL    HW195212   5.613   6.276  12.842
64460SOL    HW295213   5.472   6.239  12.801
64461SOL     OW95214   4.563   5.434   0.783
64461SOL    HW195215   4.622   5.371   0.822
64461SOL    HW295216   4.576   5.514   0.833
64462SOL     OW95217   3.026   6.142   2.984
64462SOL    HW195218   3.024   6.164   2.891
64462SOL    HW295219   3.011   6.225   3.029
64463SOL     OW95220   5.441   1.339   3.973
64463SOL    HW195221   5.392   1.412   3.935
64463SOL    HW295222   5.447   1.274   3.902
64464SOL     OW95223  11.432  13.438  11.035
64464SOL    HW195224  11.405  13.425  10.945
64464SOL    HW295225  11.350  13.441  11.085
64465SOL     OW95226   1.694  13.890   7.117
64465SOL    HW195227   1.677  13.983   7.103
64465SOL    HW295228   1.703  13.881   7.212
64466SOL     OW95229   8.963  12.165   6.944
64466SOL    HW195230   9.009  12.098   6.995
64466SOL    HW295231   8.893  12.118   6.899
64467SOL     OW95232   0.629   3.376   7.509
64467SOL    HW195233   0.715   3.368   7.550
64467SOL    HW295234   0.606   3.469   7.517
64468SOL     OW95235  14.006  10.766  14.396
64468SOL    HW195236  14.060  10.745  14.472
64468SOL    HW295237  14.025  10.696  14.333
64469SOL     OW95238   1.048   2.828   7.669
64469SOL    HW195239   1.036   2.822   7.574
64469SOL    HW295240   1.000   2.753   7.704
64470SOL     OW95241   2.687  11.160   9.793
64470SOL    HW195242   2.654  11.144   9.881
64470SOL    HW295243   2.637  11.102   9.737
64471SOL     OW95244   6.527   3.174   2.069
64471SOL    HW195245   6.510   3.158   2.162
64471SOL    HW295246   6.573   3.095   2.040
64472SOL     OW95247   7.705  13.919  12.739
64472SOL    HW195248   7.776  13.869  12.780
64472SOL    HW295249   7.725  13.918  12.645
64473SOL     OW95250   1.933   8.035   0.590
64473SOL    HW195251   1.863   7.985   0.549
64473SOL    HW295252   2.000   7.970   0.611
64474SOL     OW95253   3.249   4.251  13.033
64474SOL    HW195254   3.264   4.202  12.952
64474SOL    HW295255   3.199   4.328  13.006
64475SOL     OW95256   3.889  14.686   9.412
64475SOL    HW195257   3.803  14.684   9.370
64475SOL    HW295258   3.948  14.719   9.344
64476SOL     OW95259   2.894   4.993   4.934
64476SOL    HW195260   2.904   5.084   4.907
64476SOL    HW295261   2.974   4.974   4.983
64477SOL     OW95262  13.934  11.640  10.339
64477SOL    HW195263  13.875  11.715  10.324
64477SOL    HW295264  14.002  11.650  10.273
64478SOL     OW95265   9.682   4.668   4.289
64478SOL    HW195266   9.621   4.716   4.233
64478SOL    HW295267   9.766   4.675   4.244
64479SOL     OW95268  14.076   4.644  12.301
64479SOL    HW195269  14.105   4.557  12.328
64479SOL    HW295270  13.986   4.649  12.332
64480SOL     OW95271  11.991   3.549  13.713
64480SOL    HW195272  12.023   3.561  13.624
64480SOL    HW295273  11.954   3.634  13.737
64481SOL     OW95274   3.570   4.630   4.464
64481SOL    HW195275   3.609   4.573   4.529
64481SOL    HW295276   3.643   4.683   4.431
64482SOL     OW95277   4.451   7.419  14.579
64482SOL    HW195278   4.491   7.455  14.500
64482SOL    HW295279   4.438   7.494  14.636
64483SOL     OW95280  14.498   6.609   0.187
64483SOL    HW195281  14.585   6.616   0.149
64483SOL    HW295282  14.511   6.563   0.270
64484SOL     OW95283  13.467  12.749   7.597
64484SOL    HW195284  13.533  12.681   7.608
64484SOL    HW295285  13.384  12.702   7.596
64485SOL     OW95286   3.750  13.372   2.272
64485SOL    HW195287   3.822  13.312   2.288
64485SOL    HW295288   3.726  13.358   2.181
64486SOL     OW95289   7.247   4.187   5.813
64486SOL    HW195290   7.220   4.266   5.861
64486SOL    HW295291   7.339   4.201   5.794
64487SOL     OW95292  11.313   4.794   5.033
64487SOL    HW195293  11.266   4.870   5.069
64487SOL    HW295294  11.322   4.813   4.940
64488SOL     OW95295   3.446   2.785   4.396
64488SOL    HW195296   3.470   2.860   4.449
64488SOL    HW295297   3.440   2.712   4.458
64489SOL     OW95298   1.141  13.088   7.280
64489SOL    HW195299   1.230  13.074   7.312
64489SOL    HW295300   1.098  13.137   7.350
64490SOL     OW95301  12.560   8.327   4.818
64490SOL    HW195302  12.596   8.254   4.767
64490SOL    HW295303  12.580   8.305   4.909
64491SOL     OW95304   1.698   6.690   4.209
64491SOL    HW195305   1.616   6.648   4.182
64491SOL    HW295306   1.715   6.655   4.297
64492SOL     OW95307   0.131   4.666  12.072
64492SOL    HW195308   0.038   4.654  12.053
64492SOL    HW295309   0.144   4.627  12.159
64493SOL     OW95310   8.999   7.399  13.420
64493SOL    HW195311   9.073   7.406  13.359
64493SOL    HW295312   8.982   7.490  13.446
64494SOL     OW95313   3.406   9.703   9.189
64494SOL    HW195314   3.334   9.678   9.131
64494SOL    HW295315   3.444   9.620   9.218
64495SOL     OW95316   4.716   5.347  12.859
64495SOL    HW195317   4.644   5.395  12.900
64495SOL    HW295318   4.677   5.307  12.781
64496SOL     OW95319   8.439  13.020   7.494
64496SOL    HW195320   8.525  13.042   7.530
64496SOL    HW295321   8.378  13.035   7.566
64497SOL     OW95322   8.575   9.675   1.384
64497SOL    HW195323   8.609   9.621   1.456
64497SOL    HW295324   8.653   9.701   1.335
64498SOL     OW95325  12.897   7.728   4.126
64498SOL    HW195326  12.914   7.781   4.049
64498SOL    HW295327  12.833   7.779   4.177
64499SOL     OW95328   3.517   1.181   4.867
64499SOL    HW195329   3.570   1.261   4.869
64499SOL    HW295330   3.513   1.156   4.775
64500SOL     OW95331   8.189   9.823   5.292
64500SOL    HW195332   8.148   9.862   5.216
64500SOL    HW295333   8.120   9.820   5.358
64501SOL     OW95334   3.462   8.322  12.372
64501SOL    HW195335   3.557   8.316  12.380
64501SOL    HW295336   3.444   8.300  12.281
64502SOL     OW95337   8.727  10.969   2.341
64502SOL    HW195338   8.676  10.914   2.401
64502SOL    HW295339   8.804  10.994   2.392
64503SOL     OW95340  12.190   0.934  10.237
64503SOL    HW195341  12.210   0.842  10.257
64503SOL    HW295342  12.100   0.932  10.203
64504SOL     OW95343   6.847   7.060   1.970
64504SOL    HW195344   6.880   7.030   1.886
64504SOL    HW295345   6.923   7.054   2.029
64505SOL     OW95346   0.394  10.498  13.897
64505SOL    HW195347   0.383  10.586  13.862
64505SOL    HW295348   0.340  10.443  13.841
64506SOL     OW95349  12.962   8.507   9.194
64506SOL    HW195350  12.871   8.511   9.223
64506SOL    HW295351  13.013   8.532   9.271
64507SOL     OW95352   3.652  14.154   6.834
64507SOL    HW195353   3.686  14.093   6.900
64507SOL    HW295354   3.577  14.108   6.796
64508SOL     OW95355  12.258   5.157   6.768
64508SOL    HW195356  12.200   5.139   6.694
64508SOL    HW295357  12.290   5.246   6.753
64509SOL     OW95358   0.069   6.845   0.320
64509SOL    HW195359  14.854   6.834   0.347
64509SOL    HW295360   0.082   6.940   0.317
64510SOL     OW95361   0.002  14.709  14.044
64510SOL    HW195362  14.805  14.766  14.025
64510SOL    HW295363   0.054  14.707  13.964
64511SOL     OW95364   5.836   2.680   1.655
64511SOL    HW195365   5.812   2.674   1.563
64511SOL    HW295366   5.923   2.721   1.655
64512SOL     OW95367   0.222  12.742  14.280
64512SOL    HW195368   0.127  12.730  14.276
64512SOL    HW295369   0.246  12.713  14.368
64513SOL     OW95370   6.537   7.620   8.972
64513SOL    HW195371   6.503   7.531   8.964
64513SOL    HW295372   6.609   7.614   9.034
64514SOL     OW95373  10.138   7.488  13.302
64514SOL    HW195374  10.095   7.424  13.359
64514SOL    HW295375  10.231   7.469  13.311
64515SOL     OW95376   0.040  14.752  10.865
64515SOL    HW195377  14.856  14.687  10.901
64515SOL    HW295378   0.005  14.836  10.893
64516SOL     OW95379   7.875  11.150   7.908
64516SOL    HW195380   7.826  11.165   7.826
64516SOL    HW295381   7.866  11.232   7.956
64517SOL     OW95382  12.148   7.985   6.230
64517SOL    HW195383  12.225   7.936   6.260
64517SOL    HW295384  12.183   8.072   6.209
64518SOL     OW95385   8.680   9.371   5.812
64518SOL    HW195386   8.738   9.395   5.884
64518SOL    HW295387   8.597   9.351   5.854
64519SOL     OW95388   6.993  12.713  11.376
64519SOL    HW195389   7.016  12.620  11.371
64519SOL    HW295390   6.898  12.714  11.387
64520SOL     OW95391   0.778   0.484   5.205
64520SOL    HW195392   0.708   0.498   5.269
64520SOL    HW295393   0.831   0.564   5.211
64521SOL     OW95394   0.113  12.965   9.036
64521SOL    HW195395   0.080  13.048   9.071
64521SOL    HW295396   0.140  12.916   9.114
64522SOL     OW95397   4.234   0.144  11.518
64522SOL    HW195398   4.283   0.167  11.439
64522SOL    HW295399   4.189   0.063  11.496
64523SOL     OW95400   1.829   7.283   8.666
64523SOL    HW195401   1.750   7.329   8.695
64523SOL    HW295402   1.799   7.194   8.648
64524SOL     OW95403   3.592   7.159  14.537
64524SOL    HW195404   3.594   7.075  14.583
64524SOL    HW295405   3.594   7.137  14.444
64525SOL     OW95406   2.073   5.582  11.382
64525SOL    HW195407   2.009   5.645  11.348
64525SOL    HW295408   2.020   5.521  11.434
64526SOL     OW95409   8.404  13.161   0.245
64526SOL    HW195410   8.322  13.187   0.203
64526SOL    HW295411   8.456  13.241   0.248
64527SOL     OW95412  12.520   9.037  10.042
64527SOL    HW195413  12.522   9.123  10.083
64527SOL    HW295414  12.504   9.055   9.950
64528SOL     OW95415  14.204   3.511  13.011
64528SOL    HW195416  14.191   3.441  13.075
64528SOL    HW295417  14.127   3.507  12.954
64529SOL     OW95418  14.794   7.661  11.612
64529SOL    HW195419  14.740   7.649  11.534
64529SOL    HW295420  14.786   7.754  11.633
64530SOL     OW95421   4.251   4.783   9.988
64530SOL    HW195422   4.166   4.822   9.967
64530SOL    HW295423   4.298   4.781   9.904
64531SOL     OW95424   9.796   6.886   7.972
64531SOL    HW195425   9.779   6.958   8.032
64531SOL    HW295426   9.729   6.821   7.992
64532SOL     OW95427   1.417   1.291   6.913
64532SOL    HW195428   1.394   1.311   6.822
64532SOL    HW295429   1.490   1.350   6.933
64533SOL     OW95430  13.667   1.234   3.773
64533SOL    HW195431  13.633   1.195   3.854
64533SOL    HW295432  13.635   1.324   3.774
64534SOL     OW95433   8.082   8.752   7.136
64534SOL    HW195434   8.090   8.668   7.181
64534SOL    HW295435   7.989   8.759   7.114
64535SOL     OW95436  11.240  10.180   2.202
64535SOL    HW195437  11.290  10.134   2.134
64535SOL    HW295438  11.258  10.273   2.186
64536SOL     OW95439   5.781   9.201   0.715
64536SOL    HW195440   5.843   9.175   0.784
64536SOL    HW295441   5.812   9.156   0.637
64537SOL     OW95442   0.418  13.751   6.341
64537SOL    HW195443   0.355  13.822   6.354
64537SOL    HW295444   0.500  13.796   6.319
64538SOL     OW95445   6.916   4.077   7.094
64538SOL    HW195446   6.921   3.982   7.088
64538SOL    HW295447   6.954   4.097   7.180
64539SOL     OW95448  14.834  13.275   5.044
64539SOL    HW195449  14.861  13.273   4.952
64539SOL    HW295450  14.744  13.242   5.045
64540SOL     OW95451   5.498  11.864   2.087
64540SOL    HW195452   5.472  11.868   1.995
64540SOL    HW295453   5.451  11.788   2.122
64541SOL     OW95454  13.409   0.576  11.448
64541SOL    HW195455  13.458   0.500  11.419
64541SOL    HW295456  13.475   0.636  11.482
64542SOL     OW95457   5.928   5.914   4.091
64542SOL    HW195458   6.017   5.889   4.065
64542SOL    HW295459   5.872   5.879   4.022
64543SOL     OW95460   8.572   2.916   4.822
64543SOL    HW195461   8.574   3.009   4.844
64543SOL    HW295462   8.603   2.911   4.732
64544SOL     OW95463   4.502   8.208   8.371
64544SOL    HW195464   4.550   8.193   8.453
64544SOL    HW295465   4.544   8.149   8.308
64545SOL     OW95466   2.926  14.200  10.029
64545SOL    HW195467   2.856  14.134  10.032
64545SOL    HW295468   2.880  14.284  10.036
64546SOL     OW95469   3.833   9.197   5.780
64546SOL    HW195470   3.769   9.261   5.812
64546SOL    HW295471   3.918   9.237   5.800
64547SOL     OW95472   0.407   3.278  11.900
64547SOL    HW195473   0.447   3.197  11.932
64547SOL    HW295474   0.410   3.337  11.975
64548SOL     OW95475  13.114   7.721  10.545
64548SOL    HW195476  13.101   7.768  10.463
64548SOL    HW295477  13.026   7.703  10.577
64549SOL     OW95478   5.685  11.107   8.280
64549SOL    HW195479   5.716  11.153   8.202
64549SOL    HW295480   5.672  11.016   8.252
64550SOL     OW95481   1.563   4.798   3.084
64550SOL    HW195482   1.596   4.751   3.007
64550SOL    HW295483   1.561   4.890   3.056
64551SOL     OW95484  12.540  12.004   3.854
64551SOL    HW195485  12.582  12.072   3.802
64551SOL    HW295486  12.501  11.945   3.789
64552SOL     OW95487   7.010   3.650   6.671
64552SOL    HW195488   6.988   3.557   6.683
64552SOL    HW295489   6.940   3.697   6.716
64553SOL     OW95490   3.484   3.524  13.676
64553SOL    HW195491   3.502   3.609  13.717
64553SOL    HW295492   3.511   3.460  13.742
64554SOL     OW95493   0.557   5.024   1.706
64554SOL    HW195494   0.482   4.973   1.735
64554SOL    HW295495   0.521   5.112   1.692
64555SOL     OW95496  11.229  10.050   1.257
64555SOL    HW195497  11.151  10.060   1.202
64555SOL    HW295498  11.300  10.087   1.204
64556SOL     OW95499   8.642   9.394   5.147
64556SOL    HW195500   8.593   9.456   5.200
64556SOL    HW295501   8.711   9.361   5.205
64557SOL     OW95502   2.615   7.808   2.016
64557SOL    HW195503   2.525   7.785   2.039
64557SOL    HW295504   2.654   7.725   1.987
64558SOL     OW95505  14.719   0.030   0.599
64558SOL    HW195506  14.643   0.008   0.545
64558SOL    HW295507  14.794  14.871   0.550
64559SOL     OW95508  13.085   3.956   6.420
64559SOL    HW195509  13.106   3.869   6.388
64559SOL    HW295510  13.000   3.946   6.462
64560SOL     OW95511   9.061   6.840   8.947
64560SOL    HW195512   9.116   6.841   9.025
64560SOL    HW295513   9.106   6.780   8.887
64561SOL     OW95514  13.160   0.093   1.150
64561SOL    HW195515  13.096   0.025   1.172
64561SOL    HW295516  13.193   0.067   1.064
64562SOL     OW95517   9.051   0.061  10.565
64562SOL    HW195518   8.966   0.102  10.583
64562SOL    HW295519   9.059   0.062  10.470
64563SOL     OW95520   2.002   7.945   9.997
64563SOL    HW195521   2.002   7.991   9.913
64563SOL    HW295522   1.975   8.012  10.061
64564SOL     OW95523  14.513  10.247  14.388
64564SOL    HW195524  14.460  10.169  14.382
64564SOL    HW295525  14.458  10.317  14.351
64565SOL     OW95526   6.789  14.531   2.064
64565SOL    HW195527   6.749  14.476   1.996
64565SOL    HW295528   6.733  14.518   2.141
64566SOL     OW95529   5.257  11.812  12.760
64566SOL    HW195530   5.187  11.788  12.821
64566SOL    HW295531   5.285  11.730  12.721
64567SOL     OW95532   3.026   8.431   9.242
64567SOL    HW195533   2.971   8.364   9.202
64567SOL    HW295534   3.083   8.383   9.302
64568SOL     OW95535   2.069  12.189  12.837
64568SOL    HW195536   2.047  12.227  12.922
64568SOL    HW295537   1.987  12.192  12.787
64569SOL     OW95538   8.874   1.728  10.973
64569SOL    HW195539   8.941   1.782  11.014
64569SOL    HW295540   8.852   1.775  10.892
64570SOL     OW95541   7.501  11.563   9.398
64570SOL    HW195542   7.510  11.649   9.357
64570SOL    HW295543   7.471  11.581   9.487
64571SOL     OW95544  11.031   3.866   4.219
64571SOL    HW195545  11.083   3.838   4.294
64571SOL    HW295546  10.941   3.843   4.242
64572SOL     OW95547  10.354   8.962   3.200
64572SOL    HW195548  10.282   8.933   3.144
64572SOL    HW295549  10.327   9.049   3.230
64573SOL     OW95550   1.970   9.394  10.108
64573SOL    HW195551   1.933   9.318  10.153
64573SOL    HW295552   2.065   9.384  10.118
64574SOL     OW95553   6.075   2.826   9.432
64574SOL    HW195554   6.100   2.918   9.431
64574SOL    HW295555   5.994   2.823   9.380
64575SOL     OW95556   6.593  14.822  10.666
64575SOL    HW195557   6.543   0.010  10.716
64575SOL    HW295558   6.544  14.813  10.584
64576SOL     OW95559   8.473   7.487   9.154
64576SOL    HW195560   8.465   7.491   9.059
64576SOL    HW295561   8.542   7.423   9.171
64577SOL     OW95562   9.395   5.951  14.419
64577SOL    HW195563   9.356   5.977  14.503
64577SOL    HW295564   9.400   5.855  14.424
64578SOL     OW95565   0.741  11.458   0.551
64578SOL    HW195566   0.790  11.376   0.548
64578SOL    HW295567   0.733  11.477   0.645
64579SOL     OW95568   6.381   7.572  13.183
64579SOL    HW195569   6.427   7.614  13.256
64579SOL    HW295570   6.289   7.592  13.198
64580SOL     OW95571   7.572   6.717   8.230
64580SOL    HW195572   7.620   6.794   8.262
64580SOL    HW295573   7.484   6.728   8.265
64581SOL     OW95574   7.658   3.299   8.122
64581SOL    HW195575   7.674   3.264   8.210
64581SOL    HW295576   7.580   3.251   8.091
64582SOL     OW95577   7.630   2.409   3.620
64582SOL    HW195578   7.647   2.494   3.660
64582SOL    HW295579   7.587   2.358   3.689
64583SOL     OW95580  13.796  11.227   9.010
64583SOL    HW195581  13.866  11.233   8.944
64583SOL    HW295582  13.813  11.146   9.057
64584SOL     OW95583   9.740   9.558   8.667
64584SOL    HW195584   9.689   9.571   8.747
64584SOL    HW295585   9.703   9.480   8.627
64585SOL     OW95586   8.581   4.450   1.718
64585SOL    HW195587   8.647   4.405   1.771
64585SOL    HW295588   8.563   4.531   1.766
64586SOL     OW95589   1.901  13.180  13.066
64586SOL    HW195590   1.905  13.263  13.114
64586SOL    HW295591   1.809  13.169  13.044
64587SOL     OW95592   9.311   0.867   4.403
64587SOL    HW195593   9.384   0.925   4.424
64587SOL    HW295594   9.341   0.779   4.427
64588SOL     OW95595   8.160  11.045   7.006
64588SOL    HW195596   8.078  10.996   7.001
64588SOL    HW295597   8.193  11.046   6.916
64589SOL     OW95598   5.980   7.168   3.383
64589SOL    HW195599   5.945   7.202   3.300
64589SOL    HW295600   5.927   7.210   3.450
64590SOL     OW95601   4.097   4.297  11.331
64590SOL    HW195602   4.149   4.219  11.311
64590SOL    HW295603   4.010   4.262  11.351
64591SOL     OW95604  12.266   5.973  14.630
64591SOL    HW195605  12.270   5.921  14.549
64591SOL    HW295606  12.346   6.026  14.629
64592SOL     OW95607   9.273  14.179   5.136
64592SOL    HW195608   9.306  14.090   5.123
64592SOL    HW295609   9.303  14.227   5.059
64593SOL     OW95610   5.730   2.837   4.001
64593SOL    HW195611   5.761   2.896   3.932
64593SOL    HW295612   5.706   2.895   4.073
64594SOL     OW95613   5.475   5.844  11.856
64594SOL    HW195614   5.417   5.792  11.800
64594SOL    HW295615   5.428   5.927  11.868
64595SOL     OW95616  13.916   0.693   4.177
64595SOL    HW195617  13.952   0.637   4.108
64595SOL    HW295618  13.828   0.714   4.146
64596SOL     OW95619   6.910   0.140   0.457
64596SOL    HW195620   6.914   0.228   0.420
64596SOL    HW295621   6.824   0.107   0.433
64597SOL     OW95622  12.786   8.307   6.043
64597SOL    HW195623  12.849   8.271   5.981
64597SOL    HW295624  12.738   8.373   5.993
64598SOL     OW95625  11.818  13.613   8.351
64598SOL    HW195626  11.749  13.557   8.317
64598SOL    HW295627  11.826  13.589   8.444
64599SOL     OW95628   9.966  14.210   7.027
64599SOL    HW195629   9.872  14.209   7.010
64599SOL    HW295630   9.987  14.302   7.042
64600SOL     OW95631  14.394   5.298   2.402
64600SOL    HW195632  14.448   5.354   2.459
64600SOL    HW295633  14.457   5.252   2.347
64601SOL     OW95634   9.796   1.509   5.326
64601SOL    HW195635   9.795   1.523   5.421
64601SOL    HW295636   9.889   1.501   5.305
64602SOL     OW95637   3.892   4.579   5.378
64602SOL    HW195638   3.849   4.649   5.427
64602SOL    HW295639   3.901   4.508   5.441
64603SOL     OW95640   0.246   6.148  11.149
64603SOL    HW195641   0.279   6.060  11.166
64603SOL    HW295642   0.200   6.173  11.229
64604SOL     OW95643   0.205   0.678   9.928
64604SOL    HW195644   0.230   0.770   9.936
64604SOL    HW295645   0.231   0.639  10.011
64605SOL     OW95646  10.009   3.675   8.826
64605SOL    HW195647   9.987   3.584   8.802
64605SOL    HW295648   9.962   3.728   8.762
64606SOL     OW95649   8.231   2.138   8.810
64606SOL    HW195650   8.272   2.097   8.734
64606SOL    HW295651   8.181   2.212   8.774
64607SOL     OW95652   2.965   4.616  12.286
64607SOL    HW195653   2.898   4.574  12.231
64607SOL    HW295654   2.929   4.702  12.306
64608SOL     OW95655   3.427  14.468   0.314
64608SOL    HW195656   3.405  14.470   0.221
64608SOL    HW295657   3.470  14.383   0.326
64609SOL     OW95658   1.231   1.678   1.822
64609SOL    HW195659   1.159   1.614   1.827
64609SOL    HW295660   1.202   1.751   1.876
64610SOL     OW95661   3.018   6.936   7.305
64610SOL    HW195662   2.979   6.955   7.390
64610SOL    HW295663   2.980   7.001   7.246
64611SOL     OW95664   5.477   3.066   3.208
64611SOL    HW195665   5.441   3.004   3.144
64611SOL    HW295666   5.568   3.039   3.219
64612SOL     OW95667  13.002   1.072  12.547
64612SOL    HW195668  12.968   1.129  12.477
64612SOL    HW295669  13.006   1.129  12.624
64613SOL     OW95670   6.191   2.799  14.441
64613SOL    HW195671   6.169   2.887  14.410
64613SOL    HW295672   6.209   2.749  14.362
64614SOL     OW95673   5.918   8.815  11.761
64614SOL    HW195674   5.832   8.773  11.763
64614SOL    HW295675   5.980   8.743  11.764
64615SOL     OW95676   8.360   9.652   1.559
64615SOL    HW195677   8.289   9.717   1.554
64615SOL    HW295678   8.430   9.689   1.505
64616SOL     OW95679  11.189   6.578   2.852
64616SOL    HW195680  11.226   6.501   2.809
64616SOL    HW295681  11.133   6.543   2.921
64617SOL     OW95682  11.023  10.309   8.060
64617SOL    HW195683  10.957  10.282   7.997
64617SOL    HW295684  10.989  10.391   8.096
64618SOL     OW95685   0.462   9.478   2.559
64618SOL    HW195686   0.409   9.456   2.482
64618SOL    HW295687   0.463   9.398   2.611
64619SOL     OW95688   0.706  12.209   7.295
64619SOL    HW195689   0.786  12.258   7.315
64619SOL    HW295690   0.673  12.249   7.215
64620SOL     OW95691  13.609   1.687  10.097
64620SOL    HW195692  13.592   1.758  10.158
64620SOL    HW295693  13.570   1.610  10.139
64621SOL     OW95694  11.026  11.006  13.299
64621SOL    HW195695  11.011  10.912  13.298
64621SOL    HW295696  10.983  11.037  13.379
64622SOL     OW95697   6.163   3.232  11.561
64622SOL    HW195698   6.178   3.316  11.604
64622SOL    HW295699   6.115   3.254  11.481
64623SOL     OW95700  13.106   1.823   6.674
64623SOL    HW195701  13.163   1.890   6.711
64623SOL    HW295702  13.052   1.870   6.610
64624SOL     OW95703  14.530   2.055   8.953
64624SOL    HW195704  14.549   2.033   9.044
64624SOL    HW295705  14.590   2.127   8.932
64625SOL     OW95706   1.542   0.929   9.854
64625SOL    HW195707   1.459   0.947   9.811
64625SOL    HW295708   1.518   0.899   9.942
64626SOL     OW95709   5.809  10.077   8.306
64626SOL    HW195710   5.810  10.045   8.216
64626SOL    HW295711   5.884  10.034   8.347
64627SOL     OW95712   3.389   4.285  14.135
64627SOL    HW195713   3.321   4.260  14.073
64627SOL    HW295714   3.453   4.215  14.131
64628SOL     OW95715  10.395   6.664  14.403
64628SOL    HW195716  10.320   6.661  14.462
64628SOL    HW295717  10.358   6.693  14.319
64629SOL     OW95718  12.975  13.884   7.361
64629SOL    HW195719  12.899  13.838   7.397
64629SOL    HW295720  12.988  13.845   7.275
64630SOL     OW95721   9.603  12.351  13.352
64630SOL    HW195722   9.597  12.392  13.266
64630SOL    HW295723   9.611  12.424  13.414
64631SOL     OW95724   8.999   2.000   6.895
64631SOL    HW195725   8.953   1.931   6.942
64631SOL    HW295726   9.080   1.960   6.866
64632SOL     OW95727  13.809  14.301   7.956
64632SOL    HW195728  13.762  14.266   7.880
64632SOL    HW295729  13.744  14.305   8.025
64633SOL     OW95730   6.381  12.086  13.566
64633SOL    HW195731   6.344  12.156  13.618
64633SOL    HW295732   6.474  12.084  13.589
64634SOL     OW95733   8.519   9.986   4.621
64634SOL    HW195734   8.425   9.987   4.639
64634SOL    HW295735   8.560   9.998   4.707
64635SOL     OW95736   1.518   2.235   8.476
64635SOL    HW195737   1.531   2.143   8.499
64635SOL    HW295738   1.483   2.274   8.556
64636SOL     OW95739   6.980   2.472  14.087
64636SOL    HW195740   7.060   2.477  14.036
64636SOL    HW295741   6.925   2.410  14.040
64637SOL     OW95742  12.338   6.699  10.213
64637SOL    HW195743  12.343   6.791  10.238
64637SOL    HW295744  12.429   6.674  10.196
64638SOL     OW95745   7.306   9.209  10.724
64638SOL    HW195746   7.241   9.233  10.789
64638SOL    HW295747   7.292   9.115  10.709
64639SOL     OW95748   8.558  14.436   5.086
64639SOL    HW195749   8.538  14.344   5.104
64639SOL    HW295750   8.649  14.446   5.112
64640SOL     OW95751   0.808   9.614  13.877
64640SOL    HW195752   0.733   9.614  13.817
64640SOL    HW295753   0.773   9.648  13.959
64641SOL     OW95754  10.585   1.661   2.918
64641SOL    HW195755  10.510   1.620   2.962
64641SOL    HW295756  10.551   1.746   2.888
64642SOL     OW95757   4.369  11.287   9.845
64642SOL    HW195758   4.304  11.351   9.817
64642SOL    HW295759   4.318  11.207   9.862
64643SOL     OW95760   9.655   6.404   9.881
64643SOL    HW195761   9.568   6.398   9.921
64643SOL    HW295762   9.638   6.426   9.789
64644SOL     OW95763  10.485   4.051   8.534
64644SOL    HW195764  10.563   4.095   8.501
64644SOL    HW295765  10.446   4.113   8.596
64645SOL     OW95766   9.393   6.441   1.591
64645SOL    HW195767   9.390   6.444   1.687
64645SOL    HW295768   9.444   6.362   1.572
64646SOL     OW95769   4.189  10.866   1.241
64646SOL    HW195770   4.233  10.944   1.209
64646SOL    HW295771   4.105  10.865   1.195
64647SOL     OW95772   3.331   7.420  11.398
64647SOL    HW195773   3.356   7.330  11.421
64647SOL    HW295774   3.404   7.453  11.345
64648SOL     OW95775   1.090  13.375  11.513
64648SOL    HW195776   1.132  13.457  11.540
64648SOL    HW295777   1.034  13.401  11.440
64649SOL     OW95778   4.016  10.991   6.364
64649SOL    HW195779   3.949  11.000   6.432
64649SOL    HW295780   4.046  11.080   6.347
64650SOL     OW95781   6.547   2.547   1.432
64650SOL    HW195782   6.574   2.632   1.466
64650SOL    HW295783   6.480   2.517   1.493
64651SOL     OW95784   4.650  12.613  14.431
64651SOL    HW195785   4.581  12.547  14.430
64651SOL    HW295786   4.728  12.567  14.461
64652SOL     OW95787   9.674  10.005   3.697
64652SOL    HW195788   9.754  10.047   3.666
64652SOL    HW295789   9.703   9.948   3.768
64653SOL     OW95790  11.875   2.679   6.497
64653SOL    HW195791  11.919   2.700   6.579
64653SOL    HW295792  11.835   2.762   6.470
64654SOL     OW95793  14.215   1.665   2.585
64654SOL    HW195794  14.184   1.625   2.666
64654SOL    HW295795  14.303   1.698   2.607
64655SOL     OW95796   5.985   3.296  14.480
64655SOL    HW195797   5.985   3.368  14.542
64655SOL    HW295798   5.977   3.338  14.394
64656SOL     OW95799  11.441  10.507   1.571
64656SOL    HW195800  11.414  10.439   1.633
64656SOL    HW295801  11.360  10.552   1.549
64657SOL     OW95802   8.804   1.696   0.520
64657SOL    HW195803   8.753   1.688   0.439
64657SOL    HW295804   8.776   1.779   0.559
64658SOL     OW95805   0.863   0.650   7.588
64658SOL    HW195806   0.792   0.714   7.579
64658SOL    HW295807   0.887   0.652   7.680
64659SOL     OW95808   5.054   3.501   5.335
64659SOL    HW195809   5.048   3.563   5.408
64659SOL    HW295810   5.075   3.417   5.377
64660SOL     OW95811   9.940   9.153  12.172
64660SOL    HW195812   9.908   9.197  12.094
64660SOL    HW295813   9.975   9.223  12.227
64661SOL     OW95814   1.726  10.461  11.011
64661SOL    HW195815   1.633  10.472  11.029
64661SOL    HW295816   1.729  10.426  10.922
64662SOL     OW95817   1.362   6.143   1.487
64662SOL    HW195818   1.279   6.190   1.492
64662SOL    HW295819   1.356   6.092   1.407
64663SOL     OW95820   5.608  10.506   1.794
64663SOL    HW195821   5.545  10.449   1.750
64663SOL    HW295822   5.555  10.558   1.855
64664SOL     OW95823  13.179   2.733   9.049
64664SOL    HW195824  13.221   2.819   9.053
64664SOL    HW295825  13.090   2.751   9.021
64665SOL     OW95826   1.299   0.696   9.848
64665SOL    HW195827   1.253   0.778   9.830
64665SOL    HW295828   1.355   0.683   9.772
64666SOL     OW95829   8.789  13.182   1.164
64666SOL    HW195830   8.780  13.277   1.160
64666SOL    HW295831   8.847  13.160   1.091
64667SOL     OW95832   7.660   7.287   0.324
64667SOL    HW195833   7.626   7.375   0.337
64667SOL    HW295834   7.621   7.235   0.394
64668SOL     OW95835   7.599   3.132   3.901
64668SOL    HW195836   7.582   3.180   3.982
64668SOL    HW295837   7.660   3.063   3.925
64669SOL     OW95838   7.288   6.435   4.924
64669SOL    HW195839   7.295   6.341   4.906
64669SOL    HW295840   7.269   6.474   4.839
64670SOL     OW95841   8.603  12.554   8.212
64670SOL    HW195842   8.644  12.507   8.140
64670SOL    HW295843   8.525  12.503   8.233
64671SOL     OW95844  11.009   4.898   3.307
64671SOL    HW195845  10.969   4.971   3.355
64671SOL    HW295846  10.940   4.832   3.303
64672SOL     OW95847  13.175  11.252   4.956
64672SOL    HW195848  13.184  11.176   4.898
64672SOL    HW295849  13.261  11.260   4.998
64673SOL     OW95850   8.485  12.348  13.794
64673SOL    HW195851   8.537  12.413  13.746
64673SOL    HW295852   8.500  12.369  13.886
64674SOL     OW95853   0.544  13.253   1.338
64674SOL    HW195854   0.630  13.277   1.373
64674SOL    HW295855   0.562  13.178   1.281
64675SOL     OW95856   4.652   9.480  11.588
64675SOL    HW195857   4.619   9.509  11.503
64675SOL    HW295858   4.728   9.425  11.567
64676SOL     OW95859   4.181   8.810   4.933
64676SOL    HW195860   4.224   8.725   4.935
64676SOL    HW295861   4.229   8.860   4.867
64677SOL     OW95862   1.284  13.191   7.953
64677SOL    HW195863   1.330  13.274   7.966
64677SOL    HW295864   1.307  13.139   8.029
64678SOL     OW95865  13.569   5.470   5.818
64678SOL    HW195866  13.597   5.559   5.795
64678SOL    HW295867  13.651   5.420   5.825
64679SOL     OW95868  13.288  14.353   0.027
64679SOL    HW195869  13.219  14.299  14.865
64679SOL    HW295870  13.273  14.349   0.122
64680SOL     OW95871   3.144   1.156   5.601
64680SOL    HW195872   3.167   1.236   5.554
64680SOL    HW295873   3.173   1.085   5.544
64681SOL     OW95874  10.938  13.336   7.446
64681SOL    HW195875  11.031  13.359   7.446
64681SOL    HW295876  10.893  13.419   7.461
64682SOL     OW95877  12.981  13.075   0.154
64682SOL    HW195878  12.974  12.981   0.169
64682SOL    HW295879  13.069  13.087   0.119
64683SOL     OW95880  13.388   5.513   1.431
64683SOL    HW195881  13.315   5.451   1.432
64683SOL    HW295882  13.408   5.525   1.338
64684SOL     OW95883  12.757  13.336   9.583
64684SOL    HW195884  12.755  13.385   9.501
64684SOL    HW295885  12.698  13.263   9.569
64685SOL     OW95886   0.120   8.878   9.161
64685SOL    HW195887   0.069   8.799   9.177
64685SOL    HW295888   0.141   8.876   9.068
64686SOL     OW95889  11.859  10.307   4.115
64686SOL    HW195890  11.911  10.227   4.106
64686SOL    HW295891  11.822  10.302   4.203
64687SOL     OW95892  10.324  11.264  12.126
64687SOL    HW195893  10.362  11.323  12.191
64687SOL    HW295894  10.336  11.177  12.163
64688SOL     OW95895   9.843  13.439  13.847
64688SOL    HW195896   9.869  13.500  13.778
64688SOL    HW295897   9.854  13.488  13.928
64689SOL     OW95898   8.180   9.382  10.581
64689SOL    HW195899   8.158   9.291  10.561
64689SOL    HW295900   8.177   9.387  10.677
64690SOL     OW95901  14.095   0.264   6.395
64690SOL    HW195902  14.138   0.305   6.320
64690SOL    HW295903  14.003   0.288   6.386
64691SOL     OW95904   4.608   5.410   6.953
64691SOL    HW195905   4.671   5.399   6.882
64691SOL    HW295906   4.662   5.426   7.030
64692SOL     OW95907   9.908   3.123   4.610
64692SOL    HW195908   9.969   3.193   4.585
64692SOL    HW295909   9.936   3.048   4.558
64693SOL     OW95910  14.775   3.046  12.096
64693SOL    HW195911  14.704   3.097  12.055
64693SOL    HW295912  14.739   2.958  12.103
64694SOL     OW95913   7.669   3.308  10.042
64694SOL    HW195914   7.581   3.281  10.016
64694SOL    HW295915   7.693   3.375   9.978
64695SOL     OW95916  10.914   7.643   8.174
64695SOL    HW195917  10.963   7.606   8.100
64695SOL    HW295918  10.822   7.631   8.151
64696SOL     OW95919   8.816   6.913   6.957
64696SOL    HW195920   8.786   6.968   6.885
64696SOL    HW295921   8.907   6.890   6.934
64697SOL     OW95922   3.714  14.249  11.406
64697SOL    HW195923   3.746  14.258  11.316
64697SOL    HW295924   3.782  14.198  11.450
64698SOL     OW95925  12.266  10.821   8.552
64698SOL    HW195926  12.351  10.847   8.588
64698SOL    HW295927  12.252  10.732   8.585
64699SOL     OW95928   6.706  13.316   6.538
64699SOL    HW195929   6.752  13.333   6.620
64699SOL    HW295930   6.651  13.240   6.556
64700SOL     OW95931   0.540   6.819   3.057
64700SOL    HW195932   0.604   6.890   3.062
64700SOL    HW295933   0.559   6.775   2.974
64701SOL     OW95934   3.839  12.391   7.699
64701SOL    HW195935   3.920  12.384   7.749
64701SOL    HW295936   3.779  12.439   7.757
64702SOL     OW95937   1.219  13.324   1.627
64702SOL    HW195938   1.230  13.395   1.564
64702SOL    HW295939   1.303  13.319   1.672
64703SOL     OW95940   7.984   0.521   2.344
64703SOL    HW195941   7.892   0.504   2.363
64703SOL    HW295942   7.983   0.594   2.283
64704SOL     OW95943  10.478  11.071   0.437
64704SOL    HW195944  10.517  11.005   0.380
64704SOL    HW295945  10.393  11.035   0.461
64705SOL     OW95946   6.833  11.733   2.739
64705SOL    HW195947   6.810  11.818   2.777
64705SOL    HW295948   6.920  11.715   2.774
64706SOL     OW95949   8.780   3.150   1.602
64706SOL    HW195950   8.724   3.199   1.663
64706SOL    HW295951   8.799   3.213   1.533
64707SOL     OW95952   2.062   0.013   9.067
64707SOL    HW195953   2.082   0.013   8.974
64707SOL    HW295954   2.093   0.099   9.098
64708SOL     OW95955   2.371   2.006  10.449
64708SOL    HW195956   2.444   2.069  10.440
64708SOL    HW295957   2.399   1.948  10.520
64709SOL     OW95958   2.484  13.461   4.549
64709SOL    HW195959   2.579  13.458   4.558
64709SOL    HW295960   2.458  13.369   4.548
64710SOL     OW95961   1.681  11.444  10.400
64710SOL    HW195962   1.618  11.501  10.355
64710SOL    HW295963   1.647  11.438  10.490
64711SOL     OW95964   3.649   1.842   4.743
64711SOL    HW195965   3.733   1.816   4.704
64711SOL    HW295966   3.640   1.935   4.721
64712SOL     OW95967  14.691   1.673   8.247
64712SOL    HW195968  14.737   1.594   8.218
64712SOL    HW295969  14.725   1.688   8.335
64713SOL     OW95970  13.364   5.057  11.271
64713SOL    HW195971  13.426   5.090  11.206
64713SOL    HW295972  13.419   5.020  11.340
64714SOL     OW95973  13.398  13.134  10.381
64714SOL    HW195974  13.455  13.179  10.319
64714SOL    HW295975  13.407  13.041  10.359
64715SOL     OW95976   7.398  10.573  13.898
64715SOL    HW195977   7.335  10.558  13.828
64715SOL    HW295978   7.478  10.600  13.853
64716SOL     OW95979   6.364   1.847  12.500
64716SOL    HW195980   6.276   1.885  12.495
64716SOL    HW295981   6.400   1.856  12.412
64717SOL     OW95982   8.974   0.648   3.681
64717SOL    HW195983   8.974   0.559   3.715
64717SOL    HW295984   8.986   0.637   3.586
64718SOL     OW95985   3.941   2.194   5.904
64718SOL    HW195986   3.897   2.185   5.989
64718SOL    HW295987   3.870   2.182   5.840
64719SOL     OW95988   2.748   8.027   1.892
64719SOL    HW195989   2.711   8.115   1.907
64719SOL    HW295990   2.684   7.968   1.931
64720SOL     OW95991   5.471   8.546   4.613
64720SOL    HW195992   5.560   8.536   4.648
64720SOL    HW295993   5.419   8.575   4.688
64721SOL     OW95994   1.422   5.876   9.617
64721SOL    HW195995   1.413   5.939   9.546
64721SOL    HW295996   1.456   5.797   9.575
64722SOL     OW95997   1.912  10.064  13.367
64722SOL    HW195998   1.911  10.124  13.292
64722SOL    HW295999   1.831  10.084  13.414
64723SOL     OW96000  12.359  10.384   1.095
64723SOL    HW196001  12.272  10.353   1.121
64723SOL    HW296002  12.405  10.306   1.063
64724SOL     OW96003   0.874   6.775   5.955
64724SOL    HW196004   0.826   6.858   5.954
64724SOL    HW296005   0.906   6.767   6.044
64725SOL     OW96006  12.227  11.536  13.548
64725SOL    HW196007  12.186  11.450  13.543
64725SOL    HW296008  12.321  11.518  13.552
64726SOL     OW96009   5.898   2.872  13.455
64726SOL    HW196010   5.878   2.897  13.364
64726SOL    HW296011   5.945   2.789  13.447
64727SOL     OW96012   4.807   5.596  13.121
64727SOL    HW196013   4.757   5.649  13.059
64727SOL    HW296014   4.812   5.510  13.081
64728SOL     OW96015  13.446  11.401   0.218
64728SOL    HW196016  13.530  11.420   0.259
64728SOL    HW296017  13.392  11.479   0.235
64729SOL     OW96018   6.820   6.820   3.012
64729SOL    HW196019   6.833   6.898   2.958
64729SOL    HW296020   6.808   6.855   3.100
64730SOL     OW96021   6.513   9.036   7.453
64730SOL    HW196022   6.483   8.992   7.533
64730SOL    HW296023   6.607   9.020   7.450
64731SOL     OW96024   4.260   6.481   4.442
64731SOL    HW196025   4.326   6.450   4.380
64731SOL    HW296026   4.204   6.405   4.457
64732SOL     OW96027   8.266   7.156   2.014
64732SOL    HW196028   8.183   7.108   2.009
64732SOL    HW296029   8.270   7.206   1.932
64733SOL     OW96030   2.840  10.842  12.619
64733SOL    HW196031   2.769  10.795  12.661
64733SOL    HW296032   2.806  10.865  12.533
64734SOL     OW96033   1.208   8.421   9.781
64734SOL    HW196034   1.293   8.422   9.826
64734SOL    HW296035   1.226   8.454   9.694
64735SOL     OW96036  10.081   1.170   7.654
64735SOL    HW196037  10.157   1.161   7.712
64735SOL    HW296038  10.108   1.232   7.587
64736SOL     OW96039   9.821  11.554   2.714
64736SOL    HW196040   9.854  11.518   2.796
64736SOL    HW296041   9.889  11.531   2.650
64737SOL     OW96042   5.315  13.431   9.177
64737SOL    HW196043   5.410  13.446   9.169
64737SOL    HW296044   5.295  13.457   9.267
64738SOL     OW96045   5.304   5.048   8.206
64738SOL    HW196046   5.360   4.970   8.214
64738SOL    HW296047   5.260   5.037   8.122
64739SOL     OW96048   9.632   1.776  14.755
64739SOL    HW196049   9.703   1.784  14.691
64739SOL    HW296050   9.565   1.725  14.710
64740SOL     OW96051   8.810   3.688   6.848
64740SOL    HW196052   8.858   3.753   6.899
64740SOL    HW296053   8.828   3.605   6.893
64741SOL     OW96054   8.441   2.290  12.368
64741SOL    HW196055   8.430   2.381  12.338
64741SOL    HW296056   8.536   2.278  12.375
64742SOL     OW96057   4.126   2.103  10.371
64742SOL    HW196058   4.186   2.178  10.377
64742SOL    HW296059   4.042   2.142  10.346
64743SOL     OW96060  14.400  11.530   7.545
64743SOL    HW196061  14.312  11.551   7.516
64743SOL    HW296062  14.454  11.602   7.513
64744SOL     OW96063   5.149   5.441   6.639
64744SOL    HW196064   5.201   5.516   6.611
64744SOL    HW296065   5.179   5.422   6.728
64745SOL     OW96066  14.550   7.173  13.844
64745SOL    HW196067  14.593   7.110  13.787
64745SOL    HW296068  14.605   7.174  13.923
64746SOL     OW96069  10.476  13.365  12.877
64746SOL    HW196070  10.562  13.362  12.920
64746SOL    HW296071  10.415  13.387  12.948
64747SOL     OW96072   2.471  12.578   6.239
64747SOL    HW196073   2.527  12.502   6.257
64747SOL    HW296074   2.528  12.639   6.192
64748SOL     OW96075  11.501  13.971  13.714
64748SOL    HW196076  11.419  14.019  13.723
64748SOL    HW296077  11.525  13.946  13.803
64749SOL     OW96078   4.884   8.712  14.180
64749SOL    HW196079   4.840   8.643  14.131
64749SOL    HW296080   4.816   8.745  14.240
64750SOL     OW96081   7.229  11.496  12.459
64750SOL    HW196082   7.309  11.546  12.476
64750SOL    HW296083   7.178  11.503  12.540
64751SOL     OW96084  14.762   5.393   2.144
64751SOL    HW196085  14.747   5.435   2.059
64751SOL    HW296086  14.837   5.440   2.181
64752SOL     OW96087  14.003  10.018  13.150
64752SOL    HW196088  13.921  10.046  13.109
64752SOL    HW296089  13.988  10.030  13.244
64753SOL     OW96090   2.586   6.548  14.134
64753SOL    HW196091   2.564   6.540  14.227
64753SOL    HW296092   2.681   6.544  14.131
64754SOL     OW96093   2.284   1.315   7.620
64754SOL    HW196094   2.314   1.384   7.560
64754SOL    HW296095   2.203   1.282   7.581
64755SOL     OW96096   1.470   1.690  10.816
64755SOL    HW196097   1.452   1.778  10.782
64755SOL    HW296098   1.407   1.678  10.886
64756SOL     OW96099  13.383   2.015  14.199
64756SOL    HW196100  13.317   1.975  14.255
64756SOL    HW296101  13.359   1.990  14.110
64757SOL     OW96102   8.622  14.601   9.766
64757SOL    HW196103   8.644  14.689   9.798
64757SOL    HW296104   8.685  14.543   9.810
64758SOL     OW96105   2.668   8.260   8.210
64758SOL    HW196106   2.670   8.172   8.248
64758SOL    HW296107   2.596   8.256   8.146
64759SOL     OW96108  14.261   8.995  13.845
64759SOL    HW196109  14.229   9.054  13.913
64759SOL    HW296110  14.285   8.916  13.892
64760SOL     OW96111  13.239   0.597  12.827
64760SOL    HW196112  13.146   0.587  12.805
64760SOL    HW296113  13.273   0.657  12.760
64761SOL     OW96114   4.819  12.078   3.494
64761SOL    HW196115   4.880  12.127   3.550
64761SOL    HW296116   4.774  12.144   3.443
64762SOL     OW96117   4.596   4.412   0.950
64762SOL    HW196118   4.630   4.347   1.012
64762SOL    HW296119   4.627   4.381   0.864
64763SOL     OW96120  14.406   0.829   2.360
64763SOL    HW196121  14.462   0.803   2.433
64763SOL    HW296122  14.422   0.923   2.351
64764SOL     OW96123   8.106   5.669  13.811
64764SOL    HW196124   8.178   5.684  13.871
64764SOL    HW296125   8.090   5.754  13.770
64765SOL     OW96126   0.717  13.946   0.201
64765SOL    HW196127   0.689  14.007   0.132
64765SOL    HW296128   0.797  13.906   0.166
64766SOL     OW96129   8.956   8.506   9.324
64766SOL    HW196130   9.043   8.532   9.356
64766SOL    HW296131   8.961   8.411   9.314
64767SOL     OW96132   1.132   7.006   0.217
64767SOL    HW196133   1.163   7.066   0.284
64767SOL    HW296134   1.039   6.992   0.239
64768SOL     OW96135   3.010   6.534   9.488
64768SOL    HW196136   2.941   6.574   9.541
64768SOL    HW296137   2.967   6.460   9.446
64769SOL     OW96138  14.349   0.288   7.730
64769SOL    HW196139  14.298   0.359   7.770
64769SOL    HW296140  14.340   0.215   7.792
64770SOL     OW96141  13.564   4.380   5.510
64770SOL    HW196142  13.505   4.333   5.569
64770SOL    HW296143  13.652   4.357   5.542
64771SOL     OW96144   8.532   8.099   3.717
64771SOL    HW196145   8.499   8.011   3.733
64771SOL    HW296146   8.524   8.111   3.623
64772SOL     OW96147  13.335   0.656   6.246
64772SOL    HW196148  13.427   0.656   6.274
64772SOL    HW296149  13.322   0.743   6.207
64773SOL     OW96150   0.385   3.887   9.931
64773SOL    HW196151   0.331   3.965   9.946
64773SOL    HW296152   0.324   3.814   9.943
64774SOL     OW96153   4.184  10.048  14.821
64774SOL    HW196154   4.103   9.996  14.823
64774SOL    HW296155   4.252   9.987  14.796
64775SOL     OW96156  12.355   8.354  12.862
64775SOL    HW196157  12.353   8.446  12.886
64775SOL    HW296158  12.279   8.341  12.807
64776SOL     OW96159  14.462   0.161   9.130
64776SOL    HW196160  14.391   0.183   9.070
64776SOL    HW296161  14.476   0.241   9.180
64777SOL     OW96162   9.793   0.807   0.143
64777SOL    HW196163   9.779   0.902   0.133
64777SOL    HW296164   9.883   0.799   0.175
64778SOL     OW96165   6.193   3.238   5.842
64778SOL    HW196166   6.160   3.328   5.839
64778SOL    HW296167   6.276   3.241   5.796
64779SOL     OW96168   9.815   8.641   9.440
64779SOL    HW196169   9.758   8.679   9.373
64779SOL    HW296170   9.784   8.679   9.523
64780SOL     OW96171  13.280  11.394   2.995
64780SOL    HW196172  13.221  11.320   2.980
64780SOL    HW296173  13.336  11.365   3.068
64781SOL     OW96174   3.989   8.766   4.682
64781SOL    HW196175   3.974   8.812   4.764
64781SOL    HW296176   4.060   8.815   4.640
64782SOL     OW96177   8.253   6.797   4.232
64782SOL    HW196178   8.284   6.878   4.190
64782SOL    HW296179   8.324   6.771   4.290
64783SOL     OW96180   3.555  14.647   7.879
64783SOL    HW196181   3.509  14.572   7.842
64783SOL    HW296182   3.611  14.609   7.947
64784SOL     OW96183   8.147  13.515   4.714
64784SOL    HW196184   8.051  13.520   4.718
64784SOL    HW296185   8.177  13.604   4.734
64785SOL     OW96186   6.295   9.205  14.180
64785SOL    HW196187   6.291   9.242  14.092
64785SOL    HW296188   6.316   9.113  14.166
64786SOL     OW96189  11.512   2.379   5.593
64786SOL    HW196190  11.547   2.297   5.560
64786SOL    HW296191  11.579   2.412   5.653
64787SOL     OW96192  11.441  10.619   2.115
64787SOL    HW196193  11.494  10.679   2.062
64787SOL    HW296194  11.506  10.568   2.164
64788SOL     OW96195   1.826  13.137   8.953
64788SOL    HW196196   1.914  13.100   8.955
64788SOL    HW296197   1.840  13.231   8.943
64789SOL     OW96198  12.856   4.642  14.315
64789SOL    HW196199  12.937   4.592  14.327
64789SOL    HW296200  12.799   4.582  14.266
64790SOL     OW96201   3.865   5.841   0.022
64790SOL    HW196202   3.912   5.841   0.106
64790SOL    HW296203   3.777   5.810   0.044
64791SOL     OW96204  14.029  12.278   1.269
64791SOL    HW196205  14.016  12.226   1.190
64791SOL    HW296206  13.977  12.357   1.255
64792SOL     OW96207  14.584   8.419   0.191
64792SOL    HW196208  14.561   8.442   0.281
64792SOL    HW296209  14.676   8.443   0.183
64793SOL     OW96210  10.186   0.300   5.833
64793SOL    HW196211  10.127   0.229   5.860
64793SOL    HW296212  10.171   0.369   5.898
64794SOL     OW96213   4.217   5.026   3.027
64794SOL    HW196214   4.180   5.114   3.025
64794SOL    HW296215   4.143   4.969   3.006
64795SOL     OW96216   4.837   5.501  12.397
64795SOL    HW196217   4.869   5.538  12.315
64795SOL    HW296218   4.758   5.453  12.372
64796SOL     OW96219   9.372  12.221  13.423
64796SOL    HW196220   9.338  12.276  13.493
64796SOL    HW296221   9.456  12.259  13.400
64797SOL     OW96222  14.493   6.335  10.510
64797SOL    HW196223  14.549   6.257  10.515
64797SOL    HW296224  14.458   6.333  10.421
64798SOL     OW96225  13.061  14.332   9.624
64798SOL    HW196226  12.989  14.367   9.572
64798SOL    HW296227  13.019  14.300   9.705
64799SOL     OW96228   4.113  11.315   4.188
64799SOL    HW196229   4.096  11.406   4.213
64799SOL    HW296230   4.175  11.284   4.253
64800SOL     OW96231   3.660  10.204   6.344
64800SOL    HW196232   3.596  10.140   6.374
64800SOL    HW296233   3.745  10.159   6.354
64801SOL     OW96234   1.733   7.506  14.106
64801SOL    HW196235   1.660   7.536  14.052
64801SOL    HW296236   1.810   7.546  14.066
64802SOL     OW96237   7.781  13.552   0.428
64802SOL    HW196238   7.774  13.622   0.493
64802SOL    HW296239   7.700  13.558   0.377
64803SOL     OW96240   4.956  12.586   7.017
64803SOL    HW196241   4.880  12.624   7.061
64803SOL    HW296242   4.936  12.492   7.013
64804SOL     OW96243   0.341   1.469  12.004
64804SOL    HW196244   0.270   1.502  12.059
64804SOL    HW296245   0.416   1.525  12.026
64805SOL     OW96246   9.236  10.924  11.706
64805SOL    HW196247   9.325  10.928  11.670
64805SOL    HW296248   9.186  10.873  11.642
64806SOL     OW96249  14.176   4.482  10.262
64806SOL    HW196250  14.238   4.419  10.225
64806SOL    HW296251  14.229   4.538  10.318
64807SOL     OW96252   1.521   3.106   8.717
64807SOL    HW196253   1.495   3.036   8.657
64807SOL    HW296254   1.616   3.114   8.705
64808SOL     OW96255  13.617   9.519   3.966
64808SOL    HW196256  13.692   9.576   3.947
64808SOL    HW296257  13.589   9.544   4.054
64809SOL     OW96258   5.858   8.279  13.966
64809SOL    HW196259   5.780   8.331  13.946
64809SOL    HW296260   5.840   8.193  13.928
64810SOL     OW96261  13.586  13.379   8.717
64810SOL    HW196262  13.570  13.406   8.807
64810SOL    HW296263  13.682  13.368   8.712
64811SOL     OW96264   7.861   7.028   6.335
64811SOL    HW196265   7.807   7.038   6.413
64811SOL    HW296266   7.848   6.936   6.309
64812SOL     OW96267   0.505   2.479   3.043
64812SOL    HW196268   0.589   2.460   3.001
64812SOL    HW296269   0.528   2.493   3.135
64813SOL     OW96270  11.435   0.154   9.389
64813SOL    HW196271  11.385   0.079   9.422
64813SOL    HW296272  11.389   0.230   9.425
64814SOL     OW96273   7.031  12.114   1.342
64814SOL    HW196274   7.075  12.190   1.381
64814SOL    HW296275   6.962  12.152   1.287
64815SOL     OW96276   6.369   3.828  14.776
64815SOL    HW196277   6.353   3.842  14.870
64815SOL    HW296278   6.292   3.865  14.733
64816SOL     OW96279   4.882  14.661   3.065
64816SOL    HW196280   4.792  14.629   3.072
64816SOL    HW296281   4.932  14.608   3.127
64817SOL     OW96282  11.327   5.275  10.450
64817SOL    HW196283  11.333   5.211  10.379
64817SOL    HW296284  11.253   5.330  10.427
64818SOL     OW96285  10.256   5.426   0.557
64818SOL    HW196286  10.347   5.396   0.555
64818SOL    HW296287  10.244   5.458   0.647
64819SOL     OW96288  14.192   0.371  10.132
64819SOL    HW196289  14.165   0.323  10.210
64819SOL    HW296290  14.139   0.451  10.134
64820SOL     OW96291  13.744  11.890   0.796
64820SOL    HW196292  13.676  11.851   0.741
64820SOL    HW296293  13.826  11.859   0.759
64821SOL     OW96294   8.926   6.437   8.767
64821SOL    HW196295   8.902   6.529   8.755
64821SOL    HW296296   8.971   6.413   8.686
64822SOL     OW96297   1.614  11.276  12.374
64822SOL    HW196298   1.620  11.259  12.468
64822SOL    HW296299   1.526  11.312  12.362
64823SOL     OW96300  12.427   7.359   8.265
64823SOL    HW196301  12.381   7.369   8.348
64823SOL    HW296302  12.515   7.391   8.282
64824SOL     OW96303  10.086  10.703   9.647
64824SOL    HW196304  10.038  10.718   9.565
64824SOL    HW296305  10.174  10.735   9.629
64825SOL     OW96306   5.790  12.938  12.985
64825SOL    HW196307   5.814  12.965  13.074
64825SOL    HW296308   5.800  12.843  12.985
64826SOL     OW96309  12.998   7.534   2.608
64826SOL    HW196310  13.045   7.452   2.616
64826SOL    HW296311  12.967   7.536   2.517
64827SOL     OW96312   0.031   5.182  11.327
64827SOL    HW196313   0.093   5.147  11.391
64827SOL    HW296314   0.079   5.179  11.244
64828SOL     OW96315   9.208  14.339   4.081
64828SOL    HW196316   9.289  14.372   4.043
64828SOL    HW296317   9.161  14.301   4.007
64829SOL     OW96318   8.911  10.626   2.134
64829SOL    HW196319   8.925  10.573   2.056
64829SOL    HW296320   8.958  10.579   2.203
64830SOL     OW96321  11.483   9.323   7.366
64830SOL    HW196322  11.449   9.306   7.454
64830SOL    HW296323  11.551   9.389   7.378
64831SOL     OW96324   5.502  11.143  11.110
64831SOL    HW196325   5.437  11.199  11.154
64831SOL    HW296326   5.537  11.088  11.180
64832SOL     OW96327   7.514   7.467   0.846
64832SOL    HW196328   7.567   7.449   0.768
64832SOL    HW296329   7.510   7.384   0.893
64833SOL     OW96330   0.988   6.345   9.205
64833SOL    HW196331   0.916   6.354   9.268
64833SOL    HW296332   0.986   6.426   9.154
64834SOL     OW96333   1.029   0.450   9.842
64834SOL    HW196334   1.065   0.508   9.909
64834SOL    HW296335   1.017   0.366   9.887
64835SOL     OW96336   3.372  12.993   9.341
64835SOL    HW196337   3.459  13.034   9.350
64835SOL    HW296338   3.357  12.950   9.425
64836SOL     OW96339   5.079  10.821  13.929
64836SOL    HW196340   5.148  10.778  13.878
64836SOL    HW296341   5.058  10.759  13.999
64837SOL     OW96342   2.628  10.322  13.141
64837SOL    HW196343   2.679  10.374  13.203
64837SOL    HW296344   2.629  10.372  13.060
64838SOL     OW96345   6.513   4.999  12.634
64838SOL    HW196346   6.502   5.043  12.549
64838SOL    HW296347   6.550   4.914  12.612
64839SOL     OW96348  10.383   6.157  12.929
64839SOL    HW196349  10.348   6.069  12.913
64839SOL    HW296350  10.308   6.207  12.961
64840SOL     OW96351   7.541  14.509  14.066
64840SOL    HW196352   7.507  14.419  14.060
64840SOL    HW296353   7.612  14.502  14.130
64841SOL     OW96354   7.878   1.930  10.769
64841SOL    HW196355   7.895   1.926  10.675
64841SOL    HW296356   7.808   1.995  10.778
64842SOL     OW96357  14.701   2.426   6.275
64842SOL    HW196358  14.729   2.401   6.363
64842SOL    HW296359  14.780   2.461   6.234
64843SOL     OW96360   2.907   9.850   4.683
64843SOL    HW196361   2.956   9.789   4.738
64843SOL    HW296362   2.895   9.928   4.738
64844SOL     OW96363   9.304  10.597   7.694
64844SOL    HW196364   9.235  10.544   7.654
64844SOL    HW296365   9.354  10.535   7.747
64845SOL     OW96366  13.894   9.401   5.049
64845SOL    HW196367  13.822   9.421   4.989
64845SOL    HW296368  13.971   9.442   5.009
64846SOL     OW96369   9.833   5.889   1.122
64846SOL    HW196370   9.837   5.892   1.026
64846SOL    HW296371   9.923   5.900   1.150
64847SOL     OW96372  11.189   3.901   6.550
64847SOL    HW196373  11.256   3.964   6.527
64847SOL    HW296374  11.237   3.828   6.589
64848SOL     OW96375   9.346   8.307  10.080
64848SOL    HW196376   9.340   8.386  10.133
64848SOL    HW296377   9.275   8.317  10.016
64849SOL     OW96378  12.808   6.620   8.152
64849SOL    HW196379  12.839   6.548   8.207
64849SOL    HW296380  12.885   6.676   8.142
64850SOL     OW96381  13.681   9.736  10.645
64850SOL    HW196382  13.713   9.746  10.735
64850SOL    HW296383  13.620   9.662  10.650
64851SOL     OW96384   3.619   2.877   8.463
64851SOL    HW196385   3.688   2.883   8.397
64851SOL    HW296386   3.538   2.893   8.414
64852SOL     OW96387  11.585   6.626   8.558
64852SOL    HW196388  11.550   6.624   8.647
64852SOL    HW296389  11.659   6.565   8.559
64853SOL     OW96390   5.611  12.607  13.389
64853SOL    HW196391   5.533  12.580  13.437
64853SOL    HW296392   5.603  12.702  13.383
64854SOL     OW96393  13.228   7.210   3.122
64854SOL    HW196394  13.200   7.243   3.037
64854SOL    HW296395  13.190   7.270   3.186
64855SOL     OW96396  11.084  10.104   1.890
64855SOL    HW196397  11.150  10.035   1.887
64855SOL    HW296398  11.024  10.078   1.960
64856SOL     OW96399   2.676  13.866   6.892
64856SOL    HW196400   2.673  13.822   6.808
64856SOL    HW296401   2.607  13.824   6.944
64857SOL     OW96402  10.761  12.172  14.181
64857SOL    HW196403  10.840  12.206  14.138
64857SOL    HW296404  10.693  12.237  14.160
64858SOL     OW96405   7.479   4.424   5.182
64858SOL    HW196406   7.548   4.434   5.117
64858SOL    HW296407   7.492   4.497   5.242
64859SOL     OW96408   0.586  10.732  11.656
64859SOL    HW196409   0.645  10.666  11.621
64859SOL    HW296410   0.642  10.806  11.678
64860SOL     OW96411   8.118   7.929   0.324
64860SOL    HW196412   8.101   7.874   0.248
64860SOL    HW296413   8.067   8.008   0.309
64861SOL     OW96414  11.066  14.312   9.027
64861SOL    HW196415  11.079  14.338   9.118
64861SOL    HW296416  11.020  14.386   8.987
64862SOL     OW96417   1.123  12.551  10.891
64862SOL    HW196418   1.202  12.544  10.837
64862SOL    HW296419   1.151  12.600  10.968
64863SOL     OW96420  10.408  11.874   7.170
64863SOL    HW196421  10.400  11.949   7.111
64863SOL    HW296422  10.397  11.797   7.114
64864SOL     OW96423   6.996   6.615   4.775
64864SOL    HW196424   6.918   6.626   4.720
64864SOL    HW296425   6.964   6.629   4.864
64865SOL     OW96426   9.301   4.651  13.314
64865SOL    HW196427   9.230   4.613  13.365
64865SOL    HW296428   9.360   4.578  13.296
64866SOL     OW96429   0.865   7.910   1.542
64866SOL    HW196430   0.941   7.965   1.526
64866SOL    HW296431   0.899   7.836   1.593
64867SOL     OW96432   8.825   7.517   3.268
64867SOL    HW196433   8.842   7.542   3.359
64867SOL    HW296434   8.912   7.511   3.228
64868SOL     OW96435   6.048  14.763  13.840
64868SOL    HW196436   6.027  14.793  13.929
64868SOL    HW296437   6.040  14.842  13.786
64869SOL     OW96438   7.058   1.540   3.765
64869SOL    HW196439   7.018   1.610   3.817
64869SOL    HW296440   6.998   1.466   3.773
64870SOL     OW96441  10.759   1.412   5.942
64870SOL    HW196442  10.852   1.399   5.924
64870SOL    HW296443  10.715   1.384   5.863
64871SOL     OW96444  13.376   9.860  14.473
64871SOL    HW196445  13.327   9.897  14.547
64871SOL    HW296446  13.314   9.801  14.430
64872SOL     OW96447   9.880  11.622  13.397
64872SOL    HW196448   9.911  11.578  13.476
64872SOL    HW296449   9.795  11.582  13.380
64873SOL     OW96450  14.121   5.860   1.685
64873SOL    HW196451  14.205   5.819   1.666
64873SOL    HW296452  14.113   5.929   1.619
64874SOL     OW96453   7.679   7.059  11.202
64874SOL    HW196454   7.674   6.984  11.261
64874SOL    HW296455   7.760   7.103  11.225
64875SOL     OW96456   4.769  13.927   9.603
64875SOL    HW196457   4.687  13.965   9.573
64875SOL    HW296458   4.757  13.912   9.697
64876SOL     OW96459   8.526   7.126   0.043
64876SOL    HW196460   8.505   7.033   0.031
64876SOL    HW296461   8.621   7.131   0.027
64877SOL     OW96462   0.208  13.406   8.970
64877SOL    HW196463   0.168  13.438   9.050
64877SOL    HW296464   0.206  13.481   8.911
64878SOL     OW96465   0.800   4.099   0.050
64878SOL    HW196466   0.779   4.191   0.065
64878SOL    HW296467   0.877   4.100  14.869
64879SOL     OW96468  10.144   2.650  11.551
64879SOL    HW196469  10.173   2.699  11.474
64879SOL    HW296470  10.132   2.716  11.619
64880SOL     OW96471  14.587   3.305   2.940
64880SOL    HW196472  14.524   3.376   2.925
64880SOL    HW296473  14.533   3.228   2.954
64881SOL     OW96474   9.673   7.132  10.331
64881SOL    HW196475   9.606   7.199  10.344
64881SOL    HW296476   9.755   7.176  10.355
64882SOL     OW96477  10.042   9.107  12.587
64882SOL    HW196478   9.958   9.153  12.586
64882SOL    HW296479  10.040   9.053  12.508
64883SOL     OW96480  13.040  12.981   2.352
64883SOL    HW196481  13.045  12.890   2.381
64883SOL    HW296482  13.097  12.985   2.275
64884SOL     OW96483   5.133  13.582   2.116
64884SOL    HW196484   5.159  13.611   2.028
64884SOL    HW296485   5.113  13.663   2.163
64885SOL     OW96486   0.962   2.176  11.721
64885SOL    HW196487   0.912   2.104  11.683
64885SOL    HW296488   0.981   2.147  11.811
64886SOL     OW96489   1.515   9.736   8.118
64886SOL    HW196490   1.437   9.761   8.069
64886SOL    HW296491   1.578   9.807   8.100
64887SOL     OW96492   3.979   3.674  11.617
64887SOL    HW196493   3.996   3.631  11.701
64887SOL    HW296494   3.892   3.712  11.626
64888SOL     OW96495  12.968  14.131   4.250
64888SOL    HW196496  13.016  14.111   4.330
64888SOL    HW296497  12.900  14.193   4.277
64889SOL     OW96498  12.735   9.555  10.657
64889SOL    HW196499  12.673   9.614  10.700
64889SOL    HW296500  12.680   9.493  10.610
64890SOL     OW96501   9.495   6.000   3.291
64890SOL    HW196502   9.488   6.094   3.275
64890SOL    HW296503   9.578   5.990   3.337
64891SOL     OW96504   5.297   0.767   9.383
64891SOL    HW196505   5.246   0.817   9.319
64891SOL    HW296506   5.276   0.806   9.467
64892SOL     OW96507  10.594  10.145  12.525
64892SOL    HW196508  10.606  10.239  12.515
64892SOL    HW296509  10.500  10.134  12.539
64893SOL     OW96510   9.976   6.114   2.491
64893SOL    HW196511   9.964   6.198   2.446
64893SOL    HW296512  10.053   6.076   2.450
64894SOL     OW96513   3.886   9.077  13.657
64894SOL    HW196514   3.793   9.082  13.679
64894SOL    HW296515   3.906   9.163  13.620
64895SOL     OW96516  12.157   8.529   5.353
64895SOL    HW196517  12.189   8.577   5.277
64895SOL    HW296518  12.157   8.437   5.325
64896SOL     OW96519   5.587   6.393   6.417
64896SOL    HW196520   5.596   6.486   6.400
64896SOL    HW296521   5.544   6.389   6.503
64897SOL     OW96522   4.876   0.188  14.551
64897SOL    HW196523   4.806   0.238  14.592
64897SOL    HW296524   4.953   0.203  14.606
64898SOL     OW96525   0.021   9.824   9.232
64898SOL    HW196526   0.100   9.813   9.180
64898SOL    HW296527   0.018   9.918   9.251
64899SOL     OW96528   8.228  14.848   2.481
64899SOL    HW196529   8.288  14.843   2.407
64899SOL    HW296530   8.145  14.814   2.447
64900SOL     OW96531   5.701  14.868   1.700
64900SOL    HW196532   5.664   0.003   1.613
64900SOL    HW296533   5.792   0.022   1.693
64901SOL     OW96534  10.751   7.129  11.148
64901SOL    HW196535  10.715   7.186  11.216
64901SOL    HW296536  10.846   7.142  11.155
64902SOL     OW96537   7.932  14.794   6.513
64902SOL    HW196538   7.917  14.743   6.433
64902SOL    HW296539   7.908  14.735   6.584
64903SOL     OW96540   3.416   3.099   0.824
64903SOL    HW196541   3.455   3.106   0.911
64903SOL    HW296542   3.446   3.178   0.778
64904SOL     OW96543   4.685   8.055   6.527
64904SOL    HW196544   4.776   8.039   6.549
64904SOL    HW296545   4.661   8.132   6.578
64905SOL     OW96546   8.640   0.314   2.112
64905SOL    HW196547   8.716   0.362   2.145
64905SOL    HW296548   8.642   0.230   2.157
64906SOL     OW96549   2.546   3.736   7.104
64906SOL    HW196550   2.578   3.743   7.014
64906SOL    HW296551   2.579   3.815   7.148
64907SOL     OW96552   2.701   8.659   6.802
64907SOL    HW196553   2.700   8.698   6.890
64907SOL    HW296554   2.609   8.644   6.782
64908SOL     OW96555   9.180   5.815   2.837
64908SOL    HW196556   9.109   5.879   2.839
64908SOL    HW296557   9.153   5.747   2.898
64909SOL     OW96558  14.398   4.391   6.999
64909SOL    HW196559  14.413   4.462   7.061
64909SOL    HW296560  14.321   4.417   6.949
64910SOL     OW96561   8.072   3.112  10.877
64910SOL    HW196562   8.070   3.101  10.972
64910SOL    HW296563   8.144   3.173  10.862
64911SOL     OW96564   0.907  14.621   4.279
64911SOL    HW196565   0.986  14.645   4.231
64911SOL    HW296566   0.854  14.701   4.281
64912SOL     OW96567  10.234   9.275  12.682
64912SOL    HW196568  10.213   9.287  12.774
64912SOL    HW296569  10.181   9.200  12.655
64913SOL     OW96570  14.555   5.407   7.643
64913SOL    HW196571  14.515   5.480   7.596
64913SOL    HW296572  14.546   5.332   7.584
64914SOL     OW96573   5.247   2.823  14.749
64914SOL    HW196574   5.165   2.858  14.785
64914SOL    HW296575   5.269   2.882  14.678
64915SOL     OW96576  14.429   9.463   5.228
64915SOL    HW196577  14.460   9.375   5.206
64915SOL    HW296578  14.337   9.463   5.203
64916SOL     OW96579   7.515   9.986   9.207
64916SOL    HW196580   7.478   9.944   9.284
64916SOL    HW296581   7.439  10.019   9.159
64917SOL     OW96582   8.958  14.148   0.403
64917SOL    HW196583   9.049  14.176   0.411
64917SOL    HW296584   8.937  14.114   0.490
64918SOL     OW96585   6.857   7.205  13.948
64918SOL    HW196586   6.800   7.210  13.871
64918SOL    HW296587   6.803   7.240  14.019
64919SOL     OW96588   4.139   2.007   5.855
64919SOL    HW196589   4.082   2.079   5.883
64919SOL    HW296590   4.082   1.950   5.804
64920SOL     OW96591   1.841   8.667   7.634
64920SOL    HW196592   1.797   8.750   7.652
64920SOL    HW296593   1.776   8.614   7.588
64921SOL     OW96594   2.445   4.963   5.314
64921SOL    HW196595   2.506   5.010   5.371
64921SOL    HW296596   2.488   4.879   5.297
64922SOL     OW96597   0.748   3.423   9.275
64922SOL    HW196598   0.760   3.363   9.348
64922SOL    HW296599   0.763   3.510   9.312
64923SOL     OW96600   0.127   7.700   0.283
64923SOL    HW196601   0.062   7.676   0.217
64923SOL    HW296602   0.198   7.739   0.233
64924SOL     OW96603   5.193  10.365   4.308
64924SOL    HW196604   5.231  10.294   4.256
64924SOL    HW296605   5.230  10.445   4.270
64925SOL     OW96606   3.678   0.311  10.527
64925SOL    HW196607   3.732   0.256  10.471
64925SOL    HW296608   3.723   0.396  10.529
64926SOL     OW96609   7.213   2.490   4.525
64926SOL    HW196610   7.158   2.557   4.485
64926SOL    HW296611   7.298   2.500   4.483
64927SOL     OW96612   0.756   0.018   7.140
64927SOL    HW196613   0.684   0.077   7.116
64927SOL    HW296614   0.835   0.066   7.115
64928SOL     OW96615   9.974   1.137   0.784
64928SOL    HW196616   9.914   1.193   0.735
64928SOL    HW296617  10.058   1.183   0.781
64929SOL     OW96618   4.305  11.006   0.291
64929SOL    HW196619   4.298  10.917   0.324
64929SOL    HW296620   4.345  10.996   0.204
64930SOL     OW96621   7.659  11.982   0.068
64930SOL    HW196622   7.711  11.996   0.147
64930SOL    HW296623   7.607  11.904   0.087
64931SOL     OW96624   9.889  12.576   1.265
64931SOL    HW196625   9.842  12.522   1.202
64931SOL    HW296626   9.978  12.579   1.232
64932SOL     OW96627   0.250   1.242   7.443
64932SOL    HW196628   0.211   1.264   7.528
64932SOL    HW296629   0.240   1.147   7.436
64933SOL     OW96630   7.891   7.331  11.090
64933SOL    HW196631   7.885   7.378  11.174
64933SOL    HW296632   7.846   7.388  11.028
64934SOL     OW96633  11.415  10.569  10.557
64934SOL    HW196634  11.372  10.527  10.631
64934SOL    HW296635  11.460  10.498  10.511
64935SOL     OW96636   4.027  14.528   7.770
64935SOL    HW196637   3.965  14.458   7.750
64935SOL    HW296638   4.094  14.521   7.702
64936SOL     OW96639   0.823   0.091   1.328
64936SOL    HW196640   0.833   0.042   1.410
64936SOL    HW296641   0.891   0.157   1.331
64937SOL     OW96642   0.246   9.229   7.317
64937SOL    HW196643   0.170   9.256   7.265
64937SOL    HW296644   0.264   9.304   7.374
64938SOL     OW96645   8.071  10.389   4.527
64938SOL    HW196646   8.122  10.465   4.554
64938SOL    HW296647   8.134  10.317   4.524
64939SOL     OW96648   3.626   6.703   5.096
64939SOL    HW196649   3.560   6.755   5.050
64939SOL    HW296650   3.699   6.764   5.111
64940SOL     OW96651   3.334   0.274   2.281
64940SOL    HW196652   3.398   0.330   2.237
64940SOL    HW296653   3.253   0.288   2.233
64941SOL     OW96654   4.933  14.822   9.954
64941SOL    HW196655   4.885  14.834   9.872
64941SOL    HW296656   4.869  14.838  10.023
64942SOL     OW96657   4.695  12.802  10.756
64942SOL    HW196658   4.652  12.731  10.803
64942SOL    HW296659   4.746  12.759  10.688
64943SOL     OW96660  11.813  10.910   4.062
64943SOL    HW196661  11.754  10.985   4.069
64943SOL    HW296662  11.849  10.900   4.150
64944SOL     OW96663   2.267  11.104  11.525
64944SOL    HW196664   2.236  11.141  11.443
64944SOL    HW296665   2.327  11.034  11.498
64945SOL     OW96666  10.593   0.477   7.437
64945SOL    HW196667  10.514   0.521   7.407
64945SOL    HW296668  10.563   0.393   7.472
64946SOL     OW96669   3.894   6.175   0.851
64946SOL    HW196670   3.879   6.092   0.806
64946SOL    HW296671   3.926   6.234   0.784
64947SOL     OW96672   7.189   6.003   0.637
64947SOL    HW196673   7.152   6.063   0.702
64947SOL    HW296674   7.241   5.941   0.690
64948SOL     OW96675  13.114   3.053   0.678
64948SOL    HW196676  13.121   3.136   0.632
64948SOL    HW296677  13.034   3.062   0.730
64949SOL     OW96678  13.061   9.493   9.638
64949SOL    HW196679  13.121   9.423   9.611
64949SOL    HW296680  13.024   9.463   9.721
64950SOL     OW96681   1.888   3.569   1.124
64950SOL    HW196682   1.884   3.608   1.036
64950SOL    HW296683   1.830   3.493   1.119
64951SOL     OW96684   9.303  13.009  11.101
64951SOL    HW196685   9.357  13.046  11.170
64951SOL    HW296686   9.333  12.918  11.092
64952SOL     OW96687   9.480   6.625   6.813
64952SOL    HW196688   9.575   6.618   6.807
64952SOL    HW296689   9.453   6.656   6.727
64953SOL     OW96690  13.147  10.539   5.300
64953SOL    HW196691  13.055  10.542   5.272
64953SOL    HW296692  13.143  10.548   5.395
64954SOL     OW96693   5.599  10.455   3.492
64954SOL    HW196694   5.645  10.409   3.422
64954SOL    HW296695   5.669  10.501   3.539
64955SOL     OW96696  13.341  14.726   5.501
64955SOL    HW196697  13.432  14.724   5.532
64955SOL    HW296698  13.344  14.777   5.420
64956SOL     OW96699   9.774  12.282   3.242
64956SOL    HW196700   9.748  12.353   3.300
64956SOL    HW296701   9.730  12.205   3.278
64957SOL     OW96702  12.090   3.010   8.021
64957SOL    HW196703  12.102   2.920   8.050
64957SOL    HW296704  12.179   3.047   8.020
64958SOL     OW96705   0.978  12.916   1.520
64958SOL    HW196706   0.886  12.942   1.526
64958SOL    HW296707   0.997  12.876   1.605
64959SOL     OW96708  10.737  10.188   7.180
64959SOL    HW196709  10.681  10.219   7.252
64959SOL    HW296710  10.792  10.264   7.159
64960SOL     OW96711  10.880  14.600  13.152
64960SOL    HW196712  10.918  14.538  13.090
64960SOL    HW296713  10.924  14.683  13.134
64961SOL     OW96714   5.540   0.108   5.220
64961SOL    HW196715   5.487   0.102   5.140
64961SOL    HW296716   5.619   0.058   5.201
64962SOL     OW96717   8.414  12.673   2.023
64962SOL    HW196718   8.391  12.647   2.112
64962SOL    HW296719   8.504  12.703   2.028
64963SOL     OW96720  12.572  10.528   8.254
64963SOL    HW196721  12.514  10.473   8.201
64963SOL    HW296722  12.537  10.616   8.244
64964SOL     OW96723   9.434  12.050  13.719
64964SOL    HW196724   9.406  11.980  13.661
64964SOL    HW296725   9.518  12.079  13.683
64965SOL     OW96726   6.330   1.683   3.711
64965SOL    HW196727   6.425   1.675   3.717
64965SOL    HW296728   6.303   1.612   3.653
64966SOL     OW96729   7.114   9.702   3.345
64966SOL    HW196730   7.178   9.682   3.414
64966SOL    HW296731   7.043   9.639   3.360
64967SOL     OW96732   8.806  10.435  14.724
64967SOL    HW196733   8.897  10.446  14.696
64967SOL    HW296734   8.811  10.376  14.800
64968SOL     OW96735   5.823  14.044  12.698
64968SOL    HW196736   5.783  13.995  12.771
64968SOL    HW296737   5.842  13.977  12.633
64969SOL     OW96738   7.204   3.619  13.855
64969SOL    HW196739   7.296   3.595  13.868
64969SOL    HW296740   7.201   3.653  13.765
64970SOL     OW96741   8.578  12.682  11.476
64970SOL    HW196742   8.488  12.704  11.501
64970SOL    HW296743   8.623  12.766  11.472
64971SOL     OW96744  14.156  10.754  10.190
64971SOL    HW196745  14.169  10.728  10.281
64971SOL    HW296746  14.177  10.675  10.139
64972SOL     OW96747   7.958   0.764   7.926
64972SOL    HW196748   7.863   0.770   7.933
64972SOL    HW296749   7.989   0.766   8.016
64973SOL     OW96750  12.186   8.852   0.300
64973SOL    HW196751  12.164   8.766   0.265
64973SOL    HW296752  12.160   8.848   0.392
64974SOL     OW96753   3.083   2.315   7.589
64974SOL    HW196754   3.112   2.385   7.648
64974SOL    HW296755   3.005   2.350   7.547
64975SOL     OW96756  10.884  10.020  14.107
64975SOL    HW196757  10.826  10.003  14.033
64975SOL    HW296758  10.836  10.084  14.161
64976SOL     OW96759   9.485   4.619   2.511
64976SOL    HW196760   9.528   4.534   2.509
64976SOL    HW296761   9.392   4.599   2.519
64977SOL     OW96762   9.865   4.571   6.504
64977SOL    HW196763   9.814   4.490   6.500
64977SOL    HW296764   9.832   4.615   6.583
64978SOL     OW96765  11.984   8.859   7.246
64978SOL    HW196766  12.010   8.767   7.245
64978SOL    HW296767  11.997   8.886   7.337
64979SOL     OW96768  13.803  10.292   6.604
64979SOL    HW196769  13.853  10.344   6.667
64979SOL    HW296770  13.728  10.260   6.653
64980SOL     OW96771  14.337   0.929  12.025
64980SOL    HW196772  14.377   0.857  12.075
64980SOL    HW296773  14.357   1.008  12.076
64981SOL     OW96774   1.922   5.379   9.721
64981SOL    HW196775   1.858   5.449   9.706
64981SOL    HW296776   1.994   5.421   9.768
64982SOL     OW96777  13.230   2.585   4.989
64982SOL    HW196778  13.320   2.610   4.966
64982SOL    HW296779  13.214   2.627   5.073
64983SOL     OW96780   3.658   4.722   8.175
64983SOL    HW196781   3.630   4.632   8.195
64983SOL    HW296782   3.721   4.711   8.103
64984SOL     OW96783   2.501  14.031   8.810
64984SOL    HW196784   2.455  14.095   8.865
64984SOL    HW296785   2.556  14.085   8.752
64985SOL     OW96786   2.779   0.956  11.363
64985SOL    HW196787   2.787   0.985  11.454
64985SOL    HW296788   2.712   1.014  11.326
64986SOL     OW96789   2.494   4.645   9.889
64986SOL    HW196790   2.439   4.566   9.889
64986SOL    HW296791   2.525   4.653   9.799
64987SOL     OW96792  10.412   7.636   5.430
64987SOL    HW196793  10.460   7.554   5.419
64987SOL    HW296794  10.458   7.681   5.500
64988SOL     OW96795  14.334   5.103   0.175
64988SOL    HW196796  14.327   5.098   0.079
64988SOL    HW296797  14.298   5.189   0.197
64989SOL     OW96798  11.530   1.842   4.381
64989SOL    HW196799  11.507   1.773   4.318
64989SOL    HW296800  11.613   1.876   4.349
64990SOL     OW96801   7.230   9.009   2.199
64990SOL    HW196802   7.317   9.023   2.237
64990SOL    HW296803   7.176   8.979   2.272
64991SOL     OW96804  13.282  12.417   2.788
64991SOL    HW196805  13.278  12.322   2.797
64991SOL    HW296806  13.373  12.440   2.807
64992SOL     OW96807   6.460   4.329   6.546
64992SOL    HW196808   6.510   4.305   6.467
64992SOL    HW296809   6.525   4.326   6.616
64993SOL     OW96810   2.473   0.348   2.671
64993SOL    HW196811   2.412   0.378   2.739
64993SOL    HW296812   2.417   0.328   2.596
64994SOL     OW96813   1.558   9.558   0.488
64994SOL    HW196814   1.487   9.520   0.538
64994SOL    HW296815   1.517   9.624   0.432
64995SOL     OW96816   4.432   0.112   9.756
64995SOL    HW196817   4.474   0.156   9.682
64995SOL    HW296818   4.480   0.144   9.832
64996SOL     OW96819   3.394  13.308   9.679
64996SOL    HW196820   3.406  13.343   9.591
64996SOL    HW296821   3.480  13.320   9.722
64997SOL     OW96822   1.503   1.505   2.954
64997SOL    HW196823   1.448   1.583   2.963
64997SOL    HW296824   1.560   1.524   2.880
64998SOL     OW96825   2.023  14.679   0.293
64998SOL    HW196826   2.044  14.636   0.210
64998SOL    HW296827   2.101  14.665   0.347
64999SOL     OW96828   7.944   3.952   2.705
64999SOL    HW196829   7.945   4.006   2.784
64999SOL    HW296830   7.872   3.890   2.720
65000SOL     OW96831  12.928   5.314   0.571
65000SOL    HW196832  12.868   5.246   0.603
65000SOL    HW296833  12.903   5.327   0.479
65001SOL     OW96834   2.566   8.519   5.087
65001SOL    HW196835   2.599   8.535   4.999
65001SOL    HW296836   2.562   8.605   5.127
65002SOL     OW96837   3.673   4.415  14.202
65002SOL    HW196838   3.590   4.400  14.156
65002SOL    HW296839   3.684   4.339  14.258
65003SOL     OW96840   4.894   3.381  12.774
65003SOL    HW196841   4.834   3.401  12.702
65003SOL    HW296842   4.981   3.401  12.740
65004SOL     OW96843   1.738   7.013  10.437
65004SOL    HW196844   1.823   7.037  10.400
65004SOL    HW296845   1.678   7.079  10.405
65005SOL     OW96846   8.805   3.491   9.381
65005SOL    HW196847   8.879   3.531   9.337
65005SOL    HW296848   8.728   3.521   9.332
65006SOL     OW96849   8.130   7.524   5.664
65006SOL    HW196850   8.174   7.459   5.609
65006SOL    HW296851   8.164   7.608   5.633
65007SOL     OW96852  11.579  14.806   6.131
65007SOL    HW196853  11.644  14.738   6.112
65007SOL    HW296854  11.607   0.006   6.082
65008SOL     OW96855  10.731   2.457  11.328
65008SOL    HW196856  10.684   2.504  11.397
65008SOL    HW296857  10.754   2.525  11.264
65009SOL     OW96858   9.791  12.698  11.480
65009SOL    HW196859   9.768  12.636  11.550
65009SOL    HW296860   9.842  12.647  11.418
65010SOL     OW96861   6.672  13.329   7.158
65010SOL    HW196862   6.679  13.243   7.200
65010SOL    HW296863   6.580  13.354   7.170
65011SOL     OW96864   9.593   8.830   2.697
65011SOL    HW196865   9.528   8.767   2.730
65011SOL    HW296866   9.677   8.784   2.706
65012SOL     OW96867   6.216  13.972   9.963
65012SOL    HW196868   6.141  13.998   9.908
65012SOL    HW296869   6.289  13.968   9.902
65013SOL     OW96870  12.334   1.750   2.189
65013SOL    HW196871  12.255   1.699   2.207
65013SOL    HW296872  12.325   1.829   2.242
65014SOL     OW96873  14.397   3.595   9.735
65014SOL    HW196874  14.346   3.525   9.776
65014SOL    HW296875  14.483   3.590   9.777
65015SOL     OW96876  14.496   3.968   7.871
65015SOL    HW196877  14.562   4.008   7.927
65015SOL    HW296878  14.446   4.042   7.836
65016SOL     OW96879  11.535   8.477  12.847
65016SOL    HW196880  11.477   8.421  12.796
65016SOL    HW296881  11.544   8.556  12.793
65017SOL     OW96882  10.147  11.490  12.759
65017SOL    HW196883  10.134  11.578  12.795
65017SOL    HW296884  10.059  11.460  12.737
65018SOL     OW96885   5.391  11.165   7.570
65018SOL    HW196886   5.382  11.260   7.584
65018SOL    HW296887   5.477  11.154   7.531
65019SOL     OW96888   7.032  11.822   1.352
65019SOL    HW196889   7.120  11.804   1.320
65019SOL    HW296890   7.022  11.917   1.343
65020SOL     OW96891   0.358   0.025  10.526
65020SOL    HW196892   0.323  14.830  10.580
65020SOL    HW296893   0.412  14.855  10.461
65021SOL     OW96894   2.136  11.043  13.874
65021SOL    HW196895   2.118  10.975  13.940
65021SOL    HW296896   2.169  10.994  13.799
65022SOL     OW96897   8.466   4.505   7.766
65022SOL    HW196898   8.382   4.504   7.810
65022SOL    HW296899   8.478   4.415   7.736
65023SOL     OW96900   4.086   0.889  12.900
65023SOL    HW196901   4.027   0.951  12.857
65023SOL    HW296902   4.142   0.856  12.829
65024SOL     OW96903   1.073   5.212   1.070
65024SOL    HW196904   1.093   5.119   1.087
65024SOL    HW296905   1.155   5.257   1.086
65025SOL     OW96906   9.623   8.236  13.118
65025SOL    HW196907   9.588   8.263  13.202
65025SOL    HW296908   9.680   8.309  13.092
65026SOL     OW96909  13.994   5.526   9.248
65026SOL    HW196910  13.961   5.527   9.338
65026SOL    HW296911  13.916   5.538   9.194
65027SOL     OW96912   2.212   9.477  11.931
65027SOL    HW196913   2.233   9.385  11.913
65027SOL    HW296914   2.120   9.475  11.957
65028SOL     OW96915   9.124   2.871   5.521
65028SOL    HW196916   9.112   2.831   5.435
65028SOL    HW296917   9.112   2.965   5.505
65029SOL     OW96918   2.681   2.684   4.763
65029SOL    HW196919   2.767   2.692   4.804
65029SOL    HW296920   2.676   2.758   4.703
65030SOL     OW96921   6.447  11.983   5.272
65030SOL    HW196922   6.410  11.968   5.359
65030SOL    HW296923   6.456  11.896   5.234
65031SOL     OW96924   4.016  13.115   4.126
65031SOL    HW196925   4.051  13.201   4.150
65031SOL    HW296926   4.085  13.074   4.074
65032SOL     OW96927   2.023   3.697   6.579
65032SOL    HW196928   2.110   3.707   6.539
65032SOL    HW296929   2.011   3.602   6.585
65033SOL     OW96930  10.948   4.383   4.541
65033SOL    HW196931  10.862   4.410   4.509
65033SOL    HW296932  10.934   4.362   4.633
65034SOL     OW96933  13.318   1.460   2.761
65034SOL    HW196934  13.223   1.464   2.776
65034SOL    HW296935  13.329   1.390   2.696
65035SOL     OW96936  14.743   7.817   1.077
65035SOL    HW196937  14.704   7.760   1.011
65035SOL    HW296938  14.750   7.761   1.155
65036SOL     OW96939   0.081   5.002  14.073
65036SOL    HW196940   0.002   5.017  14.126
65036SOL    HW296941   0.103   4.910  14.089
65037SOL     OW96942  13.014   6.246   9.620
65037SOL    HW196943  13.058   6.330   9.630
65037SOL    HW296944  13.080   6.181   9.644
65038SOL     OW96945  13.892   1.445  13.443
65038SOL    HW196946  13.925   1.530  13.474
65038SOL    HW296947  13.876   1.396  13.524
65039SOL     OW96948   3.751   0.290   0.154
65039SOL    HW196949   3.757   0.206   0.201
65039SOL    HW296950   3.726   0.265   0.065
65040SOL     OW96951   4.892   8.530   7.662
65040SOL    HW196952   4.824   8.587   7.697
65040SOL    HW296953   4.964   8.540   7.724
65041SOL     OW96954  13.401   6.931   1.799
65041SOL    HW196955  13.338   6.911   1.868
65041SOL    HW296956  13.387   7.023   1.780
65042SOL     OW96957   4.252  13.603  12.391
65042SOL    HW196958   4.277  13.565  12.307
65042SOL    HW296959   4.156  13.602  12.391
65043SOL     OW96960   2.528  13.629   1.802
65043SOL    HW196961   2.507  13.715   1.765
65043SOL    HW296962   2.482  13.628   1.887
65044SOL     OW96963   0.056   9.307   7.107
65044SOL    HW196964   0.009   9.231   7.142
65044SOL    HW296965   0.012   9.326   7.024
65045SOL     OW96966   6.077   2.345   1.353
65045SOL    HW196967   6.060   2.355   1.259
65045SOL    HW296968   6.153   2.287   1.358
65046SOL     OW96969   6.445   2.252  10.321
65046SOL    HW196970   6.377   2.287  10.263
65046SOL    HW296971   6.472   2.327  10.373
65047SOL     OW96972  12.469   5.380   0.721
65047SOL    HW196973  12.412   5.388   0.645
65047SOL    HW296974  12.452   5.292   0.755
65048SOL     OW96975   3.609   9.395  11.105
65048SOL    HW196976   3.652   9.315  11.074
65048SOL    HW296977   3.533   9.363  11.153
65049SOL     OW96978   7.336   0.033  12.356
65049SOL    HW196979   7.262   0.043  12.296
65049SOL    HW296980   7.407  14.875  12.301
65050SOL     OW96981  14.287   8.124   2.462
65050SOL    HW196982  14.192   8.136   2.456
65050SOL    HW296983  14.315   8.187   2.528
65051SOL     OW96984   4.832  14.085  10.170
65051SOL    HW196985   4.910  14.109  10.120
65051SOL    HW296986   4.846  14.123  10.257
65052SOL     OW96987  10.348  13.646   0.479
65052SOL    HW196988  10.312  13.565   0.516
65052SOL    HW296989  10.338  13.711   0.549
65053SOL     OW96990   1.097  10.340   2.361
65053SOL    HW196991   1.097  10.279   2.434
65053SOL    HW296992   1.132  10.290   2.287
65054SOL     OW96993   3.319   9.858   9.719
65054SOL    HW196994   3.413   9.875   9.725
65054SOL    HW296995   3.301   9.858   9.625
65055SOL     OW96996   8.124   6.397   2.496
65055SOL    HW196997   8.154   6.384   2.406
65055SOL    HW296998   8.175   6.472   2.528
65056SOL     OW96999   9.026   5.498  10.073
65056SOL    HW197000   8.967   5.499   9.998
65056SOL    HW297001   8.976   5.453  10.142
65057SOL     OW97002  11.295   7.593   0.638
65057SOL    HW197003  11.265   7.560   0.554
65057SOL    HW297004  11.259   7.681   0.645
65058SOL     OW97005  13.682   8.882  13.439
65058SOL    HW197006  13.725   8.948  13.385
65058SOL    HW297007  13.694   8.800  13.390
65059SOL     OW97008   4.417   4.677   3.849
65059SOL    HW197009   4.480   4.666   3.920
65059SOL    HW297010   4.333   4.689   3.893
65060SOL     OW97011   7.906   2.123   7.878
65060SOL    HW197012   7.941   2.038   7.905
65060SOL    HW297013   7.949   2.186   7.936
65061SOL     OW97014   1.539   9.321   0.288
65061SOL    HW197015   1.448   9.295   0.276
65061SOL    HW297016   1.541   9.366   0.372
65062SOL     OW97017  11.882  12.421   2.621
65062SOL    HW197018  11.893  12.465   2.705
65062SOL    HW297019  11.867  12.329   2.644
65063SOL     OW97020  12.652   6.575   0.091
65063SOL    HW197021  12.589   6.601   0.024
65063SOL    HW297022  12.602   6.578   0.173
65064SOL     OW97023  13.105   8.172  13.297
65064SOL    HW197024  13.069   8.108  13.235
65064SOL    HW297025  13.200   8.164  13.287
65065SOL     OW97026   2.606   3.416   5.698
65065SOL    HW197027   2.584   3.442   5.608
65065SOL    HW297028   2.701   3.408   5.698
65066SOL     OW97029   9.393   3.344   0.542
65066SOL    HW197030   9.427   3.272   0.596
65066SOL    HW297031   9.430   3.329   0.455
65067SOL     OW97032   2.668  10.755   0.911
65067SOL    HW197033   2.634  10.702   0.983
65067SOL    HW297034   2.738  10.807   0.951
65068SOL     OW97035  13.219   5.222   6.092
65068SOL    HW197036  13.291   5.228   6.029
65068SOL    HW297037  13.180   5.310   6.092
65069SOL     OW97038   3.792   4.129   7.130
65069SOL    HW197039   3.714   4.175   7.162
65069SOL    HW297040   3.865   4.188   7.150
65070SOL     OW97041   3.792   0.017  12.453
65070SOL    HW197042   3.866  14.863  12.506
65070SOL    HW297043   3.827   0.024  12.364
65071SOL     OW97044  14.397   8.738   0.064
65071SOL    HW197045  14.477   8.728   0.115
65071SOL    HW297046  14.428   8.752  14.850
65072SOL     OW97047  10.870   2.993   0.355
65072SOL    HW197048  10.856   2.898   0.356
65072SOL    HW297049  10.796   3.027   0.304
65073SOL     OW97050  12.348  13.692   9.080
65073SOL    HW197051  12.300  13.752   9.137
65073SOL    HW297052  12.404  13.748   9.027
65074SOL     OW97053   7.706   7.014  14.277
65074SOL    HW197054   7.763   6.958  14.330
65074SOL    HW297055   7.634   7.037  14.336
65075SOL     OW97056  13.991   1.745   0.702
65075SOL    HW197057  14.000   1.840   0.703
65075SOL    HW297058  13.899   1.729   0.723
65076SOL     OW97059   2.211   0.442   9.437
65076SOL    HW197060   2.293   0.412   9.476
65076SOL    HW297061   2.193   0.525   9.480
65077SOL     OW97062  11.482   5.994   9.433
65077SOL    HW197063  11.477   6.019   9.341
65077SOL    HW297064  11.441   5.908   9.436
65078SOL     OW97065   6.357  12.084   3.552
65078SOL    HW197066   6.310  12.059   3.631
65078SOL    HW297067   6.439  12.121   3.584
65079SOL     OW97068   8.261   5.834  12.800
65079SOL    HW197069   8.262   5.928  12.817
65079SOL    HW297070   8.334   5.799  12.852
65080SOL     OW97071   2.510  12.050   4.753
65080SOL    HW197072   2.551  12.093   4.678
65080SOL    HW297073   2.451  12.115   4.790
65081SOL     OW97074   4.962   6.284  12.067
65081SOL    HW197075   4.875   6.287  12.107
65081SOL    HW297076   4.978   6.373  12.037
65082SOL     OW97077   8.693   3.544  14.585
65082SOL    HW197078   8.640   3.485  14.639
65082SOL    HW297079   8.744   3.486  14.528
65083SOL     OW97080  10.128   1.382  12.149
65083SOL    HW197081  10.062   1.450  12.165
65083SOL    HW297082  10.082   1.300  12.169
65084SOL     OW97083   5.891  12.468   4.497
65084SOL    HW197084   5.890  12.465   4.402
65084SOL    HW297085   5.828  12.536   4.520
65085SOL     OW97086  14.831   5.844   0.234
65085SOL    HW197087  14.872   5.909   0.177
65085SOL    HW297088   0.004   5.849   0.316
65086SOL     OW97089  14.372   9.564   9.035
65086SOL    HW197090  14.314   9.527   8.968
65086SOL    HW297091  14.423   9.490   9.066
65087SOL     OW97092   1.912   4.443  12.663
65087SOL    HW197093   1.928   4.362  12.711
65087SOL    HW297094   1.857   4.495  12.722
65088SOL     OW97095  13.916   0.491  12.212
65088SOL    HW197096  13.823   0.509  12.226
65088SOL    HW297097  13.922   0.472  12.118
65089SOL     OW97098   3.623   5.311   2.743
65089SOL    HW197099   3.671   5.391   2.767
65089SOL    HW297100   3.571   5.290   2.820
65090SOL     OW97101   6.976   0.800  14.115
65090SOL    HW197102   7.004   0.782  14.025
65090SOL    HW297103   6.883   0.818  14.108
65091SOL     OW97104   4.408   1.232   1.038
65091SOL    HW197105   4.486   1.286   1.025
65091SOL    HW297106   4.389   1.240   1.131
65092SOL     OW97107   7.044   5.254   8.525
65092SOL    HW197108   7.014   5.210   8.445
65092SOL    HW297109   7.118   5.202   8.555
65093SOL     OW97110  10.087   9.339  10.204
65093SOL    HW197111  10.031   9.382  10.269
65093SOL    HW297112  10.026   9.285  10.153
65094SOL     OW97113   5.363   5.429   3.222
65094SOL    HW197114   5.268   5.422   3.214
65094SOL    HW297115   5.387   5.357   3.280
65095SOL     OW97116   3.682   7.962   1.305
65095SOL    HW197117   3.709   8.053   1.305
65095SOL    HW297118   3.600   7.961   1.256
65096SOL     OW97119  10.373   4.731   0.418
65096SOL    HW197120  10.348   4.696   0.504
65096SOL    HW297121  10.290   4.759   0.379
65097SOL     OW97122   2.149   9.669   9.222
65097SOL    HW197123   2.103   9.597   9.178
65097SOL    HW297124   2.223   9.688   9.165
65098SOL     OW97125   2.224   7.260  14.250
65098SOL    HW197126   2.167   7.198  14.296
65098SOL    HW297127   2.303   7.264  14.303
65099SOL     OW97128  13.579   5.852   0.684
65099SOL    HW197129  13.612   5.891   0.602
65099SOL    HW297130  13.657   5.818   0.727
65100SOL     OW97131  14.225   2.309   3.720
65100SOL    HW197132  14.165   2.337   3.650
65100SOL    HW297133  14.286   2.383   3.729
65101SOL     OW97134   5.561  11.792  11.552
65101SOL    HW197135   5.616  11.714  11.552
65101SOL    HW297136   5.616  11.860  11.514
65102SOL     OW97137  13.894  14.126   9.225
65102SOL    HW197138  13.978  14.153   9.187
65102SOL    HW297139  13.836  14.201   9.209
65103SOL     OW97140   5.080   5.153   7.661
65103SOL    HW197141   5.135   5.088   7.616
65103SOL    HW297142   5.110   5.237   7.628
65104SOL     OW97143  12.843  10.721  10.996
65104SOL    HW197144  12.859  10.743  11.088
65104SOL    HW297145  12.898  10.645  10.980
65105SOL     OW97146   4.982  10.893  11.140
65105SOL    HW197147   4.978  10.899  11.236
65105SOL    HW297148   5.075  10.901  11.120
65106SOL     OW97149   5.703  14.134   9.761
65106SOL    HW197150   5.652  14.185   9.698
65106SOL    HW297151   5.753  14.073   9.708
65107SOL     OW97152  14.047   9.959  11.272
65107SOL    HW197153  14.012  10.030  11.325
65107SOL    HW297154  14.127   9.932  11.318
65108SOL     OW97155  11.069   7.493   0.031
65108SOL    HW197156  11.012   7.548  14.853
65108SOL    HW297157  11.008   7.439   0.082
65109SOL     OW97158   4.655   7.555   8.014
65109SOL    HW197159   4.716   7.481   8.008
65109SOL    HW297160   4.690   7.610   8.084
65110SOL     OW97161   6.490   8.368   1.456
65110SOL    HW197162   6.411   8.372   1.403
65110SOL    HW297163   6.504   8.274   1.472
65111SOL     OW97164  13.326  11.706  11.669
65111SOL    HW197165  13.419  11.727  11.662
65111SOL    HW297166  13.318  11.620  11.628
65112SOL     OW97167  10.800   3.394  14.710
65112SOL    HW197168  10.845   3.397  14.795
65112SOL    HW297169  10.709   3.371  14.732
65113SOL     OW97170   0.073  10.667   6.946
65113SOL    HW197171   0.079  10.654   7.040
65113SOL    HW297172  14.860  10.699   6.931
65114SOL     OW97173   4.292   9.683   4.070
65114SOL    HW197174   4.321   9.592   4.062
65114SOL    HW297175   4.368   9.730   4.106
65115SOL     OW97176  13.442  14.261   1.444
65115SOL    HW197177  13.522  14.213   1.424
65115SOL    HW297178  13.453  14.345   1.399
65116SOL     OW97179   4.829  10.955   2.978
65116SOL    HW197180   4.915  10.916   2.965
65116SOL    HW297181   4.774  10.916   2.910
65117SOL     OW97182   8.238  12.290   4.134
65117SOL    HW197183   8.270  12.265   4.220
65117SOL    HW297184   8.310  12.338   4.094
65118SOL     OW97185   3.859   6.242   2.479
65118SOL    HW197186   3.788   6.303   2.501
65118SOL    HW297187   3.876   6.258   2.386
65119SOL     OW97188   3.207  14.541  14.524
65119SOL    HW197189   3.302  14.528  14.526
65119SOL    HW297190   3.173  14.481  14.591
65120SOL     OW97191   0.717   7.699   4.488
65120SOL    HW197192   0.787   7.761   4.468
65120SOL    HW297193   0.723   7.685   4.582
65121SOL     OW97194   6.403   8.614  10.230
65121SOL    HW197195   6.361   8.673  10.292
65121SOL    HW297196   6.329   8.572  10.185
65122SOL     OW97197  10.624  10.173  10.321
65122SOL    HW197198  10.684  10.232  10.366
65122SOL    HW297199  10.633  10.090  10.368
65123SOL     OW97200   8.312  13.466   5.020
65123SOL    HW197201   8.377  13.523   4.980
65123SOL    HW297202   8.344  13.451   5.109
65124SOL     OW97203   0.906   5.057   6.439
65124SOL    HW197204   0.998   5.076   6.423
65124SOL    HW297205   0.878   5.121   6.503
65125SOL     OW97206  11.615   9.711   2.209
65125SOL    HW197207  11.634   9.624   2.174
65125SOL    HW297208  11.698   9.740   2.247
65126SOL     OW97209   2.340  12.125  10.669
65126SOL    HW197210   2.338  12.150  10.577
65126SOL    HW297211   2.364  12.205  10.716
65127SOL     OW97212   2.755   4.301   2.168
65127SOL    HW197213   2.697   4.303   2.243
65127SOL    HW297214   2.716   4.362   2.105
65128SOL     OW97215   8.160  11.106   4.311
65128SOL    HW197216   8.098  11.177   4.300
65128SOL    HW297217   8.130  11.038   4.251
65129SOL     OW97218   9.096   7.544   3.160
65129SOL    HW197219   9.147   7.490   3.220
65129SOL    HW297220   9.107   7.502   3.075
65130SOL     OW97221  13.417   7.173   8.910
65130SOL    HW197222  13.511   7.156   8.918
65130SOL    HW297223  13.379   7.087   8.891
65131SOL     OW97224  12.149   1.177   2.734
65131SOL    HW197225  12.213   1.153   2.802
65131SOL    HW297226  12.147   1.272   2.735
65132SOL     OW97227  12.990   8.933   8.968
65132SOL    HW197228  12.956   9.022   8.964
65132SOL    HW297229  12.976   8.898   8.880
65133SOL     OW97230   0.174   4.554   0.948
65133SOL    HW197231   0.092   4.541   0.995
65133SOL    HW297232   0.170   4.644   0.915
65134SOL     OW97233  10.984  10.617  10.818
65134SOL    HW197234  10.944  10.579  10.896
65134SOL    HW297235  11.042  10.685  10.851
65135SOL     OW97236  13.504   8.853   8.535
65135SOL    HW197237  13.502   8.779   8.474
65135SOL    HW297238  13.518   8.930   8.480
65136SOL     OW97239   6.890   7.325  12.313
65136SOL    HW197240   6.977   7.319  12.352
65136SOL    HW297241   6.847   7.243  12.339
65137SOL     OW97242   3.879   7.529   5.055
65137SOL    HW197243   3.807   7.549   5.114
65137SOL    HW297244   3.951   7.503   5.112
65138SOL     OW97245  12.111   0.895   9.734
65138SOL    HW197246  12.174   0.865   9.800
65138SOL    HW297247  12.139   0.852   9.653
65139SOL     OW97248   0.119   0.930   0.178
65139SOL    HW197249   0.160   0.949   0.262
65139SOL    HW297250   0.084   1.015   0.149
65140SOL     OW97251   6.576   0.282  10.504
65140SOL    HW197252   6.664   0.317  10.517
65140SOL    HW297253   6.582   0.191  10.534
65141SOL     OW97254  13.447   0.901   8.983
65141SOL    HW197255  13.364   0.920   8.940
65141SOL    HW297256  13.466   0.979   9.035
65142SOL     OW97257  12.608  12.407  11.532
65142SOL    HW197258  12.573  12.411  11.621
65142SOL    HW297259  12.584  12.320  11.500
65143SOL     OW97260  11.378   4.204  10.957
65143SOL    HW197261  11.310   4.190  11.022
65143SOL    HW297262  11.449   4.144  10.982
65144SOL     OW97263  10.620   7.646   3.643
65144SOL    HW197264  10.613   7.691   3.559
65144SOL    HW297265  10.655   7.560   3.620
65145SOL     OW97266   9.073   9.236   5.175
65145SOL    HW197267   9.006   9.279   5.121
65145SOL    HW297268   9.023   9.186   5.239
65146SOL     OW97269   4.460   3.907   9.150
65146SOL    HW197270   4.395   3.890   9.082
65146SOL    HW297271   4.437   3.845   9.220
65147SOL     OW97272   9.128   4.628   8.260
65147SOL    HW197273   9.195   4.655   8.322
65147SOL    HW297274   9.049   4.615   8.313
65148SOL     OW97275   2.514  10.193   8.000
65148SOL    HW197276   2.537  10.285   7.989
65148SOL    HW297277   2.531  10.176   8.093
65149SOL     OW97278  14.534   2.524  10.566
65149SOL    HW197279  14.569   2.608  10.595
65149SOL    HW297280  14.609   2.465  10.566
65150SOL     OW97281  11.665  13.893  10.234
65150SOL    HW197282  11.651  13.883  10.328
65150SOL    HW297283  11.629  13.979  10.213
65151SOL     OW97284   7.278   3.916   6.348
65151SOL    HW197285   7.355   3.873   6.386
65151SOL    HW297286   7.216   3.923   6.420
65152SOL     OW97287   9.299   5.304   1.101
65152SOL    HW197288   9.370   5.357   1.138
65152SOL    HW297289   9.343   5.229   1.062
65153SOL     OW97290   8.075   1.956   5.257
65153SOL    HW197291   8.032   1.890   5.203
65153SOL    HW297292   8.052   2.039   5.216
65154SOL     OW97293  10.266   8.546   1.635
65154SOL    HW197294  10.356   8.576   1.646
65154SOL    HW297295  10.235   8.532   1.725
65155SOL     OW97296   3.051  14.196   0.857
65155SOL    HW197297   3.065  14.289   0.840
65155SOL    HW297298   2.957  14.184   0.848
65156SOL     OW97299   3.693  10.999   7.961
65156SOL    HW197300   3.757  11.068   7.977
65156SOL    HW297301   3.664  11.014   7.871
65157SOL     OW97302   0.087   9.095   2.099
65157SOL    HW197303   0.026   9.136   2.159
65157SOL    HW297304   0.043   9.016   2.069
65158SOL     OW97305   7.356   4.543  12.258
65158SOL    HW197306   7.434   4.535  12.204
65158SOL    HW297307   7.390   4.564  12.346
65159SOL     OW97308   3.391   2.829   3.049
65159SOL    HW197309   3.411   2.747   3.093
65159SOL    HW297310   3.297   2.824   3.030
65160SOL     OW97311   0.404   8.380  13.626
65160SOL    HW197312   0.422   8.305  13.569
65160SOL    HW297313   0.433   8.352  13.713
65161SOL     OW97314   2.523  13.011   5.855
65161SOL    HW197315   2.464  12.936   5.863
65161SOL    HW297316   2.497  13.053   5.773
65162SOL     OW97317   5.084   9.015   5.742
65162SOL    HW197318   5.082   9.073   5.666
65162SOL    HW297319   4.993   8.989   5.756
65163SOL     OW97320   8.381   0.024   2.854
65163SOL    HW197321   8.439   0.057   2.924
65163SOL    HW297322   8.367   0.100   2.798
65164SOL     OW97323   8.543   7.963  11.237
65164SOL    HW197324   8.596   8.042  11.254
65164SOL    HW297325   8.492   7.985  11.159
65165SOL     OW97326  14.386  10.137   1.195
65165SOL    HW197327  14.438  10.061   1.220
65165SOL    HW297328  14.311  10.100   1.148
65166SOL     OW97329   0.887   7.126   7.635
65166SOL    HW197330   0.904   7.167   7.720
65166SOL    HW297331   0.896   7.032   7.652
65167SOL     OW97332   8.670   2.098  10.665
65167SOL    HW197333   8.589   2.066  10.625
65167SOL    HW297334   8.734   2.097  10.593
65168SOL     OW97335   2.662   8.178  13.194
65168SOL    HW197336   2.632   8.217  13.112
65168SOL    HW297337   2.608   8.101  13.206
65169SOL     OW97338   7.861  13.146   0.280
65169SOL    HW197339   7.820  13.075   0.329
65169SOL    HW297340   7.890  13.208   0.347
65170SOL     OW97341   2.283   8.165   6.571
65170SOL    HW197342   2.307   8.102   6.503
65170SOL    HW297343   2.222   8.117   6.627
65171SOL     OW97344   6.092   2.923  10.341
65171SOL    HW197345   6.010   2.968  10.360
65171SOL    HW297346   6.157   2.993  10.331
65172SOL     OW97347  14.092   2.750   2.622
65172SOL    HW197348  14.155   2.721   2.687
65172SOL    HW297349  14.141   2.812   2.567
65173SOL     OW97350  14.483  14.771   6.156
65173SOL    HW197351  14.445  14.856   6.133
65173SOL    HW297352  14.428  14.738   6.227
65174SOL     OW97353   2.135   4.368  10.623
65174SOL    HW197354   2.107   4.324  10.703
65174SOL    HW297355   2.208   4.314  10.591
65175SOL     OW97356   0.974  12.629   6.838
65175SOL    HW197357   0.906  12.695   6.826
65175SOL    HW297358   0.932  12.547   6.812
65176SOL     OW97359   8.835   5.723   0.440
65176SOL    HW197360   8.888   5.647   0.416
65176SOL    HW297361   8.866   5.747   0.527
65177SOL     OW97362  12.802   8.880   2.471
65177SOL    HW197363  12.729   8.911   2.418
65177SOL    HW297364  12.855   8.827   2.410
65178SOL     OW97365   3.500   5.923   2.735
65178SOL    HW197366   3.481   6.014   2.757
65178SOL    HW297367   3.472   5.914   2.644
65179SOL     OW97368   8.448  14.849   9.729
65179SOL    HW197369   8.418  14.758   9.741
65179SOL    HW297370   8.369   0.022   9.709
65180SOL     OW97371  13.933  12.666   8.998
65180SOL    HW197372  13.979  12.626   8.925
65180SOL    HW297373  14.000  12.712   9.047
65181SOL     OW97374   3.212   1.006  13.122
65181SOL    HW197375   3.122   0.986  13.096
65181SOL    HW297376   3.221   1.100  13.103
65182SOL     OW97377   0.088   9.632   0.451
65182SOL    HW197378   0.166   9.668   0.492
65182SOL    HW297379   0.037   9.595   0.524
65183SOL     OW97380   2.149  12.452   0.214
65183SOL    HW197381   2.166  12.411   0.299
65183SOL    HW297382   2.224  12.511   0.200
65184SOL     OW97383   4.434   5.671  12.175
65184SOL    HW197384   4.396   5.751  12.139
65184SOL    HW297385   4.492   5.701  12.244
65185SOL     OW97386   5.078  11.176   1.805
65185SOL    HW197387   5.029  11.259   1.807
65185SOL    HW297388   5.051  11.131   1.885
65186SOL     OW97389   1.051  13.131   2.305
65186SOL    HW197390   0.982  13.197   2.298
65186SOL    HW297391   1.123  13.175   2.349
65187SOL     OW97392  10.099   6.796   1.848
65187SOL    HW197393  10.078   6.878   1.893
65187SOL    HW297394  10.053   6.802   1.764
65188SOL     OW97395  12.948   1.755  10.970
65188SOL    HW197396  12.865   1.801  10.967
65188SOL    HW297397  12.976   1.762  11.062
65189SOL     OW97398  14.444  13.321   4.579
65189SOL    HW197399  14.354  13.299   4.603
65189SOL    HW297400  14.439  13.344   4.486
65190SOL     OW97401   2.121   8.964  11.770
65190SOL    HW197402   2.207   9.005  11.786
65190SOL    HW297403   2.119   8.952  11.675
65191SOL     OW97404   4.088  13.497   3.332
65191SOL    HW197405   4.115  13.472   3.243
65191SOL    HW297406   3.993  13.492   3.330
65192SOL     OW97407   2.633  12.472   3.077
65192SOL    HW197408   2.561  12.450   3.018
65192SOL    HW297409   2.712  12.455   3.026
65193SOL     OW97410  14.374   7.792   0.748
65193SOL    HW197411  14.465   7.800   0.720
65193SOL    HW297412  14.351   7.880   0.780
65194SOL     OW97413   5.191  12.588  10.078
65194SOL    HW197414   5.243  12.535  10.017
65194SOL    HW297415   5.230  12.569  10.164
65195SOL     OW97416   8.903  14.533   0.130
65195SOL    HW197417   8.989  14.574   0.139
65195SOL    HW297418   8.842  14.607   0.124
65196SOL     OW97419  14.723  11.213   6.404
65196SOL    HW197420  14.735  11.118   6.404
65196SOL    HW297421  14.633  11.226   6.374
65197SOL     OW97422   8.541   3.058   3.326
65197SOL    HW197423   8.587   3.099   3.253
65197SOL    HW297424   8.547   2.964   3.308
65198SOL     OW97425   2.318   0.186   4.602
65198SOL    HW197426   2.345   0.111   4.548
65198SOL    HW297427   2.222   0.183   4.599
65199SOL     OW97428   8.963   8.212   3.682
65199SOL    HW197429   9.047   8.201   3.638
65199SOL    HW297430   8.898   8.183   3.618
65200SOL     OW97431  11.206   8.338   1.017
65200SOL    HW197432  11.203   8.329   0.922
65200SOL    HW297433  11.283   8.287   1.043
65201SOL     OW97434   6.639   5.799  13.123
65201SOL    HW197435   6.558   5.808  13.073
65201SOL    HW297436   6.640   5.708  13.152
65202SOL     OW97437   8.985  12.226   1.449
65202SOL    HW197438   8.936  12.180   1.380
65202SOL    HW297439   9.077  12.204   1.431
65203SOL     OW97440   7.821  10.861   6.045
65203SOL    HW197441   7.820  10.925   6.117
65203SOL    HW297442   7.743  10.881   5.994
65204SOL     OW97443   4.623   6.253  13.911
65204SOL    HW197444   4.553   6.257  13.846
65204SOL    HW297445   4.588   6.197  13.980
65205SOL     OW97446   6.692   1.734  12.507
65205SOL    HW197447   6.776   1.770  12.476
65205SOL    HW297448   6.626   1.777  12.452
65206SOL     OW97449  14.175   7.947   2.967
65206SOL    HW197450  14.100   7.912   2.919
65206SOL    HW297451  14.141   8.026   3.010
65207SOL     OW97452   1.298   3.613   8.290
65207SOL    HW197453   1.249   3.533   8.304
65207SOL    HW297454   1.231   3.680   8.273
65208SOL     OW97455   7.443   7.695   0.640
65208SOL    HW197456   7.415   7.619   0.588
65208SOL    HW297457   7.527   7.669   0.676
65209SOL     OW97458  12.495   2.239  14.227
65209SOL    HW197459  12.511   2.326  14.191
65209SOL    HW297460  12.496   2.181  14.150
65210SOL     OW97461   4.829   8.572   7.321
65210SOL    HW197462   4.757   8.617   7.277
65210SOL    HW297463   4.839   8.490   7.271
65211SOL     OW97464   6.354   5.786  11.755
65211SOL    HW197465   6.324   5.811  11.842
65211SOL    HW297466   6.393   5.865  11.719
65212SOL     OW97467   8.027   3.956  13.655
65212SOL    HW197468   7.969   3.951  13.579
65212SOL    HW297469   7.967   3.958  13.730
65213SOL     OW97470   1.414   8.716  13.288
65213SOL    HW197471   1.411   8.627  13.253
65213SOL    HW297472   1.505   8.729  13.314
65214SOL     OW97473  12.412  14.282   9.882
65214SOL    HW197474  12.405  14.378   9.883
65214SOL    HW297475  12.323  14.252   9.865
65215SOL     OW97476  12.624   4.030  12.532
65215SOL    HW197477  12.540   3.987  12.549
65215SOL    HW297478  12.688   3.958  12.528
65216SOL     OW97479   1.674  10.748   0.423
65216SOL    HW197480   1.756  10.702   0.408
65216SOL    HW297481   1.607  10.691   0.385
65217SOL     OW97482   4.234  13.895  11.402
65217SOL    HW197483   4.260  13.983  11.430
65217SOL    HW297484   4.150  13.879  11.446
65218SOL     OW97485   8.706   2.080  13.890
65218SOL    HW197486   8.800   2.072  13.907
65218SOL    HW297487   8.698   2.152  13.828
65219SOL     OW97488  11.601   5.846  11.290
65219SOL    HW197489  11.652   5.789  11.233
65219SOL    HW297490  11.652   5.850  11.371
65220SOL     OW97491   6.640  14.221   5.037
65220SOL    HW197492   6.698  14.205   4.963
65220SOL    HW297493   6.661  14.153   5.100
65221SOL     OW97494   0.437  11.628   6.923
65221SOL    HW197495   0.497  11.673   6.862
65221SOL    HW297496   0.494  11.594   6.991
65222SOL     OW97497  10.029   1.611  14.868
65222SOL    HW197498   9.979   1.651  14.797
65222SOL    HW297499  10.056   1.526  14.834
65223SOL     OW97500   8.163  13.527   7.671
65223SOL    HW197501   8.112  13.447   7.655
65223SOL    HW297502   8.234  13.499   7.729
65224SOL     OW97503  13.964   8.734   2.444
65224SOL    HW197504  13.964   8.811   2.501
65224SOL    HW297505  14.054   8.726   2.414
65225SOL     OW97506   6.964  11.904   1.690
65225SOL    HW197507   7.046  11.856   1.682
65225SOL    HW297508   6.936  11.919   1.600
65226SOL     OW97509  10.687   7.962  13.624
65226SOL    HW197510  10.624   8.029  13.595
65226SOL    HW297511  10.665   7.885  13.572
65227SOL     OW97512   6.989   1.612  12.079
65227SOL    HW197513   6.933   1.688  12.066
65227SOL    HW297514   6.935   1.550  12.129
65228SOL     OW97515  10.389   1.909  12.161
65228SOL    HW197516  10.415   1.916  12.069
65228SOL    HW297517  10.460   1.950  12.210
65229SOL     OW97518  14.144  13.447   1.193
65229SOL    HW197519  14.135  13.357   1.225
65229SOL    HW297520  14.221  13.445   1.137
65230SOL     OW97521  12.457   0.085   1.732
65230SOL    HW197522  12.460  14.866   1.748
65230SOL    HW297523  12.462   0.093   1.637
65231SOL     OW97524   6.123   6.209  13.535
65231SOL    HW197525   6.061   6.155  13.585
65231SOL    HW297526   6.201   6.153  13.527
65232SOL     OW97527   5.042   4.474   6.216
65232SOL    HW197528   5.053   4.450   6.124
65232SOL    HW297529   5.062   4.567   6.220
65233SOL     OW97530  12.810   1.429   8.877
65233SOL    HW197531  12.761   1.354   8.843
65233SOL    HW297532  12.819   1.489   8.803
65234SOL     OW97533   8.034   3.365  10.610
65234SOL    HW197534   7.961   3.347  10.551
65234SOL    HW297535   7.993   3.386  10.694
65235SOL     OW97536  10.528  10.041  13.727
65235SOL    HW197537  10.614  10.083  13.721
65235SOL    HW297538  10.475  10.085  13.661
65236SOL     OW97539   4.536  13.981   2.376
65236SOL    HW197540   4.473  14.030   2.428
65236SOL    HW297541   4.498  13.893   2.367
65237SOL     OW97542  11.301  10.108   3.348
65237SOL    HW197543  11.258  10.190   3.374
65237SOL    HW297544  11.296  10.108   3.252
65238SOL     OW97545   3.327   2.228   6.362
65238SOL    HW197546   3.338   2.175   6.283
65238SOL    HW297547   3.273   2.302   6.334
65239SOL     OW97548   0.703   7.611   2.236
65239SOL    HW197549   0.698   7.636   2.329
65239SOL    HW297550   0.613   7.586   2.214
65240SOL     OW97551  14.066  14.668   9.316
65240SOL    HW197552  13.997  14.628   9.264
65240SOL    HW297553  14.147  14.647   9.268
65241SOL     OW97554  11.740  11.184   8.827
65241SOL    HW197555  11.770  11.100   8.862
65241SOL    HW297556  11.669  11.210   8.885
65242SOL     OW97557   0.205   4.115   3.135
65242SOL    HW197558   0.178   4.085   3.048
65242SOL    HW297559   0.130   4.164   3.168
65243SOL     OW97560   1.053   9.980   2.408
65243SOL    HW197561   0.999   9.933   2.345
65243SOL    HW297562   1.132   9.927   2.416
65244SOL     OW97563   0.938  14.216  11.908
65244SOL    HW197564   1.008  14.280  11.897
65244SOL    HW297565   0.912  14.224  12.000
65245SOL     OW97566  14.441   1.260   6.329
65245SOL    HW197567  14.349   1.259   6.300
65245SOL    HW297568  14.438   1.303   6.414
65246SOL     OW97569   6.613  14.460  11.081
65246SOL    HW197570   6.528  14.437  11.118
65246SOL    HW297571   6.593  14.499  10.996
65247SOL     OW97572   2.401  10.540   2.255
65247SOL    HW197573   2.357  10.575   2.178
65247SOL    HW297574   2.426  10.451   2.231
65248SOL     OW97575   8.268   4.769  13.725
65248SOL    HW197576   8.342   4.829  13.736
65248SOL    HW297577   8.253   4.733  13.813
65249SOL     OW97578  12.027   5.621   3.235
65249SOL    HW197579  11.989   5.592   3.152
65249SOL    HW297580  12.104   5.672   3.210
65250SOL     OW97581   6.386  11.184  10.780
65250SOL    HW197582   6.405  11.166  10.872
65250SOL    HW297583   6.371  11.279  10.777
65251SOL     OW97584   3.768   5.722   0.545
65251SOL    HW197585   3.676   5.718   0.572
65251SOL    HW297586   3.768   5.689   0.455
65252SOL     OW97587   3.130  11.678   8.568
65252SOL    HW197588   3.111  11.691   8.661
65252SOL    HW297589   3.140  11.584   8.557
65253SOL     OW97590   6.745   6.290   5.748
65253SOL    HW197591   6.748   6.332   5.834
65253SOL    HW297592   6.828   6.313   5.706
65254SOL     OW97593   6.822  10.902   1.756
65254SOL    HW197594   6.787  10.838   1.818
65254SOL    HW297595   6.757  10.903   1.685
65255SOL     OW97596  13.182  14.155   0.664
65255SOL    HW197597  13.251  14.097   0.697
65255SOL    HW297598  13.115  14.152   0.732
65256SOL     OW97599   7.042  10.606  12.336
65256SOL    HW197600   7.133  10.616  12.310
65256SOL    HW297601   7.015  10.523  12.296
65257SOL     OW97602   2.046   0.595   3.948
65257SOL    HW197603   2.115   0.624   3.889
65257SOL    HW297604   2.073   0.625   4.035
65258SOL     OW97605  13.018  10.513   6.917
65258SOL    HW197606  13.107  10.497   6.948
65258SOL    HW297607  12.980  10.426   6.909
65259SOL     OW97608   8.904   7.031   9.819
65259SOL    HW197609   8.979   6.972   9.829
65259SOL    HW297610   8.938   7.117   9.845
65260SOL     OW97611   2.752   6.844   8.049
65260SOL    HW197612   2.800   6.766   8.075
65260SOL    HW297613   2.724   6.827   7.959
65261SOL     OW97614   8.159   8.217   8.834
65261SOL    HW197615   8.083   8.196   8.781
65261SOL    HW297616   8.233   8.213   8.773
65262SOL     OW97617  11.192   1.459   9.904
65262SOL    HW197618  11.207   1.398   9.977
65262SOL    HW297619  11.109   1.431   9.866
65263SOL     OW97620   7.279  12.119  11.522
65263SOL    HW197621   7.307  12.064  11.449
65263SOL    HW297622   7.341  12.099  11.592
65264SOL     OW97623   1.772  13.969   0.848
65264SOL    HW197624   1.685  13.980   0.886
65264SOL    HW297625   1.825  13.935   0.920
65265SOL     OW97626   8.374   5.101  12.307
65265SOL    HW197627   8.372   5.006  12.315
65265SOL    HW297628   8.285   5.125  12.279
65266SOL     OW97629   1.920   6.521   3.354
65266SOL    HW197630   1.950   6.455   3.418
65266SOL    HW297631   1.971   6.599   3.376
65267SOL     OW97632  13.616   0.862   7.258
65267SOL    HW197633  13.601   0.780   7.211
65267SOL    HW297634  13.679   0.839   7.326
65268SOL     OW97635  13.090   8.340   6.921
65268SOL    HW197636  13.010   8.346   6.869
65268SOL    HW297637  13.098   8.248   6.943
65269SOL     OW97638   7.946  11.236  10.962
65269SOL    HW197639   7.942  11.205  10.872
65269SOL    HW297640   7.956  11.331  10.955
65270SOL     OW97641   8.606  12.246   4.607
65270SOL    HW197642   8.588  12.154   4.624
65270SOL    HW297643   8.699  12.249   4.585
65271SOL     OW97644   1.089   2.988   6.308
65271SOL    HW197645   1.004   2.953   6.335
65271SOL    HW297646   1.124   2.922   6.248
65272SOL     OW97647  14.368  11.939   1.917
65272SOL    HW197648  14.444  11.883   1.933
65272SOL    HW297649  14.337  11.914   1.830
65273SOL     OW97650   2.291  12.762   6.124
65273SOL    HW197651   2.292  12.668   6.145
65273SOL    HW297652   2.212  12.775   6.073
65274SOL     OW97653  12.078   1.616  11.822
65274SOL    HW197654  12.131   1.692  11.797
65274SOL    HW297655  12.013   1.651  11.882
65275SOL     OW97656  10.984   7.442  13.540
65275SOL    HW197657  11.019   7.394  13.614
65275SOL    HW297658  10.945   7.374  13.484
65276SOL     OW97659  14.672   9.279  13.120
65276SOL    HW197660  14.753   9.305  13.076
65276SOL    HW297661  14.608   9.271  13.050
65277SOL     OW97662  12.372  12.515   2.654
65277SOL    HW197663  12.363  12.492   2.747
65277SOL    HW297664  12.300  12.468   2.610
65278SOL     OW97665   0.471  10.783  14.481
65278SOL    HW197666   0.491  10.695  14.450
65278SOL    HW297667   0.399  10.772  14.543
65279SOL     OW97668   8.360   3.463  11.975
65279SOL    HW197669   8.444   3.506  11.961
65279SOL    HW297670   8.295   3.533  11.968
65280SOL     OW97671   2.324   3.201   7.578
65280SOL    HW197672   2.256   3.267   7.593
65280SOL    HW297673   2.405   3.251   7.572
65281SOL     OW97674   4.805   5.088   2.919
65281SOL    HW197675   4.837   5.106   3.007
65281SOL    HW297676   4.776   5.174   2.887
65282SOL     OW97677   4.418   8.349   5.123
65282SOL    HW197678   4.351   8.412   5.150
65282SOL    HW297679   4.370   8.282   5.075
65283SOL     OW97680   8.202   8.274   0.269
65283SOL    HW197681   8.158   8.230   0.197
65283SOL    HW297682   8.278   8.218   0.288
65284SOL     OW97683   6.546   1.556  14.875
65284SOL    HW197684   6.626   1.582  14.828
65284SOL    HW297685   6.476   1.565  14.810
65285SOL     OW97686   7.828   7.796   9.798
65285SOL    HW197687   7.904   7.802   9.739
65285SOL    HW297688   7.753   7.803   9.740
65286SOL     OW97689   7.434   8.179  11.780
65286SOL    HW197690   7.401   8.091  11.764
65286SOL    HW297691   7.447   8.216  11.692
65287SOL     OW97692   1.558   5.904   4.028
65287SOL    HW197693   1.545   5.834   4.093
65287SOL    HW297694   1.470   5.938   4.012
65288SOL     OW97695   1.452   9.794   4.156
65288SOL    HW197696   1.483   9.704   4.169
65288SOL    HW297697   1.495   9.843   4.226
65289SOL     OW97698   7.624  13.757   1.845
65289SOL    HW197699   7.560  13.690   1.868
65289SOL    HW297700   7.687  13.756   1.917
65290SOL     OW97701  12.412  13.754   5.979
65290SOL    HW197702  12.321  13.781   5.964
65290SOL    HW297703  12.405  13.662   6.006
65291SOL     OW97704  12.212   2.999  10.336
65291SOL    HW197705  12.134   3.028  10.383
65291SOL    HW297706  12.180   2.970  10.251
65292SOL     OW97707   1.822   0.380   8.747
65292SOL    HW197708   1.912   0.406   8.767
65292SOL    HW297709   1.771   0.412   8.820
65293SOL     OW97710   6.557   3.969   1.691
65293SOL    HW197711   6.649   3.976   1.664
65293SOL    HW297712   6.532   4.059   1.712
65294SOL     OW97713   1.544   0.481   4.544
65294SOL    HW197714   1.451   0.468   4.521
65294SOL    HW297715   1.556   0.430   4.624
65295SOL     OW97716  14.100  11.927  12.971
65295SOL    HW197717  14.067  11.891  13.053
65295SOL    HW297718  14.127  11.851  12.920
65296SOL     OW97719   5.640   8.091   7.511
65296SOL    HW197720   5.608   8.003   7.530
65296SOL    HW297721   5.725   8.078   7.469
65297SOL     OW97722  10.379   6.697   3.176
65297SOL    HW197723  10.322   6.761   3.219
65297SOL    HW297724  10.329   6.670   3.098
65298SOL     OW97725   4.150   3.931   6.761
65298SOL    HW197726   4.151   4.026   6.770
65298SOL    HW297727   4.071   3.903   6.809
65299SOL     OW97728   9.706   7.977   0.623
65299SOL    HW197729   9.755   7.946   0.547
65299SOL    HW297730   9.718   7.907   0.688
65300SOL     OW97731  11.661   5.560   9.898
65300SOL    HW197732  11.600   5.625   9.934
65300SOL    HW297733  11.607   5.508   9.838
65301SOL     OW97734   4.474  12.738   1.620
65301SOL    HW197735   4.528  12.807   1.582
65301SOL    HW297736   4.405  12.723   1.556
65302SOL     OW97737   3.792   7.697   7.479
65302SOL    HW197738   3.816   7.732   7.394
65302SOL    HW297739   3.875   7.666   7.517
65303SOL     OW97740  14.534   4.346   0.331
65303SOL    HW197741  14.477   4.419   0.355
65303SOL    HW297742  14.486   4.268   0.358
65304SOL     OW97743   5.760   9.763   9.628
65304SOL    HW197744   5.717   9.794   9.708
65304SOL    HW297745   5.797   9.678   9.652
65305SOL     OW97746   8.880  11.912  13.988
65305SOL    HW197747   8.834  11.923  14.071
65305SOL    HW297748   8.811  11.914  13.921
65306SOL     OW97749   3.338   0.837   6.389
65306SOL    HW197750   3.399   0.780   6.344
65306SOL    HW297751   3.361   0.925   6.359
65307SOL     OW97752   9.048   8.092   4.539
65307SOL    HW197753   8.969   8.087   4.485
65307SOL    HW297754   9.021   8.140   4.617
65308SOL     OW97755   7.088   8.715   8.392
65308SOL    HW197756   7.123   8.715   8.303
65308SOL    HW297757   7.139   8.780   8.438
65309SOL     OW97758   4.094  13.231   6.825
65309SOL    HW197759   4.159  13.174   6.785
65309SOL    HW297760   4.133  13.318   6.822
65310SOL     OW97761  13.574  13.683   2.890
65310SOL    HW197762  13.523  13.752   2.932
65310SOL    HW297763  13.665  13.707   2.907
65311SOL     OW97764  14.114   7.898   0.069
65311SOL    HW197765  14.057   7.825   0.093
65311SOL    HW297766  14.071   7.975   0.105
65312SOL     OW97767   1.137   4.298   9.626
65312SOL    HW197768   1.065   4.244   9.593
65312SOL    HW297769   1.140   4.280   9.719
65313SOL     OW97770   2.464   3.865  10.014
65313SOL    HW197771   2.494   3.834  10.099
65313SOL    HW297772   2.390   3.923  10.034
65314SOL     OW97773  12.683   3.449   7.904
65314SOL    HW197774  12.744   3.491   7.966
65314SOL    HW297775  12.623   3.519   7.879
65315SOL     OW97776  13.521   1.519   8.263
65315SOL    HW197777  13.530   1.466   8.183
65315SOL    HW297778  13.431   1.551   8.260
65316SOL     OW97779   3.745   7.563  11.970
65316SOL    HW197780   3.730   7.481  11.923
65316SOL    HW297781   3.832   7.590  11.942
65317SOL     OW97782   6.885  10.338   0.565
65317SOL    HW197783   6.975  10.344   0.597
65317SOL    HW297784   6.893  10.315   0.472
65318SOL     OW97785  14.284   8.450   9.311
65318SOL    HW197786  14.347   8.384   9.282
65318SOL    HW297787  14.206   8.400   9.335
65319SOL     OW97788   1.714   9.951  12.957
65319SOL    HW197789   1.655  10.020  12.987
65319SOL    HW297790   1.774   9.994  12.896
65320SOL     OW97791  11.494  10.800   5.667
65320SOL    HW197792  11.511  10.893   5.652
65320SOL    HW297793  11.399  10.793   5.673
65321SOL     OW97794   0.596   5.518   3.886
65321SOL    HW197795   0.568   5.467   3.962
65321SOL    HW297796   0.526   5.506   3.822
65322SOL     OW97797   5.233  12.245   0.814
65322SOL    HW197798   5.254  12.338   0.815
65322SOL    HW297799   5.284  12.208   0.886
65323SOL     OW97800   9.654   8.685   6.993
65323SOL    HW197801   9.662   8.765   6.942
65323SOL    HW297802   9.672   8.712   7.083
65324SOL     OW97803   6.400   4.494   4.476
65324SOL    HW197804   6.491   4.486   4.505
65324SOL    HW297805   6.406   4.496   4.380
65325SOL     OW97806   6.837   9.875   5.195
65325SOL    HW197807   6.849   9.783   5.220
65325SOL    HW297808   6.907   9.892   5.132
65326SOL     OW97809   3.786   3.851  10.293
65326SOL    HW197810   3.864   3.869  10.345
65326SOL    HW297811   3.724   3.920  10.316
65327SOL     OW97812   6.661   9.965   8.797
65327SOL    HW197813   6.682  10.045   8.846
65327SOL    HW297814   6.568   9.951   8.814
65328SOL     OW97815   4.808  11.982  12.341
65328SOL    HW197816   4.855  12.005  12.421
65328SOL    HW297817   4.771  12.064  12.309
65329SOL     OW97818   2.838   0.434   2.297
65329SOL    HW197819   2.788   0.459   2.375
65329SOL    HW297820   2.892   0.511   2.277
65330SOL     OW97821   5.459   2.542   4.084
65330SOL    HW197822   5.543   2.577   4.113
65330SOL    HW297823   5.409   2.529   4.165
65331SOL     OW97824   1.606  10.243   5.484
65331SOL    HW197825   1.616  10.159   5.438
65331SOL    HW297826   1.579  10.304   5.416
65332SOL     OW97827  12.745  14.711   1.847
65332SOL    HW197828  12.783  14.623   1.842
65332SOL    HW297829  12.773  14.744   1.932
65333SOL     OW97830   1.440   5.762   8.280
65333SOL    HW197831   1.400   5.723   8.358
65333SOL    HW297832   1.531   5.731   8.282
65334SOL     OW97833  14.205   8.120   9.249
65334SOL    HW197834  14.191   8.028   9.227
65334SOL    HW297835  14.135   8.141   9.311
65335SOL     OW97836  10.131   5.111   8.019
65335SOL    HW197837  10.180   5.069   7.949
65335SOL    HW297838  10.040   5.085   8.003
65336SOL     OW97839   8.013  13.332   3.851
65336SOL    HW197840   8.088  13.385   3.875
65336SOL    HW297841   7.941  13.394   3.843
65337SOL     OW97842   9.964  11.382   3.715
65337SOL    HW197843   9.924  11.461   3.678
65337SOL    HW297844  10.046  11.412   3.753
65338SOL     OW97845  11.026   7.310   7.436
65338SOL    HW197846  11.066   7.394   7.456
65338SOL    HW297847  10.935   7.319   7.466
65339SOL     OW97848   2.187  14.751   4.251
65339SOL    HW197849   2.133  14.674   4.235
65339SOL    HW297850   2.155  14.816   4.188
65340SOL     OW97851   1.686  13.924   4.327
65340SOL    HW197852   1.772  13.901   4.361
65340SOL    HW297853   1.681  14.019   4.336
65341SOL     OW97854   5.288  14.010   9.833
65341SOL    HW197855   5.364  13.956   9.853
65341SOL    HW297856   5.301  14.089   9.886
65342SOL     OW97857   9.598   2.749   2.565
65342SOL    HW197858   9.523   2.800   2.594
65342SOL    HW297859   9.567   2.659   2.565
65343SOL     OW97860  10.319  11.941  14.806
65343SOL    HW197861  10.240  11.966  14.854
65343SOL    HW297862  10.373  11.894  14.870
65344SOL     OW97863  10.701   5.137  10.497
65344SOL    HW197864  10.730   5.046  10.489
65344SOL    HW297865  10.722   5.176  10.412
65345SOL     OW97866  14.699   4.047   3.179
65345SOL    HW197867  14.695   4.029   3.085
65345SOL    HW297868  14.749   3.974   3.216
65346SOL     OW97869   3.362   0.303  11.707
65346SOL    HW197870   3.336   0.251  11.631
65346SOL    HW297871   3.458   0.304  11.704
65347SOL     OW97872   8.068   4.492   9.576
65347SOL    HW197873   8.154   4.522   9.606
65347SOL    HW297874   8.020   4.573   9.557
65348SOL     OW97875   5.321  11.614  13.409
65348SOL    HW197876   5.237  11.569  13.410
65348SOL    HW297877   5.332  11.642  13.319
65349SOL     OW97878  11.599  14.192  12.984
65349SOL    HW197879  11.551  14.137  12.923
65349SOL    HW297880  11.551  14.274  12.986
65350SOL     OW97881   4.234   1.951   6.777
65350SOL    HW197882   4.173   1.887   6.815
65350SOL    HW297883   4.318   1.905   6.774
65351SOL     OW97884   4.631  12.368   8.184
65351SOL    HW197885   4.709  12.355   8.129
65351SOL    HW297886   4.564  12.313   8.143
65352SOL     OW97887   8.384   9.791   8.402
65352SOL    HW197888   8.449   9.845   8.357
65352SOL    HW297889   8.411   9.701   8.384
65353SOL     OW97890   0.840   3.609  14.520
65353SOL    HW197891   0.767   3.667  14.543
65353SOL    HW297892   0.876   3.581  14.604
65354SOL     OW97893   3.409  13.735   7.277
65354SOL    HW197894   3.410  13.831   7.272
65354SOL    HW297895   3.484  13.713   7.331
65355SOL     OW97896   5.958   1.303   5.313
65355SOL    HW197897   6.012   1.335   5.241
65355SOL    HW297898   6.010   1.233   5.353
65356SOL     OW97899   4.809   3.079   9.703
65356SOL    HW197900   4.814   3.112   9.793
65356SOL    HW297901   4.802   2.984   9.713
65357SOL     OW97902   3.640  14.690   7.010
65357SOL    HW197903   3.643  14.709   7.103
65357SOL    HW297904   3.659  14.596   7.004
65358SOL     OW97905   8.169  11.034  13.941
65358SOL    HW197906   8.123  11.011  14.022
65358SOL    HW297907   8.189  11.127  13.951
65359SOL     OW97908   7.853  10.655   4.531
65359SOL    HW197909   7.761  10.627   4.529
65359SOL    HW297910   7.895  10.593   4.590
65360SOL     OW97911  13.009   8.647  12.494
65360SOL    HW197912  13.057   8.661  12.412
65360SOL    HW297913  12.925   8.610  12.467
65361SOL     OW97914  12.032   6.312   8.920
65361SOL    HW197915  12.011   6.223   8.893
65361SOL    HW297916  12.060   6.303   9.012
65362SOL     OW97917   0.297   6.624   9.810
65362SOL    HW197918   0.363   6.676   9.766
65362SOL    HW297919   0.252   6.577   9.740
65363SOL     OW97920   4.684   0.863  13.325
65363SOL    HW197921   4.644   0.938  13.369
65363SOL    HW297922   4.760   0.841  13.378
65364SOL     OW97923   0.203   2.670   6.787
65364SOL    HW197924   0.166   2.718   6.861
65364SOL    HW297925   0.256   2.735   6.740
65365SOL     OW97926   5.414   8.090  12.845
65365SOL    HW197927   5.414   8.038  12.764
65365SOL    HW297928   5.393   8.027  12.914
65366SOL     OW97929  12.787   3.245  12.077
65366SOL    HW197930  12.837   3.300  12.016
65366SOL    HW297931  12.826   3.263  12.163
65367SOL     OW97932   5.530   3.549   6.445
65367SOL    HW197933   5.529   3.459   6.479
65367SOL    HW297934   5.520   3.604   6.523
65368SOL     OW97935   0.479   3.470   0.908
65368SOL    HW197936   0.424   3.392   0.903
65368SOL    HW297937   0.518   3.466   0.995
65369SOL     OW97938   3.672   2.501   8.515
65369SOL    HW197939   3.641   2.519   8.427
65369SOL    HW297940   3.631   2.568   8.569
65370SOL     OW97941  12.087  11.967   9.303
65370SOL    HW197942  12.171  12.013   9.307
65370SOL    HW297943  12.049  11.994   9.220
65371SOL     OW97944  13.759   6.524   3.094
65371SOL    HW197945  13.728   6.536   3.004
65371SOL    HW297946  13.703   6.456   3.130
65372SOL     OW97947   5.777  11.991  11.205
65372SOL    HW197948   5.768  11.966  11.297
65372SOL    HW297949   5.828  11.920  11.166
65373SOL     OW97950   5.908   4.147   8.138
65373SOL    HW197951   6.001   4.122   8.134
65373SOL    HW297952   5.862   4.078   8.092
65374SOL     OW97953  11.742  11.710   0.469
65374SOL    HW197954  11.809  11.735   0.406
65374SOL    HW297955  11.777  11.632   0.512
65375SOL     OW97956  12.198   1.256  14.779
65375SOL    HW197957  12.142   1.290  14.850
65375SOL    HW297958  12.154   1.284  14.699
65376SOL     OW97959   9.146   3.296  13.418
65376SOL    HW197960   9.059   3.310  13.455
65376SOL    HW297961   9.206   3.305  13.492
65377SOL     OW97962  11.478  14.546  12.525
65377SOL    HW197963  11.530  14.601  12.584
65377SOL    HW297964  11.428  14.609  12.472
65378SOL     OW97965   8.382  14.866   5.346
65378SOL    HW197966   8.394  14.790   5.290
65378SOL    HW297967   8.387   0.066   5.287
65379SOL     OW97968  13.440  14.064   2.851
65379SOL    HW197969  13.365  14.110   2.890
65379SOL    HW297970  13.404  14.023   2.772
65380SOL     OW97971   4.437   1.430  14.223
65380SOL    HW197972   4.395   1.360  14.272
65380SOL    HW297973   4.524   1.395  14.202
65381SOL     OW97974   3.967   6.225  12.719
65381SOL    HW197975   3.911   6.257  12.791
65381SOL    HW297976   3.980   6.302  12.664
65382SOL     OW97977  11.644   1.803   0.203
65382SOL    HW197978  11.725   1.794   0.253
65382SOL    HW297979  11.586   1.735   0.239
65383SOL     OW97980   3.706   3.566   1.979
65383SOL    HW197981   3.743   3.649   2.009
65383SOL    HW297982   3.753   3.500   2.031
65384SOL     OW97983   7.329  13.363   1.241
65384SOL    HW197984   7.391  13.332   1.175
65384SOL    HW297985   7.385  13.394   1.313
65385SOL     OW97986  13.146  14.328  14.106
65385SOL    HW197987  13.192  14.359  14.185
65385SOL    HW297988  13.215  14.287  14.054
65386SOL     OW97989   2.533  11.189   0.920
65386SOL    HW197990   2.619  11.207   0.880
65386SOL    HW297991   2.550  11.190   1.014
65387SOL     OW97992   7.394   4.675  10.187
65387SOL    HW197993   7.330   4.646  10.122
65387SOL    HW297994   7.342   4.708  10.260
65388SOL     OW97995   4.369  13.938   5.827
65388SOL    HW197996   4.309  13.889   5.883
65388SOL    HW297997   4.456  13.914   5.858
65389SOL     OW97998  10.224  13.584   4.307
65389SOL    HW197999  10.278  13.508   4.326
65389SOL    HW298000  10.282  13.645   4.261
65390SOL     OW98001  12.419   5.412   5.733
65390SOL    HW198002  12.476   5.442   5.803
65390SOL    HW298003  12.355   5.355   5.776
65391SOL     OW98004   6.252   0.589   5.123
65391SOL    HW198005   6.182   0.653   5.108
65391SOL    HW298006   6.329   0.628   5.083
65392SOL     OW98007   1.814  10.353   0.170
65392SOL    HW198008   1.813  10.433   0.117
65392SOL    HW298009   1.789  10.381   0.258
65393SOL     OW98010   4.851  14.845   0.361
65393SOL    HW198011   4.830  14.762   0.405
65393SOL    HW298012   4.944  14.835   0.337
65394SOL     OW98013   7.212  13.064  13.071
65394SOL    HW198014   7.139  13.053  13.131
65394SOL    HW298015   7.237  13.156  13.079
65395SOL     OW98016  14.437   9.332  14.079
65395SOL    HW198017  14.507   9.286  14.032
65395SOL    HW298018  14.370   9.347  14.012
65396SOL     OW98019  12.524  10.210   9.396
65396SOL    HW198020  12.508  10.117   9.414
65396SOL    HW298021  12.482  10.225   9.311
65397SOL     OW98022   9.218   4.356   8.219
65397SOL    HW198023   9.174   4.441   8.222
65397SOL    HW298024   9.281   4.359   8.291
65398SOL     OW98025   9.735  10.277  11.375
65398SOL    HW198026   9.796  10.344  11.405
65398SOL    HW298027   9.746  10.277  11.279
65399SOL     OW98028  11.670   6.714   7.036
65399SOL    HW198029  11.658   6.789   6.978
65399SOL    HW298030  11.741   6.663   6.995
65400SOL     OW98031   8.018   4.317   4.247
65400SOL    HW198032   7.954   4.336   4.316
65400SOL    HW298033   8.047   4.403   4.217
65401SOL     OW98034  12.595  13.160   6.231
65401SOL    HW198035  12.650  13.166   6.152
65401SOL    HW298036  12.594  13.249   6.266
65402SOL     OW98037   3.845  10.943   5.327
65402SOL    HW198038   3.842  10.996   5.247
65402SOL    HW298039   3.902  10.869   5.305
65403SOL     OW98040   8.287   8.653   4.095
65403SOL    HW198041   8.235   8.672   4.173
65403SOL    HW298042   8.255   8.567   4.065
65404SOL     OW98043   3.018   7.544   2.262
65404SOL    HW198044   3.097   7.597   2.260
65404SOL    HW298045   2.955   7.595   2.313
65405SOL     OW98046   9.597   3.766   1.349
65405SOL    HW198047   9.656   3.823   1.301
65405SOL    HW298048   9.533   3.826   1.389
65406SOL     OW98049   3.882   7.030   1.602
65406SOL    HW198050   3.922   7.064   1.682
65406SOL    HW298051   3.914   6.940   1.595
65407SOL     OW98052  13.541   4.677  13.117
65407SOL    HW198053  13.460   4.727  13.125
65407SOL    HW298054  13.599   4.733  13.066
65408SOL     OW98055   2.766   1.627  10.130
65408SOL    HW198056   2.739   1.715  10.103
65408SOL    HW298057   2.684   1.579  10.139
65409SOL     OW98058   3.208   0.633   3.262
65409SOL    HW198059   3.297   0.598   3.262
65409SOL    HW298060   3.152   0.557   3.279
65410SOL     OW98061  13.373  10.268   9.533
65410SOL    HW198062  13.417  10.242   9.453
65410SOL    HW298063  13.412  10.214   9.602
65411SOL     OW98064   3.095   8.388   2.483
65411SOL    HW198065   3.079   8.390   2.389
65411SOL    HW298066   3.026   8.442   2.520
65412SOL     OW98067   0.210  14.196   7.158
65412SOL    HW198068   0.133  14.148   7.128
65412SOL    HW298069   0.279  14.170   7.097
65413SOL     OW98070   7.347   3.751   7.763
65413SOL    HW198071   7.443   3.745   7.764
65413SOL    HW298072   7.322   3.718   7.677
65414SOL     OW98073   6.224   9.141   1.996
65414SOL    HW198074   6.310   9.122   1.957
65414SOL    HW298075   6.165   9.079   1.954
65415SOL     OW98076   1.675   3.158   8.359
65415SOL    HW198077   1.659   3.214   8.434
65415SOL    HW298078   1.651   3.070   8.389
65416SOL     OW98079  10.598   0.979   9.539
65416SOL    HW198080  10.503   0.968   9.535
65416SOL    HW298081  10.625   0.999   9.450
65417SOL     OW98082   6.397   6.981   2.000
65417SOL    HW198083   6.444   6.961   2.081
65417SOL    HW298084   6.404   7.076   1.991
65418SOL     OW98085  10.869   4.214   4.788
65418SOL    HW198086  10.822   4.147   4.838
65418SOL    HW298087  10.871   4.290   4.846
65419SOL     OW98088  13.227   0.940   2.949
65419SOL    HW198089  13.153   0.957   2.891
65419SOL    HW298090  13.297   0.996   2.916
65420SOL     OW98091   3.271  11.025  12.081
65420SOL    HW198092   3.322  10.988  12.009
65420SOL    HW298093   3.336  11.059  12.142
65421SOL     OW98094   0.135  13.532   4.057
65421SOL    HW198095   0.159  13.580   3.978
65421SOL    HW298096   0.094  13.451   4.025
65422SOL     OW98097   8.028   9.131   6.718
65422SOL    HW198098   8.056   9.040   6.708
65422SOL    HW298099   7.937   9.132   6.687
65423SOL     OW98100   8.973  12.197   2.080
65423SOL    HW198101   8.886  12.227   2.055
65423SOL    HW298102   8.989  12.236   2.166
65424SOL     OW98103  13.265   7.325   6.333
65424SOL    HW198104  13.239   7.316   6.425
65424SOL    HW298105  13.189   7.364   6.290
65425SOL     OW98106  14.000  13.562   3.411
65425SOL    HW198107  14.018  13.574   3.318
65425SOL    HW298108  14.014  13.468   3.426
65426SOL     OW98109   5.001   5.224  10.340
65426SOL    HW198110   4.911   5.194  10.328
65426SOL    HW298111   5.055   5.150  10.311
65427SOL     OW98112   4.579   5.229  14.377
65427SOL    HW198113   4.613   5.311  14.413
65427SOL    HW298114   4.646   5.199  14.316
65428SOL     OW98115   8.317  11.921  12.950
65428SOL    HW198116   8.326  11.859  13.022
65428SOL    HW298117   8.327  12.007  12.992
65429SOL     OW98118   2.772   8.760   3.530
65429SOL    HW198119   2.717   8.705   3.473
65429SOL    HW298120   2.853   8.711   3.539
65430SOL     OW98121   6.645  14.417   1.007
65430SOL    HW198122   6.600  14.343   0.967
65430SOL    HW298123   6.581  14.488   1.005
65431SOL     OW98124   5.891  10.615  10.257
65431SOL    HW198125   5.830  10.569  10.314
65431SOL    HW298126   5.928  10.547  10.201
65432SOL     OW98127   9.019   4.097   7.917
65432SOL    HW198128   9.069   4.179   7.924
65432SOL    HW298129   8.932   4.119   7.951
65433SOL     OW98130   5.071  13.712   7.629
65433SOL    HW198131   4.982  13.746   7.626
65433SOL    HW298132   5.060  13.618   7.642
65434SOL     OW98133   4.703   4.037   9.099
65434SOL    HW198134   4.625   3.985   9.116
65434SOL    HW298135   4.716   4.089   9.178
65435SOL     OW98136  12.319  13.831   0.216
65435SOL    HW198137  12.352  13.871   0.135
65435SOL    HW298138  12.384  13.855   0.282
65436SOL     OW98139   5.251  13.792   5.001
65436SOL    HW198140   5.326  13.848   4.983
65436SOL    HW298141   5.185  13.820   4.937
65437SOL     OW98142   3.977   2.350  12.461
65437SOL    HW198143   3.961   2.443  12.482
65437SOL    HW298144   4.071   2.345  12.444
65438SOL     OW98145  13.347   6.037   0.889
65438SOL    HW198146  13.276   5.973   0.893
65438SOL    HW298147  13.423   5.988   0.856
65439SOL     OW98148  14.231   5.889  11.213
65439SOL    HW198149  14.191   5.802  11.220
65439SOL    HW298150  14.265   5.893  11.124
65440SOL     OW98151   9.700   5.329   6.585
65440SOL    HW198152   9.722   5.298   6.498
65440SOL    HW298153   9.689   5.424   6.575
65441SOL     OW98154   4.137   7.375   7.242
65441SOL    HW198155   4.066   7.322   7.280
65441SOL    HW298156   4.213   7.316   7.242
65442SOL     OW98157   8.343  12.077  10.273
65442SOL    HW198158   8.386  12.091  10.357
65442SOL    HW298159   8.380  11.996  10.239
65443SOL     OW98160   1.025   0.509   5.832
65443SOL    HW198161   1.050   0.457   5.908
65443SOL    HW298162   1.076   0.589   5.839
65444SOL     OW98163   2.426   9.217   9.607
65444SOL    HW198164   2.458   9.173   9.528
65444SOL    HW298165   2.498   9.273   9.635
65445SOL     OW98166   8.076  10.763  13.756
65445SOL    HW198167   8.126  10.821  13.812
65445SOL    HW298168   8.138  10.735  13.689
65446SOL     OW98169   9.078   5.842   2.189
65446SOL    HW198170   9.071   5.764   2.135
65446SOL    HW298171   9.171   5.848   2.211
65447SOL     OW98172   2.308  13.499   6.042
65447SOL    HW198173   2.401  13.490   6.020
65447SOL    HW298174   2.273  13.410   6.037
65448SOL     OW98175   1.545   8.936   9.072
65448SOL    HW198176   1.502   8.871   9.128
65448SOL    HW298177   1.633   8.902   9.058
65449SOL     OW98178   5.899  12.619  11.884
65449SOL    HW198179   5.871  12.673  11.958
65449SOL    HW298180   5.954  12.677  11.832
65450SOL     OW98181   0.635   0.180   6.081
65450SOL    HW198182   0.720   0.146   6.112
65450SOL    HW298183   0.571   0.115   6.112
65451SOL     OW98184   1.891   3.643   8.003
65451SOL    HW198185   1.960   3.672   7.943
65451SOL    HW298186   1.810   3.676   7.964
65452SOL     OW98187   7.853   0.897  10.352
65452SOL    HW198188   7.812   0.907  10.438
65452SOL    HW298189   7.943   0.870  10.372
65453SOL     OW98190   1.510  13.636   7.274
65453SOL    HW198191   1.447  13.613   7.343
65453SOL    HW298192   1.558  13.555   7.258
65454SOL     OW98193  12.900  10.873  12.968
65454SOL    HW198194  12.898  10.953  13.021
65454SOL    HW298195  12.874  10.804  13.028
65455SOL     OW98196  10.608   3.422  14.205
65455SOL    HW198197  10.562   3.344  14.236
65455SOL    HW298198  10.559   3.450  14.128
65456SOL     OW98199   3.153   6.701   4.260
65456SOL    HW198200   3.196   6.619   4.285
65456SOL    HW298201   3.124   6.686   4.170
65457SOL     OW98202  12.024   1.168   1.794
65457SOL    HW198203  12.093   1.228   1.764
65457SOL    HW298204  12.067   1.113   1.859
65458SOL     OW98205   2.439   6.813  12.379
65458SOL    HW198206   2.435   6.770  12.464
65458SOL    HW298207   2.530   6.800  12.351
65459SOL     OW98208   6.842   3.132   1.850
65459SOL    HW198209   6.868   3.217   1.886
65459SOL    HW298210   6.778   3.153   1.782
65460SOL     OW98211   1.415   2.788   6.033
65460SOL    HW198212   1.412   2.699   6.070
65460SOL    HW298213   1.494   2.827   6.072
65461SOL     OW98214   6.597  11.377   4.000
65461SOL    HW198215   6.570  11.385   4.092
65461SOL    HW298216   6.611  11.467   3.971
65462SOL     OW98217  10.426   4.523  11.919
65462SOL    HW198218  10.399   4.437  11.886
65462SOL    HW298219  10.513   4.536  11.882
65463SOL     OW98220  11.117   2.469   3.911
65463SOL    HW198221  11.031   2.459   3.870
65463SOL    HW298222  11.123   2.396   3.973
65464SOL     OW98223   3.286   8.321   0.886
65464SOL    HW198224   3.272   8.412   0.863
65464SOL    HW298225   3.226   8.305   0.960
65465SOL     OW98226  11.943  11.651  12.232
65465SOL    HW198227  11.951  11.562  12.199
65465SOL    HW298228  11.881  11.645  12.305
65466SOL     OW98229   4.771  12.093   1.470
65466SOL    HW198230   4.824  12.172   1.481
65466SOL    HW298231   4.704  12.118   1.405
65467SOL     OW98232   5.843   0.607   6.896
65467SOL    HW198233   5.776   0.673   6.879
65467SOL    HW298234   5.834   0.543   6.825
65468SOL     OW98235   5.594   3.895  13.560
65468SOL    HW198236   5.673   3.946  13.542
65468SOL    HW298237   5.624   3.804  13.557
65469SOL     OW98238   1.605   8.459  14.697
65469SOL    HW198239   1.551   8.501  14.630
65469SOL    HW298240   1.571   8.369  14.703
65470SOL     OW98241  14.545   6.974   2.874
65470SOL    HW198242  14.638   6.971   2.895
65470SOL    HW298243  14.503   6.918   2.939
65471SOL     OW98244  12.632   1.980   6.095
65471SOL    HW198245  12.571   2.052   6.081
65471SOL    HW298246  12.692   1.983   6.021
65472SOL     OW98247  11.534   0.491   8.256
65472SOL    HW198248  11.627   0.493   8.280
65472SOL    HW298249  11.489   0.525   8.333
65473SOL     OW98250  12.150   0.979  14.147
65473SOL    HW198251  12.076   0.924  14.172
65473SOL    HW298252  12.193   1.001  14.230
65474SOL     OW98253  10.247   3.813  13.855
65474SOL    HW198254  10.158   3.778  13.858
65474SOL    HW298255  10.254   3.851  13.767
65475SOL     OW98256  12.481  12.007   2.521
65475SOL    HW198257  12.455  12.071   2.588
65475SOL    HW298258  12.440  12.038   2.440
65476SOL     OW98259  12.051  14.458  10.385
65476SOL    HW198260  12.016  14.394  10.324
65476SOL    HW298261  11.981  14.472  10.449
65477SOL     OW98262   4.403  14.047   5.329
65477SOL    HW198263   4.398  14.012   5.418
65477SOL    HW298264   4.395  13.971   5.272
65478SOL     OW98265   6.436   5.528   8.929
65478SOL    HW198266   6.499   5.565   8.867
65478SOL    HW298267   6.352   5.567   8.903
65479SOL     OW98268  11.356   3.684  13.886
65479SOL    HW198269  11.337   3.598  13.921
65479SOL    HW298270  11.351   3.743  13.961
65480SOL     OW98271   1.841   5.237  13.856
65480SOL    HW198272   1.923   5.203  13.820
65480SOL    HW298273   1.866   5.314  13.907
65481SOL     OW98274   4.221   8.308   7.863
65481SOL    HW198275   4.218   8.401   7.885
65481SOL    HW298276   4.265   8.266   7.937
65482SOL     OW98277   5.547   3.446  11.041
65482SOL    HW198278   5.474   3.495  11.077
65482SOL    HW298279   5.606   3.432  11.115
65483SOL     OW98280  12.217  10.378   5.794
65483SOL    HW198281  12.212  10.302   5.737
65483SOL    HW298282  12.291  10.429   5.761
65484SOL     OW98283   6.661  10.583  12.855
65484SOL    HW198284   6.684  10.591  12.763
65484SOL    HW298285   6.566  10.576  12.856
65485SOL     OW98286  12.719   9.881   4.114
65485SOL    HW198287  12.632   9.892   4.153
65485SOL    HW298288  12.717   9.937   4.036
65486SOL     OW98289  14.231  14.478  14.098
65486SOL    HW198290  14.234  14.391  14.057
65486SOL    HW298291  14.185  14.464  14.181
65487SOL     OW98292   8.064   0.009   1.012
65487SOL    HW198293   8.098  14.803   1.048
65487SOL    HW298294   8.024  14.860   0.929
65488SOL     OW98295  10.768  10.398  12.337
65488SOL    HW198296  10.769  10.396  12.432
65488SOL    HW298297  10.797  10.486  12.314
65489SOL     OW98298  11.192   9.372   0.392
65489SOL    HW198299  11.200   9.282   0.359
65489SOL    HW298300  11.275   9.413   0.367
65490SOL     OW98301   4.924   3.937   7.197
65490SOL    HW198302   4.952   3.954   7.108
65490SOL    HW298303   4.996   3.887   7.236
65491SOL     OW98304   5.024  14.422  11.235
65491SOL    HW198305   4.956  14.457  11.177
65491SOL    HW298306   5.106  14.446  11.192
65492SOL     OW98307   7.882   2.919   2.740
65492SOL    HW198308   7.811   2.979   2.717
65492SOL    HW298309   7.838   2.842   2.777
65493SOL     OW98310  10.787   0.123   6.642
65493SOL    HW198311  10.837   0.203   6.627
65493SOL    HW298312  10.805   0.101   6.733
65494SOL     OW98313   2.631  12.227  13.771
65494SOL    HW198314   2.630  12.142  13.816
65494SOL    HW298315   2.603  12.208  13.682
65495SOL     OW98316   6.303   7.431   4.826
65495SOL    HW198317   6.210   7.453   4.835
65495SOL    HW298318   6.329   7.401   4.913
65496SOL     OW98319  14.096   8.622   8.075
65496SOL    HW198320  14.124   8.704   8.033
65496SOL    HW298321  14.128   8.553   8.016
65497SOL     OW98322   8.503   6.448   5.259
65497SOL    HW198323   8.474   6.462   5.169
65497SOL    HW298324   8.537   6.533   5.287
65498SOL     OW98325   4.057  12.783  14.848
65498SOL    HW198326   4.109  12.749  14.775
65498SOL    HW298327   4.107  12.759   0.050
65499SOL     OW98328   0.280   7.747   1.665
65499SOL    HW198329   0.188   7.724   1.683
65499SOL    HW298330   0.279   7.843   1.661
65500SOL     OW98331   8.074   1.006   4.603
65500SOL    HW198332   8.091   1.089   4.648
65500SOL    HW298333   8.161   0.971   4.583
65501SOL     OW98334  13.914  13.976  14.505
65501SOL    HW198335  14.003  13.957  14.535
65501SOL    HW298336  13.882  14.040  14.569
65502SOL     OW98337  11.954   0.923  12.455
65502SOL    HW198338  11.959   0.896  12.547
65502SOL    HW298339  11.895   0.860  12.414
65503SOL     OW98340   1.480   6.954  12.877
65503SOL    HW198341   1.535   7.033  12.875
65503SOL    HW298342   1.477   6.925  12.785
65504SOL     OW98343  10.742  12.312   6.038
65504SOL    HW198344  10.709  12.370   6.107
65504SOL    HW298345  10.677  12.243   6.031
65505SOL     OW98346  11.257  13.619  12.708
65505SOL    HW198347  11.321  13.591  12.774
65505SOL    HW298348  11.310  13.658  12.638
65506SOL     OW98349   3.563  12.427  11.721
65506SOL    HW198350   3.583  12.371  11.647
65506SOL    HW298351   3.526  12.368  11.787
65507SOL     OW98352   4.654   6.104  11.976
65507SOL    HW198353   4.676   6.040  12.044
65507SOL    HW298354   4.588   6.160  12.017
65508SOL     OW98355   6.321   5.020   8.136
65508SOL    HW198356   6.260   5.093   8.146
65508SOL    HW298357   6.407   5.058   8.152
65509SOL     OW98358  12.327   1.360   8.954
65509SOL    HW198359  12.411   1.380   8.995
65509SOL    HW298360  12.263   1.370   9.025
65510SOL     OW98361  10.715   0.765   6.830
65510SOL    HW198362  10.731   0.795   6.919
65510SOL    HW298363  10.787   0.801   6.778
65511SOL     OW98364   1.763   1.142  12.674
65511SOL    HW198365   1.848   1.182  12.656
65511SOL    HW298366   1.757   1.070  12.612
65512SOL     OW98367   3.843   1.277   8.535
65512SOL    HW198368   3.835   1.251   8.443
65512SOL    HW298369   3.756   1.260   8.572
65513SOL     OW98370   8.592   9.723   8.110
65513SOL    HW198371   8.609   9.700   8.202
65513SOL    HW298372   8.619   9.646   8.061
65514SOL     OW98373   5.495   7.675   2.004
65514SOL    HW198374   5.438   7.752   2.009
65514SOL    HW298375   5.450   7.616   1.943
65515SOL     OW98376  14.478  13.589   7.526
65515SOL    HW198377  14.488  13.539   7.606
65515SOL    HW298378  14.468  13.523   7.457
65516SOL     OW98379  14.457   2.874   3.828
65516SOL    HW198380  14.484   2.918   3.909
65516SOL    HW298381  14.374   2.832   3.851
65517SOL     OW98382   5.190   3.395   9.638
65517SOL    HW198383   5.187   3.351   9.553
65517SOL    HW298384   5.148   3.332   9.698
65518SOL     OW98385   2.918   2.269   5.096
65518SOL    HW198386   2.832   2.310   5.080
65518SOL    HW298387   2.898   2.192   5.149
65519SOL     OW98388  14.377  10.416  14.230
65519SOL    HW198389  14.375  10.503  14.188
65519SOL    HW298390  14.284  10.393  14.240
65520SOL     OW98391   8.912  13.581   9.105
65520SOL    HW198392   8.924  13.510   9.168
65520SOL    HW298393   8.925  13.661   9.156
65521SOL     OW98394  11.354   7.970  12.232
65521SOL    HW198395  11.319   8.056  12.256
65521SOL    HW298396  11.327   7.912  12.303
65522SOL     OW98397   1.136  13.183  14.007
65522SOL    HW198398   1.082  13.230  14.070
65522SOL    HW298399   1.220  13.228  14.008
65523SOL     OW98400   2.609   5.573   9.526
65523SOL    HW198401   2.668   5.570   9.451
65523SOL    HW298402   2.626   5.659   9.566
65524SOL     OW98403  10.150   5.364   2.387
65524SOL    HW198404  10.186   5.452   2.399
65524SOL    HW298405  10.168   5.320   2.470
65525SOL     OW98406   3.246  10.167   9.882
65525SOL    HW198407   3.322  10.198   9.932
65525SOL    HW298408   3.269  10.186   9.791
65526SOL     OW98409   1.211  12.684  12.113
65526SOL    HW198410   1.303  12.710  12.127
65526SOL    HW298411   1.209  12.648  12.025
65527SOL     OW98412  10.052   1.779   1.295
65527SOL    HW198413   9.964   1.755   1.324
65527SOL    HW298414  10.102   1.792   1.375
65528SOL     OW98415   6.076   4.652  14.302
65528SOL    HW198416   6.165   4.676  14.278
65528SOL    HW298417   6.043   4.601  14.228
65529SOL     OW98418   8.231   0.008  13.618
65529SOL    HW198419   8.246   0.067  13.544
65529SOL    HW298420   8.302   0.026  13.679
65530SOL     OW98421   4.728   3.016  13.042
65530SOL    HW198422   4.691   2.970  13.117
65530SOL    HW298423   4.785   3.083  13.080
65531SOL     OW98424  14.359  13.830   5.776
65531SOL    HW198425  14.290  13.797   5.719
65531SOL    HW298426  14.402  13.899   5.725
65532SOL     OW98427   4.359   8.644  10.945
65532SOL    HW198428   4.400   8.559  10.961
65532SOL    HW298429   4.291   8.626  10.880
65533SOL     OW98430  13.527   4.483   9.720
65533SOL    HW198431  13.477   4.411   9.758
65533SOL    HW298432  13.603   4.493   9.778
65534SOL     OW98433   4.455   4.281   4.837
65534SOL    HW198434   4.496   4.239   4.912
65534SOL    HW298435   4.524   4.288   4.772
65535SOL     OW98436   9.569   9.508   1.662
65535SOL    HW198437   9.560   9.559   1.742
65535SOL    HW298438   9.615   9.428   1.689
65536SOL     OW98439   7.356  11.040   7.810
65536SOL    HW198440   7.399  11.119   7.843
65536SOL    HW298441   7.268  11.044   7.847
65537SOL     OW98442   3.830   7.614   5.417
65537SOL    HW198443   3.895   7.639   5.483
65537SOL    HW298444   3.822   7.519   5.426
65538SOL     OW98445   2.292   4.811   6.272
65538SOL    HW198446   2.221   4.814   6.208
65538SOL    HW298447   2.367   4.848   6.226
65539SOL     OW98448  12.360   5.414   6.802
65539SOL    HW198449  12.390   5.390   6.890
65539SOL    HW298450  12.373   5.508   6.796
65540SOL     OW98451  13.273   8.773  13.878
65540SOL    HW198452  13.241   8.810  13.960
65540SOL    HW298453  13.197   8.728  13.841
65541SOL     OW98454  14.726   4.928  10.607
65541SOL    HW198455  14.735   4.873  10.529
65541SOL    HW298456  14.801   4.986  10.604
65542SOL     OW98457  14.846   2.031   7.363
65542SOL    HW198458  14.845   2.039   7.459
65542SOL    HW298459  14.775   1.970   7.343
65543SOL     OW98460  10.532   6.886   7.301
65543SOL    HW198461  10.461   6.947   7.282
65543SOL    HW298462  10.584   6.884   7.220
65544SOL     OW98463   5.674   3.633  13.556
65544SOL    HW198464   5.643   3.631  13.465
65544SOL    HW298465   5.623   3.565  13.601
65545SOL     OW98466   0.583  11.590   8.345
65545SOL    HW198467   0.675  11.614   8.332
65545SOL    HW298468   0.549  11.577   8.256
65546SOL     OW98469   4.022   6.872  10.254
65546SOL    HW198470   4.028   6.918  10.338
65546SOL    HW298471   4.049   6.936  10.189
65547SOL     OW98472   2.720  12.954  13.392
65547SOL    HW198473   2.646  13.009  13.419
65547SOL    HW298474   2.727  12.968  13.298
65548SOL     OW98475   4.806   8.841   2.024
65548SOL    HW198476   4.720   8.880   2.013
65548SOL    HW298477   4.806   8.764   1.967
65549SOL     OW98478   5.186  14.733  10.823
65549SOL    HW198479   5.250  14.663  10.833
65549SOL    HW298480   5.235  14.806  10.786
65550SOL     OW98481   8.883   9.162  12.000
65550SOL    HW198482   8.911   9.071  11.995
65550SOL    HW298483   8.855   9.174  12.090
65551SOL     OW98484  11.202  11.598  13.389
65551SOL    HW198485  11.235  11.683  13.361
65551SOL    HW298486  11.185  11.609  13.483
65552SOL     OW98487   7.199  12.963   3.149
65552SOL    HW198488   7.171  12.967   3.241
65552SOL    HW298489   7.160  13.041   3.109
65553SOL     OW98490  11.481  10.129   0.094
65553SOL    HW198491  11.416  10.082   0.146
65553SOL    HW298492  11.470  10.095   0.005
65554SOL     OW98493  10.834   4.096   5.869
65554SOL    HW198494  10.889   4.152   5.814
65554SOL    HW298495  10.793   4.036   5.807
65555SOL     OW98496  12.388  14.647  10.816
65555SOL    HW198497  12.479  14.667  10.795
65555SOL    HW298498  12.390  14.622  10.908
65556SOL     OW98499  11.267   9.702   0.087
65556SOL    HW198500  11.284   9.654   0.006
65556SOL    HW298501  11.189   9.661   0.124
65557SOL     OW98502  13.069   4.241   3.784
65557SOL    HW198503  13.003   4.290   3.833
65557SOL    HW298504  13.104   4.178   3.847
65558SOL     OW98505   6.898  13.566   5.737
65558SOL    HW198506   6.876  13.510   5.812
65558SOL    HW298507   6.815  13.605   5.711
65559SOL     OW98508   8.294   6.040   6.650
65559SOL    HW198509   8.253   6.047   6.564
65559SOL    HW298510   8.388   6.036   6.632
65560SOL     OW98511   5.571  12.815   6.000
65560SOL    HW198512   5.656  12.859   5.999
65560SOL    HW298513   5.551  12.801   5.907
65561SOL     OW98514   7.513   1.187   7.839
65561SOL    HW198515   7.430   1.147   7.865
65561SOL    HW298516   7.580   1.138   7.887
65562SOL     OW98517   4.057  10.136  12.848
65562SOL    HW198518   3.989  10.088  12.801
65562SOL    HW298519   4.131  10.076  12.851
65563SOL     OW98520   4.449   8.161   3.075
65563SOL    HW198521   4.444   8.257   3.073
65563SOL    HW298522   4.499   8.139   2.996
65564SOL     OW98523   4.868   6.428  11.073
65564SOL    HW198524   4.884   6.339  11.044
65564SOL    HW298525   4.830   6.472  10.997
65565SOL     OW98526  13.116  12.323  11.927
65565SOL    HW198527  13.116  12.333  12.023
65565SOL    HW298528  13.127  12.413  11.894
65566SOL     OW98529   5.733   6.629   0.557
65566SOL    HW198530   5.774   6.543   0.564
65566SOL    HW298531   5.644   6.610   0.528
65567SOL     OW98532  11.924   7.556   6.987
65567SOL    HW198533  11.898   7.636   7.032
65567SOL    HW298534  11.842   7.509   6.970
65568SOL     OW98535  10.798   9.294  13.968
65568SOL    HW198536  10.749   9.229  13.916
65568SOL    HW298537  10.780   9.378  13.925
65569SOL     OW98538  10.574   7.053   6.166
65569SOL    HW198539  10.595   7.047   6.260
65569SOL    HW298540  10.496   7.108   6.163
65570SOL     OW98541   3.114  10.084  13.676
65570SOL    HW198542   3.139  10.177  13.681
65570SOL    HW298543   3.194  10.038  13.652
65571SOL     OW98544  10.514   8.296   8.586
65571SOL    HW198545  10.565   8.307   8.667
65571SOL    HW298546  10.567   8.237   8.533
65572SOL     OW98547   1.837   5.446  14.035
65572SOL    HW198548   1.747   5.481  14.039
65572SOL    HW298549   1.854   5.415  14.124
65573SOL     OW98550   0.664  12.082   1.345
65573SOL    HW198551   0.577  12.081   1.385
65573SOL    HW298552   0.649  12.053   1.255
65574SOL     OW98553   0.142   9.865   1.002
65574SOL    HW198554   0.075   9.927   1.030
65574SOL    HW298555   0.093   9.784   0.983
65575SOL     OW98556  12.370  12.855  10.956
65575SOL    HW198557  12.334  12.767  10.947
65575SOL    HW298558  12.429  12.849  11.032
65576SOL     OW98559   9.787   9.072  13.540
65576SOL    HW198560   9.878   9.055  13.517
65576SOL    HW298561   9.779   9.167  13.537
65577SOL     OW98562   4.064  10.895   4.905
65577SOL    HW198563   4.133  10.890   4.971
65577SOL    HW298564   4.002  10.960   4.940
65578SOL     OW98565   6.658  12.171  13.597
65578SOL    HW198566   6.745  12.132  13.605
65578SOL    HW298567   6.670  12.260  13.632
65579SOL     OW98568   1.431  13.812   5.796
65579SOL    HW198569   1.524  13.814   5.816
65579SOL    HW298570   1.426  13.782   5.705
65580SOL     OW98571  12.745   5.746   9.065
65580SOL    HW198572  12.694   5.729   9.145
65580SOL    HW298573  12.678   5.766   8.999
65581SOL     OW98574  10.245   0.610  10.316
65581SOL    HW198575  10.159   0.621  10.275
65581SOL    HW298576  10.261   0.516  10.311
65582SOL     OW98577  14.159   9.977   6.664
65582SOL    HW198578  14.230  10.020   6.713
65582SOL    HW298579  14.147  10.033   6.586
65583SOL     OW98580   2.232  14.048   1.542
65583SOL    HW198581   2.231  14.089   1.628
65583SOL    HW298582   2.156  14.086   1.497
65584SOL     OW98583   1.769  14.610   0.362
65584SOL    HW198584   1.772  14.515   0.378
65584SOL    HW298585   1.861  14.634   0.346
65585SOL     OW98586  12.118  13.749   8.439
65585SOL    HW198587  12.027  13.719   8.430
65585SOL    HW298588  12.130  13.809   8.365
65586SOL     OW98589   0.413   3.658   8.346
65586SOL    HW198590   0.413   3.754   8.337
65586SOL    HW298591   0.444   3.643   8.435
65587SOL     OW98592   3.884   9.819   9.386
65587SOL    HW198593   3.860   9.726   9.387
65587SOL    HW298594   3.848   9.853   9.304
65588SOL     OW98595  13.465   6.242   4.745
65588SOL    HW198596  13.486   6.232   4.652
65588SOL    HW298597  13.547   6.271   4.785
65589SOL     OW98598   3.754  11.915   6.210
65589SOL    HW198599   3.660  11.931   6.220
65589SOL    HW298600   3.765  11.822   6.230
65590SOL     OW98601  10.313   0.223   0.585
65590SOL    HW198602  10.278   0.281   0.653
65590SOL    HW298603  10.331   0.281   0.511
65591SOL     OW98604  12.170   7.561   5.531
65591SOL    HW198605  12.193   7.638   5.480
65591SOL    HW298606  12.248   7.505   5.528
65592SOL     OW98607   7.234   6.884   0.665
65592SOL    HW198608   7.150   6.914   0.629
65592SOL    HW298609   7.227   6.903   0.758
65593SOL     OW98610   0.742  11.126   4.522
65593SOL    HW198611   0.767  11.046   4.477
65593SOL    HW298612   0.714  11.096   4.609
65594SOL     OW98613   9.166   7.160   5.796
65594SOL    HW198614   9.243   7.199   5.755
65594SOL    HW298615   9.150   7.214   5.873
65595SOL     OW98616   8.549  11.510   1.619
65595SOL    HW198617   8.563  11.599   1.586
65595SOL    HW298618   8.634  11.467   1.610
65596SOL     OW98619   6.314   2.882  13.021
65596SOL    HW198620   6.307   2.966  12.974
65596SOL    HW298621   6.406   2.875  13.044
65597SOL     OW98622  11.518  12.977   0.298
65597SOL    HW198623  11.517  12.961   0.203
65597SOL    HW298624  11.569  12.905   0.334
65598SOL     OW98625   6.482  14.366  11.817
65598SOL    HW198626   6.390  14.356  11.792
65598SOL    HW298627   6.522  14.414  11.744
65599SOL     OW98628   4.990  11.259   0.863
65599SOL    HW198629   5.080  11.226   0.855
65599SOL    HW298630   4.942  11.214   0.793
65600SOL     OW98631  12.560   7.952   0.440
65600SOL    HW198632  12.614   7.878   0.467
65600SOL    HW298633  12.506   7.918   0.368
65601SOL     OW98634   1.561   2.008   1.782
65601SOL    HW198635   1.629   1.959   1.735
65601SOL    HW298636   1.538   1.953   1.857
65602SOL     OW98637  11.110   4.070  12.425
65602SOL    HW198638  11.111   4.165  12.419
65602SOL    HW298639  11.018   4.047  12.426
65603SOL     OW98640   6.801  11.183   1.440
65603SOL    HW198641   6.795  11.182   1.536
65603SOL    HW298642   6.859  11.109   1.419
65604SOL     OW98643  12.615   0.520  12.071
65604SOL    HW198644  12.636   0.541  12.162
65604SOL    HW298645  12.700   0.495  12.033
65605SOL     OW98646   8.872  10.740  14.627
65605SOL    HW198647   8.878  10.669  14.691
65605SOL    HW298648   8.863  10.820  14.680
65606SOL     OW98649  10.662  11.923  10.138
65606SOL    HW198650  10.599  11.991  10.159
65606SOL    HW298651  10.610  11.843  10.131
65607SOL     OW98652  10.813  11.842   5.980
65607SOL    HW198653  10.888  11.896   5.954
65607SOL    HW298654  10.784  11.800   5.899
65608SOL     OW98655   5.884  12.229   5.067
65608SOL    HW198656   5.797  12.189   5.071
65608SOL    HW298657   5.944  12.156   5.082
65609SOL     OW98658   2.916  13.917  13.053
65609SOL    HW198659   2.929  13.939  12.961
65609SOL    HW298660   2.824  13.938  13.070
65610SOL     OW98661  11.115   1.562   0.387
65610SOL    HW198662  11.069   1.538   0.306
65610SOL    HW298663  11.165   1.641   0.363
65611SOL     OW98664   8.779   4.695  13.626
65611SOL    HW198665   8.743   4.770  13.579
65611SOL    HW298666   8.763   4.621  13.568
65612SOL     OW98667   1.262   2.407   5.164
65612SOL    HW198668   1.343   2.362   5.136
65612SOL    HW298669   1.223   2.439   5.082
65613SOL     OW98670   0.946   6.856   9.691
65613SOL    HW198671   0.865   6.899   9.720
65613SOL    HW298672   0.998   6.927   9.652
65614SOL     OW98673   2.976  12.017   4.116
65614SOL    HW198674   2.996  12.101   4.157
65614SOL    HW298675   3.061  11.974   4.106
65615SOL     OW98676   2.768   8.891   2.621
65615SOL    HW198677   2.818   8.823   2.576
65615SOL    HW298678   2.695   8.844   2.663
65616SOL     OW98679   2.858  12.426   5.238
65616SOL    HW198680   2.836  12.441   5.146
65616SOL    HW298681   2.846  12.331   5.250
65617SOL     OW98682   5.505   5.713   7.364
65617SOL    HW198683   5.411   5.705   7.351
65617SOL    HW298684   5.543   5.644   7.311
65618SOL     OW98685   5.145   4.028   3.514
65618SOL    HW198686   5.129   4.054   3.423
65618SOL    HW298687   5.141   3.933   3.513
65619SOL     OW98688  11.275   5.524  13.814
65619SOL    HW198689  11.283   5.551  13.906
65619SOL    HW298690  11.252   5.431  13.819
65620SOL     OW98691   3.142  11.645   5.901
65620SOL    HW198692   3.112  11.636   5.992
65620SOL    HW298693   3.065  11.677   5.854
65621SOL     OW98694   4.862  11.905   3.864
65621SOL    HW198695   4.903  11.905   3.777
65621SOL    HW298696   4.844  11.813   3.882
65622SOL     OW98697   2.757   4.969   4.693
65622SOL    HW198698   2.807   4.946   4.771
65622SOL    HW298699   2.666   4.959   4.719
65623SOL     OW98700  13.989  12.858   2.453
65623SOL    HW198701  14.066  12.902   2.418
65623SOL    HW298702  13.915  12.904   2.412
65624SOL     OW98703   4.396  11.632  12.019
65624SOL    HW198704   4.350  11.683  12.086
65624SOL    HW298705   4.482  11.616  12.056
65625SOL     OW98706  10.392   8.888  11.709
65625SOL    HW198707  10.466   8.944  11.734
65625SOL    HW298708  10.357   8.856  11.792
65626SOL     OW98709   0.438   8.383  14.212
65626SOL    HW198710   0.468   8.453  14.270
65626SOL    HW298711   0.519   8.344  14.178
65627SOL     OW98712   7.552   9.072   5.967
65627SOL    HW198713   7.527   9.005   6.031
65627SOL    HW298714   7.488   9.142   5.980
65628SOL     OW98715   5.358   8.685   4.377
65628SOL    HW198716   5.395   8.635   4.449
65628SOL    HW298717   5.433   8.723   4.332
65629SOL     OW98718  10.097   8.320  12.502
65629SOL    HW198719  10.037   8.247  12.519
65629SOL    HW298720  10.047   8.379  12.445
65630SOL     OW98721   8.340  12.668   8.051
65630SOL    HW198722   8.397  12.653   8.126
65630SOL    HW298723   8.329  12.581   8.011
65631SOL     OW98724   5.511  10.365  13.228
65631SOL    HW198725   5.436  10.380  13.171
65631SOL    HW298726   5.486  10.290  13.282
65632SOL     OW98727  11.562   9.364  11.562
65632SOL    HW198728  11.616   9.423  11.510
65632SOL    HW298729  11.479   9.359  11.515
65633SOL     OW98730   5.878   5.736   8.618
65633SOL    HW198731   5.959   5.703   8.580
65633SOL    HW298732   5.862   5.679   8.693
65634SOL     OW98733   9.744  11.201   3.722
65634SOL    HW198734   9.752  11.127   3.662
65634SOL    HW298735   9.818  11.258   3.700
65635SOL     OW98736   5.038   1.043   9.770
65635SOL    HW198737   5.003   0.963   9.731
65635SOL    HW298738   5.132   1.037   9.757
65636SOL     OW98739  13.572   8.334   2.520
65636SOL    HW198740  13.594   8.339   2.427
65636SOL    HW298741  13.490   8.285   2.523
65637SOL     OW98742   5.524  14.798   0.747
65637SOL    HW198743   5.438  14.820   0.709
65637SOL    HW298744   5.580  14.872   0.723
65638SOL     OW98745   1.561  11.149  13.158
65638SOL    HW198746   1.531  11.068  13.116
65638SOL    HW298747   1.655  11.135  13.172
65639SOL     OW98748   7.018  12.396   1.982
65639SOL    HW198749   7.079  12.404   2.055
65639SOL    HW298750   7.012  12.302   1.966
65640SOL     OW98751   2.439  13.549  13.454
65640SOL    HW198752   2.509  13.508  13.404
65640SOL    HW298753   2.470  13.547  13.544
65641SOL     OW98754   1.266  10.559  10.453
65641SOL    HW198755   1.312  10.477  10.472
65641SOL    HW298756   1.184  10.531  10.410
65642SOL     OW98757   3.047   7.326   9.636
65642SOL    HW198758   3.116   7.336   9.702
65642SOL    HW298759   3.023   7.415   9.612
65643SOL     OW98760   5.831  13.032  10.218
65643SOL    HW198761   5.903  13.056  10.160
65643SOL    HW298762   5.770  12.985  10.162
65644SOL     OW98763   7.408  12.044  13.536
65644SOL    HW198764   7.332  11.993  13.509
65644SOL    HW298765   7.398  12.128  13.490
65645SOL     OW98766   1.279   6.066  11.382
65645SOL    HW198767   1.240   6.008  11.316
65645SOL    HW298768   1.337   6.124  11.332
65646SOL     OW98769   0.946   2.926   4.359
65646SOL    HW198770   0.934   3.019   4.341
65646SOL    HW298771   0.865   2.885   4.327
65647SOL     OW98772   7.018   8.322   7.905
65647SOL    HW198773   6.961   8.352   7.975
65647SOL    HW298774   7.013   8.226   7.908
65648SOL     OW98775   8.223   1.038   8.160
65648SOL    HW198776   8.291   1.027   8.227
65648SOL    HW298777   8.268   1.019   8.077
65649SOL     OW98778  10.423  12.410  11.524
65649SOL    HW198779  10.409  12.408  11.430
65649SOL    HW298780  10.337  12.431  11.561
65650SOL     OW98781  11.838  12.220   9.604
65650SOL    HW198782  11.798  12.278   9.669
65650SOL    HW298783  11.833  12.269   9.522
65651SOL     OW98784   0.333  11.115   2.746
65651SOL    HW198785   0.281  11.061   2.686
65651SOL    HW298786   0.374  11.180   2.690
65652SOL     OW98787   0.175  11.246  11.057
65652SOL    HW198788   0.162  11.151  11.060
65652SOL    HW298789   0.178  11.267  10.964
65653SOL     OW98790   3.194   4.389   9.785
65653SOL    HW198791   3.202   4.298   9.756
65653SOL    HW298792   3.200   4.440   9.705
65654SOL     OW98793   9.867   0.591   3.539
65654SOL    HW198794   9.863   0.671   3.486
65654SOL    HW298795   9.824   0.615   3.621
65655SOL     OW98796   3.773   1.858   0.498
65655SOL    HW198797   3.738   1.928   0.442
65655SOL    HW298798   3.855   1.833   0.457
65656SOL     OW98799   1.393  14.467   7.263
65656SOL    HW198800   1.322  14.436   7.321
65656SOL    HW298801   1.349  14.522   7.198
65657SOL     OW98802  13.545   5.258   5.328
65657SOL    HW198803  13.482   5.302   5.269
65657SOL    HW298804  13.630   5.295   5.304
65658SOL     OW98805  11.524  12.211   1.405
65658SOL    HW198806  11.581  12.224   1.329
65658SOL    HW298807  11.551  12.127   1.441
65659SOL     OW98808   4.759   2.357   3.041
65659SOL    HW198809   4.755   2.441   3.086
65659SOL    HW298810   4.705   2.299   3.095
65660SOL     OW98811   3.508  13.004   1.459
65660SOL    HW198812   3.601  12.996   1.443
65660SOL    HW298813   3.474  13.054   1.384
65661SOL     OW98814  11.184  11.293  13.363
65661SOL    HW198815  11.105  11.257  13.322
65661SOL    HW298816  11.162  11.384  13.384
65662SOL     OW98817   6.276  13.865   7.295
65662SOL    HW198818   6.265  13.943   7.349
65662SOL    HW298819   6.188  13.846   7.262
65663SOL     OW98820  13.976  12.303  11.473
65663SOL    HW198821  13.978  12.381  11.417
65663SOL    HW298822  13.884  12.275  11.472
65664SOL     OW98823   4.205   1.963  11.961
65664SOL    HW198824   4.248   2.046  11.981
65664SOL    HW298825   4.254   1.928  11.886
65665SOL     OW98826   2.610   9.548   6.180
65665SOL    HW198827   2.604   9.470   6.235
65665SOL    HW298828   2.525   9.592   6.191
65666SOL     OW98829  10.644  14.685  12.381
65666SOL    HW198830  10.575  14.691  12.314
65666SOL    HW298831  10.679  14.597  12.371
65667SOL     OW98832   3.703  14.122   5.562
65667SOL    HW198833   3.654  14.199   5.590
65667SOL    HW298834   3.722  14.074   5.643
65668SOL     OW98835   7.957  12.397   9.253
65668SOL    HW198836   7.974  12.460   9.323
65668SOL    HW298837   8.009  12.320   9.276
65669SOL     OW98838   6.138  10.220   9.560
65669SOL    HW198839   6.076  10.252   9.625
65669SOL    HW298840   6.118  10.268   9.480
65670SOL     OW98841  11.446  11.013  14.230
65670SOL    HW198842  11.379  11.054  14.176
65670SOL    HW298843  11.414  11.023  14.320
65671SOL     OW98844   3.395   8.324   7.970
65671SOL    HW198845   3.403   8.402   8.025
65671SOL    HW298846   3.472   8.327   7.913
65672SOL     OW98847   8.675   8.312   5.802
65672SOL    HW198848   8.735   8.387   5.800
65672SOL    HW298849   8.723   8.241   5.761
65673SOL     OW98850   9.168   3.270   5.970
65673SOL    HW198851   9.237   3.215   5.932
65673SOL    HW298852   9.088   3.241   5.927
65674SOL     OW98853   7.945   8.669   2.857
65674SOL    HW198854   8.013   8.655   2.923
65674SOL    HW298855   7.914   8.581   2.836
65675SOL     OW98856   0.086   4.240   2.786
65675SOL    HW198857   0.180   4.252   2.790
65675SOL    HW298858   0.071   4.192   2.705
65676SOL     OW98859   4.187   4.664  11.902
65676SOL    HW198860   4.157   4.754  11.889
65676SOL    HW298861   4.119   4.623  11.956
65677SOL     OW98862   1.227  14.595   5.306
65677SOL    HW198863   1.300  14.591   5.244
65677SOL    HW298864   1.151  14.567   5.256
65678SOL     OW98865   1.439  10.992   4.365
65678SOL    HW198866   1.464  11.073   4.409
65678SOL    HW298867   1.390  11.021   4.288
65679SOL     OW98868   0.974   7.642   5.850
65679SOL    HW198869   0.902   7.586   5.820
65679SOL    HW298870   0.962   7.723   5.801
65680SOL     OW98871  12.720   7.150   9.908
65680SOL    HW198872  12.665   7.098   9.966
65680SOL    HW298873  12.703   7.114   9.821
65681SOL     OW98874   0.957   2.626  11.210
65681SOL    HW198875   0.983   2.553  11.266
65681SOL    HW298876   0.952   2.701  11.270
65682SOL     OW98877  10.220   0.199   8.147
65682SOL    HW198878  10.152   0.267   8.139
65682SOL    HW298879  10.233   0.188   8.241
65683SOL     OW98880   8.939  14.055   0.670
65683SOL    HW198881   8.962  14.096   0.754
65683SOL    HW298882   8.845  14.037   0.677
65684SOL     OW98883   4.813   5.793   4.909
65684SOL    HW198884   4.758   5.789   4.831
65684SOL    HW298885   4.805   5.884   4.939
65685SOL     OW98886  11.469   1.335   2.284
65685SOL    HW198887  11.428   1.279   2.218
65685SOL    HW298888  11.403   1.403   2.301
65686SOL     OW98889  10.552   3.094   5.292
65686SOL    HW198890  10.602   3.096   5.373
65686SOL    HW298891  10.521   3.184   5.281
65687SOL     OW98892  14.060   5.451  12.153
65687SOL    HW198893  14.119   5.404  12.212
65687SOL    HW298894  14.029   5.383  12.092
65688SOL     OW98895   9.570   9.386  13.339
65688SOL    HW198896   9.502   9.324  13.368
65688SOL    HW298897   9.521   9.466  13.318
65689SOL     OW98898   3.947  13.223   0.977
65689SOL    HW198899   3.925  13.205   0.885
65689SOL    HW298900   3.937  13.138   1.021
65690SOL     OW98901  14.076   4.892   5.088
65690SOL    HW198902  14.061   4.947   5.011
65690SOL    HW298903  14.138   4.941   5.141
65691SOL     OW98904  11.015   0.497   2.878
65691SOL    HW198905  11.038   0.415   2.920
65691SOL    HW298906  10.988   0.554   2.950
65692SOL     OW98907   4.219  12.522   6.004
65692SOL    HW198908   4.260  12.440   5.975
65692SOL    HW298909   4.162  12.548   5.932
65693SOL     OW98910   4.378   9.162   2.764
65693SOL    HW198911   4.426   9.205   2.834
65693SOL    HW298912   4.292   9.144   2.801
65694SOL     OW98913   0.046  13.963   7.065
65694SOL    HW198914   0.044  13.903   7.140
65694SOL    HW298915  14.830  13.985   7.050
65695SOL     OW98916  11.849  11.442   9.071
65695SOL    HW198917  11.895  11.452   8.987
65695SOL    HW298918  11.762  11.480   9.055
65696SOL     OW98919  14.340   5.250   4.667
65696SOL    HW198920  14.263   5.308   4.664
65696SOL    HW298921  14.349   5.227   4.760
65697SOL     OW98922   9.470  11.916   7.672
65697SOL    HW198923   9.481  11.902   7.765
65697SOL    HW298924   9.538  11.863   7.631
65698SOL     OW98925  13.561   6.931  11.426
65698SOL    HW198926  13.571   6.838  11.402
65698SOL    HW298927  13.467   6.947  11.417
65699SOL     OW98928   0.782  13.249  12.432
65699SOL    HW198929   0.805  13.316  12.497
65699SOL    HW298930   0.716  13.195  12.475
65700SOL     OW98931   4.499  13.588   5.592
65700SOL    HW198932   4.417  13.625   5.560
65700SOL    HW298933   4.542  13.661   5.637
65701SOL     OW98934  13.643   7.087   5.239
65701SOL    HW198935  13.702   7.162   5.246
65701SOL    HW298936  13.555   7.125   5.233
65702SOL     OW98937   5.909   1.949   9.744
65702SOL    HW198938   5.833   2.006   9.756
65702SOL    HW298939   5.935   1.926   9.833
65703SOL     OW98940   2.948   9.606   8.939
65703SOL    HW198941   2.902   9.684   8.908
65703SOL    HW298942   2.889   9.566   9.002
65704SOL     OW98943  12.855   5.644  11.583
65704SOL    HW198944  12.785   5.709  11.591
65704SOL    HW298945  12.936   5.694  11.593
65705SOL     OW98946  14.003   1.148   9.456
65705SOL    HW198947  14.057   1.227   9.466
65705SOL    HW298948  13.922   1.179   9.416
65706SOL     OW98949  12.931   8.634  11.437
65706SOL    HW198950  12.941   8.683  11.519
65706SOL    HW298951  12.883   8.694  11.380
65707SOL     OW98952   3.974  14.686  13.376
65707SOL    HW198953   4.003  14.767  13.335
65707SOL    HW298954   3.940  14.633  13.304
65708SOL     OW98955   7.545  11.832   1.733
65708SOL    HW198956   7.613  11.885   1.691
65708SOL    HW298957   7.514  11.774   1.664
65709SOL     OW98958   6.759   9.460  12.297
65709SOL    HW198959   6.760   9.544  12.343
65709SOL    HW298960   6.674   9.422  12.320
65710SOL     OW98961  11.556  12.105   7.715
65710SOL    HW198962  11.510  12.188   7.728
65710SOL    HW298963  11.533  12.053   7.792
65711SOL     OW98964   4.971  14.656  10.497
65711SOL    HW198965   4.973  14.680  10.405
65711SOL    HW298966   5.058  14.619  10.514
65712SOL     OW98967   4.580   0.479   4.476
65712SOL    HW198968   4.589   0.424   4.399
65712SOL    HW298969   4.575   0.417   4.549
65713SOL     OW98970   7.688  12.614   2.347
65713SOL    HW198971   7.693  12.575   2.259
65713SOL    HW298972   7.726  12.701   2.336
65714SOL     OW98973  10.046   6.930  11.517
65714SOL    HW198974   9.965   6.949  11.469
65714SOL    HW298975  10.017   6.888  11.598
65715SOL     OW98976  10.096   8.819  13.781
65715SOL    HW198977  10.166   8.850  13.839
65715SOL    HW298978  10.017   8.823  13.834
65716SOL     OW98979   0.159  12.976  11.504
65716SOL    HW198980   0.081  13.028  11.522
65716SOL    HW298981   0.160  12.968  11.408
65717SOL     OW98982   6.665   0.262  14.167
65717SOL    HW198983   6.736   0.274  14.104
65717SOL    HW298984   6.678   0.173  14.201
65718SOL     OW98985   3.030   1.882   0.461
65718SOL    HW198986   2.961   1.880   0.527
65718SOL    HW298987   3.106   1.843   0.504
65719SOL     OW98988   6.286  13.423   3.206
65719SOL    HW198989   6.328  13.481   3.270
65719SOL    HW298990   6.197  13.411   3.239
65720SOL     OW98991   6.043   1.574   6.807
65720SOL    HW198992   5.990   1.551   6.731
65720SOL    HW298993   6.120   1.618   6.771
65721SOL     OW98994  10.273   3.888   8.503
65721SOL    HW198995  10.294   3.800   8.534
65721SOL    HW298996  10.340   3.944   8.543
65722SOL     OW98997  12.654   5.611  12.420
65722SOL    HW198998  12.708   5.573  12.489
65722SOL    HW298999  12.643   5.703  12.444
65723SOL     OW99000   7.773   7.257   8.838
65723SOL    HW199001   7.808   7.335   8.881
65723SOL    HW299002   7.757   7.284   8.748
65724SOL     OW99003   9.314   6.332   5.085
65724SOL    HW199004   9.231   6.323   5.131
65724SOL    HW299005   9.375   6.279   5.136
65725SOL     OW99006   6.510   5.752  11.102
65725SOL    HW199007   6.467   5.693  11.164
65725SOL    HW299008   6.517   5.835  11.150
65726SOL     OW99009  12.855   4.147   0.928
65726SOL    HW199010  12.896   4.099   1.000
65726SOL    HW299011  12.898   4.112   0.850
65727SOL     OW99012   7.296   1.788   9.855
65727SOL    HW199013   7.348   1.743   9.921
65727SOL    HW299014   7.223   1.828   9.903
65728SOL     OW99015  11.676  10.191  10.885
65728SOL    HW199016  11.643  10.153  10.804
65728SOL    HW299017  11.742  10.128  10.916
65729SOL     OW99018  12.754   5.075   7.325
65729SOL    HW199019  12.849   5.068   7.322
65729SOL    HW299020  12.737   5.165   7.350
65730SOL     OW99021  11.993   9.812   6.927
65730SOL    HW199022  12.008   9.718   6.917
65730SOL    HW299023  12.076   9.852   6.900
65731SOL     OW99024  14.665   0.496   1.701
65731SOL    HW199025  14.605   0.563   1.735
65731SOL    HW299026  14.662   0.426   1.766
65732SOL     OW99027   8.373   7.657   0.564
65732SOL    HW199028   8.391   7.667   0.658
65732SOL    HW299029   8.442   7.600   0.532
65733SOL     OW99030  12.342  13.859  14.450
65733SOL    HW199031  12.375  13.791  14.391
65733SOL    HW299032  12.312  13.929  14.392
65734SOL     OW99033   5.642   3.771   1.332
65734SOL    HW199034   5.633   3.783   1.237
65734SOL    HW299035   5.557   3.797   1.367
65735SOL     OW99036   3.643   7.166   8.617
65735SOL    HW199037   3.591   7.129   8.547
65735SOL    HW299038   3.605   7.253   8.632
65736SOL     OW99039   7.267   7.266  14.188
65736SOL    HW199040   7.188   7.239  14.236
65736SOL    HW299041   7.295   7.347  14.231
65737SOL     OW99042   4.934   4.683  14.726
65737SOL    HW199043   4.865   4.669  14.661
65737SOL    HW299044   4.967   4.771  14.708
65738SOL     OW99045  12.767   3.326  13.416
65738SOL    HW199046  12.691   3.298  13.468
65738SOL    HW299047  12.764   3.271  13.337
65739SOL     OW99048   4.052  11.297  13.494
65739SOL    HW199049   4.118  11.352  13.537
65739SOL    HW299050   4.024  11.235  13.562
65740SOL     OW99051   2.822  11.619   8.282
65740SOL    HW199052   2.823  11.544   8.341
65740SOL    HW299053   2.896  11.673   8.311
65741SOL     OW99054  13.749   5.683  14.869
65741SOL    HW199055  13.793   5.683  14.784
65741SOL    HW299056  13.767   5.770   0.030
65742SOL     OW99057   5.392  12.198   4.257
65742SOL    HW199058   5.356  12.114   4.228
65742SOL    HW299059   5.396  12.190   4.352
65743SOL     OW99060   3.399   1.106   6.561
65743SOL    HW199061   3.494   1.106   6.557
65743SOL    HW299062   3.371   1.095   6.470
65744SOL     OW99063   0.675   9.257   7.718
65744SOL    HW199064   0.675   9.311   7.639
65744SOL    HW299065   0.749   9.289   7.769
65745SOL     OW99066   9.515   9.453  11.897
65745SOL    HW199067   9.556   9.453  11.983
65745SOL    HW299068   9.566   9.390  11.846
65746SOL     OW99069   8.672  12.911   5.278
65746SOL    HW199070   8.635  12.898   5.191
65746SOL    HW299071   8.767  12.915   5.263
65747SOL     OW99072   5.499   8.951   7.729
65747SOL    HW199073   5.425   9.011   7.717
65747SOL    HW299074   5.569   8.990   7.677
65748SOL     OW99075   5.285   3.461  10.836
65748SOL    HW199076   5.259   3.464  10.744
65748SOL    HW299077   5.300   3.368  10.855
65749SOL     OW99078   9.139  12.738   7.909
65749SOL    HW199079   9.200  12.807   7.936
65749SOL    HW299080   9.160  12.721   7.818
65750SOL     OW99081   8.436   0.830   1.224
65750SOL    HW199082   8.368   0.777   1.266
65750SOL    HW299083   8.417   0.919   1.252
65751SOL     OW99084   3.050   5.107   0.102
65751SOL    HW199085   3.134   5.127   0.143
65751SOL    HW299086   3.009   5.192   0.088
65752SOL     OW99087  14.303   0.326   7.435
65752SOL    HW199088  14.319   0.306   7.527
65752SOL    HW299089  14.340   0.414   7.423
65753SOL     OW99090   3.271   9.767   9.480
65753SOL    HW199091   3.259   9.755   9.386
65753SOL    HW299092   3.206   9.708   9.520
65754SOL     OW99093   5.590   2.650  14.287
65754SOL    HW199094   5.621   2.697  14.364
65754SOL    HW299095   5.551   2.570  14.322
65755SOL     OW99096   2.643   0.657  11.227
65755SOL    HW199097   2.726   0.705  11.222
65755SOL    HW299098   2.669   0.566  11.237
65756SOL     OW99099   7.290  10.535   2.245
65756SOL    HW199100   7.283  10.469   2.313
65756SOL    HW299101   7.277  10.488   2.163
65757SOL     OW99102  11.625   5.163   1.882
65757SOL    HW199103  11.642   5.080   1.926
65757SOL    HW299104  11.671   5.228   1.935
65758SOL     OW99105   2.094  12.147   6.991
65758SOL    HW199106   2.121  12.135   7.082
65758SOL    HW299107   2.173  12.127   6.940
65759SOL     OW99108   7.535   3.538   6.745
65759SOL    HW199109   7.459   3.596   6.760
65759SOL    HW299110   7.609   3.587   6.781
65760SOL     OW99111  14.634   6.444  11.170
65760SOL    HW199112  14.559   6.414  11.119
65760SOL    HW299113  14.597   6.470  11.254
65761SOL     OW99114  12.965   2.629   5.366
65761SOL    HW199115  12.889   2.688   5.360
65761SOL    HW299116  12.954   2.585   5.451
65762SOL     OW99117   6.502   8.510   3.554
65762SOL    HW199118   6.427   8.464   3.515
65762SOL    HW299119   6.478   8.519   3.646
65763SOL     OW99120   6.029   2.826   9.715
65763SOL    HW199121   5.934   2.816   9.707
65763SOL    HW299122   6.057   2.860   9.630
65764SOL     OW99123   4.846  11.455   7.104
65764SOL    HW199124   4.852  11.417   7.192
65764SOL    HW299125   4.778  11.522   7.111
65765SOL     OW99126  13.998  12.126  10.993
65765SOL    HW199127  14.009  12.153  10.902
65765SOL    HW299128  13.966  12.204  11.038
65766SOL     OW99129  13.379  10.286   4.033
65766SOL    HW199130  13.457  10.283   4.089
65766SOL    HW299131  13.396  10.358   3.972
65767SOL     OW99132   5.665  10.817   9.384
65767SOL    HW199133   5.675  10.796   9.291
65767SOL    HW299134   5.578  10.857   9.391
65768SOL     OW99135   3.505   0.874   5.663
65768SOL    HW199136   3.565   0.913   5.599
65768SOL    HW299137   3.463   0.949   5.705
65769SOL     OW99138   8.141   2.276   3.608
65769SOL    HW199139   8.099   2.202   3.563
65769SOL    HW299140   8.225   2.241   3.639
65770SOL     OW99141  12.833   9.672   4.250
65770SOL    HW199142  12.788   9.683   4.333
65770SOL    HW299143  12.803   9.745   4.196
65771SOL     OW99144   1.657   4.595   4.132
65771SOL    HW199145   1.633   4.641   4.212
65771SOL    HW299146   1.626   4.652   4.062
65772SOL     OW99147  11.057  14.417   5.888
65772SOL    HW199148  10.999  14.465   5.828
65772SOL    HW299149  11.008  14.338   5.911
65773SOL     OW99150   4.973  10.901  11.440
65773SOL    HW199151   4.968  10.894  11.536
65773SOL    HW299152   5.020  10.982  11.424
65774SOL     OW99153   3.854  11.141   5.558
65774SOL    HW199154   3.834  11.072   5.494
65774SOL    HW299155   3.914  11.200   5.512
65775SOL     OW99156   0.226   0.723   6.908
65775SOL    HW199157   0.302   0.750   6.856
65775SOL    HW299158   0.247   0.634   6.936
65776SOL     OW99159   1.696   3.216  10.533
65776SOL    HW199160   1.613   3.231  10.580
65776SOL    HW299161   1.697   3.121  10.518
65777SOL     OW99162   6.795  14.856   6.442
65777SOL    HW199163   6.771  14.781   6.496
65777SOL    HW299164   6.805  14.820   6.354
65778SOL     OW99165   1.605  11.638  13.583
65778SOL    HW199166   1.539  11.608  13.520
65778SOL    HW299167   1.587  11.731  13.593
65779SOL     OW99168  12.993   8.958   4.720
65779SOL    HW199169  12.968   8.868   4.701
65779SOL    HW299170  12.910   9.002   4.740
65780SOL     OW99171   8.588   4.912  14.771
65780SOL    HW199172   8.517   4.857  14.804
65780SOL    HW299173   8.580   4.908  14.675
65781SOL     OW99174  10.164   7.337   2.034
65781SOL    HW199175  10.237   7.374   2.084
65781SOL    HW299176  10.182   7.363   1.943
65782SOL     OW99177  14.554  10.405   2.622
65782SOL    HW199178  14.536  10.450   2.705
65782SOL    HW299179  14.505  10.454   2.556
65783SOL     OW99180   8.689   3.019  13.482
65783SOL    HW199181   8.655   3.086  13.423
65783SOL    HW299182   8.783   3.036  13.486
65784SOL     OW99183  12.790   7.525   8.743
65784SOL    HW199184  12.817   7.433   8.743
65784SOL    HW299185  12.848   7.566   8.807
65785SOL     OW99186   3.266  12.895   4.467
65785SOL    HW199187   3.230  12.829   4.409
65785SOL    HW299188   3.340  12.852   4.511
65786SOL     OW99189   3.811   4.656   0.574
65786SOL    HW199190   3.775   4.574   0.609
65786SOL    HW299191   3.879   4.681   0.637
65787SOL     OW99192   2.546   8.533   9.776
65787SOL    HW199193   2.471   8.578   9.815
65787SOL    HW299194   2.512   8.490   9.698
65788SOL     OW99195   0.132   9.362   9.186
65788SOL    HW199196   0.180   9.415   9.251
65788SOL    HW299197   0.108   9.283   9.233
65789SOL     OW99198  11.718  11.534   2.745
65789SOL    HW199199  11.704  11.439   2.744
65789SOL    HW299200  11.684  11.562   2.830
65790SOL     OW99201  11.563   6.700   4.862
65790SOL    HW199202  11.632   6.766   4.868
65790SOL    HW299203  11.576   6.659   4.777
65791SOL     OW99204  12.665  11.883   1.773
65791SOL    HW199205  12.717  11.926   1.706
65791SOL    HW299206  12.693  11.791   1.771
65792SOL     OW99207  10.986   6.931   9.083
65792SOL    HW199208  11.010   6.985   9.007
65792SOL    HW299209  10.903   6.967   9.113
65793SOL     OW99210   3.949   1.341  12.750
65793SOL    HW199211   3.881   1.384  12.801
65793SOL    HW299212   4.017   1.408  12.739
65794SOL     OW99213  12.363   0.487  12.798
65794SOL    HW199214  12.458   0.499  12.799
65794SOL    HW299215  12.350   0.400  12.836
65795SOL     OW99216   1.576   8.137   0.615
65795SOL    HW199217   1.645   8.202   0.632
65795SOL    HW299218   1.623   8.063   0.576
65796SOL     OW99219  10.094  12.034   2.624
65796SOL    HW199220  10.111  11.943   2.602
65796SOL    HW299221  10.093  12.036   2.719
65797SOL     OW99222   6.730   4.138  13.854
65797SOL    HW199223   6.639   4.147  13.880
65797SOL    HW299224   6.729   4.148  13.759
65798SOL     OW99225  10.928   0.023  11.296
65798SOL    HW199226  11.020   0.001  11.305
65798SOL    HW299227  10.898   0.043  11.385
65799SOL     OW99228   4.387   5.177   0.723
65799SOL    HW199229   4.372   5.150   0.813
65799SOL    HW299230   4.443   5.254   0.730
65800SOL     OW99231   8.498   3.886   6.679
65800SOL    HW199232   8.564   3.903   6.612
65800SOL    HW299233   8.418   3.923   6.645
65801SOL     OW99234   7.977  14.405   5.707
65801SOL    HW199235   8.005  14.315   5.725
65801SOL    HW299236   8.059  14.453   5.692
65802SOL     OW99237  12.329  10.579  12.590
65802SOL    HW199238  12.413  10.593  12.634
65802SOL    HW299239  12.352  10.560  12.499
65803SOL     OW99240   6.709   6.487  12.743
65803SOL    HW199241   6.779   6.439  12.789
65803SOL    HW299242   6.681   6.554  12.806
65804SOL     OW99243   0.005   8.084  14.867
65804SOL    HW199244   0.083   8.081   0.045
65804SOL    HW299245   0.012   8.007  14.810
65805SOL     OW99246   5.028   5.750  13.055
65805SOL    HW199247   4.966   5.689  13.095
65805SOL    HW299248   5.050   5.711  12.971
65806SOL     OW99249  14.562   0.225  12.910
65806SOL    HW199250  14.480   0.238  12.957
65806SOL    HW299251  14.573   0.305  12.859
65807SOL     OW99252   7.035   9.569  14.430
65807SOL    HW199253   7.008   9.478  14.417
65807SOL    HW299254   6.985   9.597  14.507
65808SOL     OW99255   7.798   0.594   9.290
65808SOL    HW199256   7.736   0.543   9.343
65808SOL    HW299257   7.779   0.685   9.312
65809SOL     OW99258   5.290  12.940   7.453
65809SOL    HW199259   5.210  12.896   7.425
65809SOL    HW299260   5.263  13.031   7.468
65810SOL     OW99261  12.977   0.311   0.050
65810SOL    HW199262  12.953   0.219   0.062
65810SOL    HW299263  13.011   0.338   0.135
65811SOL     OW99264   2.093   5.555   5.703
65811SOL    HW199265   2.025   5.592   5.759
65811SOL    HW299266   2.054   5.476   5.667
65812SOL     OW99267   8.708   2.060   9.112
65812SOL    HW199268   8.737   2.127   9.050
65812SOL    HW299269   8.622   2.034   9.079
65813SOL     OW99270   1.765  10.435  12.890
65813SOL    HW199271   1.702  10.365  12.905
65813SOL    HW299272   1.714  10.516  12.897
65814SOL     OW99273   3.005   0.585  13.966
65814SOL    HW199274   3.081   0.534  13.993
65814SOL    HW299275   2.990   0.559  13.875
65815SOL     OW99276   3.881  14.303   8.170
65815SOL    HW199277   3.894  14.255   8.089
65815SOL    HW299278   3.939  14.259   8.233
65816SOL     OW99279   1.187   9.746   9.403
65816SOL    HW199280   1.280   9.727   9.392
65816SOL    HW299281   1.173   9.745   9.497
65817SOL     OW99282   7.253  11.251   1.006
65817SOL    HW199283   7.266  11.303   0.926
65817SOL    HW299284   7.188  11.186   0.981
65818SOL     OW99285  11.048   1.018  10.146
65818SOL    HW199286  10.967   1.063  10.122
65818SOL    HW299287  11.061   0.954  10.076
65819SOL     OW99288   3.220   1.847  14.656
65819SOL    HW199289   3.125   1.835  14.655
65819SOL    HW299290   3.246   1.841  14.564
65820SOL     OW99291   2.680   9.517  13.014
65820SOL    HW199292   2.640   9.604  13.008
65820SOL    HW299293   2.773   9.534  13.025
65821SOL     OW99294   0.316   3.413   0.562
65821SOL    HW199295   0.295   3.458   0.644
65821SOL    HW299296   0.351   3.328   0.589
65822SOL     OW99297   7.519  13.647  11.593
65822SOL    HW199298   7.473  13.683  11.669
65822SOL    HW299299   7.461  13.662  11.519
65823SOL     OW99300   3.575   8.455  12.859
65823SOL    HW199301   3.508   8.405  12.813
65823SOL    HW299302   3.541   8.545  12.862
65824SOL     OW99303   7.172   0.229  14.047
65824SOL    HW199304   7.144   0.252  13.959
65824SOL    HW299305   7.177   0.313  14.093
65825SOL     OW99306  10.894  13.871   8.327
65825SOL    HW199307  10.969  13.891   8.272
65825SOL    HW299308  10.820  13.864   8.267
65826SOL     OW99309  13.552   1.542   7.970
65826SOL    HW199310  13.622   1.605   7.988
65826SOL    HW299311  13.531   1.556   7.878
65827SOL     OW99312  14.513   4.122   2.371
65827SOL    HW199313  14.590   4.135   2.428
65827SOL    HW299314  14.480   4.211   2.356
65828SOL     OW99315  12.395   5.088   8.251
65828SOL    HW199316  12.404   5.061   8.159
65828SOL    HW299317  12.301   5.085   8.267
65829SOL     OW99318   5.488  11.242  10.838
65829SOL    HW199319   5.576  11.281  10.844
65829SOL    HW299320   5.463  11.224  10.928
65830SOL     OW99321  11.382   6.555   3.613
65830SOL    HW199322  11.315   6.623   3.620
65830SOL    HW299323  11.461   6.596   3.649
65831SOL     OW99324   8.539   2.883   6.540
65831SOL    HW199325   8.461   2.924   6.502
65831SOL    HW299326   8.517   2.871   6.633
65832SOL     OW99327   4.678   1.435  14.835
65832SOL    HW199328   4.615   1.453   0.029
65832SOL    HW299329   4.651   1.491  14.763
65833SOL     OW99330  13.398   4.613  10.321
65833SOL    HW199331  13.361   4.544  10.267
65833SOL    HW299332  13.328   4.679  10.326
65834SOL     OW99333   3.834  12.266   9.672
65834SOL    HW199334   3.778  12.329   9.627
65834SOL    HW299335   3.847  12.303   9.759
65835SOL     OW99336   8.303  13.928   0.847
65835SOL    HW199337   8.217  13.888   0.863
65835SOL    HW299338   8.303  13.948   0.753
65836SOL     OW99339   0.282  11.543   1.948
65836SOL    HW199340   0.253  11.452   1.944
65836SOL    HW299341   0.305  11.565   1.858
65837SOL     OW99342   1.188   0.618   4.269
65837SOL    HW199343   1.146   0.532   4.273
65837SOL    HW299344   1.127   0.673   4.222
65838SOL     OW99345  14.078  10.101   1.837
65838SOL    HW199346  14.103  10.113   1.746
65838SOL    HW299347  13.983  10.091   1.835
65839SOL     OW99348  10.057   7.549   6.955
65839SOL    HW199349  10.024   7.586   6.873
65839SOL    HW299350  10.010   7.597   7.023
65840SOL     OW99351   5.165  10.846   3.568
65840SOL    HW199352   5.199  10.845   3.658
65840SOL    HW299353   5.122  10.761   3.558
65841SOL     OW99354  11.127   3.954   1.975
65841SOL    HW199355  11.212   3.976   1.938
65841SOL    HW299356  11.096   4.035   2.014
65842SOL     OW99357   9.668  11.810   9.561
65842SOL    HW199358   9.584  11.765   9.549
65842SOL    HW299359   9.683  11.855   9.478
65843SOL     OW99360  14.310   1.571   5.241
65843SOL    HW199361  14.217   1.570   5.222
65843SOL    HW299362  14.333   1.663   5.248
65844SOL     OW99363  14.113   3.283   2.092
65844SOL    HW199364  14.129   3.377   2.092
65844SOL    HW299365  14.030   3.273   2.139
65845SOL     OW99366   9.218   8.746   7.960
65845SOL    HW199367   9.145   8.780   7.909
65845SOL    HW299368   9.244   8.819   8.016
65846SOL     OW99369   0.916  13.537   9.484
65846SOL    HW199370   0.845  13.562   9.544
65846SOL    HW299371   0.933  13.616   9.433
65847SOL     OW99372  11.124   6.220   1.424
65847SOL    HW199373  11.197   6.210   1.484
65847SOL    HW299374  11.155   6.182   1.341
65848SOL     OW99375   0.276   1.713   1.673
65848SOL    HW199376   0.281   1.684   1.764
65848SOL    HW299377   0.192   1.681   1.641
65849SOL     OW99378   2.852   4.871  10.082
65849SOL    HW199379   2.796   4.795  10.062
65849SOL    HW299380   2.860   4.870  10.177
65850SOL     OW99381   9.992   1.893   5.716
65850SOL    HW199382  10.057   1.930   5.776
65850SOL    HW299383   9.944   1.968   5.682
65851SOL     OW99384   6.602   4.638   6.465
65851SOL    HW199385   6.553   4.667   6.388
65851SOL    HW299386   6.537   4.635   6.535
65852SOL     OW99387   6.877   2.865  13.071
65852SOL    HW199388   6.828   2.784  13.065
65852SOL    HW299389   6.862   2.897  13.160
65853SOL     OW99390   1.186   0.754   2.623
65853SOL    HW199391   1.231   0.747   2.707
65853SOL    HW299392   1.172   0.848   2.611
65854SOL     OW99393   9.755  13.284   4.705
65854SOL    HW199394   9.778  13.292   4.612
65854SOL    HW299395   9.692  13.212   4.708
65855SOL     OW99396   1.743   9.209  11.414
65855SOL    HW199397   1.671   9.250  11.365
65855SOL    HW299398   1.701   9.173  11.492
65856SOL     OW99399  12.836   4.849   0.624
65856SOL    HW199400  12.891   4.773   0.603
65856SOL    HW299401  12.809   4.883   0.539
65857SOL     OW99402   7.077   8.170   6.094
65857SOL    HW199403   7.165   8.188   6.128
65857SOL    HW299404   7.046   8.097   6.147
65858SOL     OW99405  12.417  13.784   1.097
65858SOL    HW199406  12.392  13.739   1.017
65858SOL    HW299407  12.359  13.860   1.101
65859SOL     OW99408  10.893  11.117  13.507
65859SOL    HW199409  10.912  11.211  13.516
65859SOL    HW299410  10.935  11.077  13.583
65860SOL     OW99411   0.512  14.517  13.361
65860SOL    HW199412   0.524  14.576  13.287
65860SOL    HW299413   0.478  14.574  13.431
65861SOL     OW99414   5.786  10.582   3.673
65861SOL    HW199415   5.865  10.529   3.658
65861SOL    HW299416   5.747  10.546   3.752
65862SOL     OW99417   1.470   3.263   8.056
65862SOL    HW199418   1.391   3.212   8.036
65862SOL    HW299419   1.539   3.198   8.067
65863SOL     OW99420   9.094   2.411   7.777
65863SOL    HW199421   9.010   2.406   7.823
65863SOL    HW299422   9.096   2.500   7.740
65864SOL     OW99423  10.013   6.142   5.286
65864SOL    HW199424  10.010   6.046   5.293
65864SOL    HW299425  10.024   6.172   5.376
65865SOL     OW99426  12.649   7.123  11.198
65865SOL    HW199427  12.626   7.212  11.172
65865SOL    HW299428  12.588   7.103  11.269
65866SOL     OW99429   1.399   3.386   1.209
65866SOL    HW199430   1.350   3.333   1.146
65866SOL    HW299431   1.333   3.422   1.268
65867SOL     OW99432   9.220   3.799   4.880
65867SOL    HW199433   9.171   3.742   4.820
65867SOL    HW299434   9.308   3.802   4.844
65868SOL     OW99435  12.180   6.121  12.937
65868SOL    HW199436  12.136   6.036  12.944
65868SOL    HW299437  12.134   6.177  12.999
65869SOL     OW99438   0.509   6.229   1.214
65869SOL    HW199439   0.542   6.300   1.268
65869SOL    HW299440   0.583   6.170   1.203
65870SOL     OW99441  10.910   1.250  12.669
65870SOL    HW199442  11.001   1.227  12.687
65870SOL    HW299443  10.914   1.306  12.592
65871SOL     OW99444  13.882   4.237   4.085
65871SOL    HW199445  13.839   4.309   4.039
65871SOL    HW299446  13.936   4.195   4.018
65872SOL     OW99447   0.755   7.664   5.999
65872SOL    HW199448   0.830   7.697   5.951
65872SOL    HW299449   0.727   7.738   6.054
65873SOL     OW99450  13.939   9.497   6.488
65873SOL    HW199451  13.914   9.575   6.438
65873SOL    HW299452  13.856   9.455   6.510
65874SOL     OW99453   7.404   4.748   1.667
65874SOL    HW199454   7.421   4.725   1.758
65874SOL    HW299455   7.357   4.673   1.631
65875SOL     OW99456  14.145  11.886  11.075
65875SOL    HW199457  14.118  11.959  11.020
65875SOL    HW299458  14.072  11.874  11.136
65876SOL     OW99459   1.084   4.948   8.509
65876SOL    HW199460   1.167   4.934   8.554
65876SOL    HW299461   1.027   4.878   8.541
65877SOL     OW99462   3.789   1.573  10.626
65877SOL    HW199463   3.696   1.593  10.628
65877SOL    HW299464   3.827   1.639  10.568
65878SOL     OW99465   6.173   6.917   6.057
65878SOL    HW199466   6.081   6.918   6.033
65878SOL    HW299467   6.220   6.907   5.974
65879SOL     OW99468   5.295   0.113   2.546
65879SOL    HW199469   5.366   0.174   2.526
65879SOL    HW299470   5.334   0.050   2.607
65880SOL     OW99471  12.451   1.207   4.238
65880SOL    HW199472  12.528   1.262   4.223
65880SOL    HW299473  12.486   1.120   4.253
65881SOL     OW99474  14.100   3.308   3.757
65881SOL    HW199475  14.134   3.219   3.755
65881SOL    HW299476  14.049   3.317   3.677
65882SOL     OW99477   2.504  11.549   9.584
65882SOL    HW199478   2.529  11.594   9.665
65882SOL    HW299479   2.555  11.468   9.585
65883SOL     OW99480   2.068  12.550  10.532
65883SOL    HW199481   2.163  12.554  10.543
65883SOL    HW299482   2.054  12.543  10.438
65884SOL     OW99483  14.838   3.821   7.842
65884SOL    HW199484  14.770   3.878   7.878
65884SOL    HW299485   0.034   3.828   7.905
65885SOL     OW99486   6.571  10.594   2.938
65885SOL    HW199487   6.605  10.508   2.962
65885SOL    HW299488   6.648  10.652   2.941
65886SOL     OW99489  11.099   3.567   3.747
65886SOL    HW199490  11.053   3.567   3.663
65886SOL    HW299491  11.042   3.516   3.805
65887SOL     OW99492   7.012   6.734  10.155
65887SOL    HW199493   6.957   6.656  10.151
65887SOL    HW299494   6.954   6.805  10.130
65888SOL     OW99495   2.102  11.619   2.111
65888SOL    HW199496   2.146  11.670   2.178
65888SOL    HW299497   2.105  11.529   2.144
65889SOL     OW99498   0.455  11.138  11.649
65889SOL    HW199499   0.527  11.144  11.586
65889SOL    HW299500   0.463  11.217  11.702
65890SOL     OW99501   6.453   3.029   4.791
65890SOL    HW199502   6.494   3.002   4.709
65890SOL    HW299503   6.393   2.957   4.812
65891SOL     OW99504   0.969  11.092   9.560
65891SOL    HW199505   1.053  11.063   9.527
65891SOL    HW299506   0.967  11.186   9.541
65892SOL     OW99507   7.833   2.731   0.601
65892SOL    HW199508   7.921   2.729   0.637
65892SOL    HW299509   7.825   2.648   0.554
65893SOL     OW99510   8.712   7.063   6.771
65893SOL    HW199511   8.621   7.048   6.745
65893SOL    HW299512   8.742   7.132   6.712
65894SOL     OW99513  11.372   7.175   9.589
65894SOL    HW199514  11.308   7.241   9.617
65894SOL    HW299515  11.452   7.198   9.636
65895SOL     OW99516   0.568   3.282   6.347
65895SOL    HW199517   0.567   3.191   6.318
65895SOL    HW299518   0.500   3.287   6.414
65896SOL     OW99519  10.487   8.262  11.742
65896SOL    HW199520  10.519   8.187  11.792
65896SOL    HW299521  10.448   8.319  11.808
65897SOL     OW99522   1.310   6.897   6.778
65897SOL    HW199523   1.237   6.936   6.728
65897SOL    HW299524   1.311   6.947   6.859
65898SOL     OW99525   1.006  12.601   9.677
65898SOL    HW199526   1.084  12.545   9.678
65898SOL    HW299527   0.958  12.576   9.756
65899SOL     OW99528  12.996  12.015  12.605
65899SOL    HW199529  12.922  11.983  12.554
65899SOL    HW299530  12.965  12.015  12.696
65900SOL     OW99531   5.582   7.020   5.664
65900SOL    HW199532   5.657   6.961   5.671
65900SOL    HW299533   5.589   7.078   5.739
65901SOL     OW99534   5.846   0.339  10.415
65901SOL    HW199535   5.864   0.295  10.332
65901SOL    HW299536   5.931   0.373  10.442
65902SOL     OW99537  14.137  13.659   9.420
65902SOL    HW199538  14.150  13.723   9.350
65902SOL    HW299539  14.045  13.669   9.445
65903SOL     OW99540   8.080  14.002   6.096
65903SOL    HW199541   8.116  13.928   6.045
65903SOL    HW299542   8.150  14.067   6.096
65904SOL     OW99543   5.726  10.053  13.865
65904SOL    HW199544   5.759   9.975  13.909
65904SOL    HW299545   5.647  10.077  13.914
65905SOL     OW99546   0.100  13.030  11.249
65905SOL    HW199547   0.028  12.996  11.197
65905SOL    HW299548   0.072  13.119  11.273
65906SOL     OW99549  11.903  13.121  11.514
65906SOL    HW199550  11.953  13.105  11.594
65906SOL    HW299551  11.945  13.067  11.447
65907SOL     OW99552   2.668  14.233   4.643
65907SOL    HW199553   2.700  14.204   4.728
65907SOL    HW299554   2.635  14.154   4.601
65908SOL     OW99555   8.010   8.623   9.226
65908SOL    HW199556   7.988   8.572   9.148
65908SOL    HW299557   8.054   8.701   9.191
65909SOL     OW99558  11.968  14.244   5.197
65909SOL    HW199559  12.026  14.311   5.161
65909SOL    HW299560  11.880  14.275   5.177
65910SOL     OW99561   8.051   6.895   7.149
65910SOL    HW199562   7.991   6.968   7.136
65910SOL    HW299563   7.995   6.822   7.175
65911SOL     OW99564   2.873  13.795   8.550
65911SOL    HW199565   2.957  13.830   8.579
65911SOL    HW299566   2.850  13.847   8.473
65912SOL     OW99567   9.615  12.976  10.529
65912SOL    HW199568   9.613  12.973  10.434
65912SOL    HW299569   9.577  12.892  10.556
65913SOL     OW99570  11.352   9.125   3.987
65913SOL    HW199571  11.301   9.162   3.915
65913SOL    HW299572  11.324   9.033   3.991
65914SOL     OW99573   0.352  14.191   4.590
65914SOL    HW199574   0.281  14.177   4.653
65914SOL    HW299575   0.399  14.267   4.626
65915SOL     OW99576   9.208   8.316   5.084
65915SOL    HW199577   9.265   8.386   5.053
65915SOL    HW299578   9.119   8.348   5.070
65916SOL     OW99579   0.817   5.913   1.290
65916SOL    HW199580   0.749   5.916   1.358
65916SOL    HW299581   0.783   5.969   1.220
65917SOL     OW99582  13.835   2.381   0.155
65917SOL    HW199583  13.894   2.329   0.100
65917SOL    HW299584  13.749   2.343   0.140
65918SOL     OW99585   6.738  12.722  11.047
65918SOL    HW199586   6.700  12.782  10.982
65918SOL    HW299587   6.821  12.693  11.008
65919SOL     OW99588   6.721  14.454   2.690
65919SOL    HW199589   6.791  14.389   2.695
65919SOL    HW299590   6.640  14.402   2.688
65920SOL     OW99591   9.360   0.711  13.519
65920SOL    HW199592   9.399   0.627  13.495
65920SOL    HW299593   9.275   0.712  13.473
65921SOL     OW99594   2.286   0.407  14.124
65921SOL    HW199595   2.364   0.387  14.073
65921SOL    HW299596   2.215   0.362  14.078
65922SOL     OW99597  12.023   2.989   5.276
65922SOL    HW199598  12.017   3.084   5.281
65922SOL    HW299599  12.116   2.970   5.289
65923SOL     OW99600   0.683   1.521  11.275
65923SOL    HW199601   0.684   1.596  11.334
65923SOL    HW299602   0.754   1.465  11.305
65924SOL     OW99603   4.046  13.053  11.429
65924SOL    HW199604   4.033  13.009  11.345
65924SOL    HW299605   4.132  13.023  11.459
65925SOL     OW99606  10.261   6.741   2.930
65925SOL    HW199607  10.225   6.829   2.936
65925SOL    HW299608  10.193   6.690   2.886
65926SOL     OW99609   7.477  11.725   0.167
65926SOL    HW199610   7.419  11.674   0.224
65926SOL    HW299611   7.432  11.726   0.083
65927SOL     OW99612   9.220   7.385  11.798
65927SOL    HW199613   9.301   7.354  11.837
65927SOL    HW299614   9.151   7.346  11.851
65928SOL     OW99615   2.753   8.016   7.255
65928SOL    HW199616   2.668   8.031   7.297
65928SOL    HW299617   2.801   8.098   7.269
65929SOL     OW99618   6.436   6.585   7.802
65929SOL    HW199619   6.399   6.673   7.810
65929SOL    HW299620   6.364   6.532   7.768
65930SOL     OW99621  13.237   0.310  14.368
65930SOL    HW199622  13.306   0.365  14.333
65930SOL    HW299623  13.172   0.371  14.403
65931SOL     OW99624   4.905  13.334   7.056
65931SOL    HW199625   4.917  13.325   7.150
65931SOL    HW299626   4.844  13.407   7.046
65932SOL     OW99627   0.245   5.710   1.262
65932SOL    HW199628   0.288   5.790   1.232
65932SOL    HW299629   0.157   5.715   1.224
65933SOL     OW99630   6.303   2.855  13.523
65933SOL    HW199631   6.248   2.777  13.514
65933SOL    HW299632   6.282   2.909  13.446
65934SOL     OW99633  13.544   0.200  14.422
65934SOL    HW199634  13.477   0.234  14.482
65934SOL    HW299635  13.589   0.278  14.389
65935SOL     OW99636   0.746   2.016  11.623
65935SOL    HW199637   0.740   2.078  11.551
65935SOL    HW299638   0.698   2.057  11.695
65936SOL     OW99639  11.225   1.791  12.913
65936SOL    HW199640  11.143   1.813  12.958
65936SOL    HW299641  11.249   1.705  12.947
65937SOL     OW99642  11.930   7.160   2.065
65937SOL    HW199643  11.847   7.155   2.113
65937SOL    HW299644  11.991   7.109   2.118
65938SOL     OW99645  14.688  10.431  11.520
65938SOL    HW199646  14.593  10.440  11.513
65938SOL    HW299647  14.711  10.371  11.450
65939SOL     OW99648   3.045   3.246   2.984
65939SOL    HW199649   3.088   3.183   3.042
65939SOL    HW299650   3.067   3.217   2.896
65940SOL     OW99651   1.432  10.230   6.426
65940SOL    HW199652   1.508  10.287   6.437
65940SOL    HW299653   1.442  10.192   6.339
65941SOL     OW99654   6.762  13.113   0.009
65941SOL    HW199655   6.841  13.094   0.059
65941SOL    HW299656   6.693  13.122   0.075
65942SOL     OW99657   8.893  14.110  14.696
65942SOL    HW199658   8.987  14.090  14.697
65942SOL    HW299659   8.877  14.144  14.607
65943SOL     OW99660  14.874   8.450   8.088
65943SOL    HW199661   0.063   8.415   8.026
65943SOL    HW299662  14.795   8.464   8.036
65944SOL     OW99663   1.764   4.200   1.887
65944SOL    HW199664   1.858   4.190   1.868
65944SOL    HW299665   1.738   4.115   1.923
65945SOL     OW99666   3.879   6.998   3.471
65945SOL    HW199667   3.826   6.931   3.514
65945SOL    HW299668   3.968   6.964   3.475
65946SOL     OW99669  10.645   4.788   9.111
65946SOL    HW199670  10.604   4.701   9.108
65946SOL    HW299671  10.738   4.770   9.100
65947SOL     OW99672   6.366  13.264   6.508
65947SOL    HW199673   6.390  13.300   6.593
65947SOL    HW299674   6.304  13.327   6.472
65948SOL     OW99675  10.884   3.847   1.874
65948SOL    HW199676  10.946   3.897   1.927
65948SOL    HW299677  10.866   3.903   1.798
65949SOL     OW99678  11.795  12.172   0.613
65949SOL    HW199679  11.844  12.110   0.667
65949SOL    HW299680  11.706  12.169   0.649
65950SOL     OW99681  12.778  10.122   9.992
65950SOL    HW199682  12.840  10.195   9.988
65950SOL    HW299683  12.692  10.163   9.992
65951SOL     OW99684  11.249  11.568  10.502
65951SOL    HW199685  11.271  11.546  10.592
65951SOL    HW299686  11.330  11.599  10.463
65952SOL     OW99687  12.975  12.811   9.685
65952SOL    HW199688  12.976  12.726   9.642
65952SOL    HW299689  12.918  12.865   9.631
65953SOL     OW99690  13.191   7.751   7.038
65953SOL    HW199691  13.124   7.683   7.028
65953SOL    HW299692  13.162   7.803   7.113
65954SOL     OW99693   6.987   0.234   7.061
65954SOL    HW199694   7.022   0.243   6.972
65954SOL    HW299695   6.915   0.172   7.052
65955SOL     OW99696   7.257   7.569   1.577
65955SOL    HW199697   7.174   7.581   1.530
65955SOL    HW299698   7.324   7.594   1.514
65956SOL     OW99699  13.344   7.289   9.342
65956SOL    HW199700  13.407   7.218   9.353
65956SOL    HW299701  13.314   7.281   9.252
65957SOL     OW99702   5.586  11.352   2.218
65957SOL    HW199703   5.658  11.291   2.231
65957SOL    HW299704   5.547  11.326   2.135
65958SOL     OW99705   1.176   3.785   1.746
65958SOL    HW199706   1.135   3.779   1.832
65958SOL    HW299707   1.253   3.728   1.751
65959SOL     OW99708   9.380   4.658   8.775
65959SOL    HW199709   9.370   4.566   8.799
65959SOL    HW299710   9.297   4.680   8.732
65960SOL     OW99711   0.565   2.679   0.663
65960SOL    HW199712   0.640   2.739   0.667
65960SOL    HW299713   0.585   2.620   0.591
65961SOL     OW99714  12.095   2.674  12.611
65961SOL    HW199715  12.140   2.697  12.530
65961SOL    HW299716  12.128   2.587  12.634
65962SOL     OW99717  13.586   0.852   2.182
65962SOL    HW199718  13.619   0.766   2.158
65962SOL    HW299719  13.662   0.910   2.174
65963SOL     OW99720  11.970   7.433   5.349
65963SOL    HW199721  12.000   7.466   5.434
65963SOL    HW299722  11.906   7.366   5.371
65964SOL     OW99723   8.141   8.839   9.096
65964SOL    HW199724   8.133   8.836   9.001
65964SOL    HW299725   8.087   8.915   9.122
65965SOL     OW99726   4.539  12.687  12.882
65965SOL    HW199727   4.545  12.629  12.957
65965SOL    HW299728   4.585  12.640  12.811
65966SOL     OW99729   9.002   4.937  13.504
65966SOL    HW199730   9.011   4.926  13.599
65966SOL    HW299731   9.056   4.867  13.467
65967SOL     OW99732   6.584   4.334  11.229
65967SOL    HW199733   6.516   4.346  11.163
65967SOL    HW299734   6.571   4.245  11.261
65968SOL     OW99735   0.197   3.604  11.852
65968SOL    HW199736   0.146   3.615  11.932
65968SOL    HW299737   0.288   3.613  11.880
65969SOL     OW99738  14.461  12.759   6.422
65969SOL    HW199739  14.493  12.849   6.416
65969SOL    HW299740  14.452  12.743   6.516
65970SOL     OW99741  11.323  10.092   3.071
65970SOL    HW199742  11.238  10.073   3.030
65970SOL    HW299743  11.360  10.163   3.019
65971SOL     OW99744   6.046   7.204   2.367
65971SOL    HW199745   5.986   7.209   2.441
65971SOL    HW299746   5.992   7.173   2.294
65972SOL     OW99747   3.416  14.703  11.933
65972SOL    HW199748   3.438  14.696  11.840
65972SOL    HW299749   3.450  14.623  11.972
65973SOL     OW99750   1.134  14.245   6.598
65973SOL    HW199751   1.178  14.294   6.528
65973SOL    HW299752   1.203  14.190   6.635
65974SOL     OW99753   9.390  14.646   1.452
65974SOL    HW199754   9.481  14.640   1.479
65974SOL    HW299755   9.392  14.699   1.372
65975SOL     OW99756   7.917   0.332   3.700
65975SOL    HW199757   7.839   0.304   3.651
65975SOL    HW299758   7.896   0.314   3.791
65976SOL     OW99759   4.053   1.246   9.365
65976SOL    HW199760   4.138   1.206   9.347
65976SOL    HW299761   4.050   1.323   9.308
65977SOL     OW99762  13.458  11.179   1.448
65977SOL    HW199763  13.450  11.258   1.394
65977SOL    HW299764  13.383  11.181   1.506
65978SOL     OW99765   2.445  10.998   1.184
65978SOL    HW199766   2.462  10.906   1.203
65978SOL    HW299767   2.349  11.004   1.176
65979SOL     OW99768   9.672   0.104   5.510
65979SOL    HW199769   9.628   0.186   5.488
65979SOL    HW299770   9.647   0.087   5.601
65980SOL     OW99771   7.831   0.667   0.819
65980SOL    HW199772   7.813   0.573   0.820
65980SOL    HW299773   7.796   0.697   0.735
65981SOL     OW99774   3.645   1.766   8.516
65981SOL    HW199775   3.719   1.705   8.515
65981SOL    HW299776   3.671   1.835   8.455
65982SOL     OW99777   7.689   3.600   7.617
65982SOL    HW199778   7.712   3.644   7.535
65982SOL    HW299779   7.675   3.671   7.680
65983SOL     OW99780  11.891   7.532  14.360
65983SOL    HW199781  11.836   7.585  14.418
65983SOL    HW299782  11.857   7.443  14.370
65984SOL     OW99783   0.835  13.086   0.638
65984SOL    HW199784   0.776  13.024   0.595
65984SOL    HW299785   0.777  13.151   0.678
65985SOL     OW99786   2.912  11.022  13.904
65985SOL    HW199787   2.879  11.073  13.831
65985SOL    HW299788   2.957  11.085  13.960
65986SOL     OW99789   2.753  13.254   6.232
65986SOL    HW199790   2.825  13.206   6.191
65986SOL    HW299791   2.678  13.239   6.174
65987SOL     OW99792  13.726   7.286  10.063
65987SOL    HW199793  13.685   7.301   9.977
65987SOL    HW299794  13.811   7.248  10.042
65988SOL     OW99795   3.034   1.493   0.472
65988SOL    HW199796   3.114   1.474   0.522
65988SOL    HW299797   3.008   1.408   0.437
65989SOL     OW99798  10.132   0.714   2.769
65989SOL    HW199799  10.196   0.647   2.792
65989SOL    HW299800  10.178   0.774   2.711
65990SOL     OW99801  11.799   6.413   4.380
65990SOL    HW199802  11.822   6.353   4.309
65990SOL    HW299803  11.708   6.437   4.363
65991SOL     OW99804  12.338   5.455   4.431
65991SOL    HW199805  12.393   5.411   4.366
65991SOL    HW299806  12.279   5.387   4.463
65992SOL     OW99807  11.366   5.633   7.991
65992SOL    HW199808  11.310   5.709   8.009
65992SOL    HW299809  11.455   5.667   8.001
65993SOL     OW99810   5.885   7.459   1.073
65993SOL    HW199811   5.804   7.438   1.026
65993SOL    HW299812   5.952   7.456   1.005
65994SOL     OW99813   8.410  13.950   8.716
65994SOL    HW199814   8.316  13.961   8.732
65994SOL    HW299815   8.448  13.939   8.803
65995SOL     OW99816   8.831   0.797   5.824
65995SOL    HW199817   8.874   0.785   5.739
65995SOL    HW299818   8.765   0.728   5.828
65996SOL     OW99819  13.880   5.859  10.338
65996SOL    HW199820  13.965   5.835  10.301
65996SOL    HW299821  13.850   5.781  10.384
65997SOL     OW99822  13.313  14.602   0.926
65997SOL    HW199823  13.260  14.524   0.940
65997SOL    HW299824  13.255  14.675   0.947
65998SOL     OW99825  12.434   7.177   2.892
65998SOL    HW199826  12.410   7.105   2.835
65998SOL    HW299827  12.393   7.254   2.853
65999SOL     OW99828   3.342  11.222   6.336
65999SOL    HW199829   3.251  11.193   6.331
65999SOL    HW299830   3.380  11.169   6.406
66000SOL     OW99831   8.120   8.979  13.493
66000SOL    HW199832   8.140   8.945  13.406
66000SOL    HW299833   8.201   8.963  13.543
66001SOL     OW99834   2.118  14.503   0.102
66001SOL    HW199835   2.204  14.462   0.090
66001SOL    HW299836   2.056  14.430   0.100
66002SOL     OW99837   5.845   8.003   3.609
66002SOL    HW199838   5.886   7.955   3.681
66002SOL    HW299839   5.891   8.087   3.607
66003SOL     OW99840  12.338  13.686   2.396
66003SOL    HW199841  12.406  13.753   2.401
66003SOL    HW299842  12.376  13.610   2.440
66004SOL     OW99843  12.782   3.195  10.583
66004SOL    HW199844  12.823   3.116  10.618
66004SOL    HW299845  12.756   3.172  10.494
66005SOL     OW99846  11.232   4.857   5.643
66005SOL    HW199847  11.196   4.785   5.694
66005SOL    HW299848  11.229   4.932   5.702
66006SOL     OW99849   9.509   2.604  12.794
66006SOL    HW199850   9.498   2.694  12.826
66006SOL    HW299851   9.428   2.586  12.746
66007SOL     OW99852   3.154   5.228   2.150
66007SOL    HW199853   3.061   5.212   2.162
66007SOL    HW299854   3.167   5.230   2.055
66008SOL     OW99855   8.837   1.483   1.386
66008SOL    HW199856   8.753   1.517   1.355
66008SOL    HW299857   8.897   1.499   1.313
66009SOL     OW99858  12.851   3.564  14.102
66009SOL    HW199859  12.926   3.624  14.109
66009SOL    HW299860  12.794   3.589  14.175
66010SOL     OW99861   1.211   4.938  11.094
66010SOL    HW199862   1.267   4.941  11.171
66010SOL    HW299863   1.175   4.849  11.093
66011SOL     OW99864   5.022   0.958   7.096
66011SOL    HW199865   4.979   1.039   7.069
66011SOL    HW299866   4.987   0.941   7.183
66012SOL     OW99867   5.533  11.571   0.106
66012SOL    HW199868   5.526  11.667   0.106
66012SOL    HW299869   5.478  11.543   0.032
66013SOL     OW99870  13.161   7.520   9.650
66013SOL    HW199871  13.099   7.585   9.617
66013SOL    HW299872  13.199   7.560   9.727
66014SOL     OW99873   3.665   9.047   0.738
66014SOL    HW199874   3.604   8.996   0.684
66014SOL    HW299875   3.746   8.996   0.737
66015SOL     OW99876   5.789   1.450   9.476
66015SOL    HW199877   5.799   1.543   9.496
66015SOL    HW299878   5.835   1.437   9.394
66016SOL     OW99879  14.089  14.422   1.301
66016SOL    HW199880  14.060  14.510   1.278
66016SOL    HW299881  14.100  14.423   1.396
66017SOL     OW99882   3.189   6.459  10.281
66017SOL    HW199883   3.142   6.386  10.242
66017SOL    HW299884   3.214   6.514  10.207
66018SOL     OW99885   1.776   7.931   6.233
66018SOL    HW199886   1.794   7.849   6.187
66018SOL    HW299887   1.742   7.989   6.165
66019SOL     OW99888   1.726   6.649   1.811
66019SOL    HW199889   1.688   6.695   1.736
66019SOL    HW299890   1.705   6.557   1.796
66020SOL     OW99891   8.070   6.758  10.430
66020SOL    HW199892   8.157   6.779  10.465
66020SOL    HW299893   8.028   6.843  10.419
66021SOL     OW99894   4.450  14.173   5.611
66021SOL    HW199895   4.537  14.203   5.585
66021SOL    HW299896   4.454  14.078   5.604
66022SOL     OW99897   5.588  12.447   7.547
66022SOL    HW199898   5.529  12.521   7.534
66022SOL    HW299899   5.569  12.387   7.474
66023SOL     OW99900   1.555  12.475   7.338
66023SOL    HW199901   1.599  12.414   7.279
66023SOL    HW299902   1.521  12.419   7.409
66024SOL     OW99903   7.834   6.114  10.073
66024SOL    HW199904   7.922   6.138  10.045
66024SOL    HW299905   7.793   6.197  10.097
66025SOL     OW99906   5.817   6.931  13.348
66025SOL    HW199907   5.865   6.952  13.428
66025SOL    HW299908   5.876   6.958  13.278
66026SOL     OW99909   3.979   7.614   7.225
66026SOL    HW199910   3.897   7.586   7.183
66026SOL    HW299911   4.023   7.533   7.249
66027SOL     OW99912  12.974  14.493   5.363
66027SOL    HW199913  12.928  14.559   5.310
66027SOL    HW299914  13.023  14.441   5.299
66028SOL     OW99915  12.848   1.732   6.512
66028SOL    HW199916  12.785   1.688   6.568
66028SOL    HW299917  12.933   1.719   6.555
66029SOL     OW99918   9.992   7.978  12.309
66029SOL    HW199919  10.082   7.973  12.341
66029SOL    HW299920   9.993   7.932  12.225
66030SOL     OW99921  13.312  10.435   6.195
66030SOL    HW199922  13.245  10.368   6.210
66030SOL    HW299923  13.379  10.418   6.260
66031SOL     OW99924   1.886  12.554   1.045
66031SOL    HW199925   1.949  12.483   1.042
66031SOL    HW299926   1.939  12.634   1.047
66032SOL     OW99927   8.802   8.168   6.045
66032SOL    HW199928   8.778   8.255   6.076
66032SOL    HW299929   8.778   8.110   6.118
66033SOL     OW99930   3.027   2.353  13.451
66033SOL    HW199931   3.018   2.394  13.537
66033SOL    HW299932   3.026   2.259  13.469
66034SOL     OW99933   0.770   9.579   3.624
66034SOL    HW199934   0.839   9.618   3.571
66034SOL    HW299935   0.816   9.518   3.683
66035SOL     OW99936  12.035  13.078   3.378
66035SOL    HW199937  12.020  13.165   3.341
66035SOL    HW299938  11.989  13.018   3.320
66036SOL     OW99939  12.948  12.321   3.661
66036SOL    HW199940  12.923  12.402   3.706
66036SOL    HW299941  12.979  12.350   3.576
66037SOL     OW99942   3.888  13.187   0.208
66037SOL    HW199943   3.887  13.132   0.130
66037SOL    HW299944   3.809  13.241   0.201
66038SOL     OW99945   8.504   9.150   6.825
66038SOL    HW199946   8.477   9.233   6.786
66038SOL    HW299947   8.437   9.087   6.797
66039SOL     OW99948  14.506   2.492   3.415
66039SOL    HW199949  14.453   2.561   3.453
66039SOL    HW299950  14.571   2.472   3.483
66040SOL     OW99951   3.004   0.871   4.927
66040SOL    HW199952   2.966   0.873   4.839
66040SOL    HW299953   3.054   0.953   4.932
66041SOL     OW99954  11.953   1.438  12.083
66041SOL    HW199955  11.956   1.356  12.132
66041SOL    HW299956  11.986   1.415  11.996
66042SOL     OW99957   8.978   9.930  13.877
66042SOL    HW199958   8.947   9.855  13.826
66042SOL    HW299959   9.018   9.891  13.955
66043SOL     OW99960   8.997   4.130   9.178
66043SOL    HW199961   8.991   4.049   9.230
66043SOL    HW299962   8.913   4.174   9.194
66044SOL     OW99963   5.950  13.854   4.483
66044SOL    HW199964   5.925  13.946   4.490
66044SOL    HW299965   6.045  13.855   4.476
66045SOL     OW99966  12.431  10.967   3.379
66045SOL    HW199967  12.491  11.025   3.331
66045SOL    HW299968  12.455  10.977   3.471
66046SOL     OW99969  11.930  12.169   7.021
66046SOL    HW199970  12.000  12.222   6.983
66046SOL    HW299971  11.905  12.216   7.101
66047SOL     OW99972   4.612  11.201  13.737
66047SOL    HW199973   4.687  11.167  13.688
66047SOL    HW299974   4.537  11.156  13.700
66048SOL     OW99975   2.162   6.601   8.548
66048SOL    HW199976   2.155   6.674   8.609
66048SOL    HW299977   2.239   6.552   8.576
66049SOL     OW99978  14.819   7.255  10.135
66049SOL    HW199979  14.785   7.294  10.216
66049SOL    HW299980  14.857   7.329  10.087
66050SOL     OW99981   4.728   0.866   1.006
66050SOL    HW199982   4.676   0.936   0.966
66050SOL    HW299983   4.691   0.785   0.971
66051SOL     OW99984  13.559   8.798   8.901
66051SOL    HW199985  13.500   8.795   8.826
66051SOL    HW299986  13.605   8.881   8.892
66052SOL     OW99987   7.487   2.112   9.474
66052SOL    HW199988   7.470   2.158   9.556
66052SOL    HW299989   7.451   2.168   9.406
66053SOL     OW99990   3.306   7.850  13.453
66053SOL    HW199991   3.303   7.798  13.372
66053SOL    HW299992   3.395   7.883  13.457
66054SOL     OW99993   3.128   8.024   1.278
66054SOL    HW199994   3.161   8.011   1.367
66054SOL    HW299995   3.036   7.998   1.283
66055SOL     OW99996   9.657  10.742   8.209
66055SOL    HW199997   9.671  10.651   8.235
66055SOL    HW299998   9.666  10.792   8.290
66056SOL     OW99999   9.458   4.965   7.629
66056SOL    HW1    0   9.461   4.869   7.630
66056SOL    HW2    1   9.531   4.992   7.685
66057SOL     OW    2  11.054   0.465   5.861
66057SOL    HW1    3  11.046   0.467   5.956
66057SOL    HW2    4  11.000   0.390   5.834
66058SOL     OW    5   1.311   0.202   2.409
66058SOL    HW1    6   1.286   0.252   2.486
66058SOL    HW2    7   1.359   0.126   2.444
66059SOL     OW    8   7.506   6.253   1.824
66059SOL    HW1    9   7.531   6.195   1.751
66059SOL    HW2   10   7.561   6.331   1.812
66060SOL     OW   11   7.733  11.984   3.066
66060SOL    HW1   12   7.734  11.912   3.129
66060SOL    HW2   13   7.826  11.999   3.045
66061SOL     OW   14  11.544  10.584  11.061
66061SOL    HW1   15  11.608  10.631  11.113
66061SOL    HW2   16  11.575  10.593  10.971
66062SOL     OW   17   1.272   5.024   8.861
66062SOL    HW1   18   1.181   4.996   8.849
66062SOL    HW2   19   1.268   5.092   8.928
66063SOL     OW   20   4.507  10.369  14.434
66063SOL    HW1   21   4.438  10.307  14.408
66063SOL    HW2   22   4.580  10.313  14.460
66064SOL     OW   23   9.520   6.428   8.111
66064SOL    HW1   24   9.475   6.398   8.190
66064SOL    HW2   25   9.509   6.523   8.112
66065SOL     OW   26   3.825   2.744  13.782
66065SOL    HW1   27   3.830   2.693  13.701
66065SOL    HW2   28   3.874   2.824  13.763
66066SOL     OW   29  13.069   6.627  10.121
66066SOL    HW1   30  13.035   6.625  10.211
66066SOL    HW2   31  13.085   6.719  10.103
66067SOL     OW   32   3.624   4.367   7.958
66067SOL    HW1   33   3.679   4.434   7.918
66067SOL    HW2   34   3.599   4.405   8.043
66068SOL     OW   35   4.758  14.709   3.761
66068SOL    HW1   36   4.830  14.772   3.768
66068SOL    HW2   37   4.689  14.746   3.816
66069SOL     OW   38  12.236  12.892   0.403
66069SOL    HW1   39  12.295  12.895   0.327
66069SOL    HW2   40  12.281  12.943   0.470
66070SOL     OW   41   9.084  10.010  13.642
66070SOL    HW1   42   9.071   9.990  13.734
66070SOL    HW2   43   9.177  10.033  13.634
66071SOL     OW   44  14.760   1.835   3.097
66071SOL    HW1   45  14.700   1.760   3.101
66071SOL    HW2   46  14.764   1.858   3.004
66072SOL     OW   47  14.290   5.475   9.953
66072SOL    HW1   48  14.354   5.547   9.957
66072SOL    HW2   49  14.298   5.441   9.864
66073SOL     OW   50   4.444  12.916   3.367
66073SOL    HW1   51   4.368  12.943   3.418
66073SOL    HW2   52   4.448  12.979   3.295
66074SOL     OW   53  11.919   5.068   8.439
66074SOL    HW1   54  12.000   5.051   8.391
66074SOL    HW2   55  11.870   4.986   8.432
66075SOL     OW   56   9.653   0.099   1.815
66075SOL    HW1   57   9.692   0.024   1.769
66075SOL    HW2   58   9.713   0.171   1.798
66076SOL     OW   59  10.755   9.766  10.265
66076SOL    HW1   60  10.718   9.721  10.189
66076SOL    HW2   61  10.834   9.717  10.286
66077SOL     OW   62   8.603   2.469   1.450
66077SOL    HW1   63   8.654   2.511   1.381
66077SOL    HW2   64   8.539   2.534   1.476
66078SOL     OW   65  12.053   8.134   9.954
66078SOL    HW1   66  12.093   8.219   9.935
66078SOL    HW2   67  12.097   8.072   9.896
66079SOL     OW   68   4.059   8.658   6.802
66079SOL    HW1   69   3.987   8.644   6.864
66079SOL    HW2   70   4.072   8.573   6.761
66080SOL     OW   71   7.649   7.358  12.963
66080SOL    HW1   72   7.621   7.416  12.892
66080SOL    HW2   73   7.736   7.327  12.935
66081SOL     OW   74   1.835   6.496   6.535
66081SOL    HW1   75   1.895   6.434   6.493
66081SOL    HW2   76   1.796   6.544   6.462
66082SOL     OW   77  12.661   9.683   6.128
66082SOL    HW1   78  12.593   9.750   6.136
66082SOL    HW2   79  12.734   9.716   6.182
66083SOL     OW   80   6.966   8.049   9.383
66083SOL    HW1   81   6.900   8.090   9.439
66083SOL    HW2   82   6.942   8.074   9.295
66084SOL     OW   83  11.648   6.733   0.825
66084SOL    HW1   84  11.674   6.662   0.766
66084SOL    HW2   85  11.636   6.809   0.769
66085SOL     OW   86   0.084   8.308   1.069
66085SOL    HW1   87   0.047   8.319   1.156
66085SOL    HW2   88   0.110   8.215   1.066
66086SOL     OW   89  14.336  11.070  11.688
66086SOL    HW1   90  14.415  11.116  11.659
66086SOL    HW2   91  14.265  11.133  11.675
66087SOL     OW   92   6.161   2.981  10.056
66087SOL    HW1   93   6.184   3.062  10.101
66087SOL    HW2   94   6.068   2.968  10.077
66088SOL     OW   95   7.843   9.994   9.321
66088SOL    HW1   96   7.754   9.981   9.288
66088SOL    HW2   97   7.879   9.906   9.329
66089SOL     OW   98   5.592   1.502  10.445
66089SOL    HW1   99   5.528   1.476  10.512
66089SOL    HW2  100   5.677   1.481  10.484
66090SOL     OW  101   3.996  13.257   9.689
66090SOL    HW1  102   4.052  13.333   9.672
66090SOL    HW2  103   4.005  13.243   9.784
66091SOL     OW  104   9.881  10.926   8.117
66091SOL    HW1  105   9.834  10.858   8.165
66091SOL    HW2  106   9.812  10.983   8.082
66092SOL     OW  107  13.311   3.480  12.514
66092SOL    HW1  108  13.351   3.400  12.548
66092SOL    HW2  109  13.288   3.530  12.593
66093SOL     OW  110  14.707  13.391   2.552
66093SOL    HW1  111  14.790  13.404   2.597
66093SOL    HW2  112  14.720  13.426   2.464
66094SOL     OW  113   2.100   7.128   2.557
66094SOL    HW1  114   2.027   7.147   2.498
66094SOL    HW2  115   2.178   7.139   2.501
66095SOL     OW  116   0.466   2.517   5.239
66095SOL    HW1  117   0.407   2.592   5.232
66095SOL    HW2  118   0.513   2.516   5.156
66096SOL     OW  119   7.009  12.875   2.259
66096SOL    HW1  120   7.029  12.782   2.269
66096SOL    HW2  121   6.923  12.876   2.216
66097SOL     OW  122  11.102   0.419  12.443
66097SOL    HW1  123  11.024   0.373  12.474
66097SOL    HW2  124  11.166   0.409  12.514
66098SOL     OW  125   6.766  14.235   5.363
66098SOL    HW1  126   6.779  14.147   5.399
66098SOL    HW2  127   6.831  14.244   5.294
66099SOL     OW  128   9.948   3.442   1.482
66099SOL    HW1  129   9.932   3.444   1.576
66099SOL    HW2  130  10.043   3.454   1.474
66100SOL     OW  131   6.198   1.215   9.079
66100SOL    HW1  132   6.144   1.137   9.067
66100SOL    HW2  133   6.286   1.188   9.051
66101SOL     OW  134   4.489  10.336  13.001
66101SOL    HW1  135   4.539  10.413  12.975
66101SOL    HW2  136   4.490  10.338  13.097
66102SOL     OW  137  13.304   0.230  11.362
66102SOL    HW1  138  13.329   0.150  11.317
66102SOL    HW2  139  13.378   0.290  11.347
66103SOL     OW  140   3.709  13.286  13.325
66103SOL    HW1  141   3.675  13.311  13.411
66103SOL    HW2  142   3.676  13.353  13.265
66104SOL     OW  143   7.446   5.792   2.802
66104SOL    HW1  144   7.451   5.862   2.737
66104SOL    HW2  145   7.443   5.711   2.751
66105SOL     OW  146   0.989   8.787  12.185
66105SOL    HW1  147   1.017   8.765  12.274
66105SOL    HW2  148   1.059   8.752  12.130
66106SOL     OW  149   1.501   3.876  11.982
66106SOL    HW1  150   1.498   3.972  11.983
66106SOL    HW2  151   1.409   3.850  11.979
66107SOL     OW  152   9.770  13.582  13.043
66107SOL    HW1  153   9.797  13.500  13.084
66107SOL    HW2  154   9.693  13.560  12.992
66108SOL     OW  155  12.423   8.049   7.112
66108SOL    HW1  156  12.434   8.039   7.206
66108SOL    HW2  157  12.332   8.075   7.101
66109SOL     OW  158   2.959  12.970   7.472
66109SOL    HW1  159   2.940  13.064   7.479
66109SOL    HW2  160   2.873  12.928   7.484
66110SOL     OW  161   7.474   2.489   4.342
66110SOL    HW1  162   7.469   2.554   4.273
66110SOL    HW2  163   7.514   2.413   4.300
66111SOL     OW  164   6.852  11.984   8.075
66111SOL    HW1  165   6.946  11.969   8.062
66111SOL    HW2  166   6.847  12.063   8.129
66112SOL     OW  167   6.110   4.205  14.219
66112SOL    HW1  168   6.081   4.213  14.128
66112SOL    HW2  169   6.029   4.196  14.269
66113SOL     OW  170   4.150   1.925   4.825
66113SOL    HW1  171   4.217   1.877   4.776
66113SOL    HW2  172   4.195   2.003   4.856
66114SOL     OW  173   1.100   6.673  14.800
66114SOL    HW1  174   1.075   6.720  14.720
66114SOL    HW2  175   1.140   6.740  14.856
66115SOL     OW  176   7.846   5.437   7.240
66115SOL    HW1  177   7.875   5.350   7.267
66115SOL    HW2  178   7.910   5.497   7.277
66116SOL     OW  179   9.710  10.214   5.304
66116SOL    HW1  180   9.770  10.190   5.234
66116SOL    HW2  181   9.657  10.136   5.319
66117SOL     OW  182  10.509   7.293   2.177
66117SOL    HW1  183  10.503   7.249   2.093
66117SOL    HW2  184  10.486   7.226   2.242
66118SOL     OW  185   0.883   4.807   3.689
66118SOL    HW1  186   0.833   4.756   3.626
66118SOL    HW2  187   0.973   4.805   3.656
66119SOL     OW  188   2.807  14.868   9.280
66119SOL    HW1  189   2.801  14.853   9.186
66119SOL    HW2  190   2.716  14.874   9.310
66120SOL     OW  191   5.698   3.226   3.757
66120SOL    HW1  192   5.730   3.306   3.798
66120SOL    HW2  193   5.753   3.215   3.679
66121SOL     OW  194   1.760  11.225  10.249
66121SOL    HW1  195   1.733  11.315  10.271
66121SOL    HW2  196   1.693  11.170  10.290
66122SOL     OW  197  12.707   3.360   3.379
66122SOL    HW1  198  12.743   3.392   3.462
66122SOL    HW2  199  12.619   3.330   3.401
66123SOL     OW  200  12.569   9.459   7.193
66123SOL    HW1  201  12.642   9.419   7.147
66123SOL    HW2  202  12.520   9.505   7.125
66124SOL     OW  203   5.208  10.262  11.530
66124SOL    HW1  204   5.186  10.339  11.582
66124SOL    HW2  205   5.304  10.258  11.533
66125SOL     OW  206  10.024   2.540   7.293
66125SOL    HW1  207   9.973   2.595   7.352
66125SOL    HW2  208  10.056   2.469   7.348
66126SOL     OW  209   4.710  13.119   1.124
66126SOL    HW1  210   4.799  13.100   1.154
66126SOL    HW2  211   4.686  13.199   1.170
66127SOL     OW  212  10.141   9.055   7.032
66127SOL    HW1  213  10.046   9.059   7.041
66127SOL    HW2  214  10.167   9.143   7.005
66128SOL     OW  215   2.996   5.717   6.285
66128SOL    HW1  216   2.975   5.672   6.367
66128SOL    HW2  217   3.064   5.663   6.245
66129SOL     OW  218   4.788  13.465  12.070
66129SOL    HW1  219   4.869  13.434  12.032
66129SOL    HW2  220   4.787  13.430  12.159
66130SOL     OW  221   7.363   2.172   2.662
66130SOL    HW1  222   7.269   2.154   2.655
66130SOL    HW2  223   7.394   2.172   2.571
66131SOL     OW  224   4.531   1.644  14.718
66131SOL    HW1  225   4.581   1.725  14.713
66131SOL    HW2  226   4.477   1.643  14.640
66132SOL     OW  227   2.508   8.165   0.215
66132SOL    HW1  228   2.513   8.095   0.280
66132SOL    HW2  229   2.492   8.244   0.267
66133SOL     OW  230   3.569   2.793   5.160
66133SOL    HW1  231   3.483   2.772   5.125
66133SOL    HW2  232   3.617   2.711   5.157
66134SOL     OW  233  12.593   1.990   8.649
66134SOL    HW1  234  12.582   2.083   8.629
66134SOL    HW2  235  12.607   1.988   8.744
66135SOL     OW  236   6.838   4.805   6.696
66135SOL    HW1  237   6.869   4.832   6.783
66135SOL    HW2  238   6.768   4.867   6.675
66136SOL     OW  239  12.923   7.805  12.297
66136SOL    HW1  240  12.882   7.827  12.381
66136SOL    HW2  241  13.005   7.856  12.296
66137SOL     OW  242   9.269  12.374  13.635
66137SOL    HW1  243   9.304  12.456  13.670
66137SOL    HW2  244   9.242  12.324  13.712
66138SOL     OW  245   3.486  11.480   2.019
66138SOL    HW1  246   3.412  11.420   2.026
66138SOL    HW2  247   3.518  11.469   1.930
66139SOL     OW  248   1.679   3.148   3.367
66139SOL    HW1  249   1.751   3.162   3.429
66139SOL    HW2  250   1.698   3.063   3.326
66140SOL     OW  251   3.998   0.252  10.005
66140SOL    HW1  252   3.970   0.214   9.922
66140SOL    HW2  253   3.917   0.269  10.053
66141SOL     OW  254   1.062  14.098   2.089
66141SOL    HW1  255   1.101  14.032   2.032
66141SOL    HW2  256   0.968  14.089   2.076
66142SOL     OW  257   1.152   1.337   5.478
66142SOL    HW1  258   1.188   1.271   5.420
66142SOL    HW2  259   1.189   1.419   5.447
66143SOL     OW  260  12.106  12.306   4.760
66143SOL    HW1  261  12.200  12.294   4.772
66143SOL    HW2  262  12.074  12.221   4.730
66144SOL     OW  263   0.753  11.579  11.593
66144SOL    HW1  264   0.814  11.614  11.657
66144SOL    HW2  265   0.672  11.565  11.641
66145SOL     OW  266   3.465   9.634   8.674
66145SOL    HW1  267   3.474   9.602   8.584
66145SOL    HW2  268   3.493   9.561   8.729
66146SOL     OW  269   2.800  10.651   4.789
66146SOL    HW1  270   2.826  10.611   4.872
66146SOL    HW2  271   2.797  10.578   4.727
66147SOL     OW  272   1.272  12.071   2.147
66147SOL    HW1  273   1.282  11.980   2.176
66147SOL    HW2  274   1.202  12.067   2.081
66148SOL     OW  275   9.347   8.471   0.771
66148SOL    HW1  276   9.263   8.465   0.726
66148SOL    HW2  277   9.351   8.392   0.825
66149SOL     OW  278   7.171   3.524   6.461
66149SOL    HW1  279   7.081   3.541   6.435
66149SOL    HW2  280   7.169   3.521   6.557
66150SOL     OW  281  14.359   6.924   0.676
66150SOL    HW1  282  14.363   6.833   0.650
66150SOL    HW2  283  14.357   6.973   0.594
66151SOL     OW  284   6.601  13.764   6.009
66151SOL    HW1  285   6.576  13.704   6.079
66151SOL    HW2  286   6.688  13.794   6.032
66152SOL     OW  287   0.249   7.510   0.430
66152SOL    HW1  288   0.198   7.575   0.380
66152SOL    HW2  289   0.270   7.442   0.366
66153SOL     OW  290  12.967   9.014   1.058
66153SOL    HW1  291  12.941   9.102   1.087
66153SOL    HW2  292  13.016   9.028   0.977
66154SOL     OW  293   5.965   9.008   1.110
66154SOL    HW1  294   6.036   8.944   1.108
66154SOL    HW2  295   5.977   9.059   1.030
66155SOL     OW  296   3.759  10.471  13.116
66155SOL    HW1  297   3.736  10.509  13.031
66155SOL    HW2  298   3.832  10.413  13.098
66156SOL     OW  299   6.807   8.613   0.859
66156SOL    HW1  300   6.754   8.593   0.936
66156SOL    HW2  301   6.832   8.705   0.870
66157SOL     OW  302  12.609   3.473   0.579
66157SOL    HW1  303  12.586   3.526   0.502
66157SOL    HW2  304  12.527   3.464   0.627
66158SOL     OW  305   1.419   9.267   9.892
66158SOL    HW1  306   1.450   9.356   9.912
66158SOL    HW2  307   1.474   9.210   9.946
66159SOL     OW  308   0.932   8.322  12.678
66159SOL    HW1  309   0.978   8.331  12.761
66159SOL    HW2  310   0.919   8.412  12.648
66160SOL     OW  311   8.410   5.299   5.653
66160SOL    HW1  312   8.435   5.388   5.676
66160SOL    HW2  313   8.459   5.279   5.574
66161SOL     OW  314  12.828   9.303   0.755
66161SOL    HW1  315  12.741   9.271   0.777
66161SOL    HW2  316  12.840   9.380   0.811
66162SOL     OW  317  10.238   9.003   0.271
66162SOL    HW1  318  10.296   8.948   0.324
66162SOL    HW2  319  10.287   9.018   0.190
66163SOL     OW  320   5.595  12.526   7.180
66163SOL    HW1  321   5.554  12.467   7.118
66163SOL    HW2  322   5.541  12.606   7.177
66164SOL     OW  323   0.334   4.058   0.409
66164SOL    HW1  324   0.302   3.970   0.389
66164SOL    HW2  325   0.380   4.047   0.493
66165SOL     OW  326   7.220  11.027  14.731
66165SOL    HW1  327   7.186  11.072  14.808
66165SOL    HW2  328   7.311  11.056  14.725
66166SOL     OW  329  14.485  12.327  11.550
66166SOL    HW1  330  14.492  12.419  11.522
66166SOL    HW2  331  14.399  12.321  11.591
66167SOL     OW  332  12.251   7.321   3.092
66167SOL    HW1  333  12.213   7.388   3.149
66167SOL    HW2  334  12.235   7.352   3.003
66168SOL     OW  335  10.849   2.803  11.946
66168SOL    HW1  336  10.843   2.894  11.917
66168SOL    HW2  337  10.782   2.794  12.014
66169SOL     OW  338   1.572   3.763   0.730
66169SOL    HW1  339   1.476   3.764   0.732
66169SOL    HW2  340   1.597   3.761   0.822
66170SOL     OW  341   7.545  12.045   7.259
66170SOL    HW1  342   7.554  11.957   7.221
66170SOL    HW2  343   7.619  12.053   7.318
66171SOL     OW  344   6.660   2.814   5.508
66171SOL    HW1  345   6.606   2.849   5.579
66171SOL    HW2  346   6.698   2.734   5.544
66172SOL     OW  347   7.361  11.218   5.662
66172SOL    HW1  348   7.306  11.143   5.684
66172SOL    HW2  349   7.415  11.232   5.740
66173SOL     OW  350   4.510   7.162   6.613
66173SOL    HW1  351   4.460   7.220   6.670
66173SOL    HW2  352   4.595   7.154   6.655
66174SOL     OW  353   7.771  13.727   0.648
66174SOL    HW1  354   7.722  13.805   0.621
66174SOL    HW2  355   7.852  13.762   0.687
66175SOL     OW  356   1.356  12.787   6.909
66175SOL    HW1  357   1.436  12.775   6.959
66175SOL    HW2  358   1.287  12.753   6.966
66176SOL     OW  359  12.180   8.377   0.023
66176SOL    HW1  360  12.228   8.349  14.821
66176SOL    HW2  361  12.108   8.314   0.030
66177SOL     OW  362   0.957   5.450   9.684
66177SOL    HW1  363   1.030   5.421   9.738
66177SOL    HW2  364   0.932   5.535   9.720
66178SOL     OW  365  10.538   6.258   9.968
66178SOL    HW1  366  10.445   6.255   9.991
66178SOL    HW2  367  10.557   6.351   9.959
66179SOL     OW  368   6.551   8.684   4.480
66179SOL    HW1  369   6.521   8.759   4.430
66179SOL    HW2  370   6.471   8.637   4.504
66180SOL     OW  371   9.834   0.422   8.340
66180SOL    HW1  372   9.807   0.456   8.425
66180SOL    HW2  373   9.758   0.433   8.284
66181SOL     OW  374  12.004   0.734   5.649
66181SOL    HW1  375  11.971   0.644   5.649
66181SOL    HW2  376  11.926   0.788   5.634
66182SOL     OW  377  12.165   7.144   7.870
66182SOL    HW1  378  12.125   7.060   7.893
66182SOL    HW2  379  12.259   7.129   7.877
66183SOL     OW  380   3.365   5.600   6.509
66183SOL    HW1  381   3.323   5.519   6.538
66183SOL    HW2  382   3.369   5.655   6.587
66184SOL     OW  383   8.709   5.899  14.095
66184SOL    HW1  384   8.685   5.991  14.091
66184SOL    HW2  385   8.640   5.858  14.148
66185SOL     OW  386   8.005   6.217   3.816
66185SOL    HW1  387   7.930   6.200   3.759
66185SOL    HW2  388   8.081   6.211   3.758
66186SOL     OW  389  12.395  12.886  12.176
66186SOL    HW1  390  12.374  12.942  12.101
66186SOL    HW2  391  12.361  12.800  12.151
66187SOL     OW  392  10.057  14.838   9.332
66187SOL    HW1  393  10.055  14.751   9.293
66187SOL    HW2  394  10.073   0.021   9.258
66188SOL     OW  395   4.341   1.859   9.279
66188SOL    HW1  396   4.345   1.898   9.192
66188SOL    HW2  397   4.366   1.930   9.338
66189SOL     OW  398   3.218   9.399   8.405
66189SOL    HW1  399   3.230   9.401   8.500
66189SOL    HW2  400   3.231   9.490   8.378
66190SOL     OW  401  14.555   2.186  14.204
66190SOL    HW1  402  14.582   2.258  14.262
66190SOL    HW2  403  14.523   2.119  14.264
66191SOL     OW  404   0.981  10.920  11.142
66191SOL    HW1  405   1.041  10.921  11.216
66191SOL    HW2  406   1.037  10.909  11.065
66192SOL     OW  407   4.341   5.337   2.802
66192SOL    HW1  408   4.351   5.429   2.781
66192SOL    HW2  409   4.252   5.315   2.774
66193SOL     OW  410   8.835   6.472   0.103
66193SOL    HW1  411   8.752   6.494   0.145
66193SOL    HW2  412   8.894   6.454   0.176
66194SOL     OW  413   8.775  13.012  14.167
66194SOL    HW1  414   8.679  13.022  14.161
66194SOL    HW2  415   8.805  13.095  14.204
66195SOL     OW  416   6.632  14.358  13.246
66195SOL    HW1  417   6.566  14.325  13.186
66195SOL    HW2  418   6.685  14.281  13.269
66196SOL     OW  419  10.645  13.502   6.787
66196SOL    HW1  420  10.609  13.541   6.867
66196SOL    HW2  421  10.605  13.551   6.716
66197SOL     OW  422   7.951   8.074  12.236
66197SOL    HW1  423   7.909   8.055  12.320
66197SOL    HW2  424   8.037   8.034  12.243
66198SOL     OW  425  14.023   0.023   5.727
66198SOL    HW1  426  14.114   0.023   5.697
66198SOL    HW2  427  14.022  14.838   5.801
66199SOL     OW  428  14.632   9.408  10.627
66199SOL    HW1  429  14.621   9.481  10.566
66199SOL    HW2  430  14.544   9.373  10.639
66200SOL     OW  431   2.088   0.107   8.812
66200SOL    HW1  432   2.161   0.066   8.765
66200SOL    HW2  433   2.092   0.199   8.786
66201SOL     OW  434  12.834   4.882   9.034
66201SOL    HW1  435  12.777   4.872   8.958
66201SOL    HW2  436  12.779   4.924   9.100
66202SOL     OW  437   7.101   1.884  10.039
66202SOL    HW1  438   7.145   1.969  10.052
66202SOL    HW2  439   7.076   1.857  10.127
66203SOL     OW  440   6.675  12.887  10.844
66203SOL    HW1  441   6.712  12.970  10.816
66203SOL    HW2  442   6.663  12.837  10.762
66204SOL     OW  443  14.706  14.583   0.231
66204SOL    HW1  444  14.675  14.545   0.149
66204SOL    HW2  445  14.801  14.584   0.222
66205SOL     OW  446  13.270   8.768   6.882
66205SOL    HW1  447  13.324   8.844   6.859
66205SOL    HW2  448  13.268   8.715   6.802
66206SOL     OW  449   9.408   7.316  13.437
66206SOL    HW1  450   9.396   7.240  13.493
66206SOL    HW2  451   9.416   7.279  13.349
66207SOL     OW  452  11.693   5.580  11.458
66207SOL    HW1  453  11.597   5.581  11.452
66207SOL    HW2  454  11.714   5.660  11.507
66208SOL     OW  455  12.326   3.083  13.816
66208SOL    HW1  456  12.283   3.017  13.870
66208SOL    HW2  457  12.274   3.162  13.828
66209SOL     OW  458   5.393  14.316  12.007
66209SOL    HW1  459   5.314  14.349  12.050
66209SOL    HW2  460   5.452  14.294  12.079
66210SOL     OW  461   4.079   0.199   9.439
66210SOL    HW1  462   4.126   0.168   9.362
66210SOL    HW2  463   4.001   0.243   9.404
66211SOL     OW  464   8.712  10.322   7.402
66211SOL    HW1  465   8.694  10.407   7.443
66211SOL    HW2  466   8.637  10.268   7.424
66212SOL     OW  467   5.409   8.290  13.336
66212SOL    HW1  468   5.368   8.210  13.368
66212SOL    HW2  469   5.371   8.303  13.249
66213SOL     OW  470   0.803   3.057   7.728
66213SOL    HW1  471   0.857   2.990   7.771
66213SOL    HW2  472   0.731   3.072   7.789
66214SOL     OW  473  11.670   6.724   0.413
66214SOL    HW1  474  11.611   6.798   0.396
66214SOL    HW2  475  11.758   6.759   0.399
66215SOL     OW  476  12.046   9.090   0.185
66215SOL    HW1  477  12.097   9.016   0.218
66215SOL    HW2  478  11.974   9.050   0.138
66216SOL     OW  479   8.397   3.894   0.631
66216SOL    HW1  480   8.476   3.845   0.654
66216SOL    HW2  481   8.427   3.959   0.568
66217SOL     OW  482   5.306  14.442   0.107
66217SOL    HW1  483   5.291  14.459   0.014
66217SOL    HW2  484   5.401  14.449   0.118
66218SOL     OW  485   0.319   8.900  12.162
66218SOL    HW1  486   0.386   8.967  12.175
66218SOL    HW2  487   0.350   8.825  12.214
66219SOL     OW  488  14.767   0.215  14.268
66219SOL    HW1  489  14.777   0.129  14.310
66219SOL    HW2  490  14.856   0.250  14.263
66220SOL     OW  491   1.125   3.342  10.139
66220SOL    HW1  492   1.116   3.331  10.044
66220SOL    HW2  493   1.149   3.434  10.150
66221SOL     OW  494  13.868   4.287  10.792
66221SOL    HW1  495  13.883   4.267  10.700
66221SOL    HW2  496  13.840   4.379  10.792
66222SOL     OW  497   8.835   1.897   1.695
66222SOL    HW1  498   8.744   1.888   1.722
66222SOL    HW2  499   8.832   1.947   1.614
66223SOL     OW  500  10.798  11.833   8.559
66223SOL    HW1  501  10.745  11.777   8.503
66223SOL    HW2  502  10.742  11.908   8.578
66224SOL     OW  503   7.349   9.188  14.862
66224SOL    HW1  504   7.255   9.175  14.847
66224SOL    HW2  505   7.391   9.136  14.794
66225SOL     OW  506  13.863  11.761   0.543
66225SOL    HW1  507  13.844  11.667   0.542
66225SOL    HW2  508  13.780  11.802   0.567
66226SOL     OW  509   7.562   8.645   5.545
66226SOL    HW1  510   7.487   8.606   5.589
66226SOL    HW2  511   7.524   8.693   5.471
66227SOL     OW  512  10.736   7.912   9.079
66227SOL    HW1  513  10.763   7.826   9.045
66227SOL    HW2  514  10.745   7.971   9.004
66228SOL     OW  515  13.384   9.048   2.466
66228SOL    HW1  516  13.361   9.034   2.558
66228SOL    HW2  517  13.425   9.135   2.465
66229SOL     OW  518   2.849   4.372   7.859
66229SOL    HW1  519   2.842   4.454   7.809
66229SOL    HW2  520   2.930   4.332   7.828
66230SOL     OW  521  11.404   6.072   4.999
66230SOL    HW1  522  11.393   6.015   4.923
66230SOL    HW2  523  11.405   6.160   4.963
66231SOL     OW  524   6.152  11.183   0.891
66231SOL    HW1  525   6.212  11.257   0.887
66231SOL    HW2  526   6.183  11.123   0.823
66232SOL     OW  527   3.686   6.497  10.723
66232SOL    HW1  528   3.652   6.555  10.792
66232SOL    HW2  529   3.708   6.416  10.768
66233SOL     OW  530   9.092   7.819   5.220
66233SOL    HW1  531   9.136   7.897   5.186
66233SOL    HW2  532   9.025   7.854   5.279
66234SOL     OW  533   5.584   4.446   8.007
66234SOL    HW1  534   5.535   4.438   7.925
66234SOL    HW2  535   5.674   4.465   7.980
66235SOL     OW  536   1.544  11.745   8.102
66235SOL    HW1  537   1.498  11.790   8.173
66235SOL    HW2  538   1.634  11.778   8.108
66236SOL     OW  539   8.707  13.468  11.035
66236SOL    HW1  540   8.617  13.481  11.063
66236SOL    HW2  541   8.747  13.555  11.039
66237SOL     OW  542   6.499   7.942  11.435
66237SOL    HW1  543   6.416   7.988  11.447
66237SOL    HW2  544   6.496   7.909  11.345
66238SOL     OW  545   1.873   8.744  14.539
66238SOL    HW1  546   1.910   8.659  14.514
66238SOL    HW2  547   1.928   8.808  14.495
66239SOL     OW  548   3.798   6.745   5.802
66239SOL    HW1  549   3.726   6.751   5.739
66239SOL    HW2  550   3.872   6.714   5.749
66240SOL     OW  551  13.220   1.873  10.880
66240SOL    HW1  552  13.144   1.816  10.886
66240SOL    HW2  553  13.261   1.868  10.966
66241SOL     OW  554   6.444  10.376   3.463
66241SOL    HW1  555   6.513  10.343   3.521
66241SOL    HW2  556   6.423  10.463   3.498
66242SOL     OW  557   9.844  12.858  10.670
66242SOL    HW1  558   9.890  12.842  10.588
66242SOL    HW2  559   9.786  12.931  10.652
66243SOL     OW  560  13.863   0.835   7.739
66243SOL    HW1  561  13.842   0.817   7.648
66243SOL    HW2  562  13.786   0.879   7.774
66244SOL     OW  563   3.188  12.166  11.785
66244SOL    HW1  564   3.096  12.156  11.810
66244SOL    HW2  565   3.237  12.153  11.866
66245SOL     OW  566  10.439   6.710   0.003
66245SOL    HW1  567  10.519   6.679  14.835
66245SOL    HW2  568  10.448   6.680   0.093
66246SOL     OW  569   9.526   3.997   7.702
66246SOL    HW1  570   9.533   3.937   7.628
66246SOL    HW2  571   9.499   4.080   7.662
66247SOL     OW  572  14.579   0.157  12.061
66247SOL    HW1  573  14.560   0.233  12.007
66247SOL    HW2  574  14.640   0.190  12.128
66248SOL     OW  575   4.218   6.437   5.253
66248SOL    HW1  576   4.284   6.477   5.196
66248SOL    HW2  577   4.217   6.345   5.227
66249SOL     OW  578   2.635   0.937   2.637
66249SOL    HW1  579   2.611   1.018   2.593
66249SOL    HW2  580   2.622   0.869   2.572
66250SOL     OW  581   7.898   6.494   6.941
66250SOL    HW1  582   7.841   6.435   6.991
66250SOL    HW2  583   7.931   6.441   6.869
66251SOL     OW  584  11.932  13.033   0.764
66251SOL    HW1  585  11.973  13.119   0.757
66251SOL    HW2  586  11.845  13.051   0.799
66252SOL     OW  587  11.954  14.630   2.446
66252SOL    HW1  588  11.937  14.576   2.523
66252SOL    HW2  589  11.953  14.720   2.480
66253SOL     OW  590   7.083   8.811   7.957
66253SOL    HW1  591   7.107   8.729   8.001
66253SOL    HW2  592   7.167   8.856   7.945
66254SOL     OW  593   1.561   2.610  12.765
66254SOL    HW1  594   1.553   2.589  12.672
66254SOL    HW2  595   1.552   2.705  12.769
66255SOL     OW  596   0.825   2.457   2.220
66255SOL    HW1  597   0.750   2.504   2.259
66255SOL    HW2  598   0.849   2.392   2.286
66256SOL     OW  599  14.608   6.314   8.722
66256SOL    HW1  600  14.537   6.366   8.760
66256SOL    HW2  601  14.580   6.300   8.631
66257SOL     OW  602   8.349   9.774   4.404
66257SOL    HW1  603   8.349   9.868   4.384
66257SOL    HW2  604   8.359   9.770   4.499
66258SOL     OW  605   6.061  12.125  11.769
66258SOL    HW1  606   5.973  12.138  11.804
66258SOL    HW2  607   6.054  12.048  11.713
66259SOL     OW  608  11.613   1.156   2.781
66259SOL    HW1  609  11.640   1.227   2.722
66259SOL    HW2  610  11.623   1.193   2.869
66260SOL     OW  611  11.406   1.132   1.729
66260SOL    HW1  612  11.382   1.212   1.681
66260SOL    HW2  613  11.408   1.064   1.662
66261SOL     OW  614   1.683   3.521   0.565
66261SOL    HW1  615   1.694   3.609   0.528
66261SOL    HW2  616   1.619   3.533   0.635
66262SOL     OW  617   3.658   7.861   3.734
66262SOL    HW1  618   3.571   7.884   3.766
66262SOL    HW2  619   3.649   7.771   3.702
66263SOL     OW  620  11.812   9.720  11.689
66263SOL    HW1  621  11.874   9.652  11.714
66263SOL    HW2  622  11.801   9.708  11.594
66264SOL     OW  623  11.058  11.485  14.836
66264SOL    HW1  624  11.107  11.417   0.006
66264SOL    HW2  625  11.125  11.547  14.806
66265SOL     OW  626   7.473   8.479  13.191
66265SOL    HW1  627   7.406   8.515  13.250
66265SOL    HW2  628   7.556   8.501  13.233
66266SOL     OW  629  13.060   3.515   2.209
66266SOL    HW1  630  13.043   3.540   2.300
66266SOL    HW2  631  13.155   3.502   2.205
66267SOL     OW  632  13.092   3.894  13.501
66267SOL    HW1  633  13.082   3.943  13.420
66267SOL    HW2  634  13.101   3.803  13.473
66268SOL     OW  635   5.489   6.741  13.891
66268SOL    HW1  636   5.425   6.785  13.836
66268SOL    HW2  637   5.437   6.684  13.948
66269SOL     OW  638   1.450   1.836   0.807
66269SOL    HW1  639   1.529   1.880   0.776
66269SOL    HW2  640   1.428   1.881   0.889
66270SOL     OW  641  14.516  13.110  11.754
66270SOL    HW1  642  14.470  13.172  11.811
66270SOL    HW2  643  14.463  13.030  11.759
66271SOL     OW  644   1.589  10.388  14.381
66271SOL    HW1  645   1.547  10.341  14.309
66271SOL    HW2  646   1.656  10.329  14.414
66272SOL     OW  647   9.729   8.248   8.209
66272SOL    HW1  648   9.768   8.168   8.246
66272SOL    HW2  649   9.788   8.318   8.236
66273SOL     OW  650  11.005  12.483  12.180
66273SOL    HW1  651  10.923  12.529  12.164
66273SOL    HW2  652  10.987  12.428  12.257
66274SOL     OW  653   5.014   7.133   6.231
66274SOL    HW1  654   4.923   7.163   6.230
66274SOL    HW2  655   5.050   7.169   6.312
66275SOL     OW  656   4.243   4.080  11.596
66275SOL    HW1  657   4.272   4.171  11.592
66275SOL    HW2  658   4.288   4.044  11.672
66276SOL     OW  659  14.115   7.478  12.991
66276SOL    HW1  660  14.048   7.468  13.058
66276SOL    HW2  661  14.066   7.496  12.911
66277SOL     OW  662   7.894   8.725   9.676
66277SOL    HW1  663   7.799   8.713   9.671
66277SOL    HW2  664   7.906   8.820   9.674
66278SOL     OW  665  13.745   2.264   0.679
66278SOL    HW1  666  13.751   2.236   0.770
66278SOL    HW2  667  13.774   2.355   0.680
66279SOL     OW  668   1.277  13.026   7.595
66279SOL    HW1  669   1.361  13.041   7.639
66279SOL    HW2  670   1.227  12.972   7.657
66280SOL     OW  671   1.589   4.302   6.471
66280SOL    HW1  672   1.659   4.343   6.522
66280SOL    HW2  673   1.630   4.278   6.389
66281SOL     OW  674   0.690  13.606  11.155
66281SOL    HW1  675   0.672  13.520  11.117
66281SOL    HW2  676   0.777  13.628  11.123
66282SOL     OW  677   6.549   1.642   9.981
66282SOL    HW1  678   6.470   1.631   9.929
66282SOL    HW2  679   6.580   1.730   9.960
66283SOL     OW  680   3.665   8.759   2.584
66283SOL    HW1  681   3.671   8.723   2.495
66283SOL    HW2  682   3.578   8.734   2.614
66284SOL     OW  683   5.547   3.498   4.956
66284SOL    HW1  684   5.514   3.544   4.879
66284SOL    HW2  685   5.493   3.418   4.961
66285SOL     OW  686  10.309   6.546   9.822
66285SOL    HW1  687  10.228   6.596   9.813
66285SOL    HW2  688  10.286   6.472   9.878
66286SOL     OW  689   5.367   7.077   6.417
66286SOL    HW1  690   5.380   7.038   6.503
66286SOL    HW2  691   5.351   7.002   6.359
66287SOL     OW  692   6.406   4.728   5.697
66287SOL    HW1  693   6.329   4.702   5.749
66287SOL    HW2  694   6.473   4.746   5.762
66288SOL     OW  695   1.083  12.137  14.587
66288SOL    HW1  696   1.021  12.085  14.536
66288SOL    HW2  697   1.150  12.074  14.616
66289SOL     OW  698   3.954  11.623   0.840
66289SOL    HW1  699   3.918  11.707   0.811
66289SOL    HW2  700   3.877  11.568   0.857
66290SOL     OW  701   4.629   8.909   4.861
66290SOL    HW1  702   4.609   8.992   4.819
66290SOL    HW2  703   4.589   8.917   4.948
66291SOL     OW  704   3.217  10.140   8.862
66291SOL    HW1  705   3.182  10.173   8.945
66291SOL    HW2  706   3.304  10.106   8.884
66292SOL     OW  707   5.604   4.971   1.447
66292SOL    HW1  708   5.523   5.000   1.405
66292SOL    HW2  709   5.663   4.953   1.374
66293SOL     OW  710   2.622  12.116   3.544
66293SOL    HW1  711   2.539  12.163   3.555
66293SOL    HW2  712   2.623  12.090   3.452
66294SOL     OW  713   9.222   9.602   8.354
66294SOL    HW1  714   9.299   9.565   8.396
66294SOL    HW2  715   9.256   9.645   8.276
66295SOL     OW  716   4.849   3.491   3.252
66295SOL    HW1  717   4.887   3.439   3.181
66295SOL    HW2  718   4.785   3.433   3.292
66296SOL     OW  719   2.434  13.110  10.899
66296SOL    HW1  720   2.494  13.064  10.957
66296SOL    HW2  721   2.479  13.192  10.877
66297SOL     OW  722  14.350   4.070  13.077
66297SOL    HW1  723  14.261   4.048  13.048
66297SOL    HW2  724  14.361   4.021  13.158
66298SOL     OW  725  12.944   2.993   4.986
66298SOL    HW1  726  12.984   3.069   5.028
66298SOL    HW2  727  13.004   2.971   4.914
66299SOL     OW  728  11.905  12.390   6.231
66299SOL    HW1  729  11.910  12.477   6.271
66299SOL    HW2  730  11.871  12.334   6.300
66300SOL     OW  731   6.622  10.196   8.522
66300SOL    HW1  732   6.622  10.198   8.426
66300SOL    HW2  733   6.539  10.237   8.547
66301SOL     OW  734   8.735   0.995  11.947
66301SOL    HW1  735   8.681   1.074  11.944
66301SOL    HW2  736   8.775   0.990  11.860
66302SOL     OW  737   7.087   9.341   9.937
66302SOL    HW1  738   7.071   9.290  10.017
66302SOL    HW2  739   7.031   9.300   9.871
66303SOL     OW  740   2.732   1.753  14.475
66303SOL    HW1  741   2.742   1.782  14.384
66303SOL    HW2  742   2.649   1.790  14.503
66304SOL     OW  743   8.043   2.697  12.050
66304SOL    HW1  744   8.027   2.761  12.120
66304SOL    HW2  745   8.059   2.615  12.097
66305SOL     OW  746   8.964   9.380  12.224
66305SOL    HW1  747   9.020   9.356  12.298
66305SOL    HW2  748   8.875   9.360  12.255
66306SOL     OW  749   6.967   6.656  10.833
66306SOL    HW1  750   7.027   6.686  10.765
66306SOL    HW2  751   6.950   6.733  10.886
66307SOL     OW  752   2.182   5.558   0.922
66307SOL    HW1  753   2.213   5.548   1.011
66307SOL    HW2  754   2.216   5.642   0.893
66308SOL     OW  755   8.437  10.558   1.790
66308SOL    HW1  756   8.479  10.533   1.708
66308SOL    HW2  757   8.343  10.550   1.772
66309SOL     OW  758  13.710  11.055   1.831
66309SOL    HW1  759  13.772  11.126   1.851
66309SOL    HW2  760  13.733  10.986   1.893
66310SOL     OW  761  14.413   3.718   2.773
66310SOL    HW1  762  14.330   3.731   2.727
66310SOL    HW2  763  14.476   3.770   2.725
66311SOL     OW  764  10.076   2.924   6.929
66311SOL    HW1  765   9.997   2.970   6.901
66311SOL    HW2  766  10.148   2.979   6.899
66312SOL     OW  767   0.871   3.479   9.739
66312SOL    HW1  768   0.821   3.470   9.821
66312SOL    HW2  769   0.829   3.417   9.679
66313SOL     OW  770  12.904   8.918   3.313
66313SOL    HW1  771  12.994   8.887   3.321
66313SOL    HW2  772  12.869   8.912   3.402
66314SOL     OW  773   2.329  13.491   4.860
66314SOL    HW1  774   2.411  13.446   4.881
66314SOL    HW2  775   2.270  13.422   4.831
66315SOL     OW  776  14.755   5.707  11.846
66315SOL    HW1  777  14.664   5.687  11.869
66315SOL    HW2  778  14.763   5.801  11.860
66316SOL     OW  779   0.759  11.397   7.536
66316SOL    HW1  780   0.756  11.477   7.482
66316SOL    HW2  781   0.687  11.343   7.503
66317SOL     OW  782   4.884  10.230  12.177
66317SOL    HW1  783   4.899  10.325  12.175
66317SOL    HW2  784   4.866  10.208  12.085
66318SOL     OW  785   6.345   4.961   6.769
66318SOL    HW1  786   6.254   4.946   6.742
66318SOL    HW2  787   6.364   5.050   6.740
66319SOL     OW  788   0.456   9.710  10.860
66319SOL    HW1  789   0.504   9.744  10.935
66319SOL    HW2  790   0.469   9.775  10.791
66320SOL     OW  791   0.453   8.678   5.788
66320SOL    HW1  792   0.396   8.730   5.730
66320SOL    HW2  793   0.538   8.722   5.784
66321SOL     OW  794  14.064   9.357   5.541
66321SOL    HW1  795  14.026   9.378   5.626
66321SOL    HW2  796  14.157   9.342   5.559
66322SOL     OW  797   5.323   3.713  13.976
66322SOL    HW1  798   5.360   3.668  14.052
66322SOL    HW2  799   5.350   3.660  13.901
66323SOL     OW  800  11.074   5.150  13.491
66323SOL    HW1  801  11.021   5.175  13.415
66323SOL    HW2  802  11.155   5.116  13.454
66324SOL     OW  803  14.340   2.612   4.781
66324SOL    HW1  804  14.409   2.546   4.786
66324SOL    HW2  805  14.278   2.577   4.717
66325SOL     OW  806   9.581  11.248   3.089
66325SOL    HW1  807   9.562  11.307   3.016
66325SOL    HW2  808   9.671  11.218   3.073
66326SOL     OW  809   9.438  10.137   1.495
66326SOL    HW1  810   9.361  10.183   1.460
66326SOL    HW2  811   9.500  10.137   1.422
66327SOL     OW  812   0.868   4.404  13.465
66327SOL    HW1  813   0.786   4.382  13.509
66327SOL    HW2  814   0.866   4.353  13.384
66328SOL     OW  815   5.667   9.630  14.031
66328SOL    HW1  816   5.597   9.602  13.971
66328SOL    HW2  817   5.705   9.548  14.063
66329SOL     OW  818   4.132   7.437   5.636
66329SOL    HW1  819   4.152   7.459   5.727
66329SOL    HW2  820   4.201   7.479   5.585
66330SOL     OW  821  14.858   2.069   4.497
66330SOL    HW1  822   0.025   1.990   4.463
66330SOL    HW2  823   0.053   2.132   4.509
66331SOL     OW  824  12.008  12.172   3.082
66331SOL    HW1  825  11.923  12.216   3.095
66331SOL    HW2  826  11.988  12.079   3.090
66332SOL     OW  827  10.318   1.554   4.663
66332SOL    HW1  828  10.405   1.517   4.645
66332SOL    HW2  829  10.318   1.638   4.618
66333SOL     OW  830  12.438   5.393   5.339
66333SOL    HW1  831  12.434   5.467   5.400
66333SOL    HW2  832  12.525   5.400   5.300
66334SOL     OW  833  13.544   0.329  13.245
66334SOL    HW1  834  13.459   0.371  13.229
66334SOL    HW2  835  13.527   0.235  13.234
66335SOL     OW  836  11.513   3.279   1.118
66335SOL    HW1  837  11.543   3.345   1.180
66335SOL    HW2  838  11.479   3.330   1.044
66336SOL     OW  839   0.834   9.639   6.456
66336SOL    HW1  840   0.875   9.586   6.388
66336SOL    HW2  841   0.742   9.611   6.455
66337SOL     OW  842  11.879   2.061  10.537
66337SOL    HW1  843  11.925   2.026  10.613
66337SOL    HW2  844  11.807   1.999  10.521
66338SOL     OW  845   6.076   3.505   2.962
66338SOL    HW1  846   6.032   3.571   2.908
66338SOL    HW2  847   6.016   3.489   3.035
66339SOL     OW  848   3.321  14.127   8.473
66339SOL    HW1  849   3.390  14.103   8.535
66339SOL    HW2  850   3.301  14.046   8.427
66340SOL     OW  851  13.529  12.139   0.464
66340SOL    HW1  852  13.596  12.125   0.398
66340SOL    HW2  853  13.464  12.071   0.448
66341SOL     OW  854   1.652   0.294   9.190
66341SOL    HW1  855   1.712   0.288   9.115
66341SOL    HW2  856   1.612   0.207   9.195
66342SOL     OW  857  13.169   5.897  14.532
66342SOL    HW1  858  13.211   5.983  14.539
66342SOL    HW2  859  13.086   5.908  14.578
66343SOL     OW  860  14.507  13.427   6.679
66343SOL    HW1  861  14.583  13.483   6.697
66343SOL    HW2  862  14.541  13.338   6.685
66344SOL     OW  863  11.613  14.855  14.786
66344SOL    HW1  864  11.578   0.034  14.715
66344SOL    HW2  865  11.628   0.040  14.858
66345SOL     OW  866   9.909   2.213   7.695
66345SOL    HW1  867   9.839   2.148   7.682
66345SOL    HW2  868   9.882   2.262   7.773
66346SOL     OW  869   7.289   3.008   0.056
66346SOL    HW1  870   7.327   3.091   0.028
66346SOL    HW2  871   7.282   3.016   0.151
66347SOL     OW  872  13.442   0.877  11.455
66347SOL    HW1  873  13.526   0.832  11.451
66347SOL    HW2  874  13.441   0.932  11.377
66348SOL     OW  875  13.609   3.498   7.187
66348SOL    HW1  876  13.517   3.478   7.206
66348SOL    HW2  877  13.610   3.519   7.094
66349SOL     OW  878   9.875   4.744   4.149
66349SOL    HW1  879   9.922   4.828   4.152
66349SOL    HW2  880   9.890   4.711   4.060
66350SOL     OW  881   3.805   0.891   4.256
66350SOL    HW1  882   3.814   0.909   4.349
66350SOL    HW2  883   3.895   0.875   4.225
66351SOL     OW  884   9.653   8.526  13.726
66351SOL    HW1  885   9.706   8.593  13.683
66351SOL    HW2  886   9.571   8.569  13.746
66352SOL     OW  887   6.212  14.752  11.029
66352SOL    HW1  888   6.180  14.842  11.021
66352SOL    HW2  889   6.195  14.728  11.120
66353SOL     OW  890   0.263   2.408  11.458
66353SOL    HW1  891   0.224   2.480  11.410
66353SOL    HW2  892   0.295   2.448  11.539
66354SOL     OW  893   9.874   6.534   2.081
66354SOL    HW1  894   9.940   6.582   2.131
66354SOL    HW2  895   9.915   6.450   2.062
66355SOL     OW  896   2.959   7.530   9.270
66355SOL    HW1  897   2.966   7.448   9.221
66355SOL    HW2  898   3.039   7.577   9.249
66356SOL     OW  899  13.947  11.758   3.956
66356SOL    HW1  900  13.989  11.805   4.029
66356SOL    HW2  901  14.019  11.713   3.912
66357SOL     OW  902   0.493   3.870  10.749
66357SOL    HW1  903   0.582   3.886  10.782
66357SOL    HW2  904   0.486   3.925  10.671
66358SOL     OW  905   1.548   9.564  11.415
66358SOL    HW1  906   1.515   9.505  11.346
66358SOL    HW2  907   1.491   9.641  11.409
66359SOL     OW  908   6.910  10.044  11.448
66359SOL    HW1  909   6.844  10.112  11.463
66359SOL    HW2  910   6.880   9.998  11.370
66360SOL     OW  911  13.988   8.436   5.192
66360SOL    HW1  912  14.018   8.432   5.283
66360SOL    HW2  913  14.024   8.358   5.151
66361SOL     OW  914   0.987   5.775   7.320
66361SOL    HW1  915   1.042   5.706   7.283
66361SOL    HW2  916   1.036   5.855   7.306
66362SOL     OW  917   8.650  11.038   1.258
66362SOL    HW1  918   8.741  11.044   1.229
66362SOL    HW2  919   8.639  10.946   1.281
66363SOL     OW  920  10.650   5.854   4.570
66363SOL    HW1  921  10.582   5.917   4.590
66363SOL    HW2  922  10.604   5.772   4.553
66364SOL     OW  923  12.288  13.895   8.575
66364SOL    HW1  924  12.240  13.841   8.512
66364SOL    HW2  925  12.376  13.902   8.540
66365SOL     OW  926   9.140   0.522  12.623
66365SOL    HW1  927   9.205   0.486  12.684
66365SOL    HW2  928   9.155   0.617  12.626
66366SOL     OW  929   5.951  11.805   2.359
66366SOL    HW1  930   5.875  11.805   2.300
66366SOL    HW2  931   5.990  11.718   2.348
66367SOL     OW  932  13.661   7.120  12.837
66367SOL    HW1  933  13.581   7.081  12.872
66367SOL    HW2  934  13.732   7.074  12.882
66368SOL     OW  935  11.933   2.059  11.583
66368SOL    HW1  936  11.842   2.052  11.611
66368SOL    HW2  937  11.952   1.974  11.542
66369SOL     OW  938   4.170   7.809   1.852
66369SOL    HW1  939   4.180   7.767   1.766
66369SOL    HW2  940   4.084   7.779   1.882
66370SOL     OW  941   0.841  11.181   6.926
66370SOL    HW1  942   0.772  11.115   6.926
66370SOL    HW2  943   0.914  11.139   6.972
66371SOL     OW  944   4.286   9.384   4.097
66371SOL    HW1  945   4.288   9.291   4.118
66371SOL    HW2  946   4.266   9.387   4.003
66372SOL     OW  947   1.702   2.374  10.329
66372SOL    HW1  948   1.754   2.300  10.296
66372SOL    HW2  949   1.612   2.344  10.320
66373SOL     OW  950   1.447  12.430   5.105
66373SOL    HW1  951   1.427  12.524   5.099
66373SOL    HW2  952   1.467  12.416   5.198
66374SOL     OW  953   0.965   1.404   8.923
66374SOL    HW1  954   1.023   1.468   8.961
66374SOL    HW2  955   0.884   1.411   8.974
66375SOL     OW  956  11.753  10.117  13.565
66375SOL    HW1  957  11.809  10.039  13.567
66375SOL    HW2  958  11.704  10.109  13.483
66376SOL     OW  959  10.613   0.414   2.411
66376SOL    HW1  960  10.630   0.507   2.426
66376SOL    HW2  961  10.689   0.369   2.446
66377SOL     OW  962   3.702   6.963  10.295
66377SOL    HW1  963   3.759   7.029  10.255
66377SOL    HW2  964   3.627   7.013  10.326
66378SOL     OW  965   9.230   1.596  12.673
66378SOL    HW1  966   9.303   1.577  12.614
66378SOL    HW2  967   9.266   1.584  12.761
66379SOL     OW  968   9.005   8.589   2.983
66379SOL    HW1  969   9.018   8.540   3.064
66379SOL    HW2  970   8.911   8.607   2.982
66380SOL     OW  971  14.222   1.031  12.964
66380SOL    HW1  972  14.312   1.062  12.973
66380SOL    HW2  973  14.230   0.940  12.937
66381SOL     OW  974  11.711   8.539   2.088
66381SOL    HW1  975  11.637   8.520   2.146
66381SOL    HW2  976  11.785   8.493   2.128
66382SOL     OW  977  12.973   6.313  10.652
66382SOL    HW1  978  13.052   6.288  10.604
66382SOL    HW2  979  12.997   6.394  10.698
66383SOL     OW  980   8.130  14.457   6.635
66383SOL    HW1  981   8.159  14.540   6.597
66383SOL    HW2  982   8.094  14.481   6.720
66384SOL     OW  983   5.980   1.652   4.471
66384SOL    HW1  984   5.928   1.636   4.391
66384SOL    HW2  985   5.926   1.615   4.541
66385SOL     OW  986  14.477   3.559  13.428
66385SOL    HW1  987  14.432   3.482  13.463
66385SOL    HW2  988  14.429   3.580  13.348
66386SOL     OW  989  12.472   7.792   3.292
66386SOL    HW1  990  12.536   7.863   3.295
66386SOL    HW2  991  12.515   7.722   3.243
66387SOL     OW  992   0.073   0.906   3.596
66387SOL    HW1  993   0.104   0.984   3.551
66387SOL    HW2  994   0.115   0.909   3.682
66388SOL     OW  995   4.124  11.990   1.262
66388SOL    HW1  996   4.030  12.002   1.249
66388SOL    HW2  997   4.164  12.064   1.216
66389SOL     OW  998   2.306   3.935   2.277
66389SOL    HW1  999   2.316   4.007   2.215
66389SOL    HW2 1000   2.326   3.857   2.227
66390SOL     OW 1001  10.632   6.527   3.555
66390SOL    HW1 1002  10.721   6.494   3.545
66390SOL    HW2 1003  10.632   6.570   3.641
66391SOL     OW 1004   1.360   9.307  11.667
66391SOL    HW1 1005   1.281   9.272  11.706
66391SOL    HW2 1006   1.329   9.367  11.599
66392SOL     OW 1007   1.313  10.439   6.765
66392SOL    HW1 1008   1.316  10.522   6.814
66392SOL    HW2 1009   1.403  10.427   6.734
66393SOL     OW 1010   1.916  12.590  12.754
66393SOL    HW1 1011   1.999  12.554  12.786
66393SOL    HW2 1012   1.855  12.516  12.759
66394SOL     OW 1013  12.435  13.261  14.765
66394SOL    HW1 1014  12.528  13.275  14.783
66394SOL    HW2 1015  12.434  13.203  14.689
66395SOL     OW 1016   5.778  11.312  13.003
66395SOL    HW1 1017   5.712  11.267  13.057
66395SOL    HW2 1018   5.850  11.250  12.997
66396SOL     OW 1019  14.477  10.514   3.998
66396SOL    HW1 1020  14.477  10.495   4.092
66396SOL    HW2 1021  14.385  10.525   3.976
66397SOL     OW 1022  13.052   1.648   0.110
66397SOL    HW1 1023  13.116   1.675   0.044
66397SOL    HW2 1024  13.005   1.575   0.070
66398SOL     OW 1025   0.254   0.010   9.766
66398SOL    HW1 1026   0.300   0.075   9.713
66398SOL    HW2 1027   0.199   0.062   9.824
66399SOL     OW 1028   1.311   6.508   0.194
66399SOL    HW1 1029   1.352   6.421   0.201
66399SOL    HW2 1030   1.217   6.490   0.191
66400SOL     OW 1031   2.443  10.393   5.554
66400SOL    HW1 1032   2.468  10.427   5.468
66400SOL    HW2 1033   2.462  10.299   5.549
66401SOL     OW 1034   4.332  11.377   7.641
66401SOL    HW1 1035   4.351  11.375   7.547
66401SOL    HW2 1036   4.417  11.395   7.682
66402SOL     OW 1037  13.766   8.654  11.143
66402SOL    HW1 1038  13.805   8.637  11.057
66402SOL    HW2 1039  13.686   8.703  11.123
66403SOL     OW 1040   3.615   6.116   2.189
66403SOL    HW1 1041   3.643   6.186   2.130
66403SOL    HW2 1042   3.574   6.162   2.262
66404SOL     OW 1043   3.604  10.326   1.412
66404SOL    HW1 1044   3.584  10.274   1.490
66404SOL    HW2 1045   3.671  10.388   1.441
66405SOL     OW 1046   6.676   6.497   8.777
66405SOL    HW1 1047   6.762   6.488   8.818
66405SOL    HW2 1048   6.623   6.429   8.819
66406SOL     OW 1049  14.014   3.382  12.452
66406SOL    HW1 1050  14.046   3.315  12.392
66406SOL    HW2 1051  13.936   3.344  12.493
66407SOL     OW 1052  13.736   9.193   7.972
66407SOL    HW1 1053  13.764   9.102   7.982
66407SOL    HW2 1054  13.791   9.242   8.033
66408SOL     OW 1055   4.549   7.976  10.336
66408SOL    HW1 1056   4.519   7.991  10.426
66408SOL    HW2 1057   4.519   8.053  10.288
66409SOL     OW 1058   3.049  12.435   6.649
66409SOL    HW1 1059   3.066  12.451   6.556
66409SOL    HW2 1060   3.047  12.521   6.689
66410SOL     OW 1061   7.590   7.398   6.873
66410SOL    HW1 1062   7.580   7.433   6.784
66410SOL    HW2 1063   7.655   7.455   6.913
66411SOL     OW 1064   3.530   3.495  11.721
66411SOL    HW1 1065   3.462   3.443  11.763
66411SOL    HW2 1066   3.612   3.453  11.748
66412SOL     OW 1067   1.736  10.961  12.151
66412SOL    HW1 1068   1.695  10.946  12.066
66412SOL    HW2 1069   1.817  11.008  12.132
66413SOL     OW 1070   8.239   3.317   4.663
66413SOL    HW1 1071   8.329   3.344   4.644
66413SOL    HW2 1072   8.188   3.347   4.588
66414SOL     OW 1073   8.153   2.987   3.068
66414SOL    HW1 1074   8.220   2.968   3.003
66414SOL    HW2 1075   8.122   2.901   3.096
66415SOL     OW 1076  11.292  13.401  13.112
66415SOL    HW1 1077  11.222  13.439  13.058
66415SOL    HW2 1078  11.342  13.346  13.052
66416SOL     OW 1079   3.646   4.061   6.191
66416SOL    HW1 1080   3.635   4.000   6.118
66416SOL    HW2 1081   3.686   4.139   6.151
66417SOL     OW 1082   3.812   2.541   2.285
66417SOL    HW1 1083   3.818   2.547   2.380
66417SOL    HW2 1084   3.744   2.603   2.261
66418SOL     OW 1085   3.955   5.946   6.616
66418SOL    HW1 1086   4.023   5.889   6.651
66418SOL    HW2 1087   3.999   5.995   6.547
66419SOL     OW 1088  14.423  13.978   3.246
66419SOL    HW1 1089  14.497  13.921   3.228
66419SOL    HW2 1090  14.421  14.038   3.172
66420SOL     OW 1091   7.118   5.831  10.328
66420SOL    HW1 1092   7.194   5.772  10.324
66420SOL    HW2 1093   7.047   5.776  10.360
66421SOL     OW 1094  13.298  10.145  11.324
66421SOL    HW1 1095  13.252  10.228  11.339
66421SOL    HW2 1096  13.362  10.165  11.256
66422SOL     OW 1097  11.893  14.450   6.822
66422SOL    HW1 1098  11.953  14.410   6.885
66422SOL    HW2 1099  11.829  14.382   6.802
66423SOL     OW 1100  10.996  13.985   0.974
66423SOL    HW1 1101  11.057  14.031   1.031
66423SOL    HW2 1102  10.959  13.917   1.029
66424SOL     OW 1103   9.814   0.400   5.731
66424SOL    HW1 1104   9.817   0.425   5.823
66424SOL    HW2 1105   9.727   0.426   5.701
66425SOL     OW 1106   3.859  10.317   0.106
66425SOL    HW1 1107   3.806  10.350   0.179
66425SOL    HW2 1108   3.815  10.350   0.028
66426SOL     OW 1109   2.054   7.220   6.370
66426SOL    HW1 1110   2.045   7.312   6.393
66426SOL    HW2 1111   2.107   7.183   6.441
66427SOL     OW 1112   5.856  12.743   5.518
66427SOL    HW1 1113   5.868  12.648   5.514
66427SOL    HW2 1114   5.796  12.762   5.446
66428SOL     OW 1115  13.185  10.659   4.318
66428SOL    HW1 1116  13.211  10.662   4.226
66428SOL    HW2 1117  13.189  10.750   4.347
66429SOL     OW 1118   5.719   1.106  10.018
66429SOL    HW1 1119   5.792   1.169  10.017
66429SOL    HW2 1120   5.699   1.091   9.926
66430SOL     OW 1121  14.833  14.059   3.633
66430SOL    HW1 1122  14.813  14.153   3.629
66430SOL    HW2 1123  14.749  14.017   3.652
66431SOL     OW 1124   1.379   8.835   6.973
66431SOL    HW1 1125   1.308   8.887   7.010
66431SOL    HW2 1126   1.458   8.867   7.017
66432SOL     OW 1127   3.655  13.700   5.519
66432SOL    HW1 1128   3.748  13.713   5.503
66432SOL    HW2 1129   3.651  13.664   5.607
66433SOL     OW 1130   9.367   0.120   2.872
66433SOL    HW1 1131   9.440   0.156   2.821
66433SOL    HW2 1132   9.291   0.127   2.815
66434SOL     OW 1133  13.560   0.682  14.490
66434SOL    HW1 1134  13.474   0.651  14.518
66434SOL    HW2 1135  13.543   0.740  14.416
66435SOL     OW 1136   0.830   3.981  13.762
66435SOL    HW1 1137   0.771   4.003  13.690
66435SOL    HW2 1138   0.772   3.963  13.835
66436SOL     OW 1139  13.471   5.806  14.421
66436SOL    HW1 1140  13.377   5.791  14.432
66436SOL    HW2 1141  13.484   5.814  14.327
66437SOL     OW 1142  11.231   4.273   9.147
66437SOL    HW1 1143  11.322   4.253   9.168
66437SOL    HW2 1144  11.207   4.343   9.208
66438SOL     OW 1145  14.146  12.770   3.545
66438SOL    HW1 1146  14.132  12.677   3.527
66438SOL    HW2 1147  14.189  12.772   3.631
66439SOL     OW 1148   1.005   8.613   9.868
66439SOL    HW1 1149   1.009   8.582   9.778
66439SOL    HW2 1150   1.074   8.566   9.913
66440SOL     OW 1151   4.740   9.685   6.790
66440SOL    HW1 1152   4.729   9.651   6.701
66440SOL    HW2 1153   4.660   9.659   6.835
66441SOL     OW 1154  11.855   6.476   9.172
66441SOL    HW1 1155  11.790   6.412   9.142
66441SOL    HW2 1156  11.811   6.561   9.165
66442SOL     OW 1157   9.585  12.720   4.270
66442SOL    HW1 1158   9.660  12.747   4.323
66442SOL    HW2 1159   9.598  12.763   4.186
66443SOL     OW 1160   8.105   0.458   0.863
66443SOL    HW1 1161   8.026   0.410   0.890
66443SOL    HW2 1162   8.099   0.541   0.909
66444SOL     OW 1163  12.381   5.635   2.340
66444SOL    HW1 1164  12.317   5.589   2.395
66444SOL    HW2 1165  12.352   5.617   2.250
66445SOL     OW 1166   1.126   1.962   9.755
66445SOL    HW1 1167   1.097   1.899   9.821
66445SOL    HW2 1168   1.095   2.047   9.788
66446SOL     OW 1169   9.446   9.576   1.330
66446SOL    HW1 1170   9.518   9.589   1.268
66446SOL    HW2 1171   9.445   9.481   1.344
66447SOL     OW 1172  11.171  13.724   9.239
66447SOL    HW1 1173  11.200  13.767   9.319
66447SOL    HW2 1174  11.210  13.774   9.168
66448SOL     OW 1175   3.969   0.569   9.227
66448SOL    HW1 1176   3.945   0.618   9.149
66448SOL    HW2 1177   4.054   0.530   9.206
66449SOL     OW 1178   2.051   0.010   8.306
66449SOL    HW1 1179   2.138   0.001   8.345
66449SOL    HW2 1180   1.994  14.832   8.361
66450SOL     OW 1181   1.618  10.073   6.839
66450SOL    HW1 1182   1.529  10.076   6.873
66450SOL    HW2 1183   1.665  10.139   6.890
66451SOL     OW 1184  11.641   8.694   6.389
66451SOL    HW1 1185  11.629   8.759   6.458
66451SOL    HW2 1186  11.559   8.646   6.387
66452SOL     OW 1187   0.422  11.101   1.522
66452SOL    HW1 1188   0.358  11.030   1.528
66452SOL    HW2 1189   0.478  11.077   1.449
66453SOL     OW 1190  13.505  13.008   1.575
66453SOL    HW1 1191  13.504  13.090   1.625
66453SOL    HW2 1192  13.512  13.036   1.484
66454SOL     OW 1193   5.765  11.956   8.289
66454SOL    HW1 1194   5.705  11.930   8.219
66454SOL    HW2 1195   5.819  11.878   8.305
66455SOL     OW 1196  14.512   7.179   2.125
66455SOL    HW1 1197  14.486   7.132   2.205
66455SOL    HW2 1198  14.497   7.116   2.055
66456SOL     OW 1199  13.093   5.049  14.255
66456SOL    HW1 1200  13.113   5.009  14.170
66456SOL    HW2 1201  13.145   4.998  14.318
66457SOL     OW 1202   2.409   9.560   1.682
66457SOL    HW1 1203   2.327   9.511   1.682
66457SOL    HW2 1204   2.470   9.506   1.631
66458SOL     OW 1205  10.180   5.319   5.745
66458SOL    HW1 1206  10.145   5.237   5.778
66458SOL    HW2 1207  10.219   5.362   5.821
66459SOL     OW 1208   8.479   2.206   4.693
66459SOL    HW1 1209   8.400   2.245   4.655
66459SOL    HW2 1210   8.482   2.239   4.783
66460SOL     OW 1211  12.078  10.284   7.450
66460SOL    HW1 1212  12.128  10.209   7.419
66460SOL    HW2 1213  11.986  10.257   7.438
66461SOL     OW 1214   3.309   3.337   1.125
66461SOL    HW1 1215   3.296   3.429   1.150
66461SOL    HW2 1216   3.221   3.300   1.126
66462SOL     OW 1217   7.055   3.253  14.445
66462SOL    HW1 1218   7.033   3.228  14.355
66462SOL    HW2 1219   7.146   3.224  14.456
66463SOL     OW 1220   4.235   8.145   5.025
66463SOL    HW1 1221   4.147   8.106   5.029
66463SOL    HW2 1222   4.235   8.194   4.943
66464SOL     OW 1223   8.375   5.289  12.866
66464SOL    HW1 1224   8.348   5.323  12.951
66464SOL    HW2 1225   8.357   5.361  12.805
66465SOL     OW 1226   5.336  10.309   7.545
66465SOL    HW1 1227   5.345  10.378   7.612
66465SOL    HW2 1228   5.291  10.238   7.591
66466SOL     OW 1229   7.301   2.437  10.551
66466SOL    HW1 1230   7.397   2.435  10.554
66466SOL    HW2 1231   7.277   2.513  10.605
66467SOL     OW 1232  11.951   8.039   9.002
66467SOL    HW1 1233  11.900   8.100   9.057
66467SOL    HW2 1234  12.027   8.090   8.975
66468SOL     OW 1235   9.658   6.985  11.679
66468SOL    HW1 1236   9.716   7.001  11.753
66468SOL    HW2 1237   9.715   6.990  11.602
66469SOL     OW 1238   7.495  11.191  14.674
66469SOL    HW1 1239   7.480  11.180  14.580
66469SOL    HW2 1240   7.433  11.259  14.700
66470SOL     OW 1241   8.044   9.289   4.924
66470SOL    HW1 1242   8.097   9.211   4.907
66470SOL    HW2 1243   7.956   9.255   4.941
66471SOL     OW 1244   1.974   0.129   4.837
66471SOL    HW1 1245   2.064   0.095   4.833
66471SOL    HW2 1246   1.919   0.051   4.839
66472SOL     OW 1247  11.510  13.425  13.318
66472SOL    HW1 1248  11.590  13.416  13.371
66472SOL    HW2 1249  11.528  13.374  13.239
66473SOL     OW 1250   6.795  13.221   5.255
66473SOL    HW1 1251   6.762  13.268   5.178
66473SOL    HW2 1252   6.888  13.211   5.238
66474SOL     OW 1253  10.725   0.237   7.609
66474SOL    HW1 1254  10.813   0.205   7.629
66474SOL    HW2 1255  10.676   0.159   7.585
66475SOL     OW 1256   3.393   2.577   3.880
66475SOL    HW1 1257   3.373   2.567   3.973
66475SOL    HW2 1258   3.427   2.667   3.873
66476SOL     OW 1259   8.881  14.439   4.029
66476SOL    HW1 1260   8.833  14.432   4.112
66476SOL    HW2 1261   8.954  14.378   4.038
66477SOL     OW 1262   1.982   9.696   0.686
66477SOL    HW1 1263   2.000   9.620   0.631
66477SOL    HW2 1264   1.901   9.673   0.732
66478SOL     OW 1265   8.402   3.506  12.502
66478SOL    HW1 1266   8.441   3.523  12.588
66478SOL    HW2 1267   8.417   3.587  12.453
66479SOL     OW 1268   9.627  12.967   1.501
66479SOL    HW1 1269   9.545  13.014   1.492
66479SOL    HW2 1270   9.652  12.944   1.412
66480SOL     OW 1271   2.423  10.746   5.308
66480SOL    HW1 1272   2.467  10.682   5.365
66480SOL    HW2 1273   2.410  10.822   5.364
66481SOL     OW 1274   1.400   5.593  11.274
66481SOL    HW1 1275   1.436   5.539  11.345
66481SOL    HW2 1276   1.461   5.667  11.268
66482SOL     OW 1277   2.730   5.680  11.668
66482SOL    HW1 1278   2.788   5.742  11.713
66482SOL    HW2 1279   2.702   5.727  11.589
66483SOL     OW 1280   4.987  13.852   5.702
66483SOL    HW1 1281   4.985  13.817   5.613
66483SOL    HW2 1282   4.900  13.889   5.716
66484SOL     OW 1283  14.593   1.250  12.430
66484SOL    HW1 1284  14.685   1.244  12.452
66484SOL    HW2 1285  14.575   1.343  12.421
66485SOL     OW 1286  10.245   4.978   9.995
66485SOL    HW1 1287  10.225   5.019   9.911
66485SOL    HW2 1288  10.266   5.051  10.053
66486SOL     OW 1289   6.340   1.214   4.019
66486SOL    HW1 1290   6.420   1.173   4.050
66486SOL    HW2 1291   6.281   1.141   3.998
66487SOL     OW 1292   6.986   0.586   2.649
66487SOL    HW1 1293   6.920   0.592   2.718
66487SOL    HW2 1294   7.020   0.675   2.641
66488SOL     OW 1295   3.842  13.578   6.370
66488SOL    HW1 1296   3.807  13.576   6.459
66488SOL    HW2 1297   3.771  13.610   6.316
66489SOL     OW 1298   8.445   7.039   3.460
66489SOL    HW1 1299   8.512   7.002   3.517
66489SOL    HW2 1300   8.482   7.122   3.430
66490SOL     OW 1301   0.914   9.014   5.278
66490SOL    HW1 1302   0.940   8.972   5.360
66490SOL    HW2 1303   0.965   8.969   5.211
66491SOL     OW 1304   7.239  12.264  13.103
66491SOL    HW1 1305   7.157  12.304  13.133
66491SOL    HW2 1306   7.305  12.333  13.114
66492SOL     OW 1307   5.851   1.003   3.969
66492SOL    HW1 1308   5.875   1.086   3.928
66492SOL    HW2 1309   5.795   0.960   3.904
66493SOL     OW 1310   9.134   4.214   4.282
66493SOL    HW1 1311   9.043   4.188   4.266
66493SOL    HW2 1312   9.176   4.207   4.197
66494SOL     OW 1313  11.146  13.612   2.258
66494SOL    HW1 1314  11.053  13.604   2.235
66494SOL    HW2 1315  11.186  13.653   2.182
66495SOL     OW 1316   7.281   8.355   1.950
66495SOL    HW1 1317   7.198   8.316   1.922
66495SOL    HW2 1318   7.284   8.439   1.904
66496SOL     OW 1319   7.150   8.153   9.654
66496SOL    HW1 1320   7.057   8.150   9.633
66496SOL    HW2 1321   7.192   8.175   9.571
66497SOL     OW 1322   8.078  10.525  10.778
66497SOL    HW1 1323   8.026  10.446  10.788
66497SOL    HW2 1324   8.150  10.515  10.840
66498SOL     OW 1325  12.865  11.127   9.710
66498SOL    HW1 1326  12.825  11.044   9.682
66498SOL    HW2 1327  12.807  11.159   9.779
66499SOL     OW 1328  13.158   0.574  11.622
66499SOL    HW1 1329  13.124   0.645  11.677
66499SOL    HW2 1330  13.229   0.613  11.573
66500SOL     OW 1331  13.518   2.098   2.052
66500SOL    HW1 1332  13.552   2.133   1.970
66500SOL    HW2 1333  13.483   2.174   2.098
66501SOL     OW 1334   3.226  11.899   4.103
66501SOL    HW1 1335   3.179  11.848   4.169
66501SOL    HW2 1336   3.306  11.928   4.147
66502SOL     OW 1337  12.472   2.971   8.193
66502SOL    HW1 1338  12.545   2.913   8.216
66502SOL    HW2 1339  12.411   2.963   8.266
66503SOL     OW 1340  12.805  12.260   4.135
66503SOL    HW1 1341  12.750  12.332   4.102
66503SOL    HW2 1342  12.772  12.243   4.223
66504SOL     OW 1343  10.569   8.994  14.421
66504SOL    HW1 1344  10.597   9.065  14.478
66504SOL    HW2 1345  10.632   8.994  14.349
66505SOL     OW 1346   6.042   6.674   9.767
66505SOL    HW1 1347   6.120   6.624   9.791
66505SOL    HW2 1348   6.076   6.756   9.731
66506SOL     OW 1349   3.975   9.629  11.160
66506SOL    HW1 1350   3.965   9.584  11.244
66506SOL    HW2 1351   4.070   9.625  11.143
66507SOL     OW 1352   6.839   2.636   8.809
66507SOL    HW1 1353   6.844   2.679   8.724
66507SOL    HW2 1354   6.930   2.630   8.838
66508SOL     OW 1355   5.148  10.721   9.523
66508SOL    HW1 1356   5.167  10.789   9.588
66508SOL    HW2 1357   5.090  10.660   9.568
66509SOL     OW 1358   9.813  11.951   4.975
66509SOL    HW1 1359   9.824  11.856   4.965
66509SOL    HW2 1360   9.772  11.961   5.061
66510SOL     OW 1361  12.943  12.774   8.104
66510SOL    HW1 1362  12.943  12.783   8.008
66510SOL    HW2 1363  13.030  12.804   8.130
66511SOL     OW 1364   8.569   7.953   5.460
66511SOL    HW1 1365   8.599   7.883   5.518
66511SOL    HW2 1366   8.648   7.980   5.413
66512SOL     OW 1367   0.719   5.330  11.474
66512SOL    HW1 1368   0.669   5.398  11.518
66512SOL    HW2 1369   0.692   5.248  11.517
66513SOL     OW 1370   8.710  11.696   2.082
66513SOL    HW1 1371   8.735  11.620   2.030
66513SOL    HW2 1372   8.615  11.692   2.086
66514SOL     OW 1373  13.640   4.839   9.252
66514SOL    HW1 1374  13.571   4.902   9.230
66514SOL    HW2 1375  13.721   4.889   9.241
66515SOL     OW 1376  13.642   5.976  12.457
66515SOL    HW1 1377  13.553   5.967  12.493
66515SOL    HW2 1378  13.663   5.888  12.424
66516SOL     OW 1379   6.135  10.698   2.905
66516SOL    HW1 1380   6.201  10.762   2.877
66516SOL    HW2 1381   6.173  10.656   2.982
66517SOL     OW 1382   5.317   9.851  11.752
66517SOL    HW1 1383   5.348   9.828  11.840
66517SOL    HW2 1384   5.380   9.810  11.693
66518SOL     OW 1385   9.536   9.216   6.768
66518SOL    HW1 1386   9.569   9.206   6.857
66518SOL    HW2 1387   9.453   9.263   6.778
66519SOL     OW 1388   4.130  11.758   2.876
66519SOL    HW1 1389   4.074  11.686   2.848
66519SOL    HW2 1390   4.158  11.733   2.964
66520SOL     OW 1391   0.806  13.768   4.929
66520SOL    HW1 1392   0.861  13.719   4.990
66520SOL    HW2 1393   0.730  13.794   4.980
66521SOL     OW 1394   7.967   8.237  11.495
66521SOL    HW1 1395   7.967   8.151  11.453
66521SOL    HW2 1396   8.059   8.253  11.518
66522SOL     OW 1397  11.214   1.152   3.790
66522SOL    HW1 1398  11.198   1.242   3.817
66522SOL    HW2 1399  11.183   1.099   3.864
66523SOL     OW 1400   1.018   6.868   7.684
66523SOL    HW1 1401   0.954   6.801   7.707
66523SOL    HW2 1402   1.102   6.831   7.711
66524SOL     OW 1403  11.986   4.227   8.068
66524SOL    HW1 1404  12.062   4.168   8.065
66524SOL    HW2 1405  11.957   4.223   8.159
66525SOL     OW 1406   1.790   5.565   2.006
66525SOL    HW1 1407   1.760   5.487   2.052
66525SOL    HW2 1408   1.840   5.532   1.932
66526SOL     OW 1409   2.221  14.298   4.620
66526SOL    HW1 1410   2.291  14.364   4.618
66526SOL    HW2 1411   2.265  14.216   4.598
66527SOL     OW 1412   4.733   5.283   0.903
66527SOL    HW1 1413   4.808   5.262   0.849
66527SOL    HW2 1414   4.770   5.308   0.988
66528SOL     OW 1415  11.976  10.390   8.404
66528SOL    HW1 1416  12.067  10.375   8.427
66528SOL    HW2 1417  11.956  10.477   8.439
66529SOL     OW 1418  12.807  11.367   5.307
66529SOL    HW1 1419  12.850  11.293   5.264
66529SOL    HW2 1420  12.791  11.430   5.237
66530SOL     OW 1421  11.057   3.492   1.796
66530SOL    HW1 1422  11.139   3.449   1.775
66530SOL    HW2 1423  11.075   3.544   1.874
66531SOL     OW 1424  14.262   2.958   2.572
66531SOL    HW1 1425  14.270   3.052   2.585
66531SOL    HW2 1426  14.351   2.925   2.581
66532SOL     OW 1427   5.088   1.127   6.633
66532SOL    HW1 1428   5.158   1.070   6.664
66532SOL    HW2 1429   5.134   1.206   6.603
66533SOL     OW 1430  14.203  14.316  10.420
66533SOL    HW1 1431  14.122  14.362  10.442
66533SOL    HW2 1432  14.207  14.318  10.325
66534SOL     OW 1433  11.129   8.733   1.113
66534SOL    HW1 1434  11.186   8.716   1.038
66534SOL    HW2 1435  11.189   8.757   1.184
66535SOL     OW 1436   4.639   0.218  12.233
66535SOL    HW1 1437   4.641   0.304  12.276
66535SOL    HW2 1438   4.729   0.206  12.200
66536SOL     OW 1439  14.698  14.773   2.922
66536SOL    HW1 1440  14.644  14.780   3.000
66536SOL    HW2 1441  14.636  14.771   2.849
66537SOL     OW 1442   0.186   9.095  10.381
66537SOL    HW1 1443   0.258   9.152  10.356
66537SOL    HW2 1444   0.132   9.149  10.439
66538SOL     OW 1445   8.630  12.141   4.346
66538SOL    HW1 1446   8.667  12.067   4.298
66538SOL    HW2 1447   8.677  12.141   4.430
66539SOL     OW 1448   9.522  11.540   7.029
66539SOL    HW1 1449   9.608  11.500   7.046
66539SOL    HW2 1450   9.534  11.632   7.053
66540SOL     OW 1451  11.328  14.082   4.750
66540SOL    HW1 1452  11.343  14.129   4.832
66540SOL    HW2 1453  11.234  14.089   4.735
66541SOL     OW 1454   4.482  10.576  14.097
66541SOL    HW1 1455   4.466  10.649  14.037
66541SOL    HW2 1456   4.482  10.616  14.184
66542SOL     OW 1457   3.989   3.526   0.173
66542SOL    HW1 1458   3.943   3.604   0.144
66542SOL    HW2 1459   4.045   3.502   0.098
66543SOL     OW 1460  11.208   9.682  10.449
66543SOL    HW1 1461  11.204   9.677  10.545
66543SOL    HW2 1462  11.284   9.738  10.431
66544SOL     OW 1463  13.057   6.158   6.386
66544SOL    HW1 1464  13.129   6.098   6.364
66544SOL    HW2 1465  13.066   6.230   6.324
66545SOL     OW 1466   8.394   0.598   6.163
66545SOL    HW1 1467   8.387   0.590   6.258
66545SOL    HW2 1468   8.372   0.511   6.130
66546SOL     OW 1469   4.598  10.483   4.708
66546SOL    HW1 1470   4.647  10.561   4.682
66546SOL    HW2 1471   4.653  10.410   4.678
66547SOL     OW 1472  10.076  12.318  12.029
66547SOL    HW1 1473  10.007  12.346  12.090
66547SOL    HW2 1474  10.119  12.245  12.074
66548SOL     OW 1475   2.143   9.320   6.451
66548SOL    HW1 1476   2.222   9.270   6.473
66548SOL    HW2 1477   2.089   9.260   6.400
66549SOL     OW 1478  14.268  12.607   5.541
66549SOL    HW1 1479  14.238  12.621   5.451
66549SOL    HW2 1480  14.317  12.525   5.537
66550SOL     OW 1481   8.481   8.783   3.418
66550SOL    HW1 1482   8.408   8.754   3.471
66550SOL    HW2 1483   8.558   8.744   3.459
66551SOL     OW 1484   8.381  12.759   3.381
66551SOL    HW1 1485   8.410  12.846   3.408
66551SOL    HW2 1486   8.437  12.738   3.306
66552SOL     OW 1487   7.989  11.839  11.858
66552SOL    HW1 1488   8.026  11.766  11.808
66552SOL    HW2 1489   7.989  11.807  11.948
66553SOL     OW 1490   9.733   3.786  12.830
66553SOL    HW1 1491   9.744   3.752  12.919
66553SOL    HW2 1492   9.798   3.738  12.779
66554SOL     OW 1493  11.423   0.093  13.156
66554SOL    HW1 1494  11.331   0.115  13.143
66554SOL    HW2 1495  11.455   0.160  13.217
66555SOL     OW 1496   8.479   3.922   9.568
66555SOL    HW1 1497   8.433   3.896   9.488
66555SOL    HW2 1498   8.425   3.992   9.606
66556SOL     OW 1499   9.422   2.653  10.674
66556SOL    HW1 1500   9.347   2.627  10.727
66556SOL    HW2 1501   9.436   2.745  10.695
66557SOL     OW 1502   1.596  12.817   2.187
66557SOL    HW1 1503   1.531  12.865   2.136
66557SOL    HW2 1504   1.599  12.731   2.146
66558SOL     OW 1505  11.053   1.211   8.790
66558SOL    HW1 1506  11.122   1.167   8.840
66558SOL    HW2 1507  10.984   1.146   8.781
66559SOL     OW 1508  13.051  10.742   6.528
66559SOL    HW1 1509  13.111  10.816   6.516
66559SOL    HW2 1510  13.031  10.713   6.439
66560SOL     OW 1511   1.187  12.424   1.765
66560SOL    HW1 1512   1.117  12.370   1.728
66560SOL    HW2 1513   1.267  12.379   1.741
66561SOL     OW 1514  14.794   3.868   5.598
66561SOL    HW1 1515  14.803   3.784   5.642
66561SOL    HW2 1516  14.826   3.932   5.661
66562SOL     OW 1517  14.670  10.559   9.352
66562SOL    HW1 1518  14.658  10.651   9.326
66562SOL    HW2 1519  14.640  10.509   9.277
66563SOL     OW 1520  12.104   1.484   1.593
66563SOL    HW1 1521  12.074   1.424   1.524
66563SOL    HW2 1522  12.054   1.564   1.579
66564SOL     OW 1523   4.898  13.356  14.227
66564SOL    HW1 1524   4.841  13.342  14.151
66564SOL    HW2 1525   4.901  13.452  14.237
66565SOL     OW 1526   5.636   2.590   4.606
66565SOL    HW1 1527   5.614   2.515   4.662
66565SOL    HW2 1528   5.728   2.574   4.582
66566SOL     OW 1529   4.257   0.067  14.341
66566SOL    HW1 1530   4.304  14.860  14.326
66566SOL    HW2 1531   4.173   0.055  14.296
66567SOL     OW 1532   8.813  10.699   7.456
66567SOL    HW1 1533   8.735  10.679   7.508
66567SOL    HW2 1534   8.882  10.710   7.521
66568SOL     OW 1535   7.987  11.344   1.261
66568SOL    HW1 1536   8.067  11.305   1.226
66568SOL    HW2 1537   7.992  11.329   1.355
66569SOL     OW 1538   2.183   3.310   4.538
66569SOL    HW1 1539   2.105   3.283   4.587
66569SOL    HW2 1540   2.170   3.273   4.450
66570SOL     OW 1541   3.387  11.458   5.515
66570SOL    HW1 1542   3.444  11.488   5.586
66570SOL    HW2 1543   3.330  11.533   5.497
66571SOL     OW 1544  12.562   6.468  11.661
66571SOL    HW1 1545  12.589   6.395  11.716
66571SOL    HW2 1546  12.520   6.530  11.721
66572SOL     OW 1547   0.421   2.223   7.263
66572SOL    HW1 1548   0.357   2.155   7.242
66572SOL    HW2 1549   0.390   2.260   7.346
66573SOL     OW 1550   0.137  13.294  13.317
66573SOL    HW1 1551   0.075  13.225  13.338
66573SOL    HW2 1552   0.172  13.322  13.402
66574SOL     OW 1553   5.970  12.012   4.513
66574SOL    HW1 1554   6.045  12.072   4.508
66574SOL    HW2 1555   5.995  11.948   4.579
66575SOL     OW 1556   8.557  14.280   3.304
66575SOL    HW1 1557   8.523  14.198   3.339
66575SOL    HW2 1558   8.610  14.254   3.228
66576SOL     OW 1559   3.108  13.658   3.812
66576SOL    HW1 1560   3.136  13.647   3.722
66576SOL    HW2 1561   3.129  13.749   3.833
66577SOL     OW 1562  13.745   9.919   3.982
66577SOL    HW1 1563  13.651   9.907   3.970
66577SOL    HW2 1564  13.757  10.014   3.982
66578SOL     OW 1565   7.201   7.733  11.567
66578SOL    HW1 1566   7.155   7.817  11.567
66578SOL    HW2 1567   7.156   7.681  11.500
66579SOL     OW 1568  11.968  13.207   1.418
66579SOL    HW1 1569  11.908  13.150   1.467
66579SOL    HW2 1570  11.935  13.205   1.328
66580SOL     OW 1571   4.492   6.700   7.165
66580SOL    HW1 1572   4.405   6.692   7.205
66580SOL    HW2 1573   4.542   6.753   7.227
66581SOL     OW 1574   5.862  14.189   4.630
66581SOL    HW1 1575   5.908  14.251   4.574
66581SOL    HW2 1576   5.896  14.207   4.718
66582SOL     OW 1577   7.759   6.883   3.229
66582SOL    HW1 1578   7.668   6.876   3.258
66582SOL    HW2 1579   7.761   6.964   3.177
66583SOL     OW 1580  10.461   9.626  14.227
66583SOL    HW1 1581  10.383   9.590  14.185
66583SOL    HW2 1582  10.461   9.588  14.315
66584SOL     OW 1583   8.690   8.383   1.888
66584SOL    HW1 1584   8.719   8.458   1.836
66584SOL    HW2 1585   8.645   8.327   1.825
66585SOL     OW 1586   0.954   5.035  12.093
66585SOL    HW1 1587   0.998   4.950  12.092
66585SOL    HW2 1588   0.916   5.044  12.006
66586SOL     OW 1589  11.230   8.119  11.528
66586SOL    HW1 1590  11.291   8.046  11.521
66586SOL    HW2 1591  11.208   8.141  11.437
66587SOL     OW 1592   7.709   5.613  13.498
66587SOL    HW1 1593   7.769   5.687  13.495
66587SOL    HW2 1594   7.757   5.545  13.545
66588SOL     OW 1595   8.676   9.428  12.260
66588SOL    HW1 1596   8.628   9.347  12.240
66588SOL    HW2 1597   8.610   9.488  12.293
66589SOL     OW 1598   1.211   9.780   5.485
66589SOL    HW1 1599   1.239   9.842   5.417
66589SOL    HW2 1600   1.187   9.701   5.437
66590SOL     OW 1601   0.968   7.803   2.231
66590SOL    HW1 1602   0.936   7.727   2.280
66590SOL    HW2 1603   0.953   7.780   2.139
66591SOL     OW 1604  12.579   0.585   9.820
66591SOL    HW1 1605  12.639   0.659   9.815
66591SOL    HW2 1606  12.613   0.531   9.891
66592SOL     OW 1607  12.228  11.178   2.778
66592SOL    HW1 1608  12.287  11.253   2.777
66592SOL    HW2 1609  12.147  11.211   2.816
66593SOL     OW 1610  11.902   8.716   8.077
66593SOL    HW1 1611  11.993   8.735   8.100
66593SOL    HW2 1612  11.889   8.625   8.105
66594SOL     OW 1613   9.365   3.773   0.903
66594SOL    HW1 1614   9.446   3.822   0.905
66594SOL    HW2 1615   9.357   3.742   0.812
66595SOL     OW 1616   9.879   2.837   0.609
66595SOL    HW1 1617   9.834   2.795   0.682
66595SOL    HW2 1618   9.916   2.765   0.558
66596SOL     OW 1619   9.670   9.628  14.228
66596SOL    HW1 1620   9.683   9.702  14.287
66596SOL    HW2 1621   9.726   9.647  14.153
66597SOL     OW 1622   2.297   2.760  10.993
66597SOL    HW1 1623   2.206   2.772  11.020
66597SOL    HW2 1624   2.348   2.785  11.070
66598SOL     OW 1625   1.429  13.000   1.305
66598SOL    HW1 1626   1.490  13.044   1.365
66598SOL    HW2 1627   1.409  12.917   1.349
66599SOL     OW 1628   9.996   0.215   3.461
66599SOL    HW1 1629   9.970   0.124   3.473
66599SOL    HW2 1630   9.985   0.255   3.547
66600SOL     OW 1631   5.350   0.944   3.816
66600SOL    HW1 1632   5.362   0.857   3.854
66600SOL    HW2 1633   5.270   0.977   3.857
66601SOL     OW 1634   7.634   2.687   8.877
66601SOL    HW1 1635   7.684   2.751   8.927
66601SOL    HW2 1636   7.575   2.647   8.941
66602SOL     OW 1637   4.394   7.607   3.003
66602SOL    HW1 1638   4.435   7.604   2.917
66602SOL    HW2 1639   4.420   7.525   3.045
66603SOL     OW 1640   1.260  11.546   5.769
66603SOL    HW1 1641   1.190  11.484   5.749
66603SOL    HW2 1642   1.324  11.534   5.699
66604SOL     OW 1643   7.851   4.783   7.435
66604SOL    HW1 1644   7.762   4.812   7.413
66604SOL    HW2 1645   7.898   4.787   7.352
66605SOL     OW 1646   3.840  13.585   9.022
66605SOL    HW1 1647   3.763  13.637   9.044
66605SOL    HW2 1648   3.895  13.644   8.971
66606SOL     OW 1649  13.652   4.453  12.645
66606SOL    HW1 1650  13.560   4.446  12.668
66606SOL    HW2 1651  13.694   4.381  12.693
66607SOL     OW 1652  14.026   0.063   6.595
66607SOL    HW1 1653  14.078   0.110   6.531
66607SOL    HW2 1654  13.945   0.114   6.603
66608SOL     OW 1655  10.201   1.479   8.346
66608SOL    HW1 1656  10.216   1.570   8.321
66608SOL    HW2 1657  10.207   1.430   8.264
66609SOL     OW 1658   9.580   8.596  12.504
66609SOL    HW1 1659   9.570   8.502  12.489
66609SOL    HW2 1660   9.491   8.630  12.506
66610SOL     OW 1661  11.441   0.267   2.854
66610SOL    HW1 1662  11.378   0.208   2.895
66610SOL    HW2 1663  11.497   0.210   2.802
66611SOL     OW 1664   8.191  12.637   7.710
66611SOL    HW1 1665   8.258  12.658   7.646
66611SOL    HW2 1666   8.136  12.572   7.666
66612SOL     OW 1667  14.787   5.682   5.384
66612SOL    HW1 1668  14.849   5.617   5.350
66612SOL    HW2 1669  14.780   5.662   5.477
66613SOL     OW 1670  13.000   8.180  14.465
66613SOL    HW1 1671  13.031   8.142  14.382
66613SOL    HW2 1672  12.972   8.269  14.441
66614SOL     OW 1673   9.857  13.466  14.817
66614SOL    HW1 1674   9.872  13.500   0.029
66614SOL    HW2 1675   9.843  13.372  14.830
66615SOL     OW 1676   2.788  13.560   7.037
66615SOL    HW1 1677   2.740  13.521   7.110
66615SOL    HW2 1678   2.873  13.517   7.038
66616SOL     OW 1679   4.646   9.466   7.874
66616SOL    HW1 1680   4.564   9.461   7.825
66616SOL    HW2 1681   4.715   9.458   7.808
66617SOL     OW 1682   0.043   2.254   3.803
66617SOL    HW1 1683  14.853   2.320   3.824
66617SOL    HW2 1684  14.873   2.171   3.814
66618SOL     OW 1685  12.687  12.377   7.785
66618SOL    HW1 1686  12.633  12.456   7.791
66618SOL    HW2 1687  12.777  12.410   7.781
66619SOL     OW 1688  14.318  14.170   8.646
66619SOL    HW1 1689  14.266  14.246   8.674
66619SOL    HW2 1690  14.389  14.208   8.594
66620SOL     OW 1691   8.937  10.597  10.526
66620SOL    HW1 1692   8.969  10.671  10.475
66620SOL    HW2 1693   8.886  10.637  10.596
66621SOL     OW 1694   7.582   7.498  12.407
66621SOL    HW1 1695   7.654   7.515  12.347
66621SOL    HW2 1696   7.534   7.425  12.368
66622SOL     OW 1697  14.873  12.808  12.586
66622SOL    HW1 1698  14.872  12.803  12.681
66622SOL    HW2 1699   0.083  12.775  12.561
66623SOL     OW 1700   1.550   7.175   9.591
66623SOL    HW1 1701   1.637   7.201   9.620
66623SOL    HW2 1702   1.561   7.085   9.560
66624SOL     OW 1703   6.489   3.842   5.590
66624SOL    HW1 1704   6.559   3.904   5.612
66624SOL    HW2 1705   6.517   3.759   5.628
66625SOL     OW 1706   7.148   4.849  12.016
66625SOL    HW1 1707   7.236   4.884  12.032
66625SOL    HW2 1708   7.118   4.819  12.102
66626SOL     OW 1709   5.781  13.057  13.709
66626SOL    HW1 1710   5.783  13.128  13.774
66626SOL    HW2 1711   5.695  13.017  13.720
66627SOL     OW 1712   1.921   0.689   1.306
66627SOL    HW1 1713   1.872   0.681   1.388
66627SOL    HW2 1714   1.859   0.664   1.238
66628SOL     OW 1715   0.259  11.408   1.381
66628SOL    HW1 1716   0.327  11.357   1.425
66628SOL    HW2 1717   0.308  11.468   1.324
66629SOL     OW 1718  10.211   2.525   3.704
66629SOL    HW1 1719  10.238   2.582   3.777
66629SOL    HW2 1720  10.284   2.528   3.642
66630SOL     OW 1721  14.392  14.327  13.478
66630SOL    HW1 1722  14.400  14.365  13.566
66630SOL    HW2 1723  14.411  14.400  13.419
66631SOL     OW 1724   3.083  11.213   2.484
66631SOL    HW1 1725   3.054  11.134   2.530
66631SOL    HW2 1726   3.013  11.276   2.498
66632SOL     OW 1727   2.725   8.088   7.715
66632SOL    HW1 1728   2.711   8.158   7.778
66632SOL    HW2 1729   2.718   8.131   7.630
66633SOL     OW 1730   8.706  14.543  11.671
66633SOL    HW1 1731   8.678  14.564  11.582
66633SOL    HW2 1732   8.799  14.522  11.663
66634SOL     OW 1733   0.204  13.649   7.066
66634SOL    HW1 1734   0.141  13.588   7.028
66634SOL    HW2 1735   0.187  13.646   7.160
66635SOL     OW 1736   9.111  14.435   6.421
66635SOL    HW1 1737   9.129  14.343   6.404
66635SOL    HW2 1738   9.159  14.454   6.502
66636SOL     OW 1739  10.139   9.167  10.894
66636SOL    HW1 1740  10.150   9.132  10.806
66636SOL    HW2 1741  10.167   9.096  10.952
66637SOL     OW 1742   5.786   4.890   1.245
66637SOL    HW1 1743   5.881   4.903   1.238
66637SOL    HW2 1744   5.762   4.845   1.164
66638SOL     OW 1745   9.872  13.743   2.258
66638SOL    HW1 1746   9.950  13.785   2.224
66638SOL    HW2 1747   9.837  13.805   2.322
66639SOL     OW 1748  10.478   1.488   2.208
66639SOL    HW1 1749  10.408   1.551   2.228
66639SOL    HW2 1750  10.534   1.534   2.146
66640SOL     OW 1751  12.706   1.703   1.778
66640SOL    HW1 1752  12.712   1.772   1.844
66640SOL    HW2 1753  12.647   1.638   1.816
66641SOL     OW 1754   6.771  13.240   0.600
66641SOL    HW1 1755   6.838  13.253   0.666
66641SOL    HW2 1756   6.716  13.318   0.605
66642SOL     OW 1757  12.694   8.685   2.038
66642SOL    HW1 1758  12.691   8.744   2.114
66642SOL    HW2 1759  12.605   8.686   2.003
66643SOL     OW 1760  13.986   4.935   9.727
66643SOL    HW1 1761  13.968   4.880   9.651
66643SOL    HW2 1762  13.933   4.898   9.797
66644SOL     OW 1763   3.961   8.072   0.610
66644SOL    HW1 1764   3.915   8.120   0.679
66644SOL    HW2 1765   4.053   8.076   0.636
66645SOL     OW 1766   8.832   5.494   4.607
66645SOL    HW1 1767   8.895   5.502   4.535
66645SOL    HW2 1768   8.803   5.403   4.603
66646SOL     OW 1769  14.659   9.024  11.896
66646SOL    HW1 1770  14.645   8.986  11.982
66646SOL    HW2 1771  14.745   9.065  11.901
66647SOL     OW 1772   4.908  11.357   9.268
66647SOL    HW1 1773   4.969  11.335   9.339
66647SOL    HW2 1774   4.834  11.297   9.281
66648SOL     OW 1775   2.072   2.599   4.485
66648SOL    HW1 1776   1.998   2.649   4.519
66648SOL    HW2 1777   2.140   2.611   4.551
66649SOL     OW 1778  13.896  10.806  11.365
66649SOL    HW1 1779  13.984  10.828  11.395
66649SOL    HW2 1780  13.846  10.887  11.378
66650SOL     OW 1781  14.343   5.143   1.938
66650SOL    HW1 1782  14.320   5.148   1.845
66650SOL    HW2 1783  14.263   5.112   1.981
66651SOL     OW 1784   2.512   4.966   6.700
66651SOL    HW1 1785   2.476   4.947   6.614
66651SOL    HW2 1786   2.538   4.881   6.735
66652SOL     OW 1787   1.460  12.441   7.879
66652SOL    HW1 1788   1.461  12.533   7.852
66652SOL    HW2 1789   1.367  12.419   7.886
66653SOL     OW 1790  10.074   5.382   9.265
66653SOL    HW1 1791  10.067   5.451   9.200
66653SOL    HW2 1792   9.991   5.383   9.312
66654SOL     OW 1793  10.771   9.895  13.897
66654SOL    HW1 1794  10.742   9.883  13.807
66654SOL    HW2 1795  10.818   9.814  13.918
66655SOL     OW 1796   8.022  12.900  10.195
66655SOL    HW1 1797   8.087  12.968  10.176
66655SOL    HW2 1798   7.942  12.948  10.214
66656SOL     OW 1799   5.843   7.302   1.713
66656SOL    HW1 1800   5.818   7.343   1.631
66656SOL    HW2 1801   5.783   7.341   1.778
66657SOL     OW 1802  13.812  13.482   2.167
66657SOL    HW1 1803  13.756  13.501   2.242
66657SOL    HW2 1804  13.752  13.462   2.096
66658SOL     OW 1805   0.786   5.163  11.028
66658SOL    HW1 1806   0.794   5.231  11.094
66658SOL    HW2 1807   0.876   5.137  11.008
66659SOL     OW 1808   8.206   2.024   9.433
66659SOL    HW1 1809   8.231   2.043   9.343
66659SOL    HW2 1810   8.117   1.989   9.426
66660SOL     OW 1811   3.380   6.105   4.666
66660SOL    HW1 1812   3.335   6.021   4.673
66660SOL    HW2 1813   3.473   6.083   4.674
66661SOL     OW 1814  12.599   8.421   8.263
66661SOL    HW1 1815  12.555   8.389   8.184
66661SOL    HW2 1816  12.688   8.387   8.255
66662SOL     OW 1817  14.077  10.322   0.219
66662SOL    HW1 1818  14.103  10.397   0.273
66662SOL    HW2 1819  14.149  10.260   0.229
66663SOL     OW 1820  10.336   2.987   5.609
66663SOL    HW1 1821  10.341   2.916   5.545
66663SOL    HW2 1822  10.247   2.980   5.645
66664SOL     OW 1823   7.039   4.557  14.722
66664SOL    HW1 1824   6.982   4.566  14.645
66664SOL    HW2 1825   7.091   4.637  14.722
66665SOL     OW 1826  11.561   6.216   5.220
66665SOL    HW1 1827  11.527   6.244   5.305
66665SOL    HW2 1828  11.483   6.199   5.167
66666SOL     OW 1829   9.089   5.245   2.999
66666SOL    HW1 1830   9.016   5.254   2.938
66666SOL    HW2 1831   9.058   5.287   3.079
66667SOL     OW 1832   3.250  13.185   8.305
66667SOL    HW1 1833   3.195  13.120   8.262
66667SOL    HW2 1834   3.222  13.268   8.268
66668SOL     OW 1835   8.539   1.057  10.903
66668SOL    HW1 1836   8.584   0.998  10.963
66668SOL    HW2 1837   8.608   1.117  10.873
66669SOL     OW 1838   0.784   5.635   2.266
66669SOL    HW1 1839   0.766   5.726   2.242
66669SOL    HW2 1840   0.792   5.589   2.183
66670SOL     OW 1841   1.122   1.659   3.702
66670SOL    HW1 1842   1.108   1.698   3.788
66670SOL    HW2 1843   1.208   1.618   3.707
66671SOL     OW 1844   4.327  11.150   2.438
66671SOL    HW1 1845   4.335  11.201   2.519
66671SOL    HW2 1846   4.397  11.181   2.382
66672SOL     OW 1847  11.902  14.342   8.206
66672SOL    HW1 1848  11.978  14.368   8.154
66672SOL    HW2 1849  11.835  14.319   8.142
66673SOL     OW 1850   6.614   8.239   6.278
66673SOL    HW1 1851   6.617   8.179   6.203
66673SOL    HW2 1852   6.706   8.257   6.298
66674SOL     OW 1853   0.878  13.144   3.804
66674SOL    HW1 1854   0.833  13.144   3.889
66674SOL    HW2 1855   0.831  13.078   3.752
66675SOL     OW 1856   8.557  11.469   4.630
66675SOL    HW1 1857   8.610  11.508   4.700
66675SOL    HW2 1858   8.539  11.542   4.570
66676SOL     OW 1859   9.021  10.962   4.108
66676SOL    HW1 1860   8.975  10.884   4.138
66676SOL    HW2 1861   8.964  10.998   4.039
66677SOL     OW 1862   9.238   4.243  13.070
66677SOL    HW1 1863   9.152   4.216  13.040
66677SOL    HW2 1864   9.278   4.163  13.104
66678SOL     OW 1865  13.986   2.126  12.708
66678SOL    HW1 1866  13.961   2.082  12.626
66678SOL    HW2 1867  13.908   2.117  12.764
66679SOL     OW 1868  10.254  13.854   2.082
66679SOL    HW1 1869  10.280  13.794   2.012
66679SOL    HW2 1870  10.239  13.938   2.038
66680SOL     OW 1871   2.412   2.631   5.806
66680SOL    HW1 1872   2.400   2.648   5.900
66680SOL    HW2 1873   2.499   2.594   5.799
66681SOL     OW 1874   3.972   2.546   8.257
66681SOL    HW1 1875   4.037   2.597   8.306
66681SOL    HW2 1876   3.987   2.456   8.286
66682SOL     OW 1877  10.167   3.801  13.275
66682SOL    HW1 1878  10.182   3.895  13.268
66682SOL    HW2 1879  10.208   3.764  13.197
66683SOL     OW 1880   5.732  10.833  10.922
66683SOL    HW1 1881   5.778  10.812  11.004
66683SOL    HW2 1882   5.762  10.921  10.900
66684SOL     OW 1883   6.169   1.595  14.834
66684SOL    HW1 1884   6.142   1.687  14.835
66684SOL    HW2 1885   6.142   1.562   0.044
66685SOL     OW 1886  10.487   1.264   3.116
66685SOL    HW1 1887  10.469   1.185   3.064
66685SOL    HW2 1888  10.560   1.238   3.173
66686SOL     OW 1889   8.144  12.247  13.667
66686SOL    HW1 1890   8.202  12.305  13.716
66686SOL    HW2 1891   8.120  12.178  13.729
66687SOL     OW 1892   8.402   9.071   7.646
66687SOL    HW1 1893   8.374   9.020   7.569
66687SOL    HW2 1894   8.322   9.085   7.696
66688SOL     OW 1895  14.595   5.668  11.586
66688SOL    HW1 1896  14.650   5.717  11.525
66688SOL    HW2 1897  14.640   5.675  11.670
66689SOL     OW 1898   5.775  11.542   0.701
66689SOL    HW1 1899   5.786  11.449   0.721
66689SOL    HW2 1900   5.855  11.583   0.732
66690SOL     OW 1901  12.960   8.872  13.909
66690SOL    HW1 1902  12.922   8.803  13.963
66690SOL    HW2 1903  12.996   8.934  13.972
66691SOL     OW 1904   2.574  11.379  14.511
66691SOL    HW1 1905   2.483  11.374  14.541
66691SOL    HW2 1906   2.615  11.302  14.549
66692SOL     OW 1907   1.817  14.037  11.347
66692SOL    HW1 1908   1.895  14.032  11.402
66692SOL    HW2 1909   1.846  14.087  11.270
66693SOL     OW 1910   1.883   8.584  10.530
66693SOL    HW1 1911   1.961   8.597  10.476
66693SOL    HW2 1912   1.904   8.509  10.586
66694SOL     OW 1913   5.733  13.588   7.814
66694SOL    HW1 1914   5.776  13.586   7.899
66694SOL    HW2 1915   5.720  13.496   7.792
66695SOL     OW 1916  10.662   5.056  12.897
66695SOL    HW1 1917  10.594   5.124  12.894
66695SOL    HW2 1918  10.674   5.039  12.991
66696SOL     OW 1919   5.126  14.760  13.585
66696SOL    HW1 1920   5.139  14.755  13.679
66696SOL    HW2 1921   5.178  14.835  13.557
66697SOL     OW 1922   4.021   5.938   2.345
66697SOL    HW1 1923   4.061   5.959   2.429
66697SOL    HW2 1924   4.006   6.022   2.303
66698SOL     OW 1925   1.895  13.941   4.814
66698SOL    HW1 1926   1.811  13.901   4.794
66698SOL    HW2 1927   1.958  13.869   4.808
66699SOL     OW 1928   5.568   9.460  10.079
66699SOL    HW1 1929   5.474   9.478  10.077
66699SOL    HW2 1930   5.593   9.452   9.987
66700SOL     OW 1931   0.765   3.322   9.536
66700SOL    HW1 1932   0.830   3.264   9.495
66700SOL    HW2 1933   0.681   3.278   9.520
66701SOL     OW 1934   8.899   6.859   7.206
66701SOL    HW1 1935   8.902   6.764   7.198
66701SOL    HW2 1936   8.844   6.887   7.133
66702SOL     OW 1937  13.342   5.326   0.811
66702SOL    HW1 1938  13.254   5.356   0.832
66702SOL    HW2 1939  13.348   5.239   0.852
66703SOL     OW 1940   8.899   5.595   8.830
66703SOL    HW1 1941   8.871   5.518   8.780
66703SOL    HW2 1942   8.993   5.582   8.842
66704SOL     OW 1943   4.528  12.666   3.378
66704SOL    HW1 1944   4.511  12.760   3.377
66704SOL    HW2 1945   4.532  12.643   3.471
66705SOL     OW 1946  13.395   0.611   4.031
66705SOL    HW1 1947  13.426   0.521   4.028
66705SOL    HW2 1948  13.301   0.603   4.046
66706SOL     OW 1949   5.624   2.780  10.658
66706SOL    HW1 1950   5.589   2.867  10.637
66706SOL    HW2 1951   5.588   2.760  10.745
66707SOL     OW 1952   7.718   9.900   2.672
66707SOL    HW1 1953   7.656   9.973   2.677
66707SOL    HW2 1954   7.771   9.907   2.751
66708SOL     OW 1955   4.568  10.366   6.409
66708SOL    HW1 1956   4.637  10.422   6.374
66708SOL    HW2 1957   4.611  10.283   6.426
66709SOL     OW 1958   2.689  11.563   7.562
66709SOL    HW1 1959   2.602  11.525   7.548
66709SOL    HW2 1960   2.701  11.623   7.489
66710SOL     OW 1961   9.063  11.960   2.786
66710SOL    HW1 1962   8.973  11.983   2.764
66710SOL    HW2 1963   9.115  12.030   2.749
66711SOL     OW 1964   6.305   6.265   6.525
66711SOL    HW1 1965   6.400   6.273   6.538
66711SOL    HW2 1966   6.267   6.287   6.610
66712SOL     OW 1967   0.591   1.785   1.013
66712SOL    HW1 1968   0.514   1.787   1.070
66712SOL    HW2 1969   0.622   1.876   1.011
66713SOL     OW 1970   1.108   1.986   9.037
66713SOL    HW1 1971   1.130   1.930   9.111
66713SOL    HW2 1972   1.030   1.946   8.999
66714SOL     OW 1973   2.176   9.438  13.395
66714SOL    HW1 1974   2.101   9.485  13.358
66714SOL    HW2 1975   2.143   9.349  13.412
66715SOL     OW 1976  10.903   1.872   6.232
66715SOL    HW1 1977  10.905   1.950   6.287
66715SOL    HW2 1978  10.992   1.839   6.234
66716SOL     OW 1979   0.949   3.820   2.544
66716SOL    HW1 1980   0.921   3.813   2.635
66716SOL    HW2 1981   0.975   3.912   2.533
66717SOL     OW 1982   2.261   5.334  10.537
66717SOL    HW1 1983   2.255   5.365  10.627
66717SOL    HW2 1984   2.188   5.375  10.491
66718SOL     OW 1985   9.939   5.663  13.532
66718SOL    HW1 1986  10.000   5.647  13.605
66718SOL    HW2 1987   9.963   5.750  13.500
66719SOL     OW 1988   9.224   9.857  10.014
66719SOL    HW1 1989   9.146   9.862  10.070
66719SOL    HW2 1990   9.288   9.913  10.058
66720SOL     OW 1991   2.487   7.356   7.147
66720SOL    HW1 1992   2.442   7.404   7.077
66720SOL    HW2 1993   2.417   7.325   7.203
66721SOL     OW 1994   5.092   2.820   6.241
66721SOL    HW1 1995   5.116   2.774   6.322
66721SOL    HW2 1996   5.176   2.832   6.196
66722SOL     OW 1997   1.226  14.632  12.091
66722SOL    HW1 1998   1.231  14.613  11.997
66722SOL    HW2 1999   1.138  14.605  12.116
66723SOL     OW 2000   5.756   1.791   3.929
66723SOL    HW1 2001   5.817   1.722   3.954
66723SOL    HW2 2002   5.671   1.748   3.926
66724SOL     OW 2003   7.178   1.353  12.745
66724SOL    HW1 2004   7.144   1.271  12.781
66724SOL    HW2 2005   7.259   1.369  12.795
66725SOL     OW 2006   4.022   8.393   0.499
66725SOL    HW1 2007   3.974   8.468   0.463
66725SOL    HW2 2008   3.994   8.388   0.590
66726SOL     OW 2009   0.434   3.595   6.638
66726SOL    HW1 2010   0.457   3.590   6.731
66726SOL    HW2 2011   0.480   3.522   6.598
66727SOL     OW 2012   1.793   3.050  11.099
66727SOL    HW1 2013   1.856   3.039  11.028
66727SOL    HW2 2014   1.845   3.045  11.179
66728SOL     OW 2015   8.623   0.016  12.426
66728SOL    HW1 2016   8.702  14.840  12.436
66728SOL    HW2 2017   8.648   0.086  12.366
66729SOL     OW 2018   3.638   4.390  11.495
66729SOL    HW1 2019   3.550   4.351  11.494
66729SOL    HW2 2020   3.648   4.428  11.408
66730SOL     OW 2021   6.525   5.608   2.440
66730SOL    HW1 2022   6.507   5.535   2.380
66730SOL    HW2 2023   6.498   5.686   2.391
66731SOL     OW 2024   8.404  11.397  11.996
66731SOL    HW1 2025   8.417  11.304  11.977
66731SOL    HW2 2026   8.491  11.436  11.983
66732SOL     OW 2027   1.740   2.414   3.918
66732SOL    HW1 2028   1.691   2.369   3.849
66732SOL    HW2 2029   1.707   2.378   4.000
66733SOL     OW 2030   2.041   7.768   1.287
66733SOL    HW1 2031   1.974   7.726   1.233
66733SOL    HW2 2032   2.124   7.742   1.246
66734SOL     OW 2033   9.735  13.332   8.203
66734SOL    HW1 2034   9.766  13.367   8.287
66734SOL    HW2 2035   9.644  13.306   8.220
66735SOL     OW 2036   1.230   1.643   9.425
66735SOL    HW1 2037   1.295   1.573   9.416
66735SOL    HW2 2038   1.152   1.598   9.457
66736SOL     OW 2039  12.089   4.756   3.117
66736SOL    HW1 2040  12.104   4.713   3.033
66736SOL    HW2 2041  12.170   4.803   3.136
66737SOL     OW 2042   6.147   1.610   1.606
66737SOL    HW1 2043   6.167   1.672   1.677
66737SOL    HW2 2044   6.192   1.646   1.530
66738SOL     OW 2045   7.739  13.732   9.457
66738SOL    HW1 2046   7.715  13.814   9.500
66738SOL    HW2 2047   7.789  13.684   9.523
66739SOL     OW 2048   2.149  13.652   5.288
66739SOL    HW1 2049   2.158  13.661   5.194
66739SOL    HW2 2050   2.060  13.617   5.301
66740SOL     OW 2051   3.247   7.687  11.700
66740SOL    HW1 2052   3.289   7.607  11.730
66740SOL    HW2 2053   3.254   7.747  11.775
66741SOL     OW 2054   1.191  12.397  14.337
66741SOL    HW1 2055   1.153  12.485  14.347
66741SOL    HW2 2056   1.243  12.403  14.257
66742SOL     OW 2057  12.885   5.549   1.461
66742SOL    HW1 2058  12.899   5.462   1.496
66742SOL    HW2 2059  12.855   5.601   1.536
66743SOL     OW 2060   6.996   1.069   8.087
66743SOL    HW1 2061   7.085   1.103   8.095
66743SOL    HW2 2062   6.970   1.092   7.998
66744SOL     OW 2063   4.921   4.430   1.902
66744SOL    HW1 2064   4.941   4.437   1.809
66744SOL    HW2 2065   4.836   4.473   1.911
66745SOL     OW 2066   5.762   0.192  13.211
66745SOL    HW1 2067   5.787   0.131  13.281
66745SOL    HW2 2068   5.832   0.257  13.209
66746SOL     OW 2069   3.039   3.648   1.718
66746SOL    HW1 2070   2.948   3.648   1.748
66746SOL    HW2 2071   3.087   3.692   1.788
66747SOL     OW 2072  14.366  10.874   5.959
66747SOL    HW1 2073  14.361  10.780   5.978
66747SOL    HW2 2074  14.455  10.898   5.981
66748SOL     OW 2075   6.378  11.424   3.613
66748SOL    HW1 2076   6.291  11.443   3.647
66748SOL    HW2 2077   6.416  11.510   3.595
66749SOL     OW 2078  13.363  10.080   5.453
66749SOL    HW1 2079  13.302  10.009   5.473
66749SOL    HW2 2080  13.440  10.035   5.417
66750SOL     OW 2081   9.984  14.421  12.082
66750SOL    HW1 2082   9.934  14.339  12.078
66750SOL    HW2 2083   9.936  14.475  12.145
66751SOL     OW 2084   5.774   2.675   9.892
66751SOL    HW1 2085   5.710   2.679   9.963
66751SOL    HW2 2086   5.833   2.603   9.915
66752SOL     OW 2087   0.429   6.391   8.110
66752SOL    HW1 2088   0.451   6.402   8.018
66752SOL    HW2 2089   0.373   6.313   8.112
66753SOL     OW 2090   9.656   2.768  13.349
66753SOL    HW1 2091   9.679   2.859  13.329
66753SOL    HW2 2092   9.561   2.767  13.351
66754SOL     OW 2093   7.527   3.905  13.905
66754SOL    HW1 2094   7.562   3.818  13.890
66754SOL    HW2 2095   7.514   3.941  13.817
66755SOL     OW 2096   0.947   4.014  11.043
66755SOL    HW1 2097   1.029   3.968  11.056
66755SOL    HW2 2098   0.972   4.105  11.027
66756SOL     OW 2099   5.635   0.781   6.997
66756SOL    HW1 2100   5.619   0.827   6.915
66756SOL    HW2 2101   5.596   0.838   7.064
66757SOL     OW 2102  12.884  13.673   1.088
66757SOL    HW1 2103  12.809  13.698   1.034
66757SOL    HW2 2104  12.903  13.751   1.140
66758SOL     OW 2105   5.259   3.334   5.823
66758SOL    HW1 2106   5.290   3.395   5.755
66758SOL    HW2 2107   5.215   3.391   5.886
66759SOL     OW 2108   2.807   8.655  11.898
66759SOL    HW1 2109   2.879   8.687  11.953
66759SOL    HW2 2110   2.739   8.721  11.906
66760SOL     OW 2111  12.039   2.313   9.622
66760SOL    HW1 2112  12.051   2.275   9.709
66760SOL    HW2 2113  12.028   2.406   9.637
66761SOL     OW 2114   6.816   0.876   3.285
66761SOL    HW1 2115   6.817   0.803   3.346
66761SOL    HW2 2116   6.802   0.953   3.340
66762SOL     OW 2117   4.138   1.430  14.113
66762SOL    HW1 2118   4.205   1.369  14.082
66762SOL    HW2 2119   4.146   1.428  14.208
66763SOL     OW 2120   3.006   5.117  12.080
66763SOL    HW1 2121   2.921   5.159  12.090
66763SOL    HW2 2122   3.034   5.139  11.992
66764SOL     OW 2123   8.998   3.223   9.971
66764SOL    HW1 2124   8.920   3.178   9.938
66764SOL    HW2 2125   8.990   3.217  10.066
66765SOL     OW 2126  13.219  11.921   2.643
66765SOL    HW1 2127  13.250  11.923   2.553
66765SOL    HW2 2128  13.241  11.833   2.674
66766SOL     OW 2129   1.110   2.983   4.663
66766SOL    HW1 2130   1.118   2.942   4.577
66766SOL    HW2 2131   1.083   2.912   4.722
66767SOL     OW 2132   4.237   2.490   5.449
66767SOL    HW1 2133   4.173   2.523   5.387
66767SOL    HW2 2134   4.192   2.493   5.534
66768SOL     OW 2135   8.721   1.228  10.115
66768SOL    HW1 2136   8.650   1.226  10.178
66768SOL    HW2 2137   8.753   1.137  10.113
66769SOL     OW 2138  13.160   4.994   1.384
66769SOL    HW1 2139  13.143   4.961   1.472
66769SOL    HW2 2140  13.074   5.021   1.352
66770SOL     OW 2141  10.492   3.123   7.117
66770SOL    HW1 2142  10.474   3.158   7.204
66770SOL    HW2 2143  10.519   3.199   7.066
66771SOL     OW 2144  10.106  11.682   6.441
66771SOL    HW1 2145  10.088  11.776   6.441
66771SOL    HW2 2146  10.166  11.669   6.367
66772SOL     OW 2147   5.866   2.149  10.557
66772SOL    HW1 2148   5.937   2.194  10.603
66772SOL    HW2 2149   5.887   2.056  10.566
66773SOL     OW 2150   6.947   9.904   1.751
66773SOL    HW1 2151   7.010   9.927   1.819
66773SOL    HW2 2152   6.985   9.826   1.709
66774SOL     OW 2153   1.116   7.442   9.466
66774SOL    HW1 2154   1.049   7.454   9.533
66774SOL    HW2 2155   1.199   7.453   9.513
66775SOL     OW 2156   5.986   9.165  13.405
66775SOL    HW1 2157   5.980   9.104  13.478
66775SOL    HW2 2158   5.992   9.109  13.327
66776SOL     OW 2159   0.256   1.886   3.749
66776SOL    HW1 2160   0.183   1.862   3.807
66776SOL    HW2 2161   0.283   1.804   3.708
66777SOL     OW 2162   1.341  11.790   1.248
66777SOL    HW1 2163   1.365  11.700   1.270
66777SOL    HW2 2164   1.260  11.781   1.197
66778SOL     OW 2165  11.263  14.219  14.482
66778SOL    HW1 2166  11.282  14.306  14.448
66778SOL    HW2 2167  11.224  14.172  14.408
66779SOL     OW 2168   9.920   9.674   5.076
66779SOL    HW1 2169   9.949   9.764   5.089
66779SOL    HW2 2170   9.990   9.621   5.113
66780SOL     OW 2171  14.687   5.253   9.507
66780SOL    HW1 2172  14.599   5.233   9.478
66780SOL    HW2 2173  14.743   5.194   9.457
66781SOL     OW 2174   2.521   1.098   2.921
66781SOL    HW1 2175   2.523   1.089   3.016
66781SOL    HW2 2176   2.466   1.025   2.891
66782SOL     OW 2177  11.827   8.386  10.191
66782SOL    HW1 2178  11.805   8.294  10.201
66782SOL    HW2 2179  11.756   8.433  10.235
66783SOL     OW 2180  10.653  10.612   7.150
66783SOL    HW1 2181  10.730  10.561   7.127
66783SOL    HW2 2182  10.688  10.694   7.185
66784SOL     OW 2183  12.061   2.199  10.234
66784SOL    HW1 2184  12.038   2.288  10.205
66784SOL    HW2 2185  12.093   2.211  10.323
66785SOL     OW 2186  11.310   8.254   7.810
66785SOL    HW1 2187  11.324   8.289   7.722
66785SOL    HW2 2188  11.229   8.203   7.802
66786SOL     OW 2189   7.425  10.475  13.442
66786SOL    HW1 2190   7.468  10.401  13.485
66786SOL    HW2 2191   7.485  10.548  13.454
66787SOL     OW 2192   5.043   6.042   6.023
66787SOL    HW1 2193   5.138   6.027   6.020
66787SOL    HW2 2194   5.019   6.057   5.932
66788SOL     OW 2195   7.803   1.660   6.106
66788SOL    HW1 2196   7.770   1.595   6.169
66788SOL    HW2 2197   7.746   1.736   6.119
66789SOL     OW 2198   5.483   3.227  12.015
66789SOL    HW1 2199   5.499   3.309  11.969
66789SOL    HW2 2200   5.546   3.166  11.978
66790SOL     OW 2201   6.994  11.059   0.636
66790SOL    HW1 2202   6.912  11.103   0.612
66790SOL    HW2 2203   6.977  10.967   0.615
66791SOL     OW 2204  10.386  11.510   5.664
66791SOL    HW1 2205  10.456  11.449   5.641
66791SOL    HW2 2206  10.395  11.582   5.602
66792SOL     OW 2207   9.777  10.465  11.696
66792SOL    HW1 2208   9.708  10.527  11.720
66792SOL    HW2 2209   9.737  10.379  11.706
66793SOL     OW 2210   2.294  12.361  14.442
66793SOL    HW1 2211   2.279  12.416  14.519
66793SOL    HW2 2212   2.385  12.376  14.418
66794SOL     OW 2213   0.026   4.218   1.291
66794SOL    HW1 2214   0.111   4.259   1.309
66794SOL    HW2 2215  14.845   4.290   1.266
66795SOL     OW 2216   6.914  12.948   9.930
66795SOL    HW1 2217   6.863  12.884   9.979
66795SOL    HW2 2218   6.878  13.033   9.956
66796SOL     OW 2219   1.304  11.963  14.571
66796SOL    HW1 2220   1.398  11.953  14.555
66796SOL    HW2 2221   1.293  11.946  14.665
66797SOL     OW 2222  13.222  11.091  10.563
66797SOL    HW1 2223  13.195  11.098  10.472
66797SOL    HW2 2224  13.153  11.041  10.605
66798SOL     OW 2225  14.102   2.608  11.558
66798SOL    HW1 2226  14.188   2.615  11.515
66798SOL    HW2 2227  14.042   2.654  11.499
66799SOL     OW 2228  11.118   7.386   7.909
66799SOL    HW1 2229  11.092   7.465   7.957
66799SOL    HW2 2230  11.211   7.375   7.929
66800SOL     OW 2231   9.564   3.173   8.742
66800SOL    HW1 2232   9.498   3.112   8.710
66800SOL    HW2 2233   9.551   3.253   8.690
66801SOL     OW 2234   5.960   0.674   7.746
66801SOL    HW1 2235   5.994   0.600   7.695
66801SOL    HW2 2236   6.032   0.700   7.803
66802SOL     OW 2237   0.871   2.275  14.860
66802SOL    HW1 2238   0.957   2.275   0.026
66802SOL    HW2 2239   0.867   2.359  14.813
66803SOL     OW 2240   5.708   0.463   6.365
66803SOL    HW1 2241   5.697   0.385   6.420
66803SOL    HW2 2242   5.619   0.493   6.347
66804SOL     OW 2243   6.995  13.837   0.185
66804SOL    HW1 2244   6.970  13.768   0.246
66804SOL    HW2 2245   6.923  13.840   0.122
66805SOL     OW 2246   6.259  10.549  11.153
66805SOL    HW1 2247   6.274  10.605  11.229
66805SOL    HW2 2248   6.173  10.576  11.120
66806SOL     OW 2249   4.050   9.499   6.860
66806SOL    HW1 2250   4.120   9.485   6.924
66806SOL    HW2 2251   4.093   9.487   6.775
66807SOL     OW 2252   4.279  10.686  13.492
66807SOL    HW1 2253   4.289  10.611  13.434
66807SOL    HW2 2254   4.342  10.671  13.562
66808SOL     OW 2255   5.169   3.550  12.956
66808SOL    HW1 2256   5.120   3.480  12.998
66808SOL    HW2 2257   5.163   3.532  12.863
66809SOL     OW 2258   7.765   3.832   1.361
66809SOL    HW1 2259   7.837   3.819   1.423
66809SOL    HW2 2260   7.804   3.814   1.276
66810SOL     OW 2261  11.196   6.278   8.424
66810SOL    HW1 2262  11.188   6.322   8.340
66810SOL    HW2 2263  11.155   6.192   8.411
66811SOL     OW 2264  13.286  13.190  12.398
66811SOL    HW1 2265  13.247  13.108  12.428
66811SOL    HW2 2266  13.243  13.258  12.450
66812SOL     OW 2267   6.043   0.876   3.109
66812SOL    HW1 2268   6.082   0.789   3.102
66812SOL    HW2 2269   5.951   0.860   3.130
66813SOL     OW 2270   1.708   9.166   2.636
66813SOL    HW1 2271   1.627   9.121   2.659
66813SOL    HW2 2272   1.755   9.105   2.579
66814SOL     OW 2273  12.776   2.861   0.177
66814SOL    HW1 2274  12.809   2.938   0.130
66814SOL    HW2 2275  12.685   2.853   0.149
66815SOL     OW 2276  14.550  14.624   4.337
66815SOL    HW1 2277  14.519  14.535   4.349
66815SOL    HW2 2278  14.610  14.638   4.411
66816SOL     OW 2279   8.983   0.595   3.409
66816SOL    HW1 2280   9.072   0.632   3.412
66816SOL    HW2 2281   8.936   0.650   3.346
66817SOL     OW 2282   8.925   2.111  13.166
66817SOL    HW1 2283   8.994   2.091  13.229
66817SOL    HW2 2284   8.924   2.036  13.107
66818SOL     OW 2285  13.182   2.853   7.684
66818SOL    HW1 2286  13.173   2.850   7.779
66818SOL    HW2 2287  13.273   2.877   7.670
66819SOL     OW 2288   6.907   6.432   7.030
66819SOL    HW1 2289   6.892   6.432   6.935
66819SOL    HW2 2290   6.855   6.358   7.062
66820SOL     OW 2291   8.973  14.698   9.409
66820SOL    HW1 2292   8.916  14.652   9.347
66820SOL    HW2 2293   9.030  14.751   9.353
66821SOL     OW 2294   2.159   8.106  12.877
66821SOL    HW1 2295   2.167   8.107  12.782
66821SOL    HW2 2296   2.163   8.013  12.901
66822SOL     OW 2297  12.529  11.199   2.207
66822SOL    HW1 2298  12.445  11.163   2.177
66822SOL    HW2 2299  12.512  11.226   2.297
66823SOL     OW 2300   1.389   6.661  10.413
66823SOL    HW1 2301   1.390   6.688  10.505
66823SOL    HW2 2302   1.301   6.625  10.400
66824SOL     OW 2303  11.056  12.594   2.015
66824SOL    HW1 2304  11.032  12.511   1.973
66824SOL    HW2 2305  10.988  12.609   2.080
66825SOL     OW 2306   1.044   3.275   2.328
66825SOL    HW1 2307   1.135   3.304   2.336
66825SOL    HW2 2308   1.048   3.198   2.271
66826SOL     OW 2309   2.584   8.387  10.015
66826SOL    HW1 2310   2.589   8.459   9.952
66826SOL    HW2 2311   2.491   8.382  10.039
66827SOL     OW 2312  12.616   4.328   6.397
66827SOL    HW1 2313  12.627   4.301   6.306
66827SOL    HW2 2314  12.625   4.423   6.395
66828SOL     OW 2315  14.035   7.772   6.211
66828SOL    HW1 2316  14.124   7.738   6.212
66828SOL    HW2 2317  14.001   7.748   6.125
66829SOL     OW 2318   3.789   7.823   9.612
66829SOL    HW1 2319   3.719   7.871   9.656
66829SOL    HW2 2320   3.853   7.804   9.680
66830SOL     OW 2321   9.071   0.408   7.048
66830SOL    HW1 2322   9.119   0.476   7.095
66830SOL    HW2 2323   9.056   0.445   6.961
66831SOL     OW 2324   2.243  13.023  11.949
66831SOL    HW1 2325   2.253  13.009  12.043
66831SOL    HW2 2326   2.327  12.993  11.912
66832SOL     OW 2327   0.944  14.010   9.447
66832SOL    HW1 2328   1.021  13.997   9.503
66832SOL    HW2 2329   0.976  13.989   9.359
66833SOL     OW 2330   0.532   4.405  11.699
66833SOL    HW1 2331   0.523   4.417  11.604
66833SOL    HW2 2332   0.501   4.487  11.737
66834SOL     OW 2333  13.142  13.886  13.051
66834SOL    HW1 2334  13.183  13.847  12.974
66834SOL    HW2 2335  13.069  13.937  13.016
66835SOL     OW 2336   1.768  13.799   2.079
66835SOL    HW1 2337   1.796  13.800   2.170
66835SOL    HW2 2338   1.820  13.867   2.037
66836SOL     OW 2339   4.150  10.878   7.565
66836SOL    HW1 2340   4.220  10.836   7.616
66836SOL    HW2 2341   4.069  10.841   7.600
66837SOL     OW 2342   9.976   1.555  13.938
66837SOL    HW1 2343   9.944   1.645  13.931
66837SOL    HW2 2344   9.937   1.522  14.019
66838SOL     OW 2345   8.036   1.646  10.191
66838SOL    HW1 2346   8.052   1.556  10.162
66838SOL    HW2 2347   7.997   1.689  10.114
66839SOL     OW 2348   7.140   3.708  10.148
66839SOL    HW1 2349   7.066   3.651  10.127
66839SOL    HW2 2350   7.113   3.754  10.228
66840SOL     OW 2351   1.165   4.276  10.768
66840SOL    HW1 2352   1.097   4.235  10.715
66840SOL    HW2 2353   1.244   4.270  10.715
66841SOL     OW 2354   0.915   0.571   0.126
66841SOL    HW1 2355   0.847   0.619   0.173
66841SOL    HW2 2356   0.979   0.637   0.101
66842SOL     OW 2357   5.941  14.618   0.628
66842SOL    HW1 2358   5.883  14.628   0.703
66842SOL    HW2 2359   6.019  14.669   0.650
66843SOL     OW 2360  13.713   9.307  13.209
66843SOL    HW1 2361  13.644   9.330  13.147
66843SOL    HW2 2362  13.680   9.337  13.294
66844SOL     OW 2363  12.086  14.202   8.425
66844SOL    HW1 2364  12.127  14.236   8.505
66844SOL    HW2 2365  12.027  14.272   8.397
66845SOL     OW 2366   3.085   8.476  14.860
66845SOL    HW1 2367   3.063   8.569  14.861
66845SOL    HW2 2368   3.088   8.451   0.076
66846SOL     OW 2369   1.296   8.433   1.175
66846SOL    HW1 2370   1.231   8.365   1.159
66846SOL    HW2 2371   1.276   8.501   1.111
66847SOL     OW 2372   7.451   8.732   4.260
66847SOL    HW1 2373   7.404   8.649   4.268
66847SOL    HW2 2374   7.412   8.788   4.328
66848SOL     OW 2375  13.595   7.410   8.669
66848SOL    HW1 2376  13.538   7.430   8.743
66848SOL    HW2 2377  13.552   7.337   8.625
66849SOL     OW 2378   8.189   4.293   9.859
66849SOL    HW1 2379   8.228   4.355   9.797
66849SOL    HW2 2380   8.118   4.341   9.901
66850SOL     OW 2381  14.614  14.175   6.791
66850SOL    HW1 2382  14.599  14.142   6.702
66850SOL    HW2 2383  14.695  14.227   6.784
66851SOL     OW 2384   4.854   3.817   5.744
66851SOL    HW1 2385   4.762   3.800   5.723
66851SOL    HW2 2386   4.853   3.904   5.785
66852SOL     OW 2387   6.489   5.229   9.367
66852SOL    HW1 2388   6.425   5.160   9.385
66852SOL    HW2 2389   6.546   5.230   9.443
66853SOL     OW 2390  13.382   5.868   3.957
66853SOL    HW1 2391  13.389   5.946   4.012
66853SOL    HW2 2392  13.334   5.805   4.010
66854SOL     OW 2393   1.077   6.234  13.940
66854SOL    HW1 2394   1.112   6.152  13.905
66854SOL    HW2 2395   1.145   6.299  13.921
66855SOL     OW 2396   8.509   9.689  11.631
66855SOL    HW1 2397   8.562   9.723  11.704
66855SOL    HW2 2398   8.421   9.721  11.649
66856SOL     OW 2399   3.935  13.231   1.514
66856SOL    HW1 2400   3.908  13.244   1.423
66856SOL    HW2 2401   4.031  13.240   1.512
66857SOL     OW 2402  14.052  12.245  10.760
66857SOL    HW1 2403  14.105  12.197  10.697
66857SOL    HW2 2404  13.983  12.286  10.708
66858SOL     OW 2405   7.169  11.331   4.514
66858SOL    HW1 2406   7.240  11.363   4.568
66858SOL    HW2 2407   7.096  11.318   4.575
66859SOL     OW 2408   7.547   5.927   9.790
66859SOL    HW1 2409   7.619   5.917   9.728
66859SOL    HW2 2410   7.540   6.021   9.803
66860SOL     OW 2411   5.579   3.149   6.939
66860SOL    HW1 2412   5.491   3.160   6.903
66860SOL    HW2 2413   5.637   3.192   6.876
66861SOL     OW 2414   3.552  13.299   0.135
66861SOL    HW1 2415   3.586  13.334   0.217
66861SOL    HW2 2416   3.488  13.233   0.162
66862SOL     OW 2417   8.935   5.854  11.515
66862SOL    HW1 2418   8.980   5.804  11.583
66862SOL    HW2 2419   8.880   5.789  11.470
66863SOL     OW 2420   0.149  11.897   8.410
66863SOL    HW1 2421   0.133  11.820   8.356
66863SOL    HW2 2422   0.243  11.895   8.429
66864SOL     OW 2423   8.846  12.981   8.297
66864SOL    HW1 2424   8.751  12.979   8.308
66864SOL    HW2 2425   8.870  12.892   8.273
66865SOL     OW 2426   4.360  14.379   8.345
66865SOL    HW1 2427   4.421  14.329   8.399
66865SOL    HW2 2428   4.393  14.369   8.256
66866SOL     OW 2429   3.193  10.493   7.410
66866SOL    HW1 2430   3.144  10.427   7.360
66866SOL    HW2 2431   3.136  10.570   7.409
66867SOL     OW 2432   7.486   9.946  13.891
66867SOL    HW1 2433   7.555   9.889  13.924
66867SOL    HW2 2434   7.430   9.964  13.966
66868SOL     OW 2435   8.786   1.051   5.726
66868SOL    HW1 2436   8.777   1.033   5.632
66868SOL    HW2 2437   8.816   0.969   5.764
66869SOL     OW 2438  14.511   5.988   0.988
66869SOL    HW1 2439  14.495   6.076   0.955
66869SOL    HW2 2440  14.424   5.951   1.002
66870SOL     OW 2441  14.533   1.920   9.472
66870SOL    HW1 2442  14.501   1.850   9.529
66870SOL    HW2 2443  14.457   1.977   9.461
66871SOL     OW 2444   2.065  14.033  11.459
66871SOL    HW1 2445   2.078  14.071  11.547
66871SOL    HW2 2446   2.135  13.968  11.451
66872SOL     OW 2447   8.179  13.911  14.761
66872SOL    HW1 2448   8.199  13.957  14.679
66872SOL    HW2 2449   8.258  13.921  14.813
66873SOL     OW 2450   9.306  14.004   7.116
66873SOL    HW1 2451   9.236  13.972   7.060
66873SOL    HW2 2452   9.343  14.078   7.069
66874SOL     OW 2453   3.181   0.891  14.046
66874SOL    HW1 2454   3.100   0.858  14.084
66874SOL    HW2 2455   3.249   0.862  14.106
66875SOL     OW 2456  13.576  14.539   2.150
66875SOL    HW1 2457  13.532  14.544   2.065
66875SOL    HW2 2458  13.591  14.630   2.175
66876SOL     OW 2459   1.811   8.280  10.637
66876SOL    HW1 2460   1.783   8.225  10.710
66876SOL    HW2 2461   1.906   8.285  10.644
66877SOL     OW 2462   3.736  14.339   3.657
66877SOL    HW1 2463   3.703  14.401   3.591
66877SOL    HW2 2464   3.685  14.259   3.642
66878SOL     OW 2465  14.551   4.822   1.673
66878SOL    HW1 2466  14.613   4.882   1.715
66878SOL    HW2 2467  14.531   4.863   1.589
66879SOL     OW 2468   5.493   6.087  13.559
66879SOL    HW1 2469   5.521   6.171  13.524
66879SOL    HW2 2470   5.410   6.068  13.516
66880SOL     OW 2471   1.442  12.652   6.316
66880SOL    HW1 2472   1.520  12.605   6.346
66880SOL    HW2 2473   1.476  12.718   6.255
66881SOL     OW 2474  13.288  13.379  12.202
66881SOL    HW1 2475  13.299  13.303  12.259
66881SOL    HW2 2476  13.371  13.386  12.156
66882SOL     OW 2477   2.551   8.943   0.864
66882SOL    HW1 2478   2.577   9.031   0.891
66882SOL    HW2 2479   2.522   8.953   0.774
66883SOL     OW 2480  11.772   0.320   7.302
66883SOL    HW1 2481  11.833   0.249   7.281
66883SOL    HW2 2482  11.736   0.296   7.388
66884SOL     OW 2483   7.215  14.344   2.346
66884SOL    HW1 2484   7.282  14.275   2.343
66884SOL    HW2 2485   7.232  14.396   2.267
66885SOL     OW 2486  10.022   6.010  13.673
66885SOL    HW1 2487   9.933   6.046  13.671
66885SOL    HW2 2488  10.034   5.971  13.587
66886SOL     OW 2489   3.295  14.768   0.120
66886SOL    HW1 2490   3.315  14.677   0.100
66886SOL    HW2 2491   3.277  14.809   0.036
66887SOL     OW 2492   8.259   2.696  12.472
66887SOL    HW1 2493   8.337   2.641  12.481
66887SOL    HW2 2494   8.185   2.635  12.477
66888SOL     OW 2495   8.621   3.157  12.024
66888SOL    HW1 2496   8.664   3.196  11.948
66888SOL    HW2 2497   8.649   3.066  12.023
66889SOL     OW 2498   1.702   1.094   6.213
66889SOL    HW1 2499   1.654   1.153   6.156
66889SOL    HW2 2500   1.733   1.024   6.155
66890SOL     OW 2501   6.977   5.707   6.994
66890SOL    HW1 2502   7.007   5.733   6.907
66890SOL    HW2 2503   6.971   5.789   7.043
66891SOL     OW 2504  12.208   8.755   1.816
66891SOL    HW1 2505  12.205   8.792   1.728
66891SOL    HW2 2506  12.151   8.813   1.868
66892SOL     OW 2507   2.221  13.568   4.587
66892SOL    HW1 2508   2.314  13.551   4.600
66892SOL    HW2 2509   2.180  13.482   4.588
66893SOL     OW 2510   9.987   2.567   2.148
66893SOL    HW1 2511  10.035   2.523   2.218
66893SOL    HW2 2512  10.037   2.646   2.130
66894SOL     OW 2513  14.615   9.109   8.091
66894SOL    HW1 2514  14.593   9.159   8.170
66894SOL    HW2 2515  14.603   9.172   8.019
66895SOL     OW 2516   1.019  10.233  14.296
66895SOL    HW1 2517   1.094  10.177  14.315
66895SOL    HW2 2518   0.956  10.212  14.365
66896SOL     OW 2519  13.375  13.802  12.194
66896SOL    HW1 2520  13.426  13.823  12.272
66896SOL    HW2 2521  13.304  13.746  12.226
66897SOL     OW 2522  10.682  12.480   4.099
66897SOL    HW1 2523  10.763  12.442   4.131
66897SOL    HW2 2524  10.659  12.547   4.164
66898SOL     OW 2525   9.799  11.154   8.645
66898SOL    HW1 2526   9.775  11.067   8.676
66898SOL    HW2 2527   9.858  11.188   8.713
66899SOL     OW 2528   7.160   1.077   5.533
66899SOL    HW1 2529   7.156   0.993   5.488
66899SOL    HW2 2530   7.098   1.133   5.485
66900SOL     OW 2531   5.650  11.293   0.959
66900SOL    HW1 2532   5.697  11.233   1.017
66900SOL    HW2 2533   5.712  11.313   0.889
66901SOL     OW 2534   0.211   4.232  14.362
66901SOL    HW1 2535   0.157   4.249  14.285
66901SOL    HW2 2536   0.269   4.308  14.367
66902SOL     OW 2537   1.430   0.536   6.062
66902SOL    HW1 2538   1.345   0.531   6.106
66902SOL    HW2 2539   1.415   0.495   5.977
66903SOL     OW 2540   4.354   3.895   7.714
66903SOL    HW1 2541   4.295   3.955   7.759
66903SOL    HW2 2542   4.303   3.816   7.701
66904SOL     OW 2543   7.581  12.385   0.119
66904SOL    HW1 2544   7.603  12.336   0.040
66904SOL    HW2 2545   7.616  12.472   0.103
66905SOL     OW 2546   5.740  11.226   1.450
66905SOL    HW1 2547   5.771  11.235   1.540
66905SOL    HW2 2548   5.779  11.300   1.403
66906SOL     OW 2549   7.640  11.634   2.438
66906SOL    HW1 2550   7.564  11.617   2.494
66906SOL    HW2 2551   7.701  11.563   2.457
66907SOL     OW 2552   0.573   9.364   1.447
66907SOL    HW1 2553   0.505   9.385   1.382
66907SOL    HW2 2554   0.601   9.275   1.423
66908SOL     OW 2555   6.718   0.524   9.807
66908SOL    HW1 2556   6.671   0.529   9.890
66908SOL    HW2 2557   6.764   0.607   9.800
66909SOL     OW 2558  13.363  13.240   7.827
66909SOL    HW1 2559  13.309  13.319   7.821
66909SOL    HW2 2560  13.308  13.171   7.789
66910SOL     OW 2561   1.758  13.264   6.082
66910SOL    HW1 2562   1.812  13.254   6.161
66910SOL    HW2 2563   1.818  13.300   6.017
66911SOL     OW 2564  10.629  12.733  13.570
66911SOL    HW1 2565  10.670  12.819  13.570
66911SOL    HW2 2566  10.577  12.731  13.651
66912SOL     OW 2567   0.085   2.473   7.425
66912SOL    HW1 2568   0.146   2.461   7.352
66912SOL    HW2 2569  14.875   2.451   7.388
66913SOL     OW 2570   7.518   6.676  10.272
66913SOL    HW1 2571   7.441   6.631  10.237
66913SOL    HW2 2572   7.588   6.655  10.210
66914SOL     OW 2573   6.367   0.184   1.349
66914SOL    HW1 2574   6.359   0.109   1.290
66914SOL    HW2 2575   6.409   0.149   1.427
66915SOL     OW 2576  13.703   3.369   2.058
66915SOL    HW1 2577  13.617   3.326   2.051
66915SOL    HW2 2578  13.753   3.312   2.117
66916SOL     OW 2579   6.075   0.389  10.560
66916SOL    HW1 2580   6.159   0.431  10.539
66916SOL    HW2 2581   6.089   0.352  10.648
66917SOL     OW 2582  13.673   1.353   1.497
66917SOL    HW1 2583  13.619   1.360   1.576
66917SOL    HW2 2584  13.642   1.273   1.454
66918SOL     OW 2585   3.961   8.773   5.628
66918SOL    HW1 2586   3.971   8.724   5.709
66918SOL    HW2 2587   4.050   8.796   5.602
66919SOL     OW 2588   0.643   9.204   6.827
66919SOL    HW1 2589   0.567   9.261   6.827
66919SOL    HW2 2590   0.700   9.240   6.759
66920SOL     OW 2591   7.490   6.929   7.299
66920SOL    HW1 2592   7.458   6.954   7.213
66920SOL    HW2 2593   7.421   6.954   7.359
66921SOL     OW 2594   6.046   7.213   1.079
66921SOL    HW1 2595   5.996   7.262   1.145
66921SOL    HW2 2596   5.980   7.184   1.016
66922SOL     OW 2597   9.428  11.850   9.913
66922SOL    HW1 2598   9.345  11.866   9.958
66922SOL    HW2 2599   9.482  11.927   9.933
66923SOL     OW 2600   7.055  14.213   1.741
66923SOL    HW1 2601   6.989  14.230   1.673
66923SOL    HW2 2602   7.134  14.257   1.709
66924SOL     OW 2603   2.200   4.316  11.079
66924SOL    HW1 2604   2.290   4.283  11.073
66924SOL    HW2 2605   2.172   4.325  10.988
66925SOL     OW 2606  13.892  11.885  11.716
66925SOL    HW1 2607  13.941  11.898  11.635
66925SOL    HW2 2608  13.866  11.973  11.743
66926SOL     OW 2609   3.059   1.261  11.421
66926SOL    HW1 2610   2.986   1.295  11.369
66926SOL    HW2 2611   3.074   1.326  11.489
66927SOL     OW 2612  14.491   0.922   8.147
66927SOL    HW1 2613  14.525   0.891   8.064
66927SOL    HW2 2614  14.568   0.929   8.204
66928SOL     OW 2615  11.598   4.298   5.729
66928SOL    HW1 2616  11.667   4.235   5.706
66928SOL    HW2 2617  11.518   4.245   5.736
66929SOL     OW 2618   2.937  14.181   5.210
66929SOL    HW1 2619   2.873  14.240   5.250
66929SOL    HW2 2620   3.022  14.213   5.243
66930SOL     OW 2621  10.629   9.083  11.756
66930SOL    HW1 2622  10.695   9.129  11.807
66930SOL    HW2 2623  10.671   9.001  11.731
66931SOL     OW 2624  14.375   9.084   2.168
66931SOL    HW1 2625  14.466   9.097   2.195
66931SOL    HW2 2626  14.327   9.151   2.216
66932SOL     OW 2627  14.171   0.115   2.728
66932SOL    HW1 2628  14.201   0.039   2.678
66932SOL    HW2 2629  14.076   0.113   2.720
66933SOL     OW 2630   9.999   5.666   0.982
66933SOL    HW1 2631  10.040   5.611   1.050
66933SOL    HW2 2632  10.069   5.725   0.954
66934SOL     OW 2633  12.322   8.550  13.749
66934SOL    HW1 2634  12.239   8.560  13.796
66934SOL    HW2 2635  12.374   8.493  13.805
66935SOL     OW 2636   0.822   9.222   8.484
66935SOL    HW1 2637   0.807   9.164   8.409
66935SOL    HW2 2638   0.739   9.268   8.496
66936SOL     OW 2639   0.104   3.206  11.296
66936SOL    HW1 2640   0.178   3.247  11.252
66936SOL    HW2 2641   0.140   3.170  11.377
66937SOL     OW 2642  13.306   9.319   6.224
66937SOL    HW1 2643  13.356   9.401   6.222
66937SOL    HW2 2644  13.329   9.275   6.142
66938SOL     OW 2645  13.088  10.616  13.065
66938SOL    HW1 2646  12.999  10.639  13.091
66938SOL    HW2 2647  13.091  10.633  12.971
66939SOL     OW 2648   4.569   1.026   7.815
66939SOL    HW1 2649   4.569   0.975   7.735
66939SOL    HW2 2650   4.499   1.090   7.803
66940SOL     OW 2651   5.077   7.291   8.891
66940SOL    HW1 2652   5.103   7.242   8.970
66940SOL    HW2 2653   5.132   7.369   8.893
66941SOL     OW 2654  13.549   5.145  12.320
66941SOL    HW1 2655  13.642   5.125  12.311
66941SOL    HW2 2656  13.546   5.241  12.321
66942SOL     OW 2657   9.597   3.558   7.887
66942SOL    HW1 2658   9.596   3.651   7.868
66942SOL    HW2 2659   9.538   3.548   7.962
66943SOL     OW 2660  11.831   2.507   0.044
66943SOL    HW1 2661  11.747   2.536   0.079
66943SOL    HW2 2662  11.822   2.514  14.824
66944SOL     OW 2663   0.922   0.228   5.805
66944SOL    HW1 2664   0.931   0.319   5.778
66944SOL    HW2 2665   0.969   0.223   5.888
66945SOL     OW 2666   1.091   9.795  14.665
66945SOL    HW1 2667   1.125   9.879  14.637
66945SOL    HW2 2668   1.062   9.809  14.755
66946SOL     OW 2669   9.658   5.372   9.642
66946SOL    HW1 2670   9.675   5.292   9.691
66946SOL    HW2 2671   9.610   5.428   9.703
66947SOL     OW 2672  14.625   2.934   7.659
66947SOL    HW1 2673  14.664   2.884   7.730
66947SOL    HW2 2674  14.628   3.025   7.689
66948SOL     OW 2675  11.401   0.036   0.789
66948SOL    HW1 2676  11.317   0.075   0.767
66948SOL    HW2 2677  11.445   0.102   0.843
66949SOL     OW 2678   7.404  11.083   7.497
66949SOL    HW1 2679   7.371  11.099   7.586
66949SOL    HW2 2680   7.473  11.018   7.509
66950SOL     OW 2681   3.559  12.654   6.627
66950SOL    HW1 2682   3.626  12.642   6.560
66950SOL    HW2 2683   3.476  12.649   6.580
66951SOL     OW 2684  10.761  13.874   1.552
66951SOL    HW1 2685  10.682  13.821   1.547
66951SOL    HW2 2686  10.799  13.851   1.637
66952SOL     OW 2687   4.003   5.279  13.963
66952SOL    HW1 2688   4.023   5.321  13.880
66952SOL    HW2 2689   4.022   5.187  13.949
66953SOL     OW 2690   6.677   6.299  11.689
66953SOL    HW1 2691   6.613   6.339  11.630
66953SOL    HW2 2692   6.752   6.358  11.685
66954SOL     OW 2693  12.569   1.907   9.810
66954SOL    HW1 2694  12.574   1.823   9.764
66954SOL    HW2 2695  12.479   1.937   9.794
66955SOL     OW 2696   7.295   7.989  13.284
66955SOL    HW1 2697   7.369   8.041  13.254
66955SOL    HW2 2698   7.329   7.939  13.359
66956SOL     OW 2699  12.509   6.140   9.796
66956SOL    HW1 2700  12.542   6.193   9.723
66956SOL    HW2 2701  12.561   6.060   9.791
66957SOL     OW 2702  12.595   7.513   4.501
66957SOL    HW1 2703  12.649   7.575   4.551
66957SOL    HW2 2704  12.528   7.567   4.460
66958SOL     OW 2705   9.136  11.668  14.346
66958SOL    HW1 2706   9.208  11.639  14.402
66958SOL    HW2 2707   9.175  11.680  14.260
66959SOL     OW 2708  10.124   4.558   6.340
66959SOL    HW1 2709  10.185   4.624   6.374
66959SOL    HW2 2710  10.063   4.542   6.412
66960SOL     OW 2711   8.503   5.910   7.266
66960SOL    HW1 2712   8.482   5.941   7.354
66960SOL    HW2 2713   8.591   5.944   7.249
66961SOL     OW 2714   1.707   6.745  10.423
66961SOL    HW1 2715   1.626   6.716  10.464
66961SOL    HW2 2716   1.702   6.840  10.423
66962SOL     OW 2717   6.138   1.144  13.920
66962SOL    HW1 2718   6.099   1.186  13.843
66962SOL    HW2 2719   6.073   1.078  13.946
66963SOL     OW 2720  14.699   9.625  14.628
66963SOL    HW1 2721  14.780   9.574  14.629
66963SOL    HW2 2722  14.631   9.561  14.605
66964SOL     OW 2723   4.173   7.203   6.107
66964SOL    HW1 2724   4.215   7.202   6.193
66964SOL    HW2 2725   4.173   7.112   6.079
66965SOL     OW 2726  12.626   1.631   5.732
66965SOL    HW1 2727  12.702   1.660   5.682
66965SOL    HW2 2728  12.551   1.655   5.679
66966SOL     OW 2729  11.921   7.182   0.477
66966SOL    HW1 2730  11.828   7.181   0.499
66966SOL    HW2 2731  11.945   7.274   0.483
66967SOL     OW 2732   8.646   9.462   5.560
66967SOL    HW1 2733   8.646   9.450   5.655
66967SOL    HW2 2734   8.730   9.504   5.541
66968SOL     OW 2735   6.918   8.329   6.583
66968SOL    HW1 2736   6.835   8.373   6.603
66968SOL    HW2 2737   6.902   8.288   6.498
66969SOL     OW 2738   7.705  10.736   2.355
66969SOL    HW1 2739   7.685  10.826   2.383
66969SOL    HW2 2740   7.654  10.724   2.275
66970SOL     OW 2741   6.835   6.315   7.452
66970SOL    HW1 2742   6.823   6.260   7.529
66970SOL    HW2 2743   6.750   6.356   7.438
66971SOL     OW 2744   6.259   9.565   4.542
66971SOL    HW1 2745   6.201   9.535   4.472
66971SOL    HW2 2746   6.209   9.630   4.590
66972SOL     OW 2747  14.734   3.123   9.820
66972SOL    HW1 2748  14.728   3.181   9.895
66972SOL    HW2 2749  14.731   3.181   9.744
66973SOL     OW 2750   4.890  12.967   7.887
66973SOL    HW1 2751   4.807  13.002   7.855
66973SOL    HW2 2752   4.956  13.015   7.837
66974SOL     OW 2753   3.886   0.704   6.516
66974SOL    HW1 2754   3.959   0.645   6.497
66974SOL    HW2 2755   3.881   0.762   6.440
66975SOL     OW 2756   4.857  11.724   3.666
66975SOL    HW1 2757   4.864  11.735   3.571
66975SOL    HW2 2758   4.774  11.677   3.679
66976SOL     OW 2759  12.390   6.971   9.188
66976SOL    HW1 2760  12.436   7.051   9.211
66976SOL    HW2 2761  12.410   6.910   9.259
66977SOL     OW 2762  14.643   9.984   0.093
66977SOL    HW1 2763  14.614   9.910   0.145
66977SOL    HW2 2764  14.615  10.061   0.142
66978SOL     OW 2765   6.051   5.404   0.966
66978SOL    HW1 2766   6.104   5.369   0.894
66978SOL    HW2 2767   5.960   5.394   0.936
66979SOL     OW 2768   4.989   9.669  11.164
66979SOL    HW1 2769   5.033   9.584  11.170
66979SOL    HW2 2770   5.042   9.718  11.100
66980SOL     OW 2771   8.307  11.621  11.296
66980SOL    HW1 2772   8.291  11.600  11.388
66980SOL    HW2 2773   8.327  11.536  11.256
66981SOL     OW 2774   1.327   6.599  11.919
66981SOL    HW1 2775   1.390   6.529  11.933
66981SOL    HW2 2776   1.326   6.613  11.825
66982SOL     OW 2777   0.176   3.576   3.342
66982SOL    HW1 2778   0.199   3.573   3.435
66982SOL    HW2 2779   0.251   3.536   3.298
66983SOL     OW 2780   3.159   4.657   3.409
66983SOL    HW1 2781   3.111   4.575   3.423
66983SOL    HW2 2782   3.118   4.720   3.468
66984SOL     OW 2783  13.560   7.274   5.545
66984SOL    HW1 2784  13.509   7.226   5.480
66984SOL    HW2 2785  13.591   7.352   5.498
66985SOL     OW 2786   7.736   5.783  10.964
66985SOL    HW1 2787   7.659   5.822  11.004
66985SOL    HW2 2788   7.703   5.735  10.888
66986SOL     OW 2789   0.295   6.918  11.388
66986SOL    HW1 2790   0.259   6.836  11.355
66986SOL    HW2 2791   0.280   6.915  11.482
66987SOL     OW 2792   2.701   1.910   9.629
66987SOL    HW1 2793   2.632   1.962   9.587
66987SOL    HW2 2794   2.702   1.940   9.720
66988SOL     OW 2795  13.352  12.529   1.356
66988SOL    HW1 2796  13.315  12.548   1.443
66988SOL    HW2 2797  13.390  12.613   1.328
66989SOL     OW 2798  13.008   5.617   2.630
66989SOL    HW1 2799  12.973   5.537   2.592
66989SOL    HW2 2800  13.015   5.599   2.724
66990SOL     OW 2801   4.709   8.958   9.410
66990SOL    HW1 2802   4.720   9.024   9.340
66990SOL    HW2 2803   4.625   8.918   9.392
66991SOL     OW 2804   1.843  10.389  11.820
66991SOL    HW1 2805   1.892  10.314  11.854
66991SOL    HW2 2806   1.756  10.355  11.801
66992SOL     OW 2807   1.262   4.552   3.149
66992SOL    HW1 2808   1.210   4.481   3.186
66992SOL    HW2 2809   1.220   4.570   3.064
66993SOL     OW 2810   1.744   3.992   8.218
66993SOL    HW1 2811   1.793   3.910   8.230
66993SOL    HW2 2812   1.656   3.963   8.194
66994SOL     OW 2813   1.323  13.058   1.053
66994SOL    HW1 2814   1.300  13.149   1.073
66994SOL    HW2 2815   1.382  13.032   1.124
66995SOL     OW 2816   1.541   8.689   7.779
66995SOL    HW1 2817   1.459   8.699   7.826
66995SOL    HW2 2818   1.539   8.758   7.713
66996SOL     OW 2819  12.051   0.810   5.316
66996SOL    HW1 2820  11.978   0.838   5.371
66996SOL    HW2 2821  12.012   0.793   5.231
66997SOL     OW 2822   6.553   7.017   7.943
66997SOL    HW1 2823   6.633   7.067   7.924
66997SOL    HW2 2824   6.531   7.041   8.033
66998SOL     OW 2825   3.406  13.646   7.731
66998SOL    HW1 2826   3.371  13.692   7.655
66998SOL    HW2 2827   3.494  13.683   7.743
66999SOL     OW 2828   1.551  12.792   2.451
66999SOL    HW1 2829   1.590  12.795   2.364
66999SOL    HW2 2830   1.462  12.827   2.439
67000SOL     OW 2831  12.429  13.469   7.823
67000SOL    HW1 2832  12.427  13.403   7.754
67000SOL    HW2 2833  12.424  13.419   7.905
67001SOL     OW 2834   3.919   9.732  12.475
67001SOL    HW1 2835   3.988   9.687  12.523
67001SOL    HW2 2836   3.838   9.703  12.517
67002SOL     OW 2837   4.479  11.010  11.035
67002SOL    HW1 2838   4.493  11.098  11.071
67002SOL    HW2 2839   4.562  10.988  10.992
67003SOL     OW 2840   5.163   2.580   6.700
67003SOL    HW1 2841   5.191   2.489   6.704
67003SOL    HW2 2842   5.210   2.624   6.771
67004SOL     OW 2843  11.193   9.091  12.956
67004SOL    HW1 2844  11.144   9.024  12.907
67004SOL    HW2 2845  11.282   9.084  12.921
67005SOL     OW 2846   9.726  11.561  14.774
67005SOL    HW1 2847   9.650  11.617  14.786
67005SOL    HW2 2848   9.777  11.571  14.855
67006SOL     OW 2849   8.948   3.869   6.984
67006SOL    HW1 2850   8.909   3.867   7.071
67006SOL    HW2 2851   9.040   3.849   6.999
67007SOL     OW 2852  13.620  12.246   2.682
67007SOL    HW1 2853  13.547  12.285   2.634
67007SOL    HW2 2854  13.610  12.280   2.771
67008SOL     OW 2855   7.299   3.118  11.501
67008SOL    HW1 2856   7.310   3.116  11.597
67008SOL    HW2 2857   7.236   3.049  11.482
67009SOL     OW 2858   5.807   0.492   2.208
67009SOL    HW1 2859   5.716   0.478   2.233
67009SOL    HW2 2860   5.808   0.476   2.114
67010SOL     OW 2861   8.472   8.570  10.228
67010SOL    HW1 2862   8.433   8.653  10.201
67010SOL    HW2 2863   8.462   8.569  10.323
67011SOL     OW 2864  14.211  14.203   8.996
67011SOL    HW1 2865  14.164  14.280   8.965
67011SOL    HW2 2866  14.287  14.238   9.044
67012SOL     OW 2867   5.899  12.989   4.623
67012SOL    HW1 2868   5.836  13.012   4.555
67012SOL    HW2 2869   5.985  13.003   4.582
67013SOL     OW 2870   7.479   6.495  11.499
67013SOL    HW1 2871   7.432   6.439  11.437
67013SOL    HW2 2872   7.458   6.584  11.473
67014SOL     OW 2873   1.325   0.575   0.264
67014SOL    HW1 2874   1.292   0.622   0.340
67014SOL    HW2 2875   1.321   0.638   0.192
67015SOL     OW 2876   3.800   9.843  11.170
67015SOL    HW1 2877   3.857   9.768  11.152
67015SOL    HW2 2878   3.825   9.871  11.258
67016SOL     OW 2879  12.764   2.369  12.171
67016SOL    HW1 2880  12.678   2.392  12.207
67016SOL    HW2 2881  12.822   2.440  12.200
67017SOL     OW 2882  12.709   7.264   3.428
67017SOL    HW1 2883  12.647   7.228   3.491
67017SOL    HW2 2884  12.680   7.353   3.412
67018SOL     OW 2885  14.661   8.283  10.145
67018SOL    HW1 2886  14.704   8.345  10.203
67018SOL    HW2 2887  14.626   8.215  10.203
67019SOL     OW 2888   0.481   6.193  10.787
67019SOL    HW1 2889   0.479   6.098  10.798
67019SOL    HW2 2890   0.399   6.215  10.743
67020SOL     OW 2891   5.146  13.305   1.315
67020SOL    HW1 2892   5.069  13.362   1.312
67020SOL    HW2 2893   5.184  13.312   1.227
67021SOL     OW 2894   4.836   9.250  13.924
67021SOL    HW1 2895   4.828   9.249  14.019
67021SOL    HW2 2896   4.769   9.312  13.895
67022SOL     OW 2897   5.707  10.263  11.444
67022SOL    HW1 2898   5.757  10.332  11.487
67022SOL    HW2 2899   5.722  10.277  11.351
67023SOL     OW 2900   5.196   8.618   7.652
67023SOL    HW1 2901   5.269   8.556   7.651
67023SOL    HW2 2902   5.220   8.682   7.719
67024SOL     OW 2903   9.836  11.465   2.162
67024SOL    HW1 2904   9.782  11.493   2.236
67024SOL    HW2 2905   9.779  11.473   2.086
67025SOL     OW 2906  12.342  14.774   5.943
67025SOL    HW1 2907  12.422  14.736   5.907
67025SOL    HW2 2908  12.358  14.779   6.037
67026SOL     OW 2909   4.397   7.383   3.152
67026SOL    HW1 2910   4.409   7.378   3.247
67026SOL    HW2 2911   4.307   7.352   3.138
67027SOL     OW 2912   1.169   0.952   3.082
67027SOL    HW1 2913   1.089   0.958   3.029
67027SOL    HW2 2914   1.160   0.869   3.130
67028SOL     OW 2915   8.429   0.024  14.708
67028SOL    HW1 2916   8.357   0.071  14.666
67028SOL    HW2 2917   8.509   0.064  14.673
67029SOL     OW 2918   1.232   6.843   3.121
67029SOL    HW1 2919   1.237   6.754   3.156
67029SOL    HW2 2920   1.261   6.899   3.194
67030SOL     OW 2921   4.130   6.218  10.057
67030SOL    HW1 2922   4.157   6.132  10.089
67030SOL    HW2 2923   4.210   6.256  10.021
67031SOL     OW 2924   7.059   5.998   5.233
67031SOL    HW1 2925   7.039   5.904   5.233
67031SOL    HW2 2926   6.998   6.036   5.295
67032SOL     OW 2927   2.600  12.847   4.083
67032SOL    HW1 2928   2.656  12.899   4.142
67032SOL    HW2 2929   2.608  12.757   4.115
67033SOL     OW 2930   0.272  10.308   1.264
67033SOL    HW1 2931   0.300  10.396   1.241
67033SOL    HW2 2932   0.350  10.254   1.253
67034SOL     OW 2933  11.003   7.732   3.895
67034SOL    HW1 2934  10.968   7.808   3.847
67034SOL    HW2 2935  11.066   7.769   3.956
67035SOL     OW 2936  10.021   3.047  13.511
67035SOL    HW1 2937   9.954   2.982  13.534
67035SOL    HW2 2938  10.048   3.023  13.423
67036SOL     OW 2939   6.104   9.600  11.923
67036SOL    HW1 2940   6.035   9.542  11.889
67036SOL    HW2 2941   6.182   9.577  11.872
67037SOL     OW 2942  12.405   5.952   5.617
67037SOL    HW1 2943  12.337   6.018   5.602
67037SOL    HW2 2944  12.403   5.898   5.537
67038SOL     OW 2945   4.807   3.987  13.269
67038SOL    HW1 2946   4.787   4.080  13.274
67038SOL    HW2 2947   4.855   3.968  13.350
67039SOL     OW 2948   9.754   7.515  11.497
67039SOL    HW1 2949   9.682   7.530  11.558
67039SOL    HW2 2950   9.786   7.427  11.519
67040SOL     OW 2951   4.609  14.491  14.061
67040SOL    HW1 2952   4.656  14.535  14.132
67040SOL    HW2 2953   4.662  14.508  13.983
67041SOL     OW 2954  11.185   6.235  11.611
67041SOL    HW1 2955  11.247   6.206  11.543
67041SOL    HW2 2956  11.142   6.311  11.571
67042SOL     OW 2957  12.035   3.662   0.922
67042SOL    HW1 2958  12.099   3.614   0.870
67042SOL    HW2 2959  12.068   3.751   0.925
67043SOL     OW 2960  11.296  13.841   0.467
67043SOL    HW1 2961  11.389  13.821   0.478
67043SOL    HW2 2962  11.276  13.901   0.538
67044SOL     OW 2963   7.461  13.792   4.044
67044SOL    HW1 2964   7.535  13.734   4.060
67044SOL    HW2 2965   7.449  13.792   3.949
67045SOL     OW 2966   8.331   6.407  10.398
67045SOL    HW1 2967   8.364   6.474  10.458
67045SOL    HW2 2968   8.403   6.344  10.392
67046SOL     OW 2969  10.590   2.620   2.822
67046SOL    HW1 2970  10.614   2.699   2.775
67046SOL    HW2 2971  10.495   2.625   2.832
67047SOL     OW 2972   6.538   3.366   9.537
67047SOL    HW1 2973   6.541   3.458   9.509
67047SOL    HW2 2974   6.566   3.317   9.459
67048SOL     OW 2975   7.644  12.264   5.963
67048SOL    HW1 2976   7.559  12.242   6.001
67048SOL    HW2 2977   7.628  12.264   5.868
67049SOL     OW 2978   8.589  11.014  13.424
67049SOL    HW1 2979   8.603  11.055  13.339
67049SOL    HW2 2980   8.654  10.944  13.428
67050SOL     OW 2981   4.344   9.235   9.291
67050SOL    HW1 2982   4.376   9.145   9.293
67050SOL    HW2 2983   4.282   9.237   9.219
67051SOL     OW 2984   0.171   7.631  13.883
67051SOL    HW1 2985   0.084   7.639  13.922
67051SOL    HW2 2986   0.155   7.617  13.790
67052SOL     OW 2987  11.193   4.760  12.502
67052SOL    HW1 2988  11.169   4.716  12.584
67052SOL    HW2 2989  11.141   4.840  12.503
67053SOL     OW 2990   4.899   5.613  13.607
67053SOL    HW1 2991   4.956   5.625  13.531
67053SOL    HW2 2992   4.910   5.521  13.631
67054SOL     OW 2993   4.113   2.601   5.177
67054SOL    HW1 2994   4.143   2.691   5.189
67054SOL    HW2 2995   4.031   2.610   5.128
67055SOL     OW 2996   3.541  13.476  14.012
67055SOL    HW1 2997   3.464  13.421  14.027
67055SOL    HW2 2998   3.583  13.482  14.098
67056SOL     OW 2999  11.379   5.751   5.459
67056SOL    HW1 3000  11.408   5.787   5.375
67056SOL    HW2 3001  11.309   5.690   5.436
67057SOL     OW 3002   0.551   0.735   7.205
67057SOL    HW1 3003   0.611   0.660   7.205
67057SOL    HW2 3004   0.464   0.696   7.196
67058SOL     OW 3005   1.429   1.697  11.800
67058SOL    HW1 3006   1.336   1.686  11.780
67058SOL    HW2 3007   1.464   1.744  11.724
67059SOL     OW 3008   1.260  10.941   3.759
67059SOL    HW1 3009   1.218  10.989   3.830
67059SOL    HW2 3010   1.317  10.878   3.803
67060SOL     OW 3011   8.828  11.451   1.591
67060SOL    HW1 3012   8.870  11.515   1.533
67060SOL    HW2 3013   8.787  11.388   1.533
67061SOL     OW 3014  14.487  14.300   7.323
67061SOL    HW1 3015  14.436  14.266   7.397
67061SOL    HW2 3016  14.428  14.296   7.249
67062SOL     OW 3017   1.681   9.874  10.530
67062SOL    HW1 3018   1.774   9.872  10.510
67062SOL    HW2 3019   1.672   9.813  10.603
67063SOL     OW 3020   3.360   2.181  14.840
67063SOL    HW1 3021   3.367   2.209   0.055
67063SOL    HW2 3022   3.362   2.085  14.844
67064SOL     OW 3023   8.992   0.287   9.714
67064SOL    HW1 3024   8.909   0.239   9.715
67064SOL    HW2 3025   9.035   0.262   9.796
67065SOL     OW 3026  14.700  10.014   6.421
67065SOL    HW1 3027  14.730  10.047   6.506
67065SOL    HW2 3028  14.769   9.955   6.392
67066SOL     OW 3029   7.106   3.850   4.523
67066SOL    HW1 3030   7.023   3.805   4.504
67066SOL    HW2 3031   7.155   3.844   4.441
67067SOL     OW 3032   6.359   3.343  11.157
67067SOL    HW1 3033   6.300   3.411  11.189
67067SOL    HW2 3034   6.434   3.391  11.121
67068SOL     OW 3035   3.405  13.673   4.679
67068SOL    HW1 3036   3.389  13.693   4.771
67068SOL    HW2 3037   3.476  13.608   4.681
67069SOL     OW 3038   1.528  11.090   8.770
67069SOL    HW1 3039   1.526  11.184   8.788
67069SOL    HW2 3040   1.607  11.078   8.718
67070SOL     OW 3041  13.687  10.055   3.655
67070SOL    HW1 3042  13.614  10.048   3.717
67070SOL    HW2 3043  13.766  10.051   3.710
67071SOL     OW 3044   8.708   3.149   9.896
67071SOL    HW1 3045   8.628   3.109   9.862
67071SOL    HW2 3046   8.678   3.223   9.948
67072SOL     OW 3047   6.122   1.361   5.095
67072SOL    HW1 3048   6.175   1.288   5.128
67072SOL    HW2 3049   6.183   1.434   5.086
67073SOL     OW 3050   7.997   5.957   9.893
67073SOL    HW1 3051   7.996   6.028   9.829
67073SOL    HW2 3052   7.946   5.991   9.967
67074SOL     OW 3053   3.731   4.609  14.000
67074SOL    HW1 3054   3.765   4.569  13.921
67074SOL    HW2 3055   3.733   4.539  14.065
67075SOL     OW 3056  10.829  13.811   7.572
67075SOL    HW1 3057  10.902  13.753   7.552
67075SOL    HW2 3058  10.785  13.824   7.488
67076SOL     OW 3059   8.394   3.022   3.572
67076SOL    HW1 3060   8.412   2.932   3.598
67076SOL    HW2 3061   8.476   3.051   3.532
67077SOL     OW 3062  12.531   6.111   6.430
67077SOL    HW1 3063  12.588   6.034   6.438
67077SOL    HW2 3064  12.476   6.108   6.509
67078SOL     OW 3065   0.119   4.495  12.300
67078SOL    HW1 3066   0.094   4.572  12.351
67078SOL    HW2 3067   0.119   4.424  12.363
67079SOL     OW 3068   6.939  11.316   4.149
67079SOL    HW1 3069   6.876  11.246   4.130
67079SOL    HW2 3070   7.014  11.271   4.187
67080SOL     OW 3071  13.126   8.652  10.307
67080SOL    HW1 3072  13.076   8.696  10.376
67080SOL    HW2 3073  13.070   8.657  10.230
67081SOL     OW 3074   2.327  12.139   6.823
67081SOL    HW1 3075   2.380  12.063   6.799
67081SOL    HW2 3076   2.381  12.187   6.886
67082SOL     OW 3077  10.501  10.417   8.154
67082SOL    HW1 3078  10.509  10.477   8.080
67082SOL    HW2 3079  10.416  10.438   8.193
67083SOL     OW 3080  11.129   1.904   4.782
67083SOL    HW1 3081  11.070   1.907   4.707
67083SOL    HW2 3082  11.165   1.815   4.780
67084SOL     OW 3083  11.252   4.498   3.033
67084SOL    HW1 3084  11.253   4.582   3.079
67084SOL    HW2 3085  11.180   4.506   2.970
67085SOL     OW 3086   3.484  11.897   5.064
67085SOL    HW1 3087   3.404  11.907   5.012
67085SOL    HW2 3088   3.508  11.986   5.088
67086SOL     OW 3089  12.015   4.940  12.650
67086SOL    HW1 3090  11.980   4.892  12.724
67086SOL    HW2 3091  11.947   4.934  12.583
67087SOL     OW 3092  13.203   7.381   6.916
67087SOL    HW1 3093  13.161   7.320   6.976
67087SOL    HW2 3094  13.149   7.460   6.920
67088SOL     OW 3095   0.477   8.051   8.121
67088SOL    HW1 3096   0.392   8.030   8.160
67088SOL    HW2 3097   0.541   8.009   8.178
67089SOL     OW 3098   0.737  11.248   0.129
67089SOL    HW1 3099   0.663  11.237   0.189
67089SOL    HW2 3100   0.809  11.202   0.172
67090SOL     OW 3101   3.839   0.885  11.669
67090SOL    HW1 3102   3.899   0.911  11.739
67090SOL    HW2 3103   3.896   0.858  11.598
67091SOL     OW 3104   7.546   6.104   5.195
67091SOL    HW1 3105   7.453   6.081   5.204
67091SOL    HW2 3106   7.554   6.130   5.103
67092SOL     OW 3107   9.430  11.741   5.957
67092SOL    HW1 3108   9.476  11.688   5.891
67092SOL    HW2 3109   9.489  11.740   6.033
67093SOL     OW 3110  13.592  11.744   3.032
67093SOL    HW1 3111  13.648  11.789   2.969
67093SOL    HW2 3112  13.544  11.679   2.980
67094SOL     OW 3113   5.050   6.786   8.878
67094SOL    HW1 3114   5.047   6.839   8.958
67094SOL    HW2 3115   5.117   6.828   8.825
67095SOL     OW 3116   9.762  11.735   9.808
67095SOL    HW1 3117   9.726  11.766   9.724
67095SOL    HW2 3118   9.703  11.772   9.874
67096SOL     OW 3119   3.191   8.947  14.523
67096SOL    HW1 3120   3.237   8.939  14.439
67096SOL    HW2 3121   3.258   8.930  14.589
67097SOL     OW 3122  13.512   1.376   1.720
67097SOL    HW1 3123  13.472   1.342   1.799
67097SOL    HW2 3124  13.506   1.472   1.728
67098SOL     OW 3125  13.746   6.227   2.109
67098SOL    HW1 3126  13.832   6.185   2.108
67098SOL    HW2 3127  13.708   6.204   2.024
67099SOL     OW 3128  12.678   0.490  10.062
67099SOL    HW1 3129  12.670   0.432  10.137
67099SOL    HW2 3130  12.751   0.548  10.084
67100SOL     OW 3131   5.856  10.398   1.081
67100SOL    HW1 3132   5.792  10.374   1.014
67100SOL    HW2 3133   5.803  10.416   1.159
67101SOL     OW 3134   3.885   0.322  13.948
67101SOL    HW1 3135   3.911   0.383  14.018
67101SOL    HW2 3136   3.825   0.373  13.894
67102SOL     OW 3137   0.330  12.670   7.500
67102SOL    HW1 3138   0.395  12.716   7.553
67102SOL    HW2 3139   0.381  12.631   7.429
67103SOL     OW 3140  14.036  12.156  12.379
67103SOL    HW1 3141  13.963  12.214  12.356
67103SOL    HW2 3142  14.083  12.204  12.448
67104SOL     OW 3143  11.531   4.659   9.783
67104SOL    HW1 3144  11.495   4.745   9.759
67104SOL    HW2 3145  11.454   4.602   9.788
67105SOL     OW 3146   8.246  10.235   9.416
67105SOL    HW1 3147   8.181  10.231   9.486
67105SOL    HW2 3148   8.292  10.318   9.430
67106SOL     OW 3149   0.915  12.950  11.355
67106SOL    HW1 3150   0.848  12.882  11.357
67106SOL    HW2 3151   0.998  12.902  11.357
67107SOL     OW 3152   5.345   2.281  12.594
67107SOL    HW1 3153   5.399   2.210  12.559
67107SOL    HW2 3154   5.270   2.285  12.536
67108SOL     OW 3155   9.236   0.636   3.797
67108SOL    HW1 3156   9.150   0.651   3.759
67108SOL    HW2 3157   9.273   0.565   3.744
67109SOL     OW 3158   3.390   8.866   2.510
67109SOL    HW1 3159   3.335   8.871   2.588
67109SOL    HW2 3160   3.328   8.863   2.437
67110SOL     OW 3161   6.827   8.635  12.483
67110SOL    HW1 3162   6.769   8.710  12.498
67110SOL    HW2 3163   6.778   8.560  12.517
67111SOL     OW 3164   1.978  11.518   1.057
67111SOL    HW1 3165   1.960  11.501   0.964
67111SOL    HW2 3166   2.018  11.605   1.058
67112SOL     OW 3167  14.661   9.630   1.455
67112SOL    HW1 3168  14.705   9.680   1.523
67112SOL    HW2 3169  14.676   9.538   1.478
67113SOL     OW 3170   9.046  12.516   1.333
67113SOL    HW1 3171   9.007  12.429   1.342
67113SOL    HW2 3172   8.980  12.576   1.367
67114SOL     OW 3173   0.424   0.844  12.460
67114SOL    HW1 3174   0.350   0.871  12.406
67114SOL    HW2 3175   0.473   0.783  12.405
67115SOL     OW 3176  13.499  13.971   9.733
67115SOL    HW1 3177  13.495  13.903   9.666
67115SOL    HW2 3178  13.585  13.958   9.774
67116SOL     OW 3179  11.901   3.830  10.928
67116SOL    HW1 3180  11.928   3.893  10.861
67116SOL    HW2 3181  11.971   3.833  10.993
67117SOL     OW 3182   5.509  10.128   4.734
67117SOL    HW1 3183   5.527  10.063   4.666
67117SOL    HW2 3184   5.465  10.079   4.803
67118SOL     OW 3185  10.556   9.720  10.446
67118SOL    HW1 3186  10.598   9.712  10.532
67118SOL    HW2 3187  10.628   9.740  10.387
67119SOL     OW 3188   2.297   5.985   3.427
67119SOL    HW1 3189   2.240   5.910   3.443
67119SOL    HW2 3190   2.247   6.042   3.368
67120SOL     OW 3191   4.326   6.108   3.670
67120SOL    HW1 3192   4.276   6.067   3.599
67120SOL    HW2 3193   4.412   6.125   3.632
67121SOL     OW 3194  10.058   3.219   2.478
67121SOL    HW1 3195  10.003   3.285   2.521
67121SOL    HW2 3196  10.054   3.143   2.535
67122SOL     OW 3197  14.523   0.303   5.419
67122SOL    HW1 3198  14.553   0.275   5.333
67122SOL    HW2 3199  14.589   0.270   5.479
67123SOL     OW 3200   2.360   9.739   9.067
67123SOL    HW1 3201   2.426   9.807   9.050
67123SOL    HW2 3202   2.334   9.709   8.980
67124SOL     OW 3203   5.173  13.654   0.237
67124SOL    HW1 3204   5.104  13.611   0.287
67124SOL    HW2 3205   5.127  13.698   0.166
67125SOL     OW 3206   7.932   4.228  13.997
67125SOL    HW1 3207   7.893   4.308  13.960
67125SOL    HW2 3208   7.934   4.244  14.091
67126SOL     OW 3209   8.813   4.472   1.323
67126SOL    HW1 3210   8.762   4.538   1.369
67126SOL    HW2 3211   8.798   4.490   1.230
67127SOL     OW 3212   0.884   5.598   3.031
67127SOL    HW1 3213   0.905   5.620   2.940
67127SOL    HW2 3214   0.962   5.552   3.063
67128SOL     OW 3215   6.502   4.036   0.723
67128SOL    HW1 3216   6.471   4.107   0.779
67128SOL    HW2 3217   6.540   4.081   0.647
67129SOL     OW 3218   0.957   6.035  10.902
67129SOL    HW1 3219   0.918   6.113  10.862
67129SOL    HW2 3220   0.944   5.965  10.838
67130SOL     OW 3221   5.703   9.501   8.181
67130SOL    HW1 3222   5.777   9.443   8.197
67130SOL    HW2 3223   5.708   9.521   8.087
67131SOL     OW 3224   2.163   0.729  11.519
67131SOL    HW1 3225   2.246   0.745  11.475
67131SOL    HW2 3226   2.183   0.663  11.586
67132SOL     OW 3227  10.673   5.355  11.122
67132SOL    HW1 3228  10.742   5.290  11.107
67132SOL    HW2 3229  10.659   5.396  11.037
67133SOL     OW 3230  13.831   1.951   8.588
67133SOL    HW1 3231  13.863   1.862   8.574
67133SOL    HW2 3232  13.846   1.968   8.681
67134SOL     OW 3233   3.114  14.738   1.855
67134SOL    HW1 3234   3.164  14.687   1.918
67134SOL    HW2 3235   3.105  14.824   1.895
67135SOL     OW 3236   4.933   9.213  10.949
67135SOL    HW1 3237   4.869   9.143  10.942
67135SOL    HW2 3238   4.941   9.246  10.859
67136SOL     OW 3239   2.328   2.759   8.772
67136SOL    HW1 3240   2.244   2.724   8.744
67136SOL    HW2 3241   2.387   2.684   8.772
67137SOL     OW 3242   1.549   7.768   8.351
67137SOL    HW1 3243   1.535   7.674   8.339
67137SOL    HW2 3244   1.493   7.809   8.284
67138SOL     OW 3245   4.361  14.043   7.203
67138SOL    HW1 3246   4.410  14.098   7.264
67138SOL    HW2 3247   4.367  13.955   7.240
67139SOL     OW 3248  13.590   4.385   4.093
67139SOL    HW1 3249  13.521   4.322   4.074
67139SOL    HW2 3250  13.581   4.453   4.026
67140SOL     OW 3251   7.564  12.435   1.445
67140SOL    HW1 3252   7.654  12.466   1.438
67140SOL    HW2 3253   7.528  12.443   1.357
67141SOL     OW 3254  12.568  13.422  12.700
67141SOL    HW1 3255  12.598  13.367  12.627
67141SOL    HW2 3256  12.601  13.509  12.679
67142SOL     OW 3257  12.395  10.723   9.963
67142SOL    HW1 3258  12.401  10.763  10.050
67142SOL    HW2 3259  12.332  10.652   9.974
67143SOL     OW 3260   8.448  13.516   2.831
67143SOL    HW1 3261   8.474  13.563   2.910
67143SOL    HW2 3262   8.418  13.431   2.863
67144SOL     OW 3263   5.745   7.877   6.515
67144SOL    HW1 3264   5.710   7.956   6.474
67144SOL    HW2 3265   5.799   7.909   6.587
67145SOL     OW 3266   8.390   2.910   1.493
67145SOL    HW1 3267   8.374   2.963   1.571
67145SOL    HW2 3268   8.337   2.950   1.424
67146SOL     OW 3269   6.146  14.516   9.361
67146SOL    HW1 3270   6.104  14.593   9.398
67146SOL    HW2 3271   6.238  14.523   9.388
67147SOL     OW 3272   9.541   0.014  14.720
67147SOL    HW1 3273   9.503   0.098  14.744
67147SOL    HW2 3274   9.562   0.023  14.627
67148SOL     OW 3275  12.423   6.682   0.883
67148SOL    HW1 3276  12.489   6.685   0.952
67148SOL    HW2 3277  12.413   6.588   0.865
67149SOL     OW 3278   5.302   7.823   4.700
67149SOL    HW1 3279   5.259   7.778   4.627
67149SOL    HW2 3280   5.379   7.865   4.660
67150SOL     OW 3281   6.954  14.244  10.274
67150SOL    HW1 3282   7.041  14.205  10.260
67150SOL    HW2 3283   6.910  14.234  10.190
67151SOL     OW 3284   4.349   2.228  14.058
67151SOL    HW1 3285   4.332   2.139  14.028
67151SOL    HW2 3286   4.293   2.238  14.135
67152SOL     OW 3287  11.180   0.574   3.252
67152SOL    HW1 3288  11.132   0.547   3.330
67152SOL    HW2 3289  11.272   0.578   3.280
67153SOL     OW 3290   1.327   2.505   5.987
67153SOL    HW1 3291   1.338   2.577   5.925
67153SOL    HW2 3292   1.416   2.483   6.014
67154SOL     OW 3293   5.459   9.797  12.871
67154SOL    HW1 3294   5.377   9.804  12.823
67154SOL    HW2 3295   5.495   9.885  12.871
67155SOL     OW 3296   3.322   1.767  12.767
67155SOL    HW1 3297   3.244   1.711  12.767
67155SOL    HW2 3298   3.304   1.832  12.699
67156SOL     OW 3299   1.331   9.481   3.529
67156SOL    HW1 3300   1.303   9.564   3.491
67156SOL    HW2 3301   1.318   9.492   3.624
67157SOL     OW 3302   7.339   4.209   5.056
67157SOL    HW1 3303   7.253   4.222   5.097
67157SOL    HW2 3304   7.392   4.282   5.088
67158SOL     OW 3305  10.839  13.265  12.174
67158SOL    HW1 3306  10.779  13.337  12.154
67158SOL    HW2 3307  10.921  13.289  12.130
67159SOL     OW 3308  11.493  14.496   4.856
67159SOL    HW1 3309  11.565  14.507   4.794
67159SOL    HW2 3310  11.523  14.429   4.917
67160SOL     OW 3311   5.739  10.909   4.747
67160SOL    HW1 3312   5.719  10.865   4.830
67160SOL    HW2 3313   5.812  10.860   4.711
67161SOL     OW 3314   6.086   7.634   3.082
67161SOL    HW1 3315   6.178   7.659   3.089
67161SOL    HW2 3316   6.080   7.551   3.130
67162SOL     OW 3317   3.929  11.323  10.438
67162SOL    HW1 3318   3.912  11.417  10.432
67162SOL    HW2 3319   4.001  11.307  10.378
67163SOL     OW 3320   9.435   2.658  14.763
67163SOL    HW1 3321   9.450   2.748  14.793
67163SOL    HW2 3322   9.441   2.663  14.668
67164SOL     OW 3323   2.527   8.964   5.392
67164SOL    HW1 3324   2.597   9.030   5.402
67164SOL    HW2 3325   2.507   8.937   5.481
67165SOL     OW 3326   3.808   6.237   8.711
67165SOL    HW1 3327   3.764   6.218   8.629
67165SOL    HW2 3328   3.838   6.328   8.703
67166SOL     OW 3329   6.007  11.469   4.061
67166SOL    HW1 3330   5.918  11.484   4.094
67166SOL    HW2 3331   5.998  11.393   4.004
67167SOL     OW 3332   1.297   9.148   1.881
67167SOL    HW1 3333   1.310   9.107   1.967
67167SOL    HW2 3334   1.383   9.142   1.839
67168SOL     OW 3335  13.733   0.633   6.140
67168SOL    HW1 3336  13.775   0.594   6.063
67168SOL    HW2 3337  13.669   0.567   6.168
67169SOL     OW 3338   6.765  12.731   1.114
67169SOL    HW1 3339   6.671  12.749   1.119
67169SOL    HW2 3340   6.806  12.806   1.156
67170SOL     OW 3341  13.460  10.282   5.309
67170SOL    HW1 3342  13.383  10.297   5.254
67170SOL    HW2 3343  13.436  10.208   5.364
67171SOL     OW 3344   4.665   5.524   6.368
67171SOL    HW1 3345   4.587   5.531   6.423
67171SOL    HW2 3346   4.698   5.613   6.362
67172SOL     OW 3347   3.759   1.257  10.371
67172SOL    HW1 3348   3.787   1.346  10.351
67172SOL    HW2 3349   3.820   1.201  10.323
67173SOL     OW 3350  10.902   5.297   4.498
67173SOL    HW1 3351  10.970   5.302   4.565
67173SOL    HW2 3352  10.837   5.237   4.534
67174SOL     OW 3353   5.848   2.126   8.208
67174SOL    HW1 3354   5.937   2.126   8.174
67174SOL    HW2 3355   5.794   2.155   8.135
67175SOL     OW 3356   8.127   6.000   4.203
67175SOL    HW1 3357   8.157   5.912   4.183
67175SOL    HW2 3358   8.178   6.027   4.279
67176SOL     OW 3359  12.385   9.074   8.647
67176SOL    HW1 3360  12.382   9.144   8.581
67176SOL    HW2 3361  12.453   9.014   8.614
67177SOL     OW 3362   2.846  13.192   1.565
67177SOL    HW1 3363   2.805  13.136   1.631
67177SOL    HW2 3364   2.863  13.133   1.491
67178SOL     OW 3365  10.678   4.293   8.756
67178SOL    HW1 3366  10.600   4.328   8.714
67178SOL    HW2 3367  10.645   4.238   8.827
67179SOL     OW 3368   6.412   6.696   1.517
67179SOL    HW1 3369   6.409   6.730   1.606
67179SOL    HW2 3370   6.463   6.615   1.525
67180SOL     OW 3371   2.402  11.056  11.058
67180SOL    HW1 3372   2.385  11.147  11.082
67180SOL    HW2 3373   2.454  11.022  11.130
67181SOL     OW 3374   4.191  11.202   3.394
67181SOL    HW1 3375   4.235  11.217   3.310
67181SOL    HW2 3376   4.177  11.107   3.397
67182SOL     OW 3377   0.186  13.909   7.467
67182SOL    HW1 3378   0.252  13.912   7.535
67182SOL    HW2 3379   0.103  13.921   7.513
67183SOL     OW 3380  10.482  11.032  12.983
67183SOL    HW1 3381  10.390  11.006  12.987
67183SOL    HW2 3382  10.508  11.013  12.892
67184SOL     OW 3383   3.245   5.172   1.878
67184SOL    HW1 3384   3.279   5.132   1.797
67184SOL    HW2 3385   3.323   5.192   1.930
67185SOL     OW 3386   4.878   6.750   2.989
67185SOL    HW1 3387   4.915   6.662   2.991
67185SOL    HW2 3388   4.950   6.807   3.017
67186SOL     OW 3389   0.972   9.456  10.016
67186SOL    HW1 3390   0.997   9.372  10.056
67186SOL    HW2 3391   0.937   9.432   9.930
67187SOL     OW 3392   2.416   6.808   4.256
67187SOL    HW1 3393   2.367   6.820   4.337
67187SOL    HW2 3394   2.395   6.720   4.227
67188SOL     OW 3395  13.370   0.965   6.262
67188SOL    HW1 3396  13.440   0.940   6.202
67188SOL    HW2 3397  13.299   0.996   6.205
67189SOL     OW 3398   4.261   9.725  11.071
67189SOL    HW1 3399   4.324   9.791  11.043
67189SOL    HW2 3400   4.283   9.709  11.163
67190SOL     OW 3401   3.974   0.062  12.262
67190SOL    HW1 3402   4.032   0.062  12.186
67190SOL    HW2 3403   3.978   0.151  12.296
67191SOL     OW 3404  11.958   2.853   4.739
67191SOL    HW1 3405  11.880   2.830   4.790
67191SOL    HW2 3406  12.031   2.840   4.799
67192SOL     OW 3407  11.285   4.226  10.125
67192SOL    HW1 3408  11.319   4.302  10.077
67192SOL    HW2 3409  11.209   4.260  10.172
67193SOL     OW 3410   7.683  11.196   7.676
67193SOL    HW1 3411   7.637  11.133   7.622
67193SOL    HW2 3412   7.703  11.269   7.616
67194SOL     OW 3413   8.528   8.261   5.339
67194SOL    HW1 3414   8.478   8.192   5.296
67194SOL    HW2 3415   8.507   8.252   5.432
67195SOL     OW 3416   2.561   9.077   3.321
67195SOL    HW1 3417   2.653   9.051   3.310
67195SOL    HW2 3418   2.566   9.163   3.364
67196SOL     OW 3419  12.666  14.325   9.079
67196SOL    HW1 3420  12.747  14.297   9.037
67196SOL    HW2 3421  12.609  14.352   9.007
67197SOL     OW 3422  12.655  13.061   4.142
67197SOL    HW1 3423  12.704  13.006   4.082
67197SOL    HW2 3424  12.563  13.034   4.130
67198SOL     OW 3425   4.153   4.432   9.108
67198SOL    HW1 3426   4.072   4.380   9.106
67198SOL    HW2 3427   4.215   4.383   9.054
67199SOL     OW 3428  14.800   8.838  12.798
67199SOL    HW1 3429   0.006   8.841  12.847
67199SOL    HW2 3430  14.762   8.753  12.819
67200SOL     OW 3431  14.275   8.475  11.680
67200SOL    HW1 3432  14.180   8.464  11.689
67200SOL    HW2 3433  14.288   8.570  11.682
67201SOL     OW 3434   1.030   8.072   7.345
67201SOL    HW1 3435   0.963   8.119   7.296
67201SOL    HW2 3436   1.112   8.117   7.323
67202SOL     OW 3437   5.959  10.070  14.158
67202SOL    HW1 3438   5.927   9.997  14.106
67202SOL    HW2 3439   6.029  10.109  14.105
67203SOL     OW 3440   1.798  11.831   1.134
67203SOL    HW1 3441   1.885  11.823   1.093
67203SOL    HW2 3442   1.737  11.807   1.064
67204SOL     OW 3443   6.375  11.571   7.508
67204SOL    HW1 3444   6.421  11.489   7.525
67204SOL    HW2 3445   6.305  11.572   7.573
67205SOL     OW 3446   4.710   4.237   3.308
67205SOL    HW1 3447   4.652   4.172   3.349
67205SOL    HW2 3448   4.769   4.264   3.378
67206SOL     OW 3449  13.785   0.004   0.062
67206SOL    HW1 3450  13.793  14.864  14.843
67206SOL    HW2 3451  13.694   0.028   0.074
67207SOL     OW 3452   7.956  13.805   0.059
67207SOL    HW1 3453   7.903  13.751   0.119
67207SOL    HW2 3454   8.028  13.748   0.033
67208SOL     OW 3455   7.559   7.580   9.661
67208SOL    HW1 3456   7.545   7.635   9.738
67208SOL    HW2 3457   7.639   7.614   9.621
67209SOL     OW 3458  10.786   1.005   3.464
67209SOL    HW1 3459  10.807   0.981   3.374
67209SOL    HW2 3460  10.851   0.959   3.518
67210SOL     OW 3461   1.007  10.441   0.504
67210SOL    HW1 3462   1.073  10.487   0.452
67210SOL    HW2 3463   0.955  10.393   0.439
67211SOL     OW 3464   2.012   2.505   9.554
67211SOL    HW1 3465   1.960   2.429   9.583
67211SOL    HW2 3466   2.103   2.476   9.563
67212SOL     OW 3467   0.745   8.838   9.030
67212SOL    HW1 3468   0.763   8.806   8.942
67212SOL    HW2 3469   0.717   8.761   9.078
67213SOL     OW 3470   5.468  13.186   0.212
67213SOL    HW1 3471   5.443  13.097   0.188
67213SOL    HW2 3472   5.483  13.231   0.129
67214SOL     OW 3473  14.823   9.650   7.071
67214SOL    HW1 3474  14.852   9.722   7.014
67214SOL    HW2 3475  14.806   9.577   7.012
67215SOL     OW 3476   8.477  11.309  12.514
67215SOL    HW1 3477   8.503  11.356  12.593
67215SOL    HW2 3478   8.421  11.371  12.467
67216SOL     OW 3479   9.611   3.749  13.111
67216SOL    HW1 3480   9.644   3.665  13.079
67216SOL    HW2 3481   9.675   3.776  13.177
67217SOL     OW 3482   2.366  13.963  12.802
67217SOL    HW1 3483   2.285  13.917  12.781
67217SOL    HW2 3484   2.414  13.967  12.719
67218SOL     OW 3485   8.105   4.847   0.392
67218SOL    HW1 3486   8.103   4.752   0.383
67218SOL    HW2 3487   8.016   4.871   0.420
67219SOL     OW 3488   5.438   1.512  13.773
67219SOL    HW1 3489   5.386   1.557  13.706
67219SOL    HW2 3490   5.409   1.549  13.856
67220SOL     OW 3491   3.866  11.461  13.417
67220SOL    HW1 3492   3.860  11.438  13.325
67220SOL    HW2 3493   3.939  11.408  13.450
67221SOL     OW 3494   2.085   5.220   6.857
67221SOL    HW1 3495   2.177   5.194   6.850
67221SOL    HW2 3496   2.087   5.303   6.904
67222SOL     OW 3497   0.761   4.319   0.220
67222SOL    HW1 3498   0.842   4.342   0.265
67222SOL    HW2 3499   0.752   4.225   0.233
67223SOL     OW 3500   9.099   5.212  13.799
67223SOL    HW1 3501   9.061   5.245  13.718
67223SOL    HW2 3502   9.075   5.278  13.865
67224SOL     OW 3503   7.315   5.423   8.231
67224SOL    HW1 3504   7.251   5.357   8.205
67224SOL    HW2 3505   7.325   5.479   8.154
67225SOL     OW 3506   4.878   7.172   5.323
67225SOL    HW1 3507   4.968   7.180   5.354
67225SOL    HW2 3508   4.825   7.211   5.392
67226SOL     OW 3509  10.664  12.724   7.749
67226SOL    HW1 3510  10.642  12.631   7.749
67226SOL    HW2 3511  10.733  12.731   7.816
67227SOL     OW 3512  10.887  11.292  11.459
67227SOL    HW1 3513  10.829  11.368  11.453
67227SOL    HW2 3514  10.832  11.223  11.498
67228SOL     OW 3515   1.124  12.338   9.320
67228SOL    HW1 3516   1.185  12.280   9.365
67228SOL    HW2 3517   1.175  12.417   9.301
67229SOL     OW 3518   3.691   3.701  13.116
67229SOL    HW1 3519   3.620   3.748  13.072
67229SOL    HW2 3520   3.765   3.762  13.113
67230SOL     OW 3521   8.267   5.887   0.313
67230SOL    HW1 3522   8.184   5.907   0.357
67230SOL    HW2 3523   8.291   5.800   0.344
67231SOL     OW 3524   4.447   9.543  11.764
67231SOL    HW1 3525   4.430   9.636  11.746
67231SOL    HW2 3526   4.519   9.520  11.705
67232SOL     OW 3527   2.038  13.879   4.214
67232SOL    HW1 3528   1.987  13.837   4.145
67232SOL    HW2 3529   2.125  13.890   4.177
67233SOL     OW 3530   5.673   0.907  11.453
67233SOL    HW1 3531   5.706   0.985  11.496
67233SOL    HW2 3532   5.658   0.845  11.524
67234SOL     OW 3533   1.075   8.331   9.353
67234SOL    HW1 3534   0.997   8.299   9.399
67234SOL    HW2 3535   1.117   8.252   9.319
67235SOL     OW 3536   1.795  13.921   7.400
67235SOL    HW1 3537   1.742  13.939   7.478
67235SOL    HW2 3538   1.885  13.941   7.427
67236SOL     OW 3539  11.511  14.126  11.378
67236SOL    HW1 3540  11.421  14.154  11.363
67236SOL    HW2 3541  11.555  14.141  11.294
67237SOL     OW 3542  13.398   7.061   5.981
67237SOL    HW1 3543  13.304   7.043   5.980
67237SOL    HW2 3544  13.427   7.043   5.891
67238SOL     OW 3545   1.562   5.438   1.341
67238SOL    HW1 3546   1.620   5.381   1.392
67238SOL    HW2 3547   1.539   5.385   1.264
67239SOL     OW 3548   7.840   6.281   0.907
67239SOL    HW1 3549   7.882   6.212   0.856
67239SOL    HW2 3550   7.842   6.358   0.851
67240SOL     OW 3551  13.924  14.701   6.482
67240SOL    HW1 3552  13.925  14.781   6.535
67240SOL    HW2 3553  13.890  14.634   6.542
67241SOL     OW 3554   5.020   9.533   6.589
67241SOL    HW1 3555   5.008   9.524   6.495
67241SOL    HW2 3556   5.072   9.613   6.600
67242SOL     OW 3557   7.224   8.130   0.789
67242SOL    HW1 3558   7.286   8.058   0.799
67242SOL    HW2 3559   7.269   8.206   0.824
67243SOL     OW 3560   6.905   6.152  14.596
67243SOL    HW1 3561   6.957   6.165  14.517
67243SOL    HW2 3562   6.968   6.160  14.668
67244SOL     OW 3563   8.951   5.752  14.169
67244SOL    HW1 3564   8.891   5.821  14.141
67244SOL    HW2 3565   9.015   5.797  14.225
67245SOL     OW 3566   4.745   1.307   7.228
67245SOL    HW1 3567   4.707   1.317   7.315
67245SOL    HW2 3568   4.674   1.324   7.167
67246SOL     OW 3569   6.836  12.338  12.485
67246SOL    HW1 3570   6.851  12.432  12.499
67246SOL    HW2 3571   6.743  12.332  12.463
67247SOL     OW 3572  12.562  12.768   8.265
67247SOL    HW1 3573  12.477  12.812   8.270
67247SOL    HW2 3574  12.567  12.735   8.176
67248SOL     OW 3575   3.316   8.840   7.169
67248SOL    HW1 3576   3.396   8.856   7.120
67248SOL    HW2 3577   3.344   8.835   7.261
67249SOL     OW 3578   5.243  14.664   3.323
67249SOL    HW1 3579   5.338  14.653   3.321
67249SOL    HW2 3580   5.216  14.632   3.409
67250SOL     OW 3581   8.333  10.000   0.542
67250SOL    HW1 3582   8.393  10.068   0.572
67250SOL    HW2 3583   8.284  10.040   0.470
67251SOL     OW 3584   1.068  11.218  10.854
67251SOL    HW1 3585   1.146  11.259  10.816
67251SOL    HW2 3586   1.092  11.125  10.864
67252SOL     OW 3587   8.097   2.015   4.842
67252SOL    HW1 3588   8.127   2.101   4.872
67252SOL    HW2 3589   8.042   1.983   4.913
67253SOL     OW 3590  10.527   4.021   2.059
67253SOL    HW1 3591  10.523   4.027   1.964
67253SOL    HW2 3592  10.594   3.954   2.076
67254SOL     OW 3593   3.632   6.568   3.311
67254SOL    HW1 3594   3.706   6.530   3.359
67254SOL    HW2 3595   3.672   6.607   3.233
67255SOL     OW 3596   4.294  11.610   2.466
67255SOL    HW1 3597   4.326  11.561   2.390
67255SOL    HW2 3598   4.231  11.672   2.430
67256SOL     OW 3599   2.095   3.199   6.778
67256SOL    HW1 3600   2.028   3.238   6.834
67256SOL    HW2 3601   2.127   3.124   6.827
67257SOL     OW 3602   7.682   0.252   5.844
67257SOL    HW1 3603   7.657   0.255   5.752
67257SOL    HW2 3604   7.613   0.202   5.887
67258SOL     OW 3605   7.237  13.941   8.245
67258SOL    HW1 3606   7.228  13.973   8.155
67258SOL    HW2 3607   7.190  14.006   8.297
67259SOL     OW 3608  14.842   1.827   1.186
67259SOL    HW1 3609  14.750   1.808   1.205
67259SOL    HW2 3610  14.841   1.918   1.155
67260SOL     OW 3611   0.224  12.318  12.585
67260SOL    HW1 3612   0.175  12.379  12.531
67260SOL    HW2 3613   0.162  12.246  12.602
67261SOL     OW 3614   2.233  13.690   9.130
67261SOL    HW1 3615   2.245  13.631   9.055
67261SOL    HW2 3616   2.198  13.770   9.092
67262SOL     OW 3617   8.354   3.002  14.172
67262SOL    HW1 3618   8.385   2.912  14.163
67262SOL    HW2 3619   8.360   3.021  14.265
67263SOL     OW 3620   8.574   8.321  13.751
67263SOL    HW1 3621   8.542   8.239  13.712
67263SOL    HW2 3622   8.614   8.368  13.678
67264SOL     OW 3623   5.414  11.032   1.188
67264SOL    HW1 3624   5.420  10.959   1.127
67264SOL    HW2 3625   5.505  11.053   1.210
67265SOL     OW 3626   2.762   7.678  11.108
67265SOL    HW1 3627   2.737   7.761  11.067
67265SOL    HW2 3628   2.847   7.696  11.146
67266SOL     OW 3629  14.571  10.646   6.560
67266SOL    HW1 3630  14.570  10.732   6.601
67266SOL    HW2 3631  14.659  10.612   6.576
67267SOL     OW 3632  10.754  10.630   0.852
67267SOL    HW1 3633  10.746  10.716   0.894
67267SOL    HW2 3634  10.848  10.613   0.850
67268SOL     OW 3635   7.432   3.989   0.283
67268SOL    HW1 3636   7.413   3.929   0.211
67268SOL    HW2 3637   7.383   3.954   0.357
67269SOL     OW 3638   7.807  13.986  10.552
67269SOL    HW1 3639   7.777  13.904  10.591
67269SOL    HW2 3640   7.893  14.001  10.591
67270SOL     OW 3641   7.582   4.252  14.311
67270SOL    HW1 3642   7.545   4.280  14.227
67270SOL    HW2 3643   7.513   4.270  14.375
67271SOL     OW 3644  11.882   0.521   8.617
67271SOL    HW1 3645  11.821   0.543   8.688
67271SOL    HW2 3646  11.952   0.471   8.660
67272SOL     OW 3647   2.486  10.380   0.596
67272SOL    HW1 3648   2.402  10.423   0.611
67272SOL    HW2 3649   2.550  10.450   0.605
67273SOL     OW 3650   4.512   7.255   7.559
67273SOL    HW1 3651   4.452   7.228   7.490
67273SOL    HW2 3652   4.593   7.207   7.541
67274SOL     OW 3653  14.175   1.191   5.863
67274SOL    HW1 3654  14.181   1.100   5.831
67274SOL    HW2 3655  14.260   1.209   5.902
67275SOL     OW 3656  12.710   1.255  14.069
67275SOL    HW1 3657  12.623   1.291  14.050
67275SOL    HW2 3658  12.751   1.320  14.125
67276SOL     OW 3659   8.798   9.879   1.138
67276SOL    HW1 3660   8.847   9.800   1.115
67276SOL    HW2 3661   8.846   9.950   1.095
67277SOL     OW 3662   0.156   1.232   4.124
67277SOL    HW1 3663   0.147   1.285   4.204
67277SOL    HW2 3664   0.083   1.170   4.129
67278SOL     OW 3665  14.537   5.137   8.304
67278SOL    HW1 3666  14.624   5.166   8.329
67278SOL    HW2 3667  14.492   5.216   8.274
67279SOL     OW 3668   8.638   2.164   2.102
67279SOL    HW1 3669   8.654   2.165   2.196
67279SOL    HW2 3670   8.574   2.093   2.089
67280SOL     OW 3671   8.076   6.241   0.181
67280SOL    HW1 3672   8.154   6.213   0.134
67280SOL    HW2 3673   8.037   6.160   0.215
67281SOL     OW 3674   0.949   2.579   5.308
67281SOL    HW1 3675   0.924   2.487   5.299
67281SOL    HW2 3676   0.901   2.609   5.385
67282SOL     OW 3677   9.661   1.617   9.346
67282SOL    HW1 3678   9.754   1.620   9.367
67282SOL    HW2 3679   9.649   1.687   9.282
67283SOL     OW 3680  13.678   2.525   3.737
67283SOL    HW1 3681  13.613   2.455   3.729
67283SOL    HW2 3682  13.672   2.573   3.654
67284SOL     OW 3683   6.444   8.918   1.447
67284SOL    HW1 3684   6.369   8.927   1.388
67284SOL    HW2 3685   6.445   8.825   1.470
67285SOL     OW 3686   0.015   2.094   6.547
67285SOL    HW1 3687   0.110   2.088   6.538
67285SOL    HW2 3688  14.861   2.004   6.552
67286SOL     OW 3689  11.973   9.744  12.980
67286SOL    HW1 3690  12.042   9.692  13.022
67286SOL    HW2 3691  12.006   9.834  12.982
67287SOL     OW 3692   2.128   4.730   0.325
67287SOL    HW1 3693   2.110   4.794   0.394
67287SOL    HW2 3694   2.199   4.769   0.274
67288SOL     OW 3695  14.033   6.185  13.819
67288SOL    HW1 3696  14.044   6.149  13.907
67288SOL    HW2 3697  14.122   6.200  13.788
67289SOL     OW 3698  13.242   5.203   4.254
67289SOL    HW1 3699  13.299   5.272   4.221
67289SOL    HW2 3700  13.215   5.233   4.340
67290SOL     OW 3701   7.870  13.773   6.682
67290SOL    HW1 3702   7.891  13.802   6.593
67290SOL    HW2 3703   7.955  13.755   6.722
67291SOL     OW 3704   7.311   3.178   5.279
67291SOL    HW1 3705   7.258   3.256   5.268
67291SOL    HW2 3706   7.250   3.105   5.266
67292SOL     OW 3707   9.615  14.370  13.022
67292SOL    HW1 3708   9.573  14.414  13.095
67292SOL    HW2 3709   9.545  14.320  12.980
67293SOL     OW 3710  14.342   5.054  13.299
67293SOL    HW1 3711  14.426   5.011  13.308
67293SOL    HW2 3712  14.283   5.004  13.356
67294SOL     OW 3713   2.052  12.606   0.644
67294SOL    HW1 3714   2.102  12.619   0.725
67294SOL    HW2 3715   1.993  12.533   0.664
67295SOL     OW 3716   9.253   4.454   1.616
67295SOL    HW1 3717   9.195   4.471   1.542
67295SOL    HW2 3718   9.313   4.528   1.618
67296SOL     OW 3719   1.862   0.685   6.902
67296SOL    HW1 3720   1.943   0.718   6.941
67296SOL    HW2 3721   1.798   0.754   6.916
67297SOL     OW 3722   5.361  10.775   7.684
67297SOL    HW1 3723   5.450  10.803   7.666
67297SOL    HW2 3724   5.328  10.838   7.748
67298SOL     OW 3725   4.061   9.322   5.867
67298SOL    HW1 3726   4.048   9.326   5.962
67298SOL    HW2 3727   4.025   9.404   5.834
67299SOL     OW 3728   2.439   0.813  12.709
67299SOL    HW1 3729   2.406   0.900  12.731
67299SOL    HW2 3730   2.529   0.828  12.680
67300SOL     OW 3731   6.947   9.766   1.211
67300SOL    HW1 3732   6.998   9.722   1.143
67300SOL    HW2 3733   7.012   9.797   1.274
67301SOL     OW 3734   3.014   9.303   6.087
67301SOL    HW1 3735   2.990   9.257   6.007
67301SOL    HW2 3736   3.005   9.396   6.065
67302SOL     OW 3737   7.967  11.842   1.598
67302SOL    HW1 3738   8.012  11.768   1.640
67302SOL    HW2 3739   8.026  11.916   1.609
67303SOL     OW 3740  11.770   9.399  12.452
67303SOL    HW1 3741  11.788   9.383  12.544
67303SOL    HW2 3742  11.723   9.483  12.451
67304SOL     OW 3743  11.110   9.580   2.913
67304SOL    HW1 3744  11.130   9.589   2.819
67304SOL    HW2 3745  11.014   9.577   2.916
67305SOL     OW 3746   9.407   8.915   6.298
67305SOL    HW1 3747   9.400   8.986   6.362
67305SOL    HW2 3748   9.324   8.869   6.303
67306SOL     OW 3749   2.193   4.808  12.947
67306SOL    HW1 3750   2.271   4.757  12.926
67306SOL    HW2 3751   2.153   4.828  12.862
67307SOL     OW 3752   5.057  11.144   5.358
67307SOL    HW1 3753   5.123  11.181   5.416
67307SOL    HW2 3754   5.062  11.198   5.279
67308SOL     OW 3755   6.572  13.360   1.633
67308SOL    HW1 3756   6.629  13.380   1.559
67308SOL    HW2 3757   6.591  13.428   1.697
67309SOL     OW 3758   7.776  11.823   5.052
67309SOL    HW1 3759   7.737  11.741   5.022
67309SOL    HW2 3760   7.846  11.841   4.990
67310SOL     OW 3761   0.315   4.537  13.536
67310SOL    HW1 3762   0.342   4.628  13.524
67310SOL    HW2 3763   0.330   4.496  13.451
67311SOL     OW 3764  11.296   3.655   9.864
67311SOL    HW1 3765  11.290   3.658   9.960
67311SOL    HW2 3766  11.389   3.665   9.845
67312SOL     OW 3767   7.530   3.831   6.613
67312SOL    HW1 3768   7.453   3.873   6.652
67312SOL    HW2 3769   7.493   3.760   6.560
67313SOL     OW 3770   5.965  14.541  14.253
67313SOL    HW1 3771   6.009  14.457  14.242
67313SOL    HW2 3772   5.910  14.551  14.175
67314SOL     OW 3773  13.910   9.501  11.426
67314SOL    HW1 3774  13.819   9.508  11.397
67314SOL    HW2 3775  13.959   9.557  11.366
67315SOL     OW 3776   9.204   9.959   9.759
67315SOL    HW1 3777   9.132   9.913   9.716
67315SOL    HW2 3778   9.198   9.932   9.851
67316SOL     OW 3779  11.037  11.491   4.255
67316SOL    HW1 3780  11.052  11.585   4.245
67316SOL    HW2 3781  11.108  11.462   4.313
67317SOL     OW 3782  13.310   7.098   2.536
67317SOL    HW1 3783  13.257   7.020   2.521
67317SOL    HW2 3784  13.361   7.078   2.615
67318SOL     OW 3785   5.128   2.530   9.672
67318SOL    HW1 3786   5.087   2.579   9.600
67318SOL    HW2 3787   5.169   2.596   9.726
67319SOL     OW 3788   4.595   1.919  11.179
67319SOL    HW1 3789   4.561   1.867  11.107
67319SOL    HW2 3790   4.568   1.872  11.258
67320SOL     OW 3791  10.772   6.803  11.651
67320SOL    HW1 3792  10.784   6.851  11.733
67320SOL    HW2 3793  10.821   6.721  11.665
67321SOL     OW 3794   9.764  14.308   8.744
67321SOL    HW1 3795   9.705  14.358   8.799
67321SOL    HW2 3796   9.726  14.312   8.656
67322SOL     OW 3797  12.568   5.555   8.078
67322SOL    HW1 3798  12.490   5.499   8.069
67322SOL    HW2 3799  12.641   5.499   8.054
67323SOL     OW 3800   6.671  12.610   5.739
67323SOL    HW1 3801   6.726  12.553   5.793
67323SOL    HW2 3802   6.683  12.697   5.777
67324SOL     OW 3803   4.804  14.607  12.044
67324SOL    HW1 3804   4.714  14.613  12.011
67324SOL    HW2 3805   4.855  14.663  11.985
67325SOL     OW 3806   9.097   2.044   1.736
67325SOL    HW1 3807   9.020   1.989   1.721
67325SOL    HW2 3808   9.116   2.081   1.650
67326SOL     OW 3809   4.404   7.427   1.922
67326SOL    HW1 3810   4.415   7.454   1.831
67326SOL    HW2 3811   4.310   7.421   1.934
67327SOL     OW 3812   0.523   8.395   3.340
67327SOL    HW1 3813   0.449   8.337   3.357
67327SOL    HW2 3814   0.519   8.461   3.410
67328SOL     OW 3815   2.095   0.719   9.478
67328SOL    HW1 3816   2.004   0.747   9.485
67328SOL    HW2 3817   2.146   0.800   9.483
67329SOL     OW 3818   2.168   5.094   8.497
67329SOL    HW1 3819   2.213   5.120   8.417
67329SOL    HW2 3820   2.187   5.000   8.505
67330SOL     OW 3821  10.644  12.635  11.796
67330SOL    HW1 3822  10.664  12.543  11.778
67330SOL    HW2 3823  10.715  12.664  11.853
67331SOL     OW 3824  12.686   9.757   8.319
67331SOL    HW1 3825  12.744   9.696   8.364
67331SOL    HW2 3826  12.636   9.798   8.389
67332SOL     OW 3827  10.222   2.005   5.317
67332SOL    HW1 3828  10.254   2.008   5.407
67332SOL    HW2 3829  10.277   2.068   5.270
67333SOL     OW 3830   5.234   7.158   2.749
67333SOL    HW1 3831   5.237   7.211   2.829
67333SOL    HW2 3832   5.273   7.214   2.682
67334SOL     OW 3833   4.457   2.091   9.396
67334SOL    HW1 3834   4.541   2.113   9.437
67334SOL    HW2 3835   4.412   2.175   9.388
67335SOL     OW 3836  10.293   1.871   7.990
67335SOL    HW1 3837  10.263   1.945   8.043
67335SOL    HW2 3838  10.365   1.906   7.937
67336SOL     OW 3839   9.079   8.903  14.412
67336SOL    HW1 3840   9.068   8.987  14.457
67336SOL    HW2 3841   9.136   8.923  14.338
67337SOL     OW 3842  10.356   5.414   6.932
67337SOL    HW1 3843  10.359   5.453   7.019
67337SOL    HW2 3844  10.346   5.320   6.948
67338SOL     OW 3845  13.654   6.523   1.369
67338SOL    HW1 3846  13.597   6.449   1.387
67338SOL    HW2 3847  13.730   6.510   1.426
67339SOL     OW 3848   8.192  10.664  11.756
67339SOL    HW1 3849   8.255  10.732  11.779
67339SOL    HW2 3850   8.109  10.710  11.747
67340SOL     OW 3851   9.460  14.301   4.905
67340SOL    HW1 3852   9.543  14.319   4.948
67340SOL    HW2 3853   9.452  14.368   4.837
67341SOL     OW 3854   6.056   7.450   2.566
67341SOL    HW1 3855   6.106   7.518   2.612
67341SOL    HW2 3856   6.110   7.371   2.576
67342SOL     OW 3857   0.191   0.127  13.595
67342SOL    HW1 3858   0.117   0.109  13.652
67342SOL    HW2 3859   0.165   0.203  13.544
67343SOL     OW 3860  14.258  10.710   3.506
67343SOL    HW1 3861  14.220  10.747   3.585
67343SOL    HW2 3862  14.186  10.660   3.466
67344SOL     OW 3863  13.974  13.527   5.966
67344SOL    HW1 3864  14.034  13.580   6.018
67344SOL    HW2 3865  13.969  13.572   5.882
67345SOL     OW 3866  12.897   1.465   6.785
67345SOL    HW1 3867  12.845   1.414   6.848
67345SOL    HW2 3868  12.861   1.553   6.790
67346SOL     OW 3869   8.429   0.271   8.445
67346SOL    HW1 3870   8.481   0.248   8.522
67346SOL    HW2 3871   8.460   0.212   8.376
67347SOL     OW 3872   2.405   5.904   7.354
67347SOL    HW1 3873   2.332   5.904   7.417
67347SOL    HW2 3874   2.449   5.820   7.370
67348SOL     OW 3875   7.596  11.641  12.015
67348SOL    HW1 3876   7.678  11.664  12.060
67348SOL    HW2 3877   7.592  11.546  12.019
67349SOL     OW 3878  14.436  12.688   1.250
67349SOL    HW1 3879  14.347  12.653   1.244
67349SOL    HW2 3880  14.477  12.637   1.320
67350SOL     OW 3881   6.491   7.448   1.695
67350SOL    HW1 3882   6.532   7.377   1.746
67350SOL    HW2 3883   6.425   7.404   1.642
67351SOL     OW 3884   9.522   6.839  11.361
67351SOL    HW1 3885   9.507   6.803  11.274
67351SOL    HW2 3886   9.528   6.934  11.348
67352SOL     OW 3887   1.602  10.198  13.028
67352SOL    HW1 3888   1.529  10.238  12.982
67352SOL    HW2 3889   1.575  10.194  13.119
67353SOL     OW 3890   3.586  11.836  14.209
67353SOL    HW1 3891   3.588  11.768  14.276
67353SOL    HW2 3892   3.520  11.806  14.146
67354SOL     OW 3893  10.957   1.832  11.236
67354SOL    HW1 3894  10.969   1.918  11.275
67354SOL    HW2 3895  11.030   1.823  11.175
67355SOL     OW 3896  11.088  14.007   2.600
67355SOL    HW1 3897  11.151  13.934   2.603
67355SOL    HW2 3898  11.142  14.085   2.615
67356SOL     OW 3899  11.043   7.464  14.487
67356SOL    HW1 3900  10.979   7.414  14.437
67356SOL    HW2 3901  11.127   7.443  14.446
67357SOL     OW 3902  10.373  10.612   7.926
67357SOL    HW1 3903  10.311  10.545   7.898
67357SOL    HW2 3904  10.318  10.689   7.944
67358SOL     OW 3905   3.399   0.450   8.953
67358SOL    HW1 3906   3.351   0.527   8.984
67358SOL    HW2 3907   3.368   0.437   8.863
67359SOL     OW 3908   6.464   1.121   4.760
67359SOL    HW1 3909   6.430   1.032   4.760
67359SOL    HW2 3910   6.559   1.110   4.762
67360SOL     OW 3911  14.810  12.599  11.499
67360SOL    HW1 3912  14.792  12.505  11.500
67360SOL    HW2 3913   0.029  12.606  11.505
67361SOL     OW 3914  12.886   4.334  11.737
67361SOL    HW1 3915  12.820   4.384  11.689
67361SOL    HW2 3916  12.957   4.396  11.752
67362SOL     OW 3917   1.841  12.151   1.610
67362SOL    HW1 3918   1.806  12.169   1.697
67362SOL    HW2 3919   1.900  12.077   1.623
67363SOL     OW 3920  14.853  10.119   7.456
67363SOL    HW1 3921  14.828  10.043   7.510
67363SOL    HW2 3922   0.054  10.089   7.408
67364SOL     OW 3923   2.543   9.749   2.095
67364SOL    HW1 3924   2.451   9.733   2.117
67364SOL    HW2 3925   2.569   9.672   2.045
67365SOL     OW 3926   2.689   1.982  13.414
67365SOL    HW1 3927   2.598   2.010  13.406
67365SOL    HW2 3928   2.707   1.937  13.331
67366SOL     OW 3929  10.942   0.140   6.867
67366SOL    HW1 3930  10.969   0.058   6.825
67366SOL    HW2 3931  11.021   0.195   6.864
67367SOL     OW 3932   0.910   4.096  12.846
67367SOL    HW1 3933   0.905   4.180  12.801
67367SOL    HW2 3934   0.995   4.097  12.890
67368SOL     OW 3935  12.525   5.130   8.920
67368SOL    HW1 3936  12.488   5.194   8.980
67368SOL    HW2 3937  12.545   5.054   8.975
67369SOL     OW 3938   9.035   1.836   4.649
67369SOL    HW1 3939   8.996   1.919   4.622
67369SOL    HW2 3940   9.094   1.859   4.721
67370SOL     OW 3941   8.890  10.570   7.155
67370SOL    HW1 3942   8.824  10.569   7.225
67370SOL    HW2 3943   8.882  10.657   7.115
67371SOL     OW 3944   3.372   7.654   7.804
67371SOL    HW1 3945   3.304   7.695   7.751
67371SOL    HW2 3946   3.327   7.627   7.884
67372SOL     OW 3947  12.620   4.458   4.576
67372SOL    HW1 3948  12.637   4.444   4.483
67372SOL    HW2 3949  12.643   4.374   4.617
67373SOL     OW 3950  13.493  11.394  11.988
67373SOL    HW1 3951  13.414  11.346  11.965
67373SOL    HW2 3952  13.474  11.485  11.965
67374SOL     OW 3953   1.134   7.628   5.116
67374SOL    HW1 3954   1.117   7.535   5.134
67374SOL    HW2 3955   1.228   7.638   5.130
67375SOL     OW 3956   3.067   5.590  13.363
67375SOL    HW1 3957   3.117   5.646  13.304
67375SOL    HW2 3958   3.123   5.513  13.374
67376SOL     OW 3959   5.629  11.227  14.592
67376SOL    HW1 3960   5.689  11.299  14.576
67376SOL    HW2 3961   5.649  11.164  14.523
67377SOL     OW 3962   3.035   0.627   3.678
67377SOL    HW1 3963   3.068   0.659   3.762
67377SOL    HW2 3964   3.086   0.675   3.612
67378SOL     OW 3965   3.070   9.716   8.140
67378SOL    HW1 3966   3.016   9.666   8.078
67378SOL    HW2 3967   3.108   9.786   8.087
67379SOL     OW 3968   2.891   6.563   4.636
67379SOL    HW1 3969   2.921   6.503   4.568
67379SOL    HW2 3970   2.928   6.647   4.612
67380SOL     OW 3971   8.299  12.246  11.588
67380SOL    HW1 3972   8.280  12.160  11.552
67380SOL    HW2 3973   8.240  12.306  11.542
67381SOL     OW 3974   3.007   3.455   8.578
67381SOL    HW1 3975   3.086   3.457   8.524
67381SOL    HW2 3976   2.941   3.501   8.526
67382SOL     OW 3977  10.380  11.811   1.579
67382SOL    HW1 3978  10.300  11.759   1.592
67382SOL    HW2 3979  10.370  11.886   1.637
67383SOL     OW 3980   2.223   3.133  10.888
67383SOL    HW1 3981   2.196   3.198  10.823
67383SOL    HW2 3982   2.311   3.107  10.860
67384SOL     OW 3983   9.990  10.581   4.130
67384SOL    HW1 3984  10.045  10.638   4.076
67384SOL    HW2 3985   9.905  10.626   4.133
67385SOL     OW 3986   2.483   1.950   1.266
67385SOL    HW1 3987   2.455   1.894   1.338
67385SOL    HW2 3988   2.441   2.034   1.284
67386SOL     OW 3989  10.150   4.215   1.196
67386SOL    HW1 3990  10.095   4.227   1.118
67386SOL    HW2 3991  10.216   4.151   1.169
67387SOL     OW 3992   5.273   2.789  11.618
67387SOL    HW1 3993   5.208   2.849  11.653
67387SOL    HW2 3994   5.261   2.708  11.669
67388SOL     OW 3995  14.692  13.456   3.751
67388SOL    HW1 3996  14.628  13.455   3.822
67388SOL    HW2 3997  14.773  13.425   3.792
67389SOL     OW 3998   8.500   3.616   7.137
67389SOL    HW1 3999   8.474   3.708   7.143
67389SOL    HW2 4000   8.489   3.594   7.045
67390SOL     OW 4001   0.573  10.114  10.785
67390SOL    HW1 4002   0.528  10.192  10.753
67390SOL    HW2 4003   0.531  10.041  10.739
67391SOL     OW 4004   2.464   8.982   9.848
67391SOL    HW1 4005   2.522   8.926   9.796
67391SOL    HW2 4006   2.457   8.938   9.932
67392SOL     OW 4007  10.760   4.740  14.816
67392SOL    HW1 4008  10.708   4.737  14.736
67392SOL    HW2 4009  10.850   4.747  14.785
67393SOL     OW 4010   9.277   7.609  11.465
67393SOL    HW1 4011   9.263   7.697  11.429
67393SOL    HW2 4012   9.201   7.594  11.521
67394SOL     OW 4013   2.381  14.719  12.868
67394SOL    HW1 4014   2.401  14.673  12.949
67394SOL    HW2 4015   2.364  14.650  12.804
67395SOL     OW 4016  10.517   4.609   6.826
67395SOL    HW1 4017  10.500   4.679   6.764
67395SOL    HW2 4018  10.432   4.588   6.864
67396SOL     OW 4019   0.034   8.827  13.040
67396SOL    HW1 4020   0.060   8.736  13.028
67396SOL    HW2 4021   0.116   8.873  13.057
67397SOL     OW 4022   6.628   3.137  14.164
67397SOL    HW1 4023   6.571   3.131  14.241
67397SOL    HW2 4024   6.581   3.090  14.095
67398SOL     OW 4025   1.585   4.025   6.819
67398SOL    HW1 4026   1.592   4.116   6.850
67398SOL    HW2 4027   1.532   4.031   6.739
67399SOL     OW 4028   7.964   5.062   8.358
67399SOL    HW1 4029   8.050   5.103   8.365
67399SOL    HW2 4030   7.972   5.000   8.286
67400SOL     OW 4031   5.219   6.461  13.463
67400SOL    HW1 4032   5.213   6.453  13.368
67400SOL    HW2 4033   5.192   6.375  13.496
67401SOL     OW 4034  12.951  13.268  11.082
67401SOL    HW1 4035  13.005  13.326  11.137
67401SOL    HW2 4036  13.014  13.210  11.039
67402SOL     OW 4037   5.192   3.995  13.395
67402SOL    HW1 4038   5.223   3.996  13.485
67402SOL    HW2 4039   5.100   4.019  13.401
67403SOL     OW 4040   3.313   6.775   2.631
67403SOL    HW1 4041   3.220   6.752   2.622
67403SOL    HW2 4042   3.313   6.871   2.635
67404SOL     OW 4043   4.996   9.087   5.994
67404SOL    HW1 4044   5.051   9.014   6.023
67404SOL    HW2 4045   5.028   9.108   5.906
67405SOL     OW 4046   5.344  14.379   5.820
67405SOL    HW1 4047   5.384  14.298   5.788
67405SOL    HW2 4048   5.418  14.431   5.852
67406SOL     OW 4049   3.807  10.805   1.001
67406SOL    HW1 4050   3.777  10.715   1.003
67406SOL    HW2 4051   3.850  10.814   0.916
67407SOL     OW 4052   5.839  14.280   5.243
67407SOL    HW1 4053   5.877  14.193   5.249
67407SOL    HW2 4054   5.904  14.332   5.196
67408SOL     OW 4055   2.747  13.435   4.604
67408SOL    HW1 4056   2.733  13.345   4.633
67408SOL    HW2 4057   2.839  13.438   4.577
67409SOL     OW 4058   1.671   9.023   6.530
67409SOL    HW1 4059   1.692   8.934   6.501
67409SOL    HW2 4060   1.615   9.010   6.607
67410SOL     OW 4061  11.176   1.488  12.376
67410SOL    HW1 4062  11.155   1.566  12.427
67410SOL    HW2 4063  11.179   1.519  12.286
67411SOL     OW 4064  14.471   5.870   2.944
67411SOL    HW1 4065  14.500   5.920   3.020
67411SOL    HW2 4066  14.525   5.903   2.872
67412SOL     OW 4067   0.421   0.425   5.488
67412SOL    HW1 4068   0.338   0.411   5.443
67412SOL    HW2 4069   0.445   0.339   5.522
67413SOL     OW 4070   4.224   1.425   4.922
67413SOL    HW1 4071   4.303   1.462   4.884
67413SOL    HW2 4072   4.191   1.364   4.856
67414SOL     OW 4073  14.185  13.028  13.224
67414SOL    HW1 4074  14.268  13.074  13.235
67414SOL    HW2 4075  14.139  13.043  13.307
67415SOL     OW 4076   2.273   6.490  14.459
67415SOL    HW1 4077   2.364   6.509  14.435
67415SOL    HW2 4078   2.256   6.546  14.535
67416SOL     OW 4079  12.603   2.319   0.821
67416SOL    HW1 4080  12.581   2.397   0.770
67416SOL    HW2 4081  12.548   2.325   0.899
67417SOL     OW 4082   7.287   6.312  14.652
67417SOL    HW1 4083   7.205   6.323  14.701
67417SOL    HW2 4084   7.350   6.285  14.719
67418SOL     OW 4085   1.422   2.314  12.555
67418SOL    HW1 4086   1.459   2.320  12.467
67418SOL    HW2 4087   1.498   2.313  12.613
67419SOL     OW 4088   9.471   7.654   4.272
67419SOL    HW1 4089   9.557   7.620   4.295
67419SOL    HW2 4090   9.430   7.675   4.357
67420SOL     OW 4091  14.737   2.852   3.795
67420SOL    HW1 4092  14.644   2.867   3.815
67420SOL    HW2 4093  14.751   2.902   3.714
67421SOL     OW 4094   5.226   1.410  12.799
67421SOL    HW1 4095   5.252   1.370  12.882
67421SOL    HW2 4096   5.308   1.443  12.762
67422SOL     OW 4097  12.165  12.362   2.587
67422SOL    HW1 4098  12.075  12.368   2.619
67422SOL    HW2 4099  12.201  12.286   2.633
67423SOL     OW 4100   8.977   4.467  12.080
67423SOL    HW1 4101   8.891   4.468  12.038
67423SOL    HW2 4102   9.039   4.459  12.007
67424SOL     OW 4103   5.423  11.052   2.438
67424SOL    HW1 4104   5.432  11.145   2.456
67424SOL    HW2 4105   5.513  11.019   2.431
67425SOL     OW 4106   8.679   0.942   5.492
67425SOL    HW1 4107   8.640   0.930   5.406
67425SOL    HW2 4108   8.607   0.930   5.554
67426SOL     OW 4109  10.442  14.449   4.771
67426SOL    HW1 4110  10.384  14.376   4.792
67426SOL    HW2 4111  10.383  14.518   4.741
67427SOL     OW 4112   9.390   2.213   4.346
67427SOL    HW1 4113   9.467   2.260   4.376
67427SOL    HW2 4114   9.423   2.128   4.317
67428SOL     OW 4115   5.500   5.660   9.875
67428SOL    HW1 4116   5.556   5.702   9.940
67428SOL    HW2 4117   5.426   5.720   9.864
67429SOL     OW 4118   5.094   4.163   1.715
67429SOL    HW1 4119   5.076   4.225   1.644
67429SOL    HW2 4120   5.171   4.199   1.759
67430SOL     OW 4121   8.965   0.399   8.249
67430SOL    HW1 4122   9.003   0.324   8.293
67430SOL    HW2 4123   8.967   0.469   8.314
67431SOL     OW 4124   4.892   3.495   2.441
67431SOL    HW1 4125   4.911   3.431   2.373
67431SOL    HW2 4126   4.973   3.500   2.492
67432SOL     OW 4127   1.176   1.311  13.590
67432SOL    HW1 4128   1.248   1.333  13.649
67432SOL    HW2 4129   1.097   1.341  13.636
67433SOL     OW 4130   7.985  10.137   3.397
67433SOL    HW1 4131   8.029  10.086   3.465
67433SOL    HW2 4132   7.960  10.219   3.440
67434SOL     OW 4133  12.113   1.317   9.187
67434SOL    HW1 4134  12.028   1.295   9.150
67434SOL    HW2 4135  12.093   1.362   9.269
67435SOL     OW 4136  13.697   6.890   1.819
67435SOL    HW1 4137  13.625   6.828   1.833
67435SOL    HW2 4138  13.697   6.906   1.724
67436SOL     OW 4139   1.366   0.696   2.409
67436SOL    HW1 4140   1.300   0.733   2.468
67436SOL    HW2 4141   1.405   0.625   2.459
67437SOL     OW 4142   2.531  11.494  12.304
67437SOL    HW1 4143   2.608  11.532  12.261
67437SOL    HW2 4144   2.559  11.475  12.393
67438SOL     OW 4145  13.799  14.449   3.687
67438SOL    HW1 4146  13.822  14.397   3.610
67438SOL    HW2 4147  13.874  14.508   3.699
67439SOL     OW 4148   2.274   8.014  14.667
67439SOL    HW1 4149   2.294   8.107  14.671
67439SOL    HW2 4150   2.340   7.973  14.723
67440SOL     OW 4151   2.123  14.159   0.431
67440SOL    HW1 4152   2.145  14.199   0.515
67440SOL    HW2 4153   2.071  14.082   0.454
67441SOL     OW 4154  11.282   5.187   9.426
67441SOL    HW1 4155  11.225   5.123   9.468
67441SOL    HW2 4156  11.323   5.235   9.499
67442SOL     OW 4157  12.312   1.574   9.382
67442SOL    HW1 4158  12.380   1.580   9.449
67442SOL    HW2 4159  12.251   1.508   9.417
67443SOL     OW 4160   8.451   9.247  10.188
67443SOL    HW1 4161   8.388   9.280  10.124
67443SOL    HW2 4162   8.403   9.178  10.235
67444SOL     OW 4163  12.278   2.920  14.253
67444SOL    HW1 4164  12.357   2.887  14.295
67444SOL    HW2 4165  12.277   3.014  14.273
67445SOL     OW 4166   4.372  11.786  12.228
67445SOL    HW1 4167   4.462  11.781  12.259
67445SOL    HW2 4168   4.330  11.851  12.284
67446SOL     OW 4169  12.606  14.505  14.500
67446SOL    HW1 4170  12.667  14.491  14.427
67446SOL    HW2 4171  12.572  14.593  14.487
67447SOL     OW 4172   9.037   8.394   7.554
67447SOL    HW1 4173   9.113   8.336   7.543
67447SOL    HW2 4174   9.056   8.445   7.632
67448SOL     OW 4175  14.842  13.547   7.174
67448SOL    HW1 4176  14.840  13.642   7.185
67448SOL    HW2 4177   0.030  13.516   7.238
67449SOL     OW 4178   1.471   8.894   2.682
67449SOL    HW1 4179   1.407   8.858   2.743
67449SOL    HW2 4180   1.432   8.975   2.649
67450SOL     OW 4181   5.124   8.276  12.152
67450SOL    HW1 4182   5.161   8.300  12.067
67450SOL    HW2 4183   5.189   8.216  12.190
67451SOL     OW 4184   4.730   6.285  11.462
67451SOL    HW1 4185   4.726   6.279  11.558
67451SOL    HW2 4186   4.688   6.369  11.442
67452SOL     OW 4187  14.153   8.173   0.895
67452SOL    HW1 4188  14.101   8.122   0.832
67452SOL    HW2 4189  14.093   8.190   0.967
67453SOL     OW 4190   9.725   7.749   2.353
67453SOL    HW1 4191   9.762   7.666   2.383
67453SOL    HW2 4192   9.692   7.791   2.432
67454SOL     OW 4193   0.187   4.746  14.157
67454SOL    HW1 4194   0.113   4.687  14.172
67454SOL    HW2 4195   0.263   4.688  14.152
67455SOL     OW 4196  13.674  14.063  13.228
67455SOL    HW1 4197  13.721  13.989  13.265
67455SOL    HW2 4198  13.637  14.109  13.304
67456SOL     OW 4199   1.397   9.817  12.544
67456SOL    HW1 4200   1.467   9.784  12.487
67456SOL    HW2 4201   1.441   9.877  12.604
67457SOL     OW 4202  12.598   0.996  14.190
67457SOL    HW1 4203  12.596   0.964  14.280
67457SOL    HW2 4204  12.655   1.073  14.193
67458SOL     OW 4205   2.896  14.750  12.729
67458SOL    HW1 4206   2.841  14.827  12.738
67458SOL    HW2 4207   2.835  14.679  12.709
67459SOL     OW 4208  13.643   5.008  11.939
67459SOL    HW1 4209  13.657   4.962  12.021
67459SOL    HW2 4210  13.610   5.094  11.964
67460SOL     OW 4211   1.003  13.468   9.025
67460SOL    HW1 4212   0.993  13.446   9.117
67460SOL    HW2 4213   0.929  13.426   8.982
67461SOL     OW 4214   5.060   0.624  10.183
67461SOL    HW1 4215   5.143   0.578  10.172
67461SOL    HW2 4216   5.066   0.700  10.124
67462SOL     OW 4217   2.771   2.338  13.353
67462SOL    HW1 4218   2.755   2.252  13.392
67462SOL    HW2 4219   2.865   2.352  13.363
67463SOL     OW 4220   2.127   8.312   1.090
67463SOL    HW1 4221   2.146   8.250   1.020
67463SOL    HW2 4222   2.194   8.295   1.156
67464SOL     OW 4223   5.273   5.781   4.227
67464SOL    HW1 4224   5.252   5.768   4.319
67464SOL    HW2 4225   5.272   5.876   4.215
67465SOL     OW 4226  10.901   7.493   4.607
67465SOL    HW1 4227  10.963   7.446   4.662
67465SOL    HW2 4228  10.830   7.431   4.592
67466SOL     OW 4229  10.063  11.792  14.047
67466SOL    HW1 4230   9.974  11.821  14.025
67466SOL    HW2 4231  10.094  11.749  13.968
67467SOL     OW 4232   3.529   0.079   1.926
67467SOL    HW1 4233   3.614   0.104   1.962
67467SOL    HW2 4234   3.503   0.003   1.978
67468SOL     OW 4235   5.905   2.151   7.576
67468SOL    HW1 4236   5.817   2.136   7.540
67468SOL    HW2 4237   5.958   2.081   7.539
67469SOL     OW 4238  14.366  12.850  12.507
67469SOL    HW1 4239  14.440  12.874  12.563
67469SOL    HW2 4240  14.299  12.818  12.568
67470SOL     OW 4241   6.582   9.504   8.001
67470SOL    HW1 4242   6.577   9.593   7.966
67470SOL    HW2 4243   6.642   9.511   8.076
67471SOL     OW 4244   3.590   7.824   2.737
67471SOL    HW1 4245   3.614   7.916   2.738
67471SOL    HW2 4246   3.548   7.809   2.822
67472SOL     OW 4247  10.481  11.088   5.896
67472SOL    HW1 4248  10.474  11.176   5.934
67472SOL    HW2 4249  10.396  11.074   5.855
67473SOL     OW 4250   9.210  14.589  10.815
67473SOL    HW1 4251   9.147  14.519  10.798
67473SOL    HW2 4252   9.165  14.669  10.786
67474SOL     OW 4253  13.110   8.206  10.178
67474SOL    HW1 4254  13.070   8.267  10.116
67474SOL    HW2 4255  13.078   8.120  10.150
67475SOL     OW 4256   9.160   5.822   9.164
67475SOL    HW1 4257   9.089   5.841   9.102
67475SOL    HW2 4258   9.145   5.731   9.190
67476SOL     OW 4259   9.207   8.575   7.372
67476SOL    HW1 4260   9.160   8.493   7.354
67476SOL    HW2 4261   9.173   8.636   7.306
67477SOL     OW 4262   7.167  12.794   6.046
67477SOL    HW1 4263   7.150  12.856   6.117
67477SOL    HW2 4264   7.206  12.718   6.090
67478SOL     OW 4265  14.576   4.173   7.028
67478SOL    HW1 4266  14.520   4.249   7.043
67478SOL    HW2 4267  14.664   4.210   7.020
67479SOL     OW 4268   6.910   5.442  12.775
67479SOL    HW1 4269   6.941   5.482  12.856
67479SOL    HW2 4270   6.842   5.381  12.802
67480SOL     OW 4271   6.858  13.622   6.202
67480SOL    HW1 4272   6.924  13.692   6.203
67480SOL    HW2 4273   6.865  13.581   6.288
67481SOL     OW 4274   4.461   1.980   4.088
67481SOL    HW1 4275   4.436   1.932   4.167
67481SOL    HW2 4276   4.471   2.071   4.118
67482SOL     OW 4277   7.240   5.550   3.905
67482SOL    HW1 4278   7.220   5.513   3.991
67482SOL    HW2 4279   7.157   5.586   3.874
67483SOL     OW 4280  13.864   6.143  12.440
67483SOL    HW1 4281  13.785   6.088  12.433
67483SOL    HW2 4282  13.866   6.170  12.531
67484SOL     OW 4283   1.532  12.893  14.594
67484SOL    HW1 4284   1.548  12.813  14.645
67484SOL    HW2 4285   1.619  12.920  14.565
67485SOL     OW 4286  10.428   1.131   9.282
67485SOL    HW1 4287  10.417   1.205   9.222
67485SOL    HW2 4288  10.513   1.094   9.259
67486SOL     OW 4289  10.844   9.123   4.701
67486SOL    HW1 4290  10.855   9.128   4.606
67486SOL    HW2 4291  10.800   9.040   4.716
67487SOL     OW 4292   7.187   3.429   0.530
67487SOL    HW1 4293   7.135   3.386   0.598
67487SOL    HW2 4294   7.122   3.477   0.478
67488SOL     OW 4295   6.723  13.873   4.639
67488SOL    HW1 4296   6.745  13.950   4.693
67488SOL    HW2 4297   6.776  13.803   4.676
67489SOL     OW 4298   8.597   2.277   4.921
67489SOL    HW1 4299   8.551   2.348   4.966
67489SOL    HW2 4300   8.687   2.308   4.913
67490SOL     OW 4301   7.891  14.321  10.635
67490SOL    HW1 4302   7.944  14.376  10.578
67490SOL    HW2 4303   7.908  14.354  10.723
67491SOL     OW 4304   3.157  11.391   8.563
67491SOL    HW1 4305   3.172  11.342   8.644
67491SOL    HW2 4306   3.160  11.324   8.494
67492SOL     OW 4307   7.044   5.856  10.691
67492SOL    HW1 4308   6.950   5.861  10.672
67492SOL    HW2 4309   7.067   5.764  10.679
67493SOL     OW 4310   6.194   9.371   2.646
67493SOL    HW1 4311   6.253   9.366   2.721
67493SOL    HW2 4312   6.250   9.395   2.573
67494SOL     OW 4313  10.702   1.646   2.108
67494SOL    HW1 4314  10.707   1.611   2.019
67494SOL    HW2 4315  10.763   1.592   2.158
67495SOL     OW 4316   6.620  13.187   8.172
67495SOL    HW1 4317   6.707  13.150   8.157
67495SOL    HW2 4318   6.564  13.112   8.189
67496SOL     OW 4319  13.309   3.179   0.844
67496SOL    HW1 4320  13.299   3.120   0.918
67496SOL    HW2 4321  13.226   3.171   0.796
67497SOL     OW 4322  11.075   5.523  14.410
67497SOL    HW1 4323  11.161   5.516  14.452
67497SOL    HW2 4324  11.022   5.455  14.452
67498SOL     OW 4325   2.492  12.742   8.236
67498SOL    HW1 4326   2.541  12.824   8.241
67498SOL    HW2 4327   2.415  12.756   8.290
67499SOL     OW 4328  12.952  12.361   2.131
67499SOL    HW1 4329  12.871  12.400   2.097
67499SOL    HW2 4330  12.923  12.281   2.176
67500SOL     OW 4331  12.865   0.555   1.051
67500SOL    HW1 4332  12.920   0.485   1.015
67500SOL    HW2 4333  12.865   0.622   0.984
67501SOL     OW 4334  10.703   3.116   6.099
67501SOL    HW1 4335  10.733   3.047   6.039
67501SOL    HW2 4336  10.661   3.069   6.171
67502SOL     OW 4337   0.799   0.971   7.985
67502SOL    HW1 4338   0.723   1.010   8.028
67502SOL    HW2 4339   0.795   1.002   7.895
67503SOL     OW 4340   2.468  12.257   9.826
67503SOL    HW1 4341   2.481  12.163   9.818
67503SOL    HW2 4342   2.450  12.287   9.737
67504SOL     OW 4343   0.759   1.281  11.922
67504SOL    HW1 4344   0.787   1.372  11.916
67504SOL    HW2 4345   0.717   1.263  11.838
67505SOL     OW 4346   0.888  13.719  10.319
67505SOL    HW1 4347   0.857  13.806  10.296
67505SOL    HW2 4348   0.937  13.690  10.241
67506SOL     OW 4349   2.736  12.278  14.366
67506SOL    HW1 4350   2.825  12.243  14.364
67506SOL    HW2 4351   2.680  12.201  14.371
67507SOL     OW 4352   7.821   8.495   0.655
67507SOL    HW1 4353   7.882   8.549   0.706
67507SOL    HW2 4354   7.774   8.444   0.721
67508SOL     OW 4355   4.478  11.636   8.454
67508SOL    HW1 4356   4.512  11.712   8.502
67508SOL    HW2 4357   4.556  11.596   8.415
67509SOL     OW 4358  12.867   0.348   5.389
67509SOL    HW1 4359  12.871   0.269   5.442
67509SOL    HW2 4360  12.841   0.317   5.302
67510SOL     OW 4361  14.846   1.845   3.846
67510SOL    HW1 4362  14.810   1.854   3.758
67510SOL    HW2 4363  14.778   1.881   3.903
67511SOL     OW 4364   9.312   8.761   1.719
67511SOL    HW1 4365   9.347   8.832   1.771
67511SOL    HW2 4366   9.361   8.684   1.747
67512SOL     OW 4367  14.567  13.730  13.434
67512SOL    HW1 4368  14.528  13.679  13.363
67512SOL    HW2 4369  14.525  13.696  13.514
67513SOL     OW 4370  12.829  13.116   8.787
67513SOL    HW1 4371  12.886  13.185   8.822
67513SOL    HW2 4372  12.828  13.132   8.693
67514SOL     OW 4373  10.318  13.854   8.682
67514SOL    HW1 4374  10.377  13.918   8.721
67514SOL    HW2 4375  10.233  13.870   8.724
67515SOL     OW 4376   5.582  11.564  14.630
67515SOL    HW1 4377   5.640  11.491  14.651
67515SOL    HW2 4378   5.625  11.640  14.669
67516SOL     OW 4379   2.828   2.022   6.383
67516SOL    HW1 4380   2.779   2.070   6.449
67516SOL    HW2 4381   2.761   1.972   6.335
67517SOL     OW 4382   2.331   1.004  11.306
67517SOL    HW1 4383   2.371   0.919  11.325
67517SOL    HW2 4384   2.405   1.065  11.304
67518SOL     OW 4385   4.615   8.911   9.127
67518SOL    HW1 4386   4.585   8.885   9.040
67518SOL    HW2 4387   4.649   9.000   9.115
67519SOL     OW 4388   4.945   2.541   8.761
67519SOL    HW1 4389   4.999   2.491   8.700
67519SOL    HW2 4390   4.859   2.544   8.719
67520SOL     OW 4391   1.633  10.474   1.759
67520SOL    HW1 4392   1.611  10.483   1.852
67520SOL    HW2 4393   1.563  10.519   1.713
67521SOL     OW 4394  14.223   2.315   5.673
67521SOL    HW1 4395  14.305   2.267   5.659
67521SOL    HW2 4396  14.212   2.317   5.768
67522SOL     OW 4397   7.333  13.891   6.020
67522SOL    HW1 4398   7.341  13.799   6.044
67522SOL    HW2 4399   7.413  13.909   5.970
67523SOL     OW 4400  12.632  11.646   7.912
67523SOL    HW1 4401  12.668  11.575   7.965
67523SOL    HW2 4402  12.690  11.721   7.929
67524SOL     OW 4403   7.812  12.679  12.316
67524SOL    HW1 4404   7.906  12.659  12.321
67524SOL    HW2 4405   7.792  12.677  12.223
67525SOL     OW 4406   8.558   6.443   4.946
67525SOL    HW1 4407   8.636   6.487   4.912
67525SOL    HW2 4408   8.509   6.418   4.868
67526SOL     OW 4409  12.967  12.438   8.781
67526SOL    HW1 4410  12.976  12.451   8.875
67526SOL    HW2 4411  13.045  12.390   8.755
67527SOL     OW 4412   4.725   1.038  10.209
67527SOL    HW1 4413   4.803   1.051  10.154
67527SOL    HW2 4414   4.679   0.965  10.167
67528SOL     OW 4415   4.828   5.877   6.158
67528SOL    HW1 4416   4.817   5.897   6.065
67528SOL    HW2 4417   4.790   5.952   6.203
67529SOL     OW 4418   4.536  14.541   2.825
67529SOL    HW1 4419   4.566  14.541   2.915
67529SOL    HW2 4420   4.470  14.610   2.821
67530SOL     OW 4421   9.442   3.238   4.617
67530SOL    HW1 4422   9.444   3.145   4.639
67530SOL    HW2 4423   9.364   3.249   4.562
67531SOL     OW 4424   3.254  14.012  13.572
67531SOL    HW1 4425   3.229  14.104  13.584
67531SOL    HW2 4426   3.300  14.011  13.488
67532SOL     OW 4427  12.662  13.125   3.123
67532SOL    HW1 4428  12.684  13.143   3.032
67532SOL    HW2 4429  12.668  13.029   3.130
67533SOL     OW 4430   6.307   2.961   6.789
67533SOL    HW1 4431   6.328   2.919   6.706
67533SOL    HW2 4432   6.215   2.985   6.782
67534SOL     OW 4433   3.881  14.642   0.252
67534SOL    HW1 4434   3.911  14.697   0.324
67534SOL    HW2 4435   3.791  14.619   0.275
67535SOL     OW 4436   1.805   0.334   8.459
67535SOL    HW1 4437   1.789   0.355   8.551
67535SOL    HW2 4438   1.721   0.302   8.426
67536SOL     OW 4439  13.959  11.971   9.453
67536SOL    HW1 4440  14.054  11.973   9.444
67536SOL    HW2 4441  13.926  11.993   9.366
67537SOL     OW 4442  12.184   6.326   9.586
67537SOL    HW1 4443  12.260   6.276   9.558
67537SOL    HW2 4444  12.115   6.301   9.524
67538SOL     OW 4445   0.221   9.926  14.370
67538SOL    HW1 4446   0.178   9.841  14.357
67538SOL    HW2 4447   0.149   9.988  14.377
67539SOL     OW 4448  12.161   6.424  14.294
67539SOL    HW1 4449  12.111   6.356  14.340
67539SOL    HW2 4450  12.223   6.457  14.360
67540SOL     OW 4451  13.311   1.539   0.635
67540SOL    HW1 4452  13.288   1.596   0.709
67540SOL    HW2 4453  13.240   1.552   0.572
67541SOL     OW 4454   7.417   3.592   1.505
67541SOL    HW1 4455   7.473   3.656   1.549
67541SOL    HW2 4456   7.338   3.640   1.483
67542SOL     OW 4457  12.644   8.183   3.951
67542SOL    HW1 4458  12.671   8.190   3.860
67542SOL    HW2 4459  12.588   8.106   3.954
67543SOL     OW 4460   3.845   6.950   8.584
67543SOL    HW1 4461   3.907   6.923   8.652
67543SOL    HW2 4462   3.854   7.045   8.579
67544SOL     OW 4463   7.988   4.614  13.767
67544SOL    HW1 4464   8.036   4.535  13.790
67544SOL    HW2 4465   7.897   4.595  13.789
67545SOL     OW 4466  12.411   8.637   9.223
67545SOL    HW1 4467  12.385   8.645   9.131
67545SOL    HW2 4468  12.506   8.636   9.222
67546SOL     OW 4469  10.915   8.112  13.906
67546SOL    HW1 4470  10.931   8.198  13.945
67546SOL    HW2 4471  10.943   8.050  13.973
67547SOL     OW 4472  13.492   2.665  13.596
67547SOL    HW1 4473  13.532   2.649  13.682
67547SOL    HW2 4474  13.461   2.755  13.600
67548SOL     OW 4475   1.761   4.411   2.841
67548SOL    HW1 4476   1.791   4.321   2.855
67548SOL    HW2 4477   1.813   4.443   2.768
67549SOL     OW 4478  12.428  12.362   5.740
67549SOL    HW1 4479  12.513  12.405   5.729
67549SOL    HW2 4480  12.364  12.431   5.720
67550SOL     OW 4481   4.361   6.202  11.400
67550SOL    HW1 4482   4.406   6.144  11.339
67550SOL    HW2 4483   4.346   6.149  11.478
67551SOL     OW 4484   4.381   2.174  12.191
67551SOL    HW1 4485   4.296   2.203  12.157
67551SOL    HW2 4486   4.435   2.161  12.113
67552SOL     OW 4487  11.184   8.262  14.155
67552SOL    HW1 4488  11.216   8.175  14.178
67552SOL    HW2 4489  11.237   8.322  14.208
67553SOL     OW 4490  12.960  12.023   0.579
67553SOL    HW1 4491  13.038  12.051   0.626
67553SOL    HW2 4492  12.888  12.070   0.621
67554SOL     OW 4493   3.654  14.289   8.325
67554SOL    HW1 4494   3.660  14.354   8.396
67554SOL    HW2 4495   3.739  14.294   8.281
67555SOL     OW 4496  13.491   5.747   2.607
67555SOL    HW1 4497  13.443   5.686   2.663
67555SOL    HW2 4498  13.453   5.734   2.520
67556SOL     OW 4499   6.856  13.326   3.043
67556SOL    HW1 4500   6.800  13.380   2.988
67556SOL    HW2 4501   6.939  13.320   2.995
67557SOL     OW 4502   2.823   3.517   3.580
67557SOL    HW1 4503   2.878   3.583   3.622
67557SOL    HW2 4504   2.869   3.494   3.500
67558SOL     OW 4505   4.764  11.767   4.577
67558SOL    HW1 4506   4.700  11.715   4.529
67558SOL    HW2 4507   4.733  11.765   4.668
67559SOL     OW 4508  10.532   8.827   4.364
67559SOL    HW1 4509  10.546   8.792   4.276
67559SOL    HW2 4510  10.568   8.761   4.422
67560SOL     OW 4511   6.618  13.799   8.414
67560SOL    HW1 4512   6.648  13.742   8.485
67560SOL    HW2 4513   6.523  13.805   8.426
67561SOL     OW 4514   0.241   8.904   8.613
67561SOL    HW1 4515   0.207   8.961   8.544
67561SOL    HW2 4516   0.244   8.817   8.573
67562SOL     OW 4517  11.212  11.686   5.639
67562SOL    HW1 4518  11.141  11.663   5.700
67562SOL    HW2 4519  11.255  11.761   5.679
67563SOL     OW 4520   4.953   8.589   1.149
67563SOL    HW1 4521   4.990   8.571   1.236
67563SOL    HW2 4522   5.023   8.565   1.088
67564SOL     OW 4523   2.832  13.150   6.848
67564SOL    HW1 4524   2.789  13.134   6.932
67564SOL    HW2 4525   2.815  13.242   6.829
67565SOL     OW 4526   7.112   9.730   7.365
67565SOL    HW1 4527   7.018   9.713   7.352
67565SOL    HW2 4528   7.155   9.650   7.335
67566SOL     OW 4529   1.907  13.401   3.446
67566SOL    HW1 4530   1.885  13.424   3.537
67566SOL    HW2 4531   2.002  13.410   3.442
67567SOL     OW 4532  10.614   7.269   1.890
67567SOL    HW1 4533  10.670   7.338   1.853
67567SOL    HW2 4534  10.528   7.285   1.851
67568SOL     OW 4535   7.714   3.343   5.892
67568SOL    HW1 4536   7.664   3.416   5.856
67568SOL    HW2 4537   7.751   3.299   5.816
67569SOL     OW 4538  13.263  13.648  13.505
67569SOL    HW1 4539  13.180  13.667  13.549
67569SOL    HW2 4540  13.245  13.665  13.412
67570SOL     OW 4541  11.926   6.044   8.747
67570SOL    HW1 4542  11.868   6.106   8.702
67570SOL    HW2 4543  11.874   5.964   8.755
67571SOL     OW 4544   7.916  12.734  11.300
67571SOL    HW1 4545   7.821  12.722  11.305
67571SOL    HW2 4546   7.946  12.669  11.236
67572SOL     OW 4547  14.411   5.556   8.997
67572SOL    HW1 4548  14.419   5.652   8.999
67572SOL    HW2 4549  14.316   5.541   8.992
67573SOL     OW 4550   9.579   9.943   8.733
67573SOL    HW1 4551   9.631   9.948   8.652
67573SOL    HW2 4552   9.502   9.997   8.715
67574SOL     OW 4553  11.188  14.093   8.600
67574SOL    HW1 4554  11.112  14.128   8.646
67574SOL    HW2 4555  11.175  14.118   8.509
67575SOL     OW 4556   5.951  10.767   4.613
67575SOL    HW1 4557   5.996  10.848   4.590
67575SOL    HW2 4558   5.992  10.738   4.694
67576SOL     OW 4559   3.872   4.264   3.597
67576SOL    HW1 4560   3.894   4.231   3.510
67576SOL    HW2 4561   3.792   4.217   3.621
67577SOL     OW 4562   4.481   4.756   9.810
67577SOL    HW1 4563   4.404   4.776   9.757
67577SOL    HW2 4564   4.555   4.767   9.749
67578SOL     OW 4565   7.195   3.534   7.951
67578SOL    HW1 4566   7.188   3.586   8.031
67578SOL    HW2 4567   7.126   3.569   7.894
67579SOL     OW 4568  13.384  12.403  12.178
67579SOL    HW1 4569  13.398  12.458  12.255
67579SOL    HW2 4570  13.373  12.315  12.213
67580SOL     OW 4571   6.720   8.696   0.525
67580SOL    HW1 4572   6.778   8.650   0.586
67580SOL    HW2 4573   6.775   8.713   0.449
67581SOL     OW 4574   3.169   0.731   3.905
67581SOL    HW1 4575   3.213   0.816   3.899
67581SOL    HW2 4576   3.205   0.691   3.984
67582SOL     OW 4577  13.836  14.619   8.870
67582SOL    HW1 4578  13.778  14.592   8.941
67582SOL    HW2 4579  13.779  14.663   8.807
67583SOL     OW 4580  10.620   1.879   9.264
67583SOL    HW1 4581  10.630   1.808   9.327
67583SOL    HW2 4582  10.700   1.931   9.273
67584SOL     OW 4583   6.979  13.565   5.092
67584SOL    HW1 4584   6.983  13.485   5.143
67584SOL    HW2 4585   7.059  13.563   5.039
67585SOL     OW 4586   7.905  13.306  13.968
67585SOL    HW1 4587   7.814  13.311  13.939
67585SOL    HW2 4588   7.920  13.213  13.984
67586SOL     OW 4589   9.925   6.128   8.805
67586SOL    HW1 4590   9.966   6.108   8.721
67586SOL    HW2 4591   9.843   6.077   8.804
67587SOL     OW 4592   1.276  14.275  11.148
67587SOL    HW1 4593   1.217  14.251  11.077
67587SOL    HW2 4594   1.361  14.284  11.106
67588SOL     OW 4595   8.216   2.784   6.496
67588SOL    HW1 4596   8.260   2.807   6.415
67588SOL    HW2 4597   8.149   2.720   6.470
67589SOL     OW 4598  12.132   9.208   6.313
67589SOL    HW1 4599  12.059   9.241   6.365
67589SOL    HW2 4600  12.201   9.190   6.377
67590SOL     OW 4601  14.860   8.487  14.769
67590SOL    HW1 4602  14.765   8.490  14.771
67590SOL    HW2 4603   0.011   8.578  14.783
67591SOL     OW 4604   5.313  12.436   4.148
67591SOL    HW1 4605   5.343  12.347   4.164
67591SOL    HW2 4606   5.323  12.480   4.233
67592SOL     OW 4607  14.708   6.578   8.983
67592SOL    HW1 4608  14.793   6.577   8.938
67592SOL    HW2 4609  14.725   6.627   9.064
67593SOL     OW 4610  14.722   4.568   5.794
67593SOL    HW1 4611  14.756   4.505   5.730
67593SOL    HW2 4612  14.776   4.555   5.872
67594SOL     OW 4613   3.887  14.273   8.724
67594SOL    HW1 4614   3.889  14.349   8.782
67594SOL    HW2 4615   3.813  14.220   8.756
67595SOL     OW 4616   8.823   0.096   1.413
67595SOL    HW1 4617   8.896   0.089   1.352
67595SOL    HW2 4618   8.746   0.078   1.359
67596SOL     OW 4619  14.238  11.353   2.176
67596SOL    HW1 4620  14.327  11.321   2.190
67596SOL    HW2 4621  14.230  11.429   2.234
67597SOL     OW 4622   6.714   7.736  12.243
67597SOL    HW1 4623   6.640   7.751  12.303
67597SOL    HW2 4624   6.675   7.740  12.156
67598SOL     OW 4625   4.183   5.047  11.025
67598SOL    HW1 4626   4.237   4.968  11.036
67598SOL    HW2 4627   4.246   5.115  11.000
67599SOL     OW 4628   3.016   1.127   2.274
67599SOL    HW1 4629   3.052   1.107   2.188
67599SOL    HW2 4630   3.079   1.188   2.313
67600SOL     OW 4631  12.439  11.826   9.272
67600SOL    HW1 4632  12.460  11.919   9.285
67600SOL    HW2 4633  12.373  11.807   9.339
67601SOL     OW 4634   0.056   1.487  12.844
67601SOL    HW1 4635   0.120   1.513  12.909
67601SOL    HW2 4636   0.029   1.570  12.803
67602SOL     OW 4637  12.982  12.796   0.168
67602SOL    HW1 4638  12.996  12.787   0.262
67602SOL    HW2 4639  12.941  12.714   0.142
67603SOL     OW 4640   5.785  11.459   4.793
67603SOL    HW1 4641   5.766  11.485   4.883
67603SOL    HW2 4642   5.752  11.369   4.787
67604SOL     OW 4643   3.975  13.853   5.669
67604SOL    HW1 4644   3.983  13.784   5.603
67604SOL    HW2 4645   3.914  13.816   5.734
67605SOL     OW 4646   5.209   4.013  10.732
67605SOL    HW1 4647   5.209   3.985  10.640
67605SOL    HW2 4648   5.146   3.956  10.775
67606SOL     OW 4649   4.507   4.740  11.471
67606SOL    HW1 4650   4.482   4.706  11.556
67606SOL    HW2 4651   4.561   4.672  11.432
67607SOL     OW 4652   4.555  10.896   8.632
67607SOL    HW1 4653   4.460  10.896   8.635
67607SOL    HW2 4654   4.578  10.811   8.593
67608SOL     OW 4655   4.923   1.701   9.158
67608SOL    HW1 4656   4.928   1.792   9.128
67608SOL    HW2 4657   4.873   1.656   9.090
67609SOL     OW 4658  13.958   6.222   3.226
67609SOL    HW1 4659  13.921   6.287   3.285
67609SOL    HW2 4660  14.047   6.252   3.209
67610SOL     OW 4661   5.144  13.055   7.786
67610SOL    HW1 4662   5.239  13.054   7.801
67610SOL    HW2 4663   5.136  13.065   7.691
67611SOL     OW 4664   0.275  12.391   4.213
67611SOL    HW1 4665   0.289  12.299   4.192
67611SOL    HW2 4666   0.320  12.439   4.144
67612SOL     OW 4667   8.964   6.488   8.464
67612SOL    HW1 4668   8.908   6.431   8.410
67612SOL    HW2 4669   8.903   6.548   8.507
67613SOL     OW 4670   6.005   1.117   8.910
67613SOL    HW1 4671   5.953   1.060   8.853
67613SOL    HW2 4672   6.063   1.164   8.850
67614SOL     OW 4673   5.272   5.436  14.021
67614SOL    HW1 4674   5.276   5.405  13.931
67614SOL    HW2 4675   5.364   5.449  14.046
67615SOL     OW 4676  10.412   2.959  10.432
67615SOL    HW1 4677  10.330   2.980  10.477
67615SOL    HW2 4678  10.480   2.984  10.495
67616SOL     OW 4679   4.727  10.722   4.675
67616SOL    HW1 4680   4.813  10.681   4.678
67616SOL    HW2 4681   4.740  10.805   4.629
67617SOL     OW 4682   0.777   8.856  13.873
67617SOL    HW1 4683   0.748   8.776  13.830
67617SOL    HW2 4684   0.820   8.907  13.804
67618SOL     OW 4685   1.330   8.884  13.059
67618SOL    HW1 4686   1.317   8.965  13.109
67618SOL    HW2 4687   1.403   8.840  13.104
67619SOL     OW 4688   9.550  14.466  10.104
67619SOL    HW1 4689   9.525  14.385  10.059
67619SOL    HW2 4690   9.645  14.469  10.095
67620SOL     OW 4691   8.187   7.993  12.438
67620SOL    HW1 4692   8.110   7.978  12.492
67620SOL    HW2 4693   8.220   7.906  12.417
67621SOL     OW 4694   8.336  13.363  13.048
67621SOL    HW1 4695   8.374  13.328  13.129
67621SOL    HW2 4696   8.393  13.329  12.978
67622SOL     OW 4697   0.410   0.733   8.406
67622SOL    HW1 4698   0.332   0.786   8.420
67622SOL    HW2 4699   0.460   0.780   8.340
67623SOL     OW 4700  10.638   8.577   4.086
67623SOL    HW1 4701  10.549   8.543   4.096
67623SOL    HW2 4702  10.626   8.672   4.075
67624SOL     OW 4703  13.297   2.375   4.217
67624SOL    HW1 4704  13.356   2.415   4.153
67624SOL    HW2 4705  13.309   2.281   4.206
67625SOL     OW 4706  11.733   3.790  11.781
67625SOL    HW1 4707  11.670   3.846  11.826
67625SOL    HW2 4708  11.747   3.717  11.842
67626SOL     OW 4709   5.109   2.407  13.943
67626SOL    HW1 4710   5.016   2.412  13.965
67626SOL    HW2 4711   5.135   2.319  13.970
67627SOL     OW 4712  12.684  11.584   6.758
67627SOL    HW1 4713  12.615  11.519   6.773
67627SOL    HW2 4714  12.638  11.668   6.756
67628SOL     OW 4715   3.850   8.586   2.230
67628SOL    HW1 4716   3.877   8.676   2.210
67628SOL    HW2 4717   3.787   8.564   2.162
67629SOL     OW 4718  11.133   2.830  14.729
67629SOL    HW1 4719  11.158   2.842  14.820
67629SOL    HW2 4720  11.153   2.738  14.710
67630SOL     OW 4721   9.401   4.674   1.634
67630SOL    HW1 4722   9.476   4.719   1.596
67630SOL    HW2 4723   9.391   4.713   1.721
67631SOL     OW 4724  11.100   4.608  13.726
67631SOL    HW1 4725  11.097   4.700  13.753
67631SOL    HW2 4726  11.033   4.565  13.779
67632SOL     OW 4727  14.705   8.878   5.255
67632SOL    HW1 4728  14.745   8.948   5.203
67632SOL    HW2 4729  14.768   8.860   5.324
67633SOL     OW 4730  13.614   2.303  13.762
67633SOL    HW1 4731  13.545   2.362  13.794
67633SOL    HW2 4732  13.595   2.293  13.668
67634SOL     OW 4733  10.196  12.097  12.125
67634SOL    HW1 4734  10.151  12.025  12.169
67634SOL    HW2 4735  10.228  12.060  12.043
67635SOL     OW 4736  11.330   0.366  12.615
67635SOL    HW1 4737  11.291   0.331  12.696
67635SOL    HW2 4738  11.399   0.303  12.593
67636SOL     OW 4739   4.599  13.031  10.619
67636SOL    HW1 4740   4.648  13.005  10.541
67636SOL    HW2 4741   4.594  12.951  10.671
67637SOL     OW 4742   3.500   8.808   1.618
67637SOL    HW1 4743   3.446   8.884   1.598
67637SOL    HW2 4744   3.579   8.845   1.658
67638SOL     OW 4745   1.501   2.537   3.068
67638SOL    HW1 4746   1.489   2.606   3.133
67638SOL    HW2 4747   1.536   2.463   3.117
67639SOL     OW 4748  11.067   5.992   9.391
67639SOL    HW1 4749  11.063   5.926   9.459
67639SOL    HW2 4750  11.075   6.075   9.438
67640SOL     OW 4751   3.037   5.343   2.413
67640SOL    HW1 4752   3.068   5.273   2.356
67640SOL    HW2 4753   3.116   5.390   2.439
67641SOL     OW 4754   2.063  14.115  12.075
67641SOL    HW1 4755   2.149  14.084  12.101
67641SOL    HW2 4756   2.067  14.210  12.083
67642SOL     OW 4757  11.523  13.453   2.059
67642SOL    HW1 4758  11.502  13.394   1.987
67642SOL    HW2 4759  11.592  13.509   2.025
67643SOL     OW 4760   1.043   2.422   9.497
67643SOL    HW1 4761   0.982   2.446   9.427
67643SOL    HW2 4762   0.986   2.396   9.570
67644SOL     OW 4763  12.253   0.494   2.896
67644SOL    HW1 4764  12.225   0.475   2.986
67644SOL    HW2 4765  12.207   0.576   2.875
67645SOL     OW 4766   3.756   6.702   5.384
67645SOL    HW1 4767   3.753   6.612   5.351
67645SOL    HW2 4768   3.845   6.732   5.365
67646SOL     OW 4769  12.111  10.096  14.125
67646SOL    HW1 4770  12.174  10.100  14.197
67646SOL    HW2 4771  12.120  10.180  14.080
67647SOL     OW 4772   4.289  12.346  14.201
67647SOL    HW1 4773   4.325  12.266  14.164
67647SOL    HW2 4774   4.300  12.411  14.132
67648SOL     OW 4775   4.969   4.293   0.872
67648SOL    HW1 4776   4.911   4.296   0.795
67648SOL    HW2 4777   4.932   4.224   0.927
67649SOL     OW 4778   7.837   6.086   5.878
67649SOL    HW1 4779   7.900   6.146   5.840
67649SOL    HW2 4780   7.792   6.047   5.803
67650SOL     OW 4781   0.448  11.621   4.681
67650SOL    HW1 4782   0.523  11.637   4.739
67650SOL    HW2 4783   0.391  11.697   4.694
67651SOL     OW 4784  13.891  10.354   2.678
67651SOL    HW1 4785  13.931  10.298   2.612
67651SOL    HW2 4786  13.831  10.410   2.629
67652SOL     OW 4787  11.467   5.710  11.073
67652SOL    HW1 4788  11.493   5.636  11.017
67652SOL    HW2 4789  11.501   5.787  11.027
67653SOL     OW 4790   1.816  10.524  12.139
67653SOL    HW1 4791   1.835  10.609  12.099
67653SOL    HW2 4792   1.727  10.533  12.172
67654SOL     OW 4793  14.721   3.552   6.658
67654SOL    HW1 4794  14.772   3.618   6.611
67654SOL    HW2 4795  14.717   3.478   6.598
67655SOL     OW 4796   0.554   2.535   2.383
67655SOL    HW1 4797   0.464   2.503   2.384
67655SOL    HW2 4798   0.572   2.558   2.474
67656SOL     OW 4799   9.340   5.338   3.004
67656SOL    HW1 4800   9.254   5.297   3.009
67656SOL    HW2 4801   9.394   5.276   2.956
67657SOL     OW 4802   7.665   0.068  11.800
67657SOL    HW1 4803   7.744   0.120  11.812
67657SOL    HW2 4804   7.697  14.856  11.780
67658SOL     OW 4805  10.776   2.699  11.210
67658SOL    HW1 4806  10.736   2.784  11.190
67658SOL    HW2 4807  10.813   2.710  11.297
67659SOL     OW 4808   0.918   5.757   1.521
67659SOL    HW1 4809   0.886   5.811   1.449
67659SOL    HW2 4810   0.862   5.680   1.520
67660SOL     OW 4811   9.656  14.593   3.989
67660SOL    HW1 4812   9.733  14.635   3.949
67660SOL    HW2 4813   9.630  14.654   4.059
67661SOL     OW 4814  10.854   5.915   0.832
67661SOL    HW1 4815  10.761   5.911   0.855
67661SOL    HW2 4816  10.886   5.826   0.847
67662SOL     OW 4817   8.427   2.935   5.910
67662SOL    HW1 4818   8.471   2.851   5.921
67662SOL    HW2 4819   8.443   2.960   5.819
67663SOL     OW 4820   4.766   3.372   6.450
67663SOL    HW1 4821   4.858   3.383   6.477
67663SOL    HW2 4822   4.765   3.400   6.359
67664SOL     OW 4823   6.710   5.211   5.285
67664SOL    HW1 4824   6.617   5.230   5.272
67664SOL    HW2 4825   6.720   5.208   5.380
67665SOL     OW 4826   7.000   2.345   4.285
67665SOL    HW1 4827   7.016   2.323   4.377
67665SOL    HW2 4828   7.071   2.404   4.261
67666SOL     OW 4829   5.867   6.183   4.111
67666SOL    HW1 4830   5.908   6.096   4.109
67666SOL    HW2 4831   5.819   6.185   4.194
67667SOL     OW 4832   1.144   9.499   4.294
67667SOL    HW1 4833   1.145   9.592   4.269
67667SOL    HW2 4834   1.087   9.496   4.371
67668SOL     OW 4835   7.292  10.404  11.562
67668SOL    HW1 4836   7.334  10.363  11.487
67668SOL    HW2 4837   7.329  10.359  11.638
67669SOL     OW 4838   2.226  10.547   7.697
67669SOL    HW1 4839   2.282  10.618   7.728
67669SOL    HW2 4840   2.226  10.482   7.768
67670SOL     OW 4841   7.619  10.073   6.560
67670SOL    HW1 4842   7.581  10.150   6.516
67670SOL    HW2 4843   7.668  10.109   6.634
67671SOL     OW 4844  13.405   6.732  10.310
67671SOL    HW1 4845  13.471   6.759  10.247
67671SOL    HW2 4846  13.335   6.797  10.302
67672SOL     OW 4847  14.435   9.197   7.473
67672SOL    HW1 4848  14.353   9.244   7.485
67672SOL    HW2 4849  14.409   9.106   7.455
67673SOL     OW 4850   0.129  10.237   3.213
67673SOL    HW1 4851   0.123  10.217   3.306
67673SOL    HW2 4852   0.052  10.289   3.194
67674SOL     OW 4853  12.608   0.981   8.396
67674SOL    HW1 4854  12.619   0.963   8.489
67674SOL    HW2 4855  12.565   0.903   8.361
67675SOL     OW 4856   6.024  13.956   1.322
67675SOL    HW1 4857   6.092  13.907   1.276
67675SOL    HW2 4858   5.989  13.893   1.386
67676SOL     OW 4859  14.362   2.946  10.912
67676SOL    HW1 4860  14.367   2.891  10.990
67676SOL    HW2 4861  14.298   2.903  10.856
67677SOL     OW 4862   9.162   5.387   9.839
67677SOL    HW1 4863   9.224   5.332   9.886
67677SOL    HW2 4864   9.197   5.392   9.750
67678SOL     OW 4865   5.919   9.969   9.109
67678SOL    HW1 4866   5.825   9.948   9.115
67678SOL    HW2 4867   5.959   9.890   9.072
67679SOL     OW 4868   3.132  12.714  13.458
67679SOL    HW1 4869   3.153  12.798  13.415
67679SOL    HW2 4870   3.193  12.652  13.418
67680SOL     OW 4871   3.936  12.510   8.036
67680SOL    HW1 4872   3.847  12.512   8.001
67680SOL    HW2 4873   3.926  12.482   8.127
67681SOL     OW 4874   0.681   8.730   6.244
67681SOL    HW1 4875   0.717   8.795   6.303
67681SOL    HW2 4876   0.610   8.689   6.294
67682SOL     OW 4877  12.280  12.700  14.824
67682SOL    HW1 4878  12.243  12.699   0.036
67682SOL    HW2 4879  12.297  12.608  14.804
67683SOL     OW 4880  14.794   1.976  11.345
67683SOL    HW1 4881  14.812   2.007  11.434
67683SOL    HW2 4882  14.774   1.883  11.356
67684SOL     OW 4883   4.148   6.327   7.533
67684SOL    HW1 4884   4.197   6.246   7.518
67684SOL    HW2 4885   4.215   6.394   7.549
67685SOL     OW 4886  12.156  10.541   1.428
67685SOL    HW1 4887  12.083  10.480   1.413
67685SOL    HW2 4888  12.184  10.567   1.340
67686SOL     OW 4889   3.263   9.355   8.664
67686SOL    HW1 4890   3.220   9.272   8.686
67686SOL    HW2 4891   3.355   9.340   8.684
67687SOL     OW 4892   9.935  10.617   5.209
67687SOL    HW1 4893   9.859  10.643   5.157
67687SOL    HW2 4894   9.993  10.694   5.207
67688SOL     OW 4895  12.247  10.301   3.977
67688SOL    HW1 4896  12.339  10.290   3.951
67688SOL    HW2 4897  12.242  10.392   4.006
67689SOL     OW 4898  10.316   2.010  10.483
67689SOL    HW1 4899  10.373   2.082  10.507
67689SOL    HW2 4900  10.227   2.043  10.500
67690SOL     OW 4901   9.424  13.399  12.676
67690SOL    HW1 4902   9.340  13.365  12.709
67690SOL    HW2 4903   9.465  13.324  12.633
67691SOL     OW 4904   5.561   0.642   0.898
67691SOL    HW1 4905   5.512   0.664   0.819
67691SOL    HW2 4906   5.498   0.595   0.953
67692SOL     OW 4907   9.603   3.789   4.975
67692SOL    HW1 4908   9.584   3.811   4.884
67692SOL    HW2 4909   9.644   3.869   5.011
67693SOL     OW 4910   1.672   5.116  14.261
67693SOL    HW1 4911   1.734   5.070  14.318
67693SOL    HW2 4912   1.608   5.050  14.236
67694SOL     OW 4913  10.362  11.018   0.850
67694SOL    HW1 4914  10.374  11.113   0.844
67694SOL    HW2 4915  10.407  10.993   0.930
67695SOL     OW 4916   2.621   0.438   5.160
67695SOL    HW1 4917   2.630   0.475   5.072
67695SOL    HW2 4918   2.701   0.464   5.206
67696SOL     OW 4919  11.366   1.377   6.024
67696SOL    HW1 4920  11.346   1.425   6.105
67696SOL    HW2 4921  11.399   1.444   5.964
67697SOL     OW 4922   7.894  14.477   2.276
67697SOL    HW1 4923   7.827  14.457   2.211
67697SOL    HW2 4924   7.894  14.400   2.334
67698SOL     OW 4925   0.818   8.526   9.318
67698SOL    HW1 4926   0.817   8.439   9.358
67698SOL    HW2 4927   0.910   8.540   9.293
67699SOL     OW 4928  11.032   1.392   2.444
67699SOL    HW1 4929  11.034   1.351   2.530
67699SOL    HW2 4930  11.087   1.336   2.389
67700SOL     OW 4931   3.917  13.349  11.424
67700SOL    HW1 4932   3.921  13.407  11.500
67700SOL    HW2 4933   3.945  13.264  11.458
67701SOL     OW 4934  12.825   5.997  13.818
67701SOL    HW1 4935  12.767   5.923  13.837
67701SOL    HW2 4936  12.912   5.958  13.813
67702SOL     OW 4937   3.562   1.666   6.468
67702SOL    HW1 4938   3.641   1.632   6.426
67702SOL    HW2 4939   3.520   1.589   6.506
67703SOL     OW 4940  14.480   1.019  13.300
67703SOL    HW1 4941  14.389   1.046  13.294
67703SOL    HW2 4942  14.502   1.029  13.392
67704SOL     OW 4943   4.630   5.365   9.648
67704SOL    HW1 4944   4.564   5.367   9.579
67704SOL    HW2 4945   4.622   5.450   9.691
67705SOL     OW 4946  10.214   7.189   9.459
67705SOL    HW1 4947  10.220   7.284   9.444
67705SOL    HW2 4948  10.292   7.168   9.511
67706SOL     OW 4949   3.511   3.674  12.700
67706SOL    HW1 4950   3.604   3.687  12.686
67706SOL    HW2 4951   3.498   3.579  12.697
67707SOL     OW 4952   3.266  13.850   5.950
67707SOL    HW1 4953   3.221  13.934   5.952
67707SOL    HW2 4954   3.288  13.832   6.041
67708SOL     OW 4955  10.004   8.708   9.952
67708SOL    HW1 4956  10.001   8.745   9.864
67708SOL    HW2 4957  10.042   8.621   9.940
67709SOL     OW 4958  14.547   7.496   0.667
67709SOL    HW1 4959  14.472   7.541   0.627
67709SOL    HW2 4960  14.519   7.405   0.676
67710SOL     OW 4961   2.871   9.891   3.178
67710SOL    HW1 4962   2.949   9.853   3.219
67710SOL    HW2 4963   2.861   9.976   3.221
67711SOL     OW 4964   7.935  13.048   3.055
67711SOL    HW1 4965   7.901  13.132   3.026
67711SOL    HW2 4966   7.862  13.007   3.102
67712SOL     OW 4967  10.110  13.724   8.029
67712SOL    HW1 4968  10.169  13.668   7.980
67712SOL    HW2 4969  10.116  13.692   8.120
67713SOL     OW 4970   3.845  10.106   0.296
67713SOL    HW1 4971   3.861  10.157   0.217
67713SOL    HW2 4972   3.921  10.123   0.352
67714SOL     OW 4973   3.492  11.028  14.151
67714SOL    HW1 4974   3.495  11.000  14.243
67714SOL    HW2 4975   3.511  11.122  14.155
67715SOL     OW 4976   1.850   0.999   7.978
67715SOL    HW1 4977   1.897   1.023   8.058
67715SOL    HW2 4978   1.919   0.976   7.916
67716SOL     OW 4979   1.138   3.549   0.111
67716SOL    HW1 4980   1.168   3.636   0.084
67716SOL    HW2 4981   1.198   3.524   0.181
67717SOL     OW 4982   7.458   6.364   1.307
67717SOL    HW1 4983   7.474   6.269   1.314
67717SOL    HW2 4984   7.492   6.400   1.389
67718SOL     OW 4985   2.405   2.621   9.345
67718SOL    HW1 4986   2.442   2.707   9.366
67718SOL    HW2 4987   2.433   2.604   9.255
67719SOL     OW 4988  13.274   9.999   5.857
67719SOL    HW1 4989  13.207   9.931   5.856
67719SOL    HW2 4990  13.240  10.068   5.800
67720SOL     OW 4991   2.314   7.618  10.206
67720SOL    HW1 4992   2.407   7.597  10.194
67720SOL    HW2 4993   2.293   7.586  10.293
67721SOL     OW 4994  12.715  14.053   2.677
67721SOL    HW1 4995  12.659  14.035   2.753
67721SOL    HW2 4996  12.678  14.133   2.639
67722SOL     OW 4997   3.981  12.783   3.958
67722SOL    HW1 4998   3.936  12.817   4.035
67722SOL    HW2 4999   3.917  12.723   3.918
67723SOL     OW 5000  12.635   8.375   1.120
67723SOL    HW1 5001  12.677   8.355   1.037
67723SOL    HW2 5002  12.607   8.290   1.154
67724SOL     OW 5003  13.414   9.637   8.146
67724SOL    HW1 5004  13.505   9.616   8.123
67724SOL    HW2 5005  13.404   9.729   8.120
67725SOL     OW 5006   2.444  13.841   5.121
67725SOL    HW1 5007   2.440  13.834   5.026
67725SOL    HW2 5008   2.356  13.868   5.147
67726SOL     OW 5009   1.347  11.869  13.069
67726SOL    HW1 5010   1.282  11.799  13.067
67726SOL    HW2 5011   1.401  11.849  13.146
67727SOL     OW 5012   9.356   9.279  14.303
67727SOL    HW1 5013   9.365   9.307  14.395
67727SOL    HW2 5014   9.420   9.208  14.294
67728SOL     OW 5015   0.106   0.214  13.965
67728SOL    HW1 5016   0.026   0.173  13.933
67728SOL    HW2 5017   0.103   0.202  14.060
67729SOL     OW 5018  12.911  10.878  11.226
67729SOL    HW1 5019  12.986  10.927  11.259
67729SOL    HW2 5020  12.843  10.945  11.215
67730SOL     OW 5021   0.017   4.279  14.564
67730SOL    HW1 5022   0.078   4.320  14.624
67730SOL    HW2 5023   0.072   4.248  14.491
67731SOL     OW 5024   8.974  11.893   8.962
67731SOL    HW1 5025   8.944  11.834   8.892
67731SOL    HW2 5026   9.069  11.896   8.952
67732SOL     OW 5027   8.414   6.049  10.052
67732SOL    HW1 5028   8.343   6.025  10.112
67732SOL    HW2 5029   8.380   6.124  10.004
67733SOL     OW 5030   2.541   2.857  10.402
67733SOL    HW1 5031   2.610   2.827  10.462
67733SOL    HW2 5032   2.551   2.801  10.324
67734SOL     OW 5033  12.734   7.814   1.604
67734SOL    HW1 5034  12.675   7.812   1.529
67734SOL    HW2 5035  12.789   7.891   1.590
67735SOL     OW 5036  11.173  10.354  12.550
67735SOL    HW1 5037  11.147  10.290  12.616
67735SOL    HW2 5038  11.248  10.399  12.588
67736SOL     OW 5039   6.227  13.227  10.964
67736SOL    HW1 5040   6.279  13.148  10.949
67736SOL    HW2 5041   6.141  13.207  10.928
67737SOL     OW 5042   8.820   1.339   5.176
67737SOL    HW1 5043   8.903   1.354   5.131
67737SOL    HW2 5044   8.845   1.303   5.261
67738SOL     OW 5045   3.334   2.188   1.419
67738SOL    HW1 5046   3.295   2.270   1.451
67738SOL    HW2 5047   3.384   2.214   1.342
67739SOL     OW 5048  12.262   0.585   5.286
67739SOL    HW1 5049  12.213   0.664   5.307
67739SOL    HW2 5050  12.207   0.539   5.222
67740SOL     OW 5051   0.920  14.851  10.017
67740SOL    HW1 5052   0.917  14.844   9.921
67740SOL    HW2 5053   0.967   0.057  10.033
67741SOL     OW 5054   3.765   0.878   6.070
67741SOL    HW1 5055   3.690   0.830   6.034
67741SOL    HW2 5056   3.841   0.835   6.031
67742SOL     OW 5057  12.410  13.037   9.153
67742SOL    HW1 5058  12.460  12.964   9.117
67742SOL    HW2 5059  12.374  13.081   9.075
67743SOL     OW 5060  14.669   7.191   6.201
67743SOL    HW1 5061  14.589   7.226   6.161
67743SOL    HW2 5062  14.731   7.183   6.128
67744SOL     OW 5063   6.624   4.262   2.671
67744SOL    HW1 5064   6.589   4.306   2.748
67744SOL    HW2 5065   6.576   4.179   2.666
67745SOL     OW 5066   2.925   0.353  13.671
67745SOL    HW1 5067   2.877   0.270  13.675
67745SOL    HW2 5068   3.017   0.328  13.669
67746SOL     OW 5069   7.817   3.464   5.445
67746SOL    HW1 5070   7.840   3.553   5.474
67746SOL    HW2 5071   7.901   3.425   5.421
67747SOL     OW 5072   4.766   6.298   1.105
67747SOL    HW1 5073   4.860   6.302   1.122
67747SOL    HW2 5074   4.756   6.334   1.017
67748SOL     OW 5075  10.327  10.416   3.807
67748SOL    HW1 5076  10.401  10.401   3.865
67748SOL    HW2 5077  10.336  10.507   3.780
67749SOL     OW 5078  14.286   0.850   0.256
67749SOL    HW1 5079  14.238   0.874   0.176
67749SOL    HW2 5080  14.218   0.826   0.319
67750SOL     OW 5081   5.893   9.876   1.158
67750SOL    HW1 5082   5.915   9.963   1.125
67750SOL    HW2 5083   5.975   9.826   1.153
67751SOL     OW 5084   7.113   7.390  10.535
67751SOL    HW1 5085   7.019   7.386  10.517
67751SOL    HW2 5086   7.132   7.483  10.544
67752SOL     OW 5087   4.795  12.342   5.796
67752SOL    HW1 5088   4.882  12.376   5.815
67752SOL    HW2 5089   4.741  12.372   5.869
67753SOL     OW 5090  13.839  12.160  14.560
67753SOL    HW1 5091  13.882  12.216  14.495
67753SOL    HW2 5092  13.855  12.204  14.643
67754SOL     OW 5093   2.532   7.201  13.017
67754SOL    HW1 5094   2.479   7.120  13.015
67754SOL    HW2 5095   2.515   7.238  13.104
67755SOL     OW 5096  13.687  13.054   4.040
67755SOL    HW1 5097  13.726  13.142   4.043
67755SOL    HW2 5098  13.716  13.018   3.956
67756SOL     OW 5099  14.829   9.737  12.175
67756SOL    HW1 5100   0.013   9.806  12.203
67756SOL    HW2 5101   0.002   9.655  12.188
67757SOL     OW 5102  11.646  11.342   8.109
67757SOL    HW1 5103  11.634  11.382   8.195
67757SOL    HW2 5104  11.741  11.340   8.097
67758SOL     OW 5105   1.043   7.170   5.004
67758SOL    HW1 5106   1.069   7.240   4.943
67758SOL    HW2 5107   1.125   7.125   5.025
67759SOL     OW 5108   8.644   2.325   5.475
67759SOL    HW1 5109   8.629   2.287   5.389
67759SOL    HW2 5110   8.725   2.376   5.466
67760SOL     OW 5111   2.000  13.516   6.474
67760SOL    HW1 5112   2.093  13.509   6.454
67760SOL    HW2 5113   1.978  13.432   6.516
67761SOL     OW 5114  14.394  13.608  13.917
67761SOL    HW1 5115  14.298  13.604  13.908
67761SOL    HW2 5116  14.418  13.521  13.950
67762SOL     OW 5117   2.092   0.285   2.411
67762SOL    HW1 5118   2.004   0.285   2.372
67762SOL    HW2 5119   2.124   0.196   2.397
67763SOL     OW 5120  10.299   0.427   2.374
67763SOL    HW1 5121  10.242   0.350   2.376
67763SOL    HW2 5122  10.378   0.400   2.421
67764SOL     OW 5123   8.563   7.566  14.504
67764SOL    HW1 5124   8.582   7.611  14.585
67764SOL    HW2 5125   8.470   7.583  14.488
67765SOL     OW 5126   6.237  11.707  12.252
67765SOL    HW1 5127   6.173  11.656  12.202
67765SOL    HW2 5128   6.314  11.651  12.255
67766SOL     OW 5129  13.218  11.054   6.757
67766SOL    HW1 5130  13.231  11.042   6.663
67766SOL    HW2 5131  13.305  11.071   6.792
67767SOL     OW 5132   2.141   5.752   9.545
67767SOL    HW1 5133   2.224   5.716   9.576
67767SOL    HW2 5134   2.151   5.754   9.449
67768SOL     OW 5135  10.650   4.649   4.820
67768SOL    HW1 5136  10.570   4.625   4.868
67768SOL    HW2 5137  10.712   4.579   4.839
67769SOL     OW 5138   0.119   3.299   3.613
67769SOL    HW1 5139   0.200   3.253   3.591
67769SOL    HW2 5140   0.147   3.389   3.633
67770SOL     OW 5141  12.319   4.743   7.553
67770SOL    HW1 5142  12.322   4.719   7.461
67770SOL    HW2 5143  12.337   4.662   7.600
67771SOL     OW 5144   8.199  11.448   7.863
67771SOL    HW1 5145   8.275  11.475   7.915
67771SOL    HW2 5146   8.138  11.521   7.871
67772SOL     OW 5147  11.500   4.843   0.512
67772SOL    HW1 5148  11.529   4.819   0.600
67772SOL    HW2 5149  11.407   4.822   0.511
67773SOL     OW 5150   8.140  12.651  13.106
67773SOL    HW1 5151   8.205  12.657  13.036
67773SOL    HW2 5152   8.109  12.741  13.117
67774SOL     OW 5153   1.335   2.377  11.602
67774SOL    HW1 5154   1.375   2.454  11.642
67774SOL    HW2 5155   1.267   2.350  11.663
67775SOL     OW 5156   8.349  14.529  12.232
67775SOL    HW1 5157   8.277  14.517  12.169
67775SOL    HW2 5158   8.385  14.615  12.210
67776SOL     OW 5159   1.515   2.869  13.136
67776SOL    HW1 5160   1.606   2.841  13.135
67776SOL    HW2 5161   1.499   2.895  13.226
67777SOL     OW 5162  11.435  10.077  12.766
67777SOL    HW1 5163  11.426  10.132  12.844
67777SOL    HW2 5164  11.346  10.064  12.735
67778SOL     OW 5165   7.917  14.078   9.331
67778SOL    HW1 5166   7.941  14.170   9.327
67778SOL    HW2 5167   7.823  14.078   9.347
67779SOL     OW 5168  10.571   8.172  12.871
67779SOL    HW1 5169  10.579   8.120  12.792
67779SOL    HW2 5170  10.650   8.152  12.922
67780SOL     OW 5171   1.198   0.499   8.257
67780SOL    HW1 5172   1.266   0.557   8.223
67780SOL    HW2 5173   1.176   0.441   8.184
67781SOL     OW 5174   9.011   5.182  13.311
67781SOL    HW1 5175   8.999   5.090  13.333
67781SOL    HW2 5176   9.070   5.181  13.236
67782SOL     OW 5177   4.169   4.932   4.534
67782SOL    HW1 5178   4.260   4.936   4.563
67782SOL    HW2 5179   4.171   4.875   4.457
67783SOL     OW 5180   9.016  10.460  13.359
67783SOL    HW1 5181   8.973  10.378  13.381
67783SOL    HW2 5182   8.996  10.474  13.266
67784SOL     OW 5183   9.679  13.817  14.776
67784SOL    HW1 5184   9.621  13.827  14.851
67784SOL    HW2 5185   9.674  13.901  14.730
67785SOL     OW 5186   4.728   4.335   0.679
67785SOL    HW1 5187   4.747   4.268   0.612
67785SOL    HW2 5188   4.650   4.380   0.645
67786SOL     OW 5189   0.195  11.612   5.051
67786SOL    HW1 5190   0.186  11.530   5.100
67786SOL    HW2 5191   0.108  11.653   5.058
67787SOL     OW 5192  10.970   1.103  12.300
67787SOL    HW1 5193  11.016   1.082  12.382
67787SOL    HW2 5194  10.946   1.195  12.310
67788SOL     OW 5195   9.234  10.296   1.793
67788SOL    HW1 5196   9.306  10.337   1.841
67788SOL    HW2 5197   9.256  10.203   1.791
67789SOL     OW 5198   6.238  10.828   7.494
67789SOL    HW1 5199   6.144  10.810   7.487
67789SOL    HW2 5200   6.266  10.782   7.573
67790SOL     OW 5201  12.592  12.042   0.617
67790SOL    HW1 5202  12.527  12.057   0.549
67790SOL    HW2 5203  12.629  12.129   0.635
67791SOL     OW 5204  11.703   4.505  12.410
67791SOL    HW1 5205  11.778   4.471  12.460
67791SOL    HW2 5206  11.676   4.431  12.356
67792SOL     OW 5207   2.791   9.522   8.161
67792SOL    HW1 5208   2.764   9.591   8.100
67792SOL    HW2 5209   2.713   9.503   8.212
67793SOL     OW 5210   8.593  12.095   6.358
67793SOL    HW1 5211   8.611  12.132   6.271
67793SOL    HW2 5212   8.500  12.113   6.373
67794SOL     OW 5213   6.941   2.672  12.816
67794SOL    HW1 5214   6.867   2.664  12.877
67794SOL    HW2 5215   7.018   2.674  12.872
67795SOL     OW 5216   4.739  12.206  10.898
67795SOL    HW1 5217   4.798  12.131  10.902
67795SOL    HW2 5218   4.774  12.261  10.829
67796SOL     OW 5219  14.257   5.936   3.551
67796SOL    HW1 5220  14.166   5.906   3.543
67796SOL    HW2 5221  14.308   5.876   3.497
67797SOL     OW 5222   0.578  13.197   7.032
67797SOL    HW1 5223   0.600  13.258   7.101
67797SOL    HW2 5224   0.650  13.205   6.969
67798SOL     OW 5225   6.547   7.777  13.310
67798SOL    HW1 5226   6.524   7.869  13.294
67798SOL    HW2 5227   6.639   7.771  13.288
67799SOL     OW 5228   3.564   1.467   2.192
67799SOL    HW1 5229   3.501   1.518   2.242
67799SOL    HW2 5230   3.623   1.430   2.259
67800SOL     OW 5231  10.060  11.030   0.757
67800SOL    HW1 5232   9.977  10.989   0.734
67800SOL    HW2 5233  10.126  10.981   0.709
67801SOL     OW 5234   2.720   1.783  13.185
67801SOL    HW1 5235   2.748   1.694  13.206
67801SOL    HW2 5236   2.758   1.800  13.099
67802SOL     OW 5237  14.118   1.627  12.301
67802SOL    HW1 5238  14.212   1.646  12.299
67802SOL    HW2 5239  14.096   1.605  12.210
67803SOL     OW 5240  14.323   4.604   6.099
67803SOL    HW1 5241  14.271   4.614   6.179
67803SOL    HW2 5242  14.270   4.645   6.031
67804SOL     OW 5243  13.312  14.355   6.563
67804SOL    HW1 5244  13.254  14.320   6.630
67804SOL    HW2 5245  13.335  14.443   6.595
67805SOL     OW 5246   2.457   7.920   7.761
67805SOL    HW1 5247   2.552   7.924   7.755
67805SOL    HW2 5248   2.439   7.862   7.835
67806SOL     OW 5249   9.312   6.572   3.316
67806SOL    HW1 5250   9.284   6.605   3.401
67806SOL    HW2 5251   9.406   6.559   3.325
67807SOL     OW 5252   3.850  12.328   8.830
67807SOL    HW1 5253   3.809  12.389   8.890
67807SOL    HW2 5254   3.797  12.248   8.835
67808SOL     OW 5255   0.802   9.246   4.031
67808SOL    HW1 5256   0.889   9.240   4.070
67808SOL    HW2 5257   0.741   9.243   4.105
67809SOL     OW 5258  12.604   8.023   3.195
67809SOL    HW1 5259  12.627   8.055   3.282
67809SOL    HW2 5260  12.548   8.091   3.158
67810SOL     OW 5261   2.419   2.001   0.090
67810SOL    HW1 5262   2.489   1.937   0.077
67810SOL    HW2 5263   2.461   2.085   0.072
67811SOL     OW 5264   6.502   8.437   5.692
67811SOL    HW1 5265   6.442   8.372   5.656
67811SOL    HW2 5266   6.447   8.495   5.744
67812SOL     OW 5267   7.952   6.594   8.696
67812SOL    HW1 5268   7.922   6.582   8.786
67812SOL    HW2 5269   8.047   6.586   8.701
67813SOL     OW 5270  14.508   1.004   6.826
67813SOL    HW1 5271  14.588   0.982   6.874
67813SOL    HW2 5272  14.456   1.056   6.888
67814SOL     OW 5273   7.393   7.493   6.363
67814SOL    HW1 5274   7.330   7.455   6.424
67814SOL    HW2 5275   7.366   7.585   6.355
67815SOL     OW 5276   2.134   2.833   0.658
67815SOL    HW1 5277   2.087   2.749   0.661
67815SOL    HW2 5278   2.189   2.827   0.581
67816SOL     OW 5279   3.305   6.675   7.910
67816SOL    HW1 5280   3.315   6.716   7.824
67816SOL    HW2 5281   3.248   6.600   7.894
67817SOL     OW 5282  13.096  14.627  12.784
67817SOL    HW1 5283  13.016  14.674  12.762
67817SOL    HW2 5284  13.079  14.589  12.870
67818SOL     OW 5285   6.717   4.547   5.922
67818SOL    HW1 5286   6.743   4.495   5.846
67818SOL    HW2 5287   6.737   4.492   5.998
67819SOL     OW 5288  12.043  11.680  14.452
67819SOL    HW1 5289  11.977  11.712  14.390
67819SOL    HW2 5290  12.105  11.632  14.397
67820SOL     OW 5291   1.474   1.079   4.822
67820SOL    HW1 5292   1.542   1.066   4.888
67820SOL    HW2 5293   1.473   0.997   4.773
67821SOL     OW 5294   2.210   1.872   5.153
67821SOL    HW1 5295   2.143   1.940   5.160
67821SOL    HW2 5296   2.176   1.799   5.205
67822SOL     OW 5297   2.385   2.965  13.381
67822SOL    HW1 5298   2.394   2.870  13.382
67822SOL    HW2 5299   2.305   2.981  13.332
67823SOL     OW 5300   4.300  12.989  14.812
67823SOL    HW1 5301   4.380  13.039  14.795
67823SOL    HW2 5302   4.331  12.904  14.842
67824SOL     OW 5303   6.651   6.039  11.612
67824SOL    HW1 5304   6.692   6.120  11.642
67824SOL    HW2 5305   6.561   6.045  11.644
67825SOL     OW 5306  10.196   8.336   1.012
67825SOL    HW1 5307  10.113   8.300   0.980
67825SOL    HW2 5308  10.229   8.388   0.939
67826SOL     OW 5309   6.212   9.189  13.690
67826SOL    HW1 5310   6.191   9.120  13.753
67826SOL    HW2 5311   6.230   9.143  13.608
67827SOL     OW 5312   8.069  14.138   3.663
67827SOL    HW1 5313   8.114  14.063   3.701
67827SOL    HW2 5314   8.132  14.174   3.600
67828SOL     OW 5315   3.659   8.699   1.071
67828SOL    HW1 5316   3.644   8.717   1.164
67828SOL    HW2 5317   3.654   8.785   1.029
67829SOL     OW 5318   6.444   2.052  11.345
67829SOL    HW1 5319   6.436   2.132  11.294
67829SOL    HW2 5320   6.388   2.067  11.422
67830SOL     OW 5321   5.323   1.033   4.113
67830SOL    HW1 5322   5.410   1.071   4.105
67830SOL    HW2 5323   5.318   0.969   4.042
67831SOL     OW 5324  10.193  12.387   2.309
67831SOL    HW1 5325  10.282  12.369   2.341
67831SOL    HW2 5326  10.167  12.466   2.357
67832SOL     OW 5327   4.889   4.136  11.096
67832SOL    HW1 5328   4.929   4.181  11.171
67832SOL    HW2 5329   4.854   4.055  11.133
67833SOL     OW 5330   0.909   0.804   6.385
67833SOL    HW1 5331   0.869   0.732   6.337
67833SOL    HW2 5332   0.916   0.772   6.475
67834SOL     OW 5333   5.539   2.896   4.277
67834SOL    HW1 5334   5.490   2.822   4.311
67834SOL    HW2 5335   5.531   2.963   4.345
67835SOL     OW 5336   4.819   4.087   6.356
67835SOL    HW1 5337   4.731   4.050   6.343
67835SOL    HW2 5338   4.821   4.110   6.449
67836SOL     OW 5339  14.345   9.156  13.359
67836SOL    HW1 5340  14.267   9.102  13.373
67836SOL    HW2 5341  14.409   9.097  13.318
67837SOL     OW 5342  14.120  11.665  12.863
67837SOL    HW1 5343  14.162  11.648  12.948
67837SOL    HW2 5344  14.065  11.588  12.849
67838SOL     OW 5345  13.506   2.715  12.111
67838SOL    HW1 5346  13.516   2.804  12.146
67838SOL    HW2 5347  13.421   2.686  12.143
67839SOL     OW 5348   9.850   3.275  10.284
67839SOL    HW1 5349   9.787   3.205  10.301
67839SOL    HW2 5350   9.830   3.342  10.350
67840SOL     OW 5351   8.173   6.247  14.593
67840SOL    HW1 5352   8.252   6.251  14.538
67840SOL    HW2 5353   8.206   6.223  14.679
67841SOL     OW 5354  13.717   3.984   9.063
67841SOL    HW1 5355  13.700   4.064   9.112
67841SOL    HW2 5356  13.756   4.013   8.981
67842SOL     OW 5357  11.817   5.174   2.555
67842SOL    HW1 5358  11.801   5.079   2.551
67842SOL    HW2 5359  11.749   5.207   2.614
67843SOL     OW 5360   0.813  14.022  11.769
67843SOL    HW1 5361   0.891  14.039  11.716
67843SOL    HW2 5362   0.823  14.080  11.845
67844SOL     OW 5363   6.186   5.276  10.776
67844SOL    HW1 5364   6.160   5.205  10.833
67844SOL    HW2 5365   6.212   5.234  10.694
67845SOL     OW 5366   7.705   6.754   8.628
67845SOL    HW1 5367   7.711   6.791   8.540
67845SOL    HW2 5368   7.795   6.732   8.651
67846SOL     OW 5369   1.855   0.030   4.496
67846SOL    HW1 5370   1.805  14.872   4.422
67846SOL    HW2 5371   1.850   0.125   4.487
67847SOL     OW 5372  11.234   1.634   3.647
67847SOL    HW1 5373  11.312   1.664   3.695
67847SOL    HW2 5374  11.266   1.616   3.559
67848SOL     OW 5375  13.710   1.645  11.112
67848SOL    HW1 5376  13.640   1.601  11.063
67848SOL    HW2 5377  13.700   1.738  11.091
67849SOL     OW 5378   7.732  13.145  14.356
67849SOL    HW1 5379   7.649  13.165  14.314
67849SOL    HW2 5380   7.708  13.103  14.438
67850SOL     OW 5381   8.598   7.832   0.312
67850SOL    HW1 5382   8.588   7.926   0.297
67850SOL    HW2 5383   8.688   7.813   0.283
67851SOL     OW 5384  11.494   9.851   6.839
67851SOL    HW1 5385  11.587   9.860   6.819
67851SOL    HW2 5386  11.462   9.787   6.774
67852SOL     OW 5387   3.954   0.022   0.755
67852SOL    HW1 5388   3.990   0.100   0.713
67852SOL    HW2 5389   3.952   0.044   0.848
67853SOL     OW 5390   9.438  12.815   8.578
67853SOL    HW1 5391   9.478  12.831   8.493
67853SOL    HW2 5392   9.426  12.720   8.581
67854SOL     OW 5393   8.950   9.767   6.559
67854SOL    HW1 5394   8.934   9.817   6.638
67854SOL    HW2 5395   8.952   9.832   6.489
67855SOL     OW 5396  11.099   0.708   2.151
67855SOL    HW1 5397  11.187   0.739   2.127
67855SOL    HW2 5398  11.112   0.615   2.172
67856SOL     OW 5399   5.083   4.608   1.308
67856SOL    HW1 5400   5.168   4.644   1.283
67856SOL    HW2 5401   5.067   4.643   1.396
67857SOL     OW 5402  10.530   7.837  12.849
67857SOL    HW1 5403  10.552   7.760  12.796
67857SOL    HW2 5404  10.559   7.814  12.937
67858SOL     OW 5405   9.009   9.788  11.886
67858SOL    HW1 5406   8.952   9.793  11.809
67858SOL    HW2 5407   9.027   9.695  11.896
67859SOL     OW 5408  14.382   0.581   6.462
67859SOL    HW1 5409  14.366   0.662   6.413
67859SOL    HW2 5410  14.450   0.536   6.412
67860SOL     OW 5411   1.228  10.861   9.661
67860SOL    HW1 5412   1.276  10.868   9.578
67860SOL    HW2 5413   1.274  10.794   9.710
67861SOL     OW 5414  13.138   3.242  11.729
67861SOL    HW1 5415  13.209   3.290  11.687
67861SOL    HW2 5416  13.097   3.305  11.788
67862SOL     OW 5417   6.757  12.141   4.710
67862SOL    HW1 5418   6.676  12.157   4.757
67862SOL    HW2 5419   6.750  12.051   4.678
67863SOL     OW 5420  10.259  10.843   7.654
67863SOL    HW1 5421  10.314  10.900   7.602
67863SOL    HW2 5422  10.274  10.755   7.618
67864SOL     OW 5423   2.397  10.901   5.093
67864SOL    HW1 5424   2.402  10.848   5.013
67864SOL    HW2 5425   2.425  10.841   5.162
67865SOL     OW 5426  10.250  11.777   4.987
67865SOL    HW1 5427  10.256  11.802   4.894
67865SOL    HW2 5428  10.200  11.848   5.027
67866SOL     OW 5429   3.353   7.125   7.308
67866SOL    HW1 5430   3.356   7.196   7.244
67866SOL    HW2 5431   3.316   7.051   7.259
67867SOL     OW 5432   5.263   5.383   2.546
67867SOL    HW1 5433   5.184   5.419   2.507
67867SOL    HW2 5434   5.233   5.306   2.595
67868SOL     OW 5435   4.744   3.099   4.099
67868SOL    HW1 5436   4.787   3.028   4.051
67868SOL    HW2 5437   4.802   3.116   4.173
67869SOL     OW 5438   0.580   7.661   7.111
67869SOL    HW1 5439   0.507   7.660   7.049
67869SOL    HW2 5440   0.623   7.745   7.095
67870SOL     OW 5441   1.122  12.068   8.987
67870SOL    HW1 5442   1.182  12.138   9.010
67870SOL    HW2 5443   1.045  12.083   9.042
67871SOL     OW 5444   2.872   7.004   2.654
67871SOL    HW1 5445   2.927   7.069   2.698
67871SOL    HW2 5446   2.816   6.970   2.724
67872SOL     OW 5447   3.846   8.631   0.404
67872SOL    HW1 5448   3.807   8.715   0.430
67872SOL    HW2 5449   3.770   8.577   0.380
67873SOL     OW 5450  12.431   8.406   6.138
67873SOL    HW1 5451  12.480   8.485   6.163
67873SOL    HW2 5452  12.491   8.334   6.159
67874SOL     OW 5453  13.149   1.936  14.797
67874SOL    HW1 5454  13.063   1.962  14.830
67874SOL    HW2 5455  13.206   1.938  14.873
67875SOL     OW 5456   3.503   2.547  10.215
67875SOL    HW1 5457   3.434   2.607  10.185
67875SOL    HW2 5458   3.456   2.476  10.257
67876SOL     OW 5459   0.835   4.409   7.237
67876SOL    HW1 5460   0.768   4.407   7.169
67876SOL    HW2 5461   0.895   4.479   7.209
67877SOL     OW 5462   1.968  12.487  11.102
67877SOL    HW1 5463   1.876  12.492  11.075
67877SOL    HW2 5464   2.017  12.514  11.025
67878SOL     OW 5465   4.466   1.970   5.110
67878SOL    HW1 5466   4.520   1.927   5.044
67878SOL    HW2 5467   4.515   2.049   5.132
67879SOL     OW 5468   8.013  14.494   3.537
67879SOL    HW1 5469   7.951  14.429   3.568
67879SOL    HW2 5470   7.959  14.561   3.494
67880SOL     OW 5471  13.262  11.592   5.797
67880SOL    HW1 5472  13.210  11.650   5.853
67880SOL    HW2 5473  13.326  11.552   5.856
67881SOL     OW 5474   6.674   6.360   9.225
67881SOL    HW1 5475   6.638   6.323   9.306
67881SOL    HW2 5476   6.769   6.357   9.238
67882SOL     OW 5477   1.341  12.246   9.464
67882SOL    HW1 5478   1.315  12.284   9.548
67882SOL    HW2 5479   1.435  12.263   9.457
67883SOL     OW 5480  10.977  13.123   8.898
67883SOL    HW1 5481  10.899  13.173   8.875
67883SOL    HW2 5482  11.050  13.182   8.879
67884SOL     OW 5483   3.147   7.947  10.453
67884SOL    HW1 5484   3.202   7.987  10.519
67884SOL    HW2 5485   3.126   7.860  10.488
67885SOL     OW 5486   4.933   8.672  14.483
67885SOL    HW1 5487   4.932   8.588  14.437
67885SOL    HW2 5488   4.863   8.664  14.547
67886SOL     OW 5489  10.674  10.062  10.792
67886SOL    HW1 5490  10.669  10.125  10.864
67886SOL    HW2 5491  10.645   9.979  10.830
67887SOL     OW 5492  11.296   8.537   4.725
67887SOL    HW1 5493  11.335   8.541   4.637
67887SOL    HW2 5494  11.202   8.545   4.709
67888SOL     OW 5495  13.387   5.585   8.480
67888SOL    HW1 5496  13.298   5.549   8.475
67888SOL    HW2 5497  13.402   5.596   8.574
67889SOL     OW 5498   3.356   8.291  12.778
67889SOL    HW1 5499   3.342   8.222  12.843
67889SOL    HW2 5500   3.367   8.244  12.695
67890SOL     OW 5501  12.326  11.818   4.478
67890SOL    HW1 5502  12.317  11.749   4.543
67890SOL    HW2 5503  12.390  11.878   4.516
67891SOL     OW 5504   4.620   4.262  12.999
67891SOL    HW1 5505   4.666   4.269  12.915
67891SOL    HW2 5506   4.528   4.278  12.977
67892SOL     OW 5507   4.346   2.738   9.876
67892SOL    HW1 5508   4.343   2.805   9.944
67892SOL    HW2 5509   4.258   2.700   9.876
67893SOL     OW 5510   1.605   0.745   4.452
67893SOL    HW1 5511   1.560   0.817   4.496
67893SOL    HW2 5512   1.585   0.668   4.505
67894SOL     OW 5513   4.609  11.415   7.516
67894SOL    HW1 5514   4.575  11.493   7.473
67894SOL    HW2 5515   4.650  11.448   7.596
67895SOL     OW 5516  13.309   5.893  13.342
67895SOL    HW1 5517  13.353   5.966  13.387
67895SOL    HW2 5518  13.276   5.839  13.413
67896SOL     OW 5519   9.777   5.096   8.969
67896SOL    HW1 5520   9.842   5.040   9.013
67896SOL    HW2 5521   9.827   5.144   8.903
67897SOL     OW 5522  11.532   7.551   3.347
67897SOL    HW1 5523  11.579   7.554   3.430
67897SOL    HW2 5524  11.573   7.619   3.293
67898SOL     OW 5525   5.700  12.363   9.604
67898SOL    HW1 5526   5.711  12.458   9.613
67898SOL    HW2 5527   5.655  12.337   9.684
67899SOL     OW 5528  13.837   6.446   0.676
67899SOL    HW1 5529  13.823   6.404   0.761
67899SOL    HW2 5530  13.854   6.538   0.697
67900SOL     OW 5531  13.158  14.048   5.721
67900SOL    HW1 5532  13.247  14.050   5.687
67900SOL    HW2 5533  13.113  14.120   5.676
67901SOL     OW 5534   8.902   7.005  14.225
67901SOL    HW1 5535   8.829   7.067  14.224
67901SOL    HW2 5536   8.862   6.920  14.205
67902SOL     OW 5537  11.711  14.804   4.268
67902SOL    HW1 5538  11.708  14.708   4.266
67902SOL    HW2 5539  11.799  14.824   4.300
67903SOL     OW 5540   9.493   4.012  13.074
67903SOL    HW1 5541   9.522   3.923  13.093
67903SOL    HW2 5542   9.436   4.004  12.998
67904SOL     OW 5543   8.406  12.932   7.954
67904SOL    HW1 5544   8.360  12.850   7.973
67904SOL    HW2 5545   8.367  12.963   7.872
67905SOL     OW 5546   2.514   0.254   8.418
67905SOL    HW1 5547   2.490   0.339   8.379
67905SOL    HW2 5548   2.463   0.249   8.499
67906SOL     OW 5549   6.365   3.998   5.392
67906SOL    HW1 5550   6.355   4.084   5.433
67906SOL    HW2 5551   6.381   3.938   5.464
67907SOL     OW 5552  14.105   3.048   7.366
67907SOL    HW1 5553  14.191   3.062   7.405
67907SOL    HW2 5554  14.113   3.083   7.277
67908SOL     OW 5555  13.673  10.968   4.545
67908SOL    HW1 5556  13.618  11.010   4.479
67908SOL    HW2 5557  13.759  10.959   4.503
67909SOL     OW 5558   3.875   8.823   7.552
67909SOL    HW1 5559   3.939   8.871   7.605
67909SOL    HW2 5560   3.928   8.762   7.501
67910SOL     OW 5561   9.907   7.099   7.211
67910SOL    HW1 5562   9.989   7.060   7.241
67910SOL    HW2 5563   9.891   7.171   7.272
67911SOL     OW 5564   9.601   0.812  12.209
67911SOL    HW1 5565   9.615   0.816  12.304
67911SOL    HW2 5566   9.629   0.724  12.185
67912SOL     OW 5567  13.074   9.694   8.848
67912SOL    HW1 5568  13.068   9.714   8.755
67912SOL    HW2 5569  13.166   9.675   8.864
67913SOL     OW 5570   2.953  10.154  13.981
67913SOL    HW1 5571   3.023  10.176  13.920
67913SOL    HW2 5572   2.973  10.204  14.060
67914SOL     OW 5573   9.125   4.891   4.206
67914SOL    HW1 5574   9.157   4.899   4.295
67914SOL    HW2 5575   9.040   4.848   4.214
67915SOL     OW 5576   2.541  13.109   2.094
67915SOL    HW1 5577   2.576  13.110   2.183
67915SOL    HW2 5578   2.504  13.021   2.084
67916SOL     OW 5579   6.600   4.999  14.822
67916SOL    HW1 5580   6.638   4.913  14.802
67916SOL    HW2 5581   6.612   5.049  14.741
67917SOL     OW 5582   9.807   3.703   7.337
67917SOL    HW1 5583   9.880   3.646   7.360
67917SOL    HW2 5584   9.807   3.706   7.242
67918SOL     OW 5585   3.852   6.044   2.681
67918SOL    HW1 5586   3.907   6.121   2.689
67918SOL    HW2 5587   3.822   6.044   2.591
67919SOL     OW 5588   0.779   7.756   8.484
67919SOL    HW1 5589   0.726   7.732   8.559
67919SOL    HW2 5590   0.800   7.673   8.441
67920SOL     OW 5591   1.065   5.309   1.349
67920SOL    HW1 5592   1.068   5.403   1.368
67920SOL    HW2 5593   1.118   5.300   1.269
67921SOL     OW 5594   9.693  12.929  14.572
67921SOL    HW1 5595   9.748  12.897  14.643
67921SOL    HW2 5596   9.743  12.912  14.493
67922SOL     OW 5597  14.333   5.277   7.889
67922SOL    HW1 5598  14.268   5.207   7.902
67922SOL    HW2 5599  14.284   5.347   7.846
67923SOL     OW 5600   8.413  12.371   5.156
67923SOL    HW1 5601   8.340  12.319   5.122
67923SOL    HW2 5602   8.491  12.330   5.121
67924SOL     OW 5603   8.584   4.067   1.820
67924SOL    HW1 5604   8.590   4.152   1.777
67924SOL    HW2 5605   8.581   4.086   1.913
67925SOL     OW 5606   1.373  10.298  12.928
67925SOL    HW1 5607   1.378  10.344  12.845
67925SOL    HW2 5608   1.373  10.367  12.995
67926SOL     OW 5609  14.495   3.903  13.596
67926SOL    HW1 5610  14.537   3.819  13.613
67926SOL    HW2 5611  14.549   3.967  13.641
67927SOL     OW 5612  14.207  14.110   5.867
67927SOL    HW1 5613  14.162  14.026   5.875
67927SOL    HW2 5614  14.182  14.157   5.947
67928SOL     OW 5615   3.186   2.431   6.264
67928SOL    HW1 5616   3.097   2.398   6.282
67928SOL    HW2 5617   3.180   2.468   6.176
67929SOL     OW 5618  14.432   0.947  12.453
67929SOL    HW1 5619  14.390   0.873  12.408
67929SOL    HW2 5620  14.524   0.943  12.425
67930SOL     OW 5621   0.325  13.973   8.582
67930SOL    HW1 5622   0.294  14.023   8.657
67930SOL    HW2 5623   0.416  13.951   8.604
67931SOL     OW 5624   5.544  10.771  13.144
67931SOL    HW1 5625   5.586  10.689  13.172
67931SOL    HW2 5626   5.558  10.831  13.217
67932SOL     OW 5627  13.871   2.503   4.406
67932SOL    HW1 5628  13.812   2.572   4.436
67932SOL    HW2 5629  13.956   2.524   4.446
67933SOL     OW 5630   7.745   5.171  10.516
67933SOL    HW1 5631   7.804   5.152  10.443
67933SOL    HW2 5632   7.774   5.256  10.549
67934SOL     OW 5633   3.841   7.206   2.181
67934SOL    HW1 5634   3.805   7.186   2.094
67934SOL    HW2 5635   3.763   7.211   2.238
67935SOL     OW 5636   7.386   4.985  12.167
67935SOL    HW1 5637   7.336   5.062  12.142
67935SOL    HW2 5638   7.373   4.978  12.262
67936SOL     OW 5639   6.295   3.140  14.787
67936SOL    HW1 5640   6.316   3.202  14.717
67936SOL    HW2 5641   6.379   3.097  14.806
67937SOL     OW 5642  13.319   6.848   5.002
67937SOL    HW1 5643  13.406   6.849   5.041
67937SOL    HW2 5644  13.263   6.809   5.069
67938SOL     OW 5645  14.260   2.747  10.203
67938SOL    HW1 5646  14.211   2.811  10.255
67938SOL    HW2 5647  14.352   2.773  10.213
67939SOL     OW 5648   4.175   1.218  10.544
67939SOL    HW1 5649   4.232   1.174  10.481
67939SOL    HW2 5650   4.087   1.191  10.519
67940SOL     OW 5651   7.844   2.674   2.524
67940SOL    HW1 5652   7.863   2.730   2.600
67940SOL    HW2 5653   7.924   2.623   2.511
67941SOL     OW 5654   4.984  12.712   1.172
67941SOL    HW1 5655   4.952  12.622   1.165
67941SOL    HW2 5656   5.080  12.704   1.171
67942SOL     OW 5657   1.163   9.699   0.586
67942SOL    HW1 5658   1.187   9.738   0.670
67942SOL    HW2 5659   1.172   9.770   0.522
67943SOL     OW 5660   4.313   6.709   8.759
67943SOL    HW1 5661   4.354   6.736   8.676
67943SOL    HW2 5662   4.354   6.626   8.781
67944SOL     OW 5663   1.414   2.860   8.210
67944SOL    HW1 5664   1.476   2.897   8.147
67944SOL    HW2 5665   1.405   2.768   8.184
67945SOL     OW 5666   0.549   7.543   5.570
67945SOL    HW1 5667   0.636   7.526   5.536
67945SOL    HW2 5668   0.525   7.463   5.616
67946SOL     OW 5669   1.090   2.703  10.235
67946SOL    HW1 5670   1.056   2.631  10.287
67946SOL    HW2 5671   1.025   2.773  10.247
67947SOL     OW 5672   9.454   0.778   3.876
67947SOL    HW1 5673   9.378   0.745   3.829
67947SOL    HW2 5674   9.443   0.746   3.965
67948SOL     OW 5675   0.682   5.141   0.759
67948SOL    HW1 5676   0.743   5.211   0.784
67948SOL    HW2 5677   0.617   5.140   0.830
67949SOL     OW 5678   3.103   6.043   5.196
67949SOL    HW1 5679   3.028   6.000   5.156
67949SOL    HW2 5680   3.175   5.981   5.187
67950SOL     OW 5681  13.424   9.360   9.018
67950SOL    HW1 5682  13.463   9.326   8.937
67950SOL    HW2 5683  13.403   9.282   9.069
67951SOL     OW 5684  14.020   2.457  12.454
67951SOL    HW1 5685  14.091   2.520  12.463
67951SOL    HW2 5686  14.064   2.372  12.455
67952SOL     OW 5687   9.250   3.400   6.209
67952SOL    HW1 5688   9.163   3.422   6.240
67952SOL    HW2 5689   9.236   3.358   6.124
67953SOL     OW 5690  11.521   1.823  14.482
67953SOL    HW1 5691  11.484   1.909  14.502
67953SOL    HW2 5692  11.466   1.788  14.412
67954SOL     OW 5693   7.986   4.544  12.185
67954SOL    HW1 5694   8.078   4.571  12.186
67954SOL    HW2 5695   7.954   4.567  12.272
67955SOL     OW 5696   5.321  12.402   2.081
67955SOL    HW1 5697   5.355  12.439   2.162
67955SOL    HW2 5698   5.296  12.478   2.028
67956SOL     OW 5699  10.448   3.200  14.278
67956SOL    HW1 5700  10.488   3.115  14.299
67956SOL    HW2 5701  10.399   3.183  14.197
67957SOL     OW 5702  11.917  10.734  10.148
67957SOL    HW1 5703  11.876  10.664  10.198
67957SOL    HW2 5704  11.872  10.732  10.063
67958SOL     OW 5705  14.559  10.238   0.221
67958SOL    HW1 5706  14.625  10.276   0.278
67958SOL    HW2 5707  14.505  10.313   0.194
67959SOL     OW 5708  14.424  11.486   0.081
67959SOL    HW1 5709  14.445  11.446  14.872
67959SOL    HW2 5710  14.329  11.497   0.080
67960SOL     OW 5711  11.418   3.346  12.249
67960SOL    HW1 5712  11.460   3.423  12.211
67960SOL    HW2 5713  11.481   3.275  12.235
67961SOL     OW 5714   9.997  11.892   7.885
67961SOL    HW1 5715   9.940  11.906   7.810
67961SOL    HW2 5716  10.049  11.815   7.862
67962SOL     OW 5717  14.314   1.217   4.706
67962SOL    HW1 5718  14.278   1.305   4.704
67962SOL    HW2 5719  14.242   1.161   4.677
67963SOL     OW 5720   5.495   8.266   4.889
67963SOL    HW1 5721   5.474   8.328   4.959
67963SOL    HW2 5722   5.497   8.181   4.932
67964SOL     OW 5723   1.223   9.799  12.327
67964SOL    HW1 5724   1.269   9.866  12.276
67964SOL    HW2 5725   1.284   9.778  12.398
67965SOL     OW 5726   9.666   0.101   2.110
67965SOL    HW1 5727   9.656   0.069   2.020
67965SOL    HW2 5728   9.710   0.030   2.156
67966SOL     OW 5729  12.778  10.748   8.282
67966SOL    HW1 5730  12.731  10.669   8.252
67966SOL    HW2 5731  12.780  10.740   8.377
67967SOL     OW 5732  12.622  12.406   3.481
67967SOL    HW1 5733  12.707  12.446   3.467
67967SOL    HW2 5734  12.565  12.446   3.415
67968SOL     OW 5735  12.820   6.962   0.774
67968SOL    HW1 5736  12.908   6.946   0.809
67968SOL    HW2 5737  12.797   6.881   0.728
67969SOL     OW 5738   6.817   5.894   1.230
67969SOL    HW1 5739   6.761   5.871   1.156
67969SOL    HW2 5740   6.758   5.936   1.293
67970SOL     OW 5741   3.542   8.521   8.134
67970SOL    HW1 5742   3.593   8.545   8.211
67970SOL    HW2 5743   3.451   8.534   8.161
67971SOL     OW 5744   8.674   8.935   6.028
67971SOL    HW1 5745   8.601   8.892   6.072
67971SOL    HW2 5746   8.659   9.028   6.043
67972SOL     OW 5747   0.036  13.776   5.851
67972SOL    HW1 5748   0.111  13.777   5.910
67972SOL    HW2 5749   0.070  13.807   5.767
67973SOL     OW 5750  11.199  12.868   0.384
67973SOL    HW1 5751  11.174  12.837   0.297
67973SOL    HW2 5752  11.173  12.796   0.443
67974SOL     OW 5753  11.635  10.396   5.409
67974SOL    HW1 5754  11.593  10.316   5.377
67974SOL    HW2 5755  11.601  10.407   5.497
67975SOL     OW 5756   9.339  14.776  12.637
67975SOL    HW1 5757   9.335  14.801  12.729
67975SOL    HW2 5758   9.307  14.852  12.589
67976SOL     OW 5759  13.244  11.073   0.571
67976SOL    HW1 5760  13.292  10.990   0.566
67976SOL    HW2 5761  13.285  11.121   0.643
67977SOL     OW 5762   7.397   3.302   3.281
67977SOL    HW1 5763   7.382   3.350   3.363
67977SOL    HW2 5764   7.314   3.309   3.234
67978SOL     OW 5765   0.808  11.577  13.553
67978SOL    HW1 5766   0.781  11.552  13.465
67978SOL    HW2 5767   0.767  11.662  13.568
67979SOL     OW 5768  12.333   7.318   6.964
67979SOL    HW1 5769  12.321   7.250   6.898
67979SOL    HW2 5770  12.275   7.389   6.935
67980SOL     OW 5771  11.932  13.112   6.952
67980SOL    HW1 5772  12.004  13.175   6.958
67980SOL    HW2 5773  11.858  13.157   6.993
67981SOL     OW 5774   9.184  13.878   4.055
67981SOL    HW1 5775   9.214  13.792   4.026
67981SOL    HW2 5776   9.263  13.922   4.086
67982SOL     OW 5777   3.678   9.132  12.382
67982SOL    HW1 5778   3.761   9.126  12.334
67982SOL    HW2 5779   3.681   9.219  12.423
67983SOL     OW 5780  13.302  12.305   4.164
67983SOL    HW1 5781  13.317  12.372   4.231
67983SOL    HW2 5782  13.383  12.306   4.112
67984SOL     OW 5783  10.915   0.766   0.219
67984SOL    HW1 5784  10.925   0.826   0.293
67984SOL    HW2 5785  10.973   0.693   0.240
67985SOL     OW 5786   1.934   6.557  14.602
67985SOL    HW1 5787   1.872   6.587  14.535
67985SOL    HW2 5788   1.881   6.553  14.682
67986SOL     OW 5789   9.254   7.075   7.776
67986SOL    HW1 5790   9.241   7.108   7.865
67986SOL    HW2 5791   9.207   7.136   7.720
67987SOL     OW 5792   5.462  13.428   2.851
67987SOL    HW1 5793   5.447  13.341   2.815
67987SOL    HW2 5794   5.439  13.419   2.944
67988SOL     OW 5795   3.378   9.127  13.016
67988SOL    HW1 5796   3.440   9.115  12.945
67988SOL    HW2 5797   3.364   9.039  13.052
67989SOL     OW 5798   9.425   7.834   4.078
67989SOL    HW1 5799   9.481   7.769   4.121
67989SOL    HW2 5800   9.338   7.818   4.115
67990SOL     OW 5801   0.881   1.697   7.030
67990SOL    HW1 5802   0.969   1.665   7.053
67990SOL    HW2 5803   0.897   1.772   6.973
67991SOL     OW 5804   2.905   4.503   8.304
67991SOL    HW1 5805   2.945   4.498   8.391
67991SOL    HW2 5806   2.977   4.526   8.245
67992SOL     OW 5807  10.321   5.610   0.757
67992SOL    HW1 5808  10.385   5.539   0.755
67992SOL    HW2 5809  10.373   5.688   0.778
67993SOL     OW 5810  12.830  14.723  11.352
67993SOL    HW1 5811  12.824  14.815  11.377
67993SOL    HW2 5812  12.892  14.722  11.279
67994SOL     OW 5813   3.377  14.826   2.130
67994SOL    HW1 5814   3.367  14.829   2.225
67994SOL    HW2 5815   3.331  14.747   2.103
67995SOL     OW 5816   9.225   4.548  10.537
67995SOL    HW1 5817   9.147   4.494  10.551
67995SOL    HW2 5818   9.291   4.487  10.503
67996SOL     OW 5819   3.856  10.424  14.071
67996SOL    HW1 5820   3.923  10.373  14.024
67996SOL    HW2 5821   3.905  10.470  14.139
67997SOL     OW 5822   9.808   1.072   7.890
67997SOL    HW1 5823   9.823   0.990   7.842
67997SOL    HW2 5824   9.830   1.141   7.828
67998SOL     OW 5825   0.277   5.981   7.522
67998SOL    HW1 5826   0.300   6.015   7.436
67998SOL    HW2 5827   0.321   5.896   7.527
67999SOL     OW 5828   3.281   7.728   3.721
67999SOL    HW1 5829   3.312   7.690   3.803
67999SOL    HW2 5830   3.186   7.733   3.731
68000SOL     OW 5831   4.486  11.290   8.327
68000SOL    HW1 5832   4.480  11.209   8.278
68000SOL    HW2 5833   4.481  11.263   8.419
68001SOL     OW 5834  12.499   8.702   2.371
68001SOL    HW1 5835  12.548   8.768   2.323
68001SOL    HW2 5836  12.415   8.695   2.325
68002SOL     OW 5837   9.132   9.660   2.071
68002SOL    HW1 5838   9.171   9.737   2.113
68002SOL    HW2 5839   9.061   9.695   2.017
68003SOL     OW 5840   0.683   4.241   9.424
68003SOL    HW1 5841   0.620   4.174   9.399
68003SOL    HW2 5842   0.638   4.293   9.491
68004SOL     OW 5843   0.547   5.318   9.399
68004SOL    HW1 5844   0.567   5.410   9.417
68004SOL    HW2 5845   0.632   5.276   9.386
68005SOL     OW 5846  10.393   8.463   4.114
68005SOL    HW1 5847  10.328   8.507   4.059
68005SOL    HW2 5848  10.345   8.390   4.153
68006SOL     OW 5849   0.775   3.854   9.988
68006SOL    HW1 5850   0.743   3.812   9.908
68006SOL    HW2 5851   0.714   3.827  10.056
68007SOL     OW 5852   6.008   1.112   6.366
68007SOL    HW1 5853   6.066   1.188   6.367
68007SOL    HW2 5854   6.066   1.038   6.349
68008SOL     OW 5855   9.441   0.629  11.041
68008SOL    HW1 5856   9.421   0.723  11.040
68008SOL    HW2 5857   9.387   0.592  10.971
68009SOL     OW 5858   9.642   3.586   9.383
68009SOL    HW1 5859   9.643   3.533   9.463
68009SOL    HW2 5860   9.573   3.547   9.330
68010SOL     OW 5861  10.993   3.066  14.755
68010SOL    HW1 5862  11.026   2.976  14.763
68010SOL    HW2 5863  11.066   3.115  14.717
68011SOL     OW 5864  13.157   5.957  12.725
68011SOL    HW1 5865  13.120   6.025  12.781
68011SOL    HW2 5866  13.096   5.950  12.652
68012SOL     OW 5867   2.779   5.864   5.394
68012SOL    HW1 5868   2.731   5.926   5.449
68012SOL    HW2 5869   2.743   5.876   5.306
68013SOL     OW 5870  11.311  14.363   1.053
68013SOL    HW1 5871  11.255  14.437   1.077
68013SOL    HW2 5872  11.384  14.403   1.005
68014SOL     OW 5873  10.698   8.783  11.186
68014SOL    HW1 5874  10.702   8.738  11.101
68014SOL    HW2 5875  10.606   8.778  11.212
68015SOL     OW 5876   5.807   1.251  11.864
68015SOL    HW1 5877   5.818   1.221  11.774
68015SOL    HW2 5878   5.895   1.269  11.895
68016SOL     OW 5879   7.262   4.823  10.404
68016SOL    HW1 5880   7.193   4.889  10.411
68016SOL    HW2 5881   7.332   4.855  10.460
68017SOL     OW 5882   1.014   3.194   8.067
68017SOL    HW1 5883   1.066   3.118   8.041
68017SOL    HW2 5884   1.006   3.246   7.987
68018SOL     OW 5885  12.839   0.726   9.964
68018SOL    HW1 5886  12.829   0.732  10.059
68018SOL    HW2 5887  12.849   0.816   9.936
68019SOL     OW 5888  10.075  11.956   5.158
68019SOL    HW1 5889  10.050  12.035   5.205
68019SOL    HW2 5890  10.017  11.888   5.191
68020SOL     OW 5891   9.779  14.496  13.953
68020SOL    HW1 5892   9.803  14.569  14.011
68020SOL    HW2 5893   9.742  14.430  14.012
68021SOL     OW 5894  14.141   5.002   8.417
68021SOL    HW1 5895  14.200   4.950   8.471
68021SOL    HW2 5896  14.064   5.015   8.472
68022SOL     OW 5897   3.726  13.715   0.649
68022SOL    HW1 5898   3.683  13.800   0.654
68022SOL    HW2 5899   3.664  13.659   0.602
68023SOL     OW 5900   7.037   7.754   3.878
68023SOL    HW1 5901   7.007   7.840   3.848
68023SOL    HW2 5902   7.005   7.747   3.968
68024SOL     OW 5903   1.542   7.709   3.057
68024SOL    HW1 5904   1.611   7.731   2.994
68024SOL    HW2 5905   1.463   7.748   3.020
68025SOL     OW 5906   3.870   6.262   7.821
68025SOL    HW1 5907   3.882   6.347   7.780
68025SOL    HW2 5908   3.906   6.271   7.909
68026SOL     OW 5909   8.176   0.135   7.203
68026SOL    HW1 5910   8.226   0.117   7.282
68026SOL    HW2 5911   8.190   0.228   7.186
68027SOL     OW 5912   5.517   7.170   6.129
68027SOL    HW1 5913   5.596   7.132   6.168
68027SOL    HW2 5914   5.483   7.228   6.197
68028SOL     OW 5915  14.124   5.057   2.104
68028SOL    HW1 5916  14.191   5.010   2.154
68028SOL    HW2 5917  14.054   4.993   2.093
68029SOL     OW 5918   2.730   2.619  14.247
68029SOL    HW1 5919   2.650   2.658  14.212
68029SOL    HW2 5920   2.788   2.694  14.262
68030SOL     OW 5921   6.045   4.137   0.105
68030SOL    HW1 5922   6.056   4.106   0.015
68030SOL    HW2 5923   5.990   4.214   0.098
68031SOL     OW 5924   4.789   5.354  10.918
68031SOL    HW1 5925   4.696   5.376  10.909
68031SOL    HW2 5926   4.788   5.267  10.957
68032SOL     OW 5927   4.155   8.738   4.144
68032SOL    HW1 5928   4.139   8.831   4.160
68032SOL    HW2 5929   4.115   8.722   4.058
68033SOL     OW 5930   8.960   3.457   5.419
68033SOL    HW1 5931   8.897   3.512   5.372
68033SOL    HW2 5932   9.037   3.454   5.362
68034SOL     OW 5933   5.062  10.471   8.661
68034SOL    HW1 5934   5.026  10.559   8.645
68034SOL    HW2 5935   5.041  10.422   8.582
68035SOL     OW 5936   9.868   2.665   4.187
68035SOL    HW1 5937   9.936   2.690   4.250
68035SOL    HW2 5938   9.916   2.631   4.112
68036SOL     OW 5939  12.980   9.451   8.249
68036SOL    HW1 5940  13.020   9.365   8.236
68036SOL    HW2 5941  12.886   9.434   8.241
68037SOL     OW 5942   3.959   5.005   6.905
68037SOL    HW1 5943   3.879   5.014   6.955
68037SOL    HW2 5944   4.029   5.022   6.968
68038SOL     OW 5945  13.218   3.084   4.333
68038SOL    HW1 5946  13.127   3.113   4.326
68038SOL    HW2 5947  13.219   2.998   4.291
68039SOL     OW 5948   8.336   2.688   9.096
68039SOL    HW1 5949   8.373   2.776   9.106
68039SOL    HW2 5950   8.358   2.643   9.178
68040SOL     OW 5951  11.833   4.727  10.110
68040SOL    HW1 5952  11.831   4.640  10.069
68040SOL    HW2 5953  11.883   4.781  10.048
68041SOL     OW 5954   7.248   6.281   8.722
68041SOL    HW1 5955   7.269   6.310   8.633
68041SOL    HW2 5956   7.169   6.228   8.712
68042SOL     OW 5957   6.511  14.505  14.867
68042SOL    HW1 5958   6.527  14.546   0.076
68042SOL    HW2 5959   6.481  14.576  14.811
68043SOL     OW 5960   2.440   5.313   8.067
68043SOL    HW1 5961   2.376   5.260   8.020
68043SOL    HW2 5962   2.510   5.252   8.090
68044SOL     OW 5963   9.041   4.389  11.721
68044SOL    HW1 5964   9.102   4.414  11.651
68044SOL    HW2 5965   9.029   4.470  11.772
68045SOL     OW 5966   4.151   1.829   0.765
68045SOL    HW1 5967   4.059   1.814   0.746
68045SOL    HW2 5968   4.152   1.872   0.850
68046SOL     OW 5969  14.321   9.367  13.546
68046SOL    HW1 5970  14.327   9.304  13.475
68046SOL    HW2 5971  14.378   9.439  13.519
68047SOL     OW 5972  13.546   0.058   4.139
68047SOL    HW1 5973  13.586   0.129   4.090
68047SOL    HW2 5974  13.495   0.010   4.074
68048SOL     OW 5975  12.125   0.731   8.699
68048SOL    HW1 5976  12.105   0.651   8.747
68048SOL    HW2 5977  12.153   0.793   8.766
68049SOL     OW 5978   7.889  13.937   9.703
68049SOL    HW1 5979   7.936  13.903   9.626
68049SOL    HW2 5980   7.797  13.929   9.679
68050SOL     OW 5981   3.833  12.982   9.935
68050SOL    HW1 5982   3.751  13.028   9.917
68050SOL    HW2 5983   3.816  12.892   9.909
68051SOL     OW 5984   4.248  13.003  13.007
68051SOL    HW1 5985   4.276  12.920  12.968
68051SOL    HW2 5986   4.153  12.999  13.007
68052SOL     OW 5987   5.183   8.365   8.009
68052SOL    HW1 5988   5.156   8.388   8.097
68052SOL    HW2 5989   5.246   8.294   8.021
68053SOL     OW 5990  12.852   1.067  10.142
68053SOL    HW1 5991  12.931   1.116  10.166
68053SOL    HW2 5992  12.859   1.055  10.047
68054SOL     OW 5993   5.445   5.142  11.201
68054SOL    HW1 5994   5.532   5.136  11.162
68054SOL    HW2 5995   5.461   5.141  11.296
68055SOL     OW 5996   5.647   1.910   1.862
68055SOL    HW1 5997   5.662   1.948   1.949
68055SOL    HW2 5998   5.734   1.894   1.827
68056SOL     OW 5999   5.574   5.086   3.063
68056SOL    HW1 6000   5.662   5.122   3.058
68056SOL    HW2 6001   5.536   5.128   3.141
68057SOL     OW 6002   5.617   1.427  12.979
68057SOL    HW1 6003   5.570   1.482  13.042
68057SOL    HW2 6004   5.662   1.488  12.922
68058SOL     OW 6005   5.564   0.378   4.302
68058SOL    HW1 6006   5.538   0.286   4.300
68058SOL    HW2 6007   5.482   0.426   4.313
68059SOL     OW 6008  10.745   1.617   2.487
68059SOL    HW1 6009  10.668   1.588   2.536
68059SOL    HW2 6010  10.749   1.558   2.411
68060SOL     OW 6011  13.095   9.696   6.324
68060SOL    HW1 6012  13.054   9.767   6.275
68060SOL    HW2 6013  13.088   9.724   6.415
68061SOL     OW 6014   1.364  12.487   2.521
68061SOL    HW1 6015   1.439  12.429   2.514
68061SOL    HW2 6016   1.300  12.452   2.458
68062SOL     OW 6017   9.177   5.011   0.481
68062SOL    HW1 6018   9.269   4.992   0.499
68062SOL    HW2 6019   9.173   5.107   0.479
68063SOL     OW 6020   9.854   2.059  12.276
68063SOL    HW1 6021   9.950   2.051  12.283
68063SOL    HW2 6022   9.821   1.998  12.342
68064SOL     OW 6023   3.734   2.734  14.867
68064SOL    HW1 6024   3.689   2.783  14.798
68064SOL    HW2 6025   3.798   2.796   0.027
68065SOL     OW 6026   3.625   4.629  11.671
68065SOL    HW1 6027   3.562   4.577  11.721
68065SOL    HW2 6028   3.592   4.626  11.582
68066SOL     OW 6029   0.042  13.918  10.483
68066SOL    HW1 6030   0.045  13.824  10.467
68066SOL    HW2 6031  14.865  13.953  10.412
68067SOL     OW 6032   6.907  14.805   7.381
68067SOL    HW1 6033   6.944   0.011   7.413
68067SOL    HW2 6034   6.952  14.789   7.298
68068SOL     OW 6035   2.843  11.013   9.585
68068SOL    HW1 6036   2.798  11.085   9.628
68068SOL    HW2 6037   2.913  10.989   9.646
68069SOL     OW 6038   4.938  12.149   1.788
68069SOL    HW1 6039   4.991  12.202   1.729
68069SOL    HW2 6040   5.000  12.092   1.833
68070SOL     OW 6041   1.662  12.965  11.951
68070SOL    HW1 6042   1.756  12.969  11.968
68070SOL    HW2 6043   1.625  13.035  12.005
68071SOL     OW 6044   3.872   2.572  12.739
68071SOL    HW1 6045   3.931   2.581  12.664
68071SOL    HW2 6046   3.796   2.526  12.703
68072SOL     OW 6047  10.325   2.510  11.135
68072SOL    HW1 6048  10.269   2.433  11.135
68072SOL    HW2 6049  10.414   2.475  11.143
68073SOL     OW 6050  12.463  10.316   5.575
68073SOL    HW1 6051  12.485  10.352   5.661
68073SOL    HW2 6052  12.512  10.234   5.570
68074SOL     OW 6053  10.532  10.427   0.373
68074SOL    HW1 6054  10.538  10.472   0.289
68074SOL    HW2 6055  10.527  10.498   0.437
68075SOL     OW 6056   4.865  10.271   8.748
68075SOL    HW1 6057   4.915  10.333   8.694
68075SOL    HW2 6058   4.910  10.270   8.832
68076SOL     OW 6059   2.905   9.407   8.739
68076SOL    HW1 6060   2.829   9.362   8.777
68076SOL    HW2 6061   2.913   9.488   8.790
68077SOL     OW 6062   8.843   0.344   5.246
68077SOL    HW1 6063   8.834   0.335   5.341
68077SOL    HW2 6064   8.758   0.378   5.217
68078SOL     OW 6065   2.322  11.819   0.114
68078SOL    HW1 6066   2.360  11.750   0.059
68078SOL    HW2 6067   2.278  11.771   0.184
68079SOL     OW 6068  10.599  11.999   1.332
68079SOL    HW1 6069  10.605  11.907   1.307
68079SOL    HW2 6070  10.591  12.046   1.249
68080SOL     OW 6071  12.082   1.263   7.707
68080SOL    HW1 6072  12.053   1.176   7.678
68080SOL    HW2 6073  12.152   1.246   7.769
68081SOL     OW 6074  14.714   5.973  11.959
68081SOL    HW1 6075  14.674   6.006  11.879
68081SOL    HW2 6076  14.641   5.936  12.009
68082SOL     OW 6077   8.818   7.170  10.218
68082SOL    HW1 6078   8.817   7.249  10.165
68082SOL    HW2 6079   8.911   7.149  10.229
68083SOL     OW 6080   7.092  14.843   6.755
68083SOL    HW1 6081   7.173   0.003   6.790
68083SOL    HW2 6082   7.045   0.043   6.719
68084SOL     OW 6083   4.525  14.045   4.604
68084SOL    HW1 6084   4.537  14.136   4.631
68084SOL    HW2 6085   4.518  13.996   4.686
68085SOL     OW 6086  12.117  10.273   6.055
68085SOL    HW1 6087  12.146  10.296   5.967
68085SOL    HW2 6088  12.039  10.220   6.043
68086SOL     OW 6089  11.053   3.490   6.846
68086SOL    HW1 6090  11.070   3.465   6.755
68086SOL    HW2 6091  11.136   3.525   6.877
68087SOL     OW 6092   5.866   1.109  14.392
68087SOL    HW1 6093   5.959   1.119  14.413
68087SOL    HW2 6094   5.825   1.082  14.474
68088SOL     OW 6095   5.573   2.223   6.834
68088SOL    HW1 6096   5.571   2.194   6.742
68088SOL    HW2 6097   5.639   2.292   6.836
68089SOL     OW 6098   4.930   3.050   5.778
68089SOL    HW1 6099   4.895   3.037   5.866
68089SOL    HW2 6100   4.954   3.143   5.776
68090SOL     OW 6101   2.280   0.098   7.789
68090SOL    HW1 6102   2.321   0.131   7.709
68090SOL    HW2 6103   2.354   0.079   7.848
68091SOL     OW 6104   8.034  14.133   5.207
68091SOL    HW1 6105   7.999  14.206   5.258
68091SOL    HW2 6106   7.970  14.121   5.137
68092SOL     OW 6107   7.738   9.052   2.088
68092SOL    HW1 6108   7.695   8.981   2.041
68092SOL    HW2 6109   7.830   9.024   2.094
68093SOL     OW 6110   8.714   0.112   0.671
68093SOL    HW1 6111   8.751   0.196   0.645
68093SOL    HW2 6112   8.639   0.100   0.613
68094SOL     OW 6113   9.549   5.707  13.909
68094SOL    HW1 6114   9.540   5.771  13.979
68094SOL    HW2 6115   9.536   5.757  13.828
68095SOL     OW 6116  10.885   5.624   8.839
68095SOL    HW1 6117  10.811   5.569   8.865
68095SOL    HW2 6118  10.846   5.707   8.814
68096SOL     OW 6119   1.525   9.453  10.618
68096SOL    HW1 6120   1.448   9.450  10.562
68096SOL    HW2 6121   1.501   9.401  10.695
68097SOL     OW 6122  12.935   6.590  13.089
68097SOL    HW1 6123  12.982   6.589  13.173
68097SOL    HW2 6124  12.959   6.508  13.047
68098SOL     OW 6125   5.005  11.476   3.819
68098SOL    HW1 6126   5.095  11.450   3.838
68098SOL    HW2 6127   4.976  11.412   3.754
68099SOL     OW 6128  13.652   6.807   1.162
68099SOL    HW1 6129  13.602   6.734   1.123
68099SOL    HW2 6130  13.735   6.808   1.114
68100SOL     OW 6131   0.754   0.101   3.019
68100SOL    HW1 6132   0.708   0.018   3.012
68100SOL    HW2 6133   0.842   0.077   3.047
68101SOL     OW 6134  10.344   5.775   7.180
68101SOL    HW1 6135  10.366   5.868   7.174
68101SOL    HW2 6136  10.281   5.760   7.109
68102SOL     OW 6137  14.829   1.208   2.291
68102SOL    HW1 6138  14.867   1.257   2.364
68102SOL    HW2 6139  14.848   1.262   2.214
68103SOL     OW 6140   5.810   5.493  12.417
68103SOL    HW1 6141   5.756   5.491  12.497
68103SOL    HW2 6142   5.872   5.421  12.429
68104SOL     OW 6143   2.544   4.514   2.029
68104SOL    HW1 6144   2.575   4.587   2.084
68104SOL    HW2 6145   2.456   4.540   2.003
68105SOL     OW 6146  13.131  13.062   8.065
68105SOL    HW1 6147  13.112  13.100   8.151
68105SOL    HW2 6148  13.152  12.970   8.084
68106SOL     OW 6149   9.215   8.531   2.719
68106SOL    HW1 6150   9.179   8.471   2.783
68106SOL    HW2 6151   9.282   8.580   2.767
68107SOL     OW 6152  14.161   7.649   2.471
68107SOL    HW1 6153  14.180   7.740   2.448
68107SOL    HW2 6154  14.241   7.618   2.514
68108SOL     OW 6155  10.626  14.630   6.592
68108SOL    HW1 6156  10.720  14.614   6.598
68108SOL    HW2 6157  10.586  14.556   6.639
68109SOL     OW 6158   6.903  10.356  10.224
68109SOL    HW1 6159   6.915  10.446  10.195
68109SOL    HW2 6160   6.809  10.348  10.240
68110SOL     OW 6161   2.640   5.947  10.730
68110SOL    HW1 6162   2.719   5.975  10.683
68110SOL    HW2 6163   2.568   5.971  10.672
68111SOL     OW 6164  11.824  12.073   5.879
68111SOL    HW1 6165  11.900  12.131   5.887
68111SOL    HW2 6166  11.749  12.131   5.869
68112SOL     OW 6167   6.864  14.353   4.005
68112SOL    HW1 6168   6.819  14.337   3.922
68112SOL    HW2 6169   6.817  14.426   4.045
68113SOL     OW 6170   7.327  12.163  12.270
68113SOL    HW1 6171   7.344  12.254  12.298
68113SOL    HW2 6172   7.413  12.122  12.269
68114SOL     OW 6173  13.424   4.908   4.631
68114SOL    HW1 6174  13.481   4.984   4.641
68114SOL    HW2 6175  13.338   4.937   4.662
68115SOL     OW 6176   9.756   1.932  11.983
68115SOL    HW1 6177   9.751   1.881  12.064
68115SOL    HW2 6178   9.847   1.959  11.977
68116SOL     OW 6179   0.261   0.899   4.597
68116SOL    HW1 6180   0.330   0.852   4.550
68116SOL    HW2 6181   0.308   0.952   4.661
68117SOL     OW 6182   0.272   7.242   1.817
68117SOL    HW1 6183   0.359   7.281   1.818
68117SOL    HW2 6184   0.235   7.264   1.902
68118SOL     OW 6185   2.724  10.965  13.119
68118SOL    HW1 6186   2.645  10.964  13.172
68118SOL    HW2 6187   2.796  10.966  13.182
68119SOL     OW 6188   4.977   2.650   3.039
68119SOL    HW1 6189   4.961   2.732   2.993
68119SOL    HW2 6190   4.929   2.584   2.990
68120SOL     OW 6191   2.961   2.122  11.755
68120SOL    HW1 6192   2.976   2.212  11.783
68120SOL    HW2 6193   3.035   2.073  11.790
68121SOL     OW 6194  10.101   1.511  10.616
68121SOL    HW1 6195  10.078   1.427  10.577
68121SOL    HW2 6196  10.176   1.492  10.672
68122SOL     OW 6197   4.931   7.680  14.034
68122SOL    HW1 6198   4.852   7.731  14.051
68122SOL    HW2 6199   4.977   7.729  13.966
68123SOL     OW 6200   9.654  11.126  13.366
68123SOL    HW1 6201   9.727  11.077  13.327
68123SOL    HW2 6202   9.612  11.170  13.293
68124SOL     OW 6203  11.688   2.268   8.652
68124SOL    HW1 6204  11.673   2.359   8.624
68124SOL    HW2 6205  11.727   2.277   8.739
68125SOL     OW 6206   1.521   6.200   9.565
68125SOL    HW1 6207   1.533   6.145   9.643
68125SOL    HW2 6208   1.592   6.263   9.569
68126SOL     OW 6209  10.424  12.527   9.319
68126SOL    HW1 6210  10.486  12.456   9.307
68126SOL    HW2 6211  10.382  12.537   9.233
68127SOL     OW 6212   5.728   3.515   7.337
68127SOL    HW1 6213   5.757   3.551   7.253
68127SOL    HW2 6214   5.712   3.423   7.319
68128SOL     OW 6215   7.660  11.973  13.372
68128SOL    HW1 6216   7.590  11.986  13.437
68128SOL    HW2 6217   7.679  11.879  13.378
68129SOL     OW 6218   4.564   4.293  10.568
68129SOL    HW1 6219   4.540   4.332  10.652
68129SOL    HW2 6220   4.482   4.290  10.518
68130SOL     OW 6221   8.575   5.445   1.441
68130SOL    HW1 6222   8.580   5.406   1.354
68130SOL    HW2 6223   8.665   5.469   1.462
68131SOL     OW 6224   3.516   3.839   5.531
68131SOL    HW1 6225   3.445   3.847   5.468
68131SOL    HW2 6226   3.511   3.749   5.562
68132SOL     OW 6227  11.680   4.902  11.351
68132SOL    HW1 6228  11.667   4.834  11.417
68132SOL    HW2 6229  11.598   4.903  11.302
68133SOL     OW 6230  14.191   5.522   4.716
68133SOL    HW1 6231  14.282   5.551   4.714
68133SOL    HW2 6232  14.165   5.533   4.808
68134SOL     OW 6233  11.499   0.206  14.005
68134SOL    HW1 6234  11.555   0.201  13.928
68134SOL    HW2 6235  11.424   0.258  13.978
68135SOL     OW 6236  12.727   1.098  13.067
68135SOL    HW1 6237  12.654   1.144  13.110
68135SOL    HW2 6238  12.794   1.165  13.054
68136SOL     OW 6239   2.085   5.604   8.150
68136SOL    HW1 6240   2.027   5.679   8.164
68136SOL    HW2 6241   2.044   5.533   8.200
68137SOL     OW 6242  11.780   5.416   2.879
68137SOL    HW1 6243  11.794   5.323   2.861
68137SOL    HW2 6244  11.705   5.440   2.825
68138SOL     OW 6245   3.727  11.607   8.985
68138SOL    HW1 6246   3.763  11.519   8.998
68138SOL    HW2 6247   3.772  11.640   8.908
68139SOL     OW 6248   6.836   9.908   9.054
68139SOL    HW1 6249   6.742   9.888   9.056
68139SOL    HW2 6250   6.871   9.864   9.131
68140SOL     OW 6251  11.135   7.946   8.046
68140SOL    HW1 6252  11.092   8.031   8.038
68140SOL    HW2 6253  11.200   7.958   8.115
68141SOL     OW 6254   4.148   5.354  12.757
68141SOL    HW1 6255   4.129   5.411  12.832
68141SOL    HW2 6256   4.214   5.294  12.788
68142SOL     OW 6257   8.335   0.023   3.782
68142SOL    HW1 6258   8.263   0.056   3.835
68142SOL    HW2 6259   8.296  14.828   3.731
68143SOL     OW 6260   0.858   0.309  11.489
68143SOL    HW1 6261   0.771   0.346  11.504
68143SOL    HW2 6262   0.885   0.278  11.575
68144SOL     OW 6263  14.596   6.263   4.104
68144SOL    HW1 6264  14.543   6.309   4.170
68144SOL    HW2 6265  14.564   6.172   4.107
68145SOL     OW 6266  11.280   8.846   5.892
68145SOL    HW1 6267  11.210   8.783   5.906
68145SOL    HW2 6268  11.350   8.797   5.849
68146SOL     OW 6269  14.221   4.445   5.517
68146SOL    HW1 6270  14.193   4.412   5.602
68146SOL    HW2 6271  14.286   4.381   5.486
68147SOL     OW 6272  11.006   6.935   1.657
68147SOL    HW1 6273  11.093   6.917   1.693
68147SOL    HW2 6274  10.985   6.857   1.605
68148SOL     OW 6275  13.413  14.196   7.757
68148SOL    HW1 6276  13.381  14.238   7.837
68148SOL    HW2 6277  13.477  14.132   7.788
68149SOL     OW 6278  11.698   9.787  10.583
68149SOL    HW1 6279  11.767   9.769  10.646
68149SOL    HW2 6280  11.631   9.720  10.600
68150SOL     OW 6281   9.888   7.023  10.671
68150SOL    HW1 6282   9.957   7.052  10.730
68150SOL    HW2 6283   9.920   6.939  10.636
68151SOL     OW 6284   0.877   6.059   3.744
68151SOL    HW1 6285   0.925   5.985   3.783
68151SOL    HW2 6286   0.824   6.092   3.816
68152SOL     OW 6287   0.261  11.235   7.283
68152SOL    HW1 6288   0.282  11.270   7.370
68152SOL    HW2 6289   0.250  11.313   7.228
68153SOL     OW 6290   5.491   8.104   7.255
68153SOL    HW1 6291   5.551   8.114   7.328
68153SOL    HW2 6292   5.474   8.009   7.251
68154SOL     OW 6293   7.193  11.583  12.940
68154SOL    HW1 6294   7.249  11.507  12.952
68154SOL    HW2 6295   7.239  11.654  12.984
68155SOL     OW 6296   6.844  14.761   1.707
68155SOL    HW1 6297   6.910  14.830   1.703
68155SOL    HW2 6298   6.859  14.709   1.629
68156SOL     OW 6299   4.792   7.179  13.824
68156SOL    HW1 6300   4.814   7.270  13.844
68156SOL    HW2 6301   4.833   7.164  13.739
68157SOL     OW 6302   4.817   1.909   3.573
68157SOL    HW1 6303   4.899   1.860   3.580
68157SOL    HW2 6304   4.827   1.960   3.493
68158SOL     OW 6305   8.142   8.979  10.014
68158SOL    HW1 6306   8.083   9.001   9.943
68158SOL    HW2 6307   8.121   9.041  10.084
68159SOL     OW 6308   7.459   8.658   7.450
68159SOL    HW1 6309   7.507   8.587   7.494
68159SOL    HW2 6310   7.370   8.652   7.485
68160SOL     OW 6311   5.406   2.086   6.213
68160SOL    HW1 6312   5.408   2.176   6.247
68160SOL    HW2 6313   5.322   2.051   6.243
68161SOL     OW 6314  12.466  10.630   0.645
68161SOL    HW1 6315  12.410  10.640   0.722
68161SOL    HW2 6316  12.551  10.602   0.680
68162SOL     OW 6317   4.791   1.104   3.031
68162SOL    HW1 6318   4.744   1.159   3.093
68162SOL    HW2 6319   4.883   1.128   3.041
68163SOL     OW 6320   0.137   3.865   2.715
68163SOL    HW1 6321   0.223   3.826   2.702
68163SOL    HW2 6322   0.130   3.879   2.809
68164SOL     OW 6323   2.635   4.633   7.980
68164SOL    HW1 6324   2.664   4.552   7.939
68164SOL    HW2 6325   2.691   4.701   7.943
68165SOL     OW 6326   2.691  10.364   7.441
68165SOL    HW1 6327   2.648  10.328   7.364
68165SOL    HW2 6328   2.620  10.401   7.493
68166SOL     OW 6329  14.243   0.029  12.766
68166SOL    HW1 6330  14.317   0.037  12.706
68166SOL    HW2 6331  14.170   0.002  12.711
68167SOL     OW 6332   3.498   1.837   5.747
68167SOL    HW1 6333   3.567   1.785   5.705
68167SOL    HW2 6334   3.488   1.914   5.691
68168SOL     OW 6335   6.312   0.079   2.383
68168SOL    HW1 6336   6.303   0.019   2.458
68168SOL    HW2 6337   6.402   0.067   2.353
68169SOL     OW 6338   4.067  14.217  13.841
68169SOL    HW1 6339   4.020  14.231  13.923
68169SOL    HW2 6340   4.000  14.189  13.778
68170SOL     OW 6341   9.309   1.462  10.083
68170SOL    HW1 6342   9.244   1.425  10.023
68170SOL    HW2 6343   9.392   1.453  10.038
68171SOL     OW 6344   5.962   3.665   6.706
68171SOL    HW1 6345   6.046   3.627   6.731
68171SOL    HW2 6346   5.906   3.590   6.689
68172SOL     OW 6347  12.039   3.869   1.922
68172SOL    HW1 6348  12.018   3.809   1.851
68172SOL    HW2 6349  11.960   3.871   1.976
68173SOL     OW 6350  12.465   4.777   8.617
68173SOL    HW1 6351  12.473   4.754   8.524
68173SOL    HW2 6352  12.475   4.872   8.619
68174SOL     OW 6353   3.007   2.414   0.053
68174SOL    HW1 6354   3.008   2.329   0.010
68174SOL    HW2 6355   2.981   2.476  14.860
68175SOL     OW 6356   0.857   9.000   2.385
68175SOL    HW1 6357   0.828   9.090   2.392
68175SOL    HW2 6358   0.790   8.957   2.332
68176SOL     OW 6359   3.026   5.336  14.314
68176SOL    HW1 6360   3.088   5.379  14.255
68176SOL    HW2 6361   3.057   5.245  14.317
68177SOL     OW 6362   6.228   2.260  11.816
68177SOL    HW1 6363   6.174   2.200  11.766
68177SOL    HW2 6364   6.265   2.207  11.886
68178SOL     OW 6365   1.342   2.065  12.915
68178SOL    HW1 6366   1.403   2.108  12.975
68178SOL    HW2 6367   1.398   2.023  12.850
68179SOL     OW 6368   5.097   1.390  10.622
68179SOL    HW1 6369   5.121   1.480  10.598
68179SOL    HW2 6370   5.105   1.341  10.540
68180SOL     OW 6371  10.967   0.850   0.744
68180SOL    HW1 6372  11.030   0.884   0.680
68180SOL    HW2 6373  10.910   0.924   0.764
68181SOL     OW 6374  13.524  10.979   8.381
68181SOL    HW1 6375  13.457  11.029   8.334
68181SOL    HW2 6376  13.534  11.024   8.465
68182SOL     OW 6377   0.232   3.602   6.387
68182SOL    HW1 6378   0.302   3.656   6.350
68182SOL    HW2 6379   0.278   3.529   6.428
68183SOL     OW 6380   8.987   1.481   7.610
68183SOL    HW1 6381   9.050   1.439   7.667
68183SOL    HW2 6382   8.902   1.462   7.649
68184SOL     OW 6383  14.629   7.927   2.194
68184SOL    HW1 6384  14.659   7.836   2.190
68184SOL    HW2 6385  14.544   7.926   2.149
68185SOL     OW 6386   3.992   2.155  10.018
68185SOL    HW1 6387   3.908   2.163  10.062
68185SOL    HW2 6388   4.017   2.063  10.030
68186SOL     OW 6389   9.328   8.138   2.589
68186SOL    HW1 6390   9.348   8.199   2.660
68186SOL    HW2 6391   9.375   8.058   2.612
68187SOL     OW 6392   9.692   2.502  13.220
68187SOL    HW1 6393   9.634   2.574  13.242
68187SOL    HW2 6394   9.780   2.539  13.227
68188SOL     OW 6395  10.036   6.350   8.280
68188SOL    HW1 6396   9.973   6.391   8.220
68188SOL    HW2 6397  10.004   6.375   8.367
68189SOL     OW 6398   1.825   0.991   2.102
68189SOL    HW1 6399   1.851   0.936   2.177
68189SOL    HW2 6400   1.786   0.929   2.040
68190SOL     OW 6401  14.836   4.178  11.234
68190SOL    HW1 6402  14.793   4.157  11.317
68190SOL    HW2 6403  14.826   4.099  11.181
68191SOL     OW 6404  10.195   3.764   1.356
68191SOL    HW1 6405  10.221   3.713   1.280
68191SOL    HW2 6406  10.116   3.811   1.327
68192SOL     OW 6407   1.988   7.600   4.092
68192SOL    HW1 6408   2.073   7.560   4.110
68192SOL    HW2 6409   1.998   7.691   4.120
68193SOL     OW 6410  12.500   2.377   2.476
68193SOL    HW1 6411  12.558   2.365   2.401
68193SOL    HW2 6412  12.440   2.447   2.449
68194SOL     OW 6413  10.344   3.635   6.177
68194SOL    HW1 6414  10.397   3.556   6.172
68194SOL    HW2 6415  10.390   3.691   6.240
68195SOL     OW 6416   1.763   1.774  13.792
68195SOL    HW1 6417   1.776   1.697  13.737
68195SOL    HW2 6418   1.845   1.823  13.785
68196SOL     OW 6419   5.474   0.722  12.224
68196SOL    HW1 6420   5.527   0.744  12.301
68196SOL    HW2 6421   5.525   0.655  12.179
68197SOL     OW 6422   7.795  11.880  10.715
68197SOL    HW1 6423   7.804  11.785  10.714
68197SOL    HW2 6424   7.721  11.898  10.657
68198SOL     OW 6425  11.297   5.113   4.880
68198SOL    HW1 6426  11.242   5.057   4.934
68198SOL    HW2 6427  11.351   5.161   4.942
68199SOL     OW 6428  12.699  13.298   9.859
68199SOL    HW1 6429  12.754  13.286   9.781
68199SOL    HW2 6430  12.704  13.391   9.878
68200SOL     OW 6431  14.710  12.039   2.257
68200SOL    HW1 6432  14.647  12.027   2.329
68200SOL    HW2 6433  14.752  11.953   2.248
68201SOL     OW 6434   6.929  13.464  14.480
68201SOL    HW1 6435   6.980  13.498  14.406
68201SOL    HW2 6436   6.913  13.541  14.535
68202SOL     OW 6437   6.857   3.760   2.663
68202SOL    HW1 6438   6.934   3.716   2.628
68202SOL    HW2 6439   6.786   3.697   2.651
68203SOL     OW 6440   2.076   2.166  11.538
68203SOL    HW1 6441   2.168   2.168  11.561
68203SOL    HW2 6442   2.039   2.095  11.590
68204SOL     OW 6443   1.382   3.158   8.943
68204SOL    HW1 6444   1.441   3.231   8.960
68204SOL    HW2 6445   1.418   3.115   8.865
68205SOL     OW 6446   4.803   0.528   5.053
68205SOL    HW1 6447   4.729   0.554   5.107
68205SOL    HW2 6448   4.835   0.610   5.015
68206SOL     OW 6449   1.473  12.580   9.947
68206SOL    HW1 6450   1.528  12.587  10.025
68206SOL    HW2 6451   1.457  12.486   9.938
68207SOL     OW 6452   1.895   7.157  10.865
68207SOL    HW1 6453   1.882   7.068  10.831
68207SOL    HW2 6454   1.937   7.204  10.793
68208SOL     OW 6455  14.620   6.837  14.746
68208SOL    HW1 6456  14.611   6.882  14.830
68208SOL    HW2 6457  14.640   6.746  14.770
68209SOL     OW 6458   5.682  12.909   7.980
68209SOL    HW1 6459   5.692  12.919   8.075
68209SOL    HW2 6460   5.591  12.882   7.968
68210SOL     OW 6461   4.493   1.015   5.903
68210SOL    HW1 6462   4.450   0.936   5.935
68210SOL    HW2 6463   4.486   1.010   5.808
68211SOL     OW 6464   8.144   4.774   1.698
68211SOL    HW1 6465   8.053   4.768   1.670
68211SOL    HW2 6466   8.144   4.839   1.768
68212SOL     OW 6467   4.099  11.914  10.428
68212SOL    HW1 6468   4.141  11.986  10.382
68212SOL    HW2 6469   4.024  11.953  10.472
68213SOL     OW 6470   9.748   5.014  12.515
68213SOL    HW1 6471   9.755   5.093  12.462
68213SOL    HW2 6472   9.725   4.945  12.452
68214SOL     OW 6473   3.574   3.074  14.041
68214SOL    HW1 6474   3.654   3.023  14.054
68214SOL    HW2 6475   3.558   3.067  13.946
68215SOL     OW 6476  10.717  11.303   0.369
68215SOL    HW1 6477  10.739  11.274   0.458
68215SOL    HW2 6478  10.776  11.377   0.353
68216SOL     OW 6479  11.115   7.904   2.861
68216SOL    HW1 6480  11.075   7.977   2.814
68216SOL    HW2 6481  11.172   7.946   2.925
68217SOL     OW 6482  12.754   1.139   4.248
68217SOL    HW1 6483  12.797   1.100   4.172
68217SOL    HW2 6484  12.822   1.194   4.288
68218SOL     OW 6485   1.351   1.825   5.880
68218SOL    HW1 6486   1.358   1.816   5.975
68218SOL    HW2 6487   1.420   1.887   5.857
68219SOL     OW 6488  10.731  11.688  13.496
68219SOL    HW1 6489  10.652  11.741  13.504
68219SOL    HW2 6490  10.702  11.598  13.515
68220SOL     OW 6491  12.503  12.685  13.130
68220SOL    HW1 6492  12.561  12.723  13.195
68220SOL    HW2 6493  12.497  12.592  13.154
68221SOL     OW 6494   5.015   7.713  13.350
68221SOL    HW1 6495   4.943   7.771  13.325
68221SOL    HW2 6496   4.972   7.635  13.385
68222SOL     OW 6497   7.235   1.109   8.256
68222SOL    HW1 6498   7.230   1.204   8.268
68222SOL    HW2 6499   7.321   1.094   8.217
68223SOL     OW 6500  11.397   2.254  11.902
68223SOL    HW1 6501  11.432   2.312  11.835
68223SOL    HW2 6502  11.454   2.177  11.901
68224SOL     OW 6503  10.522  13.871  10.199
68224SOL    HW1 6504  10.577  13.896  10.125
68224SOL    HW2 6505  10.450  13.934  10.199
68225SOL     OW 6506  10.288   8.496  14.744
68225SOL    HW1 6507  10.274   8.403  14.759
68225SOL    HW2 6508  10.326   8.528  14.826
68226SOL     OW 6509  12.468   7.322  11.452
68226SOL    HW1 6510  12.495   7.323  11.543
68226SOL    HW2 6511  12.540   7.364  11.405
68227SOL     OW 6512   9.748   7.991  13.085
68227SOL    HW1 6513   9.769   7.995  12.992
68227SOL    HW2 6514   9.726   8.081  13.109
68228SOL     OW 6515   7.770  12.219   3.523
68228SOL    HW1 6516   7.710  12.277   3.569
68228SOL    HW2 6517   7.818  12.174   3.593
68229SOL     OW 6518  11.010   7.646  13.180
68229SOL    HW1 6519  11.083   7.678  13.233
68229SOL    HW2 6520  10.962   7.725  13.155
68230SOL     OW 6521   6.620   8.991   1.659
68230SOL    HW1 6522   6.632   9.083   1.634
68230SOL    HW2 6523   6.540   8.964   1.613
68231SOL     OW 6524   0.359   4.243   2.813
68231SOL    HW1 6525   0.412   4.316   2.844
68231SOL    HW2 6526   0.407   4.165   2.842
68232SOL     OW 6527   5.126   2.282   1.280
68232SOL    HW1 6528   5.076   2.355   1.244
68232SOL    HW2 6529   5.177   2.249   1.207
68233SOL     OW 6530   3.958  13.754   7.427
68233SOL    HW1 6531   3.990  13.760   7.337
68233SOL    HW2 6532   3.912  13.670   7.431
68234SOL     OW 6533  13.263   7.664   5.978
68234SOL    HW1 6534  13.359   7.658   5.981
68234SOL    HW2 6535  13.244   7.750   6.017
68235SOL     OW 6536   5.193   6.345  12.244
68235SOL    HW1 6537   5.195   6.269  12.301
68235SOL    HW2 6538   5.129   6.323  12.176
68236SOL     OW 6539   6.342   8.596  14.815
68236SOL    HW1 6540   6.344   8.664   0.006
68236SOL    HW2 6541   6.278   8.628  14.750
68237SOL     OW 6542  11.758   4.525   9.757
68237SOL    HW1 6543  11.775   4.530   9.663
68237SOL    HW2 6544  11.675   4.570   9.769
68238SOL     OW 6545  11.864  10.844  14.304
68238SOL    HW1 6546  11.958  10.841  14.287
68238SOL    HW2 6547  11.840  10.936  14.294
68239SOL     OW 6548   2.842  10.350   8.652
68239SOL    HW1 6549   2.887  10.359   8.568
68239SOL    HW2 6550   2.875  10.422   8.705
68240SOL     OW 6551  12.168   0.100   9.423
68240SOL    HW1 6552  12.162   0.192   9.399
68240SOL    HW2 6553  12.173   0.100   9.518
68241SOL     OW 6554   5.032   0.388   4.564
68241SOL    HW1 6555   4.974   0.313   4.548
68241SOL    HW2 6556   5.040   0.391   4.660
68242SOL     OW 6557   9.653   5.437  14.874
68242SOL    HW1 6558   9.626   5.349  14.849
68242SOL    HW2 6559   9.686   5.476  14.793
68243SOL     OW 6560   4.787  10.801  13.316
68243SOL    HW1 6561   4.867  10.787  13.265
68243SOL    HW2 6562   4.726  10.735  13.284
68244SOL     OW 6563   5.754   9.879   5.807
68244SOL    HW1 6564   5.825   9.900   5.868
68244SOL    HW2 6565   5.697   9.956   5.809
68245SOL     OW 6566   8.818  13.071   5.980
68245SOL    HW1 6567   8.781  13.102   5.898
68245SOL    HW2 6568   8.913  13.083   5.970
68246SOL     OW 6569   5.271   2.460   4.626
68246SOL    HW1 6570   5.234   2.534   4.676
68246SOL    HW2 6571   5.196   2.423   4.580
68247SOL     OW 6572  11.801  10.620   1.136
68247SOL    HW1 6573  11.722  10.567   1.127
68247SOL    HW2 6574  11.840  10.619   1.049
68248SOL     OW 6575   8.256  11.110   3.553
68248SOL    HW1 6576   8.251  11.205   3.564
68248SOL    HW2 6577   8.333  11.098   3.496
68249SOL     OW 6578   0.137   0.368  11.137
68249SOL    HW1 6579   0.043   0.350  11.144
68249SOL    HW2 6580   0.176   0.325  11.213
68250SOL     OW 6581  12.059  10.120   4.052
68250SOL    HW1 6582  12.115  10.196   4.038
68250SOL    HW2 6583  12.078  10.062   3.978
68251SOL     OW 6584   2.992  14.233   8.142
68251SOL    HW1 6585   3.040  14.316   8.133
68251SOL    HW2 6586   3.005  14.208   8.234
68252SOL     OW 6587   9.434   3.311  10.362
68252SOL    HW1 6588   9.379   3.377  10.405
68252SOL    HW2 6589   9.372   3.249  10.323
68253SOL     OW 6590   7.194   4.234   8.056
68253SOL    HW1 6591   7.277   4.246   8.102
68253SOL    HW2 6592   7.166   4.146   8.080
68254SOL     OW 6593   7.593   8.107   6.945
68254SOL    HW1 6594   7.502   8.109   6.974
68254SOL    HW2 6595   7.596   8.039   6.878
68255SOL     OW 6596  10.536   4.760   2.471
68255SOL    HW1 6597  10.456   4.746   2.420
68255SOL    HW2 6598  10.606   4.757   2.406
68256SOL     OW 6599   1.650   9.333  14.022
68256SOL    HW1 6600   1.631   9.367  13.935
68256SOL    HW2 6601   1.702   9.401  14.064
68257SOL     OW 6602   8.994   7.463  11.081
68257SOL    HW1 6603   8.902   7.448  11.101
68257SOL    HW2 6604   9.015   7.545  11.128
68258SOL     OW 6605   5.328  13.074  11.862
68258SOL    HW1 6606   5.345  13.013  11.791
68258SOL    HW2 6607   5.346  13.161  11.825
68259SOL     OW 6608   5.251   1.134   2.116
68259SOL    HW1 6609   5.181   1.120   2.053
68259SOL    HW2 6610   5.232   1.220   2.155
68260SOL     OW 6611   4.341  11.041   3.855
68260SOL    HW1 6612   4.276  10.972   3.873
68260SOL    HW2 6613   4.306  11.118   3.899
68261SOL     OW 6614   3.721   0.443   0.548
68261SOL    HW1 6615   3.711   0.348   0.551
68261SOL    HW2 6616   3.642   0.475   0.504
68262SOL     OW 6617  12.141   7.267   9.641
68262SOL    HW1 6618  12.084   7.343   9.629
68262SOL    HW2 6619  12.085   7.192   9.620
68263SOL     OW 6620   9.020  11.979   9.228
68263SOL    HW1 6621   8.991  11.899   9.272
68263SOL    HW2 6622   8.995  11.966   9.137
68264SOL     OW 6623  13.494   4.155   9.690
68264SOL    HW1 6624  13.585   4.152   9.659
68264SOL    HW2 6625  13.463   4.065   9.680
68265SOL     OW 6626  13.956   4.831   9.474
68265SOL    HW1 6627  13.880   4.829   9.417
68265SOL    HW2 6628  14.019   4.886   9.427
68266SOL     OW 6629   9.584   7.955   4.541
68266SOL    HW1 6630   9.506   7.990   4.582
68266SOL    HW2 6631   9.604   8.016   4.470
68267SOL     OW 6632  13.853  10.656   1.860
68267SOL    HW1 6633  13.889  10.675   1.773
68267SOL    HW2 6634  13.823  10.740   1.893
68268SOL     OW 6635   1.846   2.115   8.171
68268SOL    HW1 6636   1.783   2.186   8.158
68268SOL    HW2 6637   1.931   2.160   8.175
68269SOL     OW 6638   4.650   3.779  14.653
68269SOL    HW1 6639   4.741   3.750  14.648
68269SOL    HW2 6640   4.599   3.701  14.633
68270SOL     OW 6641   5.402   7.604   3.540
68270SOL    HW1 6642   5.426   7.620   3.631
68270SOL    HW2 6643   5.481   7.566   3.501
68271SOL     OW 6644  13.723  14.834  11.730
68271SOL    HW1 6645  13.686  14.769  11.790
68271SOL    HW2 6646  13.744   0.033  11.785
68272SOL     OW 6647  13.482  13.910   1.325
68272SOL    HW1 6648  13.536  13.834   1.345
68272SOL    HW2 6649  13.541  13.970   1.280
68273SOL     OW 6650   3.002   0.882   6.886
68273SOL    HW1 6651   3.021   0.972   6.911
68273SOL    HW2 6652   3.032   0.876   6.795
68274SOL     OW 6653  13.259  13.803  14.397
68274SOL    HW1 6654  13.204  13.729  14.368
68274SOL    HW2 6655  13.325  13.812  14.329
68275SOL     OW 6656   6.745  11.508   0.812
68275SOL    HW1 6657   6.686  11.556   0.869
68275SOL    HW2 6658   6.776  11.573   0.749
68276SOL     OW 6659  10.022   5.975   6.810
68276SOL    HW1 6660  10.023   5.962   6.715
68276SOL    HW2 6661   9.999   6.068   6.821
68277SOL     OW 6662   4.530  10.593  13.623
68277SOL    HW1 6663   4.549  10.621  13.533
68277SOL    HW2 6664   4.591  10.521  13.639
68278SOL     OW 6665   1.217   9.374   6.354
68278SOL    HW1 6666   1.262   9.341   6.276
68278SOL    HW2 6667   1.274   9.443   6.388
68279SOL     OW 6668   1.412  14.458   8.425
68279SOL    HW1 6669   1.378  14.477   8.338
68279SOL    HW2 6670   1.449  14.541   8.455
68280SOL     OW 6671   6.875  13.796   2.191
68280SOL    HW1 6672   6.863  13.846   2.111
68280SOL    HW2 6673   6.932  13.850   2.246
68281SOL     OW 6674   8.290  10.025   9.183
68281SOL    HW1 6675   8.238   9.951   9.215
68281SOL    HW2 6676   8.256  10.100   9.232
68282SOL     OW 6677   5.479   3.021   0.734
68282SOL    HW1 6678   5.498   2.930   0.757
68282SOL    HW2 6679   5.563   3.057   0.708
68283SOL     OW 6680   1.258   0.436   7.345
68283SOL    HW1 6681   1.248   0.357   7.397
68283SOL    HW2 6682   1.176   0.484   7.357
68284SOL     OW 6683   8.670   4.808  11.083
68284SOL    HW1 6684   8.642   4.733  11.135
68284SOL    HW2 6685   8.601   4.820  11.019
68285SOL     OW 6686   2.207   9.150   8.709
68285SOL    HW1 6687   2.187   9.059   8.733
68285SOL    HW2 6688   2.133   9.177   8.654
68286SOL     OW 6689  12.029  14.480   1.698
68286SOL    HW1 6690  11.944  14.503   1.661
68286SOL    HW2 6691  12.025  14.508   1.789
68287SOL     OW 6692   4.528   5.461   6.141
68287SOL    HW1 6693   4.529   5.556   6.124
68287SOL    HW2 6694   4.570   5.452   6.227
68288SOL     OW 6695   0.250   4.874  11.368
68288SOL    HW1 6696   0.252   4.894  11.462
68288SOL    HW2 6697   0.325   4.920  11.332
68289SOL     OW 6698   5.389  11.440   7.187
68289SOL    HW1 6699   5.392  11.528   7.149
68289SOL    HW2 6700   5.309  11.441   7.241
68290SOL     OW 6701  14.280  13.889   5.475
68290SOL    HW1 6702  14.220  13.831   5.521
68290SOL    HW2 6703  14.234  13.913   5.395
68291SOL     OW 6704   0.902   6.156   9.462
68291SOL    HW1 6705   0.957   6.177   9.537
68291SOL    HW2 6706   0.894   6.239   9.414
68292SOL     OW 6707  11.148   9.889   5.965
68292SOL    HW1 6708  11.075   9.950   5.953
68292SOL    HW2 6709  11.114   9.823   6.025
68293SOL     OW 6710   7.634   1.259  14.866
68293SOL    HW1 6711   7.572   1.207  14.814
68293SOL    HW2 6712   7.718   1.215  14.853
68294SOL     OW 6713  10.740   6.384   9.359
68294SOL    HW1 6714  10.820   6.344   9.325
68294SOL    HW2 6715  10.691   6.410   9.281
68295SOL     OW 6716  14.821   9.753   0.230
68295SOL    HW1 6717  14.728   9.778   0.226
68295SOL    HW2 6718  14.828   9.700   0.309
68296SOL     OW 6719   3.501  14.164   4.083
68296SOL    HW1 6720   3.546  14.122   4.157
68296SOL    HW2 6721   3.547  14.129   4.006
68297SOL     OW 6722  11.181   9.154   2.862
68297SOL    HW1 6723  11.157   9.200   2.782
68297SOL    HW2 6724  11.185   9.223   2.929
68298SOL     OW 6725   9.700   1.038   7.541
68298SOL    HW1 6726   9.768   1.063   7.479
68298SOL    HW2 6727   9.704   1.104   7.610
68299SOL     OW 6728   5.660  13.004   7.031
68299SOL    HW1 6729   5.673  13.079   6.973
68299SOL    HW2 6730   5.583  12.960   6.995
68300SOL     OW 6731  13.055   6.221   4.047
68300SOL    HW1 6732  12.967   6.233   4.012
68300SOL    HW2 6733  13.097   6.162   3.984
68301SOL     OW 6734   3.631  13.950   3.904
68301SOL    HW1 6735   3.584  13.868   3.889
68301SOL    HW2 6736   3.703  13.925   3.962
68302SOL     OW 6737   1.648   0.838   7.004
68302SOL    HW1 6738   1.558   0.861   6.977
68302SOL    HW2 6739   1.638   0.756   7.053
68303SOL     OW 6740  10.572   1.833   2.652
68303SOL    HW1 6741  10.519   1.878   2.718
68303SOL    HW2 6742  10.522   1.754   2.632
68304SOL     OW 6743   8.646   4.929   2.285
68304SOL    HW1 6744   8.678   4.936   2.195
68304SOL    HW2 6745   8.662   5.015   2.323
68305SOL     OW 6746  12.094   3.081  13.448
68305SOL    HW1 6747  12.052   3.142  13.508
68305SOL    HW2 6748  12.037   3.082  13.370
68306SOL     OW 6749   1.503  11.423  13.137
68306SOL    HW1 6750   1.563  11.474  13.082
68306SOL    HW2 6751   1.551  11.343  13.157
68307SOL     OW 6752  12.768  13.086  10.297
68307SOL    HW1 6753  12.680  13.048  10.299
68307SOL    HW2 6754  12.794  13.090  10.389
68308SOL     OW 6755   6.247  11.560   5.961
68308SOL    HW1 6756   6.195  11.488   5.998
68308SOL    HW2 6757   6.338  11.531   5.971
68309SOL     OW 6758  14.818   7.757   9.511
68309SOL    HW1 6759   0.018   7.722   9.558
68309SOL    HW2 6760  14.746   7.698   9.534
68310SOL     OW 6761   3.846   7.313  10.386
68310SOL    HW1 6762   3.831   7.405  10.367
68310SOL    HW2 6763   3.831   7.269  10.302
68311SOL     OW 6764   6.241   1.135   7.487
68311SOL    HW1 6765   6.248   1.152   7.393
68311SOL    HW2 6766   6.240   1.039   7.494
68312SOL     OW 6767   0.673   3.296  12.613
68312SOL    HW1 6768   0.610   3.241  12.660
68312SOL    HW2 6769   0.689   3.370  12.672
68313SOL     OW 6770   2.415   0.079  10.584
68313SOL    HW1 6771   2.492   0.084  10.527
68313SOL    HW2 6772   2.373  14.872  10.560
68314SOL     OW 6773   2.597  10.876   4.026
68314SOL    HW1 6774   2.655  10.900   3.954
68314SOL    HW2 6775   2.637  10.798   4.064
68315SOL     OW 6776   4.569  11.591   4.444
68315SOL    HW1 6777   4.558  11.521   4.378
68315SOL    HW2 6778   4.571  11.671   4.392
68316SOL     OW 6779   4.420  14.581   3.972
68316SOL    HW1 6780   4.429  14.489   3.998
68316SOL    HW2 6781   4.331  14.605   4.001
68317SOL     OW 6782   6.802   9.487   0.001
68317SOL    HW1 6783   6.893   9.513   0.009
68317SOL    HW2 6784   6.759   9.524   0.078
68318SOL     OW 6785   7.522   3.075   4.512
68318SOL    HW1 6786   7.426   3.072   4.507
68318SOL    HW2 6787   7.540   3.105   4.602
68319SOL     OW 6788  14.049   4.041  14.207
68319SOL    HW1 6789  14.096   4.107  14.258
68319SOL    HW2 6790  14.105   4.026  14.131
68320SOL     OW 6791   1.816   5.972   3.269
68320SOL    HW1 6792   1.808   6.067   3.277
68320SOL    HW2 6793   1.834   5.956   3.177
68321SOL     OW 6794   1.079  11.617  10.894
68321SOL    HW1 6795   0.984  11.625  10.892
68321SOL    HW2 6796   1.098  11.574  10.977
68322SOL     OW 6797  10.657  10.369   5.250
68322SOL    HW1 6798  10.583  10.411   5.293
68322SOL    HW2 6799  10.633  10.276   5.246
68323SOL     OW 6800   5.185  14.556   0.644
68323SOL    HW1 6801   5.139  14.544   0.727
68323SOL    HW2 6802   5.250  14.485   0.642
68324SOL     OW 6803  11.478   3.030   7.303
68324SOL    HW1 6804  11.465   3.090   7.376
68324SOL    HW2 6805  11.572   3.029   7.289
68325SOL     OW 6806   5.831   1.022   3.405
68325SOL    HW1 6807   5.877   1.079   3.344
68325SOL    HW2 6808   5.796   0.952   3.351
68326SOL     OW 6809   2.210   0.784  11.052
68326SOL    HW1 6810   2.214   0.877  11.028
68326SOL    HW2 6811   2.163   0.783  11.135
68327SOL     OW 6812  10.431   2.978   0.206
68327SOL    HW1 6813  10.377   2.980   0.285
68327SOL    HW2 6814  10.423   2.888   0.173
68328SOL     OW 6815  12.839   7.956   6.191
68328SOL    HW1 6816  12.774   7.942   6.260
68328SOL    HW2 6817  12.889   8.033   6.221
68329SOL     OW 6818  13.817   2.713  14.178
68329SOL    HW1 6819  13.821   2.644  14.112
68329SOL    HW2 6820  13.878   2.684  14.246
68330SOL     OW 6821   7.458   9.346   6.983
68330SOL    HW1 6822   7.424   9.435   6.989
68330SOL    HW2 6823   7.546   9.357   6.946
68331SOL     OW 6824   6.189   6.901  13.006
68331SOL    HW1 6825   6.147   6.899  12.920
68331SOL    HW2 6826   6.268   6.953  12.992
68332SOL     OW 6827   6.146  12.561   8.672
68332SOL    HW1 6828   6.072  12.541   8.730
68332SOL    HW2 6829   6.110  12.555   8.584
68333SOL     OW 6830   4.831   9.877   2.581
68333SOL    HW1 6831   4.846   9.901   2.490
68333SOL    HW2 6832   4.771   9.802   2.576
68334SOL     OW 6833   8.982   8.993   5.320
68334SOL    HW1 6834   8.898   8.958   5.349
68334SOL    HW2 6835   9.023   9.028   5.399
68335SOL     OW 6836   0.772  11.056  13.930
68335SOL    HW1 6837   0.835  10.988  13.956
68335SOL    HW2 6838   0.816  11.138  13.949
68336SOL     OW 6839  11.319  10.901   0.459
68336SOL    HW1 6840  11.368  10.839   0.514
68336SOL    HW2 6841  11.230  10.868   0.459
68337SOL     OW 6842   9.262  13.582   5.807
68337SOL    HW1 6843   9.283  13.643   5.736
68337SOL    HW2 6844   9.309  13.617   5.883
68338SOL     OW 6845  11.676  11.973   1.424
68338SOL    HW1 6846  11.723  11.890   1.430
68338SOL    HW2 6847  11.642  11.974   1.334
68339SOL     OW 6848  12.831  12.746   3.335
68339SOL    HW1 6849  12.750  12.793   3.314
68339SOL    HW2 6850  12.881  12.747   3.254
68340SOL     OW 6851  12.677   7.775  14.103
68340SOL    HW1 6852  12.605   7.718  14.075
68340SOL    HW2 6853  12.698   7.826  14.025
68341SOL     OW 6854   4.854   5.672   5.146
68341SOL    HW1 6855   4.826   5.718   5.067
68341SOL    HW2 6856   4.921   5.728   5.185
68342SOL     OW 6857   0.389  10.181   4.159
68342SOL    HW1 6858   0.459  10.191   4.095
68342SOL    HW2 6859   0.383  10.086   4.173
68343SOL     OW 6860  14.064   0.464   0.977
68343SOL    HW1 6861  14.124   0.443   0.905
68343SOL    HW2 6862  13.990   0.404   0.964
68344SOL     OW 6863   4.224   7.855   4.142
68344SOL    HW1 6864   4.272   7.928   4.104
68344SOL    HW2 6865   4.271   7.836   4.224
68345SOL     OW 6866  10.480   3.946  13.089
68345SOL    HW1 6867  10.458   3.911  13.003
68345SOL    HW2 6868  10.397   3.978  13.124
68346SOL     OW 6869   6.869   9.725  10.372
68346SOL    HW1 6870   6.872   9.773  10.289
68346SOL    HW2 6871   6.780   9.690  10.376
68347SOL     OW 6872   7.009  12.666   0.637
68347SOL    HW1 6873   6.927  12.652   0.686
68347SOL    HW2 6874   7.072  12.607   0.678
68348SOL     OW 6875  11.306   3.984  14.867
68348SOL    HW1 6876  11.324   3.912   0.052
68348SOL    HW2 6877  11.254   4.047   0.041
68349SOL     OW 6878   7.304   2.814  13.573
68349SOL    HW1 6879   7.346   2.850  13.495
68349SOL    HW2 6880   7.320   2.880  13.641
68350SOL     OW 6881   1.279   0.105  13.483
68350SOL    HW1 6882   1.205   0.129  13.428
68350SOL    HW2 6883   1.307   0.020  13.450
68351SOL     OW 6884   1.468   2.823   2.647
68351SOL    HW1 6885   1.383   2.791   2.617
68351SOL    HW2 6886   1.525   2.814   2.570
68352SOL     OW 6887  13.331   9.167   5.660
68352SOL    HW1 6888  13.299   9.111   5.730
68352SOL    HW2 6889  13.303   9.255   5.685
68353SOL     OW 6890  10.489   1.368   5.380
68353SOL    HW1 6891  10.491   1.318   5.299
68353SOL    HW2 6892  10.399   1.399   5.387
68354SOL     OW 6893  13.642  11.810   7.871
68354SOL    HW1 6894  13.681  11.842   7.952
68354SOL    HW2 6895  13.678  11.722   7.861
68355SOL     OW 6896  10.057   4.000   0.039
68355SOL    HW1 6897   9.968   4.036   0.036
68355SOL    HW2 6898  10.059   3.935  14.845
68356SOL     OW 6899   8.300   2.423   9.453
68356SOL    HW1 6900   8.231   2.361   9.431
68356SOL    HW2 6901   8.369   2.406   9.389
68357SOL     OW 6902  11.659  12.931   4.126
68357SOL    HW1 6903  11.655  12.850   4.175
68357SOL    HW2 6904  11.591  12.986   4.164
68358SOL     OW 6905   0.981   9.147   9.652
68358SOL    HW1 6906   1.050   9.130   9.716
68358SOL    HW2 6907   0.900   9.145   9.702
68359SOL     OW 6908   3.361  10.064  10.449
68359SOL    HW1 6909   3.346   9.970  10.451
68359SOL    HW2 6910   3.362  10.086  10.355
68360SOL     OW 6911  12.556   6.676  11.980
68360SOL    HW1 6912  12.616   6.603  11.987
68360SOL    HW2 6913  12.597   6.735  11.916
68361SOL     OW 6914  12.129  10.661   6.253
68361SOL    HW1 6915  12.105  10.572   6.228
68361SOL    HW2 6916  12.115  10.663   6.348
68362SOL     OW 6917   1.710  12.982   7.920
68362SOL    HW1 6918   1.680  12.961   8.009
68362SOL    HW2 6919   1.805  12.972   7.924
68363SOL     OW 6920   4.719  13.293  13.909
68363SOL    HW1 6921   4.788  13.265  13.849
68363SOL    HW2 6922   4.662  13.216  13.917
68364SOL     OW 6923   0.490   4.060   3.688
68364SOL    HW1 6924   0.413   4.032   3.736
68364SOL    HW2 6925   0.553   3.988   3.698
68365SOL     OW 6926   1.589  14.663  13.655
68365SOL    HW1 6927   1.555  14.751  13.671
68365SOL    HW2 6928   1.590  14.622  13.742
68366SOL     OW 6929   1.354   7.863   5.857
68366SOL    HW1 6930   1.382   7.772   5.865
68366SOL    HW2 6931   1.316   7.869   5.769
68367SOL     OW 6932   1.767   1.320   4.943
68367SOL    HW1 6933   1.697   1.317   5.009
68367SOL    HW2 6934   1.803   1.408   4.951
68368SOL     OW 6935   4.572  10.893  13.417
68368SOL    HW1 6936   4.522  10.895  13.336
68368SOL    HW2 6937   4.660  10.867  13.390
68369SOL     OW 6938   5.593   6.151   2.929
68369SOL    HW1 6939   5.583   6.091   3.002
68369SOL    HW2 6940   5.510   6.198   2.924
68370SOL     OW 6941   5.172   5.659  13.679
68370SOL    HW1 6942   5.223   5.619  13.609
68370SOL    HW2 6943   5.087   5.614  13.675
68371SOL     OW 6944   0.319   6.730   0.414
68371SOL    HW1 6945   0.236   6.765   0.446
68371SOL    HW2 6946   0.349   6.794   0.350
68372SOL     OW 6947   4.842  14.075   6.724
68372SOL    HW1 6948   4.792  14.150   6.692
68372SOL    HW2 6949   4.933  14.101   6.716
68373SOL     OW 6950   3.539   2.906   1.449
68373SOL    HW1 6951   3.616   2.938   1.403
68373SOL    HW2 6952   3.572   2.872   1.532
68374SOL     OW 6953   1.928   4.991  13.012
68374SOL    HW1 6954   1.934   4.900  12.985
68374SOL    HW2 6955   1.943   4.989  13.107
68375SOL     OW 6956   7.391   3.589   4.428
68375SOL    HW1 6957   7.353   3.616   4.512
68375SOL    HW2 6958   7.480   3.623   4.429
68376SOL     OW 6959   6.895   2.901  13.350
68376SOL    HW1 6960   6.924   2.814  13.324
68376SOL    HW2 6961   6.921   2.909  13.441
68377SOL     OW 6962   7.737  12.286  10.206
68377SOL    HW1 6963   7.748  12.270  10.300
68377SOL    HW2 6964   7.740  12.199  10.166
68378SOL     OW 6965   9.426   3.162  12.758
68378SOL    HW1 6966   9.373   3.125  12.829
68378SOL    HW2 6967   9.481   3.090  12.729
68379SOL     OW 6968   8.575   6.898   2.377
68379SOL    HW1 6969   8.663   6.922   2.406
68379SOL    HW2 6970   8.569   6.935   2.289
68380SOL     OW 6971  13.110   0.071  13.573
68380SOL    HW1 6972  13.141   0.152  13.614
68380SOL    HW2 6973  13.017   0.067  13.596
68381SOL     OW 6974  14.236   2.177  12.791
68381SOL    HW1 6975  14.273   2.259  12.759
68381SOL    HW2 6976  14.150   2.172  12.749
68382SOL     OW 6977   7.085   4.714   3.106
68382SOL    HW1 6978   7.085   4.778   3.177
68382SOL    HW2 6979   7.098   4.766   3.027
68383SOL     OW 6980   6.943   4.451   5.440
68383SOL    HW1 6981   6.924   4.369   5.395
68383SOL    HW2 6982   6.962   4.425   5.530
68384SOL     OW 6983  14.429   1.629   8.320
68384SOL    HW1 6984  14.516   1.669   8.313
68384SOL    HW2 6985  14.441   1.539   8.288
68385SOL     OW 6986   7.928  10.661  12.131
68385SOL    HW1 6987   7.874  10.652  12.052
68385SOL    HW2 6988   7.896  10.741  12.173
68386SOL     OW 6989   9.630   7.517   5.182
68386SOL    HW1 6990   9.540   7.514   5.150
68386SOL    HW2 6991   9.671   7.438   5.147
68387SOL     OW 6992   0.803   1.843   1.737
68387SOL    HW1 6993   0.727   1.804   1.693
68387SOL    HW2 6994   0.791   1.938   1.726
68388SOL     OW 6995  14.538  11.725  10.671
68388SOL    HW1 6996  14.479  11.777  10.617
68388SOL    HW2 6997  14.525  11.758  10.760
68389SOL     OW 6998   6.913   6.952   9.866
68389SOL    HW1 6999   6.890   7.022   9.805
68389SOL    HW2 7000   6.850   6.962   9.938
68390SOL     OW 7001  11.357   4.888   2.302
68390SOL    HW1 7002  11.315   4.959   2.253
68390SOL    HW2 7003  11.436   4.927   2.338
68391SOL     OW 7004  10.583  13.129  10.728
68391SOL    HW1 7005  10.662  13.116  10.780
68391SOL    HW2 7006  10.545  13.041  10.720
68392SOL     OW 7007  11.900   4.486   4.174
68392SOL    HW1 7008  11.915   4.464   4.082
68392SOL    HW2 7009  11.957   4.427   4.222
68393SOL     OW 7010   9.007   8.258   4.747
68393SOL    HW1 7011   9.023   8.194   4.816
68393SOL    HW2 7012   9.000   8.342   4.793
68394SOL     OW 7013   6.524   8.363   3.067
68394SOL    HW1 7014   6.574   8.331   3.141
68394SOL    HW2 7015   6.557   8.452   3.051
68395SOL     OW 7016  10.247  11.341   6.121
68395SOL    HW1 7017  10.218  11.284   6.192
68395SOL    HW2 7018  10.168  11.363   6.073
68396SOL     OW 7019  10.918   3.525  11.059
68396SOL    HW1 7020  10.895   3.594  10.997
68396SOL    HW2 7021  11.013   3.530  11.065
68397SOL     OW 7022   9.525   0.466   5.291
68397SOL    HW1 7023   9.598   0.422   5.248
68397SOL    HW2 7024   9.471   0.498   5.218
68398SOL     OW 7025   1.419   7.756   7.403
68398SOL    HW1 7026   1.409   7.666   7.372
68398SOL    HW2 7027   1.347   7.768   7.465
68399SOL     OW 7028  13.389   7.968   5.069
68399SOL    HW1 7029  13.404   8.035   5.003
68399SOL    HW2 7030  13.420   8.008   5.151
68400SOL     OW 7031   7.933   5.289  12.859
68400SOL    HW1 7032   7.893   5.374  12.875
68400SOL    HW2 7033   7.911   5.269  12.768
68401SOL     OW 7034   1.252   8.123   5.164
68401SOL    HW1 7035   1.308   8.045   5.157
68401SOL    HW2 7036   1.274   8.175   5.087
68402SOL     OW 7037   7.729   8.170   2.868
68402SOL    HW1 7038   7.800   8.119   2.830
68402SOL    HW2 7039   7.650   8.137   2.826
68403SOL     OW 7040   8.665  12.223   6.056
68403SOL    HW1 7041   8.610  12.199   5.982
68403SOL    HW2 7042   8.630  12.308   6.086
68404SOL     OW 7043  14.494   1.436  14.382
68404SOL    HW1 7044  14.401   1.453  14.365
68404SOL    HW2 7045  14.499   1.342  14.398
68405SOL     OW 7046   1.584   1.242   8.765
68405SOL    HW1 7047   1.671   1.210   8.785
68405SOL    HW2 7048   1.599   1.326   8.720
68406SOL     OW 7049   8.202   9.126  12.798
68406SOL    HW1 7050   8.216   9.186  12.725
68406SOL    HW2 7051   8.107   9.124  12.809
68407SOL     OW 7052  14.703   9.298   5.035
68407SOL    HW1 7053  14.720   9.323   5.126
68407SOL    HW2 7054  14.636   9.230   5.041
68408SOL     OW 7055  12.031   9.811   8.955
68408SOL    HW1 7056  11.954   9.764   8.985
68408SOL    HW2 7057  12.051   9.873   9.025
68409SOL     OW 7058   7.178   0.267  13.774
68409SOL    HW1 7059   7.266   0.305  13.778
68409SOL    HW2 7060   7.119   0.342  13.779
68410SOL     OW 7061   2.319   8.841   5.635
68410SOL    HW1 7062   2.227   8.815   5.628
68410SOL    HW2 7063   2.367   8.758   5.635
68411SOL     OW 7064  12.219  13.071   5.771
68411SOL    HW1 7065  12.168  13.088   5.851
68411SOL    HW2 7066  12.187  13.135   5.708
68412SOL     OW 7067   4.928   5.618   3.058
68412SOL    HW1 7068   4.954   5.581   2.974
68412SOL    HW2 7069   4.896   5.544   3.108
68413SOL     OW 7070   2.961   8.511   7.189
68413SOL    HW1 7071   2.937   8.589   7.239
68413SOL    HW2 7072   2.968   8.541   7.099
68414SOL     OW 7073  11.428   2.373   5.054
68414SOL    HW1 7074  11.425   2.367   5.149
68414SOL    HW2 7075  11.379   2.296   5.023
68415SOL     OW 7076   8.830   4.943   8.183
68415SOL    HW1 7077   8.904   4.963   8.241
68415SOL    HW2 7078   8.861   4.871   8.128
68416SOL     OW 7079   1.354   5.452  12.225
68416SOL    HW1 7080   1.400   5.372  12.251
68416SOL    HW2 7081   1.352   5.449  12.130
68417SOL     OW 7082  12.310   1.189   3.094
68417SOL    HW1 7083  12.363   1.183   3.015
68417SOL    HW2 7084  12.354   1.255   3.147
68418SOL     OW 7085   3.942  10.697   5.271
68418SOL    HW1 7086   3.959  10.628   5.206
68418SOL    HW2 7087   3.990  10.669   5.348
68419SOL     OW 7088   3.364  10.768  12.740
68419SOL    HW1 7089   3.315  10.745  12.819
68419SOL    HW2 7090   3.440  10.710  12.740
68420SOL     OW 7091  11.010   1.612   6.861
68420SOL    HW1 7092  11.016   1.519   6.883
68420SOL    HW2 7093  10.946   1.615   6.790
68421SOL     OW 7094   2.268   7.321  13.580
68421SOL    HW1 7095   2.221   7.321  13.663
68421SOL    HW2 7096   2.360   7.326  13.605
68422SOL     OW 7097   0.669   7.381  11.462
68422SOL    HW1 7098   0.594   7.337  11.502
68422SOL    HW2 7099   0.637   7.410  11.377
68423SOL     OW 7100  12.257   5.700   9.784
68423SOL    HW1 7101  12.292   5.772   9.731
68423SOL    HW2 7102  12.177   5.736   9.824
68424SOL     OW 7103   1.805  10.083   1.309
68424SOL    HW1 7104   1.874  10.102   1.247
68424SOL    HW2 7105   1.848  10.084   1.395
68425SOL     OW 7106  11.543   5.039   3.329
68425SOL    HW1 7107  11.457   5.019   3.366
68425SOL    HW2 7108  11.528   5.116   3.274
68426SOL     OW 7109  12.807   2.071   4.745
68426SOL    HW1 7110  12.807   2.163   4.718
68426SOL    HW2 7111  12.844   2.024   4.670
68427SOL     OW 7112  10.769   0.972  10.631
68427SOL    HW1 7113  10.807   0.906  10.573
68427SOL    HW2 7114  10.842   1.006  10.682
68428SOL     OW 7115  12.476   3.816  13.157
68428SOL    HW1 7116  12.446   3.771  13.078
68428SOL    HW2 7117  12.547   3.872  13.127
68429SOL     OW 7118   5.729   9.733   3.968
68429SOL    HW1 7119   5.737   9.810   4.024
68429SOL    HW2 7120   5.783   9.753   3.892
68430SOL     OW 7121  13.373   8.180   4.885
68430SOL    HW1 7122  13.290   8.217   4.854
68430SOL    HW2 7123  13.428   8.256   4.901
68431SOL     OW 7124  11.835   4.644   0.460
68431SOL    HW1 7125  11.914   4.686   0.428
68431SOL    HW2 7126  11.791   4.612   0.381
68432SOL     OW 7127   0.942   1.552  14.333
68432SOL    HW1 7128   0.998   1.515  14.264
68432SOL    HW2 7129   0.988   1.630  14.362
68433SOL     OW 7130   5.048  10.073   9.601
68433SOL    HW1 7131   5.060  10.005   9.535
68433SOL    HW2 7132   5.132  10.076   9.648
68434SOL     OW 7133  13.507  10.960   9.993
68434SOL    HW1 7134  13.598  10.932   9.990
68434SOL    HW2 7135  13.481  10.969   9.902
68435SOL     OW 7136  10.409  13.856  10.486
68435SOL    HW1 7137  10.472  13.830  10.554
68435SOL    HW2 7138  10.463  13.866  10.407
68436SOL     OW 7139   7.484   9.115  13.790
68436SOL    HW1 7140   7.515   9.055  13.857
68436SOL    HW2 7141   7.413   9.164  13.832
68437SOL     OW 7142  12.754  12.948   8.188
68437SOL    HW1 7143  12.687  12.898   8.236
68437SOL    HW2 7144  12.825  12.885   8.173
68438SOL     OW 7145   0.251   4.340   3.412
68438SOL    HW1 7146   0.227   4.415   3.358
68438SOL    HW2 7147   0.177   4.280   3.403
68439SOL     OW 7148   1.476   4.226   0.445
68439SOL    HW1 7149   1.389   4.186   0.452
68439SOL    HW2 7150   1.532   4.170   0.499
68440SOL     OW 7151  13.556   0.359  14.794
68440SOL    HW1 7152  13.610   0.409  14.732
68440SOL    HW2 7153  13.592   0.380   0.004
68441SOL     OW 7154  14.448   4.522   2.499
68441SOL    HW1 7155  14.514   4.491   2.562
68441SOL    HW2 7156  14.499   4.571   2.435
68442SOL     OW 7157  11.949   3.677  11.619
68442SOL    HW1 7158  12.022   3.729  11.652
68442SOL    HW2 7159  11.874   3.706  11.671
68443SOL     OW 7160  12.820   8.589  13.361
68443SOL    HW1 7161  12.822   8.651  13.434
68443SOL    HW2 7162  12.845   8.505  13.401
68444SOL     OW 7163   8.891  10.208  13.389
68444SOL    HW1 7164   8.801  10.190  13.362
68444SOL    HW2 7165   8.910  10.143  13.456
68445SOL     OW 7166   4.758  10.731   2.781
68445SOL    HW1 7167   4.751  10.724   2.686
68445SOL    HW2 7168   4.676  10.770   2.809
68446SOL     OW 7169  11.561   9.931  11.463
68446SOL    HW1 7170  11.652   9.911  11.439
68446SOL    HW2 7171  11.560  10.026  11.473
68447SOL     OW 7172   8.672   5.566   7.871
68447SOL    HW1 7173   8.656   5.657   7.899
68447SOL    HW2 7174   8.711   5.574   7.784
68448SOL     OW 7175  13.621   3.013  13.579
68448SOL    HW1 7176  13.690   3.073  13.551
68448SOL    HW2 7177  13.646   2.987  13.668
68449SOL     OW 7178   2.969   3.018   6.199
68449SOL    HW1 7179   3.038   3.081   6.223
68449SOL    HW2 7180   3.016   2.939   6.175
68450SOL     OW 7181   9.903  13.562   0.189
68450SOL    HW1 7182   9.891  13.540   0.282
68450SOL    HW2 7183   9.997  13.554   0.174
68451SOL     OW 7184   6.105   3.005   5.154
68451SOL    HW1 7185   6.162   2.933   5.180
68451SOL    HW2 7186   6.161   3.082   5.157
68452SOL     OW 7187   1.673   2.084   6.683
68452SOL    HW1 7188   1.616   2.010   6.663
68452SOL    HW2 7189   1.652   2.106   6.774
68453SOL     OW 7190   5.845   4.718   1.726
68453SOL    HW1 7191   5.796   4.661   1.785
68453SOL    HW2 7192   5.802   4.803   1.734
68454SOL     OW 7193   6.374  13.074   9.372
68454SOL    HW1 7194   6.438  13.142   9.349
68454SOL    HW2 7195   6.415  12.992   9.345
68455SOL     OW 7196   5.387   9.719   6.131
68455SOL    HW1 7197   5.308   9.767   6.105
68455SOL    HW2 7198   5.422   9.685   6.048
68456SOL     OW 7199   9.837  10.049   1.465
68456SOL    HW1 7200   9.795   9.988   1.404
68456SOL    HW2 7201   9.866  10.121   1.410
68457SOL     OW 7202   5.698  10.799   2.827
68457SOL    HW1 7203   5.615  10.761   2.856
68457SOL    HW2 7204   5.764  10.754   2.879
68458SOL     OW 7205   4.255   7.703   4.427
68458SOL    HW1 7206   4.166   7.674   4.407
68458SOL    HW2 7207   4.244   7.765   4.499
68459SOL     OW 7208   0.043   1.944   9.692
68459SOL    HW1 7209   0.026   2.018   9.750
68459SOL    HW2 7210   0.109   1.892   9.737
68460SOL     OW 7211  10.986   7.299   0.530
68460SOL    HW1 7212  10.974   7.265   0.619
68460SOL    HW2 7213  10.919   7.368   0.522
68461SOL     OW 7214   6.320   9.091  13.408
68461SOL    HW1 7215   6.354   9.168  13.363
68461SOL    HW2 7216   6.254   9.055  13.349
68462SOL     OW 7217  11.769   3.572  14.481
68462SOL    HW1 7218  11.700   3.615  14.431
68462SOL    HW2 7219  11.842   3.634  14.479
68463SOL     OW 7220   4.952   3.414  12.458
68463SOL    HW1 7221   4.866   3.450  12.478
68463SOL    HW2 7222   4.960   3.424  12.363
68464SOL     OW 7223   2.635   9.808   8.146
68464SOL    HW1 7224   2.549   9.789   8.182
68464SOL    HW2 7225   2.690   9.824   8.222
68465SOL     OW 7226  14.457  12.650   7.810
68465SOL    HW1 7227  14.492  12.664   7.722
68465SOL    HW2 7228  14.532  12.618   7.860
68466SOL     OW 7229   9.393   9.763   3.920
68466SOL    HW1 7230   9.439   9.840   3.887
68466SOL    HW2 7231   9.397   9.699   3.849
68467SOL     OW 7232   9.211   2.179   4.635
68467SOL    HW1 7233   9.264   2.102   4.612
68467SOL    HW2 7234   9.157   2.195   4.558
68468SOL     OW 7235   8.313   9.565   8.208
68468SOL    HW1 7236   8.358   9.627   8.151
68468SOL    HW2 7237   8.227   9.604   8.222
68469SOL     OW 7238   3.850   8.842   0.786
68469SOL    HW1 7239   3.775   8.830   0.728
68469SOL    HW2 7240   3.865   8.755   0.824
68470SOL     OW 7241  10.850   3.579   5.083
68470SOL    HW1 7242  10.864   3.514   5.152
68470SOL    HW2 7243  10.814   3.655   5.128
68471SOL     OW 7244   8.009  11.409   7.153
68471SOL    HW1 7245   8.020  11.459   7.072
68471SOL    HW2 7246   8.087  11.354   7.159
68472SOL     OW 7247   2.272   8.479   0.841
68472SOL    HW1 7248   2.209   8.547   0.862
68472SOL    HW2 7249   2.227   8.422   0.778
68473SOL     OW 7250   2.733   0.881   4.411
68473SOL    HW1 7251   2.730   0.916   4.322
68473SOL    HW2 7252   2.790   0.941   4.459
68474SOL     OW 7253  10.942  14.776  13.759
68474SOL    HW1 7254  11.031  14.804  13.778
68474SOL    HW2 7255  10.889  14.855  13.768
68475SOL     OW 7256  11.206   0.519   3.786
68475SOL    HW1 7257  11.135   0.533   3.849
68475SOL    HW2 7258  11.240   0.432   3.806
68476SOL     OW 7259   1.748   6.266   0.676
68476SOL    HW1 7260   1.666   6.311   0.655
68476SOL    HW2 7261   1.730   6.173   0.660
68477SOL     OW 7262   6.894   3.858   4.795
68477SOL    HW1 7263   6.966   3.804   4.826
68477SOL    HW2 7264   6.816   3.802   4.804
68478SOL     OW 7265   9.188   8.223   1.068
68478SOL    HW1 7266   9.178   8.275   1.147
68478SOL    HW2 7267   9.242   8.149   1.094
68479SOL     OW 7268   8.675   8.054  13.090
68479SOL    HW1 7269   8.710   8.141  13.111
68479SOL    HW2 7270   8.627   8.027  13.169
68480SOL     OW 7271   4.863   1.435   2.180
68480SOL    HW1 7272   4.768   1.448   2.179
68480SOL    HW2 7273   4.886   1.420   2.089
68481SOL     OW 7274   6.603  14.111   3.620
68481SOL    HW1 7275   6.583  14.020   3.640
68481SOL    HW2 7276   6.584  14.120   3.526
68482SOL     OW 7277  13.096   3.759   4.536
68482SOL    HW1 7278  13.028   3.760   4.603
68482SOL    HW2 7279  13.118   3.851   4.523
68483SOL     OW 7280  12.363   7.864  13.912
68483SOL    HW1 7281  12.364   7.914  13.831
68483SOL    HW2 7282  12.340   7.928  13.979
68484SOL     OW 7283   2.395   3.682  11.584
68484SOL    HW1 7284   2.345   3.723  11.654
68484SOL    HW2 7285   2.331   3.662  11.516
68485SOL     OW 7286   4.511   0.982   5.151
68485SOL    HW1 7287   4.469   0.910   5.104
68485SOL    HW2 7288   4.485   1.061   5.102
68486SOL     OW 7289   2.934   5.240   7.443
68486SOL    HW1 7290   2.973   5.180   7.507
68486SOL    HW2 7291   2.853   5.198   7.416
68487SOL     OW 7292  12.724   2.041  13.001
68487SOL    HW1 7293  12.713   2.133  12.977
68487SOL    HW2 7294  12.770   2.002  12.926
68488SOL     OW 7295   6.491   4.044   6.795
68488SOL    HW1 7296   6.530   3.977   6.852
68488SOL    HW2 7297   6.507   4.012   6.706
68489SOL     OW 7298   8.562  13.822   4.082
68489SOL    HW1 7299   8.551  13.844   3.990
68489SOL    HW2 7300   8.608  13.897   4.120
68490SOL     OW 7301  13.398   2.487  12.423
68490SOL    HW1 7302  13.464   2.549  12.454
68490SOL    HW2 7303  13.434   2.401  12.446
68491SOL     OW 7304   2.730  12.581   0.657
68491SOL    HW1 7305   2.679  12.613   0.731
68491SOL    HW2 7306   2.761  12.660   0.613
68492SOL     OW 7307   4.608   0.276   6.034
68492SOL    HW1 7308   4.605   0.182   6.015
68492SOL    HW2 7309   4.526   0.294   6.079
68493SOL     OW 7310  12.983   8.032   1.843
68493SOL    HW1 7311  13.010   8.012   1.753
68493SOL    HW2 7312  13.062   8.063   1.886
68494SOL     OW 7313  11.322   1.518   9.540
68494SOL    HW1 7314  11.410   1.549   9.562
68494SOL    HW2 7315  11.334   1.428   9.512
68495SOL     OW 7316   0.515   8.078   0.186
68495SOL    HW1 7317   0.517   8.062   0.281
68495SOL    HW2 7318   0.600   8.047   0.155
68496SOL     OW 7319   3.615  14.244   0.342
68496SOL    HW1 7320   3.668  14.169   0.368
68496SOL    HW2 7321   3.653  14.318   0.389
68497SOL     OW 7322   6.327   7.974   2.353
68497SOL    HW1 7323   6.264   8.042   2.379
68497SOL    HW2 7324   6.354   7.999   2.265
68498SOL     OW 7325   0.639   3.743  13.662
68498SOL    HW1 7326   0.583   3.673  13.697
68498SOL    HW2 7327   0.710   3.696  13.618
68499SOL     OW 7328   4.801   9.104   0.041
68499SOL    HW1 7329   4.743   9.078   0.113
68499SOL    HW2 7330   4.743   9.122  14.844
68500SOL     OW 7331   7.720   1.124   2.794
68500SOL    HW1 7332   7.763   1.196   2.748
68500SOL    HW2 7333   7.689   1.066   2.724
68501SOL     OW 7334   4.475   0.841  12.884
68501SOL    HW1 7335   4.569   0.857  12.891
68501SOL    HW2 7336   4.466   0.746  12.890
68502SOL     OW 7337   7.200   7.296   6.784
68502SOL    HW1 7338   7.205   7.362   6.715
68502SOL    HW2 7339   7.109   7.298   6.812
68503SOL     OW 7340   4.484  11.876   1.403
68503SOL    HW1 7341   4.514  11.966   1.419
68503SOL    HW2 7342   4.560  11.833   1.365
68504SOL     OW 7343   6.882   5.246   0.178
68504SOL    HW1 7344   6.811   5.224   0.119
68504SOL    HW2 7345   6.860   5.201   0.260
68505SOL     OW 7346   0.705   7.798   4.193
68505SOL    HW1 7347   0.733   7.779   4.283
68505SOL    HW2 7348   0.786   7.800   4.143
68506SOL     OW 7349   5.136   5.869  12.207
68506SOL    HW1 7350   5.106   5.853  12.297
68506SOL    HW2 7351   5.121   5.786  12.162
68507SOL     OW 7352   3.136  10.403   2.126
68507SOL    HW1 7353   3.213  10.358   2.161
68507SOL    HW2 7354   3.123  10.366   2.039
68508SOL     OW 7355   9.301  14.554   3.298
68508SOL    HW1 7356   9.325  14.642   3.271
68508SOL    HW2 7357   9.280  14.508   3.217
68509SOL     OW 7358  10.921  10.492  14.223
68509SOL    HW1 7359  10.889  10.581  14.241
68509SOL    HW2 7360  10.922  10.487  14.127
68510SOL     OW 7361   3.503   6.260   7.142
68510SOL    HW1 7362   3.439   6.276   7.072
68510SOL    HW2 7363   3.472   6.312   7.216
68511SOL     OW 7364   1.611   9.371  12.719
68511SOL    HW1 7365   1.653   9.440  12.668
68511SOL    HW2 7366   1.677   9.302  12.725
68512SOL     OW 7367   7.232   6.845   3.627
68512SOL    HW1 7368   7.187   6.916   3.580
68512SOL    HW2 7369   7.287   6.890   3.692
68513SOL     OW 7370   2.912   6.413   6.567
68513SOL    HW1 7371   2.895   6.319   6.554
68513SOL    HW2 7372   2.943   6.443   6.482
68514SOL     OW 7373   3.765   6.954   2.688
68514SOL    HW1 7374   3.849   6.976   2.728
68514SOL    HW2 7375   3.723   6.896   2.752
68515SOL     OW 7376  11.303   0.688  12.227
68515SOL    HW1 7377  11.242   0.667  12.298
68515SOL    HW2 7378  11.376   0.626  12.239
68516SOL     OW 7379  11.429   1.795   6.134
68516SOL    HW1 7380  11.500   1.736   6.160
68516SOL    HW2 7381  11.444   1.875   6.184
68517SOL     OW 7382  11.257  12.136   7.403
68517SOL    HW1 7383  11.276  12.064   7.343
68517SOL    HW2 7384  11.237  12.093   7.486
68518SOL     OW 7385  10.074  10.627   0.747
68518SOL    HW1 7386   9.996  10.651   0.697
68518SOL    HW2 7387  10.140  10.608   0.680
68519SOL     OW 7388   3.863   1.619  13.830
68519SOL    HW1 7389   3.918   1.629  13.752
68519SOL    HW2 7390   3.786   1.571  13.799
68520SOL     OW 7391   3.274  11.638   9.997
68520SOL    HW1 7392   3.312  11.675   9.917
68520SOL    HW2 7393   3.347  11.636  10.059
68521SOL     OW 7394   8.138   7.622  14.763
68521SOL    HW1 7395   8.144   7.557  14.832
68521SOL    HW2 7396   8.054   7.605  14.719
68522SOL     OW 7397   5.911   8.264  10.776
68522SOL    HW1 7398   5.818   8.241  10.769
68522SOL    HW2 7399   5.934   8.298  10.689
68523SOL     OW 7400   6.083   0.495  12.188
68523SOL    HW1 7401   6.076   0.424  12.125
68523SOL    HW2 7402   6.148   0.465  12.252
68524SOL     OW 7403   6.163   5.811   0.834
68524SOL    HW1 7404   6.156   5.904   0.856
68524SOL    HW2 7405   6.082   5.791   0.789
68525SOL     OW 7406   9.717   0.744   3.739
68525SOL    HW1 7407   9.716   0.840   3.737
68525SOL    HW2 7408   9.655   0.720   3.807
68526SOL     OW 7409   9.909   4.474   3.593
68526SOL    HW1 7410   9.872   4.562   3.586
68526SOL    HW2 7411   9.839   4.422   3.632
68527SOL     OW 7412  14.024   9.858   0.710
68527SOL    HW1 7413  14.024   9.917   0.786
68527SOL    HW2 7414  13.932   9.835   0.698
68528SOL     OW 7415   2.501   1.822   6.970
68528SOL    HW1 7416   2.594   1.800   6.973
68528SOL    HW2 7417   2.475   1.828   7.062
68529SOL     OW 7418   2.932   6.207   5.690
68529SOL    HW1 7419   2.963   6.166   5.610
68529SOL    HW2 7420   3.006   6.260   5.720
68530SOL     OW 7421  13.806  10.386   9.929
68530SOL    HW1 7422  13.747  10.457   9.955
68530SOL    HW2 7423  13.798  10.321   9.999
68531SOL     OW 7424  14.034  10.434   9.761
68531SOL    HW1 7425  14.069  10.354   9.720
68531SOL    HW2 7426  13.996  10.403   9.843
68532SOL     OW 7427   8.968  11.872   8.549
68532SOL    HW1 7428   9.041  11.931   8.531
68532SOL    HW2 7429   8.968  11.811   8.475
68533SOL     OW 7430   2.770  13.776   3.138
68533SOL    HW1 7431   2.770  13.771   3.233
68533SOL    HW2 7432   2.787  13.869   3.119
68534SOL     OW 7433   7.661   0.501  13.047
68534SOL    HW1 7434   7.740   0.554  13.038
68534SOL    HW2 7435   7.641   0.473  12.957
68535SOL     OW 7436   7.170   0.861   9.007
68535SOL    HW1 7437   7.241   0.799   9.018
68535SOL    HW2 7438   7.211   0.947   9.021
68536SOL     OW 7439  12.055  12.353   9.955
68536SOL    HW1 7440  11.980  12.353  10.014
68536SOL    HW2 7441  12.043  12.432   9.901
68537SOL     OW 7442   9.707  14.290   6.841
68537SOL    HW1 7443   9.702  14.377   6.881
68537SOL    HW2 7444   9.764  14.301   6.765
68538SOL     OW 7445   3.291  14.112   7.595
68538SOL    HW1 7446   3.211  14.158   7.621
68538SOL    HW2 7447   3.294  14.035   7.652
68539SOL     OW 7448  10.842   9.426   1.559
68539SOL    HW1 7449  10.933   9.406   1.539
68539SOL    HW2 7450  10.832   9.518   1.537
68540SOL     OW 7451   1.707   3.372   1.074
68540SOL    HW1 7452   1.643   3.388   1.005
68540SOL    HW2 7453   1.662   3.314   1.135
68541SOL     OW 7454  13.330   8.384   0.937
68541SOL    HW1 7455  13.372   8.394   0.851
68541SOL    HW2 7456  13.244   8.423   0.926
68542SOL     OW 7457   5.557   0.203   6.224
68542SOL    HW1 7458   5.555   0.296   6.204
68542SOL    HW2 7459   5.649   0.178   6.212
68543SOL     OW 7460  14.212   1.693  11.704
68543SOL    HW1 7461  14.118   1.710  11.694
68543SOL    HW2 7462  14.247   1.702  11.615
68544SOL     OW 7463   6.297  12.234   0.614
68544SOL    HW1 7464   6.340  12.310   0.575
68544SOL    HW2 7465   6.285  12.258   0.706
68545SOL     OW 7466  10.850   2.194   9.912
68545SOL    HW1 7467  10.942   2.204   9.937
68545SOL    HW2 7468  10.850   2.124   9.847
68546SOL     OW 7469   6.899  11.309   7.686
68546SOL    HW1 7470   6.962  11.242   7.661
68546SOL    HW2 7471   6.889  11.299   7.780
68547SOL     OW 7472  14.597   9.147  14.831
68547SOL    HW1 7473  14.678   9.176  14.874
68547SOL    HW2 7474  14.623   9.068  14.783
68548SOL     OW 7475   9.297   6.886   6.381
68548SOL    HW1 7476   9.209   6.848   6.385
68548SOL    HW2 7477   9.297   6.955   6.447
68549SOL     OW 7478   6.847   6.713   8.025
68549SOL    HW1 7479   6.827   6.801   7.992
68549SOL    HW2 7480   6.873   6.664   7.947
68550SOL     OW 7481   2.939   5.392   8.177
68550SOL    HW1 7482   3.016   5.343   8.203
68550SOL    HW2 7483   2.875   5.375   8.246
68551SOL     OW 7484   3.773   3.235   5.047
68551SOL    HW1 7485   3.682   3.242   5.018
68551SOL    HW2 7486   3.787   3.312   5.102
68552SOL     OW 7487   5.034  10.051   4.037
68552SOL    HW1 7488   4.990  10.131   4.066
68552SOL    HW2 7489   5.021  10.049   3.942
68553SOL     OW 7490  12.152   4.133  11.637
68553SOL    HW1 7491  12.128   4.210  11.688
68553SOL    HW2 7492  12.121   4.153  11.548
68554SOL     OW 7493   3.770   4.567   6.766
68554SOL    HW1 7494   3.841   4.558   6.703
68554SOL    HW2 7495   3.711   4.494   6.747
68555SOL     OW 7496   3.825  14.119   7.049
68555SOL    HW1 7497   3.787  14.204   7.070
68555SOL    HW2 7498   3.905  14.139   7.000
68556SOL     OW 7499   0.237   1.358  14.065
68556SOL    HW1 7500   0.184   1.360  14.144
68556SOL    HW2 7501   0.308   1.297  14.085
68557SOL     OW 7502  13.380   8.816   9.365
68557SOL    HW1 7503  13.453   8.828   9.426
68557SOL    HW2 7504  13.418   8.767   9.292
68558SOL     OW 7505   7.616   7.150   3.412
68558SOL    HW1 7506   7.637   7.240   3.435
68558SOL    HW2 7507   7.651   7.139   3.323
68559SOL     OW 7508   1.923   6.231  13.434
68559SOL    HW1 7509   1.877   6.152  13.405
68559SOL    HW2 7510   1.992   6.198  13.493
68560SOL     OW 7511   0.574   5.339  11.195
68560SOL    HW1 7512   0.579   5.305  11.285
68560SOL    HW2 7513   0.627   5.419  11.197
68561SOL     OW 7514   4.029   9.531  12.658
68561SOL    HW1 7515   4.070   9.445  12.668
68561SOL    HW2 7516   3.974   9.540  12.736
68562SOL     OW 7517   5.794   4.875   2.265
68562SOL    HW1 7518   5.766   4.883   2.174
68562SOL    HW2 7519   5.871   4.819   2.261
68563SOL     OW 7520   7.804   7.716  11.510
68563SOL    HW1 7521   7.766   7.793  11.551
68563SOL    HW2 7522   7.867   7.683  11.574
68564SOL     OW 7523   4.343   0.857  13.554
68564SOL    HW1 7524   4.314   0.925  13.494
68564SOL    HW2 7525   4.281   0.785  13.539
68565SOL     OW 7526   9.815   0.441   9.710
68565SOL    HW1 7527   9.880   0.441   9.640
68565SOL    HW2 7528   9.731   0.435   9.664
68566SOL     OW 7529   4.063   1.421   9.150
68566SOL    HW1 7530   4.051   1.425   9.055
68566SOL    HW2 7531   4.132   1.484   9.168
68567SOL     OW 7532   3.652   7.121   0.919
68567SOL    HW1 7533   3.583   7.172   0.961
68567SOL    HW2 7534   3.733   7.151   0.961
68568SOL     OW 7535  14.543  11.567   8.587
68568SOL    HW1 7536  14.461  11.601   8.550
68568SOL    HW2 7537  14.538  11.472   8.574
68569SOL     OW 7538   6.459   1.842  10.595
68569SOL    HW1 7539   6.366   1.823  10.605
68569SOL    HW2 7540   6.503   1.759  10.615
68570SOL     OW 7541   8.255   6.889  12.961
68570SOL    HW1 7542   8.340   6.926  12.984
68570SOL    HW2 7543   8.213   6.955  12.906
68571SOL     OW 7544   0.745   4.883  12.186
68571SOL    HW1 7545   0.800   4.959  12.166
68571SOL    HW2 7546   0.705   4.859  12.103
68572SOL     OW 7547   2.218   6.581   0.710
68572SOL    HW1 7548   2.156   6.640   0.754
68572SOL    HW2 7549   2.232   6.510   0.773
68573SOL     OW 7550   4.479  12.690   9.970
68573SOL    HW1 7551   4.389  12.682   9.940
68573SOL    HW2 7552   4.491  12.784   9.983
68574SOL     OW 7553  12.620   0.523   9.224
68574SOL    HW1 7554  12.661   0.591   9.169
68574SOL    HW2 7555  12.681   0.512   9.297
68575SOL     OW 7556   2.348   9.551  14.423
68575SOL    HW1 7557   2.312   9.519  14.506
68575SOL    HW2 7558   2.377   9.471  14.378
68576SOL     OW 7559  12.848   9.575  14.017
68576SOL    HW1 7560  12.755   9.572  13.997
68576SOL    HW2 7561  12.854   9.619  14.102
68577SOL     OW 7562   1.443  11.892   3.573
68577SOL    HW1 7563   1.509  11.858   3.634
68577SOL    HW2 7564   1.493  11.923   3.498
68578SOL     OW 7565   5.254  14.821   0.668
68578SOL    HW1 7566   5.220  14.732   0.671
68578SOL    HW2 7567   5.286  14.831   0.578
68579SOL     OW 7568   8.218  10.797  10.067
68579SOL    HW1 7569   8.206  10.823  10.158
68579SOL    HW2 7570   8.196  10.875  10.017
68580SOL     OW 7571   3.453   3.069  12.669
68580SOL    HW1 7572   3.396   2.992  12.672
68580SOL    HW2 7573   3.426   3.122  12.744
68581SOL     OW 7574   5.000   7.837   4.553
68581SOL    HW1 7575   4.940   7.776   4.595
68581SOL    HW2 7576   5.079   7.786   4.536
68582SOL     OW 7577   0.058   7.346   7.543
68582SOL    HW1 7578   0.091   7.436   7.551
68582SOL    HW2 7579  14.840   7.356   7.530
68583SOL     OW 7580  11.699  10.032   7.226
68583SOL    HW1 7581  11.765   9.962   7.223
68583SOL    HW2 7582  11.737  10.098   7.284
68584SOL     OW 7583   9.345   4.386   3.227
68584SOL    HW1 7584   9.441   4.381   3.228
68584SOL    HW2 7585   9.326   4.459   3.168
68585SOL     OW 7586   2.623  13.260   5.694
68585SOL    HW1 7587   2.576  13.191   5.648
68585SOL    HW2 7588   2.577  13.340   5.671
68586SOL     OW 7589  10.971   5.506  13.652
68586SOL    HW1 7590  10.949   5.529  13.743
68586SOL    HW2 7591  11.011   5.420  13.658
68587SOL     OW 7592   6.393   2.202   1.654
68587SOL    HW1 7593   6.486   2.187   1.671
68587SOL    HW2 7594   6.355   2.219   1.740
68588SOL     OW 7595  11.274   3.455   9.202
68588SOL    HW1 7596  11.333   3.380   9.191
68588SOL    HW2 7597  11.201   3.437   9.143
68589SOL     OW 7598   2.584   7.076   9.714
68589SOL    HW1 7599   2.556   7.164   9.686
68589SOL    HW2 7600   2.535   7.062   9.796
68590SOL     OW 7601   0.541  10.905   2.701
68590SOL    HW1 7602   0.580  10.953   2.629
68590SOL    HW2 7603   0.480  10.966   2.742
68591SOL     OW 7604   8.046   3.530   0.983
68591SOL    HW1 7605   8.076   3.474   0.911
68591SOL    HW2 7606   8.086   3.493   1.061
68592SOL     OW 7607   8.410   6.440   5.896
68592SOL    HW1 7608   8.445   6.484   5.819
68592SOL    HW2 7609   8.333   6.491   5.920
68593SOL     OW 7610  12.558  13.023   7.646
68593SOL    HW1 7611  12.638  12.989   7.684
68593SOL    HW2 7612  12.526  12.953   7.589
68594SOL     OW 7613   9.358   3.815   0.114
68594SOL    HW1 7614   9.366   3.727   0.078
68594SOL    HW2 7615   9.397   3.809   0.202
68595SOL     OW 7616  11.983   6.111   3.339
68595SOL    HW1 7617  12.037   6.116   3.260
68595SOL    HW2 7618  12.037   6.149   3.408
68596SOL     OW 7619   9.958   0.733   5.698
68596SOL    HW1 7620   9.901   0.662   5.669
68596SOL    HW2 7621   9.931   0.809   5.647
68597SOL     OW 7622   3.456   0.337   9.724
68597SOL    HW1 7623   3.429   0.391   9.798
68597SOL    HW2 7624   3.511   0.394   9.671
68598SOL     OW 7625   2.105  10.174   7.502
68598SOL    HW1 7626   2.067  10.105   7.556
68598SOL    HW2 7627   2.044  10.247   7.511
68599SOL     OW 7628  14.296  10.567  12.632
68599SOL    HW1 7629  14.306  10.586  12.539
68599SOL    HW2 7630  14.328  10.477  12.641
68600SOL     OW 7631   7.252  11.869   9.186
68600SOL    HW1 7632   7.293  11.836   9.266
68600SOL    HW2 7633   7.325  11.878   9.124
68601SOL     OW 7634   2.855   1.301  11.760
68601SOL    HW1 7635   2.899   1.366  11.813
68601SOL    HW2 7636   2.849   1.223  11.816
68602SOL     OW 7637  14.498   2.612  13.062
68602SOL    HW1 7638  14.442   2.536  13.047
68602SOL    HW2 7639  14.496   2.660  12.979
68603SOL     OW 7640   0.497  14.863   0.233
68603SOL    HW1 7641   0.533  14.872   0.144
68603SOL    HW2 7642   0.403  14.857   0.220
68604SOL     OW 7643   6.426   8.929  10.154
68604SOL    HW1 7644   6.359   8.994  10.136
68604SOL    HW2 7645   6.387   8.870  10.219
68605SOL     OW 7646  13.644  10.331   2.994
68605SOL    HW1 7647  13.611  10.263   2.935
68605SOL    HW2 7648  13.738  10.332   2.980
68606SOL     OW 7649   3.654  11.729   2.461
68606SOL    HW1 7650   3.675  11.680   2.540
68606SOL    HW2 7651   3.675  11.820   2.481
68607SOL     OW 7652   3.775   5.127   4.389
68607SOL    HW1 7653   3.753   5.185   4.462
68607SOL    HW2 7654   3.870   5.115   4.395
68608SOL     OW 7655   5.441   8.518   2.230
68608SOL    HW1 7656   5.394   8.464   2.166
68608SOL    HW2 7657   5.526   8.534   2.189
68609SOL     OW 7658   7.259   8.913  12.123
68609SOL    HW1 7659   7.206   8.989  12.147
68609SOL    HW2 7660   7.195   8.848  12.093
68610SOL     OW 7661   7.695  10.165  12.014
68610SOL    HW1 7662   7.724  10.210  12.094
68610SOL    HW2 7663   7.760  10.190  11.948
68611SOL     OW 7664   5.836   1.942   7.283
68611SOL    HW1 7665   5.752   1.967   7.321
68611SOL    HW2 7666   5.818   1.928   7.190
68612SOL     OW 7667   4.953  12.274   2.880
68612SOL    HW1 7668   4.932  12.330   2.805
68612SOL    HW2 7669   4.956  12.333   2.954
68613SOL     OW 7670   4.393   8.479   3.423
68613SOL    HW1 7671   4.307   8.464   3.460
68613SOL    HW2 7672   4.449   8.412   3.461
68614SOL     OW 7673   4.203   6.626   4.891
68614SOL    HW1 7674   4.293   6.639   4.919
68614SOL    HW2 7675   4.204   6.643   4.797
68615SOL     OW 7676   6.703   0.246   6.194
68615SOL    HW1 7677   6.776   0.255   6.255
68615SOL    HW2 7678   6.655   0.329   6.201
68616SOL     OW 7679   6.706  12.725   9.769
68616SOL    HW1 7680   6.770  12.654   9.771
68616SOL    HW2 7681   6.719  12.766   9.684
68617SOL     OW 7682   1.666   3.767   2.972
68617SOL    HW1 7683   1.725   3.765   2.896
68617SOL    HW2 7684   1.597   3.704   2.950
68618SOL     OW 7685   8.193   8.107  12.824
68618SOL    HW1 7686   8.281   8.074  12.804
68618SOL    HW2 7687   8.174   8.073  12.912
68619SOL     OW 7688  13.215   8.906  13.149
68619SOL    HW1 7689  13.221   8.991  13.106
68619SOL    HW2 7690  13.136   8.912  13.203
68620SOL     OW 7691  12.516  12.853  10.458
68620SOL    HW1 7692  12.499  12.839  10.364
68620SOL    HW2 7693  12.514  12.948  10.468
68621SOL     OW 7694  11.321   9.192  14.714
68621SOL    HW1 7695  11.378   9.269  14.715
68621SOL    HW2 7696  11.324   9.162  14.623
68622SOL     OW 7697   5.473  12.284  12.893
68622SOL    HW1 7698   5.394  12.251  12.850
68622SOL    HW2 7699   5.443  12.319  12.976
68623SOL     OW 7700   6.372   5.023   5.017
68623SOL    HW1 7701   6.466   5.038   5.030
68623SOL    HW2 7702   6.331   5.065   5.093
68624SOL     OW 7703   8.865   6.689   2.680
68624SOL    HW1 7704   8.929   6.627   2.644
68624SOL    HW2 7705   8.789   6.680   2.623
68625SOL     OW 7706   2.022  14.389   7.245
68625SOL    HW1 7707   1.967  14.312   7.257
68625SOL    HW2 7708   1.979  14.458   7.295
68626SOL     OW 7709   4.943  12.342  12.784
68626SOL    HW1 7710   4.928  12.434  12.763
68626SOL    HW2 7711   5.034  12.326  12.757
68627SOL     OW 7712   7.556   0.282  14.502
68627SOL    HW1 7713   7.536   0.234  14.582
68627SOL    HW2 7714   7.527   0.371  14.519
68628SOL     OW 7715   2.591  13.203   7.554
68628SOL    HW1 7716   2.581  13.119   7.598
68628SOL    HW2 7717   2.575  13.268   7.623
68629SOL     OW 7718  12.631  12.741  13.873
68629SOL    HW1 7719  12.724  12.753  13.891
68629SOL    HW2 7720  12.589  12.739  13.959
68630SOL     OW 7721   8.560   1.657   5.415
68630SOL    HW1 7722   8.653   1.642   5.434
68630SOL    HW2 7723   8.541   1.601   5.341
68631SOL     OW 7724   0.361   4.473  12.527
68631SOL    HW1 7725   0.358   4.450  12.434
68631SOL    HW2 7726   0.415   4.404  12.567
68632SOL     OW 7727   0.556  12.047   3.090
68632SOL    HW1 7728   0.578  12.031   3.182
68632SOL    HW2 7729   0.552  11.960   3.051
68633SOL     OW 7730   1.120   1.207  11.069
68633SOL    HW1 7731   1.089   1.270  11.003
68633SOL    HW2 7732   1.042   1.160  11.095
68634SOL     OW 7733   1.927   5.609  13.471
68634SOL    HW1 7734   2.017   5.616  13.502
68634SOL    HW2 7735   1.873   5.631  13.546
68635SOL     OW 7736   6.745   4.900   0.742
68635SOL    HW1 7737   6.783   4.823   0.783
68635SOL    HW2 7738   6.685   4.936   0.808
68636SOL     OW 7739   3.496   8.420   4.171
68636SOL    HW1 7740   3.466   8.330   4.160
68636SOL    HW2 7741   3.487   8.437   4.265
68637SOL     OW 7742   0.333   0.144  12.958
68637SOL    HW1 7743   0.366   0.158  13.047
68637SOL    HW2 7744   0.389   0.074  12.923
68638SOL     OW 7745  14.124   9.572   9.664
68638SOL    HW1 7746  14.218   9.557   9.654
68638SOL    HW2 7747  14.104   9.538   9.751
68639SOL     OW 7748  10.857   2.047   5.890
68639SOL    HW1 7749  10.944   2.059   5.928
68639SOL    HW2 7750  10.836   1.956   5.909
68640SOL     OW 7751   6.975   1.410   8.943
68640SOL    HW1 7752   6.898   1.463   8.921
68640SOL    HW2 7753   6.954   1.370   9.027
68641SOL     OW 7754   9.441   7.041   7.370
68641SOL    HW1 7755   9.370   6.985   7.338
68641SOL    HW2 7756   9.519   7.006   7.327
68642SOL     OW 7757   9.816  14.244  10.621
68642SOL    HW1 7758   9.815  14.303  10.696
68642SOL    HW2 7759   9.748  14.179  10.640
68643SOL     OW 7760  10.175  13.454  14.220
68643SOL    HW1 7761  10.256  13.415  14.254
68643SOL    HW2 7762  10.153  13.399  14.144
68644SOL     OW 7763  14.558   4.331   4.794
68644SOL    HW1 7764  14.528   4.328   4.885
68644SOL    HW2 7765  14.481   4.360   4.745
68645SOL     OW 7766   5.303   6.309   0.664
68645SOL    HW1 7767   5.326   6.234   0.719
68645SOL    HW2 7768   5.230   6.278   0.611
68646SOL     OW 7769   0.255   3.089  10.966
68646SOL    HW1 7770   0.181   3.034  10.943
68646SOL    HW2 7771   0.238   3.116  11.057
68647SOL     OW 7772   1.036   7.168   5.882
68647SOL    HW1 7773   1.090   7.094   5.910
68647SOL    HW2 7774   1.072   7.242   5.931
68648SOL     OW 7775   1.349  13.288   9.403
68648SOL    HW1 7776   1.255  13.301   9.414
68648SOL    HW2 7777   1.388  13.326   9.482
68649SOL     OW 7778  10.729  12.761   3.155
68649SOL    HW1 7779  10.661  12.709   3.197
68649SOL    HW2 7780  10.705  12.852   3.173
68650SOL     OW 7781  11.010   6.367   5.171
68650SOL    HW1 7782  10.982   6.304   5.105
68650SOL    HW2 7783  11.105   6.355   5.176
68651SOL     OW 7784  13.959   2.186   2.172
68651SOL    HW1 7785  13.929   2.269   2.208
68651SOL    HW2 7786  14.043   2.170   2.214
68652SOL     OW 7787   8.136   3.138  10.446
68652SOL    HW1 7788   8.103   3.187  10.521
68652SOL    HW2 7789   8.089   3.175  10.371
68653SOL     OW 7790   4.131  13.474  13.061
68653SOL    HW1 7791   4.157  13.404  13.121
68653SOL    HW2 7792   4.205  13.483  13.002
68654SOL     OW 7793   1.264   0.280   1.883
68654SOL    HW1 7794   1.200   0.294   1.953
68654SOL    HW2 7795   1.212   0.250   1.809
68655SOL     OW 7796   5.098  13.672  12.053
68655SOL    HW1 7797   5.175  13.623  12.083
68655SOL    HW2 7798   5.041  13.607  12.013
68656SOL     OW 7799  14.550  13.650   3.982
68656SOL    HW1 7800  14.481  13.646   3.916
68656SOL    HW2 7801  14.630  13.668   3.933
68657SOL     OW 7802   9.988  11.835  13.658
68657SOL    HW1 7803   9.968  11.781  13.734
68657SOL    HW2 7804   9.911  11.829  13.602
68658SOL     OW 7805   1.698   6.029  14.673
68658SOL    HW1 7806   1.692   6.027  14.578
68658SOL    HW2 7807   1.610   6.007  14.704
68659SOL     OW 7808  14.319   0.341   4.330
68659SOL    HW1 7809  14.385   0.274   4.345
68659SOL    HW2 7810  14.236   0.293   4.331
68660SOL     OW 7811   1.423   6.981   2.914
68660SOL    HW1 7812   1.393   6.892   2.898
68660SOL    HW2 7813   1.393   7.002   3.003
68661SOL     OW 7814  11.232   5.621   0.911
68661SOL    HW1 7815  11.265   5.697   0.864
68661SOL    HW2 7816  11.305   5.595   0.968
68662SOL     OW 7817  13.564   9.549   2.502
68662SOL    HW1 7818  13.528   9.632   2.532
68662SOL    HW2 7819  13.593   9.567   2.413
68663SOL     OW 7820   0.307  10.408   5.000
68663SOL    HW1 7821   0.281  10.379   4.913
68663SOL    HW2 7822   0.224  10.419   5.047
68664SOL     OW 7823   7.227   9.043   1.910
68664SOL    HW1 7824   7.213   9.000   1.994
68664SOL    HW2 7825   7.150   9.097   1.897
68665SOL     OW 7826   0.557  13.566  13.935
68665SOL    HW1 7827   0.464  13.591  13.930
68665SOL    HW2 7828   0.570  13.538  14.025
68666SOL     OW 7829   0.330  12.034   4.555
68666SOL    HW1 7830   0.361  12.104   4.497
68666SOL    HW2 7831   0.256  11.995   4.509
68667SOL     OW 7832   0.460   0.273   7.234
68667SOL    HW1 7833   0.525   0.342   7.224
68667SOL    HW2 7834   0.482   0.209   7.167
68668SOL     OW 7835  12.755  13.336   2.584
68668SOL    HW1 7836  12.829  13.307   2.529
68668SOL    HW2 7837  12.772  13.428   2.601
68669SOL     OW 7838  13.825  13.529   7.639
68669SOL    HW1 7839  13.739  13.492   7.618
68669SOL    HW2 7840  13.837  13.600   7.577
68670SOL     OW 7841   9.972   2.628   5.758
68670SOL    HW1 7842  10.025   2.676   5.695
68670SOL    HW2 7843   9.900   2.592   5.706
68671SOL     OW 7844   8.106   7.510   5.304
68671SOL    HW1 7845   8.074   7.427   5.269
68671SOL    HW2 7846   8.191   7.488   5.343
68672SOL     OW 7847   9.824   7.430   4.037
68672SOL    HW1 7848   9.791   7.420   4.126
68672SOL    HW2 7849   9.845   7.341   4.009
68673SOL     OW 7850  11.407  10.743  13.323
68673SOL    HW1 7851  11.497  10.767  13.345
68673SOL    HW2 7852  11.358  10.824  13.332
68674SOL     OW 7853  10.404   6.561   8.915
68674SOL    HW1 7854  10.347   6.623   8.960
68674SOL    HW2 7855  10.469   6.615   8.871
68675SOL     OW 7856   8.450   3.954   6.134
68675SOL    HW1 7857   8.487   4.039   6.107
68675SOL    HW2 7858   8.359   3.973   6.154
68676SOL     OW 7859   6.634  11.270   7.331
68676SOL    HW1 7860   6.656  11.323   7.408
68676SOL    HW2 7861   6.715  11.224   7.310
68677SOL     OW 7862   4.787  10.037   4.853
68677SOL    HW1 7863   4.793  10.069   4.943
68677SOL    HW2 7864   4.871  10.063   4.814
68678SOL     OW 7865   9.573   4.193   0.216
68678SOL    HW1 7866   9.605   4.125   0.156
68678SOL    HW2 7867   9.532   4.257   0.158
68679SOL     OW 7868  14.862   4.804   6.506
68679SOL    HW1 7869  14.773   4.781   6.479
68679SOL    HW2 7870  14.855   4.825   6.599
68680SOL     OW 7871  13.504   5.478  12.313
68680SOL    HW1 7872  13.460   5.459  12.396
68680SOL    HW2 7873  13.435   5.509  12.255
68681SOL     OW 7874   0.553   9.198  10.977
68681SOL    HW1 7875   0.465   9.212  11.014
68681SOL    HW2 7876   0.565   9.271  10.916
68682SOL     OW 7877  13.474   5.012   3.965
68682SOL    HW1 7878  13.454   5.085   3.907
68682SOL    HW2 7879  13.547   4.967   3.923
68683SOL     OW 7880  13.664   7.127   6.332
68683SOL    HW1 7881  13.598   7.119   6.401
68683SOL    HW2 7882  13.649   7.052   6.276
68684SOL     OW 7883  12.856   8.255  13.173
68684SOL    HW1 7884  12.907   8.261  13.254
68684SOL    HW2 7885  12.907   8.304  13.109
68685SOL     OW 7886   1.878  14.054  12.525
68685SOL    HW1 7887   1.865  14.131  12.580
68685SOL    HW2 7888   1.888  13.982  12.587
68686SOL     OW 7889  13.803  14.347  12.123
68686SOL    HW1 7890  13.842  14.423  12.166
68686SOL    HW2 7891  13.857  14.273  12.151
68687SOL     OW 7892   0.764   3.770   1.740
68687SOL    HW1 7893   0.741   3.853   1.780
68687SOL    HW2 7894   0.834   3.791   1.678
68688SOL     OW 7895   8.415   0.002   2.250
68688SOL    HW1 7896   8.510   0.008   2.240
68688SOL    HW2 7897   8.396  14.785   2.238
68689SOL     OW 7898  12.509   7.922   1.433
68689SOL    HW1 7899  12.522   7.933   1.339
68689SOL    HW2 7900  12.445   7.852   1.441
68690SOL     OW 7901   8.680   5.150   7.804
68690SOL    HW1 7902   8.742   5.203   7.856
68690SOL    HW2 7903   8.713   5.157   7.715
68691SOL     OW 7904   5.758   3.104   7.941
68691SOL    HW1 7905   5.842   3.146   7.925
68691SOL    HW2 7906   5.751   3.098   8.036
68692SOL     OW 7907  12.120   0.987  12.047
68692SOL    HW1 7908  12.149   0.898  12.069
68692SOL    HW2 7909  12.136   0.995  11.953
68693SOL     OW 7910   4.571  11.579   3.481
68693SOL    HW1 7911   4.509  11.651   3.492
68693SOL    HW2 7912   4.535  11.527   3.409
68694SOL     OW 7913   5.286   6.732  13.486
68694SOL    HW1 7914   5.193   6.757  13.488
68694SOL    HW2 7915   5.284   6.636  13.489
68695SOL     OW 7916   8.168   2.507   0.621
68695SOL    HW1 7917   8.174   2.441   0.689
68695SOL    HW2 7918   8.115   2.466   0.552
68696SOL     OW 7919   6.011  14.602  13.611
68696SOL    HW1 7920   5.995  14.670  13.545
68696SOL    HW2 7921   6.016  14.650  13.694
68697SOL     OW 7922   7.283  11.773   1.251
68697SOL    HW1 7923   7.322  11.716   1.184
68697SOL    HW2 7924   7.322  11.859   1.234
68698SOL     OW 7925   1.021   1.530  11.505
68698SOL    HW1 7926   0.948   1.498  11.452
68698SOL    HW2 7927   1.035   1.461  11.570
68699SOL     OW 7928   2.345   5.812  10.279
68699SOL    HW1 7929   2.368   5.904  10.292
68699SOL    HW2 7930   2.412   5.780  10.217
68700SOL     OW 7931  14.597   6.317   9.742
68700SOL    HW1 7932  14.616   6.224   9.728
68700SOL    HW2 7933  14.581   6.352   9.654
68701SOL     OW 7934  10.746   3.683   2.975
68701SOL    HW1 7935  10.823   3.638   3.010
68701SOL    HW2 7936  10.751   3.667   2.880
68702SOL     OW 7937   4.260   4.602  14.566
68702SOL    HW1 7938   4.350   4.568  14.567
68702SOL    HW2 7939   4.213   4.545  14.627
68703SOL     OW 7940   1.879   1.227   6.386
68703SOL    HW1 7941   1.819   1.174   6.334
68703SOL    HW2 7942   1.847   1.317   6.375
68704SOL     OW 7943   2.938   8.712  10.185
68704SOL    HW1 7944   2.958   8.773  10.256
68704SOL    HW2 7945   2.930   8.627  10.228
68705SOL     OW 7946  10.472   3.535  10.910
68705SOL    HW1 7947  10.408   3.525  10.980
68705SOL    HW2 7948  10.424   3.512  10.830
68706SOL     OW 7949   8.406  11.025   4.177
68706SOL    HW1 7950   8.483  11.079   4.160
68706SOL    HW2 7951   8.349  11.080   4.230
68707SOL     OW 7952   1.262  10.498   9.988
68707SOL    HW1 7953   1.174  10.514   9.953
68707SOL    HW2 7954   1.270  10.560  10.061
68708SOL     OW 7955  10.517   9.871   4.554
68708SOL    HW1 7956  10.438   9.910   4.516
68708SOL    HW2 7957  10.577   9.863   4.481
68709SOL     OW 7958   4.875   8.326   7.176
68709SOL    HW1 7959   4.902   8.296   7.089
68709SOL    HW2 7960   4.909   8.260   7.236
68710SOL     OW 7961  10.831   8.493   7.826
68710SOL    HW1 7962  10.851   8.570   7.879
68710SOL    HW2 7963  10.885   8.504   7.747
68711SOL     OW 7964   7.221   6.892   4.067
68711SOL    HW1 7965   7.142   6.922   4.111
68711SOL    HW2 7966   7.288   6.895   4.135
68712SOL     OW 7967  14.052  10.918   1.947
68712SOL    HW1 7968  14.103  10.999   1.944
68712SOL    HW2 7969  13.993  10.924   1.871
68713SOL     OW 7970  13.016  13.244   4.263
68713SOL    HW1 7971  12.948  13.263   4.327
68713SOL    HW2 7972  12.974  13.255   4.178
68714SOL     OW 7973   4.572   4.194  12.645
68714SOL    HW1 7974   4.630   4.261  12.681
68714SOL    HW2 7975   4.595   4.114  12.694
68715SOL     OW 7976   0.189  11.439   2.718
68715SOL    HW1 7977   0.105  11.404   2.687
68715SOL    HW2 7978   0.164  11.504   2.784
68716SOL     OW 7979   2.447   2.788  10.766
68716SOL    HW1 7980   2.393   2.811  10.841
68716SOL    HW2 7981   2.503   2.864  10.752
68717SOL     OW 7982  11.559   4.667   1.086
68717SOL    HW1 7983  11.512   4.596   1.130
68717SOL    HW2 7984  11.511   4.747   1.111
68718SOL     OW 7985   6.872   5.179  14.719
68718SOL    HW1 7986   6.868   5.120  14.795
68718SOL    HW2 7987   6.956   5.157  14.677
68719SOL     OW 7988  11.357   6.223   9.977
68719SOL    HW1 7989  11.292   6.197   9.912
68719SOL    HW2 7990  11.386   6.140  10.016
68720SOL     OW 7991  14.117  10.337   4.976
68720SOL    HW1 7992  14.097  10.427   4.949
68720SOL    HW2 7993  14.144  10.344   5.068
68721SOL     OW 7994   9.511   0.328   5.872
68721SOL    HW1 7995   9.434   0.334   5.815
68721SOL    HW2 7996   9.524   0.417   5.905
68722SOL     OW 7997  11.480   6.113   3.545
68722SOL    HW1 7998  11.409   6.168   3.577
68722SOL    HW2 7999  11.560   6.153   3.580
68723SOL     OW 8000   3.147  11.235  14.858
68723SOL    HW1 8001   3.219  11.217   0.044
68723SOL    HW2 8002   3.091  11.298   0.028
68724SOL     OW 8003   6.902  12.772   2.757
68724SOL    HW1 8004   6.913  12.778   2.852
68724SOL    HW2 8005   6.829  12.712   2.745
68725SOL     OW 8006   2.163  11.747  12.538
68725SOL    HW1 8007   2.124  11.740  12.451
68725SOL    HW2 8008   2.252  11.714  12.526
68726SOL     OW 8009   4.137   0.816  12.256
68726SOL    HW1 8010   4.097   0.831  12.341
68726SOL    HW2 8011   4.064   0.788  12.200
68727SOL     OW 8012  11.260   6.719  14.303
68727SOL    HW1 8013  11.275   6.787  14.237
68727SOL    HW2 8014  11.203   6.656  14.260
68728SOL     OW 8015   1.569   1.872   6.365
68728SOL    HW1 8016   1.534   1.958   6.345
68728SOL    HW2 8017   1.572   1.827   6.281
68729SOL     OW 8018  10.081   3.769  11.878
68729SOL    HW1 8019   9.995   3.728  11.880
68729SOL    HW2 8020  10.142   3.697  11.864
68730SOL     OW 8021  11.851   1.239   0.939
68730SOL    HW1 8022  11.829   1.171   1.002
68730SOL    HW2 8023  11.944   1.224   0.920
68731SOL     OW 8024   2.707  12.862   7.542
68731SOL    HW1 8025   2.628  12.858   7.595
68731SOL    HW2 8026   2.684  12.916   7.467
68732SOL     OW 8027   6.435  10.957   3.200
68732SOL    HW1 8028   6.450  10.967   3.294
68732SOL    HW2 8029   6.344  10.985   3.187
68733SOL     OW 8030   0.390   7.551   0.857
68733SOL    HW1 8031   0.445   7.595   0.922
68733SOL    HW2 8032   0.339   7.622   0.817
68734SOL     OW 8033   5.159   1.210  12.611
68734SOL    HW1 8034   5.184   1.132  12.661
68734SOL    HW2 8035   5.140   1.276  12.678
68735SOL     OW 8036  12.684  10.310   0.682
68735SOL    HW1 8037  12.697  10.246   0.752
68735SOL    HW2 8038  12.665  10.392   0.726
68736SOL     OW 8039   5.464  14.089   6.900
68736SOL    HW1 8040   5.455  14.158   6.966
68736SOL    HW2 8041   5.455  14.134   6.816
68737SOL     OW 8042   1.851   2.329   0.893
68737SOL    HW1 8043   1.761   2.302   0.908
68737SOL    HW2 8044   1.882   2.359   0.979
68738SOL     OW 8045   8.002   6.693   5.250
68738SOL    HW1 8046   7.917   6.652   5.260
68738SOL    HW2 8047   7.984   6.778   5.209
68739SOL     OW 8048   4.649   0.084   3.486
68739SOL    HW1 8049   4.689   0.020   3.427
68739SOL    HW2 8050   4.607   0.030   3.553
68740SOL     OW 8051  13.827   2.536   5.355
68740SOL    HW1 8052  13.750   2.573   5.399
68740SOL    HW2 8053  13.864   2.475   5.419
68741SOL     OW 8054   0.305   3.905  13.119
68741SOL    HW1 8055   0.314   3.926  13.026
68741SOL    HW2 8056   0.387   3.936  13.158
68742SOL     OW 8057   8.013   3.465   8.694
68742SOL    HW1 8058   8.009   3.416   8.775
68742SOL    HW2 8059   8.086   3.426   8.645
68743SOL     OW 8060   0.554   2.801   1.952
68743SOL    HW1 8061   0.607   2.722   1.955
68743SOL    HW2 8062   0.516   2.807   2.040
68744SOL     OW 8063   6.022  11.481   4.383
68744SOL    HW1 8064   5.983  11.396   4.403
68744SOL    HW2 8065   5.949  11.532   4.347
68745SOL     OW 8066  10.642   9.129   5.080
68745SOL    HW1 8067  10.626   9.142   5.173
68745SOL    HW2 8068  10.690   9.046   5.074
68746SOL     OW 8069   1.402   3.247   0.100
68746SOL    HW1 8070   1.478   3.190   0.107
68746SOL    HW2 8071   1.375   3.240   0.008
68747SOL     OW 8072   0.147   1.253   5.274
68747SOL    HW1 8073   0.070   1.222   5.321
68747SOL    HW2 8074   0.203   1.291   5.342
68748SOL     OW 8075   2.786   6.843   6.095
68748SOL    HW1 8076   2.822   6.774   6.038
68748SOL    HW2 8077   2.851   6.852   6.165
68749SOL     OW 8078  14.018  12.617  10.314
68749SOL    HW1 8079  14.025  12.701  10.359
68749SOL    HW2 8080  13.943  12.574  10.354
68750SOL     OW 8081  13.409  12.593   8.523
68750SOL    HW1 8082  13.351  12.625   8.592
68750SOL    HW2 8083  13.474  12.540   8.568
68751SOL     OW 8084   3.149   5.359   6.001
68751SOL    HW1 8085   3.243   5.375   5.991
68751SOL    HW2 8086   3.111   5.391   5.919
68752SOL     OW 8087  12.659   1.252  11.898
68752SOL    HW1 8088  12.708   1.184  11.944
68752SOL    HW2 8089  12.664   1.328  11.957
68753SOL     OW 8090  10.211   1.187   5.313
68753SOL    HW1 8091  10.197   1.253   5.381
68753SOL    HW2 8092  10.166   1.221   5.236
68754SOL     OW 8093  11.696   1.109  11.466
68754SOL    HW1 8094  11.656   1.063  11.540
68754SOL    HW2 8095  11.761   1.047  11.432
68755SOL     OW 8096  13.893   6.155  10.712
68755SOL    HW1 8097  13.896   6.250  10.729
68755SOL    HW2 8098  13.893   6.148  10.617
68756SOL     OW 8099   5.951  13.423   2.061
68756SOL    HW1 8100   5.921  13.496   2.116
68756SOL    HW2 8101   5.975  13.355   2.123
68757SOL     OW 8102   4.665   1.884   3.786
68757SOL    HW1 8103   4.710   1.933   3.856
68757SOL    HW2 8104   4.721   1.895   3.709
68758SOL     OW 8105  11.520   9.612   8.068
68758SOL    HW1 8106  11.438   9.569   8.045
68758SOL    HW2 8107  11.575   9.543   8.104
68759SOL     OW 8108   5.970   4.074  11.897
68759SOL    HW1 8109   6.046   4.024  11.868
68759SOL    HW2 8110   5.967   4.062  11.992
68760SOL     OW 8111   8.040   2.735  13.677
68760SOL    HW1 8112   8.087   2.781  13.608
68760SOL    HW2 8113   8.108   2.705  13.737
68761SOL     OW 8114   4.092   4.752  11.577
68761SOL    HW1 8115   4.118   4.833  11.621
68761SOL    HW2 8116   4.004   4.734  11.610
68762SOL     OW 8117   7.755  13.264   6.220
68762SOL    HW1 8118   7.719  13.186   6.262
68762SOL    HW2 8119   7.841  13.238   6.188
68763SOL     OW 8120  10.499   4.044   6.743
68763SOL    HW1 8121  10.560   3.970   6.745
68763SOL    HW2 8122  10.460   4.041   6.656
68764SOL     OW 8123   8.367  12.121   3.301
68764SOL    HW1 8124   8.332  12.065   3.370
68764SOL    HW2 8125   8.423  12.183   3.346
68765SOL     OW 8126   5.964   1.546   7.183
68765SOL    HW1 8127   6.028   1.493   7.135
68765SOL    HW2 8128   6.005   1.562   7.268
68766SOL     OW 8129   8.020  10.973   4.670
68766SOL    HW1 8130   7.951  10.927   4.717
68766SOL    HW2 8131   8.009  10.946   4.578
68767SOL     OW 8132  14.538   3.180  13.800
68767SOL    HW1 8133  14.625   3.220  13.809
68767SOL    HW2 8134  14.525   3.131  13.881
68768SOL     OW 8135   5.585  11.068   4.058
68768SOL    HW1 8136   5.532  11.134   4.104
68768SOL    HW2 8137   5.675  11.084   4.089
68769SOL     OW 8138  10.670  10.856  10.958
68769SOL    HW1 8139  10.693  10.792  10.890
68769SOL    HW2 8140  10.602  10.812  11.009
68770SOL     OW 8141  13.627   2.275   8.181
68770SOL    HW1 8142  13.691   2.288   8.252
68770SOL    HW2 8143  13.652   2.339   8.115
68771SOL     OW 8144   6.954   4.038   7.459
68771SOL    HW1 8145   6.925   3.954   7.423
68771SOL    HW2 8146   7.005   4.014   7.537
68772SOL     OW 8147   2.360   2.548   5.267
68772SOL    HW1 8148   2.429   2.482   5.256
68772SOL    HW2 8149   2.402   2.619   5.316
68773SOL     OW 8150   3.693  14.548   3.978
68773SOL    HW1 8151   3.620  14.518   4.032
68773SOL    HW2 8152   3.745  14.602   4.038
68774SOL     OW 8153   9.454  13.172   8.135
68774SOL    HW1 8154   9.506  13.168   8.055
68774SOL    HW2 8155   9.387  13.105   8.124
68775SOL     OW 8156  11.735   1.040  12.992
68775SOL    HW1 8157  11.788   0.973  13.035
68775SOL    HW2 8158  11.718   1.005  12.905
68776SOL     OW 8159  11.091   8.402   3.031
68776SOL    HW1 8160  11.101   8.413   3.126
68776SOL    HW2 8161  11.045   8.481   3.003
68777SOL     OW 8162  12.877  14.864  13.695
68777SOL    HW1 8163  12.883   0.058  13.759
68777SOL    HW2 8164  12.787  14.831  13.703
68778SOL     OW 8165   3.310  13.942   6.273
68778SOL    HW1 8166   3.355  13.958   6.355
68778SOL    HW2 8167   3.217  13.948   6.294
68779SOL     OW 8168   9.223   3.555   0.291
68779SOL    HW1 8169   9.148   3.602   0.253
68779SOL    HW2 8170   9.255   3.614   0.360
68780SOL     OW 8171   0.188   4.653   3.616
68780SOL    HW1 8172   0.180   4.632   3.523
68780SOL    HW2 8173   0.121   4.720   3.631
68781SOL     OW 8174  11.921   3.716   9.069
68781SOL    HW1 8175  11.829   3.710   9.040
68781SOL    HW2 8176  11.971   3.676   8.998
68782SOL     OW 8177   4.924  14.629   5.664
68782SOL    HW1 8178   4.974  14.549   5.679
68782SOL    HW2 8179   4.969  14.671   5.590
68783SOL     OW 8180  14.230   8.070  10.312
68783SOL    HW1 8181  14.282   8.111  10.243
68783SOL    HW2 8182  14.274   7.987  10.330
68784SOL     OW 8183   5.571   2.717   9.557
68784SOL    HW1 8184   5.642   2.660   9.525
68784SOL    HW2 8185   5.533   2.669   9.631
68785SOL     OW 8186  13.645   2.456  12.220
68785SOL    HW1 8187  13.698   2.501  12.285
68785SOL    HW2 8188  13.597   2.526  12.176
68786SOL     OW 8189   5.251   4.957   6.300
68786SOL    HW1 8190   5.238   5.021   6.369
68786SOL    HW2 8191   5.333   4.912   6.324
68787SOL     OW 8192   4.302   2.426  11.639
68787SOL    HW1 8193   4.396   2.437  11.652
68787SOL    HW2 8194   4.263   2.460  11.719
68788SOL     OW 8195  10.106  13.304   3.057
68788SOL    HW1 8196  10.125  13.299   2.963
68788SOL    HW2 8197  10.164  13.372   3.090
68789SOL     OW 8198  11.127   2.271   0.316
68789SOL    HW1 8199  11.180   2.193   0.297
68789SOL    HW2 8200  11.050   2.261   0.261
68790SOL     OW 8201   4.340   0.300   8.163
68790SOL    HW1 8202   4.297   0.327   8.083
68790SOL    HW2 8203   4.328   0.205   8.167
68791SOL     OW 8204   1.032   8.118   4.111
68791SOL    HW1 8205   0.991   8.195   4.072
68791SOL    HW2 8206   0.989   8.107   4.196
68792SOL     OW 8207   0.306   9.497  12.354
68792SOL    HW1 8208   0.395   9.463  12.362
68792SOL    HW2 8209   0.293   9.549  12.433
68793SOL     OW 8210   0.114  12.989  14.452
68793SOL    HW1 8211   0.199  12.964  14.490
68793SOL    HW2 8212   0.096  13.075  14.489
68794SOL     OW 8213   4.519  10.310   1.407
68794SOL    HW1 8214   4.521  10.398   1.446
68794SOL    HW2 8215   4.553  10.253   1.476
68795SOL     OW 8216   4.875   0.659   1.336
68795SOL    HW1 8217   4.913   0.635   1.420
68795SOL    HW2 8218   4.873   0.577   1.286
68796SOL     OW 8219   9.595  13.441   2.418
68796SOL    HW1 8220   9.550  13.468   2.498
68796SOL    HW2 8221   9.604  13.346   2.426
68797SOL     OW 8222   9.539   1.235  14.689
68797SOL    HW1 8223   9.470   1.218  14.626
68797SOL    HW2 8224   9.512   1.314  14.735
68798SOL     OW 8225   9.279  11.496  14.499
68798SOL    HW1 8226   9.320  11.495  14.585
68798SOL    HW2 8227   9.289  11.406  14.467
68799SOL     OW 8228   8.440   3.969   4.015
68799SOL    HW1 8229   8.352   3.958   3.980
68799SOL    HW2 8230   8.466   4.057   3.987
68800SOL     OW 8231   6.564   7.263   5.028
68800SOL    HW1 8232   6.552   7.188   5.087
68800SOL    HW2 8233   6.659   7.269   5.016
68801SOL     OW 8234  12.127   3.112   2.898
68801SOL    HW1 8235  12.076   3.193   2.895
68801SOL    HW2 8236  12.139   3.094   2.991
68802SOL     OW 8237   4.043   7.494   2.884
68802SOL    HW1 8238   4.082   7.554   2.820
68802SOL    HW2 8239   3.949   7.506   2.873
68803SOL     OW 8240  13.755  10.627  14.500
68803SOL    HW1 8241  13.836  10.579  14.484
68803SOL    HW2 8242  13.774  10.717  14.473
68804SOL     OW 8243   8.078  11.563   6.937
68804SOL    HW1 8244   8.142  11.518   6.881
68804SOL    HW2 8245   7.997  11.561   6.886
68805SOL     OW 8246  14.244   2.869   9.381
68805SOL    HW1 8247  14.150   2.884   9.378
68805SOL    HW2 8248  14.266   2.871   9.474
68806SOL     OW 8249  10.146  14.866   8.666
68806SOL    HW1 8250  10.180   0.053   8.730
68806SOL    HW2 8251  10.083   0.040   8.614
68807SOL     OW 8252   2.780   9.476   0.961
68807SOL    HW1 8253   2.691   9.509   0.950
68807SOL    HW2 8254   2.804   9.502   1.050
68808SOL     OW 8255   3.768   9.463   2.327
68808SOL    HW1 8256   3.739   9.446   2.417
68808SOL    HW2 8257   3.688   9.484   2.280
68809SOL     OW 8258   8.311  13.393  13.990
68809SOL    HW1 8259   8.271  13.478  13.975
68809SOL    HW2 8260   8.361  13.404  14.071
68810SOL     OW 8261  13.215   5.369   6.434
68810SOL    HW1 8262  13.172   5.344   6.352
68810SOL    HW2 8263  13.288   5.308   6.443
68811SOL     OW 8264   1.360   5.141   4.067
68811SOL    HW1 8265   1.299   5.207   4.101
68811SOL    HW2 8266   1.346   5.142   3.972
68812SOL     OW 8267   8.767  13.722  10.503
68812SOL    HW1 8268   8.713  13.727  10.581
68812SOL    HW2 8269   8.857  13.721  10.535
68813SOL     OW 8270   8.295  14.287   9.471
68813SOL    HW1 8271   8.354  14.227   9.427
68813SOL    HW2 8272   8.350  14.330   9.537
68814SOL     OW 8273   7.917  13.227   0.878
68814SOL    HW1 8274   7.997  13.258   0.837
68814SOL    HW2 8275   7.846  13.265   0.826
68815SOL     OW 8276   4.760   2.773  11.162
68815SOL    HW1 8277   4.721   2.828  11.094
68815SOL    HW2 8278   4.825   2.720  11.116
68816SOL     OW 8279  14.106   3.164   7.128
68816SOL    HW1 8280  14.049   3.228   7.086
68816SOL    HW2 8281  14.174   3.146   7.063
68817SOL     OW 8282   8.408   9.377   8.494
68817SOL    HW1 8283   8.423   9.306   8.558
68817SOL    HW2 8284   8.313   9.382   8.486
68818SOL     OW 8285   3.847  11.383   4.485
68818SOL    HW1 8286   3.819  11.368   4.576
68818SOL    HW2 8287   3.772  11.356   4.432
68819SOL     OW 8288   4.215  12.177   7.551
68819SOL    HW1 8289   4.140  12.119   7.562
68819SOL    HW2 8290   4.176  12.261   7.526
68820SOL     OW 8291   8.337  12.136  12.435
68820SOL    HW1 8292   8.372  12.201  12.374
68820SOL    HW2 8293   8.352  12.174  12.522
68821SOL     OW 8294   0.483  12.844   4.093
68821SOL    HW1 8295   0.503  12.893   4.013
68821SOL    HW2 8296   0.411  12.893   4.133
68822SOL     OW 8297   9.797   2.388   2.681
68822SOL    HW1 8298   9.711   2.431   2.687
68822SOL    HW2 8299   9.840   2.431   2.607
68823SOL     OW 8300  12.683   8.008   4.967
68823SOL    HW1 8301  12.602   7.985   5.014
68823SOL    HW2 8302  12.752   7.999   5.033
68824SOL     OW 8303   2.998   2.156  10.869
68824SOL    HW1 8304   2.918   2.189  10.911
68824SOL    HW2 8305   3.056   2.135  10.942
68825SOL     OW 8306   8.578   1.986  13.563
68825SOL    HW1 8307   8.526   2.032  13.497
68825SOL    HW2 8308   8.669   2.000  13.536
68826SOL     OW 8309   0.836  12.798   2.182
68826SOL    HW1 8310   0.911  12.748   2.215
68826SOL    HW2 8311   0.835  12.780   2.088
68827SOL     OW 8312   9.499  13.322   5.596
68827SOL    HW1 8313   9.524  13.414   5.593
68827SOL    HW2 8314   9.542  13.282   5.520
68828SOL     OW 8315   8.326  12.676  12.926
68828SOL    HW1 8316   8.396  12.699  12.987
68828SOL    HW2 8317   8.349  12.721  12.845
68829SOL     OW 8318   9.162  14.750  11.355
68829SOL    HW1 8319   9.135  14.801  11.278
68829SOL    HW2 8320   9.193  14.815  11.418
68830SOL     OW 8321   4.460   7.943   3.354
68830SOL    HW1 8322   4.372   7.905   3.353
68830SOL    HW2 8323   4.472   7.977   3.265
68831SOL     OW 8324  13.590   8.381   4.946
68831SOL    HW1 8325  13.552   8.405   5.031
68831SOL    HW2 8326  13.684   8.384   4.961
68832SOL     OW 8327   2.902   4.547   5.541
68832SOL    HW1 8328   2.941   4.462   5.558
68832SOL    HW2 8329   2.970   4.596   5.495
68833SOL     OW 8330   7.720   1.570   4.778
68833SOL    HW1 8331   7.701   1.493   4.831
68833SOL    HW2 8332   7.645   1.627   4.791
68834SOL     OW 8333   0.073   4.948   5.809
68834SOL    HW1 8334   0.045   5.036   5.784
68834SOL    HW2 8335  14.870   4.895   5.801
68835SOL     OW 8336   3.125   2.716  13.417
68835SOL    HW1 8337   3.192   2.651  13.436
68835SOL    HW2 8338   3.098   2.697  13.327
68836SOL     OW 8339  11.347   5.925  11.282
68836SOL    HW1 8340  11.313   5.951  11.196
68836SOL    HW2 8341  11.428   5.878  11.263
68837SOL     OW 8342   7.525   9.368   4.196
68837SOL    HW1 8343   7.472   9.400   4.270
68837SOL    HW2 8344   7.498   9.277   4.185
68838SOL     OW 8345  13.619   6.535  12.753
68838SOL    HW1 8346  13.606   6.452  12.707
68838SOL    HW2 8347  13.626   6.601  12.684
68839SOL     OW 8348   3.323   0.384   3.847
68839SOL    HW1 8349   3.345   0.441   3.921
68839SOL    HW2 8350   3.228   0.393   3.837
68840SOL     OW 8351  13.322   9.804   4.785
68840SOL    HW1 8352  13.241   9.755   4.768
68840SOL    HW2 8353  13.294   9.895   4.793
68841SOL     OW 8354   4.102   0.479   5.674
68841SOL    HW1 8355   4.024   0.525   5.706
68841SOL    HW2 8356   4.123   0.522   5.591
68842SOL     OW 8357   1.392   0.319  12.232
68842SOL    HW1 8358   1.316   0.316  12.291
68842SOL    HW2 8359   1.439   0.238  12.251
68843SOL     OW 8360   6.298   6.063   3.975
68843SOL    HW1 8361   6.290   5.969   3.961
68843SOL    HW2 8362   6.305   6.100   3.888
68844SOL     OW 8363   0.398   7.148   0.933
68844SOL    HW1 8364   0.365   7.120   1.019
68844SOL    HW2 8365   0.332   7.209   0.901
68845SOL     OW 8366   9.262   1.567  12.944
68845SOL    HW1 8367   9.202   1.575  13.018
68845SOL    HW2 8368   9.341   1.613  12.971
68846SOL     OW 8369   2.798   4.491   9.947
68846SOL    HW1 8370   2.844   4.559   9.898
68846SOL    HW2 8371   2.705   4.506   9.928
68847SOL     OW 8372   4.758  11.980   6.240
68847SOL    HW1 8373   4.729  12.027   6.318
68847SOL    HW2 8374   4.708  12.017   6.168
68848SOL     OW 8375  14.823   1.765   8.959
68848SOL    HW1 8376   0.001   1.790   9.034
68848SOL    HW2 8377  14.833   1.837   8.897
68849SOL     OW 8378  12.129   6.327   6.941
68849SOL    HW1 8379  12.211   6.310   6.895
68849SOL    HW2 8380  12.133   6.271   7.019
68850SOL     OW 8381  11.324   8.094   7.438
68850SOL    HW1 8382  11.413   8.099   7.404
68850SOL    HW2 8383  11.319   8.010   7.483
68851SOL     OW 8384  11.238   6.434  12.273
68851SOL    HW1 8385  11.314   6.492  12.273
68851SOL    HW2 8386  11.169   6.485  12.231
68852SOL     OW 8387   5.862  10.161   9.298
68852SOL    HW1 8388   5.875  10.095   9.366
68852SOL    HW2 8389   5.813  10.115   9.229
68853SOL     OW 8390   5.909   6.907  14.405
68853SOL    HW1 8391   5.983   6.869  14.453
68853SOL    HW2 8392   5.839   6.841  14.414
68854SOL     OW 8393   5.098   0.250  13.705
68854SOL    HW1 8394   5.004   0.259  13.713
68854SOL    HW2 8395   5.132   0.269  13.793
68855SOL     OW 8396   3.408  14.204  14.378
68855SOL    HW1 8397   3.419  14.299  14.378
68855SOL    HW2 8398   3.313  14.191  14.366
68856SOL     OW 8399   5.205   9.919   2.986
68856SOL    HW1 8400   5.128   9.963   3.021
68856SOL    HW2 8401   5.178   9.887   2.900
68857SOL     OW 8402   9.015   5.021   7.259
68857SOL    HW1 8403   9.078   4.970   7.309
68857SOL    HW2 8404   8.937   5.026   7.315
68858SOL     OW 8405   6.313   4.740  14.591
68858SOL    HW1 8406   6.326   4.812  14.529
68858SOL    HW2 8407   6.253   4.776  14.656
68859SOL     OW 8408   9.275   9.958   2.817
68859SOL    HW1 8409   9.202   9.955   2.880
68859SOL    HW2 8410   9.337   9.892   2.849
68860SOL     OW 8411  13.213   6.035   7.994
68860SOL    HW1 8412  13.174   5.972   7.932
68860SOL    HW2 8413  13.140   6.059   8.052
68861SOL     OW 8414   7.368   7.635  13.051
68861SOL    HW1 8415   7.406   7.672  13.131
68861SOL    HW2 8416   7.305   7.570  13.083
68862SOL     OW 8417   3.927  11.198  14.260
68862SOL    HW1 8418   3.844  11.175  14.302
68862SOL    HW2 8419   3.972  11.252  14.325
68863SOL     OW 8420   9.917   8.211   8.709
68863SOL    HW1 8421  10.002   8.198   8.749
68863SOL    HW2 8422   9.886   8.295   8.743
68864SOL     OW 8423  11.586   2.082  11.999
68864SOL    HW1 8424  11.622   1.997  12.025
68864SOL    HW2 8425  11.640   2.146  12.045
68865SOL     OW 8426   7.777  13.081  10.583
68865SOL    HW1 8427   7.792  13.018  10.653
68865SOL    HW2 8428   7.841  13.150  10.597
68866SOL     OW 8429  10.026   5.688  13.148
68866SOL    HW1 8430  10.093   5.753  13.169
68866SOL    HW2 8431  10.075   5.610  13.123
68867SOL     OW 8432  14.544   3.439  10.309
68867SOL    HW1 8433  14.536   3.533  10.298
68867SOL    HW2 8434  14.639   3.423  10.307
68868SOL     OW 8435   5.094  11.022  12.105
68868SOL    HW1 8436   5.068  11.071  12.183
68868SOL    HW2 8437   5.185  11.050  12.089
68869SOL     OW 8438  14.451  14.283   0.725
68869SOL    HW1 8439  14.424  14.253   0.638
68869SOL    HW2 8440  14.378  14.338   0.754
68870SOL     OW 8441  11.191   7.878  13.526
68870SOL    HW1 8442  11.174   7.818  13.599
68870SOL    HW2 8443  11.189   7.822  13.449
68871SOL     OW 8444   6.394   0.010   5.659
68871SOL    HW1 8445   6.403   0.105   5.657
68871SOL    HW2 8446   6.316  14.870   5.712
68872SOL     OW 8447   4.013   9.031  10.061
68872SOL    HW1 8448   3.973   9.050  10.145
68872SOL    HW2 8449   3.977   9.096  10.001
68873SOL     OW 8450  13.086   4.036   4.542
68873SOL    HW1 8451  13.094   4.129   4.525
68873SOL    HW2 8452  12.994   4.016   4.525
68874SOL     OW 8453   3.628  10.147  13.624
68874SOL    HW1 8454   3.657  10.060  13.599
68874SOL    HW2 8455   3.670  10.163  13.709
68875SOL     OW 8456   0.597   0.596   9.370
68875SOL    HW1 8457   0.682   0.562   9.400
68875SOL    HW2 8458   0.534   0.529   9.395
68876SOL     OW 8459   0.083   6.026  14.574
68876SOL    HW1 8460   0.110   5.947  14.527
68876SOL    HW2 8461  14.867   6.012  14.596
68877SOL     OW 8462   2.153   8.680   3.699
68877SOL    HW1 8463   2.180   8.672   3.608
68877SOL    HW2 8464   2.219   8.632   3.749
68878SOL     OW 8465   2.615   0.770   9.882
68878SOL    HW1 8466   2.554   0.826   9.835
68878SOL    HW2 8467   2.564   0.732   9.954
68879SOL     OW 8468  11.045   5.269  13.722
68879SOL    HW1 8469  11.063   5.226  13.638
68879SOL    HW2 8470  11.121   5.247  13.777
68880SOL     OW 8471  10.275  12.932   9.138
68880SOL    HW1 8472  10.275  12.985   9.059
68880SOL    HW2 8473  10.189  12.949   9.178
68881SOL     OW 8474  13.142  12.689  11.990
68881SOL    HW1 8475  13.149  12.745  12.067
68881SOL    HW2 8476  13.114  12.604  12.024
68882SOL     OW 8477   4.202  12.958   0.190
68882SOL    HW1 8478   4.196  12.989   0.099
68882SOL    HW2 8479   4.187  13.036   0.243
68883SOL     OW 8480  13.966   7.968  13.602
68883SOL    HW1 8481  14.016   7.958  13.682
68883SOL    HW2 8482  14.030   7.996  13.537
68884SOL     OW 8483   5.704   4.343   9.022
68884SOL    HW1 8484   5.713   4.304   8.935
68884SOL    HW2 8485   5.671   4.273   9.077
68885SOL     OW 8486   1.001  13.866   0.577
68885SOL    HW1 8487   1.075  13.914   0.537
68885SOL    HW2 8488   1.039  13.782   0.604
68886SOL     OW 8489  11.765   6.982  13.056
68886SOL    HW1 8490  11.834   6.983  12.990
68886SOL    HW2 8491  11.738   7.074  13.064
68887SOL     OW 8492   7.317   9.571  10.917
68887SOL    HW1 8493   7.277   9.569  10.830
68887SOL    HW2 8494   7.261   9.628  10.968
68888SOL     OW 8495   8.354   6.783   4.645
68888SOL    HW1 8496   8.306   6.850   4.694
68888SOL    HW2 8497   8.354   6.816   4.555
68889SOL     OW 8498   8.057   0.261  10.448
68889SOL    HW1 8499   7.999   0.202  10.495
68889SOL    HW2 8500   8.107   0.205  10.389
68890SOL     OW 8501   8.461   9.340  13.966
68890SOL    HW1 8502   8.425   9.261  14.005
68890SOL    HW2 8503   8.455   9.326  13.872
68891SOL     OW 8504   7.872   3.971  11.502
68891SOL    HW1 8505   7.954   3.986  11.457
68891SOL    HW2 8506   7.890   3.992  11.594
68892SOL     OW 8507  12.159   5.639  12.273
68892SOL    HW1 8508  12.145   5.685  12.355
68892SOL    HW2 8509  12.254   5.637  12.262
68893SOL     OW 8510   6.866   2.944   5.354
68893SOL    HW1 8511   6.810   2.908   5.285
68893SOL    HW2 8512   6.826   2.914   5.435
68894SOL     OW 8513   4.339   1.546   6.521
68894SOL    HW1 8514   4.412   1.509   6.572
68894SOL    HW2 8515   4.380   1.584   6.444
68895SOL     OW 8516   6.747   6.726   1.737
68895SOL    HW1 8517   6.816   6.788   1.760
68895SOL    HW2 8518   6.665   6.772   1.759
68896SOL     OW 8519   2.351   3.394   6.896
68896SOL    HW1 8520   2.332   3.444   6.976
68896SOL    HW2 8521   2.293   3.318   6.901
68897SOL     OW 8522   3.671  13.399   4.709
68897SOL    HW1 8523   3.659  13.371   4.619
68897SOL    HW2 8524   3.711  13.324   4.753
68898SOL     OW 8525  10.583   4.648   4.528
68898SOL    HW1 8526  10.592   4.606   4.614
68898SOL    HW2 8527  10.516   4.715   4.540
68899SOL     OW 8528  14.022   3.446   9.799
68899SOL    HW1 8529  14.109   3.415   9.823
68899SOL    HW2 8530  13.980   3.466   9.883
68900SOL     OW 8531  11.442   2.151  12.639
68900SOL    HW1 8532  11.420   2.207  12.565
68900SOL    HW2 8533  11.491   2.079  12.602
68901SOL     OW 8534   7.528   1.006  10.998
68901SOL    HW1 8535   7.603   1.065  11.002
68901SOL    HW2 8536   7.566   0.918  10.994
68902SOL     OW 8537   2.823  10.567  13.423
68902SOL    HW1 8538   2.846  10.647  13.470
68902SOL    HW2 8539   2.884  10.563  13.349
68903SOL     OW 8540   3.548   4.107   6.638
68903SOL    HW1 8541   3.588   4.020   6.641
68903SOL    HW2 8542   3.501   4.109   6.554
68904SOL     OW 8543   6.498   9.967  14.163
68904SOL    HW1 8544   6.568   9.907  14.190
68904SOL    HW2 8545   6.508  10.043  14.221
68905SOL     OW 8546   6.879  13.854  14.357
68905SOL    HW1 8547   6.913  13.792  14.292
68905SOL    HW2 8548   6.915  13.822  14.441
68906SOL     OW 8549   9.900   5.643   7.052
68906SOL    HW1 8550   9.873   5.570   6.995
68906SOL    HW2 8551   9.836   5.644   7.122
68907SOL     OW 8552   7.374   7.020  10.138
68907SOL    HW1 8553   7.283   7.031  10.112
68907SOL    HW2 8554   7.417   7.101  10.111
68908SOL     OW 8555  11.101   7.263   4.080
68908SOL    HW1 8556  11.026   7.240   4.026
68908SOL    HW2 8557  11.109   7.358   4.071
68909SOL     OW 8558   3.264  10.417   8.145
68909SOL    HW1 8559   3.296  10.331   8.119
68909SOL    HW2 8560   3.322  10.479   8.100
68910SOL     OW 8561   1.963   4.579  13.515
68910SOL    HW1 8562   2.025   4.540  13.576
68910SOL    HW2 8563   1.881   4.584  13.564
68911SOL     OW 8564   7.410   2.944   6.560
68911SOL    HW1 8565   7.401   3.038   6.540
68911SOL    HW2 8566   7.438   2.942   6.652
68912SOL     OW 8567  14.088   6.465   8.429
68912SOL    HW1 8568  14.152   6.400   8.401
68912SOL    HW2 8569  14.122   6.548   8.395
68913SOL     OW 8570   0.039  12.153   8.211
68913SOL    HW1 8571   0.066  12.166   8.302
68913SOL    HW2 8572  14.826  12.118   8.217
68914SOL     OW 8573   1.457   1.416   3.215
68914SOL    HW1 8574   1.367   1.449   3.207
68914SOL    HW2 8575   1.499   1.443   3.134
68915SOL     OW 8576   8.126  10.457  13.731
68915SOL    HW1 8577   8.199  10.514  13.753
68915SOL    HW2 8578   8.150  10.372  13.767
68916SOL     OW 8579   7.946   3.678  14.297
68916SOL    HW1 8580   7.942   3.748  14.232
68916SOL    HW2 8581   8.028   3.632  14.278
68917SOL     OW 8582   3.168   3.443   6.748
68917SOL    HW1 8583   3.204   3.525   6.782
68917SOL    HW2 8584   3.103   3.416   6.812
68918SOL     OW 8585   2.534   5.157  10.206
68918SOL    HW1 8586   2.477   5.231  10.185
68918SOL    HW2 8587   2.483   5.080  10.183
68919SOL     OW 8588   1.089   3.107   8.590
68919SOL    HW1 8589   1.132   3.059   8.660
68919SOL    HW2 8590   1.086   3.045   8.517
68920SOL     OW 8591  14.420  11.536  12.659
68920SOL    HW1 8592  14.450  11.494  12.739
68920SOL    HW2 8593  14.335  11.496  12.641
68921SOL     OW 8594  14.290   7.666  11.459
68921SOL    HW1 8595  14.203   7.703  11.443
68921SOL    HW2 8596  14.286   7.635  11.549
68922SOL     OW 8597  10.209   8.437   5.001
68922SOL    HW1 8598  10.279   8.372   5.006
68922SOL    HW2 8599  10.148   8.401   4.936
68923SOL     OW 8600   1.937   9.255   5.253
68923SOL    HW1 8601   1.918   9.284   5.342
68923SOL    HW2 8602   1.851   9.230   5.217
68924SOL     OW 8603   3.942  13.443   4.082
68924SOL    HW1 8604   3.997  13.497   4.024
68924SOL    HW2 8605   3.957  13.480   4.169
68925SOL     OW 8606   7.383  13.247   8.485
68925SOL    HW1 8607   7.472  13.272   8.461
68925SOL    HW2 8608   7.394  13.189   8.561
68926SOL     OW 8609  13.824  12.330   1.744
68926SOL    HW1 8610  13.769  12.407   1.758
68926SOL    HW2 8611  13.847  12.333   1.651
68927SOL     OW 8612   9.453   6.948  11.862
68927SOL    HW1 8613   9.450   6.852  11.869
68927SOL    HW2 8614   9.504   6.964  11.783
68928SOL     OW 8615  11.874   8.986   6.290
68928SOL    HW1 8616  11.811   9.058   6.296
68928SOL    HW2 8617  11.952   9.018   6.336
68929SOL     OW 8618   3.768   0.664  14.394
68929SOL    HW1 8619   3.796   0.748  14.357
68929SOL    HW2 8620   3.849   0.624  14.425
68930SOL     OW 8621   2.432   1.030   9.466
68930SOL    HW1 8622   2.507   1.059   9.517
68930SOL    HW2 8623   2.365   1.009   9.531
68931SOL     OW 8624   3.873   9.417   0.323
68931SOL    HW1 8625   3.968   9.410   0.329
68931SOL    HW2 8626   3.842   9.327   0.315
68932SOL     OW 8627   1.343   4.719  13.118
68932SOL    HW1 8628   1.322   4.750  13.206
68932SOL    HW2 8629   1.437   4.737  13.109
68933SOL     OW 8630   9.688   8.489   4.268
68933SOL    HW1 8631   9.623   8.430   4.230
68933SOL    HW2 8632   9.698   8.559   4.204
68934SOL     OW 8633   0.666   8.657  10.374
68934SOL    HW1 8634   0.692   8.748  10.360
68934SOL    HW2 8635   0.741   8.617  10.417
68935SOL     OW 8636  13.490  11.753   5.623
68935SOL    HW1 8637  13.462  11.771   5.533
68935SOL    HW2 8638  13.408  11.746   5.673
68936SOL     OW 8639   7.371   7.555   6.931
68936SOL    HW1 8640   7.432   7.482   6.918
68936SOL    HW2 8641   7.347   7.549   7.023
68937SOL     OW 8642   7.063   1.086   8.703
68937SOL    HW1 8643   7.139   1.110   8.650
68937SOL    HW2 8644   6.994   1.067   8.639
68938SOL     OW 8645   1.234   8.271   0.809
68938SOL    HW1 8646   1.192   8.254   0.725
68938SOL    HW2 8647   1.257   8.364   0.806
68939SOL     OW 8648   8.618   3.187   9.235
68939SOL    HW1 8649   8.532   3.229   9.228
68939SOL    HW2 8650   8.669   3.225   9.163
68940SOL     OW 8651  13.952  11.260  11.507
68940SOL    HW1 8652  13.999  11.248  11.425
68940SOL    HW2 8653  14.018  11.295  11.567
68941SOL     OW 8654  14.715   1.216  13.811
68941SOL    HW1 8655  14.721   1.208  13.716
68941SOL    HW2 8656  14.788   1.164  13.844
68942SOL     OW 8657   6.357  14.171   1.971
68942SOL    HW1 8658   6.340  14.129   1.887
68942SOL    HW2 8659   6.350  14.265   1.953
68943SOL     OW 8660  14.424   1.391   7.777
68943SOL    HW1 8661  14.444   1.298   7.770
68943SOL    HW2 8662  14.329   1.394   7.794
68944SOL     OW 8663   6.443   4.157   3.994
68944SOL    HW1 8664   6.497   4.107   4.055
68944SOL    HW2 8665   6.506   4.200   3.936
68945SOL     OW 8666   5.142   8.706  12.210
68945SOL    HW1 8667   5.179   8.754  12.136
68945SOL    HW2 8668   5.218   8.668  12.254
68946SOL     OW 8669  13.718   6.642   2.088
68946SOL    HW1 8670  13.782   6.712   2.097
68946SOL    HW2 8671  13.737   6.602   2.004
68947SOL     OW 8672  14.219   2.432  13.284
68947SOL    HW1 8673  14.265   2.348  13.276
68947SOL    HW2 8674  14.131   2.413  13.254
68948SOL     OW 8675   0.590   3.752  12.475
68948SOL    HW1 8676   0.673   3.726  12.436
68948SOL    HW2 8677   0.605   3.744  12.570
68949SOL     OW 8678   1.163   7.089  11.013
68949SOL    HW1 8679   1.132   7.179  11.008
68949SOL    HW2 8680   1.252   7.092  10.977
68950SOL     OW 8681  10.110   1.562   9.485
68950SOL    HW1 8682  10.197   1.524   9.502
68950SOL    HW2 8683  10.099   1.628   9.552
68951SOL     OW 8684  12.771   9.250   7.164
68951SOL    HW1 8685  12.859   9.282   7.182
68951SOL    HW2 8686  12.769   9.162   7.203
68952SOL     OW 8687   5.958   2.317   8.809
68952SOL    HW1 8688   5.992   2.383   8.748
68952SOL    HW2 8689   6.032   2.295   8.865
68953SOL     OW 8690  13.074   3.510   9.819
68953SOL    HW1 8691  13.134   3.525   9.746
68953SOL    HW2 8692  12.992   3.483   9.778
68954SOL     OW 8693   8.421   0.009  13.178
68954SOL    HW1 8694   8.509   0.004  13.141
68954SOL    HW2 8695   8.363   0.004  13.102
68955SOL     OW 8696   1.880   7.826   2.641
68955SOL    HW1 8697   1.891   7.736   2.610
68955SOL    HW2 8698   1.815   7.864   2.582
68956SOL     OW 8699   3.951   4.446   8.030
68956SOL    HW1 8700   3.906   4.363   8.012
68956SOL    HW2 8701   4.044   4.424   8.025
68957SOL     OW 8702   2.974   1.044   1.375
68957SOL    HW1 8703   3.011   1.039   1.287
68957SOL    HW2 8704   2.879   1.036   1.362
68958SOL     OW 8705   8.472   4.315   7.228
68958SOL    HW1 8706   8.422   4.295   7.149
68958SOL    HW2 8707   8.473   4.411   7.233
68959SOL     OW 8708   1.444   1.094  13.947
68959SOL    HW1 8709   1.498   1.146  14.007
68959SOL    HW2 8710   1.471   1.123  13.860
68960SOL     OW 8711   4.994   1.962   2.945
68960SOL    HW1 8712   4.935   2.031   2.914
68960SOL    HW2 8713   4.935   1.893   2.977
68961SOL     OW 8714   9.549   8.393   8.434
68961SOL    HW1 8715   9.625   8.335   8.435
68961SOL    HW2 8716   9.572   8.461   8.371
68962SOL     OW 8717   0.779  10.481  10.819
68962SOL    HW1 8718   0.851  10.483  10.757
68962SOL    HW2 8719   0.790  10.559  10.872
68963SOL     OW 8720   3.267  11.180   1.527
68963SOL    HW1 8721   3.299  11.266   1.498
68963SOL    HW2 8722   3.178  11.175   1.491
68964SOL     OW 8723  10.447   4.145   9.408
68964SOL    HW1 8724  10.444   4.143   9.504
68964SOL    HW2 8725  10.525   4.095   9.385
68965SOL     OW 8726  13.990   7.361  13.770
68965SOL    HW1 8727  13.960   7.277  13.735
68965SOL    HW2 8728  14.005   7.415  13.693
68966SOL     OW 8729   9.017   6.698   0.443
68966SOL    HW1 8730   8.970   6.709   0.526
68966SOL    HW2 8731   8.947   6.687   0.378
68967SOL     OW 8732   2.866   5.573  10.296
68967SOL    HW1 8733   2.788   5.521  10.315
68967SOL    HW2 8734   2.888   5.551  10.205
68968SOL     OW 8735   3.929   7.404   9.296
68968SOL    HW1 8736   3.958   7.441   9.379
68968SOL    HW2 8737   3.936   7.477   9.234
68969SOL     OW 8738   9.461   7.759  12.599
68969SOL    HW1 8739   9.541   7.731  12.644
68969SOL    HW2 8740   9.417   7.816  12.662
68970SOL     OW 8741   4.056  10.697   0.216
68970SOL    HW1 8742   4.086  10.663   0.132
68970SOL    HW2 8743   4.121  10.667   0.279
68971SOL     OW 8744   3.925  10.294   7.810
68971SOL    HW1 8745   3.912  10.315   7.903
68971SOL    HW2 8746   3.990  10.224   7.810
68972SOL     OW 8747  12.354   8.530  12.412
68972SOL    HW1 8748  12.337   8.620  12.439
68972SOL    HW2 8749  12.279   8.480  12.445
68973SOL     OW 8750   1.091   5.845   1.232
68973SOL    HW1 8751   0.995   5.846   1.241
68973SOL    HW2 8752   1.107   5.888   1.148
68974SOL     OW 8753   7.892   9.889  11.608
68974SOL    HW1 8754   7.898   9.852  11.696
68974SOL    HW2 8755   7.852   9.820  11.556
68975SOL     OW 8756  10.898  14.493  10.370
68975SOL    HW1 8757  10.971  14.556  10.370
68975SOL    HW2 8758  10.941  14.408  10.360
68976SOL     OW 8759  13.680   7.789  14.567
68976SOL    HW1 8760  13.619   7.762  14.635
68976SOL    HW2 8761  13.662   7.730  14.494
68977SOL     OW 8762  13.819   6.694   3.293
68977SOL    HW1 8763  13.732   6.733   3.306
68977SOL    HW2 8764  13.812   6.644   3.212
68978SOL     OW 8765   5.088  10.948   4.226
68978SOL    HW1 8766   5.089  10.993   4.310
68978SOL    HW2 8767   5.039  11.007   4.168
68979SOL     OW 8768   1.630   9.604   6.526
68979SOL    HW1 8769   1.633   9.616   6.621
68979SOL    HW2 8770   1.714   9.564   6.505
68980SOL     OW 8771   2.894  14.806   6.834
68980SOL    HW1 8772   2.829   0.000   6.844
68980SOL    HW2 8773   2.960  14.825   6.901
68981SOL     OW 8774   2.782   8.317  10.573
68981SOL    HW1 8775   2.860   8.275  10.538
68981SOL    HW2 8776   2.737   8.352  10.496
68982SOL     OW 8777   6.411   8.237   9.456
68982SOL    HW1 8778   6.353   8.313   9.460
68982SOL    HW2 8779   6.352   8.163   9.442
68983SOL     OW 8780  10.123   9.079  10.631
68983SOL    HW1 8781  10.072   9.131  10.569
68983SOL    HW2 8782  10.063   9.012  10.662
68984SOL     OW 8783   6.160   3.661  12.836
68984SOL    HW1 8784   6.219   3.729  12.868
68984SOL    HW2 8785   6.162   3.671  12.741
68985SOL     OW 8786  11.272   7.991   5.196
68985SOL    HW1 8787  11.207   8.050   5.234
68985SOL    HW2 8788  11.247   7.983   5.104
68986SOL     OW 8789   8.457   2.681  14.603
68986SOL    HW1 8790   8.378   2.627  14.608
68986SOL    HW2 8791   8.447   2.744  14.674
68987SOL     OW 8792  10.004   6.497  14.366
68987SOL    HW1 8793  10.076   6.539  14.413
68987SOL    HW2 8794  10.027   6.404  14.364
68988SOL     OW 8795   4.260   2.990  13.297
68988SOL    HW1 8796   4.321   2.952  13.360
68988SOL    HW2 8797   4.302   2.979  13.212
68989SOL     OW 8798   4.460   8.779   9.545
68989SOL    HW1 8799   4.508   8.723   9.606
68989SOL    HW2 8800   4.462   8.866   9.586
68990SOL     OW 8801   3.948  10.208   9.917
68990SOL    HW1 8802   3.942  10.113   9.906
68990SOL    HW2 8803   3.951  10.221  10.011
68991SOL     OW 8804   6.518  11.410  13.040
68991SOL    HW1 8805   6.587  11.425  12.975
68991SOL    HW2 8806   6.487  11.497  13.064
68992SOL     OW 8807   8.815  14.206  12.847
68992SOL    HW1 8808   8.755  14.278  12.865
68992SOL    HW2 8809   8.802  14.186  12.755
68993SOL     OW 8810   5.954  12.630   7.746
68993SOL    HW1 8811   5.931  12.562   7.683
68993SOL    HW2 8812   5.976  12.583   7.826
68994SOL     OW 8813  14.740  12.738   1.662
68994SOL    HW1 8814  14.686  12.662   1.643
68994SOL    HW2 8815  14.739  12.744   1.758
68995SOL     OW 8816   0.321  14.051  14.403
68995SOL    HW1 8817   0.258  14.114  14.367
68995SOL    HW2 8818   0.379  14.030  14.330
68996SOL     OW 8819   8.833   1.605   5.472
68996SOL    HW1 8820   8.917   1.592   5.428
68996SOL    HW2 8821   8.824   1.529   5.529
68997SOL     OW 8822   2.878   9.580   8.445
68997SOL    HW1 8823   2.967   9.567   8.477
68997SOL    HW2 8824   2.885   9.572   8.350
68998SOL     OW 8825   7.641   4.695  11.855
68998SOL    HW1 8826   7.677   4.609  11.873
68998SOL    HW2 8827   7.703   4.736  11.795
68999SOL     OW 8828   9.514   8.484   7.608
68999SOL    HW1 8829   9.496   8.506   7.516
68999SOL    HW2 8830   9.488   8.561   7.657
69000SOL     OW 8831  12.018   9.958   8.352
69000SOL    HW1 8832  12.008  10.054   8.352
69000SOL    HW2 8833  12.112   9.944   8.342
69001SOL     OW 8834   8.325   2.597   7.437
69001SOL    HW1 8835   8.337   2.616   7.344
69001SOL    HW2 8836   8.396   2.644   7.480
69002SOL     OW 8837   8.976   0.783   1.468
69002SOL    HW1 8838   8.921   0.841   1.415
69002SOL    HW2 8839   8.966   0.697   1.427
69003SOL     OW 8840   1.593   4.918  11.029
69003SOL    HW1 8841   1.597   4.835  11.077
69003SOL    HW2 8842   1.556   4.894  10.944
69004SOL     OW 8843   3.881   1.547  14.259
69004SOL    HW1 8844   3.926   1.517  14.180
69004SOL    HW2 8845   3.945   1.533  14.329
69005SOL     OW 8846   4.951  10.291  11.388
69005SOL    HW1 8847   4.971  10.375  11.347
69005SOL    HW2 8848   5.019  10.280  11.455
69006SOL     OW 8849  13.704  13.831   5.121
69006SOL    HW1 8850  13.659  13.749   5.139
69006SOL    HW2 8851  13.685  13.849   5.029
69007SOL     OW 8852   0.494   2.992   7.169
69007SOL    HW1 8853   0.585   2.981   7.197
69007SOL    HW2 8854   0.462   3.066   7.221
69008SOL     OW 8855   6.983   5.466  11.383
69008SOL    HW1 8856   7.019   5.504  11.303
69008SOL    HW2 8857   6.894   5.439  11.359
69009SOL     OW 8858   2.228  13.554   7.557
69009SOL    HW1 8859   2.163  13.604   7.606
69009SOL    HW2 8860   2.308  13.605   7.564
69010SOL     OW 8861  10.716   2.161  11.753
69010SOL    HW1 8862  10.794   2.105  11.750
69010SOL    HW2 8863  10.751   2.249  11.764
69011SOL     OW 8864   5.161   9.466   5.448
69011SOL    HW1 8865   5.218   9.456   5.372
69011SOL    HW2 8866   5.221   9.485   5.520
69012SOL     OW 8867  10.603   0.900   1.828
69012SOL    HW1 8868  10.582   0.818   1.783
69012SOL    HW2 8869  10.581   0.884   1.920
69013SOL     OW 8870   6.423   4.927  13.851
69013SOL    HW1 8871   6.425   4.841  13.893
69013SOL    HW2 8872   6.379   4.983  13.913
69014SOL     OW 8873   0.477  11.196   6.816
69014SOL    HW1 8874   0.405  11.259   6.825
69014SOL    HW2 8875   0.495  11.167   6.906
69015SOL     OW 8876   4.695   2.659   1.620
69015SOL    HW1 8877   4.718   2.568   1.639
69015SOL    HW2 8878   4.770   2.709   1.652
69016SOL     OW 8879  13.313  10.298  14.219
69016SOL    HW1 8880  13.243  10.268  14.161
69016SOL    HW2 8881  13.346  10.377  14.177
69017SOL     OW 8882   5.784   3.264  13.190
69017SOL    HW1 8883   5.859   3.292  13.243
69017SOL    HW2 8884   5.820   3.246  13.104
69018SOL     OW 8885   0.667   0.742   3.055
69018SOL    HW1 8886   0.701   0.747   3.144
69018SOL    HW2 8887   0.592   0.682   3.062
69019SOL     OW 8888  10.080  13.418   6.942
69019SOL    HW1 8889  10.128  13.408   7.024
69019SOL    HW2 8890  10.089  13.511   6.921
69020SOL     OW 8891   1.301  13.817   6.181
69020SOL    HW1 8892   1.383  13.797   6.225
69020SOL    HW2 8893   1.307  13.910   6.158
69021SOL     OW 8894   8.649   5.684   8.230
69021SOL    HW1 8895   8.618   5.672   8.320
69021SOL    HW2 8896   8.571   5.672   8.176
69022SOL     OW 8897  14.067   0.007   7.655
69022SOL    HW1 8898  14.054  14.793   7.687
69022SOL    HW2 8899  14.110   0.052   7.727
69023SOL     OW 8900  14.559  12.165   9.592
69023SOL    HW1 8901  14.591  12.234   9.649
69023SOL    HW2 8902  14.464  12.177   9.590
69024SOL     OW 8903   5.162   8.625   4.195
69024SOL    HW1 8904   5.105   8.583   4.259
69024SOL    HW2 8905   5.242   8.644   4.244
69025SOL     OW 8906   7.349   8.002  10.235
69025SOL    HW1 8907   7.392   7.930  10.281
69025SOL    HW2 8908   7.394   8.007  10.151
69026SOL     OW 8909   4.983  12.601   3.828
69026SOL    HW1 8910   5.071  12.622   3.858
69026SOL    HW2 8911   4.994  12.580   3.735
69027SOL     OW 8912  10.650   4.819   6.108
69027SOL    HW1 8913  10.701   4.882   6.058
69027SOL    HW2 8914  10.576   4.870   6.142
69028SOL     OW 8915  13.625  13.506   5.065
69028SOL    HW1 8916  13.686  13.491   4.993
69028SOL    HW2 8917  13.539  13.489   5.028
69029SOL     OW 8918  11.818   5.724   6.807
69029SOL    HW1 8919  11.838   5.661   6.877
69029SOL    HW2 8920  11.902   5.736   6.762
69030SOL     OW 8921   7.624  12.385  13.510
69030SOL    HW1 8922   7.712  12.363  13.542
69030SOL    HW2 8923   7.602  12.467  13.554
69031SOL     OW 8924   5.984  13.878   2.398
69031SOL    HW1 8925   6.062  13.824   2.410
69031SOL    HW2 8926   5.916  13.834   2.448
69032SOL     OW 8927  13.237   6.397  10.251
69032SOL    HW1 8928  13.210   6.345  10.327
69032SOL    HW2 8929  13.228   6.488  10.280
69033SOL     OW 8930   0.877   2.960   0.629
69033SOL    HW1 8931   0.959   2.995   0.594
69033SOL    HW2 8932   0.859   3.013   0.706
69034SOL     OW 8933  12.609   2.176  11.325
69034SOL    HW1 8934  12.644   2.221  11.248
69034SOL    HW2 8935  12.544   2.237  11.361
69035SOL     OW 8936   3.150   6.749   0.147
69035SOL    HW1 8937   3.216   6.708   0.203
69035SOL    HW2 8938   3.178   6.729   0.058
69036SOL     OW 8939   9.956   6.003  12.989
69036SOL    HW1 8940   9.890   5.961  13.043
69036SOL    HW2 8941   9.917   6.087  12.964
69037SOL     OW 8942   7.674   4.370  12.550
69037SOL    HW1 8943   7.582   4.356  12.572
69037SOL    HW2 8944   7.673   4.443  12.488
69038SOL     OW 8945   6.822   8.652   8.511
69038SOL    HW1 8946   6.845   8.560   8.524
69038SOL    HW2 8947   6.887   8.684   8.449
69039SOL     OW 8948   2.710  14.605  14.757
69039SOL    HW1 8949   2.712  14.665  14.831
69039SOL    HW2 8950   2.623  14.565  14.760
69040SOL     OW 8951   1.726   0.892   7.701
69040SOL    HW1 8952   1.693   0.843   7.776
69040SOL    HW2 8953   1.806   0.934   7.734
69041SOL     OW 8954   2.837   1.078   7.559
69041SOL    HW1 8955   2.868   1.142   7.623
69041SOL    HW2 8956   2.746   1.103   7.542
69042SOL     OW 8957  12.707   8.521  14.353
69042SOL    HW1 8958  12.796   8.490  14.335
69042SOL    HW2 8959  12.716   8.577  14.430
69043SOL     OW 8960   8.556   1.165   0.040
69043SOL    HW1 8961   8.482   1.226   0.038
69043SOL    HW2 8962   8.582   1.156  14.824
69044SOL     OW 8963   4.013  11.489   9.356
69044SOL    HW1 8964   3.968  11.510   9.438
69044SOL    HW2 8965   4.097  11.452   9.382
69045SOL     OW 8966  11.104   9.482   1.841
69045SOL    HW1 8967  11.075   9.401   1.883
69045SOL    HW2 8968  11.104   9.462   1.747
69046SOL     OW 8969   6.170  11.711   1.994
69046SOL    HW1 8970   6.112  11.641   2.022
69046SOL    HW2 8971   6.188  11.761   2.074
69047SOL     OW 8972  14.080   3.455  11.878
69047SOL    HW1 8973  14.093   3.364  11.850
69047SOL    HW2 8974  14.041   3.447  11.965
69048SOL     OW 8975   4.062  12.247  14.592
69048SOL    HW1 8976   4.055  12.152  14.606
69048SOL    HW2 8977   4.152  12.268  14.614
69049SOL     OW 8978  10.020  12.607  12.136
69049SOL    HW1 8979   9.990  12.694  12.161
69049SOL    HW2 8980  10.069  12.621  12.055
69050SOL     OW 8981   4.586  14.048  10.920
69050SOL    HW1 8982   4.524  14.095  10.864
69050SOL    HW2 8983   4.607  13.969  10.870
69051SOL     OW 8984  13.124  10.403   9.221
69051SOL    HW1 8985  13.049  10.440   9.268
69051SOL    HW2 8986  13.121  10.310   9.240
69052SOL     OW 8987   0.938   8.125   4.376
69052SOL    HW1 8988   0.943   8.162   4.464
69052SOL    HW2 8989   0.862   8.167   4.336
69053SOL     OW 8990   8.192  10.533  11.181
69053SOL    HW1 8991   8.233  10.461  11.229
69053SOL    HW2 8992   8.234  10.531  11.095
69054SOL     OW 8993   4.730  13.481   6.557
69054SOL    HW1 8994   4.664  13.474   6.488
69054SOL    HW2 8995   4.720  13.570   6.591
69055SOL     OW 8996  12.761   0.290   8.300
69055SOL    HW1 8997  12.811   0.316   8.222
69055SOL    HW2 8998  12.676   0.332   8.289
69056SOL     OW 8999  10.252  11.187   6.456
69056SOL    HW1 9000  10.204  11.156   6.533
69056SOL    HW2 9001  10.183  11.219   6.397
69057SOL     OW 9002   0.880   0.311  11.769
69057SOL    HW1 9003   0.878   0.368  11.846
69057SOL    HW2 9004   0.905   0.225  11.804
69058SOL     OW 9005   7.654  10.726   2.815
69058SOL    HW1 9006   7.665  10.819   2.795
69058SOL    HW2 9007   7.696  10.680   2.742
69059SOL     OW 9008   8.342  14.619   2.616
69059SOL    HW1 9009   8.296  14.698   2.588
69059SOL    HW2 9010   8.286  14.580   2.682
69060SOL     OW 9011   6.228   4.663   9.056
69060SOL    HW1 9012   6.259   4.702   8.974
69060SOL    HW2 9013   6.302   4.669   9.116
69061SOL     OW 9014   8.136   8.591   9.639
69061SOL    HW1 9015   8.059   8.646   9.628
69061SOL    HW2 9016   8.114   8.510   9.592
69062SOL     OW 9017  14.789   3.945   2.355
69062SOL    HW1 9018  14.768   3.999   2.278
69062SOL    HW2 9019  14.777   4.005   2.429
69063SOL     OW 9020   9.558   1.978  12.213
69063SOL    HW1 9021   9.590   2.059  12.174
69063SOL    HW2 9022   9.472   2.000  12.247
69064SOL     OW 9023  10.455  11.434  12.330
69064SOL    HW1 9024  10.406  11.466  12.406
69064SOL    HW2 9025  10.547  11.447  12.353
69065SOL     OW 9026   9.941   4.061  11.402
69065SOL    HW1 9027   9.907   4.080  11.489
69065SOL    HW2 9028   9.871   4.085  11.342
69066SOL     OW 9029   5.201   7.438   1.637
69066SOL    HW1 9030   5.206   7.451   1.542
69066SOL    HW2 9031   5.107   7.440   1.656
69067SOL     OW 9032   2.266   1.956  13.734
69067SOL    HW1 9033   2.299   2.044  13.749
69067SOL    HW2 9034   2.309   1.902  13.801
69068SOL     OW 9035  10.911   1.928   0.980
69068SOL    HW1 9036  10.885   1.917   1.072
69068SOL    HW2 9037  10.904   2.022   0.964
69069SOL     OW 9038  10.437  11.337   0.357
69069SOL    HW1 9039  10.460  11.247   0.381
69069SOL    HW2 9040  10.519  11.375   0.325
69070SOL     OW 9041   6.185   9.518   0.267
69070SOL    HW1 9042   6.097   9.552   0.286
69070SOL    HW2 9043   6.190   9.516   0.171
69071SOL     OW 9044  11.643   1.629   2.317
69071SOL    HW1 9045  11.593   1.553   2.286
69071SOL    HW2 9046  11.599   1.704   2.277
69072SOL     OW 9047  12.358   6.615   4.847
69072SOL    HW1 9048  12.304   6.643   4.773
69072SOL    HW2 9049  12.446   6.642   4.824
69073SOL     OW 9050   6.169  13.257  10.571
69073SOL    HW1 9051   6.220  13.335  10.549
69073SOL    HW2 9052   6.145  13.219  10.487
69074SOL     OW 9053  10.356   3.261  11.875
69074SOL    HW1 9054  10.383   3.330  11.935
69074SOL    HW2 9055  10.381   3.179  11.919
69075SOL     OW 9056   0.749   5.939   5.634
69075SOL    HW1 9057   0.794   5.970   5.713
69075SOL    HW2 9058   0.698   6.014   5.604
69076SOL     OW 9059   6.271  11.011   5.095
69076SOL    HW1 9060   6.333  11.006   5.169
69076SOL    HW2 9061   6.247  10.921   5.078
69077SOL     OW 9062   4.167   8.710  11.150
69077SOL    HW1 9063   4.235   8.701  11.084
69077SOL    HW2 9064   4.156   8.804  11.161
69078SOL     OW 9065   3.749   2.831   8.756
69078SOL    HW1 9066   3.735   2.859   8.665
69078SOL    HW2 9067   3.750   2.913   8.806
69079SOL     OW 9068   0.123  11.597   2.930
69079SOL    HW1 9069   0.074  11.588   3.012
69079SOL    HW2 9070   0.070  11.656   2.876
69080SOL     OW 9071   6.537   1.901   4.951
69080SOL    HW1 9072   6.529   1.821   4.900
69080SOL    HW2 9073   6.629   1.926   4.942
69081SOL     OW 9074   1.841   1.575   4.044
69081SOL    HW1 9075   1.803   1.510   4.103
69081SOL    HW2 9076   1.886   1.524   3.977
69082SOL     OW 9077  11.181   0.271  10.520
69082SOL    HW1 9078  11.207   0.217  10.595
69082SOL    HW2 9079  11.110   0.326  10.554
69083SOL     OW 9080  11.111   2.652   3.042
69083SOL    HW1 9081  11.086   2.559   3.044
69083SOL    HW2 9082  11.195   2.654   3.088
69084SOL     OW 9083   1.396   6.729   7.522
69084SOL    HW1 9084   1.345   6.804   7.491
69084SOL    HW2 9085   1.390   6.734   7.618
69085SOL     OW 9086   1.305   5.214   0.277
69085SOL    HW1 9087   1.310   5.128   0.318
69085SOL    HW2 9088   1.323   5.276   0.348
69086SOL     OW 9089  11.578   6.695   3.752
69086SOL    HW1 9090  11.518   6.762   3.785
69086SOL    HW2 9091  11.661   6.712   3.798
69087SOL     OW 9092   1.747   7.184   2.741
69087SOL    HW1 9093   1.733   7.132   2.820
69087SOL    HW2 9094   1.660   7.213   2.715
69088SOL     OW 9095  13.923   7.768  10.972
69088SOL    HW1 9096  13.861   7.710  10.929
69088SOL    HW2 9097  13.873   7.810  11.041
69089SOL     OW 9098  12.236   7.163  11.510
69089SOL    HW1 9099  12.258   7.106  11.435
69089SOL    HW2 9100  12.292   7.240  11.499
69090SOL     OW 9101   7.272  14.739   7.822
69090SOL    HW1 9102   7.248  14.720   7.731
69090SOL    HW2 9103   7.360  14.777   7.816
69091SOL     OW 9104  11.394   9.470   6.931
69091SOL    HW1 9105  11.404   9.501   6.841
69091SOL    HW2 9106  11.438   9.385   6.933
69092SOL     OW 9107  12.311   2.477   1.235
69092SOL    HW1 9108  12.350   2.560   1.264
69092SOL    HW2 9109  12.271   2.441   1.314
69093SOL     OW 9110   2.340   6.441  12.494
69093SOL    HW1 9111   2.394   6.371  12.458
69093SOL    HW2 9112   2.279   6.397  12.554
69094SOL     OW 9113  11.533   5.884   3.407
69094SOL    HW1 9114  11.589   5.910   3.334
69094SOL    HW2 9115  11.512   5.967   3.452
69095SOL     OW 9116  14.113   0.766  11.436
69095SOL    HW1 9117  14.149   0.761  11.347
69095SOL    HW2 9118  14.018   0.770  11.423
69096SOL     OW 9119  11.906   2.612   4.563
69096SOL    HW1 9120  11.971   2.678   4.588
69096SOL    HW2 9121  11.926   2.537   4.619
69097SOL     OW 9122   6.481   8.416   3.966
69097SOL    HW1 9123   6.455   8.469   4.041
69097SOL    HW2 9124   6.565   8.378   3.992
69098SOL     OW 9125  13.433   2.662   4.634
69098SOL    HW1 9126  13.479   2.698   4.710
69098SOL    HW2 9127  13.360   2.722   4.620
69099SOL     OW 9128  10.601  13.658   8.771
69099SOL    HW1 9129  10.695  13.677   8.772
69099SOL    HW2 9130  10.581  13.634   8.681
69100SOL     OW 9131   9.975   6.516  14.098
69100SOL    HW1 9132   9.968   6.512  14.193
69100SOL    HW2 9133  10.068   6.534  14.082
69101SOL     OW 9134   8.699   6.752   1.530
69101SOL    HW1 9135   8.617   6.801   1.529
69101SOL    HW2 9136   8.729   6.758   1.621
69102SOL     OW 9137   6.561  10.388   7.157
69102SOL    HW1 9138   6.592  10.310   7.204
69102SOL    HW2 9139   6.622  10.399   7.085
69103SOL     OW 9140   3.867   7.367   4.839
69103SOL    HW1 9141   3.862   7.426   4.763
69103SOL    HW2 9142   3.866   7.426   4.915
69104SOL     OW 9143  10.533   1.999   3.798
69104SOL    HW1 9144  10.560   2.049   3.875
69104SOL    HW2 9145  10.592   1.924   3.797
69105SOL     OW 9146   8.919  13.652   0.573
69105SOL    HW1 9147   9.000  13.700   0.594
69105SOL    HW2 9148   8.866  13.659   0.652
69106SOL     OW 9149   7.792   3.129   1.880
69106SOL    HW1 9150   7.768   3.218   1.854
69106SOL    HW2 9151   7.887   3.126   1.870
69107SOL     OW 9152   8.802   4.124  12.353
69107SOL    HW1 9153   8.755   4.168  12.282
69107SOL    HW2 9154   8.756   4.040  12.364
69108SOL     OW 9155   2.849  13.620  13.707
69108SOL    HW1 9156   2.869  13.529  13.731
69108SOL    HW2 9157   2.931  13.653  13.670
69109SOL     OW 9158   5.101   2.959  12.005
69109SOL    HW1 9159   5.192   2.951  12.035
69109SOL    HW2 9160   5.049   2.926  12.079
69110SOL     OW 9161   3.876   0.602   8.135
69110SOL    HW1 9162   3.923   0.595   8.052
69110SOL    HW2 9163   3.929   0.551   8.197
69111SOL     OW 9164   1.508   8.191  14.824
69111SOL    HW1 9165   1.443   8.151  14.766
69111SOL    HW2 9166   1.593   8.162  14.789
69112SOL     OW 9167  14.427   9.976   9.697
69112SOL    HW1 9168  14.435  10.071   9.690
69112SOL    HW2 9169  14.408   9.960   9.790
69113SOL     OW 9170   8.304   9.393   1.537
69113SOL    HW1 9171   8.318   9.488   1.533
69113SOL    HW2 9172   8.210   9.383   1.552
69114SOL     OW 9173   0.094   4.466   7.050
69114SOL    HW1 9174   0.018   4.493   6.998
69114SOL    HW2 9175   0.066   4.477   7.140
69115SOL     OW 9176  13.259  10.607   9.039
69115SOL    HW1 9177  13.173  10.585   9.003
69115SOL    HW2 9178  13.260  10.568   9.126
69116SOL     OW 9179  10.321   3.446  12.079
69116SOL    HW1 9180  10.253   3.490  12.131
69116SOL    HW2 9181  10.403   3.489  12.105
69117SOL     OW 9182  10.627   6.566  12.405
69117SOL    HW1 9183  10.709   6.516  12.396
69117SOL    HW2 9184  10.643   6.646  12.354
69118SOL     OW 9185  12.846   4.976  10.369
69118SOL    HW1 9186  12.865   4.919  10.294
69118SOL    HW2 9187  12.932   4.990  10.410
69119SOL     OW 9188   9.379   7.126   6.240
69119SOL    HW1 9189   9.453   7.157   6.292
69119SOL    HW2 9190   9.350   7.046   6.284
69120SOL     OW 9191  13.592   3.191   9.257
69120SOL    HW1 9192  13.642   3.259   9.212
69120SOL    HW2 9193  13.533   3.238   9.315
69121SOL     OW 9194   8.206   7.138  13.426
69121SOL    HW1 9195   8.143   7.209  13.413
69121SOL    HW2 9196   8.174   7.067  13.370
69122SOL     OW 9197  14.063  14.194   0.987
69122SOL    HW1 9198  14.087  14.245   1.065
69122SOL    HW2 9199  14.113  14.235   0.916
69123SOL     OW 9200   0.973  13.330   5.183
69123SOL    HW1 9201   0.895  13.276   5.169
69123SOL    HW2 9202   0.954  13.412   5.136
69124SOL     OW 9203  14.277  13.831   4.592
69124SOL    HW1 9204  14.291  13.902   4.654
69124SOL    HW2 9205  14.226  13.767   4.641
69125SOL     OW 9206   7.177   5.416   9.999
69125SOL    HW1 9207   7.243   5.355   9.968
69125SOL    HW2 9208   7.222   5.500  10.007
69126SOL     OW 9209   6.021   8.593   0.636
69126SOL    HW1 9210   6.021   8.664   0.571
69126SOL    HW2 9211   5.931   8.559   0.634
69127SOL     OW 9212  10.730   6.350   7.419
69127SOL    HW1 9213  10.731   6.441   7.389
69127SOL    HW2 9214  10.718   6.298   7.339
69128SOL     OW 9215  11.229  11.815   4.157
69128SOL    HW1 9216  11.207  11.883   4.093
69128SOL    HW2 9217  11.211  11.733   4.111
69129SOL     OW 9218  13.939  10.593  12.064
69129SOL    HW1 9219  14.011  10.532  12.047
69129SOL    HW2 9220  13.939  10.604  12.159
69130SOL     OW 9221  12.005  13.142   9.494
69130SOL    HW1 9222  12.039  13.178   9.576
69130SOL    HW2 9223  11.935  13.202   9.468
69131SOL     OW 9224  11.741  12.762   6.338
69131SOL    HW1 9225  11.658  12.721   6.364
69131SOL    HW2 9226  11.807  12.695   6.354
69132SOL     OW 9227  11.205   1.785   9.496
69132SOL    HW1 9228  11.248   1.708   9.533
69132SOL    HW2 9229  11.123   1.793   9.545
69133SOL     OW 9230   1.444  11.292   6.049
69133SOL    HW1 9231   1.397  11.209   6.057
69133SOL    HW2 9232   1.418  11.342   6.126
69134SOL     OW 9233  11.169  13.573   4.742
69134SOL    HW1 9234  11.242  13.513   4.752
69134SOL    HW2 9235  11.091  13.519   4.758
69135SOL     OW 9236   8.279   9.444   3.149
69135SOL    HW1 9237   8.298   9.537   3.132
69135SOL    HW2 9238   8.314   9.399   3.072
69136SOL     OW 9239  10.638   8.271   5.652
69136SOL    HW1 9240  10.557   8.252   5.605
69136SOL    HW2 9241  10.702   8.289   5.583
69137SOL     OW 9242   4.353   8.111   1.914
69137SOL    HW1 9243   4.408   8.045   1.956
69137SOL    HW2 9244   4.415   8.172   1.873
69138SOL     OW 9245   5.673   2.292   5.884
69138SOL    HW1 9246   5.711   2.329   5.963
69138SOL    HW2 9247   5.726   2.215   5.865
69139SOL     OW 9248   7.205   5.854   6.156
69139SOL    HW1 9249   7.115   5.861   6.125
69139SOL    HW2 9250   7.250   5.801   6.089
69140SOL     OW 9251  13.406  12.221  13.615
69140SOL    HW1 9252  13.329  12.268  13.584
69140SOL    HW2 9253  13.442  12.179  13.537
69141SOL     OW 9254  14.196   9.671  14.637
69141SOL    HW1 9255  14.151   9.740  14.588
69141SOL    HW2 9256  14.195   9.701  14.728
69142SOL     OW 9257   6.875   6.703   3.322
69142SOL    HW1 9258   6.829   6.670   3.399
69142SOL    HW2 9259   6.913   6.787   3.350
69143SOL     OW 9260  12.035   2.417   6.095
69143SOL    HW1 9261  11.998   2.425   6.183
69143SOL    HW2 9262  12.027   2.505   6.058
69144SOL     OW 9263  11.185  13.455   5.123
69144SOL    HW1 9264  11.262  13.466   5.179
69144SOL    HW2 9265  11.126  13.525   5.151
69145SOL     OW 9266  10.699   8.769  10.409
69145SOL    HW1 9267  10.697   8.776  10.314
69145SOL    HW2 9268  10.610   8.743  10.433
69146SOL     OW 9269   1.683   3.722   1.974
69146SOL    HW1 9270   1.758   3.680   1.931
69146SOL    HW2 9271   1.721   3.792   2.025
69147SOL     OW 9272   4.113   6.116   2.144
69147SOL    HW1 9273   4.148   6.030   2.119
69147SOL    HW2 9274   4.066   6.146   2.066
69148SOL     OW 9275   6.433  14.527   1.260
69148SOL    HW1 9276   6.363  14.463   1.249
69148SOL    HW2 9277   6.499  14.482   1.313
69149SOL     OW 9278   1.302   5.661   2.383
69149SOL    HW1 9279   1.340   5.723   2.445
69149SOL    HW2 9280   1.329   5.575   2.417
69150SOL     OW 9281  13.066  14.600   8.483
69150SOL    HW1 9282  13.030  14.689   8.488
69150SOL    HW2 9283  13.150  14.607   8.528
69151SOL     OW 9284   0.949   2.779   4.843
69151SOL    HW1 9285   1.036   2.767   4.880
69151SOL    HW2 9286   0.890   2.776   4.917
69152SOL     OW 9287  13.308   9.700  13.780
69152SOL    HW1 9288  13.321   9.609  13.752
69152SOL    HW2 9289  13.290   9.747  13.699
69153SOL     OW 9290   3.637   9.836  11.399
69153SOL    HW1 9291   3.616   9.806  11.310
69153SOL    HW2 9292   3.722   9.798  11.418
69154SOL     OW 9293   7.493  13.534   0.693
69154SOL    HW1 9294   7.493  13.619   0.649
69154SOL    HW2 9295   7.538  13.476   0.632
69155SOL     OW 9296   2.326   3.722   5.546
69155SOL    HW1 9297   2.280   3.708   5.463
69155SOL    HW2 9298   2.258   3.748   5.608
69156SOL     OW 9299   0.688   1.538   2.155
69156SOL    HW1 9300   0.720   1.547   2.065
69156SOL    HW2 9301   0.594   1.521   2.146
69157SOL     OW 9302  13.720   5.920   2.515
69157SOL    HW1 9303  13.748   6.000   2.560
69157SOL    HW2 9304  13.650   5.885   2.570
69158SOL     OW 9305  10.944   2.087   2.049
69158SOL    HW1 9306  10.979   2.175   2.033
69158SOL    HW2 9307  11.008   2.029   2.008
69159SOL     OW 9308   4.300  13.540  14.683
69159SOL    HW1 9309   4.229  13.537  14.746
69159SOL    HW2 9310   4.319  13.634  14.673
69160SOL     OW 9311   7.282   1.245   5.260
69160SOL    HW1 9312   7.330   1.249   5.342
69160SOL    HW2 9313   7.218   1.316   5.266
69161SOL     OW 9314   4.022   1.152   0.675
69161SOL    HW1 9315   3.960   1.153   0.602
69161SOL    HW2 9316   4.108   1.159   0.634
69162SOL     OW 9317   8.950  14.722   9.674
69162SOL    HW1 9318   9.041  14.708   9.699
69162SOL    HW2 9319   8.950  14.723   9.578
69163SOL     OW 9320   5.893   6.867   1.235
69163SOL    HW1 9321   5.898   6.852   1.141
69163SOL    HW2 9322   5.826   6.806   1.266
69164SOL     OW 9323   7.290   8.038   7.620
69164SOL    HW1 9324   7.241   8.011   7.543
69164SOL    HW2 9325   7.382   8.031   7.594
69165SOL     OW 9326  13.650   8.947   2.203
69165SOL    HW1 9327  13.713   8.963   2.134
69165SOL    HW2 9328  13.664   8.856   2.228
69166SOL     OW 9329  11.456   4.627   8.701
69166SOL    HW1 9330  11.368   4.645   8.668
69166SOL    HW2 9331  11.487   4.712   8.733
69167SOL     OW 9332  13.421  10.162   2.555
69167SOL    HW1 9333  13.417  10.103   2.480
69167SOL    HW2 9334  13.350  10.225   2.540
69168SOL     OW 9335   7.740   7.447   5.059
69168SOL    HW1 9336   7.704   7.524   5.017
69168SOL    HW2 9337   7.690   7.437   5.140
69169SOL     OW 9338   8.668  11.788   1.216
69169SOL    HW1 9339   8.590  11.795   1.162
69169SOL    HW2 9340   8.707  11.876   1.213
69170SOL     OW 9341  11.255   2.386  13.484
69170SOL    HW1 9342  11.281   2.395  13.392
69170SOL    HW2 9343  11.287   2.465  13.526
69171SOL     OW 9344  12.181  14.811   6.710
69171SOL    HW1 9345  12.193  14.722   6.743
69171SOL    HW2 9346  12.269  14.849   6.712
69172SOL     OW 9347   8.409  14.103   3.728
69172SOL    HW1 9348   8.369  14.070   3.648
69172SOL    HW2 9349   8.443  14.024   3.772
69173SOL     OW 9350   2.995   1.494   8.800
69173SOL    HW1 9351   2.960   1.448   8.876
69173SOL    HW2 9352   2.945   1.575   8.796
69174SOL     OW 9353   9.298   4.435  11.609
69174SOL    HW1 9354   9.380   4.393  11.632
69174SOL    HW2 9355   9.321   4.496  11.539
69175SOL     OW 9356   6.962   9.836   4.775
69175SOL    HW1 9357   6.989   9.863   4.863
69175SOL    HW2 9358   7.021   9.763   4.754
69176SOL     OW 9359   9.075   8.178   9.073
69176SOL    HW1 9360   8.983   8.151   9.078
69176SOL    HW2 9361   9.077   8.245   9.005
69177SOL     OW 9362   0.411  12.131   3.412
69177SOL    HW1 9363   0.341  12.193   3.431
69177SOL    HW2 9364   0.489  12.186   3.401
69178SOL     OW 9365   6.151   3.105  11.041
69178SOL    HW1 9366   6.080   3.153  11.000
69178SOL    HW2 9367   6.218   3.097  10.972
69179SOL     OW 9368   5.255   1.983   7.846
69179SOL    HW1 9369   5.283   1.983   7.938
69179SOL    HW2 9370   5.207   1.900   7.837
69180SOL     OW 9371   4.066   6.822   7.187
69180SOL    HW1 9372   3.973   6.807   7.204
69180SOL    HW2 9373   4.110   6.748   7.229
69181SOL     OW 9374   1.857  13.699   5.630
69181SOL    HW1 9375   1.793  13.746   5.577
69181SOL    HW2 9376   1.870  13.753   5.707
69182SOL     OW 9377   6.711  12.607   1.676
69182SOL    HW1 9378   6.723  12.647   1.590
69182SOL    HW2 9379   6.676  12.678   1.730
69183SOL     OW 9380   1.346   4.344   5.069
69183SOL    HW1 9381   1.362   4.373   4.979
69183SOL    HW2 9382   1.256   4.313   5.068
69184SOL     OW 9383  14.158   2.587  12.136
69184SOL    HW1 9384  14.200   2.593  12.050
69184SOL    HW2 9385  14.219   2.629  12.196
69185SOL     OW 9386   1.246   2.024   0.201
69185SOL    HW1 9387   1.295   2.105   0.192
69185SOL    HW2 9388   1.269   1.973   0.123
69186SOL     OW 9389   4.476  11.183   7.008
69186SOL    HW1 9390   4.538  11.116   7.038
69186SOL    HW2 9391   4.392  11.156   7.046
69187SOL     OW 9392  12.754   9.558  14.709
69187SOL    HW1 9393  12.776   9.622  14.777
69187SOL    HW2 9394  12.661   9.539  14.724
69188SOL     OW 9395  14.873  13.286  10.937
69188SOL    HW1 9396   0.001  13.352  10.868
69188SOL    HW2 9397   0.042  13.210  10.901
69189SOL     OW 9398   8.794  13.701   5.366
69189SOL    HW1 9399   8.764  13.786   5.334
69189SOL    HW2 9400   8.751  13.690   5.451
69190SOL     OW 9401   2.959   6.726   5.888
69190SOL    HW1 9402   2.920   6.639   5.882
69190SOL    HW2 9403   3.037   6.721   5.832
69191SOL     OW 9404   8.221   4.052   7.316
69191SOL    HW1 9405   8.177   4.000   7.248
69191SOL    HW2 9406   8.156   4.119   7.339
69192SOL     OW 9407   4.093   2.517  11.254
69192SOL    HW1 9408   4.124   2.427  11.250
69192SOL    HW2 9409   4.166   2.566  11.291
69193SOL     OW 9410   4.286   0.035   1.831
69193SOL    HW1 9411   4.257   0.106   1.889
69193SOL    HW2 9412   4.257  14.831   1.875
69194SOL     OW 9413   7.430   2.139  13.540
69194SOL    HW1 9414   7.476   2.151  13.457
69194SOL    HW2 9415   7.497   2.108  13.600
69195SOL     OW 9416   6.316  13.112   1.481
69195SOL    HW1 9417   6.398  13.115   1.432
69195SOL    HW2 9418   6.332  13.050   1.552
69196SOL     OW 9419  13.507  12.554   4.208
69196SOL    HW1 9420  13.567  12.539   4.280
69196SOL    HW2 9421  13.534  12.491   4.141
69197SOL     OW 9422  12.915   9.236  13.147
69197SOL    HW1 9423  12.822   9.213  13.136
69197SOL    HW2 9424  12.915   9.331  13.160
69198SOL     OW 9425   1.397  14.444   0.209
69198SOL    HW1 9426   1.436  14.521   0.168
69198SOL    HW2 9427   1.464  14.376   0.200
69199SOL     OW 9428   1.059   8.969   3.746
69199SOL    HW1 9429   1.076   9.058   3.777
69199SOL    HW2 9430   1.026   8.981   3.657
69200SOL     OW 9431  12.173  10.434  11.326
69200SOL    HW1 9432  12.124  10.508  11.362
69200SOL    HW2 9433  12.196  10.461  11.237
69201SOL     OW 9434   1.352  13.530  13.530
69201SOL    HW1 9435   1.341  13.545  13.436
69201SOL    HW2 9436   1.447  13.528  13.542
69202SOL     OW 9437   2.324   7.713   6.448
69202SOL    HW1 9438   2.412   7.732   6.416
69202SOL    HW2 9439   2.332   7.715   6.543
69203SOL     OW 9440   1.175   1.018   5.605
69203SOL    HW1 9441   1.142   1.042   5.519
69203SOL    HW2 9442   1.103   1.037   5.665
69204SOL     OW 9443   9.438   5.911   1.791
69204SOL    HW1 9444   9.480   5.982   1.840
69204SOL    HW2 9445   9.465   5.925   1.700
69205SOL     OW 9446   0.783   8.552  12.683
69205SOL    HW1 9447   0.699   8.549  12.637
69205SOL    HW2 9448   0.815   8.641  12.667
69206SOL     OW 9449  11.434   0.642   1.417
69206SOL    HW1 9450  11.381   0.590   1.478
69206SOL    HW2 9451  11.522   0.640   1.454
69207SOL     OW 9452   9.935   5.314   8.730
69207SOL    HW1 9453  10.011   5.258   8.720
69207SOL    HW2 9454   9.967   5.402   8.712
69208SOL     OW 9455  10.418  13.285   0.130
69208SOL    HW1 9456  10.441  13.198   0.162
69208SOL    HW2 9457  10.435  13.281   0.036
69209SOL     OW 9458   1.671  11.971   1.465
69209SOL    HW1 9459   1.699  12.001   1.379
69209SOL    HW2 9460   1.750  11.976   1.519
69210SOL     OW 9461  10.221   9.870  13.570
69210SOL    HW1 9462  10.226   9.884  13.665
69210SOL    HW2 9463  10.275   9.940  13.533
69211SOL     OW 9464   6.242  14.045   5.893
69211SOL    HW1 9465   6.237  14.141   5.898
69211SOL    HW2 9466   6.333  14.028   5.870
69212SOL     OW 9467  11.477   0.271  11.034
69212SOL    HW1 9468  11.528   0.311  10.964
69212SOL    HW2 9469  11.492   0.328  11.109
69213SOL     OW 9470   0.146   5.856   3.243
69213SOL    HW1 9471   0.128   5.763   3.256
69213SOL    HW2 9472   0.216   5.858   3.177
69214SOL     OW 9473   9.698   7.162   3.618
69214SOL    HW1 9474   9.790   7.163   3.645
69214SOL    HW2 9475   9.684   7.247   3.575
69215SOL     OW 9476  12.897   8.740   3.721
69215SOL    HW1 9477  12.847   8.668   3.683
69215SOL    HW2 9478  12.972   8.751   3.662
69216SOL     OW 9479   4.870   2.803  12.899
69216SOL    HW1 9480   4.806   2.841  12.959
69216SOL    HW2 9481   4.841   2.830  12.812
69217SOL     OW 9482   7.347   4.801   4.705
69217SOL    HW1 9483   7.286   4.729   4.695
69217SOL    HW2 9484   7.300   4.866   4.757
69218SOL     OW 9485   2.202   0.615   8.743
69218SOL    HW1 9486   2.125   0.666   8.768
69218SOL    HW2 9487   2.244   0.668   8.675
69219SOL     OW 9488   5.617  14.750   2.339
69219SOL    HW1 9489   5.543  14.690   2.333
69219SOL    HW2 9490   5.658  14.747   2.253
69220SOL     OW 9491   9.838  14.623   5.797
69220SOL    HW1 9492   9.747  14.616   5.767
69220SOL    HW2 9493   9.850  14.716   5.815
69221SOL     OW 9494  14.410   5.347   9.198
69221SOL    HW1 9495  14.432   5.437   9.175
69221SOL    HW2 9496  14.401   5.302   9.114
69222SOL     OW 9497  13.138  13.590  14.311
69222SOL    HW1 9498  13.150  13.590  14.216
69222SOL    HW2 9499  13.046  13.568  14.324
69223SOL     OW 9500  13.726   1.679   0.718
69223SOL    HW1 9501  13.688   1.669   0.630
69223SOL    HW2 9502  13.717   1.593   0.758
69224SOL     OW 9503   7.451  11.617   0.777
69224SOL    HW1 9504   7.421  11.531   0.749
69224SOL    HW2 9505   7.371  11.668   0.791
69225SOL     OW 9506   9.890  13.327   9.701
69225SOL    HW1 9507   9.918  13.345   9.790
69225SOL    HW2 9508   9.828  13.255   9.709
69226SOL     OW 9509   7.054  12.708   3.072
69226SOL    HW1 9510   7.079  12.800   3.071
69226SOL    HW2 9511   7.122  12.664   3.021
69227SOL     OW 9512  11.869   5.504   2.304
69227SOL    HW1 9513  11.919   5.577   2.339
69227SOL    HW2 9514  11.895   5.429   2.357
69228SOL     OW 9515  10.896   6.053  13.544
69228SOL    HW1 9516  10.963   5.987  13.528
69228SOL    HW2 9517  10.820   6.003  13.573
69229SOL     OW 9518   6.470   5.178   8.907
69229SOL    HW1 9519   6.382   5.145   8.888
69229SOL    HW2 9520   6.481   5.162   9.001
69230SOL     OW 9521   3.184   4.148   4.936
69230SOL    HW1 9522   3.134   4.116   5.011
69230SOL    HW2 9523   3.233   4.222   4.970
69231SOL     OW 9524  12.714  12.595  11.029
69231SOL    HW1 9525  12.797  12.575  11.072
69231SOL    HW2 9526  12.654  12.527  11.058
69232SOL     OW 9527   9.772   5.588   7.453
69232SOL    HW1 9528   9.857   5.625   7.475
69232SOL    HW2 9529   9.757   5.522   7.521
69233SOL     OW 9530   0.841  13.889   7.234
69233SOL    HW1 9531   0.851  13.902   7.139
69233SOL    HW2 9532   0.779  13.957   7.261
69234SOL     OW 9533  10.007   7.273  12.689
69234SOL    HW1 9534  10.099   7.253  12.674
69234SOL    HW2 9535   9.992   7.356  12.643
69235SOL     OW 9536  11.694  14.218   7.042
69235SOL    HW1 9537  11.637  14.180   7.109
69235SOL    HW2 9538  11.761  14.265   7.091
69236SOL     OW 9539   2.793   7.015  14.453
69236SOL    HW1 9540   2.866   6.983  14.505
69236SOL    HW2 9541   2.810   7.109  14.443
69237SOL     OW 9542   7.656   5.989   1.555
69237SOL    HW1 9543   7.752   5.995   1.551
69237SOL    HW2 9544   7.638   5.907   1.601
69238SOL     OW 9545   6.696  11.367   9.450
69238SOL    HW1 9546   6.748  11.344   9.373
69238SOL    HW2 9547   6.632  11.431   9.418
69239SOL     OW 9548   6.002  14.543  10.879
69239SOL    HW1 9549   6.007  14.450  10.900
69239SOL    HW2 9550   6.087  14.563  10.840
69240SOL     OW 9551   5.033   2.509   5.330
69240SOL    HW1 9552   4.978   2.454   5.274
69240SOL    HW2 9553   5.033   2.465   5.415
69241SOL     OW 9554   8.442   7.797   2.291
69241SOL    HW1 9555   8.420   7.827   2.379
69241SOL    HW2 9556   8.436   7.702   2.296
69242SOL     OW 9557  10.941   4.050   5.436
69242SOL    HW1 9558  10.906   4.002   5.360
69242SOL    HW2 9559  10.863   4.079   5.483
69243SOL     OW 9560  12.546  10.801   3.194
69243SOL    HW1 9561  12.609  10.759   3.251
69243SOL    HW2 9562  12.499  10.863   3.251
69244SOL     OW 9563  10.935   5.316   9.230
69244SOL    HW1 9564  10.840   5.322   9.238
69244SOL    HW2 9565  10.959   5.392   9.177
69245SOL     OW 9566   9.102   3.729   9.974
69245SOL    HW1 9567   9.043   3.653   9.969
69245SOL    HW2 9568   9.088   3.775   9.891
69246SOL     OW 9569   7.678   2.605   3.887
69246SOL    HW1 9570   7.771   2.580   3.885
69246SOL    HW2 9571   7.678   2.698   3.865
69247SOL     OW 9572   9.616   1.676   7.581
69247SOL    HW1 9573   9.591   1.722   7.501
69247SOL    HW2 9574   9.707   1.650   7.566
69248SOL     OW 9575   9.984   4.723  11.741
69248SOL    HW1 9576   9.963   4.800  11.794
69248SOL    HW2 9577  10.076   4.705  11.760
69249SOL     OW 9578  12.440  11.465  12.676
69249SOL    HW1 9579  12.376  11.433  12.740
69249SOL    HW2 9580  12.391  11.466  12.594
69250SOL     OW 9581   4.160   1.312   5.362
69250SOL    HW1 9582   4.190   1.256   5.433
69250SOL    HW2 9583   4.233   1.315   5.301
69251SOL     OW 9584   3.263   5.668   1.760
69251SOL    HW1 9585   3.299   5.756   1.761
69251SOL    HW2 9586   3.242   5.649   1.851
69252SOL     OW 9587  11.087   9.398   2.394
69252SOL    HW1 9588  11.148   9.324   2.386
69252SOL    HW2 9589  11.017   9.378   2.333
69253SOL     OW 9590   0.719   2.412   4.017
69253SOL    HW1 9591   0.685   2.336   4.065
69253SOL    HW2 9592   0.765   2.464   4.084
69254SOL     OW 9593   4.458  10.990   9.017
69254SOL    HW1 9594   4.478  11.033   9.100
69254SOL    HW2 9595   4.515  11.032   8.953
69255SOL     OW 9596   9.220  11.840   8.848
69255SOL    HW1 9597   9.267  11.906   8.900
69255SOL    HW2 9598   9.262  11.842   8.763
69256SOL     OW 9599  10.953   7.707  11.793
69256SOL    HW1 9600  10.896   7.732  11.720
69256SOL    HW2 9601  10.958   7.785  11.848
69257SOL     OW 9602   5.062  14.691  12.295
69257SOL    HW1 9603   5.097  14.705  12.383
69257SOL    HW2 9604   4.998  14.621  12.306
69258SOL     OW 9605   3.338   9.971  13.600
69258SOL    HW1 9606   3.364   9.884  13.629
69258SOL    HW2 9607   3.386  10.031  13.658
69259SOL     OW 9608  10.678   9.519  14.677
69259SOL    HW1 9609  10.675   9.468  14.757
69259SOL    HW2 9610  10.757   9.573  14.686
69260SOL     OW 9611   8.171  12.016   1.569
69260SOL    HW1 9612   8.222  11.937   1.589
69260SOL    HW2 9613   8.236  12.077   1.535
69261SOL     OW 9614   1.446   5.195   8.433
69261SOL    HW1 9615   1.376   5.189   8.368
69261SOL    HW2 9616   1.488   5.279   8.415
69262SOL     OW 9617  10.621  14.706  13.073
69262SOL    HW1 9618  10.602  14.750  13.156
69262SOL    HW2 9619  10.706  14.665  13.086
69263SOL     OW 9620   2.927   0.296   3.073
69263SOL    HW1 9621   2.873   0.340   3.008
69263SOL    HW2 9622   2.971   0.367   3.120
69264SOL     OW 9623   4.917   7.430   4.669
69264SOL    HW1 9624   4.977   7.371   4.715
69264SOL    HW2 9625   4.939   7.420   4.577
69265SOL     OW 9626   2.133   0.846   6.810
69265SOL    HW1 9627   2.052   0.889   6.780
69265SOL    HW2 9628   2.190   0.919   6.836
69266SOL     OW 9629   4.069  14.205   6.944
69266SOL    HW1 9630   4.050  14.190   6.852
69266SOL    HW2 9631   4.159  14.175   6.955
69267SOL     OW 9632   0.470   9.248  12.570
69267SOL    HW1 9633   0.408   9.199  12.516
69267SOL    HW2 9634   0.481   9.331  12.524
69268SOL     OW 9635   2.044  12.533   5.862
69268SOL    HW1 9636   2.015  12.510   5.773
69268SOL    HW2 9637   1.977  12.496   5.919
69269SOL     OW 9638   1.420   2.618  11.713
69269SOL    HW1 9639   1.388   2.626  11.803
69269SOL    HW2 9640   1.512   2.644  11.719
69270SOL     OW 9641  14.793   4.597   5.276
69270SOL    HW1 9642  14.774   4.504   5.288
69270SOL    HW2 9643  14.859   4.617   5.343
69271SOL     OW 9644   7.997  13.155   9.389
69271SOL    HW1 9645   8.065  13.092   9.365
69271SOL    HW2 9646   7.951  13.174   9.307
69272SOL     OW 9647  14.595  13.176  10.319
69272SOL    HW1 9648  14.610  13.233  10.394
69272SOL    HW2 9649  14.683  13.152  10.289
69273SOL     OW 9650   7.706   3.468   0.021
69273SOL    HW1 9651   7.618   3.434   0.036
69273SOL    HW2 9652   7.706   3.493  14.805
69274SOL     OW 9653   0.568   8.828   8.638
69274SOL    HW1 9654   0.660   8.804   8.648
69274SOL    HW2 9655   0.533   8.826   8.727
69275SOL     OW 9656  13.093   3.244   3.402
69275SOL    HW1 9657  13.083   3.150   3.387
69275SOL    HW2 9658  13.009   3.281   3.378
69276SOL     OW 9659  12.973   5.309   7.022
69276SOL    HW1 9660  13.036   5.294   6.952
69276SOL    HW2 9661  12.999   5.394   7.059
69277SOL     OW 9662   7.360   1.531   3.059
69277SOL    HW1 9663   7.317   1.555   3.142
69277SOL    HW2 9664   7.445   1.574   3.063
69278SOL     OW 9665  13.913   1.465   4.093
69278SOL    HW1 9666  13.904   1.377   4.056
69278SOL    HW2 9667  14.007   1.475   4.110
69279SOL     OW 9668   2.384  10.849   5.670
69279SOL    HW1 9669   2.444  10.854   5.595
69279SOL    HW2 9670   2.301  10.883   5.636
69280SOL     OW 9671   7.178   3.609   3.101
69280SOL    HW1 9672   7.185   3.530   3.155
69280SOL    HW2 9673   7.102   3.656   3.136
69281SOL     OW 9674   3.061   2.735  11.377
69281SOL    HW1 9675   3.035   2.646  11.400
69281SOL    HW2 9676   3.060   2.737  11.282
69282SOL     OW 9677   6.344   4.710  11.365
69282SOL    HW1 9678   6.366   4.722  11.272
69282SOL    HW2 9679   6.324   4.798  11.397
69283SOL     OW 9680  10.506  11.966   9.470
69283SOL    HW1 9681  10.518  11.874   9.445
69283SOL    HW2 9682  10.501  12.013   9.388
69284SOL     OW 9683   5.708   2.231   7.132
69284SOL    HW1 9684   5.748   2.249   7.047
69284SOL    HW2 9685   5.622   2.195   7.111
69285SOL     OW 9686   3.919   0.842  10.675
69285SOL    HW1 9687   3.957   0.882  10.754
69285SOL    HW2 9688   3.887   0.916  10.624
69286SOL     OW 9689   5.767  12.171   4.372
69286SOL    HW1 9690   5.837  12.144   4.313
69286SOL    HW2 9691   5.801  12.151   4.460
69287SOL     OW 9692  14.584  11.839  12.881
69287SOL    HW1 9693  14.537  11.806  12.958
69287SOL    HW2 9694  14.519  11.838  12.811
69288SOL     OW 9695   2.770   7.424  13.126
69288SOL    HW1 9696   2.731   7.419  13.038
69288SOL    HW2 9697   2.784   7.332  13.151
69289SOL     OW 9698   3.942   2.362   3.065
69289SOL    HW1 9699   3.907   2.448   3.041
69289SOL    HW2 9700   3.868   2.316   3.104
69290SOL     OW 9701  13.413   0.073  11.760
69290SOL    HW1 9702  13.459   0.062  11.842
69290SOL    HW2 9703  13.423   0.166  11.738
69291SOL     OW 9704   8.307  12.551   6.891
69291SOL    HW1 9705   8.302  12.646   6.880
69291SOL    HW2 9706   8.398  12.530   6.871
69292SOL     OW 9707  12.717   4.665   1.139
69292SOL    HW1 9708  12.731   4.732   1.072
69292SOL    HW2 9709  12.802   4.622   1.148
69293SOL     OW 9710   6.385  11.715  10.534
69293SOL    HW1 9711   6.432  11.635  10.557
69293SOL    HW2 9712   6.452  11.783  10.532
69294SOL     OW 9713   1.380  14.131  11.642
69294SOL    HW1 9714   1.322  14.126  11.566
69294SOL    HW2 9715   1.463  14.093  11.612
69295SOL     OW 9716  12.754  14.576   7.729
69295SOL    HW1 9717  12.836  14.622   7.710
69295SOL    HW2 9718  12.686  14.643   7.719
69296SOL     OW 9719   6.290   8.048  14.240
69296SOL    HW1 9720   6.250   7.962  14.251
69296SOL    HW2 9721   6.300   8.058  14.145
69297SOL     OW 9722   8.435   5.793  13.159
69297SOL    HW1 9723   8.475   5.812  13.074
69297SOL    HW2 9724   8.468   5.861  13.217
69298SOL     OW 9725   7.195   8.927  10.135
69298SOL    HW1 9726   7.284   8.945  10.103
69298SOL    HW2 9727   7.156   8.871  10.067
69299SOL     OW 9728  13.262   4.721   8.058
69299SOL    HW1 9729  13.333   4.709   7.995
69299SOL    HW2 9730  13.306   4.720   8.144
69300SOL     OW 9731  13.588  13.352   5.321
69300SOL    HW1 9732  13.609  13.402   5.242
69300SOL    HW2 9733  13.516  13.295   5.296
69301SOL     OW 9734  14.718  12.712   7.092
69301SOL    HW1 9735  14.728  12.630   7.043
69301SOL    HW2 9736  14.759  12.778   7.037
69302SOL     OW 9737   6.167  11.397   4.886
69302SOL    HW1 9738   6.130  11.311   4.863
69302SOL    HW2 9739   6.137  11.455   4.816
69303SOL     OW 9740   5.343   5.002   2.694
69303SOL    HW1 9741   5.268   5.011   2.635
69303SOL    HW2 9742   5.392   4.927   2.659
69304SOL     OW 9743   7.761   0.736  11.717
69304SOL    HW1 9744   7.700   0.724  11.644
69304SOL    HW2 9745   7.848   0.735  11.677
69305SOL     OW 9746  10.117   9.568   1.992
69305SOL    HW1 9747  10.076   9.526   2.068
69305SOL    HW2 9748  10.060   9.544   1.919
69306SOL     OW 9749  11.340  10.624   3.215
69306SOL    HW1 9750  11.350  10.696   3.278
69306SOL    HW2 9751  11.366  10.546   3.265
69307SOL     OW 9752  10.178   3.018   4.289
69307SOL    HW1 9753  10.178   3.076   4.365
69307SOL    HW2 9754  10.108   3.052   4.233
69308SOL     OW 9755   9.719   8.405  10.821
69308SOL    HW1 9756   9.645   8.431  10.877
69308SOL    HW2 9757   9.758   8.330  10.866
69309SOL     OW 9758  12.726   0.439   0.117
69309SOL    HW1 9759  12.683   0.353   0.123
69309SOL    HW2 9760  12.819   0.421   0.132
69310SOL     OW 9761   6.569   8.670  11.034
69310SOL    HW1 9762   6.531   8.583  11.022
69310SOL    HW2 9763   6.566   8.685  11.128
69311SOL     OW 9764   8.211   4.540  13.521
69311SOL    HW1 9765   8.225   4.609  13.586
69311SOL    HW2 9766   8.138   4.572  13.468
69312SOL     OW 9767   7.054   2.937   6.172
69312SOL    HW1 9768   7.134   2.904   6.213
69312SOL    HW2 9769   6.984   2.888   6.215
69313SOL     OW 9770   4.293  10.533   0.266
69313SOL    HW1 9771   4.247  10.473   0.207
69313SOL    HW2 9772   4.382  10.497   0.272
69314SOL     OW 9773  13.961   8.811   6.962
69314SOL    HW1 9774  14.022   8.757   6.912
69314SOL    HW2 9775  13.901   8.749   7.003
69315SOL     OW 9776   3.658   2.843   2.543
69315SOL    HW1 9777   3.675   2.935   2.522
69315SOL    HW2 9778   3.566   2.840   2.570
69316SOL     OW 9779   9.184   8.213  13.286
69316SOL    HW1 9780   9.226   8.248  13.207
69316SOL    HW2 9781   9.238   8.246  13.358
69317SOL     OW 9782   8.693  12.587   3.502
69317SOL    HW1 9783   8.639  12.509   3.495
69317SOL    HW2 9784   8.658  12.633   3.579
69318SOL     OW 9785   0.877   2.454  13.466
69318SOL    HW1 9786   0.888   2.492  13.379
69318SOL    HW2 9787   0.789   2.415  13.465
69319SOL     OW 9788   5.933   9.260  10.084
69319SOL    HW1 9789   5.968   9.219  10.162
69319SOL    HW2 9790   5.916   9.187  10.024
69320SOL     OW 9791   8.678   2.697   9.956
69320SOL    HW1 9792   8.757   2.648   9.932
69320SOL    HW2 9793   8.685   2.708  10.051
69321SOL     OW 9794   2.837   3.467   8.818
69321SOL    HW1 9795   2.886   3.520   8.881
69321SOL    HW2 9796   2.889   3.470   8.738
69322SOL     OW 9797   0.010   2.507   9.906
69322SOL    HW1 9798  14.873   2.505   9.811
69322SOL    HW2 9799   0.038   2.597   9.925
69323SOL     OW 9800  12.003   6.338   8.068
69323SOL    HW1 9801  12.049   6.374   7.992
69323SOL    HW2 9802  11.911   6.341   8.044
69324SOL     OW 9803   8.966  13.037  13.625
69324SOL    HW1 9804   8.882  13.061  13.665
69324SOL    HW2 9805   8.946  13.025  13.532
69325SOL     OW 9806   1.770   1.126   0.071
69325SOL    HW1 9807   1.709   1.199   0.071
69325SOL    HW2 9808   1.806   1.124  14.858
69326SOL     OW 9809   4.177  12.763   4.751
69326SOL    HW1 9810   4.101  12.750   4.808
69326SOL    HW2 9811   4.250  12.722   4.799
69327SOL     OW 9812   4.012   8.829   3.079
69327SOL    HW1 9813   3.988   8.740   3.104
69327SOL    HW2 9814   4.079   8.855   3.142
69328SOL     OW 9815   9.947  10.156   4.530
69328SOL    HW1 9816   9.883  10.225   4.549
69328SOL    HW2 9817   9.937  10.093   4.602
69329SOL     OW 9818   1.464  12.596  13.307
69329SOL    HW1 9819   1.455  12.621  13.399
69329SOL    HW2 9820   1.468  12.679  13.260
69330SOL     OW 9821  11.510   2.092  13.674
69330SOL    HW1 9822  11.422   2.087  13.636
69330SOL    HW2 9823  11.499   2.060  13.763
69331SOL     OW 9824  11.041  12.668  12.666
69331SOL    HW1 9825  11.028  12.735  12.733
69331SOL    HW2 9826  10.994  12.701  12.589
69332SOL     OW 9827  10.779   0.178   2.907
69332SOL    HW1 9828  10.747   0.253   2.956
69332SOL    HW2 9829  10.874   0.178   2.921
69333SOL     OW 9830  11.794   8.752  13.293
69333SOL    HW1 9831  11.885   8.776  13.279
69333SOL    HW2 9832  11.797   8.684  13.361
69334SOL     OW 9833   6.761   7.339   2.000
69334SOL    HW1 9834   6.670   7.321   2.022
69334SOL    HW2 9835   6.791   7.259   1.956
69335SOL     OW 9836  13.727   9.817   1.529
69335SOL    HW1 9837  13.765   9.902   1.552
69335SOL    HW2 9838  13.724   9.817   1.433
69336SOL     OW 9839   2.808  13.963  10.384
69336SOL    HW1 9840   2.826  13.870  10.399
69336SOL    HW2 9841   2.832  13.978  10.292
69337SOL     OW 9842  13.449   9.041  12.253
69337SOL    HW1 9843  13.498   8.992  12.318
69337SOL    HW2 9844  13.357   9.022  12.272
69338SOL     OW 9845   6.342   2.207  12.082
69338SOL    HW1 9846   6.322   2.146  12.153
69338SOL    HW2 9847   6.291   2.285  12.103
69339SOL     OW 9848   3.200   4.743  10.478
69339SOL    HW1 9849   3.231   4.659  10.512
69339SOL    HW2 9850   3.196   4.731  10.383
69340SOL     OW 9851   6.625   8.930   0.685
69340SOL    HW1 9852   6.566   8.877   0.738
69340SOL    HW2 9853   6.659   8.870   0.619
69341SOL     OW 9854  13.232  11.646   0.977
69341SOL    HW1 9855  13.230  11.732   1.019
69341SOL    HW2 9856  13.324  11.621   0.974
69342SOL     OW 9857   0.845   4.950  14.761
69342SOL    HW1 9858   0.838   5.044  14.777
69342SOL    HW2 9859   0.924   4.940  14.708
69343SOL     OW 9860   7.247   5.979   3.732
69343SOL    HW1 9861   7.201   5.956   3.813
69343SOL    HW2 9862   7.266   5.895   3.691
69344SOL     OW 9863  10.273   1.761   4.486
69344SOL    HW1 9864  10.190   1.714   4.475
69344SOL    HW2 9865  10.253   1.851   4.463
69345SOL     OW 9866   2.167   6.584  11.775
69345SOL    HW1 9867   2.131   6.569  11.863
69345SOL    HW2 9868   2.258   6.557  11.781
69346SOL     OW 9869   1.209   9.720  11.929
69346SOL    HW1 9870   1.122   9.680  11.937
69346SOL    HW2 9871   1.197   9.810  11.960
69347SOL     OW 9872  14.792   0.261   6.213
69347SOL    HW1 9873  14.862   0.244   6.276
69347SOL    HW2 9874  14.837   0.286   6.133
69348SOL     OW 9875  13.155   7.504   4.851
69348SOL    HW1 9876  13.128   7.413   4.837
69348SOL    HW2 9877  13.178   7.507   4.944
69349SOL     OW 9878  14.341   4.870  14.665
69349SOL    HW1 9879  14.400   4.798  14.643
69349SOL    HW2 9880  14.360   4.890  14.756
69350SOL     OW 9881   5.213   1.748  14.447
69350SOL    HW1 9882   5.224   1.828  14.497
69350SOL    HW2 9883   5.156   1.693  14.501
69351SOL     OW 9884   7.006   4.317   2.751
69351SOL    HW1 9885   6.939   4.355   2.693
69351SOL    HW2 9886   7.089   4.353   2.718
69352SOL     OW 9887   5.467   1.057   0.932
69352SOL    HW1 9888   5.451   1.141   0.887
69352SOL    HW2 9889   5.510   1.003   0.866
69353SOL     OW 9890   1.543   2.536   9.711
69353SOL    HW1 9891   1.453   2.570   9.705
69353SOL    HW2 9892   1.597   2.603   9.669
69354SOL     OW 9893  11.324   9.345   5.495
69354SOL    HW1 9894  11.283   9.427   5.467
69354SOL    HW2 9895  11.264   9.277   5.464
69355SOL     OW 9896  12.770  11.288   4.982
69355SOL    HW1 9897  12.690  11.235   4.986
69355SOL    HW2 9898  12.823  11.256   5.055
69356SOL     OW 9899   9.880   9.172  12.961
69356SOL    HW1 9900   9.805   9.214  13.003
69356SOL    HW2 9901   9.885   9.085  13.001
69357SOL     OW 9902   4.882  12.750   8.964
69357SOL    HW1 9903   4.932  12.829   8.984
69357SOL    HW2 9904   4.806  12.781   8.913
69358SOL     OW 9905   8.746   1.515  12.132
69358SOL    HW1 9906   8.652   1.532  12.141
69358SOL    HW2 9907   8.755   1.421  12.142
69359SOL     OW 9908   7.095   5.575   4.142
69359SOL    HW1 9909   7.124   5.638   4.208
69359SOL    HW2 9910   6.999   5.586   4.141
69360SOL     OW 9911   5.221   7.804   2.286
69360SOL    HW1 9912   5.272   7.777   2.363
69360SOL    HW2 9913   5.137   7.831   2.322
69361SOL     OW 9914  14.272   4.224   1.499
69361SOL    HW1 9915  14.257   4.311   1.537
69361SOL    HW2 9916  14.314   4.175   1.569
69362SOL     OW 9917   0.802   3.832  10.740
69362SOL    HW1 9918   0.896   3.831  10.726
69362SOL    HW2 9919   0.790   3.796  10.828
69363SOL     OW 9920   1.541   3.578  14.491
69363SOL    HW1 9921   1.482   3.549  14.421
69363SOL    HW2 9922   1.551   3.502  14.548
69364SOL     OW 9923   2.481   6.699   6.725
69364SOL    HW1 9924   2.413   6.634   6.708
69364SOL    HW2 9925   2.527   6.666   6.803
69365SOL     OW 9926  13.450  14.379   3.917
69365SOL    HW1 9927  13.382  14.313   3.930
69365SOL    HW2 9928  13.532  14.329   3.916
69366SOL     OW 9929   7.135  14.059   0.262
69366SOL    HW1 9930   7.143  14.057   0.357
69366SOL    HW2 9931   7.081  13.983   0.241
69367SOL     OW 9932  12.951   0.599   2.581
69367SOL    HW1 9933  12.938   0.667   2.647
69367SOL    HW2 9934  12.965   0.519   2.631
69368SOL     OW 9935   6.176   9.491   3.862
69368SOL    HW1 9936   6.245   9.536   3.812
69368SOL    HW2 9937   6.223   9.445   3.931
69369SOL     OW 9938  12.346   1.521   2.491
69369SOL    HW1 9939  12.347   1.486   2.402
69369SOL    HW2 9940  12.332   1.615   2.480
69370SOL     OW 9941   3.413   7.048   5.239
69370SOL    HW1 9942   3.332   7.098   5.249
69370SOL    HW2 9943   3.402   6.999   5.158
69371SOL     OW 9944   7.537   7.164  11.923
69371SOL    HW1 9945   7.488   7.106  11.865
69371SOL    HW2 9946   7.619   7.181  11.877
69372SOL     OW 9947  13.181  10.448   3.852
69372SOL    HW1 9948  13.277  10.450   3.855
69372SOL    HW2 9949  13.157  10.386   3.921
69373SOL     OW 9950  12.648   4.814   6.945
69373SOL    HW1 9951  12.622   4.874   6.875
69373SOL    HW2 9952  12.571   4.808   7.001
69374SOL     OW 9953   3.218   0.886   3.162
69374SOL    HW1 9954   3.138   0.937   3.154
69374SOL    HW2 9955   3.190   0.802   3.198
69375SOL     OW 9956   8.214   7.568   1.227
69375SOL    HW1 9957   8.251   7.480   1.218
69375SOL    HW2 9958   8.148   7.573   1.158
69376SOL     OW 9959  12.461   2.384   5.753
69376SOL    HW1 9960  12.508   2.334   5.819
69376SOL    HW2 9961  12.397   2.435   5.802
69377SOL     OW 9962   6.589  11.866   4.637
69377SOL    HW1 9963   6.498  11.837   4.631
69377SOL    HW2 9964   6.628  11.843   4.552
69378SOL     OW 9965   4.998   8.551   4.469
69378SOL    HW1 9966   5.073   8.493   4.481
69378SOL    HW2 9967   4.971   8.574   4.558
69379SOL     OW 9968   1.642   8.404  10.428
69379SOL    HW1 9969   1.698   8.361  10.493
69379SOL    HW2 9970   1.675   8.494  10.423
69380SOL     OW 9971   3.256  14.481  11.837
69380SOL    HW1 9972   3.185  14.447  11.891
69380SOL    HW2 9973   3.335  14.460  11.886
69381SOL     OW 9974   6.064   4.243   7.410
69381SOL    HW1 9975   6.090   4.212   7.324
69381SOL    HW2 9976   6.142   4.230   7.464
69382SOL     OW 9977   7.254  13.798   7.767
69382SOL    HW1 9978   7.296  13.862   7.711
69382SOL    HW2 9979   7.290  13.714   7.738
69383SOL     OW 9980  14.727  11.684   5.403
69383SOL    HW1 9981  14.754  11.776   5.411
69383SOL    HW2 9982  14.769  11.654   5.322
69384SOL     OW 9983  10.117  13.034   0.160
69384SOL    HW1 9984  10.202  13.011   0.198
69384SOL    HW2 9985  10.070  13.077   0.232
69385SOL     OW 9986   2.372   7.501  14.822
69385SOL    HW1 9987   2.321   7.578  14.850
69385SOL    HW2 9988   2.404   7.524  14.735
69386SOL     OW 9989  13.209   1.033   7.170
69386SOL    HW1 9990  13.160   1.037   7.087
69386SOL    HW2 9991  13.178   1.109   7.219
69387SOL     OW 9992  12.349  12.146   5.374
69387SOL    HW1 9993  12.373  12.211   5.308
69387SOL    HW2 9994  12.424  12.087   5.377
69388SOL     OW 9995  11.057  13.720   8.036
69388SOL    HW1 9996  11.084  13.759   8.119
69388SOL    HW2 9997  10.997  13.649   8.061
69389SOL     OW 9998  11.602   0.459   0.809
69389SOL    HW1 9999  11.653   0.537   0.788
69389SOL    HW210000  11.598   0.409   0.727
69390SOL     OW10001   6.665  11.177   4.821
69390SOL    HW110002   6.687  11.263   4.857
69390SOL    HW210003   6.726  11.117   4.864
69391SOL     OW10004   6.650   0.444  14.763
69391SOL    HW110005   6.708   0.403  14.827
69391SOL    HW210006   6.669   0.538  14.770
69392SOL     OW10007   6.704  10.710  14.235
69392SOL    HW110008   6.700  10.769  14.311
69392SOL    HW210009   6.789  10.666  14.244
69393SOL     OW10010   5.978   2.498   7.124
69393SOL    HW110011   5.916   2.484   7.053
69393SOL    HW210012   6.062   2.464   7.091
69394SOL     OW10013   4.003   4.298   7.137
69394SOL    HW110014   4.004   4.359   7.063
69394SOL    HW210015   4.095   4.292   7.164
69395SOL     OW10016  13.005   3.519   4.059
69395SOL    HW110017  13.026   3.525   4.152
69395SOL    HW210018  12.970   3.606   4.037
69396SOL     OW10019   6.873  14.005   3.848
69396SOL    HW110020   6.800  14.066   3.851
69396SOL    HW210021   6.855  13.943   3.918
69397SOL     OW10022   6.223  14.644   2.433
69397SOL    HW110023   6.239  14.672   2.343
69397SOL    HW210024   6.193  14.554   2.426
69398SOL     OW10025  11.242   5.310  12.375
69398SOL    HW110026  11.292   5.370  12.430
69398SOL    HW210027  11.310   5.260  12.328
69399SOL     OW10028   4.948   1.662   4.313
69399SOL    HW110029   4.916   1.746   4.282
69399SOL    HW210030   5.025   1.684   4.366
69400SOL     OW10031   5.872  10.701   0.283
69400SOL    HW110032   5.856  10.684   0.376
69400SOL    HW210033   5.959  10.739   0.280
69401SOL     OW10034   8.060   3.476   2.075
69401SOL    HW110035   8.093   3.499   2.161
69401SOL    HW210036   8.135   3.438   2.029
69402SOL     OW10037  11.834   7.100   5.155
69402SOL    HW110038  11.904   7.059   5.104
69402SOL    HW210039  11.805   7.032   5.215
69403SOL     OW10040   1.420   4.819   9.008
69403SOL    HW110041   1.394   4.864   8.928
69403SOL    HW210042   1.510   4.849   9.024
69404SOL     OW10043   8.761   9.276  11.271
69404SOL    HW110044   8.687   9.287  11.332
69404SOL    HW210045   8.831   9.329  11.309
69405SOL     OW10046   0.696  12.066   9.689
69405SOL    HW110047   0.742  11.990   9.654
69405SOL    HW210048   0.604  12.051   9.667
69406SOL     OW10049   7.987  11.812   3.527
69406SOL    HW110050   7.981  11.717   3.515
69406SOL    HW210051   7.896  11.841   3.528
69407SOL     OW10052  10.113  13.216  14.820
69407SOL    HW110053  10.121  13.166   0.025
69407SOL    HW210054  10.123  13.307  14.847
69408SOL     OW10055   1.308   4.653   0.711
69408SOL    HW110056   1.222   4.678   0.745
69408SOL    HW210057   1.290   4.587   0.645
69409SOL     OW10058  11.357   2.171   6.412
69409SOL    HW110059  11.366   2.251   6.464
69409SOL    HW210060  11.364   2.100   6.476
69410SOL     OW10061   8.924   8.176  11.846
69410SOL    HW110062   8.957   8.100  11.797
69410SOL    HW210063   8.857   8.141  11.904
69411SOL     OW10064  10.498   5.155   9.818
69411SOL    HW110065  10.490   5.113   9.733
69411SOL    HW210066  10.415   5.201   9.830
69412SOL     OW10067   1.686   6.668  14.472
69412SOL    HW110068   1.650   6.735  14.530
69412SOL    HW210069   1.619   6.600  14.469
69413SOL     OW10070  14.002  14.310  10.789
69413SOL    HW110071  14.092  14.293  10.817
69413SOL    HW210072  13.947  14.265  10.854
69414SOL     OW10073  10.210   7.435   0.829
69414SOL    HW110074  10.227   7.346   0.861
69414SOL    HW210075  10.223   7.429   0.735
69415SOL     OW10076  13.358   1.668   3.803
69415SOL    HW110077  13.363   1.700   3.893
69415SOL    HW210078  13.296   1.726   3.760
69416SOL     OW10079   5.949   9.356   7.489
69416SOL    HW110080   5.947   9.261   7.474
69416SOL    HW210081   6.018   9.368   7.554
69417SOL     OW10082   9.476   0.209  13.339
69417SOL    HW110083   9.569   0.215  13.362
69417SOL    HW210084   9.442   0.138  13.394
69418SOL     OW10085   6.523   3.395   6.620
69418SOL    HW110086   6.479   3.469   6.579
69418SOL    HW210087   6.567   3.433   6.696
69419SOL     OW10088  14.611  12.852   2.098
69419SOL    HW110089  14.525  12.836   2.137
69419SOL    HW210090  14.615  12.791   2.025
69420SOL     OW10091   9.213  13.545   6.964
69420SOL    HW110092   9.299  13.582   6.946
69420SOL    HW210093   9.207  13.468   6.908
69421SOL     OW10094  10.787   6.762  13.808
69421SOL    HW110095  10.855   6.715  13.857
69421SOL    HW210096  10.715   6.773  13.871
69422SOL     OW10097   3.168  12.508   1.501
69422SOL    HW110098   3.116  12.432   1.529
69422SOL    HW210099   3.256  12.473   1.485
69423SOL     OW10100   2.593   8.369   1.630
69423SOL    HW110101   2.687   8.354   1.641
69423SOL    HW210102   2.566   8.405   1.715
69424SOL     OW10103   1.886   9.284   3.686
69424SOL    HW110104   1.828   9.316   3.755
69424SOL    HW210105   1.893   9.189   3.703
69425SOL     OW10106   4.773   7.811   3.030
69425SOL    HW110107   4.680   7.821   3.050
69425SOL    HW210108   4.818   7.862   3.098
69426SOL     OW10109   9.029   9.055   3.944
69426SOL    HW110110   9.117   9.023   3.966
69426SOL    HW210111   8.970   8.989   3.981
69427SOL     OW10112   8.836  13.672   6.691
69427SOL    HW110113   8.872  13.685   6.779
69427SOL    HW210114   8.890  13.727   6.635
69428SOL     OW10115  10.538   7.264   0.536
69428SOL    HW110116  10.495   7.218   0.608
69428SOL    HW210117  10.577   7.194   0.483
69429SOL     OW10118   6.259   2.478   0.690
69429SOL    HW110119   6.204   2.405   0.715
69429SOL    HW210120   6.331   2.477   0.753
69430SOL     OW10121   4.785   6.477   8.876
69430SOL    HW110122   4.754   6.393   8.909
69430SOL    HW210123   4.718   6.540   8.903
69431SOL     OW10124  12.244   4.343   1.922
69431SOL    HW110125  12.183   4.271   1.910
69431SOL    HW210126  12.305   4.336   1.849
69432SOL     OW10127   2.933   7.404  10.493
69432SOL    HW110128   2.945   7.398  10.588
69432SOL    HW210129   3.016   7.439  10.461
69433SOL     OW10130   3.016   0.447  12.115
69433SOL    HW110131   2.976   0.361  12.128
69433SOL    HW210132   3.084   0.432  12.049
69434SOL     OW10133  12.657  10.729   6.469
69434SOL    HW110134  12.722  10.663   6.444
69434SOL    HW210135  12.597  10.733   6.394
69435SOL     OW10136  12.146   2.851   3.330
69435SOL    HW110137  12.156   2.783   3.396
69435SOL    HW210138  12.081   2.817   3.269
69436SOL     OW10139  13.290  10.936   4.285
69436SOL    HW110140  13.292  11.011   4.344
69436SOL    HW210141  13.271  10.973   4.199
69437SOL     OW10142   1.971   6.691   5.080
69437SOL    HW110143   1.969   6.772   5.029
69437SOL    HW210144   2.016   6.629   5.024
69438SOL     OW10145   7.393   3.321   7.709
69438SOL    HW110146   7.308   3.280   7.693
69438SOL    HW210147   7.392   3.342   7.803
69439SOL     OW10148   5.394   8.776   0.714
69439SOL    HW110149   5.337   8.804   0.785
69439SOL    HW210150   5.348   8.803   0.634
69440SOL     OW10151  12.738   8.473   5.308
69440SOL    HW110152  12.804   8.536   5.337
69440SOL    HW210153  12.685   8.521   5.245
69441SOL     OW10154   2.960   4.397   3.798
69441SOL    HW110155   2.877   4.397   3.845
69441SOL    HW210156   3.009   4.471   3.834
69442SOL     OW10157   0.163  11.113   5.171
69442SOL    HW110158   0.146  11.050   5.100
69442SOL    HW210159   0.076  11.144   5.197
69443SOL     OW10160   3.744   3.777   6.093
69443SOL    HW110161   3.739   3.808   6.183
69443SOL    HW210162   3.663   3.727   6.081
69444SOL     OW10163   7.999  13.290   0.519
69444SOL    HW110164   8.053  13.267   0.594
69444SOL    HW210165   8.048  13.361   0.476
69445SOL     OW10166  13.499   4.806   1.908
69445SOL    HW110167  13.524   4.764   1.990
69445SOL    HW210168  13.412   4.844   1.926
69446SOL     OW10169   5.310   7.461   1.086
69446SOL    HW110170   5.230   7.469   1.138
69446SOL    HW210171   5.357   7.543   1.102
69447SOL     OW10172   9.951   7.545   0.890
69447SOL    HW110173  10.033   7.502   0.863
69447SOL    HW210174   9.957   7.548   0.986
69448SOL     OW10175   3.502  12.260  11.931
69448SOL    HW110176   3.558  12.250  12.008
69448SOL    HW210177   3.494  12.172  11.895
69449SOL     OW10178  12.767  12.114   1.887
69449SOL    HW110179  12.759  12.118   1.983
69449SOL    HW210180  12.737  12.025   1.865
69450SOL     OW10181   7.979   8.635   1.988
69450SOL    HW110182   7.902   8.635   2.045
69450SOL    HW210183   7.982   8.546   1.953
69451SOL     OW10184   1.581   6.866  12.222
69451SOL    HW110185   1.638   6.871  12.299
69451SOL    HW210186   1.552   6.956  12.208
69452SOL     OW10187  12.128   6.147  10.438
69452SOL    HW110188  12.121   6.222  10.378
69452SOL    HW210189  12.196   6.091  10.399
69453SOL     OW10190  14.659  10.332   6.871
69453SOL    HW110191  14.575  10.344   6.916
69453SOL    HW210192  14.723  10.323   6.941
69454SOL     OW10193   7.763  12.863   0.234
69454SOL    HW110194   7.824  12.855   0.161
69454SOL    HW210195   7.771  12.780   0.281
69455SOL     OW10196   4.697   1.473   9.411
69455SOL    HW110197   4.714   1.438   9.498
69455SOL    HW210198   4.733   1.562   9.414
69456SOL     OW10199  14.847  14.664   8.981
69456SOL    HW110200  14.802  14.711   9.051
69456SOL    HW210201  14.804  14.692   8.901
69457SOL     OW10202  10.719  11.969  12.689
69457SOL    HW110203  10.764  12.017  12.759
69457SOL    HW210204  10.694  11.886  12.730
69458SOL     OW10205  10.023   7.557   5.625
69458SOL    HW110206   9.986   7.614   5.692
69458SOL    HW210207   9.949   7.507   5.592
69459SOL     OW10208  12.239   8.128  13.989
69459SOL    HW110209  12.148   8.103  13.976
69459SOL    HW210210  12.236   8.198  14.054
69460SOL     OW10211   1.488  10.147   6.151
69460SOL    HW110212   1.396  10.156   6.128
69460SOL    HW210213   1.535  10.168   6.071
69461SOL     OW10214   2.870   0.037   3.158
69461SOL    HW110215   2.947  14.870   3.119
69461SOL    HW210216   2.873   0.127   3.124
69462SOL     OW10217   3.411  13.814  14.729
69462SOL    HW110218   3.355  13.756  14.781
69462SOL    HW210219   3.469  13.754  14.682
69463SOL     OW10220   7.459  11.860   8.981
69463SOL    HW110221   7.420  11.872   8.894
69463SOL    HW210222   7.520  11.788   8.970
69464SOL     OW10223   2.828   4.469   8.787
69464SOL    HW110224   2.898   4.407   8.807
69464SOL    HW210225   2.792   4.439   8.704
69465SOL     OW10226  12.157   8.012   2.073
69465SOL    HW110227  12.231   8.012   2.134
69465SOL    HW210228  12.122   8.101   2.078
69466SOL     OW10229   9.677  10.310   2.121
69466SOL    HW110230   9.603  10.301   2.061
69466SOL    HW210231   9.750  10.335   2.065
69467SOL     OW10232  11.687   9.507   9.878
69467SOL    HW110233  11.594   9.529   9.870
69467SOL    HW210234  11.706   9.454   9.801
69468SOL     OW10235   0.351   5.127  10.481
69468SOL    HW110236   0.305   5.186  10.540
69468SOL    HW210237   0.339   5.040  10.520
69469SOL     OW10238   0.746  13.645   2.938
69469SOL    HW110239   0.796  13.635   3.019
69469SOL    HW210240   0.656  13.624   2.962
69470SOL     OW10241  14.457   9.489   3.592
69470SOL    HW110242  14.469   9.567   3.538
69470SOL    HW210243  14.362   9.476   3.595
69471SOL     OW10244  10.580   6.158  14.801
69471SOL    HW110245  10.619   6.072  14.786
69471SOL    HW210246  10.608   6.211  14.727
69472SOL     OW10247   4.870   7.035   4.081
69472SOL    HW110248   4.878   7.126   4.053
69472SOL    HW210249   4.950   6.993   4.051
69473SOL     OW10250   3.230  11.680  14.461
69473SOL    HW110251   3.303  11.632  14.420
69473SOL    HW210252   3.233  11.654  14.553
69474SOL     OW10253   0.106  11.034  14.177
69474SOL    HW110254   0.196  11.013  14.200
69474SOL    HW210255   0.053  10.969  14.222
69475SOL     OW10256   0.246   8.872   9.405
69475SOL    HW110257   0.328   8.825   9.420
69475SOL    HW210258   0.237   8.875   9.310
69476SOL     OW10259   5.362  14.700   2.647
69476SOL    HW110260   5.323  14.657   2.724
69476SOL    HW210261   5.390  14.627   2.591
69477SOL     OW10262  13.799  13.771   4.848
69477SOL    HW110263  13.704  13.768   4.856
69477SOL    HW210264  13.818  13.726   4.766
69478SOL     OW10265   2.585   6.347  12.697
69478SOL    HW110266   2.680   6.348  12.687
69478SOL    HW210267   2.555   6.282  12.633
69479SOL     OW10268   5.433   7.326   8.475
69479SOL    HW110269   5.510   7.276   8.503
69479SOL    HW210270   5.386   7.346   8.556
69480SOL     OW10271   7.514   9.322   8.249
69480SOL    HW110272   7.453   9.366   8.189
69480SOL    HW210273   7.527   9.384   8.320
69481SOL     OW10274   5.604  12.580  12.144
69481SOL    HW110275   5.649  12.657  12.109
69481SOL    HW210276   5.519  12.580  12.100
69482SOL     OW10277  13.720   1.337   7.677
69482SOL    HW110278  13.654   1.373   7.619
69482SOL    HW210279  13.758   1.264   7.629
69483SOL     OW10280   8.360  12.670   8.815
69483SOL    HW110281   8.278  12.647   8.859
69483SOL    HW210282   8.394  12.587   8.783
69484SOL     OW10283   1.096   4.192   8.831
69484SOL    HW110284   1.110   4.110   8.877
69484SOL    HW210285   1.177   4.206   8.782
69485SOL     OW10286   9.775  11.023   9.166
69485SOL    HW110287   9.742  10.934   9.153
69485SOL    HW210288   9.725  11.057   9.240
69486SOL     OW10289   3.046   4.033   9.820
69486SOL    HW110290   3.114   3.980   9.862
69486SOL    HW210291   2.964   4.001   9.858
69487SOL     OW10292   9.650   1.350   6.430
69487SOL    HW110293   9.731   1.378   6.473
69487SOL    HW210294   9.581   1.397   6.476
69488SOL     OW10295   8.390   9.372  14.271
69488SOL    HW110296   8.451   9.305  14.242
69488SOL    HW210297   8.445   9.445  14.299
69489SOL     OW10298  11.271   2.908  13.468
69489SOL    HW110299  11.321   2.869  13.396
69489SOL    HW210300  11.293   3.001  13.466
69490SOL     OW10301   9.742  13.328   0.808
69490SOL    HW110302   9.767  13.257   0.747
69490SOL    HW210303   9.689  13.284   0.875
69491SOL     OW10304  12.673  13.079  12.196
69491SOL    HW110305  12.677  13.151  12.133
69491SOL    HW210306  12.583  13.079  12.227
69492SOL     OW10307   7.218   7.260  10.328
69492SOL    HW110308   7.310   7.286  10.321
69492SOL    HW210309   7.184   7.310  10.402
69493SOL     OW10310   9.697   9.769  10.064
69493SOL    HW110311   9.760   9.773   9.992
69493SOL    HW210312   9.634   9.703  10.036
69494SOL     OW10313  11.517  14.229  13.471
69494SOL    HW110314  11.492  14.271  13.553
69494SOL    HW210315  11.439  14.233  13.416
69495SOL     OW10316   3.473   7.261   8.389
69495SOL    HW110317   3.527   7.274   8.311
69495SOL    HW210318   3.416   7.187   8.367
69496SOL     OW10319  13.316   5.850  13.711
69496SOL    HW110320  13.354   5.763  13.723
69496SOL    HW210321  13.392   5.908  13.700
69497SOL     OW10322  11.183   9.956  10.612
69497SOL    HW110323  11.196  10.045  10.646
69497SOL    HW210324  11.093   9.934  10.633
69498SOL     OW10325   7.159   6.330   5.562
69498SOL    HW110326   7.106   6.353   5.638
69498SOL    HW210327   7.181   6.238   5.575
69499SOL     OW10328   2.649  14.873   1.640
69499SOL    HW110329   2.558  14.845   1.645
69499SOL    HW210330   2.660   0.058   1.713
69500SOL     OW10331   1.793   5.191  12.696
69500SOL    HW110332   1.884   5.210  12.675
69500SOL    HW210333   1.750   5.276  12.695
69501SOL     OW10334   7.473   9.219   2.854
69501SOL    HW110335   7.548   9.276   2.866
69501SOL    HW210336   7.435   9.209   2.942
69502SOL     OW10337   5.578   2.634   2.873
69502SOL    HW110338   5.658   2.631   2.821
69502SOL    HW210339   5.604   2.604   2.960
69503SOL     OW10340   9.748   2.045   9.954
69503SOL    HW110341   9.815   2.051  10.023
69503SOL    HW210342   9.794   2.005   9.880
69504SOL     OW10343  11.620   5.220   0.286
69504SOL    HW110344  11.603   5.126   0.292
69504SOL    HW210345  11.652   5.233   0.197
69505SOL     OW10346  11.148   0.278   0.121
69505SOL    HW110347  11.114   0.190   0.104
69505SOL    HW210348  11.208   0.267   0.194
69506SOL     OW10349   6.288   1.814   4.680
69506SOL    HW110350   6.383   1.801   4.684
69506SOL    HW210351   6.273   1.856   4.596
69507SOL     OW10352   0.749   8.297  11.847
69507SOL    HW110353   0.698   8.301  11.766
69507SOL    HW210354   0.840   8.295  11.818
69508SOL     OW10355   7.879  13.918   1.026
69508SOL    HW110356   7.851  13.881   1.110
69508SOL    HW210357   7.843  14.007   1.026
69509SOL     OW10358   2.510   3.804   3.582
69509SOL    HW110359   2.477   3.893   3.580
69509SOL    HW210360   2.436   3.752   3.612
69510SOL     OW10361  10.260   3.861   3.461
69510SOL    HW110362  10.294   3.817   3.539
69510SOL    HW210363  10.215   3.793   3.412
69511SOL     OW10364   0.086  14.265   5.226
69511SOL    HW110365   0.030  14.279   5.149
69511SOL    HW210366   0.057  14.330   5.289
69512SOL     OW10367   3.776   4.290   9.473
69512SOL    HW110368   3.869   4.311   9.487
69512SOL    HW210369   3.737   4.298   9.560
69513SOL     OW10370  14.516   1.233   3.179
69513SOL    HW110371  14.569   1.234   3.259
69513SOL    HW210372  14.475   1.320   3.176
69514SOL     OW10373  10.964  13.860   5.679
69514SOL    HW110374  10.982  13.788   5.739
69514SOL    HW210375  11.035  13.922   5.694
69515SOL     OW10376  13.503  14.180   6.936
69515SOL    HW110377  13.509  14.137   6.851
69515SOL    HW210378  13.453  14.119   6.990
69516SOL     OW10379   5.061  10.084   5.488
69516SOL    HW110380   5.037  10.176   5.476
69516SOL    HW210381   5.092  10.056   5.403
69517SOL     OW10382   5.052  10.117  13.329
69517SOL    HW110383   4.983  10.055  13.306
69517SOL    HW210384   5.122  10.064  13.365
69518SOL     OW10385  12.010   2.336  12.242
69518SOL    HW110386  12.078   2.273  12.264
69518SOL    HW210387  11.972   2.363  12.326
69519SOL     OW10388   3.491   2.367  10.968
69519SOL    HW110389   3.499   2.404  11.055
69519SOL    HW210390   3.462   2.277  10.983
69520SOL     OW10391   2.487  10.352   2.468
69520SOL    HW110392   2.549  10.408   2.515
69520SOL    HW210393   2.538  10.276   2.442
69521SOL     OW10394   8.840  10.689   9.404
69521SOL    HW110395   8.934  10.702   9.418
69521SOL    HW210396   8.831  10.678   9.309
69522SOL     OW10397   2.575   6.325   8.940
69522SOL    HW110398   2.488   6.301   8.972
69522SOL    HW210399   2.591   6.267   8.866
69523SOL     OW10400  10.533   6.597   6.697
69523SOL    HW110401  10.454   6.554   6.665
69523SOL    HW210402  10.553   6.552   6.779
69524SOL     OW10403  11.806  14.693   5.068
69524SOL    HW110404  11.851  14.617   5.031
69524SOL    HW210405  11.849  14.768   5.028
69525SOL     OW10406  12.732   9.120  13.977
69525SOL    HW110407  12.665   9.140  13.912
69525SOL    HW210408  12.735   9.198  14.033
69526SOL     OW10409   5.650  10.919  11.603
69526SOL    HW110410   5.601  10.862  11.544
69526SOL    HW210411   5.728  10.868  11.626
69527SOL     OW10412  10.056   4.271   8.743
69527SOL    HW110413   9.961   4.278   8.742
69527SOL    HW210414  10.085   4.334   8.809
69528SOL     OW10415  10.475  10.620   3.164
69528SOL    HW110416  10.438  10.702   3.132
69528SOL    HW210417  10.417  10.552   3.129
69529SOL     OW10418  11.236   8.076   4.281
69529SOL    HW110419  11.257   8.035   4.365
69529SOL    HW210420  11.314   8.127   4.259
69530SOL     OW10421   8.027   0.541  14.741
69530SOL    HW110422   8.121   0.548  14.726
69530SOL    HW210423   7.998   0.473  14.679
69531SOL     OW10424   0.604  11.816   3.262
69531SOL    HW110425   0.678  11.771   3.221
69531SOL    HW210426   0.529  11.796   3.207
69532SOL     OW10427  11.474  11.005  11.081
69532SOL    HW110428  11.506  11.000  10.991
69532SOL    HW210429  11.548  10.977  11.135
69533SOL     OW10430   0.209   3.902   3.334
69533SOL    HW110431   0.199   3.908   3.429
69533SOL    HW210432   0.198   3.992   3.303
69534SOL     OW10433   9.102   9.753   0.572
69534SOL    HW110434   9.034   9.690   0.549
69534SOL    HW210435   9.054   9.829   0.606
69535SOL     OW10436  14.595  12.097   3.768
69535SOL    HW110437  14.633  12.039   3.835
69535SOL    HW210438  14.605  12.048   3.686
69536SOL     OW10439  10.844  11.230   6.230
69536SOL    HW110440  10.912  11.163   6.228
69536SOL    HW210441  10.762  11.181   6.228
69537SOL     OW10442  11.160   5.098   2.582
69537SOL    HW110443  11.127   5.188   2.589
69537SOL    HW210444  11.247   5.108   2.544
69538SOL     OW10445   2.541   5.325   6.693
69538SOL    HW110446   2.594   5.360   6.765
69538SOL    HW210447   2.466   5.384   6.687
69539SOL     OW10448  14.130  14.037   8.454
69539SOL    HW110449  14.088  14.108   8.405
69539SOL    HW210450  14.189  14.081   8.515
69540SOL     OW10451   5.456   2.986   4.979
69540SOL    HW110452   5.531   2.927   4.979
69540SOL    HW210453   5.401   2.956   5.052
69541SOL     OW10454   6.605   5.252   7.436
69541SOL    HW110455   6.631   5.341   7.459
69541SOL    HW210456   6.527   5.236   7.489
69542SOL     OW10457  14.407   7.032  14.543
69542SOL    HW110458  14.368   7.006  14.627
69542SOL    HW210459  14.342   7.005  14.478
69543SOL     OW10460   8.676  14.568  13.512
69543SOL    HW110461   8.638  14.648  13.477
69543SOL    HW210462   8.702  14.517  13.435
69544SOL     OW10463   1.385   2.438  10.886
69544SOL    HW110464   1.428   2.478  10.962
69544SOL    HW210465   1.420   2.486  10.811
69545SOL     OW10466   1.313  14.352   5.487
69545SOL    HW110467   1.390  14.407   5.501
69545SOL    HW210468   1.255  14.404   5.431
69546SOL     OW10469  11.622   5.784  12.429
69546SOL    HW110470  11.644   5.825  12.345
69546SOL    HW210471  11.536   5.746  12.416
69547SOL     OW10472   8.316  13.401  12.282
69547SOL    HW110473   8.405  13.435  12.282
69547SOL    HW210474   8.315  13.334  12.214
69548SOL     OW10475   5.598   6.616   3.622
69548SOL    HW110476   5.578   6.703   3.656
69548SOL    HW210477   5.515   6.568   3.624
69549SOL     OW10478  11.318   2.251   4.700
69549SOL    HW110479  11.367   2.187   4.752
69549SOL    HW210480  11.228   2.245   4.733
69550SOL     OW10481   6.118   9.422   2.955
69550SOL    HW110482   6.136   9.369   3.033
69550SOL    HW210483   6.204   9.453   2.927
69551SOL     OW10484   6.692   1.172  11.751
69551SOL    HW110485   6.760   1.151  11.815
69551SOL    HW210486   6.683   1.267  11.755
69552SOL     OW10487   1.541   6.463   2.616
69552SOL    HW110488   1.612   6.406   2.585
69552SOL    HW210489   1.531   6.528   2.547
69553SOL     OW10490   6.012  11.916   7.727
69553SOL    HW110491   5.959  11.980   7.679
69553SOL    HW210492   5.994  11.936   7.819
69554SOL     OW10493  11.452  12.381   3.713
69554SOL    HW110494  11.391  12.418   3.649
69554SOL    HW210495  11.511  12.453   3.735
69555SOL     OW10496  13.451   3.611  10.096
69555SOL    HW110497  13.521   3.626  10.033
69555SOL    HW210498  13.443   3.515  10.101
69556SOL     OW10499   6.532  14.697   0.190
69556SOL    HW110500   6.544  14.749   0.270
69556SOL    HW210501   6.599  14.730   0.130
69557SOL     OW10502   9.682  11.157  14.157
69557SOL    HW110503   9.639  11.243  14.163
69557SOL    HW210504   9.682  11.137  14.063
69558SOL     OW10505  14.484   8.064  12.397
69558SOL    HW110506  14.533   8.077  12.317
69558SOL    HW210507  14.545   8.021  12.457
69559SOL     OW10508   8.656  10.446  13.611
69559SOL    HW110509   8.655  10.358  13.648
69559SOL    HW210510   8.717  10.495  13.666
69560SOL     OW10511   1.731   7.455   2.379
69560SOL    HW110512   1.710   7.529   2.320
69560SOL    HW210513   1.646   7.426   2.412
69561SOL     OW10514   7.780  14.695   9.537
69561SOL    HW110515   7.829  14.707   9.618
69561SOL    HW210516   7.758  14.783   9.508
69562SOL     OW10517  10.252   8.705   4.629
69562SOL    HW110518  10.253   8.730   4.537
69562SOL    HW210519  10.159   8.697   4.651
69563SOL     OW10520   2.374   3.038   7.799
69563SOL    HW110521   2.373   3.100   7.727
69563SOL    HW210522   2.359   3.092   7.877
69564SOL     OW10523   4.955  12.194  13.525
69564SOL    HW110524   4.901  12.237  13.592
69564SOL    HW210525   4.895  12.134  13.480
69565SOL     OW10526   9.060  14.549   5.315
69565SOL    HW110527   9.125  14.515   5.376
69565SOL    HW210528   9.035  14.473   5.261
69566SOL     OW10529   0.696   9.956   2.243
69566SOL    HW110530   0.682  10.049   2.259
69566SOL    HW210531   0.684   9.915   2.328
69567SOL     OW10532  13.024  14.725  11.965
69567SOL    HW110533  13.089  14.767  12.021
69567SOL    HW210534  13.074  14.669  11.906
69568SOL     OW10535   6.465   4.656  12.829
69568SOL    HW110536   6.400   4.609  12.776
69568SOL    HW210537   6.441   4.636  12.919
69569SOL     OW10538  10.324  11.322   0.845
69569SOL    HW110539  10.334  11.417   0.853
69569SOL    HW210540  10.296  11.309   0.754
69570SOL     OW10541   3.099   2.284   3.408
69570SOL    HW110542   3.079   2.229   3.484
69570SOL    HW210543   3.195   2.283   3.402
69571SOL     OW10544   2.711  14.750  14.005
69571SOL    HW110545   2.803  14.738  13.980
69571SOL    HW210546   2.678  14.662  14.019
69572SOL     OW10547   8.666   3.489   9.616
69572SOL    HW110548   8.573   3.491   9.590
69572SOL    HW210549   8.714   3.502   9.534
69573SOL     OW10550   5.061   3.927   1.870
69573SOL    HW110551   5.105   4.009   1.846
69573SOL    HW210552   5.123   3.883   1.929
69574SOL     OW10553   4.161   5.015  14.339
69574SOL    HW110554   4.089   5.045  14.284
69574SOL    HW210555   4.229   5.082  14.328
69575SOL     OW10556   4.805   0.143   8.592
69575SOL    HW110557   4.801   0.057   8.635
69575SOL    HW210558   4.820   0.122   8.499
69576SOL     OW10559  12.818   0.627   6.352
69576SOL    HW110560  12.730   0.665   6.357
69576SOL    HW210561  12.844   0.614   6.443
69577SOL     OW10562  14.566   5.577  13.747
69577SOL    HW110563  14.618   5.610  13.674
69577SOL    HW210564  14.612   5.606  13.825
69578SOL     OW10565   8.651  12.743  11.199
69578SOL    HW110566   8.623  12.694  11.276
69578SOL    HW210567   8.698  12.679  11.145
69579SOL     OW10568   1.945   4.715   1.223
69579SOL    HW110569   1.866   4.698   1.172
69579SOL    HW210570   2.014   4.671   1.174
69580SOL     OW10571   3.427   1.971  11.951
69580SOL    HW110572   3.490   1.945  11.884
69580SOL    HW210573   3.480   2.019  12.016
69581SOL     OW10574   3.810  12.350   5.076
69581SOL    HW110575   3.828  12.265   5.114
69581SOL    HW210576   3.895  12.393   5.072
69582SOL     OW10577   9.111  10.184   7.050
69582SOL    HW110578   9.150  10.271   7.038
69582SOL    HW210579   9.033  10.200   7.102
69583SOL     OW10580   6.628  14.137   7.875
69583SOL    HW110581   6.702  14.165   7.821
69583SOL    HW210582   6.653  14.049   7.905
69584SOL     OW10583  11.300  14.098  12.898
69584SOL    HW110584  11.382  14.085  12.849
69584SOL    HW210585  11.249  14.019  12.880
69585SOL     OW10586   9.858  11.769   1.910
69585SOL    HW110587   9.877  11.682   1.875
69585SOL    HW210588   9.834  11.753   2.001
69586SOL     OW10589  13.079   4.237  14.199
69586SOL    HW110590  13.070   4.322  14.243
69586SOL    HW210591  13.116   4.180  14.265
69587SOL     OW10592  10.642  14.567   2.616
69587SOL    HW110593  10.692  14.595   2.539
69587SOL    HW210594  10.581  14.640   2.632
69588SOL     OW10595   4.714  13.190   8.957
69588SOL    HW110596   4.689  13.192   9.050
69588SOL    HW210597   4.803  13.155   8.957
69589SOL     OW10598   1.596   5.448  14.819
69589SOL    HW110599   1.576   5.380   0.007
69589SOL    HW210600   1.654   5.508  14.866
69590SOL     OW10601  10.288   4.457   9.012
69590SOL    HW110602  10.244   4.372   9.014
69590SOL    HW210603  10.219   4.519   8.987
69591SOL     OW10604   4.924   8.577  12.086
69591SOL    HW110605   5.011   8.611  12.107
69591SOL    HW210606   4.921   8.580  11.990
69592SOL     OW10607  12.348  13.217   6.819
69592SOL    HW110608  12.350  13.150   6.751
69592SOL    HW210609  12.440  13.231   6.841
69593SOL     OW10610   0.467   2.345   2.121
69593SOL    HW110611   0.434   2.386   2.201
69593SOL    HW210612   0.408   2.375   2.052
69594SOL     OW10613  14.343   8.844   1.759
69594SOL    HW110614  14.285   8.779   1.798
69594SOL    HW210615  14.284   8.908   1.719
69595SOL     OW10616  14.588   6.399   5.930
69595SOL    HW110617  14.582   6.445   5.847
69595SOL    HW210618  14.681   6.401   5.952
69596SOL     OW10619   5.380   1.157   9.268
69596SOL    HW110620   5.359   1.098   9.340
69596SOL    HW210621   5.439   1.222   9.307
69597SOL     OW10622   5.515   4.970   7.749
69597SOL    HW110623   5.440   5.028   7.762
69597SOL    HW210624   5.540   4.985   7.657
69598SOL     OW10625   1.259  12.731  12.712
69598SOL    HW110626   1.308  12.652  12.689
69598SOL    HW210627   1.295  12.798  12.653
69599SOL     OW10628  10.038  10.411   2.672
69599SOL    HW110629  10.004  10.407   2.583
69599SOL    HW210630   9.975  10.360   2.723
69600SOL     OW10631  12.176  11.476   5.348
69600SOL    HW110632  12.088  11.444   5.368
69600SOL    HW210633  12.164  11.569   5.330
69601SOL     OW10634  10.913   3.280   0.655
69601SOL    HW110635  10.908   3.339   0.730
69601SOL    HW210636  10.822   3.263   0.632
69602SOL     OW10637  14.125  13.114   3.850
69602SOL    HW110638  14.144  13.206   3.867
69602SOL    HW210639  14.064  13.115   3.777
69603SOL     OW10640  10.242   4.416   6.591
69603SOL    HW110641  10.170   4.361   6.558
69603SOL    HW210642  10.320   4.360   6.582
69604SOL     OW10643  14.615   0.123   2.435
69604SOL    HW110644  14.651   0.208   2.459
69604SOL    HW210645  14.686   0.078   2.389
69605SOL     OW10646   0.124   1.108  13.034
69605SOL    HW110647   0.046   1.059  13.060
69605SOL    HW210648   0.120   1.188  13.088
69606SOL     OW10649   3.707  14.436   6.891
69606SOL    HW110650   3.759  14.488   6.830
69606SOL    HW210651   3.697  14.351   6.847
69607SOL     OW10652   8.825  10.017  13.582
69607SOL    HW110653   8.919  10.003  13.593
69607SOL    HW210654   8.799   9.952  13.517
69608SOL     OW10655  13.234   9.361   4.798
69608SOL    HW110656  13.314   9.337   4.753
69608SOL    HW210657  13.222   9.454   4.778
69609SOL     OW10658   9.514   5.452   5.719
69609SOL    HW110659   9.523   5.547   5.715
69609SOL    HW210660   9.591   5.423   5.768
69610SOL     OW10661   8.778   7.138  14.791
69610SOL    HW110662   8.771   7.095  14.705
69610SOL    HW210663   8.821   7.221  14.773
69611SOL     OW10664   5.856  13.346  10.266
69611SOL    HW110665   5.913  13.356  10.190
69611SOL    HW210666   5.913  13.309  10.334
69612SOL     OW10667  10.472  13.568   8.089
69612SOL    HW110668  10.407  13.636   8.072
69612SOL    HW210669  10.539  13.611   8.143
69613SOL     OW10670   5.755   2.503   2.047
69613SOL    HW110671   5.663   2.483   2.065
69613SOL    HW210672   5.779   2.442   1.977
69614SOL     OW10673   6.194   0.614   5.564
69614SOL    HW110674   6.214   0.557   5.639
69614SOL    HW210675   6.246   0.579   5.492
69615SOL     OW10676   0.749   4.157  11.543
69615SOL    HW110677   0.676   4.215  11.522
69615SOL    HW210678   0.775   4.119  11.459
69616SOL     OW10679  14.291   3.259   5.213
69616SOL    HW110680  14.291   3.318   5.288
69616SOL    HW210681  14.382   3.258   5.184
69617SOL     OW10682   4.275   8.222   8.120
69617SOL    HW110683   4.293   8.257   8.207
69617SOL    HW210684   4.287   8.128   8.128
69618SOL     OW10685   0.808   9.497   7.034
69618SOL    HW110686   0.727   9.486   7.085
69618SOL    HW210687   0.790   9.571   6.976
69619SOL     OW10688   7.441   3.341   7.355
69619SOL    HW110689   7.515   3.334   7.416
69619SOL    HW210690   7.410   3.430   7.365
69620SOL     OW10691  14.108  10.517   0.438
69620SOL    HW110692  14.100  10.542   0.530
69620SOL    HW210693  14.072  10.590   0.389
69621SOL     OW10694   8.400   7.409  12.000
69621SOL    HW110695   8.412   7.441  11.910
69621SOL    HW210696   8.305   7.402  12.009
69622SOL     OW10697   5.996   3.285  13.380
69622SOL    HW110698   6.023   3.356  13.439
69622SOL    HW210699   6.000   3.207  13.434
69623SOL     OW10700   9.989   2.584  13.212
69623SOL    HW110701  10.060   2.579  13.276
69623SOL    HW210702  10.020   2.646  13.146
69624SOL     OW10703   9.394   1.399   5.808
69624SOL    HW110704   9.397   1.386   5.903
69624SOL    HW210705   9.480   1.371   5.777
69625SOL     OW10706  10.423  13.014   9.489
69625SOL    HW110707  10.465  13.099   9.505
69625SOL    HW210708  10.344  13.034   9.440
69626SOL     OW10709  13.650   6.785   2.871
69626SOL    HW110710  13.622   6.815   2.958
69626SOL    HW210711  13.656   6.690   2.880
69627SOL     OW10712  13.941   3.153   6.811
69627SOL    HW110713  13.869   3.168   6.751
69627SOL    HW210714  13.901   3.113   6.888
69628SOL     OW10715   1.061  13.888   5.606
69628SOL    HW110716   1.064  13.970   5.654
69628SOL    HW210717   1.048  13.821   5.673
69629SOL     OW10718   6.375  14.212   8.421
69629SOL    HW110719   6.408  14.295   8.456
69629SOL    HW210720   6.296  14.194   8.472
69630SOL     OW10721   7.563   7.074  11.610
69630SOL    HW110722   7.642   7.090  11.662
69630SOL    HW210723   7.539   7.160  11.576
69631SOL     OW10724  14.216   6.949  11.122
69631SOL    HW110725  14.258   6.996  11.194
69631SOL    HW210726  14.188   6.865  11.161
69632SOL     OW10727   6.327   4.564   2.715
69632SOL    HW110728   6.376   4.633   2.669
69632SOL    HW210729   6.346   4.484   2.666
69633SOL     OW10730  12.983   9.175  12.758
69633SOL    HW110731  12.982   9.111  12.829
69633SOL    HW210732  13.076   9.183  12.734
69634SOL     OW10733   9.832  12.547  10.341
69634SOL    HW110734   9.860  12.456  10.341
69634SOL    HW210735   9.812  12.566  10.432
69635SOL     OW10736   6.311  14.299   0.971
69635SOL    HW110737   6.246  14.298   0.902
69635SOL    HW210738   6.392  14.271   0.928
69636SOL     OW10739   9.362   8.399  11.590
69636SOL    HW110740   9.417   8.365  11.520
69636SOL    HW210741   9.372   8.494  11.584
69637SOL     OW10742   1.877  14.339   5.945
69637SOL    HW110743   1.892  14.252   5.909
69637SOL    HW210744   1.894  14.329   6.039
69638SOL     OW10745   7.902  11.638   5.958
69638SOL    HW110746   7.982  11.602   5.920
69638SOL    HW210747   7.932  11.704   6.020
69639SOL     OW10748   9.827  13.236   3.273
69639SOL    HW110749   9.839  13.157   3.220
69639SOL    HW210750   9.894  13.228   3.342
69640SOL     OW10751  11.595   6.287   9.451
69640SOL    HW110752  11.540   6.272   9.528
69640SOL    HW210753  11.654   6.212   9.449
69641SOL     OW10754   3.187   7.228  10.610
69641SOL    HW110755   3.259   7.166  10.601
69641SOL    HW210756   3.117   7.178  10.652
69642SOL     OW10757  12.223   1.651   8.244
69642SOL    HW110758  12.145   1.684   8.199
69642SOL    HW210759  12.296   1.679   8.189
69643SOL     OW10760   0.533  11.375  14.319
69643SOL    HW110761   0.565  11.465  14.317
69643SOL    HW210762   0.503  11.362  14.409
69644SOL     OW10763  13.299  13.039   5.917
69644SOL    HW110764  13.316  12.994   5.834
69644SOL    HW210765  13.265  12.971   5.975
69645SOL     OW10766   6.204   5.421   5.196
69645SOL    HW110767   6.197   5.497   5.253
69645SOL    HW210768   6.177   5.453   5.109
69646SOL     OW10769   1.841  14.781   8.960
69646SOL    HW110770   1.778  14.753   9.027
69646SOL    HW210771   1.917  14.811   9.010
69647SOL     OW10772  14.291  13.881   7.021
69647SOL    HW110773  14.377  13.862   7.061
69647SOL    HW210774  14.309  13.884   6.927
69648SOL     OW10775   3.831  11.085  13.015
69648SOL    HW110776   3.805  10.997  13.042
69648SOL    HW210777   3.785  11.099  12.933
69649SOL     OW10778   7.090   5.761  11.685
69649SOL    HW110779   7.104   5.779  11.592
69649SOL    HW210780   7.007   5.803  11.705
69650SOL     OW10781   3.808   7.904   6.186
69650SOL    HW110782   3.828   7.812   6.204
69650SOL    HW210783   3.891   7.950   6.199
69651SOL     OW10784  12.204  12.003   4.770
69651SOL    HW110785  12.154  12.005   4.688
69651SOL    HW210786  12.194  11.913   4.801
69652SOL     OW10787  10.256   8.821   4.397
69652SOL    HW110788  10.346   8.840   4.371
69652SOL    HW210789  10.213   8.796   4.316
69653SOL     OW10790   9.580   9.722   8.304
69653SOL    HW110791   9.674   9.705   8.295
69653SOL    HW210792   9.546   9.643   8.345
69654SOL     OW10793   0.704   4.919  13.246
69654SOL    HW110794   0.708   4.829  13.279
69654SOL    HW210795   0.613   4.931  13.219
69655SOL     OW10796   8.869   0.886   0.266
69655SOL    HW110797   8.896   0.975   0.290
69655SOL    HW210798   8.917   0.830   0.326
69656SOL     OW10799   2.327   1.041   2.349
69656SOL    HW110800   2.359   1.129   2.369
69656SOL    HW210801   2.261   1.053   2.282
69657SOL     OW10802   4.586   5.644   7.500
69657SOL    HW110803   4.674   5.652   7.462
69657SOL    HW210804   4.590   5.693   7.582
69658SOL     OW10805  13.204   5.283   2.932
69658SOL    HW110806  13.122   5.233   2.924
69658SOL    HW210807  13.265   5.223   2.973
69659SOL     OW10808  12.473  14.116   1.398
69659SOL    HW110809  12.405  14.048   1.395
69659SOL    HW210810  12.437  14.183   1.455
69660SOL     OW10811  10.463  13.265   6.729
69660SOL    HW110812  10.393  13.330   6.721
69660SOL    HW210813  10.543  13.315   6.716
69661SOL     OW10814  10.413  11.769  11.987
69661SOL    HW110815  10.340  11.825  11.962
69661SOL    HW210816  10.375  11.706  12.048
69662SOL     OW10817  12.620   2.848  10.661
69662SOL    HW110818  12.557   2.872  10.593
69662SOL    HW210819  12.705   2.859  10.618
69663SOL     OW10820   2.433   1.821   6.012
69663SOL    HW110821   2.376   1.776   5.950
69663SOL    HW210822   2.374   1.847   6.083
69664SOL     OW10823   5.725   4.386  11.938
69664SOL    HW110824   5.636   4.419  11.934
69664SOL    HW210825   5.738   4.341  11.855
69665SOL     OW10826   6.306   5.704   0.205
69665SOL    HW110827   6.293   5.739   0.293
69665SOL    HW210828   6.373   5.760   0.167
69666SOL     OW10829   5.803   7.707   7.995
69666SOL    HW110830   5.815   7.613   8.003
69666SOL    HW210831   5.872   7.745   8.050
69667SOL     OW10832  11.526   3.388   9.758
69667SOL    HW110833  11.546   3.433   9.676
69667SOL    HW210834  11.436   3.358   9.748
69668SOL     OW10835  14.712  13.554   6.788
69668SOL    HW110836  14.731  13.508   6.869
69668SOL    HW210837  14.743  13.643   6.802
69669SOL     OW10838   3.210   9.116  14.224
69669SOL    HW110839   3.136   9.056  14.215
69669SOL    HW210840   3.193   9.186  14.161
69670SOL     OW10841   8.610   8.984  10.441
69670SOL    HW110842   8.528   9.005  10.395
69670SOL    HW210843   8.584   8.922  10.509
69671SOL     OW10844  11.782   9.878  11.899
69671SOL    HW110845  11.826   9.959  11.874
69671SOL    HW210846  11.784   9.824  11.820
69672SOL     OW10847   2.685  13.537  10.749
69672SOL    HW110848   2.677  13.631  10.763
69672SOL    HW210849   2.740  13.529  10.671
69673SOL     OW10850  10.341   6.683   7.711
69673SOL    HW110851  10.376   6.657   7.796
69673SOL    HW210852  10.396   6.758   7.685
69674SOL     OW10853   1.095  11.844   5.592
69674SOL    HW110854   1.083  11.874   5.682
69674SOL    HW210855   1.182  11.804   5.592
69675SOL     OW10856   3.212  13.492   1.763
69675SOL    HW110857   3.123  13.459   1.755
69675SOL    HW210858   3.212  13.574   1.713
69676SOL     OW10859  11.906   5.025   2.182
69676SOL    HW110860  11.970   5.079   2.137
69676SOL    HW210861  11.958   4.970   2.241
69677SOL     OW10862  13.323   8.048   0.638
69677SOL    HW110863  13.245   7.995   0.624
69677SOL    HW210864  13.356   8.019   0.723
69678SOL     OW10865  10.666   5.847   9.683
69678SOL    HW110866  10.645   5.886   9.768
69678SOL    HW210867  10.662   5.921   9.622
69679SOL     OW10868   7.801  11.252  14.644
69679SOL    HW110869   7.792  11.171  14.592
69679SOL    HW210870   7.720  11.300  14.626
69680SOL     OW10871  14.613   9.923   3.227
69680SOL    HW110872  14.695   9.874   3.220
69680SOL    HW210873  14.595   9.928   3.321
69681SOL     OW10874   8.717   9.057   0.126
69681SOL    HW110875   8.766   9.001   0.185
69681SOL    HW210876   8.706   9.005   0.046
69682SOL     OW10877   9.461   4.540   6.868
69682SOL    HW110878   9.540   4.534   6.921
69682SOL    HW210879   9.464   4.628   6.830
69683SOL     OW10880   8.538  13.896   6.025
69683SOL    HW110881   8.537  13.863   6.114
69683SOL    HW210882   8.461  13.952   6.019
69684SOL     OW10883   8.833   0.996   5.188
69684SOL    HW110884   8.739   1.015   5.180
69684SOL    HW210885   8.836   0.901   5.198
69685SOL     OW10886   2.257   7.841  11.779
69685SOL    HW110887   2.180   7.788  11.801
69685SOL    HW210888   2.326   7.808  11.837
69686SOL     OW10889  11.776   1.687   5.541
69686SOL    HW110890  11.748   1.773   5.571
69686SOL    HW210891  11.835   1.706   5.467
69687SOL     OW10892   9.919  13.153  13.569
69687SOL    HW110893  10.010  13.164  13.596
69687SOL    HW210894   9.875  13.116  13.645
69688SOL     OW10895   2.601   5.225   5.268
69688SOL    HW110896   2.515   5.257   5.297
69688SOL    HW210897   2.583   5.139   5.231
69689SOL     OW10898   1.899  13.492  10.371
69689SOL    HW110899   1.988  13.508  10.339
69689SOL    HW210900   1.907  13.492  10.467
69690SOL     OW10901   7.268   4.352  12.045
69690SOL    HW110902   7.182   4.377  12.080
69690SOL    HW210903   7.294   4.427  11.992
69691SOL     OW10904  10.064  10.349   3.702
69691SOL    HW110905  10.148  10.385   3.730
69691SOL    HW210906  10.040  10.287   3.771
69692SOL     OW10907  12.061   0.697  11.909
69692SOL    HW110908  12.057   0.609  11.947
69692SOL    HW210909  11.979   0.738  11.937
69693SOL     OW10910  12.020   5.389  10.695
69693SOL    HW110911  11.947   5.327  10.697
69693SOL    HW210912  12.058   5.384  10.783
69694SOL     OW10913  12.296   6.500   5.575
69694SOL    HW110914  12.312   6.577   5.629
69694SOL    HW210915  12.252   6.534   5.497
69695SOL     OW10916   8.434   1.517   3.473
69695SOL    HW110917   8.421   1.422   3.477
69695SOL    HW210918   8.347   1.554   3.491
69696SOL     OW10919   5.709   9.509   7.172
69696SOL    HW110920   5.794   9.529   7.210
69696SOL    HW210921   5.662   9.592   7.170
69697SOL     OW10922  13.863   7.244   9.282
69697SOL    HW110923  13.850   7.149   9.281
69697SOL    HW210924  13.797   7.276   9.343
69698SOL     OW10925  13.755   0.795   5.658
69698SOL    HW110926  13.683   0.793   5.595
69698SOL    HW210927  13.833   0.813   5.605
69699SOL     OW10928   4.498  12.893   8.593
69699SOL    HW110929   4.434  12.960   8.569
69699SOL    HW210930   4.583  12.938   8.587
69700SOL     OW10931   7.131   1.089   0.362
69700SOL    HW110932   7.115   1.184   0.365
69700SOL    HW210933   7.217   1.081   0.321
69701SOL     OW10934   3.692   0.877   0.844
69701SOL    HW110935   3.727   0.835   0.765
69701SOL    HW210936   3.758   0.942   0.867
69702SOL     OW10937   6.592   1.114   7.435
69702SOL    HW110938   6.552   1.195   7.404
69702SOL    HW210939   6.541   1.044   7.394
69703SOL     OW10940   0.274   0.254   3.583
69703SOL    HW110941   0.335   0.249   3.510
69703SOL    HW210942   0.265   0.164   3.613
69704SOL     OW10943  12.293   5.883   7.932
69704SOL    HW110944  12.336   5.966   7.914
69704SOL    HW210945  12.284   5.880   8.027
69705SOL     OW10946   0.462   7.559  12.279
69705SOL    HW110947   0.431   7.643  12.314
69705SOL    HW210948   0.446   7.496  12.349
69706SOL     OW10949  14.809  14.593   1.091
69706SOL    HW110950   0.015  14.633   1.061
69706SOL    HW210951  14.785  14.532   1.022
69707SOL     OW10952   2.087   2.778   4.228
69707SOL    HW110953   2.105   2.802   4.319
69707SOL    HW210954   2.135   2.695   4.215
69708SOL     OW10955   2.261   1.320   0.293
69708SOL    HW110956   2.247   1.405   0.251
69708SOL    HW210957   2.309   1.340   0.373
69709SOL     OW10958   5.462  12.836   0.386
69709SOL    HW110959   5.438  12.767   0.448
69709SOL    HW210960   5.416  12.913   0.418
69710SOL     OW10961   4.523   6.618  14.594
69710SOL    HW110962   4.508   6.663  14.511
69710SOL    HW210963   4.531   6.687  14.659
69711SOL     OW10964  11.386   8.597   6.585
69711SOL    HW110965  11.432   8.663   6.637
69711SOL    HW210966  11.310   8.573   6.639
69712SOL     OW10967   6.280  13.647  11.153
69712SOL    HW110968   6.271  13.629  11.060
69712SOL    HW210969   6.190  13.644  11.187
69713SOL     OW10970   0.172  10.614   8.078
69713SOL    HW110971   0.107  10.683   8.060
69713SOL    HW210972   0.186  10.571   7.994
69714SOL     OW10973   4.990   6.295   2.345
69714SOL    HW110974   4.936   6.219   2.364
69714SOL    HW210975   5.077   6.271   2.376
69715SOL     OW10976   1.836   1.181   8.879
69715SOL    HW110977   1.907   1.120   8.857
69715SOL    HW210978   1.879   1.265   8.892
69716SOL     OW10979   2.116   2.302   3.128
69716SOL    HW110980   2.121   2.211   3.156
69716SOL    HW210981   2.081   2.298   3.039
69717SOL     OW10982   6.853  13.356  14.224
69717SOL    HW110983   6.861  13.379  14.131
69717SOL    HW210984   6.943  13.353  14.255
69718SOL     OW10985  12.077   2.920   4.005
69718SOL    HW110986  12.165   2.912   4.041
69718SOL    HW210987  12.091   2.944   3.913
69719SOL     OW10988  13.921   9.540   3.061
69719SOL    HW110989  13.867   9.616   3.083
69719SOL    HW210990  13.989   9.538   3.128
69720SOL     OW10991   8.685  13.146  13.559
69720SOL    HW110992   8.623  13.209  13.522
69720SOL    HW210993   8.742  13.123  13.485
69721SOL     OW10994   4.204  13.781   7.641
69721SOL    HW110995   4.204  13.778   7.545
69721SOL    HW210996   4.129  13.727   7.666
69722SOL     OW10997   9.655   9.772   5.209
69722SOL    HW110998   9.591   9.724   5.156
69722SOL    HW210999   9.740   9.737   5.182
69723SOL     OW11000  10.568   0.817  12.941
69723SOL    HW111001  10.518   0.886  12.898
69723SOL    HW211002  10.535   0.736  12.903
69724SOL     OW11003   4.902   7.342   2.630
69724SOL    HW111004   4.832   7.407   2.623
69724SOL    HW211005   4.981   7.390   2.604
69725SOL     OW11006   7.468   2.287  14.198
69725SOL    HW111007   7.393   2.346  14.185
69725SOL    HW211008   7.505   2.314  14.282
69726SOL     OW11009   2.016  12.959   5.572
69726SOL    HW111010   1.929  12.958   5.531
69726SOL    HW211011   2.048  13.048   5.559
69727SOL     OW11012  11.947   2.427   1.958
69727SOL    HW111013  11.938   2.337   1.989
69727SOL    HW211014  12.026   2.460   2.001
69728SOL     OW11015   3.414  11.885   0.120
69728SOL    HW111016   3.471  11.847   0.187
69728SOL    HW211017   3.441  11.843   0.038
69729SOL     OW11018  10.966   3.990  10.795
69729SOL    HW111019  11.014   3.968  10.715
69729SOL    HW211020  10.983   3.917  10.854
69730SOL     OW11021  12.654   0.484   8.148
69730SOL    HW111022  12.735   0.528   8.176
69730SOL    HW211023  12.584   0.531   8.195
69731SOL     OW11024   5.901  13.148   9.868
69731SOL    HW111025   5.912  13.223   9.810
69731SOL    HW211026   5.853  13.084   9.816
69732SOL     OW11027   3.711  14.453  12.428
69732SOL    HW111028   3.796  14.412  12.441
69732SOL    HW211029   3.651  14.381  12.412
69733SOL     OW11030   2.927   6.485  12.270
69733SOL    HW111031   2.947   6.510  12.360
69733SOL    HW211032   2.871   6.408  12.278
69734SOL     OW11033   7.744   5.765   8.740
69734SOL    HW111034   7.719   5.711   8.665
69734SOL    HW211035   7.839   5.773   8.733
69735SOL     OW11036   1.349  10.460   0.532
69735SOL    HW111037   1.408  10.420   0.596
69735SOL    HW211038   1.357  10.554   0.547
69736SOL     OW11039   8.025   0.156   9.256
69736SOL    HW111040   8.029   0.121   9.345
69736SOL    HW211041   8.108   0.131   9.217
69737SOL     OW11042   7.751  13.980   8.906
69737SOL    HW111043   7.824  13.960   8.965
69737SOL    HW211044   7.779  14.059   8.860
69738SOL     OW11045   7.097   2.144   7.284
69738SOL    HW111046   7.008   2.124   7.314
69738SOL    HW211047   7.136   2.058   7.266
69739SOL     OW11048   2.596  13.422  13.786
69739SOL    HW111049   2.669  13.437  13.846
69739SOL    HW211050   2.633  13.371  13.714
69740SOL     OW11051   9.571   1.582   0.848
69740SOL    HW111052   9.629   1.519   0.890
69740SOL    HW211053   9.528   1.532   0.779
69741SOL     OW11054  12.084   1.821  12.047
69741SOL    HW111055  12.041   1.863  11.973
69741SOL    HW211056  12.176   1.844  12.037
69742SOL     OW11057  13.184   6.687   5.168
69742SOL    HW111058  13.259   6.629   5.182
69742SOL    HW211059  13.112   6.629   5.145
69743SOL     OW11060   4.400   6.374   0.416
69743SOL    HW111061   4.460   6.343   0.348
69743SOL    HW211062   4.374   6.461   0.387
69744SOL     OW11063   4.598   3.841   0.243
69744SOL    HW111064   4.599   3.870   0.152
69744SOL    HW211065   4.668   3.775   0.248
69745SOL     OW11066  10.743   8.503  10.790
69745SOL    HW111067  10.818   8.536  10.740
69745SOL    HW211068  10.753   8.408  10.788
69746SOL     OW11069   5.005   3.834  10.736
69746SOL    HW111070   5.024   3.750  10.779
69746SOL    HW211071   4.911   3.831  10.718
69747SOL     OW11072  14.301   9.581   5.879
69747SOL    HW111073  14.248   9.640   5.933
69747SOL    HW211074  14.377   9.633   5.854
69748SOL     OW11075   4.858  11.067   9.730
69748SOL    HW111076   4.887  11.080   9.820
69748SOL    HW211077   4.764  11.083   9.732
69749SOL     OW11078   1.764  14.328  10.897
69749SOL    HW111079   1.762  14.288  10.809
69749SOL    HW211080   1.832  14.395  10.891
69750SOL     OW11081   5.495   4.677   4.673
69750SOL    HW111082   5.426   4.689   4.738
69750SOL    HW211083   5.462   4.720   4.594
69751SOL     OW11084  14.453  13.634  14.373
69751SOL    HW111085  14.395  13.698  14.333
69751SOL    HW211086  14.401  13.554  14.379
69752SOL     OW11087  10.561   0.757  11.703
69752SOL    HW111088  10.526   0.690  11.645
69752SOL    HW211089  10.578   0.712  11.785
69753SOL     OW11090   9.502   3.898   4.274
69753SOL    HW111091   9.559   3.974   4.259
69753SOL    HW211092   9.510   3.846   4.194
69754SOL     OW11093   6.673   7.332   5.403
69754SOL    HW111094   6.627   7.332   5.487
69754SOL    HW211095   6.630   7.401   5.352
69755SOL     OW11096  11.231   7.659  14.084
69755SOL    HW111097  11.267   7.635  14.169
69755SOL    HW211098  11.143   7.621  14.083
69756SOL     OW11099  14.821   7.561  10.863
69756SOL    HW111100  14.746   7.573  10.921
69756SOL    HW211101  14.814   7.471  10.832
69757SOL     OW11102  11.866   2.776  11.726
69757SOL    HW111103  11.942   2.755  11.673
69757SOL    HW211104  11.813   2.696  11.727
69758SOL     OW11105  13.221   4.234   7.555
69758SOL    HW111106  13.265   4.213   7.637
69758SOL    HW211107  13.142   4.180   7.556
69759SOL     OW11108   4.570   8.030   4.761
69759SOL    HW111109   4.626   8.007   4.688
69759SOL    HW211110   4.626   8.019   4.838
69760SOL     OW11111   8.030   5.465   0.305
69760SOL    HW111112   8.067   5.513   0.379
69760SOL    HW211113   8.062   5.512   0.228
69761SOL     OW11114   8.988  12.418   8.278
69761SOL    HW111115   9.038  12.465   8.211
69761SOL    HW211116   8.958  12.487   8.337
69762SOL     OW11117   4.120  13.934  12.657
69762SOL    HW111118   4.212  13.957  12.667
69762SOL    HW211119   4.113  13.845  12.691
69763SOL     OW11120  11.326  11.778  11.763
69763SOL    HW111121  11.326  11.692  11.805
69763SOL    HW211122  11.419  11.797  11.747
69764SOL     OW11123   1.787  12.205   3.796
69764SOL    HW111124   1.759  12.176   3.883
69764SOL    HW211125   1.743  12.289   3.783
69765SOL     OW11126   9.878  11.768  12.614
69765SOL    HW111127   9.881  11.848  12.561
69765SOL    HW211128   9.964  11.766  12.657
69766SOL     OW11129  13.986   3.976  10.678
69766SOL    HW111130  14.001   3.964  10.772
69766SOL    HW211131  13.903   3.932  10.662
69767SOL     OW11132  12.154  14.604  10.045
69767SOL    HW111133  12.115  14.690  10.061
69767SOL    HW211134  12.229  14.601  10.104
69768SOL     OW11135  12.135   4.131  10.533
69768SOL    HW111136  12.230   4.141  10.540
69768SOL    HW211137  12.103   4.220  10.518
69769SOL     OW11138   1.728   2.356  10.901
69769SOL    HW111139   1.708   2.443  10.937
69769SOL    HW211140   1.804   2.370  10.845
69770SOL     OW11141   6.099   2.556   9.469
69770SOL    HW111142   6.088   2.562   9.374
69770SOL    HW211143   6.104   2.647   9.498
69771SOL     OW11144  14.796   0.753   7.646
69771SOL    HW111145  14.822   0.840   7.677
69771SOL    HW211146  14.746   0.715   7.719
69772SOL     OW11147  14.477   8.824   8.036
69772SOL    HW111148  14.509   8.897   8.090
69772SOL    HW211149  14.552   8.766   8.029
69773SOL     OW11150   5.124   6.693   3.761
69773SOL    HW111151   5.169   6.653   3.835
69773SOL    HW211152   5.078   6.621   3.719
69774SOL     OW11153   9.364  13.183   5.356
69774SOL    HW111154   9.458  13.182   5.369
69774SOL    HW211155   9.331  13.119   5.419
69775SOL     OW11156   4.247   8.954  13.314
69775SOL    HW111157   4.246   8.875  13.369
69775SOL    HW211158   4.158   8.959  13.278
69776SOL     OW11159   1.839   0.582   8.400
69776SOL    HW111160   1.832   0.487   8.413
69776SOL    HW211161   1.853   0.592   8.306
69777SOL     OW11162   3.362   9.558   5.133
69777SOL    HW111163   3.267   9.572   5.137
69777SOL    HW211164   3.373   9.489   5.067
69778SOL     OW11165   2.809  10.414   7.674
69778SOL    HW111166   2.786  10.397   7.582
69778SOL    HW211167   2.762  10.346   7.723
69779SOL     OW11168   8.667   5.175   1.700
69779SOL    HW111169   8.731   5.139   1.762
69779SOL    HW211170   8.663   5.268   1.721
69780SOL     OW11171   8.653   0.292   7.166
69780SOL    HW111172   8.744   0.293   7.135
69780SOL    HW211173   8.608   0.231   7.108
69781SOL     OW11174  12.466  12.410  13.153
69781SOL    HW111175  12.530  12.397  13.222
69781SOL    HW211176  12.404  12.338  13.163
69782SOL     OW11177   1.988   7.704  13.420
69782SOL    HW111178   1.894   7.703  13.437
69782SOL    HW211179   2.012   7.796  13.427
69783SOL     OW11180   5.966   6.273   6.390
69783SOL    HW111181   5.922   6.319   6.461
69783SOL    HW211182   6.051   6.316   6.382
69784SOL     OW11183  12.217  12.411  11.109
69784SOL    HW111184  12.192  12.478  11.045
69784SOL    HW211185  12.164  12.431  11.186
69785SOL     OW11186  13.557  13.637   9.927
69785SOL    HW111187  13.524  13.584  10.000
69785SOL    HW211188  13.652  13.638   9.940
69786SOL     OW11189   9.265   2.941   5.795
69786SOL    HW111190   9.345   2.903   5.831
69786SOL    HW211191   9.282   2.952   5.702
69787SOL     OW11192   8.479   5.874   1.969
69787SOL    HW111193   8.406   5.912   2.018
69787SOL    HW211194   8.440   5.839   1.890
69788SOL     OW11195  14.563   5.918   0.426
69788SOL    HW111196  14.530   5.904   0.338
69788SOL    HW211197  14.654   5.946   0.413
69789SOL     OW11198   8.835   9.373   0.811
69789SOL    HW111199   8.788   9.362   0.895
69789SOL    HW211200   8.839   9.285   0.774
69790SOL     OW11201  12.750  14.471  14.729
69790SOL    HW111202  12.691  14.484  14.655
69790SOL    HW211203  12.833  14.508  14.701
69791SOL     OW11204   4.264   3.838  14.015
69791SOL    HW111205   4.330   3.771  14.033
69791SOL    HW211206   4.184   3.790  13.994
69792SOL     OW11207   8.555   1.856  13.885
69792SOL    HW111208   8.607   1.791  13.932
69792SOL    HW211209   8.604   1.938  13.897
69793SOL     OW11210   6.926   1.830  12.341
69793SOL    HW111211   6.967   1.852  12.425
69793SOL    HW211212   6.968   1.887  12.277
69794SOL     OW11213   9.000   2.212   3.235
69794SOL    HW111214   9.092   2.198   3.257
69794SOL    HW211215   8.963   2.124   3.228
69795SOL     OW11216   0.852  11.221   2.729
69795SOL    HW111217   0.769  11.269   2.735
69795SOL    HW211218   0.918  11.288   2.710
69796SOL     OW11219   7.391   1.257   4.326
69796SOL    HW111220   7.383   1.275   4.420
69796SOL    HW211221   7.478   1.218   4.317
69797SOL     OW11222   6.132   6.177  10.509
69797SOL    HW111223   6.155   6.264  10.543
69797SOL    HW211224   6.061   6.147  10.565
69798SOL     OW11225   4.343   4.501   3.018
69798SOL    HW111226   4.433   4.486   3.046
69798SOL    HW211227   4.342   4.475   2.926
69799SOL     OW11228   0.198   2.256   6.138
69799SOL    HW111229   0.237   2.323   6.195
69799SOL    HW211230   0.158   2.194   6.199
69800SOL     OW11231  10.899   9.430   4.824
69800SOL    HW111232  10.951   9.395   4.751
69800SOL    HW211233  10.816   9.454   4.784
69801SOL     OW11234   5.053   7.477   8.098
69801SOL    HW111235   4.994   7.415   8.055
69801SOL    HW211236   5.110   7.509   8.028
69802SOL     OW11237  10.204   2.771   0.591
69802SOL    HW111238  10.166   2.779   0.503
69802SOL    HW211239  10.260   2.694   0.587
69803SOL     OW11240  13.076   2.650   2.092
69803SOL    HW111241  13.164   2.618   2.113
69803SOL    HW211242  13.076   2.741   2.121
69804SOL     OW11243   9.685  10.664   2.771
69804SOL    HW111244   9.693  10.753   2.737
69804SOL    HW211245   9.741  10.664   2.849
69805SOL     OW11246   1.409   4.138   6.610
69805SOL    HW111247   1.330   4.192   6.611
69805SOL    HW211248   1.463   4.176   6.541
69806SOL     OW11249   7.237   1.134  10.702
69806SOL    HW111250   7.277   1.159  10.785
69806SOL    HW211251   7.252   1.208  10.644
69807SOL     OW11252   5.537   2.012   2.488
69807SOL    HW111253   5.581   1.928   2.502
69807SOL    HW211254   5.474   1.995   2.418
69808SOL     OW11255   9.654   2.636   6.226
69808SOL    HW111256   9.582   2.675   6.276
69808SOL    HW211257   9.716   2.708   6.214
69809SOL     OW11258   2.917  14.404   3.470
69809SOL    HW111259   2.908  14.404   3.566
69809SOL    HW211260   2.854  14.469   3.441
69810SOL     OW11261  12.481   8.961   6.625
69810SOL    HW111262  12.565   8.998   6.653
69810SOL    HW211263  12.427   8.960   6.704
69811SOL     OW11264  10.554   6.137   2.670
69811SOL    HW111265  10.518   6.224   2.688
69811SOL    HW211266  10.592   6.109   2.754
69812SOL     OW11267  12.210   2.116   1.943
69812SOL    HW111268  12.273   2.181   1.913
69812SOL    HW211269  12.139   2.167   1.981
69813SOL     OW11270   5.918  12.745   3.107
69813SOL    HW111271   5.891  12.670   3.053
69813SOL    HW211272   5.985  12.710   3.165
69814SOL     OW11273   9.069   3.920   2.909
69814SOL    HW111274   9.084   3.932   2.815
69814SOL    HW211275   9.145   3.869   2.939
69815SOL     OW11276  14.113   4.313   2.688
69815SOL    HW111277  14.161   4.239   2.724
69815SOL    HW211278  14.067   4.276   2.612
69816SOL     OW11279   2.609   4.361  14.033
69816SOL    HW111280   2.660   4.396  14.106
69816SOL    HW211281   2.539   4.310  14.076
69817SOL     OW11282  12.367   1.498  11.507
69817SOL    HW111283  12.361   1.593  11.510
69817SOL    HW211284  12.458   1.478  11.530
69818SOL     OW11285  12.566   2.822   8.804
69818SOL    HW111286  12.606   2.783   8.882
69818SOL    HW211287  12.504   2.887   8.839
69819SOL     OW11288   9.029   2.559   4.288
69819SOL    HW111289   8.992   2.482   4.244
69819SOL    HW211290   9.105   2.525   4.334
69820SOL     OW11291   1.307   1.125  11.241
69820SOL    HW111292   1.241   1.160  11.181
69820SOL    HW211293   1.291   1.030  11.240
69821SOL     OW11294   6.261   1.665   1.364
69821SOL    HW111295   6.242   1.739   1.307
69821SOL    HW211296   6.241   1.588   1.311
69822SOL     OW11297   4.024   1.043   3.618
69822SOL    HW111298   3.970   1.085   3.685
69822SOL    HW211299   4.114   1.058   3.646
69823SOL     OW11300  13.358   1.565  13.931
69823SOL    HW111301  13.349   1.573  13.836
69823SOL    HW211302  13.282   1.610  13.967
69824SOL     OW11303   2.613  12.565   8.071
69824SOL    HW111304   2.586  12.602   7.987
69824SOL    HW211305   2.567  12.618   8.136
69825SOL     OW11306   9.363   2.824   4.020
69825SOL    HW111307   9.442   2.837   4.073
69825SOL    HW211308   9.338   2.733   4.036
69826SOL     OW11309  12.291   3.893   3.959
69826SOL    HW111310  12.314   3.810   4.000
69826SOL    HW211311  12.287   3.875   3.866
69827SOL     OW11312   4.301  13.832   8.898
69827SOL    HW111313   4.322  13.926   8.893
69827SOL    HW211314   4.383  13.788   8.876
69828SOL     OW11315   6.997  12.311   5.737
69828SOL    HW111316   7.073  12.291   5.682
69828SOL    HW211317   7.011  12.402   5.764
69829SOL     OW11318   6.969   1.663  11.770
69829SOL    HW111319   6.993   1.628  11.855
69829SOL    HW211320   7.052   1.682  11.727
69830SOL     OW11321  11.785  10.524   5.841
69830SOL    HW111322  11.880  10.536   5.835
69830SOL    HW211323  11.769  10.502   5.933
69831SOL     OW11324  11.161   2.715   9.423
69831SOL    HW111325  11.135   2.696   9.332
69831SOL    HW211326  11.221   2.788   9.416
69832SOL     OW11327  12.028   5.108   3.047
69832SOL    HW111328  12.054   5.033   2.994
69832SOL    HW211329  11.932   5.110   3.038
69833SOL     OW11330   3.810  10.647   2.703
69833SOL    HW111331   3.893  10.608   2.727
69833SOL    HW211332   3.807  10.641   2.607
69834SOL     OW11333   0.629  13.051   4.774
69834SOL    HW111334   0.641  12.956   4.766
69834SOL    HW211335   0.652  13.085   4.688
69835SOL     OW11336   6.115   2.034  13.204
69835SOL    HW111337   6.086   2.112  13.157
69835SOL    HW211338   6.089   1.961  13.147
69836SOL     OW11339   3.481   8.365   6.529
69836SOL    HW111340   3.544   8.402   6.468
69836SOL    HW211341   3.534   8.317   6.593
69837SOL     OW11342  13.235   4.394   0.583
69837SOL    HW111343  13.301   4.440   0.530
69837SOL    HW211344  13.165   4.372   0.521
69838SOL     OW11345  11.619   1.314   1.769
69838SOL    HW111346  11.543   1.259   1.750
69838SOL    HW211347  11.651   1.341   1.683
69839SOL     OW11348   9.784   0.782   9.504
69839SOL    HW111349   9.701   0.819   9.474
69839SOL    HW211350   9.816   0.733   9.428
69840SOL     OW11351  12.298  10.668   7.628
69840SOL    HW111352  12.206  10.672   7.654
69840SOL    HW211353  12.321  10.758   7.606
69841SOL     OW11354  11.470   0.475  11.228
69841SOL    HW111355  11.441   0.563  11.207
69841SOL    HW211356  11.389   0.425  11.240
69842SOL     OW11357   6.717   0.694  10.521
69842SOL    HW111358   6.673   0.636  10.582
69842SOL    HW211359   6.704   0.782  10.557
69843SOL     OW11360   1.549  14.309   4.073
69843SOL    HW111361   1.561  14.215   4.058
69843SOL    HW211362   1.458  14.318   4.101
69844SOL     OW11363  14.783   9.720   4.724
69844SOL    HW111364  14.862   9.667   4.723
69844SOL    HW211365  14.809   9.801   4.769
69845SOL     OW11366  14.792   8.649  13.336
69845SOL    HW111367   0.010   8.632  13.325
69845SOL    HW211368  14.783   8.744  13.324
69846SOL     OW11369  10.206   7.147  11.491
69846SOL    HW111370  10.247   7.156  11.404
69846SOL    HW211371  10.146   7.073  11.481
69847SOL     OW11372   4.467   0.720   5.926
69847SOL    HW111373   4.376   0.694   5.910
69847SOL    HW211374   4.515   0.637   5.933
69848SOL     OW11375   6.054  11.041  12.212
69848SOL    HW111376   5.973  11.058  12.260
69848SOL    HW211377   6.058  10.945  12.207
69849SOL     OW11378  14.132  10.208   1.580
69849SOL    HW111379  14.205  10.243   1.632
69849SOL    HW211380  14.163  10.212   1.489
69850SOL     OW11381  11.403   8.452   4.123
69850SOL    HW111382  11.415   8.518   4.192
69850SOL    HW211383  11.437   8.371   4.161
69851SOL     OW11384   2.484   4.554  10.304
69851SOL    HW111385   2.573   4.580  10.281
69851SOL    HW211386   2.444   4.531  10.220
69852SOL     OW11387   0.573   9.644   9.852
69852SOL    HW111388   0.624   9.687   9.783
69852SOL    HW211389   0.606   9.554   9.853
69853SOL     OW11390   5.748   1.959   6.965
69853SOL    HW111391   5.653   1.970   6.972
69853SOL    HW211392   5.760   1.883   6.908
69854SOL     OW11393   5.604  10.785   7.033
69854SOL    HW111394   5.651  10.757   6.955
69854SOL    HW211395   5.524  10.826   6.999
69855SOL     OW11396   2.792   2.415   1.225
69855SOL    HW111397   2.718   2.461   1.187
69855SOL    HW211398   2.838   2.481   1.277
69856SOL     OW11399   7.882  13.130   5.406
69856SOL    HW111400   7.959  13.159   5.455
69856SOL    HW211401   7.863  13.043   5.441
69857SOL     OW11402  11.578  13.042   6.826
69857SOL    HW111403  11.646  12.977   6.814
69857SOL    HW211404  11.497  13.000   6.796
69858SOL     OW11405  14.409  12.199   2.256
69858SOL    HW111406  14.362  12.146   2.192
69858SOL    HW211407  14.500  12.199   2.225
69859SOL     OW11408  14.586  13.292  13.382
69859SOL    HW111409  14.567  13.338  13.464
69859SOL    HW211410  14.678  13.268  13.389
69860SOL     OW11411   5.863   6.978   2.723
69860SOL    HW111412   5.784   6.997   2.672
69860SOL    HW211413   5.933   6.972   2.657
69861SOL     OW11414   0.802   4.030  11.997
69861SOL    HW111415   0.750   3.972  11.941
69861SOL    HW211416   0.762   4.022  12.083
69862SOL     OW11417   2.575   8.665  13.882
69862SOL    HW111418   2.504   8.689  13.942
69862SOL    HW211419   2.533   8.610  13.816
69863SOL     OW11420   9.676   3.283   9.191
69863SOL    HW111421   9.745   3.263   9.253
69863SOL    HW211422   9.600   3.304   9.245
69864SOL     OW11423   1.295  14.782   3.524
69864SOL    HW111424   1.251  14.809   3.444
69864SOL    HW211425   1.270  14.691   3.536
69865SOL     OW11426  11.690   2.781   4.900
69865SOL    HW111427  11.615   2.831   4.866
69865SOL    HW211428  11.693   2.703   4.844
69866SOL     OW11429  13.288  10.846  14.593
69866SOL    HW111430  13.315  10.907  14.524
69866SOL    HW211431  13.198  10.822  14.571
69867SOL     OW11432  12.977   5.957   5.605
69867SOL    HW111433  12.980   6.053   5.604
69867SOL    HW211434  12.967   5.935   5.698
69868SOL     OW11435   1.004   3.427   4.232
69868SOL    HW111436   0.972   3.344   4.198
69868SOL    HW211437   0.928   3.485   4.229
69869SOL     OW11438  12.584  13.091  14.214
69869SOL    HW111439  12.489  13.084  14.217
69869SOL    HW211440  12.603  13.184  14.227
69870SOL     OW11441  12.249   0.693  10.745
69870SOL    HW111442  12.322   0.712  10.686
69870SOL    HW211443  12.247   0.597  10.750
69871SOL     OW11444   4.636   8.270  10.554
69871SOL    HW111445   4.578   8.194  10.546
69871SOL    HW211446   4.658   8.275  10.647
69872SOL     OW11447  14.098  14.207   4.286
69872SOL    HW111448  14.024  14.266   4.300
69872SOL    HW211449  14.132  14.190   4.374
69873SOL     OW11450   3.144   7.308   6.999
69873SOL    HW111451   3.212   7.308   6.931
69873SOL    HW211452   3.176   7.370   7.065
69874SOL     OW11453   6.042  13.568   4.777
69874SOL    HW111454   6.077  13.625   4.844
69874SOL    HW211455   6.119  13.535   4.730
69875SOL     OW11456   9.201   8.769  13.406
69875SOL    HW111457   9.144   8.712  13.458
69875SOL    HW211458   9.163   8.767  13.318
69876SOL     OW11459   1.786   6.950  14.588
69876SOL    HW111460   1.882   6.949  14.597
69876SOL    HW211461   1.771   6.941  14.494
69877SOL     OW11462   9.565   7.214   5.048
69877SOL    HW111463   9.483   7.227   5.095
69877SOL    HW211464   9.577   7.119   5.045
69878SOL     OW11465  14.726   2.894   2.697
69878SOL    HW111466  14.742   2.973   2.749
69878SOL    HW211467  14.670   2.840   2.753
69879SOL     OW11468   0.851  13.648   8.358
69879SOL    HW111469   0.856  13.561   8.397
69879SOL    HW211470   0.938  13.665   8.322
69880SOL     OW11471  12.760   6.632   6.906
69880SOL    HW111472  12.818   6.699   6.869
69880SOL    HW211473  12.707   6.679   6.970
69881SOL     OW11474   1.986  12.775   0.154
69881SOL    HW111475   1.988  12.702   0.092
69881SOL    HW211476   1.979  12.734   0.240
69882SOL     OW11477   1.597   2.122   5.227
69882SOL    HW111478   1.518   2.071   5.247
69882SOL    HW211479   1.571   2.179   5.155
69883SOL     OW11480  10.462  11.312   1.229
69883SOL    HW111481  10.374  11.281   1.250
69883SOL    HW211482  10.478  11.280   1.140
69884SOL     OW11483   6.789   1.239   0.574
69884SOL    HW111484   6.822   1.150   0.558
69884SOL    HW211485   6.771   1.240   0.668
69885SOL     OW11486   9.873   2.314  11.332
69885SOL    HW111487   9.902   2.363  11.409
69885SOL    HW211488   9.778   2.328  11.329
69886SOL     OW11489   4.343   4.200  13.552
69886SOL    HW111490   4.279   4.153  13.498
69886SOL    HW211491   4.336   4.291  13.524
69887SOL     OW11492  11.711  12.947   1.788
69887SOL    HW111493  11.783  12.948   1.852
69887SOL    HW211494  11.656  12.874   1.815
69888SOL     OW11495   3.968   1.895  10.607
69888SOL    HW111496   3.906   1.904  10.535
69888SOL    HW211497   4.054   1.915  10.568
69889SOL     OW11498   6.349   1.678   9.789
69889SOL    HW111499   6.343   1.737   9.714
69889SOL    HW211500   6.276   1.617   9.779
69890SOL     OW11501  14.649  12.388   7.571
69890SOL    HW111502  14.662  12.469   7.620
69890SOL    HW211503  14.707  12.325   7.614
69891SOL     OW11504  14.251  10.726  10.734
69891SOL    HW111505  14.335  10.714  10.780
69891SOL    HW211506  14.192  10.664  10.777
69892SOL     OW11507   1.197  14.814   3.265
69892SOL    HW111508   1.152  14.759   3.201
69892SOL    HW211509   1.256  14.868   3.212
69893SOL     OW11510   3.027   4.408   3.497
69893SOL    HW111511   2.937   4.441   3.494
69893SOL    HW211512   3.030   4.349   3.572
69894SOL     OW11513   2.314   4.530   4.569
69894SOL    HW111514   2.240   4.514   4.510
69894SOL    HW211515   2.367   4.450   4.563
69895SOL     OW11516  13.682  14.335  10.057
69895SOL    HW111517  13.651  14.362  10.143
69895SOL    HW211518  13.768  14.298  10.074
69896SOL     OW11519   1.195   2.178  10.984
69896SOL    HW111520   1.203   2.270  10.958
69896SOL    HW211521   1.180   2.181  11.079
69897SOL     OW11522   9.895   1.575  11.305
69897SOL    HW111523   9.942   1.654  11.278
69897SOL    HW211524   9.904   1.573  11.400
69898SOL     OW11525   6.982  14.496  13.550
69898SOL    HW111526   7.037  14.574  13.544
69898SOL    HW211527   6.899  14.527  13.585
69899SOL     OW11528   8.127   3.994  14.506
69899SOL    HW111529   8.076   3.948  14.438
69899SOL    HW211530   8.141   3.928  14.574
69900SOL     OW11531   3.925   1.223   3.837
69900SOL    HW111532   3.876   1.218   3.919
69900SOL    HW211533   4.017   1.224   3.864
69901SOL     OW11534   5.506  10.059  13.068
69901SOL    HW111535   5.527  10.054  12.975
69901SOL    HW211536   5.591  10.058  13.112
69902SOL     OW11537   3.557   8.915  12.288
69902SOL    HW111538   3.609   8.977  12.341
69902SOL    HW211539   3.618   8.886  12.220
69903SOL     OW11540   1.749  11.794  10.857
69903SOL    HW111541   1.832  11.830  10.889
69903SOL    HW211542   1.772  11.706  10.827
69904SOL     OW11543   1.878  10.381  10.386
69904SOL    HW111544   1.863  10.449  10.452
69904SOL    HW211545   1.862  10.299  10.433
69905SOL     OW11546   1.712   2.595   4.879
69905SOL    HW111547   1.668   2.663   4.828
69905SOL    HW211548   1.796   2.634   4.903
69906SOL     OW11549   7.912   5.766  13.545
69906SOL    HW111550   7.957   5.817  13.477
69906SOL    HW211551   7.908   5.825  13.620
69907SOL     OW11552  12.614  13.881   2.978
69907SOL    HW111553  12.521  13.895   2.956
69907SOL    HW211554  12.640  13.807   2.923
69908SOL     OW11555   5.612   5.303   1.452
69908SOL    HW111556   5.654   5.227   1.492
69908SOL    HW211557   5.615   5.371   1.519
69909SOL     OW11558   2.184   2.013   2.210
69909SOL    HW111559   2.204   1.925   2.181
69909SOL    HW211560   2.167   2.062   2.130
69910SOL     OW11561   2.504   9.053   7.133
69910SOL    HW111562   2.583   9.075   7.084
69910SOL    HW211563   2.454   9.135   7.136
69911SOL     OW11564   6.138  10.906   7.240
69911SOL    HW111565   6.189  10.881   7.317
69911SOL    HW211566   6.131  10.825   7.189
69912SOL     OW11567   2.309  11.557   9.372
69912SOL    HW111568   2.354  11.587   9.293
69912SOL    HW211569   2.378  11.549   9.437
69913SOL     OW11570  13.622   7.158   1.900
69913SOL    HW111571  13.683   7.097   1.858
69913SOL    HW211572  13.668   7.187   1.979
69914SOL     OW11573  13.734   6.813  11.845
69914SOL    HW111574  13.757   6.720  11.854
69914SOL    HW211575  13.790   6.858  11.907
69915SOL     OW11576  11.242   0.742   6.851
69915SOL    HW111577  11.231   0.820   6.906
69915SOL    HW211578  11.315   0.764   6.793
69916SOL     OW11579   3.011   9.028  14.004
69916SOL    HW111580   3.087   8.975  13.976
69916SOL    HW211581   3.003   9.095  13.937
69917SOL     OW11582  11.851  10.526   0.568
69917SOL    HW111583  11.901  10.531   0.486
69917SOL    HW211584  11.806  10.611   0.574
69918SOL     OW11585   2.051   9.426   9.138
69918SOL    HW111586   1.984   9.387   9.193
69918SOL    HW211587   2.112   9.354   9.119
69919SOL     OW11588   7.789   1.398  13.668
69919SOL    HW111589   7.823   1.484  13.696
69919SOL    HW211590   7.806   1.395  13.574
69920SOL     OW11591   3.615  12.879  10.755
69920SOL    HW111592   3.633  12.787  10.738
69920SOL    HW211593   3.528  12.894  10.717
69921SOL     OW11594   5.849   7.240   2.830
69921SOL    HW111595   5.758   7.268   2.820
69921SOL    HW211596   5.846   7.145   2.818
69922SOL     OW11597   0.206  11.914   1.743
69922SOL    HW111598   0.151  11.841   1.772
69922SOL    HW211599   0.242  11.884   1.659
69923SOL     OW11600  11.918  10.497   1.952
69923SOL    HW111601  12.000  10.462   1.917
69923SOL    HW211602  11.934  10.591   1.961
69924SOL     OW11603  12.129   0.646   9.231
69924SOL    HW111604  12.165   0.653   9.143
69924SOL    HW211605  12.035   0.632   9.218
69925SOL     OW11606  12.358  10.293  12.135
69925SOL    HW111607  12.411  10.335  12.203
69925SOL    HW211608  12.348  10.203  12.164
69926SOL     OW11609   7.819  13.534   3.050
69926SOL    HW111610   7.733  13.498   3.028
69926SOL    HW211611   7.853  13.475   3.117
69927SOL     OW11612  12.818   4.778   3.549
69927SOL    HW111613  12.856   4.731   3.474
69927SOL    HW211614  12.731   4.741   3.560
69928SOL     OW11615  13.135  14.350   5.178
69928SOL    HW111616  13.217  14.399   5.185
69928SOL    HW211617  13.091  14.388   5.103
69929SOL     OW11618   5.933   6.918  13.584
69929SOL    HW111619   6.024   6.945  13.593
69929SOL    HW211620   5.901   6.910  13.674
69930SOL     OW11621  14.307  13.787  14.204
69930SOL    HW111622  14.212  13.795  14.198
69930SOL    HW211623  14.335  13.865  14.252
69931SOL     OW11624   3.293   6.102   3.680
69931SOL    HW111625   3.219   6.074   3.733
69931SOL    HW211626   3.319   6.024   3.632
69932SOL     OW11627  13.413   9.863   2.851
69932SOL    HW111628  13.424   9.847   2.758
69932SOL    HW211629  13.318   9.863   2.865
69933SOL     OW11630   0.218   4.304   1.799
69933SOL    HW111631   0.223   4.385   1.851
69933SOL    HW211632   0.129   4.303   1.765
69934SOL     OW11633   9.249   3.305   1.084
69934SOL    HW111634   9.264   3.398   1.069
69934SOL    HW211635   9.271   3.263   1.001
69935SOL     OW11636   0.765   0.675   1.771
69935SOL    HW111637   0.824   0.604   1.798
69935SOL    HW211638   0.747   0.723   1.851
69936SOL     OW11639   2.927   9.133   5.158
69936SOL    HW111640   2.886   9.174   5.234
69936SOL    HW211641   3.004   9.088   5.194
69937SOL     OW11642   8.816   2.897  13.149
69937SOL    HW111643   8.722   2.881  13.137
69937SOL    HW211644   8.858   2.839  13.086
69938SOL     OW11645   4.404  12.139   2.911
69938SOL    HW111646   4.389  12.120   2.818
69938SOL    HW211647   4.455  12.064   2.943
69939SOL     OW11648   8.797   8.057   0.905
69939SOL    HW111649   8.783   8.115   0.830
69939SOL    HW211650   8.844   8.111   0.969
69940SOL     OW11651   5.218   2.948   2.400
69940SOL    HW111652   5.158   2.893   2.350
69940SOL    HW211653   5.261   3.003   2.335
69941SOL     OW11654   2.576  10.315  11.003
69941SOL    HW111655   2.520  10.265  11.062
69941SOL    HW211656   2.656  10.263  10.996
69942SOL     OW11657   9.420  13.841   1.779
69942SOL    HW111658   9.433  13.936   1.771
69942SOL    HW211659   9.438  13.822   1.871
69943SOL     OW11660  11.663   7.105   8.277
69943SOL    HW111661  11.692   7.170   8.340
69943SOL    HW211662  11.649   7.025   8.329
69944SOL     OW11663   7.098  14.470  13.024
69944SOL    HW111664   7.110  14.565  13.027
69944SOL    HW211665   7.112  14.448  12.931
69945SOL     OW11666   8.581  11.993   1.939
69945SOL    HW111667   8.533  11.911   1.951
69945SOL    HW211668   8.568  12.016   1.847
69946SOL     OW11669   9.530   7.122   8.897
69946SOL    HW111670   9.503   7.072   8.974
69946SOL    HW211671   9.465   7.192   8.889
69947SOL     OW11672   1.270   5.471   4.442
69947SOL    HW111673   1.325   5.413   4.494
69947SOL    HW211674   1.269   5.554   4.491
69948SOL     OW11675  11.983  12.320  12.570
69948SOL    HW111676  12.051  12.276  12.621
69948SOL    HW211677  11.948  12.387  12.629
69949SOL     OW11678  13.179   4.231  12.769
69949SOL    HW111679  13.135   4.146  12.768
69949SOL    HW211680  13.155   4.271  12.686
69950SOL     OW11681  13.306  11.446   4.522
69950SOL    HW111682  13.260  11.428   4.604
69950SOL    HW211683  13.399  11.438   4.544
69951SOL     OW11684   9.323  10.583   4.077
69951SOL    HW111685   9.405  10.577   4.027
69951SOL    HW211686   9.272  10.508   4.049
69952SOL     OW11687  12.197   8.343  10.555
69952SOL    HW111688  12.221   8.252  10.570
69952SOL    HW211689  12.257   8.393  10.610
69953SOL     OW11690   5.851   8.226  13.135
69953SOL    HW111691   5.790   8.265  13.198
69953SOL    HW211692   5.795   8.196  13.063
69954SOL     OW11693   0.041   2.991   3.422
69954SOL    HW111694   0.092   2.965   3.346
69954SOL    HW211695  14.854   2.920   3.434
69955SOL     OW11696  14.042   9.767  12.333
69955SOL    HW111697  14.114   9.800  12.280
69955SOL    HW211698  13.965   9.776  12.276
69956SOL     OW11699  11.743   7.046  12.772
69956SOL    HW111700  11.650   7.031  12.788
69956SOL    HW211701  11.769   6.977  12.711
69957SOL     OW11702   2.587   7.632   2.366
69957SOL    HW111703   2.512   7.689   2.380
69957SOL    HW211704   2.553   7.558   2.316
69958SOL     OW11705  13.152   5.480   9.913
69958SOL    HW111706  13.180   5.420   9.844
69958SOL    HW211707  13.171   5.433   9.994
69959SOL     OW11708   2.512  12.453   7.426
69959SOL    HW111709   2.551  12.540   7.433
69959SOL    HW211710   2.498  12.440   7.332
69960SOL     OW11711   0.447   8.441   2.227
69960SOL    HW111712   0.407   8.368   2.274
69960SOL    HW211713   0.541   8.423   2.229
69961SOL     OW11714  11.074  13.115   3.467
69961SOL    HW111715  11.015  13.188   3.482
69961SOL    HW211716  11.018  13.037   3.468
69962SOL     OW11717  10.882  12.234   3.405
69962SOL    HW111718  10.924  12.153   3.435
69962SOL    HW211719  10.909  12.242   3.314
69963SOL     OW11720   6.797   2.172   2.387
69963SOL    HW111721   6.799   2.079   2.364
69963SOL    HW211722   6.873   2.209   2.343
69964SOL     OW11723  12.967   1.763   4.693
69964SOL    HW111724  13.041   1.711   4.660
69964SOL    HW211725  12.954   1.731   4.782
69965SOL     OW11726   3.506   4.687  14.425
69965SOL    HW111727   3.513   4.780  14.447
69965SOL    HW211728   3.562   4.644  14.489
69966SOL     OW11729  13.075   1.517   4.021
69966SOL    HW111730  13.159   1.478   3.998
69966SOL    HW211731  13.071   1.599   3.970
69967SOL     OW11732  13.726   4.049  12.809
69967SOL    HW111733  13.819   4.042  12.830
69967SOL    HW211734  13.706   3.969  12.759
69968SOL     OW11735   5.787   7.334   5.369
69968SOL    HW111736   5.850   7.282   5.318
69968SOL    HW211737   5.840   7.376   5.436
69969SOL     OW11738   6.377   4.787   8.294
69969SOL    HW111739   6.338   4.710   8.252
69969SOL    HW211740   6.352   4.860   8.237
69970SOL     OW11741   9.999   4.303   8.412
69970SOL    HW111742   9.921   4.296   8.468
69970SOL    HW211743   9.973   4.365   8.344
69971SOL     OW11744  13.463  10.911   5.411
69971SOL    HW111745  13.375  10.887   5.381
69971SOL    HW211746  13.519  10.895   5.335
69972SOL     OW11747   3.029   3.579  10.934
69972SOL    HW111748   2.994   3.590  10.846
69972SOL    HW211749   2.971   3.631  10.990
69973SOL     OW11750   4.015   0.922   9.290
69973SOL    HW111751   4.062   0.951   9.368
69973SOL    HW211752   3.942   0.870   9.324
69974SOL     OW11753  12.875  12.529   1.542
69974SOL    HW111754  12.780  12.519   1.549
69974SOL    HW211755  12.910  12.454   1.589
69975SOL     OW11756   8.842  12.257  13.376
69975SOL    HW111757   8.916  12.319  13.376
69975SOL    HW211758   8.766  12.311  13.355
69976SOL     OW11759   1.490   6.182   9.861
69976SOL    HW111760   1.404   6.224   9.862
69976SOL    HW211761   1.492   6.131   9.943
69977SOL     OW11762   1.850  11.500   4.263
69977SOL    HW111763   1.756  11.517   4.251
69977SOL    HW211764   1.853  11.432   4.331
69978SOL     OW11765   4.151  11.184  11.988
69978SOL    HW111766   4.116  11.156  11.903
69978SOL    HW211767   4.217  11.118  12.009
69979SOL     OW11768  12.213  14.708  14.490
69979SOL    HW111769  12.158  14.777  14.526
69979SOL    HW211770  12.161  14.672  14.418
69980SOL     OW11771  13.519   7.808   2.197
69980SOL    HW111772  13.492   7.800   2.106
69980SOL    HW211773  13.590   7.744   2.207
69981SOL     OW11774  10.160   2.386  12.365
69981SOL    HW111775  10.192   2.296  12.357
69981SOL    HW211776  10.155   2.418  12.274
69982SOL     OW11777   9.928  12.122   1.299
69982SOL    HW111778   9.986  12.142   1.372
69982SOL    HW211779   9.844  12.161   1.323
69983SOL     OW11780   4.628   0.657   2.994
69983SOL    HW111781   4.628   0.651   3.090
69983SOL    HW211782   4.535   0.658   2.970
69984SOL     OW11783   7.915   8.483   7.218
69984SOL    HW111784   7.838   8.451   7.266
69984SOL    HW211785   7.962   8.537   7.282
69985SOL     OW11786   9.697   1.071   0.153
69985SOL    HW111787   9.652   1.075   0.238
69985SOL    HW211788   9.720   1.162   0.134
69986SOL     OW11789   5.246   9.335   3.932
69986SOL    HW111790   5.286   9.420   3.912
69986SOL    HW211791   5.242   9.333   4.028
69987SOL     OW11792   5.598   0.052  13.046
69987SOL    HW111793   5.532   0.033  13.113
69987SOL    HW211794   5.675   0.080  13.095
69988SOL     OW11795   8.530   2.620  10.258
69988SOL    HW111796   8.625   2.620  10.244
69988SOL    HW211797   8.499   2.543  10.211
69989SOL     OW11798  11.899   8.239   2.425
69989SOL    HW111799  11.956   8.310   2.453
69989SOL    HW211800  11.831   8.281   2.373
69990SOL     OW11801   3.944  12.949  13.715
69990SOL    HW111802   3.912  12.911  13.796
69990SOL    HW211803   3.865  12.980  13.670
69991SOL     OW11804   5.505   0.307   8.196
69991SOL    HW111805   5.470   0.325   8.109
69991SOL    HW211806   5.509   0.392   8.239
69992SOL     OW11807  14.308   5.811   8.695
69992SOL    HW111808  14.283   5.888   8.746
69992SOL    HW211809  14.404   5.815   8.691
69993SOL     OW11810   8.592   6.165   1.091
69993SOL    HW111811   8.573   6.137   1.181
69993SOL    HW211812   8.555   6.095   1.037
69994SOL     OW11813   8.580  14.218  14.544
69994SOL    HW111814   8.519  14.292  14.535
69994SOL    HW211815   8.561  14.163  14.468
69995SOL     OW11816   9.089   0.997  11.965
69995SOL    HW111817   9.134   1.054  12.026
69995SOL    HW211818   9.046   0.932  12.021
69996SOL     OW11819   2.163   3.439  12.353
69996SOL    HW111820   2.160   3.343  12.357
69996SOL    HW211821   2.122   3.468  12.435
69997SOL     OW11822   7.830   3.762   5.475
69997SOL    HW111823   7.829   3.758   5.379
69997SOL    HW211824   7.844   3.855   5.494
69998SOL     OW11825   4.545   9.980   9.564
69998SOL    HW111826   4.534  10.060   9.615
69998SOL    HW211827   4.635   9.984   9.531
69999SOL     OW11828   0.780  13.343   5.630
69999SOL    HW111829   0.818  13.284   5.695
69999SOL    HW211830   0.707  13.385   5.676
70000SOL     OW11831  14.830   2.639   0.139
70000SOL    HW111832   0.002   2.635   0.057
70000SOL    HW211833  14.740   2.615   0.116
70001SOL     OW11834  10.012  11.437  14.391
70001SOL    HW111835   9.941  11.473  14.443
70001SOL    HW211836  10.020  11.346  14.420
70002SOL     OW11837   7.396   2.135  11.306
70002SOL    HW111838   7.320   2.126  11.363
70002SOL    HW211839   7.378   2.077  11.232
70003SOL     OW11840   5.668   1.183   0.333
70003SOL    HW111841   5.640   1.242   0.404
70003SOL    HW211842   5.632   1.224   0.254
70004SOL     OW11843   2.015   5.284   0.627
70004SOL    HW111844   2.076   5.355   0.605
70004SOL    HW211845   1.956   5.322   0.692
70005SOL     OW11846   1.653  11.188   3.339
70005SOL    HW111847   1.606  11.234   3.409
70005SOL    HW211848   1.627  11.234   3.259
70006SOL     OW11849   8.301  12.577   9.818
70006SOL    HW111850   8.379  12.530   9.788
70006SOL    HW211851   8.311  12.665   9.782
70007SOL     OW11852   7.907  10.278   8.901
70007SOL    HW111853   7.933  10.207   8.960
70007SOL    HW211854   7.828  10.314   8.940
70008SOL     OW11855   1.966   0.600  13.617
70008SOL    HW111856   1.913   0.640  13.548
70008SOL    HW211857   2.048   0.649  13.615
70009SOL     OW11858   2.706  10.970   8.006
70009SOL    HW111859   2.633  10.989   7.947
70009SOL    HW211860   2.776  11.029   7.978
70010SOL     OW11861   6.151   4.802  10.895
70010SOL    HW111862   6.176   4.734  10.833
70010SOL    HW211863   6.121   4.753  10.972
70011SOL     OW11864  10.394  10.097   3.429
70011SOL    HW111865  10.407  10.150   3.508
70011SOL    HW211866  10.412  10.157   3.357
70012SOL     OW11867  12.531   0.608   2.970
70012SOL    HW111868  12.623   0.634   2.964
70012SOL    HW211869  12.528   0.520   2.934
70013SOL     OW11870  14.007   7.093  13.703
70013SOL    HW111871  14.103   7.089  13.695
70013SOL    HW211872  13.974   7.051  13.625
70014SOL     OW11873   6.252   5.052   8.675
70014SOL    HW111874   6.331   4.999   8.687
70014SOL    HW211875   6.278   5.120   8.612
70015SOL     OW11876  11.702   1.702  13.282
70015SOL    HW111877  11.788   1.688  13.243
70015SOL    HW211878  11.654   1.752  13.216
70016SOL     OW11879  10.269  11.349   6.759
70016SOL    HW111880  10.230  11.414   6.701
70016SOL    HW211881  10.197  11.319   6.814
70017SOL     OW11882   5.247  12.685   5.861
70017SOL    HW111883   5.274  12.770   5.827
70017SOL    HW211884   5.318  12.625   5.836
70018SOL     OW11885  11.976   8.202  12.482
70018SOL    HW111886  12.040   8.262  12.521
70018SOL    HW211887  11.914   8.184  12.552
70019SOL     OW11888  10.557  11.190   9.824
70019SOL    HW111889  10.471  11.151   9.809
70019SOL    HW211890  10.541  11.284   9.826
70020SOL     OW11891   0.694   4.638   2.723
70020SOL    HW111892   0.681   4.589   2.642
70020SOL    HW211893   0.673   4.575   2.792
70021SOL     OW11894   2.165   1.181   3.875
70021SOL    HW111895   2.118   1.098   3.881
70021SOL    HW211896   2.209   1.178   3.790
70022SOL     OW11897   0.187   2.016  14.023
70022SOL    HW111898   0.261   1.955  14.021
70022SOL    HW211899   0.226   2.101  14.046
70023SOL     OW11900   4.699   0.042   0.666
70023SOL    HW111901   4.687   0.053   0.760
70023SOL    HW211902   4.645  14.841   0.644
70024SOL     OW11903   0.428   3.709   2.041
70024SOL    HW111904   0.474   3.635   2.081
70024SOL    HW211905   0.492   3.781   2.044
70025SOL     OW11906  11.306   2.793   6.249
70025SOL    HW111907  11.235   2.778   6.187
70025SOL    HW211908  11.264   2.788   6.335
70026SOL     OW11909   9.808   4.519   1.850
70026SOL    HW111910   9.810   4.576   1.773
70026SOL    HW211911   9.889   4.539   1.897
70027SOL     OW11912   4.035   7.094   1.831
70027SOL    HW111913   4.038   7.088   1.927
70027SOL    HW211914   4.125   7.074   1.804
70028SOL     OW11915   3.670  11.450   8.467
70028SOL    HW111916   3.734  11.379   8.461
70028SOL    HW211917   3.716  11.527   8.435
70029SOL     OW11918   6.271  10.806   6.333
70029SOL    HW111919   6.293  10.889   6.374
70029SOL    HW211920   6.300  10.815   6.242
70030SOL     OW11921  10.741  12.114  13.157
70030SOL    HW111922  10.705  12.032  13.191
70030SOL    HW211923  10.699  12.183  13.209
70031SOL     OW11924  13.789  14.788   7.448
70031SOL    HW111925  13.821  14.868   7.490
70031SOL    HW211926  13.756  14.817   7.363
70032SOL     OW11927   9.300  13.892   0.218
70032SOL    HW111928   9.384  13.868   0.178
70032SOL    HW211929   9.318  13.893   0.312
70033SOL     OW11930   4.855   3.014  14.624
70033SOL    HW111931   4.915   3.033  14.552
70033SOL    HW211932   4.910   3.018  14.702
70034SOL     OW11933   1.511   0.403   3.589
70034SOL    HW111934   1.468   0.325   3.623
70034SOL    HW211935   1.505   0.394   3.493
70035SOL     OW11936   3.077  10.367   9.434
70035SOL    HW111937   3.120  10.283   9.416
70035SOL    HW211938   3.098  10.384   9.526
70036SOL     OW11939   5.992   6.887  10.217
70036SOL    HW111940   6.082   6.886  10.252
70036SOL    HW211941   5.937   6.894  10.294
70037SOL     OW11942   1.574   1.308  12.198
70037SOL    HW111943   1.566   1.364  12.275
70037SOL    HW211944   1.663   1.323  12.167
70038SOL     OW11945  13.683   8.409   4.357
70038SOL    HW111946  13.642   8.330   4.323
70038SOL    HW211947  13.721   8.383   4.441
70039SOL     OW11948   7.577  12.584  13.694
70039SOL    HW111949   7.590  12.679  13.695
70039SOL    HW211950   7.482  12.573  13.695
70040SOL     OW11951   7.112   7.265   1.278
70040SOL    HW111952   7.036   7.320   1.298
70040SOL    HW211953   7.075   7.188   1.234
70041SOL     OW11954  13.720   6.526  13.447
70041SOL    HW111955  13.659   6.461  13.481
70041SOL    HW211956  13.766   6.559  13.524
70042SOL     OW11957   0.593   4.920   8.638
70042SOL    HW111958   0.514   4.872   8.613
70042SOL    HW211959   0.619   4.966   8.558
70043SOL     OW11960   9.842   2.238   7.312
70043SOL    HW111961   9.881   2.245   7.399
70043SOL    HW211962   9.914   2.259   7.252
70044SOL     OW11963  12.283   9.146   6.533
70044SOL    HW111964  12.376   9.122   6.538
70044SOL    HW211965  12.270   9.204   6.608
70045SOL     OW11966   2.663  10.350   1.725
70045SOL    HW111967   2.569  10.337   1.735
70045SOL    HW211968   2.672  10.395   1.641
70046SOL     OW11969   5.233  14.190  11.024
70046SOL    HW111970   5.199  14.157  10.940
70046SOL    HW211971   5.167  14.165  11.088
70047SOL     OW11972   4.229   9.149   5.703
70047SOL    HW111973   4.158   9.212   5.718
70047SOL    HW211974   4.244   9.110   5.790
70048SOL     OW11975  13.866   4.460   0.300
70048SOL    HW111976  13.883   4.420   0.215
70048SOL    HW211977  13.929   4.532   0.306
70049SOL     OW11978  14.266   7.765  14.734
70049SOL    HW111979  14.223   7.773  14.819
70049SOL    HW211980  14.232   7.839  14.683
70050SOL     OW11981   2.636  13.618   0.097
70050SOL    HW111982   2.713  13.667   0.066
70050SOL    HW211983   2.601  13.577   0.018
70051SOL     OW11984   3.651  13.497  13.722
70051SOL    HW111985   3.634  13.485  13.815
70051SOL    HW211986   3.711  13.427  13.699
70052SOL     OW11987  14.745   6.568   1.216
70052SOL    HW111988  14.828   6.547   1.258
70052SOL    HW211989  14.729   6.660   1.236
70053SOL     OW11990   2.795  10.829   8.382
70053SOL    HW111991   2.716  10.776   8.397
70053SOL    HW211992   2.858  10.796   8.446
70054SOL     OW11993   5.324  11.429   9.514
70054SOL    HW111994   5.306  11.523   9.505
70054SOL    HW211995   5.419  11.424   9.524
70055SOL     OW11996   9.326  12.452   0.792
70055SOL    HW111997   9.240  12.427   0.827
70055SOL    HW211998   9.379  12.470   0.870
70056SOL     OW11999  13.902   0.467   9.209
70056SOL    HW112000  13.876   0.382   9.244
70056SOL    HW212001  13.831   0.492   9.150
70057SOL     OW12002  12.217   1.978   4.614
70057SOL    HW112003  12.299   1.969   4.564
70057SOL    HW212004  12.245   2.005   4.701
70058SOL     OW12005   3.651  14.644   4.649
70058SOL    HW112006   3.664  14.599   4.565
70058SOL    HW212007   3.561  14.675   4.646
70059SOL     OW12008   6.724   2.837   5.168
70059SOL    HW112009   6.793   2.799   5.114
70059SOL    HW212010   6.666   2.763   5.190
70060SOL     OW12011   4.321   5.753  11.203
70060SOL    HW112012   4.240   5.803  11.215
70060SOL    HW212013   4.316   5.684  11.269
70061SOL     OW12014   2.047   4.078   4.188
70061SOL    HW112015   2.137   4.099   4.213
70061SOL    HW212016   2.009   4.039   4.267
70062SOL     OW12017   6.692   7.874  11.731
70062SOL    HW112018   6.603   7.911  11.737
70062SOL    HW212019   6.724   7.904  11.646
70063SOL     OW12020  13.268  10.234   5.664
70063SOL    HW112021  13.295  10.211   5.575
70063SOL    HW212022  13.330  10.301   5.692
70064SOL     OW12023  13.627  14.813  13.164
70064SOL    HW112024  13.696  14.800  13.099
70064SOL    HW212025  13.546  14.790  13.118
70065SOL     OW12026  13.836   3.865   4.287
70065SOL    HW112027  13.901   3.815   4.336
70065SOL    HW212028  13.766   3.802   4.270
70066SOL     OW12029   0.535  12.009   2.727
70066SOL    HW112030   0.553  11.915   2.730
70066SOL    HW212031   0.613  12.049   2.766
70067SOL     OW12032  10.783   7.449  13.324
70067SOL    HW112033  10.847   7.391  13.284
70067SOL    HW212034  10.835   7.515  13.370
70068SOL     OW12035  12.202   7.127  11.954
70068SOL    HW112036  12.139   7.076  11.904
70068SOL    HW212037  12.211   7.080  12.037
70069SOL     OW12038  12.467   4.998   2.208
70069SOL    HW112039  12.492   4.927   2.268
70069SOL    HW212040  12.385   4.969   2.170
70070SOL     OW12041   1.080  11.508   3.174
70070SOL    HW112042   1.083  11.599   3.201
70070SOL    HW212043   1.144  11.502   3.102
70071SOL     OW12044  10.432   7.670   4.893
70071SOL    HW112045  10.358   7.623   4.855
70071SOL    HW212046  10.447   7.627   4.977
70072SOL     OW12047   3.410   2.292   3.816
70072SOL    HW112048   3.437   2.208   3.853
70072SOL    HW212049   3.406   2.351   3.892
70073SOL     OW12050   4.377   9.034   1.339
70073SOL    HW112051   4.330   9.108   1.379
70073SOL    HW212052   4.315   8.961   1.344
70074SOL     OW12053   0.914   5.869   8.232
70074SOL    HW112054   0.859   5.933   8.188
70074SOL    HW212055   0.947   5.916   8.309
70075SOL     OW12056   0.809   3.447  12.118
70075SOL    HW112057   0.746   3.518  12.121
70075SOL    HW212058   0.827   3.426  12.209
70076SOL     OW12059   8.828  10.447  12.059
70076SOL    HW112060   8.753  10.392  12.039
70076SOL    HW212061   8.832  10.449  12.155
70077SOL     OW12062   2.042   2.895   5.204
70077SOL    HW112063   2.051   2.801   5.220
70077SOL    HW212064   2.075   2.936   5.284
70078SOL     OW12065   4.832   4.824   6.905
70078SOL    HW112066   4.842   4.737   6.943
70078SOL    HW212067   4.795   4.877   6.975
70079SOL     OW12068   3.062   7.967   3.206
70079SOL    HW112069   2.971   7.992   3.191
70079SOL    HW212070   3.102   8.045   3.246
70080SOL     OW12071  11.647   4.037   3.538
70080SOL    HW112072  11.553   4.046   3.550
70080SOL    HW212073  11.672   3.962   3.593
70081SOL     OW12074  14.231  10.668   1.922
70081SOL    HW112075  14.293  10.729   1.962
70081SOL    HW212076  14.160  10.660   1.985
70082SOL     OW12077   1.339   1.608   2.599
70082SOL    HW112078   1.250   1.578   2.616
70082SOL    HW212079   1.373   1.633   2.685
70083SOL     OW12080   9.929  13.144  10.779
70083SOL    HW112081  10.015  13.105  10.764
70083SOL    HW212082   9.920  13.145  10.874
70084SOL     OW12083   3.123   8.846  11.089
70084SOL    HW112084   3.183   8.837  11.163
70084SOL    HW212085   3.127   8.762  11.045
70085SOL     OW12086  13.129   6.884  14.278
70085SOL    HW112087  13.065   6.943  14.237
70085SOL    HW212088  13.186   6.857  14.206
70086SOL     OW12089   5.437   0.480  12.457
70086SOL    HW112090   5.397   0.566  12.466
70086SOL    HW212091   5.432   0.442  12.545
70087SOL     OW12092   7.984   6.612  10.832
70087SOL    HW112093   7.913   6.578  10.888
70087SOL    HW212094   7.951   6.696  10.801
70088SOL     OW12095   1.366  14.695   0.854
70088SOL    HW112096   1.285  14.647   0.840
70088SOL    HW212097   1.346  14.758   0.923
70089SOL     OW12098   7.812  13.441  12.339
70089SOL    HW112099   7.877  13.464  12.272
70089SOL    HW212100   7.810  13.346  12.339
70090SOL     OW12101   4.450   9.326  13.450
70090SOL    HW112102   4.535   9.366  13.430
70090SOL    HW212103   4.459   9.235  13.422
70091SOL     OW12104   0.894   5.035   2.040
70091SOL    HW112105   0.862   5.100   1.977
70091SOL    HW212106   0.969   5.078   2.082
70092SOL     OW12107   0.545  11.129   8.338
70092SOL    HW112108   0.454  11.117   8.363
70092SOL    HW212109   0.543  11.132   8.242
70093SOL     OW12110   2.921  11.567  14.118
70093SOL    HW112111   2.877  11.611  14.191
70093SOL    HW212112   2.861  11.497  14.093
70094SOL     OW12113  11.186   9.261   6.189
70094SOL    HW112114  11.242   9.232   6.116
70094SOL    HW212115  11.101   9.279   6.148
70095SOL     OW12116  14.649   7.320   9.742
70095SOL    HW112117  14.734   7.291   9.775
70095SOL    HW212118  14.613   7.242   9.698
70096SOL     OW12119   9.982   2.615   9.407
70096SOL    HW112120   9.995   2.706   9.380
70096SOL    HW212121   9.889   2.609   9.427
70097SOL     OW12122  10.113   5.783   6.335
70097SOL    HW112123  10.123   5.690   6.356
70097SOL    HW212124  10.021   5.794   6.314
70098SOL     OW12125   3.620  14.671   9.198
70098SOL    HW112126   3.640  14.765   9.199
70098SOL    HW212127   3.536  14.664   9.244
70099SOL     OW12128  12.585   2.138   0.172
70099SOL    HW112129  12.602   2.231   0.155
70099SOL    HW212130  12.559   2.135   0.264
70100SOL     OW12131  14.252  13.079   2.062
70100SOL    HW112132  14.231  13.083   1.969
70100SOL    HW212133  14.343  13.050   2.065
70101SOL     OW12134   3.369   1.967   9.843
70101SOL    HW112135   3.319   1.993   9.921
70101SOL    HW212136   3.366   1.872   9.842
70102SOL     OW12137   0.831   8.281  13.814
70102SOL    HW112138   0.875   8.212  13.863
70102SOL    HW212139   0.856   8.362  13.859
70103SOL     OW12140   8.300   1.194  14.745
70103SOL    HW112141   8.275   1.103  14.761
70103SOL    HW212142   8.279   1.209  14.653
70104SOL     OW12143   9.691   5.512  12.213
70104SOL    HW112144   9.705   5.545  12.302
70104SOL    HW212145   9.777   5.520  12.170
70105SOL     OW12146   8.016   4.767   6.018
70105SOL    HW112147   7.972   4.689   5.986
70105SOL    HW212148   7.970   4.840   5.977
70106SOL     OW12149   6.775   5.970   1.681
70106SOL    HW112150   6.827   5.924   1.747
70106SOL    HW212151   6.690   5.982   1.723
70107SOL     OW12152   4.222   8.925   3.243
70107SOL    HW112153   4.308   8.886   3.258
70107SOL    HW212154   4.185   8.935   3.331
70108SOL     OW12155   2.533   2.728   3.848
70108SOL    HW112156   2.618   2.694   3.820
70108SOL    HW212157   2.518   2.687   3.933
70109SOL     OW12158   1.758   0.628   4.264
70109SOL    HW112159   1.841   0.612   4.308
70109SOL    HW212160   1.706   0.676   4.328
70110SOL     OW12161   7.485  10.231   7.972
70110SOL    HW112162   7.476  10.145   7.932
70110SOL    HW212163   7.458  10.218   8.063
70111SOL     OW12164  14.348  12.970  10.624
70111SOL    HW112165  14.353  12.922  10.541
70111SOL    HW212166  14.289  13.043  10.605
70112SOL     OW12167   0.230   8.369   8.900
70112SOL    HW112168   0.325   8.354   8.894
70112SOL    HW212169   0.209   8.355   8.992
70113SOL     OW12170  13.037   4.997   5.553
70113SOL    HW112171  12.985   5.028   5.478
70113SOL    HW212172  12.982   5.013   5.629
70114SOL     OW12173   9.991  11.916   4.470
70114SOL    HW112174   9.922  11.869   4.425
70114SOL    HW212175   9.995  11.878   4.557
70115SOL     OW12176   2.721  12.647  12.243
70115SOL    HW112177   2.783  12.627  12.173
70115SOL    HW212178   2.758  12.723  12.287
70116SOL     OW12179  10.936   0.455   2.016
70116SOL    HW112180  10.935   0.458   2.111
70116SOL    HW212181  10.902   0.369   1.993
70117SOL     OW12182  13.193  14.362   0.934
70117SOL    HW112183  13.212  14.276   0.896
70117SOL    HW212184  13.098  14.363   0.946
70118SOL     OW12185  12.560  14.345   2.584
70118SOL    HW112186  12.506  14.277   2.543
70118SOL    HW212187  12.501  14.420   2.593
70119SOL     OW12188   5.484  14.171   3.234
70119SOL    HW112189   5.428  14.170   3.157
70119SOL    HW212190   5.563  14.125   3.206
70120SOL     OW12191  10.690   4.404   4.447
70120SOL    HW112192  10.598   4.378   4.447
70120SOL    HW212193  10.687   4.499   4.435
70121SOL     OW12194   6.179  13.790  13.386
70121SOL    HW112195   6.242  13.754  13.324
70121SOL    HW212196   6.200  13.748  13.469
70122SOL     OW12197  13.345  10.799  13.505
70122SOL    HW112198  13.401  10.758  13.571
70122SOL    HW212199  13.257  10.767  13.525
70123SOL     OW12200  12.534   4.857   8.346
70123SOL    HW112201  12.555   4.852   8.253
70123SOL    HW212202  12.490   4.941   8.357
70124SOL     OW12203   8.238   6.533   3.605
70124SOL    HW112204   8.261   6.626   3.607
70124SOL    HW212205   8.202   6.519   3.517
70125SOL     OW12206   9.710   1.540  14.536
70125SOL    HW112207   9.703   1.526  14.442
70125SOL    HW212208   9.623   1.571  14.563
70126SOL     OW12209   2.458  11.580  11.438
70126SOL    HW112210   2.440  11.629  11.518
70126SOL    HW212211   2.461  11.647  11.370
70127SOL     OW12212   5.480   7.465  14.158
70127SOL    HW112213   5.560   7.482  14.108
70127SOL    HW212214   5.493   7.511  14.241
70128SOL     OW12215  12.806  14.833   2.688
70128SOL    HW112216  12.758  14.808   2.767
70128SOL    HW212217  12.782  14.767   2.623
70129SOL     OW12218   0.383   9.969   5.981
70129SOL    HW112219   0.475   9.990   5.991
70129SOL    HW212220   0.344  10.046   5.940
70130SOL     OW12221  12.663   8.465  12.054
70130SOL    HW112222  12.573   8.473  12.087
70130SOL    HW212223  12.666   8.526  11.980
70131SOL     OW12224   2.865   9.949   7.802
70131SOL    HW112225   2.854  10.043   7.792
70131SOL    HW212226   2.838   9.913   7.717
70132SOL     OW12227  12.866   3.916   6.572
70132SOL    HW112228  12.913   3.936   6.653
70132SOL    HW212229  12.797   3.982   6.567
70133SOL     OW12230  13.186   5.314   0.528
70133SOL    HW112231  13.225   5.400   0.546
70133SOL    HW212232  13.097   5.321   0.563
70134SOL     OW12233   2.213   8.878   8.087
70134SOL    HW112234   2.204   8.851   7.996
70134SOL    HW212235   2.307   8.876   8.104
70135SOL     OW12236  13.504   7.622  10.130
70135SOL    HW112237  13.436   7.653  10.190
70135SOL    HW212238  13.577   7.597  10.187
70136SOL     OW12239  12.773   4.254   5.176
70136SOL    HW112240  12.819   4.336   5.191
70136SOL    HW212241  12.833   4.187   5.209
70137SOL     OW12242   0.583  11.019   5.760
70137SOL    HW112243   0.527  11.051   5.831
70137SOL    HW212244   0.649  10.965   5.804
70138SOL     OW12245   2.131   1.084   9.088
70138SOL    HW112246   2.111   1.071   8.995
70138SOL    HW212247   2.210   1.032   9.103
70139SOL     OW12248   8.575   1.022  12.308
70139SOL    HW112249   8.557   1.030  12.215
70139SOL    HW212250   8.648   0.960  12.313
70140SOL     OW12251   3.809   1.499   9.208
70140SOL    HW112252   3.810   1.413   9.249
70140SOL    HW212253   3.896   1.509   9.170
70141SOL     OW12254  13.367  11.441  11.582
70141SOL    HW112255  13.334  11.406  11.499
70141SOL    HW212256  13.429  11.375  11.613
70142SOL     OW12257   0.327   5.735   9.543
70142SOL    HW112258   0.388   5.764   9.475
70142SOL    HW212259   0.243   5.728   9.497
70143SOL     OW12260   2.946   8.657  14.366
70143SOL    HW112261   2.925   8.711  14.442
70143SOL    HW212262   2.964   8.570  14.403
70144SOL     OW12263   6.968   9.359   8.696
70144SOL    HW112264   7.027   9.380   8.768
70144SOL    HW212265   6.888   9.328   8.738
70145SOL     OW12266   6.826   3.828   6.394
70145SOL    HW112267   6.749   3.880   6.368
70145SOL    HW212268   6.841   3.851   6.485
70146SOL     OW12269   5.761  13.838   6.691
70146SOL    HW112270   5.845  13.831   6.737
70146SOL    HW212271   5.770  13.916   6.636
70147SOL     OW12272   2.484   0.096  13.132
70147SOL    HW112273   2.395   0.063  13.122
70147SOL    HW212274   2.484   0.139  13.218
70148SOL     OW12275   1.598   2.077   3.950
70148SOL    HW112276   1.567   2.074   4.040
70148SOL    HW212277   1.541   2.142   3.908
70149SOL     OW12278  13.968   5.760   3.127
70149SOL    HW112279  14.027   5.686   3.116
70149SOL    HW212280  13.990   5.796   3.213
70150SOL     OW12281  12.387  13.633  12.808
70150SOL    HW112282  12.325  13.560  12.815
70150SOL    HW212283  12.417  13.629  12.717
70151SOL     OW12284   4.699  13.239   4.456
70151SOL    HW112285   4.756  13.246   4.380
70151SOL    HW212286   4.629  13.302   4.439
70152SOL     OW12287   4.978   1.678   2.210
70152SOL    HW112288   4.941   1.591   2.228
70152SOL    HW212289   4.963   1.691   2.117
70153SOL     OW12290   6.696  10.953   7.228
70153SOL    HW112291   6.778  11.003   7.223
70153SOL    HW212292   6.724  10.862   7.220
70154SOL     OW12293   7.800  14.817  12.183
70154SOL    HW112294   7.857   0.013  12.154
70154SOL    HW212295   7.860  14.746  12.205
70155SOL     OW12296  11.171  13.759  11.654
70155SOL    HW112297  11.115  13.835  11.666
70155SOL    HW212298  11.112  13.692  11.618
70156SOL     OW12299   1.586   6.113   0.353
70156SOL    HW112300   1.627   6.154   0.276
70156SOL    HW212301   1.495   6.100   0.328
70157SOL     OW12302   1.461   2.420  10.207
70157SOL    HW112303   1.417   2.473  10.140
70157SOL    HW212304   1.554   2.430  10.187
70158SOL     OW12305   3.613   5.571   0.900
70158SOL    HW112306   3.537   5.544   0.952
70158SOL    HW212307   3.604   5.523   0.818
70159SOL     OW12308   1.300   1.359  13.855
70159SOL    HW112309   1.226   1.421  13.852
70159SOL    HW212310   1.272   1.291  13.917
70160SOL     OW12311   2.362   2.826   1.365
70160SOL    HW112312   2.300   2.781   1.424
70160SOL    HW212313   2.323   2.817   1.279
70161SOL     OW12314   6.528  10.196  11.713
70161SOL    HW112315   6.582  10.246  11.774
70161SOL    HW212316   6.558  10.223  11.627
70162SOL     OW12317   6.088  14.184  10.639
70162SOL    HW112318   6.118  14.257  10.585
70162SOL    HW212319   6.055  14.119  10.576
70163SOL     OW12320  14.765   0.861   0.484
70163SOL    HW112321  14.845   0.841   0.531
70163SOL    HW212322  14.782   0.945   0.441
70164SOL     OW12323  10.635   5.619   0.592
70164SOL    HW112324  10.706   5.627   0.656
70164SOL    HW212325  10.664   5.672   0.518
70165SOL     OW12326  14.620   0.872  12.981
70165SOL    HW112327  14.659   0.877  13.068
70165SOL    HW212328  14.572   0.954  12.971
70166SOL     OW12329  12.175   6.228   0.588
70166SOL    HW112330  12.180   6.133   0.585
70166SOL    HW212331  12.105   6.251   0.527
70167SOL     OW12332  10.924  13.722   0.364
70167SOL    HW112333  10.983  13.742   0.437
70167SOL    HW212334  10.908  13.806   0.322
70168SOL     OW12335   7.997   7.152   1.042
70168SOL    HW112336   8.013   7.180   0.952
70168SOL    HW212337   8.078   7.107   1.067
70169SOL     OW12338   2.382   1.359  10.829
70169SOL    HW112339   2.469   1.384  10.799
70169SOL    HW212340   2.398   1.289  10.893
70170SOL     OW12341   8.682  14.735   6.736
70170SOL    HW112342   8.593  14.762   6.717
70170SOL    HW212343   8.677  14.639   6.743
70171SOL     OW12344  10.473   7.844  11.631
70171SOL    HW112345  10.565   7.871  11.627
70171SOL    HW212346  10.458   7.802  11.546
70172SOL     OW12347  10.837   6.952   9.674
70172SOL    HW112348  10.899   6.893   9.716
70172SOL    HW212349  10.886   6.989   9.601
70173SOL     OW12350   2.188   4.967   4.529
70173SOL    HW112351   2.167   4.887   4.481
70173SOL    HW212352   2.246   5.016   4.471
70174SOL     OW12353   1.012   2.343  12.301
70174SOL    HW112354   1.103   2.371  12.313
70174SOL    HW212355   0.965   2.423  12.278
70175SOL     OW12356   0.760   6.029   4.515
70175SOL    HW112357   0.759   5.959   4.450
70175SOL    HW212358   0.684   6.083   4.494
70176SOL     OW12359  13.726   4.016  13.124
70176SOL    HW112360  13.693   3.973  13.045
70176SOL    HW212361  13.713   4.110  13.108
70177SOL     OW12362   4.777  10.190   2.473
70177SOL    HW112363   4.791  10.137   2.394
70177SOL    HW212364   4.813  10.276   2.450
70178SOL     OW12365  12.308   6.321   0.820
70178SOL    HW112366  12.262   6.298   0.740
70178SOL    HW212367  12.239   6.336   0.885
70179SOL     OW12368   2.439  11.467   0.940
70179SOL    HW112369   2.467  11.376   0.939
70179SOL    HW212370   2.512  11.515   0.900
70180SOL     OW12371   5.297   2.776   7.383
70180SOL    HW112372   5.249   2.740   7.458
70180SOL    HW212373   5.367   2.712   7.366
70181SOL     OW12374   0.387  12.024   9.529
70181SOL    HW112375   0.295  12.047   9.544
70181SOL    HW212376   0.394  11.933   9.557
70182SOL     OW12377  11.302  13.116   3.610
70182SOL    HW112378  11.219  13.122   3.563
70182SOL    HW212379  11.312  13.023   3.629
70183SOL     OW12380  10.222  10.449  10.209
70183SOL    HW112381  10.127  10.440  10.203
70183SOL    HW212382  10.254  10.360  10.219
70184SOL     OW12383   9.111   5.047  10.338
70184SOL    HW112384   9.060   5.020  10.262
70184SOL    HW212385   9.078   4.993  10.410
70185SOL     OW12386  14.787   1.221  13.519
70185SOL    HW112387  14.724   1.262  13.459
70185SOL    HW212388  14.868   1.271  13.507
70186SOL     OW12389   0.858   3.219   2.036
70186SOL    HW112390   0.861   3.291   2.100
70186SOL    HW212391   0.778   3.171   2.059
70187SOL     OW12392  10.290  12.182  13.614
70187SOL    HW112393  10.310  12.275  13.602
70187SOL    HW212394  10.327  12.140  13.536
70188SOL     OW12395   8.082  10.796   9.752
70188SOL    HW112396   8.004  10.750   9.784
70188SOL    HW212397   8.048  10.859   9.689
70189SOL     OW12398   3.074  11.808   7.857
70189SOL    HW112399   3.138  11.762   7.802
70189SOL    HW212400   3.124  11.838   7.933
70190SOL     OW12401  11.586   4.473   8.102
70190SOL    HW112402  11.550   4.397   8.056
70190SOL    HW212403  11.604   4.441   8.190
70191SOL     OW12404   2.805   7.560  10.200
70191SOL    HW112405   2.894   7.588  10.221
70191SOL    HW212406   2.771   7.629  10.143
70192SOL     OW12407   2.468   3.138  10.319
70192SOL    HW112408   2.501   3.049  10.328
70192SOL    HW212409   2.423   3.155  10.401
70193SOL     OW12410   8.383  11.084   4.835
70193SOL    HW112411   8.435  11.138   4.776
70193SOL    HW212412   8.414  10.995   4.821
70194SOL     OW12413   1.570   0.344   9.966
70194SOL    HW112414   1.500   0.401   9.998
70194SOL    HW212415   1.648   0.372  10.014
70195SOL     OW12416  11.333   4.123  13.851
70195SOL    HW112417  11.276   4.100  13.924
70195SOL    HW212418  11.306   4.065  13.780
70196SOL     OW12419   4.302  12.506  11.492
70196SOL    HW112420   4.248  12.459  11.428
70196SOL    HW212421   4.297  12.454  11.571
70197SOL     OW12422   3.153   3.725  10.515
70197SOL    HW112423   3.110   3.800  10.554
70197SOL    HW212424   3.241   3.724  10.554
70198SOL     OW12425  13.024   4.672   3.336
70198SOL    HW112426  13.074   4.604   3.381
70198SOL    HW212427  13.048   4.753   3.381
70199SOL     OW12428  14.306   0.428  11.053
70199SOL    HW112429  14.365   0.355  11.032
70199SOL    HW212430  14.318   0.441  11.147
70200SOL     OW12431   4.583  14.108   8.180
70200SOL    HW112432   4.595  14.050   8.105
70200SOL    HW212433   4.657  14.089   8.237
70201SOL     OW12434  10.142   9.992   8.825
70201SOL    HW112435  10.232  10.025   8.815
70201SOL    HW212436  10.094  10.034   8.753
70202SOL     OW12437  10.908   3.661   1.646
70202SOL    HW112438  10.924   3.753   1.667
70202SOL    HW212439  10.964   3.612   1.707
70203SOL     OW12440   2.014  11.895   2.640
70203SOL    HW112441   2.039  11.925   2.727
70203SOL    HW212442   1.986  11.804   2.653
70204SOL     OW12443   0.063   8.016  11.457
70204SOL    HW112444   0.132   7.965  11.413
70204SOL    HW212445   0.008   8.047  11.386
70205SOL     OW12446  14.702   1.994   3.616
70205SOL    HW112447  14.644   2.061   3.651
70205SOL    HW212448  14.737   2.033   3.535
70206SOL     OW12449   7.742  13.507  12.593
70206SOL    HW112450   7.759  13.601  12.584
70206SOL    HW212451   7.774  13.469  12.511
70207SOL     OW12452   5.259   2.654   8.069
70207SOL    HW112453   5.199   2.681   8.139
70207SOL    HW212454   5.306   2.734   8.045
70208SOL     OW12455  11.018  11.935  12.025
70208SOL    HW112456  11.010  11.840  12.013
70208SOL    HW212457  10.977  11.972  11.947
70209SOL     OW12458   6.208   7.300   5.435
70209SOL    HW112459   6.118   7.280   5.463
70209SOL    HW212460   6.243   7.355   5.505
70210SOL     OW12461   6.472   4.953   5.405
70210SOL    HW112462   6.409   4.915   5.467
70210SOL    HW212463   6.420   5.014   5.353
70211SOL     OW12464  11.864  12.455   5.950
70211SOL    HW112465  11.932  12.420   5.891
70211SOL    HW212466  11.873  12.403   6.030
70212SOL     OW12467  14.644   8.176   5.722
70212SOL    HW112468  14.709   8.245   5.706
70212SOL    HW212469  14.623   8.142   5.635
70213SOL     OW12470  11.276  11.662  14.783
70213SOL    HW112471  11.333  11.607  14.836
70213SOL    HW212472  11.318  11.748  14.785
70214SOL     OW12473  10.148  10.603   4.509
70214SOL    HW112474  10.064  10.640   4.536
70214SOL    HW212475  10.172  10.651   4.430
70215SOL     OW12476   2.857   9.262   7.240
70215SOL    HW112477   2.766   9.287   7.225
70215SOL    HW212478   2.879   9.204   7.167
70216SOL     OW12479   2.972   2.057  13.430
70216SOL    HW112480   2.879   2.036  13.442
70216SOL    HW212481   2.981   2.071  13.336
70217SOL     OW12482  12.809   2.285   4.967
70217SOL    HW112483  12.812   2.370   5.010
70217SOL    HW212484  12.861   2.228   5.023
70218SOL     OW12485  10.440   6.127   6.455
70218SOL    HW112486  10.432   6.066   6.381
70218SOL    HW212487  10.401   6.080   6.529
70219SOL     OW12488   3.897   5.448   5.134
70219SOL    HW112489   3.854   5.377   5.183
70219SOL    HW212490   3.824   5.501   5.102
70220SOL     OW12491   3.176   9.301  14.033
70220SOL    HW112492   3.137   9.291  13.946
70220SOL    HW212493   3.270   9.288  14.018
70221SOL     OW12494  14.091   9.802  11.663
70221SOL    HW112495  14.097   9.741  11.737
70221SOL    HW212496  14.000   9.829  11.662
70222SOL     OW12497   1.132   8.880   3.137
70222SOL    HW112498   1.180   8.939   3.080
70222SOL    HW212499   1.074   8.937   3.187
70223SOL     OW12500  13.935  14.803  14.130
70223SOL    HW112501  13.848  14.779  14.164
70223SOL    HW212502  13.996  14.767  14.193
70224SOL     OW12503  14.425   6.936   8.044
70224SOL    HW112504  14.494   7.001   8.030
70224SOL    HW212505  14.451   6.861   7.991
70225SOL     OW12506   6.287   2.595   4.415
70225SOL    HW112507   6.321   2.683   4.431
70225SOL    HW212508   6.196   2.609   4.391
70226SOL     OW12509  14.657  14.373  11.590
70226SOL    HW112510  14.716  14.298  11.598
70226SOL    HW212511  14.615  14.360  11.505
70227SOL     OW12512   7.811  14.515   9.201
70227SOL    HW112513   7.790  14.484   9.289
70227SOL    HW212514   7.896  14.558   9.210
70228SOL     OW12515  14.390   3.704   3.439
70228SOL    HW112516  14.324   3.772   3.423
70228SOL    HW212517  14.339   3.624   3.454
70229SOL     OW12518   7.808  10.532   5.172
70229SOL    HW112519   7.827  10.510   5.264
70229SOL    HW212520   7.756  10.458   5.140
70230SOL     OW12521   2.274   8.630   5.390
70230SOL    HW112522   2.255   8.537   5.387
70230SOL    HW212523   2.369   8.635   5.404
70231SOL     OW12524   4.210   7.402   7.810
70231SOL    HW112525   4.230   7.402   7.903
70231SOL    HW212526   4.131   7.348   7.803
70232SOL     OW12527   7.697   7.132   7.253
70232SOL    HW112528   7.641   7.064   7.291
70232SOL    HW212529   7.645   7.170   7.182
70233SOL     OW12530  10.785   1.530   1.863
70233SOL    HW112531  10.836   1.612   1.861
70233SOL    HW212532  10.831   1.472   1.803
70234SOL     OW12533   4.669   6.254   2.387
70234SOL    HW112534   4.619   6.228   2.465
70234SOL    HW212535   4.744   6.303   2.422
70235SOL     OW12536   4.059  13.661   8.029
70235SOL    HW112537   3.992  13.679   8.095
70235SOL    HW212538   4.117  13.597   8.070
70236SOL     OW12539   0.127   5.432   0.862
70236SOL    HW112540   0.183   5.388   0.798
70236SOL    HW212541   0.040   5.430   0.823
70237SOL     OW12542   9.869   1.923   2.522
70237SOL    HW112543   9.807   1.964   2.582
70237SOL    HW212544   9.948   1.976   2.528
70238SOL     OW12545   0.049  14.203   3.232
70238SOL    HW112546   0.094  14.211   3.148
70238SOL    HW212547  14.858  14.272   3.230
70239SOL     OW12548   2.558   5.557  11.094
70239SOL    HW112549   2.646   5.521  11.107
70239SOL    HW212550   2.559   5.592  11.005
70240SOL     OW12551   9.835   0.561  13.384
70240SOL    HW112552   9.869   0.651  13.383
70240SOL    HW212553   9.752   0.566  13.337
70241SOL     OW12554   2.782   4.335   6.248
70241SOL    HW112555   2.795   4.305   6.338
70241SOL    HW212556   2.689   4.353   6.242
70242SOL     OW12557   5.974   4.884   5.550
70242SOL    HW112558   5.972   4.789   5.564
70242SOL    HW212559   5.881   4.909   5.545
70243SOL     OW12560   1.844   2.225  10.093
70243SOL    HW112561   1.827   2.287  10.022
70243SOL    HW212562   1.766   2.170  10.096
70244SOL     OW12563   8.503  10.812  12.314
70244SOL    HW112564   8.518  10.905  12.328
70244SOL    HW212565   8.532  10.796  12.224
70245SOL     OW12566  11.788  11.172  11.996
70245SOL    HW112567  11.837  11.090  12.007
70245SOL    HW212568  11.696  11.146  11.998
70246SOL     OW12569   2.983  11.950  11.414
70246SOL    HW112570   2.952  11.861  11.397
70246SOL    HW212571   2.903  12.004  11.412
70247SOL     OW12572  14.501   5.893  13.878
70247SOL    HW112573  14.579   5.840  13.861
70247SOL    HW212574  14.534   5.967  13.929
70248SOL     OW12575   8.194  13.501   3.522
70248SOL    HW112576   8.119  13.560   3.513
70248SOL    HW212577   8.264  13.544   3.473
70249SOL     OW12578   9.525   0.068   9.437
70249SOL    HW112579   9.562   0.097   9.521
70249SOL    HW212580   9.431   0.059   9.454
70250SOL     OW12581   6.879  13.339   5.550
70250SOL    HW112582   6.890  13.418   5.603
70250SOL    HW212583   6.858  13.271   5.613
70251SOL     OW12584   8.890  10.749   9.694
70251SOL    HW112585   8.946  10.677   9.662
70251SOL    HW212586   8.809  10.740   9.643
70252SOL     OW12587  13.852  14.458  13.818
70252SOL    HW112588  13.895  14.543  13.827
70252SOL    HW212589  13.784  14.458  13.885
70253SOL     OW12590   9.053   8.622   6.566
70253SOL    HW112591   9.018   8.691   6.623
70253SOL    HW212592   9.108   8.569   6.623
70254SOL     OW12593   0.503   2.655   9.307
70254SOL    HW112594   0.460   2.738   9.287
70254SOL    HW212595   0.551   2.671   9.388
70255SOL     OW12596   6.945   2.207   0.532
70255SOL    HW112597   6.994   2.207   0.614
70255SOL    HW212598   6.982   2.134   0.482
70256SOL     OW12599  12.828   8.614   6.993
70256SOL    HW112600  12.878   8.620   6.912
70256SOL    HW212601  12.752   8.669   6.979
70257SOL     OW12602   1.422  10.165   8.090
70257SOL    HW112603   1.432  10.070   8.083
70257SOL    HW212604   1.341  10.177   8.139
70258SOL     OW12605   7.091  11.753   8.233
70258SOL    HW112606   7.114  11.836   8.193
70258SOL    HW212607   7.051  11.776   8.317
70259SOL     OW12608   3.219   8.775   5.496
70259SOL    HW112609   3.204   8.689   5.534
70259SOL    HW212610   3.314   8.778   5.481
70260SOL     OW12611   8.769   6.979   7.507
70260SOL    HW112612   8.721   7.062   7.518
70260SOL    HW212613   8.839   7.000   7.445
70261SOL     OW12614   1.049   7.527   1.998
70261SOL    HW112615   0.972   7.579   1.976
70261SOL    HW212616   1.014   7.443   2.028
70262SOL     OW12617   4.991   4.405  14.748
70262SOL    HW112618   4.930   4.403  14.821
70262SOL    HW212619   5.009   4.498  14.734
70263SOL     OW12620  11.280   8.840  12.691
70263SOL    HW112621  11.258   8.748  12.678
70263SOL    HW212622  11.311   8.845  12.782
70264SOL     OW12623   7.569  14.164   3.016
70264SOL    HW112624   7.493  14.199   2.969
70264SOL    HW212625   7.567  14.070   2.998
70265SOL     OW12626   5.250   2.025   6.820
70265SOL    HW112627   5.233   2.079   6.897
70265SOL    HW212628   5.228   1.936   6.848
70266SOL     OW12629  14.578   8.735   2.559
70266SOL    HW112630  14.617   8.811   2.517
70266SOL    HW212631  14.650   8.672   2.566
70267SOL     OW12632   2.266  13.395  10.792
70267SOL    HW112633   2.240  13.425  10.879
70267SOL    HW212634   2.211  13.319  10.775
70268SOL     OW12635   3.484   5.593   8.809
70268SOL    HW112636   3.549   5.535   8.849
70268SOL    HW212637   3.467   5.659   8.875
70269SOL     OW12638   4.090   2.531  12.127
70269SOL    HW112639   4.139   2.603  12.166
70269SOL    HW212640   3.999   2.548  12.150
70270SOL     OW12641   4.512  11.979   0.596
70270SOL    HW112642   4.466  12.037   0.535
70270SOL    HW212643   4.454  11.904   0.606
70271SOL     OW12644   3.074  10.994  14.582
70271SOL    HW112645   3.166  10.980  14.603
70271SOL    HW212646   3.039  10.905  14.568
70272SOL     OW12647  14.284   3.486   3.664
70272SOL    HW112648  14.353   3.495   3.731
70272SOL    HW212649  14.209   3.452   3.713
70273SOL     OW12650   6.295   1.390   5.539
70273SOL    HW112651   6.223   1.327   5.537
70273SOL    HW212652   6.372   1.338   5.517
70274SOL     OW12653  13.033   7.230   5.820
70274SOL    HW112654  12.951   7.184   5.839
70274SOL    HW212655  13.032   7.306   5.878
70275SOL     OW12656   0.167   1.735   4.005
70275SOL    HW112657   0.104   1.776   3.946
70275SOL    HW212658   0.189   1.803   4.068
70276SOL     OW12659   3.340   2.531   1.132
70276SOL    HW112660   3.254   2.560   1.163
70276SOL    HW212661   3.360   2.590   1.059
70277SOL     OW12662  12.565  14.419   8.248
70277SOL    HW112663  12.556  14.457   8.161
70277SOL    HW212664  12.639  14.360   8.241
70278SOL     OW12665   3.420   8.324  10.802
70278SOL    HW112666   3.467   8.245  10.827
70278SOL    HW212667   3.464   8.394  10.849
70279SOL     OW12668  13.591   6.654   5.527
70279SOL    HW112669  13.638   6.724   5.574
70279SOL    HW212670  13.655   6.584   5.518
70280SOL     OW12671   5.014   5.376   0.035
70280SOL    HW112672   5.025   5.299   0.090
70280SOL    HW212673   4.945   5.352  14.849
70281SOL     OW12674  11.055   3.378  12.151
70281SOL    HW112675  11.133   3.427  12.123
70281SOL    HW212676  11.000   3.373  12.073
70282SOL     OW12677   8.641  12.601   5.054
70282SOL    HW112678   8.609  12.555   5.131
70282SOL    HW212679   8.612  12.692   5.066
70283SOL     OW12680   4.367   6.794  10.045
70283SOL    HW112681   4.370   6.865  10.109
70283SOL    HW212682   4.347   6.716  10.097
70284SOL     OW12683   6.414   9.968   8.520
70284SOL    HW112684   6.406   9.882   8.561
70284SOL    HW212685   6.508   9.988   8.523
70285SOL     OW12686  10.674   9.487   9.427
70285SOL    HW112687  10.668   9.517   9.336
70285SOL    HW212688  10.764   9.506   9.453
70286SOL     OW12689   4.524   8.422   7.940
70286SOL    HW112690   4.566   8.337   7.950
70286SOL    HW212691   4.556   8.474   8.014
70287SOL     OW12692   5.196   4.230   9.326
70287SOL    HW112693   5.175   4.240   9.233
70287SOL    HW212694   5.268   4.291   9.341
70288SOL     OW12695   5.371   0.956  10.109
70288SOL    HW112696   5.458   0.965  10.148
70288SOL    HW212697   5.349   0.863  10.121
70289SOL     OW12698   2.367   0.551  14.658
70289SOL    HW112699   2.276   0.553  14.628
70289SOL    HW212700   2.382   0.460  14.684
70290SOL     OW12701  12.449   7.895   9.815
70290SOL    HW112702  12.512   7.854   9.875
70290SOL    HW212703  12.497   7.908   9.734
70291SOL     OW12704   4.680   9.183  10.790
70291SOL    HW112705   4.647   9.139  10.712
70291SOL    HW212706   4.735   9.254  10.756
70292SOL     OW12707  11.477   3.406   7.149
70292SOL    HW112708  11.389   3.383   7.179
70292SOL    HW212709  11.496   3.343   7.079
70293SOL     OW12710  12.047   6.125   4.997
70293SOL    HW112711  12.045   6.219   4.980
70293SOL    HW212712  11.960   6.105   5.030
70294SOL     OW12713  10.668  10.794   6.395
70294SOL    HW112714  10.748  10.813   6.347
70294SOL    HW212715  10.671  10.700   6.411
70295SOL     OW12716   0.663  11.827   6.960
70295SOL    HW112717   0.690  11.888   6.892
70295SOL    HW212718   0.589  11.870   7.002
70296SOL     OW12719  12.605   8.305  12.774
70296SOL    HW112720  12.564   8.285  12.690
70296SOL    HW212721  12.537   8.352  12.823
70297SOL     OW12722   3.622   8.750   1.343
70297SOL    HW112723   3.625   8.725   1.435
70297SOL    HW212724   3.554   8.817   1.337
70298SOL     OW12725   3.508   5.045  10.838
70298SOL    HW112726   3.460   4.965  10.815
70298SOL    HW212727   3.526   5.087  10.754
70299SOL     OW12728   8.342   2.002   0.734
70299SOL    HW112729   8.365   1.933   0.796
70299SOL    HW212730   8.314   1.956   0.655
70300SOL     OW12731  14.054   2.119   3.048
70300SOL    HW112732  14.054   2.067   3.127
70300SOL    HW212733  14.145   2.146   3.036
70301SOL     OW12734   6.294   5.019   3.817
70301SOL    HW112735   6.358   4.995   3.884
70301SOL    HW212736   6.299   4.949   3.752
70302SOL     OW12737   0.001   3.719   6.526
70302SOL    HW112738   0.010   3.809   6.494
70302SOL    HW212739   0.089   3.682   6.517
70303SOL     OW12740  13.355   6.434   9.082
70303SOL    HW112741  13.425   6.456   9.021
70303SOL    HW212742  13.307   6.364   9.038
70304SOL     OW12743  14.215  14.313   1.677
70304SOL    HW112744  14.236  14.333   1.585
70304SOL    HW212745  14.182  14.395   1.712
70305SOL     OW12746  14.351  13.697  10.210
70305SOL    HW112747  14.332  13.623  10.153
70305SOL    HW212748  14.412  13.663  10.275
70306SOL     OW12749  12.961   1.805  10.108
70306SOL    HW112750  12.898   1.870  10.138
70306SOL    HW212751  12.930   1.781  10.021
70307SOL     OW12752  12.017  12.939   1.170
70307SOL    HW112753  12.062  12.906   1.248
70307SOL    HW212754  12.062  12.897   1.097
70308SOL     OW12755   5.623  12.281   3.209
70308SOL    HW112756   5.575  12.222   3.268
70308SOL    HW212757   5.559  12.304   3.141
70309SOL     OW12758  10.272   5.898   1.890
70309SOL    HW112759  10.305   5.858   1.971
70309SOL    HW212760  10.348   5.898   1.832
70310SOL     OW12761   7.760   3.123   9.240
70310SOL    HW112762   7.728   3.211   9.259
70310SOL    HW212763   7.714   3.067   9.302
70311SOL     OW12764  14.586   7.971  14.779
70311SOL    HW112765  14.531   7.995  14.705
70311SOL    HW212766  14.661   8.030  14.774
70312SOL     OW12767  11.440   5.876   5.222
70312SOL    HW112768  11.445   5.924   5.139
70312SOL    HW212769  11.363   5.913   5.265
70313SOL     OW12770  13.019   0.260   5.847
70313SOL    HW112771  13.052   0.345   5.878
70313SOL    HW212772  13.098   0.206   5.837
70314SOL     OW12773   9.365  14.250   1.093
70314SOL    HW112774   9.347  14.343   1.101
70314SOL    HW212775   9.281  14.207   1.112
70315SOL     OW12776   3.885  12.077  13.755
70315SOL    HW112777   3.932  12.136  13.696
70315SOL    HW212778   3.816  12.131  13.793
70316SOL     OW12779   4.858  13.545   7.950
70316SOL    HW112780   4.865  13.623   8.005
70316SOL    HW212781   4.915  13.480   7.993
70317SOL     OW12782   0.735   3.546   1.917
70317SOL    HW112783   0.736   3.637   1.888
70317SOL    HW212784   0.826   3.518   1.914
70318SOL     OW12785   8.518   7.940   3.403
70318SOL    HW112786   8.465   7.891   3.466
70318SOL    HW212787   8.471   8.023   3.391
70319SOL     OW12788   8.922  14.799   0.382
70319SOL    HW112789   8.983  14.731   0.410
70319SOL    HW212790   8.967  14.843   0.310
70320SOL     OW12791   1.740  10.918   9.709
70320SOL    HW112792   1.763  10.877   9.626
70320SOL    HW212793   1.676  10.985   9.686
70321SOL     OW12794   6.431   5.462   6.776
70321SOL    HW112795   6.467   5.539   6.731
70321SOL    HW212796   6.427   5.488   6.868
70322SOL     OW12797   1.868   8.150   0.889
70322SOL    HW112798   1.863   8.084   0.820
70322SOL    HW212799   1.961   8.171   0.896
70323SOL     OW12800  12.959   0.789   5.726
70323SOL    HW112801  12.913   0.853   5.781
70323SOL    HW212802  13.031   0.759   5.781
70324SOL     OW12803   6.701   1.814  11.596
70324SOL    HW112804   6.628   1.773  11.643
70324SOL    HW212805   6.778   1.766  11.627
70325SOL     OW12806   3.535   0.645   4.808
70325SOL    HW112807   3.468   0.617   4.746
70325SOL    HW212808   3.617   0.617   4.768
70326SOL     OW12809  14.562   6.243  12.761
70326SOL    HW112810  14.607   6.328  12.758
70326SOL    HW212811  14.581   6.209  12.848
70327SOL     OW12812   1.735   6.850  12.686
70327SOL    HW112813   1.651   6.886  12.658
70327SOL    HW212814   1.712   6.776  12.742
70328SOL     OW12815  11.803   6.379   9.850
70328SOL    HW112816  11.824   6.300   9.799
70328SOL    HW212817  11.729   6.353   9.904
70329SOL     OW12818   4.084   0.606   2.632
70329SOL    HW112819   4.100   0.667   2.559
70329SOL    HW212820   4.076   0.521   2.590
70330SOL     OW12821   1.268  11.269   9.437
70330SOL    HW112822   1.176  11.285   9.416
70330SOL    HW212823   1.317  11.311   9.366
70331SOL     OW12824   6.027   9.622   9.516
70331SOL    HW112825   6.105   9.597   9.567
70331SOL    HW212826   6.062   9.658   9.435
70332SOL     OW12827   1.979   6.992  12.773
70332SOL    HW112828   1.889   6.963  12.756
70332SOL    HW212829   2.001   7.046  12.697
70333SOL     OW12830  13.199  14.268   1.548
70333SOL    HW112831  13.281  14.220   1.552
70333SOL    HW212832  13.198  14.322   1.627
70334SOL     OW12833  10.642  12.964  11.494
70334SOL    HW112834  10.630  13.019  11.571
70334SOL    HW212835  10.601  12.881  11.517
70335SOL     OW12836   6.290  10.566  10.228
70335SOL    HW112837   6.335  10.633  10.280
70335SOL    HW212838   6.342  10.560  10.148
70336SOL     OW12839   5.187   5.411  10.695
70336SOL    HW112840   5.149   5.486  10.741
70336SOL    HW212841   5.225   5.448  10.615
70337SOL     OW12842   9.419  13.764   2.066
70337SOL    HW112843   9.500  13.772   2.118
70337SOL    HW212844   9.424  13.675   2.029
70338SOL     OW12845  13.483  11.528  14.326
70338SOL    HW112846  13.429  11.572  14.260
70338SOL    HW212847  13.442  11.552  14.409
70339SOL     OW12848  13.470  13.386  14.667
70339SOL    HW112849  13.438  13.407  14.754
70339SOL    HW212850  13.396  13.405  14.609
70340SOL     OW12851   6.038  13.618  11.324
70340SOL    HW112852   5.986  13.551  11.279
70340SOL    HW212853   6.078  13.572  11.398
70341SOL     OW12854   7.237   4.032  13.438
70341SOL    HW112855   7.175   4.027  13.365
70341SOL    HW212856   7.323   4.037  13.396
70342SOL     OW12857  10.830  10.675   4.049
70342SOL    HW112858  10.846  10.748   4.108
70342SOL    HW212859  10.917  10.649   4.018
70343SOL     OW12860   3.180   1.576   1.159
70343SOL    HW112861   3.128   1.504   1.195
70343SOL    HW212862   3.211   1.624   1.235
70344SOL     OW12863   8.382  13.675   1.107
70344SOL    HW112864   8.441  13.726   1.163
70344SOL    HW212865   8.421  13.587   1.106
70345SOL     OW12866   6.646  12.445  13.874
70345SOL    HW112867   6.730  12.404  13.853
70345SOL    HW212868   6.582  12.374  13.863
70346SOL     OW12869  12.264   8.309  12.126
70346SOL    HW112870  12.172   8.330  12.112
70346SOL    HW212871  12.284   8.244  12.058
70347SOL     OW12872   3.966   5.038   5.050
70347SOL    HW112873   3.894   5.069   4.995
70347SOL    HW212874   4.036   5.017   4.988
70348SOL     OW12875  10.142  11.155   4.623
70348SOL    HW112876  10.207  11.133   4.556
70348SOL    HW212877  10.058  11.137   4.581
70349SOL     OW12878   4.109   4.912   2.590
70349SOL    HW112879   4.016   4.909   2.565
70349SOL    HW212880   4.154   4.868   2.518
70350SOL     OW12881   5.611  14.274   9.561
70350SOL    HW112882   5.568  14.255   9.477
70350SOL    HW212883   5.667  14.349   9.542
70351SOL     OW12884   3.364   6.852   0.550
70351SOL    HW112885   3.389   6.798   0.474
70351SOL    HW212886   3.346   6.938   0.513
70352SOL     OW12887   9.515  11.891  12.675
70352SOL    HW112888   9.603  11.921  12.655
70352SOL    HW212889   9.528  11.812  12.728
70353SOL     OW12890   3.063   4.105   3.210
70353SOL    HW112891   2.969   4.098   3.229
70353SOL    HW212892   3.078   4.043   3.139
70354SOL     OW12893   9.118  14.219   6.858
70354SOL    HW112894   9.133  14.300   6.906
70354SOL    HW212895   9.077  14.160   6.921
70355SOL     OW12896   0.082   5.468   6.014
70355SOL    HW112897   0.003   5.470   6.069
70355SOL    HW212898   0.143   5.412   6.062
70356SOL     OW12899   9.253   1.435   8.795
70356SOL    HW112900   9.288   1.360   8.844
70356SOL    HW212901   9.160   1.438   8.820
70357SOL     OW12902  10.826   3.311  13.824
70357SOL    HW112903  10.833   3.399  13.862
70357SOL    HW212904  10.733   3.300  13.808
70358SOL     OW12905  11.210   5.565   3.469
70358SOL    HW112906  11.167   5.483   3.493
70358SOL    HW212907  11.141   5.615   3.424
70359SOL     OW12908   1.872   0.585   6.348
70359SOL    HW112909   1.813   0.644   6.395
70359SOL    HW212910   1.822   0.504   6.339
70360SOL     OW12911   0.263  13.074   6.088
70360SOL    HW112912   0.200  13.144   6.104
70360SOL    HW212913   0.328  13.112   6.029
70361SOL     OW12914   9.249   6.954  11.504
70361SOL    HW112915   9.299   7.035  11.506
70361SOL    HW212916   9.308   6.889  11.543
70362SOL     OW12917   0.040   5.472  12.565
70362SOL    HW112918   0.105   5.430  12.622
70362SOL    HW212919   0.092   5.531  12.510
70363SOL     OW12920  10.800  12.902   5.011
70363SOL    HW112921  10.864  12.831   5.005
70363SOL    HW212922  10.842  12.975   4.967
70364SOL     OW12923  12.744  10.369   7.464
70364SOL    HW112924  12.759  10.351   7.556
70364SOL    HW212925  12.649  10.379   7.456
70365SOL     OW12926   0.510   0.287   0.380
70365SOL    HW112927   0.459   0.363   0.409
70365SOL    HW212928   0.479   0.270   0.291
70366SOL     OW12929   6.493   6.375  13.013
70366SOL    HW112930   6.527   6.348  12.928
70366SOL    HW212931   6.426   6.310  13.034
70367SOL     OW12932   9.102   3.553  11.198
70367SOL    HW112933   9.084   3.459  11.196
70367SOL    HW212934   9.138   3.572  11.111
70368SOL     OW12935  14.572  10.721   4.428
70368SOL    HW112936  14.491  10.685   4.391
70368SOL    HW212937  14.637  10.652   4.416
70369SOL     OW12938   0.809   7.394   8.722
70369SOL    HW112939   0.860   7.399   8.803
70369SOL    HW212940   0.874   7.381   8.653
70370SOL     OW12941  13.575  14.565   1.327
70370SOL    HW112942  13.524  14.625   1.272
70370SOL    HW212943  13.666  14.589   1.308
70371SOL     OW12944   5.279  10.422  10.852
70371SOL    HW112945   5.351  10.445  10.792
70371SOL    HW212946   5.201  10.425  10.797
70372SOL     OW12947   7.300   8.432  14.624
70372SOL    HW112948   7.389   8.399  14.610
70372SOL    HW212949   7.258   8.427  14.539
70373SOL     OW12950   5.675  13.208   7.267
70373SOL    HW112951   5.651  13.130   7.318
70373SOL    HW212952   5.728  13.173   7.195
70374SOL     OW12953   0.521  13.820  11.088
70374SOL    HW112954   0.431  13.794  11.067
70374SOL    HW212955   0.566  13.738  11.106
70375SOL     OW12956   3.271   4.399   7.759
70375SOL    HW112957   3.196   4.344   7.738
70375SOL    HW212958   3.236   4.488   7.765
70376SOL     OW12959   6.745   1.634   3.861
70376SOL    HW112960   6.806   1.701   3.894
70376SOL    HW212961   6.765   1.556   3.913
70377SOL     OW12962  13.533   4.390   7.543
70377SOL    HW112963  13.490   4.471   7.572
70377SOL    HW212964  13.488   4.320   7.590
70378SOL     OW12965  11.036   9.959  13.081
70378SOL    HW112966  11.008  10.028  13.021
70378SOL    HW212967  10.992   9.880  13.049
70379SOL     OW12968   6.588   7.405  12.396
70379SOL    HW112969   6.667   7.446  12.362
70379SOL    HW212970   6.550   7.360  12.321
70380SOL     OW12971   0.438  12.168   0.881
70380SOL    HW112972   0.528  12.151   0.853
70380SOL    HW212973   0.434  12.136   0.971
70381SOL     OW12974  12.970  13.975  11.577
70381SOL    HW112975  13.008  13.892  11.604
70381SOL    HW212976  12.959  13.968  11.482
70382SOL     OW12977   5.308   6.150  12.837
70382SOL    HW112978   5.277   6.214  12.901
70382SOL    HW212979   5.228   6.106  12.806
70383SOL     OW12980  11.993   7.236   4.670
70383SOL    HW112981  11.900   7.224   4.651
70383SOL    HW212982  11.994   7.289   4.750
70384SOL     OW12983   4.019   5.966   5.136
70384SOL    HW112984   4.073   5.985   5.213
70384SOL    HW212985   4.082   5.961   5.064
70385SOL     OW12986   0.609   7.569  13.151
70385SOL    HW112987   0.616   7.664  13.144
70385SOL    HW212988   0.545   7.555  13.221
70386SOL     OW12989   4.917   0.368   0.514
70386SOL    HW112990   4.884   0.372   0.604
70386SOL    HW212991   4.858   0.306   0.470
70387SOL     OW12992   5.090  10.473   3.808
70387SOL    HW112993   5.084  10.441   3.718
70387SOL    HW212994   5.000  10.472   3.841
70388SOL     OW12995   8.417  12.188  10.014
70388SOL    HW112996   8.373  12.161  10.094
70388SOL    HW212997   8.509  12.169  10.029
70389SOL     OW12998  12.676   4.465   8.510
70389SOL    HW112999  12.738   4.527   8.471
70389SOL    HW213000  12.604   4.459   8.448
70390SOL     OW13001   8.020  10.775   2.188
70390SOL    HW113002   7.951  10.708   2.192
70390SOL    HW213003   8.071  10.752   2.111
70391SOL     OW13004   4.460  13.197  10.772
70391SOL    HW113005   4.499  13.121  10.730
70391SOL    HW213006   4.527  13.227  10.834
70392SOL     OW13007   8.196   3.327   2.574
70392SOL    HW113008   8.190   3.294   2.485
70392SOL    HW213009   8.110   3.364   2.592
70393SOL     OW13010  10.492   4.338   5.206
70393SOL    HW113011  10.537   4.261   5.171
70393SOL    HW213012  10.545   4.365   5.280
70394SOL     OW13013   1.335   9.305  14.190
70394SOL    HW113014   1.264   9.264  14.238
70394SOL    HW213015   1.408   9.243  14.196
70395SOL     OW13016   4.873   2.572   8.080
70395SOL    HW113017   4.905   2.485   8.106
70395SOL    HW213018   4.826   2.556   7.998
70396SOL     OW13019  11.675  12.376   8.383
70396SOL    HW113020  11.627  12.382   8.300
70396SOL    HW213021  11.763  12.347   8.357
70397SOL     OW13022   3.653   6.998  11.535
70397SOL    HW113023   3.748   7.005  11.530
70397SOL    HW213024   3.635   6.904  11.535
70398SOL     OW13025   8.436  11.778   0.593
70398SOL    HW113026   8.498  11.731   0.536
70398SOL    HW213027   8.461  11.870   0.585
70399SOL     OW13028   7.816   2.976   5.258
70399SOL    HW113029   7.785   2.932   5.179
70399SOL    HW213030   7.791   3.067   5.247
70400SOL     OW13031  12.775  12.622   2.219
70400SOL    HW113032  12.757  12.572   2.299
70400SOL    HW213033  12.741  12.567   2.149
70401SOL     OW13034   3.272  13.080   8.625
70401SOL    HW113035   3.218  13.074   8.547
70401SOL    HW213036   3.281  13.174   8.641
70402SOL     OW13037   0.251   2.149   1.109
70402SOL    HW113038   0.253   2.053   1.114
70402SOL    HW213039   0.258   2.177   1.200
70403SOL     OW13040  11.437   4.642   1.916
70403SOL    HW113041  11.479   4.657   2.001
70403SOL    HW213042  11.413   4.730   1.886
70404SOL     OW13043  12.159  14.434   5.099
70404SOL    HW113044  12.232  14.435   5.037
70404SOL    HW213045  12.197  14.465   5.181
70405SOL     OW13046   4.024  13.992  11.151
70405SOL    HW113047   4.092  14.034  11.100
70405SOL    HW213048   4.062  13.980  11.238
70406SOL     OW13049  13.739   7.648   3.284
70406SOL    HW113050  13.718   7.606   3.367
70406SOL    HW213051  13.712   7.585   3.218
70407SOL     OW13052   7.173   6.091  13.955
70407SOL    HW113053   7.079   6.101  13.948
70407SOL    HW213054   7.197   6.035  13.881
70408SOL     OW13055   5.503  13.857   1.857
70408SOL    HW113056   5.598  13.846   1.850
70408SOL    HW213057   5.466  13.788   1.801
70409SOL     OW13058   9.940  14.333   6.232
70409SOL    HW113059  10.000  14.386   6.284
70409SOL    HW213060   9.998  14.273   6.184
70410SOL     OW13061   3.735   6.679  11.166
70410SOL    HW113062   3.751   6.757  11.219
70410SOL    HW213063   3.806   6.619  11.189
70411SOL     OW13064  14.180   8.151   4.748
70411SOL    HW113065  14.125   8.092   4.697
70411SOL    HW213066  14.125   8.228   4.764
70412SOL     OW13067  11.529   5.932   0.055
70412SOL    HW113068  11.447   5.961   0.094
70412SOL    HW213069  11.597   5.978   0.104
70413SOL     OW13070   6.080  10.168  10.952
70413SOL    HW113071   6.074  10.264  10.953
70413SOL    HW213072   6.173  10.150  10.937
70414SOL     OW13073   1.700  10.215   2.614
70414SOL    HW113074   1.742  10.263   2.542
70414SOL    HW213075   1.771  10.163   2.652
70415SOL     OW13076   3.616  11.152   8.975
70415SOL    HW113077   3.616  11.089   9.047
70415SOL    HW213078   3.657  11.230   9.012
70416SOL     OW13079   7.975  10.982   3.880
70416SOL    HW113080   8.011  10.946   3.799
70416SOL    HW213081   8.022  10.938   3.950
70417SOL     OW13082   9.493  14.357  11.146
70417SOL    HW113083   9.428  14.355  11.076
70417SOL    HW213084   9.534  14.270  11.144
70418SOL     OW13085   9.377   5.804   1.254
70418SOL    HW113086   9.465   5.769   1.242
70418SOL    HW213087   9.378   5.887   1.206
70419SOL     OW13088   7.358  13.339   6.504
70419SOL    HW113089   7.332  13.390   6.427
70419SOL    HW213090   7.415  13.397   6.553
70420SOL     OW13091   4.371  11.512   4.047
70420SOL    HW113092   4.439  11.527   3.980
70420SOL    HW213093   4.421  11.489   4.126
70421SOL     OW13094   6.830  11.787   3.949
70421SOL    HW113095   6.904  11.827   3.994
70421SOL    HW213096   6.863  11.767   3.861
70422SOL     OW13097   9.785  11.262   0.717
70422SOL    HW113098   9.748  11.179   0.750
70422SOL    HW213099   9.741  11.275   0.633
70423SOL     OW13100   9.961   4.922   9.076
70423SOL    HW113101  10.057   4.919   9.085
70423SOL    HW213102   9.934   4.831   9.085
70424SOL     OW13103   0.478  14.724  10.735
70424SOL    HW113104   0.475  14.708  10.829
70424SOL    HW213105   0.388  14.708  10.705
70425SOL     OW13106  13.313   6.917  11.355
70425SOL    HW113107  13.222   6.890  11.366
70425SOL    HW213108  13.310   7.012  11.346
70426SOL     OW13109  11.853  14.352   8.651
70426SOL    HW113110  11.911  14.315   8.718
70426SOL    HW213111  11.810  14.277   8.612
70427SOL     OW13112   9.662   3.387   7.218
70427SOL    HW113113   9.606   3.455   7.256
70427SOL    HW213114   9.610   3.307   7.224
70428SOL     OW13115  11.562   7.461   1.180
70428SOL    HW113116  11.508   7.388   1.152
70428SOL    HW213117  11.608   7.429   1.258
70429SOL     OW13118   6.038  12.156   9.584
70429SOL    HW113119   6.041  12.234   9.638
70429SOL    HW213120   6.104  12.097   9.621
70430SOL     OW13121   5.432   0.264  13.851
70430SOL    HW113122   5.414   0.351  13.815
70430SOL    HW213123   5.347   0.231  13.878
70431SOL     OW13124   0.231   4.534   5.224
70431SOL    HW113125   0.158   4.563   5.170
70431SOL    HW213126   0.246   4.606   5.285
70432SOL     OW13127   4.739   0.418  10.111
70432SOL    HW113128   4.747   0.505  10.071
70432SOL    HW213129   4.775   0.428  10.199
70433SOL     OW13130   3.484   0.378  11.344
70433SOL    HW113131   3.396   0.416  11.345
70433SOL    HW213132   3.471   0.288  11.314
70434SOL     OW13133   3.272  10.460   4.166
70434SOL    HW113134   3.346  10.488   4.112
70434SOL    HW213135   3.282  10.510   4.247
70435SOL     OW13136  11.829  11.526   2.264
70435SOL    HW113137  11.844  11.607   2.215
70435SOL    HW213138  11.746  11.540   2.309
70436SOL     OW13139  11.069   8.769  12.127
70436SOL    HW113140  10.998   8.802  12.072
70436SOL    HW213141  11.125   8.721  12.066
70437SOL     OW13142   6.999   6.084  11.713
70437SOL    HW113143   6.930   6.145  11.739
70437SOL    HW213144   6.962   5.997  11.728
70438SOL     OW13145  11.420  13.051   8.088
70438SOL    HW113146  11.345  13.063   8.146
70438SOL    HW213147  11.476  13.127   8.105
70439SOL     OW13148  14.134   0.803  13.891
70439SOL    HW113149  14.094   0.780  13.975
70439SOL    HW213150  14.212   0.747  13.886
70440SOL     OW13151  11.746   7.218  12.162
70440SOL    HW113152  11.802   7.265  12.100
70440SOL    HW213153  11.779   7.244  12.248
70441SOL     OW13154  12.506   0.363   5.183
70441SOL    HW113155  12.537   0.276   5.157
70441SOL    HW213156  12.563   0.424   5.136
70442SOL     OW13157   0.017   5.309   1.694
70442SOL    HW113158  14.840   5.238   1.730
70442SOL    HW213159   0.062   5.269   1.619
70443SOL     OW13160  12.753  14.178  10.259
70443SOL    HW113161  12.685  14.154  10.196
70443SOL    HW213162  12.824  14.116  10.242
70444SOL     OW13163  13.969   6.902   5.382
70444SOL    HW113164  14.003   6.990   5.399
70444SOL    HW213165  13.914   6.883   5.458
70445SOL     OW13166  12.525  13.957   6.521
70445SOL    HW113167  12.465  13.921   6.456
70445SOL    HW213168  12.551  14.042   6.485
70446SOL     OW13169   3.422   7.184   5.718
70446SOL    HW113170   3.460   7.153   5.636
70446SOL    HW213171   3.487   7.160   5.784
70447SOL     OW13172   2.343  11.422   0.516
70447SOL    HW113173   2.391  11.445   0.437
70447SOL    HW213174   2.299  11.503   0.542
70448SOL     OW13175   7.344  11.778   7.947
70448SOL    HW113176   7.395  11.836   7.889
70448SOL    HW213177   7.408  11.715   7.980
70449SOL     OW13178  12.269   4.549   2.353
70449SOL    HW113179  12.202   4.498   2.398
70449SOL    HW213180  12.337   4.486   2.331
70450SOL     OW13181   6.897   1.150   5.844
70450SOL    HW113182   6.988   1.178   5.852
70450SOL    HW213183   6.892   1.068   5.893
70451SOL     OW13184   3.723  12.813   1.957
70451SOL    HW113185   3.814  12.832   1.981
70451SOL    HW213186   3.674  12.828   2.037
70452SOL     OW13187   6.165  14.688   4.243
70452SOL    HW113188   6.194  14.624   4.308
70452SOL    HW213189   6.071  14.697   4.257
70453SOL     OW13190  12.555   8.927  14.763
70453SOL    HW113191  12.563   8.967  14.677
70453SOL    HW213192  12.636   8.950  14.808
70454SOL     OW13193   3.800   0.381  13.536
70454SOL    HW113194   3.851   0.300  13.538
70454SOL    HW213195   3.859   0.445  13.497
70455SOL     OW13196  14.502   5.019  10.079
70455SOL    HW113197  14.440   5.085  10.047
70455SOL    HW213198  14.492   4.946  10.019
70456SOL     OW13199   5.925  14.579  11.169
70456SOL    HW113200   5.861  14.650  11.169
70456SOL    HW213201   5.934  14.554  11.077
70457SOL     OW13202   7.926   8.124  11.956
70457SOL    HW113203   7.836   8.118  11.922
70457SOL    HW213204   7.916   8.125  12.051
70458SOL     OW13205  13.776   2.401   2.001
70458SOL    HW113206  13.802   2.384   2.092
70458SOL    HW213207  13.680   2.393   2.002
70459SOL     OW13208   2.213  10.885   7.194
70459SOL    HW113209   2.271  10.933   7.253
70459SOL    HW213210   2.128  10.883   7.240
70460SOL     OW13211   0.454  12.488  12.140
70460SOL    HW113212   0.461  12.529  12.226
70460SOL    HW213213   0.545  12.481  12.110
70461SOL     OW13214  12.951   1.463  14.840
70461SOL    HW113215  12.879   1.401  14.834
70461SOL    HW213216  12.961   1.497  14.751
70462SOL     OW13217  11.201  13.460   9.295
70462SOL    HW113218  11.171  13.544   9.260
70462SOL    HW213219  11.242  13.482   9.378
70463SOL     OW13220   1.296   7.417  10.430
70463SOL    HW113221   1.361   7.436  10.497
70463SOL    HW213222   1.222   7.379  10.478
70464SOL     OW13223  11.623  13.469  11.216
70464SOL    HW113224  11.692  13.403  11.206
70464SOL    HW213225  11.556  13.443  11.153
70465SOL     OW13226  14.492   0.201   0.900
70465SOL    HW113227  14.540   0.256   0.838
70465SOL    HW213228  14.531   0.114   0.891
70466SOL     OW13229   3.657   3.798   7.371
70466SOL    HW113230   3.572   3.811   7.328
70466SOL    HW213231   3.710   3.752   7.306
70467SOL     OW13232   4.544   9.180  14.059
70467SOL    HW113233   4.493   9.149  14.134
70467SOL    HW213234   4.535   9.275  14.061
70468SOL     OW13235  11.187   1.151   7.267
70468SOL    HW113236  11.100   1.188   7.283
70468SOL    HW213237  11.223   1.136   7.354
70469SOL     OW13238   7.024  10.536   3.127
70469SOL    HW113239   6.961  10.475   3.165
70469SOL    HW213240   7.019  10.522   3.033
70470SOL     OW13241   3.831  13.222   4.274
70470SOL    HW113242   3.835  13.283   4.200
70470SOL    HW213243   3.884  13.147   4.246
70471SOL     OW13244   8.597   6.093   2.369
70471SOL    HW113245   8.637   6.008   2.352
70471SOL    HW213246   8.504   6.075   2.380
70472SOL     OW13247   9.927   2.708   7.508
70472SOL    HW113248   9.895   2.792   7.541
70472SOL    HW213249   9.869   2.643   7.548
70473SOL     OW13250   3.770   8.537   7.287
70473SOL    HW113251   3.722   8.476   7.231
70473SOL    HW213252   3.758   8.622   7.245
70474SOL     OW13253   9.680  10.559  12.796
70474SOL    HW113254   9.638  10.473  12.788
70474SOL    HW213255   9.678  10.595  12.707
70475SOL     OW13256   1.656   1.891   3.755
70475SOL    HW113257   1.648   1.955   3.825
70475SOL    HW213258   1.618   1.811   3.791
70476SOL     OW13259   0.160  12.608  10.235
70476SOL    HW113260   0.163  12.554  10.315
70476SOL    HW213261   0.186  12.548  10.165
70477SOL     OW13262  12.128   0.780   7.787
70477SOL    HW113263  12.032   0.787   7.783
70477SOL    HW213264  12.156   0.854   7.840
70478SOL     OW13265   1.209  12.806  14.140
70478SOL    HW113266   1.186  12.832  14.051
70478SOL    HW213267   1.304  12.814  14.143
70479SOL     OW13268  14.795   6.057   0.951
70479SOL    HW113269  14.804   6.152   0.946
70479SOL    HW213270  14.705   6.043   0.981
70480SOL     OW13271   4.242   7.595  11.953
70480SOL    HW113272   4.223   7.507  11.922
70480SOL    HW213273   4.332   7.612  11.925
70481SOL     OW13274   1.330   3.116   4.951
70481SOL    HW113275   1.349   3.132   5.044
70481SOL    HW213276   1.382   3.181   4.904
70482SOL     OW13277  11.109   0.587   6.671
70482SOL    HW113278  11.166   0.616   6.600
70482SOL    HW213279  11.129   0.646   6.744
70483SOL     OW13280   2.345   0.032   1.333
70483SOL    HW113281   2.342   0.117   1.379
70483SOL    HW213282   2.315   0.052   1.245
70484SOL     OW13283  13.876   3.421   6.524
70484SOL    HW113284  13.786   3.415   6.492
70484SOL    HW213285  13.887   3.344   6.580
70485SOL     OW13286  10.690   6.583   8.792
70485SOL    HW113287  10.708   6.494   8.821
70485SOL    HW213288  10.715   6.585   8.700
70486SOL     OW13289  10.367   4.800   0.864
70486SOL    HW113290  10.368   4.893   0.842
70486SOL    HW213291  10.447   4.787   0.915
70487SOL     OW13292   7.908  10.019   1.473
70487SOL    HW113293   7.843   9.967   1.518
70487SOL    HW213294   7.861  10.097   1.443
70488SOL     OW13295   3.965   7.184   0.630
70488SOL    HW113296   3.979   7.273   0.662
70488SOL    HW213297   4.050   7.158   0.594
70489SOL     OW13298   6.256   1.908  10.036
70489SOL    HW113299   6.346   1.914  10.065
70489SOL    HW213300   6.255   1.951   9.950
70490SOL     OW13301   6.161   4.910   0.471
70490SOL    HW113302   6.101   4.980   0.444
70490SOL    HW213303   6.176   4.860   0.391
70491SOL     OW13304   8.650  10.717   2.135
70491SOL    HW113305   8.729  10.696   2.185
70491SOL    HW213306   8.581  10.722   2.201
70492SOL     OW13307   1.569  10.177   8.825
70492SOL    HW113308   1.529  10.246   8.771
70492SOL    HW213309   1.553  10.205   8.915
70493SOL     OW13310   1.968  12.718   3.176
70493SOL    HW113311   1.925  12.664   3.110
70493SOL    HW213312   1.987  12.801   3.132
70494SOL     OW13313   2.109   9.693   3.893
70494SOL    HW113314   2.015   9.705   3.910
70494SOL    HW213315   2.126   9.746   3.814
70495SOL     OW13316   7.685   6.221   9.751
70495SOL    HW113317   7.718   6.289   9.810
70495SOL    HW213318   7.624   6.266   9.693
70496SOL     OW13319  11.071   4.335  12.406
70496SOL    HW113320  11.142   4.376  12.357
70496SOL    HW213321  11.015   4.407  12.432
70497SOL     OW13322   8.717  11.800   7.170
70497SOL    HW113323   8.622  11.800   7.165
70497SOL    HW213324   8.746  11.768   7.084
70498SOL     OW13325   2.239   8.720   6.482
70498SOL    HW113326   2.324   8.756   6.505
70498SOL    HW213327   2.252   8.625   6.485
70499SOL     OW13328  12.358   2.857   1.567
70499SOL    HW113329  12.371   2.860   1.662
70499SOL    HW213330  12.394   2.939   1.534
70500SOL     OW13331   9.227   9.305   8.254
70500SOL    HW113332   9.207   9.344   8.339
70500SOL    HW213333   9.156   9.243   8.238
70501SOL     OW13334   9.233   0.546   2.877
70501SOL    HW113335   9.168   0.612   2.898
70501SOL    HW213336   9.212   0.473   2.935
70502SOL     OW13337   9.528   8.124   6.839
70502SOL    HW113338   9.499   8.198   6.787
70502SOL    HW213339   9.450   8.097   6.888
70503SOL     OW13340   0.626  12.010  10.312
70503SOL    HW113341   0.571  12.012  10.234
70503SOL    HW213342   0.587  11.942  10.367
70504SOL     OW13343  13.877   4.906  11.187
70504SOL    HW113344  13.796   4.867  11.218
70504SOL    HW213345  13.945   4.843  11.210
70505SOL     OW13346  14.448   4.250   4.010
70505SOL    HW113347  14.404   4.314   3.955
70505SOL    HW213348  14.503   4.200   3.950
70506SOL     OW13349   7.196   1.141   6.510
70506SOL    HW113350   7.183   1.123   6.417
70506SOL    HW213351   7.265   1.080   6.537
70507SOL     OW13352   8.643  13.830   3.320
70507SOL    HW113353   8.648  13.893   3.392
70507SOL    HW213354   8.664  13.881   3.242
70508SOL     OW13355  11.999  13.812   0.027
70508SOL    HW113356  12.064  13.879   0.048
70508SOL    HW213357  12.019  13.786  14.813
70509SOL     OW13358  11.293   5.165   0.652
70509SOL    HW113359  11.356   5.108   0.608
70509SOL    HW213360  11.236   5.197   0.582
70510SOL     OW13361  12.003   8.294   7.916
70510SOL    HW113362  12.012   8.334   7.830
70510SOL    HW213363  11.916   8.255   7.916
70511SOL     OW13364   2.170  13.033   2.497
70511SOL    HW113365   2.192  12.942   2.514
70511SOL    HW213366   2.141  13.068   2.581
70512SOL     OW13367   7.191   1.024   0.862
70512SOL    HW113368   7.129   0.964   0.820
70512SOL    HW213369   7.137   1.098   0.889
70513SOL     OW13370  10.672  13.476   2.354
70513SOL    HW113371  10.600  13.529   2.389
70513SOL    HW213372  10.629  13.406   2.305
70514SOL     OW13373   4.017  10.375  12.678
70514SOL    HW113374   3.927  10.342  12.669
70514SOL    HW213375   4.061  10.310  12.732
70515SOL     OW13376  11.797   1.205  14.499
70515SOL    HW113377  11.731   1.140  14.518
70515SOL    HW213378  11.748   1.287  14.487
70516SOL     OW13379  11.514   2.020   6.254
70516SOL    HW113380  11.552   2.089   6.200
70516SOL    HW213381  11.445   2.065   6.304
70517SOL     OW13382   1.526   1.791   7.306
70517SOL    HW113383   1.483   1.836   7.233
70517SOL    HW213384   1.515   1.851   7.380
70518SOL     OW13385   4.275   1.189   6.313
70518SOL    HW113386   4.325   1.171   6.233
70518SOL    HW213387   4.219   1.263   6.290
70519SOL     OW13388   1.312  10.619   3.434
70519SOL    HW113389   1.251  10.550   3.408
70519SOL    HW213390   1.338  10.596   3.523
70520SOL     OW13391   4.523   9.986   6.391
70520SOL    HW113392   4.595   9.926   6.408
70520SOL    HW213393   4.507  10.030   6.474
70521SOL     OW13394   3.170   1.778   7.936
70521SOL    HW113395   3.107   1.724   7.984
70521SOL    HW213396   3.123   1.804   7.857
70522SOL     OW13397  12.711   2.941  12.436
70522SOL    HW113398  12.657   2.922  12.359
70522SOL    HW213399  12.648   2.968  12.503
70523SOL     OW13400  10.848   7.406   1.386
70523SOL    HW113401  10.940   7.427   1.403
70523SOL    HW213402  10.799   7.480   1.424
70524SOL     OW13403   3.283   6.925   5.963
70524SOL    HW113404   3.361   6.895   5.916
70524SOL    HW213405   3.256   6.849   6.014
70525SOL     OW13406  11.030   3.419   0.065
70525SOL    HW113407  11.097   3.460   0.011
70525SOL    HW213408  11.073   3.342   0.102
70526SOL     OW13409  12.448   3.663   7.577
70526SOL    HW113410  12.377   3.722   7.551
70526SOL    HW213411  12.528   3.706   7.544
70527SOL     OW13412  11.817   7.664   8.473
70527SOL    HW113413  11.739   7.691   8.521
70527SOL    HW213414  11.884   7.727   8.499
70528SOL     OW13415   2.880   0.069  14.645
70528SOL    HW113416   2.805   0.022  14.609
70528SOL    HW213417   2.957   0.025  14.607
70529SOL     OW13418   1.858  10.621  11.225
70529SOL    HW113419   1.924  10.681  11.190
70529SOL    HW213420   1.820  10.579  11.148
70530SOL     OW13421   8.465   4.397   2.790
70530SOL    HW113422   8.398   4.338   2.825
70530SOL    HW213423   8.539   4.340   2.770
70531SOL     OW13424   7.061  14.667   0.367
70531SOL    HW113425   7.068  14.574   0.384
70531SOL    HW213426   7.144  14.704   0.399
70532SOL     OW13427   3.321   0.973   5.075
70532SOL    HW113428   3.407   0.932   5.062
70532SOL    HW213429   3.303   1.017   4.993
70533SOL     OW13430   0.526   0.329   3.440
70533SOL    HW113431   0.592   0.396   3.423
70533SOL    HW213432   0.572   0.246   3.427
70534SOL     OW13433   5.968  11.056   2.846
70534SOL    HW113434   6.045  11.038   2.900
70534SOL    HW213435   5.907  11.100   2.905
70535SOL     OW13436   4.510   4.117   5.124
70535SOL    HW113437   4.457   4.190   5.156
70535SOL    HW213438   4.546   4.076   5.202
70536SOL     OW13439  10.786   4.014  13.568
70536SOL    HW113440  10.768   4.106  13.589
70536SOL    HW213441  10.748   4.002  13.481
70537SOL     OW13442   2.761   0.132  12.832
70537SOL    HW113443   2.851   0.131  12.864
70537SOL    HW213444   2.717   0.063  12.880
70538SOL     OW13445   8.231   5.086   0.403
70538SOL    HW113446   8.211   5.111   0.494
70538SOL    HW213447   8.204   4.994   0.397
70539SOL     OW13448  12.058  10.319  14.438
70539SOL    HW113449  12.025  10.404  14.469
70539SOL    HW213450  12.035  10.258  14.508
70540SOL     OW13451   3.121   5.477   1.285
70540SOL    HW113452   3.102   5.490   1.378
70540SOL    HW213453   3.209   5.440   1.284
70541SOL     OW13454  10.043   9.295   8.938
70541SOL    HW113455  10.102   9.319   9.009
70541SOL    HW213456  10.058   9.202   8.923
70542SOL     OW13457   3.447   5.367   5.002
70542SOL    HW113458   3.464   5.389   4.910
70542SOL    HW213459   3.372   5.308   4.999
70543SOL     OW13460  11.238   3.325  14.296
70543SOL    HW113461  11.299   3.329  14.371
70543SOL    HW213462  11.172   3.261  14.323
70544SOL     OW13463  11.057   9.691   9.351
70544SOL    HW113464  11.024   9.640   9.425
70544SOL    HW213465  11.031   9.781   9.371
70545SOL     OW13466   2.698   9.396  11.503
70545SOL    HW113467   2.628   9.338  11.473
70545SOL    HW213468   2.763   9.337  11.540
70546SOL     OW13469   1.427   5.885   4.712
70546SOL    HW113470   1.495   5.858   4.774
70546SOL    HW213471   1.447   5.977   4.694
70547SOL     OW13472   4.229   1.655   0.386
70547SOL    HW113473   4.227   1.614   0.472
70547SOL    HW213474   4.159   1.720   0.389
70548SOL     OW13475   4.609   4.814  12.247
70548SOL    HW113476   4.684   4.795  12.190
70548SOL    HW213477   4.624   4.903  12.277
70549SOL     OW13478   4.311  11.768  10.602
70549SOL    HW113479   4.270  11.847  10.639
70549SOL    HW213480   4.268  11.695  10.647
70550SOL     OW13481  14.112   9.249  11.910
70550SOL    HW113482  14.047   9.227  11.844
70550SOL    HW213483  14.063   9.246  11.993
70551SOL     OW13484   1.017   6.366  12.155
70551SOL    HW113485   1.048   6.436  12.097
70551SOL    HW213486   1.035   6.399  12.243
70552SOL     OW13487  12.927  10.585   0.897
70552SOL    HW113488  13.019  10.560   0.887
70552SOL    HW213489  12.917  10.663   0.842
70553SOL     OW13490  10.754  12.253  11.074
70553SOL    HW113491  10.694  12.319  11.038
70553SOL    HW213492  10.807  12.226  10.999
70554SOL     OW13493   3.696   9.351  11.753
70554SOL    HW113494   3.787   9.360  11.723
70554SOL    HW213495   3.703   9.330  11.846
70555SOL     OW13496   9.696   7.764   2.680
70555SOL    HW113497   9.676   7.671   2.671
70555SOL    HW213498   9.780   7.766   2.725
70556SOL     OW13499   2.062  12.314   8.217
70556SOL    HW113500   2.006  12.304   8.140
70556SOL    HW213501   2.114  12.392   8.200
70557SOL     OW13502   8.269  14.245   6.047
70557SOL    HW113503   8.340  14.240   5.983
70557SOL    HW213504   8.296  14.314   6.107
70558SOL     OW13505   3.086  13.140  10.296
70558SOL    HW113506   3.154  13.140  10.228
70558SOL    HW213507   3.065  13.047  10.308
70559SOL     OW13508   1.980   2.624   5.217
70559SOL    HW113509   2.021   2.538   5.221
70559SOL    HW213510   1.913   2.622   5.285
70560SOL     OW13511   7.665  10.273   1.988
70560SOL    HW113512   7.723  10.337   2.029
70560SOL    HW213513   7.719  10.234   1.919
70561SOL     OW13514  14.751  12.578   7.747
70561SOL    HW113515  14.813  12.559   7.818
70561SOL    HW213516  14.797  12.640   7.691
70562SOL     OW13517   4.476   3.275   0.751
70562SOL    HW113518   4.507   3.361   0.723
70562SOL    HW213519   4.490   3.275   0.846
70563SOL     OW13520  11.742   0.218   0.818
70563SOL    HW113521  11.824   0.267   0.811
70563SOL    HW213522  11.686   0.271   0.874
70564SOL     OW13523   3.975   7.322   2.404
70564SOL    HW113524   3.931   7.284   2.328
70564SOL    HW213525   3.923   7.399   2.426
70565SOL     OW13526   5.817   2.354   6.880
70565SOL    HW113527   5.808   2.445   6.853
70565SOL    HW213528   5.898   2.324   6.840
70566SOL     OW13529   5.287   0.834  11.180
70566SOL    HW113530   5.353   0.897  11.209
70566SOL    HW213531   5.281   0.847  11.085
70567SOL     OW13532   3.776  13.812   8.486
70567SOL    HW113533   3.828  13.814   8.566
70567SOL    HW213534   3.742  13.723   8.481
70568SOL     OW13535   9.576   4.592   1.991
70568SOL    HW113536   9.647   4.569   1.931
70568SOL    HW213537   9.508   4.528   1.972
70569SOL     OW13538   6.122  13.111   2.494
70569SOL    HW113539   6.208  13.131   2.458
70569SOL    HW213540   6.141  13.074   2.581
70570SOL     OW13541   9.329   8.957  14.672
70570SOL    HW113542   9.240   8.981  14.696
70570SOL    HW213543   9.367   9.036  14.635
70571SOL     OW13544  13.273  12.073  13.837
70571SOL    HW113545  13.341  12.008  13.859
70571SOL    HW213546  13.301  12.108  13.752
70572SOL     OW13547   8.142   8.247   0.984
70572SOL    HW113548   8.083   8.312   1.023
70572SOL    HW213549   8.132   8.259   0.890
70573SOL     OW13550   3.793   7.152   1.910
70573SOL    HW113551   3.883   7.139   1.882
70573SOL    HW213552   3.744   7.165   1.828
70574SOL     OW13553   9.381  10.740   9.041
70574SOL    HW113554   9.343  10.774   8.960
70574SOL    HW213555   9.361  10.646   9.040
70575SOL     OW13556   6.730  12.315   5.208
70575SOL    HW113557   6.788  12.240   5.219
70575SOL    HW213558   6.653  12.280   5.165
70576SOL     OW13559  11.326   7.575  10.343
70576SOL    HW113560  11.323   7.489  10.384
70576SOL    HW213561  11.418   7.602  10.351
70577SOL     OW13562   3.716  11.334   4.822
70577SOL    HW113563   3.704  11.265   4.887
70577SOL    HW213564   3.659  11.405   4.853
70578SOL     OW13565   2.850  10.705   6.334
70578SOL    HW113566   2.862  10.686   6.241
70578SOL    HW213567   2.939  10.714   6.368
70579SOL     OW13568   9.383   1.463   5.373
70579SOL    HW113569   9.445   1.391   5.359
70579SOL    HW213570   9.429   1.523   5.431
70580SOL     OW13571  14.620   5.113   1.975
70580SOL    HW113572  14.568   5.040   2.008
70580SOL    HW213573  14.557   5.170   1.931
70581SOL     OW13574   0.326   7.859   4.692
70581SOL    HW113575   0.242   7.819   4.714
70581SOL    HW213576   0.366   7.878   4.777
70582SOL     OW13577   1.149   9.525   5.378
70582SOL    HW113578   1.058   9.501   5.361
70582SOL    HW213579   1.197   9.442   5.377
70583SOL     OW13580  11.002  13.685   5.883
70583SOL    HW113581  11.069  13.617   5.872
70583SOL    HW213582  10.942  13.649   5.949
70584SOL     OW13583   5.896   8.395   1.142
70584SOL    HW113584   5.880   8.302   1.127
70584SOL    HW213585   5.936   8.426   1.061
70585SOL     OW13586   1.997  12.490   4.027
70585SOL    HW113587   2.062  12.538   3.976
70585SOL    HW213588   2.026  12.399   4.024
70586SOL     OW13589  13.504   9.706   7.661
70586SOL    HW113590  13.559   9.672   7.591
70586SOL    HW213591  13.551   9.783   7.693
70587SOL     OW13592   4.769   4.872  10.884
70587SOL    HW113593   4.831   4.946  10.886
70587SOL    HW213594   4.734   4.873  10.795
70588SOL     OW13595  11.125  13.743  13.968
70588SOL    HW113596  11.137  13.812  14.033
70588SOL    HW213597  11.190  13.677  13.992
70589SOL     OW13598   6.933   1.957  13.594
70589SOL    HW113599   6.894   2.035  13.553
70589SOL    HW213600   7.022   1.983  13.615
70590SOL     OW13601  10.377   2.699  12.584
70590SOL    HW113602  10.427   2.622  12.555
70590SOL    HW213603  10.291   2.687  12.544
70591SOL     OW13604   9.937  10.937  12.082
70591SOL    HW113605   9.951  11.032  12.089
70591SOL    HW213606   9.867  10.919  12.144
70592SOL     OW13607   9.537   6.992   2.989
70592SOL    HW113608   9.484   7.067   3.016
70592SOL    HW213609   9.476   6.935   2.942
70593SOL     OW13610  14.481   7.632  14.632
70593SOL    HW113611  14.414   7.675  14.685
70593SOL    HW213612  14.444   7.628  14.544
70594SOL     OW13613   9.795   5.345   1.716
70594SOL    HW113614   9.714   5.360   1.764
70594SOL    HW213615   9.787   5.255   1.683
70595SOL     OW13616  10.192   3.211  12.251
70595SOL    HW113617  10.278   3.192  12.290
70595SOL    HW213618  10.212   3.263  12.173
70596SOL     OW13619  11.351   1.766   8.689
70596SOL    HW113620  11.338   1.821   8.766
70596SOL    HW213621  11.336   1.677   8.720
70597SOL     OW13622   7.630  14.369   2.621
70597SOL    HW113623   7.709  14.324   2.652
70597SOL    HW213624   7.639  14.370   2.526
70598SOL     OW13625   8.276   6.871  11.439
70598SOL    HW113626   8.335   6.799  11.417
70598SOL    HW213627   8.322   6.920  11.508
70599SOL     OW13628   3.587   0.848   2.625
70599SOL    HW113629   3.681   0.859   2.615
70599SOL    HW213630   3.558   0.928   2.669
70600SOL     OW13631   9.017  11.486  14.648
70600SOL    HW113632   9.069  11.516  14.574
70600SOL    HW213633   9.082  11.463  14.715
70601SOL     OW13634   1.396  12.711   7.861
70601SOL    HW113635   1.313  12.746   7.830
70601SOL    HW213636   1.462  12.749   7.803
70602SOL     OW13637   4.215   0.604   3.284
70602SOL    HW113638   4.183   0.668   3.348
70602SOL    HW213639   4.175   0.522   3.311
70603SOL     OW13640   5.244  14.752   2.375
70603SOL    HW113641   5.319  14.756   2.315
70603SOL    HW213642   5.247  14.835   2.421
70604SOL     OW13643  13.912   2.655  12.687
70604SOL    HW113644  13.976   2.638  12.756
70604SOL    HW213645  13.891   2.569  12.651
70605SOL     OW13646  10.478   1.763  14.041
70605SOL    HW113647  10.394   1.717  14.047
70605SOL    HW213648  10.540   1.704  14.084
70606SOL     OW13649   2.536   1.147   7.709
70606SOL    HW113650   2.455   1.198   7.715
70606SOL    HW213651   2.509   1.057   7.727
70607SOL     OW13652   0.310   1.378  11.295
70607SOL    HW113653   0.294   1.429  11.374
70607SOL    HW213654   0.240   1.403  11.235
70608SOL     OW13655  14.468   6.998   9.398
70608SOL    HW113656  14.494   7.016   9.489
70608SOL    HW213657  14.484   7.080   9.351
70609SOL     OW13658   8.832   0.610  14.502
70609SOL    HW113659   8.833   0.552  14.426
70609SOL    HW213660   8.924   0.633  14.515
70610SOL     OW13661  11.216   4.303   7.217
70610SOL    HW113662  11.161   4.239   7.172
70610SOL    HW213663  11.159   4.378   7.232
70611SOL     OW13664   2.742   3.158   5.518
70611SOL    HW113665   2.798   3.103   5.464
70611SOL    HW213666   2.783   3.157   5.605
70612SOL     OW13667   9.552   8.317   3.898
70612SOL    HW113668   9.544   8.324   3.993
70612SOL    HW213669   9.519   8.401   3.865
70613SOL     OW13670   0.662   5.359  12.315
70613SOL    HW113671   0.619   5.364  12.401
70613SOL    HW213672   0.755   5.346  12.336
70614SOL     OW13673  14.526   0.948   0.307
70614SOL    HW113674  14.438   0.915   0.289
70614SOL    HW213675  14.521   0.982   0.396
70615SOL     OW13676  10.498   0.498  14.255
70615SOL    HW113677  10.530   0.566  14.313
70615SOL    HW213678  10.536   0.519  14.170
70616SOL     OW13679   5.070   7.273  14.405
70616SOL    HW113680   5.050   7.344  14.344
70616SOL    HW213681   5.095   7.199  14.350
70617SOL     OW13682   1.353   3.480  11.445
70617SOL    HW113683   1.415   3.416  11.480
70617SOL    HW213684   1.361   3.473  11.350
70618SOL     OW13685  14.666   9.039   4.798
70618SOL    HW113686  14.622   9.109   4.751
70618SOL    HW213687  14.624   9.038   4.884
70619SOL     OW13688   3.175   0.200   6.540
70619SOL    HW113689   3.084   0.187   6.511
70619SOL    HW213690   3.184   0.142   6.616
70620SOL     OW13691   6.625  12.408  14.374
70620SOL    HW113692   6.693  12.341  14.372
70620SOL    HW213693   6.543  12.360  14.385
70621SOL     OW13694   1.924  10.598   9.853
70621SOL    HW113695   2.018  10.591   9.863
70621SOL    HW213696   1.898  10.670   9.910
70622SOL     OW13697   9.330  12.815   1.192
70622SOL    HW113698   9.306  12.734   1.147
70622SOL    HW213699   9.258  12.875   1.174
70623SOL     OW13700   5.665  10.528   2.625
70623SOL    HW113701   5.674  10.458   2.561
70623SOL    HW213702   5.722  10.502   2.698
70624SOL     OW13703   2.367   5.939   7.082
70624SOL    HW113704   2.272   5.924   7.086
70624SOL    HW213705   2.392   5.954   7.173
70625SOL     OW13706   0.113   6.757   7.781
70625SOL    HW113707   0.114   6.839   7.829
70625SOL    HW213708   0.138   6.780   7.692
70626SOL     OW13709   3.283   4.313  12.390
70626SOL    HW113710   3.333   4.294  12.311
70626SOL    HW213711   3.265   4.228  12.429
70627SOL     OW13712  11.631  11.102   7.782
70627SOL    HW113713  11.686  11.172   7.745
70627SOL    HW213714  11.622  11.125   7.874
70628SOL     OW13715   5.616  13.402   9.614
70628SOL    HW113716   5.530  13.379   9.648
70628SOL    HW213717   5.603  13.484   9.566
70629SOL     OW13718   1.823  10.150  10.512
70629SOL    HW113719   1.911  10.143  10.549
70629SOL    HW213720   1.766  10.108  10.577
70630SOL     OW13721   8.935   9.408  11.413
70630SOL    HW113722   8.973   9.328  11.448
70630SOL    HW213723   8.900   9.453  11.490
70631SOL     OW13724   3.297   3.414  14.646
70631SOL    HW113725   3.332   3.501  14.667
70631SOL    HW213726   3.215   3.432  14.600
70632SOL     OW13727   9.605   6.994   2.663
70632SOL    HW113728   9.650   7.000   2.578
70632SOL    HW213729   9.604   6.900   2.683
70633SOL     OW13730   3.094   2.472   9.209
70633SOL    HW113731   3.124   2.385   9.236
70633SOL    HW213732   3.175   2.522   9.197
70634SOL     OW13733   1.249  10.081  10.485
70634SOL    HW113734   1.334  10.064  10.445
70634SOL    HW213735   1.198  10.002  10.470
70635SOL     OW13736   9.228   1.746   7.647
70635SOL    HW113737   9.259   1.814   7.587
70635SOL    HW213738   9.290   1.673   7.634
70636SOL     OW13739  11.941   0.715   5.077
70636SOL    HW113740  11.894   0.649   5.128
70636SOL    HW213741  11.978   0.666   5.003
70637SOL     OW13742  10.854   3.595  14.500
70637SOL    HW113743  10.862   3.540  14.423
70637SOL    HW213744  10.847   3.534  14.573
70638SOL     OW13745  14.532   8.265   2.101
70638SOL    HW113746  14.579   8.219   2.031
70638SOL    HW213747  14.587   8.341   2.121
70639SOL     OW13748  13.462  14.194  12.427
70639SOL    HW113749  13.548  14.153  12.423
70639SOL    HW213750  13.406  14.139  12.371
70640SOL     OW13751   9.058   6.501   2.585
70640SOL    HW113752   9.092   6.470   2.669
70640SOL    HW213753   9.054   6.422   2.531
70641SOL     OW13754   2.890   0.172   3.672
70641SOL    HW113755   2.907   0.125   3.590
70641SOL    HW213756   2.810   0.223   3.654
70642SOL     OW13757   5.672   0.354   1.309
70642SOL    HW113758   5.664   0.339   1.403
70642SOL    HW213759   5.663   0.449   1.299
70643SOL     OW13760   8.487   4.327  13.777
70643SOL    HW113761   8.473   4.400  13.837
70643SOL    HW213762   8.454   4.250  13.825
70644SOL     OW13763   5.020  10.325   9.006
70644SOL    HW113764   4.966  10.311   9.084
70644SOL    HW213765   5.055  10.413   9.016
70645SOL     OW13766  11.814   1.438   0.424
70645SOL    HW113767  11.855   1.366   0.376
70645SOL    HW213768  11.721   1.416   0.426
70646SOL     OW13769  13.224  12.688   5.505
70646SOL    HW113770  13.170  12.645   5.571
70646SOL    HW213771  13.164  12.746   5.459
70647SOL     OW13772   0.012   6.913   6.251
70647SOL    HW113773  14.829   6.975   6.294
70647SOL    HW213774   0.100   6.942   6.277
70648SOL     OW13775  13.617   5.870   2.181
70648SOL    HW113776  13.676   5.887   2.254
70648SOL    HW213777  13.674   5.844   2.109
70649SOL     OW13778   6.026  11.113  11.449
70649SOL    HW113779   6.084  11.137  11.521
70649SOL    HW213780   6.046  11.021  11.432
70650SOL     OW13781   4.466   0.792  10.159
70650SOL    HW113782   4.424   0.878  10.150
70650SOL    HW213783   4.394   0.730  10.159
70651SOL     OW13784   5.798  14.500   3.337
70651SOL    HW113785   5.712  14.459   3.335
70651SOL    HW213786   5.854  14.436   3.380
70652SOL     OW13787   2.091  10.133   5.088
70652SOL    HW113788   2.036  10.120   5.166
70652SOL    HW213789   2.091  10.227   5.074
70653SOL     OW13790   5.474   1.407  11.620
70653SOL    HW113791   5.530   1.470  11.665
70653SOL    HW213792   5.420   1.369  11.690
70654SOL     OW13793  12.417   0.434   6.533
70654SOL    HW113794  12.364   0.509   6.504
70654SOL    HW213795  12.473   0.470   6.602
70655SOL     OW13796  11.735  14.430   4.723
70655SOL    HW113797  11.730  14.388   4.637
70655SOL    HW213798  11.800  14.378   4.771
70656SOL     OW13799   4.376   5.124  12.296
70656SOL    HW113800   4.315   5.070  12.245
70656SOL    HW213801   4.415   5.063  12.358
70657SOL     OW13802   7.151  13.724   3.853
70657SOL    HW113803   7.214  13.792   3.826
70657SOL    HW213804   7.165  13.715   3.947
70658SOL     OW13805  10.483   5.799   4.246
70658SOL    HW113806  10.402   5.811   4.296
70658SOL    HW213807  10.464   5.838   4.161
70659SOL     OW13808   5.308   2.083   3.823
70659SOL    HW113809   5.306   2.162   3.878
70659SOL    HW213810   5.231   2.090   3.768
70660SOL     OW13811   4.485   2.088   2.844
70660SOL    HW113812   4.470   2.010   2.791
70660SOL    HW213813   4.434   2.073   2.923
70661SOL     OW13814  13.922   3.397   7.902
70661SOL    HW113815  13.900   3.361   7.988
70661SOL    HW213816  13.846   3.448   7.877
70662SOL     OW13817   6.264   6.561   6.648
70662SOL    HW113818   6.229   6.641   6.610
70662SOL    HW213819   6.191   6.499   6.645
70663SOL     OW13820   1.040  10.435  10.286
70663SOL    HW113821   1.052  10.368  10.219
70663SOL    HW213822   0.967  10.404  10.340
70664SOL     OW13823   3.316  13.904   9.753
70664SOL    HW113824   3.237  13.954   9.734
70664SOL    HW213825   3.284  13.822   9.792
70665SOL     OW13826   6.955   5.319  13.969
70665SOL    HW113827   6.902   5.372  14.029
70665SOL    HW213828   7.029   5.376  13.946
70666SOL     OW13829   2.046   5.251   8.994
70666SOL    HW113830   2.068   5.160   8.970
70666SOL    HW213831   1.957   5.263   8.962
70667SOL     OW13832   1.556  14.636   9.985
70667SOL    HW113833   1.530  14.552   9.946
70667SOL    HW213834   1.572  14.694   9.910
70668SOL     OW13835  13.830  13.285  13.597
70668SOL    HW113836  13.861  13.228  13.527
70668SOL    HW213837  13.904  13.343  13.616
70669SOL     OW13838   8.109   3.536   5.634
70669SOL    HW113839   8.084   3.445   5.652
70669SOL    HW213840   8.056   3.588   5.694
70670SOL     OW13841   5.389   1.801   1.541
70670SOL    HW113842   5.330   1.843   1.603
70670SOL    HW213843   5.433   1.873   1.496
70671SOL     OW13844  12.321   2.610  11.431
70671SOL    HW113845  12.297   2.694  11.470
70671SOL    HW213846  12.292   2.617  11.340
70672SOL     OW13847  11.010  13.146  13.139
70672SOL    HW113848  11.029  13.237  13.163
70672SOL    HW213849  11.096  13.108  13.122
70673SOL     OW13850   8.575   1.001   5.875
70673SOL    HW113851   8.545   1.067   5.938
70673SOL    HW213852   8.645   1.045   5.827
70674SOL     OW13853   9.486   1.576   0.508
70674SOL    HW113854   9.419   1.581   0.440
70674SOL    HW213855   9.452   1.511   0.570
70675SOL     OW13856   2.242   7.283   8.538
70675SOL    HW113857   2.324   7.300   8.491
70675SOL    HW213858   2.265   7.290   8.631
70676SOL     OW13859  13.909  13.545   5.289
70676SOL    HW113860  13.944  13.478   5.347
70676SOL    HW213861  13.815  13.527   5.285
70677SOL     OW13862   4.281   3.635   1.179
70677SOL    HW113863   4.225   3.605   1.107
70677SOL    HW213864   4.257   3.579   1.253
70678SOL     OW13865   0.432   3.161   0.650
70678SOL    HW113866   0.488   3.161   0.728
70678SOL    HW213867   0.492   3.179   0.577
70679SOL     OW13868   1.083   5.788   6.967
70679SOL    HW113869   1.022   5.715   6.962
70679SOL    HW213870   1.030   5.863   6.994
70680SOL     OW13871   1.855   3.137   6.451
70680SOL    HW113872   1.949   3.145   6.433
70680SOL    HW213873   1.841   3.044   6.466
70681SOL     OW13874  13.109   1.486  10.380
70681SOL    HW113875  13.191   1.532  10.363
70681SOL    HW213876  13.131   1.394  10.369
70682SOL     OW13877  13.890  10.847  13.023
70682SOL    HW113878  13.892  10.756  12.994
70682SOL    HW213879  13.937  10.895  12.955
70683SOL     OW13880   5.787   5.030  14.098
70683SOL    HW113881   5.701   5.002  14.068
70683SOL    HW213882   5.845   4.957  14.076
70684SOL     OW13883   2.662  10.590   2.027
70684SOL    HW113884   2.635  10.651   1.958
70684SOL    HW213885   2.648  10.639   2.109
70685SOL     OW13886   4.002   9.122   2.429
70685SOL    HW113887   4.059   9.051   2.456
70685SOL    HW213888   3.955   9.147   2.508
70686SOL     OW13889   9.300   5.299   8.223
70686SOL    HW113890   9.244   5.370   8.255
70686SOL    HW213891   9.282   5.296   8.129
70687SOL     OW13892  14.793   1.988   0.035
70687SOL    HW113893  14.755   2.013  14.826
70687SOL    HW213894  14.830   1.901   0.019
70688SOL     OW13895  14.231   3.166   9.756
70688SOL    HW113896  14.317   3.123   9.756
70688SOL    HW213897  14.174   3.105   9.802
70689SOL     OW13898  13.008   7.569   6.993
70689SOL    HW113899  12.936   7.534   7.046
70689SOL    HW213900  12.967   7.591   6.909
70690SOL     OW13901   1.245   1.557   4.457
70690SOL    HW113902   1.219   1.481   4.404
70690SOL    HW213903   1.185   1.555   4.532
70691SOL     OW13904   1.297  13.626   2.205
70691SOL    HW113905   1.368  13.643   2.266
70691SOL    HW213906   1.339  13.630   2.118
70692SOL     OW13907   4.350   3.296   4.869
70692SOL    HW113908   4.423   3.330   4.921
70692SOL    HW213909   4.293   3.253   4.934
70693SOL     OW13910   7.328  12.546  13.124
70693SOL    HW113911   7.251  12.601  13.112
70693SOL    HW213912   7.352  12.518  13.036
70694SOL     OW13913   2.189  11.100   8.224
70694SOL    HW113914   2.224  11.014   8.247
70694SOL    HW213915   2.111  11.081   8.172
70695SOL     OW13916   0.767  12.959   2.730
70695SOL    HW113917   0.766  13.028   2.664
70695SOL    HW213918   0.810  12.999   2.806
70696SOL     OW13919   9.754   8.406   7.661
70696SOL    HW113920   9.753   8.312   7.644
70696SOL    HW213921   9.663   8.433   7.654
70697SOL     OW13922   4.091  11.747   1.393
70697SOL    HW113923   4.096  11.838   1.362
70697SOL    HW213924   4.164  11.740   1.455
70698SOL     OW13925   7.070   9.066   8.149
70698SOL    HW113926   7.145   9.023   8.191
70698SOL    HW213927   7.005   8.996   8.139
70699SOL     OW13928  10.896   5.199  13.248
70699SOL    HW113929  10.872   5.289  13.271
70699SOL    HW213930  10.815   5.149  13.259
70700SOL     OW13931   0.784   5.392   5.921
70700SOL    HW113932   0.860   5.449   5.929
70700SOL    HW213933   0.805   5.316   5.975
70701SOL     OW13934   6.253  10.040  14.608
70701SOL    HW113935   6.202   9.966  14.573
70701SOL    HW213936   6.197  10.116  14.593
70702SOL     OW13937   6.336   1.883  11.773
70702SOL    HW113938   6.381   1.882  11.688
70702SOL    HW213939   6.323   1.791  11.794
70703SOL     OW13940  13.117  10.984  14.272
70703SOL    HW113941  13.096  11.046  14.202
70703SOL    HW213942  13.046  10.920  14.270
70704SOL     OW13943   9.374  11.863   8.559
70704SOL    HW113944   9.446  11.891   8.616
70704SOL    HW213945   9.417  11.813   8.490
70705SOL     OW13946   4.868   2.199  12.485
70705SOL    HW113947   4.806   2.127  12.489
70705SOL    HW213948   4.814   2.278  12.482
70706SOL     OW13949   1.551  11.536  10.911
70706SOL    HW113950   1.519  11.620  10.878
70706SOL    HW213951   1.518  11.531  11.001
70707SOL     OW13952   0.041  11.977   9.300
70707SOL    HW113953   0.127  11.999   9.265
70707SOL    HW213954   0.053  11.893   9.343
70708SOL     OW13955   1.417   3.535   0.652
70708SOL    HW113956   1.387   3.594   0.721
70708SOL    HW213957   1.356   3.551   0.580
70709SOL     OW13958   9.175   2.107   6.063
70709SOL    HW113959   9.259   2.088   6.104
70709SOL    HW213960   9.197   2.165   5.990
70710SOL     OW13961  13.703   6.535   0.452
70710SOL    HW113962  13.738   6.481   0.523
70710SOL    HW213963  13.776   6.591   0.425
70711SOL     OW13964   3.685   1.178   7.486
70711SOL    HW113965   3.713   1.087   7.475
70711SOL    HW213966   3.761   1.230   7.460
70712SOL     OW13967   4.597   8.998  13.579
70712SOL    HW113968   4.532   9.022  13.645
70712SOL    HW213969   4.667   9.063  13.589
70713SOL     OW13970   2.318   0.987   2.652
70713SOL    HW113971   2.375   0.963   2.579
70713SOL    HW213972   2.332   0.917   2.716
70714SOL     OW13973  11.435   3.309  14.514
70714SOL    HW113974  11.355   3.268  14.546
70714SOL    HW213975  11.422   3.403  14.532
70715SOL     OW13976   5.278   8.929  12.609
70715SOL    HW113977   5.188   8.902  12.627
70715SOL    HW213978   5.325   8.915  12.691
70716SOL     OW13979  11.075  12.348   1.871
70716SOL    HW113980  11.153  12.401   1.853
70716SOL    HW213981  11.076  12.280   1.803
70717SOL     OW13982   7.815   3.219  12.582
70717SOL    HW113983   7.777   3.141  12.623
70717SOL    HW213984   7.770   3.292  12.624
70718SOL     OW13985   5.660  14.328  11.270
70718SOL    HW113986   5.608  14.305  11.193
70718SOL    HW213987   5.633  14.418  11.291
70719SOL     OW13988   4.481   0.128  13.708
70719SOL    HW113989   4.492   0.033  13.715
70719SOL    HW213990   4.459   0.155  13.798
70720SOL     OW13991  12.361  12.310   9.554
70720SOL    HW113992  12.416  12.376   9.512
70720SOL    HW213993  12.273  12.325   9.517
70721SOL     OW13994   6.186   6.594   4.686
70721SOL    HW113995   6.268   6.613   4.733
70721SOL    HW213996   6.154   6.513   4.725
70722SOL     OW13997   0.742   9.222   5.161
70722SOL    HW113998   0.657   9.193   5.196
70722SOL    HW213999   0.802   9.150   5.180
70723SOL     OW14000  14.125   0.410  14.432
70723SOL    HW114001  14.045   0.435  14.386
70723SOL    HW214002  14.184   0.378  14.363
70724SOL     OW14003   6.918   5.650  10.454
70724SOL    HW114004   6.926   5.585  10.384
70724SOL    HW214005   6.956   5.608  10.531
70725SOL     OW14006   5.761   3.791   4.144
70725SOL    HW114007   5.665   3.789   4.146
70725SOL    HW214008   5.784   3.877   4.180
70726SOL     OW14009   4.179  11.300  11.236
70726SOL    HW114010   4.188  11.342  11.150
70726SOL    HW214011   4.137  11.367  11.291
70727SOL     OW14012  13.857  14.450   3.160
70727SOL    HW114013  13.850  14.355   3.150
70727SOL    HW214014  13.932  14.474   3.105
70728SOL     OW14015   6.569   9.304  10.166
70728SOL    HW114016   6.566   9.396  10.137
70728SOL    HW214017   6.569   9.253  10.086
70729SOL     OW14018   5.362   4.693   8.012
70729SOL    HW114019   5.387   4.736   8.093
70729SOL    HW214020   5.443   4.686   7.961
70730SOL     OW14021   0.163   4.243   6.838
70730SOL    HW114022   0.130   4.157   6.814
70730SOL    HW214023   0.236   4.259   6.778
70731SOL     OW14024   5.888  12.477   5.521
70731SOL    HW114025   5.871  12.419   5.447
70731SOL    HW214026   5.961  12.437   5.567
70732SOL     OW14027  10.092  13.452   3.945
70732SOL    HW114028  10.157  13.521   3.934
70732SOL    HW214029  10.069  13.455   4.038
70733SOL     OW14030   1.385   2.972   2.335
70733SOL    HW114031   1.364   3.028   2.260
70733SOL    HW214032   1.317   2.905   2.333
70734SOL     OW14033   2.898   7.715  13.906
70734SOL    HW114034   2.841   7.786  13.875
70734SOL    HW214035   2.838   7.642  13.921
70735SOL     OW14036  12.918   4.031   3.276
70735SOL    HW114037  12.835   4.019   3.322
70735SOL    HW214038  12.935   4.125   3.280
70736SOL     OW14039   0.061   4.001   6.709
70736SOL    HW114040   0.033   3.913   6.734
70736SOL    HW214041   0.122   3.987   6.637
70737SOL     OW14042  12.384   9.665   5.846
70737SOL    HW114043  12.377   9.634   5.756
70737SOL    HW214044  12.340   9.598   5.898
70738SOL     OW14045  10.940  14.565   2.737
70738SOL    HW114046  10.877  14.635   2.756
70738SOL    HW214047  10.885  14.491   2.710
70739SOL     OW14048   7.674   4.739   5.979
70739SOL    HW114049   7.678   4.808   5.913
70739SOL    HW214050   7.697   4.783   6.061
70740SOL     OW14051   1.530  11.059   7.872
70740SOL    HW114052   1.557  11.147   7.846
70740SOL    HW214053   1.608  11.021   7.912
70741SOL     OW14054   7.799   8.326  10.891
70741SOL    HW114055   7.745   8.351  10.816
70741SOL    HW214056   7.741   8.274  10.946
70742SOL     OW14057   3.176  13.583   0.388
70742SOL    HW114058   3.193  13.495   0.419
70742SOL    HW214059   3.081  13.586   0.374
70743SOL     OW14060   1.081  14.816  14.263
70743SOL    HW114061   1.147   0.010  14.263
70743SOL    HW214062   1.032  14.828  14.344
70744SOL     OW14063  11.442   5.944   3.805
70744SOL    HW114064  11.464   5.963   3.713
70744SOL    HW214065  11.347   5.952   3.809
70745SOL     OW14066  14.438   9.405  12.939
70745SOL    HW114067  14.495   9.414  12.862
70745SOL    HW214068  14.351   9.426  12.906
70746SOL     OW14069   2.552  13.157   4.707
70746SOL    HW114070   2.633  13.114   4.681
70746SOL    HW214071   2.497  13.154   4.629
70747SOL     OW14072   0.306  14.401  11.647
70747SOL    HW114073   0.341  14.412  11.559
70747SOL    HW214074   0.355  14.327  11.684
70748SOL     OW14075   2.414  11.086   5.454
70748SOL    HW114076   2.420  11.176   5.423
70748SOL    HW214077   2.423  11.093   5.549
70749SOL     OW14078   7.733   6.009   5.636
70749SOL    HW114079   7.722   5.914   5.622
70749SOL    HW214080   7.804   6.034   5.578
70750SOL     OW14081  13.770   8.205   5.112
70750SOL    HW114082  13.775   8.232   5.203
70750SOL    HW214083  13.861   8.206   5.082
70751SOL     OW14084   3.926   3.438  14.713
70751SOL    HW114085   3.868   3.484  14.773
70751SOL    HW214086   3.904   3.345  14.725
70752SOL     OW14087   8.935  11.613   9.003
70752SOL    HW114088   8.929  11.634   8.910
70752SOL    HW214089   8.947  11.518   9.006
70753SOL     OW14090  11.477  10.601   7.557
70753SOL    HW114091  11.419  10.566   7.624
70753SOL    HW214092  11.451  10.692   7.547
70754SOL     OW14093   0.972   5.623  12.106
70754SOL    HW114094   0.974   5.718  12.117
70754SOL    HW214095   1.006   5.587  12.188
70755SOL     OW14096   3.529   9.631   1.411
70755SOL    HW114097   3.561   9.715   1.444
70755SOL    HW214098   3.444   9.651   1.373
70756SOL     OW14099   1.611   2.467   5.957
70756SOL    HW114100   1.672   2.526   5.911
70756SOL    HW214101   1.610   2.388   5.904
70757SOL     OW14102   1.578   8.569  12.979
70757SOL    HW114103   1.507   8.602  12.924
70757SOL    HW214104   1.626   8.508  12.922
70758SOL     OW14105   2.171  10.163  14.846
70758SOL    HW114106   2.245  10.102  14.843
70758SOL    HW214107   2.184  10.219  14.770
70759SOL     OW14108  10.418   1.634  13.419
70759SOL    HW114109  10.435   1.539  13.418
70759SOL    HW214110  10.501   1.673  13.444
70760SOL     OW14111  10.162   8.244  14.060
70760SOL    HW114112  10.159   8.236  13.964
70760SOL    HW214113  10.255   8.246  14.081
70761SOL     OW14114  11.787   3.762  12.700
70761SOL    HW114115  11.697   3.728  12.699
70761SOL    HW214116  11.782   3.838  12.759
70762SOL     OW14117   5.071   1.945   4.174
70762SOL    HW114118   4.986   1.935   4.218
70762SOL    HW214119   5.118   2.008   4.228
70763SOL     OW14120  13.405  10.600  12.932
70763SOL    HW114121  13.392  10.695  12.930
70763SOL    HW214122  13.438  10.579  12.845
70764SOL     OW14123  10.431   2.472   5.664
70764SOL    HW114124  10.496   2.402   5.661
70764SOL    HW214125  10.347   2.428   5.656
70765SOL     OW14126   8.640   7.607  14.237
70765SOL    HW114127   8.662   7.521  14.202
70765SOL    HW214128   8.619   7.590  14.329
70766SOL     OW14129  14.099   9.130  11.414
70766SOL    HW114130  14.022   9.187  11.418
70766SOL    HW214131  14.162   9.169  11.475
70767SOL     OW14132   5.431  10.426   5.714
70767SOL    HW114133   5.441  10.333   5.693
70767SOL    HW214134   5.433  10.470   5.629
70768SOL     OW14135  12.858  11.123   2.363
70768SOL    HW114136  12.866  11.082   2.449
70768SOL    HW214137  12.944  11.160   2.345
70769SOL     OW14138  14.435  10.957   2.249
70769SOL    HW114139  14.351  10.932   2.209
70769SOL    HW214140  14.415  10.964   2.342
70770SOL     OW14141   2.341   6.234  10.599
70770SOL    HW114142   2.281   6.221  10.525
70770SOL    HW214143   2.377   6.322  10.585
70771SOL     OW14144   5.564   0.052   3.276
70771SOL    HW114145   5.471   0.075   3.280
70771SOL    HW214146   5.565  14.836   3.252
70772SOL     OW14147  12.455   4.224   7.569
70772SOL    HW114148  12.513   4.238   7.493
70772SOL    HW214149  12.473   4.134   7.596
70773SOL     OW14150  14.464   0.607  14.535
70773SOL    HW114151  14.526   0.588  14.465
70773SOL    HW214152  14.465   0.702  14.544
70774SOL     OW14153   5.215   6.682   2.459
70774SOL    HW114154   5.296   6.731   2.446
70774SOL    HW214155   5.167   6.693   2.377
70775SOL     OW14156   9.209   1.078   1.355
70775SOL    HW114157   9.230   1.043   1.442
70775SOL    HW214158   9.135   1.025   1.325
70776SOL     OW14159   4.522   4.043   3.405
70776SOL    HW114160   4.434   4.035   3.368
70776SOL    HW214161   4.508   4.063   3.498
70777SOL     OW14162   5.058   4.758  11.572
70777SOL    HW114163   4.993   4.806  11.624
70777SOL    HW214164   5.142   4.796  11.597
70778SOL     OW14165   8.042   9.325   8.233
70778SOL    HW114166   8.032   9.230   8.227
70778SOL    HW214167   8.030   9.357   8.143
70779SOL     OW14168  13.446   9.086  14.225
70779SOL    HW114169  13.434   9.015  14.289
70779SOL    HW214170  13.525   9.061  14.176
70780SOL     OW14171   8.361   8.061  11.457
70780SOL    HW114172   8.355   8.150  11.422
70780SOL    HW214173   8.417   8.015  11.394
70781SOL     OW14174  10.981   1.603   3.138
70781SOL    HW114175  10.924   1.530   3.114
70781SOL    HW214176  11.012   1.582   3.225
70782SOL     OW14177   9.194   6.317   0.060
70782SOL    HW114178   9.272   6.267   0.086
70782SOL    HW214179   9.229   6.394   0.015
70783SOL     OW14180  14.479   2.733   6.621
70783SOL    HW114181  14.505   2.644   6.643
70783SOL    HW214182  14.428   2.763   6.697
70784SOL     OW14183  10.190   2.197  13.120
70784SOL    HW114184  10.098   2.224  13.114
70784SOL    HW214185  10.223   2.207  13.031
70785SOL     OW14186   8.662   8.619  12.887
70785SOL    HW114187   8.714   8.539  12.884
70785SOL    HW214188   8.574   8.590  12.913
70786SOL     OW14189  10.395  12.434   2.839
70786SOL    HW114190  10.332  12.411   2.772
70786SOL    HW214191  10.345  12.487   2.902
70787SOL     OW14192  11.036   3.243  12.824
70787SOL    HW114193  10.941   3.253  12.816
70787SOL    HW214194  11.070   3.259  12.736
70788SOL     OW14195   1.320   2.557   9.507
70788SOL    HW114196   1.349   2.514   9.427
70788SOL    HW214197   1.234   2.518   9.525
70789SOL     OW14198   1.163   4.460  13.944
70789SOL    HW114199   1.163   4.397  14.016
70789SOL    HW214200   1.165   4.406  13.865
70790SOL     OW14201   9.528  11.227  11.321
70790SOL    HW114202   9.585  11.294  11.361
70790SOL    HW214203   9.510  11.261  11.233
70791SOL     OW14204  11.946   6.904   9.902
70791SOL    HW114205  12.033   6.871   9.880
70791SOL    HW214206  11.890   6.826   9.901
70792SOL     OW14207   1.921  13.138   0.642
70792SOL    HW114208   1.913  13.231   0.621
70792SOL    HW214209   1.901  13.092   0.560
70793SOL     OW14210  14.703   7.536   6.825
70793SOL    HW114211  14.637   7.516   6.892
70793SOL    HW214212  14.655   7.533   6.742
70794SOL     OW14213   7.178  14.424   7.118
70794SOL    HW114214   7.227  14.356   7.071
70794SOL    HW214215   7.107  14.448   7.059
70795SOL     OW14216  13.523   3.752   5.299
70795SOL    HW114217  13.508   3.768   5.206
70795SOL    HW214218  13.441   3.779   5.341
70796SOL     OW14219  10.677  11.011   3.065
70796SOL    HW114220  10.758  10.971   3.035
70796SOL    HW214221  10.688  11.104   3.046
70797SOL     OW14222   3.329   3.340   9.403
70797SOL    HW114223   3.368   3.316   9.319
70797SOL    HW214224   3.398   3.323   9.468
70798SOL     OW14225  10.179   8.959   6.193
70798SOL    HW114226  10.163   8.939   6.285
70798SOL    HW214227  10.253   8.904   6.169
70799SOL     OW14228   1.206  13.554   9.272
70799SOL    HW114229   1.267  13.503   9.219
70799SOL    HW214230   1.172  13.492   9.336
70800SOL     OW14231   3.471   6.038   9.566
70800SOL    HW114232   3.518   5.978   9.623
70800SOL    HW214233   3.399   6.072   9.620
70801SOL     OW14234   5.457   0.678   2.752
70801SOL    HW114235   5.515   0.624   2.806
70801SOL    HW214236   5.516   0.721   2.690
70802SOL     OW14237  12.551  13.893   2.466
70802SOL    HW114238  12.608  13.866   2.394
70802SOL    HW214239  12.610  13.902   2.541
70803SOL     OW14240   9.968   7.309   3.617
70803SOL    HW114241   9.947   7.378   3.680
70803SOL    HW214242   9.988   7.232   3.671
70804SOL     OW14243   6.651   0.385  11.004
70804SOL    HW114244   6.745   0.372  10.997
70804SOL    HW214245   6.621   0.316  11.063
70805SOL     OW14246  12.594   7.310   9.478
70805SOL    HW114247  12.570   7.278   9.391
70805SOL    HW214248  12.531   7.380   9.496
70806SOL     OW14249  10.724  10.934  12.027
70806SOL    HW114250  10.682  11.020  12.027
70806SOL    HW214251  10.811  10.949  12.063
70807SOL     OW14252   3.363   4.076   3.936
70807SOL    HW114253   3.290   4.018   3.914
70807SOL    HW214254   3.417   4.025   3.996
70808SOL     OW14255   0.250   2.491   6.275
70808SOL    HW114256   0.281   2.571   6.318
70808SOL    HW214257   0.179   2.519   6.218
70809SOL     OW14258   3.924   3.182  11.508
70809SOL    HW114259   3.997   3.139  11.462
70809SOL    HW214260   3.950   3.179  11.600
70810SOL     OW14261   2.500   8.498  14.547
70810SOL    HW114262   2.454   8.417  14.570
70810SOL    HW214263   2.515   8.492  14.453
70811SOL     OW14264  13.449   0.757   9.597
70811SOL    HW114265  13.485   0.833   9.643
70811SOL    HW214266  13.527   0.705   9.574
70812SOL     OW14267  14.535  12.441   3.454
70812SOL    HW114268  14.567  12.530   3.438
70812SOL    HW214269  14.439  12.450   3.455
70813SOL     OW14270   8.919   4.034  11.413
70813SOL    HW114271   8.959   3.984  11.484
70813SOL    HW214272   8.974   4.112  11.405
70814SOL     OW14273   7.082  11.085   7.906
70814SOL    HW114274   6.990  11.058   7.908
70814SOL    HW214275   7.089  11.150   7.976
70815SOL     OW14276   7.863  10.902   1.726
70815SOL    HW114277   7.895  10.985   1.691
70815SOL    HW214278   7.828  10.856   1.650
70816SOL     OW14279   6.216  13.772   1.208
70816SOL    HW114280   6.260  13.693   1.239
70816SOL    HW214281   6.284  13.839   1.206
70817SOL     OW14282   1.430   4.195  11.528
70817SOL    HW114283   1.396   4.112  11.561
70817SOL    HW214284   1.514   4.173  11.489
70818SOL     OW14285   9.244   2.713   3.229
70818SOL    HW114286   9.237   2.720   3.134
70818SOL    HW214287   9.193   2.787   3.262
70819SOL     OW14288   3.621   2.938   6.375
70819SOL    HW114289   3.690   2.873   6.367
70819SOL    HW214290   3.557   2.915   6.307
70820SOL     OW14291   2.857   8.414   3.505
70820SOL    HW114292   2.779   8.361   3.523
70820SOL    HW214293   2.910   8.405   3.584
70821SOL     OW14294   9.437   5.832   4.657
70821SOL    HW114295   9.379   5.852   4.731
70821SOL    HW214296   9.465   5.918   4.624
70822SOL     OW14297  12.256   7.440   2.847
70822SOL    HW114298  12.318   7.500   2.804
70822SOL    HW214299  12.176   7.446   2.795
70823SOL     OW14300   2.406   6.924   2.825
70823SOL    HW114301   2.319   6.962   2.812
70823SOL    HW214302   2.459   6.997   2.857
70824SOL     OW14303  13.186   9.076  14.591
70824SOL    HW114304  13.153   9.143  14.530
70824SOL    HW214305  13.278   9.099  14.603
70825SOL     OW14306   9.627   1.109  10.355
70825SOL    HW114307   9.573   1.056  10.413
70825SOL    HW214308   9.569   1.133  10.283
70826SOL     OW14309   3.445   8.239  13.124
70826SOL    HW114310   3.366   8.187  13.136
70826SOL    HW214311   3.517   8.176  13.131
70827SOL     OW14312   7.844   6.946  14.521
70827SOL    HW114313   7.896   6.866  14.526
70827SOL    HW214314   7.753   6.916  14.517
70828SOL     OW14315   1.535   9.126   8.400
70828SOL    HW114316   1.591   9.175   8.340
70828SOL    HW214317   1.501   9.192   8.461
70829SOL     OW14318   5.119   2.237  13.015
70829SOL    HW114319   5.081   2.171  13.073
70829SOL    HW214320   5.085   2.216  12.928
70830SOL     OW14321   0.936   7.988  13.798
70830SOL    HW114322   0.942   8.022  13.887
70830SOL    HW214323   1.024   7.954  13.780
70831SOL     OW14324   7.438  13.762   6.578
70831SOL    HW114325   7.455  13.854   6.597
70831SOL    HW214326   7.440  13.719   6.663
70832SOL     OW14327   0.320   8.242   7.193
70832SOL    HW114328   0.347   8.217   7.105
70832SOL    HW214329   0.355   8.330   7.205
70833SOL     OW14330   5.840   2.114   8.697
70833SOL    HW114331   5.868   2.112   8.606
70833SOL    HW214332   5.891   2.185   8.736
70834SOL     OW14333   6.081   2.536   8.339
70834SOL    HW114334   6.072   2.474   8.266
70834SOL    HW214335   6.025   2.499   8.408
70835SOL     OW14336   7.463   6.427   1.015
70835SOL    HW114337   7.548   6.471   1.022
70835SOL    HW214338   7.429   6.427   1.104
70836SOL     OW14339   2.736   0.572   6.348
70836SOL    HW114340   2.713   0.664   6.338
70836SOL    HW214341   2.680   0.526   6.286
70837SOL     OW14342   1.189   8.276  14.058
70837SOL    HW114343   1.250   8.298  13.988
70837SOL    HW214344   1.221   8.324  14.134
70838SOL     OW14345   6.543   4.113  13.461
70838SOL    HW114346   6.627   4.116  13.507
70838SOL    HW214347   6.519   4.020  13.462
70839SOL     OW14348  10.626   8.846   4.061
70839SOL    HW114349  10.558   8.881   4.003
70839SOL    HW214350  10.685   8.920   4.076
70840SOL     OW14351   3.998  11.167   0.264
70840SOL    HW114352   4.024  11.179   0.172
70840SOL    HW214353   4.080  11.174   0.313
70841SOL     OW14354   7.272   8.062   4.225
70841SOL    HW114355   7.210   7.991   4.210
70841SOL    HW214356   7.219   8.141   4.228
70842SOL     OW14357   1.243  13.325   3.296
70842SOL    HW114358   1.279  13.240   3.271
70842SOL    HW214359   1.301  13.356   3.366
70843SOL     OW14360  10.571   0.999  14.542
70843SOL    HW114361  10.596   1.017  14.633
70843SOL    HW214362  10.655   0.990  14.496
70844SOL     OW14363  11.183   1.801  13.308
70844SOL    HW114364  11.189   1.760  13.395
70844SOL    HW214365  11.134   1.738  13.255
70845SOL     OW14366  14.225   9.862   1.320
70845SOL    HW114367  14.179   9.842   1.238
70845SOL    HW214368  14.316   9.842   1.302
70846SOL     OW14369   3.044   0.744   8.491
70846SOL    HW114370   3.070   0.653   8.476
70846SOL    HW214371   2.989   0.766   8.416
70847SOL     OW14372  10.937   2.163   0.591
70847SOL    HW114373  10.876   2.229   0.558
70847SOL    HW214374  11.016   2.212   0.612
70848SOL     OW14375   3.855   6.034   7.658
70848SOL    HW114376   3.861   6.089   7.581
70848SOL    HW214377   3.872   6.093   7.732
70849SOL     OW14378   0.540   4.445   0.719
70849SOL    HW114379   0.616   4.424   0.774
70849SOL    HW214380   0.577   4.466   0.634
70850SOL     OW14381   3.240   5.922   8.770
70850SOL    HW114382   3.308   5.899   8.707
70850SOL    HW214383   3.279   5.992   8.822
70851SOL     OW14384   2.487   6.959   2.543
70851SOL    HW114385   2.465   6.904   2.468
70851SOL    HW214386   2.444   6.917   2.617
70852SOL     OW14387   5.478  14.037  12.613
70852SOL    HW114388   5.525  14.070  12.690
70852SOL    HW214389   5.545  13.990  12.563
70853SOL     OW14390  10.429  14.164   4.172
70853SOL    HW114391  10.454  14.116   4.094
70853SOL    HW214392  10.449  14.255   4.152
70854SOL     OW14393   8.899   4.823   6.990
70854SOL    HW114394   8.948   4.858   6.916
70854SOL    HW214395   8.847   4.752   6.954
70855SOL     OW14396  12.805  14.757   5.314
70855SOL    HW114397  12.883  14.787   5.268
70855SOL    HW214398  12.787  14.824   5.380
70856SOL     OW14399   5.194   2.669   1.120
70856SOL    HW114400   5.167   2.692   1.032
70856SOL    HW214401   5.132   2.601   1.148
70857SOL     OW14402   2.684  11.730  12.286
70857SOL    HW114403   2.681  11.707  12.379
70857SOL    HW214404   2.600  11.771  12.269
70858SOL     OW14405   4.312   4.222   9.623
70858SOL    HW114406   4.338   4.180   9.704
70858SOL    HW214407   4.333   4.315   9.636
70859SOL     OW14408   8.101   5.390   8.866
70859SOL    HW114409   8.018   5.410   8.910
70859SOL    HW214410   8.164   5.379   8.938
70860SOL     OW14411   8.849  12.391  10.119
70860SOL    HW114412   8.797  12.446  10.178
70860SOL    HW214413   8.846  12.304  10.158
70861SOL     OW14414   0.563  12.240   2.470
70861SOL    HW114415   0.582  12.246   2.376
70861SOL    HW214416   0.478  12.196   2.474
70862SOL     OW14417   1.079   1.984   3.056
70862SOL    HW114418   0.998   1.958   3.101
70862SOL    HW214419   1.092   2.075   3.080
70863SOL     OW14420   7.117  12.327   8.283
70863SOL    HW114421   7.204  12.357   8.258
70863SOL    HW214422   7.125  12.299   8.374
70864SOL     OW14423   9.862  10.817  14.408
70864SOL    HW114424   9.951  10.823  14.443
70864SOL    HW214425   9.868  10.858  14.321
70865SOL     OW14426  11.735   2.876  13.141
70865SOL    HW114427  11.760   2.823  13.216
70865SOL    HW214428  11.702   2.958  13.179
70866SOL     OW14429   8.640  14.056  12.262
70866SOL    HW114430   8.604  14.144  12.260
70866SOL    HW214431   8.694  14.050  12.183
70867SOL     OW14432   2.214  14.454   9.032
70867SOL    HW114433   2.240  14.533   9.080
70867SOL    HW214434   2.143  14.417   9.083
70868SOL     OW14435   9.832   9.226  12.696
70868SOL    HW114436   9.837   9.321  12.707
70868SOL    HW214437   9.852   9.190  12.782
70869SOL     OW14438  13.836   0.351   6.329
70869SOL    HW114439  13.870   0.440   6.337
70869SOL    HW214440  13.753   0.362   6.283
70870SOL     OW14441   2.873   4.471   6.496
70870SOL    HW114442   2.924   4.493   6.573
70870SOL    HW214443   2.800   4.533   6.496
70871SOL     OW14444   1.807   3.893   0.045
70871SOL    HW114445   1.867   3.827   0.079
70871SOL    HW214446   1.727   3.845   0.026
70872SOL     OW14447   0.578  13.483   5.760
70872SOL    HW114448   0.487  13.452   5.759
70872SOL    HW214449   0.571  13.576   5.784
70873SOL     OW14450   2.785   4.905   7.523
70873SOL    HW114451   2.702   4.895   7.569
70873SOL    HW214452   2.772   4.982   7.466
70874SOL     OW14453   3.268  11.456   8.825
70874SOL    HW114454   3.314  11.473   8.908
70874SOL    HW214455   3.337  11.460   8.759
70875SOL     OW14456   1.007   1.066   9.088
70875SOL    HW114457   0.958   1.141   9.124
70875SOL    HW214458   1.076   1.050   9.152
70876SOL     OW14459   7.413   7.714   6.694
70876SOL    HW114460   7.337   7.704   6.636
70876SOL    HW214461   7.388   7.667   6.774
70877SOL     OW14462   6.948   9.617   7.714
70877SOL    HW114463   7.004   9.610   7.791
70877SOL    HW214464   6.954   9.532   7.672
70878SOL     OW14465   1.279   9.367   1.295
70878SOL    HW114466   1.278   9.433   1.365
70878SOL    HW214467   1.226   9.295   1.329
70879SOL     OW14468   2.998   8.196   8.058
70879SOL    HW114469   3.043   8.155   8.132
70879SOL    HW214470   2.960   8.276   8.094
70880SOL     OW14471   5.541  14.452   1.877
70880SOL    HW114472   5.488  14.372   1.879
70880SOL    HW214473   5.565  14.462   1.785
70881SOL     OW14474  10.086  11.120   3.388
70881SOL    HW114475  10.153  11.180   3.355
70881SOL    HW214476  10.096  11.041   3.335
70882SOL     OW14477  14.839  12.438   2.971
70882SOL    HW114478  14.772  12.369   2.975
70882SOL    HW214479   0.027  12.413   3.037
70883SOL     OW14480   4.844   2.308   2.392
70883SOL    HW114481   4.914   2.284   2.453
70883SOL    HW214482   4.809   2.390   2.427
70884SOL     OW14483   7.152   2.850   7.412
70884SOL    HW114484   7.246   2.839   7.399
70884SOL    HW214485   7.143   2.864   7.506
70885SOL     OW14486   7.747   4.270   2.798
70885SOL    HW114487   7.730   4.323   2.721
70885SOL    HW214488   7.667   4.218   2.809
70886SOL     OW14489  13.159   6.790  13.641
70886SOL    HW114490  13.191   6.782  13.551
70886SOL    HW214491  13.191   6.711  13.685
70887SOL     OW14492   9.175   0.286   3.575
70887SOL    HW114493   9.198   0.195   3.556
70887SOL    HW214494   9.142   0.321   3.492
70888SOL     OW14495   3.409   1.928   2.674
70888SOL    HW114496   3.430   1.836   2.665
70888SOL    HW214497   3.313   1.932   2.673
70889SOL     OW14498   7.894   5.221   9.471
70889SOL    HW114499   7.937   5.138   9.450
70889SOL    HW214500   7.909   5.276   9.395
70890SOL     OW14501  14.251   4.311   0.969
70890SOL    HW114502  14.235   4.371   1.041
70890SOL    HW214503  14.233   4.224   1.006
70891SOL     OW14504  12.255   0.451   7.100
70891SOL    HW114505  12.258   0.371   7.047
70891SOL    HW214506  12.198   0.429   7.174
70892SOL     OW14507  11.262   7.112  10.101
70892SOL    HW114508  11.306   7.170  10.038
70892SOL    HW214509  11.172   7.145  10.106
70893SOL     OW14510   4.251  13.701   6.630
70893SOL    HW114511   4.316  13.747   6.577
70893SOL    HW214512   4.220  13.630   6.574
70894SOL     OW14513   9.543  14.717   2.037
70894SOL    HW114514   9.525  14.653   2.105
70894SOL    HW214515   9.495  14.796   2.064
70895SOL     OW14516  12.532   9.749  12.582
70895SOL    HW114517  12.542   9.655  12.567
70895SOL    HW214518  12.438   9.765  12.573
70896SOL     OW14519   7.661   6.533   4.088
70896SOL    HW114520   7.742   6.499   4.050
70896SOL    HW214521   7.629   6.596   4.024
70897SOL     OW14522  11.648   3.060  12.406
70897SOL    HW114523  11.712   3.123  12.371
70897SOL    HW214524  11.680   3.040  12.494
70898SOL     OW14525   6.698   7.321   3.568
70898SOL    HW114526   6.792   7.330   3.552
70898SOL    HW214527   6.660   7.309   3.480
70899SOL     OW14528  14.554   8.901   4.360
70899SOL    HW114529  14.479   8.890   4.301
70899SOL    HW214530  14.592   8.985   4.335
70900SOL     OW14531   5.093  12.208   8.710
70900SOL    HW114532   5.003  12.192   8.682
70900SOL    HW214533   5.125  12.275   8.650
70901SOL     OW14534   9.104   4.128   9.693
70901SOL    HW114535   9.051   4.049   9.700
70901SOL    HW214536   9.194   4.097   9.698
70902SOL     OW14537  11.789  11.760   5.566
70902SOL    HW114538  11.883  11.742   5.565
70902SOL    HW214539  11.772  11.807   5.485
70903SOL     OW14540   0.518  14.290   9.625
70903SOL    HW114541   0.524  14.241   9.543
70903SOL    HW214542   0.426  14.316   9.630
70904SOL     OW14543  11.407   9.108   4.632
70904SOL    HW114544  11.385   9.186   4.581
70904SOL    HW214545  11.332   9.050   4.620
70905SOL     OW14546   7.622   6.888   5.674
70905SOL    HW114547   7.613   6.842   5.590
70905SOL    HW214548   7.539   6.936   5.684
70906SOL     OW14549  13.334   5.560  10.597
70906SOL    HW114550  13.322   5.550  10.503
70906SOL    HW214551  13.358   5.652  10.608
70907SOL     OW14552  14.249  12.176   2.004
70907SOL    HW114553  14.167  12.173   1.955
70907SOL    HW214554  14.292  12.093   1.984
70908SOL     OW14555   4.076   5.488  12.990
70908SOL    HW114556   3.981   5.481  12.998
70908SOL    HW214557   4.110   5.433  13.061
70909SOL     OW14558  14.724   9.865  10.831
70909SOL    HW114559  14.642   9.846  10.876
70909SOL    HW214560  14.715   9.957  10.805
70910SOL     OW14561  12.306   7.169   9.852
70910SOL    HW114562  12.260   7.123   9.921
70910SOL    HW214563  12.238   7.216   9.804
70911SOL     OW14564   6.252   6.341   7.709
70911SOL    HW114565   6.255   6.369   7.618
70911SOL    HW214566   6.184   6.394   7.749
70912SOL     OW14567   8.055   7.582   7.281
70912SOL    HW114568   7.967   7.544   7.280
70912SOL    HW214569   8.046   7.664   7.232
70913SOL     OW14570  11.465  14.469  11.014
70913SOL    HW114571  11.402  14.474  10.942
70913SOL    HW214572  11.542  14.428  10.974
70914SOL     OW14573   5.050  12.213  11.502
70914SOL    HW114574   4.998  12.199  11.581
70914SOL    HW214575   5.128  12.260  11.532
70915SOL     OW14576   8.675  12.576   4.274
70915SOL    HW114577   8.689  12.671   4.265
70915SOL    HW214578   8.639  12.566   4.363
70916SOL     OW14579   9.922  10.608   1.337
70916SOL    HW114580   9.826  10.614   1.341
70916SOL    HW214581   9.951  10.699   1.330
70917SOL     OW14582   1.113   8.645   2.957
70917SOL    HW114583   1.145   8.704   3.025
70917SOL    HW214584   1.021   8.670   2.945
70918SOL     OW14585   2.504   8.714  13.075
70918SOL    HW114586   2.584   8.677  13.112
70918SOL    HW214587   2.466   8.642  13.023
70919SOL     OW14588   7.049   8.639  10.279
70919SOL    HW114589   7.035   8.559  10.228
70919SOL    HW214590   7.077   8.704  10.214
70920SOL     OW14591  11.153  14.183   9.926
70920SOL    HW114592  11.097  14.195   9.850
70920SOL    HW214593  11.108  14.116   9.978
70921SOL     OW14594  12.526   5.066  11.480
70921SOL    HW114595  12.443   5.102  11.510
70921SOL    HW214596  12.522   5.070  11.385
70922SOL     OW14597   9.668   9.352   8.467
70922SOL    HW114598   9.711   9.280   8.513
70922SOL    HW214599   9.705   9.349   8.378
70923SOL     OW14600   8.298   2.790   4.924
70923SOL    HW114601   8.221   2.838   4.895
70923SOL    HW214602   8.369   2.820   4.867
70924SOL     OW14603  10.064   9.296   6.522
70924SOL    HW114604   9.984   9.246   6.538
70924SOL    HW214605  10.064   9.311   6.428
70925SOL     OW14606   3.708   8.476  10.399
70925SOL    HW114607   3.768   8.543  10.431
70925SOL    HW214608   3.726   8.470  10.305
70926SOL     OW14609  14.381   7.965  12.061
70926SOL    HW114610  14.405   7.957  11.969
70926SOL    HW214611  14.455   8.011  12.101
70927SOL     OW14612  11.498   1.574   5.878
70927SOL    HW114613  11.520   1.544   5.790
70927SOL    HW214614  11.576   1.621   5.907
70928SOL     OW14615   0.760  13.255   0.314
70928SOL    HW114616   0.691  13.205   0.357
70928SOL    HW214617   0.836  13.245   0.372
70929SOL     OW14618   6.556   2.968   3.067
70929SOL    HW114619   6.491   2.935   3.006
70929SOL    HW214620   6.546   2.913   3.145
70930SOL     OW14621   2.549   7.115   6.574
70930SOL    HW114622   2.644   7.124   6.566
70930SOL    HW214623   2.529   7.029   6.537
70931SOL     OW14624   9.696   5.598   6.256
70931SOL    HW114625   9.789   5.581   6.243
70931SOL    HW214626   9.654   5.566   6.177
70932SOL     OW14627   3.674   0.815  12.324
70932SOL    HW114628   3.616   0.740  12.335
70932SOL    HW214629   3.735   0.810  12.398
70933SOL     OW14630   3.806  10.314   3.181
70933SOL    HW114631   3.810  10.220   3.163
70933SOL    HW214632   3.801  10.320   3.276
70934SOL     OW14633   9.341   4.550  12.650
70934SOL    HW114634   9.253   4.547  12.612
70934SOL    HW214635   9.343   4.476  12.711
70935SOL     OW14636   4.701  11.153   3.943
70935SOL    HW114637   4.620  11.196   3.915
70935SOL    HW214638   4.723  11.094   3.871
70936SOL     OW14639   9.317   5.456  13.829
70936SOL    HW114640   9.334   5.373  13.784
70936SOL    HW214641   9.385   5.515  13.798
70937SOL     OW14642  12.167   4.619   1.964
70937SOL    HW114643  12.212   4.535   1.958
70937SOL    HW214644  12.218   4.678   1.909
70938SOL     OW14645  14.577   3.123   6.389
70938SOL    HW114646  14.508   3.137   6.454
70938SOL    HW214647  14.613   3.037   6.412
70939SOL     OW14648   5.458  11.757   3.961
70939SOL    HW114649   5.483  11.758   4.054
70939SOL    HW214650   5.385  11.818   3.956
70940SOL     OW14651  13.779   3.254  12.516
70940SOL    HW114652  13.766   3.211  12.600
70940SOL    HW214653  13.739   3.196  12.452
70941SOL     OW14654  12.414  13.368   2.716
70941SOL    HW114655  12.325  13.375   2.749
70941SOL    HW214656  12.416  13.284   2.670
70942SOL     OW14657   2.960  10.169   3.285
70942SOL    HW114658   3.010  10.124   3.216
70942SOL    HW214659   3.027  10.211   3.339
70943SOL     OW14660   5.090   2.013   4.603
70943SOL    HW114661   5.094   1.953   4.678
70943SOL    HW214662   5.180   2.017   4.570
70944SOL     OW14663   4.349  10.506   5.822
70944SOL    HW114664   4.281  10.450   5.786
70944SOL    HW214665   4.398  10.450   5.882
70945SOL     OW14666  13.611   2.983   4.869
70945SOL    HW114667  13.564   3.018   4.794
70945SOL    HW214668  13.574   3.028   4.945
70946SOL     OW14669  10.395   7.900   1.572
70946SOL    HW114670  10.327   7.951   1.615
70946SOL    HW214671  10.427   7.956   1.502
70947SOL     OW14672   2.524   5.955  12.266
70947SOL    HW114673   2.431   5.955  12.289
70947SOL    HW214674   2.525   5.947  12.170
70948SOL     OW14675   0.888   1.148  13.306
70948SOL    HW114676   0.914   1.081  13.243
70948SOL    HW214677   0.894   1.105  13.391
70949SOL     OW14678  13.739  14.430  13.146
70949SOL    HW114679  13.669  14.374  13.179
70949SOL    HW214680  13.819  14.377  13.154
70950SOL     OW14681  11.838   3.474   1.384
70950SOL    HW114682  11.827   3.402   1.323
70950SOL    HW214683  11.769   3.536   1.360
70951SOL     OW14684  10.138  12.526   3.589
70951SOL    HW114685  10.096  12.570   3.663
70951SOL    HW214686  10.078  12.540   3.516
70952SOL     OW14687   5.923   2.354   1.841
70952SOL    HW114688   5.888   2.392   1.761
70952SOL    HW214689   5.934   2.261   1.821
70953SOL     OW14690  13.725   1.893   2.960
70953SOL    HW114691  13.798   1.831   2.966
70953SOL    HW214692  13.763   1.977   2.985
70954SOL     OW14693   3.088   2.403   5.317
70954SOL    HW114694   3.101   2.322   5.267
70954SOL    HW214695   3.058   2.466   5.252
70955SOL     OW14696   4.131  13.095   5.220
70955SOL    HW114697   4.082  13.031   5.271
70955SOL    HW214698   4.095  13.087   5.131
70956SOL     OW14699   0.656  10.207   2.319
70956SOL    HW114700   0.603  10.180   2.394
70956SOL    HW214701   0.714  10.275   2.353
70957SOL     OW14702  11.049   6.670   9.066
70957SOL    HW114703  11.141   6.658   9.042
70957SOL    HW214704  11.036   6.765   9.065
70958SOL     OW14705   9.734   5.790   6.636
70958SOL    HW114706   9.818   5.813   6.596
70958SOL    HW214707   9.690   5.874   6.649
70959SOL     OW14708   1.131  11.331   3.811
70959SOL    HW114709   1.140  11.308   3.904
70959SOL    HW214710   1.107  11.423   3.811
70960SOL     OW14711   8.832   6.818   1.758
70960SOL    HW114712   8.876   6.759   1.820
70960SOL    HW214713   8.904   6.857   1.708
70961SOL     OW14714   4.247   1.265   2.620
70961SOL    HW114715   4.211   1.295   2.704
70961SOL    HW214716   4.180   1.288   2.556
70962SOL     OW14717  11.179  11.124   2.241
70962SOL    HW114718  11.214  11.035   2.232
70962SOL    HW214719  11.104  11.114   2.300
70963SOL     OW14720  11.365   2.485  12.706
70963SOL    HW114721  11.270   2.491  12.697
70963SOL    HW214722  11.379   2.416  12.771
70964SOL     OW14723  11.821  11.873   1.089
70964SOL    HW114724  11.777  11.818   1.153
70964SOL    HW214725  11.862  11.812   1.028
70965SOL     OW14726  14.210   4.251  10.984
70965SOL    HW114727  14.177   4.290  11.065
70965SOL    HW214728  14.303   4.274  10.983
70966SOL     OW14729   4.350  13.356   1.913
70966SOL    HW114730   4.357  13.421   1.982
70966SOL    HW214731   4.440  13.327   1.898
70967SOL     OW14732   1.781  10.394   5.666
70967SOL    HW114733   1.839  10.327   5.701
70967SOL    HW214734   1.714  10.345   5.618
70968SOL     OW14735  12.784  12.151   6.264
70968SOL    HW114736  12.786  12.197   6.348
70968SOL    HW214737  12.692  12.135   6.247
70969SOL     OW14738   3.083   6.513   3.656
70969SOL    HW114739   3.029   6.443   3.622
70969SOL    HW214740   3.080   6.581   3.589
70970SOL     OW14741   9.927   0.537  12.017
70970SOL    HW114742  10.006   0.493  12.048
70970SOL    HW214743   9.880   0.470  11.966
70971SOL     OW14744   7.932   2.037  14.381
70971SOL    HW114745   7.926   2.082  14.465
70971SOL    HW214746   7.899   1.949  14.398
70972SOL     OW14747   6.032   7.253   4.422
70972SOL    HW114748   6.111   7.236   4.472
70972SOL    HW214749   5.979   7.309   4.479
70973SOL     OW14750   9.699  10.138   7.485
70973SOL    HW114751   9.752  10.154   7.407
70973SOL    HW214752   9.626  10.085   7.454
70974SOL     OW14753   6.146   9.576  10.699
70974SOL    HW114754   6.123   9.657  10.653
70974SOL    HW214755   6.072   9.559  10.756
70975SOL     OW14756   7.876   5.535   5.824
70975SOL    HW114757   7.855   5.599   5.757
70975SOL    HW214758   7.922   5.585   5.891
70976SOL     OW14759   2.119   4.143  13.759
70976SOL    HW114760   2.035   4.102  13.776
70976SOL    HW214761   2.099   4.236  13.744
70977SOL     OW14762  11.524   2.479   4.336
70977SOL    HW114763  11.509   2.513   4.424
70977SOL    HW214764  11.467   2.402   4.331
70978SOL     OW14765   5.853   6.779   9.970
70978SOL    HW114766   5.917   6.739   9.912
70978SOL    HW214767   5.901   6.798  10.051
70979SOL     OW14768   0.056   2.566   6.102
70979SOL    HW114769  14.866   2.632   6.081
70979SOL    HW214770   0.130   2.586   6.046
70980SOL     OW14771  12.794   6.361   4.220
70980SOL    HW114772  12.849   6.312   4.281
70980SOL    HW214773  12.836   6.447   4.213
70981SOL     OW14774   5.707   6.322  14.323
70981SOL    HW114775   5.716   6.333  14.228
70981SOL    HW214776   5.629   6.268  14.333
70982SOL     OW14777   0.562   3.056   4.508
70982SOL    HW114778   0.514   3.122   4.559
70982SOL    HW214779   0.565   3.092   4.420
70983SOL     OW14780   1.029   0.090   4.633
70983SOL    HW114781   1.114   0.130   4.613
70983SOL    HW214782   1.007   0.040   4.554
70984SOL     OW14783  11.350   5.384   6.132
70984SOL    HW114784  11.355   5.293   6.160
70984SOL    HW214785  11.293   5.382   6.055
70985SOL     OW14786   1.959   9.442   1.038
70985SOL    HW114787   2.027   9.374   1.029
70985SOL    HW214788   1.984   9.509   0.974
70986SOL     OW14789  14.305   8.408   3.116
70986SOL    HW114790  14.254   8.392   3.037
70986SOL    HW214791  14.384   8.355   3.104
70987SOL     OW14792  12.050   6.511   6.682
70987SOL    HW114793  12.062   6.461   6.763
70987SOL    HW214794  12.130   6.563   6.674
70988SOL     OW14795  12.683   8.179   5.625
70988SOL    HW114796  12.693   8.116   5.696
70988SOL    HW214797  12.735   8.254   5.652
70989SOL     OW14798  13.549   8.131   5.737
70989SOL    HW114799  13.642   8.122   5.756
70989SOL    HW214800  13.530   8.061   5.675
70990SOL     OW14801   1.473  10.698   7.870
70990SOL    HW114802   1.533  10.712   7.796
70990SOL    HW214803   1.522  10.643   7.930
70991SOL     OW14804   8.601   1.517   5.101
70991SOL    HW114805   8.657   1.450   5.141
70991SOL    HW214806   8.659   1.592   5.088
70992SOL     OW14807   6.847  13.423  13.970
70992SOL    HW114808   6.913  13.449  13.905
70992SOL    HW214809   6.777  13.488  13.961
70993SOL     OW14810   7.274  13.886   6.909
70993SOL    HW114811   7.181  13.900   6.927
70993SOL    HW214812   7.286  13.920   6.820
70994SOL     OW14813  11.457   9.874   4.849
70994SOL    HW114814  11.411   9.908   4.772
70994SOL    HW214815  11.539   9.924   4.852
70995SOL     OW14816   8.882   5.747  10.227
70995SOL    HW114817   8.800   5.791  10.206
70995SOL    HW214818   8.862   5.693  10.303
70996SOL     OW14819   2.264   5.714  14.118
70996SOL    HW114820   2.299   5.800  14.140
70996SOL    HW214821   2.171   5.719  14.141
70997SOL     OW14822   1.075  11.918   0.441
70997SOL    HW114823   1.002  11.904   0.381
70997SOL    HW214824   1.096  12.011   0.434
70998SOL     OW14825   8.638  11.126   6.882
70998SOL    HW114826   8.634  11.058   6.815
70998SOL    HW214827   8.578  11.096   6.950
70999SOL     OW14828  11.127   3.802  13.257
70999SOL    HW114829  11.187   3.859  13.208
70999SOL    HW214830  11.044   3.850  13.257
71000SOL     OW14831  10.114  13.219  14.105
71000SOL    HW114832  10.026  13.216  14.066
71000SOL    HW214833  10.098  13.217  14.200
71001SOL     OW14834   9.913   6.720  14.523
71001SOL    HW114835   9.921   6.648  14.461
71001SOL    HW214836   9.878   6.793  14.472
71002SOL     OW14837   2.095   0.662   5.791
71002SOL    HW114838   2.173   0.716   5.786
71002SOL    HW214839   2.026   0.715   5.750
71003SOL     OW14840  13.141   3.725   3.429
71003SOL    HW114841  13.197   3.715   3.506
71003SOL    HW214842  13.192   3.779   3.369
71004SOL     OW14843   7.352   5.460  10.789
71004SOL    HW114844   7.416   5.402  10.830
71004SOL    HW214845   7.278   5.460  10.850
71005SOL     OW14846   3.226  13.484   2.608
71005SOL    HW114847   3.304  13.515   2.562
71005SOL    HW214848   3.259  13.451   2.692
71006SOL     OW14849   8.162   7.668  13.375
71006SOL    HW114850   8.229   7.605  13.350
71006SOL    HW214851   8.080   7.629  13.342
71007SOL     OW14852  11.967  11.933  12.320
71007SOL    HW114853  11.901  11.966  12.381
71007SOL    HW214854  11.935  11.845  12.296
71008SOL     OW14855   6.126   6.593  13.244
71008SOL    HW114856   6.166   6.549  13.320
71008SOL    HW214857   6.056   6.534  13.216
71009SOL     OW14858   9.112   4.690  12.885
71009SOL    HW114859   9.204   4.715  12.874
71009SOL    HW214860   9.115   4.605  12.928
71010SOL     OW14861  14.200   3.835  14.070
71010SOL    HW114862  14.207   3.894  13.995
71010SOL    HW214863  14.249   3.878  14.140
71011SOL     OW14864   2.763  13.103  10.417
71011SOL    HW114865   2.849  13.143  10.401
71011SOL    HW214866   2.740  13.131  10.505
71012SOL     OW14867   1.392   4.331  13.549
71012SOL    HW114868   1.439   4.331  13.633
71012SOL    HW214869   1.448   4.381  13.490
71013SOL     OW14870  12.021   2.631   0.810
71013SOL    HW114871  12.078   2.595   0.878
71013SOL    HW214872  11.976   2.704   0.852
71014SOL     OW14873   8.978  11.448   3.793
71014SOL    HW114874   9.000  11.355   3.799
71014SOL    HW214875   8.938  11.469   3.877
71015SOL     OW14876  12.564   8.184   8.033
71015SOL    HW114877  12.633   8.142   8.084
71015SOL    HW214878  12.607   8.212   7.952
71016SOL     OW14879   3.047  11.602  12.854
71016SOL    HW114880   3.055  11.507  12.844
71016SOL    HW214881   3.073  11.637  12.769
71017SOL     OW14882   3.056  14.059   4.929
71017SOL    HW114883   3.053  14.147   4.965
71017SOL    HW214884   3.139  14.054   4.883
71018SOL     OW14885   4.594   1.675   2.331
71018SOL    HW114886   4.577   1.678   2.237
71018SOL    HW214887   4.555   1.592   2.360
71019SOL     OW14888   5.410   4.744   2.615
71019SOL    HW114889   5.473   4.705   2.554
71019SOL    HW214890   5.386   4.671   2.673
71020SOL     OW14891   3.549   4.286   8.858
71020SOL    HW114892   3.579   4.209   8.811
71020SOL    HW214893   3.463   4.261   8.893
71021SOL     OW14894   4.435  11.604   7.399
71021SOL    HW114895   4.434  11.594   7.304
71021SOL    HW214896   4.344  11.591   7.426
71022SOL     OW14897  14.092   4.412   6.683
71022SOL    HW114898  14.127   4.444   6.767
71022SOL    HW214899  14.118   4.319   6.680
71023SOL     OW14900  12.840  13.555  11.212
71023SOL    HW114901  12.934  13.575  11.207
71023SOL    HW214902  12.818  13.524  11.124
71024SOL     OW14903   7.141   9.847   1.385
71024SOL    HW114904   7.230   9.848   1.350
71024SOL    HW214905   7.137   9.923   1.442
71025SOL     OW14906  11.815  11.877  10.378
71025SOL    HW114907  11.721  11.892  10.386
71025SOL    HW214908  11.834  11.808  10.441
71026SOL     OW14909   5.696   2.448  11.873
71026SOL    HW114910   5.726   2.390  11.803
71026SOL    HW214911   5.692   2.393  11.950
71027SOL     OW14912   8.076  12.901  10.812
71027SOL    HW114913   8.024  12.829  10.847
71027SOL    HW214914   8.102  12.873  10.724
71028SOL     OW14915   0.658   4.734   1.917
71028SOL    HW114916   0.698   4.663   1.967
71028SOL    HW214917   0.723   4.755   1.849
71029SOL     OW14918   8.828  12.574  12.552
71029SOL    HW114919   8.816  12.627  12.630
71029SOL    HW214920   8.901  12.516  12.573
71030SOL     OW14921   8.245   9.446   4.596
71030SOL    HW114922   8.294   9.364   4.607
71030SOL    HW214923   8.164   9.419   4.551
71031SOL     OW14924   2.069   9.202  13.383
71031SOL    HW114925   2.139   9.165  13.437
71031SOL    HW214926   2.028   9.125  13.342
71032SOL     OW14927   6.125   1.411  10.588
71032SOL    HW114928   6.181   1.479  10.552
71032SOL    HW214929   6.111   1.351  10.515
71033SOL     OW14930  10.231  13.774  12.843
71033SOL    HW114931  10.184  13.824  12.776
71033SOL    HW214932  10.172  13.702  12.864
71034SOL     OW14933   6.435   7.430  14.297
71034SOL    HW114934   6.478   7.506  14.259
71034SOL    HW214935   6.435   7.365  14.227
71035SOL     OW14936  14.832   5.417  11.974
71035SOL    HW114937  14.820   5.434  11.880
71035SOL    HW214938   0.047   5.441  11.991
71036SOL     OW14939   8.073   5.675  13.203
71036SOL    HW114940   8.086   5.638  13.291
71036SOL    HW214941   7.978   5.686  13.196
71037SOL     OW14942   9.165  11.642   3.673
71037SOL    HW114943   9.086  11.594   3.698
71037SOL    HW214944   9.160  11.649   3.577
71038SOL     OW14945   1.384   4.462  11.840
71038SOL    HW114946   1.452   4.526  11.861
71038SOL    HW214947   1.378   4.407  11.919
71039SOL     OW14948  10.277   4.160  13.861
71039SOL    HW114949  10.201   4.127  13.814
71039SOL    HW214950  10.241   4.200  13.940
71040SOL     OW14951   1.559  11.418  12.078
71040SOL    HW114952   1.482  11.438  12.026
71040SOL    HW214953   1.525  11.397  12.165
71041SOL     OW14954  11.714  10.907   6.089
71041SOL    HW114955  11.671  10.871   6.012
71041SOL    HW214956  11.800  10.864   6.091
71042SOL     OW14957   9.944   5.665  10.796
71042SOL    HW114958   9.988   5.749  10.807
71042SOL    HW214959   9.870   5.684  10.738
71043SOL     OW14960   6.993  14.070   2.850
71043SOL    HW114961   6.989  14.083   2.945
71043SOL    HW214962   7.030  14.152   2.816
71044SOL     OW14963   3.745  11.345   3.005
71044SOL    HW114964   3.732  11.282   2.934
71044SOL    HW214965   3.723  11.297   3.084
71045SOL     OW14966  12.956  10.900   3.071
71045SOL    HW114967  12.941  10.994   3.087
71045SOL    HW214968  12.965  10.862   3.158
71046SOL     OW14969  10.407  11.713   4.406
71046SOL    HW114970  10.489  11.700   4.454
71046SOL    HW214971  10.341  11.668   4.459
71047SOL     OW14972   6.840   5.048   6.863
71047SOL    HW114973   6.908   5.088   6.808
71047SOL    HW214974   6.822   5.114   6.930
71048SOL     OW14975  14.743  10.345   3.359
71048SOL    HW114976  14.708  10.354   3.447
71048SOL    HW214977  14.808  10.415   3.351
71049SOL     OW14978   6.068  14.654   1.364
71049SOL    HW114979   6.131  14.593   1.403
71049SOL    HW214980   6.058  14.624   1.274
71050SOL     OW14981   8.354   5.299  11.135
71050SOL    HW114982   8.298   5.376  11.119
71050SOL    HW214983   8.393   5.316  11.221
71051SOL     OW14984   1.556   0.349  10.552
71051SOL    HW114985   1.489   0.292  10.591
71051SOL    HW214986   1.613   0.290  10.503
71052SOL     OW14987   6.516  14.257   2.221
71052SOL    HW114988   6.597  14.237   2.175
71052SOL    HW214989   6.521  14.207   2.302
71053SOL     OW14990   3.515   1.507   1.762
71053SOL    HW114991   3.457   1.500   1.685
71053SOL    HW214992   3.508   1.599   1.789
71054SOL     OW14993   4.898  12.461  14.446
71054SOL    HW114994   4.884  12.367  14.458
71054SOL    HW214995   4.905  12.472  14.351
71055SOL     OW14996  13.037   4.356   7.182
71055SOL    HW114997  13.063   4.431   7.128
71055SOL    HW214998  12.999   4.394   7.260
71056SOL     OW14999   0.983  13.560  12.842
71056SOL    HW115000   1.034  13.577  12.921
71056SOL    HW215001   0.930  13.483  12.865
71057SOL     OW15002  11.865   2.509   7.705
71057SOL    HW115003  11.821   2.444   7.651
71057SOL    HW215004  11.891   2.578   7.644
71058SOL     OW15005   0.288   2.432   5.642
71058SOL    HW115006   0.305   2.357   5.700
71058SOL    HW215007   0.240   2.395   5.569
71059SOL     OW15008   2.817  13.858   2.456
71059SOL    HW115009   2.893  13.915   2.459
71059SOL    HW215010   2.810  13.832   2.364
71060SOL     OW15011  10.941   8.402   0.940
71060SOL    HW115012  10.949   8.348   0.862
71060SOL    HW215013  11.010   8.372   0.998
71061SOL     OW15014   2.873   5.388  13.942
71061SOL    HW115015   2.961   5.421  13.958
71061SOL    HW215016   2.880   5.293  13.954
71062SOL     OW15017  14.460  13.925  13.255
71062SOL    HW115018  14.400  13.877  13.311
71062SOL    HW215019  14.543  13.878  13.262
71063SOL     OW15020  11.725   3.161   8.746
71063SOL    HW115021  11.776   3.105   8.803
71063SOL    HW215022  11.783   3.181   8.673
71064SOL     OW15023   2.715   1.800   2.431
71064SOL    HW115024   2.695   1.731   2.368
71064SOL    HW215025   2.641   1.800   2.491
71065SOL     OW15026  12.206   7.523   6.303
71065SOL    HW115027  12.272   7.538   6.236
71065SOL    HW215028  12.124   7.515   6.255
71066SOL     OW15029   9.599   8.229   3.576
71066SOL    HW115030   9.512   8.269   3.586
71066SOL    HW215031   9.659   8.296   3.608
71067SOL     OW15032  14.452  11.293   2.949
71067SOL    HW115033  14.513  11.219   2.943
71067SOL    HW215034  14.371  11.254   2.982
71068SOL     OW15035  10.327   4.478   2.922
71068SOL    HW115036  10.368   4.401   2.961
71068SOL    HW215037  10.311   4.453   2.831
71069SOL     OW15038  10.775   0.634   8.936
71069SOL    HW115039  10.738   0.615   8.850
71069SOL    HW215040  10.780   0.549   8.979
71070SOL     OW15041  14.616   8.704   6.803
71070SOL    HW115042  14.607   8.780   6.861
71070SOL    HW215043  14.560   8.724   6.728
71071SOL     OW15044   5.617   8.093   8.049
71071SOL    HW115045   5.667   8.127   7.975
71071SOL    HW215046   5.528   8.125   8.034
71072SOL     OW15047   9.221   0.511   5.931
71072SOL    HW115048   9.202   0.460   6.009
71072SOL    HW215049   9.233   0.446   5.862
71073SOL     OW15050   3.540   8.835  12.825
71073SOL    HW115051   3.540   8.783  12.904
71073SOL    HW215052   3.588   8.915  12.848
71074SOL     OW15053   3.101   2.946   8.648
71074SOL    HW115054   3.006   2.939   8.652
71074SOL    HW215055   3.119   3.038   8.667
71075SOL     OW15056   7.282   1.713  10.841
71075SOL    HW115057   7.327   1.731  10.923
71075SOL    HW215058   7.264   1.799  10.803
71076SOL     OW15059   2.503   8.497   5.345
71076SOL    HW115060   2.589   8.523   5.378
71076SOL    HW215061   2.517   8.479   5.252
71077SOL     OW15062  14.600   0.099  14.695
71077SOL    HW115063  14.683   0.145  14.693
71077SOL    HW215064  14.536   0.165  14.723
71078SOL     OW15065  11.983   0.666   1.354
71078SOL    HW115066  11.973   0.741   1.295
71078SOL    HW215067  11.968   0.589   1.299
71079SOL     OW15068   4.682  12.700   7.725
71079SOL    HW115069   4.693  12.702   7.820
71079SOL    HW215070   4.643  12.785   7.703
71080SOL     OW15071   1.725   0.311  11.349
71080SOL    HW115072   1.683   0.354  11.423
71080SOL    HW215073   1.770   0.236  11.386
71081SOL     OW15074   6.174  13.067   9.109
71081SOL    HW115075   6.166  13.153   9.068
71081SOL    HW215076   6.134  13.077   9.195
71082SOL     OW15077   7.550   4.014  13.463
71082SOL    HW115078   7.523   3.938  13.411
71082SOL    HW215079   7.595   3.976  13.538
71083SOL     OW15080   5.872   9.050  13.885
71083SOL    HW115081   5.937   9.075  13.951
71083SOL    HW215082   5.836   8.967  13.918
71084SOL     OW15083  10.274   9.254   5.418
71084SOL    HW115084  10.186   9.223   5.442
71084SOL    HW215085  10.263   9.289   5.330
71085SOL     OW15086   1.042  12.314   6.492
71085SOL    HW115087   1.018  12.343   6.405
71085SOL    HW215088   0.996  12.373   6.551
71086SOL     OW15089  11.722   9.346  12.768
71086SOL    HW115090  11.703   9.257  12.797
71086SOL    HW215091  11.640   9.378  12.732
71087SOL     OW15092   1.535   9.385   5.477
71087SOL    HW115093   1.440   9.374   5.470
71087SOL    HW215094   1.569   9.295   5.481
71088SOL     OW15095  13.742   5.299  14.874
71088SOL    HW115096  13.827   5.329  14.843
71088SOL    HW215097  13.732   5.340   0.084
71089SOL     OW15098  10.521   1.904   8.948
71089SOL    HW115099  10.569   1.871   9.024
71089SOL    HW215100  10.479   1.827   8.911
71090SOL     OW15101   9.068   3.502  13.052
71090SOL    HW115102   9.128   3.518  12.979
71090SOL    HW215103   9.095   3.418  13.087
71091SOL     OW15104   8.504   5.685   7.563
71091SOL    HW115105   8.440   5.649   7.625
71091SOL    HW215106   8.461   5.762   7.526
71092SOL     OW15107   7.648  12.643  11.220
71092SOL    HW115108   7.567  12.690  11.237
71092SOL    HW215109   7.674  12.671  11.132
71093SOL     OW15110   1.803   9.979   2.390
71093SOL    HW115111   1.794  10.072   2.410
71093SOL    HW215112   1.721   9.940   2.423
71094SOL     OW15113   3.450  13.665   3.556
71094SOL    HW115114   3.391  13.623   3.494
71094SOL    HW215115   3.528  13.609   3.557
71095SOL     OW15116  11.297   6.931  10.498
71095SOL    HW115117  11.367   6.963  10.442
71095SOL    HW215118  11.243   7.008  10.515
71096SOL     OW15119  10.694  10.151  13.147
71096SOL    HW115120  10.671  10.101  13.069
71096SOL    HW215121  10.652  10.236  13.135
71097SOL     OW15122   5.874   3.869  13.381
71097SOL    HW115123   5.958   3.886  13.340
71097SOL    HW215124   5.857   3.776  13.362
71098SOL     OW15125  13.886   1.262  13.961
71098SOL    HW115126  13.889   1.347  14.005
71098SOL    HW215127  13.796   1.231  13.973
71099SOL     OW15128   7.445   8.617   6.928
71099SOL    HW115129   7.489   8.701   6.913
71099SOL    HW215130   7.474   8.561   6.855
71100SOL     OW15131   7.125   2.865   7.683
71100SOL    HW115132   7.031   2.850   7.688
71100SOL    HW215133   7.161   2.818   7.759
71101SOL     OW15134   0.404  12.919   9.731
71101SOL    HW115135   0.422  12.916   9.637
71101SOL    HW215136   0.315  12.885   9.740
71102SOL     OW15137   0.070  11.390  13.980
71102SOL    HW115138   0.163  11.394  14.002
71102SOL    HW215139   0.037  11.315  14.031
71103SOL     OW15140  10.091  11.557   0.159
71103SOL    HW115141  10.148  11.569   0.082
71103SOL    HW215142  10.062  11.645   0.182
71104SOL     OW15143   0.228  13.508  13.068
71104SOL    HW115144   0.174  13.582  13.042
71104SOL    HW215145   0.279  13.539  13.143
71105SOL     OW15146   8.825   1.905  10.768
71105SOL    HW115147   8.905   1.956  10.758
71105SOL    HW215148   8.757   1.959  10.727
71106SOL     OW15149   3.379   0.516   4.083
71106SOL    HW115150   3.357   0.608   4.099
71106SOL    HW215151   3.473   0.510   4.100
71107SOL     OW15152   1.882   7.948   8.238
71107SOL    HW115153   1.919   7.874   8.287
71107SOL    HW215154   1.829   7.907   8.170
71108SOL     OW15155   9.602   3.273   2.960
71108SOL    HW115156   9.599   3.246   3.052
71108SOL    HW215157   9.691   3.252   2.932
71109SOL     OW15158   8.999  11.852  12.455
71109SOL    HW115159   9.023  11.940  12.483
71109SOL    HW215160   9.081  11.803  12.457
71110SOL     OW15161   1.110   7.613   6.904
71110SOL    HW115162   1.066   7.695   6.926
71110SOL    HW215163   1.065   7.581   6.826
71111SOL     OW15164   1.274   6.684  13.679
71111SOL    HW115165   1.249   6.758  13.734
71111SOL    HW215166   1.332   6.721  13.613
71112SOL     OW15167  11.738  13.849  12.460
71112SOL    HW115168  11.771  13.903  12.388
71112SOL    HW215169  11.691  13.778  12.416
71113SOL     OW15170  13.485   7.706  14.385
71113SOL    HW115171  13.514   7.687  14.296
71113SOL    HW215172  13.432   7.785  14.377
71114SOL     OW15173   3.027   3.091   5.427
71114SOL    HW115174   3.000   3.060   5.340
71114SOL    HW215175   3.028   3.187   5.418
71115SOL     OW15176   3.991   9.292   9.393
71115SOL    HW115177   4.015   9.342   9.315
71115SOL    HW215178   3.984   9.201   9.362
71116SOL     OW15179   7.065   9.826   2.735
71116SOL    HW115180   7.065   9.897   2.671
71116SOL    HW215181   7.158   9.810   2.753
71117SOL     OW15182   4.209   8.808  14.071
71117SOL    HW115183   4.174   8.720  14.063
71117SOL    HW215184   4.212   8.841  13.981
71118SOL     OW15185  14.629   6.085  12.968
71118SOL    HW115186  14.725   6.081  12.961
71118SOL    HW215187  14.600   6.004  12.925
71119SOL     OW15188  10.814   8.825   2.981
71119SOL    HW115189  10.820   8.887   2.908
71119SOL    HW215190  10.736   8.852   3.029
71120SOL     OW15191   3.805   9.631  12.018
71120SOL    HW115192   3.819   9.574  12.094
71120SOL    HW215193   3.710   9.647  12.018
71121SOL     OW15194  14.551   9.061  10.245
71121SOL    HW115195  14.580   8.990  10.188
71121SOL    HW215196  14.631   9.109  10.266
71122SOL     OW15197   2.962   0.366  13.044
71122SOL    HW115198   2.912   0.336  13.119
71122SOL    HW215199   2.995   0.285  13.003
71123SOL     OW15200   9.942   3.346   9.579
71123SOL    HW115201   9.856   3.386   9.589
71123SOL    HW215202   9.975   3.337   9.669
71124SOL     OW15203   8.383   0.231   6.986
71124SOL    HW115204   8.429   0.251   6.904
71124SOL    HW215205   8.311   0.173   6.959
71125SOL     OW15206  10.919   2.506   5.187
71125SOL    HW115207  10.949   2.518   5.097
71125SOL    HW215208  10.826   2.528   5.185
71126SOL     OW15209   9.659   9.260  13.980
71126SOL    HW115210   9.753   9.249  13.995
71126SOL    HW215211   9.640   9.206  13.903
71127SOL     OW15212  10.168   7.366   7.517
71127SOL    HW115213  10.152   7.430   7.448
71127SOL    HW215214  10.252   7.326   7.494
71128SOL     OW15215   3.973  12.669   3.478
71128SOL    HW115216   3.913  12.738   3.506
71128SOL    HW215217   3.945  12.647   3.389
71129SOL     OW15218  14.341  12.295   0.716
71129SOL    HW115219  14.378  12.214   0.680
71129SOL    HW215220  14.285  12.329   0.647
71130SOL     OW15221   8.428   2.356  13.945
71130SOL    HW115222   8.391   2.274  13.911
71130SOL    HW215223   8.381   2.424  13.897
71131SOL     OW15224   5.915  14.018   5.320
71131SOL    HW115225   5.880  13.958   5.386
71131SOL    HW215226   6.008  13.998   5.317
71132SOL     OW15227   6.943   4.713   3.411
71132SOL    HW115228   6.959   4.621   3.432
71132SOL    HW215229   7.006   4.762   3.464
71133SOL     OW15230  13.849   0.174   8.324
71133SOL    HW115231  13.789   0.218   8.263
71133SOL    HW215232  13.936   0.202   8.296
71134SOL     OW15233   5.347   4.789   7.356
71134SOL    HW115234   5.419   4.729   7.376
71134SOL    HW215235   5.315   4.818   7.441
71135SOL     OW15236  11.176   3.469  10.312
71135SOL    HW115237  11.201   3.383  10.346
71135SOL    HW215238  11.081   3.472  10.322
71136SOL     OW15239  14.268   6.200   2.273
71136SOL    HW115240  14.203   6.211   2.342
71136SOL    HW215241  14.266   6.107   2.252
71137SOL     OW15242   8.855  10.249   1.841
71137SOL    HW115243   8.779  10.297   1.872
71137SOL    HW215244   8.875  10.187   1.911
71138SOL     OW15245   2.885   1.292  10.449
71138SOL    HW115246   2.895   1.197  10.456
71138SOL    HW215247   2.871   1.321  10.539
71139SOL     OW15248   5.153  10.458  11.760
71139SOL    HW115249   5.080  10.481  11.703
71139SOL    HW215250   5.177  10.540  11.803
71140SOL     OW15251  11.490   4.173   4.383
71140SOL    HW115252  11.578   4.138   4.369
71140SOL    HW215253  11.452   4.179   4.295
71141SOL     OW15254   9.565  13.386   9.997
71141SOL    HW115255   9.659  13.393  10.017
71141SOL    HW215256   9.522  13.411  10.078
71142SOL     OW15257   3.094   0.531   8.051
71142SOL    HW115258   3.082   0.621   8.019
71142SOL    HW215259   3.074   0.536   8.144
71143SOL     OW15260  13.452   9.815   3.948
71143SOL    HW115261  13.413   9.743   3.900
71143SOL    HW215262  13.420   9.806   4.037
71144SOL     OW15263   8.942   5.593  14.803
71144SOL    HW115264   8.856   5.625  14.829
71144SOL    HW215265   8.931   5.567  14.711
71145SOL     OW15266   3.502   5.050   3.067
71145SOL    HW115267   3.444   5.008   3.003
71145SOL    HW215268   3.579   4.994   3.071
71146SOL     OW15269  10.599   4.604   3.898
71146SOL    HW115270  10.676   4.551   3.875
71146SOL    HW215271  10.636   4.688   3.924
71147SOL     OW15272  10.101  12.922  14.519
71147SOL    HW115273  10.040  12.857  14.553
71147SOL    HW215274  10.167  12.932  14.588
71148SOL     OW15275   3.628   8.633  12.331
71148SOL    HW115276   3.583   8.656  12.250
71148SOL    HW215277   3.599   8.700  12.394
71149SOL     OW15278  10.833  14.200   6.809
71149SOL    HW115279  10.887  14.250   6.748
71149SOL    HW215280  10.857  14.109   6.792
71150SOL     OW15281   7.800  10.126   0.310
71150SOL    HW115282   7.878  10.178   0.329
71150SOL    HW215283   7.820  10.040   0.347
71151SOL     OW15284  10.510   5.616   1.696
71151SOL    HW115285  10.428   5.568   1.710
71151SOL    HW215286  10.486   5.708   1.710
71152SOL     OW15287   0.861   1.726  10.408
71152SOL    HW115288   0.921   1.765  10.345
71152SOL    HW215289   0.813   1.660  10.358
71153SOL     OW15290   9.728   3.028   4.381
71153SOL    HW115291   9.759   2.954   4.433
71153SOL    HW215292   9.802   3.051   4.325
71154SOL     OW15293   6.945  10.695   5.493
71154SOL    HW115294   6.898  10.645   5.560
71154SOL    HW215295   6.888  10.691   5.416
71155SOL     OW15296   9.645   9.132  10.218
71155SOL    HW115297   9.732   9.144  10.256
71155SOL    HW215298   9.595   9.207  10.249
71156SOL     OW15299   3.805  11.303   6.412
71156SOL    HW115300   3.764  11.355   6.342
71156SOL    HW215301   3.764  11.336   6.492
71157SOL     OW15302   8.972   1.638   1.574
71157SOL    HW115303   8.901   1.684   1.619
71157SOL    HW215304   8.929   1.593   1.501
71158SOL     OW15305  11.279   5.806   9.440
71158SOL    HW115306  11.263   5.766   9.526
71158SOL    HW215307  11.192   5.832   9.409
71159SOL     OW15308   4.015   9.653  12.216
71159SOL    HW115309   3.967   9.655  12.299
71159SOL    HW215310   4.001   9.565  12.182
71160SOL     OW15311  14.259  13.221  10.269
71160SOL    HW115312  14.238  13.138  10.226
71160SOL    HW215313  14.355  13.221  10.275
71161SOL     OW15314   2.054  14.011  14.481
71161SOL    HW115315   1.996  13.989  14.408
71161SOL    HW215316   2.140  13.977  14.456
71162SOL     OW15317   9.660   6.520  11.279
71162SOL    HW115318   9.748   6.486  11.260
71162SOL    HW215319   9.607   6.441  11.290
71163SOL     OW15320  11.250   1.422   3.903
71163SOL    HW115321  11.156   1.432   3.915
71163SOL    HW215322  11.289   1.480   3.969
71164SOL     OW15323   8.187   5.989  10.191
71164SOL    HW115324   8.107   5.964  10.238
71164SOL    HW215325   8.163   6.070  10.146
71165SOL     OW15326  14.519   1.601  13.772
71165SOL    HW115327  14.479   1.525  13.814
71165SOL    HW215328  14.606   1.607  13.811
71166SOL     OW15329   3.478   7.931   2.082
71166SOL    HW115330   3.398   7.886   2.055
71166SOL    HW215331   3.479   8.012   2.030
71167SOL     OW15332   3.200  12.983  10.770
71167SOL    HW115333   3.243  12.906  10.731
71167SOL    HW215334   3.199  12.963  10.864
71168SOL     OW15335  11.350   8.260   4.837
71168SOL    HW115336  11.342   8.346   4.795
71168SOL    HW215337  11.421   8.217   4.789
71169SOL     OW15338  12.054   3.434  10.263
71169SOL    HW115339  12.012   3.519  10.276
71169SOL    HW215340  12.109   3.423  10.341
71170SOL     OW15341   4.007  12.616  14.259
71170SOL    HW115342   3.911  12.618  14.268
71170SOL    HW215343   4.030  12.525  14.277
71171SOL     OW15344   5.442   0.118  12.585
71171SOL    HW115345   5.512   0.064  12.623
71171SOL    HW215346   5.449   0.202  12.630
71172SOL     OW15347   2.784  11.437   9.085
71172SOL    HW115348   2.873  11.426   9.051
71172SOL    HW215349   2.742  11.353   9.070
71173SOL     OW15350   1.353  13.962  12.161
71173SOL    HW115351   1.380  13.889  12.216
71173SOL    HW215352   1.264  13.939  12.133
71174SOL     OW15353   8.887   0.507   4.079
71174SOL    HW115354   8.893   0.534   4.171
71174SOL    HW215355   8.875   0.589   4.031
71175SOL     OW15356   5.681   7.040   3.046
71175SOL    HW115357   5.654   7.102   2.979
71175SOL    HW215358   5.606   7.033   3.104
71176SOL     OW15359   0.898  13.654   7.676
71176SOL    HW115360   0.814  13.691   7.704
71176SOL    HW215361   0.889  13.641   7.582
71177SOL     OW15362   8.713  11.289  12.792
71177SOL    HW115363   8.647  11.357  12.781
71177SOL    HW215364   8.797  11.334  12.779
71178SOL     OW15365   0.954   9.519   4.467
71178SOL    HW115366   0.953   9.613   4.450
71178SOL    HW215367   0.865   9.490   4.448
71179SOL     OW15368   7.468  11.497  14.464
71179SOL    HW115369   7.375  11.520  14.459
71179SOL    HW215370   7.468  11.401  14.456
71180SOL     OW15371  12.516   5.508   1.249
71180SOL    HW115372  12.426   5.531   1.272
71180SOL    HW215373  12.569   5.570   1.299
71181SOL     OW15374   3.115   2.960   9.584
71181SOL    HW115375   3.188   2.958   9.646
71181SOL    HW215376   3.154   2.931   9.501
71182SOL     OW15377   5.998   6.453   4.892
71182SOL    HW115378   6.022   6.367   4.859
71182SOL    HW215379   5.934   6.435   4.961
71183SOL     OW15380  12.798   8.434   5.627
71183SOL    HW115381  12.828   8.467   5.711
71183SOL    HW215382  12.821   8.504   5.565
71184SOL     OW15383   9.059   1.378   4.724
71184SOL    HW115384   9.109   1.380   4.806
71184SOL    HW215385   8.969   1.362   4.752
71185SOL     OW15386  14.018  12.406   3.287
71185SOL    HW115387  13.938  12.457   3.294
71185SOL    HW215388  14.024  12.383   3.194
71186SOL     OW15389   0.191   7.792  14.353
71186SOL    HW115390   0.140   7.723  14.311
71186SOL    HW215391   0.136   7.824  14.424
71187SOL     OW15392  10.453   1.156  13.166
71187SOL    HW115393  10.542   1.123  13.168
71187SOL    HW215394  10.403   1.095  13.220
71188SOL     OW15395   0.572   2.405   3.305
71188SOL    HW115396   0.603   2.362   3.385
71188SOL    HW215397   0.523   2.481   3.335
71189SOL     OW15398  12.186   3.180  10.748
71189SOL    HW115399  12.141   3.235  10.684
71189SOL    HW215400  12.116   3.138  10.797
71190SOL     OW15401  10.930   8.290   9.946
71190SOL    HW115402  10.850   8.276   9.894
71190SOL    HW215403  10.898   8.302  10.035
71191SOL     OW15404   0.568   6.235   9.233
71191SOL    HW115405   0.588   6.317   9.187
71191SOL    HW215406   0.579   6.167   9.167
71192SOL     OW15407   9.213   8.025   6.927
71192SOL    HW115408   9.170   8.110   6.934
71192SOL    HW215409   9.145   7.962   6.951
71193SOL     OW15410   5.814  11.297   3.273
71193SOL    HW115411   5.841  11.388   3.284
71193SOL    HW215412   5.719  11.299   3.288
71194SOL     OW15413   1.056   6.557  11.953
71194SOL    HW115414   1.149   6.578  11.940
71194SOL    HW215415   1.032   6.505  11.876
71195SOL     OW15416   9.960   9.672  12.931
71195SOL    HW115417   9.922   9.757  12.950
71195SOL    HW215418  10.004   9.647  13.013
71196SOL     OW15419   7.206  11.072   8.299
71196SOL    HW115420   7.244  11.159   8.305
71196SOL    HW215421   7.222  11.032   8.385
71197SOL     OW15422   0.107   1.951  12.189
71197SOL    HW115423   0.177   1.928  12.250
71197SOL    HW215424   0.141   1.928  12.103
71198SOL     OW15425  11.681   3.189   3.469
71198SOL    HW115426  11.718   3.269   3.506
71198SOL    HW215427  11.706   3.121   3.532
71199SOL     OW15428   5.805  14.682   6.474
71199SOL    HW115429   5.897  14.699   6.454
71199SOL    HW215430   5.759  14.701   6.393
71200SOL     OW15431   2.153  12.200  10.269
71200SOL    HW115432   2.066  12.208  10.232
71200SOL    HW215433   2.146  12.240  10.356
71201SOL     OW15434   9.637   1.931   6.873
71201SOL    HW115435   9.722   1.921   6.829
71201SOL    HW215436   9.660   1.957   6.963
71202SOL     OW15437   4.225   2.570   7.201
71202SOL    HW115438   4.229   2.642   7.138
71202SOL    HW215439   4.154   2.595   7.260
71203SOL     OW15440   4.678   9.017   4.137
71203SOL    HW115441   4.680   8.922   4.127
71203SOL    HW215442   4.742   9.035   4.206
71204SOL     OW15443  14.007   8.134   3.077
71204SOL    HW115444  13.916   8.117   3.052
71204SOL    HW215445  14.018   8.084   3.158
71205SOL     OW15446   4.463   3.007   3.962
71205SOL    HW115447   4.420   3.011   4.047
71205SOL    HW215448   4.425   3.078   3.911
71206SOL     OW15449   6.436  14.822   6.945
71206SOL    HW115450   6.512  14.782   6.986
71206SOL    HW215451   6.391  14.867   7.017
71207SOL     OW15452   6.840   5.413   6.602
71207SOL    HW115453   6.810   5.504   6.609
71207SOL    HW215454   6.877   5.394   6.689
71208SOL     OW15455  13.621  12.893   8.386
71208SOL    HW115456  13.614  12.953   8.312
71208SOL    HW215457  13.672  12.942   8.451
71209SOL     OW15458   2.318  12.543   5.846
71209SOL    HW115459   2.227  12.515   5.849
71209SOL    HW215460   2.334  12.566   5.754
71210SOL     OW15461  12.242   0.327   5.040
71210SOL    HW115462  12.177   0.298   5.104
71210SOL    HW215463  12.317   0.356   5.093
71211SOL     OW15464  14.010   3.947   2.292
71211SOL    HW115465  14.006   3.859   2.255
71211SOL    HW215466  13.966   3.940   2.376
71212SOL     OW15467   4.074  12.054   3.437
71212SOL    HW115468   4.123  12.018   3.363
71212SOL    HW215469   4.034  12.134   3.403
71213SOL     OW15470   0.605  13.349  10.035
71213SOL    HW115471   0.668  13.298  10.084
71213SOL    HW215472   0.590  13.427  10.088
71214SOL     OW15473  10.981   4.201   7.037
71214SOL    HW115474  10.973   4.106   7.033
71214SOL    HW215475  10.895   4.232   7.066
71215SOL     OW15476   8.897   6.820   5.139
71215SOL    HW115477   8.897   6.742   5.194
71215SOL    HW215478   8.980   6.817   5.092
71216SOL     OW15479   0.931   0.039   0.937
71216SOL    HW115480   0.930  14.853   1.010
71216SOL    HW215481   0.860   0.100   0.956
71217SOL     OW15482  11.819   0.633   0.383
71217SOL    HW115483  11.797   0.722   0.358
71217SOL    HW215484  11.742   0.601   0.430
71218SOL     OW15485   8.661   0.619  13.914
71218SOL    HW115486   8.607   0.554  13.869
71218SOL    HW215487   8.743   0.574  13.934
71219SOL     OW15488   6.429  13.200  12.633
71219SOL    HW115489   6.416  13.113  12.595
71219SOL    HW215490   6.357  13.210  12.695
71220SOL     OW15491   1.907   1.746   6.773
71220SOL    HW115492   1.874   1.784   6.855
71220SOL    HW215493   1.898   1.817   6.709
71221SOL     OW15494  13.806   1.540   7.433
71221SOL    HW115495  13.724   1.588   7.447
71221SOL    HW215496  13.811   1.479   7.507
71222SOL     OW15497   8.091   5.569   3.840
71222SOL    HW115498   8.064   5.548   3.751
71222SOL    HW215499   8.185   5.587   3.833
71223SOL     OW15500  11.372  13.093   1.191
71223SOL    HW115501  11.375  13.020   1.129
71223SOL    HW215502  11.348  13.169   1.138
71224SOL     OW15503   3.621  13.768   6.257
71224SOL    HW115504   3.606  13.731   6.344
71224SOL    HW215505   3.534  13.788   6.223
71225SOL     OW15506  14.290   7.169  13.761
71225SOL    HW115507  14.284   7.229  13.688
71225SOL    HW215508  14.383   7.169  13.784
71226SOL     OW15509   9.756   0.003  13.594
71226SOL    HW115510   9.670  14.874  13.551
71226SOL    HW215511   9.780  14.787  13.608
71227SOL     OW15512   1.598  14.278   6.520
71227SOL    HW115513   1.658  14.353   6.521
71227SOL    HW215514   1.533  14.299   6.588
71228SOL     OW15515  11.564   3.696  13.739
71228SOL    HW115516  11.479   3.682  13.781
71228SOL    HW215517  11.584   3.789  13.754
71229SOL     OW15518   7.955  10.282  10.763
71229SOL    HW115519   7.969  10.215  10.830
71229SOL    HW215520   7.860  10.290  10.757
71230SOL     OW15521  12.515   3.027  12.628
71230SOL    HW115522  12.454   2.956  12.609
71230SOL    HW215523  12.491   3.057  12.716
71231SOL     OW15524  10.176   2.785  10.034
71231SOL    HW115525  10.255   2.812  10.080
71231SOL    HW215526  10.107   2.844  10.067
71232SOL     OW15527   1.127  11.342  13.931
71232SOL    HW115528   1.129  11.432  13.899
71232SOL    HW215529   1.038  11.311  13.910
71233SOL     OW15530   0.995   0.270   9.598
71233SOL    HW115531   0.942   0.225   9.532
71233SOL    HW215532   1.059   0.320   9.546
71234SOL     OW15533  10.991   2.705   7.157
71234SOL    HW115534  10.991   2.627   7.212
71234SOL    HW215535  10.913   2.696   7.103
71235SOL     OW15536   6.603  13.643  10.713
71235SOL    HW115537   6.541  13.713  10.689
71235SOL    HW215538   6.556  13.562  10.695
71236SOL     OW15539   1.659   2.207   9.335
71236SOL    HW115540   1.629   2.237   9.421
71236SOL    HW215541   1.742   2.164   9.352
71237SOL     OW15542   9.096   1.708  11.597
71237SOL    HW115543   9.029   1.710  11.529
71237SOL    HW215544   9.093   1.795  11.636
71238SOL     OW15545   6.222   5.395   7.374
71238SOL    HW115546   6.313   5.423   7.363
71238SOL    HW215547   6.178   5.424   7.294
71239SOL     OW15548   7.049  10.010   0.602
71239SOL    HW115549   7.109  10.085   0.599
71239SOL    HW215550   7.032   9.997   0.696
71240SOL     OW15551   4.845  11.635   9.158
71240SOL    HW115552   4.853  11.555   9.209
71240SOL    HW215553   4.910  11.694   9.196
71241SOL     OW15554   0.017   1.483  10.410
71241SOL    HW115555  14.839   1.424  10.357
71241SOL    HW215556   0.069   1.531  10.346
71242SOL     OW15557   8.999  10.152   8.422
71242SOL    HW115558   9.017  10.083   8.358
71242SOL    HW215559   9.085  10.177   8.455
71243SOL     OW15560   0.779   9.499   1.037
71243SOL    HW115561   0.823   9.438   0.977
71243SOL    HW215562   0.706   9.534   0.986
71244SOL     OW15563   9.127  12.276  14.658
71244SOL    HW115564   9.216  12.303  14.633
71244SOL    HW215565   9.075  12.356  14.653
71245SOL     OW15566   1.615   6.448   8.204
71245SOL    HW115567   1.695   6.491   8.234
71245SOL    HW215568   1.569   6.516   8.154
71246SOL     OW15569   6.383  12.591   5.403
71246SOL    HW115570   6.410  12.600   5.494
71246SOL    HW215571   6.295  12.629   5.400
71247SOL     OW15572   2.403   8.427  12.976
71247SOL    HW115573   2.480   8.377  12.950
71247SOL    HW215574   2.373   8.469  12.896
71248SOL     OW15575   9.333   2.994   8.689
71248SOL    HW115576   9.259   2.956   8.736
71248SOL    HW215577   9.324   2.963   8.599
71249SOL     OW15578   1.239   0.498  11.878
71249SOL    HW115579   1.225   0.405  11.895
71249SOL    HW215580   1.307   0.500  11.811
71250SOL     OW15581   3.928   9.664  13.253
71250SOL    HW115582   3.982   9.741  13.271
71250SOL    HW215583   3.839   9.691  13.274
71251SOL     OW15584   8.614   7.526   3.804
71251SOL    HW115585   8.563   7.524   3.723
71251SOL    HW215586   8.645   7.617   3.810
71252SOL     OW15587   8.062  12.018   4.678
71252SOL    HW115588   7.971  12.002   4.653
71252SOL    HW215589   8.064  12.110   4.703
71253SOL     OW15590   7.305   0.855   5.230
71253SOL    HW115591   7.249   0.822   5.301
71253SOL    HW215592   7.245   0.879   5.160
71254SOL     OW15593   4.665   8.011   8.149
71254SOL    HW115594   4.736   7.953   8.121
71254SOL    HW215595   4.659   8.076   8.079
71255SOL     OW15596   1.107  11.595   3.671
71255SOL    HW115597   1.084  11.686   3.651
71255SOL    HW215598   1.200  11.589   3.651
71256SOL     OW15599  11.081   7.827  13.798
71256SOL    HW115600  11.054   7.858  13.884
71256SOL    HW215601  11.078   7.732  13.804
71257SOL     OW15602  13.175   4.629  10.004
71257SOL    HW115603  13.199   4.722  10.014
71257SOL    HW215604  13.256   4.581  10.023
71258SOL     OW15605  13.516  10.548  10.586
71258SOL    HW115606  13.514  10.472  10.644
71258SOL    HW215607  13.425  10.575  10.578
71259SOL     OW15608  12.261  11.157  10.633
71259SOL    HW115609  12.172  11.156  10.669
71259SOL    HW215610  12.253  11.110  10.550
71260SOL     OW15611   0.568   1.742   2.360
71260SOL    HW115612   0.548   1.680   2.431
71260SOL    HW215613   0.628   1.805   2.399
71261SOL     OW15614   8.840   8.556   3.986
71261SOL    HW115615   8.801   8.534   3.902
71261SOL    HW215616   8.766   8.562   4.046
71262SOL     OW15617   1.403   8.404  10.739
71262SOL    HW115618   1.441   8.319  10.762
71262SOL    HW215619   1.471   8.468  10.762
71263SOL     OW15620  11.296   9.474   2.033
71263SOL    HW115621  11.340   9.557   2.051
71263SOL    HW215622  11.250   9.489   1.950
71264SOL     OW15623   5.905   1.517   1.533
71264SOL    HW115624   5.987   1.547   1.573
71264SOL    HW215625   5.898   1.570   1.453
71265SOL     OW15626   3.648   0.065   9.215
71265SOL    HW115627   3.580   0.098   9.157
71265SOL    HW215628   3.661   0.135   9.279
71266SOL     OW15629  14.353   4.606   3.138
71266SOL    HW115630  14.369   4.618   3.045
71266SOL    HW215631  14.346   4.512   3.150
71267SOL     OW15632   0.468   4.437   5.856
71267SOL    HW115633   0.515   4.429   5.939
71267SOL    HW215634   0.381   4.468   5.880
71268SOL     OW15635   3.896   9.216   1.735
71268SOL    HW115636   3.983   9.220   1.775
71268SOL    HW215637   3.897   9.285   1.668
71269SOL     OW15638   4.474  11.039  13.598
71269SOL    HW115639   4.530  10.979  13.550
71269SOL    HW215640   4.387  11.028  13.559
71270SOL     OW15641   7.330   3.255  12.355
71270SOL    HW115642   7.344   3.343  12.321
71270SOL    HW215643   7.385   3.250  12.433
71271SOL     OW15644   9.534   3.607   6.802
71271SOL    HW115645   9.529   3.654   6.719
71271SOL    HW215646   9.601   3.540   6.788
71272SOL     OW15647   9.844  12.605   5.234
71272SOL    HW115648   9.896  12.685   5.227
71272SOL    HW215649   9.756  12.631   5.207
71273SOL     OW15650   4.767   9.958   3.133
71273SOL    HW115651   4.688  10.008   3.113
71273SOL    HW215652   4.779   9.900   3.058
71274SOL     OW15653  14.818  11.039  12.717
71274SOL    HW115654  14.749  10.973  12.724
71274SOL    HW215655  14.862  11.018  12.635
71275SOL     OW15656   1.945   2.418   7.446
71275SOL    HW115657   1.969   2.487   7.507
71275SOL    HW215658   1.859   2.388   7.476
71276SOL     OW15659  10.842   1.611   6.604
71276SOL    HW115660  10.803   1.552   6.539
71276SOL    HW215661  10.773   1.674   6.624
71277SOL     OW15662   6.348   2.814  12.326
71277SOL    HW115663   6.287   2.809  12.252
71277SOL    HW215664   6.300   2.862  12.394
71278SOL     OW15665   9.318   2.178   3.098
71278SOL    HW115666   9.247   2.194   3.036
71278SOL    HW215667   9.284   2.111   3.157
71279SOL     OW15668   9.115   0.336   4.047
71279SOL    HW115669   9.055   0.405   4.074
71279SOL    HW215670   9.132   0.287   4.128
71280SOL     OW15671  14.473   4.613   7.788
71280SOL    HW115672  14.469   4.628   7.882
71280SOL    HW215673  14.408   4.545   7.771
71281SOL     OW15674   9.466   8.617   2.907
71281SOL    HW115675   9.500   8.591   2.993
71281SOL    HW215676   9.512   8.561   2.845
71282SOL     OW15677   4.732   3.487   2.729
71282SOL    HW115678   4.787   3.412   2.751
71282SOL    HW215679   4.668   3.452   2.666
71283SOL     OW15680   1.071   8.193  10.219
71283SOL    HW115681   1.163   8.176  10.201
71283SOL    HW215682   1.023   8.136  10.159
71284SOL     OW15683   1.989   5.833   9.965
71284SOL    HW115684   1.963   5.751  10.007
71284SOL    HW215685   1.997   5.812   9.872
71285SOL     OW15686   6.838   0.655   5.354
71285SOL    HW115687   6.766   0.593   5.365
71285SOL    HW215688   6.816   0.703   5.274
71286SOL     OW15689   6.077   8.179   2.174
71286SOL    HW115690   6.096   8.085   2.167
71286SOL    HW215691   6.139   8.220   2.114
71287SOL     OW15692  13.384   8.805   5.218
71287SOL    HW115693  13.292   8.782   5.233
71287SOL    HW215694  13.383   8.853   5.135
71288SOL     OW15695   7.959   5.853  10.834
71288SOL    HW115696   7.940   5.944  10.813
71288SOL    HW215697   7.885   5.824  10.887
71289SOL     OW15698   2.800   4.026   3.236
71289SOL    HW115699   2.811   3.953   3.297
71289SOL    HW215700   2.708   4.051   3.244
71290SOL     OW15701   0.640   4.409  10.854
71290SOL    HW115702   0.690   4.426  10.774
71290SOL    HW215703   0.626   4.496  10.891
71291SOL     OW15704   6.773   7.271   9.985
71291SOL    HW115705   6.701   7.238  10.040
71291SOL    HW215706   6.823   7.329  10.043
71292SOL     OW15707   2.669   1.962   5.361
71292SOL    HW115708   2.663   1.876   5.320
71292SOL    HW215709   2.579   1.992   5.369
71293SOL     OW15710  11.857   0.690   7.777
71293SOL    HW115711  11.806   0.622   7.821
71293SOL    HW215712  11.849   0.669   7.684
71294SOL     OW15713  11.484   0.175   0.064
71294SOL    HW115714  11.526   0.241   0.009
71294SOL    HW215715  11.485   0.213   0.152
71295SOL     OW15716   6.801   5.870  10.571
71295SOL    HW115717   6.788   5.958  10.535
71295SOL    HW215718   6.834   5.819  10.497
71296SOL     OW15719   6.088   0.368   3.943
71296SOL    HW115720   6.111   0.323   3.862
71296SOL    HW215721   6.169   0.411   3.970
71297SOL     OW15722   5.769   7.959  12.723
71297SOL    HW115723   5.781   7.872  12.684
71297SOL    HW215724   5.739   8.014  12.650
71298SOL     OW15725  13.033   4.700  10.548
71298SOL    HW115726  13.067   4.616  10.578
71298SOL    HW215727  12.967   4.723  10.612
71299SOL     OW15728  10.714   9.220   7.554
71299SOL    HW115729  10.690   9.308   7.525
71299SOL    HW215730  10.716   9.168   7.474
71300SOL     OW15731  11.858   9.557  13.335
71300SOL    HW115732  11.773   9.596  13.313
71300SOL    HW215733  11.850   9.533  13.427
71301SOL     OW15734   4.763  10.469   6.645
71301SOL    HW115735   4.841  10.508   6.684
71301SOL    HW215736   4.797  10.401   6.586
71302SOL     OW15737   8.709   3.984  13.011
71302SOL    HW115738   8.677   3.902  13.049
71302SOL    HW215739   8.747   3.959  12.927
71303SOL     OW15740  11.623   1.904   7.445
71303SOL    HW115741  11.622   1.861   7.359
71303SOL    HW215742  11.711   1.886   7.479
71304SOL     OW15743  13.326   9.252  13.958
71304SOL    HW115744  13.400   9.217  14.009
71304SOL    HW215745  13.335   9.212  13.872
71305SOL     OW15746  10.666  10.457   0.649
71305SOL    HW115747  10.743  10.441   0.595
71305SOL    HW215748  10.698  10.506   0.724
71306SOL     OW15749   4.540   0.917   7.582
71306SOL    HW115750   4.570   0.978   7.515
71306SOL    HW215751   4.450   0.896   7.556
71307SOL     OW15752   9.903   2.746   4.703
71307SOL    HW115753   9.828   2.761   4.646
71307SOL    HW215754   9.946   2.831   4.709
71308SOL     OW15755  14.623  11.138   1.446
71308SOL    HW115756  14.528  11.140   1.453
71308SOL    HW215757  14.648  11.055   1.488
71309SOL     OW15758  14.388   0.168  10.434
71309SOL    HW115759  14.478   0.199  10.431
71309SOL    HW215760  14.351   0.207  10.513
71310SOL     OW15761   5.195   3.915   5.112
71310SOL    HW115762   5.243   3.968   5.176
71310SOL    HW215763   5.201   3.965   5.031
71311SOL     OW15764   8.055  13.447  12.216
71311SOL    HW115765   8.142  13.424  12.247
71311SOL    HW215766   8.022  13.367  12.174
71312SOL     OW15767  13.906   4.764   6.780
71312SOL    HW115768  13.968   4.806   6.721
71312SOL    HW215769  13.932   4.672   6.782
71313SOL     OW15770   5.387  12.629   5.507
71313SOL    HW115771   5.383  12.671   5.593
71313SOL    HW215772   5.429  12.544   5.522
71314SOL     OW15773   6.521  12.905   4.129
71314SOL    HW115774   6.566  12.820   4.126
71314SOL    HW215775   6.430  12.885   4.108
71315SOL     OW15776   1.041   9.467   0.377
71315SOL    HW115777   1.036   9.562   0.384
71315SOL    HW215778   1.039   9.450   0.283
71316SOL     OW15779   5.894   5.652   8.173
71316SOL    HW115780   5.816   5.620   8.126
71316SOL    HW215781   5.892   5.747   8.161
71317SOL     OW15782   7.216   8.383  14.343
71317SOL    HW115783   7.122   8.388  14.326
71317SOL    HW215784   7.256   8.390  14.257
71318SOL     OW15785  13.876   0.256  11.023
71318SOL    HW115786  13.865   0.200  11.099
71318SOL    HW215787  13.961   0.232  10.986
71319SOL     OW15788  12.107   4.253  12.842
71319SOL    HW115789  12.098   4.158  12.841
71319SOL    HW215790  12.164   4.273  12.768
71320SOL     OW15791  12.313   7.034   3.158
71320SOL    HW115792  12.309   7.126   3.131
71320SOL    HW215793  12.380   6.996   3.101
71321SOL     OW15794  14.667  14.669   4.076
71321SOL    HW115795  14.624  14.591   4.041
71321SOL    HW215796  14.625  14.685   4.160
71322SOL     OW15797  11.985   9.213   2.116
71322SOL    HW115798  12.012   9.134   2.162
71322SOL    HW215799  11.946   9.268   2.183
71323SOL     OW15800   4.199  11.378   3.652
71323SOL    HW115801   4.154  11.311   3.600
71323SOL    HW215802   4.162  11.368   3.740
71324SOL     OW15803   6.580  11.606   8.119
71324SOL    HW115804   6.495  11.644   8.140
71324SOL    HW215805   6.569  11.512   8.131
71325SOL     OW15806   5.309   0.502   4.222
71325SOL    HW115807   5.285   0.587   4.186
71325SOL    HW215808   5.227   0.453   4.224
71326SOL     OW15809   6.176   1.183   2.133
71326SOL    HW115810   6.180   1.169   2.038
71326SOL    HW215811   6.141   1.102   2.168
71327SOL     OW15812   1.075  13.719  13.125
71327SOL    HW115813   1.128  13.793  13.093
71327SOL    HW215814   0.986  13.753  13.127
71328SOL     OW15815  11.957   3.642   4.876
71328SOL    HW115816  11.948   3.736   4.886
71328SOL    HW215817  12.044   3.622   4.912
71329SOL     OW15818   4.291   0.617  10.207
71329SOL    HW115819   4.296   0.571  10.290
71329SOL    HW215820   4.205   0.595  10.171
71330SOL     OW15821  10.322   0.624   6.097
71330SOL    HW115822  10.248   0.570   6.069
71330SOL    HW215823  10.361   0.653   6.015
71331SOL     OW15824   5.543   8.386   1.126
71331SOL    HW115825   5.534   8.293   1.147
71331SOL    HW215826   5.525   8.431   1.209
71332SOL     OW15827  11.846  11.117   7.357
71332SOL    HW115828  11.882  11.107   7.269
71332SOL    HW215829  11.804  11.203   7.355
71333SOL     OW15830   0.672   1.392   3.797
71333SOL    HW115831   0.701   1.326   3.859
71333SOL    HW215832   0.745   1.403   3.737
71334SOL     OW15833  11.717   1.861  10.365
71334SOL    HW115834  11.655   1.812  10.310
71334SOL    HW215835  11.801   1.850  10.321
71335SOL     OW15836   6.615  14.222  12.630
71335SOL    HW115837   6.631  14.157  12.699
71335SOL    HW215838   6.613  14.305  12.677
71336SOL     OW15839   2.050  13.036   2.252
71336SOL    HW115840   2.089  13.028   2.339
71336SOL    HW215841   1.958  13.056   2.269
71337SOL     OW15842   5.819  14.501  13.997
71337SOL    HW115843   5.801  14.592  14.020
71337SOL    HW215844   5.880  14.507  13.924
71338SOL     OW15845  10.302   7.902   9.691
71338SOL    HW115846  10.216   7.943   9.701
71338SOL    HW215847  10.287   7.829   9.631
71339SOL     OW15848  13.722   1.491   9.456
71339SOL    HW115849  13.661   1.564   9.446
71339SOL    HW215850  13.807   1.533   9.473
71340SOL     OW15851   8.583   3.493  13.557
71340SOL    HW115852   8.604   3.586  13.564
71340SOL    HW215853   8.489   3.491  13.542
71341SOL     OW15854  10.060  10.221   3.965
71341SOL    HW115855   9.986  10.168   3.994
71341SOL    HW215856  10.112  10.236   4.044
71342SOL     OW15857   1.918   9.586   3.616
71342SOL    HW115858   1.851   9.534   3.571
71342SOL    HW215859   1.884   9.676   3.613
71343SOL     OW15860   3.801   2.179  12.536
71343SOL    HW115861   3.839   2.125  12.605
71343SOL    HW215862   3.866   2.247  12.519
71344SOL     OW15863  13.706  12.877   3.832
71344SOL    HW115864  13.792  12.834   3.827
71344SOL    HW215865  13.644  12.805   3.843
71345SOL     OW15866  14.164  14.529  12.315
71345SOL    HW115867  14.149  14.551  12.223
71345SOL    HW215868  14.243  14.578  12.339
71346SOL     OW15869   0.507  10.788  13.317
71346SOL    HW115870   0.527  10.782  13.410
71346SOL    HW215871   0.533  10.703  13.281
71347SOL     OW15872   3.918   4.365   1.272
71347SOL    HW115873   3.968   4.302   1.323
71347SOL    HW215874   3.848   4.313   1.232
71348SOL     OW15875   2.074   4.962   6.576
71348SOL    HW115876   2.076   4.888   6.636
71348SOL    HW215877   2.160   5.002   6.584
71349SOL     OW15878   8.259  11.490  11.564
71349SOL    HW115879   8.257  11.508  11.657
71349SOL    HW215880   8.170  11.463  11.542
71350SOL     OW15881  12.031   7.580   8.226
71350SOL    HW115882  12.051   7.528   8.148
71350SOL    HW215883  12.092   7.654   8.222
71351SOL     OW15884   0.636  13.467  12.088
71351SOL    HW115885   0.581  13.427  12.156
71351SOL    HW215886   0.580  13.471  12.011
71352SOL     OW15887  10.491   4.118  13.712
71352SOL    HW115888  10.504   4.213  13.711
71352SOL    HW215889  10.435   4.103  13.788
71353SOL     OW15890  13.607  14.378   5.138
71353SOL    HW115891  13.635  14.436   5.068
71353SOL    HW215892  13.614  14.431   5.218
71354SOL     OW15893   6.972  11.470   5.421
71354SOL    HW115894   6.912  11.459   5.494
71354SOL    HW215895   7.055  11.431   5.451
71355SOL     OW15896   2.651   8.622   4.849
71355SOL    HW115897   2.704   8.584   4.779
71355SOL    HW215898   2.598   8.689   4.806
71356SOL     OW15899   9.746   5.007  13.811
71356SOL    HW115900   9.705   5.074  13.867
71356SOL    HW215901   9.756   4.931  13.868
71357SOL     OW15902   6.343   3.220   3.956
71357SOL    HW115903   6.389   3.237   3.875
71357SOL    HW215904   6.250   3.228   3.934
71358SOL     OW15905  11.392   3.386  10.133
71358SOL    HW115906  11.453   3.452  10.098
71358SOL    HW215907  11.328   3.437  10.183
71359SOL     OW15908   3.304  14.713   3.827
71359SOL    HW115909   3.213  14.684   3.826
71359SOL    HW215910   3.301  14.802   3.793
71360SOL     OW15911   7.165   4.810   9.527
71360SOL    HW115912   7.163   4.825   9.621
71360SOL    HW215913   7.221   4.733   9.516
71361SOL     OW15914   4.290   0.022  10.710
71361SOL    HW115915   4.326  14.816  10.746
71361SOL    HW215916   4.295   0.084  10.782
71362SOL     OW15917  13.586   2.587   0.750
71362SOL    HW115918  13.667   2.637   0.753
71362SOL    HW215919  13.612   2.500   0.719
71363SOL     OW15920   0.760  12.503  14.712
71363SOL    HW115921   0.823  12.549  14.657
71363SOL    HW215922   0.772  12.541  14.799
71364SOL     OW15923   3.877   8.129   6.503
71364SOL    HW115924   3.925   8.075   6.440
71364SOL    HW215925   3.938   8.143   6.575
71365SOL     OW15926   7.189   7.318   3.606
71365SOL    HW115927   7.246   7.315   3.529
71365SOL    HW215928   7.217   7.395   3.655
71366SOL     OW15929  12.139   2.469   1.465
71366SOL    HW115930  12.181   2.510   1.540
71366SOL    HW215931  12.047   2.492   1.473
71367SOL     OW15932   8.784   8.435   3.725
71367SOL    HW115933   8.708   8.410   3.777
71367SOL    HW215934   8.842   8.359   3.728
71368SOL     OW15935   0.275   5.624   5.882
71368SOL    HW115936   0.352   5.581   5.919
71368SOL    HW215937   0.202   5.567   5.906
71369SOL     OW15938   0.859   7.535   6.827
71369SOL    HW115939   0.865   7.441   6.808
71369SOL    HW215940   0.833   7.575   6.744
71370SOL     OW15941   2.243   6.534   9.211
71370SOL    HW115942   2.193   6.453   9.199
71370SOL    HW215943   2.280   6.552   9.125
71371SOL     OW15944  12.808  10.691   7.344
71371SOL    HW115945  12.762  10.608   7.332
71371SOL    HW215946  12.823  10.723   7.255
71372SOL     OW15947   3.511  10.675   5.934
71372SOL    HW115948   3.509  10.670   5.839
71372SOL    HW215949   3.591  10.630   5.959
71373SOL     OW15950   9.035   7.344   7.307
71373SOL    HW115951   9.087   7.327   7.229
71373SOL    HW215952   8.971   7.273   7.310
71374SOL     OW15953   7.481   4.500   0.520
71374SOL    HW115954   7.559   4.538   0.479
71374SOL    HW215955   7.452   4.566   0.583
71375SOL     OW15956   6.478  14.639   6.474
71375SOL    HW115957   6.383  14.639   6.465
71375SOL    HW215958   6.495  14.683   6.557
71376SOL     OW15959   9.172  10.083   2.562
71376SOL    HW115960   9.130  10.000   2.542
71376SOL    HW215961   9.204  10.072   2.652
71377SOL     OW15962   6.184   6.350   9.044
71377SOL    HW115963   6.267   6.307   9.024
71377SOL    HW215964   6.193   6.437   9.007
71378SOL     OW15965   8.001   4.030  13.369
71378SOL    HW115966   8.071   4.071  13.319
71378SOL    HW215967   7.969   4.100  13.427
71379SOL     OW15968  11.771   4.540   9.471
71379SOL    HW115969  11.730   4.453   9.473
71379SOL    HW215970  11.772   4.564   9.378
71380SOL     OW15971   3.636   0.057  11.828
71380SOL    HW115972   3.574   0.116  11.870
71380SOL    HW215973   3.606   0.049  11.738
71381SOL     OW15974  11.705   6.974   6.581
71381SOL    HW115975  11.780   6.916   6.592
71381SOL    HW215976  11.638   6.920   6.541
71382SOL     OW15977  13.334   9.043  12.897
71382SOL    HW115978  13.305   8.952  12.900
71382SOL    HW215979  13.407   9.043  12.835
71383SOL     OW15980   9.673  12.909  14.070
71383SOL    HW115981   9.738  12.975  14.095
71383SOL    HW215982   9.641  12.937  13.985
71384SOL     OW15983   9.011   4.351   1.463
71384SOL    HW115984   8.947   4.389   1.403
71384SOL    HW215985   9.000   4.257   1.454
71385SOL     OW15986   5.059   1.044   1.945
71385SOL    HW115987   4.997   1.110   1.915
71385SOL    HW215988   5.083   0.995   1.866
71386SOL     OW15989   4.431   3.720  11.233
71386SOL    HW115990   4.384   3.688  11.155
71386SOL    HW215991   4.374   3.787  11.269
71387SOL     OW15992   2.655   4.046   6.430
71387SOL    HW115993   2.706   4.033   6.350
71387SOL    HW215994   2.703   4.114   6.478
71388SOL     OW15995  14.263   9.270   4.650
71388SOL    HW115996  14.233   9.261   4.740
71388SOL    HW215997  14.357   9.253   4.654
71389SOL     OW15998   5.079  10.567   0.850
71389SOL    HW115999   5.040  10.617   0.779
71389SOL    HW216000   5.055  10.476   0.831
71390SOL     OW16001   9.173   2.400   5.373
71390SOL    HW116002   9.105   2.336   5.353
71390SOL    HW216003   9.198   2.382   5.464
71391SOL     OW16004   3.605   3.247  10.603
71391SOL    HW116005   3.510   3.247  10.604
71391SOL    HW216006   3.630   3.332  10.639
71392SOL     OW16007  13.709  12.010   6.781
71392SOL    HW116008  13.744  12.099   6.783
71392SOL    HW216009  13.627  12.017   6.734
71393SOL     OW16010  10.585  10.997  14.374
71393SOL    HW116011  10.548  11.031  14.455
71393SOL    HW216012  10.604  10.905  14.392
71394SOL     OW16013   4.483   8.912   5.101
71394SOL    HW116014   4.409   8.948   5.150
71394SOL    HW216015   4.474   8.817   5.110
71395SOL     OW16016   4.571   3.253  12.357
71395SOL    HW116017   4.558   3.256  12.452
71395SOL    HW216018   4.628   3.328  12.338
71396SOL     OW16019  11.441   9.287   4.225
71396SOL    HW116020  11.507   9.246   4.280
71396SOL    HW216021  11.398   9.214   4.180
71397SOL     OW16022   8.271   9.749   3.029
71397SOL    HW116023   8.195   9.750   2.971
71397SOL    HW216024   8.280   9.840   3.057
71398SOL     OW16025  10.952  11.092  13.063
71398SOL    HW116026  10.976  11.071  13.153
71398SOL    HW216027  10.908  11.177  13.069
71399SOL     OW16028  11.651   9.985   5.055
71399SOL    HW116029  11.614   9.896   5.052
71399SOL    HW216030  11.613  10.024   5.134
71400SOL     OW16031  13.939   8.951   3.461
71400SOL    HW116032  13.915   8.859   3.464
71400SOL    HW216033  13.958   8.967   3.368
71401SOL     OW16034  13.769   3.026   0.793
71401SOL    HW116035  13.819   3.099   0.829
71401SOL    HW216036  13.715   2.995   0.866
71402SOL     OW16037   7.982  14.697   2.422
71402SOL    HW116038   7.952  14.618   2.377
71402SOL    HW216039   7.905  14.753   2.425
71403SOL     OW16040   6.113  13.880  11.379
71403SOL    HW116041   6.070  13.796  11.361
71403SOL    HW216042   6.041  13.943  11.385
71404SOL     OW16043  12.476   4.609   6.025
71404SOL    HW116044  12.439   4.561   5.951
71404SOL    HW216045  12.520   4.541   6.077
71405SOL     OW16046  12.965   4.543   7.389
71405SOL    HW116047  12.929   4.617   7.340
71405SOL    HW216048  12.985   4.580   7.476
71406SOL     OW16049   5.058  11.186  12.316
71406SOL    HW116050   5.147  11.220  12.327
71406SOL    HW216051   5.003  11.250  12.361
71407SOL     OW16052  11.242  11.968   3.659
71407SOL    HW116053  11.306  11.897   3.664
71407SOL    HW216054  11.289  12.045   3.689
71408SOL     OW16055   4.979   8.029   9.405
71408SOL    HW116056   4.962   8.014   9.498
71408SOL    HW216057   4.925   7.964   9.360
71409SOL     OW16058   4.686   3.418   2.169
71409SOL    HW116059   4.698   3.501   2.214
71409SOL    HW216060   4.773   3.377   2.170
71410SOL     OW16061  11.493   5.406  12.456
71410SOL    HW116062  11.560   5.379  12.392
71410SOL    HW216063  11.541   5.414  12.538
71411SOL     OW16064  13.493   5.613   4.353
71411SOL    HW116065  13.471   5.626   4.261
71411SOL    HW216066  13.422   5.559   4.388
71412SOL     OW16067  11.420  14.295   8.359
71412SOL    HW116068  11.460  14.332   8.437
71412SOL    HW216069  11.410  14.369   8.299
71413SOL     OW16070   8.360   6.117   0.533
71413SOL    HW116071   8.432   6.088   0.476
71413SOL    HW216072   8.284   6.069   0.500
71414SOL     OW16073   0.162   3.407   8.169
71414SOL    HW116074   0.209   3.354   8.105
71414SOL    HW216075   0.206   3.492   8.168
71415SOL     OW16076   7.493   1.003   3.624
71415SOL    HW116077   7.482   0.986   3.718
71415SOL    HW216078   7.583   1.036   3.616
71416SOL     OW16079  10.700   1.494   3.400
71416SOL    HW116080  10.612   1.464   3.420
71416SOL    HW216081  10.722   1.452   3.317
71417SOL     OW16082   3.623  12.034  14.437
71417SOL    HW116083   3.593  11.995  14.355
71417SOL    HW216084   3.717  12.015  14.440
71418SOL     OW16085   7.957   9.204  14.287
71418SOL    HW116086   8.043   9.165  14.304
71418SOL    HW216087   7.950   9.273  14.354
71419SOL     OW16088  13.185  14.580  11.426
71419SOL    HW116089  13.187  14.643  11.497
71419SOL    HW216090  13.148  14.501  11.464
71420SOL     OW16091   8.855  11.657   5.575
71420SOL    HW116092   8.788  11.595   5.546
71420SOL    HW216093   8.935  11.604   5.580
71421SOL     OW16094   5.783  11.813   2.141
71421SOL    HW116095   5.822  11.861   2.067
71421SOL    HW216096   5.689  11.815   2.123
71422SOL     OW16097   7.464   2.092   6.273
71422SOL    HW116098   7.453   2.122   6.182
71422SOL    HW216099   7.480   2.172   6.322
71423SOL     OW16100  10.772   9.072  13.445
71423SOL    HW116101  10.816   8.987  13.451
71423SOL    HW216102  10.827   9.130  13.498
71424SOL     OW16103  13.558  12.807   4.305
71424SOL    HW116104  13.641  12.772   4.274
71424SOL    HW216105  13.570  12.820   4.399
71425SOL     OW16106   8.912  11.516   3.501
71425SOL    HW116107   8.878  11.487   3.586
71425SOL    HW216108   8.934  11.434   3.456
71426SOL     OW16109   3.352   4.631  11.576
71426SOL    HW116110   3.370   4.725  11.577
71426SOL    HW216111   3.260   4.625  11.602
71427SOL     OW16112   9.980   2.852  10.622
71427SOL    HW116113  10.050   2.917  10.612
71427SOL    HW216114   9.978   2.807  10.538
71428SOL     OW16115   0.601  13.724   7.015
71428SOL    HW116116   0.674  13.772   6.976
71428SOL    HW216117   0.552  13.790   7.065
71429SOL     OW16118   9.760   8.979  12.331
71429SOL    HW116119   9.703   9.012  12.401
71429SOL    HW216120   9.811   9.055  12.303
71430SOL     OW16121  14.291  10.035   5.728
71430SOL    HW116122  14.285  10.040   5.823
71430SOL    HW216123  14.264   9.946   5.707
71431SOL     OW16124  11.377   3.692  12.860
71431SOL    HW116125  11.292   3.729  12.835
71431SOL    HW216126  11.364   3.665  12.951
71432SOL     OW16127   7.928   8.891   4.963
71432SOL    HW116128   7.895   8.821   4.905
71432SOL    HW216129   7.851   8.946   4.979
71433SOL     OW16130   1.820  11.957   7.936
71433SOL    HW116131   1.884  12.025   7.956
71433SOL    HW216132   1.823  11.947   7.841
71434SOL     OW16133   1.968  12.870   7.118
71434SOL    HW116134   1.917  12.951   7.108
71434SOL    HW216135   1.961  12.849   7.211
71435SOL     OW16136  10.258   0.108  14.175
71435SOL    HW116137  10.299   0.129  14.259
71435SOL    HW216138  10.194   0.178  14.161
71436SOL     OW16139  11.658  10.928   0.122
71436SOL    HW116140  11.616  10.986   0.185
71436SOL    HW216141  11.611  10.944   0.040
71437SOL     OW16142   8.754   8.402   5.238
71437SOL    HW116143   8.790   8.461   5.303
71437SOL    HW216144   8.665   8.385   5.267
71438SOL     OW16145   6.322  11.941  14.001
71438SOL    HW116146   6.410  11.968  13.973
71438SOL    HW216147   6.327  11.936  14.096
71439SOL     OW16148  13.822   2.680   4.602
71439SOL    HW116149  13.782   2.636   4.678
71439SOL    HW216150  13.897   2.726   4.638
71440SOL     OW16151  13.056   5.331   9.670
71440SOL    HW116152  12.978   5.326   9.614
71440SOL    HW216153  13.039   5.267   9.739
71441SOL     OW16154  11.327   9.440   9.003
71441SOL    HW116155  11.261   9.497   9.042
71441SOL    HW216156  11.401   9.445   9.064
71442SOL     OW16157   4.384  11.280   5.988
71442SOL    HW116158   4.295  11.311   5.973
71442SOL    HW216159   4.379  11.185   5.978
71443SOL     OW16160   5.835   2.578   5.956
71443SOL    HW116161   5.897   2.579   5.883
71443SOL    HW216162   5.826   2.670   5.982
71444SOL     OW16163   1.490  12.225  12.716
71444SOL    HW116164   1.480  12.152  12.778
71444SOL    HW216165   1.485  12.183  12.630
71445SOL     OW16166  12.802  13.283  10.534
71445SOL    HW116167  12.868  13.266  10.467
71445SOL    HW216168  12.734  13.333  10.489
71446SOL     OW16169   8.049  11.928   0.111
71446SOL    HW116170   8.037  11.979   0.030
71446SOL    HW216171   8.006  11.844   0.093
71447SOL     OW16172  10.804   5.289  14.168
71447SOL    HW116173  10.747   5.213  14.153
71447SOL    HW216174  10.852   5.300  14.085
71448SOL     OW16175   7.407  10.835  13.045
71448SOL    HW116176   7.432  10.927  13.036
71448SOL    HW216177   7.333  10.825  12.985
71449SOL     OW16178  14.664  10.183   5.878
71449SOL    HW116179  14.600  10.218   5.816
71449SOL    HW216180  14.617  10.117   5.927
71450SOL     OW16181   0.985  13.153   8.666
71450SOL    HW116182   0.959  13.061   8.660
71450SOL    HW216183   1.081  13.150   8.665
71451SOL     OW16184   2.686   2.116  10.485
71451SOL    HW116185   2.658   2.025  10.489
71451SOL    HW216186   2.776   2.116  10.518
71452SOL     OW16187   0.594   0.500  12.707
71452SOL    HW116188   0.596   0.437  12.778
71452SOL    HW216189   0.553   0.578  12.744
71453SOL     OW16190  12.068   4.488   6.790
71453SOL    HW116191  12.051   4.481   6.884
71453SOL    HW216192  12.072   4.582   6.773
71454SOL     OW16193   1.035   9.456  13.850
71454SOL    HW116194   1.010   9.401  13.776
71454SOL    HW216195   0.961   9.516  13.861
71455SOL     OW16196  12.359   4.424   0.958
71455SOL    HW116197  12.288   4.375   1.000
71455SOL    HW216198  12.388   4.486   1.025
71456SOL     OW16199  14.216   7.247   4.018
71456SOL    HW116200  14.194   7.286   3.933
71456SOL    HW216201  14.139   7.195   4.042
71457SOL     OW16202   4.616  14.811   7.755
71457SOL    HW116203   4.642  14.803   7.847
71457SOL    HW216204   4.534  14.860   7.758
71458SOL     OW16205   8.508   0.626   8.398
71458SOL    HW116206   8.448   0.555   8.379
71458SOL    HW216207   8.546   0.649   8.313
71459SOL     OW16208   9.765   6.624   6.807
71459SOL    HW116209   9.835   6.664   6.755
71459SOL    HW216210   9.792   6.532   6.815
71460SOL     OW16211   6.636  13.895  14.456
71460SOL    HW116212   6.721  13.897  14.411
71460SOL    HW216213   6.609  13.803  14.451
71461SOL     OW16214   9.643  13.177   0.348
71461SOL    HW116215   9.623  13.248   0.409
71461SOL    HW216216   9.579  13.187   0.277
71462SOL     OW16217   9.201   4.250   4.694
71462SOL    HW116218   9.240   4.228   4.609
71462SOL    HW216219   9.262   4.213   4.758
71463SOL     OW16220   5.785   7.085   3.873
71463SOL    HW116221   5.819   6.998   3.895
71463SOL    HW216222   5.838   7.145   3.926
71464SOL     OW16223   4.142  10.831   5.986
71464SOL    HW116224   4.223  10.780   5.976
71464SOL    HW216225   4.171  10.922   5.988
71465SOL     OW16226   8.070   6.541   6.509
71465SOL    HW116227   8.010   6.552   6.435
71465SOL    HW216228   8.049   6.614   6.567
71466SOL     OW16229  11.360   6.631   1.172
71466SOL    HW116230  11.297   6.589   1.231
71466SOL    HW216231  11.378   6.565   1.105
71467SOL     OW16232   8.900  13.057   0.741
71467SOL    HW116233   8.813  13.092   0.722
71467SOL    HW216234   8.903  12.973   0.694
71468SOL     OW16235   9.845   5.222  10.298
71468SOL    HW116236   9.839   5.127  10.287
71468SOL    HW216237   9.763   5.247  10.341
71469SOL     OW16238   8.591  12.439  10.516
71469SOL    HW116239   8.614  12.475  10.602
71469SOL    HW216240   8.661  12.469  10.458
71470SOL     OW16241   6.783  14.074  12.413
71470SOL    HW116242   6.851  14.141  12.408
71470SOL    HW216243   6.740  14.089  12.498
71471SOL     OW16244   3.052   5.216  11.400
71471SOL    HW116245   3.033   5.134  11.353
71471SOL    HW216246   3.074   5.279  11.331
71472SOL     OW16247   8.889  11.873   5.742
71472SOL    HW116248   8.853  11.828   5.665
71472SOL    HW216249   8.963  11.819   5.768
71473SOL     OW16250   0.111  11.222   6.619
71473SOL    HW116251   0.036  11.264   6.577
71473SOL    HW216252   0.073  11.167   6.688
71474SOL     OW16253   9.246  10.769   6.583
71474SOL    HW116254   9.186  10.843   6.593
71474SOL    HW216255   9.240  10.722   6.666
71475SOL     OW16256   9.454  13.648  14.553
71475SOL    HW116257   9.487  13.616  14.637
71475SOL    HW216258   9.498  13.593  14.487
71476SOL     OW16259  14.300  10.782   0.940
71476SOL    HW116260  14.209  10.789   0.912
71476SOL    HW216261  14.299  10.716   1.010
71477SOL     OW16262   6.905  12.914   1.245
71477SOL    HW116263   6.969  12.941   1.179
71477SOL    HW216264   6.931  12.961   1.324
71478SOL     OW16265   2.997   7.205   2.795
71478SOL    HW116266   3.059   7.273   2.819
71478SOL    HW216267   2.920   7.222   2.849
71479SOL     OW16268  11.197  10.716   7.977
71479SOL    HW116269  11.209  10.685   8.067
71479SOL    HW216270  11.267  10.780   7.964
71480SOL     OW16271   4.931   0.163  10.263
71480SOL    HW116272   4.858   0.108  10.234
71480SOL    HW216273   4.891   0.249  10.279
71481SOL     OW16274   2.903  10.599   5.830
71481SOL    HW116275   2.813  10.628   5.845
71481SOL    HW216276   2.957  10.672   5.860
71482SOL     OW16277   2.158  12.933  10.082
71482SOL    HW116278   2.114  12.910  10.164
71482SOL    HW216279   2.134  13.025  10.068
71483SOL     OW16280  12.587   4.382   6.112
71483SOL    HW116281  12.504   4.338   6.093
71483SOL    HW216282  12.645   4.357   6.040
71484SOL     OW16283  11.596   0.002   2.777
71484SOL    HW116284  11.689  14.873   2.752
71484SOL    HW216285  11.549  14.855   2.697
71485SOL     OW16286   4.103   3.868  10.299
71485SOL    HW116287   4.149   3.950  10.320
71485SOL    HW216288   4.096   3.869  10.204
71486SOL     OW16289   0.769   0.777   3.317
71486SOL    HW116290   0.732   0.781   3.406
71486SOL    HW216291   0.798   0.866   3.299
71487SOL     OW16292  12.485   0.897   2.631
71487SOL    HW116293  12.447   0.971   2.585
71487SOL    HW216294  12.575   0.892   2.600
71488SOL     OW16295   1.102   1.536  13.841
71488SOL    HW116296   1.019   1.504  13.876
71488SOL    HW216297   1.078   1.611  13.787
71489SOL     OW16298   9.212   8.990  13.767
71489SOL    HW116299   9.200   9.079  13.800
71489SOL    HW216300   9.196   8.933  13.842
71490SOL     OW16301  14.453  10.955   4.514
71490SOL    HW116302  14.505  10.875   4.510
71490SOL    HW216303  14.518  11.026   4.516
71491SOL     OW16304  14.462  11.299  11.947
71491SOL    HW116305  14.512  11.345  11.879
71491SOL    HW216306  14.377  11.342  11.947
71492SOL     OW16307   9.433  13.523  13.921
71492SOL    HW116308   9.434  13.565  14.007
71492SOL    HW216309   9.488  13.579  13.867
71493SOL     OW16310   6.554  13.131   1.342
71493SOL    HW116311   6.631  13.163   1.295
71493SOL    HW216312   6.504  13.083   1.276
71494SOL     OW16313  12.764   2.645   3.856
71494SOL    HW116314  12.846   2.693   3.870
71494SOL    HW216315  12.789   2.570   3.803
71495SOL     OW16316   8.628   0.924  14.308
71495SOL    HW116317   8.586   0.877  14.237
71495SOL    HW216318   8.563   0.989  14.336
71496SOL     OW16319   3.919   2.461   3.552
71496SOL    HW116320   3.958   2.454   3.465
71496SOL    HW216321   3.828   2.486   3.537
71497SOL     OW16322   4.449   3.888   0.836
71497SOL    HW116323   4.384   3.824   0.808
71497SOL    HW216324   4.423   3.912   0.925
71498SOL     OW16325   6.321   7.016   1.637
71498SOL    HW116326   6.247   7.072   1.659
71498SOL    HW216327   6.292   6.928   1.662
71499SOL     OW16328  13.682  11.037  10.475
71499SOL    HW116329  13.634  10.967  10.520
71499SOL    HW216330  13.697  11.002  10.387
71500SOL     OW16331   5.103   9.395   0.186
71500SOL    HW116332   5.185   9.444   0.194
71500SOL    HW216333   5.127   9.316   0.138
71501SOL     OW16334  10.354  10.248  10.308
71501SOL    HW116335  10.377  10.301  10.384
71501SOL    HW216336  10.436  10.208  10.281
71502SOL     OW16337  10.816  12.376   5.488
71502SOL    HW116338  10.871  12.325   5.429
71502SOL    HW216339  10.874  12.400   5.560
71503SOL     OW16340  13.984   4.148   9.519
71503SOL    HW116341  14.029   4.094   9.584
71503SOL    HW216342  14.028   4.233   9.526
71504SOL     OW16343   7.737   6.858   1.626
71504SOL    HW116344   7.732   6.774   1.580
71504SOL    HW216345   7.781   6.916   1.565
71505SOL     OW16346  13.911  11.352   1.535
71505SOL    HW116347  13.835  11.410   1.541
71505SOL    HW216348  13.878  11.272   1.494
71506SOL     OW16349   1.570   0.640   6.328
71506SOL    HW116350   1.568   0.600   6.241
71506SOL    HW216351   1.619   0.721   6.316
71507SOL     OW16352   1.101   2.404   3.803
71507SOL    HW116353   1.184   2.449   3.815
71507SOL    HW216354   1.110   2.324   3.854
71508SOL     OW16355  12.259   3.861   0.981
71508SOL    HW116356  12.310   3.843   1.060
71508SOL    HW216357  12.308   3.819   0.910
71509SOL     OW16358   1.492   0.754  11.585
71509SOL    HW116359   1.558   0.807  11.541
71509SOL    HW216360   1.464   0.690  11.518
71510SOL     OW16361   2.081   5.047  11.734
71510SOL    HW116362   2.075   5.064  11.828
71510SOL    HW216363   2.006   5.092  11.697
71511SOL     OW16364  13.259   9.948   8.615
71511SOL    HW116365  13.301  10.012   8.672
71511SOL    HW216366  13.315   9.944   8.537
71512SOL     OW16367   8.145   8.509   5.773
71512SOL    HW116368   8.061   8.463   5.775
71512SOL    HW216369   8.138   8.569   5.699
71513SOL     OW16370   5.058  12.317   4.163
71513SOL    HW116371   5.138  12.369   4.152
71513SOL    HW216372   5.084  12.246   4.222
71514SOL     OW16373   4.214   9.047  10.850
71514SOL    HW116374   4.293   9.001  10.879
71514SOL    HW216375   4.164   9.061  10.930
71515SOL     OW16376   2.062   3.066   9.857
71515SOL    HW116377   2.099   3.105   9.778
71515SOL    HW216378   2.138   3.035   9.907
71516SOL     OW16379   9.633   5.179   0.831
71516SOL    HW116380   9.644   5.231   0.752
71516SOL    HW216381   9.539   5.179   0.847
71517SOL     OW16382   1.006   0.111   5.442
71517SOL    HW116383   0.962   0.077   5.364
71517SOL    HW216384   1.064   0.040   5.469
71518SOL     OW16385  14.865   6.248   0.459
71518SOL    HW116386  14.863   6.285   0.548
71518SOL    HW216387  14.853   6.154   0.472
71519SOL     OW16388   4.102  14.242   1.222
71519SOL    HW116389   4.172  14.296   1.259
71519SOL    HW216390   4.137  14.211   1.138
71520SOL     OW16391  11.292   8.323   3.463
71520SOL    HW116392  11.327   8.252   3.411
71520SOL    HW216393  11.285   8.287   3.551
71521SOL     OW16394  13.612   3.593   6.318
71521SOL    HW116395  13.575   3.642   6.245
71521SOL    HW216396  13.652   3.516   6.278
71522SOL     OW16397   0.388  13.387   4.245
71522SOL    HW116398   0.302  13.357   4.275
71522SOL    HW216399   0.390  13.480   4.268
71523SOL     OW16400   1.195  11.647   8.367
71523SOL    HW116401   1.164  11.569   8.320
71523SOL    HW216402   1.143  11.648   8.448
71524SOL     OW16403   6.876   8.242   6.332
71524SOL    HW116404   6.878   8.300   6.256
71524SOL    HW216405   6.932   8.168   6.307
71525SOL     OW16406   1.025  11.458   7.332
71525SOL    HW116407   1.037  11.444   7.238
71525SOL    HW216408   0.946  11.512   7.338
71526SOL     OW16409   6.442  10.373  10.543
71526SOL    HW116410   6.396  10.289  10.535
71526SOL    HW216411   6.395  10.419  10.612
71527SOL     OW16412   1.386  13.666  12.754
71527SOL    HW116413   1.410  13.577  12.728
71527SOL    HW216414   1.448  13.722  12.708
71528SOL     OW16415  14.000   7.912   5.312
71528SOL    HW116416  14.036   7.965   5.242
71528SOL    HW216417  13.999   7.823   5.277
71529SOL     OW16418   7.104  11.799  10.092
71529SOL    HW116419   7.143  11.871  10.043
71529SOL    HW216420   7.101  11.726  10.030
71530SOL     OW16421  12.549  12.867  11.193
71530SOL    HW116422  12.505  12.914  11.263
71530SOL    HW216423  12.583  12.788  11.234
71531SOL     OW16424   1.204   0.608  11.070
71531SOL    HW116425   1.287   0.587  11.027
71531SOL    HW216426   1.140   0.549  11.029
71532SOL     OW16427  13.069   0.629  14.351
71532SOL    HW116428  12.977   0.625  14.374
71532SOL    HW216429  13.074   0.694  14.280
71533SOL     OW16430  10.578   0.932   3.779
71533SOL    HW116431  10.517   0.859   3.765
71533SOL    HW216432  10.606   0.958   3.691
71534SOL     OW16433   2.496  10.100   6.428
71534SOL    HW116434   2.447  10.176   6.459
71534SOL    HW216435   2.525  10.125   6.340
71535SOL     OW16436   9.048   9.616  11.242
71535SOL    HW116437   9.030   9.530  11.280
71535SOL    HW216438   9.095   9.664  11.310
71536SOL     OW16439   5.391   3.159   1.041
71536SOL    HW116440   5.452   3.187   1.109
71536SOL    HW216441   5.356   3.240   1.005
71537SOL     OW16442  12.990  13.679   2.917
71537SOL    HW116443  13.061  13.742   2.925
71537SOL    HW216444  12.925  13.708   2.981
71538SOL     OW16445   8.494  11.319   0.556
71538SOL    HW116446   8.419  11.296   0.610
71538SOL    HW216447   8.457  11.365   0.480
71539SOL     OW16448  11.634   0.723   7.545
71539SOL    HW116449  11.688   0.687   7.474
71539SOL    HW216450  11.544   0.709   7.516
71540SOL     OW16451   8.789   7.060  13.216
71540SOL    HW116452   8.707   7.020  13.245
71540SOL    HW216453   8.841   7.067  13.296
71541SOL     OW16454   1.940   6.311  11.417
71541SOL    HW116455   1.914   6.379  11.479
71541SOL    HW216456   1.901   6.230  11.452
71542SOL     OW16457   6.317   4.411   2.128
71542SOL    HW116458   6.268   4.480   2.083
71542SOL    HW216459   6.378   4.458   2.185
71543SOL     OW16460  11.307   7.703   5.518
71543SOL    HW116461  11.214   7.722   5.533
71543SOL    HW216462  11.315   7.692   5.424
71544SOL     OW16463  13.258  11.441   4.259
71544SOL    HW116464  13.327  11.502   4.233
71544SOL    HW216465  13.260  11.442   4.355
71545SOL     OW16466   1.960   7.241   8.976
71545SOL    HW116467   2.053   7.234   8.996
71545SOL    HW216468   1.957   7.283   8.890
71546SOL     OW16469   6.045  10.695   6.621
71546SOL    HW116470   6.105  10.765   6.593
71546SOL    HW216471   6.041  10.703   6.716
71547SOL     OW16472   4.071   9.561   5.503
71547SOL    HW116473   4.011   9.623   5.461
71547SOL    HW216474   4.086   9.493   5.438
71548SOL     OW16475  10.812   7.836   2.699
71548SOL    HW116476  10.904   7.818   2.718
71548SOL    HW216477  10.798   7.925   2.732
71549SOL     OW16478   5.019  10.457  10.761
71549SOL    HW116479   5.000  10.442  10.854
71549SOL    HW216480   5.020  10.552  10.751
71550SOL     OW16481  14.382   3.336   9.098
71550SOL    HW116482  14.358   3.262   9.155
71550SOL    HW216483  14.302   3.356   9.049
71551SOL     OW16484  14.200   1.589   8.105
71551SOL    HW116485  14.207   1.558   8.015
71551SOL    HW216486  14.250   1.525   8.156
71552SOL     OW16487   8.699  12.301   8.344
71552SOL    HW116488   8.752  12.348   8.279
71552SOL    HW216489   8.747  12.220   8.359
71553SOL     OW16490   4.484   2.817   5.923
71553SOL    HW116491   4.536   2.896   5.912
71553SOL    HW216492   4.447   2.825   6.011
71554SOL     OW16493  11.521   1.420   9.298
71554SOL    HW116494  11.538   1.422   9.393
71554SOL    HW216495  11.576   1.491   9.264
71555SOL     OW16496   6.920   7.607   2.068
71555SOL    HW116497   6.950   7.695   2.045
71555SOL    HW216498   6.828   7.619   2.091
71556SOL     OW16499   1.976   7.753   3.111
71556SOL    HW116500   1.900   7.789   3.067
71556SOL    HW216501   2.050   7.804   3.077
71557SOL     OW16502  13.004   5.416  12.837
71557SOL    HW116503  13.094   5.420  12.869
71557SOL    HW216504  12.977   5.507  12.828
71558SOL     OW16505   6.422   5.629  12.076
71558SOL    HW116506   6.456   5.672  11.998
71558SOL    HW216507   6.403   5.539  12.048
71559SOL     OW16508   2.775  10.003   9.138
71559SOL    HW116509   2.765  10.071   9.205
71559SOL    HW216510   2.754   9.922   9.183
71560SOL     OW16511  12.552   1.803   1.552
71560SOL    HW116512  12.514   1.757   1.478
71560SOL    HW216513  12.616   1.742   1.589
71561SOL     OW16514   1.994  13.635  14.843
71561SOL    HW116515   2.076  13.622   0.015
71561SOL    HW216516   1.981  13.730  14.843
71562SOL     OW16517   5.915   7.465   5.594
71562SOL    HW116518   5.842   7.498   5.647
71562SOL    HW216519   5.970   7.417   5.655
71563SOL     OW16520  13.807  14.244   8.600
71563SOL    HW116521  13.712  14.256   8.590
71563SOL    HW216522  13.843  14.332   8.595
71564SOL     OW16523   5.736   4.761   6.075
71564SOL    HW116524   5.742   4.727   6.165
71564SOL    HW216525   5.765   4.852   6.081
71565SOL     OW16526   8.624   0.633   5.682
71565SOL    HW116527   8.620   0.588   5.597
71565SOL    HW216528   8.632   0.562   5.746
71566SOL     OW16529   3.565   7.516   2.384
71566SOL    HW116530   3.516   7.535   2.464
71566SOL    HW216531   3.646   7.565   2.394
71567SOL     OW16532   8.990  14.728   5.615
71567SOL    HW116533   9.042  14.658   5.654
71567SOL    HW216534   8.920  14.683   5.569
71568SOL     OW16535   9.867   1.137  10.509
71568SOL    HW116536   9.818   1.060  10.538
71568SOL    HW216537   9.809   1.180  10.445
71569SOL     OW16538  10.343   0.050   6.366
71569SOL    HW116539  10.339   0.049   6.270
71569SOL    HW216540  10.430   0.015   6.387
71570SOL     OW16541  11.321   1.639   2.013
71570SOL    HW116542  11.316   1.732   2.031
71570SOL    HW216543  11.404   1.627   1.966
71571SOL     OW16544  12.894  10.842   0.788
71571SOL    HW116545  12.808  10.799   0.782
71571SOL    HW216546  12.873  10.934   0.804
71572SOL     OW16547  11.844   0.427  11.596
71572SOL    HW116548  11.879   0.355  11.650
71572SOL    HW216549  11.922   0.470  11.560
71573SOL     OW16550   7.408   7.635  10.058
71573SOL    HW116551   7.419   7.694   9.983
71573SOL    HW216552   7.492   7.588  10.063
71574SOL     OW16553   8.957   5.428  13.204
71574SOL    HW116554   8.925   5.388  13.123
71574SOL    HW216555   8.963   5.355  13.266
71575SOL     OW16556   4.541   1.166   5.372
71575SOL    HW116557   4.531   1.075   5.345
71575SOL    HW216558   4.486   1.215   5.311
71576SOL     OW16559  14.388   2.434   2.426
71576SOL    HW116560  14.470   2.390   2.448
71576SOL    HW216561  14.410   2.527   2.426
71577SOL     OW16562   9.896   5.281   2.494
71577SOL    HW116563   9.855   5.357   2.535
71577SOL    HW216564   9.968   5.318   2.442
71578SOL     OW16565   6.124   6.977   3.109
71578SOL    HW116566   6.171   6.954   3.029
71578SOL    HW216567   6.032   6.962   3.088
71579SOL     OW16568   6.758  11.044   2.464
71579SOL    HW116569   6.844  11.078   2.488
71579SOL    HW216570   6.709  11.121   2.434
71580SOL     OW16571   6.904   4.934  14.855
71580SOL    HW116572   6.959   4.937  14.776
71580SOL    HW216573   6.959   4.970   0.048
71581SOL     OW16574  12.666   9.545   1.857
71581SOL    HW116575  12.633   9.619   1.805
71581SOL    HW216576  12.720   9.586   1.925
71582SOL     OW16577  14.547   6.571   5.697
71582SOL    HW116578  14.541   6.653   5.746
71582SOL    HW216579  14.620   6.585   5.637
71583SOL     OW16580  13.678   5.832   1.275
71583SOL    HW116581  13.586   5.858   1.267
71583SOL    HW216582  13.691   5.818   1.369
71584SOL     OW16583   7.303  14.865   5.562
71584SOL    HW116584   7.290  14.774   5.538
71584SOL    HW216585   7.334  14.862   5.652
71585SOL     OW16586  14.317  11.738  11.260
71585SOL    HW116587  14.301  11.658  11.309
71585SOL    HW216588  14.231  11.763  11.225
71586SOL     OW16589   9.967   4.603   7.064
71586SOL    HW116590  10.039   4.546   7.039
71586SOL    HW216591   9.951   4.656   6.986
71587SOL     OW16592   1.021  10.553  12.274
71587SOL    HW116593   1.039  10.505  12.194
71587SOL    HW216594   1.074  10.509  12.341
71588SOL     OW16595   7.909  11.222   9.472
71588SOL    HW116596   7.934  11.229   9.380
71588SOL    HW216597   7.825  11.269   9.478
71589SOL     OW16598  14.064  12.824   3.017
71589SOL    HW116599  14.142  12.871   3.046
71589SOL    HW216600  14.067  12.741   3.064
71590SOL     OW16601   6.376  13.785   8.531
71590SOL    HW116602   6.409  13.827   8.611
71590SOL    HW216603   6.314  13.719   8.563
71591SOL     OW16604   2.474   5.629   1.056
71591SOL    HW116605   2.485   5.569   0.982
71591SOL    HW216606   2.537   5.598   1.121
71592SOL     OW16607  12.192   2.586   0.995
71592SOL    HW116608  12.233   2.529   1.060
71592SOL    HW216609  12.175   2.667   1.042
71593SOL     OW16610   9.643  10.929   0.155
71593SOL    HW116611   9.631  10.973   0.239
71593SOL    HW216612   9.726  10.962   0.122
71594SOL     OW16613  14.633   9.697  12.536
71594SOL    HW116614  14.595   9.622  12.492
71594SOL    HW216615  14.630   9.768  12.471
71595SOL     OW16616   0.233   6.826   8.619
71595SOL    HW116617   0.192   6.783   8.543
71595SOL    HW216618   0.323   6.795   8.618
71596SOL     OW16619  11.311   5.388   1.695
71596SOL    HW116620  11.243   5.368   1.631
71596SOL    HW216621  11.277   5.463   1.744
71597SOL     OW16622   6.528  10.470   9.266
71597SOL    HW116623   6.560  10.381   9.274
71597SOL    HW216624   6.438  10.460   9.235
71598SOL     OW16625   9.933   0.814  13.382
71598SOL    HW116626   9.990   0.793  13.457
71598SOL    HW216627   9.883   0.890  13.412
71599SOL     OW16628   0.554   8.196   7.017
71599SOL    HW116629   0.572   8.255   7.090
71599SOL    HW216630   0.623   8.214   6.954
71600SOL     OW16631   0.766   6.998  14.060
71600SOL    HW116632   0.734   6.919  14.103
71600SOL    HW216633   0.810   7.047  14.130
71601SOL     OW16634   5.978  14.554   7.053
71601SOL    HW116635   5.930  14.472   7.060
71601SOL    HW216636   6.049  14.545   7.118
71602SOL     OW16637   6.902   0.923  13.110
71602SOL    HW116638   6.918   0.836  13.148
71602SOL    HW216639   6.882   0.979  13.186
71603SOL     OW16640   3.611  14.053   7.586
71603SOL    HW116641   3.694  14.049   7.538
71603SOL    HW216642   3.554  14.105   7.530
71604SOL     OW16643   6.407  14.587   2.684
71604SOL    HW116644   6.482  14.578   2.626
71604SOL    HW216645   6.332  14.599   2.626
71605SOL     OW16646  11.113   0.955   6.227
71605SOL    HW116647  11.039   0.988   6.279
71605SOL    HW216648  11.191   0.991   6.270
71606SOL     OW16649  13.191   9.209   0.939
71606SOL    HW116650  13.193   9.183   1.031
71606SOL    HW216651  13.276   9.183   0.904
71607SOL     OW16652  14.328  12.185   7.842
71607SOL    HW116653  14.247  12.201   7.794
71607SOL    HW216654  14.397  12.197   7.777
71608SOL     OW16655  13.525   7.332   5.924
71608SOL    HW116656  13.448   7.275   5.923
71608SOL    HW216657  13.536   7.357   6.016
71609SOL     OW16658   9.976   1.356   5.657
71609SOL    HW116659  10.018   1.270   5.656
71609SOL    HW216660   9.917   1.353   5.732
71610SOL     OW16661   8.077  14.028   2.795
71610SOL    HW116662   8.024  13.986   2.862
71610SOL    HW216663   8.097  14.114   2.830
71611SOL     OW16664   9.302   9.030   6.909
71611SOL    HW116665   9.276   9.122   6.905
71611SOL    HW216666   9.317   9.014   7.002
71612SOL     OW16667   2.787   8.730   0.690
71612SOL    HW116668   2.828   8.782   0.759
71612SOL    HW216669   2.698   8.714   0.723
71613SOL     OW16670   0.076   1.594  12.070
71613SOL    HW116671   0.063   1.570  12.162
71613SOL    HW216672  14.869   1.572  12.027
71614SOL     OW16673   6.237  11.506  12.538
71614SOL    HW116674   6.291  11.501  12.459
71614SOL    HW216675   6.263  11.429  12.589
71615SOL     OW16676   1.363   6.037  10.965
71615SOL    HW116677   1.347   5.991  10.882
71615SOL    HW216678   1.416   6.113  10.940
71616SOL     OW16679  13.485   4.420  11.340
71616SOL    HW116680  13.410   4.368  11.311
71616SOL    HW216681  13.495   4.398  11.432
71617SOL     OW16682   5.617   6.907   4.306
71617SOL    HW116683   5.671   6.985   4.313
71617SOL    HW216684   5.555   6.914   4.379
71618SOL     OW16685   4.076  11.707   4.853
71618SOL    HW116686   4.067  11.763   4.930
71618SOL    HW216687   3.991  11.664   4.845
71619SOL     OW16688  10.775   6.804   4.022
71619SOL    HW116689  10.755   6.784   4.114
71619SOL    HW216690  10.869   6.818   4.021
71620SOL     OW16691   6.815   7.552   3.246
71620SOL    HW116692   6.862   7.499   3.311
71620SOL    HW216693   6.884   7.595   3.196
71621SOL     OW16694  14.001   2.923   8.509
71621SOL    HW116695  14.021   3.015   8.528
71621SOL    HW216696  14.058   2.873   8.567
71622SOL     OW16697   0.873   2.404  14.448
71622SOL    HW116698   0.787   2.441  14.427
71622SOL    HW216699   0.903   2.366  14.366
71623SOL     OW16700   6.142  14.427   5.424
71623SOL    HW116701   6.132  14.422   5.329
71623SOL    HW216702   6.149  14.336   5.452
71624SOL     OW16703  12.785  10.218   4.276
71624SOL    HW116704  12.753  10.148   4.332
71624SOL    HW216705  12.877  10.228   4.298
71625SOL     OW16706   0.493   6.094   8.815
71625SOL    HW116707   0.413   6.072   8.769
71625SOL    HW216708   0.488   6.189   8.827
71626SOL     OW16709  12.522  10.549   2.095
71626SOL    HW116710  12.432  10.566   2.065
71626SOL    HW216711  12.575  10.615   2.050
71627SOL     OW16712   8.594  10.455   1.581
71627SOL    HW116713   8.587  10.363   1.605
71627SOL    HW216714   8.602  10.455   1.486
71628SOL     OW16715   7.216   6.332   5.975
71628SOL    HW116716   7.172   6.359   6.055
71628SOL    HW216717   7.275   6.262   6.002
71629SOL     OW16718  11.529   2.901   5.367
71629SOL    HW116719  11.474   2.871   5.440
71629SOL    HW216720  11.617   2.907   5.405
71630SOL     OW16721  11.972  14.116   0.884
71630SOL    HW116722  11.877  14.101   0.879
71630SOL    HW216723  11.989  14.133   0.976
71631SOL     OW16724  12.823   1.642  13.043
71631SOL    HW116725  12.755   1.710  13.041
71631SOL    HW216726  12.904   1.690  13.062
71632SOL     OW16727   8.701  11.435   8.102
71632SOL    HW116728   8.754  11.446   8.023
71632SOL    HW216729   8.638  11.367   8.079
71633SOL     OW16730   0.212   2.934   5.615
71633SOL    HW116731   0.255   2.851   5.591
71633SOL    HW216732   0.139   2.908   5.671
71634SOL     OW16733   0.268   8.159  11.853
71634SOL    HW116734   0.245   8.066  11.858
71634SOL    HW216735   0.184   8.204  11.861
71635SOL     OW16736   5.264   8.936   3.082
71635SOL    HW116737   5.286   9.007   3.142
71635SOL    HW216738   5.311   8.957   3.001
71636SOL     OW16739   7.869  11.814  10.065
71636SOL    HW116740   7.880  11.789  10.157
71636SOL    HW216741   7.942  11.873  10.048
71637SOL     OW16742  13.881   0.214  10.235
71637SOL    HW116743  13.851   0.300  10.265
71637SOL    HW216744  13.955   0.193  10.292
71638SOL     OW16745   6.939   4.079   1.172
71638SOL    HW116746   6.856   4.047   1.206
71638SOL    HW216747   6.932   4.068   1.078
71639SOL     OW16748   4.036   9.831   7.629
71639SOL    HW116749   4.109   9.775   7.658
71639SOL    HW216750   4.025   9.809   7.536
71640SOL     OW16751   0.074   0.485   0.655
71640SOL    HW116752   0.158   0.458   0.692
71640SOL    HW216753   0.014   0.486   0.730
71641SOL     OW16754   3.553  12.135   5.221
71641SOL    HW116755   3.626  12.088   5.261
71641SOL    HW216756   3.559  12.224   5.256
71642SOL     OW16757   6.383  10.870  11.961
71642SOL    HW116758   6.423  10.883  12.047
71642SOL    HW216759   6.452  10.890  11.899
71643SOL     OW16760   9.327  10.640  11.965
71643SOL    HW116761   9.416  10.641  12.002
71643SOL    HW216762   9.275  10.591  12.028
71644SOL     OW16763   2.080   4.747   4.418
71644SOL    HW116764   2.044   4.787   4.338
71644SOL    HW216765   2.091   4.655   4.396
71645SOL     OW16766   6.668   1.098   5.064
71645SOL    HW116767   6.728   1.096   4.989
71645SOL    HW216768   6.645   1.007   5.080
71646SOL     OW16769   3.565   5.376   5.518
71646SOL    HW116770   3.599   5.440   5.456
71646SOL    HW216771   3.596   5.406   5.604
71647SOL     OW16772   4.965   0.673   0.073
71647SOL    HW116773   4.972   0.736   0.145
71647SOL    HW216774   4.871   0.668   0.055
71648SOL     OW16775   9.419  12.082   2.819
71648SOL    HW116776   9.347  12.116   2.766
71648SOL    HW216777   9.399  11.988   2.828
71649SOL     OW16778   6.744   8.661   4.134
71649SOL    HW116779   6.694   8.698   4.207
71649SOL    HW216780   6.737   8.726   4.064
71650SOL     OW16781  13.565   0.023   8.110
71650SOL    HW116782  13.550   0.031   8.016
71650SOL    HW216783  13.582  14.806   8.124
71651SOL     OW16784  12.410   0.320   4.818
71651SOL    HW116785  12.333   0.325   4.875
71651SOL    HW216786  12.455   0.404   4.831
71652SOL     OW16787   6.658  11.281  13.676
71652SOL    HW116788   6.750  11.298  13.699
71652SOL    HW216789   6.615  11.365  13.689
71653SOL     OW16790  14.290   4.497   6.524
71653SOL    HW116791  14.339   4.419   6.500
71653SOL    HW216792  14.224   4.467   6.586
71654SOL     OW16793  11.338   4.657  14.712
71654SOL    HW116794  11.246   4.662  14.689
71654SOL    HW216795  11.367   4.748  14.717
71655SOL     OW16796  14.233  14.871  12.453
71655SOL    HW116797  14.304  14.809  12.437
71655SOL    HW216798  14.165  14.818  12.495
71656SOL     OW16799  13.406   3.362  12.276
71656SOL    HW116800  13.390   3.422  12.349
71656SOL    HW216801  13.497   3.379  12.251
71657SOL     OW16802  13.275   5.002  13.216
71657SOL    HW116803  13.262   4.910  13.239
71657SOL    HW216804  13.216   5.050  13.275
71658SOL     OW16805   6.810  12.952   6.497
71658SOL    HW116806   6.868  12.968   6.571
71658SOL    HW216807   6.725  12.986   6.526
71659SOL     OW16808   3.663  14.766   7.283
71659SOL    HW116809   3.645  14.860   7.282
71659SOL    HW216810   3.670  14.744   7.376
71660SOL     OW16811   9.125  14.226   9.985
71660SOL    HW116812   9.062  14.157   9.964
71660SOL    HW216813   9.109  14.246  10.077
71661SOL     OW16814   0.411   5.831   3.108
71661SOL    HW116815   0.422   5.736   3.116
71661SOL    HW216816   0.458   5.867   3.183
71662SOL     OW16817  13.806   7.479   4.990
71662SOL    HW116818  13.787   7.566   5.027
71662SOL    HW216819  13.893   7.489   4.950
71663SOL     OW16820   8.956   1.195  13.192
71663SOL    HW116821   8.871   1.211  13.233
71663SOL    HW216822   8.935   1.153  13.109
71664SOL     OW16823   4.103  10.605  14.834
71664SOL    HW116824   4.089  10.511  14.820
71664SOL    HW216825   4.135  10.637  14.750
71665SOL     OW16826   5.848   0.632   9.653
71665SOL    HW116827   5.879   0.671   9.571
71665SOL    HW216828   5.781   0.692   9.685
71666SOL     OW16829   7.088   0.240   3.710
71666SOL    HW116830   7.090   0.219   3.616
71666SOL    HW216831   7.148   0.177   3.749
71667SOL     OW16832   0.303   1.420   2.020
71667SOL    HW116833   0.256   1.339   1.998
71667SOL    HW216834   0.372   1.426   1.955
71668SOL     OW16835  11.113   2.245  14.776
71668SOL    HW116836  11.187   2.259  14.836
71668SOL    HW216837  11.145   2.272  14.690
71669SOL     OW16838  12.757   5.299   9.104
71669SOL    HW116839  12.701   5.223   9.085
71669SOL    HW216840  12.724   5.333   9.187
71670SOL     OW16841   3.798   9.425  11.355
71670SOL    HW116842   3.713   9.458  11.385
71670SOL    HW216843   3.856   9.435  11.430
71671SOL     OW16844  14.842   9.283  12.314
71671SOL    HW116845   0.019   9.205  12.297
71671SOL    HW216846  14.754   9.248  12.331
71672SOL     OW16847   8.314  13.873   0.233
71672SOL    HW116848   8.405  13.855   0.257
71672SOL    HW216849   8.319  13.914   0.146
71673SOL     OW16850   7.488  14.583   8.675
71673SOL    HW116851   7.536  14.529   8.612
71673SOL    HW216852   7.552  14.647   8.706
71674SOL     OW16853   7.713   4.933  14.432
71674SOL    HW116854   7.778   4.881  14.479
71674SOL    HW216855   7.742   4.932  14.341
71675SOL     OW16856   1.979  10.213   4.533
71675SOL    HW116857   2.054  10.262   4.567
71675SOL    HW216858   1.962  10.146   4.600
71676SOL     OW16859   3.096   0.346   0.231
71676SOL    HW116860   3.162   0.415   0.225
71676SOL    HW216861   3.126   0.278   0.172
71677SOL     OW16862   2.996   7.096   4.190
71677SOL    HW116863   3.058   7.134   4.128
71677SOL    HW216864   3.019   7.137   4.274
71678SOL     OW16865   8.494   2.539   3.542
71678SOL    HW116866   8.423   2.504   3.489
71678SOL    HW216867   8.539   2.462   3.576
71679SOL     OW16868   3.596  13.820  13.062
71679SOL    HW116869   3.681  13.795  13.026
71679SOL    HW216870   3.615  13.896  13.117
71680SOL     OW16871   9.102  11.705   3.324
71680SOL    HW116872   9.168  11.637   3.336
71680SOL    HW216873   9.031  11.661   3.276
71681SOL     OW16874   2.807  10.263   0.810
71681SOL    HW116875   2.902  10.273   0.811
71681SOL    HW216876   2.791  10.191   0.749
71682SOL     OW16877  10.121   1.902  11.621
71682SOL    HW116878  10.133   1.978  11.564
71682SOL    HW216879  10.191   1.909  11.686
71683SOL     OW16880   0.276  12.303  11.659
71683SOL    HW116881   0.318  12.360  11.595
71683SOL    HW216882   0.253  12.224  11.609
71684SOL     OW16883   6.072   3.237   3.878
71684SOL    HW116884   6.049   3.329   3.890
71684SOL    HW216885   5.988   3.191   3.876
71685SOL     OW16886   1.971   5.172   8.665
71685SOL    HW116887   2.016   5.134   8.740
71685SOL    HW216888   2.014   5.133   8.589
71686SOL     OW16889   6.593   9.708   5.457
71686SOL    HW116890   6.543   9.679   5.533
71686SOL    HW216891   6.679   9.730   5.491
71687SOL     OW16892   6.267  12.762   6.304
71687SOL    HW116893   6.316  12.680   6.307
71687SOL    HW216894   6.334  12.830   6.293
71688SOL     OW16895   9.244   6.278   0.421
71688SOL    HW116896   9.315   6.333   0.388
71688SOL    HW216897   9.234   6.304   0.513
71689SOL     OW16898  12.880  13.799  12.745
71689SOL    HW116899  12.877  13.728  12.808
71689SOL    HW216900  12.913  13.874  12.794
71690SOL     OW16901  10.602   3.134   3.862
71690SOL    HW116902  10.560   3.063   3.910
71690SOL    HW216903  10.547   3.211   3.880
71691SOL     OW16904  10.225   6.732  13.889
71691SOL    HW116905  10.153   6.682  13.849
71691SOL    HW216906  10.184   6.813  13.920
71692SOL     OW16907  12.450   2.731   8.575
71692SOL    HW116908  12.504   2.753   8.500
71692SOL    HW216909  12.499   2.764   8.650
71693SOL     OW16910   7.180  14.230   8.634
71693SOL    HW116911   7.091  14.261   8.621
71693SOL    HW216912   7.233  14.310   8.636
71694SOL     OW16913   9.985   3.629   2.779
71694SOL    HW116914   9.894   3.629   2.749
71694SOL    HW216915  10.001   3.538   2.805
71695SOL     OW16916  10.006   5.183  13.386
71695SOL    HW116917   9.952   5.111  13.354
71695SOL    HW216918   9.963   5.262  13.354
71696SOL     OW16919   7.008   8.279   1.479
71696SOL    HW116920   7.091   8.288   1.527
71696SOL    HW216921   6.943   8.266   1.548
71697SOL     OW16922   4.238   8.843   7.295
71697SOL    HW116923   4.329   8.860   7.319
71697SOL    HW216924   4.198   8.929   7.289
71698SOL     OW16925   9.514   4.297  11.646
71698SOL    HW116926   9.501   4.254  11.730
71698SOL    HW216927   9.605   4.327  11.648
71699SOL     OW16928   2.621   1.584  10.943
71699SOL    HW116929   2.633   1.513  10.880
71699SOL    HW216930   2.531   1.612  10.932
71700SOL     OW16931   4.574   9.388  12.470
71700SOL    HW116932   4.599   9.312  12.523
71700SOL    HW216933   4.486   9.368  12.439
71701SOL     OW16934  13.325   5.322   9.717
71701SOL    HW116935  13.340   5.230   9.740
71701SOL    HW216936  13.233   5.326   9.692
71702SOL     OW16937   6.699   0.884   1.911
71702SOL    HW116938   6.648   0.949   1.960
71702SOL    HW216939   6.757   0.937   1.855
71703SOL     OW16940  10.066   0.788   4.085
71703SOL    HW116941   9.994   0.808   4.025
71703SOL    HW216942  10.055   0.850   4.156
71704SOL     OW16943  14.242   7.415  12.344
71704SOL    HW116944  14.297   7.419  12.422
71704SOL    HW216945  14.192   7.333  12.354
71705SOL     OW16946  11.542  12.128   2.555
71705SOL    HW116947  11.485  12.205   2.554
71705SOL    HW216948  11.497  12.065   2.611
71706SOL     OW16949  14.371   2.058   2.830
71706SOL    HW116950  14.391   2.058   2.924
71706SOL    HW216951  14.320   1.978   2.816
71707SOL     OW16952   1.273   2.362  13.585
71707SOL    HW116953   1.342   2.415  13.547
71707SOL    HW216954   1.288   2.369  13.680
71708SOL     OW16955   2.766   1.126   0.232
71708SOL    HW116956   2.806   1.041   0.215
71708SOL    HW216957   2.680   1.106   0.267
71709SOL     OW16958   0.376  14.698   9.611
71709SOL    HW116959   0.297  14.750   9.599
71709SOL    HW216960   0.412  14.688   9.523
71710SOL     OW16961   0.647   0.183   4.162
71710SOL    HW116962   0.649   0.253   4.096
71710SOL    HW216963   0.678   0.106   4.115
71711SOL     OW16964   3.799   7.393   7.042
71711SOL    HW116965   3.764   7.482   7.042
71711SOL    HW216966   3.760   7.352   7.120
71712SOL     OW16967   5.462  10.631   1.999
71712SOL    HW116968   5.456  10.576   2.077
71712SOL    HW216969   5.486  10.718   2.033
71713SOL     OW16970  10.080   3.969   5.368
71713SOL    HW116971  10.022   3.926   5.432
71713SOL    HW216972  10.124   3.897   5.324
71714SOL     OW16973   9.291   1.613   3.675
71714SOL    HW116974   9.327   1.659   3.600
71714SOL    HW216975   9.337   1.528   3.676
71715SOL     OW16976   1.809   2.636   1.313
71715SOL    HW116977   1.875   2.572   1.341
71715SOL    HW216978   1.756   2.589   1.249
71716SOL     OW16979   0.546  12.004   7.685
71716SOL    HW116980   0.572  11.990   7.594
71716SOL    HW216981   0.607  11.950   7.736
71717SOL     OW16982   7.198   9.016  14.300
71717SOL    HW116983   7.106   9.001  14.321
71717SOL    HW216984   7.239   9.037  14.385
71718SOL     OW16985   9.266   4.995   6.020
71718SOL    HW116986   9.284   4.904   6.045
71718SOL    HW216987   9.347   5.025   5.979
71719SOL     OW16988   2.389   1.184   9.252
71719SOL    HW116989   2.404   1.106   9.306
71719SOL    HW216990   2.370   1.253   9.315
71720SOL     OW16991   3.259   5.159  14.156
71720SOL    HW116992   3.268   5.064  14.143
71720SOL    HW216993   3.165   5.176  14.145
71721SOL     OW16994   5.981   0.220  14.368
71721SOL    HW116995   6.050   0.154  14.367
71721SOL    HW216996   6.022   0.298  14.406
71722SOL     OW16997   3.166  12.655  10.906
71722SOL    HW116998   3.172  12.592  10.834
71722SOL    HW216999   3.252  12.654  10.947
71723SOL     OW17000   1.881  14.772  12.948
71723SOL    HW117001   1.908  14.743  13.035
71723SOL    HW217002   1.866  14.691  12.899
71724SOL     OW17003   0.313  12.741   9.169
71724SOL    HW117004   0.329  12.757   9.076
71724SOL    HW217005   0.391  12.695   9.199
71725SOL     OW17006  13.284  14.775  10.919
71725SOL    HW117007  13.204  14.810  10.958
71725SOL    HW217008  13.331  14.852  10.888
71726SOL     OW17009   6.312   5.003  10.870
71726SOL    HW117010   6.263   4.921  10.863
71726SOL    HW217011   6.369   5.004  10.792
71727SOL     OW17012   1.576  14.022   4.062
71727SOL    HW117013   1.582  13.958   4.132
71727SOL    HW217014   1.484  14.020   4.035
71728SOL     OW17015  12.145   7.647   0.601
71728SOL    HW117016  12.236   7.663   0.624
71728SOL    HW217017  12.108   7.601   0.677
71729SOL     OW17018  12.078  13.552   1.840
71729SOL    HW117019  12.129  13.560   1.759
71729SOL    HW217020  12.024  13.474   1.827
71730SOL     OW17021  11.061   3.294   3.770
71730SOL    HW117022  11.062   3.309   3.675
71730SOL    HW217023  11.008   3.215   3.781
71731SOL     OW17024   1.916   6.198  14.527
71731SOL    HW117025   1.930   6.110  14.562
71731SOL    HW217026   1.948   6.193  14.437
71732SOL     OW17027   5.450  14.826  11.083
71732SOL    HW117028   5.444   0.009  11.158
71732SOL    HW217029   5.510  14.871  11.023
71733SOL     OW17030  10.905   9.932   7.102
71733SOL    HW117031  10.892  10.025   7.080
71733SOL    HW217032  10.988   9.909   7.060
71734SOL     OW17033  14.696   0.896  13.844
71734SOL    HW117034  14.717   0.881  13.751
71734SOL    HW217035  14.757   0.964  13.871
71735SOL     OW17036   0.294   3.457   8.646
71735SOL    HW117037   0.388   3.452   8.664
71735SOL    HW217038   0.286   3.428   8.555
71736SOL     OW17039   0.506   2.098  11.191
71736SOL    HW117040   0.419   2.095  11.233
71736SOL    HW217041   0.488   2.118  11.099
71737SOL     OW17042   7.961   2.950   5.871
71737SOL    HW117043   8.038   2.893   5.866
71737SOL    HW217044   7.942   2.957   5.964
71738SOL     OW17045   1.246  10.555  12.014
71738SOL    HW117046   1.190  10.478  12.021
71738SOL    HW217047   1.327  10.522  11.974
71739SOL     OW17048   6.218   1.925   7.995
71739SOL    HW117049   6.170   1.945   7.915
71739SOL    HW217050   6.184   1.841   8.024
71740SOL     OW17051  11.214  14.785  11.321
71740SOL    HW117052  11.275  14.761  11.250
71740SOL    HW217053  11.212  14.707  11.377
71741SOL     OW17054  12.485  13.572   8.464
71741SOL    HW117055  12.545  13.498   8.472
71741SOL    HW217056  12.517  13.637   8.526
71742SOL     OW17057   0.783   1.472   6.929
71742SOL    HW117058   0.789   1.556   6.974
71742SOL    HW217059   0.702   1.433   6.963
71743SOL     OW17060   1.160  10.070  11.334
71743SOL    HW117061   1.086  10.068  11.393
71743SOL    HW217062   1.123  10.057  11.247
71744SOL     OW17063   2.429   7.620  13.613
71744SOL    HW117064   2.452   7.555  13.679
71744SOL    HW217065   2.436   7.574  13.530
71745SOL     OW17066   6.742   5.397   0.960
71745SOL    HW117067   6.673   5.428   1.020
71745SOL    HW217068   6.695   5.345   0.895
71746SOL     OW17069   0.932  11.958  11.880
71746SOL    HW117070   0.841  11.949  11.850
71746SOL    HW217071   0.956  12.048  11.857
71747SOL     OW17072  11.675   9.694   8.421
71747SOL    HW117073  11.589   9.723   8.391
71747SOL    HW217074  11.737   9.740   8.365
71748SOL     OW17075   7.995   1.072  11.129
71748SOL    HW117076   7.995   0.981  11.099
71748SOL    HW217077   7.908   1.104  11.109
71749SOL     OW17078   4.916   3.727   6.532
71749SOL    HW117079   4.896   3.687   6.448
71749SOL    HW217080   5.012   3.728   6.536
71750SOL     OW17081   4.464   1.956  14.763
71750SOL    HW117082   4.470   2.051  14.753
71750SOL    HW217083   4.488   1.940  14.854
71751SOL     OW17084   9.492   1.216   3.640
71751SOL    HW117085   9.583   1.230   3.669
71751SOL    HW217086   9.497   1.219   3.545
71752SOL     OW17087   1.949   1.745  14.612
71752SOL    HW117088   1.959   1.653  14.589
71752SOL    HW217089   1.939   1.791  14.528
71753SOL     OW17090   8.799   5.123  14.176
71753SOL    HW117091   8.744   5.189  14.218
71753SOL    HW217092   8.797   5.145  14.083
71754SOL     OW17093   0.271   8.106   0.058
71754SOL    HW117094   0.266   8.195   0.023
71754SOL    HW217095   0.351   8.105   0.110
71755SOL     OW17096   9.844   0.207  10.624
71755SOL    HW117097   9.906   0.276  10.600
71755SOL    HW217098   9.823   0.226  10.716
71756SOL     OW17099   6.688   3.276   6.328
71756SOL    HW117100   6.738   3.306   6.253
71756SOL    HW217101   6.627   3.347   6.348
71757SOL     OW17102   0.273   7.680  12.579
71757SOL    HW117103   0.206   7.719  12.523
71757SOL    HW217104   0.257   7.717  12.666
71758SOL     OW17105  12.774   0.609   3.129
71758SOL    HW117106  12.801   0.519   3.114
71758SOL    HW217107  12.834   0.662   3.077
71759SOL     OW17108  11.049   2.290  13.127
71759SOL    HW117109  11.087   2.205  13.105
71759SOL    HW217110  10.964   2.268  13.167
71760SOL     OW17111  11.615  12.116  14.050
71760SOL    HW117112  11.627  12.032  14.096
71760SOL    HW217113  11.658  12.103  13.966
71761SOL     OW17114  10.308  10.274   4.318
71761SOL    HW117115  10.300  10.192   4.368
71761SOL    HW217116  10.218  10.307   4.311
71762SOL     OW17117   7.242  13.679  12.060
71762SOL    HW117118   7.286  13.618  12.120
71762SOL    HW217119   7.215  13.752  12.116
71763SOL     OW17120   5.841   5.975  10.487
71763SOL    HW117121   5.829   6.063  10.522
71763SOL    HW217122   5.818   5.917  10.560
71764SOL     OW17123   6.962  11.422   5.917
71764SOL    HW117124   6.893  11.418   5.850
71764SOL    HW217125   7.021  11.491   5.887
71765SOL     OW17126   7.470   8.931   6.206
71765SOL    HW117127   7.379   8.952   6.228
71765SOL    HW217128   7.474   8.835   6.207
71766SOL     OW17129   8.164  13.881   3.795
71766SOL    HW117130   8.114  13.850   3.720
71766SOL    HW217131   8.250  13.840   3.786
71767SOL     OW17132  14.637   8.173   6.736
71767SOL    HW117133  14.566   8.175   6.672
71767SOL    HW217134  14.667   8.264   6.742
71768SOL     OW17135   7.576  11.391  14.048
71768SOL    HW117136   7.486  11.375  14.078
71768SOL    HW217137   7.567  11.447  13.971
71769SOL     OW17138   7.471   9.028   9.039
71769SOL    HW117139   7.383   9.047   9.006
71769SOL    HW217140   7.521   9.107   9.019
71770SOL     OW17141   9.060   4.288  11.464
71770SOL    HW117142   8.971   4.307  11.493
71770SOL    HW217143   9.073   4.342  11.387
71771SOL     OW17144  12.131   4.046   0.307
71771SOL    HW117145  12.106   3.955   0.324
71771SOL    HW217146  12.061   4.080   0.251
71772SOL     OW17147   1.287   7.603   8.730
71772SOL    HW117148   1.225   7.675   8.725
71772SOL    HW217149   1.297   7.573   8.639
71773SOL     OW17150  11.429   1.661   9.110
71773SOL    HW117151  11.369   1.627   9.177
71773SOL    HW217152  11.407   1.611   9.031
71774SOL     OW17153   0.396  14.376   9.933
71774SOL    HW117154   0.373  14.469   9.928
71774SOL    HW217155   0.419  14.352   9.843
71775SOL     OW17156   1.841  11.468   8.769
71775SOL    HW117157   1.902  11.398   8.790
71775SOL    HW217158   1.896  11.537   8.732
71776SOL     OW17159   6.757   3.244   7.082
71776SOL    HW117160   6.747   3.255   7.176
71776SOL    HW217161   6.789   3.154   7.072
71777SOL     OW17162   1.363   4.537   1.834
71777SOL    HW117163   1.277   4.578   1.825
71777SOL    HW217164   1.345   4.444   1.845
71778SOL     OW17165  10.146   1.611   6.812
71778SOL    HW117166  10.097   1.576   6.887
71778SOL    HW217167  10.236   1.581   6.825
71779SOL     OW17168   0.015   3.841  14.417
71779SOL    HW117169  14.849   3.886  14.490
71779SOL    HW217170  14.824   3.782  14.383
71780SOL     OW17171   7.621   6.200   0.227
71780SOL    HW117172   7.534   6.161   0.222
71780SOL    HW217173   7.678   6.137   0.183
71781SOL     OW17174  13.867   0.901  13.256
71781SOL    HW117175  13.835   0.903  13.166
71781SOL    HW217176  13.789   0.880  13.308
71782SOL     OW17177  13.024   6.611   9.116
71782SOL    HW117178  12.995   6.529   9.077
71782SOL    HW217179  12.984   6.612   9.203
71783SOL     OW17180  11.525  10.271   9.352
71783SOL    HW117181  11.575  10.192   9.375
71783SOL    HW217182  11.537  10.280   9.257
71784SOL     OW17183   8.252  13.876  11.014
71784SOL    HW117184   8.194  13.806  11.043
71784SOL    HW217185   8.311  13.890  11.088
71785SOL     OW17186   5.688   4.033   9.426
71785SOL    HW117187   5.779   4.006   9.441
71785SOL    HW217188   5.636   3.971   9.477
71786SOL     OW17189  13.737   4.957  10.195
71786SOL    HW117190  13.704   5.025  10.254
71786SOL    HW217191  13.700   4.876  10.228
71787SOL     OW17192   0.894   9.898   3.144
71787SOL    HW117193   0.841   9.955   3.200
71787SOL    HW217194   0.851   9.812   3.149
71788SOL     OW17195   4.012   0.336   5.045
71788SOL    HW117196   4.032   0.285   5.123
71788SOL    HW217197   4.038   0.425   5.067
71789SOL     OW17198   0.510  12.803   5.204
71789SOL    HW117199   0.451  12.847   5.266
71789SOL    HW217200   0.459  12.728   5.173
71790SOL     OW17201   1.052  10.613   7.419
71790SOL    HW117202   1.053  10.633   7.513
71790SOL    HW217203   1.120  10.546   7.409
71791SOL     OW17204   0.387  10.571   1.194
71791SOL    HW117205   0.332  10.648   1.181
71791SOL    HW217206   0.447  10.572   1.120
71792SOL     OW17207  11.216  14.665   8.774
71792SOL    HW117208  11.151  14.599   8.753
71792SOL    HW217209  11.186  14.704   8.856
71793SOL     OW17210  14.124   0.742   3.346
71793SOL    HW117211  14.070   0.818   3.323
71793SOL    HW217212  14.203   0.751   3.292
71794SOL     OW17213  11.457   6.907  13.000
71794SOL    HW117214  11.455   6.957  12.918
71794SOL    HW217215  11.536   6.937  13.045
71795SOL     OW17216   9.502   4.462   6.397
71795SOL    HW117217   9.530   4.424   6.313
71795SOL    HW217218   9.573   4.440   6.457
71796SOL     OW17219   9.485  14.869  10.815
71796SOL    HW117220   9.485  14.775  10.799
71796SOL    HW217221   9.571   0.011  10.853
71797SOL     OW17222   4.410  12.961   8.191
71797SOL    HW117223   4.477  13.017   8.231
71797SOL    HW217224   4.346  13.022   8.154
71798SOL     OW17225  12.097   8.903   3.175
71798SOL    HW117226  12.029   8.859   3.225
71798SOL    HW217227  12.118   8.841   3.105
71799SOL     OW17228   1.161   6.322   6.449
71799SOL    HW117229   1.138   6.381   6.521
71799SOL    HW217230   1.089   6.260   6.445
71800SOL     OW17231   1.670  13.728  12.339
71800SOL    HW117232   1.717  13.650  12.309
71800SOL    HW217233   1.722  13.801  12.305
71801SOL     OW17234  12.597   5.139   2.893
71801SOL    HW117235  12.663   5.198   2.858
71801SOL    HW217236  12.596   5.158   2.987
71802SOL     OW17237   8.488  13.279   9.007
71802SOL    HW117238   8.497  13.290   8.912
71802SOL    HW217239   8.507  13.187   9.022
71803SOL     OW17240   5.026  10.435   1.589
71803SOL    HW117241   5.080  10.448   1.510
71803SOL    HW217242   4.941  10.473   1.566
71804SOL     OW17243   8.029   4.009   9.784
71804SOL    HW117244   8.029   4.090   9.732
71804SOL    HW217245   8.067   4.035   9.868
71805SOL     OW17246   5.256  12.862   7.133
71805SOL    HW117247   5.229  12.858   7.225
71805SOL    HW217248   5.210  12.938   7.098
71806SOL     OW17249   4.972   3.728   4.220
71806SOL    HW117250   4.884   3.755   4.248
71806SOL    HW217251   5.029   3.751   4.294
71807SOL     OW17252   1.707  10.003   6.221
71807SOL    HW117253   1.628  10.032   6.175
71807SOL    HW217254   1.758  10.083   6.234
71808SOL     OW17255  11.883   4.864  13.010
71808SOL    HW117256  11.978   4.875  13.000
71808SOL    HW217257  11.870   4.769  13.003
71809SOL     OW17258  12.340   3.764   2.120
71809SOL    HW117259  12.413   3.743   2.062
71809SOL    HW217260  12.262   3.732   2.074
71810SOL     OW17261   7.380   2.691   7.249
71810SOL    HW117262   7.456   2.662   7.299
71810SOL    HW217263   7.311   2.700   7.314
71811SOL     OW17264   8.924  12.889   5.204
71811SOL    HW117265   8.960  12.909   5.118
71811SOL    HW217266   8.918  12.794   5.207
71812SOL     OW17267  11.050  13.824   8.573
71812SOL    HW117268  10.995  13.874   8.512
71812SOL    HW217269  11.038  13.867   8.657
71813SOL     OW17270  14.187  10.506  14.530
71813SOL    HW117271  14.229  10.451  14.597
71813SOL    HW217272  14.222  10.594  14.547
71814SOL     OW17273  10.241  10.938   3.968
71814SOL    HW117274  10.257  11.022   3.924
71814SOL    HW217275  10.328  10.899   3.977
71815SOL     OW17276   2.067   8.986  14.508
71815SOL    HW117277   2.132   8.980  14.578
71815SOL    HW217278   2.118   9.009  14.430
71816SOL     OW17279  11.984  12.583  10.387
71816SOL    HW117280  12.051  12.651  10.402
71816SOL    HW217281  12.033  12.501  10.391
71817SOL     OW17282   0.717   5.588   3.364
71817SOL    HW117283   0.723   5.600   3.459
71817SOL    HW217284   0.718   5.677   3.329
71818SOL     OW17285  11.817  13.041   4.811
71818SOL    HW117286  11.843  12.986   4.886
71818SOL    HW217287  11.831  12.985   4.735
71819SOL     OW17288  14.220   9.472  12.818
71819SOL    HW117289  14.133   9.434  12.804
71819SOL    HW217290  14.208   9.566  12.804
71820SOL     OW17291   1.668  14.372  10.416
71820SOL    HW117292   1.740  14.403  10.362
71820SOL    HW217293   1.597  14.434  10.400
71821SOL     OW17294   3.927   2.826   6.989
71821SOL    HW117295   3.979   2.848   7.066
71821SOL    HW217296   3.842   2.867   7.004
71822SOL     OW17297  11.947   6.306   4.609
71822SOL    HW117298  12.037   6.322   4.637
71822SOL    HW217299  11.932   6.372   4.540
71823SOL     OW17300  14.787   4.405   4.242
71823SOL    HW117301  14.694   4.379   4.245
71823SOL    HW217302  14.812   4.415   4.333
71824SOL     OW17303   9.151   9.731   8.607
71824SOL    HW117304   9.188   9.689   8.529
71824SOL    HW217305   9.227   9.746   8.663
71825SOL     OW17306  11.230   8.715   4.189
71825SOL    HW117307  11.253   8.672   4.107
71825SOL    HW217308  11.207   8.804   4.164
71826SOL     OW17309  12.206   6.485   8.190
71826SOL    HW117310  12.239   6.529   8.112
71826SOL    HW217311  12.153   6.412   8.157
71827SOL     OW17312   6.751  13.582   2.321
71827SOL    HW117313   6.688  13.528   2.275
71827SOL    HW217314   6.813  13.611   2.254
71828SOL     OW17315   5.701   5.363   7.270
71828SOL    HW117316   5.732   5.297   7.208
71828SOL    HW217317   5.606   5.365   7.257
71829SOL     OW17318  12.433  10.758  11.859
71829SOL    HW117319  12.422  10.665  11.878
71829SOL    HW217320  12.490  10.790  11.928
71830SOL     OW17321  11.148   9.788   8.639
71830SOL    HW117322  11.202   9.854   8.596
71830SOL    HW217323  11.070   9.781   8.583
71831SOL     OW17324   8.779   2.626   1.278
71831SOL    HW117325   8.719   2.671   1.218
71831SOL    HW217326   8.860   2.677   1.275
71832SOL     OW17327  10.299   8.033   6.611
71832SOL    HW117328  10.295   8.125   6.636
71832SOL    HW217329  10.222   8.020   6.556
71833SOL     OW17330   3.034   6.414   2.579
71833SOL    HW117331   3.070   6.493   2.539
71833SOL    HW217332   2.976   6.445   2.649
71834SOL     OW17333  12.445   7.762   6.613
71834SOL    HW117334  12.423   7.841   6.565
71834SOL    HW217335  12.362   7.715   6.620
71835SOL     OW17336  10.088   8.803  14.583
71835SOL    HW117337  10.168   8.835  14.540
71835SOL    HW217338  10.020   8.865  14.555
71836SOL     OW17339  11.809  11.135   6.271
71836SOL    HW117340  11.725  11.177   6.290
71836SOL    HW217341  11.786  11.062   6.213
71837SOL     OW17342  11.624   5.317   8.299
71837SOL    HW117343  11.627   5.328   8.204
71837SOL    HW217344  11.690   5.378   8.332
71838SOL     OW17345  10.458   9.854  12.448
71838SOL    HW117346  10.483   9.793  12.379
71838SOL    HW217347  10.469   9.941  12.409
71839SOL     OW17348   6.160   0.627   4.445
71839SOL    HW117349   6.162   0.708   4.393
71839SOL    HW217350   6.084   0.637   4.501
71840SOL     OW17351   8.073  13.083   5.618
71840SOL    HW117352   8.104  12.993   5.615
71840SOL    HW217353   8.012  13.086   5.692
71841SOL     OW17354   5.355   4.788   9.839
71841SOL    HW117355   5.311   4.795   9.754
71841SOL    HW217356   5.340   4.697   9.866
71842SOL     OW17357   9.164   3.562   3.622
71842SOL    HW117358   9.192   3.502   3.553
71842SOL    HW217359   9.071   3.578   3.604
71843SOL     OW17360   1.295  12.989  14.497
71843SOL    HW117361   1.377  12.958  14.534
71843SOL    HW217362   1.321  13.039  14.420
71844SOL     OW17363   7.704   8.099   0.482
71844SOL    HW117364   7.697   8.140   0.568
71844SOL    HW217365   7.619   8.059   0.468
71845SOL     OW17366  13.258   6.013   6.260
71845SOL    HW117367  13.348   6.037   6.284
71845SOL    HW217368  13.261   5.918   6.249
71846SOL     OW17369   7.840  12.571   6.657
71846SOL    HW117370   7.929  12.602   6.642
71846SOL    HW217371   7.829  12.498   6.596
71847SOL     OW17372  13.328   5.212  11.711
71847SOL    HW117373  13.240   5.225  11.675
71847SOL    HW217374  13.355   5.299  11.741
71848SOL     OW17375   1.538  14.335   3.075
71848SOL    HW117376   1.511  14.394   3.145
71848SOL    HW217377   1.469  14.269   3.071
71849SOL     OW17378   6.941  11.567  10.284
71849SOL    HW117379   6.907  11.654  10.305
71849SOL    HW217380   7.033  11.582  10.262
71850SOL     OW17381  10.069   3.946   8.917
71850SOL    HW117382  10.032   3.858   8.914
71850SOL    HW217383  10.152   3.939   8.870
71851SOL     OW17384   6.165  12.265   1.424
71851SOL    HW117385   6.106  12.190   1.411
71851SOL    HW217386   6.251  12.226   1.434
71852SOL     OW17387  14.130   5.381   5.989
71852SOL    HW117388  14.096   5.292   5.993
71852SOL    HW217389  14.209   5.379   6.043
71853SOL     OW17390   3.563  10.234   9.896
71853SOL    HW117391   3.637  10.268   9.947
71853SOL    HW217392   3.574  10.139   9.896
71854SOL     OW17393   9.182   5.819   8.722
71854SOL    HW117394   9.217   5.768   8.649
71854SOL    HW217395   9.112   5.870   8.683
71855SOL     OW17396   2.740  14.258  14.652
71855SOL    HW117397   2.778  14.266  14.564
71855SOL    HW217398   2.646  14.260  14.638
71856SOL     OW17399  11.868   5.257  13.814
71856SOL    HW117400  11.915   5.338  13.792
71856SOL    HW217401  11.869   5.206  13.733
71857SOL     OW17402  10.414  14.288   0.514
71857SOL    HW117403  10.475  14.352   0.477
71857SOL    HW217404  10.443  14.204   0.478
71858SOL     OW17405  13.473   5.610   2.008
71858SOL    HW117406  13.533   5.571   2.072
71858SOL    HW217407  13.389   5.566   2.024
71859SOL     OW17408   5.239   2.516   3.570
71859SOL    HW117409   5.164   2.458   3.584
71859SOL    HW217410   5.226   2.588   3.632
71860SOL     OW17411  11.258   5.692   6.850
71860SOL    HW117412  11.339   5.643   6.833
71860SOL    HW217413  11.257   5.761   6.785
71861SOL     OW17414   1.721   5.251   1.513
71861SOL    HW117415   1.682   5.164   1.521
71861SOL    HW217416   1.773   5.261   1.593
71862SOL     OW17417   9.159  11.705   6.489
71862SOL    HW117418   9.085  11.672   6.437
71862SOL    HW217419   9.137  11.681   6.579
71863SOL     OW17420   9.357  10.277   6.172
71863SOL    HW117421   9.310  10.248   6.094
71863SOL    HW217422   9.291  10.276   6.241
71864SOL     OW17423   2.317   2.442   1.879
71864SOL    HW117424   2.242   2.432   1.938
71864SOL    HW217425   2.389   2.399   1.925
71865SOL     OW17426   6.032  11.609   8.642
71865SOL    HW117427   6.044  11.544   8.572
71865SOL    HW217428   5.942  11.640   8.630
71866SOL     OW17429   8.352   6.568   0.111
71866SOL    HW117430   8.333   6.475   0.097
71866SOL    HW217431   8.284   6.614   0.061
71867SOL     OW17432   2.559  14.577  14.342
71867SOL    HW117433   2.476  14.566  14.297
71867SOL    HW217434   2.622  14.530  14.288
71868SOL     OW17435   0.797   7.787  10.131
71868SOL    HW117436   0.757   7.838  10.201
71868SOL    HW217437   0.754   7.702  10.134
71869SOL     OW17438   8.473  10.651   8.539
71869SOL    HW117439   8.550  10.632   8.486
71869SOL    HW217440   8.439  10.734   8.504
71870SOL     OW17441  13.159  10.987   4.861
71870SOL    HW117442  13.152  10.894   4.885
71870SOL    HW217443  13.074  11.009   4.823
71871SOL     OW17444  10.633   8.202  13.942
71871SOL    HW117445  10.593   8.235  13.862
71871SOL    HW217446  10.715   8.162  13.914
71872SOL     OW17447   2.912   3.726   9.214
71872SOL    HW117448   2.942   3.688   9.296
71872SOL    HW217449   2.935   3.661   9.147
71873SOL     OW17450   7.548   6.300   2.130
71873SOL    HW117451   7.526   6.385   2.091
71873SOL    HW217452   7.560   6.241   2.056
71874SOL     OW17453   6.960   5.736   8.905
71874SOL    HW117454   7.023   5.694   8.847
71874SOL    HW217455   6.963   5.684   8.986
71875SOL     OW17456  14.556   3.894   0.005
71875SOL    HW117457  14.517   3.980   0.020
71875SOL    HW217458  14.539   3.845   0.085
71876SOL     OW17459  11.844   9.075  12.624
71876SOL    HW117460  11.810   9.071  12.534
71876SOL    HW217461  11.903   8.999  12.630
71877SOL     OW17462   7.600  11.676  10.517
71877SOL    HW117463   7.553  11.648  10.595
71877SOL    HW217464   7.562  11.623  10.446
71878SOL     OW17465   1.607   0.833   0.628
71878SOL    HW117466   1.700   0.855   0.615
71878SOL    HW217467   1.594   0.753   0.576
71879SOL     OW17468   9.282  14.252   5.695
71879SOL    HW117469   9.361  14.307   5.691
71879SOL    HW217470   9.259  14.250   5.788
71880SOL     OW17471   9.015  13.496   0.000
71880SOL    HW117472   8.992  13.578   0.044
71880SOL    HW217473   8.930  13.455  14.857
71881SOL     OW17474   2.368   8.703   7.342
71881SOL    HW117475   2.356   8.797   7.355
71881SOL    HW217476   2.338   8.687   7.252
71882SOL     OW17477   7.079  12.649  13.057
71882SOL    HW117478   7.036  12.733  13.075
71882SOL    HW217479   7.012  12.597  13.012
71883SOL     OW17480  11.847   0.449  12.420
71883SOL    HW117481  11.929   0.455  12.370
71883SOL    HW217482  11.841   0.357  12.444
71884SOL     OW17483   6.097   2.642  11.334
71884SOL    HW117484   6.147   2.714  11.296
71884SOL    HW217485   6.019   2.684  11.371
71885SOL     OW17486   4.285   2.269   8.916
71885SOL    HW117487   4.238   2.291   8.836
71885SOL    HW217488   4.372   2.242   8.887
71886SOL     OW17489   9.691   1.354  12.220
71886SOL    HW117490   9.682   1.436  12.172
71886SOL    HW217491   9.772   1.316  12.186
71887SOL     OW17492   7.378   6.931   9.691
71887SOL    HW117493   7.289   6.963   9.675
71887SOL    HW217494   7.434   7.005   9.671
71888SOL     OW17495   5.470   7.472  13.782
71888SOL    HW117496   5.482   7.397  13.841
71888SOL    HW217497   5.403   7.525  13.824
71889SOL     OW17498   6.001  12.179   8.687
71889SOL    HW117499   5.959  12.243   8.629
71889SOL    HW217500   6.089  12.213   8.701
71890SOL     OW17501   2.448   5.442  11.311
71890SOL    HW117502   2.479   5.481  11.229
71890SOL    HW217503   2.528   5.426  11.362
71891SOL     OW17504  11.484   7.829   6.698
71891SOL    HW117505  11.480   7.870   6.612
71891SOL    HW217506  11.470   7.736   6.682
71892SOL     OW17507  11.376  13.618  13.443
71892SOL    HW117508  11.405  13.550  13.383
71892SOL    HW217509  11.421  13.697  13.414
71893SOL     OW17510   0.390   2.113   3.550
71893SOL    HW117511   0.447   2.077   3.618
71893SOL    HW217512   0.441   2.107   3.470
71894SOL     OW17513   2.901  12.834   8.099
71894SOL    HW117514   2.829  12.834   8.036
71894SOL    HW217515   2.891  12.752   8.147
71895SOL     OW17516  12.487  10.863   7.559
71895SOL    HW117517  12.574  10.865   7.597
71895SOL    HW217518  12.498  10.898   7.470
71896SOL     OW17519  11.283   4.487  12.345
71896SOL    HW117520  11.302   4.529  12.428
71896SOL    HW217521  11.356   4.510  12.288
71897SOL     OW17522   6.277   2.939   3.499
71897SOL    HW117523   6.185   2.945   3.475
71897SOL    HW217524   6.324   2.943   3.416
71898SOL     OW17525   2.357  11.140   8.737
71898SOL    HW117526   2.448  11.113   8.733
71898SOL    HW217527   2.359  11.225   8.780
71899SOL     OW17528  11.149  14.296  10.284
71899SOL    HW117529  11.218  14.344  10.238
71899SOL    HW217530  11.082  14.280  10.218
71900SOL     OW17531   2.087  12.210   4.042
71900SOL    HW117532   2.028  12.160   4.097
71900SOL    HW217533   2.096  12.158   3.962
71901SOL     OW17534  11.491   2.361  10.263
71901SOL    HW117535  11.510   2.453  10.281
71901SOL    HW217536  11.491   2.354  10.168
71902SOL     OW17537   1.031  12.315   3.467
71902SOL    HW117538   0.959  12.365   3.430
71902SOL    HW217539   1.053  12.362   3.548
71903SOL     OW17540   0.482   7.711   9.043
71903SOL    HW117541   0.483   7.657   9.122
71903SOL    HW217542   0.393   7.701   9.008
71904SOL     OW17543   3.023   4.101   5.157
71904SOL    HW117544   2.972   4.024   5.130
71904SOL    HW217545   3.032   4.091   5.252
71905SOL     OW17546   1.043   5.442   1.758
71905SOL    HW117547   0.975   5.495   1.716
71905SOL    HW217548   1.090   5.504   1.814
71906SOL     OW17549   1.798   5.276   0.849
71906SOL    HW117550   1.713   5.235   0.834
71906SOL    HW217551   1.851   5.209   0.891
71907SOL     OW17552   2.004   7.076   6.667
71907SOL    HW117553   1.933   7.067   6.731
71907SOL    HW217554   2.062   7.143   6.704
71908SOL     OW17555  12.525   7.855  10.987
71908SOL    HW117556  12.507   7.772  11.031
71908SOL    HW217557  12.562   7.911  11.056
71909SOL     OW17558   4.776   2.100  11.314
71909SOL    HW117559   4.862   2.058  11.310
71909SOL    HW217560   4.731   2.068  11.236
71910SOL     OW17561  14.520   6.973  10.756
71910SOL    HW117562  14.513   6.900  10.694
71910SOL    HW217563  14.564   6.935  10.832
71911SOL     OW17564   0.576   2.406  13.128
71911SOL    HW117565   0.621   2.358  13.058
71911SOL    HW217566   0.596   2.498  13.111
71912SOL     OW17567  11.600   0.859   6.918
71912SOL    HW117568  11.681   0.870   6.966
71912SOL    HW217569  11.585   0.944   6.876
71913SOL     OW17570   3.077   8.388  10.032
71913SOL    HW117571   3.026   8.469  10.032
71913SOL    HW217572   3.022   8.324   9.986
71914SOL     OW17573   7.461   8.948   0.465
71914SOL    HW117574   7.496   8.885   0.402
71914SOL    HW217575   7.421   9.016   0.411
71915SOL     OW17576   2.378   4.550   8.078
71915SOL    HW117577   2.452   4.594   8.036
71915SOL    HW217578   2.307   4.557   8.015
71916SOL     OW17579   9.483   4.113  11.865
71916SOL    HW117580   9.557   4.115  11.925
71916SOL    HW217581   9.468   4.019  11.849
71917SOL     OW17582   0.752   9.729   5.703
71917SOL    HW117583   0.783   9.761   5.618
71917SOL    HW217584   0.726   9.638   5.687
71918SOL     OW17585   1.519   7.682  11.951
71918SOL    HW117586   1.530   7.746  11.881
71918SOL    HW217587   1.482   7.605  11.907
71919SOL     OW17588   8.239  12.322   1.013
71919SOL    HW117589   8.313  12.353   0.961
71919SOL    HW217590   8.171  12.300   0.949
71920SOL     OW17591   0.332   2.478  12.351
71920SOL    HW117592   0.338   2.522  12.436
71920SOL    HW217593   0.242   2.495  12.322
71921SOL     OW17594   6.297   6.220   1.230
71921SOL    HW117595   6.378   6.174   1.210
71921SOL    HW217596   6.251   6.163   1.292
71922SOL     OW17597   3.109   4.641   7.841
71922SOL    HW117598   3.021   4.632   7.803
71922SOL    HW217599   3.093   4.684   7.925
71923SOL     OW17600   3.881   6.157   3.683
71923SOL    HW117601   3.850   6.090   3.622
71923SOL    HW217602   3.834   6.140   3.764
71924SOL     OW17603   9.870   6.931   1.144
71924SOL    HW117604   9.807   6.953   1.212
71924SOL    HW217605   9.951   6.910   1.191
71925SOL     OW17606   4.517   4.456   7.656
71925SOL    HW117607   4.514   4.527   7.720
71925SOL    HW217608   4.468   4.491   7.581
71926SOL     OW17609   8.540   5.377   9.275
71926SOL    HW117610   8.495   5.293   9.269
71926SOL    HW217611   8.564   5.385   9.367
71927SOL     OW17612  14.031   5.861   3.391
71927SOL    HW117613  14.018   5.798   3.461
71927SOL    HW217614  13.962   5.927   3.405
71928SOL     OW17615  12.264   9.677   6.783
71928SOL    HW117616  12.231   9.694   6.695
71928SOL    HW217617  12.189   9.641   6.830
71929SOL     OW17618   5.408   1.272  14.333
71929SOL    HW117619   5.453   1.212  14.392
71929SOL    HW217620   5.407   1.356  14.379
71930SOL     OW17621  11.812   6.943  13.639
71930SOL    HW117622  11.890   6.997  13.656
71930SOL    HW217623  11.846   6.866  13.594
71931SOL     OW17624   6.296   9.145   1.034
71931SOL    HW117625   6.372   9.087   1.028
71931SOL    HW217626   6.325   9.218   1.089
71932SOL     OW17627  10.481  10.087  10.578
71932SOL    HW117628  10.541  10.069  10.650
71932SOL    HW217629  10.413  10.020  10.585
71933SOL     OW17630   8.345   6.079  13.346
71933SOL    HW117631   8.275   6.035  13.297
71933SOL    HW217632   8.406   6.009  13.369
71934SOL     OW17633   6.151   1.530   2.281
71934SOL    HW117634   6.221   1.468   2.298
71934SOL    HW217635   6.113   1.548   2.367
71935SOL     OW17636  12.346   6.658   1.437
71935SOL    HW117637  12.402   6.735   1.443
71935SOL    HW217638  12.267   6.690   1.392
71936SOL     OW17639  12.465   7.796  12.777
71936SOL    HW117640  12.402   7.746  12.727
71936SOL    HW217641  12.422   7.813  12.861
71937SOL     OW17642   9.522   8.450   0.209
71937SOL    HW117643   9.603   8.502   0.212
71937SOL    HW217644   9.518   8.419   0.118
71938SOL     OW17645  12.641  14.340   5.475
71938SOL    HW117646  12.690  14.282   5.418
71938SOL    HW217647  12.549  14.325   5.451
71939SOL     OW17648  13.773   5.677  11.500
71939SOL    HW117649  13.695   5.732  11.507
71939SOL    HW217650  13.840   5.725  11.550
71940SOL     OW17651   0.965   2.264  14.240
71940SOL    HW117652   0.961   2.206  14.164
71940SOL    HW217653   0.986   2.350  14.203
71941SOL     OW17654   2.126   5.259  12.266
71941SOL    HW117655   2.191   5.329  12.268
71941SOL    HW217656   2.042   5.304  12.255
71942SOL     OW17657   0.222   8.834   4.615
71942SOL    HW117658   0.290   8.899   4.636
71942SOL    HW217659   0.172   8.874   4.544
71943SOL     OW17660   3.142   7.586   1.332
71943SOL    HW117661   3.138   7.523   1.404
71943SOL    HW217662   3.051   7.595   1.304
71944SOL     OW17663   2.362  13.682  13.726
71944SOL    HW117664   2.322  13.750  13.781
71944SOL    HW217665   2.439  13.653  13.776
71945SOL     OW17666  11.379   0.157   2.536
71945SOL    HW117667  11.440   0.231   2.540
71945SOL    HW217668  11.411   0.104   2.463
71946SOL     OW17669  14.852   3.948   7.100
71946SOL    HW117670  14.843   4.042   7.083
71946SOL    HW217671  14.780   3.908   7.051
71947SOL     OW17672   4.430   5.132  14.609
71947SOL    HW117673   4.388   5.046  14.598
71947SOL    HW217674   4.471   5.149  14.524
71948SOL     OW17675   0.312   0.976   7.426
71948SOL    HW117676   0.401   0.975   7.392
71948SOL    HW217677   0.260   0.932   7.358
71949SOL     OW17678   6.388   6.740   0.794
71949SOL    HW117679   6.293   6.729   0.799
71949SOL    HW217680   6.423   6.674   0.854
71950SOL     OW17681   5.928   3.147   3.617
71950SOL    HW117682   5.972   3.065   3.639
71950SOL    HW217683   5.998   3.204   3.585
71951SOL     OW17684   9.773   1.227   3.649
71951SOL    HW117685   9.825   1.150   3.629
71951SOL    HW217686   9.827   1.278   3.709
71952SOL     OW17687  13.731   7.041  12.358
71952SOL    HW117688  13.662   7.071  12.299
71952SOL    HW217689  13.724   6.946  12.357
71953SOL     OW17690   2.630  14.466   5.913
71953SOL    HW117691   2.693  14.532   5.941
71953SOL    HW217692   2.545  14.511   5.914
71954SOL     OW17693   3.839   4.225   3.329
71954SOL    HW117694   3.901   4.172   3.280
71954SOL    HW217695   3.780   4.261   3.263
71955SOL     OW17696  14.791  11.044  13.850
71955SOL    HW117697  14.733  10.980  13.809
71955SOL    HW217698  14.756  11.129  13.825
71956SOL     OW17699   1.814   3.333  10.808
71956SOL    HW117700   1.754   3.353  10.881
71956SOL    HW217701   1.766   3.271  10.753
71957SOL     OW17702   2.937   5.872  11.649
71957SOL    HW117703   2.899   5.924  11.579
71957SOL    HW217704   3.028   5.902  11.655
71958SOL     OW17705   7.355   8.563   6.425
71958SOL    HW117706   7.274   8.535   6.382
71958SOL    HW217707   7.332   8.571   6.517
71959SOL     OW17708   5.562   2.678  10.400
71959SOL    HW117709   5.647   2.638  10.418
71959SOL    HW217710   5.536   2.716  10.483
71960SOL     OW17711   7.430   8.249   9.283
71960SOL    HW117712   7.449   8.327   9.231
71960SOL    HW217713   7.334   8.247   9.288
71961SOL     OW17714  11.999  12.289  10.718
71961SOL    HW117715  12.071  12.349  10.737
71961SOL    HW217716  12.034  12.230  10.651
71962SOL     OW17717   4.686   6.988  14.501
71962SOL    HW117718   4.679   7.013  14.409
71962SOL    HW217719   4.634   7.053  14.548
71963SOL     OW17720  14.260   6.268   2.745
71963SOL    HW117721  14.259   6.255   2.840
71963SOL    HW217722  14.255   6.362   2.733
71964SOL     OW17723   0.532   5.671   9.718
71964SOL    HW117724   0.465   5.680   9.651
71964SOL    HW217725   0.549   5.761   9.747
71965SOL     OW17726   5.312   4.839  11.075
71965SOL    HW117727   5.278   4.750  11.077
71965SOL    HW217728   5.377   4.843  11.145
71966SOL     OW17729  12.856   3.375  10.888
71966SOL    HW117730  12.850   3.291  10.933
71966SOL    HW217731  12.769   3.389  10.852
71967SOL     OW17732  14.570   1.436  10.010
71967SOL    HW117733  14.535   1.408   9.926
71967SOL    HW217734  14.496   1.430  10.071
71968SOL     OW17735   1.114   0.170  10.004
71968SOL    HW117736   1.160   0.185   9.921
71968SOL    HW217737   1.177   0.196  10.071
71969SOL     OW17738   8.986   4.520  10.812
71969SOL    HW117739   8.905   4.471  10.826
71969SOL    HW217740   8.968   4.608  10.845
71970SOL     OW17741   7.411   0.075   3.012
71970SOL    HW117742   7.466   0.000   3.035
71970SOL    HW217743   7.473   0.144   2.987
71971SOL     OW17744  11.678   8.253   8.870
71971SOL    HW117745  11.700   8.278   8.781
71971SOL    HW217746  11.620   8.178   8.861
71972SOL     OW17747  13.404  12.628  12.347
71972SOL    HW117748  13.339  12.643  12.415
71972SOL    HW217749  13.389  12.698  12.283
71973SOL     OW17750   7.474  12.353  11.541
71973SOL    HW117751   7.506  12.359  11.451
71973SOL    HW217752   7.385  12.318  11.532
71974SOL     OW17753   6.888  11.723   3.674
71974SOL    HW117754   6.974  11.725   3.633
71974SOL    HW217755   6.833  11.675   3.612
71975SOL     OW17756   7.511   5.538  13.331
71975SOL    HW117757   7.587   5.579  13.374
71975SOL    HW217758   7.488   5.599  13.261
71976SOL     OW17759   9.943  13.879   9.327
71976SOL    HW117760   9.853  13.863   9.299
71976SOL    HW217761   9.993  13.805   9.291
71977SOL     OW17762  11.511   5.685   8.885
71977SOL    HW117763  11.516   5.657   8.794
71977SOL    HW217764  11.431   5.738   8.889
71978SOL     OW17765   0.934   8.832   5.503
71978SOL    HW117766   0.915   8.902   5.565
71978SOL    HW217767   0.888   8.756   5.537
71979SOL     OW17768   0.915  11.547   1.084
71979SOL    HW117769   0.966  11.527   1.162
71979SOL    HW217770   0.979  11.579   1.021
71980SOL     OW17771  12.965  14.084   1.494
71980SOL    HW117772  12.966  14.052   1.404
71980SOL    HW217773  13.027  14.157   1.494
71981SOL     OW17774  11.341   8.772  11.514
71981SOL    HW117775  11.385   8.776  11.430
71981SOL    HW217776  11.343   8.861  11.548
71982SOL     OW17777  10.572   5.806   9.366
71982SOL    HW117778  10.610   5.893   9.356
71982SOL    HW217779  10.647   5.747   9.375
71983SOL     OW17780  11.425  13.524  11.828
71983SOL    HW117781  11.374  13.468  11.769
71983SOL    HW217782  11.427  13.609  11.785
71984SOL     OW17783  11.152   4.499   9.307
71984SOL    HW117784  11.213   4.570   9.285
71984SOL    HW217785  11.069   4.525   9.266
71985SOL     OW17786   3.278   7.115   6.649
71985SOL    HW117787   3.266   7.088   6.558
71985SOL    HW217788   3.190   7.138   6.679
71986SOL     OW17789   7.607  11.426  13.265
71986SOL    HW117790   7.646  11.394  13.183
71986SOL    HW217791   7.680  11.432  13.326
71987SOL     OW17792  14.625  13.982  12.713
71987SOL    HW117793  14.644  14.013  12.625
71987SOL    HW217794  14.708  13.945  12.744
71988SOL     OW17795   3.154  11.948   7.562
71988SOL    HW117796   3.218  11.967   7.493
71988SOL    HW217797   3.186  11.867   7.602
71989SOL     OW17798  12.984  13.793   6.114
71989SOL    HW117799  12.993  13.882   6.081
71989SOL    HW217800  12.931  13.748   6.049
71990SOL     OW17801   0.769  13.534   6.678
71990SOL    HW117802   0.782  13.505   6.588
71990SOL    HW217803   0.817  13.470   6.731
71991SOL     OW17804  13.999   6.824  14.051
71991SOL    HW117805  13.951   6.897  14.011
71991SOL    HW217806  14.075   6.812  13.995
71992SOL     OW17807   5.492  14.155   3.710
71992SOL    HW117808   5.478  14.207   3.790
71992SOL    HW217809   5.548  14.083   3.738
71993SOL     OW17810   6.212   4.394   8.136
71993SOL    HW117811   6.179   4.464   8.192
71993SOL    HW217812   6.254   4.440   8.063
71994SOL     OW17813   2.178  12.071  12.352
71994SOL    HW117814   2.144  12.160  12.344
71994SOL    HW217815   2.232  12.073  12.431
71995SOL     OW17816   7.223  10.280   4.398
71995SOL    HW117817   7.147  10.266   4.342
71995SOL    HW217818   7.281  10.206   4.380
71996SOL     OW17819   9.912   1.813   6.901
71996SOL    HW117820   9.913   1.730   6.948
71996SOL    HW217821   9.934   1.790   6.810
71997SOL     OW17822   1.014   4.079   1.821
71997SOL    HW117823   0.946   4.046   1.762
71997SOL    HW217824   1.094   4.079   1.769
71998SOL     OW17825  12.820   6.932  11.926
71998SOL    HW117826  12.880   6.988  11.975
71998SOL    HW217827  12.735   6.978  11.931
71999SOL     OW17828  12.294  12.742   6.130
71999SOL    HW117829  12.365  12.794   6.169
71999SOL    HW217830  12.269  12.680   6.199
72000SOL     OW17831   2.228  12.275   2.980
72000SOL    HW117832   2.143  12.240   3.008
72000SOL    HW217833   2.292  12.234   3.038
72001SOL     OW17834  11.525   2.314   8.288
72001SOL    HW117835  11.465   2.303   8.214
72001SOL    HW217836  11.602   2.262   8.265
72002SOL     OW17837  11.106  12.182   9.428
72002SOL    HW117838  11.191  12.141   9.410
72002SOL    HW217839  11.085  12.228   9.347
72003SOL     OW17840   6.925   3.535   9.333
72003SOL    HW117841   7.005   3.572   9.296
72003SOL    HW217842   6.855   3.595   9.306
72004SOL     OW17843   3.878  12.033  10.597
72004SOL    HW117844   3.782  12.027  10.596
72004SOL    HW217845   3.897  12.102  10.661
72005SOL     OW17846  12.344  12.678   0.596
72005SOL    HW117847  12.318  12.770   0.595
72005SOL    HW217848  12.271  12.633   0.639
72006SOL     OW17849   8.247   0.787  11.172
72006SOL    HW117850   8.280   0.711  11.124
72006SOL    HW217851   8.214   0.846  11.104
72007SOL     OW17852  13.008   9.982  12.897
72007SOL    HW117853  13.040   9.912  12.841
72007SOL    HW217854  13.086  10.035  12.916
72008SOL     OW17855   9.099  10.747   9.414
72008SOL    HW117856   9.109  10.765   9.321
72008SOL    HW217857   9.134  10.824   9.458
72009SOL     OW17858  12.607  13.697  12.623
72009SOL    HW117859  12.683  13.725  12.674
72009SOL    HW217860  12.621  13.734  12.536
72010SOL     OW17861  13.459  11.866  13.818
72010SOL    HW117862  13.486  11.885  13.728
72010SOL    HW217863  13.530  11.813  13.854
72011SOL     OW17864  11.404  12.074   8.638
72011SOL    HW117865  11.377  11.985   8.619
72011SOL    HW217866  11.325  12.127   8.626
72012SOL     OW17867  14.484   4.793   9.912
72012SOL    HW117868  14.504   4.735   9.839
72012SOL    HW217869  14.465   4.734   9.985
72013SOL     OW17870  11.992   2.108   3.130
72013SOL    HW117871  11.914   2.142   3.174
72013SOL    HW217872  12.042   2.186   3.105
72014SOL     OW17873   6.383   9.106   2.827
72014SOL    HW117874   6.395   9.022   2.784
72014SOL    HW217875   6.448   9.164   2.786
72015SOL     OW17876   4.204   7.415   8.947
72015SOL    HW117877   4.268   7.355   8.908
72015SOL    HW217878   4.126   7.406   8.892
72016SOL     OW17879  10.141   1.276   0.574
72016SOL    HW117880  10.161   1.367   0.552
72016SOL    HW217881  10.051   1.263   0.545
72017SOL     OW17882  13.635  10.415  13.634
72017SOL    HW117883  13.662  10.388  13.722
72017SOL    HW217884  13.582  10.343  13.601
72018SOL     OW17885   3.533   4.049   0.579
72018SOL    HW117886   3.441   4.048   0.603
72018SOL    HW217887   3.579   4.022   0.658
72019SOL     OW17888  10.232   6.271   5.916
72019SOL    HW117889  10.223   6.176   5.912
72019SOL    HW217890  10.240   6.290   6.009
72020SOL     OW17891   0.711  14.039   4.044
72020SOL    HW117892   0.689  14.033   4.137
72020SOL    HW217893   0.634  14.081   4.005
72021SOL     OW17894   4.991   6.829   7.788
72021SOL    HW117895   4.981   6.838   7.882
72021SOL    HW217896   5.080   6.860   7.770
72022SOL     OW17897  11.039   4.252   8.954
72022SOL    HW117898  10.984   4.187   8.998
72022SOL    HW217899  11.110   4.269   9.016
72023SOL     OW17900   4.892   2.954  13.434
72023SOL    HW117901   4.937   3.038  13.443
72023SOL    HW217902   4.962   2.890  13.423
72024SOL     OW17903  13.926   6.132   7.181
72024SOL    HW117904  13.978   6.152   7.259
72024SOL    HW217905  13.856   6.196   7.181
72025SOL     OW17906   9.058   4.227   3.944
72025SOL    HW117907   9.074   4.262   3.856
72025SOL    HW217908   9.093   4.138   3.941
72026SOL     OW17909   7.144   1.374   0.346
72026SOL    HW117910   7.095   1.444   0.303
72026SOL    HW217911   7.210   1.419   0.399
72027SOL     OW17912   4.055  14.487   5.713
72027SOL    HW117913   4.134  14.537   5.735
72027SOL    HW217914   4.088  14.404   5.678
72028SOL     OW17915  13.786   2.380  13.391
72028SOL    HW117916  13.701   2.422  13.378
72028SOL    HW217917  13.828   2.384  13.305
72029SOL     OW17918  12.653   0.949   7.875
72029SOL    HW117919  12.699   1.006   7.936
72029SOL    HW217920  12.722   0.897   7.833
72030SOL     OW17921  11.774  10.157   3.299
72030SOL    HW117922  11.759  10.213   3.223
72030SOL    HW217923  11.746  10.210   3.374
72031SOL     OW17924   0.972   8.103   9.829
72031SOL    HW117925   0.967   8.165   9.902
72031SOL    HW217926   0.997   8.020   9.870
72032SOL     OW17927  13.303  10.246   4.665
72032SOL    HW117928  13.293  10.211   4.576
72032SOL    HW217929  13.246  10.191   4.719
72033SOL     OW17930  11.731   7.529   7.813
72033SOL    HW117931  11.658   7.561   7.867
72033SOL    HW217932  11.799   7.596   7.822
72034SOL     OW17933   5.512   1.711   0.165
72034SOL    HW117934   5.457   1.781   0.199
72034SOL    HW217935   5.521   1.730   0.071
72035SOL     OW17936  13.666   7.197  14.590
72035SOL    HW117937  13.746   7.236  14.555
72035SOL    HW217938  13.597   7.258  14.566
72036SOL     OW17939  10.472   5.236  14.580
72036SOL    HW117940  10.503   5.255  14.491
72036SOL    HW217941  10.550   5.205  14.626
72037SOL     OW17942   7.771  14.138   7.213
72037SOL    HW117943   7.779  14.220   7.261
72037SOL    HW217944   7.832  14.147   7.140
72038SOL     OW17945  13.933  12.320   4.222
72038SOL    HW117946  13.855  12.285   4.264
72038SOL    HW217947  13.901  12.356   4.139
72039SOL     OW17948   8.686  11.815   3.839
72039SOL    HW117949   8.776  11.782   3.832
72039SOL    HW217950   8.691  11.906   3.811
72040SOL     OW17951   6.995  14.552   1.492
72040SOL    HW117952   7.060  14.488   1.464
72040SOL    HW217953   7.034  14.637   1.471
72041SOL     OW17954   9.725   1.537   6.032
72041SOL    HW117955   9.736   1.589   6.112
72041SOL    HW217956   9.699   1.600   5.965
72042SOL     OW17957   5.935   1.834   2.389
72042SOL    HW117958   6.029   1.838   2.371
72042SOL    HW217959   5.893   1.848   2.304
72043SOL     OW17960  10.585   6.523   4.844
72043SOL    HW117961  10.629   6.441   4.819
72043SOL    HW217962  10.641   6.592   4.807
72044SOL     OW17963  12.194   7.316   1.172
72044SOL    HW117964  12.233   7.229   1.165
72044SOL    HW217965  12.100   7.300   1.180
72045SOL     OW17966   8.768   6.719  11.419
72045SOL    HW117967   8.850   6.731  11.468
72045SOL    HW217968   8.771   6.787  11.352
72046SOL     OW17969   2.355   9.516  13.223
72046SOL    HW117970   2.287   9.514  13.290
72046SOL    HW217971   2.437   9.524  13.271
72047SOL     OW17972  13.224   2.986  14.467
72047SOL    HW117973  13.303   3.036  14.448
72047SOL    HW217974  13.153   3.049  14.456
72048SOL     OW17975   4.204  11.510  10.085
72048SOL    HW117976   4.245  11.543  10.005
72048SOL    HW217977   4.167  11.588  10.127
72049SOL     OW17978   7.166   8.016   5.641
72049SOL    HW117979   7.159   7.940   5.583
72049SOL    HW217980   7.203   8.085   5.586
72050SOL     OW17981  10.725  10.206  14.791
72050SOL    HW117982  10.682  10.133  14.836
72050SOL    HW217983  10.730  10.178  14.700
72051SOL     OW17984  10.832   4.024   2.239
72051SOL    HW117985  10.926   4.015   2.254
72051SOL    HW217986  10.791   3.981   2.314
72052SOL     OW17987   1.996   3.220  11.534
72052SOL    HW117988   2.059   3.257  11.595
72052SOL    HW217989   1.918   3.204  11.587
72053SOL     OW17990   8.078  11.418   9.026
72053SOL    HW117991   8.169  11.422   9.054
72053SOL    HW217992   8.074  11.342   8.968
72054SOL     OW17993   9.162   4.762   3.435
72054SOL    HW117994   9.106   4.835   3.409
72054SOL    HW217995   9.177   4.777   3.529
72055SOL     OW17996  10.549   0.211  13.809
72055SOL    HW117997  10.569   0.117  13.811
72055SOL    HW217998  10.555   0.235  13.717
72056SOL     OW17999   6.869  11.515   8.072
72056SOL    HW118000   6.786  11.537   8.028
72056SOL    HW218001   6.937  11.549   8.014
72057SOL     OW18002  13.639   2.053   3.528
72057SOL    HW118003  13.636   1.969   3.572
72057SOL    HW218004  13.732   2.076   3.523
72058SOL     OW18005   1.806   9.384   9.854
72058SOL    HW118006   1.878   9.381   9.917
72058SOL    HW218007   1.742   9.443   9.894
72059SOL     OW18008   0.013  11.562   0.240
72059SOL    HW118009   0.036  11.641   0.289
72059SOL    HW218010   0.064  11.492   0.281
72060SOL     OW18011   2.653   5.318   3.066
72060SOL    HW118012   2.719   5.269   3.116
72060SOL    HW218013   2.667   5.290   2.976
72061SOL     OW18014   4.492   5.800  13.225
72061SOL    HW118015   4.448   5.726  13.183
72061SOL    HW218016   4.421   5.853  13.260
72062SOL     OW18017   2.246   1.097   3.484
72062SOL    HW118018   2.165   1.128   3.444
72062SOL    HW218019   2.294   1.177   3.506
72063SOL     OW18020   0.546  10.687   4.360
72063SOL    HW118021   0.543  10.642   4.276
72063SOL    HW218022   0.498  10.629   4.419
72064SOL     OW18023  12.028   9.285   5.525
72064SOL    HW118024  12.082   9.219   5.482
72064SOL    HW218025  11.979   9.236   5.592
72065SOL     OW18026   0.517   6.027  11.565
72065SOL    HW118027   0.511   5.955  11.628
72065SOL    HW218028   0.533   5.983  11.481
72066SOL     OW18029   0.100  13.006  10.843
72066SOL    HW118030   0.042  12.930  10.838
72066SOL    HW218031   0.160  12.986  10.914
72067SOL     OW18032  13.419  10.530  10.128
72067SOL    HW118033  13.430  10.591  10.055
72067SOL    HW218034  13.422  10.443  10.088
72068SOL     OW18035   2.466   2.472   4.820
72068SOL    HW118036   2.540   2.523   4.788
72068SOL    HW218037   2.418   2.533   4.877
72069SOL     OW18038  11.454   9.184   0.577
72069SOL    HW118039  11.374   9.161   0.529
72069SOL    HW218040  11.504   9.237   0.515
72070SOL     OW18041   6.425  14.094  12.448
72070SOL    HW118042   6.412  14.006  12.484
72070SOL    HW218043   6.491  14.134  12.505
72071SOL     OW18044  11.300   2.070  12.994
72071SOL    HW118045  11.286   2.092  13.086
72071SOL    HW218046  11.239   1.998  12.977
72072SOL     OW18047   0.989  11.576   1.373
72072SOL    HW118048   1.064  11.523   1.398
72072SOL    HW218049   0.931  11.572   1.450
72073SOL     OW18050   8.953   1.017   4.744
72073SOL    HW118051   8.912   1.045   4.662
72073SOL    HW218052   8.897   0.946   4.776
72074SOL     OW18053  11.292   0.590   0.385
72074SOL    HW118054  11.247   0.656   0.437
72074SOL    HW218055  11.366   0.563   0.440
72075SOL     OW18056   2.523   5.152  12.016
72075SOL    HW118057   2.588   5.138  11.948
72075SOL    HW218058   2.453   5.202  11.973
72076SOL     OW18059   5.636   3.864  14.528
72076SOL    HW118060   5.642   3.922  14.605
72076SOL    HW218061   5.569   3.800  14.551
72077SOL     OW18062   0.336   2.882   6.693
72077SOL    HW118063   0.265   2.938   6.661
72077SOL    HW218064   0.385   2.938   6.753
72078SOL     OW18065  10.136  13.675   1.371
72078SOL    HW118066  10.174  13.739   1.431
72078SOL    HW218067  10.058  13.717   1.336
72079SOL     OW18068   2.112   5.315  12.686
72079SOL    HW118069   2.076   5.271  12.763
72079SOL    HW218070   2.143   5.243  12.631
72080SOL     OW18071  14.405   9.533   1.999
72080SOL    HW118072  14.320   9.536   2.042
72080SOL    HW218073  14.402   9.455   1.944
72081SOL     OW18074   2.491  11.551   2.944
72081SOL    HW118075   2.522  11.543   3.035
72081SOL    HW218076   2.539  11.484   2.896
72082SOL     OW18077  11.537   3.826   0.372
72082SOL    HW118078  11.450   3.789   0.360
72082SOL    HW218079  11.530   3.916   0.341
72083SOL     OW18080  14.762   5.222  12.577
72083SOL    HW118081  14.719   5.228  12.492
72083SOL    HW218082  14.793   5.310  12.595
72084SOL     OW18083   3.596   3.295   4.026
72084SOL    HW118084   3.650   3.366   3.991
72084SOL    HW218085   3.534   3.338   4.084
72085SOL     OW18086  10.316  13.290  12.613
72085SOL    HW118087  10.272  13.213  12.577
72085SOL    HW218088  10.260  13.317  12.686
72086SOL     OW18089   0.018  12.486   7.385
72086SOL    HW118090   0.079  12.415   7.365
72086SOL    HW218091  14.810  12.443   7.399
72087SOL     OW18092   8.582   2.756   3.374
72087SOL    HW118093   8.660   2.790   3.417
72087SOL    HW218094   8.537   2.707   3.443
72088SOL     OW18095   6.864   9.149   0.709
72088SOL    HW118096   6.892   9.221   0.652
72088SOL    HW218097   6.907   9.072   0.673
72089SOL     OW18098  12.790   8.203   5.353
72089SOL    HW118099  12.759   8.177   5.440
72089SOL    HW218100  12.769   8.296   5.346
72090SOL     OW18101   9.501   4.484  10.997
72090SOL    HW118102   9.510   4.413  10.934
72090SOL    HW218103   9.415   4.522  10.978
72091SOL     OW18104   2.806   2.050   6.062
72091SOL    HW118105   2.741   2.054   5.992
72091SOL    HW218106   2.765   1.997   6.130
72092SOL     OW18107   9.403   5.339   5.946
72092SOL    HW118108   9.455   5.259   5.955
72092SOL    HW218109   9.386   5.345   5.852
72093SOL     OW18110   9.613   0.645  14.229
72093SOL    HW118111   9.680   0.691  14.280
72093SOL    HW218112   9.530   0.683  14.257
72094SOL     OW18113  12.468  13.980  12.691
72094SOL    HW118114  12.486  13.903  12.637
72094SOL    HW218115  12.526  14.048  12.655
72095SOL     OW18116   2.148   6.630   3.496
72095SOL    HW118117   2.205   6.706   3.506
72095SOL    HW218118   2.153   6.585   3.581
72096SOL     OW18119  11.276  14.791   9.505
72096SOL    HW118120  11.265  14.855   9.575
72096SOL    HW218121  11.194  14.741   9.505
72097SOL     OW18122  10.215   5.334   3.174
72097SOL    HW118123  10.194   5.376   3.091
72097SOL    HW218124  10.245   5.406   3.230
72098SOL     OW18125   8.818   4.898  10.492
72098SOL    HW118126   8.881   4.841  10.448
72098SOL    HW218127   8.866   4.932  10.568
72099SOL     OW18128  10.130  12.078   3.954
72099SOL    HW118129  10.125  12.161   3.906
72099SOL    HW218130  10.140  12.104   4.046
72100SOL     OW18131   6.847   3.679   8.932
72100SOL    HW118132   6.887   3.763   8.912
72100SOL    HW218133   6.916   3.629   8.974
72101SOL     OW18134   1.360   5.023   7.882
72101SOL    HW118135   1.405   4.942   7.907
72101SOL    HW218136   1.424   5.070   7.828
72102SOL     OW18137   2.882   2.899  13.075
72102SOL    HW118138   2.904   2.982  13.032
72102SOL    HW218139   2.858   2.925  13.164
72103SOL     OW18140  12.929   0.168   4.177
72103SOL    HW118141  12.866   0.131   4.115
72103SOL    HW218142  12.999   0.202   4.123
72104SOL     OW18143  12.857   2.880   0.449
72104SOL    HW118144  12.826   2.877   0.358
72104SOL    HW218145  12.952   2.893   0.441
72105SOL     OW18146   0.651   0.825   8.246
72105SOL    HW118147   0.700   0.905   8.263
72105SOL    HW218148   0.707   0.755   8.280
72106SOL     OW18149   1.153  12.933   0.431
72106SOL    HW118150   1.095  12.891   0.368
72106SOL    HW218151   1.229  12.875   0.437
72107SOL     OW18152   3.217   6.075  10.490
72107SOL    HW118153   3.200   5.983  10.511
72107SOL    HW218154   3.282   6.103  10.555
72108SOL     OW18155   4.485   0.468  12.207
72108SOL    HW118156   4.426   0.485  12.134
72108SOL    HW218157   4.431   0.419  12.270
72109SOL     OW18158   4.910  10.002  11.911
72109SOL    HW118159   4.878  10.091  11.904
72109SOL    HW218160   4.983   9.998  11.849
72110SOL     OW18161  12.885   0.013   4.418
72110SOL    HW118162  12.846   0.065   4.488
72110SOL    HW218163  12.860   0.059   4.338
72111SOL     OW18164   4.573   5.891   5.643
72111SOL    HW118165   4.499   5.936   5.685
72111SOL    HW218166   4.630   5.962   5.613
72112SOL     OW18167   6.483   3.081  12.400
72112SOL    HW118168   6.445   3.162  12.435
72112SOL    HW218169   6.431   3.063  12.321
72113SOL     OW18170   5.990  13.787   6.850
72113SOL    HW118171   6.060  13.849   6.871
72113SOL    HW218172   6.032  13.721   6.795
72114SOL     OW18173   8.608  12.985   0.310
72114SOL    HW118174   8.669  13.010   0.241
72114SOL    HW218175   8.541  13.054   0.307
72115SOL     OW18176   5.245  11.699   9.041
72115SOL    HW118177   5.282  11.743   8.964
72115SOL    HW218178   5.225  11.769   9.102
72116SOL     OW18179  11.345   1.205   1.333
72116SOL    HW118180  11.283   1.201   1.406
72116SOL    HW218181  11.291   1.193   1.255
72117SOL     OW18182  12.686  14.681   6.747
72117SOL    HW118183  12.713  14.594   6.779
72117SOL    HW218184  12.702  14.678   6.653
72118SOL     OW18185   7.413   2.712   4.206
72118SOL    HW118186   7.495   2.761   4.197
72118SOL    HW218187   7.345   2.780   4.209
72119SOL     OW18188  14.588   6.872   1.074
72119SOL    HW118189  14.661   6.933   1.061
72119SOL    HW218190  14.510   6.927   1.073
72120SOL     OW18191   9.345   9.781   7.739
72120SOL    HW118192   9.338   9.795   7.644
72120SOL    HW218193   9.271   9.831   7.775
72121SOL     OW18194  14.010   7.789   1.718
72121SOL    HW118195  14.077   7.723   1.702
72121SOL    HW218196  14.038   7.834   1.797
72122SOL     OW18197   8.591   9.531  13.092
72122SOL    HW118198   8.537   9.585  13.035
72122SOL    HW218199   8.680   9.565  13.081
72123SOL     OW18200   4.529   2.929   0.974
72123SOL    HW118201   4.623   2.912   0.966
72123SOL    HW218202   4.521   2.979   1.056
72124SOL     OW18203   5.611   0.954  13.552
72124SOL    HW118204   5.543   0.977  13.615
72124SOL    HW218205   5.576   0.980  13.467
72125SOL     OW18206  13.798  14.267   8.922
72125SOL    HW118207  13.877  14.225   8.888
72125SOL    HW218208  13.726  14.213   8.889
72126SOL     OW18209   5.978   8.380   2.511
72126SOL    HW118210   5.914   8.434   2.556
72126SOL    HW218211   5.937   8.359   2.427
72127SOL     OW18212   7.298  10.044   4.749
72127SOL    HW118213   7.267  10.056   4.839
72127SOL    HW218214   7.295  10.132   4.711
72128SOL     OW18215   1.480  13.022   1.818
72128SOL    HW118216   1.426  13.069   1.755
72128SOL    HW218217   1.552  12.986   1.765
72129SOL     OW18218   0.272   2.910   4.305
72129SOL    HW118219   0.245   2.957   4.384
72129SOL    HW218220   0.213   2.835   4.300
72130SOL     OW18221   6.355   8.239  10.468
72130SOL    HW118222   6.261   8.222  10.478
72130SOL    HW218223   6.392   8.218  10.554
72131SOL     OW18224   5.605  13.835   1.526
72131SOL    HW118225   5.537  13.860   1.462
72131SOL    HW218226   5.653  13.916   1.542
72132SOL     OW18227  11.427   5.576  11.453
72132SOL    HW118228  11.361   5.618  11.509
72132SOL    HW218229  11.391   5.584  11.364
72133SOL     OW18230  12.102   9.543   9.792
72133SOL    HW118231  12.181   9.594   9.815
72133SOL    HW218232  12.051   9.542   9.873
72134SOL     OW18233  11.403   5.985  14.497
72134SOL    HW118234  11.472   5.935  14.541
72134SOL    HW218235  11.349   6.019  14.569
72135SOL     OW18236  11.877   6.034  10.503
72135SOL    HW118237  11.871   5.941  10.480
72135SOL    HW218238  11.971   6.054  10.498
72136SOL     OW18239   9.205   4.837   3.703
72136SOL    HW118240   9.284   4.889   3.718
72136SOL    HW218241   9.172   4.817   3.791
72137SOL     OW18242   6.543   3.011   3.965
72137SOL    HW118243   6.631   2.993   3.998
72137SOL    HW218244   6.507   2.925   3.943
72138SOL     OW18245  13.758  11.638   5.422
72138SOL    HW118246  13.802  11.685   5.493
72138SOL    HW218247  13.777  11.689   5.344
72139SOL     OW18248   4.714   9.403   4.714
72139SOL    HW118249   4.700   9.382   4.806
72139SOL    HW218250   4.801   9.368   4.694
72140SOL     OW18251   5.571  12.790   4.801
72140SOL    HW118252   5.626  12.858   4.840
72140SOL    HW218253   5.504  12.838   4.752
72141SOL     OW18254   8.645   3.290   4.425
72141SOL    HW118255   8.623   3.205   4.387
72141SOL    HW218256   8.668   3.345   4.349
72142SOL     OW18257   5.324   9.733   9.379
72142SOL    HW118258   5.412   9.767   9.365
72142SOL    HW218259   5.309   9.674   9.305
72143SOL     OW18260   9.471   0.532   2.077
72143SOL    HW118261   9.460   0.442   2.045
72143SOL    HW218262   9.490   0.583   1.998
72144SOL     OW18263   0.020   3.368   6.043
72144SOL    HW118264   0.093   3.388   5.984
72144SOL    HW218265   0.002   3.451   6.088
72145SOL     OW18266   8.578   2.304   6.038
72145SOL    HW118267   8.486   2.289   6.015
72145SOL    HW218268   8.583   2.281   6.130
72146SOL     OW18269   5.837   0.418   2.672
72146SOL    HW118270   5.763   0.391   2.726
72146SOL    HW218271   5.805   0.494   2.623
72147SOL     OW18272  14.604   1.316  12.903
72147SOL    HW118273  14.552   1.304  12.823
72147SOL    HW218274  14.681   1.365  12.875
72148SOL     OW18275   2.560   1.592   8.391
72148SOL    HW118276   2.622   1.621   8.459
72148SOL    HW218277   2.548   1.669   8.335
72149SOL     OW18278  10.416   6.202  11.168
72149SOL    HW118279  10.501   6.188  11.127
72149SOL    HW218280  10.353   6.168  11.104
72150SOL     OW18281   8.395   9.392  11.970
72150SOL    HW118282   8.456   9.410  11.899
72150SOL    HW218283   8.451   9.368  12.044
72151SOL     OW18284  11.562   0.358   4.116
72151SOL    HW118285  11.599   0.400   4.194
72151SOL    HW218286  11.589   0.267   4.123
72152SOL     OW18287   4.303  12.129   6.739
72152SOL    HW118288   4.292  12.185   6.817
72152SOL    HW218289   4.301  12.190   6.666
72153SOL     OW18290   4.102  13.781   4.464
72153SOL    HW118291   4.182  13.743   4.500
72153SOL    HW218292   4.125  13.872   4.445
72154SOL     OW18293   0.734  14.370   7.340
72154SOL    HW118294   0.665  14.428   7.373
72154SOL    HW218295   0.793  14.358   7.414
72155SOL     OW18296   3.209   2.562   8.311
72155SOL    HW118297   3.219   2.624   8.384
72155SOL    HW218298   3.205   2.476   8.354
72156SOL     OW18299   6.529   6.687  14.053
72156SOL    HW118300   6.621   6.704  14.073
72156SOL    HW218301   6.527   6.673  13.959
72157SOL     OW18302   0.219   9.404   4.078
72157SOL    HW118303   0.186   9.418   3.989
72157SOL    HW218304   0.209   9.310   4.093
72158SOL     OW18305   4.122   7.982  12.968
72158SOL    HW118306   4.194   7.978  12.905
72158SOL    HW218307   4.163   8.012  13.049
72159SOL     OW18308  11.795   6.309   5.351
72159SOL    HW118309  11.748   6.392   5.367
72159SOL    HW218310  11.737   6.260   5.293
72160SOL     OW18311  13.233   3.094   1.456
72160SOL    HW118312  13.224   3.089   1.360
72160SOL    HW218313  13.326   3.080   1.472
72161SOL     OW18314  10.906  14.795   5.802
72161SOL    HW118315  10.987  14.811   5.850
72161SOL    HW218316  10.857  14.734   5.857
72162SOL     OW18317   1.316  11.602   4.466
72162SOL    HW118318   1.222  11.619   4.463
72162SOL    HW218319   1.339  11.614   4.559
72163SOL     OW18320  12.611   7.703   6.093
72163SOL    HW118321  12.636   7.686   6.002
72163SOL    HW218322  12.548   7.774   6.088
72164SOL     OW18323  14.844   9.596   5.025
72164SOL    HW118324  14.832   9.686   4.995
72164SOL    HW218325  14.842   9.601   5.121
72165SOL     OW18326  10.914   6.017   2.825
72165SOL    HW118327  11.001   5.978   2.815
72165SOL    HW218328  10.856   5.944   2.847
72166SOL     OW18329   0.877  14.849  14.865
72166SOL    HW118330   0.844  14.873   0.076
72166SOL    HW218331   0.921  14.765   0.002
72167SOL     OW18332  11.235   4.663   2.472
72167SOL    HW118333  11.248   4.719   2.396
72167SOL    HW218334  11.196   4.720   2.538
72168SOL     OW18335   9.614  10.424   8.550
72168SOL    HW118336   9.521  10.404   8.554
72168SOL    HW218337   9.631  10.473   8.630
72169SOL     OW18338   8.502  12.980   8.308
72169SOL    HW118339   8.516  13.036   8.231
72169SOL    HW218340   8.407  12.971   8.314
72170SOL     OW18341   9.712   3.070   0.549
72170SOL    HW118342   9.664   3.057   0.467
72170SOL    HW218343   9.744   2.983   0.572
72171SOL     OW18344  10.956  11.235   1.261
72171SOL    HW118345  11.039  11.192   1.244
72171SOL    HW218346  10.932  11.208   1.349
72172SOL     OW18347  13.072  11.236   5.473
72172SOL    HW118348  13.032  11.309   5.427
72172SOL    HW218349  13.044  11.158   5.425
72173SOL     OW18350   3.638   1.692   0.678
72173SOL    HW118351   3.653   1.605   0.639
72173SOL    HW218352   3.677   1.753   0.615
72174SOL     OW18353  12.826  11.279   3.166
72174SOL    HW118354  12.887  11.352   3.151
72174SOL    HW218355  12.783  11.267   3.081
72175SOL     OW18356   5.397   5.213   3.558
72175SOL    HW118357   5.333   5.170   3.615
72175SOL    HW218358   5.467   5.240   3.617
72176SOL     OW18359   2.580   6.169   9.986
72176SOL    HW118360   2.486   6.181  10.001
72176SOL    HW218361   2.586   6.144   9.893
72177SOL     OW18362   8.582   7.002   5.918
72177SOL    HW118363   8.558   7.079   5.969
72177SOL    HW218364   8.501   6.951   5.912
72178SOL     OW18365   8.094   1.200   7.013
72178SOL    HW118366   8.119   1.119   6.967
72178SOL    HW218367   8.084   1.265   6.944
72179SOL     OW18368   2.685   9.155  11.121
72179SOL    HW118369   2.747   9.199  11.063
72179SOL    HW218370   2.737   9.090  11.168
72180SOL     OW18371  14.582  10.081   9.247
72180SOL    HW118372  14.552   9.990   9.251
72180SOL    HW218373  14.534  10.125   9.318
72181SOL     OW18374   0.320   1.060   3.867
72181SOL    HW118375   0.310   1.101   3.781
72181SOL    HW218376   0.364   1.126   3.920
72182SOL     OW18377  12.260   9.954  14.390
72182SOL    HW118378  12.314   9.911  14.323
72182SOL    HW218379  12.322  10.007  14.440
72183SOL     OW18380  14.796  11.498  13.407
72183SOL    HW118381   0.007  11.535  13.422
72183SOL    HW218382  14.770  11.463  13.492
72184SOL     OW18383   5.499  10.882  14.273
72184SOL    HW118384   5.404  10.872  14.284
72184SOL    HW218385   5.508  10.963  14.223
72185SOL     OW18386   1.068   2.245   4.899
72185SOL    HW118387   1.006   2.301   4.945
72185SOL    HW218388   1.018   2.210   4.825
72186SOL     OW18389  13.335   8.348  10.196
72186SOL    HW118390  13.414   8.311  10.235
72186SOL    HW218391  13.276   8.274  10.185
72187SOL     OW18392  12.087   9.987   1.170
72187SOL    HW118393  12.144   9.941   1.110
72187SOL    HW218394  12.018   9.924   1.192
72188SOL     OW18395  13.751   6.493   4.200
72188SOL    HW118396  13.666   6.513   4.163
72188SOL    HW218397  13.789   6.578   4.222
72189SOL     OW18398  14.303   0.325  14.232
72189SOL    HW118399  14.384   0.376  14.230
72189SOL    HW218400  14.323   0.246  14.182
72190SOL     OW18401   3.547   4.577   9.618
72190SOL    HW118402   3.542   4.484   9.596
72190SOL    HW218403   3.461   4.612   9.595
72191SOL     OW18404   2.566   8.740   2.703
72191SOL    HW118405   2.538   8.649   2.699
72191SOL    HW218406   2.490   8.790   2.675
72192SOL     OW18407   9.263   6.422  13.530
72192SOL    HW118408   9.176   6.396  13.497
72192SOL    HW218409   9.318   6.345  13.515
72193SOL     OW18410   7.492  10.621   8.838
72193SOL    HW118411   7.588  10.625   8.838
72193SOL    HW218412   7.464  10.712   8.850
72194SOL     OW18413   3.226   7.718   2.297
72194SOL    HW118414   3.258   7.765   2.220
72194SOL    HW218415   3.295   7.730   2.363
72195SOL     OW18416  14.250  11.203   0.132
72195SOL    HW118417  14.266  11.181   0.224
72195SOL    HW218418  14.155  11.193   0.122
72196SOL     OW18419   1.369   2.329   4.399
72196SOL    HW118420   1.382   2.263   4.331
72196SOL    HW218421   1.331   2.281   4.472
72197SOL     OW18422   5.801   2.367   4.076
72197SOL    HW118423   5.778   2.457   4.100
72197SOL    HW218424   5.811   2.370   3.981
72198SOL     OW18425  14.765   7.412   9.109
72198SOL    HW118426  14.808   7.431   9.192
72198SOL    HW218427  14.820   7.456   9.044
72199SOL     OW18428  10.062   9.960   6.030
72199SOL    HW118429  10.012   9.931   6.106
72199SOL    HW218430  10.031  10.049   6.013
72200SOL     OW18431  13.194  11.184   1.536
72200SOL    HW118432  13.144  11.114   1.580
72200SOL    HW218433  13.128  11.249   1.513
72201SOL     OW18434   7.423   4.416   6.068
72201SOL    HW118435   7.361   4.472   6.116
72201SOL    HW218436   7.412   4.329   6.107
72202SOL     OW18437  10.726   0.933  14.130
72202SOL    HW118438  10.766   0.872  14.068
72202SOL    HW218439  10.767   0.913  14.214
72203SOL     OW18440   6.463  10.973  14.260
72203SOL    HW118441   6.550  10.939  14.241
72203SOL    HW218442   6.457  10.970  14.355
72204SOL     OW18443   3.694   8.137   1.694
72204SOL    HW118444   3.692   8.106   1.603
72204SOL    HW218445   3.729   8.226   1.689
72205SOL     OW18446  11.871   4.622   1.237
72205SOL    HW118447  11.834   4.560   1.174
72205SOL    HW218448  11.813   4.616   1.313
72206SOL     OW18449  14.750   3.471   5.802
72206SOL    HW118450  14.745   3.452   5.709
72206SOL    HW218451  14.730   3.388   5.845
72207SOL     OW18452   0.688  12.424  11.462
72207SOL    HW118453   0.724  12.500  11.508
72207SOL    HW218454   0.754  12.402  11.397
72208SOL     OW18455   8.749   5.318  12.224
72208SOL    HW118456   8.793   5.233  12.219
72208SOL    HW218457   8.673   5.309  12.167
72209SOL     OW18458  13.927  10.546   8.654
72209SOL    HW118459  13.839  10.579   8.637
72209SOL    HW218460  13.963  10.604   8.722
72210SOL     OW18461  13.097   6.633  12.190
72210SOL    HW118462  13.011   6.609  12.226
72210SOL    HW218463  13.149   6.654  12.268
72211SOL     OW18464   0.277   3.904   7.897
72211SOL    HW118465   0.263   3.997   7.913
72211SOL    HW218466   0.362   3.884   7.936
72212SOL     OW18467   3.006   9.663  12.725
72212SOL    HW118468   2.953   9.742  12.725
72212SOL    HW218469   2.989   9.623  12.639
72213SOL     OW18470   3.204   8.952   1.761
72213SOL    HW118471   3.180   8.986   1.675
72213SOL    HW218472   3.270   9.013   1.794
72214SOL     OW18473  13.339   8.604   9.641
72214SOL    HW118474  13.364   8.682   9.691
72214SOL    HW218475  13.244   8.605   9.641
72215SOL     OW18476  13.139  11.942   4.598
72215SOL    HW118477  13.104  12.002   4.663
72215SOL    HW218478  13.234  11.950   4.606
72216SOL     OW18479   3.422   6.890   5.033
72216SOL    HW118480   3.403   6.913   4.942
72216SOL    HW218481   3.364   6.816   5.052
72217SOL     OW18482   0.693  10.547  10.202
72217SOL    HW118483   0.621  10.606  10.182
72217SOL    HW218484   0.654  10.460  10.197
72218SOL     OW18485  14.359   6.400   8.813
72218SOL    HW118486  14.315   6.481   8.788
72218SOL    HW218487  14.298   6.357   8.872
72219SOL     OW18488   6.228   4.508   5.823
72219SOL    HW118489   6.210   4.498   5.730
72219SOL    HW218490   6.142   4.518   5.863
72220SOL     OW18491   3.152  10.786   8.561
72220SOL    HW118492   3.181  10.862   8.613
72220SOL    HW218493   3.201  10.793   8.479
72221SOL     OW18494   8.866   6.985   6.478
72221SOL    HW118495   8.813   7.044   6.532
72221SOL    HW218496   8.809   6.911   6.459
72222SOL     OW18497   2.805   3.586   5.935
72222SOL    HW118498   2.822   3.532   5.858
72222SOL    HW218499   2.834   3.674   5.910
72223SOL     OW18500   5.665   5.264   2.743
72223SOL    HW118501   5.606   5.222   2.681
72223SOL    HW218502   5.738   5.202   2.753
72224SOL     OW18503   5.663   3.360  10.333
72224SOL    HW118504   5.585   3.406  10.302
72224SOL    HW218505   5.718   3.352  10.255
72225SOL     OW18506   4.363  13.322   9.391
72225SOL    HW118507   4.444  13.272   9.390
72225SOL    HW218508   4.383  13.398   9.445
72226SOL     OW18509   9.893   4.713   1.672
72226SOL    HW118510   9.987   4.701   1.655
72226SOL    HW218511   9.882   4.807   1.681
72227SOL     OW18512  10.516  11.142   8.267
72227SOL    HW118513  10.421  11.155   8.275
72227SOL    HW218514  10.527  11.047   8.262
72228SOL     OW18515   1.892  10.245  11.390
72228SOL    HW118516   1.845  10.327  11.409
72228SOL    HW218517   1.883  10.234  11.295
72229SOL     OW18518  11.400   3.609  14.559
72229SOL    HW118519  11.485   3.651  14.547
72229SOL    HW218520  11.343   3.679  14.590
72230SOL     OW18521   9.219   6.097   5.432
72230SOL    HW118522   9.196   6.182   5.470
72230SOL    HW218523   9.216   6.111   5.338
72231SOL     OW18524   0.249   4.617   4.249
72231SOL    HW118525   0.183   4.685   4.265
72231SOL    HW218526   0.236   4.591   4.158
72232SOL     OW18527   6.058   3.089  13.542
72232SOL    HW118528   6.110   3.087  13.623
72232SOL    HW218529   6.023   3.000  13.534
72233SOL     OW18530  12.428   0.286  11.826
72233SOL    HW118531  12.482   0.337  11.765
72233SOL    HW218532  12.457   0.196  11.814
72234SOL     OW18533   2.234   7.270  11.033
72234SOL    HW118534   2.154   7.319  11.014
72234SOL    HW218535   2.265   7.307  11.116
72235SOL     OW18536   6.153   9.292   7.268
72235SOL    HW118537   6.145   9.206   7.310
72235SOL    HW218538   6.184   9.350   7.338
72236SOL     OW18539   1.534  13.380  13.271
72236SOL    HW118540   1.449  13.342  13.291
72236SOL    HW218541   1.559  13.426  13.351
72237SOL     OW18542   2.917   2.045  10.203
72237SOL    HW118543   2.977   2.059  10.130
72237SOL    HW218544   2.974   2.030  10.279
72238SOL     OW18545  12.458  13.443   7.519
72238SOL    HW118546  12.431  13.352   7.515
72238SOL    HW218547  12.388  13.491   7.473
72239SOL     OW18548   6.788   0.385   8.527
72239SOL    HW118549   6.832   0.305   8.554
72239SOL    HW218550   6.855   0.434   8.479
72240SOL     OW18551   7.945  12.305   0.248
72240SOL    HW118552   8.035  12.332   0.232
72240SOL    HW218553   7.951  12.242   0.320
72241SOL     OW18554  14.153  12.262   4.806
72241SOL    HW118555  14.226  12.201   4.818
72241SOL    HW218556  14.084  12.208   4.768
72242SOL     OW18557   0.475   7.857  10.498
72242SOL    HW118558   0.483   7.900  10.413
72242SOL    HW218559   0.390   7.887  10.532
72243SOL     OW18560   4.733  12.522   3.203
72243SOL    HW118561   4.665  12.588   3.190
72243SOL    HW218562   4.811  12.572   3.225
72244SOL     OW18563   5.153   5.732   3.180
72244SOL    HW118564   5.066   5.700   3.158
72244SOL    HW218565   5.210   5.655   3.176
72245SOL     OW18566   8.379   3.057   0.458
72245SOL    HW118567   8.413   3.050   0.547
72245SOL    HW218568   8.403   3.146   0.431
72246SOL     OW18569  14.129   3.250   5.556
72246SOL    HW118570  14.184   3.281   5.484
72246SOL    HW218571  14.063   3.195   5.514
72247SOL     OW18572   9.300   1.130   6.613
72247SOL    HW118573   9.275   1.151   6.523
72247SOL    HW218574   9.278   1.209   6.662
72248SOL     OW18575   3.716   8.981   7.381
72248SOL    HW118576   3.766   9.053   7.342
72248SOL    HW218577   3.774   8.945   7.449
72249SOL     OW18578   2.813  14.777   5.776
72249SOL    HW118579   2.782  14.767   5.866
72249SOL    HW218580   2.904  14.808   5.786
72250SOL     OW18581   4.707   4.830   4.163
72250SOL    HW118582   4.694   4.876   4.080
72250SOL    HW218583   4.659   4.748   4.152
72251SOL     OW18584  12.630  14.113   2.124
72251SOL    HW118585  12.540  14.106   2.155
72251SOL    HW218586  12.676  14.041   2.167
72252SOL     OW18587  10.288  13.613   7.869
72252SOL    HW118588  10.326  13.689   7.824
72252SOL    HW218589  10.347  13.541   7.847
72253SOL     OW18590   7.136  11.770  10.680
72253SOL    HW118591   7.181  11.788  10.598
72253SOL    HW218592   7.072  11.702  10.658
72254SOL     OW18593  10.490   9.870   5.582
72254SOL    HW118594  10.414   9.914   5.619
72254SOL    HW218595  10.546   9.941   5.551
72255SOL     OW18596  14.600   9.809  13.494
72255SOL    HW118597  14.514   9.842  13.517
72255SOL    HW218598  14.608   9.827  13.400
72256SOL     OW18599   1.665   0.041   6.276
72256SOL    HW118600   1.716   0.068   6.352
72256SOL    HW218601   1.649   0.123   6.228
72257SOL     OW18602  13.166   7.607   3.739
72257SOL    HW118603  13.220   7.683   3.717
72257SOL    HW218604  13.082   7.644   3.767
72258SOL     OW18605   4.621  13.230   0.552
72258SOL    HW118606   4.599  13.310   0.601
72258SOL    HW218607   4.573  13.239   0.469
72259SOL     OW18608   3.523  13.139  11.810
72259SOL    HW118609   3.430  13.136  11.832
72259SOL    HW218610   3.535  13.224  11.767
72260SOL     OW18611   9.007   2.605   8.513
72260SOL    HW118612   9.053   2.634   8.434
72260SOL    HW218613   8.916   2.630   8.499
72261SOL     OW18614   3.607   5.482   2.072
72261SOL    HW118615   3.539   5.544   2.098
72261SOL    HW218616   3.643   5.518   1.991
72262SOL     OW18617   7.229   0.065   2.436
72262SOL    HW118618   7.233  14.845   2.435
72262SOL    HW218619   7.314   0.093   2.404
72263SOL     OW18620   7.554  10.213   7.534
72263SOL    HW118621   7.640  10.200   7.494
72263SOL    HW218622   7.571  10.269   7.610
72264SOL     OW18623   8.846   6.402  13.778
72264SOL    HW118624   8.753   6.381  13.767
72264SOL    HW218625   8.883   6.393  13.690
72265SOL     OW18626   2.787   5.706   9.814
72265SOL    HW118627   2.829   5.773   9.869
72265SOL    HW218628   2.702   5.744   9.791
72266SOL     OW18629  11.728   3.163   5.810
72266SOL    HW118630  11.696   3.107   5.880
72266SOL    HW218631  11.685   3.247   5.826
72267SOL     OW18632  11.940   1.931  11.220
72267SOL    HW118633  12.035   1.918  11.224
72267SOL    HW218634  11.908   1.897  11.304
72268SOL     OW18635   8.447   1.741  10.390
72268SOL    HW118636   8.390   1.784  10.326
72268SOL    HW218637   8.419   1.650  10.390
72269SOL     OW18638  13.642   1.240  11.599
72269SOL    HW118639  13.678   1.327  11.614
72269SOL    HW218640  13.651   1.225  11.505
72270SOL     OW18641  13.099   1.746   6.341
72270SOL    HW118642  13.025   1.807   6.343
72270SOL    HW218643  13.065   1.665   6.379
72271SOL     OW18644  11.442  10.833  10.601
72271SOL    HW118645  11.425  10.741  10.580
72271SOL    HW218646  11.361  10.878  10.574
72272SOL     OW18647   4.187   0.721   1.091
72272SOL    HW118648   4.258   0.730   1.155
72272SOL    HW218649   4.134   0.799   1.103
72273SOL     OW18650  14.790   2.964   1.893
72273SOL    HW118651  14.707   3.013   1.891
72273SOL    HW218652  14.857   3.031   1.892
72274SOL     OW18653   5.662   6.625  11.932
72274SOL    HW118654   5.646   6.699  11.990
72274SOL    HW218655   5.757   6.621  11.923
72275SOL     OW18656   6.952   5.755   6.125
72275SOL    HW118657   6.986   5.703   6.052
72275SOL    HW218658   6.874   5.707   6.154
72276SOL     OW18659  13.019  13.976   0.438
72276SOL    HW118660  12.974  13.979   0.523
72276SOL    HW218661  12.993  13.891   0.401
72277SOL     OW18662  14.026   3.116   3.149
72277SOL    HW118663  13.973   3.150   3.221
72277SOL    HW218664  14.116   3.139   3.173
72278SOL     OW18665  13.737   3.895   0.621
72278SOL    HW118666  13.743   3.962   0.689
72278SOL    HW218667  13.817   3.905   0.570
72279SOL     OW18668   6.953  11.069   6.183
72279SOL    HW118669   6.869  11.025   6.201
72279SOL    HW218670   7.014  11.032   6.247
72280SOL     OW18671   3.770   0.054   6.908
72280SOL    HW118672   3.718  14.860   6.948
72280SOL    HW218673   3.753   0.047   6.814
72281SOL     OW18674   3.708   5.732   6.562
72281SOL    HW118675   3.748   5.818   6.557
72281SOL    HW218676   3.781   5.671   6.551
72282SOL     OW18677  14.707   3.059   0.358
72282SOL    HW118678  14.614   3.066   0.378
72282SOL    HW218679  14.748   3.035   0.441
72283SOL     OW18680  13.208   6.870   7.730
72283SOL    HW118681  13.132   6.828   7.769
72283SOL    HW218682  13.260   6.900   7.805
72284SOL     OW18683   8.041   8.618   7.393
72284SOL    HW118684   8.054   8.567   7.473
72284SOL    HW218685   8.090   8.699   7.408
72285SOL     OW18686  11.984  12.632   6.708
72285SOL    HW118687  11.927  12.599   6.778
72285SOL    HW218688  12.026  12.709   6.746
72286SOL     OW18689   9.852   6.902  14.069
72286SOL    HW118690   9.855   6.882  13.976
72286SOL    HW218691   9.793   6.977  14.076
72287SOL     OW18692  12.213   8.472   2.807
72287SOL    HW118693  12.234   8.412   2.878
72287SOL    HW218694  12.296   8.488   2.763
72288SOL     OW18695   8.259   0.048  10.051
72288SOL    HW118696   8.174   0.026  10.013
72288SOL    HW218697   8.285   0.129  10.006
72289SOL     OW18698  12.170   7.937   8.205
72289SOL    HW118699  12.246   7.879   8.198
72289SOL    HW218700  12.205   8.025   8.192
72290SOL     OW18701   4.203   7.066   7.171
72290SOL    HW118702   4.146   6.998   7.207
72290SOL    HW218703   4.146   7.118   7.115
72291SOL     OW18704   1.269   5.819  14.617
72291SOL    HW118705   1.214   5.839  14.693
72291SOL    HW218706   1.285   5.725  14.622
72292SOL     OW18707   4.394  14.333   2.687
72292SOL    HW118708   4.429  14.398   2.748
72292SOL    HW218709   4.299  14.337   2.698
72293SOL     OW18710   1.346   7.403   2.834
72293SOL    HW118711   1.275   7.387   2.896
72293SOL    HW218712   1.349   7.324   2.780
72294SOL     OW18713   0.102   8.268   8.267
72294SOL    HW118714   0.037   8.300   8.204
72294SOL    HW218715   0.171   8.334   8.266
72295SOL     OW18716  14.596  12.501  13.998
72295SOL    HW118717  14.624  12.468  14.084
72295SOL    HW218718  14.516  12.453  13.979
72296SOL     OW18719  13.166   6.393   5.972
72296SOL    HW118720  13.214   6.468   6.008
72296SOL    HW218721  13.133   6.424   5.888
72297SOL     OW18722   9.603   6.289   6.259
72297SOL    HW118723   9.515   6.255   6.275
72297SOL    HW218724   9.589   6.367   6.205
72298SOL     OW18725   7.515   4.278   7.398
72298SOL    HW118726   7.448   4.293   7.331
72298SOL    HW218727   7.482   4.323   7.476
72299SOL     OW18728   8.368   4.809   0.554
72299SOL    HW118729   8.281   4.841   0.530
72299SOL    HW218730   8.355   4.717   0.574
72300SOL     OW18731   9.156   1.024   3.875
72300SOL    HW118732   9.229   1.085   3.889
72300SOL    HW218733   9.141   0.983   3.959
72301SOL     OW18734   5.693   0.627   7.648
72301SOL    HW118735   5.624   0.661   7.705
72301SOL    HW218736   5.767   0.610   7.706
72302SOL     OW18737  12.865   2.388   7.697
72302SOL    HW118738  12.779   2.406   7.736
72302SOL    HW218739  12.926   2.436   7.753
72303SOL     OW18740  14.705  11.871  10.320
72303SOL    HW118741  14.702  11.910  10.408
72303SOL    HW218742  14.775  11.919  10.275
72304SOL     OW18743   4.328   5.492  13.484
72304SOL    HW118744   4.341   5.555  13.414
72304SOL    HW218745   4.240   5.456  13.469
72305SOL     OW18746  14.786   1.607   1.995
72305SOL    HW118747  14.724   1.646   2.057
72305SOL    HW218748  14.782   1.513   2.013
72306SOL     OW18749  10.766  11.417   5.869
72306SOL    HW118750  10.829  11.456   5.930
72306SOL    HW218751  10.684  11.415   5.917
72307SOL     OW18752   1.295  13.272  12.458
72307SOL    HW118753   1.244  13.318  12.525
72307SOL    HW218754   1.236  13.203  12.427
72308SOL     OW18755   7.295   5.346   6.939
72308SOL    HW118756   7.361   5.388   6.994
72308SOL    HW218757   7.341   5.327   6.857
72309SOL     OW18758   1.722  14.534   0.943
72309SOL    HW118759   1.707  14.600   1.010
72309SOL    HW218760   1.688  14.574   0.862
72310SOL     OW18761   7.559   1.233  13.858
72310SOL    HW118762   7.635   1.185  13.890
72310SOL    HW218763   7.567   1.320  13.896
72311SOL     OW18764   4.604   4.630  12.929
72311SOL    HW118765   4.528   4.621  12.987
72311SOL    HW218766   4.679   4.638  12.988
72312SOL     OW18767   0.806   0.109   6.688
72312SOL    HW118768   0.811   0.203   6.706
72312SOL    HW218769   0.895   0.077   6.704
72313SOL     OW18770   7.385  11.597   3.388
72313SOL    HW118771   7.479  11.592   3.400
72313SOL    HW218772   7.367  11.691   3.375
72314SOL     OW18773   1.770   6.079   7.866
72314SOL    HW118774   1.761   6.136   7.943
72314SOL    HW218775   1.769   5.990   7.901
72315SOL     OW18776   6.146   8.140  12.297
72315SOL    HW118777   6.121   8.087  12.220
72315SOL    HW218778   6.082   8.211  12.299
72316SOL     OW18779  13.192   6.435   6.916
72316SOL    HW118780  13.204   6.460   7.008
72316SOL    HW218781  13.103   6.398   6.913
72317SOL     OW18782   2.960  14.580  13.992
72317SOL    HW118783   3.015  14.523  13.938
72317SOL    HW218784   2.963  14.540  14.079
72318SOL     OW18785   1.125   5.695   3.607
72318SOL    HW118786   1.146   5.784   3.581
72318SOL    HW218787   1.178   5.679   3.685
72319SOL     OW18788   5.429   4.105  13.006
72319SOL    HW118789   5.402   4.115  13.097
72319SOL    HW218790   5.498   4.170  12.995
72320SOL     OW18791   3.945  12.333   3.690
72320SOL    HW118792   3.986  12.380   3.616
72320SOL    HW218793   4.017  12.317   3.751
72321SOL     OW18794   8.436   5.256   7.756
72321SOL    HW118795   8.527   5.230   7.770
72321SOL    HW218796   8.429   5.268   7.662
72322SOL     OW18797   4.036   9.095   5.003
72322SOL    HW118798   4.093   9.063   5.074
72322SOL    HW218799   4.056   9.188   4.998
72323SOL     OW18800   3.497   7.575   1.650
72323SOL    HW118801   3.504   7.617   1.736
72323SOL    HW218802   3.494   7.648   1.588
72324SOL     OW18803   3.895   2.530   9.350
72324SOL    HW118804   3.935   2.508   9.434
72324SOL    HW218805   3.826   2.593   9.372
72325SOL     OW18806   7.878  10.479   1.958
72325SOL    HW118807   7.829  10.561   1.970
72325SOL    HW218808   7.944  10.500   1.892
72326SOL     OW18809   4.204   6.228   5.825
72326SOL    HW118810   4.121   6.215   5.871
72326SOL    HW218811   4.202   6.319   5.797
72327SOL     OW18812  14.468   3.814  11.269
72327SOL    HW118813  14.387   3.820  11.320
72327SOL    HW218814  14.441   3.780  11.184
72328SOL     OW18815   8.587  12.448   9.746
72328SOL    HW118816   8.573  12.434   9.653
72328SOL    HW218817   8.674  12.412   9.763
72329SOL     OW18818   0.258  14.417   2.537
72329SOL    HW118819   0.237  14.404   2.444
72329SOL    HW218820   0.254  14.329   2.574
72330SOL     OW18821  12.027  14.692   0.692
72330SOL    HW118822  12.011  14.621   0.753
72330SOL    HW218823  12.008  14.772   0.742
72331SOL     OW18824   8.379   4.091   2.740
72331SOL    HW118825   8.365   4.150   2.814
72331SOL    HW218826   8.447   4.030   2.769
72332SOL     OW18827   1.576  13.572   3.708
72332SOL    HW118828   1.576  13.665   3.731
72332SOL    HW218829   1.488  13.556   3.674
72333SOL     OW18830  14.702   8.248  14.141
72333SOL    HW118831  14.774   8.186  14.129
72333SOL    HW218832  14.741   8.333  14.118
72334SOL     OW18833   6.351  10.688   1.411
72334SOL    HW118834   6.418  10.621   1.427
72334SOL    HW218835   6.401  10.764   1.381
72335SOL     OW18836   7.020   6.140   7.007
72335SOL    HW118837   6.925   6.157   7.004
72335SOL    HW218838   7.050   6.192   7.082
72336SOL     OW18839  13.570  13.164   8.554
72336SOL    HW118840  13.583  13.248   8.598
72336SOL    HW218841  13.516  13.185   8.478
72337SOL     OW18842   7.315  13.885   5.402
72337SOL    HW118843   7.308  13.789   5.409
72337SOL    HW218844   7.350  13.912   5.487
72338SOL     OW18845   2.365   9.599   6.259
72338SOL    HW118846   2.379   9.641   6.344
72338SOL    HW218847   2.278   9.629   6.232
72339SOL     OW18848  10.878   2.084  10.689
72339SOL    HW118849  10.918   2.017  10.745
72339SOL    HW218850  10.935   2.088  10.613
72340SOL     OW18851  11.550   0.676   9.525
72340SOL    HW118852  11.640   0.694   9.552
72340SOL    HW218853  11.556   0.596   9.472
72341SOL     OW18854   6.430   5.150  12.419
72341SOL    HW118855   6.513   5.156  12.371
72341SOL    HW218856   6.418   5.238  12.455
72342SOL     OW18857   8.747  14.163   3.093
72342SOL    HW118858   8.685  14.207   3.035
72342SOL    HW218859   8.833  14.186   3.058
72343SOL     OW18860  12.738   3.287   2.508
72343SOL    HW118861  12.721   3.369   2.461
72343SOL    HW218862  12.832   3.290   2.528
72344SOL     OW18863   9.392  10.005  10.186
72344SOL    HW118864   9.407   9.961  10.270
72344SOL    HW218865   9.320  10.066  10.204
72345SOL     OW18866  11.707   0.604   7.306
72345SOL    HW118867  11.725   0.510   7.303
72345SOL    HW218868  11.660   0.622   7.225
72346SOL     OW18869   4.471   1.479  11.877
72346SOL    HW118870   4.536   1.528  11.827
72346SOL    HW218871   4.399   1.541  11.890
72347SOL     OW18872   1.515  10.163   0.327
72347SOL    HW118873   1.532  10.257   0.316
72347SOL    HW218874   1.552  10.122   0.249
72348SOL     OW18875   3.386   0.319   4.540
72348SOL    HW118876   3.468   0.294   4.499
72348SOL    HW218877   3.323   0.253   4.509
72349SOL     OW18878   3.822   2.454   3.935
72349SOL    HW118879   3.800   2.403   4.013
72349SOL    HW218880   3.755   2.432   3.872
72350SOL     OW18881   0.847   3.165   0.846
72350SOL    HW118882   0.786   3.148   0.918
72350SOL    HW218883   0.811   3.241   0.801
72351SOL     OW18884  14.380   5.088   4.051
72351SOL    HW118885  14.472   5.092   4.075
72351SOL    HW218886  14.374   5.013   3.992
72352SOL     OW18887   8.132   5.341   5.691
72352SOL    HW118888   8.224   5.352   5.716
72352SOL    HW218889   8.135   5.304   5.603
72353SOL     OW18890   7.736   8.033  13.746
72353SOL    HW118891   7.696   8.111  13.785
72353SOL    HW218892   7.813   8.066  13.700
72354SOL     OW18893   5.656   4.153   9.197
72354SOL    HW118894   5.678   4.112   9.281
72354SOL    HW218895   5.566   4.126   9.181
72355SOL     OW18896   6.774   0.005   0.747
72355SOL    HW118897   6.818   0.090   0.739
72355SOL    HW218898   6.760  14.871   0.841
72356SOL     OW18899   2.368   6.660   1.311
72356SOL    HW118900   2.286   6.614   1.329
72356SOL    HW218901   2.344   6.731   1.252
72357SOL     OW18902   4.375   9.453   5.213
72357SOL    HW118903   4.333   9.538   5.202
72357SOL    HW218904   4.466   9.473   5.235
72358SOL     OW18905  10.228   8.251  14.804
72358SOL    HW118906  10.169   8.219  14.736
72358SOL    HW218907  10.273   8.172  14.835
72359SOL     OW18908   8.243  13.730  13.884
72359SOL    HW118909   8.316  13.720  13.824
72359SOL    HW218910   8.225  13.824  13.885
72360SOL     OW18911   1.486   7.495   8.263
72360SOL    HW118912   1.580   7.481   8.268
72360SOL    HW218913   1.451   7.451   8.340
72361SOL     OW18914  14.032   2.874  12.885
72361SOL    HW118915  14.005   2.808  12.948
72361SOL    HW218916  13.977   2.859  12.809
72362SOL     OW18917   4.413   1.685   7.576
72362SOL    HW118918   4.498   1.706   7.615
72362SOL    HW218919   4.425   1.707   7.483
72363SOL     OW18920  13.541   2.682   3.900
72363SOL    HW118921  13.575   2.666   3.988
72363SOL    HW218922  13.600   2.633   3.842
72364SOL     OW18923   8.239  11.462   1.005
72364SOL    HW118924   8.268  11.521   0.935
72364SOL    HW218925   8.315  11.453   1.063
72365SOL     OW18926   2.617  13.413   6.855
72365SOL    HW118927   2.580  13.463   6.783
72365SOL    HW218928   2.643  13.479   6.919
72366SOL     OW18929   6.510   6.589   0.996
72366SOL    HW118930   6.528   6.495   0.998
72366SOL    HW218931   6.429   6.598   1.046
72367SOL     OW18932   1.746  11.166   4.095
72367SOL    HW118933   1.694  11.246   4.094
72367SOL    HW218934   1.803  11.173   4.019
72368SOL     OW18935  13.107  12.414   9.231
72368SOL    HW118936  13.166  12.407   9.156
72368SOL    HW218937  13.132  12.342   9.288
72369SOL     OW18938  10.336   3.563   4.947
72369SOL    HW118939  10.252   3.576   4.903
72369SOL    HW218940  10.339   3.470   4.969
72370SOL     OW18941   9.241  12.329  13.917
72370SOL    HW118942   9.261  12.381  13.995
72370SOL    HW218943   9.237  12.239  13.949
72371SOL     OW18944   7.252  13.132   6.792
72371SOL    HW118945   7.214  13.096   6.872
72371SOL    HW218946   7.316  13.196   6.822
72372SOL     OW18947   9.522   2.739  10.080
72372SOL    HW118948   9.479   2.717  10.163
72372SOL    HW218949   9.531   2.655  10.035
72373SOL     OW18950   4.604   1.200   0.701
72373SOL    HW118951   4.524   1.220   0.654
72373SOL    HW218952   4.577   1.142   0.772
72374SOL     OW18953   5.131   6.077  12.036
72374SOL    HW118954   5.057   6.135  12.055
72374SOL    HW218955   5.120   6.003  12.095
72375SOL     OW18956   3.169  13.686   1.111
72375SOL    HW118957   3.129  13.607   1.073
72375SOL    HW218958   3.252  13.695   1.066
72376SOL     OW18959   8.523  10.678   9.236
72376SOL    HW118960   8.469  10.607   9.201
72376SOL    HW218961   8.573  10.710   9.161
72377SOL     OW18962   0.513  13.054   5.036
72377SOL    HW118963   0.490  12.975   5.084
72377SOL    HW218964   0.576  13.024   4.970
72378SOL     OW18965   9.523  12.991   8.341
72378SOL    HW118966   9.614  13.013   8.361
72378SOL    HW218967   9.491  13.066   8.290
72379SOL     OW18968   6.177  10.689   9.275
72379SOL    HW118969   6.210  10.645   9.197
72379SOL    HW218970   6.178  10.782   9.253
72380SOL     OW18971   8.150   2.399   7.431
72380SOL    HW118972   8.182   2.330   7.372
72380SOL    HW218973   8.216   2.467   7.427
72381SOL     OW18974  14.487   6.005  13.224
72381SOL    HW118975  14.521   6.017  13.135
72381SOL    HW218976  14.553   5.952  13.269
72382SOL     OW18977   5.385   1.311   6.985
72382SOL    HW118978   5.402   1.234   6.931
72382SOL    HW218979   5.293   1.303   7.011
72383SOL     OW18980  10.695   1.196   7.994
72383SOL    HW118981  10.617   1.147   7.968
72383SOL    HW218982  10.688   1.280   7.950
72384SOL     OW18983   5.998  10.497   4.921
72384SOL    HW118984   5.908  10.477   4.899
72384SOL    HW218985   6.047  10.418   4.897
72385SOL     OW18986   5.401   0.317   7.129
72385SOL    HW118987   5.437   0.400   7.099
72385SOL    HW218988   5.365   0.335   7.216
72386SOL     OW18989  14.071   6.376   9.299
72386SOL    HW118990  13.992   6.428   9.315
72386SOL    HW218991  14.137   6.413   9.358
72387SOL     OW18992   1.535   5.628   1.959
72387SOL    HW118993   1.630   5.621   1.971
72387SOL    HW218994   1.507   5.689   2.027
72388SOL     OW18995   5.200   2.757   0.843
72388SOL    HW118996   5.266   2.811   0.885
72388SOL    HW218997   5.236   2.738   0.756
72389SOL     OW18998   9.322  13.209   7.189
72389SOL    HW118999   9.353  13.300   7.183
72389SOL    HW219000   9.375  13.162   7.125
72390SOL     OW19001   3.629  10.214   7.436
72390SOL    HW119002   3.622  10.131   7.388
72390SOL    HW219003   3.654  10.189   7.525
72391SOL     OW19004   9.042  13.623   2.644
72391SOL    HW119005   9.120  13.569   2.660
72391SOL    HW219006   9.041  13.636   2.549
72392SOL     OW19007  13.605  11.598   7.268
72392SOL    HW119008  13.579  11.600   7.360
72392SOL    HW219009  13.523  11.581   7.221
72393SOL     OW19010   2.157  13.092   1.063
72393SOL    HW119011   2.182  13.173   1.018
72393SOL    HW219012   2.075  13.114   1.107
72394SOL     OW19013  10.445   6.827   3.683
72394SOL    HW119014  10.460   6.834   3.589
72394SOL    HW219015  10.522   6.780   3.716
72395SOL     OW19016   4.527   4.077   0.407
72395SOL    HW119017   4.543   4.000   0.353
72395SOL    HW219018   4.445   4.113   0.372
72396SOL     OW19019   2.833   5.180  13.676
72396SOL    HW119020   2.901   5.136  13.726
72396SOL    HW219021   2.751   5.140  13.706
72397SOL     OW19022  14.288   7.547   3.433
72397SOL    HW119023  14.297   7.619   3.495
72397SOL    HW219024  14.261   7.589   3.351
72398SOL     OW19025  13.235   4.120   0.328
72398SOL    HW119026  13.283   4.091   0.250
72398SOL    HW219027  13.224   4.214   0.315
72399SOL     OW19028  10.527   9.432   0.087
72399SOL    HW119029  10.596   9.495   0.107
72399SOL    HW219030  10.465   9.441   0.159
72400SOL     OW19031   8.666   3.982   9.794
72400SOL    HW119032   8.626   3.963   9.709
72400SOL    HW219033   8.721   3.906   9.812
72401SOL     OW19034   6.035  12.147   2.047
72401SOL    HW119035   5.996  12.224   2.088
72401SOL    HW219036   6.079  12.101   2.118
72402SOL     OW19037   0.496   1.824   0.573
72402SOL    HW119038   0.485   1.812   0.667
72402SOL    HW219039   0.446   1.903   0.553
72403SOL     OW19040   7.557  10.781   4.269
72403SOL    HW119041   7.587  10.691   4.261
72403SOL    HW219042   7.573  10.804   4.361
72404SOL     OW19043  14.596  10.030  13.752
72404SOL    HW119044  14.618   9.940  13.774
72404SOL    HW219045  14.634  10.043  13.665
72405SOL     OW19046   4.022   9.695   0.148
72405SOL    HW119047   4.070   9.775   0.168
72405SOL    HW219048   4.019   9.648   0.232
72406SOL     OW19049   8.649   1.940   4.127
72406SOL    HW119050   8.585   1.977   4.188
72406SOL    HW219051   8.697   1.875   4.178
72407SOL     OW19052  11.753   7.265  13.067
72407SOL    HW119053  11.837   7.279  13.022
72407SOL    HW219054  11.733   7.349  13.107
72408SOL     OW19055  10.564  13.134  13.259
72408SOL    HW119056  10.646  13.093  13.286
72408SOL    HW219057  10.562  13.216  13.307
72409SOL     OW19058  12.533  11.464  11.925
72409SOL    HW119059  12.546  11.505  11.840
72409SOL    HW219060  12.481  11.526  11.975
72410SOL     OW19061   7.232  12.063   3.712
72410SOL    HW119062   7.159  12.102   3.761
72410SOL    HW219063   7.210  11.970   3.706
72411SOL     OW19064   7.382  13.590  13.618
72411SOL    HW119065   7.375  13.633  13.703
72411SOL    HW219066   7.468  13.616  13.585
72412SOL     OW19067   3.447   7.525  11.192
72412SOL    HW119068   3.541   7.511  11.182
72412SOL    HW219069   3.407   7.464  11.130
72413SOL     OW19070   9.235  13.753   5.330
72413SOL    HW119071   9.281  13.787   5.254
72413SOL    HW219072   9.163  13.701   5.293
72414SOL     OW19073  13.367   3.349  10.076
72414SOL    HW119074  13.355   3.278  10.139
72414SOL    HW219075  13.279   3.386  10.065
72415SOL     OW19076   8.329   5.774   1.773
72415SOL    HW119077   8.397   5.742   1.713
72415SOL    HW219078   8.260   5.807   1.716
72416SOL     OW19079   0.616   1.017   9.836
72416SOL    HW119080   0.567   1.045   9.759
72416SOL    HW219081   0.570   1.059   9.909
72417SOL     OW19082   3.738   7.515   2.920
72417SOL    HW119083   3.717   7.511   2.827
72417SOL    HW219084   3.721   7.427   2.953
72418SOL     OW19085   2.508   7.080   7.565
72418SOL    HW119086   2.422   7.053   7.597
72418SOL    HW219087   2.494   7.096   7.472
72419SOL     OW19088   7.681   0.986  13.550
72419SOL    HW119089   7.697   0.907  13.497
72419SOL    HW219090   7.767   1.029  13.554
72420SOL     OW19091  11.377   1.036   9.903
72420SOL    HW119092  11.404   0.977   9.974
72420SOL    HW219093  11.406   0.992   9.823
72421SOL     OW19094  10.283   2.997   0.691
72421SOL    HW119095  10.257   2.914   0.652
72421SOL    HW219096  10.204   3.027   0.737
72422SOL     OW19097   6.470   6.221   8.695
72422SOL    HW119098   6.509   6.256   8.615
72422SOL    HW219099   6.545   6.211   8.755
72423SOL     OW19100   7.659   9.745   2.120
72423SOL    HW119101   7.728   9.733   2.186
72423SOL    HW219102   7.696   9.810   2.059
72424SOL     OW19103   7.705   4.936   9.753
72424SOL    HW119104   7.725   4.858   9.804
72424SOL    HW219105   7.683   5.002   9.818
72425SOL     OW19106   6.305   8.366   0.389
72425SOL    HW119107   6.305   8.274   0.413
72425SOL    HW219108   6.398   8.391   0.391
72426SOL     OW19109   0.906   3.957  13.474
72426SOL    HW119110   0.997   3.975  13.498
72426SOL    HW219111   0.889   4.016  13.401
72427SOL     OW19112   3.823   6.613  12.268
72427SOL    HW119113   3.772   6.546  12.313
72427SOL    HW219114   3.901   6.566  12.238
72428SOL     OW19115   4.665  14.024  10.565
72428SOL    HW119116   4.690  13.975  10.644
72428SOL    HW219117   4.629  13.958  10.507
72429SOL     OW19118   3.948  12.779   4.906
72429SOL    HW119119   3.885  12.707   4.902
72429SOL    HW219120   3.902  12.853   4.866
72430SOL     OW19121  10.800  12.939   1.450
72430SOL    HW119122  10.873  12.957   1.391
72430SOL    HW219123  10.825  12.981   1.532
72431SOL     OW19124   6.749   3.947  11.894
72431SOL    HW119125   6.740   3.928  11.987
72431SOL    HW219126   6.842   3.938  11.875
72432SOL     OW19127   3.474   0.533   5.086
72432SOL    HW119128   3.557   0.535   5.135
72432SOL    HW219129   3.496   0.567   4.999
72433SOL     OW19130   2.552   8.163   4.356
72433SOL    HW119131   2.561   8.112   4.276
72433SOL    HW219132   2.462   8.148   4.385
72434SOL     OW19133  12.425   3.123   3.338
72434SOL    HW119134  12.458   3.149   3.424
72434SOL    HW219135  12.350   3.180   3.323
72435SOL     OW19136   8.733  12.515   8.922
72435SOL    HW119137   8.813  12.524   8.870
72435SOL    HW219138   8.759  12.465   8.999
72436SOL     OW19139   3.772   1.250   9.298
72436SOL    HW119140   3.860   1.229   9.327
72436SOL    HW219141   3.722   1.170   9.311
72437SOL     OW19142   6.416  12.871   7.477
72437SOL    HW119143   6.356  12.819   7.424
72437SOL    HW219144   6.391  12.962   7.460
72438SOL     OW19145   2.413   9.042   2.902
72438SOL    HW119146   2.457   8.965   2.940
72438SOL    HW219147   2.412   9.106   2.973
72439SOL     OW19148  13.264   8.113  14.670
72439SOL    HW119149  13.210   8.088  14.595
72439SOL    HW219150  13.218   8.189  14.708
72440SOL     OW19151   1.685  11.299   2.094
72440SOL    HW119152   1.774  11.276   2.068
72440SOL    HW219153   1.633  11.221   2.075
72441SOL     OW19154   0.123   8.769   3.774
72441SOL    HW119155   0.216   8.761   3.758
72441SOL    HW219156   0.083   8.772   3.687
72442SOL     OW19157   2.100  14.639   3.143
72442SOL    HW119158   2.194  14.633   3.161
72442SOL    HW219159   2.060  14.580   3.207
72443SOL     OW19160   8.691  10.334   4.544
72443SOL    HW119161   8.638  10.331   4.623
72443SOL    HW219162   8.706  10.242   4.521
72444SOL     OW19163   1.590   6.676   0.143
72444SOL    HW119164   1.539   6.645   0.068
72444SOL    HW219165   1.550   6.760   0.166
72445SOL     OW19166   2.412  12.443   1.438
72445SOL    HW119167   2.369  12.525   1.461
72445SOL    HW219168   2.383  12.381   1.505
72446SOL     OW19169   1.526   4.722  12.309
72446SOL    HW119170   1.456   4.743  12.370
72446SOL    HW219171   1.566   4.806  12.287
72447SOL     OW19172  14.820   4.092   9.724
72447SOL    HW119173  14.825   4.181   9.688
72447SOL    HW219174  14.874   4.040   9.665
72448SOL     OW19175   9.109  10.915   9.049
72448SOL    HW119176   9.041  10.975   9.018
72448SOL    HW219177   9.128  10.860   8.973
72449SOL     OW19178   6.349   0.880   4.806
72449SOL    HW119179   6.352   0.801   4.753
72449SOL    HW219180   6.265   0.920   4.783
72450SOL     OW19181  14.370   8.464   7.775
72450SOL    HW119182  14.326   8.389   7.735
72450SOL    HW219183  14.344   8.462   7.866
72451SOL     OW19184  11.287  13.016   2.347
72451SOL    HW119185  11.294  13.108   2.321
72451SOL    HW219186  11.329  13.012   2.433
72452SOL     OW19187   9.816   1.246   5.195
72452SOL    HW119188   9.854   1.175   5.247
72452SOL    HW219189   9.752   1.287   5.253
72453SOL     OW19190   8.780   6.170   8.677
72453SOL    HW119191   8.741   6.231   8.739
72453SOL    HW219192   8.724   6.092   8.682
72454SOL     OW19193   0.837  12.429   3.300
72454SOL    HW119194   0.851  12.421   3.205
72454SOL    HW219195   0.818  12.521   3.314
72455SOL     OW19196  11.300   7.044   0.609
72455SOL    HW119197  11.236   7.083   0.550
72455SOL    HW219198  11.258   6.964   0.640
72456SOL     OW19199   5.901   8.538  14.696
72456SOL    HW119200   5.849   8.490  14.761
72456SOL    HW219201   5.856   8.622  14.688
72457SOL     OW19202  14.134   4.863   0.878
72457SOL    HW119203  14.073   4.811   0.825
72457SOL    HW219204  14.166   4.930   0.818
72458SOL     OW19205  11.344   5.357   8.634
72458SOL    HW119206  11.282   5.379   8.703
72458SOL    HW219207  11.299   5.292   8.581
72459SOL     OW19208  10.565   3.128  10.604
72459SOL    HW119209  10.617   3.193  10.556
72459SOL    HW219210  10.629   3.062  10.632
72460SOL     OW19211   5.743   0.108   5.798
72460SOL    HW119212   5.670   0.095   5.737
72460SOL    HW219213   5.740   0.202   5.819
72461SOL     OW19214   1.288   1.147   1.936
72461SOL    HW119215   1.258   1.192   2.015
72461SOL    HW219216   1.382   1.134   1.951
72462SOL     OW19217   1.883  11.207  13.199
72462SOL    HW119218   1.939  11.209  13.276
72462SOL    HW219219   1.896  11.293  13.158
72463SOL     OW19220   3.533  12.962   6.356
72463SOL    HW119221   3.628  12.954   6.349
72463SOL    HW219222   3.500  12.874   6.340
72464SOL     OW19223   4.803   4.117   4.359
72464SOL    HW119224   4.891   4.082   4.374
72464SOL    HW219225   4.760   4.051   4.305
72465SOL     OW19226   4.439  11.438   9.131
72465SOL    HW119227   4.524  11.436   9.173
72465SOL    HW219228   4.398  11.519   9.162
72466SOL     OW19229   2.102  10.519   0.434
72466SOL    HW119230   2.064  10.445   0.480
72466SOL    HW219231   2.197  10.508   0.443
72467SOL     OW19232   2.290   1.289   4.091
72467SOL    HW119233   2.254   1.233   4.022
72467SOL    HW219234   2.341   1.355   4.044
72468SOL     OW19235  11.432  13.995   0.095
72468SOL    HW119236  11.363  13.944   0.135
72468SOL    HW219237  11.390  14.077   0.069
72469SOL     OW19238   9.583   2.706   2.866
72469SOL    HW119239   9.628   2.674   2.944
72469SOL    HW219240   9.641   2.683   2.794
72470SOL     OW19241   8.073  11.903   7.205
72470SOL    HW119242   8.141  11.839   7.184
72470SOL    HW219243   7.992  11.866   7.170
72471SOL     OW19244   8.982  12.683  10.422
72471SOL    HW119245   9.063  12.679  10.473
72471SOL    HW219246   8.992  12.761  10.367
72472SOL     OW19247  11.320  13.486   8.611
72472SOL    HW119248  11.260  13.533   8.668
72472SOL    HW219249  11.386  13.551   8.586
72473SOL     OW19250   9.657   7.816   2.097
72473SOL    HW119251   9.703   7.785   2.175
72473SOL    HW219252   9.713   7.885   2.062
72474SOL     OW19253   9.570   2.089  10.321
72474SOL    HW119254   9.533   2.070  10.235
72474SOL    HW219255   9.581   2.003  10.361
72475SOL     OW19256   1.497  12.851   6.118
72475SOL    HW119257   1.466  12.850   6.028
72475SOL    HW219258   1.453  12.926   6.159
72476SOL     OW19259  14.073   4.228  10.365
72476SOL    HW119260  14.114   4.255  10.447
72476SOL    HW219261  14.065   4.309  10.314
72477SOL     OW19262  14.392   1.626   1.328
72477SOL    HW119263  14.335   1.574   1.384
72477SOL    HW219264  14.336   1.654   1.256
72478SOL     OW19265  10.013  11.876  11.044
72478SOL    HW119266   9.918  11.871  11.032
72478SOL    HW219267  10.046  11.917  10.964
72479SOL     OW19268   5.539  14.388   3.399
72479SOL    HW119269   5.528  14.314   3.340
72479SOL    HW219270   5.557  14.348   3.484
72480SOL     OW19271   7.185   3.426   5.607
72480SOL    HW119272   7.139   3.382   5.535
72480SOL    HW219273   7.224   3.504   5.567
72481SOL     OW19274  13.933  12.112   0.086
72481SOL    HW119275  14.013  12.120   0.138
72481SOL    HW219276  13.954  12.150   0.001
72482SOL     OW19277   9.381   7.005  14.606
72482SOL    HW119278   9.432   7.041  14.534
72482SOL    HW219279   9.322   7.076  14.633
72483SOL     OW19280   6.580  10.604   6.222
72483SOL    HW119281   6.543  10.621   6.309
72483SOL    HW219282   6.661  10.655   6.219
72484SOL     OW19283   1.683   4.252   3.297
72484SOL    HW119284   1.723   4.315   3.237
72484SOL    HW219285   1.644   4.186   3.239
72485SOL     OW19286   2.025   4.635   9.166
72485SOL    HW119287   2.095   4.599   9.220
72485SOL    HW219288   2.071   4.678   9.093
72486SOL     OW19289   6.324   2.530   8.730
72486SOL    HW119290   6.231   2.518   8.715
72486SOL    HW219291   6.329   2.590   8.804
72487SOL     OW19292  11.251  13.885   9.046
72487SOL    HW119293  11.259  13.896   8.951
72487SOL    HW219294  11.289  13.964   9.083
72488SOL     OW19295   4.165  10.944   3.517
72488SOL    HW119296   4.219  10.903   3.585
72488SOL    HW219297   4.083  10.964   3.562
72489SOL     OW19298   7.919  13.391   5.632
72489SOL    HW119299   7.837  13.369   5.676
72489SOL    HW219300   7.975  13.424   5.702
72490SOL     OW19301   1.185  10.126   3.918
72490SOL    HW119302   1.261  10.093   3.966
72490SOL    HW219303   1.146  10.192   3.975
72491SOL     OW19304  10.310   0.882   2.541
72491SOL    HW119305  10.298   0.955   2.480
72491SOL    HW219306  10.256   0.812   2.505
72492SOL     OW19307   1.161   8.886  11.442
72492SOL    HW119308   1.108   8.827  11.389
72492SOL    HW219309   1.155   8.971  11.397
72493SOL     OW19310   9.663   6.052   6.713
72493SOL    HW119311   9.576   6.091   6.708
72493SOL    HW219312   9.692   6.070   6.802
72494SOL     OW19313  11.599   6.606   2.272
72494SOL    HW119314  11.598   6.700   2.288
72494SOL    HW219315  11.507   6.582   2.263
72495SOL     OW19316   1.180   2.393   1.998
72495SOL    HW119317   1.215   2.360   2.081
72495SOL    HW219318   1.249   2.375   1.934
72496SOL     OW19319   3.421  13.403   8.335
72496SOL    HW119320   3.465  13.383   8.252
72496SOL    HW219321   3.369  13.324   8.353
72497SOL     OW19322  10.238   9.406   8.518
72497SOL    HW119323  10.182   9.396   8.595
72497SOL    HW219324  10.192   9.359   8.449
72498SOL     OW19325   4.870   6.040   4.202
72498SOL    HW119326   4.846   5.963   4.150
72498SOL    HW219327   4.814   6.110   4.170
72499SOL     OW19328   8.215   8.516   4.909
72499SOL    HW119329   8.211   8.563   4.825
72499SOL    HW219330   8.303   8.534   4.942
72500SOL     OW19331   3.987   7.677   4.438
72500SOL    HW119332   3.940   7.755   4.408
72500SOL    HW219333   3.950   7.659   4.524
72501SOL     OW19334  10.769   8.723  14.087
72501SOL    HW119335  10.752   8.676  14.169
72501SOL    HW219336  10.764   8.815  14.111
72502SOL     OW19337  14.774   4.588  14.048
72502SOL    HW119338  14.814   4.623  13.968
72502SOL    HW219339  14.712   4.523  14.016
72503SOL     OW19340   3.963   8.374   1.996
72503SOL    HW119341   3.875   8.411   2.005
72503SOL    HW219342   3.947   8.280   1.987
72504SOL     OW19343   7.286   4.030   2.024
72504SOL    HW119344   7.281   3.943   2.063
72504SOL    HW219345   7.196   4.062   2.025
72505SOL     OW19346   8.151  11.931   7.883
72505SOL    HW119347   8.149  11.975   7.968
72505SOL    HW219348   8.171  12.001   7.821
72506SOL     OW19349   4.355  13.269  10.131
72506SOL    HW119350   4.350  13.239  10.222
72506SOL    HW219351   4.412  13.346  10.134
72507SOL     OW19352   4.056  13.768   3.606
72507SOL    HW119353   4.070  13.785   3.513
72507SOL    HW219354   4.124  13.704   3.629
72508SOL     OW19355   6.443   0.614  11.966
72508SOL    HW119356   6.447   0.519  11.967
72508SOL    HW219357   6.351   0.634  11.983
72509SOL     OW19358   2.076  11.185  14.380
72509SOL    HW119359   2.006  11.178  14.445
72509SOL    HW219360   2.153  11.148  14.424
72510SOL     OW19361   4.621   7.127   3.276
72510SOL    HW119362   4.553   7.061   3.294
72510SOL    HW219363   4.661   7.097   3.194
72511SOL     OW19364  10.025  14.783   8.951
72511SOL    HW119365   9.934  14.753   8.943
72511SOL    HW219366  10.073  14.730   8.887
72512SOL     OW19367   6.270   7.281  13.590
72512SOL    HW119368   6.225   7.198  13.607
72512SOL    HW219369   6.230   7.314  13.509
72513SOL     OW19370   5.931   1.024   9.322
72513SOL    HW119371   5.868   0.951   9.324
72513SOL    HW219372   6.016   0.981   9.316
72514SOL     OW19373   2.011  10.433   4.310
72514SOL    HW119374   2.086  10.490   4.296
72514SOL    HW219375   2.030  10.354   4.259
72515SOL     OW19376   3.704   2.266   0.127
72515SOL    HW119377   3.762   2.310   0.189
72515SOL    HW219378   3.616   2.299   0.148
72516SOL     OW19379   6.249   0.979   6.378
72516SOL    HW119380   6.276   1.058   6.424
72516SOL    HW219381   6.315   0.967   6.310
72517SOL     OW19382   8.374   1.518  14.293
72517SOL    HW119383   8.339   1.554  14.374
72517SOL    HW219384   8.306   1.458  14.262
72518SOL     OW19385  11.151   8.362   6.836
72518SOL    HW119386  11.083   8.326   6.893
72518SOL    HW219387  11.197   8.286   6.803
72519SOL     OW19388   8.054  14.153   2.155
72519SOL    HW119389   8.004  14.158   2.074
72519SOL    HW219390   7.990  14.172   2.224
72520SOL     OW19391   8.949   5.703   1.454
72520SOL    HW119392   9.018   5.681   1.392
72520SOL    HW219393   8.978   5.785   1.495
72521SOL     OW19394   4.826   2.043   3.906
72521SOL    HW119395   4.905   1.990   3.901
72521SOL    HW219396   4.857   2.131   3.927
72522SOL     OW19397  12.730   6.188   1.057
72522SOL    HW119398  12.666   6.233   1.002
72522SOL    HW219399  12.725   6.233   1.142
72523SOL     OW19400   4.054   2.603   6.261
72523SOL    HW119401   3.965   2.581   6.291
72523SOL    HW219402   4.060   2.565   6.173
72524SOL     OW19403   2.218  13.062   2.053
72524SOL    HW119404   2.271  12.983   2.060
72524SOL    HW219405   2.161  13.060   2.130
72525SOL     OW19406   1.001  12.125   8.119
72525SOL    HW119407   1.071  12.173   8.164
72525SOL    HW219408   1.038  12.103   8.033
72526SOL     OW19409   3.464   5.457  10.857
72526SOL    HW119410   3.479   5.540  10.811
72526SOL    HW219411   3.500   5.472  10.944
72527SOL     OW19412  12.209   8.816  14.002
72527SOL    HW119413  12.267   8.784  14.073
72527SOL    HW219414  12.268   8.860  13.941
72528SOL     OW19415   3.319   4.940   2.835
72528SOL    HW119416   3.299   4.857   2.793
72528SOL    HW219417   3.233   4.980   2.851
72529SOL     OW19418  13.596  11.569  10.436
72529SOL    HW119419  13.595  11.505  10.364
72529SOL    HW219420  13.531  11.635  10.410
72530SOL     OW19421   8.350  14.186   1.394
72530SOL    HW119422   8.443  14.173   1.376
72530SOL    HW219423   8.345  14.194   1.490
72531SOL     OW19424   9.878  10.334  10.437
72531SOL    HW119425   9.966  10.346  10.471
72531SOL    HW219426   9.888  10.336  10.342
72532SOL     OW19427   0.046   1.408   6.706
72532SOL    HW119428   0.121   1.459   6.735
72532SOL    HW219429   0.033   1.343   6.775
72533SOL     OW19430   2.626  12.294   9.214
72533SOL    HW119431   2.596  12.203   9.214
72533SOL    HW219432   2.548  12.345   9.191
72534SOL     OW19433   0.479   1.943   4.821
72534SOL    HW119434   0.474   1.973   4.912
72534SOL    HW219435   0.484   1.848   4.826
72535SOL     OW19436   8.247   9.302  10.868
72535SOL    HW119437   8.244   9.283  10.961
72535SOL    HW219438   8.271   9.219  10.827
72536SOL     OW19439   3.594  13.757   7.493
72536SOL    HW119440   3.571  13.844   7.527
72536SOL    HW219441   3.619  13.707   7.571
72537SOL     OW19442   1.262   9.316   6.963
72537SOL    HW119443   1.270   9.222   6.980
72537SOL    HW219444   1.267   9.324   6.868
72538SOL     OW19445   6.956   7.078   8.982
72538SOL    HW119446   7.013   7.014   8.939
72538SOL    HW219447   7.000   7.096   9.065
72539SOL     OW19448  14.071   6.154   9.447
72539SOL    HW119449  13.989   6.106   9.462
72539SOL    HW219450  14.046   6.231   9.398
72540SOL     OW19451   7.280   0.635  12.140
72540SOL    HW119452   7.206   0.578  12.120
72540SOL    HW219453   7.275   0.704  12.074
72541SOL     OW19454  14.246  12.132   4.008
72541SOL    HW119455  14.318  12.188   3.979
72541SOL    HW219456  14.194  12.116   3.929
72542SOL     OW19457  11.176   4.500   3.576
72542SOL    HW119458  11.133   4.578   3.542
72542SOL    HW219459  11.234   4.532   3.645
72543SOL     OW19460   6.283   3.027   0.580
72543SOL    HW119461   6.219   2.962   0.552
72543SOL    HW219462   6.331   3.050   0.500
72544SOL     OW19463   0.950   3.250   3.016
72544SOL    HW119464   0.871   3.197   3.006
72544SOL    HW219465   1.007   3.223   2.944
72545SOL     OW19466   0.147   0.453  10.864
72545SOL    HW119467   0.197   0.382  10.824
72545SOL    HW219468   0.144   0.432  10.957
72546SOL     OW19469   7.072   9.334   4.412
72546SOL    HW119470   7.095   9.382   4.333
72546SOL    HW219471   7.156   9.321   4.457
72547SOL     OW19472  10.548  10.242   7.374
72547SOL    HW119473  10.584  10.271   7.458
72547SOL    HW219474  10.455  10.227   7.392
72548SOL     OW19475  14.629   2.030  12.764
72548SOL    HW119476  14.598   1.973  12.834
72548SOL    HW219477  14.710   1.990  12.734
72549SOL     OW19478   9.069   6.466   4.951
72549SOL    HW119479   9.067   6.558   4.922
72549SOL    HW219480   9.061   6.472   5.047
72550SOL     OW19481   2.908  14.014  13.427
72550SOL    HW119482   2.880  13.956  13.357
72550SOL    HW219483   3.000  13.992  13.441
72551SOL     OW19484   9.517  13.919   2.513
72551SOL    HW119485   9.557  13.969   2.442
72551SOL    HW219486   9.442  13.875   2.473
72552SOL     OW19487   3.445   4.996   9.516
72552SOL    HW119488   3.501   5.044   9.577
72552SOL    HW219489   3.439   5.053   9.439
72553SOL     OW19490   3.922   1.879   2.863
72553SOL    HW119491   3.917   1.833   2.947
72553SOL    HW219492   3.955   1.966   2.886
72554SOL     OW19493   8.478   5.244  10.791
72554SOL    HW119494   8.470   5.195  10.873
72554SOL    HW219495   8.572   5.248  10.774
72555SOL     OW19496   2.043   2.697   8.706
72555SOL    HW119497   1.986   2.748   8.763
72555SOL    HW219498   1.984   2.637   8.660
72556SOL     OW19499   7.515  12.146   5.074
72556SOL    HW119500   7.580  12.097   5.024
72556SOL    HW219501   7.439  12.151   5.017
72557SOL     OW19502   4.308   4.322  11.967
72557SOL    HW119503   4.336   4.406  12.003
72557SOL    HW219504   4.217   4.336  11.940
72558SOL     OW19505  11.627   7.635   6.183
72558SOL    HW119506  11.629   7.639   6.088
72558SOL    HW219507  11.549   7.583   6.204
72559SOL     OW19508   5.946  13.548  14.404
72559SOL    HW119509   5.977  13.605  14.333
72559SOL    HW219510   6.019  13.488  14.420
72560SOL     OW19511   3.198   5.015  13.675
72560SOL    HW119512   3.133   5.027  13.744
72560SOL    HW219513   3.238   4.930  13.695
72561SOL     OW19514   1.741  10.207  14.499
72561SOL    HW119515   1.718  10.129  14.549
72561SOL    HW219516   1.836  10.207  14.496
72562SOL     OW19517   5.686  10.327   0.471
72562SOL    HW119518   5.715  10.246   0.430
72562SOL    HW219519   5.628  10.299   0.541
72563SOL     OW19520   2.410   1.566   4.036
72563SOL    HW119521   2.320   1.584   4.062
72563SOL    HW219522   2.415   1.596   3.945
72564SOL     OW19523   8.391   9.682   7.561
72564SOL    HW119524   8.405   9.617   7.629
72564SOL    HW219525   8.426   9.642   7.481
72565SOL     OW19526  13.390   5.952   6.003
72565SOL    HW119527  13.380   6.033   5.953
72565SOL    HW219528  13.434   5.980   6.084
72566SOL     OW19529   9.385   7.245   4.022
72566SOL    HW119530   9.314   7.185   4.047
72566SOL    HW219531   9.383   7.247   3.927
72567SOL     OW19532   1.404   3.927   9.091
72567SOL    HW119533   1.426   4.015   9.060
72567SOL    HW219534   1.398   3.936   9.186
72568SOL     OW19535   2.660  12.942   5.354
72568SOL    HW119536   2.736  12.887   5.335
72568SOL    HW219537   2.636  12.981   5.270
72569SOL     OW19538   9.794   2.220   9.346
72569SOL    HW119539   9.727   2.189   9.407
72569SOL    HW219540   9.811   2.310   9.372
72570SOL     OW19541   7.089   3.899   2.350
72570SOL    HW119542   7.077   3.824   2.409
72570SOL    HW219543   7.180   3.925   2.363
72571SOL     OW19544  13.214   1.783  13.587
72571SOL    HW119545  13.274   1.803  13.514
72571SOL    HW219546  13.201   1.867  13.631
72572SOL     OW19547   9.477   0.395   4.625
72572SOL    HW119548   9.465   0.302   4.646
72572SOL    HW219549   9.570   0.403   4.603
72573SOL     OW19550  10.689  12.809   8.585
72573SOL    HW119551  10.740  12.862   8.647
72573SOL    HW219552  10.709  12.847   8.500
72574SOL     OW19553   7.252  13.462   7.266
72574SOL    HW119554   7.223  13.537   7.318
72574SOL    HW219555   7.230  13.486   7.175
72575SOL     OW19556   4.763   9.654   0.930
72575SOL    HW119557   4.750   9.606   0.848
72575SOL    HW219558   4.749   9.588   0.998
72576SOL     OW19559   2.663   5.419   4.689
72576SOL    HW119560   2.605   5.380   4.754
72576SOL    HW219561   2.705   5.344   4.646
72577SOL     OW19562   9.883   3.753  14.849
72577SOL    HW119563   9.840   3.823  14.800
72577SOL    HW219564   9.928   3.701  14.783
72578SOL     OW19565  12.239   0.020  13.129
72578SOL    HW119566  12.192  14.852  13.201
72578SOL    HW219567  12.280  14.825  13.080
72579SOL     OW19568  11.446  12.183   6.974
72579SOL    HW119569  11.364  12.219   6.938
72579SOL    HW219570  11.444  12.091   6.950
72580SOL     OW19571   7.721   5.259   6.465
72580SOL    HW119572   7.786   5.308   6.415
72580SOL    HW219573   7.648   5.247   6.405
72581SOL     OW19574  10.007   7.283  11.139
72581SOL    HW119575  10.085   7.231  11.155
72581SOL    HW219576  10.017   7.360  11.195
72582SOL     OW19577   2.342  10.071  14.073
72582SOL    HW119578   2.295  10.121  14.139
72582SOL    HW219579   2.434  10.096  14.085
72583SOL     OW19580   0.719  12.162   0.767
72583SOL    HW119581   0.762  12.208   0.839
72583SOL    HW219582   0.707  12.228   0.699
72584SOL     OW19583  10.251   9.499   9.605
72584SOL    HW119584  10.201   9.578   9.625
72584SOL    HW219585  10.288   9.472   9.690
72585SOL     OW19586   6.625  12.609  11.825
72585SOL    HW119587   6.625  12.669  11.751
72585SOL    HW219588   6.717  12.592  11.844
72586SOL     OW19589   8.247   7.858  13.855
72586SOL    HW119590   8.192   7.824  13.926
72586SOL    HW219591   8.219   7.810  13.777
72587SOL     OW19592   2.159   7.080  11.937
72587SOL    HW119593   2.180   6.998  11.891
72587SOL    HW219594   2.100   7.126  11.878
72588SOL     OW19595   0.888   1.024  13.539
72588SOL    HW119596   0.874   1.086  13.610
72588SOL    HW219597   0.838   0.946  13.565
72589SOL     OW19598   3.476   5.809   1.064
72589SOL    HW119599   3.458   5.750   1.137
72589SOL    HW219600   3.401   5.797   1.005
72590SOL     OW19601  14.463   5.278   7.417
72590SOL    HW119602  14.380   5.234   7.395
72590SOL    HW219603  14.514   5.275   7.336
72591SOL     OW19604  14.374   8.252   9.666
72591SOL    HW119605  14.320   8.182   9.629
72591SOL    HW219606  14.326   8.332   9.647
72592SOL     OW19607   2.548   3.301   2.031
72592SOL    HW119608   2.640   3.329   2.036
72592SOL    HW219609   2.516   3.307   2.121
72593SOL     OW19610  10.212  11.276   0.186
72593SOL    HW119611  10.283  11.293   0.248
72593SOL    HW219612  10.147  11.343   0.205
72594SOL     OW19613   9.142  13.930  10.399
72594SOL    HW119614   9.235  13.909  10.401
72594SOL    HW219615   9.116  13.916  10.308
72595SOL     OW19616   8.857   0.080   3.828
72595SOL    HW119617   8.862   0.148   3.895
72595SOL    HW219618   8.845  14.875   3.877
72596SOL     OW19619  12.001   9.982   9.514
72596SOL    HW119620  12.057  10.054   9.485
72596SOL    HW219621  12.060   9.908   9.526
72597SOL     OW19622   9.484  11.563   7.358
72597SOL    HW119623   9.402  11.570   7.310
72597SOL    HW219624   9.551  11.551   7.291
72598SOL     OW19625   9.682  14.573   7.319
72598SOL    HW119626   9.690  14.479   7.335
72598SOL    HW219627   9.590  14.586   7.296
72599SOL     OW19628  13.569  14.325   8.574
72599SOL    HW119629  13.544  14.398   8.631
72599SOL    HW219630  13.493  14.313   8.517
72600SOL     OW19631  10.785   6.516  14.218
72600SOL    HW119632  10.739   6.531  14.301
72600SOL    HW219633  10.715   6.510  14.153
72601SOL     OW19634   1.409  10.845  13.677
72601SOL    HW119635   1.454  10.913  13.726
72601SOL    HW219636   1.330  10.828  13.727
72602SOL     OW19637   8.184   9.723   4.710
72602SOL    HW119638   8.090   9.726   4.694
72602SOL    HW219639   8.212   9.641   4.670
72603SOL     OW19640  14.331   9.593  11.540
72603SOL    HW119641  14.417   9.572  11.503
72603SOL    HW219642  14.304   9.672  11.494
72604SOL     OW19643  13.652   4.745  11.023
72604SOL    HW119644  13.573   4.714  11.068
72604SOL    HW219645  13.627   4.749  10.931
72605SOL     OW19646   5.215   9.132  13.257
72605SOL    HW119647   5.208   9.041  13.286
72605SOL    HW219648   5.164   9.181  13.322
72606SOL     OW19649   5.931   0.369  13.561
72606SOL    HW119650   5.987   0.445  13.548
72606SOL    HW219651   5.969   0.301  13.507
72607SOL     OW19652   1.949   1.172   7.552
72607SOL    HW119653   1.942   1.111   7.479
72607SOL    HW219654   1.905   1.251   7.522
72608SOL     OW19655   5.896   5.033   4.761
72608SOL    HW119656   5.970   5.035   4.822
72608SOL    HW219657   5.879   5.125   4.740
72609SOL     OW19658   3.639  14.139  10.827
72609SOL    HW119659   3.679  14.224  10.811
72609SOL    HW219660   3.556  14.142  10.779
72610SOL     OW19661  12.441   7.894   5.911
72610SOL    HW119662  12.425   7.964   5.848
72610SOL    HW219663  12.360   7.844   5.913
72611SOL     OW19664  14.395   1.534  10.863
72611SOL    HW119665  14.479   1.501  10.832
72611SOL    HW219666  14.395   1.626  10.837
72612SOL     OW19667   5.972  10.190   9.003
72612SOL    HW119668   5.954  10.111   9.054
72612SOL    HW219669   6.032  10.241   9.058
72613SOL     OW19670   2.821  11.976   0.698
72613SOL    HW119671   2.743  11.949   0.649
72613SOL    HW219672   2.888  11.912   0.675
72614SOL     OW19673   8.105   0.079   1.621
72614SOL    HW119674   8.059   0.114   1.697
72614SOL    HW219675   8.096   0.146   1.554
72615SOL     OW19676   9.142  11.972   6.124
72615SOL    HW119677   9.118  11.960   6.216
72615SOL    HW219678   9.070  12.023   6.087
72616SOL     OW19679   0.924   7.354   7.799
72616SOL    HW119680   0.947   7.368   7.707
72616SOL    HW219681   0.850   7.412   7.814
72617SOL     OW19682   0.915  10.338   2.853
72617SOL    HW119683   0.868  10.265   2.894
72617SOL    HW219684   0.954  10.386   2.926
72618SOL     OW19685  11.511   7.463   0.028
72618SOL    HW119686  11.462   7.541  14.875
72618SOL    HW219687  11.448   7.414   0.081
72619SOL     OW19688   3.395  11.028   3.866
72619SOL    HW119689   3.398  11.106   3.922
72619SOL    HW219690   3.449  10.964   3.912
72620SOL     OW19691  14.265   1.356   9.798
72620SOL    HW119692  14.228   1.413   9.731
72620SOL    HW219693  14.212   1.276   9.794
72621SOL     OW19694   0.052  10.863   3.134
72621SOL    HW119695  14.853  10.862   3.075
72621SOL    HW219696   0.126  10.835   3.079
72622SOL     OW19697   5.407   8.081   0.057
72622SOL    HW119698   5.459   8.055  14.857
72622SOL    HW219699   5.379   8.171   0.038
72623SOL     OW19700   2.697   7.809   3.935
72623SOL    HW119701   2.712   7.715   3.948
72623SOL    HW219702   2.604   7.821   3.952
72624SOL     OW19703   0.852   2.755  13.434
72624SOL    HW119704   0.931   2.722  13.478
72624SOL    HW219705   0.793   2.780  13.505
72625SOL     OW19706   5.400   5.718   3.827
72625SOL    HW119707   5.493   5.705   3.848
72625SOL    HW219708   5.378   5.644   3.770
72626SOL     OW19709   4.430  14.588  10.016
72626SOL    HW119710   4.377  14.658   9.979
72626SOL    HW219711   4.464  14.541   9.939
72627SOL     OW19712   8.096   1.802  14.135
72627SOL    HW119713   8.076   1.710  14.152
72627SOL    HW219714   8.068   1.816  14.044
72628SOL     OW19715  12.355  14.027  11.540
72628SOL    HW119716  12.417  14.049  11.471
72628SOL    HW219717  12.269  14.045  11.502
72629SOL     OW19718   4.768   6.287   6.013
72629SOL    HW119719   4.709   6.276   6.088
72629SOL    HW219720   4.802   6.376   6.022
72630SOL     OW19721   7.078   1.060   2.558
72630SOL    HW119722   7.048   0.974   2.531
72630SOL    HW219723   7.034   1.121   2.498
72631SOL     OW19724  11.965   3.745  12.372
72631SOL    HW119725  11.911   3.813  12.332
72631SOL    HW219726  11.907   3.703  12.436
72632SOL     OW19727   9.568   1.656   7.905
72632SOL    HW119728   9.589   1.658   7.811
72632SOL    HW219729   9.645   1.615   7.945
72633SOL     OW19730  11.649  12.727   0.254
72633SOL    HW119731  11.694  12.643   0.254
72633SOL    HW219732  11.713  12.789   0.221
72634SOL     OW19733  10.898   6.581  12.633
72634SOL    HW119734  10.883   6.640  12.560
72634SOL    HW219735  10.817   6.584  12.684
72635SOL     OW19736   2.507   4.380   3.476
72635SOL    HW119737   2.484   4.325   3.401
72635SOL    HW219738   2.507   4.469   3.441
72636SOL     OW19739   8.847   0.751  11.479
72636SOL    HW119740   8.821   0.704  11.558
72636SOL    HW219741   8.911   0.693  11.437
72637SOL     OW19742   7.096   9.361   9.287
72637SOL    HW119743   7.156   9.297   9.326
72637SOL    HW219744   7.010   9.319   9.292
72638SOL     OW19745  11.071   6.067   3.298
72638SOL    HW119746  11.101   6.018   3.374
72638SOL    HW219747  11.108   6.154   3.310
72639SOL     OW19748   8.132  14.383   5.019
72639SOL    HW119749   8.146  14.400   5.112
72639SOL    HW219750   8.207  14.425   4.975
72640SOL     OW19751   9.813  13.016  10.154
72640SOL    HW119752   9.845  12.989  10.068
72640SOL    HW219753   9.734  13.067  10.136
72641SOL     OW19754   6.074   8.343   3.883
72641SOL    HW119755   6.105   8.431   3.861
72641SOL    HW219756   6.095   8.332   3.976
72642SOL     OW19757   5.326  13.187  14.074
72642SOL    HW119758   5.266  13.204  14.147
72642SOL    HW219759   5.409  13.226  14.102
72643SOL     OW19760   6.530   5.703   3.714
72643SOL    HW119761   6.440   5.733   3.718
72643SOL    HW219762   6.554   5.708   3.621
72644SOL     OW19763  13.296   2.888  11.776
72644SOL    HW119764  13.213   2.928  11.802
72644SOL    HW219765  13.279   2.794  11.779
72645SOL     OW19766   3.275  13.295   1.300
72645SOL    HW119767   3.275  13.230   1.370
72645SOL    HW219768   3.287  13.379   1.345
72646SOL     OW19769   2.382   6.694  11.255
72646SOL    HW119770   2.414   6.658  11.172
72646SOL    HW219771   2.419   6.782  11.260
72647SOL     OW19772   0.348   7.048   8.273
72647SOL    HW119773   0.254   7.028   8.275
72647SOL    HW219774   0.387   6.986   8.335
72648SOL     OW19775   0.276   9.392  12.831
72648SOL    HW119776   0.319   9.464  12.876
72648SOL    HW219777   0.318   9.313  12.865
72649SOL     OW19778   6.683  10.670   4.958
72649SOL    HW119779   6.767  10.631   4.981
72649SOL    HW219780   6.679  10.664   4.862
72650SOL     OW19781   2.775   7.859   2.526
72650SOL    HW119782   2.816   7.774   2.538
72650SOL    HW219783   2.768   7.869   2.431
72651SOL     OW19784  10.300   5.730  14.571
72651SOL    HW119785  10.293   5.810  14.623
72651SOL    HW219786  10.393   5.724  14.548
72652SOL     OW19787   2.297   3.787   8.647
72652SOL    HW119788   2.290   3.855   8.713
72652SOL    HW219789   2.286   3.705   8.695
72653SOL     OW19790   0.109  13.108  13.116
72653SOL    HW119791   0.136  13.185  13.166
72653SOL    HW219792   0.174  13.041  13.136
72654SOL     OW19793  12.356   9.856  11.936
72654SOL    HW119794  12.415   9.916  11.982
72654SOL    HW219795  12.307   9.814  12.006
72655SOL     OW19796   7.302  10.582   4.676
72655SOL    HW119797   7.244  10.578   4.600
72655SOL    HW219798   7.267  10.654   4.729
72656SOL     OW19799   0.862  11.782   6.329
72656SOL    HW119800   0.795  11.714   6.320
72656SOL    HW219801   0.945  11.736   6.318
72657SOL     OW19802   0.917  10.645  11.000
72657SOL    HW119803   0.936  10.734  11.030
72657SOL    HW219804   0.860  10.609  11.069
72658SOL     OW19805   5.428   1.611   6.246
72658SOL    HW119806   5.456   1.700   6.225
72658SOL    HW219807   5.346   1.599   6.197
72659SOL     OW19808   4.054   5.153  13.114
72659SOL    HW119809   4.056   5.060  13.089
72659SOL    HW219810   3.961   5.171  13.129
72660SOL     OW19811   3.232   4.702   4.878
72660SOL    HW119812   3.278   4.651   4.812
72660SOL    HW219813   3.209   4.784   4.834
72661SOL     OW19814  14.193  12.432   9.345
72661SOL    HW119815  14.178  12.459   9.255
72661SOL    HW219816  14.158  12.503   9.398
72662SOL     OW19817   3.159  11.158   7.769
72662SOL    HW119818   3.120  11.207   7.697
72662SOL    HW219819   3.222  11.100   7.727
72663SOL     OW19820   8.810  10.912   9.918
72663SOL    HW119821   8.829  10.838   9.860
72663SOL    HW219822   8.811  10.989   9.860
72664SOL     OW19823   8.616  14.398  12.868
72664SOL    HW119824   8.589  14.431  12.783
72664SOL    HW219825   8.636  14.476  12.920
72665SOL     OW19826  14.810  10.830   0.408
72665SOL    HW119827  14.775  10.825   0.497
72665SOL    HW219828   0.030  10.831   0.420
72666SOL     OW19829   9.194   3.599   7.382
72666SOL    HW119830   9.193   3.686   7.421
72666SOL    HW219831   9.282   3.589   7.347
72667SOL     OW19832   7.255   0.231   8.434
72667SOL    HW119833   7.302   0.204   8.513
72667SOL    HW219834   7.272   0.161   8.371
72668SOL     OW19835   0.575   3.715  14.398
72668SOL    HW119836   0.630   3.663  14.339
72668SOL    HW219837   0.486   3.689  14.375
72669SOL     OW19838  13.163   8.980  14.847
72669SOL    HW119839  13.206   9.053   0.016
72669SOL    HW219840  13.159   9.007  14.755
72670SOL     OW19841  11.872  12.652   7.416
72670SOL    HW119842  11.822  12.614   7.489
72670SOL    HW219843  11.906  12.734   7.450
72671SOL     OW19844   5.664   1.511   1.757
72671SOL    HW119845   5.684   1.436   1.812
72671SOL    HW219846   5.740   1.568   1.766
72672SOL     OW19847   5.878  11.437   1.296
72672SOL    HW119848   5.879  11.428   1.201
72672SOL    HW219849   5.969  11.451   1.320
72673SOL     OW19850   3.394  12.725  11.760
72673SOL    HW119851   3.337  12.769  11.697
72673SOL    HW219852   3.469  12.696  11.710
72674SOL     OW19853  12.059   9.526  11.021
72674SOL    HW119854  12.125   9.457  11.010
72674SOL    HW219855  11.984   9.496  10.970
72675SOL     OW19856   7.517   2.090   1.780
72675SOL    HW119857   7.451   2.060   1.843
72675SOL    HW219858   7.560   2.164   1.823
72676SOL     OW19859  13.650   9.383   1.592
72676SOL    HW119860  13.667   9.335   1.673
72676SOL    HW219861  13.594   9.325   1.541
72677SOL     OW19862   8.127   2.715   2.858
72677SOL    HW119863   8.106   2.661   2.934
72677SOL    HW219864   8.058   2.781   2.856
72678SOL     OW19865  12.558   7.731  13.304
72678SOL    HW119866  12.493   7.800  13.291
72678SOL    HW219867  12.592   7.712  13.217
72679SOL     OW19868  11.887   8.966  12.888
72679SOL    HW119869  11.810   8.998  12.842
72679SOL    HW219870  11.867   8.874  12.907
72680SOL     OW19871   4.903   1.375   3.729
72680SOL    HW119872   4.868   1.416   3.650
72680SOL    HW219873   4.938   1.449   3.780
72681SOL     OW19874  12.016  12.349   9.219
72681SOL    HW119875  12.037  12.268   9.172
72681SOL    HW219876  12.040  12.419   9.157
72682SOL     OW19877  12.507   9.462  14.783
72682SOL    HW119878  12.514   9.377  14.828
72682SOL    HW219879  12.414   9.484  14.788
72683SOL     OW19880  14.377   1.406   2.890
72683SOL    HW119881  14.428   1.356   2.955
72683SOL    HW219882  14.290   1.413   2.929
72684SOL     OW19883  14.544   1.702  10.388
72684SOL    HW119884  14.582   1.777  10.432
72684SOL    HW219885  14.453   1.727  10.371
72685SOL     OW19886   6.131   2.677  13.004
72685SOL    HW119887   6.185   2.755  12.992
72685SOL    HW219888   6.145   2.626  12.924
72686SOL     OW19889   9.568   6.779  14.652
72686SOL    HW119890   9.511   6.855  14.656
72686SOL    HW219891   9.546   6.737  14.569
72687SOL     OW19892   4.542   9.224   1.103
72687SOL    HW119893   4.571   9.191   1.018
72687SOL    HW219894   4.522   9.145   1.154
72688SOL     OW19895   6.861   0.110  11.872
72688SOL    HW119896   6.833   0.022  11.900
72688SOL    HW219897   6.795   0.168  11.911
72689SOL     OW19898   2.285   3.041   4.079
72689SOL    HW119899   2.209   2.984   4.065
72689SOL    HW219900   2.292   3.092   3.998
72690SOL     OW19901   1.489  10.773   8.964
72690SOL    HW119902   1.425  10.782   8.892
72690SOL    HW219903   1.440  10.798   9.042
72691SOL     OW19904  13.186   4.106   9.540
72691SOL    HW119905  13.137   4.024   9.547
72691SOL    HW219906  13.277   4.081   9.552
72692SOL     OW19907   0.940   9.583   7.701
72692SOL    HW119908   0.929   9.648   7.632
72692SOL    HW219909   1.003   9.520   7.666
72693SOL     OW19910  11.957   2.881   0.973
72693SOL    HW119911  11.901   2.831   1.031
72693SOL    HW219912  12.009   2.936   1.032
72694SOL     OW19913  10.515   5.615   6.380
72694SOL    HW119914  10.510   5.710   6.392
72694SOL    HW219915  10.585   5.603   6.316
72695SOL     OW19916   1.257  14.383   1.259
72695SOL    HW119917   1.309  14.428   1.325
72695SOL    HW219918   1.322  14.349   1.197
72696SOL     OW19919   1.992  11.199  13.457
72696SOL    HW119920   1.960  11.156  13.537
72696SOL    HW219921   2.086  11.206  13.470
72697SOL     OW19922   1.402   2.278   3.890
72697SOL    HW119923   1.362   2.365   3.884
72697SOL    HW219924   1.329   2.219   3.905
72698SOL     OW19925  12.015   6.682   2.321
72698SOL    HW119926  11.992   6.750   2.385
72698SOL    HW219927  12.006   6.725   2.236
72699SOL     OW19928  12.490   1.870  12.332
72699SOL    HW119929  12.427   1.921  12.282
72699SOL    HW219930  12.464   1.883  12.424
72700SOL     OW19931  12.296  10.570   4.428
72700SOL    HW119932  12.208  10.597   4.404
72700SOL    HW219933  12.330  10.526   4.350
72701SOL     OW19934   0.590   4.283  11.115
72701SOL    HW119935   0.577   4.200  11.160
72701SOL    HW219936   0.570   4.265  11.023
72702SOL     OW19937  11.198   5.458   5.442
72702SOL    HW119938  11.107   5.427   5.451
72702SOL    HW219939  11.207   5.477   5.349
72703SOL     OW19940  14.101  12.325   6.926
72703SOL    HW119941  14.142  12.402   6.966
72703SOL    HW219942  14.140  12.320   6.838
72704SOL     OW19943   4.511   3.775   1.142
72704SOL    HW119944   4.572   3.712   1.105
72704SOL    HW219945   4.429   3.728   1.150
72705SOL     OW19946   5.201   2.851  11.060
72705SOL    HW119947   5.215   2.876  10.968
72705SOL    HW219948   5.185   2.934  11.105
72706SOL     OW19949  11.167  13.803   1.636
72706SOL    HW119950  11.111  13.816   1.559
72706SOL    HW219951  11.189  13.710   1.633
72707SOL     OW19952   0.288  13.428   5.782
72707SOL    HW119953   0.202  13.466   5.795
72707SOL    HW219954   0.293  13.411   5.688
72708SOL     OW19955   6.925   9.816   4.251
72708SOL    HW119956   6.877   9.747   4.204
72708SOL    HW219957   6.860   9.853   4.311
72709SOL     OW19958   6.248   5.965   3.331
72709SOL    HW119959   6.243   6.044   3.278
72709SOL    HW219960   6.159   5.953   3.365
72710SOL     OW19961   3.830  13.214  12.355
72710SOL    HW119962   3.894  13.224  12.285
72710SOL    HW219963   3.882  13.208  12.435
72711SOL     OW19964   8.902  12.658   2.564
72711SOL    HW119965   8.822  12.607   2.565
72711SOL    HW219966   8.873  12.749   2.563
72712SOL     OW19967   4.308  10.749   8.598
72712SOL    HW119968   4.301  10.654   8.596
72712SOL    HW219969   4.240  10.777   8.660
72713SOL     OW19970   1.764   7.716  10.280
72713SOL    HW119971   1.681   7.760  10.295
72713SOL    HW219972   1.740   7.626  10.258
72714SOL     OW19973   4.895   2.189   5.249
72714SOL    HW119974   4.850   2.223   5.326
72714SOL    HW219975   4.842   2.114   5.222
72715SOL     OW19976  10.116   4.321   2.647
72715SOL    HW119977  10.128   4.235   2.608
72715SOL    HW219978  10.189   4.373   2.613
72716SOL     OW19979  11.882   9.106   5.257
72716SOL    HW119980  11.941   9.077   5.326
72716SOL    HW219981  11.824   9.169   5.300
72717SOL     OW19982  10.830   0.192  14.062
72717SOL    HW119983  10.788   0.192  14.148
72717SOL    HW219984  10.759   0.213  14.001
72718SOL     OW19985  14.568  12.978   4.873
72718SOL    HW119986  14.585  12.912   4.941
72718SOL    HW219987  14.476  12.965   4.850
72719SOL     OW19988   8.299   0.110  13.959
72719SOL    HW119989   8.381   0.069  13.932
72719SOL    HW219990   8.305   0.200  13.925
72720SOL     OW19991   5.570  11.586  10.778
72720SOL    HW119992   5.592  11.667  10.824
72720SOL    HW219993   5.638  11.524  10.805
72721SOL     OW19994   2.755   8.471   4.216
72721SOL    HW119995   2.749   8.418   4.296
72721SOL    HW219996   2.669   8.461   4.174
72722SOL     OW19997   9.437   2.863  12.896
72722SOL    HW119998   9.524   2.874  12.932
72722SOL    HW219999   9.381   2.921  12.948
72723SOL     OW20000  11.619   8.381   3.038
72723SOL    HW120001  11.544   8.436   3.017
72723SOL    HW220002  11.582   8.295   3.058
72724SOL     OW20003   7.504  13.665   4.353
72724SOL    HW120004   7.546  13.645   4.270
72724SOL    HW220005   7.559  13.621   4.418
72725SOL     OW20006   1.710   0.565   5.317
72725SOL    HW120007   1.757   0.603   5.243
72725SOL    HW220008   1.653   0.499   5.278
72726SOL     OW20009   4.794   5.899   8.649
72726SOL    HW120010   4.794   5.973   8.588
72726SOL    HW220011   4.886   5.871   8.652
72727SOL     OW20012   3.840   3.824   0.559
72727SOL    HW120013   3.906   3.889   0.585
72727SOL    HW220014   3.885   3.771   0.493
72728SOL     OW20015   0.269   2.296  13.382
72728SOL    HW120016   0.209   2.276  13.454
72728SOL    HW220017   0.321   2.369  13.413
72729SOL     OW20018  10.630   4.751   9.743
72729SOL    HW120019  10.572   4.812   9.698
72729SOL    HW220020  10.691   4.722   9.676
72730SOL     OW20021   7.730   0.467   2.064
72730SOL    HW120022   7.760   0.550   2.027
72730SOL    HW220023   7.772   0.400   2.010
72731SOL     OW20024   8.273   5.261   7.251
72731SOL    HW120025   8.320   5.264   7.334
72731SOL    HW220026   8.329   5.306   7.189
72732SOL     OW20027  13.602  11.507   1.696
72732SOL    HW120028  13.631  11.534   1.609
72732SOL    HW220029  13.645  11.569   1.755
72733SOL     OW20030  13.819   5.852   2.911
72733SOL    HW120031  13.880   5.894   2.851
72733SOL    HW220032  13.875   5.813   2.978
72734SOL     OW20033   3.986   1.704   9.029
72734SOL    HW120034   4.050   1.708   9.100
72734SOL    HW220035   3.997   1.617   8.991
72735SOL     OW20036   4.380   0.473  13.650
72735SOL    HW120037   4.309   0.513  13.600
72735SOL    HW220038   4.403   0.394  13.602
72736SOL     OW20039  14.135  13.225   8.642
72736SOL    HW120040  14.131  13.230   8.546
72736SOL    HW220041  14.087  13.145   8.664
72737SOL     OW20042   4.697   3.232  11.389
72737SOL    HW120043   4.697   3.326  11.407
72737SOL    HW220044   4.687   3.191  11.475
72738SOL     OW20045   4.908   4.820  12.169
72738SOL    HW120046   4.910   4.910  12.136
72738SOL    HW220047   5.000   4.797  12.182
72739SOL     OW20048   6.247  13.062   2.014
72739SOL    HW120049   6.203  13.024   2.090
72739SOL    HW220050   6.187  13.129   1.983
72740SOL     OW20051   5.071   7.049  14.250
72740SOL    HW120052   5.092   7.081  14.162
72740SOL    HW220053   5.040   6.960  14.236
72741SOL     OW20054   9.415   9.692   2.802
72741SOL    HW120055   9.473   9.665   2.732
72741SOL    HW220056   9.333   9.647   2.785
72742SOL     OW20057  10.477   9.346   6.455
72742SOL    HW120058  10.434   9.312   6.376
72742SOL    HW220059  10.410   9.340   6.523
72743SOL     OW20060  13.803   0.003   3.548
72743SOL    HW120061  13.737  14.848   3.486
72743SOL    HW220062  13.860  14.803   3.562
72744SOL     OW20063   9.678   6.599  10.760
72744SOL    HW120064   9.681   6.516  10.713
72744SOL    HW220065   9.628   6.580  10.839
72745SOL     OW20066  12.467  12.803   8.667
72745SOL    HW120067  12.541  12.763   8.621
72745SOL    HW220068  12.442  12.738   8.732
72746SOL     OW20069   9.570   9.189   5.161
72746SOL    HW120070   9.502   9.127   5.185
72746SOL    HW220071   9.649   9.156   5.205
72747SOL     OW20072  11.807   4.447  10.007
72747SOL    HW120073  11.903   4.454  10.010
72747SOL    HW220074  11.784   4.473   9.917
72748SOL     OW20075   0.817   5.135  11.659
72748SOL    HW120076   0.859   5.055  11.692
72748SOL    HW220077   0.852   5.144  11.570
72749SOL     OW20078  10.573   1.885  14.712
72749SOL    HW120079  10.528   1.938  14.646
72749SOL    HW220080  10.622   1.949  14.765
72750SOL     OW20081   3.972  11.241   1.242
72750SOL    HW120082   3.947  11.328   1.273
72750SOL    HW220083   3.976  11.249   1.147
72751SOL     OW20084   1.224  13.903   7.421
72751SOL    HW120085   1.256  13.899   7.331
72751SOL    HW220086   1.235  13.814   7.455
72752SOL     OW20087  14.737  14.224  14.185
72752SOL    HW120088  14.779  14.304  14.154
72752SOL    HW220089  14.697  14.186  14.106
72753SOL     OW20090   8.297   9.599   0.494
72753SOL    HW120091   8.331   9.651   0.566
72753SOL    HW220092   8.259   9.522   0.536
72754SOL     OW20093  14.759  12.521  10.037
72754SOL    HW120094  14.782  12.527  10.130
72754SOL    HW220095  14.758  12.612  10.007
72755SOL     OW20096   2.427   2.536   2.168
72755SOL    HW120097   2.374   2.457   2.179
72755SOL    HW220098   2.481   2.540   2.248
72756SOL     OW20099  13.371   1.085  14.525
72756SOL    HW120100  13.287   1.093  14.570
72756SOL    HW220101  13.425   1.034  14.586
72757SOL     OW20102   1.943   0.015   3.431
72757SOL    HW120103   2.028  14.864   3.465
72757SOL    HW220104   1.896   0.049   3.508
72758SOL     OW20105  14.094   1.967   5.693
72758SOL    HW120106  14.155   1.955   5.621
72758SOL    HW220107  14.145   1.951   5.772
72759SOL     OW20108  10.705   9.573  13.680
72759SOL    HW120109  10.756   9.599  13.757
72759SOL    HW220110  10.653   9.651  13.658
72760SOL     OW20111  10.638  10.880  11.723
72760SOL    HW120112  10.675  10.864  11.810
72760SOL    HW220113  10.545  10.859  11.732
72761SOL     OW20114  14.067   5.519   9.587
72761SOL    HW120115  13.977   5.486   9.584
72761SOL    HW220116  14.087   5.524   9.680
72762SOL     OW20117  11.842  11.596   8.209
72762SOL    HW120118  11.908  11.665   8.202
72762SOL    HW220119  11.769  11.627   8.155
72763SOL     OW20120   9.540   3.920  11.642
72763SOL    HW120121   9.543   3.974  11.563
72763SOL    HW220122   9.544   3.830  11.608
72764SOL     OW20123   8.863  14.744  11.057
72764SOL    HW120124   8.884  14.742  10.963
72764SOL    HW220125   8.937  14.789  11.097
72765SOL     OW20126   0.190   2.672   1.838
72765SOL    HW120127   0.096   2.669   1.819
72765SOL    HW220128   0.228   2.724   1.768
72766SOL     OW20129   4.055   7.890   5.276
72766SOL    HW120130   4.111   7.951   5.323
72766SOL    HW220131   3.971   7.895   5.321
72767SOL     OW20132  12.613  10.847   0.426
72767SOL    HW120133  12.593  10.821   0.516
72767SOL    HW220134  12.658  10.930   0.434
72768SOL     OW20135   2.006   8.483  11.289
72768SOL    HW120136   1.953   8.440  11.356
72768SOL    HW220137   1.958   8.470  11.208
72769SOL     OW20138   0.522  11.777   0.901
72769SOL    HW120139   0.451  11.828   0.862
72769SOL    HW220140   0.479  11.698   0.934
72770SOL     OW20141  12.610  12.889   3.275
72770SOL    HW120142  12.531  12.874   3.223
72770SOL    HW220143  12.579  12.885   3.366
72771SOL     OW20144  13.367  11.782   9.293
72771SOL    HW120145  13.415  11.707   9.327
72771SOL    HW220146  13.275  11.758   9.304
72772SOL     OW20147   6.282   5.669  13.480
72772SOL    HW120148   6.369   5.700  13.506
72772SOL    HW220149   6.275   5.690  13.387
72773SOL     OW20150   9.710  12.084   0.046
72773SOL    HW120151   9.634  12.031   0.070
72773SOL    HW220152   9.689  12.118  14.835
72774SOL     OW20153  12.196  14.190   1.953
72774SOL    HW120154  12.101  14.181   1.941
72774SOL    HW220155  12.233  14.164   1.870
72775SOL     OW20156  12.898   4.997   3.196
72775SOL    HW120157  12.819   4.968   3.242
72775SOL    HW220158  12.963   5.009   3.266
72776SOL     OW20159   8.934   2.981   7.754
72776SOL    HW120160   8.988   2.924   7.699
72776SOL    HW220161   8.983   3.063   7.759
72777SOL     OW20162  13.061   9.815   3.552
72777SOL    HW120163  13.056   9.719   3.550
72777SOL    HW220164  13.021   9.839   3.636
72778SOL     OW20165   1.042   1.403   0.792
72778SOL    HW120166   1.080   1.382   0.877
72778SOL    HW220167   1.114   1.387   0.730
72779SOL     OW20168  13.113  11.845   2.294
72779SOL    HW120169  13.147  11.774   2.238
72779SOL    HW220170  13.062  11.800   2.361
72780SOL     OW20171  11.148  10.230   7.706
72780SOL    HW120172  11.128  10.139   7.726
72780SOL    HW220173  11.221  10.253   7.764
72781SOL     OW20174   9.241   9.110  12.183
72781SOL    HW120175   9.197   9.060  12.251
72781SOL    HW220176   9.240   9.053  12.106
72782SOL     OW20177   1.797  11.411   2.601
72782SOL    HW120178   1.865  11.345   2.586
72782SOL    HW220179   1.715  11.365   2.583
72783SOL     OW20180   6.075   6.530   5.757
72783SOL    HW120181   6.094   6.622   5.740
72783SOL    HW220182   6.024   6.501   5.682
72784SOL     OW20183  10.966   9.529   3.278
72784SOL    HW120184  10.950   9.551   3.370
72784SOL    HW220185  11.061   9.538   3.268
72785SOL     OW20186   0.896   4.273   1.049
72785SOL    HW120187   0.955   4.240   0.981
72785SOL    HW220188   0.951   4.282   1.127
72786SOL     OW20189   0.047   0.260   4.202
72786SOL    HW120190   0.087   0.346   4.206
72786SOL    HW220191  14.837   0.275   4.164
72787SOL     OW20192  13.151   2.207  12.453
72787SOL    HW120193  13.067   2.167  12.428
72787SOL    HW220194  13.209   2.189  12.379
72788SOL     OW20195  11.520  12.398   7.746
72788SOL    HW120196  11.553  12.481   7.780
72788SOL    HW220197  11.569  12.384   7.665
72789SOL     OW20198   0.847  11.804   9.607
72789SOL    HW120199   0.793  11.743   9.657
72789SOL    HW220200   0.838  11.775   9.516
72790SOL     OW20201   4.476  13.724   7.562
72790SOL    HW120202   4.422  13.757   7.634
72790SOL    HW220203   4.428  13.647   7.530
72791SOL     OW20204   4.285   6.535   6.378
72791SOL    HW120205   4.360   6.590   6.357
72791SOL    HW220206   4.210   6.593   6.372
72792SOL     OW20207  12.417  14.714   1.860
72792SOL    HW120208  12.456  14.630   1.880
72792SOL    HW220209  12.405  14.757   1.945
72793SOL     OW20210  12.705  12.077   5.878
72793SOL    HW120211  12.699  11.984   5.899
72793SOL    HW220212  12.629  12.093   5.821
72794SOL     OW20213  10.022   7.268   1.460
72794SOL    HW120214  10.011   7.202   1.529
72794SOL    HW220215   9.946   7.256   1.404
72795SOL     OW20216   7.416  12.783  11.236
72795SOL    HW120217   7.440  12.854  11.176
72795SOL    HW220218   7.369  12.826  11.307
72796SOL     OW20219   5.176   9.319   4.557
72796SOL    HW120220   5.236   9.246   4.570
72796SOL    HW220221   5.107   9.284   4.501
72797SOL     OW20222   8.568   4.632  12.661
72797SOL    HW120223   8.603   4.564  12.718
72797SOL    HW220224   8.563   4.591  12.575
72798SOL     OW20225   1.697   9.153   8.737
72798SOL    HW120226   1.648   9.171   8.817
72798SOL    HW220227   1.721   9.240   8.704
72799SOL     OW20228  14.657   4.455  12.698
72799SOL    HW120229  14.748   4.453  12.670
72799SOL    HW220230  14.616   4.381  12.654
72800SOL     OW20231   8.414   1.219   0.869
72800SOL    HW120232   8.449   1.138   0.833
72800SOL    HW220233   8.356   1.190   0.941
72801SOL     OW20234   5.202   5.816   4.668
72801SOL    HW120235   5.126   5.775   4.628
72801SOL    HW220236   5.208   5.902   4.626
72802SOL     OW20237   2.719  14.075  14.365
72802SOL    HW120238   2.749  14.156  14.405
72802SOL    HW220239   2.623  14.081  14.367
72803SOL     OW20240   4.427   3.857   8.849
72803SOL    HW120241   4.436   3.898   8.764
72803SOL    HW220242   4.513   3.866   8.889
72804SOL     OW20243   0.682   2.805   4.969
72804SOL    HW120244   0.594   2.803   5.007
72804SOL    HW220245   0.674   2.865   4.894
72805SOL     OW20246   0.232  13.775   6.719
72805SOL    HW120247   0.279  13.855   6.699
72805SOL    HW220248   0.158  13.803   6.773
72806SOL     OW20249   0.517   2.197   1.349
72806SOL    HW120250   0.501   2.150   1.431
72806SOL    HW220251   0.435   2.242   1.330
72807SOL     OW20252  10.041   9.296   9.464
72807SOL    HW120253  10.007   9.370   9.513
72807SOL    HW220254  10.111   9.260   9.518
72808SOL     OW20255   8.530   1.426   9.287
72808SOL    HW120256   8.503   1.360   9.351
72808SOL    HW220257   8.480   1.405   9.208
72809SOL     OW20258   3.368  10.472   1.870
72809SOL    HW120259   3.428  10.415   1.919
72809SOL    HW220260   3.356  10.427   1.787
72810SOL     OW20261  12.436  13.320   4.001
72810SOL    HW120262  12.440  13.242   4.056
72810SOL    HW220263  12.483  13.387   4.051
72811SOL     OW20264   0.437   8.764  11.405
72811SOL    HW120265   0.495   8.704  11.453
72811SOL    HW220266   0.353   8.719  11.402
72812SOL     OW20267  13.252   0.574   9.682
72812SOL    HW120268  13.324   0.629   9.652
72812SOL    HW220269  13.188   0.636   9.717
72813SOL     OW20270  10.660  13.603  10.913
72813SOL    HW120271  10.721  13.629  10.981
72813SOL    HW220272  10.684  13.513  10.891
72814SOL     OW20273   4.176   8.855   9.695
72814SOL    HW120274   4.173   8.929   9.635
72814SOL    HW220275   4.204   8.894   9.778
72815SOL     OW20276   0.187   2.950   5.975
72815SOL    HW120277   0.119   3.006   5.939
72815SOL    HW220278   0.184   2.870   5.923
72816SOL     OW20279   0.602  13.209   8.921
72816SOL    HW120280   0.589  13.116   8.902
72816SOL    HW220281   0.558  13.223   9.004
72817SOL     OW20282   0.829   4.116   9.876
72817SOL    HW120283   0.791   4.048   9.930
72817SOL    HW220284   0.754   4.155   9.830
72818SOL     OW20285  12.939   9.249   1.766
72818SOL    HW120286  12.946   9.248   1.670
72818SOL    HW220287  13.029   9.256   1.796
72819SOL     OW20288  14.339   6.680  12.794
72819SOL    HW120289  14.289   6.599  12.809
72819SOL    HW220290  14.375   6.702  12.880
72820SOL     OW20291   0.308   8.205  14.539
72820SOL    HW120292   0.216   8.231  14.531
72820SOL    HW220293   0.306   8.122  14.585
72821SOL     OW20294   6.612  14.525  14.495
72821SOL    HW120295   6.621  14.620  14.505
72821SOL    HW220296   6.562  14.498  14.572
72822SOL     OW20297   5.289   8.918   1.432
72822SOL    HW120298   5.302   8.872   1.349
72822SOL    HW220299   5.348   8.874   1.494
72823SOL     OW20300   7.903   1.797   3.968
72823SOL    HW120301   7.980   1.810   4.023
72823SOL    HW220302   7.839   1.756   4.026
72824SOL     OW20303  11.172   5.368   0.355
72824SOL    HW120304  11.085   5.386   0.391
72824SOL    HW220305  11.170   5.407   0.267
72825SOL     OW20306   2.232   9.783  14.452
72825SOL    HW120307   2.290   9.708  14.442
72825SOL    HW220308   2.150   9.746  14.483
72826SOL     OW20309   0.427  13.261   5.327
72826SOL    HW120310   0.494  13.260   5.259
72826SOL    HW220311   0.344  13.256   5.280
72827SOL     OW20312   7.775   8.983  10.303
72827SOL    HW120313   7.775   9.062  10.249
72827SOL    HW220314   7.866   8.973  10.332
72828SOL     OW20315   8.889   3.639   5.770
72828SOL    HW120316   8.928   3.582   5.704
72828SOL    HW220317   8.890   3.588   5.851
72829SOL     OW20318   3.077   8.381  12.327
72829SOL    HW120319   2.998   8.360  12.377
72829SOL    HW220320   3.045   8.432  12.253
72830SOL     OW20321   4.422   1.660  14.493
72830SOL    HW120322   4.452   1.668  14.403
72830SOL    HW220323   4.353   1.726  14.502
72831SOL     OW20324   4.875  12.047   4.092
72831SOL    HW120325   4.853  11.970   4.038
72831SOL    HW220326   4.934  12.098   4.036
72832SOL     OW20327   0.015   8.197   9.967
72832SOL    HW120328   0.068   8.122   9.997
72832SOL    HW220329  14.811   8.191  10.019
72833SOL     OW20330   3.530  10.369  11.528
72833SOL    HW120331   3.516  10.335  11.439
72833SOL    HW220332   3.594  10.440  11.516
72834SOL     OW20333  10.642   6.666   3.814
72834SOL    HW120334  10.600   6.589   3.852
72834SOL    HW220335  10.675   6.714   3.890
72835SOL     OW20336  10.219   4.317   5.701
72835SOL    HW120337  10.218   4.259   5.625
72835SOL    HW220338  10.250   4.401   5.667
72836SOL     OW20339   4.364   5.370   2.241
72836SOL    HW120340   4.389   5.326   2.159
72836SOL    HW220341   4.414   5.452   2.240
72837SOL     OW20342  10.418   1.588   1.945
72837SOL    HW120343  10.328   1.610   1.969
72837SOL    HW220344  10.450   1.665   1.898
72838SOL     OW20345   7.219   3.009   2.451
72838SOL    HW120346   7.125   2.994   2.439
72838SOL    HW220347   7.257   2.993   2.365
72839SOL     OW20348   7.743   0.823   2.448
72839SOL    HW120349   7.738   0.728   2.464
72839SOL    HW220350   7.834   0.845   2.465
72840SOL     OW20351   8.531  14.325   2.672
72840SOL    HW120352   8.566  14.409   2.701
72840SOL    HW220353   8.608  14.274   2.648
72841SOL     OW20354  11.258  12.836   4.135
72841SOL    HW120355  11.213  12.792   4.064
72841SOL    HW220356  11.273  12.925   4.102
72842SOL     OW20357  12.589   0.684   2.117
72842SOL    HW120358  12.678   0.683   2.082
72842SOL    HW220359  12.542   0.618   2.066
72843SOL     OW20360   7.425   6.004  10.661
72843SOL    HW120361   7.441   5.913  10.635
72843SOL    HW220362   7.370   6.039  10.590
72844SOL     OW20363   8.827   1.737   6.535
72844SOL    HW120364   8.733   1.744   6.556
72844SOL    HW220365   8.863   1.684   6.606
72845SOL     OW20366   7.946   2.194   4.474
72845SOL    HW120367   7.966   2.281   4.508
72845SOL    HW220368   7.851   2.187   4.480
72846SOL     OW20369   0.942   3.214   4.641
72846SOL    HW120370   0.994   3.135   4.656
72846SOL    HW220371   0.882   3.218   4.715
72847SOL     OW20372   2.289   3.911  14.465
72847SOL    HW120373   2.236   3.862  14.528
72847SOL    HW220374   2.333   3.843  14.413
72848SOL     OW20375   7.826   1.598   3.749
72848SOL    HW120376   7.898   1.535   3.748
72848SOL    HW220377   7.834   1.642   3.833
72849SOL     OW20378  13.290   1.848   9.269
72849SOL    HW120379  13.356   1.854   9.337
72849SOL    HW220380  13.223   1.911   9.295
72850SOL     OW20381   2.231  11.781  10.649
72850SOL    HW120382   2.172  11.855  10.641
72850SOL    HW220383   2.238  11.746  10.560
72851SOL     OW20384  12.143   3.217   0.184
72851SOL    HW120385  12.150   3.312   0.193
72851SOL    HW220386  12.081   3.205   0.111
72852SOL     OW20387   0.338   0.556   7.153
72852SOL    HW120388   0.329   0.528   7.244
72852SOL    HW220389   0.297   0.486   7.102
72853SOL     OW20390   3.604   8.079   3.383
72853SOL    HW120391   3.699   8.066   3.375
72853SOL    HW220392   3.569   7.991   3.395
72854SOL     OW20393  12.225   4.750   6.122
72854SOL    HW120394  12.162   4.711   6.062
72854SOL    HW220395  12.304   4.697   6.113
72855SOL     OW20396   8.988   9.113   2.743
72855SOL    HW120397   9.028   9.031   2.772
72855SOL    HW220398   8.917   9.086   2.685
72856SOL     OW20399   1.020  12.873   9.959
72856SOL    HW120400   0.928  12.896   9.955
72856SOL    HW220401   1.021  12.779   9.976
72857SOL     OW20402   7.795   4.843  12.378
72857SOL    HW120403   7.754   4.929  12.390
72857SOL    HW220404   7.872   4.845  12.434
72858SOL     OW20405   5.460  10.150  13.405
72858SOL    HW120406   5.488  10.195  13.484
72858SOL    HW220407   5.528  10.084  13.389
72859SOL     OW20408   0.127   8.347  13.791
72859SOL    HW120409   0.114   8.382  13.880
72859SOL    HW220410   0.156   8.257  13.804
72860SOL     OW20411   0.893   0.447   8.134
72860SOL    HW120412   0.874   0.536   8.163
72860SOL    HW220413   0.921   0.458   8.043
72861SOL     OW20414  10.092  13.209   9.965
72861SOL    HW120415  10.103  13.252  10.049
72861SOL    HW220416  10.154  13.136   9.966
72862SOL     OW20417  13.664  12.592   2.659
72862SOL    HW120418  13.671  12.612   2.565
72862SOL    HW220419  13.624  12.671   2.696
72863SOL     OW20420   4.239   1.793   2.860
72863SOL    HW120421   4.238   1.870   2.803
72863SOL    HW220422   4.304   1.735   2.820
72864SOL     OW20423   6.599   1.869   5.227
72864SOL    HW120424   6.598   1.830   5.140
72864SOL    HW220425   6.639   1.803   5.283
72865SOL     OW20426  13.314   9.092   4.306
72865SOL    HW120427  13.258   9.045   4.368
72865SOL    HW220428  13.323   9.032   4.231
72866SOL     OW20429  12.187  13.583  10.781
72866SOL    HW120430  12.236  13.575  10.699
72866SOL    HW220431  12.217  13.510  10.834
72867SOL     OW20432   9.273  14.250  10.609
72867SOL    HW120433   9.283  14.241  10.514
72867SOL    HW220434   9.362  14.266  10.641
72868SOL     OW20435   8.650   1.867   9.526
72868SOL    HW120436   8.583   1.934   9.511
72868SOL    HW220437   8.651   1.815   9.445
72869SOL     OW20438   0.903   1.010   0.124
72869SOL    HW120439   0.853   0.943   0.171
72869SOL    HW220440   0.914   1.081   0.188
72870SOL     OW20441  12.365   9.413   6.353
72870SOL    HW120442  12.371   9.388   6.445
72870SOL    HW220443  12.281   9.379   6.323
72871SOL     OW20444   0.441  13.373   1.775
72871SOL    HW120445   0.455  13.443   1.839
72871SOL    HW220446   0.517  13.316   1.784
72872SOL     OW20447   5.408   9.594   0.504
72872SOL    HW120448   5.503   9.589   0.514
72872SOL    HW220449   5.375   9.513   0.543
72873SOL     OW20450   4.699   5.917   3.815
72873SOL    HW120451   4.702   5.888   3.906
72873SOL    HW220452   4.732   5.843   3.764
72874SOL     OW20453   8.200   1.435  14.864
72874SOL    HW120454   8.218   1.354  14.816
72874SOL    HW220455   8.228   1.504  14.804
72875SOL     OW20456   2.054  13.550  12.374
72875SOL    HW120457   2.040  13.459  12.350
72875SOL    HW220458   2.041  13.599  12.292
72876SOL     OW20459   0.039  14.807  11.276
72876SOL    HW120460   0.111  14.837  11.220
72876SOL    HW220461   0.082  14.772  11.354
72877SOL     OW20462   3.504   9.284   9.517
72877SOL    HW120463   3.577   9.253   9.571
72877SOL    HW220464   3.518   9.243   9.431
72878SOL     OW20465   2.165   2.258   1.221
72878SOL    HW120466   2.172   2.273   1.127
72878SOL    HW220467   2.092   2.196   1.230
72879SOL     OW20468   5.527   9.817   1.245
72879SOL    HW120469   5.520   9.887   1.309
72879SOL    HW220470   5.524   9.736   1.296
72880SOL     OW20471   7.816   5.699  13.152
72880SOL    HW120472   7.727   5.733  13.140
72880SOL    HW220473   7.840   5.663  13.067
72881SOL     OW20474   1.389  10.269   9.264
72881SOL    HW120475   1.443  10.196   9.295
72881SOL    HW220476   1.452  10.340   9.249
72882SOL     OW20477  11.026  10.951  10.690
72882SOL    HW120478  11.072  10.870  10.713
72882SOL    HW220479  11.013  10.996  10.774
72883SOL     OW20480   7.127   8.160   5.143
72883SOL    HW120481   7.045   8.201   5.171
72883SOL    HW220482   7.101   8.071   5.117
72884SOL     OW20483   7.090  14.618   8.340
72884SOL    HW120484   7.176  14.626   8.381
72884SOL    HW220485   7.048  14.546   8.387
72885SOL     OW20486   8.421   3.872   7.096
72885SOL    HW120487   8.481   3.945   7.113
72885SOL    HW220488   8.366   3.903   7.023
72886SOL     OW20489   4.959   6.650  14.376
72886SOL    HW120490   4.926   6.566  14.343
72886SOL    HW220491   4.916   6.715  14.321
72887SOL     OW20492   3.812   4.771   7.566
72887SOL    HW120493   3.843   4.828   7.636
72887SOL    HW220494   3.725   4.744   7.594
72888SOL     OW20495   9.110   8.581   7.740
72888SOL    HW120496   9.172   8.579   7.812
72888SOL    HW220497   9.092   8.673   7.725
72889SOL     OW20498  10.424   0.282   7.575
72889SOL    HW120499  10.337   0.306   7.544
72889SOL    HW220500  10.414   0.193   7.609
72890SOL     OW20501  14.764  10.279  11.276
72890SOL    HW120502  14.857  10.303  11.279
72890SOL    HW220503  14.738  10.293  11.185
72891SOL     OW20504   0.083   2.095  12.823
72891SOL    HW120505   0.156   2.059  12.873
72891SOL    HW220506   0.039   2.155  12.884
72892SOL     OW20507   7.073  13.349   1.326
72892SOL    HW120508   7.076  13.349   1.422
72892SOL    HW220509   7.165  13.338   1.300
72893SOL     OW20510   8.989   8.754   7.293
72893SOL    HW120511   8.951   8.836   7.263
72893SOL    HW220512   8.961   8.746   7.384
72894SOL     OW20513  14.861  13.389   6.942
72894SOL    HW120514   0.075  13.358   6.953
72894SOL    HW220515  14.833  13.412   7.031
72895SOL     OW20516   9.540  14.600  13.526
72895SOL    HW120517   9.548  14.507  13.509
72895SOL    HW220518   9.615  14.621  13.582
72896SOL     OW20519   3.356   0.105  13.028
72896SOL    HW120520   3.295   0.166  13.070
72896SOL    HW220521   3.333   0.109  12.935
72897SOL     OW20522  11.065  10.036   2.950
72897SOL    HW120523  10.994   9.972   2.943
72897SOL    HW220524  11.115  10.027   2.869
72898SOL     OW20525   3.772  10.724   8.587
72898SOL    HW120526   3.680  10.751   8.597
72898SOL    HW220527   3.785  10.717   8.493
72899SOL     OW20528  12.037   3.449  10.806
72899SOL    HW120529  12.086   3.530  10.798
72899SOL    HW220530  11.975   3.465  10.877
72900SOL     OW20531   5.332  12.509   6.562
72900SOL    HW120532   5.325  12.553   6.477
72900SOL    HW220533   5.328  12.415   6.541
72901SOL     OW20534   7.169   0.762  12.987
72901SOL    HW120535   7.239   0.798  13.041
72901SOL    HW220536   7.144   0.833  12.929
72902SOL     OW20537   8.447  11.374  14.601
72902SOL    HW120538   8.506  11.450  14.608
72902SOL    HW220539   8.504  11.302  14.573
72903SOL     OW20540  12.583   7.192   6.350
72903SOL    HW120541  12.541   7.278   6.361
72903SOL    HW220542  12.575   7.173   6.257
72904SOL     OW20543  14.396   3.770  10.056
72904SOL    HW120544  14.460   3.713  10.099
72904SOL    HW220545  14.373   3.723   9.975
72905SOL     OW20546   5.969   2.961   7.458
72905SOL    HW120547   6.045   3.019   7.451
72905SOL    HW220548   5.984   2.892   7.393
72906SOL     OW20549   8.291  14.551   9.240
72906SOL    HW120550   8.246  14.482   9.289
72906SOL    HW220551   8.289  14.521   9.149
72907SOL     OW20552   8.806  12.810   6.072
72907SOL    HW120553   8.716  12.791   6.095
72907SOL    HW220554   8.803  12.893   6.026
72908SOL     OW20555   9.045  12.173   9.932
72908SOL    HW120556   9.013  12.151  10.019
72908SOL    HW220557   9.130  12.214   9.948
72909SOL     OW20558  12.049  13.245  14.567
72909SOL    HW120559  11.967  13.279  14.603
72909SOL    HW220560  12.093  13.206  14.642
72910SOL     OW20561   8.113   3.154   6.833
72910SOL    HW120562   8.045   3.110   6.885
72910SOL    HW220563   8.194   3.138   6.883
72911SOL     OW20564   4.126  12.848   2.617
72911SOL    HW120565   4.163  12.768   2.654
72911SOL    HW220566   4.191  12.878   2.554
72912SOL     OW20567   6.330  14.291   4.397
72912SOL    HW120568   6.346  14.237   4.474
72912SOL    HW220569   6.416  14.302   4.356
72913SOL     OW20570  13.697  11.526   3.183
72913SOL    HW120571  13.680  11.611   3.143
72913SOL    HW220572  13.617  11.475   3.167
72914SOL     OW20573   2.204   9.168   2.446
72914SOL    HW120574   2.146   9.205   2.379
72914SOL    HW220575   2.289   9.160   2.402
72915SOL     OW20576   4.930   1.314  13.715
72915SOL    HW120577   4.900   1.231  13.679
72915SOL    HW220578   4.862   1.377  13.689
72916SOL     OW20579  12.979  10.440   8.507
72916SOL    HW120580  13.002  10.464   8.417
72916SOL    HW220581  13.063  10.421   8.548
72917SOL     OW20582   9.935   4.885  14.856
72917SOL    HW120583  10.018   4.931  14.850
72917SOL    HW220584   9.930   4.833  14.775
72918SOL     OW20585   4.553  13.739  11.674
72918SOL    HW120586   4.626  13.775  11.625
72918SOL    HW220587   4.592  13.672  11.730
72919SOL     OW20588   5.344   1.002   9.791
72919SOL    HW120589   5.429   1.025   9.753
72919SOL    HW220590   5.360   0.999   9.885
72920SOL     OW20591  13.280   0.286   8.327
72920SOL    HW120592  13.235   0.244   8.254
72920SOL    HW220593  13.212   0.339   8.370
72921SOL     OW20594  11.014  10.784   6.579
72921SOL    HW120595  11.071  10.711   6.601
72921SOL    HW220596  11.068  10.862   6.594
72922SOL     OW20597   9.043   7.174  13.891
72922SOL    HW120598   8.952   7.145  13.897
72922SOL    HW220599   9.052   7.206  13.802
72923SOL     OW20600  12.477   4.632   1.868
72923SOL    HW120601  12.528   4.711   1.851
72923SOL    HW220602  12.513   4.598   1.950
72924SOL     OW20603  12.724  11.456   8.056
72924SOL    HW120604  12.790  11.418   8.000
72924SOL    HW220605  12.658  11.388   8.067
72925SOL     OW20606   9.428   6.023  12.572
72925SOL    HW120607   9.478   5.994  12.496
72925SOL    HW220608   9.395   5.942  12.611
72926SOL     OW20609  13.387   5.871  14.786
72926SOL    HW120610  13.384   5.952  14.735
72926SOL    HW220611  13.307   5.825  14.762
72927SOL     OW20612   2.875   2.504   9.005
72927SOL    HW120613   2.916   2.513   9.091
72927SOL    HW220614   2.807   2.572   9.004
72928SOL     OW20615   6.495   2.152   4.532
72928SOL    HW120616   6.416   2.176   4.580
72928SOL    HW220617   6.564   2.205   4.570
72929SOL     OW20618   7.019  13.078   9.356
72929SOL    HW120619   7.064  13.114   9.432
72929SOL    HW220620   6.989  12.991   9.384
72930SOL     OW20621  10.228   6.653   0.431
72930SOL    HW120622  10.307   6.702   0.409
72930SOL    HW220623  10.227   6.581   0.368
72931SOL     OW20624   2.701   5.987   5.947
72931SOL    HW120625   2.767   5.952   5.887
72931SOL    HW220626   2.727   5.953   6.033
72932SOL     OW20627   3.649  12.297   0.360
72932SOL    HW120628   3.653  12.263   0.271
72932SOL    HW220629   3.590  12.373   0.355
72933SOL     OW20630  12.656  12.444   3.751
72933SOL    HW120631  12.642  12.393   3.671
72933SOL    HW220632  12.665  12.534   3.721
72934SOL     OW20633   9.229  13.451  13.733
72934SOL    HW120634   9.180  13.377  13.769
72934SOL    HW220635   9.292  13.474  13.802
72935SOL     OW20636   2.251   8.532   2.768
72935SOL    HW120637   2.246   8.601   2.702
72935SOL    HW220638   2.345   8.519   2.782
72936SOL     OW20639   1.564   3.355   7.814
72936SOL    HW120640   1.525   3.288   7.871
72936SOL    HW220641   1.587   3.426   7.874
72937SOL     OW20642   0.589  10.731   4.005
72937SOL    HW120643   0.556  10.653   4.049
72937SOL    HW220644   0.531  10.801   4.034
72938SOL     OW20645  14.325   7.456   7.759
72938SOL    HW120646  14.312   7.420   7.847
72938SOL    HW220647  14.271   7.535   7.757
72939SOL     OW20648  13.400  12.675  10.130
72939SOL    HW120649  13.470  12.716  10.080
72939SOL    HW220650  13.323  12.730  10.114
72940SOL     OW20651  10.159  14.369  14.192
72940SOL    HW120652  10.219  14.295  14.202
72940SOL    HW220653  10.215  14.446  14.201
72941SOL     OW20654   2.005  10.424   5.509
72941SOL    HW120655   1.971  10.456   5.426
72941SOL    HW220656   1.931  10.425   5.568
72942SOL     OW20657  13.982   9.089  11.677
72942SOL    HW120658  14.004   9.041  11.598
72942SOL    HW220659  13.923   9.158  11.648
72943SOL     OW20660  12.693  10.678   2.309
72943SOL    HW120661  12.704  10.614   2.379
72943SOL    HW220662  12.611  10.652   2.266
72944SOL     OW20663  11.087  11.112   4.351
72944SOL    HW120664  11.059  11.033   4.397
72944SOL    HW220665  11.012  11.172   4.358
72945SOL     OW20666   1.560  13.631  10.759
72945SOL    HW120667   1.542  13.539  10.738
72945SOL    HW220668   1.619  13.627  10.835
72946SOL     OW20669  12.843   6.667   4.250
72946SOL    HW120670  12.845   6.739   4.187
72946SOL    HW220671  12.765   6.684   4.303
72947SOL     OW20672  13.398   7.905   5.395
72947SOL    HW120673  13.457   7.829   5.391
72947SOL    HW220674  13.453   7.980   5.372
72948SOL     OW20675  11.747  13.354   0.471
72948SOL    HW120676  11.718  13.445   0.480
72948SOL    HW220677  11.677  13.310   0.424
72949SOL     OW20678   1.053  12.159   5.463
72949SOL    HW120679   1.073  12.066   5.474
72949SOL    HW220680   0.984  12.176   5.527
72950SOL     OW20681  10.202   2.078   2.272
72950SOL    HW120682  10.274   2.141   2.259
72950SOL    HW220683  10.226   2.002   2.219
72951SOL     OW20684  10.652   7.975   2.334
72951SOL    HW120685  10.588   7.965   2.405
72951SOL    HW220686  10.600   7.963   2.254
72952SOL     OW20687   0.278  12.402   9.689
72952SOL    HW120688   0.282  12.466   9.618
72952SOL    HW220689   0.279  12.317   9.644
72953SOL     OW20690   1.675  10.952  10.958
72953SOL    HW120691   1.599  10.953  10.899
72953SOL    HW220692   1.665  11.032  11.010
72954SOL     OW20693  10.111  12.921   6.578
72954SOL    HW120694  10.183  12.953   6.524
72954SOL    HW220695  10.091  12.834   6.541
72955SOL     OW20696   5.536  13.380   9.311
72955SOL    HW120697   5.467  13.364   9.376
72955SOL    HW220698   5.615  13.345   9.351
72956SOL     OW20699   9.186   8.066   7.756
72956SOL    HW120700   9.215   8.135   7.697
72956SOL    HW220701   9.120   8.018   7.705
72957SOL     OW20702   0.971   6.694   9.979
72957SOL    HW120703   0.882   6.665   9.960
72957SOL    HW220704   0.965   6.790   9.979
72958SOL     OW20705  10.851  11.738   0.233
72958SOL    HW120706  10.809  11.802   0.291
72958SOL    HW220707  10.915  11.790   0.183
72959SOL     OW20708   0.276   5.735  13.580
72959SOL    HW120709   0.357   5.710  13.625
72959SOL    HW220710   0.213   5.668  13.604
72960SOL     OW20711   6.413   8.826  12.305
72960SOL    HW120712   6.452   8.765  12.367
72960SOL    HW220713   6.438   8.793  12.219
72961SOL     OW20714   6.843  12.923  10.242
72961SOL    HW120715   6.896  12.846  10.263
72961SOL    HW220716   6.902  12.997  10.253
72962SOL     OW20717   6.868  12.207   8.224
72962SOL    HW120718   6.808  12.275   8.195
72962SOL    HW220719   6.948  12.254   8.248
72963SOL     OW20720   8.483   0.765   8.861
72963SOL    HW120721   8.410   0.798   8.914
72963SOL    HW220722   8.441   0.720   8.788
72964SOL     OW20723   2.400   4.906  12.014
72964SOL    HW120724   2.344   4.949  11.949
72964SOL    HW220725   2.454   4.977  12.050
72965SOL     OW20726  11.584  13.844  12.925
72965SOL    HW120727  11.545  13.761  12.898
72965SOL    HW220728  11.557  13.907  12.858
72966SOL     OW20729  11.916  12.682   7.162
72966SOL    HW120730  11.920  12.675   7.258
72966SOL    HW220731  11.907  12.776   7.145
72967SOL     OW20732   7.309   5.330   8.850
72967SOL    HW120733   7.359   5.411   8.851
72967SOL    HW220734   7.284   5.316   8.941
72968SOL     OW20735   0.966   1.752  10.678
72968SOL    HW120736   1.002   1.678  10.728
72968SOL    HW220737   0.929   1.711  10.600
72969SOL     OW20738   2.120   3.323   0.875
72969SOL    HW120739   2.206   3.286   0.893
72969SOL    HW220740   2.134   3.417   0.874
72970SOL     OW20741   6.857   6.516   1.521
72970SOL    HW120742   6.816   6.565   1.592
72970SOL    HW220743   6.867   6.580   1.451
72971SOL     OW20744   7.755   7.400   8.234
72971SOL    HW120745   7.668   7.381   8.199
72971SOL    HW220746   7.777   7.486   8.198
72972SOL     OW20747   5.525  13.943  11.489
72972SOL    HW120748   5.471  13.970  11.414
72972SOL    HW220749   5.463  13.936  11.562
72973SOL     OW20750   2.217   8.916   1.698
72973SOL    HW120751   2.266   8.899   1.617
72973SOL    HW220752   2.228   9.009   1.714
72974SOL     OW20753  13.034   3.708   3.113
72974SOL    HW120754  12.978   3.633   3.136
72974SOL    HW220755  13.016   3.773   3.180
72975SOL     OW20756   7.759  14.028   6.794
72975SOL    HW120757   7.801  14.071   6.719
72975SOL    HW220758   7.796  13.940   6.794
72976SOL     OW20759   7.144   6.611   2.175
72976SOL    HW120760   7.089   6.582   2.102
72976SOL    HW220761   7.126   6.548   2.245
72977SOL     OW20762  11.428  11.321   4.244
72977SOL    HW120763  11.415  11.233   4.278
72977SOL    HW220764  11.495  11.311   4.176
72978SOL     OW20765  11.556   8.707  12.680
72978SOL    HW120766  11.597   8.751  12.606
72978SOL    HW220767  11.480   8.663  12.643
72979SOL     OW20768  11.490   2.011   4.827
72979SOL    HW120769  11.552   1.951   4.868
72979SOL    HW220770  11.486   1.983   4.736
72980SOL     OW20771   5.301   9.503   5.227
72980SOL    HW120772   5.387   9.538   5.247
72980SOL    HW220773   5.297   9.501   5.131
72981SOL     OW20774   1.042   8.743  14.688
72981SOL    HW120775   1.119   8.733  14.744
72981SOL    HW220776   1.041   8.836  14.665
72982SOL     OW20777  12.625   7.031  13.664
72982SOL    HW120778  12.634   7.004  13.572
72982SOL    HW220779  12.543   6.990  13.693
72983SOL     OW20780   6.346   4.208   5.075
72983SOL    HW120781   6.273   4.162   5.116
72983SOL    HW220782   6.421   4.151   5.091
72984SOL     OW20783   7.151   2.939   8.313
72984SOL    HW120784   7.073   2.907   8.268
72984SOL    HW220785   7.223   2.891   8.273
72985SOL     OW20786   0.190   0.373  14.554
72985SOL    HW120787   0.209   0.294  14.605
72985SOL    HW220788   0.116   0.414  14.598
72986SOL     OW20789   7.825  14.175   4.693
72986SOL    HW120790   7.887  14.137   4.630
72986SOL    HW220791   7.783  14.246   4.646
72987SOL     OW20792  11.258   8.224  12.281
72987SOL    HW120793  11.240   8.274  12.201
72987SOL    HW220794  11.299   8.288  12.340
72988SOL     OW20795  11.193  14.039   0.643
72988SOL    HW120796  11.171  14.094   0.718
72988SOL    HW220797  11.261  14.088   0.597
72989SOL     OW20798   1.849   5.816  10.286
72989SOL    HW120799   1.807   5.842  10.204
72989SOL    HW220800   1.818   5.881  10.350
72990SOL     OW20801   9.527   1.346   6.048
72990SOL    HW120802   9.589   1.415   6.026
72990SOL    HW220803   9.507   1.361   6.141
72991SOL     OW20804  14.735   7.055  10.010
72991SOL    HW120805  14.775   7.071   9.925
72991SOL    HW220806  14.756   7.132  10.063
72992SOL     OW20807  12.628  13.573  11.388
72992SOL    HW120808  12.565  13.582  11.317
72992SOL    HW220809  12.713  13.568  11.344
72993SOL     OW20810   8.190   0.718   1.306
72993SOL    HW120811   8.119   0.779   1.324
72993SOL    HW220812   8.187   0.654   1.378
72994SOL     OW20813  14.451   4.273  12.898
72994SOL    HW120814  14.391   4.346  12.918
72994SOL    HW220815  14.436   4.210  12.969
72995SOL     OW20816  11.014   8.834   6.797
72995SOL    HW120817  10.923   8.810   6.814
72995SOL    HW220818  11.045   8.769   6.733
72996SOL     OW20819   5.021  13.766   1.235
72996SOL    HW120820   4.967  13.820   1.294
72996SOL    HW220821   5.060  13.828   1.175
72997SOL     OW20822   8.152   6.745   9.240
72997SOL    HW120823   8.189   6.812   9.298
72997SOL    HW220824   8.214   6.740   9.167
72998SOL     OW20825   1.118   9.011   2.567
72998SOL    HW120826   1.041   8.980   2.518
72998SOL    HW220827   1.082   9.071   2.632
72999SOL     OW20828   4.187   1.652   5.187
72999SOL    HW120829   4.168   1.670   5.095
72999SOL    HW220830   4.251   1.581   5.185
73000SOL     OW20831   9.021   7.465   1.721
73000SOL    HW120832   9.013   7.560   1.731
73000SOL    HW220833   9.037   7.433   1.809
73001SOL     OW20834  11.757   9.595   1.573
73001SOL    HW120835  11.845   9.603   1.537
73001SOL    HW220836  11.703   9.568   1.499
73002SOL     OW20837  13.478   1.599   9.850
73002SOL    HW120838  13.500   1.688   9.822
73002SOL    HW220839  13.484   1.601   9.946
73003SOL     OW20840  12.850   2.310   8.263
73003SOL    HW120841  12.801   2.228   8.273
73003SOL    HW220842  12.907   2.314   8.339
73004SOL     OW20843  10.839  12.770   8.224
73004SOL    HW120844  10.844  12.676   8.235
73004SOL    HW220845  10.750  12.793   8.250
73005SOL     OW20846   1.815   1.603   0.580
73005SOL    HW120847   1.788   1.594   0.672
73005SOL    HW220848   1.894   1.551   0.573
73006SOL     OW20849   2.809   9.622   0.585
73006SOL    HW120850   2.796   9.627   0.490
73006SOL    HW220851   2.796   9.712   0.615
73007SOL     OW20852   6.503  11.942   9.776
73007SOL    HW120853   6.586  11.902   9.750
73007SOL    HW220854   6.483  11.902   9.861
73008SOL     OW20855   2.441  10.695   7.412
73008SOL    HW120856   2.359  10.676   7.457
73008SOL    HW220857   2.457  10.618   7.357
73009SOL     OW20858   7.341   7.798   5.677
73009SOL    HW120859   7.308   7.883   5.706
73009SOL    HW220860   7.282   7.735   5.717
73010SOL     OW20861   5.675   2.824   5.298
73010SOL    HW120862   5.622   2.902   5.284
73010SOL    HW220863   5.765   2.851   5.279
73011SOL     OW20864   1.758  12.457  11.679
73011SOL    HW120865   1.704  12.392  11.723
73011SOL    HW220866   1.743  12.441  11.585
73012SOL     OW20867   0.704   4.852   9.060
73012SOL    HW120868   0.795   4.882   9.055
73012SOL    HW220869   0.652   4.933   9.061
73013SOL     OW20870   2.953   5.936   6.660
73013SOL    HW120871   3.025   5.999   6.673
73013SOL    HW220872   2.885   5.965   6.720
73014SOL     OW20873  13.058   2.255   8.520
73014SOL    HW120874  13.141   2.286   8.555
73014SOL    HW220875  13.038   2.176   8.570
73015SOL     OW20876  13.062   9.302   2.142
73015SOL    HW120877  13.085   9.230   2.199
73015SOL    HW220878  13.114   9.287   2.063
73016SOL     OW20879   3.086   9.278   4.973
73016SOL    HW120880   3.032   9.236   5.039
73016SOL    HW220881   3.030   9.284   4.896
73017SOL     OW20882  13.937  10.364   1.686
73017SOL    HW120883  13.955  10.368   1.780
73017SOL    HW220884  14.009  10.311   1.650
73018SOL     OW20885   6.942  10.629  10.421
73018SOL    HW120886   7.015  10.606  10.479
73018SOL    HW220887   6.864  10.622  10.476
73019SOL     OW20888   7.514   1.671  12.640
73019SOL    HW120889   7.588   1.613  12.655
73019SOL    HW220890   7.460   1.626  12.575
73020SOL     OW20891   4.560   5.492   4.604
73020SOL    HW120892   4.509   5.432   4.550
73020SOL    HW220893   4.572   5.445   4.686
73021SOL     OW20894  12.512  10.522   7.423
73021SOL    HW120895  12.483  10.554   7.508
73021SOL    HW220896  12.492  10.593   7.362
73022SOL     OW20897  13.331   7.519   7.665
73022SOL    HW120898  13.347   7.482   7.578
73022SOL    HW220899  13.287   7.603   7.648
73023SOL     OW20900   5.845   9.836  12.648
73023SOL    HW120901   5.776   9.768  12.649
73023SOL    HW220902   5.807   9.907  12.596
73024SOL     OW20903  12.323   9.086   7.247
73024SOL    HW120904  12.406   9.039   7.258
73024SOL    HW220905  12.304   9.123   7.333
73025SOL     OW20906   8.370   0.703   4.788
73025SOL    HW120907   8.333   0.629   4.740
73025SOL    HW220908   8.312   0.714   4.863
73026SOL     OW20909  12.544  14.809   7.892
73026SOL    HW120910  12.536  14.811   7.796
73026SOL    HW220911  12.545   0.026   7.917
73027SOL     OW20912   9.338  14.227   2.191
73027SOL    HW120913   9.278  14.230   2.116
73027SOL    HW220914   9.280  14.228   2.267
73028SOL     OW20915   6.574  12.055  13.885
73028SOL    HW120916   6.666  12.080  13.894
73028SOL    HW220917   6.572  11.997  13.809
73029SOL     OW20918   8.361   7.891   9.445
73029SOL    HW120919   8.427   7.906   9.513
73029SOL    HW220920   8.398   7.822   9.391
73030SOL     OW20921  10.086  12.811  11.099
73030SOL    HW120922  10.012  12.831  11.042
73030SOL    HW220923  10.072  12.865  11.177
73031SOL     OW20924   8.643   6.643   8.320
73031SOL    HW120925   8.721   6.592   8.297
73031SOL    HW220926   8.573   6.578   8.327
73032SOL     OW20927   5.591  11.454   2.848
73032SOL    HW120928   5.582  11.549   2.842
73032SOL    HW220929   5.596  11.425   2.756
73033SOL     OW20930   1.477   4.262   7.341
73033SOL    HW120931   1.479   4.271   7.436
73033SOL    HW220932   1.398   4.210   7.324
73034SOL     OW20933  14.538   8.555   0.422
73034SOL    HW120934  14.479   8.509   0.483
73034SOL    HW220935  14.562   8.635   0.468
73035SOL     OW20936   2.633   7.833   1.109
73035SOL    HW120937   2.586   7.751   1.091
73035SOL    HW220938   2.569   7.902   1.090
73036SOL     OW20939   1.561   3.640   3.418
73036SOL    HW120940   1.606   3.668   3.497
73036SOL    HW220941   1.624   3.584   3.373
73037SOL     OW20942   8.679   9.284   3.842
73037SOL    HW120943   8.666   9.378   3.840
73037SOL    HW220944   8.731   9.268   3.921
73038SOL     OW20945  11.346   7.772   8.169
73038SOL    HW120946  11.308   7.684   8.169
73038SOL    HW220947  11.309   7.814   8.247
73039SOL     OW20948   8.204  13.507   6.737
73039SOL    HW120949   8.253  13.473   6.811
73039SOL    HW220950   8.179  13.596   6.763
73040SOL     OW20951  14.149   4.955  11.486
73040SOL    HW120952  14.237   4.941  11.448
73040SOL    HW220953  14.122   5.040  11.453
73041SOL     OW20954   9.804   3.962   6.872
73041SOL    HW120955   9.805   3.866   6.866
73041SOL    HW220956   9.763   3.980   6.956
73042SOL     OW20957  14.430   3.098  11.500
73042SOL    HW120958  14.452   3.178  11.451
73042SOL    HW220959  14.493   3.033  11.469
73043SOL     OW20960   0.174   8.341  14.140
73043SOL    HW120961   0.268   8.349  14.158
73043SOL    HW220962   0.140   8.430  14.149
73044SOL     OW20963   5.251  11.937  10.816
73044SOL    HW120964   5.160  11.950  10.842
73044SOL    HW220965   5.248  11.865  10.753
73045SOL     OW20966   9.492   0.938   4.148
73045SOL    HW120967   9.419   0.910   4.204
73045SOL    HW220968   9.569   0.900   4.188
73046SOL     OW20969   8.463  11.924   4.949
73046SOL    HW120970   8.402  11.972   5.006
73046SOL    HW220971   8.411  11.904   4.871
73047SOL     OW20972  11.216  12.857   8.235
73047SOL    HW120973  11.217  12.862   8.140
73047SOL    HW220974  11.125  12.841   8.258
73048SOL     OW20975   9.004   7.544   9.914
73048SOL    HW120976   9.089   7.501   9.904
73048SOL    HW220977   8.943   7.473   9.933
73049SOL     OW20978  12.545  14.100  13.608
73049SOL    HW120979  12.477  14.163  13.583
73049SOL    HW220980  12.599  14.091  13.530
73050SOL     OW20981  10.673  12.801  10.444
73050SOL    HW120982  10.657  12.822  10.536
73050SOL    HW220983  10.738  12.731  10.446
73051SOL     OW20984   0.556   7.814  13.470
73051SOL    HW120985   0.563   7.834  13.564
73051SOL    HW220986   0.646   7.798  13.442
73052SOL     OW20987   2.681   1.861   4.666
73052SOL    HW120988   2.613   1.828   4.607
73052SOL    HW220989   2.763   1.831   4.628
73053SOL     OW20990   6.427  10.996  10.596
73053SOL    HW120991   6.423  11.059  10.667
73053SOL    HW220992   6.521  10.983  10.581
73054SOL     OW20993   1.103  14.860   2.667
73054SOL    HW120994   1.118  14.863   2.762
73054SOL    HW220995   1.054   0.063   2.648
73055SOL     OW20996   0.014   1.359   8.359
73055SOL    HW120997   0.103   1.388   8.337
73055SOL    HW220998  14.869   1.403   8.441
73056SOL     OW20999  10.816  13.592  11.392
73056SOL    HW121000  10.886  13.654  11.412
73056SOL    HW221001  10.738  13.629  11.435
73057SOL     OW21002   3.517  11.697   5.243
73057SOL    HW121003   3.512  11.749   5.164
73057SOL    HW221004   3.457  11.624   5.229
73058SOL     OW21005  12.841   5.372   3.080
73058SOL    HW121006  12.777   5.377   3.151
73058SOL    HW221007  12.926   5.370   3.125
73059SOL     OW21008  12.296  11.084   2.086
73059SOL    HW121009  12.278  11.071   2.179
73059SOL    HW221010  12.218  11.051   2.042
73060SOL     OW21011  13.596   2.949   0.212
73060SOL    HW121012  13.524   2.940   0.274
73060SOL    HW221013  13.674   2.957   0.267
73061SOL     OW21014   1.905  14.595   8.745
73061SOL    HW121015   1.817  14.560   8.749
73061SOL    HW221016   1.905  14.668   8.808
73062SOL     OW21017   3.835  10.496   4.738
73062SOL    HW121018   3.911  10.546   4.766
73062SOL    HW221019   3.806  10.450   4.816
73063SOL     OW21020   7.333   1.101   8.573
73063SOL    HW121021   7.354   1.152   8.495
73063SOL    HW221022   7.394   1.026   8.570
73064SOL     OW21023   0.568   5.318  14.274
73064SOL    HW121024   0.565   5.403  14.230
73064SOL    HW221025   0.653   5.282  14.249
73065SOL     OW21026   0.773   1.386   0.692
73065SOL    HW121027   0.859   1.376   0.731
73065SOL    HW221028   0.773   1.474   0.655
73066SOL     OW21029   6.311   1.673   8.465
73066SOL    HW121030   6.363   1.742   8.424
73066SOL    HW221031   6.328   1.682   8.559
73067SOL     OW21032  10.222  14.299   3.279
73067SOL    HW121033  10.246  14.391   3.289
73067SOL    HW221034  10.227  14.262   3.367
73068SOL     OW21035  10.150   6.274  13.006
73068SOL    HW121036  10.123   6.359  13.041
73068SOL    HW221037  10.069   6.234  12.975
73069SOL     OW21038   8.721  12.303  14.661
73069SOL    HW121039   8.771  12.384  14.661
73069SOL    HW221040   8.781  12.238  14.699
73070SOL     OW21041  13.897   4.894   7.819
73070SOL    HW121042  13.841   4.969   7.839
73070SOL    HW221043  13.867   4.825   7.879
73071SOL     OW21044  14.334   6.913   6.169
73071SOL    HW121045  14.351   6.984   6.108
73071SOL    HW221046  14.419   6.871   6.183
73072SOL     OW21047   0.665   1.179   4.949
73072SOL    HW121048   0.728   1.127   5.000
73072SOL    HW221049   0.699   1.175   4.860
73073SOL     OW21050  11.704   2.964  13.627
73073SOL    HW121051  11.796   2.977  13.652
73073SOL    HW221052  11.674   3.051  13.602
73074SOL     OW21053  10.019   5.670  11.489
73074SOL    HW121054   9.926   5.669  11.512
73074SOL    HW221055  10.064   5.649  11.570
73075SOL     OW21056   5.867   5.396  11.883
73075SOL    HW121057   5.877   5.402  11.788
73075SOL    HW221058   5.785   5.443  11.902
73076SOL     OW21059   6.170  12.228   4.521
73076SOL    HW121060   6.110  12.270   4.582
73076SOL    HW221061   6.255  12.267   4.540
73077SOL     OW21062  14.814   3.276  10.602
73077SOL    HW121063  14.738   3.226  10.569
73077SOL    HW221064   0.011   3.215  10.594
73078SOL     OW21065   3.827  14.050  11.905
73078SOL    HW121066   3.922  14.055  11.906
73078SOL    HW221067   3.799  14.106  11.978
73079SOL     OW21068   2.319  10.998   7.738
73079SOL    HW121069   2.233  10.981   7.777
73079SOL    HW221070   2.368  11.041   7.809
73080SOL     OW21071   2.256  14.549   2.731
73080SOL    HW121072   2.224  14.481   2.790
73080SOL    HW221073   2.190  14.619   2.736
73081SOL     OW21074   0.125   4.143   0.739
73081SOL    HW121075   0.090   4.174   0.822
73081SOL    HW221076   0.161   4.221   0.697
73082SOL     OW21077   1.232  12.747   2.436
73082SOL    HW121078   1.291  12.674   2.454
73082SOL    HW221079   1.214  12.740   2.342
73083SOL     OW21080  12.045   8.149   8.598
73083SOL    HW121081  12.121   8.162   8.541
73083SOL    HW221082  12.044   8.055   8.616
73084SOL     OW21083  10.472  11.260   9.033
73084SOL    HW121084  10.525  11.195   9.078
73084SOL    HW221085  10.408  11.288   9.097
73085SOL     OW21086  13.044   8.242   9.427
73085SOL    HW121087  13.082   8.318   9.471
73085SOL    HW221088  13.077   8.167   9.476
73086SOL     OW21089   3.514  13.473   2.768
73086SOL    HW121090   3.540  13.564   2.754
73086SOL    HW221091   3.545  13.426   2.691
73087SOL     OW21092  10.531   6.456   3.160
73087SOL    HW121093  10.610   6.495   3.121
73087SOL    HW221094  10.469   6.529   3.167
73088SOL     OW21095  10.605   5.872   1.313
73088SOL    HW121096  10.671   5.810   1.343
73088SOL    HW221097  10.634   5.957   1.347
73089SOL     OW21098   2.806  13.641  11.630
73089SOL    HW121099   2.794  13.618  11.538
73089SOL    HW221100   2.810  13.736  11.632
73090SOL     OW21101   4.888  10.138   1.734
73090SOL    HW121102   4.830  10.077   1.779
73090SOL    HW221103   4.838  10.219   1.728
73091SOL     OW21104   7.951   9.916  13.493
73091SOL    HW121105   7.896   9.915  13.572
73091SOL    HW221106   8.040   9.919  13.526
73092SOL     OW21107   7.824   7.711   2.103
73092SOL    HW121108   7.745   7.765   2.093
73092SOL    HW221109   7.817   7.675   2.191
73093SOL     OW21110  13.038   2.381   4.388
73093SOL    HW121111  13.131   2.359   4.386
73093SOL    HW221112  13.036   2.471   4.419
73094SOL     OW21113   8.942   8.180  12.689
73094SOL    HW121114   8.972   8.108  12.633
73094SOL    HW221115   9.022   8.219  12.723
73095SOL     OW21116   5.713   4.753  12.523
73095SOL    HW121117   5.622   4.730  12.538
73095SOL    HW221118   5.758   4.669  12.513
73096SOL     OW21119   9.090  11.936   0.219
73096SOL    HW121120   9.060  12.019   0.180
73096SOL    HW221121   9.010  11.892   0.247
73097SOL     OW21122   0.110  10.792   8.731
73097SOL    HW121123   0.135  10.788   8.823
73097SOL    HW221124   0.027  10.840   8.731
73098SOL     OW21125   1.921   1.105   7.266
73098SOL    HW121126   1.888   1.087   7.178
73098SOL    HW221127   1.913   1.200   7.275
73099SOL     OW21128   8.559   8.432   7.774
73099SOL    HW121129   8.603   8.502   7.822
73099SOL    HW221130   8.503   8.478   7.711
73100SOL     OW21131   8.783   8.726  13.753
73100SOL    HW121132   8.728   8.688  13.685
73100SOL    HW221133   8.779   8.663  13.826
73101SOL     OW21134   9.591  11.048  11.034
73101SOL    HW121135   9.661  11.113  11.037
73101SOL    HW221136   9.545  11.065  10.952
73102SOL     OW21137  14.447   3.527   2.967
73102SOL    HW121138  14.426   3.575   3.048
73102SOL    HW221139  14.436   3.592   2.898
73103SOL     OW21140   3.445   2.740  12.061
73103SOL    HW121141   3.535   2.723  12.033
73103SOL    HW221142   3.423   2.665  12.116
73104SOL     OW21143  10.487   1.846  13.154
73104SOL    HW121144  10.474   1.760  13.113
73104SOL    HW221145  10.399   1.873  13.180
73105SOL     OW21146   8.634  10.256  10.727
73105SOL    HW121147   8.690  10.319  10.773
73105SOL    HW221148   8.637  10.177  10.780
73106SOL     OW21149   2.530  13.146   6.653
73106SOL    HW121150   2.577  13.125   6.573
73106SOL    HW221151   2.568  13.229   6.682
73107SOL     OW21152  10.861  13.840  14.400
73107SOL    HW121153  10.822  13.838  14.313
73107SOL    HW221154  10.883  13.932  14.414
73108SOL     OW21155   0.448  12.214   5.987
73108SOL    HW121156   0.455  12.286   5.924
73108SOL    HW221157   0.380  12.157   5.951
73109SOL     OW21158   7.778  11.028  12.897
73109SOL    HW121159   7.801  10.939  12.869
73109SOL    HW221160   7.792  11.027  12.992
73110SOL     OW21161  14.444  13.584   5.877
73110SOL    HW121162  14.413  13.662   5.831
73110SOL    HW221163  14.388  13.577   5.954
73111SOL     OW21164   7.659   8.384  10.640
73111SOL    HW121165   7.639   8.309  10.583
73111SOL    HW221166   7.644   8.460  10.584
73112SOL     OW21167   1.345   4.900  12.120
73112SOL    HW121168   1.257   4.936  12.132
73112SOL    HW221169   1.341   4.812  12.159
73113SOL     OW21170  14.756   3.864   8.714
73113SOL    HW121171  14.814   3.878   8.789
73113SOL    HW221172  14.758   3.770   8.699
73114SOL     OW21173   8.647  13.353   9.403
73114SOL    HW121174   8.652  13.416   9.330
73114SOL    HW221175   8.715  13.383   9.464
73115SOL     OW21176   6.809   1.854   9.029
73115SOL    HW121177   6.792   1.808   9.111
73115SOL    HW221178   6.816   1.946   9.055
73116SOL     OW21179  12.307  10.591   0.909
73116SOL    HW121180  12.229  10.555   0.866
73116SOL    HW221181  12.335  10.522   0.969
73117SOL     OW21182   7.500  10.078   5.402
73117SOL    HW121183   7.499  10.087   5.498
73117SOL    HW221184   7.408  10.063   5.379
73118SOL     OW21185   6.758   1.889   5.820
73118SOL    HW121186   6.663   1.891   5.809
73118SOL    HW221187   6.771   1.910   5.912
73119SOL     OW21188   7.516  13.352   5.478
73119SOL    HW121189   7.548  13.418   5.417
73119SOL    HW221190   7.595  13.316   5.519
73120SOL     OW21191   1.049   4.765  12.127
73120SOL    HW121192   1.128   4.710  12.127
73120SOL    HW221193   0.977   4.702  12.130
73121SOL     OW21194   8.435   9.117  10.715
73121SOL    HW121195   8.448   9.025  10.690
73121SOL    HW221196   8.523   9.150  10.730
73122SOL     OW21197   7.124  11.419   6.417
73122SOL    HW121198   7.196  11.368   6.452
73122SOL    HW221199   7.096  11.372   6.339
73123SOL     OW21200   8.303   1.031   4.407
73123SOL    HW121201   8.209   1.046   4.400
73123SOL    HW221202   8.340   1.080   4.333
73124SOL     OW21203   9.439  13.417   8.289
73124SOL    HW121204   9.414  13.344   8.232
73124SOL    HW221205   9.419  13.386   8.377
73125SOL     OW21206   9.126  13.940   4.839
73125SOL    HW121207   9.087  13.890   4.910
73125SOL    HW221208   9.206  13.892   4.816
73126SOL     OW21209   7.896   2.329  12.640
73126SOL    HW121210   7.934   2.247  12.611
73126SOL    HW221211   7.806   2.307  12.665
73127SOL     OW21212   1.312   9.187   2.189
73127SOL    HW121213   1.221   9.183   2.220
73127SOL    HW221214   1.326   9.279   2.169
73128SOL     OW21215  13.866  10.509   4.165
73128SOL    HW121216  13.783  10.468   4.142
73128SOL    HW221217  13.869  10.506   4.261
73129SOL     OW21218   4.575  13.918  10.334
73129SOL    HW121219   4.543  14.006  10.314
73129SOL    HW221220   4.506  13.860  10.300
73130SOL     OW21221   2.888  10.395   9.230
73130SOL    HW121222   2.814  10.404   9.290
73130SOL    HW221223   2.960  10.366   9.285
73131SOL     OW21224   8.784   6.135   4.696
73131SOL    HW121225   8.801   6.179   4.612
73131SOL    HW221226   8.701   6.090   4.683
73132SOL     OW21227  14.330  14.800   3.537
73132SOL    HW121228  14.330  14.859   3.462
73132SOL    HW221229  14.285  14.849   3.606
73133SOL     OW21230  11.340   2.320   6.182
73133SOL    HW121231  11.378   2.283   6.262
73133SOL    HW221232  11.251   2.344   6.207
73134SOL     OW21233  12.561   3.203   6.745
73134SOL    HW121234  12.574   3.182   6.837
73134SOL    HW221235  12.466   3.205   6.734
73135SOL     OW21236   7.134  12.941   1.079
73135SOL    HW121237   7.222  12.911   1.102
73135SOL    HW221238   7.132  12.940   0.983
73136SOL     OW21239   6.649   1.204   1.094
73136SOL    HW121240   6.647   1.112   1.120
73136SOL    HW221241   6.581   1.245   1.148
73137SOL     OW21242  13.177  12.390   6.894
73137SOL    HW121243  13.090  12.417   6.923
73137SOL    HW221244  13.207  12.461   6.837
73138SOL     OW21245   1.291  14.343   4.160
73138SOL    HW121246   1.316  14.393   4.238
73138SOL    HW221247   1.216  14.390   4.125
73139SOL     OW21248  11.456  14.380   0.333
73139SOL    HW121249  11.448  14.421   0.419
73139SOL    HW221250  11.369  14.345   0.314
73140SOL     OW21251   7.677  10.155  10.005
73140SOL    HW121252   7.656  10.143   9.913
73140SOL    HW221253   7.764  10.116  10.016
73141SOL     OW21254  10.091   0.927  10.179
73141SOL    HW121255  10.024   0.889  10.235
73141SOL    HW221256  10.154   0.856  10.165
73142SOL     OW21257   7.148   5.964   1.377
73142SOL    HW121258   7.077   5.962   1.313
73142SOL    HW221259   7.144   6.051   1.416
73143SOL     OW21260   2.480   2.822  14.263
73143SOL    HW121261   2.493   2.885  14.192
73143SOL    HW221262   2.548   2.843  14.327
73144SOL     OW21263   9.844   5.514   2.632
73144SOL    HW121264   9.849   5.574   2.706
73144SOL    HW221265   9.791   5.561   2.567
73145SOL     OW21266  10.381  11.258  13.991
73145SOL    HW121267  10.451  11.214  13.942
73145SOL    HW221268  10.327  11.186  14.024
73146SOL     OW21269   8.493   2.006   8.125
73146SOL    HW121270   8.443   1.976   8.049
73146SOL    HW221271   8.468   2.097   8.136
73147SOL     OW21272   9.748   3.805  13.526
73147SOL    HW121273   9.661   3.844  13.536
73147SOL    HW221274   9.759   3.796  13.431
73148SOL     OW21275   4.532   4.272   7.055
73148SOL    HW121276   4.517   4.334   7.127
73148SOL    HW221277   4.560   4.327   6.982
73149SOL     OW21278   6.561   0.159  11.144
73149SOL    HW121279   6.475   0.163  11.185
73149SOL    HW221280   6.600   0.078  11.178
73150SOL     OW21281   8.146   8.637   3.070
73150SOL    HW121282   8.157   8.608   3.161
73150SOL    HW221283   8.203   8.714   3.063
73151SOL     OW21284   8.470   4.939   2.007
73151SOL    HW121285   8.493   5.025   2.042
73151SOL    HW221286   8.550   4.887   2.020
73152SOL     OW21287   2.033  11.870   8.486
73152SOL    HW121288   1.995  11.934   8.427
73152SOL    HW221289   2.079  11.808   8.429
73153SOL     OW21290   5.873   5.564   7.156
73153SOL    HW121291   5.801   5.513   7.193
73153SOL    HW221292   5.841   5.592   7.070
73154SOL     OW21293   3.484  13.333  10.553
73154SOL    HW121294   3.570  13.371  10.533
73154SOL    HW221295   3.476  13.260  10.492
73155SOL     OW21296   7.487   2.611  13.620
73155SOL    HW121297   7.536   2.620  13.702
73155SOL    HW221298   7.416   2.674  13.627
73156SOL     OW21299   9.945  11.777   0.239
73156SOL    HW121300   9.863  11.727   0.248
73156SOL    HW221301   9.918  11.868   0.252
73157SOL     OW21302   4.142   2.766  11.036
73157SOL    HW121303   4.074   2.783  10.971
73157SOL    HW221304   4.104   2.793  11.119
73158SOL     OW21305  11.772  13.979  11.767
73158SOL    HW121306  11.764  13.884  11.773
73158SOL    HW221307  11.685  14.010  11.744
73159SOL     OW21308   8.061  13.725   6.862
73159SOL    HW121309   8.065  13.701   6.955
73159SOL    HW221310   8.140  13.778   6.848
73160SOL     OW21311   8.545   3.111   0.876
73160SOL    HW121312   8.482   3.123   0.947
73160SOL    HW221313   8.494   3.068   0.806
73161SOL     OW21314   2.407   8.092  12.467
73161SOL    HW121315   2.404   8.007  12.423
73161SOL    HW221316   2.317   8.106  12.498
73162SOL     OW21317   0.712   3.946  12.714
73162SOL    HW121318   0.777   4.004  12.752
73162SOL    HW221319   0.732   3.945  12.620
73163SOL     OW21320   2.999   3.586   7.740
73163SOL    HW121321   3.073   3.615   7.686
73163SOL    HW221322   2.944   3.665   7.749
73164SOL     OW21323   1.402   7.387   8.530
73164SOL    HW121324   1.472   7.329   8.559
73164SOL    HW221325   1.333   7.329   8.500
73165SOL     OW21326   4.014   9.049   7.345
73165SOL    HW121327   4.026   9.141   7.323
73165SOL    HW221328   4.039   9.043   7.437
73166SOL     OW21329   9.178   6.331   1.408
73166SOL    HW121330   9.135   6.255   1.446
73166SOL    HW221331   9.223   6.372   1.482
73167SOL     OW21332   8.789   3.228   2.900
73167SOL    HW121333   8.718   3.218   2.837
73167SOL    HW221334   8.869   3.223   2.847
73168SOL     OW21335   2.278   5.502   4.839
73168SOL    HW121336   2.357   5.469   4.883
73168SOL    HW221337   2.215   5.516   4.910
73169SOL     OW21338   5.668   9.525  14.456
73169SOL    HW121339   5.659   9.504  14.549
73169SOL    HW221340   5.647   9.443  14.411
73170SOL     OW21341   2.751  13.968   1.717
73170SOL    HW121342   2.807  14.000   1.646
73170SOL    HW221343   2.697  13.900   1.676
73171SOL     OW21344  12.891   2.307   0.815
73171SOL    HW121345  12.950   2.299   0.889
73171SOL    HW221346  12.803   2.307   0.853
73172SOL     OW21347   5.996   5.464   9.283
73172SOL    HW121348   6.031   5.552   9.293
73172SOL    HW221349   6.066   5.406   9.313
73173SOL     OW21350   5.398   1.058   2.505
73173SOL    HW121351   5.428   1.135   2.554
73173SOL    HW221352   5.303   1.065   2.505
73174SOL     OW21353  12.277   6.926   6.476
73174SOL    HW121354  12.203   6.971   6.517
73174SOL    HW221355  12.355   6.973   6.510
73175SOL     OW21356   5.387  14.845   1.292
73175SOL    HW121357   5.433  14.872   1.213
73175SOL    HW221358   5.441  14.775   1.329
73176SOL     OW21359  12.395   8.591   4.615
73176SOL    HW121360  12.482   8.626   4.598
73176SOL    HW221361  12.411   8.503   4.650
73177SOL     OW21362   0.563  10.317   7.988
73177SOL    HW121363   0.578  10.404   7.953
73177SOL    HW221364   0.631  10.305   8.054
73178SOL     OW21365   0.418   4.289   3.165
73178SOL    HW121366   0.361   4.346   3.217
73178SOL    HW221367   0.366   4.210   3.151
73179SOL     OW21368  12.553   4.712   3.634
73179SOL    HW121369  12.503   4.694   3.714
73179SOL    HW221370  12.488   4.746   3.572
73180SOL     OW21371   3.506   5.032   4.514
73180SOL    HW121372   3.517   5.066   4.426
73180SOL    HW221373   3.584   4.977   4.528
73181SOL     OW21374   5.715  11.293   6.440
73181SOL    HW121375   5.643  11.356   6.448
73181SOL    HW221376   5.785  11.330   6.494
73182SOL     OW21377   9.494   1.684  12.734
73182SOL    HW121378   9.503   1.688  12.830
73182SOL    HW221379   9.522   1.596  12.711
73183SOL     OW21380   5.205   4.229  13.941
73183SOL    HW121381   5.253   4.297  13.988
73183SOL    HW221382   5.162   4.178  14.009
73184SOL     OW21383   1.774   9.612   2.863
73184SOL    HW121384   1.814   9.527   2.845
73184SOL    HW221385   1.816   9.641   2.945
73185SOL     OW21386   7.184  10.219  13.888
73185SOL    HW121387   7.095  10.235  13.857
73185SOL    HW221388   7.173  10.185  13.977
73186SOL     OW21389   0.360   6.559  12.018
73186SOL    HW121390   0.375   6.590  12.107
73186SOL    HW221391   0.437   6.589  11.969
73187SOL     OW21392  10.757   5.942   6.931
73187SOL    HW121393  10.821   6.002   6.968
73187SOL    HW221394  10.750   5.872   6.996
73188SOL     OW21395   7.296   9.943  13.498
73188SOL    HW121396   7.313   9.982  13.584
73188SOL    HW221397   7.364   9.981  13.441
73189SOL     OW21398   4.020   2.062  13.716
73189SOL    HW121399   3.986   2.085  13.630
73189SOL    HW221400   3.951   2.009  13.756
73190SOL     OW21401   1.111  12.727   5.381
73190SOL    HW121402   1.193  12.739   5.428
73190SOL    HW221403   1.048  12.782   5.427
73191SOL     OW21404   5.183  14.680   9.092
73191SOL    HW121405   5.092  14.675   9.119
73191SOL    HW221406   5.181  14.705   9.000
73192SOL     OW21407   7.094   4.753   8.627
73192SOL    HW121408   7.078   4.660   8.639
73192SOL    HW221409   7.183   4.766   8.661
73193SOL     OW21410   2.334  10.101   0.523
73193SOL    HW121411   2.257  10.060   0.562
73193SOL    HW221412   2.307  10.123   0.434
73194SOL     OW21413  11.444   7.775   7.529
73194SOL    HW121414  11.517   7.837   7.534
73194SOL    HW221415  11.472   7.700   7.582
73195SOL     OW21416   1.730   2.123  12.487
73195SOL    HW121417   1.729   2.040  12.535
73195SOL    HW221418   1.778   2.103  12.406
73196SOL     OW21419  12.092   3.934   5.651
73196SOL    HW121420  12.013   3.955   5.701
73196SOL    HW221421  12.136   3.867   5.703
73197SOL     OW21422   6.571   0.835   4.953
73197SOL    HW121423   6.556   0.761   5.012
73197SOL    HW221424   6.483   0.867   4.934
73198SOL     OW21425   3.720  11.040   1.567
73198SOL    HW121426   3.809  11.049   1.532
73198SOL    HW221427   3.670  11.106   1.519
73199SOL     OW21428   7.928   5.959  10.313
73199SOL    HW121429   7.907   6.050  10.292
73199SOL    HW221430   7.846   5.922  10.346
73200SOL     OW21431   5.268  10.172   9.760
73200SOL    HW121432   5.354  10.150   9.796
73200SOL    HW221433   5.209  10.171   9.836
73201SOL     OW21434  10.071   4.284   1.931
73201SOL    HW121435  10.052   4.377   1.925
73201SOL    HW221436   9.989   4.241   1.907
73202SOL     OW21437   5.589   0.685   9.479
73202SOL    HW121438   5.601   0.742   9.555
73202SOL    HW221439   5.512   0.632   9.499
73203SOL     OW21440  11.085  12.649   1.315
73203SOL    HW121441  11.143  12.643   1.391
73203SOL    HW221442  11.066  12.558   1.292
73204SOL     OW21443  13.701   0.415   4.965
73204SOL    HW121444  13.640   0.382   5.031
73204SOL    HW221445  13.776   0.446   5.016
73205SOL     OW21446   9.800   5.123   4.288
73205SOL    HW121447   9.883   5.170   4.295
73205SOL    HW221448   9.818   5.050   4.228
73206SOL     OW21449  14.846  14.191  11.943
73206SOL    HW121450  14.785  14.163  12.011
73206SOL    HW221451   0.054  14.201  11.988
73207SOL     OW21452   9.770  11.331  12.895
73207SOL    HW121453   9.770  11.288  12.981
73207SOL    HW221454   9.767  11.424  12.916
73208SOL     OW21455   8.892  10.459  12.371
73208SOL    HW121456   8.847  10.494  12.448
73208SOL    HW221457   8.936  10.380  12.403
73209SOL     OW21458  14.481  11.238   9.971
73209SOL    HW121459  14.476  11.258  10.065
73209SOL    HW221460  14.451  11.148   9.964
73210SOL     OW21461  13.004  11.709   2.522
73210SOL    HW121462  13.013  11.680   2.612
73210SOL    HW221463  12.955  11.639   2.479
73211SOL     OW21464   8.241  11.711   4.757
73211SOL    HW121465   8.300  11.646   4.794
73211SOL    HW221466   8.269  11.719   4.665
73212SOL     OW21467   1.812   3.988   7.903
73212SOL    HW121468   1.865   4.008   7.980
73212SOL    HW221469   1.730   4.034   7.918
73213SOL     OW21470   2.365   7.457   7.527
73213SOL    HW121471   2.289   7.511   7.551
73213SOL    HW221472   2.338   7.412   7.447
73214SOL     OW21473   6.689   5.408   9.848
73214SOL    HW121474   6.777   5.428   9.815
73214SOL    HW221475   6.663   5.488   9.894
73215SOL     OW21476  13.616   2.862  13.036
73215SOL    HW121477  13.645   2.857  12.945
73215SOL    HW221478  13.546   2.797  13.044
73216SOL     OW21479   4.014   6.199   6.048
73216SOL    HW121480   4.073   6.248   6.106
73216SOL    HW221481   3.928   6.240   6.062
73217SOL     OW21482   6.120   3.560   1.708
73217SOL    HW121483   6.189   3.625   1.697
73217SOL    HW221484   6.039   3.609   1.703
73218SOL     OW21485  10.954   2.754  14.213
73218SOL    HW121486  10.868   2.792  14.193
73218SOL    HW221487  11.015   2.805  14.159
73219SOL     OW21488  12.225   8.248   8.405
73219SOL    HW121489  12.258   8.330   8.442
73219SOL    HW221490  12.167   8.275   8.334
73220SOL     OW21491  11.821  10.663  13.291
73220SOL    HW121492  11.854  10.679  13.202
73220SOL    HW221493  11.763  10.738  13.308
73221SOL     OW21494  13.048  14.726  11.202
73221SOL    HW121495  13.119  14.680  11.247
73221SOL    HW221496  13.015  14.662  11.139
73222SOL     OW21497   4.010   9.905  14.607
73222SOL    HW121498   3.969   9.866  14.684
73222SOL    HW221499   4.104   9.896  14.623
73223SOL     OW21500   8.579   0.795   9.706
73223SOL    HW121501   8.620   0.811   9.621
73223SOL    HW221502   8.606   0.870   9.760
73224SOL     OW21503  12.937   8.391  12.132
73224SOL    HW121504  12.845   8.395  12.108
73224SOL    HW221505  12.983   8.429  12.057
73225SOL     OW21506   9.405  13.600  14.195
73225SOL    HW121507   9.469  13.590  14.266
73225SOL    HW221508   9.370  13.688  14.208
73226SOL     OW21509  12.462   6.116  13.757
73226SOL    HW121510  12.446   6.190  13.816
73226SOL    HW221511  12.469   6.155  13.670
73227SOL     OW21512   1.518   5.224   8.980
73227SOL    HW121513   1.551   5.146   8.934
73227SOL    HW221514   1.443   5.193   9.029
73228SOL     OW21515   3.296  10.894   1.536
73228SOL    HW121516   3.299  10.866   1.628
73228SOL    HW221517   3.301  10.989   1.540
73229SOL     OW21518  10.344   1.167   8.761
73229SOL    HW121519  10.327   1.084   8.716
73229SOL    HW221520  10.279   1.170   8.831
73230SOL     OW21521  11.141   5.407   8.822
73230SOL    HW121522  11.105   5.494   8.805
73230SOL    HW221523  11.102   5.351   8.755
73231SOL     OW21524   0.294   3.755  10.952
73231SOL    HW121525   0.352   3.809  10.897
73231SOL    HW221526   0.207   3.769  10.916
73232SOL     OW21527  11.134   9.406   6.412
73232SOL    HW121528  11.162   9.365   6.494
73232SOL    HW221529  11.164   9.348   6.343
73233SOL     OW21530  11.995   6.258   3.800
73233SOL    HW121531  11.954   6.335   3.762
73233SOL    HW221532  11.928   6.220   3.857
73234SOL     OW21533   2.115   3.251   1.912
73234SOL    HW121534   2.194   3.278   1.959
73234SOL    HW221535   2.145   3.184   1.851
73235SOL     OW21536   2.744   0.573   8.281
73235SOL    HW121537   2.655   0.556   8.252
73235SOL    HW221538   2.772   0.649   8.229
73236SOL     OW21539   8.200   5.524  11.099
73236SOL    HW121540   8.258   5.601  11.102
73236SOL    HW221541   8.132   5.543  11.164
73237SOL     OW21542   1.207   1.867   9.254
73237SOL    HW121543   1.184   1.918   9.332
73237SOL    HW221544   1.245   1.786   9.288
73238SOL     OW21545   9.629  12.354   9.213
73238SOL    HW121546   9.567  12.365   9.286
73238SOL    HW221547   9.575  12.318   9.142
73239SOL     OW21548   8.728   5.515   7.589
73239SOL    HW121549   8.739   5.474   7.503
73239SOL    HW221550   8.649   5.568   7.580
73240SOL     OW21551   4.263   9.417   3.828
73240SOL    HW121552   4.223   9.487   3.776
73240SOL    HW221553   4.357   9.429   3.816
73241SOL     OW21554   3.657   4.414   2.152
73241SOL    HW121555   3.606   4.423   2.233
73241SOL    HW221556   3.689   4.503   2.134
73242SOL     OW21557   3.492  14.723   9.845
73242SOL    HW121558   3.521  14.798   9.897
73242SOL    HW221559   3.398  14.738   9.832
73243SOL     OW21560   6.802  13.117   3.421
73243SOL    HW121561   6.747  13.110   3.343
73243SOL    HW221562   6.740  13.109   3.494
73244SOL     OW21563   0.839   8.186   6.384
73244SOL    HW121564   0.834   8.280   6.365
73244SOL    HW221565   0.864   8.147   6.300
73245SOL     OW21566  11.512  10.358   3.717
73245SOL    HW121567  11.484  10.448   3.704
73245SOL    HW221568  11.553  10.357   3.804
73246SOL     OW21569   5.190  13.648   6.682
73246SOL    HW121570   5.222  13.709   6.748
73246SOL    HW221571   5.107  13.615   6.718
73247SOL     OW21572   2.297   6.053  14.437
73247SOL    HW121573   2.387   6.030  14.457
73247SOL    HW221574   2.245   6.014  14.507
73248SOL     OW21575   7.214  11.022   6.836
73248SOL    HW121576   7.131  11.048   6.875
73248SOL    HW221577   7.209  10.927   6.826
73249SOL     OW21578  14.282   8.222   8.467
73249SOL    HW121579  14.296   8.270   8.549
73249SOL    HW221580  14.195   8.184   8.477
73250SOL     OW21581   6.851   4.283   5.219
73250SOL    HW121582   6.769   4.329   5.236
73250SOL    HW221583   6.825   4.194   5.196
73251SOL     OW21584   2.566   1.717   5.312
73251SOL    HW121585   2.556   1.661   5.388
73251SOL    HW221586   2.550   1.659   5.237
73252SOL     OW21587  11.782   0.191   6.676
73252SOL    HW121588  11.862   0.141   6.657
73252SOL    HW221589  11.787   0.209   6.770
73253SOL     OW21590   2.351  11.876  12.299
73253SOL    HW121591   2.282  11.941  12.302
73253SOL    HW221592   2.308  11.796  12.270
73254SOL     OW21593   0.140   1.374   7.218
73254SOL    HW121594   0.181   1.329   7.292
73254SOL    HW221595   0.171   1.327   7.141
73255SOL     OW21596  13.954   5.624  12.349
73255SOL    HW121597  13.996   5.702  12.312
73255SOL    HW221598  13.987   5.551  12.297
73256SOL     OW21599   3.640   2.080  12.095
73256SOL    HW121600   3.649   2.139  12.019
73256SOL    HW221601   3.684   2.127  12.166
73257SOL     OW21602   4.180  11.538  12.753
73257SOL    HW121603   4.222  11.590  12.684
73257SOL    HW221604   4.251  11.485  12.790
73258SOL     OW21605   9.671   6.649   1.778
73258SOL    HW121606   9.697   6.572   1.828
73258SOL    HW221607   9.656   6.617   1.689
73259SOL     OW21608   9.200   0.090  13.241
73259SOL    HW121609   9.156   0.053  13.318
73259SOL    HW221610   9.192   0.185  13.253
73260SOL     OW21611  14.325  11.239   5.920
73260SOL    HW121612  14.414  11.270   5.910
73260SOL    HW221613  14.271  11.318   5.920
73261SOL     OW21614   3.964   9.312  13.524
73261SOL    HW121615   4.057   9.335  13.521
73261SOL    HW221616   3.947   9.271  13.439
73262SOL     OW21617   6.305   9.570  11.149
73262SOL    HW121618   6.346   9.484  11.154
73262SOL    HW221619   6.223   9.555  11.102
73263SOL     OW21620  14.478   3.645   5.421
73263SOL    HW121621  14.496   3.686   5.337
73263SOL    HW221622  14.487   3.716   5.485
73264SOL     OW21623   3.656   3.808   2.812
73264SOL    HW121624   3.642   3.734   2.754
73264SOL    HW221625   3.668   3.770   2.898
73265SOL     OW21626  13.057   4.118  10.723
73265SOL    HW121627  13.092   4.160  10.645
73265SOL    HW221628  13.132   4.105  10.780
73266SOL     OW21629   8.386   6.567  13.986
73266SOL    HW121630   8.450   6.558  13.915
73266SOL    HW221631   8.387   6.660  14.008
73267SOL     OW21632  11.708  11.491  13.519
73267SOL    HW121633  11.641  11.558  13.502
73267SOL    HW221634  11.735  11.462  13.431
73268SOL     OW21635  12.577  14.098   3.729
73268SOL    HW121636  12.590  14.052   3.646
73268SOL    HW221637  12.608  14.187   3.711
73269SOL     OW21638   4.624  12.493  10.123
73269SOL    HW121639   4.546  12.542  10.097
73269SOL    HW221640   4.698  12.545  10.091
73270SOL     OW21641   5.220   3.837   2.628
73270SOL    HW121642   5.309   3.804   2.618
73270SOL    HW221643   5.191   3.802   2.712
73271SOL     OW21644   6.634   9.613   5.216
73271SOL    HW121645   6.640   9.523   5.246
73271SOL    HW221646   6.591   9.660   5.288
73272SOL     OW21647   5.500   4.641  12.066
73272SOL    HW121648   5.508   4.731  12.034
73272SOL    HW221649   5.524   4.586  11.991
73273SOL     OW21650  12.268   3.569   3.428
73273SOL    HW121651  12.330   3.515   3.476
73273SOL    HW221652  12.314   3.652   3.414
73274SOL     OW21653  10.927  10.419   5.616
73274SOL    HW121654  11.006  10.428   5.669
73274SOL    HW221655  10.950  10.459   5.532
73275SOL     OW21656   2.961   4.601   2.918
73275SOL    HW121657   3.004   4.646   2.990
73275SOL    HW221658   2.947   4.512   2.949
73276SOL     OW21659   6.752  11.452  13.275
73276SOL    HW121660   6.770  11.458  13.181
73276SOL    HW221661   6.833  11.479  13.317
73277SOL     OW21662  12.399  11.821   1.408
73277SOL    HW121663  12.448  11.752   1.453
73277SOL    HW221664  12.314  11.823   1.453
73278SOL     OW21665  10.717   8.700   6.387
73278SOL    HW121666  10.797   8.739   6.422
73278SOL    HW221667  10.646   8.739   6.438
73279SOL     OW21668   4.826  13.522   1.610
73279SOL    HW121669   4.801  13.472   1.688
73279SOL    HW221670   4.780  13.605   1.620
73280SOL     OW21671   8.203  14.780   4.536
73280SOL    HW121672   8.287  14.739   4.556
73280SOL    HW221673   8.210  14.804   4.444
73281SOL     OW21674  11.968   9.793  11.076
73281SOL    HW121675  11.877   9.764  11.068
73281SOL    HW221676  12.020   9.715  11.056
73282SOL     OW21677   5.153   9.873   1.027
73282SOL    HW121678   5.223   9.811   1.011
73282SOL    HW221679   5.095   9.864   0.952
73283SOL     OW21680  12.368   9.026  11.868
73283SOL    HW121681  12.315   9.106  11.870
73283SOL    HW221682  12.441   9.045  11.927
73284SOL     OW21683   0.168   1.979   3.396
73284SOL    HW121684   0.212   1.948   3.475
73284SOL    HW221685   0.229   2.042   3.358
73285SOL     OW21686   5.292   5.120  11.618
73285SOL    HW121687   5.212   5.154  11.578
73285SOL    HW221688   5.306   5.177  11.694
73286SOL     OW21689  12.406   8.943  13.860
73286SOL    HW121690  12.422   9.037  13.849
73286SOL    HW221691  12.494   8.904  13.858
73287SOL     OW21692  11.986   0.592   0.839
73287SOL    HW121693  12.039   0.624   0.912
73287SOL    HW221694  12.038   0.608   0.761
73288SOL     OW21695   1.325   8.465   2.987
73288SOL    HW121696   1.300   8.384   2.943
73288SOL    HW221697   1.262   8.530   2.953
73289SOL     OW21698  11.457   7.683   9.248
73289SOL    HW121699  11.484   7.771   9.274
73289SOL    HW221700  11.536   7.644   9.209
73290SOL     OW21701  10.234  10.349   8.800
73290SOL    HW121702  10.170  10.415   8.771
73290SOL    HW221703  10.317  10.377   8.760
73291SOL     OW21704   6.859  12.409   0.861
73291SOL    HW121705   6.858  12.325   0.815
73291SOL    HW221706   6.813  12.469   0.802
73292SOL     OW21707   7.677   9.614  14.648
73292SOL    HW121708   7.635   9.544  14.598
73292SOL    HW221709   7.686   9.579  14.736
73293SOL     OW21710   6.057  13.228   1.906
73293SOL    HW121711   6.016  13.294   1.961
73293SOL    HW221712   5.987  13.199   1.848
73294SOL     OW21713  11.942  11.643  10.257
73294SOL    HW121714  11.891  11.593  10.193
73294SOL    HW221715  11.887  11.720  10.275
73295SOL     OW21716  10.928   4.655   1.306
73295SOL    HW121717  10.925   4.568   1.345
73295SOL    HW221718  11.021   4.671   1.289
73296SOL     OW21719   7.065   2.850  14.781
73296SOL    HW121720   6.988   2.883  14.734
73296SOL    HW221721   7.040   2.762  14.810
73297SOL     OW21722   8.744   3.516  12.699
73297SOL    HW121723   8.753   3.431  12.655
73297SOL    HW221724   8.819   3.566  12.669
73298SOL     OW21725   9.771   7.234   7.006
73298SOL    HW121726   9.711   7.300   7.041
73298SOL    HW221727   9.826   7.209   7.080
73299SOL     OW21728  11.521   0.596   3.969
73299SOL    HW121729  11.510   0.515   4.018
73299SOL    HW221730  11.493   0.665   4.029
73300SOL     OW21731   3.727  12.430   8.591
73300SOL    HW121732   3.662  12.360   8.599
73300SOL    HW221733   3.778  12.425   8.672
73301SOL     OW21734   8.729  14.400   7.928
73301SOL    HW121735   8.684  14.321   7.895
73301SOL    HW221736   8.690  14.415   8.014
73302SOL     OW21737   6.640  10.282   4.020
73302SOL    HW121738   6.684  10.366   4.007
73302SOL    HW221739   6.575  10.278   3.950
73303SOL     OW21740  10.753   8.738   6.775
73303SOL    HW121741  10.693   8.692   6.833
73303SOL    HW221742  10.699   8.806   6.735
73304SOL     OW21743  12.895  14.196   1.191
73304SOL    HW121744  12.806  14.224   1.169
73304SOL    HW221745  12.923  14.258   1.258
73305SOL     OW21746   8.702   9.851   4.438
73305SOL    HW121747   8.682   9.760   4.458
73305SOL    HW221748   8.652   9.902   4.502
73306SOL     OW21749   1.482   6.972   7.660
73306SOL    HW121750   1.566   6.997   7.698
73306SOL    HW221751   1.438   7.056   7.643
73307SOL     OW21752   7.073  13.774   5.299
73307SOL    HW121753   7.010  13.703   5.311
73307SOL    HW221754   7.158  13.735   5.318
73308SOL     OW21755   3.003   4.557   2.643
73308SOL    HW121756   2.975   4.583   2.731
73308SOL    HW221757   3.026   4.464   2.653
73309SOL     OW21758   5.432   1.496  12.659
73309SOL    HW121759   5.421   1.543  12.576
73309SOL    HW221760   5.442   1.565  12.724
73310SOL     OW21761   8.988  13.604  11.252
73310SOL    HW121762   8.912  13.552  11.280
73310SOL    HW221763   8.951  13.665  11.188
73311SOL     OW21764   8.939   9.772   1.828
73311SOL    HW121765   8.881   9.833   1.874
73311SOL    HW221766   8.961   9.817   1.747
73312SOL     OW21767   4.278   1.909   5.582
73312SOL    HW121768   4.268   1.820   5.618
73312SOL    HW221769   4.301   1.895   5.490
73313SOL     OW21770   9.989   1.623  12.194
73313SOL    HW121771  10.078   1.658  12.183
73313SOL    HW221772   9.990   1.581  12.280
73314SOL     OW21773   3.968   3.110   6.146
73314SOL    HW121774   3.970   3.148   6.234
73314SOL    HW221775   3.877   3.120   6.118
73315SOL     OW21776   0.818   8.451   8.376
73315SOL    HW121777   0.903   8.428   8.414
73315SOL    HW221778   0.788   8.371   8.334
73316SOL     OW21779  14.683  12.592   2.827
73316SOL    HW121780  14.664  12.669   2.880
73316SOL    HW221781  14.744  12.541   2.880
73317SOL     OW21782   3.111   0.947   4.195
73317SOL    HW121783   3.095   1.023   4.250
73317SOL    HW221784   3.066   0.967   4.113
73318SOL     OW21785   7.073   5.009  10.390
73318SOL    HW121786   7.049   5.031  10.480
73318SOL    HW221787   6.998   5.037  10.338
73319SOL     OW21788   6.129  10.827  10.784
73319SOL    HW121789   6.071  10.876  10.842
73319SOL    HW221790   6.122  10.871  10.700
73320SOL     OW21791  14.084   5.180  11.381
73320SOL    HW121792  14.107   5.231  11.302
73320SOL    HW221793  13.989   5.168  11.375
73321SOL     OW21794   9.386   6.864  13.978
73321SOL    HW121795   9.401   6.770  13.968
73321SOL    HW221796   9.291   6.872  13.984
73322SOL     OW21797   7.189   5.416   7.670
73322SOL    HW121798   7.125   5.412   7.741
73322SOL    HW221799   7.167   5.496   7.623
73323SOL     OW21800  12.788   3.451   9.922
73323SOL    HW121801  12.774   3.361   9.892
73323SOL    HW221802  12.704   3.494   9.910
73324SOL     OW21803  10.334   3.649   9.630
73324SOL    HW121804  10.309   3.644   9.538
73324SOL    HW221805  10.286   3.724   9.664
73325SOL     OW21806   6.814  11.597  11.488
73325SOL    HW121807   6.781  11.594  11.399
73325SOL    HW221808   6.908  11.613  11.479
73326SOL     OW21809   8.832   9.633  12.153
73326SOL    HW121810   8.788   9.553  12.183
73326SOL    HW221811   8.915   9.634  12.201
73327SOL     OW21812   7.639   7.382   4.049
73327SOL    HW121813   7.593   7.338   4.121
73327SOL    HW221814   7.576   7.447   4.017
73328SOL     OW21815   1.885  10.885   0.825
73328SOL    HW121816   1.969  10.930   0.818
73328SOL    HW221817   1.877  10.862   0.918
73329SOL     OW21818  13.420   7.001   2.763
73329SOL    HW121819  13.451   7.067   2.824
73329SOL    HW221820  13.415   6.921   2.815
73330SOL     OW21821   5.005   7.578   5.547
73330SOL    HW121822   5.083   7.631   5.559
73330SOL    HW221823   4.964   7.613   5.468
73331SOL     OW21824   9.472   1.456  11.078
73331SOL    HW121825   9.379   1.468  11.096
73331SOL    HW221826   9.516   1.488  11.156
73332SOL     OW21827   0.100  10.532  13.080
73332SOL    HW121828   0.114  10.523  13.174
73332SOL    HW221829   0.005  10.521  13.069
73333SOL     OW21830   7.136  10.697   9.197
73333SOL    HW121831   7.085  10.637   9.143
73333SOL    HW221832   7.195  10.641   9.247
73334SOL     OW21833   1.744   9.468   3.985
73334SOL    HW121834   1.796   9.390   4.006
73334SOL    HW221835   1.809   9.537   3.971
73335SOL     OW21836  10.680   9.831   3.385
73335SOL    HW121837  10.703   9.924   3.388
73335SOL    HW221838  10.703   9.798   3.472
73336SOL     OW21839   4.208  10.345   7.207
73336SOL    HW121840   4.198  10.372   7.298
73336SOL    HW221841   4.211  10.427   7.157
73337SOL     OW21842   7.694   9.230  12.307
73337SOL    HW121843   7.667   9.146  12.344
73337SOL    HW221844   7.680   9.221  12.213
73338SOL     OW21845  14.180  13.050   6.388
73338SOL    HW121846  14.137  12.999   6.456
73338SOL    HW221847  14.175  12.994   6.310
73339SOL     OW21848  11.310   0.319   9.538
73339SOL    HW121849  11.297   0.382   9.609
73339SOL    HW221850  11.221   0.291   9.515
73340SOL     OW21851   3.215   5.432   5.340
73340SOL    HW121852   3.214   5.370   5.414
73340SOL    HW221853   3.291   5.406   5.288
73341SOL     OW21854   8.068   8.686   0.736
73341SOL    HW121855   8.132   8.657   0.672
73341SOL    HW221856   8.110   8.672   0.821
73342SOL     OW21857   0.748   6.425   8.548
73342SOL    HW121858   0.824   6.393   8.499
73342SOL    HW221859   0.685   6.452   8.481
73343SOL     OW21860   2.418   5.024   0.400
73343SOL    HW121861   2.382   5.112   0.408
73343SOL    HW221862   2.413   4.988   0.489
73344SOL     OW21863  14.721   4.196   8.763
73344SOL    HW121864  14.669   4.198   8.682
73344SOL    HW221865  14.656   4.192   8.833
73345SOL     OW21866   6.807  12.585   5.974
73345SOL    HW121867   6.803  12.618   6.064
73345SOL    HW221868   6.901  12.577   5.955
73346SOL     OW21869   8.275   6.988   5.206
73346SOL    HW121870   8.335   6.984   5.131
73346SOL    HW221871   8.188   6.976   5.168
73347SOL     OW21872   5.629   8.631   3.916
73347SOL    HW121873   5.646   8.717   3.879
73347SOL    HW221874   5.652   8.639   4.008
73348SOL     OW21875  10.844  12.578  11.511
73348SOL    HW121876  10.773  12.536  11.462
73348SOL    HW221877  10.810  12.585  11.601
73349SOL     OW21878   0.173   8.607  13.165
73349SOL    HW121879   0.103   8.546  13.141
73349SOL    HW221880   0.249   8.577  13.115
73350SOL     OW21881   3.514  10.812   8.655
73350SOL    HW121882   3.488  10.745   8.591
73350SOL    HW221883   3.479  10.894   8.619
73351SOL     OW21884   7.936   9.288   7.604
73351SOL    HW121885   7.867   9.228   7.575
73351SOL    HW221886   8.007   9.276   7.541
73352SOL     OW21887   4.434   7.084   7.856
73352SOL    HW121888   4.491   7.098   7.932
73352SOL    HW221889   4.432   7.169   7.812
73353SOL     OW21890   2.215   2.933   9.202
73353SOL    HW121891   2.198   2.848   9.243
73353SOL    HW221892   2.263   2.982   9.269
73354SOL     OW21893   8.141   4.602   3.572
73354SOL    HW121894   8.168   4.687   3.537
73354SOL    HW221895   8.223   4.554   3.584
73355SOL     OW21896   4.330   5.568  13.184
73355SOL    HW121897   4.263   5.500  13.190
73355SOL    HW221898   4.413   5.520  13.189
73356SOL     OW21899  13.618  13.424   0.718
73356SOL    HW121900  13.697  13.376   0.693
73356SOL    HW221901  13.579  13.370   0.788
73357SOL     OW21902   2.196   6.639   5.726
73357SOL    HW121903   2.177   6.548   5.749
73357SOL    HW221904   2.248   6.633   5.646
73358SOL     OW21905   4.365  11.528   1.291
73358SOL    HW121906   4.460  11.519   1.296
73358SOL    HW221907   4.349  11.562   1.203
73359SOL     OW21908  10.789   8.066  12.971
73359SOL    HW121909  10.802   8.072  13.065
73359SOL    HW221910  10.734   7.989  12.958
73360SOL     OW21911   7.742   1.280   8.326
73360SOL    HW121912   7.703   1.198   8.357
73360SOL    HW221913   7.819   1.254   8.276
73361SOL     OW21914  14.600   1.898  10.113
73361SOL    HW121915  14.515   1.853  10.107
73361SOL    HW221916  14.577   1.990  10.122
73362SOL     OW21917  10.994  13.431   8.236
73362SOL    HW121918  11.053  13.491   8.282
73362SOL    HW221919  10.925  13.412   8.299
73363SOL     OW21920   0.845   3.369  11.713
73363SOL    HW121921   0.881   3.444  11.760
73363SOL    HW221922   0.809   3.406  11.632
73364SOL     OW21923   6.211  13.664  11.976
73364SOL    HW121924   6.250  13.716  11.906
73364SOL    HW221925   6.255  13.694  12.055
73365SOL     OW21926   8.434   5.313   2.843
73365SOL    HW121927   8.507   5.272   2.889
73365SOL    HW221928   8.360   5.254   2.856
73366SOL     OW21929  14.839   2.647   3.049
73366SOL    HW121930  14.787   2.570   3.067
73366SOL    HW221931   0.025   2.620   2.981
73367SOL     OW21932   7.261  12.061   9.484
73367SOL    HW121933   7.272  12.143   9.533
73367SOL    HW221934   7.302  12.079   9.399
73368SOL     OW21935  12.450   6.003   3.873
73368SOL    HW121936  12.544   6.016   3.855
73368SOL    HW221937  12.417   6.091   3.891
73369SOL     OW21938   0.964   3.788   1.550
73369SOL    HW121939   0.969   3.734   1.471
73369SOL    HW221940   1.052   3.784   1.588
73370SOL     OW21941  12.322   3.637   2.660
73370SOL    HW121942  12.374   3.666   2.585
73370SOL    HW221943  12.387   3.609   2.724
73371SOL     OW21944   3.105   7.474   8.273
73371SOL    HW121945   3.116   7.494   8.366
73371SOL    HW221946   3.044   7.541   8.241
73372SOL     OW21947   2.636   4.508   5.471
73372SOL    HW121948   2.668   4.431   5.424
73372SOL    HW221949   2.713   4.544   5.515
73373SOL     OW21950   6.016   6.272   2.803
73373SOL    HW121951   5.943   6.210   2.795
73373SOL    HW221952   5.982   6.353   2.765
73374SOL     OW21953  11.979  14.747   6.980
73374SOL    HW121954  11.910  14.719   7.041
73374SOL    HW221955  12.030  14.667   6.965
73375SOL     OW21956  10.305   6.542   8.626
73375SOL    HW121957  10.331   6.591   8.704
73375SOL    HW221958  10.229   6.590   8.592
73376SOL     OW21959  11.387   2.079  14.523
73376SOL    HW121960  11.469   2.122  14.498
73376SOL    HW221961  11.374   2.101  14.615
73377SOL     OW21962  10.157   1.077   9.935
73377SOL    HW121963  10.182   1.002   9.882
73377SOL    HW221964  10.180   1.051  10.025
73378SOL     OW21965   4.072  14.101   0.931
73378SOL    HW121966   4.015  14.164   0.886
73378SOL    HW221967   4.021  14.020   0.934
73379SOL     OW21968   2.145   2.681   0.091
73379SOL    HW121969   2.168   2.673   0.184
73379SOL    HW221970   2.155   2.775   0.073
73380SOL     OW21971   4.446   0.242  10.784
73380SOL    HW121972   4.535   0.237  10.819
73380SOL    HW221973   4.415   0.328  10.811
73381SOL     OW21974   5.389   3.454  11.844
73381SOL    HW121975   5.438   3.521  11.795
73381SOL    HW221976   5.301   3.455  11.805
73382SOL     OW21977   0.761   3.944   8.284
73382SOL    HW121978   0.668   3.959   8.304
73382SOL    HW221979   0.783   3.865   8.334
73383SOL     OW21980   3.724  10.410   2.856
73383SOL    HW121981   3.819  10.403   2.871
73383SOL    HW221982   3.715  10.489   2.802
73384SOL     OW21983  11.569  14.853   6.723
73384SOL    HW121984  11.562  14.813   6.636
73384SOL    HW221985  11.619   0.058   6.709
73385SOL     OW21986   9.660   3.925  12.332
73385SOL    HW121987   9.688   4.009  12.367
73385SOL    HW221988   9.741   3.874  12.326
73386SOL     OW21989  10.298  11.151   2.970
73386SOL    HW121990  10.236  11.153   2.897
73386SOL    HW221991  10.375  11.197   2.938
73387SOL     OW21992   2.987  14.869  14.286
73387SOL    HW121993   2.962   0.082  14.258
73387SOL    HW221994   2.904  14.826  14.307
73388SOL     OW21995  14.811   4.877  11.674
73388SOL    HW121996   0.006   4.914  11.727
73388SOL    HW221997  14.741   4.859  11.736
73389SOL     OW21998   7.771  10.586   8.185
73389SOL    HW121999   7.695  10.529   8.197
73389SOL    HW222000   7.806  10.598   8.274
73390SOL     OW22001   1.839   9.878   4.326
73390SOL    HW122002   1.761   9.922   4.361
73390SOL    HW222003   1.841   9.903   4.234
73391SOL     OW22004  13.815  12.558  13.337
73391SOL    HW122005  13.816  12.652  13.318
73391SOL    HW222006  13.800  12.516  13.253
73392SOL     OW22007   2.124  10.546   9.419
73392SOL    HW122008   2.077  10.526   9.338
73392SOL    HW222009   2.103  10.473   9.478
73393SOL     OW22010   1.271   1.957  14.299
73393SOL    HW122011   1.182   1.963  14.333
73393SOL    HW222012   1.269   1.882  14.239
73394SOL     OW22013   1.069   8.884   5.084
73394SOL    HW122014   1.116   8.800   5.076
73394SOL    HW222015   1.120   8.945   5.030
73395SOL     OW22016   5.693   8.377  14.853
73395SOL    HW122017   5.730   8.293   0.004
73395SOL    HW222018   5.637   8.357  14.779
73396SOL     OW22019   9.044   0.177   9.973
73396SOL    HW122020   9.111   0.109   9.969
73396SOL    HW222021   8.970   0.134  10.016
73397SOL     OW22022   3.092   9.765  14.854
73397SOL    HW122023   3.173   9.721   0.005
73397SOL    HW222024   3.040   9.696  14.813
73398SOL     OW22025   8.473   0.776   5.268
73398SOL    HW122026   8.396   0.747   5.219
73398SOL    HW222027   8.437   0.826   5.342
73399SOL     OW22028   8.931   0.037  14.304
73399SOL    HW122029   8.977  14.845  14.255
73399SOL    HW222030   8.931   0.005  14.394
73400SOL     OW22031   1.940  10.727   0.509
73400SOL    HW122032   2.001  10.658   0.482
73400SOL    HW222033   1.898  10.693   0.588
73401SOL     OW22034  14.222   7.127  10.926
73401SOL    HW122035  14.242   7.049  10.979
73401SOL    HW222036  14.149   7.100  10.870
73402SOL     OW22037  13.423   8.949   6.259
73402SOL    HW122038  13.454   8.942   6.169
73402SOL    HW222039  13.328   8.949   6.252
73403SOL     OW22040   1.514   6.639  12.514
73403SOL    HW122041   1.588   6.621  12.456
73403SOL    HW222042   1.457   6.563  12.505
73404SOL     OW22043   6.776  14.827  11.378
73404SOL    HW122044   6.765   0.043  11.400
73404SOL    HW222045   6.863  14.822  11.338
73405SOL     OW22046   5.141  10.681  11.500
73405SOL    HW122047   5.064  10.632  11.527
73405SOL    HW222048   5.115  10.725  11.419
73406SOL     OW22049   4.596   7.088   8.835
73406SOL    HW122050   4.661   7.153   8.860
73406SOL    HW222051   4.646   7.008   8.819
73407SOL     OW22052  12.857   7.672  10.646
73407SOL    HW122053  12.836   7.742  10.708
73407SOL    HW222054  12.772   7.650  10.606
73408SOL     OW22055   1.532  10.880   1.399
73408SOL    HW122056   1.522  10.791   1.435
73408SOL    HW222057   1.607  10.916   1.446
73409SOL     OW22058   7.503   6.499  13.743
73409SOL    HW122059   7.538   6.444  13.673
73409SOL    HW222060   7.539   6.586  13.726
73410SOL     OW22061   1.560   7.049   7.218
73410SOL    HW122062   1.479   7.007   7.247
73410SOL    HW222063   1.592   7.095   7.295
73411SOL     OW22064  13.092  14.180   0.080
73411SOL    HW122065  13.069  14.199   0.172
73411SOL    HW222066  13.014  14.206   0.031
73412SOL     OW22067   4.891   4.088   7.430
73412SOL    HW122068   4.946   4.027   7.479
73412SOL    HW222069   4.892   4.055   7.340
73413SOL     OW22070   7.405   9.240  13.374
73413SOL    HW122071   7.369   9.157  13.341
73413SOL    HW222072   7.329   9.296  13.387
73414SOL     OW22073   6.076   9.716   8.456
73414SOL    HW122074   6.059   9.811   8.461
73414SOL    HW222075   6.031   9.681   8.533
73415SOL     OW22076   7.682   8.941   8.170
73415SOL    HW122077   7.633   8.995   8.108
73415SOL    HW222078   7.630   8.943   8.250
73416SOL     OW22079   2.763   6.985  11.889
73416SOL    HW122080   2.713   7.010  11.966
73416SOL    HW222081   2.853   7.013  11.908
73417SOL     OW22082  11.371   4.226   5.251
73417SOL    HW122083  11.370   4.228   5.155
73417SOL    HW222084  11.424   4.149   5.272
73418SOL     OW22085   1.296   9.505   7.937
73418SOL    HW122086   1.243   9.584   7.934
73418SOL    HW222087   1.315   9.492   8.030
73419SOL     OW22088   7.465   3.603   7.132
73419SOL    HW122089   7.498   3.547   7.062
73419SOL    HW222090   7.464   3.691   7.095
73420SOL     OW22091  11.430   9.361  10.770
73420SOL    HW122092  11.341   9.326  10.775
73420SOL    HW222093  11.440   9.412  10.850
73421SOL     OW22094   2.125  13.141   9.740
73421SOL    HW122095   2.155  13.230   9.756
73421SOL    HW222096   2.188  13.106   9.677
73422SOL     OW22097  11.116  11.828  14.293
73422SOL    HW122098  11.067  11.784  14.224
73422SOL    HW222099  11.067  11.809  14.373
73423SOL     OW22100  12.985   6.567   3.970
73423SOL    HW122101  12.903   6.602   3.936
73423SOL    HW222102  13.016   6.633   4.033
73424SOL     OW22103  14.014   9.632  13.175
73424SOL    HW122104  14.029   9.634  13.081
73424SOL    HW222105  14.031   9.542  13.201
73425SOL     OW22106   0.919   2.116   3.737
73425SOL    HW122107   1.008   2.106   3.704
73425SOL    HW222108   0.908   2.210   3.749
73426SOL     OW22109  10.214   0.664  14.429
73426SOL    HW122110  10.182   0.595  14.371
73426SOL    HW222111  10.185   0.637  14.516
73427SOL     OW22112   0.183   0.843   8.276
73427SOL    HW122113   0.114   0.798   8.227
73427SOL    HW222114   0.140   0.870   8.358
73428SOL     OW22115  10.564   3.601  13.168
73428SOL    HW122116  10.659   3.603  13.181
73428SOL    HW222117  10.543   3.507  13.166
73429SOL     OW22118   6.119   5.100   0.801
73429SOL    HW122119   6.033   5.070   0.829
73429SOL    HW222120   6.166   5.021   0.776
73430SOL     OW22121   2.340  10.194   7.279
73430SOL    HW122122   2.427  10.234   7.278
73430SOL    HW222123   2.284  10.259   7.321
73431SOL     OW22124   0.595   1.901  14.655
73431SOL    HW122125   0.525   1.965  14.646
73431SOL    HW222126   0.676   1.953  14.646
73432SOL     OW22127   3.847  12.550   6.030
73432SOL    HW122128   3.816  12.615   5.967
73432SOL    HW222129   3.898  12.599   6.094
73433SOL     OW22130   2.785   2.914  13.359
73433SOL    HW122131   2.875   2.942  13.375
73433SOL    HW222132   2.732   2.992  13.378
73434SOL     OW22133   4.004  11.078  13.647
73434SOL    HW122134   4.088  11.056  13.606
73434SOL    HW222135   3.976  10.997  13.689
73435SOL     OW22136   1.852  12.710   8.591
73435SOL    HW122137   1.917  12.770   8.555
73435SOL    HW222138   1.838  12.644   8.523
73436SOL     OW22139   9.650  14.192   7.991
73436SOL    HW122140   9.715  14.154   8.051
73436SOL    HW222141   9.677  14.162   7.904
73437SOL     OW22142   9.574   8.825  14.816
73437SOL    HW122143   9.505   8.811   0.005
73437SOL    HW222144   9.532   8.878  14.748
73438SOL     OW22145  14.455   7.601   3.709
73438SOL    HW122146  14.541   7.578   3.745
73438SOL    HW222147  14.429   7.525   3.657
73439SOL     OW22148   7.635  12.859   2.660
73439SOL    HW122149   7.728  12.842   2.670
73439SOL    HW222150   7.593  12.796   2.719
73440SOL     OW22151  14.646   5.474   2.398
73440SOL    HW122152  14.701   5.397   2.384
73440SOL    HW222153  14.671   5.535   2.329
73441SOL     OW22154   0.233   0.981   6.331
73441SOL    HW122155   0.176   0.933   6.391
73441SOL    HW222156   0.225   1.072   6.359
73442SOL     OW22157   2.367   9.497   0.009
73442SOL    HW122158   2.317   9.553   0.067
73442SOL    HW222159   2.433   9.555  14.846
73443SOL     OW22160  11.325   2.101   0.268
73443SOL    HW122161  11.310   2.087   0.362
73443SOL    HW222162  11.418   2.124   0.262
73444SOL     OW22163  12.338  12.013   0.147
73444SOL    HW122164  12.287  11.952   0.094
73444SOL    HW222165  12.406  11.959   0.187
73445SOL     OW22166   4.382   4.650   4.732
73445SOL    HW122167   4.410   4.561   4.714
73445SOL    HW222168   4.403   4.664   4.824
73446SOL     OW22169   7.269   8.349   5.006
73446SOL    HW122170   7.244   8.293   5.079
73446SOL    HW222171   7.251   8.438   5.037
73447SOL     OW22172   1.778  13.207  14.871
73447SOL    HW122173   1.751  13.257  14.794
73447SOL    HW222174   1.763  13.266   0.069
73448SOL     OW22175   1.395  13.744   5.531
73448SOL    HW122176   1.367  13.797   5.457
73448SOL    HW222177   1.330  13.675   5.538
73449SOL     OW22178  10.221   6.770   9.094
73449SOL    HW122179  10.210   6.743   9.185
73449SOL    HW222180  10.141   6.817   9.072
73450SOL     OW22181  12.633   6.059   0.642
73450SOL    HW122182  12.694   6.045   0.715
73450SOL    HW222183  12.672   6.130   0.591
73451SOL     OW22184  13.114   7.457   0.589
73451SOL    HW122185  13.088   7.372   0.554
73451SOL    HW222186  13.205   7.446   0.615
73452SOL     OW22187  11.731   9.081   9.469
73452SOL    HW122188  11.754   9.128   9.389
73452SOL    HW222189  11.680   9.144   9.520
73453SOL     OW22190   9.939   8.952   1.090
73453SOL    HW122191   9.963   9.014   1.158
73453SOL    HW222192   9.903   9.006   1.020
73454SOL     OW22193   6.419   9.827   0.494
73454SOL    HW122194   6.423   9.747   0.443
73454SOL    HW222195   6.350   9.879   0.452
73455SOL     OW22196   4.950   8.054   6.621
73455SOL    HW122197   5.010   8.128   6.609
73455SOL    HW222198   4.997   7.995   6.681
73456SOL     OW22199   2.785  12.468   9.350
73456SOL    HW122200   2.737  12.545   9.379
73456SOL    HW222201   2.722  12.418   9.297
73457SOL     OW22202  11.931   7.658  10.365
73457SOL    HW122203  11.976   7.579  10.396
73457SOL    HW222204  11.943   7.658  10.270
73458SOL     OW22205  14.867   0.253   1.978
73458SOL    HW122206  14.790   0.251   1.922
73458SOL    HW222207   0.032   0.339   1.960
73459SOL     OW22208   7.539  10.785   6.393
73459SOL    HW122209   7.566  10.738   6.315
73459SOL    HW222210   7.464  10.735   6.427
73460SOL     OW22211  11.025   5.396   4.215
73460SOL    HW122212  11.075   5.477   4.211
73460SOL    HW222213  11.084   5.334   4.259
73461SOL     OW22214   4.250  14.866   8.139
73461SOL    HW122215   4.224  14.808   8.067
73461SOL    HW222216   4.214  14.824   8.217
73462SOL     OW22217  13.831   8.992  10.960
73462SOL    HW122218  13.761   8.928  10.974
73462SOL    HW222219  13.832   9.044  11.041
73463SOL     OW22220   8.144   2.943  12.898
73463SOL    HW122221   8.139   2.980  12.810
73463SOL    HW222222   8.054   2.915  12.916
73464SOL     OW22223   0.825   2.446   7.069
73464SOL    HW122224   0.823   2.489   7.155
73464SOL    HW222225   0.747   2.390   7.069
73465SOL     OW22226   7.189   9.610   2.396
73465SOL    HW122227   7.239   9.529   2.387
73465SOL    HW222228   7.255   9.679   2.402
73466SOL     OW22229   7.149   9.330   8.900
73466SOL    HW122230   7.182   9.244   8.925
73466SOL    HW222231   7.172   9.387   8.973
73467SOL     OW22232   4.881   1.131   4.218
73467SOL    HW122233   4.935   1.209   4.202
73467SOL    HW222234   4.827   1.153   4.293
73468SOL     OW22235   8.877  11.674   5.248
73468SOL    HW122236   8.808  11.704   5.188
73468SOL    HW222237   8.829  11.639   5.323
73469SOL     OW22238  11.846   2.510   2.954
73469SOL    HW122239  11.776   2.541   2.897
73469SOL    HW222240  11.883   2.435   2.907
73470SOL     OW22241  10.835   2.709  12.334
73470SOL    HW122242  10.885   2.627  12.335
73470SOL    HW222243  10.779   2.704  12.411
73471SOL     OW22244  12.995   1.172   5.455
73471SOL    HW122245  12.981   1.222   5.535
73471SOL    HW222246  12.927   1.201   5.395
73472SOL     OW22247   2.692   8.360  14.037
73472SOL    HW122248   2.642   8.438  14.061
73472SOL    HW222249   2.775   8.370  14.082
73473SOL     OW22250  13.815   2.706   6.309
73473SOL    HW122251  13.749   2.643   6.283
73473SOL    HW222252  13.880   2.655   6.358
73474SOL     OW22253   6.548  14.852   6.650
73474SOL    HW122254   6.628  14.847   6.703
73474SOL    HW222255   6.495   0.042   6.694
73475SOL     OW22256   8.476   6.960   6.720
73475SOL    HW122257   8.470   6.910   6.638
73475SOL    HW222258   8.421   6.912   6.781
73476SOL     OW22259   3.517   6.647   1.266
73476SOL    HW122260   3.441   6.590   1.262
73476SOL    HW222261   3.520   6.688   1.180
73477SOL     OW22262   8.070   7.917   4.423
73477SOL    HW122263   8.040   7.859   4.352
73477SOL    HW222264   8.037   8.003   4.398
73478SOL     OW22265   7.786   9.209  10.149
73478SOL    HW122266   7.798   9.303  10.158
73478SOL    HW222267   7.722   9.199  10.079
73479SOL     OW22268  12.121   1.811   4.836
73479SOL    HW122269  12.181   1.839   4.766
73479SOL    HW222270  12.132   1.877   4.905
73480SOL     OW22271   6.132   8.852   0.801
73480SOL    HW122272   6.049   8.813   0.828
73480SOL    HW222273   6.193   8.832   0.873
73481SOL     OW22274   1.350   2.462   0.666
73481SOL    HW122275   1.408   2.514   0.611
73481SOL    HW222276   1.348   2.508   0.750
73482SOL     OW22277   4.987   5.932  11.371
73482SOL    HW122278   5.020   6.022  11.367
73482SOL    HW222279   5.019   5.892  11.290
73483SOL     OW22280   9.549  12.825   5.318
73483SOL    HW122281   9.462  12.854   5.290
73483SOL    HW222282   9.594  12.801   5.236
73484SOL     OW22283   4.290  10.634  12.628
73484SOL    HW122284   4.325  10.723  12.636
73484SOL    HW222285   4.222  10.629  12.695
73485SOL     OW22286  11.918   4.246   8.329
73485SOL    HW122287  11.935   4.155   8.353
73485SOL    HW222288  11.917   4.293   8.413
73486SOL     OW22289  14.196  11.527   4.930
73486SOL    HW122290  14.178  11.515   4.837
73486SOL    HW222291  14.224  11.618   4.937
73487SOL     OW22292   0.323   3.525  13.008
73487SOL    HW122293   0.268   3.576  13.068
73487SOL    HW222294   0.405   3.512  13.055
73488SOL     OW22295  12.403   4.770   4.211
73488SOL    HW122296  12.347   4.693   4.223
73488SOL    HW222297  12.352   4.828   4.154
73489SOL     OW22298   7.994   6.829  13.894
73489SOL    HW122299   7.899   6.829  13.911
73489SOL    HW222300   8.014   6.920  13.873
73490SOL     OW22301   6.912   5.019  11.363
73490SOL    HW122302   6.818   5.022  11.383
73490SOL    HW222303   6.952   4.982  11.441
73491SOL     OW22304   1.702  12.792   5.931
73491SOL    HW122305   1.656  12.821   6.009
73491SOL    HW222306   1.773  12.856   5.920
73492SOL     OW22307   0.610  14.232   2.347
73492SOL    HW122308   0.603  14.325   2.370
73492SOL    HW222309   0.695  14.205   2.382
73493SOL     OW22310   1.755  14.512   6.560
73493SOL    HW122311   1.758  14.519   6.656
73493SOL    HW222312   1.809  14.584   6.529
73494SOL     OW22313   0.172   6.717   1.678
73494SOL    HW122314   0.142   6.779   1.745
73494SOL    HW222315   0.259   6.748   1.654
73495SOL     OW22316   5.964   0.549   0.016
73495SOL    HW122317   5.958   0.515   0.105
73495SOL    HW222318   5.970   0.472  14.837
73496SOL     OW22319   1.363   3.295   9.913
73496SOL    HW122320   1.276   3.327   9.893
73496SOL    HW222321   1.422   3.362   9.879
73497SOL     OW22322  10.652   9.662   5.450
73497SOL    HW122323  10.578   9.716   5.477
73497SOL    HW222324  10.710   9.660   5.526
73498SOL     OW22325   6.745  14.571  12.212
73498SOL    HW122326   6.699  14.489  12.193
73498SOL    HW222327   6.771  14.562  12.304
73499SOL     OW22328   4.803   6.331   1.675
73499SOL    HW122329   4.793   6.251   1.624
73499SOL    HW222330   4.717   6.344   1.715
73500SOL     OW22331  11.395  11.979   2.726
73500SOL    HW122332  11.366  12.035   2.798
73500SOL    HW222333  11.317  11.930   2.700
73501SOL     OW22334   8.848   4.720   0.918
73501SOL    HW122335   8.818   4.750   0.832
73501SOL    HW222336   8.817   4.787   0.979
73502SOL     OW22337   1.490  14.463  11.540
73502SOL    HW122338   1.571  14.508  11.519
73502SOL    HW222339   1.510  14.370  11.528
73503SOL     OW22340  12.116   7.321   2.315
73503SOL    HW122341  12.106   7.233   2.280
73503SOL    HW222342  12.039   7.333   2.371
73504SOL     OW22343   1.061  10.641   2.266
73504SOL    HW122344   1.084  10.551   2.289
73504SOL    HW222345   1.143  10.679   2.235
73505SOL     OW22346  14.052  14.738  12.607
73505SOL    HW122347  13.984  14.786  12.654
73505SOL    HW222348  14.054  14.652  12.648
73506SOL     OW22349   0.718   5.739   7.677
73506SOL    HW122350   0.809   5.733   7.651
73506SOL    HW222351   0.670   5.693   7.609
73507SOL     OW22352   8.648  12.576  11.825
73507SOL    HW122353   8.612  12.544  11.742
73507SOL    HW222354   8.661  12.670  11.811
73508SOL     OW22355  11.297  13.115   0.462
73508SOL    HW122356  11.240  13.038   0.455
73508SOL    HW222357  11.380  13.086   0.426
73509SOL     OW22358  10.914   2.517   7.341
73509SOL    HW122359  10.841   2.580   7.346
73509SOL    HW222360  10.913   2.473   7.426
73510SOL     OW22361   1.273   0.046   8.791
73510SOL    HW122362   1.298   0.123   8.739
73510SOL    HW222363   1.355   0.010   8.822
73511SOL     OW22364   5.401  13.521  14.076
73511SOL    HW122365   5.379  13.546  13.986
73511SOL    HW222366   5.337  13.567  14.130
73512SOL     OW22367   4.900   3.131   3.535
73512SOL    HW122368   4.895   3.170   3.622
73512SOL    HW222369   4.970   3.066   3.541
73513SOL     OW22370  10.142   8.304   1.566
73513SOL    HW122371  10.136   8.390   1.607
73513SOL    HW222372  10.234   8.280   1.575
73514SOL     OW22373   4.099  12.089   9.742
73514SOL    HW122374   4.144  12.048   9.816
73514SOL    HW222375   4.093  12.019   9.676
73515SOL     OW22376   7.399   8.203  10.431
73515SOL    HW122377   7.490   8.228  10.417
73515SOL    HW222378   7.382   8.136  10.365
73516SOL     OW22379  14.660  12.681   0.102
73516SOL    HW122380  14.690  12.771   0.110
73516SOL    HW222381  14.728  12.638   0.049
73517SOL     OW22382   5.752  13.365  13.439
73517SOL    HW122383   5.661  13.334  13.444
73517SOL    HW222384   5.767  13.379  13.345
73518SOL     OW22385  12.179   9.077   0.706
73518SOL    HW122386  12.187   9.006   0.643
73518SOL    HW222387  12.088   9.076   0.734
73519SOL     OW22388   7.619   5.016   8.130
73519SOL    HW122389   7.690   5.003   8.193
73519SOL    HW222390   7.620   4.939   8.074
73520SOL     OW22391  14.359   6.988   7.252
73520SOL    HW122392  14.327   6.988   7.162
73520SOL    HW222393  14.283   6.963   7.304
73521SOL     OW22394   4.517  11.829  13.725
73521SOL    HW122395   4.490  11.873  13.644
73521SOL    HW222396   4.435  11.803  13.767
73522SOL     OW22397   0.930   6.447  13.402
73522SOL    HW122398   0.863   6.391  13.441
73522SOL    HW222399   0.943   6.517  13.466
73523SOL     OW22400  14.697  11.011  12.229
73523SOL    HW122401  14.739  11.034  12.146
73523SOL    HW222402  14.603  11.019  12.211
73524SOL     OW22403  11.690   6.591   4.636
73524SOL    HW122404  11.702   6.498   4.655
73524SOL    HW222405  11.624   6.593   4.566
73525SOL     OW22406  14.006   6.171  12.679
73525SOL    HW122407  14.101   6.162  12.686
73525SOL    HW222408  13.971   6.118  12.751
73526SOL     OW22409  12.370   8.540  12.121
73526SOL    HW122410  12.366   8.445  12.109
73526SOL    HW222411  12.365   8.553  12.215
73527SOL     OW22412  12.941   8.922   5.102
73527SOL    HW122413  12.973   8.839   5.068
73527SOL    HW222414  12.879   8.952   5.036
73528SOL     OW22415  11.285  12.405  13.811
73528SOL    HW122416  11.322  12.470  13.871
73528SOL    HW222417  11.284  12.324  13.862
73529SOL     OW22418  14.086   6.844   3.608
73529SOL    HW122419  13.994   6.856   3.634
73529SOL    HW222420  14.083   6.828   3.514
73530SOL     OW22421   9.193  11.996   7.673
73530SOL    HW122422   9.285  11.972   7.678
73530SOL    HW222423   9.157  11.973   7.759
73531SOL     OW22424  11.513  12.859   0.628
73531SOL    HW122425  11.601  12.842   0.595
73531SOL    HW222426  11.455  12.811   0.569
73532SOL     OW22427   0.919   6.080   2.881
73532SOL    HW122428   1.011   6.063   2.865
73532SOL    HW222429   0.886   6.000   2.922
73533SOL     OW22430   2.843   8.019   8.647
73533SOL    HW122431   2.781   8.086   8.619
73533SOL    HW222432   2.809   7.989   8.731
73534SOL     OW22433  10.078   4.123  12.885
73534SOL    HW122434  10.036   4.085  12.962
73534SOL    HW222435  10.104   4.211  12.912
73535SOL     OW22436   7.714   5.070   8.519
73535SOL    HW122437   7.799   5.089   8.481
73535SOL    HW222438   7.733   5.010   8.591
73536SOL     OW22439  12.383  13.141   3.508
73536SOL    HW122440  12.422  13.201   3.571
73536SOL    HW222441  12.352  13.198   3.437
73537SOL     OW22442   7.361   1.965  10.720
73537SOL    HW122443   7.451   1.971  10.689
73537SOL    HW222444   7.315   2.036  10.675
73538SOL     OW22445   8.267  10.511   3.595
73538SOL    HW122446   8.283  10.519   3.501
73538SOL    HW222447   8.335  10.564   3.635
73539SOL     OW22448   9.876  14.826   2.196
73539SOL    HW122449   9.850  14.734   2.189
73539SOL    HW222450   9.971  14.826   2.184
73540SOL     OW22451   6.610   4.131   2.293
73540SOL    HW122452   6.544   4.114   2.360
73540SOL    HW222453   6.664   4.052   2.292
73541SOL     OW22454   3.274  12.806  13.686
73541SOL    HW122455   3.206  12.769  13.630
73541SOL    HW222456   3.234  12.809  13.774
73542SOL     OW22457  13.805   9.961   5.642
73542SOL    HW122458  13.818  10.008   5.725
73542SOL    HW222459  13.713   9.936   5.643
73543SOL     OW22460  10.932   8.505   1.752
73543SOL    HW122461  10.964   8.573   1.693
73543SOL    HW222462  10.997   8.435   1.745
73544SOL     OW22463  12.226   1.766   0.719
73544SOL    HW122464  12.266   1.749   0.805
73544SOL    HW222465  12.217   1.861   0.715
73545SOL     OW22466   5.058  11.449  14.445
73545SOL    HW122467   5.039  11.493  14.528
73545SOL    HW222468   5.094  11.518  14.389
73546SOL     OW22469   7.741   1.156   3.052
73546SOL    HW122470   7.719   1.165   2.959
73546SOL    HW222471   7.763   1.064   3.063
73547SOL     OW22472  13.125   8.508   5.609
73547SOL    HW122473  13.106   8.601   5.619
73547SOL    HW222474  13.134   8.476   5.699
73548SOL     OW22475  12.433  11.958   8.800
73548SOL    HW122476  12.441  11.927   8.710
73548SOL    HW222477  12.480  11.893   8.853
73549SOL     OW22478   6.239  14.713   3.991
73549SOL    HW122479   6.150  14.717   3.957
73549SOL    HW222480   6.230  14.673   4.078
73550SOL     OW22481   1.196   8.932   0.745
73550SOL    HW122482   1.190   8.963   0.654
73550SOL    HW222483   1.275   8.974   0.779
73551SOL     OW22484  13.434  12.609  12.738
73551SOL    HW122485  13.375  12.633  12.667
73551SOL    HW222486  13.386  12.541  12.787
73552SOL     OW22487  12.422   3.655   2.398
73552SOL    HW122488  12.417   3.719   2.327
73552SOL    HW222489  12.380   3.577   2.363
73553SOL     OW22490  10.947  10.660  11.290
73553SOL    HW122491  10.892  10.613  11.352
73553SOL    HW222492  11.030  10.673  11.337
73554SOL     OW22493   7.639   7.440  10.159
73554SOL    HW122494   7.723   7.414  10.122
73554SOL    HW222495   7.662   7.491  10.238
73555SOL     OW22496   2.059   8.972  11.498
73555SOL    HW122497   2.152   8.952  11.487
73555SOL    HW222498   2.048   9.059  11.459
73556SOL     OW22499   8.907   2.998   4.506
73556SOL    HW122500   8.929   2.921   4.558
73556SOL    HW222501   8.950   2.983   4.422
73557SOL     OW22502   8.233   4.412   8.575
73557SOL    HW122503   8.317   4.457   8.583
73557SOL    HW222504   8.168   4.480   8.592
73558SOL     OW22505   9.303  11.911  12.977
73558SOL    HW122506   9.260  11.970  12.915
73558SOL    HW222507   9.232  11.855  13.010
73559SOL     OW22508   0.871   2.690   4.510
73559SOL    HW122509   0.903   2.766   4.462
73559SOL    HW222510   0.949   2.636   4.524
73560SOL     OW22511  10.518  12.958   0.067
73560SOL    HW122512  10.600  12.945   0.115
73560SOL    HW222513  10.449  12.947   0.133
73561SOL     OW22514  11.242   0.451   1.221
73561SOL    HW122515  11.328   0.416   1.200
73561SOL    HW222516  11.197   0.455   1.137
73562SOL     OW22517  10.789   8.983   6.937
73562SOL    HW122518  10.714   9.025   6.980
73562SOL    HW222519  10.864   9.006   6.993
73563SOL     OW22520   1.748  13.292   5.501
73563SOL    HW122521   1.809  13.308   5.573
73563SOL    HW222522   1.787  13.219   5.452
73564SOL     OW22523   1.055   7.342   5.593
73564SOL    HW122524   1.137   7.309   5.628
73564SOL    HW222525   1.082   7.402   5.523
73565SOL     OW22526   1.278   7.838   1.469
73565SOL    HW122527   1.278   7.856   1.375
73565SOL    HW222528   1.236   7.752   1.477
73566SOL     OW22529   5.247   5.522   2.930
73566SOL    HW122530   5.238   5.449   2.992
73566SOL    HW222531   5.340   5.525   2.910
73567SOL     OW22532   1.709   4.841   8.298
73567SOL    HW122533   1.677   4.929   8.280
73567SOL    HW222534   1.677   4.821   8.386
73568SOL     OW22535   3.835   0.643   5.017
73568SOL    HW122536   3.801   0.625   5.105
73568SOL    HW222537   3.829   0.738   5.008
73569SOL     OW22538  11.577   7.958   8.412
73569SOL    HW122539  11.597   7.910   8.493
73569SOL    HW222540  11.498   8.008   8.434
73570SOL     OW22541   2.687   3.517   6.637
73570SOL    HW122542   2.641   3.469   6.568
73570SOL    HW222543   2.775   3.531   6.602
73571SOL     OW22544   7.680   8.344   7.285
73571SOL    HW122545   7.634   8.355   7.368
73571SOL    HW222546   7.612   8.325   7.221
73572SOL     OW22547   9.592  10.849   7.252
73572SOL    HW122548   9.508  10.825   7.215
73572SOL    HW222549   9.620  10.926   7.203
73573SOL     OW22550   8.672   1.771  10.163
73573SOL    HW122551   8.680   1.866  10.157
73573SOL    HW222552   8.650   1.754  10.255
73574SOL     OW22553   9.813   1.881   6.307
73574SOL    HW122554   9.812   1.969   6.269
73574SOL    HW222555   9.904   1.854   6.301
73575SOL     OW22556  10.374  14.851   0.886
73575SOL    HW122557  10.329   0.013   0.961
73575SOL    HW222558  10.425  14.778   0.922
73576SOL     OW22559   4.988   1.488   4.117
73576SOL    HW122560   4.965   1.555   4.181
73576SOL    HW222561   5.063   1.443   4.155
73577SOL     OW22562  10.587   4.279  10.293
73577SOL    HW122563  10.516   4.248  10.350
73577SOL    HW222564  10.547   4.346  10.239
73578SOL     OW22565  10.759   6.036  10.572
73578SOL    HW122566  10.679   6.002  10.610
73578SOL    HW222567  10.742   6.129  10.558
73579SOL     OW22568   7.092  10.107  12.561
73579SOL    HW122569   7.164  10.056  12.597
73579SOL    HW222570   7.069  10.169  12.631
73580SOL     OW22571  14.070   4.954  10.284
73580SOL    HW122572  14.164   4.933  10.281
73580SOL    HW222573  14.049   4.954  10.377
73581SOL     OW22574   7.297   5.393   0.264
73581SOL    HW122575   7.224   5.381   0.203
73581SOL    HW222576   7.278   5.477   0.306
73582SOL     OW22577  14.612   2.895   5.795
73582SOL    HW122578  14.577   2.806   5.788
73582SOL    HW222579  14.615   2.912   5.890
73583SOL     OW22580   5.559   9.073   2.589
73583SOL    HW122581   5.528   9.078   2.498
73583SOL    HW222582   5.518   8.994   2.624
73584SOL     OW22583  10.720  14.009   0.565
73584SOL    HW122584  10.772  14.043   0.638
73584SOL    HW222585  10.763  14.045   0.487
73585SOL     OW22586   8.551  12.743   7.796
73585SOL    HW122587   8.624  12.805   7.805
73585SOL    HW222588   8.509  12.743   7.882
73586SOL     OW22589  14.444   8.252   6.566
73586SOL    HW122590  14.433   8.345   6.587
73586SOL    HW222591  14.355   8.218   6.562
73587SOL     OW22592   1.268  10.666   5.314
73587SOL    HW122593   1.188  10.717   5.296
73587SOL    HW222594   1.261  10.590   5.257
73588SOL     OW22595  10.146   3.707  11.591
73588SOL    HW122596  10.152   3.776  11.525
73588SOL    HW222597  10.126   3.753  11.672
73589SOL     OW22598   8.309   2.208   5.015
73589SOL    HW122599   8.227   2.258   5.017
73589SOL    HW222600   8.360   2.248   4.945
73590SOL     OW22601  11.298   2.960   1.605
73590SOL    HW122602  11.215   2.987   1.566
73590SOL    HW222603  11.365   2.996   1.548
73591SOL     OW22604   5.218   4.686   5.832
73591SOL    HW122605   5.234   4.780   5.847
73591SOL    HW222606   5.278   4.662   5.763
73592SOL     OW22607  11.408  14.182   9.436
73592SOL    HW122608  11.446  14.161   9.521
73592SOL    HW222609  11.378  14.272   9.445
73593SOL     OW22610   6.961  14.105   4.598
73593SOL    HW122611   7.056  14.099   4.590
73593SOL    HW222612   6.935  14.166   4.528
73594SOL     OW22613   7.758  11.702   5.329
73594SOL    HW122614   7.764  11.743   5.243
73594SOL    HW222615   7.666  11.711   5.353
73595SOL     OW22616   4.390  12.776   6.545
73595SOL    HW122617   4.452  12.841   6.578
73595SOL    HW222618   4.309  12.792   6.593
73596SOL     OW22619  11.622   9.612   2.913
73596SOL    HW122620  11.681   9.583   2.983
73596SOL    HW222621  11.623   9.539   2.851
73597SOL     OW22622   8.060  10.007  13.036
73597SOL    HW122623   7.978   9.982  12.993
73597SOL    HW222624   8.128   9.978  12.975
73598SOL     OW22625   6.164   1.514   5.728
73598SOL    HW122626   6.109   1.573   5.677
73598SOL    HW222627   6.229   1.481   5.666
73599SOL     OW22628  10.515   4.136  11.106
73599SOL    HW122629  10.561   4.085  11.039
73599SOL    HW222630  10.423   4.131  11.081
73600SOL     OW22631  12.837  10.440   2.192
73600SOL    HW122632  12.925  10.442   2.230
73600SOL    HW222633  12.797  10.523   2.218
73601SOL     OW22634   5.240   9.581   7.935
73601SOL    HW122635   5.319   9.529   7.943
73601SOL    HW222636   5.237   9.606   7.842
73602SOL     OW22637   1.019   4.265   1.319
73602SOL    HW122638   1.087   4.199   1.334
73602SOL    HW222639   0.945   4.236   1.373
73603SOL     OW22640  12.717   6.520  10.784
73603SOL    HW122641  12.745   6.456  10.718
73603SOL    HW222642  12.681   6.467  10.855
73604SOL     OW22643   3.634   6.330   0.800
73604SOL    HW122644   3.702   6.276   0.840
73604SOL    HW222645   3.608   6.391   0.869
73605SOL     OW22646   0.267   6.179   8.067
73605SOL    HW122647   0.264   6.086   8.091
73605SOL    HW222648   0.175   6.207   8.066
73606SOL     OW22649  13.672   9.297   9.959
73606SOL    HW122650  13.666   9.202   9.952
73606SOL    HW222651  13.731   9.323   9.889
73607SOL     OW22652  11.533   6.285   0.848
73607SOL    HW122653  11.464   6.328   0.899
73607SOL    HW222654  11.583   6.235   0.912
73608SOL     OW22655   7.026   0.438  12.610
73608SOL    HW122656   7.098   0.413  12.553
73608SOL    HW222657   6.975   0.358  12.622
73609SOL     OW22658   8.398  14.702  10.996
73609SOL    HW122659   8.438  14.766  10.937
73609SOL    HW222660   8.319  14.673  10.950
73610SOL     OW22661   2.442   0.356  13.002
73610SOL    HW122662   2.413   0.275  13.043
73610SOL    HW222663   2.523   0.378  13.049
73611SOL     OW22664   1.413   3.186   4.299
73611SOL    HW122665   1.436   3.170   4.208
73611SOL    HW222666   1.419   3.100   4.341
73612SOL     OW22667   4.722  12.094  13.376
73612SOL    HW122668   4.689  12.157  13.440
73612SOL    HW222669   4.676  12.013  13.396
73613SOL     OW22670  13.293  10.181   3.682
73613SOL    HW122671  13.357  10.111   3.676
73613SOL    HW222672  13.276  10.207   3.591
73614SOL     OW22673   0.397   6.445  14.748
73614SOL    HW122674   0.335   6.424  14.678
73614SOL    HW222675   0.474   6.390  14.729
73615SOL     OW22676   6.188   9.143  10.757
73615SOL    HW122677   6.145   9.078  10.813
73615SOL    HW222678   6.274   9.105  10.738
73616SOL     OW22679   7.311   5.386   2.139
73616SOL    HW122680   7.244   5.446   2.105
73616SOL    HW222681   7.263   5.305   2.158
73617SOL     OW22682   6.778   1.968   0.930
73617SOL    HW122683   6.785   2.045   0.874
73617SOL    HW222684   6.762   1.896   0.869
73618SOL     OW22685   0.717   6.163   5.139
73618SOL    HW122686   0.630   6.198   5.117
73618SOL    HW222687   0.699   6.074   5.171
73619SOL     OW22688  13.577  10.811  10.594
73619SOL    HW122689  13.574  10.717  10.615
73619SOL    HW222690  13.535  10.817  10.509
73620SOL     OW22691   1.939   2.677   6.453
73620SOL    HW122692   1.923   2.587   6.427
73620SOL    HW222693   1.998   2.712   6.387
73621SOL     OW22694   7.317   4.417  10.385
73621SOL    HW122695   7.289   4.414  10.294
73621SOL    HW222696   7.411   4.433  10.380
73622SOL     OW22697   3.724  12.964  11.810
73622SOL    HW122698   3.643  13.014  11.805
73622SOL    HW222699   3.770  13.002  11.885
73623SOL     OW22700  13.739   1.565   1.889
73623SOL    HW122701  13.665   1.544   1.833
73623SOL    HW222702  13.703   1.570   1.977
73624SOL     OW22703   9.161   1.841  14.171
73624SOL    HW122704   9.198   1.767  14.122
73624SOL    HW222705   9.070   1.844  14.143
73625SOL     OW22706   8.012  12.107   2.164
73625SOL    HW122707   7.942  12.079   2.106
73625SOL    HW222708   7.977  12.182   2.210
73626SOL     OW22709   7.069   3.550  10.523
73626SOL    HW122710   7.077   3.626  10.581
73626SOL    HW222711   7.020   3.583  10.448
73627SOL     OW22712   7.475  10.075   3.605
73627SOL    HW122713   7.473  10.170   3.594
73627SOL    HW222714   7.413  10.057   3.675
73628SOL     OW22715  11.083   9.584   4.288
73628SOL    HW122716  11.163   9.540   4.259
73628SOL    HW222717  11.033   9.516   4.332
73629SOL     OW22718   5.500   6.829  12.890
73629SOL    HW122719   5.489   6.923  12.879
73629SOL    HW222720   5.472   6.791  12.807
73630SOL     OW22721   5.411   1.356  13.330
73630SOL    HW122722   5.329   1.371  13.283
73630SOL    HW222723   5.384   1.326  13.416
73631SOL     OW22724   3.511  13.861   0.881
73631SOL    HW122725   3.496  13.808   0.959
73631SOL    HW222726   3.443  13.929   0.885
73632SOL     OW22727   5.809   0.557   0.776
73632SOL    HW122728   5.730   0.602   0.805
73632SOL    HW222729   5.816   0.578   0.682
73633SOL     OW22730  12.853   9.386   0.504
73633SOL    HW122731  12.870   9.386   0.598
73633SOL    HW222732  12.794   9.312   0.491
73634SOL     OW22733   6.526   3.588  11.380
73634SOL    HW122734   6.528   3.564  11.288
73634SOL    HW222735   6.553   3.509  11.426
73635SOL     OW22736  10.406  11.136  11.529
73635SOL    HW122737  10.357  11.128  11.611
73635SOL    HW222738  10.472  11.203  11.548
73636SOL     OW22739   1.974   8.436   4.611
73636SOL    HW122740   1.989   8.517   4.661
73636SOL    HW222741   1.959   8.466   4.522
73637SOL     OW22742   6.924   7.357   7.331
73637SOL    HW122743   6.949   7.285   7.388
73637SOL    HW222744   6.970   7.340   7.249
73638SOL     OW22745   1.105   3.095   0.618
73638SOL    HW122746   1.177   3.103   0.680
73638SOL    HW222747   1.089   3.184   0.587
73639SOL     OW22748  14.787  13.209   8.007
73639SOL    HW122749  14.767  13.122   8.041
73639SOL    HW222750  14.858  13.196   7.945
73640SOL     OW22751  14.736   8.358  12.458
73640SOL    HW122752  14.787   8.382  12.535
73640SOL    HW222753  14.793   8.299  12.408
73641SOL     OW22754   9.731  11.248   6.858
73641SOL    HW122755   9.737  11.302   6.937
73641SOL    HW222756   9.699  11.307   6.791
73642SOL     OW22757  12.625  11.347   1.576
73642SOL    HW122758  12.713  11.368   1.606
73642SOL    HW222759  12.611  11.257   1.605
73643SOL     OW22760   2.113  13.913   9.025
73643SOL    HW122761   2.105  13.991   9.080
73643SOL    HW222762   2.029  13.869   9.033
73644SOL     OW22763   1.751   8.369  12.867
73644SOL    HW122764   1.717   8.286  12.900
73644SOL    HW222765   1.829   8.385  12.920
73645SOL     OW22766   9.482   5.702  10.501
73645SOL    HW122767   9.387   5.692  10.509
73645SOL    HW222768   9.504   5.655  10.420
73646SOL     OW22769   6.115  13.282   7.568
73646SOL    HW122770   6.167  13.343   7.621
73646SOL    HW222771   6.176  13.251   7.501
73647SOL     OW22772   4.051  12.324   5.764
73647SOL    HW122773   4.015  12.393   5.707
73647SOL    HW222774   3.989  12.319   5.837
73648SOL     OW22775   4.863   3.685  12.128
73648SOL    HW122776   4.862   3.780  12.131
73648SOL    HW222777   4.923   3.664  12.055
73649SOL     OW22778   4.409   8.431   5.849
73649SOL    HW122779   4.473   8.360   5.861
73649SOL    HW222780   4.326   8.387   5.836
73650SOL     OW22781   8.690   0.745   5.105
73650SOL    HW122782   8.684   0.651   5.122
73650SOL    HW222783   8.609   0.781   5.141
73651SOL     OW22784   4.179  10.530   6.617
73651SOL    HW122785   4.206  10.494   6.533
73651SOL    HW222786   4.100  10.480   6.641
73652SOL     OW22787   0.929   7.871  12.070
73652SOL    HW122788   0.971   7.905  12.149
73652SOL    HW222789   0.847   7.832  12.101
73653SOL     OW22790  10.175  11.758  11.236
73653SOL    HW122791  10.119  11.787  11.164
73653SOL    HW222792  10.126  11.781  11.315
73654SOL     OW22793   0.499  10.491   4.129
73654SOL    HW122794   0.535  10.411   4.091
73654SOL    HW222795   0.405  10.487   4.110
73655SOL     OW22796   0.657  13.315   0.701
73655SOL    HW122797   0.613  13.306   0.785
73655SOL    HW222798   0.608  13.384   0.656
73656SOL     OW22799   5.863   1.161  12.593
73656SOL    HW122800   5.914   1.240  12.607
73656SOL    HW222801   5.772   1.191  12.591
73657SOL     OW22802  10.277   1.810   9.999
73657SOL    HW122803  10.305   1.840  10.085
73657SOL    HW222804  10.290   1.885   9.941
73658SOL     OW22805   8.355  10.292   5.303
73658SOL    HW122806   8.303  10.220   5.339
73658SOL    HW222807   8.289  10.354   5.271
73659SOL     OW22808   7.580   3.348   5.580
73659SOL    HW122809   7.654   3.401   5.550
73659SOL    HW222810   7.573   3.279   5.514
73660SOL     OW22811   2.274  11.938  10.244
73660SOL    HW122812   2.221  11.887  10.306
73660SOL    HW222813   2.251  12.029  10.263
73661SOL     OW22814  11.268   4.979  11.461
73661SOL    HW122815  11.328   5.014  11.395
73661SOL    HW222816  11.310   4.999  11.544
73662SOL     OW22817   7.472  11.948  11.347
73662SOL    HW122818   7.452  11.875  11.406
73662SOL    HW222819   7.452  11.915  11.260
73663SOL     OW22820  12.875  12.509   8.103
73663SOL    HW122821  12.908  12.598   8.113
73663SOL    HW222822  12.921  12.459   8.170
73664SOL     OW22823   4.955   1.009   6.127
73664SOL    HW122824   4.995   1.017   6.214
73664SOL    HW222825   4.903   0.929   6.132
73665SOL     OW22826   1.266   9.905   1.556
73665SOL    HW122827   1.294   9.856   1.633
73665SOL    HW222828   1.171   9.912   1.565
73666SOL     OW22829   8.892  11.770   2.932
73666SOL    HW122830   8.977  11.801   2.900
73666SOL    HW222831   8.914  11.707   3.000
73667SOL     OW22832   5.887   4.122   9.747
73667SOL    HW122833   5.813   4.170   9.710
73667SOL    HW222834   5.912   4.059   9.679
73668SOL     OW22835   6.567  14.168   1.218
73668SOL    HW122836   6.519  14.086   1.227
73668SOL    HW222837   6.559  14.191   1.125
73669SOL     OW22838   0.964  13.877   8.752
73669SOL    HW122839   0.878  13.838   8.740
73669SOL    HW222840   0.948  13.959   8.797
73670SOL     OW22841   0.030   8.240  11.132
73670SOL    HW122842  14.846   8.168  11.150
73670SOL    HW222843   0.105   8.200  11.088
73671SOL     OW22844  12.595  11.936  14.012
73671SOL    HW122845  12.532  11.965  14.077
73671SOL    HW222846  12.598  12.006  13.947
73672SOL     OW22847   3.868   2.630  13.526
73672SOL    HW122848   3.808   2.560  13.501
73672SOL    HW222849   3.894   2.670  13.444
73673SOL     OW22850   9.457   6.984   3.293
73673SOL    HW122851   9.364   6.960   3.293
73673SOL    HW222852   9.501   6.907   3.257
73674SOL     OW22853  14.629   6.383   6.786
73674SOL    HW122854  14.682   6.458   6.759
73674SOL    HW222855  14.556   6.422   6.834
73675SOL     OW22856   4.221  14.175   1.558
73675SOL    HW122857   4.279  14.239   1.518
73675SOL    HW222858   4.144  14.225   1.585
73676SOL     OW22859   7.083   8.823  13.031
73676SOL    HW122860   7.058   8.822  13.124
73676SOL    HW222861   7.001   8.818  12.984
73677SOL     OW22862   6.436  13.376   6.754
73677SOL    HW122863   6.420  13.462   6.791
73677SOL    HW222864   6.439  13.317   6.830
73678SOL     OW22865   1.851   4.682   5.799
73678SOL    HW122866   1.811   4.716   5.718
73678SOL    HW222867   1.835   4.751   5.864
73679SOL     OW22868   9.931   3.113   1.820
73679SOL    HW122869   9.900   3.078   1.736
73679SOL    HW222870   9.879   3.067   1.886
73680SOL     OW22871  13.098   5.747   1.382
73680SOL    HW122872  13.035   5.683   1.415
73680SOL    HW222873  13.143   5.779   1.459
73681SOL     OW22874   6.091   2.084  14.121
73681SOL    HW122875   6.023   2.027  14.158
73681SOL    HW222876   6.111   2.046  14.036
73682SOL     OW22877  12.959   3.382   5.846
73682SOL    HW122878  12.966   3.373   5.941
73682SOL    HW222879  12.981   3.295   5.813
73683SOL     OW22880   0.227   7.189  12.485
73683SOL    HW122881   0.219   7.212  12.577
73683SOL    HW222882   0.312   7.224  12.459
73684SOL     OW22883   0.803   3.807  11.819
73684SOL    HW122884   0.803   3.719  11.856
73684SOL    HW222885   0.862   3.801  11.744
73685SOL     OW22886   8.479   4.799   3.439
73685SOL    HW122887   8.487   4.738   3.365
73685SOL    HW222888   8.470   4.885   3.398
73686SOL     OW22889   8.750   8.687   8.905
73686SOL    HW122890   8.675   8.741   8.882
73686SOL    HW222891   8.713   8.607   8.941
73687SOL     OW22892   4.682  14.304   2.927
73687SOL    HW122893   4.708  14.291   2.836
73687SOL    HW222894   4.611  14.242   2.941
73688SOL     OW22895  12.308   6.583   7.950
73688SOL    HW122896  12.377   6.632   7.994
73688SOL    HW222897  12.344   6.563   7.864
73689SOL     OW22898  10.939   1.641   2.716
73689SOL    HW122899  10.903   1.687   2.791
73689SOL    HW222900  10.866   1.632   2.655
73690SOL     OW22901  13.254   0.343  13.940
73690SOL    HW122902  13.344   0.361  13.967
73690SOL    HW222903  13.200   0.388  14.004
73691SOL     OW22904  13.649   0.407   4.039
73691SOL    HW122905  13.675   0.477   3.979
73691SOL    HW222906  13.638   0.330   3.984
73692SOL     OW22907  11.608   4.890   3.859
73692SOL    HW122908  11.574   4.902   3.771
73692SOL    HW222909  11.615   4.979   3.895
73693SOL     OW22910   4.074   5.117  14.751
73693SOL    HW122911   4.145   5.175  14.780
73693SOL    HW222912   4.068   5.050  14.820
73694SOL     OW22913   6.668   0.476   1.718
73694SOL    HW122914   6.745   0.521   1.684
73694SOL    HW222915   6.621   0.542   1.769
73695SOL     OW22916   8.646  14.848   5.434
73695SOL    HW122917   8.561  14.858   5.390
73695SOL    HW222918   8.664   0.059   5.471
73696SOL     OW22919  13.362   2.441   0.191
73696SOL    HW122920  13.343   2.531   0.165
73696SOL    HW222921  13.367   2.444   0.286
73697SOL     OW22922  13.514  14.450   4.667
73697SOL    HW122923  13.502  14.522   4.727
73697SOL    HW222924  13.435  14.449   4.613
73698SOL     OW22925  14.703  14.041   0.069
73698SOL    HW122926  14.757  14.044  14.866
73698SOL    HW222927  14.759  14.078   0.137
73699SOL     OW22928  14.055   0.489   1.932
73699SOL    HW122929  14.144   0.486   1.897
73699SOL    HW222930  14.060   0.547   2.007
73700SOL     OW22931  11.373   8.092   0.101
73700SOL    HW122932  11.343   8.182   0.112
73700SOL    HW222933  11.294   8.043   0.079
73701SOL     OW22934   5.264   7.468  13.327
73701SOL    HW122935   5.309   7.552  13.331
73701SOL    HW222936   5.331   7.406  13.299
73702SOL     OW22937   3.245  14.614  10.454
73702SOL    HW122938   3.211  14.699  10.482
73702SOL    HW222939   3.168  14.560  10.439
73703SOL     OW22940  14.777  12.337  11.464
73703SOL    HW122941  14.744  12.278  11.531
73703SOL    HW222942  14.736  12.307  11.383
73704SOL     OW22943  14.494   8.662   2.878
73704SOL    HW122944  14.572   8.658   2.823
73704SOL    HW222945  14.422   8.670   2.816
73705SOL     OW22946   7.757   4.034   9.834
73705SOL    HW122947   7.776   4.008   9.744
73705SOL    HW222948   7.695   4.107   9.825
73706SOL     OW22949   7.730   2.000  13.359
73706SOL    HW122950   7.649   2.051  13.347
73706SOL    HW222951   7.732   1.979  13.452
73707SOL     OW22952   1.186   1.562   5.125
73707SOL    HW122953   1.123   1.490   5.126
73707SOL    HW222954   1.226   1.557   5.038
73708SOL     OW22955  10.492   5.605  12.658
73708SOL    HW122956  10.531   5.527  12.696
73708SOL    HW222957  10.404   5.608  12.695
73709SOL     OW22958  12.793   9.968   7.303
73709SOL    HW122959  12.744   9.949   7.383
73709SOL    HW222960  12.758   9.906   7.239
73710SOL     OW22961   8.957   5.633   1.063
73710SOL    HW122962   8.972   5.720   1.027
73710SOL    HW222963   9.032   5.616   1.120
73711SOL     OW22964   4.363   4.695  12.793
73711SOL    HW122965   4.447   4.709  12.835
73711SOL    HW222966   4.343   4.603  12.809
73712SOL     OW22967   4.226   5.542   6.694
73712SOL    HW122968   4.267   5.587   6.768
73712SOL    HW222969   4.244   5.449   6.710
73713SOL     OW22970   5.021   4.777   7.964
73713SOL    HW122971   5.082   4.850   7.972
73713SOL    HW222972   4.942   4.807   8.010
73714SOL     OW22973   0.986  11.313  10.302
73714SOL    HW122974   0.942  11.280  10.223
73714SOL    HW222975   1.024  11.396  10.276
73715SOL     OW22976   1.169   1.080  14.704
73715SOL    HW122977   1.214   1.084  14.788
73715SOL    HW222978   1.081   1.111  14.722
73716SOL     OW22979   7.838  14.229   6.964
73716SOL    HW122980   7.753  14.224   7.009
73716SOL    HW222981   7.832  14.163   6.894
73717SOL     OW22982   0.242   9.078  12.793
73717SOL    HW122983   0.307   9.051  12.730
73717SOL    HW222984   0.289   9.083  12.876
73718SOL     OW22985  13.928   2.977   9.643
73718SOL    HW122986  13.908   2.883   9.641
73718SOL    HW222987  14.011   2.983   9.691
73719SOL     OW22988   6.879   5.102  14.249
73719SOL    HW122989   6.961   5.071  14.289
73719SOL    HW222990   6.879   5.062  14.162
73720SOL     OW22991  13.452   6.246   4.032
73720SOL    HW122992  13.444   6.175   4.096
73720SOL    HW222993  13.535   6.227   3.987
73721SOL     OW22994  14.386   9.873   2.067
73721SOL    HW122995  14.305   9.825   2.083
73721SOL    HW222996  14.402   9.861   1.973
73722SOL     OW22997  13.181   9.448   0.667
73722SOL    HW122998  13.218   9.521   0.618
73722SOL    HW222999  13.249   9.424   0.730
73723SOL     OW23000  14.308  13.636   9.847
73723SOL    HW123001  14.355  13.559   9.877
73723SOL    HW223002  14.251  13.660   9.921
73724SOL     OW23003  14.316  12.792  13.543
73724SOL    HW123004  14.352  12.784  13.455
73724SOL    HW223005  14.224  12.813  13.529
73725SOL     OW23006   5.372  13.390   6.647
73725SOL    HW123007   5.303  13.447   6.613
73725SOL    HW223008   5.448  13.448   6.658
73726SOL     OW23009   3.852   0.126  10.366
73726SOL    HW123010   3.921   0.099  10.307
73726SOL    HW223011   3.845   0.055  10.430
73727SOL     OW23012   5.683   1.918   8.665
73727SOL    HW123013   5.745   1.986   8.692
73727SOL    HW223014   5.723   1.879   8.588
73728SOL     OW23015  12.492   0.517   5.404
73728SOL    HW123016  12.422   0.563   5.359
73728SOL    HW223017  12.505   0.437   5.353
73729SOL     OW23018   8.146   2.268  10.807
73729SOL    HW123019   8.167   2.186  10.762
73729SOL    HW223020   8.075   2.245  10.868
73730SOL     OW23021   9.985  13.267   2.509
73730SOL    HW123022   9.953  13.302   2.426
73730SOL    HW223023   9.914  13.211   2.540
73731SOL     OW23024  10.525  14.736  10.343
73731SOL    HW123025  10.578  14.657  10.335
73731SOL    HW223026  10.516  14.751  10.437
73732SOL     OW23027   1.693   0.078  14.038
73732SOL    HW123028   1.677   0.094  13.945
73732SOL    HW223029   1.663   0.158  14.081
73733SOL     OW23030   6.719  12.741   6.207
73733SOL    HW123031   6.641  12.788   6.175
73733SOL    HW223032   6.692  12.705   6.291
73734SOL     OW23033   6.607   3.126   7.907
73734SOL    HW123034   6.627   3.179   7.830
73734SOL    HW223035   6.674   3.057   7.906
73735SOL     OW23036   9.681   4.976  14.584
73735SOL    HW123037   9.661   4.893  14.628
73735SOL    HW223038   9.768   4.963  14.546
73736SOL     OW23039  13.310   9.938   7.535
73736SOL    HW123040  13.388   9.934   7.479
73736SOL    HW223041  13.264   9.855   7.518
73737SOL     OW23042  12.766   7.421  11.318
73737SOL    HW123043  12.756   7.396  11.227
73737SOL    HW223044  12.793   7.513  11.315
73738SOL     OW23045  10.097   9.152   3.053
73738SOL    HW123046  10.117   9.061   3.030
73738SOL    HW223047  10.091   9.197   2.969
73739SOL     OW23048  13.339  11.618   7.203
73739SOL    HW123049  13.275  11.682   7.172
73739SOL    HW223050  13.286  11.544   7.233
73740SOL     OW23051  12.021   6.939   5.071
73740SOL    HW123052  12.069   6.975   4.995
73740SOL    HW223053  12.088   6.893   5.121
73741SOL     OW23054   3.690   2.872   4.314
73741SOL    HW123055   3.701   2.943   4.251
73741SOL    HW223056   3.600   2.843   4.302
73742SOL     OW23057  13.827   2.467   4.105
73742SOL    HW123058  13.869   2.405   4.046
73742SOL    HW223059  13.848   2.435   4.193
73743SOL     OW23060  11.759  13.124  11.898
73743SOL    HW123061  11.736  13.193  11.836
73743SOL    HW223062  11.825  13.164  11.955
73744SOL     OW23063   6.780  12.350   6.801
73744SOL    HW123064   6.819  12.404   6.869
73744SOL    HW223065   6.718  12.408   6.756
73745SOL     OW23066   7.710   2.053  14.079
73745SOL    HW123067   7.684   2.108  14.005
73745SOL    HW223068   7.804   2.066  14.087
73746SOL     OW23069   2.620   4.060  10.826
73746SOL    HW123070   2.560   4.111  10.773
73746SOL    HW223071   2.670   4.124  10.876
73747SOL     OW23072   4.130   7.250   1.378
73747SOL    HW123073   4.038   7.223   1.382
73747SOL    HW223074   4.169   7.192   1.314
73748SOL     OW23075  14.812   8.438   0.872
73748SOL    HW123076  14.795   8.527   0.902
73748SOL    HW223077  14.875   8.403   0.934
73749SOL     OW23078   4.419   4.939  12.695
73749SOL    HW123079   4.408   4.928  12.601
73749SOL    HW223080   4.386   4.858  12.733
73750SOL     OW23081   3.983   1.298  11.989
73750SOL    HW123082   3.943   1.326  12.072
73750SOL    HW223083   4.072   1.274  12.013
73751SOL     OW23084   6.782   8.847   4.406
73751SOL    HW123085   6.741   8.762   4.422
73751SOL    HW223086   6.734   8.908   4.463
73752SOL     OW23087   4.428  14.158  14.829
73752SOL    HW123088   4.360  14.097  14.860
73752SOL    HW223089   4.413  14.165  14.735
73753SOL     OW23090   2.949   9.296  12.104
73753SOL    HW123091   2.858   9.266  12.111
73753SOL    HW223092   2.942   9.385  12.071
73754SOL     OW23093   7.165  14.415   3.301
73754SOL    HW123094   7.209  14.484   3.251
73754SOL    HW223095   7.153  14.344   3.238
73755SOL     OW23096   5.666  14.701   1.900
73755SOL    HW123097   5.614  14.629   1.865
73755SOL    HW223098   5.672  14.764   1.828
73756SOL     OW23099   7.178   5.163  13.090
73756SOL    HW123100   7.119   5.196  13.158
73756SOL    HW223101   7.226   5.240  13.061
73757SOL     OW23102  10.588  14.535   7.286
73757SOL    HW123103  10.563  14.500   7.201
73757SOL    HW223104  10.517  14.510   7.344
73758SOL     OW23105  11.898   7.382   7.649
73758SOL    HW123106  11.838   7.440   7.696
73758SOL    HW223107  11.891   7.298   7.696
73759SOL     OW23108  12.289  13.013   4.727
73759SOL    HW123109  12.339  12.931   4.720
73759SOL    HW223110  12.221  13.005   4.661
73760SOL     OW23111   1.630   4.989   1.473
73760SOL    HW123112   1.655   5.022   1.387
73760SOL    HW223113   1.641   4.894   1.467
73761SOL     OW23114  13.251   7.940  14.380
73761SOL    HW123115  13.202   7.936  14.298
73761SOL    HW223116  13.313   8.011  14.367
73762SOL     OW23117   4.256  12.317  10.667
73762SOL    HW123118   4.317  12.391  10.668
73762SOL    HW223119   4.306  12.245  10.630
73763SOL     OW23120   9.355  10.076   8.645
73763SOL    HW123121   9.339  10.137   8.573
73763SOL    HW223122   9.269  10.059   8.683
73764SOL     OW23123   8.998  14.448   5.826
73764SOL    HW123124   9.071  14.465   5.886
73764SOL    HW223125   8.925  14.496   5.864
73765SOL     OW23126   5.380   6.038   6.811
73765SOL    HW123127   5.471   6.062   6.827
73765SOL    HW223128   5.371   6.041   6.716
73766SOL     OW23129   8.252   0.133  12.432
73766SOL    HW123130   8.268   0.145  12.338
73766SOL    HW223131   8.334   0.157  12.473
73767SOL     OW23132   9.717   9.986  11.119
73767SOL    HW123133   9.794  10.022  11.163
73767SOL    HW223134   9.658  10.060  11.109
73768SOL     OW23135   4.112   5.311  13.497
73768SOL    HW123136   4.131   5.217  13.496
73768SOL    HW223137   4.035   5.320  13.553
73769SOL     OW23138   3.998   0.284   1.868
73769SOL    HW123139   3.934   0.351   1.893
73769SOL    HW223140   4.034   0.254   1.951
73770SOL     OW23141   2.423   9.143   3.778
73770SOL    HW123142   2.436   9.231   3.743
73770SOL    HW223143   2.337   9.116   3.746
73771SOL     OW23144   1.208  12.849   6.373
73771SOL    HW123145   1.285  12.805   6.408
73771SOL    HW223146   1.138  12.783   6.380
73772SOL     OW23147  14.534  14.492   6.574
73772SOL    HW123148  14.515  14.567   6.518
73772SOL    HW223149  14.460  14.488   6.635
73773SOL     OW23150  14.812   1.248   1.194
73773SOL    HW123151  14.771   1.332   1.217
73773SOL    HW223152  14.796   1.192   1.269
73774SOL     OW23153   3.322  10.959  11.611
73774SOL    HW123154   3.377  11.038  11.610
73774SOL    HW223155   3.240  10.988  11.650
73775SOL     OW23156  13.668  14.043   1.884
73775SOL    HW123157  13.687  14.098   1.808
73775SOL    HW223158  13.747  14.050   1.939
73776SOL     OW23159   7.784  13.402   8.924
73776SOL    HW123160   7.747  13.487   8.900
73776SOL    HW223161   7.788  13.354   8.842
73777SOL     OW23162   2.216   2.110   1.933
73777SOL    HW123163   2.280   2.117   1.863
73777SOL    HW223164   2.213   2.197   1.973
73778SOL     OW23165  11.244   3.142  12.267
73778SOL    HW123166  11.301   3.219  12.263
73778SOL    HW223167  11.164   3.170  12.222
73779SOL     OW23168   0.509   3.041  11.990
73779SOL    HW123169   0.517   2.969  12.053
73779SOL    HW223170   0.597   3.078  11.986
73780SOL     OW23171  14.218   8.935   0.135
73780SOL    HW123172  14.259   8.864   0.086
73780SOL    HW223173  14.132   8.947   0.093
73781SOL     OW23174  13.082  12.091   5.724
73781SOL    HW123175  13.129  12.101   5.641
73781SOL    HW223176  13.046  12.002   5.720
73782SOL     OW23177   4.271   0.642   4.640
73782SOL    HW123178   4.260   0.549   4.619
73782SOL    HW223179   4.217   0.656   4.717
73783SOL     OW23180   0.712   0.441   7.861
73783SOL    HW123181   0.714   0.537   7.856
73783SOL    HW223182   0.720   0.412   7.771
73784SOL     OW23183   2.204  13.302  14.492
73784SOL    HW123184   2.200  13.372  14.557
73784SOL    HW223185   2.126  13.248  14.510
73785SOL     OW23186  12.440   7.658  12.091
73785SOL    HW123187  12.472   7.740  12.054
73785SOL    HW223188  12.359   7.640  12.044
73786SOL     OW23189  10.612   3.372   1.630
73786SOL    HW123190  10.536   3.315   1.636
73786SOL    HW223191  10.687   3.316   1.653
73787SOL     OW23192   0.910   7.623   1.674
73787SOL    HW123193   0.918   7.531   1.702
73787SOL    HW223194   1.000   7.655   1.674
73788SOL     OW23195   2.198  13.942  12.393
73788SOL    HW123196   2.253  13.912  12.465
73788SOL    HW223197   2.124  13.987  12.436
73789SOL     OW23198   2.102   3.505   2.557
73789SOL    HW123199   2.150   3.433   2.516
73789SOL    HW223200   2.150   3.522   2.638
73790SOL     OW23201   8.510   3.422   4.615
73790SOL    HW123202   8.580   3.467   4.661
73790SOL    HW223203   8.554   3.373   4.546
73791SOL     OW23204  10.606   7.726  14.099
73791SOL    HW123205  10.678   7.699  14.156
73791SOL    HW223206  10.648   7.739  14.013
73792SOL     OW23207   0.068   7.417   6.285
73792SOL    HW123208   0.096   7.367   6.362
73792SOL    HW223209   0.111   7.374   6.211
73793SOL     OW23210  10.000   4.404  10.369
73793SOL    HW123211  10.052   4.354  10.306
73793SOL    HW223212   9.948   4.464  10.315
73794SOL     OW23213  11.669   7.567   0.955
73794SOL    HW123214  11.590   7.618   0.936
73794SOL    HW223215  11.652   7.530   1.042
73795SOL     OW23216   9.441   2.907   0.875
73795SOL    HW123217   9.496   2.965   0.928
73795SOL    HW223218   9.403   2.845   0.937
73796SOL     OW23219  10.447   7.591   0.824
73796SOL    HW123220  10.443   7.673   0.874
73796SOL    HW223221  10.369   7.543   0.852
73797SOL     OW23222   8.056   7.598  10.344
73797SOL    HW123223   8.056   7.513  10.388
73797SOL    HW223224   8.078   7.661  10.412
73798SOL     OW23225  14.210   0.987   4.140
73798SOL    HW123226  14.206   0.993   4.235
73798SOL    HW223227  14.253   0.903   4.123
73799SOL     OW23228  11.626   8.176  12.504
73799SOL    HW123229  11.655   8.095  12.546
73799SOL    HW223230  11.618   8.154  12.411
73800SOL     OW23231   8.379   1.004   1.982
73800SOL    HW123232   8.397   0.940   1.913
73800SOL    HW223233   8.423   1.084   1.952
73801SOL     OW23234  12.143   6.244   4.357
73801SOL    HW123235  12.165   6.264   4.448
73801SOL    HW223236  12.055   6.206   4.361
73802SOL     OW23237   5.431   4.026   6.451
73802SOL    HW123238   5.348   3.978   6.455
73802SOL    HW223239   5.426   4.076   6.370
73803SOL     OW23240   6.697   4.582   7.577
73803SOL    HW123241   6.720   4.554   7.666
73803SOL    HW223242   6.695   4.502   7.526
73804SOL     OW23243  10.323   2.118   2.732
73804SOL    HW123244  10.371   2.200   2.742
73804SOL    HW223245  10.372   2.055   2.784
73805SOL     OW23246   7.753   6.893  14.041
73805SOL    HW123247   7.719   6.936  14.119
73805SOL    HW223248   7.734   6.800  14.054
73806SOL     OW23249   7.116  13.453  11.078
73806SOL    HW123250   7.178  13.401  11.129
73806SOL    HW223251   7.120  13.416  10.990
73807SOL     OW23252   7.744  14.409  12.148
73807SOL    HW123253   7.731  14.474  12.079
73807SOL    HW223254   7.819  14.441  12.197
73808SOL     OW23255   2.594   9.191   9.378
73808SOL    HW123256   2.529   9.137   9.333
73808SOL    HW223257   2.668   9.131   9.393
73809SOL     OW23258  13.856   0.960   9.804
73809SOL    HW123259  13.875   0.886   9.862
73809SOL    HW223260  13.921   1.026   9.828
73810SOL     OW23261  10.558   8.020  12.631
73810SOL    HW123262  10.631   7.983  12.581
73810SOL    HW223263  10.549   7.962  12.706
73811SOL     OW23264   1.132   2.788  10.785
73811SOL    HW123265   1.155   2.768  10.876
73811SOL    HW223266   1.036   2.786  10.785
73812SOL     OW23267  13.101  10.264   0.286
73812SOL    HW123268  13.192  10.291   0.296
73812SOL    HW223269  13.097  10.176   0.322
73813SOL     OW23270   0.651   1.312   1.697
73813SOL    HW123271   0.616   1.224   1.682
73813SOL    HW223272   0.740   1.297   1.731
73814SOL     OW23273  14.450  10.890   2.951
73814SOL    HW123274  14.431  10.813   3.005
73814SOL    HW223275  14.496  10.950   3.010
73815SOL     OW23276   5.423   9.297  14.768
73815SOL    HW123277   5.442   9.306  14.674
73815SOL    HW223278   5.327   9.296  14.772
73816SOL     OW23279  11.488  12.873  14.078
73816SOL    HW123280  11.429  12.834  14.143
73816SOL    HW223281  11.502  12.962  14.109
73817SOL     OW23282   2.199  11.053   6.937
73817SOL    HW123283   2.132  11.002   6.890
73817SOL    HW223284   2.201  11.015   7.025
73818SOL     OW23285   2.468  10.589  10.761
73818SOL    HW123286   2.464  10.667  10.816
73818SOL    HW223287   2.453  10.620  10.672
73819SOL     OW23288   7.372  11.998  14.375
73819SOL    HW123289   7.312  12.052  14.324
73819SOL    HW223290   7.354  11.908  14.347
73820SOL     OW23291   4.448   2.257   8.233
73820SOL    HW123292   4.376   2.297   8.282
73820SOL    HW223293   4.436   2.163   8.244
73821SOL     OW23294   8.363  11.657  10.589
73821SOL    HW123295   8.328  11.746  10.583
73821SOL    HW223296   8.331  11.623  10.672
73822SOL     OW23297   4.182  10.425   0.524
73822SOL    HW123298   4.237  10.461   0.454
73822SOL    HW223299   4.227  10.450   0.604
73823SOL     OW23300  12.948   6.290  12.278
73823SOL    HW123301  12.951   6.290  12.373
73823SOL    HW223302  12.865   6.333  12.256
73824SOL     OW23303   5.370   3.632   1.556
73824SOL    HW123304   5.312   3.640   1.631
73824SOL    HW223305   5.377   3.721   1.521
73825SOL     OW23306   6.855   9.661   6.218
73825SOL    HW123307   6.791   9.670   6.289
73825SOL    HW223308   6.835   9.576   6.179
73826SOL     OW23309   9.246   8.592  14.760
73826SOL    HW123310   9.275   8.681  14.781
73826SOL    HW223311   9.222   8.595  14.668
73827SOL     OW23312   0.597   1.361   5.558
73827SOL    HW123313   0.670   1.356   5.620
73827SOL    HW223314   0.598   1.452   5.528
73828SOL     OW23315  13.951   8.867  14.737
73828SOL    HW123316  13.912   8.895  14.820
73828SOL    HW223317  13.912   8.781  14.720
73829SOL     OW23318   7.296   0.460   7.451
73829SOL    HW123319   7.208   0.497   7.439
73829SOL    HW223320   7.301   0.389   7.387
73830SOL     OW23321   9.405   3.956   8.075
73830SOL    HW123322   9.451   3.976   8.157
73830SOL    HW223323   9.420   3.862   8.062
73831SOL     OW23324   9.945  12.249   3.481
73831SOL    HW123325  10.013  12.205   3.531
73831SOL    HW223326   9.913  12.183   3.420
73832SOL     OW23327  13.913   4.023   0.432
73832SOL    HW123328  13.990   4.048   0.380
73832SOL    HW223329  13.879   4.106   0.465
73833SOL     OW23330   4.205  12.741  12.007
73833SOL    HW123331   4.159  12.815  12.047
73833SOL    HW223332   4.298  12.764  12.015
73834SOL     OW23333  13.290   6.469   7.985
73834SOL    HW123334  13.268   6.506   7.900
73834SOL    HW223335  13.224   6.402   8.000
73835SOL     OW23336  11.712   3.553   2.894
73835SOL    HW123337  11.748   3.493   2.959
73835SOL    HW223338  11.644   3.602   2.940
73836SOL     OW23339   1.948   3.294  14.477
73836SOL    HW123340   1.940   3.359  14.408
73836SOL    HW223341   1.931   3.211  14.435
73837SOL     OW23342  10.593   1.537   0.470
73837SOL    HW123343  10.567   1.469   0.532
73837SOL    HW223344  10.562   1.619   0.509
73838SOL     OW23345   6.276  11.088  13.543
73838SOL    HW123346   6.244  11.063  13.456
73838SOL    HW223347   6.204  11.066  13.602
73839SOL     OW23348   8.457   6.972  10.827
73839SOL    HW123349   8.487   6.882  10.841
73839SOL    HW223350   8.522   7.009  10.767
73840SOL     OW23351   6.389  11.932   2.984
73840SOL    HW123352   6.478  11.952   2.953
73840SOL    HW223353   6.380  11.984   3.065
73841SOL     OW23354   6.360  12.929  14.155
73841SOL    HW123355   6.337  13.022  14.144
73841SOL    HW223356   6.278  12.887  14.179
73842SOL     OW23357  10.665  10.642   5.469
73842SOL    HW123358  10.711  10.591   5.403
73842SOL    HW223359  10.606  10.580   5.511
73843SOL     OW23360  11.619   6.996   2.785
73843SOL    HW123361  11.565   7.043   2.721
73843SOL    HW223362  11.666   7.065   2.832
73844SOL     OW23363   8.885   6.956   3.176
73844SOL    HW123364   8.905   6.946   3.083
73844SOL    HW223365   8.884   6.867   3.211
73845SOL     OW23366   3.671   9.823  13.869
73845SOL    HW123367   3.633   9.736  13.880
73845SOL    HW223368   3.673   9.835  13.774
73846SOL     OW23369   5.439   6.062   9.701
73846SOL    HW123370   5.434   6.026   9.790
73846SOL    HW223371   5.520   6.114   9.701
73847SOL     OW23372   0.470   8.662   0.502
73847SOL    HW123373   0.534   8.614   0.449
73847SOL    HW223374   0.500   8.651   0.592
73848SOL     OW23375  10.153  12.685  11.928
73848SOL    HW123376  10.245  12.713  11.926
73848SOL    HW223377  10.121  12.702  11.839
73849SOL     OW23378   7.449   4.306   2.213
73849SOL    HW123379   7.520   4.266   2.264
73849SOL    HW223380   7.455   4.400   2.232
73850SOL     OW23381   8.705  12.360  10.777
73850SOL    HW123382   8.738  12.275  10.806
73850SOL    HW223383   8.780  12.402  10.736
73851SOL     OW23384   6.614   2.870   6.540
73851SOL    HW123385   6.580   2.959   6.536
73851SOL    HW223386   6.668   2.861   6.462
73852SOL     OW23387   1.856   4.188  14.124
73852SOL    HW123388   1.780   4.218  14.174
73852SOL    HW223389   1.819   4.144  14.047
73853SOL     OW23390   3.436   1.973  13.785
73853SOL    HW123391   3.480   2.021  13.715
73853SOL    HW223392   3.344   1.998  13.777
73854SOL     OW23393   1.418   0.877  10.906
73854SOL    HW123394   1.363   0.895  10.982
73854SOL    HW223395   1.505   0.908  10.931
73855SOL     OW23396  13.482   6.709   1.686
73855SOL    HW123397  13.446   6.787   1.729
73855SOL    HW223398  13.516   6.740   1.603
73856SOL     OW23399   8.028   3.981   5.000
73856SOL    HW123400   8.038   3.908   4.939
73856SOL    HW223401   7.999   4.054   4.945
73857SOL     OW23402   9.666  10.873   5.893
73857SOL    HW123403   9.661  10.893   5.986
73857SOL    HW223404   9.634  10.952   5.850
73858SOL     OW23405   8.907   4.081  12.055
73858SOL    HW123406   8.967   4.012  12.026
73858SOL    HW223407   8.843   4.034  12.110
73859SOL     OW23408   4.158   1.201  10.181
73859SOL    HW123409   4.170   1.238  10.094
73859SOL    HW223410   4.068   1.169  10.181
73860SOL     OW23411   7.005   9.319   3.877
73860SOL    HW123412   7.010   9.328   3.973
73860SOL    HW223413   7.091   9.284   3.852
73861SOL     OW23414   5.957  12.448  12.657
73861SOL    HW123415   6.023  12.452  12.587
73861SOL    HW223416   6.003  12.408  12.730
73862SOL     OW23417   3.714  12.073   5.449
73862SOL    HW123418   3.649  12.003   5.442
73862SOL    HW223419   3.746  12.068   5.539
73863SOL     OW23420   2.115   1.940  12.641
73863SOL    HW123421   2.084   2.029  12.653
73863SOL    HW223422   2.051   1.885  12.687
73864SOL     OW23423  11.013  13.841  11.356
73864SOL    HW123424  11.024  13.809  11.266
73864SOL    HW223425  11.095  13.820  11.399
73865SOL     OW23426  12.142   8.603   0.162
73865SOL    HW123427  12.152   8.523   0.111
73865SOL    HW223428  12.071   8.651   0.118
73866SOL     OW23429   1.952  11.254   8.408
73866SOL    HW123430   2.031  11.256   8.462
73866SOL    HW223431   1.965  11.325   8.345
73867SOL     OW23432  13.451  12.660  11.532
73867SOL    HW123433  13.481  12.612  11.609
73867SOL    HW223434  13.387  12.602  11.491
73868SOL     OW23435   9.153  14.471   7.579
73868SOL    HW123436   9.066  14.503   7.603
73868SOL    HW223437   9.140  14.432   7.492
73869SOL     OW23438   2.841   8.764   8.942
73869SOL    HW123439   2.776   8.697   8.963
73869SOL    HW223440   2.893   8.724   8.872
73870SOL     OW23441   7.773   6.774   6.917
73870SOL    HW123442   7.821   6.714   6.973
73870SOL    HW223443   7.748   6.722   6.841
73871SOL     OW23444   7.243  12.487  11.780
73871SOL    HW123445   7.201  12.451  11.858
73871SOL    HW223446   7.177  12.477  11.711
73872SOL     OW23447   0.281   0.266   9.648
73872SOL    HW123448   0.266   0.361   9.653
73872SOL    HW223449   0.219   0.236   9.581
73873SOL     OW23450  13.247   5.192   8.497
73873SOL    HW123451  13.331   5.221   8.460
73873SOL    HW223452  13.235   5.247   8.574
73874SOL     OW23453   1.761  13.052   4.542
73874SOL    HW123454   1.714  13.134   4.557
73874SOL    HW223455   1.840  13.077   4.495
73875SOL     OW23456   1.564   4.705   5.109
73875SOL    HW123457   1.523   4.764   5.047
73875SOL    HW223458   1.653   4.739   5.120
73876SOL     OW23459   4.372  14.571   0.244
73876SOL    HW123460   4.453  14.523   0.259
73876SOL    HW223461   4.305  14.503   0.234
73877SOL     OW23462   1.807  14.235  13.967
73877SOL    HW123463   1.755  14.314  13.980
73877SOL    HW223464   1.752  14.164  14.000
73878SOL     OW23465   8.932   9.845   0.350
73878SOL    HW123466   8.971   9.931   0.361
73878SOL    HW223467   9.000   9.793   0.308
73879SOL     OW23468   5.271   3.521   2.460
73879SOL    HW123469   5.301   3.436   2.493
73879SOL    HW223470   5.291   3.582   2.531
73880SOL     OW23471   8.214   8.717   1.495
73880SOL    HW123472   8.165   8.637   1.475
73880SOL    HW223473   8.202   8.773   1.418
73881SOL     OW23474  10.918  14.535   7.560
73881SOL    HW123475  10.986  14.485   7.604
73881SOL    HW223476  10.917  14.619   7.605
73882SOL     OW23477   9.470   3.397   2.749
73882SOL    HW123478   9.517   3.377   2.668
73882SOL    HW223479   9.517   3.349   2.817
73883SOL     OW23480  11.431   7.506  10.932
73883SOL    HW123481  11.340   7.533  10.933
73883SOL    HW223482  11.457   7.510  10.840
73884SOL     OW23483  12.804   9.985   1.366
73884SOL    HW123484  12.899   9.971   1.364
73884SOL    HW223485  12.788  10.026   1.452
73885SOL     OW23486   9.819   7.999   9.015
73885SOL    HW123487   9.772   7.918   9.034
73885SOL    HW223488   9.811   8.010   8.920
73886SOL     OW23489   3.829   8.526   9.931
73886SOL    HW123490   3.898   8.475   9.888
73886SOL    HW223491   3.873   8.605   9.962
73887SOL     OW23492   8.889   5.572   9.601
73887SOL    HW123493   8.825   5.621   9.550
73887SOL    HW223494   8.945   5.639   9.640
73888SOL     OW23495   6.887   7.902  14.436
73888SOL    HW123496   6.976   7.868  14.422
73888SOL    HW223497   6.832   7.851  14.376
73889SOL     OW23498   4.725   3.841   8.164
73889SOL    HW123499   4.779   3.780   8.113
73889SOL    HW223500   4.700   3.909   8.101
73890SOL     OW23501  12.616   0.369   1.203
73890SOL    HW123502  12.549   0.402   1.143
73890SOL    HW223503  12.661   0.300   1.153
73891SOL     OW23504   0.344   3.604   8.094
73891SOL    HW123505   0.392   3.623   8.175
73891SOL    HW223506   0.401   3.638   8.024
73892SOL     OW23507  13.776   2.295   1.409
73892SOL    HW123508  13.813   2.346   1.337
73892SOL    HW223509  13.831   2.216   1.413
73893SOL     OW23510   8.235   1.187  14.476
73893SOL    HW123511   8.143   1.213  14.474
73893SOL    HW223512   8.243   1.121  14.408
73894SOL     OW23513   6.422   4.423   1.437
73894SOL    HW123514   6.410   4.362   1.510
73894SOL    HW223515   6.471   4.496   1.474
73895SOL     OW23516   4.011   6.142  13.055
73895SOL    HW123517   3.934   6.153  13.001
73895SOL    HW223518   3.992   6.193  13.134
73896SOL     OW23519   4.647  10.676   5.587
73896SOL    HW123520   4.572  10.646   5.537
73896SOL    HW223521   4.721  10.673   5.525
73897SOL     OW23522  10.506  13.428  10.441
73897SOL    HW123523  10.521  13.418  10.535
73897SOL    HW223524  10.576  13.486  10.412
73898SOL     OW23525   8.440   5.081   6.660
73898SOL    HW123526   8.429   5.139   6.584
73898SOL    HW223527   8.460   5.140   6.733
73899SOL     OW23528   6.077   0.860  10.012
73899SOL    HW123529   6.145   0.904  10.062
73899SOL    HW223530   6.058   0.919   9.940
73900SOL     OW23531  12.385  14.183   3.361
73900SOL    HW123532  12.369  14.089   3.355
73900SOL    HW223533  12.480  14.192   3.358
73901SOL     OW23534   3.755  12.455   5.645
73901SOL    HW123535   3.839  12.450   5.600
73901SOL    HW223536   3.767  12.524   5.711
73902SOL     OW23537   3.461   5.687   4.184
73902SOL    HW123538   3.438   5.723   4.099
73902SOL    HW223539   3.549   5.720   4.201
73903SOL     OW23540  10.697  14.253   2.329
73903SOL    HW123541  10.658  14.181   2.379
73903SOL    HW223542  10.770  14.283   2.382
73904SOL     OW23543   0.537  14.824   1.591
73904SOL    HW123544   0.502  14.737   1.570
73904SOL    HW223545   0.621  14.806   1.633
73905SOL     OW23546  12.856   1.806   8.544
73905SOL    HW123547  12.811   1.729   8.509
73905SOL    HW223548  12.795   1.878   8.532
73906SOL     OW23549   7.073   9.968  12.998
73906SOL    HW123550   7.137   9.944  13.065
73906SOL    HW223551   7.113  10.041  12.951
73907SOL     OW23552   9.358  13.980   8.720
73907SOL    HW123553   9.364  14.055   8.660
73907SOL    HW223554   9.446  13.942   8.718
73908SOL     OW23555  10.391   0.404   9.846
73908SOL    HW123556  10.318   0.416   9.907
73908SOL    HW223557  10.384   0.312   9.818
73909SOL     OW23558   7.587   0.835   7.143
73909SOL    HW123559   7.653   0.783   7.096
73909SOL    HW223560   7.602   0.816   7.236
73910SOL     OW23561   0.598   2.498   5.623
73910SOL    HW123562   0.538   2.491   5.697
73910SOL    HW223563   0.557   2.446   5.554
73911SOL     OW23564   7.931  11.286   2.428
73911SOL    HW123565   8.008  11.296   2.485
73911SOL    HW223566   7.866  11.346   2.464
73912SOL     OW23567  10.416   7.820   6.278
73912SOL    HW123568  10.404   7.729   6.250
73912SOL    HW223569  10.503   7.821   6.319
73913SOL     OW23570   5.594   1.216   3.323
73913SOL    HW123571   5.646   1.195   3.400
73913SOL    HW223572   5.531   1.144   3.315
73914SOL     OW23573   9.964   0.554   2.542
73914SOL    HW123574   9.907   0.481   2.520
73914SOL    HW223575  10.028   0.518   2.603
73915SOL     OW23576   0.726   2.809  11.850
73915SOL    HW123577   0.636   2.842  11.843
73915SOL    HW223578   0.763   2.823  11.763
73916SOL     OW23579   4.736   2.703   5.425
73916SOL    HW123580   4.701   2.667   5.507
73916SOL    HW223581   4.790   2.777   5.453
73917SOL     OW23582  10.645   0.697   9.544
73917SOL    HW123583  10.659   0.791   9.534
73917SOL    HW223584  10.585   0.689   9.618
73918SOL     OW23585   9.182   3.341   3.809
73918SOL    HW123586   9.118   3.361   3.876
73918SOL    HW223587   9.178   3.415   3.749
73919SOL     OW23588   5.942  10.596  13.526
73919SOL    HW123589   5.926  10.659  13.597
73919SOL    HW223590   5.888  10.520  13.549
73920SOL     OW23591   6.379  14.301  10.778
73920SOL    HW123592   6.444  14.370  10.793
73920SOL    HW223593   6.329  14.297  10.860
73921SOL     OW23594   4.708   0.712   0.167
73921SOL    HW123595   4.701   0.808   0.159
73921SOL    HW223596   4.734   0.697   0.257
73922SOL     OW23597   0.936  14.462   0.907
73922SOL    HW123598   0.846  14.470   0.875
73922SOL    HW223599   0.958  14.370   0.893
73923SOL     OW23600  13.266   2.638   7.329
73923SOL    HW123601  13.196   2.586   7.290
73923SOL    HW223602  13.248   2.636   7.423
73924SOL     OW23603   5.910   4.026   1.252
73924SOL    HW123604   5.988   4.080   1.244
73924SOL    HW223605   5.879   4.014   1.163
73925SOL     OW23606  12.773   2.113   9.523
73925SOL    HW123607  12.764   2.205   9.549
73925SOL    HW223608  12.745   2.112   9.431
73926SOL     OW23609   7.795  10.766  12.833
73926SOL    HW123610   7.855  10.692  12.822
73926SOL    HW223611   7.718  10.742  12.783
73927SOL     OW23612   2.137   5.875  11.588
73927SOL    HW123613   2.185   5.851  11.509
73927SOL    HW223614   2.192   5.941  11.630
73928SOL     OW23615   4.937   0.200   5.444
73928SOL    HW123616   5.010   0.249   5.482
73928SOL    HW223617   4.918   0.245   5.362
73929SOL     OW23618  12.386  12.602   6.795
73929SOL    HW123619  12.463  12.578   6.744
73929SOL    HW223620  12.311  12.574   6.743
73930SOL     OW23621  13.957   1.754   5.248
73930SOL    HW123622  13.910   1.682   5.291
73930SOL    HW223623  14.023   1.711   5.193
73931SOL     OW23624   6.580  14.171   8.213
73931SOL    HW123625   6.548  14.132   8.131
73931SOL    HW223626   6.500  14.189   8.263
73932SOL     OW23627   9.655  11.664  12.712
73932SOL    HW123628   9.636  11.585  12.661
73932SOL    HW223629   9.738  11.697  12.678
73933SOL     OW23630  12.032   3.702   7.018
73933SOL    HW123631  11.980   3.708   6.938
73933SOL    HW223632  12.087   3.780   7.016
73934SOL     OW23633   0.472   0.955  13.596
73934SOL    HW123634   0.542   0.934  13.659
73934SOL    HW223635   0.462   0.874  13.545
73935SOL     OW23636   2.409   8.472  14.174
73935SOL    HW123637   2.356   8.392  14.169
73935SOL    HW223638   2.367   8.531  14.112
73936SOL     OW23639   8.836   3.232  11.821
73936SOL    HW123640   8.826   3.327  11.818
73936SOL    HW223641   8.815   3.203  11.732
73937SOL     OW23642  13.118   7.083   5.057
73937SOL    HW123643  13.168   7.004   5.041
73937SOL    HW223644  13.053   7.085   4.987
73938SOL     OW23645   2.194   7.953  10.743
73938SOL    HW123646   2.216   7.922  10.831
73938SOL    HW223647   2.254   7.905  10.686
73939SOL     OW23648   5.819  12.089   5.481
73939SOL    HW123649   5.752  12.035   5.523
73939SOL    HW223650   5.770  12.159   5.438
73940SOL     OW23651   9.877   5.556   1.910
73940SOL    HW123652   9.864   5.508   1.828
73940SOL    HW223653   9.931   5.631   1.885
73941SOL     OW23654  14.250   9.379  13.845
73941SOL    HW123655  14.293   9.332  13.773
73941SOL    HW223656  14.178   9.426  13.802
73942SOL     OW23657   4.014   3.718  13.254
73942SOL    HW123658   4.035   3.712  13.161
73942SOL    HW223659   4.095   3.748  13.295
73943SOL     OW23660   7.985   3.294  14.593
73943SOL    HW123661   7.902   3.276  14.548
73943SOL    HW223662   8.029   3.210  14.598
73944SOL     OW23663  13.708  11.320   5.718
73944SOL    HW123664  13.657  11.389   5.674
73944SOL    HW223665  13.643  11.266   5.762
73945SOL     OW23666   3.842   0.645   3.018
73945SOL    HW123667   3.809   0.583   3.083
73945SOL    HW223668   3.888   0.711   3.070
73946SOL     OW23669   2.131   4.003   4.844
73946SOL    HW123670   2.079   3.927   4.871
73946SOL    HW223671   2.073   4.051   4.785
73947SOL     OW23672   2.502   5.667   0.259
73947SOL    HW123673   2.433   5.674   0.193
73947SOL    HW223674   2.522   5.758   0.282
73948SOL     OW23675   1.874   0.930   5.222
73948SOL    HW123676   1.933   0.890   5.287
73948SOL    HW223677   1.841   0.857   5.171
73949SOL     OW23678  13.276   8.601   4.987
73949SOL    HW123679  13.268   8.513   5.025
73949SOL    HW223680  13.368   8.607   4.962
73950SOL     OW23681  13.162  10.765   1.097
73950SOL    HW123682  13.127  10.753   1.184
73950SOL    HW223683  13.087  10.788   1.043
73951SOL     OW23684   0.035  13.147   3.492
73951SOL    HW123685   0.073  13.170   3.408
73951SOL    HW223686   0.002  13.230   3.527
73952SOL     OW23687   1.525  11.611   5.072
73952SOL    HW123688   1.509  11.518   5.090
73952SOL    HW223689   1.596  11.635   5.132
73953SOL     OW23690   9.268  11.354  11.003
73953SOL    HW123691   9.274  11.260  10.990
73953SOL    HW223692   9.197  11.366  11.066
73954SOL     OW23693   0.448   1.790   4.106
73954SOL    HW123694   0.486   1.737   4.036
73954SOL    HW223695   0.400   1.728   4.160
73955SOL     OW23696  11.573   0.945  14.173
73955SOL    HW123697  11.516   0.879  14.134
73955SOL    HW223698  11.596   0.910  14.259
73956SOL     OW23699   8.883   0.413  12.102
73956SOL    HW123700   8.969   0.382  12.131
73956SOL    HW223701   8.886   0.407  12.006
73957SOL     OW23702  12.371  13.411   9.119
73957SOL    HW123703  12.302  13.388   9.181
73957SOL    HW223704  12.345  13.497   9.085
73958SOL     OW23705   6.775   9.645   0.996
73958SOL    HW123706   6.866   9.669   1.009
73958SOL    HW223707   6.761   9.572   1.057
73959SOL     OW23708   3.366   8.666   3.020
73959SOL    HW123709   3.372   8.573   2.999
73959SOL    HW223710   3.456   8.697   3.023
73960SOL     OW23711   5.505   0.721   9.204
73960SOL    HW123712   5.591   0.757   9.223
73960SOL    HW223713   5.451   0.746   9.279
73961SOL     OW23714  13.954   0.721   8.669
73961SOL    HW123715  13.958   0.662   8.594
73961SOL    HW223716  13.888   0.786   8.645
73962SOL     OW23717   0.372   2.122   6.349
73962SOL    HW123718   0.364   2.028   6.329
73962SOL    HW223719   0.461   2.145   6.323
73963SOL     OW23720   2.372  14.790   6.726
73963SOL    HW123721   2.399  14.698   6.719
73963SOL    HW223722   2.279  14.789   6.703
73964SOL     OW23723   1.715   4.371  10.840
73964SOL    HW123724   1.753   4.423  10.910
73964SOL    HW223725   1.620   4.378  10.854
73965SOL     OW23726   6.406  12.796   7.747
73965SOL    HW123727   6.369  12.707   7.751
73965SOL    HW223728   6.397  12.821   7.655
73966SOL     OW23729  12.350   1.862   1.952
73966SOL    HW123730  12.349   1.814   2.035
73966SOL    HW223731  12.286   1.933   1.965
73967SOL     OW23732   6.538  12.531   6.033
73967SOL    HW123733   6.629  12.535   6.004
73967SOL    HW223734   6.543  12.532   6.129
73968SOL     OW23735   8.186   7.804   2.501
73968SOL    HW123736   8.120   7.868   2.475
73968SOL    HW223737   8.239   7.850   2.566
73969SOL     OW23738   3.573  10.601   5.629
73969SOL    HW123739   3.483  10.599   5.597
73969SOL    HW223740   3.615  10.672   5.580
73970SOL     OW23741   7.832   0.068   2.347
73970SOL    HW123742   7.894   0.139   2.367
73970SOL    HW223743   7.779   0.061   2.426
73971SOL     OW23744  13.000   2.573   4.861
73971SOL    HW123745  12.944   2.548   4.934
73971SOL    HW223746  13.089   2.560   4.893
73972SOL     OW23747   2.694   2.579   0.747
73972SOL    HW123748   2.716   2.491   0.779
73972SOL    HW223749   2.763   2.599   0.683
73973SOL     OW23750   7.337   2.866  12.854
73973SOL    HW123751   7.377   2.784  12.826
73973SOL    HW223752   7.319   2.913  12.773
73974SOL     OW23753   3.836   3.550   1.048
73974SOL    HW123754   3.804   3.465   1.019
73974SOL    HW223755   3.756   3.600   1.067
73975SOL     OW23756   3.441  12.100  13.938
73975SOL    HW123757   3.363  12.154  13.924
73975SOL    HW223758   3.438  12.035  13.868
73976SOL     OW23759  12.875   4.379   3.583
73976SOL    HW123760  12.856   4.285   3.586
73976SOL    HW223761  12.792   4.421   3.604
73977SOL     OW23762  11.922  14.139   2.813
73977SOL    HW123763  11.857  14.208   2.797
73977SOL    HW223764  11.904  14.073   2.747
73978SOL     OW23765  12.624   7.883   3.938
73978SOL    HW123766  12.655   7.854   4.024
73978SOL    HW223767  12.640   7.809   3.880
73979SOL     OW23768   1.885  12.097   8.651
73979SOL    HW123769   1.949  12.094   8.723
73979SOL    HW223770   1.835  12.016   8.660
73980SOL     OW23771   9.565  11.708   4.352
73980SOL    HW123772   9.539  11.762   4.426
73980SOL    HW223773   9.536  11.620   4.375
73981SOL     OW23774   4.510   1.203   8.742
73981SOL    HW123775   4.425   1.163   8.726
73981SOL    HW223776   4.517   1.209   8.837
73982SOL     OW23777   7.086   3.770   8.524
73982SOL    HW123778   7.054   3.779   8.614
73982SOL    HW223779   7.088   3.676   8.508
73983SOL     OW23780  13.741   2.296   9.611
73983SOL    HW123781  13.782   2.343   9.538
73983SOL    HW223782  13.758   2.351   9.687
73984SOL     OW23783   2.261   2.544   7.926
73984SOL    HW123784   2.300   2.552   8.012
73984SOL    HW223785   2.311   2.475   7.882
73985SOL     OW23786  11.739  11.237   4.807
73985SOL    HW123787  11.650  11.259   4.834
73985SOL    HW223788  11.791  11.241   4.887
73986SOL     OW23789  14.514   9.723   1.842
73986SOL    HW123790  14.482   9.644   1.885
73986SOL    HW223791  14.466   9.728   1.759
73987SOL     OW23792  14.553  14.865   5.321
73987SOL    HW123793  14.476   0.016   5.372
73987SOL    HW223794  14.612  14.827   5.385
73988SOL     OW23795  12.230  13.508   8.492
73988SOL    HW123796  12.324  13.526   8.500
73988SOL    HW223797  12.193  13.590   8.460
73989SOL     OW23798   7.190   8.750   2.519
73989SOL    HW123799   7.188   8.774   2.611
73989SOL    HW223800   7.118   8.800   2.479
73990SOL     OW23801  10.311   9.192   1.033
73990SOL    HW123802  10.291   9.169   1.124
73990SOL    HW223803  10.372   9.124   1.004
73991SOL     OW23804  12.054   2.490  11.614
73991SOL    HW123805  12.118   2.533  11.557
73991SOL    HW223806  12.107   2.440  11.676
73992SOL     OW23807   8.072   5.162   7.117
73992SOL    HW123808   8.091   5.172   7.024
73992SOL    HW223809   8.137   5.218   7.160
73993SOL     OW23810   8.130   2.752  11.122
73993SOL    HW123811   8.130   2.694  11.198
73993SOL    HW223812   8.052   2.727  11.072
73994SOL     OW23813   3.858   8.201   1.354
73994SOL    HW123814   3.910   8.231   1.280
73994SOL    HW223815   3.920   8.153   1.410
73995SOL     OW23816   0.326   9.817  12.987
73995SOL    HW123817   0.278   9.783  13.062
73995SOL    HW223818   0.263   9.816  12.915
73996SOL     OW23819   2.509   4.628  14.571
73996SOL    HW123820   2.509   4.537  14.598
73996SOL    HW223821   2.561   4.673  14.638
73997SOL     OW23822  13.574  12.665   7.330
73997SOL    HW123823  13.525  12.747   7.335
73997SOL    HW223824  13.519  12.601   7.375
73998SOL     OW23825   1.296  14.206   9.749
73998SOL    HW123826   1.340  14.285   9.779
73998SOL    HW223827   1.224  14.193   9.810
73999SOL     OW23828   6.259  11.112  13.829
73999SOL    HW123829   6.166  11.111  13.804
73999SOL    HW223830   6.286  11.203  13.818
74000SOL     OW23831   6.476  12.659  13.926
74000SOL    HW123832   6.521  12.575  13.923
74000SOL    HW223833   6.485  12.689  14.016
74001SOL     OW23834  12.824   4.494   9.444
74001SOL    HW123835  12.799   4.488   9.536
74001SOL    HW223836  12.744   4.522   9.399
74002SOL     OW23837   7.006  10.738   8.491
74002SOL    HW123838   6.980  10.829   8.476
74002SOL    HW223839   7.065  10.743   8.567
74003SOL     OW23840   2.589   0.752   4.818
74003SOL    HW123841   2.645   0.679   4.789
74003SOL    HW223842   2.645   0.829   4.808
74004SOL     OW23843   2.478  14.846  13.505
74004SOL    HW123844   2.500   0.058  13.537
74004SOL    HW223845   2.393  14.857  13.461
74005SOL     OW23846   5.846   4.877   9.442
74005SOL    HW123847   5.755   4.898   9.424
74005SOL    HW223848   5.883   4.957   9.479
74006SOL     OW23849   1.243   4.513   6.826
74006SOL    HW123850   1.235   4.431   6.776
74006SOL    HW223851   1.337   4.520   6.845
74007SOL     OW23852  14.852   0.736   8.466
74007SOL    HW123853  14.842   0.827   8.494
74007SOL    HW223854   0.030   0.696   8.535
74008SOL     OW23855   3.620   3.713  11.109
74008SOL    HW123856   3.681   3.725  11.036
74008SOL    HW223857   3.547   3.772  11.088
74009SOL     OW23858   5.207   2.674   7.622
74009SOL    HW123859   5.296   2.645   7.601
74009SOL    HW223860   5.173   2.606   7.680
74010SOL     OW23861   5.964   2.490   9.992
74010SOL    HW123862   6.012   2.518  10.070
74010SOL    HW223863   6.015   2.417   9.958
74011SOL     OW23864   0.123   4.957  12.307
74011SOL    HW123865   0.040   4.981  12.266
74011SOL    HW223866   0.116   4.989  12.397
74012SOL     OW23867   5.352   0.631   3.048
74012SOL    HW123868   5.408   0.649   2.972
74012SOL    HW223869   5.296   0.559   3.020
74013SOL     OW23870   6.150  11.982   9.397
74013SOL    HW123871   6.108  12.049   9.452
74013SOL    HW223872   6.196  11.925   9.458
74014SOL     OW23873   6.985  13.246   0.768
74014SOL    HW123874   7.015  13.337   0.769
74014SOL    HW223875   7.025  13.207   0.846
74015SOL     OW23876   3.024  11.074   5.959
74015SOL    HW123877   2.998  11.107   6.045
74015SOL    HW223878   3.101  11.125   5.935
74016SOL     OW23879   2.928   4.504  11.768
74016SOL    HW123880   2.864   4.444  11.731
74016SOL    HW223881   2.876   4.570  11.814
74017SOL     OW23882   5.572   4.024   6.704
74017SOL    HW123883   5.529   4.023   6.618
74017SOL    HW223884   5.654   3.977   6.690
74018SOL     OW23885  10.238  14.512   2.738
74018SOL    HW123886  10.184  14.510   2.817
74018SOL    HW223887  10.303  14.580   2.755
74019SOL     OW23888  14.138   8.256  11.006
74019SOL    HW123889  14.171   8.171  10.976
74019SOL    HW223890  14.044   8.251  10.993
74020SOL     OW23891   3.177   6.995   8.456
74020SOL    HW123892   3.128   7.045   8.391
74020SOL    HW223893   3.173   6.905   8.426
74021SOL     OW23894  12.897   7.435   0.187
74021SOL    HW123895  12.930   7.405   0.103
74021SOL    HW223896  12.923   7.366   0.249
74022SOL     OW23897  14.577  10.794  11.397
74022SOL    HW123898  14.559  10.872  11.344
74022SOL    HW223899  14.534  10.812  11.481
74023SOL     OW23900  13.708  13.587  13.031
74023SOL    HW123901  13.667  13.667  13.065
74023SOL    HW223902  13.688  13.588  12.938
74024SOL     OW23903   7.125   0.067   8.727
74024SOL    HW123904   7.208   0.112   8.741
74024SOL    HW223905   7.083   0.068   8.813
74025SOL     OW23906   8.317   0.446   1.813
74025SOL    HW123907   8.398   0.438   1.862
74025SOL    HW223908   8.248   0.440   1.879
74026SOL     OW23909   6.535   6.851   2.411
74026SOL    HW123910   6.509   6.940   2.435
74026SOL    HW223911   6.555   6.857   2.318
74027SOL     OW23912   6.286   9.835   6.317
74027SOL    HW123913   6.279   9.833   6.412
74027SOL    HW223914   6.369   9.792   6.297
74028SOL     OW23915   2.144   4.304   0.941
74028SOL    HW123916   2.097   4.230   0.979
74028SOL    HW223917   2.217   4.319   1.002
74029SOL     OW23918   9.870   5.425   3.208
74029SOL    HW123919   9.808   5.437   3.280
74029SOL    HW223920   9.853   5.500   3.150
74030SOL     OW23921  12.062   5.228  12.533
74030SOL    HW123922  12.074   5.302  12.593
74030SOL    HW223923  12.040   5.154  12.589
74031SOL     OW23924   7.939  10.054   7.185
74031SOL    HW123925   7.870  10.054   7.251
74031SOL    HW223926   7.980  10.140   7.193
74032SOL     OW23927   7.536   0.361  11.876
74032SOL    HW123928   7.586   0.281  11.895
74032SOL    HW223929   7.535   0.409  11.959
74033SOL     OW23930   0.976  12.377  12.001
74033SOL    HW123931   1.040  12.308  12.020
74033SOL    HW223932   0.894  12.329  11.989
74034SOL     OW23933  12.334   3.967   9.264
74034SOL    HW123934  12.303   3.978   9.355
74034SOL    HW223935  12.355   4.055   9.235
74035SOL     OW23936   4.522   9.420  10.102
74035SOL    HW123937   4.556   9.346  10.051
74035SOL    HW223938   4.556   9.498  10.057
74036SOL     OW23939  14.527   9.015   6.417
74036SOL    HW123940  14.440   9.018   6.377
74036SOL    HW223941  14.581   8.970   6.351
74037SOL     OW23942   7.880  11.041   6.921
74037SOL    HW123943   7.846  11.122   6.960
74037SOL    HW223944   7.940  11.070   6.853
74038SOL     OW23945  11.974  10.901   3.873
74038SOL    HW123946  12.056  10.896   3.923
74038SOL    HW223947  11.906  10.899   3.941
74039SOL     OW23948   5.988  13.358   3.015
74039SOL    HW123949   5.968  13.451   3.009
74039SOL    HW223950   5.922  13.323   3.075
74040SOL     OW23951   7.390   1.363   5.780
74040SOL    HW123952   7.428   1.303   5.716
74040SOL    HW223953   7.466   1.401   5.824
74041SOL     OW23954   9.016  14.094   7.180
74041SOL    HW123955   8.930  14.056   7.166
74041SOL    HW223956   9.078  14.025   7.155
74042SOL     OW23957   6.344  13.857  12.880
74042SOL    HW123958   6.403  13.835  12.807
74042SOL    HW223959   6.265  13.891  12.837
74043SOL     OW23960  13.227   5.719   6.286
74043SOL    HW123961  13.296   5.659   6.256
74043SOL    HW223962  13.249   5.738   6.377
74044SOL     OW23963   4.236  10.068   3.942
74044SOL    HW123964   4.195  10.033   3.863
74044SOL    HW223965   4.180  10.038   4.014
74045SOL     OW23966   6.278  13.561   7.449
74045SOL    HW123967   6.283  13.610   7.367
74045SOL    HW223968   6.359  13.512   7.453
74046SOL     OW23969   0.335  10.339   9.247
74046SOL    HW123970   0.417  10.327   9.295
74046SOL    HW223971   0.309  10.250   9.222
74047SOL     OW23972  10.197   0.443  14.218
74047SOL    HW123973  10.211   0.520  14.162
74047SOL    HW223974  10.285   0.416  14.245
74048SOL     OW23975   2.517   3.288  10.661
74048SOL    HW123976   2.560   3.324  10.738
74048SOL    HW223977   2.467   3.362  10.625
74049SOL     OW23978   1.383   5.789   2.621
74049SOL    HW123979   1.415   5.769   2.709
74049SOL    HW223980   1.390   5.885   2.614
74050SOL     OW23981   2.600  13.947   0.094
74050SOL    HW123982   2.562  13.925   0.010
74050SOL    HW223983   2.690  13.916   0.089
74051SOL     OW23984   8.806   3.690   9.784
74051SOL    HW123985   8.833   3.626   9.850
74051SOL    HW223986   8.764   3.638   9.716
74052SOL     OW23987   3.630   0.851   3.535
74052SOL    HW123988   3.635   0.945   3.547
74052SOL    HW223989   3.617   0.838   3.441
74053SOL     OW23990  14.620  13.734   9.436
74053SOL    HW123991  14.575  13.713   9.518
74053SOL    HW223992  14.568  13.690   9.369
74054SOL     OW23993   5.596   3.320  14.659
74054SOL    HW123994   5.624   3.228  14.661
74054SOL    HW223995   5.631   3.357  14.740
74055SOL     OW23996  13.878  14.871   3.977
74055SOL    HW123997  13.824  14.825   3.913
74055SOL    HW223998  13.859  14.828   4.060
74056SOL     OW23999   0.257  12.648   0.842
74056SOL    HW124000   0.338  12.676   0.886
74056SOL    HW224001   0.236  12.563   0.881
74057SOL     OW24002  13.814  11.735   4.872
74057SOL    HW124003  13.840  11.800   4.937
74057SOL    HW224004  13.724  11.712   4.895
74058SOL     OW24005   2.828  13.124  10.716
74058SOL    HW124006   2.794  13.092  10.800
74058SOL    HW224007   2.906  13.173  10.739
74059SOL     OW24008  12.086   1.625  12.760
74059SOL    HW124009  12.030   1.558  12.721
74059SOL    HW224010  12.027   1.698  12.780
74060SOL     OW24011   0.702  12.284  13.845
74060SOL    HW124012   0.666  12.196  13.841
74060SOL    HW224013   0.739  12.299  13.758
74061SOL     OW24014   8.254   0.556   0.096
74061SOL    HW124015   8.327   0.618   0.090
74061SOL    HW224016   8.182   0.600   0.050
74062SOL     OW24017  13.090  13.069   0.559
74062SOL    HW124018  13.182  13.090   0.542
74062SOL    HW224019  13.081  13.071   0.654
74063SOL     OW24020   7.866   1.369   8.685
74063SOL    HW124021   7.894   1.430   8.753
74063SOL    HW224022   7.836   1.426   8.614
74064SOL     OW24023   6.155   5.654   8.551
74064SOL    HW124024   6.189   5.571   8.518
74064SOL    HW224025   6.222   5.718   8.528
74065SOL     OW24026   5.117   7.608   3.496
74065SOL    HW124027   5.083   7.520   3.512
74065SOL    HW224028   5.213   7.597   3.496
74066SOL     OW24029  13.064   5.881  13.844
74066SOL    HW124030  13.108   5.835  13.915
74066SOL    HW224031  13.128   5.883  13.773
74067SOL     OW24032  12.233  11.101   2.337
74067SOL    HW124033  12.275  11.102   2.423
74067SOL    HW224034  12.141  11.079   2.356
74068SOL     OW24035  10.639   2.828   2.660
74068SOL    HW124036  10.715   2.848   2.604
74068SOL    HW224037  10.577   2.899   2.642
74069SOL     OW24038   7.162  13.049   0.237
74069SOL    HW124039   7.130  13.125   0.286
74069SOL    HW224040   7.085  13.015   0.191
74070SOL     OW24041   6.409  13.870   9.798
74070SOL    HW124042   6.475  13.885   9.867
74070SOL    HW224043   6.371  13.785   9.820
74071SOL     OW24044   5.647   8.005   3.017
74071SOL    HW124045   5.624   8.061   2.944
74071SOL    HW224046   5.653   7.917   2.979
74072SOL     OW24047  12.229   3.214   4.981
74072SOL    HW124048  12.281   3.221   5.061
74072SOL    HW224049  12.276   3.150   4.927
74073SOL     OW24050   3.996  10.968   0.774
74073SOL    HW124051   3.988  10.944   0.681
74073SOL    HW224052   4.080  10.931   0.801
74074SOL     OW24053  11.320  14.608  13.794
74074SOL    HW124054  11.372  14.608  13.714
74074SOL    HW224055  11.248  14.548  13.776
74075SOL     OW24056   4.207   8.989  12.234
74075SOL    HW124057   4.116   9.012  12.214
74075SOL    HW224058   4.254   9.072  12.228
74076SOL     OW24059   7.435   7.596  13.558
74076SOL    HW124060   7.499   7.586  13.629
74076SOL    HW224061   7.367   7.653  13.595
74077SOL     OW24062   8.625   0.941  10.187
74077SOL    HW124063   8.675   0.884  10.245
74077SOL    HW224064   8.618   0.892  10.105
74078SOL     OW24065   7.992   2.478   3.342
74078SOL    HW124066   8.084   2.504   3.350
74078SOL    HW224067   7.986   2.395   3.388
74079SOL     OW24068   8.524   6.691  13.318
74079SOL    HW124069   8.455   6.649  13.368
74079SOL    HW224070   8.594   6.626  13.313
74080SOL     OW24071  11.174   2.593   8.434
74080SOL    HW124072  11.178   2.688   8.448
74080SOL    HW224073  11.198   2.581   8.343
74081SOL     OW24074   5.513   0.148   6.942
74081SOL    HW124075   5.471   0.197   7.014
74081SOL    HW224076   5.607   0.158   6.958
74082SOL     OW24077  14.222  10.957   3.709
74082SOL    HW124078  14.301  10.904   3.716
74082SOL    HW224079  14.241  11.020   3.639
74083SOL     OW24080   1.637   0.846   1.075
74083SOL    HW124081   1.658   0.753   1.082
74083SOL    HW224082   1.691   0.888   1.143
74084SOL     OW24083  11.272   3.750   0.356
74084SOL    HW124084  11.260   3.745   0.451
74084SOL    HW224085  11.188   3.720   0.320
74085SOL     OW24086  13.417   4.987   9.918
74085SOL    HW124087  13.503   5.010   9.882
74085SOL    HW224088  13.368   4.954   9.842
74086SOL     OW24089  12.496  13.503   2.483
74086SOL    HW124090  12.584  13.519   2.448
74086SOL    HW224091  12.511  13.443   2.557
74087SOL     OW24092   3.427   2.011  13.480
74087SOL    HW124093   3.468   1.933  13.444
74087SOL    HW224094   3.336   1.986  13.495
74088SOL     OW24095   0.466  10.695   0.163
74088SOL    HW124096   0.549  10.706   0.209
74088SOL    HW224097   0.467  10.604   0.133
74089SOL     OW24098  11.410   3.188   0.770
74089SOL    HW124099  11.421   3.244   0.693
74089SOL    HW224100  11.386   3.248   0.840
74090SOL     OW24101  11.920   8.476   2.914
74090SOL    HW124102  12.004   8.447   2.877
74090SOL    HW224103  11.854   8.426   2.866
74091SOL     OW24104  10.274   6.555   4.872
74091SOL    HW124105  10.322   6.633   4.844
74091SOL    HW224106  10.341   6.494   4.902
74092SOL     OW24107   8.443   1.150  11.366
74092SOL    HW124108   8.434   1.056  11.350
74092SOL    HW224109   8.484   1.184  11.286
74093SOL     OW24110   0.389   6.076   0.923
74093SOL    HW124111   0.401   6.056   1.016
74093SOL    HW224112   0.438   6.007   0.877
74094SOL     OW24113   6.571   1.476   8.857
74094SOL    HW124114   6.565   1.398   8.802
74094SOL    HW224115   6.655   1.516   8.833
74095SOL     OW24116   1.250   7.673   0.385
74095SOL    HW124117   1.340   7.646   0.401
74095SOL    HW224118   1.216   7.609   0.324
74096SOL     OW24119   8.642  13.246   4.503
74096SOL    HW124120   8.581  13.298   4.555
74096SOL    HW224121   8.725  13.252   4.551
74097SOL     OW24122   9.017   7.399   6.938
74097SOL    HW124123   9.051   7.362   6.857
74097SOL    HW224124   9.075   7.366   7.007
74098SOL     OW24125  13.563   0.079  10.010
74098SOL    HW124126  13.614   0.033   9.945
74098SOL    HW224127  13.590   0.042  10.094
74099SOL     OW24128  10.229  13.492   6.345
74099SOL    HW124129  10.181  13.459   6.268
74099SOL    HW224130  10.320  13.469   6.328
74100SOL     OW24131  11.251   8.211   3.699
74100SOL    HW124132  11.180   8.245   3.753
74100SOL    HW224133  11.250   8.116   3.715
74101SOL     OW24134   2.879   2.741   3.269
74101SOL    HW124135   2.934   2.683   3.322
74101SOL    HW224136   2.795   2.743   3.315
74102SOL     OW24137  13.454  11.833   6.924
74102SOL    HW124138  13.517  11.857   6.856
74102SOL    HW224139  13.384  11.788   6.876
74103SOL     OW24140   8.667   6.207   7.284
74103SOL    HW124141   8.701   6.233   7.369
74103SOL    HW224142   8.720   6.257   7.221
74104SOL     OW24143  14.696  12.771   7.355
74104SOL    HW124144  14.704  12.727   7.270
74104SOL    HW224145  14.786  12.791   7.380
74105SOL     OW24146   4.777   4.554  12.194
74105SOL    HW124147   4.804   4.477  12.244
74105SOL    HW224148   4.845   4.620  12.212
74106SOL     OW24149   4.522  12.959  12.726
74106SOL    HW124150   4.466  12.909  12.785
74106SOL    HW224151   4.569  12.892  12.676
74107SOL     OW24152   4.151  12.317   3.844
74107SOL    HW124153   4.202  12.337   3.922
74107SOL    HW224154   4.182  12.231   3.817
74108SOL     OW24155  12.141   1.540   0.268
74108SOL    HW124156  12.218   1.531   0.323
74108SOL    HW224157  12.152   1.625   0.225
74109SOL     OW24158   4.140   4.496  11.538
74109SOL    HW124159   4.146   4.588  11.562
74109SOL    HW224160   4.073   4.493  11.469
74110SOL     OW24161   6.826   7.346   5.033
74110SOL    HW124162   6.867   7.286   5.096
74110SOL    HW224163   6.891   7.355   4.963
74111SOL     OW24164   5.857  10.334   4.642
74111SOL    HW124165   5.853  10.266   4.710
74111SOL    HW224166   5.934  10.311   4.590
74112SOL     OW24167  12.447   6.851   9.426
74112SOL    HW124168  12.482   6.772   9.466
74112SOL    HW224169  12.409   6.900   9.499
74113SOL     OW24170   3.359   1.938   1.548
74113SOL    HW124171   3.369   2.023   1.505
74113SOL    HW224172   3.438   1.890   1.526
74114SOL     OW24173   6.846   7.596  14.110
74114SOL    HW124174   6.852   7.648  14.029
74114SOL    HW224175   6.856   7.506  14.081
74115SOL     OW24176  12.116  13.610   0.771
74115SOL    HW124177  12.083  13.527   0.806
74115SOL    HW224178  12.040  13.668   0.770
74116SOL     OW24179   1.392  10.384  10.847
74116SOL    HW124180   1.450  10.447  10.803
74116SOL    HW224181   1.407  10.398  10.940
74117SOL     OW24182   3.017  11.852  14.844
74117SOL    HW124183   3.091  11.890  14.796
74117SOL    HW224184   2.990  11.921   0.030
74118SOL     OW24185   9.234   6.659   5.707
74118SOL    HW124186   9.200   6.745   5.732
74118SOL    HW224187   9.187   6.637   5.626
74119SOL     OW24188   0.681   3.867   0.066
74119SOL    HW124189   0.733   3.942   0.040
74119SOL    HW224190   0.657   3.824  14.859
74120SOL     OW24191  10.302  12.834   6.193
74120SOL    HW124192  10.263  12.767   6.137
74120SOL    HW224193  10.249  12.913   6.177
74121SOL     OW24194   2.642   6.769  11.071
74121SOL    HW124195   2.665   6.682  11.038
74121SOL    HW224196   2.628   6.821  10.992
74122SOL     OW24197   1.103  14.534   4.058
74122SOL    HW124198   1.020  14.516   4.014
74122SOL    HW224199   1.115  14.628   4.050
74123SOL     OW24200   4.204   7.655   5.424
74123SOL    HW124201   4.297   7.634   5.423
74123SOL    HW224202   4.187   7.694   5.339
74124SOL     OW24203   4.086   8.607  13.337
74124SOL    HW124204   4.011   8.621  13.279
74124SOL    HW224205   4.119   8.520  13.313
74125SOL     OW24206  10.455   5.383   3.570
74125SOL    HW124207  10.540   5.383   3.526
74125SOL    HW224208  10.452   5.467   3.616
74126SOL     OW24209   5.034   6.220   8.554
74126SOL    HW124210   4.969   6.291   8.561
74126SOL    HW224211   5.101   6.243   8.618
74127SOL     OW24212   1.831   5.059   6.412
74127SOL    HW124213   1.913   5.036   6.455
74127SOL    HW224214   1.764   5.018   6.467
74128SOL     OW24215  11.535   7.722  12.514
74128SOL    HW124216  11.453   7.673  12.506
74128SOL    HW224217  11.597   7.659  12.552
74129SOL     OW24218  10.840  11.431   2.814
74129SOL    HW124219  10.824  11.396   2.726
74129SOL    HW224220  10.914  11.379   2.847
74130SOL     OW24221  12.385   3.682   0.045
74130SOL    HW124222  12.448   3.624   0.087
74130SOL    HW224223  12.378   3.649  14.831
74131SOL     OW24224  12.539  12.009  10.851
74131SOL    HW124225  12.495  12.065  10.915
74131SOL    HW224226  12.536  11.922  10.890
74132SOL     OW24227  13.915   1.393   2.082
74132SOL    HW124228  13.949   1.421   1.997
74132SOL    HW224229  13.869   1.471   2.115
74133SOL     OW24230   2.891   7.159   1.216
74133SOL    HW124231   2.870   7.152   1.123
74133SOL    HW224232   2.985   7.142   1.222
74134SOL     OW24233  14.256   6.134   1.213
74134SOL    HW124234  14.177   6.093   1.248
74134SOL    HW224235  14.245   6.129   1.118
74135SOL     OW24236   5.170   6.202   7.853
74135SOL    HW124237   5.189   6.282   7.901
74135SOL    HW224238   5.255   6.172   7.821
74136SOL     OW24239   8.707  14.762   7.810
74136SOL    HW124240   8.800  14.784   7.806
74136SOL    HW224241   8.668  14.810   7.736
74137SOL     OW24242  14.190   5.292   0.802
74137SOL    HW124243  14.103   5.323   0.776
74137SOL    HW224244  14.187   5.292   0.898
74138SOL     OW24245  12.657   1.586  10.972
74138SOL    HW124246  12.586   1.624  11.025
74138SOL    HW224247  12.624   1.589  10.882
74139SOL     OW24248   6.050   0.580   7.438
74139SOL    HW124249   6.143   0.582   7.461
74139SOL    HW224250   6.044   0.511   7.372
74140SOL     OW24251   8.591   3.364  14.796
74140SOL    HW124252   8.625   3.275  14.804
74140SOL    HW224253   8.604   3.402   0.008
74141SOL     OW24254  13.226   1.545   3.274
74141SOL    HW124255  13.308   1.548   3.225
74141SOL    HW224256  13.163   1.591   3.220
74142SOL     OW24257   1.797  13.171   2.516
74142SOL    HW124258   1.737  13.177   2.441
74142SOL    HW224259   1.863  13.237   2.499
74143SOL     OW24260  10.800   3.669   6.494
74143SOL    HW124261  10.805   3.750   6.443
74143SOL    HW224262  10.891   3.644   6.510
74144SOL     OW24263   2.341   6.548  13.601
74144SOL    HW124264   2.269   6.596  13.641
74144SOL    HW224265   2.386   6.506  13.675
74145SOL     OW24266  10.549  14.580   8.099
74145SOL    HW124267  10.645  14.587   8.099
74145SOL    HW224268  10.520  14.641   8.032
74146SOL     OW24269  13.753  13.873  13.772
74146SOL    HW124270  13.770  13.898  13.681
74146SOL    HW224271  13.835  13.890  13.817
74147SOL     OW24272  14.152  10.999  12.296
74147SOL    HW124273  14.103  10.956  12.226
74147SOL    HW224274  14.121  11.090  12.294
74148SOL     OW24275  11.540   7.719   7.958
74148SOL    HW124276  11.464   7.747   8.009
74148SOL    HW224277  11.616   7.746   8.010
74149SOL     OW24278  14.749   2.133   4.846
74149SOL    HW124279  14.751   2.206   4.784
74149SOL    HW224280  14.825   2.145   4.901
74150SOL     OW24281  11.061  11.004   0.719
74150SOL    HW124282  11.130  11.070   0.730
74150SOL    HW224283  10.990  11.035   0.774
74151SOL     OW24284   8.361   7.471   7.660
74151SOL    HW124285   8.322   7.533   7.598
74151SOL    HW224286   8.387   7.396   7.606
74152SOL     OW24287   4.710  11.811  13.229
74152SOL    HW124288   4.694  11.871  13.156
74152SOL    HW224289   4.640  11.746  13.222
74153SOL     OW24290   1.734  14.642   4.555
74153SOL    HW124291   1.794  14.583   4.600
74153SOL    HW224292   1.770  14.729   4.570
74154SOL     OW24293   8.456   7.105   2.895
74154SOL    HW124294   8.401   7.182   2.906
74154SOL    HW224295   8.400   7.040   2.853
74155SOL     OW24296   4.986   0.896   2.168
74155SOL    HW124297   5.055   0.938   2.117
74155SOL    HW224298   4.907   0.905   2.115
74156SOL     OW24299  11.690   8.641   0.724
74156SOL    HW124300  11.634   8.641   0.802
74156SOL    HW224301  11.658   8.715   0.672
74157SOL     OW24302   2.176   0.963   5.836
74157SOL    HW124303   2.085   0.988   5.854
74157SOL    HW224304   2.184   0.970   5.741
74158SOL     OW24305  14.631   6.474  12.359
74158SOL    HW124306  14.628   6.403  12.423
74158SOL    HW224307  14.610   6.431  12.275
74159SOL     OW24308   6.128   4.077   8.612
74159SOL    HW124309   6.059   4.022   8.576
74159SOL    HW224310   6.118   4.161   8.567
74160SOL     OW24311   7.323   6.093  11.945
74160SOL    HW124312   7.295   6.002  11.932
74160SOL    HW224313   7.307   6.135  11.861
74161SOL     OW24314   0.448  11.512   0.151
74161SOL    HW124315   0.514  11.443   0.150
74161SOL    HW224316   0.431  11.529   0.243
74162SOL     OW24317   0.399   0.379   2.558
74162SOL    HW124318   0.363   0.349   2.474
74162SOL    HW224319   0.494   0.386   2.542
74163SOL     OW24320   0.263   1.025   1.265
74163SOL    HW124321   0.324   1.000   1.335
74163SOL    HW224322   0.183   1.050   1.311
74164SOL     OW24323   8.722   5.663  12.228
74164SOL    HW124324   8.756   5.594  12.286
74164SOL    HW224325   8.742   5.745  12.274
74165SOL     OW24326   2.757  10.358   0.137
74165SOL    HW124327   2.672  10.387   0.172
74165SOL    HW224328   2.776  10.277   0.184
74166SOL     OW24329   7.811   5.936   6.370
74166SOL    HW124330   7.774   5.923   6.282
74166SOL    HW224331   7.735   5.951   6.426
74167SOL     OW24332  12.599  12.333   1.806
74167SOL    HW124333  12.659  12.261   1.786
74167SOL    HW224334  12.521  12.290   1.841
74168SOL     OW24335   7.437   8.859   0.196
74168SOL    HW124336   7.461   8.875   0.105
74168SOL    HW224337   7.417   8.766   0.201
74169SOL     OW24338  11.355  13.638   3.996
74169SOL    HW124339  11.422  13.697   4.031
74169SOL    HW224340  11.273  13.672   4.032
74170SOL     OW24341   9.936   7.746  14.418
74170SOL    HW124342   9.864   7.789  14.464
74170SOL    HW224343   9.982   7.818  14.375
74171SOL     OW24344   5.579  10.739  11.382
74171SOL    HW124345   5.655  10.681  11.375
74171SOL    HW224346   5.507  10.688  11.343
74172SOL     OW24347   0.568  14.831   5.698
74172SOL    HW124348   0.541  14.743   5.669
74172SOL    HW224349   0.628  14.814   5.771
74173SOL     OW24350   1.610  14.614   9.002
74173SOL    HW124351   1.615  14.543   8.937
74173SOL    HW224352   1.516  14.633   9.009
74174SOL     OW24353   7.945  13.351  10.576
74174SOL    HW124354   7.946  13.422  10.640
74174SOL    HW224355   8.037  13.342  10.549
74175SOL     OW24356  13.523   9.952   9.163
74175SOL    HW124357  13.604   9.980   9.120
74175SOL    HW224358  13.551   9.900   9.238
74176SOL     OW24359   4.923   1.510   3.486
74176SOL    HW124360   4.963   1.491   3.401
74176SOL    HW224361   4.966   1.591   3.514
74177SOL     OW24362   0.948   9.894   2.165
74177SOL    HW124363   0.998   9.940   2.098
74177SOL    HW224364   0.864   9.939   2.168
74178SOL     OW24365   4.914  11.535   8.401
74178SOL    HW124366   4.852  11.510   8.469
74178SOL    HW224367   4.997  11.547   8.448
74179SOL     OW24368   3.566   1.059  12.266
74179SOL    HW124369   3.477   1.052  12.233
74179SOL    HW224370   3.600   0.970  12.262
74180SOL     OW24371  12.984   6.695   4.777
74180SOL    HW124372  13.004   6.638   4.703
74180SOL    HW224373  13.014   6.781   4.750
74181SOL     OW24374   3.821   6.906   2.380
74181SOL    HW124375   3.767   6.949   2.313
74181SOL    HW224376   3.801   6.953   2.461
74182SOL     OW24377   4.891  14.170   8.284
74182SOL    HW124378   4.898  14.183   8.189
74182SOL    HW224379   4.961  14.224   8.321
74183SOL     OW24380   5.901   4.530   5.013
74183SOL    HW124381   5.853   4.567   4.939
74183SOL    HW224382   5.975   4.589   5.026
74184SOL     OW24383   4.082   1.776   3.630
74184SOL    HW124384   4.138   1.709   3.669
74184SOL    HW224385   4.136   1.855   3.629
74185SOL     OW24386  13.263   2.930   5.389
74185SOL    HW124387  13.168   2.926   5.395
74185SOL    HW224388  13.293   2.923   5.480
74186SOL     OW24389  10.527   0.893   3.418
74186SOL    HW124390  10.609   0.942   3.406
74186SOL    HW224391  10.556   0.804   3.439
74187SOL     OW24392   2.394  12.874   4.381
74187SOL    HW124393   2.353  12.831   4.305
74187SOL    HW224394   2.322  12.919   4.425
74188SOL     OW24395   4.371   6.682   2.683
74188SOL    HW124396   4.325   6.640   2.610
74188SOL    HW224397   4.321   6.762   2.699
74189SOL     OW24398   3.717  11.812  10.336
74189SOL    HW124399   3.744  11.743  10.396
74189SOL    HW224400   3.739  11.893  10.382
74190SOL     OW24401   9.249   6.590  10.602
74190SOL    HW124402   9.263   6.500  10.632
74190SOL    HW224403   9.316   6.640  10.649
74191SOL     OW24404   1.532  14.162  11.021
74191SOL    HW124405   1.620  14.126  11.009
74191SOL    HW224406   1.529  14.237  10.961
74192SOL     OW24407   7.488  12.646   7.686
74192SOL    HW124408   7.547  12.722   7.692
74192SOL    HW224409   7.420  12.664   7.751
74193SOL     OW24410   3.648   6.392   6.828
74193SOL    HW124411   3.695   6.454   6.883
74193SOL    HW224412   3.690   6.397   6.743
74194SOL     OW24413  13.448   9.166   7.564
74194SOL    HW124414  13.495   9.084   7.547
74194SOL    HW224415  13.500   9.210   7.631
74195SOL     OW24416  11.328  11.434  13.934
74195SOL    HW124417  11.420  11.428  13.906
74195SOL    HW224418  11.278  11.428  13.853
74196SOL     OW24419   0.423   4.339   2.118
74196SOL    HW124420   0.373   4.421   2.112
74196SOL    HW224421   0.375   4.286   2.182
74197SOL     OW24422   1.842  11.464  13.088
74197SOL    HW124423   1.842  11.494  12.997
74197SOL    HW224424   1.789  11.529  13.134
74198SOL     OW24425   0.271   9.704   9.761
74198SOL    HW124426   0.364   9.719   9.778
74198SOL    HW224427   0.270   9.632   9.698
74199SOL     OW24428  12.638  11.577  12.504
74199SOL    HW124429  12.711  11.526  12.538
74199SOL    HW224430  12.561  11.545  12.553
74200SOL     OW24431   8.699   9.030  11.597
74200SOL    HW124432   8.758   8.984  11.537
74200SOL    HW224433   8.637   8.962  11.626
74201SOL     OW24434  11.215  10.120   8.802
74201SOL    HW124435  11.213  10.041   8.857
74201SOL    HW224436  11.283  10.175   8.842
74202SOL     OW24437   0.208   6.977   5.640
74202SOL    HW124438   0.221   7.043   5.572
74202SOL    HW224439   0.233   6.894   5.599
74203SOL     OW24440   1.487   6.902  12.575
74203SOL    HW124441   1.436   6.962  12.521
74203SOL    HW224442   1.464   6.815  12.542
74204SOL     OW24443   6.246   9.452   4.106
74204SOL    HW124444   6.260   9.544   4.126
74204SOL    HW224445   6.293   9.405   4.175
74205SOL     OW24446   6.843   8.417   0.677
74205SOL    HW124447   6.927   8.385   0.646
74205SOL    HW224448   6.864   8.492   0.732
74206SOL     OW24449   2.402   2.394  11.199
74206SOL    HW124450   2.434   2.342  11.126
74206SOL    HW224451   2.307   2.391  11.191
74207SOL     OW24452   1.484   6.017  12.046
74207SOL    HW124453   1.462   6.030  11.954
74207SOL    HW224454   1.576   6.042  12.053
74208SOL     OW24455   3.847   9.514   4.804
74208SOL    HW124456   3.837   9.500   4.898
74208SOL    HW224457   3.803   9.596   4.786
74209SOL     OW24458  11.802   5.254  11.983
74209SOL    HW124459  11.801   5.347  12.005
74209SOL    HW224460  11.895   5.230  11.987
74210SOL     OW24461   4.713  13.659   2.812
74210SOL    HW124462   4.715  13.683   2.720
74210SOL    HW224463   4.780  13.714   2.853
74211SOL     OW24464   9.715   8.520   1.741
74211SOL    HW124465   9.631   8.527   1.695
74211SOL    HW224466   9.731   8.608   1.775
74212SOL     OW24467   9.774   6.281   5.274
74212SOL    HW124468   9.803   6.371   5.262
74212SOL    HW224469   9.854   6.229   5.264
74213SOL     OW24470   3.953   8.412   9.650
74213SOL    HW124471   4.045   8.427   9.674
74213SOL    HW224472   3.953   8.415   9.555
74214SOL     OW24473  12.151  13.610   4.655
74214SOL    HW124474  12.164  13.688   4.710
74214SOL    HW224475  12.205  13.626   4.578
74215SOL     OW24476  10.597  11.214   0.637
74215SOL    HW124477  10.568  11.152   0.570
74215SOL    HW224478  10.669  11.169   0.681
74216SOL     OW24479  13.437   6.737   0.274
74216SOL    HW124480  13.365   6.746   0.212
74216SOL    HW224481  13.400   6.689   0.348
74217SOL     OW24482  13.170  12.325  13.551
74217SOL    HW124483  13.123  12.359  13.627
74217SOL    HW224484  13.101  12.298  13.490
74218SOL     OW24485   1.402   2.608   8.097
74218SOL    HW124486   1.307   2.598   8.090
74218SOL    HW224487   1.433   2.525   8.133
74219SOL     OW24488  11.636  10.982   2.464
74219SOL    HW124489  11.635  10.926   2.386
74219SOL    HW224490  11.545  11.010   2.474
74220SOL     OW24491   8.103   8.600  11.370
74220SOL    HW124492   8.065   8.592  11.283
74220SOL    HW224493   8.044   8.551  11.427
74221SOL     OW24494  13.560   7.052   7.740
74221SOL    HW124495  13.535   7.083   7.653
74221SOL    HW224496  13.534   7.123   7.799
74222SOL     OW24497   7.468   3.344   1.572
74222SOL    HW124498   7.511   3.352   1.657
74222SOL    HW224499   7.449   3.435   1.546
74223SOL     OW24500   2.473   8.220   5.050
74223SOL    HW124501   2.517   8.293   5.007
74223SOL    HW224502   2.413   8.261   5.112
74224SOL     OW24503   3.955   5.628  11.447
74224SOL    HW124504   3.969   5.580  11.528
74224SOL    HW224505   3.983   5.568  11.378
74225SOL     OW24506   0.068  13.347  10.425
74225SOL    HW124507  14.864  13.367  10.474
74225SOL    HW224508   0.127  13.309  10.489
74226SOL     OW24509  12.042   7.712  13.610
74226SOL    HW124510  11.966   7.723  13.668
74226SOL    HW224511  12.108   7.671  13.666
74227SOL     OW24512  12.709   8.514   0.731
74227SOL    HW124513  12.699   8.599   0.686
74227SOL    HW224514  12.651   8.455   0.683
74228SOL     OW24515   8.618   2.441   1.007
74228SOL    HW124516   8.640   2.534   1.012
74228SOL    HW224517   8.545   2.437   0.944
74229SOL     OW24518   4.555   3.480   3.462
74229SOL    HW124519   4.598   3.396   3.447
74229SOL    HW224520   4.564   3.496   3.555
74230SOL     OW24521   1.310  11.890  12.108
74230SOL    HW124522   1.390  11.922  12.149
74230SOL    HW224523   1.240  11.942  12.148
74231SOL     OW24524  14.534   2.114  13.930
74231SOL    HW124525  14.550   2.134  14.023
74231SOL    HW224526  14.441   2.093  13.926
74232SOL     OW24527   6.883  10.103   3.752
74232SOL    HW124528   6.847  10.024   3.713
74232SOL    HW224529   6.836  10.112   3.835
74233SOL     OW24530   3.334   3.575  12.043
74233SOL    HW124531   3.346   3.624  11.961
74233SOL    HW224532   3.377   3.628  12.109
74234SOL     OW24533   3.444   3.248   9.178
74234SOL    HW124534   3.504   3.320   9.164
74234SOL    HW224535   3.414   3.224   9.090
74235SOL     OW24536   7.328   6.933   5.972
74235SOL    HW124537   7.253   6.971   5.925
74235SOL    HW224538   7.405   6.963   5.924
74236SOL     OW24539   2.035  10.962   3.515
74236SOL    HW124540   2.030  10.876   3.473
74236SOL    HW224541   1.964  10.961   3.579
74237SOL     OW24542   0.643  11.632  13.248
74237SOL    HW124543   0.588  11.685  13.305
74237SOL    HW224544   0.589  11.615  13.171
74238SOL     OW24545   8.393   1.908  12.558
74238SOL    HW124546   8.454   1.955  12.615
74238SOL    HW224547   8.362   1.975  12.496
74239SOL     OW24548   4.071   8.805   1.954
74239SOL    HW124549   4.120   8.726   1.979
74239SOL    HW224550   4.104   8.873   2.011
74240SOL     OW24551   5.105   7.447  13.641
74240SOL    HW124552   5.026   7.431  13.589
74240SOL    HW224553   5.177   7.434  13.580
74241SOL     OW24554   0.567   4.632   3.835
74241SOL    HW124555   0.490   4.649   3.781
74241SOL    HW224556   0.630   4.593   3.775
74242SOL     OW24557   8.370   6.447   4.195
74242SOL    HW124558   8.377   6.450   4.290
74242SOL    HW224559   8.446   6.397   4.167
74243SOL     OW24560   4.771  10.097  12.513
74243SOL    HW124561   4.685  10.120  12.477
74243SOL    HW224562   4.827  10.084  12.437
74244SOL     OW24563  11.240   8.277  11.759
74244SOL    HW124564  11.209   8.367  11.753
74244SOL    HW224565  11.208   8.236  11.678
74245SOL     OW24566  12.208   6.729  12.357
74245SOL    HW124567  12.276   6.729  12.290
74245SOL    HW224568  12.222   6.648  12.405
74246SOL     OW24569  10.250  11.612  13.901
74246SOL    HW124570  10.196  11.554  13.954
74246SOL    HW224571  10.340  11.590  13.927
74247SOL     OW24572   1.577   2.273   1.276
74247SOL    HW124573   1.571   2.365   1.304
74247SOL    HW224574   1.517   2.267   1.202
74248SOL     OW24575   5.865   7.229   4.069
74248SOL    HW124576   5.826   7.311   4.039
74248SOL    HW224577   5.939   7.256   4.124
74249SOL     OW24578  14.220   3.912   6.708
74249SOL    HW124579  14.252   3.827   6.675
74249SOL    HW224580  14.289   3.942   6.767
74250SOL     OW24581   9.449   4.106  10.920
74250SOL    HW124582   9.502   4.179  10.887
74250SOL    HW224583   9.451   4.116  11.015
74251SOL     OW24584   9.840   3.580   8.108
74251SOL    HW124585   9.886   3.643   8.163
74251SOL    HW224586   9.907   3.519   8.080
74252SOL     OW24587  10.268   6.234   2.555
74252SOL    HW124588  10.322   6.292   2.501
74252SOL    HW224589  10.281   6.147   2.517
74253SOL     OW24590  10.932  11.777   4.294
74253SOL    HW124591  11.012  11.827   4.276
74253SOL    HW224592  10.938  11.757   4.388
74254SOL     OW24593   1.154  12.056   7.340
74254SOL    HW124594   1.085  12.122   7.350
74254SOL    HW224595   1.153  12.007   7.422
74255SOL     OW24596  13.561  14.156   9.513
74255SOL    HW124597  13.470  14.185   9.507
74255SOL    HW224598  13.561  14.088   9.580
74256SOL     OW24599   4.691   3.886   3.297
74256SOL    HW124600   4.623   3.936   3.343
74256SOL    HW224601   4.738   3.951   3.245
74257SOL     OW24602  13.123  13.218   1.751
74257SOL    HW124603  13.186  13.213   1.679
74257SOL    HW224604  13.040  13.241   1.708
74258SOL     OW24605   0.759  12.365   5.542
74258SOL    HW124606   0.757  12.306   5.617
74258SOL    HW224607   0.840  12.416   5.553
74259SOL     OW24608   9.946   8.142   1.776
74259SOL    HW124609  10.001   8.219   1.758
74259SOL    HW224610   9.863   8.179   1.804
74260SOL     OW24611   9.089   8.237   8.335
74260SOL    HW124612   9.146   8.213   8.262
74260SOL    HW224613   9.143   8.291   8.391
74261SOL     OW24614  11.677   2.196   2.944
74261SOL    HW124615  11.740   2.157   2.884
74261SOL    HW224616  11.731   2.227   3.018
74262SOL     OW24617   1.035  14.712   7.647
74262SOL    HW124618   1.105  14.774   7.627
74262SOL    HW224619   0.962  14.767   7.677
74263SOL     OW24620   9.443   8.843   7.093
74263SOL    HW124621   9.486   8.879   7.016
74263SOL    HW224622   9.438   8.749   7.076
74264SOL     OW24623  13.999   1.999  10.170
74264SOL    HW124624  14.058   1.972  10.241
74264SOL    HW224625  14.049   1.982  10.090
74265SOL     OW24626   7.890   4.424  10.857
74265SOL    HW124627   7.817   4.484  10.874
74265SOL    HW224628   7.955   4.447  10.923
74266SOL     OW24629   7.270   8.739  11.321
74266SOL    HW124630   7.230   8.668  11.271
74266SOL    HW224631   7.310   8.795  11.254
74267SOL     OW24632   9.955  14.472   6.921
74267SOL    HW124633   9.878  14.527   6.930
74267SOL    HW224634  10.024  14.518   6.968
74268SOL     OW24635   9.421  10.385  11.001
74268SOL    HW124636   9.409  10.385  10.906
74268SOL    HW224637   9.381  10.467  11.030
74269SOL     OW24638  11.830  10.723   4.757
74269SOL    HW124639  11.889  10.744   4.829
74269SOL    HW224640  11.763  10.791   4.759
74270SOL     OW24641   9.398  13.455   0.138
74270SOL    HW124642   9.465  13.408   0.089
74270SOL    HW224643   9.446  13.503   0.205
74271SOL     OW24644   9.738   1.541   3.746
74271SOL    HW124645   9.706   1.522   3.658
74271SOL    HW224646   9.818   1.489   3.754
74272SOL     OW24647   9.649  14.817   0.467
74272SOL    HW124648   9.685   0.006   0.407
74272SOL    HW224649   9.563  14.852   0.492
74273SOL     OW24650   1.980  14.567   8.099
74273SOL    HW124651   1.988  14.618   8.019
74273SOL    HW224652   2.036  14.491   8.085
74274SOL     OW24653   9.339  14.232   0.751
74274SOL    HW124654   9.329  14.222   0.846
74274SOL    HW224655   9.350  14.142   0.718
74275SOL     OW24656   6.950   1.666   1.478
74275SOL    HW124657   6.901   1.748   1.474
74275SOL    HW224658   6.920   1.617   1.401
74276SOL     OW24659   4.469  11.973  11.724
74276SOL    HW124660   4.490  11.889  11.765
74276SOL    HW224661   4.544  11.990  11.667
74277SOL     OW24662  10.513   6.447   6.923
74277SOL    HW124663  10.546   6.361   6.946
74277SOL    HW224664  10.425   6.450   6.961
74278SOL     OW24665   6.237   2.378   3.191
74278SOL    HW124666   6.247   2.294   3.148
74278SOL    HW224667   6.190   2.358   3.273
74279SOL     OW24668  13.440   0.403  12.838
74279SOL    HW124669  13.397   0.318  12.849
74279SOL    HW224670  13.369   0.466  12.847
74280SOL     OW24671   7.152   6.634   5.684
74280SOL    HW124672   7.205   6.583   5.623
74280SOL    HW224673   7.084   6.673   5.629
74281SOL     OW24674  13.325   0.930  12.119
74281SOL    HW124675  13.353   0.875  12.192
74281SOL    HW224676  13.325   0.872  12.043
74282SOL     OW24677   4.837   2.838   1.295
74282SOL    HW124678   4.756   2.810   1.337
74282SOL    HW224679   4.875   2.901   1.356
74283SOL     OW24680   0.797   1.936   6.127
74283SOL    HW124681   0.705   1.959   6.114
74283SOL    HW224682   0.803   1.913   6.220
74284SOL     OW24683  11.812  13.508   3.981
74284SOL    HW124684  11.821  13.414   3.964
74284SOL    HW224685  11.777  13.544   3.900
74285SOL     OW24686  14.637  11.965  13.727
74285SOL    HW124687  14.658  11.894  13.787
74285SOL    HW224688  14.554  11.939  13.687
74286SOL     OW24689   5.301   4.855   1.420
74286SOL    HW124690   5.330   4.806   1.343
74286SOL    HW224691   5.292   4.945   1.389
74287SOL     OW24692  13.260   4.052   0.977
74287SOL    HW124693  13.275   4.131   0.925
74287SOL    HW224694  13.327   3.991   0.947
74288SOL     OW24695   9.900   0.609   9.325
74288SOL    HW124696   9.953   0.583   9.249
74288SOL    HW224697   9.938   0.559   9.398
74289SOL     OW24698   4.831   8.647   8.434
74289SOL    HW124699   4.867   8.722   8.386
74289SOL    HW224700   4.816   8.581   8.366
74290SOL     OW24701  11.104   4.993   1.404
74290SOL    HW124702  11.120   5.014   1.312
74290SOL    HW224703  11.020   5.034   1.423
74291SOL     OW24704   4.940   4.778   4.474
74291SOL    HW124705   4.952   4.762   4.381
74291SOL    HW224706   5.017   4.738   4.515
74292SOL     OW24707   4.904  14.398   2.748
74292SOL    HW124708   4.830  14.381   2.690
74292SOL    HW224709   4.893  14.488   2.777
74293SOL     OW24710  13.610  14.742   3.333
74293SOL    HW124711  13.522  14.774   3.312
74293SOL    HW224712  13.597  14.650   3.355
74294SOL     OW24713  14.379  11.105  12.858
74294SOL    HW124714  14.446  11.090  12.924
74294SOL    HW224715  14.364  11.019  12.818
74295SOL     OW24716   9.919  13.532   1.841
74295SOL    HW124717   9.979  13.465   1.873
74295SOL    HW224718   9.975  13.598   1.800
74296SOL     OW24719   7.106   3.805   6.168
74296SOL    HW124720   7.166   3.826   6.239
74296SOL    HW224721   7.028   3.770   6.212
74297SOL     OW24722   4.923  13.493   2.857
74297SOL    HW124723   4.894  13.439   2.931
74297SOL    HW224724   4.860  13.565   2.853
74298SOL     OW24725  11.793   6.143   9.730
74298SOL    HW124726  11.844   6.089   9.670
74298SOL    HW224727  11.702   6.129   9.704
74299SOL     OW24728   8.205   3.820   2.139
74299SOL    HW124729   8.261   3.766   2.084
74299SOL    HW224730   8.174   3.760   2.207
74300SOL     OW24731  11.778   7.379   3.040
74300SOL    HW124732  11.838   7.452   3.026
74300SOL    HW224733  11.824   7.321   3.101
74301SOL     OW24734   1.123   0.015  12.606
74301SOL    HW124735   1.065   0.040  12.534
74301SOL    HW224736   1.131  14.796  12.600
74302SOL     OW24737   9.700   3.385   6.850
74302SOL    HW124738   9.761   3.335   6.795
74302SOL    HW224739   9.625   3.326   6.863
74303SOL     OW24740   8.614   7.834  10.156
74303SOL    HW124741   8.589   7.925  10.175
74303SOL    HW224742   8.557   7.808  10.084
74304SOL     OW24743   4.021  12.327  11.856
74304SOL    HW124744   4.114  12.327  11.835
74304SOL    HW224745   4.002  12.417  11.883
74305SOL     OW24746   6.827   3.177  13.001
74305SOL    HW124747   6.743   3.200  13.041
74305SOL    HW224748   6.892   3.223  13.053
74306SOL     OW24749   3.754  11.599   3.037
74306SOL    HW124750   3.808  11.579   3.114
74306SOL    HW224751   3.744  11.514   2.993
74307SOL     OW24752   9.566   1.373   7.384
74307SOL    HW124753   9.527   1.298   7.339
74307SOL    HW224754   9.620   1.415   7.316
74308SOL     OW24755  10.096   9.147   3.334
74308SOL    HW124756  10.003   9.128   3.350
74308SOL    HW224757  10.101   9.164   3.240
74309SOL     OW24758   4.061   7.939   6.828
74309SOL    HW124759   3.977   7.893   6.819
74309SOL    HW224760   4.115   7.880   6.881
74310SOL     OW24761   7.513   2.348   8.254
74310SOL    HW124762   7.507   2.331   8.160
74310SOL    HW224763   7.502   2.262   8.295
74311SOL     OW24764   1.513   1.802   0.421
74311SOL    HW124765   1.453   1.727   0.425
74311SOL    HW224766   1.600   1.764   0.437
74312SOL     OW24767   8.798   6.144   6.649
74312SOL    HW124768   8.760   6.145   6.737
74312SOL    HW224769   8.892   6.138   6.664
74313SOL     OW24770  12.167  11.051  13.744
74313SOL    HW124771  12.183  11.017  13.832
74313SOL    HW224772  12.187  10.977  13.686
74314SOL     OW24773  14.191   8.473   2.061
74314SOL    HW124774  14.212   8.556   2.103
74314SOL    HW224775  14.201   8.407   2.130
74315SOL     OW24776   3.751   8.040  13.858
74315SOL    HW124777   3.781   8.045  13.767
74315SOL    HW224778   3.759   8.129  13.891
74316SOL     OW24779  13.339   3.181   5.577
74316SOL    HW124780  13.308   3.102   5.620
74316SOL    HW224781  13.419   3.204   5.625
74317SOL     OW24782  11.489   8.680   2.635
74317SOL    HW124783  11.500   8.775   2.637
74317SOL    HW224784  11.571   8.645   2.670
74318SOL     OW24785   2.347   1.782  11.464
74318SOL    HW124786   2.263   1.780  11.419
74318SOL    HW224787   2.331   1.733  11.545
74319SOL     OW24788  12.359   8.407   1.348
74319SOL    HW124789  12.380   8.488   1.393
74319SOL    HW224790  12.308   8.434   1.272
74320SOL     OW24791   4.301   2.697   2.838
74320SOL    HW124792   4.312   2.640   2.915
74320SOL    HW224793   4.221   2.746   2.856
74321SOL     OW24794   9.223   1.181   0.041
74321SOL    HW124795   9.225   1.170   0.137
74321SOL    HW224796   9.208   1.274   0.028
74322SOL     OW24797   9.154  11.588   7.467
74322SOL    HW124798   9.071  11.620   7.432
74322SOL    HW224799   9.195  11.542   7.393
74323SOL     OW24800   8.630  11.576   2.864
74323SOL    HW124801   8.723  11.598   2.869
74323SOL    HW224802   8.599  11.622   2.786
74324SOL     OW24803   7.458   7.107   5.785
74324SOL    HW124804   7.466   7.183   5.842
74324SOL    HW224805   7.401   7.136   5.714
74325SOL     OW24806   0.823  14.410   4.797
74325SOL    HW124807   0.829  14.374   4.709
74325SOL    HW224808   0.788  14.499   4.784
74326SOL     OW24809   9.844  13.506   5.391
74326SOL    HW124810   9.914  13.569   5.409
74326SOL    HW224811   9.833  13.509   5.296
74327SOL     OW24812  11.704   9.206  14.125
74327SOL    HW124813  11.751   9.187  14.206
74327SOL    HW224814  11.613   9.183  14.143
74328SOL     OW24815  10.734   6.661   2.972
74328SOL    HW124816  10.777   6.711   2.903
74328SOL    HW224817  10.775   6.574   2.968
74329SOL     OW24818   2.025   5.839   3.415
74329SOL    HW124819   1.959   5.858   3.349
74329SOL    HW224820   1.977   5.794   3.484
74330SOL     OW24821   0.054  11.123   0.380
74330SOL    HW124822  14.846  11.167   0.363
74330SOL    HW224823   0.041  11.079   0.464
74331SOL     OW24824   3.877   9.109   1.240
74331SOL    HW124825   3.812   9.097   1.308
74331SOL    HW224826   3.878   9.025   1.192
74332SOL     OW24827   5.092   1.111   8.513
74332SOL    HW124828   5.175   1.082   8.475
74332SOL    HW224829   5.078   1.198   8.475
74333SOL     OW24830  10.005   1.143  12.639
74333SOL    HW124831   9.937   1.136  12.571
74333SOL    HW224832  10.086   1.119  12.594
74334SOL     OW24833   4.595   0.940  14.337
74334SOL    HW124834   4.519   0.903  14.381
74334SOL    HW224835   4.608   1.025  14.378
74335SOL     OW24836   8.695  13.847  11.304
74335SOL    HW124837   8.789  13.857  11.323
74335SOL    HW224838   8.652  13.851  11.389
74336SOL     OW24839   6.897   0.100   5.714
74336SOL    HW124840   6.833   0.083   5.783
74336SOL    HW224841   6.848   0.089   5.632
74337SOL     OW24842  10.286  11.806   1.320
74337SOL    HW124843  10.258  11.897   1.318
74337SOL    HW224844  10.321  11.793   1.408
74338SOL     OW24845   8.430   6.427   8.119
74338SOL    HW124846   8.360   6.486   8.089
74338SOL    HW224847   8.437   6.445   8.213
74339SOL     OW24848   6.351   2.378   9.390
74339SOL    HW124849   6.259   2.376   9.365
74339SOL    HW224850   6.359   2.456   9.446
74340SOL     OW24851  12.121  11.711  13.717
74340SOL    HW124852  12.179  11.787  13.723
74340SOL    HW224853  12.160  11.656  13.649
74341SOL     OW24854   9.297  10.998   2.746
74341SOL    HW124855   9.325  11.061   2.680
74341SOL    HW224856   9.270  11.052   2.821
74342SOL     OW24857  11.891   8.812   2.345
74342SOL    HW124858  11.918   8.857   2.425
74342SOL    HW224859  11.799   8.790   2.360
74343SOL     OW24860   2.080   3.421   0.012
74343SOL    HW124861   2.040   3.479  14.824
74343SOL    HW224862   2.149   3.474   0.053
74344SOL     OW24863  13.007   5.898  10.639
74344SOL    HW124864  12.993   5.816  10.687
74344SOL    HW224865  12.973   5.965  10.698
74345SOL     OW24866  12.558   0.793   1.413
74345SOL    HW124867  12.614   0.717   1.397
74345SOL    HW224868  12.594   0.862   1.358
74346SOL     OW24869   3.404  14.380  14.713
74346SOL    HW124870   3.377  14.296  14.676
74346SOL    HW224871   3.480  14.360  14.767
74347SOL     OW24872  10.407   8.757  14.103
74347SOL    HW124873  10.323   8.713  14.107
74347SOL    HW224874  10.386   8.850  14.111
74348SOL     OW24875  10.023   9.381   8.673
74348SOL    HW124876   9.968   9.459   8.675
74348SOL    HW224877  10.043   9.363   8.764
74349SOL     OW24878  13.979  11.842   2.049
74349SOL    HW124879  13.947  11.931   2.065
74349SOL    HW224880  14.053  11.831   2.110
74350SOL     OW24881   6.780  11.750  13.099
74350SOL    HW124882   6.821  11.668  13.069
74350SOL    HW224883   6.689  11.742  13.071
74351SOL     OW24884   5.971   4.391   4.246
74351SOL    HW124885   6.021   4.309   4.247
74351SOL    HW224886   6.002   4.440   4.322
74352SOL     OW24887   3.448   8.664   9.365
74352SOL    HW124888   3.417   8.716   9.439
74352SOL    HW224889   3.370   8.646   9.313
74353SOL     OW24890   5.175  10.264  14.787
74353SOL    HW124891   5.197  10.348  14.747
74353SOL    HW224892   5.220  10.265  14.872
74354SOL     OW24893   7.967   3.644   0.663
74354SOL    HW124894   8.040   3.681   0.612
74354SOL    HW224895   7.921   3.721   0.698
74355SOL     OW24896  10.206   8.472   6.945
74355SOL    HW124897  10.159   8.556   6.943
74355SOL    HW224898  10.145   8.411   6.986
74356SOL     OW24899   4.584   7.176  13.637
74356SOL    HW124900   4.578   7.258  13.686
74356SOL    HW224901   4.622   7.114  13.700
74357SOL     OW24902   6.663   6.944   2.156
74357SOL    HW124903   6.703   6.964   2.071
74357SOL    HW224904   6.723   6.984   2.220
74358SOL     OW24905  10.018   0.618   9.850
74358SOL    HW124906   9.956   0.687   9.875
74358SOL    HW224907   9.967   0.561   9.792
74359SOL     OW24908   9.561  14.132  12.840
74359SOL    HW124909   9.653  14.121  12.861
74359SOL    HW224910   9.559  14.204  12.777
74360SOL     OW24911  14.478  11.577  13.001
74360SOL    HW124912  14.534  11.595  13.077
74360SOL    HW224913  14.401  11.535  13.039
74361SOL     OW24914  13.898   8.296   9.147
74361SOL    HW124915  13.890   8.296   9.242
74361SOL    HW224916  13.807   8.299   9.115
74362SOL     OW24917  12.913   7.606   7.678
74362SOL    HW124918  12.829   7.650   7.667
74362SOL    HW224919  12.972   7.674   7.709
74363SOL     OW24920   0.521   9.245   8.523
74363SOL    HW124921   0.427   9.261   8.532
74363SOL    HW224922   0.550   9.314   8.463
74364SOL     OW24923   3.119   0.486  10.775
74364SOL    HW124924   3.060   0.420  10.740
74364SOL    HW224925   3.190   0.492  10.710
74365SOL     OW24926   6.821  10.495   2.707
74365SOL    HW124927   6.894  10.553   2.728
74365SOL    HW224928   6.783  10.473   2.792
74366SOL     OW24929   9.451  12.134   3.931
74366SOL    HW124930   9.357  12.152   3.918
74366SOL    HW224931   9.465  12.148   4.024
74367SOL     OW24932  14.695   0.358  13.400
74367SOL    HW124933  14.734   0.289  13.453
74367SOL    HW224934  14.744   0.356  13.318
74368SOL     OW24935  14.627   7.659   2.300
74368SOL    HW124936  14.563   7.707   2.351
74368SOL    HW224937  14.574   7.602   2.243
74369SOL     OW24938  11.712   9.999   0.686
74369SOL    HW124939  11.666   9.952   0.756
74369SOL    HW224940  11.780  10.048   0.731
74370SOL     OW24941   2.342   0.523   6.062
74370SOL    HW124942   2.310   0.613   6.057
74370SOL    HW224943   2.279   0.479   6.119
74371SOL     OW24944  12.266   9.634   2.871
74371SOL    HW124945  12.327   9.705   2.851
74371SOL    HW224946  12.321   9.556   2.873
74372SOL     OW24947  10.997   9.233  10.296
74372SOL    HW124948  10.928   9.166  10.296
74372SOL    HW224949  11.078   9.184  10.312
74373SOL     OW24950   8.091  11.782   1.884
74373SOL    HW124951   8.137  11.864   1.863
74373SOL    HW224952   8.108  11.769   1.978
74374SOL     OW24953   9.106   2.153  10.454
74374SOL    HW124954   9.058   2.228  10.417
74374SOL    HW224955   9.148   2.113  10.378
74375SOL     OW24956   4.889  10.309  12.993
74375SOL    HW124957   4.836  10.250  12.940
74375SOL    HW224958   4.925  10.373  12.931
74376SOL     OW24959   0.171  14.125  10.563
74376SOL    HW124960   0.117  14.061  10.517
74376SOL    HW224961   0.243  14.074  10.600
74377SOL     OW24962  12.447  10.770   4.575
74377SOL    HW124963  12.403  10.764   4.660
74377SOL    HW224964  12.449  10.680   4.543
74378SOL     OW24965   4.732  10.934  10.947
74378SOL    HW124966   4.789  10.895  11.013
74378SOL    HW224967   4.789  10.953  10.873
74379SOL     OW24968   3.026   5.660   1.542
74379SOL    HW124969   3.043   5.581   1.593
74379SOL    HW224970   3.090   5.724   1.574
74380SOL     OW24971  10.466   3.349   5.343
74380SOL    HW124972  10.494   3.387   5.426
74380SOL    HW224973  10.445   3.424   5.288
74381SOL     OW24974   5.992  14.842   5.840
74381SOL    HW124975   5.949  14.762   5.810
74381SOL    HW224976   5.920   0.027   5.858
74382SOL     OW24977   1.420   9.281  13.145
74382SOL    HW124978   1.455   9.333  13.073
74382SOL    HW224979   1.326   9.280  13.130
74383SOL     OW24980   5.462  11.240   1.996
74383SOL    HW124981   5.450  11.329   1.963
74383SOL    HW224982   5.386  11.224   2.052
74384SOL     OW24983   9.764   4.580   9.450
74384SOL    HW124984   9.709   4.501   9.451
74384SOL    HW224985   9.849   4.550   9.483
74385SOL     OW24986   3.478   4.168   4.368
74385SOL    HW124987   3.416   4.225   4.414
74385SOL    HW224988   3.562   4.214   4.373
74386SOL     OW24989  11.489  11.546  13.262
74386SOL    HW124990  11.481  11.625  13.315
74386SOL    HW224991  11.429  11.559  13.189
74387SOL     OW24992   7.769  10.308  12.775
74387SOL    HW124993   7.745  10.401  12.781
74387SOL    HW224994   7.686  10.262  12.786
74388SOL     OW24995  10.289  13.340  11.269
74388SOL    HW124996  10.322  13.266  11.219
74388SOL    HW224997  10.257  13.402  11.203
74389SOL     OW24998  13.784   8.952   1.488
74389SOL    HW124999  13.704   8.979   1.533
74389SOL    HW225000  13.789   8.857   1.504
74390SOL     OW25001   6.560   9.107   8.933
74390SOL    HW125002   6.538   9.044   8.864
74390SOL    HW225003   6.484   9.106   8.992
74391SOL     OW25004   1.091   2.652  13.537
74391SOL    HW125005   1.170   2.642  13.484
74391SOL    HW225006   1.049   2.566  13.535
74392SOL     OW25007   4.283   1.142   3.610
74392SOL    HW125008   4.341   1.201   3.657
74392SOL    HW225009   4.327   1.057   3.612
74393SOL     OW25010  12.107   2.716  14.263
74393SOL    HW125011  12.169   2.787  14.247
74393SOL    HW225012  12.154   2.655  14.320
74394SOL     OW25013   0.485  13.030  13.683
74394SOL    HW125014   0.401  12.985  13.673
74394SOL    HW225015   0.462  13.119  13.711
74395SOL     OW25016   8.902   8.153  13.596
74395SOL    HW125017   8.872   8.070  13.633
74395SOL    HW225018   8.852   8.163  13.515
74396SOL     OW25019  14.372   7.098   0.440
74396SOL    HW125020  14.404   7.168   0.384
74396SOL    HW225021  14.313   7.047   0.385
74397SOL     OW25022   2.097   1.572  13.797
74397SOL    HW125023   2.003   1.577  13.812
74397SOL    HW225024   2.107   1.505  13.729
74398SOL     OW25025  11.896  11.436  10.711
74398SOL    HW125026  11.830  11.498  10.681
74398SOL    HW225027  11.979  11.481  10.695
74399SOL     OW25028   7.612   2.063   7.783
74399SOL    HW125029   7.555   2.116   7.839
74399SOL    HW225030   7.674   2.126   7.745
74400SOL     OW25031   1.975   5.353   3.518
74400SOL    HW125032   1.976   5.312   3.432
74400SOL    HW225033   1.883   5.350   3.546
74401SOL     OW25034  11.776   4.123  11.199
74401SOL    HW125035  11.838   4.128  11.126
74401SOL    HW225036  11.795   4.039  11.241
74402SOL     OW25037   5.443   2.127  10.341
74402SOL    HW125038   5.492   2.113  10.260
74402SOL    HW225039   5.363   2.170  10.312
74403SOL     OW25040   4.272  11.862   6.666
74403SOL    HW125041   4.305  11.952   6.660
74403SOL    HW225042   4.319  11.824   6.740
74404SOL     OW25043   6.703   9.366  11.270
74404SOL    HW125044   6.773   9.392  11.330
74404SOL    HW225045   6.736   9.387  11.183
74405SOL     OW25046  10.984   4.152   3.672
74405SOL    HW125047  11.069   4.177   3.708
74405SOL    HW225048  10.988   4.181   3.581
74406SOL     OW25049   6.755   8.916  10.098
74406SOL    HW125050   6.798   8.831  10.104
74406SOL    HW225051   6.743   8.944  10.188
74407SOL     OW25052   8.430  12.924  10.034
74407SOL    HW125053   8.415  12.869   9.958
74407SOL    HW225054   8.347  12.972  10.045
74408SOL     OW25055   7.355   6.232  13.039
74408SOL    HW125056   7.370   6.269  13.126
74408SOL    HW225057   7.282   6.171  13.052
74409SOL     OW25058   1.613   1.244   7.612
74409SOL    HW125059   1.665   1.213   7.687
74409SOL    HW225060   1.555   1.171   7.592
74410SOL     OW25061   9.606   8.804   7.546
74410SOL    HW125062   9.640   8.877   7.493
74410SOL    HW225063   9.684   8.768   7.589
74411SOL     OW25064  10.578   7.285   2.831
74411SOL    HW125065  10.568   7.319   2.743
74411SOL    HW225066  10.580   7.190   2.820
74412SOL     OW25067  10.423  10.221   1.023
74412SOL    HW125068  10.331  10.197   1.010
74412SOL    HW225069  10.425  10.261   1.110
74413SOL     OW25070  12.365   3.291   9.019
74413SOL    HW125071  12.345   3.316   8.929
74413SOL    HW225072  12.315   3.353   9.073
74414SOL     OW25073  11.722   4.222   7.069
74414SOL    HW125074  11.786   4.152   7.057
74414SOL    HW225075  11.645   4.179   7.105
74415SOL     OW25076   7.640   4.210   6.018
74415SOL    HW125077   7.631   4.188   6.110
74415SOL    HW225078   7.664   4.303   6.018
74416SOL     OW25079   1.860   7.922   7.723
74416SOL    HW125080   1.837   7.969   7.644
74416SOL    HW225081   1.947   7.887   7.706
74417SOL     OW25082   2.365  14.515   3.684
74417SOL    HW125083   2.399  14.426   3.691
74417SOL    HW225084   2.272  14.508   3.705
74418SOL     OW25085   5.537   6.378   7.816
74418SOL    HW125086   5.554   6.287   7.838
74418SOL    HW225087   5.481   6.411   7.887
74419SOL     OW25088  10.784  14.352  13.965
74419SOL    HW125089  10.723  14.409  13.918
74419SOL    HW225090  10.732  14.314  14.035
74420SOL     OW25091   9.456  11.788   3.503
74420SOL    HW125092   9.531  11.832   3.542
74420SOL    HW225093   9.466  11.696   3.529
74421SOL     OW25094   4.189   7.105  11.355
74421SOL    HW125095   4.224   7.185  11.316
74421SOL    HW225096   4.094   7.117  11.353
74422SOL     OW25097  14.031   8.181   1.141
74422SOL    HW125098  14.058   8.164   1.231
74422SOL    HW225099  13.944   8.221   1.148
74423SOL     OW25100   9.876  10.847   4.783
74423SOL    HW125101   9.853  10.791   4.857
74423SOL    HW225102   9.929  10.917   4.821
74424SOL     OW25103   8.026  14.057   8.445
74424SOL    HW125104   8.032  13.975   8.493
74424SOL    HW225105   8.115  14.073   8.412
74425SOL     OW25106   8.083   1.202   3.145
74425SOL    HW125107   8.029   1.259   3.090
74425SOL    HW225108   8.168   1.201   3.103
74426SOL     OW25109  10.658   2.809  12.157
74426SOL    HW125110  10.724   2.759  12.204
74426SOL    HW225111  10.613   2.859  12.226
74427SOL     OW25112   6.846   2.859  11.406
74427SOL    HW125113   6.794   2.859  11.326
74427SOL    HW225114   6.791   2.815  11.471
74428SOL     OW25115   5.744   1.226  12.241
74428SOL    HW125116   5.816   1.250  12.183
74428SOL    HW225117   5.707   1.147  12.202
74429SOL     OW25118   7.076   4.410   9.569
74429SOL    HW125119   7.036   4.329   9.600
74429SOL    HW225120   7.005   4.456   9.525
74430SOL     OW25121   0.723   4.891   7.706
74430SOL    HW125122   0.677   4.848   7.778
74430SOL    HW225123   0.813   4.898   7.737
74431SOL     OW25124  13.615  10.569  12.504
74431SOL    HW125125  13.583  10.503  12.442
74431SOL    HW225126  13.634  10.646  12.451
74432SOL     OW25127   4.422  11.916  10.908
74432SOL    HW125128   4.339  11.915  10.860
74432SOL    HW225129   4.434  11.826  10.937
74433SOL     OW25130   6.761   9.983   4.488
74433SOL    HW125131   6.825  10.033   4.539
74433SOL    HW225132   6.765   9.894   4.524
74434SOL     OW25133  11.918   1.141   4.558
74434SOL    HW125134  11.962   1.118   4.640
74434SOL    HW225135  11.915   1.236   4.558
74435SOL     OW25136   4.840  10.952   5.699
74435SOL    HW125137   4.830  10.893   5.774
74435SOL    HW225138   4.866  11.035   5.738
74436SOL     OW25139   7.375   4.200  14.863
74436SOL    HW125140   7.286   4.191   0.020
74436SOL    HW225141   7.424   4.236   0.061
74437SOL     OW25142   8.338  10.702   7.998
74437SOL    HW125143   8.247  10.676   8.015
74437SOL    HW225144   8.388  10.621   8.008
74438SOL     OW25145   8.697  14.073   6.761
74438SOL    HW125146   8.706  14.028   6.677
74438SOL    HW225147   8.608  14.053   6.789
74439SOL     OW25148  10.041  11.750   7.139
74439SOL    HW125149  10.032  11.705   7.055
74439SOL    HW225150  10.083  11.686   7.196
74440SOL     OW25151   9.556   0.805   7.469
74440SOL    HW125152   9.603   0.888   7.461
74440SOL    HW225153   9.618   0.747   7.513
74441SOL     OW25154  12.699   8.093  10.136
74441SOL    HW125155  12.745   8.177  10.131
74441SOL    HW225156  12.610   8.112  10.108
74442SOL     OW25157   2.792  13.916   8.332
74442SOL    HW125158   2.699  13.939   8.334
74442SOL    HW225159   2.809  13.889   8.242
74443SOL     OW25160  10.558   9.477  10.297
74443SOL    HW125161  10.484   9.419  10.312
74443SOL    HW225162  10.544   9.550  10.358
74444SOL     OW25163  13.106   4.280   2.126
74444SOL    HW125164  13.118   4.351   2.063
74444SOL    HW225165  13.156   4.307   2.203
74445SOL     OW25166   8.170  12.912   9.378
74445SOL    HW125167   8.222  12.881   9.305
74445SOL    HW225168   8.200  12.861   9.453
74446SOL     OW25169   7.516   5.364  10.102
74446SOL    HW125170   7.550   5.451  10.082
74446SOL    HW225171   7.540   5.311  10.026
74447SOL     OW25172   6.857  11.790   1.925
74447SOL    HW125173   6.825  11.870   1.968
74447SOL    HW225174   6.889  11.819   1.840
74448SOL     OW25175  14.415   3.740   7.712
74448SOL    HW125176  14.500   3.696   7.712
74448SOL    HW225177  14.431   3.822   7.758
74449SOL     OW25178   7.106   1.625   9.495
74449SOL    HW125179   7.056   1.552   9.532
74449SOL    HW225180   7.191   1.621   9.540
74450SOL     OW25181   6.891   7.717  13.853
74450SOL    HW125182   6.930   7.657  13.789
74450SOL    HW225183   6.827   7.768  13.804
74451SOL     OW25184   4.646   6.266   9.021
74451SOL    HW125185   4.655   6.188   8.966
74451SOL    HW225186   4.686   6.242   9.104
74452SOL     OW25187   3.084  10.669   2.189
74452SOL    HW125188   3.051  10.654   2.101
74452SOL    HW225189   3.134  10.590   2.210
74453SOL     OW25190   4.997  10.602  14.813
74453SOL    HW125191   5.026  10.692  14.828
74453SOL    HW225192   5.077  10.550  14.815
74454SOL     OW25193  13.924   6.703   0.363
74454SOL    HW125194  13.992   6.655   0.409
74454SOL    HW225195  13.971   6.773   0.317
74455SOL     OW25196   3.604  12.388  13.482
74455SOL    HW125197   3.513  12.362  13.474
74455SOL    HW225198   3.610  12.471  13.436
74456SOL     OW25199   9.370   0.592   5.097
74456SOL    HW125200   9.345   0.681   5.073
74456SOL    HW225201   9.339   0.538   5.025
74457SOL     OW25202   3.095  13.856   5.429
74457SOL    HW125203   3.087  13.875   5.336
74457SOL    HW225204   3.151  13.779   5.433
74458SOL     OW25205   7.848   4.455   4.046
74458SOL    HW125206   7.868   4.499   4.128
74458SOL    HW225207   7.873   4.518   3.978
74459SOL     OW25208   7.439   9.948   6.126
74459SOL    HW125209   7.437  10.043   6.114
74459SOL    HW225210   7.530   9.929   6.149
74460SOL     OW25211  10.983   7.157   2.333
74460SOL    HW125212  10.901   7.206   2.335
74460SOL    HW225213  11.016   7.168   2.244
74461SOL     OW25214   3.620  14.673   2.182
74461SOL    HW125215   3.529  14.694   2.199
74461SOL    HW225216   3.668  14.714   2.254
74462SOL     OW25217   5.237  12.962   4.970
74462SOL    HW125218   5.297  12.941   5.042
74462SOL    HW225219   5.285  13.024   4.916
74463SOL     OW25220  14.316   5.610   3.740
74463SOL    HW125221  14.348   5.700   3.735
74463SOL    HW225222  14.361   5.564   3.669
74464SOL     OW25223   1.671   5.709  10.804
74464SOL    HW125224   1.603   5.643  10.817
74464SOL    HW225225   1.627   5.781  10.759
74465SOL     OW25226   0.462  11.315  14.581
74465SOL    HW125227   0.552  11.289  14.600
74465SOL    HW225228   0.419  11.319  14.667
74466SOL     OW25229  11.176  11.453   3.703
74466SOL    HW125230  11.272  11.462   3.701
74466SOL    HW225231  11.162  11.365   3.740
74467SOL     OW25232   2.727   6.885   7.099
74467SOL    HW125233   2.710   6.891   7.193
74467SOL    HW225234   2.785   6.959   7.080
74468SOL     OW25235   4.203   2.978   8.763
74468SOL    HW125236   4.232   2.932   8.843
74468SOL    HW225237   4.275   3.037   8.742
74469SOL     OW25238  14.602   9.616   7.239
74469SOL    HW125239  14.611   9.549   7.306
74469SOL    HW225240  14.686   9.614   7.192
74470SOL     OW25241   8.662   9.485   7.954
74470SOL    HW125242   8.758   9.490   7.959
74470SOL    HW225243   8.643   9.394   7.934
74471SOL     OW25244   6.033   5.345   1.577
74471SOL    HW125245   6.112   5.376   1.622
74471SOL    HW225246   6.065   5.278   1.517
74472SOL     OW25247   5.677   2.924   3.006
74472SOL    HW125248   5.713   3.007   2.974
74472SOL    HW225249   5.706   2.859   2.941
74473SOL     OW25250   6.443   7.070   9.472
74473SOL    HW125251   6.362   7.023   9.454
74473SOL    HW225252   6.502   7.045   9.401
74474SOL     OW25253   9.888   8.671   1.455
74474SOL    HW125254   9.825   8.693   1.524
74474SOL    HW225255   9.833   8.656   1.377
74475SOL     OW25256   3.469   8.293   4.637
74475SOL    HW125257   3.402   8.353   4.605
74475SOL    HW225258   3.531   8.349   4.684
74476SOL     OW25259   5.413   9.986   0.208
74476SOL    HW125260   5.385   9.926   0.277
74476SOL    HW225261   5.364   9.958   0.130
74477SOL     OW25262   7.792   6.609   1.521
74477SOL    HW125263   7.853   6.576   1.455
74477SOL    HW225264   7.846   6.627   1.597
74478SOL     OW25265   8.837   5.766  11.936
74478SOL    HW125266   8.860   5.855  11.964
74478SOL    HW225267   8.767   5.740  11.995
74479SOL     OW25268  14.127   2.972   0.748
74479SOL    HW125269  14.052   3.030   0.759
74479SOL    HW225270  14.188   3.021   0.694
74480SOL     OW25271   8.272   8.381   3.319
74480SOL    HW125272   8.216   8.352   3.247
74480SOL    HW225273   8.351   8.414   3.276
74481SOL     OW25274  13.571   8.542   7.743
74481SOL    HW125275  13.552   8.629   7.777
74481SOL    HW225276  13.660   8.523   7.774
74482SOL     OW25277   4.192   8.282   9.016
74482SOL    HW125278   4.232   8.258   8.932
74482SOL    HW225279   4.255   8.342   9.056
74483SOL     OW25280   8.168  14.079  12.218
74483SOL    HW125281   8.256  14.062  12.251
74483SOL    HW225282   8.163  14.030  12.136
74484SOL     OW25283   9.806  12.541   6.586
74484SOL    HW125284   9.777  12.454   6.613
74484SOL    HW225285   9.725  12.592   6.580
74485SOL     OW25286   3.116   4.732  10.915
74485SOL    HW125287   3.140   4.773  10.998
74485SOL    HW225288   3.085   4.805  10.861
74486SOL     OW25289   4.600   3.200   8.522
74486SOL    HW125290   4.617   3.266   8.455
74486SOL    HW225291   4.658   3.224   8.595
74487SOL     OW25292   8.208   9.668   0.888
74487SOL    HW125293   8.266   9.716   0.828
74487SOL    HW225294   8.204   9.722   0.966
74488SOL     OW25295   3.028  14.272  13.460
74488SOL    HW125296   2.972  14.197  13.440
74488SOL    HW225297   3.050  14.262  13.552
74489SOL     OW25298  11.536   7.201   8.043
74489SOL    HW125299  11.589   7.148   8.103
74489SOL    HW225300  11.555   7.166   7.956
74490SOL     OW25301  13.062  10.000   4.138
74490SOL    HW125302  12.966  10.001   4.133
74490SOL    HW225303  13.081   9.961   4.223
74491SOL     OW25304  13.225   9.548   3.530
74491SOL    HW125305  13.165   9.506   3.469
74491SOL    HW225306  13.272   9.613   3.477
74492SOL     OW25307   1.019   7.673  11.075
74492SOL    HW125308   1.043   7.676  10.982
74492SOL    HW225309   1.086   7.724  11.119
74493SOL     OW25310   2.939   9.240  14.613
74493SOL    HW125311   2.961   9.294  14.537
74493SOL    HW225312   2.845   9.253  14.624
74494SOL     OW25313   9.714   3.090   4.786
74494SOL    HW125314   9.677   3.178   4.799
74494SOL    HW225315   9.799   3.106   4.745
74495SOL     OW25316   3.175   3.602  14.335
74495SOL    HW125317   3.183   3.695  14.313
74495SOL    HW225318   3.082   3.583  14.324
74496SOL     OW25319   6.270  11.407   4.481
74496SOL    HW125320   6.182  11.421   4.445
74496SOL    HW225321   6.259  11.334   4.542
74497SOL     OW25322  11.964   7.710   1.674
74497SOL    HW125323  11.894   7.650   1.701
74497SOL    HW225324  11.958   7.783   1.737
74498SOL     OW25325   7.017   0.750  13.440
74498SOL    HW125326   6.953   0.822  13.437
74498SOL    HW225327   7.031   0.727  13.348
74499SOL     OW25328   2.136  12.050   9.235
74499SOL    HW125329   2.188  11.995   9.176
74499SOL    HW225330   2.046  12.019   9.224
74500SOL     OW25331   1.367   2.996   0.305
74500SOL    HW125332   1.431   2.977   0.236
74500SOL    HW225333   1.287   3.019   0.257
74501SOL     OW25334  12.116   3.794   4.250
74501SOL    HW125335  12.065   3.772   4.328
74501SOL    HW225336  12.204   3.760   4.268
74502SOL     OW25337   5.475   7.443   0.438
74502SOL    HW125338   5.521   7.425   0.356
74502SOL    HW225339   5.535   7.414   0.507
74503SOL     OW25340   0.850   9.266   7.453
74503SOL    HW125341   0.762   9.263   7.415
74503SOL    HW225342   0.908   9.244   7.380
74504SOL     OW25343  10.772  12.519   5.857
74504SOL    HW125344  10.761  12.468   5.937
74504SOL    HW225345  10.714  12.594   5.869
74505SOL     OW25346   1.222   9.209   7.274
74505SOL    HW125347   1.141   9.167   7.246
74505SOL    HW225348   1.286   9.181   7.208
74506SOL     OW25349   9.240   8.766   3.848
74506SOL    HW125350   9.187   8.710   3.791
74506SOL    HW225351   9.293   8.818   3.788
74507SOL     OW25352  11.363  11.479   6.293
74507SOL    HW125353  11.369  11.518   6.381
74507SOL    HW225354  11.298  11.532   6.248
74508SOL     OW25355   4.458  10.540   3.761
74508SOL    HW125356   4.412  10.457   3.747
74508SOL    HW225357   4.530  10.539   3.698
74509SOL     OW25358   6.122   4.685  11.942
74509SOL    HW125359   6.210   4.685  11.978
74509SOL    HW225360   6.103   4.777  11.924
74510SOL     OW25361  12.974   9.590  10.809
74510SOL    HW125362  12.884   9.598  10.779
74510SOL    HW225363  12.994   9.675  10.848
74511SOL     OW25364   8.076   9.640   0.086
74511SOL    HW125365   8.042   9.729   0.077
74511SOL    HW225366   8.167   9.651   0.114
74512SOL     OW25367  11.174  11.587   6.123
74512SOL    HW125368  11.101  11.526   6.108
74512SOL    HW225369  11.133  11.672   6.133
74513SOL     OW25370  12.913  13.510   6.476
74513SOL    HW125371  12.867  13.558   6.407
74513SOL    HW225372  12.844  13.461   6.521
74514SOL     OW25373   7.029   3.128  10.695
74514SOL    HW125374   7.124   3.138  10.700
74514SOL    HW225375   6.994   3.203  10.742
74515SOL     OW25376   5.621   5.715   0.023
74515SOL    HW125377   5.641   5.691  14.809
74515SOL    HW225378   5.604   5.810   0.019
74516SOL     OW25379   1.347  13.135   3.960
74516SOL    HW125380   1.332  13.147   4.053
74516SOL    HW225381   1.383  13.046   3.952
74517SOL     OW25382   4.768   2.326   5.474
74517SOL    HW125383   4.690   2.381   5.464
74517SOL    HW225384   4.819   2.369   5.543
74518SOL     OW25385   1.742   4.880  14.723
74518SOL    HW125386   1.747   4.965  14.767
74518SOL    HW225387   1.648   4.866  14.709
74519SOL     OW25388  14.760   6.406   3.723
74519SOL    HW125389  14.828   6.378   3.662
74519SOL    HW225390  14.685   6.352   3.701
74520SOL     OW25391   4.588   0.646   3.314
74520SOL    HW125392   4.494   0.659   3.326
74520SOL    HW225393   4.598   0.552   3.299
74521SOL     OW25394  12.521  14.189   7.040
74521SOL    HW125395  12.548  14.097   7.030
74521SOL    HW225396  12.472  14.208   6.959
74522SOL     OW25397   4.840   7.415   7.528
74522SOL    HW125398   4.804   7.470   7.457
74522SOL    HW225399   4.932   7.442   7.535
74523SOL     OW25400   1.695   6.531  14.754
74523SOL    HW125401   1.605   6.542  14.786
74523SOL    HW225402   1.694   6.447  14.708
74524SOL     OW25403  14.530  14.275   9.411
74524SOL    HW125404  14.472  14.338   9.455
74524SOL    HW225405  14.473  14.201   9.391
74525SOL     OW25406  13.595   5.760  10.477
74525SOL    HW125407  13.591   5.736  10.385
74525SOL    HW225408  13.565   5.852  10.479
74526SOL     OW25409   4.660   7.725   1.770
74526SOL    HW125410   4.612   7.770   1.840
74526SOL    HW225411   4.717   7.663   1.816
74527SOL     OW25412   7.994   6.191   7.278
74527SOL    HW125413   7.971   6.130   7.348
74527SOL    HW225414   8.054   6.253   7.319
74528SOL     OW25415  10.138   4.383   4.038
74528SOL    HW125416  10.135   4.478   4.048
74528SOL    HW225417  10.197   4.353   4.107
74529SOL     OW25418   0.882   9.405   5.305
74529SOL    HW125419   0.808   9.353   5.273
74529SOL    HW225420   0.900   9.370   5.392
74530SOL     OW25421   4.753   1.176  11.072
74530SOL    HW125422   4.766   1.165  10.978
74530SOL    HW225423   4.682   1.239  11.080
74531SOL     OW25424   2.662   8.245   3.586
74531SOL    HW125425   2.571   8.266   3.565
74531SOL    HW225426   2.656   8.172   3.647
74532SOL     OW25427   1.150   7.038   0.651
74532SOL    HW125428   1.142   7.121   0.604
74532SOL    HW225429   1.152   6.972   0.581
74533SOL     OW25430  12.090  13.714   6.209
74533SOL    HW125431  12.148  13.671   6.272
74533SOL    HW225432  12.089  13.655   6.134
74534SOL     OW25433   1.739   9.561   9.386
74534SOL    HW125434   1.708   9.560   9.296
74534SOL    HW225435   1.816   9.504   9.386
74535SOL     OW25436  12.134  12.242   6.415
74535SOL    HW125437  12.111  12.150   6.399
74535SOL    HW225438  12.105  12.288   6.336
74536SOL     OW25439   3.007   5.079   7.655
74536SOL    HW125440   2.988   5.142   7.724
74536SOL    HW225441   3.100   5.056   7.668
74537SOL     OW25442   5.953   9.942  10.343
74537SOL    HW125443   5.996  10.015  10.300
74537SOL    HW225444   5.913   9.892  10.272
74538SOL     OW25445   0.462   2.670  14.459
74538SOL    HW125446   0.456   2.588  14.509
74538SOL    HW225447   0.371   2.699  14.450
74539SOL     OW25448   9.675  14.302  14.252
74539SOL    HW125449   9.680  14.222  14.303
74539SOL    HW225450   9.759  14.345  14.266
74540SOL     OW25451  14.822   5.223   2.794
74540SOL    HW125452  14.769   5.231   2.874
74540SOL    HW225453   0.008   5.296   2.799
74541SOL     OW25454   1.414   4.396   1.123
74541SOL    HW125455   1.484   4.377   1.061
74541SOL    HW225456   1.459   4.417   1.205
74542SOL     OW25457  12.905   9.566   4.523
74542SOL    HW125458  12.953   9.519   4.454
74542SOL    HW225459  12.906   9.505   4.597
74543SOL     OW25460   6.410   1.120  10.982
74543SOL    HW125461   6.460   1.182  10.929
74543SOL    HW225462   6.409   1.159  11.070
74544SOL     OW25463  12.652   9.209   0.482
74544SOL    HW125464  12.575   9.185   0.430
74544SOL    HW225465  12.616   9.243   0.564
74545SOL     OW25466  13.197   6.243  10.499
74545SOL    HW125467  13.222   6.152  10.481
74545SOL    HW225468  13.243   6.265  10.580
74546SOL     OW25469   3.641   4.129   0.043
74546SOL    HW125470   3.557   4.148   0.083
74546SOL    HW225471   3.638   4.174  14.834
74547SOL     OW25472  12.824   4.906   4.347
74547SOL    HW125473  12.876   4.940   4.274
74547SOL    HW225474  12.886   4.851   4.397
74548SOL     OW25475   9.788   9.358   0.563
74548SOL    HW125476   9.807   9.270   0.593
74548SOL    HW225477   9.696   9.355   0.536
74549SOL     OW25478   7.725   8.587   0.052
74549SOL    HW125479   7.692   8.626   0.133
74549SOL    HW225480   7.739   8.661  14.869
74550SOL     OW25481   2.162   2.927   2.781
74550SOL    HW125482   2.202   2.998   2.731
74550SOL    HW225483   2.133   2.968   2.862
74551SOL     OW25484   4.118  10.353   4.201
74551SOL    HW125485   4.148  10.442   4.218
74551SOL    HW225486   4.132  10.339   4.108
74552SOL     OW25487  11.827  11.370  13.726
74552SOL    HW125488  11.905  11.332  13.685
74552SOL    HW225489  11.779  11.411  13.654
74553SOL     OW25490  12.763  13.520   8.134
74553SOL    HW125491  12.852  13.546   8.108
74553SOL    HW225492  12.760  13.426   8.116
74554SOL     OW25493   3.472  13.737   3.152
74554SOL    HW125494   3.452  13.689   3.232
74554SOL    HW225495   3.471  13.671   3.083
74555SOL     OW25496   2.510  11.753   1.048
74555SOL    HW125497   2.564  11.709   0.982
74555SOL    HW225498   2.433  11.696   1.057
74556SOL     OW25499   3.618  13.264   6.178
74556SOL    HW125500   3.705  13.229   6.156
74556SOL    HW225501   3.591  13.213   6.254
74557SOL     OW25502  12.419  14.343  13.545
74557SOL    HW125503  12.335  14.314  13.510
74557SOL    HW225504  12.398  14.420  13.599
74558SOL     OW25505   9.323   9.781   4.422
74558SOL    HW125506   9.378   9.776   4.344
74558SOL    HW225507   9.234   9.778   4.388
74559SOL     OW25508   7.867  10.446  13.807
74559SOL    HW125509   7.873  10.398  13.890
74559SOL    HW225510   7.957  10.451  13.776
74560SOL     OW25511  11.489   8.158   3.110
74560SOL    HW125512  11.474   8.074   3.066
74560SOL    HW225513  11.430   8.156   3.186
74561SOL     OW25514  13.121   1.947   2.688
74561SOL    HW125515  13.081   1.885   2.629
74561SOL    HW225516  13.105   2.033   2.648
74562SOL     OW25517  11.656  13.018   8.821
74562SOL    HW125518  11.680  12.928   8.845
74562SOL    HW225519  11.561  13.018   8.819
74563SOL     OW25520   3.545   0.875  13.555
74563SOL    HW125521   3.468   0.922  13.585
74563SOL    HW225522   3.513   0.818  13.485
74564SOL     OW25523   5.638   4.032   4.489
74564SOL    HW125524   5.687   4.114   4.484
74564SOL    HW225525   5.698   3.971   4.534
74565SOL     OW25526   7.360   2.743  13.869
74565SOL    HW125527   7.328   2.832  13.858
74565SOL    HW225528   7.454   2.749  13.854
74566SOL     OW25529  14.011  10.187   6.454
74566SOL    HW125530  13.943  10.231   6.505
74566SOL    HW225531  14.064  10.258   6.419
74567SOL     OW25532   2.555   4.883   7.659
74567SOL    HW125533   2.555   4.887   7.755
74567SOL    HW225534   2.474   4.926   7.633
74568SOL     OW25535   0.054   0.635   2.700
74568SOL    HW125536   0.054   0.550   2.744
74568SOL    HW225537  14.852   0.634   2.645
74569SOL     OW25538  14.411  10.487   6.733
74569SOL    HW125539  14.413  10.508   6.826
74569SOL    HW225540  14.497  10.514   6.701
74570SOL     OW25541  13.025   4.052   0.725
74570SOL    HW125542  13.101   4.059   0.666
74570SOL    HW225543  13.000   3.959   0.721
74571SOL     OW25544   0.065   9.545   9.445
74571SOL    HW125545   0.064   9.633   9.483
74571SOL    HW225546   0.156   9.531   9.419
74572SOL     OW25547   7.813  11.946  14.556
74572SOL    HW125548   7.867  11.902  14.491
74572SOL    HW225549   7.724  11.914  14.539
74573SOL     OW25550  13.151  10.458  10.183
74573SOL    HW125551  13.119  10.510  10.256
74573SOL    HW225552  13.223  10.509  10.146
74574SOL     OW25553  10.522  12.205   9.817
74574SOL    HW125554  10.514  12.268   9.889
74574SOL    HW225555  10.517  12.119   9.859
74575SOL     OW25556   6.428   8.503  12.924
74575SOL    HW125557   6.429   8.450  13.003
74575SOL    HW225558   6.502   8.563  12.934
74576SOL     OW25559  13.193   4.289  12.453
74576SOL    HW125560  13.135   4.365  12.450
74576SOL    HW225561  13.259   4.307  12.386
74577SOL     OW25562   9.378   6.106  10.001
74577SOL    HW125563   9.379   6.019   9.961
74577SOL    HW225564   9.321   6.096  10.078
74578SOL     OW25565   9.843   3.491  10.565
74578SOL    HW125566   9.830   3.560  10.630
74578SOL    HW225567   9.776   3.507  10.500
74579SOL     OW25568   3.114  10.149  14.341
74579SOL    HW125569   3.146  10.205  14.411
74579SOL    HW225570   3.192  10.104  14.309
74580SOL     OW25571   1.138   5.471   3.459
74580SOL    HW125572   1.093   5.399   3.504
74580SOL    HW225573   1.118   5.548   3.511
74581SOL     OW25574   9.061   1.164  10.525
74581SOL    HW125575   8.986   1.165  10.466
74581SOL    HW225576   9.131   1.206  10.476
74582SOL     OW25577  14.528   1.697  14.289
74582SOL    HW125578  14.553   1.606  14.300
74582SOL    HW225579  14.473   1.717  14.365
74583SOL     OW25580  10.487   2.034   7.302
74583SOL    HW125581  10.424   2.105   7.288
74583SOL    HW225582  10.436   1.954   7.290
74584SOL     OW25583   8.453   4.541   0.374
74584SOL    HW125584   8.394   4.560   0.447
74584SOL    HW225585   8.460   4.446   0.373
74585SOL     OW25586   1.895   5.794   2.044
74585SOL    HW125587   1.960   5.771   2.111
74585SOL    HW225588   1.843   5.715   2.033
74586SOL     OW25589   4.232   6.666  10.384
74586SOL    HW125590   4.174   6.742  10.373
74586SOL    HW225591   4.315   6.703  10.414
74587SOL     OW25592   1.786  14.114   2.137
74587SOL    HW125593   1.820  14.039   2.185
74587SOL    HW225594   1.824  14.190   2.180
74588SOL     OW25595   4.611   0.681   2.469
74588SOL    HW125596   4.692   0.701   2.516
74588SOL    HW225597   4.563   0.623   2.529
74589SOL     OW25598   9.263  12.979   6.467
74589SOL    HW125599   9.258  12.920   6.391
74589SOL    HW225600   9.226  12.929   6.539
74590SOL     OW25601   7.565   6.712   0.276
74590SOL    HW125602   7.482   6.665   0.276
74590SOL    HW225603   7.632   6.644   0.265
74591SOL     OW25604  12.745  13.816   6.406
74591SOL    HW125605  12.686  13.774   6.344
74591SOL    HW225606  12.687  13.865   6.465
74592SOL     OW25607   2.392  10.665  12.272
74592SOL    HW125608   2.351  10.740  12.316
74592SOL    HW225609   2.321  10.602  12.260
74593SOL     OW25610   8.629   4.473  12.404
74593SOL    HW125611   8.597   4.407  12.342
74593SOL    HW225612   8.641   4.552  12.351
74594SOL     OW25613   5.047   4.900  12.705
74594SOL    HW125614   4.998   4.822  12.731
74594SOL    HW225615   5.072   4.941  12.788
74595SOL     OW25616  12.234   0.333   8.557
74595SOL    HW125617  12.303   0.334   8.623
74595SOL    HW225618  12.226   0.424   8.528
74596SOL     OW25619   9.622  14.467   8.965
74596SOL    HW125620   9.528  14.484   8.967
74596SOL    HW225621   9.643  14.437   9.054
74597SOL     OW25622  13.532  10.041   4.560
74597SOL    HW125623  13.591   9.990   4.505
74597SOL    HW225624  13.468  10.079   4.500
74598SOL     OW25625   8.244   4.574   9.183
74598SOL    HW125626   8.237   4.500   9.123
74598SOL    HW225627   8.302   4.636   9.138
74599SOL     OW25628   2.531  12.710   5.993
74599SOL    HW125629   2.530  12.647   5.921
74599SOL    HW225630   2.439  12.730   6.009
74600SOL     OW25631   8.269   7.292   0.407
74600SOL    HW125632   8.358   7.279   0.375
74600SOL    HW225633   8.259   7.229   0.478
74601SOL     OW25634   4.670   3.453   6.698
74601SOL    HW125635   4.667   3.415   6.610
74601SOL    HW225636   4.764   3.462   6.717
74602SOL     OW25637  13.206  10.272  13.305
74602SOL    HW125638  13.271  10.317  13.250
74602SOL    HW225639  13.125  10.279  13.255
74603SOL     OW25640  10.722  10.285   2.119
74603SOL    HW125641  10.704  10.297   2.212
74603SOL    HW225642  10.696  10.195   2.101
74604SOL     OW25643  14.070   0.752   5.981
74604SOL    HW125644  13.985   0.781   5.946
74604SOL    HW225645  14.101   0.687   5.919
74605SOL     OW25646   4.158   8.947   8.619
74605SOL    HW125647   4.077   8.951   8.670
74605SOL    HW225648   4.227   8.967   8.683
74606SOL     OW25649   0.425  12.092   1.131
74606SOL    HW125650   0.360  12.157   1.155
74606SOL    HW225651   0.390  12.009   1.165
74607SOL     OW25652   9.854   3.371  11.805
74607SOL    HW125653   9.896   3.343  11.887
74607SOL    HW225654   9.923   3.418  11.757
74608SOL     OW25655   9.201  14.746  11.690
74608SOL    HW125656   9.172  14.661  11.723
74608SOL    HW225657   9.289  14.729  11.655
74609SOL     OW25658  14.874   9.892   8.486
74609SOL    HW125659   0.065   9.850   8.540
74609SOL    HW225660  14.842   9.823   8.429
74610SOL     OW25661  13.911   1.275   2.338
74610SOL    HW125662  13.902   1.322   2.255
74610SOL    HW225663  13.970   1.330   2.390
74611SOL     OW25664   8.451   7.603   8.086
74611SOL    HW125665   8.410   7.523   8.051
74611SOL    HW225666   8.538   7.575   8.114
74612SOL     OW25667   5.770   0.056   0.664
74612SOL    HW125668   5.781   0.140   0.619
74612SOL    HW225669   5.821   0.064   0.744
74613SOL     OW25670   3.871   0.505   6.215
74613SOL    HW125671   3.788   0.481   6.175
74613SOL    HW225672   3.859   0.488   6.309
74614SOL     OW25673   3.707   6.729   3.110
74614SOL    HW125674   3.766   6.799   3.136
74614SOL    HW225675   3.623   6.772   3.095
74615SOL     OW25676   2.005   2.460  10.252
74615SOL    HW125677   2.089   2.502  10.233
74615SOL    HW225678   2.010   2.376  10.207
74616SOL     OW25679   1.156   8.092   4.674
74616SOL    HW125680   1.090   8.025   4.689
74616SOL    HW225681   1.132   8.163   4.733
74617SOL     OW25682   3.845  12.900   5.912
74617SOL    HW125683   3.831  12.961   5.985
74617SOL    HW225684   3.903  12.948   5.853
74618SOL     OW25685   2.342   1.727   6.705
74618SOL    HW125686   2.292   1.808   6.719
74618SOL    HW225687   2.432   1.751   6.728
74619SOL     OW25688   6.164   3.116  12.252
74619SOL    HW125689   6.164   3.127  12.157
74619SOL    HW225690   6.206   3.031  12.266
74620SOL     OW25691   6.745  13.666  10.928
74620SOL    HW125692   6.707  13.647  10.842
74620SOL    HW225693   6.839  13.675  10.911
74621SOL     OW25694  10.698   1.391   3.726
74621SOL    HW125695  10.764   1.338   3.682
74621SOL    HW225696  10.637   1.416   3.657
74622SOL     OW25697   9.882   0.262  14.551
74622SOL    HW125698   9.811   0.317  14.519
74622SOL    HW225699   9.921   0.224  14.473
74623SOL     OW25700   1.592   6.055   9.266
74623SOL    HW125701   1.645   6.050   9.186
74623SOL    HW225702   1.656   6.070   9.336
74624SOL     OW25703   1.575   9.551  11.096
74624SOL    HW125704   1.651   9.551  11.155
74624SOL    HW225705   1.520   9.479  11.127
74625SOL     OW25706   3.442  13.585   2.477
74625SOL    HW125707   3.429  13.572   2.384
74625SOL    HW225708   3.496  13.664   2.483
74626SOL     OW25709  10.434   3.949  14.353
74626SOL    HW125710  10.401   3.997  14.429
74626SOL    HW225711  10.393   3.992  14.278
74627SOL     OW25712  12.549   5.846   7.025
74627SOL    HW125713  12.557   5.904   6.948
74627SOL    HW225714  12.520   5.904   7.095
74628SOL     OW25715   5.801  10.031   3.268
74628SOL    HW125716   5.820   9.939   3.284
74628SOL    HW225717   5.723  10.049   3.321
74629SOL     OW25718  10.434   9.257  13.899
74629SOL    HW125719  10.435   9.223  13.810
74629SOL    HW225720  10.405   9.348  13.890
74630SOL     OW25721   8.172   9.498   9.744
74630SOL    HW125722   8.225   9.419   9.749
74630SOL    HW225723   8.106   9.487   9.813
74631SOL     OW25724   0.225  10.894  11.592
74631SOL    HW125725   0.201  10.881  11.684
74631SOL    HW225726   0.318  10.875  11.588
74632SOL     OW25727  14.732   7.114   4.950
74632SOL    HW125728  14.815   7.137   4.992
74632SOL    HW225729  14.669   7.175   4.988
74633SOL     OW25730   7.435   4.665   1.920
74633SOL    HW125731   7.352   4.702   1.949
74633SOL    HW225732   7.427   4.571   1.938
74634SOL     OW25733  14.365   9.335   6.989
74634SOL    HW125734  14.428   9.290   7.045
74634SOL    HW225735  14.413   9.356   6.910
74635SOL     OW25736   0.702  12.609   1.375
74635SOL    HW125737   0.795  12.592   1.366
74635SOL    HW225738   0.660  12.540   1.323
74636SOL     OW25739   1.832  13.354  11.817
74636SOL    HW125740   1.814  13.442  11.783
74636SOL    HW225741   1.927  13.350  11.825
74637SOL     OW25742   9.193   7.174  13.234
74637SOL    HW125743   9.286   7.176  13.211
74637SOL    HW225744   9.148   7.208  13.157
74638SOL     OW25745   3.519   4.459  10.480
74638SOL    HW125746   3.514   4.530  10.544
74638SOL    HW225747   3.453   4.481  10.414
74639SOL     OW25748  13.904   8.469   1.338
74639SOL    HW125749  13.865   8.381   1.339
74639SOL    HW225750  13.943   8.477   1.251
74640SOL     OW25751  14.474  10.903   1.987
74640SOL    HW125752  14.479  10.926   2.080
74640SOL    HW225753  14.565  10.891   1.961
74641SOL     OW25754   3.972  10.696   7.705
74641SOL    HW125755   3.963  10.721   7.797
74641SOL    HW225756   4.028  10.619   7.707
74642SOL     OW25757   7.870   9.923   2.903
74642SOL    HW125758   7.828   9.963   2.979
74642SOL    HW225759   7.903   9.996   2.851
74643SOL     OW25760   1.117   1.744  14.717
74643SOL    HW125761   1.071   1.761  14.799
74643SOL    HW225762   1.131   1.649  14.717
74644SOL     OW25763   2.819   8.290  14.702
74644SOL    HW125764   2.789   8.256  14.618
74644SOL    HW225765   2.892   8.348  14.679
74645SOL     OW25766   8.379   6.228   7.252
74645SOL    HW125767   8.464   6.192   7.229
74645SOL    HW225768   8.318   6.187   7.191
74646SOL     OW25769   1.950   6.762   1.919
74646SOL    HW125770   1.882   6.702   1.889
74646SOL    HW225771   1.939   6.840   1.865
74647SOL     OW25772   2.224   8.852  12.530
74647SOL    HW125773   2.160   8.864  12.601
74647SOL    HW225774   2.209   8.763  12.499
74648SOL     OW25775   3.900   2.510   6.943
74648SOL    HW125776   3.950   2.452   7.001
74648SOL    HW225777   3.925   2.598   6.972
74649SOL     OW25778   1.736   2.446  14.510
74649SOL    HW125779   1.729   2.388  14.586
74649SOL    HW225780   1.645   2.464  14.485
74650SOL     OW25781  12.167   8.305   4.001
74650SOL    HW125782  12.116   8.308   4.082
74650SOL    HW225783  12.244   8.359   4.019
74651SOL     OW25784   8.410   3.038   6.298
74651SOL    HW125785   8.480   3.074   6.243
74651SOL    HW225786   8.403   3.099   6.371
74652SOL     OW25787  13.942   2.945   1.908
74652SOL    HW125788  13.949   2.863   1.958
74652SOL    HW225789  13.848   2.959   1.898
74653SOL     OW25790   6.580   9.747   9.122
74653SOL    HW125791   6.622   9.698   9.052
74653SOL    HW225792   6.550   9.680   9.184
74654SOL     OW25793   3.654  12.690  10.540
74654SOL    HW125794   3.698  12.770  10.513
74654SOL    HW225795   3.577  12.683  10.483
74655SOL     OW25796   8.631   8.560   4.163
74655SOL    HW125797   8.591   8.477   4.135
74655SOL    HW225798   8.575   8.590   4.234
74656SOL     OW25799   5.944  10.286   4.043
74656SOL    HW125800   6.007  10.351   4.011
74656SOL    HW225801   5.899  10.329   4.116
74657SOL     OW25802   1.726   1.888   1.604
74657SOL    HW125803   1.801   1.927   1.648
74657SOL    HW225804   1.705   1.949   1.533
74658SOL     OW25805  13.821  14.648   1.887
74658SOL    HW125806  13.833  14.700   1.808
74658SOL    HW225807  13.799  14.712   1.955
74659SOL     OW25808   8.162   9.792   9.531
74659SOL    HW125809   8.185   9.868   9.583
74659SOL    HW225810   8.097   9.746   9.584
74660SOL     OW25811  13.870   3.719   2.878
74660SOL    HW125812  13.918   3.802   2.884
74660SOL    HW225813  13.881   3.679   2.964
74661SOL     OW25814  14.122  13.761   7.188
74661SOL    HW125815  14.156  13.790   7.103
74661SOL    HW225816  14.049  13.704   7.166
74662SOL     OW25817   9.915  11.494   7.304
74662SOL    HW125818   9.881  11.503   7.393
74662SOL    HW225819   9.961  11.410   7.304
74663SOL     OW25820   8.263   7.449   8.634
74663SOL    HW125821   8.268   7.465   8.540
74663SOL    HW225822   8.277   7.355   8.643
74664SOL     OW25823  13.522  13.718  10.652
74664SOL    HW125824  13.459  13.671  10.707
74664SOL    HW225825  13.492  13.809  10.653
74665SOL     OW25826   3.233   1.546   9.949
74665SOL    HW125827   3.164   1.490   9.915
74665SOL    HW225828   3.252   1.607   9.877
74666SOL     OW25829  13.215   5.544  13.262
74666SOL    HW125830  13.213   5.470  13.322
74666SOL    HW225831  13.144   5.601  13.291
74667SOL     OW25832   9.646   6.085   2.853
74667SOL    HW125833   9.585   6.070   2.781
74667SOL    HW225834   9.719   6.133   2.813
74668SOL     OW25835  12.741   6.865  14.393
74668SOL    HW125836  12.695   6.786  14.420
74668SOL    HW225837  12.702   6.888  14.308
74669SOL     OW25838   2.028   7.904   8.950
74669SOL    HW125839   1.982   7.825   8.979
74669SOL    HW225840   2.050   7.886   8.858
74670SOL     OW25841   5.894  14.467   8.529
74670SOL    HW125842   5.966  14.516   8.490
74670SOL    HW225843   5.819  14.486   8.473
74671SOL     OW25844  12.666  13.255  11.127
74671SOL    HW125845  12.645  13.204  11.205
74671SOL    HW225846  12.761  13.251  11.120
74672SOL     OW25847  14.486   3.355  11.367
74672SOL    HW125848  14.566   3.396  11.334
74672SOL    HW225849  14.436   3.427  11.406
74673SOL     OW25850   9.344   0.649   9.257
74673SOL    HW125851   9.319   0.670   9.167
74673SOL    HW225852   9.440   0.654   9.257
74674SOL     OW25853  12.346   0.314  11.373
74674SOL    HW125854  12.361   0.406  11.394
74674SOL    HW225855  12.276   0.315  11.308
74675SOL     OW25856   6.917  14.406   0.154
74675SOL    HW125857   6.979  14.470   0.119
74675SOL    HW225858   6.968  14.355   0.218
74676SOL     OW25859  12.634   5.954  12.064
74676SOL    HW125860  12.695   5.885  12.039
74676SOL    HW225861  12.647   5.966  12.158
74677SOL     OW25862   4.129  12.425   3.460
74677SOL    HW125863   4.095  12.505   3.501
74677SOL    HW225864   4.215  12.450   3.426
74678SOL     OW25865  13.399  11.995   0.951
74678SOL    HW125866  13.369  12.056   1.018
74678SOL    HW225867  13.322  11.978   0.897
74679SOL     OW25868   5.458  10.927   8.917
74679SOL    HW125869   5.390  10.938   8.851
74679SOL    HW225870   5.513  11.005   8.909
74680SOL     OW25871   2.337   2.004   4.381
74680SOL    HW125872   2.301   1.935   4.438
74680SOL    HW225873   2.286   2.082   4.403
74681SOL     OW25874   9.109  13.338   1.564
74681SOL    HW125875   9.071  13.251   1.553
74681SOL    HW225876   9.183  13.325   1.623
74682SOL     OW25877  14.629  11.558  10.354
74682SOL    HW125878  14.683  11.630  10.323
74682SOL    HW225879  14.557  11.601  10.401
74683SOL     OW25880   4.349   7.551   1.441
74683SOL    HW125881   4.286   7.549   1.369
74683SOL    HW225882   4.340   7.465   1.482
74684SOL     OW25883   6.702   1.914   8.672
74684SOL    HW125884   6.781   1.950   8.633
74684SOL    HW225885   6.684   1.972   8.746
74685SOL     OW25886  11.607  12.620   7.886
74685SOL    HW125887  11.678  12.683   7.867
74685SOL    HW225888  11.527  12.672   7.882
74686SOL     OW25889   2.014  14.796  10.932
74686SOL    HW125890   1.970  14.854  10.993
74686SOL    HW225891   2.103  14.787  10.967
74687SOL     OW25892   0.813   0.165   1.985
74687SOL    HW125893   0.863   0.087   1.961
74687SOL    HW225894   0.789   0.150   2.077
74688SOL     OW25895  12.283  14.503   6.454
74688SOL    HW125896  12.233  14.518   6.534
74688SOL    HW225897  12.314  14.413   6.461
74689SOL     OW25898   6.373   6.176   7.417
74689SOL    HW125899   6.446   6.209   7.366
74689SOL    HW225900   6.350   6.093   7.375
74690SOL     OW25901  12.042  11.090   6.023
74690SOL    HW125902  11.989  11.118   5.949
74690SOL    HW225903  12.035  10.995   6.023
74691SOL     OW25904  11.825  13.966   4.835
74691SOL    HW125905  11.732  13.948   4.828
74691SOL    HW225906  11.860  13.945   4.748
74692SOL     OW25907  12.380   3.978   0.184
74692SOL    HW125908  12.423   4.056   0.218
74692SOL    HW225909  12.298   3.972   0.234
74693SOL     OW25910   8.368  11.686   1.200
74693SOL    HW125911   8.350  11.666   1.291
74693SOL    HW225912   8.425  11.615   1.170
74694SOL     OW25913   9.934  11.843   1.268
74694SOL    HW125914   9.951  11.935   1.289
74694SOL    HW225915   9.911  11.844   1.175
74695SOL     OW25916   0.613   8.438  11.279
74695SOL    HW125917   0.523   8.437  11.248
74695SOL    HW225918   0.607   8.468  11.370
74696SOL     OW25919   1.333   9.672  10.021
74696SOL    HW125920   1.405   9.631   9.973
74696SOL    HW225921   1.339   9.765  10.001
74697SOL     OW25922   8.953  14.112   7.879
74697SOL    HW125923   8.969  14.069   7.963
74697SOL    HW225924   9.030  14.168   7.866
74698SOL     OW25925  11.707   0.949   1.965
74698SOL    HW125926  11.693   0.953   1.870
74698SOL    HW225927  11.647   0.882   1.996
74699SOL     OW25928   5.930   6.390   5.560
74699SOL    HW125929   5.842   6.397   5.598
74699SOL    HW225930   5.955   6.299   5.574
74700SOL     OW25931   3.670   4.834   3.920
74700SOL    HW125932   3.690   4.769   3.988
74700SOL    HW225933   3.750   4.842   3.869
74701SOL     OW25934  12.391  11.866  14.602
74701SOL    HW125935  12.382  11.817  14.520
74701SOL    HW225936  12.427  11.951  14.575
74702SOL     OW25937  13.544  10.981  11.839
74702SOL    HW125938  13.574  10.890  11.849
74702SOL    HW225939  13.593  11.030  11.905
74703SOL     OW25940   2.883   1.868  12.796
74703SOL    HW125941   2.920   1.936  12.741
74703SOL    HW225942   2.921   1.884  12.883
74704SOL     OW25943   7.288   6.254  11.305
74704SOL    HW125944   7.231   6.176  11.306
74704SOL    HW225945   7.377   6.218  11.305
74705SOL     OW25946   0.548   5.122  12.219
74705SOL    HW125947   0.618   5.058  12.225
74705SOL    HW225948   0.582   5.199  12.264
74706SOL     OW25949   3.479   6.969   3.298
74706SOL    HW125950   3.415   6.954   3.368
74706SOL    HW225951   3.562   6.982   3.344
74707SOL     OW25952  12.765   7.391   6.100
74707SOL    HW125953  12.760   7.463   6.037
74707SOL    HW225954  12.758   7.433   6.186
74708SOL     OW25955   6.141  13.180  10.315
74708SOL    HW125956   6.181  13.178  10.228
74708SOL    HW225957   6.113  13.090  10.332
74709SOL     OW25958   8.073  12.450   5.189
74709SOL    HW125959   8.115  12.393   5.124
74709SOL    HW225960   8.031  12.518   5.136
74710SOL     OW25961   4.742  11.342   3.510
74710SOL    HW125962   4.715  11.434   3.501
74710SOL    HW225963   4.763  11.315   3.420
74711SOL     OW25964   3.381   1.843   8.398
74711SOL    HW125965   3.305   1.899   8.411
74711SOL    HW225966   3.418   1.832   8.486
74712SOL     OW25967   9.600  13.575   0.290
74712SOL    HW125968   9.603  13.655   0.341
74712SOL    HW225969   9.644  13.509   0.345
74713SOL     OW25970  14.718   9.396  10.939
74713SOL    HW125971  14.744   9.325  10.879
74713SOL    HW225972  14.658   9.450  10.887
74714SOL     OW25973   7.241   1.924   8.459
74714SOL    HW125974   7.174   1.971   8.409
74714SOL    HW225975   7.218   1.832   8.451
74715SOL     OW25976  10.986  12.672   6.932
74715SOL    HW125977  10.993  12.762   6.901
74715SOL    HW225978  11.062  12.627   6.895
74716SOL     OW25979  14.336   4.226   0.712
74716SOL    HW125980  14.429   4.233   0.689
74716SOL    HW225981  14.333   4.247   0.805
74717SOL     OW25982   4.270  10.210   4.821
74717SOL    HW125983   4.181  10.181   4.804
74717SOL    HW225984   4.318  10.130   4.842
74718SOL     OW25985   8.593  13.520   1.395
74718SOL    HW125986   8.592  13.585   1.326
74718SOL    HW225987   8.686  13.503   1.411
74719SOL     OW25988   2.176  12.539   7.044
74719SOL    HW125989   2.199  12.618   7.093
74719SOL    HW225990   2.155  12.474   7.111
74720SOL     OW25991   7.609   3.354   1.809
74720SOL    HW125992   7.586   3.283   1.870
74720SOL    HW225993   7.573   3.433   1.850
74721SOL     OW25994   7.723  12.891  11.825
74721SOL    HW125995   7.644  12.941  11.848
74721SOL    HW225996   7.781  12.955  11.784
74722SOL     OW25997   3.145   5.282   3.834
74722SOL    HW125998   3.082   5.351   3.854
74722SOL    HW225999   3.092   5.206   3.811
74723SOL     OW26000   1.652  11.039   7.612
74723SOL    HW126001   1.598  11.061   7.687
74723SOL    HW226002   1.712  11.113   7.602
74724SOL     OW26003  14.763   4.814  12.744
74724SOL    HW126004  14.832   4.794  12.807
74724SOL    HW226005  14.788   4.899  12.707
74725SOL     OW26006  11.346   5.694   9.186
74725SOL    HW126007  11.363   5.735   9.271
74725SOL    HW226008  11.370   5.602   9.199
74726SOL     OW26009   2.264   6.169   6.799
74726SOL    HW126010   2.351   6.186   6.764
74726SOL    HW226011   2.239   6.084   6.764
74727SOL     OW26012   2.127  14.142   2.630
74727SOL    HW126013   2.084  14.168   2.549
74727SOL    HW226014   2.055  14.126   2.692
74728SOL     OW26015  10.814  11.032  11.098
74728SOL    HW126016  10.762  10.990  11.030
74728SOL    HW226017  10.750  11.073  11.156
74729SOL     OW26018   0.441  10.955   4.080
74729SOL    HW126019   0.517  11.003   4.113
74729SOL    HW226020   0.385  11.022   4.041
74730SOL     OW26021  11.387   7.452   4.521
74730SOL    HW126022  11.317   7.460   4.456
74730SOL    HW226023  11.430   7.538   4.522
74731SOL     OW26024   5.216  13.913   1.051
74731SOL    HW126025   5.239  13.961   0.972
74731SOL    HW226026   5.273  13.836   1.050
74732SOL     OW26027   7.103   3.962   8.058
74732SOL    HW126028   7.124   3.960   8.151
74732SOL    HW226029   7.032   3.899   8.047
74733SOL     OW26030   4.502   8.733  11.666
74733SOL    HW126031   4.549   8.649  11.661
74733SOL    HW226032   4.567   8.798  11.638
74734SOL     OW26033  10.832   2.248  14.770
74734SOL    HW126034  10.927   2.244  14.757
74734SOL    HW226035  10.821   2.296  14.852
74735SOL     OW26036   8.179   1.392   6.012
74735SOL    HW126037   8.177   1.488   6.020
74735SOL    HW226038   8.139   1.361   6.093
74736SOL     OW26039   1.747   9.341   3.072
74736SOL    HW126040   1.761   9.421   3.123
74736SOL    HW226041   1.799   9.354   2.992
74737SOL     OW26042   9.162  13.140   8.678
74737SOL    HW126043   9.160  13.235   8.691
74737SOL    HW226044   9.151  13.129   8.583
74738SOL     OW26045  10.029   7.988  14.356
74738SOL    HW126046  10.089   8.057  14.386
74738SOL    HW226047  10.027   7.998  14.261
74739SOL     OW26048   7.342   1.476   4.847
74739SOL    HW126049   7.288   1.517   4.779
74739SOL    HW226050   7.370   1.548   4.902
74740SOL     OW26051  11.598   1.123   0.787
74740SOL    HW126052  11.537   1.103   0.858
74740SOL    HW226053  11.671   1.169   0.830
74741SOL     OW26054  10.242   4.656   8.017
74741SOL    HW126055  10.335   4.672   8.035
74741SOL    HW226056  10.242   4.594   7.945
74742SOL     OW26057   6.013  12.502   8.346
74742SOL    HW126058   6.065  12.429   8.314
74742SOL    HW226059   5.963  12.466   8.420
74743SOL     OW26060  14.399   5.763   9.702
74743SOL    HW126061  14.377   5.784   9.793
74743SOL    HW226062  14.374   5.841   9.652
74744SOL     OW26063   5.704  10.125   8.556
74744SOL    HW126064   5.775  10.094   8.613
74744SOL    HW226065   5.739  10.115   8.467
74745SOL     OW26066   3.185   9.644  12.278
74745SOL    HW126067   3.119   9.645  12.209
74745SOL    HW226068   3.231   9.561  12.266
74746SOL     OW26069   3.372  14.679   7.522
74746SOL    HW126070   3.300  14.728   7.483
74746SOL    HW226071   3.330  14.616   7.580
74747SOL     OW26072   1.710  10.869  10.631
74747SOL    HW126073   1.636  10.888  10.689
74747SOL    HW226074   1.786  10.906  10.677
74748SOL     OW26075  10.182   9.317   1.469
74748SOL    HW126076  10.228   9.279   1.394
74748SOL    HW226077  10.106   9.361   1.430
74749SOL     OW26078   0.386   4.374   0.954
74749SOL    HW126079   0.445   4.376   0.878
74749SOL    HW226080   0.325   4.447   0.939
74750SOL     OW26081   8.863   6.672   3.469
74750SOL    HW126082   8.889   6.710   3.385
74750SOL    HW226083   8.938   6.617   3.495
74751SOL     OW26084  10.434   2.242   8.039
74751SOL    HW126085  10.511   2.267   8.090
74751SOL    HW226086  10.366   2.226   8.105
74752SOL     OW26087   5.662   5.354   5.492
74752SOL    HW126088   5.693   5.353   5.401
74752SOL    HW226089   5.678   5.443   5.522
74753SOL     OW26090  13.011   9.246   7.947
74753SOL    HW126091  12.923   9.247   7.909
74753SOL    HW226092  13.058   9.179   7.896
74754SOL     OW26093  12.823  12.753  10.845
74754SOL    HW126094  12.760  12.753  10.772
74754SOL    HW226095  12.788  12.689  10.907
74755SOL     OW26096   2.656   1.301   2.588
74755SOL    HW126097   2.675   1.230   2.527
74755SOL    HW226098   2.709   1.280   2.666
74756SOL     OW26099   5.031   0.612   5.415
74756SOL    HW126100   5.066   0.690   5.372
74756SOL    HW226101   4.946   0.639   5.449
74757SOL     OW26102  11.663  13.105  12.531
74757SOL    HW126103  11.692  13.184  12.576
74757SOL    HW226104  11.568  13.112  12.529
74758SOL     OW26105   7.551   5.036  13.033
74758SOL    HW126106   7.562   5.129  13.017
74758SOL    HW226107   7.496   5.031  13.111
74759SOL     OW26108  13.415  11.283   2.474
74759SOL    HW126109  13.454  11.204   2.437
74759SOL    HW226110  13.395  11.260   2.565
74760SOL     OW26111  13.639   5.018   7.626
74760SOL    HW126112  13.622   5.014   7.532
74760SOL    HW226113  13.713   5.079   7.635
74761SOL     OW26114   9.545   8.207   8.718
74761SOL    HW126115   9.515   8.151   8.647
74761SOL    HW226116   9.613   8.262   8.678
74762SOL     OW26117   4.309  14.409  10.178
74762SOL    HW126118   4.344  14.489  10.138
74762SOL    HW226119   4.318  14.342  10.110
74763SOL     OW26120   3.835   4.555  10.700
74763SOL    HW126121   3.822   4.545  10.606
74763SOL    HW226122   3.913   4.502  10.719
74764SOL     OW26123   3.072  10.487   9.789
74764SOL    HW126124   3.131  10.452   9.856
74764SOL    HW226125   3.126  10.549   9.740
74765SOL     OW26126   3.275   7.409  11.807
74765SOL    HW126127   3.228   7.349  11.749
74765SOL    HW226128   3.272   7.368  11.893
74766SOL     OW26129   3.721   3.126  12.925
74766SOL    HW126130   3.630   3.153  12.921
74766SOL    HW226131   3.727   3.052  12.864
74767SOL     OW26132   2.369  14.131   0.285
74767SOL    HW126133   2.423  14.055   0.308
74767SOL    HW226134   2.298  14.130   0.349
74768SOL     OW26135   1.309  13.334  13.711
74768SOL    HW126136   1.291  13.396  13.641
74768SOL    HW226137   1.348  13.258  13.667
74769SOL     OW26138   2.946  11.706  14.440
74769SOL    HW126139   3.041  11.717  14.434
74769SOL    HW226140   2.913  11.793  14.461
74770SOL     OW26141  11.733   3.893   9.652
74770SOL    HW126142  11.760   3.914   9.563
74770SOL    HW226143  11.807   3.923   9.706
74771SOL     OW26144   0.895   5.095   1.408
74771SOL    HW126145   0.946   5.049   1.475
74771SOL    HW226146   0.952   5.165   1.378
74772SOL     OW26147  12.682  13.768   0.945
74772SOL    HW126148  12.711  13.766   0.854
74772SOL    HW226149  12.590  13.742   0.941
74773SOL     OW26150   3.625   3.281   8.672
74773SOL    HW126151   3.581   3.364   8.690
74773SOL    HW226152   3.699   3.280   8.733
74774SOL     OW26153  10.976  10.727   4.773
74774SOL    HW126154  10.980  10.758   4.863
74774SOL    HW226155  10.905  10.664   4.772
74775SOL     OW26156  12.192   1.353  12.311
74775SOL    HW126157  12.147   1.399  12.240
74775SOL    HW226158  12.243   1.421  12.355
74776SOL     OW26159   1.459  10.460  13.420
74776SOL    HW126160   1.379  10.513  13.420
74776SOL    HW226161   1.530  10.524  13.422
74777SOL     OW26162   6.644  13.118   4.040
74777SOL    HW126163   6.563  13.166   4.023
74777SOL    HW226164   6.615  13.033   4.075
74778SOL     OW26165  12.010   8.014   5.055
74778SOL    HW126166  12.049   8.096   5.084
74778SOL    HW226167  12.004   8.022   4.960
74779SOL     OW26168  14.013   5.423   1.300
74779SOL    HW126169  14.039   5.359   1.234
74779SOL    HW226170  14.081   5.417   1.367
74780SOL     OW26171   8.381  14.255  13.472
74780SOL    HW126172   8.291  14.263  13.440
74780SOL    HW226173   8.377  14.185  13.537
74781SOL     OW26174  14.518   8.171   0.346
74781SOL    HW126175  14.464   8.124   0.409
74781SOL    HW226176  14.498   8.130   0.262
74782SOL     OW26177   8.483   6.992   2.112
74782SOL    HW126178   8.427   7.069   2.121
74782SOL    HW226179   8.432   6.933   2.057
74783SOL     OW26180   0.315   9.134   3.048
74783SOL    HW126181   0.290   9.226   3.055
74783SOL    HW226182   0.255   9.088   3.107
74784SOL     OW26183   3.815   6.745  10.084
74784SOL    HW126184   3.774   6.758   9.999
74784SOL    HW226185   3.860   6.827  10.103
74785SOL     OW26186  10.995   7.272   6.721
74785SOL    HW126187  11.054   7.223   6.664
74785SOL    HW226188  11.018   7.245   6.810
74786SOL     OW26189  13.990   4.861   1.167
74786SOL    HW126190  13.932   4.937   1.175
74786SOL    HW226191  14.024   4.866   1.077
74787SOL     OW26192   5.437   8.045  13.131
74787SOL    HW126193   5.523   8.015  13.104
74787SOL    HW226194   5.379   7.971  13.113
74788SOL     OW26195   0.080   9.619  11.196
74788SOL    HW126196   0.106   9.698  11.245
74788SOL    HW226197   0.145   9.612  11.126
74789SOL     OW26198   2.988   2.533   5.767
74789SOL    HW126199   3.029   2.484   5.696
74789SOL    HW226200   3.013   2.486   5.846
74790SOL     OW26201  10.212   1.011  11.324
74790SOL    HW126202  10.206   0.975  11.235
74790SOL    HW226203  10.168   0.946  11.379
74791SOL     OW26204  10.806  14.570   8.106
74791SOL    HW126205  10.841  14.640   8.050
74791SOL    HW226206  10.883  14.536   8.151
74792SOL     OW26207   5.626   6.455  12.980
74792SOL    HW126208   5.679   6.377  12.990
74792SOL    HW226209   5.585   6.446  12.894
74793SOL     OW26210   4.946   0.222   1.927
74793SOL    HW126211   4.943   0.294   1.990
74793SOL    HW226212   5.024   0.240   1.874
74794SOL     OW26213   9.109   5.365  10.699
74794SOL    HW126214   9.108   5.372  10.604
74794SOL    HW226215   9.199   5.389  10.724
74795SOL     OW26216  12.562   7.040   1.257
74795SOL    HW126217  12.584   7.047   1.164
74795SOL    HW226218  12.631   7.089   1.301
74796SOL     OW26219   1.074  12.802   9.492
74796SOL    HW126220   1.058  12.727   9.549
74796SOL    HW226221   1.115  12.867   9.549
74797SOL     OW26222   3.094   9.574   8.631
74797SOL    HW126223   3.017   9.521   8.651
74797SOL    HW226224   3.168   9.517   8.653
74798SOL     OW26225   4.563   7.741  10.232
74798SOL    HW126226   4.541   7.822  10.278
74798SOL    HW226227   4.659   7.742  10.227
74799SOL     OW26228   5.413   9.508   8.809
74799SOL    HW126229   5.428   9.414   8.808
74799SOL    HW226230   5.435   9.535   8.898
74800SOL     OW26231   4.804   1.404   0.677
74800SOL    HW126232   4.730   1.344   0.690
74800SOL    HW226233   4.804   1.459   0.756
74801SOL     OW26234   3.680  11.942  13.604
74801SOL    HW126235   3.722  11.882  13.542
74801SOL    HW226236   3.752  11.988  13.646
74802SOL     OW26237   1.797   5.513   8.932
74802SOL    HW126238   1.846   5.541   8.855
74802SOL    HW226239   1.775   5.421   8.915
74803SOL     OW26240   1.557  11.764   6.614
74803SOL    HW126241   1.566  11.857   6.593
74803SOL    HW226242   1.587  11.757   6.705
74804SOL     OW26243   8.330   9.256   7.219
74804SOL    HW126244   8.303   9.176   7.264
74804SOL    HW226245   8.324   9.234   7.126
74805SOL     OW26246  14.121   1.407   7.168
74805SOL    HW126247  14.140   1.407   7.074
74805SOL    HW226248  14.036   1.450   7.176
74806SOL     OW26249   2.296  12.756   7.176
74806SOL    HW126250   2.244  12.835   7.159
74806SOL    HW226251   2.386  12.783   7.160
74807SOL     OW26252   7.565  10.379  14.001
74807SOL    HW126253   7.492  10.432  13.970
74807SOL    HW226254   7.558  10.297  13.951
74808SOL     OW26255   9.959  12.709   6.959
74808SOL    HW126256  10.054  12.720   6.949
74808SOL    HW226257   9.945  12.615   6.956
74809SOL     OW26258   6.624   4.913   8.779
74809SOL    HW126259   6.598   4.916   8.687
74809SOL    HW226260   6.703   4.967   8.784
74810SOL     OW26261   5.869   6.509   5.944
74810SOL    HW126262   5.946   6.545   5.900
74810SOL    HW226263   5.867   6.417   5.917
74811SOL     OW26264   1.607   7.077   5.636
74811SOL    HW126265   1.626   7.156   5.585
74811SOL    HW226266   1.691   7.030   5.640
74812SOL     OW26267  10.802   2.266  12.858
74812SOL    HW126268  10.733   2.202  12.838
74812SOL    HW226269  10.781   2.296  12.947
74813SOL     OW26270   3.702  12.084   3.616
74813SOL    HW126271   3.703  12.108   3.524
74813SOL    HW226272   3.618  12.116   3.649
74814SOL     OW26273   9.489   5.885   9.612
74814SOL    HW126274   9.583   5.868   9.618
74814SOL    HW226275   9.483   5.980   9.604
74815SOL     OW26276  11.514   6.758  12.736
74815SOL    HW126277  11.497   6.776  12.828
74815SOL    HW226278  11.434   6.717  12.704
74816SOL     OW26279  12.278  11.825   1.867
74816SOL    HW126280  12.253  11.815   1.775
74816SOL    HW226281  12.215  11.888   1.903
74817SOL     OW26282   9.762   8.561   1.226
74817SOL    HW126283   9.836   8.501   1.232
74817SOL    HW226284   9.689   8.507   1.195
74818SOL     OW26285   8.217  14.174   7.072
74818SOL    HW126286   8.175  14.100   7.028
74818SOL    HW226287   8.253  14.136   7.153
74819SOL     OW26288  11.096   0.902  13.839
74819SOL    HW126289  11.068   0.825  13.790
74819SOL    HW226290  11.066   0.976  13.786
74820SOL     OW26291  10.880   9.147   6.260
74820SOL    HW126292  10.794   9.106   6.261
74820SOL    HW226293  10.876   9.209   6.187
74821SOL     OW26294   8.666   2.716   1.001
74821SOL    HW126295   8.734   2.726   0.934
74821SOL    HW226296   8.659   2.802   1.043
74822SOL     OW26297  13.810  10.626   0.876
74822SOL    HW126298  13.896  10.666   0.863
74822SOL    HW226299  13.750  10.681   0.825
74823SOL     OW26300  12.447  11.459   0.210
74823SOL    HW126301  12.484  11.383   0.255
74823SOL    HW226302  12.469  11.445   0.117
74824SOL     OW26303   0.236   9.304   8.553
74824SOL    HW126304   0.235   9.245   8.629
74824SOL    HW226305   0.167   9.368   8.572
74825SOL     OW26306  14.743   3.313  10.012
74825SOL    HW126307  14.703   3.400  10.006
74825SOL    HW226308  14.757   3.300  10.105
74826SOL     OW26309   0.897  12.308  14.353
74826SOL    HW126310   0.976  12.361  14.340
74826SOL    HW226311   0.928  12.227  14.393
74827SOL     OW26312   7.314   8.385  14.095
74827SOL    HW126313   7.263   8.307  14.072
74827SOL    HW226314   7.402   8.364  14.065
74828SOL     OW26315   7.578  14.259   6.450
74828SOL    HW126316   7.602  14.326   6.514
74828SOL    HW226317   7.650  14.260   6.386
74829SOL     OW26318   5.669   0.023   4.151
74829SOL    HW126319   5.616  14.868   4.078
74829SOL    HW226320   5.744   0.066   4.110
74830SOL     OW26321   8.875  12.024   1.286
74830SOL    HW126322   8.821  12.065   1.217
74830SOL    HW226323   8.954  11.996   1.240
74831SOL     OW26324   8.920  14.621  10.588
74831SOL    HW126325   8.840  14.585  10.549
74831SOL    HW226326   8.985  14.552  10.578
74832SOL     OW26327   2.494   9.619  10.680
74832SOL    HW126328   2.536   9.572  10.752
74832SOL    HW226329   2.433   9.680  10.723
74833SOL     OW26330   6.721   2.433  11.105
74833SOL    HW126331   6.703   2.502  11.041
74833SOL    HW226332   6.692   2.352  11.062
74834SOL     OW26333   1.910   8.455  11.046
74834SOL    HW126334   1.997   8.426  11.017
74834SOL    HW226335   1.902   8.544  11.014
74835SOL     OW26336   8.346  11.545   8.087
74835SOL    HW126337   8.362  11.521   8.178
74835SOL    HW226338   8.415  11.607   8.065
74836SOL     OW26339   9.292   1.300   4.913
74836SOL    HW126340   9.384   1.322   4.905
74836SOL    HW226341   9.289   1.232   4.980
74837SOL     OW26342   2.625   3.074  11.017
74837SOL    HW126343   2.690   3.137  11.049
74837SOL    HW226344   2.579   3.122  10.947
74838SOL     OW26345   0.849   1.162  13.780
74838SOL    HW126346   0.756   1.162  13.758
74838SOL    HW226347   0.860   1.088  13.839
74839SOL     OW26348   2.535   1.580   9.003
74839SOL    HW126349   2.620   1.607   9.038
74839SOL    HW226350   2.533   1.485   9.016
74840SOL     OW26351   4.598   1.620   8.298
74840SOL    HW126352   4.590   1.533   8.260
74840SOL    HW226353   4.627   1.604   8.388
74841SOL     OW26354   0.499   2.906   5.647
74841SOL    HW126355   0.446   2.980   5.618
74841SOL    HW226356   0.477   2.835   5.586
74842SOL     OW26357   5.770   5.907   2.558
74842SOL    HW126358   5.856   5.877   2.528
74842SOL    HW226359   5.790   5.963   2.633
74843SOL     OW26360  12.184  12.984  10.034
74843SOL    HW126361  12.096  12.956  10.006
74843SOL    HW226362  12.201  13.063   9.984
74844SOL     OW26363   8.380   5.953   7.523
74844SOL    HW126364   8.315   5.897   7.566
74844SOL    HW226365   8.374   6.036   7.571
74845SOL     OW26366   4.611   5.687   0.879
74845SOL    HW126367   4.638   5.670   0.969
74845SOL    HW226368   4.554   5.763   0.885
74846SOL     OW26369   8.907  12.567   9.770
74846SOL    HW126370   8.843  12.621   9.724
74846SOL    HW226371   8.867  12.480   9.774
74847SOL     OW26372   2.795  14.573  12.223
74847SOL    HW126373   2.748  14.609  12.148
74847SOL    HW226374   2.740  14.595  12.298
74848SOL     OW26375   7.254   7.929   3.005
74848SOL    HW126376   7.194   7.868   2.962
74848SOL    HW226377   7.198   7.984   3.059
74849SOL     OW26378  10.422   0.145   3.812
74849SOL    HW126379  10.405   0.235   3.786
74849SOL    HW226380  10.440   0.099   3.730
74850SOL     OW26381  11.833   6.583   2.949
74850SOL    HW126382  11.809   6.492   2.967
74850SOL    HW226383  11.773   6.634   3.004
74851SOL     OW26384   2.145  13.277  13.030
74851SOL    HW126385   2.123  13.368  13.008
74851SOL    HW226386   2.061  13.236  13.052
74852SOL     OW26387   6.334   3.585   4.718
74852SOL    HW126388   6.407   3.576   4.657
74852SOL    HW226389   6.314   3.495   4.744
74853SOL     OW26390   8.713  11.667   6.921
74853SOL    HW126391   8.707  11.716   6.839
74853SOL    HW226392   8.753  11.584   6.896
74854SOL     OW26393  12.394   1.279   6.075
74854SOL    HW126394  12.464   1.290   6.010
74854SOL    HW226395  12.390   1.362   6.120
74855SOL     OW26396   5.222   0.611  11.327
74855SOL    HW126397   5.252   0.684  11.274
74855SOL    HW226398   5.219   0.537  11.267
74856SOL     OW26399   6.145   4.443   2.975
74856SOL    HW126400   6.218   4.503   2.961
74856SOL    HW226401   6.082   4.493   3.027
74857SOL     OW26402   6.093  14.200   0.062
74857SOL    HW126403   6.159  14.260   0.094
74857SOL    HW226404   6.142  14.122   0.036
74858SOL     OW26405   1.336   7.222   8.161
74858SOL    HW126406   1.424   7.191   8.139
74858SOL    HW226407   1.324   7.300   8.107
74859SOL     OW26408   9.621   1.376  14.275
74859SOL    HW126409   9.553   1.442  14.292
74859SOL    HW226410   9.639   1.384  14.181
74860SOL     OW26411   4.381   9.061   7.721
74860SOL    HW126412   4.380   8.991   7.787
74860SOL    HW226413   4.289   9.074   7.699
74861SOL     OW26414   6.439   7.739  14.211
74861SOL    HW126415   6.520   7.734  14.263
74861SOL    HW226416   6.469   7.746  14.121
74862SOL     OW26417   9.731   2.660   1.325
74862SOL    HW126418   9.783   2.583   1.351
74862SOL    HW226419   9.731   2.658   1.230
74863SOL     OW26420   2.068   2.346  11.319
74863SOL    HW126421   2.098   2.290  11.390
74863SOL    HW226422   2.045   2.286  11.248
74864SOL     OW26423   5.573   5.019  10.664
74864SOL    HW126424   5.664   5.028  10.690
74864SOL    HW226425   5.564   4.928  10.636
74865SOL     OW26426   0.459   2.707  13.771
74865SOL    HW126427   0.461   2.611  13.767
74865SOL    HW226428   0.366   2.728  13.785
74866SOL     OW26429   1.213  14.032   3.792
74866SOL    HW126430   1.123  14.012   3.820
74866SOL    HW226431   1.259  14.052   3.873
74867SOL     OW26432  13.514   0.434   5.795
74867SOL    HW126433  13.427   0.424   5.757
74867SOL    HW226434  13.515   0.376   5.871
74868SOL     OW26435   2.350   7.171   5.761
74868SOL    HW126436   2.297   7.092   5.759
74868SOL    HW226437   2.400   7.169   5.679
74869SOL     OW26438   2.876  10.159   6.107
74869SOL    HW126439   2.923  10.239   6.130
74869SOL    HW226440   2.939  10.088   6.121
74870SOL     OW26441   7.484  10.850  10.684
74870SOL    HW126442   7.448  10.762  10.692
74870SOL    HW226443   7.412  10.902  10.647
74871SOL     OW26444   9.394   8.583   9.082
74871SOL    HW126445   9.405   8.489   9.072
74871SOL    HW226446   9.338   8.593   9.159
74872SOL     OW26447  12.796   2.991   8.811
74872SOL    HW126448  12.744   2.928   8.761
74872SOL    HW226449  12.741   3.014   8.886
74873SOL     OW26450   6.616   7.523  11.918
74873SOL    HW126451   6.535   7.533  11.968
74873SOL    HW226452   6.675   7.474  11.975
74874SOL     OW26453  11.098   0.164   9.913
74874SOL    HW126454  11.070   0.203   9.996
74874SOL    HW226455  11.113   0.238   9.855
74875SOL     OW26456   0.738  14.145  14.866
74875SOL    HW126457   0.706  14.088  14.796
74875SOL    HW226458   0.770  14.223  14.820
74876SOL     OW26459  13.056   9.336  14.398
74876SOL    HW126460  13.063   9.347  14.303
74876SOL    HW226461  12.991   9.267  14.409
74877SOL     OW26462   1.143  12.304   9.659
74877SOL    HW126463   1.105  12.223   9.627
74877SOL    HW226464   1.139  12.296   9.755
74878SOL     OW26465  12.596  13.569   6.756
74878SOL    HW126466  12.605  13.539   6.847
74878SOL    HW226467  12.602  13.664   6.762
74879SOL     OW26468  11.226   0.746   6.478
74879SOL    HW126469  11.220   0.699   6.395
74879SOL    HW226470  11.225   0.839   6.452
74880SOL     OW26471   4.577  11.330   0.163
74880SOL    HW126472   4.638  11.377   0.106
74880SOL    HW226473   4.514  11.290   0.102
74881SOL     OW26474   1.812  13.861   9.113
74881SOL    HW126475   1.761  13.937   9.085
74881SOL    HW226476   1.809  13.800   9.039
74882SOL     OW26477  13.092  11.741   9.351
74882SOL    HW126478  13.048  11.720   9.269
74882SOL    HW226479  13.077  11.664   9.407
74883SOL     OW26480  11.214   2.557   0.778
74883SOL    HW126481  11.284   2.501   0.813
74883SOL    HW226482  11.260   2.635   0.748
74884SOL     OW26483   5.310   5.201   8.682
74884SOL    HW126484   5.261   5.145   8.622
74884SOL    HW226485   5.366   5.253   8.624
74885SOL     OW26486   9.838  13.825  12.922
74885SOL    HW126487   9.821  13.802  12.830
74885SOL    HW226488   9.838  13.742  12.968
74886SOL     OW26489   2.639  11.414  12.856
74886SOL    HW126490   2.691  11.457  12.924
74886SOL    HW226491   2.548  11.434  12.879
74887SOL     OW26492   5.783  10.299   1.846
74887SOL    HW126493   5.873  10.331   1.839
74887SOL    HW226494   5.731  10.378   1.860
74888SOL     OW26495   2.593   2.605   1.167
74888SOL    HW126496   2.550   2.564   1.092
74888SOL    HW226497   2.581   2.699   1.153
74889SOL     OW26498   2.974   1.042   8.140
74889SOL    HW126499   2.904   1.087   8.093
74889SOL    HW226500   3.050   1.099   8.131
74890SOL     OW26501   1.427   3.969   7.555
74890SOL    HW126502   1.345   4.017   7.561
74890SOL    HW226503   1.429   3.935   7.466
74891SOL     OW26504  12.224   2.001  13.498
74891SOL    HW126505  12.289   1.940  13.531
74891SOL    HW226506  12.143   1.976  13.543
74892SOL     OW26507  14.460   7.692  11.863
74892SOL    HW126508  14.555   7.702  11.853
74892SOL    HW226509  14.448   7.663  11.953
74893SOL     OW26510   5.951   0.301  14.826
74893SOL    HW126511   5.856   0.302  14.813
74893SOL    HW226512   5.983   0.241  14.759
74894SOL     OW26513   0.667   1.076   9.315
74894SOL    HW126514   0.596   1.029   9.359
74894SOL    HW226515   0.659   1.166   9.346
74895SOL     OW26516  10.324   8.760   1.260
74895SOL    HW126517  10.256   8.800   1.314
74895SOL    HW226518  10.315   8.666   1.274
74896SOL     OW26519  13.225   9.703  10.089
74896SOL    HW126520  13.150   9.661  10.130
74896SOL    HW226521  13.195   9.792  10.071
74897SOL     OW26522  12.006   3.051  11.803
74897SOL    HW126523  11.940   3.119  11.789
74897SOL    HW226524  11.971   2.974  11.760
74898SOL     OW26525   3.524  13.500   5.355
74898SOL    HW126526   3.596  13.549   5.394
74898SOL    HW226527   3.445  13.550   5.379
74899SOL     OW26528   7.671   7.624   2.782
74899SOL    HW126529   7.656   7.695   2.844
74899SOL    HW226530   7.679   7.667   2.697
74900SOL     OW26531   1.216   4.056   1.452
74900SOL    HW126532   1.298   4.010   1.436
74900SOL    HW226533   1.217   4.076   1.546
74901SOL     OW26534   4.945   9.173  12.777
74901SOL    HW126535   4.910   9.176  12.688
74901SOL    HW226536   4.871   9.148  12.832
74902SOL     OW26537  10.898  10.897  10.043
74902SOL    HW126538  10.907  10.854   9.959
74902SOL    HW226539  10.960  10.853  10.100
74903SOL     OW26540   5.819   6.889  10.866
74903SOL    HW126541   5.742   6.945  10.854
74903SOL    HW226542   5.870   6.932  10.934
74904SOL     OW26543  10.740   4.395   4.147
74904SOL    HW126544  10.810   4.455   4.125
74904SOL    HW226545  10.762   4.363   4.234
74905SOL     OW26546   3.689   0.114   0.365
74905SOL    HW126547   3.675   0.021   0.345
74905SOL    HW226548   3.655   0.125   0.453
74906SOL     OW26549   4.297   5.740   1.322
74906SOL    HW126550   4.282   5.696   1.238
74906SOL    HW226551   4.366   5.803   1.304
74907SOL     OW26552  10.575   3.499  12.187
74907SOL    HW126553  10.658   3.546  12.193
74907SOL    HW226554  10.539   3.503  12.276
74908SOL     OW26555   9.643  11.330   2.614
74908SOL    HW126556   9.591  11.298   2.541
74908SOL    HW226557   9.671  11.418   2.587
74909SOL     OW26558   7.841   7.038   5.313
74909SOL    HW126559   7.784   6.965   5.334
74909SOL    HW226560   7.783   7.115   5.315
74910SOL     OW26561  10.106   8.710  11.779
74910SOL    HW126562  10.157   8.672  11.707
74910SOL    HW226563  10.032   8.651  11.790
74911SOL     OW26564   7.588   7.520   4.331
74911SOL    HW126565   7.592   7.610   4.297
74911SOL    HW226566   7.679   7.496   4.348
74912SOL     OW26567   4.547  13.062  14.739
74912SOL    HW126568   4.623  13.103  14.781
74912SOL    HW226569   4.567  12.968  14.743
74913SOL     OW26570   1.883   2.263   9.637
74913SOL    HW126571   1.954   2.204   9.661
74913SOL    HW226572   1.842   2.287   9.720
74914SOL     OW26573  12.971  11.000   0.549
74914SOL    HW126574  12.977  10.905   0.547
74914SOL    HW226575  13.062  11.029   0.552
74915SOL     OW26576  10.307  14.777   6.110
74915SOL    HW126577  10.221  14.746   6.080
74915SOL    HW226578  10.365  14.763   6.035
74916SOL     OW26579   9.846   2.312  12.169
74916SOL    HW126580   9.784   2.326  12.098
74916SOL    HW226581   9.833   2.220  12.194
74917SOL     OW26582   2.627   6.955  10.872
74917SOL    HW126583   2.682   7.033  10.872
74917SOL    HW226584   2.542   6.986  10.904
74918SOL     OW26585   2.159   1.041   2.935
74918SOL    HW126586   2.131   1.127   2.904
74918SOL    HW226587   2.252   1.035   2.911
74919SOL     OW26588  10.270  14.730  11.161
74919SOL    HW126589  10.324  14.684  11.225
74919SOL    HW226590  10.238  14.807  11.208
74920SOL     OW26591   3.829  11.189  11.454
74920SOL    HW126592   3.750  11.241  11.469
74920SOL    HW226593   3.836  11.134  11.532
74921SOL     OW26594   8.984   4.314  12.305
74921SOL    HW126595   8.992   4.342  12.214
74921SOL    HW226596   8.926   4.238  12.302
74922SOL     OW26597   3.417   3.380  13.198
74922SOL    HW126598   3.512   3.391  13.199
74922SOL    HW226599   3.384   3.446  13.258
74923SOL     OW26600   5.749  14.646   0.828
74923SOL    HW126601   5.680  14.697   0.786
74923SOL    HW226602   5.798  14.710   0.879
74924SOL     OW26603   7.985   0.595   3.618
74924SOL    HW126604   7.960   0.508   3.650
74924SOL    HW226605   7.903   0.644   3.619
74925SOL     OW26606   1.634  14.373  11.211
74925SOL    HW126607   1.709  14.432  11.205
74925SOL    HW226608   1.579  14.396  11.136
74926SOL     OW26609   2.936  14.483   6.237
74926SOL    HW126610   2.924  14.452   6.327
74926SOL    HW226611   2.989  14.415   6.195
74927SOL     OW26612  13.567   0.525   2.451
74927SOL    HW126613  13.576   0.520   2.356
74927SOL    HW226614  13.656   0.544   2.482
74928SOL     OW26615  14.598   0.205   6.417
74928SOL    HW126616  14.662   0.224   6.348
74928SOL    HW226617  14.588   0.287   6.464
74929SOL     OW26618   7.152   7.261   9.252
74929SOL    HW126619   7.201   7.180   9.237
74929SOL    HW226620   7.197   7.327   9.199
74930SOL     OW26621   2.145   3.232  14.037
74930SOL    HW126622   2.198   3.225  14.116
74930SOL    HW226623   2.055   3.220  14.067
74931SOL     OW26624   6.355  12.790  10.340
74931SOL    HW126625   6.428  12.816  10.284
74931SOL    HW226626   6.366  12.695  10.351
74932SOL     OW26627   2.868  13.581   0.324
74932SOL    HW126628   2.776  13.566   0.304
74932SOL    HW226629   2.895  13.649   0.262
74933SOL     OW26630   2.952   5.156   6.941
74933SOL    HW126631   2.960   5.205   6.859
74933SOL    HW226632   2.881   5.093   6.924
74934SOL     OW26633   4.626   0.755   1.422
74934SOL    HW126634   4.658   0.843   1.443
74934SOL    HW226635   4.701   0.711   1.382
74935SOL     OW26636  14.008   6.518   5.288
74935SOL    HW126637  14.030   6.543   5.378
74935SOL    HW226638  14.093   6.507   5.246
74936SOL     OW26639  11.059  11.221   9.902
74936SOL    HW126640  10.993  11.175   9.850
74936SOL    HW226641  11.141  11.179   9.880
74937SOL     OW26642  12.938  10.086   9.572
74937SOL    HW126643  13.014  10.141   9.550
74937SOL    HW226644  12.976  10.008   9.613
74938SOL     OW26645   9.611   8.146   4.343
74938SOL    HW126646   9.611   8.089   4.266
74938SOL    HW226647   9.678   8.211   4.325
74939SOL     OW26648  12.663   9.196  13.101
74939SOL    HW126649  12.651   9.114  13.054
74939SOL    HW226650  12.606   9.188  13.178
74940SOL     OW26651  12.600   1.122   1.731
74940SOL    HW126652  12.586   1.099   1.823
74940SOL    HW226653  12.690   1.093   1.712
74941SOL     OW26654  13.052  11.533   9.546
74941SOL    HW126655  12.993  11.578   9.607
74941SOL    HW226656  13.036  11.440   9.562
74942SOL     OW26657   9.602   5.566   4.433
74942SOL    HW126658   9.685   5.543   4.391
74942SOL    HW226659   9.560   5.483   4.452
74943SOL     OW26660   7.046  12.442   8.661
74943SOL    HW126661   6.993  12.479   8.732
74943SOL    HW226662   7.040  12.347   8.675
74944SOL     OW26663  11.233   0.365   5.505
74944SOL    HW126664  11.190   0.295   5.555
74944SOL    HW226665  11.164   0.429   5.488
74945SOL     OW26666  12.512   9.725  10.005
74945SOL    HW126667  12.606   9.741   9.999
74945SOL    HW226668  12.477   9.803  10.047
74946SOL     OW26669  12.884   1.534  11.610
74946SOL    HW126670  12.908   1.557  11.521
74946SOL    HW226671  12.867   1.440  11.608
74947SOL     OW26672  10.550   4.022  11.481
74947SOL    HW126673  10.481   4.046  11.544
74947SOL    HW226674  10.505   3.971  11.414
74948SOL     OW26675   7.280   4.617  13.796
74948SOL    HW126676   7.230   4.596  13.717
74948SOL    HW226677   7.264   4.711  13.809
74949SOL     OW26678  11.480  14.244   6.498
74949SOL    HW126679  11.460  14.288   6.416
74949SOL    HW226680  11.396  14.208   6.527
74950SOL     OW26681   5.133   6.454   6.707
74950SOL    HW126682   5.125   6.542   6.744
74950SOL    HW226683   5.058   6.446   6.648
74951SOL     OW26684   2.804  12.218   7.237
74951SOL    HW126685   2.789  12.283   7.168
74951SOL    HW226686   2.887  12.245   7.277
74952SOL     OW26687   0.167   5.022   6.758
74952SOL    HW126688   0.097   4.984   6.812
74952SOL    HW226689   0.205   5.090   6.814
74953SOL     OW26690   6.434   9.175   6.799
74953SOL    HW126691   6.422   9.156   6.892
74953SOL    HW226692   6.389   9.104   6.754
74954SOL     OW26693   6.026   7.016   4.982
74954SOL    HW126694   5.953   6.955   4.994
74954SOL    HW226695   6.104   6.964   5.000
74955SOL     OW26696   1.118   6.110   6.032
74955SOL    HW126697   1.176   6.048   5.987
74955SOL    HW226698   1.148   6.109   6.123
74956SOL     OW26699   4.349   6.217  13.810
74956SOL    HW126700   4.338   6.267  13.729
74956SOL    HW226701   4.324   6.277  13.879
74957SOL     OW26702  14.545   3.422   0.374
74957SOL    HW126703  14.598   3.494   0.339
74957SOL    HW226704  14.579   3.345   0.330
74958SOL     OW26705   7.827   9.042  11.888
74958SOL    HW126706   7.894   8.986  11.929
74958SOL    HW226707   7.874   9.089  11.820
74959SOL     OW26708   6.742   1.715  14.095
74959SOL    HW126709   6.726   1.653  14.166
74959SOL    HW226710   6.796   1.666  14.032
74960SOL     OW26711   8.199  11.695   3.331
74960SOL    HW126712   8.203  11.617   3.386
74960SOL    HW226713   8.134  11.751   3.374
74961SOL     OW26714   9.530  10.639   1.049
74961SOL    HW126715   9.540  10.599   0.963
74961SOL    HW226716   9.438  10.667   1.051
74962SOL     OW26717   6.865  13.860   7.270
74962SOL    HW126718   6.804  13.933   7.277
74962SOL    HW226719   6.885  13.836   7.361
74963SOL     OW26720   1.436   7.810  11.644
74963SOL    HW126721   1.457   7.798  11.552
74963SOL    HW226722   1.346   7.780  11.653
74964SOL     OW26723  14.592   1.942  10.553
74964SOL    HW126724  14.598   2.025  10.507
74964SOL    HW226725  14.672   1.938  10.606
74965SOL     OW26726   2.196   3.818   8.345
74965SOL    HW126727   2.141   3.804   8.422
74965SOL    HW226728   2.247   3.896   8.367
74966SOL     OW26729   6.122   4.002   4.152
74966SOL    HW126730   6.139   4.044   4.067
74966SOL    HW226731   6.039   4.038   4.180
74967SOL     OW26732   4.730  12.863   5.837
74967SOL    HW126733   4.734  12.796   5.905
74967SOL    HW226734   4.670  12.929   5.872
74968SOL     OW26735   5.861   9.841   6.641
74968SOL    HW126736   5.831   9.798   6.561
74968SOL    HW226737   5.786   9.834   6.701
74969SOL     OW26738   3.892  12.328  13.083
74969SOL    HW126739   3.926  12.240  13.103
74969SOL    HW226740   3.929  12.384  13.151
74970SOL     OW26741   9.762   1.437   3.449
74970SOL    HW126742   9.769   1.371   3.517
74970SOL    HW226743   9.847   1.435   3.404
74971SOL     OW26744   7.136   5.600  12.487
74971SOL    HW126745   7.063   5.588  12.425
74971SOL    HW226746   7.187   5.671  12.449
74972SOL     OW26747  12.827   8.783   0.177
74972SOL    HW126748  12.831   8.868   0.132
74972SOL    HW226749  12.917   8.752   0.177
74973SOL     OW26750   6.927  12.370  14.302
74973SOL    HW126751   6.883  12.448  14.336
74973SOL    HW226752   6.878  12.297  14.337
74974SOL     OW26753  12.687   2.514  12.525
74974SOL    HW126754  12.609   2.502  12.578
74974SOL    HW226755  12.659   2.573  12.454
74975SOL     OW26756   9.277  14.100  11.918
74975SOL    HW126757   9.369  14.129  11.915
74975SOL    HW226758   9.268  14.044  11.841
74976SOL     OW26759   1.382   4.201  10.610
74976SOL    HW126760   1.471   4.206  10.576
74976SOL    HW226761   1.381   4.120  10.661
74977SOL     OW26762  11.946  13.218   7.763
74977SOL    HW126763  11.884  13.157   7.804
74977SOL    HW226764  12.030  13.198   7.804
74978SOL     OW26765  14.831   5.719   8.799
74978SOL    HW126766  14.812   5.672   8.880
74978SOL    HW226767  14.800   5.661   8.729
74979SOL     OW26768   7.764   1.057   7.807
74979SOL    HW126769   7.696   1.006   7.763
74979SOL    HW226770   7.845   1.036   7.759
74980SOL     OW26771   6.832   8.646  10.104
74980SOL    HW126772   6.870   8.572  10.151
74980SOL    HW226773   6.743   8.619  10.083
74981SOL     OW26774   5.682   1.249   1.194
74981SOL    HW126775   5.679   1.287   1.107
74981SOL    HW226776   5.625   1.305   1.247
74982SOL     OW26777   9.175  13.125   8.396
74982SOL    HW126778   9.136  13.042   8.370
74982SOL    HW226779   9.118  13.192   8.357
74983SOL     OW26780   1.076  13.901   8.482
74983SOL    HW126781   1.136  13.971   8.507
74983SOL    HW226782   1.033  13.876   8.564
74984SOL     OW26783  10.277   0.280  10.926
74984SOL    HW126784  10.231   0.364  10.923
74984SOL    HW226785  10.264   0.242  10.840
74985SOL     OW26786   6.721   6.331  12.520
74985SOL    HW126787   6.785   6.367  12.460
74985SOL    HW226788   6.742   6.371  12.605
74986SOL     OW26789   4.250   6.639   7.270
74986SOL    HW126790   4.239   6.572   7.202
74986SOL    HW226791   4.229   6.594   7.351
74987SOL     OW26792  14.776   1.819  12.328
74987SOL    HW126793  14.850   1.866  12.290
74987SOL    HW226794  14.736   1.773  12.255
74988SOL     OW26795   2.128  14.139   5.362
74988SOL    HW126796   2.064  14.203   5.393
74988SOL    HW226797   2.136  14.077   5.435
74989SOL     OW26798   2.994   4.478  13.801
74989SOL    HW126799   3.088   4.458  13.808
74989SOL    HW226800   2.988   4.572  13.820
74990SOL     OW26801   0.340   8.070   9.666
74990SOL    HW126802   0.358   8.164   9.679
74990SOL    HW226803   0.368   8.029   9.748
74991SOL     OW26804   9.271   5.422  10.158
74991SOL    HW126805   9.179   5.434  10.136
74991SOL    HW226806   9.307   5.374  10.083
74992SOL     OW26807   6.104   6.540   9.416
74992SOL    HW126808   6.013   6.509   9.411
74992SOL    HW226809   6.097   6.635   9.420
74993SOL     OW26810   9.866   4.229   2.790
74993SOL    HW126811   9.876   4.241   2.885
74993SOL    HW226812   9.954   4.240   2.755
74994SOL     OW26813   3.878   0.663   2.406
74994SOL    HW126814   3.845   0.574   2.421
74994SOL    HW226815   3.853   0.711   2.485
74995SOL     OW26816   7.563   1.655   1.631
74995SOL    HW126817   7.573   1.656   1.727
74995SOL    HW226818   7.589   1.566   1.606
74996SOL     OW26819  13.256   7.701   9.180
74996SOL    HW126820  13.240   7.637   9.250
74996SOL    HW226821  13.265   7.784   9.226
74997SOL     OW26822  11.871  12.065   9.909
74997SOL    HW126823  11.964  12.046   9.914
74997SOL    HW226824  11.865  12.146   9.858
74998SOL     OW26825   8.497   4.862   8.631
74998SOL    HW126826   8.532   4.818   8.554
74998SOL    HW226827   8.575   4.895   8.677
74999SOL     OW26828   0.010  12.496   3.393
74999SOL    HW126829  14.803  12.538   3.370
74999SOL    HW226830   0.002  12.476   3.486
75000SOL     OW26831  13.449   0.274  13.526
75000SOL    HW126832  13.497   0.194  13.545
75000SOL    HW226833  13.479   0.301  13.439
75001SOL     OW26834  10.238  10.174   2.574
75001SOL    HW126835  10.198  10.251   2.615
75001SOL    HW226836  10.251  10.112   2.646
75002SOL     OW26837   5.902   4.947   3.429
75002SOL    HW126838   5.845   5.023   3.443
75002SOL    HW226839   5.953   4.940   3.510
75003SOL     OW26840   4.066  14.810  10.603
75003SOL    HW126841   4.119  14.876  10.648
75003SOL    HW226842   4.127  14.767  10.543
75004SOL     OW26843  14.074  11.537  10.543
75004SOL    HW126844  14.013  11.564  10.612
75004SOL    HW226845  14.032  11.565  10.462
75005SOL     OW26846   9.987   5.947   6.545
75005SOL    HW126847  10.039   5.893   6.485
75005SOL    HW226848   9.953   6.017   6.490
75006SOL     OW26849   1.303  14.627   4.688
75006SOL    HW126850   1.233  14.565   4.672
75006SOL    HW226851   1.358  14.621   4.610
75007SOL     OW26852  11.092   9.759   2.136
75007SOL    HW126853  11.065   9.849   2.153
75007SOL    HW226854  11.035   9.729   2.066
75008SOL     OW26855  10.357   6.779   8.305
75008SOL    HW126856  10.403   6.711   8.353
75008SOL    HW226857  10.269   6.744   8.291
75009SOL     OW26858  13.221   2.954   5.080
75009SOL    HW126859  13.172   2.916   5.008
75009SOL    HW226860  13.208   2.892   5.153
75010SOL     OW26861   6.279   0.082   1.877
75010SOL    HW126862   6.244  14.871   1.896
75010SOL    HW226863   6.346   0.097   1.943
75011SOL     OW26864   2.101  12.879  12.359
75011SOL    HW126865   2.011  12.891  12.327
75011SOL    HW226866   2.092  12.881  12.454
75012SOL     OW26867  13.873  11.499   0.520
75012SOL    HW126868  13.894  11.491   0.613
75012SOL    HW226869  13.955  11.481   0.475
75013SOL     OW26870   7.485   7.032  10.641
75013SOL    HW126871   7.390   7.040  10.647
75013SOL    HW226872   7.504   7.042  10.548
75014SOL     OW26873   1.736  10.310   4.390
75014SOL    HW126874   1.821  10.280   4.424
75014SOL    HW226875   1.752  10.327   4.297
75015SOL     OW26876   3.685   7.284   6.401
75015SOL    HW126877   3.615   7.219   6.397
75015SOL    HW226878   3.722   7.285   6.312
75016SOL     OW26879  12.697   0.235   6.814
75016SOL    HW126880  12.611   0.196   6.833
75016SOL    HW226881  12.731   0.261   6.899
75017SOL     OW26882  12.133   6.764   3.138
75017SOL    HW126883  12.131   6.700   3.067
75017SOL    HW226884  12.139   6.849   3.094
75018SOL     OW26885   1.334   3.345   5.686
75018SOL    HW126886   1.417   3.296   5.688
75018SOL    HW226887   1.290   3.320   5.766
75019SOL     OW26888   5.328   2.588   2.782
75019SOL    HW126889   5.306   2.680   2.768
75019SOL    HW226890   5.417   2.590   2.819
75020SOL     OW26891   8.409   6.109  12.060
75020SOL    HW126892   8.339   6.054  12.098
75020SOL    HW226893   8.456   6.144  12.136
75021SOL     OW26894   1.502  14.570   5.522
75021SOL    HW126895   1.432  14.595   5.582
75021SOL    HW226896   1.576  14.547   5.579
75022SOL     OW26897   2.657   3.767  11.515
75022SOL    HW126898   2.740   3.731  11.545
75022SOL    HW226899   2.591   3.709  11.552
75023SOL     OW26900   9.508   6.078   8.927
75023SOL    HW126901   9.434   6.137   8.942
75023SOL    HW226902   9.469   5.990   8.932
75024SOL     OW26903  10.055   9.297   5.577
75024SOL    HW126904  10.008   9.217   5.599
75024SOL    HW226905  10.046   9.352   5.655
75025SOL     OW26906   2.994   9.391   5.694
75025SOL    HW126907   2.987   9.318   5.756
75025SOL    HW226908   2.907   9.431   5.695
75026SOL     OW26909   4.963   2.814   2.342
75026SOL    HW126910   4.870   2.833   2.335
75026SOL    HW226911   4.990   2.793   2.252
75027SOL     OW26912   0.171  11.367   0.372
75027SOL    HW126913   0.152  11.274   0.362
75027SOL    HW226914   0.238  11.371   0.439
75028SOL     OW26915   3.970  10.568   0.878
75028SOL    HW126916   3.883  10.561   0.916
75028SOL    HW226917   4.026  10.515   0.935
75029SOL     OW26918   6.931   2.152  14.177
75029SOL    HW126919   6.892   2.065  14.187
75029SOL    HW226920   6.890   2.188  14.099
75030SOL     OW26921   4.439  12.940   1.838
75030SOL    HW126922   4.419  12.875   1.771
75030SOL    HW226923   4.355  12.983   1.856
75031SOL     OW26924   2.292   9.580   7.371
75031SOL    HW126925   2.196   9.572   7.367
75031SOL    HW226926   2.317   9.607   7.283
75032SOL     OW26927   9.628   7.988   4.111
75032SOL    HW126928   9.652   8.037   4.032
75032SOL    HW226929   9.545   7.947   4.089
75033SOL     OW26930   0.657   4.959   5.341
75033SOL    HW126931   0.732   4.914   5.302
75033SOL    HW226932   0.649   4.920   5.428
75034SOL     OW26933   9.044   4.706   7.185
75034SOL    HW126934   9.091   4.768   7.240
75034SOL    HW226935   9.012   4.758   7.111
75035SOL     OW26936   1.055   1.862   2.580
75035SOL    HW126937   1.149   1.869   2.595
75035SOL    HW226938   1.043   1.896   2.491
75036SOL     OW26939   1.907   3.962  12.060
75036SOL    HW126940   1.914   3.876  12.101
75036SOL    HW226941   1.993   4.002  12.075
75037SOL     OW26942   5.263   3.689   1.805
75037SOL    HW126943   5.325   3.720   1.872
75037SOL    HW226944   5.188   3.657   1.855
75038SOL     OW26945   7.607   1.182   0.276
75038SOL    HW126946   7.649   1.196   0.191
75038SOL    HW226947   7.669   1.217   0.339
75039SOL     OW26948   1.475   6.152  10.322
75039SOL    HW126949   1.382   6.167  10.335
75039SOL    HW226950   1.484   6.057  10.314
75040SOL     OW26951  11.371   8.398   7.565
75040SOL    HW126952  11.291   8.413   7.515
75040SOL    HW226953  11.441   8.402   7.500
75041SOL     OW26954  14.721  11.882   7.644
75041SOL    HW126955  14.815  11.865   7.654
75041SOL    HW226956  14.691  11.899   7.733
75042SOL     OW26957  12.509   5.109  13.531
75042SOL    HW126958  12.477   5.095  13.620
75042SOL    HW226959  12.604   5.096  13.537
75043SOL     OW26960   3.965   0.688  10.378
75043SOL    HW126961   3.967   0.648  10.291
75043SOL    HW226962   3.958   0.614  10.439
75044SOL     OW26963   8.869   4.165   7.112
75044SOL    HW126964   8.857   4.149   7.019
75044SOL    HW226965   8.916   4.249   7.117
75045SOL     OW26966   7.989   3.164  12.391
75045SOL    HW126967   8.062   3.225  12.396
75045SOL    HW226968   7.933   3.186  12.465
75046SOL     OW26969   7.982  11.014  14.510
75046SOL    HW126970   8.002  11.076  14.440
75046SOL    HW226971   8.015  11.056  14.589
75047SOL     OW26972  14.040   1.403  13.167
75047SOL    HW126973  14.032   1.308  13.170
75047SOL    HW226974  14.005   1.433  13.250
75048SOL     OW26975  10.404   5.505  12.119
75048SOL    HW126976  10.366   5.422  12.149
75048SOL    HW226977  10.412   5.557  12.198
75049SOL     OW26978   1.752   6.115   9.808
75049SOL    HW126979   1.682   6.177   9.828
75049SOL    HW226980   1.823   6.138   9.867
75050SOL     OW26981   3.194  11.066  14.092
75050SOL    HW126982   3.157  11.066  14.181
75050SOL    HW226983   3.287  11.083  14.105
75051SOL     OW26984  13.696   7.121   8.934
75051SOL    HW126985  13.739   7.050   8.982
75051SOL    HW226986  13.714   7.102   8.842
75052SOL     OW26987   9.848   0.686   8.004
75052SOL    HW126988   9.815   0.598   8.023
75052SOL    HW226989   9.943   0.677   8.003
75053SOL     OW26990   3.441   8.924   6.510
75053SOL    HW126991   3.496   8.889   6.441
75053SOL    HW226992   3.470   8.878   6.589
75054SOL     OW26993   9.632   6.963   6.444
75054SOL    HW126994   9.637   7.028   6.514
75054SOL    HW226995   9.690   6.892   6.473
75055SOL     OW26996   7.418   3.705  14.490
75055SOL    HW126997   7.439   3.613  14.472
75055SOL    HW226998   7.324   3.713  14.473
75056SOL     OW26999  11.612   1.970   0.903
75056SOL    HW127000  11.696   1.955   0.945
75056SOL    HW227001  11.567   1.885   0.908
75057SOL     OW27002   8.929   6.656   1.004
75057SOL    HW127003   8.878   6.596   0.949
75057SOL    HW227004   8.879   6.738   1.003
75058SOL     OW27005  13.908  13.618  14.092
75058SOL    HW127006  13.818  13.624  14.061
75058SOL    HW227007  13.912  13.535  14.138
75059SOL     OW27008   8.295   7.154   4.191
75059SOL    HW127009   8.224   7.177   4.250
75059SOL    HW227010   8.254   7.149   4.104
75060SOL     OW27011  10.073   9.842   1.867
75060SOL    HW127012  10.113   9.783   1.804
75060SOL    HW227013  10.056   9.922   1.817
75061SOL     OW27014   4.520   2.044   0.168
75061SOL    HW127015   4.593   2.105   0.159
75061SOL    HW227016   4.497   2.048   0.261
75062SOL     OW27017  10.220  12.303  14.772
75062SOL    HW127018  10.161  12.256  14.713
75062SOL    HW227019  10.170  12.316  14.852
75063SOL     OW27020  11.413   5.251   9.960
75063SOL    HW127021  11.468   5.174   9.970
75063SOL    HW227022  11.462   5.308   9.902
75064SOL     OW27023   6.101   4.060   5.127
75064SOL    HW127024   6.010   4.041   5.101
75064SOL    HW227025   6.093   4.095   5.216
75065SOL     OW27026   6.192   0.396  14.480
75065SOL    HW127027   6.264   0.423  14.423
75065SOL    HW227028   6.152   0.477  14.508
75066SOL     OW27029   8.756  10.925   8.523
75066SOL    HW127030   8.692  10.894   8.587
75066SOL    HW227031   8.721  11.010   8.494
75067SOL     OW27032   9.147  13.756   7.980
75067SOL    HW127033   9.146  13.850   8.000
75067SOL    HW227034   9.055  13.731   7.977
75068SOL     OW27035   9.487   0.267   1.987
75068SOL    HW127036   9.563   0.252   2.043
75068SOL    HW227037   9.450   0.180   1.972
75069SOL     OW27038   1.304   5.673   0.546
75069SOL    HW127039   1.399   5.671   0.551
75069SOL    HW227040   1.281   5.766   0.552
75070SOL     OW27041   0.425  10.880   5.265
75070SOL    HW127042   0.401  10.888   5.357
75070SOL    HW227043   0.445  10.969   5.237
75071SOL     OW27044  13.450   1.358   0.399
75071SOL    HW127045  13.410   1.317   0.322
75071SOL    HW227046  13.433   1.451   0.388
75072SOL     OW27047   5.330   5.673  11.150
75072SOL    HW127048   5.421   5.700  11.134
75072SOL    HW227049   5.333   5.577  11.152
75073SOL     OW27050  10.338   7.836   3.360
75073SOL    HW127051  10.322   7.926   3.386
75073SOL    HW227052  10.299   7.784   3.431
75074SOL     OW27053   3.424  12.235  14.512
75074SOL    HW127054   3.349  12.214  14.457
75074SOL    HW227055   3.498  12.189  14.472
75075SOL     OW27056   3.590   7.168   1.381
75075SOL    HW127057   3.529   7.109   1.425
75075SOL    HW227058   3.533   7.225   1.329
75076SOL     OW27059   5.141   4.447  14.307
75076SOL    HW127060   5.226   4.481  14.335
75076SOL    HW227061   5.150   4.352  14.314
75077SOL     OW27062  12.432   4.035   6.703
75077SOL    HW127063  12.483   4.005   6.778
75077SOL    HW227064  12.374   3.961   6.683
75078SOL     OW27065   3.272   0.767   7.509
75078SOL    HW127066   3.289   0.860   7.492
75078SOL    HW227067   3.267   0.727   7.422
75079SOL     OW27068   6.335   4.515   7.940
75079SOL    HW127069   6.418   4.562   7.950
75079SOL    HW227070   6.322   4.510   7.845
75080SOL     OW27071   7.212   3.301  11.324
75080SOL    HW127072   7.226   3.281  11.231
75080SOL    HW227073   7.239   3.221  11.370
75081SOL     OW27074  12.900   0.486  10.320
75081SOL    HW127075  12.897   0.559  10.382
75081SOL    HW227076  12.912   0.409  10.376
75082SOL     OW27077   8.308   5.769  10.070
75082SOL    HW127078   8.362   5.836  10.029
75082SOL    HW227079   8.244   5.819  10.121
75083SOL     OW27080   4.281  14.439  10.501
75083SOL    HW127081   4.235  14.511  10.457
75083SOL    HW227082   4.374  14.456  10.484
75084SOL     OW27083   1.067   6.940   9.976
75084SOL    HW127084   1.052   7.019   9.925
75084SOL    HW227085   1.160   6.919   9.961
75085SOL     OW27086   7.054   6.992  14.231
75085SOL    HW127087   7.110   7.019  14.158
75085SOL    HW227088   7.092   6.909  14.260
75086SOL     OW27089   3.039  10.036   1.836
75086SOL    HW127090   2.953  10.063   1.803
75086SOL    HW227091   3.062   9.960   1.783
75087SOL     OW27092   6.682   8.635   2.397
75087SOL    HW127093   6.716   8.581   2.469
75087SOL    HW227094   6.590   8.611   2.390
75088SOL     OW27095  10.813  13.401  10.269
75088SOL    HW127096  10.890  13.346  10.278
75088SOL    HW227097  10.765  13.363  10.195
75089SOL     OW27098   0.131   7.120  10.279
75089SOL    HW127099   0.092   7.035  10.300
75089SOL    HW227100   0.065   7.164  10.226
75090SOL     OW27101   0.515   9.421   5.855
75090SOL    HW127102   0.597   9.457   5.820
75090SOL    HW227103   0.451   9.491   5.843
75091SOL     OW27104   3.230   6.044   7.221
75091SOL    HW127105   3.151   6.060   7.169
75091SOL    HW227106   3.297   6.022   7.157
75092SOL     OW27107  14.194   6.213   5.274
75092SOL    HW127108  14.173   6.131   5.319
75092SOL    HW227109  14.200   6.278   5.344
75093SOL     OW27110  11.559   8.627  10.909
75093SOL    HW127111  11.488   8.571  10.879
75093SOL    HW227112  11.521   8.715  10.911
75094SOL     OW27113  12.089   0.950   4.998
75094SOL    HW127114  12.039   0.874   5.028
75094SOL    HW227115  12.180   0.919   4.994
75095SOL     OW27116   4.629   3.114   2.836
75095SOL    HW127117   4.551   3.066   2.807
75095SOL    HW227118   4.599   3.168   2.909
75096SOL     OW27119   7.776  12.187  12.680
75096SOL    HW127120   7.795  12.266  12.630
75096SOL    HW227121   7.737  12.219  12.762
75097SOL     OW27122   0.481   7.333   6.841
75097SOL    HW127123   0.526   7.275   6.903
75097SOL    HW227124   0.536   7.330   6.763
75098SOL     OW27125  10.737   1.587   7.027
75098SOL    HW127126  10.647   1.608   7.001
75098SOL    HW227127  10.786   1.667   7.006
75099SOL     OW27128   5.853   7.010   0.079
75099SOL    HW127129   5.839   6.916   0.070
75099SOL    HW227130   5.852   7.044  14.865
75100SOL     OW27131  11.745   8.310   2.796
75100SOL    HW127132  11.697   8.340   2.873
75100SOL    HW227133  11.702   8.228   2.771
75101SOL     OW27134  12.533   9.391  10.562
75101SOL    HW127135  12.471   9.324  10.590
75101SOL    HW227136  12.498   9.424  10.480
75102SOL     OW27137   9.312  11.780   7.907
75102SOL    HW127138   9.233  11.832   7.925
75102SOL    HW227139   9.282  11.713   7.845
75103SOL     OW27140   6.988  13.646   1.342
75103SOL    HW127141   7.074  13.678   1.366
75103SOL    HW227142   7.003  13.555   1.315
75104SOL     OW27143  10.688   2.395   9.180
75104SOL    HW127144  10.610   2.427   9.225
75104SOL    HW227145  10.657   2.320   9.129
75105SOL     OW27146   6.172   0.126   3.223
75105SOL    HW127147   6.171   0.054   3.160
75105SOL    HW227148   6.135   0.200   3.175
75106SOL     OW27149   5.086  10.731   4.654
75106SOL    HW127150   5.041  10.806   4.616
75106SOL    HW227151   5.051  10.656   4.605
75107SOL     OW27152  10.390  13.792   4.181
75107SOL    HW127153  10.445  13.852   4.130
75107SOL    HW227154  10.341  13.850   4.240
75108SOL     OW27155   8.510  13.940   5.098
75108SOL    HW127156   8.457  13.869   5.134
75108SOL    HW227157   8.527  13.914   5.008
75109SOL     OW27158   7.331   7.526  14.294
75109SOL    HW127159   7.338   7.570  14.209
75109SOL    HW227160   7.420   7.499  14.314
75110SOL     OW27161   5.969  14.689   9.500
75110SOL    HW127162   5.880  14.691   9.465
75110SOL    HW227163   5.962  14.729   9.587
75111SOL     OW27164   1.895   8.439   8.100
75111SOL    HW127165   1.979   8.432   8.055
75111SOL    HW227166   1.854   8.353   8.088
75112SOL     OW27167   4.746   6.612  10.869
75112SOL    HW127168   4.722   6.525  10.837
75112SOL    HW227169   4.840   6.620  10.850
75113SOL     OW27170  13.734  14.715   1.004
75113SOL    HW127171  13.707  14.674   0.922
75113SOL    HW227172  13.825  14.689   1.016
75114SOL     OW27173  12.255   8.373   3.661
75114SOL    HW127174  12.182   8.426   3.691
75114SOL    HW227175  12.256   8.386   3.566
75115SOL     OW27176  13.173   3.337   6.838
75115SOL    HW127177  13.181   3.277   6.912
75115SOL    HW227178  13.250   3.318   6.784
75116SOL     OW27179  13.949  11.731   3.420
75116SOL    HW127180  14.040  11.755   3.405
75116SOL    HW227181  13.946  11.702   3.511
75117SOL     OW27182   5.129   4.716   4.651
75117SOL    HW127183   5.160   4.782   4.713
75117SOL    HW227184   5.086   4.650   4.705
75118SOL     OW27185   4.032   4.001  10.000
75118SOL    HW127186   4.074   3.915   9.991
75118SOL    HW227187   4.095   4.054  10.050
75119SOL     OW27188   2.032  11.463   8.193
75119SOL    HW127189   2.070  11.544   8.227
75119SOL    HW227190   2.102  11.424   8.141
75120SOL     OW27191   5.171   1.101  14.549
75120SOL    HW127192   5.222   1.084  14.628
75120SOL    HW227193   5.226   1.072  14.477
75121SOL     OW27194   3.084   8.435  14.574
75121SOL    HW127195   3.098   8.420  14.667
75121SOL    HW227196   3.137   8.512  14.553
75122SOL     OW27197   0.575  10.309  14.403
75122SOL    HW127198   0.498  10.365  14.417
75122SOL    HW227199   0.540  10.232  14.359
75123SOL     OW27200  14.461   0.363   8.689
75123SOL    HW127201  14.449   0.301   8.617
75123SOL    HW227202  14.405   0.437   8.666
75124SOL     OW27203   9.577  12.534   7.603
75124SOL    HW127204   9.583  12.589   7.681
75124SOL    HW227205   9.614  12.587   7.533
75125SOL     OW27206  14.436   1.745   4.895
75125SOL    HW127207  14.486   1.795   4.830
75125SOL    HW227208  14.456   1.653   4.876
75126SOL     OW27209   5.243   9.227   3.632
75126SOL    HW127210   5.291   9.206   3.712
75126SOL    HW227211   5.309   9.263   3.573
75127SOL     OW27212   7.639   0.292  12.198
75127SOL    HW127213   7.717   0.346  12.206
75127SOL    HW227214   7.568   0.346  12.232
75128SOL     OW27215  12.641  11.150  11.782
75128SOL    HW127216  12.621  11.079  11.722
75128SOL    HW227217  12.713  11.198  11.741
75129SOL     OW27218   0.625   1.432   5.061
75129SOL    HW127219   0.624   1.360   4.998
75129SOL    HW227220   0.643   1.390   5.145
75130SOL     OW27221   8.479   3.504  12.767
75130SOL    HW127222   8.566   3.465  12.777
75130SOL    HW227223   8.421   3.447  12.818
75131SOL     OW27224   8.800   0.116  13.383
75131SOL    HW127225   8.837   0.107  13.471
75131SOL    HW227226   8.799   0.027  13.348
75132SOL     OW27227   4.199   0.580   5.454
75132SOL    HW127228   4.199   0.533   5.370
75132SOL    HW227229   4.275   0.637   5.449
75133SOL     OW27230   4.244   1.493   6.879
75133SOL    HW127231   4.284   1.409   6.859
75133SOL    HW227232   4.176   1.473   6.944
75134SOL     OW27233   0.239   0.144   3.998
75134SOL    HW127234   0.176   0.202   4.043
75134SOL    HW227235   0.301   0.204   3.956
75135SOL     OW27236  11.288  11.698  12.822
75135SOL    HW127237  11.198  11.696  12.789
75135SOL    HW227238  11.337  11.747  12.756
75136SOL     OW27239   6.870   6.172   9.434
75136SOL    HW127240   6.783   6.212   9.445
75136SOL    HW227241   6.915   6.231   9.373
75137SOL     OW27242  11.576  13.993  11.987
75137SOL    HW127243  11.655  14.044  12.003
75137SOL    HW227244  11.602  13.903  12.005
75138SOL     OW27245   7.839   0.809   5.163
75138SOL    HW127246   7.847   0.844   5.074
75138SOL    HW227247   7.751   0.773   5.167
75139SOL     OW27248   7.294   1.814  11.775
75139SOL    HW127249   7.345   1.879  11.726
75139SOL    HW227250   7.224   1.864  11.815
75140SOL     OW27251   0.107   3.855   7.356
75140SOL    HW127252   0.078   3.881   7.269
75140SOL    HW227253   0.189   3.902   7.369
75141SOL     OW27254  12.815   7.170   2.733
75141SOL    HW127255  12.883   7.104   2.742
75141SOL    HW227256  12.843   7.224   2.659
75142SOL     OW27257   5.201  13.353   1.581
75142SOL    HW127258   5.252  13.434   1.582
75142SOL    HW227259   5.182  13.337   1.488
75143SOL     OW27260   9.996   7.860   1.299
75143SOL    HW127261   9.993   7.946   1.340
75143SOL    HW227262  10.038   7.804   1.365
75144SOL     OW27263  12.965   6.706   8.574
75144SOL    HW127264  13.014   6.653   8.636
75144SOL    HW227265  12.884   6.658   8.559
75145SOL     OW27266   2.365   7.057  12.284
75145SOL    HW127267   2.270   7.055  12.272
75145SOL    HW227268   2.382   6.991  12.351
75146SOL     OW27269   8.729  13.742   9.415
75146SOL    HW127270   8.725  13.769   9.507
75146SOL    HW227271   8.645  13.698   9.400
75147SOL     OW27272   5.768   5.392   3.904
75147SOL    HW127273   5.779   5.315   3.960
75147SOL    HW227274   5.842   5.449   3.927
75148SOL     OW27275  13.919   4.709   4.019
75148SOL    HW127276  14.008   4.679   4.038
75148SOL    HW227277  13.866   4.674   4.091
75149SOL     OW27278   8.617  11.687  11.007
75149SOL    HW127279   8.711  11.695  11.024
75149SOL    HW227280   8.611  11.633  10.928
75150SOL     OW27281   4.809   1.053   0.551
75150SOL    HW127282   4.750   1.101   0.609
75150SOL    HW227283   4.883   1.029   0.606
75151SOL     OW27284  11.940  14.866   1.314
75151SOL    HW127285  11.884  14.837   1.386
75151SOL    HW227286  12.028  14.869   1.352
75152SOL     OW27287   8.879   8.196   7.626
75152SOL    HW127288   8.823   8.183   7.550
75152SOL    HW227289   8.936   8.270   7.601
75153SOL     OW27290  10.124   2.444   2.658
75153SOL    HW127291  10.106   2.509   2.725
75153SOL    HW227292  10.119   2.360   2.704
75154SOL     OW27293   0.541  14.570   5.593
75154SOL    HW127294   0.484  14.494   5.597
75154SOL    HW227295   0.630  14.533   5.596
75155SOL     OW27296  12.353   1.431  11.196
75155SOL    HW127297  12.284   1.424  11.261
75155SOL    HW227298  12.434   1.423  11.245
75156SOL     OW27299   2.368   2.214  13.787
75156SOL    HW127300   2.292   2.253  13.744
75156SOL    HW227301   2.420   2.288  13.818
75157SOL     OW27302   4.332  10.709   9.401
75157SOL    HW127303   4.330  10.769   9.327
75157SOL    HW227304   4.257  10.735   9.455
75158SOL     OW27305   4.286  12.513  12.983
75158SOL    HW127306   4.356  12.450  12.968
75158SOL    HW227307   4.282  12.523  13.078
75159SOL     OW27308  10.450   1.229   6.327
75159SOL    HW127309  10.505   1.308   6.324
75159SOL    HW227310  10.362   1.263   6.341
75160SOL     OW27311   7.139   9.510  13.262
75160SOL    HW127312   7.081   9.454  13.314
75160SOL    HW227313   7.099   9.597  13.269
75161SOL     OW27314   3.912   4.111   7.697
75161SOL    HW127315   3.923   4.054   7.621
75161SOL    HW227316   3.888   4.052   7.768
75162SOL     OW27317   3.094  14.763  13.333
75162SOL    HW127318   3.099  14.731  13.423
75162SOL    HW227319   3.022  14.826  13.334
75163SOL     OW27320  11.420   1.223  12.214
75163SOL    HW127321  11.408   1.141  12.167
75163SOL    HW227322  11.465   1.198  12.295
75164SOL     OW27323   0.783  10.920  13.295
75164SOL    HW127324   0.746  10.900  13.381
75164SOL    HW227325   0.710  10.911  13.235
75165SOL     OW27326   1.282   1.287  14.537
75165SOL    HW127327   1.300   1.245  14.453
75165SOL    HW227328   1.235   1.220  14.587
75166SOL     OW27329   4.531   5.014   6.854
75166SOL    HW127330   4.619   5.052   6.846
75166SOL    HW227331   4.484   5.076   6.910
75167SOL     OW27332  11.479   4.772  12.672
75167SOL    HW127333  11.466   4.695  12.616
75167SOL    HW227334  11.465   4.847  12.614
75168SOL     OW27335   6.841  11.360  12.804
75168SOL    HW127336   6.760  11.402  12.776
75168SOL    HW227337   6.816  11.268  12.817
75169SOL     OW27338   6.406  12.863   7.122
75169SOL    HW127339   6.348  12.880   7.196
75169SOL    HW227340   6.378  12.777   7.090
75170SOL     OW27341   7.670  11.271   8.862
75170SOL    HW127342   7.587  11.255   8.818
75170SOL    HW227343   7.725  11.197   8.837
75171SOL     OW27344  13.832  12.744   7.645
75171SOL    HW127345  13.809  12.658   7.610
75171SOL    HW227346  13.924  12.737   7.668
75172SOL     OW27347   8.278   8.814  14.177
75172SOL    HW127348   8.271   8.731  14.224
75172SOL    HW227349   8.342   8.798  14.108
75173SOL     OW27350  10.559   3.954  10.494
75173SOL    HW127351  10.557   4.047  10.514
75173SOL    HW227352  10.602   3.949  10.409
75174SOL     OW27353   8.692   6.403  10.712
75174SOL    HW127354   8.645   6.465  10.656
75174SOL    HW227355   8.754   6.361  10.653
75175SOL     OW27356  11.971   3.999   8.372
75175SOL    HW127357  12.029   3.965   8.304
75175SOL    HW227358  11.925   3.922   8.405
75176SOL     OW27359   8.418   3.548   9.458
75176SOL    HW127360   8.405   3.630   9.409
75176SOL    HW227361   8.453   3.487   9.394
75177SOL     OW27362   8.619   3.102  12.407
75177SOL    HW127363   8.535   3.110  12.452
75177SOL    HW227364   8.606   3.029  12.346
75178SOL     OW27365  12.364   5.745   9.191
75178SOL    HW127366  12.369   5.701   9.106
75178SOL    HW227367  12.358   5.675   9.255
75179SOL     OW27368   2.917  12.671   7.050
75179SOL    HW127369   3.000  12.623   7.042
75179SOL    HW227370   2.926  12.720   7.132
75180SOL     OW27371   0.829   4.663   0.024
75180SOL    HW127372   0.751   4.686   0.076
75180SOL    HW227373   0.848   4.742  14.850
75181SOL     OW27374  13.948   1.119   5.464
75181SOL    HW127375  13.992   1.034   5.475
75181SOL    HW227376  14.019   1.180   5.444
75182SOL     OW27377   3.625   6.170   4.097
75182SOL    HW127378   3.610   6.264   4.108
75182SOL    HW227379   3.679   6.146   4.173
75183SOL     OW27380  11.975   0.290   6.399
75183SOL    HW127381  12.051   0.331   6.357
75183SOL    HW227382  12.008   0.207   6.433
75184SOL     OW27383   4.178   3.434   7.908
75184SOL    HW127384   4.263   3.457   7.946
75184SOL    HW227385   4.114   3.469   7.971
75185SOL     OW27386  13.220  11.101   1.263
75185SOL    HW127387  13.169  11.140   1.334
75185SOL    HW227388  13.282  11.042   1.307
75186SOL     OW27389   6.256  10.516   6.942
75186SOL    HW127390   6.191  10.447   6.938
75186SOL    HW227391   6.289  10.524   6.852
75187SOL     OW27392  11.835   4.181  10.257
75187SOL    HW127393  11.744   4.188  10.230
75187SOL    HW227394  11.844   4.242  10.330
75188SOL     OW27395  10.616   7.375   3.330
75188SOL    HW127396  10.538   7.431   3.339
75188SOL    HW227397  10.643   7.359   3.421
75189SOL     OW27398   5.531   8.029  13.673
75189SOL    HW127399   5.554   7.937  13.687
75189SOL    HW227400   5.440   8.035  13.702
75190SOL     OW27401   3.289  11.969   2.976
75190SOL    HW127402   3.304  11.882   3.013
75190SOL    HW227403   3.227  11.954   2.905
75191SOL     OW27404   6.576   9.191  12.238
75191SOL    HW127405   6.636   9.226  12.173
75191SOL    HW227406   6.614   9.106  12.263
75192SOL     OW27407   4.915   8.780   9.432
75192SOL    HW127408   4.925   8.782   9.337
75192SOL    HW227409   4.828   8.814   9.449
75193SOL     OW27410  12.186   8.584   1.118
75193SOL    HW127411  12.174   8.620   1.205
75193SOL    HW227412  12.099   8.556   1.090
75194SOL     OW27413   4.254  11.348   0.225
75194SOL    HW127414   4.317  11.407   0.183
75194SOL    HW227415   4.187  11.333   0.158
75195SOL     OW27416   6.046  12.237   9.295
75195SOL    HW127417   6.054  12.155   9.245
75195SOL    HW227418   6.011  12.210   9.380
75196SOL     OW27419   1.561   7.770   4.823
75196SOL    HW127420   1.639   7.827   4.821
75196SOL    HW227421   1.591   7.688   4.785
75197SOL     OW27422  13.284   5.464  12.993
75197SOL    HW127423  13.350   5.529  12.970
75197SOL    HW227424  13.259   5.485  13.083
75198SOL     OW27425   2.222  11.609  10.107
75198SOL    HW127426   2.305  11.622  10.153
75198SOL    HW227427   2.182  11.696  10.104
75199SOL     OW27428   2.982   8.945   8.789
75199SOL    HW127429   3.008   8.891   8.714
75199SOL    HW227430   2.904   8.902   8.824
75200SOL     OW27431   6.087  13.353  10.063
75200SOL    HW127432   6.175  13.381  10.088
75200SOL    HW227433   6.092  13.257  10.062
75201SOL     OW27434   3.939   0.903   3.112
75201SOL    HW127435   3.996   0.884   3.038
75201SOL    HW227436   3.885   0.976   3.084
75202SOL     OW27437   0.733  14.842   7.433
75202SOL    HW127438   0.668   0.031   7.460
75202SOL    HW227439   0.717  14.828   7.340
75203SOL     OW27440  13.068   7.752   4.813
75203SOL    HW127441  13.034   7.751   4.723
75203SOL    HW227442  13.105   7.664   4.824
75204SOL     OW27443   3.547  12.270   5.679
75204SOL    HW127444   3.595  12.188   5.670
75204SOL    HW227445   3.607  12.337   5.645
75205SOL     OW27446  13.615   9.293   7.740
75205SOL    HW127447  13.560   9.366   7.768
75205SOL    HW227448  13.640   9.249   7.821
75206SOL     OW27449  11.395  13.309   8.321
75206SOL    HW127450  11.325  13.256   8.284
75206SOL    HW227451  11.398  13.284   8.414
75207SOL     OW27452   5.151   3.266  13.654
75207SOL    HW127453   5.089   3.267  13.581
75207SOL    HW227454   5.212   3.195  13.633
75208SOL     OW27455   7.637   3.563   8.179
75208SOL    HW127456   7.677   3.631   8.125
75208SOL    HW227457   7.675   3.481   8.146
75209SOL     OW27458   8.363  14.356  10.217
75209SOL    HW127459   8.446  14.317  10.244
75209SOL    HW227460   8.383  14.448  10.202
75210SOL     OW27461  12.427  13.487  13.483
75210SOL    HW127462  12.415  13.582  13.480
75210SOL    HW227463  12.439  13.467  13.576
75211SOL     OW27464   6.684   4.233   7.061
75211SOL    HW127465   6.771   4.193   7.063
75211SOL    HW227466   6.626   4.166   7.096
75212SOL     OW27467   5.974   1.318   0.541
75212SOL    HW127468   5.974   1.235   0.493
75212SOL    HW227469   6.028   1.302   0.618
75213SOL     OW27470   5.894   1.891  14.180
75213SOL    HW127471   5.864   1.872  14.091
75213SOL    HW227472   5.820   1.935  14.221
75214SOL     OW27473   0.841   3.183  13.980
75214SOL    HW127474   0.804   3.267  14.005
75214SOL    HW227475   0.932   3.187  14.009
75215SOL     OW27476   3.519   4.895   7.000
75215SOL    HW127477   3.516   4.822   7.062
75215SOL    HW227478   3.523   4.852   6.914
75216SOL     OW27479   1.977  11.176   9.649
75216SOL    HW127480   1.977  11.099   9.592
75216SOL    HW227481   2.061  11.219   9.631
75217SOL     OW27482  13.475   2.898   4.282
75217SOL    HW127483  13.452   2.879   4.191
75217SOL    HW227484  13.531   2.825   4.308
75218SOL     OW27485   7.337  12.247   2.717
75218SOL    HW127486   7.357  12.293   2.635
75218SOL    HW227487   7.253  12.283   2.744
75219SOL     OW27488   7.052  12.184  12.887
75219SOL    HW127489   7.112  12.208  12.816
75219SOL    HW227490   7.091  12.221  12.966
75220SOL     OW27491  10.115  11.355   7.496
75220SOL    HW127492  10.056  11.304   7.552
75220SOL    HW227493  10.129  11.436   7.545
75221SOL     OW27494  12.583   9.505   4.106
75221SOL    HW127495  12.540   9.551   4.178
75221SOL    HW227496  12.560   9.557   4.028
75222SOL     OW27497  12.086  10.672   2.424
75222SOL    HW127498  12.027  10.598   2.440
75222SOL    HW227499  12.174  10.635   2.433
75223SOL     OW27500  10.187   3.830  13.549
75223SOL    HW127501  10.260   3.769  13.542
75223SOL    HW227502  10.128   3.808  13.477
75224SOL     OW27503  13.106   2.008  13.715
75224SOL    HW127504  13.113   2.061  13.635
75224SOL    HW227505  13.016   2.020  13.744
75225SOL     OW27506  12.844  13.663  13.964
75225SOL    HW127507  12.776  13.705  13.912
75225SOL    HW227508  12.843  13.572  13.935
75226SOL     OW27509   8.264   5.631  11.924
75226SOL    HW127510   8.201   5.582  11.871
75226SOL    HW227511   8.312   5.684  11.860
75227SOL     OW27512  13.027  11.679   0.595
75227SOL    HW127513  12.949  11.628   0.575
75227SOL    HW227514  12.996  11.752   0.648
75228SOL     OW27515   0.254   6.066   6.642
75228SOL    HW127516   0.329   6.085   6.698
75228SOL    HW227517   0.191   6.022   6.700
75229SOL     OW27518   2.887   2.991   2.836
75229SOL    HW127519   2.856   2.948   2.916
75229SOL    HW227520   2.809   3.029   2.797
75230SOL     OW27521   0.346   6.879  10.347
75230SOL    HW127522   0.253   6.895  10.366
75230SOL    HW227523   0.373   6.817  10.415
75231SOL     OW27524  11.609   3.918   4.082
75231SOL    HW127525  11.542   3.869   4.130
75231SOL    HW227526  11.648   3.976   4.147
75232SOL     OW27527   7.840   9.184   0.483
75232SOL    HW127528   7.860   9.193   0.576
75232SOL    HW227529   7.782   9.257   0.463
75233SOL     OW27530   0.364   8.255   0.630
75233SOL    HW127531   0.449   8.277   0.592
75233SOL    HW227532   0.303   8.263   0.557
75234SOL     OW27533  11.016   6.495   2.475
75234SOL    HW127534  10.978   6.437   2.409
75234SOL    HW227535  11.024   6.439   2.553
75235SOL     OW27536   4.853  11.317  11.207
75235SOL    HW127537   4.894  11.359  11.132
75235SOL    HW227538   4.813  11.389  11.257
75236SOL     OW27539  12.697  10.185   8.333
75236SOL    HW127540  12.694  10.248   8.405
75236SOL    HW227541  12.620  10.205   8.280
75237SOL     OW27542   6.711   8.572  12.878
75237SOL    HW127543   6.741   8.481  12.885
75237SOL    HW227544   6.675   8.578  12.789
75238SOL     OW27545   8.172   5.393  13.808
75238SOL    HW127546   8.094   5.338  13.800
75238SOL    HW227547   8.137   5.481  13.825
75239SOL     OW27548   9.122   9.418  12.799
75239SOL    HW127549   9.069   9.474  12.742
75239SOL    HW227550   9.136   9.339  12.748
75240SOL     OW27551   2.445   1.017   2.070
75240SOL    HW127552   2.350   1.020   2.081
75240SOL    HW227553   2.476   1.098   2.110
75241SOL     OW27554  10.767   2.906   5.935
75241SOL    HW127555  10.833   2.869   5.994
75241SOL    HW227556  10.800   2.887   5.848
75242SOL     OW27557   1.196   1.408   0.140
75242SOL    HW127558   1.184   1.489   0.191
75242SOL    HW227559   1.259   1.358   0.191
75243SOL     OW27560   3.122   5.057  14.391
75243SOL    HW127561   3.086   4.974  14.421
75243SOL    HW227562   3.217   5.045  14.398
75244SOL     OW27563   6.864   9.936   6.492
75244SOL    HW127564   6.927   9.865   6.504
75244SOL    HW227565   6.783   9.893   6.465
75245SOL     OW27566  11.904  10.959   9.862
75245SOL    HW127567  11.827  11.011   9.884
75245SOL    HW227568  11.964  10.971   9.936
75246SOL     OW27569   8.681   1.055   2.655
75246SOL    HW127570   8.716   1.136   2.619
75246SOL    HW227571   8.602   1.038   2.604
75247SOL     OW27572   7.952   2.350  10.248
75247SOL    HW127573   8.019   2.375  10.311
75247SOL    HW227574   7.931   2.259  10.271
75248SOL     OW27575  13.375   4.440  12.696
75248SOL    HW127576  13.310   4.375  12.723
75248SOL    HW227577  13.357   4.453  12.602
75249SOL     OW27578  12.239  13.121  12.070
75249SOL    HW127579  12.281  13.200  12.104
75249SOL    HW227580  12.204  13.078  12.148
75250SOL     OW27581  14.526   4.872  10.812
75250SOL    HW127582  14.609   4.892  10.768
75250SOL    HW227583  14.543   4.887  10.905
75251SOL     OW27584   3.882   4.691   8.618
75251SOL    HW127585   3.832   4.710   8.539
75251SOL    HW227586   3.965   4.737   8.605
75252SOL     OW27587   3.555   6.684   2.566
75252SOL    HW127588   3.582   6.673   2.657
75252SOL    HW227589   3.468   6.724   2.571
75253SOL     OW27590   1.928  13.079   1.955
75253SOL    HW127591   2.019  13.081   1.983
75253SOL    HW227592   1.880  13.041   2.028
75254SOL     OW27593   6.260  11.295  12.984
75254SOL    HW127594   6.346  11.326  13.013
75254SOL    HW227595   6.227  11.244  13.057
75255SOL     OW27596   5.603   7.442   6.515
75255SOL    HW127597   5.589   7.529   6.553
75255SOL    HW227598   5.670   7.456   6.447
75256SOL     OW27599  13.487   9.183   1.446
75256SOL    HW127600  13.417   9.246   1.433
75256SOL    HW227601  13.443   9.099   1.459
75257SOL     OW27602   8.058  14.395   6.935
75257SOL    HW127603   7.984  14.335   6.929
75257SOL    HW227604   8.118  14.352   6.996
75258SOL     OW27605   7.241  12.255   8.833
75258SOL    HW127606   7.169  12.192   8.829
75258SOL    HW227607   7.273  12.262   8.743
75259SOL     OW27608  13.853   7.322   0.702
75259SOL    HW127609  13.828   7.395   0.645
75259SOL    HW227610  13.835   7.354   0.790
75260SOL     OW27611  13.534   8.375   5.641
75260SOL    HW127612  13.608   8.347   5.587
75260SOL    HW227613  13.500   8.293   5.678
75261SOL     OW27614  11.307   1.002   6.429
75261SOL    HW127615  11.314   1.097   6.436
75261SOL    HW227616  11.387   0.968   6.469
75262SOL     OW27617   8.340   3.628   1.985
75262SOL    HW127618   8.282   3.671   1.923
75262SOL    HW227619   8.339   3.536   1.959
75263SOL     OW27620   7.736   3.012  12.762
75263SOL    HW127621   7.812   3.064  12.786
75263SOL    HW227622   7.718   2.958  12.839
75264SOL     OW27623   2.746   2.421   1.704
75264SOL    HW127624   2.738   2.329   1.678
75264SOL    HW227625   2.660   2.459   1.686
75265SOL     OW27626   4.801   1.599   2.597
75265SOL    HW127627   4.777   1.660   2.527
75265SOL    HW227628   4.777   1.513   2.561
75266SOL     OW27629   2.159   5.444   6.971
75266SOL    HW127630   2.252   5.449   6.995
75266SOL    HW227631   2.112   5.460   7.053
75267SOL     OW27632   0.202   3.634  14.559
75267SOL    HW127633   0.288   3.621  14.519
75267SOL    HW227634   0.154   3.687  14.495
75268SOL     OW27635  12.803   4.667   4.736
75268SOL    HW127636  12.879   4.609   4.729
75268SOL    HW227637  12.733   4.620   4.692
75269SOL     OW27638   9.409  12.247   6.936
75269SOL    HW127639   9.353  12.285   7.004
75269SOL    HW227640   9.351  12.235   6.861
75270SOL     OW27641  13.498   1.321   2.104
75270SOL    HW127642  13.537   1.405   2.128
75270SOL    HW227643  13.424   1.344   2.047
75271SOL     OW27644   6.914   2.515   2.124
75271SOL    HW127645   6.851   2.462   2.172
75271SOL    HW227646   6.877   2.604   2.125
75272SOL     OW27647  14.179   4.127   5.113
75272SOL    HW127648  14.129   4.206   5.136
75272SOL    HW227649  14.179   4.126   5.017
75273SOL     OW27650   3.596   2.848   1.718
75273SOL    HW127651   3.628   2.794   1.790
75273SOL    HW227652   3.600   2.938   1.752
75274SOL     OW27653   9.384   4.836  12.945
75274SOL    HW127654   9.384   4.919  12.897
75274SOL    HW227655   9.344   4.857  13.029
75275SOL     OW27656  10.851   8.168   2.381
75275SOL    HW127657  10.764   8.130   2.367
75275SOL    HW227658  10.882   8.127   2.462
75276SOL     OW27659   8.649   9.035   4.690
75276SOL    HW127660   8.579   9.082   4.734
75276SOL    HW227661   8.618   9.023   4.600
75277SOL     OW27662   9.210  14.379   0.215
75277SOL    HW127663   9.220  14.339   0.129
75277SOL    HW227664   9.165  14.461   0.199
75278SOL     OW27665   5.844   6.928  10.439
75278SOL    HW127666   5.758   6.966  10.421
75278SOL    HW227667   5.894   7.000  10.479
75279SOL     OW27668   0.517   8.494   5.974
75279SOL    HW127669   0.545   8.407   5.946
75279SOL    HW227670   0.487   8.536   5.893
75280SOL     OW27671   1.730  12.387  12.223
75280SOL    HW127672   1.773  12.306  12.194
75280SOL    HW227673   1.797  12.455  12.212
75281SOL     OW27674  11.094  13.951  13.461
75281SOL    HW127675  11.096  14.046  13.463
75281SOL    HW227676  11.131  13.924  13.545
75282SOL     OW27677  14.579   5.671   7.557
75282SOL    HW127678  14.534   5.737   7.504
75282SOL    HW227679  14.649   5.719   7.601
75283SOL     OW27680   8.997   0.269  11.866
75283SOL    HW127681   9.064   0.206  11.894
75283SOL    HW227682   9.042   0.327  11.804
75284SOL     OW27683  14.753   3.665   4.103
75284SOL    HW127684  14.719   3.594   4.157
75284SOL    HW227685  14.810   3.621   4.040
75285SOL     OW27686  14.051  10.615   4.911
75285SOL    HW127687  13.991  10.688   4.928
75285SOL    HW227688  14.116  10.650   4.851
75286SOL     OW27689   5.059  14.158   5.660
75286SOL    HW127690   5.154  14.147   5.660
75286SOL    HW227691   5.025  14.068   5.657
75287SOL     OW27692   8.493   0.975   3.782
75287SOL    HW127693   8.529   1.044   3.837
75287SOL    HW227694   8.422   1.017   3.734
75288SOL     OW27695   7.014   3.156   0.027
75288SOL    HW127696   6.974   3.120  14.824
75288SOL    HW227697   7.107   3.133   0.020
75289SOL     OW27698   4.552   6.083   0.878
75289SOL    HW127699   4.534   6.157   0.820
75289SOL    HW227700   4.644   6.094   0.902
75290SOL     OW27701   0.420   0.193  12.067
75290SOL    HW127702   0.357   0.262  12.086
75290SOL    HW227703   0.384   0.148  11.991
75291SOL     OW27704   8.319   7.139   9.560
75291SOL    HW127705   8.334   7.229   9.529
75291SOL    HW227706   8.224   7.131   9.564
75292SOL     OW27707   4.505   6.907   9.406
75292SOL    HW127708   4.428   6.961   9.387
75292SOL    HW227709   4.505   6.841   9.337
75293SOL     OW27710  14.665   0.533   8.216
75293SOL    HW127711  14.700   0.495   8.297
75293SOL    HW227712  14.570   0.531   8.228
75294SOL     OW27713   0.539  13.988   7.856
75294SOL    HW127714   0.605  14.056   7.840
75294SOL    HW227715   0.564  13.949   7.939
75295SOL     OW27716  14.445   7.809   4.218
75295SOL    HW127717  14.505   7.864   4.167
75295SOL    HW227718  14.420   7.739   4.158
75296SOL     OW27719   0.012   9.338  12.911
75296SOL    HW127720   0.092   9.344  12.859
75296SOL    HW227721  14.818   9.322  12.846
75297SOL     OW27722  12.956  11.683   9.885
75297SOL    HW127723  13.034  11.729   9.917
75297SOL    HW227724  12.970  11.592   9.910
75298SOL     OW27725   2.199   5.013   0.971
75298SOL    HW127726   2.268   5.016   1.037
75298SOL    HW227727   2.195   5.102   0.935
75299SOL     OW27728  13.118   1.019  13.840
75299SOL    HW127729  13.028   1.018  13.872
75299SOL    HW227730  13.112   0.986  13.751
75300SOL     OW27731  11.616   7.578  10.345
75300SOL    HW127732  11.665   7.532  10.413
75300SOL    HW227733  11.683   7.607  10.282
75301SOL     OW27734   7.110   0.162   0.858
75301SOL    HW127735   7.116   0.086   0.916
75301SOL    HW227736   7.130   0.128   0.771
75302SOL     OW27737   3.409   8.029   6.500
75302SOL    HW127738   3.427   8.087   6.425
75302SOL    HW227739   3.398   7.943   6.461
75303SOL     OW27740   7.837   6.446   3.877
75303SOL    HW127741   7.888   6.374   3.838
75303SOL    HW227742   7.748   6.432   3.846
75304SOL     OW27743   7.637   7.135   6.497
75304SOL    HW127744   7.555   7.104   6.537
75304SOL    HW227745   7.609   7.176   6.415
75305SOL     OW27746   9.653   9.606   1.150
75305SOL    HW127747   9.720   9.538   1.141
75305SOL    HW227748   9.670   9.667   1.078
75306SOL     OW27749   1.623  14.285   3.645
75306SOL    HW127750   1.639  14.377   3.622
75306SOL    HW227751   1.531  14.282   3.669
75307SOL     OW27752   3.526   7.490  10.505
75307SOL    HW127753   3.596   7.507  10.442
75307SOL    HW227754   3.571   7.470  10.587
75308SOL     OW27755  14.005   3.100   8.266
75308SOL    HW127756  14.071   3.070   8.204
75308SOL    HW227757  13.963   3.020   8.296
75309SOL     OW27758   7.052   4.757   7.751
75309SOL    HW127759   7.092   4.779   7.667
75309SOL    HW227760   6.959   4.745   7.732
75310SOL     OW27761  12.359   4.701  13.780
75310SOL    HW127762  12.282   4.726  13.727
75310SOL    HW227763  12.423   4.670  13.715
75311SOL     OW27764   3.612   9.250  13.254
75311SOL    HW127765   3.594   9.262  13.348
75311SOL    HW227766   3.604   9.156  13.240
75312SOL     OW27767   8.356   4.542   1.454
75312SOL    HW127768   8.265   4.565   1.436
75312SOL    HW227769   8.388   4.504   1.372
75313SOL     OW27770   3.065   2.691   3.934
75313SOL    HW127771   3.045   2.612   3.985
75313SOL    HW227772   3.142   2.668   3.883
75314SOL     OW27773   4.613  10.914   5.999
75314SOL    HW127774   4.552  10.872   5.938
75314SOL    HW227775   4.558  10.941   6.072
75315SOL     OW27776   8.113   9.656  12.259
75315SOL    HW127777   8.032   9.697  12.289
75315SOL    HW227778   8.097   9.562  12.268
75316SOL     OW27779   5.967   2.035  13.672
75316SOL    HW127780   5.941   1.944  13.692
75316SOL    HW227781   5.932   2.051  13.585
75317SOL     OW27782   2.624   7.330   5.580
75317SOL    HW127783   2.537   7.304   5.550
75317SOL    HW227784   2.661   7.250   5.617
75318SOL     OW27785   5.818   8.629  12.150
75318SOL    HW127786   5.889   8.680  12.189
75318SOL    HW227787   5.862   8.570  12.089
75319SOL     OW27788   1.431  13.443  11.073
75319SOL    HW127789   1.466  13.388  11.143
75319SOL    HW227790   1.407  13.382  11.004
75320SOL     OW27791   3.479   9.138   5.594
75320SOL    HW127792   3.413   9.194   5.635
75320SOL    HW227793   3.480   9.059   5.648
75321SOL     OW27794   6.600   4.665   4.966
75321SOL    HW127795   6.626   4.642   5.055
75321SOL    HW227796   6.621   4.758   4.958
75322SOL     OW27797  11.595   9.457   1.856
75322SOL    HW127798  11.690   9.461   1.845
75322SOL    HW227799  11.581   9.387   1.920
75323SOL     OW27800   5.406   0.806   1.996
75323SOL    HW127801   5.387   0.839   2.084
75323SOL    HW227802   5.405   0.711   2.005
75324SOL     OW27803  12.102   8.959  14.354
75324SOL    HW127804  12.094   8.960  14.450
75324SOL    HW227805  12.165   8.889  14.336
75325SOL     OW27806  12.247  13.176   2.104
75325SOL    HW127807  12.225  13.267   2.126
75325SOL    HW227808  12.335  13.182   2.065
75326SOL     OW27809   0.463   2.575   3.978
75326SOL    HW127810   0.509   2.530   4.050
75326SOL    HW227811   0.451   2.508   3.912
75327SOL     OW27812   5.880   7.696   4.298
75327SOL    HW127813   5.921   7.732   4.219
75327SOL    HW227814   5.892   7.601   4.289
75328SOL     OW27815   8.135   8.045   3.185
75328SOL    HW127816   8.081   8.122   3.199
75328SOL    HW227817   8.218   8.079   3.152
75329SOL     OW27818   0.796   5.257   1.060
75329SOL    HW127819   0.890   5.253   1.046
75329SOL    HW227820   0.770   5.340   1.019
75330SOL     OW27821  12.165  14.463   7.274
75330SOL    HW127822  12.093  14.478   7.336
75330SOL    HW227823  12.185  14.370   7.282
75331SOL     OW27824   4.512   1.994  14.432
75331SOL    HW127825   4.489   2.086  14.441
75331SOL    HW227826   4.429   1.947  14.442
75332SOL     OW27827   7.650   7.269   4.836
75332SOL    HW127828   7.637   7.363   4.827
75332SOL    HW227829   7.703   7.259   4.915
75333SOL     OW27830   9.841   6.556   7.748
75333SOL    HW127831   9.833   6.647   7.719
75333SOL    HW227832   9.758   6.516   7.723
75334SOL     OW27833  13.620  12.131   2.387
75334SOL    HW127834  13.680  12.074   2.435
75334SOL    HW227835  13.607  12.088   2.303
75335SOL     OW27836   5.428   6.766  14.713
75335SOL    HW127837   5.517   6.782  14.684
75335SOL    HW227838   5.373   6.818  14.655
75336SOL     OW27839  14.406   6.677   7.103
75336SOL    HW127840  14.491   6.721   7.108
75336SOL    HW227841  14.348   6.741   7.062
75337SOL     OW27842  13.463   3.199  14.667
75337SOL    HW127843  13.394   3.138  14.692
75337SOL    HW227844  13.542   3.145  14.659
75338SOL     OW27845   9.269  13.621   3.980
75338SOL    HW127846   9.222  13.538   3.970
75338SOL    HW227847   9.341  13.601   4.039
75339SOL     OW27848   5.165   8.705  13.628
75339SOL    HW127849   5.105   8.677  13.697
75339SOL    HW227850   5.244   8.735  13.675
75340SOL     OW27851   2.488   2.959   7.035
75340SOL    HW127852   2.554   2.926   6.973
75340SOL    HW227853   2.538   2.988   7.110
75341SOL     OW27854  14.854  10.845  14.318
75341SOL    HW127855  14.874  10.837  14.412
75341SOL    HW227856   0.020  10.769  14.278
75342SOL     OW27857   7.734   9.200   4.786
75342SOL    HW127858   7.742   9.211   4.881
75342SOL    HW227859   7.643   9.173   4.773
75343SOL     OW27860  11.441   7.704   1.302
75343SOL    HW127861  11.471   7.772   1.242
75343SOL    HW227862  11.473   7.622   1.264
75344SOL     OW27863   2.529  10.342   2.090
75344SOL    HW127864   2.596  10.275   2.099
75344SOL    HW227865   2.576  10.418   2.056
75345SOL     OW27866   7.685   1.340   9.248
75345SOL    HW127867   7.688   1.333   9.344
75345SOL    HW227868   7.605   1.294   9.223
75346SOL     OW27869   5.427  10.738   8.120
75346SOL    HW127870   5.356  10.797   8.095
75346SOL    HW227871   5.504  10.774   8.078
75347SOL     OW27872   9.156   6.165   1.770
75347SOL    HW127873   9.143   6.084   1.819
75347SOL    HW227874   9.135   6.142   1.680
75348SOL     OW27875   2.906   3.498   0.459
75348SOL    HW127876   2.826   3.512   0.509
75348SOL    HW227877   2.963   3.448   0.517
75349SOL     OW27878   0.576  11.716   2.766
75349SOL    HW127879   0.536  11.653   2.826
75349SOL    HW227880   0.584  11.668   2.683
75350SOL     OW27881   4.594  11.168   1.523
75350SOL    HW127882   4.672  11.209   1.488
75350SOL    HW227883   4.552  11.127   1.448
75351SOL     OW27884  11.451  13.504  12.165
75351SOL    HW127885  11.522  13.517  12.227
75351SOL    HW227886  11.495  13.496  12.080
75352SOL     OW27887   2.273   7.070   9.447
75352SOL    HW127888   2.260   6.975   9.438
75352SOL    HW227889   2.366   7.084   9.428
75353SOL     OW27890   0.672   1.004   2.621
75353SOL    HW127891   0.730   0.952   2.677
75353SOL    HW227892   0.584   0.971   2.641
75354SOL     OW27893   9.908   2.312   1.192
75354SOL    HW127894   9.945   2.226   1.213
75354SOL    HW227895   9.961   2.374   1.242
75355SOL     OW27896   8.083   2.001   8.975
75355SOL    HW127897   8.135   1.961   9.045
75355SOL    HW227898   8.147   2.023   8.907
75356SOL     OW27899  14.259   8.695   8.287
75356SOL    HW127900  14.212   8.659   8.212
75356SOL    HW227901  14.348   8.661   8.278
75357SOL     OW27902   4.131   2.634   9.242
75357SOL    HW127903   4.054   2.592   9.281
75357SOL    HW227904   4.153   2.578   9.167
75358SOL     OW27905   8.248   6.317  14.034
75358SOL    HW127906   8.293   6.401  14.027
75358SOL    HW227907   8.183   6.330  14.104
75359SOL     OW27908   8.586  12.797   2.664
75359SOL    HW127909   8.588  12.708   2.629
75359SOL    HW227910   8.503  12.834   2.632
75360SOL     OW27911   6.378  12.742   2.577
75360SOL    HW127912   6.319  12.666   2.573
75360SOL    HW227913   6.396  12.763   2.485
75361SOL     OW27914  13.731   2.080  14.220
75361SOL    HW127915  13.673   2.124  14.283
75361SOL    HW227916  13.771   2.152  14.171
75362SOL     OW27917  14.461   0.959   9.912
75362SOL    HW127918  14.480   0.866   9.925
75362SOL    HW227919  14.534   1.005   9.952
75363SOL     OW27920   2.672   2.366  13.100
75363SOL    HW127921   2.630   2.453  13.096
75363SOL    HW227922   2.717   2.365  13.185
75364SOL     OW27923   5.903  11.659  14.448
75364SOL    HW127924   5.915  11.694  14.360
75364SOL    HW227925   5.841  11.719  14.490
75365SOL     OW27926   7.910   7.121   4.227
75365SOL    HW127927   7.933   7.156   4.141
75365SOL    HW227928   7.986   7.141   4.282
75366SOL     OW27929   4.524   3.464   6.027
75366SOL    HW127930   4.503   3.489   6.117
75366SOL    HW227931   4.449   3.495   5.975
75367SOL     OW27932  12.319   9.361   1.227
75367SOL    HW127933  12.312   9.318   1.142
75367SOL    HW227934  12.267   9.441   1.217
75368SOL     OW27935  10.252   3.041   3.586
75368SOL    HW127936  10.246   3.092   3.505
75368SOL    HW227937  10.162   3.011   3.602
75369SOL     OW27938   4.954   3.912   9.145
75369SOL    HW127939   4.975   3.902   9.238
75369SOL    HW227940   4.866   3.950   9.144
75370SOL     OW27941   2.247  14.805  12.328
75370SOL    HW127942   2.304  14.813  12.251
75370SOL    HW227943   2.197   0.011  12.329
75371SOL     OW27944   0.100   6.996   3.150
75371SOL    HW127945   0.144   6.911   3.146
75371SOL    HW227946   0.016   6.977   3.191
75372SOL     OW27947   6.351   7.737   3.113
75372SOL    HW127948   6.392   7.820   3.139
75372SOL    HW227949   6.373   7.676   3.184
75373SOL     OW27950  10.140   0.395   2.687
75373SOL    HW127951  10.208   0.382   2.753
75373SOL    HW227952  10.173   0.349   2.610
75374SOL     OW27953  11.114   4.025  11.784
75374SOL    HW127954  11.074   4.060  11.864
75374SOL    HW227955  11.066   4.067  11.713
75375SOL     OW27956   5.814   9.818   4.701
75375SOL    HW127957   5.770   9.845   4.781
75375SOL    HW227958   5.774   9.733   4.679
75376SOL     OW27959   0.576   3.322   1.454
75376SOL    HW127960   0.639   3.383   1.492
75376SOL    HW227961   0.575   3.248   1.516
75377SOL     OW27962  12.354  12.598  11.794
75377SOL    HW127963  12.435  12.641  11.766
75377SOL    HW227964  12.381  12.510  11.821
75378SOL     OW27965  13.112  14.245  12.442
75378SOL    HW127966  13.129  14.312  12.508
75378SOL    HW227967  13.137  14.286  12.359
75379SOL     OW27968  14.026   0.833   5.510
75379SOL    HW127969  13.997   0.756   5.461
75379SOL    HW227970  14.117   0.846   5.482
75380SOL     OW27971   3.840  11.519  10.735
75380SOL    HW127972   3.852  11.427  10.713
75380SOL    HW227973   3.872  11.566  10.658
75381SOL     OW27974  12.226   2.822  13.903
75381SOL    HW127975  12.240   2.787  13.815
75381SOL    HW227976  12.196   2.746  13.954
75382SOL     OW27977   7.259   3.009   0.321
75382SOL    HW127978   7.287   2.948   0.389
75382SOL    HW227979   7.206   3.074   0.367
75383SOL     OW27980   4.157  11.616   8.795
75383SOL    HW127981   4.247  11.643   8.815
75383SOL    HW227982   4.162  11.579   8.707
75384SOL     OW27983   2.944  11.511   7.672
75384SOL    HW127984   3.002  11.581   7.644
75384SOL    HW227985   2.863  11.525   7.622
75385SOL     OW27986  12.641   5.092   7.795
75385SOL    HW127987  12.576   5.102   7.725
75385SOL    HW227988  12.717   5.053   7.751
75386SOL     OW27989   6.397   2.017   0.671
75386SOL    HW127990   6.311   1.985   0.643
75386SOL    HW227991   6.449   2.019   0.591
75387SOL     OW27992   9.376   8.219   4.867
75387SOL    HW127993   9.435   8.157   4.909
75387SOL    HW227994   9.324   8.255   4.939
75388SOL     OW27995  13.554   1.063   1.942
75388SOL    HW127996  13.642   1.093   1.922
75388SOL    HW227997  13.521   1.126   2.006
75389SOL     OW27998   9.526   5.732   4.996
75389SOL    HW127999   9.559   5.809   4.949
75389SOL    HW228000   9.447   5.707   4.948
75390SOL     OW28001   4.214   6.867   0.388
75390SOL    HW128002   4.120   6.881   0.385
75390SOL    HW228003   4.240   6.892   0.477
75391SOL     OW28004   3.562   0.054  13.980
75391SOL    HW128005   3.572   0.146  14.006
75391SOL    HW228006   3.651   0.025  13.960
75392SOL     OW28007   4.495  13.271  13.264
75392SOL    HW128008   4.498  13.178  13.244
75392SOL    HW228009   4.585  13.295  13.282
75393SOL     OW28010   0.404   3.097   8.412
75393SOL    HW128011   0.489   3.112   8.453
75393SOL    HW228012   0.371   3.018   8.455
75394SOL     OW28013   8.088   5.697  10.458
75394SOL    HW128014   8.074   5.608  10.425
75394SOL    HW228015   8.001   5.737  10.457
75395SOL     OW28016   1.136   7.397   2.971
75395SOL    HW128017   1.125   7.467   3.036
75395SOL    HW228018   1.182   7.327   3.017
75396SOL     OW28019  11.243   7.827   7.811
75396SOL    HW128020  11.217   7.867   7.893
75396SOL    HW228021  11.236   7.897   7.746
75397SOL     OW28022   7.789   9.774   4.816
75397SOL    HW128023   7.767   9.681   4.822
75397SOL    HW228024   7.772   9.809   4.903
75398SOL     OW28025  10.233   4.300  14.741
75398SOL    HW128026  10.156   4.259  14.703
75398SOL    HW228027  10.199   4.363  14.804
75399SOL     OW28028  11.391   6.554   8.111
75399SOL    HW128029  11.418   6.522   8.197
75399SOL    HW228030  11.295   6.551   8.113
75400SOL     OW28031  10.319  13.544   2.646
75400SOL    HW128032  10.291  13.511   2.560
75400SOL    HW228033  10.286  13.634   2.650
75401SOL     OW28034   7.858  12.364  12.180
75401SOL    HW128035   7.863  12.413  12.098
75401SOL    HW228036   7.817  12.281  12.156
75402SOL     OW28037   0.486   8.554   1.728
75402SOL    HW128038   0.470   8.634   1.677
75402SOL    HW228039   0.531   8.496   1.667
75403SOL     OW28040   0.001   4.673   3.950
75403SOL    HW128041  14.809   4.637   4.007
75403SOL    HW228042  14.830   4.705   3.873
75404SOL     OW28043   9.222  12.910  12.115
75404SOL    HW128044   9.209  12.828  12.164
75404SOL    HW228045   9.179  12.895  12.031
75405SOL     OW28046   5.760  10.133  11.006
75405SOL    HW128047   5.844  10.141  10.962
75405SOL    HW228048   5.775  10.071  11.077
75406SOL     OW28049  13.362  13.193  11.966
75406SOL    HW128050  13.435  13.253  11.979
75406SOL    HW228051  13.402  13.113  11.931
75407SOL     OW28052   5.449   6.464   9.692
75407SOL    HW128053   5.486   6.461   9.781
75407SOL    HW228054   5.450   6.558   9.671
75408SOL     OW28055  12.548   3.841  14.084
75408SOL    HW128056  12.484   3.902  14.121
75408SOL    HW228057  12.555   3.771  14.150
75409SOL     OW28058  10.383   0.438   0.084
75409SOL    HW128059  10.430   0.388   0.017
75409SOL    HW228060  10.291   0.436   0.055
75410SOL     OW28061   3.911   8.442   4.818
75410SOL    HW128062   3.933   8.532   4.841
75410SOL    HW228063   3.817   8.435   4.834
75411SOL     OW28064   0.641  13.797  14.180
75411SOL    HW128065   0.618  13.705  14.193
75411SOL    HW228066   0.673  13.800  14.090
75412SOL     OW28067  12.237   5.747  14.399
75412SOL    HW128068  12.193   5.766  14.316
75412SOL    HW228069  12.322   5.711  14.373
75413SOL     OW28070  13.682   6.034   8.343
75413SOL    HW128071  13.599   6.060   8.383
75413SOL    HW228072  13.719   6.115   8.309
75414SOL     OW28073   6.726   0.807   4.574
75414SOL    HW128074   6.741   0.749   4.649
75414SOL    HW228075   6.783   0.882   4.590
75415SOL     OW28076   2.582   0.032  11.087
75415SOL    HW128077   2.547   0.015  11.000
75415SOL    HW228078   2.635  14.831  11.108
75416SOL     OW28079   5.890   1.905   1.710
75416SOL    HW128080   5.913   1.969   1.778
75416SOL    HW228081   5.952   1.923   1.639
75417SOL     OW28082  14.570   8.370   2.484
75417SOL    HW128083  14.565   8.288   2.434
75417SOL    HW228084  14.479   8.391   2.503
75418SOL     OW28085   6.667  10.724  10.897
75418SOL    HW128086   6.693  10.815  10.887
75418SOL    HW228087   6.575  10.727  10.922
75419SOL     OW28088  14.291  12.328   8.492
75419SOL    HW128089  14.382  12.315   8.467
75419SOL    HW228090  14.275  12.421   8.478
75420SOL     OW28091   1.626   4.966   6.603
75420SOL    HW128092   1.549   4.930   6.559
75420SOL    HW228093   1.632   4.916   6.685
75421SOL     OW28094   4.274   6.218   0.584
75421SOL    HW128095   4.187   6.207   0.545
75421SOL    HW228096   4.323   6.270   0.520
75422SOL     OW28097  10.026   6.728   9.960
75422SOL    HW128098  10.032   6.707   9.867
75422SOL    HW228099  10.011   6.643  10.002
75423SOL     OW28100   7.791   1.004  10.624
75423SOL    HW128101   7.879   1.043  10.618
75423SOL    HW228102   7.732   1.080  10.624
75424SOL     OW28103   5.353   2.057   9.623
75424SOL    HW128104   5.418   1.990   9.641
75424SOL    HW228105   5.326   2.088   9.709
75425SOL     OW28106  11.968  13.236  13.383
75425SOL    HW128107  12.009  13.296  13.445
75425SOL    HW228108  11.997  13.149  13.410
75426SOL     OW28109   3.885   4.204   4.760
75426SOL    HW128110   3.958   4.146   4.781
75426SOL    HW228111   3.896   4.222   4.666
75427SOL     OW28112   0.249  11.598   5.713
75427SOL    HW128113   0.220  11.508   5.696
75427SOL    HW228114   0.189  11.630   5.780
75428SOL     OW28115   1.269   2.680   2.937
75428SOL    HW128116   1.329   2.607   2.952
75428SOL    HW228117   1.326   2.756   2.929
75429SOL     OW28118  11.932  12.715   8.545
75429SOL    HW128119  11.912  12.765   8.466
75429SOL    HW228120  11.982  12.775   8.600
75430SOL     OW28121  10.654  13.088  12.301
75430SOL    HW128122  10.674  13.147  12.374
75430SOL    HW228123  10.689  13.132  12.224
75431SOL     OW28124  13.519  10.743   5.678
75431SOL    HW128125  13.558  10.812   5.624
75431SOL    HW228126  13.495  10.675   5.616
75432SOL     OW28127   3.058   7.079   8.718
75432SOL    HW128128   3.093   7.161   8.752
75432SOL    HW228129   3.128   7.045   8.661
75433SOL     OW28130   0.970   4.811  11.789
75433SOL    HW128131   0.979   4.906  11.784
75433SOL    HW228132   1.057   4.778  11.768
75434SOL     OW28133   2.836   6.814   6.584
75434SOL    HW128134   2.760   6.865   6.614
75434SOL    HW228135   2.910   6.851   6.632
75435SOL     OW28136   0.204   3.903   1.863
75435SOL    HW128137   0.259   3.829   1.887
75435SOL    HW228138   0.246   3.978   1.906
75436SOL     OW28139   0.977   8.430  12.391
75436SOL    HW128140   0.996   8.367  12.460
75436SOL    HW228141   1.009   8.388  12.311
75437SOL     OW28142  14.290  14.636   8.914
75437SOL    HW128143  14.354  14.565   8.908
75437SOL    HW228144  14.341  14.713   8.937
75438SOL     OW28145  11.479  11.431   7.691
75438SOL    HW128146  11.508  11.518   7.661
75438SOL    HW228147  11.560  11.382   7.703
75439SOL     OW28148   1.893  11.784   0.701
75439SOL    HW128149   1.847  11.868   0.698
75439SOL    HW228150   1.963  11.798   0.766
75440SOL     OW28151  11.023  10.852   2.402
75440SOL    HW128152  11.027  10.912   2.477
75440SOL    HW228153  10.985  10.905   2.332
75441SOL     OW28154   2.441   0.504   5.508
75441SOL    HW128155   2.371   0.497   5.573
75441SOL    HW228156   2.399   0.481   5.425
75442SOL     OW28157   4.940   5.088   4.214
75442SOL    HW128158   4.974   5.132   4.136
75442SOL    HW228159   5.013   5.033   4.244
75443SOL     OW28160   4.056   0.096  14.146
75443SOL    HW128161   4.058   0.044  14.066
75443SOL    HW228162   3.963   0.110  14.164
75444SOL     OW28163  14.041   0.494   9.650
75444SOL    HW128164  14.053   0.499   9.745
75444SOL    HW228165  14.056   0.584   9.619
75445SOL     OW28166   9.076  14.549  12.177
75445SOL    HW128167   9.064  14.641  12.156
75445SOL    HW228168   8.988  14.512  12.177
75446SOL     OW28169   3.600   9.520  10.576
75446SOL    HW128170   3.555   9.565  10.647
75446SOL    HW228171   3.529   9.493  10.517
75447SOL     OW28172  13.066   7.985  10.385
75447SOL    HW128173  13.032   7.989  10.295
75447SOL    HW228174  12.988   7.976  10.440
75448SOL     OW28175   2.747   3.103   9.068
75448SOL    HW128176   2.672   3.063   9.113
75448SOL    HW228177   2.715   3.189   9.041
75449SOL     OW28178   2.690   4.004  13.198
75449SOL    HW128179   2.658   3.916  13.216
75449SOL    HW228180   2.621   4.062  13.233
75450SOL     OW28181   0.852   3.891   9.060
75450SOL    HW128182   0.865   3.857   9.149
75450SOL    HW228183   0.936   3.932   9.038
75451SOL     OW28184  13.610   5.335  13.357
75451SOL    HW128185  13.608   5.261  13.296
75451SOL    HW228186  13.689   5.383  13.335
75452SOL     OW28187   1.527   6.666   6.824
75452SOL    HW128188   1.461   6.722   6.783
75452SOL    HW228189   1.526   6.692   6.917
75453SOL     OW28190   4.353  10.104   7.651
75453SOL    HW128191   4.353  10.025   7.706
75453SOL    HW228192   4.281  10.157   7.686
75454SOL     OW28193  14.519   3.040   4.394
75454SOL    HW128194  14.577   2.971   4.427
75454SOL    HW228195  14.431   3.013   4.420
75455SOL     OW28196  14.014   8.701   7.488
75455SOL    HW128197  14.029   8.795   7.484
75455SOL    HW228198  14.077   8.669   7.553
75456SOL     OW28199   0.486   6.702  11.255
75456SOL    HW128200   0.528   6.787  11.246
75456SOL    HW228201   0.453   6.700  11.344
75457SOL     OW28202   5.443   0.997  11.695
75457SOL    HW128203   5.380   1.027  11.629
75457SOL    HW228204   5.427   0.903  11.701
75458SOL     OW28205   3.972  13.631   6.820
75458SOL    HW128206   4.004  13.661   6.735
75458SOL    HW228207   4.000  13.698   6.882
75459SOL     OW28208  12.546  12.293   9.176
75459SOL    HW128209  12.611  12.278   9.107
75459SOL    HW228210  12.592  12.268   9.257
75460SOL     OW28211   1.465   6.780  10.195
75460SOL    HW128212   1.398   6.848  10.196
75460SOL    HW228213   1.445   6.725  10.271
75461SOL     OW28214   9.522   9.893  11.813
75461SOL    HW128215   9.445   9.946  11.792
75461SOL    HW228216   9.511   9.814  11.760
75462SOL     OW28217   9.595   2.702   6.764
75462SOL    HW128218   9.570   2.783   6.720
75462SOL    HW228219   9.675   2.674   6.721
75463SOL     OW28220   2.410  10.153   1.540
75463SOL    HW128221   2.452  10.156   1.454
75463SOL    HW228222   2.343  10.221   1.538
75464SOL     OW28223   5.667  13.107  10.441
75464SOL    HW128224   5.757  13.096  10.410
75464SOL    HW228225   5.629  13.019  10.435
75465SOL     OW28226   7.971   5.492   8.228
75465SOL    HW128227   7.985   5.398   8.213
75465SOL    HW228228   7.882   5.509   8.197
75466SOL     OW28229  10.647   7.681  13.566
75466SOL    HW128230  10.642   7.587  13.584
75466SOL    HW228231  10.594   7.694  13.488
75467SOL     OW28232   4.005  13.843   3.308
75467SOL    HW128233   4.023  13.851   3.214
75467SOL    HW228234   3.917  13.880   3.318
75468SOL     OW28235   9.220  11.755   2.471
75468SOL    HW128236   9.153  11.778   2.406
75468SOL    HW228237   9.303  11.770   2.425
75469SOL     OW28238   4.833   5.368   1.182
75469SOL    HW128239   4.848   5.453   1.140
75469SOL    HW228240   4.919   5.341   1.214
75470SOL     OW28241   9.168   5.023  13.105
75470SOL    HW128242   9.092   4.965  13.102
75470SOL    HW228243   9.221   4.991  13.177
75471SOL     OW28244   1.462   6.183  10.731
75471SOL    HW128245   1.380   6.139  10.710
75471SOL    HW228246   1.441   6.276  10.725
75472SOL     OW28247  13.457  12.892  12.183
75472SOL    HW128248  13.398  12.933  12.119
75472SOL    HW228249  13.538  12.878  12.134
75473SOL     OW28250   0.854   1.483  14.759
75473SOL    HW128251   0.810   1.550  14.812
75473SOL    HW228252   0.947   1.497  14.779
75474SOL     OW28253  14.664   9.302   3.616
75474SOL    HW128254  14.591   9.363   3.607
75474SOL    HW228255  14.632   9.219   3.579
75475SOL     OW28256  13.535   3.746   5.030
75475SOL    HW128257  13.627   3.752   5.052
75475SOL    HW228258  13.532   3.760   4.935
75476SOL     OW28259  13.512   1.937   5.109
75476SOL    HW128260  13.434   1.920   5.055
75476SOL    HW228261  13.585   1.907   5.055
75477SOL     OW28262  13.805   6.986   9.273
75477SOL    HW128263  13.779   6.954   9.187
75477SOL    HW228264  13.870   6.923   9.304
75478SOL     OW28265   7.879   9.355  13.650
75478SOL    HW128266   7.788   9.381  13.632
75478SOL    HW228267   7.927   9.437  13.656
75479SOL     OW28268  13.571   8.463   4.672
75479SOL    HW128269  13.590   8.376   4.637
75479SOL    HW228270  13.585   8.456   4.766
75480SOL     OW28271   9.848   2.509   4.442
75480SOL    HW128272   9.904   2.462   4.380
75480SOL    HW228273   9.892   2.497   4.527
75481SOL     OW28274  13.227   4.381   5.453
75481SOL    HW128275  13.252   4.410   5.366
75481SOL    HW228276  13.287   4.309   5.473
75482SOL     OW28277   0.487  14.483   4.540
75482SOL    HW128278   0.413  14.542   4.523
75482SOL    HW228279   0.493  14.480   4.635
75483SOL     OW28280  11.707   3.934   0.940
75483SOL    HW128281  11.775   3.877   0.977
75483SOL    HW228282  11.746   3.967   0.859
75484SOL     OW28283  12.060   2.174   8.939
75484SOL    HW128284  12.063   2.086   8.902
75484SOL    HW228285  12.063   2.161   9.034
75485SOL     OW28286  14.782   1.513  11.881
75485SOL    HW128287  14.788   1.418  11.892
75485SOL    HW228288  14.734   1.524  11.798
75486SOL     OW28289   2.770   0.596   4.457
75486SOL    HW128290   2.755   0.690   4.454
75486SOL    HW228291   2.849   0.582   4.405
75487SOL     OW28292  13.453  13.962  13.123
75487SOL    HW128293  13.485  13.884  13.167
75487SOL    HW228294  13.527  14.023  13.125
75488SOL     OW28295   6.576  13.612   0.774
75488SOL    HW128296   6.493  13.637   0.815
75488SOL    HW228297   6.627  13.693   0.774
75489SOL     OW28298   7.887  10.521   0.963
75489SOL    HW128299   7.840  10.590   1.011
75489SOL    HW228300   7.890  10.448   1.025
75490SOL     OW28301   2.479   3.971  10.502
75490SOL    HW128302   2.559   4.020  10.521
75490SOL    HW228303   2.413   4.038  10.486
75491SOL     OW28304   7.571   2.439  13.425
75491SOL    HW128305   7.532   2.509  13.477
75491SOL    HW228306   7.565   2.469  13.335
75492SOL     OW28307  11.223   0.330   4.679
75492SOL    HW128308  11.283   0.326   4.604
75492SOL    HW228309  11.276   0.368   4.749
75493SOL     OW28310  13.362   0.527   0.280
75493SOL    HW128311  13.458   0.528   0.274
75493SOL    HW228312  13.332   0.536   0.190
75494SOL     OW28313   9.700   1.222   2.461
75494SOL    HW128314   9.788   1.244   2.428
75494SOL    HW228315   9.642   1.282   2.414
75495SOL     OW28316  14.590  11.764   1.940
75495SOL    HW128317  14.547  11.689   1.900
75495SOL    HW228318  14.659  11.726   1.995
75496SOL     OW28319   8.000   7.164  14.529
75496SOL    HW128320   8.080   7.160  14.581
75496SOL    HW228321   7.955   7.082  14.546
75497SOL     OW28322   0.231  12.786   3.623
75497SOL    HW128323   0.205  12.872   3.657
75497SOL    HW228324   0.164  12.726   3.657
75498SOL     OW28325  12.998   4.440   5.128
75498SOL    HW128326  12.935   4.512   5.135
75498SOL    HW228327  13.079   4.474   5.165
75499SOL     OW28328   9.365  12.216   5.010
75499SOL    HW128329   9.390  12.281   4.944
75499SOL    HW228330   9.383  12.132   4.968
75500SOL     OW28331   6.121   5.570  11.061
75500SOL    HW128332   6.064   5.527  10.998
75500SOL    HW228333   6.135   5.658  11.024
75501SOL     OW28334   0.488  11.429  11.147
75501SOL    HW128335   0.581  11.408  11.139
75501SOL    HW228336   0.483  11.485  11.225
75502SOL     OW28337   7.245  10.012  12.325
75502SOL    HW128338   7.198  10.026  12.408
75502SOL    HW228339   7.325  10.063  12.335
75503SOL     OW28340  10.912   1.572   8.014
75503SOL    HW128341  10.958   1.624   8.079
75503SOL    HW228342  10.830   1.546   8.058
75504SOL     OW28343   1.667  14.219  11.882
75504SOL    HW128344   1.668  14.128  11.853
75504SOL    HW228345   1.714  14.267  11.814
75505SOL     OW28346   9.413   0.860   3.560
75505SOL    HW128347   9.413   0.953   3.582
75505SOL    HW228348   9.448   0.817   3.638
75506SOL     OW28349  13.848  14.613  13.391
75506SOL    HW128350  13.836  14.649  13.478
75506SOL    HW228351  13.784  14.658  13.336
75507SOL     OW28352   7.446  13.120  13.396
75507SOL    HW128353   7.402  13.197  13.431
75507SOL    HW228354   7.539  13.145  13.391
75508SOL     OW28355  11.390   5.351  11.733
75508SOL    HW128356  11.433   5.329  11.651
75508SOL    HW228357  11.460   5.384  11.789
75509SOL     OW28358   9.181   9.394  12.087
75509SOL    HW128359   9.094   9.400  12.127
75509SOL    HW228360   9.219   9.315  12.124
75510SOL     OW28361  14.103  13.518   6.627
75510SOL    HW128362  14.138  13.440   6.669
75510SOL    HW228363  14.061  13.486   6.547
75511SOL     OW28364   5.185  12.439  14.408
75511SOL    HW128365   5.111  12.470  14.461
75511SOL    HW228366   5.216  12.518  14.364
75512SOL     OW28367   0.551   3.736  12.752
75512SOL    HW128368   0.580   3.826  12.761
75512SOL    HW228369   0.621   3.683  12.789
75513SOL     OW28370   9.791  11.904   6.370
75513SOL    HW128371   9.874  11.924   6.412
75513SOL    HW228372   9.753  11.990   6.349
75514SOL     OW28373   5.283   5.056  14.406
75514SOL    HW128374   5.266   5.134  14.352
75514SOL    HW228375   5.294   5.090  14.495
75515SOL     OW28376   6.390   0.564  10.564
75515SOL    HW128377   6.367   0.599  10.650
75515SOL    HW228378   6.444   0.488  10.583
75516SOL     OW28379  11.673   2.209   9.273
75516SOL    HW128380  11.746   2.193   9.334
75516SOL    HW228381  11.608   2.255   9.326
75517SOL     OW28382  12.617   4.429   1.504
75517SOL    HW128383  12.698   4.386   1.478
75517SOL    HW228384  12.561   4.424   1.426
75518SOL     OW28385  10.197  13.956   0.118
75518SOL    HW128386  10.161  13.885   0.064
75518SOL    HW228387  10.290  13.933   0.127
75519SOL     OW28388  12.495   5.270   4.288
75519SOL    HW128389  12.540   5.212   4.350
75519SOL    HW228390  12.487   5.218   4.208
75520SOL     OW28391  11.627  10.717   9.350
75520SOL    HW128392  11.658  10.694   9.263
75520SOL    HW228393  11.619  10.633   9.396
75521SOL     OW28394  14.153   3.572  11.137
75521SOL    HW128395  14.191   3.515  11.070
75521SOL    HW228396  14.089   3.625  11.089
75522SOL     OW28397  14.089  10.826   1.173
75522SOL    HW128398  14.109  10.769   1.248
75522SOL    HW228399  13.993  10.831   1.172
75523SOL     OW28400   9.123   9.645   9.442
75523SOL    HW128401   9.094   9.564   9.400
75523SOL    HW228402   9.082   9.643   9.529
75524SOL     OW28403   3.098   7.217   6.432
75524SOL    HW128404   3.075   7.290   6.374
75524SOL    HW228405   3.170   7.173   6.388
75525SOL     OW28406   5.466   4.936   8.584
75525SOL    HW128407   5.399   4.891   8.533
75525SOL    HW228408   5.540   4.946   8.523
75526SOL     OW28409   2.247   8.192   8.293
75526SOL    HW128410   2.160   8.228   8.311
75526SOL    HW228411   2.232   8.128   8.224
75527SOL     OW28412   8.041   1.879   1.925
75527SOL    HW128413   7.995   1.900   2.006
75527SOL    HW228414   7.984   1.816   1.880
75528SOL     OW28415   8.042   2.036  10.296
75528SOL    HW128416   8.084   2.024  10.381
75528SOL    HW228417   8.114   2.037  10.233
75529SOL     OW28418  14.714   0.975   7.399
75529SOL    HW128419  14.636   1.029   7.416
75529SOL    HW228420  14.684   0.886   7.416
75530SOL     OW28421  11.369   8.593   3.663
75530SOL    HW128422  11.397   8.510   3.623
75530SOL    HW228423  11.440   8.654   3.643
75531SOL     OW28424  13.320  13.039   2.885
75531SOL    HW128425  13.415  13.052   2.887
75531SOL    HW228426  13.291  13.080   2.804
75532SOL     OW28427   3.674   7.221   8.222
75532SOL    HW128428   3.657   7.241   8.130
75532SOL    HW228429   3.675   7.125   8.226
75533SOL     OW28430   9.665  14.551   9.593
75533SOL    HW128431   9.667  14.607   9.671
75533SOL    HW228432   9.725  14.593   9.531
75534SOL     OW28433   9.042  12.019  14.216
75534SOL    HW128434   9.004  11.968  14.144
75534SOL    HW228435   9.014  11.974  14.295
75535SOL     OW28436   4.994   7.582   0.075
75535SOL    HW128437   5.057   7.520   0.037
75535SOL    HW228438   4.909   7.544   0.056
75536SOL     OW28439   8.156  12.253   5.968
75536SOL    HW128440   8.114  12.190   6.026
75536SOL    HW228441   8.098  12.259   5.892
75537SOL     OW28442   3.493   0.335  12.711
75537SOL    HW128443   3.552   0.298  12.645
75537SOL    HW228444   3.510   0.429  12.708
75538SOL     OW28445   0.145   0.981  12.670
75538SOL    HW128446   0.088   1.027  12.732
75538SOL    HW228447   0.150   1.040  12.595
75539SOL     OW28448   7.754  13.096   6.417
75539SOL    HW128449   7.726  13.142   6.497
75539SOL    HW228450   7.849  13.107   6.416
75540SOL     OW28451  11.317   4.287   4.748
75540SOL    HW128452  11.232   4.330   4.746
75540SOL    HW228453  11.375   4.349   4.790
75541SOL     OW28454   0.702   6.143   6.670
75541SOL    HW128455   0.642   6.189   6.728
75541SOL    HW228456   0.646   6.087   6.617
75542SOL     OW28457  11.967   4.377   0.307
75542SOL    HW128458  11.885   4.424   0.287
75542SOL    HW228459  11.953   4.289   0.272
75543SOL     OW28460   2.137   8.893  13.128
75543SOL    HW128461   2.183   8.977  13.131
75543SOL    HW228462   2.050   8.912  13.162
75544SOL     OW28463  12.719  12.852   8.473
75544SOL    HW128464  12.664  12.793   8.422
75544SOL    HW228465  12.806  12.814   8.468
75545SOL     OW28466  11.799   2.986   9.823
75545SOL    HW128467  11.801   2.981   9.919
75545SOL    HW228468  11.788   3.080   9.805
75546SOL     OW28469   7.486  10.356   3.555
75546SOL    HW128470   7.418  10.380   3.618
75546SOL    HW228471   7.442  10.361   3.470
75547SOL     OW28472  14.846  13.218   8.935
75547SOL    HW128473   0.031  13.145   8.946
75547SOL    HW228474   0.026  13.296   8.938
75548SOL     OW28475   0.491  13.861   3.442
75548SOL    HW128476   0.449  13.778   3.416
75548SOL    HW228477   0.483  13.862   3.537
75549SOL     OW28478   5.440   7.760   5.095
75549SOL    HW128479   5.350   7.783   5.118
75549SOL    HW228480   5.482   7.737   5.178
75550SOL     OW28481   3.785   3.682  12.547
75550SOL    HW128482   3.810   3.738  12.473
75550SOL    HW228483   3.719   3.623  12.512
75551SOL     OW28484   9.751   0.244  13.374
75551SOL    HW128485   9.745   0.322  13.429
75551SOL    HW228486   9.796   0.180  13.428
75552SOL     OW28487  10.886   9.005   2.767
75552SOL    HW128488  10.845   9.090   2.780
75552SOL    HW228489  10.975   9.026   2.740
75553SOL     OW28490   5.570  11.721   0.594
75553SOL    HW128491   5.571  11.728   0.498
75553SOL    HW228492   5.646  11.667   0.615
75554SOL     OW28493  12.361  11.346   1.160
75554SOL    HW128494  12.413  11.344   1.080
75554SOL    HW228495  12.273  11.372   1.131
75555SOL     OW28496   5.973  14.504   3.721
75555SOL    HW128497   6.014  14.554   3.651
75555SOL    HW228498   6.043  14.450   3.757
75556SOL     OW28499   4.096  14.483  14.165
75556SOL    HW128500   4.166  14.444  14.217
75556SOL    HW228501   4.047  14.408  14.130
75557SOL     OW28502   7.657   8.125  13.099
75557SOL    HW128503   7.676   8.166  13.015
75557SOL    HW228504   7.570   8.159  13.123
75558SOL     OW28505   4.993   4.120  13.757
75558SOL    HW128506   5.084   4.142  13.780
75558SOL    HW228507   4.957   4.081  13.837
75559SOL     OW28508   4.916   4.449  11.424
75559SOL    HW128509   4.912   4.542  11.403
75559SOL    HW228510   5.000   4.438  11.469
75560SOL     OW28511   6.062   5.911   2.721
75560SOL    HW128512   6.006   5.980   2.755
75560SOL    HW228513   6.124   5.893   2.792
75561SOL     OW28514  10.945   6.716   9.351
75561SOL    HW128515  10.993   6.693   9.272
75561SOL    HW228516  10.854   6.693   9.332
75562SOL     OW28517   8.420   7.562   3.622
75562SOL    HW128518   8.353   7.496   3.607
75562SOL    HW228519   8.372   7.645   3.629
75563SOL     OW28520   4.352  10.628   5.167
75563SOL    HW128521   4.294  10.686   5.118
75563SOL    HW228522   4.431  10.622   5.112
75564SOL     OW28523   0.527  14.498   8.061
75564SOL    HW128524   0.470  14.551   8.006
75564SOL    HW228525   0.495  14.510   8.150
75565SOL     OW28526  11.413   3.968   9.212
75565SOL    HW128527  11.456   4.026   9.148
75565SOL    HW228528  11.379   4.027   9.279
75566SOL     OW28529   5.170   2.215  11.951
75566SOL    HW128530   5.184   2.174  12.036
75566SOL    HW228531   5.229   2.290  11.951
75567SOL     OW28532  11.329  13.084   7.449
75567SOL    HW128533  11.338  12.989   7.443
75567SOL    HW228534  11.248  13.098   7.499
75568SOL     OW28535   4.145   6.425   3.974
75568SOL    HW128536   4.141   6.478   4.053
75568SOL    HW228537   4.099   6.344   3.995
75569SOL     OW28538  14.470  10.328  13.360
75569SOL    HW128539  14.524  10.405  13.343
75569SOL    HW228540  14.398  10.335  13.297
75570SOL     OW28541  12.486   6.222  10.314
75570SOL    HW128542  12.509   6.280  10.241
75570SOL    HW228543  12.570   6.200  10.353
75571SOL     OW28544   7.421   8.634  11.514
75571SOL    HW128545   7.357   8.670  11.453
75571SOL    HW228546   7.446   8.550  11.476
75572SOL     OW28547   7.362   2.859   8.167
75572SOL    HW128548   7.414   2.786   8.203
75572SOL    HW228549   7.418   2.936   8.179
75573SOL     OW28550  10.613  10.192   7.697
75573SOL    HW128551  10.568  10.267   7.658
75573SOL    HW228552  10.561  10.116   7.671
75574SOL     OW28553   7.724  10.070   2.200
75574SOL    HW128554   7.731  10.003   2.131
75574SOL    HW228555   7.634  10.101   2.194
75575SOL     OW28556   8.427   5.825  11.851
75575SOL    HW128557   8.450   5.828  11.944
75575SOL    HW228558   8.503   5.783  11.809
75576SOL     OW28559  12.697  10.704   7.648
75576SOL    HW128560  12.730  10.676   7.563
75576SOL    HW228561  12.750  10.780   7.670
75577SOL     OW28562   5.130   4.686   8.430
75577SOL    HW128563   5.199   4.684   8.496
75577SOL    HW228564   5.048   4.691   8.480
75578SOL     OW28565   4.875   8.611   3.799
75578SOL    HW128566   4.908   8.698   3.776
75578SOL    HW228567   4.780   8.621   3.797
75579SOL     OW28568   2.522  13.576  14.717
75579SOL    HW128569   2.471  13.561  14.637
75579SOL    HW228570   2.608  13.539  14.697
75580SOL     OW28571   0.214  14.425  11.171
75580SOL    HW128572   0.270  14.500  11.190
75580SOL    HW228573   0.266  14.348  11.196
75581SOL     OW28574   5.840   5.944  11.419
75581SOL    HW128575   5.849   6.008  11.490
75581SOL    HW228576   5.914   5.963  11.360
75582SOL     OW28577   2.901   7.758   3.104
75582SOL    HW128578   2.862   7.832   3.152
75582SOL    HW228579   2.995   7.776   3.105
75583SOL     OW28580   8.749  11.789   9.476
75583SOL    HW128581   8.822  11.760   9.532
75583SOL    HW228582   8.781  11.777   9.387
75584SOL     OW28583  11.935   1.059   3.916
75584SOL    HW128584  12.000   1.083   3.982
75584SOL    HW228585  11.914   0.968   3.936
75585SOL     OW28586   2.514   2.481   0.930
75585SOL    HW128587   2.584   2.418   0.914
75585SOL    HW228588   2.502   2.525   0.846
75586SOL     OW28589   5.862   8.088   1.039
75586SOL    HW128590   5.952   8.061   1.018
75586SOL    HW228591   5.850   8.061   1.130
75587SOL     OW28592   0.537   0.031   9.891
75587SOL    HW128593   0.464   0.079   9.930
75587SOL    HW228594   0.553   0.077   9.808
75588SOL     OW28595   5.109   9.837   8.790
75588SOL    HW128596   5.044   9.787   8.840
75588SOL    HW228597   5.058   9.881   8.722
75589SOL     OW28598   3.009   8.331  11.840
75589SOL    HW128599   2.943   8.284  11.890
75589SOL    HW228600   3.079   8.268  11.826
75590SOL     OW28601   9.061  14.766   3.256
75590SOL    HW128602   9.112  14.797   3.181
75590SOL    HW228603   9.007  14.841   3.280
75591SOL     OW28604   7.595  14.084   8.453
75591SOL    HW128605   7.602  14.003   8.403
75591SOL    HW228606   7.532  14.065   8.523
75592SOL     OW28607  12.967   1.671   2.801
75592SOL    HW128608  12.926   1.743   2.848
75592SOL    HW228609  12.905   1.598   2.809
75593SOL     OW28610   7.256   6.354   2.520
75593SOL    HW128611   7.197   6.341   2.445
75593SOL    HW228612   7.344   6.355   2.481
75594SOL     OW28613   7.908   6.858   4.091
75594SOL    HW128614   7.940   6.852   4.001
75594SOL    HW228615   7.902   6.952   4.108
75595SOL     OW28616   8.958   2.013   0.612
75595SOL    HW128617   9.027   1.947   0.618
75595SOL    HW228618   9.002   2.096   0.631
75596SOL     OW28619   0.304   9.144  12.399
75596SOL    HW128620   0.286   9.060  12.441
75596SOL    HW228621   0.222   9.166  12.354
75597SOL     OW28622  10.313  11.926   2.277
75597SOL    HW128623  10.395  11.924   2.326
75597SOL    HW228624  10.340  11.928   2.185
75598SOL     OW28625   1.030   9.163   2.170
75598SOL    HW128626   0.981   9.111   2.235
75598SOL    HW228627   0.987   9.144   2.087
75599SOL     OW28628   0.071   0.708   2.154
75599SOL    HW128629   0.090   0.645   2.085
75599SOL    HW228630  14.859   0.740   2.135
75600SOL     OW28631  11.558   8.118   4.756
75600SOL    HW128632  11.614   8.160   4.822
75600SOL    HW228633  11.577   8.025   4.764
75601SOL     OW28634   6.225   1.347   1.713
75601SOL    HW128635   6.189   1.404   1.645
75601SOL    HW228636   6.248   1.407   1.785
75602SOL     OW28637   5.460  12.020  11.853
75602SOL    HW128638   5.436  12.019  11.760
75602SOL    HW228639   5.553  11.996  11.854
75603SOL     OW28640   4.609   5.772   7.736
75603SOL    HW128641   4.588   5.854   7.780
75603SOL    HW228642   4.559   5.705   7.782
75604SOL     OW28643  12.251   5.125   1.297
75604SOL    HW128644  12.286   5.098   1.213
75604SOL    HW228645  12.303   5.201   1.322
75605SOL     OW28646  14.255   3.374   4.678
75605SOL    HW128647  14.337   3.388   4.726
75605SOL    HW228648  14.269   3.293   4.630
75606SOL     OW28649   9.589   2.791   4.150
75606SOL    HW128650   9.683   2.777   4.165
75606SOL    HW228651   9.546   2.744   4.222
75607SOL     OW28652   8.135   3.016   1.326
75607SOL    HW128653   8.137   2.942   1.265
75607SOL    HW228654   8.118   3.092   1.270
75608SOL     OW28655   1.660  14.564   6.941
75608SOL    HW128656   1.695  14.637   6.991
75608SOL    HW228657   1.566  14.569   6.955
75609SOL     OW28658   3.782  13.787  11.440
75609SOL    HW128659   3.717  13.855  11.458
75609SOL    HW228660   3.749  13.743  11.362
75610SOL     OW28661   6.548   7.242   9.809
75610SOL    HW128662   6.614   7.260   9.876
75610SOL    HW228663   6.518   7.153   9.829
75611SOL     OW28664  12.213   7.654  12.775
75611SOL    HW128665  12.266   7.649  12.855
75611SOL    HW228666  12.202   7.562  12.748
75612SOL     OW28667  14.118   9.706  10.121
75612SOL    HW128668  14.152   9.677  10.205
75612SOL    HW228669  14.183   9.769  10.090
75613SOL     OW28670   5.777   4.704  10.948
75613SOL    HW128671   5.829   4.728  10.871
75613SOL    HW228672   5.692   4.743  10.934
75614SOL     OW28673   4.014   3.262   9.256
75614SOL    HW128674   4.059   3.182   9.284
75614SOL    HW228675   4.061   3.289   9.177
75615SOL     OW28676   6.638  10.044   1.885
75615SOL    HW128677   6.640   9.959   1.842
75615SOL    HW228678   6.584  10.099   1.828
75616SOL     OW28679  11.967  14.027  13.518
75616SOL    HW128680  12.006  14.073  13.443
75616SOL    HW228681  11.923  13.951  13.479
75617SOL     OW28682   6.148   2.256   0.763
75617SOL    HW128683   6.079   2.227   0.822
75617SOL    HW228684   6.186   2.176   0.728
75618SOL     OW28685   8.790   1.826  14.516
75618SOL    HW128686   8.776   1.832  14.421
75618SOL    HW228687   8.884   1.811  14.525
75619SOL     OW28688  11.003  11.622  12.314
75619SOL    HW128689  11.006  11.708  12.356
75619SOL    HW228690  11.085  11.580  12.341
75620SOL     OW28691   7.721   7.013   9.791
75620SOL    HW128692   7.740   7.103   9.818
75620SOL    HW228693   7.643   6.989   9.840
75621SOL     OW28694   2.350   0.288   2.207
75621SOL    HW128695   2.380   0.243   2.286
75621SOL    HW228696   2.274   0.238   2.178
75622SOL     OW28697  12.418  14.413  12.277
75622SOL    HW128698  12.512  14.398  12.290
75622SOL    HW228699  12.409  14.423  12.182
75623SOL     OW28700   6.463  14.615  12.349
75623SOL    HW128701   6.551  14.647  12.367
75623SOL    HW228702   6.470  14.571  12.264
75624SOL     OW28703   1.264  10.771   4.671
75624SOL    HW128704   1.229  10.854   4.639
75624SOL    HW228705   1.211  10.751   4.748
75625SOL     OW28706   1.523  12.344  11.759
75625SOL    HW128707   1.528  12.258  11.800
75625SOL    HW228708   1.454  12.390  11.808
75626SOL     OW28709   8.303   1.760  12.152
75626SOL    HW128710   8.363   1.747  12.078
75626SOL    HW228711   8.229   1.808  12.114
75627SOL     OW28712   4.937   4.559  10.720
75627SOL    HW128713   4.943   4.526  10.630
75627SOL    HW228714   4.922   4.653  10.709
75628SOL     OW28715  13.552   2.714  12.540
75628SOL    HW128716  13.562   2.692  12.633
75628SOL    HW228717  13.630   2.678  12.498
75629SOL     OW28718   8.699  14.793   1.685
75629SOL    HW128719   8.613  14.780   1.647
75629SOL    HW228720   8.756  14.813   1.611
75630SOL     OW28721   2.882   0.588   3.283
75630SOL    HW128722   2.931   0.510   3.306
75630SOL    HW228723   2.804   0.584   3.338
75631SOL     OW28724   2.715  10.434   8.965
75631SOL    HW128725   2.770  10.356   8.973
75631SOL    HW228726   2.687  10.452   9.055
75632SOL     OW28727   9.217  12.551   4.117
75632SOL    HW128728   9.313  12.545   4.119
75632SOL    HW228729   9.187  12.472   4.162
75633SOL     OW28730  10.908  13.614   9.829
75633SOL    HW128731  10.885  13.629   9.737
75633SOL    HW228732  10.871  13.689   9.875
75634SOL     OW28733  10.160   4.808   5.419
75634SOL    HW128734  10.166   4.812   5.514
75634SOL    HW228735  10.118   4.890   5.393
75635SOL     OW28736  12.633  12.761  12.863
75635SOL    HW128737  12.635  12.690  12.799
75635SOL    HW228738  12.661  12.720  12.945
75636SOL     OW28739   9.011   9.414  14.115
75636SOL    HW128740   9.093   9.369  14.095
75636SOL    HW228741   9.022   9.501  14.077
75637SOL     OW28742  13.469  13.487  13.283
75637SOL    HW128743  13.463  13.396  13.312
75637SOL    HW228744  13.385  13.503  13.240
75638SOL     OW28745  10.780   1.401   4.520
75638SOL    HW128746  10.722   1.446   4.458
75638SOL    HW228747  10.756   1.308   4.510
75639SOL     OW28748   7.533   3.113   0.229
75639SOL    HW128749   7.499   3.202   0.221
75639SOL    HW228750   7.462   3.063   0.269
75640SOL     OW28751   7.230   0.604   9.670
75640SOL    HW128752   7.265   0.670   9.730
75640SOL    HW228753   7.168   0.652   9.614
75641SOL     OW28754   0.439   2.098   2.985
75641SOL    HW128755   0.346   2.077   2.998
75641SOL    HW228756   0.478   2.016   2.955
75642SOL     OW28757   4.324   3.152  14.283
75642SOL    HW128758   4.406   3.120  14.246
75642SOL    HW228759   4.336   3.148  14.377
75643SOL     OW28760   3.181  12.381  14.140
75643SOL    HW128761   3.256  12.371  14.081
75643SOL    HW228762   3.209  12.445  14.205
75644SOL     OW28763   4.239   6.782   9.003
75644SOL    HW128764   4.259   6.760   8.912
75644SOL    HW228765   4.165   6.727   9.026
75645SOL     OW28766  10.384   1.713   3.205
75645SOL    HW128767  10.298   1.735   3.239
75645SOL    HW228768  10.366   1.653   3.133
75646SOL     OW28769   0.803  14.876   0.242
75646SOL    HW128770   0.854  14.822   0.303
75646SOL    HW228771   0.785   0.081   0.290
75647SOL     OW28772   6.988   3.939   8.883
75647SOL    HW128773   7.073   3.936   8.840
75647SOL    HW228774   6.976   4.031   8.907
75648SOL     OW28775  11.852  11.846   3.599
75648SOL    HW128776  11.856  11.751   3.589
75648SOL    HW228777  11.856  11.860   3.694
75649SOL     OW28778   8.871   4.506   9.767
75649SOL    HW128779   8.830   4.427   9.731
75649SOL    HW228780   8.965   4.487   9.764
75650SOL     OW28781   8.943   1.137  11.716
75650SOL    HW128782   9.005   1.117  11.786
75650SOL    HW228783   8.942   1.233  11.713
75651SOL     OW28784   4.796  10.030   6.103
75651SOL    HW128785   4.836  10.113   6.077
75651SOL    HW228786   4.863   9.986   6.155
75652SOL     OW28787  10.055   1.124  14.748
75652SOL    HW128788  10.008   1.197  14.789
75652SOL    HW228789  10.142   1.125  14.789
75653SOL     OW28790  11.445   1.940   6.517
75653SOL    HW128791  11.407   1.853   6.527
75653SOL    HW228792  11.536   1.930   6.545
75654SOL     OW28793  12.819   5.451   2.128
75654SOL    HW128794  12.774   5.438   2.212
75654SOL    HW228795  12.751   5.489   2.071
75655SOL     OW28796   6.706   5.504   1.762
75655SOL    HW128797   6.772   5.447   1.723
75655SOL    HW228798   6.671   5.555   1.689
75656SOL     OW28799  10.823   9.442  10.432
75656SOL    HW128800  10.866   9.360  10.408
75656SOL    HW228801  10.729   9.424  10.423
75657SOL     OW28802  13.921   4.748   0.715
75657SOL    HW128803  13.850   4.803   0.748
75657SOL    HW228804  13.919   4.759   0.620
75658SOL     OW28805  14.579   6.573  12.018
75658SOL    HW128806  14.618   6.623  12.089
75658SOL    HW228807  14.582   6.482  12.048
75659SOL     OW28808   5.922  12.015  10.771
75659SOL    HW128809   5.963  12.043  10.853
75659SOL    HW228810   5.991  11.969  10.724
75660SOL     OW28811   6.070  13.679  12.807
75660SOL    HW128812   6.162  13.674  12.783
75660SOL    HW228813   6.053  13.772  12.820
75661SOL     OW28814  14.355   2.226   5.334
75661SOL    HW128815  14.371   2.160   5.402
75661SOL    HW228816  14.439   2.271   5.324
75662SOL     OW28817   4.976  11.817  13.356
75662SOL    HW128818   4.890  11.836  13.320
75662SOL    HW228819   4.972  11.726  13.384
75663SOL     OW28820   9.842   7.271   7.407
75663SOL    HW128821   9.854   7.366   7.412
75663SOL    HW228822   9.891   7.237   7.482
75664SOL     OW28823  14.085  12.142   2.406
75664SOL    HW128824  13.990  12.152   2.413
75664SOL    HW228825  14.117  12.230   2.388
75665SOL     OW28826   6.430   6.741   9.531
75665SOL    HW128827   6.369   6.805   9.494
75665SOL    HW228828   6.481   6.791   9.595
75666SOL     OW28829  13.976   7.222   6.833
75666SOL    HW128830  13.966   7.301   6.885
75666SOL    HW228831  13.941   7.246   6.747
75667SOL     OW28832   1.021   8.053   0.157
75667SOL    HW128833   0.988   8.022   0.241
75667SOL    HW228834   1.062   7.976   0.117
75668SOL     OW28835  13.751   3.825  10.683
75668SOL    HW128836  13.706   3.775  10.615
75668SOL    HW228837  13.757   3.766  10.758
75669SOL     OW28838  10.781  12.939   6.861
75669SOL    HW128839  10.715  12.972   6.800
75669SOL    HW228840  10.756  12.847   6.875
75670SOL     OW28841   0.625  12.852  10.535
75670SOL    HW128842   0.676  12.931  10.519
75670SOL    HW228843   0.581  12.834  10.452
75671SOL     OW28844   1.409  11.467  12.321
75671SOL    HW128845   1.315  11.487  12.312
75671SOL    HW228846   1.451  11.552  12.331
75672SOL     OW28847   4.226   7.923   3.673
75672SOL    HW128848   4.131   7.930   3.684
75672SOL    HW228849   4.262   7.998   3.721
75673SOL     OW28850  11.255   5.329   4.442
75673SOL    HW128851  11.187   5.396   4.446
75673SOL    HW228852  11.331   5.369   4.484
75674SOL     OW28853  12.078  13.703   2.284
75674SOL    HW128854  12.124  13.636   2.333
75674SOL    HW228855  12.022  13.654   2.223
75675SOL     OW28856  11.547   1.673   6.955
75675SOL    HW128857  11.552   1.748   6.896
75675SOL    HW228858  11.466   1.687   7.005
75676SOL     OW28859   5.860   0.883   0.507
75676SOL    HW128860   5.876   0.789   0.508
75676SOL    HW228861   5.841   0.905   0.598
75677SOL     OW28862  13.956   7.737   4.479
75677SOL    HW128863  13.995   7.682   4.411
75677SOL    HW228864  13.884   7.782   4.435
75678SOL     OW28865  12.494  14.116  10.123
75678SOL    HW128866  12.409  14.097  10.161
75678SOL    HW228867  12.477  14.186  10.060
75679SOL     OW28868   9.436  11.964   0.040
75679SOL    HW128869   9.460  11.872   0.046
75679SOL    HW228870   9.378  11.969  14.840
75680SOL     OW28871  14.760   9.660   9.936
75680SOL    HW128872  14.731   9.627   9.851
75680SOL    HW228873  14.853   9.682   9.923
75681SOL     OW28874   2.445   7.170  11.205
75681SOL    HW128875   2.375   7.169  11.139
75681SOL    HW228876   2.418   7.237  11.267
75682SOL     OW28877  13.774  10.059  13.021
75682SOL    HW128878  13.761  10.054  12.927
75682SOL    HW228879  13.687  10.075  13.057
75683SOL     OW28880   2.463   2.530   1.679
75683SOL    HW128881   2.481   2.613   1.724
75683SOL    HW228882   2.402   2.485   1.737
75684SOL     OW28883   6.359   8.071  12.438
75684SOL    HW128884   6.323   8.074  12.527
75684SOL    HW228885   6.284   8.087  12.381
75685SOL     OW28886   0.776  10.111   5.008
75685SOL    HW128887   0.778  10.121   4.913
75685SOL    HW228888   0.860  10.070   5.029
75686SOL     OW28889   6.574   0.091   7.209
75686SOL    HW128890   6.507   0.037   7.250
75686SOL    HW228891   6.620   0.131   7.283
75687SOL     OW28892   3.648  14.050   0.746
75687SOL    HW128893   3.597  14.000   0.809
75687SOL    HW228894   3.585  14.078   0.680
75688SOL     OW28895   9.021   5.343   4.020
75688SOL    HW128896   8.971   5.296   3.952
75688SOL    HW228897   9.045   5.426   3.978
75689SOL     OW28898   2.493   5.464   1.779
75689SOL    HW128899   2.411   5.443   1.824
75689SOL    HW228900   2.560   5.455   1.847
75690SOL     OW28901  10.185   8.475  13.417
75690SOL    HW128902  10.161   8.460  13.509
75690SOL    HW228903  10.281   8.477  13.418
75691SOL     OW28904   2.369   3.566   1.293
75691SOL    HW128905   2.426   3.601   1.224
75691SOL    HW228906   2.280   3.589   1.265
75692SOL     OW28907  14.235  11.247   0.436
75692SOL    HW128908  14.187  11.327   0.413
75692SOL    HW228909  14.325  11.265   0.407
75693SOL     OW28910   6.159   4.685  12.471
75693SOL    HW128911   6.112   4.637  12.403
75693SOL    HW228912   6.185   4.767  12.430
75694SOL     OW28913   9.802  12.010  13.144
75694SOL    HW128914   9.714  11.972  13.139
75694SOL    HW228915   9.807  12.070  13.069
75695SOL     OW28916   3.553   2.373  11.248
75695SOL    HW128917   3.646   2.392  11.260
75695SOL    HW228918   3.511   2.415  11.323
75696SOL     OW28919  13.668  11.779   9.553
75696SOL    HW128920  13.587  11.729   9.541
75696SOL    HW228921  13.638  11.869   9.571
75697SOL     OW28922   0.602  10.179   1.614
75697SOL    HW128923   0.570  10.244   1.677
75697SOL    HW228924   0.625  10.104   1.668
75698SOL     OW28925  12.626   6.716   4.390
75698SOL    HW128926  12.534   6.716   4.363
75698SOL    HW228927  12.630   6.779   4.462
75699SOL     OW28928  10.479   4.786   7.363
75699SOL    HW128929  10.572   4.786   7.341
75699SOL    HW228930  10.453   4.694   7.358
75700SOL     OW28931   7.178   4.351   2.164
75700SOL    HW128932   7.229   4.431   2.179
75700SOL    HW228933   7.238   4.280   2.187
75701SOL     OW28934   3.096   0.306   0.792
75701SOL    HW128935   3.071   0.380   0.848
75701SOL    HW228936   3.169   0.265   0.839
75702SOL     OW28937  14.119  14.063   9.720
75702SOL    HW128938  14.061  14.101   9.654
75702SOL    HW228939  14.112  13.968   9.706
75703SOL     OW28940   8.040   6.608  13.705
75703SOL    HW128941   8.098   6.646  13.640
75703SOL    HW228942   8.024   6.678  13.768
75704SOL     OW28943  12.056   4.726   4.197
75704SOL    HW128944  12.120   4.680   4.143
75704SOL    HW228945  11.983   4.664   4.205
75705SOL     OW28946   3.914   4.638   5.717
75705SOL    HW128947   3.989   4.592   5.756
75705SOL    HW228948   3.922   4.728   5.748
75706SOL     OW28949   5.036  14.242  12.924
75706SOL    HW128950   4.991  14.167  12.885
75706SOL    HW228951   4.985  14.264  13.001
75707SOL     OW28952   3.804   3.083  13.176
75707SOL    HW128953   3.794   3.118  13.088
75707SOL    HW228954   3.885   3.122  13.209
75708SOL     OW28955  10.399   4.000   7.170
75708SOL    HW128956  10.311   3.970   7.147
75708SOL    HW228957  10.458   3.937   7.129
75709SOL     OW28958   2.526  11.300  10.330
75709SOL    HW128959   2.433  11.305  10.307
75709SOL    HW228960   2.545  11.206  10.332
75710SOL     OW28961   0.584   3.944   7.099
75710SOL    HW128962   0.616   4.018   7.151
75710SOL    HW228963   0.609   3.867   7.150
75711SOL     OW28964  13.710  10.532   0.463
75711SOL    HW128965  13.615  10.542   0.456
75711SOL    HW228966  13.729  10.451   0.416
75712SOL     OW28967  10.237  14.253   9.141
75712SOL    HW128968  10.236  14.271   9.235
75712SOL    HW228969  10.249  14.159   9.134
75713SOL     OW28970   5.065   0.251  13.260
75713SOL    HW128971   4.997   0.250  13.193
75713SOL    HW228972   5.021   0.222  13.340
75714SOL     OW28973   1.303   0.126   5.739
75714SOL    HW128974   1.384   0.080   5.721
75714SOL    HW228975   1.239   0.057   5.757
75715SOL     OW28976   4.513   4.997   0.114
75715SOL    HW128977   4.576   5.005   0.186
75715SOL    HW228978   4.540   5.065   0.051
75716SOL     OW28979  13.744   2.655  11.161
75716SOL    HW128980  13.733   2.580  11.103
75716SOL    HW228981  13.719   2.730  11.108
75717SOL     OW28982   4.140  11.478   0.440
75717SOL    HW128983   4.181  11.409   0.387
75717SOL    HW228984   4.086  11.431   0.503
75718SOL     OW28985  13.698   3.579   0.669
75718SOL    HW128986  13.701   3.669   0.637
75718SOL    HW228987  13.737   3.527   0.599
75719SOL     OW28988  12.828   0.726   4.542
75719SOL    HW128989  12.923   0.738   4.534
75719SOL    HW228990  12.814   0.708   4.635
75720SOL     OW28991  13.515  11.776  12.032
75720SOL    HW128992  13.447  11.714  12.005
75720SOL    HW228993  13.546  11.814  11.950
75721SOL     OW28994   5.646   3.430  13.864
75721SOL    HW128995   5.684   3.346  13.891
75721SOL    HW228996   5.705   3.495  13.903
75722SOL     OW28997   7.164   8.461   6.651
75722SOL    HW128998   7.083   8.432   6.609
75722SOL    HW228999   7.135   8.517   6.723
75723SOL     OW29000   6.218   5.951  12.648
75723SOL    HW129001   6.260   6.035  12.633
75723SOL    HW229002   6.163   5.937  12.571
75724SOL     OW29003   0.379   7.173   8.013
75724SOL    HW129004   0.295   7.157   7.970
75724SOL    HW229005   0.363   7.152   8.105
75725SOL     OW29006   2.131  14.472   4.321
75725SOL    HW129007   2.077  14.442   4.395
75725SOL    HW229008   2.219  14.480   4.358
75726SOL     OW29009   2.596  10.648   3.625
75726SOL    HW129010   2.570  10.561   3.657
75726SOL    HW229011   2.529  10.707   3.661
75727SOL     OW29012  11.661   5.826   0.471
75727SOL    HW129013  11.595   5.815   0.539
75727SOL    HW229014  11.646   5.914   0.437
75728SOL     OW29015   7.042  13.057  13.302
75728SOL    HW129016   6.979  13.112  13.350
75728SOL    HW229017   7.096  13.017  13.371
75729SOL     OW29018   9.958   9.984   0.862
75729SOL    HW129019   9.968   9.924   0.788
75729SOL    HW229020   9.879  10.034   0.841
75730SOL     OW29021   8.015   0.789  11.329
75730SOL    HW129022   8.083   0.796  11.262
75730SOL    HW229023   8.042   0.852  11.396
75731SOL     OW29024  11.366   2.498   4.603
75731SOL    HW129025  11.338   2.410   4.629
75731SOL    HW229026  11.285   2.541   4.574
75732SOL     OW29027   4.449   1.179  10.456
75732SOL    HW129028   4.419   1.241  10.390
75732SOL    HW229029   4.538   1.208  10.477
75733SOL     OW29030  13.429   4.142   5.271
75733SOL    HW129031  13.378   4.113   5.196
75733SOL    HW229032  13.372   4.129   5.347
75734SOL     OW29033  10.159   4.283   7.615
75734SOL    HW129034  10.151   4.190   7.635
75734SOL    HW229035  10.073   4.320   7.639
75735SOL     OW29036  10.625   6.968   0.986
75735SOL    HW129037  10.688   6.982   1.056
75735SOL    HW229038  10.618   7.053   0.943
75736SOL     OW29039  12.600   5.737   1.399
75736SOL    HW129040  12.649   5.760   1.478
75736SOL    HW229041  12.592   5.819   1.351
75737SOL     OW29042   3.882  14.550  14.622
75737SOL    HW129043   3.956  14.492  14.606
75737SOL    HW229044   3.813  14.519  14.563
75738SOL     OW29045   0.585  10.869  10.093
75738SOL    HW129046   0.656  10.932  10.111
75738SOL    HW229047   0.564  10.882  10.001
75739SOL     OW29048   2.734   9.487  12.032
75739SOL    HW129049   2.691   9.433  11.966
75739SOL    HW229050   2.680   9.476  12.111
75740SOL     OW29051   2.628   5.021  11.203
75740SOL    HW129052   2.685   5.078  11.255
75740SOL    HW229053   2.540   5.050  11.225
75741SOL     OW29054   8.860  12.134   3.519
75741SOL    HW129055   8.943  12.088   3.535
75741SOL    HW229056   8.841  12.117   3.427
75742SOL     OW29057  13.225  13.179   5.476
75742SOL    HW129058  13.220  13.275   5.483
75742SOL    HW229059  13.177  13.159   5.396
75743SOL     OW29060   8.223  10.721  10.645
75743SOL    HW129061   8.162  10.661  10.688
75743SOL    HW229062   8.309  10.686  10.666
75744SOL     OW29063   0.547   6.179   2.384
75744SOL    HW129064   0.545   6.170   2.289
75744SOL    HW229065   0.551   6.089   2.416
75745SOL     OW29066   7.046   6.668  11.954
75745SOL    HW129067   7.105   6.698  11.885
75745SOL    HW229068   6.963   6.713  11.937
75746SOL     OW29069  13.507   7.853   8.152
75746SOL    HW129070  13.513   7.759   8.169
75746SOL    HW229071  13.428   7.881   8.198
75747SOL     OW29072  10.148  10.614  12.974
75747SOL    HW129073  10.056  10.621  12.998
75747SOL    HW229074  10.156  10.526  12.937
75748SOL     OW29075   0.626  14.163   4.282
75748SOL    HW129076   0.663  14.245   4.250
75748SOL    HW229077   0.531  14.180   4.286
75749SOL     OW29078   0.874   3.767   2.792
75749SOL    HW129079   0.926   3.809   2.861
75749SOL    HW229080   0.839   3.688   2.833
75750SOL     OW29081  11.111  13.433   5.882
75750SOL    HW129082  11.054  13.382   5.939
75750SOL    HW229083  11.194  13.384   5.880
75751SOL     OW29084   0.234   0.129   0.833
75751SOL    HW129085   0.207   0.197   0.895
75751SOL    HW229086   0.311   0.089   0.872
75752SOL     OW29087   0.775   8.148   8.342
75752SOL    HW129088   0.860   8.116   8.374
75752SOL    HW229089   0.713   8.121   8.409
75753SOL     OW29090  10.145   6.697  12.677
75753SOL    HW129091  10.158   6.611  12.716
75753SOL    HW229092  10.228   6.715  12.631
75754SOL     OW29093   7.506  14.132  14.299
75754SOL    HW129094   7.561  14.176  14.364
75754SOL    HW229095   7.492  14.045  14.336
75755SOL     OW29096   7.840  14.523   0.089
75755SOL    HW129097   7.859  14.434   0.119
75755SOL    HW229098   7.888  14.580   0.150
75756SOL     OW29099  14.566  11.907  13.275
75756SOL    HW129100  14.612  11.829  13.244
75756SOL    HW229101  14.633  11.957  13.321
75757SOL     OW29102  11.474  12.376  12.283
75757SOL    HW129103  11.449  12.323  12.359
75757SOL    HW229104  11.416  12.346  12.213
75758SOL     OW29105   3.410   5.745  11.613
75758SOL    HW129106   3.420   5.839  11.600
75758SOL    HW229107   3.492   5.707  11.581
75759SOL     OW29108   4.580  14.848   5.444
75759SOL    HW129109   4.649  14.868   5.508
75759SOL    HW229110   4.603  14.762   5.410
75760SOL     OW29111  12.025   9.041  11.860
75760SOL    HW129112  12.100   9.066  11.915
75760SOL    HW229113  11.948   9.058  11.914
75761SOL     OW29114   8.046   7.147   9.496
75761SOL    HW129115   7.989   7.224   9.488
75761SOL    HW229116   7.985   7.074   9.508
75762SOL     OW29117   5.564   6.965   1.027
75762SOL    HW129118   5.514   6.917   1.093
75762SOL    HW229119   5.574   6.903   0.954
75763SOL     OW29120   7.649   2.869   8.112
75763SOL    HW129121   7.645   2.787   8.161
75763SOL    HW229122   7.707   2.925   8.164
75764SOL     OW29123   1.094   8.038   1.519
75764SOL    HW129124   1.131   8.121   1.550
75764SOL    HW229125   1.162   7.973   1.536
75765SOL     OW29126   4.531  10.959   1.739
75765SOL    HW129127   4.443  10.966   1.776
75765SOL    HW229128   4.534  11.027   1.672
75766SOL     OW29129   9.738   1.907  12.510
75766SOL    HW129130   9.832   1.902  12.492
75766SOL    HW229131   9.730   1.881  12.601
75767SOL     OW29132   8.719   6.327   4.487
75767SOL    HW129133   8.761   6.404   4.525
75767SOL    HW229134   8.626   6.349   4.485
75768SOL     OW29135  11.194   7.912   3.195
75768SOL    HW129136  11.198   7.967   3.117
75768SOL    HW229137  11.161   7.828   3.162
75769SOL     OW29138  11.014  11.022   6.182
75769SOL    HW129139  11.047  11.005   6.093
75769SOL    HW229140  10.972  10.940   6.208
75770SOL     OW29141   0.458  13.188   5.932
75770SOL    HW129142   0.477  13.274   5.971
75770SOL    HW229143   0.545  13.153   5.909
75771SOL     OW29144  11.911   3.717   2.974
75771SOL    HW129145  11.944   3.634   3.008
75771SOL    HW229146  11.827   3.695   2.934
75772SOL     OW29147  11.478   9.755   1.116
75772SOL    HW129148  11.460   9.669   1.078
75772SOL    HW229149  11.515   9.735   1.202
75773SOL     OW29150  11.860   4.908   5.397
75773SOL    HW129151  11.817   4.824   5.412
75773SOL    HW229152  11.789   4.968   5.375
75774SOL     OW29153  12.157   3.397   6.135
75774SOL    HW129154  12.197   3.315   6.162
75774SOL    HW229155  12.199   3.464   6.189
75775SOL     OW29156   5.038  13.685   6.219
75775SOL    HW129157   5.113  13.709   6.165
75775SOL    HW229158   5.011  13.599   6.185
75776SOL     OW29159   0.062  12.685   8.964
75776SOL    HW129160   0.137  12.629   8.983
75776SOL    HW229161   0.078  12.765   9.014
75777SOL     OW29162   9.922  11.036  10.671
75777SOL    HW129163   9.970  11.084  10.603
75777SOL    HW229164   9.899  11.102  10.735
75778SOL     OW29165  10.564   0.972   8.756
75778SOL    HW129166  10.518   0.888   8.761
75778SOL    HW229167  10.505   1.028   8.705
75779SOL     OW29168  13.525  11.900   8.228
75779SOL    HW129169  13.577  11.944   8.161
75779SOL    HW229170  13.513  11.811   8.196
75780SOL     OW29171   7.370  11.444   4.699
75780SOL    HW129172   7.446  11.433   4.757
75780SOL    HW229173   7.370  11.537   4.677
75781SOL     OW29174   3.828   8.140   4.005
75781SOL    HW129175   3.793   8.119   4.092
75781SOL    HW229176   3.800   8.231   3.990
75782SOL     OW29177  12.798  12.841   2.050
75782SOL    HW129178  12.812  12.764   2.106
75782SOL    HW229179  12.785  12.913   2.112
75783SOL     OW29180   0.239   9.164   2.801
75783SOL    HW129181   0.146   9.186   2.803
75783SOL    HW229182   0.263   9.152   2.893
75784SOL     OW29183  10.333  11.676   6.988
75784SOL    HW129184  10.293  11.723   6.914
75784SOL    HW229185  10.270  11.607   7.009
75785SOL     OW29186  12.376   2.995   8.940
75785SOL    HW129187  12.323   2.978   9.017
75785SOL    HW229188  12.368   3.090   8.926
75786SOL     OW29189  13.534   2.195   0.900
75786SOL    HW129190  13.547   2.106   0.866
75786SOL    HW229191  13.462   2.230   0.847
75787SOL     OW29192   5.264   0.199   4.565
75787SOL    HW129193   5.213   0.264   4.517
75787SOL    HW229194   5.338   0.248   4.601
75788SOL     OW29195  12.440  14.639  11.691
75788SOL    HW129196  12.370  14.582  11.659
75788SOL    HW229197  12.481  14.675  11.612
75789SOL     OW29198  12.383   5.979   4.551
75789SOL    HW129199  12.400   6.033   4.628
75789SOL    HW229200  12.422   5.894   4.573
75790SOL     OW29201   5.550  10.235  10.411
75790SOL    HW129202   5.593  10.237  10.326
75790SOL    HW229203   5.605  10.179  10.465
75791SOL     OW29204  14.221  14.583   9.907
75791SOL    HW129205  14.137  14.559   9.947
75791SOL    HW229206  14.273  14.503   9.908
75792SOL     OW29207  13.307   8.376   1.605
75792SOL    HW129208  13.257   8.360   1.525
75792SOL    HW229209  13.364   8.299   1.613
75793SOL     OW29210   6.605   9.712   8.469
75793SOL    HW129211   6.543   9.673   8.407
75793SOL    HW229212   6.672   9.752   8.414
75794SOL     OW29213   7.983   7.111  10.190
75794SOL    HW129214   8.043   7.062  10.134
75794SOL    HW229215   7.940   7.044  10.243
75795SOL     OW29216   0.986   8.596  13.691
75795SOL    HW129217   0.961   8.565  13.778
75795SOL    HW229218   0.908   8.581  13.637
75796SOL     OW29219  11.874   9.384  10.851
75796SOL    HW129220  11.823   9.363  10.774
75796SOL    HW229221  11.828   9.340  10.923
75797SOL     OW29222  13.640   4.573   1.136
75797SOL    HW129223  13.622   4.491   1.182
75797SOL    HW229224  13.705   4.617   1.191
75798SOL     OW29225  14.547   9.919   8.875
75798SOL    HW129226  14.631   9.963   8.883
75798SOL    HW229227  14.568   9.826   8.880
75799SOL     OW29228   2.954  11.912   6.804
75799SOL    HW129229   2.864  11.879   6.804
75799SOL    HW229230   2.947  12.003   6.834
75800SOL     OW29231   4.653  11.268  10.869
75800SOL    HW129232   4.652  11.304  10.780
75800SOL    HW229233   4.736  11.220  10.875
75801SOL     OW29234   0.990   3.120   3.821
75801SOL    HW129235   0.992   3.216   3.826
75801SOL    HW229236   1.054   3.098   3.754
75802SOL     OW29237  12.445   6.355  11.429
75802SOL    HW129238  12.429   6.435  11.379
75802SOL    HW229239  12.489   6.384  11.508
75803SOL     OW29240   1.340   4.705   7.205
75803SOL    HW129241   1.304   4.648   7.273
75803SOL    HW229242   1.389   4.647   7.147
75804SOL     OW29243   7.552   3.259  11.596
75804SOL    HW129244   7.592   3.200  11.659
75804SOL    HW229245   7.509   3.201  11.533
75805SOL     OW29246   0.416   9.060   7.245
75805SOL    HW129247   0.425   8.995   7.315
75805SOL    HW229248   0.349   9.120   7.277
75806SOL     OW29249   5.971   0.953  12.802
75806SOL    HW129250   5.932   1.002  12.729
75806SOL    HW229251   5.973   1.016  12.874
75807SOL     OW29252   1.005   4.499   0.741
75807SOL    HW129253   1.035   4.583   0.776
75807SOL    HW229254   0.928   4.478   0.793
75808SOL     OW29255  10.745  12.101   2.362
75808SOL    HW129256  10.693  12.022   2.343
75808SOL    HW229257  10.826  12.068   2.399
75809SOL     OW29258   9.116   0.730  12.916
75809SOL    HW129259   9.102   0.818  12.951
75809SOL    HW229260   9.061   0.726  12.837
75810SOL     OW29261   5.901  11.958   7.101
75810SOL    HW129262   5.944  11.912   7.029
75810SOL    HW229263   5.905  11.897   7.175
75811SOL     OW29264   4.535   9.138   5.634
75811SOL    HW129265   4.597   9.194   5.681
75811SOL    HW229266   4.454   9.145   5.685
75812SOL     OW29267  12.332  11.212   3.891
75812SOL    HW129268  12.418  11.250   3.871
75812SOL    HW229269  12.273  11.251   3.827
75813SOL     OW29270   7.581   9.781  14.238
75813SOL    HW129271   7.530   9.704  14.262
75813SOL    HW229272   7.531   9.855  14.275
75814SOL     OW29273  10.675   7.466   6.070
75814SOL    HW129274  10.707   7.552   6.096
75814SOL    HW229275  10.588   7.459   6.109
75815SOL     OW29276   1.354   5.668   8.851
75815SOL    HW129277   1.351   5.575   8.828
75815SOL    HW229278   1.426   5.674   8.914
75816SOL     OW29279  13.845  11.872   3.153
75816SOL    HW129280  13.858  11.821   3.233
75816SOL    HW229281  13.754  11.900   3.157
75817SOL     OW29282   7.142   8.278   4.426
75817SOL    HW129283   7.235   8.289   4.447
75817SOL    HW229284   7.097   8.338   4.485
75818SOL     OW29285   6.229   8.636   4.092
75818SOL    HW129286   6.166   8.677   4.033
75818SOL    HW229287   6.199   8.546   4.100
75819SOL     OW29288   2.543  13.059   2.598
75819SOL    HW129289   2.564  12.966   2.584
75819SOL    HW229290   2.494  13.061   2.680
75820SOL     OW29291  11.524   1.607  14.167
75820SOL    HW129292  11.588   1.558  14.218
75820SOL    HW229293  11.456   1.630  14.230
75821SOL     OW29294   9.238   3.841   6.949
75821SOL    HW129295   9.265   3.926   6.915
75821SOL    HW229296   9.308   3.816   7.009
75822SOL     OW29297  11.318   8.561  12.641
75822SOL    HW129298  11.320   8.466  12.654
75822SOL    HW229299  11.228   8.580  12.615
75823SOL     OW29300  11.413  12.016   0.322
75823SOL    HW129301  11.489  12.003   0.379
75823SOL    HW229302  11.366  12.089   0.362
75824SOL     OW29303   0.002   9.899  13.601
75824SOL    HW129304  14.845   9.961  13.536
75824SOL    HW229305  14.809   9.833  13.608
75825SOL     OW29306   4.531   9.124  11.023
75825SOL    HW129307   4.598   9.147  10.958
75825SOL    HW229308   4.508   9.033  11.002
75826SOL     OW29309   3.609   5.764  10.048
75826SOL    HW129310   3.562   5.692  10.091
75826SOL    HW229311   3.649   5.724   9.971
75827SOL     OW29312   3.269  14.860   6.735
75827SOL    HW129313   3.301   0.030   6.812
75827SOL    HW229314   3.208  14.795   6.769
75828SOL     OW29315   5.268  12.147   2.166
75828SOL    HW129316   5.325  12.081   2.205
75828SOL    HW229317   5.328  12.212   2.130
75829SOL     OW29318   4.212  13.885   4.734
75829SOL    HW129319   4.186  13.975   4.714
75829SOL    HW229320   4.297  13.876   4.692
75830SOL     OW29321   6.813   3.750   8.300
75830SOL    HW129322   6.806   3.671   8.352
75830SOL    HW229323   6.819   3.821   8.364
75831SOL     OW29324   4.013   9.088  12.007
75831SOL    HW129325   3.975   9.022  11.949
75831SOL    HW229326   4.106   9.087  11.988
75832SOL     OW29327   7.988   1.750  10.935
75832SOL    HW129328   7.972   1.818  10.869
75832SOL    HW229329   7.910   1.696  10.935
75833SOL     OW29330   3.304   9.401  14.748
75833SOL    HW129331   3.279   9.346  14.674
75833SOL    HW229332   3.373   9.351  14.793
75834SOL     OW29333   1.597   5.484   6.461
75834SOL    HW129334   1.635   5.412   6.411
75834SOL    HW229335   1.664   5.506   6.526
75835SOL     OW29336   3.436   8.537   9.025
75835SOL    HW129337   3.406   8.460   9.073
75835SOL    HW229338   3.405   8.611   9.077
75836SOL     OW29339   8.694   5.497   0.290
75836SOL    HW129340   8.684   5.446   0.210
75836SOL    HW229341   8.717   5.585   0.259
75837SOL     OW29342   7.429  12.176   8.149
75837SOL    HW129343   7.364  12.133   8.204
75837SOL    HW229344   7.415  12.140   8.062
75838SOL     OW29345   9.206  10.032  14.228
75838SOL    HW129346   9.178  10.113  14.270
75838SOL    HW229347   9.129  10.002  14.179
75839SOL     OW29348  10.872   5.077   4.104
75839SOL    HW129349  10.851   5.148   4.164
75839SOL    HW229350  10.949   5.109   4.057
75840SOL     OW29351  14.024   0.254   7.556
75840SOL    HW129352  14.043   0.178   7.611
75840SOL    HW229353  14.100   0.262   7.499
75841SOL     OW29354   0.240  13.252   3.282
75841SOL    HW129355   0.206  13.341   3.273
75841SOL    HW229356   0.310  13.246   3.217
75842SOL     OW29357   4.436   0.299  12.491
75842SOL    HW129358   4.424   0.219  12.440
75842SOL    HW229359   4.381   0.287  12.568
75843SOL     OW29360  10.617   1.623   8.138
75843SOL    HW129361  10.648   1.561   8.204
75843SOL    HW229362  10.607   1.706   8.186
75844SOL     OW29363   2.674   8.112  12.533
75844SOL    HW129364   2.583   8.104  12.503
75844SOL    HW229365   2.674   8.068  12.618
75845SOL     OW29366  10.821   6.843   7.125
75845SOL    HW129367  10.744   6.896   7.105
75845SOL    HW229368  10.810   6.764   7.073
75846SOL     OW29369  14.723  10.347   1.604
75846SOL    HW129370  14.707  10.400   1.682
75846SOL    HW229371  14.817  10.350   1.592
75847SOL     OW29372   4.618   5.671   9.199
75847SOL    HW129373   4.611   5.759   9.236
75847SOL    HW229374   4.690   5.678   9.136
75848SOL     OW29375  14.369  14.099   5.636
75848SOL    HW129376  14.329  14.115   5.721
75848SOL    HW229377  14.296  14.080   5.577
75849SOL     OW29378   2.973   7.645   7.237
75849SOL    HW129379   2.930   7.652   7.151
75849SOL    HW229380   2.904   7.613   7.296
75850SOL     OW29381   0.350  10.590   9.151
75850SOL    HW129382   0.437  10.620   9.124
75850SOL    HW229383   0.365  10.501   9.185
75851SOL     OW29384   7.169   8.515   7.771
75851SOL    HW129385   7.121   8.506   7.688
75851SOL    HW229386   7.137   8.441   7.824
75852SOL     OW29387   5.539   3.815   8.033
75852SOL    HW129388   5.488   3.838   8.111
75852SOL    HW229389   5.630   3.822   8.061
75853SOL     OW29390   8.501  13.628   4.947
75853SOL    HW129391   8.545  13.653   4.867
75853SOL    HW229392   8.572  13.603   5.007
75854SOL     OW29393   2.031  12.061   4.759
75854SOL    HW129394   1.991  12.136   4.802
75854SOL    HW229395   1.971  11.988   4.776
75855SOL     OW29396   8.199   0.095   8.059
75855SOL    HW129397   8.196   0.014   8.008
75855SOL    HW229398   8.132   0.150   8.020
75856SOL     OW29399   6.081  10.396   0.201
75856SOL    HW129400   6.037  10.393   0.286
75856SOL    HW229401   6.163  10.441   0.218
75857SOL     OW29402   7.776   0.321   6.388
75857SOL    HW129403   7.846   0.269   6.349
75857SOL    HW229404   7.768   0.288   6.478
75858SOL     OW29405  14.222   4.109   0.242
75858SOL    HW129406  14.204   4.146   0.328
75858SOL    HW229407  14.205   4.015   0.253
75859SOL     OW29408  13.528   1.844  12.451
75859SOL    HW129409  13.443   1.882  12.428
75859SOL    HW229410  13.591   1.894  12.399
75860SOL     OW29411  13.026   3.640   5.741
75860SOL    HW129412  13.022   3.551   5.776
75860SOL    HW229413  12.981   3.636   5.657
75861SOL     OW29414   2.187  13.021   5.771
75861SOL    HW129415   2.164  12.972   5.850
75861SOL    HW229416   2.125  12.990   5.705
75862SOL     OW29417  13.565  11.561  11.231
75862SOL    HW129418  13.634  11.512  11.185
75862SOL    HW229419  13.547  11.636  11.175
75863SOL     OW29420   0.047   4.332  14.164
75863SOL    HW129421   0.027   4.422  14.139
75863SOL    HW229422   0.062   4.287  14.080
75864SOL     OW29423  14.346  11.365  14.116
75864SOL    HW129424  14.293  11.401  14.187
75864SOL    HW229425  14.437  11.381  14.144
75865SOL     OW29426   0.959   7.721   0.733
75865SOL    HW129427   0.959   7.749   0.642
75865SOL    HW229428   0.905   7.642   0.733
75866SOL     OW29429   5.287   5.044   4.641
75866SOL    HW129430   5.220   5.103   4.676
75866SOL    HW229431   5.318   4.996   4.718
75867SOL     OW29432   6.087   9.761   8.961
75867SOL    HW129433   6.052   9.785   8.875
75867SOL    HW229434   6.047   9.676   8.981
75868SOL     OW29435   7.551   8.182  14.547
75868SOL    HW129436   7.607   8.187  14.470
75868SOL    HW229437   7.478   8.126  14.520
75869SOL     OW29438  11.220   0.635   7.555
75869SOL    HW129439  11.180   0.548   7.554
75869SOL    HW229440  11.284   0.633   7.484
75870SOL     OW29441  10.785   4.315   0.953
75870SOL    HW129442  10.794   4.326   1.048
75870SOL    HW229443  10.875   4.309   0.921
75871SOL     OW29444   3.091  14.084   5.992
75871SOL    HW129445   3.037  14.099   5.914
75871SOL    HW229446   3.043  14.017   6.041
75872SOL     OW29447   5.192   0.916   0.462
75872SOL    HW129448   5.152   0.880   0.542
75872SOL    HW229449   5.222   1.004   0.488
75873SOL     OW29450   0.745   9.373  14.834
75873SOL    HW129451   0.737   9.279  14.850
75873SOL    HW229452   0.663   9.397  14.790
75874SOL     OW29453   0.340   6.375   3.778
75874SOL    HW129454   0.301   6.418   3.855
75874SOL    HW229455   0.416   6.328   3.814
75875SOL     OW29456   3.821   0.363  13.063
75875SOL    HW129457   3.839   0.453  13.038
75875SOL    HW229458   3.728   0.351  13.045
75876SOL     OW29459   4.532  10.772   8.076
75876SOL    HW129460   4.466  10.763   8.145
75876SOL    HW229461   4.482  10.793   7.997
75877SOL     OW29462   9.900  13.284  12.749
75877SOL    HW129463   9.860  13.205  12.711
75877SOL    HW229464   9.861  13.290  12.836
75878SOL     OW29465   3.699   6.258   3.485
75878SOL    HW129466   3.650   6.280   3.564
75878SOL    HW229467   3.763   6.329   3.476
75879SOL     OW29468   8.111   7.728   9.921
75879SOL    HW129469   8.172   7.743   9.849
75879SOL    HW229470   8.079   7.815   9.944
75880SOL     OW29471   5.166  14.702  12.539
75880SOL    HW129472   5.247  14.738  12.575
75880SOL    HW229473   5.152  14.621  12.588
75881SOL     OW29474   9.603   6.864  10.656
75881SOL    HW129475   9.599   6.770  10.674
75881SOL    HW229476   9.694   6.889  10.675
75882SOL     OW29477   8.340   1.923   4.328
75882SOL    HW129478   8.364   2.016   4.323
75882SOL    HW229479   8.262   1.922   4.384
75883SOL     OW29480  11.874  12.696  14.767
75883SOL    HW129481  11.873  12.750  14.846
75883SOL    HW229482  11.943  12.734  14.713
75884SOL     OW29483   5.124  12.805   5.254
75884SOL    HW129484   5.165  12.797   5.340
75884SOL    HW229485   5.196  12.825   5.195
75885SOL     OW29486   3.801   9.430  13.697
75885SOL    HW129487   3.881   9.444  13.748
75885SOL    HW229488   3.829   9.376  13.623
75886SOL     OW29489   0.700   5.061  14.089
75886SOL    HW129490   0.781   5.111  14.097
75886SOL    HW229491   0.660   5.092  14.007
75887SOL     OW29492   1.477   7.509  10.605
75887SOL    HW129493   1.409   7.520  10.672
75887SOL    HW229494   1.550   7.468  10.651
75888SOL     OW29495   4.397   4.379  12.826
75888SOL    HW129496   4.303   4.366  12.813
75888SOL    HW229497   4.436   4.355  12.742
75889SOL     OW29498  14.521   3.456  11.844
75889SOL    HW129499  14.452   3.392  11.827
75889SOL    HW229500  14.602   3.406  11.836
75890SOL     OW29501   1.876   6.434   8.612
75890SOL    HW129502   1.904   6.432   8.520
75890SOL    HW229503   1.878   6.527   8.634
75891SOL     OW29504   0.112  11.068  10.737
75891SOL    HW129505   0.170  11.142  10.757
75891SOL    HW229506   0.146  10.996  10.790
75892SOL     OW29507   0.093   7.566  13.055
75892SOL    HW129508   0.100   7.627  13.128
75892SOL    HW229509   0.126   7.483  13.090
75893SOL     OW29510   4.949  14.429   6.798
75893SOL    HW129511   5.021  14.373   6.829
75893SOL    HW229512   4.897  14.372   6.741
75894SOL     OW29513   6.654   6.000   1.409
75894SOL    HW129514   6.702   5.997   1.491
75894SOL    HW229515   6.565   6.027   1.433
75895SOL     OW29516  14.650   0.428  14.407
75895SOL    HW129517  14.688   0.412  14.493
75895SOL    HW229518  14.673   0.350  14.356
75896SOL     OW29519   1.917   4.550  13.917
75896SOL    HW129520   1.993   4.594  13.879
75896SOL    HW229521   1.954   4.480  13.971
75897SOL     OW29522  12.919   9.542  12.058
75897SOL    HW129523  12.989   9.477  12.048
75897SOL    HW229524  12.842   9.492  12.082
75898SOL     OW29525   4.587   7.375   5.971
75898SOL    HW129526   4.506   7.426   5.964
75898SOL    HW229527   4.651   7.423   5.918
75899SOL     OW29528   5.136  13.554   8.552
75899SOL    HW129529   5.121  13.586   8.463
75899SOL    HW229530   5.050  13.558   8.594
75900SOL     OW29531   9.009  11.292   4.404
75900SOL    HW129532   9.022  11.303   4.310
75900SOL    HW229533   9.028  11.200   4.421
75901SOL     OW29534   8.131   5.226   9.653
75901SOL    HW129535   8.147   5.154   9.715
75901SOL    HW229536   8.075   5.287   9.701
75902SOL     OW29537   9.763  12.390   2.457
75902SOL    HW129538   9.841  12.339   2.480
75902SOL    HW229539   9.765  12.466   2.516
75903SOL     OW29540   2.680   6.394   7.242
75903SOL    HW129541   2.701   6.368   7.152
75903SOL    HW229542   2.616   6.329   7.271
75904SOL     OW29543  13.041   4.494   9.287
75904SOL    HW129544  13.039   4.401   9.266
75904SOL    HW229545  12.971   4.505   9.351
75905SOL     OW29546   3.507   4.095   1.112
75905SOL    HW129547   3.602   4.100   1.115
75905SOL    HW229548   3.489   4.013   1.065
75906SOL     OW29549   7.927  12.069  13.419
75906SOL    HW129550   7.833  12.051  13.405
75906SOL    HW229551   7.959  11.992  13.466
75907SOL     OW29552  12.186   5.868  14.874
75907SOL    HW129553  12.235   5.947   0.019
75907SOL    HW229554  12.182   5.867  14.778
75908SOL     OW29555   9.608  13.141   1.991
75908SOL    HW129556   9.698  13.166   1.971
75908SOL    HW229557   9.574  13.213   2.043
75909SOL     OW29558   4.118   8.975   8.169
75909SOL    HW129559   4.099   9.003   8.259
75909SOL    HW229560   4.122   8.880   8.175
75910SOL     OW29561   3.789  10.867   1.795
75910SOL    HW129562   3.704  10.832   1.821
75910SOL    HW229563   3.772  10.913   1.712
75911SOL     OW29564   7.975   5.112  10.341
75911SOL    HW129565   7.982   5.019  10.322
75911SOL    HW229566   8.038   5.127  10.412
75912SOL     OW29567   3.815   2.477  10.364
75912SOL    HW129568   3.875   2.527  10.419
75912SOL    HW229569   3.757   2.543  10.325
75913SOL     OW29570   7.849   7.400   4.364
75913SOL    HW129571   7.847   7.308   4.338
75913SOL    HW229572   7.898   7.400   4.446
75914SOL     OW29573   1.404  11.801   4.231
75914SOL    HW129574   1.319  11.804   4.187
75914SOL    HW229575   1.405  11.715   4.274
75915SOL     OW29576   7.390  10.212   2.546
75915SOL    HW129577   7.360  10.152   2.614
75915SOL    HW229578   7.309  10.240   2.503
75916SOL     OW29579  13.814   9.877  12.196
75916SOL    HW129580  13.835   9.934  12.271
75916SOL    HW229581  13.720   9.888  12.184
75917SOL     OW29582  14.123  13.995   7.310
75917SOL    HW129583  14.147  14.055   7.239
75917SOL    HW229584  14.147  13.908   7.277
75918SOL     OW29585   0.921  13.805   9.919
75918SOL    HW129586   0.908  13.711   9.911
75918SOL    HW229587   0.976  13.829   9.844
75919SOL     OW29588  12.987   8.283  12.378
75919SOL    HW129589  13.070   8.326  12.398
75919SOL    HW229590  12.963   8.315  12.292
75920SOL     OW29591  10.951  11.952   3.398
75920SOL    HW129592  10.957  11.912   3.485
75920SOL    HW229593  10.888  11.898   3.351
75921SOL     OW29594   8.052  11.553   4.083
75921SOL    HW129595   8.040  11.489   4.013
75921SOL    HW229596   8.110  11.620   4.045
75922SOL     OW29597   1.111   0.060  13.213
75922SOL    HW129598   1.106   0.147  13.174
75922SOL    HW229599   1.148   0.005  13.144
75923SOL     OW29600  10.158   4.936   9.519
75923SOL    HW129601  10.112   4.934   9.603
75923SOL    HW229602  10.121   4.863   9.470
75924SOL     OW29603   7.235  13.529   3.047
75924SOL    HW129604   7.305  13.570   2.997
75924SOL    HW229605   7.161  13.590   3.041
75925SOL     OW29606   3.195  11.394  12.263
75925SOL    HW129607   3.196  11.488  12.281
75925SOL    HW229608   3.185  11.389  12.168
75926SOL     OW29609   7.337  11.409   9.203
75926SOL    HW129610   7.353  11.492   9.246
75926SOL    HW229611   7.381  11.344   9.258
75927SOL     OW29612   0.612   2.227   6.220
75927SOL    HW129613   0.612   2.178   6.138
75927SOL    HW229614   0.590   2.316   6.195
75928SOL     OW29615  12.980   6.842   9.776
75928SOL    HW129616  13.034   6.881   9.844
75928SOL    HW229617  13.028   6.859   9.695
75929SOL     OW29618   7.119   5.162   9.352
75929SOL    HW129619   7.032   5.133   9.381
75929SOL    HW229620   7.179   5.099   9.392
75930SOL     OW29621  12.418   5.680  11.943
75930SOL    HW129622  12.347   5.726  11.899
75930SOL    HW229623  12.496   5.698  11.890
75931SOL     OW29624   6.331   6.509  11.706
75931SOL    HW129625   6.277   6.430  11.714
75931SOL    HW229626   6.276   6.579  11.742
75932SOL     OW29627   1.854   8.988   2.473
75932SOL    HW129628   1.799   9.006   2.397
75932SOL    HW229629   1.899   8.906   2.452
75933SOL     OW29630   1.948   4.385   1.263
75933SOL    HW129631   1.936   4.409   1.355
75933SOL    HW229632   1.984   4.297   1.266
75934SOL     OW29633   0.851  12.435   3.038
75934SOL    HW129634   0.770  12.399   3.003
75934SOL    HW229635   0.918  12.414   2.972
75935SOL     OW29636  13.091   7.220   9.572
75935SOL    HW129637  13.098   7.311   9.602
75935SOL    HW229638  13.174   7.180   9.596
75936SOL     OW29639   8.400  14.098   8.068
75936SOL    HW129640   8.380  14.141   7.985
75936SOL    HW229641   8.455  14.024   8.044
75937SOL     OW29642   9.656   3.121  10.346
75937SOL    HW129643   9.705   3.113  10.428
75937SOL    HW229644   9.583   3.179  10.368
75938SOL     OW29645   8.937   3.508  12.288
75938SOL    HW129646   8.868   3.447  12.311
75938SOL    HW229647   8.892   3.591  12.272
75939SOL     OW29648   5.649   6.415   4.897
75939SOL    HW129649   5.637   6.484   4.962
75939SOL    HW229650   5.656   6.461   4.813
75940SOL     OW29651  10.184   3.321   9.452
75940SOL    HW129652  10.115   3.366   9.500
75940SOL    HW229653  10.175   3.229   9.477
75941SOL     OW29654   5.092   4.767   6.207
75941SOL    HW129655   5.141   4.843   6.239
75941SOL    HW229656   5.016   4.762   6.265
75942SOL     OW29657  10.254   9.438  14.804
75942SOL    HW129658  10.274   9.530  14.822
75942SOL    HW229659  10.268   9.394   0.012
75943SOL     OW29660   7.100   3.636   6.995
75943SOL    HW129661   7.098   3.714   6.939
75943SOL    HW229662   7.073   3.565   6.937
75944SOL     OW29663   2.608   7.504   9.807
75944SOL    HW129664   2.698   7.476   9.824
75944SOL    HW229665   2.614   7.598   9.792
75945SOL     OW29666   5.800   5.822  13.854
75945SOL    HW129667   5.774   5.894  13.797
75945SOL    HW229668   5.764   5.845  13.939
75946SOL     OW29669   0.919  10.439  14.560
75946SOL    HW129670   0.883  10.360  14.519
75946SOL    HW229671   1.001  10.455  14.514
75947SOL     OW29672  12.826   7.833  14.678
75947SOL    HW129673  12.733   7.827  14.657
75947SOL    HW229674  12.868   7.771  14.619
75948SOL     OW29675   4.942  11.899   6.642
75948SOL    HW129676   5.006  11.877   6.574
75948SOL    HW229677   4.983  11.872   6.723
75949SOL     OW29678   8.054   3.071   6.112
75949SOL    HW129679   8.048   2.989   6.160
75949SOL    HW229680   7.971   3.116   6.131
75950SOL     OW29681   8.277  12.020   0.224
75950SOL    HW129682   8.261  12.112   0.202
75950SOL    HW229683   8.201  11.973   0.188
75951SOL     OW29684   6.378   3.528   0.749
75951SOL    HW129685   6.431   3.454   0.720
75951SOL    HW229686   6.292   3.513   0.709
75952SOL     OW29687  14.805  10.893   5.760
75952SOL    HW129688  14.763  10.902   5.674
75952SOL    HW229689   0.017  10.930   5.748
75953SOL     OW29690  11.228  13.053   2.729
75953SOL    HW129691  11.311  13.017   2.699
75953SOL    HW229692  11.233  13.146   2.706
75954SOL     OW29693  14.867   9.005  11.607
75954SOL    HW129694  14.862   9.028  11.700
75954SOL    HW229695  14.872   9.089  11.562
75955SOL     OW29696   3.499   9.601   8.410
75955SOL    HW129697   3.537   9.658   8.343
75955SOL    HW229698   3.405   9.602   8.390
75956SOL     OW29699   5.159   6.247  10.885
75956SOL    HW129700   5.208   6.329  10.895
75956SOL    HW229701   5.213   6.194  10.827
75957SOL     OW29702   0.954   8.358  10.001
75957SOL    HW129703   1.028   8.415  10.026
75957SOL    HW229704   0.882   8.387  10.058
75958SOL     OW29705   4.613   3.710   9.351
75958SOL    HW129706   4.663   3.667   9.283
75958SOL    HW229707   4.629   3.804   9.337
75959SOL     OW29708  12.888   1.083  12.039
75959SOL    HW129709  12.940   1.139  12.097
75959SOL    HW229710  12.804   1.074  12.083
75960SOL     OW29711  10.104   2.660   4.342
75960SOL    HW129712  10.180   2.689   4.392
75960SOL    HW229713  10.140   2.600   4.277
75961SOL     OW29714  12.638   6.457   8.846
75961SOL    HW129715  12.682   6.522   8.901
75961SOL    HW229716  12.709   6.413   8.799
75962SOL     OW29717  10.014   4.993   7.164
75962SOL    HW129718  10.073   4.918   7.158
75962SOL    HW229719   9.954   4.971   7.235
75963SOL     OW29720   2.245   7.975   1.898
75963SOL    HW129721   2.298   8.055   1.895
75963SOL    HW229722   2.282   7.919   1.830
75964SOL     OW29723   5.985   9.425   3.657
75964SOL    HW129724   5.908   9.435   3.712
75964SOL    HW229725   6.058   9.450   3.714
75965SOL     OW29726   0.032   1.908   2.160
75965SOL    HW129727   0.122   1.937   2.177
75965SOL    HW229728  14.867   1.981   2.113
75966SOL     OW29729  13.920   1.575  10.254
75966SOL    HW129730  13.885   1.542  10.172
75966SOL    HW229731  13.924   1.499  10.312
75967SOL     OW29732   7.829   5.125   5.435
75967SOL    HW129733   7.919   5.157   5.437
75967SOL    HW229734   7.835   5.033   5.461
75968SOL     OW29735  10.824   3.855   3.164
75968SOL    HW129736  10.799   3.794   3.095
75968SOL    HW229737  10.919   3.856   3.163
75969SOL     OW29738  12.884   1.362  12.968
75969SOL    HW129739  12.845   1.449  12.984
75969SOL    HW229740  12.962   1.361  13.023
75970SOL     OW29741  10.998   7.536   3.703
75970SOL    HW129742  11.016   7.586   3.783
75970SOL    HW229743  11.048   7.581   3.635
75971SOL     OW29744   5.364   6.882   5.683
75971SOL    HW129745   5.442   6.936   5.697
75971SOL    HW229746   5.328   6.913   5.600
75972SOL     OW29747   4.119  12.973   6.090
75972SOL    HW129748   4.091  12.882   6.078
75972SOL    HW229749   4.194  12.982   6.031
75973SOL     OW29750  10.439   7.567   5.764
75973SOL    HW129751  10.443   7.659   5.736
75973SOL    HW229752  10.499   7.522   5.705
75974SOL     OW29753   5.409   1.387   0.493
75974SOL    HW129754   5.459   1.461   0.528
75974SOL    HW229755   5.354   1.426   0.425
75975SOL     OW29756  13.206  14.612  13.375
75975SOL    HW129757  13.290  14.648  13.404
75975SOL    HW229758  13.146  14.630  13.448
75976SOL     OW29759  13.624   9.541  12.859
75976SOL    HW129760  13.695   9.590  12.900
75976SOL    HW229761  13.554   9.541  12.924
75977SOL     OW29762  11.878  10.755   1.982
75977SOL    HW129763  11.831  10.801   1.913
75977SOL    HW229764  11.810  10.728   2.044
75978SOL     OW29765   7.454   9.535  12.753
75978SOL    HW129766   7.466   9.615  12.804
75978SOL    HW229767   7.407   9.476  12.813
75979SOL     OW29768  12.210   6.339   8.576
75979SOL    HW129769  12.243   6.367   8.661
75979SOL    HW229770  12.241   6.250   8.565
75980SOL     OW29771   2.093  12.832   6.372
75980SOL    HW129772   2.153  12.772   6.416
75980SOL    HW229773   2.078  12.902   6.436
75981SOL     OW29774  10.083   1.992   7.022
75981SOL    HW129775  10.155   1.939   7.056
75981SOL    HW229776  10.020   1.929   6.988
75982SOL     OW29777   0.132   9.717   8.830
75982SOL    HW129778   0.210   9.664   8.814
75982SOL    HW229779   0.065   9.680   8.772
75983SOL     OW29780  13.859   6.356  14.190
75983SOL    HW129781  13.824   6.403  14.265
75983SOL    HW229782  13.866   6.265  14.219
75984SOL     OW29783   6.695   7.726   1.106
75984SOL    HW129784   6.728   7.816   1.096
75984SOL    HW229785   6.623   7.719   1.044
75985SOL     OW29786   9.553   6.455   4.971
75985SOL    HW129787   9.592   6.392   4.911
75985SOL    HW229788   9.480   6.407   5.011
75986SOL     OW29789   6.853   3.966   0.922
75986SOL    HW129790   6.780   3.916   0.887
75986SOL    HW229791   6.869   4.034   0.857
75987SOL     OW29792   2.801  14.316   2.431
75987SOL    HW129793   2.743  14.239   2.428
75987SOL    HW229794   2.767  14.374   2.363
75988SOL     OW29795   3.229   9.061  10.180
75988SOL    HW129796   3.276   9.142  10.159
75988SOL    HW229797   3.145   9.090  10.214
75989SOL     OW29798   4.445  13.396  12.612
75989SOL    HW129799   4.425  13.443  12.531
75989SOL    HW229800   4.438  13.303  12.588
75990SOL     OW29801   9.412  12.590   7.231
75990SOL    HW129802   9.499  12.557   7.252
75990SOL    HW229803   9.356  12.556   7.302
75991SOL     OW29804   2.071  10.135   0.977
75991SOL    HW129805   1.985  10.152   0.941
75991SOL    HW229806   2.057  10.068   1.044
75992SOL     OW29807   4.040   5.248   1.337
75992SOL    HW129808   4.024   5.310   1.266
75992SOL    HW229809   4.128   5.213   1.320
75993SOL     OW29810   6.699   3.409  10.449
75993SOL    HW129811   6.755   3.333  10.467
75993SOL    HW229812   6.629   3.374  10.393
75994SOL     OW29813   7.058   5.290   8.128
75994SOL    HW129814   7.032   5.255   8.042
75994SOL    HW229815   7.045   5.216   8.188
75995SOL     OW29816  14.179   4.112   5.566
75995SOL    HW129817  14.102   4.064   5.537
75995SOL    HW229818  14.149   4.159   5.644
75996SOL     OW29819   5.365   3.087   4.122
75996SOL    HW129820   5.422   3.012   4.140
75996SOL    HW229821   5.418   3.145   4.067
75997SOL     OW29822   6.939  13.054   7.297
75997SOL    HW129823   6.965  13.140   7.330
75997SOL    HW229824   6.896  13.072   7.214
75998SOL     OW29825  10.282   9.160  12.946
75998SOL    HW129826  10.295   9.109  13.026
75998SOL    HW229827  10.213   9.223  12.969
75999SOL     OW29828   2.489  11.131   7.911
75999SOL    HW129829   2.540  11.198   7.866
75999SOL    HW229830   2.459  11.173   7.992
76000SOL     OW29831  12.959   3.654  14.614
76000SOL    HW129832  12.890   3.658  14.679
76000SOL    HW229833  12.938   3.577  14.561
76001SOL     OW29834   6.266   6.360   2.849
76001SOL    HW129835   6.242   6.411   2.926
76001SOL    HW229836   6.183   6.327   2.815
76002SOL     OW29837  13.828   3.900  10.201
76002SOL    HW129838  13.800   3.809  10.207
76002SOL    HW229839  13.883   3.913  10.278
76003SOL     OW29840  14.782   2.966  13.187
76003SOL    HW129841  14.738   2.896  13.237
76003SOL    HW229842  14.840   3.008  13.251
76004SOL     OW29843   8.658   8.643  13.212
76004SOL    HW129844   8.587   8.578  13.211
76004SOL    HW229845   8.626   8.715  13.159
76005SOL     OW29846  13.553   6.958   0.372
76005SOL    HW129847  13.593   6.988   0.290
76005SOL    HW229848  13.523   6.869   0.353
76006SOL     OW29849   0.705  11.507  14.704
76006SOL    HW129850   0.797  11.532  14.698
76006SOL    HW229851   0.657  11.587  14.684
76007SOL     OW29852   1.482   1.841   1.986
76007SOL    HW129853   1.387   1.850   1.995
76007SOL    HW229854   1.497   1.746   1.982
76008SOL     OW29855  11.720  11.590   4.229
76008SOL    HW129856  11.805  11.612   4.265
76008SOL    HW229857  11.732  11.504   4.189
76009SOL     OW29858   2.579  10.457   8.051
76009SOL    HW129859   2.615  10.541   8.023
76009SOL    HW229860   2.623  10.437   8.133
76010SOL     OW29861   0.819   1.862   2.012
76010SOL    HW129862   0.809   1.845   1.918
76010SOL    HW229863   0.874   1.790   2.043
76011SOL     OW29864   0.106   3.367   1.546
76011SOL    HW129865   0.080   3.418   1.622
76011SOL    HW229866   0.199   3.388   1.533
76012SOL     OW29867   5.183   4.427   5.971
76012SOL    HW129868   5.194   4.485   5.895
76012SOL    HW229869   5.144   4.347   5.934
76013SOL     OW29870   6.102   3.173  12.656
76013SOL    HW129871   6.096   3.100  12.717
76013SOL    HW229872   6.133   3.246  12.710
76014SOL     OW29873  14.105  13.282  13.968
76014SOL    HW129874  14.119  13.304  14.060
76014SOL    HW229875  14.013  13.302  13.952
76015SOL     OW29876   9.991  11.576   6.897
76015SOL    HW129877  10.046  11.513   6.943
76015SOL    HW229878  10.023  11.575   6.807
76016SOL     OW29879   5.346  11.558   0.333
76016SOL    HW129880   5.337  11.651   0.350
76016SOL    HW229881   5.400  11.552   0.254
76017SOL     OW29882   2.188  10.002   9.292
76017SOL    HW129883   2.228   9.953   9.220
76017SOL    HW229884   2.182  10.091   9.259
76018SOL     OW29885  14.560   2.915   8.653
76018SOL    HW129886  14.471   2.931   8.686
76018SOL    HW229887  14.583   2.994   8.605
76019SOL     OW29888  13.464  11.160   2.129
76019SOL    HW129889  13.376  11.191   2.153
76019SOL    HW229890  13.498  11.226   2.070
76020SOL     OW29891  11.926   9.696   1.989
76020SOL    HW129892  11.863   9.695   1.917
76020SOL    HW229893  11.926   9.786   2.020
76021SOL     OW29894   0.454  12.718   9.932
76021SOL    HW129895   0.387  12.766   9.979
76021SOL    HW229896   0.464  12.765   9.849
76022SOL     OW29897   8.999  14.128   9.289
76022SOL    HW129898   9.090  14.145   9.265
76022SOL    HW229899   8.949  14.196   9.245
76023SOL     OW29900   9.020   1.120   9.126
76023SOL    HW129901   9.113   1.101   9.138
76023SOL    HW229902   8.979   1.034   9.118
76024SOL     OW29903  11.593  11.654  11.635
76024SOL    HW129904  11.539  11.575  11.644
76024SOL    HW229905  11.642  11.660  11.716
76025SOL     OW29906   0.713   8.694   8.289
76025SOL    HW129907   0.741   8.608   8.321
76025SOL    HW229908   0.721   8.751   8.365
76026SOL     OW29909   0.452  10.377  13.392
76026SOL    HW129910   0.405  10.376  13.309
76026SOL    HW229911   0.441  10.289  13.428
76027SOL     OW29912   1.332   9.152   0.907
76027SOL    HW129913   1.311   9.243   0.928
76027SOL    HW229914   1.320   9.106   0.990
76028SOL     OW29915  13.945   7.756   2.605
76028SOL    HW129916  14.008   7.699   2.562
76028SOL    HW229917  13.880   7.697   2.642
76029SOL     OW29918  11.318   3.658   1.136
76029SOL    HW129919  11.321   3.714   1.058
76029SOL    HW229920  11.228   3.666   1.167
76030SOL     OW29921  13.198   3.181  10.822
76030SOL    HW129922  13.199   3.277  10.823
76030SOL    HW229923  13.159   3.158  10.906
76031SOL     OW29924  12.907   3.554   5.516
76031SOL    HW129925  12.963   3.502   5.459
76031SOL    HW229926  12.822   3.554   5.472
76032SOL     OW29927   9.310   2.195   4.069
76032SOL    HW129928   9.313   2.247   4.150
76032SOL    HW229929   9.401   2.183   4.045
76033SOL     OW29930   7.908   0.287   3.266
76033SOL    HW129931   7.877   0.219   3.206
76033SOL    HW229932   7.902   0.368   3.215
76034SOL     OW29933  11.553  12.459   5.338
76034SOL    HW129934  11.508  12.503   5.267
76034SOL    HW229935  11.627  12.414   5.296
76035SOL     OW29936  12.612   6.572   1.106
76035SOL    HW129937  12.622   6.638   1.174
76035SOL    HW229938  12.552   6.507   1.144
76036SOL     OW29939   6.920   0.699  14.617
76036SOL    HW129940   6.936   0.787  14.650
76036SOL    HW229941   6.839   0.707  14.566
76037SOL     OW29942   4.565  13.795   1.314
76037SOL    HW129943   4.548  13.866   1.376
76037SOL    HW229944   4.478  13.774   1.278
76038SOL     OW29945   1.237   0.034   7.882
76038SOL    HW129946   1.282   0.005   7.802
76038SOL    HW229947   1.150   0.060   7.852
76039SOL     OW29948   9.061   6.611  14.352
76039SOL    HW129949   9.058   6.519  14.325
76039SOL    HW229950   8.970   6.637  14.362
76040SOL     OW29951   9.038   4.133   9.986
76040SOL    HW129952   9.065   4.220  10.013
76040SOL    HW229953   9.018   4.141   9.892
76041SOL     OW29954   8.921   5.234  12.536
76041SOL    HW129955   8.882   5.271  12.615
76041SOL    HW229956   9.015   5.238  12.551
76042SOL     OW29957   5.604  11.240   9.222
76042SOL    HW129958   5.535  11.302   9.198
76042SOL    HW229959   5.576  11.206   9.307
76043SOL     OW29960  13.074  12.467  13.782
76043SOL    HW129961  12.998  12.441  13.834
76043SOL    HW229962  13.050  12.551  13.744
76044SOL     OW29963  13.975   2.543   7.854
76044SOL    HW129964  14.058   2.505   7.884
76044SOL    HW229965  13.969   2.625   7.903
76045SOL     OW29966   4.912   0.816  14.278
76045SOL    HW129967   4.991   0.869  14.265
76045SOL    HW229968   4.847   0.878  14.309
76046SOL     OW29969   1.727   3.391  13.410
76046SOL    HW129970   1.703   3.321  13.348
76046SOL    HW229971   1.823   3.389  13.410
76047SOL     OW29972  12.798  10.827   5.670
76047SOL    HW129973  12.886  10.844   5.636
76047SOL    HW229974  12.765  10.914   5.693
76048SOL     OW29975   0.840   6.473  11.410
76048SOL    HW129976   0.888   6.436  11.336
76048SOL    HW229977   0.753   6.492  11.374
76049SOL     OW29978   7.747  10.658   3.233
76049SOL    HW129979   7.762  10.590   3.298
76049SOL    HW229980   7.660  10.693   3.255
76050SOL     OW29981   0.148  14.288   9.043
76050SOL    HW129982   0.120  14.347   8.972
76050SOL    HW229983   0.150  14.344   9.121
76051SOL     OW29984   1.820   6.540   0.223
76051SOL    HW129985   1.772   6.529   0.305
76051SOL    HW229986   1.763   6.595   0.169
76052SOL     OW29987   9.755  11.212   0.062
76052SOL    HW129988   9.766  11.298   0.103
76052SOL    HW229989   9.833  11.200   0.009
76053SOL     OW29990  13.008   9.513  13.277
76053SOL    HW129991  12.997   9.575  13.349
76053SOL    HW229992  13.055   9.439  13.317
76054SOL     OW29993  10.268  13.877   0.601
76054SOL    HW129994  10.357  13.912   0.593
76054SOL    HW229995  10.223  13.911   0.524
76055SOL     OW29996   6.459   5.839   5.911
76055SOL    HW129997   6.438   5.748   5.932
76055SOL    HW229998   6.438   5.888   5.990
76056SOL     OW29999   8.897   6.480   5.917
76056SOL    HW130000   8.937   6.554   5.963
76056SOL    HW230001   8.811   6.471   5.957
76057SOL     OW30002   1.216   3.017   8.027
76057SOL    HW130003   1.211   3.006   7.932
76057SOL    HW230004   1.287   2.959   8.055
76058SOL     OW30005   2.341   9.727  10.113
76058SOL    HW130006   2.400   9.801  10.105
76058SOL    HW230007   2.269   9.759  10.168
76059SOL     OW30008   3.755   6.096   7.243
76059SOL    HW130009   3.842   6.134   7.251
76059SOL    HW230010   3.699   6.169   7.215
76060SOL     OW30011   3.896   4.920   3.499
76060SOL    HW130012   3.907   5.015   3.500
76060SOL    HW230013   3.984   4.884   3.507
76061SOL     OW30014  10.880  13.815  13.852
76061SOL    HW130015  10.854  13.896  13.897
76061SOL    HW230016  10.956  13.784  13.901
76062SOL     OW30017   2.521   2.021  12.824
76062SOL    HW130018   2.464   1.961  12.775
76062SOL    HW230019   2.525   1.983  12.912
76063SOL     OW30020  10.049   6.096   6.211
76063SOL    HW130021   9.990   6.170   6.225
76063SOL    HW230022  10.137   6.135   6.211
76064SOL     OW30023  12.458   5.131   5.191
76064SOL    HW130024  12.398   5.067   5.153
76064SOL    HW230025  12.434   5.136   5.283
76065SOL     OW30026  13.933   9.616  11.150
76065SOL    HW130027  13.870   9.646  11.215
76065SOL    HW230028  13.913   9.667  11.072
76066SOL     OW30029   2.076   5.601   9.018
76066SOL    HW130030   2.012   5.530   9.021
76066SOL    HW230031   2.106   5.603   8.927
76067SOL     OW30032  12.740   3.915   4.041
76067SOL    HW130033  12.688   3.993   4.019
76067SOL    HW230034  12.692   3.875   4.113
76068SOL     OW30035   8.358  11.686   6.698
76068SOL    HW130036   8.312  11.751   6.751
76068SOL    HW230037   8.312  11.604   6.715
76069SOL     OW30038   1.903  11.797   4.577
76069SOL    HW130039   1.810  11.775   4.566
76069SOL    HW230040   1.924  11.769   4.666
76070SOL     OW30041   8.572   3.764   5.667
76070SOL    HW130042   8.625   3.688   5.693
76070SOL    HW230043   8.631   3.816   5.613
76071SOL     OW30044   2.704   4.870  12.699
76071SOL    HW130045   2.774   4.931  12.676
76071SOL    HW230046   2.715   4.796  12.639
76072SOL     OW30047   0.677   0.600  14.801
76072SOL    HW130048   0.730   0.679  14.798
76072SOL    HW230049   0.669   0.572  14.710
76073SOL     OW30050   0.138   7.968   3.676
76073SOL    HW130051   0.120   8.009   3.761
76073SOL    HW230052   0.054   7.967   3.631
76074SOL     OW30053   2.193   3.841   0.003
76074SOL    HW130054   2.136   3.890  14.819
76074SOL    HW230055   2.264   3.810  14.823
76075SOL     OW30056   1.797   8.160   3.037
76075SOL    HW130057   1.810   8.248   3.003
76075SOL    HW230058   1.725   8.124   2.984
76076SOL     OW30059   2.736  12.314   0.314
76076SOL    HW130060   2.647  12.299   0.283
76076SOL    HW230061   2.780  12.230   0.304
76077SOL     OW30062   4.677  14.713   2.652
76077SOL    HW130063   4.765  14.687   2.677
76077SOL    HW230064   4.621  14.641   2.681
76078SOL     OW30065   4.823   9.257   7.012
76078SOL    HW130066   4.848   9.178   6.965
76078SOL    HW230067   4.845   9.329   6.953
76079SOL     OW30068   5.910   3.433  12.189
76079SOL    HW130069   5.870   3.346  12.182
76079SOL    HW230070   5.972   3.437  12.117
76080SOL     OW30071   1.378   8.814   7.290
76080SOL    HW130072   1.404   8.726   7.262
76080SOL    HW230073   1.283   8.811   7.292
76081SOL     OW30074   7.000   1.073   3.733
76081SOL    HW130075   6.995   1.103   3.642
76081SOL    HW230076   7.081   1.112   3.767
76082SOL     OW30077   6.195  13.841   0.709
76082SOL    HW130078   6.200  13.925   0.754
76082SOL    HW230079   6.165  13.862   0.620
76083SOL     OW30080  14.580   3.388  14.199
76083SOL    HW130081  14.540   3.326  14.260
76083SOL    HW230082  14.505   3.428  14.154
76084SOL     OW30083   9.839   4.796   5.530
76084SOL    HW130084   9.844   4.726   5.595
76084SOL    HW230085   9.907   4.858   5.557
76085SOL     OW30086   3.225   8.175   4.263
76085SOL    HW130087   3.206   8.189   4.170
76085SOL    HW230088   3.147   8.132   4.298
76086SOL     OW30089  12.392   5.448  10.162
76086SOL    HW130090  12.297   5.433  10.155
76086SOL    HW230091  12.410   5.513  10.094
76087SOL     OW30092   5.130   8.454  10.036
76087SOL    HW130093   5.104   8.545  10.019
76087SOL    HW230094   5.071   8.426  10.106
76088SOL     OW30095  12.367   9.237   4.335
76088SOL    HW130096  12.379   9.259   4.427
76088SOL    HW230097  12.456   9.223   4.302
76089SOL     OW30098   4.718  12.598   0.565
76089SOL    HW130099   4.641  12.546   0.541
76089SOL    HW230100   4.699  12.628   0.654
76090SOL     OW30101  10.603  10.080   5.227
76090SOL    HW130102  10.531  10.017   5.228
76090SOL    HW230103  10.608  10.112   5.317
76091SOL     OW30104  10.080   9.341  12.959
76091SOL    HW130105  10.027   9.411  12.921
76091SOL    HW230106  10.021   9.267  12.968
76092SOL     OW30107  14.081  14.286  11.987
76092SOL    HW130108  14.041  14.218  12.042
76092SOL    HW230109  14.017  14.299  11.916
76093SOL     OW30110   3.160   0.143  11.054
76093SOL    HW130111   3.107   0.223  11.064
76093SOL    HW230112   3.100   0.072  11.074
76094SOL     OW30113  13.282   5.531   3.583
76094SOL    HW130114  13.264   5.582   3.661
76094SOL    HW230115  13.270   5.440   3.610
76095SOL     OW30116  10.354  13.529   3.979
76095SOL    HW130117  10.440  13.499   4.008
76095SOL    HW230118  10.333  13.602   4.038
76096SOL     OW30119  12.077   2.846   2.351
76096SOL    HW130120  12.130   2.832   2.430
76096SOL    HW230121  12.137   2.829   2.278
76097SOL     OW30122  12.719  14.642   2.532
76097SOL    HW130123  12.719  14.615   2.440
76097SOL    HW230124  12.633  14.615   2.565
76098SOL     OW30125   0.318   7.805   0.154
76098SOL    HW130126   0.414   7.801   0.148
76098SOL    HW230127   0.298   7.899   0.151
76099SOL     OW30128   4.007   5.515   2.324
76099SOL    HW130129   3.947   5.584   2.296
76099SOL    HW230130   4.090   5.561   2.340
76100SOL     OW30131   4.998  11.762  14.047
76100SOL    HW130132   5.073  11.724  13.999
76100SOL    HW230133   4.924  11.706  14.023
76101SOL     OW30134  10.515  10.674  13.883
76101SOL    HW130135  10.515  10.755  13.833
76101SOL    HW230136  10.598  10.674  13.930
76102SOL     OW30137   7.191   0.399   2.325
76102SOL    HW130138   7.228   0.395   2.414
76102SOL    HW230139   7.260   0.365   2.269
76103SOL     OW30140   5.593   3.595   9.453
76103SOL    HW130141   5.505   3.577   9.421
76103SOL    HW230142   5.589   3.576   9.546
76104SOL     OW30143  11.128   4.122  14.035
76104SOL    HW130144  11.049   4.085  13.995
76104SOL    HW230145  11.126   4.091  14.126
76105SOL     OW30146   8.979   4.195   2.551
76105SOL    HW130147   8.953   4.248   2.626
76105SOL    HW230148   9.032   4.125   2.588
76106SOL     OW30149  13.014   6.808   3.383
76106SOL    HW130150  12.959   6.851   3.317
76106SOL    HW230151  12.983   6.843   3.467
76107SOL     OW30152   0.657   2.164  11.828
76107SOL    HW130153   0.581   2.156  11.886
76107SOL    HW230154   0.725   2.202  11.884
76108SOL     OW30155  11.992  12.980  12.678
76108SOL    HW130156  12.026  12.900  12.717
76108SOL    HW230157  11.923  13.008  12.738
76109SOL     OW30158   6.403  11.930  13.236
76109SOL    HW130159   6.425  11.962  13.149
76109SOL    HW230160   6.370  12.007  13.283
76110SOL     OW30161  14.685   0.798  12.391
76110SOL    HW130162  14.753   0.857  12.358
76110SOL    HW230163  14.684   0.812  12.485
76111SOL     OW30164  14.236  12.653   4.576
76111SOL    HW130165  14.305  12.614   4.523
76111SOL    HW230166  14.209  12.582   4.636
76112SOL     OW30167  11.635   6.463   7.990
76112SOL    HW130168  11.674   6.459   8.077
76112SOL    HW230169  11.544   6.490   8.006
76113SOL     OW30170   0.525  11.268   9.977
76113SOL    HW130171   0.566  11.317  10.048
76113SOL    HW230172   0.597  11.248   9.917
76114SOL     OW30173   4.050  13.429  11.191
76114SOL    HW130174   4.141  13.453  11.210
76114SOL    HW230175   4.022  13.381  11.269
76115SOL     OW30176  10.800   6.303   4.301
76115SOL    HW130177  10.880   6.283   4.252
76115SOL    HW230178  10.730   6.288   4.238
76116SOL     OW30179  14.290  13.226   3.404
76116SOL    HW130180  14.255  13.287   3.339
76116SOL    HW230181  14.241  13.145   3.390
76117SOL     OW30182  11.503  11.087   6.304
76117SOL    HW130183  11.432  11.047   6.353
76117SOL    HW230184  11.480  11.073   6.212
76118SOL     OW30185   1.735   6.341  13.931
76118SOL    HW130186   1.807   6.298  13.885
76118SOL    HW230187   1.672   6.271  13.949
76119SOL     OW30188   8.487   4.937  12.888
76119SOL    HW130189   8.537   4.936  12.806
76119SOL    HW230190   8.404   4.893  12.866
76120SOL     OW30191  12.757  11.560   9.283
76120SOL    HW130192  12.847  11.559   9.251
76120SOL    HW230193  12.760  11.510   9.365
76121SOL     OW30194   3.538  14.130   3.706
76121SOL    HW130195   3.558  14.081   3.786
76121SOL    HW230196   3.511  14.063   3.643
76122SOL     OW30197   7.496   6.035   7.852
76122SOL    HW130198   7.554   6.007   7.923
76122SOL    HW230199   7.474   6.125   7.873
76123SOL     OW30200   6.125  11.798   6.207
76123SOL    HW130201   6.101  11.711   6.238
76123SOL    HW230202   6.153  11.785   6.116
76124SOL     OW30203  12.682  13.196   4.867
76124SOL    HW130204  12.749  13.185   4.799
76124SOL    HW230205  12.711  13.139   4.938
76125SOL     OW30206  14.602   7.997   3.801
76125SOL    HW130207  14.639   7.972   3.716
76125SOL    HW230208  14.548   8.074   3.782
76126SOL     OW30209   3.670  14.162  14.458
76126SOL    HW130210   3.582  14.181  14.424
76126SOL    HW230211   3.683  14.069  14.439
76127SOL     OW30212   2.522   9.017   2.043
76127SOL    HW130213   2.488   9.103   2.066
76127SOL    HW230214   2.599   9.005   2.100
76128SOL     OW30215   7.435   6.762   8.655
76128SOL    HW130216   7.420   6.834   8.594
76128SOL    HW230217   7.529   6.744   8.649
76129SOL     OW30218   0.914   7.536   1.244
76129SOL    HW130219   0.876   7.578   1.166
76129SOL    HW230220   0.991   7.489   1.211
76130SOL     OW30221   8.783   3.154  14.126
76130SOL    HW130222   8.709   3.181  14.180
76130SOL    HW230223   8.857   3.206  14.158
76131SOL     OW30224  11.050   4.014   4.952
76131SOL    HW130225  11.081   4.034   4.864
76131SOL    HW230226  11.094   4.078   5.008
76132SOL     OW30227   6.828   2.160  13.069
76132SOL    HW130228   6.868   2.208  12.997
76132SOL    HW230229   6.737   2.191  13.072
76133SOL     OW30230   7.488  11.961   5.703
76133SOL    HW130231   7.543  11.893   5.742
76133SOL    HW230232   7.527  12.043   5.732
76134SOL     OW30233   5.456   5.427  12.792
76134SOL    HW130234   5.463   5.331  12.797
76134SOL    HW230235   5.374   5.447  12.838
76135SOL     OW30236   8.855   9.524  12.446
76135SOL    HW130237   8.797   9.468  12.394
76135SOL    HW230238   8.861   9.480  12.531
76136SOL     OW30239  14.399   4.243  14.597
76136SOL    HW130240  14.492   4.262  14.582
76136SOL    HW230241  14.381   4.276  14.685
76137SOL     OW30242  10.069   5.626   3.173
76137SOL    HW130243   9.988   5.666   3.206
76137SOL    HW230244  10.083   5.551   3.231
76138SOL     OW30245  11.481   9.413  14.736
76138SOL    HW130246  11.533   9.453  14.666
76138SOL    HW230247  11.536   9.420  14.814
76139SOL     OW30248   5.783   6.511   7.626
76139SOL    HW130249   5.747   6.596   7.602
76139SOL    HW230250   5.782   6.461   7.544
76140SOL     OW30251  13.831  14.146  14.710
76140SOL    HW130252  13.922  14.157  14.737
76140SOL    HW230253  13.788  14.107  14.786
76141SOL     OW30254   2.932  12.002   3.161
76141SOL    HW130255   2.918  12.007   3.256
76141SOL    HW230256   2.961  11.912   3.147
76142SOL     OW30257  12.280   7.481   3.607
76142SOL    HW130258  12.253   7.572   3.591
76142SOL    HW230259  12.339   7.461   3.534
76143SOL     OW30260  13.948   1.825  12.012
76143SOL    HW130261  13.871   1.802  12.064
76143SOL    HW230262  14.007   1.751  12.023
76144SOL     OW30263   2.211  12.091  13.744
76144SOL    HW130264   2.230  12.151  13.815
76144SOL    HW230265   2.225  12.004  13.781
76145SOL     OW30266   2.059   8.033   4.554
76145SOL    HW130267   1.994   7.974   4.514
76145SOL    HW230268   2.099   7.980   4.623
76146SOL     OW30269   2.428  12.174   3.143
76146SOL    HW130270   2.491  12.168   3.214
76146SOL    HW230271   2.368  12.100   3.156
76147SOL     OW30272   6.753  13.275  11.837
76147SOL    HW130273   6.788  13.254  11.923
76147SOL    HW230274   6.820  13.330  11.796
76148SOL     OW30275   8.700   1.473   0.857
76148SOL    HW130276   8.688   1.428   0.773
76148SOL    HW230277   8.745   1.409   0.912
76149SOL     OW30278  11.322   9.060  10.545
76149SOL    HW130279  11.266   9.006  10.601
76149SOL    HW230280  11.325   9.145  10.589
76150SOL     OW30281   3.948   2.282   4.846
76150SOL    HW130282   3.971   2.299   4.755
76150SOL    HW230283   3.921   2.190   4.848
76151SOL     OW30284   6.251   2.771   7.626
76151SOL    HW130285   6.287   2.835   7.565
76151SOL    HW230286   6.192   2.718   7.573
76152SOL     OW30287   8.439   6.770  13.599
76152SOL    HW130288   8.479   6.683  13.591
76152SOL    HW230289   8.513   6.831  13.598
76153SOL     OW30290   5.096   8.190  11.092
76153SOL    HW130291   5.008   8.202  11.127
76153SOL    HW230292   5.083   8.134  11.015
76154SOL     OW30293   6.167  13.974   6.922
76154SOL    HW130294   6.187  14.068   6.923
76154SOL    HW230295   6.231  13.935   6.982
76155SOL     OW30296   4.357   0.984   5.459
76155SOL    HW130297   4.358   0.951   5.548
76155SOL    HW230298   4.348   1.079   5.468
76156SOL     OW30299   0.422  14.459  12.912
76156SOL    HW130300   0.484  14.395  12.877
76156SOL    HW230301   0.470  14.541  12.915
76157SOL     OW30302  10.879  14.564   6.712
76157SOL    HW130303  10.902  14.495   6.650
76157SOL    HW230304  10.959  14.616   6.721
76158SOL     OW30305   3.054  12.412  12.597
76158SOL    HW130306   2.999  12.334  12.594
76158SOL    HW230307   3.130  12.390  12.543
76159SOL     OW30308  11.740   2.925  11.988
76159SOL    HW130309  11.769   2.897  11.901
76159SOL    HW230310  11.789   3.005  12.005
76160SOL     OW30311   1.053   3.840  10.084
76160SOL    HW130312   1.078   3.887  10.005
76160SOL    HW230313   0.959   3.852  10.090
76161SOL     OW30314  13.981  12.817  11.305
76161SOL    HW130315  13.920  12.872  11.356
76161SOL    HW230316  14.041  12.782  11.370
76162SOL     OW30317   8.729  14.327   0.985
76162SOL    HW130318   8.687  14.408   1.011
76162SOL    HW230319   8.676  14.258   1.025
76163SOL     OW30320   8.056   3.421   3.097
76163SOL    HW130321   8.146   3.425   3.066
76163SOL    HW230322   8.019   3.344   3.055
76164SOL     OW30323  13.399   5.586   6.068
76164SOL    HW130324  13.335   5.640   6.022
76164SOL    HW230325  13.447   5.540   5.999
76165SOL     OW30326   6.285   4.465  13.024
76165SOL    HW130327   6.274   4.547  13.073
76165SOL    HW230328   6.204   4.457  12.973
76166SOL     OW30329   2.845   1.239   7.996
76166SOL    HW130330   2.834   1.317   8.051
76166SOL    HW230331   2.756   1.207   7.983
76167SOL     OW30332   3.012  11.314  11.486
76167SOL    HW130333   3.044  11.323  11.397
76167SOL    HW230334   2.935  11.371  11.491
76168SOL     OW30335   1.071   9.815  12.650
76168SOL    HW130336   1.042   9.845  12.736
76168SOL    HW230337   1.053   9.721  12.650
76169SOL     OW30338   1.477  10.472  11.104
76169SOL    HW130339   1.435  10.559  11.100
76169SOL    HW230340   1.424  10.424  11.168
76170SOL     OW30341  12.536   3.358   2.940
76170SOL    HW130342  12.523   3.448   2.911
76170SOL    HW230343  12.522   3.305   2.861
76171SOL     OW30344   4.178  11.344  10.297
76171SOL    HW130345   4.168  11.390  10.213
76171SOL    HW230346   4.229  11.266  10.275
76172SOL     OW30347  10.006   1.094  11.747
76172SOL    HW130348  10.071   1.070  11.812
76172SOL    HW230349  10.057   1.124  11.672
76173SOL     OW30350   8.724   1.802   7.319
76173SOL    HW130351   8.767   1.835   7.398
76173SOL    HW230352   8.737   1.707   7.323
76174SOL     OW30353  13.735   8.698   2.272
76174SOL    HW130354  13.827   8.712   2.291
76174SOL    HW230355  13.734   8.658   2.185
76175SOL     OW30356  10.246  13.942   6.687
76175SOL    HW130357  10.305  13.994   6.742
76175SOL    HW230358  10.292  13.859   6.675
76176SOL     OW30359   6.299   1.202  11.777
76176SOL    HW130360   6.361   1.131  11.793
76176SOL    HW230361   6.281   1.237  11.864
76177SOL     OW30362  11.677   1.312  12.750
76177SOL    HW130363  11.699   1.305  12.842
76177SOL    HW230364  11.620   1.237  12.733
76178SOL     OW30365  12.432   7.894  11.916
76178SOL    HW130366  12.337   7.889  11.908
76178SOL    HW230367  12.465   7.842  11.843
76179SOL     OW30368  11.104   4.463   2.331
76179SOL    HW130369  11.147   4.465   2.245
76179SOL    HW230370  11.160   4.518   2.386
76180SOL     OW30371  10.788   2.049   9.375
76180SOL    HW130372  10.883   2.040   9.363
76180SOL    HW230373  10.776   2.058   9.470
76181SOL     OW30374   4.004  12.107   2.013
76181SOL    HW130375   4.093  12.131   2.039
76181SOL    HW230376   3.956  12.191   2.010
76182SOL     OW30377  14.016   4.876  14.718
76182SOL    HW130378  14.100   4.878  14.671
76182SOL    HW230379  14.035   4.829  14.799
76183SOL     OW30380   3.697   8.121   4.269
76183SOL    HW130381   3.611   8.092   4.299
76183SOL    HW230382   3.732   8.172   4.342
76184SOL     OW30383   1.416   9.166   3.275
76184SOL    HW130384   1.395   9.079   3.309
76184SOL    HW230385   1.331   9.209   3.266
76185SOL     OW30386   3.594  12.628   4.288
76185SOL    HW130387   3.630  12.555   4.339
76185SOL    HW230388   3.590  12.596   4.199
76186SOL     OW30389  11.718   2.260  12.196
76186SOL    HW130390  11.699   2.295  12.283
76186SOL    HW230391  11.781   2.190  12.211
76187SOL     OW30392   4.168  10.501   6.318
76187SOL    HW130393   4.076  10.517   6.296
76187SOL    HW230394   4.198  10.583   6.357
76188SOL     OW30395   0.632  11.091  10.602
76188SOL    HW130396   0.651  11.176  10.562
76188SOL    HW230397   0.717  11.051  10.616
76189SOL     OW30398   0.787   8.790   9.914
76189SOL    HW130399   0.861   8.737   9.946
76189SOL    HW230400   0.767   8.850   9.986
76190SOL     OW30401   3.054   0.935  10.431
76190SOL    HW130402   3.084   0.953  10.520
76190SOL    HW230403   2.961   0.911  10.441
76191SOL     OW30404  11.064  11.816   5.057
76191SOL    HW130405  11.073  11.871   5.135
76191SOL    HW230406  11.103  11.732   5.082
76192SOL     OW30407   6.694   7.625   4.308
76192SOL    HW130408   6.670   7.538   4.340
76192SOL    HW230409   6.732   7.669   4.384
76193SOL     OW30410   6.786   1.712  14.488
76193SOL    HW130411   6.765   1.731  14.580
76193SOL    HW230412   6.880   1.729  14.481
76194SOL     OW30413  10.499   7.328   8.450
76194SOL    HW130414  10.480   7.250   8.398
76194SOL    HW230415  10.463   7.401   8.399
76195SOL     OW30416  11.159   7.766   1.420
76195SOL    HW130417  11.221   7.800   1.485
76195SOL    HW230418  11.181   7.812   1.339
76196SOL     OW30419   8.418   8.048  14.220
76196SOL    HW130420   8.417   7.975  14.158
76196SOL    HW230421   8.503   8.041  14.264
76197SOL     OW30422   7.906  10.322  11.082
76197SOL    HW130423   7.928  10.236  11.045
76197SOL    HW230424   7.939  10.319  11.172
76198SOL     OW30425   6.139  12.900   2.669
76198SOL    HW130426   6.067  12.873   2.613
76198SOL    HW230427   6.215  12.852   2.636
76199SOL     OW30428  11.523  14.052  12.759
76199SOL    HW130429  11.617  14.068  12.750
76199SOL    HW230430  11.488  14.061  12.671
76200SOL     OW30431  14.055   9.167   0.765
76200SOL    HW130432  14.007   9.110   0.705
76200SOL    HW230433  14.075   9.245   0.714
76201SOL     OW30434  12.846   3.902   4.968
76201SOL    HW130435  12.762   3.856   4.968
76201SOL    HW230436  12.906   3.843   5.015
76202SOL     OW30437   7.919   4.983   3.498
76202SOL    HW130438   7.942   5.023   3.583
76202SOL    HW230439   7.995   4.928   3.477
76203SOL     OW30440  12.798   6.145  14.038
76203SOL    HW130441  12.718   6.196  14.034
76203SOL    HW230442  12.797   6.092  13.958
76204SOL     OW30443  12.515   8.616   3.652
76204SOL    HW130444  12.488   8.707   3.637
76204SOL    HW230445  12.449   8.564   3.606
76205SOL     OW30446   3.602   0.608  13.411
76205SOL    HW130447   3.540   0.572  13.475
76205SOL    HW230448   3.569   0.578  13.326
76206SOL     OW30449   8.495  12.426   8.821
76206SOL    HW130450   8.446  12.374   8.885
76206SOL    HW230451   8.584  12.428   8.855
76207SOL     OW30452   3.760  13.187  12.934
76207SOL    HW130453   3.755  13.150  13.022
76207SOL    HW230454   3.804  13.271  12.945
76208SOL     OW30455   2.131  11.719  12.164
76208SOL    HW130456   2.057  11.780  12.161
76208SOL    HW230457   2.092  11.635  12.189
76209SOL     OW30458   5.411   3.694  14.619
76209SOL    HW130459   5.329   3.681  14.572
76209SOL    HW230460   5.404   3.636  14.695
76210SOL     OW30461   4.053   1.728  12.736
76210SOL    HW130462   4.019   1.670  12.668
76210SOL    HW230463   4.136   1.688  12.761
76211SOL     OW30464  12.993   6.871  10.889
76211SOL    HW130465  12.998   6.947  10.830
76211SOL    HW230466  12.905   6.877  10.927
76212SOL     OW30467  11.304   2.313   1.629
76212SOL    HW130468  11.297   2.345   1.539
76212SOL    HW230469  11.263   2.227   1.628
76213SOL     OW30470   9.264   3.901   9.521
76213SOL    HW130471   9.180   3.907   9.476
76213SOL    HW230472   9.257   3.823   9.575
76214SOL     OW30473   5.854   5.425   8.360
76214SOL    HW130474   5.898   5.501   8.322
76214SOL    HW230475   5.762   5.436   8.338
76215SOL     OW30476  10.677   5.896   5.701
76215SOL    HW130477  10.650   5.825   5.642
76215SOL    HW230478  10.651   5.976   5.656
76216SOL     OW30479  13.372   4.290   9.315
76216SOL    HW130480  13.324   4.369   9.289
76216SOL    HW230481  13.326   4.258   9.393
76217SOL     OW30482   8.589   4.003  10.574
76217SOL    HW130483   8.539   4.066  10.627
76217SOL    HW230484   8.568   4.027  10.483
76218SOL     OW30485   4.411   6.326   6.949
76218SOL    HW130486   4.336   6.330   6.889
76218SOL    HW230487   4.395   6.248   7.002
76219SOL     OW30488   7.682   7.952  12.775
76219SOL    HW130489   7.665   7.859  12.762
76219SOL    HW230490   7.606   7.983  12.825
76220SOL     OW30491  13.992   3.431  13.493
76220SOL    HW130492  13.951   3.514  13.515
76220SOL    HW230493  14.074   3.431  13.542
76221SOL     OW30494  14.332   0.747   1.512
76221SOL    HW130495  14.309   0.802   1.438
76221SOL    HW230496  14.248   0.714   1.545
76222SOL     OW30497   2.431   3.103   0.611
76222SOL    HW130498   2.525   3.091   0.627
76222SOL    HW230499   2.415   3.058   0.528
76223SOL     OW30500   2.452  13.734   3.182
76223SOL    HW130501   2.481  13.644   3.199
76223SOL    HW230502   2.502  13.761   3.104
76224SOL     OW30503   3.109   6.678   7.369
76224SOL    HW130504   3.077   6.768   7.369
76224SOL    HW230505   3.093   6.647   7.458
76225SOL     OW30506   1.767   1.030   8.594
76225SOL    HW130507   1.790   1.048   8.685
76225SOL    HW230508   1.847   1.046   8.545
76226SOL     OW30509  11.758   2.047  13.535
76226SOL    HW130510  11.827   2.106  13.566
76226SOL    HW230511  11.683   2.069  13.590
76227SOL     OW30512   9.839   2.509  14.204
76227SOL    HW130513   9.779   2.461  14.148
76227SOL    HW230514   9.907   2.446  14.226
76228SOL     OW30515  13.193   2.697   5.233
76228SOL    HW130516  13.104   2.683   5.267
76228SOL    HW230517  13.246   2.713   5.311
76229SOL     OW30518   4.757  12.813   3.892
76229SOL    HW130519   4.761  12.895   3.941
76229SOL    HW230520   4.845  12.801   3.858
76230SOL     OW30521   2.188   6.868  11.797
76230SOL    HW130522   2.282   6.884  11.787
76230SOL    HW230523   2.178   6.775  11.776
76231SOL     OW30524   2.176   1.232   7.957
76231SOL    HW130525   2.149   1.212   7.867
76231SOL    HW230526   2.248   1.294   7.947
76232SOL     OW30527   8.167   7.912   7.491
76232SOL    HW130528   8.190   7.956   7.409
76232SOL    HW230529   8.076   7.937   7.506
76233SOL     OW30530   4.996  13.091  10.017
76233SOL    HW130531   5.071  13.077  10.074
76233SOL    HW230532   5.011  13.177   9.978
76234SOL     OW30533   5.006  12.549   5.883
76234SOL    HW130534   5.076  12.613   5.875
76234SOL    HW230535   5.049  12.470   5.916
76235SOL     OW30536   7.953   8.440  13.326
76235SOL    HW130537   7.906   8.486  13.256
76235SOL    HW230538   7.967   8.506  13.393
76236SOL     OW30539   7.687   4.049  14.136
76236SOL    HW130540   7.614   3.989  14.152
76236SOL    HW230541   7.660   4.131  14.176
76237SOL     OW30542  14.438   6.826  10.052
76237SOL    HW130543  14.451   6.825  10.147
76237SOL    HW230544  14.457   6.916  10.026
76238SOL     OW30545  10.855   6.549  11.692
76238SOL    HW130546  10.776   6.496  11.681
76238SOL    HW230547  10.920   6.508  11.636
76239SOL     OW30548   4.115   6.874  14.870
76239SOL    HW130549   4.139   6.887  14.778
76239SOL    HW230550   4.082   6.959   0.022
76240SOL     OW30551  13.819  10.476  12.655
76240SOL    HW130552  13.829  10.382  12.668
76240SOL    HW230553  13.745  10.484  12.595
76241SOL     OW30554  11.095   7.175  12.339
76241SOL    HW130555  11.067   7.265  12.326
76241SOL    HW230556  11.029   7.137  12.397
76242SOL     OW30557   8.737  10.273  11.214
76242SOL    HW130558   8.708  10.185  11.238
76242SOL    HW230559   8.733  10.322  11.295
76243SOL     OW30560   7.981   7.544  14.526
76243SOL    HW130561   7.914   7.510  14.586
76243SOL    HW230562   7.975   7.489  14.449
76244SOL     OW30563  10.154   9.468  13.353
76244SOL    HW130564  10.161   9.395  13.415
76244SOL    HW230565  10.214   9.534  13.387
76245SOL     OW30566   2.319   7.842   1.635
76245SOL    HW130567   2.311   7.928   1.593
76245SOL    HW230568   2.412   7.821   1.628
76246SOL     OW30569   0.003  13.998   2.578
76246SOL    HW130570   0.040  13.910   2.573
76246SOL    HW230571  14.823  14.005   2.501
76247SOL     OW30572   1.175   5.743   6.528
76247SOL    HW130573   1.101   5.687   6.553
76247SOL    HW230574   1.250   5.684   6.525
76248SOL     OW30575   1.098   0.397   4.873
76248SOL    HW130576   1.079   0.333   4.804
76248SOL    HW230577   1.038   0.375   4.944
76249SOL     OW30578   3.816   2.196  10.481
76249SOL    HW130579   3.827   2.272  10.424
76249SOL    HW230580   3.796   2.233  10.567
76250SOL     OW30581   3.964   1.308   9.979
76250SOL    HW130582   3.989   1.400   9.990
76250SOL    HW230583   3.906   1.290  10.052
76251SOL     OW30584   2.908  11.869   2.828
76251SOL    HW130585   2.865  11.795   2.786
76251SOL    HW230586   2.836  11.920   2.866
76252SOL     OW30587   8.615  12.648   0.588
76252SOL    HW130588   8.523  12.626   0.607
76252SOL    HW230589   8.631  12.728   0.636
76253SOL     OW30590   0.412   0.582   6.541
76253SOL    HW130591   0.477   0.529   6.588
76253SOL    HW230592   0.375   0.522   6.476
76254SOL     OW30593   6.409  14.274  14.692
76254SOL    HW130594   6.421  14.346  14.754
76254SOL    HW230595   6.347  14.307  14.628
76255SOL     OW30596  14.366   7.980   0.496
76255SOL    HW130597  14.365   8.000   0.590
76255SOL    HW230598  14.286   8.019   0.462
76256SOL     OW30599  13.415   8.338   3.144
76256SOL    HW130600  13.497   8.289   3.149
76256SOL    HW230601  13.357   8.283   3.091
76257SOL     OW30602  13.450   0.987   4.879
76257SOL    HW130603  13.490   0.984   4.967
76257SOL    HW230604  13.380   0.922   4.883
76258SOL     OW30605   8.040  14.793   1.346
76258SOL    HW130606   8.097  14.815   1.420
76258SOL    HW230607   8.099  14.795   1.270
76259SOL     OW30608   3.851  13.390   6.843
76259SOL    HW130609   3.885  13.478   6.856
76259SOL    HW230610   3.914  13.333   6.888
76260SOL     OW30611   8.333  13.635   3.754
76260SOL    HW130612   8.304  13.575   3.823
76260SOL    HW230613   8.287  13.605   3.676
76261SOL     OW30614   8.214   7.055  10.638
76261SOL    HW130615   8.255   7.039  10.723
76261SOL    HW230616   8.141   7.113  10.657
76262SOL     OW30617   3.136  12.156   0.256
76262SOL    HW130618   3.082  12.181   0.181
76262SOL    HW230619   3.225  12.153   0.222
76263SOL     OW30620   6.938   9.400   7.209
76263SOL    HW130621   6.950   9.311   7.243
76263SOL    HW230622   6.886   9.388   7.130
76264SOL     OW30623   0.597   0.698  14.361
76264SOL    HW130624   0.624   0.675  14.272
76264SOL    HW230625   0.534   0.769  14.349
76265SOL     OW30626   5.595   8.863   4.411
76265SOL    HW130627   5.575   8.952   4.439
76265SOL    HW230628   5.635   8.822   4.487
76266SOL     OW30629  10.207   7.904   4.764
76266SOL    HW130630  10.298   7.899   4.734
76266SOL    HW230631  10.170   7.975   4.712
76267SOL     OW30632   3.246   8.266   0.456
76267SOL    HW130633   3.239   8.345   0.510
76267SOL    HW230634   3.243   8.194   0.518
76268SOL     OW30635   7.794   5.515  11.053
76268SOL    HW130636   7.811   5.532  11.145
76268SOL    HW230637   7.789   5.602  11.013
76269SOL     OW30638  13.343   9.725   8.839
76269SOL    HW130639  13.348   9.743   8.745
76269SOL    HW230640  13.376   9.635   8.847
76270SOL     OW30641   2.195  11.376   4.400
76270SOL    HW130642   2.114  11.375   4.452
76270SOL    HW230643   2.241  11.295   4.426
76271SOL     OW30644  12.821  11.489  12.696
76271SOL    HW130645  12.800  11.402  12.728
76271SOL    HW230646  12.900  11.515  12.745
76272SOL     OW30647   6.487   3.891   4.810
76272SOL    HW130648   6.521   3.974   4.844
76272SOL    HW230649   6.392   3.902   4.810
76273SOL     OW30650   0.801  11.234  11.614
76273SOL    HW130651   0.777  11.300  11.679
76273SOL    HW230652   0.722  11.222  11.563
76274SOL     OW30653  11.460   1.595   4.581
76274SOL    HW130654  11.546   1.619   4.614
76274SOL    HW230655  11.467   1.602   4.486
76275SOL     OW30656   9.246  12.434   1.937
76275SOL    HW130657   9.160  12.444   1.977
76275SOL    HW230658   9.241  12.351   1.889
76276SOL     OW30659   9.231   4.285  14.313
76276SOL    HW130660   9.172   4.210  14.316
76276SOL    HW230661   9.306   4.254  14.263
76277SOL     OW30662   1.171   6.525   5.177
76277SOL    HW130663   1.097   6.553   5.230
76277SOL    HW230664   1.232   6.599   5.179
76278SOL     OW30665   6.042   6.407  14.036
76278SOL    HW130666   6.043   6.457  14.117
76278SOL    HW230667   5.987   6.459  13.977
76279SOL     OW30668   6.316   2.211   2.356
76279SOL    HW130669   6.316   2.204   2.451
76279SOL    HW230670   6.299   2.122   2.325
76280SOL     OW30671   0.517   2.477   6.142
76280SOL    HW130672   0.553   2.566   6.137
76280SOL    HW230673   0.455   2.481   6.215
76281SOL     OW30674   3.370   8.731   9.627
76281SOL    HW130675   3.308   8.670   9.666
76281SOL    HW230676   3.455   8.708   9.665
76282SOL     OW30677  11.588   8.181   2.291
76282SOL    HW130678  11.627   8.094   2.283
76282SOL    HW230679  11.519   8.182   2.225
76283SOL     OW30680   2.377   8.317  14.714
76283SOL    HW130681   2.449   8.298  14.774
76283SOL    HW230682   2.306   8.346  14.771
76284SOL     OW30683   8.594   0.759   0.317
76284SOL    HW130684   8.537   0.816   0.368
76284SOL    HW230685   8.677   0.807   0.309
76285SOL     OW30686   7.004  13.850   5.009
76285SOL    HW130687   7.025  13.764   4.973
76285SOL    HW230688   6.989  13.833   5.103
76286SOL     OW30689   3.933   1.408   6.673
76286SOL    HW130690   3.894   1.471   6.733
76286SOL    HW230691   3.870   1.336   6.670
76287SOL     OW30692   2.158  12.993   1.765
76287SOL    HW130693   2.142  13.032   1.852
76287SOL    HW230694   2.246  12.958   1.771
76288SOL     OW30695   3.135   3.926  14.611
76288SOL    HW130696   3.197   3.987  14.651
76288SOL    HW230697   3.099   3.975  14.536
76289SOL     OW30698  13.978   2.604  14.379
76289SOL    HW130699  14.061   2.623  14.421
76289SOL    HW230700  13.977   2.508  14.371
76290SOL     OW30701  13.877   9.856   2.615
76290SOL    HW130702  13.934   9.931   2.632
76290SOL    HW230703  13.844   9.831   2.702
76291SOL     OW30704  14.104   1.921   1.471
76291SOL    HW130705  14.174   1.977   1.439
76291SOL    HW230706  14.116   1.920   1.566
76292SOL     OW30707   9.895   9.860  14.347
76292SOL    HW130708   9.805   9.891  14.332
76292SOL    HW230709   9.950   9.929  14.310
76293SOL     OW30710   5.552   0.356   3.817
76293SOL    HW130711   5.600   0.399   3.746
76293SOL    HW230712   5.568   0.411   3.894
76294SOL     OW30713   8.165   1.820  12.354
76294SOL    HW130714   8.189   1.910  12.376
76294SOL    HW230715   8.235   1.791  12.295
76295SOL     OW30716   7.040  13.765  11.678
76295SOL    HW130717   7.029  13.672  11.695
76295SOL    HW230718   7.039  13.806  11.765
76296SOL     OW30719   7.036  10.193  11.219
76296SOL    HW130720   7.070  10.187  11.308
76296SOL    HW230721   6.978  10.270  11.221
76297SOL     OW30722  11.486   7.681   8.832
76297SOL    HW130723  11.511   7.623   8.903
76297SOL    HW230724  11.437   7.625   8.771
76298SOL     OW30725   9.183  12.021   4.795
76298SOL    HW130726   9.246  12.050   4.729
76298SOL    HW230727   9.234  12.010   4.875
76299SOL     OW30728  14.354  10.709  10.976
76299SOL    HW130729  14.428  10.770  10.977
76299SOL    HW230730  14.378  10.640  11.039
76300SOL     OW30731   9.725  12.091   7.462
76300SOL    HW130732   9.702  12.110   7.371
76300SOL    HW230733   9.646  12.112   7.511
76301SOL     OW30734  14.237   4.804   9.755
76301SOL    HW130735  14.304   4.859   9.794
76301SOL    HW230736  14.157   4.858   9.759
76302SOL     OW30737   8.203   6.396  13.243
76302SOL    HW130738   8.190   6.479  13.197
76302SOL    HW230739   8.244   6.420  13.326
76303SOL     OW30740   0.559   3.330   2.793
76303SOL    HW130741   0.526   3.364   2.710
76303SOL    HW230742   0.540   3.399   2.857
76304SOL     OW30743   9.632   0.788   6.310
76304SOL    HW130744   9.537   0.793   6.324
76304SOL    HW230745   9.647   0.835   6.228
76305SOL     OW30746   3.476   6.245  10.332
76305SOL    HW130747   3.502   6.334  10.307
76305SOL    HW230748   3.506   6.236  10.422
76306SOL     OW30749  12.783   7.941   9.254
76306SOL    HW130750  12.739   8.002   9.195
76306SOL    HW230751  12.753   7.855   9.226
76307SOL     OW30752  11.749  10.416   5.071
76307SOL    HW130753  11.671  10.424   5.017
76307SOL    HW230754  11.717  10.393   5.158
76308SOL     OW30755  11.283  11.250  14.845
76308SOL    HW130756  11.337  11.324  14.873
76308SOL    HW230757  11.330  11.172  14.875
76309SOL     OW30758  12.471   4.522   2.726
76309SOL    HW130759  12.507   4.480   2.804
76309SOL    HW230760  12.546   4.538   2.670
76310SOL     OW30761   1.145   0.323   5.221
76310SOL    HW130762   1.177   0.401   5.176
76310SOL    HW230763   1.212   0.305   5.287
76311SOL     OW30764   6.997  11.652   9.903
76311SOL    HW130765   7.000  11.647   9.808
76311SOL    HW230766   6.980  11.562   9.932
76312SOL     OW30767  14.231   8.706  14.278
76312SOL    HW130768  14.251   8.613  14.278
76312SOL    HW230769  14.188   8.722  14.194
76313SOL     OW30770   7.817  14.356  11.776
76313SOL    HW130771   7.738  14.366  11.829
76313SOL    HW230772   7.883  14.325  11.838
76314SOL     OW30773   9.152   1.835   0.614
76314SOL    HW130774   9.247   1.844   0.603
76314SOL    HW230775   9.141   1.753   0.662
76315SOL     OW30776  11.833   1.553   5.775
76315SOL    HW130777  11.844   1.573   5.682
76315SOL    HW230778  11.780   1.473   5.777
76316SOL     OW30779   2.089   0.873   3.637
76316SOL    HW130780   2.123   0.823   3.564
76316SOL    HW230781   2.151   0.946   3.648
76317SOL     OW30782   9.462   1.482   5.082
76317SOL    HW130783   9.523   1.408   5.089
76317SOL    HW230784   9.381   1.451   5.123
76318SOL     OW30785  10.089   8.360   8.943
76318SOL    HW130786  10.116   8.297   9.009
76318SOL    HW230787  10.064   8.438   8.993
76319SOL     OW30788  10.510   8.051   9.230
76319SOL    HW130789  10.423   8.066   9.265
76319SOL    HW230790  10.555   8.135   9.238
76320SOL     OW30791  12.133   4.296   0.842
76320SOL    HW130792  12.154   4.375   0.793
76320SOL    HW230793  12.046   4.313   0.878
76321SOL     OW30794  11.569   4.759   9.156
76321SOL    HW130795  11.510   4.770   9.081
76321SOL    HW230796  11.511   4.747   9.231
76322SOL     OW30797   0.119   7.977   3.204
76322SOL    HW130798   0.059   7.903   3.216
76322SOL    HW230799   0.203   7.936   3.184
76323SOL     OW30800  12.131   2.660   3.806
76323SOL    HW130801  12.041   2.627   3.812
76323SOL    HW230802  12.186   2.584   3.825
76324SOL     OW30803  13.542  11.664   8.126
76324SOL    HW130804  13.485  11.619   8.064
76324SOL    HW230805  13.595  11.595   8.165
76325SOL     OW30806   9.528   1.828  10.313
76325SOL    HW130807   9.611   1.789  10.341
76325SOL    HW230808   9.468   1.754  10.303
76326SOL     OW30809   9.305   6.474   6.369
76326SOL    HW130810   9.339   6.385   6.366
76326SOL    HW230811   9.237   6.475   6.301
76327SOL     OW30812   1.037   8.075   6.992
76327SOL    HW130813   1.104   8.021   6.950
76327SOL    HW230814   1.075   8.163   6.994
76328SOL     OW30815   1.366  11.905   7.173
76328SOL    HW130816   1.350  11.906   7.267
76328SOL    HW230817   1.459  11.884   7.164
76329SOL     OW30818  14.738   0.940   4.412
76329SOL    HW130819  14.739   0.982   4.498
76329SOL    HW230820  14.708   0.851   4.429
76330SOL     OW30821   2.738   6.525   3.095
76330SOL    HW130822   2.703   6.457   3.151
76330SOL    HW230823   2.673   6.534   3.025
76331SOL     OW30824  13.575   8.547  14.826
76331SOL    HW130825  13.617   8.503   0.024
76331SOL    HW230826  13.481   8.536  14.842
76332SOL     OW30827  11.384   8.381  10.081
76332SOL    HW130828  11.412   8.418   9.998
76332SOL    HW230829  11.336   8.452  10.123
76333SOL     OW30830  11.235   9.178   2.317
76333SOL    HW130831  11.277   9.138   2.241
76333SOL    HW230832  11.168   9.115   2.344
76334SOL     OW30833   9.901  14.396  13.563
76334SOL    HW130834   9.994  14.421  13.564
76334SOL    HW230835   9.896  14.326  13.498
76335SOL     OW30836   2.172   7.342  10.266
76335SOL    HW130837   2.262   7.317  10.245
76335SOL    HW230838   2.181   7.415  10.327
76336SOL     OW30839   7.451  12.316  10.156
76336SOL    HW130840   7.436  12.285  10.066
76336SOL    HW230841   7.546  12.315  10.166
76337SOL     OW30842   8.769  14.103   4.900
76337SOL    HW130843   8.711  14.026   4.899
76337SOL    HW230844   8.848  14.072   4.944
76338SOL     OW30845  14.509  11.922   0.755
76338SOL    HW130846  14.556  11.843   0.781
76338SOL    HW230847  14.445  11.892   0.691
76339SOL     OW30848  14.824   1.358   8.080
76339SOL    HW130849  14.829   1.354   8.176
76339SOL    HW230850   0.012   1.425   8.056
76340SOL     OW30851   1.326  10.437   6.167
76340SOL    HW130852   1.336  10.342   6.156
76340SOL    HW230853   1.231  10.451   6.161
76341SOL     OW30854   3.284   3.220   6.900
76341SOL    HW130855   3.255   3.277   6.830
76341SOL    HW230856   3.357   3.266   6.941
76342SOL     OW30857  10.408  14.006   4.402
76342SOL    HW130858  10.457  14.048   4.473
76342SOL    HW230859  10.407  14.070   4.332
76343SOL     OW30860  10.245   1.718  11.906
76343SOL    HW130861  10.332   1.693  11.873
76343SOL    HW230862  10.187   1.648  11.876
76344SOL     OW30863   1.740   8.686  14.831
76344SOL    HW130864   1.801   8.686  14.757
76344SOL    HW230865   1.689   8.606  14.820
76345SOL     OW30866   1.223   6.857   2.699
76345SOL    HW130867   1.284   6.876   2.628
76345SOL    HW230868   1.226   6.762   2.709
76346SOL     OW30869   8.648   8.598   2.120
76346SOL    HW130870   8.662   8.624   2.028
76346SOL    HW230871   8.702   8.520   2.130
76347SOL     OW30872   4.702   7.081  10.206
76347SOL    HW130873   4.641   7.050  10.139
76347SOL    HW230874   4.773   7.124  10.157
76348SOL     OW30875  12.010   8.753   9.215
76348SOL    HW130876  11.918   8.764   9.241
76348SOL    HW230877  12.022   8.816   9.144
76349SOL     OW30878   0.361   5.813   9.094
76349SOL    HW130879   0.326   5.786   9.009
76349SOL    HW230880   0.287   5.854   9.138
76350SOL     OW30881   8.913   4.612  13.287
76350SOL    HW130882   8.983   4.631  13.349
76350SOL    HW230883   8.845   4.569  13.339
76351SOL     OW30884   4.196   1.190  14.721
76351SOL    HW130885   4.233   1.122  14.777
76351SOL    HW230886   4.264   1.257  14.716
76352SOL     OW30887   3.186   4.325   2.733
76352SOL    HW130888   3.241   4.269   2.678
76352SOL    HW230889   3.144   4.264   2.794
76353SOL     OW30890  11.505   4.499  12.583
76353SOL    HW130891  11.558   4.501  12.504
76353SOL    HW230892  11.502   4.406  12.607
76354SOL     OW30893   9.648  14.807   4.617
76354SOL    HW130894   9.642  14.766   4.703
76354SOL    HW230895   9.595   0.011   4.625
76355SOL     OW30896   7.307  11.737  13.853
76355SOL    HW130897   7.376  11.784  13.898
76355SOL    HW230898   7.341  11.722  13.765
76356SOL     OW30899  12.490   8.601  10.453
76356SOL    HW130900  12.569   8.646  10.484
76356SOL    HW230901  12.466   8.648  10.373
76357SOL     OW30902  13.176   1.006   0.240
76357SOL    HW130903  13.187   0.912   0.254
76357SOL    HW230904  13.085   1.017   0.214
76358SOL     OW30905   8.415  10.916  12.840
76358SOL    HW130906   8.345  10.882  12.785
76358SOL    HW230907   8.373  10.985  12.891
76359SOL     OW30908   6.737   6.595   8.258
76359SOL    HW130909   6.761   6.627   8.171
76359SOL    HW230910   6.747   6.500   8.252
76360SOL     OW30911   6.497   6.804   1.806
76360SOL    HW130912   6.454   6.867   1.863
76360SOL    HW230913   6.451   6.722   1.823
76361SOL     OW30914  14.101  12.062   1.428
76361SOL    HW130915  14.167  12.055   1.359
76361SOL    HW230916  14.079  12.155   1.431
76362SOL     OW30917   5.660  11.115  12.820
76362SOL    HW130918   5.574  11.151  12.837
76362SOL    HW230919   5.719  11.162  12.879
76363SOL     OW30920  12.025  12.351   2.340
76363SOL    HW130921  11.944  12.391   2.371
76363SOL    HW230922  12.091  12.377   2.403
76364SOL     OW30923  10.367   4.802   8.643
76364SOL    HW130924  10.298   4.853   8.685
76364SOL    HW230925  10.446   4.855   8.653
76365SOL     OW30926   2.672  14.423  14.149
76365SOL    HW130927   2.589  14.378  14.134
76365SOL    HW230928   2.716  14.421  14.064
76366SOL     OW30929   6.098   2.966   5.670
76366SOL    HW130930   6.006   2.962   5.646
76366SOL    HW230931   6.141   3.011   5.596
76367SOL     OW30932   9.899  13.811   4.360
76367SOL    HW130933   9.886  13.807   4.265
76367SOL    HW230934   9.992  13.831   4.370
76368SOL     OW30935  13.558   7.616  13.829
76368SOL    HW130936  13.593   7.539  13.786
76368SOL    HW230937  13.473   7.631  13.787
76369SOL     OW30938   7.123   5.235  10.904
76369SOL    HW130939   7.165   5.226  10.818
76369SOL    HW230940   7.095   5.146  10.926
76370SOL     OW30941   7.928   5.941   5.017
76370SOL    HW130942   7.991   5.996   5.064
76370SOL    HW230943   7.900   5.995   4.944
76371SOL     OW30944   8.610   5.997  13.698
76371SOL    HW130945   8.567   5.927  13.747
76371SOL    HW230946   8.699   5.998  13.732
76372SOL     OW30947   2.618   4.428   0.155
76372SOL    HW130948   2.556   4.475   0.100
76372SOL    HW230949   2.610   4.468   0.241
76373SOL     OW30950   0.136  10.001   9.726
76373SOL    HW130951   0.076   9.980   9.654
76373SOL    HW230952   0.140  10.096   9.726
76374SOL     OW30953   9.293  13.662   7.773
76374SOL    HW130954   9.256  13.703   7.695
76374SOL    HW230955   9.235  13.689   7.844
76375SOL     OW30956   7.435   4.769  13.221
76375SOL    HW130957   7.525   4.792  13.198
76375SOL    HW230958   7.393   4.751  13.137
76376SOL     OW30959   2.974   1.676   2.564
76376SOL    HW130960   2.903   1.721   2.519
76376SOL    HW230961   2.996   1.602   2.507
76377SOL     OW30962   3.892  11.096   3.475
76377SOL    HW130963   3.934  11.181   3.486
76377SOL    HW230964   3.851  11.078   3.559
76378SOL     OW30965   9.602   2.400  12.979
76378SOL    HW130966   9.618   2.444  13.062
76378SOL    HW230967   9.579   2.471  12.918
76379SOL     OW30968  10.403   7.639  13.402
76379SOL    HW130969  10.360   7.648  13.487
76379SOL    HW230970  10.344   7.680  13.340
76380SOL     OW30971  13.348   3.476   2.903
76380SOL    HW130972  13.392   3.461   2.820
76380SOL    HW230973  13.255   3.482   2.879
76381SOL     OW30974   4.833  13.811   8.321
76381SOL    HW130975   4.898  13.881   8.317
76381SOL    HW230976   4.816  13.800   8.414
76382SOL     OW30977  14.564  13.860  12.316
76382SOL    HW130978  14.633  13.846  12.251
76382SOL    HW230979  14.514  13.779  12.316
76383SOL     OW30980   0.230   1.670   7.263
76383SOL    HW130981   0.325   1.663   7.272
76383SOL    HW230982   0.202   1.583   7.236
76384SOL     OW30983   4.999   8.532   5.342
76384SOL    HW130984   4.906   8.511   5.344
76384SOL    HW230985   5.028   8.524   5.433
76385SOL     OW30986   7.517   1.710   5.861
76385SOL    HW130987   7.568   1.786   5.887
76385SOL    HW230988   7.464   1.740   5.787
76386SOL     OW30989   9.064   7.386   6.306
76386SOL    HW130990   9.049   7.294   6.325
76386SOL    HW230991   9.134   7.412   6.367
76387SOL     OW30992  10.804   6.250   7.679
76387SOL    HW130993  10.893   6.269   7.708
76387SOL    HW230994  10.795   6.295   7.595
76388SOL     OW30995   5.716   3.321  10.834
76388SOL    HW130996   5.652   3.263  10.792
76388SOL    HW230997   5.664   3.391  10.872
76389SOL     OW30998  14.691   6.309   1.271
76389SOL    HW130999  14.698   6.404   1.265
76389SOL    HW231000  14.604   6.288   1.237
76390SOL     OW31001   0.689   6.963  11.331
76390SOL    HW131002   0.762   7.022  11.350
76390SOL    HW231003   0.652   6.941  11.416
76391SOL     OW31004   9.942  13.514   3.221
76391SOL    HW131005   9.889  13.559   3.155
76391SOL    HW231006   9.902  13.427   3.228
76392SOL     OW31007   0.545  14.370   0.617
76392SOL    HW131008   0.529  14.461   0.592
76392SOL    HW231009   0.467  14.323   0.587
76393SOL     OW31010  12.531  14.148   7.889
76393SOL    HW131011  12.499  14.083   7.826
76393SOL    HW231012  12.452  14.177   7.934
76394SOL     OW31013   4.365   7.024   0.136
76394SOL    HW131014   4.365   7.042   0.041
76394SOL    HW231015   4.345   6.930   0.142
76395SOL     OW31016   1.144  10.926   0.085
76395SOL    HW131017   1.185  10.860   0.141
76395SOL    HW231018   1.143  10.886  14.873
76396SOL     OW31019   9.272   8.553   2.396
76396SOL    HW131020   9.275   8.565   2.491
76396SOL    HW231021   9.197   8.607   2.368
76397SOL     OW31022   9.276  13.196   1.984
76397SOL    HW131023   9.191  13.223   2.020
76397SOL    HW231024   9.338  13.213   2.055
76398SOL     OW31025  11.160   1.246   2.667
76398SOL    HW131026  11.228   1.193   2.624
76398SOL    HW231027  11.172   1.229   2.760
76399SOL     OW31028  10.003   3.880   4.741
76399SOL    HW131029   9.962   3.963   4.766
76399SOL    HW231030   9.934   3.833   4.694
76400SOL     OW31031   7.892  12.824   0.005
76400SOL    HW131032   7.987  12.833   0.008
76400SOL    HW231033   7.869  12.834  14.789
76401SOL     OW31034  11.587   8.102  13.068
76401SOL    HW131035  11.605   8.121  13.160
76401SOL    HW231036  11.492   8.092  13.064
76402SOL     OW31037   7.823   9.902   6.980
76402SOL    HW131038   7.780   9.840   7.039
76402SOL    HW231039   7.866   9.965   7.038
76403SOL     OW31040  13.295  11.757   4.232
76403SOL    HW131041  13.235  11.735   4.303
76403SOL    HW231042  13.260  11.840   4.197
76404SOL     OW31043   3.039  13.248  11.499
76404SOL    HW131044   3.024  13.299  11.578
76404SOL    HW231045   3.118  13.198  11.516
76405SOL     OW31046  13.365  11.465   1.975
76405SOL    HW131047  13.437  11.404   1.990
76405SOL    HW231048  13.356  11.469   1.880
76406SOL     OW31049   0.307   8.497   5.401
76406SOL    HW131050   0.370   8.431   5.429
76406SOL    HW231051   0.323   8.572   5.459
76407SOL     OW31052   5.732  12.170   0.359
76407SOL    HW131053   5.657  12.227   0.341
76407SOL    HW231054   5.788  12.222   0.416
76408SOL     OW31055   5.986   7.132  10.580
76408SOL    HW131056   6.009   7.124  10.672
76408SOL    HW231057   6.003   7.224  10.559
76409SOL     OW31058   2.496   5.925   1.888
76409SOL    HW131059   2.409   5.885   1.887
76409SOL    HW231060   2.557   5.851   1.891
76410SOL     OW31061   5.767  11.219  11.067
76410SOL    HW131062   5.683  11.204  11.024
76410SOL    HW231063   5.764  11.165  11.146
76411SOL     OW31064   4.357  12.736  11.700
76411SOL    HW131065   4.331  12.681  11.626
76411SOL    HW231066   4.362  12.676  11.774
76412SOL     OW31067   8.311  14.360   7.442
76412SOL    HW131068   8.277  14.449   7.432
76412SOL    HW231069   8.366  14.365   7.521
76413SOL     OW31070   4.280  14.850  13.330
76413SOL    HW131071   4.234   0.042  13.380
76413SOL    HW231072   4.358  14.832  13.382
76414SOL     OW31073   8.959   2.161  11.007
76414SOL    HW131074   9.023   2.092  11.025
76414SOL    HW231075   8.878   2.115  10.986
76415SOL     OW31076   2.579   7.164   3.207
76415SOL    HW131077   2.601   7.234   3.268
76415SOL    HW231078   2.491   7.185   3.177
76416SOL     OW31079   9.196   8.952   0.995
76416SOL    HW131080   9.133   8.903   0.942
76416SOL    HW231081   9.245   8.885   1.042
76417SOL     OW31082   2.404   0.250   8.646
76417SOL    HW131083   2.412   0.197   8.725
76417SOL    HW231084   2.321   0.296   8.656
76418SOL     OW31085  12.431   1.694   3.277
76418SOL    HW131086  12.422   1.746   3.197
76418SOL    HW231087  12.421   1.603   3.247
76419SOL     OW31088  13.450   7.381   1.350
76419SOL    HW131089  13.472   7.292   1.375
76419SOL    HW231090  13.383   7.371   1.282
76420SOL     OW31091   8.618   8.532  10.003
76420SOL    HW131092   8.640   8.622   9.980
76420SOL    HW231093   8.557   8.540  10.077
76421SOL     OW31094   0.497  14.255  12.439
76421SOL    HW131095   0.416  14.278  12.394
76421SOL    HW231096   0.469  14.216  12.522
76422SOL     OW31097  10.196  13.977   4.678
76422SOL    HW131098  10.229  13.896   4.639
76422SOL    HW231099  10.132  13.949   4.743
76423SOL     OW31100   8.550   3.649   6.845
76423SOL    HW131101   8.521   3.734   6.812
76423SOL    HW231102   8.645   3.653   6.843
76424SOL     OW31103   9.279   7.247   1.361
76424SOL    HW131104   9.239   7.233   1.275
76424SOL    HW231105   9.224   7.197   1.422
76425SOL     OW31106   4.880   1.898   6.240
76425SOL    HW131107   4.853   1.867   6.154
76425SOL    HW231108   4.853   1.829   6.300
76426SOL     OW31109   7.202   1.019  12.267
76426SOL    HW131110   7.247   1.075  12.330
76426SOL    HW231111   7.184   0.938  12.316
76427SOL     OW31112   4.223   1.106   4.739
76427SOL    HW131113   4.221   1.157   4.658
76427SOL    HW231114   4.136   1.120   4.778
76428SOL     OW31115  11.549   4.741   8.223
76428SOL    HW131116  11.543   4.648   8.200
76428SOL    HW231117  11.586   4.783   8.145
76429SOL     OW31118   1.205   3.613  10.072
76429SOL    HW131119   1.161   3.696  10.090
76429SOL    HW231120   1.216   3.613   9.977
76430SOL     OW31121   5.386   1.199  12.483
76430SOL    HW131122   5.305   1.202  12.533
76430SOL    HW231123   5.370   1.135  12.414
76431SOL     OW31124  14.137   1.967   8.255
76431SOL    HW131125  14.163   2.027   8.325
76431SOL    HW231126  14.220   1.936   8.218
76432SOL     OW31127   8.788  13.932   5.751
76432SOL    HW131128   8.739  13.990   5.809
76432SOL    HW231129   8.849  13.989   5.705
76433SOL     OW31130   6.001   0.958  12.126
76433SOL    HW131131   5.996   0.952  12.031
76433SOL    HW231132   5.912   0.980  12.154
76434SOL     OW31133   9.487   7.346   5.781
76434SOL    HW131134   9.534   7.429   5.786
76434SOL    HW231135   9.521   7.294   5.854
76435SOL     OW31136  13.347   6.591   6.040
76435SOL    HW131137  13.419   6.572   6.101
76435SOL    HW231138  13.388   6.646   5.972
76436SOL     OW31139   7.292   7.346   3.346
76436SOL    HW131140   7.383   7.375   3.353
76436SOL    HW231141   7.241   7.427   3.350
76437SOL     OW31142  13.777   6.645   8.384
76437SOL    HW131143  13.821   6.579   8.331
76437SOL    HW231144  13.805   6.729   8.346
76438SOL     OW31145  10.653   7.791   9.340
76438SOL    HW131146  10.639   7.843   9.261
76438SOL    HW231147  10.695   7.852   9.401
76439SOL     OW31148   2.979   9.839  13.053
76439SOL    HW131149   2.915   9.860  12.985
76439SOL    HW231150   3.064   9.858  13.014
76440SOL     OW31151   9.478  11.974  13.362
76440SOL    HW131152   9.509  11.959  13.273
76440SOL    HW231153   9.446  12.064  13.362
76441SOL     OW31154   7.200   0.226   1.207
76441SOL    HW131155   7.244   0.276   1.138
76441SOL    HW231156   7.194   0.137   1.173
76442SOL     OW31157   9.824   6.836   5.030
76442SOL    HW131158   9.822   6.744   5.002
76442SOL    HW231159   9.915   6.852   5.051
76443SOL     OW31160   1.841   6.211   8.833
76443SOL    HW131161   1.861   6.304   8.824
76443SOL    HW231162   1.815   6.184   8.744
76444SOL     OW31163  13.363   4.910   6.699
76444SOL    HW131164  13.335   4.845   6.635
76444SOL    HW231165  13.456   4.894   6.711
76445SOL     OW31166   3.641  13.488   3.947
76445SOL    HW131167   3.644  13.475   4.042
76445SOL    HW231168   3.562  13.441   3.919
76446SOL     OW31169  11.843  12.735   3.204
76446SOL    HW131170  11.935  12.729   3.181
76446SOL    HW231171  11.796  12.713   3.123
76447SOL     OW31172  12.622   8.192  11.925
76447SOL    HW131173  12.574   8.155  11.999
76447SOL    HW231174  12.625   8.286  11.942
76448SOL     OW31175   1.760   8.777   0.612
76448SOL    HW131176   1.749   8.781   0.707
76448SOL    HW231177   1.763   8.868   0.584
76449SOL     OW31178   4.972  14.330  14.050
76449SOL    HW131179   5.064  14.308  14.041
76449SOL    HW231180   4.927  14.272  13.988
76450SOL     OW31181  11.896   7.452   0.168
76450SOL    HW131182  11.988   7.475   0.181
76450SOL    HW231183  11.850   7.494   0.242
76451SOL     OW31184   5.362   3.394  10.238
76451SOL    HW131185   5.269   3.370  10.241
76451SOL    HW231186   5.394   3.354  10.157
76452SOL     OW31187  10.700  10.666   8.105
76452SOL    HW131188  10.641  10.629   8.171
76452SOL    HW231189  10.698  10.603   8.033
76453SOL     OW31190  12.921   0.945   0.714
76453SOL    HW131191  12.919   1.036   0.745
76453SOL    HW231192  12.980   0.947   0.639
76454SOL     OW31193   5.812   4.366   5.752
76454SOL    HW131194   5.758   4.388   5.828
76454SOL    HW231195   5.776   4.421   5.681
76455SOL     OW31196   3.521   5.899  10.353
76455SOL    HW131197   3.567   5.946  10.283
76455SOL    HW231198   3.591   5.874  10.414
76456SOL     OW31199   3.849   0.147   9.794
76456SOL    HW131200   3.779   0.124   9.855
76456SOL    HW231201   3.835   0.089   9.719
76457SOL     OW31202  10.079   8.608  10.670
76457SOL    HW131203  10.052   8.633  10.758
76457SOL    HW231204  10.120   8.523  10.680
76458SOL     OW31205  12.030  13.754  13.278
76458SOL    HW131206  11.944  13.730  13.311
76458SOL    HW231207  12.083  13.675  13.291
76459SOL     OW31208  12.412   6.156  12.161
76459SOL    HW131209  12.386   6.204  12.240
76459SOL    HW231210  12.389   6.065  12.179
76460SOL     OW31211   5.817   9.809  10.150
76460SOL    HW131212   5.730   9.794  10.113
76460SOL    HW231213   5.877   9.761  10.092
76461SOL     OW31214  14.229   8.656   6.943
76461SOL    HW131215  14.257   8.743   6.974
76461SOL    HW231216  14.239   8.599   7.019
76462SOL     OW31217  12.400  13.492   6.572
76462SOL    HW131218  12.454  13.540   6.634
76462SOL    HW231219  12.380  13.409   6.617
76463SOL     OW31220  12.016  10.020  12.743
76463SOL    HW131221  12.061  10.097  12.707
76463SOL    HW231222  11.952   9.996  12.677
76464SOL     OW31223   0.844  13.115   8.309
76464SOL    HW131224   0.838  13.022   8.330
76464SOL    HW231225   0.753  13.145   8.303
76465SOL     OW31226   4.763   6.323  14.508
76465SOL    HW131227   4.822   6.342  14.435
76465SOL    HW231228   4.779   6.392  14.571
76466SOL     OW31229   3.488   4.930   9.819
76466SOL    HW131230   3.411   4.975   9.855
76466SOL    HW231231   3.484   4.946   9.725
76467SOL     OW31232   6.135   4.001  12.119
76467SOL    HW131233   6.183   3.939  12.174
76467SOL    HW231234   6.100   4.065  12.181
76468SOL     OW31235  13.862   2.941   0.365
76468SOL    HW131236  13.938   2.895   0.330
76468SOL    HW231237  13.852   2.907   0.454
76469SOL     OW31238   4.240   2.713   2.304
76469SOL    HW131239   4.300   2.673   2.240
76469SOL    HW231240   4.242   2.654   2.379
76470SOL     OW31241  13.083   9.793   5.794
76470SOL    HW131242  13.034   9.761   5.718
76470SOL    HW231243  13.106   9.714   5.842
76471SOL     OW31244  11.583   3.600  12.176
76471SOL    HW131245  11.584   3.675  12.235
76471SOL    HW231246  11.505   3.612  12.122
76472SOL     OW31247   3.354   6.545   7.425
76472SOL    HW131248   3.281   6.607   7.422
76472SOL    HW231249   3.331   6.484   7.495
76473SOL     OW31250  14.201   5.593  13.203
76473SOL    HW131251  14.282   5.610  13.250
76473SOL    HW231252  14.155   5.676  13.203
76474SOL     OW31253   6.700   8.023  10.344
76474SOL    HW131254   6.698   8.018  10.439
76474SOL    HW231255   6.609   8.038  10.319
76475SOL     OW31256  10.628   9.760   7.048
76475SOL    HW131257  10.546   9.730   7.088
76475SOL    HW231258  10.612   9.852   7.027
76476SOL     OW31259   3.347  11.056  12.779
76476SOL    HW131260   3.413  11.001  12.737
76476SOL    HW231261   3.265  11.032  12.736
76477SOL     OW31262   6.465  12.399   9.217
76477SOL    HW131263   6.518  12.445   9.282
76477SOL    HW231264   6.424  12.327   9.266
76478SOL     OW31265   1.907   5.877  12.929
76478SOL    HW131266   1.958   5.854  13.007
76478SOL    HW231267   1.863   5.796  12.904
76479SOL     OW31268  10.046   8.578   9.127
76479SOL    HW131269  10.114   8.619   9.180
76479SOL    HW231270   9.994   8.527   9.189
76480SOL     OW31271  13.981  10.793  11.737
76480SOL    HW131272  14.070  10.808  11.767
76480SOL    HW231273  13.944  10.880  11.725
76481SOL     OW31274   6.617   0.786  11.388
76481SOL    HW131275   6.702   0.793  11.345
76481SOL    HW231276   6.613   0.695  11.419
76482SOL     OW31277  13.580   5.270  12.608
76482SOL    HW131278  13.548   5.180  12.607
76482SOL    HW231279  13.664   5.265  12.654
76483SOL     OW31280  13.270   9.602   6.948
76483SOL    HW131281  13.281   9.694   6.971
76483SOL    HW231282  13.333   9.555   7.002
76484SOL     OW31283   7.609   6.261   3.951
76484SOL    HW131284   7.529   6.297   3.990
76484SOL    HW231285   7.578   6.194   3.890
76485SOL     OW31286   5.218  12.621   1.759
76485SOL    HW131287   5.304  12.658   1.738
76485SOL    HW231288   5.186  12.674   1.832
76486SOL     OW31289  11.346  13.261  12.235
76486SOL    HW131290  11.379  13.348  12.216
76486SOL    HW231291  11.398  13.203  12.180
76487SOL     OW31292   6.748  11.091  12.846
76487SOL    HW131293   6.657  11.072  12.868
76487SOL    HW231294   6.794  11.093  12.930
76488SOL     OW31295  13.764   8.855  12.801
76488SOL    HW131296  13.799   8.815  12.721
76488SOL    HW231297  13.834   8.913  12.831
76489SOL     OW31298  14.040   9.697  10.641
76489SOL    HW131299  13.955   9.666  10.611
76489SOL    HW231300  14.032   9.792  10.643
76490SOL     OW31301   3.055   8.697  10.708
76490SOL    HW131302   3.000   8.632  10.751
76490SOL    HW231303   3.144   8.661  10.714
76491SOL     OW31304   2.282   8.476  11.312
76491SOL    HW131305   2.266   8.547  11.374
76491SOL    HW231306   2.195   8.444  11.289
76492SOL     OW31307  12.283   2.721  10.195
76492SOL    HW131308  12.307   2.628  10.192
76492SOL    HW231309  12.202   2.723  10.246
76493SOL     OW31310   5.900  13.166   6.868
76493SOL    HW131311   5.909  13.074   6.843
76493SOL    HW231312   5.976  13.209   6.828
76494SOL     OW31313   9.232  10.831  10.628
76494SOL    HW131314   9.269  10.908  10.585
76494SOL    HW231315   9.274  10.757  10.585
76495SOL     OW31316   7.604   2.944  10.599
76495SOL    HW131317   7.693   2.938  10.563
76495SOL    HW231318   7.557   2.998  10.536
76496SOL     OW31319   9.645  12.701   2.219
76496SOL    HW131320   9.640  12.795   2.200
76496SOL    HW231321   9.615  12.658   2.139
76497SOL     OW31322   1.050   1.787   0.515
76497SOL    HW131323   1.110   1.782   0.590
76497SOL    HW231324   1.001   1.868   0.530
76498SOL     OW31325   1.170  13.386   0.569
76498SOL    HW131326   1.140  13.310   0.617
76498SOL    HW231327   1.234  13.352   0.507
76499SOL     OW31328  10.616  12.012   2.668
76499SOL    HW131329  10.678  11.954   2.624
76499SOL    HW231330  10.557  12.041   2.599
76500SOL     OW31331  12.503   0.123  10.538
76500SOL    HW131332  12.532   0.042  10.496
76500SOL    HW231333  12.573   0.144  10.600
76501SOL     OW31334   0.623  12.539  10.032
76501SOL    HW131335   0.604  12.554  10.125
76501SOL    HW231336   0.580  12.611   9.986
76502SOL     OW31337   8.628   3.152   7.365
76502SOL    HW131338   8.711   3.146   7.412
76502SOL    HW231339   8.634   3.235   7.318
76503SOL     OW31340   6.110   1.005   4.764
76503SOL    HW131341   6.085   1.089   4.725
76503SOL    HW231342   6.069   0.940   4.708
76504SOL     OW31343  14.575   2.454   8.130
76504SOL    HW131344  14.542   2.376   8.085
76504SOL    HW231345  14.543   2.446   8.219
76505SOL     OW31346  12.353  13.010   1.708
76505SOL    HW131347  12.359  13.036   1.800
76505SOL    HW231348  12.295  13.075   1.668
76506SOL     OW31349  13.627   2.526   6.317
76506SOL    HW131350  13.602   2.471   6.243
76506SOL    HW231351  13.576   2.493   6.391
76507SOL     OW31352  13.925   9.848  13.729
76507SOL    HW131353  13.832   9.853  13.753
76507SOL    HW231354  13.944   9.932  13.689
76508SOL     OW31355   8.327   5.544   7.744
76508SOL    HW131356   8.370   5.463   7.773
76508SOL    HW231357   8.255   5.514   7.689
76509SOL     OW31358  11.199  14.588  11.490
76509SOL    HW131359  11.181  14.581  11.584
76509SOL    HW231360  11.291  14.566  11.481
76510SOL     OW31361   4.757   9.626  13.611
76510SOL    HW131362   4.805   9.709  13.616
76510SOL    HW231363   4.683   9.638  13.671
76511SOL     OW31364  14.066  10.914   8.484
76511SOL    HW131365  14.034  10.963   8.560
76511SOL    HW231366  14.119  10.977   8.435
76512SOL     OW31367  10.115   0.803   8.936
76512SOL    HW131368  10.201   0.787   8.897
76512SOL    HW231369  10.105   0.898   8.932
76513SOL     OW31370  14.682  14.759  12.416
76513SOL    HW131371  14.727  14.765  12.332
76513SOL    HW231372  14.648  14.846  12.432
76514SOL     OW31373   1.471  10.353   4.025
76514SOL    HW131374   1.486  10.447   4.036
76514SOL    HW231375   1.470  10.319   4.114
76515SOL     OW31376   3.511   4.935   8.472
76515SOL    HW131377   3.589   4.943   8.417
76515SOL    HW231378   3.528   4.996   8.544
76516SOL     OW31379   8.719   9.408  11.021
76516SOL    HW131380   8.726   9.385  11.113
76516SOL    HW231381   8.770   9.489  11.012
76517SOL     OW31382  10.636  13.386  11.689
76517SOL    HW131383  10.587  13.401  11.609
76517SOL    HW231384  10.693  13.462  11.697
76518SOL     OW31385   3.002   9.748  10.902
76518SOL    HW131386   2.909   9.764  10.918
76518SOL    HW231387   3.040   9.835  10.889
76519SOL     OW31388   2.674   5.236   2.808
76519SOL    HW131389   2.706   5.289   2.735
76519SOL    HW231390   2.579   5.233   2.796
76520SOL     OW31391   5.273   6.421   5.780
76520SOL    HW131392   5.310   6.504   5.750
76520SOL    HW231393   5.185   6.419   5.741
76521SOL     OW31394   8.784   3.987   8.821
76521SOL    HW131395   8.795   3.894   8.797
76521SOL    HW231396   8.863   4.009   8.870
76522SOL     OW31397   9.320   8.792   7.530
76522SOL    HW131398   9.270   8.722   7.487
76522SOL    HW231399   9.409   8.757   7.537
76523SOL     OW31400  13.799   8.299   9.402
76523SOL    HW131401  13.823   8.362   9.470
76523SOL    HW231402  13.706   8.283   9.416
76524SOL     OW31403   2.379  11.617  12.550
76524SOL    HW131404   2.470  11.629  12.524
76524SOL    HW231405   2.373  11.525  12.576
76525SOL     OW31406  13.719   3.799   3.990
76525SOL    HW131407  13.689   3.777   4.079
76525SOL    HW231408  13.752   3.888   3.998
76526SOL     OW31409   5.763  12.811   7.390
76526SOL    HW131410   5.759  12.805   7.294
76526SOL    HW231411   5.705  12.884   7.411
76527SOL     OW31412  13.197  14.726   9.829
76527SOL    HW131413  13.247  14.654   9.868
76527SOL    HW231414  13.201  14.796   9.894
76528SOL     OW31415   0.495   9.428  10.867
76528SOL    HW131416   0.435   9.452  10.937
76528SOL    HW231417   0.518   9.512  10.826
76529SOL     OW31418  12.558   1.833  10.657
76529SOL    HW131419  12.551   1.913  10.708
76529SOL    HW231420  12.467   1.811  10.634
76530SOL     OW31421   0.156   5.928   5.068
76530SOL    HW131422   0.223   5.926   5.000
76530SOL    HW231423   0.167   6.013   5.111
76531SOL     OW31424  10.408   6.636   5.328
76531SOL    HW131425  10.334   6.684   5.291
76531SOL    HW231426  10.479   6.648   5.264
76532SOL     OW31427   8.510  10.285   9.707
76532SOL    HW131428   8.507  10.192   9.684
76532SOL    HW231429   8.564  10.325   9.639
76533SOL     OW31430   7.448   0.372  13.787
76533SOL    HW131431   7.456   0.370  13.691
76533SOL    HW231432   7.512   0.307  13.817
76534SOL     OW31433   0.222   9.780   0.205
76534SOL    HW131434   0.132   9.749   0.191
76534SOL    HW231435   0.232   9.781   0.300
76535SOL     OW31436   0.869   4.916  10.696
76535SOL    HW131437   0.905   4.982  10.755
76535SOL    HW231438   0.921   4.924  10.616
76536SOL     OW31439  13.145   1.116   8.124
76536SOL    HW131440  13.122   1.025   8.142
76536SOL    HW231441  13.208   1.111   8.052
76537SOL     OW31442   7.024  11.123   0.210
76537SOL    HW131443   7.016  11.027   0.208
76537SOL    HW231444   6.934  11.154   0.209
76538SOL     OW31445   0.288   9.030   6.429
76538SOL    HW131446   0.235   8.972   6.483
76538SOL    HW231447   0.287   9.114   6.475
76539SOL     OW31448  12.871   6.102  12.785
76539SOL    HW131449  12.856   6.008  12.778
76539SOL    HW231450  12.794   6.136  12.829
76540SOL     OW31451   6.369   9.746   1.662
76540SOL    HW131452   6.445   9.781   1.708
76540SOL    HW231453   6.349   9.812   1.596
76541SOL     OW31454   1.215   8.777  11.700
76541SOL    HW131455   1.176   8.784  11.613
76541SOL    HW231456   1.149   8.811  11.760
76542SOL     OW31457   0.527  11.447   6.685
76542SOL    HW131458   0.440  11.450   6.725
76542SOL    HW231459   0.583  11.407   6.753
76543SOL     OW31460   8.963   3.550   2.687
76543SOL    HW131461   8.987   3.554   2.779
76543SOL    HW231462   9.043   3.524   2.642
76544SOL     OW31463   8.074  13.689   5.955
76544SOL    HW131464   8.073  13.615   5.895
76544SOL    HW231465   8.018  13.663   6.027
76545SOL     OW31466   3.175  12.747   8.164
76545SOL    HW131467   3.198  12.838   8.149
76545SOL    HW231468   3.115  12.725   8.092
76546SOL     OW31469  12.181   1.912   8.490
76546SOL    HW131470  12.152   1.821   8.495
76546SOL    HW231471  12.170   1.945   8.580
76547SOL     OW31472   8.466   0.955   1.674
76547SOL    HW131473   8.389   1.012   1.670
76547SOL    HW231474   8.434   0.870   1.643
76548SOL     OW31475   7.893  10.917   3.174
76548SOL    HW131476   7.867  10.825   3.171
76548SOL    HW231477   7.964  10.919   3.239
76549SOL     OW31478   8.544   6.698  14.357
76549SOL    HW131479   8.513   6.789  14.355
76549SOL    HW231480   8.481   6.653  14.413
76550SOL     OW31481  12.315   9.125  11.470
76550SOL    HW131482  12.370   9.055  11.434
76550SOL    HW231483  12.247   9.079  11.520
76551SOL     OW31484   5.239   4.234   6.549
76551SOL    HW131485   5.333   4.253   6.544
76551SOL    HW231486   5.211   4.230   6.457
76552SOL     OW31487   1.415   6.832   2.308
76552SOL    HW131488   1.461   6.831   2.224
76552SOL    HW231489   1.395   6.925   2.324
76553SOL     OW31490   1.929  10.938  10.849
76553SOL    HW131491   1.978  10.971  10.925
76553SOL    HW231492   1.837  10.948  10.874
76554SOL     OW31493   2.461  11.610  10.251
76554SOL    HW131494   2.465  11.522  10.288
76554SOL    HW231495   2.487  11.668  10.322
76555SOL     OW31496   7.719   3.382  11.774
76555SOL    HW131497   7.708   3.324  11.849
76555SOL    HW231498   7.660   3.346  11.708
76556SOL     OW31499  11.179  13.883   3.339
76556SOL    HW131500  11.197  13.968   3.379
76556SOL    HW231501  11.111  13.844   3.394
76557SOL     OW31502  14.604   0.065  13.623
76557SOL    HW131503  14.645   0.150  13.636
76557SOL    HW231504  14.595   0.029  13.712
76558SOL     OW31505  13.922  11.701  14.008
76558SOL    HW131506  13.915  11.621  14.059
76558SOL    HW231507  13.999  11.746  14.044
76559SOL     OW31508   9.580   5.254  10.391
76559SOL    HW131509   9.523   5.328  10.370
76559SOL    HW231510   9.520   5.184  10.415
76560SOL     OW31511   0.237   2.565   4.535
76560SOL    HW131512   0.318   2.539   4.491
76560SOL    HW231513   0.232   2.659   4.523
76561SOL     OW31514   1.206   3.722  13.932
76561SOL    HW131515   1.272   3.662  13.896
76561SOL    HW231516   1.162   3.758  13.855
76562SOL     OW31517  11.428   5.839   4.078
76562SOL    HW131518  11.502   5.780   4.068
76562SOL    HW231519  11.437   5.901   4.005
76563SOL     OW31520   3.840  11.164   9.491
76563SOL    HW131521   3.790  11.245   9.489
76563SOL    HW231522   3.785  11.099   9.447
76564SOL     OW31523  10.060  10.729   8.084
76564SOL    HW131524  10.023  10.809   8.121
76564SOL    HW231525  10.008  10.713   8.005
76565SOL     OW31526   2.260   7.200   8.829
76565SOL    HW131527   2.251   7.181   8.922
76565SOL    HW231528   2.291   7.291   8.826
76566SOL     OW31529   7.087   4.213  10.631
76566SOL    HW131530   7.183   4.213  10.642
76566SOL    HW231531   7.067   4.298  10.593
76567SOL     OW31532  10.188  10.915  12.680
76567SOL    HW131533  10.149  10.965  12.751
76567SOL    HW231534  10.133  10.933  12.604
76568SOL     OW31535   9.770  10.291   9.993
76568SOL    HW131536   9.726  10.302   9.909
76568SOL    HW231537   9.738  10.207  10.026
76569SOL     OW31538   1.683   9.029   0.554
76569SOL    HW131539   1.609   9.072   0.512
76569SOL    HW231540   1.678   9.055   0.646
76570SOL     OW31541   3.890  13.743   1.533
76570SOL    HW131542   3.865  13.662   1.488
76570SOL    HW231543   3.850  13.813   1.481
76571SOL     OW31544   2.568   0.976  13.313
76571SOL    HW131545   2.524   1.061  13.301
76571SOL    HW231546   2.500   0.911  13.294
76572SOL     OW31547   6.752   2.199   0.726
76572SOL    HW131548   6.677   2.254   0.704
76572SOL    HW231549   6.807   2.202   0.648
76573SOL     OW31550   0.291  13.126   4.007
76573SOL    HW131551   0.287  13.113   4.102
76573SOL    HW231552   0.353  13.198   3.995
76574SOL     OW31553   2.654   1.831  10.560
76574SOL    HW131554   2.568   1.795  10.580
76574SOL    HW231555   2.711   1.755  10.551
76575SOL     OW31556   5.026   7.481  14.232
76575SOL    HW131557   4.973   7.524  14.164
76575SOL    HW231558   5.075   7.552  14.273
76576SOL     OW31559   2.092   5.321   5.880
76576SOL    HW131560   2.161   5.255   5.875
76576SOL    HW231561   2.138   5.404   5.889
76577SOL     OW31562   7.291   5.085   2.012
76577SOL    HW131563   7.386   5.081   1.999
76577SOL    HW231564   7.256   5.109   1.926
76578SOL     OW31565   2.051  11.361   6.464
76578SOL    HW131566   2.081  11.376   6.374
76578SOL    HW231567   1.957  11.380   6.461
76579SOL     OW31568   6.484   4.740  14.318
76579SOL    HW131569   6.484   4.665  14.377
76579SOL    HW231570   6.509   4.814  14.374
76580SOL     OW31571   6.104   8.869  11.996
76580SOL    HW131572   6.081   8.909  11.912
76580SOL    HW231573   6.196   8.846  11.988
76581SOL     OW31574   0.049   0.899  11.343
76581SOL    HW131575  14.852   0.871  11.398
76581SOL    HW231576   0.106   0.822  11.336
76582SOL     OW31577   8.845  11.295  14.535
76582SOL    HW131578   8.868  11.376  14.580
76582SOL    HW231579   8.927  11.264  14.497
76583SOL     OW31580   9.854   8.151   5.278
76583SOL    HW131581   9.893   8.234   5.248
76583SOL    HW231582   9.924   8.087   5.268
76584SOL     OW31583  14.816  12.505  12.703
76584SOL    HW131584  14.739  12.544  12.661
76584SOL    HW231585  14.874  12.484  12.631
76585SOL     OW31586   6.845   1.531   4.419
76585SOL    HW131587   6.823   1.483   4.339
76585SOL    HW231588   6.780   1.504   4.483
76586SOL     OW31589   7.951   8.560  11.801
76586SOL    HW131590   7.934   8.653  11.817
76586SOL    HW231591   7.864   8.523  11.783
76587SOL     OW31592   7.873   1.914  11.127
76587SOL    HW131593   7.793   1.937  11.080
76587SOL    HW231594   7.925   1.865  11.064
76588SOL     OW31595  13.540   5.832   4.481
76588SOL    HW131596  13.463   5.887   4.465
76588SOL    HW231597  13.530   5.758   4.421
76589SOL     OW31598  12.943   9.563   9.119
76589SOL    HW131599  13.025   9.513   9.117
76589SOL    HW231600  12.938   9.596   9.209
76590SOL     OW31601   3.362   5.925   5.788
76590SOL    HW131602   3.437   5.866   5.792
76590SOL    HW231603   3.399   6.009   5.761
76591SOL     OW31604   2.742   8.938   1.660
76591SOL    HW131605   2.688   8.861   1.679
76591SOL    HW231606   2.746   8.985   1.743
76592SOL     OW31607   0.979   0.129   7.801
76592SOL    HW131608   0.979   0.195   7.732
76592SOL    HW231609   0.902   0.076   7.783
76593SOL     OW31610  10.903   8.335  13.134
76593SOL    HW131611  10.832   8.397  13.115
76593SOL    HW231612  10.953   8.331  13.052
76594SOL     OW31613   7.035   7.358   4.833
76594SOL    HW131614   7.025   7.406   4.751
76594SOL    HW231615   7.034   7.266   4.807
76595SOL     OW31616  10.828   6.745   1.476
76595SOL    HW131617  10.906   6.712   1.432
76595SOL    HW231618  10.762   6.753   1.407
76596SOL     OW31619  12.958   2.574  14.598
76596SOL    HW131620  13.001   2.499  14.556
76596SOL    HW231621  13.022   2.605  14.662
76597SOL     OW31622  14.169   2.901   0.446
76597SOL    HW131623  14.172   2.990   0.480
76597SOL    HW231624  14.206   2.847   0.516
76598SOL     OW31625  14.700  10.978   9.062
76598SOL    HW131626  14.763  11.046   9.038
76598SOL    HW231627  14.751  10.914   9.111
76599SOL     OW31628   4.744  14.468   3.696
76599SOL    HW131629   4.840  14.459   3.699
76599SOL    HW231630   4.727  14.560   3.714
76600SOL     OW31631   9.734  11.906   0.689
76600SOL    HW131632   9.703  11.828   0.736
76600SOL    HW231633   9.657  11.938   0.642
76601SOL     OW31634   2.525   8.814  12.451
76601SOL    HW131635   2.509   8.840  12.541
76601SOL    HW231636   2.444   8.770  12.424
76602SOL     OW31637  13.296   2.375   1.421
76602SOL    HW131638  13.381   2.333   1.427
76602SOL    HW231639  13.234   2.303   1.416
76603SOL     OW31640  13.591   0.769  14.796
76603SOL    HW131641  13.685   0.774  14.808
76603SOL    HW231642  13.580   0.729  14.709
76604SOL     OW31643   1.498   7.381  14.822
76604SOL    HW131644   1.506   7.357  14.730
76604SOL    HW231645   1.451   7.464  14.822
76605SOL     OW31646   4.040   0.780  14.477
76605SOL    HW131647   4.010   0.870  14.477
76605SOL    HW231648   4.103   0.775  14.549
76606SOL     OW31649   8.921   2.773   7.479
76606SOL    HW131650   8.850   2.821   7.437
76606SOL    HW231651   8.882   2.689   7.504
76607SOL     OW31652   3.871   8.145   7.591
76607SOL    HW131653   3.842   8.054   7.601
76607SOL    HW231654   3.811   8.183   7.528
76608SOL     OW31655  10.001  14.532   4.830
76608SOL    HW131656  10.014  14.471   4.902
76608SOL    HW231657  10.087  14.540   4.788
76609SOL     OW31658   8.790   5.065  11.158
76609SOL    HW131659   8.726   4.997  11.138
76609SOL    HW231660   8.747   5.147  11.132
76610SOL     OW31661   0.794   4.838   3.932
76610SOL    HW131662   0.829   4.782   4.002
76610SOL    HW231663   0.822   4.794   3.851
76611SOL     OW31664   3.539   2.539  14.440
76611SOL    HW131665   3.634   2.536  14.446
76611SOL    HW231666   3.508   2.494  14.519
76612SOL     OW31667   7.222  14.307  14.465
76612SOL    HW131668   7.193  14.396  14.443
76612SOL    HW231669   7.175  14.250  14.405
76613SOL     OW31670   2.710  10.823   7.460
76613SOL    HW131671   2.626  10.786   7.487
76613SOL    HW231672   2.690  10.870   7.379
76614SOL     OW31673  13.032   3.118   6.202
76614SOL    HW131674  13.104   3.068   6.162
76614SOL    HW231675  13.040   3.206   6.166
76615SOL     OW31676  10.715   0.036   8.705
76615SOL    HW131677  10.755   0.063   8.622
76615SOL    HW231678  10.746  14.822   8.718
76616SOL     OW31679  11.139   8.734   0.645
76616SOL    HW131680  11.184   8.701   0.723
76616SOL    HW231681  11.081   8.803   0.678
76617SOL     OW31682  10.659   7.803   6.409
76617SOL    HW131683  10.644   7.730   6.468
76617SOL    HW231684  10.630   7.881   6.457
76618SOL     OW31685   7.427  14.437   6.637
76618SOL    HW131686   7.480  14.511   6.608
76618SOL    HW231687   7.342  14.475   6.658
76619SOL     OW31688   4.773   5.044   3.513
76619SOL    HW131689   4.710   5.108   3.481
76619SOL    HW231690   4.812   5.007   3.433
76620SOL     OW31691   8.535  14.728  14.438
76620SOL    HW131692   8.517  14.807  14.387
76620SOL    HW231693   8.465  14.725  14.503
76621SOL     OW31694   2.449   6.906  11.920
76621SOL    HW131695   2.450   6.812  11.901
76621SOL    HW231696   2.476   6.913  12.011
76622SOL     OW31697   8.314   9.093   2.781
76622SOL    HW131698   8.249   9.032   2.748
76622SOL    HW231699   8.359   9.124   2.702
76623SOL     OW31700   0.970   5.997   2.195
76623SOL    HW131701   1.016   5.980   2.277
76623SOL    HW231702   0.888   5.948   2.203
76624SOL     OW31703   5.055   8.578   0.282
76624SOL    HW131704   5.144   8.612   0.291
76624SOL    HW231705   5.065   8.482   0.283
76625SOL     OW31706   6.851   9.229   9.325
76625SOL    HW131707   6.910   9.196   9.393
76625SOL    HW231708   6.774   9.173   9.331
76626SOL     OW31709  12.273  12.557   3.779
76626SOL    HW131710  12.201  12.549   3.716
76626SOL    HW231711  12.348  12.585   3.726
76627SOL     OW31712  10.924   8.222  11.911
76627SOL    HW131713  10.949   8.164  11.983
76627SOL    HW231714  10.948   8.310  11.941
76628SOL     OW31715   4.725  14.383   9.917
76628SOL    HW131716   4.675  14.385   9.836
76628SOL    HW231717   4.804  14.432   9.898
76629SOL     OW31718   8.214  11.590  10.330
76629SOL    HW131719   8.251  11.649  10.396
76629SOL    HW231720   8.122  11.616  10.323
76630SOL     OW31721   2.126   1.714   2.277
76630SOL    HW131722   2.086   1.730   2.362
76630SOL    HW231723   2.056   1.731   2.214
76631SOL     OW31724   7.376   6.859  12.473
76631SOL    HW131725   7.328   6.898  12.546
76631SOL    HW231726   7.380   6.765  12.493
76632SOL     OW31727  12.935  14.130   5.371
76632SOL    HW131728  13.020  14.132   5.326
76632SOL    HW231729  12.942  14.195   5.440
76633SOL     OW31730   1.178   1.477   7.094
76633SOL    HW131731   1.204   1.386   7.082
76633SOL    HW231732   1.108   1.474   7.159
76634SOL     OW31733   3.794  13.302   2.699
76634SOL    HW131734   3.763  13.213   2.718
76634SOL    HW231735   3.746  13.329   2.621
76635SOL     OW31736  10.619   1.900   6.242
76635SOL    HW131737  10.598   1.919   6.150
76635SOL    HW231738  10.711   1.872   6.240
76636SOL     OW31739   1.639   2.697   1.044
76636SOL    HW131740   1.687   2.732   0.969
76636SOL    HW231741   1.548   2.691   1.014
76637SOL     OW31742   8.424   5.533  13.741
76637SOL    HW131743   8.339   5.490  13.725
76637SOL    HW231744   8.447   5.507  13.830
76638SOL     OW31745   9.266  14.693  14.394
76638SOL    HW131746   9.264  14.786  14.418
76638SOL    HW231747   9.246  14.646  14.475
76639SOL     OW31748  14.135   5.073   7.849
76639SOL    HW131749  14.061   5.131   7.865
76639SOL    HW231750  14.097   4.996   7.807
76640SOL     OW31751  14.165   9.894  14.448
76640SOL    HW131752  14.259   9.893  14.466
76640SOL    HW231753  14.130   9.960  14.508
76641SOL     OW31754   9.323  10.285   7.413
76641SOL    HW131755   9.413  10.303   7.439
76641SOL    HW231756   9.290  10.227   7.482
76642SOL     OW31757  11.679   5.150  13.274
76642SOL    HW131758  11.688   5.244  13.287
76642SOL    HW231759  11.636   5.141  13.189
76643SOL     OW31760   1.367  13.071   2.594
76643SOL    HW131761   1.363  13.123   2.674
76643SOL    HW231762   1.309  12.997   2.609
76644SOL     OW31763  13.953   2.934  11.429
76644SOL    HW131764  13.889   2.965  11.366
76644SOL    HW231765  14.011   2.877  11.378
76645SOL     OW31766   3.693  12.838  12.289
76645SOL    HW131767   3.678  12.771  12.222
76645SOL    HW231768   3.638  12.912  12.261
76646SOL     OW31769  12.661  12.332   0.415
76646SOL    HW131770  12.723  12.348   0.485
76646SOL    HW231771  12.621  12.417   0.398
76647SOL     OW31772  13.476  12.832   6.327
76647SOL    HW131773  13.522  12.915   6.335
76647SOL    HW231774  13.539  12.773   6.285
76648SOL     OW31775   0.761   5.834   9.185
76648SOL    HW131776   0.692   5.896   9.160
76648SOL    HW231777   0.789   5.864   9.271
76649SOL     OW31778  14.069  10.609   7.354
76649SOL    HW131779  14.004  10.566   7.409
76649SOL    HW231780  14.061  10.702   7.375
76650SOL     OW31781   8.172   3.415   6.744
76650SOL    HW131782   8.136   3.340   6.790
76650SOL    HW231783   8.264   3.417   6.770
76651SOL     OW31784   7.076   3.389   6.825
76651SOL    HW131785   7.067   3.295   6.811
76651SOL    HW231786   7.152   3.398   6.882
76652SOL     OW31787   9.534  12.507  10.985
76652SOL    HW131788   9.608  12.551  11.025
76652SOL    HW231789   9.562  12.416  10.975
76653SOL     OW31790  12.210   0.872   4.368
76653SOL    HW131791  12.278   0.924   4.410
76653SOL    HW231792  12.168   0.824   4.439
76654SOL     OW31793  14.783   5.202   6.478
76654SOL    HW131794  14.802   5.253   6.556
76654SOL    HW231795  14.736   5.263   6.420
76655SOL     OW31796   1.286   4.264   9.415
76655SOL    HW131797   1.238   4.279   9.497
76655SOL    HW231798   1.273   4.344   9.364
76656SOL     OW31799  14.052   5.156   1.725
76656SOL    HW131800  14.049   5.079   1.782
76656SOL    HW231801  14.023   5.228   1.781
76657SOL     OW31802   7.207   7.663   9.623
76657SOL    HW131803   7.205   7.730   9.692
76657SOL    HW231804   7.132   7.683   9.567
76658SOL     OW31805  12.811   4.109   3.661
76658SOL    HW131806  12.890   4.108   3.715
76658SOL    HW231807  12.748   4.159   3.712
76659SOL     OW31808  14.686  10.023   3.513
76659SOL    HW131809  14.767  10.004   3.465
76659SOL    HW231810  14.711  10.016   3.606
76660SOL     OW31811   7.968  14.553   4.714
76660SOL    HW131812   7.966  14.467   4.757
76660SOL    HW231813   7.945  14.615   4.783
76661SOL     OW31814  12.915   1.890   1.857
76661SOL    HW131815  12.952   1.864   1.772
76661SOL    HW231816  12.863   1.968   1.836
76662SOL     OW31817   0.598   6.410   7.617
76662SOL    HW131818   0.521   6.357   7.637
76662SOL    HW231819   0.609   6.467   7.693
76663SOL     OW31820   2.502  10.823  13.497
76663SOL    HW131821   2.589  10.784  13.489
76663SOL    HW231822   2.476  10.842  13.407
76664SOL     OW31823   1.649  10.051   5.716
76664SOL    HW131824   1.730  10.001   5.719
76664SOL    HW231825   1.648  10.091   5.629
76665SOL     OW31826   1.564   1.193  11.087
76665SOL    HW131827   1.475   1.164  11.104
76665SOL    HW231828   1.606   1.117  11.046
76666SOL     OW31829   2.567   4.006   8.032
76666SOL    HW131830   2.655   4.014   7.996
76666SOL    HW231831   2.547   4.092   8.068
76667SOL     OW31832   7.067   3.177   6.349
76667SOL    HW131833   7.003   3.118   6.310
76667SOL    HW231834   7.047   3.175   6.443
76668SOL     OW31835  13.205  14.559   1.211
76668SOL    HW131836  13.257  14.638   1.222
76668SOL    HW231837  13.195  14.549   1.116
76669SOL     OW31838   1.272  13.258   9.713
76669SOL    HW131839   1.290  13.177   9.664
76669SOL    HW231840   1.331  13.254   9.788
76670SOL     OW31841  10.158   7.476   5.191
76670SOL    HW131842  10.125   7.529   5.263
76670SOL    HW231843  10.154   7.535   5.115
76671SOL     OW31844  11.039  14.014  11.068
76671SOL    HW131845  11.003  14.088  11.117
76671SOL    HW231846  11.130  14.007  11.097
76672SOL     OW31847   8.110  11.408  13.603
76672SOL    HW131848   8.202  11.383  13.601
76672SOL    HW231849   8.081  11.386  13.692
76673SOL     OW31850   4.440   9.350   9.721
76673SOL    HW131851   4.353   9.327   9.752
76673SOL    HW231852   4.429   9.365   9.627
76674SOL     OW31853   0.232   1.631   6.096
76674SOL    HW131854   0.318   1.653   6.061
76674SOL    HW231855   0.227   1.536   6.089
76675SOL     OW31856   5.502   8.240   5.303
76675SOL    HW131857   5.433   8.228   5.368
76675SOL    HW231858   5.535   8.152   5.286
76676SOL     OW31859  12.730  12.122  11.599
76676SOL    HW131860  12.672  12.104  11.673
76676SOL    HW231861  12.678  12.101  11.522
76677SOL     OW31862   5.484   9.441   6.494
76677SOL    HW131863   5.420   9.482   6.435
76677SOL    HW231864   5.569   9.465   6.457
76678SOL     OW31865   3.807   8.962   9.037
76678SOL    HW131866   3.725   8.922   9.063
76678SOL    HW231867   3.873   8.894   9.050
76679SOL     OW31868  10.087   4.228   0.310
76679SOL    HW131869  10.018   4.275   0.263
76679SOL    HW231870  10.165   4.282   0.298
76680SOL     OW31871  10.617   5.089   6.540
76680SOL    HW131872  10.637   5.150   6.469
76680SOL    HW231873  10.528   5.059   6.521
76681SOL     OW31874   8.815  11.499  13.114
76681SOL    HW131875   8.851  11.578  13.155
76681SOL    HW231876   8.720  11.505  13.129
76682SOL     OW31877   5.578   4.465   8.693
76682SOL    HW131878   5.620   4.543   8.655
76682SOL    HW231879   5.529   4.427   8.620
76683SOL     OW31880  13.920  10.075  10.333
76683SOL    HW131881  13.878   9.999  10.375
76683SOL    HW231882  14.013  10.057  10.339
76684SOL     OW31883   3.136  11.604   3.400
76684SOL    HW131884   3.171  11.630   3.485
76684SOL    HW231885   3.118  11.510   3.408
76685SOL     OW31886   8.891   6.251  10.584
76685SOL    HW131887   8.959   6.278  10.646
76685SOL    HW231888   8.935   6.254  10.499
76686SOL     OW31889  14.555   7.474   8.372
76686SOL    HW131890  14.600   7.404   8.325
76686SOL    HW231891  14.512   7.525   8.303
76687SOL     OW31892   9.462  11.944   9.334
76687SOL    HW131893   9.417  11.910   9.412
76687SOL    HW231894   9.406  12.015   9.304
76688SOL     OW31895   3.189  14.765   0.661
76688SOL    HW131896   3.239  14.702   0.609
76688SOL    HW231897   3.173  14.721   0.744
76689SOL     OW31898  12.407   7.103   6.096
76689SOL    HW131899  12.360   7.159   6.158
76689SOL    HW231900  12.374   7.015   6.114
76690SOL     OW31901  10.078   3.076   6.232
76690SOL    HW131902  10.171   3.098   6.232
76690SOL    HW231903  10.071   3.002   6.293
76691SOL     OW31904   1.660  12.028   3.058
76691SOL    HW131905   1.739  12.023   3.112
76691SOL    HW231906   1.679  11.972   2.983
76692SOL     OW31907   5.237  12.737   8.474
76692SOL    HW131908   5.305  12.718   8.409
76692SOL    HW231909   5.235  12.832   8.480
76693SOL     OW31910   5.005  11.507   4.176
76693SOL    HW131911   4.935  11.538   4.119
76693SOL    HW231912   4.975  11.422   4.207
76694SOL     OW31913   6.848   5.246   7.759
76694SOL    HW131914   6.844   5.196   7.678
76694SOL    HW231915   6.787   5.201   7.818
76695SOL     OW31916   8.172   6.973  10.082
76695SOL    HW131917   8.236   7.023  10.030
76695SOL    HW231918   8.224   6.903  10.122
76696SOL     OW31919  14.422  11.579   6.586
76696SOL    HW131920  14.438  11.524   6.662
76696SOL    HW231921  14.345  11.541   6.544
76697SOL     OW31922   8.556  10.538   3.101
76697SOL    HW131923   8.476  10.486   3.113
76697SOL    HW231924   8.547  10.574   3.013
76698SOL     OW31925  11.320  13.106  12.465
76698SOL    HW131926  11.329  13.188  12.417
76698SOL    HW231927  11.303  13.040  12.397
76699SOL     OW31928  13.094  11.644   3.313
76699SOL    HW131929  13.169  11.692   3.277
76699SOL    HW231930  13.097  11.664   3.407
76700SOL     OW31931  12.978   7.949   7.737
76700SOL    HW131932  13.071   7.925   7.737
76700SOL    HW231933  12.951   7.936   7.828
76701SOL     OW31934   9.995   1.621  12.630
76701SOL    HW131935  10.083   1.584  12.635
76701SOL    HW231936  10.007   1.711  12.601
76702SOL     OW31937   2.207   3.733  12.047
76702SOL    HW131938   2.190   3.710  11.956
76702SOL    HW231939   2.295   3.699  12.064
76703SOL     OW31940  11.355   3.254  10.816
76703SOL    HW131941  11.370   3.177  10.761
76703SOL    HW231942  11.439   3.270  10.858
76704SOL     OW31943   5.480  12.037   4.881
76704SOL    HW131944   5.542  12.004   4.816
76704SOL    HW231945   5.448  12.119   4.843
76705SOL     OW31946   7.673  10.681   0.281
76705SOL    HW131947   7.627  10.722   0.207
76705SOL    HW231948   7.727  10.613   0.241
76706SOL     OW31949  13.401  12.284   0.841
76706SOL    HW131950  13.494  12.262   0.846
76706SOL    HW231951  13.381  12.328   0.924
76707SOL     OW31952   9.518   1.776  11.010
76707SOL    HW131953   9.519   1.711  11.080
76707SOL    HW231954   9.610   1.782  10.983
76708SOL     OW31955  11.593   1.347  11.594
76708SOL    HW131956  11.634   1.374  11.676
76708SOL    HW231957  11.641   1.268  11.569
76709SOL     OW31958   0.737   5.881  13.466
76709SOL    HW131959   0.732   5.976  13.457
76709SOL    HW231960   0.753   5.867  13.559
76710SOL     OW31961   5.256  13.866   6.844
76710SOL    HW131962   5.289  13.897   6.760
76710SOL    HW231963   5.274  13.938   6.905
76711SOL     OW31964   2.533   2.157   3.554
76711SOL    HW131965   2.571   2.164   3.466
76711SOL    HW231966   2.460   2.219   3.553
76712SOL     OW31967   8.626   4.955   6.202
76712SOL    HW131968   8.638   4.982   6.111
76712SOL    HW231969   8.707   4.907   6.223
76713SOL     OW31970   3.010   9.330   8.212
76713SOL    HW131971   2.928   9.379   8.220
76713SOL    HW231972   3.069   9.371   8.276
76714SOL     OW31973   7.310   9.664   6.425
76714SOL    HW131974   7.245   9.723   6.385
76714SOL    HW231975   7.367   9.722   6.476
76715SOL     OW31976  11.269  13.841  10.614
76715SOL    HW131977  11.175  13.860  10.615
76715SOL    HW231978  11.277  13.759  10.567
76716SOL     OW31979  10.952   9.205  13.640
76716SOL    HW131980  11.030   9.166  13.680
76716SOL    HW231981  10.980   9.292  13.611
76717SOL     OW31982  13.926   5.382   0.718
76717SOL    HW131983  13.916   5.476   0.728
76717SOL    HW231984  13.919   5.366   0.624
76718SOL     OW31985  14.547  13.131   1.809
76718SOL    HW131986  14.468  13.160   1.763
76718SOL    HW231987  14.618  13.148   1.747
76719SOL     OW31988   1.207  14.160   2.816
76719SOL    HW131989   1.135  14.222   2.808
76719SOL    HW231990   1.249  14.160   2.730
76720SOL     OW31991  12.922   7.551   5.644
76720SOL    HW131992  12.992   7.609   5.614
76720SOL    HW231993  12.894   7.504   5.566
76721SOL     OW31994   0.894  10.490   8.466
76721SOL    HW131995   0.887  10.570   8.517
76721SOL    HW231996   0.988  10.477   8.454
76722SOL     OW31997  11.688  14.328   1.009
76722SOL    HW131998  11.631  14.399   1.037
76722SOL    HW231999  11.777  14.364   1.015
76723SOL     OW32000   4.974   8.762  10.981
76723SOL    HW132001   4.978   8.829  11.049
76723SOL    HW232002   5.027   8.797  10.909
76724SOL     OW32003   0.212   8.078   2.471
76724SOL    HW132004   0.121   8.098   2.495
76724SOL    HW232005   0.205   8.030   2.388
76725SOL     OW32006  13.993  13.282  11.062
76725SOL    HW132007  14.056  13.218  11.095
76725SOL    HW232008  14.011  13.362  11.113
76726SOL     OW32009   0.993   8.365  12.976
76726SOL    HW132010   0.911   8.342  13.020
76726SOL    HW232011   1.011   8.455  13.003
76727SOL     OW32012   3.891   3.867   8.585
76727SOL    HW132013   3.982   3.843   8.565
76727SOL    HW232014   3.863   3.922   8.512
76728SOL     OW32015  10.281  11.827   5.931
76728SOL    HW132016  10.324  11.749   5.965
76728SOL    HW232017  10.353  11.879   5.893
76729SOL     OW32018  14.661   9.645   9.286
76729SOL    HW132019  14.735   9.704   9.294
76729SOL    HW232020  14.685   9.584   9.216
76730SOL     OW32021   2.550  12.611   2.204
76730SOL    HW132022   2.588  12.619   2.117
76730SOL    HW232023   2.612  12.556   2.252
76731SOL     OW32024  13.646  11.851  14.322
76731SOL    HW132025  13.704  11.905  14.269
76731SOL    HW232026  13.692  11.767  14.329
76732SOL     OW32027   7.342  13.696   4.780
76732SOL    HW132028   7.359  13.627   4.717
76732SOL    HW232029   7.394  13.770   4.751
76733SOL     OW32030   6.549   9.869  12.937
76733SOL    HW132031   6.642   9.889  12.926
76733SOL    HW232032   6.503   9.947  12.905
76734SOL     OW32033  11.702   0.244   9.983
76734SOL    HW132034  11.612   0.273   9.996
76734SOL    HW232035  11.752   0.288  10.051
76735SOL     OW32036  11.052   3.099  10.678
76735SOL    HW132037  10.996   3.151  10.736
76735SOL    HW232038  11.096   3.164  10.622
76736SOL     OW32039   1.037   8.839   4.110
76736SOL    HW132040   1.009   8.842   4.018
76736SOL    HW232041   0.997   8.916   4.150
76737SOL     OW32042   1.880   9.285   3.422
76737SOL    HW132043   1.892   9.270   3.516
76737SOL    HW232044   1.788   9.311   3.413
76738SOL     OW32045   0.199   4.932   9.476
76738SOL    HW132046   0.242   5.013   9.504
76738SOL    HW232047   0.205   4.934   9.380
76739SOL     OW32048   1.523   1.540   4.927
76739SOL    HW132049   1.538   1.475   4.858
76739SOL    HW232050   1.434   1.571   4.913
76740SOL     OW32051  11.359  12.639   0.525
76740SOL    HW132052  11.446  12.605   0.547
76740SOL    HW232053  11.366  12.662   0.432
76741SOL     OW32054   4.714   4.848   6.063
76741SOL    HW132055   4.722   4.893   5.978
76741SOL    HW232056   4.776   4.775   6.057
76742SOL     OW32057   0.308  13.980   6.442
76742SOL    HW132058   0.330  14.023   6.525
76742SOL    HW232059   0.306  14.051   6.378
76743SOL     OW32060   5.472  11.227  13.520
76743SOL    HW132061   5.514  11.306  13.486
76743SOL    HW232062   5.472  11.239  13.615
76744SOL     OW32063   0.907  14.081   3.029
76744SOL    HW132064   0.966  14.153   3.004
76744SOL    HW232065   0.956  14.002   3.009
76745SOL     OW32066  13.235   7.737   4.125
76745SOL    HW132067  13.233   7.826   4.162
76745SOL    HW232068  13.233   7.680   4.202
76746SOL     OW32069  12.146   7.967   2.732
76746SOL    HW132070  12.216   7.950   2.669
76746SOL    HW232071  12.076   8.005   2.680
76747SOL     OW32072  12.961  13.374   8.350
76747SOL    HW132073  13.010  13.311   8.403
76747SOL    HW232074  12.906  13.421   8.413
76748SOL     OW32075   5.364   8.584  12.338
76748SOL    HW132076   5.336   8.524  12.407
76748SOL    HW232077   5.382   8.527  12.263
76749SOL     OW32078   0.060   4.304   8.877
76749SOL    HW132079   0.018   4.348   8.951
76749SOL    HW232080  14.864   4.257   8.834
76750SOL     OW32081   1.448  13.814   4.217
76750SOL    HW132082   1.379  13.799   4.281
76750SOL    HW232083   1.522  13.847   4.268
76751SOL     OW32084   1.703   2.873   6.416
76751SOL    HW132085   1.772   2.808   6.432
76751SOL    HW232086   1.657   2.881   6.500
76752SOL     OW32087   2.946   6.605  10.943
76752SOL    HW132088   3.013   6.596  11.010
76752SOL    HW232089   2.994   6.610  10.861
76753SOL     OW32090   6.061  11.681  12.641
76753SOL    HW132091   6.010  11.633  12.706
76753SOL    HW232092   6.122  11.616  12.605
76754SOL     OW32093   9.884  10.711   4.569
76754SOL    HW132094   9.854  10.780   4.509
76754SOL    HW232095   9.875  10.750   4.656
76755SOL     OW32096  13.923  11.158   2.677
76755SOL    HW132097  13.960  11.072   2.695
76755SOL    HW232098  13.830  11.141   2.659
76756SOL     OW32099   4.096  11.682  13.392
76756SOL    HW132100   4.181  11.692  13.350
76756SOL    HW232101   4.035  11.669  13.320
76757SOL     OW32102  11.075   5.415  13.126
76757SOL    HW132103  11.099   5.336  13.078
76757SOL    HW232104  11.122   5.408  13.209
76758SOL     OW32105   1.634   0.529  11.213
76758SOL    HW132106   1.670   0.453  11.258
76758SOL    HW232107   1.640   0.507  11.120
76759SOL     OW32108   7.517   7.605   3.100
76759SOL    HW132109   7.534   7.548   3.175
76759SOL    HW232110   7.466   7.550   3.040
76760SOL     OW32111   5.343  11.879   5.054
76760SOL    HW132112   5.394  11.941   5.002
76760SOL    HW232113   5.401  11.857   5.127
76761SOL     OW32114   5.152   9.588   1.904
76761SOL    HW132115   5.066   9.615   1.872
76761SOL    HW232116   5.181   9.522   1.841
76762SOL     OW32117  11.763   2.704  13.359
76762SOL    HW132118  11.836   2.695  13.421
76762SOL    HW232119  11.687   2.721  13.415
76763SOL     OW32120  14.139   2.140   4.762
76763SOL    HW132121  14.222   2.110   4.801
76763SOL    HW232122  14.162   2.166   4.673
76764SOL     OW32123  14.079   5.826  13.277
76764SOL    HW132124  13.987   5.850  13.273
76764SOL    HW232125  14.112   5.870  13.355
76765SOL     OW32126   9.111   2.979   7.350
76765SOL    HW132127   9.160   2.905   7.316
76765SOL    HW232128   9.121   2.975   7.445
76766SOL     OW32129   2.646   1.971  11.157
76766SOL    HW132130   2.560   1.995  11.192
76766SOL    HW232131   2.669   2.041  11.097
76767SOL     OW32132   6.225  12.604   3.591
76767SOL    HW132133   6.270  12.528   3.627
76767SOL    HW232134   6.145  12.611   3.643
76768SOL     OW32135   9.022   9.086   8.098
76768SOL    HW132136   9.069   9.067   8.017
76768SOL    HW232137   9.056   9.023   8.161
76769SOL     OW32138  10.244  11.374  10.607
76769SOL    HW132139  10.337  11.356  10.620
76769SOL    HW232140  10.231  11.462  10.642
76770SOL     OW32141   4.407   1.948   7.081
76770SOL    HW132142   4.450   1.918   7.001
76770SOL    HW232143   4.480   1.975   7.138
76771SOL     OW32144   4.740   2.197  11.564
76771SOL    HW132145   4.832   2.213  11.583
76771SOL    HW232146   4.738   2.176  11.470
76772SOL     OW32147   0.990  10.730   5.268
76772SOL    HW132148   0.944  10.693   5.193
76772SOL    HW232149   0.922  10.748   5.333
76773SOL     OW32150   7.792   0.880   3.813
76773SOL    HW132151   7.831   0.807   3.862
76773SOL    HW232152   7.746   0.931   3.880
76774SOL     OW32153  11.871   0.145  11.277
76774SOL    HW132154  11.817   0.214  11.316
76774SOL    HW232155  11.810   0.073  11.263
76775SOL     OW32156   7.915   3.610   1.847
76775SOL    HW132157   7.970   3.549   1.897
76775SOL    HW232158   7.847   3.638   1.910
76776SOL     OW32159  10.554  11.436   7.034
76776SOL    HW132160  10.551  11.488   7.114
76776SOL    HW232161  10.495  11.481   6.974
76777SOL     OW32162   3.491  13.885   4.484
76777SOL    HW132163   3.451  13.812   4.532
76777SOL    HW232164   3.446  13.885   4.399
76778SOL     OW32165   5.451   8.988  11.802
76778SOL    HW132166   5.541   9.002  11.831
76778SOL    HW232167   5.436   9.054  11.735
76779SOL     OW32168  12.416  14.709   1.455
76779SOL    HW132169  12.427  14.618   1.425
76779SOL    HW232170  12.487  14.721   1.518
76780SOL     OW32171   1.061   0.229   1.731
76780SOL    HW132172   1.080   0.257   1.641
76780SOL    HW232173   1.008   0.300   1.767
76781SOL     OW32174   3.880   6.476   3.438
76781SOL    HW132175   3.951   6.459   3.500
76781SOL    HW232176   3.918   6.538   3.375
76782SOL     OW32177   3.755   3.754   5.110
76782SOL    HW132178   3.829   3.813   5.123
76782SOL    HW232179   3.719   3.780   5.025
76783SOL     OW32180  10.620   6.232  13.036
76783SOL    HW132181  10.672   6.153  13.052
76783SOL    HW232182  10.542   6.202  12.991
76784SOL     OW32183  14.119   9.261   9.054
76784SOL    HW132184  14.175   9.297   8.985
76784SOL    HW232185  14.042   9.319   9.054
76785SOL     OW32186   1.657   8.617   4.657
76785SOL    HW132187   1.626   8.636   4.568
76785SOL    HW232188   1.738   8.668   4.664
76786SOL     OW32189   8.554  10.392   9.951
76786SOL    HW132190   8.533  10.362   9.863
76786SOL    HW232191   8.562  10.312  10.002
76787SOL     OW32192   7.886   3.237   0.000
76787SOL    HW132193   7.980   3.253   0.001
76787SOL    HW232194   7.852   3.299  14.812
76788SOL     OW32195  10.514   4.606  14.010
76788SOL    HW132196  10.584   4.548  13.980
76788SOL    HW232197  10.511   4.594  14.105
76789SOL     OW32198  14.821  11.019  11.986
76789SOL    HW132199   0.035  11.044  11.969
76789SOL    HW232200  14.815  10.928  11.955
76790SOL     OW32201   5.818   5.130   5.665
76790SOL    HW132202   5.845   5.181   5.742
76790SOL    HW232203   5.783   5.196   5.604
76791SOL     OW32204  13.441  13.268   8.131
76791SOL    HW132205  13.407  13.263   8.041
76791SOL    HW232206  13.375  13.318   8.178
76792SOL     OW32207  12.138   1.957   8.771
76792SOL    HW132208  12.160   1.864   8.767
76792SOL    HW232209  12.223   2.001   8.769
76793SOL     OW32210   3.094   9.150   3.405
76793SOL    HW132211   3.170   9.144   3.463
76793SOL    HW232212   3.066   9.059   3.393
76794SOL     OW32213   0.450   1.524   7.167
76794SOL    HW132214   0.540   1.548   7.187
76794SOL    HW232215   0.451   1.428   7.163
76795SOL     OW32216   4.723   6.914   9.136
76795SOL    HW132217   4.657   6.984   9.137
76795SOL    HW232218   4.766   6.920   9.222
76796SOL     OW32219  10.327  13.420   9.579
76796SOL    HW132220  10.367  13.418   9.666
76796SOL    HW232221  10.272  13.342   9.577
76797SOL     OW32222   6.084  14.021   4.165
76797SOL    HW132223   6.136  13.940   4.157
76797SOL    HW232224   6.127  14.070   4.235
76798SOL     OW32225  14.836   7.269  14.730
76798SOL    HW132226  14.849   7.174  14.731
76798SOL    HW232227  14.852   7.294  14.639
76799SOL     OW32228   5.938   2.531   0.171
76799SOL    HW132229   5.923   2.444   0.208
76799SOL    HW232230   5.998   2.574   0.233
76800SOL     OW32231   2.244   8.947   9.054
76800SOL    HW132232   2.230   8.871   8.997
76800SOL    HW232233   2.224   8.914   9.142
76801SOL     OW32234   7.288   9.962   4.108
76801SOL    HW132235   7.338   9.889   4.144
76801SOL    HW232236   7.217   9.921   4.058
76802SOL     OW32237  11.774   3.554   7.049
76802SOL    HW132238  11.735   3.559   7.136
76802SOL    HW232239  11.866   3.579   7.063
76803SOL     OW32240   2.773   7.049  11.546
76803SOL    HW132241   2.862   7.018  11.563
76803SOL    HW232242   2.716   6.986  11.591
76804SOL     OW32243  10.554  14.485   2.883
76804SOL    HW132244  10.550  14.568   2.930
76804SOL    HW232245  10.570  14.509   2.792
76805SOL     OW32246  10.726   0.175   3.996
76805SOL    HW132247  10.702   0.227   3.919
76805SOL    HW232248  10.798   0.120   3.966
76806SOL     OW32249  13.151  13.907   0.854
76806SOL    HW132250  13.062  13.944   0.852
76806SOL    HW232251  13.196  13.956   0.923
76807SOL     OW32252   6.863  11.054  14.807
76807SOL    HW132253   6.928  11.007  14.861
76807SOL    HW232254   6.868  11.012  14.722
76808SOL     OW32255   1.031  10.962  13.075
76808SOL    HW132256   1.035  10.955  12.979
76808SOL    HW232257   0.938  10.972  13.095
76809SOL     OW32258   0.702  13.982   6.779
76809SOL    HW132259   0.692  13.892   6.747
76809SOL    HW232260   0.613  14.016   6.784
76810SOL     OW32261   3.030   5.985   7.662
76810SOL    HW132262   2.948   5.954   7.622
76810SOL    HW232263   3.081   6.020   7.589
76811SOL     OW32264  14.654  10.262   1.893
76811SOL    HW132265  14.747  10.238   1.897
76811SOL    HW232266  14.621  10.217   1.815
76812SOL     OW32267   6.350   7.818   2.037
76812SOL    HW132268   6.415   7.866   1.987
76812SOL    HW232269   6.394   7.793   2.118
76813SOL     OW32270   4.820  13.785   8.635
76813SOL    HW132271   4.865  13.869   8.627
76813SOL    HW232272   4.870  13.739   8.703
76814SOL     OW32273   3.204   2.093   9.633
76814SOL    HW132274   3.259   2.073   9.709
76814SOL    HW232275   3.204   2.189   9.627
76815SOL     OW32276   6.773   3.231   0.957
76815SOL    HW132277   6.740   3.320   0.967
76815SOL    HW232278   6.825   3.215   1.036
76816SOL     OW32279  12.377   4.868  10.904
76816SOL    HW132280  12.395   4.774  10.902
76816SOL    HW232281  12.418   4.901  10.823
76817SOL     OW32282  12.784  13.815   0.206
76817SOL    HW132283  12.750  13.770   0.128
76817SOL    HW232284  12.715  13.876   0.230
76818SOL     OW32285  14.155  12.189  10.032
76818SOL    HW132286  14.082  12.200   9.971
76818SOL    HW232287  14.159  12.271  10.080
76819SOL     OW32288  10.837  14.364   2.986
76819SOL    HW132289  10.918  14.315   3.002
76819SOL    HW232290  10.860  14.455   3.008
76820SOL     OW32291  10.556  12.198   6.505
76820SOL    HW132292  10.496  12.216   6.577
76820SOL    HW232293  10.500  12.162   6.436
76821SOL     OW32294   3.234   2.263  10.759
76821SOL    HW132295   3.283   2.196  10.806
76821SOL    HW232296   3.145   2.227  10.752
76822SOL     OW32297   8.015   5.359   7.811
76822SOL    HW132298   7.994   5.355   7.904
76822SOL    HW232299   8.111   5.351   7.808
76823SOL     OW32300   8.209   8.142   2.871
76823SOL    HW132301   8.169   8.229   2.867
76823SOL    HW232302   8.249   8.138   2.958
76824SOL     OW32303   3.919  12.496   1.363
76824SOL    HW132304   4.008  12.461   1.357
76824SOL    HW232305   3.873  12.434   1.419
76825SOL     OW32306  14.033  10.593   3.430
76825SOL    HW132307  13.959  10.533   3.417
76825SOL    HW232308  14.013  10.668   3.373
76826SOL     OW32309  11.231   7.694   0.088
76826SOL    HW132310  11.207   7.602   0.078
76826SOL    HW232311  11.161   7.742   0.044
76827SOL     OW32312   2.781   7.895  12.123
76827SOL    HW132313   2.823   7.809  12.113
76827SOL    HW232314   2.689   7.875  12.140
76828SOL     OW32315  14.061  13.479   8.004
76828SOL    HW132316  14.007  13.549   7.968
76828SOL    HW232317  14.119  13.454   7.931
76829SOL     OW32318   8.073   9.007   4.288
76829SOL    HW132319   8.105   8.966   4.368
76829SOL    HW232320   7.990   8.963   4.270
76830SOL     OW32321  11.068  11.190   3.752
76830SOL    HW132322  11.061  11.213   3.845
76830SOL    HW232323  10.984  11.217   3.714
76831SOL     OW32324   8.781   0.837   0.717
76831SOL    HW132325   8.817   0.765   0.667
76831SOL    HW232326   8.735   0.891   0.653
76832SOL     OW32327   2.028  12.196   2.582
76832SOL    HW132328   1.971  12.128   2.617
76832SOL    HW232329   2.110  12.185   2.631
76833SOL     OW32330  10.693   7.420  12.328
76833SOL    HW132331  10.704   7.419  12.423
76833SOL    HW232332  10.668   7.330  12.306
76834SOL     OW32333   8.853   1.630   2.673
76834SOL    HW132334   8.860   1.625   2.577
76834SOL    HW232335   8.880   1.543   2.703
76835SOL     OW32336   4.350   5.392   5.099
76835SOL    HW132337   4.322   5.420   5.186
76835SOL    HW232338   4.271   5.397   5.046
76836SOL     OW32339  10.784   9.992   6.814
76836SOL    HW132340  10.765   9.899   6.824
76836SOL    HW232341  10.743  10.034   6.890
76837SOL     OW32342   7.733   1.603   9.180
76837SOL    HW132343   7.677   1.551   9.122
76837SOL    HW232344   7.788   1.538   9.224
76838SOL     OW32345   3.274   9.817   1.952
76838SOL    HW132346   3.309   9.836   1.865
76838SOL    HW232347   3.345   9.840   2.012
76839SOL     OW32348  13.823   0.867  10.452
76839SOL    HW132349  13.879   0.817  10.512
76839SOL    HW232350  13.762   0.803  10.416
76840SOL     OW32351   3.656  13.130   8.004
76840SOL    HW132352   3.742  13.098   7.979
76840SOL    HW232353   3.600  13.052   8.001
76841SOL     OW32354  14.142   1.693   5.592
76841SOL    HW132355  14.180   1.774   5.625
76841SOL    HW232356  14.217   1.635   5.576
76842SOL     OW32357   1.863   5.550  14.428
76842SOL    HW132358   1.867   5.460  14.394
76842SOL    HW232359   1.909   5.545  14.512
76843SOL     OW32360   4.181   1.072   9.033
76843SOL    HW132361   4.136   1.048   9.115
76843SOL    HW232362   4.110   1.086   8.971
76844SOL     OW32363   1.939   4.130   6.321
76844SOL    HW132364   1.979   4.073   6.386
76844SOL    HW232365   1.907   4.205   6.371
76845SOL     OW32366   7.881   4.159   2.538
76845SOL    HW132367   7.920   4.074   2.562
76845SOL    HW232368   7.792   4.154   2.571
76846SOL     OW32369   0.226  12.058   6.828
76846SOL    HW132370   0.142  12.078   6.787
76846SOL    HW232371   0.291  12.092   6.766
76847SOL     OW32372  13.650   0.905   7.909
76847SOL    HW132373  13.664   0.995   7.937
76847SOL    HW232374  13.626   0.858   7.990
76848SOL     OW32375   6.446   6.573   3.588
76848SOL    HW132376   6.424   6.491   3.544
76848SOL    HW232377   6.418   6.560   3.678
76849SOL     OW32378   6.081  11.339  14.624
76849SOL    HW132379   6.102  11.255  14.583
76849SOL    HW232380   6.154  11.396  14.601
76850SOL     OW32381   5.280   1.320   3.576
76850SOL    HW132382   5.233   1.356   3.651
76850SOL    HW232383   5.339   1.254   3.614
76851SOL     OW32384  13.830   8.583  10.540
76851SOL    HW132385  13.890   8.523  10.494
76851SOL    HW232386  13.773   8.525  10.591
76852SOL     OW32387   6.776  10.590  10.670
76852SOL    HW132388   6.726  10.619  10.747
76852SOL    HW232389   6.865  10.622  10.686
76853SOL     OW32390  14.829   7.976   9.675
76853SOL    HW132391  14.784   7.955   9.757
76853SOL    HW232392  14.814   7.899   9.619
76854SOL     OW32393   4.938  12.256  11.752
76854SOL    HW132394   4.886  12.336  11.751
76854SOL    HW232395   5.009  12.273  11.814
76855SOL     OW32396   8.667  12.043  10.230
76855SOL    HW132397   8.623  11.964  10.262
76855SOL    HW232398   8.672  12.032  10.135
76856SOL     OW32399   4.315  14.822   9.936
76856SOL    HW132400   4.281   0.017   9.991
76856SOL    HW232401   4.355  14.868   9.862
76857SOL     OW32402   6.923   0.449  14.468
76857SOL    HW132403   7.005   0.430  14.422
76857SOL    HW232404   6.941   0.529  14.518
76858SOL     OW32405   0.969  11.437   4.344
76858SOL    HW132406   0.888  11.411   4.388
76858SOL    HW232407   0.994  11.519   4.386
76859SOL     OW32408  13.038   7.319   5.510
76859SOL    HW132409  13.078   7.253   5.453
76859SOL    HW232410  12.949   7.286   5.526
76860SOL     OW32411   2.766  10.750  11.502
76860SOL    HW132412   2.722  10.700  11.433
76860SOL    HW232413   2.759  10.695  11.579
76861SOL     OW32414   2.110   3.228   6.189
76861SOL    HW132415   2.052   3.290   6.233
76861SOL    HW232416   2.186   3.222   6.247
76862SOL     OW32417   4.777  10.112   8.550
76862SOL    HW132418   4.848  10.074   8.498
76862SOL    HW232419   4.822  10.169   8.613
76863SOL     OW32420   4.222   9.465  10.086
76863SOL    HW132421   4.197   9.452  10.178
76863SOL    HW232422   4.317   9.469  10.087
76864SOL     OW32423   4.559  14.720   0.502
76864SOL    HW132424   4.540  14.790   0.440
76864SOL    HW232425   4.565  14.641   0.448
76865SOL     OW32426  14.810   0.619   6.194
76865SOL    HW132427  14.738   0.612   6.131
76865SOL    HW232428  14.768   0.619   6.280
76866SOL     OW32429   3.471   2.626   0.105
76866SOL    HW132430   3.478   2.638   0.200
76866SOL    HW232431   3.562   2.625   0.074
76867SOL     OW32432   2.693   9.824   4.300
76867SOL    HW132433   2.771   9.821   4.355
76867SOL    HW232434   2.676   9.918   4.287
76868SOL     OW32435   1.160   9.150  14.360
76868SOL    HW132436   1.122   9.231  14.394
76868SOL    HW232437   1.087   9.089  14.357
76869SOL     OW32438   1.848   6.495   9.191
76869SOL    HW132439   1.861   6.482   9.097
76869SOL    HW232440   1.770   6.444   9.211
76870SOL     OW32441   7.290   8.548  10.803
76870SOL    HW132442   7.283   8.494  10.725
76870SOL    HW232443   7.219   8.517  10.859
76871SOL     OW32444  11.025  12.553  14.780
76871SOL    HW132445  10.976  12.504  14.714
76871SOL    HW232446  10.992  12.642  14.773
76872SOL     OW32447   2.119  14.205   7.695
76872SOL    HW132448   2.099  14.255   7.774
76872SOL    HW232449   2.213  14.213   7.684
76873SOL     OW32450  10.833   6.874  14.087
76873SOL    HW132451  10.839   6.969  14.084
76873SOL    HW232452  10.917   6.843  14.052
76874SOL     OW32453   8.485   2.851  10.640
76874SOL    HW132454   8.578   2.858  10.617
76874SOL    HW232455   8.485   2.812  10.727
76875SOL     OW32456   1.348  12.740  13.716
76875SOL    HW132457   1.417  12.806  13.723
76875SOL    HW232458   1.271  12.782  13.755
76876SOL     OW32459   0.318  13.818   5.748
76876SOL    HW132460   0.322  13.739   5.693
76876SOL    HW232461   0.389  13.807   5.811
76877SOL     OW32462   9.243  11.090   5.902
76877SOL    HW132463   9.166  11.047   5.866
76877SOL    HW232464   9.313  11.024   5.894
76878SOL     OW32465  13.162   9.035   5.241
76878SOL    HW132466  13.230   9.066   5.181
76878SOL    HW232467  13.089   9.011   5.184
76879SOL     OW32468   3.432   3.862   8.774
76879SOL    HW132469   3.458   3.926   8.708
76879SOL    HW232470   3.511   3.809   8.788
76880SOL     OW32471  14.215   5.871   7.910
76880SOL    HW132472  14.298   5.832   7.881
76880SOL    HW232473  14.155   5.857   7.837
76881SOL     OW32474  10.814   0.461  11.094
76881SOL    HW132475  10.854   0.512  11.165
76881SOL    HW232476  10.765   0.526  11.043
76882SOL     OW32477   6.729   3.990  10.811
76882SOL    HW132478   6.699   3.924  10.749
76882SOL    HW232479   6.651   4.043  10.829
76883SOL     OW32480   5.046   7.920   7.100
76883SOL    HW132481   5.116   7.856   7.088
76883SOL    HW232482   5.007   7.896   7.184
76884SOL     OW32483   4.403   7.047  11.003
76884SOL    HW132484   4.342   7.005  11.063
76884SOL    HW232485   4.418   6.982  10.934
76885SOL     OW32486  14.207   0.365   6.119
76885SOL    HW132487  14.134   0.372   6.058
76885SOL    HW232488  14.232   0.455   6.139
76886SOL     OW32489  10.051   3.054   2.683
76886SOL    HW132490  10.121   3.023   2.740
76886SOL    HW232491   9.996   2.977   2.668
76887SOL     OW32492   6.977   2.963   7.969
76887SOL    HW132493   7.054   2.985   7.918
76887SOL    HW232494   7.007   2.895   8.030
76888SOL     OW32495  11.654   4.672  11.491
76888SOL    HW132496  11.569   4.648  11.528
76888SOL    HW232497  11.717   4.648  11.558
76889SOL     OW32498  13.302   0.658  13.368
76889SOL    HW132499  13.354   0.626  13.294
76889SOL    HW232500  13.212   0.630  13.347
76890SOL     OW32501   0.711  11.331   8.429
76890SOL    HW132502   0.670  11.254   8.391
76890SOL    HW232503   0.639  11.394   8.438
76891SOL     OW32504   4.781  12.684   8.221
76891SOL    HW132505   4.829  12.602   8.237
76891SOL    HW232506   4.706  12.678   8.280
76892SOL     OW32507   8.830  13.351   5.170
76892SOL    HW132508   8.771  13.277   5.186
76892SOL    HW232509   8.912  13.324   5.211
76893SOL     OW32510  10.034  14.560   5.625
76893SOL    HW132511  10.076  14.640   5.593
76893SOL    HW232512   9.969  14.591   5.688
76894SOL     OW32513   3.343   1.495  10.200
76894SOL    HW132514   3.305   1.421  10.249
76894SOL    HW232515   3.299   1.492  10.115
76895SOL     OW32516   0.369   9.871  13.270
76895SOL    HW132517   0.425   9.809  13.222
76895SOL    HW232518   0.340   9.933  13.203
76896SOL     OW32519  11.533  11.921   0.902
76896SOL    HW132520  11.514  11.996   0.846
76896SOL    HW232521  11.451  11.871   0.904
76897SOL     OW32522   2.302   7.985   1.084
76897SOL    HW132523   2.281   7.912   1.142
76897SOL    HW232524   2.287   8.063   1.138
76898SOL     OW32525   0.053   6.413   7.255
76898SOL    HW132526   0.070   6.384   7.165
76898SOL    HW232527   0.013   6.499   7.245
76899SOL     OW32528   4.083   1.677  14.556
76899SOL    HW132529   4.025   1.753  14.553
76899SOL    HW232530   4.142   1.695  14.629
76900SOL     OW32531  12.239  12.984   8.878
76900SOL    HW132532  12.329  12.996   8.847
76900SOL    HW232533  12.221  13.062   8.930
76901SOL     OW32534   4.437   5.609   9.381
76901SOL    HW132535   4.507   5.616   9.316
76901SOL    HW232536   4.441   5.518   9.410
76902SOL     OW32537  13.844  10.492   3.773
76902SOL    HW132538  13.808  10.487   3.684
76902SOL    HW232539  13.892  10.574   3.775
76903SOL     OW32540   4.810   7.237   8.952
76903SOL    HW132541   4.903   7.257   8.943
76903SOL    HW232542   4.791   7.255   9.044
76904SOL     OW32543  10.587  10.493  10.116
76904SOL    HW132544  10.576  10.561  10.049
76904SOL    HW232545  10.558  10.412  10.074
76905SOL     OW32546   2.526   3.188  14.411
76905SOL    HW132547   2.553   3.101  14.440
76905SOL    HW232548   2.597   3.246  14.438
76906SOL     OW32549  10.474   2.979   8.240
76906SOL    HW132550  10.552   3.015   8.283
76906SOL    HW232551  10.402   3.007   8.296
76907SOL     OW32552   2.290  14.232  10.301
76907SOL    HW132553   2.309  14.144  10.333
76907SOL    HW232554   2.262  14.218  10.210
76908SOL     OW32555   2.714   4.839   9.690
76908SOL    HW132556   2.627   4.815   9.656
76908SOL    HW232557   2.708   4.933   9.706
76909SOL     OW32558  14.838  14.775   4.447
76909SOL    HW132559  14.854  14.683   4.426
76909SOL    HW232560   0.036  14.822   4.406
76910SOL     OW32561   8.906   1.317   0.333
76910SOL    HW132562   8.822   1.280   0.358
76910SOL    HW232563   8.965   1.291   0.404
76911SOL     OW32564  10.433   5.616   8.451
76911SOL    HW132565  10.394   5.602   8.365
76911SOL    HW232566  10.491   5.692   8.439
76912SOL     OW32567   2.310   5.437   9.380
76912SOL    HW132568   2.227   5.406   9.345
76912SOL    HW232569   2.321   5.524   9.341
76913SOL     OW32570   6.955  12.302   6.608
76913SOL    HW132571   6.996  12.215   6.614
76913SOL    HW232572   6.914  12.315   6.694
76914SOL     OW32573   1.508   0.612  14.142
76914SOL    HW132574   1.489   0.687  14.085
76914SOL    HW232575   1.596   0.629  14.175
76915SOL     OW32576   1.971  14.448   4.621
76915SOL    HW132577   2.052  14.401   4.638
76915SOL    HW232578   1.993  14.540   4.635
76916SOL     OW32579  13.683   4.042   8.662
76916SOL    HW132580  13.756   4.033   8.723
76916SOL    HW232581  13.673   4.136   8.650
76917SOL     OW32582   6.076  12.221   6.066
76917SOL    HW132583   6.056  12.214   6.159
76917SOL    HW232584   6.172  12.223   6.062
76918SOL     OW32585  12.200   2.409   9.238
76918SOL    HW132586  12.116   2.435   9.275
76918SOL    HW232587  12.258   2.482   9.258
76919SOL     OW32588   7.092   6.768   5.915
76919SOL    HW132589   7.182   6.800   5.906
76919SOL    HW232590   7.082   6.705   5.844
76920SOL     OW32591   3.371  11.802   9.777
76920SOL    HW132592   3.453  11.805   9.827
76920SOL    HW232593   3.371  11.882   9.725
76921SOL     OW32594   0.425   6.424   0.653
76921SOL    HW132595   0.428   6.506   0.701
76921SOL    HW232596   0.465   6.360   0.713
76922SOL     OW32597   6.274   3.661   8.462
76922SOL    HW132598   6.293   3.626   8.550
76922SOL    HW232599   6.290   3.588   8.403
76923SOL     OW32600   9.164   0.794  12.268
76923SOL    HW132601   9.080   0.795  12.223
76923SOL    HW232602   9.224   0.838  12.209
76924SOL     OW32603   0.507  14.629   5.322
76924SOL    HW132604   0.545  14.544   5.301
76924SOL    HW232605   0.481  14.622   5.414
76925SOL     OW32606   3.339   2.702   7.611
76925SOL    HW132607   3.425   2.703   7.653
76925SOL    HW232608   3.285   2.648   7.669
76926SOL     OW32609   9.255   3.149   4.442
76926SOL    HW132610   9.160   3.165   4.443
76926SOL    HW232611   9.263   3.054   4.449
76927SOL     OW32612  10.247   2.699   9.202
76927SOL    HW132613  10.219   2.712   9.111
76927SOL    HW232614  10.169   2.719   9.254
76928SOL     OW32615  12.285   3.445  14.213
76928SOL    HW132616  12.285   3.378  14.281
76928SOL    HW232617  12.364   3.427  14.162
76929SOL     OW32618   8.431   5.620  12.404
76929SOL    HW132619   8.402   5.538  12.445
76929SOL    HW232620   8.526   5.621  12.418
76930SOL     OW32621  10.355  14.361   1.400
76930SOL    HW132622  10.386  14.318   1.320
76930SOL    HW232623  10.391  14.449   1.395
76931SOL     OW32624  13.992   1.113  11.798
76931SOL    HW132625  13.958   1.057  11.868
76931SOL    HW232626  14.026   1.052  11.732
76932SOL     OW32627  12.100   0.433  11.983
76932SOL    HW132628  12.088   0.388  12.066
76932SOL    HW232629  12.194   0.452  11.979
76933SOL     OW32630   1.925   3.841   4.983
76933SOL    HW132631   1.985   3.885   5.043
76933SOL    HW232632   1.838   3.866   5.014
76934SOL     OW32633   2.522   9.793   6.588
76934SOL    HW132634   2.438   9.800   6.543
76934SOL    HW232635   2.584   9.768   6.520
76935SOL     OW32636  10.353   7.848   5.239
76935SOL    HW132637  10.262   7.853   5.268
76935SOL    HW232638  10.385   7.764   5.272
76936SOL     OW32639   1.532   0.960  14.251
76936SOL    HW132640   1.626   0.946  14.266
76936SOL    HW232641   1.489   0.887  14.295
76937SOL     OW32642   9.108   3.961   7.272
76937SOL    HW132643   9.146   3.897   7.333
76937SOL    HW232644   9.015   3.940   7.270
76938SOL     OW32645  11.356   7.823  11.438
76938SOL    HW132646  11.445   7.824  11.403
76938SOL    HW232647  11.364   7.779  11.522
76939SOL     OW32648   5.904  11.324  11.559
76939SOL    HW132649   5.924  11.241  11.517
76939SOL    HW232650   5.986  11.374  11.553
76940SOL     OW32651   6.116   8.227   0.743
76940SOL    HW132652   6.130   8.153   0.801
76940SOL    HW232653   6.042   8.202   0.688
76941SOL     OW32654  10.408   5.634   5.164
76941SOL    HW132655  10.379   5.579   5.091
76941SOL    HW232656  10.407   5.576   5.240
76942SOL     OW32657   1.584   2.501  14.093
76942SOL    HW132658   1.540   2.449  14.026
76942SOL    HW232659   1.615   2.437  14.157
76943SOL     OW32660   4.719   8.362   3.547
76943SOL    HW132661   4.717   8.418   3.468
76943SOL    HW232662   4.809   8.367   3.577
76944SOL     OW32663  10.291   7.970  13.556
76944SOL    HW132664  10.316   7.888  13.598
76944SOL    HW232665  10.244   7.943  13.477
76945SOL     OW32666  12.796   2.127   5.613
76945SOL    HW132667  12.845   2.206   5.588
76945SOL    HW232668  12.704   2.154   5.609
76946SOL     OW32669  11.152  12.465   4.473
76946SOL    HW132670  11.171  12.514   4.393
76946SOL    HW232671  11.131  12.532   4.538
76947SOL     OW32672   6.441   0.015   0.660
76947SOL    HW132673   6.534   0.003   0.680
76947SOL    HW232674   6.419   0.101   0.696
76948SOL     OW32675   0.900  13.222  11.660
76948SOL    HW132676   0.984  13.249  11.623
76948SOL    HW232677   0.840  13.218  11.586
76949SOL     OW32678   9.246   3.842   5.777
76949SOL    HW132679   9.231   3.776   5.846
76949SOL    HW232680   9.167   3.838   5.723
76950SOL     OW32681   2.875   8.750   1.131
76950SOL    HW132682   2.962   8.789   1.137
76950SOL    HW232683   2.873   8.710   1.044
76951SOL     OW32684  13.498   8.625   4.056
76951SOL    HW132685  13.437   8.698   4.049
76951SOL    HW232686  13.533   8.631   4.145
76952SOL     OW32687   5.382   2.097  14.055
76952SOL    HW132688   5.391   2.065  14.145
76952SOL    HW232689   5.288   2.099  14.039
76953SOL     OW32690  11.692  12.562   2.477
76953SOL    HW132691  11.765  12.511   2.512
76953SOL    HW232692  11.648  12.503   2.416
76954SOL     OW32693   3.935   9.475   4.327
76954SOL    HW132694   3.937   9.429   4.411
76954SOL    HW232695   3.847   9.512   4.323
76955SOL     OW32696   3.107   4.683   6.053
76955SOL    HW132697   3.045   4.755   6.042
76955SOL    HW232698   3.062   4.621   6.111
76956SOL     OW32699   2.549   8.853  14.727
76956SOL    HW132700   2.483   8.814  14.785
76956SOL    HW232701   2.619   8.789  14.723
76957SOL     OW32702   6.046   7.638   4.933
76957SOL    HW132703   6.105   7.712   4.917
76957SOL    HW232704   5.959   7.676   4.924
76958SOL     OW32705   9.975   3.990   1.715
76958SOL    HW132706  10.063   4.015   1.744
76958SOL    HW232707   9.947   4.062   1.659
76959SOL     OW32708   3.915   0.279  14.744
76959SOL    HW132709   3.943   0.217  14.811
76959SOL    HW232710   3.938   0.238  14.661
76960SOL     OW32711   4.083   8.954  11.369
76960SOL    HW132712   4.167   9.001  11.370
76960SOL    HW232713   4.017   9.023  11.371
76961SOL     OW32714  12.389   6.830  12.760
76961SOL    HW132715  12.349   6.917  12.768
76961SOL    HW232716  12.393   6.796  12.849
76962SOL     OW32717  12.796   7.065  13.891
76962SOL    HW132718  12.718   7.087  13.839
76962SOL    HW232719  12.850   7.012  13.832
76963SOL     OW32720   2.663   3.976   0.286
76963SOL    HW132721   2.604   3.927   0.343
76963SOL    HW232722   2.718   4.026   0.347
76964SOL     OW32723   1.564   9.003   7.269
76964SOL    HW132724   1.495   8.939   7.286
76964SOL    HW232725   1.617   8.963   7.200
76965SOL     OW32726   4.863  13.177   2.481
76965SOL    HW132727   4.865  13.269   2.508
76965SOL    HW232728   4.862  13.128   2.563
76966SOL     OW32729  11.852   6.634  13.633
76966SOL    HW132730  11.941   6.600  13.636
76966SOL    HW232731  11.804   6.572  13.579
76967SOL     OW32732   4.891   1.519   9.788
76967SOL    HW132733   4.958   1.479   9.843
76967SOL    HW232734   4.935   1.595   9.749
76968SOL     OW32735   7.881   2.691   7.317
76968SOL    HW132736   7.801   2.641   7.302
76968SOL    HW232737   7.925   2.645   7.388
76969SOL     OW32738   7.063   9.819   0.194
76969SOL    HW132739   7.116   9.851   0.267
76969SOL    HW232740   6.981   9.868   0.201
76970SOL     OW32741  12.143  11.254  11.773
76970SOL    HW132742  12.225  11.286  11.736
76970SOL    HW232743  12.162  11.236  11.865
76971SOL     OW32744   2.661   0.914   7.969
76971SOL    HW132745   2.613   0.890   7.890
76971SOL    HW232746   2.632   1.003   7.988
76972SOL     OW32747  14.098   5.246   1.128
76972SOL    HW132748  14.173   5.211   1.175
76972SOL    HW232749  14.035   5.174   1.124
76973SOL     OW32750  14.469  11.149  12.186
76973SOL    HW132751  14.426  11.203  12.253
76973SOL    HW232752  14.457  11.199  12.105
76974SOL     OW32753   1.636   6.467   6.024
76974SOL    HW132754   1.711   6.459   6.083
76974SOL    HW232755   1.638   6.387   5.972
76975SOL     OW32756   8.373   2.935   5.189
76975SOL    HW132757   8.354   2.980   5.106
76975SOL    HW232758   8.289   2.934   5.235
76976SOL     OW32759  10.738  10.084   3.398
76976SOL    HW132760  10.777  10.096   3.484
76976SOL    HW232761  10.717  10.172   3.368
76977SOL     OW32762   1.200  14.768  13.001
76977SOL    HW132763   1.131  14.701  13.003
76977SOL    HW232764   1.269  14.729  12.949
76978SOL     OW32765  12.274  14.576   7.506
76978SOL    HW132766  12.261  14.641   7.438
76978SOL    HW232767  12.207  14.510   7.490
76979SOL     OW32768   2.856   9.782   6.863
76979SOL    HW132769   2.780   9.736   6.898
76979SOL    HW232770   2.841   9.785   6.768
76980SOL     OW32771  13.063  11.485  11.961
76980SOL    HW132772  13.100  11.403  11.927
76980SOL    HW232773  12.968  11.472  11.957
76981SOL     OW32774   2.982   0.742   0.276
76981SOL    HW132775   2.890   0.756   0.253
76981SOL    HW232776   3.014   0.680   0.210
76982SOL     OW32777  11.157   2.530   2.597
76982SOL    HW132778  11.211   2.557   2.522
76982SOL    HW232779  11.133   2.440   2.578
76983SOL     OW32780   2.655  12.955   8.221
76983SOL    HW132781   2.615  12.976   8.137
76983SOL    HW232782   2.745  12.931   8.200
76984SOL     OW32783   6.225   5.457  10.301
76984SOL    HW132784   6.205   5.535  10.249
76984SOL    HW232785   6.193   5.384  10.249
76985SOL     OW32786   3.055   3.290  12.552
76985SOL    HW132787   3.118   3.221  12.532
76985SOL    HW232788   2.978   3.267  12.502
76986SOL     OW32789   7.117   0.488   5.906
76986SOL    HW132790   7.102   0.401   5.944
76986SOL    HW232791   7.110   0.548   5.980
76987SOL     OW32792   8.716   5.934   3.436
76987SOL    HW132793   8.661   5.859   3.414
76987SOL    HW232794   8.800   5.917   3.394
76988SOL     OW32795  10.418  12.692   5.192
76988SOL    HW132796  10.495  12.661   5.239
76988SOL    HW232797  10.453  12.751   5.125
76989SOL     OW32798  14.671   6.571   0.954
76989SOL    HW132799  14.687   6.558   1.047
76989SOL    HW232800  14.702   6.660   0.935
76990SOL     OW32801  12.129  12.549   8.749
76990SOL    HW132802  12.177  12.610   8.694
76990SOL    HW232803  12.063  12.510   8.691
76991SOL     OW32804  11.303  14.813   7.863
76991SOL    HW132805  11.349  14.735   7.830
76991SOL    HW232806  11.373  14.873   7.888
76992SOL     OW32807   6.840  13.877  13.740
76992SOL    HW132808   6.748  13.903  13.743
76992SOL    HW232809   6.882  13.928  13.809
76993SOL     OW32810   2.027   5.905   7.975
76993SOL    HW132811   1.941   5.891   8.015
76993SOL    HW232812   2.032   5.839   7.906
76994SOL     OW32813   3.083  12.621   7.922
76994SOL    HW132814   3.079  12.698   7.865
76994SOL    HW232815   3.076  12.547   7.863
76995SOL     OW32816   9.856   8.718  12.348
76995SOL    HW132817   9.847   8.813  12.338
76995SOL    HW232818   9.766   8.685  12.340
76996SOL     OW32819   1.078  12.641  14.295
76996SOL    HW132820   0.989  12.629  14.263
76996SOL    HW232821   1.121  12.695  14.228
76997SOL     OW32822  12.084  12.940   6.804
76997SOL    HW132823  12.028  12.988   6.866
76997SOL    HW232824  12.168  12.934   6.848
76998SOL     OW32825  13.038   7.206   0.507
76998SOL    HW132826  13.103   7.136   0.501
76998SOL    HW232827  12.997   7.208   0.421
76999SOL     OW32828   5.845   3.738   6.250
76999SOL    HW132829   5.821   3.715   6.160
76999SOL    HW232830   5.761   3.757   6.292
77000SOL     OW32831   1.982   1.292  12.607
77000SOL    HW132832   2.021   1.228  12.547
77000SOL    HW232833   2.044   1.296  12.680
77001SOL     OW32834   9.707   3.548   4.222
77001SOL    HW132835   9.717   3.520   4.313
77001SOL    HW232836   9.703   3.466   4.172
77002SOL     OW32837   9.473   1.141  10.044
77002SOL    HW132838   9.514   1.228  10.043
77002SOL    HW232839   9.380   1.158  10.029
77003SOL     OW32840  11.391  11.068   1.056
77003SOL    HW132841  11.435  11.150   1.033
77003SOL    HW232842  11.394  11.016   0.976
77004SOL     OW32843   2.358  13.201   6.235
77004SOL    HW132844   2.375  13.108   6.250
77004SOL    HW232845   2.428  13.230   6.177
77005SOL     OW32846   3.303   8.527   5.985
77005SOL    HW132847   3.342   8.485   5.908
77005SOL    HW232848   3.274   8.613   5.953
77006SOL     OW32849   9.161   6.432   8.962
77006SOL    HW132850   9.095   6.379   8.918
77006SOL    HW232851   9.219   6.367   9.003
77007SOL     OW32852   2.238   6.094   0.151
77007SOL    HW132853   2.324   6.135   0.152
77007SOL    HW232854   2.225   6.064   0.240
77008SOL     OW32855   4.558  13.807   6.016
77008SOL    HW132856   4.582  13.715   6.016
77008SOL    HW232857   4.641  13.854   6.026
77009SOL     OW32858   5.391   1.476  10.644
77009SOL    HW132859   5.333   1.401  10.642
77009SOL    HW232860   5.388   1.506  10.735
77010SOL     OW32861   5.983  11.236   3.917
77010SOL    HW132862   6.036  11.220   3.839
77010SOL    HW232863   5.992  11.157   3.970
77011SOL     OW32864   1.063   3.209   5.626
77011SOL    HW132865   1.154   3.235   5.611
77011SOL    HW232866   1.058   3.192   5.720
77012SOL     OW32867   1.625   4.389   5.932
77012SOL    HW132868   1.597   4.459   5.873
77012SOL    HW232869   1.720   4.397   5.937
77013SOL     OW32870  13.653   9.551   7.039
77013SOL    HW132871  13.675   9.488   6.971
77013SOL    HW232872  13.673   9.636   7.000
77014SOL     OW32873  10.743   1.827   4.308
77014SOL    HW132874  10.703   1.797   4.390
77014SOL    HW232875  10.802   1.898   4.335
77015SOL     OW32876   9.245   4.083   5.594
77015SOL    HW132877   9.316   4.143   5.570
77015SOL    HW232878   9.288   4.000   5.614
77016SOL     OW32879   9.232   6.734  14.528
77016SOL    HW132880   9.255   6.807  14.470
77016SOL    HW232881   9.172   6.681  14.476
77017SOL     OW32882   9.883   6.648   4.314
77017SOL    HW132883   9.803   6.701   4.305
77017SOL    HW232884   9.954   6.710   4.306
77018SOL     OW32885  12.082   5.725   6.374
77018SOL    HW132886  12.056   5.647   6.323
77018SOL    HW232887  12.176   5.733   6.358
77019SOL     OW32888   9.273   4.574   3.861
77019SOL    HW132889   9.294   4.533   3.945
77019SOL    HW232890   9.247   4.501   3.805
77020SOL     OW32891  10.317   5.154   7.043
77020SOL    HW132892  10.279   5.170   7.129
77020SOL    HW232893  10.367   5.073   7.053
77021SOL     OW32894   1.298   9.032  10.946
77021SOL    HW132895   1.309   9.068  10.858
77021SOL    HW232896   1.258   8.947  10.933
77022SOL     OW32897   3.030  14.410   7.264
77022SOL    HW132898   3.120  14.441   7.256
77022SOL    HW232899   2.995  14.417   7.175
77023SOL     OW32900   5.814   5.019   6.111
77023SOL    HW132901   5.795   5.075   6.036
77023SOL    HW232902   5.906   5.037   6.132
77024SOL     OW32903   9.381   4.996   8.794
77024SOL    HW132904   9.412   4.918   8.841
77024SOL    HW232905   9.289   5.004   8.818
77025SOL     OW32906   8.035  12.597  14.471
77025SOL    HW132907   7.994  12.554  14.396
77025SOL    HW232908   7.961  12.623  14.526
77026SOL     OW32909   3.663   2.382  11.586
77026SOL    HW132910   3.623   2.295  11.586
77026SOL    HW232911   3.749   2.369  11.546
77027SOL     OW32912   1.751  13.008   8.727
77027SOL    HW132913   1.789  12.921   8.734
77027SOL    HW232914   1.774  13.052   8.809
77028SOL     OW32915   3.000   1.261   3.229
77028SOL    HW132916   3.092   1.277   3.248
77028SOL    HW232917   2.998   1.176   3.186
77029SOL     OW32918   9.047  10.066   1.978
77029SOL    HW132919   9.087  10.027   2.055
77029SOL    HW232920   8.960  10.027   1.973
77030SOL     OW32921   3.874   0.581   5.732
77030SOL    HW132922   3.863   0.642   5.660
77030SOL    HW232923   3.792   0.532   5.736
77031SOL     OW32924   5.995   5.443  10.856
77031SOL    HW132925   5.924   5.381  10.838
77031SOL    HW232926   6.074   5.400  10.825
77032SOL     OW32927  14.832   2.237  12.584
77032SOL    HW132928  14.763   2.175  12.559
77032SOL    HW232929  14.869   2.200  12.664
77033SOL     OW32930   6.317   4.331   2.556
77033SOL    HW132931   6.262   4.371   2.488
77033SOL    HW232932   6.359   4.256   2.513
77034SOL     OW32933   8.096   3.950  10.887
77034SOL    HW132934   8.166   3.911  10.939
77034SOL    HW232935   8.026   3.969  10.949
77035SOL     OW32936   1.525  12.897  11.443
77035SOL    HW132937   1.597  12.942  11.398
77035SOL    HW232938   1.524  12.935  11.531
77036SOL     OW32939   1.062   7.206   9.304
77036SOL    HW132940   1.094   7.290   9.335
77036SOL    HW232941   1.117   7.185   9.229
77037SOL     OW32942  11.924  10.413   1.320
77037SOL    HW132943  11.896  10.482   1.260
77037SOL    HW232944  11.843  10.385   1.363
77038SOL     OW32945   2.100   4.844   2.602
77038SOL    HW132946   2.097   4.829   2.507
77038SOL    HW232947   2.155   4.772   2.635
77039SOL     OW32948   3.583  13.033   5.697
77039SOL    HW132949   3.614  13.120   5.671
77039SOL    HW232950   3.516  13.050   5.763
77040SOL     OW32951   5.693   1.390  13.408
77040SOL    HW132952   5.683   1.368  13.500
77040SOL    HW232953   5.603   1.396  13.375
77041SOL     OW32954  11.223   3.987  13.654
77041SOL    HW132955  11.153   3.953  13.709
77041SOL    HW232956  11.178   4.023  13.578
77042SOL     OW32957  13.954   3.534  12.898
77042SOL    HW132958  13.916   3.620  12.918
77042SOL    HW232959  13.879   3.474  12.897
77043SOL     OW32960   4.975  11.451  12.181
77043SOL    HW132961   4.979  11.360  12.152
77043SOL    HW232962   5.037  11.497  12.125
77044SOL     OW32963   8.477   4.184  13.383
77044SOL    HW132964   8.565   4.182  13.345
77044SOL    HW232965   8.482   4.247  13.454
77045SOL     OW32966   6.046   4.951   5.917
77045SOL    HW132967   6.003   4.921   5.838
77045SOL    HW232968   6.134   4.913   5.912
77046SOL     OW32969   7.943   9.859  14.342
77046SOL    HW132970   7.976   9.791  14.282
77046SOL    HW232971   7.933   9.814  14.426
77047SOL     OW32972  14.011  13.696   2.040
77047SOL    HW132973  14.091  13.665   2.084
77047SOL    HW232974  13.941  13.640   2.076
77048SOL     OW32975  14.619  11.155   4.569
77048SOL    HW132976  14.660  11.237   4.541
77048SOL    HW232977  14.597  11.169   4.661
77049SOL     OW32978   4.822   7.176   3.785
77049SOL    HW132979   4.746   7.234   3.792
77049SOL    HW232980   4.873   7.194   3.865
77050SOL     OW32981  12.370   7.760  10.727
77050SOL    HW132982  12.419   7.799  10.655
77050SOL    HW232983  12.387   7.818  10.802
77051SOL     OW32984  14.290   2.808  14.130
77051SOL    HW132985  14.296   2.904  14.130
77051SOL    HW232986  14.274   2.786  14.222
77052SOL     OW32987   8.965   2.088   1.019
77052SOL    HW132988   8.933   2.087   0.929
77052SOL    HW232989   8.887   2.073   1.072
77053SOL     OW32990  10.690   4.329   2.317
77053SOL    HW132991  10.686   4.392   2.389
77053SOL    HW232992  10.611   4.346   2.266
77054SOL     OW32993  14.413  10.274   9.732
77054SOL    HW132994  14.391  10.274   9.825
77054SOL    HW232995  14.505  10.302   9.729
77055SOL     OW32996   7.577  14.549   3.903
77055SOL    HW132997   7.609  14.586   3.820
77055SOL    HW232998   7.656  14.540   3.957
77056SOL     OW32999   1.591   9.150  11.967
77056SOL    HW133000   1.502   9.130  11.940
77056SOL    HW233001   1.623   9.070  12.009
77057SOL     OW33002   6.359  12.336   5.304
77057SOL    HW133003   6.408  12.288   5.371
77057SOL    HW233004   6.369  12.428   5.328
77058SOL     OW33005   4.112   9.774   7.317
77058SOL    HW133006   4.059   9.739   7.245
77058SOL    HW233007   4.127   9.866   7.294
77059SOL     OW33008   0.242   1.910  11.448
77059SOL    HW133009   0.305   1.885  11.516
77059SOL    HW233010   0.282   1.986  11.405
77060SOL     OW33011   5.023   0.791   0.640
77060SOL    HW133012   5.075   0.727   0.689
77060SOL    HW233013   4.933   0.771   0.664
77061SOL     OW33014   9.715  14.135   7.755
77061SOL    HW133015   9.752  14.067   7.698
77061SOL    HW233016   9.635  14.162   7.710
77062SOL     OW33017   2.290  10.224   9.976
77062SOL    HW133018   2.265  10.137   9.944
77062SOL    HW233019   2.379  10.237   9.943
77063SOL     OW33020   9.958  14.298   9.120
77063SOL    HW133021   9.936  14.261   9.206
77063SOL    HW233022  10.053  14.290   9.114
77064SOL     OW33023  11.433   7.070  10.319
77064SOL    HW133024  11.520   7.081  10.281
77064SOL    HW233025  11.373   7.098  10.250
77065SOL     OW33026   0.577  11.716  10.814
77065SOL    HW133027   0.535  11.747  10.894
77065SOL    HW233028   0.622  11.793  10.778
77066SOL     OW33029  12.775   1.473   8.583
77066SOL    HW133030  12.679   1.481   8.582
77066SOL    HW233031  12.799   1.454   8.493
77067SOL     OW33032  12.702   8.261   0.184
77067SOL    HW133033  12.700   8.169   0.160
77067SOL    HW233034  12.760   8.302   0.119
77068SOL     OW33035  10.951   8.888   0.746
77068SOL    HW133036  10.875   8.897   0.690
77068SOL    HW233037  10.916   8.857   0.829
77069SOL     OW33038   5.925  10.731   7.952
77069SOL    HW133039   5.943  10.657   8.010
77069SOL    HW233040   6.011  10.770   7.936
77070SOL     OW33041   5.372   9.148   6.723
77070SOL    HW133042   5.286   9.165   6.686
77070SOL    HW233043   5.403   9.071   6.676
77071SOL     OW33044   4.112   1.624  11.114
77071SOL    HW133045   4.180   1.631  11.181
77071SOL    HW233046   4.087   1.715  11.098
77072SOL     OW33047   2.468   9.356   8.940
77072SOL    HW133048   2.390   9.410   8.949
77072SOL    HW233049   2.484   9.321   9.028
77073SOL     OW33050   9.583   0.876  10.099
77073SOL    HW133051   9.517   0.828  10.149
77073SOL    HW233052   9.541   0.960  10.080
77074SOL     OW33053   7.850   8.595   7.754
77074SOL    HW133054   7.907   8.632   7.821
77074SOL    HW233055   7.769   8.646   7.760
77075SOL     OW33056   1.181  11.005   7.955
77075SOL    HW133057   1.141  11.072   7.899
77075SOL    HW233058   1.171  11.038   8.044
77076SOL     OW33059   8.898   2.290  14.634
77076SOL    HW133060   8.839   2.217  14.655
77076SOL    HW233061   8.985   2.258  14.657
77077SOL     OW33062  11.149  11.521   9.970
77077SOL    HW133063  11.111  11.434   9.976
77077SOL    HW233064  11.078  11.581   9.992
77078SOL     OW33065   6.213  10.993   2.986
77078SOL    HW133066   6.188  10.937   3.059
77078SOL    HW233067   6.292  10.953   2.951
77079SOL     OW33068  11.575  14.731  10.341
77079SOL    HW133069  11.659  14.744  10.386
77079SOL    HW233070  11.580  14.788  10.265
77080SOL     OW33071  12.276   6.552   8.443
77080SOL    HW133072  12.246   6.467   8.473
77080SOL    HW233073  12.252   6.555   8.350
77081SOL     OW33074  13.108   1.517   4.554
77081SOL    HW133075  13.070   1.432   4.531
77081SOL    HW233076  13.183   1.526   4.495
77082SOL     OW33077   0.630  10.740  12.528
77082SOL    HW133078   0.574  10.666  12.552
77082SOL    HW233079   0.694  10.704  12.468
77083SOL     OW33080  12.212   5.231   7.967
77083SOL    HW133081  12.260   5.193   7.893
77083SOL    HW233082  12.120   5.218   7.944
77084SOL     OW33083   1.828  13.402   7.013
77084SOL    HW133084   1.866  13.424   6.928
77084SOL    HW233085   1.815  13.308   7.009
77085SOL     OW33086  11.891   7.853   7.639
77085SOL    HW133087  11.928   7.789   7.700
77085SOL    HW233088  11.958   7.861   7.571
77086SOL     OW33089  10.133   1.481  11.828
77086SOL    HW133090  10.157   1.390  11.809
77086SOL    HW233091  10.080   1.476  11.907
77087SOL     OW33092   9.674   4.674  12.132
77087SOL    HW133093   9.648   4.601  12.189
77087SOL    HW233094   9.677   4.636  12.044
77088SOL     OW33095   3.752  14.360  11.750
77088SOL    HW133096   3.740  14.266  11.736
77088SOL    HW233097   3.678  14.400  11.706
77089SOL     OW33098  12.123   2.694   4.884
77089SOL    HW133099  12.085   2.616   4.844
77089SOL    HW233100  12.143   2.668   4.974
77090SOL     OW33101   3.721  11.838   5.943
77090SOL    HW133102   3.656  11.777   5.975
77090SOL    HW233103   3.774  11.859   6.020
77091SOL     OW33104  13.412  11.784   6.096
77091SOL    HW133105  13.333  11.833   6.076
77091SOL    HW233106  13.401  11.701   6.050
77092SOL     OW33107  10.702   5.570   0.879
77092SOL    HW133108  10.769   5.639   0.880
77092SOL    HW233109  10.743   5.495   0.922
77093SOL     OW33110   7.340  14.638  10.032
77093SOL    HW133111   7.411  14.575  10.042
77093SOL    HW233112   7.356  14.678   9.946
77094SOL     OW33113  13.411   3.429   3.364
77094SOL    HW133114  13.385   3.381   3.442
77094SOL    HW233115  13.330   3.440   3.315
77095SOL     OW33116   6.384   8.303   2.780
77095SOL    HW133117   6.289   8.299   2.764
77095SOL    HW233118   6.393   8.281   2.873
77096SOL     OW33119  12.982   0.454   3.824
77096SOL    HW133120  13.018   0.513   3.757
77096SOL    HW233121  12.890   0.478   3.831
77097SOL     OW33122   6.375   7.749   5.076
77097SOL    HW133123   6.360   7.663   5.114
77097SOL    HW233124   6.313   7.807   5.121
77098SOL     OW33125  10.630   9.378   9.038
77098SOL    HW133126  10.633   9.453   9.097
77098SOL    HW233127  10.712   9.332   9.054
77099SOL     OW33128   5.254   8.444  13.091
77099SOL    HW133129   5.244   8.414  13.000
77099SOL    HW233130   5.291   8.532  13.083
77100SOL     OW33131   8.294   4.838  11.828
77100SOL    HW133132   8.311   4.756  11.874
77100SOL    HW233133   8.295   4.815  11.735
77101SOL     OW33134   1.281   8.563   2.544
77101SOL    HW133135   1.194   8.578   2.580
77101SOL    HW233136   1.303   8.645   2.500
77102SOL     OW33137   2.490   1.012   3.164
77102SOL    HW133138   2.536   0.930   3.179
77102SOL    HW233139   2.399   0.994   3.186
77103SOL     OW33140  13.509  13.705  14.278
77103SOL    HW133141  13.480  13.619  14.308
77103SOL    HW233142  13.554  13.743  14.353
77104SOL     OW33143   7.212   3.839   4.283
77104SOL    HW133144   7.193   3.925   4.245
77104SOL    HW233145   7.299   3.817   4.250
77105SOL     OW33146   3.524   4.263  14.618
77105SOL    HW133147   3.615   4.274  14.646
77105SOL    HW233148   3.484   4.349  14.630
77106SOL     OW33149   0.033  13.159  13.655
77106SOL    HW133150  14.833  13.195  13.702
77106SOL    HW233151   0.080  13.108  13.720
77107SOL     OW33152   1.762  14.427   9.131
77107SOL    HW133153   1.733  14.514   9.103
77107SOL    HW233154   1.725  14.416   9.218
77108SOL     OW33155   5.649  14.766   1.399
77108SOL    HW133156   5.675  14.858   1.407
77108SOL    HW233157   5.728  14.716   1.421
77109SOL     OW33158  14.667  14.377   7.555
77109SOL    HW133159  14.624  14.458   7.582
77109SOL    HW233160  14.631  14.358   7.468
77110SOL     OW33161   5.277   9.342  10.459
77110SOL    HW133162   5.287   9.252  10.429
77110SOL    HW233163   5.297   9.395  10.382
77111SOL     OW33164   3.950  11.461   5.762
77111SOL    HW133165   4.004  11.400   5.711
77111SOL    HW233166   3.913  11.408   5.833
77112SOL     OW33167   6.537  11.040  13.677
77112SOL    HW133168   6.444  11.053  13.655
77112SOL    HW233169   6.579  11.121  13.648
77113SOL     OW33170  10.509   4.898   5.737
77113SOL    HW133171  10.420   4.861   5.736
77113SOL    HW233172  10.520   4.936   5.650
77114SOL     OW33173   1.104   7.140   3.582
77114SOL    HW133174   1.044   7.073   3.616
77114SOL    HW233175   1.158   7.163   3.657
77115SOL     OW33176   1.206   3.062   7.283
77115SOL    HW133177   1.226   2.970   7.268
77115SOL    HW233178   1.252   3.084   7.364
77116SOL     OW33179   3.583  10.473  11.876
77116SOL    HW133180   3.657  10.523  11.841
77116SOL    HW233181   3.512  10.538  11.883
77117SOL     OW33182  12.037  10.653  10.733
77117SOL    HW133183  11.980  10.724  10.764
77117SOL    HW233184  12.064  10.681  10.646
77118SOL     OW33185   4.239  10.122  11.654
77118SOL    HW133186   4.249  10.207  11.699
77118SOL    HW233187   4.228  10.059  11.725
77119SOL     OW33188   6.297   7.196   3.180
77119SOL    HW133189   6.382   7.156   3.163
77119SOL    HW233190   6.234   7.124   3.174
77120SOL     OW33191   0.765   2.151   5.634
77120SOL    HW133192   0.837   2.202   5.598
77120SOL    HW233193   0.778   2.154   5.729
77121SOL     OW33194   7.084  12.900  13.568
77121SOL    HW133195   7.039  12.946  13.638
77121SOL    HW233196   7.043  12.813  13.566
77122SOL     OW33197  13.129  12.757   8.986
77122SOL    HW133198  13.175  12.735   8.905
77122SOL    HW233199  13.037  12.757   8.963
77123SOL     OW33200   2.682   0.512   8.748
77123SOL    HW133201   2.589   0.508   8.771
77123SOL    HW233202   2.684   0.561   8.666
77124SOL     OW33203  11.459  14.238   8.661
77124SOL    HW133204  11.460  14.333   8.670
77124SOL    HW233205  11.376  14.219   8.618
77125SOL     OW33206  12.610   8.838   9.843
77125SOL    HW133207  12.661   8.811   9.767
77125SOL    HW233208  12.569   8.920   9.816
77126SOL     OW33209   8.239   6.447   6.969
77126SOL    HW133210   8.201   6.360   6.982
77126SOL    HW233211   8.165   6.502   6.943
77127SOL     OW33212   8.015   2.254   3.861
77127SOL    HW133213   7.963   2.175   3.847
77127SOL    HW233214   8.057   2.271   3.777
77128SOL     OW33215   3.323   2.888   8.810
77128SOL    HW133216   3.303   2.799   8.839
77128SOL    HW233217   3.248   2.913   8.756
77129SOL     OW33218   5.753   9.086   2.926
77129SOL    HW133219   5.733   9.179   2.919
77129SOL    HW233220   5.804   9.067   2.847
77130SOL     OW33221   1.650   2.678   7.290
77130SOL    HW133222   1.577   2.624   7.321
77130SOL    HW233223   1.687   2.717   7.369
77131SOL     OW33224   7.143   2.530   4.780
77131SOL    HW133225   7.061   2.580   4.770
77131SOL    HW233226   7.160   2.494   4.693
77132SOL     OW33227  11.884  12.465  12.222
77132SOL    HW133228  11.838  12.394  12.265
77132SOL    HW233229  11.818  12.506  12.166
77133SOL     OW33230   6.497   9.571   6.590
77133SOL    HW133231   6.525   9.482   6.612
77133SOL    HW233232   6.402   9.569   6.597
77134SOL     OW33233  12.064   7.184   7.075
77134SOL    HW133234  12.098   7.264   7.113
77134SOL    HW233235  12.067   7.120   7.146
77135SOL     OW33236  11.563  10.763   4.355
77135SOL    HW133237  11.513  10.796   4.429
77135SOL    HW233238  11.532  10.673   4.343
77136SOL     OW33239   7.540   3.998   5.619
77136SOL    HW133240   7.567   4.037   5.536
77136SOL    HW233241   7.547   4.070   5.682
77137SOL     OW33242   4.259  11.191  13.864
77137SOL    HW133243   4.349  11.164  13.878
77137SOL    HW233244   4.208  11.146  13.932
77138SOL     OW33245  10.346   6.768  12.174
77138SOL    HW133246  10.264   6.718  12.173
77138SOL    HW233247  10.397   6.733  12.101
77139SOL     OW33248  10.876  10.653   1.759
77139SOL    HW133249  10.787  10.687   1.766
77139SOL    HW233250  10.865  10.560   1.739
77140SOL     OW33251  12.460   4.208   3.433
77140SOL    HW133252  12.486   4.300   3.428
77140SOL    HW233253  12.372   4.210   3.470
77141SOL     OW33254  12.112  14.474   8.696
77141SOL    HW133255  12.017  14.465   8.707
77141SOL    HW233256  12.139  14.392   8.654
77142SOL     OW33257   0.532   1.480   0.526
77142SOL    HW133258   0.470   1.504   0.595
77142SOL    HW233259   0.611   1.530   0.547
77143SOL     OW33260  11.001   6.313   1.880
77143SOL    HW133261  11.094   6.302   1.858
77143SOL    HW233262  10.983   6.241   1.940
77144SOL     OW33263   8.045  12.332   1.888
77144SOL    HW133264   8.119  12.312   1.945
77144SOL    HW233265   7.971  12.287   1.929
77145SOL     OW33266   0.545   1.640  12.399
77145SOL    HW133267   0.604   1.650  12.324
77145SOL    HW233268   0.516   1.729  12.420
77146SOL     OW33269   6.994   6.360   9.246
77146SOL    HW133270   7.079   6.365   9.202
77146SOL    HW233271   6.977   6.449   9.276
77147SOL     OW33272  14.411  12.418  11.167
77147SOL    HW133273  14.354  12.342  11.179
77147SOL    HW233274  14.435  12.416  11.074
77148SOL     OW33275  11.636   2.069   2.315
77148SOL    HW133276  11.715   2.120   2.302
77148SOL    HW233277  11.572   2.132   2.348
77149SOL     OW33278   8.871   1.501   8.074
77149SOL    HW133279   8.845   1.584   8.115
77149SOL    HW233280   8.944   1.525   8.017
77150SOL     OW33281   0.356   6.438   9.020
77150SOL    HW133282   0.303   6.405   8.948
77150SOL    HW233283   0.426   6.488   8.979
77151SOL     OW33284  14.008   9.284  12.784
77151SOL    HW133285  13.976   9.291  12.874
77151SOL    HW233286  13.936   9.243  12.736
77152SOL     OW33287   5.324   0.436  13.323
77152SOL    HW133288   5.346   0.396  13.407
77152SOL    HW233289   5.257   0.378  13.286
77153SOL     OW33290   1.156   0.098   6.372
77153SOL    HW133291   1.086   0.035   6.358
77153SOL    HW233292   1.132   0.173   6.317
77154SOL     OW33293   2.607   0.344   4.863
77154SOL    HW133294   2.673   0.275   4.855
77154SOL    HW233295   2.635   0.412   4.801
77155SOL     OW33296  11.505   4.711  10.130
77155SOL    HW133297  11.595   4.702  10.163
77155SOL    HW233298  11.488   4.627  10.087
77156SOL     OW33299  13.074   5.648   6.889
77156SOL    HW133300  13.058   5.610   6.975
77156SOL    HW233301  13.136   5.589   6.848
77157SOL     OW33302   3.822   1.929  10.368
77157SOL    HW133303   3.806   2.022  10.382
77157SOL    HW233304   3.761   1.904  10.299
77158SOL     OW33305   0.721   0.988  14.192
77158SOL    HW133306   0.767   1.070  14.210
77158SOL    HW233307   0.668   0.973  14.270
77159SOL     OW33308   2.997   0.498   8.331
77159SOL    HW133309   3.006   0.404   8.349
77159SOL    HW233310   2.910   0.507   8.294
77160SOL     OW33311   6.825   0.915   9.576
77160SOL    HW133312   6.791   0.988   9.627
77160SOL    HW233313   6.766   0.908   9.501
77161SOL     OW33314   9.201  13.865   2.164
77161SOL    HW133315   9.132  13.828   2.108
77161SOL    HW233316   9.283  13.843   2.120
77162SOL     OW33317   6.385   4.117  10.456
77162SOL    HW133318   6.464   4.075  10.491
77162SOL    HW233319   6.415   4.166  10.380
77163SOL     OW33320  13.440  13.047   8.764
77163SOL    HW133321  13.451  13.112   8.695
77163SOL    HW233322  13.349  13.057   8.792
77164SOL     OW33323   7.075  13.967  12.584
77164SOL    HW133324   7.066  14.020  12.505
77164SOL    HW233325   7.033  13.884  12.563
77165SOL     OW33326  10.529   2.918   0.788
77165SOL    HW133327  10.450   2.935   0.736
77165SOL    HW233328  10.529   2.985   0.856
77166SOL     OW33329  10.095  12.924   7.289
77166SOL    HW133330  10.169  12.975   7.322
77166SOL    HW233331  10.131  12.837   7.272
77167SOL     OW33332   1.739   6.579  10.116
77167SOL    HW133333   1.739   6.671  10.141
77167SOL    HW233334   1.678   6.537  10.177
77168SOL     OW33335   8.968  14.079  10.915
77168SOL    HW133336   8.892  14.023  10.900
77168SOL    HW233337   8.965  14.144  10.845
77169SOL     OW33338   0.223   3.446   0.104
77169SOL    HW133339   0.314   3.414   0.104
77169SOL    HW233340   0.231   3.541   0.105
77170SOL     OW33341   1.759   8.699   9.910
77170SOL    HW133342   1.715   8.637   9.852
77170SOL    HW233343   1.824   8.741   9.855
77171SOL     OW33344   9.093  13.015   9.188
77171SOL    HW133345   9.061  12.926   9.174
77171SOL    HW233346   9.098  13.053   9.100
77172SOL     OW33347  12.319   4.312   6.074
77172SOL    HW133348  12.250   4.291   6.136
77172SOL    HW233349  12.273   4.346   5.997
77173SOL     OW33350   9.615   5.105   3.822
77173SOL    HW133351   9.654   5.026   3.785
77173SOL    HW233352   9.567   5.075   3.899
77174SOL     OW33353   2.049   8.000   5.756
77174SOL    HW133354   2.089   7.974   5.673
77174SOL    HW233355   2.086   7.940   5.820
77175SOL     OW33356  13.521   4.206   4.996
77175SOL    HW133357  13.516   4.172   5.085
77175SOL    HW233358  13.562   4.292   5.005
77176SOL     OW33359   8.219  11.151   1.238
77176SOL    HW133360   8.306  11.146   1.198
77176SOL    HW233361   8.218  11.080   1.302
77177SOL     OW33362   2.582  11.239  14.130
77177SOL    HW133363   2.569  11.166  14.069
77177SOL    HW233364   2.598  11.315  14.073
77178SOL     OW33365  14.373  11.867   4.690
77178SOL    HW133366  14.330  11.860   4.605
77178SOL    HW233367  14.352  11.955   4.721
77179SOL     OW33368   9.845   4.919  11.148
77179SOL    HW133369   9.810   4.848  11.203
77179SOL    HW233370   9.835   4.887  11.058
77180SOL     OW33371  14.781  11.387   4.485
77180SOL    HW133372  14.765  11.442   4.562
77180SOL    HW233373  14.854  11.429   4.440
77181SOL     OW33374  10.865   4.357  11.834
77181SOL    HW133375  10.854   4.287  11.770
77181SOL    HW233376  10.959   4.356  11.855
77182SOL     OW33377   3.928  13.124   5.059
77182SOL    HW133378   3.848  13.094   5.103
77182SOL    HW233379   3.897  13.158   4.975
77183SOL     OW33380  12.001   8.766   3.414
77183SOL    HW133381  11.994   8.827   3.487
77183SOL    HW233382  11.915   8.723   3.411
77184SOL     OW33383  13.841   0.943  11.982
77184SOL    HW133384  13.770   0.963  12.044
77184SOL    HW233385  13.917   0.929  12.038
77185SOL     OW33386   7.230   1.925   7.217
77185SOL    HW133387   7.293   1.860   7.247
77185SOL    HW233388   7.208   1.898   7.128
77186SOL     OW33389   1.605  11.485  14.398
77186SOL    HW133390   1.669  11.529  14.342
77186SOL    HW233391   1.521  11.498  14.354
77187SOL     OW33392  11.431   9.344  11.847
77187SOL    HW133393  11.469   9.363  11.761
77187SOL    HW233394  11.337   9.351  11.834
77188SOL     OW33395  11.250  10.969   6.352
77188SOL    HW133396  11.164  11.013   6.351
77188SOL    HW233397  11.263  10.941   6.261
77189SOL     OW33398   3.805   2.014   4.557
77189SOL    HW133399   3.868   1.958   4.512
77189SOL    HW233400   3.835   2.015   4.648
77190SOL     OW33401   2.738  10.008  10.113
77190SOL    HW133402   2.818   9.964  10.085
77190SOL    HW233403   2.706  10.053  10.035
77191SOL     OW33404   9.111   0.496  13.059
77191SOL    HW133405   9.115   0.568  12.997
77191SOL    HW233406   9.125   0.536  13.144
77192SOL     OW33407   3.208   5.019   1.634
77192SOL    HW133408   3.130   5.047   1.682
77192SOL    HW233409   3.189   4.929   1.608
77193SOL     OW33410   6.506   3.625  14.415
77193SOL    HW133411   6.597   3.633  14.444
77193SOL    HW233412   6.493   3.531  14.401
77194SOL     OW33413   4.005   4.425   7.397
77194SOL    HW133414   3.997   4.360   7.327
77194SOL    HW233415   4.080   4.478   7.372
77195SOL     OW33416  14.208   6.589   4.613
77195SOL    HW133417  14.208   6.684   4.606
77195SOL    HW233418  14.204   6.572   4.708
77196SOL     OW33419   7.198   6.819  13.909
77196SOL    HW133420   7.132   6.888  13.919
77196SOL    HW233421   7.154   6.751  13.859
77197SOL     OW33422  11.413   0.964   1.515
77197SOL    HW133423  11.413   0.991   1.424
77197SOL    HW233424  11.342   0.900   1.521
77198SOL     OW33425   3.505   4.196  13.360
77198SOL    HW133426   3.526   4.241  13.279
77198SOL    HW233427   3.585   4.204  13.413
77199SOL     OW33428   7.533  13.277   2.112
77199SOL    HW133429   7.592  13.202   2.119
77199SOL    HW233430   7.505  13.278   2.021
77200SOL     OW33431   4.962   4.736   4.191
77200SOL    HW133432   4.876   4.778   4.191
77200SOL    HW233433   4.943   4.642   4.180
77201SOL     OW33434  13.816   9.361  11.168
77201SOL    HW133435  13.895   9.415  11.161
77201SOL    HW233436  13.743   9.423  11.161
77202SOL     OW33437  10.241   9.517   9.336
77202SOL    HW133438  10.263   9.429   9.308
77202SOL    HW233439  10.251   9.515   9.432
77203SOL     OW33440   6.983   4.715   5.374
77203SOL    HW133441   6.899   4.761   5.371
77203SOL    HW233442   6.964   4.635   5.423
77204SOL     OW33443   7.195   0.199   9.837
77204SOL    HW133444   7.126   0.244   9.789
77204SOL    HW233445   7.276   0.241   9.807
77205SOL     OW33446   6.376  10.574  12.851
77205SOL    HW133447   6.391  10.656  12.898
77205SOL    HW233448   6.285  10.580  12.822
77206SOL     OW33449  12.982   5.083   2.905
77206SOL    HW133450  12.979   5.012   2.840
77206SOL    HW233451  12.948   5.043   2.985
77207SOL     OW33452  10.238   3.701   9.339
77207SOL    HW133453  10.303   3.711   9.269
77207SOL    HW233454  10.213   3.791   9.360
77208SOL     OW33455  12.448   7.086   7.874
77208SOL    HW133456  12.425   7.005   7.830
77208SOL    HW233457  12.532   7.068   7.917
77209SOL     OW33458   0.100  11.256   1.216
77209SOL    HW133459   0.143  11.309   1.284
77209SOL    HW233460   0.027  11.310   1.186
77210SOL     OW33461   5.161   4.306   3.790
77210SOL    HW133462   5.089   4.247   3.770
77210SOL    HW233463   5.235   4.249   3.811
77211SOL     OW33464  12.719  10.838  13.751
77211SOL    HW133465  12.750  10.827  13.841
77211SOL    HW233466  12.687  10.751  13.726
77212SOL     OW33467   4.391  11.110   3.014
77212SOL    HW133468   4.381  11.053   2.937
77212SOL    HW233469   4.334  11.071   3.080
77213SOL     OW33470  13.597   6.934  14.212
77213SOL    HW133471  13.638   6.904  14.294
77213SOL    HW233472  13.633   6.877  14.145
77214SOL     OW33473   2.656   5.448  11.471
77214SOL    HW133474   2.677   5.455  11.564
77214SOL    HW233475   2.694   5.527  11.432
77215SOL     OW33476   7.349   6.164  13.602
77215SOL    HW133477   7.438   6.179  13.633
77215SOL    HW233478   7.316   6.251  13.579
77216SOL     OW33479   7.776  11.459  10.285
77216SOL    HW133480   7.787  11.376  10.330
77216SOL    HW233481   7.753  11.435  10.195
77217SOL     OW33482  13.003   3.509  11.656
77217SOL    HW133483  12.990   3.458  11.576
77217SOL    HW233484  13.069   3.574  11.634
77218SOL     OW33485  12.968   2.280  11.638
77218SOL    HW133486  12.913   2.301  11.714
77218SOL    HW233487  12.964   2.359  11.584
77219SOL     OW33488   6.087   7.871   2.970
77219SOL    HW133489   6.055   7.784   2.994
77219SOL    HW233490   6.122   7.908   3.051
77220SOL     OW33491   3.763   4.064   9.983
77220SOL    HW133492   3.836   4.010  10.013
77220SOL    HW233493   3.698   4.001   9.952
77221SOL     OW33494   3.471  13.029   8.401
77221SOL    HW133495   3.393  13.078   8.377
77221SOL    HW233496   3.491  13.056   8.490
77222SOL     OW33497  12.194   6.806   9.057
77222SOL    HW133498  12.251   6.873   9.095
77222SOL    HW233499  12.107   6.846   9.056
77223SOL     OW33500   3.247   1.258   3.739
77223SOL    HW133501   3.182   1.303   3.793
77223SOL    HW233502   3.249   1.308   3.657
77224SOL     OW33503   0.073   8.588   3.997
77224SOL    HW133504   0.087   8.643   3.920
77224SOL    HW233505  14.866   8.542   3.979
77225SOL     OW33506   0.768   4.580   7.456
77225SOL    HW133507   0.796   4.517   7.389
77225SOL    HW233508   0.704   4.635   7.412
77226SOL     OW33509  12.532   6.931   6.810
77226SOL    HW133510  12.612   6.983   6.813
77226SOL    HW233511  12.495   6.948   6.724
77227SOL     OW33512   7.816   8.911   5.356
77227SOL    HW133513   7.897   8.875   5.320
77227SOL    HW233514   7.805   8.868   5.441
77228SOL     OW33515   1.849   8.641  10.838
77228SOL    HW133516   1.865   8.564  10.784
77228SOL    HW233517   1.813   8.706  10.778
77229SOL     OW33518  11.789   3.989   4.577
77229SOL    HW133519  11.823   3.946   4.656
77229SOL    HW233520  11.791   4.082   4.597
77230SOL     OW33521  10.152   7.654  11.029
77230SOL    HW133522  10.128   7.746  11.044
77230SOL    HW233523  10.208   7.632  11.104
77231SOL     OW33524   8.455   9.209   5.091
77231SOL    HW133525   8.542   9.242   5.114
77231SOL    HW233526   8.401   9.287   5.083
77232SOL     OW33527   2.132   8.134  12.590
77232SOL    HW133528   2.089   8.219  12.592
77232SOL    HW233529   2.111   8.098  12.503
77233SOL     OW33530   6.619   2.923   2.118
77233SOL    HW133531   6.638   2.922   2.211
77233SOL    HW233532   6.541   2.868   2.108
77234SOL     OW33533   9.358   1.596  10.333
77234SOL    HW133534   9.280   1.624  10.381
77234SOL    HW233535   9.324   1.559  10.251
77235SOL     OW33536   6.253  10.003   4.871
77235SOL    HW133537   6.170   9.963   4.897
77235SOL    HW233538   6.320   9.945   4.909
77236SOL     OW33539   1.954  10.069   8.304
77236SOL    HW133540   2.024  10.058   8.240
77236SOL    HW233541   1.929  10.161   8.296
77237SOL     OW33542   6.001  12.785   9.114
77237SOL    HW133543   6.085  12.817   9.148
77237SOL    HW233544   5.976  12.716   9.176
77238SOL     OW33545   0.999   1.716   1.558
77238SOL    HW133546   0.941   1.721   1.482
77238SOL    HW233547   0.941   1.725   1.633
77239SOL     OW33548   4.605   4.923   2.750
77239SOL    HW133549   4.625   4.834   2.780
77239SOL    HW233550   4.654   4.980   2.810
77240SOL     OW33551   4.491   9.211   6.561
77240SOL    HW133552   4.515   9.196   6.469
77240SOL    HW233553   4.536   9.141   6.609
77241SOL     OW33554   5.878   5.696   3.231
77241SOL    HW133555   5.831   5.637   3.291
77241SOL    HW233556   5.968   5.695   3.263
77242SOL     OW33557   3.852   0.925   5.001
77242SOL    HW133558   3.871   0.948   5.092
77242SOL    HW233559   3.904   0.987   4.950
77243SOL     OW33560   4.664  14.775   6.223
77243SOL    HW133561   4.648  14.849   6.280
77243SOL    HW233562   4.605  14.706   6.254
77244SOL     OW33563  10.148   8.892   0.711
77244SOL    HW133564  10.135   8.972   0.760
77244SOL    HW233565  10.170   8.826   0.777
77245SOL     OW33566   7.255   9.521  13.006
77245SOL    HW133567   7.189   9.538  13.073
77245SOL    HW233568   7.309   9.450  13.042
77246SOL     OW33569   1.490   8.449  13.205
77246SOL    HW133570   1.523   8.496  13.128
77246SOL    HW233571   1.413   8.401  13.172
77247SOL     OW33572   9.155  11.014  12.861
77247SOL    HW133573   9.066  10.980  12.851
77247SOL    HW233574   9.163  11.034  12.954
77248SOL     OW33575   1.524   7.725   7.887
77248SOL    HW133576   1.565   7.705   7.971
77248SOL    HW233577   1.466   7.799   7.905
77249SOL     OW33578   7.239  12.441   3.459
77249SOL    HW133579   7.257  12.504   3.389
77249SOL    HW233580   7.326  12.413   3.489
77250SOL     OW33581   9.227  12.141   1.392
77250SOL    HW133582   9.286  12.215   1.405
77250SOL    HW233583   9.282  12.064   1.403
77251SOL     OW33584   0.028   2.451   0.920
77251SOL    HW133585  14.832   2.430   0.979
77251SOL    HW233586   0.065   2.533   0.955
77252SOL     OW33587  11.575   7.100   4.681
77252SOL    HW133588  11.586   7.043   4.757
77252SOL    HW233589  11.623   7.179   4.704
77253SOL     OW33590  10.006   4.300   0.591
77253SOL    HW133591  10.008   4.241   0.515
77253SOL    HW233592   9.940   4.263   0.649
77254SOL     OW33593   5.642   0.235   6.558
77254SOL    HW133594   5.563   0.207   6.512
77254SOL    HW233595   5.713   0.185   6.518
77255SOL     OW33596   1.585   9.845   3.298
77255SOL    HW133597   1.668   9.864   3.342
77255SOL    HW233598   1.579   9.749   3.299
77256SOL     OW33599  13.046   8.685   3.933
77256SOL    HW133600  12.966   8.704   3.883
77256SOL    HW233601  13.058   8.762   3.989
77257SOL     OW33602   9.675   0.941   1.841
77257SOL    HW133603   9.661   1.006   1.771
77257SOL    HW233604   9.751   0.974   1.888
77258SOL     OW33605  12.029  12.645   1.232
77258SOL    HW133606  12.045  12.711   1.299
77258SOL    HW233607  12.116  12.620   1.201
77259SOL     OW33608   8.200   0.589   3.440
77259SOL    HW133609   8.183   0.507   3.393
77259SOL    HW233610   8.128   0.596   3.502
77260SOL     OW33611  10.214   7.424   5.782
77260SOL    HW133612  10.291   7.474   5.807
77260SOL    HW233613  10.170   7.478   5.717
77261SOL     OW33614   5.957   1.083  13.040
77261SOL    HW133615   5.946   1.148  13.108
77261SOL    HW233616   5.923   1.002  13.078
77262SOL     OW33617  12.827   6.898   9.097
77262SOL    HW133618  12.919   6.907   9.123
77262SOL    HW233619  12.818   6.806   9.072
77263SOL     OW33620  14.385  14.484   5.937
77263SOL    HW133621  14.424  14.400   5.913
77263SOL    HW233622  14.363  14.475   6.030
77264SOL     OW33623  12.264   4.350  12.549
77264SOL    HW133624  12.183   4.391  12.579
77264SOL    HW233625  12.334   4.401  12.590
77265SOL     OW33626   1.932   8.547  11.914
77265SOL    HW133627   2.003   8.608  11.935
77265SOL    HW233628   1.976   8.467  11.885
77266SOL     OW33629   3.468   7.415   2.692
77266SOL    HW133630   3.507   7.330   2.712
77266SOL    HW233631   3.542   7.468   2.662
77267SOL     OW33632  12.472   2.714   1.340
77267SOL    HW133633  12.455   2.781   1.405
77267SOL    HW233634  12.539   2.751   1.282
77268SOL     OW33635   2.021   7.354   7.105
77268SOL    HW133636   2.008   7.443   7.072
77268SOL    HW233637   1.935   7.326   7.132
77269SOL     OW33638   5.171  11.143   0.436
77269SOL    HW133639   5.154  11.227   0.477
77269SOL    HW233640   5.239  11.103   0.491
77270SOL     OW33641   9.479   8.343   5.343
77270SOL    HW133642   9.549   8.358   5.280
77270SOL    HW233643   9.421   8.419   5.333
77271SOL     OW33644   1.480   1.444  10.676
77271SOL    HW133645   1.485   1.524  10.728
77271SOL    HW233646   1.393   1.409  10.693
77272SOL     OW33647   6.132   9.765   2.187
77272SOL    HW133648   6.087   9.771   2.102
77272SOL    HW233649   6.208   9.823   2.178
77273SOL     OW33650   2.842   1.639   6.119
77273SOL    HW133651   2.883   1.620   6.204
77273SOL    HW233652   2.750   1.616   6.131
77274SOL     OW33653   5.791   4.889  11.201
77274SOL    HW133654   5.801   4.804  11.244
77274SOL    HW233655   5.880   4.921  11.189
77275SOL     OW33656   1.520   2.459  13.483
77275SOL    HW133657   1.573   2.488  13.408
77275SOL    HW233658   1.580   2.406  13.535
77276SOL     OW33659   7.464   9.262   7.617
77276SOL    HW133660   7.419   9.205   7.555
77276SOL    HW233661   7.520   9.318   7.564
77277SOL     OW33662   1.803   4.545   3.461
77277SOL    HW133663   1.731   4.575   3.516
77277SOL    HW233664   1.792   4.592   3.379
77278SOL     OW33665  13.867  13.935   5.839
77278SOL    HW133666  13.942  13.966   5.788
77278SOL    HW233667  13.840  13.855   5.795
77279SOL     OW33668   6.873  12.285  13.769
77279SOL    HW133669   6.952  12.296  13.716
77279SOL    HW233670   6.904  12.294  13.859
77280SOL     OW33671  11.648   9.282   9.627
77280SOL    HW133672  11.733   9.306   9.664
77280SOL    HW233673  11.615   9.364   9.590
77281SOL     OW33674  11.779  13.940  11.407
77281SOL    HW133675  11.759  13.860  11.357
77281SOL    HW233676  11.694  13.982  11.419
77282SOL     OW33677   9.166   2.065   2.833
77282SOL    HW133678   9.092   2.070   2.894
77282SOL    HW233679   9.145   1.991   2.777
77283SOL     OW33680   7.869   5.239  14.103
77283SOL    HW133681   7.960   5.216  14.121
77283SOL    HW233682   7.851   5.315  14.158
77284SOL     OW33683   8.000   3.966  12.912
77284SOL    HW133684   7.917   3.997  12.947
77284SOL    HW233685   8.062   4.037  12.930
77285SOL     OW33686   5.072   9.536   5.974
77285SOL    HW133687   5.167   9.537   5.986
77285SOL    HW233688   5.056   9.471   5.906
77286SOL     OW33689   7.495  12.404   9.074
77286SOL    HW133690   7.439  12.401   9.152
77286SOL    HW233691   7.464  12.332   9.020
77287SOL     OW33692  10.353   5.076  11.581
77287SOL    HW133693  10.438   5.121  11.581
77287SOL    HW233694  10.290   5.145  11.603
77288SOL     OW33695  14.305  11.819   0.000
77288SOL    HW133696  14.211  11.806  14.862
77288SOL    HW233697  14.335  11.735   0.036
77289SOL     OW33698   8.479  13.656   2.408
77289SOL    HW133699   8.459  13.588   2.473
77289SOL    HW233700   8.394  13.697   2.390
77290SOL     OW33701   3.760  12.613  13.367
77290SOL    HW133702   3.747  12.700  13.328
77290SOL    HW233703   3.846  12.585  13.336
77291SOL     OW33704   3.782   4.032  11.084
77291SOL    HW133705   3.741   4.050  11.169
77291SOL    HW233706   3.809   3.940  11.090
77292SOL     OW33707   5.714   9.570   7.888
77292SOL    HW133708   5.724   9.550   7.795
77292SOL    HW233709   5.803   9.589   7.918
77293SOL     OW33710  12.044   9.573  13.749
77293SOL    HW133711  12.071   9.637  13.683
77293SOL    HW233712  11.977   9.521  13.707
77294SOL     OW33713  13.500  14.873  12.037
77294SOL    HW133714  13.405  14.874  12.052
77294SOL    HW233715  13.533  14.805  12.096
77295SOL     OW33716   5.194   9.311   4.205
77295SOL    HW133717   5.234   9.224   4.213
77295SOL    HW233718   5.121   9.309   4.266
77296SOL     OW33719  11.340  13.284   5.860
77296SOL    HW133720  11.423  13.309   5.821
77296SOL    HW233721  11.343  13.189   5.865
77297SOL     OW33722   5.420   0.248  10.943
77297SOL    HW133723   5.436   0.261  11.037
77297SOL    HW233724   5.496   0.199  10.912
77298SOL     OW33725  14.133   4.472  11.622
77298SOL    HW133726  14.142   4.414  11.697
77298SOL    HW233727  14.213   4.458  11.571
77299SOL     OW33728  13.346  11.138  14.686
77299SOL    HW133729  13.326  11.176  14.771
77299SOL    HW233730  13.354  11.044  14.702
77300SOL     OW33731   1.600   9.739  12.383
77300SOL    HW133732   1.558   9.660  12.350
77300SOL    HW233733   1.628   9.786  12.304
77301SOL     OW33734   2.845   6.202   0.132
77301SOL    HW133735   2.856   6.147   0.055
77301SOL    HW233736   2.879   6.287   0.106
77302SOL     OW33737  13.668   6.618   8.702
77302SOL    HW133738  13.676   6.711   8.721
77302SOL    HW233739  13.619   6.614   8.620
77303SOL     OW33740   9.209   0.443   0.120
77303SOL    HW133741   9.127   0.398   0.101
77303SOL    HW233742   9.223   0.500   0.045
77304SOL     OW33743   9.347   0.019  10.266
77304SOL    HW133744   9.438   0.002  10.241
77304SOL    HW233745   9.323   0.097  10.216
77305SOL     OW33746  13.756   6.620  11.488
77305SOL    HW133747  13.814   6.629  11.564
77305SOL    HW233748  13.684   6.566  11.520
77306SOL     OW33749  12.559   9.874   5.858
77306SOL    HW133750  12.508   9.796   5.837
77306SOL    HW233751  12.560   9.877   5.954
77307SOL     OW33752   2.469   7.912   2.676
77307SOL    HW133753   2.477   7.817   2.685
77307SOL    HW233754   2.529   7.934   2.605
77308SOL     OW33755   7.530   0.272   4.228
77308SOL    HW133756   7.513   0.215   4.303
77308SOL    HW233757   7.509   0.218   4.152
77309SOL     OW33758   6.773   0.025   2.118
77309SOL    HW133759   6.694   0.076   2.135
77309SOL    HW233760   6.743  14.828   2.063
77310SOL     OW33761   2.917  14.075   6.652
77310SOL    HW133762   2.822  14.086   6.645
77310SOL    HW233763   2.929  13.981   6.663
77311SOL     OW33764   4.329   4.307   1.251
77311SOL    HW133765   4.423   4.304   1.268
77311SOL    HW233766   4.292   4.349   1.328
77312SOL     OW33767  13.831   5.928  14.398
77312SOL    HW133768  13.910   5.968  14.435
77312SOL    HW233769  13.776   5.909  14.474
77313SOL     OW33770   9.820   0.352   2.458
77313SOL    HW133771   9.860   0.267   2.471
77313SOL    HW233772   9.778   0.346   2.372
77314SOL     OW33773  12.452   4.301  10.078
77314SOL    HW133774  12.421   4.335   9.995
77314SOL    HW233775  12.518   4.236  10.055
77315SOL     OW33776   4.168   8.089   3.154
77315SOL    HW133777   4.209   8.017   3.106
77315SOL    HW233778   4.237   8.155   3.161
77316SOL     OW33779  14.095  10.265   4.627
77316SOL    HW133780  14.150  10.341   4.612
77316SOL    HW233781  14.022  10.297   4.680
77317SOL     OW33782  11.623   2.409   8.015
77317SOL    HW133783  11.593   2.492   7.979
77317SOL    HW233784  11.544   2.355   8.020
77318SOL     OW33785  11.864   5.408   7.609
77318SOL    HW133786  11.899   5.325   7.639
77318SOL    HW233787  11.795   5.384   7.547
77319SOL     OW33788  14.695   2.948   7.043
77319SOL    HW133789  14.776   2.971   6.998
77319SOL    HW233790  14.711   2.861   7.078
77320SOL     OW33791  12.755  11.523  10.847
77320SOL    HW133792  12.789  11.460  10.783
77320SOL    HW233793  12.661  11.508  10.848
77321SOL     OW33794   2.863   0.052  10.795
77321SOL    HW133795   2.783   0.100  10.817
77321SOL    HW233796   2.926   0.119  10.769
77322SOL     OW33797   4.172   5.645   2.100
77322SOL    HW133798   4.261   5.611   2.090
77322SOL    HW233799   4.117   5.568   2.108
77323SOL     OW33800  10.774   5.893   3.636
77323SOL    HW133801  10.810   5.941   3.561
77323SOL    HW233802  10.849   5.882   3.695
77324SOL     OW33803  14.077  13.042   0.314
77324SOL    HW133804  14.071  13.011   0.404
77324SOL    HW233805  14.171  13.053   0.298
77325SOL     OW33806  10.949   1.525   0.105
77325SOL    HW133807  10.875   1.466   0.086
77325SOL    HW233808  10.926   1.607   0.061
77326SOL     OW33809  10.295   9.723  10.393
77326SOL    HW133810  10.369   9.742  10.450
77326SOL    HW233811  10.270   9.633  10.415
77327SOL     OW33812   4.241   3.893   2.999
77327SOL    HW133813   4.261   3.897   3.092
77327SOL    HW233814   4.174   3.959   2.985
77328SOL     OW33815   2.719   6.171   0.733
77328SOL    HW133816   2.747   6.080   0.732
77328SOL    HW233817   2.799   6.222   0.718
77329SOL     OW33818  11.887   6.740   6.286
77329SOL    HW133819  11.958   6.676   6.273
77329SOL    HW233820  11.876   6.744   6.381
77330SOL     OW33821   9.724   0.280   0.779
77330SOL    HW133822   9.649   0.220   0.774
77330SOL    HW233823   9.797   0.226   0.809
77331SOL     OW33824   4.366  12.305   2.327
77331SOL    HW133825   4.337  12.319   2.417
77331SOL    HW233826   4.446  12.253   2.336
77332SOL     OW33827  11.000   4.758   7.870
77332SOL    HW133828  10.997   4.690   7.937
77332SOL    HW233829  10.916   4.802   7.877
77333SOL     OW33830   6.432  13.339   4.343
77333SOL    HW133831   6.372  13.401   4.301
77333SOL    HW233832   6.472  13.291   4.271
77334SOL     OW33833  11.736   9.152  11.583
77334SOL    HW133834  11.693   9.237  11.574
77334SOL    HW233835  11.720   9.108  11.500
77335SOL     OW33836   2.060  13.452  11.697
77335SOL    HW133837   2.078  13.361  11.673
77335SOL    HW233838   2.128  13.473  11.761
77336SOL     OW33839   8.152   9.110  11.809
77336SOL    HW133840   8.088   9.075  11.747
77336SOL    HW233841   8.148   9.205  11.798
77337SOL     OW33842  11.415   4.640  11.604
77337SOL    HW133843  11.338   4.658  11.658
77337SOL    HW233844  11.448   4.556  11.636
77338SOL     OW33845   4.119   9.057  14.784
77338SOL    HW133846   4.100   9.050  14.691
77338SOL    HW233847   4.211   9.032  14.792
77339SOL     OW33848  12.263   4.307   0.280
77339SOL    HW133849  12.353   4.275   0.285
77339SOL    HW233850  12.210   4.232   0.307
77340SOL     OW33851   4.164  14.165   4.681
77340SOL    HW133852   4.237  14.221   4.654
77340SOL    HW233853   4.096  14.227   4.708
77341SOL     OW33854   5.693  14.644   3.734
77341SOL    HW133855   5.785  14.650   3.707
77341SOL    HW233856   5.654  14.727   3.705
77342SOL     OW33857   7.747  12.442   8.395
77342SOL    HW133858   7.737  12.379   8.324
77342SOL    HW233859   7.713  12.525   8.360
77343SOL     OW33860   3.800   4.651  14.311
77343SOL    HW133861   3.755   4.581  14.264
77343SOL    HW233862   3.779   4.636  14.403
77344SOL     OW33863   6.608   9.186  11.818
77344SOL    HW133864   6.604   9.105  11.768
77344SOL    HW233865   6.659   9.165  11.896
77345SOL     OW33866   2.496   8.842   8.245
77345SOL    HW133867   2.580   8.797   8.255
77345SOL    HW233868   2.447   8.820   8.324
77346SOL     OW33869   7.448   5.788  12.486
77346SOL    HW133870   7.502   5.733  12.429
77346SOL    HW233871   7.370   5.806  12.435
77347SOL     OW33872   5.977   8.906  11.142
77347SOL    HW133873   6.001   8.843  11.210
77347SOL    HW233874   5.909   8.861  11.092
77348SOL     OW33875   1.284   1.100  14.299
77348SOL    HW133876   1.211   1.039  14.311
77348SOL    HW233877   1.359   1.045  14.279
77349SOL     OW33878   8.055   9.529   1.549
77349SOL    HW133879   8.081   9.615   1.518
77349SOL    HW233880   8.019   9.544   1.636
77350SOL     OW33881  11.193   8.580   9.848
77350SOL    HW133882  11.126   8.626   9.899
77350SOL    HW233883  11.276   8.615   9.880
77351SOL     OW33884   3.561   3.800  14.275
77351SOL    HW133885   3.486   3.859  14.278
77351SOL    HW233886   3.550   3.743  14.351
77352SOL     OW33887   0.799  14.534  13.045
77352SOL    HW133888   0.766  14.457  13.090
77352SOL    HW233889   0.872  14.564  13.099
77353SOL     OW33890   7.690  11.781   9.844
77353SOL    HW133891   7.716  11.871   9.825
77353SOL    HW233892   7.743  11.756   9.920
77354SOL     OW33893   2.185  12.236   9.919
77354SOL    HW133894   2.224  12.269   9.838
77354SOL    HW233895   2.217  12.145   9.926
77355SOL     OW33896   8.983  12.324   1.794
77355SOL    HW133897   8.964  12.238   1.757
77355SOL    HW233898   8.990  12.308   1.888
77356SOL     OW33899   3.972   8.781   6.385
77356SOL    HW133900   3.901   8.743   6.333
77356SOL    HW233901   4.013   8.845   6.327
77357SOL     OW33902   7.559  13.240  11.261
77357SOL    HW133903   7.538  13.231  11.354
77357SOL    HW233904   7.557  13.151  11.227
77358SOL     OW33905   8.594   5.803   1.142
77358SOL    HW133906   8.650   5.807   1.219
77358SOL    HW233907   8.613   5.717   1.104
77359SOL     OW33908   1.875   2.282   6.637
77359SOL    HW133909   1.807   2.215   6.633
77359SOL    HW233910   1.831   2.358   6.676
77360SOL     OW33911  11.077  13.693   6.324
77360SOL    HW133912  11.022  13.755   6.275
77360SOL    HW233913  11.133  13.652   6.257
77361SOL     OW33914  13.732  12.442   3.799
77361SOL    HW133915  13.747  12.356   3.761
77361SOL    HW233916  13.818  12.469   3.832
77362SOL     OW33917  12.788   0.128   7.744
77362SOL    HW133918  12.877   0.139   7.710
77362SOL    HW233919  12.732   0.132   7.666
77363SOL     OW33920   4.700  11.341   2.287
77363SOL    HW133921   4.749  11.327   2.368
77363SOL    HW233922   4.758  11.394   2.233
77364SOL     OW33923   5.424   4.803  10.126
77364SOL    HW133924   5.381   4.831  10.045
77364SOL    HW233925   5.504   4.759  10.096
77365SOL     OW33926  12.470   8.090  14.184
77365SOL    HW133927  12.511   8.152  14.125
77365SOL    HW233928  12.542   8.056  14.237
77366SOL     OW33929   0.375   4.703   3.098
77366SOL    HW133930   0.397   4.742   3.014
77366SOL    HW233931   0.392   4.773   3.162
77367SOL     OW33932  11.043   6.960   0.057
77367SOL    HW133933  10.970   6.973   0.117
77367SOL    HW233934  11.002   6.938  14.849
77368SOL     OW33935  10.827   7.000   0.743
77368SOL    HW133936  10.831   6.923   0.799
77368SOL    HW233937  10.736   7.030   0.750
77369SOL     OW33938   3.906   9.929  12.724
77369SOL    HW133939   3.925   9.860  12.788
77369SOL    HW233940   3.934   9.892  12.641
77370SOL     OW33941   2.856  12.818   9.581
77370SOL    HW133942   2.817  12.734   9.605
77370SOL    HW233943   2.872  12.863   9.664
77371SOL     OW33944   6.877   6.102   5.400
77371SOL    HW133945   6.806   6.165   5.388
77371SOL    HW233946   6.837   6.031   5.450
77372SOL     OW33947   2.228   2.809   1.100
77372SOL    HW133948   2.135   2.791   1.088
77372SOL    HW233949   2.262   2.821   1.011
77373SOL     OW33950   3.025  13.371  13.765
77373SOL    HW133951   3.019  13.310  13.691
77373SOL    HW233952   3.072  13.322  13.833
77374SOL     OW33953   8.252   8.040   1.669
77374SOL    HW133954   8.274   8.033   1.576
77374SOL    HW233955   8.245   7.950   1.699
77375SOL     OW33956   9.338  10.449  12.534
77375SOL    HW133957   9.331  10.380  12.469
77375SOL    HW233958   9.427  10.483  12.524
77376SOL     OW33959   5.335   2.422   5.333
77376SOL    HW133960   5.279   2.357   5.290
77376SOL    HW233961   5.290   2.442   5.415
77377SOL     OW33962  13.013   4.082   4.224
77377SOL    HW133963  13.108   4.086   4.230
77377SOL    HW233964  12.991   3.991   4.245
77378SOL     OW33965   6.863  11.680  10.994
77378SOL    HW133966   6.819  11.729  10.925
77378SOL    HW233967   6.949  11.720  11.001
77379SOL     OW33968   6.375  13.879  11.440
77379SOL    HW133969   6.280  13.883  11.436
77379SOL    HW233970   6.402  13.858  11.351
77380SOL     OW33971   3.212   3.674  13.746
77380SOL    HW133972   3.240   3.626  13.824
77380SOL    HW233973   3.170   3.609  13.690
77381SOL     OW33974   2.151  13.213   6.398
77381SOL    HW133975   2.228  13.238   6.346
77381SOL    HW233976   2.187  13.178   6.479
77382SOL     OW33977   1.851  12.122   9.767
77382SOL    HW133978   1.858  12.047   9.707
77382SOL    HW233979   1.758  12.130   9.785
77383SOL     OW33980   7.690   4.645  14.113
77383SOL    HW133981   7.664   4.734  14.136
77383SOL    HW233982   7.635   4.623  14.038
77384SOL     OW33983  12.944   7.162   0.239
77384SOL    HW133984  12.999   7.137   0.165
77384SOL    HW233985  12.856   7.133   0.215
77385SOL     OW33986  12.530   6.442  10.993
77385SOL    HW133987  12.451   6.413  11.038
77385SOL    HW233988  12.585   6.477  11.063
77386SOL     OW33989   0.537  13.665   8.297
77386SOL    HW133990   0.520  13.633   8.386
77386SOL    HW233991   0.628  13.641   8.280
77387SOL     OW33992   2.900   7.176   4.776
77387SOL    HW133993   2.955   7.230   4.833
77387SOL    HW233994   2.880   7.099   4.828
77388SOL     OW33995   6.555   9.026   9.731
77388SOL    HW133996   6.568   8.937   9.764
77388SOL    HW233997   6.504   9.015   9.651
77389SOL     OW33998   9.911  12.627   9.032
77389SOL    HW133999   9.816  12.637   9.029
77389SOL    HW234000   9.926  12.535   9.014
77390SOL     OW34001   2.724   2.335   0.842
77390SOL    HW134002   2.664   2.269   0.807
77390SOL    HW234003   2.803   2.286   0.864
77391SOL     OW34004   0.097   1.404   4.373
77391SOL    HW134005   0.049   1.372   4.450
77391SOL    HW234006   0.035   1.464   4.330
77392SOL     OW34007  10.967   5.146   5.513
77392SOL    HW134008  11.051   5.151   5.466
77392SOL    HW234009  10.912   5.092   5.457
77393SOL     OW34010  14.392  11.217   7.476
77393SOL    HW134011  14.323  11.160   7.511
77393SOL    HW234012  14.355  11.305   7.479
77394SOL     OW34013   6.467   6.672  10.200
77394SOL    HW134014   6.500   6.761  10.189
77394SOL    HW234015   6.372   6.680  10.195
77395SOL     OW34016  11.688   3.536   6.401
77395SOL    HW134017  11.623   3.564   6.337
77395SOL    HW234018  11.638   3.506   6.476
77396SOL     OW34019  12.668   4.186   3.912
77396SOL    HW134020  12.739   4.203   3.975
77396SOL    HW234021  12.628   4.272   3.898
77397SOL     OW34022   4.057   2.483   3.301
77397SOL    HW134023   4.124   2.417   3.281
77397SOL    HW234024   3.991   2.471   3.234
77398SOL     OW34025  13.713   3.857   7.308
77398SOL    HW134026  13.756   3.914   7.372
77398SOL    HW234027  13.702   3.773   7.353
77399SOL     OW34028  10.916   4.109   2.635
77399SOL    HW134029  11.002   4.137   2.603
77399SOL    HW234030  10.935   4.042   2.700
77400SOL     OW34031  10.046   3.311   1.982
77400SOL    HW134032  10.003   3.238   1.938
77400SOL    HW234033  10.055   3.282   2.073
77401SOL     OW34034  14.477  12.311   0.262
77401SOL    HW134035  14.532  12.351   0.329
77401SOL    HW234036  14.539  12.261   0.208
77402SOL     OW34037   0.611   0.412  11.738
77402SOL    HW134038   0.662   0.332  11.731
77402SOL    HW234039   0.674   0.479  11.765
77403SOL     OW34040   1.340  12.607   3.708
77403SOL    HW134041   1.356  12.679   3.648
77403SOL    HW234042   1.393  12.534   3.674
77404SOL     OW34043  10.713  12.716   0.980
77404SOL    HW134044  10.735  12.653   1.048
77404SOL    HW234045  10.787  12.713   0.919
77405SOL     OW34046  11.738   3.731   7.642
77405SOL    HW134047  11.665   3.792   7.646
77405SOL    HW234048  11.795   3.766   7.573
77406SOL     OW34049   3.884   8.885  10.501
77406SOL    HW134050   3.893   8.812  10.440
77406SOL    HW234051   3.904   8.963  10.449
77407SOL     OW34052   6.544   3.691   3.759
77407SOL    HW134053   6.545   3.754   3.687
77407SOL    HW234054   6.528   3.744   3.837
77408SOL     OW34055   9.527  10.110   1.912
77408SOL    HW134056   9.437  10.082   1.900
77408SOL    HW234057   9.539  10.179   1.847
77409SOL     OW34058  10.823   0.391  10.310
77409SOL    HW134059  10.744   0.414  10.359
77409SOL    HW234060  10.883   0.355  10.376
77410SOL     OW34061  13.456   5.454   3.865
77410SOL    HW134062  13.524   5.452   3.932
77410SOL    HW234063  13.499   5.493   3.789
77411SOL     OW34064   9.253  10.037  11.750
77411SOL    HW134065   9.177  10.086  11.779
77411SOL    HW234066   9.302  10.098  11.695
77412SOL     OW34067  11.800   6.024   2.902
77412SOL    HW134068  11.838   5.954   2.956
77412SOL    HW234069  11.752   5.978   2.833
77413SOL     OW34070   3.843   2.600  12.186
77413SOL    HW134071   3.798   2.617  12.269
77413SOL    HW234072   3.827   2.678  12.133
77414SOL     OW34073   3.423  11.737  14.039
77414SOL    HW134074   3.461  11.755  13.953
77414SOL    HW234075   3.336  11.702  14.020
77415SOL     OW34076  11.648   0.414   3.529
77415SOL    HW134077  11.694   0.330   3.529
77415SOL    HW234078  11.648   0.441   3.437
77416SOL     OW34079   3.553   2.535   7.996
77416SOL    HW134080   3.521   2.613   7.950
77416SOL    HW234081   3.628   2.566   8.046
77417SOL     OW34082   0.678  12.769   4.566
77417SOL    HW134083   0.772  12.781   4.552
77417SOL    HW234084   0.671  12.736   4.655
77418SOL     OW34085  14.459  12.857  11.487
77418SOL    HW134086  14.373  12.899  11.482
77418SOL    HW234087  14.461  12.798  11.412
77419SOL     OW34088  11.816   5.341   2.017
77419SOL    HW134089  11.831   5.391   2.097
77419SOL    HW234090  11.821   5.405   1.946
77420SOL     OW34091   6.918   3.493   0.827
77420SOL    HW134092   6.934   3.583   0.800
77420SOL    HW234093   6.851   3.499   0.895
77421SOL     OW34094   3.029   1.925   9.935
77421SOL    HW134095   3.090   1.981   9.982
77421SOL    HW234096   3.023   1.964   9.848
77422SOL     OW34097   9.626   1.906   7.393
77422SOL    HW134098   9.662   1.926   7.307
77422SOL    HW234099   9.703   1.897   7.449
77423SOL     OW34100  10.711  12.441   9.854
77423SOL    HW134101  10.689  12.477   9.768
77423SOL    HW234102  10.627  12.428   9.897
77424SOL     OW34103   9.400   0.185  11.596
77424SOL    HW134104   9.437   0.117  11.539
77424SOL    HW234105   9.307   0.186  11.575
77425SOL     OW34106   6.106  13.189   9.375
77425SOL    HW134107   6.143  13.105   9.402
77425SOL    HW234108   6.177  13.252   9.389
77426SOL     OW34109  13.361   3.747   3.076
77426SOL    HW134110  13.309   3.728   2.999
77426SOL    HW234111  13.382   3.840   3.069
77427SOL     OW34112   5.711   4.651   7.694
77427SOL    HW134113   5.759   4.568   7.689
77427SOL    HW234114   5.774   4.717   7.663
77428SOL     OW34115   5.871  14.466   6.189
77428SOL    HW134116   5.877  14.500   6.100
77428SOL    HW234117   5.801  14.518   6.229
77429SOL     OW34118   9.035   5.805   6.825
77429SOL    HW134119   9.060   5.872   6.889
77429SOL    HW234120   9.118   5.773   6.791
77430SOL     OW34121   0.293   9.086  10.768
77430SOL    HW134122   0.320   9.018  10.707
77430SOL    HW234123   0.245   9.039  10.836
77431SOL     OW34124   4.054   6.365   9.289
77431SOL    HW134125   4.147   6.340   9.292
77431SOL    HW234126   4.017   6.311   9.219
77432SOL     OW34127   9.080  11.078  10.447
77432SOL    HW134128   8.990  11.099  10.471
77432SOL    HW234129   9.094  10.989  10.481
77433SOL     OW34130   8.397   8.069  12.273
77433SOL    HW134131   8.431   7.982  12.249
77433SOL    HW234132   8.323   8.050  12.331
77434SOL     OW34133  12.080   2.933   4.486
77434SOL    HW134134  12.169   2.905   4.508
77434SOL    HW234135  12.038   2.949   4.571
77435SOL     OW34136   5.791  11.184   4.778
77435SOL    HW134137   5.857  11.166   4.844
77435SOL    HW234138   5.747  11.100   4.763
77436SOL     OW34139  11.648  11.552   2.477
77436SOL    HW134140  11.671  11.537   2.569
77436SOL    HW234141  11.691  11.635   2.454
77437SOL     OW34142  10.584   5.843  12.576
77437SOL    HW134143  10.564   5.755  12.607
77437SOL    HW234144  10.660   5.831  12.518
77438SOL     OW34145   3.224  13.577   6.318
77438SOL    HW134146   3.177  13.649   6.362
77438SOL    HW234147   3.313  13.610   6.308
77439SOL     OW34148  12.188  14.632  12.172
77439SOL    HW134149  12.253  14.568  12.144
77439SOL    HW234150  12.118  14.625  12.107
77440SOL     OW34151  10.060   2.808   2.455
77440SOL    HW134152  10.153   2.830   2.456
77440SOL    HW234153  10.044   2.766   2.539
77441SOL     OW34154   2.836   3.228  10.233
77441SOL    HW134155   2.886   3.240  10.152
77441SOL    HW234156   2.775   3.301  10.235
77442SOL     OW34157   9.793  10.029   2.000
77442SOL    HW134158   9.742  10.109   1.991
77442SOL    HW234159   9.823  10.010   1.911
77443SOL     OW34160  11.779   4.177  12.432
77443SOL    HW134161  11.809   4.091  12.402
77443SOL    HW234162  11.684   4.168  12.438
77444SOL     OW34163   5.865   4.580  11.517
77444SOL    HW134164   5.879   4.486  11.509
77444SOL    HW234165   5.898   4.602  11.604
77445SOL     OW34166   8.662   9.479   0.457
77445SOL    HW134167   8.700   9.391   0.445
77445SOL    HW234168   8.582   9.463   0.507
77446SOL     OW34169   6.830  14.394   1.645
77446SOL    HW134170   6.827  14.327   1.578
77446SOL    HW234171   6.892  14.459   1.612
77447SOL     OW34172  14.349  12.296   9.180
77447SOL    HW134173  14.325  12.356   9.250
77447SOL    HW234174  14.442  12.278   9.194
77448SOL     OW34175  10.900  11.155   6.623
77448SOL    HW134176  10.839  11.098   6.575
77448SOL    HW234177  10.848  11.232   6.646
77449SOL     OW34178   7.372   5.874   5.478
77449SOL    HW134179   7.399   5.827   5.557
77449SOL    HW234180   7.319   5.947   5.510
77450SOL     OW34181  11.094   1.874   1.885
77450SOL    HW134182  11.062   1.789   1.915
77450SOL    HW234183  11.187   1.861   1.869
77451SOL     OW34184   1.674  10.513   8.547
77451SOL    HW134185   1.682  10.421   8.521
77451SOL    HW234186   1.646  10.558   8.467
77452SOL     OW34187   2.140   0.265  14.761
77452SOL    HW134188   2.111   0.337  14.704
77452SOL    HW234189   2.236   0.267  14.754
77453SOL     OW34190   3.216   7.541   7.161
77453SOL    HW134191   3.129   7.557   7.197
77453SOL    HW234192   3.260   7.627   7.164
77454SOL     OW34193  13.957   2.664  10.250
77454SOL    HW134194  14.051   2.681  10.253
77454SOL    HW234195  13.933   2.645  10.341
77455SOL     OW34196  13.121   2.022   9.337
77455SOL    HW134197  13.173   2.093   9.373
77455SOL    HW234198  13.031   2.042   9.365
77456SOL     OW34199  10.247  13.710   5.271
77456SOL    HW134200  10.209  13.740   5.188
77456SOL    HW234201  10.174  13.709   5.332
77457SOL     OW34202  14.678  12.165   1.998
77457SOL    HW134203  14.705  12.090   2.050
77457SOL    HW234204  14.760  12.210   1.977
77458SOL     OW34205   1.220   7.623   4.734
77458SOL    HW134206   1.178   7.661   4.658
77458SOL    HW234207   1.224   7.694   4.798
77459SOL     OW34208  12.694   0.679  11.775
77459SOL    HW134209  12.659   0.664  11.863
77459SOL    HW234210  12.759   0.749  11.786
77460SOL     OW34211   4.215   3.302   0.819
77460SOL    HW134212   4.295   3.267   0.782
77460SOL    HW234213   4.147   3.239   0.796
77461SOL     OW34214  13.149   2.990   3.291
77461SOL    HW134215  13.224   2.946   3.330
77461SOL    HW234216  13.177   3.013   3.203
77462SOL     OW34217   6.979   4.292   4.200
77462SOL    HW134218   6.956   4.377   4.238
77462SOL    HW234219   7.013   4.313   4.113
77463SOL     OW34220  13.269  12.901  11.860
77463SOL    HW134221  13.187  12.866  11.895
77463SOL    HW234222  13.241  12.973  11.803
77464SOL     OW34223   7.645   1.170  14.393
77464SOL    HW134224   7.611   1.210  14.313
77464SOL    HW234225   7.724   1.123  14.365
77465SOL     OW34226   4.339   0.954  12.078
77465SOL    HW134227   4.309   0.901  12.152
77465SOL    HW234228   4.403   0.899  12.033
77466SOL     OW34229   6.762   6.390   2.615
77466SOL    HW134230   6.814   6.373   2.694
77466SOL    HW234231   6.677   6.418   2.648
77467SOL     OW34232   0.509   9.111   1.545
77467SOL    HW134233   0.604   9.099   1.539
77467SOL    HW234234   0.482   9.053   1.616
77468SOL     OW34235   1.612  10.715  13.490
77468SOL    HW134236   1.578  10.776  13.556
77468SOL    HW234237   1.671  10.768  13.437
77469SOL     OW34238  14.631   2.174   3.200
77469SOL    HW134239  14.640   2.130   3.116
77469SOL    HW234240  14.680   2.119   3.262
77470SOL     OW34241   4.113   7.837   4.662
77470SOL    HW134242   4.060   7.888   4.600
77470SOL    HW234243   4.097   7.879   4.747
77471SOL     OW34244   0.168   2.038   0.681
77471SOL    HW134245   0.192   2.115   0.733
77471SOL    HW234246   0.200   2.058   0.593
77472SOL     OW34247   7.139   0.804   4.183
77472SOL    HW134248   7.207   0.864   4.214
77472SOL    HW234249   7.066   0.816   4.244
77473SOL     OW34250  11.281   5.884  12.582
77473SOL    HW134251  11.206   5.859  12.635
77473SOL    HW234252  11.304   5.805  12.533
77474SOL     OW34253   3.110   2.418   5.572
77474SOL    HW134254   3.205   2.408   5.570
77474SOL    HW234255   3.083   2.406   5.481
77475SOL     OW34256   3.360   2.023   0.395
77475SOL    HW134257   3.336   2.109   0.361
77475SOL    HW234258   3.354   2.032   0.490
77476SOL     OW34259  10.734   9.558   5.029
77476SOL    HW134260  10.745   9.484   4.969
77476SOL    HW234261  10.823   9.577   5.060
77477SOL     OW34262   3.993   2.144  11.112
77477SOL    HW134263   3.950   2.109  11.034
77477SOL    HW234264   3.922   2.160  11.174
77478SOL     OW34265   0.876  13.479  12.227
77478SOL    HW134266   0.805  13.447  12.171
77478SOL    HW234267   0.854  13.445  12.314
77479SOL     OW34268   9.282   6.106  13.781
77479SOL    HW134269   9.351   6.108  13.714
77479SOL    HW234270   9.205   6.072  13.736
77480SOL     OW34271  12.769   4.544   3.962
77480SOL    HW134272  12.693   4.509   3.915
77480SOL    HW234273  12.732   4.585   4.040
77481SOL     OW34274   4.350   2.339   9.367
77481SOL    HW134275   4.361   2.431   9.343
77481SOL    HW234276   4.278   2.307   9.313
77482SOL     OW34277   6.794   0.216  10.175
77482SOL    HW134278   6.705   0.212  10.139
77482SOL    HW234279   6.815   0.309  10.177
77483SOL     OW34280   3.115  13.561  13.556
77483SOL    HW134281   3.191  13.557  13.498
77483SOL    HW234282   3.124  13.485  13.613
77484SOL     OW34283  12.681   8.348   2.923
77484SOL    HW134284  12.735   8.357   2.845
77484SOL    HW234285  12.739   8.369   2.996
77485SOL     OW34286  14.868   3.491   9.459
77485SOL    HW134287   0.038   3.574   9.472
77485SOL    HW234288  14.832   3.497   9.370
77486SOL     OW34289  10.216   0.053   9.982
77486SOL    HW134290  10.224  14.856   9.920
77486SOL    HW234291  10.140   0.102   9.951
77487SOL     OW34292   2.894  13.106   8.389
77487SOL    HW134293   2.934  13.161   8.457
77487SOL    HW234294   2.824  13.161   8.353
77488SOL     OW34295   6.553   8.465   0.793
77488SOL    HW134296   6.485   8.426   0.738
77488SOL    HW234297   6.635   8.448   0.745
77489SOL     OW34298   2.928  14.648   9.361
77489SOL    HW134299   2.883  14.727   9.334
77489SOL    HW234300   2.916  14.587   9.289
77490SOL     OW34301   7.894  11.731   7.110
77490SOL    HW134302   7.952  11.685   7.049
77490SOL    HW234303   7.806  11.707   7.082
77491SOL     OW34304   5.662   4.041   3.417
77491SOL    HW134305   5.652   3.959   3.465
77491SOL    HW234306   5.573   4.076   3.410
77492SOL     OW34307  14.337  14.163  13.756
77492SOL    HW134308  14.339  14.096  13.824
77492SOL    HW234309  14.351  14.116  13.674
77493SOL     OW34310   5.684   6.446  10.719
77493SOL    HW134311   5.713   6.533  10.690
77493SOL    HW234312   5.589   6.453  10.723
77494SOL     OW34313  11.633  13.825   0.763
77494SOL    HW134314  11.697  13.810   0.694
77494SOL    HW234315  11.663  13.906   0.806
77495SOL     OW34316   1.797  14.677   1.574
77495SOL    HW134317   1.715  14.702   1.617
77495SOL    HW234318   1.793  14.581   1.570
77496SOL     OW34319   3.526  12.048  10.138
77496SOL    HW134320   3.613  12.029  10.103
77496SOL    HW234321   3.500  12.129  10.096
77497SOL     OW34322   2.770   4.868   3.424
77497SOL    HW134323   2.842   4.882   3.362
77497SOL    HW234324   2.757   4.954   3.464
77498SOL     OW34325   9.415  12.936  14.545
77498SOL    HW134326   9.398  13.016  14.595
77498SOL    HW234327   9.511  12.929  14.543
77499SOL     OW34328   1.244  14.107   7.890
77499SOL    HW134329   1.296  14.150   7.958
77499SOL    HW234330   1.291  14.125   7.808
77500SOL     OW34331   5.961   5.420  10.421
77500SOL    HW134332   5.908   5.486  10.465
77500SOL    HW234333   6.046   5.463  10.407
77501SOL     OW34334  11.931   1.300  10.040
77501SOL    HW134335  11.976   1.250   9.971
77501SOL    HW234336  11.844   1.259  10.045
77502SOL     OW34337   5.170   9.338  12.720
77502SOL    HW134338   5.095   9.281  12.703
77502SOL    HW234339   5.164   9.359  12.813
77503SOL     OW34340   5.897  10.409   8.739
77503SOL    HW134341   5.892  10.324   8.695
77503SOL    HW234342   5.842  10.399   8.817
77504SOL     OW34343   2.604   5.282  12.961
77504SOL    HW134344   2.532   5.252  12.907
77504SOL    HW234345   2.583   5.373  12.981
77505SOL     OW34346  12.986  10.560   1.270
77505SOL    HW134347  12.914  10.516   1.227
77505SOL    HW234348  12.960  10.652   1.275
77506SOL     OW34349  14.373   9.690  14.190
77506SOL    HW134350  14.339   9.604  14.213
77506SOL    HW234351  14.443   9.706  14.254
77507SOL     OW34352   9.292   9.594   9.940
77507SOL    HW134353   9.274   9.682   9.974
77507SOL    HW234354   9.387   9.588   9.939
77508SOL     OW34355   9.506  10.887  11.662
77508SOL    HW134356   9.506  10.791  11.661
77508SOL    HW234357   9.547  10.912  11.579
77509SOL     OW34358   1.755   6.371   2.493
77509SOL    HW134359   1.810   6.433   2.445
77509SOL    HW234360   1.777   6.286   2.454
77510SOL     OW34361   5.625   8.793  11.648
77510SOL    HW134362   5.675   8.789  11.566
77510SOL    HW234363   5.541   8.832  11.623
77511SOL     OW34364   0.475   7.184   3.192
77511SOL    HW134365   0.407   7.244   3.222
77511SOL    HW234366   0.456   7.170   3.099
77512SOL     OW34367   3.493   9.606   6.200
77512SOL    HW134368   3.423   9.641   6.145
77512SOL    HW234369   3.573   9.644   6.164
77513SOL     OW34370  10.115  10.769  13.342
77513SOL    HW134371  10.210  10.771  13.355
77513SOL    HW234372  10.101  10.697  13.280
77514SOL     OW34373   8.430   7.123   9.996
77514SOL    HW134374   8.497   7.079   9.942
77514SOL    HW234375   8.381   7.176   9.934
77515SOL     OW34376   2.199   3.649   3.958
77515SOL    HW134377   2.133   3.700   4.004
77515SOL    HW234378   2.279   3.662   4.008
77516SOL     OW34379  12.536  10.130   1.675
77516SOL    HW134380  12.542  10.195   1.605
77516SOL    HW234381  12.585  10.169   1.747
77517SOL     OW34382  12.127  12.801   5.404
77517SOL    HW134383  12.068  12.808   5.479
77517SOL    HW234384  12.106  12.878   5.350
77518SOL     OW34385  14.412   9.759   3.115
77518SOL    HW134386  14.482   9.816   3.146
77518SOL    HW234387  14.458   9.682   3.081
77519SOL     OW34388  11.191   7.798  10.450
77519SOL    HW134389  11.212   7.726  10.391
77519SOL    HW234390  11.211   7.877  10.400
77520SOL     OW34391  11.694   7.435   6.937
77520SOL    HW134392  11.644   7.455   7.016
77520SOL    HW234393  11.634   7.456   6.865
77521SOL     OW34394   2.529  11.269   2.839
77521SOL    HW134395   2.575  11.189   2.867
77521SOL    HW234396   2.436  11.244   2.840
77522SOL     OW34397   0.285   4.059   1.537
77522SOL    HW134398   0.303   3.985   1.595
77522SOL    HW234399   0.371   4.082   1.501
77523SOL     OW34400   4.344   0.759  10.858
77523SOL    HW134401   4.343   0.852  10.880
77523SOL    HW234402   4.302   0.754  10.772
77524SOL     OW34403   4.986   1.475  12.535
77524SOL    HW134404   5.048   1.518  12.594
77524SOL    HW234405   5.030   1.472  12.451
77525SOL     OW34406   0.415  12.180   5.569
77525SOL    HW134407   0.483  12.247   5.582
77525SOL    HW234408   0.361  12.216   5.499
77526SOL     OW34409   6.575   1.570   9.629
77526SOL    HW134410   6.508   1.625   9.671
77526SOL    HW234411   6.645   1.631   9.606
77527SOL     OW34412   4.503   2.852  14.483
77527SOL    HW134413   4.530   2.881  14.396
77527SOL    HW234414   4.554   2.772  14.499
77528SOL     OW34415   9.699  12.385   6.053
77528SOL    HW134416   9.634  12.315   6.047
77528SOL    HW234417   9.661  12.448   6.114
77529SOL     OW34418   2.253  13.814   3.760
77529SOL    HW134419   2.241  13.722   3.782
77529SOL    HW234420   2.177  13.858   3.797
77530SOL     OW34421   2.126   9.148   0.611
77530SOL    HW134422   2.164   9.068   0.649
77530SOL    HW234423   2.062   9.116   0.547
77531SOL     OW34424   5.221   6.635   4.837
77531SOL    HW134425   5.290   6.614   4.774
77531SOL    HW234426   5.202   6.552   4.880
77532SOL     OW34427   2.781   1.740  11.079
77532SOL    HW134428   2.729   1.809  11.119
77532SOL    HW234429   2.717   1.684  11.034
77533SOL     OW34430   4.570   0.754   6.779
77533SOL    HW134431   4.573   0.686   6.846
77533SOL    HW234432   4.477   0.769   6.764
77534SOL     OW34433   9.817   3.261   9.953
77534SOL    HW134434   9.799   3.212  10.034
77534SOL    HW234435   9.786   3.350   9.973
77535SOL     OW34436  11.804  14.244   3.075
77535SOL    HW134437  11.862  14.225   3.001
77535SOL    HW234438  11.862  14.248   3.151
77536SOL     OW34439   3.637  12.932   2.212
77536SOL    HW134440   3.638  13.002   2.277
77536SOL    HW234441   3.551  12.939   2.170
77537SOL     OW34442   4.918   8.893   2.366
77537SOL    HW134443   4.919   8.985   2.340
77537SOL    HW234444   4.917   8.895   2.462
77538SOL     OW34445   0.795   0.422  14.610
77538SOL    HW134446   0.821   0.330  14.615
77538SOL    HW234447   0.838   0.463  14.686
77539SOL     OW34448   8.641   2.989  10.441
77539SOL    HW134449   8.674   3.077  10.422
77539SOL    HW234450   8.614   2.955  10.356
77540SOL     OW34451  11.219   7.943   8.749
77540SOL    HW134452  11.170   7.869   8.784
77540SOL    HW234453  11.279   7.904   8.685
77541SOL     OW34454   2.037   3.644   2.966
77541SOL    HW134455   1.999   3.622   3.051
77541SOL    HW234456   1.965   3.678   2.915
77542SOL     OW34457   3.262   3.053  11.297
77542SOL    HW134458   3.308   3.133  11.325
77542SOL    HW234459   3.186   3.048  11.355
77543SOL     OW34460   8.708   1.960  11.650
77543SOL    HW134461   8.674   2.050  11.646
77543SOL    HW234462   8.746   1.953  11.737
77544SOL     OW34463  11.429   5.964   1.031
77544SOL    HW134464  11.472   5.904   0.971
77544SOL    HW234465  11.492   6.035   1.043
77545SOL     OW34466  11.249   4.461   3.858
77545SOL    HW134467  11.272   4.479   3.950
77545SOL    HW234468  11.165   4.505   3.845
77546SOL     OW34469   2.956   3.475   4.794
77546SOL    HW134470   2.911   3.438   4.870
77546SOL    HW234471   2.914   3.434   4.719
77547SOL     OW34472   0.018  13.321  14.584
77547SOL    HW134473   0.112  13.310  14.570
77547SOL    HW234474  14.868  13.388  14.520
77548SOL     OW34475   3.260   2.725   5.713
77548SOL    HW134476   3.215   2.810   5.720
77548SOL    HW234477   3.219   2.670   5.780
77549SOL     OW34478  14.429   8.889   4.689
77549SOL    HW134479  14.524   8.892   4.703
77549SOL    HW234480  14.415   8.812   4.635
77550SOL     OW34481   8.088   1.907   0.239
77550SOL    HW134482   8.030   1.839   0.272
77550SOL    HW234483   8.117   1.875   0.153
77551SOL     OW34484   8.861   6.424  10.265
77551SOL    HW134485   8.932   6.437  10.329
77551SOL    HW234486   8.890   6.350  10.212
77552SOL     OW34487   5.888  14.482   4.509
77552SOL    HW134488   5.916  14.532   4.432
77552SOL    HW234489   5.951  14.505   4.577
77553SOL     OW34490  12.730   9.522  11.146
77553SOL    HW134491  12.807   9.473  11.118
77553SOL    HW234492  12.734   9.519  11.242
77554SOL     OW34493   0.255   3.546   9.165
77554SOL    HW134494   0.204   3.622   9.136
77554SOL    HW234495   0.337   3.552   9.117
77555SOL     OW34496  13.535   2.301   6.463
77555SOL    HW134497  13.593   2.240   6.420
77555SOL    HW234498  13.458   2.249   6.488
77556SOL     OW34499   6.357   6.033  14.335
77556SOL    HW134500   6.309   6.114  14.355
77556SOL    HW234501   6.291   5.974  14.299
77557SOL     OW34502   4.552  12.893   1.096
77557SOL    HW134503   4.607  12.956   1.144
77557SOL    HW234504   4.490  12.947   1.048
77558SOL     OW34505   3.341  13.714  12.991
77558SOL    HW134506   3.288  13.794  12.985
77558SOL    HW234507   3.431  13.745  12.994
77559SOL     OW34508  13.202  12.874   6.417
77559SOL    HW134509  13.144  12.807   6.382
77559SOL    HW234510  13.289  12.849   6.387
77560SOL     OW34511   8.451   4.959  13.850
77560SOL    HW134512   8.398   4.912  13.914
77560SOL    HW234513   8.393   5.028  13.817
77561SOL     OW34514  11.018  14.794   4.160
77561SOL    HW134515  11.048   0.005   4.184
77561SOL    HW234516  11.095  14.738   4.170
77562SOL     OW34517   2.544  14.439   7.238
77562SOL    HW134518   2.490  14.379   7.290
77562SOL    HW234519   2.613  14.384   7.201
77563SOL     OW34520   0.663  14.302  10.847
77563SOL    HW134521   0.605  14.231  10.872
77563SOL    HW234522   0.688  14.344  10.930
77564SOL     OW34523   4.632   7.234  11.254
77564SOL    HW134524   4.684   7.196  11.324
77564SOL    HW234525   4.635   7.329  11.271
77565SOL     OW34526   1.704   4.876   1.925
77565SOL    HW134527   1.751   4.798   1.894
77565SOL    HW234528   1.618   4.843   1.951
77566SOL     OW34529   5.545   7.857   7.547
77566SOL    HW134530   5.611   7.789   7.560
77566SOL    HW234531   5.523   7.851   7.454
77567SOL     OW34532   9.327   3.806  11.845
77567SOL    HW134533   9.390   3.840  11.781
77567SOL    HW234534   9.315   3.714  11.821
77568SOL     OW34535  12.703   1.523   2.063
77568SOL    HW134536  12.672   1.471   1.989
77568SOL    HW234537  12.642   1.502   2.134
77569SOL     OW34538  13.526   3.659   6.570
77569SOL    HW134539  13.541   3.569   6.600
77569SOL    HW234540  13.569   3.664   6.485
77570SOL     OW34541  11.262   9.475   4.862
77570SOL    HW134542  11.324   9.420   4.909
77570SOL    HW234543  11.233   9.540   4.926
77571SOL     OW34544  11.508   8.148   5.202
77571SOL    HW134545  11.444   8.086   5.165
77571SOL    HW234546  11.543   8.103   5.279
77572SOL     OW34547   9.942   2.422   6.204
77572SOL    HW134548   9.865   2.478   6.198
77572SOL    HW234549   9.975   2.416   6.115
77573SOL     OW34550   2.032   5.582  12.718
77573SOL    HW134551   1.967   5.585  12.789
77573SOL    HW234552   2.033   5.490  12.690
77574SOL     OW34553   0.020  12.781  12.314
77574SOL    HW134554   0.013  12.810  12.405
77574SOL    HW234555   0.094  12.831  12.278
77575SOL     OW34556  10.431   8.322  10.798
77575SOL    HW134557  10.433   8.372  10.716
77575SOL    HW234558  10.340   8.294  10.806
77576SOL     OW34559   9.239   0.414   7.777
77576SOL    HW134560   9.240   0.510   7.771
77576SOL    HW234561   9.329   0.391   7.799
77577SOL     OW34562  12.572   4.918   1.191
77577SOL    HW134563  12.649   4.941   1.139
77577SOL    HW234564  12.568   4.823   1.186
77578SOL     OW34565   5.641   0.375  11.711
77578SOL    HW134566   5.696   0.415  11.644
77578SOL    HW234567   5.558   0.358  11.665
77579SOL     OW34568   8.756   7.969  11.417
77579SOL    HW134569   8.718   8.050  11.382
77579SOL    HW234570   8.849   7.990  11.430
77580SOL     OW34571  14.146   2.034   2.360
77580SOL    HW134572  14.209   2.098   2.326
77580SOL    HW234573  14.172   2.023   2.452
77581SOL     OW34574  12.565   5.001  14.038
77581SOL    HW134575  12.609   5.024  14.120
77581SOL    HW234576  12.636   4.971  13.981
77582SOL     OW34577  14.475  10.520  11.147
77582SOL    HW134578  14.460  10.491  11.237
77582SOL    HW234579  14.551  10.471  11.118
77583SOL     OW34580   4.510   2.417  10.503
77583SOL    HW134581   4.504   2.507  10.535
77583SOL    HW234582   4.492   2.362  10.579
77584SOL     OW34583   8.326  12.812  11.630
77584SOL    HW134584   8.297  12.880  11.690
77584SOL    HW234585   8.248  12.792  11.577
77585SOL     OW34586  13.447  12.891   4.051
77585SOL    HW134587  13.454  12.845   4.134
77585SOL    HW234588  13.524  12.948   4.048
77586SOL     OW34589  13.356   9.034   7.159
77586SOL    HW134590  13.277   8.980   7.160
77586SOL    HW234591  13.328   9.117   7.119
77587SOL     OW34592   0.766  12.335  13.579
77587SOL    HW134593   0.843  12.383  13.609
77587SOL    HW234594   0.704  12.403  13.552
77588SOL     OW34595   6.914  12.295  14.041
77588SOL    HW134596   6.900  12.328  14.130
77588SOL    HW234597   7.007  12.270  14.040
77589SOL     OW34598   2.791   3.388   3.070
77589SOL    HW134599   2.871   3.349   3.035
77589SOL    HW234600   2.756   3.440   2.998
77590SOL     OW34601  14.072   2.127   7.253
77590SOL    HW134602  14.100   2.120   7.161
77590SOL    HW234603  13.978   2.108   7.251
77591SOL     OW34604  13.287  13.776   7.704
77591SOL    HW134605  13.260  13.835   7.633
77591SOL    HW234606  13.381  13.764   7.691
77592SOL     OW34607   4.061   0.899   6.830
77592SOL    HW134608   3.984   0.915   6.885
77592SOL    HW234609   4.045   0.813   6.791
77593SOL     OW34610   3.246  13.077   1.993
77593SOL    HW134611   3.286  13.162   2.007
77593SOL    HW234612   3.154  13.088   2.018
77594SOL     OW34613   5.225  11.925   8.619
77594SOL    HW134614   5.210  12.019   8.632
77594SOL    HW234615   5.180  11.905   8.537
77595SOL     OW34616   4.335   0.860   8.921
77595SOL    HW134617   4.271   0.791   8.907
77595SOL    HW234618   4.288   0.941   8.903
77596SOL     OW34619   4.006  11.324   2.940
77596SOL    HW134620   3.965  11.350   3.023
77596SOL    HW234621   3.953  11.251   2.908
77597SOL     OW34622   7.431   0.826   1.384
77597SOL    HW134623   7.509   0.876   1.406
77597SOL    HW234624   7.411   0.852   1.294
77598SOL     OW34625   8.557   1.233   8.090
77598SOL    HW134626   8.582   1.141   8.078
77598SOL    HW234627   8.504   1.233   8.170
77599SOL     OW34628   9.419   5.999  10.461
77599SOL    HW134629   9.354   6.010  10.531
77599SOL    HW234630   9.453   5.910  10.474
77600SOL     OW34631   6.474   4.064   5.833
77600SOL    HW134632   6.403   4.028   5.885
77600SOL    HW234633   6.484   4.154   5.866
77601SOL     OW34634   3.756  11.956   9.715
77601SOL    HW134635   3.778  12.049   9.720
77601SOL    HW234636   3.815  11.914   9.778
77602SOL     OW34637  10.792   2.301   4.860
77602SOL    HW134638  10.878   2.336   4.835
77602SOL    HW234639  10.809   2.256   4.943
77603SOL     OW34640   4.630   7.048  10.452
77603SOL    HW134641   4.598   7.125  10.499
77603SOL    HW234642   4.645   7.080  10.363
77604SOL     OW34643   7.638   9.533   5.493
77604SOL    HW134644   7.592   9.588   5.430
77604SOL    HW234645   7.571   9.472   5.524
77605SOL     OW34646  12.347   6.785   4.381
77605SOL    HW134647  12.372   6.863   4.430
77605SOL    HW234648  12.275   6.747   4.431
77606SOL     OW34649   7.638   1.804   6.750
77606SOL    HW134650   7.597   1.858   6.818
77606SOL    HW234651   7.608   1.715   6.769
77607SOL     OW34652   9.319   1.533   1.162
77607SOL    HW134653   9.369   1.518   1.242
77607SOL    HW234654   9.297   1.446   1.131
77608SOL     OW34655   6.956   5.407   9.744
77608SOL    HW134656   6.995   5.406   9.657
77608SOL    HW234657   7.030   5.415   9.804
77609SOL     OW34658   4.783   4.098  10.846
77609SOL    HW134659   4.801   4.006  10.827
77609SOL    HW234660   4.833   4.116  10.925
77610SOL     OW34661   7.056   4.034   0.274
77610SOL    HW134662   7.068   3.944   0.242
77610SOL    HW234663   7.138   4.078   0.253
77611SOL     OW34664   6.615   2.991  10.012
77611SOL    HW134665   6.601   3.030  10.099
77611SOL    HW234666   6.568   2.907  10.016
77612SOL     OW34667  12.030   8.807  10.203
77612SOL    HW134668  12.020   8.742  10.133
77612SOL    HW234669  12.073   8.881  10.160
77613SOL     OW34670   6.409   7.653  11.585
77613SOL    HW134671   6.432   7.647  11.492
77613SOL    HW234672   6.400   7.747  11.602
77614SOL     OW34673   4.984   2.288   0.136
77614SOL    HW134674   5.061   2.239   0.167
77614SOL    HW234675   5.016   2.340   0.063
77615SOL     OW34676   7.632  10.243   3.063
77615SOL    HW134677   7.537  10.245   3.062
77615SOL    HW234678   7.658  10.335   3.061
77616SOL     OW34679  10.924  10.032  10.695
77616SOL    HW134680  10.961  10.108  10.740
77616SOL    HW234681  10.829  10.043  10.705
77617SOL     OW34682  11.409  10.226  13.277
77617SOL    HW134683  11.403  10.303  13.334
77617SOL    HW234684  11.336  10.171  13.303
77618SOL     OW34685  10.527   6.332   1.035
77618SOL    HW134686  10.543   6.379   1.117
77618SOL    HW234687  10.559   6.392   0.967
77619SOL     OW34688   2.142   8.715   4.765
77619SOL    HW134689   2.156   8.784   4.701
77619SOL    HW234690   2.191   8.743   4.842
77620SOL     OW34691   0.253  11.378   6.776
77620SOL    HW134692   0.220  11.312   6.716
77620SOL    HW234693   0.181  11.441   6.785
77621SOL     OW34694   5.994  14.261  12.812
77621SOL    HW134695   5.910  14.216  12.808
77621SOL    HW234696   5.977  14.349  12.780
77622SOL     OW34697   9.123   2.533   0.376
77622SOL    HW134698   9.207   2.528   0.330
77622SOL    HW234699   9.143   2.583   0.455
77623SOL     OW34700   6.879  13.500   8.350
77623SOL    HW134701   6.856  13.410   8.372
77623SOL    HW234702   6.974  13.497   8.337
77624SOL     OW34703   5.664   1.608  10.181
77624SOL    HW134704   5.600   1.678  10.188
77624SOL    HW234705   5.636   1.543  10.245
77625SOL     OW34706   4.013  12.683  10.148
77625SOL    HW134707   4.053  12.757  10.194
77625SOL    HW234708   3.980  12.626  10.217
77626SOL     OW34709   8.527   8.657   4.395
77626SOL    HW134710   8.502   8.676   4.486
77626SOL    HW234711   8.542   8.744   4.356
77627SOL     OW34712   2.361   7.431   2.507
77627SOL    HW134713   2.442   7.455   2.554
77627SOL    HW234714   2.373   7.338   2.485
77628SOL     OW34715   9.632  13.902   8.658
77628SOL    HW134716   9.655  13.822   8.705
77628SOL    HW234717   9.593  13.872   8.576
77629SOL     OW34718   2.598   4.251   3.721
77629SOL    HW134719   2.628   4.313   3.788
77629SOL    HW234720   2.542   4.304   3.664
77630SOL     OW34721  12.388  12.664   1.891
77630SOL    HW134722  12.483  12.668   1.888
77630SOL    HW234723  12.362  12.642   1.801
77631SOL     OW34724  13.935  13.731   1.391
77631SOL    HW134725  13.839  13.724   1.389
77631SOL    HW234726  13.962  13.660   1.450
77632SOL     OW34727   9.231   3.715   2.428
77632SOL    HW134728   9.174   3.748   2.358
77632SOL    HW234729   9.268   3.634   2.392
77633SOL     OW34730   3.935  13.024   7.685
77633SOL    HW134731   3.866  12.973   7.728
77633SOL    HW234732   3.917  13.014   7.592
77634SOL     OW34733   6.027  11.194  11.012
77634SOL    HW134734   5.936  11.172  11.030
77634SOL    HW234735   6.033  11.196  10.916
77635SOL     OW34736   8.250  14.179   5.372
77635SOL    HW134737   8.196  14.166   5.449
77635SOL    HW234738   8.203  14.136   5.301
77636SOL     OW34739  13.262   3.880  12.203
77636SOL    HW134740  13.298   3.813  12.261
77636SOL    HW234741  13.311   3.959  12.225
77637SOL     OW34742   6.230   8.094   4.481
77637SOL    HW134743   6.151   8.074   4.429
77637SOL    HW234744   6.200   8.156   4.548
77638SOL     OW34745  11.521   8.351   8.648
77638SOL    HW134746  11.495   8.443   8.653
77638SOL    HW234747  11.612   8.354   8.619
77639SOL     OW34748  13.261   3.479   8.428
77639SOL    HW134749  13.242   3.553   8.486
77639SOL    HW234750  13.195   3.414   8.449
77640SOL     OW34751  10.788   2.099   1.746
77640SOL    HW134752  10.789   2.158   1.822
77640SOL    HW234753  10.874   2.108   1.707
77641SOL     OW34754   7.844  14.065   0.434
77641SOL    HW134755   7.935  14.044   0.410
77641SOL    HW234756   7.803  14.093   0.352
77642SOL     OW34757   1.807   9.491  10.614
77642SOL    HW134758   1.725   9.443  10.602
77642SOL    HW234759   1.781   9.573  10.655
77643SOL     OW34760  10.858   3.742   7.688
77643SOL    HW134761  10.788   3.806   7.683
77643SOL    HW234762  10.814   3.657   7.676
77644SOL     OW34763  10.254  10.639  13.621
77644SOL    HW134764  10.162  10.662  13.623
77644SOL    HW234765  10.284  10.665  13.534
77645SOL     OW34766   8.760   1.077  11.250
77645SOL    HW134767   8.752   1.070  11.345
77645SOL    HW234768   8.854   1.067  11.233
77646SOL     OW34769   6.065   9.485  13.841
77646SOL    HW134770   6.090   9.455  13.928
77646SOL    HW234771   6.116   9.565  13.828
77647SOL     OW34772  10.290   1.093   1.892
77647SOL    HW134773  10.311   1.135   1.808
77647SOL    HW234774  10.243   1.160   1.941
77648SOL     OW34775   6.009   0.561   3.551
77648SOL    HW134776   6.076   0.495   3.569
77648SOL    HW234777   6.055   0.630   3.503
77649SOL     OW34778  14.680   5.053  11.434
77649SOL    HW134779  14.714   4.988  11.496
77649SOL    HW234780  14.757   5.085  11.387
77650SOL     OW34781  13.925   7.795   9.781
77650SOL    HW134782  13.983   7.747   9.840
77650SOL    HW234783  13.960   7.776   9.693
77651SOL     OW34784  14.236  14.378   4.862
77651SOL    HW134785  14.144  14.354   4.852
77651SOL    HW234786  14.260  14.417   4.778
77652SOL     OW34787   4.947   0.937   3.835
77652SOL    HW134788   4.934   0.891   3.752
77652SOL    HW234789   5.009   0.882   3.883
77653SOL     OW34790  11.244   2.610   7.228
77653SOL    HW134791  11.159   2.634   7.191
77653SOL    HW234792  11.266   2.683   7.287
77654SOL     OW34793  10.500  10.489   4.335
77654SOL    HW134794  10.574  10.461   4.283
77654SOL    HW234795  10.438  10.416   4.330
77655SOL     OW34796   7.230   4.581  11.562
77655SOL    HW134797   7.235   4.487  11.581
77655SOL    HW234798   7.210   4.585  11.469
77656SOL     OW34799   8.615  12.292  12.437
77656SOL    HW134800   8.591  12.376  12.477
77656SOL    HW234801   8.631  12.314  12.345
77657SOL     OW34802  13.931   9.071   4.477
77657SOL    HW134803  13.922   8.981   4.445
77657SOL    HW234804  13.984   9.064   4.556
77658SOL     OW34805  13.829   1.450  14.382
77658SOL    HW134806  13.846   1.382  14.316
77658SOL    HW234807  13.742   1.484  14.360
77659SOL     OW34808   4.687  11.894  14.010
77659SOL    HW134809   4.648  11.906  13.923
77659SOL    HW234810   4.715  11.802  14.011
77660SOL     OW34811   7.546  10.690  12.754
77660SOL    HW134812   7.543  10.614  12.696
77660SOL    HW234813   7.454  10.709  12.774
77661SOL     OW34814   7.298  10.322   0.275
77661SOL    HW134815   7.345  10.385   0.219
77661SOL    HW234816   7.313  10.237   0.233
77662SOL     OW34817  14.503  14.565   7.633
77662SOL    HW134818  14.512  14.660   7.638
77662SOL    HW234819  14.414  14.551   7.599
77663SOL     OW34820   2.543   5.147  10.827
77663SOL    HW134821   2.527   5.240  10.811
77663SOL    HW234822   2.463   5.116  10.868
77664SOL     OW34823  11.838   2.613   9.138
77664SOL    HW134824  11.847   2.586   9.229
77664SOL    HW234825  11.858   2.534   9.088
77665SOL     OW34826   0.252   2.885   9.473
77665SOL    HW134827   0.308   2.938   9.416
77665SOL    HW234828   0.181   2.855   9.415
77666SOL     OW34829  11.537  11.628  12.928
77666SOL    HW134830  11.574  11.716  12.938
77666SOL    HW234831  11.443  11.643  12.918
77667SOL     OW34832   3.707   7.588   2.634
77667SOL    HW134833   3.765   7.600   2.558
77667SOL    HW234834   3.706   7.674   2.677
77668SOL     OW34835  12.297   2.988  14.678
77668SOL    HW134836  12.366   3.045  14.644
77668SOL    HW234837  12.312   2.988  14.773
77669SOL     OW34838   5.046   6.535   4.334
77669SOL    HW134839   5.128   6.576   4.362
77669SOL    HW234840   4.990   6.608   4.309
77670SOL     OW34841   7.093   9.418   3.191
77670SOL    HW134842   7.061   9.411   3.101
77670SOL    HW234843   7.019   9.455   3.240
77671SOL     OW34844   3.513   1.655   8.235
77671SOL    HW134845   3.489   1.717   8.166
77671SOL    HW234846   3.468   1.687   8.313
77672SOL     OW34847  13.048   8.813  12.694
77672SOL    HW134848  13.035   8.773  12.608
77672SOL    HW234849  12.961   8.838  12.722
77673SOL     OW34850   5.693   3.844  11.704
77673SOL    HW134851   5.617   3.870  11.756
77673SOL    HW234852   5.742   3.785  11.761
77674SOL     OW34853   4.869   3.233   3.784
77674SOL    HW134854   4.903   3.217   3.872
77674SOL    HW234855   4.777   3.256   3.798
77675SOL     OW34856   2.647  14.141  11.364
77675SOL    HW134857   2.569  14.181  11.404
77675SOL    HW234858   2.645  14.050  11.394
77676SOL     OW34859  13.649  12.600   0.048
77676SOL    HW134860  13.719  12.664   0.062
77676SOL    HW234861  13.652  12.582  14.829
77677SOL     OW34862   7.923   8.891   1.038
77677SOL    HW134863   7.911   8.986   1.045
77677SOL    HW234864   7.836   8.858   1.012
77678SOL     OW34865   4.074  12.768  11.734
77678SOL    HW134866   4.162  12.741  11.709
77678SOL    HW234867   4.087  12.828  11.808
77679SOL     OW34868  11.719   7.955   5.740
77679SOL    HW134869  11.637   7.934   5.786
77679SOL    HW234870  11.752   7.870   5.711
77680SOL     OW34871   9.377   4.564   9.157
77680SOL    HW134872   9.343   4.537   9.072
77680SOL    HW234873   9.300   4.567   9.214
77681SOL     OW34874  14.144  14.669   0.788
77681SOL    HW134875  14.089  14.718   0.727
77681SOL    HW234876  14.225  14.719   0.793
77682SOL     OW34877  10.676   0.647   7.956
77682SOL    HW134878  10.629   0.724   7.925
77682SOL    HW234879  10.629   0.573   7.919
77683SOL     OW34880   8.939   5.524  13.768
77683SOL    HW134881   8.938   5.610  13.726
77683SOL    HW234882   8.878   5.471  13.717
77684SOL     OW34883  11.273  14.118   5.448
77684SOL    HW134884  11.336  14.094   5.380
77684SOL    HW234885  11.276  14.214   5.450
77685SOL     OW34886  14.292   3.656   6.647
77685SOL    HW134887  14.329   3.571   6.621
77685SOL    HW234888  14.201   3.651   6.617
77686SOL     OW34889   2.205  11.912   4.377
77686SOL    HW134890   2.144  11.858   4.326
77686SOL    HW234891   2.290  11.894   4.337
77687SOL     OW34892   3.556  14.315  11.153
77687SOL    HW134893   3.539  14.407  11.173
77687SOL    HW234894   3.639  14.316  11.107
77688SOL     OW34895  10.724   2.423  13.561
77688SOL    HW134896  10.730   2.343  13.613
77688SOL    HW234897  10.805   2.425  13.509
77689SOL     OW34898   8.292  13.744  14.518
77689SOL    HW134899   8.273  13.661  14.474
77689SOL    HW234900   8.330  13.799  14.450
77690SOL     OW34901   8.266  13.833   2.674
77690SOL    HW134902   8.242  13.872   2.589
77690SOL    HW234903   8.239  13.898   2.738
77691SOL     OW34904   7.336   1.220   2.246
77691SOL    HW134905   7.350   1.312   2.268
77691SOL    HW234906   7.324   1.177   2.331
77692SOL     OW34907   0.379   2.321  10.070
77692SOL    HW134908   0.416   2.255  10.128
77692SOL    HW234909   0.286   2.321  10.088
77693SOL     OW34910   5.281  11.230   8.062
77693SOL    HW134911   5.185  11.224   8.058
77693SOL    HW234912   5.297  11.305   8.119
77694SOL     OW34913   9.033   1.350   6.759
77694SOL    HW134914   9.119   1.357   6.799
77694SOL    HW234915   8.995   1.271   6.797
77695SOL     OW34916  14.783  13.270  12.493
77695SOL    HW134917  14.695  13.235  12.504
77695SOL    HW234918  14.807  13.300  12.581
77696SOL     OW34919   0.902   7.734   4.023
77696SOL    HW134920   0.989   7.695   4.023
77696SOL    HW234921   0.886   7.759   3.932
77697SOL     OW34922   3.971   7.228  11.113
77697SOL    HW134923   3.950   7.220  11.206
77697SOL    HW234924   4.066   7.220  11.109
77698SOL     OW34925  10.098  11.364   9.899
77698SOL    HW134926  10.049  11.412   9.832
77698SOL    HW234927  10.156  11.429   9.937
77699SOL     OW34928   0.665   4.452   9.696
77699SOL    HW134929   0.591   4.415   9.648
77699SOL    HW234930   0.673   4.541   9.663
77700SOL     OW34931  13.865   5.857   7.368
77700SOL    HW134932  13.930   5.798   7.331
77700SOL    HW234933  13.867   5.934   7.312
77701SOL     OW34934   2.189  11.450  14.379
77701SOL    HW134935   2.170  11.357  14.391
77701SOL    HW234936   2.103  11.492  14.379
77702SOL     OW34937   8.314   6.669   1.028
77702SOL    HW134938   8.249   6.599   1.031
77702SOL    HW234939   8.367   6.656   1.106
77703SOL     OW34940   7.349  13.453  11.321
77703SOL    HW134941   7.293  13.385  11.285
77703SOL    HW234942   7.433  13.409  11.335
77704SOL     OW34943  14.008  12.365  13.375
77704SOL    HW134944  13.933  12.424  13.388
77704SOL    HW234945  14.082  12.423  13.360
77705SOL     OW34946  10.465  10.996   5.171
77705SOL    HW134947  10.429  10.964   5.088
77705SOL    HW234948  10.443  10.928   5.235
77706SOL     OW34949   8.814   8.586   5.427
77706SOL    HW134950   8.767   8.625   5.501
77706SOL    HW234951   8.896   8.635   5.421
77707SOL     OW34952   3.671  10.959  12.349
77707SOL    HW134953   3.604  10.896  12.376
77707SOL    HW234954   3.746  10.906  12.325
77708SOL     OW34955   5.057   1.920   3.248
77708SOL    HW134956   5.058   1.846   3.187
77708SOL    HW234957   4.977   1.968   3.226
77709SOL     OW34958  10.625   5.103   5.093
77709SOL    HW134959  10.615   5.194   5.064
77709SOL    HW234960  10.546   5.060   5.061
77710SOL     OW34961   5.212   2.789   4.334
77710SOL    HW134962   5.126   2.755   4.360
77710SOL    HW234963   5.274   2.738   4.386
77711SOL     OW34964   4.063   3.959   2.617
77711SOL    HW134965   4.137   4.019   2.625
77711SOL    HW234966   4.003   3.985   2.687
77712SOL     OW34967   4.085   3.562  10.451
77712SOL    HW134968   4.003   3.513  10.450
77712SOL    HW234969   4.094   3.596  10.363
77713SOL     OW34970   6.731   2.796   9.262
77713SOL    HW134971   6.682   2.790   9.344
77713SOL    HW234972   6.675   2.848   9.204
77714SOL     OW34973  11.045   4.624   0.977
77714SOL    HW134974  11.102   4.626   1.054
77714SOL    HW234975  11.000   4.709   0.978
77715SOL     OW34976   8.721   8.098   2.050
77715SOL    HW134977   8.660   8.135   1.986
77715SOL    HW234978   8.802   8.083   2.000
77716SOL     OW34979  10.303   8.398   5.921
77716SOL    HW134980  10.251   8.317   5.921
77716SOL    HW234981  10.238   8.468   5.920
77717SOL     OW34982  10.684   4.348  12.509
77717SOL    HW134983  10.747   4.401  12.556
77717SOL    HW234984  10.632   4.411  12.459
77718SOL     OW34985   1.307  14.040   5.850
77718SOL    HW134986   1.335  13.949   5.836
77718SOL    HW234987   1.257  14.037   5.931
77719SOL     OW34988   7.881   6.243  12.848
77719SOL    HW134989   7.899   6.333  12.822
77719SOL    HW234990   7.957   6.218  12.901
77720SOL     OW34991   6.099   0.087   2.206
77720SOL    HW134992   6.028   0.093   2.270
77720SOL    HW234993   6.179   0.100   2.257
77721SOL     OW34994   1.295  13.829  11.468
77721SOL    HW134995   1.256  13.868  11.390
77721SOL    HW234996   1.364  13.891  11.494
77722SOL     OW34997   7.385   2.769   2.405
77722SOL    HW134998   7.464   2.722   2.379
77722SOL    HW234999   7.371   2.834   2.335
77723SOL     OW35000  11.116   3.824  11.336
77723SOL    HW135001  11.065   3.864  11.407
77723SOL    HW235002  11.202   3.808  11.374
77724SOL     OW35003  13.702   0.587   3.846
77724SOL    HW135004  13.704   0.677   3.814
77724SOL    HW235005  13.669   0.536   3.772
77725SOL     OW35006  13.046   6.602   1.884
77725SOL    HW135007  13.123   6.568   1.838
77725SOL    HW235008  13.080   6.672   1.940
77726SOL     OW35009   3.052   7.283   0.901
77726SOL    HW135010   3.082   7.346   0.836
77726SOL    HW235011   3.101   7.305   0.981
77727SOL     OW35012   6.156   7.951  14.001
77727SOL    HW135013   6.103   8.002  13.940
77727SOL    HW235014   6.141   7.860  13.976
77728SOL     OW35015   2.329  10.606  12.867
77728SOL    HW135016   2.384  10.598  12.945
77728SOL    HW235017   2.244  10.571  12.895
77729SOL     OW35018   1.464   4.007   1.313
77729SOL    HW135019   1.479   3.915   1.292
77729SOL    HW235020   1.538   4.033   1.366
77730SOL     OW35021  13.279   2.216   9.882
77730SOL    HW135022  13.217   2.233   9.811
77730SOL    HW235023  13.352   2.171   9.839
77731SOL     OW35024  14.783  14.546  11.149
77731SOL    HW135025  14.779  14.462  11.194
77731SOL    HW235026  14.860  14.590  11.186
77732SOL     OW35027   0.560   9.361   7.380
77732SOL    HW135028   0.563   9.428   7.448
77732SOL    HW235029   0.488   9.303   7.407
77733SOL     OW35030   8.669   6.193   9.547
77733SOL    HW135031   8.665   6.207   9.641
77733SOL    HW235032   8.581   6.167   9.522
77734SOL     OW35033  13.362   5.875   1.721
77734SOL    HW135034  13.370   5.970   1.714
77734SOL    HW235035  13.444   5.846   1.759
77735SOL     OW35036   7.245  14.621  12.355
77735SOL    HW135037   7.202  14.656  12.434
77735SOL    HW235038   7.186  14.645  12.283
77736SOL     OW35039   7.950   1.232  14.793
77736SOL    HW135040   7.928   1.139  14.791
77736SOL    HW235041   8.012   1.240  14.865
77737SOL     OW35042   4.954  10.223   6.796
77737SOL    HW135043   4.925  10.142   6.753
77737SOL    HW235044   4.873  10.263   6.827
77738SOL     OW35045   3.163  14.454   3.221
77738SOL    HW135046   3.097  14.489   3.161
77738SOL    HW235047   3.247  14.481   3.182
77739SOL     OW35048   2.979   9.555   4.545
77739SOL    HW135049   2.893   9.515   4.555
77739SOL    HW235050   2.970   9.614   4.470
77740SOL     OW35051   9.008  10.891   5.857
77740SOL    HW135052   8.970  10.975   5.834
77740SOL    HW235053   9.006  10.840   5.776
77741SOL     OW35054   7.477   3.355   0.075
77741SOL    HW135055   7.409   3.423   0.080
77741SOL    HW235056   7.447   3.296   0.006
77742SOL     OW35057   1.835   4.395   7.634
77742SOL    HW135058   1.765   4.456   7.610
77742SOL    HW235059   1.805   4.311   7.599
77743SOL     OW35060   5.030  11.164  11.382
77743SOL    HW135061   4.976  11.210  11.318
77743SOL    HW235062   5.120  11.176  11.351
77744SOL     OW35063   0.410  13.598   1.959
77744SOL    HW135064   0.403  13.659   2.033
77744SOL    HW235065   0.463  13.646   1.894
77745SOL     OW35066   2.298   2.328   0.968
77745SOL    HW135067   2.351   2.408   0.972
77745SOL    HW235068   2.362   2.257   0.969
77746SOL     OW35069   3.801   2.921   1.057
77746SOL    HW135070   3.807   2.826   1.069
77746SOL    HW235071   3.746   2.932   0.979
77747SOL     OW35072   0.926   4.593   3.032
77747SOL    HW135073   1.003   4.592   2.976
77747SOL    HW235074   0.879   4.673   3.007
77748SOL     OW35075   9.428   3.640   2.916
77748SOL    HW135076   9.451   3.550   2.893
77748SOL    HW235077   9.400   3.679   2.833
77749SOL     OW35078   4.940   7.802  12.156
77749SOL    HW135079   5.033   7.826  12.163
77749SOL    HW235080   4.941   7.707  12.142
77750SOL     OW35081   3.936   7.198   7.311
77750SOL    HW135082   3.847   7.233   7.310
77750SOL    HW235083   3.928   7.112   7.351
77751SOL     OW35084   0.281  12.635   6.723
77751SOL    HW135085   0.266  12.723   6.760
77751SOL    HW235086   0.224  12.631   6.647
77752SOL     OW35087   2.481   6.198   0.173
77752SOL    HW135088   2.506   6.266   0.110
77752SOL    HW235089   2.516   6.231   0.257
77753SOL     OW35090  10.157  11.107   8.835
77753SOL    HW135091  10.250  11.118   8.817
77753SOL    HW235092  10.154  11.078   8.926
77754SOL     OW35093  11.686   4.069  11.589
77754SOL    HW135094  11.696   4.111  11.674
77754SOL    HW235095  11.659   4.139  11.530
77755SOL     OW35096  12.880   3.172   7.589
77755SOL    HW135097  12.827   3.209   7.660
77755SOL    HW235098  12.850   3.217   7.510
77756SOL     OW35099   1.418   6.763   1.148
77756SOL    HW135100   1.432   6.797   1.236
77756SOL    HW235101   1.433   6.839   1.091
77757SOL     OW35102  14.468  10.984  13.867
77757SOL    HW135103  14.493  10.975  13.775
77757SOL    HW235104  14.426  11.069  13.872
77758SOL     OW35105  13.510  14.071   6.610
77758SOL    HW135106  13.502  13.977   6.623
77758SOL    HW235107  13.491  14.085   6.518
77759SOL     OW35108  14.597   3.134   1.879
77759SOL    HW135109  14.586   3.160   1.787
77759SOL    HW235110  14.547   3.199   1.929
77760SOL     OW35111   9.492  12.752   8.163
77760SOL    HW135112   9.535  12.761   8.078
77760SOL    HW235113   9.486  12.841   8.197
77761SOL     OW35114  10.980  12.252  14.028
77761SOL    HW135115  10.980  12.327  14.088
77761SOL    HW235116  10.962  12.290  13.942
77762SOL     OW35117   5.828   4.083   8.542
77762SOL    HW135118   5.822   3.994   8.508
77762SOL    HW235119   5.795   4.138   8.471
77763SOL     OW35120  13.328   7.940  10.457
77763SOL    HW135121  13.348   8.006  10.523
77763SOL    HW235122  13.242   7.966  10.423
77764SOL     OW35123   4.706  12.538  13.980
77764SOL    HW135124   4.653  12.459  13.987
77764SOL    HW235125   4.673  12.595  14.050
77765SOL     OW35126   5.512  13.252  13.428
77765SOL    HW135127   5.494  13.183  13.492
77765SOL    HW235128   5.502  13.209  13.343
77766SOL     OW35129   9.360  11.330  13.818
77766SOL    HW135130   9.433  11.392  13.812
77766SOL    HW235131   9.343  11.305  13.728
77767SOL     OW35132  10.754   7.057   8.903
77767SOL    HW135133  10.697   7.101   8.966
77767SOL    HW235134  10.727   7.092   8.818
77768SOL     OW35135  14.105  10.757   7.786
77768SOL    HW135136  14.094  10.852   7.787
77768SOL    HW235137  14.020  10.723   7.760
77769SOL     OW35138   5.029   9.648  14.277
77769SOL    HW135139   5.104   9.701  14.251
77769SOL    HW235140   5.016   9.670  14.370
77770SOL     OW35141   8.778   0.931   1.353
77770SOL    HW135142   8.810   0.970   1.271
77770SOL    HW235143   8.728   1.000   1.395
77771SOL     OW35144   9.685  12.264   4.745
77771SOL    HW135145   9.703  12.324   4.673
77771SOL    HW235146   9.766  12.261   4.795
77772SOL     OW35147  14.345  12.776   2.490
77772SOL    HW135148  14.371  12.781   2.398
77772SOL    HW235149  14.347  12.866   2.521
77773SOL     OW35150   1.619   6.465  13.724
77773SOL    HW135151   1.650   6.422  13.804
77773SOL    HW235152   1.556   6.530  13.755
77774SOL     OW35153   1.095   3.404   6.189
77774SOL    HW135154   1.088   3.496   6.163
77774SOL    HW235155   1.075   3.405   6.283
77775SOL     OW35156   7.311   3.109   2.685
77775SOL    HW135157   7.277   3.082   2.600
77775SOL    HW235158   7.336   3.027   2.728
77776SOL     OW35159   0.300   1.508   9.310
77776SOL    HW135160   0.339   1.592   9.336
77776SOL    HW235161   0.373   1.458   9.273
77777SOL     OW35162  14.557   8.445   1.600
77777SOL    HW135163  14.606   8.474   1.678
77777SOL    HW235164  14.483   8.505   1.594
77778SOL     OW35165  12.837   1.444   7.900
77778SOL    HW135166  12.780   1.519   7.914
77778SOL    HW235167  12.916   1.464   7.950
77779SOL     OW35168   3.903   6.047   9.560
77779SOL    HW135169   3.869   6.032   9.648
77779SOL    HW235170   3.829   6.085   9.512
77780SOL     OW35171   7.355  14.726   3.938
77780SOL    HW135172   7.409  14.647   3.941
77780SOL    HW235173   7.270  14.699   3.973
77781SOL     OW35174   7.960  12.075   9.519
77781SOL    HW135175   7.898  12.053   9.449
77781SOL    HW235176   8.025  12.130   9.476
77782SOL     OW35177   8.360   9.385  13.128
77782SOL    HW135178   8.376   9.308  13.074
77782SOL    HW235179   8.445   9.430  13.133
77783SOL     OW35180   8.205  12.879   4.883
77783SOL    HW135181   8.115  12.885   4.851
77783SOL    HW235182   8.196  12.842   4.971
77784SOL     OW35183  11.465   3.134   8.608
77784SOL    HW135184  11.430   3.106   8.524
77784SOL    HW235185  11.559   3.141   8.594
77785SOL     OW35186  12.766  13.626   5.617
77785SOL    HW135187  12.802  13.694   5.560
77785SOL    HW235188  12.687  13.596   5.571
77786SOL     OW35189  10.259   3.274  14.508
77786SOL    HW135190  10.263   3.179  14.516
77786SOL    HW235191  10.212   3.289  14.426
77787SOL     OW35192  14.728   4.136  12.228
77787SOL    HW135193  14.744   4.158  12.320
77787SOL    HW235194  14.723   4.221  12.183
77788SOL     OW35195  13.966   2.779   4.805
77788SOL    HW135196  13.945   2.868   4.834
77788SOL    HW235197  13.928   2.723   4.873
77789SOL     OW35198  12.272   5.696   3.432
77789SOL    HW135199  12.338   5.746   3.481
77789SOL    HW235200  12.190   5.741   3.448
77790SOL     OW35201  12.370   6.009  10.435
77790SOL    HW135202  12.407   6.091  10.404
77790SOL    HW235203  12.437   5.943  10.418
77791SOL     OW35204   0.163   6.406  11.937
77791SOL    HW135205   0.230   6.464  11.973
77791SOL    HW235206   0.104   6.388  12.010
77792SOL     OW35207  10.972   9.477  10.857
77792SOL    HW135208  10.997   9.565  10.828
77792SOL    HW235209  11.019   9.465  10.939
77793SOL     OW35210  10.022  14.413  10.039
77793SOL    HW135211  10.014  14.336   9.983
77793SOL    HW235212  10.034  14.377  10.127
77794SOL     OW35213   6.536  12.312   3.781
77794SOL    HW135214   6.597  12.260   3.728
77794SOL    HW235215   6.515  12.256   3.856
77795SOL     OW35216  14.516   1.932   5.756
77795SOL    HW135217  14.519   1.849   5.710
77795SOL    HW235218  14.586   1.927   5.821
77796SOL     OW35219   6.035  12.739   6.537
77796SOL    HW135220   5.975  12.704   6.471
77796SOL    HW235221   6.080  12.811   6.493
77797SOL     OW35222   5.930   9.659  14.420
77797SOL    HW135223   5.982   9.582  14.446
77797SOL    HW235224   5.841   9.625  14.410
77798SOL     OW35225   0.923  10.385   0.017
77798SOL    HW135226   0.966  10.471   0.015
77798SOL    HW235227   0.970  10.333  14.828
77799SOL     OW35228   2.066   8.004   0.222
77799SOL    HW135229   1.983   7.955   0.221
77799SOL    HW235230   2.095   8.002   0.131
77800SOL     OW35231   3.774   4.572  10.435
77800SOL    HW135232   3.689   4.530  10.442
77800SOL    HW235233   3.755   4.660  10.404
77801SOL     OW35234   3.375   2.570   6.959
77801SOL    HW135235   3.316   2.511   6.912
77801SOL    HW235236   3.402   2.634   6.894
77802SOL     OW35237   0.792   2.909   0.079
77802SOL    HW135238   0.707   2.868   0.062
77802SOL    HW235239   0.826   2.861   0.155
77803SOL     OW35240   8.767  10.989  11.368
77803SOL    HW135241   8.837  11.005  11.431
77803SOL    HW235242   8.687  11.009  11.416
77804SOL     OW35243   4.633   2.755   6.599
77804SOL    HW135244   4.578   2.725   6.672
77804SOL    HW235245   4.682   2.829   6.635
77805SOL     OW35246   7.477   7.763  11.359
77805SOL    HW135247   7.405   7.705  11.336
77805SOL    HW235248   7.523   7.718  11.430
77806SOL     OW35249   7.134   6.989   8.657
77806SOL    HW135250   7.123   6.905   8.701
77806SOL    HW235251   7.055   6.998   8.603
77807SOL     OW35252   8.935   5.578   5.643
77807SOL    HW135253   8.967   5.529   5.719
77807SOL    HW235254   8.901   5.511   5.583
77808SOL     OW35255   8.525  13.277   5.236
77808SOL    HW135256   8.475  13.352   5.269
77808SOL    HW235257   8.548  13.228   5.314
77809SOL     OW35258   1.330   4.982   3.608
77809SOL    HW135259   1.326   4.886   3.616
77809SOL    HW235260   1.266   5.003   3.540
77810SOL     OW35261   0.510   3.120   7.654
77810SOL    HW135262   0.489   3.143   7.744
77810SOL    HW235263   0.525   3.204   7.610
77811SOL     OW35264   5.148   9.283   6.654
77811SOL    HW135265   5.100   9.216   6.605
77811SOL    HW235266   5.108   9.366   6.627
77812SOL     OW35267   4.323   4.766   6.459
77812SOL    HW135268   4.261   4.702   6.425
77812SOL    HW235269   4.374   4.717   6.524
77813SOL     OW35270   1.984   0.530  13.175
77813SOL    HW135271   1.943   0.566  13.254
77813SOL    HW235272   1.926   0.555  13.103
77814SOL     OW35273   3.868  11.402   3.414
77814SOL    HW135274   3.856  11.485   3.460
77814SOL    HW235275   3.917  11.425   3.335
77815SOL     OW35276   5.383   6.264   9.486
77815SOL    HW135277   5.417   6.327   9.551
77815SOL    HW235278   5.404   6.178   9.523
77816SOL     OW35279   6.167   0.006  14.328
77816SOL    HW135280   6.108  14.810  14.351
77816SOL    HW235281   6.252  14.841  14.317
77817SOL     OW35282   8.030  12.051   7.499
77817SOL    HW135283   8.119  12.078   7.479
77817SOL    HW235284   8.022  11.964   7.459
77818SOL     OW35285   7.717   3.267   5.013
77818SOL    HW135286   7.781   3.214   4.965
77818SOL    HW235287   7.733   3.357   4.983
77819SOL     OW35288   7.138   7.863   0.350
77819SOL    HW135289   7.075   7.793   0.333
77819SOL    HW235290   7.118   7.894   0.438
77820SOL     OW35291   2.441   7.769   5.045
77820SOL    HW135292   2.457   7.690   4.994
77820SOL    HW235293   2.510   7.829   5.018
77821SOL     OW35294  10.501  12.163  13.872
77821SOL    HW135295  10.572  12.102  13.852
77821SOL    HW235296  10.453  12.172  13.789
77822SOL     OW35297  11.243  10.664  12.827
77822SOL    HW135298  11.213  10.734  12.769
77822SOL    HW235299  11.268  10.709  12.908
77823SOL     OW35300   3.265  10.661   5.223
77823SOL    HW135301   3.257  10.586   5.165
77823SOL    HW235302   3.175  10.688   5.240
77824SOL     OW35303   7.375   9.504   6.687
77824SOL    HW135304   7.357   9.576   6.627
77824SOL    HW235305   7.424   9.441   6.634
77825SOL     OW35306   3.711   2.654  11.349
77825SOL    HW135307   3.722   2.733  11.401
77825SOL    HW235308   3.732   2.582  11.409
77826SOL     OW35309   4.413   7.133  14.500
77826SOL    HW135310   4.391   7.111  14.409
77826SOL    HW235311   4.401   7.228  14.505
77827SOL     OW35312   9.215   6.829   4.084
77827SOL    HW135313   9.202   6.920   4.058
77827SOL    HW235314   9.135   6.785   4.055
77828SOL     OW35315  11.157  11.352   4.003
77828SOL    HW135316  11.235  11.334   4.055
77828SOL    HW235317  11.091  11.291   4.037
77829SOL     OW35318   3.920   8.643  10.382
77829SOL    HW135319   4.001   8.593  10.379
77829SOL    HW235320   3.910   8.678  10.293
77830SOL     OW35321   9.198   5.756  14.033
77830SOL    HW135322   9.107   5.740  14.056
77830SOL    HW235323   9.248   5.704  14.096
77831SOL     OW35324   9.226  14.030  14.676
77831SOL    HW135325   9.216  13.947  14.631
77831SOL    HW235326   9.180  14.018  14.759
77832SOL     OW35327   6.466   3.088   0.916
77832SOL    HW135328   6.554   3.051   0.910
77832SOL    HW235329   6.465   3.158   0.851
77833SOL     OW35330  12.367   8.592  13.332
77833SOL    HW135331  12.416   8.672  13.350
77833SOL    HW235332  12.283   8.622  13.297
77834SOL     OW35333   2.545  13.300  10.323
77834SOL    HW135334   2.491  13.234  10.280
77834SOL    HW235335   2.584  13.255  10.398
77835SOL     OW35336  11.195  11.529  11.392
77835SOL    HW135337  11.263  11.475  11.433
77835SOL    HW235338  11.216  11.528  11.299
77836SOL     OW35339   3.839  14.872   8.906
77836SOL    HW135340   3.748  14.843   8.910
77836SOL    HW235341   3.836   0.079   8.858
77837SOL     OW35342   3.987   8.183   6.008
77837SOL    HW135343   3.991   8.088   6.004
77837SOL    HW235344   4.057   8.208   6.069
77838SOL     OW35345   9.912   2.214  13.450
77838SOL    HW135346   9.870   2.164  13.380
77838SOL    HW235347  10.003   2.222  13.422
77839SOL     OW35348  14.487   5.055  13.626
77839SOL    HW135349  14.500   5.138  13.579
77839SOL    HW235350  14.393   5.054  13.647
77840SOL     OW35351   5.722   7.786   2.873
77840SOL    HW135352   5.687   7.703   2.842
77840SOL    HW235353   5.790   7.808   2.810
77841SOL     OW35354   9.703  10.899  10.526
77841SOL    HW135355   9.719  10.809  10.498
77841SOL    HW235356   9.781  10.923  10.577
77842SOL     OW35357  14.824  14.503  10.175
77842SOL    HW135358  14.756  14.492  10.109
77842SOL    HW235359  14.784  14.559  10.241
77843SOL     OW35360   6.521  12.360   2.839
77843SOL    HW135361   6.446  12.419   2.834
77843SOL    HW235362   6.523  12.331   2.930
77844SOL     OW35363   6.760  14.013  13.461
77844SOL    HW135364   6.837  14.067  13.444
77844SOL    HW235365   6.760  13.947  13.391
77845SOL     OW35366  12.744  11.922   7.862
77845SOL    HW135367  12.744  11.995   7.800
77845SOL    HW235368  12.774  11.961   7.945
77846SOL     OW35369  11.879   9.369   2.693
77846SOL    HW135370  11.794   9.369   2.737
77846SOL    HW235371  11.887   9.281   2.656
77847SOL     OW35372   0.073   4.415  11.258
77847SOL    HW135373   0.055   4.321  11.260
77847SOL    HW235374   0.143   4.425  11.194
77848SOL     OW35375   5.793   8.763  13.176
77848SOL    HW135376   5.765   8.833  13.118
77848SOL    HW235377   5.736   8.689  13.153
77849SOL     OW35378   3.174  14.810  11.857
77849SOL    HW135379   3.177  14.827  11.762
77849SOL    HW235380   3.263  14.786  11.879
77850SOL     OW35381   7.138   3.317   3.253
77850SOL    HW135382   7.113   3.333   3.344
77850SOL    HW235383   7.077   3.250   3.222
77851SOL     OW35384   0.288   6.606   6.447
77851SOL    HW135385   0.331   6.570   6.524
77851SOL    HW235386   0.195   6.589   6.460
77852SOL     OW35387   3.887   5.159   0.639
77852SOL    HW135388   3.796   5.178   0.663
77852SOL    HW235389   3.882   5.088   0.576
77853SOL     OW35390   3.650   5.797   3.785
77853SOL    HW135391   3.649   5.824   3.693
77853SOL    HW235392   3.690   5.870   3.831
77854SOL     OW35393   7.743  13.481  11.558
77854SOL    HW135394   7.665  13.536  11.568
77854SOL    HW235395   7.724  13.403  11.609
77855SOL     OW35396   9.814  13.205   0.000
77855SOL    HW135397   9.831  13.132  14.816
77855SOL    HW235398   9.836  13.170   0.087
77856SOL     OW35399  12.019   5.690   0.836
77856SOL    HW135400  11.993   5.744   0.910
77856SOL    HW235401  12.112   5.712   0.822
77857SOL     OW35402   4.325   3.875  12.102
77857SOL    HW135403   4.386   3.820  12.053
77857SOL    HW235404   4.313   3.952  12.047
77858SOL     OW35405   2.846  13.789   9.807
77858SOL    HW135406   2.813  13.856   9.748
77858SOL    HW235407   2.866  13.836   9.888
77859SOL     OW35408   5.766  13.571  13.902
77859SOL    HW135409   5.739  13.590  13.812
77859SOL    HW235410   5.733  13.646  13.952
77860SOL     OW35411   5.317  11.275   1.551
77860SOL    HW135412   5.309  11.361   1.592
77860SOL    HW235413   5.260  11.278   1.475
77861SOL     OW35414   3.474  11.623   8.978
77861SOL    HW135415   3.568  11.621   8.964
77861SOL    HW235416   3.463  11.663   9.064
77862SOL     OW35417   6.192   4.478   9.280
77862SOL    HW135418   6.198   4.500   9.187
77862SOL    HW235419   6.132   4.543   9.316
77863SOL     OW35420   2.263   9.451  10.106
77863SOL    HW135421   2.269   9.440  10.011
77863SOL    HW235422   2.295   9.540  10.122
77864SOL     OW35423   4.511  13.665   0.870
77864SOL    HW135424   4.548  13.590   0.824
77864SOL    HW235425   4.417  13.661   0.852
77865SOL     OW35426  10.891   3.163   2.451
77865SOL    HW135427  10.936   3.185   2.532
77865SOL    HW235428  10.801   3.193   2.465
77866SOL     OW35429   7.333  14.490  14.695
77866SOL    HW135430   7.332  14.432  14.619
77866SOL    HW235431   7.419  14.475  14.736
77867SOL     OW35432   5.759   6.875   8.526
77867SOL    HW135433   5.775   6.781   8.519
77867SOL    HW235434   5.759   6.892   8.620
77868SOL     OW35435   9.992  12.345   6.510
77868SOL    HW135436   9.914  12.394   6.484
77868SOL    HW235437   9.980  12.328   6.603
77869SOL     OW35438   6.107   0.580  11.446
77869SOL    HW135439   6.059   0.498  11.448
77869SOL    HW235440   6.188   0.559  11.399
77870SOL     OW35441   1.695   6.455  13.465
77870SOL    HW135442   1.617   6.439  13.412
77870SOL    HW235443   1.661   6.468  13.554
77871SOL     OW35444   8.926   1.919   9.206
77871SOL    HW135445   8.893   1.831   9.220
77871SOL    HW235446   8.854   1.965   9.163
77872SOL     OW35447   8.865   2.873   6.628
77872SOL    HW135448   8.878   2.786   6.591
77872SOL    HW235449   8.775   2.871   6.661
77873SOL     OW35450   3.892   1.249  13.413
77873SOL    HW135451   3.843   1.186  13.466
77873SOL    HW235452   3.841   1.330  13.417
77874SOL     OW35453   5.843   3.905  14.216
77874SOL    HW135454   5.854   3.980  14.275
77874SOL    HW235455   5.921   3.851  14.231
77875SOL     OW35456  14.214   8.867  12.347
77875SOL    HW135457  14.279   8.814  12.299
77875SOL    HW235458  14.130   8.838  12.312
77876SOL     OW35459   2.232   2.528  13.036
77876SOL    HW135460   2.305   2.484  12.991
77876SOL    HW235461   2.269   2.613  13.062
77877SOL     OW35462   9.222  10.653   6.867
77877SOL    HW135463   9.160  10.580   6.858
77877SOL    HW235464   9.170  10.724   6.905
77878SOL     OW35465   2.663  12.331   5.725
77878SOL    HW135466   2.693  12.318   5.815
77878SOL    HW235467   2.703  12.413   5.698
77879SOL     OW35468   9.953   3.459  12.255
77879SOL    HW135469   9.971   3.433  12.345
77879SOL    HW235470   9.857   3.464  12.249
77880SOL     OW35471   9.136   5.306  10.408
77880SOL    HW135472   9.196   5.331  10.338
77880SOL    HW235473   9.109   5.217  10.384
77881SOL     OW35474   9.437  11.968   4.896
77881SOL    HW135475   9.509  11.961   4.834
77881SOL    HW235476   9.425  11.879   4.929
77882SOL     OW35477   1.970   3.356  10.509
77882SOL    HW135478   1.958   3.353  10.604
77882SOL    HW235479   1.959   3.266  10.480
77883SOL     OW35480   0.745  13.346   1.483
77883SOL    HW135481   0.779  13.276   1.539
77883SOL    HW235482   0.718  13.415   1.543
77884SOL     OW35483   2.249   9.497  14.074
77884SOL    HW135484   2.271   9.416  14.120
77884SOL    HW235485   2.165   9.524  14.113
77885SOL     OW35486  12.792  14.835   8.155
77885SOL    HW135487  12.724  14.769   8.149
77885SOL    HW235488  12.752   0.039   8.120
77886SOL     OW35489   3.747   4.283  13.926
77886SOL    HW135490   3.835   4.287  13.964
77886SOL    HW235491   3.752   4.340  13.849
77887SOL     OW35492  13.542   7.173  11.634
77887SOL    HW135493  13.481   7.216  11.575
77887SOL    HW235494  13.587   7.109  11.580
77888SOL     OW35495  11.492   6.315   2.829
77888SOL    HW135496  11.540   6.375   2.771
77888SOL    HW235497  11.407   6.303   2.786
77889SOL     OW35498   3.438  11.495   4.880
77889SOL    HW135499   3.437  11.429   4.949
77889SOL    HW235500   3.346  11.509   4.858
77890SOL     OW35501   0.430  11.685  14.129
77890SOL    HW135502   0.438  11.740  14.051
77890SOL    HW235503   0.344  11.708  14.165
77891SOL     OW35504   0.116  13.911   4.383
77891SOL    HW135505   0.178  13.892   4.454
77891SOL    HW235506   0.116  13.831   4.329
77892SOL     OW35507   7.322   7.916  12.592
77892SOL    HW135508   7.238   7.911  12.637
77892SOL    HW235509   7.343   7.826  12.569
77893SOL     OW35510  10.742  12.857  14.124
77893SOL    HW135511  10.747  12.874  14.030
77893SOL    HW235512  10.793  12.927  14.164
77894SOL     OW35513  13.700  11.753  10.984
77894SOL    HW135514  13.676  11.790  11.069
77894SOL    HW235515  13.625  11.774  10.927
77895SOL     OW35516  10.927  14.280  10.140
77895SOL    HW135517  10.884  14.338  10.078
77895SOL    HW235518  10.881  14.196  10.132
77896SOL     OW35519   0.887  14.787   9.220
77896SOL    HW135520   0.940  14.802   9.142
77896SOL    HW235521   0.809  14.743   9.187
77897SOL     OW35522   5.309  13.246   5.137
77897SOL    HW135523   5.305  13.213   5.227
77897SOL    HW235524   5.225  13.219   5.098
77898SOL     OW35525  10.280   2.846   2.597
77898SOL    HW135526  10.327   2.927   2.578
77898SOL    HW235527  10.334   2.802   2.663
77899SOL     OW35528   9.833  10.772  11.621
77899SOL    HW135529   9.764  10.711  11.596
77899SOL    HW235530   9.885  10.783  11.542
77900SOL     OW35531  10.827   4.589   1.625
77900SOL    HW135532  10.845   4.539   1.545
77900SOL    HW235533  10.913   4.604   1.663
77901SOL     OW35534   1.288  13.339   1.122
77901SOL    HW135535   1.321  13.367   1.036
77901SOL    HW235536   1.202  13.380   1.129
77902SOL     OW35537   1.805   0.953  11.575
77902SOL    HW135538   1.718   0.987  11.552
77902SOL    HW235539   1.866   1.019  11.541
77903SOL     OW35540   0.049   3.671   5.761
77903SOL    HW135541  14.854   3.609   5.774
77903SOL    HW235542   0.045   3.729   5.837
77904SOL     OW35543   3.092   9.656   6.909
77904SOL    HW135544   3.144   9.692   6.838
77904SOL    HW235545   3.005   9.694   6.898
77905SOL     OW35546   4.019   7.712   1.247
77905SOL    HW135547   4.107   7.690   1.217
77905SOL    HW235548   3.992   7.637   1.298
77906SOL     OW35549   8.238   3.214   5.173
77906SOL    HW135550   8.191   3.136   5.200
77906SOL    HW235551   8.287   3.187   5.096
77907SOL     OW35552  14.023   9.147   2.150
77907SOL    HW135553  13.976   9.071   2.115
77907SOL    HW235554  14.094   9.161   2.088
77908SOL     OW35555   4.179   4.748   7.662
77908SOL    HW135556   4.195   4.793   7.579
77908SOL    HW235557   4.189   4.655   7.642
77909SOL     OW35558   5.742  11.067   9.842
77909SOL    HW135559   5.818  11.042   9.894
77909SOL    HW235560   5.744  11.009   9.767
77910SOL     OW35561   4.632  10.294  12.249
77910SOL    HW135562   4.603  10.231  12.314
77910SOL    HW235563   4.714  10.258  12.215
77911SOL     OW35564  13.096   3.553   7.429
77911SOL    HW135565  13.169   3.568   7.370
77911SOL    HW235566  13.123   3.479   7.483
77912SOL     OW35567   5.533   1.860  13.352
77912SOL    HW135568   5.565   1.818  13.433
77912SOL    HW235569   5.459   1.913  13.381
77913SOL     OW35570  12.246  10.768   3.082
77913SOL    HW135571  12.259  10.861   3.063
77913SOL    HW235572  12.242  10.764   3.178
77914SOL     OW35573  14.745   8.775   4.531
77914SOL    HW135574  14.803   8.837   4.487
77914SOL    HW235575  14.657   8.807   4.511
77915SOL     OW35576  12.369   3.085   0.067
77915SOL    HW135577  12.440   3.149   0.059
77915SOL    HW235578  12.302   3.130   0.119
77916SOL     OW35579  14.146   4.362   9.570
77916SOL    HW135580  14.149   4.456   9.553
77916SOL    HW235581  14.233   4.342   9.604
77917SOL     OW35582   8.957   7.183   5.626
77917SOL    HW135583   9.032   7.179   5.685
77917SOL    HW235584   8.883   7.154   5.679
77918SOL     OW35585  12.681   6.953   8.695
77918SOL    HW135586  12.613   6.892   8.664
77918SOL    HW235587  12.667   6.959   8.789
77919SOL     OW35588   9.324   5.641  11.089
77919SOL    HW135589   9.274   5.561  11.079
77919SOL    HW235590   9.395   5.618  11.149
77920SOL     OW35591   8.785   2.538  12.046
77920SOL    HW135592   8.790   2.580  12.132
77920SOL    HW235593   8.792   2.444  12.064
77921SOL     OW35594   4.795   8.615   6.392
77921SOL    HW135595   4.877   8.628   6.345
77921SOL    HW235596   4.818   8.556   6.464
77922SOL     OW35597   0.856   6.442  13.006
77922SOL    HW135598   0.882   6.535  13.003
77922SOL    HW235599   0.922   6.397  12.954
77923SOL     OW35600   4.317   7.638   0.520
77923SOL    HW135601   4.336   7.547   0.543
77923SOL    HW235602   4.402   7.674   0.493
77924SOL     OW35603   4.333   5.492   5.956
77924SOL    HW135604   4.369   5.473   5.870
77924SOL    HW235605   4.407   5.482   6.016
77925SOL     OW35606  13.888   0.231   4.702
77925SOL    HW135607  13.933   0.219   4.786
77925SOL    HW235608  13.958   0.221   4.637
77926SOL     OW35609   9.104  14.052  13.786
77926SOL    HW135610   9.171  14.059  13.853
77926SOL    HW235611   9.126  13.971  13.739
77927SOL     OW35612   3.960  11.321   7.391
77927SOL    HW135613   4.028  11.259   7.415
77927SOL    HW235614   3.957  11.383   7.463
77928SOL     OW35615   0.157   9.962   7.295
77928SOL    HW135616   0.251   9.959   7.276
77928SOL    HW235617   0.139   9.880   7.340
77929SOL     OW35618   1.814  12.464  10.728
77929SOL    HW135619   1.734  12.431  10.767
77929SOL    HW235620   1.797  12.557  10.711
77930SOL     OW35621   9.959   6.890   2.230
77930SOL    HW135622  10.034   6.949   2.237
77930SOL    HW235623   9.994   6.804   2.254
77931SOL     OW35624   8.235  11.023   5.648
77931SOL    HW135625   8.196  10.944   5.686
77931SOL    HW235626   8.320  11.032   5.691
77932SOL     OW35627   3.078   5.365   1.831
77932SOL    HW135628   3.152   5.306   1.847
77932SOL    HW235629   3.067   5.412   1.914
77933SOL     OW35630  11.514   2.452   1.091
77933SOL    HW135631  11.487   2.451   0.999
77933SOL    HW235632  11.499   2.363   1.122
77934SOL     OW35633  12.981   5.884   5.870
77934SOL    HW135634  13.054   5.934   5.906
77934SOL    HW235635  12.915   5.884   5.940
77935SOL     OW35636   6.394  13.288   2.030
77935SOL    HW135637   6.344  13.366   2.007
77935SOL    HW235638   6.336  13.215   2.008
77936SOL     OW35639   5.918  14.048   8.681
77936SOL    HW135640   5.945  14.133   8.647
77936SOL    HW235641   5.894  14.064   8.772
77937SOL     OW35642  14.066  14.248  13.772
77937SOL    HW135643  14.161  14.247  13.768
77937SOL    HW235644  14.042  14.339  13.755
77938SOL     OW35645   4.952   1.944   8.986
77938SOL    HW135646   4.995   1.899   8.913
77938SOL    HW235647   4.980   2.035   8.977
77939SOL     OW35648  10.159  12.197   4.537
77939SOL    HW135649  10.096  12.132   4.504
77939SOL    HW235650  10.244  12.153   4.530
77940SOL     OW35651   1.696   1.553   7.957
77940SOL    HW135652   1.693   1.475   8.012
77940SOL    HW235653   1.692   1.519   7.867
77941SOL     OW35654   3.103   8.135  10.869
77941SOL    HW135655   3.082   8.075  10.940
77941SOL    HW235656   3.134   8.214  10.913
77942SOL     OW35657  13.119   6.980   6.695
77942SOL    HW135658  13.133   6.931   6.614
77942SOL    HW235659  13.065   6.923   6.750
77943SOL     OW35660   6.218   2.565  13.672
77943SOL    HW135661   6.310   2.556  13.647
77943SOL    HW235662   6.195   2.481  13.711
77944SOL     OW35663   4.344  13.387  13.933
77944SOL    HW135664   4.254  13.369  13.961
77944SOL    HW235665   4.396  13.318  13.974
77945SOL     OW35666   6.616  11.747   4.351
77945SOL    HW135667   6.579  11.675   4.401
77945SOL    HW235668   6.657  11.706   4.275
77946SOL     OW35669  11.130  13.184  12.061
77946SOL    HW135670  11.119  13.119  12.130
77946SOL    HW235671  11.224  13.202  12.060
77947SOL     OW35672   0.822   7.587   3.712
77947SOL    HW135673   0.841   7.496   3.687
77947SOL    HW235674   0.788   7.580   3.802
77948SOL     OW35675   9.356   2.198   4.923
77948SOL    HW135676   9.325   2.162   5.006
77948SOL    HW235677   9.276   2.229   4.879
77949SOL     OW35678   3.412  14.685  12.422
77949SOL    HW135679   3.397  14.591  12.425
77949SOL    HW235680   3.324  14.723  12.411
77950SOL     OW35681   6.371   2.367   7.618
77950SOL    HW135682   6.334   2.297   7.563
77950SOL    HW235683   6.397   2.434   7.556
77951SOL     OW35684  11.185   5.721  11.569
77951SOL    HW135685  11.144   5.772  11.498
77951SOL    HW235686  11.136   5.639  11.570
77952SOL     OW35687   2.187   5.654   8.754
77952SOL    HW135688   2.177   5.747   8.734
77952SOL    HW235689   2.263   5.627   8.703
77953SOL     OW35690   3.558   1.829   8.802
77953SOL    HW135691   3.641   1.826   8.849
77953SOL    HW235692   3.583   1.831   8.710
77954SOL     OW35693   0.835   2.170   8.944
77954SOL    HW135694   0.904   2.237   8.940
77954SOL    HW235695   0.881   2.087   8.932
77955SOL     OW35696  14.480  11.545   1.769
77955SOL    HW135697  14.547  11.477   1.759
77955SOL    HW235698  14.486  11.597   1.689
77956SOL     OW35699   5.833   9.336   0.205
77956SOL    HW135700   5.853   9.249   0.172
77956SOL    HW235701   5.740   9.349   0.187
77957SOL     OW35702   7.055   9.048  13.436
77957SOL    HW135703   6.975   9.010  13.400
77957SOL    HW235704   7.075   8.996  13.513
77958SOL     OW35705   1.374   2.337   6.855
77958SOL    HW135706   1.414   2.318   6.770
77958SOL    HW235707   1.287   2.372   6.832
77959SOL     OW35708   3.265  10.667   1.032
77959SOL    HW135709   3.310  10.698   1.111
77959SOL    HW235710   3.323  10.692   0.960
77960SOL     OW35711  12.171  10.219   3.639
77960SOL    HW135712  12.216  10.172   3.709
77960SOL    HW235713  12.097  10.163   3.615
77961SOL     OW35714   1.755  12.956  12.770
77961SOL    HW135715   1.688  12.906  12.816
77961SOL    HW235716   1.833  12.901  12.775
77962SOL     OW35717   9.509  14.453   6.560
77962SOL    HW135718   9.533  14.402   6.483
77962SOL    HW235719   9.431  14.409   6.595
77963SOL     OW35720  10.932  14.340   6.572
77963SOL    HW135721  11.023  14.311   6.577
77963SOL    HW235722  10.914  14.346   6.478
77964SOL     OW35723   5.190  13.705   1.444
77964SOL    HW135724   5.231  13.651   1.376
77964SOL    HW235725   5.110  13.737   1.403
77965SOL     OW35726   6.195  10.233   7.766
77965SOL    HW135727   6.148  10.301   7.814
77965SOL    HW235728   6.126  10.172   7.738
77966SOL     OW35729   7.437  14.484   9.051
77966SOL    HW135730   7.525  14.461   9.022
77966SOL    HW235731   7.399  14.531   8.977
77967SOL     OW35732  10.087   0.395  11.285
77967SOL    HW135733  10.181   0.380  11.291
77967SOL    HW235734  10.053   0.367  11.370
77968SOL     OW35735  10.520   0.256  10.129
77968SOL    HW135736  10.520   0.350  10.107
77968SOL    HW235737  10.565   0.215  10.055
77969SOL     OW35738  10.497   1.585  11.137
77969SOL    HW135739  10.580   1.570  11.183
77969SOL    HW235740  10.434   1.533  11.187
77970SOL     OW35741   9.444  14.752   3.137
77970SOL    HW135742   9.454  14.834   3.088
77970SOL    HW235743   9.531  14.712   3.134
77971SOL     OW35744   5.923  14.611  10.055
77971SOL    HW135745   5.955  14.689  10.101
77971SOL    HW235746   5.964  14.537  10.101
77972SOL     OW35747  12.145  13.231   5.569
77972SOL    HW135748  12.081  13.175   5.525
77972SOL    HW235749  12.113  13.320   5.554
77973SOL     OW35750   1.862   5.502   7.181
77973SOL    HW135751   1.934   5.474   7.238
77973SOL    HW235752   1.857   5.597   7.194
77974SOL     OW35753  12.740   9.225   7.823
77974SOL    HW135754  12.658   9.253   7.783
77974SOL    HW235755  12.744   9.131   7.806
77975SOL     OW35756   9.098  12.461   2.603
77975SOL    HW135757   9.044  12.537   2.580
77975SOL    HW235758   9.188  12.493   2.594
77976SOL     OW35759   7.773   9.113  13.358
77976SOL    HW135760   7.756   9.177  13.427
77976SOL    HW235761   7.764   9.028  13.401
77977SOL     OW35762   5.758  10.893   9.618
77977SOL    HW135763   5.848  10.923   9.612
77977SOL    HW235764   5.741  10.849   9.535
77978SOL     OW35765  13.883  13.243  13.295
77978SOL    HW135766  13.946  13.286  13.237
77978SOL    HW235767  13.798  13.255  13.252
77979SOL     OW35768   0.626  10.554  12.807
77979SOL    HW135769   0.587  10.624  12.859
77979SOL    HW235770   0.698  10.596  12.760
77980SOL     OW35771   2.627   2.979   4.815
77980SOL    HW135772   2.553   3.037   4.798
77980SOL    HW235773   2.592   2.913   4.876
77981SOL     OW35774   7.480   3.892   8.038
77981SOL    HW135775   7.432   3.893   7.955
77981SOL    HW235776   7.463   3.805   8.074
77982SOL     OW35777   0.282   5.793  10.384
77982SOL    HW135778   0.234   5.742  10.319
77982SOL    HW235779   0.222   5.863  10.410
77983SOL     OW35780  14.031   3.244   9.209
77983SOL    HW135781  14.031   3.202   9.123
77983SOL    HW235782  13.982   3.326   9.195
77984SOL     OW35783   6.911  14.777   4.807
77984SOL    HW135784   6.853  14.752   4.735
77984SOL    HW235785   6.888  14.716   4.878
77985SOL     OW35786   0.424   4.560  10.660
77985SOL    HW135787   0.382   4.476  10.677
77985SOL    HW235788   0.352   4.622  10.653
77986SOL     OW35789   4.351  12.367   9.451
77986SOL    HW135790   4.372  12.280   9.418
77986SOL    HW235791   4.353  12.358   9.546
77987SOL     OW35792   8.046  12.415   3.651
77987SOL    HW135793   8.051  12.343   3.713
77987SOL    HW235794   8.069  12.375   3.566
77988SOL     OW35795   2.047   9.591   9.472
77988SOL    HW135796   2.049   9.646   9.550
77988SOL    HW235797   2.074   9.650   9.401
77989SOL     OW35798   3.070  11.420   9.004
77989SOL    HW135799   3.125  11.361   9.054
77989SOL    HW235800   3.125  11.448   8.931
77990SOL     OW35801  13.513   4.674   8.221
77990SOL    HW135802  13.542   4.597   8.170
77990SOL    HW235803  13.528   4.649   8.312
77991SOL     OW35804  10.156  10.652  11.778
77991SOL    HW135805  10.064  10.674  11.761
77991SOL    HW235806  10.156  10.617  11.867
77992SOL     OW35807  10.793   3.728   8.413
77992SOL    HW135808  10.792   3.801   8.351
77992SOL    HW235809  10.734   3.755   8.483
77993SOL     OW35810  10.063   2.889   0.159
77993SOL    HW135811  10.110   2.920   0.082
77993SOL    HW235812  10.127   2.837   0.207
77994SOL     OW35813  11.281   5.444   2.034
77994SOL    HW135814  11.258   5.534   2.059
77994SOL    HW235815  11.371   5.451   2.001
77995SOL     OW35816   3.815  12.594   0.077
77995SOL    HW135817   3.865  12.674   0.057
77995SOL    HW235818   3.869  12.523   0.042
77996SOL     OW35819   8.724   3.197   3.973
77996SOL    HW135820   8.748   3.104   3.972
77996SOL    HW235821   8.676   3.210   3.891
77997SOL     OW35822   8.690  10.588   4.367
77997SOL    HW135823   8.726  10.500   4.378
77997SOL    HW235824   8.598  10.579   4.390
77998SOL     OW35825   0.979   7.102  11.650
77998SOL    HW135826   1.056   7.078  11.598
77998SOL    HW235827   1.007   7.093  11.741
77999SOL     OW35828  14.499   8.997  12.155
77999SOL    HW135829  14.443   9.061  12.200
77999SOL    HW235830  14.439   8.945  12.103
78000SOL     OW35831  10.295   1.962   3.738
78000SOL    HW135832  10.390   1.950   3.749
78000SOL    HW235833  10.285   2.055   3.719
78001SOL     OW35834   2.994   0.503   0.944
78001SOL    HW135835   2.984   0.595   0.965
78001SOL    HW235836   2.969   0.457   1.025
78002SOL     OW35837   1.851   3.486   0.789
78002SOL    HW135838   1.768   3.462   0.830
78002SOL    HW235839   1.831   3.489   0.696
78003SOL     OW35840   6.386  13.338  11.154
78003SOL    HW135841   6.322  13.283  11.108
78003SOL    HW235842   6.423  13.393  11.085
78004SOL     OW35843  12.236   1.782  10.938
78004SOL    HW135844  12.185   1.808  10.861
78004SOL    HW235845  12.224   1.687  10.943
78005SOL     OW35846   9.154   8.618  11.242
78005SOL    HW135847   9.148   8.670  11.322
78005SOL    HW235848   9.085   8.552  11.250
78006SOL     OW35849   6.732   1.711   3.432
78006SOL    HW135850   6.736   1.759   3.349
78006SOL    HW235851   6.808   1.652   3.429
78007SOL     OW35852  11.882   1.879  12.430
78007SOL    HW135853  11.806   1.823  12.446
78007SOL    HW235854  11.944   1.823  12.383
78008SOL     OW35855   1.031   7.141   5.358
78008SOL    HW135856   1.096   7.071   5.357
78008SOL    HW235857   0.976   7.122   5.434
78009SOL     OW35858  11.948  14.609   9.437
78009SOL    HW135859  11.981  14.519   9.431
78009SOL    HW235860  12.013  14.662   9.392
78010SOL     OW35861   3.066  12.754  12.484
78010SOL    HW135862   2.977  12.744  12.448
78010SOL    HW235863   3.054  12.745  12.579
78011SOL     OW35864  13.125   6.247   2.228
78011SOL    HW135865  13.134   6.284   2.315
78011SOL    HW235866  13.209   6.202   2.212
78012SOL     OW35867   7.584  14.667   5.716
78012SOL    HW135868   7.512  14.710   5.763
78012SOL    HW235869   7.624  14.610   5.781
78013SOL     OW35870  10.570   2.377   8.340
78013SOL    HW135871  10.594   2.413   8.425
78013SOL    HW235872  10.567   2.453   8.282
78014SOL     OW35873   1.282   7.425  10.777
78014SOL    HW135874   1.199   7.435  10.824
78014SOL    HW235875   1.282   7.333  10.749
78015SOL     OW35876  12.626   4.827  14.376
78015SOL    HW135877  12.547   4.791  14.337
78015SOL    HW235878  12.696   4.770  14.346
78016SOL     OW35879   6.249   4.915   7.383
78016SOL    HW135880   6.192   4.947   7.313
78016SOL    HW235881   6.202   4.841   7.420
78017SOL     OW35882   5.220   8.671   8.008
78017SOL    HW135883   5.238   8.678   8.102
78017SOL    HW235884   5.212   8.576   7.993
78018SOL     OW35885  11.511   9.290   6.535
78018SOL    HW135886  11.435   9.301   6.593
78018SOL    HW235887  11.501   9.201   6.500
78019SOL     OW35888  14.620  10.137   4.596
78019SOL    HW135889  14.679  10.124   4.670
78019SOL    HW235890  14.559  10.205   4.625
78020SOL     OW35891   6.354  14.350  14.286
78020SOL    HW135892   6.277  14.297  14.267
78020SOL    HW235893   6.348  14.369  14.379
78021SOL     OW35894   3.537   9.941  11.681
78021SOL    HW135895   3.593   9.992  11.740
78021SOL    HW235896   3.593   9.868  11.653
78022SOL     OW35897  11.996   4.602   1.752
78022SOL    HW135898  12.061   4.557   1.805
78022SOL    HW235899  11.913   4.559   1.775
78023SOL     OW35900  11.074  13.234   7.180
78023SOL    HW135901  11.135  13.161   7.174
78023SOL    HW235902  10.989  13.196   7.157
78024SOL     OW35903  12.739  12.279   4.813
78024SOL    HW135904  12.682  12.262   4.738
78024SOL    HW235905  12.682  12.266   4.889
78025SOL     OW35906  14.638   8.241  12.741
78025SOL    HW135907  14.649   8.260  12.648
78025SOL    HW235908  14.596   8.155  12.744
78026SOL     OW35909   6.867   5.596   1.972
78026SOL    HW135910   6.789   5.573   1.921
78026SOL    HW235911   6.844   5.574   2.062
78027SOL     OW35912   5.006   3.117   8.560
78027SOL    HW135913   5.061   3.151   8.490
78027SOL    HW235914   4.963   3.040   8.522
78028SOL     OW35915   7.365  13.624  12.306
78028SOL    HW135916   7.275  13.603  12.329
78028SOL    HW235917   7.413  13.542  12.321
78029SOL     OW35918   8.204   4.485  14.351
78029SOL    HW135919   8.159   4.401  14.343
78029SOL    HW235920   8.286   4.465  14.397
78030SOL     OW35921  14.551   3.344   8.719
78030SOL    HW135922  14.615   3.415   8.710
78030SOL    HW235923  14.467   3.388   8.732
78031SOL     OW35924   4.282  13.022   4.002
78031SOL    HW135925   4.378  13.019   3.997
78031SOL    HW235926   4.254  12.943   3.957
78032SOL     OW35927   0.247  12.391   0.977
78032SOL    HW135928   0.164  12.351   0.952
78032SOL    HW235929   0.313  12.324   0.956
78033SOL     OW35930  10.702   2.218   7.722
78033SOL    HW135931  10.691   2.278   7.649
78033SOL    HW235932  10.771   2.158   7.694
78034SOL     OW35933  10.605   8.635   1.989
78034SOL    HW135934  10.625   8.542   1.980
78034SOL    HW235935  10.582   8.663   1.901
78035SOL     OW35936   3.125  11.762   1.678
78035SOL    HW135937   3.213  11.731   1.657
78035SOL    HW235938   3.094  11.805   1.599
78036SOL     OW35939   3.045  14.442   0.787
78036SOL    HW135940   2.959  14.484   0.794
78036SOL    HW235941   3.108  14.512   0.804
78037SOL     OW35942  14.754   4.211   6.630
78037SOL    HW135943  14.809   4.137   6.658
78037SOL    HW235944  14.672   4.170   6.603
78038SOL     OW35945   0.771   5.515   0.870
78038SOL    HW135946   0.830   5.590   0.883
78038SOL    HW235947   0.829   5.443   0.847
78039SOL     OW35948   7.025   9.780   8.533
78039SOL    HW135949   6.965   9.772   8.607
78039SOL    HW235950   7.112   9.779   8.572
78040SOL     OW35951   3.109   3.907  11.037
78040SOL    HW135952   3.040   3.970  11.020
78040SOL    HW235953   3.187   3.945  10.997
78041SOL     OW35954   1.356   4.940  11.330
78041SOL    HW135955   1.420   4.871  11.349
78041SOL    HW235956   1.409   5.019  11.319
78042SOL     OW35957   2.989  10.346  13.764
78042SOL    HW135958   2.907  10.334  13.715
78042SOL    HW235959   2.969  10.415  13.827
78043SOL     OW35960  14.728   1.702  11.466
78043SOL    HW135961  14.703   1.613  11.488
78043SOL    HW235962  14.816   1.694  11.430
78044SOL     OW35963   6.842   9.097   8.977
78044SOL    HW135964   6.864   9.091   9.070
78044SOL    HW235965   6.750   9.070   8.972
78045SOL     OW35966  14.441   0.675   9.986
78045SOL    HW135967  14.442   0.728  10.066
78045SOL    HW235968  14.492   0.597  10.008
78046SOL     OW35969  10.145  13.410   1.352
78046SOL    HW135970  10.138  13.506   1.351
78046SOL    HW235971  10.130  13.386   1.443
78047SOL     OW35972   4.392   1.771   4.278
78047SOL    HW135973   4.411   1.770   4.372
78047SOL    HW235974   4.371   1.680   4.257
78048SOL     OW35975   3.313   1.907   4.753
78048SOL    HW135976   3.396   1.916   4.800
78048SOL    HW235977   3.329   1.950   4.669
78049SOL     OW35978   6.011   3.082  11.712
78049SOL    HW135979   6.085   3.113  11.660
78049SOL    HW235980   5.934   3.104  11.660
78050SOL     OW35981   6.211   8.970  13.857
78050SOL    HW135982   6.272   8.978  13.930
78050SOL    HW235983   6.235   8.887  13.814
78051SOL     OW35984   3.933   0.430   7.298
78051SOL    HW135985   3.867   0.417   7.230
78051SOL    HW235986   3.979   0.511   7.272
78052SOL     OW35987  13.035   1.354   2.802
78052SOL    HW135988  12.950   1.396   2.816
78052SOL    HW235989  13.021   1.296   2.727
78053SOL     OW35990   3.177  13.232   0.197
78053SOL    HW135991   3.250  13.179   0.229
78053SOL    HW235992   3.152  13.286   0.272
78054SOL     OW35993   4.130   9.504   0.415
78054SOL    HW135994   4.129   9.465   0.502
78054SOL    HW235995   4.104   9.595   0.429
78055SOL     OW35996   7.889   6.916   5.680
78055SOL    HW135997   7.793   6.922   5.680
78055SOL    HW235998   7.909   6.842   5.622
78056SOL     OW35999   8.881   0.058  13.633
78056SOL    HW136000   8.885  14.872  13.707
78056SOL    HW236001   8.956   0.116  13.647
78057SOL     OW36002   0.209   6.349  12.419
78057SOL    HW136003   0.179   6.439  12.431
78057SOL    HW236004   0.301   6.357  12.394
78058SOL     OW36005   9.795   5.104   8.251
78058SOL    HW136006   9.720   5.160   8.269
78058SOL    HW236007   9.871   5.162   8.254
78059SOL     OW36008  12.953   1.942   7.041
78059SOL    HW136009  12.989   2.024   7.006
78059SOL    HW236010  13.026   1.881   7.040
78060SOL     OW36011   2.947   1.844  14.613
78060SOL    HW136012   2.876   1.795  14.572
78060SOL    HW236013   2.904   1.914  14.662
78061SOL     OW36014   6.555   5.079   1.357
78061SOL    HW136015   6.565   5.037   1.442
78061SOL    HW236016   6.486   5.144   1.371
78062SOL     OW36017   7.314   6.320  11.025
78062SOL    HW136018   7.269   6.245  10.986
78062SOL    HW236019   7.286   6.319  11.116
78063SOL     OW36020   2.355  12.500   2.901
78063SOL    HW136021   2.291  12.433   2.925
78063SOL    HW236022   2.400  12.464   2.825
78064SOL     OW36023   0.126   5.049   0.693
78064SOL    HW136024   0.034   5.061   0.717
78064SOL    HW236025   0.124   4.999   0.612
78065SOL     OW36026  14.280   7.699   3.197
78065SOL    HW136027  14.205   7.685   3.139
78065SOL    HW236028  14.291   7.794   3.200
78066SOL     OW36029   6.715   6.753   0.886
78066SOL    HW136030   6.655   6.697   0.936
78066SOL    HW236031   6.665   6.833   0.870
78067SOL     OW36032   7.323   1.184  10.998
78067SOL    HW136033   7.349   1.256  10.940
78067SOL    HW236034   7.398   1.125  10.998
78068SOL     OW36035   4.299   6.382  10.689
78068SOL    HW136036   4.361   6.323  10.731
78068SOL    HW236037   4.349   6.463  10.675
78069SOL     OW36038   9.107  11.471  12.044
78069SOL    HW136039   9.025  11.422  12.056
78069SOL    HW236040   9.173  11.418  12.088
78070SOL     OW36041   3.123   6.386   6.172
78070SOL    HW136042   3.152   6.323   6.238
78070SOL    HW236043   3.147   6.347   6.088
78071SOL     OW36044   0.287   3.191   4.992
78071SOL    HW136045   0.195   3.205   5.014
78071SOL    HW236046   0.288   3.180   4.897
78072SOL     OW36047  14.049   2.327   9.570
78072SOL    HW136048  14.067   2.384   9.645
78072SOL    HW236049  14.029   2.242   9.610
78073SOL     OW36050   4.289   5.771   0.141
78073SOL    HW136051   4.375   5.811   0.142
78073SOL    HW236052   4.304   5.682   0.172
78074SOL     OW36053  12.557   0.224   2.272
78074SOL    HW136054  12.571   0.263   2.358
78074SOL    HW236055  12.497   0.284   2.227
78075SOL     OW36056   9.408   3.888   8.627
78075SOL    HW136057   9.452   3.973   8.629
78075SOL    HW236058   9.327   3.901   8.674
78076SOL     OW36059   4.947   0.527  13.280
78076SOL    HW136060   5.009   0.581  13.330
78076SOL    HW236061   4.951   0.441  13.321
78077SOL     OW36062   8.046   1.514  13.429
78077SOL    HW136063   8.041   1.600  13.389
78077SOL    HW236064   7.960   1.475  13.415
78078SOL     OW36065   6.540   5.369   2.241
78078SOL    HW136066   6.560   5.289   2.288
78078SOL    HW236067   6.444   5.371   2.236
78079SOL     OW36068   5.191   0.396   5.423
78079SOL    HW136069   5.119   0.458   5.413
78079SOL    HW236070   5.242   0.403   5.343
78080SOL     OW36071   8.901   9.287   3.974
78080SOL    HW136072   8.976   9.342   3.995
78080SOL    HW236073   8.939   9.200   3.957
78081SOL     OW36074   2.006   6.788   5.541
78081SOL    HW136075   1.988   6.742   5.459
78081SOL    HW236076   2.090   6.751   5.571
78082SOL     OW36077   7.985   4.232   6.144
78082SOL    HW136078   7.930   4.156   6.165
78082SOL    HW236079   8.042   4.202   6.074
78083SOL     OW36080  14.189   4.011  14.699
78083SOL    HW136081  14.275   4.038  14.666
78083SOL    HW236082  14.188   3.916  14.688
78084SOL     OW36083  13.623  12.791  10.030
78084SOL    HW136084  13.695  12.744  10.072
78084SOL    HW236085  13.663  12.832   9.953
78085SOL     OW36086   5.830   6.825   4.659
78085SOL    HW136087   5.798   6.914   4.644
78085SOL    HW236088   5.924   6.830   4.643
78086SOL     OW36089   6.049   7.591   2.225
78086SOL    HW136090   6.065   7.558   2.314
78086SOL    HW236091   6.015   7.679   2.238
78087SOL     OW36092   1.917   5.443   1.202
78087SOL    HW136093   1.982   5.437   1.271
78087SOL    HW236094   1.937   5.371   1.143
78088SOL     OW36095   7.155   9.961   1.941
78088SOL    HW136096   7.154  10.052   1.973
78088SOL    HW236097   7.242   9.929   1.963
78089SOL     OW36098  10.820   0.942   4.070
78089SOL    HW136099  10.763   1.019   4.058
78089SOL    HW236100  10.865   0.959   4.153
78090SOL     OW36101   6.394  11.023  12.650
78090SOL    HW136102   6.390  10.984  12.562
78090SOL    HW236103   6.312  10.997  12.691
78091SOL     OW36104   5.156   8.424   8.282
78091SOL    HW136105   5.220   8.492   8.262
78091SOL    HW236106   5.167   8.407   8.375
78092SOL     OW36107   1.368  11.670   1.556
78092SOL    HW136108   1.393  11.642   1.468
78092SOL    HW236109   1.397  11.761   1.562
78093SOL     OW36110   7.830  10.909   4.880
78093SOL    HW136111   7.773  10.837   4.851
78093SOL    HW236112   7.827  10.903   4.976
78094SOL     OW36113  13.340   4.494   7.860
78094SOL    HW136114  13.307   4.404   7.868
78094SOL    HW236115  13.264   4.544   7.828
78095SOL     OW36116   3.366   3.263   5.695
78095SOL    HW136117   3.408   3.270   5.780
78095SOL    HW236118   3.412   3.326   5.640
78096SOL     OW36119   0.790  10.012  14.831
78096SOL    HW136120   0.738  10.085  14.865
78096SOL    HW236121   0.725   9.955  14.788
78097SOL     OW36122  12.231   4.282  10.818
78097SOL    HW136123  12.230   4.255  10.726
78097SOL    HW236124  12.304   4.234  10.857
78098SOL     OW36125   4.271  13.404   4.925
78098SOL    HW136126   4.273  13.360   4.840
78098SOL    HW236127   4.185  13.385   4.961
78099SOL     OW36128   5.854   3.707  12.168
78099SOL    HW136129   5.823   3.728  12.080
78099SOL    HW236130   5.853   3.612  12.173
78100SOL     OW36131  12.966  13.717   8.287
78100SOL    HW136132  12.878  13.687   8.308
78100SOL    HW236133  12.956  13.764   8.204
78101SOL     OW36134   8.589   1.711   0.876
78101SOL    HW136135   8.647   1.636   0.865
78101SOL    HW236136   8.640   1.786   0.845
78102SOL     OW36137   6.403  13.017  10.947
78102SOL    HW136138   6.474  13.055  10.998
78102SOL    HW236139   6.393  12.928  10.982
78103SOL     OW36140   5.379   2.415   2.548
78103SOL    HW136141   5.304   2.462   2.510
78103SOL    HW236142   5.379   2.440   2.640
78104SOL     OW36143   8.971   8.733   1.192
78104SOL    HW136144   9.002   8.730   1.102
78104SOL    HW236145   8.935   8.646   1.208
78105SOL     OW36146   7.789   8.667   7.076
78105SOL    HW136147   7.727   8.702   7.140
78105SOL    HW236148   7.820   8.585   7.115
78106SOL     OW36149  13.462   5.474   2.383
78106SOL    HW136150  13.504   5.440   2.304
78106SOL    HW236151  13.427   5.559   2.357
78107SOL     OW36152  13.796  11.251  10.574
78107SOL    HW136153  13.739  11.179  10.549
78107SOL    HW236154  13.835  11.281  10.492
78108SOL     OW36155  14.861   7.981  12.167
78108SOL    HW136156   0.055   7.924  12.135
78108SOL    HW236157  14.786   7.922  12.178
78109SOL     OW36158   0.236  13.846   9.067
78109SOL    HW136159   0.226  13.752   9.051
78109SOL    HW236160   0.233  13.854   9.162
78110SOL     OW36161   0.390   4.815   3.350
78110SOL    HW136162   0.416   4.771   3.431
78110SOL    HW236163   0.422   4.904   3.360
78111SOL     OW36164   7.915   8.409   1.135
78111SOL    HW136165   7.881   8.483   1.186
78111SOL    HW236166   7.880   8.332   1.178
78112SOL     OW36167   5.055   7.014   7.978
78112SOL    HW136168   5.097   7.049   8.057
78112SOL    HW236169   5.102   7.055   7.905
78113SOL     OW36170  14.001   4.701   0.325
78113SOL    HW136171  13.933   4.750   0.371
78113SOL    HW236172  14.074   4.762   0.316
78114SOL     OW36173   8.998   9.858  14.149
78114SOL    HW136174   8.910   9.831  14.121
78114SOL    HW236175   9.020   9.797  14.219
78115SOL     OW36176   9.486  11.128  10.793
78115SOL    HW136177   9.510  11.216  10.819
78115SOL    HW236178   9.394  11.119  10.817
78116SOL     OW36179   2.474  11.507   7.232
78116SOL    HW136180   2.451  11.576   7.170
78116SOL    HW236181   2.475  11.427   7.179
78117SOL     OW36182   6.241   5.416   1.782
78117SOL    HW136183   6.205   5.329   1.797
78117SOL    HW236184   6.320   5.419   1.835
78118SOL     OW36185   8.722  14.456  10.484
78118SOL    HW136186   8.667  14.462  10.562
78118SOL    HW236187   8.678  14.391  10.429
78119SOL     OW36188   0.180  13.582   5.199
78119SOL    HW136189   0.240  13.524   5.151
78119SOL    HW236190   0.167  13.657   5.142
78120SOL     OW36191   0.857   2.524   4.757
78120SOL    HW136192   0.911   2.597   4.787
78120SOL    HW236193   0.801   2.562   4.690
78121SOL     OW36194   5.801  12.148  10.145
78121SOL    HW136195   5.727  12.209  10.149
78121SOL    HW236196   5.761  12.062  10.154
78122SOL     OW36197   6.867   0.114  14.765
78122SOL    HW136198   6.907   0.129  14.680
78122SOL    HW236199   6.872   0.199  14.809
78123SOL     OW36200   3.679   8.814   5.804
78123SOL    HW136201   3.702   8.775   5.720
78123SOL    HW236202   3.700   8.747   5.869
78124SOL     OW36203  14.707   1.424  11.586
78124SOL    HW136204  14.799   1.423  11.612
78124SOL    HW236205  14.702   1.361  11.514
78125SOL     OW36206   7.014   8.025  10.556
78125SOL    HW136207   7.015   7.969  10.634
78125SOL    HW236208   7.054   8.107  10.585
78126SOL     OW36209  12.860   3.772  11.943
78126SOL    HW136210  12.956   3.770  11.937
78126SOL    HW236211  12.843   3.804  12.032
78127SOL     OW36212  13.031  13.888  13.288
78127SOL    HW136213  13.100  13.901  13.224
78127SOL    HW236214  12.956  13.855  13.238
78128SOL     OW36215   7.575   9.540   8.429
78128SOL    HW136216   7.653   9.557   8.377
78128SOL    HW236217   7.607   9.499   8.509
78129SOL     OW36218   2.407   5.717   6.922
78129SOL    HW136219   2.495   5.741   6.891
78129SOL    HW236220   2.384   5.785   6.986
78130SOL     OW36221   0.957   5.029   4.857
78130SOL    HW136222   0.971   5.021   4.763
78130SOL    HW236223   0.893   4.961   4.878
78131SOL     OW36224   5.956   7.086   5.437
78131SOL    HW136225   5.968   7.061   5.528
78131SOL    HW236226   5.878   7.039   5.409
78132SOL     OW36227  10.913  12.721   7.891
78132SOL    HW136228  10.983  12.658   7.871
78132SOL    HW236229  10.957  12.793   7.936
78133SOL     OW36230   9.227   7.408  11.260
78133SOL    HW136231   9.257   7.453  11.339
78133SOL    HW236232   9.132   7.419  11.262
78134SOL     OW36233   0.907  10.993   0.900
78134SOL    HW136234   0.974  11.053   0.867
78134SOL    HW236235   0.893  11.019   0.991
78135SOL     OW36236   6.074   1.033   5.751
78135SOL    HW136237   5.998   1.086   5.775
78135SOL    HW236238   6.069   0.958   5.811
78136SOL     OW36239  12.427  13.878   7.515
78136SOL    HW136240  12.361  13.923   7.568
78136SOL    HW236241  12.419  13.786   7.541
78137SOL     OW36242  10.582   1.340  11.613
78137SOL    HW136243  10.487   1.336  11.611
78137SOL    HW236244  10.603   1.433  11.616
78138SOL     OW36245   2.502   9.649   2.616
78138SOL    HW136246   2.569   9.682   2.676
78138SOL    HW236247   2.541   9.660   2.529
78139SOL     OW36248  10.529   9.247  12.798
78139SOL    HW136249  10.601   9.193  12.833
78139SOL    HW236250  10.451   9.192  12.811
78140SOL     OW36251   7.439  11.380   1.768
78140SOL    HW136252   7.521  11.332   1.769
78140SOL    HW236253   7.391  11.346   1.692
78141SOL     OW36254   1.622  12.227   1.244
78141SOL    HW136255   1.545  12.267   1.283
78141SOL    HW236256   1.696  12.264   1.293
78142SOL     OW36257   7.281   3.202  11.778
78142SOL    HW136258   7.369   3.191  11.814
78142SOL    HW236259   7.222   3.175  11.848
78143SOL     OW36260   4.564   5.454   4.938
78143SOL    HW136261   4.497   5.439   5.005
78143SOL    HW236262   4.645   5.424   4.979
78144SOL     OW36263   9.762   8.465   5.421
78144SOL    HW136264   9.847   8.485   5.382
78144SOL    HW236265   9.778   8.387   5.475
78145SOL     OW36266   8.393  12.040   2.831
78145SOL    HW136267   8.423  12.131   2.836
78145SOL    HW236268   8.471  11.989   2.854
78146SOL     OW36269  13.851   0.837  14.811
78146SOL    HW136270  13.941   0.805  14.817
78146SOL    HW236271  13.856   0.928  14.841
78147SOL     OW36272  11.227   5.724   7.491
78147SOL    HW136273  11.313   5.754   7.519
78147SOL    HW236274  11.193   5.795   7.436
78148SOL     OW36275   1.609   5.431   8.489
78148SOL    HW136276   1.702   5.411   8.481
78148SOL    HW236277   1.606   5.507   8.547
78149SOL     OW36278   2.227  11.775  11.364
78149SOL    HW136279   2.288  11.820  11.423
78149SOL    HW236280   2.155  11.837  11.351
78150SOL     OW36281   9.336  14.052   9.013
78150SOL    HW136282   9.343  14.044   8.918
78150SOL    HW236283   9.253  14.096   9.027
78151SOL     OW36284   8.151   5.173  14.854
78151SOL    HW136285   8.144   5.248  14.794
78151SOL    HW236286   8.244   5.166  14.873
78152SOL     OW36287  14.101   7.584   2.066
78152SOL    HW136288  14.049   7.620   2.138
78152SOL    HW236289  14.058   7.501   2.045
78153SOL     OW36290   4.209   8.915  13.825
78153SOL    HW136291   4.186   8.876  13.740
78153SOL    HW236292   4.287   8.968  13.806
78154SOL     OW36293  10.036   6.393   7.199
78154SOL    HW136294   9.973   6.460   7.172
78154SOL    HW236295  10.088   6.375   7.120
78155SOL     OW36296   1.423   0.509   0.642
78155SOL    HW136297   1.396   0.432   0.592
78155SOL    HW236298   1.518   0.514   0.631
78156SOL     OW36299   1.043   2.612   2.151
78156SOL    HW136300   1.097   2.559   2.092
78156SOL    HW236301   0.979   2.550   2.187
78157SOL     OW36302   9.360   9.667  11.777
78157SOL    HW136303   9.316   9.733  11.830
78157SOL    HW236304   9.414   9.617  11.838
78158SOL     OW36305   7.888   1.758   8.297
78158SOL    HW136306   7.853   1.675   8.329
78158SOL    HW236307   7.979   1.740   8.276
78159SOL     OW36308   3.264   9.798   8.650
78159SOL    HW136309   3.197   9.732   8.633
78159SOL    HW236310   3.337   9.748   8.688
78160SOL     OW36311  13.954   0.233   1.857
78160SOL    HW136312  13.968   0.327   1.865
78160SOL    HW236313  14.042   0.195   1.860
78161SOL     OW36314   4.609   6.957   8.311
78161SOL    HW136315   4.692   7.004   8.305
78161SOL    HW236316   4.623   6.892   8.380
78162SOL     OW36317  14.745   3.037  11.204
78162SOL    HW136318  14.804   3.112  11.218
78162SOL    HW236319  14.677   3.071  11.146
78163SOL     OW36320   6.719  14.044  12.821
78163SOL    HW136321   6.793  14.062  12.879
78163SOL    HW236322   6.716  13.949  12.814
78164SOL     OW36323  11.014   8.389   0.300
78164SOL    HW136324  11.059   8.311   0.333
78164SOL    HW236325  10.931   8.357   0.265
78165SOL     OW36326  10.370   5.948   2.563
78165SOL    HW136327  10.344   5.879   2.625
78165SOL    HW236328  10.426   6.006   2.614
78166SOL     OW36329   0.789   8.362   5.779
78166SOL    HW136330   0.713   8.385   5.726
78166SOL    HW236331   0.856   8.339   5.714
78167SOL     OW36332   1.958  10.406   1.104
78167SOL    HW136333   1.899  10.340   1.069
78167SOL    HW236334   1.905  10.486   1.109
78168SOL     OW36335  12.845   4.831   8.070
78168SOL    HW136336  12.919   4.816   8.010
78168SOL    HW236337  12.781   4.764   8.046
78169SOL     OW36338  13.292   1.716   8.469
78169SOL    HW136339  13.264   1.631   8.436
78169SOL    HW236340  13.254   1.722   8.557
78170SOL     OW36341   5.741   2.894   0.657
78170SOL    HW136342   5.812   2.893   0.721
78170SOL    HW236343   5.730   2.802   0.633
78171SOL     OW36344   9.488  11.780  13.830
78171SOL    HW136345   9.519  11.778  13.921
78171SOL    HW236346   9.427  11.853  13.828
78172SOL     OW36347   2.896   9.171   5.830
78172SOL    HW136348   2.925   9.092   5.785
78172SOL    HW236349   2.822   9.204   5.777
78173SOL     OW36350   9.221   0.652  13.260
78173SOL    HW136351   9.258   0.731  13.222
78173SOL    HW236352   9.297   0.597  13.279
78174SOL     OW36353   2.063   7.881   7.031
78174SOL    HW136354   2.013   7.958   7.002
78174SOL    HW236355   2.143   7.917   7.069
78175SOL     OW36356   2.219   0.441   5.022
78175SOL    HW136357   2.277   0.418   4.950
78175SOL    HW236358   2.164   0.363   5.035
78176SOL     OW36359   5.235   4.919   0.676
78176SOL    HW136360   5.287   4.842   0.699
78176SOL    HW236361   5.167   4.924   0.744
78177SOL     OW36362   4.672  14.610   5.334
78177SOL    HW136363   4.722  14.532   5.358
78177SOL    HW236364   4.589  14.575   5.300
78178SOL     OW36365   9.148   2.843   8.825
78178SOL    HW136366   9.074   2.874   8.877
78178SOL    HW236367   9.217   2.827   8.889
78179SOL     OW36368   8.024  10.216  13.176
78179SOL    HW136369   8.017  10.130  13.136
78179SOL    HW236370   7.983  10.207  13.262
78180SOL     OW36371   8.216  13.879  10.723
78180SOL    HW136372   8.140  13.933  10.701
78180SOL    HW236373   8.229  13.893  10.817
78181SOL     OW36374   6.244   3.613  11.162
78181SOL    HW136375   6.275   3.673  11.094
78181SOL    HW236376   6.240   3.667  11.241
78182SOL     OW36377   3.493  10.755  12.464
78182SOL    HW136378   3.408  10.734  12.502
78182SOL    HW236379   3.535  10.670  12.450
78183SOL     OW36380   6.134   6.046   8.064
78183SOL    HW136381   6.208   6.073   8.010
78183SOL    HW236382   6.127   6.113   8.132
78184SOL     OW36383   0.685   4.665   8.425
78184SOL    HW136384   0.708   4.612   8.502
78184SOL    HW236385   0.759   4.724   8.413
78185SOL     OW36386   4.136   8.205   8.646
78185SOL    HW136387   4.211   8.197   8.706
78185SOL    HW236388   4.085   8.278   8.682
78186SOL     OW36389   0.646  12.776  13.922
78186SOL    HW136390   0.606  12.793  14.007
78186SOL    HW236391   0.667  12.863  13.888
78187SOL     OW36392   6.055   9.941   0.302
78187SOL    HW136393   6.025   9.913   0.215
78187SOL    HW236394   6.135   9.992   0.285
78188SOL     OW36395  13.571   0.776   8.120
78188SOL    HW136396  13.619   0.738   8.194
78188SOL    HW236397  13.481   0.748   8.133
78189SOL     OW36398  12.926  13.831  12.271
78189SOL    HW136399  12.998  13.805  12.213
78189SOL    HW236400  12.934  13.926  12.278
78190SOL     OW36401  10.615  14.495  13.563
78190SOL    HW136402  10.560  14.431  13.519
78190SOL    HW236403  10.659  14.543  13.492
78191SOL     OW36404   7.886   5.660   4.394
78191SOL    HW136405   7.871   5.652   4.488
78191SOL    HW236406   7.863   5.751   4.373
78192SOL     OW36407  10.657  14.167  12.111
78192SOL    HW136408  10.718  14.158  12.038
78192SOL    HW236409  10.713  14.167  12.189
78193SOL     OW36410  13.575   6.754   5.862
78193SOL    HW136411  13.505   6.768   5.798
78193SOL    HW236412  13.622   6.837   5.863
78194SOL     OW36413  10.937   1.453  14.328
78194SOL    HW136414  10.937   1.488  14.239
78194SOL    HW236415  10.878   1.512  14.376
78195SOL     OW36416  11.197   0.091  10.720
78195SOL    HW136417  11.140   0.014  10.713
78195SOL    HW236418  11.150   0.149  10.779
78196SOL     OW36419   3.467   8.931   8.779
78196SOL    HW136420   3.512   8.850   8.804
78196SOL    HW236421   3.378   8.904   8.757
78197SOL     OW36422   8.380   4.863   1.501
78197SOL    HW136423   8.328   4.794   1.542
78197SOL    HW236424   8.368   4.939   1.558
78198SOL     OW36425  14.526   1.978   4.275
78198SOL    HW136426  14.513   1.959   4.368
78198SOL    HW236427  14.493   2.068   4.265
78199SOL     OW36428  11.296  11.809   2.958
78199SOL    HW136429  11.263  11.722   2.935
78199SOL    HW236430  11.221  11.854   2.997
78200SOL     OW36431   0.849  10.628   3.047
78200SOL    HW136432   0.787  10.663   2.983
78200SOL    HW236433   0.893  10.705   3.083
78201SOL     OW36434   6.672   2.019   8.067
78201SOL    HW136435   6.604   2.086   8.063
78201SOL    HW236436   6.626   1.937   8.049
78202SOL     OW36437   1.919  13.430   5.674
78202SOL    HW136438   1.863  13.507   5.668
78202SOL    HW236439   1.938  13.422   5.768
78203SOL     OW36440  10.909   6.657   3.744
78203SOL    HW136441  10.908   6.574   3.697
78203SOL    HW236442  10.817   6.676   3.761
78204SOL     OW36443  13.583   5.422   9.907
78204SOL    HW136444  13.496   5.404   9.870
78204SOL    HW236445  13.588   5.365   9.984
78205SOL     OW36446   8.099   0.775   1.643
78205SOL    HW136447   8.065   0.686   1.657
78205SOL    HW236448   8.065   0.825   1.718
78206SOL     OW36449   8.552   5.501  11.369
78206SOL    HW136450   8.622   5.447  11.405
78206SOL    HW236451   8.472   5.452  11.388
78207SOL     OW36452  11.187  14.265   0.800
78207SOL    HW136453  11.175  14.354   0.835
78207SOL    HW236454  11.261  14.230   0.849
78208SOL     OW36455  14.520  13.156  13.142
78208SOL    HW136456  14.536  13.208  13.221
78208SOL    HW236457  14.436  13.189  13.109
78209SOL     OW36458  11.671   1.394   5.207
78209SOL    HW136459  11.719   1.325   5.252
78209SOL    HW236460  11.579   1.368   5.212
78210SOL     OW36461   8.700  13.590   5.117
78210SOL    HW136462   8.736  13.649   5.184
78210SOL    HW236463   8.741  13.506   5.136
78211SOL     OW36464   0.948   4.223   0.405
78211SOL    HW136465   1.039   4.223   0.373
78211SOL    HW236466   0.955   4.252   0.496
78212SOL     OW36467   0.036   1.499   5.398
78212SOL    HW136468   0.126   1.491   5.366
78212SOL    HW236469   0.045   1.506   5.493
78213SOL     OW36470   5.111  10.850   7.380
78213SOL    HW136471   5.122  10.764   7.419
78213SOL    HW236472   5.081  10.832   7.291
78214SOL     OW36473   0.243  12.799   3.130
78214SOL    HW136474   0.219  12.844   3.211
78214SOL    HW236475   0.161  12.793   3.081
78215SOL     OW36476   2.194   6.494   6.398
78215SOL    HW136477   2.107   6.457   6.408
78215SOL    HW236478   2.235   6.443   6.328
78216SOL     OW36479   9.791  13.714   1.491
78216SOL    HW136480   9.838  13.751   1.416
78216SOL    HW236481   9.791  13.620   1.474
78217SOL     OW36482   3.770  11.633   1.990
78217SOL    HW136483   3.865  11.634   1.989
78217SOL    HW236484   3.744  11.717   1.953
78218SOL     OW36485  13.625   0.023   2.519
78218SOL    HW136486  13.656  14.832   2.579
78218SOL    HW236487  13.532   0.002   2.505
78219SOL     OW36488   4.297  13.166   1.281
78219SOL    HW136489   4.232  13.210   1.336
78219SOL    HW236490   4.250  13.090   1.245
78220SOL     OW36491   6.373   6.720  12.671
78220SOL    HW136492   6.406   6.745  12.585
78220SOL    HW236493   6.298   6.664  12.653
78221SOL     OW36494   8.023  10.288   0.317
78221SOL    HW136495   8.019  10.300   0.222
78221SOL    HW236496   8.008  10.375   0.353
78222SOL     OW36497   5.198   4.896   1.799
78222SOL    HW136498   5.197   4.990   1.814
78222SOL    HW236499   5.276   4.865   1.845
78223SOL     OW36500  13.735  11.385  12.765
78223SOL    HW136501  13.663  11.445  12.788
78223SOL    HW236502  13.707  11.300  12.799
78224SOL     OW36503   2.349   8.837  11.178
78224SOL    HW136504   2.269   8.850  11.128
78224SOL    HW236505   2.384   8.754  11.147
78225SOL     OW36506   5.697   6.463   2.138
78225SOL    HW136507   5.750   6.421   2.070
78225SOL    HW236508   5.670   6.391   2.195
78226SOL     OW36509   4.771   8.722   4.069
78226SOL    HW136510   4.793   8.643   4.118
78226SOL    HW236511   4.714   8.692   3.998
78227SOL     OW36512   0.983   5.451   4.920
78227SOL    HW136513   0.921   5.422   4.853
78227SOL    HW236514   1.021   5.531   4.883
78228SOL     OW36515  13.031   0.287   6.980
78228SOL    HW136516  13.048   0.202   6.939
78228SOL    HW236517  12.935   0.294   6.982
78229SOL     OW36518   6.125   3.662   7.651
78229SOL    HW136519   6.081   3.602   7.710
78229SOL    HW236520   6.185   3.712   7.706
78230SOL     OW36521  13.040  11.382   0.278
78230SOL    HW136522  12.972  11.441   0.312
78230SOL    HW236523  12.992  11.316   0.229
78231SOL     OW36524   7.400  12.535  10.356
78231SOL    HW136525   7.408  12.472  10.285
78231SOL    HW236526   7.305  12.540  10.372
78232SOL     OW36527   6.296  12.957  14.489
78232SOL    HW136528   6.256  12.879  14.451
78232SOL    HW236529   6.328  13.006  14.413
78233SOL     OW36530   5.823   0.062   4.574
78233SOL    HW136531   5.868   0.146   4.576
78233SOL    HW236532   5.870   0.011   4.507
78234SOL     OW36533  14.795   3.209  13.837
78234SOL    HW136534  14.827   3.185  13.924
78234SOL    HW236535  14.839   3.291  13.816
78235SOL     OW36536   8.350   7.534  13.183
78235SOL    HW136537   8.277   7.530  13.121
78235SOL    HW236538   8.390   7.447  13.179
78236SOL     OW36539   9.142  10.464  14.651
78236SOL    HW136540   9.216  10.522  14.668
78236SOL    HW236541   9.180  10.385  14.613
78237SOL     OW36542  14.548   9.835  13.221
78237SOL    HW136543  14.468   9.888  13.226
78237SOL    HW236544  14.516   9.748  13.198
78238SOL     OW36545   2.718   4.367   8.544
78238SOL    HW136546   2.798   4.321   8.518
78238SOL    HW236547   2.677   4.308   8.608
78239SOL     OW36548   9.096  12.345   7.702
78239SOL    HW136549   9.033  12.350   7.774
78239SOL    HW236550   9.059  12.401   7.634
78240SOL     OW36551   2.692   1.852  12.595
78240SOL    HW136552   2.729   1.854  12.683
78240SOL    HW236553   2.718   1.936  12.556
78241SOL     OW36554   2.768  10.194   5.071
78241SOL    HW136555   2.721  10.261   5.021
78241SOL    HW236556   2.840  10.242   5.114
78242SOL     OW36557   7.589   4.314   3.452
78242SOL    HW136558   7.506   4.320   3.404
78242SOL    HW236559   7.641   4.251   3.402
78243SOL     OW36560  10.513   2.700  11.433
78243SOL    HW136561  10.440   2.687  11.373
78243SOL    HW236562  10.496   2.785  11.474
78244SOL     OW36563  11.326   9.508   5.146
78244SOL    HW136564  11.266   9.522   5.220
78244SOL    HW236565  11.383   9.436   5.175
78245SOL     OW36566  11.465  14.608   5.382
78245SOL    HW136567  11.432  14.651   5.461
78245SOL    HW236568  11.554  14.643   5.371
78246SOL     OW36569   5.675  14.792   5.023
78246SOL    HW136570   5.740  14.766   4.958
78246SOL    HW236571   5.721  14.785   5.107
78247SOL     OW36572   3.473  14.430   2.650
78247SOL    HW136573   3.539  14.420   2.581
78247SOL    HW236574   3.399  14.376   2.620
78248SOL     OW36575   3.276   3.682   6.854
78248SOL    HW136576   3.276   3.663   6.948
78248SOL    HW236577   3.232   3.766   6.847
78249SOL     OW36578   6.698  11.938   5.617
78249SOL    HW136579   6.762  11.873   5.646
78249SOL    HW236580   6.740  12.022   5.634
78250SOL     OW36581   8.226  13.523  14.357
78250SOL    HW136582   8.290  13.533  14.286
78250SOL    HW236583   8.148  13.487  14.314
78251SOL     OW36584   0.830  13.918  14.744
78251SOL    HW136585   0.835  13.982  14.673
78251SOL    HW236586   0.736  13.901  14.755
78252SOL     OW36587   2.001  12.374   4.349
78252SOL    HW136588   1.964  12.300   4.398
78252SOL    HW236589   2.034  12.335   4.268
78253SOL     OW36590   1.721  10.038  11.808
78253SOL    HW136591   1.737  10.067  11.718
78253SOL    HW236592   1.754   9.948  11.810
78254SOL     OW36593  14.579   4.406   3.268
78254SOL    HW136594  14.534   4.465   3.328
78254SOL    HW236595  14.568   4.319   3.305
78255SOL     OW36596   9.672   2.250   3.685
78255SOL    HW136597   9.603   2.257   3.752
78255SOL    HW236598   9.649   2.172   3.635
78256SOL     OW36599   3.654  14.676  12.247
78256SOL    HW136600   3.663  14.676  12.343
78256SOL    HW236601   3.560  14.679  12.232
78257SOL     OW36602   9.729   0.845   8.333
78257SOL    HW136603   9.819   0.876   8.342
78257SOL    HW236604   9.691   0.858   8.419
78258SOL     OW36605   6.023   6.035   7.545
78258SOL    HW136606   6.099   6.008   7.598
78258SOL    HW236607   5.949   5.987   7.583
78259SOL     OW36608   3.113  11.792   5.101
78259SOL    HW136609   3.024  11.776   5.069
78259SOL    HW236610   3.106  11.871   5.154
78260SOL     OW36611  14.300   7.607   6.543
78260SOL    HW136612  14.373   7.659   6.578
78260SOL    HW236613  14.258   7.570   6.620
78261SOL     OW36614  10.879   9.078   2.128
78261SOL    HW136615  10.845   9.162   2.157
78261SOL    HW236616  10.829   9.013   2.177
78262SOL     OW36617   3.759  12.942   0.482
78262SOL    HW136618   3.733  12.943   0.389
78262SOL    HW236619   3.852  12.922   0.480
78263SOL     OW36620   6.240   5.655   7.521
78263SOL    HW136621   6.170   5.621   7.465
78263SOL    HW236622   6.295   5.578   7.539
78264SOL     OW36623   5.809   5.965   7.023
78264SOL    HW136624   5.783   5.942   7.112
78264SOL    HW236625   5.902   5.942   7.018
78265SOL     OW36626  10.412  10.403   0.690
78265SOL    HW136627  10.402  10.441   0.777
78265SOL    HW236628  10.506  10.406   0.673
78266SOL     OW36629   7.532   4.820   7.988
78266SOL    HW136630   7.567   4.776   7.911
78266SOL    HW236631   7.437   4.819   7.974
78267SOL     OW36632   7.568   2.436  10.585
78267SOL    HW136633   7.619   2.488  10.523
78267SOL    HW236634   7.633   2.386  10.634
78268SOL     OW36635   2.984   5.361   1.079
78268SOL    HW136636   3.066   5.352   1.031
78268SOL    HW236637   3.004   5.420   1.152
78269SOL     OW36638  13.522  14.229   7.509
78269SOL    HW136639  13.497  14.157   7.452
78269SOL    HW236640  13.458  14.226   7.580
78270SOL     OW36641   1.360  12.057   5.549
78270SOL    HW136642   1.277  12.012   5.568
78270SOL    HW236643   1.421  11.987   5.529
78271SOL     OW36644  14.846   3.866  11.715
78271SOL    HW136645  14.760   3.864  11.672
78271SOL    HW236646  14.833   3.815  11.795
78272SOL     OW36647   3.301   8.145  12.521
78272SOL    HW136648   3.370   8.196  12.478
78272SOL    HW236649   3.231   8.138  12.457
78273SOL     OW36650  13.541   8.543   9.456
78273SOL    HW136651  13.479   8.565   9.525
78273SOL    HW236652  13.509   8.461   9.420
78274SOL     OW36653  14.591  12.392   6.199
78274SOL    HW136654  14.632  12.331   6.260
78274SOL    HW236655  14.656  12.461   6.188
78275SOL     OW36656  14.511   3.905   1.048
78275SOL    HW136657  14.446   3.972   1.070
78275SOL    HW236658  14.591   3.934   1.091
78276SOL     OW36659   2.064   7.483   0.869
78276SOL    HW136660   2.148   7.517   0.838
78276SOL    HW236661   2.082   7.454   0.959
78277SOL     OW36662   0.633   1.139   1.964
78277SOL    HW136663   0.649   1.233   1.970
78277SOL    HW236664   0.652   1.105   2.051
78278SOL     OW36665   6.862   0.965   9.989
78278SOL    HW136666   6.778   1.008  10.005
78278SOL    HW236667   6.919   1.034   9.956
78279SOL     OW36668   1.135  13.428  12.628
78279SOL    HW136669   1.137  13.496  12.561
78279SOL    HW236670   1.102  13.472  12.707
78280SOL     OW36671  12.831   9.769   4.904
78280SOL    HW136672  12.834   9.711   4.980
78280SOL    HW236673  12.784   9.718   4.838
78281SOL     OW36674   3.177  12.591   9.812
78281SOL    HW136675   3.114  12.528   9.777
78281SOL    HW236676   3.242  12.602   9.742
78282SOL     OW36677  14.531  12.705   7.552
78282SOL    HW136678  14.602  12.728   7.492
78282SOL    HW236679  14.488  12.630   7.511
78283SOL     OW36680   2.436  10.041   4.770
78283SOL    HW136681   2.371  10.018   4.704
78283SOL    HW236682   2.498   9.967   4.770
78284SOL     OW36683  11.794   8.723   4.410
78284SOL    HW136684  11.766   8.793   4.350
78284SOL    HW236685  11.729   8.654   4.398
78285SOL     OW36686   5.109  10.670   8.391
78285SOL    HW136687   5.147  10.751   8.359
78285SOL    HW236688   5.025  10.662   8.346
78286SOL     OW36689  11.225  12.447   4.110
78286SOL    HW136690  11.294  12.512   4.102
78286SOL    HW236691  11.247  12.381   4.044
78287SOL     OW36692  12.553   8.651   5.185
78287SOL    HW136693  12.466   8.654   5.145
78287SOL    HW236694  12.614   8.651   5.111
78288SOL     OW36695  11.924   4.041   7.024
78288SOL    HW136696  11.960   4.011   6.940
78288SOL    HW236697  11.999   4.080   7.069
78289SOL     OW36698  12.987   6.559   4.530
78289SOL    HW136699  13.076   6.562   4.495
78289SOL    HW236700  12.943   6.635   4.493
78290SOL     OW36701  10.770   7.634  14.349
78290SOL    HW136702  10.855   7.609  14.314
78290SOL    HW236703  10.784   7.720  14.388
78291SOL     OW36704   1.908  14.275   5.416
78291SOL    HW136705   1.844  14.344   5.427
78291SOL    HW236706   1.856  14.195   5.403
78292SOL     OW36707  11.441   3.231   4.490
78292SOL    HW136708  11.472   3.141   4.500
78292SOL    HW236709  11.521   3.283   4.487
78293SOL     OW36710  11.585  12.940  10.876
78293SOL    HW136711  11.530  12.865  10.901
78293SOL    HW236712  11.637  12.908  10.803
78294SOL     OW36713   5.281   6.150   5.676
78294SOL    HW136714   5.303   6.098   5.753
78294SOL    HW236715   5.287   6.241   5.707
78295SOL     OW36716   4.792   1.104  13.610
78295SOL    HW136717   4.761   1.133  13.524
78295SOL    HW236718   4.730   1.036  13.637
78296SOL     OW36719  14.673   9.909   7.236
78296SOL    HW136720  14.594   9.946   7.276
78296SOL    HW236721  14.674   9.818   7.265
78297SOL     OW36722   2.324   5.348   7.570
78297SOL    HW136723   2.393   5.333   7.634
78297SOL    HW236724   2.254   5.287   7.595
78298SOL     OW36725   7.616   5.194   9.071
78298SOL    HW136726   7.648   5.155   9.152
78298SOL    HW236727   7.695   5.206   9.017
78299SOL     OW36728   0.792   2.590   3.131
78299SOL    HW136729   0.872   2.568   3.179
78299SOL    HW236730   0.813   2.673   3.089
78300SOL     OW36731  12.637  14.195   3.995
78300SOL    HW136732  12.605  14.245   4.070
78300SOL    HW236733  12.564  14.197   3.932
78301SOL     OW36734   0.493   8.391   8.861
78301SOL    HW136735   0.573   8.338   8.853
78301SOL    HW236736   0.483   8.433   8.777
78302SOL     OW36737   9.024   0.609   1.719
78302SOL    HW136738   8.955   0.581   1.659
78302SOL    HW236739   9.019   0.705   1.717
78303SOL     OW36740   9.443   5.681  14.504
78303SOL    HW136741   9.426   5.671  14.598
78303SOL    HW236742   9.538   5.669  14.496
78304SOL     OW36743   4.334  11.361  14.793
78304SOL    HW136744   4.279  11.439  14.807
78304SOL    HW236745   4.300  11.322  14.713
78305SOL     OW36746   5.968   3.035  13.837
78305SOL    HW136747   5.894   3.006  13.784
78305SOL    HW236748   6.020   2.957  13.851
78306SOL     OW36749   8.007  10.329   7.266
78306SOL    HW136750   7.965  10.409   7.298
78306SOL    HW236751   8.099  10.351   7.258
78307SOL     OW36752   4.932   5.316   6.498
78307SOL    HW136753   5.020   5.310   6.536
78307SOL    HW236754   4.943   5.372   6.421
78308SOL     OW36755   7.941  11.181  11.808
78308SOL    HW136756   7.866  11.159  11.863
78308SOL    HW236757   8.017  11.154  11.860
78309SOL     OW36758   0.369   4.451  13.287
78309SOL    HW136759   0.398   4.529  13.240
78309SOL    HW236760   0.289   4.424  13.241
78310SOL     OW36761   2.215   8.582   1.186
78310SOL    HW136762   2.162   8.515   1.144
78310SOL    HW236763   2.245   8.637   1.114
78311SOL     OW36764   1.249   7.873   3.455
78311SOL    HW136765   1.201   7.939   3.404
78311SOL    HW236766   1.264   7.916   3.540
78312SOL     OW36767   5.680  10.827   5.011
78312SOL    HW136768   5.594  10.835   4.971
78312SOL    HW236769   5.668  10.762   5.081
78313SOL     OW36770   8.783   8.865   7.755
78313SOL    HW136771   8.720   8.862   7.684
78313SOL    HW236772   8.803   8.958   7.765
78314SOL     OW36773   7.960  12.007  13.116
78314SOL    HW136774   8.021  12.027  13.187
78314SOL    HW236775   8.012  11.961  13.051
78315SOL     OW36776  12.282   0.616   6.397
78315SOL    HW136777  12.289   0.554   6.324
78315SOL    HW236778  12.303   0.700   6.358
78316SOL     OW36779   9.985  12.302   9.732
78316SOL    HW136780  10.073  12.298   9.696
78316SOL    HW236781   9.927  12.308   9.656
78317SOL     OW36782   6.880   8.495   5.396
78317SOL    HW136783   6.903   8.415   5.443
78317SOL    HW236784   6.837   8.549   5.462
78318SOL     OW36785  14.067  11.739  13.510
78318SOL    HW136786  14.010  11.735  13.587
78318SOL    HW236787  14.119  11.818  13.523
78319SOL     OW36788  11.307   7.402   1.342
78319SOL    HW136789  11.330   7.372   1.254
78319SOL    HW236790  11.368   7.357   1.400
78320SOL     OW36791   7.990   2.196   1.766
78320SOL    HW136792   7.956   2.187   1.855
78320SOL    HW236793   8.082   2.172   1.772
78321SOL     OW36794  13.527   7.047   9.670
78321SOL    HW136795  13.458   6.996   9.712
78321SOL    HW236796  13.532   7.127   9.721
78322SOL     OW36797   7.742   8.623  14.101
78322SOL    HW136798   7.656   8.598  14.134
78322SOL    HW236799   7.748   8.717  14.121
78323SOL     OW36800  10.619   5.388   2.119
78323SOL    HW136801  10.677   5.321   2.155
78323SOL    HW236802  10.639   5.389   2.026
78324SOL     OW36803   6.374  12.987   8.942
78324SOL    HW136804   6.301  13.007   9.001
78324SOL    HW236805   6.332  12.951   8.864
78325SOL     OW36806   1.973  13.518  14.269
78325SOL    HW136807   2.056  13.561  14.250
78325SOL    HW236808   1.942  13.559  14.350
78326SOL     OW36809   8.239   5.802   6.792
78326SOL    HW136810   8.304   5.817   6.861
78326SOL    HW236811   8.250   5.877   6.732
78327SOL     OW36812   9.084   5.085   5.024
78327SOL    HW136813   9.062   5.008   5.077
78327SOL    HW236814   9.039   5.071   4.941
78328SOL     OW36815  13.874   3.420   8.972
78328SOL    HW136816  13.901   3.512   8.972
78328SOL    HW236817  13.781   3.423   8.950
78329SOL     OW36818   4.954  12.378  11.280
78329SOL    HW136819   4.877  12.426  11.310
78329SOL    HW236820   4.981  12.327  11.356
78330SOL     OW36821  13.978   3.005   3.563
78330SOL    HW136822  14.061   2.970   3.531
78330SOL    HW236823  13.969   3.089   3.519
78331SOL     OW36824   2.836  12.015  12.434
78331SOL    HW136825   2.748  12.012  12.397
78331SOL    HW236826   2.894  12.013  12.357
78332SOL     OW36827  10.300   6.798   0.687
78332SOL    HW136828  10.250   6.822   0.608
78332SOL    HW236829  10.247   6.731   0.730
78333SOL     OW36830   4.274  10.933   5.468
78333SOL    HW136831   4.212  11.000   5.497
78333SOL    HW236832   4.247  10.854   5.515
78334SOL     OW36833  14.284  12.032  11.486
78334SOL    HW136834  14.372  12.052  11.455
78334SOL    HW236835  14.272  12.088  11.562
78335SOL     OW36836   3.078  10.230  12.725
78335SOL    HW136837   3.005  10.177  12.691
78335SOL    HW236838   3.143  10.228  12.654
78336SOL     OW36839  11.944   4.164   2.656
78336SOL    HW136840  12.036   4.173   2.633
78336SOL    HW236841  11.940   4.090   2.716
78337SOL     OW36842   2.816   1.455   7.597
78337SOL    HW136843   2.852   1.366   7.606
78337SOL    HW236844   2.892   1.512   7.609
78338SOL     OW36845   4.955   4.629   5.679
78338SOL    HW136846   5.005   4.577   5.616
78338SOL    HW236847   4.865   4.626   5.647
78339SOL     OW36848  13.162   9.956   0.596
78339SOL    HW136849  13.088  10.016   0.608
78339SOL    HW236850  13.240  10.009   0.613
78340SOL     OW36851   8.905   8.792   2.758
78340SOL    HW136852   8.907   8.729   2.685
78340SOL    HW236853   8.996   8.800   2.786
78341SOL     OW36854   1.003   8.566  10.910
78341SOL    HW136855   1.081   8.538  10.958
78341SOL    HW236856   0.936   8.502  10.934
78342SOL     OW36857   0.278   7.868  10.985
78342SOL    HW136858   0.252   7.806  10.917
78342SOL    HW236859   0.278   7.817  11.066
78343SOL     OW36860   2.834  12.606   1.574
78343SOL    HW136861   2.880  12.589   1.492
78343SOL    HW236862   2.767  12.539   1.579
78344SOL     OW36863   5.270  14.250  11.523
78344SOL    HW136864   5.306  14.195  11.592
78344SOL    HW236865   5.314  14.221  11.443
78345SOL     OW36866   7.751  10.335   0.110
78345SOL    HW136867   7.833  10.382   0.122
78345SOL    HW236868   7.763  10.253   0.158
78346SOL     OW36869   2.254  10.094   7.029
78346SOL    HW136870   2.300  10.142   7.098
78346SOL    HW236871   2.285  10.004   7.037
78347SOL     OW36872   3.985   7.444   0.695
78347SOL    HW136873   3.962   7.442   0.787
78347SOL    HW236874   3.902   7.461   0.650
78348SOL     OW36875  14.709   4.831   5.719
78348SOL    HW136876  14.711   4.738   5.697
78348SOL    HW236877  14.650   4.837   5.795
78349SOL     OW36878   9.757  12.173  11.560
78349SOL    HW136879   9.811  12.113  11.612
78349SOL    HW236880   9.698  12.214  11.623
78350SOL     OW36881   6.375   4.200   5.587
78350SOL    HW136882   6.384   4.285   5.631
78350SOL    HW236883   6.396   4.136   5.656
78351SOL     OW36884   3.738  12.456   6.264
78351SOL    HW136885   3.643  12.454   6.256
78351SOL    HW236886   3.770  12.478   6.176
78352SOL     OW36887   0.190   9.291   5.322
78352SOL    HW136888   0.172   9.323   5.234
78352SOL    HW236889   0.107   9.254   5.352
78353SOL     OW36890  10.890  11.298   8.899
78353SOL    HW136891  10.900  11.360   8.827
78353SOL    HW236892  10.976  11.256   8.906
78354SOL     OW36893  10.645   6.159   2.223
78354SOL    HW136894  10.622   6.076   2.180
78354SOL    HW236895  10.608   6.150   2.311
78355SOL     OW36896   1.950   4.478   7.871
78355SOL    HW136897   1.903   4.432   7.802
78355SOL    HW236898   1.993   4.409   7.921
78356SOL     OW36899   5.081   8.585   1.469
78356SOL    HW136900   5.121   8.644   1.533
78356SOL    HW236901   5.144   8.513   1.460
78357SOL     OW36902  14.720   1.536   6.348
78357SOL    HW136903  14.639   1.586   6.361
78357SOL    HW236904  14.783   1.600   6.316
78358SOL     OW36905   8.824   0.176  10.889
78358SOL    HW136906   8.869   0.208  10.967
78358SOL    HW236907   8.731   0.194  10.906
78359SOL     OW36908   2.633   7.484  11.333
78359SOL    HW136909   2.628   7.454  11.423
78359SOL    HW236910   2.722   7.463  11.305
78360SOL     OW36911   9.058   2.976   6.002
78360SOL    HW136912   9.095   2.960   5.915
78360SOL    HW236913   9.125   3.028   6.047
78361SOL     OW36914   0.242   4.599   5.823
78361SOL    HW136915   0.207   4.538   5.759
78361SOL    HW236916   0.168   4.619   5.880
78362SOL     OW36917  12.638   4.868   8.815
78362SOL    HW136918  12.612   4.939   8.757
78362SOL    HW236919  12.629   4.789   8.762
78363SOL     OW36920  13.084   1.161   2.336
78363SOL    HW136921  13.040   1.105   2.272
78363SOL    HW236922  13.157   1.200   2.289
78364SOL     OW36923   3.390   8.416   2.899
78364SOL    HW136924   3.448   8.340   2.900
78364SOL    HW236925   3.303   8.380   2.883
78365SOL     OW36926   2.685  12.716   4.675
78365SOL    HW136927   2.628  12.654   4.629
78365SOL    HW236928   2.774  12.692   4.646
78366SOL     OW36929   4.342   8.332   2.113
78366SOL    HW136930   4.432   8.343   2.083
78366SOL    HW236931   4.322   8.240   2.096
78367SOL     OW36932   9.613   0.086   5.773
78367SOL    HW136933   9.693   0.064   5.821
78367SOL    HW236934   9.582   0.167   5.812
78368SOL     OW36935  14.696   1.532  12.702
78368SOL    HW136936  14.792   1.530  12.706
78368SOL    HW236937  14.677   1.530  12.608
78369SOL     OW36938   6.905   8.399   8.144
78369SOL    HW136939   6.949   8.367   8.223
78369SOL    HW236940   6.812   8.390   8.164
78370SOL     OW36941   0.360   1.535   0.737
78370SOL    HW136942   0.351   1.624   0.771
78370SOL    HW236943   0.382   1.482   0.814
78371SOL     OW36944  10.771   0.885   4.584
78371SOL    HW136945  10.866   0.884   4.579
78371SOL    HW236946  10.750   0.848   4.670
78372SOL     OW36947   7.504   4.088   4.059
78372SOL    HW136948   7.538   4.014   4.008
78372SOL    HW236949   7.579   4.123   4.105
78373SOL     OW36950  14.642   1.886   1.999
78373SOL    HW136951  14.555   1.911   1.968
78373SOL    HW236952  14.642   1.910   2.092
78374SOL     OW36953  12.722   6.192   8.311
78374SOL    HW136954  12.714   6.154   8.223
78374SOL    HW236955  12.710   6.118   8.370
78375SOL     OW36956   2.912  12.947   2.689
78375SOL    HW136957   2.828  12.935   2.733
78375SOL    HW236958   2.932  13.040   2.699
78376SOL     OW36959   5.374   6.329   3.404
78376SOL    HW136960   5.398   6.393   3.338
78376SOL    HW236961   5.283   6.307   3.384
78377SOL     OW36962   6.099   9.322   3.420
78377SOL    HW136963   6.069   9.323   3.510
78377SOL    HW236964   6.193   9.339   3.426
78378SOL     OW36965   9.292   2.444   1.085
78378SOL    HW136966   9.260   2.359   1.113
78378SOL    HW236967   9.381   2.450   1.121
78379SOL     OW36968  13.819   4.839   2.643
78379SOL    HW136969  13.728   4.831   2.672
78379SOL    HW236970  13.864   4.764   2.680
78380SOL     OW36971   3.550  10.028  10.170
78380SOL    HW136972   3.564   9.976  10.090
78380SOL    HW236973   3.586   9.973  10.240
78381SOL     OW36974   4.352   2.933   9.001
78381SOL    HW136975   4.355   3.022   9.038
78381SOL    HW236976   4.443   2.903   9.007
78382SOL     OW36977   3.868  10.211   4.142
78382SOL    HW136978   3.786  10.226   4.189
78382SOL    HW236979   3.922  10.288   4.162
78383SOL     OW36980   5.223   1.743   6.869
78383SOL    HW136981   5.303   1.704   6.904
78383SOL    HW236982   5.169   1.668   6.843
78384SOL     OW36983   0.450   3.195   6.978
78384SOL    HW136984   0.459   3.238   7.063
78384SOL    HW236985   0.476   3.104   6.993
78385SOL     OW36986   9.459   5.923   0.087
78385SOL    HW136987   9.382   5.896   0.136
78385SOL    HW236988   9.511   5.843   0.079
78386SOL     OW36989  11.835   9.234   1.360
78386SOL    HW136990  11.755   9.198   1.321
78386SOL    HW236991  11.816   9.241   1.453
78387SOL     OW36992   0.362   7.689   6.452
78387SOL    HW136993   0.302   7.616   6.466
78387SOL    HW236994   0.392   7.713   6.540
78388SOL     OW36995   3.033   3.262  10.957
78388SOL    HW136996   2.944   3.286  10.984
78388SOL    HW236997   3.083   3.342  10.966
78389SOL     OW36998   4.018   5.416  11.236
78389SOL    HW136999   3.966   5.415  11.156
78389SOL    HW237000   4.108   5.403  11.207
78390SOL     OW37001  12.702   2.067   6.613
78390SOL    HW137002  12.607   2.061   6.602
78390SOL    HW237003  12.736   2.076   6.524
78391SOL     OW37004  13.436  12.440  14.320
78391SOL    HW137005  13.516  12.471  14.361
78391SOL    HW237006  13.464  12.404  14.236
78392SOL     OW37007   8.854   0.282  10.629
78392SOL    HW137008   8.935   0.331  10.637
78392SOL    HW237009   8.839   0.247  10.717
78393SOL     OW37010   3.908   5.191   1.594
78393SOL    HW137011   3.976   5.243   1.550
78393SOL    HW237012   3.956   5.131   1.650
78394SOL     OW37013   1.938  10.394  10.126
78394SOL    HW137014   1.861  10.441  10.095
78394SOL    HW237015   1.922  10.381  10.220
78395SOL     OW37016   4.698   0.764   6.543
78395SOL    HW137017   4.666   0.774   6.632
78395SOL    HW237018   4.700   0.669   6.529
78396SOL     OW37019  14.462   5.115  11.102
78396SOL    HW137020  14.558   5.111  11.097
78396SOL    HW237021  14.444   5.145  11.191
78397SOL     OW37022  12.120   4.116   3.821
78397SOL    HW137023  12.119   4.058   3.897
78397SOL    HW237024  12.151   4.061   3.749
78398SOL     OW37025   4.107   5.448   9.847
78398SOL    HW137026   4.086   5.478   9.935
78398SOL    HW237027   4.102   5.527   9.793
78399SOL     OW37028   4.690   1.714  11.994
78399SOL    HW137029   4.694   1.696  11.900
78399SOL    HW237030   4.713   1.631  12.036
78400SOL     OW37031  14.792   5.836  11.114
78400SOL    HW137032  14.702   5.809  11.098
78400SOL    HW237033  14.795   5.928  11.089
78401SOL     OW37034   4.565  11.116  14.020
78401SOL    HW137035   4.622  11.050  14.059
78401SOL    HW237036   4.615  11.151  13.946
78402SOL     OW37037   2.218   2.949   0.014
78402SOL    HW137038   2.266   2.983  14.815
78402SOL    HW237039   2.159   3.021   0.039
78403SOL     OW37040  11.113   8.261   5.484
78403SOL    HW137041  11.069   8.345   5.466
78403SOL    HW237042  11.111   8.214   5.401
78404SOL     OW37043  11.875  12.313   0.144
78404SOL    HW137044  11.802  12.311   0.082
78404SOL    HW237045  11.888  12.221   0.168
78405SOL     OW37046   9.157  13.496  14.082
78405SOL    HW137047   9.239  13.482  14.035
78405SOL    HW237048   9.150  13.421  14.140
78406SOL     OW37049   1.689   2.860  12.580
78406SOL    HW137050   1.671   2.892  12.669
78406SOL    HW237051   1.603   2.848  12.541
78407SOL     OW37052   5.680   0.108   3.813
78407SOL    HW137053   5.639   0.087   3.729
78407SOL    HW237054   5.667   0.202   3.823
78408SOL     OW37055   4.169   0.687   3.770
78408SOL    HW137056   4.221   0.624   3.721
78408SOL    HW237057   4.209   0.688   3.857
78409SOL     OW37058   2.230   1.389   6.822
78409SOL    HW137059   2.312   1.410   6.777
78409SOL    HW237060   2.196   1.474   6.850
78410SOL     OW37061   7.229   1.138   9.012
78410SOL    HW137062   7.148   1.175   9.047
78410SOL    HW237063   7.233   1.171   8.923
78411SOL     OW37064   4.690   7.396   2.201
78411SOL    HW137065   4.752   7.340   2.248
78411SOL    HW237066   4.638   7.437   2.269
78412SOL     OW37067   1.111  11.327  14.575
78412SOL    HW137068   1.075  11.241  14.554
78412SOL    HW237069   1.205  11.319  14.558
78413SOL     OW37070   3.149  14.331   6.119
78413SOL    HW137071   3.115  14.253   6.075
78413SOL    HW237072   3.226  14.299   6.167
78414SOL     OW37073   9.164   4.966   3.020
78414SOL    HW137074   9.136   5.057   3.005
78414SOL    HW237075   9.151   4.923   2.936
78415SOL     OW37076   3.565  14.133   9.280
78415SOL    HW137077   3.502  14.119   9.351
78415SOL    HW237078   3.582  14.227   9.282
78416SOL     OW37079   9.023   5.953  11.278
78416SOL    HW137080   8.952   6.018  11.275
78416SOL    HW237081   9.011   5.908  11.362
78417SOL     OW37082   3.886   8.619   8.706
78417SOL    HW137083   3.962   8.573   8.742
78417SOL    HW237084   3.913   8.711   8.703
78418SOL     OW37085   7.139   0.360  10.110
78418SOL    HW137086   7.102   0.442  10.076
78418SOL    HW237087   7.135   0.299  10.036
78419SOL     OW37088  10.923  11.739   3.896
78419SOL    HW137089  10.942  11.797   3.822
78419SOL    HW237090  11.005  11.691   3.909
78420SOL     OW37091   3.245   3.080   3.115
78420SOL    HW137092   3.259   2.989   3.141
78420SOL    HW237093   3.322   3.102   3.062
78421SOL     OW37094   7.691   7.647   7.040
78421SOL    HW137095   7.618   7.708   7.031
78421SOL    HW237096   7.767   7.703   7.056
78422SOL     OW37097  14.209   3.468   5.378
78422SOL    HW137098  14.127   3.510   5.355
78422SOL    HW237099  14.275   3.537   5.374
78423SOL     OW37100  11.606   3.633   2.471
78423SOL    HW137101  11.678   3.596   2.523
78423SOL    HW237102  11.639   3.718   2.442
78424SOL     OW37103   6.376   4.248   3.595
78424SOL    HW137104   6.419   4.165   3.615
78424SOL    HW237105   6.446   4.302   3.560
78425SOL     OW37106  10.092  11.640   2.113
78425SOL    HW137107  10.032  11.576   2.151
78425SOL    HW237108  10.130  11.595   2.037
78426SOL     OW37109   6.907  12.127   8.526
78426SOL    HW137110   6.929  12.045   8.481
78426SOL    HW237111   6.858  12.177   8.461
78427SOL     OW37112  14.252   5.370  13.068
78427SOL    HW137113  14.344   5.374  13.044
78427SOL    HW237114  14.237   5.450  13.118
78428SOL     OW37115   6.566  10.111   0.431
78428SOL    HW137116   6.517  10.156   0.500
78428SOL    HW237117   6.608  10.037   0.476
78429SOL     OW37118   7.265  14.640  13.895
78429SOL    HW137119   7.310  14.606  13.817
78429SOL    HW237120   7.179  14.599  13.892
78430SOL     OW37121   2.267  10.993   6.247
78430SOL    HW137122   2.298  11.016   6.335
78430SOL    HW237123   2.235  10.903   6.256
78431SOL     OW37124   5.471   9.565  13.854
78431SOL    HW137125   5.420   9.484  13.867
78431SOL    HW237126   5.412   9.621  13.803
78432SOL     OW37127   9.466   9.538   8.477
78432SOL    HW137128   9.420   9.517   8.559
78432SOL    HW237129   9.557   9.512   8.494
78433SOL     OW37130   2.522  13.932  14.100
78433SOL    HW137131   2.507  14.005  14.159
78433SOL    HW237132   2.517  13.854  14.155
78434SOL     OW37133   2.093  12.928  11.659
78434SOL    HW137134   2.139  12.886  11.731
78434SOL    HW237135   2.002  12.898  11.666
78435SOL     OW37136   8.125  12.112   6.979
78435SOL    HW137137   8.030  12.110   6.966
78435SOL    HW237138   8.145  12.203   6.999
78436SOL     OW37139   4.342  10.447  12.253
78436SOL    HW137140   4.388  10.415  12.331
78436SOL    HW237141   4.318  10.537  12.275
78437SOL     OW37142   1.679   1.697  10.979
78437SOL    HW137143   1.646   1.634  11.043
78437SOL    HW237144   1.620   1.688  10.904
78438SOL     OW37145   9.526   6.287  13.020
78438SOL    HW137146   9.581   6.284  12.942
78438SOL    HW237147   9.583   6.326  13.087
78439SOL     OW37148  10.964  13.455   6.971
78439SOL    HW137149  10.927  13.373   6.939
78439SOL    HW237150  11.030  13.428   7.035
78440SOL     OW37151   3.063   7.337   1.822
78440SOL    HW137152   3.101   7.250   1.829
78440SOL    HW237153   3.060   7.369   1.913
78441SOL     OW37154   5.143   4.563   8.122
78441SOL    HW137155   5.210   4.592   8.061
78441SOL    HW237156   5.083   4.638   8.128
78442SOL     OW37157   6.023   1.072   7.987
78442SOL    HW137158   6.102   1.105   7.944
78442SOL    HW237159   6.056   1.022   8.062
78443SOL     OW37160   7.891   2.232  13.284
78443SOL    HW137161   7.966   2.176  13.266
78443SOL    HW237162   7.819   2.172  13.299
78444SOL     OW37163   6.740  14.875   0.113
78444SOL    HW137164   6.673   0.066   0.125
78444SOL    HW237165   6.786   0.025   0.033
78445SOL     OW37166   7.781   8.029   3.288
78445SOL    HW137167   7.703   8.000   3.335
78445SOL    HW237168   7.814   7.949   3.245
78446SOL     OW37169   0.007  10.378   6.156
78446SOL    HW137170   0.018  10.283   6.166
78446SOL    HW237171   0.092  10.415   6.178
78447SOL     OW37172  14.764   3.817  11.393
78447SOL    HW137173  14.694   3.821  11.458
78447SOL    HW237174  14.722   3.838  11.310
78448SOL     OW37175   9.015  11.366  13.840
78448SOL    HW137176   9.047  11.443  13.793
78448SOL    HW237177   9.022  11.391  13.933
78449SOL     OW37178   3.223  11.437  12.635
78449SOL    HW137179   3.180  11.522  12.633
78449SOL    HW237180   3.315  11.455  12.619
78450SOL     OW37181   9.933  14.734  11.232
78450SOL    HW137182  10.011  14.751  11.285
78450SOL    HW237183   9.860  14.764  11.286
78451SOL     OW37184   1.319   4.587   7.998
78451SOL    HW137185   1.234   4.625   7.977
78451SOL    HW237186   1.299   4.518   8.061
78452SOL     OW37187  11.179   0.797   1.570
78452SOL    HW137188  11.191   0.766   1.660
78452SOL    HW237189  11.087   0.821   1.565
78453SOL     OW37190  13.531  13.035  14.756
78453SOL    HW137191  13.540  13.026  14.851
78453SOL    HW237192  13.621  13.049  14.725
78454SOL     OW37193  11.694   1.480   0.879
78454SOL    HW137194  11.733   1.406   0.927
78454SOL    HW237195  11.759   1.501   0.812
78455SOL     OW37196  11.253  12.563  11.074
78455SOL    HW137197  11.224  12.476  11.101
78455SOL    HW237198  11.313  12.592  11.144
78456SOL     OW37199   9.146   6.458   6.110
78456SOL    HW137200   9.139   6.368   6.078
78456SOL    HW237201   9.209   6.499   6.051
78457SOL     OW37202   8.132  10.947   0.027
78457SOL    HW137203   8.211  10.908  14.866
78457SOL    HW237204   8.072  10.873   0.039
78458SOL     OW37205   2.501  12.286  12.521
78458SOL    HW137206   2.582  12.335  12.507
78458SOL    HW237207   2.499  12.270  12.615
78459SOL     OW37208   4.633   3.470   0.661
78459SOL    HW137209   4.686   3.503   0.589
78459SOL    HW237210   4.694   3.421   0.715
78460SOL     OW37211  14.334   5.310  14.684
78460SOL    HW137212  14.305   5.400  14.669
78460SOL    HW237213  14.425   5.309  14.655
78461SOL     OW37214   7.874   7.687   3.854
78461SOL    HW137215   7.915   7.770   3.879
78461SOL    HW237216   7.917   7.621   3.909
78462SOL     OW37217   5.877   2.680  12.514
78462SOL    HW137218   5.864   2.692  12.420
78462SOL    HW237219   5.794   2.643  12.545
78463SOL     OW37220  10.931   2.251   7.249
78463SOL    HW137221  10.862   2.207   7.198
78463SOL    HW237222  10.907   2.344   7.245
78464SOL     OW37223  12.363   6.507  10.790
78464SOL    HW137224  12.273   6.510  10.822
78464SOL    HW237225  12.414   6.469  10.861
78465SOL     OW37226  12.051   9.673   4.508
78465SOL    HW137227  11.988   9.668   4.579
78465SOL    HW237228  12.047   9.764   4.478
78466SOL     OW37229  10.339  12.676   3.343
78466SOL    HW137230  10.246  12.668   3.366
78466SOL    HW237231  10.342  12.748   3.280
78467SOL     OW37232   5.595   6.289  11.548
78467SOL    HW137233   5.624   6.374  11.517
78467SOL    HW237234   5.551   6.250  11.472
78468SOL     OW37235  10.051  10.992   0.397
78468SOL    HW137236  10.042  10.912   0.449
78468SOL    HW237237  10.121  11.042   0.440
78469SOL     OW37238   3.540   8.636   7.528
78469SOL    HW137239   3.624   8.596   7.506
78469SOL    HW237240   3.530   8.620   7.622
78470SOL     OW37241   9.415   1.099   7.386
78470SOL    HW137242   9.339   1.069   7.436
78470SOL    HW237243   9.490   1.082   7.444
78471SOL     OW37244   7.968  14.536  10.416
78471SOL    HW137245   7.950  14.513  10.325
78471SOL    HW237246   7.978  14.631  10.415
78472SOL     OW37247   5.620  12.308  12.066
78472SOL    HW137248   5.643  12.299  11.973
78472SOL    HW237249   5.637  12.401  12.085
78473SOL     OW37250  13.172   8.381  14.728
78473SOL    HW137251  13.208   8.438  14.660
78473SOL    HW237252  13.208   8.416  14.810
78474SOL     OW37253  10.209   7.286   3.456
78474SOL    HW137254  10.130   7.305   3.506
78474SOL    HW237255  10.184   7.306   3.365
78475SOL     OW37256   1.620  13.434   2.749
78475SOL    HW137257   1.663  13.395   2.826
78475SOL    HW237258   1.691  13.469   2.697
78476SOL     OW37259   9.714  12.973   8.788
78476SOL    HW137260   9.777  12.917   8.742
78476SOL    HW237261   9.765  13.048   8.817
78477SOL     OW37262   0.923   7.923   4.677
78477SOL    HW137263   0.858   7.991   4.660
78477SOL    HW237264   0.932   7.922   4.772
78478SOL     OW37265  10.507   9.219   0.549
78478SOL    HW137266  10.548   9.287   0.602
78478SOL    HW237267  10.553   9.139   0.573
78479SOL     OW37268   5.951  13.057  14.038
78479SOL    HW137269   6.035  13.104  14.033
78479SOL    HW237270   5.890  13.112  13.988
78480SOL     OW37271  12.649   7.673  12.612
78480SOL    HW137272  12.606   7.737  12.669
78480SOL    HW237273  12.622   7.698  12.524
78481SOL     OW37274   6.221   2.231   8.406
78481SOL    HW137275   6.242   2.324   8.400
78481SOL    HW237276   6.179   2.221   8.492
78482SOL     OW37277  13.138   3.112  12.582
78482SOL    HW137278  13.121   3.077  12.495
78482SOL    HW237279  13.064   3.080  12.635
78483SOL     OW37280  11.198   0.269   9.183
78483SOL    HW137281  11.286   0.304   9.197
78483SOL    HW237282  11.177   0.294   9.093
78484SOL     OW37283   2.771   4.998   2.839
78484SOL    HW137284   2.753   4.982   2.932
78484SOL    HW237285   2.732   5.084   2.822
78485SOL     OW37286   9.911  14.083  13.984
78485SOL    HW137287   9.853  14.057  14.056
78485SOL    HW237288   9.980  14.017  13.983
78486SOL     OW37289   3.908   5.956   8.847
78486SOL    HW137290   3.895   6.040   8.802
78486SOL    HW237291   4.002   5.947   8.854
78487SOL     OW37292   1.076   7.144   2.768
78487SOL    HW137293   1.068   7.176   2.858
78487SOL    HW237294   1.053   7.052   2.773
78488SOL     OW37295  13.583  13.510   7.250
78488SOL    HW137296  13.668  13.475   7.275
78488SOL    HW237297  13.532  13.433   7.223
78489SOL     OW37298   2.698   8.209   0.827
78489SOL    HW137299   2.748   8.201   0.908
78489SOL    HW237300   2.712   8.299   0.798
78490SOL     OW37301   6.197   7.105   7.996
78490SOL    HW137302   6.266   7.044   7.970
78490SOL    HW237303   6.243   7.178   8.037
78491SOL     OW37304   0.013   8.337   1.332
78491SOL    HW137305  14.807   8.286   1.334
78491SOL    HW237306   0.078   8.280   1.372
78492SOL     OW37307   2.999  13.305  12.415
78492SOL    HW137308   2.977  13.261  12.498
78492SOL    HW237309   3.014  13.234  12.353
78493SOL     OW37310   0.964  10.066   4.687
78493SOL    HW137311   0.869  10.060   4.679
78493SOL    HW237312   0.994   9.976   4.672
78494SOL     OW37313   4.767   0.994  11.536
78494SOL    HW137314   4.790   1.005  11.444
78494SOL    HW237315   4.818   0.918  11.565
78495SOL     OW37316   5.006   9.001   0.621
78495SOL    HW137317   4.953   8.968   0.694
78495SOL    HW237318   5.069   8.932   0.604
78496SOL     OW37319   0.903   2.928   3.580
78496SOL    HW137320   0.966   2.998   3.599
78496SOL    HW237321   0.956   2.849   3.574
78497SOL     OW37322  12.430  12.582   7.060
78497SOL    HW137323  12.397  12.585   6.970
78497SOL    HW237324  12.507  12.525   7.056
78498SOL     OW37325   4.932  11.321   6.375
78498SOL    HW137326   4.856  11.337   6.430
78498SOL    HW237327   4.946  11.404   6.328
78499SOL     OW37328   3.135  11.159   5.085
78499SOL    HW137329   3.088  11.227   5.134
78499SOL    HW237330   3.097  11.077   5.115
78500SOL     OW37331   7.834   7.549   1.403
78500SOL    HW137332   7.763   7.545   1.338
78500SOL    HW237333   7.789   7.547   1.487
78501SOL     OW37334  11.579   5.157  13.665
78501SOL    HW137335  11.650   5.162  13.600
78501SOL    HW237336  11.595   5.075  13.712
78502SOL     OW37337   9.889  11.128   3.991
78502SOL    HW137338   9.843  11.212   3.997
78502SOL    HW237339   9.894  11.110   3.897
78503SOL     OW37340   8.276   4.787   6.125
78503SOL    HW137341   8.347   4.769   6.064
78503SOL    HW237342   8.197   4.792   6.071
78504SOL     OW37343  10.768   2.280  14.315
78504SOL    HW137344  10.764   2.199  14.266
78504SOL    HW237345  10.717   2.263  14.394
78505SOL     OW37346   1.255  12.470  13.610
78505SOL    HW137347   1.246  12.426  13.525
78505SOL    HW237348   1.339  12.439  13.644
78506SOL     OW37349   5.886   1.265   3.019
78506SOL    HW137350   5.859   1.326   3.087
78506SOL    HW237351   5.925   1.191   3.067
78507SOL     OW37352   3.418  11.080   6.544
78507SOL    HW137353   3.361  11.083   6.621
78507SOL    HW237354   3.491  11.024   6.570
78508SOL     OW37355   0.413  10.779   8.792
78508SOL    HW137356   0.349  10.820   8.733
78508SOL    HW237357   0.432  10.695   8.750
78509SOL     OW37358   6.186   3.130   0.816
78509SOL    HW137359   6.227   3.114   0.731
78509SOL    HW237360   6.234   3.075   0.877
78510SOL     OW37361   7.685   7.772   6.484
78510SOL    HW137362   7.679   7.814   6.570
78510SOL    HW237363   7.730   7.690   6.500
78511SOL     OW37364   1.373  12.358   1.353
78511SOL    HW137365   1.334  12.445   1.347
78511SOL    HW237366   1.298  12.299   1.355
78512SOL     OW37367   8.639   3.347   0.497
78512SOL    HW137368   8.600   3.268   0.460
78512SOL    HW237369   8.588   3.365   0.575
78513SOL     OW37370   9.497   9.352   4.758
78513SOL    HW137371   9.584   9.347   4.797
78513SOL    HW237372   9.440   9.306   4.820
78514SOL     OW37373  13.914  11.282   3.272
78514SOL    HW137374  13.840  11.341   3.258
78514SOL    HW237375  13.937  11.251   3.184
78515SOL     OW37376  10.145   9.899  14.602
78515SOL    HW137377  10.091   9.974  14.578
78515SOL    HW237378  10.090   9.848  14.662
78516SOL     OW37379   4.710   8.671  12.516
78516SOL    HW137380   4.796   8.640  12.488
78516SOL    HW237381   4.711   8.765  12.497
78517SOL     OW37382   0.849  14.277   7.567
78517SOL    HW137383   0.910  14.204   7.555
78517SOL    HW237384   0.894  14.337   7.626
78518SOL     OW37385   5.169   5.969   9.672
78518SOL    HW137386   5.233   6.025   9.629
78518SOL    HW237387   5.106   6.031   9.711
78519SOL     OW37388   4.912   6.032   2.395
78519SOL    HW137389   4.973   5.960   2.410
78519SOL    HW237390   4.833   6.007   2.444
78520SOL     OW37391   7.830  11.064   2.065
78520SOL    HW137392   7.739  11.082   2.090
78520SOL    HW237393   7.876  11.057   2.149
78521SOL     OW37394  13.330   4.049  10.125
78521SOL    HW137395  13.388   4.093  10.063
78521SOL    HW237396  13.347   4.093  10.209
78522SOL     OW37397   6.685  11.332   2.332
78522SOL    HW137398   6.647  11.369   2.253
78522SOL    HW237399   6.652  11.387   2.403
78523SOL     OW37400   2.546   6.623   7.327
78523SOL    HW137401   2.604   6.561   7.283
78523SOL    HW237402   2.590   6.707   7.320
78524SOL     OW37403   8.491   9.703   8.838
78524SOL    HW137404   8.437   9.717   8.760
78524SOL    HW237405   8.428   9.690   8.909
78525SOL     OW37406   9.814   7.519   2.451
78525SOL    HW137407   9.748   7.500   2.518
78525SOL    HW237408   9.844   7.433   2.422
78526SOL     OW37409   6.867   8.177  14.113
78526SOL    HW137410   6.810   8.113  14.157
78526SOL    HW237411   6.848   8.166  14.020
78527SOL     OW37412  14.621  13.058   7.078
78527SOL    HW137413  14.608  13.016   6.993
78527SOL    HW237414  14.533  13.089   7.103
78528SOL     OW37415   1.391   7.172   6.417
78528SOL    HW137416   1.473   7.221   6.427
78528SOL    HW237417   1.414   7.082   6.440
78529SOL     OW37418  12.860   1.210  13.369
78529SOL    HW137419  12.770   1.177  13.370
78529SOL    HW237420  12.863   1.272  13.441
78530SOL     OW37421   4.449  13.469   7.137
78530SOL    HW137422   4.440  13.377   7.164
78530SOL    HW237423   4.370  13.486   7.085
78531SOL     OW37424   6.057   3.471   6.097
78531SOL    HW137425   6.003   3.407   6.050
78531SOL    HW237426   5.998   3.511   6.160
78532SOL     OW37427   2.479   4.884   3.505
78532SOL    HW137428   2.567   4.919   3.496
78532SOL    HW237429   2.422   4.953   3.472
78533SOL     OW37430   1.472  14.570  10.341
78533SOL    HW137431   1.520  14.650  10.322
78533SOL    HW237432   1.455  14.531  10.256
78534SOL     OW37433   9.817  10.948   3.374
78534SOL    HW137434   9.896  10.948   3.320
78534SOL    HW237435   9.845  10.910   3.457
78535SOL     OW37436   1.629  10.702  10.259
78535SOL    HW137437   1.627  10.788  10.301
78535SOL    HW237438   1.582  10.645  10.320
78536SOL     OW37439   5.777  11.604   3.596
78536SOL    HW137440   5.775  11.645   3.683
78536SOL    HW237441   5.743  11.516   3.610
78537SOL     OW37442   5.739   8.984   3.464
78537SOL    HW137443   5.653   9.026   3.463
78537SOL    HW237444   5.784   9.020   3.387
78538SOL     OW37445   1.986   3.796   8.589
78538SOL    HW137446   1.991   3.889   8.610
78538SOL    HW237447   1.906   3.787   8.538
78539SOL     OW37448   7.657   2.730  10.108
78539SOL    HW137449   7.616   2.817  10.106
78539SOL    HW237450   7.751   2.748  10.104
78540SOL     OW37451   4.851   3.669  13.244
78540SOL    HW137452   4.881   3.694  13.157
78540SOL    HW237453   4.850   3.751  13.293
78541SOL     OW37454   9.906  13.623  13.641
78541SOL    HW137455   9.959  13.588  13.569
78541SOL    HW237456   9.872  13.706  13.607
78542SOL     OW37457  10.071  10.208   9.971
78542SOL    HW137458   9.981  10.221  10.000
78542SOL    HW237459  10.107  10.297   9.963
78543SOL     OW37460   1.580   4.502  11.525
78543SOL    HW137461   1.592   4.412  11.493
78543SOL    HW237462   1.503   4.496  11.582
78544SOL     OW37463  11.891  12.532   2.867
78544SOL    HW137464  11.817  12.588   2.891
78544SOL    HW237465  11.951  12.540   2.941
78545SOL     OW37466  14.598  13.652   3.511
78545SOL    HW137467  14.608  13.591   3.584
78545SOL    HW237468  14.618  13.738   3.549
78546SOL     OW37469   3.694   6.277  10.913
78546SOL    HW137470   3.601   6.291  10.930
78546SOL    HW237471   3.725   6.227  10.988
78547SOL     OW37472   1.494   0.944   9.006
78547SOL    HW137473   1.578   0.948   9.052
78547SOL    HW237474   1.473   1.035   8.986
78548SOL     OW37475   8.483   8.860   7.219
78548SOL    HW137476   8.539   8.788   7.250
78548SOL    HW237477   8.523   8.939   7.255
78549SOL     OW37478   5.324  12.557   3.162
78549SOL    HW137479   5.369  12.640   3.149
78549SOL    HW237480   5.231  12.580   3.162
78550SOL     OW37481  14.608  12.387   9.231
78550SOL    HW137482  14.649  12.301   9.244
78550SOL    HW237483  14.649  12.420   9.151
78551SOL     OW37484  11.052   6.330  10.534
78551SOL    HW137485  11.135   6.348  10.490
78551SOL    HW237486  11.013   6.257  10.485
78552SOL     OW37487   5.569  10.074  11.858
78552SOL    HW137488   5.481  10.044  11.882
78552SOL    HW237489   5.583  10.039  11.770
78553SOL     OW37490   3.778  14.828   4.822
78553SOL    HW137491   3.715  14.770   4.780
78553SOL    HW237492   3.755   0.040   4.790
78554SOL     OW37493  14.832   3.464  10.354
78554SOL    HW137494  14.846   3.555  10.382
78554SOL    HW237495  14.836   3.413  10.435
78555SOL     OW37496  11.716   8.632   1.357
78555SOL    HW137497  11.720   8.725   1.377
78555SOL    HW237498  11.704   8.590   1.442
78556SOL     OW37499   0.733  12.185   6.001
78556SOL    HW137500   0.684  12.258   6.039
78556SOL    HW237501   0.704  12.108   6.049
78557SOL     OW37502   6.618   2.710  13.647
78557SOL    HW137503   6.614   2.642  13.714
78557SOL    HW237504   6.681   2.774  13.683
78558SOL     OW37505   1.796   6.124  10.209
78558SOL    HW137506   1.865   6.061  10.189
78558SOL    HW237507   1.714   6.078  10.189
78559SOL     OW37508   5.231   3.681   8.679
78559SOL    HW137509   5.231   3.597   8.726
78559SOL    HW237510   5.248   3.746   8.747
78560SOL     OW37511   4.762   3.474   3.941
78560SOL    HW137512   4.701   3.400   3.942
78560SOL    HW237513   4.846   3.437   3.967
78561SOL     OW37514   6.642   0.730  14.761
78561SOL    HW137515   6.689   0.801  14.716
78561SOL    HW237516   6.637   0.759  14.852
78562SOL     OW37517   6.819  14.112   4.830
78562SOL    HW137518   6.883  14.049   4.864
78562SOL    HW237519   6.854  14.137   4.744
78563SOL     OW37520   9.840  10.443   4.432
78563SOL    HW137521   9.763  10.419   4.484
78563SOL    HW237522   9.877  10.517   4.478
78564SOL     OW37523  11.123   1.269   7.824
78564SOL    HW137524  11.219   1.275   7.831
78564SOL    HW237525  11.094   1.360   7.819
78565SOL     OW37526   9.978   9.765  10.953
78565SOL    HW137527  10.014   9.677  10.965
78565SOL    HW237528   9.885   9.755  10.973
78566SOL     OW37529   7.194   7.437   5.427
78566SOL    HW137530   7.211   7.498   5.356
78566SOL    HW237531   7.124   7.380   5.394
78567SOL     OW37532   6.190   2.630   5.619
78567SOL    HW137533   6.226   2.703   5.568
78567SOL    HW237534   6.237   2.553   5.586
78568SOL     OW37535   9.639   1.957   0.387
78568SOL    HW137536   9.568   1.920   0.334
78568SOL    HW237537   9.595   2.011   0.452
78569SOL     OW37538   2.756   7.948  11.777
78569SOL    HW137539   2.835   7.992  11.808
78569SOL    HW237540   2.754   7.866  11.826
78570SOL     OW37541   1.729  14.146   2.955
78570SOL    HW137542   1.710  14.072   3.013
78570SOL    HW237543   1.670  14.215   2.986
78571SOL     OW37544   6.458   8.090  10.219
78571SOL    HW137545   6.373   8.072  10.259
78571SOL    HW237546   6.455   8.183  10.196
78572SOL     OW37547   4.664   0.682  12.203
78572SOL    HW137548   4.610   0.603  12.210
78572SOL    HW237549   4.703   0.692  12.290
78573SOL     OW37550  12.623   5.878   5.765
78573SOL    HW137551  12.680   5.900   5.691
78573SOL    HW237552  12.536   5.908   5.739
78574SOL     OW37553   6.693   3.667   8.688
78574SOL    HW137554   6.653   3.753   8.672
78574SOL    HW237555   6.729   3.673   8.776
78575SOL     OW37556   1.269   5.148   5.843
78575SOL    HW137557   1.354   5.104   5.837
78575SOL    HW237558   1.257   5.189   5.758
78576SOL     OW37559   0.671   8.912  11.228
78576SOL    HW137560   0.674   8.823  11.262
78576SOL    HW237561   0.659   8.902  11.134
78577SOL     OW37562  10.709   2.933   9.547
78577SOL    HW137563  10.701   2.840   9.525
78577SOL    HW237564  10.790   2.938   9.598
78578SOL     OW37565   6.620   8.196   3.272
78578SOL    HW137566   6.703   8.149   3.284
78578SOL    HW237567   6.577   8.190   3.357
78579SOL     OW37568   7.316   2.742   4.818
78579SOL    HW137569   7.264   2.661   4.822
78579SOL    HW237570   7.281   2.797   4.887
78580SOL     OW37571   6.314  12.065  14.253
78580SOL    HW137572   6.237  12.024  14.293
78580SOL    HW237573   6.285  12.089  14.165
78581SOL     OW37574   4.489   6.141   1.389
78581SOL    HW137575   4.467   6.197   1.315
78581SOL    HW237576   4.405   6.124   1.432
78582SOL     OW37577   4.595   1.360   5.866
78582SOL    HW137578   4.625   1.398   5.783
78582SOL    HW237579   4.645   1.279   5.875
78583SOL     OW37580   5.949   8.402   1.951
78583SOL    HW137581   5.973   8.495   1.948
78583SOL    HW237582   5.974   8.373   2.039
78584SOL     OW37583  13.190   2.605  14.755
78584SOL    HW137584  13.212   2.513  14.766
78584SOL    HW237585  13.149   2.630  14.838
78585SOL     OW37586   1.739  11.044   1.477
78585SOL    HW137587   1.826  11.078   1.457
78585SOL    HW237588   1.680  11.092   1.418
78586SOL     OW37589  13.859   9.794  10.132
78586SOL    HW137590  13.866   9.889  10.138
78586SOL    HW237591  13.940   9.767  10.088
78587SOL     OW37592   1.770   7.883   1.141
78587SOL    HW137593   1.809   7.800   1.115
78587SOL    HW237594   1.838   7.926   1.193
78588SOL     OW37595   3.935  10.125   7.415
78588SOL    HW137596   3.979  10.085   7.490
78588SOL    HW237597   3.899  10.207   7.449
78589SOL     OW37598   0.074   1.859  14.614
78589SOL    HW137599  14.856   1.857  14.628
78589SOL    HW237600   0.108   1.789  14.670
78590SOL     OW37601  14.726   2.290   4.393
78590SOL    HW137602  14.772   2.209   4.416
78590SOL    HW237603  14.636   2.275   4.421
78591SOL     OW37604  11.446   7.499   9.794
78591SOL    HW137605  11.490   7.438   9.734
78591SOL    HW237606  11.370   7.450   9.825
78592SOL     OW37607  12.627   6.641  14.455
78592SOL    HW137608  12.659   6.567  14.507
78592SOL    HW237609  12.532   6.633  14.457
78593SOL     OW37610   6.007  12.252  13.525
78593SOL    HW137611   6.048  12.264  13.439
78593SOL    HW237612   5.937  12.189  13.509
78594SOL     OW37613   6.526   8.815   3.589
78594SOL    HW137614   6.455   8.793   3.648
78594SOL    HW237615   6.582   8.738   3.589
78595SOL     OW37616   1.654   7.584   0.219
78595SOL    HW137617   1.679   7.535   0.140
78595SOL    HW237618   1.589   7.528   0.261
78596SOL     OW37619   7.823  12.248   6.188
78596SOL    HW137620   7.766  12.208   6.253
78596SOL    HW237621   7.779  12.234   6.104
78597SOL     OW37622   7.773   2.677   1.730
78597SOL    HW137623   7.854   2.726   1.744
78597SOL    HW237624   7.703   2.741   1.743
78598SOL     OW37625   9.516  14.632   5.171
78598SOL    HW137626   9.422  14.619   5.173
78598SOL    HW237627   9.528  14.727   5.176
78599SOL     OW37628  10.901   0.965   3.156
78599SOL    HW137629  10.870   0.964   3.065
78599SOL    HW237630  10.922   1.057   3.173
78600SOL     OW37631   2.560   9.846   9.929
78600SOL    HW137632   2.598   9.923   9.887
78600SOL    HW237633   2.608   9.838  10.011
78601SOL     OW37634  10.739   1.792  12.488
78601SOL    HW137635  10.726   1.886  12.497
78601SOL    HW237636  10.827   1.784  12.450
78602SOL     OW37637   8.265  11.790  11.757
78602SOL    HW137638   8.222  11.802  11.672
78602SOL    HW237639   8.252  11.697  11.777
78603SOL     OW37640   8.334   0.137  10.663
78603SOL    HW137641   8.329   0.232  10.673
78603SOL    HW237642   8.243   0.109  10.653
78604SOL     OW37643   2.900  13.328   5.767
78604SOL    HW137644   2.809  13.300   5.753
78604SOL    HW237645   2.893  13.422   5.782
78605SOL     OW37646   4.087   3.355  11.661
78605SOL    HW137647   4.000   3.352  11.622
78605SOL    HW237648   4.076   3.409  11.739
78606SOL     OW37649  13.828   1.511   4.598
78606SOL    HW137650  13.817   1.461   4.517
78606SOL    HW237651  13.884   1.585   4.574
78607SOL     OW37652   0.992   1.527  13.368
78607SOL    HW137653   0.927   1.593  13.345
78607SOL    HW237654   0.951   1.475  13.437
78608SOL     OW37655   2.170   1.057  11.032
78608SOL    HW137656   2.214   1.055  11.117
78608SOL    HW237657   2.193   1.143  10.995
78609SOL     OW37658  10.146   7.309   3.199
78609SOL    HW137659  10.215   7.276   3.141
78609SOL    HW237660  10.128   7.397   3.165
78610SOL     OW37661   0.931   3.311  14.277
78610SOL    HW137662   1.011   3.318  14.225
78610SOL    HW237663   0.918   3.217  14.289
78611SOL     OW37664   7.354   5.318  11.073
78611SOL    HW137665   7.395   5.235  11.096
78611SOL    HW237666   7.268   5.293  11.038
78612SOL     OW37667  14.342  11.541   1.306
78612SOL    HW137668  14.367  11.624   1.264
78612SOL    HW237669  14.391  11.475   1.258
78613SOL     OW37670   6.112  14.336   3.920
78613SOL    HW137671   6.048  14.265   3.921
78613SOL    HW237672   6.100  14.380   4.004
78614SOL     OW37673   0.767   1.794   6.382
78614SOL    HW137674   0.721   1.844   6.450
78614SOL    HW237675   0.860   1.813   6.398
78615SOL     OW37676   2.892   3.639   6.186
78615SOL    HW137677   2.874   3.640   6.092
78615SOL    HW237678   2.979   3.599   6.194
78616SOL     OW37679   9.545  10.946   8.383
78616SOL    HW137680   9.587  11.032   8.388
78616SOL    HW237681   9.486  10.952   8.308
78617SOL     OW37682  10.307   2.148  12.366
78617SOL    HW137683  10.251   2.098  12.307
78617SOL    HW237684  10.396   2.125  12.340
78618SOL     OW37685   6.779   3.521   8.442
78618SOL    HW137686   6.740   3.559   8.520
78618SOL    HW237687   6.715   3.457   8.412
78619SOL     OW37688  13.810  14.125   5.131
78619SOL    HW137689  13.781  14.183   5.061
78619SOL    HW237690  13.777  14.039   5.107
78620SOL     OW37691   2.550   9.150  13.825
78620SOL    HW137692   2.455   9.146  13.838
78620SOL    HW237693   2.586   9.135  13.913
78621SOL     OW37694  13.585  12.064   3.251
78621SOL    HW137695  13.653  12.112   3.203
78621SOL    HW237696  13.503  12.107   3.226
78622SOL     OW37697   8.343   6.177   6.088
78622SOL    HW137698   8.337   6.265   6.050
78622SOL    HW237699   8.307   6.119   6.020
78623SOL     OW37700  11.710   3.647   0.560
78623SOL    HW137701  11.645   3.706   0.521
78623SOL    HW237702  11.661   3.568   0.582
78624SOL     OW37703   1.786   1.921  11.094
78624SOL    HW137704   1.829   1.974  11.027
78624SOL    HW237705   1.756   1.843  11.047
78625SOL     OW37706   6.489   8.812   4.204
78625SOL    HW137707   6.450   8.726   4.220
78625SOL    HW237708   6.414   8.871   4.197
78626SOL     OW37709  13.275   2.188   4.512
78626SOL    HW137710  13.305   2.257   4.571
78626SOL    HW237711  13.222   2.130   4.567
78627SOL     OW37712  10.384  13.021   2.192
78627SOL    HW137713  10.321  12.949   2.193
78627SOL    HW237714  10.455  12.992   2.250
78628SOL     OW37715   3.843   1.695  12.092
78628SOL    HW137716   3.931   1.729  12.106
78628SOL    HW237717   3.841   1.672  11.999
78629SOL     OW37718   3.550   4.032   2.648
78629SOL    HW137719   3.599   4.071   2.576
78629SOL    HW237720   3.582   3.941   2.652
78630SOL     OW37721   0.646  10.289   9.635
78630SOL    HW137722   0.731  10.307   9.594
78630SOL    HW237723   0.656  10.201   9.672
78631SOL     OW37724  11.897  12.816  13.503
78631SOL    HW137725  11.957  12.873  13.453
78631SOL    HW237726  11.880  12.743  13.444
78632SOL     OW37727  11.966   6.081   6.304
78632SOL    HW137728  11.908   6.138   6.254
78632SOL    HW237729  11.982   6.007   6.246
78633SOL     OW37730   5.712  14.056   2.390
78633SOL    HW137731   5.742  14.089   2.305
78633SOL    HW237732   5.636  14.001   2.368
78634SOL     OW37733   4.775   4.252   5.681
78634SOL    HW137734   4.723   4.332   5.676
78634SOL    HW237735   4.753   4.204   5.602
78635SOL     OW37736   1.346   7.974   6.618
78635SOL    HW137737   1.298   7.971   6.535
78635SOL    HW237738   1.431   8.013   6.596
78636SOL     OW37739   9.781  14.423   7.694
78636SOL    HW137740   9.695  14.464   7.705
78636SOL    HW237741   9.765  14.330   7.710
78637SOL     OW37742  12.800   2.115   2.486
78637SOL    HW137743  12.883   2.150   2.517
78637SOL    HW237744  12.803   2.127   2.391
78638SOL     OW37745   2.186  14.373   2.937
78638SOL    HW137746   2.101  14.360   2.894
78638SOL    HW237747   2.175  14.335   3.024
78639SOL     OW37748   2.327   1.702  11.815
78639SOL    HW137749   2.250   1.668  11.771
78639SOL    HW237750   2.302   1.791  11.842
78640SOL     OW37751   8.232   7.935  13.044
78640SOL    HW137752   8.301   7.870  13.056
78640SOL    HW237753   8.151   7.886  13.056
78641SOL     OW37754   2.914  11.298   9.715
78641SOL    HW137755   2.946  11.377   9.758
78641SOL    HW237756   2.830  11.280   9.757
78642SOL     OW37757   7.788   0.040   4.379
78642SOL    HW137758   7.814  14.841   4.432
78642SOL    HW237759   7.704   0.067   4.415
78643SOL     OW37760  10.377   2.277  10.535
78643SOL    HW137761  10.321   2.295  10.610
78643SOL    HW237762  10.438   2.351  10.533
78644SOL     OW37763   0.528  10.846  10.721
78644SOL    HW137764   0.558  10.936  10.706
78644SOL    HW237765   0.606  10.792  10.707
78645SOL     OW37766   7.556   5.075   2.025
78645SOL    HW137767   7.584   5.010   1.961
78645SOL    HW237768   7.613   5.150   2.008
78646SOL     OW37769   7.677   7.139   0.079
78646SOL    HW137770   7.583   7.126   0.065
78646SOL    HW237771   7.682   7.192   0.158
78647SOL     OW37772   9.486  10.867   2.872
78647SOL    HW137773   9.424  10.847   2.942
78647SOL    HW237774   9.432  10.907   2.804
78648SOL     OW37775   9.775  10.507  14.277
78648SOL    HW137776   9.804  10.587  14.233
78648SOL    HW237777   9.823  10.437  14.231
78649SOL     OW37778   1.809  13.202  12.047
78649SOL    HW137779   1.899  13.171  12.050
78649SOL    HW237780   1.810  13.270  11.979
78650SOL     OW37781   4.806   2.224   9.273
78650SOL    HW137782   4.761   2.195   9.352
78650SOL    HW237783   4.775   2.313   9.259
78651SOL     OW37784   8.658   9.838  14.332
78651SOL    HW137785   8.591   9.867  14.270
78651SOL    HW237786   8.647   9.743  14.336
78652SOL     OW37787   8.577  13.642  11.617
78652SOL    HW137788   8.500  13.599  11.655
78652SOL    HW237789   8.543  13.689  11.541
78653SOL     OW37790  13.711   4.545   2.990
78653SOL    HW137791  13.626   4.584   3.006
78653SOL    HW237792  13.766   4.574   3.063
78654SOL     OW37793   2.836   2.248  12.346
78654SOL    HW137794   2.926   2.253  12.379
78654SOL    HW237795   2.845   2.259  12.251
78655SOL     OW37796   8.362   5.274   3.251
78655SOL    HW137797   8.391   5.332   3.321
78655SOL    HW237798   8.287   5.319   3.212
78656SOL     OW37799   6.765   9.937   0.816
78656SOL    HW137800   6.853   9.930   0.853
78656SOL    HW237801   6.712   9.976   0.885
78657SOL     OW37802   2.087   1.465   2.717
78657SOL    HW137803   2.098   1.512   2.800
78657SOL    HW237804   2.111   1.375   2.738
78658SOL     OW37805   1.724   0.023   7.306
78658SOL    HW137806   1.679   0.107   7.301
78658SOL    HW237807   1.700  14.864   7.392
78659SOL     OW37808  14.009  11.912   8.669
78659SOL    HW137809  14.063  11.986   8.641
78659SOL    HW237810  13.919  11.945   8.665
78660SOL     OW37811  12.226   5.425   9.179
78660SOL    HW137812  12.236   5.489   9.249
78660SOL    HW237813  12.179   5.471   9.109
78661SOL     OW37814  13.555   1.656   6.378
78661SOL    HW137815  13.628   1.641   6.317
78661SOL    HW237816  13.490   1.590   6.354
78662SOL     OW37817   3.736   2.283   4.158
78662SOL    HW137818   3.794   2.208   4.151
78662SOL    HW237819   3.732   2.303   4.252
78663SOL     OW37820   9.217  11.759  10.088
78663SOL    HW137821   9.196  11.666  10.089
78663SOL    HW237822   9.173  11.795  10.165
78664SOL     OW37823   0.066   3.886   0.990
78664SOL    HW137824   0.092   3.869   1.080
78664SOL    HW237825   0.129   3.950   0.958
78665SOL     OW37826   4.338   2.995  11.526
78665SOL    HW137827   4.327   3.078  11.573
78665SOL    HW237828   4.268   2.996  11.460
78666SOL     OW37829   8.686   9.691   6.329
78666SOL    HW137830   8.621   9.682   6.260
78666SOL    HW237831   8.766   9.654   6.292
78667SOL     OW37832   3.251   8.607   6.814
78667SOL    HW137833   3.242   8.703   6.811
78667SOL    HW237834   3.178   8.575   6.761
78668SOL     OW37835  10.083  11.113   9.640
78668SOL    HW137836  10.038  11.073   9.566
78668SOL    HW237837  10.031  11.088   9.716
78669SOL     OW37838  12.253  14.315  11.716
78669SOL    HW137839  12.328  14.324  11.656
78669SOL    HW237840  12.187  14.374  11.680
78670SOL     OW37841   5.119   1.200  13.885
78670SOL    HW137842   5.065   1.263  13.836
78670SOL    HW237843   5.153   1.250  13.959
78671SOL     OW37844  10.469   9.396   5.543
78671SOL    HW137845  10.394   9.348   5.507
78671SOL    HW237846  10.434   9.443   5.618
78672SOL     OW37847   6.224  11.492  10.166
78672SOL    HW137848   6.300  11.499  10.109
78672SOL    HW237849   6.212  11.579  10.203
78673SOL     OW37850   9.308  12.240   4.374
78673SOL    HW137851   9.369  12.314   4.384
78673SOL    HW237852   9.326  12.207   4.286
78674SOL     OW37853   3.481   8.568  10.938
78674SOL    HW137854   3.551   8.630  10.918
78674SOL    HW237855   3.514   8.517  11.012
78675SOL     OW37856   0.168   7.345  14.353
78675SOL    HW137857   0.085   7.392  14.358
78675SOL    HW237858   0.192   7.347  14.260
78676SOL     OW37859  10.926   0.863   1.999
78676SOL    HW137860  10.850   0.809   1.977
78676SOL    HW237861  10.973   0.812   2.065
78677SOL     OW37862   3.199   9.934   6.006
78677SOL    HW137863   3.246   9.926   5.923
78677SOL    HW237864   3.192  10.028   6.021
78678SOL     OW37865   0.161   4.673   1.243
78678SOL    HW137866   0.219   4.599   1.220
78678SOL    HW237867   0.079   4.631   1.269
78679SOL     OW37868   0.419   6.877  11.909
78679SOL    HW137869   0.502   6.830  11.900
78679SOL    HW237870   0.426   6.922  11.994
78680SOL     OW37871   1.640   7.276   6.354
78680SOL    HW137872   1.689   7.286   6.272
78680SOL    HW237873   1.707   7.259   6.420
78681SOL     OW37874   9.768   8.231   8.490
78681SOL    HW137875   9.837   8.234   8.556
78681SOL    HW237876   9.768   8.140   8.460
78682SOL     OW37877   8.498   2.956  12.749
78682SOL    HW137878   8.562   2.895  12.713
78682SOL    HW237879   8.418   2.941  12.698
78683SOL     OW37880   2.267  10.646   5.986
78683SOL    HW137881   2.203  10.663   5.916
78683SOL    HW237882   2.317  10.570   5.955
78684SOL     OW37883   9.434   1.000   9.747
78684SOL    HW137884   9.478   1.071   9.795
78684SOL    HW237885   9.502   0.934   9.733
78685SOL     OW37886  11.903   3.834   1.128
78685SOL    HW137887  11.962   3.865   1.196
78685SOL    HW237888  11.946   3.756   1.092
78686SOL     OW37889   4.573  11.639   9.838
78686SOL    HW137890   4.605  11.564   9.788
78686SOL    HW237891   4.490  11.610   9.874
78687SOL     OW37892  12.447   5.311   9.083
78687SOL    HW137893  12.358   5.332   9.113
78687SOL    HW237894  12.468   5.379   9.019
78688SOL     OW37895   2.983   1.525   4.787
78688SOL    HW137896   3.055   1.586   4.806
78688SOL    HW237897   2.930   1.524   4.867
78689SOL     OW37898   3.869   9.199  10.738
78689SOL    HW137899   3.859   9.115  10.783
78689SOL    HW237900   3.929   9.249  10.793
78690SOL     OW37901   0.060   5.657  14.238
78690SOL    HW137902   0.050   5.600  14.162
78690SOL    HW237903   0.116   5.607  14.299
78691SOL     OW37904   3.599   1.269   5.610
78691SOL    HW137905   3.537   1.281   5.538
78691SOL    HW237906   3.640   1.355   5.621
78692SOL     OW37907   9.885  11.299  10.792
78692SOL    HW137908   9.910  11.327  10.704
78692SOL    HW237909   9.916  11.369  10.850
78693SOL     OW37910  10.136  14.039   7.591
78693SOL    HW137911  10.181  14.010   7.670
78693SOL    HW237912  10.046  14.009   7.603
78694SOL     OW37913  10.065  11.505   6.642
78694SOL    HW137914  10.104  11.564   6.578
78694SOL    HW237915   9.990  11.467   6.597
78695SOL     OW37916   8.119   7.565   8.095
78695SOL    HW137917   8.072   7.487   8.126
78695SOL    HW237918   8.097   7.633   8.158
78696SOL     OW37919   1.091   0.757   5.923
78696SOL    HW137920   0.995   0.755   5.920
78696SOL    HW237921   1.111   0.806   6.003
78697SOL     OW37922  11.051   7.525  11.990
78697SOL    HW137923  11.011   7.561  11.911
78697SOL    HW237924  11.100   7.449  11.959
78698SOL     OW37925  12.848   5.253   4.271
78698SOL    HW137926  12.792   5.321   4.234
78698SOL    HW237927  12.788   5.195   4.317
78699SOL     OW37928   5.255   3.153  10.469
78699SOL    HW137929   5.193   3.091  10.509
78699SOL    HW237930   5.200   3.222  10.432
78700SOL     OW37931  10.429  14.012   1.736
78700SOL    HW137932  10.398  14.100   1.713
78700SOL    HW237933  10.524  14.020   1.740
78701SOL     OW37934   9.869   9.071   7.839
78701SOL    HW137935   9.917   9.135   7.786
78701SOL    HW237936   9.777   9.091   7.824
78702SOL     OW37937   7.612   6.331  13.964
78702SOL    HW137938   7.565   6.369  13.890
78702SOL    HW237939   7.552   6.264  13.998
78703SOL     OW37940   3.293  13.984   5.561
78703SOL    HW137941   3.359  13.920   5.533
78703SOL    HW237942   3.210  13.947   5.532
78704SOL     OW37943   5.898   3.207   5.745
78704SOL    HW137944   5.871   3.175   5.658
78704SOL    HW237945   5.990   3.182   5.752
78705SOL     OW37946  10.555   6.633   7.889
78705SOL    HW137947  10.584   6.642   7.980
78705SOL    HW237948  10.626   6.671   7.838
78706SOL     OW37949   7.833  12.846  14.361
78706SOL    HW137950   7.823  12.938  14.337
78706SOL    HW237951   7.765  12.801  14.311
78707SOL     OW37952   9.211  10.828   8.817
78707SOL    HW137953   9.218  10.759   8.750
78707SOL    HW237954   9.237  10.908   8.772
78708SOL     OW37955  12.529   1.775  13.886
78708SOL    HW137956  12.570   1.706  13.939
78708SOL    HW237957  12.565   1.763  13.799
78709SOL     OW37958   8.568   7.829   5.727
78709SOL    HW137959   8.612   7.747   5.750
78709SOL    HW237960   8.635   7.896   5.740
78710SOL     OW37961  11.445   2.240   2.687
78710SOL    HW137962  11.355   2.213   2.703
78710SOL    HW237963  11.487   2.237   2.773
78711SOL     OW37964  14.274  14.691  10.322
78711SOL    HW137965  14.178  14.689  10.327
78711SOL    HW237966  14.294  14.783  10.305
78712SOL     OW37967  12.753   2.988  13.858
78712SOL    HW137968  12.781   2.897  13.848
78712SOL    HW237969  12.835   3.038  13.855
78713SOL     OW37970   2.596  11.618   6.159
78713SOL    HW137971   2.521  11.626   6.217
78713SOL    HW237972   2.617  11.524   6.161
78714SOL     OW37973   7.538   6.762  12.235
78714SOL    HW137974   7.489   6.839  12.262
78714SOL    HW237975   7.498   6.736  12.152
78715SOL     OW37976   9.582   5.815   8.687
78715SOL    HW137977   9.638   5.829   8.764
78715SOL    HW237978   9.516   5.752   8.717
78716SOL     OW37979   1.354   6.758   0.352
78716SOL    HW137980   1.331   6.685   0.293
78716SOL    HW237981   1.370   6.832   0.293
78717SOL     OW37982   3.072   5.010   1.030
78717SOL    HW137983   2.983   5.023   1.063
78717SOL    HW237984   3.080   4.916   1.017
78718SOL     OW37985   9.151  11.579  10.530
78718SOL    HW137986   9.230  11.630  10.513
78718SOL    HW237987   9.165  11.495  10.486
78719SOL     OW37988  12.651   1.305   0.896
78719SOL    HW137989  12.668   1.399   0.900
78719SOL    HW237990  12.588   1.289   0.966
78720SOL     OW37991   3.516   4.392   8.525
78720SOL    HW137992   3.542   4.484   8.522
78720SOL    HW237993   3.586   4.346   8.478
78721SOL     OW37994  10.834   7.716   5.871
78721SOL    HW137995  10.744   7.685   5.872
78721SOL    HW237996  10.862   7.713   5.962
78722SOL     OW37997  10.404  10.415  13.793
78722SOL    HW137998  10.481  10.406  13.737
78722SOL    HW237999  10.371  10.503  13.774
78723SOL     OW38000   3.478   8.868  11.003
78723SOL    HW138001   3.488   8.803  11.072
78723SOL    HW238002   3.546   8.845  10.939
78724SOL     OW38003   0.220   5.173  11.138
78724SOL    HW138004   0.259   5.254  11.105
78724SOL    HW238005   0.276   5.103  11.104
78725SOL     OW38006   3.889  14.691   5.599
78725SOL    HW138007   3.922  14.690   5.509
78725SOL    HW238008   3.916  14.607   5.636
78726SOL     OW38009   1.466  14.815  13.254
78726SOL    HW138010   1.402  14.807  13.182
78726SOL    HW238011   1.520   0.014  13.228
78727SOL     OW38012   9.227   0.945   4.810
78727SOL    HW138013   9.193   0.874   4.755
78727SOL    HW238014   9.156   1.010   4.812
78728SOL     OW38015   2.347   8.650   9.902
78728SOL    HW138016   2.295   8.716   9.855
78728SOL    HW238017   2.377   8.696   9.980
78729SOL     OW38018   3.635  10.669  11.099
78729SOL    HW138019   3.730  10.665  11.108
78729SOL    HW238020   3.620  10.721  11.020
78730SOL     OW38021   3.378   5.499  11.901
78730SOL    HW138022   3.284   5.518  11.892
78730SOL    HW238023   3.385   5.406  11.877
78731SOL     OW38024   1.717   8.073  13.558
78731SOL    HW138025   1.622   8.075  13.572
78731SOL    HW238026   1.754   8.085  13.645
78732SOL     OW38027   6.983  13.390  11.492
78732SOL    HW138028   7.003  13.299  11.515
78732SOL    HW238029   6.939  13.383  11.407
78733SOL     OW38030   6.857  10.338   5.988
78733SOL    HW138031   6.770  10.377   5.987
78733SOL    HW238032   6.842  10.244   5.975
78734SOL     OW38033  13.059   5.858   7.833
78734SOL    HW138034  12.965   5.876   7.839
78734SOL    HW238035  13.066   5.764   7.850
78735SOL     OW38036  13.516   5.989   3.759
78735SOL    HW138037  13.480   5.938   3.832
78735SOL    HW238038  13.585   6.042   3.799
78736SOL     OW38039   5.446  10.078   6.736
78736SOL    HW138040   5.363  10.090   6.690
78736SOL    HW238041   5.431  10.002   6.792
78737SOL     OW38042  14.825   7.345   4.243
78737SOL    HW138043  14.797   7.334   4.152
78737SOL    HW238044   0.036   7.384   4.236
78738SOL     OW38045   0.031   9.768  12.556
78738SOL    HW138046   0.094   9.777  12.484
78738SOL    HW238047  14.842   9.706  12.523
78739SOL     OW38048   6.883   1.251  14.408
78739SOL    HW138049   6.945   1.179  14.394
78739SOL    HW238050   6.870   1.288  14.320
78740SOL     OW38051   0.991   1.893   5.337
78740SOL    HW138052   1.028   1.932   5.258
78740SOL    HW238053   0.977   1.801   5.314
78741SOL     OW38054   5.928   2.701   5.562
78741SOL    HW138055   5.942   2.715   5.469
78741SOL    HW238056   6.011   2.664   5.594
78742SOL     OW38057   0.258   7.066   4.458
78742SOL    HW138058   0.290   6.985   4.498
78742SOL    HW238059   0.204   7.037   4.385
78743SOL     OW38060  11.747   7.533  13.291
78743SOL    HW138061  11.809   7.466  13.321
78743SOL    HW238062  11.669   7.518  13.345
78744SOL     OW38063   2.280  13.252  13.258
78744SOL    HW138064   2.207  13.257  13.196
78744SOL    HW238065   2.358  13.245  13.202
78745SOL     OW38066   5.558   8.670  12.041
78745SOL    HW138067   5.555   8.614  11.964
78745SOL    HW238068   5.650   8.669  12.068
78746SOL     OW38069  11.017   2.895  13.194
78746SOL    HW138070  11.108   2.904  13.223
78746SOL    HW238071  11.023   2.898  13.098
78747SOL     OW38072   8.541   1.770  11.192
78747SOL    HW138073   8.518   1.776  11.285
78747SOL    HW238074   8.528   1.678  11.170
78748SOL     OW38075   9.880   7.896   5.048
78748SOL    HW138076   9.880   7.829   4.979
78748SOL    HW238077   9.846   7.851   5.125
78749SOL     OW38078   7.048   0.584   3.443
78749SOL    HW138079   7.112   0.615   3.379
78749SOL    HW238080   7.007   0.507   3.402
78750SOL     OW38081   3.759  10.618   2.316
78750SOL    HW138082   3.723  10.542   2.362
78750SOL    HW238083   3.853  10.608   2.323
78751SOL     OW38084  13.579   8.230  12.722
78751SOL    HW138085  13.529   8.272  12.792
78751SOL    HW238086  13.670   8.254  12.739
78752SOL     OW38087   0.125  11.180   3.654
78752SOL    HW138088   0.109  11.124   3.730
78752SOL    HW238089   0.100  11.127   3.579
78753SOL     OW38090  11.014   5.709   3.336
78753SOL    HW138091  10.924   5.703   3.366
78753SOL    HW238092  11.010   5.758   3.254
78754SOL     OW38093  13.417   9.189   6.001
78754SOL    HW138094  13.365   9.115   5.970
78754SOL    HW238095  13.441   9.237   5.922
78755SOL     OW38096   1.631  13.198  13.950
78755SOL    HW138097   1.674  13.258  14.011
78755SOL    HW238098   1.678  13.209  13.868
78756SOL     OW38099   1.146   2.372  11.797
78756SOL    HW138100   1.121   2.414  11.879
78756SOL    HW238101   1.075   2.311  11.778
78757SOL     OW38102   0.510   0.086   8.186
78757SOL    HW138103   0.583   0.044   8.232
78757SOL    HW238104   0.478   0.151   8.248
78758SOL     OW38105   1.106  11.925   4.822
78758SOL    HW138106   1.153  11.860   4.874
78758SOL    HW238107   1.099  12.002   4.880
78759SOL     OW38108   2.312   4.329  12.504
78759SOL    HW138109   2.322   4.275  12.582
78759SOL    HW238110   2.382   4.393  12.509
78760SOL     OW38111   8.748   7.291   6.934
78760SOL    HW138112   8.840   7.310   6.916
78760SOL    HW238113   8.740   7.197   6.923
78761SOL     OW38114   0.854   2.515   7.327
78761SOL    HW138115   0.839   2.491   7.419
78761SOL    HW238116   0.839   2.609   7.324
78762SOL     OW38117   9.518   2.797   5.888
78762SOL    HW138118   9.504   2.827   5.978
78762SOL    HW238119   9.510   2.702   5.893
78763SOL     OW38120   7.882   4.023   5.452
78763SOL    HW138121   7.932   4.070   5.386
78763SOL    HW238122   7.794   4.063   5.448
78764SOL     OW38123  11.750   2.229   9.951
78764SOL    HW138124  11.742   2.232   9.856
78764SOL    HW238125  11.809   2.156   9.968
78765SOL     OW38126   0.072   5.156   9.845
78765SOL    HW138127   0.058   5.233   9.790
78765SOL    HW238128   0.163   5.130   9.827
78766SOL     OW38129   7.652  11.793   0.691
78766SOL    HW138130   7.581  11.731   0.712
78766SOL    HW238131   7.730  11.738   0.686
78767SOL     OW38132   1.821   7.333   6.839
78767SOL    HW138133   1.857   7.259   6.889
78767SOL    HW238134   1.821   7.405   6.901
78768SOL     OW38135  13.137   9.140  11.150
78768SOL    HW138136  13.198   9.172  11.083
78768SOL    HW238137  13.051   9.143  11.108
78769SOL     OW38138  12.408   1.162  10.392
78769SOL    HW138139  12.453   1.088  10.434
78769SOL    HW238140  12.462   1.182  10.315
78770SOL     OW38141   8.975   0.294  14.628
78770SOL    HW138142   9.052   0.352  14.626
78770SOL    HW238143   8.915   0.336  14.689
78771SOL     OW38144   7.061   7.574   1.386
78771SOL    HW138145   7.101   7.600   1.303
78771SOL    HW238146   6.967   7.579   1.369
78772SOL     OW38147   2.688   5.815  12.681
78772SOL    HW138148   2.728   5.728  12.669
78772SOL    HW238149   2.726   5.869  12.612
78773SOL     OW38150   0.180  10.968  11.082
78773SOL    HW138151   0.243  10.905  11.046
78773SOL    HW238152   0.140  10.922  11.156
78774SOL     OW38153   1.969   1.898   9.606
78774SOL    HW138154   1.911   1.949   9.550
78774SOL    HW238155   1.973   1.946   9.688
78775SOL     OW38156   1.904   2.492   7.912
78775SOL    HW138157   1.937   2.565   7.859
78775SOL    HW238158   1.831   2.530   7.962
78776SOL     OW38159   6.600  13.448   7.398
78776SOL    HW138160   6.609  13.543   7.407
78776SOL    HW238161   6.642  13.428   7.314
78777SOL     OW38162  13.267   1.038   4.253
78777SOL    HW138163  13.323   0.962   4.240
78777SOL    HW238164  13.196   1.006   4.309
78778SOL     OW38165   4.585   2.875  10.383
78778SOL    HW138166   4.548   2.848  10.299
78778SOL    HW238167   4.509   2.887  10.440
78779SOL     OW38168   7.675   3.236   3.027
78779SOL    HW138169   7.716   3.317   2.998
78779SOL    HW238170   7.725   3.167   2.983
78780SOL     OW38171   6.534  13.298   3.425
78780SOL    HW138172   6.582  13.255   3.354
78780SOL    HW238173   6.446  13.259   3.421
78781SOL     OW38174  11.044   5.491  11.316
78781SOL    HW138175  11.050   5.396  11.304
78781SOL    HW238176  11.113   5.527  11.260
78782SOL     OW38177   6.289   0.026   8.312
78782SOL    HW138178   6.340  14.844   8.254
78782SOL    HW238179   6.291   0.111   8.268
78783SOL     OW38180   4.564   1.575   7.907
78783SOL    HW138181   4.600   1.575   7.819
78783SOL    HW238182   4.495   1.641   7.905
78784SOL     OW38183  12.378   5.555   4.775
78784SOL    HW138184  12.282   5.560   4.770
78784SOL    HW238185  12.409   5.597   4.696
78785SOL     OW38186  13.947  13.928  12.391
78785SOL    HW138187  13.968  14.000  12.332
78785SOL    HW238188  14.029  13.910  12.437
78786SOL     OW38189  13.668   0.717   1.402
78786SOL    HW138190  13.702   0.748   1.318
78786SOL    HW238191  13.662   0.622   1.392
78787SOL     OW38192  13.317  12.933   5.622
78787SOL    HW138193  13.313  12.845   5.584
78787SOL    HW238194  13.276  12.990   5.557
78788SOL     OW38195   3.624   2.213  14.389
78788SOL    HW138196   3.574   2.141  14.429
78788SOL    HW238197   3.588   2.292  14.429
78789SOL     OW38198   6.949   3.729   8.021
78789SOL    HW138199   6.913   3.685   7.944
78789SOL    HW238200   6.898   3.695   8.094
78790SOL     OW38201   1.624  13.262  13.023
78790SOL    HW138202   1.539  13.226  13.000
78790SOL    HW238203   1.608  13.313  13.102
78791SOL     OW38204  10.498   8.570   0.695
78791SOL    HW138205  10.530   8.529   0.776
78791SOL    HW238206  10.569   8.627   0.667
78792SOL     OW38207  12.053  12.466   0.035
78792SOL    HW138208  11.963  12.433   0.049
78792SOL    HW238209  12.062  12.537   0.097
78793SOL     OW38210   7.874   6.389   4.330
78793SOL    HW138211   7.855   6.456   4.264
78793SOL    HW238212   7.945   6.426   4.382
78794SOL     OW38213  14.654   6.788   3.672
78794SOL    HW138214  14.598   6.863   3.651
78794SOL    HW238215  14.610   6.713   3.634
78795SOL     OW38216  13.260   0.981   1.855
78795SOL    HW138217  13.332   1.033   1.891
78795SOL    HW238218  13.191   0.987   1.922
78796SOL     OW38219  13.269   8.675   1.493
78796SOL    HW138220  13.185   8.672   1.540
78796SOL    HW238221  13.247   8.654   1.402
78797SOL     OW38222   9.208   5.811  11.948
78797SOL    HW138223   9.292   5.857  11.951
78797SOL    HW238224   9.229   5.725  11.913
78798SOL     OW38225   5.589  13.555   2.235
78798SOL    HW138226   5.636  13.473   2.224
78798SOL    HW238227   5.497  13.529   2.241
78799SOL     OW38228   9.326  12.897   8.820
78799SOL    HW138229   9.291  12.981   8.790
78799SOL    HW238230   9.358  12.855   8.740
78800SOL     OW38231   8.407  10.944   3.865
78800SOL    HW138232   8.484  10.972   3.815
78800SOL    HW238233   8.420  10.981   3.952
78801SOL     OW38234   8.380   5.748   4.531
78801SOL    HW138235   8.308   5.806   4.554
78801SOL    HW238236   8.338   5.668   4.500
78802SOL     OW38237  10.257  14.081   6.457
78802SOL    HW138238  10.265  14.039   6.542
78802SOL    HW238239  10.210  14.163   6.474
78803SOL     OW38240   9.906   6.805   0.585
78803SOL    HW138241   9.837   6.769   0.640
78803SOL    HW238242   9.867   6.809   0.497
78804SOL     OW38243  12.700   2.291  12.870
78804SOL    HW138244  12.745   2.281  12.786
78804SOL    HW238245  12.666   2.381  12.868
78805SOL     OW38246  13.726  14.638   8.156
78805SOL    HW138247  13.674  14.579   8.210
78805SOL    HW238248  13.678  14.643   8.073
78806SOL     OW38249   9.781   0.197   6.016
78806SOL    HW138250   9.853   0.178   6.076
78806SOL    HW238251   9.785   0.292   6.002
78807SOL     OW38252  14.394  10.249  10.253
78807SOL    HW138253  14.334  10.304  10.303
78807SOL    HW238254  14.468  10.234  10.311
78808SOL     OW38255  11.689   1.883  10.049
78808SOL    HW138256  11.619   1.823  10.073
78808SOL    HW238257  11.673   1.962  10.100
78809SOL     OW38258   8.666  14.387  12.025
78809SOL    HW138259   8.671  14.481  12.041
78809SOL    HW238260   8.617  14.379  11.943
78810SOL     OW38261  11.611   3.043   1.191
78810SOL    HW138262  11.580   3.128   1.160
78810SOL    HW238263  11.651   3.002   1.114
78811SOL     OW38264   3.009   8.881   3.374
78811SOL    HW138265   3.049   8.816   3.317
78811SOL    HW238266   2.977   8.831   3.449
78812SOL     OW38267  11.742  12.212  11.154
78812SOL    HW138268  11.813  12.163  11.195
78812SOL    HW238269  11.762  12.210  11.061
78813SOL     OW38270   2.389  14.194   5.886
78813SOL    HW138271   2.388  14.288   5.905
78813SOL    HW238272   2.481  14.174   5.866
78814SOL     OW38273  14.727   6.538  11.714
78814SOL    HW138274  14.727   6.612  11.653
78814SOL    HW238275  14.642   6.541  11.757
78815SOL     OW38276   4.210   9.189  10.254
78815SOL    HW138277   4.266   9.131  10.202
78815SOL    HW238278   4.271   9.235  10.311
78816SOL     OW38279   4.075   4.840  10.687
78816SOL    HW138280   4.061   4.781  10.761
78816SOL    HW238281   3.989   4.875  10.667
78817SOL     OW38282   5.496   3.144  12.981
78817SOL    HW138283   5.495   3.122  12.888
78817SOL    HW238284   5.463   3.234  12.985
78818SOL     OW38285   6.063   1.695   3.492
78818SOL    HW138286   5.971   1.671   3.505
78818SOL    HW238287   6.078   1.765   3.556
78819SOL     OW38288   8.034   6.858   0.183
78819SOL    HW138289   7.957   6.907   0.213
78819SOL    HW238290   8.011   6.830   0.094
78820SOL     OW38291   5.644  11.135   7.432
78820SOL    HW138292   5.734  11.105   7.420
78820SOL    HW238293   5.641  11.220   7.389
78821SOL     OW38294   3.836  14.613   0.838
78821SOL    HW138295   3.802  14.643   0.923
78821SOL    HW238296   3.864  14.692   0.794
78822SOL     OW38297  10.395   3.814   6.512
78822SOL    HW138298  10.453   3.849   6.443
78822SOL    HW238299  10.455   3.787   6.581
78823SOL     OW38300   4.484   8.422   3.035
78823SOL    HW138301   4.423   8.492   3.012
78823SOL    HW238302   4.551   8.467   3.088
78824SOL     OW38303   2.353  14.286   2.608
78824SOL    HW138304   2.282  14.226   2.631
78824SOL    HW238305   2.342  14.360   2.667
78825SOL     OW38306   5.635   9.106   7.983
78825SOL    HW138307   5.562   9.147   8.028
78825SOL    HW238308   5.713   9.146   8.023
78826SOL     OW38309  11.400   6.914   9.951
78826SOL    HW138310  11.356   6.985   9.997
78826SOL    HW238311  11.334   6.879   9.891
78827SOL     OW38312   6.682  14.718   4.652
78827SOL    HW138313   6.620  14.729   4.725
78827SOL    HW238314   6.673  14.799   4.601
78828SOL     OW38315   9.446   7.254   4.638
78828SOL    HW138316   9.364   7.205   4.636
78828SOL    HW238317   9.428   7.333   4.586
78829SOL     OW38318  10.478   8.443   5.320
78829SOL    HW138319  10.490   8.460   5.226
78829SOL    HW238320  10.418   8.511   5.350
78830SOL     OW38321   4.087   2.974   7.864
78830SOL    HW138322   4.094   2.958   7.770
78830SOL    HW238323   4.178   2.976   7.894
78831SOL     OW38324   8.021   5.257   8.074
78831SOL    HW138325   8.041   5.165   8.056
78831SOL    HW238326   8.103   5.303   8.058
78832SOL     OW38327   2.841   9.666   9.596
78832SOL    HW138328   2.935   9.651   9.605
78832SOL    HW238329   2.806   9.583   9.564
78833SOL     OW38330   6.770  13.658  10.477
78833SOL    HW138331   6.740  13.687  10.563
78833SOL    HW238332   6.693  13.616  10.438
78834SOL     OW38333   8.406  12.915   5.964
78834SOL    HW138334   8.415  12.985   6.029
78834SOL    HW238335   8.319  12.879   5.979
78835SOL     OW38336   9.043   3.763   0.477
78835SOL    HW138337   9.000   3.843   0.447
78835SOL    HW238338   8.972   3.712   0.516
78836SOL     OW38339   4.813   0.091  14.096
78836SOL    HW138340   4.873   0.129  14.161
78836SOL    HW238341   4.775   0.167  14.052
78837SOL     OW38342   6.479   5.443   7.908
78837SOL    HW138343   6.383   5.444   7.913
78837SOL    HW238344   6.504   5.535   7.907
78838SOL     OW38345  11.246  12.989   6.186
78838SOL    HW138346  11.168  13.031   6.221
78838SOL    HW238347  11.313  13.058   6.189
78839SOL     OW38348   0.446   7.938   1.379
78839SOL    HW138349   0.412   7.971   1.296
78839SOL    HW238350   0.419   7.846   1.380
78840SOL     OW38351  10.288  14.840  10.257
78840SOL    HW138352  10.279  14.842  10.162
78840SOL    HW238353  10.379  14.813  10.272
78841SOL     OW38354   6.490  14.239   1.577
78841SOL    HW138355   6.541  14.289   1.513
78841SOL    HW238356   6.413  14.293   1.594
78842SOL     OW38357  12.316  13.832   4.859
78842SOL    HW138358  12.328  13.852   4.952
78842SOL    HW238359  12.336  13.914   4.814
78843SOL     OW38360   6.143   3.783  11.933
78843SOL    HW138361   6.221   3.811  11.885
78843SOL    HW238362   6.126   3.855  11.994
78844SOL     OW38363  13.871   3.010   4.971
78844SOL    HW138364  13.780   2.991   4.947
78844SOL    HW238365  13.877   2.986   5.064
78845SOL     OW38366   5.883   3.380   4.420
78845SOL    HW138367   5.962   3.420   4.382
78845SOL    HW238368   5.894   3.286   4.406
78846SOL     OW38369   1.145  12.122   6.912
78846SOL    HW138370   1.137  12.195   6.975
78846SOL    HW238371   1.076  12.139   6.848
78847SOL     OW38372  10.774  10.881   7.879
78847SOL    HW138373  10.770  10.817   7.950
78847SOL    HW238374  10.686  10.919   7.877
78848SOL     OW38375   7.732   0.635   6.355
78848SOL    HW138376   7.659   0.620   6.295
78848SOL    HW238377   7.760   0.547   6.381
78849SOL     OW38378  10.992   5.813   9.573
78849SOL    HW138379  10.919   5.765   9.533
78849SOL    HW238380  10.951   5.876   9.632
78850SOL     OW38381   4.562  14.341  13.124
78850SOL    HW138382   4.540  14.433  13.144
78850SOL    HW238383   4.562  14.298  13.210
78851SOL     OW38384  11.462   9.196   2.924
78851SOL    HW138385  11.375   9.172   2.891
78851SOL    HW238386  11.455   9.185   3.018
78852SOL     OW38387   4.237   9.261   6.473
78852SOL    HW138388   4.182   9.241   6.548
78852SOL    HW238389   4.326   9.256   6.505
78853SOL     OW38390   1.783  14.058  12.912
78853SOL    HW138391   1.695  14.093  12.899
78853SOL    HW238392   1.771  13.963  12.910
78854SOL     OW38393   4.249  10.747   3.335
78854SOL    HW138394   4.221  10.803   3.407
78854SOL    HW238395   4.174  10.689   3.320
78855SOL     OW38396   8.611   2.512   8.014
78855SOL    HW138397   8.700   2.512   7.978
78855SOL    HW238398   8.612   2.442   8.080
78856SOL     OW38399  14.261   9.851   9.501
78856SOL    HW138400  14.212   9.802   9.567
78856SOL    HW238401  14.334   9.889   9.549
78857SOL     OW38402  12.140   8.045   7.072
78857SOL    HW138403  12.155   8.040   6.977
78857SOL    HW238404  12.065   8.104   7.081
78858SOL     OW38405   5.112   8.144  10.227
78858SOL    HW138406   5.086   8.106  10.311
78858SOL    HW238407   5.037   8.129  10.169
78859SOL     OW38408  12.069   1.216  11.228
78859SOL    HW138409  11.987   1.222  11.179
78859SOL    HW238410  12.066   1.290  11.288
78860SOL     OW38411   9.930  12.491   8.508
78860SOL    HW138412   9.874  12.415   8.494
78860SOL    HW238413   9.942  12.528   8.420
78861SOL     OW38414  12.859  10.799  10.333
78861SOL    HW138415  12.820  10.801  10.421
78861SOL    HW238416  12.880  10.890  10.314
78862SOL     OW38417   5.971  11.399   2.923
78862SOL    HW138418   5.970  11.438   2.836
78862SOL    HW238419   5.898  11.338   2.922
78863SOL     OW38420  14.313  14.220   6.450
78863SOL    HW138421  14.309  14.159   6.376
78863SOL    HW238422  14.278  14.302   6.417
78864SOL     OW38423   7.603  12.082  13.752
78864SOL    HW138424   7.628  12.157  13.698
78864SOL    HW238425   7.519  12.053  13.715
78865SOL     OW38426   7.883   4.513  12.662
78865SOL    HW138427   7.808   4.463  12.630
78865SOL    HW238428   7.958   4.475  12.615
78866SOL     OW38429  12.224  11.847  14.819
78866SOL    HW138430  12.279  11.851  14.740
78866SOL    HW238431  12.155  11.911  14.802
78867SOL     OW38432   6.638   8.442  10.803
78867SOL    HW138433   6.686   8.431  10.721
78867SOL    HW238434   6.701   8.416  10.871
78868SOL     OW38435   1.935   5.587   8.715
78868SOL    HW138436   2.027   5.606   8.731
78868SOL    HW238437   1.901   5.666   8.673
78869SOL     OW38438   6.099  11.965  14.828
78869SOL    HW138439   6.100  12.015   0.034
78869SOL    HW238440   6.026  11.904  14.837
78870SOL     OW38441  12.578  12.236  12.809
78870SOL    HW138442  12.565  12.307  12.746
78870SOL    HW238443  12.570  12.279  12.894
78871SOL     OW38444   1.290   7.581   8.110
78871SOL    HW138445   1.241   7.626   8.179
78871SOL    HW238446   1.375   7.563   8.149
78872SOL     OW38447   4.842   5.480   4.791
78872SOL    HW138448   4.833   5.473   4.886
78872SOL    HW238449   4.801   5.563   4.768
78873SOL     OW38450   2.092   1.631   3.539
78873SOL    HW138451   2.176   1.640   3.494
78873SOL    HW238452   2.063   1.721   3.553
78874SOL     OW38453  12.431   9.926  10.223
78874SOL    HW138454  12.414  10.019  10.207
78874SOL    HW238455  12.432   9.917  10.318
78875SOL     OW38456  13.540   7.963   9.271
78875SOL    HW138457  13.627   7.943   9.235
78875SOL    HW238458  13.554   7.967   9.366
78876SOL     OW38459   4.448  12.252   4.689
78876SOL    HW138460   4.385  12.183   4.710
78876SOL    HW238461   4.514  12.246   4.758
78877SOL     OW38462   5.586   1.199  10.785
78877SOL    HW138463   5.493   1.176  10.787
78877SOL    HW238464   5.607   1.208  10.692
78878SOL     OW38465   9.381   7.755   5.199
78878SOL    HW138466   9.387   7.692   5.128
78878SOL    HW238467   9.288   7.764   5.215
78879SOL     OW38468  12.212   6.450   1.861
78879SOL    HW138469  12.190   6.371   1.811
78879SOL    HW238470  12.128   6.479   1.896
78880SOL     OW38471   2.671   2.790  11.991
78880SOL    HW138472   2.595   2.733  11.993
78880SOL    HW238473   2.656   2.848  11.916
78881SOL     OW38474   2.697   2.284  11.513
78881SOL    HW138475   2.643   2.208  11.495
78881SOL    HW238476   2.787   2.254  11.500
78882SOL     OW38477   3.496   5.751   2.377
78882SOL    HW138478   3.537   5.797   2.303
78882SOL    HW238479   3.570   5.717   2.427
78883SOL     OW38480   8.266   4.436   8.189
78883SOL    HW138481   8.323   4.368   8.226
78883SOL    HW238482   8.253   4.498   8.260
78884SOL     OW38483   9.805  13.306  13.121
78884SOL    HW138484   9.716  13.333  13.144
78884SOL    HW238485   9.846  13.286  13.205
78885SOL     OW38486   5.617   1.886  11.831
78885SOL    HW138487   5.666   1.875  11.750
78885SOL    HW238488   5.526   1.895  11.803
78886SOL     OW38489   2.222   7.368   3.822
78886SOL    HW138490   2.297   7.346   3.877
78886SOL    HW238491   2.146   7.344   3.875
78887SOL     OW38492   4.676   3.045   9.464
78887SOL    HW138493   4.755   3.068   9.416
78887SOL    HW238494   4.702   3.045   9.556
78888SOL     OW38495  10.367   5.098   6.380
78888SOL    HW138496  10.394   5.189   6.374
78888SOL    HW238497  10.353   5.071   6.290
78889SOL     OW38498  13.862   5.905  11.042
78889SOL    HW138499  13.779   5.945  11.070
78889SOL    HW238500  13.851   5.894  10.947
78890SOL     OW38501   1.735   5.608  12.201
78890SOL    HW138502   1.743   5.600  12.296
78890SOL    HW238503   1.697   5.524  12.174
78891SOL     OW38504   0.245   9.412   1.758
78891SOL    HW138505   0.181   9.364   1.704
78891SOL    HW238506   0.272   9.349   1.825
78892SOL     OW38507   7.948   3.233   2.163
78892SOL    HW138508   7.903   3.242   2.247
78892SOL    HW238509   7.918   3.308   2.112
78893SOL     OW38510   2.357  10.954   4.466
78893SOL    HW138511   2.277  11.005   4.475
78893SOL    HW238512   2.391  10.947   4.555
78894SOL     OW38513   8.861   5.126   5.705
78894SOL    HW138514   8.827   5.195   5.648
78894SOL    HW238515   8.936   5.091   5.657
78895SOL     OW38516   5.829  14.062  10.020
78895SOL    HW138517   5.756  14.110  10.059
78895SOL    HW238518   5.845  14.107   9.937
78896SOL     OW38519   8.265   8.430   3.792
78896SOL    HW138520   8.278   8.517   3.756
78896SOL    HW238521   8.352   8.403   3.820
78897SOL     OW38522   9.072  11.106   2.382
78897SOL    HW138523   9.107  11.018   2.402
78897SOL    HW238524   9.032  11.135   2.464
78898SOL     OW38525   7.805  11.780   1.921
78898SOL    HW138526   7.742  11.731   1.868
78898SOL    HW238527   7.890  11.759   1.883
78899SOL     OW38528   9.206   9.376   3.871
78899SOL    HW138529   9.180   9.392   3.962
78899SOL    HW238530   9.298   9.350   3.877
78900SOL     OW38531   0.861   3.405   5.286
78900SOL    HW138532   0.956   3.403   5.274
78900SOL    HW238533   0.834   3.487   5.246
78901SOL     OW38534  11.055   3.865   3.695
78901SOL    HW138535  10.998   3.789   3.706
78901SOL    HW238536  11.053   3.910   3.779
78902SOL     OW38537   5.476   5.692   8.967
78902SOL    HW138538   5.540   5.644   9.020
78902SOL    HW238539   5.502   5.674   8.877
78903SOL     OW38540  14.850   4.323   9.569
78903SOL    HW138541   0.003   4.299   9.481
78903SOL    HW238542  14.794   4.399   9.556
78904SOL     OW38543   2.132   3.860   5.793
78904SOL    HW138544   2.157   3.854   5.885
78904SOL    HW238545   2.075   3.785   5.778
78905SOL     OW38546   0.852   7.843  14.332
78905SOL    HW138547   0.782   7.867  14.271
78905SOL    HW238548   0.815   7.859  14.419
78906SOL     OW38549   6.497   4.393   4.768
78906SOL    HW138550   6.481   4.355   4.681
78906SOL    HW238551   6.410   4.407   4.805
78907SOL     OW38552   5.462   4.928   0.040
78907SOL    HW138553   5.521   4.998   0.069
78907SOL    HW238554   5.374   4.961   0.059
78908SOL     OW38555  10.845   5.282   3.668
78908SOL    HW138556  10.811   5.252   3.752
78908SOL    HW238557  10.774   5.335   3.632
78909SOL     OW38558   1.082  14.631  12.573
78909SOL    HW138559   1.085  14.561  12.637
78909SOL    HW238560   1.036  14.593  12.498
78910SOL     OW38561  13.565   5.879   2.863
78910SOL    HW138562  13.657   5.873   2.886
78910SOL    HW238563  13.548   5.800   2.811
78911SOL     OW38564   2.001  11.589   0.514
78911SOL    HW138565   2.063  11.590   0.587
78911SOL    HW238566   1.959  11.675   0.516
78912SOL     OW38567   2.756   3.831  10.931
78912SOL    HW138568   2.797   3.882  11.001
78912SOL    HW238569   2.700   3.894  10.886
78913SOL     OW38570   9.132   2.707  14.466
78913SOL    HW138571   9.084   2.767  14.522
78913SOL    HW238572   9.110   2.620  14.499
78914SOL     OW38573   9.562   7.635   3.361
78914SOL    HW138574   9.543   7.705   3.423
78914SOL    HW238575   9.631   7.670   3.305
78915SOL     OW38576   7.634   6.466   6.391
78915SOL    HW138577   7.562   6.517   6.354
78915SOL    HW238578   7.690   6.531   6.435
78916SOL     OW38579   2.806  11.773   7.862
78916SOL    HW138580   2.899  11.782   7.883
78916SOL    HW238581   2.799  11.688   7.819
78917SOL     OW38582   7.317   2.820   3.818
78917SOL    HW138583   7.268   2.830   3.899
78917SOL    HW238584   7.310   2.727   3.796
78918SOL     OW38585   3.178   6.763  14.412
78918SOL    HW138586   3.262   6.718  14.422
78918SOL    HW238587   3.182   6.802  14.324
78919SOL     OW38588  10.984   7.684  11.182
78919SOL    HW138589  11.025   7.757  11.227
78919SOL    HW238590  11.052   7.617  11.178
78920SOL     OW38591   6.389   1.920  14.695
78920SOL    HW138592   6.374   1.836  14.651
78920SOL    HW238593   6.306   1.966  14.687
78921SOL     OW38594   8.682   3.440   3.738
78921SOL    HW138595   8.685   3.366   3.677
78921SOL    HW238596   8.649   3.513   3.684
78922SOL     OW38597   4.937   1.063  14.102
78922SOL    HW138598   4.994   1.086  14.029
78922SOL    HW238599   4.854   1.039  14.061
78923SOL     OW38600   6.337   4.392   9.528
78923SOL    HW138601   6.363   4.301   9.513
78923SOL    HW238602   6.280   4.413   9.454
78924SOL     OW38603   5.172  10.218   2.749
78924SOL    HW138604   5.244  10.240   2.691
78924SOL    HW238605   5.140  10.134   2.717
78925SOL     OW38606   4.112   8.464   8.779
78925SOL    HW138607   4.138   8.482   8.869
78925SOL    HW238608   4.188   8.489   8.726
78926SOL     OW38609  10.965  10.478   3.007
78926SOL    HW138610  10.905  10.542   2.969
78926SOL    HW238611  10.979  10.414   2.938
78927SOL     OW38612   2.629   8.254  12.919
78927SOL    HW138613   2.704   8.302  12.883
78927SOL    HW238614   2.630   8.171  12.873
78928SOL     OW38615   9.929   4.546  10.700
78928SOL    HW138616   9.932   4.514  10.790
78928SOL    HW238617  10.010   4.596  10.689
78929SOL     OW38618   1.701   9.113   7.022
78929SOL    HW138619   1.648   9.174   7.073
78929SOL    HW238620   1.739   9.166   6.953
78930SOL     OW38621   6.285  12.245   2.120
78930SOL    HW138622   6.197  12.272   2.094
78930SOL    HW238623   6.338  12.258   2.042
78931SOL     OW38624  10.530   2.819   6.802
78931SOL    HW138625  10.577   2.780   6.728
78931SOL    HW238626  10.501   2.904   6.770
78932SOL     OW38627   1.771   0.437  10.165
78932SOL    HW138628   1.735   0.498  10.229
78932SOL    HW238629   1.836   0.386  10.213
78933SOL     OW38630   0.894   0.376  10.775
78933SOL    HW138631   0.938   0.341  10.852
78933SOL    HW238632   0.829   0.309  10.752
78934SOL     OW38633  12.356  11.692  14.401
78934SOL    HW138634  12.426  11.662  14.345
78934SOL    HW238635  12.286  11.719  14.341
78935SOL     OW38636   4.180  12.680  14.612
78935SOL    HW138637   4.188  12.771  14.583
78935SOL    HW238638   4.143  12.634  14.536
78936SOL     OW38639  14.091   8.552  13.569
78936SOL    HW138640  14.148   8.624  13.543
78936SOL    HW238641  14.106   8.485  13.501
78937SOL     OW38642   7.749   1.651   5.172
78937SOL    HW138643   7.734   1.744   5.155
78937SOL    HW238644   7.840   1.636   5.148
78938SOL     OW38645   3.869   5.958   0.695
78938SOL    HW138646   3.962   5.936   0.699
78938SOL    HW238647   3.832   5.896   0.633
78939SOL     OW38648  12.827   1.417  13.559
78939SOL    HW138649  12.885   1.493  13.558
78939SOL    HW238650  12.741   1.452  13.536
78940SOL     OW38651   1.682   9.363   7.623
78940SOL    HW138652   1.696   9.402   7.536
78940SOL    HW238653   1.691   9.269   7.608
78941SOL     OW38654   7.940   2.012   8.717
78941SOL    HW138655   7.973   2.016   8.807
78941SOL    HW238656   7.929   1.919   8.699
78942SOL     OW38657   2.459   7.328  10.099
78942SOL    HW138658   2.436   7.377  10.020
78942SOL    HW238659   2.507   7.251  10.067
78943SOL     OW38660   4.842   5.421   8.780
78943SOL    HW138661   4.891   5.490   8.736
78943SOL    HW238662   4.888   5.340   8.756
78944SOL     OW38663  14.403   6.639   2.525
78944SOL    HW138664  14.318   6.647   2.482
78944SOL    HW238665  14.467   6.646   2.454
78945SOL     OW38666  13.744   8.679   1.514
78945SOL    HW138667  13.668   8.642   1.559
78945SOL    HW238668  13.784   8.605   1.469
78946SOL     OW38669   2.214  10.256  11.403
78946SOL    HW138670   2.225  10.346  11.434
78946SOL    HW238671   2.123  10.235  11.421
78947SOL     OW38672  12.119   2.795   9.842
78947SOL    HW138673  12.070   2.739   9.903
78947SOL    HW238674  12.208   2.762   9.846
78948SOL     OW38675  10.608  12.631   6.734
78948SOL    HW138676  10.628  12.660   6.823
78948SOL    HW238677  10.521  12.667   6.716
78949SOL     OW38678  14.391   7.283   2.675
78949SOL    HW138679  14.314   7.229   2.695
78949SOL    HW238680  14.440   7.286   2.757
78950SOL     OW38681   9.482   2.891   0.039
78950SOL    HW138682   9.562   2.912   0.089
78950SOL    HW238683   9.412   2.899   0.104
78951SOL     OW38684   6.850   7.212   0.402
78951SOL    HW138685   6.787   7.178   0.338
78951SOL    HW238686   6.817   7.298   0.426
78952SOL     OW38687  13.169   1.722  14.025
78952SOL    HW138688  13.182   1.757  14.113
78952SOL    HW238689  13.075   1.733  14.009
78953SOL     OW38690   1.782   3.219   5.873
78953SOL    HW138691   1.755   3.161   5.801
78953SOL    HW238692   1.708   3.216   5.934
78954SOL     OW38693   6.305   6.223   4.986
78954SOL    HW138694   6.396   6.228   5.016
78954SOL    HW238695   6.252   6.226   5.065
78955SOL     OW38696   3.881  14.519   6.204
78955SOL    HW138697   3.895  14.613   6.221
78955SOL    HW238698   3.864  14.482   6.291
78956SOL     OW38699  14.780  14.407  13.640
78956SOL    HW138700  14.782  14.380  13.549
78956SOL    HW238701  14.744  14.332  13.687
78957SOL     OW38702   8.532  12.873  12.424
78957SOL    HW138703   8.444  12.848  12.452
78957SOL    HW238704   8.526  12.966  12.406
78958SOL     OW38705   2.550   0.426   8.177
78958SOL    HW138706   2.603   0.348   8.165
78958SOL    HW238707   2.484   0.422   8.107
78959SOL     OW38708   5.479  11.973   9.430
78959SOL    HW138709   5.518  11.895   9.469
78959SOL    HW238710   5.543  12.043   9.446
78960SOL     OW38711  11.978   2.605   9.977
78960SOL    HW138712  11.945   2.660  10.048
78960SOL    HW238713  11.961   2.516  10.006
78961SOL     OW38714   3.073   0.862   9.648
78961SOL    HW138715   3.115   0.804   9.585
78961SOL    HW238716   3.030   0.929   9.595
78962SOL     OW38717   9.957   5.525   6.289
78962SOL    HW138718  10.019   5.493   6.223
78962SOL    HW238719   9.990   5.491   6.372
78963SOL     OW38720   6.290   0.290   7.513
78963SOL    HW138721   6.317   0.377   7.542
78963SOL    HW238722   6.238   0.305   7.434
78964SOL     OW38723   9.937   9.371   1.325
78964SOL    HW138724   9.924   9.415   1.241
78964SOL    HW238725   9.879   9.417   1.386
78965SOL     OW38726   0.191  12.474   9.378
78965SOL    HW138727   0.282  12.501   9.369
78965SOL    HW238728   0.142  12.556   9.380
78966SOL     OW38729   8.200   6.771   3.099
78966SOL    HW138730   8.131   6.821   3.054
78966SOL    HW238731   8.163   6.684   3.112
78967SOL     OW38732  12.915   1.245  11.627
78967SOL    HW138733  12.891   1.231  11.719
78967SOL    HW238734  12.887   1.165  11.583
78968SOL     OW38735   9.133   7.574   0.000
78968SOL    HW138736   9.052   7.587  14.827
78968SOL    HW238737   9.195   7.635  14.837
78969SOL     OW38738  14.502   8.069   4.690
78969SOL    HW138739  14.494   8.056   4.596
78969SOL    HW238740  14.427   8.124   4.713
78970SOL     OW38741   5.974   1.862  12.343
78970SOL    HW138742   5.993   1.870  12.436
78970SOL    HW238743   5.951   1.951  12.315
78971SOL     OW38744   9.557   0.737   0.301
78971SOL    HW138745   9.562   0.718   0.395
78971SOL    HW238746   9.647   0.730   0.270
78972SOL     OW38747  13.908  13.518  10.577
78972SOL    HW138748  13.861  13.485  10.501
78972SOL    HW238749  13.955  13.442  10.611
78973SOL     OW38750   0.379   4.088   0.140
78973SOL    HW138751   0.471   4.066   0.158
78973SOL    HW238752   0.337   4.084   0.226
78974SOL     OW38753   0.409   7.802   5.758
78974SOL    HW138754   0.471   7.786   5.686
78974SOL    HW238755   0.323   7.797   5.717
78975SOL     OW38756  12.135  11.282  13.976
78975SOL    HW138757  12.217  11.267  13.928
78975SOL    HW238758  12.153  11.359  14.030
78976SOL     OW38759   1.217   9.110  13.517
78976SOL    HW138760   1.195   9.168  13.590
78976SOL    HW238761   1.277   9.045  13.554
78977SOL     OW38762  11.296  11.387   0.286
78977SOL    HW138763  11.282  11.326   0.359
78977SOL    HW238764  11.242  11.463   0.308
78978SOL     OW38765   2.751   9.297   7.950
78978SOL    HW138766   2.709   9.239   8.014
78978SOL    HW238767   2.773   9.376   8.000
78979SOL     OW38768   4.039   1.896  14.159
78979SOL    HW138769   3.966   1.894  14.221
78979SOL    HW238770   4.030   1.816  14.109
78980SOL     OW38771   5.472   6.609   5.711
78980SOL    HW138772   5.439   6.698   5.698
78980SOL    HW238773   5.560   6.621   5.748
78981SOL     OW38774   2.697   9.286   3.472
78981SOL    HW138775   2.707   9.377   3.445
78981SOL    HW238776   2.627   9.289   3.538
78982SOL     OW38777  10.832   1.509   7.272
78982SOL    HW138778  10.787   1.522   7.188
78982SOL    HW238779  10.793   1.576   7.330
78983SOL     OW38780   5.355  10.318   8.996
78983SOL    HW138781   5.285  10.382   9.005
78983SOL    HW238782   5.418  10.341   9.065
78984SOL     OW38783   4.309  14.291   0.241
78984SOL    HW138784   4.258  14.272   0.320
78984SOL    HW238785   4.249  14.274   0.168
78985SOL     OW38786  10.373   1.414  12.009
78985SOL    HW138787  10.297   1.403  12.066
78985SOL    HW238788  10.437   1.460  12.064
78986SOL     OW38789   5.653   3.694   3.820
78986SOL    HW138790   5.620   3.654   3.900
78986SOL    HW238791   5.575   3.723   3.773
78987SOL     OW38792   6.632   8.412   8.201
78987SOL    HW138793   6.595   8.365   8.276
78987SOL    HW238794   6.571   8.394   8.130
78988SOL     OW38795   2.940  12.526   5.915
78988SOL    HW138796   2.885  12.594   5.877
78988SOL    HW238797   2.996  12.497   5.843
78989SOL     OW38798   7.042  12.707  10.539
78989SOL    HW138799   7.127  12.701  10.583
78989SOL    HW238800   7.024  12.801  10.535
78990SOL     OW38801  13.277   2.954   9.691
78990SOL    HW138802  13.336   3.024   9.661
78990SOL    HW238803  13.305   2.877   9.643
78991SOL     OW38804   6.270  12.902   5.307
78991SOL    HW138805   6.222  12.863   5.380
78991SOL    HW238806   6.271  12.833   5.240
78992SOL     OW38807   0.951   3.651   5.781
78992SOL    HW138808   0.883   3.622   5.720
78992SOL    HW238809   0.926   3.741   5.803
78993SOL     OW38810   3.127   6.680  12.918
78993SOL    HW138811   3.087   6.594  12.906
78993SOL    HW238812   3.187   6.688  12.844
78994SOL     OW38813   0.000   7.146  13.164
78994SOL    HW138814  14.847   7.076  13.106
78994SOL    HW238815  14.845   7.226  13.121
78995SOL     OW38816   9.219   1.165  12.133
78995SOL    HW138817   9.166   1.149  12.211
78995SOL    HW238818   9.296   1.109  12.144
78996SOL     OW38819   2.771   5.352   9.142
78996SOL    HW138820   2.702   5.330   9.079
78996SOL    HW238821   2.849   5.366   9.088
78997SOL     OW38822   9.000  14.483   2.378
78997SOL    HW138823   9.058  14.421   2.421
78997SOL    HW238824   9.051  14.517   2.304
78998SOL     OW38825   4.358   9.311  11.625
78998SOL    HW138826   4.424   9.272  11.568
78998SOL    HW238827   4.398   9.393  11.655
78999SOL     OW38828  11.883   9.851  13.649
78999SOL    HW138829  11.807   9.821  13.598
78999SOL    HW238830  11.866   9.819  13.737
79000SOL     OW38831   4.704   3.495   7.979
79000SOL    HW138832   4.776   3.541   8.024
79000SOL    HW238833   4.693   3.414   8.028
79001SOL     OW38834   4.510  14.120   2.962
79001SOL    HW138835   4.416  14.136   2.971
79001SOL    HW238836   4.528  14.049   3.023
79002SOL     OW38837   7.751   2.762   1.343
79002SOL    HW138838   7.793   2.828   1.397
79002SOL    HW238839   7.747   2.801   1.255
79003SOL     OW38840   4.123   3.287   9.009
79003SOL    HW138841   4.207   3.245   9.030
79003SOL    HW238842   4.074   3.219   8.962
79004SOL     OW38843  13.966  13.381  10.829
79004SOL    HW138844  13.894  13.444  10.837
79004SOL    HW238845  13.978  13.347  10.918
79005SOL     OW38846   7.626   7.936   6.707
79005SOL    HW138847   7.563   7.866   6.719
79005SOL    HW238848   7.579   8.004   6.659
79006SOL     OW38849  14.084  14.212   2.427
79006SOL    HW138850  14.043  14.143   2.375
79006SOL    HW238851  14.097  14.283   2.365
79007SOL     OW38852   2.960  11.450   3.594
79007SOL    HW138853   2.876  11.427   3.554
79007SOL    HW238854   3.023  11.392   3.553
79008SOL     OW38855   8.100   9.227  10.153
79008SOL    HW138856   8.008   9.215  10.128
79008SOL    HW238857   8.101   9.308  10.204
79009SOL     OW38858  12.927  14.862  10.154
79009SOL    HW138859  12.938  14.779  10.107
79009SOL    HW238860  13.016   0.016  10.171
79010SOL     OW38861   1.417   3.736   7.727
79010SOL    HW138862   1.468   3.810   7.692
79010SOL    HW238863   1.420   3.670   7.658
79011SOL     OW38864   8.668  10.469  13.352
79011SOL    HW138865   8.573  10.470  13.342
79011SOL    HW238866   8.682  10.455  13.446
79012SOL     OW38867   3.942  14.298   3.864
79012SOL    HW138868   3.903  14.278   3.949
79012SOL    HW238869   3.873  14.279   3.801
79013SOL     OW38870   3.686   7.358   7.633
79013SOL    HW138871   3.603   7.333   7.590
79013SOL    HW238872   3.673   7.449   7.660
79014SOL     OW38873   9.297  10.899  14.126
79014SOL    HW138874   9.203  10.890  14.140
79014SOL    HW238875   9.304  10.938  14.039
79015SOL     OW38876   6.085   6.819   4.591
79015SOL    HW138877   6.134   6.738   4.607
79015SOL    HW238878   6.135   6.887   4.637
79016SOL     OW38879  11.921   5.157  14.312
79016SOL    HW138880  11.991   5.161  14.247
79016SOL    HW238881  11.941   5.228  14.373
79017SOL     OW38882   2.502   4.222   2.849
79017SOL    HW138883   2.472   4.143   2.893
79017SOL    HW238884   2.427   4.249   2.795
79018SOL     OW38885  10.614   3.511  11.892
79018SOL    HW138886  10.612   3.452  11.816
79018SOL    HW238887  10.666   3.464  11.957
79019SOL     OW38888   6.924  14.027   6.389
79019SOL    HW138889   6.939  14.109   6.343
79019SOL    HW238890   6.853  14.046   6.450
79020SOL     OW38891  11.065   0.242  10.903
79020SOL    HW138892  11.097   0.186  10.973
79020SOL    HW238893  10.969   0.236  10.908
79021SOL     OW38894   1.039   9.565  12.647
79021SOL    HW138895   1.088   9.490  12.614
79021SOL    HW238896   0.965   9.527  12.694
79022SOL     OW38897   6.932  13.578  13.747
79022SOL    HW138898   6.936  13.558  13.654
79022SOL    HW238899   6.876  13.656  13.753
79023SOL     OW38900  11.665   7.065  11.500
79023SOL    HW138901  11.716   7.034  11.425
79023SOL    HW238902  11.690   7.157  11.509
79024SOL     OW38903  13.349   8.501  13.634
79024SOL    HW138904  13.363   8.479  13.726
79024SOL    HW238905  13.380   8.592  13.626
79025SOL     OW38906   5.734  12.485  11.014
79025SOL    HW138907   5.769  12.396  11.013
79025SOL    HW238908   5.800  12.536  11.061
79026SOL     OW38909   3.950  13.650   5.117
79026SOL    HW138910   3.859  13.665   5.141
79026SOL    HW238911   3.954  13.558   5.093
79027SOL     OW38912  13.099   8.058   1.122
79027SOL    HW138913  13.166   7.992   1.107
79027SOL    HW238914  13.136   8.139   1.086
79028SOL     OW38915  13.445   7.375  14.528
79028SOL    HW138916  13.415   7.437  14.594
79028SOL    HW238917  13.374   7.372  14.464
79029SOL     OW38918  14.257   6.516   9.435
79029SOL    HW138919  14.282   6.592   9.382
79029SOL    HW238920  14.189   6.549   9.494
79030SOL     OW38921   7.641  12.954   6.683
79030SOL    HW138922   7.651  12.960   6.588
79030SOL    HW238923   7.606  12.866   6.697
79031SOL     OW38924   0.696   0.232   7.639
79031SOL    HW138925   0.673   0.190   7.723
79031SOL    HW238926   0.626   0.206   7.580
79032SOL     OW38927  13.095  12.906  10.486
79032SOL    HW138928  13.143  12.841  10.539
79032SOL    HW238929  13.050  12.853  10.419
79033SOL     OW38930   9.144  14.062   2.344
79033SOL    HW138931   9.188  13.995   2.291
79033SOL    HW238932   9.154  14.032   2.434
79034SOL     OW38933  10.096  12.935  10.496
79034SOL    HW138934  10.047  12.869  10.445
79034SOL    HW238935  10.084  13.016  10.446
79035SOL     OW38936   3.486   8.804   5.178
79035SOL    HW138937   3.443   8.718   5.180
79035SOL    HW238938   3.576   8.787   5.205
79036SOL     OW38939   5.486   6.289  11.183
79036SOL    HW138940   5.404   6.253  11.217
79036SOL    HW238941   5.466   6.313  11.093
79037SOL     OW38942   1.534   4.797  14.445
79037SOL    HW138943   1.609   4.738  14.449
79037SOL    HW238944   1.509   4.810  14.536
79038SOL     OW38945  12.790  13.015   2.258
79038SOL    HW138946  12.762  12.967   2.336
79038SOL    HW238947  12.885  13.021   2.267
79039SOL     OW38948  13.108  11.443  12.730
79039SOL    HW138949  13.113  11.375  12.664
79039SOL    HW238950  13.157  11.517  12.693
79040SOL     OW38951   8.292   1.191  10.501
79040SOL    HW138952   8.260   1.244  10.573
79040SOL    HW238953   8.268   1.240  10.422
79041SOL     OW38954   2.828  13.563   8.312
79041SOL    HW138955   2.920  13.589   8.306
79041SOL    HW238956   2.780  13.639   8.279
79042SOL     OW38957   7.955  12.717   9.288
79042SOL    HW138958   7.864  12.710   9.316
79042SOL    HW238959   8.001  12.751   9.364
79043SOL     OW38960   9.846   4.866  10.825
79043SOL    HW138961   9.906   4.803  10.785
79043SOL    HW238962   9.770   4.813  10.851
79044SOL     OW38963  12.339   6.927   2.241
79044SOL    HW138964  12.324   6.836   2.218
79044SOL    HW238965  12.434   6.938   2.233
79045SOL     OW38966   7.314   8.650   3.399
79045SOL    HW138967   7.286   8.565   3.367
79045SOL    HW238968   7.400   8.634   3.438
79046SOL     OW38969   0.370   0.822  10.441
79046SOL    HW138970   0.455   0.820  10.485
79046SOL    HW238971   0.343   0.914  10.445
79047SOL     OW38972   5.873  12.526   2.926
79047SOL    HW138973   5.883  12.431   2.922
79047SOL    HW238974   5.779  12.540   2.934
79048SOL     OW38975   5.943   4.142   5.342
79048SOL    HW138976   6.001   4.142   5.419
79048SOL    HW238977   5.960   4.226   5.300
79049SOL     OW38978  11.650  13.223   7.015
79049SOL    HW138979  11.639  13.167   6.938
79049SOL    HW238980  11.620  13.309   6.985
79050SOL     OW38981   0.552  13.930   2.772
79050SOL    HW138982   0.574  14.019   2.745
79050SOL    HW238983   0.616  13.875   2.728
79051SOL     OW38984   9.491   3.738  10.399
79051SOL    HW138985   9.437   3.795  10.454
79051SOL    HW238986   9.492   3.781  10.314
79052SOL     OW38987  11.372   2.809   5.566
79052SOL    HW138988  11.347   2.721   5.537
79052SOL    HW238989  11.383   2.800   5.661
79053SOL     OW38990  12.935   2.831   3.966
79053SOL    HW138991  12.896   2.915   3.990
79053SOL    HW238992  13.026   2.838   3.998
79054SOL     OW38993   6.385  11.354   0.889
79054SOL    HW138994   6.377  11.439   0.846
79054SOL    HW238995   6.442  11.304   0.831
79055SOL     OW38996  11.838   8.947   5.940
79055SOL    HW138997  11.895   8.870   5.942
79055SOL    HW238998  11.780   8.936   6.015
79056SOL     OW38999  13.480  14.113   5.112
79056SOL    HW139000  13.410  14.161   5.067
79056SOL    HW239001  13.550  14.178   5.122
79057SOL     OW39002   7.772   9.215   7.288
79057SOL    HW139003   7.700   9.274   7.264
79057SOL    HW239004   7.742   9.171   7.367
79058SOL     OW39005   9.530  14.156   1.508
79058SOL    HW139006   9.563  14.102   1.581
79058SOL    HW239007   9.571  14.241   1.522
79059SOL     OW39008  12.863   5.590  14.756
79059SOL    HW139009  12.909   5.663  14.716
79059SOL    HW239010  12.879   5.599  14.850
79060SOL     OW39011  12.432   4.262  11.678
79060SOL    HW139012  12.453   4.284  11.769
79060SOL    HW239013  12.381   4.182  11.684
79061SOL     OW39014   0.604   5.649   5.695
79061SOL    HW139015   0.640   5.731   5.729
79061SOL    HW239016   0.568   5.605   5.772
79062SOL     OW39017   5.884   3.013   8.184
79062SOL    HW139018   5.842   2.930   8.205
79062SOL    HW239019   5.967   2.989   8.144
79063SOL     OW39020   7.436  13.124   5.704
79063SOL    HW139021   7.373  13.125   5.632
79063SOL    HW239022   7.413  13.044   5.753
79064SOL     OW39023  12.789   6.390   5.194
79064SOL    HW139024  12.838   6.442   5.130
79064SOL    HW239025  12.818   6.424   5.279
79065SOL     OW39026   7.266   9.500   9.086
79065SOL    HW139027   7.343   9.557   9.091
79065SOL    HW239028   7.256   9.466   9.175
79066SOL     OW39029   6.503   4.756   7.562
79066SOL    HW139030   6.422   4.725   7.603
79066SOL    HW239031   6.567   4.687   7.578
79067SOL     OW39032   2.541  14.261  13.711
79067SOL    HW139033   2.569  14.195  13.648
79067SOL    HW239034   2.456  14.291  13.678
79068SOL     OW39035  11.605   8.908  14.665
79068SOL    HW139036  11.561   8.989  14.639
79068SOL    HW239037  11.697   8.932  14.674
79069SOL     OW39038  10.669  10.162  11.073
79069SOL    HW139039  10.761  10.153  11.099
79069SOL    HW239040  10.621  10.171  11.155
79070SOL     OW39041   9.567   6.398   1.083
79070SOL    HW139042   9.500   6.456   1.120
79070SOL    HW239043   9.637   6.457   1.056
79071SOL     OW39044  10.162   0.646   5.362
79071SOL    HW139045  10.193   0.622   5.449
79071SOL    HW239046  10.079   0.601   5.352
79072SOL     OW39047  12.464  14.809   9.889
79072SOL    HW139048  12.521  14.816   9.812
79072SOL    HW239049  12.524  14.798   9.963
79073SOL     OW39050   0.811  12.869   9.521
79073SOL    HW139051   0.810  12.962   9.502
79073SOL    HW239052   0.895  12.838   9.488
79074SOL     OW39053  12.580   7.279  11.702
79074SOL    HW139054  12.662   7.328  11.693
79074SOL    HW239055  12.519   7.343  11.739
79075SOL     OW39056  13.632   7.141   7.080
79075SOL    HW139057  13.579   7.062   7.089
79075SOL    HW239058  13.623   7.165   6.987
79076SOL     OW39059   9.238   5.199   3.280
79076SOL    HW139060   9.161   5.141   3.280
79076SOL    HW239061   9.279   5.185   3.195
79077SOL     OW39062   4.636   0.260   8.894
79077SOL    HW139063   4.712   0.318   8.892
79077SOL    HW239064   4.649   0.205   8.971
79078SOL     OW39065  12.788   5.923   7.792
79078SOL    HW139066  12.768   5.830   7.798
79078SOL    HW239067  12.720   5.959   7.735
79079SOL     OW39068  14.571   0.131  12.436
79079SOL    HW139069  14.490   0.181  12.429
79079SOL    HW239070  14.639   0.189  12.401
79080SOL     OW39071   3.117   4.423   7.186
79080SOL    HW139072   3.180   4.378   7.130
79080SOL    HW239073   3.159   4.426   7.272
79081SOL     OW39074  12.212   3.703   1.738
79081SOL    HW139075  12.244   3.771   1.798
79081SOL    HW239076  12.146   3.748   1.686
79082SOL     OW39077  13.255   6.477   3.593
79082SOL    HW139078  13.263   6.429   3.675
79082SOL    HW239079  13.329   6.447   3.540
79083SOL     OW39080   4.464   5.203   7.044
79083SOL    HW139081   4.498   5.279   6.996
79083SOL    HW239082   4.508   5.206   7.128
79084SOL     OW39083   4.052   3.400  10.744
79084SOL    HW139084   4.125   3.340  10.759
79084SOL    HW239085   4.057   3.422  10.651
79085SOL     OW39086   0.478  10.431   8.586
79085SOL    HW139087   0.395  10.457   8.626
79085SOL    HW239088   0.506  10.355   8.637
79086SOL     OW39089  10.209   5.760   9.008
79086SOL    HW139090  10.167   5.823   9.066
79086SOL    HW239091  10.294   5.743   9.049
79087SOL     OW39092   7.738   1.938   9.363
79087SOL    HW139093   7.754   2.006   9.298
79087SOL    HW239094   7.647   1.913   9.350
79088SOL     OW39095   3.947   0.951   7.584
79088SOL    HW139096   3.899   0.973   7.664
79088SOL    HW239097   3.880   0.931   7.519
79089SOL     OW39098  14.459   8.007   6.930
79089SOL    HW139099  14.396   8.079   6.923
79089SOL    HW239100  14.528   8.029   6.868
79090SOL     OW39101   0.747   2.879   4.201
79090SOL    HW139102   0.658   2.854   4.179
79090SOL    HW239103   0.781   2.918   4.120
79091SOL     OW39104   5.016   7.614   6.839
79091SOL    HW139105   5.095   7.643   6.884
79091SOL    HW239106   5.002   7.678   6.770
79092SOL     OW39107   8.549  13.035   4.004
79092SOL    HW139108   8.572  13.110   4.058
79092SOL    HW239109   8.460  13.053   3.974
79093SOL     OW39110   3.842   1.873   1.965
79093SOL    HW139111   3.866   1.895   1.875
79093SOL    HW239112   3.858   1.779   1.972
79094SOL     OW39113  10.524   3.729   4.849
79094SOL    HW139114  10.486   3.763   4.768
79094SOL    HW239115  10.462   3.662   4.878
79095SOL     OW39116   9.954   7.476  12.045
79095SOL    HW139117   9.887   7.408  12.055
79095SOL    HW239118   9.919   7.533  11.976
79096SOL     OW39119  12.146  14.472   4.542
79096SOL    HW139120  12.120  14.547   4.595
79096SOL    HW239121  12.242  14.470   4.549
79097SOL     OW39122  14.429   5.914  12.705
79097SOL    HW139123  14.458   5.926  12.614
79097SOL    HW239124  14.352   5.858  12.698
79098SOL     OW39125   5.645   6.736   7.575
79098SOL    HW139126   5.565   6.729   7.627
79098SOL    HW239127   5.664   6.830   7.575
79099SOL     OW39128   7.936   4.502   5.927
79099SOL    HW139129   7.948   4.431   5.864
79099SOL    HW239130   7.845   4.492   5.957
79100SOL     OW39131   4.661   4.452   3.645
79100SOL    HW139132   4.643   4.541   3.674
79100SOL    HW239133   4.591   4.433   3.582
79101SOL     OW39134   7.118   1.931   2.224
79101SOL    HW139135   7.151   1.900   2.140
79101SOL    HW239136   7.099   1.852   2.273
79102SOL     OW39137   3.423   5.559   3.251
79102SOL    HW139138   3.470   5.519   3.324
79102SOL    HW239139   3.457   5.649   3.248
79103SOL     OW39140   0.080   9.522   8.599
79103SOL    HW139141   0.142   9.584   8.561
79103SOL    HW239142  14.870   9.562   8.585
79104SOL     OW39143  13.525   6.088   6.241
79104SOL    HW139144  13.595   6.132   6.193
79104SOL    HW239145  13.567   6.012   6.281
79105SOL     OW39146   8.965  11.686   8.359
79105SOL    HW139147   8.872  11.669   8.374
79105SOL    HW239148   9.008  11.604   8.384
79106SOL     OW39149   9.621  12.514   1.546
79106SOL    HW139150   9.543  12.538   1.498
79106SOL    HW239151   9.609  12.553   1.633
79107SOL     OW39152   4.642  11.470  10.339
79107SOL    HW139153   4.575  11.535  10.362
79107SOL    HW239154   4.600  11.414  10.274
79108SOL     OW39155   1.243  12.853  11.319
79108SOL    HW139156   1.330  12.878  11.349
79108SOL    HW239157   1.242  12.757  11.324
79109SOL     OW39158   2.916   9.568  13.621
79109SOL    HW139159   2.904   9.476  13.599
79109SOL    HW239160   2.943   9.568  13.713
79110SOL     OW39161   2.372  12.848  12.617
79110SOL    HW139162   2.419  12.792  12.555
79110SOL    HW239163   2.279  12.826  12.604
79111SOL     OW39164  10.141   3.632   1.605
79111SOL    HW139165  10.117   3.674   1.688
79111SOL    HW239166  10.118   3.696   1.538
79112SOL     OW39167   6.342   8.581   2.739
79112SOL    HW139168   6.375   8.494   2.762
79112SOL    HW239169   6.253   8.583   2.773
79113SOL     OW39170   7.772   4.875   8.689
79113SOL    HW139171   7.789   4.786   8.660
79113SOL    HW239172   7.725   4.866   8.771
79114SOL     OW39173  13.483   6.802   2.136
79114SOL    HW139174  13.463   6.775   2.226
79114SOL    HW239175  13.535   6.730   2.101
79115SOL     OW39176   8.564   1.009  13.012
79115SOL    HW139177   8.527   1.060  13.083
79115SOL    HW239178   8.659   1.013  13.027
79116SOL     OW39179   5.208   3.419  12.228
79116SOL    HW139180   5.120   3.396  12.198
79116SOL    HW239181   5.230   3.498  12.179
79117SOL     OW39182  11.427  13.373  11.471
79117SOL    HW139183  11.364  13.314  11.428
79117SOL    HW239184  11.510  13.327  11.465
79118SOL     OW39185   6.741   2.366  10.212
79118SOL    HW139186   6.815   2.313  10.181
79118SOL    HW239187   6.756   2.376  10.306
79119SOL     OW39188   6.764   7.159   2.638
79119SOL    HW139189   6.832   7.099   2.609
79119SOL    HW239190   6.693   7.149   2.575
79120SOL     OW39191   8.463   8.648  14.602
79120SOL    HW139192   8.550   8.608  14.598
79120SOL    HW239193   8.474   8.733  14.558
79121SOL     OW39194   1.088  11.542  10.213
79121SOL    HW139195   1.136  11.503  10.140
79121SOL    HW239196   1.094  11.637  10.198
79122SOL     OW39197   3.777   5.020  12.834
79122SOL    HW139198   3.720   5.015  12.757
79122SOL    HW239199   3.778   5.113  12.857
79123SOL     OW39200  10.362  10.616   8.447
79123SOL    HW139201  10.275  10.593   8.416
79123SOL    HW239202  10.349  10.697   8.496
79124SOL     OW39203   0.563  10.773  12.226
79124SOL    HW139204   0.468  10.778  12.226
79124SOL    HW239205   0.585  10.728  12.308
79125SOL     OW39206   4.179   2.741  13.938
79125SOL    HW139207   4.179   2.816  13.878
79125SOL    HW239208   4.143   2.669  13.886
79126SOL     OW39209  11.671  13.483   4.214
79126SOL    HW139210  11.738  13.416   4.227
79126SOL    HW239211  11.693  13.525   4.131
79127SOL     OW39212   1.882   6.558   1.098
79127SOL    HW139213   1.968   6.525   1.070
79127SOL    HW239214   1.889   6.653   1.093
79128SOL     OW39215   0.068   6.269  13.809
79128SOL    HW139216   0.110   6.203  13.753
79128SOL    HW239217   0.126   6.274  13.885
79129SOL     OW39218   7.527  12.249  14.404
79129SOL    HW139219   7.597  12.263  14.468
79129SOL    HW239220   7.483  12.170  14.434
79130SOL     OW39221   9.962  12.390   8.752
79130SOL    HW139222   9.892  12.421   8.808
79130SOL    HW239223   9.945  12.430   8.667
79131SOL     OW39224   8.330   0.362   6.035
79131SOL    HW139225   8.292   0.337   6.119
79131SOL    HW239226   8.269   0.325   5.970
79132SOL     OW39227   3.830   3.309  14.097
79132SOL    HW139228   3.764   3.375  14.120
79132SOL    HW239229   3.858   3.273  14.181
79133SOL     OW39230  12.172   8.600   3.269
79133SOL    HW139231  12.130   8.646   3.342
79133SOL    HW239232  12.123   8.626   3.192
79134SOL     OW39233   7.828  13.643   5.834
79134SOL    HW139234   7.779  13.561   5.826
79134SOL    HW239235   7.852  13.665   5.744
79135SOL     OW39236  11.846   7.862   8.824
79135SOL    HW139237  11.913   7.920   8.858
79135SOL    HW239238  11.774   7.868   8.887
79136SOL     OW39239   5.514   4.742   5.306
79136SOL    HW139240   5.571   4.817   5.285
79136SOL    HW239241   5.557   4.700   5.380
79137SOL     OW39242  10.781   2.345   1.899
79137SOL    HW139243  10.712   2.370   1.837
79137SOL    HW239244  10.739   2.351   1.985
79138SOL     OW39245   9.192  12.199  12.084
79138SOL    HW139246   9.098  12.198  12.064
79138SOL    HW239247   9.226  12.273  12.034
79139SOL     OW39248   0.107  12.171  12.042
79139SOL    HW139249   0.175  12.219  12.088
79139SOL    HW239250   0.085  12.099  12.100
79140SOL     OW39251   3.593   7.180   2.284
79140SOL    HW139252   3.515   7.125   2.279
79140SOL    HW239253   3.565   7.256   2.335
79141SOL     OW39254   1.924  10.340   7.640
79141SOL    HW139255   1.907  10.413   7.699
79141SOL    HW239256   1.864  10.271   7.669
79142SOL     OW39257   6.693  12.377   3.226
79142SOL    HW139258   6.701  12.421   3.310
79142SOL    HW239259   6.731  12.437   3.162
79143SOL     OW39260   8.296  12.807   6.764
79143SOL    HW139261   8.330  12.886   6.807
79143SOL    HW239262   8.347  12.800   6.684
79144SOL     OW39263   8.409   1.027   6.405
79144SOL    HW139264   8.371   1.115   6.408
79144SOL    HW239265   8.498   1.041   6.371
79145SOL     OW39266  14.492  11.989   7.570
79145SOL    HW139267  14.562  11.939   7.614
79145SOL    HW239268  14.431  11.922   7.539
79146SOL     OW39269   1.605   7.198  11.561
79146SOL    HW139270   1.663   7.133  11.523
79146SOL    HW239271   1.517   7.166  11.542
79147SOL     OW39272   3.189   7.454   0.737
79147SOL    HW139273   3.159   7.473   0.648
79147SOL    HW239274   3.274   7.412   0.725
79148SOL     OW39275   5.378   2.478   0.091
79148SOL    HW139276   5.471   2.501   0.099
79148SOL    HW239277   5.360   2.425   0.168
79149SOL     OW39278   5.019   3.663   3.956
79149SOL    HW139279   4.991   3.675   4.046
79149SOL    HW239280   5.027   3.568   3.946
79150SOL     OW39281   8.931   6.556   6.654
79150SOL    HW139282   9.007   6.501   6.634
79150SOL    HW239283   8.866   6.532   6.588
79151SOL     OW39284   9.564   3.881   2.627
79151SOL    HW139285   9.522   3.914   2.548
79151SOL    HW239286   9.577   3.959   2.682
79152SOL     OW39287  14.312  10.886  14.192
79152SOL    HW139288  14.338  10.978  14.190
79152SOL    HW239289  14.281  10.871  14.281
79153SOL     OW39290  11.991   3.538   3.985
79153SOL    HW139291  11.911   3.504   3.944
79153SOL    HW239292  11.961   3.615   4.034
79154SOL     OW39293  12.081   3.949   9.067
79154SOL    HW139294  12.046   3.861   9.056
79154SOL    HW239295  12.004   4.005   9.081
79155SOL     OW39296  13.264   5.274  14.203
79155SOL    HW139297  13.339   5.218  14.222
79155SOL    HW239298  13.193   5.237  14.255
79156SOL     OW39299   1.538  11.422   3.699
79156SOL    HW139300   1.482  11.446   3.625
79156SOL    HW239301   1.541  11.327   3.697
79157SOL     OW39302  11.717   5.188  12.733
79157SOL    HW139303  11.624   5.171  12.718
79157SOL    HW239304  11.762   5.138  12.664
79158SOL     OW39305   4.625   9.416  14.835
79158SOL    HW139306   4.692   9.430   0.026
79158SOL    HW239307   4.555   9.369   0.005
79159SOL     OW39308  10.951   1.635   3.730
79159SOL    HW139309  11.045   1.620   3.738
79159SOL    HW239310  10.912   1.571   3.790
79160SOL     OW39311  14.231   6.785  12.567
79160SOL    HW139312  14.284   6.737  12.632
79160SOL    HW239313  14.266   6.758  12.483
79161SOL     OW39314   3.396   2.527  14.188
79161SOL    HW139315   3.482   2.551  14.154
79161SOL    HW239316   3.409   2.519  14.283
79162SOL     OW39317   9.331   8.062   2.879
79162SOL    HW139318   9.302   8.080   2.969
79162SOL    HW239319   9.373   8.143   2.851
79163SOL     OW39320  13.315  12.990   3.833
79163SOL    HW139321  13.303  13.082   3.857
79163SOL    HW239322  13.366  12.953   3.905
79164SOL     OW39323  11.002  11.728   1.942
79164SOL    HW139324  11.079  11.781   1.964
79164SOL    HW239325  10.967  11.768   1.862
79165SOL     OW39326   5.282   8.686   2.093
79165SOL    HW139327   5.329   8.623   2.147
79165SOL    HW239328   5.246   8.634   2.022
79166SOL     OW39329   0.929   5.320   0.795
79166SOL    HW139330   0.960   5.338   0.706
79166SOL    HW239331   1.005   5.287   0.841
79167SOL     OW39332   4.871   2.996  11.853
79167SOL    HW139333   4.936   2.983  11.922
79167SOL    HW239334   4.845   2.908  11.828
79168SOL     OW39335  13.317   1.405  12.029
79168SOL    HW139336  13.240   1.382  11.977
79168SOL    HW239337  13.382   1.434  11.965
79169SOL     OW39338   2.171   4.190  11.872
79169SOL    HW139339   2.146   4.280  11.889
79169SOL    HW239340   2.157   4.145  11.956
79170SOL     OW39341   8.999   0.118  14.043
79170SOL    HW139342   9.093   0.133  14.037
79170SOL    HW239343   8.983   0.105  14.136
79171SOL     OW39344  10.909   3.298  10.778
79171SOL    HW139345  10.831   3.320  10.829
79171SOL    HW239346  10.888   3.325  10.689
79172SOL     OW39347   7.012   0.317  10.551
79172SOL    HW139348   6.975   0.231  10.567
79172SOL    HW239349   7.107   0.303  10.549
79173SOL     OW39350   2.385   6.384   5.246
79173SOL    HW139351   2.425   6.463   5.282
79173SOL    HW239352   2.437   6.312   5.283
79174SOL     OW39353   8.746  12.909  13.852
79174SOL    HW139354   8.825  12.859  13.830
79174SOL    HW239355   8.779  12.985  13.901
79175SOL     OW39356   4.703   1.198   4.404
79175SOL    HW139357   4.646   1.140   4.455
79175SOL    HW239358   4.645   1.237   4.339
79176SOL     OW39359   7.681   6.785   4.250
79176SOL    HW139360   7.767   6.807   4.212
79176SOL    HW239361   7.673   6.690   4.235
79177SOL     OW39362   8.008   7.552   4.787
79177SOL    HW139363   8.050   7.626   4.743
79177SOL    HW239364   8.054   7.545   4.871
79178SOL     OW39365   8.309   4.379  12.743
79178SOL    HW139366   8.285   4.410  12.830
79178SOL    HW239367   8.385   4.322  12.757
79179SOL     OW39368   1.961   9.859   0.454
79179SOL    HW139369   2.001   9.832   0.537
79179SOL    HW239370   1.876   9.895   0.479
79180SOL     OW39371  10.605   3.547  10.526
79180SOL    HW139372  10.650   3.466  10.501
79180SOL    HW239373  10.643   3.614  10.470
79181SOL     OW39374   3.530   8.288  13.951
79181SOL    HW139375   3.478   8.250  13.880
79181SOL    HW239376   3.495   8.246  14.030
79182SOL     OW39377   2.519   5.285  14.211
79182SOL    HW139378   2.568   5.285  14.293
79182SOL    HW239379   2.453   5.353  14.223
79183SOL     OW39380  14.824  10.742   2.869
79183SOL    HW139381  14.816  10.662   2.921
79183SOL    HW239382   0.038  10.771   2.885
79184SOL     OW39383   9.952  10.104  13.110
79184SOL    HW139384  10.010  10.170  13.149
79184SOL    HW239385   9.957  10.030  13.170
79185SOL     OW39386   6.285  14.307  12.829
79185SOL    HW139387   6.315  14.350  12.749
79185SOL    HW239388   6.193  14.285  12.812
79186SOL     OW39389  14.639   6.955  12.345
79186SOL    HW139390  14.644   7.036  12.296
79186SOL    HW239391  14.618   6.982  12.435
79187SOL     OW39392   6.469   9.638   7.248
79187SOL    HW139393   6.487   9.732   7.248
79187SOL    HW239394   6.376   9.633   7.272
79188SOL     OW39395   2.972   9.370   7.775
79188SOL    HW139396   2.890   9.343   7.816
79188SOL    HW239397   3.040   9.325   7.826
79189SOL     OW39398   7.327   6.723  10.476
79189SOL    HW139399   7.392   6.734  10.407
79189SOL    HW239400   7.261   6.790  10.458
79190SOL     OW39401  11.734   3.315   0.885
79190SOL    HW139402  11.644   3.346   0.875
79190SOL    HW239403  11.767   3.308   0.796
79191SOL     OW39404   4.836  14.188  10.412
79191SOL    HW139405   4.866  14.256  10.473
79191SOL    HW239406   4.784  14.129  10.467
79192SOL     OW39407   7.817   2.827   9.039
79192SOL    HW139408   7.801   2.885   9.114
79192SOL    HW239409   7.907   2.798   9.050
79193SOL     OW39410   4.314   7.680   8.961
79193SOL    HW139411   4.398   7.687   9.008
79193SOL    HW239412   4.269   7.608   9.004
79194SOL     OW39413  14.489   5.588  12.213
79194SOL    HW139414  14.558   5.548  12.265
79194SOL    HW239415  14.477   5.528  12.139
79195SOL     OW39416  11.160   7.618   4.860
79195SOL    HW139417  11.108   7.539   4.841
79195SOL    HW239418  11.164   7.664   4.776
79196SOL     OW39419   8.793   7.699  12.650
79196SOL    HW139420   8.742   7.738  12.578
79196SOL    HW239421   8.737   7.712  12.727
79197SOL     OW39422   5.840   6.468   4.063
79197SOL    HW139423   5.850   6.374   4.073
79197SOL    HW239424   5.866   6.504   4.147
79198SOL     OW39425   9.156   4.293   0.511
79198SOL    HW139426   9.189   4.232   0.577
79198SOL    HW239427   9.069   4.260   0.490
79199SOL     OW39428   6.143  13.288   0.321
79199SOL    HW139429   6.180  13.346   0.387
79199SOL    HW239430   6.048  13.293   0.335
79200SOL     OW39431   5.226   9.426   9.984
79200SOL    HW139432   5.144   9.447   9.939
79200SOL    HW239433   5.282   9.388   9.916
79201SOL     OW39434   5.183   4.124   5.504
79201SOL    HW139435   5.181   4.219   5.497
79201SOL    HW239436   5.106   4.095   5.455
79202SOL     OW39437  11.572  10.818  13.830
79202SOL    HW139438  11.592  10.891  13.889
79202SOL    HW239439  11.579  10.740  13.885
79203SOL     OW39440   8.356   7.992   1.393
79203SOL    HW139441   8.308   7.924   1.346
79203SOL    HW239442   8.338   8.072   1.345
79204SOL     OW39443   6.946   0.461   1.945
79204SOL    HW139444   6.997   0.467   1.864
79204SOL    HW239445   6.937   0.367   1.960
79205SOL     OW39446   1.862   4.423   4.590
79205SOL    HW139447   1.844   4.412   4.684
79205SOL    HW239448   1.834   4.512   4.570
79206SOL     OW39449   4.532   9.039   3.810
79206SOL    HW139450   4.601   8.982   3.844
79206SOL    HW239451   4.566   9.128   3.820
79207SOL     OW39452   0.061  14.783   0.793
79207SOL    HW139453   0.102  14.869   0.793
79207SOL    HW239454   0.110  14.732   0.729
79208SOL     OW39455   1.754   2.433   9.863
79208SOL    HW139456   1.691   2.446   9.792
79208SOL    HW239457   1.717   2.481   9.937
79209SOL     OW39458  10.377  14.256   2.819
79209SOL    HW139459  10.464  14.277   2.855
79209SOL    HW239460  10.351  14.335   2.772
79210SOL     OW39461   0.764   6.029  12.280
79210SOL    HW139462   0.758   5.954  12.221
79210SOL    HW239463   0.745   5.994  12.367
79211SOL     OW39464   7.914   3.329   4.522
79211SOL    HW139465   7.989   3.296   4.472
79211SOL    HW239466   7.838   3.291   4.479
79212SOL     OW39467   9.222   4.545   2.597
79212SOL    HW139468   9.168   4.574   2.522
79212SOL    HW239469   9.169   4.568   2.674
79213SOL     OW39470   6.152  14.271   0.759
79213SOL    HW139471   6.224  14.213   0.732
79213SOL    HW239472   6.144  14.334   0.687
79214SOL     OW39473   8.117   3.542   7.140
79214SOL    HW139474   8.070   3.562   7.059
79214SOL    HW239475   8.144   3.451   7.130
79215SOL     OW39476  10.266   7.356   7.815
79215SOL    HW139477  10.218   7.347   7.733
79215SOL    HW239478  10.263   7.269   7.854
79216SOL     OW39479  14.851   9.877   8.063
79216SOL    HW139480   0.010   9.937   8.128
79216SOL    HW239481  14.767   9.849   8.099
79217SOL     OW39482  10.823   3.953   8.804
79217SOL    HW139483  10.771   3.901   8.743
79217SOL    HW239484  10.870   4.015   8.748
79218SOL     OW39485   5.445  11.813   3.249
79218SOL    HW139486   5.486  11.761   3.180
79218SOL    HW239487   5.473  11.771   3.330
79219SOL     OW39488   6.103   6.763   2.313
79219SOL    HW139489   6.167   6.716   2.367
79219SOL    HW239490   6.029   6.702   2.307
79220SOL     OW39491  13.899   5.743   2.479
79220SOL    HW139492  13.840   5.816   2.497
79220SOL    HW239493  13.853   5.666   2.511
79221SOL     OW39494   5.804   4.425  12.200
79221SOL    HW139495   5.721   4.399  12.240
79221SOL    HW239496   5.789   4.417  12.106
79222SOL     OW39497   7.556  14.346  13.484
79222SOL    HW139498   7.476  14.375  13.440
79222SOL    HW239499   7.617  14.419  13.472
79223SOL     OW39500  14.514  12.752   4.558
79223SOL    HW139501  14.591  12.712   4.599
79223SOL    HW239502  14.487  12.689   4.492
79224SOL     OW39503  11.365   9.315   9.855
79224SOL    HW139504  11.340   9.259   9.782
79224SOL    HW239505  11.392   9.397   9.813
79225SOL     OW39506   2.617   7.632  13.213
79225SOL    HW139507   2.667   7.711  13.234
79225SOL    HW239508   2.683   7.566  13.194
79226SOL     OW39509   8.658   6.014  12.808
79226SOL    HW139510   8.639   6.011  12.714
79226SOL    HW239511   8.753   6.027  12.813
79227SOL     OW39512   9.558   0.621  14.528
79227SOL    HW139513   9.650   0.645  14.515
79227SOL    HW239514   9.516   0.703  14.555
79228SOL     OW39515   9.520  11.801  10.862
79228SOL    HW139516   9.460  11.727  10.865
79228SOL    HW239517   9.464  11.878  10.874
79229SOL     OW39518  13.368   1.445  11.563
79229SOL    HW139519  13.419   1.430  11.643
79229SOL    HW239520  13.304   1.373  11.562
79230SOL     OW39521   0.749  10.101   6.844
79230SOL    HW139522   0.829  10.062   6.808
79230SOL    HW239523   0.730  10.175   6.786
79231SOL     OW39524  10.022   6.435   7.965
79231SOL    HW139525   9.954   6.468   8.024
79231SOL    HW239526   9.984   6.446   7.878
79232SOL     OW39527  14.360  11.649   2.514
79232SOL    HW139528  14.414  11.576   2.543
79232SOL    HW239529  14.310  11.674   2.592
79233SOL     OW39530   3.366  13.412   0.702
79233SOL    HW139531   3.311  13.482   0.668
79233SOL    HW239532   3.442  13.456   0.738
79234SOL     OW39533   6.602   6.898   6.307
79234SOL    HW139534   6.539   6.963   6.340
79234SOL    HW239535   6.549   6.824   6.279
79235SOL     OW39536   4.419   5.102   2.338
79235SOL    HW139537   4.417   5.197   2.325
79235SOL    HW239538   4.455   5.090   2.426
79236SOL     OW39539   3.601   9.005   2.441
79236SOL    HW139540   3.679   8.961   2.475
79236SOL    HW239541   3.528   8.953   2.475
79237SOL     OW39542   4.791   5.808   2.884
79237SOL    HW139543   4.720   5.749   2.908
79237SOL    HW239544   4.870   5.754   2.891
79238SOL     OW39545   2.702   3.860   2.204
79238SOL    HW139546   2.681   3.838   2.295
79238SOL    HW239547   2.757   3.937   2.210
79239SOL     OW39548  12.015   1.301  12.788
79239SOL    HW139549  12.042   1.260  12.706
79239SOL    HW239550  11.960   1.374  12.761
79240SOL     OW39551  11.449  14.520  11.404
79240SOL    HW139552  11.504  14.447  11.433
79240SOL    HW239553  11.482  14.542  11.317
79241SOL     OW39554   2.886   4.203   2.566
79241SOL    HW139555   2.922   4.275   2.514
79241SOL    HW239556   2.946   4.130   2.551
79242SOL     OW39557  11.070   1.681  10.395
79242SOL    HW139558  11.128   1.697  10.469
79242SOL    HW239559  11.120   1.624  10.336
79243SOL     OW39560   6.015  12.667   1.101
79243SOL    HW139561   5.931  12.621   1.096
79243SOL    HW239562   6.070  12.624   1.036
79244SOL     OW39563   6.816   9.849   8.357
79244SOL    HW139564   6.880   9.879   8.421
79244SOL    HW239565   6.869   9.809   8.287
79245SOL     OW39566  12.528  11.220   0.358
79245SOL    HW139567  12.472  11.220   0.435
79245SOL    HW239568  12.606  11.172   0.385
79246SOL     OW39569   5.572   2.115  12.500
79246SOL    HW139570   5.591   2.044  12.562
79246SOL    HW239571   5.533   2.070  12.424
79247SOL     OW39572  11.852   8.860   8.315
79247SOL    HW139573  11.835   8.818   8.230
79247SOL    HW239574  11.834   8.791   8.379
79248SOL     OW39575  13.886  12.664   3.214
79248SOL    HW139576  13.831  12.669   3.136
79248SOL    HW239577  13.828  12.688   3.286
79249SOL     OW39578   7.710   1.969   8.039
79249SOL    HW139579   7.802   1.981   8.063
79249SOL    HW239580   7.704   2.007   7.951
79250SOL     OW39581  14.391   9.613   4.507
79250SOL    HW139582  14.392   9.708   4.493
79250SOL    HW239583  14.457   9.579   4.445
79251SOL     OW39584   9.665   2.246   0.663
79251SOL    HW139585   9.617   2.325   0.689
79251SOL    HW239586   9.599   2.191   0.619
79252SOL     OW39587  14.054   0.119  14.546
79252SOL    HW139588  14.079   0.190  14.486
79252SOL    HW239589  13.971   0.148  14.584
79253SOL     OW39590  11.178  12.927   9.924
79253SOL    HW139591  11.232  12.878   9.862
79253SOL    HW239592  11.088  12.919   9.890
79254SOL     OW39593   1.595   3.845   8.848
79254SOL    HW139594   1.530   3.853   8.779
79254SOL    HW239595   1.544   3.847   8.929
79255SOL     OW39596  13.753   7.217   2.146
79255SOL    HW139597  13.685   7.164   2.188
79255SOL    HW239598  13.819   7.229   2.215
79256SOL     OW39599   6.641   6.868  11.170
79256SOL    HW139600   6.553   6.881  11.207
79256SOL    HW239601   6.700   6.885  11.243
79257SOL     OW39602   5.406   5.219   6.993
79257SOL    HW139603   5.472   5.157   6.962
79257SOL    HW239604   5.345   5.166   7.044
79258SOL     OW39605  12.767   1.016   5.783
79258SOL    HW139606  12.698   0.966   5.741
79258SOL    HW239607  12.793   1.081   5.718
79259SOL     OW39608  12.161  11.446  11.048
79259SOL    HW139609  12.118  11.361  11.052
79259SOL    HW239610  12.206  11.455  11.132
79260SOL     OW39611   7.789  13.117   7.790
79260SOL    HW139612   7.694  13.106   7.792
79260SOL    HW239613   7.811  13.152   7.876
79261SOL     OW39614   6.182   8.671  14.607
79261SOL    HW139615   6.200   8.604  14.541
79261SOL    HW239616   6.087   8.664  14.622
79262SOL     OW39617   6.381  12.495   1.209
79262SOL    HW139618   6.347  12.406   1.201
79262SOL    HW239619   6.476  12.484   1.217
79263SOL     OW39620   8.033   2.286   8.045
79263SOL    HW139621   8.012   2.290   8.138
79263SOL    HW239622   8.092   2.360   8.031
79264SOL     OW39623  10.182   3.245   3.367
79264SOL    HW139624  10.103   3.233   3.419
79264SOL    HW239625  10.215   3.331   3.392
79265SOL     OW39626   3.965  11.056   1.428
79265SOL    HW139627   3.948  10.971   1.387
79265SOL    HW239628   3.959  11.119   1.355
79266SOL     OW39629  12.089  14.494  14.018
79266SOL    HW139630  12.000  14.529  14.025
79266SOL    HW239631  12.131  14.519  14.100
79267SOL     OW39632   7.284  13.073  13.784
79267SOL    HW139633   7.190  13.054  13.788
79267SOL    HW239634   7.320  13.005  13.728
79268SOL     OW39635   3.887   4.727   6.933
79268SOL    HW139636   3.887   4.815   6.896
79268SOL    HW239637   3.840   4.674   6.869
79269SOL     OW39638   4.748   3.742  12.603
79269SOL    HW139639   4.827   3.783  12.569
79269SOL    HW239640   4.689   3.815  12.622
79270SOL     OW39641   3.350  10.774   1.273
79270SOL    HW139642   3.347  10.856   1.323
79270SOL    HW239643   3.368  10.707   1.338
79271SOL     OW39644   6.987   0.727  10.931
79271SOL    HW139645   7.016   0.806  10.885
79271SOL    HW239646   6.975   0.662  10.862
79272SOL     OW39647   9.801   1.628   1.684
79272SOL    HW139648   9.737   1.561   1.661
79272SOL    HW239649   9.795   1.692   1.613
79273SOL     OW39650  14.787  12.726  10.495
79273SOL    HW139651  14.750  12.812  10.516
79273SOL    HW239652  14.800  12.727  10.401
79274SOL     OW39653   9.215  12.779   0.134
79274SOL    HW139654   9.221  12.874   0.129
79274SOL    HW239655   9.300  12.751   0.167
79275SOL     OW39656   0.466  11.287   9.452
79275SOL    HW139657   0.549  11.244   9.431
79275SOL    HW239658   0.489  11.380   9.463
79276SOL     OW39659  12.626  13.305   3.354
79276SOL    HW139660  12.649  13.256   3.275
79276SOL    HW239661  12.530  13.310   3.352
79277SOL     OW39662   8.090   2.630   6.156
79277SOL    HW139663   8.018   2.679   6.196
79277SOL    HW239664   8.157   2.696   6.141
79278SOL     OW39665  10.493   8.237   3.146
79278SOL    HW139666  10.421   8.179   3.121
79278SOL    HW239667  10.500   8.226   3.241
79279SOL     OW39668   8.166  10.127   5.458
79279SOL    HW139669   8.116  10.047   5.444
79279SOL    HW239670   8.112  10.180   5.516
79280SOL     OW39671   0.717   9.684  11.102
79280SOL    HW139672   0.779   9.754  11.123
79280SOL    HW239673   0.631   9.727  11.104
79281SOL     OW39674   5.954  13.844   8.489
79281SOL    HW139675   5.933  13.901   8.564
79281SOL    HW239676   6.043  13.870   8.464
79282SOL     OW39677   7.735  10.543  11.942
79282SOL    HW139678   7.759  10.451  11.958
79282SOL    HW239679   7.770  10.562  11.855
79283SOL     OW39680   7.612   9.837   2.429
79283SOL    HW139681   7.646   9.826   2.517
79283SOL    HW239682   7.625   9.752   2.387
79284SOL     OW39683   7.281   9.904   7.233
79284SOL    HW139684   7.231   9.839   7.282
79284SOL    HW239685   7.347   9.936   7.295
79285SOL     OW39686   8.507   9.887   9.314
79285SOL    HW139687   8.453   9.902   9.237
79285SOL    HW239688   8.590   9.855   9.280
79286SOL     OW39689   1.709  11.968  10.040
79286SOL    HW139690   1.800  11.953  10.067
79286SOL    HW239691   1.706  11.938   9.949
79287SOL     OW39692  13.292   4.431   3.429
79287SOL    HW139693  13.316   4.351   3.475
79287SOL    HW239694  13.260   4.490   3.497
79288SOL     OW39695   9.440  10.612   2.667
79288SOL    HW139696   9.506  10.663   2.715
79288SOL    HW239697   9.364  10.611   2.725
79289SOL     OW39698   1.232   0.518   8.999
79289SOL    HW139699   1.177   0.526   8.921
79289SOL    HW239700   1.308   0.574   8.981
79290SOL     OW39701   9.314   0.396   9.323
79290SOL    HW139702   9.329   0.489   9.306
79290SOL    HW239703   9.328   0.354   9.239
79291SOL     OW39704  13.317  10.279   3.117
79291SOL    HW139705  13.286  10.189   3.107
79291SOL    HW239706  13.404  10.269   3.157
79292SOL     OW39707   0.090   0.783   5.276
79292SOL    HW139708   0.051   0.859   5.233
79292SOL    HW239709   0.173   0.815   5.311
79293SOL     OW39710   3.769   6.603   6.961
79293SOL    HW139711   3.741   6.656   7.035
79293SOL    HW239712   3.864   6.597   6.971
79294SOL     OW39713   1.157   0.414   9.442
79294SOL    HW139714   1.107   0.430   9.361
79294SOL    HW239715   1.248   0.418   9.414
79295SOL     OW39716   0.910  11.665   4.077
79295SOL    HW139717   0.875  11.690   4.162
79295SOL    HW239718   0.837  11.678   4.016
79296SOL     OW39719  12.848   2.158   9.222
79296SOL    HW139720  12.940   2.182   9.211
79296SOL    HW239721  12.825   2.112   9.141
79297SOL     OW39722   7.764   9.824   0.422
79297SOL    HW139723   7.848   9.855   0.386
79297SOL    HW239724   7.773   9.834   0.517
79298SOL     OW39725  12.858   4.636   3.084
79298SOL    HW139726  12.903   4.605   3.163
79298SOL    HW239727  12.784   4.687   3.118
79299SOL     OW39728   5.530   4.792   0.987
79299SOL    HW139729   5.622   4.776   1.006
79299SOL    HW239730   5.530   4.851   0.912
79300SOL     OW39731   0.366   1.138   1.046
79300SOL    HW139732   0.300   1.194   1.006
79300SOL    HW239733   0.328   1.112   1.130
79301SOL     OW39734   1.158   2.885   8.412
79301SOL    HW139735   1.094   2.830   8.365
79301SOL    HW239736   1.237   2.881   8.358
79302SOL     OW39737   0.305  12.480   7.270
79302SOL    HW139738   0.269  12.392   7.270
79302SOL    HW239739   0.284  12.515   7.184
79303SOL     OW39740  12.602   1.174  10.191
79303SOL    HW139741  12.599   1.251  10.134
79303SOL    HW239742  12.681   1.127  10.164
79304SOL     OW39743   7.677   6.260  14.643
79304SOL    HW139744   7.641   6.298  14.723
79304SOL    HW239745   7.609   6.201  14.611
79305SOL     OW39746   2.101   1.999   6.744
79305SOL    HW139747   2.174   2.004   6.806
79305SOL    HW239748   2.055   2.082   6.754
79306SOL     OW39749   6.212   2.458  10.517
79306SOL    HW139750   6.287   2.486  10.571
79306SOL    HW239751   6.197   2.532  10.458
79307SOL     OW39752  13.157  13.217   9.124
79307SOL    HW139753  13.177  13.299   9.079
79307SOL    HW239754  13.083  13.239   9.181
79308SOL     OW39755   0.670   4.758   6.121
79308SOL    HW139756   0.764   4.737   6.114
79308SOL    HW239757   0.662   4.804   6.204
79309SOL     OW39758   4.156   5.129   7.731
79309SOL    HW139759   4.144   5.065   7.801
79309SOL    HW239760   4.091   5.197   7.749
79310SOL     OW39761  11.218   2.989   3.903
79310SOL    HW139762  11.173   3.036   3.972
79310SOL    HW239763  11.260   3.057   3.850
79311SOL     OW39764  14.659   7.041   3.870
79311SOL    HW139765  14.571   7.016   3.843
79311SOL    HW239766  14.717   6.997   3.807
79312SOL     OW39767   3.463  11.695  10.491
79312SOL    HW139768   3.481  11.731  10.578
79312SOL    HW239769   3.435  11.770  10.439
79313SOL     OW39770   4.612  10.999  12.242
79313SOL    HW139771   4.667  11.076  12.259
79313SOL    HW239772   4.602  10.998  12.147
79314SOL     OW39773   7.854  14.721  11.420
79314SOL    HW139774   7.887  14.656  11.358
79314SOL    HW239775   7.782  14.764  11.374
79315SOL     OW39776  14.818   8.213   4.888
79315SOL    HW139777  14.764   8.149   4.842
79315SOL    HW239778  14.788   8.209   4.979
79316SOL     OW39779   9.998   3.332  13.940
79316SOL    HW139780  10.000   3.402  13.875
79316SOL    HW239781   9.909   3.336  13.976
79317SOL     OW39782  10.057   8.903  12.040
79317SOL    HW139783  10.010   8.823  12.017
79317SOL    HW239784  10.013   8.934  12.120
79318SOL     OW39785   8.145   5.097  12.874
79318SOL    HW139786   8.081   5.162  12.846
79318SOL    HW239787   8.226   5.145  12.884
79319SOL     OW39788  11.245   1.195  10.103
79319SOL    HW139789  11.166   1.144  10.122
79319SOL    HW239790  11.301   1.134  10.054
79320SOL     OW39791   7.467   2.990  11.291
79320SOL    HW139792   7.533   3.056  11.271
79320SOL    HW239793   7.504   2.942  11.365
79321SOL     OW39794  11.289   1.779   1.589
79321SOL    HW139795  11.226   1.707   1.581
79321SOL    HW239796  11.248   1.853   1.544
79322SOL     OW39797  11.418   2.955  14.594
79322SOL    HW139798  11.505   2.995  14.593
79322SOL    HW239799  11.420   2.891  14.522
79323SOL     OW39800  10.958  10.537   8.175
79323SOL    HW139801  11.034  10.580   8.213
79323SOL    HW239802  10.901  10.610   8.148
79324SOL     OW39803   6.812  10.135   0.274
79324SOL    HW139804   6.726  10.133   0.316
79324SOL    HW239805   6.801  10.084   0.194
79325SOL     OW39806   8.903  11.205  11.163
79325SOL    HW139807   8.907  11.294  11.198
79325SOL    HW239808   8.871  11.152  11.236
79326SOL     OW39809   6.999  10.265   3.523
79326SOL    HW139810   6.951  10.227   3.596
79326SOL    HW239811   6.951  10.344   3.501
79327SOL     OW39812   2.841   9.697  11.813
79327SOL    HW139813   2.785   9.656  11.879
79327SOL    HW239814   2.781   9.725  11.744
79328SOL     OW39815   5.297   9.176   7.378
79328SOL    HW139816   5.265   9.156   7.290
79328SOL    HW239817   5.392   9.183   7.368
79329SOL     OW39818  12.951  12.436   7.814
79329SOL    HW139819  13.031  12.420   7.863
79329SOL    HW239820  12.902  12.499   7.867
79330SOL     OW39821  11.041  14.160   5.996
79330SOL    HW139822  11.086  14.205   6.067
79330SOL    HW239823  11.109  14.107   5.954
79331SOL     OW39824   4.492  12.305  12.377
79331SOL    HW139825   4.471  12.215  12.353
79331SOL    HW239826   4.586  12.305  12.395
79332SOL     OW39827   6.929   9.943   7.479
79332SOL    HW139828   6.882   9.878   7.531
79332SOL    HW239829   6.993   9.892   7.429
79333SOL     OW39830   9.591   1.225   4.978
79333SOL    HW139831   9.678   1.236   5.015
79333SOL    HW239832   9.576   1.130   4.979
79334SOL     OW39833   5.340   5.415  10.202
79334SOL    HW139834   5.394   5.492  10.215
79334SOL    HW239835   5.400   5.341  10.212
79335SOL     OW39836   9.954   6.796   8.978
79335SOL    HW139837   9.890   6.725   8.971
79335SOL    HW239838   9.904   6.875   8.958
79336SOL     OW39839   6.081   5.169   0.344
79336SOL    HW139840   5.995   5.209   0.355
79336SOL    HW239841   6.143   5.241   0.352
79337SOL     OW39842   4.760  12.294  12.412
79337SOL    HW139843   4.849  12.328  12.422
79337SOL    HW239844   4.749  12.281  12.318
79338SOL     OW39845   4.520  10.578  10.775
79338SOL    HW139846   4.459  10.573  10.849
79338SOL    HW239847   4.604  10.599  10.816
79339SOL     OW39848   3.774  14.536   9.726
79339SOL    HW139849   3.840  14.510   9.662
79339SOL    HW239850   3.720  14.458   9.738
79340SOL     OW39851   2.273   1.870   9.336
79340SOL    HW139852   2.240   1.871   9.426
79340SOL    HW239853   2.238   1.789   9.298
79341SOL     OW39854   7.515   3.730  12.645
79341SOL    HW139855   7.581   3.787  12.684
79341SOL    HW239856   7.494   3.668  12.714
79342SOL     OW39857   8.245  11.108  10.214
79342SOL    HW139858   8.225  11.187  10.265
79342SOL    HW239859   8.338  11.115  10.194
79343SOL     OW39860  12.360   6.519   9.773
79343SOL    HW139861  12.286   6.578   9.772
79343SOL    HW239862  12.322   6.431   9.776
79344SOL     OW39863   1.572  10.931  11.933
79344SOL    HW139864   1.620  10.875  11.872
79344SOL    HW239865   1.548  11.008  11.880
79345SOL     OW39866   2.543   6.977  14.751
79345SOL    HW139867   2.468   7.033  14.767
79345SOL    HW239868   2.567   6.944  14.838
79346SOL     OW39869   3.425  10.568  10.816
79346SOL    HW139870   3.348  10.609  10.777
79346SOL    HW239871   3.491  10.569  10.747
79347SOL     OW39872  13.156   7.324  12.880
79347SOL    HW139873  13.109   7.376  12.945
79347SOL    HW239874  13.087   7.289  12.824
79348SOL     OW39875   5.325   8.122   8.342
79348SOL    HW139876   5.239   8.159   8.363
79348SOL    HW239877   5.327   8.038   8.388
79349SOL     OW39878   4.697  12.887   1.892
79349SOL    HW139879   4.692  12.806   1.943
79349SOL    HW239880   4.606  12.909   1.873
79350SOL     OW39881   1.076  11.475   2.083
79350SOL    HW139882   1.015  11.549   2.073
79350SOL    HW239883   1.024  11.407   2.126
79351SOL     OW39884   2.664   2.714  13.239
79351SOL    HW139885   2.712   2.788  13.277
79351SOL    HW239886   2.729   2.666  13.189
79352SOL     OW39887  12.605  12.876   0.919
79352SOL    HW139888  12.510  12.865   0.920
79352SOL    HW239889  12.620  12.956   0.970
79353SOL     OW39890   0.465  10.958  12.597
79353SOL    HW139891   0.532  10.890  12.593
79353SOL    HW239892   0.383  10.911  12.602
79354SOL     OW39893  11.841   8.503   9.299
79354SOL    HW139894  11.853   8.422   9.248
79354SOL    HW239895  11.821   8.569   9.233
79355SOL     OW39896   8.169  10.384  14.490
79355SOL    HW139897   8.200  10.302  14.452
79355SOL    HW239898   8.074  10.380  14.481
79356SOL     OW39899  13.243   7.684   2.615
79356SOL    HW139900  13.152   7.658   2.599
79356SOL    HW239901  13.276   7.620   2.678
79357SOL     OW39902   5.023   3.652  11.907
79357SOL    HW139903   5.064   3.582  11.856
79357SOL    HW239904   5.064   3.732  11.875
79358SOL     OW39905   9.047   6.055   3.849
79358SOL    HW139906   9.125   6.096   3.812
79358SOL    HW239907   8.974   6.096   3.803
79359SOL     OW39908   8.463  13.154   9.463
79359SOL    HW139909   8.422  13.167   9.548
79359SOL    HW239910   8.502  13.238   9.441
79360SOL     OW39911   6.790   0.437  12.435
79360SOL    HW139912   6.873   0.441  12.482
79360SOL    HW239913   6.747   0.520  12.455
79361SOL     OW39914   5.329  11.577   6.427
79361SOL    HW139915   5.348  11.652   6.371
79361SOL    HW239916   5.375  11.504   6.386
79362SOL     OW39917   4.657   4.896   9.662
79362SOL    HW139918   4.710   4.922   9.737
79362SOL    HW239919   4.683   4.955   9.592
79363SOL     OW39920   9.977   3.247   0.962
79363SOL    HW139921   9.993   3.271   1.053
79363SOL    HW239922   9.881   3.247   0.954
79364SOL     OW39923  13.895   1.673   8.499
79364SOL    HW139924  13.835   1.636   8.435
79364SOL    HW239925  13.976   1.688   8.451
79365SOL     OW39926  11.876  10.907  13.983
79365SOL    HW139927  11.820  10.984  13.990
79365SOL    HW239928  11.820  10.834  14.012
79366SOL     OW39929   7.092   0.164   9.430
79366SOL    HW139930   7.062   0.224   9.499
79366SOL    HW239931   7.014   0.113   9.407
79367SOL     OW39932  10.648   5.801  11.111
79367SOL    HW139933  10.618   5.779  11.023
79367SOL    HW239934  10.707   5.730  11.135
79368SOL     OW39935   5.681   8.726   4.208
79368SOL    HW139936   5.645   8.777   4.281
79368SOL    HW239937   5.724   8.791   4.153
79369SOL     OW39938   9.917   1.860   4.571
79369SOL    HW139939   9.992   1.894   4.620
79369SOL    HW239940   9.840   1.892   4.619
79370SOL     OW39941   0.515   6.526   9.424
79370SOL    HW139942   0.562   6.566   9.351
79370SOL    HW239943   0.438   6.485   9.384
79371SOL     OW39944   3.313  12.305  13.768
79371SOL    HW139945   3.364  12.264  13.698
79371SOL    HW239946   3.227  12.264  13.761
79372SOL     OW39947   9.792  13.487  12.156
79372SOL    HW139948   9.712  13.494  12.207
79372SOL    HW239949   9.764  13.498  12.065
79373SOL     OW39950  12.969  12.014  14.425
79373SOL    HW139951  12.903  11.994  14.358
79373SOL    HW239952  13.049  12.029  14.375
79374SOL     OW39953   7.686  10.288  10.712
79374SOL    HW139954   7.669  10.367  10.660
79374SOL    HW239955   7.605  10.274  10.761
79375SOL     OW39956   5.901  10.075   4.829
79375SOL    HW139957   5.828  10.097   4.887
79375SOL    HW239958   5.886   9.983   4.806
79376SOL     OW39959  12.009   9.812   5.590
79376SOL    HW139960  11.946   9.846   5.654
79376SOL    HW239961  12.044   9.733   5.631
79377SOL     OW39962  10.162   3.488  13.206
79377SOL    HW139963  10.222   3.441  13.264
79377SOL    HW239964  10.199   3.576  13.200
79378SOL     OW39965  11.376  11.932   6.901
79378SOL    HW139966  11.293  11.887   6.914
79378SOL    HW239967  11.419  11.884   6.830
79379SOL     OW39968   1.575   6.898   9.453
79379SOL    HW139969   1.542   6.828   9.395
79379SOL    HW239970   1.639   6.854   9.509
79380SOL     OW39971   1.221  12.011   9.981
79380SOL    HW139972   1.164  11.992   9.907
79380SOL    HW239973   1.310  11.999   9.946
79381SOL     OW39974   7.550   6.334   7.168
79381SOL    HW139975   7.533   6.427   7.152
79381SOL    HW239976   7.540   6.325   7.263
79382SOL     OW39977  10.691   9.945   7.301
79382SOL    HW139978  10.687  10.040   7.292
79382SOL    HW239979  10.756   9.918   7.236
79383SOL     OW39980   2.664  14.620   9.868
79383SOL    HW139981   2.616  14.540   9.844
79383SOL    HW239982   2.704  14.649   9.786
79384SOL     OW39983   9.643   4.411   5.323
79384SOL    HW139984   9.662   4.353   5.249
79384SOL    HW239985   9.725   4.457   5.340
79385SOL     OW39986   3.562   1.062  13.166
79385SOL    HW139987   3.523   1.143  13.135
79385SOL    HW239988   3.540   1.058  13.259
79386SOL     OW39989  11.288  11.571   0.563
79386SOL    HW139990  11.218  11.635   0.567
79386SOL    HW239991  11.336  11.592   0.483
79387SOL     OW39992   2.661  11.915   4.418
79387SOL    HW139993   2.711  11.944   4.342
79387SOL    HW239994   2.650  11.994   4.471
79388SOL     OW39995   6.472  11.814  14.839
79388SOL    HW139996   6.458  11.844  14.750
79388SOL    HW239997   6.399  11.754  14.856
79389SOL     OW39998   1.140   3.326  14.587
79389SOL    HW139999   1.092   3.395  14.542
79389SOL    HW240000   1.229   3.361  14.597
79390SOL     OW40001   2.064   9.367  13.893
79390SOL    HW140002   2.156   9.391  13.899
79390SOL    HW240003   2.018   9.451  13.888
79391SOL     OW40004   4.198   0.559   7.081
79391SOL    HW140005   4.213   0.653   7.072
79391SOL    HW240006   4.138   0.537   7.010
79392SOL     OW40007  12.463   7.795   2.163
79392SOL    HW140008  12.384   7.741   2.154
79392SOL    HW240009  12.498   7.800   2.074
79393SOL     OW40010  14.238   4.927   5.652
79393SOL    HW140011  14.290   4.884   5.584
79393SOL    HW240012  14.291   5.002   5.679
79394SOL     OW40013  12.697   9.504   8.203
79394SOL    HW140014  12.624   9.458   8.162
79394SOL    HW240015  12.673   9.596   8.198
79395SOL     OW40016   1.623   6.613  12.777
79395SOL    HW140017   1.543   6.573  12.812
79395SOL    HW240018   1.602   6.632  12.686
79396SOL     OW40019   7.503   1.677   1.349
79396SOL    HW140020   7.515   1.672   1.444
79396SOL    HW240021   7.535   1.764   1.326
79397SOL     OW40022   3.082   9.973   9.745
79397SOL    HW140023   3.165   9.927   9.755
79397SOL    HW240024   3.092  10.054   9.796
79398SOL     OW40025   5.485   6.659  13.097
79398SOL    HW140026   5.546   6.586  13.094
79398SOL    HW240027   5.494   6.701  13.012
79399SOL     OW40028  10.285   2.128   1.600
79399SOL    HW140029  10.256   2.203   1.652
79399SOL    HW240030  10.372   2.106   1.634
79400SOL     OW40031   0.958  11.924  11.493
79400SOL    HW140032   0.927  11.865  11.424
79400SOL    HW240033   1.019  11.983  11.449
79401SOL     OW40034   9.024  10.803   5.584
79401SOL    HW140035   9.114  10.769   5.583
79401SOL    HW240036   9.005  10.823   5.493
79402SOL     OW40037   7.098   2.422  11.616
79402SOL    HW140038   7.034   2.424  11.687
79402SOL    HW240039   7.091   2.509  11.575
79403SOL     OW40040  12.726   7.259  13.102
79403SOL    HW140041  12.749   7.300  13.185
79403SOL    HW240042  12.721   7.332  13.040
79404SOL     OW40043   9.666   0.567  12.148
79404SOL    HW140044   9.737   0.557  12.084
79404SOL    HW240045   9.588   0.536  12.102
79405SOL     OW40046   4.756   5.783  13.349
79405SOL    HW140047   4.665   5.800  13.323
79405SOL    HW240048   4.783   5.710  13.292
79406SOL     OW40049   0.014  14.586   1.641
79406SOL    HW140050   0.066  14.563   1.564
79406SOL    HW240051   0.074  14.635   1.697
79407SOL     OW40052   8.873  13.993   2.214
79407SOL    HW140053   8.842  14.025   2.299
79407SOL    HW240054   8.968  14.004   2.217
79408SOL     OW40055   6.889  10.516   4.163
79408SOL    HW140056   6.982  10.518   4.142
79408SOL    HW240057   6.868  10.423   4.171
79409SOL     OW40058  10.330  13.721  12.401
79409SOL    HW140059  10.355  13.798  12.351
79409SOL    HW240060  10.362  13.738  12.490
79410SOL     OW40061  12.652   8.709   1.589
79410SOL    HW140062  12.740   8.685   1.619
79410SOL    HW240063  12.608   8.625   1.576
79411SOL     OW40064   7.345   6.280   3.214
79411SOL    HW140065   7.299   6.220   3.155
79411SOL    HW240066   7.416   6.315   3.161
79412SOL     OW40067   5.282   5.806  13.160
79412SOL    HW140068   5.207   5.818  13.102
79412SOL    HW240069   5.305   5.894  13.188
79413SOL     OW40070   3.202  12.399   6.350
79413SOL    HW140071   3.133  12.392   6.284
79413SOL    HW240072   3.225  12.308   6.370
79414SOL     OW40073  11.740   5.224   0.040
79414SOL    HW140074  11.786   5.143   0.018
79414SOL    HW240075  11.796   5.294   0.004
79415SOL     OW40076   3.557  14.749  14.521
79415SOL    HW140077   3.622  14.685  14.493
79415SOL    HW240078   3.494  14.752  14.449
79416SOL     OW40079  13.493   1.349   4.128
79416SOL    HW140080  13.444   1.314   4.203
79416SOL    HW240081  13.537   1.273   4.091
79417SOL     OW40082   9.093   6.750   9.436
79417SOL    HW140083   9.098   6.679   9.500
79417SOL    HW240084   9.028   6.810   9.472
79418SOL     OW40085  11.513   1.301   6.527
79418SOL    HW140086  11.587   1.290   6.587
79418SOL    HW240087  11.440   1.255   6.570
79419SOL     OW40088   3.867   8.618   3.601
79419SOL    HW140089   3.878   8.582   3.513
79419SOL    HW240090   3.956   8.634   3.632
79420SOL     OW40091   8.897   3.191   7.494
79420SOL    HW140092   8.941   3.169   7.576
79420SOL    HW240093   8.950   3.260   7.456
79421SOL     OW40094   4.265   5.372   8.082
79421SOL    HW140095   4.241   5.289   8.124
79421SOL    HW240096   4.187   5.427   8.094
79422SOL     OW40097   4.282   5.353   9.069
79422SOL    HW140098   4.369   5.314   9.078
79422SOL    HW240099   4.245   5.350   9.157
79423SOL     OW40100   4.488   4.777  13.671
79423SOL    HW140101   4.555   4.807  13.732
79423SOL    HW240102   4.518   4.807  13.585
79424SOL     OW40103  13.796   0.943   8.562
79424SOL    HW140104  13.725   0.928   8.625
79424SOL    HW240105  13.763   1.011   8.503
79425SOL     OW40106  11.426   8.460   9.687
79425SOL    HW140107  11.510   8.495   9.658
79425SOL    HW240108  11.382   8.534   9.729
79426SOL     OW40109   5.966   3.827   1.922
79426SOL    HW140110   6.019   3.906   1.919
79426SOL    HW240111   5.930   3.819   1.833
79427SOL     OW40112  13.631  10.145   8.796
79427SOL    HW140113  13.609  10.238   8.803
79427SOL    HW240114  13.660  10.133   8.706
79428SOL     OW40115   4.269  10.625   4.183
79428SOL    HW140116   4.288  10.613   4.276
79428SOL    HW240117   4.344  10.675   4.150
79429SOL     OW40118   6.111   7.091   0.106
79429SOL    HW140119   6.092   7.183   0.086
79429SOL    HW240120   6.032   7.044   0.081
79430SOL     OW40121   2.962   3.367   9.826
79430SOL    HW140122   3.024   3.382   9.897
79430SOL    HW240123   3.014   3.323   9.759
79431SOL     OW40124   7.049   1.199   2.101
79431SOL    HW140125   7.144   1.192   2.111
79431SOL    HW240126   7.024   1.126   2.045
79432SOL     OW40127   5.697   6.677   5.843
79432SOL    HW140128   5.759   6.619   5.889
79432SOL    HW240129   5.678   6.745   5.907
79433SOL     OW40130   2.417  11.459  13.633
79433SOL    HW140131   2.341  11.419  13.676
79433SOL    HW240132   2.384  11.491  13.549
79434SOL     OW40133   9.126   0.821  11.279
79434SOL    HW140134   9.168   0.907  11.274
79434SOL    HW240135   9.112   0.807  11.373
79435SOL     OW40136   0.700   6.798  10.343
79435SOL    HW140137   0.787   6.759  10.355
79435SOL    HW240138   0.674   6.823  10.432
79436SOL     OW40139  10.858   1.181  14.102
79436SOL    HW140140  10.841   1.087  14.095
79436SOL    HW240141  10.854   1.199  14.196
79437SOL     OW40142   5.092  11.234  13.736
79437SOL    HW140143   5.108  11.275  13.651
79437SOL    HW240144   5.112  11.142  13.723
79438SOL     OW40145  13.852  10.917  10.690
79438SOL    HW140146  13.907  10.962  10.626
79438SOL    HW240147  13.778  10.883  10.639
79439SOL     OW40148  12.176   6.414   1.218
79439SOL    HW140149  12.136   6.348   1.162
79439SOL    HW240150  12.109   6.433   1.284
79440SOL     OW40151   6.424  10.096   6.133
79440SOL    HW140152   6.436  10.108   6.227
79440SOL    HW240153   6.443  10.004   6.118
79441SOL     OW40154   1.412   9.562  14.852
79441SOL    HW140155   1.504   9.564   0.003
79441SOL    HW240156   1.415   9.570  14.757
79442SOL     OW40157   8.886   4.234  11.093
79442SOL    HW140158   8.793   4.221  11.111
79442SOL    HW240159   8.919   4.280  11.171
79443SOL     OW40160  14.615   2.581   2.009
79443SOL    HW140161  14.652   2.494   2.027
79443SOL    HW240162  14.590   2.614   2.095
79444SOL     OW40163   6.212  11.752  13.280
79444SOL    HW140164   6.131  11.766  13.232
79444SOL    HW240165   6.262  11.833  13.269
79445SOL     OW40166   4.279  12.459  10.317
79445SOL    HW140167   4.305  12.477  10.226
79445SOL    HW240168   4.286  12.544  10.361
79446SOL     OW40169   6.368  14.478  13.385
79446SOL    HW140170   6.451  14.439  13.411
79446SOL    HW240171   6.387  14.522  13.302
79447SOL     OW40172   5.701   5.194   7.850
79447SOL    HW140173   5.677   5.163   7.763
79447SOL    HW240174   5.796   5.182   7.854
79448SOL     OW40175   8.400   0.567   7.650
79448SOL    HW140176   8.403   0.477   7.681
79448SOL    HW240177   8.384   0.619   7.730
79449SOL     OW40178   9.580   7.024   8.648
79449SOL    HW140179   9.551   7.036   8.739
79449SOL    HW240180   9.676   7.021   8.654
79450SOL     OW40181   9.813  14.182  12.067
79450SOL    HW140182   9.838  14.144  12.151
79450SOL    HW240183   9.874  14.144  12.004
79451SOL     OW40184   9.543   2.431   2.685
79451SOL    HW140185   9.502   2.382   2.613
79451SOL    HW240186   9.500   2.398   2.764
79452SOL     OW40187  14.816   2.743  13.527
79452SOL    HW140188  14.823   2.805  13.600
79452SOL    HW240189  14.749   2.780  13.471
79453SOL     OW40190  12.545   4.679   5.271
79453SOL    HW140191  12.480   4.657   5.205
79453SOL    HW240192  12.574   4.767   5.248
79454SOL     OW40193  10.020   3.290   5.656
79454SOL    HW140194   9.953   3.345   5.614
79454SOL    HW240195   9.987   3.201   5.645
79455SOL     OW40196   1.525   0.390   0.368
79455SOL    HW140197   1.466   0.317   0.389
79455SOL    HW240198   1.479   0.439   0.300
79456SOL     OW40199  11.870   7.889  10.507
79456SOL    HW140200  11.842   7.844  10.587
79456SOL    HW240201  11.916   7.821  10.458
79457SOL     OW40202   2.827  14.462   2.958
79457SOL    HW140203   2.764  14.393   2.972
79457SOL    HW240204   2.802  14.531   3.020
79458SOL     OW40205  10.893  11.683  10.447
79458SOL    HW140206  10.985  11.694  10.421
79458SOL    HW240207  10.889  11.717  10.536
79459SOL     OW40208  10.552   4.189   1.246
79459SOL    HW140209  10.491   4.192   1.320
79459SOL    HW240210  10.505   4.139   1.179
79460SOL     OW40211   2.229   1.476   5.908
79460SOL    HW140212   2.217   1.396   5.960
79460SOL    HW240213   2.290   1.450   5.838
79461SOL     OW40214  10.326   0.781  13.860
79461SOL    HW140215  10.347   0.850  13.922
79461SOL    HW240216  10.400   0.720  13.864
79462SOL     OW40217   5.645  12.880  14.615
79462SOL    HW140218   5.705  12.809  14.592
79462SOL    HW240219   5.571  12.836  14.657
79463SOL     OW40220  13.428   2.572   8.623
79463SOL    HW140221  13.502   2.628   8.644
79463SOL    HW240222  13.452   2.530   8.540
79464SOL     OW40223   3.743   5.405   3.675
79464SOL    HW140224   3.766   5.316   3.703
79464SOL    HW240225   3.663   5.425   3.724
79465SOL     OW40226   9.597  14.208  10.413
79465SOL    HW140227   9.610  14.302  10.424
79465SOL    HW240228   9.636  14.169  10.491
79466SOL     OW40229   7.446   3.475   9.317
79466SOL    HW140230   7.525   3.445   9.363
79466SOL    HW240231   7.479   3.514   9.236
79467SOL     OW40232   1.399  12.790   0.223
79467SOL    HW140233   1.366  12.746   0.301
79467SOL    HW240234   1.486  12.822   0.249
79468SOL     OW40235   2.219   8.373   5.335
79468SOL    HW140236   2.195   8.358   5.244
79468SOL    HW240237   2.265   8.294   5.361
79469SOL     OW40238   1.788   5.613   9.709
79469SOL    HW140239   1.816   5.703   9.727
79469SOL    HW240240   1.702   5.606   9.749
79470SOL     OW40241   0.072  13.357   1.185
79470SOL    HW140242   0.029  13.290   1.238
79470SOL    HW240243   0.110  13.418   1.249
79471SOL     OW40244  14.180   8.713  11.368
79471SOL    HW140245  14.108   8.764  11.331
79471SOL    HW240246  14.243   8.779  11.395
79472SOL     OW40247   5.295   9.850   6.381
79472SOL    HW140248   5.383   9.849   6.342
79472SOL    HW240249   5.274   9.943   6.389
79473SOL     OW40250  10.792   7.827   7.328
79473SOL    HW140251  10.847   7.768   7.379
79473SOL    HW240252  10.839   7.911   7.330
79474SOL     OW40253   8.433   3.139  11.165
79474SOL    HW140254   8.506   3.080  11.185
79474SOL    HW240255   8.361   3.107  11.220
79475SOL     OW40256   0.143  11.650  10.360
79475SOL    HW140257   0.077  11.615  10.300
79475SOL    HW240258   0.224  11.651  10.308
79476SOL     OW40259   5.455   0.334  13.024
79476SOL    HW140260   5.372   0.298  13.055
79476SOL    HW240261   5.503   0.259  12.988
79477SOL     OW40262  12.216   1.229   4.338
79477SOL    HW140263  12.196   1.214   4.430
79477SOL    HW240264  12.310   1.216   4.331
79478SOL     OW40265   4.851   6.926   3.694
79478SOL    HW140266   4.893   6.905   3.611
79478SOL    HW240267   4.869   7.019   3.707
79479SOL     OW40268   8.459  13.759  12.883
79479SOL    HW140269   8.416  13.811  12.816
79479SOL    HW240270   8.531  13.715  12.837
79480SOL     OW40271   0.281   5.165  12.260
79480SOL    HW140272   0.242   5.077  12.265
79480SOL    HW240273   0.370   5.150  12.228
79481SOL     OW40274  13.696   8.415  13.686
79481SOL    HW140275  13.756   8.341  13.690
79481SOL    HW240276  13.609   8.375  13.679
79482SOL     OW40277  12.875  11.380   3.557
79482SOL    HW140278  12.804  11.340   3.507
79482SOL    HW240279  12.887  11.466   3.517
79483SOL     OW40280  14.177   4.555   8.012
79483SOL    HW140281  14.215   4.638   8.041
79483SOL    HW240282  14.198   4.550   7.919
79484SOL     OW40283  10.636   8.299   3.919
79484SOL    HW140284  10.556   8.288   3.970
79484SOL    HW240285  10.704   8.317   3.984
79485SOL     OW40286   8.284   0.034   0.073
79485SOL    HW140287   8.268   0.129   0.071
79485SOL    HW240288   8.336   0.017  14.870
79486SOL     OW40289   7.753   3.118  10.316
79486SOL    HW140290   7.787   3.111  10.227
79486SOL    HW240291   7.789   3.043  10.362
79487SOL     OW40292   4.823  11.055  14.134
79487SOL    HW140293   4.761  11.023  14.199
79487SOL    HW240294   4.852  10.977  14.087
79488SOL     OW40295  12.016   0.926   8.484
79488SOL    HW140296  11.976   0.850   8.444
79488SOL    HW240297  12.014   0.908   8.578
79489SOL     OW40298  13.668   2.276   4.375
79489SOL    HW140299  13.638   2.367   4.378
79489SOL    HW240300  13.591   2.225   4.402
79490SOL     OW40301   3.480   8.055   8.022
79490SOL    HW140302   3.513   8.015   7.942
79490SOL    HW240303   3.436   8.135   7.993
79491SOL     OW40304  13.407   4.076   6.982
79491SOL    HW140305  13.415   3.982   6.971
79491SOL    HW240306  13.490   4.103   7.021
79492SOL     OW40307   9.496   3.173  14.347
79492SOL    HW140308   9.542   3.117  14.285
79492SOL    HW240309   9.560   3.191  14.416
79493SOL     OW40310   7.499   8.018   2.760
79493SOL    HW140311   7.516   7.935   2.805
79493SOL    HW240312   7.482   7.993   2.669
79494SOL     OW40313  12.433   4.593  10.892
79494SOL    HW140314  12.485   4.562  10.818
79494SOL    HW240315  12.469   4.548  10.968
79495SOL     OW40316  14.448   4.637  11.283
79495SOL    HW140317  14.414   4.690  11.211
79495SOL    HW240318  14.371   4.601  11.326
79496SOL     OW40319   2.082  11.430   4.152
79496SOL    HW140320   2.002  11.459   4.197
79496SOL    HW240321   2.142  11.407   4.223
79497SOL     OW40322   9.434   3.492  13.500
79497SOL    HW140323   9.516   3.532  13.473
79497SOL    HW240324   9.458   3.401  13.521
79498SOL     OW40325   6.003   6.733   0.503
79498SOL    HW140326   5.928   6.676   0.521
79498SOL    HW240327   5.965   6.809   0.458
79499SOL     OW40328   6.012   7.934   4.782
79499SOL    HW140329   6.029   7.892   4.697
79499SOL    HW240330   5.957   7.872   4.829
79500SOL     OW40331   5.823   5.367   6.809
79500SOL    HW140332   5.755   5.430   6.787
79500SOL    HW240333   5.899   5.394   6.757
79501SOL     OW40334  12.887  10.037   7.747
79501SOL    HW140335  12.868   9.943   7.744
79501SOL    HW240336  12.980  10.042   7.769
79502SOL     OW40337   4.270  12.130  13.218
79502SOL    HW140338   4.183  12.112  13.184
79502SOL    HW240339   4.330  12.088  13.157
79503SOL     OW40340  11.611  14.706   1.315
79503SOL    HW140341  11.676  14.735   1.379
79503SOL    HW240342  11.573  14.627   1.353
79504SOL     OW40343   0.803   7.161   3.880
79504SOL    HW140344   0.897   7.147   3.889
79504SOL    HW240345   0.783   7.129   3.791
79505SOL     OW40346   1.844  10.695   8.086
79505SOL    HW140347   1.894  10.777   8.090
79505SOL    HW240348   1.870  10.647   8.165
79506SOL     OW40349   5.350   9.162   1.951
79506SOL    HW140350   5.399   9.174   2.032
79506SOL    HW240351   5.354   9.068   1.934
79507SOL     OW40352  12.494   0.003  14.175
79507SOL    HW140353  12.590   0.007  14.180
79507SOL    HW240354  12.473  14.789  14.203
79508SOL     OW40355   4.713  11.181   1.851
79508SOL    HW140356   4.659  11.112   1.814
79508SOL    HW240357   4.784  11.134   1.896
79509SOL     OW40358   7.320   5.439   5.019
79509SOL    HW140359   7.361   5.401   4.940
79509SOL    HW240360   7.327   5.534   5.006
79510SOL     OW40361   0.216  10.637   6.730
79510SOL    HW140362   0.159  10.626   6.806
79510SOL    HW240363   0.207  10.729   6.706
79511SOL     OW40364   4.234  10.710   5.632
79511SOL    HW140365   4.245  10.657   5.712
79511SOL    HW240366   4.151  10.679   5.595
79512SOL     OW40367   8.395   1.800   8.551
79512SOL    HW140368   8.399   1.708   8.526
79512SOL    HW240369   8.344   1.801   8.632
79513SOL     OW40370   5.897   8.781   4.433
79513SOL    HW140371   5.869   8.812   4.347
79513SOL    HW240372   5.971   8.837   4.455
79514SOL     OW40373  10.894   4.747   9.043
79514SOL    HW140374  10.893   4.680   8.975
79514SOL    HW240375  10.925   4.826   9.000
79515SOL     OW40376  12.781  12.836   7.567
79515SOL    HW140377  12.719  12.819   7.496
79515SOL    HW240378  12.826  12.916   7.542
79516SOL     OW40379  12.448   0.371   4.002
79516SOL    HW140380  12.519   0.392   3.941
79516SOL    HW240381  12.418   0.456   4.033
79517SOL     OW40382   7.274   9.172   9.421
79517SOL    HW140383   7.321   9.232   9.478
79517SOL    HW240384   7.343   9.117   9.383
79518SOL     OW40385   6.219   9.572   6.645
79518SOL    HW140386   6.173   9.498   6.684
79518SOL    HW240387   6.157   9.608   6.581
79519SOL     OW40388   9.591   8.606   5.612
79519SOL    HW140389   9.522   8.540   5.608
79519SOL    HW240390   9.648   8.585   5.537
79520SOL     OW40391  12.619   7.032  12.606
79520SOL    HW140392  12.542   6.993  12.648
79520SOL    HW240393  12.693   6.996  12.655
79521SOL     OW40394  10.074   3.318   8.375
79521SOL    HW140395  10.018   3.257   8.326
79521SOL    HW240396  10.148   3.333   8.317
79522SOL     OW40397   4.769  10.077  10.269
79522SOL    HW140398   4.742  10.113  10.354
79522SOL    HW240399   4.791  10.154  10.216
79523SOL     OW40400  13.009   6.671   2.485
79523SOL    HW140401  13.050   6.584   2.489
79523SOL    HW240402  12.965   6.672   2.400
79524SOL     OW40403   2.904  10.615  12.313
79524SOL    HW140404   2.819  10.657  12.328
79524SOL    HW240405   2.933  10.587  12.400
79525SOL     OW40406  13.209   5.950  10.476
79525SOL    HW140407  13.283   5.941  10.536
79525SOL    HW240408  13.132   5.926  10.529
79526SOL     OW40409   7.631   8.574  11.656
79526SOL    HW140410   7.550   8.617  11.628
79526SOL    HW240411   7.680   8.643  11.701
79527SOL     OW40412  13.299  14.209   9.178
79527SOL    HW140413  13.267  14.141   9.119
79527SOL    HW240414  13.354  14.163   9.241
79528SOL     OW40415   8.449   2.156  10.255
79528SOL    HW140416   8.387   2.135  10.185
79528SOL    HW240417   8.529   2.110  10.230
79529SOL     OW40418  13.518  10.508  11.878
79529SOL    HW140419  13.509  10.433  11.819
79529SOL    HW240420  13.556  10.577  11.824
79530SOL     OW40421   7.947  10.413  12.250
79530SOL    HW140422   8.036  10.383  12.231
79530SOL    HW240423   7.942  10.499  12.209
79531SOL     OW40424   4.035   0.233   5.542
79531SOL    HW140425   4.075   0.296   5.602
79531SOL    HW240426   3.956   0.204   5.588
79532SOL     OW40427  14.077  12.583   1.413
79532SOL    HW140428  14.131  12.511   1.381
79532SOL    HW240429  14.125  12.662   1.386
79533SOL     OW40430   4.796   1.246   9.129
79533SOL    HW140431   4.816   1.231   9.222
79533SOL    HW240432   4.831   1.170   9.084
79534SOL     OW40433   8.283   3.440   7.358
79534SOL    HW140434   8.254   3.505   7.294
79534SOL    HW240435   8.243   3.358   7.329
79535SOL     OW40436   1.191   5.529   6.116
79535SOL    HW140437   1.218   5.619   6.133
79535SOL    HW240438   1.271   5.485   6.086
79536SOL     OW40439  10.541   6.114   1.698
79536SOL    HW140440  10.625   6.157   1.713
79536SOL    HW240441  10.496   6.170   1.634
79537SOL     OW40442   9.051   9.868   2.426
79537SOL    HW140443   9.024   9.778   2.447
79537SOL    HW240444   8.974   9.921   2.446
79538SOL     OW40445   5.562  10.358   4.870
79538SOL    HW140446   5.559  10.286   4.807
79538SOL    HW240447   5.535  10.434   4.820
79539SOL     OW40448   4.459   2.215  10.697
79539SOL    HW140449   4.529   2.197  10.759
79539SOL    HW240450   4.380   2.220  10.751
79540SOL     OW40451   5.455   3.647  12.580
79540SOL    HW140452   5.395   3.577  12.553
79540SOL    HW240453   5.511   3.662  12.504
79541SOL     OW40454  10.153   9.497   3.686
79541SOL    HW140455  10.150   9.435   3.613
79541SOL    HW240456  10.242   9.532   3.684
79542SOL     OW40457   7.594  10.810   0.666
79542SOL    HW140458   7.545  10.750   0.610
79542SOL    HW240459   7.587  10.895   0.622
79543SOL     OW40460   5.806  14.066   6.021
79543SOL    HW140461   5.883  14.050   5.965
79543SOL    HW240462   5.733  14.030   5.971
79544SOL     OW40463   6.635  13.972   5.183
79544SOL    HW140464   6.680  13.962   5.267
79544SOL    HW240465   6.571  13.901   5.182
79545SOL     OW40466   6.522   7.781  10.568
79545SOL    HW140467   6.572   7.861  10.584
79545SOL    HW240468   6.470   7.768  10.647
79546SOL     OW40469  12.156  10.253   6.542
79546SOL    HW140470  12.210  10.323   6.579
79546SOL    HW240471  12.125  10.203   6.617
79547SOL     OW40472  13.020   8.261   4.867
79547SOL    HW140473  12.992   8.199   4.799
79547SOL    HW240474  13.023   8.208   4.947
79548SOL     OW40475   8.135   2.392   0.905
79548SOL    HW140476   8.197   2.343   0.961
79548SOL    HW240477   8.128   2.478   0.948
79549SOL     OW40478   3.587   1.275   1.852
79549SOL    HW140479   3.496   1.257   1.875
79549SOL    HW240480   3.584   1.358   1.804
79550SOL     OW40481  13.697  11.512   1.441
79550SOL    HW140482  13.688  11.597   1.398
79550SOL    HW240483  13.685  11.448   1.371
79551SOL     OW40484   4.893   6.937   6.075
79551SOL    HW140485   4.965   6.991   6.109
79551SOL    HW240486   4.820   6.999   6.064
79552SOL     OW40487   4.258   6.238  10.473
79552SOL    HW140488   4.211   6.308  10.428
79552SOL    HW240489   4.263   6.267  10.564
79553SOL     OW40490   2.244   9.348   4.715
79553SOL    HW140491   2.212   9.349   4.625
79553SOL    HW240492   2.172   9.383   4.767
79554SOL     OW40493   9.903   2.327   5.646
79554SOL    HW140494   9.897   2.344   5.552
79554SOL    HW240495   9.997   2.334   5.665
79555SOL     OW40496   6.800   4.801  13.602
79555SOL    HW140497   6.834   4.891  13.600
79555SOL    HW240498   6.733   4.803  13.671
79556SOL     OW40499  12.137   5.758   5.528
79556SOL    HW140500  12.202   5.785   5.463
79556SOL    HW240501  12.074   5.707   5.478
79557SOL     OW40502  11.881   5.126   5.882
79557SOL    HW140503  11.835   5.202   5.848
79557SOL    HW240504  11.930   5.091   5.808
79558SOL     OW40505  10.804   1.682  10.454
79558SOL    HW140506  10.899   1.693  10.444
79558SOL    HW240507  10.792   1.660  10.546
79559SOL     OW40508   9.459   6.075  13.219
79559SOL    HW140509   9.368   6.060  13.191
79559SOL    HW240510   9.502   6.110  13.141
79560SOL     OW40511   7.127   4.021   3.551
79560SOL    HW140512   7.162   3.946   3.504
79560SOL    HW240513   7.190   4.091   3.536
79561SOL     OW40514  11.514   6.336   2.045
79561SOL    HW140515  11.500   6.279   2.121
79561SOL    HW240516  11.606   6.323   2.022
79562SOL     OW40517   4.005   5.774  12.640
79562SOL    HW140518   3.936   5.722  12.680
79562SOL    HW240519   4.040   5.717  12.571
79563SOL     OW40520  11.615   4.624   4.563
79563SOL    HW140521  11.616   4.660   4.652
79563SOL    HW240522  11.595   4.699   4.507
79564SOL     OW40523  11.169  10.880   8.412
79564SOL    HW140524  11.245  10.841   8.455
79564SOL    HW240525  11.158  10.965   8.455
79565SOL     OW40526  13.285   2.093   3.788
79565SOL    HW140527  13.225   2.116   3.717
79565SOL    HW240528  13.278   1.998   3.796
79566SOL     OW40529   3.808   3.152   0.191
79566SOL    HW140530   3.779   3.160   0.100
79566SOL    HW240531   3.756   3.218   0.238
79567SOL     OW40532  10.399   3.665   7.894
79567SOL    HW140533  10.490   3.695   7.893
79567SOL    HW240534  10.348   3.744   7.911
79568SOL     OW40535   7.710   6.922   8.378
79568SOL    HW140536   7.752   6.969   8.307
79568SOL    HW240537   7.746   6.960   8.458
79569SOL     OW40538   4.879  12.964  14.495
79569SOL    HW140539   4.893  13.051  14.533
79569SOL    HW240540   4.965  12.938  14.463
79570SOL     OW40541  10.234   2.929  14.802
79570SOL    HW140542  10.231   2.843  14.760
79570SOL    HW240543  10.315   2.969  14.770
79571SOL     OW40544   0.174   4.829  12.829
79571SOL    HW140545   0.227   4.792  12.759
79571SOL    HW240546   0.238   4.872  12.886
79572SOL     OW40547  14.154   5.830   1.984
79572SOL    HW140548  14.141   5.740   1.952
79572SOL    HW240549  14.164   5.882   1.904
79573SOL     OW40550   5.966  12.605   9.763
79573SOL    HW140551   6.049  12.650   9.747
79573SOL    HW240552   5.909  12.634   9.692
79574SOL     OW40553   4.419   9.869   7.165
79574SOL    HW140554   4.439   9.960   7.140
79574SOL    HW240555   4.372   9.833   7.090
79575SOL     OW40556   9.698  10.021   2.794
79575SOL    HW140557   9.717   9.939   2.748
79575SOL    HW240558   9.706  10.088   2.726
79576SOL     OW40559   9.767   7.125   8.167
79576SOL    HW140560   9.755   7.074   8.247
79576SOL    HW240561   9.748   7.215   8.193
79577SOL     OW40562   4.623   2.587  14.829
79577SOL    HW140563   4.660   2.647   0.018
79577SOL    HW240564   4.694   2.526  14.809
79578SOL     OW40565  12.955  11.150  10.992
79578SOL    HW140566  12.888  11.158  11.060
79578SOL    HW240567  12.995  11.237  10.988
79579SOL     OW40568  14.016  14.780   0.565
79579SOL    HW140569  13.973  14.841   0.505
79579SOL    HW240570  14.073  14.727   0.509
79580SOL     OW40571   7.167   5.633  10.895
79580SOL    HW140572   7.150   5.726  10.912
79580SOL    HW240573   7.104   5.586  10.949
79581SOL     OW40574   0.402  14.531   3.680
79581SOL    HW140575   0.369  14.446   3.705
79581SOL    HW240576   0.399  14.532   3.584
79582SOL     OW40577  12.366   6.018   8.656
79582SOL    HW140578  12.436   6.021   8.721
79582SOL    HW240579  12.408   5.983   8.577
79583SOL     OW40580   8.973  13.525   4.888
79583SOL    HW140581   9.052  13.557   4.846
79583SOL    HW240582   8.971  13.571   4.972
79584SOL     OW40583   4.887   4.398   6.468
79584SOL    HW140584   4.805   4.360   6.436
79584SOL    HW240585   4.928   4.435   6.390
79585SOL     OW40586   6.574   9.966   3.786
79585SOL    HW140587   6.506   9.900   3.802
79585SOL    HW240588   6.623   9.970   3.868
79586SOL     OW40589  13.402   8.042   7.349
79586SOL    HW140590  13.385   8.052   7.443
79586SOL    HW240591  13.318   8.061   7.307
79587SOL     OW40592   5.583   3.810  11.099
79587SOL    HW140593   5.527   3.884  11.075
79587SOL    HW240594   5.522   3.738  11.116
79588SOL     OW40595   1.106   2.390  10.779
79588SOL    HW140596   1.198   2.404  10.801
79588SOL    HW240597   1.058   2.447  10.838
79589SOL     OW40598  14.704  13.601   4.276
79589SOL    HW140599  14.663  13.560   4.200
79589SOL    HW240600  14.634  13.651   4.318
79590SOL     OW40601  13.859   8.634  10.884
79590SOL    HW140602  13.880   8.706  10.826
79590SOL    HW240603  13.940   8.582  10.889
79591SOL     OW40604   8.925   7.930   7.734
79591SOL    HW140605   8.883   7.927   7.820
79591SOL    HW240606   8.891   8.009   7.694
79592SOL     OW40607   2.213   6.198   6.019
79592SOL    HW140608   2.220   6.269   5.956
79592SOL    HW240609   2.302   6.167   6.030
79593SOL     OW40610  10.734  13.577   9.600
79593SOL    HW140611  10.720  13.484   9.614
79593SOL    HW240612  10.731  13.588   9.505
79594SOL     OW40613   2.011   2.168   5.789
79594SOL    HW140614   2.056   2.126   5.862
79594SOL    HW240615   2.026   2.262   5.804
79595SOL     OW40616   0.964  14.767   3.034
79595SOL    HW140617   0.923  14.700   2.978
79595SOL    HW240618   1.045  14.789   2.989
79596SOL     OW40619   8.492   7.783   5.977
79596SOL    HW140620   8.463   7.697   6.006
79596SOL    HW240621   8.515   7.771   5.885
79597SOL     OW40622   2.406   2.713   7.163
79597SOL    HW140623   2.318   2.703   7.199
79597SOL    HW240624   2.398   2.784   7.099
79598SOL     OW40625   0.186  11.692   2.170
79598SOL    HW140626   0.196  11.636   2.093
79598SOL    HW240627   0.245  11.766   2.154
79599SOL     OW40628   0.944   1.453   5.802
79599SOL    HW140629   0.990   1.486   5.879
79599SOL    HW240630   0.857   1.430   5.834
79600SOL     OW40631  14.548  10.981   8.024
79600SOL    HW140632  14.524  10.893   8.055
79600SOL    HW240633  14.607  11.014   8.091
79601SOL     OW40634   3.418   3.733   9.829
79601SOL    HW140635   3.373   3.650   9.844
79601SOL    HW240636   3.507   3.718   9.862
79602SOL     OW40637   1.357  13.317   6.989
79602SOL    HW140638   1.436  13.302   7.042
79602SOL    HW240639   1.373  13.268   6.909
79603SOL     OW40640   9.725   5.429  10.534
79603SOL    HW140641   9.760   5.500  10.480
79603SOL    HW240642   9.696   5.363  10.472
79604SOL     OW40643   8.039  13.587  13.193
79604SOL    HW140644   7.954  13.620  13.164
79604SOL    HW240645   8.021  13.499  13.225
79605SOL     OW40646   5.611   8.281   1.863
79605SOL    HW140647   5.648   8.335   1.933
79605SOL    HW240648   5.609   8.192   1.899
79606SOL     OW40649   4.512   8.718   8.886
79606SOL    HW140650   4.505   8.676   8.800
79606SOL    HW240651   4.526   8.646   8.947
79607SOL     OW40652   7.423   8.718   9.371
79607SOL    HW140653   7.374   8.665   9.435
79607SOL    HW240654   7.466   8.654   9.314
79608SOL     OW40655  10.521  11.290   1.959
79608SOL    HW140656  10.443  11.307   2.012
79608SOL    HW240657  10.594  11.301   2.019
79609SOL     OW40658   0.703   6.848   0.121
79609SOL    HW140659   0.716   6.758   0.090
79609SOL    HW240660   0.721   6.903   0.044
79610SOL     OW40661   2.559  11.466   0.287
79610SOL    HW140662   2.612  11.390   0.310
79610SOL    HW240663   2.477  11.430   0.254
79611SOL     OW40664  10.363  12.511   8.559
79611SOL    HW140665  10.324  12.492   8.473
79611SOL    HW240666  10.343  12.433   8.611
79612SOL     OW40667   2.320  13.564   2.714
79612SOL    HW140668   2.235  13.523   2.700
79612SOL    HW240669   2.308  13.619   2.791
79613SOL     OW40670   0.019   1.590  10.651
79613SOL    HW140671  14.818   1.564  10.701
79613SOL    HW240672   0.006   1.549  10.565
79614SOL     OW40673   0.989  10.265   5.533
79614SOL    HW140674   0.900  10.246   5.503
79614SOL    HW240675   0.976  10.324   5.607
79615SOL     OW40676  10.911  14.017   4.780
79615SOL    HW140677  10.969  14.063   4.719
79615SOL    HW240678  10.959  14.017   4.862
79616SOL     OW40679   6.561   9.077   2.312
79616SOL    HW140680   6.538   9.158   2.358
79616SOL    HW240681   6.600   9.106   2.230
79617SOL     OW40682   3.991   7.601   3.715
79617SOL    HW140683   3.958   7.686   3.685
79617SOL    HW240684   4.059   7.623   3.779
79618SOL     OW40685  13.674   0.913   6.740
79618SOL    HW140686  13.610   0.850   6.775
79618SOL    HW240687  13.621   0.979   6.697
79619SOL     OW40688  10.105   0.579   9.129
79619SOL    HW140689  10.098   0.651   9.066
79619SOL    HW240690  10.163   0.516   9.087
79620SOL     OW40691   1.157   8.939  11.153
79620SOL    HW140692   1.212   9.007  11.113
79620SOL    HW240693   1.069   8.958  11.121
79621SOL     OW40694   9.921   5.273  10.014
79621SOL    HW140695   9.885   5.253  10.100
79621SOL    HW240696  10.015   5.285  10.029
79622SOL     OW40697  13.200  13.161   4.695
79622SOL    HW140698  13.271  13.102   4.670
79622SOL    HW240699  13.136  13.105   4.738
79623SOL     OW40700   0.731   3.831  14.014
79623SOL    HW140701   0.721   3.912  14.065
79623SOL    HW240702   0.652   3.780  14.035
79624SOL     OW40703   0.475   4.051   5.460
79624SOL    HW140704   0.394   4.001   5.470
79624SOL    HW240705   0.523   4.005   5.391
79625SOL     OW40706  10.196   0.012  11.369
79625SOL    HW140707  10.275   0.060  11.395
79625SOL    HW240708  10.167  14.844  11.449
79626SOL     OW40709   2.791   8.617   2.173
79626SOL    HW140710   2.824   8.588   2.088
79626SOL    HW240711   2.785   8.712   2.165
79627SOL     OW40712   4.036   2.277   5.106
79627SOL    HW140713   4.025   2.296   5.012
79627SOL    HW240714   4.077   2.356   5.142
79628SOL     OW40715   7.838  11.348   9.993
79628SOL    HW140716   7.889  11.274   9.959
79628SOL    HW240717   7.815  11.398   9.915
79629SOL     OW40718   2.739   1.061  14.358
79629SOL    HW140719   2.712   0.971  14.378
79629SOL    HW240720   2.730   1.107  14.441
79630SOL     OW40721   4.903   0.073   8.235
79630SOL    HW140722   4.920   0.061   8.142
79630SOL    HW240723   4.823   0.125   8.238
79631SOL     OW40724   1.886   8.828   2.795
79631SOL    HW140725   1.875   8.911   2.841
79631SOL    HW240726   1.801   8.812   2.754
79632SOL     OW40727   2.293   2.060   3.046
79632SOL    HW140728   2.218   2.022   2.999
79632SOL    HW240729   2.323   2.131   2.988
79633SOL     OW40730  13.190  10.597  14.212
79633SOL    HW140731  13.207  10.690  14.193
79633SOL    HW240732  13.095  10.587  14.204
79634SOL     OW40733   4.199  11.995   0.621
79634SOL    HW140734   4.201  12.016   0.715
79634SOL    HW240735   4.224  11.903   0.618
79635SOL     OW40736   9.831   0.051  12.253
79635SOL    HW140737   9.808   0.140  12.280
79635SOL    HW240738   9.759  14.873  12.287
79636SOL     OW40739   3.666  14.853   5.344
79636SOL    HW140740   3.659   0.066   5.381
79636SOL    HW240741   3.710  14.866   5.261
79637SOL     OW40742   0.531  13.078  14.364
79637SOL    HW140743   0.560  12.996  14.326
79637SOL    HW240744   0.525  13.060  14.458
79638SOL     OW40745   7.635  11.124   5.344
79638SOL    HW140746   7.666  11.044   5.388
79638SOL    HW240747   7.660  11.112   5.252
79639SOL     OW40748   1.527   4.070  11.041
79639SOL    HW140749   1.562   4.035  11.123
79639SOL    HW240750   1.438   4.098  11.063
79640SOL     OW40751  14.712   9.922   1.813
79640SOL    HW140752  14.659   9.845   1.832
79640SOL    HW240753  14.651   9.985   1.774
79641SOL     OW40754   8.562  10.874   6.466
79641SOL    HW140755   8.500  10.904   6.400
79641SOL    HW240756   8.646  10.908   6.437
79642SOL     OW40757   2.220  10.159   5.839
79642SOL    HW140758   2.291  10.098   5.821
79642SOL    HW240759   2.217  10.165   5.935
79643SOL     OW40760   2.226   1.203   8.534
79643SOL    HW140761   2.278   1.235   8.461
79643SOL    HW240762   2.286   1.205   8.609
79644SOL     OW40763  10.661   6.295  14.562
79644SOL    HW140764  10.720   6.276  14.489
79644SOL    HW240765  10.588   6.342  14.523
79645SOL     OW40766  14.555   1.375   8.784
79645SOL    HW140767  14.615   1.364   8.858
79645SOL    HW240768  14.468   1.370   8.822
79646SOL     OW40769   6.096   5.899   2.456
79646SOL    HW140770   6.133   5.811   2.447
79646SOL    HW240771   6.087   5.911   2.551
79647SOL     OW40772  11.470   6.971  12.122
79647SOL    HW140773  11.469   7.066  12.133
79647SOL    HW240774  11.472   6.936  12.211
79648SOL     OW40775   8.344   7.332  13.573
79648SOL    HW140776   8.301   7.267  13.518
79648SOL    HW240777   8.420   7.361  13.522
79649SOL     OW40778   3.144   5.645   3.796
79649SOL    HW140779   3.068   5.694   3.766
79649SOL    HW240780   3.206   5.711   3.825
79650SOL     OW40781  13.685   4.327   3.203
79650SOL    HW140782  13.616   4.387   3.177
79650SOL    HW240783  13.722   4.365   3.283
79651SOL     OW40784  11.866   1.153   8.426
79651SOL    HW140785  11.867   1.231   8.372
79651SOL    HW240786  11.955   1.118   8.421
79652SOL     OW40787   4.043   7.830   0.792
79652SOL    HW140788   3.963   7.801   0.834
79652SOL    HW240789   4.030   7.813   0.699
79653SOL     OW40790  12.824  13.699   6.962
79653SOL    HW140791  12.766  13.633   7.000
79653SOL    HW240792  12.848  13.664   6.876
79654SOL     OW40793  10.688   0.319   0.528
79654SOL    HW140794  10.670   0.411   0.548
79654SOL    HW240795  10.601   0.279   0.520
79655SOL     OW40796   0.850   5.162  13.651
79655SOL    HW140797   0.903   5.241  13.660
79655SOL    HW240798   0.827   5.158  13.558
79656SOL     OW40799  10.529   4.856  12.172
79656SOL    HW140800  10.477   4.777  12.191
79656SOL    HW240801  10.483   4.898  12.100
79657SOL     OW40802   7.497   5.600   3.831
79657SOL    HW140803   7.407   5.587   3.862
79657SOL    HW240804   7.543   5.635   3.907
79658SOL     OW40805  13.938  13.994   1.535
79658SOL    HW140806  13.981  14.036   1.461
79658SOL    HW240807  14.005  13.935   1.571
79659SOL     OW40808   6.904  12.568   5.382
79659SOL    HW140809   6.826  12.518   5.403
79659SOL    HW240810   6.871  12.648   5.341
79660SOL     OW40811   0.154   8.295   0.458
79660SOL    HW140812   0.084   8.269   0.399
79660SOL    HW240813   0.116   8.365   0.512
79661SOL     OW40814   4.908   6.159   6.832
79661SOL    HW140815   4.880   6.247   6.856
79661SOL    HW240816   4.980   6.139   6.892
79662SOL     OW40817   6.487  11.743   6.233
79662SOL    HW140818   6.469  11.784   6.318
79662SOL    HW240819   6.414  11.771   6.178
79663SOL     OW40820   9.421   0.951  11.012
79663SOL    HW140821   9.440   0.983  11.101
79663SOL    HW240822   9.413   1.031  10.960
79664SOL     OW40823   0.675   4.444   3.286
79664SOL    HW140824   0.613   4.373   3.270
79664SOL    HW240825   0.750   4.422   3.230
79665SOL     OW40826   1.769   7.228  12.661
79665SOL    HW140827   1.860   7.254  12.680
79665SOL    HW240828   1.768   7.211  12.567
79666SOL     OW40829   3.839  14.174   2.725
79666SOL    HW140830   3.828  14.256   2.677
79666SOL    HW240831   3.834  14.200   2.817
79667SOL     OW40832  13.968  10.884   5.175
79667SOL    HW140833  13.989  10.977   5.161
79667SOL    HW240834  13.958  10.849   5.087
79668SOL     OW40835   2.380  14.499  12.145
79668SOL    HW140836   2.402  14.545  12.225
79668SOL    HW240837   2.396  14.562  12.075
79669SOL     OW40838  13.040   2.608   3.735
79669SOL    HW140839  12.980   2.534   3.741
79669SOL    HW240840  13.118   2.579   3.782
79670SOL     OW40841  10.357   5.556   3.760
79670SOL    HW140842  10.281   5.610   3.781
79670SOL    HW240843  10.354   5.485   3.824
79671SOL     OW40844  12.115   7.561   1.492
79671SOL    HW140845  12.106   7.469   1.467
79671SOL    HW240846  12.039   7.579   1.548
79672SOL     OW40847   1.208   7.549   7.138
79672SOL    HW140848   1.137   7.601   7.176
79672SOL    HW240849   1.195   7.555   7.044
79673SOL     OW40850  12.671  13.043   7.247
79673SOL    HW140851  12.756  13.002   7.258
79673SOL    HW240852  12.664  13.105   7.319
79674SOL     OW40853   3.563   0.494   6.183
79674SOL    HW140854   3.610   0.463   6.106
79674SOL    HW240855   3.565   0.421   6.245
79675SOL     OW40856   4.012   5.480   8.284
79675SOL    HW140857   3.979   5.561   8.247
79675SOL    HW240858   4.043   5.504   8.371
79676SOL     OW40859   6.733   8.510  12.205
79676SOL    HW140860   6.791   8.578  12.238
79676SOL    HW240861   6.754   8.433  12.259
79677SOL     OW40862   1.739  12.488   1.815
79677SOL    HW140863   1.807  12.502   1.881
79677SOL    HW240864   1.754  12.399   1.784
79678SOL     OW40865   2.028   9.922  14.697
79678SOL    HW140866   2.007   9.835  14.664
79678SOL    HW240867   2.116   9.913  14.733
79679SOL     OW40868   4.350   7.489   4.153
79679SOL    HW140869   4.397   7.563   4.190
79679SOL    HW240870   4.354   7.421   4.221
79680SOL     OW40871  12.496  14.191   6.222
79680SOL    HW140872  12.512  14.272   6.172
79680SOL    HW240873  12.577  14.179   6.272
79681SOL     OW40874   1.189  13.546   5.456
79681SOL    HW140875   1.117  13.483   5.456
79681SOL    HW240876   1.226  13.540   5.368
79682SOL     OW40877   2.563  12.456  11.007
79682SOL    HW140878   2.517  12.540  11.012
79682SOL    HW240879   2.599  12.443  11.095
79683SOL     OW40880   4.484   3.476   3.214
79683SOL    HW140881   4.522   3.552   3.169
79683SOL    HW240882   4.505   3.490   3.306
79684SOL     OW40883   9.001   0.702   9.957
79684SOL    HW140884   9.094   0.679   9.958
79684SOL    HW240885   8.960   0.631   9.906
79685SOL     OW40886  13.779  11.675   8.541
79685SOL    HW140887  13.835  11.718   8.476
79685SOL    HW240888  13.690  11.695   8.513
79686SOL     OW40889  11.140   7.568   4.107
79686SOL    HW140890  11.147   7.663   4.107
79686SOL    HW240891  11.143   7.544   4.200
79687SOL     OW40892   4.275  14.490   1.198
79687SOL    HW140893   4.231  14.572   1.221
79687SOL    HW240894   4.294  14.497   1.105
79688SOL     OW40895   5.205   4.975   5.859
79688SOL    HW140896   5.285   4.977   5.912
79688SOL    HW240897   5.162   5.059   5.877
79689SOL     OW40898   2.381   0.430   3.690
79689SOL    HW140899   2.384   0.431   3.785
79689SOL    HW240900   2.288   0.428   3.668
79690SOL     OW40901   5.061   4.908  14.408
79690SOL    HW140902   5.033   4.908  14.499
79690SOL    HW240903   5.139   4.964  14.406
79691SOL     OW40904   3.346  10.524   3.046
79691SOL    HW140905   3.307  10.572   3.120
79691SOL    HW240906   3.425  10.484   3.082
79692SOL     OW40907  13.101   6.906   4.670
79692SOL    HW140908  13.042   6.950   4.609
79692SOL    HW240909  13.176   6.880   4.617
79693SOL     OW40910  12.879  13.853   5.433
79693SOL    HW140911  12.899  13.945   5.420
79693SOL    HW240912  12.845  13.824   5.348
79694SOL     OW40913  13.706  11.909  12.631
79694SOL    HW140914  13.790  11.912  12.677
79694SOL    HW240915  13.729  11.893  12.540
79695SOL     OW40916   5.307   8.671   0.314
79695SOL    HW140917   5.337   8.718   0.237
79695SOL    HW240918   5.387   8.638   0.354
79696SOL     OW40919   2.033   7.365  12.397
79696SOL    HW140920   2.056   7.433  12.333
79696SOL    HW240921   2.071   7.395  12.479
79697SOL     OW40922   2.081   0.637  12.822
79697SOL    HW140923   2.168   0.677  12.828
79697SOL    HW240924   2.099   0.544  12.810
79698SOL     OW40925   0.343   3.138  14.213
79698SOL    HW140926   0.399   3.075  14.257
79698SOL    HW240927   0.342   3.109  14.121
79699SOL     OW40928   0.373   8.546   3.973
79699SOL    HW140929   0.357   8.464   3.927
79699SOL    HW240930   0.287   8.574   4.005
79700SOL     OW40931   7.992   4.964   9.628
79700SOL    HW140932   7.904   4.929   9.617
79700SOL    HW240933   8.005   4.969   9.723
79701SOL     OW40934   4.584   2.177   7.890
79701SOL    HW140935   4.564   2.100   7.943
79701SOL    HW240936   4.543   2.160   7.806
79702SOL     OW40937   2.813   8.761   7.804
79702SOL    HW140938   2.750   8.766   7.733
79702SOL    HW240939   2.855   8.847   7.806
79703SOL     OW40940   2.144   5.836  12.633
79703SOL    HW140941   2.139   5.741  12.645
79703SOL    HW240942   2.236   5.852  12.611
79704SOL     OW40943  11.642   9.261   6.141
79704SOL    HW140944  11.667   9.269   6.050
79704SOL    HW240945  11.581   9.187   6.142
79705SOL     OW40946   6.792  10.312  10.602
79705SOL    HW140947   6.858  10.363  10.650
79705SOL    HW240948   6.713  10.318  10.656
79706SOL     OW40949   3.037  12.866  10.286
79706SOL    HW140950   2.971  12.889  10.220
79706SOL    HW240951   3.091  12.800  10.243
79707SOL     OW40952   8.813   3.835  11.237
79707SOL    HW140953   8.883   3.827  11.173
79707SOL    HW240954   8.845   3.903  11.298
79708SOL     OW40955   3.777   3.408  11.798
79708SOL    HW140956   3.824   3.486  11.826
79708SOL    HW240957   3.750   3.366  11.879
79709SOL     OW40958   1.198   7.649   4.310
79709SOL    HW140959   1.292   7.657   4.327
79709SOL    HW240960   1.157   7.680   4.391
79710SOL     OW40961  13.397   4.953  14.787
79710SOL    HW140962  13.485   4.937  14.821
79710SOL    HW240963  13.347   4.984  14.863
79711SOL     OW40964   6.553   1.004   0.238
79711SOL    HW140965   6.482   0.989   0.175
79711SOL    HW240966   6.513   1.056   0.307
79712SOL     OW40967   0.641   0.940  10.198
79712SOL    HW140968   0.615   0.896  10.117
79712SOL    HW240969   0.679   0.871  10.252
79713SOL     OW40970   5.333  11.666   6.684
79713SOL    HW140971   5.347  11.645   6.592
79713SOL    HW240972   5.310  11.583   6.725
79714SOL     OW40973   8.261   7.741  12.364
79714SOL    HW140974   8.183   7.762  12.311
79714SOL    HW240975   8.326   7.712  12.300
79715SOL     OW40976   6.103   9.716   1.203
79715SOL    HW140977   6.179   9.703   1.146
79715SOL    HW240978   6.071   9.628   1.220
79716SOL     OW40979   4.733  14.662  14.854
79716SOL    HW140980   4.662  14.612  14.813
79716SOL    HW240981   4.697  14.749  14.865
79717SOL     OW40982   1.126  11.795  11.792
79717SOL    HW140983   1.161  11.756  11.873
79717SOL    HW240984   1.057  11.853  11.822
79718SOL     OW40985   5.209   4.139  12.360
79718SOL    HW140986   5.196   4.202  12.431
79718SOL    HW240987   5.231   4.193  12.284
79719SOL     OW40988  10.892  13.778   4.649
79719SOL    HW140989  10.866  13.716   4.718
79719SOL    HW240990  10.891  13.863   4.692
79720SOL     OW40991  13.319   8.127   6.924
79720SOL    HW140992  13.413   8.128   6.905
79720SOL    HW240993  13.314   8.119   7.019
79721SOL     OW40994   7.473  13.403   4.627
79721SOL    HW140995   7.440  13.377   4.713
79721SOL    HW240996   7.565  13.378   4.627
79722SOL     OW40997   1.567   2.922   8.418
79722SOL    HW140998   1.538   2.882   8.500
79722SOL    HW240999   1.512   2.882   8.351
79723SOL     OW41000   1.907   8.880  10.668
79723SOL    HW141001   1.945   8.941  10.732
79723SOL    HW241002   1.978   8.820  10.646
79724SOL     OW41003  12.057  14.623   9.020
79724SOL    HW141004  12.048  14.647   9.113
79724SOL    HW241005  12.036  14.530   9.017
79725SOL     OW41006  13.100   8.280   6.504
79725SOL    HW141007  13.015   8.309   6.536
79725SOL    HW241008  13.161   8.298   6.575
79726SOL     OW41009   6.121   7.647   8.445
79726SOL    HW141010   6.187   7.712   8.422
79726SOL    HW241011   6.071   7.635   8.364
79727SOL     OW41012   6.438   6.822  11.823
79727SOL    HW141013   6.522   6.863  11.801
79727SOL    HW241014   6.461   6.730  11.842
79728SOL     OW41015   7.822   4.186  10.568
79728SOL    HW141016   7.897   4.191  10.627
79728SOL    HW241017   7.767   4.118  10.606
79729SOL     OW41018   6.177   4.838   2.995
79729SOL    HW141019   6.092   4.829   2.952
79729SOL    HW241020   6.156   4.864   3.085
79730SOL     OW41021  10.636   3.878   6.995
79730SOL    HW141022  10.550   3.845   6.968
79730SOL    HW241023  10.693   3.802   6.992
79731SOL     OW41024  14.637   5.501  13.321
79731SOL    HW141025  14.671   5.494  13.410
79731SOL    HW241026  14.571   5.432  13.315
79732SOL     OW41027   5.572   7.703   0.006
79732SOL    HW141028   5.553   7.784  14.834
79732SOL    HW241029   5.496   7.647  14.865
79733SOL     OW41030   9.673   0.916   5.238
79733SOL    HW141031   9.767   0.933   5.244
79733SOL    HW241032   9.664   0.860   5.161
79734SOL     OW41033   9.878   5.733   4.403
79734SOL    HW141034   9.890   5.725   4.497
79734SOL    HW241035   9.809   5.800   4.393
79735SOL     OW41036   5.341   2.012  13.451
79735SOL    HW141037   5.322   2.104  13.432
79735SOL    HW241038   5.264   1.982  13.500
79736SOL     OW41039   2.926   9.405   1.394
79736SOL    HW141040   2.897   9.346   1.463
79736SOL    HW241041   3.021   9.399   1.396
79737SOL     OW41042   4.317  10.496   4.744
79737SOL    HW141043   4.293  10.421   4.799
79737SOL    HW241044   4.412  10.492   4.738
79738SOL     OW41045   0.733   3.558  10.780
79738SOL    HW141046   0.667   3.531  10.845
79738SOL    HW241047   0.704   3.644  10.751
79739SOL     OW41048   6.998  12.204   7.257
79739SOL    HW141049   6.920  12.256   7.279
79739SOL    HW241050   7.048  12.202   7.338
79740SOL     OW41051   3.759   1.577   1.882
79740SOL    HW141052   3.663   1.576   1.886
79740SOL    HW241053   3.779   1.545   1.795
79741SOL     OW41054  12.703   7.766  14.402
79741SOL    HW141055  12.686   7.771  14.308
79741SOL    HW241056  12.637   7.822  14.442
79742SOL     OW41057   7.874   9.526  10.991
79742SOL    HW141058   7.822   9.580  10.931
79742SOL    HW241059   7.843   9.437  10.977
79743SOL     OW41060  14.534  11.650   8.846
79743SOL    HW141061  14.599  11.603   8.898
79743SOL    HW241062  14.555  11.627   8.756
79744SOL     OW41063   1.545   4.074   2.050
79744SOL    HW141064   1.516   4.023   1.974
79744SOL    HW241065   1.607   4.017   2.095
79745SOL     OW41066   5.141   1.386   2.236
79745SOL    HW141067   5.046   1.401   2.230
79745SOL    HW241068   5.179   1.445   2.172
79746SOL     OW41069   5.102   0.029   7.541
79746SOL    HW141070   5.037  14.834   7.543
79746SOL    HW241071   5.185  14.860   7.556
79747SOL     OW41072   7.515  10.091  10.880
79747SOL    HW141073   7.579  10.057  10.818
79747SOL    HW241074   7.522  10.034  10.957
79748SOL     OW41075   5.330  11.694   9.561
79748SOL    HW141076   5.426  11.689   9.560
79748SOL    HW241077   5.311  11.771   9.613
79749SOL     OW41078  12.438   0.089   1.333
79749SOL    HW141079  12.430   0.016   1.394
79749SOL    HW241080  12.520   0.072   1.286
79750SOL     OW41081   4.101   5.183   4.476
79750SOL    HW141082   4.127   5.093   4.458
79750SOL    HW241083   4.137   5.201   4.563
79751SOL     OW41084   9.509   2.916   7.599
79751SOL    HW141085   9.472   2.837   7.637
79751SOL    HW241086   9.532   2.891   7.509
79752SOL     OW41087  11.694   1.466  14.723
79752SOL    HW141088  11.741   1.521  14.660
79752SOL    HW241089  11.656   1.396  14.671
79753SOL     OW41090  10.222   1.737  12.317
79753SOL    HW141091  10.288   1.713  12.382
79753SOL    HW241092  10.273   1.778  12.246
79754SOL     OW41093   0.081  11.464   8.715
79754SOL    HW141094   0.025  11.488   8.641
79754SOL    HW241095   0.126  11.545   8.738
79755SOL     OW41096   0.074   1.485   8.851
79755SOL    HW141097   0.125   1.566   8.842
79755SOL    HW241098   0.132   1.425   8.897
79756SOL     OW41099  10.029   3.389   8.001
79756SOL    HW141100  10.068   3.308   7.967
79756SOL    HW241101  10.100   3.433   8.046
79757SOL     OW41102   8.794  12.855  10.217
79757SOL    HW141103   8.759  12.776  10.176
79757SOL    HW241104   8.745  12.862  10.299
79758SOL     OW41105   4.503  12.974   2.160
79758SOL    HW141106   4.520  12.996   2.068
79758SOL    HW241107   4.586  12.990   2.204
79759SOL     OW41108   5.085   9.280   7.905
79759SOL    HW141109   5.114   9.363   7.943
79759SOL    HW241110   5.024   9.244   7.969
79760SOL     OW41111  12.320   3.312  11.004
79760SOL    HW141112  12.264   3.260  10.946
79760SOL    HW241113  12.263   3.381  11.037
79761SOL     OW41114  13.965  13.946   8.174
79761SOL    HW141115  14.024  13.917   8.105
79761SOL    HW241116  14.019  13.948   8.253
79762SOL     OW41117  12.173   2.276   7.335
79762SOL    HW141118  12.220   2.221   7.397
79762SOL    HW241119  12.240   2.310   7.277
79763SOL     OW41120   6.424  11.601   1.959
79763SOL    HW141121   6.484  11.650   1.902
79763SOL    HW241122   6.339  11.606   1.914
79764SOL     OW41123   4.012   5.568   0.336
79764SOL    HW141124   3.924   5.584   0.304
79764SOL    HW241125   4.010   5.477   0.366
79765SOL     OW41126   7.377   0.070  11.388
79765SOL    HW141127   7.412   0.015  11.458
79765SOL    HW241128   7.294   0.030  11.365
79766SOL     OW41129   3.311   7.478  14.160
79766SOL    HW141130   3.317   7.394  14.206
79766SOL    HW241131   3.358   7.540  14.216
79767SOL     OW41132   1.239  11.067   9.833
79767SOL    HW141133   1.252  11.012   9.755
79767SOL    HW241134   1.198  11.008   9.897
79768SOL     OW41135   8.173   8.338   5.240
79768SOL    HW141136   8.210   8.260   5.197
79768SOL    HW241137   8.095   8.306   5.285
79769SOL     OW41138  13.023   2.309   6.405
79769SOL    HW141139  12.944   2.318   6.353
79769SOL    HW241140  13.094   2.308   6.340
79770SOL     OW41141  11.717  11.882  12.962
79770SOL    HW141142  11.704  11.972  12.930
79770SOL    HW241143  11.743  11.832  12.885
79771SOL     OW41144   6.995  10.589  14.103
79771SOL    HW141145   7.090  10.572  14.107
79771SOL    HW241146   6.958  10.509  14.068
79772SOL     OW41147   7.970   0.559  10.762
79772SOL    HW141148   8.051   0.540  10.715
79772SOL    HW241149   7.960   0.654  10.754
79773SOL     OW41150   6.219  12.963   6.609
79773SOL    HW141151   6.213  12.903   6.683
79773SOL    HW241152   6.213  13.050   6.648
79774SOL     OW41153   0.937   5.623  14.000
79774SOL    HW141154   0.944   5.528  13.997
79774SOL    HW241155   0.994   5.654  13.929
79775SOL     OW41156   5.681  10.258   4.422
79775SOL    HW141157   5.731  10.271   4.502
79775SOL    HW241158   5.630  10.339   4.412
79776SOL     OW41159   9.390   0.643   4.530
79776SOL    HW141160   9.398   0.562   4.580
79776SOL    HW241161   9.391   0.614   4.438
79777SOL     OW41162  10.683   3.852   7.938
79777SOL    HW141163  10.774   3.873   7.959
79777SOL    HW241164  10.632   3.927   7.971
79778SOL     OW41165   7.385  13.517   8.041
79778SOL    HW141166   7.418  13.525   7.951
79778SOL    HW241167   7.368  13.607   8.068
79779SOL     OW41168  10.034  10.750   7.183
79779SOL    HW141169   9.967  10.754   7.251
79779SOL    HW241170  10.006  10.680   7.125
79780SOL     OW41171  11.003   0.782   8.870
79780SOL    HW141172  10.955   0.701   8.852
79780SOL    HW241173  10.963   0.848   8.814
79781SOL     OW41174   0.110   1.461   0.601
79781SOL    HW141175   0.193   1.494   0.635
79781SOL    HW241176   0.130   1.371   0.575
79782SOL     OW41177   2.929   7.500   5.379
79782SOL    HW141178   2.850   7.555   5.384
79782SOL    HW241179   2.924   7.443   5.455
79783SOL     OW41180   9.348   4.397   9.716
79783SOL    HW141181   9.441   4.410   9.698
79783SOL    HW241182   9.341   4.305   9.741
79784SOL     OW41183  11.464   2.620  10.436
79784SOL    HW141184  11.467   2.707  10.478
79784SOL    HW241185  11.514   2.631  10.355
79785SOL     OW41186  11.689   8.337   7.127
79785SOL    HW141187  11.675   8.377   7.041
79785SOL    HW241188  11.633   8.259   7.126
79786SOL     OW41189   3.287  13.486   7.181
79786SOL    HW141190   3.281  13.432   7.260
79786SOL    HW241191   3.341  13.561   7.207
79787SOL     OW41192   4.340  14.561  12.143
79787SOL    HW141193   4.398  14.592  12.074
79787SOL    HW241194   4.253  14.592  12.118
79788SOL     OW41195  14.667   4.828   3.152
79788SOL    HW141196  14.594   4.832   3.090
79788SOL    HW241197  14.638   4.879   3.227
79789SOL     OW41198  14.599  12.434   4.238
79789SOL    HW141199  14.555  12.477   4.165
79789SOL    HW241200  14.689  12.421   4.208
79790SOL     OW41201   9.155   3.832   1.943
79790SOL    HW141202   9.081   3.773   1.962
79790SOL    HW241203   9.233   3.778   1.956
79791SOL     OW41204   4.860  13.134   5.816
79791SOL    HW141205   4.949  13.156   5.788
79791SOL    HW241206   4.824  13.082   5.744
79792SOL     OW41207  12.843   4.413  12.652
79792SOL    HW141208  12.917   4.434  12.596
79792SOL    HW241209  12.841   4.484  12.717
79793SOL     OW41210   5.863   1.176   9.108
79793SOL    HW141211   5.870   1.104   9.171
79793SOL    HW241212   5.904   1.143   9.029
79794SOL     OW41213  12.038  10.908   4.925
79794SOL    HW141214  11.997  10.945   5.004
79794SOL    HW241215  12.119  10.869   4.956
79795SOL     OW41216   1.088   3.328   9.839
79795SOL    HW141217   1.033   3.401   9.809
79795SOL    HW241218   1.028   3.253   9.840
79796SOL     OW41219  13.165  11.988   6.042
79796SOL    HW141220  13.241  12.022   6.087
79796SOL    HW241221  13.105  12.062   6.035
79797SOL     OW41222   6.037  11.385   6.961
79797SOL    HW141223   5.962  11.396   7.020
79797SOL    HW241224   6.110  11.426   7.007
79798SOL     OW41225   4.453   8.807  14.214
79798SOL    HW141226   4.517   8.827  14.146
79798SOL    HW241227   4.369   8.830  14.174
79799SOL     OW41228   3.662  13.124   5.172
79799SOL    HW141229   3.604  13.188   5.130
79799SOL    HW241230   3.604  13.070   5.224
79800SOL     OW41231   7.832  14.172   3.515
79800SOL    HW141232   7.804  14.239   3.577
79800SOL    HW241233   7.921  14.149   3.542
79801SOL     OW41234   2.052  11.358   2.133
79801SOL    HW141235   1.983  11.301   2.099
79801SOL    HW241236   2.133  11.319   2.100
79802SOL     OW41237  12.608   0.246  14.263
79802SOL    HW141238  12.609   0.254  14.358
79802SOL    HW241239  12.530   0.193  14.244
79803SOL     OW41240  11.278   6.951   2.304
79803SOL    HW141241  11.203   6.933   2.361
79803SOL    HW241242  11.241   6.954   2.216
79804SOL     OW41243  10.975   2.985  12.633
79804SOL    HW141244  11.056   2.953  12.672
79804SOL    HW241245  10.994   2.988  12.539
79805SOL     OW41246  13.486   4.885  10.527
79805SOL    HW141247  13.529   4.834  10.458
79805SOL    HW241248  13.543   4.962  10.538
79806SOL     OW41249   4.757   1.532  13.607
79806SOL    HW141250   4.671   1.567  13.632
79806SOL    HW241251   4.808   1.609  13.583
79807SOL     OW41252  11.596   1.296   7.064
79807SOL    HW141253  11.581   1.218   7.012
79807SOL    HW241254  11.509   1.332   7.079
79808SOL     OW41255  12.448  13.086   0.146
79808SOL    HW141256  12.416  12.996   0.146
79808SOL    HW241257  12.544  13.078   0.146
79809SOL     OW41258   9.293  11.405   0.944
79809SOL    HW141259   9.221  11.412   0.881
79809SOL    HW241260   9.260  11.448   1.023
79810SOL     OW41261   7.271  14.360  13.643
79810SOL    HW141262   7.201  14.413  13.605
79810SOL    HW241263   7.334  14.424  13.676
79811SOL     OW41264  13.059   4.078  14.840
79811SOL    HW141265  13.048   4.158   0.017
79811SOL    HW241266  13.010   4.011   0.012
79812SOL     OW41267   0.962   9.455   8.976
79812SOL    HW141268   1.034   9.498   8.928
79812SOL    HW241269   0.999   9.372   9.005
79813SOL     OW41270   4.226   0.211  14.572
79813SOL    HW141271   4.170   0.157  14.628
79813SOL    HW241272   4.246   0.154  14.497
79814SOL     OW41273   4.858   6.980   9.387
79814SOL    HW141274   4.944   6.982   9.430
79814SOL    HW241275   4.807   6.919   9.440
79815SOL     OW41276   7.829   8.319  11.202
79815SOL    HW141277   7.806   8.232  11.233
79815SOL    HW241278   7.923   8.315  11.184
79816SOL     OW41279  13.872  13.248  12.388
79816SOL    HW141280  13.852  13.166  12.434
79816SOL    HW241281  13.966  13.258  12.397
79817SOL     OW41282   6.785   3.181   5.255
79817SOL    HW141283   6.828   3.098   5.278
79817SOL    HW241284   6.699   3.175   5.295
79818SOL     OW41285   0.027   2.718  12.516
79818SOL    HW141286   0.034   2.626  12.542
79818SOL    HW241287   0.108   2.759  12.550
79819SOL     OW41288   5.716  11.864   4.312
79819SOL    HW141289   5.726  11.949   4.355
79819SOL    HW241290   5.803  11.826   4.313
79820SOL     OW41291   9.985   3.408   8.829
79820SOL    HW141292   9.938   3.445   8.904
79820SOL    HW241293  10.060   3.363   8.867
79821SOL     OW41294   0.989  14.683   1.078
79821SOL    HW141295   0.984  14.603   1.026
79821SOL    HW241296   1.012  14.653   1.166
79822SOL     OW41297  10.778  10.117   0.837
79822SOL    HW141298  10.749  10.092   0.749
79822SOL    HW241299  10.739  10.203   0.852
79823SOL     OW41300   3.974   9.334   8.599
79823SOL    HW141301   3.925   9.256   8.624
79823SOL    HW241302   4.064   9.303   8.586
79824SOL     OW41303   1.938   4.152  14.422
79824SOL    HW141304   1.929   4.059  14.404
79824SOL    HW241305   1.889   4.195  14.351
79825SOL     OW41306  13.670   8.507   0.548
79825SOL    HW141307  13.693   8.600   0.550
79825SOL    HW241308  13.730   8.466   0.610
79826SOL     OW41309   7.294  11.905  14.816
79826SOL    HW141310   7.377  11.869  14.785
79826SOL    HW241311   7.314  11.997  14.834
79827SOL     OW41312   1.770   6.470  10.437
79827SOL    HW141313   1.702   6.416  10.397
79827SOL    HW241314   1.739   6.560  10.424
79828SOL     OW41315   7.263   3.313   8.173
79828SOL    HW141316   7.315   3.363   8.236
79828SOL    HW241317   7.232   3.379   8.111
79829SOL     OW41318   0.003   3.345   9.001
79829SOL    HW141319   0.021   3.289   8.925
79829SOL    HW241320   0.082   3.341   9.054
79830SOL     OW41321   5.670   0.321   8.447
79830SOL    HW141322   5.726   0.365   8.384
79830SOL    HW241323   5.583   0.320   8.406
79831SOL     OW41324  10.074   1.800   5.182
79831SOL    HW141325   9.993   1.807   5.232
79831SOL    HW241326  10.121   1.881   5.201
79832SOL     OW41327   6.085  11.900  12.784
79832SOL    HW141328   6.075  11.814  12.743
79832SOL    HW241329   6.153  11.943  12.734
79833SOL     OW41330   7.142  12.559   5.218
79833SOL    HW141331   7.067  12.589   5.271
79833SOL    HW241332   7.118  12.471   5.190
79834SOL     OW41333   1.862   0.295   5.741
79834SOL    HW141334   1.917   0.347   5.800
79834SOL    HW241335   1.860   0.208   5.781
79835SOL     OW41336  10.982   3.652   0.239
79835SOL    HW141337  10.942   3.616   0.318
79835SOL    HW241338  10.975   3.581   0.175
79836SOL     OW41339   6.548   2.237   6.149
79836SOL    HW141340   6.487   2.227   6.222
79836SOL    HW241341   6.576   2.147   6.130
79837SOL     OW41342   7.355   8.295   6.770
79837SOL    HW141343   7.306   8.240   6.832
79837SOL    HW241344   7.293   8.363   6.744
79838SOL     OW41345   2.561   4.931  14.316
79838SOL    HW141346   2.561   5.015  14.360
79838SOL    HW241347   2.469   4.914  14.295
79839SOL     OW41348   8.375  10.838  14.831
79839SOL    HW141349   8.423  10.790  14.763
79839SOL    HW241350   8.388  10.786   0.034
79840SOL     OW41351   4.521   9.785   8.231
79840SOL    HW141352   4.565   9.706   8.198
79840SOL    HW241353   4.487   9.760   8.317
79841SOL     OW41354  10.865  10.021   4.203
79841SOL    HW141355  10.860  10.006   4.297
79841SOL    HW241356  10.777  10.049   4.178
79842SOL     OW41357   7.350   8.625  13.842
79842SOL    HW141358   7.443   8.648  13.833
79842SOL    HW241359   7.340   8.546  13.790
79843SOL     OW41360   7.523   4.466   5.684
79843SOL    HW141361   7.482   4.530   5.742
79843SOL    HW241362   7.485   4.483   5.598
79844SOL     OW41363   0.291   0.724  10.195
79844SOL    HW141364   0.318   0.741  10.285
79844SOL    HW241365   0.226   0.792  10.176
79845SOL     OW41366   3.490   1.012   2.890
79845SOL    HW141367   3.482   1.015   2.985
79845SOL    HW241368   3.421   0.953   2.861
79846SOL     OW41369   5.940   4.841   0.185
79846SOL    HW141370   5.925   4.902   0.112
79846SOL    HW241371   6.035   4.840   0.197
79847SOL     OW41372   3.218   1.154   4.872
79847SOL    HW141373   3.250   1.098   4.802
79847SOL    HW241374   3.246   1.243   4.848
79848SOL     OW41375   0.599   6.599   9.146
79848SOL    HW141376   0.673   6.643   9.107
79848SOL    HW241377   0.525   6.659   9.134
79849SOL     OW41378  13.850   8.494   5.458
79849SOL    HW141379  13.852   8.590   5.456
79849SOL    HW241380  13.942   8.468   5.457
79850SOL     OW41381   9.361  12.375  11.191
79850SOL    HW141382   9.412  12.406  11.115
79850SOL    HW241383   9.350  12.281  11.176
79851SOL     OW41384  13.460   5.295   8.089
79851SOL    HW141385  13.433   5.204   8.086
79851SOL    HW241386  13.519   5.305   8.014
79852SOL     OW41387   2.762  10.129  11.529
79852SOL    HW141388   2.735  10.037  11.521
79852SOL    HW241389   2.848  10.132  11.488
79853SOL     OW41390   4.673  13.809   5.364
79853SOL    HW141391   4.581  13.815   5.338
79853SOL    HW241392   4.722  13.845   5.290
79854SOL     OW41393  11.581   8.876   6.602
79854SOL    HW141394  11.497   8.862   6.646
79854SOL    HW241395  11.559   8.930   6.526
79855SOL     OW41396  10.270  10.257   7.390
79855SOL    HW141397  10.191  10.308   7.370
79855SOL    HW241398  10.282  10.268   7.484
79856SOL     OW41399   6.169   9.725  13.913
79856SOL    HW141400   6.153   9.685  13.998
79856SOL    HW241401   6.258   9.760  13.919
79857SOL     OW41402  12.515   6.423  12.622
79857SOL    HW141403  12.553   6.499  12.576
79857SOL    HW241404  12.421   6.432  12.609
79858SOL     OW41405  11.149  12.985   5.014
79858SOL    HW141406  11.168  13.076   4.988
79858SOL    HW241407  11.103  12.994   5.098
79859SOL     OW41408   6.865   1.686   6.739
79859SOL    HW141409   6.827   1.759   6.690
79859SOL    HW241410   6.900   1.627   6.672
79860SOL     OW41411   7.310   1.855   6.348
79860SOL    HW141412   7.351   1.828   6.430
79860SOL    HW241413   7.376   1.910   6.306
79861SOL     OW41414  12.809  11.120  14.325
79861SOL    HW141415  12.835  11.191  14.383
79861SOL    HW241416  12.875  11.121  14.255
79862SOL     OW41417   9.535   6.706   8.016
79862SOL    HW141418   9.517   6.697   7.922
79862SOL    HW241419   9.473   6.772   8.046
79863SOL     OW41420   1.472   8.270   9.357
79863SOL    HW141421   1.533   8.268   9.284
79863SOL    HW241422   1.388   8.241   9.319
79864SOL     OW41423  11.973   9.108   4.739
79864SOL    HW141424  12.034   9.181   4.748
79864SOL    HW241425  11.951   9.083   4.829
79865SOL     OW41426   9.057   6.787   0.006
79865SOL    HW141427   9.033   6.756  14.795
79865SOL    HW241428   8.988   6.848   0.030
79866SOL     OW41429  11.978  14.490   7.469
79866SOL    HW141430  12.011  14.455   7.552
79866SOL    HW241431  11.917  14.559   7.495
79867SOL     OW41432  14.442   2.244   9.221
79867SOL    HW141433  14.431   2.165   9.167
79867SOL    HW241434  14.372   2.238   9.286
79868SOL     OW41435   8.047  13.147  13.706
79868SOL    HW141436   8.020  13.102  13.786
79868SOL    HW241437   8.107  13.085  13.664
79869SOL     OW41438   6.158   0.149   8.664
79869SOL    HW141439   6.253   0.134   8.669
79869SOL    HW241440   6.144   0.183   8.576
79870SOL     OW41441  10.715  12.711  10.867
79870SOL    HW141442  10.678  12.694  10.954
79870SOL    HW241443  10.643  12.746  10.816
79871SOL     OW41444  13.398   8.288   5.924
79871SOL    HW141445  13.386   8.235   6.003
79871SOL    HW241446  13.444   8.231   5.863
79872SOL     OW41447   2.552   4.413   5.776
79872SOL    HW141448   2.528   4.348   5.842
79872SOL    HW241449   2.588   4.361   5.704
79873SOL     OW41450   9.579   0.774   4.686
79873SOL    HW141451   9.531   0.834   4.743
79873SOL    HW241452   9.511   0.731   4.634
79874SOL     OW41453   9.164   4.483  13.836
79874SOL    HW141454   9.108   4.407  13.819
79874SOL    HW241455   9.103   4.556  13.849
79875SOL     OW41456   8.241   0.016   4.283
79875SOL    HW141457   8.168   0.074   4.262
79875SOL    HW241458   8.319   0.071   4.277
79876SOL     OW41459   3.796   2.007  14.766
79876SOL    HW141460   3.793   2.063  14.843
79876SOL    HW241461   3.886   2.011  14.736
79877SOL     OW41462   7.816   8.625  12.182
79877SOL    HW141463   7.808   8.539  12.141
79877SOL    HW241464   7.745   8.677  12.145
79878SOL     OW41465   5.779   8.467  13.465
79878SOL    HW141466   5.723   8.481  13.389
79878SOL    HW241467   5.756   8.379  13.496
79879SOL     OW41468  13.603  13.730  13.263
79879SOL    HW141469  13.530  13.672  13.285
79879SOL    HW241470  13.680  13.686  13.299
79880SOL     OW41471  11.593  11.965   3.514
79880SOL    HW141472  11.540  11.894   3.549
79880SOL    HW241473  11.682  11.930   3.512
79881SOL     OW41474   8.693   0.681   3.546
79881SOL    HW141475   8.611   0.645   3.511
79881SOL    HW241476   8.746   0.605   3.568
79882SOL     OW41477   7.450  14.493   9.759
79882SOL    HW141478   7.375  14.551   9.767
79882SOL    HW241479   7.436  14.427   9.826
79883SOL     OW41480   6.274  14.576  10.819
79883SOL    HW141481   6.271  14.631  10.897
79883SOL    HW241482   6.359  14.594  10.779
79884SOL     OW41483  12.814   4.304   1.373
79884SOL    HW141484  12.891   4.357   1.353
79884SOL    HW241485  12.789   4.264   1.289
79885SOL     OW41486   5.866  11.064  12.646
79885SOL    HW141487   5.905  11.152  12.644
79885SOL    HW241488   5.784  11.075  12.694
79886SOL     OW41489   7.561   8.206  12.144
79886SOL    HW141490   7.548   8.274  12.211
79886SOL    HW241491   7.476   8.162  12.137
79887SOL     OW41492  14.830  13.418   1.962
79887SOL    HW141493   0.001  13.336   1.945
79887SOL    HW241494  14.759  13.419   1.897
79888SOL     OW41495  12.275   4.977   3.149
79888SOL    HW141496  12.334   4.903   3.139
79888SOL    HW241497  12.292   5.032   3.073
79889SOL     OW41498   2.827   5.381   5.617
79889SOL    HW141499   2.806   5.450   5.553
79889SOL    HW241500   2.742   5.353   5.650
79890SOL     OW41501   2.961   7.625   0.959
79890SOL    HW141502   2.891   7.561   0.944
79890SOL    HW241503   2.936   7.670   1.040
79891SOL     OW41504   8.371  10.518   6.367
79891SOL    HW141505   8.280  10.488   6.358
79891SOL    HW241506   8.369  10.609   6.337
79892SOL     OW41507   8.865   8.805   1.445
79892SOL    HW141508   8.938   8.799   1.506
79892SOL    HW241509   8.901   8.776   1.361
79893SOL     OW41510  10.650  11.758   1.121
79893SOL    HW141511  10.649  11.687   1.186
79893SOL    HW241512  10.646  11.714   1.037
79894SOL     OW41513   1.663   4.124   3.803
79894SOL    HW141514   1.667   4.061   3.874
79894SOL    HW241515   1.667   4.210   3.846
79895SOL     OW41516  12.515  14.504   0.521
79895SOL    HW141517  12.524  14.492   0.427
79895SOL    HW241518  12.423  14.525   0.535
79896SOL     OW41519   6.256   4.574  11.624
79896SOL    HW141520   6.196   4.500  11.617
79896SOL    HW241521   6.263   4.608  11.535
79897SOL     OW41522   9.024   3.049   8.561
79897SOL    HW141523   8.929   3.055   8.571
79897SOL    HW241524   9.055   3.014   8.645
79898SOL     OW41525  12.731   5.848  12.804
79898SOL    HW141526  12.753   5.876  12.893
79898SOL    HW241527  12.640   5.817  12.810
79899SOL     OW41528   9.039   2.851   0.166
79899SOL    HW141529   9.003   2.911   0.101
79899SOL    HW241530   9.051   2.769   0.118
79900SOL     OW41531   1.408   8.368   7.395
79900SOL    HW141532   1.362   8.284   7.394
79900SOL    HW241533   1.438   8.379   7.485
79901SOL     OW41534  11.440   9.591   9.807
79901SOL    HW141535  11.351   9.572   9.834
79901SOL    HW241536  11.448   9.686   9.814
79902SOL     OW41537   9.056  10.272   8.010
79902SOL    HW141538   9.046  10.246   7.919
79902SOL    HW241539   9.131  10.222   8.041
79903SOL     OW41540   9.324  12.124  14.230
79903SOL    HW141541   9.329  12.083  14.144
79903SOL    HW241542   9.230  12.125  14.251
79904SOL     OW41543  11.422   2.764   8.772
79904SOL    HW141544  11.493   2.750   8.835
79904SOL    HW241545  11.345   2.779   8.825
79905SOL     OW41546   7.530   6.744   7.962
79905SOL    HW141547   7.550   6.732   8.054
79905SOL    HW241548   7.459   6.809   7.961
79906SOL     OW41549  12.264   8.826   3.802
79906SOL    HW141550  12.176   8.857   3.782
79906SOL    HW241551  12.314   8.844   3.722
79907SOL     OW41552   0.679   0.719   2.066
79907SOL    HW141553   0.621   0.787   2.031
79907SOL    HW241554   0.619   0.648   2.089
79908SOL     OW41555  13.262  14.153  13.059
79908SOL    HW141556  13.307  14.077  13.096
79908SOL    HW241557  13.169  14.135  13.075
79909SOL     OW41558   7.189  10.462   7.626
79909SOL    HW141559   7.203  10.557   7.619
79909SOL    HW241560   7.115  10.445   7.568
79910SOL     OW41561   8.702   4.895   5.481
79910SOL    HW141562   8.718   4.841   5.559
79910SOL    HW241563   8.784   4.941   5.466
79911SOL     OW41564  14.344   7.703   4.465
79911SOL    HW141565  14.380   7.752   4.391
79911SOL    HW241566  14.262   7.667   4.432
79912SOL     OW41567   9.695  12.287   6.582
79912SOL    HW141568   9.672  12.213   6.637
79912SOL    HW241569   9.685  12.254   6.492
79913SOL     OW41570   5.360  13.529   7.391
79913SOL    HW141571   5.358  13.617   7.353
79913SOL    HW241572   5.345  13.470   7.317
79914SOL     OW41573  11.483   2.699   1.210
79914SOL    HW141574  11.429   2.718   1.287
79914SOL    HW241575  11.472   2.605   1.196
79915SOL     OW41576   5.679   2.589   9.212
79915SOL    HW141577   5.587   2.574   9.232
79915SOL    HW241578   5.725   2.520   9.259
79916SOL     OW41579   4.966  11.589   2.733
79916SOL    HW141580   4.874  11.574   2.715
79916SOL    HW241581   4.970  11.605   2.828
79917SOL     OW41582   4.571   1.496   0.232
79917SOL    HW141583   4.651   1.503   0.283
79917SOL    HW241584   4.525   1.578   0.248
79918SOL     OW41585   2.547   0.023   3.475
79918SOL    HW141586   2.463   0.069   3.476
79918SOL    HW241587   2.612   0.090   3.495
79919SOL     OW41588  14.580   1.795   1.221
79919SOL    HW141589  14.549   1.884   1.210
79919SOL    HW241590  14.511   1.751   1.270
79920SOL     OW41591   4.168  10.622  10.982
79920SOL    HW141592   4.120  10.652  10.904
79920SOL    HW241593   4.100  10.597  11.044
79921SOL     OW41594  13.811   2.460   9.821
79921SOL    HW141595  13.857   2.400   9.879
79921SOL    HW241596  13.756   2.513   9.879
79922SOL     OW41597  10.597   7.390   9.354
79922SOL    HW141598  10.649   7.431   9.423
79922SOL    HW241599  10.511   7.430   9.361
79923SOL     OW41600  11.969   5.123   3.814
79923SOL    HW141601  11.894   5.068   3.837
79923SOL    HW241602  11.933   5.212   3.808
79924SOL     OW41603  12.256   5.305   2.232
79924SOL    HW141604  12.228   5.383   2.279
79924SOL    HW241605  12.185   5.287   2.171
79925SOL     OW41606   4.896   1.150   5.719
79925SOL    HW141607   4.991   1.164   5.723
79925SOL    HW241608   4.864   1.178   5.805
79926SOL     OW41609   6.996   2.650  13.806
79926SOL    HW141610   6.968   2.739  13.829
79926SOL    HW241611   7.052   2.623  13.878
79927SOL     OW41612  11.879  13.346   5.087
79927SOL    HW141613  11.897  13.293   5.009
79927SOL    HW241614  11.954  13.331   5.144
79928SOL     OW41615   5.472   7.696   3.787
79928SOL    HW141616   5.529   7.772   3.775
79928SOL    HW241617   5.488   7.668   3.877
79929SOL     OW41618   4.975   0.179  14.296
79929SOL    HW141619   5.069   0.165  14.293
79929SOL    HW241620   4.953   0.181  14.389
79930SOL     OW41621   6.721  12.629   4.347
79930SOL    HW141622   6.709  12.626   4.252
79930SOL    HW241623   6.656  12.693   4.376
79931SOL     OW41624  11.959   4.594  13.980
79931SOL    HW141625  11.872   4.607  14.018
79931SOL    HW241626  12.019   4.622  14.049
79932SOL     OW41627  12.980  12.832  14.720
79932SOL    HW141628  13.066  12.803  14.691
79932SOL    HW241629  12.998  12.913  14.769
79933SOL     OW41630   5.826   8.004   5.054
79933SOL    HW141631   5.839   8.096   5.030
79933SOL    HW241632   5.738   7.983   5.024
79934SOL     OW41633   7.629   1.872   6.217
79934SOL    HW141634   7.609   1.921   6.138
79934SOL    HW241635   7.605   1.931   6.289
79935SOL     OW41636   8.862   9.071   1.515
79935SOL    HW141637   8.952   9.075   1.548
79935SOL    HW241638   8.847   8.979   1.496
79936SOL     OW41639   7.304   2.816   5.089
79936SOL    HW141640   7.355   2.819   5.169
79936SOL    HW241641   7.233   2.879   5.103
79937SOL     OW41642   6.561   5.933   3.263
79937SOL    HW141643   6.617   5.946   3.186
79937SOL    HW241644   6.472   5.940   3.229
79938SOL     OW41645   6.125   0.140  11.081
79938SOL    HW141646   6.050   0.188  11.116
79938SOL    HW241647   6.201   0.185  11.116
79939SOL     OW41648   5.912  13.946   9.326
79939SOL    HW141649   5.856  14.023   9.322
79939SOL    HW241650   5.866  13.879   9.277
79940SOL     OW41651   0.786  12.035   3.320
79940SOL    HW141652   0.853  11.998   3.263
79940SOL    HW241653   0.732  11.960   3.346
79941SOL     OW41654   3.572   8.060   5.329
79941SOL    HW141655   3.598   8.008   5.405
79941SOL    HW241656   3.651   8.064   5.275
79942SOL     OW41657   1.162  12.577   8.866
79942SOL    HW141658   1.161  12.671   8.852
79942SOL    HW241659   1.207  12.541   8.790
79943SOL     OW41660   3.253   7.141  11.209
79943SOL    HW141661   3.278   7.177  11.124
79943SOL    HW241662   3.196   7.207  11.247
79944SOL     OW41663  14.498  11.673  14.474
79944SOL    HW141664  14.409  11.646  14.496
79944SOL    HW241665  14.523  11.617  14.401
79945SOL     OW41666  10.272   7.201   1.324
79945SOL    HW141667  10.340   7.227   1.386
79945SOL    HW241668  10.191   7.237   1.361
79946SOL     OW41669  10.098   9.077   2.121
79946SOL    HW141670  10.172   9.115   2.073
79946SOL    HW241671  10.136   9.049   2.204
79947SOL     OW41672   5.236  12.403   8.888
79947SOL    HW141673   5.204  12.336   8.949
79947SOL    HW241674   5.156  12.445   8.855
79948SOL     OW41675   0.910   7.563  14.363
79948SOL    HW141676   1.004   7.549  14.352
79948SOL    HW241677   0.889   7.635  14.303
79949SOL     OW41678   8.074   6.169   6.498
79949SOL    HW141679   8.050   6.137   6.411
79949SOL    HW241680   8.032   6.108   6.559
79950SOL     OW41681  14.291  10.141   7.580
79950SOL    HW141682  14.383  10.115   7.574
79950SOL    HW241683  14.282  10.212   7.517
79951SOL     OW41684   3.368   1.012   2.377
79951SOL    HW141685   3.364   1.055   2.462
79951SOL    HW241686   3.405   1.077   2.318
79952SOL     OW41687   4.930   7.365   1.665
79952SOL    HW141688   4.846   7.403   1.690
79952SOL    HW241689   4.920   7.271   1.681
79953SOL     OW41690   6.355  10.552   7.412
79953SOL    HW141691   6.417  10.618   7.446
79953SOL    HW241692   6.407  10.472   7.407
79954SOL     OW41693   1.143  10.341  14.004
79954SOL    HW141694   1.146  10.436  14.001
79954SOL    HW241695   1.137  10.320  14.097
79955SOL     OW41696   5.572  13.127   6.797
79955SOL    HW141697   5.645  13.067   6.782
79955SOL    HW241698   5.589  13.201   6.738
79956SOL     OW41699  10.555   4.571   8.708
79956SOL    HW141700  10.644   4.606   8.711
79956SOL    HW241701  10.500   4.647   8.725
79957SOL     OW41702   8.408   0.578   8.658
79957SOL    HW141703   8.426   0.604   8.568
79957SOL    HW241704   8.316   0.550   8.657
79958SOL     OW41705   1.331  10.290   8.506
79958SOL    HW141706   1.349  10.198   8.526
79958SOL    HW241707   1.372  10.339   8.577
79959SOL     OW41708   5.585  10.589   9.862
79959SOL    HW141709   5.616  10.576   9.772
79959SOL    HW241710   5.649  10.648   9.902
79960SOL     OW41711   8.515   0.799  14.698
79960SOL    HW141712   8.506   0.717  14.649
79960SOL    HW241713   8.610   0.810  14.709
79961SOL     OW41714   7.019   1.342   3.229
79961SOL    HW141715   7.114   1.334   3.239
79961SOL    HW241716   7.006   1.428   3.191
79962SOL     OW41717   9.166   0.209   2.050
79962SOL    HW141718   9.109   0.227   1.975
79962SOL    HW241719   9.246   0.258   2.031
79963SOL     OW41720   7.620   9.242  13.571
79963SOL    HW141721   7.605   9.181  13.643
79963SOL    HW241722   7.550   9.224  13.509
79964SOL     OW41723   1.590  10.616   7.423
79964SOL    HW141724   1.560  10.545   7.481
79964SOL    HW241725   1.519  10.626   7.360
79965SOL     OW41726  10.344   6.712  11.912
79965SOL    HW141727  10.392   6.733  11.832
79965SOL    HW241728  10.259   6.755  11.901
79966SOL     OW41729   5.318   4.904   3.226
79966SOL    HW141730   5.242   4.959   3.244
79966SOL    HW241731   5.351   4.936   3.142
79967SOL     OW41732   5.112   0.532   7.092
79967SOL    HW141733   5.169   0.497   7.161
79967SOL    HW241734   5.094   0.458   7.035
79968SOL     OW41735   3.539  11.473   8.140
79968SOL    HW141736   3.532  11.390   8.092
79968SOL    HW241737   3.621  11.512   8.109
79969SOL     OW41738   0.273   2.792   8.291
79969SOL    HW141739   0.192   2.760   8.331
79969SOL    HW241740   0.316   2.843   8.359
79970SOL     OW41741  11.339   9.110   8.444
79970SOL    HW141742  11.246   9.116   8.424
79970SOL    HW241743  11.363   9.020   8.419
79971SOL     OW41744  12.420  13.243  10.711
79971SOL    HW141745  12.494  13.221  10.767
79971SOL    HW241746  12.349  13.186  10.742
79972SOL     OW41747   0.880  14.406   6.848
79972SOL    HW141748   0.819  14.472   6.879
79972SOL    HW241749   0.831  14.323   6.852
79973SOL     OW41750   9.023   1.089   7.711
79973SOL    HW141751   9.024   0.998   7.742
79973SOL    HW241752   8.937   1.099   7.669
79974SOL     OW41753   8.998   4.177  12.954
79974SOL    HW141754   8.990   4.090  12.915
79974SOL    HW241755   8.926   4.183  13.015
79975SOL     OW41756   7.570   5.368   3.485
79975SOL    HW141757   7.613   5.338   3.565
79975SOL    HW241758   7.593   5.460   3.478
79976SOL     OW41759   7.891   3.043   3.708
79976SOL    HW141760   7.919   2.955   3.683
79976SOL    HW241761   7.854   3.079   3.628
79977SOL     OW41762   8.849  14.458   6.471
79977SOL    HW141763   8.879  14.389   6.530
79977SOL    HW241764   8.925  14.476   6.415
79978SOL     OW41765   1.598  14.459   5.087
79978SOL    HW141766   1.649  14.382   5.060
79978SOL    HW241767   1.664  14.526   5.105
79979SOL     OW41768   9.969   7.062  13.101
79979SOL    HW141769  10.034   7.122  13.138
79979SOL    HW241770   9.892   7.072  13.157
79980SOL     OW41771   2.234   9.862   5.579
79980SOL    HW141772   2.244   9.804   5.504
79980SOL    HW241773   2.305   9.926   5.571
79981SOL     OW41774   2.422  14.372   5.485
79981SOL    HW141775   2.480  14.385   5.560
79981SOL    HW241776   2.338  14.405   5.514
79982SOL     OW41777   5.463  13.630  12.538
79982SOL    HW141778   5.537  13.648  12.480
79982SOL    HW241779   5.500  13.578  12.609
79983SOL     OW41780   7.629  12.388  11.743
79983SOL    HW141781   7.583  12.327  11.801
79983SOL    HW241782   7.586  12.379  11.658
79984SOL     OW41783   0.707   6.693   7.534
79984SOL    HW141784   0.755   6.702   7.617
79984SOL    HW241785   0.733   6.607   7.501
79985SOL     OW41786  11.617   2.582   0.749
79985SOL    HW141787  11.665   2.575   0.667
79985SOL    HW241788  11.676   2.546   0.815
79986SOL     OW41789   1.972   9.152   4.892
79986SOL    HW141790   2.052   9.108   4.864
79986SOL    HW241791   1.995   9.193   4.975
79987SOL     OW41792  13.762   8.708   7.552
79987SOL    HW141793  13.733   8.622   7.582
79987SOL    HW241794  13.853   8.694   7.526
79988SOL     OW41795  12.596   5.718   4.043
79988SOL    HW141796  12.506   5.726   4.012
79988SOL    HW241797  12.618   5.805   4.076
79989SOL     OW41798   8.776  12.393   0.934
79989SOL    HW141799   8.708  12.457   0.953
79989SOL    HW241800   8.810  12.367   1.019
79990SOL     OW41801   9.963   0.944   4.280
79990SOL    HW141802   9.890   0.919   4.337
79990SOL    HW241803  10.031   0.976   4.339
79991SOL     OW41804  12.001   6.979  10.254
79991SOL    HW141805  11.965   6.893  10.236
79991SOL    HW241806  11.929   7.027  10.296
79992SOL     OW41807   7.503  11.966   7.761
79992SOL    HW141808   7.550  11.889   7.791
79992SOL    HW241809   7.490  11.951   7.667
79993SOL     OW41810  12.957  10.301  10.034
79993SOL    HW141811  12.996  10.364  10.095
79993SOL    HW241812  13.008  10.312   9.954
79994SOL     OW41813   0.606   5.647   0.369
79994SOL    HW141814   0.645   5.646   0.457
79994SOL    HW241815   0.563   5.562   0.360
79995SOL     OW41816   4.953   4.803   1.035
79995SOL    HW141817   4.913   4.877   1.080
79995SOL    HW241818   4.891   4.780   0.966
79996SOL     OW41819  11.537  14.091   7.257
79996SOL    HW141820  11.442  14.084   7.269
79996SOL    HW241821  11.566  14.002   7.241
79997SOL     OW41822   7.883   9.817  14.647
79997SOL    HW141823   7.813   9.752  14.647
79997SOL    HW241824   7.837   9.901  14.656
79998SOL     OW41825   0.740  11.392  11.838
79998SOL    HW141826   0.726  11.357  11.927
79998SOL    HW241827   0.814  11.452  11.847
79999SOL     OW41828   3.545   1.182   6.963
79999SOL    HW141829   3.473   1.241   6.941
79999SOL    HW241830   3.562   1.198   7.056
80000SOL     OW41831  11.583  10.374  14.395
80000SOL    HW141832  11.574  10.463  14.427
80000SOL    HW241833  11.624  10.326  14.467
80001SOL     OW41834   1.312   9.237  10.197
80001SOL    HW141835   1.397   9.213  10.159
80001SOL    HW241836   1.317   9.333  10.205
80002SOL     OW41837  14.288   2.906   8.780
80002SOL    HW141838  14.259   2.847   8.711
80002SOL    HW241839  14.266   2.860   8.861
80003SOL     OW41840   9.663  12.048   4.415
80003SOL    HW141841   9.706  11.978   4.366
80003SOL    HW241842   9.702  12.128   4.382
80004SOL     OW41843   2.994   2.406   4.017
80004SOL    HW141844   2.996   2.342   4.088
80004SOL    HW241845   2.949   2.362   3.946
80005SOL     OW41846   2.252  12.352   7.562
80005SOL    HW141847   2.297  12.271   7.538
80005SOL    HW241848   2.322  12.415   7.577
80006SOL     OW41849   5.906  14.547   5.894
80006SOL    HW141850   5.963  14.505   5.829
80006SOL    HW241851   5.822  14.501   5.885
80007SOL     OW41852  13.038   9.964   8.974
80007SOL    HW141853  13.121   9.943   9.017
80007SOL    HW241854  13.019   9.888   8.919
80008SOL     OW41855   9.729  10.227   2.617
80008SOL    HW141856   9.658  10.272   2.663
80008SOL    HW241857   9.735  10.272   2.533
80009SOL     OW41858   1.629  13.138  11.153
80009SOL    HW141859   1.544  13.139  11.195
80009SOL    HW241860   1.688  13.099  11.218
80010SOL     OW41861   7.557   9.833  13.639
80010SOL    HW141862   7.538   9.829  13.545
80010SOL    HW241863   7.472   9.829  13.681
80011SOL     OW41864   5.421   6.416   5.174
80011SOL    HW141865   5.506   6.444   5.208
80011SOL    HW241866   5.370   6.394   5.252
80012SOL     OW41867   3.994   6.316   7.002
80012SOL    HW141868   3.940   6.318   7.081
80012SOL    HW241869   3.947   6.256   6.943
80013SOL     OW41870  10.941  13.913   6.163
80013SOL    HW141871  11.026  13.958   6.173
80013SOL    HW241872  10.931  13.903   6.068
80014SOL     OW41873   8.605   6.883   9.282
80014SOL    HW141874   8.679   6.904   9.224
80014SOL    HW241875   8.603   6.955   9.345
80015SOL     OW41876  11.250  11.579  14.149
80015SOL    HW141877  11.183  11.529  14.196
80015SOL    HW241878  11.279  11.520  14.079
80016SOL     OW41879   5.409   2.613  11.107
80016SOL    HW141880   5.414   2.569  11.192
80016SOL    HW241881   5.333   2.671  11.115
80017SOL     OW41882  13.089   9.005   7.422
80017SOL    HW141883  13.154   8.935   7.434
80017SOL    HW241884  13.023   8.967   7.365
80018SOL     OW41885   3.266  12.217  10.596
80018SOL    HW141886   3.187  12.167  10.615
80018SOL    HW241887   3.323  12.200  10.671
80019SOL     OW41888   8.638  12.162   7.920
80019SOL    HW141889   8.594  12.131   7.999
80019SOL    HW241890   8.603  12.108   7.849
80020SOL     OW41891   2.071  10.305   8.559
80020SOL    HW141892   2.125  10.263   8.492
80020SOL    HW241893   2.104  10.395   8.562
80021SOL     OW41894  12.898   4.551   0.118
80021SOL    HW141895  12.840   4.593   0.055
80021SOL    HW241896  12.925   4.622   0.177
80022SOL     OW41897   6.859   4.386   6.106
80022SOL    HW141898   6.854   4.291   6.097
80022SOL    HW241899   6.835   4.402   6.198
80023SOL     OW41900   1.097  12.268   1.327
80023SOL    HW141901   1.042  12.238   1.255
80023SOL    HW241902   1.130  12.187   1.368
80024SOL     OW41903   9.817   7.020   6.784
80024SOL    HW141904   9.894   6.967   6.766
80024SOL    HW241905   9.802   7.010   6.878
80025SOL     OW41906   0.298   1.205   8.242
80025SOL    HW141907   0.282   1.207   8.337
80025SOL    HW241908   0.254   1.283   8.208
80026SOL     OW41909  12.439  13.316  14.345
80026SOL    HW141910  12.458  13.262  14.422
80026SOL    HW241911  12.353  13.354  14.364
80027SOL     OW41912   9.214   6.497   7.962
80027SOL    HW141913   9.212   6.488   8.057
80027SOL    HW241914   9.126   6.469   7.934
80028SOL     OW41915  13.022   6.620   0.923
80028SOL    HW141916  12.934   6.590   0.947
80028SOL    HW241917  13.026   6.710   0.954
80029SOL     OW41918   3.763   0.693  10.872
80029SOL    HW141919   3.752   0.727  10.783
80029SOL    HW241920   3.682   0.646  10.890
80030SOL     OW41921  11.810   8.521  11.454
80030SOL    HW141922  11.731   8.522  11.507
80030SOL    HW241923  11.791   8.580  11.381
80031SOL     OW41924  13.541   5.312   8.934
80031SOL    HW141925  13.481   5.346   9.000
80031SOL    HW241926  13.622   5.362   8.947
80032SOL     OW41927   8.875  13.082  13.344
80032SOL    HW141928   8.840  13.125  13.265
80032SOL    HW241929   8.926  13.009  13.310
80033SOL     OW41930   3.723   7.894  11.521
80033SOL    HW141931   3.741   7.988  11.517
80033SOL    HW241932   3.630   7.886  11.502
80034SOL     OW41933   1.986   6.533  12.449
80034SOL    HW141934   1.978   6.561  12.358
80034SOL    HW241935   2.041   6.455  12.446
80035SOL     OW41936   6.706   7.902   1.554
80035SOL    HW141937   6.679   7.814   1.579
80035SOL    HW241938   6.800   7.904   1.568
80036SOL     OW41939  13.796   2.437   8.362
80036SOL    HW141940  13.851   2.503   8.319
80036SOL    HW241941  13.854   2.361   8.372
80037SOL     OW41942  12.657   9.868   9.319
80037SOL    HW141943  12.695   9.790   9.359
80037SOL    HW241944  12.570   9.839   9.289
80038SOL     OW41945  13.599   5.335   7.818
80038SOL    HW141946  13.606   5.416   7.766
80038SOL    HW241947  13.688   5.319   7.850
80039SOL     OW41948  10.768   8.668  14.354
80039SOL    HW141949  10.779   8.749  14.404
80039SOL    HW241950  10.677   8.641  14.369
80040SOL     OW41951  13.152   9.269   3.650
80040SOL    HW141952  13.218   9.337   3.664
80040SOL    HW241953  13.097   9.303   3.579
80041SOL     OW41954  12.208   2.515   0.281
80041SOL    HW141955  12.118   2.546   0.284
80041SOL    HW241956  12.209   2.438   0.337
80042SOL     OW41957   2.768   4.247  10.083
80042SOL    HW141958   2.786   4.317  10.021
80042SOL    HW241959   2.747   4.171  10.028
80043SOL     OW41960   8.356  13.986  11.710
80043SOL    HW141961   8.349  13.989  11.806
80043SOL    HW241962   8.276  14.029  11.679
80044SOL     OW41963   7.126   1.105  11.168
80044SOL    HW141964   7.187   1.103  11.095
80044SOL    HW241965   7.140   1.191  11.208
80045SOL     OW41966   6.150  12.487   0.345
80045SOL    HW141967   6.244  12.484   0.364
80045SOL    HW241968   6.119  12.565   0.391
80046SOL     OW41969  10.053   6.465   7.555
80046SOL    HW141970  10.085   6.536   7.499
80046SOL    HW241971   9.996   6.509   7.618
80047SOL     OW41972  12.793   2.626   6.828
80047SOL    HW141973  12.728   2.645   6.896
80047SOL    HW241974  12.747   2.641   6.745
80048SOL     OW41975   1.028   4.658   7.106
80048SOL    HW141976   1.061   4.668   7.195
80048SOL    HW241977   1.038   4.744   7.067
80049SOL     OW41978   4.206  13.372   1.463
80049SOL    HW141979   4.216  13.446   1.403
80049SOL    HW241980   4.296  13.349   1.487
80050SOL     OW41981  14.823   2.897  14.391
80050SOL    HW141982  14.776   2.971  14.429
80050SOL    HW241983   0.035   2.903  14.426
80051SOL     OW41984   4.590   3.035  14.683
80051SOL    HW141985   4.683   3.027  14.661
80051SOL    HW241986   4.545   2.986  14.614
80052SOL     OW41987   1.435   8.309   6.433
80052SOL    HW141988   1.447   8.355   6.350
80052SOL    HW241989   1.348   8.335   6.463
80053SOL     OW41990  11.327  10.399   6.072
80053SOL    HW141991  11.305  10.407   6.165
80053SOL    HW241992  11.317  10.487   6.037
80054SOL     OW41993  10.818  12.979  13.248
80054SOL    HW141994  10.882  13.022  13.192
80054SOL    HW241995  10.798  12.897  13.202
80055SOL     OW41996   5.895  10.397   6.044
80055SOL    HW141997   5.828  10.435   5.987
80055SOL    HW241998   5.850  10.325   6.088
80056SOL     OW41999   2.098  12.544   9.953
80056SOL    HW142000   2.115  12.450   9.960
80056SOL    HW242001   2.017  12.550   9.902
80057SOL     OW42002  14.407   5.112   6.431
80057SOL    HW142003  14.436   5.149   6.347
80057SOL    HW242004  14.354   5.036   6.406
80058SOL     OW42005   7.068  13.559  12.317
80058SOL    HW142006   7.074  13.464  12.307
80058SOL    HW242007   6.991  13.583  12.265
80059SOL     OW42008   7.089   8.313   4.783
80059SOL    HW142009   7.044   8.234   4.814
80059SOL    HW242010   7.159   8.327   4.847
80060SOL     OW42011  14.161   2.793   6.458
80060SOL    HW142012  14.253   2.775   6.437
80060SOL    HW242013  14.113   2.717   6.426
80061SOL     OW42014   7.520  13.844   4.598
80061SOL    HW142015   7.613  13.858   4.618
80061SOL    HW242016   7.518  13.828   4.504
80062SOL     OW42017   5.004  12.169   7.249
80062SOL    HW142018   5.045  12.250   7.278
80062SOL    HW242019   5.056  12.100   7.289
80063SOL     OW42020   8.216   0.929   7.136
80063SOL    HW142021   8.222   0.927   7.041
80063SOL    HW242022   8.287   0.872   7.166
80064SOL     OW42023   8.794   7.509   1.435
80064SOL    HW142024   8.841   7.432   1.469
80064SOL    HW242025   8.724   7.524   1.499
80065SOL     OW42026   8.037   2.152   1.150
80065SOL    HW142027   8.043   2.057   1.147
80065SOL    HW242028   8.108   2.183   1.093
80066SOL     OW42029   0.177   9.347  14.869
80066SOL    HW142030   0.157   9.401   0.070
80066SOL    HW242031   0.133   9.264   0.011
80067SOL     OW42032  10.776   5.568   5.501
80067SOL    HW142033  10.837   5.596   5.569
80067SOL    HW242034  10.765   5.474   5.517
80068SOL     OW42035  11.511   7.170   6.910
80068SOL    HW142036  11.506   7.202   6.820
80068SOL    HW242037  11.461   7.234   6.960
80069SOL     OW42038   4.046  13.176   0.426
80069SOL    HW142039   4.130  13.217   0.404
80069SOL    HW242040   3.993  13.185   0.347
80070SOL     OW42041   3.142   4.611   4.398
80070SOL    HW142042   3.132   4.625   4.304
80070SOL    HW242043   3.053   4.616   4.433
80071SOL     OW42044   3.247   5.277   4.583
80071SOL    HW142045   3.180   5.215   4.615
80071SOL    HW242046   3.286   5.233   4.507
80072SOL     OW42047   9.344   3.326   4.235
80072SOL    HW142048   9.432   3.306   4.267
80072SOL    HW242049   9.288   3.262   4.279
80073SOL     OW42050   5.980   2.845   4.587
80073SOL    HW142051   5.886   2.844   4.605
80073SOL    HW242052   6.021   2.865   4.671
80074SOL     OW42053   5.229  13.737  14.472
80074SOL    HW142054   5.295  13.794  14.510
80074SOL    HW242055   5.255  13.727  14.381
80075SOL     OW42056   7.809  12.599  10.588
80075SOL    HW142057   7.856  12.537  10.643
80075SOL    HW242058   7.875  12.633  10.528
80076SOL     OW42059   6.158  12.451  11.831
80076SOL    HW142060   6.102  12.435  11.755
80076SOL    HW242061   6.182  12.543  11.825
80077SOL     OW42062  12.335  14.592   0.889
80077SOL    HW142063  12.327  14.628   0.801
80077SOL    HW242064  12.425  14.611   0.915
80078SOL     OW42065   6.484   1.802   9.356
80078SOL    HW142066   6.450   1.808   9.267
80078SOL    HW242067   6.578   1.787   9.344
80079SOL     OW42068  12.303   6.157   8.275
80079SOL    HW142069  12.305   6.172   8.180
80079SOL    HW242070  12.393   6.173   8.304
80080SOL     OW42071   3.253   7.093  14.514
80080SOL    HW142072   3.167   7.059  14.540
80080SOL    HW242073   3.316   7.040  14.563
80081SOL     OW42074   3.069   6.000   8.448
80081SOL    HW142075   3.027   5.923   8.486
80081SOL    HW242076   3.159   5.971   8.430
80082SOL     OW42077   6.398  12.818   0.281
80082SOL    HW142078   6.313  12.850   0.312
80082SOL    HW242079   6.386  12.808   0.186
80083SOL     OW42080  11.225  12.209   3.954
80083SOL    HW142081  11.185  12.275   3.898
80083SOL    HW242082  11.282  12.159   3.895
80084SOL     OW42083   2.777   2.948   4.563
80084SOL    HW142084   2.791   2.947   4.658
80084SOL    HW242085   2.690   2.986   4.552
80085SOL     OW42086   3.957   1.898  14.529
80085SOL    HW142087   3.945   1.993  14.537
80085SOL    HW242088   3.896   1.872  14.460
80086SOL     OW42089  14.761  13.993   0.350
80086SOL    HW142090  14.701  14.066   0.363
80086SOL    HW242091  14.717  13.937   0.287
80087SOL     OW42092  13.902   4.613   4.836
80087SOL    HW142093  13.947   4.679   4.784
80087SOL    HW242094  13.943   4.617   4.922
80088SOL     OW42095   5.944   1.427   9.261
80088SOL    HW142096   6.032   1.403   9.290
80088SOL    HW242097   5.922   1.362   9.193
80089SOL     OW42098   0.090   2.640   2.310
80089SOL    HW142099   0.109   2.706   2.377
80089SOL    HW242100  14.874   2.653   2.289
80090SOL     OW42101  13.230  13.127   1.310
80090SOL    HW142102  13.290  13.058   1.285
80090SOL    HW242103  13.260  13.204   1.261
80091SOL     OW42104   5.370   2.348   6.305
80091SOL    HW142105   5.274   2.341   6.313
80091SOL    HW242106   5.397   2.388   6.388
80092SOL     OW42107   5.252   4.941   6.996
80092SOL    HW142108   5.297   4.970   7.076
80092SOL    HW242109   5.208   4.860   7.021
80093SOL     OW42110   8.747   1.217  10.797
80093SOL    HW142111   8.748   1.313  10.793
80093SOL    HW242112   8.839   1.193  10.808
80094SOL     OW42113   1.153  11.657  12.024
80094SOL    HW142114   1.080  11.664  12.085
80094SOL    HW242115   1.228  11.694  12.070
80095SOL     OW42116   0.437   7.483  14.298
80095SOL    HW142117   0.435   7.393  14.265
80095SOL    HW242118   0.406   7.537  14.225
80096SOL     OW42119   7.834  10.754  14.839
80096SOL    HW142120   7.837  10.686   0.030
80096SOL    HW242121   7.747  10.793  14.849
80097SOL     OW42122   7.417   3.813   9.786
80097SOL    HW142123   7.415   3.820   9.882
80097SOL    HW242124   7.511   3.810   9.765
80098SOL     OW42125   5.134   7.865   3.888
80098SOL    HW142126   5.185   7.914   3.952
80098SOL    HW242127   5.196   7.803   3.849
80099SOL     OW42128   2.346  10.443   9.044
80099SOL    HW142129   2.338  10.492   8.962
80099SOL    HW242130   2.360  10.510   9.111
80100SOL     OW42131   8.214  14.050   7.626
80100SOL    HW142132   8.210  14.118   7.558
80100SOL    HW242133   8.145  13.988   7.603
80101SOL     OW42134   4.714  12.268   3.346
80101SOL    HW142135   4.629  12.271   3.389
80101SOL    HW242136   4.708  12.333   3.276
80102SOL     OW42137  12.026   5.181   7.678
80102SOL    HW142138  12.047   5.131   7.757
80102SOL    HW242139  11.967   5.123   7.629
80103SOL     OW42140  12.912  10.900   7.494
80103SOL    HW142141  13.005  10.882   7.478
80103SOL    HW242142  12.866  10.834   7.443
80104SOL     OW42143   2.352   9.738   9.798
80104SOL    HW142144   2.405   9.761   9.874
80104SOL    HW242145   2.394   9.783   9.725
80105SOL     OW42146   1.593  10.479  10.675
80105SOL    HW142147   1.632  10.397  10.704
80105SOL    HW242148   1.665  10.527  10.634
80106SOL     OW42149  12.157   7.816   0.320
80106SOL    HW142150  12.098   7.881   0.360
80106SOL    HW242151  12.243   7.835   0.359
80107SOL     OW42152   4.330   3.007   5.108
80107SOL    HW142153   4.403   3.068   5.094
80107SOL    HW242154   4.285   3.004   5.023
80108SOL     OW42155  14.082   5.432   8.550
80108SOL    HW142156  14.177   5.417   8.557
80108SOL    HW242157  14.072   5.526   8.563
80109SOL     OW42158   1.426   8.217  14.325
80109SOL    HW142159   1.486   8.286  14.294
80109SOL    HW242160   1.346   8.263  14.348
80110SOL     OW42161   4.440   2.150  11.156
80110SOL    HW142162   4.504   2.079  11.145
80110SOL    HW242163   4.470   2.198  11.233
80111SOL     OW42164  14.670   0.892   9.413
80111SOL    HW142165  14.756   0.908   9.452
80111SOL    HW242166  14.668   0.948   9.335
80112SOL     OW42167  12.621  13.250   9.023
80112SOL    HW142168  12.544  13.235   9.077
80112SOL    HW242169  12.589  13.300   8.949
80113SOL     OW42170   8.300   6.785   6.523
80113SOL    HW142171   8.227   6.829   6.480
80113SOL    HW242172   8.264   6.703   6.556
80114SOL     OW42173  10.460   7.328   7.062
80114SOL    HW142174  10.446   7.335   7.157
80114SOL    HW242175  10.393   7.384   7.024
80115SOL     OW42176  11.450   8.213   3.929
80115SOL    HW142177  11.429   8.306   3.920
80115SOL    HW242178  11.403   8.170   3.858
80116SOL     OW42179  10.112   9.753  11.996
80116SOL    HW142180  10.063   9.748  11.914
80116SOL    HW242181  10.057   9.807  12.053
80117SOL     OW42182  12.951   5.459  11.751
80117SOL    HW142183  12.896   5.520  11.702
80117SOL    HW242184  12.917   5.372  11.727
80118SOL     OW42185  13.220  10.857   3.340
80118SOL    HW142186  13.164  10.831   3.413
80118SOL    HW242187  13.241  10.949   3.358
80119SOL     OW42188   2.151  12.909   0.377
80119SOL    HW142189   2.095  12.913   0.455
80119SOL    HW242190   2.089  12.899   0.305
80120SOL     OW42191   7.273   4.564   1.499
80120SOL    HW142192   7.226   4.530   1.575
80120SOL    HW242193   7.322   4.490   1.465
80121SOL     OW42194   7.072  14.638  14.760
80121SOL    HW142195   7.147  14.617  14.704
80121SOL    HW242196   7.110  14.684  14.835
80122SOL     OW42197  14.262   3.102   7.715
80122SOL    HW142198  14.168   3.105   7.733
80122SOL    HW242199  14.286   3.010   7.724
80123SOL     OW42200  11.722   4.513   0.227
80123SOL    HW142201  11.648   4.455   0.244
80123SOL    HW242202  11.689   4.574   0.160
80124SOL     OW42203   9.525   2.436   4.115
80124SOL    HW142204   9.473   2.513   4.092
80124SOL    HW242205   9.551   2.452   4.206
80125SOL     OW42206   8.136   9.395   6.209
80125SOL    HW142207   8.105   9.373   6.121
80125SOL    HW242208   8.070   9.357   6.267
80126SOL     OW42209   3.708  14.631  12.620
80126SOL    HW142210   3.689  14.567  12.552
80126SOL    HW242211   3.657  14.708  12.596
80127SOL     OW42212   8.409   5.011   1.749
80127SOL    HW142213   8.415   4.996   1.844
80127SOL    HW242214   8.465   5.087   1.733
80128SOL     OW42215   5.648   0.925   2.039
80128SOL    HW142216   5.575   0.863   2.034
80128SOL    HW242217   5.651   0.965   1.952
80129SOL     OW42218   7.831  13.924   6.427
80129SOL    HW142219   7.855  13.906   6.336
80129SOL    HW242220   7.735  13.930   6.425
80130SOL     OW42221  10.862   5.066   4.982
80130SOL    HW142222  10.772   5.066   5.013
80130SOL    HW242223  10.860   5.114   4.899
80131SOL     OW42224  14.064   7.113   8.299
80131SOL    HW142225  14.007   7.040   8.326
80131SOL    HW242226  14.085   7.094   8.208
80132SOL     OW42227  12.430   4.313   7.096
80132SOL    HW142228  12.395   4.290   7.181
80132SOL    HW242229  12.516   4.350   7.114
80133SOL     OW42230  13.663   1.217   0.581
80133SOL    HW142231  13.615   1.134   0.578
80133SOL    HW242232  13.625   1.269   0.509
80134SOL     OW42233  12.508   7.382  14.634
80134SOL    HW142234  12.557   7.462  14.651
80134SOL    HW242235  12.572   7.311  14.644
80135SOL     OW42236   5.431   2.365   4.981
80135SOL    HW142237   5.491   2.342   4.911
80135SOL    HW242238   5.486   2.376   5.058
80136SOL     OW42239   5.601   7.583   4.631
80136SOL    HW142240   5.554   7.595   4.713
80136SOL    HW242241   5.534   7.554   4.569
80137SOL     OW42242   1.558   8.484   9.482
80137SOL    HW142243   1.531   8.408   9.430
80137SOL    HW242244   1.623   8.528   9.428
80138SOL     OW42245  14.171   4.641  11.931
80138SOL    HW142246  14.257   4.599  11.939
80138SOL    HW242247  14.172   4.680  11.844
80139SOL     OW42248  14.372  12.399  14.336
80139SOL    HW142249  14.424  12.382  14.415
80139SOL    HW242250  14.363  12.313  14.295
80140SOL     OW42251   3.474  10.998   9.587
80140SOL    HW142252   3.461  11.050   9.666
80140SOL    HW242253   3.407  10.930   9.592
80141SOL     OW42254   7.675   6.991   2.058
80141SOL    HW142255   7.699   6.999   1.966
80141SOL    HW242256   7.579   6.999   2.059
80142SOL     OW42257  14.724   5.486   6.615
80142SOL    HW142258  14.767   5.511   6.697
80142SOL    HW242259  14.718   5.568   6.565
80143SOL     OW42260   3.725   8.493   8.317
80143SOL    HW142261   3.728   8.403   8.284
80143SOL    HW242262   3.700   8.484   8.409
80144SOL     OW42263   1.156  12.373  11.459
80144SOL    HW142264   1.094  12.358  11.530
80144SOL    HW242265   1.151  12.295  11.405
80145SOL     OW42266  10.545  13.518   7.031
80145SOL    HW142267  10.560  13.424   7.035
80145SOL    HW242268  10.517  13.542   7.119
80146SOL     OW42269   5.826  14.339   1.097
80146SOL    HW142270   5.843  14.245   1.096
80146SOL    HW242271   5.834  14.364   1.189
80147SOL     OW42272   2.072   2.669   7.522
80147SOL    HW142273   2.003   2.706   7.577
80147SOL    HW242274   2.151   2.717   7.547
80148SOL     OW42275   9.720   6.865   5.376
80148SOL    HW142276   9.767   6.811   5.438
80148SOL    HW242277   9.705   6.808   5.300
80149SOL     OW42278   9.459   5.038  12.736
80149SOL    HW142279   9.380   5.070  12.778
80149SOL    HW242280   9.470   5.093  12.659
80150SOL     OW42281   9.645   4.257   1.558
80150SOL    HW142282   9.567   4.212   1.591
80150SOL    HW242283   9.610   4.335   1.514
80151SOL     OW42284   0.242   6.967   5.937
80151SOL    HW142285   0.220   6.975   5.844
80151SOL    HW242286   0.325   6.919   5.938
80152SOL     OW42287   5.130  13.522  13.878
80152SOL    HW142288   5.072  13.596  13.898
80152SOL    HW242289   5.212  13.563  13.850
80153SOL     OW42290   1.602   6.815  13.317
80153SOL    HW142291   1.524   6.764  13.296
80153SOL    HW242292   1.634   6.846  13.233
80154SOL     OW42293   0.745   4.513   8.673
80154SOL    HW142294   0.801   4.439   8.694
80154SOL    HW242295   0.702   4.535   8.756
80155SOL     OW42296   9.310   9.884   0.234
80155SOL    HW142297   9.274   9.963   0.194
80155SOL    HW242298   9.243   9.817   0.219
80156SOL     OW42299  13.684   4.444   8.400
80156SOL    HW142300  13.740   4.522   8.405
80156SOL    HW242301  13.716   4.396   8.323
80157SOL     OW42302   5.083   8.079   0.432
80157SOL    HW142303   5.168   8.065   0.390
80157SOL    HW242304   5.042   7.993   0.434
80158SOL     OW42305   8.868   6.295  14.179
80158SOL    HW142306   8.934   6.247  14.128
80158SOL    HW242307   8.864   6.381  14.137
80159SOL     OW42308   4.166   3.612   1.485
80159SOL    HW142309   4.151   3.653   1.570
80159SOL    HW242310   4.147   3.519   1.500
80160SOL     OW42311  10.886   5.870   4.682
80160SOL    HW142312  10.804   5.876   4.633
80160SOL    HW242313  10.859   5.845   4.770
80161SOL     OW42314   2.040   6.332  10.176
80161SOL    HW142315   2.013   6.302  10.090
80161SOL    HW242316   1.959   6.338  10.227
80162SOL     OW42317  12.446   9.916  14.179
80162SOL    HW142318  12.493   9.880  14.104
80162SOL    HW242319  12.457  10.011  14.172
80163SOL     OW42320   0.364  11.163  12.988
80163SOL    HW142321   0.310  11.130  13.060
80163SOL    HW242322   0.306  11.161  12.912
80164SOL     OW42323  11.681   2.213   3.955
80164SOL    HW142324  11.682   2.307   3.933
80164SOL    HW242325  11.771   2.185   3.941
80165SOL     OW42326  13.121  13.756  11.713
80165SOL    HW142327  13.172  13.674  11.710
80165SOL    HW242328  13.183  13.823  11.684
80166SOL     OW42329  13.609   0.482   3.590
80166SOL    HW142330  13.584   0.406   3.537
80166SOL    HW242331  13.639   0.547   3.526
80167SOL     OW42332  13.004   9.491   1.001
80167SOL    HW142333  13.071   9.476   1.067
80167SOL    HW242334  13.052   9.496   0.919
80168SOL     OW42335   0.677   6.579  11.648
80168SOL    HW142336   0.666   6.517  11.576
80168SOL    HW242337   0.737   6.645  11.614
80169SOL     OW42338   6.429   4.247  11.478
80169SOL    HW142339   6.483   4.316  11.517
80169SOL    HW242340   6.490   4.175  11.462
80170SOL     OW42341  11.674   2.421  13.618
80170SOL    HW142342  11.587   2.386  13.636
80170SOL    HW242343  11.659   2.515  13.604
80171SOL     OW42344   0.998  13.441   4.920
80171SOL    HW142345   1.001  13.347   4.902
80171SOL    HW242346   0.909  13.467   4.895
80172SOL     OW42347   8.841   2.810  11.578
80172SOL    HW142348   8.865   2.760  11.656
80172SOL    HW242349   8.925   2.828  11.535
80173SOL     OW42350  13.486   6.049   6.932
80173SOL    HW142351  13.566   6.016   6.892
80173SOL    HW242352  13.416   6.001   6.888
80174SOL     OW42353   6.666  14.227   5.763
80174SOL    HW142354   6.755  14.251   5.735
80174SOL    HW242355   6.654  14.274   5.845
80175SOL     OW42356  14.186   9.160   7.088
80175SOL    HW142357  14.265   9.193   7.045
80175SOL    HW242358  14.173   9.219   7.162
80176SOL     OW42359   9.963   1.676   7.277
80176SOL    HW142360   9.941   1.766   7.254
80176SOL    HW242361  10.027   1.684   7.347
80177SOL     OW42362   8.050  11.356   8.575
80177SOL    HW142363   8.093  11.329   8.495
80177SOL    HW242364   7.981  11.416   8.546
80178SOL     OW42365  11.578   9.177  13.637
80178SOL    HW142366  11.560   9.083  13.626
80178SOL    HW242367  11.665   9.180  13.676
80179SOL     OW42368   5.922   4.596   1.250
80179SOL    HW142369   5.992   4.637   1.301
80179SOL    HW242370   5.847   4.594   1.309
80180SOL     OW42371  12.192   6.867   7.926
80180SOL    HW142372  12.224   6.898   8.011
80180SOL    HW242373  12.131   6.796   7.948
80181SOL     OW42374  10.747   2.714  10.056
80181SOL    HW142375  10.726   2.709   9.963
80181SOL    HW242376  10.756   2.623  10.084
80182SOL     OW42377  13.660  14.874   5.296
80182SOL    HW142378  13.699   0.018   5.210
80182SOL    HW242379  13.725   0.028   5.359
80183SOL     OW42380   9.706  11.118  11.732
80183SOL    HW142381   9.679  11.079  11.649
80183SOL    HW242382   9.678  11.055  11.799
80184SOL     OW42383   0.485   9.182   9.363
80184SOL    HW142384   0.406   9.168   9.415
80184SOL    HW242385   0.548   9.117   9.396
80185SOL     OW42386   2.766   1.134   9.873
80185SOL    HW142387   2.832   1.130   9.805
80185SOL    HW242388   2.757   1.227   9.894
80186SOL     OW42389   1.719  13.000   5.665
80186SOL    HW142390   1.647  13.044   5.710
80186SOL    HW242391   1.793  13.007   5.726
80187SOL     OW42392  10.000   7.204  14.365
80187SOL    HW142393  10.013   7.277  14.426
80187SOL    HW242394  10.083   7.195  14.319
80188SOL     OW42395   7.648   0.471  14.138
80188SOL    HW142396   7.603   0.395  14.174
80188SOL    HW242397   7.718   0.434  14.084
80189SOL     OW42398   1.100  12.984   9.725
80189SOL    HW142399   1.061  13.071   9.726
80189SOL    HW242400   1.088  12.951   9.814
80190SOL     OW42401  11.638  11.164   9.654
80190SOL    HW142402  11.554  11.119   9.643
80190SOL    HW242403  11.618  11.256   9.639
80191SOL     OW42404   1.961  14.106   1.433
80191SOL    HW142405   1.983  14.197   1.409
80191SOL    HW242406   1.880  14.088   1.387
80192SOL     OW42407   1.425   9.774   1.771
80192SOL    HW142408   1.462   9.813   1.850
80192SOL    HW242409   1.387   9.692   1.800
80193SOL     OW42410   2.194   0.436   5.624
80193SOL    HW142411   2.130   0.372   5.656
80193SOL    HW242412   2.175   0.515   5.674
80194SOL     OW42413   5.032   1.656   2.750
80194SOL    HW142414   4.968   1.635   2.681
80194SOL    HW242415   5.113   1.616   2.719
80195SOL     OW42416   3.392   5.434   1.711
80195SOL    HW142417   3.373   5.527   1.719
80195SOL    HW242418   3.323   5.400   1.654
80196SOL     OW42419   1.392   4.137   9.734
80196SOL    HW142420   1.468   4.145   9.676
80196SOL    HW242421   1.360   4.227   9.743
80197SOL     OW42422   6.699   4.110   0.492
80197SOL    HW142423   6.718   4.203   0.478
80197SOL    HW242424   6.776   4.077   0.538
80198SOL     OW42425   2.314   1.963  12.416
80198SOL    HW142426   2.270   1.934  12.496
80198SOL    HW242427   2.338   2.054  12.434
80199SOL     OW42428   6.337   5.372  12.551
80199SOL    HW142429   6.392   5.450  12.549
80199SOL    HW242430   6.310   5.363  12.642
80200SOL     OW42431  14.866   8.449   8.804
80200SOL    HW142432  14.829   8.417   8.886
80200SOL    HW242433   0.085   8.450   8.819
80201SOL     OW42434   6.336  11.142   0.377
80201SOL    HW142435   6.263  11.081   0.370
80201SOL    HW242436   6.394  11.102   0.442
80202SOL     OW42437  12.397   2.467   1.676
80202SOL    HW142438  12.454   2.492   1.604
80202SOL    HW242439  12.325   2.530   1.674
80203SOL     OW42440   0.484   0.553   4.198
80203SOL    HW142441   0.476   0.488   4.129
80203SOL    HW242442   0.462   0.507   4.278
80204SOL     OW42443   6.404  12.448   0.466
80204SOL    HW142444   6.446  12.533   0.482
80204SOL    HW242445   6.462  12.404   0.405
80205SOL     OW42446  12.764   6.492  11.199
80205SOL    HW142447  12.802   6.469  11.284
80205SOL    HW242448  12.829   6.464  11.135
80206SOL     OW42449   9.227   2.169   8.852
80206SOL    HW142450   9.207   2.099   8.914
80206SOL    HW242451   9.146   2.220   8.847
80207SOL     OW42452   8.415   9.498   4.063
80207SOL    HW142453   8.500   9.512   4.021
80207SOL    HW242454   8.374   9.584   4.062
80208SOL     OW42455   9.739   5.798  11.586
80208SOL    HW142456   9.688   5.790  11.506
80208SOL    HW242457   9.765   5.890  11.589
80209SOL     OW42458  14.037  13.885  10.288
80209SOL    HW142459  14.072  13.951  10.349
80209SOL    HW242460  14.078  13.907  10.204
80210SOL     OW42461   4.692  11.005   2.479
80210SOL    HW142462   4.766  10.945   2.490
80210SOL    HW242463   4.621  10.949   2.447
80211SOL     OW42464   5.237   6.326   7.439
80211SOL    HW142465   5.309   6.362   7.491
80211SOL    HW242466   5.193   6.402   7.403
80212SOL     OW42467  11.812   5.025   7.333
80212SOL    HW142468  11.753   5.095   7.305
80212SOL    HW242469  11.813   5.031   7.428
80213SOL     OW42470   0.457   8.321   6.710
80213SOL    HW142471   0.493   8.405   6.741
80213SOL    HW242472   0.531   8.279   6.665
80214SOL     OW42473   7.636   9.739  11.332
80214SOL    HW142474   7.707   9.771  11.275
80214SOL    HW242475   7.596   9.668  11.282
80215SOL     OW42476   2.747   7.907  10.957
80215SOL    HW142477   2.654   7.908  10.977
80215SOL    HW242478   2.760   7.984  10.902
80216SOL     OW42479  13.308  13.742   1.232
80216SOL    HW142480  13.227  13.736   1.284
80216SOL    HW242481  13.363  13.803   1.280
80217SOL     OW42482  14.303  14.781   3.029
80217SOL    HW142483  14.246  14.858   3.022
80217SOL    HW242484  14.244  14.710   3.055
80218SOL     OW42485   7.488   8.962  11.166
80218SOL    HW142486   7.533   9.021  11.226
80218SOL    HW242487   7.478   9.013  11.086
80219SOL     OW42488   5.611  13.070   5.576
80219SOL    HW142489   5.657  13.132   5.521
80219SOL    HW242490   5.672  13.048   5.647
80220SOL     OW42491  13.859   4.658   3.192
80220SOL    HW142492  13.851   4.592   3.260
80220SOL    HW242493  13.949   4.690   3.199
80221SOL     OW42494   4.400   5.949   2.426
80221SOL    HW142495   4.363   6.027   2.467
80221SOL    HW242496   4.412   5.974   2.334
80222SOL     OW42497   5.303  11.025   2.971
80222SOL    HW142498   5.354  10.965   2.917
80222SOL    HW242499   5.313  11.110   2.928
80223SOL     OW42500   8.173   2.322  14.463
80223SOL    HW142501   8.089   2.281  14.486
80223SOL    HW242502   8.170   2.329  14.367
80224SOL     OW42503   8.844   2.819   3.014
80224SOL    HW142504   8.864   2.771   2.934
80224SOL    HW242505   8.802   2.754   3.071
80225SOL     OW42506  10.607   2.999  10.044
80225SOL    HW142507  10.535   3.060  10.064
80225SOL    HW242508  10.587   2.921  10.094
80226SOL     OW42509   8.926   3.184   6.970
80226SOL    HW142510   8.942   3.137   6.888
80226SOL    HW242511   8.924   3.116   7.037
80227SOL     OW42512   6.375   1.630   8.722
80227SOL    HW142513   6.290   1.605   8.761
80227SOL    HW242514   6.440   1.594   8.782
80228SOL     OW42515  14.157   9.021   1.582
80228SOL    HW142516  14.120   9.087   1.523
80228SOL    HW242517  14.232   8.985   1.534
80229SOL     OW42518   0.204  11.842   5.587
80229SOL    HW142519   0.266  11.886   5.644
80229SOL    HW242520   0.202  11.751   5.618
80230SOL     OW42521  12.615  14.265  11.960
80230SOL    HW142522  12.669  14.193  11.927
80230SOL    HW242523  12.566  14.227  12.033
80231SOL     OW42524   7.076   9.071   2.776
80231SOL    HW142525   7.107   9.155   2.743
80231SOL    HW242526   7.155   9.028   2.809
80232SOL     OW42527  11.572   2.897  11.722
80232SOL    HW142528  11.514   2.959  11.678
80232SOL    HW242529  11.631   2.866  11.654
80233SOL     OW42530   2.929  12.594   6.411
80233SOL    HW142531   2.947  12.534   6.338
80233SOL    HW242532   2.872  12.661   6.373
80234SOL     OW42533   3.247   3.688   7.156
80234SOL    HW142534   3.162   3.680   7.112
80234SOL    HW242535   3.266   3.599   7.188
80235SOL     OW42536   1.612   1.128   7.897
80235SOL    HW142537   1.694   1.089   7.928
80235SOL    HW242538   1.571   1.059   7.844
80236SOL     OW42539   2.513  13.032   0.466
80236SOL    HW142540   2.561  12.952   0.445
80236SOL    HW242541   2.577  13.088   0.509
80237SOL     OW42542   1.943   1.476  13.334
80237SOL    HW142543   1.937   1.394  13.285
80237SOL    HW242544   2.017   1.462  13.393
80238SOL     OW42545   7.654   5.770   1.035
80238SOL    HW142546   7.746   5.768   1.060
80238SOL    HW242547   7.612   5.826   1.100
80239SOL     OW42548  11.182  14.373   0.271
80239SOL    HW142549  11.147  14.411   0.352
80239SOL    HW242550  11.129  14.412   0.202
80240SOL     OW42551  11.950  11.287   1.655
80240SOL    HW142552  12.024  11.291   1.593
80240SOL    HW242553  11.873  11.273   1.599
80241SOL     OW42554   6.956   2.232  10.200
80241SOL    HW142555   7.028   2.255  10.141
80241SOL    HW242556   6.996   2.172  10.263
80242SOL     OW42557   5.896  14.549   5.055
80242SOL    HW142558   5.874  14.593   5.137
80242SOL    HW242559   5.927  14.619   4.998
80243SOL     OW42560  11.913   0.248  10.155
80243SOL    HW142561  11.999   0.289  10.155
80243SOL    HW242562  11.880   0.260  10.244
80244SOL     OW42563   9.005  13.209   2.507
80244SOL    HW142564   9.046  13.153   2.441
80244SOL    HW242565   8.911  13.203   2.489
80245SOL     OW42566  12.094   9.240  12.380
80245SOL    HW142567  12.105   9.181  12.455
80245SOL    HW242568  12.086   9.327  12.420
80246SOL     OW42569   7.568  13.761  10.354
80246SOL    HW142570   7.648  13.712  10.333
80246SOL    HW242571   7.588  13.851  10.330
80247SOL     OW42572   1.357  13.058  10.292
80247SOL    HW142573   1.378  13.151  10.284
80247SOL    HW242574   1.344  13.028  10.202
80248SOL     OW42575   4.989   2.272   6.566
80248SOL    HW142576   4.923   2.331   6.530
80248SOL    HW242577   5.046   2.251   6.492
80249SOL     OW42578  12.921   0.334   0.850
80249SOL    HW142579  13.014   0.330   0.827
80249SOL    HW242580  12.906   0.258   0.906
80250SOL     OW42581   3.887  13.385  10.519
80250SOL    HW142582   3.834  13.313  10.554
80250SOL    HW242583   3.967  13.383  10.573
80251SOL     OW42584   4.194   0.035  12.616
80251SOL    HW142585   4.225   0.005  12.531
80251SOL    HW242586   4.111  14.865  12.629
80252SOL     OW42587   5.044  13.509   4.174
80252SOL    HW142588   5.031  13.568   4.099
80252SOL    HW242589   5.138  13.497   4.179
80253SOL     OW42590  14.680   6.387   9.995
80253SOL    HW142591  14.632   6.352   9.920
80253SOL    HW242592  14.755   6.432   9.957
80254SOL     OW42593  10.601   3.790   5.098
80254SOL    HW142594  10.583   3.765   5.007
80254SOL    HW242595  10.684   3.838   5.093
80255SOL     OW42596   7.581  11.906  10.228
80255SOL    HW142597   7.611  11.953  10.151
80255SOL    HW242598   7.518  11.965  10.270
80256SOL     OW42599   5.932   7.697  14.222
80256SOL    HW142600   5.885   7.779  14.210
80256SOL    HW242601   6.020   7.724  14.250
80257SOL     OW42602   3.520   8.981   8.237
80257SOL    HW142603   3.513   9.055   8.177
80257SOL    HW242604   3.451   8.996   8.302
80258SOL     OW42605   6.339  11.459  10.975
80258SOL    HW142606   6.360  11.369  10.999
80258SOL    HW242607   6.414  11.489  10.925
80259SOL     OW42608   6.778   2.357   6.386
80259SOL    HW142609   6.814   2.353   6.297
80259SOL    HW242610   6.804   2.275   6.427
80260SOL     OW42611   4.884  13.602   3.918
80260SOL    HW142612   4.879  13.695   3.941
80260SOL    HW242613   4.836  13.595   3.836
80261SOL     OW42614   0.112   5.955  11.930
80261SOL    HW142615   0.122   5.934  11.837
80261SOL    HW242616   0.020   5.980  11.940
80262SOL     OW42617  10.468   4.995  11.931
80262SOL    HW142618  10.559   5.022  11.944
80262SOL    HW242619  10.452   5.011  11.837
80263SOL     OW42620   8.681  11.744   5.906
80263SOL    HW142621   8.755  11.725   5.964
80263SOL    HW242622   8.713  11.814   5.849
80264SOL     OW42623  11.908  13.631   8.105
80264SOL    HW142624  11.881  13.637   8.196
80264SOL    HW242625  11.964  13.708   8.092
80265SOL     OW42626   5.459   5.932   0.614
80265SOL    HW142627   5.492   5.944   0.526
80265SOL    HW242628   5.534   5.901   0.665
80266SOL     OW42629  14.769   5.261   7.435
80266SOL    HW142630  14.861   5.283   7.432
80266SOL    HW242631  14.723   5.343   7.420
80267SOL     OW42632   1.226   6.854   9.430
80267SOL    HW142633   1.272   6.852   9.346
80267SOL    HW242634   1.189   6.766   9.439
80268SOL     OW42635   1.807  14.868   5.431
80268SOL    HW142636   1.726  14.853   5.382
80268SOL    HW242637   1.865  14.797   5.404
80269SOL     OW42638   8.538   2.708   7.543
80269SOL    HW142639   8.560   2.715   7.636
80269SOL    HW242640   8.611   2.748   7.497
80270SOL     OW42641   4.399  13.166   3.239
80270SOL    HW142642   4.343  13.232   3.279
80270SOL    HW242643   4.488  13.196   3.258
80271SOL     OW42644   4.582  10.603   9.306
80271SOL    HW142645   4.508  10.622   9.364
80271SOL    HW242646   4.613  10.689   9.278
80272SOL     OW42647  12.552  10.739   6.127
80272SOL    HW142648  12.590  10.820   6.092
80272SOL    HW242649  12.458  10.755   6.127
80273SOL     OW42650   3.394   3.256   0.014
80273SOL    HW142651   3.416   3.255  14.796
80273SOL    HW242652   3.298   3.256   0.016
80274SOL     OW42653   2.234   9.363   7.699
80274SOL    HW142654   2.141   9.386   7.697
80274SOL    HW242655   2.272   9.424   7.762
80275SOL     OW42656   1.685  13.790  13.413
80275SOL    HW142657   1.731  13.868  13.443
80275SOL    HW242658   1.594  13.806  13.435
80276SOL     OW42659   4.322  13.805  13.344
80276SOL    HW142660   4.328  13.823  13.250
80276SOL    HW242661   4.254  13.737  13.351
80277SOL     OW42662   6.075   3.115   1.647
80277SOL    HW142663   6.081   3.177   1.718
80277SOL    HW242664   6.138   3.146   1.582
80278SOL     OW42665   5.039  12.786   0.435
80278SOL    HW142666   4.997  12.857   0.386
80278SOL    HW242667   5.099  12.830   0.494
80279SOL     OW42668   9.530   1.033   6.536
80279SOL    HW142669   9.533   1.052   6.442
80279SOL    HW242670   9.444   1.065   6.563
80280SOL     OW42671  11.551   0.153   2.080
80280SOL    HW142672  11.592   0.090   2.022
80280SOL    HW242673  11.473   0.107   2.114
80281SOL     OW42674   9.633   6.892  13.872
80281SOL    HW142675   9.685   6.857  13.799
80281SOL    HW242676   9.549   6.915  13.833
80282SOL     OW42677   5.258  12.638   6.200
80282SOL    HW142678   5.311  12.563   6.172
80282SOL    HW242679   5.248  12.691   6.120
80283SOL     OW42680  11.913  14.800   6.708
80283SOL    HW142681  12.009  14.806   6.705
80283SOL    HW242682  11.893  14.797   6.802
80284SOL     OW42683  13.937   1.854   9.077
80284SOL    HW142684  13.990   1.852   8.997
80284SOL    HW242685  13.906   1.765   9.088
80285SOL     OW42686   7.147  12.531   9.601
80285SOL    HW142687   7.137  12.546   9.507
80285SOL    HW242688   7.207  12.599   9.631
80286SOL     OW42689  11.925  14.492  14.387
80286SOL    HW142690  11.915  14.564  14.448
80286SOL    HW242691  12.020  14.485  14.373
80287SOL     OW42692   8.587   2.099   6.596
80287SOL    HW142693   8.549   2.025   6.549
80287SOL    HW242694   8.666   2.121   6.546
80288SOL     OW42695   4.145   4.314   4.076
80288SOL    HW142696   4.133   4.223   4.102
80288SOL    HW242697   4.079   4.330   4.009
80289SOL     OW42698   5.491   6.745   9.344
80289SOL    HW142699   5.509   6.723   9.435
80289SOL    HW242700   5.400   6.776   9.345
80290SOL     OW42701   8.798  13.558   3.266
80290SOL    HW142702   8.864  13.625   3.249
80290SOL    HW242703   8.718  13.608   3.285
80291SOL     OW42704  10.395   7.085   0.717
80291SOL    HW142705  10.396   6.990   0.721
80291SOL    HW242706  10.322   7.106   0.659
80292SOL     OW42707   5.205   2.265   7.008
80292SOL    HW142708   5.119   2.304   7.023
80292SOL    HW242709   5.228   2.289   6.918
80293SOL     OW42710  14.511  13.761   7.114
80293SOL    HW142711  14.553  13.769   7.199
80293SOL    HW242712  14.530  13.671   7.086
80294SOL     OW42713  11.052   3.516   3.238
80294SOL    HW142714  11.112   3.545   3.306
80294SOL    HW242715  11.045   3.421   3.252
80295SOL     OW42716   6.546  10.313   9.663
80295SOL    HW142717   6.521  10.281   9.750
80295SOL    HW242718   6.464  10.320   9.615
80296SOL     OW42719   8.495  14.638  11.829
80296SOL    HW142720   8.569  14.624  11.770
80296SOL    HW242721   8.424  14.585  11.792
80297SOL     OW42722   1.473   5.053  11.936
80297SOL    HW142723   1.413   5.002  11.991
80297SOL    HW242724   1.464   5.015  11.848
80298SOL     OW42725   3.913  11.306   0.500
80298SOL    HW142726   3.819  11.318   0.512
80298SOL    HW242727   3.920  11.258   0.418
80299SOL     OW42728  10.380   1.718   9.700
80299SOL    HW142729  10.386   1.629   9.665
80299SOL    HW242730  10.288   1.741   9.693
80300SOL     OW42731   7.091  13.820   1.112
80300SOL    HW142732   7.177  13.786   1.137
80300SOL    HW242733   7.029  13.770   1.166
80301SOL     OW42734   9.185   1.173  12.969
80301SOL    HW142735   9.249   1.233  12.932
80301SOL    HW242736   9.165   1.112  12.898
80302SOL     OW42737   2.023  10.852   8.463
80302SOL    HW142738   2.047  10.895   8.545
80302SOL    HW242739   2.105  10.821   8.426
80303SOL     OW42740  10.569   7.738   9.709
80303SOL    HW142741  10.554   7.830   9.689
80303SOL    HW242742  10.570   7.735   9.805
80304SOL     OW42743   8.452  13.185   7.230
80304SOL    HW142744   8.478  13.244   7.301
80304SOL    HW242745   8.393  13.123   7.271
80305SOL     OW42746   9.291   0.872   0.337
80305SOL    HW142747   9.256   0.807   0.397
80305SOL    HW242748   9.373   0.834   0.306
80306SOL     OW42749   0.891   4.353  11.290
80306SOL    HW142750   0.891   4.414  11.363
80306SOL    HW242751   0.807   4.309  11.296
80307SOL     OW42752   9.396   6.977   9.095
80307SOL    HW142753   9.316   6.938   9.132
80307SOL    HW242754   9.419   7.046   9.157
80308SOL     OW42755   1.237   1.203   3.603
80308SOL    HW142756   1.308   1.266   3.590
80308SOL    HW242757   1.181   1.214   3.526
80309SOL     OW42758   5.243   0.918   2.776
80309SOL    HW142759   5.266   0.893   2.865
80309SOL    HW242760   5.321   0.898   2.724
80310SOL     OW42761   6.038   6.610   5.348
80310SOL    HW142762   6.029   6.674   5.419
80310SOL    HW242763   5.985   6.536   5.375
80311SOL     OW42764  13.295  10.838   4.595
80311SOL    HW142765  13.345  10.761   4.569
80311SOL    HW242766  13.340  10.872   4.672
80312SOL     OW42767   8.011  11.686   3.014
80312SOL    HW142768   8.014  11.782   3.019
80312SOL    HW242769   8.102  11.660   3.004
80313SOL     OW42770   9.963   2.455  11.566
80313SOL    HW142771  10.031   2.515  11.534
80313SOL    HW242772   9.886   2.510  11.580
80314SOL     OW42773   7.446   1.895   6.950
80314SOL    HW142774   7.351   1.894   6.935
80314SOL    HW242775   7.457   1.844   7.030
80315SOL     OW42776   5.109  13.944  10.397
80315SOL    HW142777   5.051  13.871  10.375
80315SOL    HW242778   5.182  13.937  10.335
80316SOL     OW42779   1.042   8.583   1.378
80316SOL    HW142780   1.039   8.537   1.461
80316SOL    HW242781   1.031   8.515   1.312
80317SOL     OW42782  10.941  10.542   9.080
80317SOL    HW142783  11.018  10.488   9.059
80317SOL    HW242784  10.882  10.529   9.006
80318SOL     OW42785   4.646   2.038  10.870
80318SOL    HW142786   4.723   2.091  10.894
80318SOL    HW242787   4.683   1.967  10.817
80319SOL     OW42788  14.455   2.265   0.836
80319SOL    HW142789  14.445   2.178   0.797
80319SOL    HW242790  14.381   2.274   0.896
80320SOL     OW42791   1.411   5.641   9.491
80320SOL    HW142792   1.440   5.666   9.403
80320SOL    HW242793   1.446   5.553   9.503
80321SOL     OW42794  11.473   9.741   0.704
80321SOL    HW142795  11.412   9.792   0.757
80321SOL    HW242796  11.558   9.755   0.746
80322SOL     OW42797   8.879   6.825  13.105
80322SOL    HW142798   8.940   6.846  13.034
80322SOL    HW242799   8.820   6.900  13.109
80323SOL     OW42800   5.380  11.438   7.580
80323SOL    HW142801   5.353  11.527   7.602
80323SOL    HW242802   5.476  11.442   7.580
80324SOL     OW42803  13.147   9.270   0.345
80324SOL    HW142804  13.088   9.253   0.418
80324SOL    HW242805  13.200   9.344   0.374
80325SOL     OW42806  10.843   9.993   8.788
80325SOL    HW142807  10.800  10.049   8.853
80325SOL    HW242808  10.914  10.047   8.753
80326SOL     OW42809   1.581   3.351   0.378
80326SOL    HW142810   1.654   3.351   0.315
80326SOL    HW242811   1.612   3.408   0.449
80327SOL     OW42812  10.180   7.760   0.532
80327SOL    HW142813  10.254   7.711   0.565
80327SOL    HW242814  10.125   7.695   0.488
80328SOL     OW42815   8.464  12.132   7.530
80328SOL    HW142816   8.439  12.089   7.448
80328SOL    HW242817   8.482  12.059   7.590
80329SOL     OW42818   9.639   9.697   7.550
80329SOL    HW142819   9.705   9.766   7.557
80329SOL    HW242820   9.668   9.630   7.612
80330SOL     OW42821   2.367   1.885  10.951
80330SOL    HW142822   2.441   1.844  10.997
80330SOL    HW242823   2.290   1.846  10.992
80331SOL     OW42824  10.763  13.770   5.296
80331SOL    HW142825  10.671  13.757   5.273
80331SOL    HW242826  10.774  13.866   5.299
80332SOL     OW42827   1.500   8.493   0.586
80332SOL    HW142828   1.445   8.421   0.556
80332SOL    HW242829   1.578   8.450   0.622
80333SOL     OW42830   0.122   6.720   9.037
80333SOL    HW142831   0.218   6.713   9.039
80333SOL    HW242832   0.098   6.693   8.948
80334SOL     OW42833   9.752   7.023   3.285
80334SOL    HW142834   9.769   7.020   3.379
80334SOL    HW242835   9.659   7.004   3.275
80335SOL     OW42836   8.127   0.280   5.871
80335SOL    HW142837   8.132   0.237   5.786
80335SOL    HW242838   8.087   0.365   5.853
80336SOL     OW42839  14.018  14.444   7.099
80336SOL    HW142840  13.942  14.502   7.099
80336SOL    HW242841  14.036  14.428   7.007
80337SOL     OW42842   9.864   1.041  11.428
80337SOL    HW142843   9.850   1.006  11.339
80337SOL    HW242844   9.896   1.130  11.414
80338SOL     OW42845   2.518  12.677   0.798
80338SOL    HW142846   2.494  12.634   0.880
80338SOL    HW242847   2.450  12.744   0.785
80339SOL     OW42848   1.973   0.204   0.444
80339SOL    HW142849   2.055   0.223   0.489
80339SOL    HW242850   1.998   0.145   0.372
80340SOL     OW42851   1.576   3.545  12.670
80340SOL    HW142852   1.492   3.591  12.664
80340SOL    HW242853   1.590   3.511  12.581
80341SOL     OW42854   6.130  13.860   5.503
80341SOL    HW142855   6.150  13.791   5.567
80341SOL    HW242856   6.215  13.885   5.468
80342SOL     OW42857  13.720   8.850  12.163
80342SOL    HW142858  13.669   8.777  12.199
80342SOL    HW242859  13.655   8.916  12.140
80343SOL     OW42860  10.988   5.019   7.343
80343SOL    HW142861  11.014   5.007   7.434
80343SOL    HW242862  10.906   4.969   7.334
80344SOL     OW42863  14.301   1.401  11.618
80344SOL    HW142864  14.331   1.491  11.617
80344SOL    HW242865  14.210   1.406  11.648
80345SOL     OW42866  14.517   5.103  12.598
80345SOL    HW142867  14.492   5.097  12.506
80345SOL    HW242868  14.612   5.114  12.596
80346SOL     OW42869   9.215   7.509   3.719
80346SOL    HW142870   9.141   7.525   3.661
80346SOL    HW242871   9.250   7.596   3.738
80347SOL     OW42872  10.664  11.443   4.946
80347SOL    HW142873  10.660  11.528   4.988
80347SOL    HW242874  10.629  11.382   5.011
80348SOL     OW42875  14.697   9.537   6.330
80348SOL    HW142876  14.632   9.602   6.303
80348SOL    HW242877  14.646   9.467   6.370
80349SOL     OW42878  10.793   3.904   6.336
80349SOL    HW142879  10.865   3.923   6.397
80349SOL    HW242880  10.815   3.953   6.257
80350SOL     OW42881  14.202   8.962  11.771
80350SOL    HW142882  14.146   9.022  11.723
80350SOL    HW242883  14.288   9.005  11.772
80351SOL     OW42884  13.140   8.562  12.264
80351SOL    HW142885  13.192   8.570  12.184
80351SOL    HW242886  13.182   8.493  12.314
80352SOL     OW42887   3.036  11.454   1.857
80352SOL    HW142888   3.021  11.533   1.910
80352SOL    HW242889   2.948  11.418   1.845
80353SOL     OW42890   6.931   4.643   1.108
80353SOL    HW142891   7.021   4.610   1.112
80353SOL    HW242892   6.932   4.722   1.163
80354SOL     OW42893   6.992   9.666   6.481
80354SOL    HW142894   7.046   9.631   6.411
80354SOL    HW242895   6.920   9.605   6.490
80355SOL     OW42896   0.561   3.402   6.065
80355SOL    HW142897   0.493   3.373   6.126
80355SOL    HW242898   0.643   3.384   6.110
80356SOL     OW42899   3.132   8.720   3.153
80356SOL    HW142900   3.216   8.708   3.109
80356SOL    HW242901   3.115   8.637   3.196
80357SOL     OW42902   3.537   9.608   0.307
80357SOL    HW142903   3.538   9.515   0.284
80357SOL    HW242904   3.604   9.617   0.374
80358SOL     OW42905   8.929   2.730   7.911
80358SOL    HW142906   8.915   2.823   7.891
80358SOL    HW242907   9.008   2.707   7.863
80359SOL     OW42908  10.926  10.081  11.879
80359SOL    HW142909  10.935  10.137  11.956
80359SOL    HW242910  10.965   9.998  11.906
80360SOL     OW42911  11.198   8.754   2.331
80360SOL    HW142912  11.161   8.816   2.269
80360SOL    HW242913  11.287   8.786   2.348
80361SOL     OW42914   1.977   6.545   4.048
80361SOL    HW142915   1.909   6.572   3.986
80361SOL    HW242916   1.929   6.510   4.123
80362SOL     OW42917  12.045   1.414   5.580
80362SOL    HW142918  12.139   1.398   5.577
80362SOL    HW242919  12.010   1.367   5.504
80363SOL     OW42920   0.464   6.399  10.332
80363SOL    HW142921   0.487   6.488  10.307
80363SOL    HW242922   0.483   6.395  10.426
80364SOL     OW42923   0.946  14.286  14.674
80364SOL    HW142924   0.938  14.377  14.644
80364SOL    HW242925   1.028  14.256  14.636
80365SOL     OW42926   4.557  12.329   6.543
80365SOL    HW142927   4.627  12.383   6.506
80365SOL    HW242928   4.591  12.301   6.628
80366SOL     OW42929   1.922   2.195  14.667
80366SOL    HW142930   1.979   2.124  14.698
80366SOL    HW242931   1.895   2.167  14.579
80367SOL     OW42932   9.495   5.027  13.433
80367SOL    HW142933   9.538   5.112  13.446
80367SOL    HW242934   9.430   5.043  13.364
80368SOL     OW42935  13.240  10.034  14.049
80368SOL    HW142936  13.240   9.961  14.110
80368SOL    HW242937  13.153  10.032  14.008
80369SOL     OW42938   0.168  10.248   2.837
80369SOL    HW142939   0.145  10.234   2.745
80369SOL    HW242940   0.188  10.342   2.843
80370SOL     OW42941   4.539   6.724   4.114
80370SOL    HW142942   4.503   6.636   4.104
80370SOL    HW242943   4.500   6.775   4.043
80371SOL     OW42944  12.780  12.590  12.135
80371SOL    HW142945  12.777  12.684  12.117
80371SOL    HW242946  12.704  12.554  12.090
80372SOL     OW42947   2.100   1.289   1.553
80372SOL    HW142948   2.135   1.370   1.516
80372SOL    HW242949   2.009   1.288   1.524
80373SOL     OW42950   6.385   3.358  10.647
80373SOL    HW142951   6.350   3.441  10.614
80373SOL    HW242952   6.345   3.292  10.591
80374SOL     OW42953   1.036   9.750  10.934
80374SOL    HW142954   0.977   9.687  10.975
80374SOL    HW242955   0.983   9.828  10.921
80375SOL     OW42956   2.565   2.815   0.345
80375SOL    HW142957   2.548   2.723   0.324
80375SOL    HW242958   2.660   2.822   0.346
80376SOL     OW42959   6.927   9.315  14.339
80376SOL    HW142960   6.890   9.275  14.260
80376SOL    HW242961   6.896   9.260  14.411
80377SOL     OW42962   4.898   2.202   6.925
80377SOL    HW142963   4.932   2.156   6.848
80377SOL    HW242964   4.864   2.284   6.890
80378SOL     OW42965   2.756   4.853   7.140
80378SOL    HW142966   2.718   4.774   7.177
80378SOL    HW242967   2.850   4.836   7.137
80379SOL     OW42968   0.041  13.846  14.625
80379SOL    HW142969  14.852  13.792  14.581
80379SOL    HW242970   0.001  13.933  14.629
80380SOL     OW42971  11.503   9.788   7.851
80380SOL    HW142972  11.515   9.714   7.911
80380SOL    HW242973  11.589   9.800   7.811
80381SOL     OW42974  12.390  11.898   6.595
80381SOL    HW142975  12.312  11.949   6.620
80381SOL    HW242976  12.358  11.838   6.527
80382SOL     OW42977  12.171   3.332   4.055
80382SOL    HW142978  12.097   3.278   4.085
80382SOL    HW242979  12.132   3.417   4.036
80383SOL     OW42980  11.566  10.458   5.683
80383SOL    HW142981  11.509  10.535   5.694
80383SOL    HW242982  11.645  10.479   5.733
80384SOL     OW42983  14.840   0.895  11.993
80384SOL    HW142984  14.810   0.972  11.944
80384SOL    HW242985  14.778   0.826  11.970
80385SOL     OW42986   6.119   2.582   1.470
80385SOL    HW142987   6.090   2.503   1.425
80385SOL    HW242988   6.184   2.552   1.533
80386SOL     OW42989   3.691  10.134  12.966
80386SOL    HW142990   3.634  10.057  12.962
80386SOL    HW242991   3.634  10.207  12.942
80387SOL     OW42992  14.791  12.586  13.833
80387SOL    HW142993  14.729  12.531  13.880
80387SOL    HW242994  14.867  12.592  13.891
80388SOL     OW42995   7.887  14.454   9.487
80388SOL    HW142996   7.840  14.537   9.499
80388SOL    HW242997   7.850  14.397   9.554
80389SOL     OW42998   7.084   5.518   2.249
80389SOL    HW142999   6.995   5.530   2.216
80389SOL    HW243000   7.079   5.439   2.303
80390SOL     OW43001   1.038   3.660  10.490
80390SOL    HW143002   0.948   3.635  10.472
80390SOL    HW243003   1.031   3.740  10.543
80391SOL     OW43004  11.704   7.394   6.431
80391SOL    HW143005  11.673   7.320   6.483
80391SOL    HW243006  11.689   7.470   6.487
80392SOL     OW43007   5.001  12.756   2.697
80392SOL    HW143008   5.027  12.830   2.752
80392SOL    HW243009   4.918  12.784   2.658
80393SOL     OW43010   1.362  13.836   6.703
80393SOL    HW143011   1.399  13.790   6.779
80393SOL    HW243012   1.374  13.775   6.630
80394SOL     OW43013   6.091   4.620  14.803
80394SOL    HW143014   6.074   4.581  14.717
80394SOL    HW243015   6.095   4.714  14.786
80395SOL     OW43016   4.581  11.846   8.551
80395SOL    HW143017   4.537  11.884   8.475
80395SOL    HW243018   4.576  11.915   8.618
80396SOL     OW43019   8.129   5.538   3.557
80396SOL    HW143020   8.216   5.572   3.577
80396SOL    HW243021   8.143   5.444   3.542
80397SOL     OW43022  10.895  10.866   8.755
80397SOL    HW143023  10.864  10.813   8.682
80397SOL    HW243024  10.923  10.948   8.716
80398SOL     OW43025  10.421   5.635  12.354
80398SOL    HW143026  10.395   5.727  12.360
80398SOL    HW243027  10.420   5.604  12.445
80399SOL     OW43028  12.565  10.597  12.731
80399SOL    HW143029  12.638  10.574  12.673
80399SOL    HW243030  12.528  10.512  12.757
80400SOL     OW43031   9.988  12.830   5.184
80400SOL    HW143032  10.066  12.778   5.166
80400SOL    HW243033   9.992  12.902   5.122
80401SOL     OW43034   0.201   9.572  10.500
80401SOL    HW143035   0.238   9.546  10.416
80401SOL    HW243036   0.217   9.497  10.557
80402SOL     OW43037   1.453   7.788   0.182
80402SOL    HW143038   1.498   7.867   0.153
80402SOL    HW243039   1.524   7.727   0.204
80403SOL     OW43040   0.942   6.228   4.846
80403SOL    HW143041   0.944   6.314   4.803
80403SOL    HW243042   0.955   6.248   4.939
80404SOL     OW43043   0.975   8.620   7.593
80404SOL    HW143044   0.912   8.549   7.607
80404SOL    HW243045   0.976   8.633   7.498
80405SOL     OW43046  14.770   3.119  13.443
80405SOL    HW143047  14.864   3.108  13.456
80405SOL    HW243048  14.762   3.201  13.394
80406SOL     OW43049   3.558   3.250   4.473
80406SOL    HW143050   3.525   3.168   4.511
80406SOL    HW243051   3.633   3.224   4.421
80407SOL     OW43052   1.091   2.238   6.802
80407SOL    HW143053   1.072   2.158   6.755
80407SOL    HW243054   1.035   2.304   6.761
80408SOL     OW43055   6.098   9.025   9.055
80408SOL    HW143056   6.117   9.007   8.963
80408SOL    HW243057   6.182   9.055   9.091
80409SOL     OW43058   5.009   9.300   4.797
80409SOL    HW143059   5.000   9.375   4.856
80409SOL    HW243060   5.077   9.327   4.735
80410SOL     OW43061   1.497   5.334  11.965
80410SOL    HW143062   1.408   5.354  11.937
80410SOL    HW243063   1.494   5.241  11.989
80411SOL     OW43064   4.763   4.823  11.663
80411SOL    HW143065   4.689   4.793  11.610
80411SOL    HW243066   4.765   4.917  11.651
80412SOL     OW43067  13.374   7.212   1.827
80412SOL    HW143068  13.345   7.265   1.901
80412SOL    HW243069  13.469   7.202   1.840
80413SOL     OW43070   6.522  11.491  10.545
80413SOL    HW143071   6.462  11.436  10.495
80413SOL    HW243072   6.609  11.461  10.520
80414SOL     OW43073  14.657   9.151  12.643
80414SOL    HW143074  14.752   9.143  12.643
80414SOL    HW243075  14.630   9.115  12.728
80415SOL     OW43076  11.871   2.241   7.968
80415SOL    HW143077  11.833   2.212   8.051
80415SOL    HW243078  11.836   2.328   7.955
80416SOL     OW43079   0.806   1.081   4.743
80416SOL    HW143080   0.886   1.063   4.694
80416SOL    HW243081   0.737   1.082   4.676
80417SOL     OW43082   5.461   1.531   1.586
80417SOL    HW143083   5.539   1.541   1.640
80417SOL    HW243084   5.438   1.620   1.561
80418SOL     OW43085  12.822   7.366  12.272
80418SOL    HW143086  12.901   7.409  12.240
80418SOL    HW243087  12.796   7.307  12.202
80419SOL     OW43088  11.989  12.792   9.965
80419SOL    HW143089  11.933  12.780   9.889
80419SOL    HW243090  11.958  12.727  10.029
80420SOL     OW43091  10.897  12.620   7.488
80420SOL    HW143092  10.831  12.566   7.531
80420SOL    HW243093  10.876  12.614   7.394
80421SOL     OW43094   1.570  14.763   5.323
80421SOL    HW143095   1.522  14.698   5.375
80421SOL    HW243096   1.623  14.711   5.263
80422SOL     OW43097   1.438   7.365  10.215
80422SOL    HW143098   1.370   7.363  10.148
80422SOL    HW243099   1.390   7.377  10.297
80423SOL     OW43100   9.824  14.797   1.716
80423SOL    HW143101   9.856  14.741   1.787
80423SOL    HW243102   9.887  14.784   1.645
80424SOL     OW43103   7.138   0.591   8.743
80424SOL    HW143104   7.068   0.643   8.783
80424SOL    HW243105   7.138   0.619   8.651
80425SOL     OW43106  12.385  13.837  11.707
80425SOL    HW143107  12.362  13.895  11.634
80425SOL    HW243108  12.403  13.752  11.666
80426SOL     OW43109  10.437  13.718   8.504
80426SOL    HW143110  10.521  13.761   8.488
80426SOL    HW243111  10.393  13.775   8.567
80427SOL     OW43112  11.503   1.294  14.581
80427SOL    HW143113  11.450   1.374  14.578
80427SOL    HW243114  11.490   1.254  14.495
80428SOL     OW43115   9.983  12.273   2.542
80428SOL    HW143116   9.958  12.261   2.634
80428SOL    HW243117  10.017  12.187   2.516
80429SOL     OW43118  10.362   9.413   1.193
80429SOL    HW143119  10.424   9.458   1.136
80429SOL    HW243120  10.315   9.352   1.136
80430SOL     OW43121  12.122   9.782   3.062
80430SOL    HW143122  12.111   9.849   2.995
80430SOL    HW243123  12.193   9.727   3.030
80431SOL     OW43124  11.549  13.616   7.410
80431SOL    HW143125  11.556  13.523   7.389
80431SOL    HW243126  11.464  13.626   7.451
80432SOL     OW43127   5.028   4.010   8.391
80432SOL    HW143128   5.010   4.033   8.300
80432SOL    HW243129   5.004   4.088   8.441
80433SOL     OW43130   4.301  14.580   5.784
80433SOL    HW143131   4.318  14.646   5.852
80433SOL    HW243132   4.348  14.502   5.814
80434SOL     OW43133  12.354  13.025  13.880
80434SOL    HW143134  12.285  13.070  13.928
80434SOL    HW243135  12.312  12.998  13.798
80435SOL     OW43136   1.074   8.956   9.496
80435SOL    HW143137   1.064   9.032   9.554
80435SOL    HW243138   1.001   8.899   9.518
80436SOL     OW43139   0.184   6.174   6.409
80436SOL    HW143140   0.255   6.214   6.359
80436SOL    HW243141   0.227   6.134   6.484
80437SOL     OW43142   7.427   4.659   3.542
80437SOL    HW143143   7.467   4.605   3.611
80437SOL    HW243144   7.472   4.743   3.548
80438SOL     OW43145  14.013  10.942  12.040
80438SOL    HW143146  13.996  10.998  11.965
80438SOL    HW243147  13.970  10.859  12.018
80439SOL     OW43148   9.504  11.248   1.931
80439SOL    HW143149   9.409  11.246   1.920
80439SOL    HW243150   9.539  11.249   1.842
80440SOL     OW43151  12.281   1.624   5.961
80440SOL    HW143152  12.211   1.559   5.963
80440SOL    HW243153  12.354   1.582   6.006
80441SOL     OW43154  11.431   0.947   0.647
80441SOL    HW143155  11.454   0.868   0.696
80441SOL    HW243156  11.478   1.018   0.690
80442SOL     OW43157  10.799  14.355   7.042
80442SOL    HW143158  10.773  14.441   7.009
80442SOL    HW243159  10.801  14.299   6.965
80443SOL     OW43160  10.543   2.248  13.745
80443SOL    HW143161  10.632   2.212  13.737
80443SOL    HW243162  10.508   2.244  13.656
80444SOL     OW43163  11.770   7.986   1.132
80444SOL    HW143164  11.854   7.944   1.113
80444SOL    HW243165  11.789   8.080   1.127
80445SOL     OW43166  14.309  12.341  10.419
80445SOL    HW143167  14.257  12.270  10.456
80445SOL    HW243168  14.393  12.301  10.398
80446SOL     OW43169   8.127   7.368   2.782
80446SOL    HW143170   8.115   7.444   2.725
80446SOL    HW243171   8.178   7.306   2.730
80447SOL     OW43172   8.297   0.853   8.571
80447SOL    HW143173   8.274   0.760   8.571
80447SOL    HW243174   8.268   0.885   8.656
80448SOL     OW43175   8.387   4.456   4.042
80448SOL    HW143176   8.341   4.513   3.981
80448SOL    HW243177   8.387   4.504   4.125
80449SOL     OW43178   6.270   2.775  12.688
80449SOL    HW143179   6.357   2.795  12.723
80449SOL    HW243180   6.268   2.680  12.682
80450SOL     OW43181   0.503   0.204  11.214
80450SOL    HW143182   0.422   0.207  11.266
80450SOL    HW243183   0.472   0.205  11.123
80451SOL     OW43184   1.358   9.484   0.626
80451SOL    HW143185   1.290   9.425   0.660
80451SOL    HW243186   1.310   9.565   0.606
80452SOL     OW43187  12.959   7.241   7.284
80452SOL    HW143188  12.961   7.165   7.343
80452SOL    HW243189  12.921   7.311   7.337
80453SOL     OW43190   2.048   8.738  11.218
80453SOL    HW143191   2.016   8.661  11.266
80453SOL    HW243192   2.101   8.701  11.147
80454SOL     OW43193  11.006   7.660   6.527
80454SOL    HW143194  11.035   7.692   6.442
80454SOL    HW243195  11.015   7.735   6.586
80455SOL     OW43196   4.044   4.162   8.009
80455SOL    HW143197   4.091   4.152   7.927
80455SOL    HW243198   4.107   4.135   8.076
80456SOL     OW43199   1.936  13.888   2.576
80456SOL    HW143200   2.006  13.830   2.547
80456SOL    HW243201   1.954  13.901   2.669
80457SOL     OW43202  13.603  13.069   3.653
80457SOL    HW143203  13.563  13.021   3.580
80457SOL    HW243204  13.628  13.001   3.715
80458SOL     OW43205   8.827   4.164   8.339
80458SOL    HW143206   8.772   4.086   8.341
80458SOL    HW243207   8.852   4.173   8.247
80459SOL     OW43208  10.414  10.432   7.198
80459SOL    HW143209  10.429  10.373   7.272
80459SOL    HW243210  10.490  10.490   7.197
80460SOL     OW43211  13.147   4.677   1.317
80460SOL    HW143212  13.211   4.673   1.389
80460SOL    HW243213  13.069   4.713   1.358
80461SOL     OW43214   9.911  11.397  12.637
80461SOL    HW143215   9.832  11.353  12.669
80461SOL    HW243216   9.881  11.453  12.566
80462SOL     OW43217   1.179  14.270  13.347
80462SOL    HW143218   1.168  14.183  13.308
80462SOL    HW243219   1.189  14.254  13.441
80463SOL     OW43220   5.997   9.273   8.875
80463SOL    HW143221   5.927   9.265   8.939
80463SOL    HW243222   6.009   9.184   8.842
80464SOL     OW43223  10.901   3.959   1.614
80464SOL    HW143224  10.993   3.984   1.619
80464SOL    HW243225  10.875   3.980   1.524
80465SOL     OW43226   6.380   9.275   7.623
80465SOL    HW143227   6.383   9.182   7.603
80465SOL    HW243228   6.448   9.288   7.689
80466SOL     OW43229  12.324   9.042   3.987
80466SOL    HW143230  12.391   9.023   4.052
80466SOL    HW243231  12.291   8.956   3.961
80467SOL     OW43232  11.211  10.399  12.971
80467SOL    HW143233  11.282  10.335  12.966
80467SOL    HW243234  11.247  10.477  12.928
80468SOL     OW43235   1.671   4.355  10.543
80468SOL    HW143236   1.690   4.358  10.637
80468SOL    HW243237   1.674   4.447  10.515
80469SOL     OW43238   9.297   1.794   4.141
80469SOL    HW143239   9.322   1.704   4.165
80469SOL    HW243240   9.272   1.788   4.049
80470SOL     OW43241   3.882   1.673  14.873
80470SOL    HW143242   3.824   1.632  14.810
80470SOL    HW243243   3.968   1.675  14.830
80471SOL     OW43244  10.920  14.290   1.293
80471SOL    HW143245  10.860  14.241   1.350
80471SOL    HW243246  10.982  14.224   1.261
80472SOL     OW43247   7.521   8.958   9.576
80472SOL    HW143248   7.471   8.889   9.620
80472SOL    HW243249   7.489   8.957   9.486
80473SOL     OW43250   7.553  11.083   2.081
80473SOL    HW143251   7.482  11.144   2.060
80473SOL    HW243252   7.525  11.001   2.042
80474SOL     OW43253   4.452  10.698   1.733
80474SOL    HW143254   4.493  10.784   1.727
80474SOL    HW243255   4.369  10.714   1.778
80475SOL     OW43256   4.996  10.744  14.185
80475SOL    HW143257   4.987  10.764  14.279
80475SOL    HW243258   4.924  10.682  14.168
80476SOL     OW43259  10.673   4.548  11.862
80476SOL    HW143260  10.749   4.491  11.851
80476SOL    HW243261  10.688   4.621  11.801
80477SOL     OW43262  11.357   6.631   4.042
80477SOL    HW143263  11.438   6.607   4.089
80477SOL    HW243264  11.291   6.639   4.111
80478SOL     OW43265   9.490   2.034  12.861
80478SOL    HW143266   9.450   2.009  12.944
80478SOL    HW243267   9.438   1.989  12.795
80479SOL     OW43268   8.237   2.997   7.469
80479SOL    HW143269   8.167   3.014   7.532
80479SOL    HW243270   8.318   3.015   7.518
80480SOL     OW43271   9.688   5.541  14.146
80480SOL    HW143272   9.759   5.571  14.090
80480SOL    HW243273   9.616   5.522  14.086
80481SOL     OW43274   7.075  13.265   2.380
80481SOL    HW143275   7.016  13.242   2.309
80481SOL    HW243276   7.069  13.191   2.441
80482SOL     OW43277  12.866  11.554   8.615
80482SOL    HW143278  12.805  11.590   8.551
80482SOL    HW243279  12.874  11.621   8.682
80483SOL     OW43280  14.002  11.284  13.135
80483SOL    HW143281  14.064  11.218  13.105
80483SOL    HW243282  13.918  11.237  13.141
80484SOL     OW43283   6.326   2.229   4.761
80484SOL    HW143284   6.350   2.220   4.853
80484SOL    HW243285   6.291   2.318   4.754
80485SOL     OW43286   7.098   4.863   0.979
80485SOL    HW143287   7.189   4.845   1.002
80485SOL    HW243288   7.049   4.840   1.058
80486SOL     OW43289   0.418  10.351  12.835
80486SOL    HW143290   0.473  10.423  12.805
80486SOL    HW243291   0.439  10.278  12.776
80487SOL     OW43292   0.927   9.785   9.034
80487SOL    HW143293   0.940   9.693   9.013
80487SOL    HW243294   0.933   9.790   9.129
80488SOL     OW43295  13.160  14.253   5.995
80488SOL    HW143296  13.171  14.305   5.916
80488SOL    HW243297  13.248  14.221   6.015
80489SOL     OW43298   0.026   1.178   6.841
80489SOL    HW143299   0.028   1.090   6.803
80489SOL    HW243300  14.837   1.173   6.911
80490SOL     OW43301   1.033   1.058   1.935
80490SOL    HW143302   1.002   1.066   2.025
80490SOL    HW243303   1.127   1.040   1.944
80491SOL     OW43304   7.148   5.521  13.955
80491SOL    HW143305   7.227   5.487  13.912
80491SOL    HW243306   7.156   5.616  13.949
80492SOL     OW43307  13.273   8.824   3.856
80492SOL    HW143308  13.219   8.747   3.841
80492SOL    HW243309  13.218   8.898   3.831
80493SOL     OW43310  12.130   5.638   8.960
80493SOL    HW143311  12.066   5.710   8.961
80493SOL    HW243312  12.210   5.678   8.927
80494SOL     OW43313  12.328   8.943   2.887
80494SOL    HW143314  12.384   9.000   2.940
80494SOL    HW243315  12.239   8.973   2.906
80495SOL     OW43316   9.914   4.164   4.806
80495SOL    HW143317   9.996   4.162   4.757
80495SOL    HW243318   9.931   4.223   4.879
80496SOL     OW43319   2.851   1.390  13.524
80496SOL    HW143320   2.830   1.446  13.450
80496SOL    HW243321   2.936   1.352  13.502
80497SOL     OW43322  10.312   9.544  11.322
80497SOL    HW143323  10.404   9.553  11.299
80497SOL    HW243324  10.299   9.604  11.396
80498SOL     OW43325   7.489   3.067  10.166
80498SOL    HW143326   7.521   3.074  10.256
80498SOL    HW243327   7.565   3.089  10.112
80499SOL     OW43328   2.571   4.648   7.497
80499SOL    HW143329   2.478   4.627   7.491
80499SOL    HW243330   2.574   4.731   7.544
80500SOL     OW43331  10.190   6.973  14.022
80500SOL    HW143332  10.119   7.036  14.031
80500SOL    HW243333  10.250   6.993  14.094
80501SOL     OW43334   9.942   1.359   3.811
80501SOL    HW143335   9.909   1.359   3.901
80501SOL    HW243336  10.037   1.365   3.820
80502SOL     OW43337   8.069   2.740  14.683
80502SOL    HW143338   8.130   2.667  14.677
80502SOL    HW243339   7.983   2.701  14.667
80503SOL     OW43340   7.564  11.843   4.022
80503SOL    HW143341   7.533  11.920   4.070
80503SOL    HW243342   7.507  11.772   4.052
80504SOL     OW43343   9.374  13.324   8.525
80504SOL    HW143344   9.280  13.309   8.518
80504SOL    HW243345   9.406  13.251   8.578
80505SOL     OW43346  13.197   4.102   5.123
80505SOL    HW143347  13.167   4.060   5.042
80505SOL    HW243348  13.117   4.138   5.162
80506SOL     OW43349  14.488   4.122   4.342
80506SOL    HW143350  14.464   4.054   4.278
80506SOL    HW243351  14.549   4.077   4.401
80507SOL     OW43352  12.286   6.489  12.873
80507SOL    HW143353  12.325   6.509  12.958
80507SOL    HW243354  12.308   6.396  12.858
80508SOL     OW43355   9.707   7.821  11.453
80508SOL    HW143356   9.703   7.737  11.498
80508SOL    HW243357   9.695   7.799  11.361
80509SOL     OW43358   4.763   9.120  11.578
80509SOL    HW143359   4.796   9.030  11.579
80509SOL    HW243360   4.836   9.172  11.546
80510SOL     OW43361  10.993  13.963  10.053
80510SOL    HW143362  10.937  13.945  10.129
80510SOL    HW243363  11.054  13.889  10.049
80511SOL     OW43364  12.238   5.157  11.891
80511SOL    HW143365  12.176   5.086  11.907
80511SOL    HW243366  12.183   5.232  11.867
80512SOL     OW43367   3.519   6.846  14.401
80512SOL    HW143368   3.594   6.858  14.458
80512SOL    HW243369   3.551   6.866  14.313
80513SOL     OW43370  11.475   9.020   6.410
80513SOL    HW143371  11.484   9.051   6.320
80513SOL    HW243372  11.400   8.961   6.408
80514SOL     OW43373   0.590   0.699  12.304
80514SOL    HW143374   0.528   0.702  12.230
80514SOL    HW243375   0.567   0.619  12.351
80515SOL     OW43376  12.693  10.854  11.681
80515SOL    HW143377  12.714  10.775  11.732
80515SOL    HW243378  12.778  10.895  11.664
80516SOL     OW43379   3.595   3.115  11.542
80516SOL    HW143380   3.640   3.033  11.521
80516SOL    HW243381   3.650   3.157  11.607
80517SOL     OW43382   1.444   8.139   8.707
80517SOL    HW143383   1.467   8.068   8.647
80517SOL    HW243384   1.350   8.127   8.723
80518SOL     OW43385   5.945   0.135  12.454
80518SOL    HW143386   5.878   0.203  12.460
80518SOL    HW243387   5.923   0.086  12.376
80519SOL     OW43388  13.272   3.151  13.613
80519SOL    HW143389  13.316   3.086  13.558
80519SOL    HW243390  13.184   3.115  13.625
80520SOL     OW43391  10.229   3.622   3.040
80520SOL    HW143392  10.325   3.617   3.033
80520SOL    HW243393  10.205   3.696   2.984
80521SOL     OW43394   7.730  14.500   0.640
80521SOL    HW143395   7.699  14.587   0.615
80521SOL    HW243396   7.707  14.444   0.566
80522SOL     OW43397   5.250   0.155   0.149
80522SOL    HW143398   5.206   0.237   0.168
80522SOL    HW243399   5.333   0.160   0.197
80523SOL     OW43400   1.307  13.590   3.637
80523SOL    HW143401   1.268  13.545   3.711
80523SOL    HW243402   1.256  13.562   3.561
80524SOL     OW43403  11.820   7.075   7.753
80524SOL    HW143404  11.743   7.107   7.706
80524SOL    HW243405  11.799   7.087   7.845
80525SOL     OW43406  13.311   4.914   5.052
80525SOL    HW143407  13.382   4.972   5.026
80525SOL    HW243408  13.238   4.972   5.074
80526SOL     OW43409   0.255   9.470   7.474
80526SOL    HW143410   0.282   9.417   7.549
80526SOL    HW243411   0.293   9.556   7.490
80527SOL     OW43412   7.165   6.695   8.527
80527SOL    HW143413   7.253   6.732   8.536
80527SOL    HW243414   7.139   6.674   8.617
80528SOL     OW43415   5.762   4.894  12.751
80528SOL    HW143416   5.837   4.873  12.807
80528SOL    HW243417   5.779   4.850  12.669
80529SOL     OW43418   3.124  11.276  10.351
80529SOL    HW143419   3.216  11.282  10.322
80529SOL    HW243420   3.126  11.306  10.441
80530SOL     OW43421  14.336   4.938  10.306
80530SOL    HW143422  14.387   4.980  10.237
80530SOL    HW243423  14.372   4.973  10.387
80531SOL     OW43424   0.313   6.376  13.580
80531SOL    HW143425   0.380   6.443  13.596
80531SOL    HW243426   0.238   6.405  13.632
80532SOL     OW43427   0.818   2.135   2.031
80532SOL    HW143428   0.826   2.040   2.039
80532SOL    HW243429   0.770   2.149   1.950
80533SOL     OW43430  12.701   9.436   3.734
80533SOL    HW143431  12.642   9.506   3.763
80533SOL    HW243432  12.684   9.429   3.640
80534SOL     OW43433   1.583   5.189   5.063
80534SOL    HW143434   1.500   5.234   5.046
80534SOL    HW243435   1.623   5.180   4.976
80535SOL     OW43436  12.282   5.049  11.638
80535SOL    HW143437  12.365   5.003  11.644
80535SOL    HW243438  12.279   5.105  11.716
80536SOL     OW43439  14.650   2.935  11.461
80536SOL    HW143440  14.642   2.874  11.387
80536SOL    HW243441  14.743   2.958  11.463
80537SOL     OW43442  10.336   8.855   6.967
80537SOL    HW143443  10.389   8.821   7.040
80537SOL    HW243444  10.265   8.902   7.010
80538SOL     OW43445   2.178  11.392   7.557
80538SOL    HW143446   2.092  11.381   7.517
80538SOL    HW243447   2.170  11.472   7.609
80539SOL     OW43448   8.345  13.236   9.943
80539SOL    HW143449   8.402  13.247   9.867
80539SOL    HW243450   8.391  13.280  10.014
80540SOL     OW43451  13.059  13.012   2.974
80540SOL    HW143452  13.151  13.034   2.960
80540SOL    HW243453  13.020  13.093   3.008
80541SOL     OW43454   0.810   4.382  14.011
80541SOL    HW143455   0.886   4.438  14.026
80541SOL    HW243456   0.756   4.429  13.948
80542SOL     OW43457   8.158   9.591   6.398
80542SOL    HW143458   8.172   9.533   6.323
80542SOL    HW243459   8.104   9.540   6.458
80543SOL     OW43460  10.055  11.949   6.448
80543SOL    HW143461  10.049  11.963   6.542
80543SOL    HW243462  10.059  12.037   6.410
80544SOL     OW43463   5.158  11.480   0.522
80544SOL    HW143464   5.236  11.483   0.467
80544SOL    HW243465   5.096  11.425   0.474
80545SOL     OW43466   5.417   7.236   0.774
80545SOL    HW143467   5.377   7.151   0.790
80545SOL    HW243468   5.365   7.273   0.702
80546SOL     OW43469   5.129   9.516   9.596
80546SOL    HW143470   5.052   9.561   9.561
80546SOL    HW243471   5.118   9.426   9.567
80547SOL     OW43472   0.988   1.393   2.788
80547SOL    HW143473   0.927   1.320   2.791
80547SOL    HW243474   0.994   1.416   2.696
80548SOL     OW43475  10.240   6.185   3.985
80548SOL    HW143476  10.215   6.276   3.976
80548SOL    HW243477  10.323   6.178   3.937
80549SOL     OW43478   2.468  12.049   0.259
80549SOL    HW143479   2.458  11.992   0.335
80549SOL    HW243480   2.403  12.016   0.197
80550SOL     OW43481   6.129   5.162  14.247
80550SOL    HW143482   6.038   5.175  14.274
80550SOL    HW243483   6.173   5.244  14.270
80551SOL     OW43484   0.135   7.689   7.079
80551SOL    HW143485   0.083   7.732   7.011
80551SOL    HW243486   0.099   7.601   7.085
80552SOL     OW43487   6.320  10.384  14.465
80552SOL    HW143488   6.243  10.384  14.522
80552SOL    HW243489   6.345  10.476  14.460
80553SOL     OW43490   0.078   4.413  12.920
80553SOL    HW143491  14.862   4.396  12.942
80553SOL    HW243492   0.126   4.392  13.000
80554SOL     OW43493   0.338  11.550  14.532
80554SOL    HW143494   0.383  11.466  14.518
80554SOL    HW243495   0.392  11.595  14.597
80555SOL     OW43496   3.173  12.573   0.067
80555SOL    HW143497   3.107  12.547   0.131
80555SOL    HW243498   3.240  12.617   0.117
80556SOL     OW43499   1.463  12.142   2.322
80556SOL    HW143500   1.401  12.142   2.250
80556SOL    HW243501   1.472  12.050   2.347
80557SOL     OW43502   6.030   7.451   0.819
80557SOL    HW143503   6.116   7.488   0.837
80557SOL    HW243504   6.046   7.386   0.750
80558SOL     OW43505   6.786  13.104  12.356
80558SOL    HW143506   6.797  13.123  12.448
80558SOL    HW243507   6.697  13.068  12.349
80559SOL     OW43508   5.607   1.085   6.555
80559SOL    HW143509   5.567   1.135   6.484
80559SOL    HW243510   5.627   1.000   6.517
80560SOL     OW43511   3.858   6.077   1.723
80560SOL    HW143512   3.865   6.038   1.636
80560SOL    HW243513   3.902   6.014   1.781
80561SOL     OW43514   8.623   2.204   1.539
80561SOL    HW143515   8.623   2.294   1.506
80561SOL    HW243516   8.587   2.211   1.627
80562SOL     OW43517   9.155   6.827   2.206
80562SOL    HW143518   9.074   6.786   2.238
80562SOL    HW243519   9.150   6.819   2.111
80563SOL     OW43520   9.879   7.205   1.041
80563SOL    HW143521   9.845   7.237   1.125
80563SOL    HW243522   9.906   7.115   1.058
80564SOL     OW43523   6.274  13.175   3.472
80564SOL    HW143524   6.307  13.196   3.560
80564SOL    HW243525   6.247  13.084   3.478
80565SOL     OW43526  13.153   0.715  10.172
80565SOL    HW143527  13.059   0.731  10.162
80565SOL    HW243528  13.177   0.669  10.092
80566SOL     OW43529   9.301  12.127   8.069
80566SOL    HW143530   9.362  12.053   8.070
80566SOL    HW243531   9.330  12.180   7.994
80567SOL     OW43532  10.336   7.499  11.783
80567SOL    HW143533  10.288   7.477  11.862
80567SOL    HW243534  10.423   7.524  11.814
80568SOL     OW43535  11.276  14.475  10.525
80568SOL    HW143536  11.184  14.478  10.550
80568SOL    HW243537  11.277  14.507  10.435
80569SOL     OW43538  12.967   4.629   0.528
80569SOL    HW143539  13.057   4.655   0.548
80569SOL    HW243540  12.954   4.659   0.438
80570SOL     OW43541   9.779   3.121   9.728
80570SOL    HW143542   9.787   3.031   9.758
80570SOL    HW243543   9.767   3.173   9.807
80571SOL     OW43544  12.447   1.778   8.132
80571SOL    HW143545  12.466   1.853   8.077
80571SOL    HW243546  12.446   1.813   8.222
80572SOL     OW43547   1.356   8.255   0.472
80572SOL    HW143548   1.395   8.209   0.398
80572SOL    HW243549   1.403   8.221   0.548
80573SOL     OW43550   3.520  13.862   1.532
80573SOL    HW143551   3.510  13.957   1.533
80573SOL    HW243552   3.525  13.838   1.624
80574SOL     OW43553  12.513   5.164   7.550
80574SOL    HW143554  12.566   5.238   7.519
80574SOL    HW243555  12.440   5.159   7.488
80575SOL     OW43556   8.002   8.239  14.130
80575SOL    HW143557   7.937   8.230  14.200
80575SOL    HW243558   7.979   8.321  14.086
80576SOL     OW43559  11.982  13.226   1.130
80576SOL    HW143560  11.890  13.221   1.101
80576SOL    HW243561  12.002  13.139   1.163
80577SOL     OW43562   4.277   2.633  13.542
80577SOL    HW143563   4.191   2.602  13.571
80577SOL    HW243564   4.263   2.656  13.450
80578SOL     OW43565   5.766   2.189   2.159
80578SOL    HW143566   5.830   2.181   2.230
80578SOL    HW243567   5.699   2.124   2.181
80579SOL     OW43568   4.440   1.388   7.626
80579SOL    HW143569   4.522   1.430   7.654
80579SOL    HW243570   4.388   1.459   7.589
80580SOL     OW43571   8.311   3.018   1.736
80580SOL    HW143572   8.216   3.021   1.728
80580SOL    HW243573   8.329   3.041   1.827
80581SOL     OW43574  10.340  12.467   5.584
80581SOL    HW143575  10.424  12.442   5.544
80581SOL    HW243576  10.320  12.552   5.547
80582SOL     OW43577  11.878   6.725   8.249
80582SOL    HW143578  11.836   6.640   8.238
80582SOL    HW243579  11.900   6.728   8.342
80583SOL     OW43580   1.077  13.616   3.443
80583SOL    HW143581   1.046  13.525   3.441
80583SOL    HW243582   1.012  13.662   3.496
80584SOL     OW43583   5.921   0.594   3.004
80584SOL    HW143584   5.906   0.587   3.098
80584SOL    HW243585   6.014   0.617   2.996
80585SOL     OW43586  14.451  13.428  12.502
80585SOL    HW143587  14.489  13.341  12.492
80585SOL    HW243588  14.500  13.467  12.575
80586SOL     OW43589   9.785  13.296  10.575
80586SOL    HW143590   9.819  13.245  10.649
80586SOL    HW243591   9.863  13.320  10.525
80587SOL     OW43592   3.929  10.424   0.640
80587SOL    HW143593   4.011  10.432   0.591
80587SOL    HW243594   3.946  10.467   0.723
80588SOL     OW43595  13.667  13.446   3.299
80588SOL    HW143596  13.617  13.462   3.219
80588SOL    HW243597  13.743  13.504   3.292
80589SOL     OW43598   4.899   6.507   6.000
80589SOL    HW143599   4.897   6.561   6.079
80589SOL    HW243600   4.992   6.498   5.979
80590SOL     OW43601   8.549  11.507  13.156
80590SOL    HW143602   8.479  11.466  13.105
80590SOL    HW243603   8.549  11.461  13.239
80591SOL     OW43604   6.393   1.432   1.060
80591SOL    HW143605   6.371   1.355   1.008
80591SOL    HW243606   6.309   1.476   1.074
80592SOL     OW43607   7.349  11.020  12.782
80592SOL    HW143608   7.431  11.002  12.736
80592SOL    HW243609   7.374  11.073  12.857
80593SOL     OW43610   8.492  14.365  11.273
80593SOL    HW143611   8.479  14.430  11.205
80593SOL    HW243612   8.583  14.379  11.302
80594SOL     OW43613  13.012  12.574  14.508
80594SOL    HW143614  12.985  12.557  14.599
80594SOL    HW243615  13.058  12.495  14.481
80595SOL     OW43616   1.243   1.795  14.094
80595SOL    HW143617   1.204   1.827  14.013
80595SOL    HW243618   1.212   1.704  14.101
80596SOL     OW43619   5.927   9.148   5.694
80596SOL    HW143620   6.005   9.166   5.642
80596SOL    HW243621   5.867   9.218   5.672
80597SOL     OW43622   5.836   6.315   2.416
80597SOL    HW143623   5.757   6.361   2.389
80597SOL    HW243624   5.893   6.317   2.339
80598SOL     OW43625   8.586   2.540  11.430
80598SOL    HW143626   8.641   2.476  11.476
80598SOL    HW243627   8.505   2.493  11.412
80599SOL     OW43628  11.502  10.430  11.628
80599SOL    HW143629  11.466  10.394  11.709
80599SOL    HW243630  11.432  10.417  11.563
80600SOL     OW43631   4.166   3.114   3.797
80600SOL    HW143632   4.219   3.166   3.857
80600SOL    HW243633   4.147   3.034   3.845
80601SOL     OW43634   1.885   3.880   5.499
80601SOL    HW143635   1.839   3.888   5.583
80601SOL    HW243636   1.823   3.834   5.442
80602SOL     OW43637   1.927   4.667   2.865
80602SOL    HW143638   1.938   4.762   2.864
80602SOL    HW243639   2.011   4.633   2.895
80603SOL     OW43640   3.477   9.806   4.973
80603SOL    HW143641   3.408   9.858   4.931
80603SOL    HW243642   3.430   9.750   5.036
80604SOL     OW43643   2.891   2.799  11.661
80604SOL    HW143644   2.869   2.844  11.579
80604SOL    HW243645   2.818   2.820  11.719
80605SOL     OW43646   1.226   9.391   1.002
80605SOL    HW143647   1.143   9.438   0.989
80605SOL    HW243648   1.239   9.392   1.097
80606SOL     OW43649  14.809   3.531   8.091
80606SOL    HW143650  14.784   3.445   8.057
80606SOL    HW243651   0.027   3.522   8.110
80607SOL     OW43652   7.223   2.480   4.192
80607SOL    HW143653   7.291   2.544   4.211
80607SOL    HW243654   7.257   2.431   4.117
80608SOL     OW43655   7.233   6.522   5.370
80608SOL    HW143656   7.146   6.560   5.357
80608SOL    HW243657   7.217   6.442   5.420
80609SOL     OW43658  13.540   6.615   6.298
80609SOL    HW143659  13.632   6.622   6.324
80609SOL    HW243660  13.491   6.650   6.373
80610SOL     OW43661   9.553  12.737  14.789
80610SOL    HW143662   9.466  12.754  14.753
80610SOL    HW243663   9.569  12.645  14.769
80611SOL     OW43664  12.201   1.053   5.338
80611SOL    HW143665  12.200   1.112   5.263
80611SOL    HW243666  12.136   0.986   5.317
80612SOL     OW43667   4.514   6.207   5.357
80612SOL    HW143668   4.425   6.176   5.377
80612SOL    HW243669   4.504   6.258   5.277
80613SOL     OW43670   6.110   0.948  10.514
80613SOL    HW143671   6.077   1.008  10.581
80613SOL    HW243672   6.183   0.902  10.556
80614SOL     OW43673   6.545  13.450  11.943
80614SOL    HW143674   6.555  13.528  11.998
80614SOL    HW243675   6.634  13.430  11.914
80615SOL     OW43676   1.180   6.208   1.745
80615SOL    HW143677   1.149   6.210   1.835
80615SOL    HW243678   1.156   6.121   1.713
80616SOL     OW43679  12.885  13.454  10.832
80616SOL    HW143680  12.947  13.420  10.897
80616SOL    HW243681  12.875  13.383  10.769
80617SOL     OW43682   8.335   7.172   0.872
80617SOL    HW143683   8.382   7.229   0.934
80617SOL    HW243684   8.399   7.107   0.846
80618SOL     OW43685  12.662  11.474  13.043
80618SOL    HW143686  12.658  11.559  12.999
80618SOL    HW243687  12.697  11.415  12.976
80619SOL     OW43688  13.678   5.830  14.601
80619SOL    HW143689  13.623   5.835  14.679
80619SOL    HW243690  13.617   5.820  14.528
80620SOL     OW43691   5.750  12.990   5.804
80620SOL    HW143692   5.843  13.000   5.786
80620SOL    HW243693   5.734  13.043   5.882
80621SOL     OW43694  13.896   1.512  12.965
80621SOL    HW143695  13.932   1.446  13.024
80621SOL    HW243696  13.952   1.588  12.978
80622SOL     OW43697  12.305   9.822  10.759
80622SOL    HW143698  12.213   9.845  10.763
80622SOL    HW243699  12.307   9.727  10.769
80623SOL     OW43700   8.631  14.871   1.203
80623SOL    HW143701   8.693   0.024   1.137
80623SOL    HW243702   8.546  14.873   1.159
80624SOL     OW43703   8.351   9.299  11.577
80624SOL    HW143704   8.414   9.361  11.613
80624SOL    HW243705   8.267   9.345  11.581
80625SOL     OW43706   1.319   6.479   3.023
80625SOL    HW143707   1.335   6.535   3.099
80625SOL    HW243708   1.401   6.430   3.011
80626SOL     OW43709   4.931   3.531   8.653
80626SOL    HW143710   4.999   3.578   8.701
80626SOL    HW243711   4.916   3.583   8.574
80627SOL     OW43712  11.731   0.213   8.559
80627SOL    HW143713  11.693   0.258   8.634
80627SOL    HW243714  11.821   0.194   8.585
80628SOL     OW43715   5.517   5.110  13.234
80628SOL    HW143716   5.527   5.145  13.323
80628SOL    HW243717   5.587   5.151  13.184
80629SOL     OW43718   6.857  10.022   1.271
80629SOL    HW143719   6.833   9.930   1.284
80629SOL    HW243720   6.892  10.050   1.356
80630SOL     OW43721   6.158  13.653   2.102
80630SOL    HW143722   6.187  13.595   2.032
80630SOL    HW243723   6.070  13.623   2.123
80631SOL     OW43724  10.462   4.175   7.850
80631SOL    HW143725  10.421   4.245   7.901
80631SOL    HW243726  10.527   4.219   7.796
80632SOL     OW43727   0.474   9.278   8.111
80632SOL    HW143728   0.421   9.309   8.184
80632SOL    HW243729   0.549   9.235   8.152
80633SOL     OW43730  13.115   4.419  11.047
80633SOL    HW143731  13.147   4.492  10.994
80633SOL    HW243732  13.082   4.460  11.127
80634SOL     OW43733  12.681  11.436   2.766
80634SOL    HW143734  12.589  11.419   2.786
80634SOL    HW243735  12.694  11.529   2.787
80635SOL     OW43736   8.224  12.257  12.711
80635SOL    HW143737   8.158  12.193  12.683
80635SOL    HW243738   8.239  12.237  12.804
80636SOL     OW43739   1.514   7.806   9.176
80636SOL    HW143740   1.434   7.783   9.223
80636SOL    HW243741   1.483   7.837   9.091
80637SOL     OW43742   6.251   4.438   7.605
80637SOL    HW143743   6.235   4.530   7.624
80637SOL    HW243744   6.177   4.392   7.644
80638SOL     OW43745   8.331  12.816   9.131
80638SOL    HW143746   8.374  12.878   9.072
80638SOL    HW243747   8.403  12.776   9.180
80639SOL     OW43748   7.622   2.736   9.648
80639SOL    HW143749   7.665   2.724   9.733
80639SOL    HW243750   7.571   2.817   9.659
80640SOL     OW43751   7.472   4.266   0.933
80640SOL    HW143752   7.423   4.347   0.919
80640SOL    HW243753   7.535   4.264   0.862
80641SOL     OW43754   0.080   0.515   1.048
80641SOL    HW143755   0.054   0.590   1.101
80641SOL    HW243756   0.002   0.496   0.995
80642SOL     OW43757   0.694  14.835   8.391
80642SOL    HW143758   0.681   0.014   8.468
80642SOL    HW243759   0.781  14.859   8.360
80643SOL     OW43760   7.262   1.601   3.298
80643SOL    HW143761   7.220   1.686   3.307
80643SOL    HW243762   7.230   1.550   3.372
80644SOL     OW43763  13.934  14.128   9.544
80644SOL    HW143764  13.966  14.131   9.454
80644SOL    HW243765  13.843  14.157   9.538
80645SOL     OW43766   0.752  14.597   8.515
80645SOL    HW143767   0.829  14.560   8.473
80645SOL    HW243768   0.710  14.650   8.447
80646SOL     OW43769  13.054   5.703  12.893
80646SOL    HW143770  13.113   5.720  12.820
80646SOL    HW243771  13.106   5.724  12.971
80647SOL     OW43772   1.143  11.138   4.882
80647SOL    HW143773   1.082  11.211   4.889
80647SOL    HW243774   1.227  11.174   4.912
80648SOL     OW43775   7.074   4.419   1.622
80648SOL    HW143776   7.009   4.358   1.588
80648SOL    HW243777   7.056   4.424   1.716
80649SOL     OW43778  10.962  12.806   0.819
80649SOL    HW143779  11.048  12.773   0.793
80649SOL    HW243780  10.972  12.827   0.912
80650SOL     OW43781   9.978   9.534   9.193
80650SOL    HW143782  10.042   9.484   9.244
80650SOL    HW243783   9.924   9.467   9.151
80651SOL     OW43784   4.473  12.733   5.674
80651SOL    HW143785   4.448  12.647   5.638
80651SOL    HW243786   4.560  12.718   5.712
80652SOL     OW43787   5.781   5.089  12.078
80652SOL    HW143788   5.759   5.083  12.171
80652SOL    HW243789   5.758   5.003  12.042
80653SOL     OW43790  14.005   0.129   0.404
80653SOL    HW143791  14.060   0.198   0.441
80653SOL    HW243792  14.032   0.123   0.313
80654SOL     OW43793   0.468   3.494   0.339
80654SOL    HW143794   0.473   3.432   0.266
80654SOL    HW243795   0.410   3.453   0.403
80655SOL     OW43796   1.737   4.635   8.518
80655SOL    HW143797   1.693   4.602   8.440
80655SOL    HW243798   1.725   4.565   8.583
80656SOL     OW43799  13.497  11.219   9.091
80656SOL    HW143800  13.476  11.170   9.170
80656SOL    HW243801  13.575  11.176   9.056
80657SOL     OW43802   9.023  13.696  10.588
80657SOL    HW143803   9.101  13.651  10.620
80657SOL    HW243804   9.052  13.787  10.576
80658SOL     OW43805  10.900   4.215  10.038
80658SOL    HW143806  10.956   4.154   9.989
80658SOL    HW243807  10.812   4.196  10.006
80659SOL     OW43808  12.078  12.094   4.554
80659SOL    HW143809  12.066  12.162   4.488
80659SOL    HW243810  12.003  12.035   4.540
80660SOL     OW43811   4.645   0.737  10.810
80660SOL    HW143812   4.572   0.789  10.843
80660SOL    HW243813   4.706   0.802  10.773
80661SOL     OW43814   7.640   6.293   5.932
80661SOL    HW143815   7.716   6.239   5.910
80661SOL    HW243816   7.643   6.301   6.028
80662SOL     OW43817   3.691   5.936  11.719
80662SOL    HW143818   3.785   5.956  11.717
80662SOL    HW243819   3.687   5.841  11.727
80663SOL     OW43820   0.803   6.062   8.073
80663SOL    HW143821   0.765   6.032   7.990
80663SOL    HW243822   0.877   6.117   8.046
80664SOL     OW43823  11.869  13.998   3.473
80664SOL    HW143824  11.897  14.066   3.534
80664SOL    HW243825  11.906  13.917   3.508
80665SOL     OW43826   2.663   4.603  11.817
80665SOL    HW143827   2.704   4.684  11.787
80665SOL    HW243828   2.580   4.599  11.769
80666SOL     OW43829   5.403   0.522   5.522
80666SOL    HW143830   5.444   0.472   5.593
80666SOL    HW243831   5.325   0.471   5.499
80667SOL     OW43832  12.906   1.748   8.043
80667SOL    HW143833  12.981   1.798   8.076
80667SOL    HW243834  12.933   1.718   7.956
80668SOL     OW43835  12.645   5.938   4.819
80668SOL    HW143836  12.578   5.901   4.877
80668SOL    HW243837  12.606   6.021   4.789
80669SOL     OW43838   7.953   9.052   8.248
80669SOL    HW143839   7.880   9.028   8.192
80669SOL    HW243840   7.991   8.969   8.275
80670SOL     OW43841   5.890   4.849  11.597
80670SOL    HW143842   5.929   4.800  11.525
80670SOL    HW243843   5.901   4.941  11.572
80671SOL     OW43844   9.079  14.447  12.429
80671SOL    HW143845   9.028  14.517  12.469
80671SOL    HW243846   9.088  14.472  12.338
80672SOL     OW43847   6.098   0.801  14.621
80672SOL    HW143848   6.057   0.828  14.703
80672SOL    HW243849   6.189   0.784  14.644
80673SOL     OW43850   5.260  14.290   8.928
80673SOL    HW143851   5.260  14.236   8.850
80673SOL    HW243852   5.338  14.346   8.918
80674SOL     OW43853   8.537   4.932   0.761
80674SOL    HW143854   8.501   4.901   0.844
80674SOL    HW243855   8.477   4.898   0.694
80675SOL     OW43856   0.674   7.659   7.571
80675SOL    HW143857   0.711   7.668   7.483
80675SOL    HW243858   0.579   7.654   7.556
80676SOL     OW43859   5.428   1.776   2.756
80676SOL    HW143860   5.477   1.720   2.817
80676SOL    HW243861   5.487   1.849   2.737
80677SOL     OW43862  13.463  10.908   7.125
80677SOL    HW143863  13.518  10.980   7.158
80677SOL    HW243864  13.526  10.841   7.097
80678SOL     OW43865   4.691   5.083  12.241
80678SOL    HW143866   4.639   5.134  12.304
80678SOL    HW243867   4.780   5.087  12.276
80679SOL     OW43868   3.196  10.479  11.934
80679SOL    HW143869   3.137  10.550  11.907
80679SOL    HW243870   3.281  10.521  11.942
80680SOL     OW43871   8.025   7.517   3.462
80680SOL    HW143872   8.077   7.582   3.415
80680SOL    HW243873   7.967   7.568   3.518
80681SOL     OW43874   3.791   9.694  10.531
80681SOL    HW143875   3.719   9.630  10.535
80681SOL    HW243876   3.796   9.729  10.620
80682SOL     OW43877   8.808  13.717   2.748
80682SOL    HW143878   8.790  13.800   2.792
80682SOL    HW243879   8.901  13.701   2.765
80683SOL     OW43880   4.747   4.162   4.663
80683SOL    HW143881   4.778   4.096   4.724
80683SOL    HW243882   4.728   4.113   4.582
80684SOL     OW43883  10.455  14.246  14.783
80684SOL    HW143884  10.485  14.171  14.833
80684SOL    HW243885  10.362  14.256  14.806
80685SOL     OW43886  10.926  13.291   0.554
80685SOL    HW143887  10.847  13.330   0.593
80685SOL    HW243888  10.994  13.357   0.565
80686SOL     OW43889  13.566   9.802  13.506
80686SOL    HW143890  13.564   9.709  13.487
80686SOL    HW243891  13.555   9.845  13.421
80687SOL     OW43892  10.884  13.329  11.475
80687SOL    HW143893  10.795  13.308  11.504
80687SOL    HW243894  10.873  13.406  11.419
80688SOL     OW43895   2.402   8.616   2.415
80688SOL    HW143896   2.410   8.534   2.463
80688SOL    HW243897   2.337   8.598   2.347
80689SOL     OW43898  11.753  12.065  14.849
80689SOL    HW143899  11.774  11.998   0.038
80689SOL    HW243900  11.692  12.124   0.017
80690SOL     OW43901   1.646   0.497   5.639
80690SOL    HW143902   1.710   0.435   5.672
80690SOL    HW243903   1.635   0.474   5.547
80691SOL     OW43904   3.233   4.212   4.141
80691SOL    HW143905   3.324   4.239   4.153
80691SOL    HW243906   3.233   4.163   4.058
80692SOL     OW43907  13.894   4.374   0.052
80692SOL    HW143908  13.943   4.417  14.858
80692SOL    HW243909  13.900   4.280   0.031
80693SOL     OW43910   1.627   0.309   2.042
80693SOL    HW143911   1.646   0.403   2.047
80693SOL    HW243912   1.541   0.299   2.083
80694SOL     OW43913   8.732   8.878  12.486
80694SOL    HW143914   8.677   8.831  12.549
80694SOL    HW243915   8.718   8.833  12.403
80695SOL     OW43916  10.113   4.147  13.634
80695SOL    HW143917  10.045   4.081  13.627
80695SOL    HW243918  10.183   4.117  13.576
80696SOL     OW43919   3.520  11.900   5.447
80696SOL    HW143920   3.545  11.827   5.391
80696SOL    HW243921   3.541  11.872   5.536
80697SOL     OW43922  11.332   1.725  10.910
80697SOL    HW143923  11.425   1.735  10.887
80697SOL    HW243924  11.318   1.630  10.912
80698SOL     OW43925   4.351   9.323  14.681
80698SOL    HW143926   4.390   9.336  14.767
80698SOL    HW243927   4.350   9.229  14.669
80699SOL     OW43928   2.677   2.143   9.810
80699SOL    HW143929   2.729   2.200   9.752
80699SOL    HW243930   2.672   2.191   9.892
80700SOL     OW43931   5.515   2.930   9.027
80700SOL    HW143932   5.478   2.876   9.096
80700SOL    HW243933   5.448   2.933   8.959
80701SOL     OW43934   3.841   5.933   9.255
80701SOL    HW143935   3.856   5.995   9.184
80701SOL    HW243936   3.926   5.925   9.299
80702SOL     OW43937  14.315  10.960   1.762
80702SOL    HW143938  14.355  10.892   1.709
80702SOL    HW243939  14.356  10.952   1.848
80703SOL     OW43940   3.318   4.801   5.614
80703SOL    HW143941   3.401   4.768   5.578
80703SOL    HW243942   3.337   4.892   5.638
80704SOL     OW43943  10.336   9.516   4.375
80704SOL    HW143944  10.248   9.490   4.404
80704SOL    HW243945  10.387   9.519   4.456
80705SOL     OW43946   5.945   7.664   8.809
80705SOL    HW143947   5.871   7.724   8.806
80705SOL    HW243948   5.915   7.592   8.865
80706SOL     OW43949   9.640   2.088   5.440
80706SOL    HW143950   9.570   2.148   5.417
80706SOL    HW243951   9.657   2.038   5.360
80707SOL     OW43952   3.156   8.728   9.953
80707SOL    HW143953   3.101   8.758  10.026
80707SOL    HW243954   3.245   8.735   9.986
80708SOL     OW43955   4.044   3.544   2.179
80708SOL    HW143956   4.131   3.561   2.215
80708SOL    HW243957   4.059   3.526   2.086
80709SOL     OW43958  11.032   8.710  14.186
80709SOL    HW143959  10.940   8.716  14.161
80709SOL    HW243960  11.032   8.713  14.281
80710SOL     OW43961   5.435   3.095   4.717
80710SOL    HW143962   5.435   3.041   4.796
80710SOL    HW243963   5.447   3.185   4.748
80711SOL     OW43964   5.820  11.032  13.970
80711SOL    HW143965   5.875  11.097  13.926
80711SOL    HW243966   5.881  10.983  14.026
80712SOL     OW43967   3.473  11.882   7.806
80712SOL    HW143968   3.467  11.918   7.894
80712SOL    HW243969   3.546  11.928   7.765
80713SOL     OW43970  11.041  13.921   6.508
80713SOL    HW143971  11.063  13.853   6.444
80713SOL    HW243972  10.954  13.897   6.540
80714SOL     OW43973   9.083  13.545   0.986
80714SOL    HW143974   9.082  13.541   1.082
80714SOL    HW243975   9.038  13.465   0.958
80715SOL     OW43976   9.312   7.160  11.211
80715SOL    HW143977   9.260   7.240  11.223
80715SOL    HW243978   9.247   7.090  11.212
80716SOL     OW43979  10.431   7.123   2.361
80716SOL    HW143980  10.465   7.033   2.357
80716SOL    HW243981  10.398   7.132   2.451
80717SOL     OW43982   0.193   9.956   7.778
80717SOL    HW143983   0.220   9.915   7.696
80717SOL    HW243984   0.098   9.951   7.777
80718SOL     OW43985   5.943   5.799   0.313
80718SOL    HW143986   5.931   5.845   0.230
80718SOL    HW243987   5.909   5.860   0.379
80719SOL     OW43988   4.757   3.428   6.202
80719SOL    HW143989   4.798   3.510   6.176
80719SOL    HW243990   4.687   3.414   6.138
80720SOL     OW43991   8.764   1.413   4.718
80720SOL    HW143992   8.677   1.451   4.734
80720SOL    HW243993   8.745   1.322   4.696
80721SOL     OW43994   5.726   1.548   2.604
80721SOL    HW143995   5.680   1.517   2.525
80721SOL    HW243996   5.770   1.470   2.638
80722SOL     OW43997  14.611  14.802  13.870
80722SOL    HW143998  14.560  14.722  13.886
80722SOL    HW243999  14.629  14.837  13.957
80723SOL     OW44000   5.673   8.302   4.112
80723SOL    HW144001   5.580   8.309   4.092
80723SOL    HW244002   5.717   8.343   4.037
80724SOL     OW44003   6.629  14.873   9.796
80724SOL    HW144004   6.619  14.851   9.704
80724SOL    HW244005   6.542  14.855   9.834
80725SOL     OW44006   8.630   7.434   5.327
80725SOL    HW144007   8.630   7.499   5.258
80725SOL    HW244008   8.679   7.474   5.399
80726SOL     OW44009  10.930  14.430  10.999
80726SOL    HW144010  10.878  14.353  10.976
80726SOL    HW244011  10.975  14.406  11.080
80727SOL     OW44012  14.496   9.899   8.203
80727SOL    HW144013  14.484   9.977   8.256
80727SOL    HW244014  14.486   9.930   8.113
80728SOL     OW44015   1.324   2.534   2.408
80728SOL    HW144016   1.340   2.485   2.327
80728SOL    HW244017   1.282   2.470   2.467
80729SOL     OW44018   6.647   9.842  12.022
80729SOL    HW144019   6.675   9.846  12.113
80729SOL    HW244020   6.717   9.886  11.973
80730SOL     OW44021   2.925   8.023   9.791
80730SOL    HW144022   2.873   7.950   9.758
80730SOL    HW244023   3.006   8.019   9.740
80731SOL     OW44024  13.256   9.314   1.407
80731SOL    HW144025  13.178   9.260   1.417
80731SOL    HW244026  13.244   9.387   1.467
80732SOL     OW44027   3.008   2.751   6.930
80732SOL    HW144028   3.041   2.839   6.914
80732SOL    HW244029   3.059   2.719   7.004
80733SOL     OW44030   5.896  14.151  14.424
80733SOL    HW144031   5.807  14.145  14.461
80733SOL    HW244032   5.948  14.190  14.494
80734SOL     OW44033  12.706  11.323  11.094
80734SOL    HW144034  12.638  11.389  11.111
80734SOL    HW244035  12.726  11.335  11.001
80735SOL     OW44036  13.754  12.176  13.943
80735SOL    HW144037  13.698  12.236  13.894
80735SOL    HW244038  13.788  12.115  13.878
80736SOL     OW44039  14.191   4.532  11.331
80736SOL    HW144040  14.118   4.591  11.351
80736SOL    HW244041  14.176   4.504  11.241
80737SOL     OW44042  11.786   8.441   6.330
80737SOL    HW144043  11.720   8.505   6.356
80737SOL    HW244044  11.841   8.431   6.408
80738SOL     OW44045   4.909   0.978  14.493
80738SOL    HW144046   4.996   1.003  14.527
80738SOL    HW244047   4.863   1.061  14.483
80739SOL     OW44048   1.688  12.186  12.933
80739SOL    HW144049   1.595  12.175  12.917
80739SOL    HW244050   1.731  12.147  12.857
80740SOL     OW44051   2.171  13.149   8.367
80740SOL    HW144052   2.255  13.114   8.397
80740SOL    HW244053   2.180  13.244   8.379
80741SOL     OW44054   2.278  11.153  13.160
80741SOL    HW144055   2.216  11.201  13.104
80741SOL    HW244056   2.283  11.205  13.240
80742SOL     OW44057   3.694   6.188   9.462
80742SOL    HW144058   3.670   6.197   9.369
80742SOL    HW244059   3.616   6.150   9.503
80743SOL     OW44060  13.226   5.820   5.617
80743SOL    HW144061  13.158   5.883   5.640
80743SOL    HW244062  13.262   5.852   5.534
80744SOL     OW44063   2.492   9.752   0.676
80744SOL    HW144064   2.446   9.770   0.595
80744SOL    HW244065   2.428   9.771   0.745
80745SOL     OW44066   2.014  12.489  11.788
80745SOL    HW144067   2.044  12.495  11.697
80745SOL    HW244068   1.919  12.486  11.782
80746SOL     OW44069   3.250   2.030   7.842
80746SOL    HW144070   3.208   1.949   7.869
80746SOL    HW244071   3.186   2.098   7.864
80747SOL     OW44072   6.759   4.456   7.169
80747SOL    HW144073   6.727   4.378   7.122
80747SOL    HW244074   6.679   4.498   7.202
80748SOL     OW44075   1.201  11.452   9.967
80748SOL    HW144076   1.174  11.533   9.924
80748SOL    HW244077   1.271  11.418   9.912
80749SOL     OW44078   3.216   7.337  14.649
80749SOL    HW144079   3.285   7.340  14.716
80749SOL    HW244080   3.220   7.248  14.614
80750SOL     OW44081   7.691   8.729   6.525
80750SOL    HW144082   7.636   8.674   6.580
80750SOL    HW244083   7.646   8.813   6.523
80751SOL     OW44084   0.008   9.299   3.754
80751SOL    HW144085   0.063   9.224   3.729
80751SOL    HW244086  14.809   9.295   3.695
80752SOL     OW44087  11.833   9.065  10.745
80752SOL    HW144088  11.891   8.993  10.722
80752SOL    HW244089  11.835   9.124  10.670
80753SOL     OW44090  12.673   8.866  13.889
80753SOL    HW144091  12.731   8.803  13.932
80753SOL    HW244092  12.702   8.951  13.922
80754SOL     OW44093   4.214  11.730  10.221
80754SOL    HW144094   4.282  11.790  10.190
80754SOL    HW244095   4.196  11.759  10.311
80755SOL     OW44096   7.618   1.003   9.946
80755SOL    HW144097   7.630   0.916   9.984
80755SOL    HW244098   7.580   0.988   9.860
80756SOL     OW44099   6.728   2.735  11.158
80756SOL    HW144100   6.762   2.705  11.074
80756SOL    HW244101   6.755   2.668  11.221
80757SOL     OW44102  11.360   6.767   6.958
80757SOL    HW144103  11.439   6.821   6.956
80757SOL    HW244104  11.379   6.694   6.898
80758SOL     OW44105  13.088  10.373   4.095
80758SOL    HW144106  13.163  10.315   4.109
80758SOL    HW244107  13.037  10.367   4.176
80759SOL     OW44108   1.960  14.502  14.668
80759SOL    HW144109   1.948  14.415  14.631
80759SOL    HW244110   1.880  14.518  14.718
80760SOL     OW44111   8.716   3.238   5.426
80760SOL    HW144112   8.639   3.215   5.374
80760SOL    HW244113   8.762   3.304   5.373
80761SOL     OW44114   5.626  11.872   8.081
80761SOL    HW144115   5.531  11.879   8.073
80761SOL    HW244116   5.650  11.803   8.018
80762SOL     OW44117   2.928   9.641  12.155
80762SOL    HW144118   2.932   9.660  12.249
80762SOL    HW244119   2.836   9.619  12.139
80763SOL     OW44120  12.086  13.609   4.019
80763SOL    HW144121  12.142  13.541   3.982
80763SOL    HW244122  11.997  13.581   3.998
80764SOL     OW44123   1.217  14.226   0.505
80764SOL    HW144124   1.127  14.234   0.538
80764SOL    HW244125   1.262  14.303   0.539
80765SOL     OW44126   5.388   0.800  14.367
80765SOL    HW144127   5.332   0.724  14.387
80765SOL    HW244128   5.343   0.845  14.296
80766SOL     OW44129   8.253   0.203  12.805
80766SOL    HW144130   8.221   0.175  12.719
80766SOL    HW244131   8.182   0.181  12.865
80767SOL     OW44132   5.368   3.750  10.536
80767SOL    HW144133   5.367   3.654  10.533
80767SOL    HW244134   5.278   3.775  10.512
80768SOL     OW44135   1.490   8.720  11.418
80768SOL    HW144136   1.513   8.791  11.477
80768SOL    HW244137   1.434   8.662  11.470
80769SOL     OW44138   4.253   9.762  14.535
80769SOL    HW144139   4.195   9.745  14.460
80769SOL    HW244140   4.301   9.841  14.510
80770SOL     OW44141   8.581   6.290  14.735
80770SOL    HW144142   8.629   6.251  14.808
80770SOL    HW244143   8.504   6.331  14.776
80771SOL     OW44144   4.997   4.434  10.467
80771SOL    HW144145   5.091   4.414  10.469
80771SOL    HW244146   4.955   4.358  10.508
80772SOL     OW44147  14.274   2.053   5.140
80772SOL    HW144148  14.183   2.075   5.121
80772SOL    HW244149  14.307   2.127   5.190
80773SOL     OW44150  13.984   5.376  13.293
80773SOL    HW144151  13.902   5.410  13.257
80773SOL    HW244152  14.052   5.423  13.245
80774SOL     OW44153  11.409   0.611   8.486
80774SOL    HW144154  11.361   0.689   8.513
80774SOL    HW244155  11.390   0.546   8.555
80775SOL     OW44156  10.095  12.126  13.349
80775SOL    HW144157  10.035  12.126  13.424
80775SOL    HW244158  10.135  12.039  13.350
80776SOL     OW44159   2.130   1.495  14.512
80776SOL    HW144160   2.165   1.447  14.437
80776SOL    HW244161   2.105   1.427  14.574
80777SOL     OW44162  12.051  14.296   5.880
80777SOL    HW144163  12.088  14.366   5.933
80777SOL    HW244164  12.021  14.340   5.800
80778SOL     OW44165  14.437   3.039   6.636
80778SOL    HW144166  14.477   2.953   6.641
80778SOL    HW244167  14.361   3.034   6.695
80779SOL     OW44168   8.179   1.797  14.428
80779SOL    HW144169   8.091   1.811  14.463
80779SOL    HW244170   8.178   1.840  14.343
80780SOL     OW44171   6.038   0.748   5.065
80780SOL    HW144172   5.979   0.682   5.101
80780SOL    HW244173   5.992   0.831   5.077
80781SOL     OW44174   0.890  10.085   7.804
80781SOL    HW144175   0.901  10.178   7.783
80781SOL    HW244176   0.968  10.063   7.856
80782SOL     OW44177   7.180   6.928  10.376
80782SOL    HW144178   7.107   6.982  10.405
80782SOL    HW244179   7.226   6.982  10.312
80783SOL     OW44180  13.592   4.277  12.896
80783SOL    HW144181  13.626   4.199  12.853
80783SOL    HW244182  13.668   4.333  12.908
80784SOL     OW44183   8.105  13.487   7.980
80784SOL    HW144184   8.196  13.482   7.954
80784SOL    HW244185   8.090  13.409   8.033
80785SOL     OW44186  13.985  11.812   6.637
80785SOL    HW144187  13.984  11.750   6.564
80785SOL    HW244188  13.902  11.858   6.630
80786SOL     OW44189  13.492  12.364   1.590
80786SOL    HW144190  13.403  12.337   1.565
80786SOL    HW244191  13.537  12.381   1.507
80787SOL     OW44192  10.475  11.269  13.660
80787SOL    HW144193  10.531  11.345  13.676
80787SOL    HW244194  10.514  11.200  13.714
80788SOL     OW44195  10.291   1.427   7.958
80788SOL    HW144196  10.318   1.495   8.019
80788SOL    HW244197  10.270   1.352   8.013
80789SOL     OW44198   5.984  10.611   0.688
80789SOL    HW144199   5.918  10.620   0.619
80789SOL    HW244200   6.047  10.681   0.671
80790SOL     OW44201  10.171  11.443   7.058
80790SOL    HW144202  10.109  11.378   7.092
80790SOL    HW244203  10.227  11.464   7.132
80791SOL     OW44204  12.431   9.847   8.031
80791SOL    HW144205  12.422   9.784   8.103
80791SOL    HW244206  12.389   9.927   8.064
80792SOL     OW44207  12.437   1.610   0.321
80792SOL    HW144208  12.492   1.610   0.400
80792SOL    HW244209  12.444   1.699   0.287
80793SOL     OW44210   4.269  10.866   1.877
80793SOL    HW144211   4.255  10.943   1.933
80793SOL    HW244212   4.215  10.883   1.800
80794SOL     OW44213  11.347  13.238   6.152
80794SOL    HW144214  11.430  13.260   6.196
80794SOL    HW244215  11.355  13.276   6.065
80795SOL     OW44216  10.875   0.813   7.529
80795SOL    HW144217  10.917   0.779   7.608
80795SOL    HW244218  10.899   0.905   7.526
80796SOL     OW44219  12.452   3.434  12.310
80796SOL    HW144220  12.462   3.380  12.389
80796SOL    HW244221  12.414   3.374  12.246
80797SOL     OW44222   0.593   1.693   1.647
80797SOL    HW144223   0.547   1.728   1.571
80797SOL    HW244224   0.528   1.637   1.690
80798SOL     OW44225  11.395   9.763  13.805
80798SOL    HW144226  11.455   9.835  13.784
80798SOL    HW244227  11.381   9.771  13.899
80799SOL     OW44228  10.500   6.173   7.512
80799SOL    HW144229  10.507   6.236   7.584
80799SOL    HW244230  10.584   6.177   7.467
80800SOL     OW44231  11.164   3.510   8.531
80800SOL    HW144232  11.126   3.475   8.450
80800SOL    HW244233  11.166   3.604   8.518
80801SOL     OW44234   3.239   1.138   7.266
80801SOL    HW144235   3.246   1.094   7.350
80801SOL    HW244236   3.323   1.182   7.254
80802SOL     OW44237  14.723  14.484   8.277
80802SOL    HW144238  14.708  14.396   8.242
80802SOL    HW244239  14.762  14.533   8.205
80803SOL     OW44240   9.685  14.080   5.926
80803SOL    HW144241   9.642  14.038   5.852
80803SOL    HW244242   9.714  14.007   5.981
80804SOL     OW44243   9.192   0.479  12.192
80804SOL    HW144244   9.195   0.505  12.100
80804SOL    HW244245   9.180   0.561  12.240
80805SOL     OW44246  10.486   9.160  13.270
80805SOL    HW144247  10.438   9.237  13.241
80805SOL    HW244248  10.532   9.188  13.349
80806SOL     OW44249  12.797   1.026  11.439
80806SOL    HW144250  12.804   1.032  11.344
80806SOL    HW244251  12.755   0.941  11.455
80807SOL     OW44252  13.386   0.973   8.677
80807SOL    HW144253  13.379   1.068   8.664
80807SOL    HW244254  13.315   0.953   8.738
80808SOL     OW44255   2.121  13.390   2.695
80808SOL    HW144256   2.195  13.360   2.641
80808SOL    HW244257   2.086  13.311   2.734
80809SOL     OW44258   6.544   9.771   7.962
80809SOL    HW144259   6.604   9.838   7.930
80809SOL    HW244260   6.527   9.795   8.053
80810SOL     OW44261  10.065   4.355  11.512
80810SOL    HW144262  10.156   4.386  11.510
80810SOL    HW244263  10.068   4.273  11.560
80811SOL     OW44264  11.379  12.192   9.271
80811SOL    HW144265  11.405  12.197   9.364
80811SOL    HW244266  11.449  12.141   9.230
80812SOL     OW44267  14.467   0.547   5.489
80812SOL    HW144268  14.468   0.454   5.467
80812SOL    HW244269  14.503   0.591   5.412
80813SOL     OW44270   0.549   3.633  12.086
80813SOL    HW144271   0.529   3.543  12.112
80813SOL    HW244272   0.571   3.627  11.993
80814SOL     OW44273  13.100  10.961   2.719
80814SOL    HW144274  13.007  10.949   2.703
80814SOL    HW244275  13.111  10.950   2.813
80815SOL     OW44276  11.017  14.475   0.051
80815SOL    HW144277  11.049  14.559   0.018
80815SOL    HW244278  10.925  14.472   0.025
80816SOL     OW44279   5.743   1.210   0.712
80816SOL    HW144280   5.801   1.283   0.692
80816SOL    HW244281   5.711   1.179   0.627
80817SOL     OW44282  11.214  13.533   1.582
80817SOL    HW144283  11.223  13.538   1.487
80817SOL    HW244284  11.225  13.440   1.603
80818SOL     OW44285   5.057   1.745   9.690
80818SOL    HW144286   5.050   1.834   9.655
80818SOL    HW244287   5.089   1.758   9.780
80819SOL     OW44288   0.927  14.113   1.690
80819SOL    HW144289   0.920  14.150   1.601
80819SOL    HW244290   0.923  14.190   1.747
80820SOL     OW44291   5.884  11.663  11.764
80820SOL    HW144292   5.900  11.611  11.843
80820SOL    HW244293   5.838  11.603  11.705
80821SOL     OW44294   1.413   0.675   6.867
80821SOL    HW144295   1.423   0.614   6.795
80821SOL    HW244296   1.408   0.619   6.945
80822SOL     OW44297   2.800   7.038   5.465
80822SOL    HW144298   2.767   7.045   5.555
80822SOL    HW244299   2.767   6.953   5.435
80823SOL     OW44300   3.673  12.639   4.631
80823SOL    HW144301   3.728  12.599   4.698
80823SOL    HW244302   3.711  12.609   4.548
80824SOL     OW44303   4.179   5.861   8.786
80824SOL    HW144304   4.236   5.860   8.709
80824SOL    HW244305   4.186   5.773   8.823
80825SOL     OW44306   3.195   8.542  11.411
80825SOL    HW144307   3.163   8.534  11.501
80825SOL    HW244308   3.156   8.469  11.365
80826SOL     OW44309   9.476   8.285   6.297
80826SOL    HW144310   9.455   8.222   6.366
80826SOL    HW244311   9.430   8.253   6.219
80827SOL     OW44312  12.366   3.010   6.873
80827SOL    HW144313  12.448   3.014   6.922
80827SOL    HW244314  12.336   3.101   6.869
80828SOL     OW44315  12.803   5.671  13.519
80828SOL    HW144316  12.853   5.744  13.483
80828SOL    HW244317  12.843   5.654  13.604
80829SOL     OW44318  13.710   8.393   0.302
80829SOL    HW144319  13.709   8.430   0.390
80829SOL    HW244320  13.623   8.353   0.292
80830SOL     OW44321   5.837   0.843  14.271
80830SOL    HW144322   5.821   0.927  14.313
80830SOL    HW244323   5.772   0.784  14.308
80831SOL     OW44324  13.898   4.232  13.290
80831SOL    HW144325  13.945   4.159  13.250
80831SOL    HW244326  13.948   4.309  13.264
80832SOL     OW44327  12.484   8.287  11.130
80832SOL    HW144328  12.549   8.267  11.062
80832SOL    HW244329  12.400   8.269  11.088
80833SOL     OW44330   3.968   4.368   4.477
80833SOL    HW144331   3.980   4.426   4.403
80833SOL    HW244332   4.006   4.415   4.551
80834SOL     OW44333   5.647   7.124   8.474
80834SOL    HW144334   5.662   7.030   8.472
80834SOL    HW244335   5.716   7.158   8.531
80835SOL     OW44336   0.185  10.515  13.336
80835SOL    HW144337   0.105  10.481  13.377
80835SOL    HW244338   0.245  10.528  13.409
80836SOL     OW44339  14.782  12.669   4.075
80836SOL    HW144340  14.702  12.659   4.023
80836SOL    HW244341  14.813  12.579   4.089
80837SOL     OW44342  11.784   9.865  14.826
80837SOL    HW144343  11.705   9.840  14.873
80837SOL    HW244344  11.824   9.782  14.801
80838SOL     OW44345   1.923   5.211   4.356
80838SOL    HW144346   2.002   5.161   4.374
80838SOL    HW244347   1.919   5.217   4.260
80839SOL     OW44348  11.509   4.101   9.011
80839SOL    HW144349  11.431   4.123   8.960
80839SOL    HW244350  11.582   4.132   8.957
80840SOL     OW44351   3.510   7.241   1.938
80840SOL    HW144352   3.585   7.273   1.889
80840SOL    HW244353   3.546   7.211   2.021
80841SOL     OW44354  13.950   9.332   8.658
80841SOL    HW144355  13.907   9.417   8.654
80841SOL    HW244356  13.921   9.294   8.741
80842SOL     OW44357   4.977   7.335   3.540
80842SOL    HW144358   5.010   7.245   3.546
80842SOL    HW244359   4.882   7.324   3.535
80843SOL     OW44360  13.455   4.429   0.818
80843SOL    HW144361  13.440   4.335   0.829
80843SOL    HW244362  13.507   4.436   0.738
80844SOL     OW44363  12.086   9.382   0.780
80844SOL    HW144364  12.040   9.298   0.789
80844SOL    HW244365  12.070   9.408   0.689
80845SOL     OW44366   4.974   6.391   2.064
80845SOL    HW144367   5.057   6.416   2.025
80845SOL    HW244368   4.997   6.356   2.150
80846SOL     OW44369  11.539   3.435  14.849
80846SOL    HW144370  11.598   3.504  14.820
80846SOL    HW244371  11.584   3.395   0.047
80847SOL     OW44372   9.110   2.306   7.251
80847SOL    HW144373   9.098   2.388   7.298
80847SOL    HW244374   9.034   2.299   7.194
80848SOL     OW44375   2.568   3.427   3.476
80848SOL    HW144376   2.661   3.405   3.467
80848SOL    HW244377   2.564   3.522   3.470
80849SOL     OW44378  10.473   4.783   1.560
80849SOL    HW144379  10.529   4.756   1.487
80849SOL    HW244380  10.444   4.700   1.600
80850SOL     OW44381  13.241   7.491  10.083
80850SOL    HW144382  13.276   7.422  10.139
80850SOL    HW244383  13.317   7.542  10.056
80851SOL     OW44384   6.539   5.985   5.285
80851SOL    HW144385   6.603   5.940   5.230
80851SOL    HW244386   6.458   5.982   5.234
80852SOL     OW44387   7.037   4.216   3.012
80852SOL    HW144388   7.015   4.253   2.926
80852SOL    HW244389   7.123   4.252   3.032
80853SOL     OW44390   6.697  11.749   1.310
80853SOL    HW144391   6.762  11.678   1.315
80853SOL    HW244392   6.633  11.728   1.377
80854SOL     OW44393  12.088   7.718  12.394
80854SOL    HW144394  12.060   7.647  12.336
80854SOL    HW244395  12.174   7.691  12.425
80855SOL     OW44396   9.137   0.506  14.607
80855SOL    HW144397   9.211   0.493  14.547
80855SOL    HW244398   9.166   0.576  14.666
80856SOL     OW44399  10.046   9.952   7.920
80856SOL    HW144400  10.134   9.916   7.915
80856SOL    HW244401  10.030   9.989   7.833
80857SOL     OW44402  12.213   3.595   4.937
80857SOL    HW144403  12.245   3.613   4.849
80857SOL    HW244404  12.240   3.672   4.988
80858SOL     OW44405  10.560   0.201  10.387
80858SOL    HW144406  10.535   0.284  10.428
80858SOL    HW244407  10.548   0.217  10.293
80859SOL     OW44408   3.703   9.469   8.093
80859SOL    HW144409   3.666   9.450   8.007
80859SOL    HW244410   3.647   9.538   8.130
80860SOL     OW44411  13.702   2.877  14.375
80860SOL    HW144412  13.715   2.857  14.283
80860SOL    HW244413  13.718   2.794  14.421
80861SOL     OW44414  10.845  10.199   4.883
80861SOL    HW144415  10.852  10.136   4.956
80861SOL    HW244416  10.761  10.179   4.843
80862SOL     OW44417   9.582   3.984   0.895
80862SOL    HW144418   9.579   4.020   0.806
80862SOL    HW244419   9.586   4.061   0.952
80863SOL     OW44420   4.839   6.243   8.019
80863SOL    HW144421   4.849   6.229   8.114
80863SOL    HW244422   4.890   6.173   7.979
80864SOL     OW44423  13.677   5.490  10.275
80864SOL    HW144424  13.671   5.398  10.301
80864SOL    HW244425  13.604   5.503  10.215
80865SOL     OW44426   7.436   5.814   3.353
80865SOL    HW144427   7.458   5.907   3.342
80865SOL    HW244428   7.359   5.815   3.409
80866SOL     OW44429  14.267   6.349  10.023
80866SOL    HW144430  14.285   6.425   9.968
80866SOL    HW244431  14.268   6.274   9.963
80867SOL     OW44432   1.537  14.851   8.874
80867SOL    HW144433   1.565   0.044   8.813
80867SOL    HW244434   1.607  14.785   8.869
80868SOL     OW44435   0.063   6.670  13.423
80868SOL    HW144436  14.866   6.697  13.367
80868SOL    HW244437   0.135   6.654  13.363
80869SOL     OW44438   2.473  11.977   0.849
80869SOL    HW144439   2.503  11.899   0.895
80869SOL    HW244440   2.546  12.039   0.856
80870SOL     OW44441  13.350   3.819   6.683
80870SOL    HW144442  13.413   3.760   6.641
80870SOL    HW244443  13.393   3.847   6.764
80871SOL     OW44444   9.950  11.548   9.234
80871SOL    HW144445  10.036  11.588   9.246
80871SOL    HW244446   9.964  11.455   9.251
80872SOL     OW44447   9.451   7.949   6.208
80872SOL    HW144448   9.415   8.005   6.276
80872SOL    HW244449   9.427   7.860   6.234
80873SOL     OW44450   6.947   2.092   8.074
80873SOL    HW144451   6.971   2.166   8.019
80873SOL    HW244452   6.869   2.055   8.033
80874SOL     OW44453  13.071   0.764   6.773
80874SOL    HW144454  13.080   0.838   6.713
80874SOL    HW244455  13.150   0.768   6.828
80875SOL     OW44456   5.022   4.779   3.412
80875SOL    HW144457   4.979   4.759   3.495
80875SOL    HW244458   5.011   4.700   3.359
80876SOL     OW44459  12.765  13.689   4.230
80876SOL    HW144460  12.808  13.770   4.202
80876SOL    HW244461  12.685  13.718   4.273
80877SOL     OW44462   9.445   0.983   5.369
80877SOL    HW144463   9.383   0.929   5.321
80877SOL    HW244464   9.531   0.954   5.338
80878SOL     OW44465   9.573   8.260  12.740
80878SOL    HW144466   9.506   8.205  12.781
80878SOL    HW244467   9.654   8.240  12.787
80879SOL     OW44468   3.250   0.740   6.647
80879SOL    HW144469   3.221   0.650   6.629
80879SOL    HW244470   3.287   0.770   6.564
80880SOL     OW44471   3.539  10.945   9.172
80880SOL    HW144472   3.614  10.956   9.231
80880SOL    HW244473   3.549  10.857   9.137
80881SOL     OW44474   2.422   7.674   7.132
80881SOL    HW144475   2.475   7.750   7.105
80881SOL    HW244476   2.406   7.626   7.050
80882SOL     OW44477   7.966   0.706   4.024
80882SOL    HW144478   8.061   0.695   4.020
80882SOL    HW244479   7.950   0.746   4.110
80883SOL     OW44480  13.972  13.752  13.355
80883SOL    HW144481  13.919  13.831  13.368
80883SOL    HW244482  13.909  13.681  13.346
80884SOL     OW44483   4.052  11.539   4.390
80884SOL    HW144484   3.995  11.474   4.432
80884SOL    HW244485   4.129  11.542   4.446
80885SOL     OW44486   9.835   2.896   1.030
80885SOL    HW144487   9.909   2.941   0.991
80885SOL    HW244488   9.848   2.804   1.009
80886SOL     OW44489   4.500  14.126   6.659
80886SOL    HW144490   4.555  14.179   6.601
80886SOL    HW244491   4.506  14.170   6.744
80887SOL     OW44492  10.953   6.826  12.996
80887SOL    HW144493  10.993   6.847  13.080
80887SOL    HW244494  10.914   6.740  13.008
80888SOL     OW44495  11.352  11.669   2.265
80888SOL    HW144496  11.335  11.747   2.213
80888SOL    HW244497  11.313  11.688   2.350
80889SOL     OW44498   8.529   3.745  14.496
80889SOL    HW144499   8.597   3.685  14.526
80889SOL    HW244500   8.457   3.689  14.467
80890SOL     OW44501  13.623   9.012  11.713
80890SOL    HW144502  13.540   9.058  11.701
80890SOL    HW244503  13.677   9.073  11.764
80891SOL     OW44504   7.635   6.140   9.227
80891SOL    HW144505   7.551   6.182   9.246
80891SOL    HW244506   7.691   6.210   9.196
80892SOL     OW44507  13.040   9.233   2.648
80892SOL    HW144508  13.124   9.191   2.629
80892SOL    HW244509  13.055   9.286   2.726
80893SOL     OW44510   9.039  11.501   9.325
80893SOL    HW144511   9.099  11.480   9.253
80893SOL    HW244512   8.969  11.436   9.317
80894SOL     OW44513  14.854  13.579   9.536
80894SOL    HW144514  14.796  13.639   9.490
80894SOL    HW244515  14.836  13.593   9.629
80895SOL     OW44516  13.901   1.533  14.085
80895SOL    HW144517  13.834   1.591  14.049
80895SOL    HW244518  13.893   1.544  14.180
80896SOL     OW44519   8.734   6.522  10.951
80896SOL    HW144520   8.819   6.492  10.984
80896SOL    HW244521   8.713   6.463  10.879
80897SOL     OW44522   7.134  10.796   8.724
80897SOL    HW144523   7.122  10.704   8.746
80897SOL    HW244524   7.135  10.841   8.809
80898SOL     OW44525   6.705   2.594   3.009
80898SOL    HW144526   6.776   2.540   3.044
80898SOL    HW244527   6.625   2.552   3.042
80899SOL     OW44528   5.020  12.457  13.260
80899SOL    HW144529   5.006  12.465  13.354
80899SOL    HW244530   5.111  12.429  13.252
80900SOL     OW44531   1.503  14.474   4.538
80900SOL    HW144532   1.527  14.392   4.580
80900SOL    HW244533   1.584  14.525   4.535
80901SOL     OW44534  14.845  13.855   7.636
80901SOL    HW144535  14.829  13.831   7.727
80901SOL    HW244536  14.763  13.897   7.608
80902SOL     OW44537   6.658   7.641   9.220
80902SOL    HW144538   6.670   7.569   9.281
80902SOL    HW244539   6.747   7.672   9.202
80903SOL     OW44540   7.011   1.373  11.785
80903SOL    HW144541   6.923   1.378  11.749
80903SOL    HW244542   7.067   1.404  11.714
80904SOL     OW44543   3.106  13.655   5.805
80904SOL    HW144544   3.172  13.590   5.832
80904SOL    HW244545   3.136  13.737   5.845
80905SOL     OW44546   6.265   1.590  10.459
80905SOL    HW144547   6.261   1.666  10.517
80905SOL    HW244548   6.242   1.625  10.372
80906SOL     OW44549   6.168  14.583  11.276
80906SOL    HW144550   6.082  14.591  11.235
80906SOL    HW244551   6.162  14.641  11.352
80907SOL     OW44552  10.724   5.234   6.323
80907SOL    HW144553  10.802   5.207   6.372
80907SOL    HW244554  10.759   5.279   6.246
80908SOL     OW44555  13.761  13.182   7.456
80908SOL    HW144556  13.714  13.105   7.486
80908SOL    HW244557  13.844  13.179   7.504
80909SOL     OW44558   9.384   9.748   8.784
80909SOL    HW144559   9.465   9.799   8.788
80909SOL    HW244560   9.412   9.658   8.800
80910SOL     OW44561   5.923   9.880   0.083
80910SOL    HW144562   5.833   9.908   0.067
80910SOL    HW244563   5.960   9.869  14.871
80911SOL     OW44564   2.422   6.864  13.467
80911SOL    HW144565   2.488   6.795  13.476
80911SOL    HW244566   2.472   6.942  13.444
80912SOL     OW44567   6.154   9.993  13.080
80912SOL    HW144568   6.102  10.061  13.038
80912SOL    HW244569   6.097   9.916  13.082
80913SOL     OW44570  14.502  10.876   6.700
80913SOL    HW144571  14.416  10.915   6.685
80913SOL    HW244572  14.551  10.943   6.748
80914SOL     OW44573   2.180  12.267  11.765
80914SOL    HW144574   2.108  12.329  11.772
80914SOL    HW244575   2.197  12.239  11.855
80915SOL     OW44576  10.078   5.717  14.123
80915SOL    HW144577  10.051   5.742  14.211
80915SOL    HW244578  10.061   5.794  14.069
80916SOL     OW44579  11.053   1.029   6.842
80916SOL    HW144580  11.131   1.022   6.896
80916SOL    HW244581  10.999   1.095   6.885
80917SOL     OW44582   6.520  13.107   6.927
80917SOL    HW144583   6.552  13.061   7.005
80917SOL    HW244584   6.452  13.051   6.892
80918SOL     OW44585   1.921   8.091  13.748
80918SOL    HW144586   1.963   8.005  13.743
80918SOL    HW244587   1.987   8.152  13.715
80919SOL     OW44588   0.314  13.294   3.725
80919SOL    HW144589   0.349  13.255   3.645
80919SOL    HW244590   0.385  13.288   3.789
80920SOL     OW44591   9.971   7.986  14.775
80920SOL    HW144592  10.012   7.925  14.714
80920SOL    HW244593   9.949   7.933  14.851
80921SOL     OW44594  10.734   7.199   5.261
80921SOL    HW144595  10.662   7.145   5.294
80921SOL    HW244596  10.799   7.136   5.232
80922SOL     OW44597   7.435  14.812  10.506
80922SOL    HW144598   7.471  14.822  10.594
80922SOL    HW244599   7.444  14.718  10.487
80923SOL     OW44600   7.318   1.698   7.501
80923SOL    HW144601   7.260   1.662   7.568
80923SOL    HW244602   7.404   1.659   7.520
80924SOL     OW44603  12.536   4.651   0.361
80924SOL    HW144604  12.583   4.724   0.402
80924SOL    HW244605  12.561   4.575   0.413
80925SOL     OW44606   7.484   7.773  10.291
80925SOL    HW144607   7.445   7.717  10.224
80925SOL    HW244608   7.572   7.737  10.304
80926SOL     OW44609   1.641   2.073   9.681
80926SOL    HW144610   1.572   2.135   9.659
80926SOL    HW244611   1.712   2.094   9.621
80927SOL     OW44612  13.402   5.816   9.012
80927SOL    HW144613  13.373   5.743   9.067
80927SOL    HW244614  13.483   5.784   8.971
80928SOL     OW44615  11.529  12.239  12.790
80928SOL    HW144616  11.437  12.227  12.764
80928SOL    HW244617  11.568  12.286  12.716
80929SOL     OW44618   3.524   0.098  10.597
80929SOL    HW144619   3.550   0.188  10.579
80929SOL    HW244620   3.434   0.105  10.629
80930SOL     OW44621   6.418   7.978   9.974
80930SOL    HW144622   6.387   7.891   9.995
80930SOL    HW244623   6.446   8.015  10.059
80931SOL     OW44624   8.071   3.371   5.290
80931SOL    HW144625   7.984   3.337   5.269
80931SOL    HW244626   8.131   3.311   5.246
80932SOL     OW44627  14.586  14.562  10.840
80932SOL    HW144628  14.629  14.594  10.761
80932SOL    HW244629  14.553  14.476  10.815
80933SOL     OW44630   4.348   6.905   4.513
80933SOL    HW144631   4.401   6.960   4.455
80933SOL    HW244632   4.405   6.887   4.587
80934SOL     OW44633   2.531   2.077  11.488
80934SOL    HW144634   2.481   2.060  11.408
80934SOL    HW244635   2.543   1.991  11.527
80935SOL     OW44636  13.913   9.082  10.534
80935SOL    HW144637  13.896   9.133  10.455
80935SOL    HW244638  14.006   9.094  10.552
80936SOL     OW44639   2.163  11.946  11.835
80936SOL    HW144640   2.111  12.017  11.872
80936SOL    HW244641   2.250  11.985  11.821
80937SOL     OW44642  11.252   2.966   2.752
80937SOL    HW144643  11.317   3.033   2.731
80937SOL    HW244644  11.302   2.897   2.797
80938SOL     OW44645   5.234   1.709   8.162
80938SOL    HW144646   5.271   1.793   8.133
80938SOL    HW244647   5.143   1.729   8.183
80939SOL     OW44648   9.697  12.388   1.167
80939SOL    HW144649   9.738  12.324   1.109
80939SOL    HW244650   9.684  12.340   1.249
80940SOL     OW44651   1.380  10.056   4.104
80940SOL    HW144652   1.430  10.086   4.180
80940SOL    HW244653   1.392   9.961   4.102
80941SOL     OW44654   4.647  12.059   6.021
80941SOL    HW144655   4.618  11.978   5.981
80941SOL    HW244656   4.666  12.117   5.948
80942SOL     OW44657   2.038  12.989   8.988
80942SOL    HW144658   2.119  12.971   8.941
80942SOL    HW244659   2.024  12.912   9.044
80943SOL     OW44660   0.777   3.780   6.119
80943SOL    HW144661   0.712   3.826   6.065
80943SOL    HW244662   0.802   3.842   6.186
80944SOL     OW44663   3.169   6.883   1.850
80944SOL    HW144664   3.073   6.883   1.851
80944SOL    HW244665   3.193   6.809   1.906
80945SOL     OW44666  14.660   3.735  10.981
80945SOL    HW144667  14.565   3.727  10.973
80945SOL    HW244668  14.688   3.650  11.015
80946SOL     OW44669   9.539   4.007   7.207
80946SOL    HW144670   9.557   3.925   7.162
80946SOL    HW244671   9.497   4.063   7.141
80947SOL     OW44672   4.933   4.796   5.177
80947SOL    HW144673   4.988   4.800   5.256
80947SOL    HW244674   4.936   4.885   5.142
80948SOL     OW44675  12.291   5.897   8.201
80948SOL    HW144676  12.296   5.823   8.262
80948SOL    HW244677  12.292   5.975   8.258
80949SOL     OW44678   7.678   2.932   9.442
80949SOL    HW144679   7.585   2.919   9.423
80949SOL    HW244680   7.721   2.853   9.410
80950SOL     OW44681   3.379  13.198  14.658
80950SOL    HW144682   3.337  13.233  14.737
80950SOL    HW244683   3.308  13.185  14.596
80951SOL     OW44684  12.315  13.851  13.088
80951SOL    HW144685  12.325  13.763  13.124
80951SOL    HW244686  12.268  13.899  13.155
80952SOL     OW44687  10.399   3.322   5.909
80952SOL    HW144688  10.310   3.347   5.885
80952SOL    HW244689  10.426   3.388   5.972
80953SOL     OW44690  10.113   0.929  12.512
80953SOL    HW144691  10.137   0.847  12.469
80953SOL    HW244692  10.040   0.906  12.569
80954SOL     OW44693   3.567  11.350   3.728
80954SOL    HW144694   3.588  11.439   3.697
80954SOL    HW244695   3.492  11.362   3.786
80955SOL     OW44696   6.975  10.743   6.048
80955SOL    HW144697   6.899  10.762   5.994
80955SOL    HW244698   6.939  10.727   6.136
80956SOL     OW44699   5.869   7.235   3.142
80956SOL    HW144700   5.893   7.187   3.063
80956SOL    HW244701   5.776   7.253   3.134
80957SOL     OW44702   9.718   4.255   8.548
80957SOL    HW144703   9.707   4.177   8.602
80957SOL    HW244704   9.630   4.291   8.539
80958SOL     OW44705   4.923   3.800   8.506
80958SOL    HW144706   4.950   3.888   8.479
80958SOL    HW244707   4.859   3.773   8.440
80959SOL     OW44708   8.708   9.202   8.385
80959SOL    HW144709   8.744   9.247   8.461
80959SOL    HW244710   8.760   9.233   8.311
80960SOL     OW44711   5.220   1.694   7.519
80960SOL    HW144712   5.277   1.759   7.477
80960SOL    HW244713   5.269   1.612   7.514
80961SOL     OW44714   0.592   3.823   7.422
80961SOL    HW144715   0.676   3.818   7.467
80961SOL    HW244716   0.527   3.801   7.489
80962SOL     OW44717   4.933   5.898   8.932
80962SOL    HW144718   5.023   5.868   8.919
80962SOL    HW244719   4.940   5.994   8.933
80963SOL     OW44720   6.084  10.818  10.298
80963SOL    HW144721   6.157  10.787  10.350
80963SOL    HW244722   6.024  10.744  10.294
80964SOL     OW44723   4.695   1.448   6.921
80964SOL    HW144724   4.650   1.521   6.879
80964SOL    HW244725   4.771   1.432   6.865
80965SOL     OW44726  14.408   7.278  10.126
80965SOL    HW144727  14.315   7.259  10.131
80965SOL    HW244728  14.430   7.313  10.213
80966SOL     OW44729  12.895   3.337   2.095
80966SOL    HW144730  12.979   3.371   2.125
80966SOL    HW244731  12.857   3.409   2.045
80967SOL     OW44732   9.288   9.337   6.819
80967SOL    HW144733   9.250   9.409   6.869
80967SOL    HW244734   9.222   9.316   6.753
80968SOL     OW44735  13.699  13.844  10.842
80968SOL    HW144736  13.722  13.783  10.772
80968SOL    HW244737  13.647  13.912  10.799
80969SOL     OW44738   5.719  14.045   5.031
80969SOL    HW144739   5.740  14.019   5.121
80969SOL    HW244740   5.651  13.984   5.003
80970SOL     OW44741   7.570   3.073   4.845
80970SOL    HW144742   7.475   3.069   4.855
80970SOL    HW244743   7.599   3.132   4.915
80971SOL     OW44744   9.087   4.858   0.924
80971SOL    HW144745   8.991   4.858   0.921
80971SOL    HW244746   9.111   4.766   0.927
80972SOL     OW44747   8.533  13.116   8.103
80972SOL    HW144748   8.483  13.197   8.104
80972SOL    HW244749   8.494  13.065   8.031
80973SOL     OW44750  11.079   3.083   9.435
80973SOL    HW144751  11.013   3.119   9.376
80973SOL    HW244752  11.029   3.030   9.497
80974SOL     OW44753   8.697   7.683   5.154
80974SOL    HW144754   8.602   7.675   5.164
80974SOL    HW244755   8.725   7.731   5.232
80975SOL     OW44756   5.817  10.158   0.060
80975SOL    HW144757   5.900  10.110   0.066
80975SOL    HW244758   5.750  10.090   0.069
80976SOL     OW44759   5.201   1.509   1.997
80976SOL    HW144760   5.223   1.443   1.930
80976SOL    HW244761   5.256   1.584   1.975
80977SOL     OW44762   2.353   8.753  14.865
80977SOL    HW144763   2.312   8.816   0.050
80977SOL    HW244764   2.379   8.680   0.045
80978SOL     OW44765  13.666  13.779   3.669
80978SOL    HW144766  13.716  13.703   3.699
80978SOL    HW244767  13.578  13.765   3.703
80979SOL     OW44768   8.325  10.198  14.874
80979SOL    HW144769   8.288  10.258  14.810
80979SOL    HW244770   8.320  10.112  14.833
80980SOL     OW44771  12.081   3.900   5.381
80980SOL    HW144772  12.033   3.972   5.340
80980SOL    HW244773  12.097   3.930   5.471
80981SOL     OW44774   1.088   5.300  10.921
80981SOL    HW144775   1.085   5.391  10.951
80981SOL    HW244776   1.180   5.274  10.933
80982SOL     OW44777   8.422   9.668   5.052
80982SOL    HW144778   8.370   9.589   5.067
80982SOL    HW244779   8.468   9.683   5.135
80983SOL     OW44780   2.548   3.844  12.324
80983SOL    HW144781   2.617   3.786  12.357
80983SOL    HW244782   2.466   3.804  12.355
80984SOL     OW44783   7.609   4.445   6.827
80984SOL    HW144784   7.531   4.427   6.879
80984SOL    HW244785   7.587   4.524   6.777
80985SOL     OW44786   8.816   4.187   1.636
80985SOL    HW144787   8.766   4.174   1.555
80985SOL    HW244788   8.824   4.099   1.674
80986SOL     OW44789  14.193  13.775   2.948
80986SOL    HW144790  14.219  13.866   2.931
80986SOL    HW244791  14.134  13.753   2.876
80987SOL     OW44792   7.680   5.831  11.285
80987SOL    HW144793   7.699   5.738  11.287
80987SOL    HW244794   7.602   5.841  11.340
80988SOL     OW44795   4.039   3.416  14.486
80988SOL    HW144796   3.970   3.453  14.431
80988SOL    HW244797   4.016   3.441  14.575
80989SOL     OW44798  10.612   1.894   8.204
80989SOL    HW144799  10.534   1.923   8.251
80989SOL    HW244800  10.685   1.932   8.253
80990SOL     OW44801  13.360   4.518   1.061
80990SOL    HW144802  13.420   4.590   1.080
80990SOL    HW244803  13.376   4.497   0.969
80991SOL     OW44804   9.510   8.644   1.924
80991SOL    HW144805   9.453   8.667   1.997
80991SOL    HW244806   9.573   8.716   1.919
80992SOL     OW44807  11.835  12.102  12.472
80992SOL    HW144808  11.903  12.156  12.512
80992SOL    HW244809  11.782  12.164  12.423
80993SOL     OW44810   0.234  10.370   4.048
80993SOL    HW144811   0.287  10.293   4.072
80993SOL    HW244812   0.164  10.373   4.113
80994SOL     OW44813  10.579   3.787  10.699
80994SOL    HW144814  10.582   3.700  10.660
80994SOL    HW244815  10.566   3.846  10.625
80995SOL     OW44816   8.582   8.725  12.651
80995SOL    HW144817   8.600   8.689  12.738
80995SOL    HW244818   8.492   8.757  12.657
80996SOL     OW44819  10.126   5.015  11.957
80996SOL    HW144820  10.183   4.977  12.024
80996SOL    HW244821  10.037   4.991  11.984
80997SOL     OW44822   4.197   8.343   3.603
80997SOL    HW144823   4.249   8.285   3.660
80997SOL    HW244824   4.114   8.298   3.593
80998SOL     OW44825   1.025   9.374  14.388
80998SOL    HW144826   0.963   9.434  14.347
80998SOL    HW244827   1.046   9.415  14.472
80999SOL     OW44828   2.171   3.014  12.015
80999SOL    HW144829   2.251   2.973  12.048
80999SOL    HW244830   2.109   2.942  12.003
81000SOL     OW44831  10.973  14.844  10.695
81000SOL    HW144832  10.936  14.774  10.749
81000SOL    HW244833  10.927  14.837  10.612
81001SOL     OW44834   8.102   8.543  14.533
81001SOL    HW144835   8.037   8.478  14.560
81001SOL    HW244836   8.054   8.626  14.533
81002SOL     OW44837   2.259  10.631  13.528
81002SOL    HW144838   2.339  10.655  13.573
81002SOL    HW244839   2.288  10.604  13.441
81003SOL     OW44840   8.697   5.927  14.430
81003SOL    HW144841   8.775   5.953  14.381
81003SOL    HW244842   8.632   5.905  14.362
81004SOL     OW44843   2.790   7.696   8.990
81004SOL    HW144844   2.828   7.622   8.942
81004SOL    HW244845   2.864   7.732   9.039
81005SOL     OW44846  12.280  13.242   1.375
81005SOL    HW144847  12.220  13.266   1.305
81005SOL    HW244848  12.228  13.253   1.455
81006SOL     OW44849   3.288   0.278   8.535
81006SOL    HW144850   3.205   0.313   8.502
81006SOL    HW244851   3.299   0.318   8.621
81007SOL     OW44852  11.298  12.215   5.800
81007SOL    HW144853  11.334  12.246   5.717
81007SOL    HW244854  11.321  12.284   5.863
81008SOL     OW44855   0.287   1.929  10.223
81008SOL    HW144856   0.351   1.998  10.241
81008SOL    HW244857   0.328   1.849  10.256
81009SOL     OW44858   2.479   9.684   3.586
81009SOL    HW144859   2.387   9.685   3.558
81009SOL    HW244860   2.478   9.638   3.670
81010SOL     OW44861   7.378   4.735   0.703
81010SOL    HW144862   7.446   4.687   0.750
81010SOL    HW244863   7.425   4.791   0.642
81011SOL     OW44864  14.816   9.899   0.493
81011SOL    HW144865  14.835   9.892   0.399
81011SOL    HW244866  14.825   9.810   0.526
81012SOL     OW44867   3.974   7.689  13.225
81012SOL    HW144868   4.005   7.683  13.134
81012SOL    HW244869   3.948   7.599  13.247
81013SOL     OW44870   0.291   7.161   5.438
81013SOL    HW144871   0.378   7.148   5.476
81013SOL    HW244872   0.305   7.154   5.343
81014SOL     OW44873   9.438   9.052  10.758
81014SOL    HW144874   9.440   9.127  10.817
81014SOL    HW244875   9.347   9.047  10.728
81015SOL     OW44876  13.535   3.871  11.761
81015SOL    HW144877  13.581   3.871  11.845
81015SOL    HW244878  13.471   3.942  11.770
81016SOL     OW44879  12.277   1.858   1.273
81016SOL    HW144880  12.322   1.776   1.296
81016SOL    HW244881  12.233   1.884   1.354
81017SOL     OW44882   1.823  11.483   2.271
81017SOL    HW144883   1.909  11.453   2.240
81017SOL    HW244884   1.760  11.427   2.226
81018SOL     OW44885   0.430  14.094  11.536
81018SOL    HW144886   0.347  14.073  11.578
81018SOL    HW244887   0.429  14.044  11.454
81019SOL     OW44888  10.565  13.321   1.897
81019SOL    HW144889  10.628  13.270   1.949
81019SOL    HW244890  10.490  13.262   1.886
81020SOL     OW44891   0.225   4.283   9.777
81020SOL    HW144892   0.198   4.353   9.717
81020SOL    HW244893   0.269   4.219   9.720
81021SOL     OW44894   2.883   5.545  10.016
81021SOL    HW144895   2.873   5.576   9.926
81021SOL    HW244896   2.822   5.472  10.023
81022SOL     OW44897  10.585   9.371  13.498
81022SOL    HW144898  10.629   9.431  13.558
81022SOL    HW244899  10.518   9.425  13.456
81023SOL     OW44900   8.621  10.403   1.320
81023SOL    HW144901   8.642  10.475   1.260
81023SOL    HW244902   8.547  10.359   1.280
81024SOL     OW44903   4.725  12.964  13.151
81024SOL    HW144904   4.737  12.988  13.059
81024SOL    HW244905   4.631  12.974  13.166
81025SOL     OW44906   7.711   7.293  14.648
81025SOL    HW144907   7.728   7.324  14.737
81025SOL    HW244908   7.792   7.247  14.624
81026SOL     OW44909   1.573   2.940   7.025
81026SOL    HW144910   1.558   2.972   6.936
81026SOL    HW244911   1.667   2.954   7.040
81027SOL     OW44912  13.482  12.904  10.616
81027SOL    HW144913  13.545  12.973  10.594
81027SOL    HW244914  13.459  12.864  10.533
81028SOL     OW44915  10.909  13.715  12.309
81028SOL    HW144916  10.951  13.796  12.337
81028SOL    HW244917  10.973  13.647  12.329
81029SOL     OW44918  14.454   2.251   4.258
81029SOL    HW144919  14.398   2.223   4.186
81029SOL    HW244920  14.406   2.321   4.300
81030SOL     OW44921   4.093   4.021   4.665
81030SOL    HW144922   4.162   3.956   4.676
81030SOL    HW244923   4.059   4.007   4.577
81031SOL     OW44924   6.570  12.032   9.427
81031SOL    HW144925   6.625  12.103   9.462
81031SOL    HW244926   6.510  12.011   9.499
81032SOL     OW44927  13.156   5.742   9.966
81032SOL    HW144928  13.133   5.758  10.057
81032SOL    HW244929  13.161   5.646   9.958
81033SOL     OW44930  13.418   9.581   5.696
81033SOL    HW144931  13.509   9.552   5.692
81033SOL    HW244932  13.375   9.519   5.755
81034SOL     OW44933   4.772   6.216   9.259
81034SOL    HW144934   4.777   6.307   9.288
81034SOL    HW244935   4.860   6.181   9.276
81035SOL     OW44936   5.636  11.941   8.781
81035SOL    HW144937   5.615  11.956   8.689
81035SOL    HW244938   5.731  11.954   8.787
81036SOL     OW44939   6.054  11.707   0.842
81036SOL    HW144940   5.968  11.747   0.854
81036SOL    HW244941   6.100  11.722   0.925
81037SOL     OW44942   6.078   6.180   2.052
81037SOL    HW144943   6.123   6.174   2.136
81037SOL    HW244944   6.142   6.221   1.993
81038SOL     OW44945  13.513   0.122   0.066
81038SOL    HW144946  13.547   0.198   0.020
81038SOL    HW244947  13.423   0.113   0.034
81039SOL     OW44948   5.975   4.397   6.290
81039SOL    HW144949   5.947   4.319   6.243
81039SOL    HW244950   6.017   4.363   6.369
81040SOL     OW44951   2.985   5.486   5.796
81040SOL    HW144952   3.060   5.533   5.758
81040SOL    HW244953   2.945   5.442   5.722
81041SOL     OW44954   9.598   8.621   7.992
81041SOL    HW144955   9.551   8.546   8.029
81041SOL    HW244956   9.639   8.663   8.067
81042SOL     OW44957   2.545   9.203   5.054
81042SOL    HW144958   2.620   9.191   4.996
81042SOL    HW244959   2.583   9.232   5.137
81043SOL     OW44960  13.307  12.893   1.160
81043SOL    HW144961  13.226  12.842   1.161
81043SOL    HW244962  13.373  12.834   1.196
81044SOL     OW44963  14.639  10.921  13.663
81044SOL    HW144964  14.647  10.828  13.683
81044SOL    HW244965  14.646  10.925  13.567
81045SOL     OW44966   3.111  10.924   0.393
81045SOL    HW144967   3.040  10.903   0.333
81045SOL    HW244968   3.097  10.866   0.468
81046SOL     OW44969   6.691  11.691  14.752
81046SOL    HW144970   6.709  11.740  14.672
81046SOL    HW244971   6.616  11.735  14.791
81047SOL     OW44972   3.055  10.875   9.680
81047SOL    HW144973   3.097  10.836   9.756
81047SOL    HW244974   3.117  10.862   9.608
81048SOL     OW44975   3.956  10.405   1.103
81048SOL    HW144976   4.013  10.382   1.176
81048SOL    HW244977   3.921  10.321   1.073
81049SOL     OW44978   2.839   7.448   8.603
81049SOL    HW144979   2.805   7.374   8.553
81049SOL    HW244980   2.822   7.525   8.549
81050SOL     OW44981   7.614  14.067  12.189
81050SOL    HW144982   7.576  13.988  12.227
81050SOL    HW244983   7.696  14.038  12.150
81051SOL     OW44984   1.053   2.310   0.201
81051SOL    HW144985   1.076   2.328   0.292
81051SOL    HW244986   1.086   2.386   0.152
81052SOL     OW44987  10.505  14.437  10.514
81052SOL    HW144988  10.492  14.414  10.422
81052SOL    HW244989  10.429  14.490  10.537
81053SOL     OW44990  14.665   0.358   9.510
81053SOL    HW144991  14.639   0.396   9.594
81053SOL    HW244992  14.759   0.341   9.520
81054SOL     OW44993  12.009   4.343   9.730
81054SOL    HW144994  11.945   4.412   9.749
81054SOL    HW244995  12.084   4.390   9.692
81055SOL     OW44996   6.469   3.671  12.543
81055SOL    HW144997   6.445   3.764  12.545
81055SOL    HW244998   6.387   3.625  12.564
81056SOL     OW44999   1.386   1.258   2.919
81056SOL    HW145000   1.419   1.343   2.946
81056SOL    HW245001   1.449   1.195   2.953
81057SOL     OW45002  14.394   7.115  11.595
81057SOL    HW145003  14.407   7.201  11.556
81057SOL    HW245004  14.386   7.132  11.689
81058SOL     OW45005   8.022  14.791   8.456
81058SOL    HW145006   8.044   0.006   8.434
81058SOL    HW245007   8.008  14.748   8.372
81059SOL     OW45008   8.301   4.118   0.239
81059SOL    HW145009   8.366   4.105   0.170
81059SOL    HW245010   8.217   4.123   0.193
81060SOL     OW45011  14.612   7.519   1.725
81060SOL    HW145012  14.575   7.523   1.637
81060SOL    HW245013  14.686   7.459   1.717
81061SOL     OW45014   7.339   0.892   1.142
81061SOL    HW145015   7.273   0.936   1.088
81061SOL    HW245016   7.416   0.948   1.135
81062SOL     OW45017   8.813   5.910  12.342
81062SOL    HW145018   8.792   5.978  12.279
81062SOL    HW245019   8.905   5.925  12.365
81063SOL     OW45020   8.338  12.953  10.391
81063SOL    HW145021   8.289  12.930  10.470
81063SOL    HW245022   8.344  12.872  10.341
81064SOL     OW45023  12.978   8.927   5.490
81064SOL    HW145024  12.990   8.969   5.405
81064SOL    HW245025  13.059   8.877   5.502
81065SOL     OW45026  12.370  13.740   9.523
81065SOL    HW145027  12.433  13.796   9.478
81065SOL    HW245028  12.388  13.652   9.491
81066SOL     OW45029   8.645   0.679   1.090
81066SOL    HW145030   8.592   0.755   1.114
81066SOL    HW245031   8.647   0.625   1.169
81067SOL     OW45032  13.997   3.467  13.984
81067SOL    HW145033  14.006   3.535  13.918
81067SOL    HW245034  14.080   3.420  13.982
81068SOL     OW45035   8.785  14.379  14.214
81068SOL    HW145036   8.782  14.357  14.121
81068SOL    HW245037   8.778  14.474  14.217
81069SOL     OW45038   5.624   3.583   6.893
81069SOL    HW145039   5.540   3.549   6.923
81069SOL    HW245040   5.661   3.627   6.969
81070SOL     OW45041   4.312  11.681  12.551
81070SOL    HW145042   4.404  11.655  12.548
81070SOL    HW245043   4.296  11.723  12.467
81071SOL     OW45044  12.285   1.776  12.600
81071SOL    HW145045  12.269   1.864  12.633
81071SOL    HW245046  12.244   1.718  12.664
81072SOL     OW45047  14.732   4.829   7.856
81072SOL    HW145048  14.672   4.886   7.809
81072SOL    HW245049  14.717   4.848   7.948
81073SOL     OW45050   0.122   6.276   5.263
81073SOL    HW145051   0.060   6.349   5.262
81073SOL    HW245052   0.108   6.232   5.179
81074SOL     OW45053  10.205   8.066   7.300
81074SOL    HW145054  10.177   8.107   7.382
81074SOL    HW245055  10.127   8.067   7.244
81075SOL     OW45056   5.242  13.666   5.408
81075SOL    HW145057   5.244  13.758   5.434
81075SOL    HW245058   5.148  13.645   5.400
81076SOL     OW45059   9.103   0.017  11.119
81076SOL    HW145060   9.127  14.862  11.032
81076SOL    HW245061   9.138   0.106  11.123
81077SOL     OW45062  12.376   1.730   5.594
81077SOL    HW145063  12.340   1.789   5.527
81077SOL    HW245064  12.311   1.730   5.663
81078SOL     OW45065   8.554  13.308   7.442
81078SOL    HW145066   8.639  13.271   7.420
81078SOL    HW245067   8.542  13.288   7.535
81079SOL     OW45068   0.453   2.799   2.200
81079SOL    HW145069   0.454   2.703   2.202
81079SOL    HW245070   0.362   2.821   2.178
81080SOL     OW45071   3.542   2.587   9.621
81080SOL    HW145072   3.534   2.638   9.540
81080SOL    HW245073   3.598   2.513   9.596
81081SOL     OW45074   0.624   0.848   3.937
81081SOL    HW145075   0.546   0.831   3.884
81081SOL    HW245076   0.678   0.770   3.927
81082SOL     OW45077   7.791   2.370   4.850
81082SOL    HW145078   7.742   2.382   4.931
81082SOL    HW245079   7.724   2.365   4.782
81083SOL     OW45080   3.287   2.672   9.193
81083SOL    HW145081   3.359   2.611   9.206
81083SOL    HW245082   3.317   2.753   9.235
81084SOL     OW45083   9.949   5.208   9.580
81084SOL    HW145084   9.921   5.159   9.502
81084SOL    HW245085   9.968   5.296   9.547
81085SOL     OW45086   9.456   6.083   7.812
81085SOL    HW145087   9.550   6.089   7.823
81085SOL    HW245088   9.424   6.172   7.828
81086SOL     OW45089   9.983   7.670   8.842
81086SOL    HW145090   9.907   7.625   8.805
81086SOL    HW245091   9.945   7.741   8.895
81087SOL     OW45092   2.746   8.894   6.558
81087SOL    HW145093   2.757   8.924   6.649
81087SOL    HW245094   2.812   8.826   6.547
81088SOL     OW45095   4.277   1.198   5.639
81088SOL    HW145096   4.336   1.268   5.667
81088SOL    HW245097   4.301   1.123   5.694
81089SOL     OW45098   2.150   9.840   8.758
81089SOL    HW145099   2.124   9.834   8.666
81089SOL    HW245100   2.096   9.775   8.803
81090SOL     OW45101   7.926   8.829   3.195
81090SOL    HW145102   7.833   8.831   3.174
81090SOL    HW245103   7.945   8.737   3.212
81091SOL     OW45104   9.529   3.416  11.912
81091SOL    HW145105   9.562   3.426  11.823
81091SOL    HW245106   9.529   3.505  11.947
81092SOL     OW45107  14.403   7.642   2.910
81092SOL    HW145108  14.350   7.693   2.971
81092SOL    HW245109  14.422   7.702   2.838
81093SOL     OW45110  14.787  10.558   4.403
81093SOL    HW145111  14.841  10.601   4.469
81093SOL    HW245112  14.832  10.476   4.384
81094SOL     OW45113  13.061   1.361  13.214
81094SOL    HW145114  13.017   1.292  13.263
81094SOL    HW245115  13.070   1.433  13.277
81095SOL     OW45116   9.437   0.535  11.297
81095SOL    HW145117   9.425   0.559  11.205
81095SOL    HW245118   9.479   0.612  11.336
81096SOL     OW45119  10.421  14.396  11.178
81096SOL    HW145120  10.455  14.424  11.263
81096SOL    HW245121  10.355  14.330  11.200
81097SOL     OW45122   6.213   0.801   5.917
81097SOL    HW145123   6.194   0.890   5.946
81097SOL    HW245124   6.307   0.800   5.903
81098SOL     OW45125  11.574   5.421   7.050
81098SOL    HW145126  11.596   5.444   7.140
81098SOL    HW245127  11.623   5.341   7.033
81099SOL     OW45128  13.051   9.119   3.178
81099SOL    HW145129  13.132   9.124   3.230
81099SOL    HW245130  13.011   9.037   3.205
81100SOL     OW45131   8.525  13.752  10.117
81100SOL    HW145132   8.500  13.691  10.048
81100SOL    HW245133   8.561  13.697  10.186
81101SOL     OW45134   6.914   4.203   0.775
81101SOL    HW145135   6.864   4.253   0.711
81101SOL    HW245136   6.967   4.269   0.820
81102SOL     OW45137  14.862  13.821   1.696
81102SOL    HW145138   0.080  13.830   1.677
81102SOL    HW245139  14.824  13.790   1.614
81103SOL     OW45140   8.431   9.151   4.790
81103SOL    HW145141   8.401   9.176   4.877
81103SOL    HW245142   8.350   9.138   4.740
81104SOL     OW45143   4.113   4.214   5.721
81104SOL    HW145144   4.063   4.183   5.797
81104SOL    HW245145   4.134   4.305   5.741
81105SOL     OW45146   3.807   8.311   0.211
81105SOL    HW145147   3.780   8.283   0.298
81105SOL    HW245148   3.902   8.302   0.210
81106SOL     OW45149   0.150  14.500  13.450
81106SOL    HW145150   0.178  14.424  13.501
81106SOL    HW245151   0.076  14.468  13.399
81107SOL     OW45152   1.161  12.622   9.991
81107SOL    HW145153   1.126  12.536   9.969
81107SOL    HW245154   1.250  12.622   9.957
81108SOL     OW45155   1.158  11.114   8.191
81108SOL    HW145156   1.226  11.159   8.242
81108SOL    HW245157   1.141  11.033   8.240
81109SOL     OW45158   5.998   0.780  10.885
81109SOL    HW145159   6.071   0.841  10.893
81109SOL    HW245160   5.960   0.776  10.972
81110SOL     OW45161   3.971   4.694   2.215
81110SOL    HW145162   3.966   4.790   2.217
81110SOL    HW245163   3.896   4.667   2.162
81111SOL     OW45164  12.145  13.793   8.114
81111SOL    HW145165  12.114  13.876   8.149
81111SOL    HW245166  12.228  13.814   8.071
81112SOL     OW45167   4.460   5.444   5.674
81112SOL    HW145168   4.456   5.521   5.617
81112SOL    HW245169   4.440   5.370   5.616
81113SOL     OW45170  13.692   4.049   3.155
81113SOL    HW145171  13.712   4.002   3.236
81113SOL    HW245172  13.700   4.142   3.179
81114SOL     OW45173   5.672   7.856  13.140
81114SOL    HW145174   5.724   7.776  13.136
81114SOL    HW245175   5.664   7.874  13.234
81115SOL     OW45176  14.612   6.765   1.533
81115SOL    HW145177  14.661   6.685   1.554
81115SOL    HW245178  14.670   6.836   1.559
81116SOL     OW45179   5.247   9.102   9.897
81116SOL    HW145180   5.159   9.132   9.920
81116SOL    HW245181   5.284   9.174   9.845
81117SOL     OW45182   7.144  11.915  11.259
81117SOL    HW145183   7.174  11.995  11.215
81117SOL    HW245184   7.172  11.844  11.202
81118SOL     OW45185   5.298   2.290  13.578
81118SOL    HW145186   5.302   2.224  13.647
81118SOL    HW245187   5.205   2.305  13.564
81119SOL     OW45188   7.712   6.017   2.088
81119SOL    HW145189   7.748   6.101   2.062
81119SOL    HW245190   7.744   6.004   2.178
81120SOL     OW45191  12.389   7.461  11.773
81120SOL    HW145192  12.390   7.556  11.777
81120SOL    HW245193  12.296   7.437  11.778
81121SOL     OW45194  11.828  12.668   1.593
81121SOL    HW145195  11.781  12.751   1.599
81121SOL    HW245196  11.836  12.637   1.683
81122SOL     OW45197  12.913  13.087   3.436
81122SOL    HW145198  12.933  13.022   3.504
81122SOL    HW245199  12.818  13.081   3.425
81123SOL     OW45200   3.667   0.646   8.310
81123SOL    HW145201   3.724   0.630   8.235
81123SOL    HW245202   3.615   0.566   8.318
81124SOL     OW45203   4.968   9.792   5.098
81124SOL    HW145204   5.024   9.750   5.164
81124SOL    HW245205   4.910   9.848   5.149
81125SOL     OW45206   4.814   4.842   0.747
81125SOL    HW145207   4.738   4.789   0.771
81125SOL    HW245208   4.868   4.782   0.695
81126SOL     OW45209   8.387  12.656  10.590
81126SOL    HW145210   8.467  12.606  10.577
81126SOL    HW245211   8.380  12.666  10.685
81127SOL     OW45212   1.050  11.703   4.391
81127SOL    HW145213   1.092  11.779   4.430
81127SOL    HW245214   0.956  11.721   4.399
81128SOL     OW45215  10.418  12.859  13.359
81128SOL    HW145216  10.440  12.951  13.341
81128SOL    HW245217  10.503  12.819  13.379
81129SOL     OW45218   3.234   1.223  10.905
81129SOL    HW145219   3.233   1.319  10.896
81129SOL    HW245220   3.320   1.197  10.872
81130SOL     OW45221  10.989   8.412   2.732
81130SOL    HW145222  11.082   8.398   2.715
81130SOL    HW245223  10.984   8.432   2.825
81131SOL     OW45224   7.059   3.332   2.347
81131SOL    HW145225   7.027   3.356   2.434
81131SOL    HW245226   6.982   3.295   2.303
81132SOL     OW45227   5.528   6.417   8.954
81132SOL    HW145228   5.552   6.346   9.014
81132SOL    HW245229   5.548   6.382   8.867
81133SOL     OW45230   4.551   5.281   3.966
81133SOL    HW145231   4.478   5.232   4.004
81133SOL    HW245232   4.619   5.280   4.034
81134SOL     OW45233  14.661   9.570  13.231
81134SOL    HW145234  14.693   9.630  13.164
81134SOL    HW245235  14.674   9.483  13.193
81135SOL     OW45236  10.735  11.954   9.201
81135SOL    HW145237  10.795  11.950   9.275
81135SOL    HW245238  10.791  11.945   9.124
81136SOL     OW45239  12.183   6.066   3.133
81136SOL    HW145240  12.254   6.022   3.178
81136SOL    HW245241  12.134   5.995   3.091
81137SOL     OW45242   0.527   3.993  13.711
81137SOL    HW145243   0.590   3.928  13.681
81137SOL    HW245244   0.457   3.990  13.645
81138SOL     OW45245  12.950   3.416   0.260
81138SOL    HW145246  13.041   3.403   0.234
81138SOL    HW245247  12.955   3.474   0.336
81139SOL     OW45248   3.913   3.910   2.381
81139SOL    HW145249   3.961   3.926   2.462
81139SOL    HW245250   3.907   3.814   2.375
81140SOL     OW45251   6.083   9.773  12.139
81140SOL    HW145252   6.102   9.705  12.074
81140SOL    HW245253   6.144   9.755  12.211
81141SOL     OW45254   4.300   7.061   1.709
81141SOL    HW145255   4.379   7.031   1.754
81141SOL    HW245256   4.318   7.047   1.616
81142SOL     OW45257  12.650   7.508   0.311
81142SOL    HW145258  12.728   7.481   0.262
81142SOL    HW245259  12.636   7.438   0.374
81143SOL     OW45260  12.913   4.501  13.075
81143SOL    HW145261  13.003   4.535  13.077
81143SOL    HW245262  12.880   4.526  12.988
81144SOL     OW45263  14.720  14.338   1.617
81144SOL    HW145264  14.710  14.358   1.524
81144SOL    HW245265  14.764  14.414   1.653
81145SOL     OW45266  11.276  13.990   7.286
81145SOL    HW145267  11.247  14.019   7.373
81145SOL    HW245268  11.224  13.911   7.269
81146SOL     OW45269   4.430   2.000  12.641
81146SOL    HW145270   4.402   1.956  12.561
81146SOL    HW245271   4.375   1.962  12.710
81147SOL     OW45272  13.834  12.720  12.481
81147SOL    HW145273  13.772  12.651  12.459
81147SOL    HW245274  13.896  12.679  12.541
81148SOL     OW45275   9.468  12.048   1.885
81148SOL    HW145276   9.373  12.047   1.896
81148SOL    HW245277   9.499  12.109   1.953
81149SOL     OW45278  10.131   3.075  13.931
81149SOL    HW145279  10.066   3.018  13.890
81149SOL    HW245280  10.088   3.160  13.938
81150SOL     OW45281   1.752   2.466   0.361
81150SOL    HW145282   1.802   2.419   0.294
81150SOL    HW245283   1.777   2.423   0.443
81151SOL     OW45284   2.138   4.744   5.503
81151SOL    HW145285   2.123   4.725   5.410
81151SOL    HW245286   2.114   4.664   5.549
81152SOL     OW45287   8.274  13.021  12.923
81152SOL    HW145288   8.280  13.098  12.980
81152SOL    HW245289   8.246  12.950  12.982
81153SOL     OW45290   5.200   1.539   3.907
81153SOL    HW145291   5.221   1.632   3.904
81153SOL    HW245292   5.155   1.527   3.991
81154SOL     OW45293  11.771  13.437   6.030
81154SOL    HW145294  11.711  13.363   6.030
81154SOL    HW245295  11.822  13.427   6.110
81155SOL     OW45296   9.122   1.481   3.523
81155SOL    HW145297   9.039   1.526   3.515
81155SOL    HW245298   9.166   1.524   3.596
81156SOL     OW45299  12.753   1.929   0.273
81156SOL    HW145300  12.674   1.889   0.308
81156SOL    HW245301  12.722   1.984   0.201
81157SOL     OW45302  14.285  11.469   3.627
81157SOL    HW145303  14.243  11.487   3.711
81157SOL    HW245304  14.306  11.376   3.630
81158SOL     OW45305   0.723  11.569   6.121
81158SOL    HW145306   0.756  11.553   6.210
81158SOL    HW245307   0.801  11.592   6.071
81159SOL     OW45308  11.741  14.591  13.584
81159SOL    HW145309  11.804  14.543  13.530
81159SOL    HW245310  11.786  14.603  13.668
81160SOL     OW45311   8.420  13.975   0.001
81160SOL    HW145312   8.491  14.035  14.857
81160SOL    HW245313   8.454  13.888  14.855
81161SOL     OW45314  14.200  13.875   2.277
81161SOL    HW145315  14.130  13.924   2.320
81161SOL    HW245316  14.199  13.906   2.186
81162SOL     OW45317  10.225  12.744   9.610
81162SOL    HW145318  10.163  12.786   9.550
81162SOL    HW245319  10.255  12.816   9.666
81163SOL     OW45320  13.467   8.317  12.998
81163SOL    HW145321  13.463   8.232  13.042
81163SOL    HW245322  13.378   8.351  13.004
81164SOL     OW45323   4.956   2.208   1.514
81164SOL    HW145324   4.997   2.271   1.455
81164SOL    HW245325   5.027   2.172   1.566
81165SOL     OW45326   9.358   5.095  10.418
81165SOL    HW145327   9.273   5.092  10.373
81165SOL    HW245328   9.403   5.016  10.389
81166SOL     OW45329  14.202   9.445   4.112
81166SOL    HW145330  14.279   9.489   4.077
81166SOL    HW245331  14.229   9.416   4.199
81167SOL     OW45332  11.393  13.356   0.535
81167SOL    HW145333  11.360  13.273   0.502
81167SOL    HW245334  11.370  13.356   0.628
81168SOL     OW45335   1.746   7.908   9.631
81168SOL    HW145336   1.725   7.991   9.587
81168SOL    HW245337   1.835   7.889   9.603
81169SOL     OW45338   9.863  13.488   9.495
81169SOL    HW145339   9.863  13.400   9.457
81169SOL    HW245340   9.882  13.473   9.588
81170SOL     OW45341   2.433   3.611   1.033
81170SOL    HW145342   2.511   3.659   1.060
81170SOL    HW245343   2.448   3.592   0.940
81171SOL     OW45344   0.508  11.588   5.600
81171SOL    HW145345   0.527  11.523   5.668
81171SOL    HW245346   0.418  11.617   5.619
81172SOL     OW45347   2.934   1.129   8.690
81172SOL    HW145348   2.848   1.164   8.668
81172SOL    HW245349   2.978   1.121   8.606
81173SOL     OW45350   5.271   0.543  14.363
81173SOL    HW145351   5.302   0.453  14.372
81173SOL    HW245352   5.251   0.552  14.269
81174SOL     OW45353   3.452  12.656  14.164
81174SOL    HW145354   3.454  12.586  14.099
81174SOL    HW245355   3.392  12.624  14.231
81175SOL     OW45356  11.363  13.495   5.316
81175SOL    HW145357  11.449  13.532   5.331
81175SOL    HW245358  11.303  13.553   5.363
81176SOL     OW45359   9.369  10.272   9.088
81176SOL    HW145360   9.293  10.261   9.144
81176SOL    HW245361   9.339  10.328   9.016
81177SOL     OW45362   9.910  13.306   8.493
81177SOL    HW145363   9.891  13.379   8.553
81177SOL    HW245364   9.997  13.277   8.519
81178SOL     OW45365   5.479   4.608   4.229
81178SOL    HW145366   5.572   4.630   4.233
81178SOL    HW245367   5.438   4.683   4.185
81179SOL     OW45368   2.361   1.678   3.498
81179SOL    HW145369   2.424   1.685   3.427
81179SOL    HW245370   2.350   1.768   3.529
81180SOL     OW45371   0.565   4.194   7.251
81180SOL    HW145372   0.481   4.191   7.204
81180SOL    HW245373   0.544   4.236   7.334
81181SOL     OW45374   0.902  13.101  11.133
81181SOL    HW145375   0.908  13.063  11.221
81181SOL    HW245376   0.984  13.074  11.090
81182SOL     OW45377   4.696   4.308   1.578
81182SOL    HW145378   4.636   4.238   1.551
81182SOL    HW245379   4.651   4.389   1.556
81183SOL     OW45380   0.052  12.869   0.486
81183SOL    HW145381   0.020  12.857   0.576
81183SOL    HW245382  14.852  12.900   0.437
81184SOL     OW45383  11.450  10.840   7.700
81184SOL    HW145384  11.513  10.911   7.693
81184SOL    HW245385  11.400  10.861   7.779
81185SOL     OW45386  14.193  10.155   5.497
81185SOL    HW145387  14.099  10.164   5.484
81185SOL    HW245388  14.201  10.093   5.570
81186SOL     OW45389   0.211   6.021  14.062
81186SOL    HW145390   0.274   5.998  14.130
81186SOL    HW245391   0.210   6.116  14.060
81187SOL     OW45392   5.583   4.208   9.685
81187SOL    HW145393   5.516   4.264   9.724
81187SOL    HW245394   5.563   4.121   9.718
81188SOL     OW45395   4.450  11.188   5.285
81188SOL    HW145396   4.467  11.104   5.329
81188SOL    HW245397   4.472  11.254   5.350
81189SOL     OW45398  10.676  11.992  11.818
81189SOL    HW145399  10.610  12.062  11.820
81189SOL    HW245400  10.683  11.963  11.908
81190SOL     OW45401   6.525  10.778  13.268
81190SOL    HW145402   6.539  10.803  13.360
81190SOL    HW245403   6.540  10.684  13.267
81191SOL     OW45404   0.677   8.655   1.111
81191SOL    HW145405   0.711   8.692   1.030
81191SOL    HW245406   0.672   8.561   1.093
81192SOL     OW45407   8.462   9.429   4.322
81192SOL    HW145408   8.439   9.342   4.355
81192SOL    HW245409   8.429   9.430   4.232
81193SOL     OW45410   0.034   9.448  13.404
81193SOL    HW145411  14.837   9.489  13.451
81193SOL    HW245412   0.047   9.504  13.327
81194SOL     OW45413   8.346  12.623   0.637
81194SOL    HW145414   8.291  12.556   0.678
81194SOL    HW245415   8.289  12.662   0.570
81195SOL     OW45416   8.473  13.931   5.490
81195SOL    HW145417   8.466  13.877   5.569
81195SOL    HW245418   8.519  14.010   5.519
81196SOL     OW45419  10.066   5.244  11.025
81196SOL    HW145420   9.981   5.239  11.069
81196SOL    HW245421  10.109   5.320  11.063
81197SOL     OW45422  12.509   3.388  14.058
81197SOL    HW145423  12.528   3.308  14.010
81197SOL    HW245424  12.503   3.456  13.991
81198SOL     OW45425  10.851   2.871   2.488
81198SOL    HW145426  10.904   2.945   2.460
81198SOL    HW245427  10.907   2.823   2.550
81199SOL     OW45428  13.345  13.589   5.820
81199SOL    HW145429  13.256  13.614   5.798
81199SOL    HW245430  13.366  13.518   5.760
81200SOL     OW45431  10.606   7.755   3.401
81200SOL    HW145432  10.614   7.683   3.339
81200SOL    HW245433  10.523   7.797   3.379
81201SOL     OW45434  14.258   0.331  13.242
81201SOL    HW145435  14.164   0.336  13.260
81201SOL    HW245436  14.293   0.278  13.313
81202SOL     OW45437   4.802   4.837   8.120
81202SOL    HW145438   4.716   4.802   8.145
81202SOL    HW245439   4.798   4.929   8.145
81203SOL     OW45440   0.665   1.774   5.223
81203SOL    HW145441   0.746   1.723   5.228
81203SOL    HW245442   0.630   1.773   5.312
81204SOL     OW45443  11.970   0.228   9.848
81204SOL    HW145444  11.907   0.203   9.915
81204SOL    HW245445  11.917   0.259   9.775
81205SOL     OW45446  14.849  12.282   9.947
81205SOL    HW145447  14.769  12.245   9.909
81205SOL    HW245448  14.822  12.367   9.981
81206SOL     OW45449   2.527   1.420  14.446
81206SOL    HW145450   2.581   1.490  14.410
81206SOL    HW245451   2.511   1.446  14.537
81207SOL     OW45452   8.920  12.774   9.521
81207SOL    HW145453   8.892  12.801   9.434
81207SOL    HW245454   8.899  12.681   9.526
81208SOL     OW45455   9.257   8.998   9.736
81208SOL    HW145456   9.222   9.078   9.776
81208SOL    HW245457   9.334   9.027   9.687
81209SOL     OW45458  10.208   3.458   5.555
81209SOL    HW145459  10.256   3.403   5.492
81209SOL    HW245460  10.158   3.395   5.607
81210SOL     OW45461   0.827   7.405   2.523
81210SOL    HW145462   0.776   7.483   2.503
81210SOL    HW245463   0.896   7.404   2.456
81211SOL     OW45464   4.875   6.820  14.593
81211SOL    HW145465   4.918   6.784  14.515
81211SOL    HW245466   4.845   6.907  14.566
81212SOL     OW45467   6.475  12.598   8.499
81212SOL    HW145468   6.527  12.519   8.484
81212SOL    HW245469   6.418  12.604   8.422
81213SOL     OW45470   1.704  13.986  10.733
81213SOL    HW145471   1.713  14.081  10.733
81213SOL    HW245472   1.694  13.962  10.825
81214SOL     OW45473  10.939   4.689   6.504
81214SOL    HW145474  10.849   4.722   6.496
81214SOL    HW245475  10.947   4.661   6.595
81215SOL     OW45476  13.805   0.707   1.689
81215SOL    HW145477  13.815   0.801   1.704
81215SOL    HW245478  13.764   0.701   1.603
81216SOL     OW45479   4.140   0.355  14.095
81216SOL    HW145480   4.121   0.272  14.140
81216SOL    HW245481   4.073   0.415  14.127
81217SOL     OW45482   8.433   1.785   2.977
81217SOL    HW145483   8.346   1.821   2.993
81217SOL    HW245484   8.450   1.805   2.885
81218SOL     OW45485   4.226   7.782   3.407
81218SOL    HW145486   4.184   7.847   3.463
81218SOL    HW245487   4.154   7.734   3.367
81219SOL     OW45488  12.377   1.887   5.887
81219SOL    HW145489  12.382   1.792   5.898
81219SOL    HW245490  12.288   1.904   5.857
81220SOL     OW45491   8.275   9.237   9.531
81220SOL    HW145492   8.276   9.146   9.500
81220SOL    HW245493   8.277   9.229   9.627
81221SOL     OW45494   6.975   4.412  10.482
81221SOL    HW145495   7.008   4.495  10.516
81221SOL    HW245496   6.983   4.420  10.387
81222SOL     OW45497   4.329   2.654  12.754
81222SOL    HW145498   4.323   2.745  12.784
81222SOL    HW245499   4.360   2.660  12.664
81223SOL     OW45500  14.318   5.169   1.289
81223SOL    HW145501  14.407   5.198   1.269
81223SOL    HW245502  14.282   5.239   1.344
81224SOL     OW45503  12.476   9.663   6.980
81224SOL    HW145504  12.424   9.684   6.903
81224SOL    HW245505  12.416   9.673   7.054
81225SOL     OW45506   0.592  12.240  10.452
81225SOL    HW145507   0.624  12.159  10.413
81225SOL    HW245508   0.531  12.211  10.520
81226SOL     OW45509   7.913   4.472   2.951
81226SOL    HW145510   7.837   4.418   2.927
81226SOL    HW245511   7.918   4.537   2.881
81227SOL     OW45512   5.032  12.778   9.692
81227SOL    HW145513   5.033  12.757   9.598
81227SOL    HW245514   4.940  12.783   9.715
81228SOL     OW45515   9.284  13.423  14.729
81228SOL    HW145516   9.223  13.461  14.792
81228SOL    HW245517   9.352  13.490  14.719
81229SOL     OW45518   8.554  13.331   8.758
81229SOL    HW145519   8.540  13.270   8.685
81229SOL    HW245520   8.648  13.326   8.775
81230SOL     OW45521  11.427   9.537   0.309
81230SOL    HW145522  11.484   9.568   0.379
81230SOL    HW245523  11.404   9.615   0.259
81231SOL     OW45524   3.881  13.794  10.992
81231SOL    HW145525   3.908  13.848  11.066
81231SOL    HW245526   3.799  13.833  10.962
81232SOL     OW45527   6.742   3.235  12.232
81232SOL    HW145528   6.678   3.290  12.277
81232SOL    HW245529   6.826   3.275  12.250
81233SOL     OW45530   8.644  10.660  10.663
81233SOL    HW145531   8.562  10.611  10.665
81233SOL    HW245532   8.710  10.598  10.692
81234SOL     OW45533   7.726   5.278   1.977
81234SOL    HW145534   7.769   5.324   1.905
81234SOL    HW245535   7.662   5.340   2.012
81235SOL     OW45536   5.263   5.818   9.895
81235SOL    HW145537   5.207   5.860   9.829
81235SOL    HW245538   5.272   5.885   9.964
81236SOL     OW45539   2.490  12.045   2.241
81236SOL    HW145540   2.511  11.963   2.197
81236SOL    HW245541   2.450  12.018   2.324
81237SOL     OW45542  13.706  12.111   1.942
81237SOL    HW145543  13.617  12.137   1.966
81237SOL    HW245544  13.728  12.168   1.868
81238SOL     OW45545   8.828   8.749   4.943
81238SOL    HW145546   8.740   8.745   4.906
81238SOL    HW245547   8.816   8.791   5.029
81239SOL     OW45548   8.070   8.447   7.640
81239SOL    HW145549   8.128   8.486   7.706
81239SOL    HW245550   7.982   8.461   7.675
81240SOL     OW45551   4.330   1.083   1.669
81240SOL    HW145552   4.269   1.102   1.598
81240SOL    HW245553   4.283   1.109   1.749
81241SOL     OW45554   1.246  10.436   2.860
81241SOL    HW145555   1.169  10.478   2.822
81241SOL    HW245556   1.291  10.396   2.786
81242SOL     OW45557  11.168   6.602   6.204
81242SOL    HW145558  11.163   6.683   6.254
81242SOL    HW245559  11.262   6.586   6.193
81243SOL     OW45560   8.645   8.477   9.059
81243SOL    HW145561   8.590   8.403   9.031
81243SOL    HW245562   8.633   8.482   9.154
81244SOL     OW45563  13.634  11.359   3.754
81244SOL    HW145564  13.543  11.335   3.769
81244SOL    HW245565  13.635  11.454   3.761
81245SOL     OW45566   2.927  10.662   6.778
81245SOL    HW145567   2.904  10.743   6.732
81245SOL    HW245568   2.951  10.690   6.866
81246SOL     OW45569  14.341   1.270  13.580
81246SOL    HW145570  14.353   1.345  13.522
81246SOL    HW245571  14.257   1.288  13.623
81247SOL     OW45572   0.916  10.134  12.648
81247SOL    HW145573   0.896  10.090  12.731
81247SOL    HW245574   1.008  10.114  12.632
81248SOL     OW45575   0.842  10.711  14.442
81248SOL    HW145576   0.831  10.637  14.502
81248SOL    HW245577   0.831  10.788  14.498
81249SOL     OW45578  12.030   8.942   7.503
81249SOL    HW145579  12.008   8.999   7.576
81249SOL    HW245580  12.039   8.855   7.541
81250SOL     OW45581  11.777  13.346  14.613
81250SOL    HW145582  11.780  13.401  14.692
81250SOL    HW245583  11.727  13.398  14.550
81251SOL     OW45584   4.002  12.663   8.678
81251SOL    HW145585   4.029  12.673   8.587
81251SOL    HW245586   3.963  12.576   8.682
81252SOL     OW45587  14.534   3.043  13.539
81252SOL    HW145588  14.533   3.054  13.634
81252SOL    HW245589  14.625   3.060  13.513
81253SOL     OW45590   1.613   3.443   1.349
81253SOL    HW145591   1.573   3.433   1.263
81253SOL    HW245592   1.660   3.361   1.364
81254SOL     OW45593  13.951   0.319  13.299
81254SOL    HW145594  13.995   0.292  13.379
81254SOL    HW245595  13.864   0.348  13.327
81255SOL     OW45596   2.495  13.585   6.287
81255SOL    HW145597   2.500  13.562   6.195
81255SOL    HW245598   2.462  13.675   6.288
81256SOL     OW45599   2.109  14.197   9.219
81256SOL    HW145600   2.197  14.213   9.254
81256SOL    HW245601   2.050  14.219   9.291
81257SOL     OW45602   8.084   6.380   6.224
81257SOL    HW145603   8.046   6.456   6.181
81257SOL    HW245604   8.030   6.306   6.195
81258SOL     OW45605   7.660   0.846   2.036
81258SOL    HW145606   7.656   0.915   1.970
81258SOL    HW245607   7.683   0.892   2.117
81259SOL     OW45608   3.480  11.748  14.786
81259SOL    HW145609   3.395  11.713  14.759
81259SOL    HW245610   3.543  11.689  14.745
81260SOL     OW45611   9.457  11.065  12.121
81260SOL    HW145612   9.381  11.115  12.090
81260SOL    HW245613   9.479  11.008  12.047
81261SOL     OW45614   1.005   9.775   4.376
81261SOL    HW145615   1.066   9.805   4.309
81261SOL    HW245616   0.923   9.822   4.356
81262SOL     OW45617   2.581  10.555  13.811
81262SOL    HW145618   2.631  10.636  13.804
81262SOL    HW245619   2.633  10.490  13.762
81263SOL     OW45620   2.097  10.573  14.015
81263SOL    HW145621   2.188  10.551  13.997
81263SOL    HW245622   2.059  10.592  13.929
81264SOL     OW45623  10.860  10.642  12.263
81264SOL    HW145624  10.839  10.732  12.237
81264SOL    HW245625  10.893  10.601  12.183
81265SOL     OW45626   1.394   6.986  11.781
81265SOL    HW145627   1.352   7.037  11.712
81265SOL    HW245628   1.457   6.930  11.735
81266SOL     OW45629   0.407  13.349  14.393
81266SOL    HW145630   0.389  13.344  14.486
81266SOL    HW245631   0.431  13.260  14.367
81267SOL     OW45632  11.641  12.733   2.731
81267SOL    HW145633  11.699  12.778   2.793
81267SOL    HW245634  11.699  12.707   2.659
81268SOL     OW45635   9.100   2.409   6.409
81268SOL    HW145636   9.015   2.384   6.445
81268SOL    HW245637   9.120   2.494   6.449
81269SOL     OW45638   4.127   9.912   8.792
81269SOL    HW145639   4.156   9.962   8.716
81269SOL    HW245640   4.207   9.874   8.828
81270SOL     OW45641  10.298   4.734  14.633
81270SOL    HW145642  10.278   4.684  14.712
81270SOL    HW245643  10.212   4.763  14.601
81271SOL     OW45644   7.395   5.934   3.090
81271SOL    HW145645   7.395   5.870   3.162
81271SOL    HW245646   7.406   5.880   3.011
81272SOL     OW45647   3.017   0.241   8.314
81272SOL    HW145648   3.059   0.161   8.344
81272SOL    HW245649   2.931   0.241   8.358
81273SOL     OW45650  13.444  14.721   3.930
81273SOL    HW145651  13.352  14.732   3.908
81273SOL    HW245652  13.457  14.627   3.938
81274SOL     OW45653   7.608  12.762   5.707
81274SOL    HW145654   7.525  12.723   5.733
81274SOL    HW245655   7.669  12.738   5.777
81275SOL     OW45656   9.750   6.462   5.661
81275SOL    HW145657   9.806   6.417   5.724
81275SOL    HW245658   9.701   6.392   5.618
81276SOL     OW45659   1.454  13.528   0.844
81276SOL    HW145660   1.492  13.441   0.836
81276SOL    HW245661   1.506  13.582   0.784
81277SOL     OW45662   8.003  10.376   3.592
81277SOL    HW145663   7.996  10.396   3.499
81277SOL    HW245664   8.090  10.406   3.617
81278SOL     OW45665   1.044   1.855  10.246
81278SOL    HW145666   1.134   1.850  10.216
81278SOL    HW245667   1.037   1.941  10.287
81279SOL     OW45668   1.287   6.833  11.465
81279SOL    HW145669   1.236   6.847  11.386
81279SOL    HW245670   1.355   6.770  11.441
81280SOL     OW45671   9.159   5.709  12.228
81280SOL    HW145672   9.155   5.765  12.150
81280SOL    HW245673   9.080   5.655  12.223
81281SOL     OW45674   2.035  10.578  11.681
81281SOL    HW145675   1.970  10.521  11.722
81281SOL    HW245676   2.095  10.602  11.752
81282SOL     OW45677   2.128   8.034   6.753
81282SOL    HW145678   2.092   7.977   6.821
81282SOL    HW245679   2.189   8.092   6.801
81283SOL     OW45680  10.074  10.726   0.479
81283SOL    HW145681  10.151  10.668   0.480
81283SOL    HW245682  10.051  10.732   0.386
81284SOL     OW45683   5.639  10.301   8.077
81284SOL    HW145684   5.691  10.266   8.005
81284SOL    HW245685   5.554  10.258   8.069
81285SOL     OW45686   9.638   9.956   4.607
81285SOL    HW145687   9.688   9.942   4.527
81285SOL    HW245688   9.657   9.879   4.661
81286SOL     OW45689  14.813   9.608  14.066
81286SOL    HW145690  14.728   9.624  14.027
81286SOL    HW245691  14.839   9.692  14.103
81287SOL     OW45692  14.833   8.855  10.899
81287SOL    HW145693  14.827   8.868  10.804
81287SOL    HW245694  14.806   8.765  10.913
81288SOL     OW45695   2.115  10.116   1.445
81288SOL    HW145696   2.092  10.200   1.405
81288SOL    HW245697   2.093  10.126   1.538
81289SOL     OW45698  12.770  14.138  13.043
81289SOL    HW145699  12.848  14.132  13.099
81289SOL    HW245700  12.704  14.086  13.088
81290SOL     OW45701   5.921  11.217   6.264
81290SOL    HW145702   5.923  11.261   6.178
81290SOL    HW245703   5.843  11.253   6.307
81291SOL     OW45704   2.037  12.610  14.177
81291SOL    HW145705   2.097  12.658  14.234
81291SOL    HW245706   2.055  12.518  14.194
81292SOL     OW45707   7.312   2.397   8.522
81292SOL    HW145708   7.364   2.359   8.452
81292SOL    HW245709   7.346   2.358   8.602
81293SOL     OW45710   4.054   0.792   3.380
81293SOL    HW145711   4.011   0.778   3.464
81293SOL    HW245712   3.991   0.761   3.315
81294SOL     OW45713   7.151  12.910   4.432
81294SOL    HW145714   7.166  13.004   4.446
81294SOL    HW245715   7.237  12.875   4.410
81295SOL     OW45716  11.291   1.739   0.693
81295SOL    HW145717  11.216   1.686   0.666
81295SOL    HW245718  11.253   1.824   0.716
81296SOL     OW45719   7.149   9.435   2.097
81296SOL    HW145720   7.217   9.503   2.088
81296SOL    HW245721   7.078   9.466   2.042
81297SOL     OW45722  11.638   5.211   7.693
81297SOL    HW145723  11.548   5.211   7.726
81297SOL    HW245724  11.635   5.267   7.616
81298SOL     OW45725  13.694   4.514  11.933
81298SOL    HW145726  13.784   4.537  11.957
81298SOL    HW245727  13.653   4.491  12.016
81299SOL     OW45728   5.216  12.958   6.800
81299SOL    HW145729   5.300  12.916   6.777
81299SOL    HW245730   5.181  12.987   6.716
81300SOL     OW45731   2.693   6.209   3.233
81300SOL    HW145732   2.653   6.170   3.311
81300SOL    HW245733   2.664   6.153   3.161
81301SOL     OW45734  10.061   9.609   7.520
81301SOL    HW145735  10.004   9.583   7.593
81301SOL    HW245736  10.131   9.544   7.520
81302SOL     OW45737   6.550   7.186   1.729
81302SOL    HW145738   6.564   7.170   1.822
81302SOL    HW245739   6.496   7.114   1.699
81303SOL     OW45740   7.910   8.709   8.697
81303SOL    HW145741   7.869   8.668   8.774
81303SOL    HW245742   7.991   8.747   8.731
81304SOL     OW45743   0.841  10.986   0.426
81304SOL    HW145744   0.907  11.017   0.364
81304SOL    HW245745   0.768  11.047   0.415
81305SOL     OW45746   8.066  10.357   5.667
81305SOL    HW145747   8.066  10.300   5.744
81305SOL    HW245748   8.076  10.446   5.703
81306SOL     OW45749   5.485  14.467   7.553
81306SOL    HW145750   5.471  14.461   7.458
81306SOL    HW245751   5.549  14.537   7.564
81307SOL     OW45752  11.391   3.788   7.983
81307SOL    HW145753  11.403   3.718   7.919
81307SOL    HW245754  11.381   3.742   8.067
81308SOL     OW45755  13.064   6.366   6.573
81308SOL    HW145756  13.048   6.445   6.521
81308SOL    HW245757  13.052   6.294   6.511
81309SOL     OW45758  11.139   3.418   6.590
81309SOL    HW145759  11.142   3.512   6.570
81309SOL    HW245760  11.224   3.400   6.630
81310SOL     OW45761   5.349   1.570   0.961
81310SOL    HW145762   5.257   1.553   0.938
81310SOL    HW245763   5.346   1.602   1.051
81311SOL     OW45764   3.500   6.966   1.545
81311SOL    HW145765   3.560   6.898   1.514
81311SOL    HW245766   3.413   6.928   1.534
81312SOL     OW45767  12.594   6.690  10.066
81312SOL    HW145768  12.566   6.766  10.016
81312SOL    HW245769  12.615   6.624   9.999
81313SOL     OW45770   9.235   6.713  11.345
81313SOL    HW145771   9.278   6.731  11.428
81313SOL    HW245772   9.303   6.728  11.279
81314SOL     OW45773   3.470  11.177   9.323
81314SOL    HW145774   3.402  11.135   9.270
81314SOL    HW245775   3.489  11.113   9.392
81315SOL     OW45776   8.854   1.278   5.873
81315SOL    HW145777   8.822   1.193   5.842
81315SOL    HW245778   8.837   1.278   5.967
81316SOL     OW45779   9.074  12.447   3.541
81316SOL    HW145780   9.134  12.373   3.548
81316SOL    HW245781   9.018  12.439   3.618
81317SOL     OW45782  11.915  10.091  11.834
81317SOL    HW145783  11.916  10.126  11.745
81317SOL    HW245784  11.917  10.168  11.890
81318SOL     OW45785   9.806  11.603   5.769
81318SOL    HW145786   9.836  11.569   5.685
81318SOL    HW245787   9.875  11.662   5.798
81319SOL     OW45788   3.507  14.852  10.314
81319SOL    HW145789   3.473   0.043  10.254
81319SOL    HW245790   3.514   0.021  10.398
81320SOL     OW45791   4.907  12.118   9.053
81320SOL    HW145792   4.834  12.060   9.030
81320SOL    HW245793   4.979  12.059   9.073
81321SOL     OW45794   4.875   0.785   3.026
81321SOL    HW145795   4.782   0.772   3.011
81321SOL    HW245796   4.895   0.869   2.985
81322SOL     OW45797   3.583   0.969  12.829
81322SOL    HW145798   3.526   0.987  12.903
81322SOL    HW245799   3.617   0.881  12.846
81323SOL     OW45800   6.270   3.260   3.254
81323SOL    HW145801   6.237   3.265   3.344
81323SOL    HW245802   6.242   3.342   3.214
81324SOL     OW45803   5.643   2.245  11.468
81324SOL    HW145804   5.646   2.303  11.392
81324SOL    HW245805   5.733   2.216  11.480
81325SOL     OW45806   1.944   9.969   5.613
81325SOL    HW145807   2.026   9.933   5.577
81325SOL    HW245808   1.971  10.047   5.661
81326SOL     OW45809   5.998   7.393  12.290
81326SOL    HW145810   6.089   7.384  12.315
81326SOL    HW245811   6.000   7.440  12.207
81327SOL     OW45812   0.868   3.577   0.302
81327SOL    HW145813   0.820   3.595   0.221
81327SOL    HW245814   0.923   3.502   0.282
81328SOL     OW45815   6.726   5.946   7.108
81328SOL    HW145816   6.667   5.876   7.081
81328SOL    HW245817   6.759   5.917   7.194
81329SOL     OW45818   2.490  13.308  10.585
81329SOL    HW145819   2.501  13.323  10.679
81329SOL    HW245820   2.508  13.393  10.545
81330SOL     OW45821   4.939  13.898   0.577
81330SOL    HW145822   4.925  13.827   0.640
81330SOL    HW245823   5.032  13.892   0.555
81331SOL     OW45824   2.899   3.388   2.741
81331SOL    HW145825   2.994   3.399   2.748
81331SOL    HW245826   2.887   3.298   2.712
81332SOL     OW45827   8.047   7.093   0.028
81332SOL    HW145828   8.129   7.117  14.863
81332SOL    HW245829   8.018   7.015  14.856
81333SOL     OW45830   1.106   5.835   7.930
81333SOL    HW145831   1.169   5.766   7.951
81333SOL    HW245832   1.085   5.874   8.015
81334SOL     OW45833  11.856   3.479   9.590
81334SOL    HW145834  11.898   3.561   9.566
81334SOL    HW245835  11.917   3.411   9.560
81335SOL     OW45836   7.293  10.292   4.653
81335SOL    HW145837   7.268  10.280   4.562
81335SOL    HW245838   7.256  10.376   4.678
81336SOL     OW45839   6.624   9.848   1.644
81336SOL    HW145840   6.578   9.845   1.559
81336SOL    HW245841   6.708   9.888   1.624
81337SOL     OW45842  14.136   9.688   8.877
81337SOL    HW145843  14.049   9.658   8.903
81337SOL    HW245844  14.170   9.733   8.954
81338SOL     OW45845   1.955   1.876   0.692
81338SOL    HW145846   1.996   1.885   0.606
81338SOL    HW245847   1.990   1.794   0.727
81339SOL     OW45848   8.853   7.599   2.906
81339SOL    HW145849   8.777   7.561   2.861
81339SOL    HW245850   8.915   7.526   2.911
81340SOL     OW45851   8.539   4.269   6.289
81340SOL    HW145852   8.605   4.244   6.354
81340SOL    HW245853   8.566   4.223   6.209
81341SOL     OW45854  11.540   7.805  10.863
81341SOL    HW145855  11.484   7.837  10.793
81341SOL    HW245856  11.480   7.761  10.923
81342SOL     OW45857   6.842   9.238   1.432
81342SOL    HW145858   6.785   9.253   1.507
81342SOL    HW245859   6.813   9.154   1.396
81343SOL     OW45860   6.132  11.841   1.377
81343SOL    HW145861   6.222  11.866   1.400
81343SOL    HW245862   6.090  11.924   1.353
81344SOL     OW45863   7.985   3.424   9.903
81344SOL    HW145864   7.898   3.432   9.941
81344SOL    HW245865   8.044   3.460   9.970
81345SOL     OW45866   7.727  14.742   8.783
81345SOL    HW145867   7.747  14.649   8.768
81345SOL    HW245868   7.679  14.743   8.866
81346SOL     OW45869  11.934   2.162   2.034
81346SOL    HW145870  11.924   2.149   2.128
81346SOL    HW245871  11.911   2.078   1.995
81347SOL     OW45872   0.759  12.494   8.482
81347SOL    HW145873   0.732  12.586   8.483
81347SOL    HW245874   0.764  12.472   8.389
81348SOL     OW45875  12.249  14.245  10.409
81348SOL    HW145876  12.335  14.283  10.388
81348SOL    HW245877  12.197  14.320  10.438
81349SOL     OW45878  12.060   6.591   0.537
81349SOL    HW145879  12.050   6.630   0.624
81349SOL    HW245880  12.141   6.540   0.542
81350SOL     OW45881  11.073   6.811  12.591
81350SOL    HW145882  11.146   6.749  12.588
81350SOL    HW245883  11.033   6.804  12.504
81351SOL     OW45884  13.088   8.019   1.539
81351SOL    HW145885  13.010   8.032   1.485
81351SOL    HW245886  13.144   8.094   1.518
81352SOL     OW45887   2.092   6.624   3.044
81352SOL    HW145888   2.178   6.596   3.075
81352SOL    HW245889   2.072   6.565   2.971
81353SOL     OW45890  11.861   3.679  10.359
81353SOL    HW145891  11.850   3.670  10.453
81353SOL    HW245892  11.815   3.603  10.322
81354SOL     OW45893  14.178  14.595   3.198
81354SOL    HW145894  14.107  14.645   3.238
81354SOL    HW245895  14.186  14.518   3.254
81355SOL     OW45896   1.791   6.182   2.306
81355SOL    HW145897   1.729   6.130   2.255
81355SOL    HW245898   1.876   6.166   2.264
81356SOL     OW45899   5.773   2.043   5.842
81356SOL    HW145900   5.789   2.052   5.748
81356SOL    HW245901   5.716   1.967   5.849
81357SOL     OW45902   7.719   9.321   8.052
81357SOL    HW145903   7.658   9.306   8.124
81357SOL    HW245904   7.668   9.366   7.985
81358SOL     OW45905   8.117  11.842  11.301
81358SOL    HW145906   8.054  11.892  11.250
81358SOL    HW245907   8.122  11.757  11.258
81359SOL     OW45908  14.100   1.655  10.497
81359SOL    HW145909  14.032   1.688  10.438
81359SOL    HW245910  14.055   1.593  10.553
81360SOL     OW45911   1.606   5.603   3.823
81360SOL    HW145912   1.689   5.625   3.866
81360SOL    HW245913   1.594   5.672   3.757
81361SOL     OW45914   2.284  13.796   8.247
81361SOL    HW145915   2.228  13.794   8.325
81361SOL    HW245916   2.346  13.866   8.263
81362SOL     OW45917   0.067  11.817  14.699
81362SOL    HW145918   0.090  11.753  14.766
81362SOL    HW245919   0.144  11.821  14.642
81363SOL     OW45920   6.313   5.718   1.154
81363SOL    HW145921   6.250   5.717   1.083
81363SOL    HW245922   6.261   5.735   1.233
81364SOL     OW45923   9.481  14.144  13.262
81364SOL    HW145924   9.521  14.063  13.232
81364SOL    HW245925   9.431  14.176  13.187
81365SOL     OW45926   2.165   7.741   9.990
81365SOL    HW145927   2.109   7.814  10.016
81365SOL    HW245928   2.192   7.701  10.073
81366SOL     OW45929   4.688  13.522   7.038
81366SOL    HW145930   4.593  13.519   7.046
81366SOL    HW245931   4.708  13.615   7.024
81367SOL     OW45932   0.487   3.609   9.010
81367SOL    HW145933   0.451   3.623   8.922
81367SOL    HW245934   0.582   3.618   8.999
81368SOL     OW45935   2.005   0.116   6.843
81368SOL    HW145936   1.989   0.195   6.895
81368SOL    HW245937   2.029   0.050   6.907
81369SOL     OW45938   4.800   7.142   1.084
81369SOL    HW145939   4.828   7.186   1.165
81369SOL    HW245940   4.857   7.178   1.016
81370SOL     OW45941   2.381   7.120   2.132
81370SOL    HW145942   2.338   7.170   2.062
81370SOL    HW245943   2.440   7.061   2.086
81371SOL     OW45944  11.819  12.466  11.210
81371SOL    HW145945  11.899  12.451  11.261
81371SOL    HW245946  11.802  12.382  11.168
81372SOL     OW45947   8.470  11.562   9.477
81372SOL    HW145948   8.476  11.641   9.531
81372SOL    HW245949   8.523  11.497   9.524
81373SOL     OW45950   1.442   6.910   7.956
81373SOL    HW145951   1.439   6.892   7.862
81373SOL    HW245952   1.351   6.903   7.985
81374SOL     OW45953  13.240  10.998   9.573
81374SOL    HW145954  13.268  11.088   9.553
81374SOL    HW245955  13.200  10.967   9.492
81375SOL     OW45956  11.762   0.479   7.584
81375SOL    HW145957  11.757   0.385   7.571
81375SOL    HW245958  11.671   0.507   7.597
81376SOL     OW45959   2.415   1.401   5.712
81376SOL    HW145960   2.482   1.438   5.654
81376SOL    HW245961   2.398   1.314   5.676
81377SOL     OW45962   2.914   4.682   9.803
81377SOL    HW145963   2.989   4.713   9.752
81377SOL    HW245964   2.840   4.736   9.773
81378SOL     OW45965   7.606  11.128   3.737
81378SOL    HW145966   7.621  11.082   3.820
81378SOL    HW245967   7.530  11.084   3.699
81379SOL     OW45968   0.530   4.486   0.191
81379SOL    HW145969   0.523   4.475   0.096
81379SOL    HW245970   0.604   4.432   0.216
81380SOL     OW45971   8.473  10.704   2.335
81380SOL    HW145972   8.495  10.770   2.400
81380SOL    HW245973   8.378  10.713   2.323
81381SOL     OW45974   1.278   4.106  13.434
81381SOL    HW145975   1.348   4.046  13.408
81381SOL    HW245976   1.324   4.186  13.459
81382SOL     OW45977   7.838  14.851   5.199
81382SOL    HW145978   7.857  14.794   5.124
81382SOL    HW245979   7.761   0.025   5.172
81383SOL     OW45980   5.502  14.077   2.013
81383SOL    HW145981   5.464  14.128   1.942
81383SOL    HW245982   5.508  13.988   1.979
81384SOL     OW45983  10.455   9.727   0.795
81384SOL    HW145984  10.550   9.720   0.805
81384SOL    HW245985  10.431   9.807   0.842
81385SOL     OW45986   3.439  11.945   7.395
81385SOL    HW145987   3.465  11.900   7.475
81385SOL    HW245988   3.483  11.897   7.325
81386SOL     OW45989   9.500   3.258   0.276
81386SOL    HW145990   9.511   3.164   0.287
81386SOL    HW245991   9.413   3.269   0.238
81387SOL     OW45992  14.826  11.705  10.621
81387SOL    HW145993  14.814  11.787  10.574
81387SOL    HW245994  14.737  11.671  10.633
81388SOL     OW45995   5.159   0.294  11.275
81388SOL    HW145996   5.247   0.257  11.272
81388SOL    HW245997   5.124   0.280  11.187
81389SOL     OW45998  10.806  11.570   9.753
81389SOL    HW145999  10.807  11.652   9.704
81389SOL    HW246000  10.834  11.594   9.841
81390SOL     OW46001   2.895   6.056  14.782
81390SOL    HW146002   2.954   6.098  14.720
81390SOL    HW246003   2.809   6.059  14.741
81391SOL     OW46004   0.408   1.742  10.002
81391SOL    HW146005   0.400   1.663   9.950
81391SOL    HW246006   0.446   1.807   9.943
81392SOL     OW46007   5.961   0.855   0.002
81392SOL    HW146008   5.914   0.881   0.081
81392SOL    HW246009   5.958   0.759   0.002
81393SOL     OW46010   6.442   0.067   1.607
81393SOL    HW146011   6.360   0.017   1.605
81393SOL    HW246012   6.502   0.013   1.659
81394SOL     OW46013   5.305   6.856   3.320
81394SOL    HW146014   5.381   6.798   3.312
81394SOL    HW246015   5.258   6.824   3.397
81395SOL     OW46016   7.576  12.069  12.514
81395SOL    HW146017   7.614  12.144  12.560
81395SOL    HW246018   7.602  12.081  12.423
81396SOL     OW46019   1.534  14.269   6.116
81396SOL    HW146020   1.492  14.228   6.192
81396SOL    HW246021   1.618  14.300   6.149
81397SOL     OW46022   1.549  13.803   5.234
81397SOL    HW146023   1.456  13.824   5.239
81397SOL    HW246024   1.554  13.713   5.267
81398SOL     OW46025  13.038  13.804   7.099
81398SOL    HW146026  13.103  13.739   7.124
81398SOL    HW246027  12.965  13.753   7.063
81399SOL     OW46028  13.398   6.537   5.233
81399SOL    HW146029  13.444   6.481   5.294
81399SOL    HW246030  13.458   6.548   5.159
81400SOL     OW46031   7.500   9.050  11.750
81400SOL    HW146032   7.430   8.986  11.760
81400SOL    HW246033   7.532   9.063  11.839
81401SOL     OW46034   8.843   4.774   1.751
81401SOL    HW146035   8.855   4.688   1.713
81401SOL    HW246036   8.931   4.801   1.779
81402SOL     OW46037   7.738  13.302   8.657
81402SOL    HW146038   7.703  13.320   8.569
81402SOL    HW246039   7.833  13.296   8.644
81403SOL     OW46040  11.439  11.614   4.311
81403SOL    HW146041  11.392  11.542   4.270
81403SOL    HW246042  11.530  11.601   4.287
81404SOL     OW46043   8.951   7.113   2.171
81404SOL    HW146044   8.879   7.057   2.142
81404SOL    HW246045   9.030   7.061   2.156
81405SOL     OW46046   5.863   2.941   9.978
81405SOL    HW146047   5.838   2.848   9.980
81405SOL    HW246048   5.933   2.945   9.912
81406SOL     OW46049   8.545   3.772   4.565
81406SOL    HW146050   8.508   3.852   4.603
81406SOL    HW246051   8.561   3.716   4.641
81407SOL     OW46052  12.227   1.418   1.818
81407SOL    HW146053  12.195   1.448   1.732
81407SOL    HW246054  12.168   1.459   1.881
81408SOL     OW46055   5.275   2.513   8.908
81408SOL    HW146056   5.257   2.464   8.828
81408SOL    HW246057   5.335   2.457   8.958
81409SOL     OW46058   0.432   0.706  12.085
81409SOL    HW146059   0.493   0.738  12.019
81409SOL    HW246060   0.360   0.770  12.084
81410SOL     OW46061  10.966   8.563  12.374
81410SOL    HW146062  10.879   8.528  12.355
81410SOL    HW246063  10.977   8.636  12.312
81411SOL     OW46064   9.950   6.594  13.348
81411SOL    HW146065   9.961   6.573  13.255
81411SOL    HW246066   9.888   6.667  13.349
81412SOL     OW46067  13.436   5.926  10.947
81412SOL    HW146068  13.432   5.860  11.016
81412SOL    HW246069  13.511   5.981  10.969
81413SOL     OW46070   1.760   5.808   6.053
81413SOL    HW146071   1.756   5.861   6.133
81413SOL    HW246072   1.696   5.739   6.067
81414SOL     OW46073   0.258   5.529  11.656
81414SOL    HW146074   0.240   5.608  11.708
81414SOL    HW246075   0.199   5.463  11.691
81415SOL     OW46076   4.383   8.333   4.241
81415SOL    HW146077   4.304   8.356   4.290
81415SOL    HW246078   4.454   8.377   4.288
81416SOL     OW46079   2.584   2.257  10.717
81416SOL    HW146080   2.651   2.208  10.670
81416SOL    HW246081   2.585   2.344  10.679
81417SOL     OW46082   6.688  13.485   3.606
81417SOL    HW146083   6.652  13.411   3.557
81417SOL    HW246084   6.768  13.508   3.560
81418SOL     OW46085   3.308  12.177   9.001
81418SOL    HW146086   3.402  12.195   9.000
81418SOL    HW246087   3.272  12.231   8.930
81419SOL     OW46088   9.939   8.897  10.717
81419SOL    HW146089   9.858   8.882  10.668
81419SOL    HW246090   9.910   8.932  10.801
81420SOL     OW46091   2.971   9.585   4.851
81420SOL    HW146092   2.944   9.554   4.764
81420SOL    HW246093   2.898   9.563   4.908
81421SOL     OW46094  14.770  13.829  10.249
81421SOL    HW146095  14.755  13.878  10.167
81421SOL    HW246096  14.836  13.764  10.226
81422SOL     OW46097   2.302   3.953   8.087
81422SOL    HW146098   2.395   3.963   8.066
81422SOL    HW246099   2.287   3.859   8.090
81423SOL     OW46100   1.562   5.971   3.289
81423SOL    HW146101   1.528   5.978   3.199
81423SOL    HW246102   1.657   5.976   3.279
81424SOL     OW46103  14.362   2.821   5.547
81424SOL    HW146104  14.317   2.877   5.611
81424SOL    HW246105  14.341   2.732   5.574
81425SOL     OW46106   5.132  14.768  13.862
81425SOL    HW146107   5.159  14.852  13.898
81425SOL    HW246108   5.129  14.710  13.939
81426SOL     OW46109   0.520   3.197   4.281
81426SOL    HW146110   0.459   3.268   4.301
81426SOL    HW246111   0.595   3.240   4.241
81427SOL     OW46112  11.175  10.901   7.571
81427SOL    HW146113  11.270  10.888   7.568
81427SOL    HW246114  11.143  10.832   7.628
81428SOL     OW46115  10.061   4.228  12.382
81428SOL    HW146116  10.138   4.213  12.327
81428SOL    HW246117  10.046   4.143  12.425
81429SOL     OW46118   1.154   4.621  10.772
81429SOL    HW146119   1.178   4.533  10.743
81429SOL    HW246120   1.212   4.679  10.723
81430SOL     OW46121   9.739   5.234   5.639
81430SOL    HW146122   9.684   5.162   5.670
81430SOL    HW246123   9.743   5.294   5.714
81431SOL     OW46124  10.439  14.465   6.979
81431SOL    HW146125  10.486  14.515   6.913
81431SOL    HW246126  10.356  14.512   6.991
81432SOL     OW46127  11.543   8.503  11.578
81432SOL    HW146128  11.549   8.413  11.608
81432SOL    HW246129  11.544   8.556  11.658
81433SOL     OW46130   6.884  12.136  13.393
81433SOL    HW146131   6.896  12.094  13.308
81433SOL    HW246132   6.890  12.065  13.456
81434SOL     OW46133   3.456   2.231  12.276
81434SOL    HW146134   3.361   2.226  12.288
81434SOL    HW246135   3.471   2.320  12.242
81435SOL     OW46136   4.655  12.263  12.677
81435SOL    HW146137   4.690  12.251  12.588
81435SOL    HW246138   4.732  12.254  12.734
81436SOL     OW46139  11.084   2.798   7.556
81436SOL    HW146140  11.168   2.802   7.510
81436SOL    HW246141  11.100   2.843   7.639
81437SOL     OW46142  10.250   0.571   1.034
81437SOL    HW146143  10.255   0.659   0.995
81437SOL    HW246144  10.285   0.583   1.123
81438SOL     OW46145  12.975  10.993  13.675
81438SOL    HW146146  13.014  10.975  13.761
81438SOL    HW246147  12.928  10.913  13.652
81439SOL     OW46148  11.957  11.879   8.195
81439SOL    HW146149  11.935  11.907   8.106
81439SOL    HW246150  12.033  11.822   8.185
81440SOL     OW46151   6.270   8.704  13.877
81440SOL    HW146152   6.312   8.670  13.956
81440SOL    HW246153   6.287   8.637  13.810
81441SOL     OW46154  14.344   6.949  11.898
81441SOL    HW146155  14.327   6.899  11.819
81441SOL    HW246156  14.365   7.037  11.867
81442SOL     OW46157   2.046   9.259   2.253
81442SOL    HW146158   2.067   9.352   2.253
81442SOL    HW246159   1.951   9.256   2.265
81443SOL     OW46160  13.877   6.135  13.399
81443SOL    HW146161  13.880   6.045  13.367
81443SOL    HW246162  13.873   6.126  13.495
81444SOL     OW46163   5.377   8.354   9.022
81444SOL    HW146164   5.281   8.359   9.022
81444SOL    HW246165   5.396   8.260   9.020
81445SOL     OW46166  13.198   9.481   9.175
81445SOL    HW146167  13.275   9.442   9.135
81445SOL    HW246168  13.232   9.550   9.231
81446SOL     OW46169   4.370   4.536   0.067
81446SOL    HW146170   4.435   4.604   0.056
81446SOL    HW246171   4.421   4.458   0.091
81447SOL     OW46172   3.852   6.192  10.677
81447SOL    HW146173   3.845   6.244  10.757
81447SOL    HW246174   3.850   6.101  10.707
81448SOL     OW46175   7.257   7.111   1.574
81448SOL    HW146176   7.165   7.096   1.552
81448SOL    HW246177   7.282   7.189   1.525
81449SOL     OW46178  14.255  10.424   1.708
81449SOL    HW146179  14.225  10.434   1.798
81449SOL    HW246180  14.346  10.455   1.709
81450SOL     OW46181   1.956   8.110   6.973
81450SOL    HW146182   1.989   8.199   6.957
81450SOL    HW246183   1.869   8.109   6.934
81451SOL     OW46184  11.923   8.802   1.509
81451SOL    HW146185  11.840   8.847   1.494
81451SOL    HW246186  11.987   8.872   1.520
81452SOL     OW46187   4.599  14.461   0.400
81452SOL    HW146188   4.676  14.438   0.451
81452SOL    HW246189   4.583  14.385   0.344
81453SOL     OW46190   4.843   9.652  10.430
81453SOL    HW146191   4.869   9.743  10.416
81453SOL    HW246192   4.891   9.603  10.364
81454SOL     OW46193   2.831   2.600  10.657
81454SOL    HW146194   2.855   2.688  10.626
81454SOL    HW246195   2.849   2.543  10.583
81455SOL     OW46196   9.369   4.103   2.872
81455SOL    HW146197   9.459   4.094   2.840
81455SOL    HW246198   9.332   4.172   2.818
81456SOL     OW46199   3.021   6.883  13.052
81456SOL    HW146200   3.042   6.872  13.144
81456SOL    HW246201   3.036   6.798  13.013
81457SOL     OW46202  13.219   1.861  12.609
81457SOL    HW146203  13.290   1.804  12.642
81457SOL    HW246204  13.234   1.865  12.515
81458SOL     OW46205  11.124   0.171   5.004
81458SOL    HW146206  11.167   0.235   5.059
81458SOL    HW246207  11.048   0.142   5.055
81459SOL     OW46208   6.338  12.176  11.122
81459SOL    HW146209   6.337  12.125  11.041
81459SOL    HW246210   6.343  12.267  11.094
81460SOL     OW46211  10.216   9.847  11.310
81460SOL    HW146212  10.295   9.862  11.362
81460SOL    HW246213  10.144   9.857  11.373
81461SOL     OW46214  12.653   8.306  14.047
81461SOL    HW146215  12.620   8.249  13.978
81461SOL    HW246216  12.746   8.318  14.025
81462SOL     OW46217  10.092   3.038  11.398
81462SOL    HW146218  10.112   3.081  11.315
81462SOL    HW246219  10.008   3.076  11.425
81463SOL     OW46220  12.410   1.769   8.663
81463SOL    HW146221  12.465   1.846   8.650
81463SOL    HW246222  12.457   1.718   8.729
81464SOL     OW46223   3.649  10.302   1.737
81464SOL    HW146224   3.716  10.344   1.791
81464SOL    HW246225   3.646  10.212   1.769
81465SOL     OW46226   9.676  10.898  14.602
81465SOL    HW146227   9.595  10.852  14.581
81465SOL    HW246228   9.736  10.874  14.531
81466SOL     OW46229  13.620   4.033   6.731
81466SOL    HW146230  13.650   4.058   6.818
81466SOL    HW246231  13.642   4.107   6.674
81467SOL     OW46232  12.151  11.363   8.522
81467SOL    HW146233  12.140  11.373   8.428
81467SOL    HW246234  12.195  11.444   8.549
81468SOL     OW46235   3.434  14.632   6.674
81468SOL    HW146236   3.399  14.714   6.708
81468SOL    HW246237   3.368  14.602   6.611
81469SOL     OW46238  13.216   7.093   8.580
81469SOL    HW146239  13.239   7.137   8.662
81469SOL    HW246240  13.139   7.041   8.602
81470SOL     OW46241   8.426  13.410  12.624
81470SOL    HW146242   8.332  13.425  12.613
81470SOL    HW246243   8.467  13.486  12.582
81471SOL     OW46244   1.209   8.328   4.192
81471SOL    HW146245   1.164   8.244   4.183
81471SOL    HW246246   1.145   8.385   4.235
81472SOL     OW46247  12.377   4.962   5.776
81472SOL    HW146248  12.452   4.926   5.825
81472SOL    HW246249  12.359   4.897   5.709
81473SOL     OW46250   1.783  13.057   5.355
81473SOL    HW146251   1.873  13.039   5.330
81473SOL    HW246252   1.730  13.019   5.285
81474SOL     OW46253  10.041   5.123   0.249
81474SOL    HW146254  10.078   5.064   0.183
81474SOL    HW246255  10.004   5.195   0.198
81475SOL     OW46256   9.680   6.898  12.890
81475SOL    HW146257   9.762   6.870  12.849
81475SOL    HW246258   9.704   6.919  12.980
81476SOL     OW46259  11.050   3.906   9.485
81476SOL    HW146260  11.095   3.937   9.563
81476SOL    HW246261  11.110   3.844   9.445
81477SOL     OW46262  11.623  14.279  10.819
81477SOL    HW146263  11.602  14.292  10.726
81477SOL    HW246264  11.564  14.209  10.847
81478SOL     OW46265   9.194   4.914  11.401
81478SOL    HW146266   9.140   4.945  11.328
81478SOL    HW246267   9.131   4.891  11.469
81479SOL     OW46268   4.629  13.436   2.330
81479SOL    HW146269   4.640  13.521   2.288
81479SOL    HW246270   4.689  13.378   2.283
81480SOL     OW46271   0.783   8.821   9.305
81480SOL    HW146272   0.818   8.878   9.236
81480SOL    HW246273   0.830   8.738   9.295
81481SOL     OW46274  13.324   0.432  10.996
81481SOL    HW146275  13.307   0.480  11.077
81481SOL    HW246276  13.420   0.425  10.993
81482SOL     OW46277  12.232  13.867   9.249
81482SOL    HW146278  12.153  13.846   9.199
81482SOL    HW246279  12.199  13.906   9.330
81483SOL     OW46280   7.671  13.341   7.162
81483SOL    HW146281   7.596  13.294   7.197
81483SOL    HW246282   7.722  13.273   7.117
81484SOL     OW46283   7.600  14.366   8.506
81484SOL    HW146284   7.588  14.395   8.415
81484SOL    HW246285   7.618  14.273   8.500
81485SOL     OW46286   7.928   7.972   2.533
81485SOL    HW146287   7.994   8.038   2.511
81485SOL    HW246288   7.871   7.969   2.456
81486SOL     OW46289  14.029   7.755   9.492
81486SOL    HW146290  14.096   7.818   9.517
81486SOL    HW246291  13.986   7.795   9.416
81487SOL     OW46292   9.641  10.240  10.851
81487SOL    HW146293   9.727  10.197  10.843
81487SOL    HW246294   9.628  10.284  10.767
81488SOL     OW46295   4.907  11.776  10.637
81488SOL    HW146296   4.861  11.763  10.554
81488SOL    HW246297   4.846  11.743  10.703
81489SOL     OW46298   7.754  14.349   5.861
81489SOL    HW146299   7.833  14.375   5.813
81489SOL    HW246300   7.742  14.256   5.839
81490SOL     OW46301   2.954  11.614   5.548
81490SOL    HW146302   2.901  11.686   5.583
81490SOL    HW246303   2.919  11.598   5.461
81491SOL     OW46304   7.392   8.006   9.625
81491SOL    HW146305   7.316   8.021   9.681
81491SOL    HW246306   7.361   7.941   9.561
81492SOL     OW46307  11.296   0.079   2.163
81492SOL    HW146308  11.267   0.118   2.081
81492SOL    HW246309  11.222   0.026   2.192
81493SOL     OW46310   1.780   7.274  12.348
81493SOL    HW146311   1.865   7.295  12.386
81493SOL    HW246312   1.770   7.335  12.275
81494SOL     OW46313   5.234   6.427   0.369
81494SOL    HW146314   5.229   6.521   0.388
81494SOL    HW246315   5.144   6.395   0.381
81495SOL     OW46316  11.790   1.923  14.066
81495SOL    HW146317  11.713   1.882  14.026
81495SOL    HW246318  11.861   1.860  14.052
81496SOL     OW46319  10.385  13.957   3.606
81496SOL    HW146320  10.344  13.949   3.520
81496SOL    HW246321  10.315  13.938   3.668
81497SOL     OW46322   6.923   3.403   3.479
81497SOL    HW146323   6.908   3.482   3.531
81497SOL    HW246324   6.842   3.353   3.487
81498SOL     OW46325   1.089   7.638   5.446
81498SOL    HW146326   1.165   7.659   5.500
81498SOL    HW246327   1.121   7.570   5.386
81499SOL     OW46328  13.755  13.950   9.831
81499SOL    HW146329  13.769  14.045   9.833
81499SOL    HW246330  13.782  13.919   9.917
81500SOL     OW46331   2.983   0.635   5.728
81500SOL    HW146332   2.999   0.728   5.739
81500SOL    HW246333   2.892   0.623   5.754
81501SOL     OW46334  11.763   0.620  14.285
81501SOL    HW146335  11.751   0.528  14.309
81501SOL    HW246336  11.831   0.652  14.344
81502SOL     OW46337  13.775  12.057  14.185
81502SOL    HW146338  13.733  12.083  14.104
81502SOL    HW246339  13.865  12.089  14.177
81503SOL     OW46340  11.230  11.622  14.485
81503SOL    HW146341  11.248  11.627  14.579
81503SOL    HW246342  11.301  11.673  14.445
81504SOL     OW46343  12.415  10.319   9.166
81504SOL    HW146344  12.351  10.293   9.100
81504SOL    HW246345  12.415  10.415   9.162
81505SOL     OW46346   4.325   6.205  11.727
81505SOL    HW146347   4.293   6.158  11.804
81505SOL    HW246348   4.388   6.268  11.762
81506SOL     OW46349   3.445   7.182  10.212
81506SOL    HW146350   3.512   7.181  10.143
81506SOL    HW246351   3.364   7.161  10.166
81507SOL     OW46352   8.055   2.510   2.389
81507SOL    HW146353   8.057   2.423   2.430
81507SOL    HW246354   8.098   2.498   2.305
81508SOL     OW46355   3.742  11.205  10.697
81508SOL    HW146356   3.734  11.110  10.686
81508SOL    HW246357   3.793  11.234  10.621
81509SOL     OW46358   0.314  11.617   3.745
81509SOL    HW146359   0.401  11.645   3.716
81509SOL    HW246360   0.297  11.667   3.824
81510SOL     OW46361   9.877  11.699   4.939
81510SOL    HW146362   9.818  11.634   4.902
81510SOL    HW246363   9.962  11.656   4.942
81511SOL     OW46364  11.722  14.588   6.090
81511SOL    HW146365  11.671  14.507   6.082
81511SOL    HW246366  11.793  14.579   6.027
81512SOL     OW46367   0.978   0.230   2.672
81512SOL    HW146368   0.887   0.238   2.642
81512SOL    HW246369   1.027   0.290   2.616
81513SOL     OW46370   0.636  14.616   3.787
81513SOL    HW146371   0.655  14.679   3.717
81513SOL    HW246372   0.558  14.570   3.758
81514SOL     OW46373  13.005  14.621  14.343
81514SOL    HW146374  12.963  14.658  14.421
81514SOL    HW246375  13.046  14.696  14.300
81515SOL     OW46376   9.894   9.364   5.152
81515SOL    HW146377   9.981   9.402   5.166
81515SOL    HW246378   9.850   9.373   5.236
81516SOL     OW46379  13.403  10.831   2.328
81516SOL    HW146380  13.358  10.881   2.396
81516SOL    HW246381  13.334  10.808   2.265
81517SOL     OW46382   3.141   0.000   1.120
81517SOL    HW146383   3.055  14.852   1.155
81517SOL    HW246384   3.128   0.088   1.084
81518SOL     OW46385   8.679   5.529  14.687
81518SOL    HW146386   8.642   5.449  14.724
81518SOL    HW246387   8.733   5.499  14.614
81519SOL     OW46388   5.115   7.079   5.581
81519SOL    HW146389   5.114   7.152   5.519
81519SOL    HW246390   5.160   7.113   5.658
81520SOL     OW46391   1.709  10.076  10.738
81520SOL    HW146392   1.619  10.053  10.758
81520SOL    HW246393   1.761  10.006  10.776
81521SOL     OW46394   6.157  13.303  12.090
81521SOL    HW146395   6.250  13.287  12.105
81521SOL    HW246396   6.145  13.286  11.997
81522SOL     OW46397   4.320   8.356  12.661
81522SOL    HW146398   4.323   8.394  12.573
81522SOL    HW246399   4.392   8.293  12.663
81523SOL     OW46400  12.177   6.771  13.068
81523SOL    HW146401  12.202   6.700  13.009
81523SOL    HW246402  12.255   6.826  13.074
81524SOL     OW46403  13.117   2.414  14.451
81524SOL    HW146404  13.147   2.325  14.468
81524SOL    HW246405  13.197   2.465  14.438
81525SOL     OW46406   2.704   6.608   8.976
81525SOL    HW146407   2.773   6.584   8.914
81525SOL    HW246408   2.645   6.532   8.977
81526SOL     OW46409  10.012  14.770   7.076
81526SOL    HW146410  10.020  14.832   7.002
81526SOL    HW246411   9.927  14.790   7.115
81527SOL     OW46412  11.237   8.377  10.490
81527SOL    HW146413  11.146   8.366  10.463
81527SOL    HW246414  11.285   8.391  10.408
81528SOL     OW46415  13.122   4.313   6.699
81528SOL    HW146416  13.069   4.272   6.767
81528SOL    HW246417  13.073   4.393   6.676
81529SOL     OW46418   6.027  12.804   3.450
81529SOL    HW146419   5.988  12.891   3.454
81529SOL    HW246420   5.966  12.748   3.498
81530SOL     OW46421   7.761   4.950  11.046
81530SOL    HW146422   7.758   5.025  11.105
81530SOL    HW246423   7.780   4.987  10.960
81531SOL     OW46424   8.284   4.769  14.023
81531SOL    HW146425   8.192   4.795  14.019
81531SOL    HW246426   8.301   4.756  14.117
81532SOL     OW46427  12.752   0.010  14.324
81532SOL    HW146428  12.789  14.855  14.406
81532SOL    HW246429  12.828   0.020  14.266
81533SOL     OW46430   1.160  10.935  10.932
81533SOL    HW146431   1.154  10.879  10.854
81533SOL    HW246432   1.247  10.918  10.967
81534SOL     OW46433   1.438  10.510  13.095
81534SOL    HW146434   1.489  10.573  13.043
81534SOL    HW246435   1.364  10.560  13.128
81535SOL     OW46436   5.334  11.055   1.771
81535SOL    HW146437   5.392  11.061   1.695
81535SOL    HW246438   5.262  11.115   1.751
81536SOL     OW46439  11.325  11.787   6.643
81536SOL    HW146440  11.234  11.801   6.615
81536SOL    HW246441  11.377  11.845   6.588
81537SOL     OW46442   9.052   9.715   4.642
81537SOL    HW146443   9.022   9.740   4.555
81537SOL    HW246444   9.092   9.794   4.677
81538SOL     OW46445   9.589  10.803  13.899
81538SOL    HW146446   9.510  10.750  13.885
81538SOL    HW246447   9.603  10.847  13.815
81539SOL     OW46448  14.351   5.400   5.638
81539SOL    HW146449  14.437   5.434   5.664
81539SOL    HW246450  14.290   5.469   5.662
81540SOL     OW46451  11.039   6.410   9.758
81540SOL    HW146452  10.956   6.438   9.720
81540SOL    HW246453  11.068   6.484   9.811
81541SOL     OW46454   3.055   8.437   8.534
81541SOL    HW146455   3.054   8.423   8.440
81541SOL    HW246456   3.128   8.384   8.566
81542SOL     OW46457   1.700   1.841   2.187
81542SOL    HW146458   1.633   1.867   2.124
81542SOL    HW246459   1.735   1.923   2.221
81543SOL     OW46460   6.421  10.413   4.867
81543SOL    HW146461   6.502  10.362   4.867
81543SOL    HW246462   6.398  10.419   4.960
81544SOL     OW46463   4.322   0.574  11.944
81544SOL    HW146464   4.252   0.640  11.943
81544SOL    HW246465   4.281   0.496  11.980
81545SOL     OW46466   9.718   7.106   4.544
81545SOL    HW146467   9.723   7.012   4.556
81545SOL    HW246468   9.636   7.132   4.587
81546SOL     OW46469  10.812   3.731   0.882
81546SOL    HW146470  10.831   3.801   0.944
81546SOL    HW246471  10.867   3.750   0.806
81547SOL     OW46472   4.349   0.287   3.791
81547SOL    HW146473   4.363   0.365   3.738
81547SOL    HW246474   4.275   0.242   3.749
81548SOL     OW46475   8.157   4.485   6.114
81548SOL    HW146476   8.178   4.567   6.159
81548SOL    HW246477   8.081   4.506   6.060
81549SOL     OW46478   0.337  14.454   0.896
81549SOL    HW146479   0.398  14.456   0.823
81549SOL    HW246480   0.381  14.402   0.963
81550SOL     OW46481  13.208   2.294   7.114
81550SOL    HW146482  13.292   2.326   7.080
81550SOL    HW246483  13.177   2.233   7.047
81551SOL     OW46484   7.376   1.144  12.912
81551SOL    HW146485   7.280   1.152  12.912
81551SOL    HW246486   7.396   1.102  12.829
81552SOL     OW46487  11.834  10.757   5.569
81552SOL    HW146488  11.744  10.789   5.575
81552SOL    HW246489  11.857  10.767   5.477
81553SOL     OW46490   7.681  10.844   8.133
81553SOL    HW146491   7.753  10.856   8.195
81553SOL    HW246492   7.676  10.749   8.120
81554SOL     OW46493   3.546   0.913   4.259
81554SOL    HW146494   3.641   0.904   4.252
81554SOL    HW246495   3.522   0.856   4.332
81555SOL     OW46496   9.124   0.913   2.781
81555SOL    HW146497   9.101   0.846   2.845
81555SOL    HW246498   9.216   0.897   2.760
81556SOL     OW46499   6.881   7.054  10.621
81556SOL    HW146500   6.809   7.103  10.661
81556SOL    HW246501   6.876   7.076  10.528
81557SOL     OW46502   1.087   3.404   1.792
81557SOL    HW146503   1.145   3.472   1.827
81557SOL    HW246504   1.109   3.326   1.843
81558SOL     OW46505   6.868   7.419  12.038
81558SOL    HW146506   6.905   7.375  12.115
81558SOL    HW246507   6.934   7.484  12.014
81559SOL     OW46508  12.717   3.546   7.222
81559SOL    HW146509  12.634   3.592   7.222
81559SOL    HW246510  12.779   3.608   7.183
81560SOL     OW46511   8.183  12.834   0.794
81560SOL    HW146512   8.194  12.777   0.719
81560SOL    HW246513   8.202  12.779   0.870
81561SOL     OW46514  11.379   2.204   8.682
81561SOL    HW146515  11.344   2.293   8.672
81561SOL    HW246516  11.472   2.213   8.658
81562SOL     OW46517  13.728   9.797   7.292
81562SOL    HW146518  13.676   9.719   7.310
81562SOL    HW246519  13.776   9.776   7.212
81563SOL     OW46520   2.836   0.025  11.309
81563SOL    HW146521   2.885   0.103  11.285
81563SOL    HW246522   2.834  14.849  11.228
81564SOL     OW46523   2.364   1.357   0.014
81564SOL    HW146524   2.365   1.328   0.105
81564SOL    HW246525   2.273   1.349  14.863
81565SOL     OW46526   2.880   0.611  12.926
81565SOL    HW146527   2.934   0.633  12.850
81565SOL    HW246528   2.897   0.518  12.942
81566SOL     OW46529  11.009   8.360  11.620
81566SOL    HW146530  10.990   8.448  11.654
81566SOL    HW246531  10.938   8.305  11.654
81567SOL     OW46532   6.662  10.454  14.454
81567SOL    HW146533   6.644  10.428  14.364
81567SOL    HW246534   6.756  10.442  14.465
81568SOL     OW46535  11.607   6.270  10.079
81568SOL    HW146536  11.516   6.285  10.054
81568SOL    HW246537  11.619   6.321  10.159
81569SOL     OW46538  13.831   9.728  12.945
81569SOL    HW146539  13.902   9.790  12.961
81569SOL    HW246540  13.756   9.765  12.991
81570SOL     OW46541   3.516   8.445   5.823
81570SOL    HW146542   3.587   8.505   5.846
81570SOL    HW246543   3.511   8.449   5.728
81571SOL     OW46544  14.781   0.391   8.425
81571SOL    HW146545  14.730   0.335   8.484
81571SOL    HW246546  14.840   0.331   8.380
81572SOL     OW46547   0.441  14.584   5.936
81572SOL    HW146548   0.410  14.673   5.951
81572SOL    HW246549   0.364  14.536   5.908
81573SOL     OW46550   5.591   5.152   4.716
81573SOL    HW146551   5.525   5.093   4.679
81573SOL    HW246552   5.542   5.207   4.777
81574SOL     OW46553  13.291   4.374   9.036
81574SOL    HW146554  13.202   4.342   9.053
81574SOL    HW246555  13.348   4.311   9.080
81575SOL     OW46556   4.511  12.170  11.037
81575SOL    HW146557   4.476  12.088  11.001
81575SOL    HW246558   4.582  12.194  10.977
81576SOL     OW46559   7.027   1.135  14.020
81576SOL    HW146560   7.016   1.041  14.029
81576SOL    HW246561   7.105   1.145  13.965
81577SOL     OW46562   4.330   9.926   3.052
81577SOL    HW146563   4.417   9.954   3.025
81577SOL    HW246564   4.293  10.002   3.096
81578SOL     OW46565  13.444   6.306   6.965
81578SOL    HW146566  13.369   6.326   6.909
81578SOL    HW246567  13.458   6.212   6.953
81579SOL     OW46568   4.119   5.372  14.215
81579SOL    HW146569   4.094   5.456  14.252
81579SOL    HW246570   4.046   5.349  14.157
81580SOL     OW46571   1.689   8.245   0.236
81580SOL    HW146572   1.615   8.302   0.218
81580SOL    HW246573   1.754   8.303   0.277
81581SOL     OW46574   9.526  13.984  14.047
81581SOL    HW146575   9.607  13.956  14.006
81581SOL    HW246576   9.524  14.079  14.036
81582SOL     OW46577   8.483   9.951   8.643
81582SOL    HW146578   8.389   9.932   8.651
81582SOL    HW246579   8.514   9.891   8.575
81583SOL     OW46580  13.399   3.826  12.731
81583SOL    HW146581  13.377   3.911  12.694
81583SOL    HW246582  13.318   3.776  12.728
81584SOL     OW46583   2.297  13.251  11.281
81584SOL    HW146584   2.256  13.319  11.334
81584SOL    HW246585   2.339  13.193  11.345
81585SOL     OW46586   1.697   7.446   4.711
81585SOL    HW146587   1.743   7.443   4.627
81585SOL    HW246588   1.765   7.466   4.775
81586SOL     OW46589  14.870  14.010   4.932
81586SOL    HW146590  14.848  13.931   4.883
81586SOL    HW246591  14.789  14.035   4.976
81587SOL     OW46592   6.452  14.176   4.050
81587SOL    HW146593   6.493  14.181   4.136
81587SOL    HW246594   6.465  14.085   4.022
81588SOL     OW46595   9.503   5.654   7.816
81588SOL    HW146596   9.442   5.590   7.852
81588SOL    HW246597   9.533   5.704   7.891
81589SOL     OW46598   9.653  10.132   8.184
81589SOL    HW146599   9.598  10.062   8.218
81589SOL    HW246600   9.742  10.108   8.209
81590SOL     OW46601   2.092  14.268   3.177
81590SOL    HW146602   2.020  14.330   3.162
81590SOL    HW246603   2.113  14.278   3.270
81591SOL     OW46604  10.908   5.273   4.782
81591SOL    HW146605  10.871   5.361   4.768
81591SOL    HW246606  11.003   5.287   4.785
81592SOL     OW46607   0.538   5.081   0.180
81592SOL    HW146608   0.533   5.018   0.108
81592SOL    HW246609   0.488   5.041   0.251
81593SOL     OW46610   7.517  13.417   6.740
81593SOL    HW146611   7.443  13.372   6.780
81593SOL    HW246612   7.505  13.509   6.761
81594SOL     OW46613   1.859  12.748   6.291
81594SOL    HW146614   1.799  12.820   6.310
81594SOL    HW246615   1.946  12.782   6.310
81595SOL     OW46616  10.842   3.326   4.535
81595SOL    HW146617  10.839   3.275   4.454
81595SOL    HW246618  10.920   3.381   4.526
81596SOL     OW46619   3.457   9.175   4.413
81596SOL    HW146620   3.504   9.169   4.496
81596SOL    HW246621   3.366   9.190   4.438
81597SOL     OW46622  12.043   5.249  10.415
81597SOL    HW146623  12.017   5.256  10.507
81597SOL    HW246624  12.128   5.293  10.411
81598SOL     OW46625  12.345  12.628  12.518
81598SOL    HW146626  12.258  12.604  12.487
81598SOL    HW246627  12.329  12.679  12.597
81599SOL     OW46628  13.030   9.833   8.594
81599SOL    HW146629  13.121   9.862   8.597
81599SOL    HW246630  13.013   9.815   8.502
81600SOL     OW46631  10.209  11.405  13.022
81600SOL    HW146632  10.177  11.389  12.933
81600SOL    HW246633  10.205  11.320  13.065
81601SOL     OW46634   2.726   5.207   4.530
81601SOL    HW146635   2.782   5.195   4.453
81601SOL    HW246636   2.720   5.120   4.570
81602SOL     OW46637   2.939   2.682   2.489
81602SOL    HW146638   3.001   2.687   2.562
81602SOL    HW246639   2.895   2.766   2.489
81603SOL     OW46640   5.825  11.417  14.572
81603SOL    HW146641   5.914  11.384  14.584
81603SOL    HW246642   5.836  11.497  14.520
81604SOL     OW46643   2.872   7.727   5.133
81604SOL    HW146644   2.805   7.707   5.199
81604SOL    HW246645   2.949   7.677   5.161
81605SOL     OW46646  13.158   2.645   8.590
81605SOL    HW146647  13.243   2.603   8.580
81605SOL    HW246648  13.178   2.732   8.623
81606SOL     OW46649   7.468   9.503   5.248
81606SOL    HW146650   7.451   9.411   5.266
81606SOL    HW246651   7.417   9.551   5.314
81607SOL     OW46652  14.376  10.087   0.588
81607SOL    HW146653  14.389  10.182   0.591
81607SOL    HW246654  14.407  10.055   0.672
81608SOL     OW46655   9.212  13.931  13.134
81608SOL    HW146656   9.139  13.985  13.106
81608SOL    HW246657   9.267  13.922  13.056
81609SOL     OW46658   1.361   6.097   0.224
81609SOL    HW146659   1.293   6.149   0.267
81609SOL    HW246660   1.370   6.135   0.137
81610SOL     OW46661   7.532   6.299   9.528
81610SOL    HW146662   7.462   6.296   9.463
81610SOL    HW246663   7.561   6.390   9.528
81611SOL     OW46664  14.147   7.151  10.503
81611SOL    HW146665  14.128   7.100  10.581
81611SOL    HW246666  14.140   7.089  10.430
81612SOL     OW46667  10.679   5.203   7.506
81612SOL    HW146668  10.613   5.140   7.536
81612SOL    HW246669  10.762   5.162   7.528
81613SOL     OW46670  13.426  14.534  14.755
81613SOL    HW146671  13.378  14.460  14.791
81613SOL    HW246672  13.364  14.607  14.756
81614SOL     OW46673   4.385   7.050   1.434
81614SOL    HW146674   4.479   7.061   1.440
81614SOL    HW246675   4.366   7.054   1.340
81615SOL     OW46676   0.128   3.946   9.590
81615SOL    HW146677   0.116   3.953   9.495
81615SOL    HW246678   0.137   3.852   9.606
81616SOL     OW46679   8.899  10.758   6.077
81616SOL    HW146680   8.959  10.781   6.006
81616SOL    HW246681   8.953  10.709   6.140
81617SOL     OW46682   9.336   7.946  11.762
81617SOL    HW146683   9.310   8.017  11.821
81617SOL    HW246684   9.270   7.878  11.777
81618SOL     OW46685  13.970  10.050   0.007
81618SOL    HW146686  13.877  10.044   0.027
81618SOL    HW246687  13.975  10.045  14.788
81619SOL     OW46688   5.865   9.779   7.266
81619SOL    HW146689   5.774   9.770   7.295
81619SOL    HW246690   5.893   9.689   7.247
81620SOL     OW46691   4.659   7.365   8.232
81620SOL    HW146692   4.683   7.457   8.220
81620SOL    HW246693   4.621   7.361   8.320
81621SOL     OW46694   3.454  12.180   1.048
81621SOL    HW146695   3.480  12.256   0.997
81621SOL    HW246696   3.399  12.129   0.989
81622SOL     OW46697  11.282   8.976   7.508
81622SOL    HW146698  11.337   8.989   7.431
81622SOL    HW246699  11.198   9.017   7.486
81623SOL     OW46700   6.212   5.310  12.798
81623SOL    HW146701   6.123   5.298  12.765
81623SOL    HW246702   6.221   5.242  12.865
81624SOL     OW46703   5.725   2.858   4.951
81624SOL    HW146704   5.758   2.883   5.037
81624SOL    HW246705   5.804   2.831   4.902
81625SOL     OW46706   5.071  13.927   1.859
81625SOL    HW146707   5.004  13.858   1.867
81625SOL    HW246708   5.035  13.988   1.795
81626SOL     OW46709   8.358   0.568  12.450
81626SOL    HW146710   8.266   0.582  12.428
81626SOL    HW246711   8.399   0.655  12.439
81627SOL     OW46712   5.793   3.634  10.602
81627SOL    HW146713   5.715   3.606  10.649
81627SOL    HW246714   5.772   3.722  10.571
81628SOL     OW46715   6.898  11.569   1.373
81628SOL    HW146716   6.930  11.504   1.311
81628SOL    HW246717   6.965  11.637   1.374
81629SOL     OW46718   3.280   9.142  13.481
81629SOL    HW146719   3.355   9.195  13.453
81629SOL    HW246720   3.320   9.062  13.515
81630SOL     OW46721   8.645   4.168   6.075
81630SOL    HW146722   8.637   4.228   6.001
81630SOL    HW246723   8.684   4.089   6.038
81631SOL     OW46724   3.403  11.083   2.215
81631SOL    HW146725   3.450  11.011   2.173
81631SOL    HW246726   3.402  11.152   2.149
81632SOL     OW46727   9.111  10.443  10.801
81632SOL    HW146728   9.147  10.447  10.712
81632SOL    HW246729   9.124  10.353  10.829
81633SOL     OW46730   1.878   9.162   7.994
81633SOL    HW146731   1.904   9.143   7.904
81633SOL    HW246732   1.961   9.177   8.040
81634SOL     OW46733  13.284  14.179   5.428
81634SOL    HW146734  13.299  14.180   5.522
81634SOL    HW246735  13.299  14.270   5.400
81635SOL     OW46736  12.482   2.169  11.666
81635SOL    HW146737  12.482   2.245  11.608
81635SOL    HW246738  12.406   2.118  11.638
81636SOL     OW46739   2.680   5.619  14.688
81636SOL    HW146740   2.761   5.581  14.722
81636SOL    HW246741   2.709   5.688  14.628
81637SOL     OW46742   6.446   9.343  11.144
81637SOL    HW146743   6.436   9.265  11.089
81637SOL    HW246744   6.538   9.368  11.135
81638SOL     OW46745   6.773  14.751   0.347
81638SOL    HW146746   6.758  14.772   0.255
81638SOL    HW246747   6.867  14.732   0.353
81639SOL     OW46748   8.862   1.211   8.167
81639SOL    HW146749   8.940   1.251   8.128
81639SOL    HW246750   8.797   1.282   8.170
81640SOL     OW46751  14.019   8.887  14.314
81640SOL    HW146752  14.100   8.837  14.325
81640SOL    HW246753  13.993   8.870  14.223
81641SOL     OW46754   5.996  11.894  10.463
81641SOL    HW146755   6.080  11.929  10.433
81641SOL    HW246756   5.970  11.833  10.393
81642SOL     OW46757   4.421   2.482   1.191
81642SOL    HW146758   4.448   2.481   1.283
81642SOL    HW246759   4.327   2.465   1.194
81643SOL     OW46760  14.065   6.568   9.633
81643SOL    HW146761  13.975   6.578   9.600
81643SOL    HW246762  14.075   6.642   9.694
81644SOL     OW46763   4.564   6.695  11.855
81644SOL    HW146764   4.488   6.698  11.796
81644SOL    HW246765   4.573   6.785  11.886
81645SOL     OW46766  12.105   0.440  13.217
81645SOL    HW146767  12.118   0.401  13.130
81645SOL    HW246768  12.129   0.532  13.206
81646SOL     OW46769   4.420  10.708   1.038
81646SOL    HW146770   4.444  10.800   1.050
81646SOL    HW246771   4.493  10.659   1.076
81647SOL     OW46772   1.550   7.302   2.560
81647SOL    HW146773   1.470   7.281   2.606
81647SOL    HW246774   1.558   7.397   2.567
81648SOL     OW46775   3.824   3.265  12.337
81648SOL    HW146776   3.821   3.322  12.414
81648SOL    HW246777   3.758   3.197  12.354
81649SOL     OW46778   0.528   4.641  10.894
81649SOL    HW146779   0.538   4.735  10.879
81649SOL    HW246780   0.502   4.606  10.809
81650SOL     OW46781   1.248  14.601  14.359
81650SOL    HW146782   1.338  14.633  14.351
81650SOL    HW246783   1.195  14.668  14.315
81651SOL     OW46784   5.621   1.382   4.450
81651SOL    HW146785   5.553   1.320   4.475
81651SOL    HW246786   5.642   1.360   4.359
81652SOL     OW46787  10.589  11.503  14.267
81652SOL    HW146788  10.505  11.501  14.313
81652SOL    HW246789  10.640  11.432  14.307
81653SOL     OW46790   7.642  11.525   0.478
81653SOL    HW146791   7.685  11.579   0.544
81653SOL    HW246792   7.637  11.438   0.517
81654SOL     OW46793   2.862   4.918   9.274
81654SOL    HW146794   2.831   5.004   9.303
81654SOL    HW246795   2.882   4.930   9.181
81655SOL     OW46796   0.501   0.167   3.839
81655SOL    HW146797   0.581   0.117   3.853
81655SOL    HW246798   0.443   0.107   3.792
81656SOL     OW46799  10.471   8.035  13.124
81656SOL    HW146800  10.380   8.015  13.145
81656SOL    HW246801  10.471   8.126  13.096
81657SOL     OW46802   1.427   6.400  12.798
81657SOL    HW146803   1.351   6.451  12.769
81657SOL    HW246804   1.395   6.310  12.804
81658SOL     OW46805   4.093  14.015  11.953
81658SOL    HW146806   4.138  13.944  11.907
81658SOL    HW246807   4.163  14.064  11.996
81659SOL     OW46808   4.533  13.136   4.675
81659SOL    HW146809   4.605  13.167   4.619
81659SOL    HW246810   4.543  13.040   4.676
81660SOL     OW46811   5.855  10.876   6.495
81660SOL    HW146812   5.780  10.817   6.487
81660SOL    HW246813   5.923  10.822   6.537
81661SOL     OW46814   3.209   8.494   1.130
81661SOL    HW146815   3.287   8.546   1.114
81661SOL    HW246816   3.204   8.487   1.226
81662SOL     OW46817  13.131   0.902  14.533
81662SOL    HW146818  13.170   0.814  14.538
81662SOL    HW246819  13.172   0.942  14.456
81663SOL     OW46820   9.606  10.137   9.324
81663SOL    HW146821   9.521  10.177   9.337
81663SOL    HW246822   9.592  10.075   9.251
81664SOL     OW46823   4.396  13.402   7.871
81664SOL    HW146824   4.383  13.368   7.783
81664SOL    HW246825   4.454  13.478   7.859
81665SOL     OW46826   0.002   4.590   9.786
81665SOL    HW146827  14.867   4.529   9.713
81665SOL    HW246828   0.041   4.667   9.746
81666SOL     OW46829   4.846   4.342   7.408
81666SOL    HW146830   4.863   4.251   7.430
81666SOL    HW246831   4.922   4.390   7.441
81667SOL     OW46832   2.473   3.622  11.984
81667SOL    HW146833   2.505   3.535  12.006
81667SOL    HW246834   2.540   3.682  12.017
81668SOL     OW46835   3.398  13.419   9.442
81668SOL    HW146836   3.318  13.457   9.407
81668SOL    HW246837   3.453  13.405   9.364
81669SOL     OW46838   8.087   2.967  14.537
81669SOL    HW146839   8.069   2.890  14.591
81669SOL    HW246840   8.078   2.936  14.447
81670SOL     OW46841   0.286   0.282   2.806
81670SOL    HW146842   0.318   0.192   2.797
81670SOL    HW246843   0.331   0.331   2.737
81671SOL     OW46844  11.905  10.573   1.596
81671SOL    HW146845  11.947  10.490   1.571
81671SOL    HW246846  11.826  10.546   1.643
81672SOL     OW46847  14.702  10.405  11.027
81672SOL    HW146848  14.782  10.456  11.036
81672SOL    HW246849  14.672  10.425  10.938
81673SOL     OW46850   1.845  12.214   0.785
81673SOL    HW146851   1.791  12.151   0.737
81673SOL    HW246852   1.795  12.233   0.864
81674SOL     OW46853   0.743   6.845  14.304
81674SOL    HW146854   0.757   6.751  14.312
81674SOL    HW246855   0.707   6.871  14.389
81675SOL     OW46856   8.019   2.790   2.076
81675SOL    HW146857   7.989   2.721   2.135
81675SOL    HW246858   8.016   2.751   1.989
81676SOL     OW46859   7.541  13.680  14.214
81676SOL    HW146860   7.570  13.720  14.296
81676SOL    HW246861   7.497  13.599  14.240
81677SOL     OW46862   4.330   0.272  10.316
81677SOL    HW146863   4.310   0.357  10.354
81677SOL    HW246864   4.392   0.232  10.378
81678SOL     OW46865   7.383  11.292  11.086
81678SOL    HW146866   7.437  11.216  11.061
81678SOL    HW246867   7.325  11.258  11.154
81679SOL     OW46868   3.477  12.253  12.682
81679SOL    HW146869   3.517  12.339  12.670
81679SOL    HW246870   3.530  12.194  12.628
81680SOL     OW46871   9.737  10.715  10.887
81680SOL    HW146872   9.668  10.689  10.827
81680SOL    HW246873   9.798  10.765  10.834
81681SOL     OW46874  14.763   1.452   6.042
81681SOL    HW146875  14.753   1.374   5.988
81681SOL    HW246876  14.786   1.417   6.129
81682SOL     OW46877   4.233   5.975  10.170
81682SOL    HW146878   4.262   5.915  10.239
81682SOL    HW246879   4.169   5.924  10.120
81683SOL     OW46880   1.729   8.369   0.715
81683SOL    HW146881   1.712   8.392   0.807
81683SOL    HW246882   1.806   8.421   0.692
81684SOL     OW46883   0.377   4.442   3.639
81684SOL    HW146884   0.299   4.493   3.659
81684SOL    HW246885   0.358   4.398   3.556
81685SOL     OW46886  12.412   6.778  12.171
81685SOL    HW146887  12.435   6.871  12.166
81685SOL    HW246888  12.452   6.739  12.093
81686SOL     OW46889   4.264   6.926   6.603
81686SOL    HW146890   4.172   6.918   6.629
81686SOL    HW246891   4.310   6.944   6.685
81687SOL     OW46892   4.809  14.458   8.429
81687SOL    HW146893   4.844  14.532   8.379
81687SOL    HW246894   4.885  14.405   8.451
81688SOL     OW46895  11.221   2.798   4.348
81688SOL    HW146896  11.152   2.858   4.321
81688SOL    HW246897  11.281   2.794   4.273
81689SOL     OW46898   4.359  11.936   6.190
81689SOL    HW146899   4.328  11.925   6.280
81689SOL    HW246900   4.291  11.989   6.148
81690SOL     OW46901  10.786   5.791  13.299
81690SOL    HW146902  10.870   5.797  13.255
81690SOL    HW246903  10.807   5.757  13.386
81691SOL     OW46904  13.276   0.734   6.940
81691SOL    HW146905  13.214   0.677   6.987
81691SOL    HW246906  13.360   0.719   6.984
81692SOL     OW46907   1.276  10.836   3.292
81692SOL    HW146908   1.258  10.883   3.374
81692SOL    HW246909   1.290  10.745   3.318
81693SOL     OW46910   8.964   4.936   5.877
81693SOL    HW146911   9.025   4.979   5.816
81693SOL    HW246912   9.001   4.849   5.890
81694SOL     OW46913   8.409   8.682  10.977
81694SOL    HW146914   8.370   8.678  11.064
81694SOL    HW246915   8.496   8.645  10.988
81695SOL     OW46916   1.918   1.657   7.515
81695SOL    HW146917   1.928   1.570   7.554
81695SOL    HW246918   1.899   1.714   7.590
81696SOL     OW46919   6.979   3.316   7.937
81696SOL    HW146920   6.951   3.229   7.964
81696SOL    HW246921   7.050   3.301   7.876
81697SOL     OW46922  10.128  11.873  14.601
81697SOL    HW146923  10.217  11.863  14.634
81697SOL    HW246924  10.135  11.853  14.508
81698SOL     OW46925   1.248  14.609  13.954
81698SOL    HW146926   1.305  14.678  13.989
81698SOL    HW246927   1.244  14.628  13.860
81699SOL     OW46928   3.642   0.300   8.730
81699SOL    HW146929   3.701   0.251   8.673
81699SOL    HW246930   3.698   0.362   8.775
81700SOL     OW46931  11.292   5.829   0.535
81700SOL    HW146932  11.273   5.860   0.447
81700SOL    HW246933  11.231   5.756   0.548
81701SOL     OW46934   1.181   7.108   0.928
81701SOL    HW146935   1.183   7.073   0.839
81701SOL    HW246936   1.173   7.202   0.917
81702SOL     OW46937   7.655  10.766  11.391
81702SOL    HW146938   7.580  10.779  11.450
81702SOL    HW246939   7.667  10.671  11.390
81703SOL     OW46940  14.021   1.152   4.892
81703SOL    HW146941  14.087   1.088   4.864
81703SOL    HW246942  13.939   1.119   4.854
81704SOL     OW46943   5.996  12.540   3.968
81704SOL    HW146944   6.069  12.517   3.912
81704SOL    HW246945   6.036  12.570   4.050
81705SOL     OW46946   0.341   9.894   4.214
81705SOL    HW146947   0.369   9.810   4.177
81705SOL    HW246948   0.245   9.887   4.220
81706SOL     OW46949   9.343   6.138   8.201
81706SOL    HW146950   9.416   6.076   8.195
81706SOL    HW246951   9.274   6.090   8.246
81707SOL     OW46952   7.482   4.212   2.788
81707SOL    HW146953   7.411   4.261   2.747
81707SOL    HW246954   7.446   4.125   2.804
81708SOL     OW46955  11.708   5.198   6.974
81708SOL    HW146956  11.780   5.201   6.911
81708SOL    HW246957  11.708   5.108   7.006
81709SOL     OW46958   6.950   1.585   0.330
81709SOL    HW146959   6.869   1.535   0.316
81709SOL    HW246960   6.952   1.648   0.258
81710SOL     OW46961  14.626  14.555  14.392
81710SOL    HW146962  14.590  14.595  14.472
81710SOL    HW246963  14.616  14.623  14.325
81711SOL     OW46964   4.610  10.316   2.895
81711SOL    HW146965   4.556  10.305   2.818
81711SOL    HW246966   4.688  10.263   2.877
81712SOL     OW46967   0.823   6.707   2.236
81712SOL    HW146968   0.749   6.767   2.241
81712SOL    HW246969   0.783   6.623   2.214
81713SOL     OW46970   7.139   7.019   9.656
81713SOL    HW146971   7.131   7.094   9.596
81713SOL    HW246972   7.064   7.027   9.715
81714SOL     OW46973   2.725   2.996   3.891
81714SOL    HW146974   2.707   2.903   3.877
81714SOL    HW246975   2.759   3.027   3.807
81715SOL     OW46976   4.291  14.624  10.825
81715SOL    HW146977   4.258  14.599  10.739
81715SOL    HW246978   4.364  14.564  10.841
81716SOL     OW46979   3.774   1.694   3.761
81716SOL    HW146980   3.829   1.745   3.820
81716SOL    HW246981   3.834   1.631   3.721
81717SOL     OW46982   1.007   7.091  10.504
81717SOL    HW146983   0.914   7.095  10.526
81717SOL    HW246984   1.011   7.118  10.412
81718SOL     OW46985  11.732  12.630  10.482
81718SOL    HW146986  11.824  12.624  10.457
81718SOL    HW246987  11.697  12.700  10.427
81719SOL     OW46988   6.792   7.115   2.321
81719SOL    HW146989   6.856   7.150   2.259
81719SOL    HW246990   6.737   7.190   2.344
81720SOL     OW46991  12.525  11.098   5.225
81720SOL    HW146992  12.554  11.104   5.134
81720SOL    HW246993  12.482  11.013   5.231
81721SOL     OW46994  13.756   0.429  10.373
81721SOL    HW146995  13.665   0.406  10.393
81721SOL    HW246996  13.799   0.429  10.459
81722SOL     OW46997   4.993   5.658   8.692
81722SOL    HW146998   4.942   5.640   8.614
81722SOL    HW246999   5.060   5.720   8.663
81723SOL     OW47000   5.188  10.714   4.043
81723SOL    HW147001   5.148  10.691   4.127
81723SOL    HW247002   5.140  10.792   4.013
81724SOL     OW47003  13.847   6.031  13.679
81724SOL    HW147004  13.912   6.069  13.738
81724SOL    HW247005  13.886   5.949  13.651
81725SOL     OW47006  10.305   0.900  14.525
81725SOL    HW147007  10.283   0.815  14.487
81725SOL    HW247008  10.401   0.904  14.519
81726SOL     OW47009  10.733   8.499  12.297
81726SOL    HW147010  10.727   8.493  12.202
81726SOL    HW247011  10.677   8.429  12.329
81727SOL     OW47012  13.058   9.811   7.661
81727SOL    HW147013  13.017   9.729   7.631
81727SOL    HW247014  13.137   9.783   7.707
81728SOL     OW47015  13.908   5.036  12.997
81728SOL    HW147016  13.915   5.125  12.965
81728SOL    HW247017  13.993   5.018  13.038
81729SOL     OW47018   0.339  11.231   7.816
81729SOL    HW147019   0.290  11.207   7.737
81729SOL    HW247020   0.319  11.324   7.829
81730SOL     OW47021  13.142   2.950   4.808
81730SOL    HW147022  13.199   3.027   4.811
81730SOL    HW247023  13.162   2.909   4.724
81731SOL     OW47024   8.156   9.121  10.591
81731SOL    HW147025   8.246   9.094  10.608
81731SOL    HW247026   8.106   9.084  10.665
81732SOL     OW47027   3.392   9.438  11.976
81732SOL    HW147028   3.414   9.366  12.035
81732SOL    HW247029   3.405   9.403  11.888
81733SOL     OW47030   0.500  11.103   8.071
81733SOL    HW147031   0.411  11.069   8.080
81733SOL    HW247032   0.494  11.166   7.999
81734SOL     OW47033  14.065   6.793   7.910
81734SOL    HW147034  14.107   6.842   7.839
81734SOL    HW247035  13.977   6.776   7.878
81735SOL     OW47036  11.459   6.215   2.279
81735SOL    HW147037  11.396   6.286   2.292
81735SOL    HW247038  11.533   6.239   2.336
81736SOL     OW47039   9.845  12.561  11.817
81736SOL    HW147040   9.843  12.657  11.813
81736SOL    HW247041   9.800  12.540  11.899
81737SOL     OW47042   2.120   3.886   2.657
81737SOL    HW147043   2.055   3.884   2.587
81737SOL    HW247044   2.070   3.906   2.736
81738SOL     OW47045   2.191   7.419  13.150
81738SOL    HW147046   2.118   7.373  13.192
81738SOL    HW247047   2.266   7.401  13.206
81739SOL     OW47048   4.882   5.042  14.138
81739SOL    HW147049   4.966   5.008  14.167
81739SOL    HW247050   4.821   5.020  14.208
81740SOL     OW47051  14.450   5.153   9.392
81740SOL    HW147052  14.386   5.084   9.374
81740SOL    HW247053  14.454   5.204   9.311
81741SOL     OW47054   3.157  13.648  14.679
81741SOL    HW147055   3.240  13.621  14.639
81741SOL    HW247056   3.107  13.686  14.608
81742SOL     OW47057  10.448  13.229   7.485
81742SOL    HW147058  10.367  13.279   7.476
81742SOL    HW247059  10.516  13.284   7.446
81743SOL     OW47060   5.029  10.421   9.929
81743SOL    HW147061   4.972  10.357   9.887
81743SOL    HW247062   5.077  10.461   9.857
81744SOL     OW47063  10.865   2.396  11.757
81744SOL    HW147064  10.828   2.468  11.706
81744SOL    HW247065  10.935   2.437  11.808
81745SOL     OW47066   4.858   7.765  12.979
81745SOL    HW147067   4.776   7.814  12.977
81745SOL    HW247068   4.910   7.802  12.908
81746SOL     OW47069   0.505   2.457  13.895
81746SOL    HW147070   0.546   2.472  13.981
81746SOL    HW247071   0.577   2.470  13.833
81747SOL     OW47072   8.580   9.170   4.111
81747SOL    HW147073   8.491   9.145   4.136
81747SOL    HW247074   8.573   9.199   4.020
81748SOL     OW47075   2.376   0.337   6.533
81748SOL    HW147076   2.440   0.409   6.529
81748SOL    HW247077   2.352   0.333   6.626
81749SOL     OW47078   5.109  10.939  12.446
81749SOL    HW147079   5.067  10.853  12.444
81749SOL    HW247080   5.093  10.976  12.360
81750SOL     OW47081   3.633   4.406   7.144
81750SOL    HW147082   3.647   4.412   7.238
81750SOL    HW247083   3.716   4.435   7.105
81751SOL     OW47084   3.615  13.725   9.116
81751SOL    HW147085   3.677  13.791   9.148
81751SOL    HW247086   3.558  13.708   9.192
81752SOL     OW47087   4.132  11.411   9.632
81752SOL    HW147088   4.083  11.329   9.632
81752SOL    HW247089   4.202  11.397   9.568
81753SOL     OW47090   9.884   7.557  13.475
81753SOL    HW147091   9.950   7.520  13.534
81753SOL    HW247092   9.819   7.596  13.533
81754SOL     OW47093  12.192  12.085   3.328
81754SOL    HW147094  12.131  12.139   3.278
81754SOL    HW247095  12.252  12.050   3.263
81755SOL     OW47096  14.403   3.471   7.282
81755SOL    HW147097  14.420   3.492   7.191
81755SOL    HW247098  14.307   3.477   7.291
81756SOL     OW47099  11.040   0.876   9.470
81756SOL    HW147100  10.987   0.843   9.398
81756SOL    HW247101  11.126   0.834   9.459
81757SOL     OW47102  13.964  12.981   0.567
81757SOL    HW147103  13.999  13.047   0.627
81757SOL    HW247104  14.010  12.900   0.591
81758SOL     OW47105   9.751   7.745   5.235
81758SOL    HW147106   9.700   7.784   5.306
81758SOL    HW247107   9.701   7.668   5.208
81759SOL     OW47108   9.146  12.078   2.448
81759SOL    HW147109   9.077  12.012   2.457
81759SOL    HW247110   9.110  12.144   2.390
81760SOL     OW47111   9.291   4.323   0.279
81760SOL    HW147112   9.297   4.233   0.246
81760SOL    HW247113   9.232   4.317   0.355
81761SOL     OW47114   3.789   9.578   6.369
81761SOL    HW147115   3.733   9.645   6.330
81761SOL    HW247116   3.797   9.604   6.461
81762SOL     OW47117   4.948   9.711   0.046
81762SOL    HW147118   5.017   9.735   0.108
81762SOL    HW247119   4.867   9.734   0.090
81763SOL     OW47120  14.624   3.624   9.877
81763SOL    HW147121  14.703   3.609   9.825
81763SOL    HW247122  14.632   3.714   9.908
81764SOL     OW47123   0.793  13.964  10.256
81764SOL    HW147124   0.850  14.040  10.266
81764SOL    HW247125   0.750  13.978  10.172
81765SOL     OW47126   7.600   1.651   2.414
81765SOL    HW147127   7.510   1.683   2.426
81765SOL    HW247128   7.655   1.727   2.429
81766SOL     OW47129  12.577  13.115   1.033
81766SOL    HW147130  12.575  13.178   1.105
81766SOL    HW247131  12.605  13.166   0.957
81767SOL     OW47132   1.227  13.313  10.451
81767SOL    HW147133   1.302  13.253  10.452
81767SOL    HW247134   1.173  13.285  10.525
81768SOL     OW47135  11.846   2.318  13.370
81768SOL    HW147136  11.786   2.243  13.363
81768SOL    HW247137  11.815   2.367  13.445
81769SOL     OW47138   4.294   3.323   1.315
81769SOL    HW147139   4.233   3.289   1.380
81769SOL    HW247140   4.291   3.259   1.244
81770SOL     OW47141  14.768   7.879   8.065
81770SOL    HW147142  14.808   7.945   8.008
81770SOL    HW247143  14.731   7.930   8.137
81771SOL     OW47144  10.736   6.635   6.973
81771SOL    HW147145  10.660   6.577   6.975
81771SOL    HW247146  10.794   6.597   6.907
81772SOL     OW47147   9.037   4.899  14.391
81772SOL    HW147148   9.076   4.817  14.420
81772SOL    HW247149   8.944   4.881  14.383
81773SOL     OW47150   9.396   4.301  10.474
81773SOL    HW147151   9.340   4.270  10.403
81773SOL    HW247152   9.483   4.268  10.453
81774SOL     OW47153   2.260  10.946   1.604
81774SOL    HW147154   2.211  10.864   1.605
81774SOL    HW247155   2.351  10.920   1.591
81775SOL     OW47156  10.464   3.809   1.111
81775SOL    HW147157  10.513   3.787   1.190
81775SOL    HW247158  10.529   3.806   1.041
81776SOL     OW47159  12.273   2.187  11.250
81776SOL    HW147160  12.295   2.189  11.343
81776SOL    HW247161  12.223   2.106  11.238
81777SOL     OW47162   2.909   8.397   5.287
81777SOL    HW147163   2.961   8.438   5.218
81777SOL    HW247164   2.930   8.304   5.281
81778SOL     OW47165   6.581   1.636   3.636
81778SOL    HW147166   6.648   1.645   3.704
81778SOL    HW247167   6.625   1.664   3.555
81779SOL     OW47168   3.722   1.800   5.273
81779SOL    HW147169   3.731   1.721   5.220
81779SOL    HW247170   3.812   1.820   5.302
81780SOL     OW47171   0.238   2.013   8.696
81780SOL    HW147172   0.260   2.095   8.652
81780SOL    HW247173   0.248   2.032   8.789
81781SOL     OW47174   7.623   4.710   1.123
81781SOL    HW147175   7.625   4.679   1.214
81781SOL    HW247176   7.698   4.769   1.117
81782SOL     OW47177   3.270   8.845   2.750
81782SOL    HW147178   3.261   8.838   2.845
81782SOL    HW247179   3.321   8.769   2.725
81783SOL     OW47180   3.977  13.377   8.265
81783SOL    HW147181   4.066  13.392   8.298
81783SOL    HW247182   3.922  13.373   8.343
81784SOL     OW47183   1.980   5.690   7.560
81784SOL    HW147184   1.885   5.691   7.545
81784SOL    HW247185   1.991   5.725   7.648
81785SOL     OW47186   5.722   7.440   4.968
81785SOL    HW147187   5.746   7.400   4.885
81785SOL    HW247188   5.627   7.447   4.965
81786SOL     OW47189   7.793  10.111   1.748
81786SOL    HW147190   7.885  10.118   1.722
81786SOL    HW247191   7.758  10.040   1.694
81787SOL     OW47192   3.510  13.315   1.755
81787SOL    HW147193   3.528  13.381   1.688
81787SOL    HW247194   3.420  13.287   1.737
81788SOL     OW47195   7.033   6.689  10.576
81788SOL    HW147196   6.945   6.657  10.559
81788SOL    HW247197   7.046   6.760  10.513
81789SOL     OW47198   8.691   6.094   0.718
81789SOL    HW147199   8.657   6.017   0.765
81789SOL    HW247200   8.769   6.120   0.768
81790SOL     OW47201  12.061   4.741   0.347
81790SOL    HW147202  12.093   4.792   0.273
81790SOL    HW247203  12.120   4.665   0.351
81791SOL     OW47204   1.888  12.135   1.141
81791SOL    HW147205   1.861  12.211   1.192
81791SOL    HW247206   1.902  12.066   1.206
81792SOL     OW47207   6.729   2.383   4.579
81792SOL    HW147208   6.696   2.467   4.610
81792SOL    HW247209   6.720   2.387   4.484
81793SOL     OW47210   0.323   0.330   0.132
81793SOL    HW147211   0.407   0.373   0.114
81793SOL    HW247212   0.261   0.403   0.140
81794SOL     OW47213   7.723   8.902  14.451
81794SOL    HW147214   7.645   8.846  14.451
81794SOL    HW247215   7.693   8.984  14.488
81795SOL     OW47216   2.533  14.399   3.347
81795SOL    HW147217   2.592  14.324   3.353
81795SOL    HW247218   2.560  14.457   3.417
81796SOL     OW47219   0.119  13.162   7.832
81796SOL    HW147220   0.085  13.130   7.748
81796SOL    HW247221   0.165  13.243   7.810
81797SOL     OW47222   3.703   3.154  12.020
81797SOL    HW147223   3.751   3.187  12.097
81797SOL    HW247224   3.631   3.104  12.056
81798SOL     OW47225  13.306  11.422  13.983
81798SOL    HW147226  13.394  11.394  13.960
81798SOL    HW247227  13.283  11.486  13.915
81799SOL     OW47228   2.594   8.197   2.708
81799SOL    HW147229   2.676   8.155   2.682
81799SOL    HW247230   2.527   8.154   2.654
81800SOL     OW47231  12.393   6.353   7.731
81800SOL    HW147232  12.300   6.368   7.751
81800SOL    HW247233  12.393   6.322   7.641
81801SOL     OW47234  13.512   9.096  13.521
81801SOL    HW147235  13.563   9.017  13.500
81801SOL    HW247236  13.578   9.162  13.541
81802SOL     OW47237   5.115   3.933   7.791
81802SOL    HW147238   5.196   3.964   7.750
81802SOL    HW247239   5.050   4.000   7.768
81803SOL     OW47240   9.612   2.733   0.500
81803SOL    HW147241   9.705   2.720   0.513
81803SOL    HW247242   9.598   2.714   0.407
81804SOL     OW47243   4.928   3.995  13.508
81804SOL    HW147244   4.947   4.047  13.586
81804SOL    HW247245   4.928   3.904  13.538
81805SOL     OW47246   1.496  14.820   5.738
81805SOL    HW147247   1.587  14.792   5.735
81805SOL    HW247248   1.450  14.749   5.782
81806SOL     OW47249  11.748   7.462  11.343
81806SOL    HW147250  11.722   7.420  11.425
81806SOL    HW247251  11.689   7.426  11.277
81807SOL     OW47252  10.045  11.305   0.774
81807SOL    HW147253   9.956  11.297   0.740
81807SOL    HW247254  10.083  11.218   0.763
81808SOL     OW47255   0.250   8.463   6.068
81808SOL    HW147256   0.342   8.478   6.046
81808SOL    HW247257   0.244   8.369   6.085
81809SOL     OW47258   5.017   6.636   7.086
81809SOL    HW147259   5.034   6.543   7.095
81809SOL    HW247260   5.101   6.674   7.060
81810SOL     OW47261   1.729   0.913   9.256
81810SOL    HW147262   1.642   0.931   9.292
81810SOL    HW247263   1.781   0.887   9.331
81811SOL     OW47264   6.274   1.668   5.467
81811SOL    HW147265   6.214   1.596   5.483
81811SOL    HW247266   6.354   1.644   5.513
81812SOL     OW47267   7.966  11.843   5.462
81812SOL    HW147268   7.909  11.774   5.426
81812SOL    HW247269   8.052  11.825   5.424
81813SOL     OW47270  12.706   0.214  13.555
81813SOL    HW147271  12.799   0.232  13.569
81813SOL    HW247272  12.661   0.264  13.622
81814SOL     OW47273   1.607   5.027   2.941
81814SOL    HW147274   1.594   5.121   2.951
81814SOL    HW247275   1.591   5.009   2.849
81815SOL     OW47276  11.261   4.591   7.413
81815SOL    HW147277  11.239   4.656   7.480
81815SOL    HW247278  11.268   4.509   7.460
81816SOL     OW47279   3.312   0.955   0.054
81816SOL    HW147280   3.363   0.974  14.852
81816SOL    HW247281   3.228   0.923   0.021
81817SOL     OW47282   7.693  10.206   9.758
81817SOL    HW147283   7.722  10.297   9.764
81817SOL    HW247284   7.618  10.209   9.698
81818SOL     OW47285   8.648   6.164  14.147
81818SOL    HW147286   8.591   6.235  14.117
81818SOL    HW247287   8.732   6.207  14.166
81819SOL     OW47288   4.308   9.801  10.490
81819SOL    HW147289   4.364   9.826  10.563
81819SOL    HW247290   4.316   9.706  10.486
81820SOL     OW47291  10.898   9.744  12.999
81820SOL    HW147292  10.941   9.671  12.955
81820SOL    HW247293  10.805   9.732  12.978
81821SOL     OW47294  14.463   6.019   1.321
81821SOL    HW147295  14.396   6.076   1.283
81821SOL    HW247296  14.442   5.931   1.288
81822SOL     OW47297   2.262   2.082   1.551
81822SOL    HW147298   2.305   2.120   1.474
81822SOL    HW247299   2.335   2.055   1.608
81823SOL     OW47300   4.126  14.234   9.167
81823SOL    HW147301   4.035  14.223   9.194
81823SOL    HW247302   4.145  14.327   9.182
81824SOL     OW47303   5.921   3.710   2.755
81824SOL    HW147304   5.902   3.773   2.685
81824SOL    HW247305   5.965   3.763   2.822
81825SOL     OW47306   6.777   3.118   0.353
81825SOL    HW147307   6.724   3.184   0.308
81825SOL    HW247308   6.767   3.138   0.446
81826SOL     OW47309   4.534   3.121   3.614
81826SOL    HW147310   4.448   3.104   3.577
81826SOL    HW247311   4.586   3.154   3.541
81827SOL     OW47312  11.675  10.977  12.396
81827SOL    HW147313  11.678  10.886  12.424
81827SOL    HW247314  11.757  10.991  12.350
81828SOL     OW47315   6.053   2.784   7.241
81828SOL    HW147316   6.146   2.765   7.256
81828SOL    HW247317   6.030   2.729   7.166
81829SOL     OW47318   8.370  12.844   9.765
81829SOL    HW147319   8.330  12.928   9.742
81829SOL    HW247320   8.460  12.850   9.735
81830SOL     OW47321   4.538   2.843   2.083
81830SOL    HW147322   4.444   2.833   2.097
81830SOL    HW247323   4.553   2.809   1.995
81831SOL     OW47324   9.163  10.778   8.337
81831SOL    HW147325   9.074  10.774   8.303
81831SOL    HW247326   9.216  10.811   8.264
81832SOL     OW47327   5.466   1.187   3.727
81832SOL    HW147328   5.556   1.158   3.707
81832SOL    HW247329   5.425   1.110   3.766
81833SOL     OW47330  10.171  11.613  11.819
81833SOL    HW147331  10.203  11.523  11.825
81833SOL    HW247332  10.122  11.626  11.900
81834SOL     OW47333   4.176   9.989   8.327
81834SOL    HW147334   4.108   9.963   8.389
81834SOL    HW247335   4.158   9.937   8.248
81835SOL     OW47336  10.161   9.489   6.695
81835SOL    HW147337  10.085   9.541   6.721
81835SOL    HW247338  10.129   9.432   6.625
81836SOL     OW47339   0.618  12.281   3.332
81836SOL    HW147340   0.674  12.202   3.334
81836SOL    HW247341   0.678  12.352   3.308
81837SOL     OW47342   0.256   6.275   1.474
81837SOL    HW147343   0.198   6.269   1.398
81837SOL    HW247344   0.262   6.185   1.507
81838SOL     OW47345   2.692   7.606  14.115
81838SOL    HW147346   2.629   7.581  14.182
81838SOL    HW247347   2.729   7.688  14.147
81839SOL     OW47348  14.807   2.724   7.123
81839SOL    HW147349  14.782   2.677   7.203
81839SOL    HW247350   0.003   2.781   7.151
81840SOL     OW47351   3.480   5.558   1.181
81840SOL    HW147352   3.466   5.476   1.228
81840SOL    HW247353   3.572   5.581   1.199
81841SOL     OW47354  13.055   9.852   6.560
81841SOL    HW147355  12.975   9.880   6.605
81841SOL    HW247356  13.076   9.924   6.501
81842SOL     OW47357  14.777  10.362   6.438
81842SOL    HW147358  14.839  10.369   6.366
81842SOL    HW247359  14.801  10.432   6.498
81843SOL     OW47360   1.422   0.455   1.745
81843SOL    HW147361   1.387   0.535   1.785
81843SOL    HW247362   1.373   0.384   1.787
81844SOL     OW47363   2.604   8.173  11.819
81844SOL    HW147364   2.618   8.240  11.753
81844SOL    HW247365   2.645   8.094  11.783
81845SOL     OW47366   9.820  13.652   8.136
81845SOL    HW147367   9.805  13.712   8.209
81845SOL    HW247368   9.902  13.607   8.158
81846SOL     OW47369   3.671   2.383   5.928
81846SOL    HW147370   3.680   2.325   5.852
81846SOL    HW247371   3.689   2.326   6.003
81847SOL     OW47372  12.541   4.124   5.450
81847SOL    HW147373  12.593   4.047   5.424
81847SOL    HW247374  12.483   4.091   5.519
81848SOL     OW47375  13.811  10.142  11.671
81848SOL    HW147376  13.841  10.193  11.596
81848SOL    HW247377  13.889  10.131  11.726
81849SOL     OW47378   0.898   0.386   7.058
81849SOL    HW147379   0.978   0.437   7.046
81849SOL    HW247380   0.923   0.296   7.035
81850SOL     OW47381  10.152  12.276   6.768
81850SOL    HW147382  10.131  12.185   6.748
81850SOL    HW247383  10.226  12.297   6.710
81851SOL     OW47384   5.500   7.025  14.323
81851SOL    HW147385   5.594   7.039  14.311
81851SOL    HW247386   5.461   7.055  14.241
81852SOL     OW47387   5.802  13.944   2.619
81852SOL    HW147388   5.785  13.850   2.607
81852SOL    HW247389   5.766  13.986   2.541
81853SOL     OW47390   4.455   1.153   9.010
81853SOL    HW147391   4.478   1.153   9.103
81853SOL    HW247392   4.362   1.128   9.008
81854SOL     OW47393   6.486  13.167  10.711
81854SOL    HW147394   6.455  13.108  10.779
81854SOL    HW247395   6.455  13.128  10.629
81855SOL     OW47396   9.905   2.983   3.303
81855SOL    HW147397   9.818   2.960   3.337
81855SOL    HW247398   9.917   2.927   3.227
81856SOL     OW47399   6.587   1.433  10.166
81856SOL    HW147400   6.581   1.523  10.134
81856SOL    HW247401   6.516   1.425  10.229
81857SOL     OW47402   9.404  14.525   2.855
81857SOL    HW147403   9.355  14.487   2.928
81857SOL    HW247404   9.492  14.541   2.890
81858SOL     OW47405   0.506   2.797   4.155
81858SOL    HW147406   0.439   2.832   4.213
81858SOL    HW247407   0.463   2.726   4.109
81859SOL     OW47408   5.233  11.338  11.565
81859SOL    HW147409   5.291  11.414  11.555
81859SOL    HW247410   5.229  11.300  11.477
81860SOL     OW47411   5.011   9.195   6.278
81860SOL    HW147412   5.081   9.207   6.213
81860SOL    HW247413   5.051   9.141   6.347
81861SOL     OW47414   2.172  11.039   1.839
81861SOL    HW147415   2.228  11.028   1.763
81861SOL    HW247416   2.083  11.033   1.804
81862SOL     OW47417  12.241   7.465   4.584
81862SOL    HW147418  12.164   7.445   4.637
81862SOL    HW247419  12.309   7.486   4.647
81863SOL     OW47420  11.839   3.082  11.562
81863SOL    HW147421  11.760   3.036  11.533
81863SOL    HW247422  11.831   3.170  11.525
81864SOL     OW47423   5.394   7.526  12.882
81864SOL    HW147424   5.299   7.524  12.889
81864SOL    HW247425   5.415   7.617  12.859
81865SOL     OW47426   5.350  12.522   0.982
81865SOL    HW147427   5.442  12.543   0.969
81865SOL    HW247428   5.305  12.561   0.907
81866SOL     OW47429   1.166   4.684   4.418
81866SOL    HW147430   1.205   4.718   4.498
81866SOL    HW247431   1.144   4.762   4.366
81867SOL     OW47432   4.918   2.239  14.538
81867SOL    HW147433   4.965   2.277  14.463
81867SOL    HW247434   4.851   2.184  14.499
81868SOL     OW47435   2.645  13.620   3.640
81868SOL    HW147436   2.585  13.678   3.685
81868SOL    HW247437   2.711  13.597   3.705
81869SOL     OW47438   1.683   6.849   3.866
81869SOL    HW147439   1.597   6.819   3.898
81869SOL    HW247440   1.662   6.924   3.810
81870SOL     OW47441  11.857   2.397   0.774
81870SOL    HW147442  11.910   2.475   0.763
81870SOL    HW247443  11.835   2.396   0.867
81871SOL     OW47444   2.511   7.442   6.165
81871SOL    HW147445   2.443   7.481   6.109
81871SOL    HW247446   2.471   7.360   6.197
81872SOL     OW47447   5.848   0.634   9.093
81872SOL    HW147448   5.820   0.552   9.053
81872SOL    HW247449   5.930   0.655   9.047
81873SOL     OW47450   4.400   8.227   7.553
81873SOL    HW147451   4.315   8.269   7.556
81873SOL    HW247452   4.463   8.297   7.568
81874SOL     OW47453   3.897  13.195   6.587
81874SOL    HW147454   3.914  13.255   6.660
81874SOL    HW247455   3.818  13.149   6.612
81875SOL     OW47456   4.936  10.585  13.725
81875SOL    HW147457   4.857  10.559  13.678
81875SOL    HW247458   4.908  10.593  13.816
81876SOL     OW47459  11.053   6.027   0.694
81876SOL    HW147460  10.978   5.986   0.738
81876SOL    HW247461  11.128   5.973   0.718
81877SOL     OW47462   3.395   0.729   3.618
81877SOL    HW147463   3.398   0.721   3.713
81877SOL    HW247464   3.471   0.783   3.596
81878SOL     OW47465  13.672   8.695  14.271
81878SOL    HW147466  13.595   8.639  14.261
81878SOL    HW247467  13.665   8.759  14.200
81879SOL     OW47468  11.095   8.879  13.680
81879SOL    HW147469  11.147   8.947  13.637
81879SOL    HW247470  11.070   8.918  13.764
81880SOL     OW47471  11.692  12.539  13.597
81880SOL    HW147472  11.785  12.560  13.605
81880SOL    HW247473  11.655  12.612  13.548
81881SOL     OW47474   9.580   6.584  12.120
81881SOL    HW147475   9.565   6.645  12.193
81881SOL    HW247476   9.584   6.498  12.162
81882SOL     OW47477  12.575   5.873  13.885
81882SOL    HW147478  12.519   5.879  13.962
81882SOL    HW247479  12.558   5.954  13.836
81883SOL     OW47480   8.347   1.556   6.618
81883SOL    HW147481   8.311   1.633   6.661
81883SOL    HW247482   8.308   1.556   6.531
81884SOL     OW47483  12.613   2.462   8.693
81884SOL    HW147484  12.617   2.389   8.632
81884SOL    HW247485  12.525   2.457   8.731
81885SOL     OW47486   7.822  12.785   2.106
81885SOL    HW147487   7.858  12.872   2.121
81885SOL    HW247488   7.899  12.728   2.103
81886SOL     OW47489   2.610   3.800   1.379
81886SOL    HW147490   2.569   3.750   1.449
81886SOL    HW247491   2.538   3.819   1.318
81887SOL     OW47492   9.349   9.043   8.108
81887SOL    HW147493   9.296   9.044   8.028
81887SOL    HW247494   9.334   9.128   8.148
81888SOL     OW47495   0.376   0.443   6.282
81888SOL    HW147496   0.330   0.423   6.201
81888SOL    HW247497   0.466   0.416   6.266
81889SOL     OW47498  10.243   2.828  11.749
81889SOL    HW147499  10.331   2.834  11.784
81889SOL    HW247500  10.186   2.841  11.825
81890SOL     OW47501  10.348  14.605  13.838
81890SOL    HW147502  10.372  14.691  13.875
81890SOL    HW247503  10.271  14.579  13.887
81891SOL     OW47504   1.914  14.296   9.778
81891SOL    HW147505   1.884  14.384   9.755
81891SOL    HW247506   1.843  14.260   9.831
81892SOL     OW47507   8.110  12.049  12.282
81892SOL    HW147508   8.118  12.049  12.187
81892SOL    HW247509   8.199  12.060  12.315
81893SOL     OW47510  12.702   6.635   9.046
81893SOL    HW147511  12.609   6.650   9.026
81893SOL    HW247512  12.704   6.617   9.140
81894SOL     OW47513   0.511  10.992   9.859
81894SOL    HW147514   0.492  10.957   9.772
81894SOL    HW247515   0.592  11.042   9.847
81895SOL     OW47516  13.351  12.473   6.571
81895SOL    HW147517  13.430  12.460   6.623
81895SOL    HW247518  13.302  12.540   6.619
81896SOL     OW47519   6.892  12.881  14.318
81896SOL    HW147520   6.837  12.804  14.335
81896SOL    HW247521   6.838  12.955  14.347
81897SOL     OW47522   3.182   0.911   2.726
81897SOL    HW147523   3.238   0.938   2.653
81897SOL    HW247524   3.229   0.837   2.767
81898SOL     OW47525   0.017  14.198   8.716
81898SOL    HW147526   0.061  14.131   8.768
81898SOL    HW247527   0.041  14.280   8.758
81899SOL     OW47528   5.588  13.838   6.898
81899SOL    HW147529   5.523  13.907   6.885
81899SOL    HW247530   5.639  13.838   6.817
81900SOL     OW47531   0.895   6.171  11.440
81900SOL    HW147532   0.931   6.234  11.378
81900SOL    HW247533   0.971   6.138  11.488
81901SOL     OW47534  13.143   6.992   5.939
81901SOL    HW147535  13.129   6.920   5.877
81901SOL    HW247536  13.155   7.069   5.884
81902SOL     OW47537   8.549   2.862  13.089
81902SOL    HW147538   8.481   2.797  13.102
81902SOL    HW247539   8.509   2.929  13.033
81903SOL     OW47540  12.387   6.042  10.798
81903SOL    HW147541  12.454   6.028  10.731
81903SOL    HW247542  12.314   5.986  10.771
81904SOL     OW47543  14.450   6.077  13.554
81904SOL    HW147544  14.484   6.133  13.623
81904SOL    HW247545  14.361   6.107  13.539
81905SOL     OW47546   8.097   4.565   1.300
81905SOL    HW147547   8.064   4.552   1.211
81905SOL    HW247548   8.059   4.648   1.328
81906SOL     OW47549   9.087   2.053  11.708
81906SOL    HW147550   9.086   1.982  11.773
81906SOL    HW247551   9.058   2.130  11.756
81907SOL     OW47552   9.205   8.392  12.340
81907SOL    HW147553   9.262   8.330  12.385
81907SOL    HW247554   9.117   8.356  12.351
81908SOL     OW47555  10.036   5.259  11.482
81908SOL    HW147556  10.067   5.322  11.547
81908SOL    HW247557   9.973   5.309  11.430
81909SOL     OW47558   8.282   8.730   8.438
81909SOL    HW147559   8.310   8.662   8.377
81909SOL    HW247560   8.344   8.725   8.510
81910SOL     OW47561   2.363   5.188  11.247
81910SOL    HW147562   2.396   5.267  11.288
81910SOL    HW247563   2.298   5.218  11.183
81911SOL     OW47564   7.818   9.246   0.750
81911SOL    HW147565   7.784   9.314   0.808
81911SOL    HW247566   7.745   9.185   0.739
81912SOL     OW47567  12.572   3.824   1.545
81912SOL    HW147568  12.614   3.887   1.486
81912SOL    HW247569  12.642   3.764   1.569
81913SOL     OW47570  12.872   5.631  13.837
81913SOL    HW147571  12.880   5.600  13.927
81913SOL    HW247572  12.960   5.625  13.801
81914SOL     OW47573   4.659   8.847   1.256
81914SOL    HW147574   4.564   8.844   1.246
81914SOL    HW247575   4.694   8.801   1.180
81915SOL     OW47576  14.486   5.499   3.559
81915SOL    HW147577  14.553   5.540   3.505
81915SOL    HW247578  14.534   5.445   3.621
81916SOL     OW47579   3.612   4.823  14.773
81916SOL    HW147580   3.606   4.729  14.791
81916SOL    HW247581   3.523   4.848  14.749
81917SOL     OW47582  10.626   5.079   3.364
81917SOL    HW147583  10.573   5.140   3.312
81917SOL    HW247584  10.609   4.994   3.325
81918SOL     OW47585   0.775   0.738   9.059
81918SOL    HW147586   0.734   0.666   9.107
81918SOL    HW247587   0.868   0.734   9.084
81919SOL     OW47588   9.418   1.826   0.627
81919SOL    HW147589   9.445   1.835   0.719
81919SOL    HW247590   9.463   1.747   0.597
81920SOL     OW47591   2.458  13.154  12.182
81920SOL    HW147592   2.416  13.074  12.214
81920SOL    HW247593   2.520  13.124  12.116
81921SOL     OW47594   4.118   3.532   0.993
81921SOL    HW147595   4.142   3.453   0.945
81921SOL    HW247596   4.024   3.526   1.003
81922SOL     OW47597   1.253   9.799   2.528
81922SOL    HW147598   1.274   9.733   2.462
81922SOL    HW247599   1.193   9.755   2.589
81923SOL     OW47600   4.356  13.493   9.064
81923SOL    HW147601   4.404  13.493   9.147
81923SOL    HW247602   4.291  13.562   9.074
81924SOL     OW47603   9.861   9.765  13.186
81924SOL    HW147604   9.912   9.816  13.249
81924SOL    HW247605   9.859   9.676  13.223
81925SOL     OW47606   3.291   1.780   1.302
81925SOL    HW147607   3.342   1.745   1.375
81925SOL    HW247608   3.252   1.861   1.336
81926SOL     OW47609  11.500   5.179   5.044
81926SOL    HW147610  11.525   5.095   5.081
81926SOL    HW247611  11.576   5.235   5.059
81927SOL     OW47612   4.295   9.248   5.019
81927SOL    HW147613   4.376   9.295   5.037
81927SOL    HW247614   4.228   9.316   5.014
81928SOL     OW47615  12.971   6.936   3.630
81928SOL    HW147616  13.010   6.867   3.684
81928SOL    HW247617  12.888   6.957   3.674
81929SOL     OW47618  10.393   8.126   1.428
81929SOL    HW147619  10.439   8.210   1.425
81929SOL    HW247620  10.315   8.139   1.374
81930SOL     OW47621   2.243   1.465  10.563
81930SOL    HW147622   2.306   1.536  10.551
81930SOL    HW247623   2.279   1.414  10.636
81931SOL     OW47624   1.019  11.270   7.549
81931SOL    HW147625   1.055  11.320   7.477
81931SOL    HW247626   0.930  11.305   7.561
81932SOL     OW47627   3.203   1.126  12.746
81932SOL    HW147628   3.254   1.071  12.686
81932SOL    HW247629   3.120   1.079  12.756
81933SOL     OW47630   7.803   8.849  13.479
81933SOL    HW147631   7.893   8.821  13.462
81933SOL    HW247632   7.797   8.853  13.574
81934SOL     OW47633  13.476   9.546   6.226
81934SOL    HW147634  13.519   9.542   6.140
81934SOL    HW247635  13.540   9.590   6.282
81935SOL     OW47636   2.594   3.094   8.251
81935SOL    HW147637   2.639   3.128   8.329
81935SOL    HW247638   2.648   3.124   8.177
81936SOL     OW47639   3.161   7.015   7.569
81936SOL    HW147640   3.157   7.083   7.502
81936SOL    HW247641   3.112   7.051   7.643
81937SOL     OW47642   6.809   3.155  13.389
81937SOL    HW147643   6.823   3.067  13.355
81937SOL    HW247644   6.766   3.141  13.473
81938SOL     OW47645   6.013   0.392   4.908
81938SOL    HW147646   6.077   0.338   4.955
81938SOL    HW247647   5.946   0.413   4.973
81939SOL     OW47648   9.489  11.699   0.061
81939SOL    HW147649   9.472  11.719  14.845
81939SOL    HW247650   9.404  11.670   0.095
81940SOL     OW47651   2.035   4.602  10.830
81940SOL    HW147652   1.981   4.540  10.879
81940SOL    HW247653   2.122   4.562  10.829
81941SOL     OW47654  14.148   1.271  13.795
81941SOL    HW147655  14.115   1.360  13.809
81941SOL    HW247656  14.069   1.220  13.775
81942SOL     OW47657  13.860   0.219   5.643
81942SOL    HW147658  13.843   0.277   5.717
81942SOL    HW247659  13.937   0.169   5.670
81943SOL     OW47660  11.246   9.347   3.551
81943SOL    HW147661  11.219   9.276   3.610
81943SOL    HW247662  11.258   9.422   3.609
81944SOL     OW47663  11.508  12.642   6.418
81944SOL    HW147664  11.471  12.575   6.474
81944SOL    HW247665  11.442  12.711   6.417
81945SOL     OW47666   3.598   0.308  14.047
81945SOL    HW147667   3.530   0.340  14.106
81945SOL    HW247668   3.631   0.387  14.004
81946SOL     OW47669  13.086   5.609  14.503
81946SOL    HW147670  13.141   5.573  14.572
81946SOL    HW247671  13.102   5.704  14.506
81947SOL     OW47672  14.648   6.593   8.343
81947SOL    HW147673  14.717   6.625   8.286
81947SOL    HW247674  14.575   6.575   8.284
81948SOL     OW47675  11.343   0.811  14.715
81948SOL    HW147676  11.268   0.866  14.739
81948SOL    HW247677  11.412   0.837  14.776
81949SOL     OW47678   9.851   8.406  13.136
81949SOL    HW147679   9.847   8.420  13.231
81949SOL    HW247680   9.934   8.360  13.123
81950SOL     OW47681  10.916   6.202   4.978
81950SOL    HW147682  10.955   6.147   4.911
81950SOL    HW247683  10.856   6.260   4.930
81951SOL     OW47684   1.753  11.990   2.502
81951SOL    HW147685   1.748  11.971   2.595
81951SOL    HW247686   1.798  11.914   2.464
81952SOL     OW47687   2.681   9.616   4.894
81952SOL    HW147688   2.630   9.594   4.972
81952SOL    HW247689   2.639   9.695   4.860
81953SOL     OW47690   1.245  10.091  14.325
81953SOL    HW147691   1.324  10.050  14.290
81953SOL    HW247692   1.262  10.099  14.419
81954SOL     OW47693   6.261  11.947   1.003
81954SOL    HW147694   6.265  12.039   1.032
81954SOL    HW247695   6.251  11.953   0.908
81955SOL     OW47696   3.744  14.582   2.887
81955SOL    HW147697   3.659  14.618   2.863
81955SOL    HW247698   3.728  14.530   2.965
81956SOL     OW47699   2.735   4.865   8.872
81956SOL    HW147700   2.691   4.884   8.789
81956SOL    HW247701   2.809   4.925   8.874
81957SOL     OW47702  14.675  12.407   0.398
81957SOL    HW147703  14.679  12.482   0.457
81957SOL    HW247704  14.723  12.435   0.320
81958SOL     OW47705   9.185   5.892   1.915
81958SOL    HW147706   9.146   5.806   1.895
81958SOL    HW247707   9.270   5.890   1.872
81959SOL     OW47708  11.728   4.443   2.586
81959SOL    HW147709  11.735   4.360   2.538
81959SOL    HW247710  11.729   4.416   2.678
81960SOL     OW47711  14.203  11.399  13.738
81960SOL    HW147712  14.212  11.471  13.801
81960SOL    HW247713  14.108  11.388  13.728
81961SOL     OW47714   8.847   3.531   7.481
81961SOL    HW147715   8.870   3.526   7.388
81961SOL    HW247716   8.921   3.491   7.526
81962SOL     OW47717   4.095  12.777  13.513
81962SOL    HW147718   4.063  12.841  13.577
81962SOL    HW247719   4.190  12.787  13.515
81963SOL     OW47720   3.729  10.872  10.189
81963SOL    HW147721   3.785  10.848  10.115
81963SOL    HW247722   3.699  10.788  10.224
81964SOL     OW47723   3.022  10.620  11.283
81964SOL    HW147724   3.044  10.639  11.375
81964SOL    HW247725   3.064  10.691  11.234
81965SOL     OW47726   8.862   3.178  13.149
81965SOL    HW147727   8.775   3.217  13.153
81965SOL    HW247728   8.846   3.085  13.134
81966SOL     OW47729   5.223   0.762   8.416
81966SOL    HW147730   5.173   0.712   8.480
81966SOL    HW247731   5.161   0.780   8.346
81967SOL     OW47732   8.717  13.231   2.551
81967SOL    HW147733   8.709  13.322   2.580
81967SOL    HW247734   8.644  13.186   2.594
81968SOL     OW47735   9.985   8.700  11.371
81968SOL    HW147736  10.072   8.671  11.401
81968SOL    HW247737  10.004   8.769  11.307
81969SOL     OW47738   3.527   3.038   9.351
81969SOL    HW147739   3.496   3.087   9.275
81969SOL    HW247740   3.615   3.074   9.368
81970SOL     OW47741   3.045   3.864  12.506
81970SOL    HW147742   3.089   3.797  12.557
81970SOL    HW247743   3.109   3.887  12.437
81971SOL     OW47744   4.831   7.821  10.160
81971SOL    HW147745   4.837   7.729  10.133
81971SOL    HW247746   4.876   7.870  10.091
81972SOL     OW47747   6.452   3.459   7.546
81972SOL    HW147748   6.482   3.549   7.560
81972SOL    HW247749   6.411   3.434   7.628
81973SOL     OW47750   3.368  11.214   2.437
81973SOL    HW147751   3.374  11.165   2.356
81973SOL    HW247752   3.280  11.195   2.471
81974SOL     OW47753  12.155   7.904  11.177
81974SOL    HW147754  12.116   7.831  11.225
81974SOL    HW247755  12.236   7.869  11.142
81975SOL     OW47756   4.137   0.673   7.368
81975SOL    HW147757   4.156   0.697   7.459
81975SOL    HW247758   4.221   0.641   7.334
81976SOL     OW47759   3.799  12.297   6.468
81976SOL    HW147760   3.716  12.249   6.472
81976SOL    HW247761   3.788  12.358   6.395
81977SOL     OW47762  10.227   8.177  14.426
81977SOL    HW147763  10.310   8.171  14.473
81977SOL    HW247764  10.244   8.241  14.356
81978SOL     OW47765   7.180   3.404  11.589
81978SOL    HW147766   7.227   3.329  11.624
81978SOL    HW247767   7.184   3.392  11.494
81979SOL     OW47768  12.855  13.238   1.929
81979SOL    HW147769  12.813  13.263   2.011
81979SOL    HW247770  12.941  13.280   1.932
81980SOL     OW47771  13.351   3.164  11.296
81980SOL    HW147772  13.346   3.178  11.391
81980SOL    HW247773  13.298   3.235  11.259
81981SOL     OW47774   0.843  13.119   9.910
81981SOL    HW147775   0.879  13.169   9.837
81981SOL    HW247776   0.757  13.091   9.880
81982SOL     OW47777  14.346  13.759  12.101
81982SOL    HW147778  14.331  13.750  12.196
81982SOL    HW247779  14.384  13.675  12.075
81983SOL     OW47780   6.365   1.546  11.793
81983SOL    HW147781   6.341   1.474  11.851
81983SOL    HW247782   6.447   1.579  11.828
81984SOL     OW47783   6.511  14.192   0.830
81984SOL    HW147784   6.538  14.262   0.770
81984SOL    HW247785   6.469  14.127   0.773
81985SOL     OW47786   4.213   1.498  12.180
81985SOL    HW147787   4.242   1.561  12.114
81985SOL    HW247788   4.221   1.413  12.137
81986SOL     OW47789   3.308  11.711   4.472
81986SOL    HW147790   3.235  11.737   4.528
81986SOL    HW247791   3.377  11.775   4.491
81987SOL     OW47792   0.723   2.429  13.759
81987SOL    HW147793   0.659   2.423  13.687
81987SOL    HW247794   0.752   2.338  13.772
81988SOL     OW47795   0.674   2.594  14.725
81988SOL    HW147796   0.767   2.587  14.708
81988SOL    HW247797   0.657   2.528  14.793
81989SOL     OW47798  14.764   7.839  14.185
81989SOL    HW147799  14.701   7.828  14.256
81989SOL    HW247800  14.798   7.928  14.197
81990SOL     OW47801  11.097   2.571  14.589
81990SOL    HW147802  11.055   2.553  14.673
81990SOL    HW247803  11.138   2.487  14.565
81991SOL     OW47804  10.789   7.427   3.561
81991SOL    HW147805  10.773   7.341   3.600
81991SOL    HW247806  10.837   7.476   3.628
81992SOL     OW47807   8.866  10.460   7.993
81992SOL    HW147808   8.924  10.391   8.027
81992SOL    HW247809   8.812  10.485   8.068
81993SOL     OW47810  13.644   0.485   8.853
81993SOL    HW147811  13.594   0.564   8.833
81993SOL    HW247812  13.605   0.453   8.935
81994SOL     OW47813   6.984  12.444   7.645
81994SOL    HW147814   6.909  12.386   7.656
81994SOL    HW247815   6.968  12.488   7.561
81995SOL     OW47816  10.250   3.337   0.483
81995SOL    HW147817  10.214   3.365   0.399
81995SOL    HW247818  10.344   3.326   0.467
81996SOL     OW47819  13.394   9.041  13.783
81996SOL    HW147820  13.431   9.028  13.696
81996SOL    HW247821  13.314   8.990  13.783
81997SOL     OW47822  12.316  11.890   5.183
81997SOL    HW147823  12.284  11.976   5.156
81997SOL    HW247824  12.375  11.863   5.112
81998SOL     OW47825  11.645   2.603   0.206
81998SOL    HW147826  11.618   2.599   0.298
81998SOL    HW247827  11.564   2.589   0.157
81999SOL     OW47828   5.323   8.005   9.276
81999SOL    HW147829   5.366   8.046   9.351
81999SOL    HW247830   5.395   7.972   9.222
82000SOL     OW47831   2.299   8.964   3.985
82000SOL    HW147832   2.243   8.973   3.908
82000SOL    HW247833   2.367   8.902   3.959
82001SOL     OW47834   5.548   8.131  10.409
82001SOL    HW147835   5.500   8.111  10.489
82001SOL    HW247836   5.506   8.079  10.341
82002SOL     OW47837   9.590   1.851   9.515
82002SOL    HW147838   9.574   1.759   9.535
82002SOL    HW247839   9.556   1.898   9.591
82003SOL     OW47840   8.709  10.654   8.173
82003SOL    HW147841   8.630  10.617   8.134
82003SOL    HW247842   8.730  10.596   8.246
82004SOL     OW47843   4.019   0.160   9.104
82004SOL    HW147844   3.928   0.137   9.118
82004SOL    HW247845   4.016   0.233   9.041
82005SOL     OW47846   6.795   9.825   9.710
82005SOL    HW147847   6.865   9.763   9.732
82005SOL    HW247848   6.759   9.851   9.795
82006SOL     OW47849   6.793   6.346  14.354
82006SOL    HW147850   6.854   6.337  14.427
82006SOL    HW247851   6.813   6.432  14.317
82007SOL     OW47852   0.953   9.625   3.955
82007SOL    HW147853   1.041   9.662   3.951
82007SOL    HW247854   0.896   9.700   3.969
82008SOL     OW47855   3.684  12.043   2.552
82008SOL    HW147856   3.690  12.066   2.459
82008SOL    HW247857   3.615  12.101   2.586
82009SOL     OW47858   2.137  11.303  12.998
82009SOL    HW147859   2.146  11.398  13.012
82009SOL    HW247860   2.190  11.286  12.920
82010SOL     OW47861   5.004   1.176   1.223
82010SOL    HW147862   5.006   1.138   1.311
82010SOL    HW247863   5.096   1.195   1.204
82011SOL     OW47864   6.796   0.984  14.717
82011SOL    HW147865   6.797   1.080  14.719
82011SOL    HW247866   6.876   0.959  14.763
82012SOL     OW47867   0.698   4.424  10.214
82012SOL    HW147868   0.613   4.459  10.243
82012SOL    HW247869   0.701   4.443  10.120
82013SOL     OW47870   2.482   0.139   7.954
82013SOL    HW147871   2.453   0.085   8.027
82013SOL    HW247872   2.576   0.153   7.970
82014SOL     OW47873   5.410  11.423   9.831
82014SOL    HW147874   5.505  11.424   9.845
82014SOL    HW247875   5.393  11.503   9.781
82015SOL     OW47876  12.397  12.651   4.431
82015SOL    HW147877  12.356  12.582   4.380
82015SOL    HW247878  12.487  12.622   4.443
82016SOL     OW47879  14.827   8.125   2.581
82016SOL    HW147880  14.802   8.086   2.665
82016SOL    HW247881  14.760   8.093   2.520
82017SOL     OW47882   8.649  14.318  13.231
82017SOL    HW147883   8.595  14.314  13.152
82017SOL    HW247884   8.605  14.260  13.294
82018SOL     OW47885   7.816  13.090   7.153
82018SOL    HW147886   7.830  13.020   7.089
82018SOL    HW247887   7.805  13.044   7.237
82019SOL     OW47888   4.208   8.118   2.483
82019SOL    HW147889   4.158   8.165   2.549
82019SOL    HW247890   4.265   8.184   2.443
82020SOL     OW47891  11.526   5.522   0.099
82020SOL    HW147892  11.493   5.573   0.173
82020SOL    HW247893  11.621   5.534   0.101
82021SOL     OW47894   0.812   9.588   8.608
82021SOL    HW147895   0.724   9.588   8.571
82021SOL    HW247896   0.818   9.505   8.656
82022SOL     OW47897   0.623  13.692   3.226
82022SOL    HW147898   0.625  13.631   3.300
82022SOL    HW247899   0.672  13.768   3.257
82023SOL     OW47900  10.357  10.837  11.775
82023SOL    HW147901  10.278  10.784  11.772
82023SOL    HW247902  10.390  10.826  11.864
82024SOL     OW47903   9.031   4.871  12.007
82024SOL    HW147904   8.999   4.957  11.979
82024SOL    HW247905   9.079   4.888  12.088
82025SOL     OW47906  10.108   6.990   0.899
82025SOL    HW147907  10.046   7.005   0.827
82025SOL    HW247908  10.122   6.896   0.900
82026SOL     OW47909   5.647  11.112   2.721
82026SOL    HW147910   5.584  11.126   2.792
82026SOL    HW247911   5.640  11.190   2.666
82027SOL     OW47912  10.212   5.089   5.500
82027SOL    HW147913  10.208   5.074   5.405
82027SOL    HW247914  10.275   5.160   5.510
82028SOL     OW47915  11.129   4.483   4.826
82028SOL    HW147916  11.042   4.491   4.865
82028SOL    HW247917  11.123   4.531   4.744
82029SOL     OW47918   4.245  12.693  10.504
82029SOL    HW147919   4.158  12.728  10.486
82029SOL    HW247920   4.235  12.643  10.584
82030SOL     OW47921   1.688  10.317   3.690
82030SOL    HW147922   1.706  10.403   3.728
82030SOL    HW247923   1.648  10.336   3.605
82031SOL     OW47924  12.000   2.389   3.782
82031SOL    HW147925  11.962   2.318   3.731
82031SOL    HW247926  12.084   2.407   3.739
82032SOL     OW47927   9.484   9.231  12.314
82032SOL    HW147928   9.509   9.171  12.385
82032SOL    HW247929   9.403   9.194  12.279
82033SOL     OW47930  13.960   2.350   5.522
82033SOL    HW147931  13.959   2.272   5.466
82033SOL    HW247932  14.048   2.351   5.559
82034SOL     OW47933   4.283  11.572   6.340
82034SOL    HW147934   4.284  11.613   6.254
82034SOL    HW247935   4.352  11.506   6.336
82035SOL     OW47936   7.466   8.832  12.279
82035SOL    HW147937   7.399   8.877  12.228
82035SOL    HW247938   7.487   8.754  12.228
82036SOL     OW47939   8.983   1.654  12.097
82036SOL    HW147940   9.047   1.595  12.137
82036SOL    HW247941   8.900   1.607  12.102
82037SOL     OW47942   2.751   9.960   5.621
82037SOL    HW147943   2.838   9.973   5.658
82037SOL    HW247944   2.760   9.883   5.564
82038SOL     OW47945   8.189   4.890   3.541
82038SOL    HW147946   8.261   4.930   3.494
82038SOL    HW247947   8.207   4.909   3.633
82039SOL     OW47948   3.921  13.160   2.244
82039SOL    HW147949   3.895  13.113   2.164
82039SOL    HW247950   3.910  13.096   2.314
82040SOL     OW47951   3.245   1.862   0.200
82040SOL    HW147952   3.292   1.880   0.282
82040SOL    HW247953   3.178   1.798   0.224
82041SOL     OW47954   1.158   0.851   4.912
82041SOL    HW147955   1.172   0.811   4.826
82041SOL    HW247956   1.245   0.854   4.952
82042SOL     OW47957   4.104   5.586   5.247
82042SOL    HW147958   4.157   5.512   5.275
82042SOL    HW247959   4.020   5.549   5.223
82043SOL     OW47960   9.983   3.640   4.157
82043SOL    HW147961   9.899   3.624   4.199
82043SOL    HW247962   9.961   3.666   4.067
82044SOL     OW47963  13.377   4.719   3.916
82044SOL    HW147964  13.434   4.729   3.993
82044SOL    HW247965  13.411   4.641   3.872
82045SOL     OW47966  10.764  14.308   2.740
82045SOL    HW147967  10.700  14.377   2.720
82045SOL    HW247968  10.780  14.318   2.834
82046SOL     OW47969  10.267  11.168   7.241
82046SOL    HW147970  10.317  11.163   7.159
82046SOL    HW247971  10.327  11.207   7.304
82047SOL     OW47972   6.641  14.282  14.231
82047SOL    HW147973   6.662  14.271  14.139
82047SOL    HW247974   6.547  14.262  14.237
82048SOL     OW47975   2.677  13.706   5.198
82048SOL    HW147976   2.597  13.735   5.154
82048SOL    HW247977   2.744  13.769   5.170
82049SOL     OW47978  12.978  10.045  13.205
82049SOL    HW147979  12.885  10.037  13.180
82049SOL    HW247980  12.997  10.138  13.194
82050SOL     OW47981   9.261   9.411   0.606
82050SOL    HW147982   9.239   9.494   0.650
82050SOL    HW247983   9.296   9.356   0.676
82051SOL     OW47984   4.385   5.596   2.771
82051SOL    HW147985   4.392   5.627   2.861
82051SOL    HW247986   4.470   5.616   2.731
82052SOL     OW47987   9.149  12.066  13.396
82052SOL    HW147988   9.216  12.134  13.383
82052SOL    HW247989   9.099  12.065  13.315
82053SOL     OW47990   3.068   3.387  10.079
82053SOL    HW147991   3.125   3.323  10.123
82053SOL    HW247992   3.055   3.455  10.145
82054SOL     OW47993   1.563   5.783  12.707
82054SOL    HW147994   1.552   5.740  12.623
82054SOL    HW247995   1.647   5.829  12.700
82055SOL     OW47996   5.815   3.843   2.516
82055SOL    HW147997   5.789   3.932   2.541
82055SOL    HW247998   5.894   3.855   2.463
82056SOL     OW47999  14.362  10.150   5.057
82056SOL    HW148000  14.361  10.240   5.026
82056SOL    HW248001  14.314  10.101   4.990
82057SOL     OW48002   5.919   6.846   1.812
82057SOL    HW148003   5.859   6.863   1.740
82057SOL    HW248004   5.923   6.928   1.860
82058SOL     OW48005  14.603   2.664   8.526
82058SOL    HW148006  14.510   2.641   8.521
82058SOL    HW248007  14.604   2.748   8.573
82059SOL     OW48008   1.991   7.298   2.755
82059SOL    HW148009   1.905   7.259   2.770
82059SOL    HW248010   2.030   7.244   2.686
82060SOL     OW48011   8.463  10.837  10.372
82060SOL    HW148012   8.463  10.855  10.278
82060SOL    HW248013   8.457  10.742  10.378
82061SOL     OW48014   3.316  14.538  12.710
82061SOL    HW148015   3.362  14.622  12.717
82061SOL    HW248016   3.331  14.495  12.794
82062SOL     OW48017   3.364   0.756   8.291
82062SOL    HW148018   3.372   0.742   8.197
82062SOL    HW248019   3.454   0.750   8.324
82063SOL     OW48020   8.720   4.454   5.530
82063SOL    HW148021   8.630   4.468   5.562
82063SOL    HW248022   8.773   4.456   5.609
82064SOL     OW48023   8.003   3.569   6.905
82064SOL    HW148024   7.927   3.620   6.880
82064SOL    HW248025   8.050   3.552   6.823
82065SOL     OW48026   9.246   5.178   2.730
82065SOL    HW148027   9.316   5.163   2.793
82065SOL    HW248028   9.282   5.149   2.646
82066SOL     OW48029   7.949   5.612   1.545
82066SOL    HW148030   8.016   5.604   1.477
82066SOL    HW248031   7.881   5.667   1.505
82067SOL     OW48032   9.583  11.584  10.627
82067SOL    HW148033   9.586  11.513  10.691
82067SOL    HW248034   9.649  11.647  10.658
82068SOL     OW48035  11.578  10.182  11.528
82068SOL    HW148036  11.631  10.217  11.456
82068SOL    HW248037  11.536  10.259  11.567
82069SOL     OW48038  14.676   1.166   9.530
82069SOL    HW148039  14.671   1.182   9.624
82069SOL    HW248040  14.588   1.140   9.505
82070SOL     OW48041   3.290   3.835   3.183
82070SOL    HW148042   3.335   3.912   3.150
82070SOL    HW248043   3.355   3.790   3.237
82071SOL     OW48044   6.912   8.049   4.130
82071SOL    HW148045   6.819   8.060   4.150
82071SOL    HW248046   6.942   7.984   4.193
82072SOL     OW48047  11.888   4.148   3.603
82072SOL    HW148048  11.923   4.133   3.691
82072SOL    HW248049  11.800   4.112   3.606
82073SOL     OW48050   9.005   7.928   6.034
82073SOL    HW148051   9.059   7.884   6.100
82073SOL    HW248052   9.002   8.019   6.063
82074SOL     OW48053   9.094   5.021  14.681
82074SOL    HW148054   9.187   5.035  14.661
82074SOL    HW248055   9.047   5.070  14.614
82075SOL     OW48056   9.506   1.413  10.544
82075SOL    HW148057   9.524   1.464  10.466
82075SOL    HW248058   9.481   1.478  10.611
82076SOL     OW48059  13.162   8.563  13.428
82076SOL    HW148060  13.229   8.549  13.495
82076SOL    HW248061  13.210   8.599  13.353
82077SOL     OW48062  13.705  11.098   5.533
82077SOL    HW148063  13.766  11.026   5.517
82077SOL    HW248064  13.758  11.165   5.577
82078SOL     OW48065   1.192   2.275   6.015
82078SOL    HW148066   1.141   2.262   5.935
82078SOL    HW248067   1.233   2.361   6.003
82079SOL     OW48068   7.751   3.460   0.283
82079SOL    HW148069   7.736   3.457   0.188
82079SOL    HW248070   7.825   3.402   0.297
82080SOL     OW48071   1.778  10.184   0.440
82080SOL    HW148072   1.744  10.274   0.440
82080SOL    HW248073   1.711  10.133   0.395
82081SOL     OW48074   3.153   0.720  13.336
82081SOL    HW148075   3.156   0.631  13.372
82081SOL    HW248076   3.068   0.726  13.293
82082SOL     OW48077   4.569   9.997  14.593
82082SOL    HW148078   4.499  10.038  14.541
82082SOL    HW248079   4.594  10.065  14.655
82083SOL     OW48080   6.132   2.737   0.829
82083SOL    HW148081   6.154   2.755   0.921
82083SOL    HW248082   6.193   2.668   0.804
82084SOL     OW48083  10.601   5.545   8.904
82084SOL    HW148084  10.588   5.460   8.863
82084SOL    HW248085  10.562   5.608   8.843
82085SOL     OW48086   8.529   7.731  12.753
82085SOL    HW148087   8.500   7.734  12.845
82085SOL    HW248088   8.497   7.813  12.715
82086SOL     OW48089  12.619   5.821  11.378
82086SOL    HW148090  12.608   5.891  11.442
82086SOL    HW248091  12.617   5.865  11.293
82087SOL     OW48092   5.141   9.040   1.760
82087SOL    HW148093   5.216   9.051   1.818
82087SOL    HW248094   5.085   9.116   1.780
82088SOL     OW48095  12.611   5.605   0.692
82088SOL    HW148096  12.561   5.525   0.707
82088SOL    HW248097  12.700   5.583   0.720
82089SOL     OW48098  13.336   1.902  10.632
82089SOL    HW148099  13.261   1.883  10.576
82089SOL    HW248100  13.308   1.878  10.720
82090SOL     OW48101  14.152  13.276   2.829
82090SOL    HW148102  14.162  13.206   2.893
82090SOL    HW248103  14.241  13.312   2.819
82091SOL     OW48104   1.531   1.131   3.251
82091SOL    HW148105   1.581   1.130   3.169
82091SOL    HW248106   1.505   1.223   3.262
82092SOL     OW48107  10.534   8.429   5.061
82092SOL    HW148108  10.617   8.448   5.104
82092SOL    HW248109  10.553   8.437   4.967
82093SOL     OW48110   7.757   4.623  13.330
82093SOL    HW148111   7.740   4.697  13.271
82093SOL    HW248112   7.852   4.619  13.338
82094SOL     OW48113   9.564  11.424  14.147
82094SOL    HW148114   9.610  11.474  14.215
82094SOL    HW248115   9.472  11.434  14.169
82095SOL     OW48116   4.926   9.429  13.696
82095SOL    HW148117   4.958   9.459  13.782
82095SOL    HW248118   4.870   9.500  13.665
82096SOL     OW48119   7.100  11.592  11.474
82096SOL    HW148120   7.163  11.611  11.405
82096SOL    HW248121   7.108  11.665  11.535
82097SOL     OW48122  12.041   5.161  12.102
82097SOL    HW148123  12.085   5.078  12.123
82097SOL    HW248124  12.112   5.224  12.094
82098SOL     OW48125   0.467   5.364  14.529
82098SOL    HW148126   0.497   5.315  14.452
82098SOL    HW248127   0.431   5.298  14.587
82099SOL     OW48128   5.899   3.098  10.383
82099SOL    HW148129   5.967   3.162  10.403
82099SOL    HW248130   5.850   3.087  10.465
82100SOL     OW48131   1.458   2.176   3.414
82100SOL    HW148132   1.526   2.114   3.442
82100SOL    HW248133   1.395   2.122   3.367
82101SOL     OW48134  11.596  12.650  12.740
82101SOL    HW148135  11.660  12.703  12.692
82101SOL    HW248136  11.626  12.560  12.728
82102SOL     OW48137   0.040   7.279   8.148
82102SOL    HW148138  14.862   7.270   8.070
82102SOL    HW248139  14.857   7.260   8.221
82103SOL     OW48140   3.466  10.652  13.009
82103SOL    HW148141   3.375  10.680  13.000
82103SOL    HW248142   3.460  10.568  13.054
82104SOL     OW48143  13.771   3.546  11.936
82104SOL    HW148144  13.822   3.620  11.904
82104SOL    HW248145  13.803   3.471  11.886
82105SOL     OW48146   4.653   7.517  11.248
82105SOL    HW148147   4.617   7.577  11.314
82105SOL    HW248148   4.747   7.516  11.266
82106SOL     OW48149   8.839   8.681   1.769
82106SOL    HW148150   8.878   8.740   1.705
82106SOL    HW248151   8.789   8.619   1.717
82107SOL     OW48152  12.972  11.582  14.331
82107SOL    HW148153  13.049  11.539  14.293
82107SOL    HW248154  13.006  11.628  14.408
82108SOL     OW48155   4.650   3.494  13.291
82108SOL    HW148156   4.712   3.567  13.295
82108SOL    HW248157   4.565   3.535  13.276
82109SOL     OW48158   9.385   7.119   1.927
82109SOL    HW148159   9.309   7.117   1.985
82109SOL    HW248160   9.363   7.186   1.862
82110SOL     OW48161   6.100  11.588  11.128
82110SOL    HW148162   6.143  11.518  11.079
82110SOL    HW248163   6.162  11.661  11.125
82111SOL     OW48164   3.919   4.169   8.707
82111SOL    HW148165   3.958   4.169   8.620
82111SOL    HW248166   3.935   4.257   8.741
82112SOL     OW48167  14.414   6.771   5.872
82112SOL    HW148168  14.405   6.725   5.955
82112SOL    HW248169  14.328   6.812   5.857
82113SOL     OW48170   4.137   5.448   7.565
82113SOL    HW148171   4.075   5.454   7.492
82113SOL    HW248172   4.090   5.402   7.634
82114SOL     OW48173   4.366  12.504   0.831
82114SOL    HW148174   4.339  12.587   0.871
82114SOL    HW248175   4.379  12.525   0.739
82115SOL     OW48176   6.460   5.136  13.636
82115SOL    HW148177   6.495   5.209  13.686
82115SOL    HW248178   6.464   5.061  13.696
82116SOL     OW48179   5.418   6.862   1.528
82116SOL    HW148180   5.354   6.808   1.482
82116SOL    HW248181   5.502   6.840   1.488
82117SOL     OW48182   8.296  11.171   9.543
82117SOL    HW148183   8.388  11.153   9.562
82117SOL    HW248184   8.298  11.231   9.468
82118SOL     OW48185   0.654  11.098   4.171
82118SOL    HW148186   0.678  11.189   4.153
82118SOL    HW248187   0.705  11.075   4.249
82119SOL     OW48188   1.634   6.175  12.364
82119SOL    HW148189   1.693   6.198  12.435
82119SOL    HW248190   1.662   6.087  12.337
82120SOL     OW48191   1.733  11.970   5.588
82120SOL    HW148192   1.757  11.903   5.525
82120SOL    HW248193   1.704  11.921   5.665
82121SOL     OW48194  11.643   1.520   3.188
82121SOL    HW148195  11.691   1.465   3.250
82121SOL    HW248196  11.706   1.541   3.120
82122SOL     OW48197   3.233  14.531   5.189
82122SOL    HW148198   3.289  14.606   5.167
82122SOL    HW248199   3.274  14.492   5.266
82123SOL     OW48200   7.604   4.492  12.130
82123SOL    HW148201   7.558   4.575  12.118
82123SOL    HW248202   7.667   4.489  12.058
82124SOL     OW48203  12.031   4.995   1.888
82124SOL    HW148204  11.957   4.961   1.839
82124SOL    HW248205  12.104   4.938   1.866
82125SOL     OW48206   1.885   6.369  13.167
82125SOL    HW148207   1.846   6.382  13.080
82125SOL    HW248208   1.978   6.388  13.155
82126SOL     OW48209   5.010   1.696  11.794
82126SOL    HW148210   4.976   1.755  11.860
82126SOL    HW248211   5.064   1.634  11.842
82127SOL     OW48212  10.466  10.758   4.338
82127SOL    HW148213  10.436  10.731   4.425
82127SOL    HW248214  10.473  10.676   4.289
82128SOL     OW48215  13.671   8.964  13.080
82128SOL    HW148216  13.733   8.952  13.008
82128SOL    HW248217  13.725   8.954  13.159
82129SOL     OW48218   9.542  12.953   7.959
82129SOL    HW148219   9.561  13.028   7.902
82129SOL    HW248220   9.626  12.907   7.965
82130SOL     OW48221   5.573  13.521   9.041
82130SOL    HW148222   5.622  13.478   9.111
82130SOL    HW248223   5.605  13.479   8.960
82131SOL     OW48224   3.880  11.781  12.220
82131SOL    HW148225   3.920  11.752  12.302
82131SOL    HW248226   3.947  11.764  12.153
82132SOL     OW48227   2.893   5.165   6.314
82132SOL    HW148228   2.882   5.180   6.408
82132SOL    HW248229   2.818   5.112   6.289
82133SOL     OW48230   0.228  13.896   9.345
82133SOL    HW148231   0.229  13.992   9.350
82133SOL    HW248232   0.140  13.871   9.370
82134SOL     OW48233   8.136   3.926   0.101
82134SOL    HW148234   8.060   3.978   0.127
82134SOL    HW248235   8.151   3.867   0.175
82135SOL     OW48236  14.416  10.255  11.891
82135SOL    HW148237  14.498  10.280  11.848
82135SOL    HW248238  14.374  10.195  11.830
82136SOL     OW48239   3.333  10.921   1.806
82136SOL    HW148240   3.383  11.000   1.783
82136SOL    HW248241   3.398  10.862   1.842
82137SOL     OW48242  14.743  10.054  13.109
82137SOL    HW148243  14.753  10.064  13.015
82137SOL    HW248244  14.659  10.008  13.119
82138SOL     OW48245   6.238   5.939   5.463
82138SOL    HW148246   6.326   5.902   5.476
82138SOL    HW248247   6.254   6.029   5.434
82139SOL     OW48248  12.262   8.516   0.634
82139SOL    HW148249  12.346   8.474   0.651
82139SOL    HW248250  12.231   8.477   0.553
82140SOL     OW48251  13.679   3.687  13.166
82140SOL    HW148252  13.616   3.712  13.233
82140SOL    HW248253  13.695   3.594  13.181
82141SOL     OW48254  10.514   3.062   1.865
82141SOL    HW148255  10.500   3.126   1.795
82141SOL    HW248256  10.568   3.108   1.929
82142SOL     OW48257  13.885  11.637   7.229
82142SOL    HW148258  13.790  11.645   7.227
82142SOL    HW248259  13.915  11.693   7.157
82143SOL     OW48260   7.989   9.917  12.375
82143SOL    HW148261   8.036   9.984  12.324
82143SOL    HW248262   7.897   9.929  12.350
82144SOL     OW48263   5.220   8.294  14.854
82144SOL    HW148264   5.278   8.362   0.012
82144SOL    HW248265   5.185   8.332  14.773
82145SOL     OW48266   2.987   0.457   8.629
82145SOL    HW148267   2.928   0.531   8.611
82145SOL    HW248268   2.937   0.380   8.605
82146SOL     OW48269  14.561   5.967   4.775
82146SOL    HW148270  14.637   5.908   4.770
82146SOL    HW248271  14.546   5.995   4.685
82147SOL     OW48272   1.777  13.926  10.192
82147SOL    HW148273   1.692  13.912  10.234
82147SOL    HW248274   1.789  14.021  10.194
82148SOL     OW48275   0.488  10.088   8.390
82148SOL    HW148276   0.509   9.995   8.379
82148SOL    HW248277   0.456  10.115   8.304
82149SOL     OW48278   2.894   3.951   4.986
82149SOL    HW148279   2.943   3.887   4.935
82149SOL    HW248280   2.827   3.983   4.926
82150SOL     OW48281   3.470  10.211  14.267
82150SOL    HW148282   3.412  10.240  14.197
82150SOL    HW248283   3.462  10.115  14.266
82151SOL     OW48284  13.238   9.557   1.576
82151SOL    HW148285  13.269   9.643   1.549
82151SOL    HW248286  13.227   9.563   1.671
82152SOL     OW48287   4.815  10.785   5.901
82152SOL    HW148288   4.760  10.709   5.885
82152SOL    HW248289   4.764  10.839   5.962
82153SOL     OW48290   6.908  12.604   6.581
82153SOL    HW148291   6.980  12.632   6.525
82153SOL    HW248292   6.900  12.510   6.565
82154SOL     OW48293   2.214  10.999   5.281
82154SOL    HW148294   2.264  11.039   5.352
82154SOL    HW248295   2.281  10.970   5.219
82155SOL     OW48296  11.596   5.065  11.601
82155SOL    HW148297  11.638   5.089  11.684
82155SOL    HW248298  11.608   5.141  11.545
82156SOL     OW48299  14.574  14.601  10.224
82156SOL    HW148300  14.532  14.555  10.296
82156SOL    HW248301  14.508  14.600  10.154
82157SOL     OW48302   9.415   8.285   0.403
82157SOL    HW148303   9.474   8.332   0.345
82157SOL    HW248304   9.472   8.250   0.472
82158SOL     OW48305   7.555   0.805   2.916
82158SOL    HW148306   7.526   0.890   2.949
82158SOL    HW248307   7.496   0.742   2.956
82159SOL     OW48308   0.852   4.435  14.719
82159SOL    HW148309   0.803   4.497  14.772
82159SOL    HW248310   0.926   4.409  14.774
82160SOL     OW48311   6.050   3.725  14.326
82160SOL    HW148312   6.130   3.776  14.339
82160SOL    HW248313   6.006   3.726  14.411
82161SOL     OW48314   1.712  14.048   2.543
82161SOL    HW148315   1.786  13.987   2.540
82161SOL    HW248316   1.648  14.005   2.599
82162SOL     OW48317   4.248  13.122   2.098
82162SOL    HW148318   4.240  13.192   2.033
82162SOL    HW248319   4.324  13.072   2.069
82163SOL     OW48320   4.545   8.536   6.350
82163SOL    HW148321   4.624   8.587   6.371
82163SOL    HW248322   4.497   8.590   6.287
82164SOL     OW48323   4.087   4.964   4.806
82164SOL    HW148324   4.101   4.944   4.713
82164SOL    HW248325   4.073   5.058   4.808
82165SOL     OW48326  13.520   6.772   9.934
82165SOL    HW148327  13.542   6.693   9.983
82165SOL    HW248328  13.460   6.742   9.866
82166SOL     OW48329   5.701  11.512   5.065
82166SOL    HW148330   5.640  11.443   5.090
82166SOL    HW248331   5.779  11.494   5.118
82167SOL     OW48332  12.855   1.908   9.704
82167SOL    HW148333  12.849   1.991   9.657
82167SOL    HW248334  12.777   1.906   9.760
82168SOL     OW48335   5.382  11.704  13.122
82168SOL    HW148336   5.438  11.771  13.082
82168SOL    HW248337   5.359  11.646  13.049
82169SOL     OW48338   2.528   4.968   1.886
82169SOL    HW148339   2.504   4.915   1.962
82169SOL    HW248340   2.562   5.049   1.923
82170SOL     OW48341   5.142   5.169   6.050
82170SOL    HW148342   5.150   5.115   6.129
82170SOL    HW248343   5.048   5.180   6.037
82171SOL     OW48344  14.512  14.541   2.447
82171SOL    HW148345  14.481  14.460   2.405
82171SOL    HW248346  14.481  14.534   2.537
82172SOL     OW48347   1.338   5.684   1.202
82172SOL    HW148348   1.370   5.688   1.292
82172SOL    HW248349   1.267   5.748   1.198
82173SOL     OW48350   5.658  10.907   0.749
82173SOL    HW148351   5.608  10.982   0.782
82173SOL    HW248352   5.702  10.872   0.826
82174SOL     OW48353  10.813  12.095  12.116
82174SOL    HW148354  10.754  12.020  12.118
82174SOL    HW248355  10.894  12.060  12.078
82175SOL     OW48356   3.605   0.197   0.609
82175SOL    HW148357   3.651   0.166   0.687
82175SOL    HW248358   3.539   0.257   0.643
82176SOL     OW48359   8.160  13.191   8.391
82176SOL    HW148360   8.169  13.103   8.354
82176SOL    HW248361   8.246  13.210   8.428
82177SOL     OW48362   9.480  12.469   5.459
82177SOL    HW148363   9.389  12.467   5.430
82177SOL    HW248364   9.487  12.397   5.521
82178SOL     OW48365   6.938   2.491   0.529
82178SOL    HW148366   6.989   2.486   0.610
82178SOL    HW248367   6.917   2.400   0.508
82179SOL     OW48368   2.562   3.404   7.897
82179SOL    HW148369   2.580   3.407   7.803
82179SOL    HW248370   2.506   3.480   7.914
82180SOL     OW48371  11.003  12.739  11.266
82180SOL    HW148372  10.911  12.760  11.248
82180SOL    HW248373  11.002  12.647  11.291
82181SOL     OW48374   5.556   1.348   9.363
82181SOL    HW148375   5.495   1.422   9.368
82181SOL    HW248376   5.633   1.376   9.411
82182SOL     OW48377   0.200   7.352  13.188
82182SOL    HW148378   0.143   7.281  13.218
82182SOL    HW248379   0.267   7.309  13.136
82183SOL     OW48380   7.318   4.032  14.662
82183SOL    HW148381   7.409   4.003  14.656
82183SOL    HW248382   7.320   4.103  14.726
82184SOL     OW48383  11.331   7.131   8.212
82184SOL    HW148384  11.390   7.181   8.154
82184SOL    HW248385  11.325   7.045   8.170
82185SOL     OW48386  11.377   1.092   7.478
82185SOL    HW148387  11.332   1.019   7.519
82185SOL    HW248388  11.455   1.053   7.438
82186SOL     OW48389   2.560  14.081  10.760
82186SOL    HW148390   2.582  14.146  10.693
82186SOL    HW248391   2.521  14.008  10.711
82187SOL     OW48392   5.738  10.405  13.609
82187SOL    HW148393   5.803  10.342  13.638
82187SOL    HW248394   5.654  10.368  13.636
82188SOL     OW48395   3.275   4.553   2.801
82188SOL    HW148396   3.256   4.621   2.736
82188SOL    HW248397   3.232   4.475   2.766
82189SOL     OW48398  14.215  14.702   1.267
82189SOL    HW148399  14.192  14.684   1.176
82189SOL    HW248400  14.292  14.648   1.283
82190SOL     OW48401  13.721  10.337   5.276
82190SOL    HW148402  13.627  10.342   5.294
82190SOL    HW248403  13.760  10.398   5.338
82191SOL     OW48404  11.434   8.656   9.971
82191SOL    HW148405  11.461   8.719  10.039
82191SOL    HW248406  11.515   8.625   9.933
82192SOL     OW48407   0.236   8.948  14.537
82192SOL    HW148408   0.190   9.029  14.513
82192SOL    HW248409   0.328   8.974  14.544
82193SOL     OW48410   6.976   6.741  11.506
82193SOL    HW148411   6.925   6.797  11.447
82193SOL    HW248412   7.033   6.691  11.447
82194SOL     OW48413   0.159   0.065   5.123
82194SOL    HW148414   0.202   0.150   5.119
82194SOL    HW248415   0.205   0.018   5.193
82195SOL     OW48416  12.975   7.070  13.331
82195SOL    HW148417  12.892   7.095  13.371
82195SOL    HW248418  13.036   7.140  13.356
82196SOL     OW48419  11.744  14.634  14.629
82196SOL    HW148420  11.692  14.699  14.677
82196SOL    HW248421  11.808  14.687  14.581
82197SOL     OW48422   2.832   8.474   2.578
82197SOL    HW148423   2.788   8.456   2.661
82197SOL    HW248424   2.790   8.417   2.514
82198SOL     OW48425   3.216   6.328   0.083
82198SOL    HW148426   3.185   6.241   0.060
82198SOL    HW248427   3.295   6.313   0.135
82199SOL     OW48428  10.639   9.273   4.070
82199SOL    HW148429  10.554   9.245   4.103
82199SOL    HW248430  10.617   9.333   3.998
82200SOL     OW48431   6.856   7.189   8.706
82200SOL    HW148432   6.839   7.281   8.723
82200SOL    HW248433   6.931   7.168   8.762
82201SOL     OW48434  14.318   2.478   7.147
82201SOL    HW148435  14.280   2.565   7.141
82201SOL    HW248436  14.401   2.485   7.099
82202SOL     OW48437  13.265  14.137   1.202
82202SOL    HW148438  13.270  14.195   1.279
82202SOL    HW248439  13.339  14.077   1.213
82203SOL     OW48440   8.786   2.367   0.146
82203SOL    HW148441   8.772   2.410   0.062
82203SOL    HW248442   8.801   2.439   0.208
82204SOL     OW48443   3.759   4.987   7.995
82204SOL    HW148444   3.674   4.955   8.025
82204SOL    HW248445   3.807   4.908   7.969
82205SOL     OW48446   8.940  11.155   2.601
82205SOL    HW148447   8.891  11.223   2.648
82205SOL    HW248448   8.930  11.077   2.655
82206SOL     OW48449   2.030   5.795   0.168
82206SOL    HW148450   1.981   5.796   0.086
82206SOL    HW248451   2.102   5.857   0.153
82207SOL     OW48452  10.789   5.766   7.317
82207SOL    HW148453  10.805   5.704   7.388
82207SOL    HW248454  10.723   5.826   7.351
82208SOL     OW48455  10.186  14.665   0.201
82208SOL    HW148456  10.196  14.657   0.296
82208SOL    HW248457  10.095  14.690   0.188
82209SOL     OW48458   5.278  12.018   2.519
82209SOL    HW148459   5.335  12.044   2.446
82209SOL    HW248460   5.328  12.039   2.597
82210SOL     OW48461   1.547   2.356  11.428
82210SOL    HW148462   1.540   2.278  11.374
82210SOL    HW248463   1.467   2.356  11.481
82211SOL     OW48464  11.818  11.775   2.486
82211SOL    HW148465  11.855  11.810   2.568
82211SOL    HW248466  11.779  11.850   2.443
82212SOL     OW48467   9.762  14.428  14.567
82212SOL    HW148468   9.849  14.410  14.533
82212SOL    HW248469   9.776  14.487  14.641
82213SOL     OW48470  14.172   0.553   3.621
82213SOL    HW148471  14.081   0.581   3.631
82213SOL    HW248472  14.188   0.496   3.696
82214SOL     OW48473  10.300   2.132   9.933
82214SOL    HW148474  10.258   2.108   9.850
82214SOL    HW248475  10.232   2.175   9.983
82215SOL     OW48476   0.193   6.366   7.691
82215SOL    HW148477   0.236   6.444   7.727
82215SOL    HW248478   0.257   6.296   7.704
82216SOL     OW48479  12.206   1.877   7.885
82216SOL    HW148480  12.160   1.947   7.930
82216SOL    HW248481  12.293   1.913   7.868
82217SOL     OW48482   9.794   2.157   6.282
82217SOL    HW148483   9.816   2.214   6.209
82217SOL    HW248484   9.830   2.202   6.359
82218SOL     OW48485   0.341   3.298  11.214
82218SOL    HW148486   0.406   3.256  11.270
82218SOL    HW248487   0.321   3.380  11.258
82219SOL     OW48488   0.689  10.511   7.021
82219SOL    HW148489   0.633  10.532   6.946
82219SOL    HW248490   0.777  10.503   6.983
82220SOL     OW48491   8.541  12.020   0.520
82220SOL    HW148492   8.541  12.047   0.429
82220SOL    HW248493   8.550  12.101   0.569
82221SOL     OW48494   6.606  14.724   5.889
82221SOL    HW148495   6.513  14.745   5.884
82221SOL    HW248496   6.644  14.797   5.938
82222SOL     OW48497   5.658   0.191  11.415
82222SOL    HW148498   5.633   0.102  11.439
82222SOL    HW248499   5.736   0.209  11.468
82223SOL     OW48500   8.637  10.321  11.902
82223SOL    HW148501   8.677  10.245  11.859
82223SOL    HW248502   8.595  10.369  11.831
82224SOL     OW48503  14.798   2.954  14.084
82224SOL    HW148504  14.876   3.008  14.068
82224SOL    HW248505  14.727   3.017  14.095
82225SOL     OW48506  11.767   7.345   0.836
82225SOL    HW148507  11.734   7.428   0.872
82225SOL    HW248508  11.713   7.278   0.878
82226SOL     OW48509   8.969   5.814  11.057
82226SOL    HW148510   8.910   5.855  10.994
82226SOL    HW248511   8.981   5.880  11.126
82227SOL     OW48512   3.086  11.798   9.868
82227SOL    HW148513   3.119  11.845   9.945
82227SOL    HW248514   3.164  11.772   9.820
82228SOL     OW48515  13.968  14.638   4.195
82228SOL    HW148516  13.909  14.711   4.211
82228SOL    HW248517  14.004  14.616   4.281
82229SOL     OW48518   8.807   6.695  10.679
82229SOL    HW148519   8.845   6.781  10.696
82229SOL    HW248520   8.851   6.637  10.741
82230SOL     OW48521   8.083   3.273   5.732
82230SOL    HW148522   8.108   3.229   5.813
82230SOL    HW248523   7.998   3.235   5.710
82231SOL     OW48524   2.654  12.827   8.496
82231SOL    HW148525   2.679  12.860   8.582
82231SOL    HW248526   2.674  12.900   8.437
82232SOL     OW48527   2.881  13.382  14.102
82232SOL    HW148528   2.948  13.450  14.092
82232SOL    HW248529   2.861  13.355  14.012
82233SOL     OW48530   5.666  13.193  12.564
82233SOL    HW148531   5.668  13.192  12.468
82233SOL    HW248532   5.671  13.101  12.589
82234SOL     OW48533  11.234  10.293   6.724
82234SOL    HW148534  11.318  10.335   6.704
82234SOL    HW248535  11.242  10.265   6.815
82235SOL     OW48536  13.561   9.582   7.380
82235SOL    HW148537  13.589   9.498   7.417
82235SOL    HW248538  13.498   9.559   7.312
82236SOL     OW48539  14.256   4.821   4.143
82236SOL    HW148540  14.240   4.852   4.054
82236SOL    HW248541  14.215   4.886   4.200
82237SOL     OW48542  14.173  12.429  10.158
82237SOL    HW148543  14.135  12.512  10.186
82237SOL    HW248544  14.199  12.385  10.239
82238SOL     OW48545  14.071   3.388   5.079
82238SOL    HW148546  14.098   3.480   5.088
82238SOL    HW248547  14.148   3.338   5.106
82239SOL     OW48548   9.752   5.551  10.952
82239SOL    HW148549   9.838   5.567  10.914
82239SOL    HW248550   9.690   5.588  10.889
82240SOL     OW48551  12.232  11.449   7.798
82240SOL    HW148552  12.177  11.373   7.819
82240SOL    HW248553  12.287  11.461   7.876
82241SOL     OW48554   9.072   2.909   6.432
82241SOL    HW148555   9.148   2.936   6.483
82241SOL    HW248556   9.009   2.980   6.443
82242SOL     OW48557   3.399  14.140   0.616
82242SOL    HW148558   3.332  14.149   0.549
82242SOL    HW248559   3.405  14.227   0.656
82243SOL     OW48560   4.268   2.837   2.023
82243SOL    HW148561   4.211   2.764   1.999
82243SOL    HW248562   4.241   2.861   2.111
82244SOL     OW48563   4.362   1.232   7.823
82244SOL    HW148564   4.292   1.176   7.788
82244SOL    HW248565   4.399   1.275   7.746
82245SOL     OW48566  14.203  11.896   2.200
82245SOL    HW148567  14.190  11.988   2.221
82245SOL    HW248568  14.285  11.894   2.150
82246SOL     OW48569   8.183  13.540   9.634
82246SOL    HW148570   8.143  13.463   9.675
82246SOL    HW248571   8.168  13.528   9.540
82247SOL     OW48572   8.031  10.789   2.475
82247SOL    HW148573   8.049  10.881   2.495
82247SOL    HW248574   8.005  10.788   2.383
82248SOL     OW48575   5.394   3.382   5.547
82248SOL    HW148576   5.422   3.353   5.461
82248SOL    HW248577   5.384   3.477   5.538
82249SOL     OW48578   3.648   1.450  14.138
82249SOL    HW148579   3.723   1.499  14.173
82249SOL    HW248580   3.645   1.474  14.046
82250SOL     OW48581   3.631   9.966   0.702
82250SOL    HW148582   3.657   9.881   0.666
82250SOL    HW248583   3.714  10.010   0.719
82251SOL     OW48584  14.222   1.875   7.117
82251SOL    HW148585  14.309   1.910   7.099
82251SOL    HW248586  14.191   1.844   7.032
82252SOL     OW48587   3.823  13.981   7.432
82252SOL    HW148588   3.827  14.006   7.340
82252SOL    HW248589   3.866  13.895   7.436
82253SOL     OW48590  14.653   4.640   0.161
82253SOL    HW148591  14.660   4.679   0.074
82253SOL    HW248592  14.584   4.689   0.204
82254SOL     OW48593   3.389   0.172   5.696
82254SOL    HW148594   3.450   0.198   5.628
82254SOL    HW248595   3.316   0.233   5.688
82255SOL     OW48596   6.991   3.054  12.581
82255SOL    HW148597   6.939   3.017  12.510
82255SOL    HW248598   6.957   3.012  12.660
82256SOL     OW48599   0.792  11.653   0.078
82256SOL    HW148600   0.837  11.664  14.870
82256SOL    HW248601   0.772  11.559   0.081
82257SOL     OW48602   5.179   8.488   3.152
82257SOL    HW148603   5.230   8.468   3.073
82257SOL    HW248604   5.237   8.466   3.224
82258SOL     OW48605   0.755   2.290   3.130
82258SOL    HW148606   0.704   2.329   3.201
82258SOL    HW248607   0.775   2.363   3.072
82259SOL     OW48608   2.212  11.800   1.618
82259SOL    HW148609   2.294  11.838   1.586
82259SOL    HW248610   2.227  11.784   1.711
82260SOL     OW48611  14.496   6.083  11.768
82260SOL    HW148612  14.558   6.126  11.709
82260SOL    HW248613  14.454   6.016  11.715
82261SOL     OW48614  10.604   6.980   7.039
82261SOL    HW148615  10.591   6.932   6.957
82261SOL    HW248616  10.515   6.993   7.073
82262SOL     OW48617   8.673   0.008   2.177
82262SOL    HW148618   8.679   0.007   2.273
82262SOL    HW248619   8.764   0.004   2.148
82263SOL     OW48620   2.788  12.862   9.119
82263SOL    HW148621   2.845  12.885   9.046
82263SOL    HW248622   2.830  12.901   9.196
82264SOL     OW48623   6.818   3.976   1.633
82264SOL    HW148624   6.890   3.986   1.570
82264SOL    HW248625   6.859   3.939   1.711
82265SOL     OW48626   4.527   4.808   7.453
82265SOL    HW148627   4.460   4.840   7.515
82265SOL    HW248628   4.554   4.887   7.405
82266SOL     OW48629  14.168   5.316  10.343
82266SOL    HW148630  14.258   5.309  10.312
82266SOL    HW248631  14.118   5.263  10.281
82267SOL     OW48632   8.934   4.312   8.547
82267SOL    HW148633   8.851   4.301   8.593
82267SOL    HW248634   8.926   4.257   8.469
82268SOL     OW48635   6.800  14.542   5.902
82268SOL    HW148636   6.736  14.610   5.884
82268SOL    HW248637   6.825  14.509   5.815
82269SOL     OW48638  14.777   6.627  14.343
82269SOL    HW148639  14.729   6.696  14.390
82269SOL    HW248640  14.863   6.665  14.327
82270SOL     OW48641  10.151  10.025   0.505
82270SOL    HW148642  10.211  10.094   0.535
82270SOL    HW248643  10.182   9.946   0.548
82271SOL     OW48644   6.418  13.865   9.353
82271SOL    HW148645   6.429  13.891   9.262
82271SOL    HW248646   6.326  13.883   9.372
82272SOL     OW48647   3.945   7.494   1.384
82272SOL    HW148648   4.003   7.423   1.357
82272SOL    HW248649   3.884   7.452   1.445
82273SOL     OW48650   7.206  14.158  10.220
82273SOL    HW148651   7.282  14.209  10.248
82273SOL    HW248652   7.194  14.181  10.128
82274SOL     OW48653   5.504   0.983   0.610
82274SOL    HW148654   5.426   0.931   0.623
82274SOL    HW248655   5.474   1.074   0.616
82275SOL     OW48656   4.094  12.083   0.365
82275SOL    HW148657   4.132  12.061   0.450
82275SOL    HW248658   4.033  12.011   0.347
82276SOL     OW48659  11.423   7.188   6.182
82276SOL    HW148660  11.452   7.099   6.199
82276SOL    HW248661  11.420   7.230   6.268
82277SOL     OW48662   4.757   2.327   0.362
82277SOL    HW148663   4.679   2.337   0.417
82277SOL    HW248664   4.783   2.235   0.374
82278SOL     OW48665   1.357   5.686  11.732
82278SOL    HW148666   1.426   5.730  11.681
82278SOL    HW248667   1.355   5.735  11.814
82279SOL     OW48668   3.678   9.836   7.621
82279SOL    HW148669   3.665   9.867   7.532
82279SOL    HW248670   3.736   9.900   7.662
82280SOL     OW48671  12.093   5.533   6.191
82280SOL    HW148672  12.188   5.523   6.187
82280SOL    HW248673  12.058   5.451   6.156
82281SOL     OW48674   0.783   7.324   7.331
82281SOL    HW148675   0.763   7.338   7.239
82281SOL    HW248676   0.700   7.340   7.376
82282SOL     OW48677  12.984   7.422  13.070
82282SOL    HW148678  12.958   7.474  13.147
82282SOL    HW248679  12.911   7.430  13.010
82283SOL     OW48680   9.451   0.206   8.450
82283SOL    HW148681   9.436   0.175   8.361
82283SOL    HW248682   9.540   0.178   8.471
82284SOL     OW48683  12.694   2.122  13.338
82284SOL    HW148684  12.696   2.124  13.242
82284SOL    HW248685  12.786   2.110  13.363
82285SOL     OW48686   6.119   3.227   2.263
82285SOL    HW148687   6.048   3.224   2.327
82285SOL    HW248688   6.151   3.137   2.258
82286SOL     OW48689  11.387   2.877   0.969
82286SOL    HW148690  11.349   2.960   0.999
82286SOL    HW248691  11.413   2.832   1.049
82287SOL     OW48692   6.109   1.508   8.576
82287SOL    HW148693   6.065   1.592   8.584
82287SOL    HW248694   6.201   1.530   8.560
82288SOL     OW48695   7.215  10.515  12.702
82288SOL    HW148696   7.287  10.474  12.653
82288SOL    HW248697   7.252  10.598  12.733
82289SOL     OW48698   1.014  14.619   2.786
82289SOL    HW148699   1.088  14.584   2.836
82289SOL    HW248700   1.053  14.679   2.723
82290SOL     OW48701   8.307   9.648   9.015
82290SOL    HW148702   8.300   9.715   9.083
82290SOL    HW248703   8.337   9.570   9.062
82291SOL     OW48704  13.583  10.369   5.020
82291SOL    HW148705  13.596  10.282   4.984
82291SOL    HW248706  13.630  10.368   5.104
82292SOL     OW48707   3.085   0.319   2.181
82292SOL    HW148708   3.016   0.277   2.232
82292SOL    HW248709   3.059   0.412   2.178
82293SOL     OW48710  14.604   5.311  14.576
82293SOL    HW148711  14.571   5.366  14.504
82293SOL    HW248712  14.696   5.297  14.554
82294SOL     OW48713   8.605   4.651  11.704
82294SOL    HW148714   8.572   4.740  11.708
82294SOL    HW248715   8.531   4.599  11.671
82295SOL     OW48716   8.200   6.385   8.626
82295SOL    HW148717   8.215   6.439   8.548
82295SOL    HW248718   8.231   6.438   8.699
82296SOL     OW48719   3.230   8.356   5.402
82296SOL    HW148720   3.268   8.279   5.361
82296SOL    HW248721   3.281   8.369   5.482
82297SOL     OW48722   3.149   7.467   7.547
82297SOL    HW148723   3.157   7.547   7.495
82297SOL    HW248724   3.151   7.497   7.638
82298SOL     OW48725   8.929   2.910   0.632
82298SOL    HW148726   8.938   2.929   0.539
82298SOL    HW248727   8.890   2.990   0.669
82299SOL     OW48728   0.787  10.475   6.016
82299SOL    HW148729   0.741  10.404   6.061
82299SOL    HW248730   0.721  10.543   6.005
82300SOL     OW48731   1.056   0.506   2.575
82300SOL    HW148732   1.146   0.485   2.549
82300SOL    HW248733   1.064   0.591   2.619
82301SOL     OW48734   8.347  11.314   8.554
82301SOL    HW148735   8.303  11.290   8.473
82301SOL    HW248736   8.276  11.332   8.616
82302SOL     OW48737  12.042  14.541   6.587
82302SOL    HW148738  11.968  14.558   6.530
82302SOL    HW248739  12.009  14.555   6.676
82303SOL     OW48740  11.285   4.065   4.516
82303SOL    HW148741  11.267   4.144   4.567
82303SOL    HW248742  11.356   4.090   4.457
82304SOL     OW48743   0.871   8.901  10.356
82304SOL    HW148744   0.880   8.821  10.305
82304SOL    HW248745   0.961   8.928  10.374
82305SOL     OW48746  10.248  11.726  13.601
82305SOL    HW148747  10.173  11.784  13.607
82305SOL    HW248748  10.266  11.700  13.692
82306SOL     OW48749   6.495  11.222   3.799
82306SOL    HW148750   6.545  11.296   3.835
82306SOL    HW248751   6.459  11.256   3.717
82307SOL     OW48752   6.877   0.135   5.079
82307SOL    HW148753   6.957   0.112   5.127
82307SOL    HW248754   6.853   0.222   5.112
82308SOL     OW48755  13.043   2.448   7.267
82308SOL    HW148756  12.970   2.458   7.205
82308SOL    HW248757  13.105   2.390   7.222
82309SOL     OW48758  14.353   7.551  12.766
82309SOL    HW148759  14.415   7.541  12.694
82309SOL    HW248760  14.407   7.558  12.844
82310SOL     OW48761   4.428   5.276  10.293
82310SOL    HW148762   4.376   5.341  10.245
82310SOL    HW248763   4.517   5.309  10.288
82311SOL     OW48764   7.490   8.223  11.073
82311SOL    HW148765   7.521   8.313  11.080
82311SOL    HW248766   7.514   8.196  10.984
82312SOL     OW48767  13.329  10.527   4.997
82312SOL    HW148768  13.390  10.460   5.027
82312SOL    HW248769  13.249  10.512   5.047
82313SOL     OW48770   5.330  13.090  10.398
82313SOL    HW148771   5.308  13.138  10.318
82313SOL    HW248772   5.381  13.153  10.450
82314SOL     OW48773   8.720   7.456  11.113
82314SOL    HW148774   8.691   7.547  11.112
82314SOL    HW248775   8.688   7.422  11.196
82315SOL     OW48776   9.937  10.591  12.479
82315SOL    HW148777   9.900  10.625  12.560
82315SOL    HW248778  10.028  10.622  12.479
82316SOL     OW48779  10.582   9.883   2.961
82316SOL    HW148780  10.582   9.970   3.001
82316SOL    HW248781  10.675   9.866   2.942
82317SOL     OW48782  12.530   4.838  12.502
82317SOL    HW148783  12.563   4.895  12.571
82317SOL    HW248784  12.435   4.850  12.504
82318SOL     OW48785   4.563  11.042  12.767
82318SOL    HW148786   4.603  11.020  12.683
82318SOL    HW248787   4.637  11.056  12.826
82319SOL     OW48788  14.269  13.276  12.654
82319SOL    HW148789  14.242  13.187  12.631
82319SOL    HW248790  14.336  13.298  12.589
82320SOL     OW48791   5.669  14.653   6.206
82320SOL    HW148792   5.585  14.619   6.237
82320SOL    HW248793   5.647  14.710   6.132
82321SOL     OW48794   3.120  13.001   5.715
82321SOL    HW148795   3.147  13.076   5.768
82321SOL    HW248796   3.142  13.026   5.626
82322SOL     OW48797  10.775   8.434  14.745
82322SOL    HW148798  10.786   8.529  14.744
82322SOL    HW248799  10.854   8.400  14.702
82323SOL     OW48800   2.633   3.763   2.441
82323SOL    HW148801   2.549   3.782   2.482
82323SOL    HW248802   2.676   3.702   2.500
82324SOL     OW48803  10.836  10.435   1.579
82324SOL    HW148804  10.754  10.481   1.562
82324SOL    HW248805  10.829  10.406   1.670
82325SOL     OW48806   2.676   9.005  13.609
82325SOL    HW148807   2.696   8.928  13.662
82325SOL    HW248808   2.626   9.062  13.667
82326SOL     OW48809   8.522  13.094   2.742
82326SOL    HW148810   8.470  13.014   2.744
82326SOL    HW248811   8.477  13.153   2.804
82327SOL     OW48812   4.844   6.396  13.967
82327SOL    HW148813   4.780   6.335  13.930
82327SOL    HW248814   4.922   6.343  13.982
82328SOL     OW48815   5.308   6.733   7.520
82328SOL    HW148816   5.376   6.773   7.465
82328SOL    HW248817   5.275   6.659   7.468
82329SOL     OW48818  10.722   4.681  10.735
82329SOL    HW148819  10.777   4.704  10.810
82329SOL    HW248820  10.759   4.732  10.663
82330SOL     OW48821   6.587   0.468   4.103
82330SOL    HW148822   6.626   0.391   4.064
82330SOL    HW248823   6.498   0.471   4.068
82331SOL     OW48824   9.872   1.752   2.293
82331SOL    HW148825   9.865   1.817   2.363
82331SOL    HW248826   9.913   1.676   2.335
82332SOL     OW48827   3.944  11.428   5.087
82332SOL    HW148828   4.001  11.481   5.144
82332SOL    HW248829   3.861  11.423   5.134
82333SOL     OW48830  13.631   9.708   0.180
82333SOL    HW148831  13.582   9.641   0.132
82333SOL    HW248832  13.722   9.676   0.179
82334SOL     OW48833   2.845   6.694   0.536
82334SOL    HW148834   2.784   6.653   0.597
82334SOL    HW248835   2.827   6.652   0.452
82335SOL     OW48836   4.763  13.565   4.261
82335SOL    HW148837   4.821  13.506   4.214
82335SOL    HW248838   4.817  13.602   4.331
82336SOL     OW48839  11.558  11.913  12.403
82336SOL    HW148840  11.568  11.936  12.311
82336SOL    HW248841  11.620  11.841  12.416
82337SOL     OW48842  13.981   9.608   9.436
82337SOL    HW148843  13.915   9.664   9.477
82337SOL    HW248844  14.034   9.576   9.509
82338SOL     OW48845  13.401   6.907   5.688
82338SOL    HW148846  13.465   6.917   5.617
82338SOL    HW248847  13.350   6.988   5.687
82339SOL     OW48848  12.586   8.746   5.498
82339SOL    HW148849  12.579   8.841   5.508
82339SOL    HW248850  12.588   8.731   5.404
82340SOL     OW48851   8.309   5.556  13.342
82340SOL    HW148852   8.250   5.571  13.416
82340SOL    HW248853   8.331   5.644  13.312
82341SOL     OW48854   2.609   1.635  13.707
82341SOL    HW148855   2.664   1.558  13.720
82341SOL    HW248856   2.669   1.709  13.707
82342SOL     OW48857   0.895  10.802   3.521
82342SOL    HW148858   0.867  10.887   3.555
82342SOL    HW248859   0.859  10.799   3.432
82343SOL     OW48860   1.729   2.358  12.101
82343SOL    HW148861   1.762   2.442  12.068
82343SOL    HW248862   1.670   2.326  12.033
82344SOL     OW48863   0.164   3.347  11.748
82344SOL    HW148864   0.166   3.442  11.752
82344SOL    HW248865   0.222   3.319  11.820
82345SOL     OW48866   2.662   5.845   8.080
82345SOL    HW148867   2.607   5.921   8.098
82345SOL    HW248868   2.669   5.799   8.163
82346SOL     OW48869  10.317   5.745   5.476
82346SOL    HW148870  10.411   5.748   5.457
82346SOL    HW248871  10.308   5.670   5.535
82347SOL     OW48872  13.482  12.047  12.683
82347SOL    HW148873  13.557  11.990  12.667
82347SOL    HW248874  13.505  12.130  12.640
82348SOL     OW48875   5.393   5.235   4.460
82348SOL    HW148876   5.361   5.226   4.370
82348SOL    HW248877   5.360   5.157   4.505
82349SOL     OW48878   9.703   9.296   9.972
82349SOL    HW148879   9.726   9.237  10.044
82349SOL    HW248880   9.695   9.239   9.895
82350SOL     OW48881  11.274   9.528  12.063
82350SOL    HW148882  11.352   9.513  12.010
82350SOL    HW248883  11.207   9.472  12.024
82351SOL     OW48884  11.607  11.928  10.011
82351SOL    HW148885  11.555  12.008  10.013
82351SOL    HW248886  11.687  11.952   9.963
82352SOL     OW48887   1.001   6.556  14.106
82352SOL    HW148888   1.085   6.512  14.091
82352SOL    HW248889   1.025   6.638  14.150
82353SOL     OW48890   7.711  12.895   8.837
82353SOL    HW148891   7.798  12.880   8.801
82353SOL    HW248892   7.651  12.856   8.774
82354SOL     OW48893   7.979   9.382   1.858
82354SOL    HW148894   8.023   9.300   1.836
82354SOL    HW248895   7.902   9.355   1.908
82355SOL     OW48896   2.346  13.639   0.985
82355SOL    HW148897   2.426  13.627   1.037
82355SOL    HW248898   2.373  13.622   0.895
82356SOL     OW48899  10.669   7.234   8.250
82356SOL    HW148900  10.633   7.294   8.185
82356SOL    HW248901  10.633   7.264   8.333
82357SOL     OW48902   8.862  12.552  10.641
82357SOL    HW148903   8.933  12.527  10.582
82357SOL    HW248904   8.850  12.646  10.625
82358SOL     OW48905   9.528  13.483  11.295
82358SOL    HW148906   9.606  13.437  11.266
82358SOL    HW248907   9.479  13.501  11.215
82359SOL     OW48908  12.204  13.354  10.936
82359SOL    HW148909  12.112  13.379  10.937
82359SOL    HW248910  12.204  13.259  10.944
82360SOL     OW48911  12.941   0.709   7.394
82360SOL    HW148912  12.856   0.749   7.375
82360SOL    HW248913  12.996   0.783   7.420
82361SOL     OW48914   7.964   8.087   9.752
82361SOL    HW148915   7.915   8.013   9.718
82361SOL    HW248916   8.016   8.118   9.678
82362SOL     OW48917  12.593   9.228   0.037
82362SOL    HW148918  12.642   9.276   0.104
82362SOL    HW248919  12.653   9.224  14.838
82363SOL     OW48920   7.238  13.645  10.251
82363SOL    HW148921   7.311  13.584  10.236
82363SOL    HW248922   7.246  13.670  10.343
82364SOL     OW48923  12.147  12.517   4.591
82364SOL    HW148924  12.174  12.500   4.501
82364SOL    HW248925  12.118  12.431   4.624
82365SOL     OW48926   0.344   1.050  11.082
82365SOL    HW148927   0.370   0.959  11.070
82365SOL    HW248928   0.258   1.057  11.041
82366SOL     OW48929  14.825   6.861   4.780
82366SOL    HW148930  14.775   6.882   4.859
82366SOL    HW248931  14.771   6.797   4.734
82367SOL     OW48932   9.228   6.062   1.208
82367SOL    HW148933   9.143   6.103   1.190
82367SOL    HW248934   9.270   6.056   1.122
82368SOL     OW48935  11.751   3.789   3.638
82368SOL    HW148936  11.846   3.783   3.646
82368SOL    HW248937  11.717   3.740   3.713
82369SOL     OW48938   5.809   4.371   2.117
82369SOL    HW148939   5.866   4.323   2.058
82369SOL    HW248940   5.812   4.322   2.199
82370SOL     OW48941   9.149   0.954  10.676
82370SOL    HW148942   9.223   0.998  10.718
82370SOL    HW248943   9.119   1.016  10.609
82371SOL     OW48944  14.420   9.605   9.787
82371SOL    HW148945  14.404   9.525   9.738
82371SOL    HW248946  14.514   9.621   9.778
82372SOL     OW48947   8.527  13.524   1.662
82372SOL    HW148948   8.611  13.562   1.689
82372SOL    HW248949   8.520  13.545   1.569
82373SOL     OW48950   6.349   1.924   1.604
82373SOL    HW148951   6.405   1.871   1.661
82373SOL    HW248952   6.380   2.014   1.616
82374SOL     OW48953  12.504   4.617   5.535
82374SOL    HW148954  12.527   4.644   5.446
82374SOL    HW248955  12.575   4.651   5.589
82375SOL     OW48956  13.858  12.753   1.466
82375SOL    HW148957  13.917  12.680   1.484
82375SOL    HW248958  13.788  12.743   1.529
82376SOL     OW48959   7.751   0.454  10.861
82376SOL    HW148960   7.819   0.513  10.831
82376SOL    HW248961   7.764   0.374  10.810
82377SOL     OW48962   2.079   9.213  11.922
82377SOL    HW148963   2.104   9.128  11.885
82377SOL    HW248964   1.986   9.221  11.899
82378SOL     OW48965   9.030  14.239   5.224
82378SOL    HW148966   9.124  14.225   5.211
82378SOL    HW248967   8.991  14.153   5.211
82379SOL     OW48968  10.615  13.133   8.589
82379SOL    HW148969  10.549  13.069   8.562
82379SOL    HW248970  10.696  13.103   8.548
82380SOL     OW48971   3.119  10.968   2.192
82380SOL    HW148972   3.201  10.990   2.237
82380SOL    HW248973   3.129  10.876   2.170
82381SOL     OW48974   8.499   5.590   4.136
82381SOL    HW148975   8.565   5.639   4.086
82381SOL    HW248976   8.530   5.593   4.226
82382SOL     OW48977  11.565   4.973   0.280
82382SOL    HW148978  11.492   4.924   0.242
82382SOL    HW248979  11.564   4.947   0.373
82383SOL     OW48980   4.445  14.460   9.748
82383SOL    HW148981   4.509  14.425   9.685
82383SOL    HW248982   4.381  14.507   9.695
82384SOL     OW48983   9.853   5.613  13.947
82384SOL    HW148984   9.780   5.654  13.900
82384SOL    HW248985   9.926   5.619  13.886
82385SOL     OW48986   3.419   0.221  13.348
82385SOL    HW148987   3.481   0.226  13.421
82385SOL    HW248988   3.385   0.132  13.351
82386SOL     OW48989   1.949   9.853  10.504
82386SOL    HW148990   2.022   9.803  10.541
82386SOL    HW248991   1.981   9.885  10.420
82387SOL     OW48992  13.960  11.691   6.872
82387SOL    HW148993  14.027  11.623   6.873
82387SOL    HW248994  13.963  11.727   6.784
82388SOL     OW48995  13.230  12.666   6.734
82388SOL    HW148996  13.300  12.728   6.714
82388SOL    HW248997  13.161  12.720   6.773
82389SOL     OW48998  11.297   7.217   3.155
82389SOL    HW148999  11.232   7.148   3.140
82389SOL    HW249000  11.315   7.212   3.249
82390SOL     OW49001  13.020   9.021  12.140
82390SOL    HW149002  12.969   8.943  12.162
82390SOL    HW249003  13.111   8.994  12.153
82391SOL     OW49004   2.547  11.180   6.513
82391SOL    HW149005   2.625  11.128   6.493
82391SOL    HW249006   2.577  11.245   6.576
82392SOL     OW49007   9.674   2.813  11.836
82392SOL    HW149008   9.722   2.882  11.789
82392SOL    HW249009   9.642   2.857  11.915
82393SOL     OW49010  14.283   3.510   7.704
82393SOL    HW149011  14.332   3.592   7.708
82393SOL    HW249012  14.332   3.456   7.643
82394SOL     OW49013   9.488   6.689  11.881
82394SOL    HW149014   9.579   6.696  11.854
82394SOL    HW249015   9.490   6.640  11.963
82395SOL     OW49016  12.275   0.731   2.620
82395SOL    HW149017  12.353   0.786   2.624
82395SOL    HW249018  12.232   0.743   2.704
82396SOL     OW49019   5.363   6.345   4.858
82396SOL    HW149020   5.393   6.264   4.815
82396SOL    HW249021   5.417   6.350   4.937
82397SOL     OW49022   1.219   0.031  11.246
82397SOL    HW149023   1.298  14.857  11.267
82397SOL    HW249024   1.169   0.032  11.327
82398SOL     OW49025  10.451   5.307   8.073
82398SOL    HW149026  10.360   5.332   8.055
82398SOL    HW249027  10.452   5.289   8.167
82399SOL     OW49028   4.029  12.827   2.094
82399SOL    HW149029   4.028  12.780   2.178
82399SOL    HW249030   4.120  12.824   2.066
82400SOL     OW49031   2.932  12.267   6.441
82400SOL    HW149032   2.930  12.317   6.359
82400SOL    HW249033   2.855  12.210   6.435
82401SOL     OW49034   0.546   5.370   6.176
82401SOL    HW149035   0.573   5.282   6.203
82401SOL    HW249036   0.489   5.401   6.247
82402SOL     OW49037   4.954  10.744  12.665
82402SOL    HW149038   4.945  10.719  12.573
82402SOL    HW249039   5.011  10.821  12.663
82403SOL     OW49040   5.568   8.989   0.806
82403SOL    HW149041   5.524   8.920   0.755
82403SOL    HW249042   5.651   9.003   0.761
82404SOL     OW49043   7.028   9.087   9.504
82404SOL    HW149044   7.017   8.995   9.528
82404SOL    HW249045   7.122   9.096   9.486
82405SOL     OW49046  10.194   3.693   2.113
82405SOL    HW149047  10.188   3.772   2.167
82405SOL    HW249048  10.287   3.685   2.092
82406SOL     OW49049  12.845   2.778   8.020
82406SOL    HW149050  12.806   2.693   8.043
82406SOL    HW249051  12.801   2.804   7.940
82407SOL     OW49052   0.596   0.249   6.545
82407SOL    HW149053   0.651   0.288   6.477
82407SOL    HW249054   0.641   0.169   6.570
82408SOL     OW49055   2.014   0.259   5.113
82408SOL    HW149056   1.932   0.271   5.065
82408SOL    HW249057   2.041   0.170   5.093
82409SOL     OW49058   1.702   6.889  14.842
82409SOL    HW149059   1.735   6.942  14.769
82409SOL    HW249060   1.680   6.805  14.803
82410SOL     OW49061  10.676   1.538  13.965
82410SOL    HW149062  10.625   1.478  13.911
82410SOL    HW249063  10.714   1.601  13.903
82411SOL     OW49064  10.188   7.885   2.172
82411SOL    HW149065  10.157   7.945   2.104
82411SOL    HW249066  10.185   7.799   2.130
82412SOL     OW49067   4.445   3.613  10.906
82412SOL    HW149068   4.405   3.670  10.840
82412SOL    HW249069   4.373   3.590  10.965
82413SOL     OW49070  11.331   7.299   0.206
82413SOL    HW149071  11.275   7.287   0.130
82413SOL    HW249072  11.270   7.318   0.278
82414SOL     OW49073   5.580  12.190  14.211
82414SOL    HW149074   5.562  12.120  14.147
82414SOL    HW249075   5.566  12.271  14.162
82415SOL     OW49076   8.074  12.678  12.628
82415SOL    HW149077   7.983  12.706  12.634
82415SOL    HW249078   8.092  12.636  12.712
82416SOL     OW49079   0.261   5.831   7.897
82416SOL    HW149080   0.246   5.837   7.991
82416SOL    HW249081   0.296   5.743   7.884
82417SOL     OW49082   2.536   4.383   0.792
82417SOL    HW149083   2.546   4.391   0.697
82417SOL    HW249084   2.520   4.473   0.823
82418SOL     OW49085   6.779   3.612   3.590
82418SOL    HW149086   6.711   3.604   3.656
82418SOL    HW249087   6.734   3.645   3.512
82419SOL     OW49088   0.402  12.892  12.080
82419SOL    HW149089   0.390  12.803  12.046
82419SOL    HW249090   0.497  12.905  12.078
82420SOL     OW49091   6.505  12.243   5.520
82420SOL    HW149092   6.580  12.213   5.571
82420SOL    HW249093   6.429  12.205   5.563
82421SOL     OW49094  11.799  13.110   0.074
82421SOL    HW149095  11.743  13.133  14.875
82421SOL    HW249096  11.832  13.194   0.107
82422SOL     OW49097   0.856   6.168  12.043
82422SOL    HW149098   0.898   6.250  12.068
82422SOL    HW249099   0.815   6.136  12.123
82423SOL     OW49100  10.282   5.231   1.655
82423SOL    HW149101  10.276   5.324   1.675
82423SOL    HW249102  10.349   5.198   1.714
82424SOL     OW49103   5.088   4.755   1.559
82424SOL    HW149104   5.071   4.812   1.633
82424SOL    HW249105   5.166   4.792   1.517
82425SOL     OW49106  12.996  12.236   9.637
82425SOL    HW149107  12.903  12.252   9.624
82425SOL    HW249108  13.013  12.152   9.595
82426SOL     OW49109  13.776  10.195  11.140
82426SOL    HW149110  13.814  10.240  11.064
82426SOL    HW249111  13.775  10.102  11.114
82427SOL     OW49112   6.554   0.022  12.164
82427SOL    HW149113   6.615  14.856  12.104
82427SOL    HW249114   6.591   0.007  12.251
82428SOL     OW49115  13.597   4.315   6.570
82428SOL    HW149116  13.561   4.329   6.482
82428SOL    HW249117  13.521   4.315   6.627
82429SOL     OW49118   0.022   9.021  13.589
82429SOL    HW149119   0.062   9.107  13.604
82429SOL    HW249120  14.805   9.041  13.572
82430SOL     OW49121  11.779   7.760   8.166
82430SOL    HW149122  11.853   7.811   8.133
82430SOL    HW249123  11.739   7.817   8.232
82431SOL     OW49124  10.721   0.793   9.999
82431SOL    HW149125  10.717   0.861   9.932
82431SOL    HW249126  10.714   0.839  10.082
82432SOL     OW49127  10.643  11.495  10.792
82432SOL    HW149128  10.716  11.477  10.733
82432SOL    HW249129  10.622  11.410  10.831
82433SOL     OW49130  10.011   8.898   1.545
82433SOL    HW149131   9.983   8.816   1.505
82433SOL    HW249132   9.933   8.934   1.586
82434SOL     OW49133  12.639   2.628   2.218
82434SOL    HW149134  12.652   2.533   2.223
82434SOL    HW249135  12.651   2.649   2.125
82435SOL     OW49136   8.217   9.541   2.162
82435SOL    HW149137   8.241   9.589   2.083
82435SOL    HW249138   8.193   9.454   2.131
82436SOL     OW49139   3.360   3.954  14.264
82436SOL    HW149140   3.278   3.955  14.214
82436SOL    HW249141   3.350   4.024  14.329
82437SOL     OW49142  13.200   6.497   7.201
82437SOL    HW149143  13.109   6.492   7.230
82437SOL    HW249144  13.252   6.482   7.280
82438SOL     OW49145  13.417  11.668   3.470
82438SOL    HW149146  13.446  11.759   3.460
82438SOL    HW249147  13.372  11.648   3.388
82439SOL     OW49148   3.815   5.993   1.460
82439SOL    HW149149   3.801   6.057   1.390
82439SOL    HW249150   3.898   5.951   1.436
82440SOL     OW49151   6.999   7.162   7.490
82440SOL    HW149152   7.002   7.193   7.580
82440SOL    HW249153   6.966   7.073   7.497
82441SOL     OW49154  13.681  12.577  14.394
82441SOL    HW149155  13.700  12.495  14.349
82441SOL    HW249156  13.736  12.642  14.350
82442SOL     OW49157   2.647   4.883  13.212
82442SOL    HW149158   2.686   4.879  13.125
82442SOL    HW249159   2.702   4.944  13.260
82443SOL     OW49160   4.040  13.371   5.121
82443SOL    HW149161   4.076  13.331   5.199
82443SOL    HW249162   3.994  13.300   5.076
82444SOL     OW49163   9.680   3.424   9.647
82444SOL    HW149164   9.651   3.336   9.623
82444SOL    HW249165   9.610   3.458   9.704
82445SOL     OW49166   6.590   6.096  11.141
82445SOL    HW149167   6.664   6.107  11.201
82445SOL    HW249168   6.607   6.158  11.070
82446SOL     OW49169   4.149   2.941   4.902
82446SOL    HW149170   4.073   2.993   4.877
82446SOL    HW249171   4.113   2.859   4.935
82447SOL     OW49172   2.738  11.915   4.148
82447SOL    HW149173   2.714  11.884   4.060
82447SOL    HW249174   2.817  11.966   4.134
82448SOL     OW49175   9.453   6.978  10.244
82448SOL    HW149176   9.524   7.041  10.257
82448SOL    HW249177   9.486   6.897  10.283
82449SOL     OW49178  11.780   9.986   0.261
82449SOL    HW149179  11.748   9.939   0.184
82449SOL    HW249180  11.765  10.078   0.240
82450SOL     OW49181  11.740  12.227   3.093
82450SOL    HW149182  11.688  12.184   3.161
82450SOL    HW249183  11.678  12.243   3.022
82451SOL     OW49184   9.368   9.151   3.353
82451SOL    HW149185   9.437   9.129   3.291
82451SOL    HW249186   9.415   9.179   3.432
82452SOL     OW49187   0.151  14.075   6.840
82452SOL    HW149188   0.113  14.163   6.843
82452SOL    HW249189   0.148  14.044   6.930
82453SOL     OW49190  13.395   5.066   7.102
82453SOL    HW149191  13.362   5.127   7.168
82453SOL    HW249192  13.397   4.981   7.146
82454SOL     OW49193   0.625   1.831   9.625
82454SOL    HW149194   0.636   1.870   9.712
82454SOL    HW249195   0.686   1.756   9.625
82455SOL     OW49196   6.838  13.436  12.637
82455SOL    HW149197   6.916  13.414  12.689
82455SOL    HW249198   6.793  13.352  12.625
82456SOL     OW49199   6.711   2.800   6.819
82456SOL    HW149200   6.621   2.769   6.833
82456SOL    HW249201   6.713   2.829   6.728
82457SOL     OW49202   8.380   7.718   3.113
82457SOL    HW149203   8.466   7.740   3.149
82457SOL    HW249204   8.387   7.739   3.020
82458SOL     OW49205   5.119   1.750   7.155
82458SOL    HW149206   5.054   1.762   7.086
82458SOL    HW249207   5.115   1.832   7.206
82459SOL     OW49208  14.088  12.676   2.650
82459SOL    HW149209  14.059  12.739   2.583
82459SOL    HW249210  14.164  12.633   2.610
82460SOL     OW49211   8.010   9.364   6.540
82460SOL    HW149212   8.047   9.297   6.597
82460SOL    HW249213   7.982   9.316   6.462
82461SOL     OW49214  12.778   5.087   2.189
82461SOL    HW149215  12.695   5.088   2.237
82461SOL    HW249216  12.757   5.123   2.103
82462SOL     OW49217  10.546   4.911  11.051
82462SOL    HW149218  10.605   4.838  11.072
82462SOL    HW249219  10.506   4.934  11.135
82463SOL     OW49220   2.388   9.760  12.810
82463SOL    HW149221   2.304   9.717  12.797
82463SOL    HW249222   2.412   9.791  12.722
82464SOL     OW49223   0.547   4.138   1.323
82464SOL    HW149224   0.531   4.231   1.336
82464SOL    HW249225   0.524   4.122   1.232
82465SOL     OW49226  11.768   6.953   7.485
82465SOL    HW149227  11.852   6.915   7.459
82465SOL    HW249228  11.777   7.046   7.466
82466SOL     OW49229   5.982   6.243   3.113
82466SOL    HW149230   5.972   6.264   3.020
82466SOL    HW249231   5.917   6.298   3.157
82467SOL     OW49232  12.819   7.229   8.359
82467SOL    HW149233  12.795   7.193   8.274
82467SOL    HW249234  12.750   7.200   8.418
82468SOL     OW49235   5.028   5.264   9.901
82468SOL    HW149236   5.059   5.293   9.816
82468SOL    HW249237   4.986   5.180   9.884
82469SOL     OW49238   2.460  14.105  14.379
82469SOL    HW149239   2.376  14.111  14.334
82469SOL    HW249240   2.465  14.186  14.430
82470SOL     OW49241   5.185   8.904   3.892
82470SOL    HW149242   5.213   8.813   3.903
82470SOL    HW249243   5.187   8.941   3.980
82471SOL     OW49244   0.775  12.229   0.376
82471SOL    HW149245   0.843  12.211   0.312
82471SOL    HW249246   0.705  12.166   0.354
82472SOL     OW49247  13.047   3.009  11.846
82472SOL    HW149248  12.963   2.976  11.814
82472SOL    HW249249  13.063   3.089  11.796
82473SOL     OW49250   2.880  13.798   7.061
82473SOL    HW149251   2.876  13.706   7.037
82473SOL    HW249252   2.839  13.844   6.988
82474SOL     OW49253   6.799   6.431  11.967
82474SOL    HW149254   6.825   6.471  11.884
82474SOL    HW249255   6.787   6.338  11.946
82475SOL     OW49256  13.384   1.687  14.721
82475SOL    HW149257  13.477   1.673  14.734
82475SOL    HW249258  13.367   1.775  14.757
82476SOL     OW49259  13.357  14.668   6.119
82476SOL    HW149260  13.269  14.638   6.094
82476SOL    HW249261  13.378  14.616   6.197
82477SOL     OW49262   0.620   1.354   1.424
82477SOL    HW149263   0.682   1.403   1.369
82477SOL    HW249264   0.656   1.362   1.513
82478SOL     OW49265   9.668   1.167   9.789
82478SOL    HW149266   9.739   1.151   9.728
82478SOL    HW249267   9.702   1.139   9.874
82479SOL     OW49268   9.364   2.912  13.538
82479SOL    HW149269   9.278   2.890  13.575
82479SOL    HW249270   9.361   3.007  13.525
82480SOL     OW49271  11.043  10.105  11.072
82480SOL    HW149272  10.992  10.117  11.153
82480SOL    HW249273  11.018  10.179  11.017
82481SOL     OW49274  12.034  14.389   0.778
82481SOL    HW149275  12.023  14.336   0.699
82481SOL    HW249276  12.117  14.358   0.816
82482SOL     OW49277  11.927  10.001   1.780
82482SOL    HW149278  11.873   9.927   1.754
82482SOL    HW249279  11.866  10.074   1.790
82483SOL     OW49280   1.837   2.993  12.257
82483SOL    HW149281   1.839   3.079  12.300
82483SOL    HW249282   1.923   2.955  12.273
82484SOL     OW49283  10.817   0.591   7.359
82484SOL    HW149284  10.818   0.680   7.395
82484SOL    HW249285  10.748   0.546   7.408
82485SOL     OW49286   3.331   1.989   5.469
82485SOL    HW149287   3.235   1.982   5.477
82485SOL    HW249288   3.357   1.915   5.415
82486SOL     OW49289   8.574   9.942   3.213
82486SOL    HW149290   8.542   9.895   3.136
82486SOL    HW249291   8.554   9.883   3.286
82487SOL     OW49292   3.039   4.460  12.725
82487SOL    HW149293   3.082   4.539  12.693
82487SOL    HW249294   3.072   4.390  12.669
82488SOL     OW49295  12.517  13.143  10.495
82488SOL    HW149296  12.574  13.211  10.461
82488SOL    HW249297  12.483  13.179  10.577
82489SOL     OW49298   6.364  13.974   2.197
82489SOL    HW149299   6.385  14.039   2.130
82489SOL    HW249300   6.375  13.890   2.153
82490SOL     OW49301   5.182   8.895   4.408
82490SOL    HW149302   5.241   8.820   4.405
82490SOL    HW249303   5.107   8.865   4.460
82491SOL     OW49304   9.628   8.037   4.924
82491SOL    HW149305   9.630   7.952   4.879
82491SOL    HW249306   9.716   8.046   4.962
82492SOL     OW49307  14.245   0.417  11.758
82492SOL    HW149308  14.250   0.323  11.746
82492SOL    HW249309  14.161   0.443  11.720
82493SOL     OW49310   8.544   6.109   9.149
82493SOL    HW149311   8.475   6.094   9.085
82493SOL    HW249312   8.555   6.205   9.150
82494SOL     OW49313  10.138   5.901  13.893
82494SOL    HW149314  10.227   5.901  13.859
82494SOL    HW249315  10.084   5.930  13.819
82495SOL     OW49316  11.691  13.250   8.682
82495SOL    HW149317  11.751  13.221   8.613
82495SOL    HW249318  11.686  13.176   8.742
82496SOL     OW49319   9.030  11.045   7.959
82496SOL    HW149320   9.081  11.008   7.887
82496SOL    HW249321   9.057  11.137   7.962
82497SOL     OW49322   5.130  12.731   4.265
82497SOL    HW149323   5.091  12.791   4.328
82497SOL    HW249324   5.197  12.783   4.221
82498SOL     OW49325   1.278   2.747   4.680
82498SOL    HW149326   1.255   2.782   4.766
82498SOL    HW249327   1.372   2.729   4.686
82499SOL     OW49328   1.079   0.459   8.498
82499SOL    HW149329   0.994   0.490   8.466
82499SOL    HW249330   1.136   0.459   8.421
82500SOL     OW49331   6.661   9.595   3.422
82500SOL    HW149332   6.652   9.670   3.362
82500SOL    HW249333   6.610   9.526   3.381
82501SOL     OW49334  11.529  14.047   1.920
82501SOL    HW149335  11.498  13.987   1.853
82501SOL    HW249336  11.518  14.134   1.881
82502SOL     OW49337  12.310   0.890   6.256
82502SOL    HW149338  12.376   0.947   6.294
82502SOL    HW249339  12.338   0.878   6.165
82503SOL     OW49340   4.589   5.091   7.773
82503SOL    HW149341   4.525   5.162   7.777
82503SOL    HW249342   4.674   5.134   7.787
82504SOL     OW49343   7.923   7.924   6.769
82504SOL    HW149344   7.892   7.837   6.746
82504SOL    HW249345   7.843   7.977   6.775
82505SOL     OW49346   2.257   0.502   2.452
82505SOL    HW149347   2.182   0.445   2.433
82505SOL    HW249348   2.322   0.478   2.386
82506SOL     OW49349   0.858  14.156   2.441
82506SOL    HW149350   0.915  14.232   2.449
82506SOL    HW249351   0.917  14.082   2.427
82507SOL     OW49352   4.664  11.720   2.686
82507SOL    HW149353   4.574  11.693   2.705
82507SOL    HW249354   4.659  11.763   2.601
82508SOL     OW49355  11.163   2.777   3.736
82508SOL    HW149356  11.116   2.753   3.816
82508SOL    HW249357  11.209   2.857   3.758
82509SOL     OW49358  12.663  12.725   7.346
82509SOL    HW149359  12.727  12.748   7.278
82509SOL    HW249360  12.685  12.635   7.370
82510SOL     OW49361   9.547  10.904  12.781
82510SOL    HW149362   9.614  10.945  12.835
82510SOL    HW249363   9.499  10.847  12.840
82511SOL     OW49364  10.588   2.495   2.535
82511SOL    HW149365  10.637   2.540   2.466
82511SOL    HW249366  10.501   2.534   2.532
82512SOL     OW49367   8.778   7.593   5.504
82512SOL    HW149368   8.835   7.668   5.488
82512SOL    HW249369   8.755   7.600   5.596
82513SOL     OW49370   1.210   4.369   3.640
82513SOL    HW149371   1.180   4.351   3.729
82513SOL    HW249372   1.302   4.343   3.641
82514SOL     OW49373   3.624  13.339   2.002
82514SOL    HW149374   3.578  13.353   1.919
82514SOL    HW249375   3.651  13.247   1.999
82515SOL     OW49376   1.616   2.442   9.207
82515SOL    HW149377   1.670   2.373   9.246
82515SOL    HW249378   1.530   2.432   9.247
82516SOL     OW49379   4.073   4.755   1.403
82516SOL    HW149380   4.060   4.719   1.491
82516SOL    HW249381   3.990   4.796   1.381
82517SOL     OW49382  13.986  11.435   6.106
82517SOL    HW149383  13.933  11.356   6.092
82517SOL    HW249384  14.027  11.422   6.192
82518SOL     OW49385   5.540   9.836  10.496
82518SOL    HW149386   5.532   9.828  10.591
82518SOL    HW249387   5.451   9.856  10.466
82519SOL     OW49388   0.387   1.406  11.742
82519SOL    HW149389   0.359   1.316  11.725
82519SOL    HW249390   0.380   1.415  11.837
82520SOL     OW49391   9.789  12.896   9.904
82520SOL    HW149392   9.759  12.969   9.849
82520SOL    HW249393   9.845  12.844   9.847
82521SOL     OW49394   2.214   2.636  13.807
82521SOL    HW149395   2.169   2.553  13.790
82521SOL    HW249396   2.290   2.634  13.749
82522SOL     OW49397   2.347   9.821  11.647
82522SOL    HW149398   2.365   9.873  11.725
82522SOL    HW249399   2.317   9.885  11.582
82523SOL     OW49400   7.766   9.365   3.776
82523SOL    HW149401   7.724   9.279   3.777
82523SOL    HW249402   7.847   9.354   3.825
82524SOL     OW49403   5.328   1.127  10.729
82524SOL    HW149404   5.254   1.140  10.788
82524SOL    HW249405   5.292   1.076  10.656
82525SOL     OW49406   8.951   4.437   0.934
82525SOL    HW149407   8.891   4.511   0.933
82525SOL    HW249408   8.978   4.426   0.843
82526SOL     OW49409   9.712   1.472   8.295
82526SOL    HW149410   9.617   1.478   8.284
82526SOL    HW249411   9.746   1.460   8.206
82527SOL     OW49412   3.547   1.536  11.278
82527SOL    HW149413   3.479   1.597  11.250
82527SOL    HW249414   3.501   1.454  11.296
82528SOL     OW49415   3.748   8.448   1.118
82528SOL    HW149416   3.717   8.388   1.051
82528SOL    HW249417   3.714   8.533   1.092
82529SOL     OW49418  12.988  12.561  11.009
82529SOL    HW149419  13.078  12.551  11.041
82529SOL    HW249420  12.998  12.572  10.915
82530SOL     OW49421   5.167   5.706   4.000
82530SOL    HW149422   5.205   5.715   4.088
82530SOL    HW249423   5.239   5.729   3.941
82531SOL     OW49424   5.524  10.132   6.022
82531SOL    HW149425   5.556  10.197   5.959
82531SOL    HW249426   5.431  10.124   6.003
82532SOL     OW49427   4.190  10.717  14.599
82532SOL    HW149428   4.284  10.707  14.612
82532SOL    HW249429   4.170  10.668  14.519
82533SOL     OW49430   7.363   2.684   3.490
82533SOL    HW149431   7.456   2.680   3.509
82533SOL    HW249432   7.357   2.733   3.408
82534SOL     OW49433  12.466   5.106   4.081
82534SOL    HW149434  12.531   5.047   4.042
82534SOL    HW249435  12.454   5.174   4.015
82535SOL     OW49436   6.884   4.077   2.587
82535SOL    HW149437   6.858   3.991   2.554
82535SOL    HW249438   6.801   4.125   2.595
82536SOL     OW49439   1.919   2.703   5.589
82536SOL    HW149440   2.008   2.721   5.560
82536SOL    HW249441   1.865   2.723   5.512
82537SOL     OW49442   0.753  14.206  11.465
82537SOL    HW149443   0.715  14.123  11.495
82537SOL    HW249444   0.793  14.244  11.543
82538SOL     OW49445   1.671   0.425  13.436
82538SOL    HW149446   1.738   0.367  13.399
82538SOL    HW249447   1.588   0.382  13.414
82539SOL     OW49448   9.255   8.775   3.042
82539SOL    HW149449   9.338   8.745   3.004
82539SOL    HW249450   9.206   8.694   3.059
82540SOL     OW49451   8.844   0.552   6.364
82540SOL    HW149452   8.884   0.635   6.390
82540SOL    HW249453   8.872   0.540   6.273
82541SOL     OW49454   8.914  10.792   0.550
82541SOL    HW149455   8.984  10.761   0.492
82541SOL    HW249456   8.903  10.722   0.615
82542SOL     OW49457   3.642   8.428   4.821
82542SOL    HW149458   3.623   8.522   4.812
82542SOL    HW249459   3.597   8.402   4.902
82543SOL     OW49460   3.022   7.044   2.433
82543SOL    HW149461   3.003   7.009   2.346
82543SOL    HW249462   2.946   7.019   2.486
82544SOL     OW49463   3.502   0.424   1.442
82544SOL    HW149464   3.483   0.442   1.350
82544SOL    HW249465   3.512   0.329   1.447
82545SOL     OW49466   5.631  13.959   8.679
82545SOL    HW149467   5.535  13.956   8.676
82545SOL    HW249468   5.653  14.051   8.670
82546SOL     OW49469  14.819   9.405   2.641
82546SOL    HW149470   0.004   9.468   2.603
82546SOL    HW249471  14.739   9.456   2.658
82547SOL     OW49472   5.559   4.475  13.913
82547SOL    HW149473   5.499   4.440  13.979
82547SOL    HW249474   5.505   4.490  13.836
82548SOL     OW49475  11.095  13.155  14.598
82548SOL    HW149476  11.165  13.098  14.566
82548SOL    HW249477  11.138  13.208  14.666
82549SOL     OW49478   5.647   5.920   1.651
82549SOL    HW149479   5.642   5.845   1.591
82549SOL    HW249480   5.707   5.893   1.720
82550SOL     OW49481   5.207   1.747   2.996
82550SOL    HW149482   5.131   1.796   2.964
82550SOL    HW249483   5.216   1.675   2.934
82551SOL     OW49484   8.624   3.597  10.895
82551SOL    HW149485   8.618   3.657  10.821
82551SOL    HW249486   8.539   3.554  10.899
82552SOL     OW49487   1.556   9.035   5.037
82552SOL    HW149488   1.521   8.952   5.005
82552SOL    HW249489   1.559   9.091   4.960
82553SOL     OW49490  13.044   8.166  12.810
82553SOL    HW149491  13.061   8.111  12.733
82553SOL    HW249492  13.086   8.250  12.789
82554SOL     OW49493   9.396   4.561  11.382
82554SOL    HW149494   9.403   4.488  11.320
82554SOL    HW249495   9.316   4.607  11.355
82555SOL     OW49496   3.065   8.212   7.603
82555SOL    HW149497   3.075   8.217   7.698
82555SOL    HW249498   3.064   8.118   7.584
82556SOL     OW49499  11.529   1.983   8.407
82556SOL    HW149500  11.512   2.000   8.315
82556SOL    HW249501  11.516   2.068   8.450
82557SOL     OW49502   6.048  10.146  12.400
82557SOL    HW149503   6.033  10.108  12.486
82557SOL    HW249504   5.992  10.096  12.341
82558SOL     OW49505   7.913   9.487  12.049
82558SOL    HW149506   7.897   9.546  12.122
82558SOL    HW249507   7.836   9.496  11.993
82559SOL     OW49508  14.857   6.443   1.916
82559SOL    HW149509   0.039   6.407   1.848
82559SOL    HW249510  14.785   6.482   1.867
82560SOL     OW49511   2.610  14.162   7.576
82560SOL    HW149512   2.684  14.153   7.637
82560SOL    HW249513   2.632  14.240   7.525
82561SOL     OW49514  11.064   3.390   2.843
82561SOL    HW149515  11.059   3.387   2.747
82561SOL    HW249516  11.153   3.360   2.863
82562SOL     OW49517  14.419   4.551   0.463
82562SOL    HW149518  14.340   4.526   0.510
82562SOL    HW249519  14.459   4.620   0.517
82563SOL     OW49520   3.769   2.472   1.454
82563SOL    HW149521   3.763   2.567   1.452
82563SOL    HW249522   3.679   2.443   1.470
82564SOL     OW49523   3.694   7.092   5.813
82564SOL    HW149524   3.738   7.053   5.737
82564SOL    HW249525   3.706   7.186   5.802
82565SOL     OW49526   9.605  14.322  13.431
82565SOL    HW149527   9.688  14.351  13.394
82565SOL    HW249528   9.569  14.261  13.367
82566SOL     OW49529  12.133   9.651   6.531
82566SOL    HW149530  12.067   9.584   6.516
82566SOL    HW249531  12.088   9.733   6.510
82567SOL     OW49532   8.708   9.370   9.134
82567SOL    HW149533   8.798   9.346   9.111
82567SOL    HW249534   8.716   9.410   9.220
82568SOL     OW49535  10.406   5.162   3.710
82568SOL    HW149536  10.467   5.185   3.780
82568SOL    HW249537  10.395   5.242   3.660
82569SOL     OW49538   8.385   8.805  10.135
82569SOL    HW149539   8.438   8.826  10.058
82569SOL    HW249540   8.298   8.786  10.100
82570SOL     OW49541   4.636  13.945  12.048
82570SOL    HW149542   4.601  13.861  12.019
82570SOL    HW249543   4.717  13.956  11.998
82571SOL     OW49544   2.446   8.919   6.283
82571SOL    HW149545   2.538   8.940   6.299
82571SOL    HW249546   2.412   8.894   6.369
82572SOL     OW49547   9.867   6.554  11.024
82572SOL    HW149548   9.882   6.472  11.071
82572SOL    HW249549   9.879   6.531  10.932
82573SOL     OW49550  12.749   4.155   4.289
82573SOL    HW149551  12.738   4.249   4.303
82573SOL    HW249552  12.835   4.146   4.249
82574SOL     OW49553  14.863   8.218  11.895
82574SOL    HW149554  14.787   8.160  11.894
82574SOL    HW249555  14.846   8.277  11.969
82575SOL     OW49556  11.901   9.687   6.068
82575SOL    HW149557  11.887   9.629   5.993
82575SOL    HW249558  11.814   9.722   6.088
82576SOL     OW49559   0.081   3.972  14.035
82576SOL    HW149560   0.054   4.043  13.977
82576SOL    HW249561   0.162   3.938  13.996
82577SOL     OW49562  11.105   1.015   3.565
82577SOL    HW149563  11.119   1.069   3.642
82577SOL    HW249564  11.187   0.966   3.554
82578SOL     OW49565   3.734   4.931   3.022
82578SOL    HW149566   3.767   4.862   3.080
82578SOL    HW249567   3.812   4.974   2.989
82579SOL     OW49568   7.176   3.600  14.683
82579SOL    HW149569   7.117   3.565  14.616
82579SOL    HW249570   7.152   3.692  14.690
82580SOL     OW49571   5.953  13.313   3.973
82580SOL    HW149572   5.877  13.322   4.031
82580SOL    HW249573   5.924  13.251   3.906
82581SOL     OW49574   5.317   4.412   1.175
82581SOL    HW149575   5.265   4.344   1.218
82581SOL    HW249576   5.285   4.413   1.085
82582SOL     OW49577   9.301  13.836  11.018
82582SOL    HW149578   9.395  13.824  11.006
82582SOL    HW249579   9.289  13.930  11.027
82583SOL     OW49580  13.806  12.525   6.571
82583SOL    HW149581  13.810  12.507   6.477
82583SOL    HW249582  13.736  12.467   6.603
82584SOL     OW49583   5.339  14.150   4.736
82584SOL    HW149584   5.375  14.194   4.813
82584SOL    HW249585   5.401  14.081   4.716
82585SOL     OW49586   8.798   9.349  12.654
82585SOL    HW149587   8.748   9.333  12.734
82585SOL    HW249588   8.831   9.263  12.628
82586SOL     OW49589  12.655  12.026   9.632
82586SOL    HW149590  12.668  11.931   9.629
82586SOL    HW249591  12.589  12.039   9.700
82587SOL     OW49592   7.296  14.721  13.412
82587SOL    HW149593   7.385  14.740  13.442
82587SOL    HW249594   7.244  14.795  13.442
82588SOL     OW49595   3.436  12.548  12.839
82588SOL    HW149596   3.395  12.506  12.915
82588SOL    HW249597   3.529  12.553  12.863
82589SOL     OW49598   6.841  10.468  11.897
82589SOL    HW149599   6.786  10.539  11.931
82589SOL    HW249600   6.799  10.388  11.927
82590SOL     OW49601   4.257  10.490   1.054
82590SOL    HW149602   4.313  10.568   1.055
82590SOL    HW249603   4.213  10.491   1.139
82591SOL     OW49604  10.272   6.296   8.705
82591SOL    HW149605  10.295   6.385   8.681
82591SOL    HW249606  10.193   6.305   8.759
82592SOL     OW49607  14.222  12.501   5.878
82592SOL    HW149608  14.267  12.500   5.962
82592SOL    HW249609  14.289  12.528   5.815
82593SOL     OW49610   8.790  10.154   9.926
82593SOL    HW149611   8.789  10.172  10.020
82593SOL    HW249612   8.807  10.240   9.886
82594SOL     OW49613   5.878  12.781  13.975
82594SOL    HW149614   5.898  12.875  13.977
82594SOL    HW249615   5.888  12.756  13.883
82595SOL     OW49616   7.787  12.828  10.746
82595SOL    HW149617   7.777  12.771  10.670
82595SOL    HW249618   7.851  12.784  10.802
82596SOL     OW49619   3.998   7.673   5.948
82596SOL    HW149620   3.909   7.641   5.932
82596SOL    HW249621   4.043   7.600   5.990
82597SOL     OW49622   9.030   2.698   5.752
82597SOL    HW149623   9.081   2.628   5.712
82597SOL    HW249624   9.073   2.779   5.725
82598SOL     OW49625  13.806   2.154   2.964
82598SOL    HW149626  13.896   2.126   2.981
82598SOL    HW249627  13.812   2.204   2.882
82599SOL     OW49628   1.249   3.067   1.260
82599SOL    HW149629   1.253   3.128   1.187
82599SOL    HW249630   1.172   3.095   1.310
82600SOL     OW49631  12.577   3.887   4.959
82600SOL    HW149632  12.616   3.896   4.872
82600SOL    HW249633  12.567   3.977   4.990
82601SOL     OW49634   1.660   1.312   8.102
82601SOL    HW149635   1.729   1.272   8.155
82601SOL    HW249636   1.643   1.247   8.033
82602SOL     OW49637  11.685  13.972   2.139
82602SOL    HW149638  11.617  13.996   2.077
82602SOL    HW249639  11.766  13.971   2.087
82603SOL     OW49640   0.186   5.579   9.851
82603SOL    HW149641   0.220   5.668   9.864
82603SOL    HW249642   0.178   5.543   9.939
82604SOL     OW49643  13.006   6.110  10.174
82604SOL    HW149644  13.052   6.111  10.257
82604SOL    HW249645  12.988   6.202  10.155
82605SOL     OW49646  10.198   8.001  13.197
82605SOL    HW149647  10.153   8.046  13.269
82605SOL    HW249648  10.202   7.910  13.224
82606SOL     OW49649   4.567   2.982  14.250
82606SOL    HW149650   4.523   2.981  14.164
82606SOL    HW249651   4.659   2.967  14.230
82607SOL     OW49652   7.993   7.575   2.352
82607SOL    HW149653   7.979   7.480   2.347
82607SOL    HW249654   8.030   7.598   2.267
82608SOL     OW49655   4.515   3.546  10.404
82608SOL    HW149656   4.457   3.529  10.330
82608SOL    HW249657   4.508   3.468  10.459
82609SOL     OW49658   9.083   5.523   3.806
82609SOL    HW149659   9.056   5.615   3.818
82609SOL    HW249660   9.166   5.528   3.760
82610SOL     OW49661   6.267   8.599   1.736
82610SOL    HW149662   6.321   8.602   1.657
82610SOL    HW249663   6.177   8.600   1.704
82611SOL     OW49664   4.613   0.597   2.095
82611SOL    HW149665   4.691   0.645   2.068
82611SOL    HW249666   4.546   0.623   2.032
82612SOL     OW49667  13.719   3.582   2.217
82612SOL    HW149668  13.784   3.627   2.163
82612SOL    HW249669  13.698   3.502   2.168
82613SOL     OW49670  11.305  14.123  10.639
82613SOL    HW149671  11.366  14.193  10.613
82613SOL    HW249672  11.349  14.042  10.611
82614SOL     OW49673   0.443   6.782   0.661
82614SOL    HW149674   0.420   6.767   0.569
82614SOL    HW249675   0.509   6.850   0.658
82615SOL     OW49676   1.861  13.399  10.049
82615SOL    HW149677   1.807  13.415   9.971
82615SOL    HW249678   1.834  13.466  10.111
82616SOL     OW49679   5.546  10.821   1.340
82616SOL    HW149680   5.614  10.766   1.302
82616SOL    HW249681   5.575  10.911   1.322
82617SOL     OW49682   8.393   3.023   4.523
82617SOL    HW149683   8.468   2.969   4.548
82617SOL    HW249684   8.408   3.042   4.430
82618SOL     OW49685   2.653   7.512   5.890
82618SOL    HW149686   2.577   7.552   5.848
82618SOL    HW249687   2.625   7.495   5.980
82619SOL     OW49688   7.109  12.875   3.790
82619SOL    HW149689   7.039  12.907   3.733
82619SOL    HW249690   7.180  12.850   3.730
82620SOL     OW49691  13.936   6.391   6.879
82620SOL    HW149692  13.919   6.316   6.823
82620SOL    HW249693  13.856   6.401   6.931
82621SOL     OW49694   0.991   6.619   7.421
82621SOL    HW149695   0.920   6.588   7.364
82621SOL    HW249696   0.984   6.715   7.418
82622SOL     OW49697   6.138  13.535   3.593
82622SOL    HW149698   6.053  13.567   3.625
82622SOL    HW249699   6.116  13.482   3.516
82623SOL     OW49700   4.121   3.495   6.507
82623SOL    HW149701   4.203   3.535   6.539
82623SOL    HW249702   4.052   3.542   6.553
82624SOL     OW49703   9.997   7.686  12.411
82624SOL    HW149704  10.058   7.752  12.443
82624SOL    HW249705   9.977   7.714  12.321
82625SOL     OW49706   5.030   8.289   0.174
82625SOL    HW149707   5.040   8.207   0.223
82625SOL    HW249708   5.111   8.296   0.123
82626SOL     OW49709   6.956   1.288   6.884
82626SOL    HW149710   6.891   1.237   6.835
82626SOL    HW249711   6.915   1.375   6.893
82627SOL     OW49712  13.259  10.251   7.846
82627SOL    HW149713  13.307  10.185   7.796
82627SOL    HW249714  13.192  10.201   7.893
82628SOL     OW49715   1.617  11.473   8.452
82628SOL    HW149716   1.595  11.474   8.358
82628SOL    HW249717   1.712  11.485   8.454
82629SOL     OW49718   0.876   1.266   1.880
82629SOL    HW149719   0.935   1.195   1.855
82629SOL    HW249720   0.883   1.271   1.975
82630SOL     OW49721   5.392   2.683   0.637
82630SOL    HW149722   5.483   2.707   0.622
82630SOL    HW249723   5.356   2.668   0.550
82631SOL     OW49724   9.647   6.724   5.672
82631SOL    HW149725   9.689   6.639   5.688
82631SOL    HW249726   9.605   6.746   5.755
82632SOL     OW49727  13.642   3.697   4.221
82632SOL    HW149728  13.563   3.719   4.271
82632SOL    HW249729  13.624   3.609   4.186
82633SOL     OW49730   0.185   3.145  11.552
82633SOL    HW149731   0.130   3.084  11.600
82633SOL    HW249732   0.194   3.220  11.611
82634SOL     OW49733   6.935   8.490   2.053
82634SOL    HW149734   6.972   8.549   1.988
82634SOL    HW249735   6.851   8.463   2.015
82635SOL     OW49736   6.538   2.241  11.013
82635SOL    HW149737   6.534   2.166  10.953
82635SOL    HW249738   6.490   2.213  11.090
82636SOL     OW49739  10.787   1.921   8.019
82636SOL    HW149740  10.717   1.893   8.078
82636SOL    HW249741  10.862   1.937   8.076
82637SOL     OW49742   1.471   2.621   4.116
82637SOL    HW149743   1.512   2.536   4.133
82637SOL    HW249744   1.394   2.622   4.172
82638SOL     OW49745   3.331   1.818  10.082
82638SOL    HW149746   3.291   1.733  10.101
82638SOL    HW249747   3.423   1.808  10.108
82639SOL     OW49748  12.629   9.495   3.469
82639SOL    HW149749  12.709   9.502   3.416
82639SOL    HW249750  12.563   9.461   3.410
82640SOL     OW49751   3.003   1.788   5.993
82640SOL    HW149752   2.945   1.716   6.018
82640SOL    HW249753   2.945   1.857   5.962
82641SOL     OW49754   0.636  14.301  12.847
82641SOL    HW149755   0.689  14.318  12.925
82641SOL    HW249756   0.615  14.208  12.852
82642SOL     OW49757   7.875  12.008   5.878
82642SOL    HW149758   7.954  11.970   5.839
82642SOL    HW249759   7.876  12.100   5.851
82643SOL     OW49760   5.461   6.250   7.295
82643SOL    HW149761   5.543   6.202   7.283
82643SOL    HW249762   5.460   6.271   7.389
82644SOL     OW49763   4.369   1.784   5.908
82644SOL    HW149764   4.303   1.751   5.847
82644SOL    HW249765   4.322   1.796   5.990
82645SOL     OW49766  12.852   0.789  10.233
82645SOL    HW149767  12.839   0.884  10.231
82645SOL    HW249768  12.900   0.774  10.314
82646SOL     OW49769  14.061  10.119   9.684
82646SOL    HW149770  14.143  10.162   9.662
82646SOL    HW249771  14.077  10.026   9.666
82647SOL     OW49772   6.521   4.324  13.743
82647SOL    HW149773   6.441   4.289  13.782
82647SOL    HW249774   6.517   4.296  13.652
82648SOL     OW49775  10.525   3.516  12.445
82648SOL    HW149776  10.438   3.524  12.484
82648SOL    HW249777  10.578   3.579  12.493
82649SOL     OW49778   0.833  14.827   5.289
82649SOL    HW149779   0.837  14.870   5.203
82649SOL    HW249780   0.761  14.870   5.334
82650SOL     OW49781  14.268  13.117   5.982
82650SOL    HW149782  14.356  13.129   5.947
82650SOL    HW249783  14.258  13.186   6.048
82651SOL     OW49784  12.017  11.837   6.692
82651SOL    HW149785  11.957  11.762   6.687
82651SOL    HW249786  12.084  11.818   6.627
82652SOL     OW49787   1.188   7.670  11.672
82652SOL    HW149788   1.174   7.575  11.662
82652SOL    HW249789   1.119   7.710  11.619
82653SOL     OW49790  11.110   1.163   7.567
82653SOL    HW149791  11.205   1.162   7.553
82653SOL    HW249792  11.100   1.177   7.661
82654SOL     OW49793  12.021   1.386   0.067
82654SOL    HW149794  12.071   1.420   0.141
82654SOL    HW249795  11.930   1.393   0.093
82655SOL     OW49796  14.082   5.658   0.309
82655SOL    HW149797  14.088   5.569   0.275
82655SOL    HW249798  14.029   5.704   0.244
82656SOL     OW49799   6.255  12.088   1.704
82656SOL    HW149800   6.160  12.100   1.708
82656SOL    HW249801   6.291  12.177   1.705
82657SOL     OW49802  10.656   4.410   2.957
82657SOL    HW149803  10.592   4.391   2.889
82657SOL    HW249804  10.726   4.457   2.911
82658SOL     OW49805   7.765   4.251   9.439
82658SOL    HW149806   7.705   4.208   9.379
82658SOL    HW249807   7.845   4.264   9.387
82659SOL     OW49808   8.039   6.760   0.712
82659SOL    HW149809   8.094   6.693   0.753
82659SOL    HW249810   8.073   6.767   0.622
82660SOL     OW49811   6.460  13.571   3.351
82660SOL    HW149812   6.536  13.514   3.366
82660SOL    HW249813   6.460  13.630   3.426
82661SOL     OW49814   1.160   9.563   5.837
82661SOL    HW149815   1.157   9.593   5.928
82661SOL    HW249816   1.181   9.642   5.787
82662SOL     OW49817  11.468   0.746  13.278
82662SOL    HW149818  11.473   0.656  13.310
82662SOL    HW249819  11.495   0.799  13.353
82663SOL     OW49820   1.082   3.529  14.402
82663SOL    HW149821   1.007   3.582  14.429
82663SOL    HW249822   1.043   3.452  14.360
82664SOL     OW49823   4.536  10.121   6.132
82664SOL    HW149824   4.503  10.086   6.214
82664SOL    HW249825   4.630  10.100   6.132
82665SOL     OW49826   1.084  13.850   1.051
82665SOL    HW149827   1.114  13.935   1.083
82665SOL    HW249828   1.068  13.798   1.130
82666SOL     OW49829   1.365   3.609   5.465
82666SOL    HW149830   1.453   3.572   5.470
82666SOL    HW249831   1.370   3.689   5.518
82667SOL     OW49832   1.346   2.137  11.786
82667SOL    HW149833   1.291   2.110  11.860
82667SOL    HW249834   1.356   2.232  11.797
82668SOL     OW49835   3.779  14.344  10.751
82668SOL    HW149836   3.855  14.372  10.802
82668SOL    HW249837   3.762  14.415  10.690
82669SOL     OW49838   8.793  11.035   6.062
82669SOL    HW149839   8.851  11.064   5.992
82669SOL    HW249840   8.794  10.940   6.057
82670SOL     OW49841  13.316  14.809  12.715
82670SOL    HW149842  13.316  14.721  12.753
82670SOL    HW249843  13.242  14.853  12.758
82671SOL     OW49844   8.517   0.148   1.462
82671SOL    HW149845   8.480   0.187   1.541
82671SOL    HW249846   8.504   0.215   1.394
82672SOL     OW49847  10.974   0.206   8.028
82672SOL    HW149848  10.983   0.203   8.123
82672SOL    HW249849  10.884   0.232   8.013
82673SOL     OW49850   6.521   1.339   5.917
82673SOL    HW149851   6.614   1.343   5.894
82673SOL    HW249852   6.504   1.246   5.932
82674SOL     OW49853   3.582   0.887   1.985
82674SOL    HW149854   3.548   0.931   1.907
82674SOL    HW249855   3.544   0.799   1.981
82675SOL     OW49856  12.374  12.032  14.141
82675SOL    HW149857  12.302  11.998  14.195
82675SOL    HW249858  12.348  12.121  14.119
82676SOL     OW49859  10.753   2.598  14.490
82676SOL    HW149860  10.707   2.678  14.516
82676SOL    HW249861  10.846   2.618  14.504
82677SOL     OW49862  11.095  12.967   6.917
82677SOL    HW149863  11.142  12.976   7.000
82677SOL    HW249864  11.030  13.037   6.919
82678SOL     OW49865   5.159  12.910   5.521
82678SOL    HW149866   5.219  12.884   5.592
82678SOL    HW249867   5.074  12.875   5.548
82679SOL     OW49868  11.936   1.987   0.145
82679SOL    HW149869  11.942   1.981   0.241
82679SOL    HW249870  11.929   2.081   0.128
82680SOL     OW49871   6.101   1.292   4.641
82680SOL    HW149872   6.086   1.270   4.549
82680SOL    HW249873   6.145   1.377   4.638
82681SOL     OW49874  10.884   0.603  12.121
82681SOL    HW149875  10.922   0.629  12.205
82681SOL    HW249876  10.925   0.519  12.101
82682SOL     OW49877   5.102   0.322   7.555
82682SOL    HW149878   5.022   0.375   7.546
82682SOL    HW249879   5.070   0.233   7.566
82683SOL     OW49880   1.816   5.547  10.337
82683SOL    HW149881   1.807   5.639  10.312
82683SOL    HW249882   1.909   5.537  10.358
82684SOL     OW49883  14.046  11.252   2.031
82684SOL    HW149884  14.124  11.299   2.059
82684SOL    HW249885  13.989  11.252   2.108
82685SOL     OW49886  10.440  10.785   2.752
82685SOL    HW149887  10.533  10.778   2.770
82685SOL    HW249888  10.418  10.704   2.707
82686SOL     OW49889  13.493   2.889  14.120
82686SOL    HW149890  13.484   2.971  14.167
82686SOL    HW249891  13.550   2.909  14.046
82687SOL     OW49892   1.074   7.616   7.955
82687SOL    HW149893   1.137   7.612   8.027
82687SOL    HW249894   0.989   7.623   7.997
82688SOL     OW49895   9.049   7.507   4.614
82688SOL    HW149896   9.068   7.550   4.697
82688SOL    HW249897   8.960   7.537   4.592
82689SOL     OW49898   9.967   8.507   6.590
82689SOL    HW149899   9.929   8.501   6.502
82689SOL    HW249900   9.895   8.483   6.648
82690SOL     OW49901  10.429  10.196  13.930
82690SOL    HW149902  10.457  10.127  13.869
82690SOL    HW249903  10.426  10.275  13.877
82691SOL     OW49904  12.575   8.422   4.491
82691SOL    HW149905  12.644   8.406   4.555
82691SOL    HW249906  12.621   8.444   4.410
82692SOL     OW49907  12.475   9.275  11.723
82692SOL    HW149908  12.418   9.327  11.667
82692SOL    HW249909  12.437   9.187  11.721
82693SOL     OW49910  13.915   1.329  10.402
82693SOL    HW149911  13.915   1.236  10.379
82693SOL    HW249912  13.991   1.341  10.458
82694SOL     OW49913   3.981  14.479  12.757
82694SOL    HW149914   4.070  14.447  12.743
82694SOL    HW249915   3.954  14.513  12.671
82695SOL     OW49916   3.475   9.979   2.699
82695SOL    HW149917   3.528   9.982   2.619
82695SOL    HW249918   3.475   9.886   2.724
82696SOL     OW49919   5.818   7.500  12.476
82696SOL    HW149920   5.889   7.446  12.444
82696SOL    HW249921   5.759   7.511  12.401
82697SOL     OW49922   4.324   1.796   7.845
82697SOL    HW149923   4.320   1.755   7.759
82697SOL    HW249924   4.252   1.860   7.845
82698SOL     OW49925   5.757  13.076   4.152
82698SOL    HW149926   5.718  13.029   4.079
82698SOL    HW249927   5.745  13.169   4.130
82699SOL     OW49928  14.291  11.648   8.983
82699SOL    HW149929  14.380  11.663   8.951
82699SOL    HW249930  14.237  11.651   8.904
82700SOL     OW49931  10.458  12.025  12.970
82700SOL    HW149932  10.485  12.113  12.945
82700SOL    HW249933  10.370  12.016  12.934
82701SOL     OW49934   7.935   6.812   9.912
82701SOL    HW149935   7.882   6.871   9.857
82701SOL    HW249936   8.022   6.851   9.910
82702SOL     OW49937  12.257   4.565   4.370
82702SOL    HW149938  12.319   4.549   4.440
82702SOL    HW249939  12.198   4.633   4.404
82703SOL     OW49940  11.995   8.874   3.820
82703SOL    HW149941  11.905   8.903   3.805
82703SOL    HW249942  12.006   8.880   3.915
82704SOL     OW49943   1.690   2.621   8.334
82704SOL    HW149944   1.596   2.621   8.353
82704SOL    HW249945   1.727   2.683   8.396
82705SOL     OW49946  13.654   4.998   1.745
82705SOL    HW149947  13.611   4.931   1.798
82705SOL    HW249948  13.672   5.070   1.805
82706SOL     OW49949   3.314   4.654  13.271
82706SOL    HW149950   3.406   4.680  13.279
82706SOL    HW249951   3.299   4.650  13.176
82707SOL     OW49952   4.427   0.171  13.972
82707SOL    HW149953   4.373   0.232  14.022
82707SOL    HW249954   4.421   0.089  14.021
82708SOL     OW49955   6.892  11.794   9.400
82708SOL    HW149956   6.931  11.869   9.443
82708SOL    HW249957   6.850  11.830   9.321
82709SOL     OW49958   1.879   1.214  14.199
82709SOL    HW149959   1.923   1.138  14.237
82709SOL    HW249960   1.895   1.207  14.105
82710SOL     OW49961   6.045  13.635  10.011
82710SOL    HW149962   6.056  13.547  10.045
82710SOL    HW249963   6.112  13.687  10.055
82711SOL     OW49964   9.124   9.349   2.410
82711SOL    HW149965   9.144   9.259   2.387
82711SOL    HW249966   9.033   9.361   2.382
82712SOL     OW49967   3.297   0.125   8.255
82712SOL    HW149968   3.236   0.064   8.212
82712SOL    HW249969   3.242   0.176   8.315
82713SOL     OW49970   2.493   5.095   1.641
82713SOL    HW149971   2.490   5.047   1.724
82713SOL    HW249972   2.409   5.140   1.636
82714SOL     OW49973   4.960   8.257   1.102
82714SOL    HW149974   5.021   8.312   1.053
82714SOL    HW249975   4.908   8.318   1.153
82715SOL     OW49976   8.740   5.700  11.364
82715SOL    HW149977   8.673   5.632  11.358
82715SOL    HW249978   8.785   5.697  11.280
82716SOL     OW49979  10.416   1.901   2.895
82716SOL    HW149980  10.336   1.850   2.910
82716SOL    HW249981  10.431   1.946   2.978
82717SOL     OW49982   9.937   0.330   3.238
82717SOL    HW149983   9.954   0.308   3.330
82717SOL    HW249984   9.870   0.398   3.242
82718SOL     OW49985  11.825   1.242   9.448
82718SOL    HW149986  11.823   1.162   9.395
82718SOL    HW249987  11.918   1.264   9.456
82719SOL     OW49988  14.154   6.812   1.441
82719SOL    HW149989  14.101   6.747   1.396
82719SOL    HW249990  14.177   6.875   1.373
82720SOL     OW49991  11.353   9.210   2.008
82720SOL    HW149992  11.445   9.211   2.035
82720SOL    HW249993  11.319   9.295   2.036
82721SOL     OW49994   4.264   9.258   3.413
82721SOL    HW149995   4.300   9.172   3.389
82721SOL    HW249996   4.341   9.314   3.421
82722SOL     OW49997   7.326  14.666   4.817
82722SOL    HW149998   7.404  14.617   4.843
82722SOL    HW249999   7.270  14.602   4.774
82723SOL     OW50000  13.240   5.132   2.233
82723SOL    HW150001  13.177   5.203   2.220
82723SOL    HW250002  13.325   5.173   2.215
82724SOL     OW50003   2.794   4.991   1.834
82724SOL    HW150004   2.699   4.979   1.836
82724SOL    HW250005   2.806   5.084   1.818
82725SOL     OW50006   0.756   1.993  12.219
82725SOL    HW150007   0.846   2.023  12.229
82725SOL    HW250008   0.714   2.060  12.166
82726SOL     OW50009   1.564   0.317   8.250
82726SOL    HW150010   1.494   0.252   8.257
82726SOL    HW250011   1.555   0.352   8.161
82727SOL     OW50012  10.570  10.899   4.114
82727SOL    HW150013  10.551  10.850   4.034
82727SOL    HW250014  10.517  10.857   4.182
82728SOL     OW50015   5.949   8.633  12.602
82728SOL    HW150016   5.870   8.586  12.628
82728SOL    HW250017   6.006   8.566  12.567
82729SOL     OW50018  10.464   5.307   2.954
82729SOL    HW150019  10.527   5.328   2.885
82729SOL    HW250020  10.437   5.217   2.934
82730SOL     OW50021  13.003   4.642   9.032
82730SOL    HW150022  12.926   4.698   9.027
82730SOL    HW250023  12.988   4.587   9.110
82731SOL     OW50024   1.135  12.048  11.658
82731SOL    HW150025   1.084  11.982  11.611
82731SOL    HW250026   1.083  12.128  11.651
82732SOL     OW50027   2.688   4.079  12.268
82732SOL    HW150028   2.646   4.131  12.336
82732SOL    HW250029   2.640   3.996  12.267
82733SOL     OW50030   5.635   2.045   0.557
82733SOL    HW150031   5.567   2.005   0.611
82733SOL    HW250032   5.587   2.091   0.489
82734SOL     OW50033   5.886  10.651   2.999
82734SOL    HW150034   5.914  10.608   3.080
82734SOL    HW250035   5.968  10.680   2.959
82735SOL     OW50036  11.351   8.782   9.660
82735SOL    HW150037  11.260   8.806   9.643
82735SOL    HW250038  11.385   8.854   9.714
82736SOL     OW50039  14.798   0.618   6.979
82736SOL    HW150040   0.014   0.640   6.993
82736SOL    HW250041  14.800   0.526   6.951
82737SOL     OW50042  10.244  12.907  14.734
82737SOL    HW150043  10.236  12.855  14.815
82737SOL    HW250044  10.269  12.994  14.764
82738SOL     OW50045   7.450   8.403   1.315
82738SOL    HW150046   7.359   8.372   1.309
82738SOL    HW250047   7.465   8.415   1.409
82739SOL     OW50048  11.845  14.577  13.865
82739SOL    HW150049  11.825  14.485  13.879
82739SOL    HW250050  11.855  14.613  13.953
82740SOL     OW50051   1.556   1.811   0.133
82740SOL    HW150052   1.647   1.840   0.134
82740SOL    HW250053   1.526   1.822   0.223
82741SOL     OW50054   2.956  14.751   5.441
82741SOL    HW150055   3.041  14.795   5.453
82741SOL    HW250056   2.891  14.818   5.462
82742SOL     OW50057   0.616   6.026   1.463
82742SOL    HW150058   0.547   6.046   1.400
82742SOL    HW250059   0.589   5.943   1.502
82743SOL     OW50060   5.408  14.443   7.925
82743SOL    HW150061   5.377  14.355   7.949
82743SOL    HW250062   5.351  14.470   7.854
82744SOL     OW50063  12.515   6.116   7.794
82744SOL    HW150064  12.532   6.051   7.726
82744SOL    HW250065  12.494   6.196   7.746
82745SOL     OW50066   2.444  12.814   1.481
82745SOL    HW150067   2.368  12.787   1.533
82745SOL    HW250068   2.504  12.853   1.544
82746SOL     OW50069  13.710   4.997   0.160
82746SOL    HW150070  13.689   4.926   0.221
82746SOL    HW250071  13.714   4.955   0.074
82747SOL     OW50072   0.019  11.080   2.121
82747SOL    HW150073   0.081  11.025   2.169
82747SOL    HW250074  14.809  11.055   2.156
82748SOL     OW50075  11.753   2.159   1.628
82748SOL    HW150076  11.827   2.216   1.650
82748SOL    HW250077  11.759   2.086   1.690
82749SOL     OW50078   3.617   6.455  14.421
82749SOL    HW150079   3.655   6.373  14.452
82749SOL    HW250080   3.692   6.504  14.387
82750SOL     OW50081   3.547   5.352   7.092
82750SOL    HW150082   3.584   5.314   7.172
82750SOL    HW250083   3.503   5.279   7.049
82751SOL     OW50084   2.000  13.592   1.364
82751SOL    HW150085   1.955  13.669   1.398
82751SOL    HW250086   1.955  13.572   1.281
82752SOL     OW50087   0.561   6.934  13.071
82752SOL    HW150088   0.578   6.847  13.036
82752SOL    HW250089   0.502   6.975  13.008
82753SOL     OW50090  14.194  13.984   3.667
82753SOL    HW150091  14.278  14.014   3.632
82753SOL    HW250092  14.217  13.932   3.744
82754SOL     OW50093   3.015   1.184  14.637
82754SOL    HW150094   2.937   1.179  14.581
82754SOL    HW250095   3.057   1.099  14.625
82755SOL     OW50096   9.510  13.249   4.367
82755SOL    HW150097   9.458  13.316   4.323
82755SOL    HW250098   9.509  13.174   4.307
82756SOL     OW50099  14.177   6.995   2.476
82756SOL    HW150100  14.150   6.922   2.421
82756SOL    HW250101  14.261   7.022   2.440
82757SOL     OW50102   5.899   9.447   6.624
82757SOL    HW150103   5.950   9.391   6.565
82757SOL    HW250104   5.866   9.517   6.568
82758SOL     OW50105  13.598   9.104  13.978
82758SOL    HW150106  13.574   9.038  13.914
82758SOL    HW250107  13.664   9.061  14.033
82759SOL     OW50108   1.839  13.368   8.766
82759SOL    HW150109   1.929  13.398   8.756
82759SOL    HW250110   1.833  13.290   8.712
82760SOL     OW50111   7.988   3.616   2.508
82760SOL    HW150112   7.937   3.641   2.585
82760SOL    HW250113   8.073   3.658   2.521
82761SOL     OW50114  10.441  12.491   7.276
82761SOL    HW150115  10.456  12.442   7.195
82761SOL    HW250116  10.507  12.561   7.274
82762SOL     OW50117   0.497   3.189  11.404
82762SOL    HW150118   0.471   3.212  11.494
82762SOL    HW250119   0.592   3.190  11.406
82763SOL     OW50120  12.527   2.592   3.618
82763SOL    HW150121  12.583   2.556   3.687
82763SOL    HW250122  12.541   2.533   3.544
82764SOL     OW50123   9.356   8.221  12.483
82764SOL    HW150124   9.349   8.126  12.485
82764SOL    HW250125   9.426   8.242  12.545
82765SOL     OW50126   1.224  11.898  13.860
82765SOL    HW150127   1.163  11.843  13.811
82765SOL    HW250128   1.285  11.931  13.795
82766SOL     OW50129  10.266   9.989   5.722
82766SOL    HW150130  10.216   9.967   5.800
82766SOL    HW250131  10.302  10.076   5.740
82767SOL     OW50132   9.875  13.243   7.997
82767SOL    HW150133   9.966  13.237   8.027
82767SOL    HW250134   9.827  13.277   8.072
82768SOL     OW50135   5.380   7.080  14.054
82768SOL    HW150136   5.328   7.159  14.069
82768SOL    HW250137   5.320   7.008  14.074
82769SOL     OW50138  14.767   8.354   9.041
82769SOL    HW150139  14.733   8.427   9.091
82769SOL    HW250140  14.848   8.329   9.085
82770SOL     OW50141   0.950   5.317   2.182
82770SOL    HW150142   0.857   5.303   2.168
82770SOL    HW250143   0.967   5.403   2.145
82771SOL     OW50144   9.560   8.987   9.518
82771SOL    HW150145   9.472   8.962   9.490
82771SOL    HW250146   9.610   8.993   9.437
82772SOL     OW50147   7.711   6.755  10.508
82772SOL    HW150148   7.632   6.743  10.562
82772SOL    HW250149   7.693   6.705  10.429
82773SOL     OW50150   3.132  11.202  11.907
82773SOL    HW150151   3.166  11.292  11.915
82773SOL    HW250152   3.172  11.155  11.980
82774SOL     OW50153  12.201   4.601  11.074
82774SOL    HW150154  12.260   4.611  10.999
82774SOL    HW250155  12.171   4.690  11.093
82775SOL     OW50156  11.833   7.537   3.666
82775SOL    HW150157  11.741   7.557   3.647
82775SOL    HW250158  11.835   7.442   3.676
82776SOL     OW50159   8.346  12.795   7.275
82776SOL    HW150160   8.388  12.770   7.358
82776SOL    HW250161   8.384  12.736   7.210
82777SOL     OW50162   0.805   3.467   1.122
82777SOL    HW150163   0.710   3.457   1.118
82777SOL    HW250164   0.834   3.399   1.182
82778SOL     OW50165   3.795   1.740   1.581
82778SOL    HW150166   3.783   1.645   1.583
82778SOL    HW250167   3.871   1.755   1.637
82779SOL     OW50168   8.165   4.215   1.480
82779SOL    HW150169   8.237   4.246   1.534
82779SOL    HW250170   8.098   4.284   1.488
82780SOL     OW50171   0.759   6.873  12.254
82780SOL    HW150172   0.838   6.921  12.230
82780SOL    HW250173   0.767   6.789  12.209
82781SOL     OW50174   3.053   4.216  10.152
82781SOL    HW150175   3.068   4.284  10.086
82781SOL    HW250176   2.958   4.213  10.163
82782SOL     OW50177   2.912  11.504  12.561
82782SOL    HW150178   2.991  11.552  12.538
82782SOL    HW250179   2.866  11.562  12.622
82783SOL     OW50180   2.874  13.547   0.645
82783SOL    HW150181   2.791  13.584   0.676
82783SOL    HW250182   2.869  13.553   0.550
82784SOL     OW50183   6.136  11.360   0.472
82784SOL    HW150184   6.202  11.429   0.476
82784SOL    HW250185   6.054  11.407   0.455
82785SOL     OW50186  14.873  11.989  10.129
82785SOL    HW150187  14.861  12.056  10.062
82785SOL    HW250188  14.836  11.910  10.090
82786SOL     OW50189   9.262   1.754   4.525
82786SOL    HW150190   9.276   1.759   4.430
82786SOL    HW250191   9.167   1.760   4.536
82787SOL     OW50192   8.905   5.072  12.956
82787SOL    HW150193   8.869   5.020  12.884
82787SOL    HW250194   8.841   5.063  13.026
82788SOL     OW50195  12.911   8.465   1.696
82788SOL    HW150196  12.942   8.509   1.617
82788SOL    HW250197  12.885   8.378   1.667
82789SOL     OW50198   0.560   9.561   0.887
82789SOL    HW150199   0.587   9.590   0.800
82789SOL    HW250200   0.464   9.559   0.884
82790SOL     OW50201   6.735  12.024  10.929
82790SOL    HW150202   6.672  11.958  10.903
82790SOL    HW250203   6.683  12.091  10.974
82791SOL     OW50204   7.487   1.180  10.112
82791SOL    HW150205   7.562   1.216  10.159
82791SOL    HW250206   7.523   1.113  10.054
82792SOL     OW50207   0.009   6.020   7.582
82792SOL    HW150208   0.008   6.018   7.678
82792SOL    HW250209   0.099   5.996   7.558
82793SOL     OW50210   6.693   5.888   2.935
82793SOL    HW150211   6.778   5.858   2.903
82793SOL    HW250212   6.699   5.984   2.932
82794SOL     OW50213  10.723   2.450   3.912
82794SOL    HW150214  10.799   2.421   3.861
82794SOL    HW250215  10.752   2.445   4.003
82795SOL     OW50216   2.276   7.279   1.946
82795SOL    HW150217   2.354   7.325   1.914
82795SOL    HW250218   2.214   7.284   1.872
82796SOL     OW50219  13.317  11.536   2.362
82796SOL    HW150220  13.400  11.581   2.379
82796SOL    HW250221  13.332  11.446   2.391
82797SOL     OW50222   5.698   6.869   6.826
82797SOL    HW150223   5.783   6.867   6.782
82797SOL    HW250224   5.719   6.861   6.920
82798SOL     OW50225   3.248  11.655  13.539
82798SOL    HW150226   3.222  11.689  13.453
82798SOL    HW250227   3.344  11.660  13.539
82799SOL     OW50228   2.268   3.451   8.221
82799SOL    HW150229   2.283   3.463   8.315
82799SOL    HW250230   2.210   3.375   8.215
82800SOL     OW50231   2.494  11.522   5.916
82800SOL    HW150232   2.568  11.470   5.884
82800SOL    HW250233   2.533  11.581   5.981
82801SOL     OW50234  11.730   3.352  12.463
82801SOL    HW150235  11.746   3.304  12.545
82801SOL    HW250236  11.800   3.323  12.404
82802SOL     OW50237   3.558   2.406   7.090
82802SOL    HW150238   3.523   2.321   7.063
82802SOL    HW250239   3.486   2.467   7.074
82803SOL     OW50240   1.714   3.578   6.516
82803SOL    HW150241   1.790   3.632   6.493
82803SOL    HW250242   1.747   3.514   6.578
82804SOL     OW50243   5.780   4.310   3.549
82804SOL    HW150244   5.824   4.248   3.491
82804SOL    HW250245   5.687   4.294   3.534
82805SOL     OW50246   8.210   4.746   5.644
82805SOL    HW150247   8.186   4.839   5.650
82805SOL    HW250248   8.273   4.742   5.572
82806SOL     OW50249  11.668   2.103  10.217
82806SOL    HW150250  11.756   2.138  10.201
82806SOL    HW250251  11.663   2.094  10.312
82807SOL     OW50252   2.813   5.588   7.095
82807SOL    HW150253   2.820   5.683   7.086
82807SOL    HW250254   2.797   5.574   7.188
82808SOL     OW50255   8.890   2.198   8.153
82808SOL    HW150256   8.834   2.131   8.113
82808SOL    HW250257   8.856   2.208   8.242
82809SOL     OW50258   6.645   0.669   1.190
82809SOL    HW150259   6.704   0.602   1.155
82809SOL    HW250260   6.590   0.621   1.253
82810SOL     OW50261  12.576  10.688  14.093
82810SOL    HW150262  12.568  10.733  14.177
82810SOL    HW250263  12.658  10.721  14.055
82811SOL     OW50264   4.474  11.568   1.882
82811SOL    HW150265   4.466  11.520   1.799
82811SOL    HW250266   4.441  11.656   1.862
82812SOL     OW50267   3.135  13.215   4.486
82812SOL    HW150268   3.074  13.285   4.463
82812SOL    HW250269   3.087  13.163   4.551
82813SOL     OW50270   4.599   8.906   6.306
82813SOL    HW150271   4.612   8.884   6.214
82813SOL    HW250272   4.565   8.996   6.305
82814SOL     OW50273   0.033  11.156   9.699
82814SOL    HW150274   0.116  11.140   9.654
82814SOL    HW250275  14.852  11.086   9.668
82815SOL     OW50276  10.001   0.839   1.075
82815SOL    HW150277   9.923   0.807   1.121
82815SOL    HW250278   9.987   0.934   1.067
82816SOL     OW50279   9.549  10.220  14.413
82816SOL    HW150280   9.560  10.181  14.326
82816SOL    HW250281   9.609  10.170  14.469
82817SOL     OW50282   4.399   1.883  10.039
82817SOL    HW150283   4.462   1.844  10.100
82817SOL    HW250284   4.454   1.927   9.974
82818SOL     OW50285  14.254  11.652   2.808
82818SOL    HW150286  14.188  11.605   2.860
82818SOL    HW250287  14.336  11.635   2.854
82819SOL     OW50288  13.755  12.062   9.599
82819SOL    HW150289  13.807  12.012   9.536
82819SOL    HW250290  13.784  12.030   9.684
82820SOL     OW50291   3.534  13.410  11.615
82820SOL    HW150292   3.588  13.362  11.552
82820SOL    HW250293   3.480  13.469  11.562
82821SOL     OW50294   1.949   3.170  12.437
82821SOL    HW150295   1.897   3.224  12.497
82821SOL    HW250296   2.012   3.126  12.494
82822SOL     OW50297  10.967  12.351   0.107
82822SOL    HW150298  10.986  12.437   0.070
82822SOL    HW250299  10.886  12.363   0.156
82823SOL     OW50300   8.090   4.094   2.302
82823SOL    HW150301   8.037   4.172   2.319
82823SOL    HW250302   8.146   4.086   2.380
82824SOL     OW50303   0.321   2.423   1.897
82824SOL    HW150304   0.259   2.494   1.886
82824SOL    HW250305   0.391   2.441   1.834
82825SOL     OW50306   6.287   8.870  12.957
82825SOL    HW150307   6.211   8.827  12.994
82825SOL    HW250308   6.263   8.888  12.866
82826SOL     OW50309  13.904  13.297   4.974
82826SOL    HW150310  13.941  13.263   5.055
82826SOL    HW250311  13.892  13.219   4.919
82827SOL     OW50312  13.295  13.359   1.154
82827SOL    HW150313  13.378  13.402   1.135
82827SOL    HW250314  13.243  13.371   1.075
82828SOL     OW50315   0.797  10.875  12.078
82828SOL    HW150316   0.811  10.838  11.991
82828SOL    HW250317   0.723  10.827  12.114
82829SOL     OW50318   5.319   5.423   2.196
82829SOL    HW150319   5.376   5.497   2.216
82829SOL    HW250320   5.259   5.418   2.270
82830SOL     OW50321  11.861   0.149  12.406
82830SOL    HW150322  11.839   0.143  12.499
82830SOL    HW250323  11.898   0.063  12.384
82831SOL     OW50324   8.283  10.709  13.594
82831SOL    HW150325   8.267  10.662  13.512
82831SOL    HW250326   8.311  10.641  13.656
82832SOL     OW50327   6.098  14.840   6.103
82832SOL    HW150328   6.165   0.001   6.046
82832SOL    HW250329   6.027  14.815   6.045
82833SOL     OW50330  14.382   2.218  11.179
82833SOL    HW150331  14.473   2.246  11.192
82833SOL    HW250332  14.365   2.159  11.252
82834SOL     OW50333   1.387   1.208   1.655
82834SOL    HW150334   1.466   1.212   1.708
82834SOL    HW250335   1.320   1.172   1.714
82835SOL     OW50336  11.852  11.133   0.950
82835SOL    HW150337  11.817  11.046   0.968
82835SOL    HW250338  11.833  11.148   0.858
82836SOL     OW50339  11.317  10.049  14.058
82836SOL    HW150340  11.377  10.122  14.069
82836SOL    HW250341  11.374   9.972  14.058
82837SOL     OW50342   2.895  14.552   7.928
82837SOL    HW150343   2.940  14.610   7.990
82837SOL    HW250344   2.839  14.497   7.983
82838SOL     OW50345  11.270   4.899   6.534
82838SOL    HW150346  11.208   4.826   6.535
82838SOL    HW250347  11.228   4.965   6.478
82839SOL     OW50348   1.709   5.223   6.656
82839SOL    HW150349   1.678   5.133   6.644
82839SOL    HW250350   1.632   5.271   6.685
82840SOL     OW50351   0.786  13.323   0.063
82840SOL    HW150352   0.791  13.282   0.149
82840SOL    HW250353   0.876  13.351   0.044
82841SOL     OW50354   8.314   7.457   9.661
82841SOL    HW150355   8.222   7.445   9.684
82841SOL    HW250356   8.319   7.430   9.569
82842SOL     OW50357   5.462   4.171  10.132
82842SOL    HW150358   5.466   4.094  10.188
82842SOL    HW250359   5.533   4.227  10.164
82843SOL     OW50360  12.575   4.578  11.377
82843SOL    HW150361  12.507   4.637  11.410
82843SOL    HW250362  12.576   4.592  11.283
82844SOL     OW50363   0.107  11.874   7.685
82844SOL    HW150364   0.160  11.953   7.670
82844SOL    HW250365   0.154  11.826   7.752
82845SOL     OW50366   7.826  13.851   4.891
82845SOL    HW150367   7.919  13.870   4.907
82845SOL    HW250368   7.819  13.850   4.795
82846SOL     OW50369  11.603   6.667  14.697
82846SOL    HW150370  11.662   6.697  14.767
82846SOL    HW250371  11.555   6.594  14.735
82847SOL     OW50372   8.146  13.855  12.961
82847SOL    HW150373   8.162  13.922  13.029
82847SOL    HW250374   8.156  13.772  13.007
82848SOL     OW50375  13.644   9.559  11.332
82848SOL    HW150376  13.605   9.645  11.349
82848SOL    HW250377  13.572   9.505  11.302
82849SOL     OW50378   6.934  14.603   7.705
82849SOL    HW150379   6.858  14.654   7.733
82849SOL    HW250380   6.993  14.667   7.666
82850SOL     OW50381   4.066   3.149  12.271
82850SOL    HW150382   3.987   3.187  12.311
82850SOL    HW250383   4.131   3.149  12.341
82851SOL     OW50384   6.134   4.869   1.403
82851SOL    HW150385   6.163   4.874   1.312
82851SOL    HW250386   6.188   4.932   1.450
82852SOL     OW50387   0.527   7.454  11.217
82852SOL    HW150388   0.504   7.450  11.124
82852SOL    HW250389   0.452   7.496  11.259
82853SOL     OW50390   6.818  10.114  12.192
82853SOL    HW150391   6.806  10.201  12.229
82853SOL    HW250392   6.804  10.125  12.098
82854SOL     OW50393   8.517  10.624   0.508
82854SOL    HW150394   8.452  10.647   0.574
82854SOL    HW250395   8.598  10.667   0.537
82855SOL     OW50396   1.156   0.488   2.886
82855SOL    HW150397   1.066   0.504   2.914
82855SOL    HW250398   1.200   0.572   2.894
82856SOL     OW50399   1.387   6.135   3.687
82856SOL    HW150400   1.409   6.063   3.746
82856SOL    HW250401   1.327   6.190   3.739
82857SOL     OW50402  10.629   5.276   3.899
82857SOL    HW150403  10.586   5.329   3.966
82857SOL    HW250404  10.630   5.187   3.935
82858SOL     OW50405   2.328  13.942  11.577
82858SOL    HW150406   2.366  13.894  11.504
82858SOL    HW250407   2.372  13.908  11.654
82859SOL     OW50408   0.239   9.821  10.588
82859SOL    HW150409   0.222   9.821  10.682
82859SOL    HW250410   0.222   9.731  10.561
82860SOL     OW50411  12.119   1.677  14.291
82860SOL    HW150412  12.197   1.713  14.250
82860SOL    HW250413  12.056   1.748  14.289
82861SOL     OW50414   9.167   1.038  12.735
82861SOL    HW150415   9.154   0.949  12.700
82861SOL    HW250416   9.239   1.073  12.683
82862SOL     OW50417   9.643   7.543   3.840
82862SOL    HW150418   9.697   7.494   3.901
82862SOL    HW250419   9.673   7.633   3.847
82863SOL     OW50420  14.562  13.393   8.284
82863SOL    HW150421  14.548  13.307   8.244
82863SOL    HW250422  14.483  13.408   8.336
82864SOL     OW50423   8.584  13.032   4.782
82864SOL    HW150424   8.512  13.031   4.718
82864SOL    HW250425   8.547  13.073   4.860
82865SOL     OW50426   9.379   8.191  11.177
82865SOL    HW150427   9.369   8.218  11.085
82865SOL    HW250428   9.413   8.102  11.172
82866SOL     OW50429   9.363   3.118   3.311
82866SOL    HW150430   9.326   3.145   3.395
82866SOL    HW250431   9.342   3.190   3.251
82867SOL     OW50432   7.408  10.912   8.908
82867SOL    HW150433   7.329  10.945   8.951
82867SOL    HW250434   7.423  10.973   8.836
82868SOL     OW50435   8.925   9.349   1.547
82868SOL    HW150436   9.014   9.321   1.569
82868SOL    HW250437   8.879   9.267   1.527
82869SOL     OW50438  14.831   5.205   6.791
82869SOL    HW150439   0.043   5.187   6.758
82869SOL    HW250440  14.776   5.137   6.752
82870SOL     OW50441   8.531   7.339  14.297
82870SOL    HW150442   8.555   7.259  14.343
82870SOL    HW250443   8.528   7.406  14.365
82871SOL     OW50444   8.246   1.177   9.366
82871SOL    HW150445   8.265   1.108   9.302
82871SOL    HW250446   8.150   1.181   9.369
82872SOL     OW50447   8.702   7.530   4.271
82872SOL    HW150448   8.724   7.613   4.229
82872SOL    HW250449   8.679   7.472   4.198
82873SOL     OW50450   0.888   3.149   0.360
82873SOL    HW150451   0.977   3.178   0.379
82873SOL    HW250452   0.900   3.062   0.320
82874SOL     OW50453   5.529  10.507  14.486
82874SOL    HW150454   5.606  10.470  14.529
82874SOL    HW250455   5.532  10.600  14.507
82875SOL     OW50456   3.490   7.968   5.964
82875SOL    HW150457   3.494   8.058   5.994
82875SOL    HW250458   3.567   7.926   6.003
82876SOL     OW50459   4.026  10.153   1.292
82876SOL    HW150460   4.029  10.063   1.260
82876SOL    HW250461   4.110  10.165   1.336
82877SOL     OW50462   7.706  14.806   7.771
82877SOL    HW150463   7.722  14.753   7.693
82877SOL    HW250464   7.690  14.742   7.841
82878SOL     OW50465   5.932   6.835  11.237
82878SOL    HW150466   5.860   6.779  11.266
82878SOL    HW250467   6.005   6.775  11.221
82879SOL     OW50468   1.739   2.617  11.658
82879SOL    HW150469   1.776   2.678  11.594
82879SOL    HW250470   1.776   2.532  11.633
82880SOL     OW50471   2.495   8.339   6.611
82880SOL    HW150472   2.546   8.292   6.676
82880SOL    HW250473   2.428   8.276   6.583
82881SOL     OW50474  14.619  13.407  10.986
82881SOL    HW150475  14.702  13.360  10.981
82881SOL    HW250476  14.575  13.370  11.063
82882SOL     OW50477   8.794  12.418   0.485
82882SOL    HW150478   8.875  12.466   0.471
82882SOL    HW250479   8.728  12.485   0.504
82883SOL     OW50480   7.518  14.479   4.318
82883SOL    HW150481   7.501  14.546   4.385
82883SOL    HW250482   7.435  14.469   4.272
82884SOL     OW50483  14.345   1.105   3.920
82884SOL    HW150484  14.297   1.186   3.908
82884SOL    HW250485  14.313   1.069   4.003
82885SOL     OW50486   3.067   2.992  11.473
82885SOL    HW150487   3.072   2.984  11.568
82885SOL    HW250488   3.058   2.902  11.441
82886SOL     OW50489   9.448  13.242  13.115
82886SOL    HW150490   9.365  13.262  13.158
82886SOL    HW250491   9.505  13.211  13.186
82887SOL     OW50492  13.680   7.779   8.789
82887SOL    HW150493  13.591   7.805   8.814
82887SOL    HW250494  13.698   7.832   8.711
82888SOL     OW50495  11.491   4.810  11.182
82888SOL    HW150496  11.397   4.792  11.184
82888SOL    HW250497  11.531   4.724  11.175
82889SOL     OW50498  10.201   0.647  12.447
82889SOL    HW150499  10.123   0.669  12.397
82889SOL    HW250500  10.196   0.552  12.458
82890SOL     OW50501  11.347  12.816   9.725
82890SOL    HW150502  11.343  12.783   9.636
82890SOL    HW250503  11.410  12.759   9.769
82891SOL     OW50504   0.183   6.843   7.539
82891SOL    HW150505   0.155   6.931   7.566
82891SOL    HW250506   0.274   6.837   7.569
82892SOL     OW50507   2.253  10.491   2.929
82892SOL    HW150508   2.310  10.480   3.005
82892SOL    HW250509   2.196  10.414   2.931
82893SOL     OW50510   5.924   6.563  10.928
82893SOL    HW150511   5.880   6.500  10.870
82893SOL    HW250512   5.882   6.647  10.908
82894SOL     OW50513  11.867   2.347   0.399
82894SOL    HW150514  11.856   2.285   0.327
82894SOL    HW250515  11.953   2.327   0.436
82895SOL     OW50516   9.609   4.618  11.580
82895SOL    HW150517   9.544   4.675  11.623
82895SOL    HW250518   9.559   4.570  11.514
82896SOL     OW50519  13.050   4.444  10.626
82896SOL    HW150520  12.963   4.433  10.665
82896SOL    HW250521  13.060   4.368  10.568
82897SOL     OW50522  11.815  13.655   2.186
82897SOL    HW150523  11.820  13.726   2.122
82897SOL    HW250524  11.721  13.637   2.195
82898SOL     OW50525   1.282   2.965   1.779
82898SOL    HW150526   1.318   3.040   1.827
82898SOL    HW250527   1.187   2.979   1.781
82899SOL     OW50528  14.192  14.647   0.366
82899SOL    HW150529  14.287  14.634   0.362
82899SOL    HW250530  14.171  14.692   0.284
82900SOL     OW50531  11.658   0.429   6.939
82900SOL    HW150532  11.618   0.366   6.999
82900SOL    HW250533  11.745   0.444   6.975
82901SOL     OW50534   3.208   9.979   5.543
82901SOL    HW150535   3.164   9.941   5.467
82901SOL    HW250536   3.146   9.969   5.615
82902SOL     OW50537   9.190  13.542   8.977
82902SOL    HW150538   9.107  13.555   9.023
82902SOL    HW250539   9.233  13.471   9.025
82903SOL     OW50540  13.159  10.893   1.685
82903SOL    HW150541  13.078  10.939   1.708
82903SOL    HW250542  13.227  10.938   1.735
82904SOL     OW50543  10.533  11.083   1.361
82904SOL    HW150544  10.603  11.047   1.307
82904SOL    HW250545  10.512  11.167   1.320
82905SOL     OW50546  12.555   5.357   9.854
82905SOL    HW150547  12.509   5.325   9.776
82905SOL    HW250548  12.512   5.312   9.927
82906SOL     OW50549   1.765   0.530  12.556
82906SOL    HW150550   1.859   0.514  12.555
82906SOL    HW250551   1.741   0.539  12.464
82907SOL     OW50552   1.002   7.927   9.225
82907SOL    HW150553   0.934   7.907   9.160
82907SOL    HW250554   0.964   7.899   9.309
82908SOL     OW50555  11.650  12.841  10.033
82908SOL    HW150556  11.607  12.908  10.085
82908SOL    HW250557  11.725  12.814  10.086
82909SOL     OW50558   0.804   4.130   5.527
82909SOL    HW150559   0.751   4.185   5.585
82909SOL    HW250560   0.768   4.042   5.537
82910SOL     OW50561   9.980   0.309   8.770
82910SOL    HW150562  10.075   0.296   8.773
82910SOL    HW250563   9.960   0.318   8.677
82911SOL     OW50564   2.140   8.409   1.627
82911SOL    HW150565   2.107   8.336   1.576
82911SOL    HW250566   2.202   8.453   1.570
82912SOL     OW50567   6.739   9.521   3.074
82912SOL    HW150568   6.795   9.448   3.047
82912SOL    HW250569   6.793   9.599   3.058
82913SOL     OW50570   3.154  12.643  11.924
82913SOL    HW150571   3.138  12.618  11.834
82913SOL    HW250572   3.231  12.593  11.950
82914SOL     OW50573   8.449   4.569   7.081
82914SOL    HW150574   8.384   4.569   7.011
82914SOL    HW250575   8.455   4.661   7.108
82915SOL     OW50576  10.357  13.629   1.206
82915SOL    HW150577  10.345  13.695   1.138
82915SOL    HW250578  10.288  13.647   1.270
82916SOL     OW50579   9.687   0.401  11.404
82916SOL    HW150580   9.756   0.459  11.370
82916SOL    HW250581   9.611   0.421  11.350
82917SOL     OW50582   4.488   8.620  12.042
82917SOL    HW150583   4.532   8.703  12.027
82917SOL    HW250584   4.512   8.597  12.132
82918SOL     OW50585  12.775   4.303  11.138
82918SOL    HW150586  12.785   4.231  11.076
82918SOL    HW250587  12.798   4.265  11.223
82919SOL     OW50588  12.863   1.550   0.528
82919SOL    HW150589  12.774   1.513   0.526
82919SOL    HW250590  12.855   1.633   0.480
82920SOL     OW50591   7.886   5.438   1.078
82920SOL    HW150592   7.888   5.375   1.006
82920SOL    HW250593   7.960   5.497   1.060
82921SOL     OW50594  14.475  11.905   5.901
82921SOL    HW150595  14.518  11.940   5.823
82921SOL    HW250596  14.536  11.838   5.933
82922SOL     OW50597  12.323   1.263   3.983
82922SOL    HW150598  12.313   1.357   3.972
82922SOL    HW250599  12.341   1.251   4.076
82923SOL     OW50600   7.662   4.584   1.351
82923SOL    HW150601   7.607   4.618   1.421
82923SOL    HW250602   7.669   4.490   1.368
82924SOL     OW50603  13.382   9.017   2.159
82924SOL    HW150604  13.408   9.105   2.184
82924SOL    HW250605  13.459   8.963   2.179
82925SOL     OW50606  14.248  12.827  14.208
82925SOL    HW150607  14.275  12.859  14.122
82925SOL    HW250608  14.184  12.891  14.239
82926SOL     OW50609   9.653   8.902  10.717
82926SOL    HW150610   9.606   8.824  10.747
82926SOL    HW250611   9.590   8.974  10.728
82927SOL     OW50612   0.762  11.445   6.857
82927SOL    HW150613   0.717  11.471   6.937
82927SOL    HW250614   0.797  11.358   6.876
82928SOL     OW50615   0.185  12.005  11.341
82928SOL    HW150616   0.272  12.012  11.303
82928SOL    HW250617   0.142  11.935  11.290
82929SOL     OW50618   1.376   1.305   9.246
82929SOL    HW150619   1.393   1.315   9.152
82929SOL    HW250620   1.414   1.383   9.286
82930SOL     OW50621   1.587   4.855  13.102
82930SOL    HW150622   1.579   4.941  13.060
82930SOL    HW250623   1.630   4.874  13.186
82931SOL     OW50624   5.581  10.060   3.452
82931SOL    HW150625   5.549  10.132   3.505
82931SOL    HW250626   5.532   9.984   3.483
82932SOL     OW50627  12.467   4.191   3.715
82932SOL    HW150628  12.469   4.142   3.633
82932SOL    HW250629  12.470   4.123   3.783
82933SOL     OW50630  11.512   4.538   6.998
82933SOL    HW150631  11.453   4.589   6.943
82933SOL    HW250632  11.598   4.577   6.982
82934SOL     OW50633   2.255   2.604   2.431
82934SOL    HW150634   2.165   2.631   2.414
82934SOL    HW250635   2.298   2.683   2.466
82935SOL     OW50636  10.157   6.750   8.755
82935SOL    HW150637  10.082   6.763   8.813
82935SOL    HW250638  10.119   6.718   8.673
82936SOL     OW50639   6.551   6.971   4.108
82936SOL    HW150640   6.508   6.887   4.096
82936SOL    HW250641   6.600   6.985   4.027
82937SOL     OW50642   7.248   4.638   8.884
82937SOL    HW150643   7.326   4.692   8.890
82937SOL    HW250644   7.176   4.697   8.905
82938SOL     OW50645  10.396  11.898   7.916
82938SOL    HW150646  10.420  11.941   7.834
82938SOL    HW250647  10.376  11.970   7.976
82939SOL     OW50648   0.363   8.701  12.643
82939SOL    HW150649   0.434   8.666  12.589
82939SOL    HW250650   0.379   8.795  12.645
82940SOL     OW50651  11.234   6.788   0.191
82940SOL    HW150652  11.179   6.814   0.117
82940SOL    HW250653  11.289   6.865   0.208
82941SOL     OW50654   1.247  12.494   2.028
82941SOL    HW150655   1.297  12.534   1.957
82941SOL    HW250656   1.210  12.414   1.989
82942SOL     OW50657   8.571   0.756   4.142
82942SOL    HW150658   8.603   0.760   4.052
82942SOL    HW250659   8.557   0.847   4.168
82943SOL     OW50660   8.542   6.679  10.351
82943SOL    HW150661   8.471   6.701  10.292
82943SOL    HW250662   8.548   6.583  10.348
82944SOL     OW50663  14.156   8.860   4.410
82944SOL    HW150664  14.145   8.935   4.352
82944SOL    HW250665  14.172   8.898   4.496
82945SOL     OW50666   1.233   9.238   7.799
82945SOL    HW150667   1.223   9.326   7.834
82945SOL    HW250668   1.328   9.226   7.792
82946SOL     OW50669  10.265  10.882   8.553
82946SOL    HW150670  10.181  10.875   8.597
82946SOL    HW250671  10.305  10.960   8.592
82947SOL     OW50672  13.078  14.124   7.781
82947SOL    HW150673  13.158  14.176   7.779
82947SOL    HW250674  13.009  14.186   7.803
82948SOL     OW50675   8.764   4.781   5.748
82948SOL    HW150676   8.794   4.703   5.795
82948SOL    HW250677   8.809   4.854   5.791
82949SOL     OW50678   6.676   0.443  14.356
82949SOL    HW150679   6.760   0.418  14.395
82949SOL    HW250680   6.673   0.396  14.273
82950SOL     OW50681   9.724   9.298   7.607
82950SOL    HW150682   9.720   9.208   7.573
82950SOL    HW250683   9.635   9.317   7.637
82951SOL     OW50684   4.455   5.668   5.524
82951SOL    HW150685   4.405   5.699   5.448
82951SOL    HW250686   4.479   5.749   5.570
82952SOL     OW50687   5.821   0.606  10.745
82952SOL    HW150688   5.862   0.520  10.754
82952SOL    HW250689   5.893   0.668  10.759
82953SOL     OW50690   4.910  12.306  10.686
82953SOL    HW150691   4.980  12.251  10.649
82953SOL    HW250692   4.954  12.357  10.754
82954SOL     OW50693  13.850   3.464   9.279
82954SOL    HW150694  13.766   3.429   9.309
82954SOL    HW250695  13.826   3.541   9.227
82955SOL     OW50696  13.457  11.169  10.166
82955SOL    HW150697  13.526  11.160  10.232
82955SOL    HW250698  13.463  11.089  10.114
82956SOL     OW50699   0.782  14.663   2.220
82956SOL    HW150700   0.765  14.757   2.228
82956SOL    HW250701   0.718  14.633   2.155
82957SOL     OW50702  11.422   2.083   7.274
82957SOL    HW150703  11.394   2.018   7.338
82957SOL    HW250704  11.341   2.119   7.239
82958SOL     OW50705   9.043  13.447   7.245
82958SOL    HW150706   9.126  13.494   7.244
82958SOL    HW250707   8.981  13.505   7.200
82959SOL     OW50708   2.829   5.572   4.871
82959SOL    HW150709   2.773   5.520   4.928
82959SOL    HW250710   2.799   5.552   4.782
82960SOL     OW50711  12.690   4.452   6.746
82960SOL    HW150712  12.642   4.493   6.675
82960SOL    HW250713  12.683   4.358   6.729
82961SOL     OW50714   7.980   9.779   8.995
82961SOL    HW150715   8.027   9.740   8.921
82961SOL    HW250716   7.912   9.715   9.017
82962SOL     OW50717   3.033   5.787   1.032
82962SOL    HW150718   2.974   5.778   1.106
82962SOL    HW250719   2.976   5.793   0.956
82963SOL     OW50720  12.724   1.856   0.905
82963SOL    HW150721  12.641   1.875   0.947
82963SOL    HW250722  12.713   1.886   0.814
82964SOL     OW50723   3.871   7.486   3.279
82964SOL    HW150724   3.856   7.406   3.329
82964SOL    HW250725   3.790   7.537   3.291
82965SOL     OW50726   5.068   6.994  13.720
82965SOL    HW150727   5.054   7.059  13.789
82965SOL    HW250728   5.005   7.017  13.652
82966SOL     OW50729   1.937  10.552   4.555
82966SOL    HW150730   1.968  10.516   4.472
82966SOL    HW250731   1.844  10.569   4.541
82967SOL     OW50732   7.634  11.381   3.619
82967SOL    HW150733   7.614  11.298   3.663
82967SOL    HW250734   7.583  11.377   3.538
82968SOL     OW50735   7.759   4.030   7.133
82968SOL    HW150736   7.811   4.023   7.053
82968SOL    HW250737   7.672   4.055   7.103
82969SOL     OW50738   3.065   7.510  12.526
82969SOL    HW150739   3.144   7.457  12.516
82969SOL    HW250740   3.008   7.484  12.454
82970SOL     OW50741  11.983  14.355  10.666
82970SOL    HW150742  12.073  14.386  10.667
82970SOL    HW250743  11.931  14.432  10.642
82971SOL     OW50744   6.070   5.778  13.688
82971SOL    HW150745   6.124   5.755  13.612
82971SOL    HW250746   6.050   5.693  13.728
82972SOL     OW50747  11.509  13.932  13.429
82972SOL    HW150748  11.506  14.026  13.445
82972SOL    HW250749  11.482  13.893  13.512
82973SOL     OW50750   8.281   3.197   9.091
82973SOL    HW150751   8.192   3.214   9.120
82973SOL    HW250752   8.323   3.283   9.091
82974SOL     OW50753  12.521  13.964  11.249
82974SOL    HW150754  12.550  13.931  11.164
82974SOL    HW250755  12.592  13.940  11.309
82975SOL     OW50756   5.476  10.027  14.323
82975SOL    HW150757   5.498   9.939  14.290
82975SOL    HW250758   5.467  10.016  14.417
82976SOL     OW50759  11.151   9.854   7.010
82976SOL    HW150760  11.125   9.794   6.941
82976SOL    HW250761  11.204   9.920   6.966
82977SOL     OW50762   5.984  14.548   0.271
82977SOL    HW150763   5.932  14.504   0.337
82977SOL    HW250764   6.045  14.603   0.320
82978SOL     OW50765   4.331  14.188   4.251
82978SOL    HW150766   4.332  14.103   4.206
82978SOL    HW250767   4.329  14.252   4.180
82979SOL     OW50768  14.358  11.464   8.173
82979SOL    HW150769  14.280  11.433   8.127
82979SOL    HW250770  14.331  11.470   8.264
82980SOL     OW50771  10.936  14.305  13.265
82980SOL    HW150772  10.887  14.371  13.217
82980SOL    HW250773  10.983  14.256  13.198
82981SOL     OW50774   6.130   2.665   3.280
82981SOL    HW150775   6.048   2.631   3.244
82981SOL    HW250776   6.104   2.746   3.326
82982SOL     OW50777   1.895   4.289   5.385
82982SOL    HW150778   1.844   4.232   5.442
82982SOL    HW250779   1.958   4.332   5.443
82983SOL     OW50780  12.626   2.858   5.870
82983SOL    HW150781  12.543   2.824   5.838
82983SOL    HW250782  12.684   2.782   5.873
82984SOL     OW50783   3.556   9.026  11.886
82984SOL    HW150784   3.471   9.065  11.910
82984SOL    HW250785   3.565   9.044  11.793
82985SOL     OW50786   8.308   8.626  13.781
82985SOL    HW150787   8.321   8.586  13.867
82985SOL    HW250788   8.215   8.614  13.763
82986SOL     OW50789   2.230   9.324   3.239
82986SOL    HW150790   2.200   9.373   3.163
82986SOL    HW250791   2.298   9.266   3.205
82987SOL     OW50792  14.286   4.066   7.212
82987SOL    HW150793  14.239   4.010   7.273
82987SOL    HW250794  14.225   4.137   7.193
82988SOL     OW50795   6.436   4.555   2.306
82988SOL    HW150796   6.518   4.534   2.350
82988SOL    HW250797   6.391   4.615   2.365
82989SOL     OW50798   6.002   6.550  14.323
82989SOL    HW150799   6.003   6.627  14.266
82989SOL    HW250800   5.911   6.544  14.354
82990SOL     OW50801   5.532   3.072   0.190
82990SOL    HW150802   5.612   3.058   0.240
82990SOL    HW250803   5.478   2.995   0.207
82991SOL     OW50804   2.802  13.597   5.774
82991SOL    HW150805   2.767  13.606   5.685
82991SOL    HW250806   2.876  13.658   5.777
82992SOL     OW50807   3.499  11.277   7.912
82992SOL    HW150808   3.414  11.235   7.925
82992SOL    HW250809   3.526  11.251   7.824
82993SOL     OW50810   2.737  13.276   1.321
82993SOL    HW150811   2.718  13.253   1.411
82993SOL    HW250812   2.657  13.254   1.273
82994SOL     OW50813   3.668   2.055   9.414
82994SOL    HW150814   3.736   2.121   9.405
82994SOL    HW250815   3.715   1.972   9.422
82995SOL     OW50816   5.772  13.124   7.804
82995SOL    HW150817   5.723  13.053   7.845
82995SOL    HW250818   5.855  13.083   7.778
82996SOL     OW50819   0.265   2.166   0.398
82996SOL    HW150820   0.289   2.258   0.386
82996SOL    HW250821   0.208   2.146   0.324
82997SOL     OW50822  12.311   0.230  13.541
82997SOL    HW150823  12.385   0.265  13.589
82997SOL    HW250824  12.334   0.138  13.524
82998SOL     OW50825  13.996  12.167   5.548
82998SOL    HW150826  13.994  12.149   5.642
82998SOL    HW250827  13.905  12.186   5.526
82999SOL     OW50828   6.339  13.566  12.666
82999SOL    HW150829   6.307  13.489  12.619
82999SOL    HW250830   6.427  13.541  12.696
83000SOL     OW50831  11.655   7.455  14.139
83000SOL    HW150832  11.715   7.419  14.205
83000SOL    HW250833  11.678   7.409  14.058
83001SOL     OW50834  14.371  11.227  13.868
83001SOL    HW150835  14.314  11.270  13.804
83001SOL    HW250836  14.363  11.280  13.947
83002SOL     OW50837   9.847   6.486   6.505
83002SOL    HW150838   9.855   6.419   6.573
83002SOL    HW250839   9.935   6.493   6.468
83003SOL     OW50840   5.770   9.526   8.880
83003SOL    HW150841   5.759   9.432   8.897
83003SOL    HW250842   5.686   9.554   8.843
83004SOL     OW50843  11.686   6.340   0.466
83004SOL    HW150844  11.625   6.414   0.461
83004SOL    HW250845  11.631   6.266   0.491
83005SOL     OW50846   0.220   7.386  12.711
83005SOL    HW150847   0.288   7.362  12.773
83005SOL    HW250848   0.187   7.470  12.742
83006SOL     OW50849   6.471  14.777   8.153
83006SOL    HW150850   6.567  14.780   8.149
83006SOL    HW250851   6.450  14.686   8.134
83007SOL     OW50852  14.248   6.878   4.453
83007SOL    HW150853  14.243   6.788   4.423
83007SOL    HW250854  14.337   6.889   4.485
83008SOL     OW50855   7.933   5.714  14.638
83008SOL    HW150856   7.929   5.810  14.644
83008SOL    HW250857   7.883   5.683  14.713
83009SOL     OW50858   1.802   1.740   9.929
83009SOL    HW150859   1.857   1.779   9.997
83009SOL    HW250860   1.726   1.798   9.924
83010SOL     OW50861   1.231   5.948   3.561
83010SOL    HW150862   1.293   6.020   3.572
83010SOL    HW250863   1.241   5.921   3.470
83011SOL     OW50864   9.807   2.409   3.946
83011SOL    HW150865   9.900   2.430   3.951
83011SOL    HW250866   9.790   2.356   4.024
83012SOL     OW50867   0.007  11.075   8.470
83012SOL    HW150868   0.011  10.990   8.425
83012SOL    HW250869  14.844  11.055   8.555
83013SOL     OW50870   9.593  11.389   9.263
83013SOL    HW150871   9.652  11.447   9.213
83013SOL    HW250872   9.628  11.390   9.352
83014SOL     OW50873   6.310   0.591   3.764
83014SOL    HW150874   6.272   0.647   3.696
83014SOL    HW250875   6.331   0.509   3.718
83015SOL     OW50876   3.132   7.288   7.863
83015SOL    HW150877   3.125   7.358   7.927
83015SOL    HW250878   3.211   7.309   7.813
83016SOL     OW50879   9.617   8.948   4.175
83016SOL    HW150880   9.691   8.954   4.115
83016SOL    HW250881   9.549   8.902   4.125
83017SOL     OW50882   8.084   5.850   0.654
83017SOL    HW150883   8.020   5.874   0.586
83017SOL    HW250884   8.097   5.930   0.704
83018SOL     OW50885   7.759   2.559   4.394
83018SOL    HW150886   7.702   2.635   4.383
83018SOL    HW250887   7.725   2.495   4.331
83019SOL     OW50888  11.266   9.072  14.428
83019SOL    HW150889  11.292   9.121  14.350
83019SOL    HW250890  11.178   9.040  14.408
83020SOL     OW50891   4.313  10.730  10.644
83020SOL    HW150892   4.368  10.753  10.569
83020SOL    HW250893   4.366  10.668  10.694
83021SOL     OW50894   6.429  10.615   6.446
83021SOL    HW150895   6.367  10.670   6.398
83021SOL    HW250896   6.376  10.572   6.513
83022SOL     OW50897  10.233   7.593   8.762
83022SOL    HW150898  10.147   7.634   8.752
83022SOL    HW250899  10.224   7.533   8.836
83023SOL     OW50900   7.923   9.916   7.920
83023SOL    HW150901   7.960   9.953   8.000
83023SOL    HW250902   7.829   9.915   7.935
83024SOL     OW50903   1.733  12.504  11.388
83024SOL    HW150904   1.713  12.520  11.295
83024SOL    HW250905   1.828  12.520  11.395
83025SOL     OW50906  11.110  11.918  11.723
83025SOL    HW150907  11.175  11.849  11.737
83025SOL    HW250908  11.161  11.999  11.728
83026SOL     OW50909  12.782   6.808   0.396
83026SOL    HW150910  12.854   6.838   0.451
83026SOL    HW250911  12.749   6.730   0.440
83027SOL     OW50912  14.018  13.554   5.010
83027SOL    HW150913  13.979  13.475   4.973
83027SOL    HW250914  13.987  13.556   5.101
83028SOL     OW50915  14.094   7.220   8.795
83028SOL    HW150916  14.092   7.237   8.890
83028SOL    HW250917  14.034   7.285   8.758
83029SOL     OW50918   9.133   8.797  11.465
83029SOL    HW150919   9.137   8.813  11.560
83029SOL    HW250920   9.213   8.838  11.431
83030SOL     OW50921   1.746   4.185   0.013
83030SOL    HW150922   1.676   4.194   0.078
83030SOL    HW250923   1.817   4.142   0.059
83031SOL     OW50924  10.487   5.555   5.628
83031SOL    HW150925  10.466   5.461   5.633
83031SOL    HW250926  10.559   5.560   5.566
83032SOL     OW50927   4.816   2.454   4.435
83032SOL    HW150928   4.880   2.514   4.397
83032SOL    HW250929   4.735   2.505   4.439
83033SOL     OW50930   2.643   0.218   6.612
83033SOL    HW150931   2.612   0.206   6.702
83033SOL    HW250932   2.609   0.141   6.565
83034SOL     OW50933   9.654  14.184   0.958
83034SOL    HW150934   9.578  14.142   0.999
83034SOL    HW250935   9.701  14.223   1.031
83035SOL     OW50936   5.869   0.456  13.810
83035SOL    HW150937   5.888   0.434  13.718
83035SOL    HW250938   5.874   0.552  13.812
83036SOL     OW50939   4.993  12.300   9.670
83036SOL    HW150940   5.014  12.354   9.594
83036SOL    HW250941   5.030  12.347   9.744
83037SOL     OW50942   6.596  11.960   2.515
83037SOL    HW150943   6.585  12.012   2.595
83037SOL    HW250944   6.583  12.023   2.444
83038SOL     OW50945   5.372   7.291   1.332
83038SOL    HW150946   5.289   7.335   1.354
83038SOL    HW250947   5.354   7.246   1.250
83039SOL     OW50948  10.335   7.260   5.269
83039SOL    HW150949  10.290   7.345   5.258
83039SOL    HW250950  10.364   7.260   5.360
83040SOL     OW50951  11.141  12.808   1.899
83040SOL    HW150952  11.227  12.838   1.930
83040SOL    HW250953  11.120  12.733   1.955
83041SOL     OW50954   9.250  10.858   7.978
83041SOL    HW150955   9.254  10.839   7.884
83041SOL    HW250956   9.181  10.802   8.012
83042SOL     OW50957   0.656   9.751   2.022
83042SOL    HW150958   0.567   9.734   2.053
83042SOL    HW250959   0.693   9.810   2.088
83043SOL     OW50960  13.586   4.165  11.031
83043SOL    HW150961  13.561   4.257  11.041
83043SOL    HW250962  13.542   4.137  10.950
83044SOL     OW50963   0.515   6.258   4.172
83044SOL    HW150964   0.447   6.190   4.172
83044SOL    HW250965   0.587   6.220   4.223
83045SOL     OW50966   9.356   1.143   4.005
83045SOL    HW150967   9.396   1.068   4.048
83045SOL    HW250968   9.417   1.216   4.022
83046SOL     OW50969   3.812   8.935   6.865
83046SOL    HW150970   3.847   8.885   6.792
83046SOL    HW250971   3.883   8.938   6.929
83047SOL     OW50972  14.129  11.228  14.085
83047SOL    HW150973  14.100  11.181  14.163
83047SOL    HW250974  14.215  11.263  14.108
83048SOL     OW50975  11.974   7.349   1.871
83048SOL    HW150976  11.948   7.278   1.930
83048SOL    HW250977  12.064   7.328   1.847
83049SOL     OW50978   7.972   7.801   5.869
83049SOL    HW150979   7.983   7.873   5.931
83049SOL    HW250980   7.885   7.766   5.888
83050SOL     OW50981   5.443  11.674  10.553
83050SOL    HW150982   5.352  11.688  10.578
83050SOL    HW250983   5.490  11.670  10.637
83051SOL     OW50984   8.732   5.461   6.357
83051SOL    HW150985   8.816   5.501   6.380
83051SOL    HW250986   8.713   5.493   6.269
83052SOL     OW50987  14.765   5.761   5.780
83052SOL    HW150988  14.745   5.830   5.717
83052SOL    HW250989  14.785   5.807   5.861
83053SOL     OW50990   0.192   1.578  10.159
83053SOL    HW150991   0.261   1.644  10.145
83053SOL    HW250992   0.117   1.612  10.111
83054SOL     OW50993   9.686   4.107  12.044
83054SOL    HW150994   9.758   4.045  12.058
83054SOL    HW250995   9.713   4.185  12.093
83055SOL     OW50996   5.012  11.950  14.772
83055SOL    HW150997   4.977  11.947  14.861
83055SOL    HW250998   5.021  12.043  14.752
83056SOL     OW50999   7.565   2.336   8.728
83056SOL    HW151000   7.618   2.284   8.668
83056SOL    HW251001   7.582   2.298   8.814
83057SOL     OW51002   8.949   9.095  13.958
83057SOL    HW151003   8.904   9.085  13.874
83057SOL    HW251004   8.960   9.006  13.990
83058SOL     OW51005  12.710   5.622   2.895
83058SOL    HW151006  12.659   5.571   2.958
83058SOL    HW251007  12.758   5.556   2.844
83059SOL     OW51008   0.377  12.427   1.712
83059SOL    HW151009   0.347  12.337   1.712
83059SOL    HW251010   0.402  12.444   1.803
83060SOL     OW51011  10.816   9.307   7.800
83060SOL    HW151012  10.762   9.271   7.730
83060SOL    HW251013  10.881   9.361   7.755
83061SOL     OW51014   5.012   1.652  10.609
83061SOL    HW151015   4.921   1.652  10.579
83061SOL    HW251016   5.063   1.656  10.528
83062SOL     OW51017   0.370  11.998   5.758
83062SOL    HW151018   0.453  11.950   5.763
83062SOL    HW251019   0.386  12.067   5.693
83063SOL     OW51020   7.564   9.395   7.332
83063SOL    HW151021   7.532   9.481   7.358
83063SOL    HW251022   7.488   9.338   7.336
83064SOL     OW51023   8.127   7.548   5.932
83064SOL    HW151024   8.128   7.532   5.838
83064SOL    HW251025   8.078   7.630   5.942
83065SOL     OW51026   4.992  13.940   4.593
83065SOL    HW151027   5.010  14.033   4.575
83065SOL    HW251028   4.999  13.932   4.688
83066SOL     OW51029   3.754   8.049   3.104
83066SOL    HW151030   3.673   8.099   3.091
83066SOL    HW251031   3.742   7.969   3.052
83067SOL     OW51032   6.572   3.085  12.669
83067SOL    HW151033   6.570   2.991  12.687
83067SOL    HW251034   6.562   3.092  12.574
83068SOL     OW51035  12.797   5.946  13.034
83068SOL    HW151036  12.886   5.979  13.020
83068SOL    HW251037  12.789   5.938  13.129
83069SOL     OW51038  10.109   8.198   0.395
83069SOL    HW151039  10.033   8.153   0.357
83069SOL    HW251040  10.100   8.289   0.368
83070SOL     OW51041  11.627  13.700   8.824
83070SOL    HW151042  11.687  13.655   8.884
83070SOL    HW251043  11.647  13.793   8.834
83071SOL     OW51044   6.682   9.187   4.999
83071SOL    HW151045   6.643   9.256   4.945
83071SOL    HW251046   6.637   9.195   5.083
83072SOL     OW51047   9.775   0.093   0.281
83072SOL    HW151048   9.773   0.095   0.185
83072SOL    HW251049   9.868   0.103   0.303
83073SOL     OW51050   4.957   5.211  12.053
83073SOL    HW151051   5.051   5.199  12.040
83073SOL    HW251052   4.944   5.207  12.148
83074SOL     OW51053  13.568   4.630  14.738
83074SOL    HW151054  13.603   4.563  14.680
83074SOL    HW251055  13.590   4.600  14.826
83075SOL     OW51056   4.726  13.465   4.861
83075SOL    HW151057   4.654  13.463   4.923
83075SOL    HW251058   4.760  13.376   4.860
83076SOL     OW51059  12.946   0.627  13.585
83076SOL    HW151060  12.890   0.699  13.557
83076SOL    HW251061  13.001   0.609  13.508
83077SOL     OW51062   9.459   7.178   5.549
83077SOL    HW151063   9.535   7.184   5.490
83077SOL    HW251064   9.467   7.254   5.606
83078SOL     OW51065   7.419  12.519   6.000
83078SOL    HW151066   7.391  12.501   5.910
83078SOL    HW251067   7.348  12.486   6.055
83079SOL     OW51068   5.727  13.934   2.084
83079SOL    HW151069   5.680  13.877   2.145
83079SOL    HW251070   5.666  14.004   2.064
83080SOL     OW51071  12.128   0.170   7.841
83080SOL    HW151072  12.163   0.139   7.757
83080SOL    HW251073  12.129   0.265   7.834
83081SOL     OW51074  10.905   8.098   2.801
83081SOL    HW151075  10.845   8.145   2.860
83081SOL    HW251076  10.962   8.166   2.767
83082SOL     OW51077   9.002   6.859   8.656
83082SOL    HW151078   9.085   6.896   8.688
83082SOL    HW251079   8.939   6.930   8.668
83083SOL     OW51080   1.865   8.739   5.856
83083SOL    HW151081   1.916   8.671   5.812
83083SOL    HW251082   1.901   8.741   5.945
83084SOL     OW51083   7.686   1.721   7.343
83084SOL    HW151084   7.771   1.765   7.334
83084SOL    HW251085   7.666   1.725   7.436
83085SOL     OW51086  14.299  11.277   9.124
83085SOL    HW151087  14.389  11.258   9.151
83085SOL    HW251088  14.289  11.371   9.139
83086SOL     OW51089  11.190   9.485  13.762
83086SOL    HW151090  11.245   9.406  13.766
83086SOL    HW251091  11.103   9.452  13.738
83087SOL     OW51092   3.042   8.744   1.781
83087SOL    HW151093   3.115   8.804   1.765
83087SOL    HW251094   3.006   8.726   1.695
83088SOL     OW51095  14.827   9.887   8.918
83088SOL    HW151096  14.785   9.890   9.004
83088SOL    HW251097   0.027   9.830   8.931
83089SOL     OW51098   7.994   9.300   6.949
83089SOL    HW151099   8.082   9.290   6.985
83089SOL    HW251100   8.001   9.268   6.859
83090SOL     OW51101   8.992  14.381  11.627
83090SOL    HW151102   8.947  14.347  11.550
83090SOL    HW251103   9.079  14.405  11.596
83091SOL     OW51104   4.824  13.040   2.741
83091SOL    HW151105   4.788  13.064   2.827
83091SOL    HW251106   4.763  12.973   2.709
83092SOL     OW51107  13.758   0.610  10.935
83092SOL    HW151108  13.743   0.700  10.962
83092SOL    HW251109  13.791   0.617  10.846
83093SOL     OW51110  11.726   1.915   6.568
83093SOL    HW151111  11.796   1.850   6.581
83093SOL    HW251112  11.680   1.917   6.652
83094SOL     OW51113   4.952  14.107   9.760
83094SOL    HW151114   4.962  14.087   9.853
83094SOL    HW251115   4.859  14.093   9.742
83095SOL     OW51116  13.860  13.796  11.813
83095SOL    HW151117  13.811  13.875  11.789
83095SOL    HW251118  13.919  13.781  11.739
83096SOL     OW51119   5.992  12.078   1.360
83096SOL    HW151120   5.914  12.038   1.399
83096SOL    HW251121   5.980  12.066   1.265
83097SOL     OW51122  14.181  14.771   9.702
83097SOL    HW151123  14.267  14.747   9.667
83097SOL    HW251124  14.162  14.703   9.767
83098SOL     OW51125   8.248   6.714  14.777
83098SOL    HW151126   8.205   6.790  14.739
83098SOL    HW251127   8.176   6.660  14.810
83099SOL     OW51128   6.943   5.992   6.276
83099SOL    HW151129   6.901   6.065   6.231
83099SOL    HW251130   6.941   5.920   6.214
83100SOL     OW51131   2.814   0.180   4.858
83100SOL    HW151132   2.789   0.153   4.946
83100SOL    HW251133   2.903   0.214   4.867
83101SOL     OW51134  12.692   4.715   9.270
83101SOL    HW151135  12.713   4.690   9.180
83101SOL    HW251136  12.602   4.748   9.266
83102SOL     OW51137   2.483  12.828   5.523
83102SOL    HW151138   2.531  12.861   5.446
83102SOL    HW251139   2.453  12.907   5.568
83103SOL     OW51140   5.170   5.041  13.207
83103SOL    HW151141   5.253   4.995  13.203
83103SOL    HW251142   5.163   5.070  13.298
83104SOL     OW51143   2.822   8.082   4.594
83104SOL    HW151144   2.757   8.119   4.533
83104SOL    HW251145   2.903   8.126   4.570
83105SOL     OW51146   6.398   1.366   7.127
83105SOL    HW151147   6.320   1.395   7.080
83105SOL    HW251148   6.385   1.271   7.137
83106SOL     OW51149  11.758  14.870   1.529
83106SOL    HW151150  11.757  14.823   1.613
83106SOL    HW251151  11.703   0.071   1.544
83107SOL     OW51152   1.217  14.100   4.797
83107SOL    HW151153   1.248  14.020   4.840
83107SOL    HW251154   1.158  14.069   4.728
83108SOL     OW51155   1.142  12.945  12.160
83108SOL    HW151156   1.101  12.972  12.078
83108SOL    HW251157   1.168  12.854  12.144
83109SOL     OW51158   4.635   1.967   6.915
83109SOL    HW151159   4.677   2.052   6.902
83109SOL    HW251160   4.669   1.913   6.844
83110SOL     OW51161   6.410  11.882  14.583
83110SOL    HW151162   6.363  11.963  14.565
83110SOL    HW251163   6.343  11.814  14.577
83111SOL     OW51164   7.552   2.889   6.330
83111SOL    HW151165   7.472   2.852   6.293
83111SOL    HW251166   7.527   2.919   6.417
83112SOL     OW51167   1.868  10.894  11.811
83112SOL    HW151168   1.932  10.935  11.752
83112SOL    HW251169   1.879  10.942  11.894
83113SOL     OW51170   7.773   0.218   8.641
83113SOL    HW151171   7.851   0.171   8.669
83113SOL    HW251172   7.740   0.169   8.566
83114SOL     OW51173   3.135  10.601  13.022
83114SOL    HW151174   3.102  10.565  12.940
83114SOL    HW251175   3.143  10.695  13.005
83115SOL     OW51176  14.650   8.214   9.555
83115SOL    HW151177  14.575   8.272   9.570
83115SOL    HW251178  14.702   8.223   9.635
83116SOL     OW51179  14.273  10.330   1.384
83116SOL    HW151180  14.282  10.389   1.459
83116SOL    HW251181  14.363  10.316   1.354
83117SOL     OW51182  11.442   6.875   1.202
83117SOL    HW151183  11.530   6.872   1.239
83117SOL    HW251184  11.412   6.784   1.203
83118SOL     OW51185  13.954   6.886  14.313
83118SOL    HW151186  13.871   6.897  14.359
83118SOL    HW251187  13.930   6.886  14.220
83119SOL     OW51188   6.390  10.857   8.731
83119SOL    HW151189   6.324  10.854   8.662
83119SOL    HW251190   6.339  10.860   8.812
83120SOL     OW51191   4.968   0.823  13.413
83120SOL    HW151192   5.026   0.756  13.448
83120SOL    HW251193   5.025   0.882  13.364
83121SOL     OW51194  14.093   3.642   1.291
83121SOL    HW151195  14.066   3.550   1.289
83121SOL    HW251196  14.144   3.654   1.211
83122SOL     OW51197   0.583  10.909   8.953
83122SOL    HW151198   0.514  10.860   8.909
83122SOL    HW251199   0.663  10.884   8.908
83123SOL     OW51200   8.828  10.389   0.573
83123SOL    HW151201   8.872  10.304   0.561
83123SOL    HW251202   8.784  10.405   0.489
83124SOL     OW51203   2.721  11.872  14.708
83124SOL    HW151204   2.787  11.917  14.656
83124SOL    HW251205   2.696  11.796  14.655
83125SOL     OW51206  13.119   6.545   9.701
83125SOL    HW151207  13.177   6.526   9.775
83125SOL    HW251208  13.050   6.600   9.738
83126SOL     OW51209   7.135   2.995   1.272
83126SOL    HW151210   7.143   2.953   1.186
83126SOL    HW251211   7.095   3.079   1.254
83127SOL     OW51212   4.160   4.840   8.432
83127SOL    HW151213   4.195   4.808   8.515
83127SOL    HW251214   4.143   4.933   8.447
83128SOL     OW51215  12.337   9.337  14.006
83128SOL    HW151216  12.313   9.426  13.978
83128SOL    HW251217  12.268   9.312  14.067
83129SOL     OW51218   9.319   0.713   3.154
83129SOL    HW151219   9.309   0.808   3.149
83129SOL    HW251220   9.284   0.689   3.240
83130SOL     OW51221  10.746   6.284   1.769
83130SOL    HW151222  10.722   6.361   1.716
83130SOL    HW251223  10.827   6.310   1.813
83131SOL     OW51224   5.296   9.492   1.147
83131SOL    HW151225   5.265   9.429   1.081
83131SOL    HW251226   5.299   9.576   1.101
83132SOL     OW51227  10.410   0.440  12.604
83132SOL    HW151228  10.442   0.510  12.548
83132SOL    HW251229  10.342   0.397  12.552
83133SOL     OW51230   9.831   5.981   0.855
83133SOL    HW151231   9.745   6.024   0.860
83133SOL    HW251232   9.832   5.939   0.770
83134SOL     OW51233   1.444   0.395   3.983
83134SOL    HW151234   1.533   0.384   3.950
83134SOL    HW251235   1.451   0.467   4.046
83135SOL     OW51236  12.062   1.758  14.000
83135SOL    HW151237  12.150   1.794  14.015
83135SOL    HW251238  12.075   1.694  13.929
83136SOL     OW51239  10.393   8.500   7.142
83136SOL    HW151240  10.333   8.515   7.215
83136SOL    HW251241  10.337   8.496   7.064
83137SOL     OW51242   9.812  10.803   9.554
83137SOL    HW151243   9.763  10.878   9.587
83137SOL    HW251244   9.859  10.770   9.630
83138SOL     OW51245   4.054  10.738  10.741
83138SOL    HW151246   4.031  10.828  10.767
83138SOL    HW251247   4.142  10.745  10.705
83139SOL     OW51248  13.504   6.763   1.422
83139SOL    HW151249  13.540   6.675   1.409
83139SOL    HW251250  13.556   6.819   1.365
83140SOL     OW51251   2.726   9.069   1.143
83140SOL    HW151252   2.817   9.070   1.171
83140SOL    HW251253   2.688   8.992   1.185
83141SOL     OW51254   1.090   9.617   2.024
83141SOL    HW151255   1.081   9.699   1.976
83141SOL    HW251256   1.184   9.598   2.023
83142SOL     OW51257  10.886  13.255   1.853
83142SOL    HW151258  10.898  13.207   1.935
83142SOL    HW251259  10.896  13.347   1.878
83143SOL     OW51260   1.987   9.580  14.239
83143SOL    HW151261   1.913   9.589  14.300
83143SOL    HW251262   1.988   9.662  14.191
83144SOL     OW51263   6.027   5.938  14.820
83144SOL    HW151264   6.091   5.962  14.753
83144SOL    HW251265   6.053   5.988   0.021
83145SOL     OW51266  11.193  11.847   0.463
83145SOL    HW151267  11.245  11.897   0.400
83145SOL    HW251268  11.108  11.890   0.465
83146SOL     OW51269   7.839   0.773   8.588
83146SOL    HW151270   7.847   0.693   8.640
83146SOL    HW251271   7.760   0.815   8.621
83147SOL     OW51272   1.809   0.231   8.067
83147SOL    HW151273   1.798   0.136   8.060
83147SOL    HW251274   1.730   0.261   8.112
83148SOL     OW51275   4.679  10.967  12.526
83148SOL    HW151276   4.667  10.917  12.445
83148SOL    HW251277   4.709  11.053  12.496
83149SOL     OW51278  11.938   8.195  12.788
83149SOL    HW151279  11.853   8.232  12.810
83149SOL    HW251280  11.951   8.126  12.854
83150SOL     OW51281   4.983   9.532   7.348
83150SOL    HW151282   5.058   9.503   7.400
83150SOL    HW251283   5.009   9.516   7.258
83151SOL     OW51284   0.457   0.470  10.756
83151SOL    HW151285   0.448   0.495  10.848
83151SOL    HW251286   0.388   0.404  10.743
83152SOL     OW51287  10.252   7.201  14.196
83152SOL    HW151288  10.249   7.291  14.163
83152SOL    HW251289  10.345   7.182  14.204
83153SOL     OW51290   2.594  11.883  12.947
83153SOL    HW151291   2.533  11.938  12.897
83153SOL    HW251292   2.556  11.878  13.034
83154SOL     OW51293  11.197   4.508  10.598
83154SOL    HW151294  11.217   4.593  10.637
83154SOL    HW251295  11.181   4.451  10.673
83155SOL     OW51296   7.002   0.958   4.525
83155SOL    HW151297   6.997   0.914   4.440
83155SOL    HW251298   6.969   1.046   4.508
83156SOL     OW51299   9.272   8.672  13.688
83156SOL    HW151300   9.202   8.658  13.624
83156SOL    HW251301   9.258   8.761  13.720
83157SOL     OW51302   9.340   4.856   2.636
83157SOL    HW151303   9.397   4.825   2.567
83157SOL    HW251304   9.388   4.838   2.717
83158SOL     OW51305   4.215   7.979  13.559
83158SOL    HW151306   4.161   7.916  13.511
83158SOL    HW251307   4.292   7.992  13.503
83159SOL     OW51308   4.010   0.830  13.648
83159SOL    HW151309   4.074   0.811  13.580
83159SOL    HW251310   4.036   0.774  13.722
83160SOL     OW51311   9.768   2.957   1.306
83160SOL    HW151312   9.730   2.872   1.330
83160SOL    HW251313   9.816   2.940   1.225
83161SOL     OW51314   5.808   3.929   4.741
83161SOL    HW151315   5.891   3.962   4.706
83161SOL    HW251316   5.789   3.852   4.687
83162SOL     OW51317   9.582   5.961  11.095
83162SOL    HW151318   9.516   5.939  11.028
83162SOL    HW251319   9.635   5.882  11.103
83163SOL     OW51320  13.067  13.234  14.563
83163SOL    HW151321  13.039  13.170  14.498
83163SOL    HW251322  13.153  13.203  14.592
83164SOL     OW51323   2.798   3.782  13.533
83164SOL    HW151324   2.870   3.833  13.495
83164SOL    HW251325   2.783   3.822  13.618
83165SOL     OW51326   1.199   6.207   7.758
83165SOL    HW151327   1.123   6.241   7.710
83165SOL    HW251328   1.271   6.263   7.732
83166SOL     OW51329  10.260  14.818   4.006
83166SOL    HW151330  10.250   0.003   4.078
83166SOL    HW251331  10.171  14.789   3.987
83167SOL     OW51332   2.206   5.451   0.561
83167SOL    HW151333   2.146   5.526   0.564
83167SOL    HW251334   2.292   5.488   0.580
83168SOL     OW51335   4.692  13.288   5.536
83168SOL    HW151336   4.772  13.335   5.562
83168SOL    HW251337   4.722  13.227   5.469
83169SOL     OW51338   1.818   5.004  14.481
83169SOL    HW151339   1.860   5.076  14.527
83169SOL    HW251340   1.792   4.943  14.550
83170SOL     OW51341  11.807   1.214  10.967
83170SOL    HW151342  11.760   1.131  10.970
83170SOL    HW251343  11.856   1.212  10.885
83171SOL     OW51344  12.614   6.067   1.561
83171SOL    HW151345  12.579   6.035   1.644
83171SOL    HW251346  12.537   6.094   1.511
83172SOL     OW51347   8.205   5.824   5.775
83172SOL    HW151348   8.236   5.783   5.856
83172SOL    HW251349   8.156   5.754   5.731
83173SOL     OW51350   0.674  10.141   3.656
83173SOL    HW151351   0.583  10.163   3.638
83173SOL    HW251352   0.724  10.195   3.595
83174SOL     OW51353  10.156   7.973   1.655
83174SOL    HW151354  10.159   7.910   1.584
83174SOL    HW251355  10.062   7.982   1.675
83175SOL     OW51356  14.509   0.175  11.275
83175SOL    HW151357  14.571   0.247  11.267
83175SOL    HW251358  14.558   0.105  11.316
83176SOL     OW51359   2.964   6.830   8.315
83176SOL    HW151360   2.960   6.816   8.410
83176SOL    HW251361   2.913   6.758   8.278
83177SOL     OW51362  12.669   8.733   7.296
83177SOL    HW151363  12.680   8.690   7.381
83177SOL    HW251364  12.615   8.673   7.245
83178SOL     OW51365  14.822   2.068   7.642
83178SOL    HW151366  14.752   2.091   7.704
83178SOL    HW251367   0.026   2.088   7.690
83179SOL     OW51368   5.568  13.647   5.597
83179SOL    HW151369   5.565  13.614   5.508
83179SOL    HW251370   5.604  13.575   5.648
83180SOL     OW51371  10.416   5.881  12.186
83180SOL    HW151372  10.382   5.947  12.247
83180SOL    HW251373  10.341   5.858  12.132
83181SOL     OW51374   0.968   8.388   2.845
83181SOL    HW151375   0.997   8.463   2.897
83181SOL    HW251376   0.940   8.426   2.762
83182SOL     OW51377   6.936  13.138   4.912
83182SOL    HW151378   6.942  13.091   4.829
83182SOL    HW251379   6.933  13.230   4.887
83183SOL     OW51380   7.832  12.356   6.862
83183SOL    HW151381   7.832  12.433   6.804
83183SOL    HW251382   7.923  12.347   6.889
83184SOL     OW51383  10.455   0.707   9.735
83184SOL    HW151384  10.410   0.622   9.730
83184SOL    HW251385  10.422   0.755   9.660
83185SOL     OW51386   0.707   9.467   4.415
83185SOL    HW151387   0.643   9.398   4.426
83185SOL    HW251388   0.666   9.528   4.353
83186SOL     OW51389   5.461   8.031   1.997
83186SOL    HW151390   5.527   8.019   2.065
83186SOL    HW251391   5.383   7.987   2.032
83187SOL     OW51392   3.781  10.842  14.457
83187SOL    HW151393   3.747  10.776  14.396
83187SOL    HW251394   3.812  10.791  14.532
83188SOL     OW51395   2.755   6.044   4.873
83188SOL    HW151396   2.676   6.095   4.852
83188SOL    HW251397   2.824   6.088   4.824
83189SOL     OW51398   2.476   8.868   6.567
83189SOL    HW151399   2.564   8.899   6.587
83189SOL    HW251400   2.452   8.812   6.640
83190SOL     OW51401  13.975   8.771  12.173
83190SOL    HW151402  13.884   8.793  12.193
83190SOL    HW251403  13.988   8.801  12.083
83191SOL     OW51404   3.006   9.877  11.710
83191SOL    HW151405   2.962   9.813  11.765
83191SOL    HW251406   3.060   9.928  11.770
83192SOL     OW51407   3.450   3.066   2.769
83192SOL    HW151408   3.450   3.152   2.727
83192SOL    HW251409   3.454   3.085   2.863
83193SOL     OW51410   3.220  12.536   0.456
83193SOL    HW151411   3.151  12.555   0.392
83193SOL    HW251412   3.173  12.524   0.538
83194SOL     OW51413   4.021  10.312  13.057
83194SOL    HW151414   4.101  10.289  13.104
83194SOL    HW251415   4.028  10.266  12.973
83195SOL     OW51416  13.215  11.098   7.521
83195SOL    HW151417  13.148  11.166   7.527
83195SOL    HW251418  13.259  11.115   7.438
83196SOL     OW51419   0.914   5.353  10.732
83196SOL    HW151420   0.951   5.310  10.655
83196SOL    HW251421   0.948   5.304  10.806
83197SOL     OW51422   9.206  10.794   1.792
83197SOL    HW151423   9.241  10.834   1.871
83197SOL    HW251424   9.283  10.781   1.736
83198SOL     OW51425   8.134   1.616   6.930
83198SOL    HW151426   8.083   1.682   6.978
83198SOL    HW251427   8.153   1.658   6.846
83199SOL     OW51428  11.214   4.960   5.348
83199SOL    HW151429  11.300   4.919   5.347
83199SOL    HW251430  11.188   4.958   5.440
83200SOL     OW51431  14.746  11.966  10.582
83200SOL    HW151432  14.673  11.951  10.642
83200SOL    HW251433  14.797  12.036  10.623
83201SOL     OW51434   2.507   1.822   8.205
83201SOL    HW151435   2.515   1.900   8.259
83201SOL    HW251436   2.595   1.807   8.171
83202SOL     OW51437   3.605  14.337   1.137
83202SOL    HW151438   3.574  14.262   1.188
83202SOL    HW251439   3.698  14.343   1.157
83203SOL     OW51440   5.470   5.368  10.501
83203SOL    HW151441   5.456   5.462  10.517
83203SOL    HW251442   5.540   5.365  10.435
83204SOL     OW51443  10.314   3.776   3.715
83204SOL    HW151444  10.394   3.810   3.755
83204SOL    HW251445  10.254   3.851   3.714
83205SOL     OW51446   3.534   6.236   4.930
83205SOL    HW151447   3.605   6.285   4.972
83205SOL    HW251448   3.572   6.205   4.848
83206SOL     OW51449   1.529   9.450   6.985
83206SOL    HW151450   1.500   9.393   7.056
83206SOL    HW251451   1.622   9.466   7.002
83207SOL     OW51452   5.603  13.136  12.978
83207SOL    HW151453   5.649  13.054  12.961
83207SOL    HW251454   5.536  13.112  13.042
83208SOL     OW51455  13.763   1.707  10.524
83208SOL    HW151456  13.783   1.772  10.457
83208SOL    HW251457  13.815   1.734  10.600
83209SOL     OW51458  11.261   5.090  10.707
83209SOL    HW151459  11.269   5.148  10.631
83209SOL    HW251460  11.243   5.004  10.669
83210SOL     OW51461   0.757  14.835  11.765
83210SOL    HW151462   0.732  14.865  11.852
83210SOL    HW251463   0.696   0.004  11.706
83211SOL     OW51464   8.332   0.201   2.641
83211SOL    HW151465   8.322   0.110   2.611
83211SOL    HW251466   8.243   0.226   2.667
83212SOL     OW51467   1.121   0.834   6.220
83212SOL    HW151468   1.041   0.811   6.268
83212SOL    HW251469   1.192   0.813   6.281
83213SOL     OW51470   4.083   3.997   7.351
83213SOL    HW151471   4.158   4.041   7.392
83213SOL    HW251472   4.099   4.007   7.257
83214SOL     OW51473  12.467   9.559  11.028
83214SOL    HW151474  12.440   9.635  11.079
83214SOL    HW251475  12.550   9.532  11.067
83215SOL     OW51476  13.667  10.340  13.097
83215SOL    HW151477  13.745  10.340  13.042
83215SOL    HW251478  13.699  10.320  13.185
83216SOL     OW51479   4.187   0.748  10.633
83216SOL    HW151480   4.240   0.799  10.572
83216SOL    HW251481   4.100   0.787  10.627
83217SOL     OW51482   3.100  13.515  14.266
83217SOL    HW151483   3.098  13.550  14.177
83217SOL    HW251484   3.124  13.423  14.256
83218SOL     OW51485   3.651   5.958  12.434
83218SOL    HW151486   3.581   5.946  12.498
83218SOL    HW251487   3.620   5.912  12.356
83219SOL     OW51488   6.967   6.441  14.603
83219SOL    HW151489   6.937   6.387  14.676
83219SOL    HW251490   7.036   6.496  14.641
83220SOL     OW51491   4.516   6.927   7.645
83220SOL    HW151492   4.474   6.965   7.723
83220SOL    HW251493   4.598   6.890   7.678
83221SOL     OW51494   5.413   8.878  12.834
83221SOL    HW151495   5.420   8.943  12.904
83221SOL    HW251496   5.502   8.842  12.826
83222SOL     OW51497  13.253   3.437   8.083
83222SOL    HW151498  13.183   3.371   8.088
83222SOL    HW251499  13.309   3.418   8.158
83223SOL     OW51500  13.144   4.855  12.110
83223SOL    HW151501  13.219   4.908  12.136
83223SOL    HW251502  13.077   4.873  12.176
83224SOL     OW51503   4.332  14.237  14.565
83224SOL    HW151504   4.323  14.145  14.540
83224SOL    HW251505   4.384  14.276  14.494
83225SOL     OW51506  11.023   0.548   5.410
83225SOL    HW151507  10.990   0.623   5.459
83225SOL    HW251508  10.943   0.501   5.383
83226SOL     OW51509   7.358   6.949  11.752
83226SOL    HW151510   7.387   6.861  11.775
83226SOL    HW251511   7.421   6.979  11.687
83227SOL     OW51512   6.008   1.361  12.692
83227SOL    HW151513   6.011   1.428  12.761
83227SOL    HW251514   6.099   1.332  12.683
83228SOL     OW51515   4.311   4.791   5.230
83228SOL    HW151516   4.285   4.846   5.156
83228SOL    HW251517   4.242   4.725   5.235
83229SOL     OW51518   7.183  10.931   6.043
83229SOL    HW151519   7.214  10.856   5.993
83229SOL    HW251520   7.110  10.897   6.094
83230SOL     OW51521   2.379  12.860   0.227
83230SOL    HW151522   2.458  12.860   0.282
83230SOL    HW251523   2.307  12.872   0.289
83231SOL     OW51524   6.920  14.294   4.410
83231SOL    HW151525   7.004  14.337   4.395
83231SOL    HW251526   6.895  14.261   4.323
83232SOL     OW51527   6.835   1.319  14.149
83232SOL    HW151528   6.823   1.390  14.086
83232SOL    HW251529   6.898   1.260  14.108
83233SOL     OW51530  11.910   9.308   1.104
83233SOL    HW151531  11.837   9.370   1.112
83233SOL    HW251532  11.907   9.257   1.184
83234SOL     OW51533  11.289  13.172  10.317
83234SOL    HW151534  11.274  13.157  10.224
83234SOL    HW251535  11.224  13.117  10.361
83235SOL     OW51536  11.133  10.806  12.076
83235SOL    HW151537  11.201  10.816  12.010
83235SOL    HW251538  11.168  10.742  12.137
83236SOL     OW51539  12.308   8.571  13.000
83236SOL    HW151540  12.218   8.592  13.022
83236SOL    HW251541  12.361   8.619  13.064
83237SOL     OW51542  10.968  11.531   2.114
83237SOL    HW151543  11.004  11.535   2.202
83237SOL    HW251544  11.005  11.607   2.069
83238SOL     OW51545  14.091   2.592   1.430
83238SOL    HW151546  14.118   2.642   1.507
83238SOL    HW251547  14.149   2.623   1.360
83239SOL     OW51548   9.832   9.790  12.441
83239SOL    HW151549   9.824   9.727  12.369
83239SOL    HW251550   9.746   9.791  12.483
83240SOL     OW51551   8.497   0.802   4.421
83240SOL    HW151552   8.471   0.890   4.394
83240SOL    HW251553   8.547   0.768   4.346
83241SOL     OW51554  14.609  13.416  10.147
83241SOL    HW151555  14.560  13.474  10.205
83241SOL    HW251556  14.620  13.336  10.198
83242SOL     OW51557   8.682  11.976  12.621
83242SOL    HW151558   8.754  11.932  12.668
83242SOL    HW251559   8.603  11.936  12.656
83243SOL     OW51560   5.626   1.292   9.038
83243SOL    HW151561   5.609   1.368   9.093
83243SOL    HW251562   5.706   1.254   9.073
83244SOL     OW51563   8.407   2.592   3.089
83244SOL    HW151564   8.400   2.509   3.043
83244SOL    HW251565   8.497   2.593   3.123
83245SOL     OW51566   4.543   5.028  11.435
83245SOL    HW151567   4.521   5.058  11.523
83245SOL    HW251568   4.519   4.935  11.435
83246SOL     OW51569   4.113   6.217   3.319
83246SOL    HW151570   4.181   6.164   3.278
83246SOL    HW251571   4.108   6.296   3.265
83247SOL     OW51572  10.282   9.566   5.391
83247SOL    HW151573  10.314   9.476   5.399
83247SOL    HW251574  10.261   9.592   5.481
83248SOL     OW51575   6.791   1.406   2.198
83248SOL    HW151576   6.727   1.337   2.215
83248SOL    HW251577   6.802   1.451   2.282
83249SOL     OW51578  11.277   4.100  11.407
83249SOL    HW151579  11.253   4.189  11.433
83249SOL    HW251580  11.324   4.064  11.482
83250SOL     OW51581   2.067   6.503  10.753
83250SOL    HW151582   2.027   6.429  10.799
83250SOL    HW251583   2.010   6.577  10.774
83251SOL     OW51584   9.750   3.766  10.628
83251SOL    HW151585   9.707   3.849  10.652
83251SOL    HW251586   9.763   3.773  10.534
83252SOL     OW51587   5.180   1.041  10.506
83252SOL    HW151588   5.093   1.041  10.468
83252SOL    HW251589   5.193   0.952  10.537
83253SOL     OW51590   2.731   4.112  10.560
83253SOL    HW151591   2.809   4.163  10.580
83253SOL    HW251592   2.755   4.022  10.582
83254SOL     OW51593   9.977   6.198   4.796
83254SOL    HW151594  10.004   6.286   4.772
83254SOL    HW251595   9.916   6.211   4.870
83255SOL     OW51596  11.350   1.169  12.898
83255SOL    HW151597  11.385   1.154  12.986
83255SOL    HW251598  11.418   1.137  12.839
83256SOL     OW51599   0.849   8.602   5.620
83256SOL    HW151600   0.893   8.528   5.579
83256SOL    HW251601   0.893   8.613   5.704
83257SOL     OW51602   6.955   7.167  14.612
83257SOL    HW151603   6.907   7.114  14.675
83257SOL    HW251604   7.046   7.162  14.640
83258SOL     OW51605  12.041   1.937   6.671
83258SOL    HW151606  12.117   1.885   6.646
83258SOL    HW251607  11.987   1.878   6.724
83259SOL     OW51608  11.581   3.086   7.877
83259SOL    HW151609  11.523   3.118   7.947
83259SOL    HW251610  11.538   3.114   7.796
83260SOL     OW51611  11.786   2.256   3.228
83260SOL    HW151612  11.831   2.327   3.274
83260SOL    HW251613  11.694   2.268   3.250
83261SOL     OW51614   8.873   9.122   1.243
83261SOL    HW151615   8.964   9.148   1.226
83261SOL    HW251616   8.874   9.090   1.333
83262SOL     OW51617   2.587  10.617  13.016
83262SOL    HW151618   2.605  10.710  13.000
83262SOL    HW251619   2.666  10.572  12.988
83263SOL     OW51620   0.535  12.025   7.360
83263SOL    HW151621   0.592  12.094   7.326
83263SOL    HW251622   0.498  11.984   7.282
83264SOL     OW51623  12.536   3.031   4.240
83264SOL    HW151624  12.548   3.123   4.263
83264SOL    HW251625  12.618   2.989   4.267
83265SOL     OW51626  14.074   5.365   3.436
83265SOL    HW151627  14.083   5.280   3.480
83265SOL    HW251628  13.984   5.392   3.455
83266SOL     OW51629   7.226  14.009   4.606
83266SOL    HW151630   7.295  14.075   4.608
83266SOL    HW251631   7.270  13.930   4.574
83267SOL     OW51632   9.911  14.870  12.588
83267SOL    HW151633   9.968  14.794  12.600
83267SOL    HW251634   9.828  14.844  12.628
83268SOL     OW51635  11.097   8.587   6.674
83268SOL    HW151636  11.110   8.522   6.744
83268SOL    HW251637  11.045   8.540   6.608
83269SOL     OW51638   2.634  10.757  10.361
83269SOL    HW151639   2.648  10.759  10.456
83269SOL    HW251640   2.654  10.668  10.335
83270SOL     OW51641   5.938   1.607   8.928
83270SOL    HW151642   5.976   1.674   8.872
83270SOL    HW251643   6.010   1.576   8.982
83271SOL     OW51644   0.611   2.276   7.072
83271SOL    HW151645   0.558   2.282   7.151
83271SOL    HW251646   0.618   2.183   7.054
83272SOL     OW51647   3.412   1.115   5.726
83272SOL    HW151648   3.454   1.200   5.713
83272SOL    HW251649   3.337   1.134   5.782
83273SOL     OW51650  12.551  11.882  11.572
83273SOL    HW151651  12.619  11.837  11.622
83273SOL    HW251652  12.469  11.855  11.612
83274SOL     OW51653   8.553  13.374  11.280
83274SOL    HW151654   8.594  13.424  11.350
83274SOL    HW251655   8.611  13.386  11.205
83275SOL     OW51656  14.072   6.941   7.361
83275SOL    HW151657  14.040   7.031   7.353
83275SOL    HW251658  14.005   6.888   7.318
83276SOL     OW51659  11.157   4.092   1.552
83276SOL    HW151660  11.224   4.157   1.572
83276SOL    HW251661  11.203   4.023   1.505
83277SOL     OW51662   2.019   7.583   1.539
83277SOL    HW151663   2.045   7.670   1.509
83277SOL    HW251664   1.932   7.596   1.575
83278SOL     OW51665   1.224   6.967   5.082
83278SOL    HW151666   1.274   6.888   5.102
83278SOL    HW251667   1.133   6.937   5.078
83279SOL     OW51668  10.328   5.530   2.944
83279SOL    HW151669  10.242   5.502   2.913
83279SOL    HW251670  10.372   5.448   2.967
83280SOL     OW51671  14.115  13.573  13.906
83280SOL    HW151672  14.058  13.580  13.983
83280SOL    HW251673  14.066  13.517  13.846
83281SOL     OW51674   0.262   4.619  11.208
83281SOL    HW151675   0.256   4.684  11.278
83281SOL    HW251676   0.355   4.601  11.199
83282SOL     OW51677  10.767  12.925   8.853
83282SOL    HW151678  10.787  12.834   8.878
83282SOL    HW251679  10.843  12.975   8.883
83283SOL     OW51680   0.887   1.346   5.229
83283SOL    HW151681   0.890   1.325   5.322
83283SOL    HW251682   0.802   1.315   5.199
83284SOL     OW51683  13.147   6.316  12.054
83284SOL    HW151684  13.092   6.356  11.987
83284SOL    HW251685  13.088   6.297  12.126
83285SOL     OW51686   8.098   5.279   6.819
83285SOL    HW151687   8.025   5.326   6.779
83285SOL    HW251688   8.164   5.346   6.835
83286SOL     OW51689   7.253   6.895  13.203
83286SOL    HW151690   7.296   6.819  13.242
83286SOL    HW251691   7.175   6.909  13.257
83287SOL     OW51692   7.704   9.118   2.441
83287SOL    HW151693   7.778   9.065   2.412
83287SOL    HW251694   7.727   9.208   2.416
83288SOL     OW51695   4.874   4.693   6.401
83288SOL    HW151696   4.899   4.650   6.482
83288SOL    HW251697   4.809   4.634   6.362
83289SOL     OW51698   9.585  14.022   9.095
83289SOL    HW151699   9.641  14.074   9.036
83289SOL    HW251700   9.497  14.057   9.081
83290SOL     OW51701   9.951   5.431   0.772
83290SOL    HW151702   9.936   5.522   0.798
83290SOL    HW251703  10.045   5.418   0.786
83291SOL     OW51704   6.106   0.403   2.780
83291SOL    HW151705   6.160   0.356   2.716
83291SOL    HW251706   6.021   0.410   2.738
83292SOL     OW51707   2.882  11.907   9.701
83292SOL    HW151708   2.940  11.877   9.771
83292SOL    HW251709   2.860  11.997   9.726
83293SOL     OW51710   6.063   5.145   6.156
83293SOL    HW151711   6.073   5.125   6.063
83293SOL    HW251712   6.071   5.240   6.161
83294SOL     OW51713   6.148  10.938   6.669
83294SOL    HW151714   6.232  10.929   6.625
83294SOL    HW251715   6.130  11.032   6.668
83295SOL     OW51716   7.964   7.850   8.040
83295SOL    HW151717   8.033   7.914   8.024
83295SOL    HW251718   7.911   7.852   7.960
83296SOL     OW51719   2.940   9.933  11.288
83296SOL    HW151720   3.008   9.914  11.224
83296SOL    HW251721   2.987   9.960  11.367
83297SOL     OW51722  12.636   9.240   6.592
83297SOL    HW151723  12.636   9.222   6.686
83297SOL    HW251724  12.659   9.333   6.586
83298SOL     OW51725  11.735   4.424   7.746
83298SOL    HW151726  11.779   4.340   7.753
83298SOL    HW251727  11.806   4.487   7.732
83299SOL     OW51728   0.904   2.143  10.863
83299SOL    HW151729   0.991   2.172  10.891
83299SOL    HW251730   0.918   2.106  10.776
83300SOL     OW51731  12.156  11.648   8.737
83300SOL    HW151732  12.155  11.689   8.824
83300SOL    HW251733  12.180  11.719   8.678
83301SOL     OW51734  14.259  10.975  10.897
83301SOL    HW151735  14.251  10.880  10.888
83301SOL    HW251736  14.175  11.009  10.865
83302SOL     OW51737  11.701   5.490   3.148
83302SOL    HW151738  11.699   5.584   3.135
83302SOL    HW251739  11.734   5.454   3.066
83303SOL     OW51740  14.632   7.422  12.462
83303SOL    HW151741  14.618   7.517  12.459
83303SOL    HW251742  14.562   7.389  12.518
83304SOL     OW51743   6.669   1.873  13.264
83304SOL    HW151744   6.592   1.855  13.318
83304SOL    HW251745   6.634   1.901  13.180
83305SOL     OW51746   6.844   1.982   4.654
83305SOL    HW151747   6.774   1.967   4.591
83305SOL    HW251748   6.917   1.930   4.621
83306SOL     OW51749   4.279   1.051   2.913
83306SOL    HW151750   4.369   1.039   2.943
83306SOL    HW251751   4.249   1.131   2.957
83307SOL     OW51752   9.377  11.809   2.865
83307SOL    HW151753   9.305  11.769   2.816
83307SOL    HW251754   9.448  11.745   2.859
83308SOL     OW51755   7.897   9.922  11.884
83308SOL    HW151756   7.963   9.910  11.954
83308SOL    HW251757   7.895  10.016  11.869
83309SOL     OW51758  14.475   0.565  11.733
83309SOL    HW151759  14.386   0.532  11.748
83309SOL    HW251760  14.527   0.487  11.716
83310SOL     OW51761   5.434  11.297  13.776
83310SOL    HW151762   5.360  11.286  13.835
83310SOL    HW251763   5.482  11.214  13.783
83311SOL     OW51764   2.516  13.945   9.572
83311SOL    HW151765   2.502  13.886   9.498
83311SOL    HW251766   2.534  13.887   9.645
83312SOL     OW51767   9.740   8.439  11.626
83312SOL    HW151768   9.647   8.461  11.629
83312SOL    HW251769   9.743   8.360  11.572
83313SOL     OW51770   2.800   0.479  10.433
83313SOL    HW151771   2.724   0.491  10.490
83313SOL    HW251772   2.764   0.489  10.344
83314SOL     OW51773   8.561  11.553   3.791
83314SOL    HW151774   8.605  11.634   3.814
83314SOL    HW251775   8.487  11.581   3.736
83315SOL     OW51776   3.195   7.785  10.180
83315SOL    HW151777   3.136   7.831  10.240
83315SOL    HW251778   3.281   7.825  10.196
83316SOL     OW51779  12.597   0.856  14.425
83316SOL    HW151780  12.566   0.909  14.498
83316SOL    HW251781  12.586   0.766  14.454
83317SOL     OW51782  11.432   1.666   3.438
83317SOL    HW151783  11.425   1.752   3.397
83317SOL    HW251784  11.423   1.604   3.366
83318SOL     OW51785   1.432  12.282   5.692
83318SOL    HW151786   1.373  12.226   5.641
83318SOL    HW251787   1.519  12.263   5.658
83319SOL     OW51788  13.491  13.843  13.839
83319SOL    HW151789  13.582  13.834  13.814
83319SOL    HW251790  13.477  13.938  13.847
83320SOL     OW51791  14.037   0.340  12.413
83320SOL    HW151792  14.077   0.269  12.362
83320SOL    HW251793  13.992   0.394  12.349
83321SOL     OW51794  11.372   0.073   8.906
83321SOL    HW151795  11.398   0.077   8.814
83321SOL    HW251796  11.399  14.861   8.935
83322SOL     OW51797   5.699   0.994   7.602
83322SOL    HW151798   5.773   0.992   7.663
83322SOL    HW251799   5.714   0.920   7.543
83323SOL     OW51800   4.285   5.714   4.664
83323SOL    HW151801   4.251   5.685   4.749
83323SOL    HW251802   4.215   5.769   4.628
83324SOL     OW51803   9.638  13.944  11.427
83324SOL    HW151804   9.602  13.959  11.515
83324SOL    HW251805   9.648  13.849  11.422
83325SOL     OW51806   5.216  12.690  12.256
83325SOL    HW151807   5.189  12.660  12.343
83325SOL    HW251808   5.274  12.765  12.275
83326SOL     OW51809  10.685   0.626  14.023
83326SOL    HW151810  10.778   0.603  14.024
83326SOL    HW251811  10.680   0.705  13.969
83327SOL     OW51812   2.445  11.883   9.442
83327SOL    HW151813   2.501  11.961   9.438
83327SOL    HW251814   2.501  11.815   9.479
83328SOL     OW51815   5.389   5.228   0.357
83328SOL    HW151816   5.298   5.211   0.379
83328SOL    HW251817   5.409   5.312   0.397
83329SOL     OW51818  12.102   1.111   0.472
83329SOL    HW151819  12.151   1.192   0.486
83329SOL    HW251820  12.023   1.139   0.427
83330SOL     OW51821  11.630   5.521   2.188
83330SOL    HW151822  11.716   5.516   2.229
83330SOL    HW251823  11.573   5.469   2.246
83331SOL     OW51824   5.385   5.676   0.785
83331SOL    HW151825   5.457   5.688   0.848
83331SOL    HW251826   5.405   5.737   0.715
83332SOL     OW51827   0.690   3.506   0.499
83332SOL    HW151828   0.618   3.518   0.437
83332SOL    HW251829   0.769   3.507   0.445
83333SOL     OW51830  12.852  14.151  11.762
83333SOL    HW151831  12.873  14.081  11.700
83333SOL    HW251832  12.793  14.208  11.713
83334SOL     OW51833   9.822   9.208  14.567
83334SOL    HW151834   9.774   9.260  14.503
83334SOL    HW251835   9.871   9.272  14.619
83335SOL     OW51836   0.069   5.523  13.959
83335SOL    HW151837   0.044   5.430  13.959
83335SOL    HW251838   0.159   5.523  13.990
83336SOL     OW51839   4.057   9.215   0.259
83336SOL    HW151840   4.094   9.276   0.195
83336SOL    HW251841   4.087   9.129   0.229
83337SOL     OW51842   4.975  11.045  14.460
83337SOL    HW151843   4.987  10.952  14.475
83337SOL    HW251844   5.005  11.060  14.370
83338SOL     OW51845  13.541   8.860   6.019
83338SOL    HW151846  13.632   8.833   6.008
83338SOL    HW251847  13.496   8.824   5.942
83339SOL     OW51848   0.503   3.598   7.195
83339SOL    HW151849   0.484   3.638   7.280
83339SOL    HW251850   0.590   3.631   7.173
83340SOL     OW51851  13.582   5.988   9.888
83340SOL    HW151852  13.644   5.936   9.940
83340SOL    HW251853  13.633   6.016   9.812
83341SOL     OW51854   6.756   2.054   9.705
83341SOL    HW151855   6.760   2.058   9.610
83341SOL    HW251856   6.692   2.120   9.730
83342SOL     OW51857  11.384   2.689   1.803
83342SOL    HW151858  11.466   2.641   1.809
83342SOL    HW251859  11.409   2.775   1.770
83343SOL     OW51860  10.268   8.299   3.493
83343SOL    HW151861  10.363   8.293   3.495
83343SOL    HW251862  10.245   8.295   3.400
83344SOL     OW51863   5.661   0.919  13.027
83344SOL    HW151864   5.701   1.002  13.053
83344SOL    HW251865   5.693   0.856  13.091
83345SOL     OW51866   0.853   0.820   6.723
83345SOL    HW151867   0.849   0.844   6.816
83345SOL    HW251868   0.934   0.860   6.692
83346SOL     OW51869  10.814   3.513   5.788
83346SOL    HW151870  10.793   3.523   5.880
83346SOL    HW251871  10.809   3.418   5.772
83347SOL     OW51872   8.013   2.706   5.099
83347SOL    HW151873   8.103   2.690   5.127
83347SOL    HW251874   8.021   2.745   5.012
83348SOL     OW51875   1.207   5.303   0.022
83348SOL    HW151876   1.238   5.265   0.104
83348SOL    HW251877   1.180   5.392   0.045
83349SOL     OW51878  14.091   1.131   4.547
83349SOL    HW151879  14.053   1.209   4.587
83349SOL    HW251880  14.016   1.077   4.523
83350SOL     OW51881  13.489  13.017  10.135
83350SOL    HW151882  13.403  12.977  10.118
83350SOL    HW251883  13.551  12.959  10.091
83351SOL     OW51884   0.236  10.182   9.995
83351SOL    HW151885   0.172  10.135  10.048
83351SOL    HW251886   0.293  10.114   9.960
83352SOL     OW51887   0.102   0.779   0.655
83352SOL    HW151888   0.068   0.692   0.635
83352SOL    HW251889   0.196   0.767   0.666
83353SOL     OW51890   8.416  10.637   3.891
83353SOL    HW151891   8.443  10.704   3.828
83353SOL    HW251892   8.388  10.686   3.968
83354SOL     OW51893   2.763   8.434  11.747
83354SOL    HW151894   2.857   8.418  11.744
83354SOL    HW251895   2.752   8.505  11.810
83355SOL     OW51896   9.859   2.588   0.447
83355SOL    HW151897   9.876   2.501   0.484
83355SOL    HW251898   9.829   2.571   0.358
83356SOL     OW51899   7.698   2.399  14.589
83356SOL    HW151900   7.732   2.313  14.613
83356SOL    HW251901   7.614   2.381  14.546
83357SOL     OW51902  14.156   0.885   9.064
83357SOL    HW151903  14.169   0.861   8.972
83357SOL    HW251904  14.196   0.813   9.113
83358SOL     OW51905  13.387  11.718   1.282
83358SOL    HW151906  13.332  11.785   1.243
83358SOL    HW251907  13.472  11.760   1.294
83359SOL     OW51908  10.568   4.773   2.987
83359SOL    HW151909  10.586   4.712   2.914
83359SOL    HW251910  10.476   4.759   3.007
83360SOL     OW51911   8.220   0.875  13.420
83360SOL    HW151912   8.315   0.874  13.411
83360SOL    HW251913   8.187   0.850  13.333
83361SOL     OW51914  12.928   6.563   3.006
83361SOL    HW151915  12.986   6.487   3.007
83361SOL    HW251916  12.880   6.559   3.088
83362SOL     OW51917   9.697   8.180   0.904
83362SOL    HW151918   9.734   8.214   0.823
83362SOL    HW251919   9.702   8.252   0.966
83363SOL     OW51920  13.333   4.108  13.212
83363SOL    HW151921  13.242   4.084  13.226
83363SOL    HW251922  13.342   4.115  13.117
83364SOL     OW51923   3.529   1.020   7.836
83364SOL    HW151924   3.492   0.949   7.783
83364SOL    HW251925   3.554   1.086   7.772
83365SOL     OW51926  12.762   8.738  13.620
83365SOL    HW151927  12.673   8.707  13.632
83365SOL    HW251928  12.772   8.809  13.685
83366SOL     OW51929   4.675   0.607   4.142
83366SOL    HW151930   4.670   0.636   4.051
83366SOL    HW251931   4.722   0.678   4.186
83367SOL     OW51932   7.532   5.260   4.519
83367SOL    HW151933   7.581   5.342   4.510
83367SOL    HW251934   7.586   5.196   4.474
83368SOL     OW51935   1.452  12.000   9.796
83368SOL    HW151936   1.536  11.956   9.807
83368SOL    HW251937   1.474  12.088   9.765
83369SOL     OW51938  14.768  10.243   9.993
83369SOL    HW151939  14.828  10.314   9.970
83369SOL    HW251940  14.821  10.181  10.043
83370SOL     OW51941   5.997  11.154   4.942
83370SOL    HW151942   6.064  11.089   4.964
83370SOL    HW251943   5.965  11.185   5.027
83371SOL     OW51944   4.203   2.264  11.238
83371SOL    HW151945   4.285   2.222  11.213
83371SOL    HW251946   4.135   2.202  11.210
83372SOL     OW51947   2.001   6.947   4.939
83372SOL    HW151948   2.082   6.995   4.952
83372SOL    HW251949   2.020   6.886   4.868
83373SOL     OW51950   7.364   5.205   1.489
83373SOL    HW151951   7.380   5.115   1.460
83373SOL    HW251952   7.343   5.252   1.408
83374SOL     OW51953   1.045   0.364   4.318
83374SOL    HW151954   0.988   0.321   4.381
83374SOL    HW251955   1.007   0.341   4.233
83375SOL     OW51956   0.664  14.045   0.468
83375SOL    HW151957   0.659  14.035   0.373
83375SOL    HW251958   0.639  14.136   0.484
83376SOL     OW51959   3.584   5.678   4.835
83376SOL    HW151960   3.593   5.690   4.740
83376SOL    HW251961   3.492   5.652   4.846
83377SOL     OW51962  12.634   1.798  13.357
83377SOL    HW151963  12.625   1.813  13.263
83377SOL    HW251964  12.633   1.886  13.395
83378SOL     OW51965  12.834   7.226   5.126
83378SOL    HW151966  12.860   7.175   5.049
83378SOL    HW251967  12.817   7.314   5.091
83379SOL     OW51968   9.704   8.150  11.583
83379SOL    HW151969   9.771   8.113  11.640
83379SOL    HW251970   9.731   8.124  11.495
83380SOL     OW51971   0.692   8.791  12.009
83380SOL    HW151972   0.620   8.817  11.951
83380SOL    HW251973   0.736   8.720  11.962
83381SOL     OW51974  10.267   1.517  12.728
83381SOL    HW151975  10.317   1.596  12.709
83381SOL    HW251976  10.327   1.461  12.777
83382SOL     OW51977   2.906   8.019  10.051
83382SOL    HW151978   2.927   8.009   9.958
83382SOL    HW251979   2.987   8.049  10.091
83383SOL     OW51980  13.192  14.666   2.789
83383SOL    HW151981  13.200  14.701   2.701
83383SOL    HW251982  13.240  14.727   2.844
83384SOL     OW51983   1.662  14.198   5.710
83384SOL    HW151984   1.592  14.167   5.653
83384SOL    HW251985   1.618  14.257   5.771
83385SOL     OW51986   2.273  12.908   8.874
83385SOL    HW151987   2.306  12.920   8.785
83385SOL    HW251988   2.352  12.903   8.928
83386SOL     OW51989   5.599   9.779   9.365
83386SOL    HW151990   5.607   9.772   9.460
83386SOL    HW251991   5.686   9.758   9.331
83387SOL     OW51992   3.156   4.744  11.844
83387SOL    HW151993   3.158   4.651  11.822
83387SOL    HW251994   3.076   4.755  11.895
83388SOL     OW51995   8.914   3.530   7.974
83388SOL    HW151996   8.894   3.611   7.928
83388SOL    HW251997   8.984   3.554   8.035
83389SOL     OW51998   6.588  14.683   4.914
83389SOL    HW151999   6.518  14.708   4.974
83389SOL    HW252000   6.665  14.673   4.969
83390SOL     OW52001  12.331   9.677   9.819
83390SOL    HW152002  12.391   9.683   9.893
83390SOL    HW252003  12.375   9.725   9.749
83391SOL     OW52004  13.932   7.495   2.873
83391SOL    HW152005  13.842   7.497   2.907
83391SOL    HW252006  13.975   7.571   2.913
83392SOL     OW52007  13.624  14.281   2.807
83392SOL    HW152008  13.607  14.336   2.884
83392SOL    HW252009  13.564  14.206   2.818
83393SOL     OW52010   6.723   1.358   3.261
83393SOL    HW152011   6.668   1.423   3.218
83393SOL    HW252012   6.812   1.392   3.250
83394SOL     OW52013   0.509  11.863  10.557
83394SOL    HW152014   0.511  11.905  10.643
83394SOL    HW252015   0.418  11.873  10.528
83395SOL     OW52016  14.849   4.949   2.426
83395SOL    HW152017   0.033   4.985   2.491
83395SOL    HW252018  14.762   4.967   2.461
83396SOL     OW52019   4.107  12.206  10.970
83396SOL    HW152020   4.028  12.209  11.023
83396SOL    HW252021   4.155  12.285  10.993
83397SOL     OW52022  10.308   6.992   1.159
83397SOL    HW152023  10.293   7.080   1.192
83397SOL    HW252024  10.314   7.002   1.064
83398SOL     OW52025   6.148   0.955   8.251
83398SOL    HW152026   6.079   1.009   8.289
83398SOL    HW252027   6.222   1.015   8.240
83399SOL     OW52028  13.427   3.829   7.236
83399SOL    HW152029  13.510   3.862   7.271
83399SOL    HW252030  13.390   3.777   7.307
83400SOL     OW52031   3.701  12.495  11.428
83400SOL    HW152032   3.777  12.550  11.406
83400SOL    HW252033   3.635  12.557  11.459
83401SOL     OW52034  10.506   3.614   2.152
83401SOL    HW152035  10.588   3.630   2.107
83401SOL    HW252036  10.468   3.539   2.107
83402SOL     OW52037  12.632   8.914  12.991
83402SOL    HW152038  12.542   8.900  13.019
83402SOL    HW252039  12.651   8.841  12.933
83403SOL     OW52040  13.156   7.765  14.132
83403SOL    HW152041  13.100   7.725  14.066
83403SOL    HW252042  13.150   7.708  14.208
83404SOL     OW52043   6.364   9.968   6.981
83404SOL    HW152044   6.361  10.057   7.015
83404SOL    HW252045   6.391   9.978   6.890
83405SOL     OW52046  13.061  10.933  12.762
83405SOL    HW152047  13.091  11.020  12.737
83405SOL    HW252048  13.016  10.946  12.846
83406SOL     OW52049   7.674   0.967  11.823
83406SOL    HW152050   7.584   0.999  11.819
83406SOL    HW252051   7.672   0.886  11.771
83407SOL     OW52052  13.617   8.542  10.058
83407SOL    HW152053  13.521   8.550  10.062
83407SOL    HW252054  13.645   8.550  10.149
83408SOL     OW52055  10.258   6.825   6.970
83408SOL    HW152056  10.181   6.882   6.966
83408SOL    HW252057  10.223   6.736   6.964
83409SOL     OW52058  10.922   0.202  13.736
83409SOL    HW152059  10.924   0.283  13.788
83409SOL    HW252060  10.951   0.230  13.649
83410SOL     OW52061   0.528  11.005   1.292
83410SOL    HW152062   0.552  11.038   1.205
83410SOL    HW252063   0.447  10.956   1.276
83411SOL     OW52064   7.181   1.516   0.882
83411SOL    HW152065   7.116   1.575   0.920
83411SOL    HW252066   7.144   1.429   0.893
83412SOL     OW52067   4.491   8.185   2.557
83412SOL    HW152068   4.444   8.135   2.623
83412SOL    HW252069   4.424   8.241   2.517
83413SOL     OW52070  13.778  10.119  13.569
83413SOL    HW152071  13.791  10.031  13.535
83413SOL    HW252072  13.840  10.127  13.641
83414SOL     OW52073  13.578   6.958   6.557
83414SOL    HW152074  13.502   6.911   6.520
83414SOL    HW252075  13.539   7.026   6.612
83415SOL     OW52076  11.615   1.741   3.999
83415SOL    HW152077  11.621   1.817   4.056
83415SOL    HW252078  11.648   1.668   4.052
83416SOL     OW52079   3.275  11.165  10.892
83416SOL    HW152080   3.320  11.081  10.883
83416SOL    HW252081   3.202  11.147  10.951
83417SOL     OW52082  12.815   6.897   6.774
83417SOL    HW152083  12.745   6.872   6.714
83417SOL    HW252084  12.802   6.991   6.788
83418SOL     OW52085   3.073   2.076   8.856
83418SOL    HW152086   3.149   2.133   8.867
83418SOL    HW252087   2.999   2.129   8.887
83419SOL     OW52088   8.499  11.772   8.062
83419SOL    HW152089   8.581  11.805   8.026
83419SOL    HW252090   8.461  11.847   8.107
83420SOL     OW52091   6.299  13.532   4.673
83420SOL    HW152092   6.336  13.460   4.622
83420SOL    HW252093   6.376  13.582   4.702
83421SOL     OW52094   2.543   7.981   0.772
83421SOL    HW152095   2.529   8.070   0.805
83421SOL    HW252096   2.637   7.966   0.780
83422SOL     OW52097  11.556   3.538   9.990
83422SOL    HW152098  11.560   3.469   9.923
83422SOL    HW252099  11.567   3.619   9.940
83423SOL     OW52100  10.819  10.718   0.408
83423SOL    HW152101  10.861  10.756   0.331
83423SOL    HW252102  10.741  10.675   0.375
83424SOL     OW52103   1.181  11.455  11.586
83424SOL    HW152104   1.150  11.368  11.558
83424SOL    HW252105   1.259  11.437  11.637
83425SOL     OW52106  14.309   2.853   9.658
83425SOL    HW152107  14.387   2.901   9.684
83425SOL    HW252108  14.313   2.771   9.708
83426SOL     OW52109   1.336  12.994  13.198
83426SOL    HW152110   1.256  12.946  13.219
83426SOL    HW252111   1.403  12.927  13.190
83427SOL     OW52112   9.199  11.758   4.298
83427SOL    HW152113   9.111  11.722   4.284
83427SOL    HW252114   9.258  11.683   4.285
83428SOL     OW52115   5.136  11.071  10.853
83428SOL    HW152116   5.155  11.012  10.926
83428SOL    HW252117   5.193  11.042  10.783
83429SOL     OW52118  11.193   3.135  13.966
83429SOL    HW152119  11.164   3.125  13.875
83429SOL    HW252120  11.284   3.164  13.960
83430SOL     OW52121   5.175  10.300   0.446
83430SOL    HW152122   5.212  10.361   0.510
83430SOL    HW252123   5.251  10.264   0.400
83431SOL     OW52124   2.942  10.549  10.392
83431SOL    HW152125   2.886  10.473  10.376
83431SOL    HW252126   3.025  10.512  10.421
83432SOL     OW52127   4.118   1.616  13.336
83432SOL    HW152128   4.192   1.625  13.276
83432SOL    HW252129   4.059   1.556  13.291
83433SOL     OW52130   7.093   7.664   1.124
83433SOL    HW152131   7.094   7.748   1.170
83433SOL    HW252132   7.170   7.666   1.068
83434SOL     OW52133  13.935   7.121   1.740
83434SOL    HW152134  13.921   7.088   1.651
83434SOL    HW252135  13.994   7.195   1.730
83435SOL     OW52136  11.753  12.046  11.797
83435SOL    HW152137  11.670  12.093  11.805
83435SOL    HW252138  11.802  12.070  11.875
83436SOL     OW52139   2.976   2.247   2.491
83436SOL    HW152140   2.892   2.202   2.483
83436SOL    HW252141   3.004   2.261   2.401
83437SOL     OW52142  12.481   3.664   7.234
83437SOL    HW152143  12.440   3.714   7.162
83437SOL    HW252144  12.407   3.629   7.283
83438SOL     OW52145   4.381  13.210   7.164
83438SOL    HW152146   4.285  13.211   7.166
83438SOL    HW252147   4.403  13.153   7.091
83439SOL     OW52148   4.457   7.676   6.026
83439SOL    HW152149   4.375   7.643   6.062
83439SOL    HW252150   4.523   7.652   6.090
83440SOL     OW52151   9.037  13.471   4.229
83440SOL    HW152152   9.014  13.379   4.239
83440SOL    HW252153   9.039  13.505   4.319
83441SOL     OW52154  14.096   7.273   9.060
83441SOL    HW152155  14.036   7.269   9.135
83441SOL    HW252156  14.151   7.349   9.077
83442SOL     OW52157   1.936  13.936  11.895
83442SOL    HW152158   1.965  14.005  11.955
83442SOL    HW252159   1.993  13.862  11.914
83443SOL     OW52160  12.115  11.188   7.855
83443SOL    HW152161  12.171  11.115   7.884
83443SOL    HW252162  12.089  11.163   7.766
83444SOL     OW52163  14.351   3.261   1.767
83444SOL    HW152164  14.284   3.214   1.816
83444SOL    HW252165  14.410   3.296   1.835
83445SOL     OW52166  14.558   8.872  12.416
83445SOL    HW152167  14.543   8.779  12.432
83445SOL    HW252168  14.519   8.889  12.330
83446SOL     OW52169  11.762  13.966   9.984
83446SOL    HW152170  11.700  13.895   9.967
83446SOL    HW252171  11.707  14.044   9.994
83447SOL     OW52172   2.637   6.083  14.696
83447SOL    HW152173   2.582   6.158  14.673
83447SOL    HW252174   2.594   6.008  14.654
83448SOL     OW52175   8.914   8.983   3.029
83448SOL    HW152176   8.998   9.008   3.068
83448SOL    HW252177   8.908   9.035   2.949
83449SOL     OW52178  12.433   0.676  11.639
83449SOL    HW152179  12.440   0.652  11.732
83449SOL    HW252180  12.474   0.762  11.633
83450SOL     OW52181  13.885  12.694  11.605
83450SOL    HW152182  13.977  12.695  11.576
83450SOL    HW252183  13.839  12.746  11.539
83451SOL     OW52184  13.686   2.592   5.101
83451SOL    HW152185  13.772   2.604   5.059
83451SOL    HW252186  13.705   2.596   5.195
83452SOL     OW52187   2.260   9.718  13.513
83452SOL    HW152188   2.188   9.696  13.453
83452SOL    HW252189   2.268   9.813  13.507
83453SOL     OW52190  11.667   7.069   9.291
83453SOL    HW152191  11.759   7.074   9.314
83453SOL    HW252192  11.626   7.026   9.366
83454SOL     OW52193   1.211   0.482   6.245
83454SOL    HW152194   1.196   0.570   6.280
83454SOL    HW252195   1.263   0.438   6.313
83455SOL     OW52196  12.405   2.014   5.202
83455SOL    HW152197  12.447   2.058   5.129
83455SOL    HW252198  12.460   1.937   5.219
83456SOL     OW52199   0.424   3.027   5.287
83456SOL    HW152200   0.471   3.110   5.284
83456SOL    HW252201   0.488   2.965   5.324
83457SOL     OW52202   3.880   6.747   4.145
83457SOL    HW152203   3.962   6.698   4.137
83457SOL    HW252204   3.895   6.807   4.218
83458SOL     OW52205   9.538   1.320  13.943
83458SOL    HW152206   9.451   1.354  13.966
83458SOL    HW252207   9.558   1.359  13.858
83459SOL     OW52208   2.339  12.260   1.101
83459SOL    HW152209   2.420  12.218   1.128
83459SOL    HW252210   2.292  12.277   1.182
83460SOL     OW52211   3.674   3.378   8.402
83460SOL    HW152212   3.670   3.355   8.494
83460SOL    HW252213   3.736   3.451   8.397
83461SOL     OW52214  13.675  14.724   8.664
83461SOL    HW152215  13.664  14.809   8.707
83461SOL    HW252216  13.691  14.746   8.572
83462SOL     OW52217   0.091   6.609   8.445
83462SOL    HW152218   0.004   6.613   8.486
83462SOL    HW252219   0.140   6.549   8.501
83463SOL     OW52220   1.014  11.885   2.900
83463SOL    HW152221   1.110  11.879   2.896
83463SOL    HW252222   0.991  11.942   2.827
83464SOL     OW52223   3.766  12.229   9.283
83464SOL    HW152224   3.833  12.164   9.306
83464SOL    HW252225   3.690  12.204   9.335
83465SOL     OW52226  14.338  10.748  13.719
83465SOL    HW152227  14.348  10.795  13.801
83465SOL    HW252228  14.258  10.696  13.731
83466SOL     OW52229  12.471   7.173  13.060
83466SOL    HW152230  12.561   7.200  13.042
83466SOL    HW252231  12.417   7.224  12.999
83467SOL     OW52232   9.836   9.114   8.113
83467SOL    HW152233   9.858   9.114   8.020
83467SOL    HW252234   9.743   9.090   8.116
83468SOL     OW52235   0.363   1.645   0.337
83468SOL    HW152236   0.414   1.724   0.322
83468SOL    HW252237   0.429   1.576   0.351
83469SOL     OW52238   4.786  14.759  10.968
83469SOL    HW152239   4.864  14.761  11.024
83469SOL    HW252240   4.813  14.803  10.887
83470SOL     OW52241   0.351   3.980   7.396
83470SOL    HW152242   0.345   4.056   7.337
83470SOL    HW252243   0.418   3.925   7.356
83471SOL     OW52244   4.541   4.784  14.404
83471SOL    HW152245   4.471   4.820  14.459
83471SOL    HW252246   4.499   4.716  14.352
83472SOL     OW52247   4.816   5.548  10.000
83472SOL    HW152248   4.841   5.466  10.043
83472SOL    HW252249   4.759   5.592  10.064
83473SOL     OW52250   2.720   0.651   4.148
83473SOL    HW152251   2.727   0.746   4.154
83473SOL    HW252252   2.632   0.632   4.180
83474SOL     OW52253   8.939  14.498   3.284
83474SOL    HW152254   8.962  14.590   3.284
83474SOL    HW252255   8.943  14.472   3.192
83475SOL     OW52256   0.791   1.460   9.123
83475SOL    HW152257   0.718   1.401   9.101
83475SOL    HW252258   0.850   1.406   9.176
83476SOL     OW52259   7.380  11.596   5.625
83476SOL    HW152260   7.471  11.582   5.601
83476SOL    HW252261   7.330  11.540   5.566
83477SOL     OW52262   4.068  10.453   9.398
83477SOL    HW152263   4.079  10.431   9.491
83477SOL    HW252264   4.088  10.372   9.352
83478SOL     OW52265   9.973   9.530   2.710
83478SOL    HW152266   9.879   9.515   2.718
83478SOL    HW252267   9.983   9.625   2.712
83479SOL     OW52268   9.504  13.404   7.493
83479SOL    HW152269   9.486  13.410   7.399
83479SOL    HW252270   9.426  13.364   7.529
83480SOL     OW52271   7.472   7.891   2.485
83480SOL    HW152272   7.525   7.950   2.430
83480SOL    HW252273   7.531   7.818   2.504
83481SOL     OW52274  11.816  10.388   7.176
83481SOL    HW152275  11.741  10.446   7.162
83481SOL    HW252276  11.885  10.423   7.120
83482SOL     OW52277   7.721  12.115   2.414
83482SOL    HW152278   7.794  12.053   2.411
83482SOL    HW252279   7.648  12.063   2.448
83483SOL     OW52280   2.836   8.226   4.992
83483SOL    HW152281   2.762   8.249   5.048
83483SOL    HW252282   2.882   8.158   5.041
83484SOL     OW52283  10.289   1.372  14.406
83484SOL    HW152284  10.253   1.284  14.415
83484SOL    HW252285  10.368   1.361  14.353
83485SOL     OW52286   6.185  10.518   0.464
83485SOL    HW152287   6.131  10.586   0.504
83485SOL    HW252288   6.136  10.437   0.480
83486SOL     OW52289   0.183  10.832   2.905
83486SOL    HW152290   0.270  10.799   2.930
83486SOL    HW252291   0.190  10.849   2.811
83487SOL     OW52292  14.064   0.674  12.360
83487SOL    HW152293  14.085   0.647  12.449
83487SOL    HW252294  13.999   0.610  12.330
83488SOL     OW52295   0.777   2.132   7.414
83488SOL    HW152296   0.749   2.224   7.405
83488SOL    HW252297   0.712   2.094   7.473
83489SOL     OW52298   7.787   2.165   6.373
83489SOL    HW152299   7.860   2.224   6.357
83489SOL    HW252300   7.826   2.089   6.417
83490SOL     OW52301  11.319  13.588   0.364
83490SOL    HW152302  11.299  13.672   0.406
83490SOL    HW252303  11.276  13.523   0.418
83491SOL     OW52304   4.654  11.694   3.167
83491SOL    HW152305   4.690  11.746   3.240
83491SOL    HW252306   4.697  11.609   3.175
83492SOL     OW52307   6.883  11.997  12.150
83492SOL    HW152308   6.795  12.009  12.186
83492SOL    HW252309   6.942  12.018  12.223
83493SOL     OW52310  13.920   8.619   0.337
83493SOL    HW152311  13.876   8.535   0.355
83493SOL    HW252312  13.971   8.602   0.258
83494SOL     OW52313   4.184  12.686   0.469
83494SOL    HW152314   4.130  12.625   0.520
83494SOL    HW252315   4.144  12.772   0.485
83495SOL     OW52316   7.860   2.943   4.475
83495SOL    HW152317   7.844   2.949   4.570
83495SOL    HW252318   7.913   3.020   4.455
83496SOL     OW52319   1.727   6.899   6.345
83496SOL    HW152320   1.742   6.954   6.268
83496SOL    HW252321   1.650   6.938   6.387
83497SOL     OW52322  10.902   8.842  13.487
83497SOL    HW152323  10.945   8.792  13.417
83497SOL    HW252324  10.968   8.849  13.555
83498SOL     OW52325  10.723   9.819  12.183
83498SOL    HW152326  10.639   9.844  12.144
83498SOL    HW252327  10.722   9.723  12.183
83499SOL     OW52328   2.983   3.773   4.804
83499SOL    HW152329   3.036   3.773   4.725
83499SOL    HW252330   2.961   3.681   4.819
83500SOL     OW52331   1.796   0.608  10.816
83500SOL    HW152332   1.858   0.595  10.888
83500SOL    HW252333   1.710   0.588  10.854
83501SOL     OW52334   0.717  11.877   5.973
83501SOL    HW152335   0.790  11.815   5.972
83501SOL    HW252336   0.667  11.853   6.051
83502SOL     OW52337  13.853   4.261   4.617
83502SOL    HW152338  13.794   4.337   4.618
83502SOL    HW252339  13.850   4.230   4.527
83503SOL     OW52340   6.464   0.749   6.217
83503SOL    HW152341   6.470   0.836   6.179
83503SOL    HW252342   6.380   0.715   6.186
83504SOL     OW52343   7.064   8.688   0.699
83504SOL    HW152344   7.127   8.634   0.652
83504SOL    HW252345   7.108   8.712   0.781
83505SOL     OW52346   9.904   6.276  12.937
83505SOL    HW152347   9.923   6.305  12.848
83505SOL    HW252348   9.830   6.331  12.965
83506SOL     OW52349  14.512   6.556   3.585
83506SOL    HW152350  14.421   6.582   3.602
83506SOL    HW252351  14.520   6.470   3.626
83507SOL     OW52352   6.117   5.239   2.806
83507SOL    HW152353   6.155   5.310   2.857
83507SOL    HW252354   6.154   5.249   2.718
83508SOL     OW52355   2.920   6.362   0.635
83508SOL    HW152356   2.929   6.312   0.554
83508SOL    HW252357   3.003   6.408   0.643
83509SOL     OW52358   6.862  12.435  10.716
83509SOL    HW152359   6.893  12.347  10.694
83509SOL    HW252360   6.818  12.425  10.800
83510SOL     OW52361   8.620   4.355  13.189
83510SOL    HW152362   8.533   4.391  13.208
83510SOL    HW252363   8.661   4.420  13.132
83511SOL     OW52364   9.680   0.606   7.645
83511SOL    HW152365   9.621   0.550   7.697
83511SOL    HW252366   9.702   0.553   7.569
83512SOL     OW52367   9.511   9.754   5.713
83512SOL    HW152368   9.441   9.754   5.648
83512SOL    HW252369   9.500   9.836   5.761
83513SOL     OW52370   5.411   9.191  12.656
83513SOL    HW152371   5.360   9.261  12.696
83513SOL    HW252372   5.349   9.120  12.643
83514SOL     OW52373   3.040   1.043   8.417
83514SOL    HW152374   3.131   1.070   8.403
83514SOL    HW252375   3.003   1.036   8.329
83515SOL     OW52376   8.456   4.537   5.613
83515SOL    HW152377   8.479   4.624   5.580
83515SOL    HW252378   8.408   4.554   5.694
83516SOL     OW52379   7.777  10.305   1.075
83516SOL    HW152380   7.829  10.238   1.031
83516SOL    HW252381   7.691  10.301   1.033
83517SOL     OW52382  11.728   6.256  13.037
83517SOL    HW152383  11.728   6.244  12.942
83517SOL    HW252384  11.655   6.201  13.068
83518SOL     OW52385   6.432   2.502  10.931
83518SOL    HW152386   6.336   2.502  10.934
83518SOL    HW252387   6.457   2.415  10.963
83519SOL     OW52388   0.463  10.367  12.538
83519SOL    HW152389   0.440  10.290  12.485
83519SOL    HW252390   0.379  10.409  12.556
83520SOL     OW52391  11.230   5.702   9.677
83520SOL    HW152392  11.139   5.711   9.647
83520SOL    HW252393  11.232   5.746   9.762
83521SOL     OW52394   8.773   9.074   5.760
83521SOL    HW152395   8.681   9.046   5.755
83521SOL    HW252396   8.789   9.086   5.853
83522SOL     OW52397   6.741   5.232  10.494
83522SOL    HW152398   6.751   5.190  10.409
83522SOL    HW252399   6.817   5.202  10.544
83523SOL     OW52400   6.483  13.939   3.334
83523SOL    HW152401   6.521  13.955   3.248
83523SOL    HW252402   6.390  13.954   3.323
83524SOL     OW52403  11.172   9.673   3.145
83524SOL    HW152404  11.267   9.666   3.136
83524SOL    HW252405  11.137   9.653   3.058
83525SOL     OW52406   2.343  12.972   8.606
83525SOL    HW152407   2.289  12.895   8.592
83525SOL    HW252408   2.385  12.988   8.522
83526SOL     OW52409   1.090   6.289   8.785
83526SOL    HW152410   1.150   6.229   8.830
83526SOL    HW252411   1.019   6.233   8.753
83527SOL     OW52412   7.453   3.787  11.308
83527SOL    HW152413   7.469   3.846  11.382
83527SOL    HW252414   7.415   3.709  11.348
83528SOL     OW52415   1.260   6.131   6.255
83528SOL    HW152416   1.225   6.054   6.301
83528SOL    HW252417   1.257   6.201   6.320
83529SOL     OW52418   1.456  14.047  13.681
83529SOL    HW152419   1.535  14.094  13.654
83529SOL    HW252420   1.488  13.980  13.742
83530SOL     OW52421   9.255   3.659   6.750
83530SOL    HW152422   9.204   3.695   6.823
83530SOL    HW252423   9.335   3.625   6.791
83531SOL     OW52424   2.856   0.232  12.172
83531SOL    HW152425   2.787   0.228  12.105
83531SOL    HW252426   2.842   0.154  12.225
83532SOL     OW52427  13.963   7.852  13.191
83532SOL    HW152428  14.006   7.878  13.109
83532SOL    HW252429  13.871   7.875  13.177
83533SOL     OW52430   5.830   5.833   2.996
83533SOL    HW152431   5.735   5.828   2.999
83533SOL    HW252432   5.859   5.796   3.080
83534SOL     OW52433   2.557   8.358  11.593
83534SOL    HW152434   2.549   8.413  11.515
83534SOL    HW252435   2.627   8.398  11.644
83535SOL     OW52436   3.379   0.776   1.346
83535SOL    HW152437   3.296   0.730   1.337
83535SOL    HW252438   3.407   0.792   1.256
83536SOL     OW52439   2.474  13.365   0.471
83536SOL    HW152440   2.532  13.329   0.538
83536SOL    HW252441   2.501  13.323   0.390
83537SOL     OW52442   6.082   3.897   2.418
83537SOL    HW152443   6.125   3.814   2.400
83537SOL    HW252444   6.083   3.943   2.334
83538SOL     OW52445  10.876   2.901   6.434
83538SOL    HW152446  10.868   2.940   6.521
83538SOL    HW252447  10.922   2.967   6.382
83539SOL     OW52448   6.984   1.249   2.372
83539SOL    HW152449   6.984   1.218   2.281
83539SOL    HW252450   6.913   1.313   2.376
83540SOL     OW52451  12.833  13.163   0.552
83540SOL    HW152452  12.922  13.129   0.543
83540SOL    HW252453  12.778  13.092   0.518
83541SOL     OW52454   1.290   2.411   9.246
83541SOL    HW152455   1.245   2.427   9.163
83541SOL    HW252456   1.277   2.317   9.262
83542SOL     OW52457   6.681  11.399   8.863
83542SOL    HW152458   6.631  11.440   8.933
83542SOL    HW252459   6.663  11.305   8.872
83543SOL     OW52460   4.111   0.698  11.828
83543SOL    HW152461   4.067   0.614  11.812
83543SOL    HW252462   4.125   0.734  11.740
83544SOL     OW52463   8.040   1.140   8.974
83544SOL    HW152464   7.972   1.207   8.983
83544SOL    HW252465   8.000   1.072   8.920
83545SOL     OW52466   1.134   0.507   6.896
83545SOL    HW152467   1.096   0.581   6.944
83545SOL    HW252468   1.211   0.482   6.947
83546SOL     OW52469   8.270   6.136   0.830
83546SOL    HW152470   8.300   6.048   0.852
83546SOL    HW252471   8.347   6.179   0.794
83547SOL     OW52472  13.122   7.347   9.863
83547SOL    HW152473  13.140   7.390   9.947
83547SOL    HW252474  13.132   7.417   9.798
83548SOL     OW52475   6.678   8.878   3.287
83548SOL    HW152476   6.750   8.819   3.312
83548SOL    HW252477   6.708   8.918   3.205
83549SOL     OW52478   8.270   6.613   2.568
83549SOL    HW152479   8.311   6.697   2.547
83549SOL    HW252480   8.288   6.600   2.661
83550SOL     OW52481   5.271   2.407   1.753
83550SOL    HW152482   5.301   2.416   1.663
83550SOL    HW252483   5.351   2.401   1.805
83551SOL     OW52484  13.814   9.267  11.562
83551SOL    HW152485  13.738   9.296  11.612
83551SOL    HW252486  13.855   9.347  11.530
83552SOL     OW52487   3.001   8.284  11.462
83552SOL    HW152488   2.919   8.298  11.414
83552SOL    HW252489   2.984   8.207  11.516
83553SOL     OW52490   4.687  10.853  11.633
83553SOL    HW152491   4.771  10.872  11.675
83553SOL    HW252492   4.635  10.932  11.647
83554SOL     OW52493   5.457   7.885  11.996
83554SOL    HW152494   5.514   7.840  12.058
83554SOL    HW252495   5.477   7.846  11.911
83555SOL     OW52496   2.714   1.977   8.984
83555SOL    HW152497   2.631   1.963   9.030
83555SOL    HW252498   2.742   2.064   9.012
83556SOL     OW52499  13.430  14.757  14.045
83556SOL    HW152500  13.414  14.821  14.115
83556SOL    HW252501  13.343  14.728  14.018
83557SOL     OW52502   7.016  13.811  10.583
83557SOL    HW152503   6.955  13.797  10.511
83557SOL    HW252504   7.074  13.881  10.553
83558SOL     OW52505   1.051   6.859   1.669
83558SOL    HW152506   1.023   6.930   1.727
83558SOL    HW252507   1.104   6.902   1.602
83559SOL     OW52508   0.077   7.183   3.717
83559SOL    HW152509   0.015   7.176   3.644
83559SOL    HW252510   0.091   7.277   3.727
83560SOL     OW52511   9.325   3.537   5.585
83560SOL    HW152512   9.259   3.606   5.590
83560SOL    HW252513   9.289   3.474   5.522
83561SOL     OW52514   0.175  12.253  14.699
83561SOL    HW152515   0.240  12.321  14.718
83561SOL    HW252516   0.116  12.293  14.635
83562SOL     OW52517   4.362   5.446  12.059
83562SOL    HW152518   4.306   5.420  12.133
83562SOL    HW252519   4.395   5.532  12.084
83563SOL     OW52520   1.129  13.897  11.254
83563SOL    HW152521   1.078  13.950  11.314
83563SOL    HW252522   1.071  13.883  11.179
83564SOL     OW52523   1.158  11.811   4.080
83564SOL    HW152524   1.076  11.765   4.099
83564SOL    HW252525   1.139  11.902   4.102
83565SOL     OW52526   0.769  12.565   8.224
83565SOL    HW152527   0.764  12.497   8.156
83565SOL    HW252528   0.685  12.610   8.219
83566SOL     OW52529   5.931  12.754   4.377
83566SOL    HW152530   5.854  12.738   4.431
83566SOL    HW252531   5.998  12.783   4.438
83567SOL     OW52532   8.344  11.382   4.374
83567SOL    HW152533   8.353  11.368   4.280
83567SOL    HW252534   8.356  11.295   4.412
83568SOL     OW52535   3.663   9.037   3.483
83568SOL    HW152536   3.728   9.097   3.446
83568SOL    HW252537   3.610   9.092   3.541
83569SOL     OW52538  10.250  10.649   4.032
83569SOL    HW152539  10.330  10.598   4.024
83569SOL    HW252540  10.218  10.658   3.942
83570SOL     OW52541  10.735  11.824   3.029
83570SOL    HW152542  10.799  11.765   2.988
83570SOL    HW252543  10.750  11.909   2.988
83571SOL     OW52544  13.157   1.946   9.690
83571SOL    HW152545  13.151   2.041   9.702
83571SOL    HW252546  13.073   1.912   9.722
83572SOL     OW52547   4.562   9.947   8.488
83572SOL    HW152548   4.646   9.989   8.507
83572SOL    HW252549   4.561   9.940   8.392
83573SOL     OW52550  14.363  10.090  10.789
83573SOL    HW152551  14.448  10.072  10.829
83573SOL    HW252552  14.365  10.183  10.768
83574SOL     OW52553  13.005   9.615   9.402
83574SOL    HW152554  13.026   9.558   9.475
83574SOL    HW252555  13.089   9.649   9.372
83575SOL     OW52556   4.477   5.545  11.803
83575SOL    HW152557   4.469   5.640  11.800
83575SOL    HW252558   4.400   5.516  11.852
83576SOL     OW52559   2.182  10.000  13.811
83576SOL    HW152560   2.195  10.067  13.878
83576SOL    HW252561   2.218   9.920  13.849
83577SOL     OW52562   4.578   2.457  11.640
83577SOL    HW152563   4.626   2.536  11.617
83577SOL    HW252564   4.644   2.387  11.638
83578SOL     OW52565   1.402   4.397   9.792
83578SOL    HW152566   1.353   4.474   9.765
83578SOL    HW252567   1.462   4.379   9.720
83579SOL     OW52568  14.426   7.946   2.789
83579SOL    HW152569  14.340   7.938   2.830
83579SOL    HW252570  14.428   8.036   2.755
83580SOL     OW52571   5.636   8.148   3.482
83580SOL    HW152572   5.718   8.101   3.495
83580SOL    HW252573   5.606   8.169   3.570
83581SOL     OW52574   9.048   6.415   9.447
83581SOL    HW152575   9.062   6.459   9.363
83581SOL    HW252576   9.062   6.484   9.512
83582SOL     OW52577  12.558   8.710   6.884
83582SOL    HW152578  12.606   8.792   6.874
83582SOL    HW252579  12.505   8.723   6.963
83583SOL     OW52580   0.051   5.622   3.842
83583SOL    HW152581  14.870   5.681   3.791
83583SOL    HW252582   0.137   5.632   3.803
83584SOL     OW52583   4.090   7.943  12.040
83584SOL    HW152584   4.053   7.857  12.062
83584SOL    HW252585   4.175   7.923  12.000
83585SOL     OW52586   2.292   0.874  11.859
83585SOL    HW152587   2.234   0.802  11.884
83585SOL    HW252588   2.234   0.938  11.817
83586SOL     OW52589  12.275  14.614   1.147
83586SOL    HW152590  12.295  14.596   1.056
83586SOL    HW252591  12.265  14.709   1.152
83587SOL     OW52592  10.488   8.193   2.192
83587SOL    HW152593  10.491   8.225   2.102
83587SOL    HW252594  10.480   8.098   2.183
83588SOL     OW52595   2.739  13.815   0.923
83588SOL    HW152596   2.834  13.809   0.916
83588SOL    HW252597   2.724  13.901   0.962
83589SOL     OW52598   8.103   3.108  10.041
83589SOL    HW152599   8.113   3.188  10.093
83589SOL    HW252600   8.175   3.052  10.069
83590SOL     OW52601  10.934  14.437  11.592
83590SOL    HW152602  10.886  14.517  11.614
83590SOL    HW252603  10.966  14.452  11.503
83591SOL     OW52604   6.737   3.912  11.086
83591SOL    HW152605   6.670   3.846  11.072
83591SOL    HW252606   6.817   3.874  11.049
83592SOL     OW52607   4.411   7.475   5.356
83592SOL    HW152608   4.428   7.392   5.400
83592SOL    HW252609   4.487   7.490   5.301
83593SOL     OW52610  11.311   0.450  10.295
83593SOL    HW152611  11.252   0.429  10.222
83593SOL    HW252612  11.296   0.380  10.359
83594SOL     OW52613   1.433  11.430   0.736
83594SOL    HW152614   1.490  11.490   0.687
83594SOL    HW252615   1.350  11.432   0.687
83595SOL     OW52616   7.231  11.888   6.198
83595SOL    HW152617   7.150  11.836   6.205
83595SOL    HW252618   7.296  11.826   6.165
83596SOL     OW52619   7.663   1.847   9.073
83596SOL    HW152620   7.689   1.766   9.118
83596SOL    HW252621   7.733   1.909   9.094
83597SOL     OW52622   3.321  12.220   9.496
83597SOL    HW152623   3.325  12.277   9.419
83597SOL    HW252624   3.272  12.271   9.561
83598SOL     OW52625   4.971   4.970   2.722
83598SOL    HW152626   4.904   5.011   2.776
83598SOL    HW252627   4.923   4.909   2.666
83599SOL     OW52628   5.161   0.299   1.412
83599SOL    HW152629   5.174   0.205   1.428
83599SOL    HW252630   5.242   0.328   1.370
83600SOL     OW52631  14.261   7.922   3.486
83600SOL    HW152632  14.185   7.865   3.478
83600SOL    HW252633  14.273   7.934   3.580
83601SOL     OW52634   4.259   7.269  11.131
83601SOL    HW152635   4.301   7.220  11.060
83601SOL    HW252636   4.285   7.360  11.116
83602SOL     OW52637   7.342  14.479   6.130
83602SOL    HW152638   7.311  14.558   6.086
83602SOL    HW252639   7.283  14.467   6.204
83603SOL     OW52640  10.315   4.107   0.814
83603SOL    HW152641  10.368   4.102   0.734
83603SOL    HW252642  10.292   4.199   0.823
83604SOL     OW52643  12.159   2.040  12.769
83604SOL    HW152644  12.224   2.103  12.800
83604SOL    HW252645  12.115   2.011  12.849
83605SOL     OW52646  13.682   3.368   4.366
83605SOL    HW152647  13.638   3.419   4.435
83605SOL    HW252648  13.671   3.277   4.394
83606SOL     OW52649   6.597   7.151   0.874
83606SOL    HW152650   6.559   7.084   0.930
83606SOL    HW252651   6.639   7.213   0.934
83607SOL     OW52652   6.004   4.223  13.941
83607SOL    HW152653   5.936   4.156  13.938
83607SOL    HW252654   5.957   4.306  13.941
83608SOL     OW52655   9.162  13.704  11.974
83608SOL    HW152656   9.243  13.686  12.023
83608SOL    HW252657   9.097  13.724  12.041
83609SOL     OW52658  10.110   8.525   9.458
83609SOL    HW152659  10.044   8.466   9.421
83609SOL    HW252660  10.060   8.584   9.513
83610SOL     OW52661   2.623  13.651  13.101
83610SOL    HW152662   2.632  13.740  13.068
83610SOL    HW252663   2.530  13.631  13.092
83611SOL     OW52664  13.865   7.761   1.509
83611SOL    HW152665  13.809   7.684   1.511
83611SOL    HW252666  13.900   7.768   1.597
83612SOL     OW52667   2.922  11.111   7.867
83612SOL    HW152668   2.877  11.134   7.787
83612SOL    HW252669   3.015  11.120   7.846
83613SOL     OW52670   6.705   1.524  13.258
83613SOL    HW152671   6.653   1.545  13.180
83613SOL    HW252672   6.729   1.609  13.295
83614SOL     OW52673   2.855  10.051   8.633
83614SOL    HW152674   2.848  10.136   8.675
83614SOL    HW252675   2.947  10.042   8.610
83615SOL     OW52676  12.937   4.284   7.784
83615SOL    HW152677  12.879   4.242   7.847
83615SOL    HW252678  12.909   4.250   7.699
83616SOL     OW52679   0.961   7.884  10.491
83616SOL    HW152680   1.039   7.934  10.470
83616SOL    HW252681   0.943   7.904  10.583
83617SOL     OW52682  12.369   4.372   9.843
83617SOL    HW152683  12.433   4.360   9.774
83617SOL    HW252684  12.292   4.407   9.799
83618SOL     OW52685   9.870   4.213  10.825
83618SOL    HW152686   9.960   4.221  10.856
83618SOL    HW252687   9.867   4.129  10.780
83619SOL     OW52688  10.756   5.904   3.137
83619SOL    HW152689  10.712   5.916   3.221
83619SOL    HW252690  10.700   5.948   3.074
83620SOL     OW52691  12.335   3.993  14.211
83620SOL    HW152692  12.302   4.038  14.288
83620SOL    HW252693  12.298   3.905  14.217
83621SOL     OW52694  14.540  12.531   3.964
83621SOL    HW152695  14.561  12.485   3.883
83621SOL    HW252696  14.468  12.589   3.940
83622SOL     OW52697   0.798  13.555  13.717
83622SOL    HW152698   0.728  13.586  13.774
83622SOL    HW252699   0.766  13.471  13.684
83623SOL     OW52700  13.602   9.566   4.514
83623SOL    HW152701  13.552   9.550   4.594
83623SOL    HW252702  13.676   9.505   4.520
83624SOL     OW52703   7.256   2.712   5.402
83624SOL    HW152704   7.162   2.727   5.414
83624SOL    HW252705   7.297   2.788   5.443
83625SOL     OW52706   7.989   1.478   9.361
83625SOL    HW152707   7.918   1.423   9.394
83625SOL    HW252708   8.030   1.514   9.439
83626SOL     OW52709  14.656   3.318   7.280
83626SOL    HW152710  14.695   3.370   7.351
83626SOL    HW252711  14.570   3.356   7.267
83627SOL     OW52712  10.137   3.918  14.185
83627SOL    HW152713  10.197   3.847  14.206
83627SOL    HW252714  10.055   3.875  14.161
83628SOL     OW52715   7.381   4.688  12.508
83628SOL    HW152716   7.462   4.662  12.552
83628SOL    HW252717   7.409   4.757  12.447
83629SOL     OW52718  11.674  13.687   6.278
83629SOL    HW152719  11.634  13.712   6.195
83629SOL    HW252720  11.762  13.726   6.275
83630SOL     OW52721  12.396   8.090   8.551
83630SOL    HW152722  12.346   8.145   8.491
83630SOL    HW252723  12.472   8.142   8.575
83631SOL     OW52724  10.045   8.299   4.830
83631SOL    HW152725  10.090   8.244   4.766
83631SOL    HW252726  10.002   8.236   4.888
83632SOL     OW52727   2.057   9.632  12.487
83632SOL    HW152728   2.024   9.681  12.562
83632SOL    HW252729   2.148   9.611  12.509
83633SOL     OW52730   1.503   8.280   1.604
83633SOL    HW152731   1.511   8.372   1.629
83633SOL    HW252732   1.591   8.243   1.616
83634SOL     OW52733   6.783  14.310   3.460
83634SOL    HW152734   6.821  14.378   3.404
83634SOL    HW252735   6.696  14.295   3.423
83635SOL     OW52736  13.225   2.148   2.101
83635SOL    HW152737  13.153   2.099   2.140
83635SOL    HW252738  13.244   2.218   2.164
83636SOL     OW52739   7.159  13.432   7.016
83636SOL    HW152740   7.222  13.372   6.977
83636SOL    HW252741   7.086  13.376   7.042
83637SOL     OW52742   6.987  14.280   2.201
83637SOL    HW152743   7.059  14.293   2.263
83637SOL    HW252744   7.024  14.305   2.116
83638SOL     OW52745   7.487   6.340   6.638
83638SOL    HW152746   7.429   6.388   6.696
83638SOL    HW252747   7.530   6.408   6.586
83639SOL     OW52748  14.384   1.928   1.884
83639SOL    HW152749  14.396   1.994   1.815
83639SOL    HW252750  14.307   1.878   1.857
83640SOL     OW52751  11.604   7.469   8.610
83640SOL    HW152752  11.512   7.460   8.585
83640SOL    HW252753  11.651   7.417   8.546
83641SOL     OW52754   8.701   0.416   1.234
83641SOL    HW152755   8.710   0.361   1.156
83641SOL    HW252756   8.614   0.393   1.269
83642SOL     OW52757  13.659  11.437   8.242
83642SOL    HW152758  13.738  11.443   8.295
83642SOL    HW252759  13.602  11.378   8.290
83643SOL     OW52760   9.416   4.800  11.049
83643SOL    HW152761   9.437   4.876  11.104
83643SOL    HW252762   9.321   4.801  11.041
83644SOL     OW52763   6.213  13.810   6.625
83644SOL    HW152764   6.232  13.737   6.567
83644SOL    HW252765   6.256  13.787   6.707
83645SOL     OW52766  11.226   4.831  10.057
83645SOL    HW152767  11.243   4.751  10.008
83645SOL    HW252768  11.313   4.863  10.081
83646SOL     OW52769   2.154   2.738  12.117
83646SOL    HW152770   2.096   2.672  12.078
83646SOL    HW252771   2.127   2.743  12.209
83647SOL     OW52772  14.179   5.828  12.535
83647SOL    HW152773  14.186   5.898  12.470
83647SOL    HW252774  14.184   5.747  12.484
83648SOL     OW52775  13.745   9.128  10.229
83648SOL    HW152776  13.704   9.207  10.265
83648SOL    HW252777  13.772   9.153  10.141
83649SOL     OW52778   1.330   2.045   3.719
83649SOL    HW152779   1.425   2.033   3.722
83649SOL    HW252780   1.300   2.020   3.806
83650SOL     OW52781  14.620   1.902   4.788
83650SOL    HW152782  14.684   1.971   4.805
83650SOL    HW252783  14.579   1.927   4.705
83651SOL     OW52784  12.468  12.253   0.898
83651SOL    HW152785  12.454  12.163   0.928
83651SOL    HW252786  12.552  12.279   0.936
83652SOL     OW52787   8.530   2.235   1.194
83652SOL    HW152788   8.496   2.276   1.273
83652SOL    HW252789   8.549   2.308   1.134
83653SOL     OW52790   3.170  10.208   6.047
83653SOL    HW152791   3.265  10.218   6.054
83653SOL    HW252792   3.135  10.260   6.119
83654SOL     OW52793  14.373   1.007   3.428
83654SOL    HW152794  14.355   1.078   3.490
83654SOL    HW252795  14.448   1.039   3.377
83655SOL     OW52796   7.556  11.792  14.428
83655SOL    HW152797   7.580  11.706  14.462
83655SOL    HW252798   7.470  11.778  14.388
83656SOL     OW52799  12.472   5.645  14.268
83656SOL    HW152800  12.503   5.563  14.230
83656SOL    HW252801  12.550   5.685  14.306
83657SOL     OW52802   6.299   7.919   5.549
83657SOL    HW152803   6.271   7.835   5.511
83657SOL    HW252804   6.218   7.970   5.554
83658SOL     OW52805   8.714  13.381   9.930
83658SOL    HW152806   8.804  13.412   9.919
83658SOL    HW252807   8.702  13.374  10.025
83659SOL     OW52808  10.597   3.813  12.252
83659SOL    HW152809  10.518   3.803  12.304
83659SOL    HW252810  10.667   3.828  12.316
83660SOL     OW52811   5.630   0.655  14.332
83660SOL    HW152812   5.601   0.594  14.399
83660SOL    HW252813   5.551   0.704  14.308
83661SOL     OW52814   8.904  10.940   3.746
83661SOL    HW152815   8.859  10.864   3.710
83661SOL    HW252816   8.896  11.007   3.678
83662SOL     OW52817  12.932   4.287   4.032
83662SOL    HW152818  12.970   4.221   4.090
83662SOL    HW252819  12.935   4.369   4.083
83663SOL     OW52820  14.166   6.583  11.507
83663SOL    HW152821  14.091   6.567  11.565
83663SOL    HW252822  14.199   6.495  11.487
83664SOL     OW52823   4.346  11.984   0.341
83664SOL    HW152824   4.257  12.007   0.315
83664SOL    HW252825   4.350  11.888   0.332
83665SOL     OW52826   6.805   0.256   2.926
83665SOL    HW152827   6.712   0.235   2.930
83665SOL    HW252828   6.816   0.299   2.841
83666SOL     OW52829   9.630  10.955   2.567
83666SOL    HW152830   9.556  11.015   2.568
83666SOL    HW252831   9.697  10.997   2.621
83667SOL     OW52832  13.536   0.223   7.366
83667SOL    HW152833  13.580   0.219   7.451
83667SOL    HW252834  13.607   0.226   7.302
83668SOL     OW52835  11.630   8.727   5.303
83668SOL    HW152836  11.592   8.655   5.252
83668SOL    HW252837  11.606   8.806   5.255
83669SOL     OW52838   1.547  12.894   6.588
83669SOL    HW152839   1.635  12.856   6.590
83669SOL    HW252840   1.490  12.822   6.613
83670SOL     OW52841  10.701   5.929   3.938
83670SOL    HW152842  10.651   5.848   3.945
83670SOL    HW252843  10.786   5.908   3.976
83671SOL     OW52844  13.105  13.754  10.983
83671SOL    HW152845  13.195  13.765  10.953
83671SOL    HW252846  13.061  13.709  10.911
83672SOL     OW52847   5.184   0.905   1.322
83672SOL    HW152848   5.227   0.979   1.278
83672SOL    HW252849   5.122   0.946   1.382
83673SOL     OW52850   3.445   8.365   5.036
83673SOL    HW152851   3.364   8.394   4.995
83673SOL    HW252852   3.434   8.270   5.046
83674SOL     OW52853   0.127   1.153   3.496
83674SOL    HW152854   0.126   1.247   3.512
83674SOL    HW252855   0.140   1.145   3.401
83675SOL     OW52856   3.422   8.958  14.670
83675SOL    HW152857   3.467   8.944  14.588
83675SOL    HW252858   3.466   9.033  14.710
83676SOL     OW52859  14.138  10.155  10.957
83676SOL    HW152860  14.146  10.184  11.048
83676SOL    HW252861  14.227  10.140  10.928
83677SOL     OW52862  11.912   5.313  11.100
83677SOL    HW152863  11.861   5.233  11.088
83677SOL    HW252864  11.855   5.382  11.064
83678SOL     OW52865   5.849   8.279   7.175
83678SOL    HW152866   5.888   8.250   7.257
83678SOL    HW252867   5.907   8.349   7.144
83679SOL     OW52868  13.683   5.174  10.354
83679SOL    HW152869  13.743   5.153  10.426
83679SOL    HW252870  13.600   5.192  10.398
83680SOL     OW52871  11.361   5.194   7.665
83680SOL    HW152872  11.334   5.274   7.620
83680SOL    HW252873  11.313   5.197   7.748
83681SOL     OW52874  11.629   9.891   2.767
83681SOL    HW152875  11.633   9.820   2.832
83681SOL    HW252876  11.585   9.851   2.691
83682SOL     OW52877   2.598   1.824  13.975
83682SOL    HW152878   2.508   1.809  13.948
83682SOL    HW252879   2.632   1.885  13.909
83683SOL     OW52880   4.632   1.713   4.109
83683SOL    HW152881   4.649   1.681   4.021
83683SOL    HW252882   4.572   1.787   4.097
83684SOL     OW52883   7.274  11.346   0.764
83684SOL    HW152884   7.268  11.251   0.753
83684SOL    HW252885   7.212  11.382   0.701
83685SOL     OW52886   8.833   6.549   5.674
83685SOL    HW152887   8.852   6.489   5.601
83685SOL    HW252888   8.859   6.501   5.752
83686SOL     OW52889   9.051   4.550   3.305
83686SOL    HW152890   9.124   4.488   3.298
83686SOL    HW252891   9.085   4.620   3.360
83687SOL     OW52892  13.005   9.824   7.994
83687SOL    HW152893  12.918   9.785   7.988
83687SOL    HW252894  13.053   9.765   8.052
83688SOL     OW52895   8.155  10.880  10.345
83688SOL    HW152896   8.186  10.963  10.308
83688SOL    HW252897   8.198  10.874  10.430
83689SOL     OW52898   8.217  10.498   2.139
83689SOL    HW152899   8.243  10.498   2.230
83689SOL    HW252900   8.240  10.585   2.106
83690SOL     OW52901  11.774  12.395   9.797
83690SOL    HW152902  11.738  12.424   9.881
83690SOL    HW252903  11.849  12.452   9.783
83691SOL     OW52904  12.486  12.339   5.215
83691SOL    HW152905  12.532  12.367   5.294
83691SOL    HW252906  12.465  12.420   5.169
83692SOL     OW52907  11.639   4.399   3.291
83692SOL    HW152908  11.642   4.307   3.319
83692SOL    HW252909  11.596   4.445   3.364
83693SOL     OW52910  11.900   9.044   6.740
83693SOL    HW152911  11.927   8.958   6.709
83693SOL    HW252912  11.900   9.037   6.835
83694SOL     OW52913   4.067  11.686  13.097
83694SOL    HW152914   4.147  11.739  13.104
83694SOL    HW252915   3.996  11.748  13.113
83695SOL     OW52916   3.134   9.385   6.827
83695SOL    HW152917   3.192   9.392   6.751
83695SOL    HW252918   3.118   9.475   6.853
83696SOL     OW52919   3.397   3.292   9.716
83696SOL    HW152920   3.312   3.257   9.687
83696SOL    HW252921   3.374   3.357   9.783
83697SOL     OW52922   2.025  14.840  13.518
83697SOL    HW152923   2.010   0.057  13.504
83697SOL    HW252924   1.938  14.800  13.508
83698SOL     OW52925  13.282  14.474   3.680
83698SOL    HW152926  13.311  14.433   3.762
83698SOL    HW252927  13.187  14.466   3.682
83699SOL     OW52928  14.388   9.197   0.143
83699SOL    HW152929  14.462   9.203   0.082
83699SOL    HW252930  14.312   9.185   0.087
83700SOL     OW52931   7.408  13.223  14.304
83700SOL    HW152932   7.371  13.135  14.309
83700SOL    HW252933   7.399  13.248  14.212
83701SOL     OW52934  12.130   5.493   2.834
83701SOL    HW152935  12.114   5.402   2.806
83701SOL    HW252936  12.091   5.498   2.921
83702SOL     OW52937  12.582  11.183   8.052
83702SOL    HW152938  12.522  11.197   8.125
83702SOL    HW252939  12.581  11.089   8.038
83703SOL     OW52940  14.708  10.093  11.618
83703SOL    HW152941  14.623  10.086  11.576
83703SOL    HW252942  14.769  10.109  11.546
83704SOL     OW52943   5.522  10.469   4.367
83704SOL    HW152944   5.439  10.473   4.414
83704SOL    HW252945   5.552  10.560   4.363
83705SOL     OW52946  13.884  11.035   2.291
83705SOL    HW152947  13.895  11.124   2.324
83705SOL    HW252948  13.790  11.023   2.285
83706SOL     OW52949   5.407  10.125   5.309
83706SOL    HW152950   5.344  10.070   5.263
83706SOL    HW252951   5.421  10.200   5.252
83707SOL     OW52952  11.561   4.845   1.409
83707SOL    HW152953  11.502   4.887   1.472
83707SOL    HW252954  11.635   4.906   1.401
83708SOL     OW52955   9.082   2.762   9.558
83708SOL    HW152956   9.012   2.819   9.524
83708SOL    HW252957   9.064   2.677   9.518
83709SOL     OW52958  12.416   7.439  10.413
83709SOL    HW152959  12.374   7.402  10.335
83709SOL    HW252960  12.362   7.513  10.437
83710SOL     OW52961   3.594   7.793  10.721
83710SOL    HW152962   3.646   7.734  10.776
83710SOL    HW252963   3.655   7.823  10.654
83711SOL     OW52964   1.954   3.029   8.609
83711SOL    HW152965   1.900   3.107   8.618
83711SOL    HW252966   1.939   2.979   8.689
83712SOL     OW52967  12.840   3.725   7.739
83712SOL    HW152968  12.911   3.675   7.779
83712SOL    HW252969  12.805   3.666   7.672
83713SOL     OW52970   7.148  10.416  10.650
83713SOL    HW152971   7.163  10.351  10.581
83713SOL    HW252972   7.173  10.371  10.731
83714SOL     OW52973  11.531   6.906   1.804
83714SOL    HW152974  11.603   6.969   1.803
83714SOL    HW252975  11.572   6.821   1.792
83715SOL     OW52976   8.952  11.564   3.101
83715SOL    HW152977   8.887  11.495   3.111
83715SOL    HW252978   9.036  11.520   3.110
83716SOL     OW52979   9.419   6.653   0.809
83716SOL    HW152980   9.351   6.639   0.874
83716SOL    HW252981   9.467   6.729   0.840
83717SOL     OW52982   0.692   0.278   8.487
83717SOL    HW152983   0.697   0.370   8.461
83717SOL    HW252984   0.598   0.259   8.488
83718SOL     OW52985   1.193   4.663   2.901
83718SOL    HW152986   1.245   4.608   2.842
83718SOL    HW252987   1.240   4.746   2.904
83719SOL     OW52988   3.245   8.275   8.650
83719SOL    HW152989   3.295   8.218   8.592
83719SOL    HW252990   3.303   8.348   8.669
83720SOL     OW52991   5.125   1.496  13.508
83720SOL    HW152992   5.183   1.555  13.557
83720SOL    HW252993   5.113   1.421  13.566
83721SOL     OW52994   0.244   4.397  10.800
83721SOL    HW152995   0.220   4.472  10.855
83721SOL    HW252996   0.184   4.328  10.826
83722SOL     OW52997  13.081   7.036   4.219
83722SOL    HW152998  13.081   7.055   4.313
83722SOL    HW252999  13.123   7.113   4.179
83723SOL     OW53000   4.486   5.977   2.175
83723SOL    HW153001   4.553   5.915   2.202
83723SOL    HW253002   4.518   6.012   2.091
83724SOL     OW53003   0.035  11.077   3.897
83724SOL    HW153004  14.871  10.993   3.873
83724SOL    HW253005   0.020  11.084   3.991
83725SOL     OW53006   5.833  14.053   6.505
83725SOL    HW153007   5.886  13.981   6.471
83725SOL    HW253008   5.828  14.115   6.433
83726SOL     OW53009  12.459  10.843   4.328
83726SOL    HW153010  12.452  10.846   4.423
83726SOL    HW253011  12.503  10.760   4.309
83727SOL     OW53012   7.736   0.960   9.594
83727SOL    HW153013   7.717   0.923   9.508
83727SOL    HW253014   7.654   0.950   9.643
83728SOL     OW53015  14.040   1.943  14.514
83728SOL    HW153016  14.118   1.938  14.570
83728SOL    HW253017  13.993   1.862  14.531
83729SOL     OW53018   1.979  14.293   0.214
83729SOL    HW153019   2.046  14.245   0.262
83729SOL    HW253020   1.902  14.291   0.272
83730SOL     OW53021  13.696   8.364   8.072
83730SOL    HW153022  13.790   8.347   8.071
83730SOL    HW253023  13.662   8.307   8.141
83731SOL     OW53024   6.255  11.985   4.869
83731SOL    HW153025   6.344  11.961   4.896
83731SOL    HW253026   6.267  12.062   4.814
83732SOL     OW53027  10.376   7.589   9.601
83732SOL    HW153028  10.289   7.604   9.638
83732SOL    HW253029  10.437   7.620   9.668
83733SOL     OW53030   3.107   1.471   7.894
83733SOL    HW153031   3.086   1.503   7.806
83733SOL    HW253032   3.051   1.523   7.952
83734SOL     OW53033   1.995   0.402   5.342
83734SOL    HW153034   1.985   0.362   5.256
83734SOL    HW253035   1.911   0.388   5.385
83735SOL     OW53036   0.213   9.940   5.549
83735SOL    HW153037   0.288   9.901   5.592
83735SOL    HW253038   0.138   9.914   5.603
83736SOL     OW53039   9.712   6.992  11.970
83736SOL    HW153040   9.758   6.910  11.988
83736SOL    HW253041   9.622   6.965  11.951
83737SOL     OW53042   6.881   6.478  12.345
83737SOL    HW153043   6.837   6.561  12.329
83737SOL    HW253044   6.942   6.469  12.272
83738SOL     OW53045  11.671   7.351  11.583
83738SOL    HW153046  11.578   7.371  11.582
83738SOL    HW253047  11.698   7.365  11.674
83739SOL     OW53048   4.839   0.105  13.813
83739SOL    HW153049   4.829   0.049  13.891
83739SOL    HW253050   4.794   0.057  13.743
83740SOL     OW53051   0.133   3.314   3.156
83740SOL    HW153052   0.092   3.317   3.242
83740SOL    HW253053   0.227   3.320   3.174
83741SOL     OW53054   8.627   9.930   7.330
83741SOL    HW153055   8.554   9.907   7.272
83741SOL    HW253056   8.705   9.917   7.275
83742SOL     OW53057  14.772  12.000   6.248
83742SOL    HW153058  14.847  12.059   6.246
83742SOL    HW253059  14.716  12.035   6.318
83743SOL     OW53060   0.697  13.961  12.715
83743SOL    HW153061   0.765  14.024  12.693
83743SOL    HW253062   0.662  13.991  12.799
83744SOL     OW53063   4.640   9.534   0.709
83744SOL    HW153064   4.633   9.527   0.614
83744SOL    HW253065   4.576   9.471   0.743
83745SOL     OW53066   8.495   2.705   2.499
83745SOL    HW153067   8.565   2.642   2.482
83745SOL    HW253068   8.536   2.791   2.484
83746SOL     OW53069   4.785  13.373   3.760
83746SOL    HW153070   4.759  13.284   3.783
83746SOL    HW253071   4.880  13.373   3.769
83747SOL     OW53072  11.319   0.925  13.133
83747SOL    HW153073  11.383   0.995  13.135
83747SOL    HW253074  11.349   0.862  13.198
83748SOL     OW53075   8.461   4.436  13.520
83748SOL    HW153076   8.476   4.409  13.610
83748SOL    HW253077   8.374   4.477  13.521
83749SOL     OW53078   9.241   6.779   7.976
83749SOL    HW153079   9.252   6.684   7.974
83749SOL    HW253080   9.163   6.796   7.923
83750SOL     OW53081   9.167   7.846   3.116
83750SOL    HW153082   9.257   7.818   3.100
83750SOL    HW253083   9.113   7.775   3.081
83751SOL     OW53084   2.380  12.524  10.534
83751SOL    HW153085   2.394  12.457  10.467
83751SOL    HW253086   2.436  12.597  10.508
83752SOL     OW53087   0.092   5.676  10.204
83752SOL    HW153088   0.051   5.591  10.219
83752SOL    HW253089   0.067   5.699  10.114
83753SOL     OW53090   7.113  12.851   7.609
83753SOL    HW153091   7.026  12.820   7.634
83753SOL    HW253092   7.119  12.832   7.515
83754SOL     OW53093   2.050  12.254   5.102
83754SOL    HW153094   2.004  12.230   5.021
83754SOL    HW253095   1.995  12.220   5.172
83755SOL     OW53096  10.778   1.675   8.542
83755SOL    HW153097  10.858   1.724   8.522
83755SOL    HW253098  10.800   1.621   8.618
83756SOL     OW53099   3.729   5.391  11.536
83756SOL    HW153100   3.810   5.431  11.568
83756SOL    HW253101   3.753   5.300  11.519
83757SOL     OW53102   5.598   9.089  11.505
83757SOL    HW153103   5.650   9.072  11.426
83757SOL    HW253104   5.663   9.092  11.576
83758SOL     OW53105  14.776   5.124   9.045
83758SOL    HW153106  14.767   5.112   8.950
83758SOL    HW253107  14.697   5.171   9.071
83759SOL     OW53108  14.624  12.874   5.582
83759SOL    HW153109  14.646  12.965   5.561
83759SOL    HW253110  14.615  12.832   5.496
83760SOL     OW53111   7.192  10.073   8.096
83760SOL    HW153112   7.185   9.983   8.064
83760SOL    HW253113   7.153  10.070   8.184
83761SOL     OW53114  14.140  12.590  13.126
83761SOL    HW153115  14.051  12.562  13.107
83761SOL    HW253116  14.143  12.595  13.222
83762SOL     OW53117   9.608   4.140   8.001
83762SOL    HW153118   9.563   4.117   8.082
83762SOL    HW253119   9.561   4.091   7.933
83763SOL     OW53120  11.023   2.838   4.804
83763SOL    HW153121  11.098   2.893   4.823
83763SOL    HW253122  11.057   2.749   4.806
83764SOL     OW53123   3.842  10.149   0.655
83764SOL    HW153124   3.880  10.236   0.671
83764SOL    HW253125   3.761  10.167   0.607
83765SOL     OW53126  13.368   0.834   3.785
83765SOL    HW153127  13.433   0.765   3.801
83765SOL    HW253128  13.402   0.881   3.708
83766SOL     OW53129  12.682  10.084   2.514
83766SOL    HW153130  12.595  10.115   2.488
83766SOL    HW253131  12.678   9.989   2.505
83767SOL     OW53132   8.573   3.226   2.161
83767SOL    HW153133   8.523   3.301   2.131
83767SOL    HW253134   8.663   3.245   2.134
83768SOL     OW53135   3.744   2.090   9.010
83768SOL    HW153136   3.756   1.996   8.996
83768SOL    HW253137   3.816   2.130   8.961
83769SOL     OW53138  10.020  13.977   5.107
83769SOL    HW153139   9.955  14.034   5.150
83769SOL    HW253140  10.103  14.024   5.119
83770SOL     OW53141  13.213   5.533   2.050
83770SOL    HW153142  13.146   5.595   2.019
83770SOL    HW253143  13.193   5.519   2.142
83771SOL     OW53144  13.714   5.517   2.516
83771SOL    HW153145  13.633   5.561   2.537
83771SOL    HW253146  13.692   5.460   2.442
83772SOL     OW53147  12.822   0.260   9.199
83772SOL    HW153148  12.789   0.340   9.241
83772SOL    HW253149  12.869   0.292   9.122
83773SOL     OW53150   2.484   7.244   5.085
83773SOL    HW153151   2.557   7.202   5.130
83773SOL    HW253152   2.456   7.313   5.145
83774SOL     OW53153   8.545  14.617   5.812
83774SOL    HW153154   8.496  14.699   5.803
83774SOL    HW253155   8.597  14.629   5.892
83775SOL     OW53156   2.721   0.717   0.887
83775SOL    HW153157   2.780   0.772   0.836
83775SOL    HW253158   2.780   0.660   0.937
83776SOL     OW53159   5.544  11.639   7.397
83776SOL    HW153160   5.449  11.650   7.408
83776SOL    HW253161   5.574  11.722   7.361
83777SOL     OW53162  13.048   2.070   2.917
83777SOL    HW153163  13.086   2.027   2.840
83777SOL    HW253164  12.954   2.069   2.901
83778SOL     OW53165  13.389   6.320   4.419
83778SOL    HW153166  13.378   6.364   4.335
83778SOL    HW253167  13.312   6.345   4.470
83779SOL     OW53168   2.961  13.649  14.448
83779SOL    HW153169   3.020  13.626  14.376
83779SOL    HW253170   2.873  13.630  14.414
83780SOL     OW53171  11.204   0.237   3.803
83780SOL    HW153172  11.244   0.225   3.717
83780SOL    HW253173  11.234   0.162   3.854
83781SOL     OW53174   5.468  10.372   2.856
83781SOL    HW153175   5.410  10.323   2.914
83781SOL    HW253176   5.440  10.348   2.768
83782SOL     OW53177   3.385  11.363   3.915
83782SOL    HW153178   3.303  11.330   3.952
83782SOL    HW253179   3.416  11.428   3.978
83783SOL     OW53180   0.616   0.527   1.174
83783SOL    HW153181   0.587   0.467   1.243
83783SOL    HW253182   0.615   0.475   1.094
83784SOL     OW53183   9.024  11.278  13.446
83784SOL    HW153184   8.992  11.199  13.402
83784SOL    HW253185   8.964  11.347  13.418
83785SOL     OW53186   9.155   1.040   5.590
83785SOL    HW153187   9.150   1.096   5.667
83785SOL    HW253188   9.085   0.976   5.602
83786SOL     OW53189  11.658   9.334  10.357
83786SOL    HW153190  11.579   9.381  10.329
83786SOL    HW253191  11.725   9.362  10.295
83787SOL     OW53192  10.348   4.538   1.985
83787SOL    HW153193  10.286   4.539   2.058
83787SOL    HW253194  10.432   4.513   2.026
83788SOL     OW53195  12.991   5.480   7.624
83788SOL    HW153196  13.010   5.389   7.601
83788SOL    HW253197  12.994   5.481   7.720
83789SOL     OW53198   4.387   7.470   4.509
83789SOL    HW153199   4.339   7.514   4.579
83789SOL    HW253200   4.416   7.542   4.452
83790SOL     OW53201   3.676   4.238   9.763
83790SOL    HW153202   3.697   4.273   9.850
83790SOL    HW253203   3.738   4.167   9.750
83791SOL     OW53204   2.641   3.660   3.746
83791SOL    HW153205   2.688   3.614   3.676
83791SOL    HW253206   2.592   3.728   3.701
83792SOL     OW53207   0.079   7.832   2.059
83792SOL    HW153208   0.161   7.783   2.058
83792SOL    HW253209   0.012   7.768   2.036
83793SOL     OW53210  12.063  14.038   7.874
83793SOL    HW153211  11.987  14.096   7.875
83793SOL    HW253212  12.026  13.950   7.877
83794SOL     OW53213  13.129   9.614  14.038
83794SOL    HW153214  13.117   9.526  14.074
83794SOL    HW253215  13.043   9.637  14.001
83795SOL     OW53216   8.039   6.014   9.363
83795SOL    HW153217   7.944   6.031   9.366
83795SOL    HW253218   8.066   6.046   9.277
83796SOL     OW53219   4.994   9.734   7.528
83796SOL    HW153220   5.008   9.693   7.443
83796SOL    HW253221   4.963   9.822   7.508
83797SOL     OW53222  10.715   3.786   3.386
83797SOL    HW153223  10.620   3.774   3.383
83797SOL    HW253224  10.739   3.813   3.297
83798SOL     OW53225  12.595   9.609   7.412
83798SOL    HW153226  12.518   9.600   7.467
83798SOL    HW253227  12.574   9.560   7.332
83799SOL     OW53228   2.148   6.475   2.782
83799SOL    HW153229   2.149   6.381   2.763
83799SOL    HW253230   2.237   6.495   2.810
83800SOL     OW53231   7.911   2.792  12.555
83800SOL    HW153232   7.823   2.779  12.520
83800SOL    HW253233   7.914   2.740  12.635
83801SOL     OW53234   8.997   0.543   8.963
83801SOL    HW153235   8.913   0.589   8.968
83801SOL    HW253236   8.980   0.457   9.000
83802SOL     OW53237   5.905   2.710  13.156
83802SOL    HW153238   5.975   2.705  13.091
83802SOL    HW253239   5.827   2.681  13.110
83803SOL     OW53240  13.635   1.462  10.741
83803SOL    HW153241  13.680   1.385  10.775
83803SOL    HW253242  13.601   1.435  10.656
83804SOL     OW53243   7.278   2.740  13.155
83804SOL    HW153244   7.243   2.819  13.113
83804SOL    HW253245   7.203   2.700  13.198
83805SOL     OW53246   4.424   0.378   5.653
83805SOL    HW153247   4.454   0.289   5.672
83805SOL    HW253248   4.384   0.408   5.734
83806SOL     OW53249   7.373  10.891   9.384
83806SOL    HW153250   7.457  10.881   9.429
83806SOL    HW253251   7.358  10.807   9.342
83807SOL     OW53252   0.025   9.393   8.819
83807SOL    HW153253   0.049   9.430   8.734
83807SOL    HW253254   0.085   9.320   8.831
83808SOL     OW53255  11.866   6.797   7.765
83808SOL    HW153256  11.850   6.889   7.785
83808SOL    HW253257  11.932   6.769   7.828
83809SOL     OW53258   2.198   5.028   5.172
83809SOL    HW153259   2.257   4.988   5.236
83809SOL    HW253260   2.231   4.998   5.087
83810SOL     OW53261   7.324   8.015  14.520
83810SOL    HW153262   7.307   8.011  14.614
83810SOL    HW253263   7.278   7.939  14.483
83811SOL     OW53264   6.597   0.227  12.422
83811SOL    HW153265   6.593   0.237  12.327
83811SOL    HW253266   6.651   0.301  12.451
83812SOL     OW53267   2.904   6.806  11.367
83812SOL    HW153268   2.931   6.812  11.275
83812SOL    HW253269   2.816   6.845  11.369
83813SOL     OW53270  10.804  13.617  11.727
83813SOL    HW153271  10.806  13.619  11.822
83813SOL    HW253272  10.759  13.699  11.702
83814SOL     OW53273   2.128   2.945  11.666
83814SOL    HW153274   2.138   3.028  11.619
83814SOL    HW253275   2.065   2.964  11.735
83815SOL     OW53276   3.777   5.394   2.462
83815SOL    HW153277   3.848   5.437   2.416
83815SOL    HW253278   3.819   5.322   2.509
83816SOL     OW53279   4.547   9.871  13.319
83816SOL    HW153280   4.585   9.783  13.308
83816SOL    HW253281   4.515   9.872  13.409
83817SOL     OW53282  14.504   6.623  10.837
83817SOL    HW153283  14.578   6.584  10.883
83817SOL    HW253284  14.436   6.631  10.904
83818SOL     OW53285   5.196   6.170  10.317
83818SOL    HW153286   5.242   6.178  10.401
83818SOL    HW253287   5.176   6.261  10.292
83819SOL     OW53288  12.500   8.587  11.131
83819SOL    HW153289  12.546   8.525  11.188
83819SOL    HW253290  12.541   8.576  11.045
83820SOL     OW53291   2.918  11.594   9.322
83820SOL    HW153292   2.901  11.528   9.255
83820SOL    HW253293   3.009  11.619   9.308
83821SOL     OW53294   6.285   6.175   7.132
83821SOL    HW153295   6.319   6.257   7.098
83821SOL    HW253296   6.362   6.129   7.166
83822SOL     OW53297   5.561   6.551   0.245
83822SOL    HW153298   5.515   6.499   0.311
83822SOL    HW253299   5.644   6.504   0.232
83823SOL     OW53300   4.366   4.540   7.138
83823SOL    HW153301   4.332   4.457   7.104
83823SOL    HW253302   4.416   4.576   7.065
83824SOL     OW53303  13.990  10.035  12.037
83824SOL    HW153304  13.950  10.119  12.059
83824SOL    HW253305  13.928   9.970  12.071
83825SOL     OW53306   0.683   9.789   1.532
83825SOL    HW153307   0.673   9.851   1.604
83825SOL    HW253308   0.655   9.705   1.568
83826SOL     OW53309   9.289   4.251   3.485
83826SOL    HW153310   9.291   4.284   3.396
83826SOL    HW253311   9.200   4.217   3.496
83827SOL     OW53312   3.129  11.378   8.170
83827SOL    HW153313   3.063  11.417   8.113
83827SOL    HW253314   3.099  11.289   8.185
83828SOL     OW53315   0.395   3.821   6.298
83828SOL    HW153316   0.387   3.889   6.231
83828SOL    HW253317   0.466   3.765   6.266
83829SOL     OW53318   4.496   0.594   4.823
83829SOL    HW153319   4.447   0.598   4.741
83829SOL    HW253320   4.459   0.518   4.869
83830SOL     OW53321   0.800   6.398   6.031
83830SOL    HW153322   0.824   6.332   6.096
83830SOL    HW253323   0.882   6.420   5.987
83831SOL     OW53324  10.594  10.181   5.487
83831SOL    HW153325  10.500  10.166   5.483
83831SOL    HW253326  10.603  10.263   5.535
83832SOL     OW53327  13.717  11.397   4.912
83832SOL    HW153328  13.802  11.353   4.904
83832SOL    HW253329  13.690  11.382   5.003
83833SOL     OW53330  10.400  14.062   7.794
83833SOL    HW153331  10.420  14.154   7.812
83833SOL    HW253332  10.312  14.049   7.830
83834SOL     OW53333   9.121   1.290   3.357
83834SOL    HW153334   9.214   1.269   3.352
83834SOL    HW253335   9.112   1.344   3.435
83835SOL     OW53336  13.076   8.613  13.702
83835SOL    HW153337  13.091   8.656  13.618
83835SOL    HW253338  12.988   8.640  13.728
83836SOL     OW53339   5.772   1.340   5.019
83836SOL    HW153340   5.730   1.412   5.066
83836SOL    HW253341   5.855   1.327   5.065
83837SOL     OW53342  10.251  14.322   8.646
83837SOL    HW153343  10.307  14.306   8.570
83837SOL    HW253344  10.301  14.286   8.720
83838SOL     OW53345   2.015  13.312   2.429
83838SOL    HW153346   2.055  13.386   2.383
83838SOL    HW253347   2.089  13.264   2.466
83839SOL     OW53348   5.543   2.285   7.648
83839SOL    HW153349   5.486   2.309   7.721
83839SOL    HW253350   5.567   2.194   7.666
83840SOL     OW53351   5.561  14.836  12.797
83840SOL    HW153352   5.522  14.750  12.815
83840SOL    HW253353   5.565   0.003  12.883
83841SOL     OW53354  13.874   6.309   4.017
83841SOL    HW153355  13.956   6.292   4.063
83841SOL    HW253356  13.824   6.366   4.076
83842SOL     OW53357   3.581  10.126   0.167
83842SOL    HW153358   3.521  10.055   0.192
83842SOL    HW253359   3.667  10.095   0.195
83843SOL     OW53360   2.937   6.223   7.157
83843SOL    HW153361   2.924   6.180   7.073
83843SOL    HW253362   2.940   6.317   7.136
83844SOL     OW53363  14.426   0.065  13.384
83844SOL    HW153364  14.489   0.083  13.455
83844SOL    HW253365  14.479   0.062  13.305
83845SOL     OW53366  11.826   9.353   2.293
83845SOL    HW153367  11.747   9.358   2.348
83845SOL    HW253368  11.879   9.428   2.320
83846SOL     OW53369   2.716   8.995   6.301
83846SOL    HW153370   2.782   9.063   6.287
83846SOL    HW253371   2.735   8.962   6.389
83847SOL     OW53372   1.584   0.007  10.263
83847SOL    HW153373   1.644   0.012  10.188
83847SOL    HW253374   1.633   0.043  10.336
83848SOL     OW53375   2.666   0.776   0.459
83848SOL    HW153376   2.647   0.737   0.373
83848SOL    HW253377   2.592   0.751   0.514
83849SOL     OW53378   1.736  14.614  14.827
83849SOL    HW153379   1.762  14.608   0.043
83849SOL    HW253380   1.735  14.708  14.808
83850SOL     OW53381   3.721   5.416  14.718
83850SOL    HW153382   3.723   5.492  14.660
83850SOL    HW253383   3.800   5.424  14.770
83851SOL     OW53384  13.487   7.704   4.315
83851SOL    HW153385  13.527   7.657   4.388
83851SOL    HW253386  13.402   7.662   4.303
83852SOL     OW53387   7.913   9.629   6.619
83852SOL    HW153388   7.824   9.594   6.608
83852SOL    HW253389   7.966   9.553   6.643
83853SOL     OW53390   5.535   5.470   6.774
83853SOL    HW153391   5.577   5.390   6.741
83853SOL    HW253392   5.455   5.439   6.815
83854SOL     OW53393  14.276   1.835  11.076
83854SOL    HW153394  14.258   1.831  11.170
83854SOL    HW253395  14.198   1.799  11.035
83855SOL     OW53396  10.036  12.824   1.628
83855SOL    HW153397  10.115  12.790   1.586
83855SOL    HW253398   9.968  12.762   1.604
83856SOL     OW53399  12.877  13.107   7.586
83856SOL    HW153400  12.832  13.180   7.544
83856SOL    HW253401  12.872  13.126   7.680
83857SOL     OW53402  11.394  14.219   6.832
83857SOL    HW153403  11.370  14.157   6.901
83857SOL    HW253404  11.490  14.214   6.828
83858SOL     OW53405   6.886   6.128   5.053
83858SOL    HW153406   6.875   6.204   5.110
83858SOL    HW253407   6.957   6.079   5.093
83859SOL     OW53408   4.146   7.094   3.191
83859SOL    HW153409   4.116   7.182   3.167
83859SOL    HW253410   4.227   7.083   3.140
83860SOL     OW53411  10.097  12.091   3.631
83860SOL    HW153412  10.174  12.080   3.574
83860SOL    HW253413  10.126  12.151   3.699
83861SOL     OW53414  12.729  13.990  14.470
83861SOL    HW153415  12.696  14.027  14.389
83861SOL    HW253416  12.805  13.938  14.444
83862SOL     OW53417   1.088  11.410   8.210
83862SOL    HW153418   1.062  11.375   8.295
83862SOL    HW253419   1.177  11.377   8.197
83863SOL     OW53420   2.509   9.824   0.198
83863SOL    HW153421   2.552   9.899   0.156
83863SOL    HW253422   2.445   9.864   0.258
83864SOL     OW53423   6.001  12.493  13.929
83864SOL    HW153424   5.929  12.550  13.902
83864SOL    HW253425   6.054  12.483  13.851
83865SOL     OW53426  13.570   7.733  12.762
83865SOL    HW153427  13.546   7.641  12.765
83865SOL    HW253428  13.661   7.735  12.733
83866SOL     OW53429   9.765   6.213   1.162
83866SOL    HW153430   9.719   6.286   1.122
83866SOL    HW253431   9.709   6.137   1.147
83867SOL     OW53432  12.900   1.417   4.202
83867SOL    HW153433  12.812   1.453   4.198
83867SOL    HW253434  12.950   1.468   4.138
83868SOL     OW53435   8.549  13.233   3.378
83868SOL    HW153436   8.536  13.304   3.441
83868SOL    HW253437   8.514  13.155   3.420
83869SOL     OW53438   9.546   0.897  13.363
83869SOL    HW153439   9.468   0.953  13.362
83869SOL    HW253440   9.530   0.835  13.434
83870SOL     OW53441   5.407   1.931   7.464
83870SOL    HW153442   5.440   1.908   7.377
83870SOL    HW253443   5.333   1.988   7.447
83871SOL     OW53444   8.464   3.561   0.440
83871SOL    HW153445   8.417   3.478   0.449
83871SOL    HW253446   8.480   3.588   0.531
83872SOL     OW53447   0.413   6.011  14.289
83872SOL    HW153448   0.373   5.949  14.350
83872SOL    HW253449   0.407   6.096  14.334
83873SOL     OW53450  13.082   3.987  13.967
83873SOL    HW153451  13.165   4.033  13.984
83873SOL    HW253452  13.102   3.930  13.893
83874SOL     OW53453   7.911  10.087   0.958
83874SOL    HW153454   7.975  10.133   1.013
83874SOL    HW253455   7.964  10.046   0.889
83875SOL     OW53456   6.686   1.267   5.666
83875SOL    HW153457   6.608   1.239   5.714
83875SOL    HW253458   6.745   1.191   5.670
83876SOL     OW53459   0.357   7.460  10.080
83876SOL    HW153460   0.357   7.403  10.157
83876SOL    HW253461   0.401   7.409  10.012
83877SOL     OW53462   4.753   2.929   5.624
83877SOL    HW153463   4.774   2.987   5.550
83877SOL    HW253464   4.807   2.962   5.696
83878SOL     OW53465  12.107  10.610  13.980
83878SOL    HW153466  12.154  10.687  14.011
83878SOL    HW253467  12.016  10.626  14.003
83879SOL     OW53468   9.829   2.898   7.667
83879SOL    HW153469   9.874   2.982   7.680
83879SOL    HW253470   9.738   2.915   7.693
83880SOL     OW53471   8.051  10.113   5.834
83880SOL    HW153472   8.130  10.135   5.884
83880SOL    HW253473   8.015  10.037   5.880
83881SOL     OW53474   3.576  12.269   7.217
83881SOL    HW153475   3.534  12.355   7.212
83881SOL    HW253476   3.623  12.269   7.300
83882SOL     OW53477  11.606   9.039  11.207
83882SOL    HW153478  11.547   9.056  11.280
83882SOL    HW253479  11.680   8.991  11.245
83883SOL     OW53480   9.021   1.540  13.381
83883SOL    HW153481   8.949   1.531  13.319
83883SOL    HW253482   8.991   1.494  13.459
83884SOL     OW53483   2.855   0.775   8.160
83884SOL    HW153484   2.894   0.845   8.213
83884SOL    HW253485   2.804   0.821   8.094
83885SOL     OW53486   8.108   6.625   1.527
83885SOL    HW153487   8.201   6.615   1.505
83885SOL    HW253488   8.105   6.624   1.622
83886SOL     OW53489   3.974   7.818  13.854
83886SOL    HW153490   3.943   7.731  13.830
83886SOL    HW253491   3.902   7.876  13.832
83887SOL     OW53492   8.243   2.145   3.004
83887SOL    HW153493   8.291   2.169   3.083
83887SOL    HW253494   8.177   2.214   2.994
83888SOL     OW53495   2.936  12.731   7.642
83888SOL    HW153496   2.985  12.812   7.629
83888SOL    HW253497   2.853  12.745   7.597
83889SOL     OW53498   3.606   1.552   6.831
83889SOL    HW153499   3.555   1.527   6.754
83889SOL    HW253500   3.544   1.599   6.887
83890SOL     OW53501   8.773  10.207   6.743
83890SOL    HW153502   8.688  10.198   6.702
83890SOL    HW253503   8.755  10.205   6.837
83891SOL     OW53504   2.372   5.372  10.167
83891SOL    HW153505   2.362   5.451  10.114
83891SOL    HW253506   2.300   5.376  10.230
83892SOL     OW53507   3.610   6.039   1.872
83892SOL    HW153508   3.638   6.005   1.787
83892SOL    HW253509   3.670   6.000   1.935
83893SOL     OW53510  12.526   9.016   6.083
83893SOL    HW153511  12.563   9.052   6.164
83893SOL    HW253512  12.432   9.009   6.100
83894SOL     OW53513   7.544   5.775   9.222
83894SOL    HW153514   7.449   5.784   9.218
83894SOL    HW253515   7.560   5.721   9.300
83895SOL     OW53516   3.205   8.575   9.745
83895SOL    HW153517   3.163   8.616   9.820
83895SOL    HW253518   3.233   8.489   9.777
83896SOL     OW53519  13.789  10.488   2.187
83896SOL    HW153520  13.724  10.557   2.172
83896SOL    HW253521  13.755  10.413   2.138
83897SOL     OW53522   9.624   3.707   8.702
83897SOL    HW153523   9.564   3.781   8.702
83897SOL    HW253524   9.659   3.704   8.613
83898SOL     OW53525   8.087   0.542  12.328
83898SOL    HW153526   8.050   0.456  12.346
83898SOL    HW253527   8.012   0.597  12.307
83899SOL     OW53528   8.049  13.540   5.068
83899SOL    HW153529   8.048  13.615   5.127
83899SOL    HW253530   8.135  13.544   5.026
83900SOL     OW53531   1.400  13.331   6.657
83900SOL    HW153532   1.389  13.317   6.563
83900SOL    HW253533   1.410  13.243   6.694
83901SOL     OW53534  14.277  12.209   0.972
83901SOL    HW153535  14.214  12.139   0.956
83901SOL    HW253536  14.285  12.253   0.887
83902SOL     OW53537  10.903  13.087  14.230
83902SOL    HW153538  10.902  13.096  14.326
83902SOL    HW253539  10.972  13.024  14.213
83903SOL     OW53540   7.921   3.261   0.272
83903SOL    HW153541   7.921   3.215   0.188
83903SOL    HW253542   8.003   3.311   0.273
83904SOL     OW53543   8.448  11.160   1.072
83904SOL    HW153544   8.521  11.111   1.110
83904SOL    HW253545   8.445  11.133   0.980
83905SOL     OW53546   7.189  12.486   0.718
83905SOL    HW153547   7.154  12.413   0.771
83905SOL    HW253548   7.237  12.443   0.648
83906SOL     OW53549  12.130   9.446   3.016
83906SOL    HW153550  12.115   9.363   2.970
83906SOL    HW253551  12.171   9.503   2.951
83907SOL     OW53552   9.504  11.044   6.718
83907SOL    HW153553   9.538  11.133   6.714
83907SOL    HW253554   9.522  11.007   6.632
83908SOL     OW53555   1.631  11.510   6.848
83908SOL    HW153556   1.679  11.586   6.881
83908SOL    HW253557   1.539  11.532   6.860
83909SOL     OW53558   7.416   5.017  12.727
83909SOL    HW153559   7.430   4.974  12.811
83909SOL    HW253560   7.326   4.996  12.703
83910SOL     OW53561   1.580   6.555  11.812
83910SOL    HW153562   1.621   6.522  11.893
83910SOL    HW253563   1.586   6.481  11.752
83911SOL     OW53564  11.580  13.346   5.151
83911SOL    HW153565  11.563  13.437   5.175
83911SOL    HW253566  11.616  13.351   5.063
83912SOL     OW53567   6.113   9.838  14.471
83912SOL    HW153568   6.151   9.877  14.392
83912SOL    HW253569   6.038   9.787  14.440
83913SOL     OW53570   5.535  13.281  14.843
83913SOL    HW153571   5.524  13.374  14.821
83913SOL    HW253572   5.628  13.273  14.863
83914SOL     OW53573  12.795  10.212  11.139
83914SOL    HW153574  12.805  10.293  11.190
83914SOL    HW253575  12.883  10.177  11.133
83915SOL     OW53576   2.443   3.661  14.805
83915SOL    HW153577   2.511   3.713  14.762
83915SOL    HW253578   2.410   3.603  14.736
83916SOL     OW53579   3.591   8.566   4.474
83916SOL    HW153580   3.632   8.607   4.398
83916SOL    HW253581   3.625   8.615   4.549
83917SOL     OW53582   1.851   7.377   3.021
83917SOL    HW153583   1.918   7.371   2.953
83917SOL    HW253584   1.776   7.418   2.978
83918SOL     OW53585   5.657   6.935   7.838
83918SOL    HW153586   5.708   6.975   7.767
83918SOL    HW253587   5.677   6.987   7.915
83919SOL     OW53588   7.030   3.205   4.983
83919SOL    HW153589   7.014   3.143   5.054
83919SOL    HW253590   7.093   3.267   5.019
83920SOL     OW53591   5.385   4.037   4.349
83920SOL    HW153592   5.409   3.965   4.290
83920SOL    HW253593   5.466   4.059   4.394
83921SOL     OW53594  11.057   8.830   5.050
83921SOL    HW153595  11.014   8.912   5.027
83921SOL    HW253596  11.015   8.765   4.993
83922SOL     OW53597  10.086   9.398   4.063
83922SOL    HW153598  10.139   9.461   4.013
83922SOL    HW253599  10.020   9.452   4.107
83923SOL     OW53600   9.593   1.085   1.066
83923SOL    HW153601   9.523   1.029   1.033
83923SOL    HW253602   9.547   1.152   1.118
83924SOL     OW53603  14.392  11.204  11.335
83924SOL    HW153604  14.433  11.196  11.421
83924SOL    HW253605  14.420  11.126  11.287
83925SOL     OW53606   8.753   4.584   3.164
83925SOL    HW153607   8.666   4.545   3.157
83925SOL    HW253608   8.777   4.574   3.256
83926SOL     OW53609   0.111   0.970  14.326
83926SOL    HW153610   0.022   0.955  14.295
83926SOL    HW253611   0.137   0.887  14.364
83927SOL     OW53612   6.597   1.577   1.222
83927SOL    HW153613   6.544   1.578   1.143
83927SOL    HW253614   6.672   1.633   1.201
83928SOL     OW53615  11.179   4.588  11.409
83928SOL    HW153616  11.122   4.593  11.485
83928SOL    HW253617  11.253   4.644  11.431
83929SOL     OW53618   2.344  14.121   1.810
83929SOL    HW153619   2.332  14.211   1.843
83929SOL    HW253620   2.362  14.069   1.889
83930SOL     OW53621   9.768   4.378   9.729
83930SOL    HW153622   9.714   4.456   9.720
83930SOL    HW253623   9.727   4.313   9.672
83931SOL     OW53624   0.492   9.064   1.212
83931SOL    HW153625   0.414   9.085   1.263
83931SOL    HW253626   0.539   9.001   1.266
83932SOL     OW53627   9.076   7.257   6.612
83932SOL    HW153628   9.148   7.270   6.550
83932SOL    HW253629   9.112   7.200   6.680
83933SOL     OW53630   9.976   1.262  13.003
83933SOL    HW153631  10.003   1.180  13.044
83933SOL    HW253632   9.888   1.278  13.037
83934SOL     OW53633   7.208   4.302  12.344
83934SOL    HW153634   7.286   4.352  12.322
83934SOL    HW253635   7.143   4.330  12.280
83935SOL     OW53636  11.025  14.654   9.522
83935SOL    HW153637  10.969  14.691   9.590
83935SOL    HW253638  10.996  14.563   9.515
83936SOL     OW53639   5.223   2.110   1.575
83936SOL    HW153640   5.304   2.159   1.558
83936SOL    HW253641   5.206   2.125   1.668
83937SOL     OW53642  10.460  10.608   0.932
83937SOL    HW153643  10.476  10.661   0.854
83937SOL    HW253644  10.394  10.657   0.981
83938SOL     OW53645   1.246  14.489  13.196
83938SOL    HW153646   1.341  14.503  13.188
83938SOL    HW253647   1.239  14.407  13.245
83939SOL     OW53648   2.469   5.687   5.733
83939SOL    HW153649   2.464   5.677   5.638
83939SOL    HW253650   2.562   5.676   5.754
83940SOL     OW53651  13.020  10.705   6.216
83940SOL    HW153652  13.112  10.717   6.192
83940SOL    HW253653  12.971  10.727   6.137
83941SOL     OW53654  11.782   0.472   8.321
83941SOL    HW153655  11.820   0.413   8.386
83941SOL    HW253656  11.833   0.553   8.329
83942SOL     OW53657  10.711   3.198   6.822
83942SOL    HW153658  10.632   3.252   6.826
83942SOL    HW253659  10.760   3.222   6.900
83943SOL     OW53660   6.806  13.861   3.619
83943SOL    HW153661   6.761  13.785   3.657
83943SOL    HW253662   6.866  13.891   3.687
83944SOL     OW53663   3.691   2.881  12.239
83944SOL    HW153664   3.710   2.837  12.156
83944SOL    HW253665   3.596   2.884  12.243
83945SOL     OW53666   0.427   0.100   8.464
83945SOL    HW153667   0.426   0.012   8.428
83945SOL    HW253668   0.443   0.087   8.558
83946SOL     OW53669   0.448  14.871   0.966
83946SOL    HW153670   0.449  14.871   1.062
83946SOL    HW253671   0.526  14.821   0.942
83947SOL     OW53672   7.150   9.189  14.559
83947SOL    HW153673   7.059   9.188  14.529
83947SOL    HW253674   7.154   9.123  14.628
83948SOL     OW53675  12.912  13.546  14.864
83948SOL    HW153676  12.832  13.594   0.011
83948SOL    HW253677  12.920  13.479   0.055
83949SOL     OW53678  12.632   1.547  12.535
83949SOL    HW153679  12.626   1.536  12.629
83949SOL    HW253680  12.621   1.459  12.499
83950SOL     OW53681   4.484   0.045  12.085
83950SOL    HW153682   4.533   0.112  12.134
83950SOL    HW253683   4.392   0.063  12.105
83951SOL     OW53684  10.453   3.222  12.416
83951SOL    HW153685  10.507   3.300  12.401
83951SOL    HW253686  10.474   3.196  12.506
83952SOL     OW53687   4.290  11.843   5.416
83952SOL    HW153688   4.336  11.864   5.334
83952SOL    HW253689   4.357  11.846   5.483
83953SOL     OW53690  10.034  14.130   3.175
83953SOL    HW153691  10.068  14.073   3.106
83953SOL    HW253692  10.096  14.203   3.179
83954SOL     OW53693  12.006  14.366   7.728
83954SOL    HW153694  12.078  14.342   7.786
83954SOL    HW253695  11.951  14.424   7.781
83955SOL     OW53696  12.392  11.842  10.345
83955SOL    HW153697  12.365  11.757  10.311
83955SOL    HW253698  12.342  11.852  10.427
83956SOL     OW53699   0.713   2.761   8.173
83956SOL    HW153700   0.641   2.721   8.124
83956SOL    HW253701   0.703   2.855   8.159
83957SOL     OW53702   2.337   6.128   2.992
83957SOL    HW153703   2.328   6.186   3.069
83957SOL    HW253704   2.417   6.079   3.010
83958SOL     OW53705   8.510   7.109   7.743
83958SOL    HW153706   8.474   7.167   7.811
83958SOL    HW253707   8.433   7.064   7.707
83959SOL     OW53708   9.718   2.123  13.200
83959SOL    HW153709   9.721   2.029  13.219
83959SOL    HW253710   9.731   2.129  13.105
83960SOL     OW53711  10.681  12.626   3.578
83960SOL    HW153712  10.678  12.642   3.673
83960SOL    HW253713  10.597  12.586   3.557
83961SOL     OW53714   0.950  14.677  14.055
83961SOL    HW153715   0.946  14.712  14.144
83961SOL    HW253716   1.041  14.647  14.046
83962SOL     OW53717   0.664   0.940  13.810
83962SOL    HW153718   0.569   0.940  13.821
83962SOL    HW253719   0.696   0.882  13.879
83963SOL     OW53720  10.724   0.549   9.327
83963SOL    HW153721  10.700   0.604   9.401
83963SOL    HW253722  10.809   0.512   9.350
83964SOL     OW53723  12.026  12.350   3.884
83964SOL    HW153724  12.025  12.263   3.844
83964SOL    HW253725  12.066  12.406   3.818
83965SOL     OW53726   5.431   9.861  13.232
83965SOL    HW153727   5.442   9.940  13.181
83965SOL    HW253728   5.517   9.845  13.272
83966SOL     OW53729   8.316   2.848  12.157
83966SOL    HW153730   8.249   2.914  12.177
83966SOL    HW253731   8.315   2.842  12.061
83967SOL     OW53732  10.761   6.617   8.502
83967SOL    HW153733  10.797   6.537   8.463
83967SOL    HW253734  10.667   6.612   8.485
83968SOL     OW53735   7.402   0.691   2.525
83968SOL    HW153736   7.322   0.739   2.548
83968SOL    HW253737   7.472   0.756   2.531
83969SOL     OW53738   5.196   5.865   8.198
83969SOL    HW153739   5.181   5.907   8.283
83969SOL    HW253740   5.110   5.863   8.157
83970SOL     OW53741   7.168  12.390   4.929
83970SOL    HW153742   7.115  12.351   4.860
83970SOL    HW253743   7.110  12.453   4.972
83971SOL     OW53744   6.845   4.913  12.117
83971SOL    HW153745   6.890   4.997  12.129
83971SOL    HW253746   6.847   4.899  12.023
83972SOL     OW53747  13.233   2.911  11.503
83972SOL    HW153748  13.265   2.912  11.593
83972SOL    HW253749  13.311   2.897  11.450
83973SOL     OW53750   2.031   5.851   9.060
83973SOL    HW153751   1.983   5.843   9.143
83973SOL    HW253752   2.025   5.764   9.021
83974SOL     OW53753  12.703   4.086   6.169
83974SOL    HW153754  12.799   4.082   6.175
83974SOL    HW253755  12.673   4.005   6.209
83975SOL     OW53756   3.238  13.597   8.566
83975SOL    HW153757   3.197  13.613   8.651
83975SOL    HW253758   3.329  13.625   8.578
83976SOL     OW53759   8.617   0.400   3.278
83976SOL    HW153760   8.546   0.441   3.326
83976SOL    HW253761   8.593   0.307   3.275
83977SOL     OW53762  13.930   4.289  12.572
83977SOL    HW153763  13.873   4.321  12.501
83977SOL    HW253764  14.005   4.349  12.571
83978SOL     OW53765   8.227   7.322   9.945
83978SOL    HW153766   8.197   7.379  10.016
83978SOL    HW253767   8.185   7.356   9.867
83979SOL     OW53768  10.563   3.501   1.385
83979SOL    HW153769  10.567   3.459   1.472
83979SOL    HW253770  10.571   3.428   1.324
83980SOL     OW53771  12.051  12.878   6.054
83980SOL    HW153772  12.123  12.819   6.078
83980SOL    HW253773  12.055  12.948   6.119
83981SOL     OW53774   3.711   1.416   8.852
83981SOL    HW153775   3.630   1.426   8.803
83981SOL    HW253776   3.702   1.331   8.897
83982SOL     OW53777  10.317   3.126   9.892
83982SOL    HW153778  10.388   3.065   9.872
83982SOL    HW253779  10.342   3.165   9.976
83983SOL     OW53780   0.220   5.328   6.719
83983SOL    HW153781   0.220   5.378   6.800
83983SOL    HW253782   0.313   5.311   6.702
83984SOL     OW53783   4.905   0.939   4.504
83984SOL    HW153784   4.929   0.872   4.569
83984SOL    HW253785   4.965   0.925   4.432
83985SOL     OW53786  13.921   6.028   2.707
83985SOL    HW153787  13.966   6.093   2.653
83985SOL    HW253788  13.916   6.067   2.794
83986SOL     OW53789  14.225  11.553  13.388
83986SOL    HW153790  14.316  11.561  13.415
83986SOL    HW253791  14.180  11.625  13.432
83987SOL     OW53792   2.238  10.830  10.454
83987SOL    HW153793   2.270  10.911  10.416
83987SOL    HW253794   2.311  10.769  10.447
83988SOL     OW53795   9.859   3.956   9.157
83988SOL    HW153796   9.942   3.937   9.113
83988SOL    HW253797   9.800   3.887   9.126
83989SOL     OW53798   2.807   4.562   0.629
83989SOL    HW153799   2.799   4.558   0.534
83989SOL    HW253800   2.838   4.651   0.646
83990SOL     OW53801   6.030   8.593  13.488
83990SOL    HW153802   6.057   8.628  13.404
83990SOL    HW253803   5.956   8.535  13.467
83991SOL     OW53804   5.370  14.100   2.523
83991SOL    HW153805   5.401  14.140   2.442
83991SOL    HW253806   5.413  14.150   2.592
83992SOL     OW53807  10.244   9.258   7.338
83992SOL    HW153808  10.238   9.266   7.433
83992SOL    HW253809  10.267   9.346   7.307
83993SOL     OW53810  10.740   2.656   6.271
83993SOL    HW153811  10.800   2.711   6.221
83993SOL    HW253812  10.786   2.573   6.282
83994SOL     OW53813  11.334   6.593  14.536
83994SOL    HW153814  11.421   6.555  14.544
83994SOL    HW253815  11.332   6.631  14.448
83995SOL     OW53816   3.106   7.615   3.472
83995SOL    HW153817   3.143   7.527   3.478
83995SOL    HW253818   3.156   7.667   3.535
83996SOL     OW53819   2.710   7.661  12.635
83996SOL    HW153820   2.780   7.724  12.616
83996SOL    HW253821   2.631   7.714  12.638
83997SOL     OW53822   8.731  10.093   0.486
83997SOL    HW153823   8.689  10.157   0.544
83997SOL    HW253824   8.671  10.019   0.483
83998SOL     OW53825   5.861   6.600   1.930
83998SOL    HW153826   5.884   6.689   1.904
83998SOL    HW253827   5.874   6.600   2.025
83999SOL     OW53828  12.595   3.344  10.766
83999SOL    HW153829  12.525   3.389  10.718
83999SOL    HW253830  12.647   3.302  10.698
84000SOL     OW53831   6.919   9.123   7.290
84000SOL    HW153832   6.841   9.069   7.281
84000SOL    HW253833   6.968   9.083   7.362
84001SOL     OW53834   5.160   2.404   2.899
84001SOL    HW153835   5.078   2.401   2.849
84001SOL    HW253836   5.213   2.470   2.855
84002SOL     OW53837   5.715   9.273   9.050
84002SOL    HW153838   5.770   9.195   9.057
84002SOL    HW253839   5.635   9.251   9.097
84003SOL     OW53840  13.296   0.589  10.373
84003SOL    HW153841  13.347   0.668  10.391
84003SOL    HW253842  13.246   0.610  10.294
84004SOL     OW53843  12.881  10.887   8.060
84004SOL    HW153844  12.840  10.847   8.136
84004SOL    HW253845  12.944  10.822   8.029
84005SOL     OW53846   7.784  13.349  11.859
84005SOL    HW153847   7.716  13.290  11.828
84005SOL    HW253848   7.737  13.424  11.895
84006SOL     OW53849   1.878   2.307   3.320
84006SOL    HW153850   1.948   2.330   3.259
84006SOL    HW253851   1.920   2.248   3.383
84007SOL     OW53852  12.246   7.783  10.263
84007SOL    HW153853  12.228   7.757  10.354
84007SOL    HW253854  12.164   7.821  10.232
84008SOL     OW53855   1.581   7.573   9.006
84008SOL    HW153856   1.573   7.583   9.101
84008SOL    HW253857   1.529   7.645   8.970
84009SOL     OW53858   8.965  10.360  12.660
84009SOL    HW153859   8.900  10.290  12.655
84009SOL    HW253860   8.912  10.439  12.675
84010SOL     OW53861  12.551   7.394  12.410
84010SOL    HW153862  12.611   7.387  12.483
84010SOL    HW253863  12.596   7.350  12.337
84011SOL     OW53864  11.860  11.289  11.422
84011SOL    HW153865  11.788  11.226  11.423
84011SOL    HW253866  11.818  11.374  11.407
84012SOL     OW53867  11.624   7.290   5.094
84012SOL    HW153868  11.660   7.374   5.065
84012SOL    HW253869  11.696   7.249   5.142
84013SOL     OW53870  13.279   7.633  12.407
84013SOL    HW153871  13.349   7.634  12.472
84013SOL    HW253872  13.223   7.560  12.433
84014SOL     OW53873   4.996   8.552   4.759
84014SOL    HW153874   4.949   8.470   4.774
84014SOL    HW253875   4.951   8.615   4.815
84015SOL     OW53876   1.395  13.143   3.178
84015SOL    HW153877   1.474  13.133   3.232
84015SOL    HW253878   1.427  13.147   3.088
84016SOL     OW53879   3.301  11.552   9.663
84016SOL    HW153880   3.265  11.519   9.746
84016SOL    HW253881   3.355  11.626   9.689
84017SOL     OW53882   2.104   7.728   9.533
84017SOL    HW153883   2.045   7.756   9.464
84017SOL    HW253884   2.055   7.742   9.614
84018SOL     OW53885   9.624  12.941   5.644
84018SOL    HW153886   9.717  12.930   5.663
84018SOL    HW253887   9.611  12.895   5.561
84019SOL     OW53888   1.848   5.530   1.724
84019SOL    HW153889   1.827   5.438   1.734
84019SOL    HW253890   1.768   5.570   1.691
84020SOL     OW53891  13.156   2.147  14.581
84020SOL    HW153892  13.178   2.116  14.669
84020SOL    HW253893  13.231   2.119  14.527
84021SOL     OW53894   0.665   2.306   3.567
84021SOL    HW153895   0.728   2.314   3.639
84021SOL    HW253896   0.671   2.215   3.540
84022SOL     OW53897  14.730  10.651   2.178
84022SOL    HW153898  14.671  10.584   2.144
84022SOL    HW253899  14.720  10.646   2.273
84023SOL     OW53900  10.512   3.820   8.851
84023SOL    HW153901  10.572   3.762   8.900
84023SOL    HW253902  10.427   3.778   8.858
84024SOL     OW53903   3.427   0.658  12.432
84024SOL    HW153904   3.427   0.592  12.362
84024SOL    HW253905   3.463   0.612  12.508
84025SOL     OW53906   8.944   1.978  10.244
84025SOL    HW153907   8.924   1.893  10.204
84025SOL    HW253908   9.027   2.004  10.205
84026SOL     OW53909   9.702  10.129   0.697
84026SOL    HW153910   9.647  10.200   0.729
84026SOL    HW253911   9.736  10.161   0.613
84027SOL     OW53912   1.709  10.625   4.820
84027SOL    HW153913   1.798  10.599   4.843
84027SOL    HW253914   1.703  10.608   4.725
84028SOL     OW53915   2.949   7.366   6.069
84028SOL    HW153916   2.861   7.362   6.106
84028SOL    HW253917   2.936   7.356   5.975
84029SOL     OW53918   0.533   7.569   8.104
84029SOL    HW153919   0.552   7.654   8.144
84029SOL    HW253920   0.517   7.511   8.179
84030SOL     OW53921   8.820   2.026   1.466
84030SOL    HW153922   8.807   1.990   1.378
84030SOL    HW253923   8.746   2.086   1.479
84031SOL     OW53924  13.202  12.901  10.087
84031SOL    HW153925  13.202  12.917   9.992
84031SOL    HW253926  13.123  12.945  10.118
84032SOL     OW53927   7.642  11.753   7.845
84032SOL    HW153928   7.706  11.757   7.774
84032SOL    HW253929   7.689  11.710   7.917
84033SOL     OW53930   3.735  14.032  10.399
84033SOL    HW153931   3.799  14.050  10.467
84033SOL    HW253932   3.757  14.092  10.328
84034SOL     OW53933   8.544   7.534   4.741
84034SOL    HW153934   8.607   7.598   4.776
84034SOL    HW253935   8.458   7.568   4.767
84035SOL     OW53936  14.294   2.919   4.476
84035SOL    HW153937  14.315   2.868   4.398
84035SOL    HW253938  14.223   2.871   4.518
84036SOL     OW53939  13.951   0.710   3.562
84036SOL    HW153940  14.023   0.738   3.505
84036SOL    HW253941  13.884   0.676   3.503
84037SOL     OW53942   0.115   3.583   4.266
84037SOL    HW153943   0.103   3.504   4.212
84037SOL    HW253944   0.026   3.608   4.291
84038SOL     OW53945  13.056   9.015   7.697
84038SOL    HW153946  13.070   9.015   7.603
84038SOL    HW253947  13.124   9.072   7.732
84039SOL     OW53948   6.980  14.119  13.383
84039SOL    HW153949   7.014  14.192  13.332
84039SOL    HW253950   7.057  14.072  13.414
84040SOL     OW53951   3.875   1.816   6.264
84040SOL    HW153952   3.952   1.862   6.296
84040SOL    HW253953   3.908   1.756   6.197
84041SOL     OW53954   9.900  14.153   1.492
84041SOL    HW153955   9.860  14.120   1.412
84041SOL    HW253956   9.900  14.078   1.552
84042SOL     OW53957   8.251   3.822   5.513
84042SOL    HW153958   8.221   3.889   5.451
84042SOL    HW253959   8.240   3.740   5.466
84043SOL     OW53960  11.868   2.985   0.695
84043SOL    HW153961  11.773   3.002   0.697
84043SOL    HW253962  11.892   2.975   0.787
84044SOL     OW53963  10.656   5.414   8.501
84044SOL    HW153964  10.655   5.321   8.477
84044SOL    HW253965  10.567   5.444   8.483
84045SOL     OW53966   7.115   0.534   4.196
84045SOL    HW153967   7.086   0.500   4.111
84045SOL    HW253968   7.122   0.628   4.184
84046SOL     OW53969   6.232  13.817   4.492
84046SOL    HW153970   6.226  13.722   4.501
84046SOL    HW253971   6.310  13.841   4.542
84047SOL     OW53972   4.536   4.229   2.041
84047SOL    HW153973   4.479   4.155   2.025
84047SOL    HW253974   4.602   4.224   1.972
84048SOL     OW53975   8.653   7.821   2.101
84048SOL    HW153976   8.572   7.816   2.151
84048SOL    HW253977   8.662   7.914   2.079
84049SOL     OW53978  13.933   9.043   1.745
84049SOL    HW153979  13.944   8.979   1.676
84049SOL    HW253980  13.913   9.125   1.700
84050SOL     OW53981  13.315   2.486   8.170
84050SOL    HW153982  13.371   2.519   8.240
84050SOL    HW253983  13.316   2.391   8.180
84051SOL     OW53984   0.179   2.281   2.974
84051SOL    HW153985   0.203   2.218   3.041
84051SOL    HW253986   0.204   2.366   3.010
84052SOL     OW53987  11.801   5.026   8.068
84052SOL    HW153988  11.718   5.066   8.043
84052SOL    HW253989  11.850   5.096   8.110
84053SOL     OW53990  13.441   9.892  13.924
84053SOL    HW153991  13.400   9.961  13.976
84053SOL    HW253992  13.368   9.845  13.885
84054SOL     OW53993  13.608   7.743   0.931
84054SOL    HW153994  13.703   7.749   0.934
84054SOL    HW253995  13.585   7.683   1.002
84055SOL     OW53996   8.373  11.011   9.857
84055SOL    HW153997   8.292  11.014   9.806
84055SOL    HW253998   8.442  10.999   9.792
84056SOL     OW53999   5.834  11.159   3.054
84056SOL    HW154000   5.822  11.209   3.134
84056SOL    HW254001   5.835  11.068   3.083
84057SOL     OW54002   5.456  11.121  11.635
84057SOL    HW154003   5.465  11.195  11.695
84057SOL    HW254004   5.537  11.071  11.646
84058SOL     OW54005   7.870  14.747   5.448
84058SOL    HW154006   7.879  14.771   5.356
84058SOL    HW254007   7.862  14.652   5.448
84059SOL     OW54008  10.813   1.144   8.386
84059SOL    HW154009  10.811   1.179   8.475
84059SOL    HW254010  10.900   1.168   8.353
84060SOL     OW54011  13.208   0.649   3.376
84060SOL    HW154012  13.244   0.685   3.457
84060SOL    HW254013  13.178   0.725   3.326
84061SOL     OW54014   7.242  12.191   4.172
84061SOL    HW154015   7.254  12.251   4.098
84061SOL    HW254016   7.326  12.144   4.177
84062SOL     OW54017   0.837   4.537  11.461
84062SOL    HW154018   0.798   4.600  11.400
84062SOL    HW254019   0.796   4.557  11.545
84063SOL     OW54020   9.344  13.419   4.260
84063SOL    HW154021   9.252  13.445   4.264
84063SOL    HW254022   9.393  13.501   4.270
84064SOL     OW54023  12.009  13.980   3.837
84064SOL    HW154024  11.973  14.065   3.812
84064SOL    HW254025  12.098  13.981   3.802
84065SOL     OW54026   1.587   9.625   7.362
84065SOL    HW154027   1.544   9.667   7.287
84065SOL    HW254028   1.612   9.698   7.418
84066SOL     OW54029   9.758   1.794   2.977
84066SOL    HW154030   9.684   1.734   2.980
84066SOL    HW254031   9.720   1.877   2.945
84067SOL     OW54032   1.513   7.913   8.564
84067SOL    HW154033   1.544   7.873   8.483
84067SOL    HW254034   1.464   7.844   8.607
84068SOL     OW54035  13.524   6.247   8.476
84068SOL    HW154036  13.486   6.335   8.478
84068SOL    HW254037  13.581   6.243   8.553
84069SOL     OW54038   5.672   9.724  13.240
84069SOL    HW154039   5.704   9.669  13.312
84069SOL    HW254040   5.708   9.684  13.161
84070SOL     OW54041  11.335  10.846   4.507
84070SOL    HW154042  11.294  10.771   4.551
84070SOL    HW254043  11.296  10.923   4.549
84071SOL     OW54044   9.693   4.331  10.543
84071SOL    HW154045   9.780   4.295  10.523
84071SOL    HW254046   9.693   4.417  10.501
84072SOL     OW54047   2.025   1.422   3.102
84072SOL    HW154048   1.997   1.467   3.182
84072SOL    HW254049   2.115   1.396   3.120
84073SOL     OW54050   6.763  11.193  14.442
84073SOL    HW154051   6.741  11.100  14.438
84073SOL    HW254052   6.751  11.216  14.535
84074SOL     OW54053   6.164   1.465  11.489
84074SOL    HW154054   6.183   1.373  11.504
84074SOL    HW254055   6.117   1.467  11.405
84075SOL     OW54056   5.214   9.787   1.457
84075SOL    HW154057   5.270   9.729   1.508
84075SOL    HW254058   5.259   9.871   1.458
84076SOL     OW54059  12.203   8.586   9.026
84076SOL    HW154060  12.169   8.560   9.111
84076SOL    HW254061  12.126   8.588   8.969
84077SOL     OW54062  10.322   3.957   5.691
84077SOL    HW154063  10.304   4.028   5.628
84077SOL    HW254064  10.277   3.881   5.654
84078SOL     OW54065   6.654  11.027  13.948
84078SOL    HW154066   6.660  10.932  13.962
84078SOL    HW254067   6.595  11.037  13.874
84079SOL     OW54068   3.421   7.386  13.915
84079SOL    HW154069   3.362   7.423  13.980
84079SOL    HW254070   3.486   7.338  13.965
84080SOL     OW54071   8.470   8.578   4.999
84080SOL    HW154072   8.503   8.654   4.951
84080SOL    HW254073   8.503   8.590   5.088
84081SOL     OW54074   3.590   3.097   9.676
84081SOL    HW154075   3.535   3.175   9.672
84081SOL    HW254076   3.663   3.117   9.618
84082SOL     OW54077   8.613   0.217   6.281
84082SOL    HW154078   8.614   0.293   6.339
84082SOL    HW254079   8.647   0.250   6.198
84083SOL     OW54080   4.425  13.661  13.125
84083SOL    HW154081   4.385  13.735  13.079
84083SOL    HW254082   4.372  13.651  13.204
84084SOL     OW54083   7.092  10.264   6.113
84084SOL    HW154084   7.005  10.288   6.079
84084SOL    HW254085   7.080  10.255   6.207
84085SOL     OW54086   1.824   7.048   6.877
84085SOL    HW154087   1.738   7.015   6.903
84085SOL    HW254088   1.886   6.985   6.914
84086SOL     OW54089  12.443   3.098  10.801
84086SOL    HW154090  12.355   3.131  10.785
84086SOL    HW254091  12.494   3.176  10.825
84087SOL     OW54092   5.835   6.940   2.379
84087SOL    HW154093   5.829   6.974   2.290
84087SOL    HW254094   5.815   7.016   2.434
84088SOL     OW54095   4.345   6.112   7.497
84088SOL    HW154096   4.304   6.047   7.439
84088SOL    HW254097   4.361   6.064   7.579
84089SOL     OW54098  12.964  14.405   6.153
84089SOL    HW154099  13.019  14.336   6.116
84089SOL    HW254100  12.999  14.417   6.242
84090SOL     OW54101   4.106   2.534  13.801
84090SOL    HW154102   4.164   2.458  13.794
84090SOL    HW254103   4.018   2.497  13.807
84091SOL     OW54104  12.142   4.637   0.660
84091SOL    HW154105  12.142   4.695   0.735
84091SOL    HW254106  12.051   4.636   0.630
84092SOL     OW54107   6.941   5.065  12.677
84092SOL    HW154108   6.867   5.098  12.728
84092SOL    HW254109   6.988   5.143  12.648
84093SOL     OW54110   0.273   0.281  10.670
84093SOL    HW154111   0.336   0.223  10.627
84093SOL    HW254112   0.188   0.252  10.636
84094SOL     OW54113   9.547   8.068  10.719
84094SOL    HW154114   9.542   8.106  10.632
84094SOL    HW254115   9.556   7.974  10.704
84095SOL     OW54116   8.983   5.993  11.985
84095SOL    HW154117   8.984   6.064  11.921
84095SOL    HW254118   9.067   5.948  11.974
84096SOL     OW54119   3.315   0.828  12.929
84096SOL    HW154120   3.286   0.915  12.956
84096SOL    HW254121   3.274   0.768  12.991
84097SOL     OW54122   1.864  10.493  14.180
84097SOL    HW154123   1.914  10.425  14.225
84097SOL    HW254124   1.929  10.543  14.132
84098SOL     OW54125   1.333   8.962   6.327
84098SOL    HW154126   1.425   8.955   6.304
84098SOL    HW254127   1.290   8.996   6.249
84099SOL     OW54128   4.360  14.496   3.684
84099SOL    HW154129   4.323  14.412   3.711
84099SOL    HW254130   4.373  14.544   3.767
84100SOL     OW54131   3.821   8.889   2.074
84100SOL    HW154132   3.889   8.846   2.022
84100SOL    HW254133   3.739   8.860   2.035
84101SOL     OW54134   2.490   4.339  12.082
84101SOL    HW154135   2.573   4.367  12.119
84101SOL    HW254136   2.495   4.243  12.079
84102SOL     OW54137   2.365  11.391  12.095
84102SOL    HW154138   2.423  11.427  12.162
84102SOL    HW254139   2.277  11.413  12.127
84103SOL     OW54140  10.973   2.691  11.426
84103SOL    HW154141  11.030   2.767  11.413
84103SOL    HW254142  11.020   2.619  11.384
84104SOL     OW54143   8.325   6.042   2.406
84104SOL    HW154144   8.251   6.020   2.464
84104SOL    HW254145   8.338   5.963   2.353
84105SOL     OW54146   5.980   0.782   8.666
84105SOL    HW154147   5.914   0.849   8.684
84105SOL    HW254148   5.964   0.757   8.575
84106SOL     OW54149  11.120   1.397   4.897
84106SOL    HW154150  11.044   1.401   4.955
84106SOL    HW254151  11.098   1.329   4.833
84107SOL     OW54152  10.729  12.549   7.988
84107SOL    HW154153  10.725  12.526   8.081
84107SOL    HW254154  10.820  12.575   7.973
84108SOL     OW54155   8.503   2.222   0.351
84108SOL    HW154156   8.414   2.190   0.333
84108SOL    HW254157   8.495   2.317   0.353
84109SOL     OW54158   7.168  10.539  13.770
84109SOL    HW154159   7.145  10.448  13.792
84109SOL    HW254160   7.165  10.542  13.675
84110SOL     OW54161   3.845  13.236   1.268
84110SOL    HW154162   3.866  13.312   1.214
84110SOL    HW254163   3.751  13.225   1.260
84111SOL     OW54164  11.239   1.775   0.250
84111SOL    HW154165  11.233   1.871   0.253
84111SOL    HW254166  11.241   1.754   0.157
84112SOL     OW54167   8.718   0.214   2.599
84112SOL    HW154168   8.708   0.264   2.518
84112SOL    HW254169   8.714   0.123   2.571
84113SOL     OW54170   8.030   3.692   8.407
84113SOL    HW154171   7.981   3.654   8.479
84113SOL    HW254172   7.964   3.728   8.348
84114SOL     OW54173   8.346   8.411   6.440
84114SOL    HW154174   8.277   8.345   6.447
84114SOL    HW254175   8.380   8.400   6.351
84115SOL     OW54176   9.604  10.446  12.041
84115SOL    HW154177   9.673  10.382  12.056
84115SOL    HW254178   9.541  10.402  11.984
84116SOL     OW54179   2.782   2.728   2.994
84116SOL    HW154180   2.783   2.635   3.015
84116SOL    HW254181   2.762   2.771   3.077
84117SOL     OW54182   7.334   7.153   8.765
84117SOL    HW154183   7.280   7.074   8.763
84117SOL    HW254184   7.287   7.216   8.710
84118SOL     OW54185  11.090  11.874   4.748
84118SOL    HW154186  11.107  11.882   4.842
84118SOL    HW254187  11.029  11.946   4.729
84119SOL     OW54188  12.026  13.817   4.994
84119SOL    HW154189  11.980  13.755   4.938
84119SOL    HW254190  12.108  13.835   4.947
84120SOL     OW54191  12.259   7.566   6.642
84120SOL    HW154192  12.172   7.595   6.616
84120SOL    HW254193  12.250   7.540   6.734
84121SOL     OW54194   3.949   1.629   0.262
84121SOL    HW154195   3.993   1.707   0.294
84121SOL    HW254196   3.911   1.655   0.178
84122SOL     OW54197   2.909   8.727   4.891
84122SOL    HW154198   2.820   8.695   4.881
84122SOL    HW254199   2.956   8.692   4.815
84123SOL     OW54200  14.831  14.335   3.642
84123SOL    HW154201   0.051  14.342   3.643
84123SOL    HW254202  14.802  14.408   3.587
84124SOL     OW54203  14.738   6.038   9.103
84124SOL    HW154204  14.700   6.091   9.033
84124SOL    HW254205  14.738   6.096   9.180
84125SOL     OW54206  12.698  12.439  14.166
84125SOL    HW154207  12.715  12.357  14.213
84125SOL    HW254208  12.735  12.507  14.222
84126SOL     OW54209   0.322  10.173  12.401
84126SOL    HW154210   0.345  10.164  12.308
84126SOL    HW254211   0.250  10.236  12.402
84127SOL     OW54212   2.203   1.111   6.893
84127SOL    HW154213   2.169   1.191   6.852
84127SOL    HW254214   2.282   1.139   6.939
84128SOL     OW54215   1.093   8.573   9.211
84128SOL    HW154216   1.086   8.492   9.262
84128SOL    HW254217   1.121   8.544   9.124
84129SOL     OW54218  12.291  12.156  12.640
84129SOL    HW154219  12.275  12.172  12.733
84129SOL    HW254220  12.321  12.240  12.605
84130SOL     OW54221   3.853  10.612   3.883
84130SOL    HW154222   3.947  10.599   3.869
84130SOL    HW254223   3.826  10.672   3.813
84131SOL     OW54224   5.719   4.081   2.646
84131SOL    HW154225   5.695   4.087   2.554
84131SOL    HW254226   5.645   4.120   2.693
84132SOL     OW54227  10.525  11.471  14.816
84132SOL    HW154228  10.471  11.409  14.865
84132SOL    HW254229  10.605  11.480  14.869
84133SOL     OW54230   1.877  13.710   1.755
84133SOL    HW154231   1.848  13.797   1.728
84133SOL    HW254232   1.949  13.726   1.817
84134SOL     OW54233   8.009   8.846   7.673
84134SOL    HW154234   7.975   8.796   7.747
84134SOL    HW254235   7.993   8.937   7.696
84135SOL     OW54236   6.274   9.934   8.275
84135SOL    HW154237   6.319   9.851   8.290
84135SOL    HW254238   6.297   9.987   8.352
84136SOL     OW54239   3.797   1.800   9.416
84136SOL    HW154240   3.891   1.792   9.398
84136SOL    HW254241   3.783   1.748   9.495
84137SOL     OW54242   4.971  11.892   9.242
84137SOL    HW154243   4.908  11.958   9.270
84137SOL    HW254244   4.984  11.837   9.320
84138SOL     OW54245  13.963  14.817   9.521
84138SOL    HW154246  14.043  14.813   9.574
84138SOL    HW254247  13.984  14.765   9.444
84139SOL     OW54248  12.916   5.870  13.360
84139SOL    HW154249  13.010   5.856  13.362
84139SOL    HW254250  12.904   5.960  13.392
84140SOL     OW54251  14.152   3.960   9.705
84140SOL    HW154252  14.149   3.901   9.630
84140SOL    HW254253  14.125   3.905   9.779
84141SOL     OW54254   6.464   7.516   0.330
84141SOL    HW154255   6.498   7.556   0.251
84141SOL    HW254256   6.389   7.464   0.301
84142SOL     OW54257   7.334  11.482   5.913
84142SOL    HW154258   7.254  11.469   5.862
84142SOL    HW254259   7.405  11.472   5.850
84143SOL     OW54260   1.201  11.712  11.528
84143SOL    HW154261   1.203  11.620  11.557
84143SOL    HW254262   1.154  11.758  11.597
84144SOL     OW54263   3.372  10.177   8.105
84144SOL    HW154264   3.459  10.141   8.117
84144SOL    HW254265   3.355  10.167   8.011
84145SOL     OW54266   5.904   3.202   6.201
84145SOL    HW154267   5.861   3.285   6.221
84145SOL    HW254268   5.849   3.136   6.244
84146SOL     OW54269  14.835   7.528   2.914
84146SOL    HW154270  14.815   7.439   2.943
84146SOL    HW254271   0.055   7.533   2.917
84147SOL     OW54272   1.530   7.128   8.586
84147SOL    HW154273   1.488   7.057   8.636
84147SOL    HW254274   1.592   7.083   8.529
84148SOL     OW54275  11.063   0.920   4.600
84148SOL    HW154276  11.076   0.826   4.610
84148SOL    HW254277  11.089   0.957   4.685
84149SOL     OW54278  10.829   3.592  14.048
84149SOL    HW154279  10.778   3.668  14.075
84149SOL    HW254280  10.846   3.543  14.129
84150SOL     OW54281  11.666   2.786  11.477
84150SOL    HW154282  11.745   2.752  11.435
84150SOL    HW254283  11.608   2.711  11.484
84151SOL     OW54284   7.390   6.313   8.211
84151SOL    HW154285   7.450   6.376   8.171
84151SOL    HW254286   7.340   6.278   8.137
84152SOL     OW54287   6.661   8.146   4.673
84152SOL    HW154288   6.573   8.149   4.710
84152SOL    HW254289   6.718   8.166   4.747
84153SOL     OW54290   2.143   7.601   4.884
84153SOL    HW154291   2.188   7.647   4.813
84153SOL    HW254292   2.202   7.530   4.908
84154SOL     OW54293  10.155   0.044   7.574
84154SOL    HW154294  10.122   0.006   7.493
84154SOL    HW254295  10.078   0.059   7.628
84155SOL     OW54296   0.881  14.526  13.417
84155SOL    HW154297   0.791  14.539  13.445
84155SOL    HW254298   0.917  14.464  13.481
84156SOL     OW54299   0.282   3.294   1.144
84156SOL    HW154300   0.239   3.232   1.203
84156SOL    HW254301   0.210   3.333   1.094
84157SOL     OW54302   4.345   9.517  13.258
84157SOL    HW154303   4.406   9.559  13.198
84157SOL    HW254304   4.392   9.441  13.291
84158SOL     OW54305  14.483  12.495   2.256
84158SOL    HW154306  14.441  12.467   2.337
84158SOL    HW254307  14.561  12.440   2.249
84159SOL     OW54308   5.733   4.552   4.790
84159SOL    HW154309   5.678   4.613   4.743
84159SOL    HW254310   5.688   4.468   4.783
84160SOL     OW54311   4.977  12.651   4.789
84160SOL    HW154312   4.903  12.707   4.809
84160SOL    HW254313   5.010  12.622   4.874
84161SOL     OW54314   8.349   7.630   1.468
84161SOL    HW154315   8.420   7.680   1.430
84161SOL    HW254316   8.304   7.590   1.394
84162SOL     OW54317  12.576  12.828   3.832
84162SOL    HW154318  12.515  12.757   3.850
84162SOL    HW254319  12.521  12.904   3.817
84163SOL     OW54320   2.716   0.916   4.136
84163SOL    HW154321   2.781   0.977   4.099
84163SOL    HW254322   2.632   0.948   4.103
84164SOL     OW54323  12.946   9.492  11.464
84164SOL    HW154324  12.989   9.409  11.441
84164SOL    HW254325  13.010   9.538  11.519
84165SOL     OW54326   2.672   7.994   8.381
84165SOL    HW154327   2.730   7.924   8.412
84165SOL    HW254328   2.624   8.022   8.458
84166SOL     OW54329   5.635   2.589  12.578
84166SOL    HW154330   5.605   2.538  12.653
84166SOL    HW254331   5.566   2.579  12.513
84167SOL     OW54332  12.327   0.207   2.743
84167SOL    HW154333  12.368   0.254   2.817
84167SOL    HW254334  12.336   0.267   2.669
84168SOL     OW54335   1.557   9.356   1.181
84168SOL    HW154336   1.529   9.439   1.142
84168SOL    HW254337   1.489   9.336   1.246
84169SOL     OW54338   2.595   2.178  10.966
84169SOL    HW154339   2.580   2.208  10.876
84169SOL    HW254340   2.664   2.235  10.999
84170SOL     OW54341   3.981  14.228   8.439
84170SOL    HW154342   4.053  14.171   8.466
84170SOL    HW254343   3.910  14.209   8.500
84171SOL     OW54344   1.223   1.093   7.881
84171SOL    HW154345   1.286   1.032   7.844
84171SOL    HW254346   1.162   1.038   7.930
84172SOL     OW54347   4.848   2.959   4.384
84172SOL    HW154348   4.910   3.033   4.389
84172SOL    HW254349   4.785   2.976   4.454
84173SOL     OW54350   8.680  14.280   4.504
84173SOL    HW154351   8.591  14.257   4.529
84173SOL    HW254352   8.733  14.206   4.535
84174SOL     OW54353   2.013   0.072  13.193
84174SOL    HW154354   1.985  14.856  13.196
84174SOL    HW254355   2.087   0.072  13.132
84175SOL     OW54356  14.517  14.782   5.814
84175SOL    HW154357  14.493  14.709   5.871
84175SOL    HW254358  14.593  14.822   5.857
84176SOL     OW54359   7.614   8.845   6.778
84176SOL    HW154360   7.700   8.846   6.819
84176SOL    HW254361   7.600   8.936   6.751
84177SOL     OW54362   9.728   4.735   2.874
84177SOL    HW154363   9.749   4.737   2.781
84177SOL    HW254364   9.814   4.734   2.917
84178SOL     OW54365   2.534  14.095   5.064
84178SOL    HW154366   2.504  14.005   5.076
84178SOL    HW254367   2.483  14.146   5.127
84179SOL     OW54368   9.347  12.741   5.576
84179SOL    HW154369   9.337  12.672   5.511
84179SOL    HW254370   9.384  12.696   5.653
84180SOL     OW54371   2.884   8.417   8.146
84180SOL    HW154372   2.835   8.493   8.116
84180SOL    HW254373   2.817   8.358   8.182
84181SOL     OW54374   3.480  10.426   6.272
84181SOL    HW154375   3.547  10.369   6.310
84181SOL    HW254376   3.451  10.481   6.345
84182SOL     OW54377   8.471   4.436  11.058
84182SOL    HW154378   8.552   4.423  11.108
84182SOL    HW254379   8.456   4.352  11.015
84183SOL     OW54380   0.000   6.118  11.032
84183SOL    HW154381  14.828   6.166  11.099
84183SOL    HW254382   0.090   6.116  11.065
84184SOL     OW54383   2.357   7.438   8.782
84184SOL    HW154384   2.315   7.516   8.819
84184SOL    HW254385   2.437   7.471   8.742
84185SOL     OW54386  14.290  13.560   8.558
84185SOL    HW154387  14.333  13.475   8.564
84185SOL    HW254388  14.334  13.603   8.485
84186SOL     OW54389  10.803   9.770   8.570
84186SOL    HW154390  10.802   9.812   8.484
84186SOL    HW254391  10.789   9.842   8.632
84187SOL     OW54392  10.113   6.439   8.928
84187SOL    HW154393  10.031   6.441   8.878
84187SOL    HW254394  10.131   6.531   8.948
84188SOL     OW54395   9.500   8.445   7.074
84188SOL    HW154396   9.535   8.531   7.052
84188SOL    HW254397   9.572   8.399   7.118
84189SOL     OW54398   4.596  11.192  13.210
84189SOL    HW154399   4.543  11.250  13.264
84189SOL    HW254400   4.548  11.109  13.209
84190SOL     OW54401   3.755  13.783  12.078
84190SOL    HW154402   3.831  13.800  12.134
84190SOL    HW254403   3.789  13.786  11.989
84191SOL     OW54404   3.601   5.151   9.672
84191SOL    HW154405   3.685   5.175   9.634
84191SOL    HW254406   3.620   5.134   9.764
84192SOL     OW54407   5.868   3.700   8.647
84192SOL    HW154408   5.772   3.696   8.643
84192SOL    HW254409   5.889   3.670   8.735
84193SOL     OW54410   4.294  10.960  10.844
84193SOL    HW154411   4.346  10.927  10.771
84193SOL    HW254412   4.356  10.966  10.917
84194SOL     OW54413  11.218   9.757   3.437
84194SOL    HW154414  11.271   9.738   3.360
84194SOL    HW254415  11.150   9.816   3.405
84195SOL     OW54416   1.005   5.664   2.480
84195SOL    HW154417   0.927   5.655   2.426
84195SOL    HW254418   1.050   5.581   2.472
84196SOL     OW54419   6.775   2.159  12.493
84196SOL    HW154420   6.779   2.232  12.554
84196SOL    HW254421   6.792   2.082  12.547
84197SOL     OW54422  14.702   6.538  14.867
84197SOL    HW154423  14.794   6.549   0.014
84197SOL    HW254424  14.691   6.443  14.859
84198SOL     OW54425   3.649   4.791   1.219
84198SOL    HW154426   3.721   4.832   1.268
84198SOL    HW254427   3.693   4.737   1.154
84199SOL     OW54428   2.078  12.336   9.141
84199SOL    HW154429   2.105  12.246   9.159
84199SOL    HW254430   1.998  12.328   9.089
84200SOL     OW54431  11.868  10.590   3.517
84200SOL    HW154432  11.819  10.508   3.513
84200SOL    HW254433  11.890  10.601   3.609
84201SOL     OW54434   1.525  11.110  14.764
84201SOL    HW154435   1.566  11.192  14.792
84201SOL    HW254436   1.453  11.096  14.825
84202SOL     OW54437  11.970   0.617  13.550
84202SOL    HW154438  12.048   0.673  13.553
84202SOL    HW254439  12.002   0.529  13.572
84203SOL     OW54440   3.601  12.117  11.210
84203SOL    HW154441   3.570  12.174  11.140
84203SOL    HW254442   3.643  12.176  11.273
84204SOL     OW54443   3.397  12.722  12.631
84204SOL    HW154444   3.373  12.791  12.692
84204SOL    HW254445   3.416  12.646  12.686
84205SOL     OW54446   3.743   3.496   6.563
84205SOL    HW154447   3.823   3.531   6.603
84205SOL    HW254448   3.773   3.424   6.507
84206SOL     OW54449   0.874  12.114  10.225
84206SOL    HW154450   0.795  12.063  10.241
84206SOL    HW254451   0.880  12.119  10.129
84207SOL     OW54452   0.911   8.416   4.063
84207SOL    HW154453   0.943   8.494   4.108
84207SOL    HW254454   0.942   8.427   3.973
84208SOL     OW54455   8.288  11.581  13.382
84208SOL    HW154456   8.310  11.617  13.467
84208SOL    HW254457   8.353  11.512  13.367
84209SOL     OW54458   9.225  10.418   7.044
84209SOL    HW154459   9.257  10.395   6.957
84209SOL    HW254460   9.300  10.459   7.088
84210SOL     OW54461  13.130  11.328   0.796
84210SOL    HW154462  13.154  11.235   0.801
84210SOL    HW254463  13.090  11.346   0.882
84211SOL     OW54464  10.695  14.176   9.090
84211SOL    HW154465  10.776  14.147   9.132
84211SOL    HW254466  10.638  14.099   9.092
84212SOL     OW54467  12.203   8.785   4.607
84212SOL    HW154468  12.115   8.768   4.642
84212SOL    HW254469  12.252   8.705   4.627
84213SOL     OW54470  10.022   1.921   9.052
84213SOL    HW154471  10.061   1.835   9.066
84213SOL    HW254472  10.094   1.982   9.060
84214SOL     OW54473   1.252   3.168  11.941
84214SOL    HW154474   1.307   3.100  11.904
84214SOL    HW254475   1.241   3.142  12.033
84215SOL     OW54476   9.017  10.908   6.608
84215SOL    HW154477   8.998  10.852   6.533
84215SOL    HW254478   8.951  10.884   6.673
84216SOL     OW54479  10.367   0.020   5.796
84216SOL    HW154480  10.353   0.107   5.834
84216SOL    HW254481  10.444  14.862   5.841
84217SOL     OW54482   7.994   9.228   2.361
84217SOL    HW154483   8.043   9.262   2.436
84217SOL    HW254484   7.982   9.135   2.379
84218SOL     OW54485   9.990  12.318  12.708
84218SOL    HW154486   9.900  12.340  12.733
84218SOL    HW254487   9.982  12.278  12.622
84219SOL     OW54488  13.557   2.642   6.014
84219SOL    HW154489  13.525   2.687   6.092
84219SOL    HW254490  13.524   2.552   6.023
84220SOL     OW54491   5.696  10.727   4.305
84220SOL    HW154492   5.618  10.771   4.273
84220SOL    HW254493   5.762  10.742   4.237
84221SOL     OW54494   8.543   5.415   0.529
84221SOL    HW154495   8.585   5.464   0.458
84221SOL    HW254496   8.538   5.325   0.496
84222SOL     OW54497  12.182   3.598   9.699
84222SOL    HW154498  12.251   3.586   9.634
84222SOL    HW254499  12.113   3.646   9.653
84223SOL     OW54500   3.575   1.525   3.863
84223SOL    HW154501   3.656   1.572   3.848
84223SOL    HW254502   3.567   1.465   3.789
84224SOL     OW54503  13.462   7.414  12.262
84224SOL    HW154504  13.553   7.418  12.292
84224SOL    HW254505  13.420   7.352  12.321
84225SOL     OW54506   3.051  12.249   7.306
84225SOL    HW154507   3.140  12.215   7.292
84225SOL    HW254508   3.065  12.342   7.327
84226SOL     OW54509   3.433   2.320  10.381
84226SOL    HW154510   3.423   2.226  10.367
84226SOL    HW254511   3.473   2.327  10.468
84227SOL     OW54512   3.848   5.667   4.941
84227SOL    HW154513   3.847   5.720   5.020
84227SOL    HW254514   3.763   5.685   4.900
84228SOL     OW54515  11.222   2.061   3.171
84228SOL    HW154516  11.191   2.031   3.085
84228SOL    HW254517  11.291   2.124   3.150
84229SOL     OW54518   2.269   4.764   4.763
84229SOL    HW154519   2.313   4.714   4.832
84229SOL    HW254520   2.252   4.700   4.694
84230SOL     OW54521   1.833   3.517   2.545
84230SOL    HW154522   1.810   3.441   2.491
84230SOL    HW254523   1.928   3.510   2.555
84231SOL     OW54524   0.697  12.627   6.036
84231SOL    HW154525   0.634  12.568   6.078
84231SOL    HW254526   0.724  12.581   5.957
84232SOL     OW54527  12.420   6.757   8.641
84232SOL    HW154528  12.359   6.741   8.712
84232SOL    HW254529  12.389   6.702   8.569
84233SOL     OW54530  12.928  13.615   7.851
84233SOL    HW154531  12.974  13.699   7.860
84233SOL    HW254532  12.835  13.637   7.861
84234SOL     OW54533  13.921   4.398   7.403
84234SOL    HW154534  13.831   4.377   7.375
84234SOL    HW254535  13.936   4.487   7.372
84235SOL     OW54536   3.525   7.367   8.000
84235SOL    HW154537   3.555   7.457   8.008
84235SOL    HW254538   3.602   7.319   7.968
84236SOL     OW54539   1.648   7.562  13.181
84236SOL    HW154540   1.598   7.493  13.224
84236SOL    HW254541   1.713   7.516  13.127
84237SOL     OW54542   0.489  10.350   1.817
84237SOL    HW154543   0.536  10.416   1.869
84237SOL    HW254544   0.397  10.372   1.828
84238SOL     OW54545  10.518   2.588  10.319
84238SOL    HW154546  10.436   2.595  10.367
84238SOL    HW254547  10.555   2.504  10.346
84239SOL     OW54548   4.332   2.334  10.279
84239SOL    HW154549   4.247   2.340  10.236
84239SOL    HW254550   4.315   2.360  10.369
84240SOL     OW54551   0.794   0.039   2.336
84240SOL    HW154552   0.840   0.122   2.323
84240SOL    HW254553   0.705   0.065   2.360
84241SOL     OW54554   3.894   0.766   0.400
84241SOL    HW154555   3.933   0.853   0.401
84241SOL    HW254556   3.872   0.750   0.308
84242SOL     OW54557   4.270  11.391   8.213
84242SOL    HW154558   4.294  11.477   8.179
84242SOL    HW254559   4.349  11.359   8.256
84243SOL     OW54560   4.466   6.037   1.693
84243SOL    HW154561   4.486   6.098   1.763
84243SOL    HW254562   4.398   5.979   1.729
84244SOL     OW54563   6.205  12.261   0.871
84244SOL    HW154564   6.117  12.260   0.908
84244SOL    HW254565   6.260  12.219   0.938
84245SOL     OW54566   6.731   5.543  10.760
84245SOL    HW154567   6.670   5.604  10.717
84245SOL    HW254568   6.754   5.587  10.841
84246SOL     OW54569  13.921   6.139   8.188
84246SOL    HW154570  13.852   6.206   8.190
84246SOL    HW254571  13.987   6.175   8.129
84247SOL     OW54572   3.785   6.419   5.345
84247SOL    HW154573   3.800   6.364   5.268
84247SOL    HW254574   3.731   6.365   5.403
84248SOL     OW54575  10.559  13.048  11.035
84248SOL    HW154576  10.518  12.967  11.004
84248SOL    HW254577  10.486  13.099  11.070
84249SOL     OW54578   8.540  13.094  11.396
84249SOL    HW154579   8.448  13.075  11.415
84249SOL    HW254580   8.545  13.189  11.396
84250SOL     OW54581   8.504  14.745  13.382
84250SOL    HW154582   8.429  14.723  13.438
84250SOL    HW254583   8.468  14.800  13.313
84251SOL     OW54584   9.255   7.699   3.478
84251SOL    HW154585   9.236   7.660   3.393
84251SOL    HW254586   9.186   7.764   3.492
84252SOL     OW54587  10.451   0.039   8.654
84252SOL    HW154588  10.524  14.870   8.613
84252SOL    HW254589  10.419  14.853   8.720
84253SOL     OW54590   6.819  12.539   3.084
84253SOL    HW154591   6.776  12.609   3.035
84253SOL    HW254592   6.911  12.567   3.091
84254SOL     OW54593  10.788  10.358   8.931
84254SOL    HW154594  10.861  10.300   8.953
84254SOL    HW254595  10.710  10.305   8.943
84255SOL     OW54596   8.523   7.432  10.057
84255SOL    HW154597   8.515   7.490  10.133
84255SOL    HW254598   8.491   7.348  10.088
84256SOL     OW54599  10.162   5.039  14.829
84256SOL    HW154600  10.169   5.081  14.743
84256SOL    HW254601  10.249   5.050  14.868
84257SOL     OW54602   1.556   2.036  11.467
84257SOL    HW154603   1.626   1.983  11.506
84257SOL    HW254604   1.480   2.019  11.522
84258SOL     OW54605   4.477   2.351   7.521
84258SOL    HW154606   4.501   2.358   7.428
84258SOL    HW254607   4.383   2.332   7.520
84259SOL     OW54608   4.057   4.149   2.267
84259SOL    HW154609   4.152   4.153   2.265
84259SOL    HW254610   4.036   4.068   2.314
84260SOL     OW54611  10.158   5.055   3.728
84260SOL    HW154612  10.248   5.086   3.716
84260SOL    HW254613  10.134   5.086   3.815
84261SOL     OW54614  13.508   9.388  12.009
84261SOL    HW154615  13.589   9.431  12.036
84261SOL    HW254616  13.501   9.408  11.915
84262SOL     OW54617   6.786   6.730   9.699
84262SOL    HW154618   6.854   6.785   9.738
84262SOL    HW254619   6.706   6.753   9.746
84263SOL     OW54620   5.591   0.992   7.988
84263SOL    HW154621   5.657   1.021   7.925
84263SOL    HW254622   5.529   1.065   7.992
84264SOL     OW54623   0.725  10.346   7.303
84264SOL    HW154624   0.695  10.405   7.234
84264SOL    HW254625   0.724  10.259   7.262
84265SOL     OW54626   4.953   8.179  12.836
84265SOL    HW154627   4.958   8.095  12.791
84265SOL    HW254628   4.860   8.203  12.833
84266SOL     OW54629  13.278   5.161  12.013
84266SOL    HW154630  13.269   5.136  11.921
84266SOL    HW254631  13.367   5.194  12.021
84267SOL     OW54632  14.802   5.655   2.680
84267SOL    HW154633  14.713   5.627   2.656
84267SOL    HW254634  14.829   5.711   2.607
84268SOL     OW54635   7.692  11.383   6.162
84268SOL    HW154636   7.707  11.403   6.254
84268SOL    HW254637   7.622  11.443   6.136
84269SOL     OW54638  11.145  12.045   1.461
84269SOL    HW154639  11.202  11.970   1.442
84269SOL    HW254640  11.061  12.022   1.422
84270SOL     OW54641   7.601  11.550   1.287
84270SOL    HW154642   7.517  11.519   1.321
84270SOL    HW254643   7.637  11.604   1.357
84271SOL     OW54644   6.575   6.975   9.694
84271SOL    HW154645   6.667   7.002   9.694
84271SOL    HW254646   6.537   7.020   9.619
84272SOL     OW54647   6.424   9.313  10.409
84272SOL    HW154648   6.505   9.299  10.359
84272SOL    HW254649   6.355   9.314  10.342
84273SOL     OW54650   7.383   2.836   1.333
84273SOL    HW154651   7.352   2.836   1.423
84273SOL    HW254652   7.314   2.880   1.284
84274SOL     OW54653   0.803   7.726  13.426
84274SOL    HW154654   0.814   7.658  13.359
84274SOL    HW254655   0.854   7.694  13.500
84275SOL     OW54656   2.817  10.976   0.676
84275SOL    HW154657   2.731  10.967   0.635
84275SOL    HW254658   2.799  10.989   0.769
84276SOL     OW54659  11.519   4.912   4.814
84276SOL    HW154660  11.544   4.967   4.740
84276SOL    HW254661  11.479   4.973   4.877
84277SOL     OW54662  10.030  14.422   3.554
84277SOL    HW154663  10.076  14.343   3.581
84277SOL    HW254664   9.946  14.418   3.600
84278SOL     OW54665  11.173  10.651   8.263
84278SOL    HW154666  11.166  10.730   8.315
84278SOL    HW254667  11.223  10.590   8.318
84279SOL     OW54668   3.814   2.665   1.154
84279SOL    HW154669   3.895   2.683   1.202
84279SOL    HW254670   3.748   2.655   1.222
84280SOL     OW54671   5.393  14.124  11.307
84280SOL    HW154672   5.339  14.059  11.262
84280SOL    HW254673   5.413  14.189  11.240
84281SOL     OW54674   3.951  12.765  10.585
84281SOL    HW154675   3.991  12.709  10.652
84281SOL    HW254676   3.941  12.849  10.629
84282SOL     OW54677   0.830   2.040  12.832
84282SOL    HW154678   0.911   2.007  12.871
84282SOL    HW254679   0.799   1.968  12.777
84283SOL     OW54680  13.254  10.312  11.986
84283SOL    HW154681  13.245  10.407  11.986
84283SOL    HW254682  13.164  10.280  11.986
84284SOL     OW54683   9.543  11.755   6.205
84284SOL    HW154684   9.582  11.839   6.228
84284SOL    HW254685   9.553  11.702   6.284
84285SOL     OW54686  12.341   2.935   7.779
84285SOL    HW154687  12.270   2.996   7.756
84285SOL    HW254688  12.421   2.982   7.757
84286SOL     OW54689   6.991   1.195   9.856
84286SOL    HW154690   7.058   1.229   9.796
84286SOL    HW254691   6.911   1.193   9.803
84287SOL     OW54692   7.612   4.260   9.655
84287SOL    HW154693   7.662   4.242   9.576
84287SOL    HW254694   7.521   4.260   9.626
84288SOL     OW54695   5.240   9.839  14.179
84288SOL    HW154696   5.324   9.846  14.224
84288SOL    HW254697   5.244   9.906  14.111
84289SOL     OW54698   7.089   1.725  14.448
84289SOL    HW154699   7.150   1.652  14.455
84289SOL    HW254700   7.127   1.781  14.379
84290SOL     OW54701   6.581   4.882   9.836
84290SOL    HW154702   6.514   4.950   9.842
84290SOL    HW254703   6.598   4.873   9.742
84291SOL     OW54704  13.266  13.959   4.760
84291SOL    HW154705  13.241  14.021   4.829
84291SOL    HW254706  13.219  13.879   4.781
84292SOL     OW54707   7.032  10.214   5.680
84292SOL    HW154708   7.014  10.171   5.763
84292SOL    HW254709   7.124  10.238   5.685
84293SOL     OW54710  13.988   4.035   3.911
84293SOL    HW154711  14.078   4.028   3.943
84293SOL    HW254712  13.969   3.948   3.875
84294SOL     OW54713   2.892   3.134   2.046
84294SOL    HW154714   2.909   3.204   1.984
84294SOL    HW254715   2.955   3.148   2.116
84295SOL     OW54716  11.688  11.010  11.245
84295SOL    HW154717  11.645  10.982  11.326
84295SOL    HW254718  11.673  11.104  11.241
84296SOL     OW54719  14.699   2.848   7.897
84296SOL    HW154720  14.732   2.933   7.928
84296SOL    HW254721  14.759   2.784   7.936
84297SOL     OW54722   0.177  10.876  11.877
84297SOL    HW154723   0.204  10.786  11.896
84297SOL    HW254724   0.092  10.867  11.834
84298SOL     OW54725   3.360   6.721   1.943
84298SOL    HW154726   3.332   6.747   2.030
84298SOL    HW254727   3.412   6.795   1.911
84299SOL     OW54728  12.085   1.078   4.148
84299SOL    HW154729  12.110   1.137   4.219
84299SOL    HW254730  12.147   1.006   4.154
84300SOL     OW54731  11.883  13.942   2.579
84300SOL    HW154732  11.806  13.931   2.523
84300SOL    HW254733  11.954  13.964   2.518
84301SOL     OW54734   8.011  14.077   1.810
84301SOL    HW154735   7.955  14.107   1.881
84301SOL    HW254736   7.973  14.117   1.731
84302SOL     OW54737   2.760   7.533   3.957
84302SOL    HW154738   2.717   7.547   3.873
84302SOL    HW254739   2.698   7.479   4.007
84303SOL     OW54740  11.815   5.658  11.225
84303SOL    HW154741  11.911   5.661  11.222
84303SOL    HW254742  11.795   5.645  11.318
84304SOL     OW54743  13.269   7.821   2.318
84304SOL    HW154744  13.360   7.828   2.289
84304SOL    HW254745  13.272   7.762   2.393
84305SOL     OW54746   9.126  11.421   2.687
84305SOL    HW154747   9.133  11.490   2.753
84305SOL    HW254748   9.201  11.437   2.629
84306SOL     OW54749   7.938  11.293  13.045
84306SOL    HW154750   7.890  11.243  13.111
84306SOL    HW254751   7.972  11.227  12.984
84307SOL     OW54752   2.573  14.640   3.576
84307SOL    HW154753   2.564  14.735   3.567
84307SOL    HW254754   2.497  14.613   3.626
84308SOL     OW54755   8.217   8.693   0.975
84308SOL    HW154756   8.312   8.707   0.969
84308SOL    HW254757   8.182   8.779   0.997
84309SOL     OW54758   3.045   0.326   3.832
84309SOL    HW154759   2.976   0.363   3.887
84309SOL    HW254760   2.998   0.271   3.769
84310SOL     OW54761   5.062   5.420   3.295
84310SOL    HW154762   5.067   5.400   3.388
84310SOL    HW254763   4.969   5.435   3.279
84311SOL     OW54764  11.460   9.816   0.418
84311SOL    HW154765  11.484   9.906   0.442
84311SOL    HW254766  11.448   9.771   0.502
84312SOL     OW54767  14.103   9.616   2.819
84312SOL    HW154768  14.058   9.585   2.898
84312SOL    HW254769  14.056   9.574   2.747
84313SOL     OW54770   5.065   0.438  11.968
84313SOL    HW154771   5.007   0.500  12.013
84313SOL    HW254772   5.148   0.444  12.016
84314SOL     OW54773   2.918   0.170   6.488
84314SOL    HW154774   2.937   0.255   6.449
84314SOL    HW254775   2.830   0.178   6.524
84315SOL     OW54776   0.027  12.280  11.830
84315SOL    HW154777   0.104  12.303  11.778
84315SOL    HW254778   0.063  12.246  11.912
84316SOL     OW54779   4.317   0.490  14.666
84316SOL    HW154780   4.318   0.395  14.679
84316SOL    HW254781   4.406   0.511  14.639
84317SOL     OW54782  11.460   3.111  10.494
84317SOL    HW154783  11.443   3.107  10.400
84317SOL    HW254784  11.438   3.023  10.526
84318SOL     OW54785   0.567   0.238   1.850
84318SOL    HW154786   0.633   0.230   1.919
84318SOL    HW254787   0.545   0.147   1.829
84319SOL     OW54788   0.699   2.051   3.482
84319SOL    HW154789   0.699   2.008   3.396
84319SOL    HW254790   0.784   2.029   3.519
84320SOL     OW54791  11.366   0.993   1.963
84320SOL    HW154792  11.400   1.045   1.890
84320SOL    HW254793  11.344   1.058   2.030
84321SOL     OW54794   2.825  13.478   5.329
84321SOL    HW154795   2.768  13.549   5.360
84321SOL    HW254796   2.775  13.398   5.345
84322SOL     OW54797  12.697   9.321  10.180
84322SOL    HW154798  12.625   9.383  10.192
84322SOL    HW254799  12.745   9.324  10.263
84323SOL     OW54800   2.080   5.848   0.674
84323SOL    HW154801   2.149   5.828   0.738
84323SOL    HW254802   2.091   5.783   0.605
84324SOL     OW54803   5.436  12.123  10.707
84324SOL    HW154804   5.498  12.076  10.653
84324SOL    HW254805   5.353  12.077  10.695
84325SOL     OW54806  14.182   9.790  13.748
84325SOL    HW154807  14.185   9.800  13.843
84325SOL    HW254808  14.090   9.801  13.726
84326SOL     OW54809  14.227  12.246  11.644
84326SOL    HW154810  14.156  12.256  11.581
84326SOL    HW254811  14.208  12.310  11.713
84327SOL     OW54812  13.311   8.354   6.700
84327SOL    HW154813  13.394   8.332   6.743
84327SOL    HW254814  13.247   8.355   6.771
84328SOL     OW54815  10.784  14.440   9.669
84328SOL    HW154816  10.711  14.379   9.680
84328SOL    HW254817  10.760  14.493   9.592
84329SOL     OW54818   5.637   6.174   3.452
84329SOL    HW154819   5.629   6.264   3.485
84329SOL    HW254820   5.553   6.155   3.411
84330SOL     OW54821  11.701   6.962   1.496
84330SOL    HW154822  11.747   6.938   1.577
84330SOL    HW254823  11.715   7.057   1.488
84331SOL     OW54824  10.116  10.078  11.929
84331SOL    HW154825  10.085  10.167  11.941
84331SOL    HW254826  10.115  10.065  11.834
84332SOL     OW54827   3.433  12.384   1.992
84332SOL    HW154828   3.338  12.398   1.988
84332SOL    HW254829   3.443  12.289   2.002
84333SOL     OW54830   7.279   6.754   9.226
84333SOL    HW154831   7.294   6.837   9.272
84333SOL    HW254832   7.338   6.692   9.268
84334SOL     OW54833  12.645   4.691   4.161
84334SOL    HW154834  12.558   4.729   4.177
84334SOL    HW254835  12.704   4.747   4.212
84335SOL     OW54836  12.107   9.341   4.725
84335SOL    HW154837  12.187   9.301   4.690
84335SOL    HW254838  12.138   9.404   4.790
84336SOL     OW54839   3.825   1.896   6.957
84336SOL    HW154840   3.753   1.945   6.917
84336SOL    HW254841   3.851   1.832   6.891
84337SOL     OW54842   6.922   2.385  11.287
84337SOL    HW154843   6.890   2.412  11.373
84337SOL    HW254844   6.849   2.403  11.227
84338SOL     OW54845  13.336  13.211  13.046
84338SOL    HW154846  13.394  13.135  13.042
84338SOL    HW254847  13.273  13.190  13.115
84339SOL     OW54848   1.093   3.166   4.065
84339SOL    HW154849   1.186   3.144   4.070
84339SOL    HW254850   1.066   3.138   3.977
84340SOL     OW54851  13.568   8.925  12.478
84340SOL    HW154852  13.494   8.888  12.525
84340SOL    HW254853  13.640   8.863  12.492
84341SOL     OW54854   7.620   1.496   1.171
84341SOL    HW154855   7.577   1.555   1.233
84341SOL    HW254856   7.556   1.483   1.101
84342SOL     OW54857   2.688   4.398   3.939
84342SOL    HW154858   2.717   4.489   3.941
84342SOL    HW254859   2.601   4.400   3.979
84343SOL     OW54860   5.489  11.393   1.357
84343SOL    HW154861   5.563  11.337   1.379
84343SOL    HW254862   5.413  11.350   1.396
84344SOL     OW54863   1.326  12.257   6.457
84344SOL    HW154864   1.245  12.283   6.500
84344SOL    HW254865   1.316  12.286   6.366
84345SOL     OW54866   0.541   1.714  14.848
84345SOL    HW154867   0.568   1.741  14.760
84345SOL    HW254868   0.489   1.787   0.005
84346SOL     OW54869   9.643  12.204   2.288
84346SOL    HW154870   9.691  12.268   2.340
84346SOL    HW254871   9.710  12.144   2.255
84347SOL     OW54872   1.327   8.438   4.444
84347SOL    HW154873   1.256   8.438   4.380
84347SOL    HW254874   1.395   8.383   4.405
84348SOL     OW54875  13.146   2.661   0.939
84348SOL    HW154876  13.076   2.619   0.890
84348SOL    HW254877  13.161   2.602   1.013
84349SOL     OW54878   5.760   5.368   6.025
84349SOL    HW154879   5.830   5.362   6.089
84349SOL    HW254880   5.680   5.378   6.077
84350SOL     OW54881   4.273   3.183  10.238
84350SOL    HW154882   4.353   3.175  10.184
84350SOL    HW254883   4.300   3.153  10.325
84351SOL     OW54884   7.423   7.168   2.631
84351SOL    HW154885   7.388   7.251   2.599
84351SOL    HW254886   7.508   7.159   2.587
84352SOL     OW54887   3.315  10.788   6.710
84352SOL    HW154888   3.366  10.868   6.697
84352SOL    HW254889   3.229  10.808   6.675
84353SOL     OW54890  12.846   2.916   8.427
84353SOL    HW154891  12.828   2.836   8.477
84353SOL    HW254892  12.848   2.887   8.336
84354SOL     OW54893   2.172  12.403   0.484
84354SOL    HW154894   2.239  12.379   0.547
84354SOL    HW254895   2.129  12.480   0.522
84355SOL     OW54896  11.270   9.907   8.941
84355SOL    HW154897  11.312   9.849   9.005
84355SOL    HW254898  11.197   9.855   8.907
84356SOL     OW54899   5.201  12.258  11.055
84356SOL    HW154900   5.109  12.278  11.033
84356SOL    HW254901   5.200  12.241  11.149
84357SOL     OW54902   2.689   4.180   0.014
84357SOL    HW154903   2.673   4.103   0.069
84357SOL    HW254904   2.653   4.253   0.065
84358SOL     OW54905   0.932   2.025   0.558
84358SOL    HW154906   0.979   2.095   0.603
84358SOL    HW254907   0.957   2.036   0.466
84359SOL     OW54908   0.080   6.042   0.090
84359SOL    HW154909   0.032   6.125   0.090
84359SOL    HW254910   0.152   6.057   0.151
84360SOL     OW54911   3.165   7.592  13.532
84360SOL    HW154912   3.092   7.648  13.508
84360SOL    HW254913   3.219   7.589  13.453
84361SOL     OW54914   5.856  13.441  11.229
84361SOL    HW154915   5.785  13.453  11.166
84361SOL    HW254916   5.902  13.363  11.198
84362SOL     OW54917   9.001   8.880   5.676
84362SOL    HW154918   9.029   8.841   5.758
84362SOL    HW254919   8.965   8.965   5.701
84363SOL     OW54920   1.713   5.336   7.920
84363SOL    HW154921   1.763   5.254   7.918
84363SOL    HW254922   1.659   5.329   7.999
84364SOL     OW54923   2.950   5.136  14.626
84364SOL    HW154924   3.000   5.208  14.665
84364SOL    HW254925   2.969   5.141  14.533
84365SOL     OW54926   2.139   2.422  14.080
84365SOL    HW154927   2.147   2.474  14.160
84365SOL    HW254928   2.195   2.346  14.094
84366SOL     OW54929   8.375  12.037   8.112
84366SOL    HW154930   8.407  12.075   8.193
84366SOL    HW254931   8.280  12.044   8.118
84367SOL     OW54932   2.113  10.147  12.963
84367SOL    HW154933   2.078  10.158  13.052
84367SOL    HW254934   2.049  10.191  12.907
84368SOL     OW54935   0.114   3.256  12.286
84368SOL    HW154936   0.208   3.239  12.292
84368SOL    HW254937   0.073   3.175  12.315
84369SOL     OW54938  13.641   8.792   0.890
84369SOL    HW154939  13.554   8.774   0.856
84369SOL    HW254940  13.665   8.876   0.850
84370SOL     OW54941   8.782  12.228   7.243
84370SOL    HW154942   8.701  12.251   7.287
84370SOL    HW254943   8.846  12.216   7.314
84371SOL     OW54944  10.009  13.149  10.361
84371SOL    HW154945   9.938  13.097  10.323
84371SOL    HW254946   9.979  13.240  10.353
84372SOL     OW54947  10.056   2.979   5.403
84372SOL    HW154948  10.049   2.894   5.447
84372SOL    HW254949   9.983   2.981   5.342
84373SOL     OW54950  12.380  13.238   8.613
84373SOL    HW154951  12.444  13.270   8.676
84373SOL    HW254952  12.297  13.276   8.641
84374SOL     OW54953  10.217   9.085  14.684
84374SOL    HW154954  10.171   9.080  14.600
84374SOL    HW254955  10.173   9.021  14.740
84375SOL     OW54956  14.588   9.032   3.103
84375SOL    HW154957  14.578   8.942   3.134
84375SOL    HW254958  14.510   9.048   3.051
84376SOL     OW54959   4.724   3.611   1.095
84376SOL    HW154960   4.750   3.521   1.077
84376SOL    HW254961   4.791   3.645   1.154
84377SOL     OW54962  12.483   3.088   3.973
84377SOL    HW154963  12.482   3.070   4.067
84377SOL    HW254964  12.481   3.002   3.931
84378SOL     OW54965   3.586   7.781   6.394
84378SOL    HW154966   3.637   7.831   6.330
84378SOL    HW254967   3.510   7.750   6.345
84379SOL     OW54968   8.643   6.456   2.791
84379SOL    HW154969   8.719   6.515   2.790
84379SOL    HW254970   8.642   6.418   2.704
84380SOL     OW54971  10.129  13.158   1.943
84380SOL    HW154972  10.053  13.106   1.970
84380SOL    HW254973  10.108  13.247   1.969
84381SOL     OW54974   5.947   2.645   3.655
84381SOL    HW154975   5.920   2.621   3.566
84381SOL    HW254976   5.865   2.661   3.701
84382SOL     OW54977   5.261  10.543   5.187
84382SOL    HW154978   5.283  10.597   5.263
84382SOL    HW254979   5.208  10.600   5.131
84383SOL     OW54980   0.655  13.961   3.029
84383SOL    HW154981   0.745  13.982   3.007
84383SOL    HW254982   0.618  13.924   2.948
84384SOL     OW54983   4.726   2.332  13.797
84384SOL    HW154984   4.764   2.361  13.714
84384SOL    HW254985   4.660   2.267  13.770
84385SOL     OW54986  10.876   6.676  11.168
84385SOL    HW154987  10.850   6.658  11.077
84385SOL    HW254988  10.808   6.733  11.202
84386SOL     OW54989   0.075   3.208   6.418
84386SOL    HW154990   0.051   3.154   6.342
84386SOL    HW254991   0.002   3.269   6.428
84387SOL     OW54992   3.777   0.114   2.031
84387SOL    HW154993   3.850   0.055   2.049
84387SOL    HW254994   3.811   0.175   1.966
84388SOL     OW54995  12.500  14.763   4.582
84388SOL    HW154996  12.517  14.705   4.656
84388SOL    HW254997  12.405  14.768   4.576
84389SOL     OW54998  14.651  14.003   7.017
84389SOL    HW154999  14.631  14.048   6.934
84389SOL    HW255000  14.587  13.933   7.022
84390SOL     OW55001   1.088   7.182   3.901
84390SOL    HW155002   1.090   7.212   3.992
84390SOL    HW255003   1.105   7.261   3.849
84391SOL     OW55004  13.165  11.310   8.201
84391SOL    HW155005  13.123  11.339   8.282
84391SOL    HW255006  13.096  11.317   8.135
84392SOL     OW55007   1.882  13.659   0.635
84392SOL    HW155008   1.807  13.713   0.661
84392SOL    HW255009   1.914  13.622   0.717
84393SOL     OW55010  14.019   1.117   9.093
84393SOL    HW155011  14.082   1.159   9.035
84393SOL    HW255012  14.051   1.027   9.101
84394SOL     OW55013  10.567   0.937   1.106
84394SOL    HW155014  10.579   1.018   1.156
84394SOL    HW255015  10.494   0.956   1.047
84395SOL     OW55016  10.948   5.970  11.159
84395SOL    HW155017  10.901   5.888  11.142
84395SOL    HW255018  10.884   6.024  11.205
84396SOL     OW55019  13.982   5.637  13.999
84396SOL    HW155020  14.007   5.565  13.941
84396SOL    HW255021  13.907   5.678  13.956
84397SOL     OW55022   2.905  10.262   1.409
84397SOL    HW155023   2.889  10.336   1.350
84397SOL    HW255024   2.942  10.302   1.487
84398SOL     OW55025   5.222   2.695   4.039
84398SOL    HW155026   5.210   2.734   4.125
84398SOL    HW255027   5.311   2.657   4.042
84399SOL     OW55028  14.140   0.214  10.986
84399SOL    HW155029  14.201   0.151  11.024
84399SOL    HW255030  14.181   0.299  11.000
84400SOL     OW55031   0.083   5.043  11.849
84400SOL    HW155032  14.873   5.049  11.891
84400SOL    HW255033   0.100   5.131  11.816
84401SOL     OW55034  13.554   2.896   2.694
84401SOL    HW155035  13.634   2.889   2.641
84401SOL    HW255036  13.582   2.940   2.774
84402SOL     OW55037   1.784  10.058   4.672
84402SOL    HW155038   1.855  10.088   4.729
84402SOL    HW255039   1.746  10.139   4.637
84403SOL     OW55040   5.317   4.244  13.694
84403SOL    HW155041   5.315   4.152  13.720
84403SOL    HW255042   5.286   4.291  13.771
84404SOL     OW55043   1.118   5.239   5.324
84404SOL    HW155044   1.182   5.300   5.288
84404SOL    HW255045   1.041   5.248   5.269
84405SOL     OW55046   0.397   3.251   4.608
84405SOL    HW155047   0.302   3.242   4.618
84405SOL    HW255048   0.426   3.283   4.693
84406SOL     OW55049   5.816   2.992   1.051
84406SOL    HW155050   5.855   2.956   0.971
84406SOL    HW255051   5.825   3.087   1.042
84407SOL     OW55052   7.293   7.123  12.394
84407SOL    HW155053   7.286   7.061  12.467
84407SOL    HW255054   7.378   7.165  12.407
84408SOL     OW55055   6.534   0.159   3.022
84408SOL    HW155056   6.477   0.233   3.001
84408SOL    HW255057   6.519   0.096   2.952
84409SOL     OW55058   5.734  13.625   6.056
84409SOL    HW155059   5.791  13.629   5.979
84409SOL    HW255060   5.751  13.707   6.102
84410SOL     OW55061  11.808   5.037  12.493
84410SOL    HW155062  11.817   5.114  12.437
84410SOL    HW255063  11.757   4.974  12.441
84411SOL     OW55064  10.332   4.432  13.283
84411SOL    HW155065  10.246   4.404  13.315
84411SOL    HW255066  10.365   4.356  13.235
84412SOL     OW55067   7.873  13.788  12.923
84412SOL    HW155068   7.892  13.695  12.930
84412SOL    HW255069   7.955  13.832  12.944
84413SOL     OW55070   8.096  12.779  11.496
84413SOL    HW155071   8.058  12.715  11.557
84413SOL    HW255072   8.046  12.766  11.415
84414SOL     OW55073   1.299   2.799   8.650
84414SOL    HW155074   1.241   2.766   8.581
84414SOL    HW255075   1.244   2.861   8.698
84415SOL     OW55076  13.508  10.636   9.667
84415SOL    HW155077  13.586  10.580   9.663
84415SOL    HW255078  13.455  10.609   9.591
84416SOL     OW55079  12.142   7.772   4.229
84416SOL    HW155080  12.216   7.786   4.170
84416SOL    HW255081  12.101   7.858   4.238
84417SOL     OW55082   6.405   2.475   7.847
84417SOL    HW155083   6.405   2.428   7.764
84417SOL    HW255084   6.393   2.567   7.823
84418SOL     OW55085   8.306   4.035  11.431
84418SOL    HW155086   8.320   4.052  11.524
84418SOL    HW255087   8.390   3.999  11.400
84419SOL     OW55088   5.010  11.185   1.537
84419SOL    HW155089   5.031  11.094   1.515
84419SOL    HW255090   5.051  11.199   1.622
84420SOL     OW55091  10.520   4.224   3.420
84420SOL    HW155092  10.449   4.287   3.409
84420SOL    HW255093  10.570   4.230   3.339
84421SOL     OW55094   3.688  13.713   7.747
84421SOL    HW155095   3.783  13.698   7.747
84421SOL    HW255096   3.659  13.681   7.832
84422SOL     OW55097   8.067  14.300   9.043
84422SOL    HW155098   8.158  14.310   9.013
84422SOL    HW255099   8.069  14.332   9.134
84423SOL     OW55100  11.719  11.972   8.334
84423SOL    HW155101  11.679  12.022   8.262
84423SOL    HW255102  11.806  11.948   8.301
84424SOL     OW55103   7.975   7.787   1.424
84424SOL    HW155104   7.932   7.705   1.402
84424SOL    HW255105   8.061   7.761   1.457
84425SOL     OW55106   2.125   2.161  14.408
84425SOL    HW155107   2.062   2.093  14.383
84425SOL    HW255108   2.200   2.111  14.443
84426SOL     OW55109   1.687  12.917   8.218
84426SOL    HW155110   1.675  12.926   8.313
84426SOL    HW255111   1.705  12.824   8.205
84427SOL     OW55112   5.490  12.292   8.764
84427SOL    HW155113   5.409  12.339   8.746
84427SOL    HW255114   5.473  12.245   8.846
84428SOL     OW55115   8.535  12.293   8.573
84428SOL    HW155116   8.614  12.316   8.524
84428SOL    HW255117   8.531  12.358   8.643
84429SOL     OW55118   8.583   9.184  12.089
84429SOL    HW155119   8.672   9.156  12.109
84429SOL    HW255120   8.555   9.127  12.018
84430SOL     OW55121  14.263  14.188  11.307
84430SOL    HW155122  14.341  14.165  11.258
84430SOL    HW255123  14.201  14.219  11.241
84431SOL     OW55124   6.250   8.298   1.980
84431SOL    HW155125   6.314   8.367   1.962
84431SOL    HW255126   6.226   8.263   1.894
84432SOL     OW55127   3.709   5.128  10.154
84432SOL    HW155128   3.664   5.045  10.141
84432SOL    HW255129   3.691   5.152  10.245
84433SOL     OW55130   9.953   4.879   9.681
84433SOL    HW155131   9.898   4.863   9.604
84433SOL    HW255132   9.891   4.878   9.754
84434SOL     OW55133   1.379   6.795   4.832
84434SOL    HW155134   1.409   6.877   4.872
84434SOL    HW255135   1.445   6.775   4.766
84435SOL     OW55136   5.992  14.000  10.929
84435SOL    HW155137   6.054  13.940  10.888
84435SOL    HW255138   5.940  13.944  10.987
84436SOL     OW55139   6.897   6.572  14.217
84436SOL    HW155140   6.870   6.608  14.132
84436SOL    HW255141   6.993   6.578  14.215
84437SOL     OW55142  14.451   8.525  14.514
84437SOL    HW155143  14.527   8.471  14.493
84437SOL    HW255144  14.391   8.511  14.440
84438SOL     OW55145  13.949   5.360   1.885
84438SOL    HW155146  13.864   5.403   1.879
84438SOL    HW255147  13.995   5.407   1.955
84439SOL     OW55148   9.904  14.155   9.365
84439SOL    HW155149   9.823  14.167   9.415
84439SOL    HW255150   9.915  14.060   9.361
84440SOL     OW55151  10.993  13.421  13.183
84440SOL    HW155152  10.955  13.417  13.270
84440SOL    HW255153  11.062  13.487  13.190
84441SOL     OW55154  11.130   3.705   2.655
84441SOL    HW155155  11.139   3.615   2.622
84441SOL    HW255156  11.196   3.755   2.607
84442SOL     OW55157   7.046   4.118   4.825
84442SOL    HW155158   6.982   4.058   4.786
84442SOL    HW255159   7.074   4.075   4.905
84443SOL     OW55160   6.573   2.990  13.491
84443SOL    HW155161   6.597   3.048  13.563
84443SOL    HW255162   6.484   2.962  13.512
84444SOL     OW55163   8.338   3.532   8.014
84444SOL    HW155164   8.334   3.481   7.934
84444SOL    HW255165   8.311   3.471   8.083
84445SOL     OW55166  12.806   7.365   4.343
84445SOL    HW155167  12.779   7.307   4.272
84445SOL    HW255168  12.725   7.388   4.388
84446SOL     OW55169   6.349  14.368   6.600
84446SOL    HW155170   6.327  14.275   6.605
84446SOL    HW255171   6.364  14.385   6.507
84447SOL     OW55172  10.349   5.451   7.250
84447SOL    HW155173  10.349   5.358   7.272
84447SOL    HW255174  10.269   5.485   7.290
84448SOL     OW55175  12.008   8.607   8.829
84448SOL    HW155176  11.917   8.633   8.846
84448SOL    HW255177  12.049   8.687   8.794
84449SOL     OW55178   4.713   9.210   3.956
84449SOL    HW155179   4.734   9.136   4.013
84449SOL    HW255180   4.654   9.264   4.008
84450SOL     OW55181   7.352   6.574   5.130
84450SOL    HW155182   7.303   6.540   5.204
84450SOL    HW255183   7.314   6.532   5.053
84451SOL     OW55184   4.913  14.000   7.615
84451SOL    HW155185   4.942  14.054   7.542
84451SOL    HW255186   4.992  13.984   7.666
84452SOL     OW55187   5.649   0.108  13.765
84452SOL    HW155188   5.686   0.152  13.689
84452SOL    HW255189   5.582   0.168  13.798
84453SOL     OW55190  11.945   3.069   0.045
84453SOL    HW155191  11.971   3.007   0.113
84453SOL    HW255192  11.856   3.042   0.021
84454SOL     OW55193   7.939   0.923   1.436
84454SOL    HW155194   7.959   1.011   1.467
84454SOL    HW255195   7.966   0.865   1.508
84455SOL     OW55196  12.325   1.577   9.682
84455SOL    HW155197  12.245   1.526   9.667
84455SOL    HW255198  12.313   1.614   9.769
84456SOL     OW55199   8.557   6.929   5.484
84456SOL    HW155200   8.612   6.865   5.530
84456SOL    HW255201   8.614   6.965   5.416
84457SOL     OW55202  12.557   5.946   9.231
84457SOL    HW155203  12.470   5.913   9.211
84457SOL    HW255204  12.601   5.874   9.277
84458SOL     OW55205  11.030  14.402   3.962
84458SOL    HW155206  10.965  14.331   3.959
84458SOL    HW255207  11.106  14.364   4.004
84459SOL     OW55208   6.271   2.099  14.312
84459SOL    HW155209   6.216   2.111  14.235
84459SOL    HW255210   6.360   2.087  14.277
84460SOL     OW55211   5.013   7.855   2.466
84460SOL    HW155212   4.940   7.913   2.444
84460SOL    HW255213   4.985   7.769   2.434
84461SOL     OW55214   0.465   2.586  12.122
84461SOL    HW155215   0.406   2.559  12.192
84461SOL    HW255216   0.432   2.540  12.044
84462SOL     OW55217   4.558   7.712   9.582
84462SOL    HW155218   4.471   7.708   9.541
84462SOL    HW255219   4.589   7.622   9.580
84463SOL     OW55220   0.517   4.060   7.709
84463SOL    HW155221   0.570   4.084   7.633
84463SOL    HW255222   0.427   4.079   7.683
84464SOL     OW55223  11.481   1.761   5.165
84464SOL    HW155224  11.563   1.733   5.205
84464SOL    HW255225  11.505   1.790   5.077
84465SOL     OW55226  12.033   7.922   1.398
84465SOL    HW155227  12.000   7.837   1.429
84465SOL    HW255228  12.032   7.915   1.303
84466SOL     OW55229  11.365  13.900   8.782
84466SOL    HW155230  11.293  13.956   8.753
84466SOL    HW255231  11.412  13.952   8.846
84467SOL     OW55232   0.381   2.250  12.761
84467SOL    HW155233   0.395   2.241  12.855
84467SOL    HW255234   0.337   2.335  12.751
84468SOL     OW55235  11.872   1.500   6.488
84468SOL    HW155236  11.910   1.471   6.406
84468SOL    HW255237  11.866   1.595   6.479
84469SOL     OW55238   9.938   1.110   1.051
84469SOL    HW155239   9.844   1.113   1.069
84469SOL    HW255240   9.944   1.117   0.956
84470SOL     OW55241   8.666   1.545   5.952
84470SOL    HW155242   8.643   1.618   5.894
84470SOL    HW255243   8.647   1.467   5.902
84471SOL     OW55244  11.791   6.592  10.419
84471SOL    HW155245  11.857   6.581  10.487
84471SOL    HW255246  11.832   6.648  10.354
84472SOL     OW55247   5.342   5.203   0.074
84472SOL    HW155248   5.380   5.280   0.031
84472SOL    HW255249   5.353   5.219   0.167
84473SOL     OW55250   8.454  11.850   2.272
84473SOL    HW155251   8.446  11.764   2.230
84473SOL    HW255252   8.368  11.891   2.258
84474SOL     OW55253  13.774  11.688   9.310
84474SOL    HW155254  13.808  11.604   9.341
84474SOL    HW255255  13.749  11.735   9.389
84475SOL     OW55256  13.304   9.575  12.023
84475SOL    HW155257  13.317   9.607  11.933
84475SOL    HW255258  13.375   9.513  12.036
84476SOL     OW55259   7.190  13.795  12.948
84476SOL    HW155260   7.266  13.851  12.952
84476SOL    HW255261   7.116  13.853  12.965
84477SOL     OW55262   2.863   0.679   2.710
84477SOL    HW155263   2.792   0.671   2.774
84477SOL    HW255264   2.880   0.773   2.705
84478SOL     OW55265   2.896   3.399   7.562
84478SOL    HW155266   2.935   3.464   7.620
84478SOL    HW255267   2.910   3.315   7.607
84479SOL     OW55268   0.929   9.020  14.036
84479SOL    HW155269   0.882   8.970  13.969
84479SOL    HW255270   0.920   9.112  14.008
84480SOL     OW55271   8.371  12.485   5.883
84480SOL    HW155272   8.381  12.417   5.950
84480SOL    HW255273   8.308  12.546   5.921
84481SOL     OW55274  14.273   0.742   4.001
84481SOL    HW155275  14.264   0.673   4.067
84481SOL    HW255276  14.336   0.707   3.938
84482SOL     OW55277  10.732   6.739   4.300
84482SOL    HW155278  10.803   6.686   4.337
84482SOL    HW255279  10.716   6.807   4.365
84483SOL     OW55280   2.704  11.965  10.512
84483SOL    HW155281   2.681  12.058  10.519
84483SOL    HW255282   2.748  11.959  10.427
84484SOL     OW55283   4.869  10.608   9.092
84484SOL    HW155284   4.922  10.625   9.014
84484SOL    HW255285   4.923  10.639   9.165
84485SOL     OW55286  12.897   7.972   5.127
84485SOL    HW155287  12.949   8.008   5.055
84485SOL    HW255288  12.929   8.018   5.204
84486SOL     OW55289   5.286   9.258   1.525
84486SOL    HW155290   5.268   9.168   1.497
84486SOL    HW255291   5.362   9.285   1.474
84487SOL     OW55292   2.330   9.932   8.511
84487SOL    HW155293   2.392   9.924   8.584
84487SOL    HW255294   2.262   9.990   8.544
84488SOL     OW55295   7.552   1.347  14.188
84488SOL    HW155296   7.575   1.396  14.109
84488SOL    HW255297   7.481   1.398  14.228
84489SOL     OW55298  11.874   9.333   1.808
84489SOL    HW155299  11.881   9.262   1.871
84489SOL    HW255300  11.952   9.387   1.824
84490SOL     OW55301   9.184   9.058   8.701
84490SOL    HW155302   9.094   9.025   8.702
84490SOL    HW255303   9.176   9.148   8.734
84491SOL     OW55304   3.393   5.112   1.454
84491SOL    HW155305   3.330   5.070   1.513
84491SOL    HW255306   3.469   5.130   1.509
84492SOL     OW55307   8.321   3.414   3.007
84492SOL    HW155308   8.329   3.472   2.931
84492SOL    HW255309   8.305   3.327   2.970
84493SOL     OW55310   3.218   7.849   2.055
84493SOL    HW155311   3.136   7.897   2.061
84493SOL    HW255312   3.242   7.854   1.962
84494SOL     OW55313   1.161   7.300  12.797
84494SOL    HW155314   1.253   7.321  12.817
84494SOL    HW255315   1.164   7.263  12.709
84495SOL     OW55316   2.614   6.177   0.456
84495SOL    HW155317   2.619   6.198   0.549
84495SOL    HW255318   2.692   6.216   0.418
84496SOL     OW55319   4.773  12.738   2.541
84496SOL    HW155320   4.708  12.801   2.571
84496SOL    HW255321   4.724  12.657   2.529
84497SOL     OW55322   3.933   4.039   9.728
84497SOL    HW155323   3.943   4.043   9.824
84497SOL    HW255324   3.881   3.961   9.712
84498SOL     OW55325   8.421   9.462   6.452
84498SOL    HW155326   8.393   9.553   6.449
84498SOL    HW255327   8.473   9.450   6.372
84499SOL     OW55328   1.756  14.017  12.288
84499SOL    HW155329   1.690  14.080  12.261
84499SOL    HW255330   1.792  14.052  12.370
84500SOL     OW55331   2.842   3.324   5.308
84500SOL    HW155332   2.773   3.275   5.352
84500SOL    HW255333   2.824   3.416   5.329
84501SOL     OW55334  13.125   4.839   7.076
84501SOL    HW155335  13.070   4.917   7.068
84501SOL    HW255336  13.166   4.830   6.990
84502SOL     OW55337   6.898   3.136   3.174
84502SOL    HW155338   6.867   3.213   3.126
84502SOL    HW255339   6.978   3.110   3.129
84503SOL     OW55340   5.188  13.005  13.321
84503SOL    HW155341   5.126  13.023  13.392
84503SOL    HW255342   5.194  12.910  13.318
84504SOL     OW55343  10.569   9.849   8.222
84504SOL    HW155344  10.621   9.918   8.263
84504SOL    HW255345  10.594   9.769   8.269
84505SOL     OW55346   0.464   8.330   9.519
84505SOL    HW155347   0.466   8.367   9.608
84505SOL    HW255348   0.419   8.396   9.467
84506SOL     OW55349   3.214   2.274  12.946
84506SOL    HW155350   3.263   2.232  13.016
84506SOL    HW255351   3.171   2.349  12.988
84507SOL     OW55352  11.234   1.189   5.109
84507SOL    HW155353  11.165   1.227   5.164
84507SOL    HW255354  11.187   1.150   5.035
84508SOL     OW55355  11.091   2.798   2.121
84508SOL    HW155356  11.122   2.797   2.031
84508SOL    HW255357  11.089   2.891   2.145
84509SOL     OW55358  11.745   3.240   9.828
84509SOL    HW155359  11.826   3.292   9.830
84509SOL    HW255360  11.684   3.293   9.777
84510SOL     OW55361   4.443   9.992   2.217
84510SOL    HW155362   4.415   9.951   2.299
84510SOL    HW255363   4.519  10.044   2.241
84511SOL     OW55364   3.784  12.743   9.444
84511SOL    HW155365   3.823  12.701   9.367
84511SOL    HW255366   3.838  12.820   9.459
84512SOL     OW55367   3.886  12.712   9.885
84512SOL    HW155368   3.947  12.703   9.958
84512SOL    HW255369   3.941  12.706   9.807
84513SOL     OW55370   1.778   8.961   0.027
84513SOL    HW155371   1.684   8.973   0.023
84513SOL    HW255372   1.790   8.866   0.028
84514SOL     OW55373   1.747   2.365   2.348
84514SOL    HW155374   1.746   2.454   2.313
84514SOL    HW255375   1.701   2.313   2.282
84515SOL     OW55376  14.805   7.306  11.938
84515SOL    HW155377  14.756   7.339  11.863
84515SOL    HW255378  14.771   7.218  11.952
84516SOL     OW55379   0.703   9.469  11.525
84516SOL    HW155380   0.635   9.403  11.532
84516SOL    HW255381   0.723   9.474  11.431
84517SOL     OW55382   3.909  11.863  11.702
84517SOL    HW155383   3.860  11.894  11.626
84517SOL    HW255384   3.886  11.923  11.772
84518SOL     OW55385   5.259   8.961  14.524
84518SOL    HW155386   5.225   9.028  14.583
84518SOL    HW255387   5.181   8.921  14.486
84519SOL     OW55388   1.864   5.811   8.499
84519SOL    HW155389   1.954   5.827   8.472
84519SOL    HW255390   1.814   5.884   8.461
84520SOL     OW55391   6.494  13.954   0.666
84520SOL    HW155392   6.511  13.905   0.586
84520SOL    HW255393   6.552  13.914   0.731
84521SOL     OW55394   7.162   6.057   6.590
84521SOL    HW155395   7.208   5.981   6.554
84521SOL    HW255396   7.183   6.056   6.683
84522SOL     OW55397  13.032  13.418   5.620
84522SOL    HW155398  12.999  13.380   5.538
84522SOL    HW255399  13.048  13.510   5.600
84523SOL     OW55400   2.560   1.020   0.837
84523SOL    HW155401   2.573   0.936   0.880
84523SOL    HW255402   2.474   1.012   0.794
84524SOL     OW55403   7.588  12.577   0.749
84524SOL    HW155404   7.661  12.572   0.688
84524SOL    HW255405   7.511  12.560   0.695
84525SOL     OW55406   4.668   1.006   8.881
84525SOL    HW155407   4.660   1.055   8.799
84525SOL    HW255408   4.595   1.037   8.935
84526SOL     OW55409   8.659   5.427   7.314
84526SOL    HW155410   8.733   5.419   7.255
84526SOL    HW255411   8.616   5.509   7.288
84527SOL     OW55412   0.469  11.530   1.261
84527SOL    HW155413   0.437  11.525   1.171
84527SOL    HW255414   0.556  11.490   1.259
84528SOL     OW55415   5.086   3.357   0.392
84528SOL    HW155416   5.068   3.445   0.423
84528SOL    HW255417   5.090   3.303   0.471
84529SOL     OW55418   8.807   3.939   2.131
84529SOL    HW155419   8.724   3.984   2.149
84529SOL    HW255420   8.872   4.009   2.129
84530SOL     OW55421   7.738  13.132  13.230
84530SOL    HW155422   7.720  13.038  13.224
84530SOL    HW255423   7.824  13.137  13.271
84531SOL     OW55424  14.498   4.982   1.470
84531SOL    HW155425  14.560   5.011   1.404
84531SOL    HW255426  14.471   5.062   1.515
84532SOL     OW55427  13.162   5.909   8.943
84532SOL    HW155428  13.254   5.897   8.967
84532SOL    HW255429  13.114   5.862   9.010
84533SOL     OW55430   8.189   1.222  11.021
84533SOL    HW155431   8.174   1.305  11.069
84533SOL    HW255432   8.136   1.158  11.069
84534SOL     OW55433   3.115   4.399  11.338
84534SOL    HW155434   3.072   4.463  11.395
84534SOL    HW255435   3.070   4.407  11.254
84535SOL     OW55436   9.614  11.228   1.672
84535SOL    HW155437   9.701  11.210   1.636
84535SOL    HW255438   9.605  11.324   1.666
84536SOL     OW55439  13.142   7.483   8.745
84536SOL    HW155440  13.225   7.443   8.773
84536SOL    HW255441  13.141   7.568   8.788
84537SOL     OW55442   8.586   1.650  14.069
84537SOL    HW155443   8.661   1.643  14.128
84537SOL    HW255444   8.527   1.579  14.096
84538SOL     OW55445   1.386   6.217  14.864
84538SOL    HW155446   1.371   6.169  14.783
84538SOL    HW255447   1.481   6.216  14.876
84539SOL     OW55448   8.128   5.339   1.256
84539SOL    HW155449   8.144   5.295   1.173
84539SOL    HW255450   8.153   5.275   1.323
84540SOL     OW55451   7.212   7.368   7.659
84540SOL    HW155452   7.144   7.305   7.683
84540SOL    HW255453   7.163   7.446   7.633
84541SOL     OW55454   3.210   1.545   2.886
84541SOL    HW155455   3.146   1.516   2.952
84541SOL    HW255456   3.289   1.494   2.906
84542SOL     OW55457  14.343  12.139  14.225
84542SOL    HW155458  14.361  12.079  14.298
84542SOL    HW255459  14.426  12.146  14.178
84543SOL     OW55460   9.665  13.661   9.782
84543SOL    HW155461   9.729  13.658   9.711
84543SOL    HW255462   9.707  13.615   9.854
84544SOL     OW55463   6.563   2.712   0.872
84544SOL    HW155464   6.655   2.684   0.878
84544SOL    HW255465   6.568   2.807   0.864
84545SOL     OW55466  13.592  12.332   0.119
84545SOL    HW155467  13.644  12.281   0.181
84545SOL    HW255468  13.619  12.423   0.134
84546SOL     OW55469  11.975   3.090   6.180
84546SOL    HW155470  12.021   3.133   6.108
84546SOL    HW255471  12.036   3.095   6.254
84547SOL     OW55472   5.343   4.762   4.469
84547SOL    HW155473   5.320   4.806   4.387
84547SOL    HW255474   5.283   4.798   4.534
84548SOL     OW55475   1.894   8.167  10.152
84548SOL    HW155476   1.962   8.233  10.166
84548SOL    HW255477   1.863   8.146  10.240
84549SOL     OW55478   6.947  13.110   7.719
84549SOL    HW155479   6.929  13.016   7.716
84549SOL    HW255480   6.887  13.149   7.656
84550SOL     OW55481   6.849  11.651   4.886
84550SOL    HW155482   6.788  11.697   4.943
84550SOL    HW255483   6.905  11.719   4.851
84551SOL     OW55484  10.931   5.310   6.784
84551SOL    HW155485  10.973   5.309   6.870
84551SOL    HW255486  10.883   5.392   6.781
84552SOL     OW55487  13.992  11.056   0.089
84552SOL    HW155488  13.931  10.985   0.107
84552SOL    HW255489  13.946  11.111   0.025
84553SOL     OW55490   3.341   4.467   8.314
84553SOL    HW155491   3.248   4.486   8.327
84553SOL    HW255492   3.370   4.436   8.400
84554SOL     OW55493  11.581   0.628   2.591
84554SOL    HW155494  11.557   0.656   2.502
84554SOL    HW255495  11.558   0.703   2.647
84555SOL     OW55496   4.149   7.717   1.572
84555SOL    HW155497   4.066   7.671   1.559
84555SOL    HW255498   4.216   7.654   1.543
84556SOL     OW55499   3.599   4.770   5.434
84556SOL    HW155500   3.562   4.830   5.369
84556SOL    HW255501   3.654   4.825   5.490
84557SOL     OW55502   4.160   4.911   7.906
84557SOL    HW155503   4.146   4.861   7.826
84557SOL    HW255504   4.114   4.862   7.974
84558SOL     OW55505  13.367   5.890  12.543
84558SOL    HW155506  13.332   5.925  12.461
84558SOL    HW255507  13.308   5.923  12.611
84559SOL     OW55508   4.362  12.442   4.406
84559SOL    HW155509   4.432  12.380   4.424
84559SOL    HW255510   4.404  12.528   4.408
84560SOL     OW55511   9.369   6.029   2.854
84560SOL    HW155512   9.406   6.009   2.940
84560SOL    HW255513   9.295   5.970   2.845
84561SOL     OW55514   7.696  11.686  13.405
84561SOL    HW155515   7.679  11.613  13.345
84561SOL    HW255516   7.763  11.653  13.465
84562SOL     OW55517   0.089   0.790  10.566
84562SOL    HW155518   0.077   0.808  10.659
84562SOL    HW255519   0.182   0.807  10.550
84563SOL     OW55520  14.663   6.273   8.978
84563SOL    HW155521  14.658   6.288   8.884
84563SOL    HW255522  14.651   6.360   9.016
84564SOL     OW55523   9.222   3.702   1.315
84564SOL    HW155524   9.128   3.685   1.326
84564SOL    HW255525   9.256   3.711   1.404
84565SOL     OW55526   6.385   3.495  13.965
84565SOL    HW155527   6.410   3.410  14.000
84565SOL    HW255528   6.355   3.476  13.876
84566SOL     OW55529  10.675   3.117   5.545
84566SOL    HW155530  10.667   3.211   5.562
84566SOL    HW255531  10.642   3.076   5.625
84567SOL     OW55532   6.461   6.001   0.790
84567SOL    HW155533   6.441   6.007   0.883
84567SOL    HW255534   6.410   6.070   0.749
84568SOL     OW55535   7.022   3.283   0.697
84568SOL    HW155536   6.964   3.343   0.744
84568SOL    HW255537   7.078   3.245   0.764
84569SOL     OW55538   2.628  11.661   1.711
84569SOL    HW155539   2.712  11.630   1.677
84569SOL    HW255540   2.643  11.673   1.805
84570SOL     OW55541   3.058   3.479   1.076
84570SOL    HW155542   3.054   3.385   1.089
84570SOL    HW255543   3.063   3.491   0.981
84571SOL     OW55544   4.073   0.346   2.513
84571SOL    HW155545   3.981   0.348   2.488
84571SOL    HW255546   4.118   0.304   2.439
84572SOL     OW55547   0.811   0.181   8.204
84572SOL    HW155548   0.841   0.175   8.295
84572SOL    HW255549   0.852   0.260   8.170
84573SOL     OW55550   6.485   6.031   8.930
84573SOL    HW155551   6.454   6.121   8.936
84573SOL    HW255552   6.529   6.026   8.846
84574SOL     OW55553  13.605   5.950   8.704
84574SOL    HW155554  13.663   6.025   8.692
84574SOL    HW255555  13.659   5.875   8.678
84575SOL     OW55556   5.623   6.635   9.060
84575SOL    HW155557   5.580   6.551   9.050
84575SOL    HW255558   5.705   6.626   9.011
84576SOL     OW55559  12.170   9.159   7.959
84576SOL    HW155560  12.138   9.165   8.049
84576SOL    HW255561  12.245   9.099   7.964
84577SOL     OW55562  10.101   6.379   2.734
84577SOL    HW155563  10.149   6.318   2.678
84577SOL    HW255564  10.078   6.328   2.812
84578SOL     OW55565  10.682   6.640  14.467
84578SOL    HW155566  10.601   6.668  14.425
84578SOL    HW255567  10.655   6.600  14.549
84579SOL     OW55568   7.166  13.400   8.742
84579SOL    HW155569   7.173  13.348   8.662
84579SOL    HW255570   7.257  13.410   8.772
84580SOL     OW55571  12.472   9.960   3.092
84580SOL    HW155572  12.518  10.042   3.111
84580SOL    HW255573  12.384   9.987   3.068
84581SOL     OW55574   7.930  11.622  13.607
84581SOL    HW155575   7.989  11.550  13.629
84581SOL    HW255576   7.982  11.678  13.549
84582SOL     OW55577  11.889  13.901  14.365
84582SOL    HW155578  11.882  13.868  14.454
84582SOL    HW255579  11.891  13.996  14.374
84583SOL     OW55580   7.383   7.192   8.434
84583SOL    HW155581   7.442   7.264   8.457
84583SOL    HW255582   7.301   7.234   8.411
84584SOL     OW55583  12.010   7.362  13.993
84584SOL    HW155584  11.998   7.453  14.020
84584SOL    HW255585  12.001   7.365  13.897
84585SOL     OW55586  10.159  13.397  11.768
84585SOL    HW155587  10.111  13.339  11.826
84585SOL    HW255588  10.250  13.391  11.798
84586SOL     OW55589   7.225   1.784  14.848
84586SOL    HW155590   7.239   1.689  14.846
84586SOL    HW255591   7.140   1.797  14.806
84587SOL     OW55592   9.486   9.379   2.402
84587SOL    HW155593   9.552   9.309   2.394
84587SOL    HW255594   9.431   9.352   2.475
84588SOL     OW55595   1.101   7.197  13.925
84588SOL    HW155596   1.037   7.233  13.986
84588SOL    HW255597   1.182   7.244  13.943
84589SOL     OW55598   3.450   3.258  13.552
84589SOL    HW155599   3.539   3.293  13.544
84589SOL    HW255600   3.400   3.330  13.591
84590SOL     OW55601   2.513   3.240  13.672
84590SOL    HW155602   2.565   3.254  13.750
84590SOL    HW255603   2.423   3.259  13.699
84591SOL     OW55604   5.673  14.587  11.769
84591SOL    HW155605   5.585  14.553  11.783
84591SOL    HW255606   5.731  14.517  11.797
84592SOL     OW55607  12.870   8.504  10.496
84592SOL    HW155608  12.843   8.466  10.412
84592SOL    HW255609  12.915   8.585  10.472
84593SOL     OW55610  10.852   3.712  10.845
84593SOL    HW155611  10.916   3.689  10.777
84593SOL    HW255612  10.767   3.697  10.805
84594SOL     OW55613  14.786  10.842  13.396
84594SOL    HW155614  14.849  10.793  13.448
84594SOL    HW255615  14.787  10.800  13.311
84595SOL     OW55616  10.486  11.439   9.257
84595SOL    HW155617  10.563  11.432   9.201
84595SOL    HW255618  10.510  11.393   9.338
84596SOL     OW55619   2.731   5.034  14.729
84596SOL    HW155620   2.816   5.035  14.686
84596SOL    HW255621   2.716   5.125  14.756
84597SOL     OW55622   0.586   2.382  13.520
84597SOL    HW155623   0.519   2.449  13.507
84597SOL    HW255624   0.573   2.320  13.448
84598SOL     OW55625   3.531   3.858  11.396
84598SOL    HW155626   3.453   3.848  11.342
84598SOL    HW255627   3.549   3.952  11.395
84599SOL     OW55628   6.808   0.827   7.874
84599SOL    HW155629   6.874   0.759   7.888
84599SOL    HW255630   6.808   0.841   7.779
84600SOL     OW55631  10.704  11.659   1.892
84600SOL    HW155632  10.799  11.665   1.879
84600SOL    HW255633  10.680  11.575   1.854
84601SOL     OW55634   4.336   0.774   7.909
84601SOL    HW155635   4.410   0.807   7.858
84601SOL    HW255636   4.339   0.679   7.898
84602SOL     OW55637  14.503   3.155   8.921
84602SOL    HW155638  14.516   3.213   8.846
84602SOL    HW255639  14.448   3.206   8.981
84603SOL     OW55640  10.291   4.453   7.788
84603SOL    HW155641  10.288   4.524   7.724
84603SOL    HW255642  10.241   4.382   7.748
84604SOL     OW55643   5.149   4.531   9.347
84604SOL    HW155644   5.152   4.626   9.359
84604SOL    HW255645   5.128   4.497   9.434
84605SOL     OW55646  12.369   8.005   9.377
84605SOL    HW155647  12.290   7.984   9.326
84605SOL    HW255648  12.384   8.098   9.360
84606SOL     OW55649   8.436  13.628   9.685
84606SOL    HW155650   8.489  13.615   9.605
84606SOL    HW255651   8.357  13.577   9.670
84607SOL     OW55652  12.586   2.281   7.265
84607SOL    HW155653  12.612   2.265   7.174
84607SOL    HW255654  12.628   2.211   7.315
84608SOL     OW55655   9.160   9.470   5.931
84608SOL    HW155656   9.236   9.512   5.973
84608SOL    HW255657   9.190   9.381   5.914
84609SOL     OW55658   0.024   6.424  11.243
84609SOL    HW155659   0.007   6.460  11.330
84609SOL    HW255660  14.812   6.409  11.206
84610SOL     OW55661  13.293   1.055   7.909
84610SOL    HW155662  13.319   0.967   7.882
84610SOL    HW255663  13.375   1.102   7.920
84611SOL     OW55664   3.015  13.722  13.239
84611SOL    HW155665   3.024  13.757  13.328
84611SOL    HW255666   2.948  13.777  13.198
84612SOL     OW55667   0.293   6.296   0.149
84612SOL    HW155668   0.278   6.371   0.092
84612SOL    HW255669   0.268   6.327   0.236
84613SOL     OW55670   6.013   5.481  14.593
84613SOL    HW155671   6.104   5.493  14.569
84613SOL    HW255672   5.965   5.485  14.510
84614SOL     OW55673  14.551  13.917  14.609
84614SOL    HW155674  14.547  14.010  14.633
84614SOL    HW255675  14.497  13.873  14.675
84615SOL     OW55676  11.190   4.360   3.340
84615SOL    HW155677  11.172   4.390   3.429
84615SOL    HW255678  11.213   4.440   3.292
84616SOL     OW55679   2.931  13.540   1.410
84616SOL    HW155680   2.924  13.461   1.357
84616SOL    HW255681   2.946  13.508   1.499
84617SOL     OW55682  14.527   9.628  13.973
84617SOL    HW155683  14.502   9.540  14.002
84617SOL    HW255684  14.499   9.686  14.044
84618SOL     OW55685   8.766   4.768   3.491
84618SOL    HW155686   8.683   4.793   3.451
84618SOL    HW255687   8.768   4.672   3.484
84619SOL     OW55688  12.255   9.465  13.527
84619SOL    HW155689  12.180   9.510  13.564
84619SOL    HW255690  12.281   9.518  13.451
84620SOL     OW55691   9.411   5.880   7.626
84620SOL    HW155692   9.454   5.806   7.668
84620SOL    HW255693   9.411   5.949   7.693
84621SOL     OW55694  12.114  10.832   0.415
84621SOL    HW155695  12.090  10.756   0.364
84621SOL    HW255696  12.199  10.859   0.379
84622SOL     OW55697   5.402   9.122  11.061
84622SOL    HW155698   5.492   9.132  11.031
84622SOL    HW255699   5.407   9.129  11.156
84623SOL     OW55700   9.685   5.774   1.690
84623SOL    HW155701   9.662   5.692   1.646
84623SOL    HW255702   9.625   5.779   1.764
84624SOL     OW55703   1.685   3.868  14.567
84624SOL    HW155704   1.673   3.892  14.475
84624SOL    HW255705   1.757   3.804  14.566
84625SOL     OW55706   7.638   1.098   6.775
84625SOL    HW155707   7.652   1.159   6.703
84625SOL    HW255708   7.642   1.012   6.735
84626SOL     OW55709  12.074  10.945  10.854
84626SOL    HW155710  12.071  11.027  10.805
84626SOL    HW255711  11.983  10.915  10.855
84627SOL     OW55712   4.668  12.669  10.483
84627SOL    HW155713   4.662  12.574  10.482
84627SOL    HW255714   4.732  12.690  10.414
84628SOL     OW55715   6.420   5.312   4.446
84628SOL    HW155716   6.475   5.263   4.506
84628SOL    HW255717   6.481   5.360   4.390
84629SOL     OW55718  10.893   0.297  10.639
84629SOL    HW155719  10.852   0.287  10.724
84629SOL    HW255720  10.867   0.218  10.590
84630SOL     OW55721   6.770  14.578  12.846
84630SOL    HW155722   6.826  14.593  12.922
84630SOL    HW255723   6.693  14.532  12.881
84631SOL     OW55724  12.080   5.043   6.913
84631SOL    HW155725  12.022   5.109   6.874
84631SOL    HW255726  12.164   5.054   6.869
84632SOL     OW55727  10.232   0.311  10.284
84632SOL    HW155728  10.301   0.259  10.243
84632SOL    HW255729  10.174   0.247  10.324
84633SOL     OW55730   5.023   5.044   6.875
84633SOL    HW155731   4.974   4.964   6.852
84633SOL    HW255732   5.102   5.012   6.918
84634SOL     OW55733  10.682   8.423   6.220
84634SOL    HW155734  10.640   8.358   6.276
84634SOL    HW255735  10.680   8.504   6.271
84635SOL     OW55736   6.883  11.527   6.407
84635SOL    HW155737   6.958  11.468   6.416
84635SOL    HW255738   6.882  11.550   6.314
84636SOL     OW55739   9.626  14.641   5.565
84636SOL    HW155740   9.561  14.692   5.516
84636SOL    HW255741   9.710  14.676   5.536
84637SOL     OW55742  13.061   7.354   8.439
84637SOL    HW155743  13.048   7.378   8.531
84637SOL    HW255744  12.978   7.315   8.412
84638SOL     OW55745   1.276  11.428   8.633
84638SOL    HW155746   1.251  11.493   8.699
84638SOL    HW255747   1.198  11.372   8.624
84639SOL     OW55748  12.505  11.955  13.657
84639SOL    HW155749  12.588  11.995  13.683
84639SOL    HW255750  12.461  11.935  13.740
84640SOL     OW55751  10.703  11.793   3.659
84640SOL    HW155752  10.775  11.857   3.652
84640SOL    HW255753  10.744  11.714   3.694
84641SOL     OW55754  13.593  14.073  13.525
84641SOL    HW155755  13.674  14.023  13.516
84641SOL    HW255756  13.621  14.160  13.553
84642SOL     OW55757   8.395   7.996  10.144
84642SOL    HW155758   8.413   8.079  10.187
84642SOL    HW255759   8.326   7.956  10.197
84643SOL     OW55760   1.047  13.378   3.854
84643SOL    HW155761   1.019  13.287   3.850
84643SOL    HW255762   1.012  13.418   3.774
84644SOL     OW55763  10.898   7.085   3.956
84644SOL    HW155764  10.947   7.019   3.908
84644SOL    HW255765  10.807   7.058   3.947
84645SOL     OW55766   0.263  10.352   7.085
84645SOL    HW155767   0.307  10.311   7.011
84645SOL    HW255768   0.312  10.325   7.162
84646SOL     OW55769  14.097   9.709   4.034
84646SOL    HW155770  14.149   9.789   4.046
84646SOL    HW255771  14.161   9.638   4.041
84647SOL     OW55772   3.585   0.190  14.839
84647SOL    HW155773   3.598   0.108   0.011
84647SOL    HW255774   3.536   0.246   0.024
84648SOL     OW55775   6.145   5.699   0.480
84648SOL    HW155776   6.076   5.704   0.413
84648SOL    HW255777   6.140   5.610   0.514
84649SOL     OW55778   5.505   1.724   8.464
84649SOL    HW155779   5.524   1.708   8.556
84649SOL    HW255780   5.576   1.680   8.417
84650SOL     OW55781  10.987   8.953   6.055
84650SOL    HW155782  10.937   9.012   6.111
84650SOL    HW255783  11.052   9.010   6.013
84651SOL     OW55784   9.091   4.383   9.526
84651SOL    HW155785   9.108   4.328   9.603
84651SOL    HW255786   9.162   4.362   9.466
84652SOL     OW55787   8.543  11.715   0.284
84652SOL    HW155788   8.548  11.782   0.215
84652SOL    HW255789   8.544  11.632   0.236
84653SOL     OW55790   3.043   9.508   0.385
84653SOL    HW155791   2.958   9.484   0.347
84653SOL    HW255792   3.107   9.474   0.323
84654SOL     OW55793   0.182   3.990   4.751
84654SOL    HW155794   0.119   4.035   4.695
84654SOL    HW255795   0.137   3.911   4.781
84655SOL     OW55796   6.442  13.458  11.401
84655SOL    HW155797   6.419  13.551  11.403
84655SOL    HW255798   6.428  13.432  11.310
84656SOL     OW55799  10.539  12.563  14.774
84656SOL    HW155800  10.454  12.591  14.740
84656SOL    HW255801  10.517  12.506  14.848
84657SOL     OW55802   9.695   2.725   7.880
84657SOL    HW155803   9.766   2.698   7.939
84657SOL    HW255804   9.669   2.645   7.835
84658SOL     OW55805   6.829   9.685   5.874
84658SOL    HW155806   6.741   9.707   5.903
84658SOL    HW255807   6.861   9.622   5.939
84659SOL     OW55808   6.043   8.566   4.564
84659SOL    HW155809   6.092   8.591   4.642
84659SOL    HW255810   5.999   8.647   4.536
84660SOL     OW55811  14.055   0.996   8.038
84660SOL    HW155812  14.046   1.075   7.985
84660SOL    HW255813  13.995   1.009   8.111
84661SOL     OW55814   5.483   1.664   3.646
84661SOL    HW155815   5.514   1.641   3.734
84661SOL    HW255816   5.492   1.759   3.642
84662SOL     OW55817  13.225  12.075   0.715
84662SOL    HW155818  13.269  12.135   0.775
84662SOL    HW255819  13.296  12.026   0.673
84663SOL     OW55820   4.391  10.802  13.978
84663SOL    HW155821   4.332  10.808  14.053
84663SOL    HW255822   4.334  10.808  13.901
84664SOL     OW55823   4.511   4.737   3.400
84664SOL    HW155824   4.576   4.704   3.338
84664SOL    HW255825   4.455   4.794   3.348
84665SOL     OW55826   9.287   6.916   4.972
84665SOL    HW155827   9.325   7.003   4.958
84665SOL    HW255828   9.349   6.856   4.932
84666SOL     OW55829  13.143   5.892   0.949
84666SOL    HW155830  13.055   5.917   0.977
84666SOL    HW255831  13.137   5.799   0.929
84667SOL     OW55832  12.823  14.497   3.911
84667SOL    HW155833  12.757  14.562   3.888
84667SOL    HW255834  12.847  14.518   4.001
84668SOL     OW55835   7.281  12.767   7.825
84668SOL    HW155836   7.213  12.722   7.876
84668SOL    HW255837   7.234  12.817   7.760
84669SOL     OW55838  12.005   8.535   9.513
84669SOL    HW155839  12.081   8.588   9.487
84669SOL    HW255840  11.968   8.504   9.431
84670SOL     OW55841  12.676   0.698  13.878
84670SOL    HW155842  12.752   0.639  13.872
84670SOL    HW255843  12.705   0.779  13.837
84671SOL     OW55844  10.195  13.091   8.406
84671SOL    HW155845  10.185  13.068   8.314
84671SOL    HW255846  10.259  13.028   8.440
84672SOL     OW55847  14.489  12.799   9.293
84672SOL    HW155848  14.440  12.764   9.218
84672SOL    HW255849  14.520  12.721   9.340
84673SOL     OW55850   1.599  14.276   4.734
84673SOL    HW155851   1.552  14.205   4.779
84673SOL    HW255852   1.690  14.245   4.730
84674SOL     OW55853  13.867   6.822   6.225
84674SOL    HW155854  13.922   6.891   6.262
84674SOL    HW255855  13.805   6.801   6.296
84675SOL     OW55856   9.742  11.562   5.171
84675SOL    HW155857   9.789  11.628   5.221
84675SOL    HW255858   9.788  11.559   5.087
84676SOL     OW55859   7.674   9.242   6.304
84676SOL    HW155860   7.661   9.318   6.247
84676SOL    HW255861   7.648   9.168   6.250
84677SOL     OW55862   3.130   6.255   4.006
84677SOL    HW155863   3.187   6.318   3.961
84677SOL    HW255864   3.146   6.271   4.099
84678SOL     OW55865  12.142  11.081  14.869
84678SOL    HW155866  12.228  11.088   0.035
84678SOL    HW255867  12.148  11.003  14.814
84679SOL     OW55868   5.010   9.592  13.919
84679SOL    HW155869   5.060   9.554  13.991
84679SOL    HW255870   4.925   9.614  13.957
84680SOL     OW55871  10.493  12.427   4.661
84680SOL    HW155872  10.479  12.337   4.693
84680SOL    HW255873  10.493  12.419   4.566
84681SOL     OW55874  13.310  11.413  10.111
84681SOL    HW155875  13.333  11.486  10.168
84681SOL    HW255876  13.389  11.359  10.108
84682SOL     OW55877   4.921   3.899  13.031
84682SOL    HW155878   4.919   3.973  13.092
84682SOL    HW255879   5.012   3.895  13.002
84683SOL     OW55880  14.483   5.411   8.324
84683SOL    HW155881  14.456   5.404   8.416
84683SOL    HW255882  14.405   5.443   8.278
84684SOL     OW55883   5.526   0.094  12.341
84684SOL    HW155884   5.496   0.105  12.431
84684SOL    HW255885   5.452   0.052  12.296
84685SOL     OW55886  10.482  12.684   4.771
84685SOL    HW155887  10.414  12.733   4.725
84685SOL    HW255888  10.471  12.594   4.740
84686SOL     OW55889  10.911   3.667   9.929
84686SOL    HW155890  10.984   3.669   9.992
84686SOL    HW255891  10.953   3.652   9.844
84687SOL     OW55892   3.179   2.299  12.379
84687SOL    HW155893   3.176   2.248  12.460
84687SOL    HW255894   3.230   2.376  12.401
84688SOL     OW55895  10.270   8.893   1.502
84688SOL    HW155896  10.175   8.891   1.510
84688SOL    HW255897  10.302   8.896   1.592
84689SOL     OW55898   5.112   8.422   7.424
84689SOL    HW155899   5.193   8.428   7.475
84689SOL    HW255900   5.117   8.337   7.380
84690SOL     OW55901   0.295   0.930   5.340
84690SOL    HW155902   0.380   0.902   5.374
84690SOL    HW255903   0.316   0.979   5.260
84691SOL     OW55904   5.500   3.832  13.020
84691SOL    HW155905   5.438   3.835  13.093
84691SOL    HW255906   5.497   3.920  12.982
84692SOL     OW55907   5.659  10.410   5.883
84692SOL    HW155908   5.575  10.407   5.838
84692SOL    HW255909   5.672  10.502   5.902
84693SOL     OW55910   5.198  12.320  13.552
84693SOL    HW155911   5.125  12.269  13.518
84693SOL    HW255912   5.208  12.290  13.643
84694SOL     OW55913   7.315   5.327   2.913
84694SOL    HW155914   7.296   5.235   2.932
84694SOL    HW255915   7.409   5.328   2.892
84695SOL     OW55916   5.686  13.802   9.726
84695SOL    HW155917   5.626  13.844   9.788
84695SOL    HW255918   5.629  13.769   9.657
84696SOL     OW55919   6.738   9.336   2.369
84696SOL    HW155920   6.782   9.420   2.357
84696SOL    HW255921   6.682   9.349   2.446
84697SOL     OW55922   8.655   6.744   5.689
84697SOL    HW155923   8.711   6.667   5.695
84697SOL    HW255924   8.640   6.770   5.780
84698SOL     OW55925   1.126   6.351   4.616
84698SOL    HW155926   1.204   6.397   4.586
84698SOL    HW255927   1.074   6.337   4.537
84699SOL     OW55928   8.106   7.949  10.243
84699SOL    HW155929   8.106   8.003  10.163
84699SOL    HW255930   8.035   7.984  10.296
84700SOL     OW55931   9.083  11.434   0.783
84700SOL    HW155932   9.088  11.417   0.688
84700SOL    HW255933   8.993  11.411   0.806
84701SOL     OW55934   5.296   3.842  13.190
84701SOL    HW155935   5.277   3.893  13.268
84701SOL    HW255936   5.231   3.870  13.126
84702SOL     OW55937  11.057  13.248   9.188
84702SOL    HW155938  11.127  13.307   9.214
84702SOL    HW255939  11.059  13.247   9.093
84703SOL     OW55940   0.973   6.499  12.702
84703SOL    HW155941   0.947   6.422  12.653
84703SOL    HW255942   0.913   6.568  12.672
84704SOL     OW55943  14.525   3.978   7.336
84704SOL    HW155944  14.435   4.008   7.326
84704SOL    HW255945  14.558   3.970   7.246
84705SOL     OW55946   0.155   5.088   6.461
84705SOL    HW155947   0.158   5.027   6.535
84705SOL    HW255948   0.062   5.109   6.452
84706SOL     OW55949   5.151  11.600   4.703
84706SOL    HW155950   5.089  11.633   4.638
84706SOL    HW255951   5.207  11.675   4.723
84707SOL     OW55952  12.051   6.976   5.879
84707SOL    HW155953  11.959   7.000   5.876
84707SOL    HW255954  12.057   6.909   5.947
84708SOL     OW55955   4.976   4.978   1.364
84708SOL    HW155956   4.914   4.998   1.434
84708SOL    HW255957   5.026   4.903   1.398
84709SOL     OW55958   2.934   9.829   4.419
84709SOL    HW155959   3.014   9.868   4.383
84709SOL    HW255960   2.944   9.837   4.514
84710SOL     OW55961   5.488  11.439   8.534
84710SOL    HW155962   5.438  11.405   8.459
84710SOL    HW255963   5.566  11.383   8.538
84711SOL     OW55964  10.932   8.292   6.102
84711SOL    HW155965  10.862   8.343   6.143
84711SOL    HW255966  10.922   8.309   6.008
84712SOL     OW55967   0.089   9.900   2.695
84712SOL    HW155968   0.031   9.903   2.771
84712SOL    HW255969   0.081   9.810   2.662
84713SOL     OW55970   6.207   0.957   1.351
84713SOL    HW155971   6.283   1.007   1.381
84713SOL    HW255972   6.225   0.867   1.377
84714SOL     OW55973   4.066   5.376   5.990
84714SOL    HW155974   4.071   5.283   5.966
84714SOL    HW255975   4.152   5.412   5.967
84715SOL     OW55976   7.156   5.259   1.657
84715SOL    HW155977   7.153   5.312   1.737
84715SOL    HW255978   7.248   5.255   1.634
84716SOL     OW55979  10.683  13.789  12.540
84716SOL    HW155980  10.708  13.697  12.531
84716SOL    HW255981  10.637  13.793  12.624
84717SOL     OW55982   8.812  13.764   7.980
84717SOL    HW155983   8.788  13.817   7.903
84717SOL    HW255984   8.771  13.810   8.054
84718SOL     OW55985   6.057   0.743   2.670
84718SOL    HW155986   6.103   0.680   2.614
84718SOL    HW255987   5.987   0.777   2.614
84719SOL     OW55988  12.166  14.034   0.294
84719SOL    HW155989  12.223  13.958   0.283
84719SOL    HW255990  12.131  14.051   0.207
84720SOL     OW55991   4.935   8.294   6.926
84720SOL    HW155992   4.995   8.244   6.870
84720SOL    HW255993   4.875   8.336   6.865
84721SOL     OW55994  10.180   1.524  10.981
84721SOL    HW155995  10.104   1.501  11.035
84721SOL    HW255996  10.216   1.440  10.953
84722SOL     OW55997   4.712  10.290   3.675
84722SOL    HW155998   4.682  10.221   3.734
84722SOL    HW255999   4.693  10.256   3.588
84723SOL     OW56000   6.932   0.360  11.090
84723SOL    HW156001   6.978   0.381  11.009
84723SOL    HW256002   6.982   0.288  11.129
84724SOL     OW56003  13.753  14.516   5.582
84724SOL    HW156004  13.746  14.472   5.667
84724SOL    HW256005  13.842  14.496   5.552
84725SOL     OW56006   0.530   7.848  12.571
84725SOL    HW156007   0.508   7.893  12.653
84725SOL    HW256008   0.447   7.848  12.521
84726SOL     OW56009  11.961   4.963   9.777
84726SOL    HW156010  11.909   5.044   9.777
84726SOL    HW256011  11.970   4.940   9.870
84727SOL     OW56012  12.014   8.424   3.409
84727SOL    HW156013  12.058   8.500   3.370
84727SOL    HW256014  11.940   8.406   3.351
84728SOL     OW56015   4.153   2.804   0.922
84728SOL    HW156016   4.192   2.718   0.939
84728SOL    HW256017   4.222   2.853   0.878
84729SOL     OW56018   0.877   1.364  10.271
84729SOL    HW156019   0.879   1.270  10.287
84729SOL    HW256020   0.897   1.404  10.356
84730SOL     OW56021   4.953  13.552   1.051
84730SOL    HW156022   4.858  13.550   1.065
84730SOL    HW256023   4.984  13.623   1.107
84731SOL     OW56024   4.993   6.783  13.922
84731SOL    HW156025   4.910   6.772  13.876
84731SOL    HW256026   5.042   6.845  13.867
84732SOL     OW56027  13.679   6.283  12.044
84732SOL    HW156028  13.713   6.257  11.958
84732SOL    HW256029  13.588   6.253  12.044
84733SOL     OW56030   8.263   1.851   9.138
84733SOL    HW156031   8.353   1.862   9.109
84733SOL    HW256032   8.258   1.759   9.166
84734SOL     OW56033   9.307   3.810  11.251
84734SOL    HW156034   9.376   3.744  11.244
84734SOL    HW256035   9.352   3.893  11.241
84735SOL     OW56036  11.903   3.737   6.772
84735SOL    HW156037  11.952   3.809   6.732
84735SOL    HW256038  11.826   3.726   6.716
84736SOL     OW56039   1.411   6.081   6.823
84736SOL    HW156040   1.318   6.079   6.800
84736SOL    HW256041   1.422   6.161   6.874
84737SOL     OW56042   2.972  14.812  11.085
84737SOL    HW156043   2.973  14.767  11.001
84737SOL    HW256044   3.005  14.748  11.148
84738SOL     OW56045   4.277   3.259   4.564
84738SOL    HW156046   4.290   3.249   4.658
84738SOL    HW256047   4.201   3.317   4.556
84739SOL     OW56048  14.594   5.991   2.714
84739SOL    HW156049  14.555   5.934   2.647
84739SOL    HW256050  14.576   6.080   2.683
84740SOL     OW56051   7.165   7.372   1.738
84740SOL    HW156052   7.234   7.306   1.741
84740SOL    HW256053   7.202   7.443   1.685
84741SOL     OW56054   0.148   4.811   7.763
84741SOL    HW156055   0.088   4.754   7.811
84741SOL    HW256056   0.093   4.856   7.699
84742SOL     OW56057   6.639   4.809  13.183
84742SOL    HW156058   6.662   4.720  13.210
84742SOL    HW256059   6.557   4.826  13.229
84743SOL     OW56060  13.829  12.243   3.618
84743SOL    HW156061  13.739  12.211   3.626
84743SOL    HW256062  13.880  12.165   3.599
84744SOL     OW56063   9.052  14.176   8.697
84744SOL    HW156064   9.002  14.103   8.732
84744SOL    HW256065   9.003  14.205   8.621
84745SOL     OW56066   8.304  12.575   8.457
84745SOL    HW156067   8.352  12.528   8.389
84745SOL    HW256068   8.271  12.506   8.515
84746SOL     OW56069   4.139   4.575   0.191
84746SOL    HW156070   4.219   4.553   0.145
84746SOL    HW256071   4.157   4.659   0.233
84747SOL     OW56072   3.519   8.221   0.106
84747SOL    HW156073   3.492   8.230   0.014
84747SOL    HW256074   3.588   8.154   0.104
84748SOL     OW56075  12.733  12.921   2.535
84748SOL    HW156076  12.664  12.863   2.566
84748SOL    HW256077  12.774  12.954   2.615
84749SOL     OW56078   2.373  14.630   7.180
84749SOL    HW156079   2.443  14.584   7.226
84749SOL    HW256080   2.313  14.659   7.249
84750SOL     OW56081  12.760   7.712  11.311
84750SOL    HW156082  12.670   7.699  11.340
84750SOL    HW256083  12.793   7.784  11.365
84751SOL     OW56084  14.485   5.480   0.051
84751SOL    HW156085  14.510   5.554   0.105
84751SOL    HW256086  14.489   5.513  14.837
84752SOL     OW56087   9.302  14.113   2.613
84752SOL    HW156088   9.374  14.078   2.562
84752SOL    HW256089   9.344  14.171   2.677
84753SOL     OW56090   5.389  11.288   3.925
84753SOL    HW156091   5.295  11.305   3.931
84753SOL    HW256092   5.418  11.279   4.015
84754SOL     OW56093   2.657   2.618   8.543
84754SOL    HW156094   2.740   2.583   8.511
84754SOL    HW256095   2.591   2.582   8.483
84755SOL     OW56096   5.399  13.968   6.633
84755SOL    HW156097   5.407  13.934   6.544
84755SOL    HW256098   5.429  14.059   6.627
84756SOL     OW56099   8.060  14.594   9.994
84756SOL    HW156100   8.062  14.522  10.057
84756SOL    HW256101   8.021  14.667  10.042
84757SOL     OW56102  11.786   3.237   7.458
84757SOL    HW156103  11.767   3.211   7.367
84757SOL    HW256104  11.702   3.270   7.490
84758SOL     OW56105   1.988   4.154  12.793
84758SOL    HW156106   1.949   4.215  12.856
84758SOL    HW256107   2.046   4.099  12.845
84759SOL     OW56108   4.284   1.079  13.411
84759SOL    HW156109   4.258   1.052  13.323
84759SOL    HW256110   4.232   1.158  13.427
84760SOL     OW56111   9.368   1.145  10.697
84760SOL    HW156112   9.374   1.209  10.626
84760SOL    HW256113   9.414   1.186  10.771
84761SOL     OW56114   0.041   0.781   1.127
84761SOL    HW156115   0.123   0.780   1.078
84761SOL    HW256116  14.868   0.855   1.090
84762SOL     OW56117   3.517   9.361   2.864
84762SOL    HW156118   3.492   9.291   2.802
84762SOL    HW256119   3.593   9.326   2.910
84763SOL     OW56120   5.663  10.086   6.579
84763SOL    HW156121   5.593  10.097   6.644
84763SOL    HW256122   5.743  10.111   6.626
84764SOL     OW56123   7.890   7.485   9.515
84764SOL    HW156124   7.908   7.473   9.422
84764SOL    HW256125   7.811   7.432   9.531
84765SOL     OW56126  14.707   3.670   5.992
84765SOL    HW156127  14.779   3.657   6.054
84765SOL    HW256128  14.728   3.614   5.918
84766SOL     OW56129   2.714   8.396  13.772
84766SOL    HW156130   2.804   8.389  13.740
84766SOL    HW256131   2.723   8.396  13.867
84767SOL     OW56132   3.433   4.239  12.175
84767SOL    HW156133   3.467   4.316  12.130
84767SOL    HW256134   3.370   4.201  12.114
84768SOL     OW56135   6.398   1.349  10.346
84768SOL    HW156136   6.345   1.420  10.382
84768SOL    HW256137   6.335   1.280  10.325
84769SOL     OW56138   7.867   8.057   7.309
84769SOL    HW156139   7.793   8.117   7.319
84769SOL    HW256140   7.885   8.026   7.398
84770SOL     OW56141   8.721  10.584  12.892
84770SOL    HW156142   8.760  10.584  12.979
84770SOL    HW256143   8.636  10.628  12.903
84771SOL     OW56144   5.118  10.043   8.991
84771SOL    HW156145   5.102  10.136   8.977
84771SOL    HW256146   5.132  10.008   8.903
84772SOL     OW56147   3.550   0.819   8.500
84772SOL    HW156148   3.473   0.819   8.557
84772SOL    HW256149   3.581   0.729   8.502
84773SOL     OW56150  14.791   7.090   2.510
84773SOL    HW156151  14.863   7.034   2.538
84773SOL    HW256152  14.712   7.044   2.538
84774SOL     OW56153   3.748  11.529  13.984
84774SOL    HW156154   3.687  11.487  13.924
84774SOL    HW256155   3.739  11.623  13.967
84775SOL     OW56156   6.542  14.010   5.591
84775SOL    HW156157   6.568  14.076   5.655
84775SOL    HW256158   6.523  13.932   5.642
84776SOL     OW56159   1.341  11.570   2.739
84776SOL    HW156160   1.416  11.528   2.782
84776SOL    HW256161   1.305  11.503   2.681
84777SOL     OW56162   0.896  10.605   9.521
84777SOL    HW156163   0.809  10.599   9.482
84777SOL    HW256164   0.956  10.600   9.446
84778SOL     OW56165   2.200   9.440  10.594
84778SOL    HW156166   2.288   9.451  10.559
84778SOL    HW256167   2.142   9.467  10.523
84779SOL     OW56168   7.823   0.731   2.876
84779SOL    HW156169   7.733   0.748   2.904
84779SOL    HW256170   7.875   0.801   2.915
84780SOL     OW56171   9.075  10.512   4.379
84780SOL    HW156172   9.061  10.420   4.403
84780SOL    HW256173   9.053  10.561   4.457
84781SOL     OW56174   3.436   6.777   0.301
84781SOL    HW156175   3.478   6.691   0.295
84781SOL    HW256176   3.509   6.839   0.303
84782SOL     OW56177   2.338   8.210   7.282
84782SOL    HW156178   2.390   8.248   7.353
84782SOL    HW256179   2.318   8.285   7.225
84783SOL     OW56180   2.802  14.001  10.930
84783SOL    HW156181   2.716  14.017  10.892
84783SOL    HW256182   2.857  13.978  10.854
84784SOL     OW56183   0.200   2.031   7.212
84784SOL    HW156184   0.180   1.940   7.188
84784SOL    HW256185   0.122   2.061   7.259
84785SOL     OW56186   0.112  14.677   6.198
84785SOL    HW156187   0.035  14.728   6.173
84785SOL    HW256188   0.131  14.704   6.288
84786SOL     OW56189   6.605   3.870   6.986
84786SOL    HW156190   6.699   3.873   7.000
84786SOL    HW256191   6.567   3.875   7.074
84787SOL     OW56192   8.056   0.739  11.713
84787SOL    HW156193   8.126   0.712  11.654
84787SOL    HW256194   8.087   0.819  11.754
84788SOL     OW56195   4.791   3.090   1.723
84788SOL    HW156196   4.818   3.179   1.745
84788SOL    HW256197   4.846   3.067   1.648
84789SOL     OW56198   1.726  14.797   9.355
84789SOL    HW156199   1.696  14.713   9.320
84789SOL    HW256200   1.660  14.860   9.325
84790SOL     OW56201   4.229  14.161  13.383
84790SOL    HW156202   4.220  14.206  13.467
84790SOL    HW256203   4.317  14.182  13.353
84791SOL     OW56204   9.819   2.149   0.259
84791SOL    HW156205   9.813   2.054   0.264
84791SOL    HW256206   9.841   2.177   0.348
84792SOL     OW56207   4.716   3.648   7.022
84792SOL    HW156208   4.648   3.589   7.055
84792SOL    HW256209   4.790   3.635   7.082
84793SOL     OW56210   6.569   0.879  10.727
84793SOL    HW156211   6.643   0.921  10.771
84793SOL    HW256212   6.556   0.797  10.774
84794SOL     OW56213   8.038   4.718   9.282
84794SOL    HW156214   8.105   4.671   9.232
84794SOL    HW256215   8.080   4.735   9.367
84795SOL     OW56216  13.466   2.069   5.679
84795SOL    HW156217  13.413   2.046   5.755
84795SOL    HW256218  13.516   1.990   5.659
84796SOL     OW56219   3.333   5.958   8.380
84796SOL    HW156220   3.378   5.887   8.426
84796SOL    HW256221   3.380   5.966   8.297
84797SOL     OW56222   7.372   9.252   6.079
84797SOL    HW156223   7.346   9.323   6.138
84797SOL    HW256224   7.327   9.175   6.112
84798SOL     OW56225   1.527   4.566  13.931
84798SOL    HW156226   1.488   4.599  14.012
84798SOL    HW256227   1.485   4.618  13.862
84799SOL     OW56228   8.035  14.567  11.704
84799SOL    HW156229   8.089  14.489  11.694
84799SOL    HW256230   7.950  14.533  11.733
84800SOL     OW56231   6.672  12.696   4.073
84800SOL    HW156232   6.674  12.627   4.007
84800SOL    HW256233   6.761  12.730   4.075
84801SOL     OW56234  13.026  13.825   6.398
84801SOL    HW156235  13.012  13.799   6.307
84801SOL    HW256236  12.938  13.841   6.433
84802SOL     OW56237  12.492   9.031  12.191
84802SOL    HW156238  12.402   9.057  12.172
84802SOL    HW256239  12.525   9.099  12.250
84803SOL     OW56240  12.957   9.666   0.456
84803SOL    HW156241  12.882   9.725   0.462
84803SOL    HW256242  12.919   9.578   0.464
84804SOL     OW56243  14.609  14.097   4.808
84804SOL    HW156244  14.627  14.027   4.745
84804SOL    HW256245  14.637  14.061   4.892
84805SOL     OW56246   0.842   8.882   3.873
84805SOL    HW156247   0.918   8.897   3.816
84805SOL    HW256248   0.774   8.940   3.838
84806SOL     OW56249   9.634   8.983   0.332
84806SOL    HW156250   9.577   9.037   0.387
84806SOL    HW256251   9.650   8.905   0.384
84807SOL     OW56252   1.912   7.706   4.514
84807SOL    HW156253   2.002   7.688   4.541
84807SOL    HW256254   1.876   7.620   4.491
84808SOL     OW56255  10.522   4.930  13.469
84808SOL    HW156256  10.454   4.973  13.520
84808SOL    HW256257  10.500   4.837  13.473
84809SOL     OW56258  12.924   0.171  12.086
84809SOL    HW156259  12.836   0.154  12.053
84809SOL    HW256260  12.935   0.109  12.159
84810SOL     OW56261   5.236  10.749   1.261
84810SOL    HW156262   5.293  10.708   1.326
84810SOL    HW256263   5.295  10.774   1.190
84811SOL     OW56264  10.804   5.138   1.098
84811SOL    HW156265  10.798   5.066   1.161
84811SOL    HW256266  10.729   5.125   1.040
84812SOL     OW56267   4.699   7.862   8.633
84812SOL    HW156268   4.750   7.854   8.714
84812SOL    HW256269   4.721   7.949   8.599
84813SOL     OW56270   8.290   9.423   5.030
84813SOL    HW156271   8.262   9.456   5.115
84813SOL    HW256272   8.208   9.394   4.988
84814SOL     OW56273   0.653   1.359   8.146
84814SOL    HW156274   0.603   1.282   8.121
84814SOL    HW256275   0.587   1.423   8.172
84815SOL     OW56276  11.689   9.657   4.024
84815SOL    HW156277  11.761   9.630   4.081
84815SOL    HW256278  11.727   9.724   3.967
84816SOL     OW56279   1.975   7.293   5.662
84816SOL    HW156280   1.917   7.221   5.638
84816SOL    HW256281   2.063   7.262   5.640
84817SOL     OW56282   9.886   9.115  11.204
84817SOL    HW156283   9.850   9.059  11.273
84817SOL    HW256284   9.842   9.199  11.216
84818SOL     OW56285   6.164  10.625   7.206
84818SOL    HW156286   6.192  10.577   7.129
84818SOL    HW256287   6.226  10.598   7.275
84819SOL     OW56288   3.135   0.268   1.804
84819SOL    HW156289   3.147   0.205   1.734
84819SOL    HW256290   3.153   0.219   1.884
84820SOL     OW56291   0.476  10.439   3.348
84820SOL    HW156292   0.458  10.426   3.255
84820SOL    HW256293   0.565  10.476   3.350
84821SOL     OW56294   2.550   8.716   5.924
84821SOL    HW156295   2.520   8.671   6.003
84821SOL    HW256296   2.630   8.760   5.950
84822SOL     OW56297  13.514  10.917   8.076
84822SOL    HW156298  13.599  10.912   8.121
84822SOL    HW256299  13.495  10.826   8.051
84823SOL     OW56300   7.205   3.705  12.385
84823SOL    HW156301   7.131   3.723  12.328
84823SOL    HW256302   7.204   3.777  12.449
84824SOL     OW56303   3.612   5.571   5.082
84824SOL    HW156304   3.542   5.506   5.074
84824SOL    HW256305   3.631   5.597   4.992
84825SOL     OW56306  10.068   6.571   0.632
84825SOL    HW156307  10.137   6.561   0.567
84825SOL    HW256308  10.029   6.656   0.614
84826SOL     OW56309  12.753   3.592   4.423
84826SOL    HW156310  12.721   3.543   4.498
84826SOL    HW256311  12.839   3.553   4.404
84827SOL     OW56312   7.765   3.671   6.541
84827SOL    HW156313   7.694   3.734   6.553
84827SOL    HW256314   7.758   3.645   6.449
84828SOL     OW56315   3.040   5.648   7.527
84828SOL    HW156316   3.094   5.706   7.581
84828SOL    HW256317   3.062   5.671   7.437
84829SOL     OW56318   6.057   3.109   1.250
84829SOL    HW156319   6.110   3.125   1.172
84829SOL    HW256320   5.971   3.083   1.216
84830SOL     OW56321  13.864  14.114   6.182
84830SOL    HW156322  13.799  14.182   6.163
84830SOL    HW256323  13.874  14.116   6.277
84831SOL     OW56324   1.552   1.278   0.048
84831SOL    HW156325   1.547   1.367   0.012
84831SOL    HW256326   1.539   1.221  14.849
84832SOL     OW56327  13.480  14.004   8.427
84832SOL    HW156328  13.559  13.950   8.429
84832SOL    HW256329  13.475  14.036   8.337
84833SOL     OW56330   0.236  13.851   1.065
84833SOL    HW156331   0.200  13.762   1.060
84833SOL    HW256332   0.183  13.901   1.003
84834SOL     OW56333   9.416   5.335   6.595
84834SOL    HW156334   9.510   5.335   6.613
84834SOL    HW256335   9.391   5.427   6.593
84835SOL     OW56336  12.667   9.017   0.893
84835SOL    HW156337  12.613   8.939   0.875
84835SOL    HW256338  12.704   9.001   0.979
84836SOL     OW56339   2.214  10.546   5.204
84836SOL    HW156340   2.197  10.496   5.284
84836SOL    HW256341   2.281  10.610   5.230
84837SOL     OW56342  12.665   6.869  10.448
84837SOL    HW156343  12.687   6.872  10.541
84837SOL    HW256344  12.653   6.776  10.429
84838SOL     OW56345   4.933   0.938   5.365
84838SOL    HW156346   4.990   0.934   5.288
84838SOL    HW256347   4.853   0.892   5.339
84839SOL     OW56348   3.204   8.857   1.454
84839SOL    HW156349   3.119   8.888   1.486
84839SOL    HW256350   3.244   8.935   1.415
84840SOL     OW56351  14.576  12.304   8.458
84840SOL    HW156352  14.606  12.232   8.402
84840SOL    HW256353  14.609  12.383   8.415
84841SOL     OW56354   0.233   0.959   7.072
84841SOL    HW156355   0.180   0.936   7.148
84841SOL    HW256356   0.212   0.891   7.007
84842SOL     OW56357   3.082   4.013   2.469
84842SOL    HW156358   3.121   4.016   2.382
84842SOL    HW256359   3.149   4.051   2.526
84843SOL     OW56360  14.357   9.274   4.324
84843SOL    HW156361  14.296   9.208   4.292
84843SOL    HW256362  14.337   9.281   4.417
84844SOL     OW56363   1.695   7.849  14.822
84844SOL    HW156364   1.724   7.803  14.743
84844SOL    HW256365   1.603   7.869  14.805
84845SOL     OW56366   0.826   9.105  11.926
84845SOL    HW156367   0.768   9.064  11.862
84845SOL    HW256368   0.890   9.153  11.874
84846SOL     OW56369   1.751   2.716   5.373
84846SOL    HW156370   1.716   2.759   5.295
84846SOL    HW256371   1.675   2.698   5.428
84847SOL     OW56372   6.719   9.636   1.896
84847SOL    HW156373   6.697   9.719   1.937
84847SOL    HW256374   6.639   9.583   1.902
84848SOL     OW56375  10.921  10.514  12.954
84848SOL    HW156376  10.923  10.605  12.983
84848SOL    HW256377  11.007  10.480  12.976
84849SOL     OW56378  13.032   5.536  10.639
84849SOL    HW156379  13.126   5.519  10.641
84849SOL    HW256380  12.992   5.454  10.666
84850SOL     OW56381   6.353  13.980   5.041
84850SOL    HW156382   6.344  14.004   5.134
84850SOL    HW256383   6.438  14.016   5.015
84851SOL     OW56384  12.320   7.411   8.504
84851SOL    HW156385  12.365   7.413   8.589
84851SOL    HW256386  12.227   7.413   8.527
84852SOL     OW56387   5.416  10.256   0.271
84852SOL    HW156388   5.430  10.266   0.177
84852SOL    HW256389   5.441  10.165   0.290
84853SOL     OW56390   7.748  12.865  13.240
84853SOL    HW156391   7.682  12.803  13.207
84853SOL    HW256392   7.805  12.811  13.295
84854SOL     OW56393   4.438   7.611  14.061
84854SOL    HW156394   4.425   7.678  13.994
84854SOL    HW256395   4.368   7.626  14.125
84855SOL     OW56396   7.052   9.900   5.008
84855SOL    HW156397   7.127   9.870   5.060
84855SOL    HW256398   7.056   9.995   5.013
84856SOL     OW56399  11.864  13.112   0.376
84856SOL    HW156400  11.836  13.189   0.425
84856SOL    HW256401  11.869  13.141   0.285
84857SOL     OW56402  13.840  12.957   4.566
84857SOL    HW156403  13.922  12.915   4.541
84857SOL    HW256404  13.839  13.040   4.519
84858SOL     OW56405   9.463   9.325  13.743
84858SOL    HW156406   9.373   9.356  13.758
84858SOL    HW256407   9.519   9.397  13.774
84859SOL     OW56408   8.629  12.493   1.347
84859SOL    HW156409   8.568  12.489   1.420
84859SOL    HW256410   8.707  12.536   1.383
84860SOL     OW56411  11.350   3.877   5.337
84860SOL    HW156412  11.270   3.833   5.309
84860SOL    HW256413  11.410   3.868   5.262
84861SOL     OW56414  12.213   9.407   9.240
84861SOL    HW156415  12.217   9.379   9.149
84861SOL    HW256416  12.294   9.456   9.253
84862SOL     OW56417   1.113   1.166   3.861
84862SOL    HW156418   1.140   1.189   3.772
84862SOL    HW256419   1.123   1.246   3.911
84863SOL     OW56420   6.633   5.869   2.146
84863SOL    HW156421   6.658   5.778   2.132
84863SOL    HW256422   6.609   5.902   2.059
84864SOL     OW56423   8.369  11.933  11.084
84864SOL    HW156424   8.440  11.899  11.138
84864SOL    HW256425   8.289  11.910  11.132
84865SOL     OW56426  11.705   0.223  12.944
84865SOL    HW156427  11.787   0.183  12.915
84865SOL    HW256428  11.647   0.148  12.961
84866SOL     OW56429   9.908   9.590   0.480
84866SOL    HW156430   9.864   9.508   0.501
84866SOL    HW256431   9.996   9.564   0.453
84867SOL     OW56432   9.263   5.019  14.338
84867SOL    HW156433   9.197   4.972  14.388
84867SOL    HW256434   9.255   5.110  14.367
84868SOL     OW56435   0.637   5.274   7.369
84868SOL    HW156436   0.688   5.245   7.444
84868SOL    HW256437   0.699   5.270   7.295
84869SOL     OW56438   8.718   3.239  10.971
84869SOL    HW156439   8.731   3.299  10.898
84869SOL    HW256440   8.670   3.166  10.934
84870SOL     OW56441   8.618   3.686  13.044
84870SOL    HW156442   8.555   3.618  13.067
84870SOL    HW256443   8.694   3.638  13.011
84871SOL     OW56444   3.401   3.298   0.292
84871SOL    HW156445   3.487   3.339   0.295
84871SOL    HW256446   3.395   3.259   0.205
84872SOL     OW56447   2.719   9.766  10.955
84872SOL    HW156448   2.643   9.808  10.913
84872SOL    HW256449   2.684   9.685  10.992
84873SOL     OW56450   7.039   1.145   2.818
84873SOL    HW156451   7.042   1.101   2.733
84873SOL    HW256452   7.081   1.229   2.803
84874SOL     OW56453   3.379  14.067   8.093
84874SOL    HW156454   3.385  14.162   8.092
84874SOL    HW256455   3.439  14.039   8.023
84875SOL     OW56456   5.134  12.848  12.878
84875SOL    HW156457   5.135  12.918  12.943
84875SOL    HW256458   5.210  12.794  12.900
84876SOL     OW56459   1.425   4.790   5.377
84876SOL    HW156460   1.418   4.879   5.413
84876SOL    HW256461   1.507   4.791   5.328
84877SOL     OW56462   4.490  10.203   9.681
84877SOL    HW156463   4.405  10.234   9.711
84877SOL    HW256464   4.532  10.281   9.644
84878SOL     OW56465   8.745  10.232  12.585
84878SOL    HW156466   8.697  10.240  12.503
84878SOL    HW256467   8.679  10.204  12.649
84879SOL     OW56468  12.316  12.465  10.242
84879SOL    HW156469  12.288  12.526  10.173
84879SOL    HW256470  12.344  12.522  10.314
84880SOL     OW56471  13.797   0.745   7.475
84880SOL    HW156472  13.869   0.682   7.480
84880SOL    HW256473  13.719   0.691   7.464
84881SOL     OW56474   8.295   4.655   2.251
84881SOL    HW156475   8.382   4.643   2.212
84881SOL    HW256476   8.272   4.569   2.284
84882SOL     OW56477   0.584   1.101   0.855
84882SOL    HW156478   0.527   1.070   0.926
84882SOL    HW256479   0.561   1.193   0.845
84883SOL     OW56480   4.559   2.472   4.070
84883SOL    HW156481   4.579   2.561   4.042
84883SOL    HW256482   4.580   2.418   3.994
84884SOL     OW56483   7.302  12.313   9.633
84884SOL    HW156484   7.366  12.377   9.602
84884SOL    HW256485   7.219  12.361   9.637
84885SOL     OW56486  11.942  14.014  10.199
84885SOL    HW156487  11.911  13.953  10.267
84885SOL    HW256488  11.897  13.985  10.120
84886SOL     OW56489  14.395   1.740   7.646
84886SOL    HW156490  14.342   1.774   7.574
84886SOL    HW256491  14.331   1.712   7.712
84887SOL     OW56492   3.324  11.911   1.094
84887SOL    HW156493   3.262  11.906   1.021
84887SOL    HW256494   3.382  11.836   1.081
84888SOL     OW56495   5.255  12.653  14.223
84888SOL    HW156496   5.168  12.690  14.206
84888SOL    HW256497   5.294  12.714  14.286
84889SOL     OW56498  10.273   1.960  13.485
84889SOL    HW156499  10.316   1.927  13.564
84889SOL    HW256500  10.275   1.886  13.425
84890SOL     OW56501  11.906  11.170   1.217
84890SOL    HW156502  11.896  11.161   1.122
84890SOL    HW256503  11.951  11.090   1.244
84891SOL     OW56504   6.219   4.827   9.986
84891SOL    HW156505   6.292   4.859  10.040
84891SOL    HW256506   6.250   4.838   9.896
84892SOL     OW56507   7.370   3.591   6.188
84892SOL    HW156508   7.307   3.608   6.117
84892SOL    HW256509   7.341   3.507   6.225
84893SOL     OW56510   2.351   4.296   0.003
84893SOL    HW156511   2.382   4.380   0.036
84893SOL    HW256512   2.380   4.295  14.788
84894SOL     OW56513   5.472  11.442  13.146
84894SOL    HW156514   5.387  11.406  13.172
84894SOL    HW256515   5.512  11.470  13.229
84895SOL     OW56516   9.591  11.269   4.844
84895SOL    HW156517   9.496  11.252   4.843
84895SOL    HW256518   9.631  11.183   4.854
84896SOL     OW56519  13.458   7.688   3.817
84896SOL    HW156520  13.448   7.740   3.897
84896SOL    HW256521  13.424   7.744   3.747
84897SOL     OW56522   4.777  11.678   8.676
84897SOL    HW156523   4.733  11.723   8.603
84897SOL    HW256524   4.836  11.744   8.712
84898SOL     OW56525   3.453  13.093   4.755
84898SOL    HW156526   3.533  13.115   4.801
84898SOL    HW256527   3.480  13.030   4.688
84899SOL     OW56528   7.677  12.645   0.006
84899SOL    HW156529   7.599  12.691  14.850
84899SOL    HW256530   7.749  12.704  14.862
84900SOL     OW56531   3.130   2.012   1.345
84900SOL    HW156532   3.186   2.089   1.355
84900SOL    HW256533   3.131   1.994   1.251
84901SOL     OW56534  12.144  11.278   1.459
84901SOL    HW156535  12.214  11.314   1.513
84901SOL    HW256536  12.158  11.318   1.373
84902SOL     OW56537   6.459   0.768   5.808
84902SOL    HW156538   6.413   0.730   5.733
84902SOL    HW256539   6.491   0.852   5.776
84903SOL     OW56540   3.384  11.103   4.605
84903SOL    HW156541   3.465  11.110   4.655
84903SOL    HW256542   3.315  11.095   4.672
84904SOL     OW56543   7.728  13.501   9.315
84904SOL    HW156544   7.765  13.588   9.328
84904SOL    HW256545   7.799  13.451   9.273
84905SOL     OW56546   9.018   5.779  14.532
84905SOL    HW156547   8.969   5.847  14.577
84905SOL    HW256548   8.987   5.783  14.441
84906SOL     OW56549   9.896   1.784   5.936
84906SOL    HW156550   9.932   1.808   5.851
84906SOL    HW256551   9.805   1.814   5.933
84907SOL     OW56552   0.304  12.987   1.285
84907SOL    HW156553   0.252  13.038   1.348
84907SOL    HW256554   0.386  12.969   1.332
84908SOL     OW56555  12.441  13.655  14.310
84908SOL    HW156556  12.401  13.568  14.318
84908SOL    HW256557  12.531  13.641  14.340
84909SOL     OW56558   6.087  14.425  13.407
84909SOL    HW156559   6.053  14.487  13.472
84909SOL    HW256560   6.182  14.433  13.413
84910SOL     OW56561   2.808  14.326  14.377
84910SOL    HW156562   2.851  14.403  14.415
84910SOL    HW256563   2.782  14.353  14.289
84911SOL     OW56564   1.580   2.919   0.151
84911SOL    HW156565   1.627   2.842   0.121
84911SOL    HW256566   1.647   2.974   0.192
84912SOL     OW56567   4.835  14.161  12.558
84912SOL    HW156568   4.804  14.218  12.488
84912SOL    HW256569   4.904  14.109  12.518
84913SOL     OW56570   2.964   5.734   2.228
84913SOL    HW156571   2.936   5.744   2.137
84913SOL    HW256572   2.936   5.815   2.271
84914SOL     OW56573   8.442   8.081  11.015
84914SOL    HW156574   8.519   8.118  10.973
84914SOL    HW256575   8.412   8.012  10.955
84915SOL     OW56576   7.545  11.649   4.527
84915SOL    HW156577   7.521  11.569   4.481
84915SOL    HW256578   7.621  11.683   4.479
84916SOL     OW56579   7.113   6.391  10.191
84916SOL    HW156580   7.059   6.332  10.139
84916SOL    HW256581   7.075   6.389  10.279
84917SOL     OW56582   1.523   8.270   3.116
84917SOL    HW156583   1.490   8.331   3.050
84917SOL    HW256584   1.449   8.212   3.133
84918SOL     OW56585   2.938   4.660   1.389
84918SOL    HW156586   2.997   4.602   1.341
84918SOL    HW256587   2.873   4.687   1.324
84919SOL     OW56588   2.356  10.126  12.049
84919SOL    HW156589   2.289  10.163  11.991
84919SOL    HW256590   2.434  10.180  12.033
84920SOL     OW56591   9.430  13.825   4.611
84920SOL    HW156592   9.470  13.911   4.596
84920SOL    HW256593   9.367  13.815   4.541
84921SOL     OW56594   1.050  10.734   0.688
84921SOL    HW156595   1.136  10.697   0.710
84921SOL    HW256596   0.987  10.674   0.727
84922SOL     OW56597   4.574  10.845  10.452
84922SOL    HW156598   4.652  10.878  10.408
84922SOL    HW256599   4.567  10.897  10.532
84923SOL     OW56600   4.927  10.616   2.984
84923SOL    HW156601   5.001  10.677   2.978
84923SOL    HW256602   4.866  10.646   2.917
84924SOL     OW56603   2.248   4.758  14.787
84924SOL    HW156604   2.158   4.729  14.796
84924SOL    HW256605   2.246   4.851  14.810
84925SOL     OW56606   4.107  11.920  13.946
84925SOL    HW156607   4.059  11.896  14.026
84925SOL    HW256608   4.040  11.919  13.877
84926SOL     OW56609  13.695   1.242  12.242
84926SOL    HW156610  13.696   1.206  12.154
84926SOL    HW256611  13.750   1.182  12.293
84927SOL     OW56612  12.703  12.210  13.943
84927SOL    HW156613  12.766  12.231  14.012
84927SOL    HW256614  12.671  12.295  13.912
84928SOL     OW56615   0.359   0.273   7.692
84928SOL    HW156616   0.398   0.359   7.676
84928SOL    HW256617   0.278   0.292   7.740
84929SOL     OW56618   2.910   1.080   4.046
84929SOL    HW156619   2.925   1.078   3.951
84929SOL    HW256620   2.923   1.172   4.069
84930SOL     OW56621   9.669   5.716   5.939
84930SOL    HW156622   9.631   5.739   5.854
84930SOL    HW256623   9.747   5.771   5.946
84931SOL     OW56624   1.050   6.172   7.993
84931SOL    HW156625   1.091   6.207   8.072
84931SOL    HW256626   1.121   6.168   7.929
84932SOL     OW56627   0.880   4.588   6.229
84932SOL    HW156628   0.882   4.645   6.306
84932SOL    HW256629   0.971   4.562   6.216
84933SOL     OW56630  10.215   1.101   1.580
84933SOL    HW156631  10.213   1.039   1.507
84933SOL    HW256632  10.278   1.168   1.553
84934SOL     OW56633  14.558   5.337   1.809
84934SOL    HW156634  14.521   5.414   1.852
84934SOL    HW256635  14.648   5.333   1.841
84935SOL     OW56636   0.727   3.529   4.888
84935SOL    HW156637   0.789   3.500   4.821
84935SOL    HW256638   0.780   3.537   4.968
84936SOL     OW56639   5.296   6.161   4.618
84936SOL    HW156640   5.385   6.190   4.638
84936SOL    HW256641   5.291   6.163   4.523
84937SOL     OW56642   5.701  13.421  10.953
84937SOL    HW156643   5.686  13.353  10.887
84937SOL    HW256644   5.723  13.499  10.902
84938SOL     OW56645  11.181   1.629   9.220
84938SOL    HW156646  11.190   1.685   9.297
84938SOL    HW256647  11.090   1.602   9.220
84939SOL     OW56648   1.577   2.896   7.985
84939SOL    HW156649   1.510   2.889   7.917
84939SOL    HW256650   1.621   2.980   7.966
84940SOL     OW56651   5.998   7.003  11.871
84940SOL    HW156652   5.941   6.988  11.946
84940SOL    HW256653   5.974   7.091  11.840
84941SOL     OW56654   4.532   6.662   2.907
84941SOL    HW156655   4.504   6.740   2.954
84941SOL    HW256656   4.476   6.660   2.829
84942SOL     OW56657   9.767   8.663  10.080
84942SOL    HW156658   9.837   8.674  10.016
84942SOL    HW256659   9.793   8.717  10.154
84943SOL     OW56660  12.334   6.651  11.760
84943SOL    HW156661  12.377   6.736  11.753
84943SOL    HW256662  12.326   6.636  11.854
84944SOL     OW56663   4.775  12.219   0.341
84944SOL    HW156664   4.684  12.195   0.328
84944SOL    HW256665   4.788  12.214   0.436
84945SOL     OW56666   6.415   9.826  13.627
84945SOL    HW156667   6.431   9.886  13.700
84945SOL    HW256668   6.417   9.739  13.666
84946SOL     OW56669   9.233  10.492  12.190
84946SOL    HW156670   9.312  10.487  12.243
84946SOL    HW256671   9.191  10.407  12.201
84947SOL     OW56672  11.421  13.892   1.697
84947SOL    HW156673  11.327  13.876   1.706
84947SOL    HW256674  11.461  13.805   1.703
84948SOL     OW56675   5.596   5.930   2.091
84948SOL    HW156676   5.634   5.842   2.094
84948SOL    HW256677   5.668   5.986   2.060
84949SOL     OW56678   9.099  10.083   6.084
84949SOL    HW156679   9.113  10.078   5.989
84949SOL    HW256680   9.161  10.020   6.121
84950SOL     OW56681   1.329   9.098  11.900
84950SOL    HW156682   1.282   9.174  11.933
84950SOL    HW256683   1.278   9.069  11.825
84951SOL     OW56684  10.905   1.085   6.365
84951SOL    HW156685  10.846   1.013   6.340
84951SOL    HW256686  10.884   1.155   6.303
84952SOL     OW56687  12.399   2.169   1.307
84952SOL    HW156688  12.305   2.170   1.323
84952SOL    HW256689  12.438   2.153   1.393
84953SOL     OW56690  10.638  14.576  11.069
84953SOL    HW156691  10.585  14.498  11.084
84953SOL    HW256692  10.727  14.548  11.090
84954SOL     OW56693   7.036  12.706   7.993
84954SOL    HW156694   7.078  12.780   8.035
84954SOL    HW256695   7.009  12.649   8.065
84955SOL     OW56696   4.015   1.716   8.319
84955SOL    HW156697   4.050   1.687   8.234
84955SOL    HW256698   3.922   1.695   8.315
84956SOL     OW56699   7.031   4.439  13.239
84956SOL    HW156700   6.982   4.514  13.208
84956SOL    HW256701   6.993   4.418  13.324
84957SOL     OW56702   6.196  11.666   8.847
84957SOL    HW156703   6.140  11.675   8.769
84957SOL    HW256704   6.203  11.572   8.860
84958SOL     OW56705   2.971  12.136   9.315
84958SOL    HW156706   2.904  12.187   9.360
84958SOL    HW256707   2.998  12.191   9.241
84959SOL     OW56708   6.701  13.249  14.651
84959SOL    HW156709   6.606  13.246  14.649
84959SOL    HW256710   6.725  13.203  14.731
84960SOL     OW56711   3.583   8.193   9.688
84960SOL    HW156712   3.590   8.288   9.688
84960SOL    HW256713   3.672   8.162   9.673
84961SOL     OW56714   2.997   2.657  13.680
84961SOL    HW156715   2.932   2.726  13.667
84961SOL    HW256716   3.059   2.670  13.608
84962SOL     OW56717   6.459  11.231  11.433
84962SOL    HW156718   6.534  11.178  11.462
84962SOL    HW256719   6.445  11.204  11.342
84963SOL     OW56720   0.983   3.355   1.549
84963SOL    HW156721   1.020   3.373   1.636
84963SOL    HW256722   0.889   3.372   1.559
84964SOL     OW56723   2.935   1.711   2.119
84964SOL    HW156724   2.960   1.706   2.026
84964SOL    HW256725   2.906   1.801   2.131
84965SOL     OW56726   9.171   5.540  14.582
84965SOL    HW156727   9.121   5.622  14.579
84965SOL    HW256728   9.258   5.565  14.613
84966SOL     OW56729   1.018  13.231   7.493
84966SOL    HW156730   0.988  13.310   7.449
84966SOL    HW256731   1.113  13.241   7.500
84967SOL     OW56732  14.267   9.868  11.443
84967SOL    HW156733  14.230   9.839  11.526
84967SOL    HW256734  14.360   9.882  11.461
84968SOL     OW56735   8.458  12.495  14.076
84968SOL    HW156736   8.543  12.457  14.101
84968SOL    HW256737   8.439  12.558  14.146
84969SOL     OW56738   7.176   4.034   5.333
84969SOL    HW156739   7.238   4.004   5.400
84969SOL    HW256740   7.090   4.013   5.369
84970SOL     OW56741  12.344  10.954  11.696
84970SOL    HW156742  12.305  11.018  11.755
84970SOL    HW256743  12.371  10.882  11.754
84971SOL     OW56744  14.833   3.944   5.339
84971SOL    HW156745  14.825   3.916   5.430
84971SOL    HW256746  14.769   4.013   5.329
84972SOL     OW56747   6.334  10.212   7.067
84972SOL    HW156748   6.381  10.295   7.072
84972SOL    HW256749   6.255  10.225   7.119
84973SOL     OW56750   2.623   2.154   3.278
84973SOL    HW156751   2.549   2.101   3.249
84973SOL    HW256752   2.698   2.094   3.275
84974SOL     OW56753   8.750  13.461   4.700
84974SOL    HW156754   8.779  13.455   4.791
84974SOL    HW256755   8.657  13.438   4.702
84975SOL     OW56756   3.161  12.715   5.372
84975SOL    HW156757   3.185  12.737   5.462
84975SOL    HW256758   3.187  12.791   5.320
84976SOL     OW56759   7.335   7.269   3.983
84976SOL    HW156760   7.372   7.273   4.071
84976SOL    HW256761   7.340   7.359   3.951
84977SOL     OW56762   5.494   4.570   7.400
84977SOL    HW156763   5.404   4.550   7.374
84977SOL    HW256764   5.526   4.488   7.437
84978SOL     OW56765   3.153   4.943   5.393
84978SOL    HW156766   3.173   4.886   5.468
84978SOL    HW256767   3.080   4.997   5.424
84979SOL     OW56768   7.989   9.565   0.958
84979SOL    HW156769   8.018   9.487   1.006
84979SOL    HW256770   8.070   9.607   0.930
84980SOL     OW56771   7.239  14.107   7.726
84980SOL    HW156772   7.310  14.102   7.662
84980SOL    HW256773   7.195  14.190   7.706
84981SOL     OW56774   9.237   8.056  14.785
84981SOL    HW156775   9.305   8.058  14.852
84981SOL    HW256776   9.279   8.091  14.707
84982SOL     OW56777   2.936   0.508  14.608
84982SOL    HW156778   2.992   0.577  14.642
84982SOL    HW256779   2.847   0.539  14.623
84983SOL     OW56780   3.319  14.548   0.542
84983SOL    HW156781   3.371  14.497   0.604
84983SOL    HW256782   3.350  14.519   0.456
84984SOL     OW56783   1.249   9.148  14.851
84984SOL    HW156784   1.183   9.169   0.040
84984SOL    HW256785   1.276   9.232  14.815
84985SOL     OW56786  11.615   2.021   7.094
84985SOL    HW156787  11.689   2.080   7.108
84985SOL    HW256788  11.556   2.039   7.168
84986SOL     OW56789  10.355   5.438   9.735
84986SOL    HW156790  10.411   5.474   9.804
84986SOL    HW256791  10.409   5.442   9.656
84987SOL     OW56792   0.533   9.106   4.901
84987SOL    HW156793   0.500   9.067   4.982
84987SOL    HW256794   0.625   9.079   4.896
84988SOL     OW56795   8.784  10.272   8.721
84988SOL    HW156796   8.836  10.192   8.715
84988SOL    HW256797   8.827  10.333   8.661
84989SOL     OW56798  11.210   0.037   8.552
84989SOL    HW156799  11.178  14.855   8.621
84989SOL    HW256800  11.212  14.858   8.474
84990SOL     OW56801   1.516   0.221   7.624
84990SOL    HW156802   1.552   0.153   7.682
84990SOL    HW256803   1.463   0.173   7.561
84991SOL     OW56804   4.199  13.993  10.094
84991SOL    HW156805   4.186  14.042  10.175
84991SOL    HW256806   4.112  13.986  10.056
84992SOL     OW56807   5.922   2.783  14.627
84992SOL    HW156808   5.918   2.780  14.532
84992SOL    HW256809   5.996   2.840  14.646
84993SOL     OW56810  11.394  10.541   4.853
84993SOL    HW156811  11.449  10.617   4.869
84993SOL    HW256812  11.310  10.578   4.825
84994SOL     OW56813   4.514  10.223   1.890
84994SOL    HW156814   4.519  10.156   1.822
84994SOL    HW256815   4.563  10.186   1.964
84995SOL     OW56816   0.256   7.451   8.166
84995SOL    HW156817   0.177   7.398   8.173
84995SOL    HW256818   0.286   7.438   8.075
84996SOL     OW56819   1.711   8.747   1.092
84996SOL    HW156820   1.730   8.838   1.114
84996SOL    HW256821   1.797   8.705   1.088
84997SOL     OW56822   9.596   3.577  13.756
84997SOL    HW156823   9.617   3.642  13.689
84997SOL    HW256824   9.521   3.614  13.802
84998SOL     OW56825   5.713   8.173   0.801
84998SOL    HW156826   5.768   8.157   0.878
84998SOL    HW256827   5.631   8.127   0.821
84999SOL     OW56828  13.472   4.410   7.125
84999SOL    HW156829  13.383   4.383   7.148
84999SOL    HW256830  13.468   4.427   7.031
85000SOL     OW56831   3.573  12.482   5.104
85000SOL    HW156832   3.655  12.435   5.090
85000SOL    HW256833   3.571  12.499   5.198
85001SOL     OW56834   9.286   2.515   5.140
85001SOL    HW156835   9.233   2.454   5.088
85001SOL    HW256836   9.234   2.529   5.220
85002SOL     OW56837   4.614   6.448   7.083
85002SOL    HW156838   4.549   6.419   7.019
85002SOL    HW256839   4.579   6.530   7.118
85003SOL     OW56840   3.717   9.170   6.730
85003SOL    HW156841   3.760   9.108   6.788
85003SOL    HW256842   3.782   9.190   6.663
85004SOL     OW56843   4.489   1.473   9.717
85004SOL    HW156844   4.514   1.383   9.698
85004SOL    HW256845   4.408   1.486   9.668
85005SOL     OW56846   8.370   7.463   3.243
85005SOL    HW156847   8.384   7.545   3.197
85005SOL    HW256848   8.456   7.422   3.247
85006SOL     OW56849   8.822   4.391   7.430
85006SOL    HW156850   8.797   4.299   7.435
85006SOL    HW256851   8.806   4.415   7.339
85007SOL     OW56852  13.487   0.069   4.436
85007SOL    HW156853  13.511   0.067   4.343
85007SOL    HW256854  13.562   0.029   4.481
85008SOL     OW56855   4.463  11.357  13.384
85008SOL    HW156856   4.538  11.374  13.441
85008SOL    HW256857   4.387  11.358  13.444
85009SOL     OW56858   5.034   0.621  11.690
85009SOL    HW156859   5.052   0.548  11.632
85009SOL    HW256860   5.067   0.594  11.776
85010SOL     OW56861   8.062  12.702   3.282
85010SOL    HW156862   7.979  12.695   3.234
85010SOL    HW256863   8.127  12.723   3.214
85011SOL     OW56864   0.577   7.504  13.442
85011SOL    HW156865   0.592   7.483  13.534
85011SOL    HW256866   0.583   7.600  13.438
85012SOL     OW56867   8.721  13.506   5.950
85012SOL    HW156868   8.716  13.455   6.031
85012SOL    HW256869   8.797  13.563   5.962
85013SOL     OW56870   9.365   4.770   1.901
85013SOL    HW156871   9.408   4.703   1.954
85013SOL    HW256872   9.376   4.851   1.951
85014SOL     OW56873  10.575  10.900   4.855
85014SOL    HW156874  10.621  10.974   4.815
85014SOL    HW256875  10.605  10.824   4.805
85015SOL     OW56876   6.224  11.547   7.076
85015SOL    HW156877   6.209  11.639   7.054
85015SOL    HW256878   6.319  11.536   7.072
85016SOL     OW56879   6.237  12.014  10.430
85016SOL    HW156880   6.300  12.008  10.359
85016SOL    HW256881   6.282  12.065  10.498
85017SOL     OW56882   6.684   6.232   8.861
85017SOL    HW156883   6.722   6.179   8.791
85017SOL    HW256884   6.754   6.242   8.925
85018SOL     OW56885  11.235  14.475   7.992
85018SOL    HW156886  11.299  14.527   7.943
85018SOL    HW256887  11.197  14.536   8.055
85019SOL     OW56888  12.022   8.721  12.595
85019SOL    HW156889  11.980   8.696  12.513
85019SOL    HW256890  12.078   8.795  12.572
85020SOL     OW56891   5.763   5.351   1.221
85020SOL    HW156892   5.853   5.356   1.253
85020SOL    HW256893   5.714   5.312   1.293
85021SOL     OW56894   4.999   5.559   2.799
85021SOL    HW156895   5.072   5.525   2.851
85021SOL    HW256896   5.036   5.633   2.751
85022SOL     OW56897  13.686   2.999  14.641
85022SOL    HW156898  13.676   2.941  14.716
85022SOL    HW256899  13.690   2.941  14.565
85023SOL     OW56900   5.902  13.014  13.238
85023SOL    HW156901   5.968  12.967  13.288
85023SOL    HW256902   5.849  13.060  13.304
85024SOL     OW56903  11.120   8.317   2.390
85024SOL    HW156904  11.175   8.335   2.467
85024SOL    HW256905  11.141   8.226   2.367
85025SOL     OW56906   4.116   4.394   8.699
85025SOL    HW156907   4.138   4.341   8.775
85025SOL    HW256908   4.035   4.439   8.723
85026SOL     OW56909   5.502  14.204   1.011
85026SOL    HW156910   5.440  14.261   1.057
85026SOL    HW256911   5.567  14.264   0.976
85027SOL     OW56912  10.435  13.543   5.417
85027SOL    HW156913  10.350  13.523   5.376
85027SOL    HW256914  10.470  13.616   5.366
85028SOL     OW56915   8.048   8.588  13.716
85028SOL    HW156916   8.000   8.667  13.740
85028SOL    HW256917   7.980   8.523  13.700
85029SOL     OW56918   7.970   1.741   8.658
85029SOL    HW156919   7.990   1.659   8.704
85029SOL    HW256920   7.952   1.714   8.568
85030SOL     OW56921   5.339   4.401   3.536
85030SOL    HW156922   5.298   4.401   3.622
85030SOL    HW256923   5.283   4.457   3.482
85031SOL     OW56924  14.840  13.508  13.762
85031SOL    HW156925  14.787  13.429  13.774
85031SOL    HW256926  14.821  13.562  13.838
85032SOL     OW56927   6.391  13.043  10.471
85032SOL    HW156928   6.374  12.951  10.453
85032SOL    HW256929   6.307  13.086  10.458
85033SOL     OW56930   6.831  11.290   1.697
85033SOL    HW156931   6.784  11.230   1.755
85033SOL    HW256932   6.803  11.377   1.723
85034SOL     OW56933   7.580   4.464  12.951
85034SOL    HW156934   7.547   4.442  12.863
85034SOL    HW256935   7.518   4.529  12.983
85035SOL     OW56936   8.943   0.291  12.982
85035SOL    HW156937   9.009   0.360  12.979
85035SOL    HW256938   8.861   0.338  12.995
85036SOL     OW56939   2.619   6.855  11.685
85036SOL    HW156940   2.645   6.900  11.765
85036SOL    HW256941   2.524   6.869  11.679
85037SOL     OW56942  13.540   2.853   6.512
85037SOL    HW156943  13.535   2.763   6.543
85037SOL    HW256944  13.557   2.905   6.591
85038SOL     OW56945   7.486   3.066  14.242
85038SOL    HW156946   7.546   3.038  14.172
85038SOL    HW256947   7.477   2.988  14.297
85039SOL     OW56948   3.492   8.170   6.982
85039SOL    HW156949   3.447   8.101   7.031
85039SOL    HW256950   3.495   8.137   6.892
85040SOL     OW56951  11.648  10.388   2.030
85040SOL    HW156952  11.740  10.412   2.026
85040SOL    HW256953  11.631  10.376   2.124
85041SOL     OW56954   8.682   0.945   2.040
85041SOL    HW156955   8.708   0.968   1.951
85041SOL    HW256956   8.735   0.868   2.061
85042SOL     OW56957   8.077   2.128  12.562
85042SOL    HW156958   8.153   2.114  12.506
85042SOL    HW256959   8.098   2.083  12.644
85043SOL     OW56960  14.233  12.206  11.215
85043SOL    HW156961  14.189  12.164  11.141
85043SOL    HW256962  14.191  12.169  11.292
85044SOL     OW56963   0.830   0.948  12.807
85044SOL    HW156964   0.887   1.024  12.811
85044SOL    HW256965   0.887   0.874  12.825
85045SOL     OW56966   1.173  10.187   2.159
85045SOL    HW156967   1.235  10.120   2.185
85045SOL    HW256968   1.222  10.244   2.100
85046SOL     OW56969   7.058   2.802   5.863
85046SOL    HW156970   7.090   2.891   5.876
85046SOL    HW256971   7.123   2.762   5.805
85047SOL     OW56972  10.727  11.516  12.309
85047SOL    HW156973  10.793  11.576  12.345
85047SOL    HW256974  10.760  11.493  12.222
85048SOL     OW56975  12.882   8.607   3.026
85048SOL    HW156976  12.832   8.594   2.946
85048SOL    HW256977  12.959   8.658   2.999
85049SOL     OW56978   0.373   5.559   8.291
85049SOL    HW156979   0.392   5.466   8.303
85049SOL    HW256980   0.428   5.603   8.355
85050SOL     OW56981   8.723   1.096  13.296
85050SOL    HW156982   8.629   1.075  13.304
85050SOL    HW256983   8.751   1.049  13.217
85051SOL     OW56984   3.438   2.113  14.594
85051SOL    HW156985   3.411   2.139  14.683
85051SOL    HW256986   3.504   2.045  14.608
85052SOL     OW56987   5.588   5.696  11.083
85052SOL    HW156988   5.668   5.733  11.119
85052SOL    HW256989   5.617   5.632  11.018
85053SOL     OW56990  12.236   5.663   7.503
85053SOL    HW156991  12.323   5.626   7.486
85053SOL    HW256992  12.221   5.723   7.431
85054SOL     OW56993   2.479  13.068  10.159
85054SOL    HW156994   2.385  13.056  10.146
85054SOL    HW256995   2.518  13.041  10.076
85055SOL     OW56996   0.757   8.134  12.127
85055SOL    HW156997   0.825   8.102  12.186
85055SOL    HW256998   0.805   8.164  12.049
85056SOL     OW56999   1.604  10.756   1.890
85056SOL    HW157000   1.555  10.683   1.929
85056SOL    HW257001   1.687  10.757   1.937
85057SOL     OW57002  11.374  11.879  14.544
85057SOL    HW157003  11.426  11.931  14.604
85057SOL    HW257004  11.286  11.918  14.548
85058SOL     OW57005   7.061   6.779  12.401
85058SOL    HW157006   7.112   6.831  12.339
85058SOL    HW257007   6.984   6.752  12.351
85059SOL     OW57008   8.331   8.411  14.601
85059SOL    HW157009   8.396   8.480  14.614
85059SOL    HW257010   8.248   8.458  14.591
85060SOL     OW57011   6.363   5.535   4.790
85060SOL    HW157012   6.400   5.484   4.718
85060SOL    HW257013   6.297   5.478   4.829
85061SOL     OW57014   4.745   2.577   6.174
85061SOL    HW157015   4.762   2.613   6.261
85061SOL    HW257016   4.650   2.574   6.168
85062SOL     OW57017   8.878  11.798  10.533
85062SOL    HW157018   8.790  11.805  10.568
85062SOL    HW257019   8.896  11.704  10.531
85063SOL     OW57020  14.019   9.668  12.635
85063SOL    HW157021  13.985   9.582  12.609
85063SOL    HW257022  14.041   9.710  12.552
85064SOL     OW57023   8.877   2.369  13.485
85064SOL    HW157024   8.957   2.402  13.525
85064SOL    HW257025   8.816   2.443  13.490
85065SOL     OW57026  10.883   8.291   4.401
85065SOL    HW157027  10.900   8.251   4.316
85065SOL    HW257028  10.949   8.253   4.459
85066SOL     OW57029  12.386   3.395   8.725
85066SOL    HW157030  12.331   3.471   8.708
85066SOL    HW257031  12.458   3.402   8.663
85067SOL     OW57032   2.508   7.132   8.040
85067SOL    HW157033   2.436   7.074   8.014
85067SOL    HW257034   2.581   7.108   7.983
85068SOL     OW57035   0.192   4.416   0.647
85068SOL    HW157036   0.209   4.461   0.730
85068SOL    HW257037   0.250   4.459   0.584
85069SOL     OW57038  13.119   0.816   1.555
85069SOL    HW157039  13.161   0.900   1.572
85069SOL    HW257040  13.192   0.757   1.533
85070SOL     OW57041   3.444   6.655   9.773
85070SOL    HW157042   3.369   6.651   9.714
85070SOL    HW257043   3.500   6.582   9.745
85071SOL     OW57044   1.313   9.726  11.375
85071SOL    HW157045   1.295   9.753  11.285
85071SOL    HW257046   1.360   9.800  11.414
85072SOL     OW57047  12.006   7.147   2.820
85072SOL    HW157048  12.043   7.215   2.875
85072SOL    HW257049  12.029   7.065   2.863
85073SOL     OW57050  14.243  11.960   9.385
85073SOL    HW157051  14.272  12.047   9.412
85073SOL    HW257052  14.238  11.965   9.290
85074SOL     OW57053  12.424   8.903   2.635
85074SOL    HW157054  12.383   8.884   2.720
85074SOL    HW257055  12.517   8.910   2.655
85075SOL     OW57056  13.807  10.427   3.463
85075SOL    HW157057  13.714  10.434   3.486
85075SOL    HW257058  13.814  10.341   3.420
85076SOL     OW57059  10.792   9.791   4.090
85076SOL    HW157060  10.869   9.738   4.072
85076SOL    HW257061  10.826   9.872   4.127
85077SOL     OW57062   7.303  12.749   9.640
85077SOL    HW157063   7.337  12.828   9.599
85077SOL    HW257064   7.381  12.698   9.662
85078SOL     OW57065   7.640  13.931  11.435
85078SOL    HW157066   7.651  13.917  11.529
85078SOL    HW257067   7.604  13.849  11.402
85079SOL     OW57068  13.059  10.832   5.597
85079SOL    HW157069  13.059  10.737   5.591
85079SOL    HW257070  13.133  10.853   5.653
85080SOL     OW57071   4.276  14.047  11.027
85080SOL    HW157072   4.263  13.966  10.978
85080SOL    HW257073   4.348  14.028  11.087
85081SOL     OW57074  14.704  14.373   5.084
85081SOL    HW157075  14.674  14.436   5.149
85081SOL    HW257076  14.637  14.375   5.016
85082SOL     OW57077   7.848   7.676  12.362
85082SOL    HW157078   7.836   7.594  12.410
85082SOL    HW257079   7.789   7.738  12.406
85083SOL     OW57080   2.348   9.117  12.098
85083SOL    HW157081   2.260   9.080  12.105
85083SOL    HW257082   2.389   9.098  12.183
85084SOL     OW57083   2.976  14.374  12.333
85084SOL    HW157084   2.934  14.443  12.282
85084SOL    HW257085   3.012  14.420  12.409
85085SOL     OW57086   7.491   9.066  10.360
85085SOL    HW157087   7.576   9.025  10.342
85085SOL    HW257088   7.509   9.128  10.431
85086SOL     OW57089   9.694   7.709  12.182
85086SOL    HW157090   9.648   7.636  12.224
85086SOL    HW257091   9.655   7.715  12.095
85087SOL     OW57092   6.497   0.141   2.064
85087SOL    HW157093   6.558   0.177   2.000
85087SOL    HW257094   6.474   0.214   2.120
85088SOL     OW57095  11.653   1.147  14.008
85088SOL    HW157096  11.627   1.104  13.927
85088SOL    HW257097  11.643   1.079  14.075
85089SOL     OW57098   8.186   3.783   0.544
85089SOL    HW157099   8.231   3.762   0.462
85089SOL    HW257100   8.255   3.812   0.603
85090SOL     OW57101   1.336   0.558  14.455
85090SOL    HW157102   1.270   0.529  14.519
85090SOL    HW257103   1.306   0.521  14.372
85091SOL     OW57104   4.616   3.822  10.804
85091SOL    HW157105   4.567   3.901  10.783
85091SOL    HW257106   4.614   3.817  10.900
85092SOL     OW57107  13.415   6.687   3.106
85092SOL    HW157108  13.445   6.638   3.182
85092SOL    HW257109  13.364   6.759   3.143
85093SOL     OW57110   4.443  13.608  10.548
85093SOL    HW157111   4.354  13.640  10.563
85093SOL    HW257112   4.431  13.521  10.511
85094SOL     OW57113   5.039  14.659   7.437
85094SOL    HW157114   5.045  14.600   7.512
85094SOL    HW257115   4.950  14.645   7.403
85095SOL     OW57116   3.070  12.125   5.066
85095SOL    HW157117   2.987  12.163   5.037
85095SOL    HW257118   3.054  12.099   5.157
85096SOL     OW57119  10.505   2.363   4.971
85096SOL    HW157120  10.552   2.368   5.055
85096SOL    HW257121  10.543   2.432   4.918
85097SOL     OW57122  13.124  14.190  11.343
85097SOL    HW157123  13.113  14.263  11.404
85097SOL    HW257124  13.045  14.138  11.354
85098SOL     OW57125   0.734   0.077  12.914
85098SOL    HW157126   0.808   0.047  12.862
85098SOL    HW257127   0.768   0.085  13.003
85099SOL     OW57128   7.373   7.711   6.062
85099SOL    HW157129   7.457   7.686   6.022
85099SOL    HW257130   7.394   7.727   6.154
85100SOL     OW57131   5.145   0.383   0.354
85100SOL    HW157132   5.177   0.466   0.388
85100SOL    HW257133   5.073   0.359   0.413
85101SOL     OW57134   3.369  10.987   3.437
85101SOL    HW157135   3.322  11.045   3.377
85101SOL    HW257136   3.461  10.999   3.415
85102SOL     OW57137  11.283   9.007  11.302
85102SOL    HW157138  11.309   8.917  11.279
85102SOL    HW257139  11.205   9.023  11.248
85103SOL     OW57140   9.175  11.765   1.284
85103SOL    HW157141   9.178  11.793   1.192
85103SOL    HW257142   9.247  11.812   1.326
85104SOL     OW57143  12.204   5.373  13.984
85104SOL    HW157144  12.231   5.348  13.895
85104SOL    HW257145  12.186   5.467  13.977
85105SOL     OW57146   8.258   5.906  13.644
85105SOL    HW157147   8.334   5.948  13.603
85105SOL    HW257148   8.290   5.879  13.731
85106SOL     OW57149   6.221  13.689   8.763
85106SOL    HW157150   6.133  13.690   8.803
85106SOL    HW257151   6.269  13.756   8.811
85107SOL     OW57152   6.305   2.489   8.090
85107SOL    HW157153   6.212   2.467   8.094
85107SOL    HW257154   6.329   2.479   7.998
85108SOL     OW57155   5.213   7.485   5.115
85108SOL    HW157156   5.206   7.513   5.207
85108SOL    HW257157   5.270   7.408   5.118
85109SOL     OW57158   0.867  12.392   6.695
85109SOL    HW157159   0.779  12.389   6.655
85109SOL    HW257160   0.881  12.303   6.728
85110SOL     OW57161   9.762   5.557  14.660
85110SOL    HW157162   9.723   5.598  14.583
85110SOL    HW257163   9.795   5.472  14.629
85111SOL     OW57164   0.096  11.418  14.637
85111SOL    HW157165   0.152  11.491  14.610
85111SOL    HW257166   0.011  11.438  14.597
85112SOL     OW57167   7.171  11.192  13.951
85112SOL    HW157168   7.179  11.173  13.857
85112SOL    HW257169   7.192  11.109  13.994
85113SOL     OW57170  13.673  12.555  11.744
85113SOL    HW157171  13.662  12.581  11.835
85113SOL    HW257172  13.736  12.617  11.708
85114SOL     OW57173  12.275   9.050  13.083
85114SOL    HW157174  12.305   9.141  13.078
85114SOL    HW257175  12.195   9.053  13.134
85115SOL     OW57176   0.635   0.975   9.059
85115SOL    HW157177   0.653   1.000   9.150
85115SOL    HW257178   0.688   0.896   9.046
85116SOL     OW57179   0.023   2.384   9.483
85116SOL    HW157180   0.016   2.476   9.509
85116SOL    HW257181  14.829   2.371   9.419
85117SOL     OW57182  11.516   3.174  14.003
85117SOL    HW157183  11.493   3.121  13.927
85117SOL    HW257184  11.546   3.111  14.068
85118SOL     OW57185   5.922   3.253  12.921
85118SOL    HW157186   5.928   3.204  12.839
85118SOL    HW257187   5.938   3.344  12.896
85119SOL     OW57188   4.292  11.714   1.580
85119SOL    HW157189   4.286  11.791   1.637
85119SOL    HW257190   4.369  11.732   1.525
85120SOL     OW57191   8.485  12.597   7.174
85120SOL    HW157192   8.570  12.594   7.218
85120SOL    HW257193   8.504  12.638   7.089
85121SOL     OW57194  12.804   4.752   6.566
85121SOL    HW157195  12.771   4.787   6.649
85121SOL    HW257196  12.725   4.728   6.517
85122SOL     OW57197   8.981   0.935   8.418
85122SOL    HW157198   9.074   0.942   8.397
85122SOL    HW257199   8.977   0.872   8.490
85123SOL     OW57200   1.544   1.897  12.456
85123SOL    HW157201   1.540   1.953  12.378
85123SOL    HW257202   1.556   1.809  12.422
85124SOL     OW57203  13.731   7.961  14.358
85124SOL    HW157204  13.794   8.031  14.377
85124SOL    HW257205  13.712   7.921  14.442
85125SOL     OW57206   8.252   5.780  11.502
85125SOL    HW157207   8.242   5.773  11.407
85125SOL    HW257208   8.307   5.858  11.515
85126SOL     OW57209   1.100  12.122   0.893
85126SOL    HW157210   1.179  12.165   0.926
85126SOL    HW257211   1.106  12.032   0.926
85127SOL     OW57212  10.125   5.862   4.755
85127SOL    HW157213  10.100   5.823   4.838
85127SOL    HW257214  10.044   5.896   4.718
85128SOL     OW57215   4.913  12.769   5.652
85128SOL    HW157216   4.882  12.787   5.741
85128SOL    HW257217   4.954  12.683   5.658
85129SOL     OW57218  12.872  10.184   8.146
85129SOL    HW157219  12.816  10.182   8.068
85129SOL    HW257220  12.810  10.186   8.219
85130SOL     OW57221   5.714  13.548  12.423
85130SOL    HW157222   5.712  13.454  12.405
85130SOL    HW257223   5.726  13.588  12.337
85131SOL     OW57224  13.343  11.066  13.541
85131SOL    HW157225  13.337  10.978  13.504
85131SOL    HW257226  13.255  11.103  13.529
85132SOL     OW57227   9.299   2.903  14.170
85132SOL    HW157228   9.324   2.814  14.146
85132SOL    HW257229   9.331   2.914  14.259
85133SOL     OW57230   3.481  13.725   3.829
85133SOL    HW157231   3.453  13.704   3.740
85133SOL    HW257232   3.479  13.642   3.876
85134SOL     OW57233  13.600  11.673   3.725
85134SOL    HW157234  13.624  11.644   3.637
85134SOL    HW257235  13.525  11.731   3.711
85135SOL     OW57236  11.011   1.648   8.901
85135SOL    HW157237  11.089   1.599   8.927
85135SOL    HW257238  10.983   1.693   8.981
85136SOL     OW57239   4.999   8.848   5.449
85136SOL    HW157240   5.057   8.819   5.520
85136SOL    HW257241   5.054   8.903   5.394
85137SOL     OW57242  11.328  11.805  14.002
85137SOL    HW157243  11.282  11.733  14.045
85137SOL    HW257244  11.371  11.853  14.073
85138SOL     OW57245   5.557  14.354   6.248
85138SOL    HW157246   5.523  14.363   6.159
85138SOL    HW257247   5.652  14.341   6.236
85139SOL     OW57248   5.177  10.428   5.869
85139SOL    HW157249   5.262  10.440   5.828
85139SOL    HW257250   5.145  10.344   5.835
85140SOL     OW57251  12.623   6.388   7.110
85140SOL    HW157252  12.631   6.352   7.199
85140SOL    HW257253  12.703   6.440   7.099
85141SOL     OW57254   5.650  12.254   1.001
85141SOL    HW157255   5.683  12.343   0.990
85141SOL    HW257256   5.557  12.265   1.018
85142SOL     OW57257   3.467   3.512   0.035
85142SOL    HW157258   3.429   3.426   0.019
85142SOL    HW257259   3.394   3.565   0.069
85143SOL     OW57260   7.011  13.783   4.531
85143SOL    HW157261   6.983  13.745   4.614
85143SOL    HW257262   7.064  13.859   4.556
85144SOL     OW57263  12.690  11.227   9.327
85144SOL    HW157264  12.724  11.157   9.270
85144SOL    HW257265  12.597  11.232   9.305
85145SOL     OW57266   0.928   8.499  13.952
85145SOL    HW157267   0.974   8.469  14.030
85145SOL    HW257268   0.841   8.526  13.984
85146SOL     OW57269  14.094  11.167   4.182
85146SOL    HW157270  14.053  11.101   4.239
85146SOL    HW257271  14.169  11.199   4.232
85147SOL     OW57272  10.232   3.615   6.454
85147SOL    HW157273  10.269   3.699   6.479
85147SOL    HW257274  10.267   3.552   6.517
85148SOL     OW57275  11.496  13.148  14.136
85148SOL    HW157276  11.436  13.161  14.210
85148SOL    HW257277  11.464  13.208  14.069
85149SOL     OW57278  12.786   1.082   0.513
85149SOL    HW157279  12.766   1.030   0.591
85149SOL    HW257280  12.701   1.095   0.471
85150SOL     OW57281   8.390   0.141   0.823
85150SOL    HW157282   8.357   0.200   0.756
85150SOL    HW257283   8.431   0.069   0.775
85151SOL     OW57284   0.875   2.868  13.913
85151SOL    HW157285   0.953   2.837  13.867
85151SOL    HW257286   0.909   2.926  13.981
85152SOL     OW57287   6.005  10.125   3.088
85152SOL    HW157288   5.962  10.195   3.039
85152SOL    HW257289   5.935  10.086   3.140
85153SOL     OW57290   9.224  11.474   9.552
85153SOL    HW157291   9.162  11.486   9.480
85153SOL    HW257292   9.207  11.546   9.612
85154SOL     OW57293   2.402  12.697  10.928
85154SOL    HW157294   2.336  12.692  10.859
85154SOL    HW257295   2.484  12.713  10.882
85155SOL     OW57296   8.771   1.454  13.269
85155SOL    HW157297   8.703   1.456  13.202
85155SOL    HW257298   8.727   1.417  13.346
85156SOL     OW57299   4.912   0.395   2.137
85156SOL    HW157300   4.965   0.361   2.210
85156SOL    HW257301   4.959   0.474   2.108
85157SOL     OW57302   6.576  10.445  14.193
85157SOL    HW157303   6.613  10.532  14.182
85157SOL    HW257304   6.632  10.388  14.140
85158SOL     OW57305  13.137  12.782   4.784
85158SOL    HW157306  13.146  12.867   4.828
85158SOL    HW257307  13.076  12.799   4.713
85159SOL     OW57308   4.987   3.694   7.759
85159SOL    HW157309   5.038   3.775   7.755
85159SOL    HW257310   5.053   3.624   7.763
85160SOL     OW57311   2.499  11.256   8.429
85160SOL    HW157312   2.547  11.289   8.505
85160SOL    HW257313   2.521  11.164   8.424
85161SOL     OW57314  11.589   7.157  13.661
85161SOL    HW157315  11.664   7.119  13.614
85161SOL    HW257316  11.534   7.194  13.592
85162SOL     OW57317   1.359   9.880  12.960
85162SOL    HW157318   1.391   9.852  13.046
85162SOL    HW257319   1.307   9.958  12.979
85163SOL     OW57320   0.531  12.835   5.912
85163SOL    HW157321   0.559  12.749   5.942
85163SOL    HW257322   0.465  12.817   5.846
85164SOL     OW57323   8.718   8.952   9.091
85164SOL    HW157324   8.802   8.947   9.046
85164SOL    HW257325   8.700   8.862   9.119
85165SOL     OW57326  11.458   5.423   9.227
85165SOL    HW157327  11.482   5.333   9.251
85165SOL    HW257328  11.527   5.449   9.165
85166SOL     OW57329   0.332   8.114   9.097
85166SOL    HW157330   0.408   8.108   9.155
85166SOL    HW257331   0.369   8.107   9.009
85167SOL     OW57332   9.871  14.149  11.566
85167SOL    HW157333   9.833  14.061  11.564
85167SOL    HW257334   9.927  14.149  11.643
85168SOL     OW57335  13.644  10.893   7.738
85168SOL    HW157336  13.607  10.975   7.706
85168SOL    HW257337  13.575  10.856   7.793
85169SOL     OW57338  11.296  13.117   0.780
85169SOL    HW157339  11.334  13.091   0.696
85169SOL    HW257340  11.202  13.125   0.763
85170SOL     OW57341   6.922  12.897   8.713
85170SOL    HW157342   6.859  12.829   8.734
85170SOL    HW257343   6.982  12.898   8.788
85171SOL     OW57344   1.841   0.503  12.280
85171SOL    HW157345   1.901   0.432  12.301
85171SOL    HW257346   1.888   0.556  12.215
85172SOL     OW57347   6.701  10.241   4.505
85172SOL    HW157348   6.692  10.146   4.503
85172SOL    HW257349   6.611  10.274   4.500
85173SOL     OW57350   9.385   4.028   2.483
85173SOL    HW157351   9.339   4.110   2.500
85173SOL    HW257352   9.372   4.012   2.389
85174SOL     OW57353  13.585   1.940  10.243
85174SOL    HW157354  13.669   1.899  10.268
85174SOL    HW257355  13.545   1.964  10.326
85175SOL     OW57356   9.562   8.475  14.488
85175SOL    HW157357   9.648   8.515  14.478
85175SOL    HW257358   9.504   8.548  14.509
85176SOL     OW57359   5.997  10.717   7.550
85176SOL    HW157360   5.935  10.663   7.501
85176SOL    HW257361   6.059  10.654   7.587
85177SOL     OW57362   8.950  14.671   2.926
85177SOL    HW157363   9.012  14.690   2.856
85177SOL    HW257364   8.927  14.757   2.961
85178SOL     OW57365  14.657   1.077  10.046
85178SOL    HW157366  14.708   1.090  10.127
85178SOL    HW257367  14.693   1.141   9.985
85179SOL     OW57368   5.152  12.789   2.245
85179SOL    HW157369   5.105  12.746   2.316
85179SOL    HW257370   5.197  12.863   2.288
85180SOL     OW57371  14.479   4.627  12.827
85180SOL    HW157372  14.528   4.699  12.867
85180SOL    HW257373  14.542   4.582  12.772
85181SOL     OW57374  11.617   8.247  11.657
85181SOL    HW157375  11.655   8.183  11.597
85181SOL    HW257376  11.548   8.199  11.703
85182SOL     OW57377   6.385   6.590   4.908
85182SOL    HW157378   6.309   6.563   4.960
85182SOL    HW257379   6.433   6.650   4.966
85183SOL     OW57380   3.004  13.893   0.661
85183SOL    HW157381   2.974  13.981   0.637
85183SOL    HW257382   3.040  13.904   0.749
85184SOL     OW57383  13.372   4.816   7.208
85184SOL    HW157384  13.289   4.782   7.175
85184SOL    HW257385  13.439   4.764   7.163
85185SOL     OW57386  14.539  12.884   0.524
85185SOL    HW157387  14.472  12.941   0.561
85185SOL    HW257388  14.581  12.938   0.456
85186SOL     OW57389   3.965  10.811   9.660
85186SOL    HW157390   3.871  10.823   9.645
85186SOL    HW257391   4.000  10.789   9.574
85187SOL     OW57392   1.272  14.135   6.980
85187SOL    HW157393   1.245  14.220   6.947
85187SOL    HW257394   1.194  14.099   7.022
85188SOL     OW57395   0.532   5.377   2.842
85188SOL    HW157396   0.566   5.388   2.931
85188SOL    HW257397   0.512   5.284   2.835
85189SOL     OW57398   3.183   1.233   8.016
85189SOL    HW157399   3.273   1.255   7.992
85189SOL    HW257400   3.131   1.304   7.978
85190SOL     OW57401  11.459  11.313  13.423
85190SOL    HW157402  11.364  11.319  13.416
85190SOL    HW257403  11.491  11.379  13.360
85191SOL     OW57404  13.220   6.866   2.470
85191SOL    HW157405  13.285   6.805   2.507
85191SOL    HW257406  13.136   6.824   2.487
85192SOL     OW57407   7.303  14.681   8.084
85192SOL    HW157408   7.250  14.602   8.095
85192SOL    HW257409   7.296  14.703   7.991
85193SOL     OW57410   3.028  12.494   9.439
85193SOL    HW157411   2.946  12.481   9.391
85193SOL    HW257412   3.003  12.487   9.531
85194SOL     OW57413  12.693   7.491   7.000
85194SOL    HW157414  12.702   7.445   6.916
85194SOL    HW257415  12.614   7.544   6.990
85195SOL     OW57416   1.909   9.430   4.591
85195SOL    HW157417   1.991   9.394   4.555
85195SOL    HW257418   1.883   9.497   4.528
85196SOL     OW57419  13.878  11.092   1.435
85196SOL    HW157420  13.822  11.015   1.439
85196SOL    HW257421  13.960  11.064   1.477
85197SOL     OW57422  14.087   7.167   5.483
85197SOL    HW157423  14.158   7.129   5.534
85197SOL    HW257424  14.058   7.243   5.535
85198SOL     OW57425  13.290  10.863   8.606
85198SOL    HW157426  13.320  10.811   8.532
85198SOL    HW257427  13.220  10.811   8.646
85199SOL     OW57428  13.300   9.899   9.048
85199SOL    HW157429  13.382   9.921   9.092
85199SOL    HW257430  13.324   9.830   8.986
85200SOL     OW57431   6.686   2.074   2.892
85200SOL    HW157432   6.634   2.148   2.924
85200SOL    HW257433   6.723   2.106   2.809
85201SOL     OW57434   3.691   3.443   0.480
85201SOL    HW157435   3.682   3.424   0.386
85201SOL    HW257436   3.649   3.528   0.491
85202SOL     OW57437  11.721   2.655  13.915
85202SOL    HW157438  11.688   2.572  13.948
85202SOL    HW257439  11.797   2.632  13.862
85203SOL     OW57440   9.266   5.226   9.431
85203SOL    HW157441   9.228   5.175   9.360
85203SOL    HW257442   9.214   5.307   9.433
85204SOL     OW57443   8.638   6.690   1.148
85204SOL    HW157444   8.674   6.760   1.093
85204SOL    HW257445   8.678   6.610   1.115
85205SOL     OW57446  11.699  13.141   6.432
85205SOL    HW157447  11.605  13.121   6.427
85205SOL    HW257448  11.710  13.182   6.518
85206SOL     OW57449   6.316  14.871   7.939
85206SOL    HW157450   6.305   0.083   7.975
85206SOL    HW257451   6.390  14.835   7.988
85207SOL     OW57452   4.097   4.720   5.511
85207SOL    HW157453   4.049   4.677   5.582
85207SOL    HW257454   4.188   4.720   5.539
85208SOL     OW57455  13.827   7.363  10.999
85208SOL    HW157456  13.882   7.434  11.034
85208SOL    HW257457  13.866   7.283  11.033
85209SOL     OW57458  11.216  11.883  13.540
85209SOL    HW157459  11.156  11.934  13.485
85209SOL    HW257460  11.165  11.863  13.619
85210SOL     OW57461   0.351  11.706   8.925
85210SOL    HW157462   0.356  11.796   8.895
85210SOL    HW257463   0.350  11.712   9.021
85211SOL     OW57464   9.426   7.894  13.709
85211SOL    HW157465   9.429   7.926  13.619
85211SOL    HW257466   9.480   7.956  13.758
85212SOL     OW57467   3.135   0.651  10.252
85212SOL    HW157468   3.115   0.738  10.286
85212SOL    HW257469   3.069   0.634  10.185
85213SOL     OW57470   1.886   9.944   4.062
85213SOL    HW157471   1.979   9.963   4.050
85213SOL    HW257472   1.859   9.902   3.980
85214SOL     OW57473   8.903   6.534   7.921
85214SOL    HW157474   8.811   6.512   7.914
85214SOL    HW257475   8.934   6.534   7.830
85215SOL     OW57476  11.098  12.452   7.630
85215SOL    HW157477  11.090  12.462   7.725
85215SOL    HW257478  11.020  12.494   7.595
85216SOL     OW57479   8.600   7.479   1.622
85216SOL    HW157480   8.508   7.487   1.594
85216SOL    HW257481   8.598   7.498   1.716
85217SOL     OW57482   4.278   6.968   2.727
85217SOL    HW157483   4.356   6.942   2.678
85217SOL    HW257484   4.244   7.044   2.680
85218SOL     OW57485   1.888  10.192   9.488
85218SOL    HW157486   1.917  10.117   9.539
85218SOL    HW257487   1.921  10.268   9.536
85219SOL     OW57488   3.659  14.398   3.132
85219SOL    HW157489   3.624  14.414   3.220
85219SOL    HW257490   3.622  14.313   3.108
85220SOL     OW57491   7.734   4.589   2.321
85220SOL    HW157492   7.707   4.497   2.319
85220SOL    HW257493   7.721   4.620   2.231
85221SOL     OW57494   6.093   6.792  12.563
85221SOL    HW157495   6.085   6.830  12.650
85221SOL    HW257496   6.011   6.744  12.550
85222SOL     OW57497  14.840  10.380  12.736
85222SOL    HW157498   0.030  10.352  12.799
85222SOL    HW257499  14.769  10.316  12.745
85223SOL     OW57500  10.084  12.410  13.111
85223SOL    HW157501  10.089  12.380  13.202
85223SOL    HW257502  10.004  12.461  13.107
85224SOL     OW57503  13.669   5.024   9.577
85224SOL    HW157504  13.638   4.939   9.545
85224SOL    HW257505  13.635   5.030   9.666
85225SOL     OW57506   5.855  14.795   7.107
85225SOL    HW157507   5.888  14.709   7.080
85225SOL    HW257508   5.800  14.777   7.183
85226SOL     OW57509  13.099   4.490  14.333
85226SOL    HW157510  13.127   4.460  14.420
85226SOL    HW257511  13.166   4.553  14.307
85227SOL     OW57512  10.912  11.372   7.623
85227SOL    HW157513  10.960  11.441   7.577
85227SOL    HW257514  10.977  11.304   7.640
85228SOL     OW57515  11.007   1.088  13.197
85228SOL    HW157516  11.028   1.078  13.104
85228SOL    HW257517  10.995   0.998  13.228
85229SOL     OW57518   7.727   5.627   8.462
85229SOL    HW157519   7.713   5.579   8.381
85229SOL    HW257520   7.678   5.577   8.528
85230SOL     OW57521   6.319   0.225   6.893
85230SOL    HW157522   6.288   0.178   6.970
85230SOL    HW257523   6.278   0.311   6.898
85231SOL     OW57524   6.724  12.579  12.953
85231SOL    HW157525   6.728  12.672  12.929
85231SOL    HW257526   6.772  12.534  12.884
85232SOL     OW57527   1.169   4.487   2.113
85232SOL    HW157528   1.168   4.488   2.017
85232SOL    HW257529   1.151   4.578   2.137
85233SOL     OW57530   4.508   0.558   9.302
85233SOL    HW157531   4.468   0.498   9.239
85233SOL    HW257532   4.511   0.642   9.255
85234SOL     OW57533   0.589  12.738   6.364
85234SOL    HW157534   0.527  12.807   6.340
85234SOL    HW257535   0.606  12.692   6.282
85235SOL     OW57536   8.979   7.629   0.362
85235SOL    HW157537   8.931   7.644   0.444
85235SOL    HW257538   9.045   7.563   0.385
85236SOL     OW57539   6.245   0.628   1.821
85236SOL    HW157540   6.263   0.574   1.744
85236SOL    HW257541   6.318   0.610   1.881
85237SOL     OW57542   4.189   0.355  12.132
85237SOL    HW157543   4.173   0.267  12.098
85237SOL    HW257544   4.102   0.394  12.140
85238SOL     OW57545   7.214   1.226   1.205
85238SOL    HW157546   7.151   1.196   1.272
85238SOL    HW257547   7.233   1.317   1.229
85239SOL     OW57548   8.372   4.723   9.787
85239SOL    HW157549   8.368   4.664   9.861
85239SOL    HW257550   8.442   4.784   9.808
85240SOL     OW57551   7.218  11.173  10.209
85240SOL    HW157552   7.269  11.109  10.258
85240SOL    HW257553   7.267  11.255  10.218
85241SOL     OW57554  12.635   4.286   9.705
85241SOL    HW157555  12.700   4.356   9.699
85241SOL    HW257556  12.686   4.205   9.707
85242SOL     OW57557  14.465   4.407  11.739
85242SOL    HW157558  14.473   4.361  11.656
85242SOL    HW257559  14.378   4.384  11.771
85243SOL     OW57560   8.888  12.335   5.420
85243SOL    HW157561   8.806  12.318   5.467
85243SOL    HW257562   8.941  12.257   5.436
85244SOL     OW57563   7.414  14.520  10.466
85244SOL    HW157564   7.508  14.502  10.472
85244SOL    HW257565   7.373  14.439  10.497
85245SOL     OW57566   8.173   8.642   7.864
85245SOL    HW157567   8.262   8.654   7.832
85245SOL    HW257568   8.167   8.698   7.941
85246SOL     OW57569   6.801   8.320  12.848
85246SOL    HW157570   6.796   8.232  12.887
85246SOL    HW257571   6.831   8.305  12.758
85247SOL     OW57572   8.713  14.635  12.135
85247SOL    HW157573   8.782  14.682  12.089
85247SOL    HW257574   8.644  14.701  12.148
85248SOL     OW57575  13.158   2.293  12.916
85248SOL    HW157576  13.199   2.363  12.865
85248SOL    HW257577  13.141   2.224  12.852
85249SOL     OW57578   6.248   6.183   3.728
85249SOL    HW157579   6.339   6.158   3.710
85249SOL    HW257580   6.248   6.279   3.720
85250SOL     OW57581  14.170   2.420   3.069
85250SOL    HW157582  14.117   2.341   3.071
85250SOL    HW257583  14.163   2.452   2.979
85251SOL     OW57584  10.936   8.355   5.836
85251SOL    HW157585  10.868   8.310   5.785
85251SOL    HW257586  10.914   8.448   5.829
85252SOL     OW57587  13.209   5.029   8.842
85252SOL    HW157588  13.172   5.117   8.831
85252SOL    HW257589  13.194   5.008   8.934
85253SOL     OW57590  14.274  14.176  14.064
85253SOL    HW157591  14.280  14.099  14.008
85253SOL    HW257592  14.185  14.174  14.098
85254SOL     OW57593   1.033   7.689   9.900
85254SOL    HW157594   0.946   7.704   9.861
85254SOL    HW257595   1.092   7.681   9.825
85255SOL     OW57596   9.403   4.389   2.735
85255SOL    HW157597   9.446   4.426   2.811
85255SOL    HW257598   9.334   4.452   2.713
85256SOL     OW57599  13.938   8.514   9.571
85256SOL    HW157600  14.001   8.585   9.560
85256SOL    HW257601  13.860   8.557   9.607
85257SOL     OW57602  10.555  12.221  10.799
85257SOL    HW157603  10.528  12.266  10.879
85257SOL    HW257604  10.593  12.138  10.830
85258SOL     OW57605  13.233   5.162  10.934
85258SOL    HW157606  13.315   5.138  10.977
85258SOL    HW257607  13.249   5.251  10.900
85259SOL     OW57608   1.307   5.642   0.270
85259SOL    HW157609   1.268   5.674   0.351
85259SOL    HW257610   1.232   5.613   0.218
85260SOL     OW57611  13.747   9.310  14.623
85260SOL    HW157612  13.735   9.218  14.648
85260SOL    HW257613  13.824   9.310  14.567
85261SOL     OW57614  11.634   9.285   2.481
85261SOL    HW157615  11.542   9.305   2.465
85261SOL    HW257616  11.670   9.366   2.518
85262SOL     OW57617   3.609   9.544  13.864
85262SOL    HW157618   3.663   9.500  13.799
85262SOL    HW257619   3.519   9.527  13.838
85263SOL     OW57620   2.126   2.178   0.223
85263SOL    HW157621   2.127   2.221   0.138
85263SOL    HW257622   2.194   2.111   0.217
85264SOL     OW57623   6.246   0.941  10.821
85264SOL    HW157624   6.323   0.995  10.839
85264SOL    HW257625   6.176   1.004  10.808
85265SOL     OW57626   8.863   1.732  11.460
85265SOL    HW157627   8.818   1.652  11.486
85265SOL    HW257628   8.823   1.801  11.512
85266SOL     OW57629  11.240   6.945   8.034
85266SOL    HW157630  11.165   6.954   8.093
85266SOL    HW257631  11.202   6.913   7.952
85267SOL     OW57632   8.913  12.153  10.242
85267SOL    HW157633   8.823  12.124  10.259
85267SOL    HW257634   8.967  12.080  10.273
85268SOL     OW57635   3.918   7.897  14.822
85268SOL    HW157636   3.945   7.855   0.027
85268SOL    HW257637   3.983   7.965  14.807
85269SOL     OW57638   8.908   7.379   2.551
85269SOL    HW157639   8.827   7.362   2.502
85269SOL    HW257640   8.938   7.464   2.519
85270SOL     OW57641   3.089  13.931  12.100
85270SOL    HW157642   3.110  14.015  12.060
85270SOL    HW257643   3.174  13.892  12.122
85271SOL     OW57644   0.629  12.778  14.337
85271SOL    HW157645   0.710  12.801  14.383
85271SOL    HW257646   0.576  12.734  14.403
85272SOL     OW57647   3.980   7.699  14.655
85272SOL    HW157648   3.945   7.782  14.688
85272SOL    HW257649   3.930   7.632  14.703
85273SOL     OW57650  13.873   8.359   1.681
85273SOL    HW157651  13.943   8.380   1.619
85273SOL    HW257652  13.875   8.264   1.688
85274SOL     OW57653  13.064   3.296  14.355
85274SOL    HW157654  13.093   3.253  14.275
85274SOL    HW257655  13.145   3.319  14.401
85275SOL     OW57656   8.507  10.084   4.893
85275SOL    HW157657   8.602  10.101   4.897
85275SOL    HW257658   8.497   9.996   4.930
85276SOL     OW57659  14.713   4.358  13.010
85276SOL    HW157660  14.676   4.422  13.071
85276SOL    HW257661  14.647   4.350  12.942
85277SOL     OW57662   7.005   4.049   2.127
85277SOL    HW157663   7.024   3.998   2.206
85277SOL    HW257664   6.959   4.127   2.160
85278SOL     OW57665   2.318   4.790  14.303
85278SOL    HW157666   2.360   4.712  14.267
85278SOL    HW257667   2.253   4.815  14.237
85279SOL     OW57668  12.382   5.142  10.543
85279SOL    HW157669  12.348   5.076  10.483
85279SOL    HW257670  12.313   5.154  10.608
85280SOL     OW57671   2.661   6.839  12.582
85280SOL    HW157672   2.674   6.793  12.499
85280SOL    HW257673   2.749   6.848  12.619
85281SOL     OW57674   9.942   2.861   1.577
85281SOL    HW157675   9.896   2.783   1.608
85281SOL    HW257676   9.874   2.929   1.571
85282SOL     OW57677   8.386  13.656  14.787
85282SOL    HW157678   8.347  13.690  14.707
85282SOL    HW257679   8.474  13.695  14.790
85283SOL     OW57680  11.269   9.156   9.639
85283SOL    HW157681  11.318   9.133   9.560
85283SOL    HW257682  11.233   9.073   9.669
85284SOL     OW57683  14.363   3.224  12.660
85284SOL    HW157684  14.393   3.277  12.587
85284SOL    HW257685  14.282   3.266  12.689
85285SOL     OW57686  13.496   5.843  14.075
85285SOL    HW157687  13.545   5.770  14.113
85285SOL    HW257688  13.562   5.894  14.028
85286SOL     OW57689   3.716   1.454   0.532
85286SOL    HW157690   3.801   1.425   0.501
85286SOL    HW257691   3.682   1.380   0.583
85287SOL     OW57692  11.050   8.544  12.621
85287SOL    HW157693  11.021   8.541  12.530
85287SOL    HW257694  10.978   8.586  12.668
85288SOL     OW57695   1.669   3.620   8.733
85288SOL    HW157696   1.761   3.625   8.708
85288SOL    HW257697   1.644   3.710   8.753
85289SOL     OW57698   1.350   2.256  14.706
85289SOL    HW157699   1.255   2.254  14.699
85289SOL    HW257700   1.369   2.226  14.795
85290SOL     OW57701   0.092  10.576   4.747
85290SOL    HW157702   0.106  10.587   4.653
85290SOL    HW257703   0.160  10.630   4.787
85291SOL     OW57704   9.923   3.986   9.667
85291SOL    HW157705   9.901   3.939   9.587
85291SOL    HW257706   9.948   4.074   9.637
85292SOL     OW57707   5.632   6.303   8.113
85292SOL    HW157708   5.662   6.214   8.094
85292SOL    HW257709   5.697   6.359   8.073
85293SOL     OW57710  10.105   3.267   9.072
85293SOL    HW157711  10.191   3.307   9.055
85293SOL    HW257712  10.071   3.315   9.147
85294SOL     OW57713   8.467   1.590   5.742
85294SOL    HW157714   8.491   1.498   5.747
85294SOL    HW257715   8.410   1.596   5.665
85295SOL     OW57716  14.009   3.950   2.706
85295SOL    HW157717  14.091   3.962   2.753
85295SOL    HW257718  13.945   4.000   2.757
85296SOL     OW57719   1.225  14.600  14.790
85296SOL    HW157720   1.220  14.505  14.778
85296SOL    HW257721   1.295  14.628  14.731
85297SOL     OW57722  14.414  14.038   3.513
85297SOL    HW157723  14.456  14.115   3.475
85297SOL    HW257724  14.391  13.984   3.437
85298SOL     OW57725   4.667   9.566  10.906
85298SOL    HW157726   4.717   9.586  10.827
85298SOL    HW257727   4.589   9.519  10.874
85299SOL     OW57728  11.519   0.639   7.073
85299SOL    HW157729  11.553   0.701   7.008
85299SOL    HW257730  11.522   0.554   7.028
85300SOL     OW57731   1.320  12.426   6.258
85300SOL    HW157732   1.226  12.430   6.239
85300SOL    HW257733   1.346  12.518   6.271
85301SOL     OW57734   2.056   8.980   7.388
85301SOL    HW157735   2.090   8.963   7.476
85301SOL    HW257736   2.014   8.898   7.362
85302SOL     OW57737   2.253   8.631   2.190
85302SOL    HW157738   2.160   8.612   2.203
85302SOL    HW257739   2.256   8.679   2.107
85303SOL     OW57740   3.525   1.488  14.451
85303SOL    HW157741   3.497   1.433  14.524
85303SOL    HW257742   3.585   1.434  14.401
85304SOL     OW57743   8.141   6.100   9.112
85304SOL    HW157744   8.063   6.134   9.067
85304SOL    HW257745   8.201   6.078   9.040
85305SOL     OW57746   3.951  12.207   5.415
85305SOL    HW157747   4.021  12.151   5.447
85305SOL    HW257748   3.871  12.155   5.427
85306SOL     OW57749   5.556   4.900  14.031
85306SOL    HW157750   5.584   4.809  14.043
85306SOL    HW257751   5.591   4.924  13.945
85307SOL     OW57752   6.375   1.805   1.095
85307SOL    HW157753   6.395   1.798   1.188
85307SOL    HW257754   6.410   1.891   1.069
85308SOL     OW57755   0.348   5.799   2.267
85308SOL    HW157756   0.286   5.838   2.205
85308SOL    HW257757   0.362   5.710   2.233
85309SOL     OW57758   5.834   0.650   5.823
85309SOL    HW157759   5.761   0.689   5.871
85309SOL    HW257760   5.912   0.690   5.861
85310SOL     OW57761   8.924   3.532   9.089
85310SOL    HW157762   8.964   3.502   9.008
85310SOL    HW257763   8.991   3.515   9.156
85311SOL     OW57764  14.476   1.150   7.730
85311SOL    HW157765  14.393   1.123   7.690
85311SOL    HW257766  14.520   1.068   7.753
85312SOL     OW57767   7.295   9.277   7.189
85312SOL    HW157768   7.361   9.308   7.126
85312SOL    HW257769   7.272   9.190   7.158
85313SOL     OW57770   6.649  10.655  12.053
85313SOL    HW157771   6.657  10.746  12.083
85313SOL    HW257772   6.555  10.639  12.053
85314SOL     OW57773  14.061   0.801   0.387
85314SOL    HW157774  13.978   0.753   0.382
85314SOL    HW257775  14.043   0.874   0.446
85315SOL     OW57776   5.419   6.270  13.841
85315SOL    HW157777   5.343   6.319  13.811
85315SOL    HW257778   5.389   6.225  13.920
85316SOL     OW57779  11.620   0.375  10.795
85316SOL    HW157780  11.690   0.440  10.792
85316SOL    HW257781  11.648   0.306  10.735
85317SOL     OW57782   9.993   9.918  11.473
85317SOL    HW157783  10.042   9.918  11.555
85317SOL    HW257784   9.908   9.957  11.496
85318SOL     OW57785   9.231   2.633  12.976
85318SOL    HW157786   9.212   2.551  12.929
85318SOL    HW257787   9.183   2.625  13.058
85319SOL     OW57788   2.421  12.735  13.464
85319SOL    HW157789   2.383  12.660  13.510
85319SOL    HW257790   2.509  12.744  13.501
85320SOL     OW57791  10.943  10.314  10.902
85320SOL    HW157792  10.882  10.344  10.836
85320SOL    HW257793  10.938  10.379  10.971
85321SOL     OW57794  13.878   4.149   2.151
85321SOL    HW157795  13.870   4.104   2.066
85321SOL    HW257796  13.911   4.082   2.210
85322SOL     OW57797   7.807  10.331   8.413
85322SOL    HW157798   7.761  10.306   8.332
85322SOL    HW257799   7.899  10.317   8.392
85323SOL     OW57800   4.535   1.848   2.725
85323SOL    HW157801   4.486   1.775   2.690
85323SOL    HW257802   4.582   1.885   2.650
85324SOL     OW57803  13.104  11.158  11.677
85324SOL    HW157804  13.056  11.149  11.759
85324SOL    HW257805  13.079  11.245  11.644
85325SOL     OW57806   9.646  10.699  11.976
85325SOL    HW157807   9.732  10.715  11.938
85325SOL    HW257808   9.638  10.604  11.981
85326SOL     OW57809   3.023  12.631   1.327
85326SOL    HW157810   3.064  12.578   1.395
85326SOL    HW257811   3.095  12.649   1.265
85327SOL     OW57812  14.857  11.172  11.278
85327SOL    HW157813   0.037  11.189  11.202
85327SOL    HW257814   0.019  11.093  11.318
85328SOL     OW57815   2.616   9.428   0.644
85328SOL    HW157816   2.677   9.499   0.624
85328SOL    HW257817   2.669   9.348   0.639
85329SOL     OW57818   5.778   1.532  12.547
85329SOL    HW157819   5.731   1.462  12.501
85329SOL    HW257820   5.865   1.532  12.507
85330SOL     OW57821   2.849   8.018   3.511
85330SOL    HW157822   2.807   8.000   3.596
85330SOL    HW257823   2.864   8.113   3.512
85331SOL     OW57824  11.879  11.929  11.601
85331SOL    HW157825  11.913  11.847  11.637
85331SOL    HW257826  11.828  11.968  11.672
85332SOL     OW57827  12.133   2.916   3.740
85332SOL    HW157828  12.137   2.825   3.769
85332SOL    HW257829  12.211   2.928   3.686
85333SOL     OW57830  11.928  10.974   5.743
85333SOL    HW157831  12.002  10.939   5.693
85333SOL    HW257832  11.862  10.906   5.739
85334SOL     OW57833  13.025  10.482  14.646
85334SOL    HW157834  13.000  10.492  14.738
85334SOL    HW257835  13.116  10.453  14.649
85335SOL     OW57836   8.482   5.682   1.564
85335SOL    HW157837   8.442   5.711   1.482
85335SOL    HW257838   8.499   5.588   1.550
85336SOL     OW57839   7.608  14.740   2.698
85336SOL    HW157840   7.623  14.660   2.748
85336SOL    HW257841   7.513  14.751   2.698
85337SOL     OW57842   2.029   2.592   1.771
85337SOL    HW157843   2.061   2.561   1.856
85337SOL    HW257844   1.947   2.545   1.757
85338SOL     OW57845   1.229  13.684   0.878
85338SOL    HW157846   1.176  13.718   0.950
85338SOL    HW257847   1.280  13.613   0.917
85339SOL     OW57848  10.418   0.096  12.756
85339SOL    HW157849  10.373   0.016  12.783
85339SOL    HW257850  10.456   0.076  12.671
85340SOL     OW57851   5.985   9.650   1.921
85340SOL    HW157852   5.894   9.622   1.930
85340SOL    HW257853   6.035   9.568   1.914
85341SOL     OW57854  11.279  14.433   5.714
85341SOL    HW157855  11.204  14.425   5.774
85341SOL    HW257856  11.354  14.406   5.767
85342SOL     OW57857   0.539   0.031   3.419
85342SOL    HW157858   0.560  14.836   3.358
85342SOL    HW257859   0.467   0.078   3.377
85343SOL     OW57860  13.811   4.779   2.037
85343SOL    HW157861  13.759   4.702   2.060
85343SOL    HW257862  13.844   4.812   2.120
85344SOL     OW57863  14.085  14.023   8.829
85344SOL    HW157864  14.128  14.071   8.900
85344SOL    HW257865  14.153  13.965   8.795
85345SOL     OW57866  11.516   8.287   1.733
85345SOL    HW157867  11.608   8.266   1.750
85345SOL    HW257868  11.471   8.203   1.741
85346SOL     OW57869   4.781   3.449  14.318
85346SOL    HW157870   4.748   3.376  14.266
85346SOL    HW257871   4.812   3.410  14.399
85347SOL     OW57872   4.663   4.634   8.357
85347SOL    HW157873   4.612   4.652   8.278
85347SOL    HW257874   4.754   4.635   8.327
85348SOL     OW57875  11.694   7.605   2.753
85348SOL    HW157876  11.732   7.646   2.676
85348SOL    HW257877  11.752   7.632   2.825
85349SOL     OW57878   6.485   6.373  11.513
85349SOL    HW157879   6.419   6.371  11.443
85349SOL    HW257880   6.438   6.407  11.589
85350SOL     OW57881   0.765   6.464   6.475
85350SOL    HW157882   0.742   6.545   6.520
85350SOL    HW257883   0.710   6.397   6.516
85351SOL     OW57884   8.608   5.670  13.588
85351SOL    HW157885   8.617   5.586  13.542
85351SOL    HW257886   8.530   5.659  13.642
85352SOL     OW57887   9.041   1.713   0.373
85352SOL    HW157888   9.091   1.770   0.431
85352SOL    HW257889   8.960   1.695   0.421
85353SOL     OW57890  10.992   6.529   3.991
85353SOL    HW157891  10.976   6.592   3.920
85353SOL    HW257892  11.030   6.581   4.062
85354SOL     OW57893   1.673  12.846   0.309
85354SOL    HW157894   1.751  12.896   0.284
85354SOL    HW257895   1.695  12.756   0.286
85355SOL     OW57896  14.596  12.127   8.813
85355SOL    HW157897  14.557  12.214   8.809
85355SOL    HW257898  14.532  12.075   8.862
85356SOL     OW57899   1.742  14.047   8.157
85356SOL    HW157900   1.799  14.087   8.223
85356SOL    HW257901   1.721  13.961   8.193
85357SOL     OW57902   7.246   7.022   4.878
85357SOL    HW157903   7.273   7.091   4.938
85357SOL    HW257904   7.325   6.970   4.864
85358SOL     OW57905   4.144   5.212   7.294
85358SOL    HW157906   4.071   5.264   7.260
85358SOL    HW257907   4.180   5.168   7.217
85359SOL     OW57908  12.341   7.492   5.043
85359SOL    HW157909  12.255   7.482   5.084
85359SOL    HW257910  12.392   7.544   5.106
85360SOL     OW57911   1.768   6.046   9.046
85360SOL    HW157912   1.815   5.970   9.012
85360SOL    HW257913   1.795   6.118   8.988
85361SOL     OW57914   5.084  13.416   3.839
85361SOL    HW157915   5.147  13.467   3.789
85361SOL    HW257916   5.017  13.480   3.866
85362SOL     OW57917   8.767   5.483  12.444
85362SOL    HW157918   8.851   5.448  12.474
85362SOL    HW257919   8.732   5.416  12.387
85363SOL     OW57920   2.130  11.127  12.192
85363SOL    HW157921   2.197  11.061  12.177
85363SOL    HW257922   2.053  11.095  12.145
85364SOL     OW57923   7.056   7.283   9.536
85364SOL    HW157924   7.050   7.371   9.572
85364SOL    HW257925   7.030   7.292   9.444
85365SOL     OW57926   3.117  12.410   7.736
85365SOL    HW157927   3.175  12.453   7.672
85365SOL    HW257928   3.085  12.332   7.692
85366SOL     OW57929   5.313   7.185   1.097
85366SOL    HW157930   5.375   7.139   1.040
85366SOL    HW257931   5.319   7.277   1.069
85367SOL     OW57932  13.388  14.476   9.923
85367SOL    HW157933  13.382  14.478  10.018
85367SOL    HW257934  13.408  14.385   9.902
85368SOL     OW57935   6.941  10.897   4.792
85368SOL    HW157936   6.937  10.940   4.706
85368SOL    HW257937   6.897  10.813   4.778
85369SOL     OW57938   3.068   6.260   1.293
85369SOL    HW157939   3.084   6.168   1.272
85369SOL    HW257940   3.011   6.257   1.370
85370SOL     OW57941  13.877   6.279   2.402
85370SOL    HW157942  13.821   6.266   2.326
85370SOL    HW257943  13.866   6.371   2.425
85371SOL     OW57944   0.920   1.359   3.696
85371SOL    HW157945   0.947   1.411   3.620
85371SOL    HW257946   0.899   1.273   3.660
85372SOL     OW57947   1.841   5.080   9.140
85372SOL    HW157948   1.801   5.128   9.067
85372SOL    HW257949   1.825   5.136   9.217
85373SOL     OW57950  12.005   3.642   6.452
85373SOL    HW157951  12.030   3.709   6.388
85373SOL    HW257952  11.954   3.579   6.402
85374SOL     OW57953   5.981   5.169   7.845
85374SOL    HW157954   6.064   5.206   7.874
85374SOL    HW257955   5.985   5.174   7.749
85375SOL     OW57956   7.271  14.135  13.480
85375SOL    HW157957   7.292  14.219  13.522
85375SOL    HW257958   7.261  14.074  13.552
85376SOL     OW57959   7.091  11.565   4.146
85376SOL    HW157960   7.069  11.607   4.063
85376SOL    HW257961   7.059  11.475   4.136
85377SOL     OW57962  13.216   1.561   2.061
85377SOL    HW157963  13.128   1.550   2.095
85377SOL    HW257964  13.257   1.623   2.121
85378SOL     OW57965  10.120   3.405   4.527
85378SOL    HW157966  10.108   3.475   4.592
85378SOL    HW257967  10.174   3.445   4.459
85379SOL     OW57968   5.621   4.102   4.863
85379SOL    HW157969   5.635   4.092   4.957
85379SOL    HW257970   5.646   4.017   4.826
85380SOL     OW57971  12.476   8.917  11.092
85380SOL    HW157972  12.444   8.845  11.147
85380SOL    HW257973  12.471   8.994  11.149
85381SOL     OW57974   4.878   7.087  11.135
85381SOL    HW157975   4.912   7.176  11.144
85381SOL    HW257976   4.944   7.032  11.178
85382SOL     OW57977   7.459   7.806   6.317
85382SOL    HW157978   7.529   7.787   6.380
85382SOL    HW257979   7.391   7.848   6.368
85383SOL     OW57980   8.872   9.386  10.665
85383SOL    HW157981   8.834   9.338  10.591
85383SOL    HW257982   8.954   9.422  10.631
85384SOL     OW57983   9.528  12.439   9.744
85384SOL    HW157984   9.482  12.523   9.750
85384SOL    HW257985   9.588  12.438   9.818
85385SOL     OW57986  11.502   3.289   3.231
85385SOL    HW157987  11.535   3.291   3.321
85385SOL    HW257988  11.429   3.351   3.231
85386SOL     OW57989   7.071   9.725  11.929
85386SOL    HW157990   7.018   9.805  11.932
85386SOL    HW257991   7.025   9.663  11.985
85387SOL     OW57992   7.548   5.193   6.276
85387SOL    HW157993   7.620   5.155   6.226
85387SOL    HW257994   7.497   5.243   6.212
85388SOL     OW57995   6.718   7.217   1.499
85388SOL    HW157996   6.693   7.233   1.591
85388SOL    HW257997   6.644   7.168   1.463
85389SOL     OW57998   1.771  14.275   0.909
85389SOL    HW157999   1.775  14.264   0.814
85389SOL    HW258000   1.742  14.365   0.922
85390SOL     OW58001   7.464   6.313   3.484
85390SOL    HW158002   7.382   6.295   3.530
85390SOL    HW258003   7.445   6.390   3.430
85391SOL     OW58004   1.566  10.101  10.050
85391SOL    HW158005   1.639  10.090  10.111
85391SOL    HW258006   1.530  10.187  10.071
85392SOL     OW58007  11.278  11.359   7.849
85392SOL    HW158008  11.227  11.439   7.863
85392SOL    HW258009  11.342  11.384   7.782
85393SOL     OW58010  13.074  14.810   3.470
85393SOL    HW158011  13.128   0.003   3.507
85393SOL    HW258012  13.132  14.733   3.466
85394SOL     OW58013   0.468   4.566  11.972
85394SOL    HW158014   0.382   4.590  12.006
85394SOL    HW258015   0.480   4.475  11.999
85395SOL     OW58016   8.394   0.519  10.227
85395SOL    HW158017   8.425   0.586  10.165
85395SOL    HW258018   8.366   0.447  10.172
85396SOL     OW58019   5.599  14.403  14.741
85396SOL    HW158020   5.616  14.432  14.831
85396SOL    HW258021   5.643  14.319  14.735
85397SOL     OW58022  10.968   0.668   5.646
85397SOL    HW158023  11.024   0.743   5.666
85397SOL    HW258024  10.998   0.599   5.706
85398SOL     OW58025   5.892  11.395   9.046
85398SOL    HW158026   5.908  11.364   8.957
85398SOL    HW258027   5.898  11.491   9.040
85399SOL     OW58028   5.269   9.642  13.194
85399SOL    HW158029   5.194   9.662  13.251
85399SOL    HW258030   5.318   9.724  13.190
85400SOL     OW58031   5.242   6.349   5.375
85400SOL    HW158032   5.207   6.260   5.382
85400SOL    HW258033   5.214   6.392   5.456
85401SOL     OW58034  12.468   1.471   5.137
85401SOL    HW158035  12.457   1.499   5.228
85401SOL    HW258036  12.446   1.549   5.086
85402SOL     OW58037   4.220   2.091   7.750
85402SOL    HW158038   4.134   2.053   7.764
85402SOL    HW258039   4.236   2.143   7.829
85403SOL     OW58040  12.332   2.756   6.957
85403SOL    HW158041  12.365   2.837   6.919
85403SOL    HW258042  12.298   2.782   7.043
85404SOL     OW58043  14.742   6.416   0.274
85404SOL    HW158044  14.806   6.483   0.249
85404SOL    HW258045  14.791   6.357   0.331
85405SOL     OW58046   7.070   7.128   3.793
85405SOL    HW158047   7.144   7.070   3.813
85405SOL    HW258048   7.110   7.205   3.752
85406SOL     OW58049  13.048   7.017   2.809
85406SOL    HW158050  12.994   6.964   2.751
85406SOL    HW258051  13.102   6.953   2.857
85407SOL     OW58052   8.539   8.006  13.328
85407SOL    HW158053   8.447   7.981  13.332
85407SOL    HW258054   8.587   7.927  13.356
85408SOL     OW58055   4.602  12.851   4.672
85408SOL    HW158056   4.688  12.889   4.658
85408SOL    HW258057   4.618  12.757   4.679
85409SOL     OW58058   1.867   8.558   3.329
85409SOL    HW158059   1.807   8.628   3.302
85409SOL    HW258060   1.937   8.560   3.264
85410SOL     OW58061  11.434   0.851  10.770
85410SOL    HW158062  11.413   0.759  10.760
85410SOL    HW258063  11.495   0.870  10.699
85411SOL     OW58064   1.430   0.300  13.323
85411SOL    HW158065   1.360   0.362  13.305
85411SOL    HW258066   1.386   0.219  13.348
85412SOL     OW58067   1.988  10.815   4.315
85412SOL    HW158068   2.010  10.825   4.407
85412SOL    HW258069   1.906  10.865   4.304
85413SOL     OW58070   2.124   8.649  13.036
85413SOL    HW158071   2.196   8.662  12.975
85413SOL    HW258072   2.107   8.736  13.072
85414SOL     OW58073   5.119   7.299   5.445
85414SOL    HW158074   5.212   7.320   5.437
85414SOL    HW258075   5.074   7.384   5.439
85415SOL     OW58076   8.387   6.814   5.913
85415SOL    HW158077   8.333   6.754   5.862
85415SOL    HW258078   8.353   6.809   6.002
85416SOL     OW58079  13.665  10.887   1.334
85416SOL    HW158080  13.647  10.889   1.428
85416SOL    HW258081  13.595  10.833   1.297
85417SOL     OW58082   9.013   4.765  10.327
85417SOL    HW158083   9.106   4.747  10.322
85417SOL    HW258084   8.978   4.732  10.244
85418SOL     OW58085  10.895   5.160   3.411
85418SOL    HW158086  10.809   5.157   3.369
85418SOL    HW258087  10.878   5.195   3.498
85419SOL     OW58088  14.475   1.843   0.891
85419SOL    HW158089  14.530   1.765   0.891
85419SOL    HW258090  14.408   1.826   0.826
85420SOL     OW58091  13.652   1.188   8.776
85420SOL    HW158092  13.653   1.093   8.772
85420SOL    HW258093  13.717   1.216   8.712
85421SOL     OW58094  14.162   7.186   6.538
85421SOL    HW158095  14.207   7.200   6.455
85421SOL    HW258096  14.069   7.190   6.516
85422SOL     OW58097   1.403   9.418  12.911
85422SOL    HW158098   1.463   9.390  12.842
85422SOL    HW258099   1.349   9.486  12.870
85423SOL     OW58100  13.682   5.449  10.565
85423SOL    HW158101  13.772   5.461  10.535
85423SOL    HW258102  13.628   5.492  10.499
85424SOL     OW58103   2.800   4.931   2.588
85424SOL    HW158104   2.763   5.017   2.566
85424SOL    HW258105   2.798   4.928   2.684
85425SOL     OW58106   3.154  13.625   8.300
85425SOL    HW158107   3.184  13.716   8.305
85425SOL    HW258108   3.168  13.591   8.388
85426SOL     OW58109   9.086   7.311  13.663
85426SOL    HW158110   9.043   7.396  13.676
85426SOL    HW258111   9.050   7.278  13.581
85427SOL     OW58112  11.206   1.977  12.662
85427SOL    HW158113  11.292   2.019  12.654
85427SOL    HW258114  11.211   1.928  12.744
85428SOL     OW58115   8.821  12.313   9.784
85428SOL    HW158116   8.903  12.305   9.832
85428SOL    HW258117   8.823  12.240   9.721
85429SOL     OW58118  11.676  13.215  10.158
85429SOL    HW158119  11.605  13.263  10.114
85429SOL    HW258120  11.630  13.152  10.215
85430SOL     OW58121   9.956  12.699   2.608
85430SOL    HW158122   9.924  12.774   2.558
85430SOL    HW258123   9.878  12.662   2.649
85431SOL     OW58124  12.462   3.079   1.441
85431SOL    HW158125  12.552   3.098   1.466
85431SOL    HW258126  12.452   3.117   1.354
85432SOL     OW58127   0.375   9.756   1.378
85432SOL    HW158128   0.309   9.815   1.341
85432SOL    HW258129   0.374   9.774   1.472
85433SOL     OW58130   9.878   2.470   9.102
85433SOL    HW158131   9.846   2.380   9.103
85433SOL    HW258132   9.901   2.488   9.194
85434SOL     OW58133  14.064   3.310   9.563
85434SOL    HW158134  14.129   3.260   9.612
85434SOL    HW258135  14.030   3.373   9.626
85435SOL     OW58136  10.041  10.894  10.025
85435SOL    HW158137   9.987  10.960  10.069
85435SOL    HW258138  10.128  10.933  10.022
85436SOL     OW58139  10.752   7.930  11.979
85436SOL    HW158140  10.750   8.024  11.999
85436SOL    HW258141  10.704   7.890  12.051
85437SOL     OW58142   2.588   5.583   7.798
85437SOL    HW158143   2.645   5.657   7.822
85437SOL    HW258144   2.511   5.623   7.760
85438SOL     OW58145  10.654   7.598   0.628
85438SOL    HW158146  10.715   7.534   0.665
85438SOL    HW258147  10.572   7.584   0.676
85439SOL     OW58148  12.295  13.654   7.680
85439SOL    HW158149  12.211  13.647   7.725
85439SOL    HW258150  12.347  13.582   7.717
85440SOL     OW58151   2.256   0.911  12.280
85440SOL    HW158152   2.211   0.917  12.196
85440SOL    HW258153   2.349   0.923  12.258
85441SOL     OW58154  13.828   1.993   7.278
85441SOL    HW158155  13.882   1.916   7.294
85441SOL    HW258156  13.761   1.990   7.346
85442SOL     OW58157  10.184  11.679   7.893
85442SOL    HW158158  10.265  11.722   7.922
85442SOL    HW258159  10.167  11.612   7.960
85443SOL     OW58160   8.541   1.514  13.771
85443SOL    HW158161   8.523   1.537  13.680
85443SOL    HW258162   8.626   1.555  13.789
85444SOL     OW58163  14.200   7.341   1.179
85444SOL    HW158164  14.244   7.416   1.139
85444SOL    HW258165  14.193   7.364   1.271
85445SOL     OW58166   3.599   7.132   9.989
85445SOL    HW158167   3.564   7.046   9.967
85445SOL    HW258168   3.562   7.191   9.924
85446SOL     OW58169  13.736   7.685  11.753
85446SOL    HW158170  13.733   7.634  11.834
85446SOL    HW258171  13.828   7.711  11.744
85447SOL     OW58172  10.599  14.875   7.580
85447SOL    HW158173  10.517  14.866   7.627
85447SOL    HW258174  10.576  14.864   7.488
85448SOL     OW58175   7.812   4.670  10.335
85448SOL    HW158176   7.806   4.624  10.419
85448SOL    HW258177   7.873   4.618  10.284
85449SOL     OW58178  14.570   3.568   1.510
85449SOL    HW158179  14.574   3.640   1.447
85449SOL    HW258180  14.629   3.594   1.580
85450SOL     OW58181   5.799   9.026   0.018
85450SOL    HW158182   5.882   9.059   0.051
85450SOL    HW258183   5.753   8.994   0.095
85451SOL     OW58184  11.632   8.249   9.292
85451SOL    HW158185  11.589   8.214   9.370
85451SOL    HW258186  11.579   8.325   9.268
85452SOL     OW58187   4.757   8.307   5.893
85452SOL    HW158188   4.721   8.386   5.933
85452SOL    HW258189   4.842   8.334   5.858
85453SOL     OW58190   1.178   4.721   9.160
85453SOL    HW158191   1.253   4.764   9.119
85453SOL    HW258192   1.125   4.793   9.193
85454SOL     OW58193   6.107   1.697   8.124
85454SOL    HW158194   6.070   1.642   8.193
85454SOL    HW258195   6.167   1.640   8.076
85455SOL     OW58196   0.104   9.544   6.409
85455SOL    HW158197   0.131   9.453   6.398
85455SOL    HW258198   0.011   9.544   6.390
85456SOL     OW58199  12.384   7.372   8.973
85456SOL    HW158200  12.419   7.420   9.048
85456SOL    HW258201  12.389   7.434   8.900
85457SOL     OW58202   1.957  14.740   8.523
85457SOL    HW158203   1.897  14.767   8.593
85457SOL    HW258204   2.044  14.762   8.557
85458SOL     OW58205   4.872   3.667   3.026
85458SOL    HW158206   4.878   3.759   3.053
85458SOL    HW258207   4.960   3.632   3.039
85459SOL     OW58208  10.566   3.036   4.863
85459SOL    HW158209  10.502   3.081   4.807
85459SOL    HW258210  10.630   3.104   4.885
85460SOL     OW58211   4.640   7.247  14.709
85460SOL    HW158212   4.552   7.282  14.694
85460SOL    HW258213   4.693   7.284  14.638
85461SOL     OW58214   3.857   6.391   3.892
85461SOL    HW158215   3.888   6.469   3.845
85461SOL    HW258216   3.762   6.404   3.899
85462SOL     OW58217   2.810  13.270  12.069
85462SOL    HW158218   2.727  13.252  12.025
85462SOL    HW258219   2.785  13.305  12.154
85463SOL     OW58220   5.535  13.675   3.630
85463SOL    HW158221   5.553  13.751   3.574
85463SOL    HW258222   5.616  13.625   3.628
85464SOL     OW58223  11.866   2.629   5.957
85464SOL    HW158224  11.846   2.696   6.022
85464SOL    HW258225  11.861   2.674   5.873
85465SOL     OW58226  12.912  13.735   6.693
85465SOL    HW158227  12.908  13.681   6.614
85465SOL    HW258228  12.989  13.790   6.680
85466SOL     OW58229  13.634   5.229   3.529
85466SOL    HW158230  13.555   5.233   3.583
85466SOL    HW258231  13.679   5.150   3.558
85467SOL     OW58232   4.371  12.125   2.606
85467SOL    HW158233   4.323  12.206   2.620
85467SOL    HW258234   4.307  12.065   2.567
85468SOL     OW58235   5.160   3.106   3.816
85468SOL    HW158236   5.254   3.116   3.834
85468SOL    HW258237   5.139   3.179   3.758
85469SOL     OW58238  10.469  12.349   7.533
85469SOL    HW158239  10.441  12.393   7.453
85469SOL    HW258240  10.391  12.348   7.588
85470SOL     OW58241  11.659   4.971   2.064
85470SOL    HW158242  11.629   4.896   2.114
85470SOL    HW258243  11.744   4.994   2.102
85471SOL     OW58244  12.403  12.940   5.415
85471SOL    HW158245  12.312  12.911   5.423
85471SOL    HW258246  12.419  12.990   5.495
85472SOL     OW58247  11.427   8.089   8.879
85472SOL    HW158248  11.390   8.167   8.838
85472SOL    HW258249  11.369   8.018   8.854
85473SOL     OW58250  11.726   3.148   7.213
85473SOL    HW158251  11.687   3.204   7.145
85473SOL    HW258252  11.778   3.084   7.164
85474SOL     OW58253   0.214   6.363  14.548
85474SOL    HW158254   0.121   6.379  14.559
85474SOL    HW258255   0.230   6.281  14.595
85475SOL     OW58256  13.300   1.763   2.806
85475SOL    HW158257  13.240   1.835   2.786
85475SOL    HW258258  13.243   1.690   2.829
85476SOL     OW58259  13.511   3.149   2.325
85476SOL    HW158260  13.419   3.139   2.348
85476SOL    HW258261  13.517   3.118   2.235
85477SOL     OW58262  12.366   3.112   7.992
85477SOL    HW158263  12.403   3.070   8.070
85477SOL    HW258264  12.401   3.060   7.919
85478SOL     OW58265   3.456   4.783   3.692
85478SOL    HW158266   3.423   4.718   3.753
85478SOL    HW258267   3.546   4.756   3.674
85479SOL     OW58268  12.583   3.387   8.530
85479SOL    HW158269  12.555   3.361   8.442
85479SOL    HW258270  12.677   3.370   8.532
85480SOL     OW58271   1.864   7.574   4.911
85480SOL    HW158272   1.952   7.600   4.883
85480SOL    HW258273   1.876   7.490   4.955
85481SOL     OW58274  13.916   3.536   6.844
85481SOL    HW158275  13.852   3.603   6.865
85481SOL    HW258276  13.919   3.534   6.749
85482SOL     OW58277   3.261  11.945  10.809
85482SOL    HW158278   3.287  11.869  10.861
85482SOL    HW258279   3.167  11.933  10.795
85483SOL     OW58280  11.930   7.610  12.155
85483SOL    HW158281  11.969   7.554  12.088
85483SOL    HW258282  11.954   7.699  12.128
85484SOL     OW58283   5.401   8.420   0.136
85484SOL    HW158284   5.477   8.477   0.144
85484SOL    HW258285   5.400   8.369   0.218
85485SOL     OW58286   8.295   7.577  14.509
85485SOL    HW158287   8.226   7.600  14.447
85485SOL    HW258288   8.262   7.606  14.594
85486SOL     OW58289   7.582   1.982  11.003
85486SOL    HW158290   7.491   2.013  11.004
85486SOL    HW258291   7.577   1.892  11.037
85487SOL     OW58292   3.342  13.777  11.548
85487SOL    HW158293   3.421  13.778  11.602
85487SOL    HW258294   3.293  13.855  11.575
85488SOL     OW58295   1.268   4.970   2.905
85488SOL    HW158296   1.282   5.064   2.912
85488SOL    HW258297   1.250   4.942   2.995
85489SOL     OW58298   5.463  11.228   5.832
85489SOL    HW158299   5.556  11.216   5.814
85489SOL    HW258300   5.441  11.312   5.793
85490SOL     OW58301   8.235  10.109   0.294
85490SOL    HW158302   8.161  10.167   0.314
85490SOL    HW258303   8.254  10.126   0.202
85491SOL     OW58304   4.446   1.658   6.267
85491SOL    HW158305   4.497   1.579   6.248
85491SOL    HW258306   4.499   1.729   6.231
85492SOL     OW58307  14.604  14.813   3.305
85492SOL    HW158308  14.572  14.723   3.297
85492SOL    HW258309  14.634  14.820   3.395
85493SOL     OW58310   8.502   4.630  12.077
85493SOL    HW158311   8.494   4.725  12.088
85493SOL    HW258312   8.433   4.594  12.133
85494SOL     OW58313   0.453   4.822   4.673
85494SOL    HW158314   0.392   4.749   4.673
85494SOL    HW258315   0.539   4.782   4.686
85495SOL     OW58316  10.256  14.257   0.928
85495SOL    HW158317  10.319  14.274   0.999
85495SOL    HW258318  10.305  14.205   0.865
85496SOL     OW58319   3.790   9.142   8.690
85496SOL    HW158320   3.704   9.144   8.731
85496SOL    HW258321   3.774   9.109   8.601
85497SOL     OW58322   8.025   4.388  12.484
85497SOL    HW158323   7.989   4.302  12.462
85497SOL    HW258324   8.114   4.386  12.449
85498SOL     OW58325   0.039   9.158  12.642
85498SOL    HW158326   0.073   9.245  12.626
85498SOL    HW258327   0.103   9.117  12.700
85499SOL     OW58328   6.121   7.127  10.825
85499SOL    HW158329   6.212   7.132  10.855
85499SOL    HW258330   6.070   7.110  10.904
85500SOL     OW58331  13.459  10.348   7.442
85500SOL    HW158332  13.501  10.434   7.435
85500SOL    HW258333  13.380  10.363   7.493
85501SOL     OW58334   9.838   1.363  10.260
85501SOL    HW158335   9.908   1.417  10.222
85501SOL    HW258336   9.867   1.273  10.244
85502SOL     OW58337  12.185   4.578   5.301
85502SOL    HW158338  12.211   4.652   5.356
85502SOL    HW258339  12.263   4.523   5.297
85503SOL     OW58340   7.338   3.214  14.479
85503SOL    HW158341   7.411   3.267  14.448
85503SOL    HW258342   7.354   3.127  14.443
85504SOL     OW58343   3.985   0.695   4.517
85504SOL    HW158344   4.019   0.687   4.606
85504SOL    HW258345   3.993   0.608   4.480
85505SOL     OW58346  14.293  13.839  10.578
85505SOL    HW158347  14.383  13.856  10.553
85505SOL    HW258348  14.242  13.905  10.531
85506SOL     OW58349   7.654  14.815  11.264
85506SOL    HW158350   7.662   0.032  11.242
85506SOL    HW258351   7.568  14.808  11.306
85507SOL     OW58352   5.105   0.649   9.834
85507SOL    HW158353   5.021   0.676   9.797
85507SOL    HW258354   5.128   0.719   9.895
85508SOL     OW58355   4.047   5.869   2.025
85508SOL    HW158356   4.103   5.798   2.056
85508SOL    HW258357   3.958   5.837   2.041
85509SOL     OW58358   5.968   1.991   0.336
85509SOL    HW158359   5.874   1.978   0.321
85509SOL    HW258360   5.997   2.046   0.263
85510SOL     OW58361   0.558   1.324   6.959
85510SOL    HW158362   0.463   1.312   6.965
85510SOL    HW258363   0.594   1.243   6.995
85511SOL     OW58364  13.482   2.141  11.426
85511SOL    HW158365  13.564   2.112  11.386
85511SOL    HW258366  13.444   2.201  11.362
85512SOL     OW58367   5.750   3.045   0.379
85512SOL    HW158368   5.763   3.027   0.472
85512SOL    HW258369   5.822   2.999   0.335
85513SOL     OW58370   9.010   5.386  11.941
85513SOL    HW158371   8.935   5.423  11.894
85513SOL    HW258372   9.085   5.404  11.885
85514SOL     OW58373  10.648  12.684   7.241
85514SOL    HW158374  10.744  12.676   7.239
85514SOL    HW258375  10.633  12.764   7.292
85515SOL     OW58376   1.014   9.304   6.526
85515SOL    HW158377   1.024   9.340   6.615
85515SOL    HW258378   1.085   9.344   6.476
85516SOL     OW58379   4.353   9.411   0.301
85516SOL    HW158380   4.411   9.484   0.321
85516SOL    HW258381   4.273   9.429   0.350
85517SOL     OW58382  10.791   3.885  11.209
85517SOL    HW158383  10.805   3.974  11.174
85517SOL    HW258384  10.713   3.854  11.164
85518SOL     OW58385   2.779  11.081   4.109
85518SOL    HW158386   2.700  11.069   4.162
85518SOL    HW258387   2.850  11.086   4.173
85519SOL     OW58388   8.665  11.749   5.068
85519SOL    HW158389   8.597  11.790   5.016
85519SOL    HW258390   8.664  11.657   5.042
85520SOL     OW58391   7.004   8.101  12.904
85520SOL    HW158392   6.997   8.138  12.816
85520SOL    HW258393   7.095   8.075  12.912
85521SOL     OW58394   5.563   6.867   0.226
85521SOL    HW158395   5.611   6.888   0.145
85521SOL    HW258396   5.579   6.773   0.238
85522SOL     OW58397   7.021  11.749   3.166
85522SOL    HW158398   7.082  11.684   3.202
85522SOL    HW258399   7.062  11.833   3.187
85523SOL     OW58400  13.262  14.611   6.707
85523SOL    HW158401  13.184  14.658   6.678
85523SOL    HW258402  13.328  14.680   6.720
85524SOL     OW58403   3.516   3.161   1.089
85524SOL    HW158404   3.448   3.228   1.094
85524SOL    HW258405   3.509   3.113   1.171
85525SOL     OW58406  13.850   9.969   2.145
85525SOL    HW158407  13.801   9.927   2.216
85525SOL    HW258408  13.931  10.000   2.187
85526SOL     OW58409   0.582  13.659  11.468
85526SOL    HW158410   0.496  13.625  11.493
85526SOL    HW258411   0.606  13.610  11.390
85527SOL     OW58412  14.820   8.836   3.029
85527SOL    HW158413  14.813   8.763   2.968
85527SOL    HW258414  14.823   8.914   2.973
85528SOL     OW58415  11.719   2.364   6.635
85528SOL    HW158416  11.690   2.309   6.708
85528SOL    HW258417  11.734   2.302   6.563
85529SOL     OW58418   4.160  12.113  12.805
85529SOL    HW158419   4.183  12.021  12.820
85529SOL    HW258420   4.243  12.159  12.805
85530SOL     OW58421   9.694   8.509  10.498
85530SOL    HW158422   9.637   8.577  10.463
85530SOL    HW258423   9.782   8.545  10.491
85531SOL     OW58424   6.187  14.601   1.617
85531SOL    HW158425   6.229  14.522   1.583
85531SOL    HW258426   6.245  14.631   1.687
85532SOL     OW58427  10.316   5.734  13.646
85532SOL    HW158428  10.355   5.782  13.720
85532SOL    HW258429  10.286   5.802  13.587
85533SOL     OW58430   2.975  12.871   3.258
85533SOL    HW158431   2.973  12.921   3.339
85533SOL    HW258432   2.966  12.780   3.286
85534SOL     OW58433  11.293   1.971   3.659
85534SOL    HW158434  11.285   1.924   3.576
85534SOL    HW258435  11.342   1.912   3.716
85535SOL     OW58436  11.423   7.777  14.720
85535SOL    HW158437  11.350   7.740  14.771
85535SOL    HW258438  11.485   7.808  14.787
85536SOL     OW58439  11.121   9.358   1.594
85536SOL    HW158440  11.130   9.366   1.499
85536SOL    HW258441  11.165   9.276   1.615
85537SOL     OW58442   4.242   6.778  14.375
85537SOL    HW158443   4.336   6.770  14.355
85537SOL    HW258444   4.207   6.832  14.304
85538SOL     OW58445   1.485   4.931  14.207
85538SOL    HW158446   1.409   4.878  14.184
85538SOL    HW258447   1.514   4.894  14.291
85539SOL     OW58448  10.928   7.313  13.034
85539SOL    HW158449  10.986   7.389  13.035
85539SOL    HW258450  10.905   7.299  13.126
85540SOL     OW58451   9.466   5.321   8.867
85540SOL    HW158452   9.450   5.281   8.953
85540SOL    HW258453   9.510   5.253   8.816
85541SOL     OW58454  13.726   6.143   7.454
85541SOL    HW158455  13.699   6.074   7.394
85541SOL    HW258456  13.752   6.215   7.397
85542SOL     OW58457   9.311  14.160   3.553
85542SOL    HW158458   9.357  14.206   3.482
85542SOL    HW258459   9.243  14.109   3.508
85543SOL     OW58460  13.984  12.089  11.927
85543SOL    HW158461  14.041  12.146  11.978
85543SOL    HW258462  14.043  12.023  11.891
85544SOL     OW58463   8.524   1.561   4.755
85544SOL    HW158464   8.510   1.608   4.673
85544SOL    HW258465   8.529   1.630   4.821
85545SOL     OW58466  10.271   6.461  14.795
85545SOL    HW158467  10.297   6.553  14.800
85545SOL    HW258468  10.338   6.415  14.845
85546SOL     OW58469   7.457  12.959   9.937
85546SOL    HW158470   7.472  12.865   9.947
85546SOL    HW258471   7.362  12.968   9.938
85547SOL     OW58472  12.710  12.665   1.857
85547SOL    HW158473  12.737  12.750   1.892
85547SOL    HW258474  12.678  12.685   1.769
85548SOL     OW58475   4.788  14.560   7.359
85548SOL    HW158476   4.786  14.469   7.331
85548SOL    HW258477   4.726  14.564   7.432
85549SOL     OW58478   2.550  12.988  11.173
85549SOL    HW158479   2.517  12.898  11.178
85549SOL    HW258480   2.534  13.024  11.260
85550SOL     OW58481  13.043  11.859   1.788
85550SOL    HW158482  13.031  11.952   1.808
85550SOL    HW258483  13.138  11.848   1.784
85551SOL     OW58484   7.379   6.228  14.048
85551SOL    HW158485   7.302   6.181  14.016
85551SOL    HW258486   7.355   6.257  14.136
85552SOL     OW58487  14.162   2.584   9.725
85552SOL    HW158488  14.170   2.591   9.820
85552SOL    HW258489  14.077   2.622   9.704
85553SOL     OW58490  11.433   6.654   9.483
85553SOL    HW158491  11.463   6.688   9.567
85553SOL    HW258492  11.338   6.664   9.486
85554SOL     OW58493   2.761   4.153   6.010
85554SOL    HW158494   2.809   4.203   6.076
85554SOL    HW258495   2.670   4.179   6.021
85555SOL     OW58496   3.224   2.924   0.884
85555SOL    HW158497   3.157   2.950   0.820
85555SOL    HW258498   3.296   2.985   0.869
85556SOL     OW58499   5.981  11.046  10.338
85556SOL    HW158500   5.897  11.045  10.384
85556SOL    HW258501   6.002  10.954  10.324
85557SOL     OW58502  14.340   4.675  14.393
85557SOL    HW158503  14.382   4.748  14.348
85557SOL    HW258504  14.376   4.678  14.482
85558SOL     OW58505   8.101   1.267   4.660
85558SOL    HW158506   8.062   1.344   4.701
85558SOL    HW258507   8.195   1.277   4.673
85559SOL     OW58508   9.877   8.908   4.047
85559SOL    HW158509   9.925   8.892   3.966
85559SOL    HW258510   9.892   9.000   4.066
85560SOL     OW58511   0.778  14.820   7.758
85560SOL    HW158512   0.737  14.831   7.844
85560SOL    HW258513   0.716  14.767   7.708
85561SOL     OW58514   6.223  12.131  12.312
85561SOL    HW158515   6.168  12.054  12.328
85561SOL    HW258516   6.311  12.095  12.297
85562SOL     OW58517   9.189   5.211  12.566
85562SOL    HW158518   9.278   5.202  12.532
85562SOL    HW258519   9.190   5.166  12.651
85563SOL     OW58520   0.226  13.519  12.642
85563SOL    HW158521   0.201  13.428  12.656
85563SOL    HW258522   0.167  13.569  12.699
85564SOL     OW58523   0.954   9.883   0.904
85564SOL    HW158524   0.882   9.921   0.954
85564SOL    HW258525   0.916   9.806   0.862
85565SOL     OW58526   4.136   1.569   3.005
85565SOL    HW158527   4.156   1.650   2.959
85565SOL    HW258528   4.050   1.584   3.045
85566SOL     OW58529   4.406   7.943   7.894
85566SOL    HW158530   4.430   7.974   7.807
85566SOL    HW258531   4.432   7.851   7.895
85567SOL     OW58532  13.396  10.813   0.980
85567SOL    HW158533  13.309  10.798   1.017
85567SOL    HW258534  13.403  10.749   0.910
85568SOL     OW58535   5.110   3.091   2.011
85568SOL    HW158536   5.020   3.101   2.041
85568SOL    HW258537   5.139   3.181   1.992
85569SOL     OW58538  11.061   0.038   6.461
85569SOL    HW158539  10.971   0.014   6.442
85569SOL    HW258540  11.059   0.133   6.473
85570SOL     OW58541   1.953   7.075   0.412
85570SOL    HW158542   1.929   7.013   0.481
85570SOL    HW258543   1.917   7.037   0.332
85571SOL     OW58544  12.737   6.799  14.056
85571SOL    HW158545  12.680   6.722  14.058
85571SOL    HW258546  12.705   6.850  13.981
85572SOL     OW58547   4.241   8.322   8.405
85572SOL    HW158548   4.325   8.277   8.410
85572SOL    HW258549   4.180   8.267   8.454
85573SOL     OW58550   1.604   0.110   8.531
85573SOL    HW158551   1.642   0.097   8.444
85573SOL    HW258552   1.678   0.113   8.590
85574SOL     OW58553   1.752   4.648   3.722
85574SOL    HW158554   1.796   4.733   3.729
85574SOL    HW258555   1.787   4.597   3.795
85575SOL     OW58556  14.524  13.233   1.410
85575SOL    HW158557  14.613  13.202   1.393
85575SOL    HW258558  14.472  13.194   1.339
85576SOL     OW58559   4.095  11.688  12.078
85576SOL    HW158560   4.144  11.637  12.142
85576SOL    HW258561   4.093  11.632  12.000
85577SOL     OW58562   4.270   9.146   5.447
85577SOL    HW158563   4.254   9.134   5.540
85577SOL    HW258564   4.365   9.154   5.438
85578SOL     OW58565   4.296  11.296  11.662
85578SOL    HW158566   4.276  11.388  11.645
85578SOL    HW258567   4.234  11.248  11.606
85579SOL     OW58568   1.442   5.565   1.712
85579SOL    HW158569   1.462   5.575   1.805
85579SOL    HW258570   1.525   5.581   1.668
85580SOL     OW58571   9.082  12.734   9.251
85580SOL    HW158572   9.075  12.712   9.344
85580SOL    HW258573   9.164  12.694   9.223
85581SOL     OW58574  13.372   0.741   1.748
85581SOL    HW158575  13.346   0.691   1.826
85581SOL    HW258576  13.344   0.830   1.767
85582SOL     OW58577   7.199   4.844  10.842
85582SOL    HW158578   7.252   4.892  10.779
85582SOL    HW258579   7.121   4.818  10.793
85583SOL     OW58580   0.958   2.068  11.983
85583SOL    HW158581   0.950   2.163  11.989
85583SOL    HW258582   0.981   2.039  12.071
85584SOL     OW58583  10.145   4.554   2.204
85584SOL    HW158584  10.118   4.506   2.282
85584SOL    HW258585  10.067   4.557   2.149
85585SOL     OW58586   3.446  10.839  10.538
85585SOL    HW158587   3.369  10.785  10.557
85585SOL    HW258588   3.466  10.821  10.447
85586SOL     OW58589  14.216   4.344   1.868
85586SOL    HW158590  14.282   4.412   1.851
85586SOL    HW258591  14.251   4.266   1.824
85587SOL     OW58592   6.240   7.967  10.839
85587SOL    HW158593   6.264   8.051  10.800
85587SOL    HW258594   6.146   7.976  10.858
85588SOL     OW58595   8.616  14.629  11.155
85588SOL    HW158596   8.698  14.661  11.117
85588SOL    HW258597   8.547  14.670  11.103
85589SOL     OW58598  14.406   4.429  11.118
85589SOL    HW158599  14.434   4.475  11.197
85589SOL    HW258600  14.417   4.493  11.048
85590SOL     OW58601   8.857   4.657  11.580
85590SOL    HW158602   8.866   4.610  11.663
85590SOL    HW258603   8.767   4.688  11.581
85591SOL     OW58604   7.858   3.878   0.735
85591SOL    HW158605   7.786   3.880   0.799
85591SOL    HW258606   7.921   3.943   0.768
85592SOL     OW58607  14.411  10.963   8.674
85592SOL    HW158608  14.405  10.973   8.769
85592SOL    HW258609  14.495  10.920   8.660
85593SOL     OW58610  14.682   5.123   5.965
85593SOL    HW158611  14.713   5.176   5.891
85593SOL    HW258612  14.647   5.044   5.923
85594SOL     OW58613   1.578   6.035   1.899
85594SOL    HW158614   1.619   6.039   1.985
85594SOL    HW258615   1.584   6.124   1.865
85595SOL     OW58616   7.668   2.389   5.252
85595SOL    HW158617   7.593   2.427   5.298
85595SOL    HW258618   7.734   2.458   5.253
85596SOL     OW58619   0.846   5.223   1.844
85596SOL    HW158620   0.837   5.141   1.795
85596SOL    HW258621   0.920   5.268   1.803
85597SOL     OW58622   9.841  14.227   4.573
85597SOL    HW158623   9.807  14.316   4.566
85597SOL    HW258624   9.843  14.210   4.667
85598SOL     OW58625   6.929   4.266   2.267
85598SOL    HW158626   6.966   4.228   2.347
85598SOL    HW258627   7.005   4.293   2.216
85599SOL     OW58628   7.261   6.598   4.704
85599SOL    HW158629   7.166   6.608   4.708
85599SOL    HW258630   7.287   6.646   4.625
85600SOL     OW58631   2.424  12.814  11.817
85600SOL    HW158632   2.475  12.895  11.820
85600SOL    HW258633   2.488  12.747  11.795
85601SOL     OW58634   6.551  13.569  10.048
85601SOL    HW158635   6.535  13.545   9.957
85601SOL    HW258636   6.615  13.640  10.043
85602SOL     OW58637  14.266  10.742   9.508
85602SOL    HW158638  14.256  10.837   9.496
85602SOL    HW258639  14.245  10.727   9.600
85603SOL     OW58640   7.679  10.234  11.314
85603SOL    HW158641   7.639  10.224  11.227
85603SOL    HW258642   7.655  10.153  11.359
85604SOL     OW58643   8.459  12.073  13.804
85604SOL    HW158644   8.394  12.059  13.872
85604SOL    HW258645   8.476  12.167  13.806
85605SOL     OW58646  14.301  10.767   0.251
85605SOL    HW158647  14.234  10.733   0.311
85605SOL    HW258648  14.380  10.719   0.275
85606SOL     OW58649   3.213   9.909  11.126
85606SOL    HW158650   3.192   9.947  11.041
85606SOL    HW258651   3.243   9.984  11.179
85607SOL     OW58652  13.490  12.016   9.021
85607SOL    HW158653  13.510  12.074   9.095
85607SOL    HW258654  13.524  11.931   9.047
85608SOL     OW58655   0.741   5.437   5.584
85608SOL    HW158656   0.711   5.522   5.617
85608SOL    HW258657   0.692   5.373   5.635
85609SOL     OW58658   3.432  11.193  13.920
85609SOL    HW158659   3.361  11.133  13.943
85609SOL    HW258660   3.461  11.230  14.003
85610SOL     OW58661   9.286   9.441   8.980
85610SOL    HW158662   9.358   9.447   9.043
85610SOL    HW258663   9.220   9.501   9.015
85611SOL     OW58664   7.399   3.154   3.013
85611SOL    HW158665   7.484   3.185   3.044
85611SOL    HW258666   7.421   3.077   2.960
85612SOL     OW58667  12.977   2.435  13.517
85612SOL    HW158668  13.033   2.512  13.511
85612SOL    HW258669  12.944   2.422  13.429
85613SOL     OW58670  14.743  10.264   2.316
85613SOL    HW158671  14.708  10.321   2.247
85613SOL    HW258672  14.834  10.249   2.290
85614SOL     OW58673   7.013   1.195   1.595
85614SOL    HW158674   7.085   1.133   1.587
85614SOL    HW258675   7.054   1.276   1.625
85615SOL     OW58676  13.710  11.648  10.002
85615SOL    HW158677  13.727  11.615   9.913
85615SOL    HW258678  13.796  11.670  10.036
85616SOL     OW58679   2.609   6.833  14.541
85616SOL    HW158680   2.680   6.886  14.504
85616SOL    HW258681   2.582   6.881  14.619
85617SOL     OW58682  10.764   2.267   2.545
85617SOL    HW158683  10.699   2.335   2.528
85617SOL    HW258684  10.794   2.241   2.458
85618SOL     OW58685   8.663   5.506   4.989
85618SOL    HW158686   8.653   5.598   4.964
85618SOL    HW258687   8.580   5.466   4.964
85619SOL     OW58688  13.499   1.545  10.960
85619SOL    HW158689  13.559   1.536  10.886
85619SOL    HW258690  13.412   1.546  10.921
85620SOL     OW58691   2.371   0.013   9.132
85620SOL    HW158692   2.330  14.804   9.151
85620SOL    HW258693   2.322   0.046   9.057
85621SOL     OW58694  13.230   5.431   2.567
85621SOL    HW158695  13.203   5.520   2.591
85621SOL    HW258696  13.319   5.442   2.533
85622SOL     OW58697   4.588  13.953   3.156
85622SOL    HW158698   4.575  14.008   3.233
85622SOL    HW258699   4.627  13.873   3.189
85623SOL     OW58700   8.000  10.531   0.443
85623SOL    HW158701   8.031  10.617   0.471
85623SOL    HW258702   7.916  10.521   0.487
85624SOL     OW58703   9.118  12.849  11.593
85624SOL    HW158704   9.201  12.803  11.600
85624SOL    HW258705   9.054  12.781  11.571
85625SOL     OW58706   0.662  10.141   4.688
85625SOL    HW158707   0.629  10.209   4.747
85625SOL    HW258708   0.619  10.158   4.604
85626SOL     OW58709  11.993   0.290  12.181
85626SOL    HW158710  12.009   0.213  12.125
85626SOL    HW258711  11.937   0.257  12.251
85627SOL     OW58712  12.842  10.023   3.379
85627SOL    HW158713  12.867  10.052   3.467
85627SOL    HW258714  12.795  10.098   3.343
85628SOL     OW58715   4.698   6.262  11.737
85628SOL    HW158716   4.630   6.329  11.747
85628SOL    HW258717   4.703   6.220  11.823
85629SOL     OW58718  11.160  11.613   6.808
85629SOL    HW158719  11.202  11.684   6.759
85629SOL    HW258720  11.107  11.567   6.742
85630SOL     OW58721   4.762  14.649   8.123
85630SOL    HW158722   4.676  14.686   8.103
85630SOL    HW258723   4.788  14.605   8.042
85631SOL     OW58724   9.330   7.782   6.437
85631SOL    HW158725   9.343   7.843   6.510
85631SOL    HW258726   9.330   7.695   6.477
85632SOL     OW58727   5.560   4.812   0.525
85632SOL    HW158728   5.478   4.839   0.482
85632SOL    HW258729   5.629   4.836   0.462
85633SOL     OW58730   7.719  11.159   4.707
85633SOL    HW158731   7.760  11.145   4.622
85633SOL    HW258732   7.745  11.083   4.759
85634SOL     OW58733   0.414   0.897  13.905
85634SOL    HW158734   0.354   0.951  13.957
85634SOL    HW258735   0.392   0.807  13.929
85635SOL     OW58736   4.696   0.964   6.339
85635SOL    HW158737   4.674   1.047   6.381
85635SOL    HW258738   4.687   0.898   6.407
85636SOL     OW58739   3.391  14.424  12.128
85636SOL    HW158740   3.477  14.400  12.094
85636SOL    HW258741   3.405  14.437  12.222
85637SOL     OW58742  13.798   3.450   3.688
85637SOL    HW158743  13.721   3.408   3.650
85637SOL    HW258744  13.870   3.423   3.631
85638SOL     OW58745   9.012   7.434   9.076
85638SOL    HW158746   8.941   7.416   9.015
85638SOL    HW258747   9.072   7.492   9.028
85639SOL     OW58748   9.204   1.934   3.203
85639SOL    HW158749   9.243   1.853   3.235
85639SOL    HW258750   9.165   1.911   3.119
85640SOL     OW58751   3.825  13.556   8.172
85640SOL    HW158752   3.885  13.483   8.187
85640SOL    HW258753   3.837  13.613   8.248
85641SOL     OW58754   0.558  11.336   5.763
85641SOL    HW158755   0.477  11.284   5.764
85641SOL    HW258756   0.589  11.327   5.673
85642SOL     OW58757   8.733  13.560  11.379
85642SOL    HW158758   8.767  13.569  11.468
85642SOL    HW258759   8.745  13.646  11.339
85643SOL     OW58760   6.050  11.438   3.601
85643SOL    HW158761   6.078  11.356   3.642
85643SOL    HW258762   5.956  11.441   3.616
85644SOL     OW58763   7.042   2.956  10.267
85644SOL    HW158764   7.093   2.924  10.192
85644SOL    HW258765   7.061   3.050  10.269
85645SOL     OW58766   0.001   7.549   2.415
85645SOL    HW158767  14.853   7.489   2.486
85645SOL    HW258768  14.800   7.606   2.405
85646SOL     OW58769   7.090   7.978  11.552
85646SOL    HW158770   7.135   8.002  11.633
85646SOL    HW258771   7.104   8.053  11.494
85647SOL     OW58772   1.307   1.190   9.864
85647SOL    HW158773   1.265   1.114   9.823
85647SOL    HW258774   1.397   1.188   9.831
85648SOL     OW58775  13.962   3.635   3.910
85648SOL    HW158776  13.968   3.544   3.882
85648SOL    HW258777  13.871   3.660   3.891
85649SOL     OW58778   4.525   0.301   1.773
85649SOL    HW158779   4.549   0.212   1.797
85649SOL    HW258780   4.533   0.351   1.855
85650SOL     OW58781   5.243  12.467  10.642
85650SOL    HW158782   5.237  12.374  10.660
85650SOL    HW258783   5.178  12.507  10.699
85651SOL     OW58784   3.234   1.478   3.516
85651SOL    HW158785   3.187   1.552   3.479
85651SOL    HW258786   3.268   1.431   3.440
85652SOL     OW58787   5.419  12.813  10.773
85652SOL    HW158788   5.514  12.821  10.769
85652SOL    HW258789   5.388  12.842  10.687
85653SOL     OW58790   7.156   9.540   6.851
85653SOL    HW158791   7.244   9.534   6.815
85653SOL    HW258792   7.135   9.633   6.849
85654SOL     OW58793   9.216   5.424  11.729
85654SOL    HW158794   9.291   5.434  11.788
85654SOL    HW258795   9.213   5.330  11.710
85655SOL     OW58796   5.659   3.550  11.504
85655SOL    HW158797   5.738   3.547  11.558
85655SOL    HW258798   5.594   3.595  11.558
85656SOL     OW58799  14.856   2.323   1.417
85656SOL    HW158800  14.818   2.395   1.366
85656SOL    HW258801  14.806   2.322   1.498
85657SOL     OW58802  14.693  14.123   8.561
85657SOL    HW158803  14.766  14.150   8.616
85657SOL    HW258804  14.633  14.197   8.563
85658SOL     OW58805   2.008  12.671   4.400
85658SOL    HW158806   2.036  12.586   4.367
85658SOL    HW258807   1.961  12.651   4.481
85659SOL     OW58808   5.062   6.882   9.146
85659SOL    HW158809   5.134   6.896   9.208
85659SOL    HW258810   4.986   6.920   9.190
85660SOL     OW58811   5.171  13.700   2.743
85660SOL    HW158812   5.203  13.715   2.832
85660SOL    HW258813   5.076  13.706   2.750
85661SOL     OW58814   5.420   7.329   6.339
85661SOL    HW158815   5.479   7.365   6.405
85661SOL    HW258816   5.382   7.251   6.381
85662SOL     OW58817  10.925   6.194  10.177
85662SOL    HW158818  10.841   6.184  10.223
85662SOL    HW258819  10.900   6.221  10.088
85663SOL     OW58820  10.777   1.076   0.884
85663SOL    HW158821  10.773   1.100   0.791
85663SOL    HW258822  10.791   1.159   0.930
85664SOL     OW58823   8.182  14.758   5.518
85664SOL    HW158824   8.235  14.817   5.464
85664SOL    HW258825   8.097  14.803   5.526
85665SOL     OW58826   3.241  12.984  14.398
85665SOL    HW158827   3.194  12.915  14.351
85665SOL    HW258828   3.174  13.023  14.455
85666SOL     OW58829  11.201   6.973   6.916
85666SOL    HW158830  11.244   6.888   6.918
85666SOL    HW258831  11.227   7.015   6.998
85667SOL     OW58832   3.970   8.658   2.592
85667SOL    HW158833   3.979   8.576   2.641
85667SOL    HW258834   3.922   8.633   2.513
85668SOL     OW58835   8.801   5.480   3.497
85668SOL    HW158836   8.827   5.414   3.562
85668SOL    HW258837   8.719   5.515   3.531
85669SOL     OW58838   7.018   3.995  10.808
85669SOL    HW158839   6.924   4.001  10.792
85669SOL    HW258840   7.054   4.076  10.773
85670SOL     OW58841   5.854   3.745  13.741
85670SOL    HW158842   5.810   3.806  13.800
85670SOL    HW258843   5.783   3.697  13.698
85671SOL     OW58844   8.559   9.789  10.022
85671SOL    HW158845   8.633   9.818   9.969
85671SOL    HW258846   8.496   9.755   9.959
85672SOL     OW58847  13.879  10.716   0.123
85672SOL    HW158848  13.861  10.623   0.128
85672SOL    HW258849  13.834  10.746   0.044
85673SOL     OW58850   5.531   8.554  11.775
85673SOL    HW158851   5.570   8.619  11.716
85673SOL    HW258852   5.449   8.529  11.733
85674SOL     OW58853   6.082  12.097   5.416
85674SOL    HW158854   5.993  12.074   5.443
85674SOL    HW258855   6.075  12.187   5.384
85675SOL     OW58856   5.139   3.577   8.193
85675SOL    HW158857   5.192   3.643   8.238
85675SOL    HW258858   5.170   3.578   8.103
85676SOL     OW58859   9.470  11.436   5.111
85676SOL    HW158860   9.547  11.477   5.149
85676SOL    HW258861   9.451  11.362   5.169
85677SOL     OW58862   6.482   7.830  12.744
85677SOL    HW158863   6.502   7.760  12.682
85677SOL    HW258864   6.412   7.880  12.702
85678SOL     OW58865   1.764  14.786  13.479
85678SOL    HW158866   1.708  14.742  13.543
85678SOL    HW258867   1.704  14.810  13.408
85679SOL     OW58868  10.159   4.813   3.332
85679SOL    HW158869  10.177   4.895   3.286
85679SOL    HW258870  10.073   4.786   3.299
85680SOL     OW58871   0.193  12.452   9.090
85680SOL    HW158872   0.208  12.489   9.176
85680SOL    HW258873   0.160  12.364   9.107
85681SOL     OW58874  10.266   4.732  11.829
85681SOL    HW158875  10.328   4.666  11.860
85681SOL    HW258876  10.209   4.747  11.905
85682SOL     OW58877  10.067   2.127   6.044
85682SOL    HW158878  10.096   2.209   6.004
85682SOL    HW258879   9.976   2.118   6.016
85683SOL     OW58880  11.475   9.163  12.283
85683SOL    HW158881  11.393   9.197  12.248
85683SOL    HW258882  11.448   9.103  12.353
85684SOL     OW58883   7.215   0.996   3.481
85684SOL    HW158884   7.246   1.084   3.502
85684SOL    HW258885   7.290   0.939   3.499
85685SOL     OW58886   3.473  11.225  12.978
85685SOL    HW158887   3.446  11.209  13.069
85685SOL    HW258888   3.435  11.153  12.928
85686SOL     OW58889   4.205  10.927   7.881
85686SOL    HW158890   4.293  10.892   7.890
85686SOL    HW258891   4.151  10.875   7.941
85687SOL     OW58892   0.672   8.523  12.957
85687SOL    HW158893   0.687   8.428  12.957
85687SOL    HW258894   0.728   8.556  12.886
85688SOL     OW58895   2.421   6.886  12.740
85688SOL    HW158896   2.349   6.841  12.697
85688SOL    HW258897   2.499   6.857  12.692
85689SOL     OW58898   4.216   1.274  11.029
85689SOL    HW158899   4.163   1.249  10.953
85689SOL    HW258900   4.162   1.338  11.076
85690SOL     OW58901   1.417   9.691  10.429
85690SOL    HW158902   1.499   9.740  10.422
85690SOL    HW258903   1.349   9.758  10.430
85691SOL     OW58904   9.683  13.165   9.434
85691SOL    HW158905   9.644  13.126   9.356
85691SOL    HW258906   9.651  13.255   9.434
85692SOL     OW58907   8.658  11.157   5.714
85692SOL    HW158908   8.643  11.069   5.680
85692SOL    HW258909   8.581  11.207   5.685
85693SOL     OW58910   9.376  11.446   3.722
85693SOL    HW158911   9.444  11.471   3.660
85693SOL    HW258912   9.302  11.504   3.701
85694SOL     OW58913   5.356   2.021   0.988
85694SOL    HW158914   5.272   2.038   1.029
85694SOL    HW258915   5.398   1.956   1.044
85695SOL     OW58916   1.201   4.041   6.074
85695SOL    HW158917   1.196   4.121   6.127
85695SOL    HW258918   1.200   4.072   5.984
85696SOL     OW58919   4.784   8.370   0.673
85696SOL    HW158920   4.760   8.461   0.692
85696SOL    HW258921   4.851   8.376   0.606
85697SOL     OW58922   7.362  11.620   6.387
85697SOL    HW158923   7.356  11.558   6.315
85697SOL    HW258924   7.278  11.610   6.433
85698SOL     OW58925   3.228  11.974   4.870
85698SOL    HW158926   3.215  11.892   4.917
85698SOL    HW258927   3.192  12.041   4.928
85699SOL     OW58928   0.051  10.719  13.580
85699SOL    HW158929   0.133  10.693  13.539
85699SOL    HW258930   0.055  10.682  13.668
85700SOL     OW58931  14.677  10.348   9.701
85700SOL    HW158932  14.743  10.353   9.770
85700SOL    HW258933  14.727  10.339   9.620
85701SOL     OW58934   0.137   6.210   1.859
85701SOL    HW158935   0.104   6.208   1.949
85701SOL    HW258936   0.211   6.271   1.862
85702SOL     OW58937   5.568   9.305   7.335
85702SOL    HW158938   5.585   9.218   7.299
85702SOL    HW258939   5.641   9.358   7.305
85703SOL     OW58940   6.910  14.873   9.625
85703SOL    HW158941   6.995   0.012   9.667
85703SOL    HW258942   6.846   0.027   9.689
85704SOL     OW58943   7.415  12.245   9.868
85704SOL    HW158944   7.440  12.337   9.876
85704SOL    HW258945   7.378  12.237   9.781
85705SOL     OW58946   0.016   6.964  11.602
85705SOL    HW158947  14.811   6.945  11.650
85705SOL    HW258948   0.026   6.890  11.542
85706SOL     OW58949   1.171   6.481   9.580
85706SOL    HW158950   1.217   6.475   9.497
85706SOL    HW258951   1.130   6.395   9.591
85707SOL     OW58952   3.844   2.508  11.128
85707SOL    HW158953   3.794   2.539  11.203
85707SOL    HW258954   3.933   2.498  11.162
85708SOL     OW58955   1.842  10.555   2.948
85708SOL    HW158956   1.810  10.641   2.921
85708SOL    HW258957   1.902  10.529   2.878
85709SOL     OW58958  10.369  11.684  12.862
85709SOL    HW158959  10.367  11.775  12.834
85709SOL    HW258960  10.279  11.664  12.887
85710SOL     OW58961   5.919   2.928  12.059
85710SOL    HW158962   5.985   2.993  12.033
85710SOL    HW258963   5.837   2.977  12.060
85711SOL     OW58964   7.557  11.150  12.329
85711SOL    HW158965   7.555  11.109  12.243
85711SOL    HW258966   7.497  11.098  12.382
85712SOL     OW58967  13.002   8.298   0.371
85712SOL    HW158968  12.975   8.389   0.360
85712SOL    HW258969  12.920   8.250   0.385
85713SOL     OW58970   6.190   8.106   3.815
85713SOL    HW158971   6.172   8.200   3.813
85713SOL    HW258972   6.105   8.065   3.829
85714SOL     OW58973   3.737   7.165   7.917
85714SOL    HW158974   3.677   7.153   7.844
85714SOL    HW258975   3.824   7.159   7.878
85715SOL     OW58976   9.545   3.253   5.589
85715SOL    HW158977   9.594   3.176   5.617
85715SOL    HW258978   9.502   3.228   5.508
85716SOL     OW58979  11.496  14.487   1.445
85716SOL    HW158980  11.422  14.500   1.505
85716SOL    HW258981  11.483  14.399   1.410
85717SOL     OW58982  14.102  10.333   6.698
85717SOL    HW158983  14.177  10.340   6.757
85717SOL    HW258984  14.137  10.291   6.620
85718SOL     OW58985   3.386  13.392   2.159
85718SOL    HW158986   3.470  13.371   2.117
85718SOL    HW258987   3.377  13.487   2.150
85719SOL     OW58988   0.161   5.402   6.481
85719SOL    HW158989   0.173   5.332   6.417
85719SOL    HW258990   0.152   5.358   6.565
85720SOL     OW58991   8.755   3.456   2.048
85720SOL    HW158992   8.793   3.445   2.135
85720SOL    HW258993   8.661   3.465   2.064
85721SOL     OW58994   8.754   7.430  14.011
85721SOL    HW158995   8.729   7.432  13.918
85721SOL    HW258996   8.838   7.474  14.014
85722SOL     OW58997   8.072   5.563  13.488
85722SOL    HW158998   8.016   5.636  13.513
85722SOL    HW258999   8.038   5.489  13.539
85723SOL     OW59000   6.047   4.309  12.975
85723SOL    HW159001   5.967   4.286  13.022
85723SOL    HW259002   6.118   4.281  13.033
85724SOL     OW59003   5.119  12.097  11.273
85724SOL    HW159004   5.203  12.053  11.264
85724SOL    HW259005   5.134  12.163  11.341
85725SOL     OW59006   4.410  11.870  10.098
85725SOL    HW159007   4.460  11.873  10.180
85725SOL    HW259008   4.476  11.860  10.030
85726SOL     OW59009   5.514  10.490   5.438
85726SOL    HW159010   5.427  10.528   5.423
85726SOL    HW259011   5.530  10.438   5.360
85727SOL     OW59012  13.986   5.419  14.763
85727SOL    HW159013  13.965   5.465  14.682
85727SOL    HW259014  14.025   5.336  14.734
85728SOL     OW59015  13.967  11.286   5.802
85728SOL    HW159016  13.981  11.364   5.857
85728SOL    HW259017  13.874  11.290   5.778
85729SOL     OW59018  12.810   7.046   9.398
85729SOL    HW159019  12.777   6.979   9.337
85729SOL    HW259020  12.873   7.096   9.346
85730SOL     OW59021  11.474   0.446  14.337
85730SOL    HW159022  11.401   0.392  14.306
85730SOL    HW259023  11.443   0.484  14.419
85731SOL     OW59024  11.363   4.959   7.529
85731SOL    HW159025  11.398   5.037   7.571
85731SOL    HW259026  11.302   4.923   7.593
85732SOL     OW59027   1.784   3.565  13.728
85732SOL    HW159028   1.703   3.572  13.677
85732SOL    HW259029   1.774   3.483  13.777
85733SOL     OW59030  12.534   2.951   0.396
85733SOL    HW159031  12.544   2.855   0.395
85733SOL    HW259032  12.615   2.984   0.357
85734SOL     OW59033   2.257  12.868  13.292
85734SOL    HW159034   2.295  12.818  13.364
85734SOL    HW259035   2.323  12.865  13.223
85735SOL     OW59036   1.244   2.382  10.361
85735SOL    HW159037   1.317   2.389  10.299
85735SOL    HW259038   1.272   2.314  10.422
85736SOL     OW59039   2.003   6.908   7.681
85736SOL    HW159040   2.030   6.839   7.742
85736SOL    HW259041   2.085   6.937   7.640
85737SOL     OW59042  10.421   7.924  10.963
85737SOL    HW159043  10.381   7.945  10.879
85737SOL    HW259044  10.399   7.999  11.019
85738SOL     OW59045   0.214   4.196   3.731
85738SOL    HW159046   0.282   4.215   3.668
85738SOL    HW259047   0.207   4.274   3.785
85739SOL     OW59048  13.339   3.087   3.948
85739SOL    HW159049  13.427   3.090   3.910
85739SOL    HW259050  13.280   3.098   3.873
85740SOL     OW59051   6.722  10.986  10.897
85740SOL    HW159052   6.812  11.018  10.907
85740SOL    HW259053   6.669  11.046  10.949
85741SOL     OW59054  10.958   3.885   1.063
85741SOL    HW159055  11.029   3.835   1.022
85741SOL    HW259056  10.983   3.977   1.049
85742SOL     OW59057   3.189   7.291   4.711
85742SOL    HW159058   3.132   7.246   4.773
85742SOL    HW259059   3.207   7.376   4.752
85743SOL     OW59060   1.436   6.339   6.575
85743SOL    HW159061   1.386   6.419   6.558
85743SOL    HW259062   1.374   6.268   6.558
85744SOL     OW59063   9.441   5.746   8.272
85744SOL    HW159064   9.502   5.781   8.207
85744SOL    HW259065   9.364   5.718   8.221
85745SOL     OW59066   6.393  11.267   7.492
85745SOL    HW159067   6.313  11.283   7.443
85745SOL    HW259068   6.458  11.244   7.425
85746SOL     OW59069   0.069   5.095   3.734
85746SOL    HW159070  14.855   5.064   3.728
85746SOL    HW259071   0.066   5.167   3.797
85747SOL     OW59072  10.488  13.728   4.432
85747SOL    HW159073  10.489  13.759   4.341
85747SOL    HW259074  10.505  13.806   4.484
85748SOL     OW59075  11.098   1.940   5.078
85748SOL    HW159076  11.041   1.885   5.131
85748SOL    HW259077  11.119   1.886   5.002
85749SOL     OW59078  12.368   2.215   3.027
85749SOL    HW159079  12.306   2.150   2.992
85749SOL    HW259080  12.401   2.261   2.949
85750SOL     OW59081   8.794   7.683   0.928
85750SOL    HW159082   8.874   7.714   0.970
85750SOL    HW259083   8.734   7.757   0.935
85751SOL     OW59084  14.700   2.125   6.267
85751SOL    HW159085  14.651   2.122   6.185
85751SOL    HW259086  14.696   2.216   6.295
85752SOL     OW59087   9.943   2.321  13.153
85752SOL    HW159088   9.966   2.414  13.156
85752SOL    HW259089   9.864   2.314  13.206
85753SOL     OW59090   1.258   7.760   3.837
85753SOL    HW159091   1.249   7.841   3.887
85753SOL    HW259092   1.338   7.773   3.785
85754SOL     OW59093   7.072  10.955   7.447
85754SOL    HW159094   7.047  10.900   7.521
85754SOL    HW259095   7.011  10.930   7.377
85755SOL     OW59096  10.484   8.334  13.186
85755SOL    HW159097  10.477   8.386  13.266
85755SOL    HW259098  10.541   8.385  13.129
85756SOL     OW59099   6.374  11.762   6.944
85756SOL    HW159100   6.424  11.808   7.012
85756SOL    HW259101   6.436  11.753   6.872
85757SOL     OW59102  14.562  12.836   3.192
85757SOL    HW159103  14.559  12.924   3.230
85757SOL    HW259104  14.602  12.848   3.106
85758SOL     OW59105   7.225  10.030  12.043
85758SOL    HW159106   7.294  10.096  12.045
85758SOL    HW259107   7.211  10.008  12.135
85759SOL     OW59108   9.672   7.920   5.737
85759SOL    HW159109   9.668   7.964   5.652
85759SOL    HW259110   9.613   7.970   5.793
85760SOL     OW59111   8.364   6.536   4.717
85760SOL    HW159112   8.371   6.627   4.689
85760SOL    HW259113   8.277   6.530   4.758
85761SOL     OW59114   0.134   6.689  11.831
85761SOL    HW159115   0.211   6.681  11.887
85761SOL    HW259116   0.120   6.601  11.796
85762SOL     OW59117   9.232  13.041   0.132
85762SOL    HW159118   9.246  13.030   0.226
85762SOL    HW259119   9.197  13.130   0.124
85763SOL     OW59120   8.896   8.293   1.616
85763SOL    HW159121   8.934   8.366   1.665
85763SOL    HW259122   8.858   8.237   1.683
85764SOL     OW59123   1.350   3.283  14.333
85764SOL    HW159124   1.317   3.316  14.417
85764SOL    HW259125   1.436   3.245  14.354
85765SOL     OW59126   3.797   0.094  14.262
85765SOL    HW159127   3.719   0.050  14.296
85765SOL    HW259128   3.764   0.165  14.207
85766SOL     OW59129   7.555  13.450  13.264
85766SOL    HW159130   7.473  13.473  13.308
85766SOL    HW259131   7.534  13.371  13.213
85767SOL     OW59132   4.070   6.413   5.499
85767SOL    HW159133   4.153   6.381   5.464
85767SOL    HW259134   4.009   6.407   5.425
85768SOL     OW59135  14.679  12.296  12.924
85768SOL    HW159136  14.699  12.366  12.861
85768SOL    HW259137  14.688  12.216  12.873
85769SOL     OW59138   0.913  10.501   9.015
85769SOL    HW159139   0.881  10.427   8.964
85769SOL    HW259140   0.993  10.529   8.971
85770SOL     OW59141  11.357   6.593   9.054
85770SOL    HW159142  11.432   6.653   9.062
85770SOL    HW259143  11.373   6.526   9.120
85771SOL     OW59144   1.703   8.146   6.052
85771SOL    HW159145   1.673   8.234   6.075
85771SOL    HW259146   1.796   8.157   6.032
85772SOL     OW59147   0.048   7.697   6.303
85772SOL    HW159148   0.063   7.604   6.287
85772SOL    HW259149   0.059   7.738   6.217
85773SOL     OW59150   1.756   4.928  11.785
85773SOL    HW159151   1.784   5.007  11.738
85773SOL    HW259152   1.662   4.924  11.772
85774SOL     OW59153   7.560   6.157   0.966
85774SOL    HW159154   7.644   6.203   0.962
85774SOL    HW259155   7.495   6.222   0.939
85775SOL     OW59156  12.950   9.372   0.171
85775SOL    HW159157  12.999   9.326   0.238
85775SOL    HW259158  13.017   9.415   0.118
85776SOL     OW59159   9.730  10.959  12.947
85776SOL    HW159160   9.697  10.903  13.017
85776SOL    HW259161   9.788  11.021  12.990
85777SOL     OW59162   0.431  13.229   3.474
85777SOL    HW159163   0.468  13.162   3.417
85777SOL    HW259164   0.353  13.260   3.427
85778SOL     OW59165  10.580  11.621   8.909
85778SOL    HW159166  10.531  11.647   8.831
85778SOL    HW259167  10.560  11.689   8.974
85779SOL     OW59168  13.253  13.730   6.162
85779SOL    HW159169  13.287  13.669   6.228
85779SOL    HW259170  13.160  13.738   6.182
85780SOL     OW59171   9.754  10.962   0.775
85780SOL    HW159172   9.730  10.942   0.865
85780SOL    HW259173   9.672  10.953   0.726
85781SOL     OW59174  10.687   3.324   2.527
85781SOL    HW159175  10.649   3.284   2.605
85781SOL    HW259176  10.615   3.372   2.486
85782SOL     OW59177  13.968   1.180   6.789
85782SOL    HW159178  13.885   1.191   6.835
85782SOL    HW259179  13.963   1.241   6.715
85783SOL     OW59180   2.332   2.550   4.325
85783SOL    HW159181   2.262   2.592   4.374
85783SOL    HW259182   2.302   2.552   4.234
85784SOL     OW59183  10.746   1.233  14.632
85784SOL    HW159184  10.743   1.326  14.607
85784SOL    HW259185  10.773   1.235  14.724
85785SOL     OW59186   7.391   9.205   0.270
85785SOL    HW159187   7.304   9.175   0.296
85785SOL    HW259188   7.397   9.182   0.177
85786SOL     OW59189   8.135   5.569   0.079
85786SOL    HW159190   8.163   5.658   0.058
85786SOL    HW259191   8.086   5.541   0.001
85787SOL     OW59192   7.198   0.976   7.653
85787SOL    HW159193   7.120   1.022   7.623
85787SOL    HW259194   7.231   0.930   7.576
85788SOL     OW59195   6.173  10.107   9.218
85788SOL    HW159196   6.078  10.092   9.216
85788SOL    HW259197   6.205  10.070   9.136
85789SOL     OW59198  11.493   1.389   8.529
85789SOL    HW159199  11.554   1.461   8.511
85789SOL    HW259200  11.417   1.431   8.567
85790SOL     OW59201  12.511   3.608  13.898
85790SOL    HW159202  12.432   3.626  13.847
85790SOL    HW259203  12.535   3.692  13.936
85791SOL     OW59204   9.497   1.084   4.409
85791SOL    HW159205   9.441   1.162   4.413
85791SOL    HW259206   9.558   1.102   4.338
85792SOL     OW59207  14.343   5.831   9.983
85792SOL    HW159208  14.336   5.810  10.076
85792SOL    HW259209  14.297   5.915   9.973
85793SOL     OW59210   4.909   9.961   7.417
85793SOL    HW159211   4.881   9.920   7.335
85793SOL    HW259212   4.846  10.031   7.432
85794SOL     OW59213   1.139  12.745   7.754
85794SOL    HW159214   1.071  12.713   7.813
85794SOL    HW259215   1.098  12.818   7.707
85795SOL     OW59216   6.827   4.566   1.570
85795SOL    HW159217   6.762   4.515   1.617
85795SOL    HW259218   6.792   4.573   1.481
85796SOL     OW59219   4.223   3.009   2.962
85796SOL    HW159220   4.179   2.992   2.879
85796SOL    HW259221   4.156   2.996   3.029
85797SOL     OW59222   1.140  12.792  14.664
85797SOL    HW159223   1.175  12.868  14.618
85797SOL    HW259224   1.104  12.826  14.745
85798SOL     OW59225   2.546   4.698   5.278
85798SOL    HW159226   2.542   4.642   5.356
85798SOL    HW259227   2.533   4.638   5.205
85799SOL     OW59228   4.276  11.205   0.492
85799SOL    HW159229   4.364  11.234   0.470
85799SOL    HW259230   4.264  11.124   0.442
85800SOL     OW59231  14.289  13.510   3.543
85800SOL    HW159232  14.330  13.587   3.502
85800SOL    HW259233  14.323  13.436   3.493
85801SOL     OW59234   5.986  11.288  12.737
85801SOL    HW159235   5.989  11.221  12.805
85801SOL    HW259236   5.999  11.370  12.784
85802SOL     OW59237  13.283  13.691  13.184
85802SOL    HW159238  13.281  13.785  13.165
85802SOL    HW259239  13.249  13.650  13.104
85803SOL     OW59240   1.926   5.868   6.706
85803SOL    HW159241   1.936   5.818   6.788
85803SOL    HW259242   2.015   5.895   6.684
85804SOL     OW59243   6.458   3.613   1.373
85804SOL    HW159244   6.421   3.572   1.295
85804SOL    HW259245   6.536   3.659   1.341
85805SOL     OW59246   3.753   3.504   3.933
85805SOL    HW159247   3.758   3.542   3.844
85805SOL    HW259248   3.823   3.440   3.936
85806SOL     OW59249   9.280   4.120  12.083
85806SOL    HW159250   9.340   4.195  12.079
85806SOL    HW259251   9.229   4.126  12.002
85807SOL     OW59252   3.354   3.614   0.628
85807SOL    HW159253   3.444   3.631   0.600
85807SOL    HW259254   3.301   3.639   0.553
85808SOL     OW59255  12.856   6.287   6.070
85808SOL    HW159256  12.858   6.348   5.996
85808SOL    HW259257  12.833   6.342   6.145
85809SOL     OW59258   9.886  13.008   7.139
85809SOL    HW159259   9.950  12.971   7.200
85809SOL    HW259260   9.848  13.082   7.186
85810SOL     OW59261  12.892  13.720  11.856
85810SOL    HW159262  12.974  13.741  11.812
85810SOL    HW259263  12.857  13.804  11.884
85811SOL     OW59264   4.885  14.498  12.590
85811SOL    HW159265   4.959  14.442  12.614
85811SOL    HW259266   4.861  14.470  12.502
85812SOL     OW59267   8.947   3.711  12.624
85812SOL    HW159268   8.947   3.702  12.529
85812SOL    HW259269   9.040   3.709  12.649
85813SOL     OW59270  14.510   7.518   4.623
85813SOL    HW159271  14.575   7.464   4.578
85813SOL    HW259272  14.457   7.555   4.552
85814SOL     OW59273   2.229   9.911   4.605
85814SOL    HW159274   2.292   9.915   4.533
85814SOL    HW259275   2.144   9.896   4.562
85815SOL     OW59276  10.096  14.217   3.945
85815SOL    HW159277  10.021  14.258   3.900
85815SOL    HW259278  10.082  14.123   3.932
85816SOL     OW59279   3.647   6.414   2.576
85816SOL    HW159280   3.637   6.506   2.553
85816SOL    HW259281   3.670   6.415   2.669
85817SOL     OW59282   9.801   0.055  14.052
85817SOL    HW159283   9.779   0.072  13.961
85817SOL    HW259284   9.862   0.125  14.075
85818SOL     OW59285  12.216  13.574   1.601
85818SOL    HW159286  12.188  13.595   1.512
85818SOL    HW259287  12.309  13.598   1.603
85819SOL     OW59288   9.134   9.660   7.256
85819SOL    HW159289   9.182   9.701   7.328
85819SOL    HW259290   9.052   9.629   7.295
85820SOL     OW59291   5.360   9.347   5.664
85820SOL    HW159292   5.346   9.253   5.663
85820SOL    HW259293   5.383   9.367   5.755
85821SOL     OW59294   6.176  11.587   2.938
85821SOL    HW159295   6.117  11.517   2.965
85821SOL    HW259296   6.194  11.635   3.018
85822SOL     OW59297   8.687  11.260   1.474
85822SOL    HW159298   8.705  11.189   1.412
85822SOL    HW259299   8.591  11.261   1.481
85823SOL     OW59300   6.678   8.176   9.333
85823SOL    HW159301   6.602   8.221   9.368
85823SOL    HW259302   6.742   8.246   9.317
85824SOL     OW59303  13.198   6.294   8.767
85824SOL    HW159304  13.249   6.214   8.783
85824SOL    HW259305  13.145   6.305   8.846
85825SOL     OW59306   5.644  11.932  12.162
85825SOL    HW159307   5.739  11.926  12.149
85825SOL    HW259308   5.626  12.026  12.166
85826SOL     OW59309   0.018   8.303  13.252
85826SOL    HW159310   0.073   8.349  13.316
85826SOL    HW259311  14.868   8.371  13.190
85827SOL     OW59312   4.144   2.775   8.585
85827SOL    HW159313   4.126   2.707   8.649
85827SOL    HW259314   4.143   2.856   8.635
85828SOL     OW59315  13.719   0.143   1.948
85828SOL    HW159316  13.797   0.188   1.916
85828SOL    HW259317  13.753   0.071   2.001
85829SOL     OW59318   7.636   5.091  13.661
85829SOL    HW159319   7.688   5.062  13.586
85829SOL    HW259320   7.590   5.169  13.630
85830SOL     OW59321   1.836   5.460   2.367
85830SOL    HW159322   1.894   5.386   2.386
85830SOL    HW259323   1.792   5.435   2.285
85831SOL     OW59324   3.825   7.709   7.950
85831SOL    HW159325   3.830   7.660   8.032
85831SOL    HW259326   3.914   7.740   7.935
85832SOL     OW59327   1.728  14.186   4.987
85832SOL    HW159328   1.720  14.095   5.015
85832SOL    HW259329   1.823  14.202   4.987
85833SOL     OW59330   7.756  11.886   4.317
85833SOL    HW159331   7.794  11.844   4.395
85833SOL    HW259332   7.709  11.816   4.273
85834SOL     OW59333   5.308   9.389  10.983
85834SOL    HW159334   5.305   9.372  10.889
85834SOL    HW259335   5.361   9.318  11.019
85835SOL     OW59336   3.086   7.119  13.772
85835SOL    HW159337   2.999   7.107  13.810
85835SOL    HW259338   3.070   7.122  13.678
85836SOL     OW59339   2.221  10.003   6.098
85836SOL    HW159340   2.275   9.931   6.066
85836SOL    HW259341   2.174   9.967   6.173
85837SOL     OW59342   9.599   7.613   5.443
85837SOL    HW159343   9.612   7.564   5.362
85837SOL    HW259344   9.515   7.658   5.431
85838SOL     OW59345   0.652  11.417   3.332
85838SOL    HW159346   0.624  11.364   3.407
85838SOL    HW259347   0.639  11.508   3.360
85839SOL     OW59348   1.913   0.814   2.273
85839SOL    HW159349   1.992   0.781   2.315
85839SOL    HW259350   1.843   0.796   2.336
85840SOL     OW59351   6.607   2.467  11.754
85840SOL    HW159352   6.626   2.550  11.799
85840SOL    HW259353   6.530   2.485  11.701
85841SOL     OW59354   9.831   7.535  14.085
85841SOL    HW159355   9.768   7.602  14.058
85841SOL    HW259356   9.779   7.455  14.091
85842SOL     OW59357  10.175  11.330  11.607
85842SOL    HW159358  10.188  11.240  11.577
85842SOL    HW259359  10.187  11.325  11.702
85843SOL     OW59360   0.485   1.024   3.038
85843SOL    HW159361   0.408   1.064   2.999
85843SOL    HW259362   0.471   0.930   3.029
85844SOL     OW59363   1.073   0.101   0.488
85844SOL    HW159364   1.018   0.127   0.562
85844SOL    HW259365   1.111   0.018   0.514
85845SOL     OW59366   0.246   3.776   7.648
85845SOL    HW159367   0.246   3.809   7.738
85845SOL    HW259368   0.290   3.844   7.598
85846SOL     OW59369  13.689   6.833   9.626
85846SOL    HW159370  13.626   6.903   9.613
85846SOL    HW259371  13.760   6.852   9.565
85847SOL     OW59372   1.130  14.485  12.792
85847SOL    HW159373   1.107  14.431  12.868
85847SOL    HW259374   1.225  14.480  12.787
85848SOL     OW59375   8.118  11.149  14.714
85848SOL    HW159376   8.097  11.093  14.789
85848SOL    HW259377   8.177  11.215  14.749
85849SOL     OW59378  12.011  11.287   0.603
85849SOL    HW159379  12.023  11.335   0.685
85849SOL    HW259380  11.964  11.347   0.546
85850SOL     OW59381   6.423   5.293   2.592
85850SOL    HW159382   6.337   5.267   2.559
85850SOL    HW259383   6.409   5.377   2.635
85851SOL     OW59384  12.544  13.572   4.070
85851SOL    HW159385  12.464  13.596   4.116
85851SOL    HW259386  12.615  13.609   4.122
85852SOL     OW59387   5.329  12.765  11.660
85852SOL    HW159388   5.386  12.689  11.671
85852SOL    HW259389   5.253  12.747  11.714
85853SOL     OW59390  13.383   3.811   0.228
85853SOL    HW159391  13.394   3.744   0.160
85853SOL    HW259392  13.396   3.894   0.181
85854SOL     OW59393   0.417   2.122  14.782
85854SOL    HW159394   0.421   2.072  14.864
85854SOL    HW259395   0.326   2.112  14.752
85855SOL     OW59396   3.293   4.366   5.060
85855SOL    HW159397   3.308   4.428   5.131
85855SOL    HW259398   3.377   4.321   5.050
85856SOL     OW59399   3.500  13.652   0.401
85856SOL    HW159400   3.549  13.734   0.393
85856SOL    HW259401   3.461  13.656   0.488
85857SOL     OW59402  14.500   2.886   3.364
85857SOL    HW159403  14.552   2.963   3.340
85857SOL    HW259404  14.449   2.865   3.286
85858SOL     OW59405   3.691   5.464  11.925
85858SOL    HW159406   3.619   5.526  11.920
85858SOL    HW259407   3.711   5.458  12.018
85859SOL     OW59408  10.539  12.903   9.163
85859SOL    HW159409  10.552  12.901   9.258
85859SOL    HW259410  10.445  12.890   9.152
85860SOL     OW59411  14.847  12.788   5.085
85860SOL    HW159412  14.817  12.852   5.150
85860SOL    HW259413   0.041  12.833   5.037
85861SOL     OW59414   6.772  11.024  12.022
85861SOL    HW159415   6.738  10.978  12.098
85861SOL    HW259416   6.709  11.006  11.952
85862SOL     OW59417  13.348  10.983   3.684
85862SOL    HW159418  13.274  10.928   3.710
85862SOL    HW259419  13.385  11.014   3.767
85863SOL     OW59420   1.405   7.215   4.116
85863SOL    HW159421   1.443   7.285   4.169
85863SOL    HW259422   1.311   7.230   4.121
85864SOL     OW59423  10.958   7.594   0.555
85864SOL    HW159424  10.930   7.669   0.608
85864SOL    HW259425  11.021   7.631   0.493
85865SOL     OW59426   9.045   8.343  10.021
85865SOL    HW159427   9.098   8.392   9.957
85865SOL    HW259428   9.035   8.403  10.094
85866SOL     OW59429   3.272   4.919   6.043
85866SOL    HW159430   3.212   4.846   6.030
85866SOL    HW259431   3.238   4.965   6.119
85867SOL     OW59432   0.280  13.640  11.543
85867SOL    HW159433   0.339  13.564  11.547
85867SOL    HW259434   0.204  13.608  11.495
85868SOL     OW59435   5.138   2.264   5.190
85868SOL    HW159436   5.115   2.322   5.117
85868SOL    HW259437   5.054   2.226   5.216
85869SOL     OW59438  10.769   7.734   6.158
85869SOL    HW159439  10.769   7.745   6.253
85869SOL    HW259440  10.751   7.822   6.124
85870SOL     OW59441   2.083   5.331   2.778
85870SOL    HW159442   1.991   5.308   2.768
85870SOL    HW259443   2.090   5.419   2.742
85871SOL     OW59444   0.162   4.830   0.873
85871SOL    HW159445   0.068   4.846   0.886
85871SOL    HW259446   0.192   4.907   0.825
85872SOL     OW59447  11.593   1.039  11.916
85872SOL    HW159448  11.624   1.114  11.967
85872SOL    HW259449  11.512   1.013  11.960
85873SOL     OW59450   9.363   9.352  10.082
85873SOL    HW159451   9.450   9.385  10.061
85873SOL    HW259452   9.304   9.425  10.065
85874SOL     OW59453   8.155   5.049  11.247
85874SOL    HW159454   8.178   5.131  11.290
85874SOL    HW259455   8.060   5.043  11.257
85875SOL     OW59456  13.135   8.010   4.631
85875SOL    HW159457  13.053   8.007   4.681
85875SOL    HW259458  13.140   8.100   4.599
85876SOL     OW59459  11.282   1.450  11.054
85876SOL    HW159460  11.366   1.410  11.031
85876SOL    HW259461  11.284   1.455  11.149
85877SOL     OW59462  14.463  14.532  13.323
85877SOL    HW159463  14.513  14.549  13.244
85877SOL    HW259464  14.491  14.601  13.384
85878SOL     OW59465   1.085   7.283  11.875
85878SOL    HW159466   1.006   7.337  11.877
85878SOL    HW259467   1.135   7.317  11.801
85879SOL     OW59468   1.227   5.776   3.009
85879SOL    HW159469   1.239   5.834   2.933
85879SOL    HW259470   1.155   5.718   2.984
85880SOL     OW59471  13.190   3.195   9.316
85880SOL    HW159472  13.248   3.245   9.374
85880SOL    HW259473  13.134   3.261   9.275
85881SOL     OW59474   7.327   2.691   7.553
85881SOL    HW159475   7.354   2.626   7.617
85881SOL    HW259476   7.291   2.763   7.605
85882SOL     OW59477   8.420   6.773   1.320
85882SOL    HW159478   8.457   6.840   1.378
85882SOL    HW259479   8.492   6.747   1.263
85883SOL     OW59480   7.265  10.334  11.094
85883SOL    HW159481   7.233  10.253  11.054
85883SOL    HW259482   7.187  10.375  11.130
85884SOL     OW59483   9.166  11.171   9.848
85884SOL    HW159484   9.178  11.146   9.939
85884SOL    HW259485   9.113  11.101   9.810
85885SOL     OW59486   1.925   4.802   7.899
85885SOL    HW159487   2.011   4.835   7.874
85885SOL    HW259488   1.885   4.775   7.816
85886SOL     OW59489  14.381   5.219  13.869
85886SOL    HW159490  14.314   5.163  13.830
85886SOL    HW259491  14.406   5.174  13.950
85887SOL     OW59492   0.106   2.903   3.178
85887SOL    HW159493   0.078   2.813   3.161
85887SOL    HW259494   0.049   2.957   3.124
85888SOL     OW59495  14.276   4.529  12.975
85888SOL    HW159496  14.333   4.568  12.909
85888SOL    HW259497  14.310   4.562  13.058
85889SOL     OW59498   2.338   8.225   1.252
85889SOL    HW159499   2.364   8.188   1.336
85889SOL    HW259500   2.397   8.298   1.238
85890SOL     OW59501  12.282   9.383  10.969
85890SOL    HW159502  12.354   9.438  11.000
85890SOL    HW259503  12.309   9.294  10.990
85891SOL     OW59504   3.904   0.166  14.494
85891SOL    HW159505   3.876   0.140  14.407
85891SOL    HW259506   3.903   0.085  14.545
85892SOL     OW59507   3.209   6.642   6.054
85892SOL    HW159508   3.205   6.622   5.961
85892SOL    HW259509   3.117   6.651   6.081
85893SOL     OW59510   7.019   2.896   6.604
85893SOL    HW159511   6.952   2.950   6.561
85893SOL    HW259512   7.043   2.945   6.683
85894SOL     OW59513   4.036   0.817  13.993
85894SOL    HW159514   4.080   0.895  14.029
85894SOL    HW259515   4.097   0.746  14.010
85895SOL     OW59516   8.858  14.236  11.415
85895SOL    HW159517   8.873  14.176  11.342
85895SOL    HW259518   8.797  14.189  11.472
85896SOL     OW59519   7.201  11.844  12.194
85896SOL    HW159520   7.165  11.886  12.116
85896SOL    HW259521   7.296  11.846  12.182
85897SOL     OW59522  14.009   7.580  10.485
85897SOL    HW159523  14.011   7.580  10.390
85897SOL    HW259524  14.043   7.667  10.510
85898SOL     OW59525   5.797   9.268   8.455
85898SOL    HW159526   5.882   9.277   8.498
85898SOL    HW259527   5.743   9.337   8.494
85899SOL     OW59528   8.236  11.335  10.660
85899SOL    HW159529   8.275  11.389  10.730
85899SOL    HW259530   8.232  11.247  10.697
85900SOL     OW59531   0.275   9.674   7.000
85900SOL    HW159532   0.180   9.665   6.992
85900SOL    HW259533   0.306   9.585   7.014
85901SOL     OW59534  11.295   6.365  10.425
85901SOL    HW159535  11.324   6.441  10.476
85901SOL    HW259536  11.375   6.314  10.413
85902SOL     OW59537  12.947   4.787   0.307
85902SOL    HW159538  13.017   4.817   0.249
85902SOL    HW259539  12.917   4.867   0.351
85903SOL     OW59540   4.874   8.299   2.642
85903SOL    HW159541   4.909   8.214   2.670
85903SOL    HW259542   4.822   8.329   2.716
85904SOL     OW59543   4.758  12.815   5.035
85904SOL    HW159544   4.760  12.719   5.039
85904SOL    HW259545   4.668  12.836   5.011
85905SOL     OW59546  11.536   4.218  12.623
85905SOL    HW159547  11.455   4.191  12.665
85905SOL    HW259548  11.537   4.170  12.540
85906SOL     OW59549   6.917  14.230   7.166
85906SOL    HW159550   6.926  14.325   7.157
85906SOL    HW259551   6.992  14.204   7.219
85907SOL     OW59552   0.892   7.081   8.664
85907SOL    HW159553   0.882   7.174   8.643
85907SOL    HW259554   0.804   7.045   8.656
85908SOL     OW59555   2.214   3.509   7.101
85908SOL    HW159556   2.249   3.542   7.183
85908SOL    HW259557   2.149   3.444   7.127
85909SOL     OW59558   5.206  13.087  13.628
85909SOL    HW159559   5.126  13.074  13.577
85909SOL    HW259560   5.195  13.031  13.705
85910SOL     OW59561   6.990  14.758   3.896
85910SOL    HW159562   6.940  14.809   3.832
85910SOL    HW259563   7.067  14.812   3.914
85911SOL     OW59564   5.946  10.352   0.777
85911SOL    HW159565   5.864  10.352   0.827
85911SOL    HW259566   5.968  10.445   0.768
85912SOL     OW59567  13.300   7.753  10.783
85912SOL    HW159568  13.295   7.680  10.846
85912SOL    HW259569  13.259   7.719  10.704
85913SOL     OW59570   9.139   8.689   9.192
85913SOL    HW159571   9.142   8.785   9.195
85913SOL    HW259572   9.047   8.667   9.199
85914SOL     OW59573  12.798  14.131  10.833
85914SOL    HW159574  12.851  14.200  10.872
85914SOL    HW259575  12.762  14.171  10.754
85915SOL     OW59576   1.736  11.879  11.941
85915SOL    HW159577   1.771  11.941  11.878
85915SOL    HW259578   1.701  11.808  11.888
85916SOL     OW59579   2.769   5.347  10.597
85916SOL    HW159580   2.739   5.379  10.512
85916SOL    HW259581   2.818   5.421  10.634
85917SOL     OW59582  12.820  13.526  12.032
85917SOL    HW159583  12.872  13.576  11.969
85917SOL    HW259584  12.775  13.592  12.084
85918SOL     OW59585   2.564   8.104   4.805
85918SOL    HW159586   2.639   8.142   4.761
85918SOL    HW259587   2.496   8.172   4.801
85919SOL     OW59588   7.561   1.714  10.574
85919SOL    HW159589   7.557   1.663  10.493
85919SOL    HW259590   7.592   1.800  10.547
85920SOL     OW59591   2.807   0.299  14.490
85920SOL    HW159592   2.852   0.363  14.544
85920SOL    HW259593   2.848   0.215  14.512
85921SOL     OW59594  10.428  12.729  11.941
85921SOL    HW159595  10.488  12.759  12.010
85921SOL    HW259596  10.486  12.693  11.874
85922SOL     OW59597   2.720   3.448  13.254
85922SOL    HW159598   2.706   3.479  13.165
85922SOL    HW259599   2.649   3.385  13.269
85923SOL     OW59600   9.373  12.636   1.819
85923SOL    HW159601   9.341  12.568   1.879
85923SOL    HW259602   9.338  12.718   1.855
85924SOL     OW59603   1.073  11.326   5.993
85924SOL    HW159604   1.138  11.350   5.927
85924SOL    HW259605   0.991  11.363   5.959
85925SOL     OW59606   9.088  14.830  10.289
85925SOL    HW159607   9.056   0.044  10.281
85925SOL    HW259608   9.177  14.832  10.256
85926SOL     OW59609   7.633   9.795   3.903
85926SOL    HW159610   7.628   9.707   3.941
85926SOL    HW259611   7.684   9.784   3.823
85927SOL     OW59612  10.979  12.778  12.930
85927SOL    HW159613  11.039  12.726  12.983
85927SOL    HW259614  10.893  12.766  12.972
85928SOL     OW59615   5.085   9.228   9.606
85928SOL    HW159616   5.171   9.188   9.622
85928SOL    HW259617   5.054   9.185   9.526
85929SOL     OW59618  13.563   7.419  10.641
85929SOL    HW159619  13.517   7.471  10.708
85929SOL    HW259620  13.647   7.397  10.682
85930SOL     OW59621  10.281   6.318   3.081
85930SOL    HW159622  10.369   6.352   3.093
85930SOL    HW259623  10.239   6.327   3.167
85931SOL     OW59624   5.380  14.732   9.409
85931SOL    HW159625   5.333  14.661   9.453
85931SOL    HW259626   5.428  14.776   9.478
85932SOL     OW59627   1.367   8.980  14.060
85932SOL    HW159628   1.395   8.932  13.982
85932SOL    HW259629   1.350   9.069  14.030
85933SOL     OW59630   2.822  11.467  14.720
85933SOL    HW159631   2.827  11.374  14.740
85933SOL    HW259632   2.735  11.494  14.751
85934SOL     OW59633   2.781   1.662   1.513
85934SOL    HW159634   2.807   1.721   1.583
85934SOL    HW259635   2.859   1.653   1.458
85935SOL     OW59636   6.407  11.730  12.732
85935SOL    HW159637   6.399  11.668  12.659
85935SOL    HW259638   6.337  11.705  12.793
85936SOL     OW59639   7.579   2.607   0.888
85936SOL    HW159640   7.530   2.526   0.898
85936SOL    HW259641   7.563   2.655   0.969
85937SOL     OW59642   4.162   5.494  10.943
85937SOL    HW159643   4.145   5.439  10.867
85937SOL    HW259644   4.180   5.433  11.014
85938SOL     OW59645   0.972  10.309  11.109
85938SOL    HW159646   0.912  10.377  11.140
85938SOL    HW259647   0.930  10.272  11.032
85939SOL     OW59648   0.279   9.118  11.638
85939SOL    HW159649   0.209   9.059  11.667
85939SOL    HW259650   0.347   9.059  11.606
85940SOL     OW59651   1.013   9.401   8.084
85940SOL    HW159652   0.990   9.443   8.167
85940SOL    HW259653   1.032   9.310   8.109
85941SOL     OW59654  11.892   3.524   8.122
85941SOL    HW159655  11.852   3.440   8.101
85941SOL    HW259656  11.881   3.576   8.042
85942SOL     OW59657  13.027  11.970   9.548
85942SOL    HW159658  13.041  11.904   9.481
85942SOL    HW259659  12.979  11.925   9.617
85943SOL     OW59660  12.412   2.697  10.805
85943SOL    HW159661  12.421   2.615  10.757
85943SOL    HW259662  12.478   2.755  10.766
85944SOL     OW59663  11.279  14.713   5.604
85944SOL    HW159664  11.276  14.622   5.632
85944SOL    HW259665  11.321  14.759   5.677
85945SOL     OW59666  11.639   5.308  10.488
85945SOL    HW159667  11.647   5.375  10.556
85945SOL    HW259668  11.549   5.315  10.458
85946SOL     OW59669  11.890   9.488   5.871
85946SOL    HW159670  11.802   9.472   5.838
85946SOL    HW259671  11.917   9.404   5.909
85947SOL     OW59672   6.611   9.215  14.602
85947SOL    HW159673   6.535   9.168  14.637
85947SOL    HW259674   6.597   9.216  14.508
85948SOL     OW59675  11.274   7.448   3.899
85948SOL    HW159676  11.225   7.513   3.949
85948SOL    HW259677  11.263   7.366   3.948
85949SOL     OW59678   4.363   7.231   3.779
85949SOL    HW159679   4.367   7.322   3.810
85949SOL    HW259680   4.451   7.198   3.793
85950SOL     OW59681  11.170   1.617   4.732
85950SOL    HW159682  11.121   1.592   4.654
85950SOL    HW259683  11.134   1.562   4.802
85951SOL     OW59684  12.088   2.009   2.791
85951SOL    HW159685  12.008   2.050   2.759
85951SOL    HW259686  12.057   1.933   2.841
85952SOL     OW59687  10.631   8.413   9.966
85952SOL    HW159688  10.539   8.424   9.990
85952SOL    HW259689  10.633   8.421   9.870
85953SOL     OW59690   5.301  11.168  14.823
85953SOL    HW159691   5.217  11.196  14.788
85953SOL    HW259692   5.304  11.206   0.035
85954SOL     OW59693  14.403   7.707   9.784
85954SOL    HW159694  14.452   7.786   9.806
85954SOL    HW259695  14.410   7.652   9.863
85955SOL     OW59696   7.623   1.914  12.664
85955SOL    HW159697   7.592   1.825  12.676
85955SOL    HW259698   7.691   1.907  12.597
85956SOL     OW59699   9.429   9.461  14.778
85956SOL    HW159700   9.514   9.444  14.817
85956SOL    HW259701   9.366   9.450  14.849
85957SOL     OW59702   0.698   2.625   3.621
85957SOL    HW159703   0.721   2.650   3.532
85957SOL    HW259704   0.688   2.530   3.618
85958SOL     OW59705  11.632  14.428   7.701
85958SOL    HW159706  11.637  14.432   7.606
85958SOL    HW259707  11.709  14.478   7.731
85959SOL     OW59708   9.459  10.741   3.613
85959SOL    HW159709   9.396  10.708   3.677
85959SOL    HW259710   9.404  10.777   3.542
85960SOL     OW59711   1.949   2.245   2.593
85960SOL    HW159712   2.033   2.212   2.560
85960SOL    HW259713   1.971   2.329   2.634
85961SOL     OW59714   3.842   0.732  12.533
85961SOL    HW159715   3.913   0.795  12.519
85961SOL    HW259716   3.876   0.671  12.598
85962SOL     OW59717  10.874  12.479  13.157
85962SOL    HW159718  10.938  12.487  13.086
85962SOL    HW259719  10.905  12.541  13.224
85963SOL     OW59720   2.936   8.414  14.131
85963SOL    HW159721   2.961   8.492  14.082
85963SOL    HW259722   2.996   8.413  14.206
85964SOL     OW59723   7.418   0.575   3.328
85964SOL    HW159724   7.340   0.588   3.274
85964SOL    HW259725   7.420   0.651   3.386
85965SOL     OW59726  11.503   9.024  12.523
85965SOL    HW159727  11.565   8.957  12.497
85965SOL    HW259728  11.447   8.982  12.588
85966SOL     OW59729   5.574   9.525   8.421
85966SOL    HW159730   5.586   9.593   8.487
85966SOL    HW259731   5.640   9.545   8.355
85967SOL     OW59732   2.239   7.453   8.250
85967SOL    HW159733   2.318   7.490   8.289
85967SOL    HW259734   2.250   7.358   8.261
85968SOL     OW59735   6.024   9.753  14.732
85968SOL    HW159736   6.103   9.743  14.786
85968SOL    HW259737   6.057   9.746  14.642
85969SOL     OW59738   5.585   6.150   5.781
85969SOL    HW159739   5.590   6.077   5.719
85969SOL    HW259740   5.509   6.130   5.836
85970SOL     OW59741  14.374  10.790   7.173
85970SOL    HW159742  14.317  10.816   7.246
85970SOL    HW259743  14.451  10.751   7.216
85971SOL     OW59744  12.134   5.403   1.259
85971SOL    HW159745  12.179   5.366   1.183
85971SOL    HW259746  12.184   5.481   1.281
85972SOL     OW59747  11.725  14.089   7.488
85972SOL    HW159748  11.797  14.028   7.474
85972SOL    HW259749  11.657  14.060   7.428
85973SOL     OW59750   0.511   3.625   7.622
85973SOL    HW159751   0.553   3.619   7.708
85973SOL    HW259752   0.417   3.623   7.642
85974SOL     OW59753   7.551  10.904  13.307
85974SOL    HW159754   7.487  10.882  13.240
85974SOL    HW259755   7.549  11.000  13.311
85975SOL     OW59756   4.065  13.451   1.893
85975SOL    HW159757   4.124  13.439   1.818
85975SOL    HW259758   4.019  13.368   1.901
85976SOL     OW59759   2.596  11.491  13.977
85976SOL    HW159760   2.614  11.535  14.060
85976SOL    HW259761   2.598  11.561  13.911
85977SOL     OW59762  14.203   1.083   6.882
85977SOL    HW159763  14.252   1.164   6.866
85977SOL    HW259764  14.115   1.101   6.847
85978SOL     OW59765   2.200   7.243   1.502
85978SOL    HW159766   2.181   7.278   1.589
85978SOL    HW259767   2.227   7.152   1.518
85979SOL     OW59768   6.936   6.932   2.565
85979SOL    HW159769   6.918   6.838   2.567
85979SOL    HW259770   6.879   6.966   2.496
85980SOL     OW59771   6.101   3.516   3.265
85980SOL    HW159772   6.047   3.565   3.328
85980SOL    HW259773   6.154   3.583   3.222
85981SOL     OW59774   2.314  13.294   0.729
85981SOL    HW159775   2.389  13.248   0.692
85981SOL    HW259776   2.238  13.251   0.691
85982SOL     OW59777   2.479   1.631   9.599
85982SOL    HW159778   2.395   1.676   9.597
85982SOL    HW259779   2.517   1.655   9.684
85983SOL     OW59780  11.998   9.241  14.532
85983SOL    HW159781  11.999   9.183  14.456
85983SOL    HW259782  12.064   9.204  14.591
85984SOL     OW59783   7.317   7.329   7.386
85984SOL    HW159784   7.321   7.308   7.479
85984SOL    HW259785   7.278   7.252   7.345
85985SOL     OW59786  10.276   9.456  10.448
85985SOL    HW159787  10.326   9.431  10.526
85985SOL    HW259788  10.315   9.404  10.377
85986SOL     OW59789  14.678  14.117   9.757
85986SOL    HW159790  14.691  14.117   9.662
85986SOL    HW259791  14.597  14.069   9.770
85987SOL     OW59792  12.808   4.630   5.128
85987SOL    HW159793  12.856   4.712   5.114
85987SOL    HW259794  12.775   4.637   5.218
85988SOL     OW59795   9.096   3.144  11.894
85988SOL    HW159796   9.138   3.125  11.810
85988SOL    HW259797   9.003   3.152  11.873
85989SOL     OW59798   4.906   9.252   8.112
85989SOL    HW159799   4.945   9.226   8.196
85989SOL    HW259800   4.939   9.340   8.097
85990SOL     OW59801  11.723  13.224   2.934
85990SOL    HW159802  11.670  13.188   3.005
85990SOL    HW259803  11.760  13.305   2.970
85991SOL     OW59804   6.389   0.256  11.692
85991SOL    HW159805   6.447   0.326  11.663
85991SOL    HW259806   6.322   0.299  11.745
85992SOL     OW59807   8.851   1.961   2.253
85992SOL    HW159808   8.940   1.932   2.274
85992SOL    HW259809   8.863   2.043   2.205
85993SOL     OW59810   8.928  10.610   5.333
85993SOL    HW159811   8.879  10.578   5.257
85993SOL    HW259812   8.979  10.684   5.299
85994SOL     OW59813   3.663   7.134  13.409
85994SOL    HW159814   3.704   7.220  13.421
85994SOL    HW259815   3.716   7.091  13.342
85995SOL     OW59816   0.302   2.280   7.522
85995SOL    HW159817   0.260   2.201   7.556
85995SOL    HW259818   0.230   2.343   7.513
85996SOL     OW59819  14.061  12.150  13.653
85996SOL    HW159820  14.033  12.224  13.599
85996SOL    HW259821  13.980  12.110  13.683
85997SOL     OW59822   7.965   8.413   8.912
85997SOL    HW159823   8.053   8.378   8.899
85997SOL    HW259824   7.913   8.376   8.841
85998SOL     OW59825   7.045   3.704   5.005
85998SOL    HW159826   7.049   3.799   5.007
85998SOL    HW259827   6.968   3.681   5.057
85999SOL     OW59828  13.736  12.867  14.392
85999SOL    HW159829  13.655  12.832  14.429
85999SOL    HW259830  13.726  12.962  14.399
86000SOL     OW59831  10.513  11.733   6.479
86000SOL    HW159832  10.513  11.638   6.467
86000SOL    HW259833  10.536  11.768   6.393
86001SOL     OW59834   7.602  13.006   1.794
86001SOL    HW159835   7.692  12.976   1.779
86001SOL    HW259836   7.548  12.931   1.770
86002SOL     OW59837   4.851  10.616  11.398
86002SOL    HW159838   4.814  10.622  11.310
86002SOL    HW259839   4.851  10.706  11.430
86003SOL     OW59840   7.955  12.480   9.507
86003SOL    HW159841   7.900  12.404   9.525
86003SOL    HW259842   7.930  12.543   9.575
86004SOL     OW59843   0.449  14.845   4.080
86004SOL    HW159844   0.381   0.002   4.022
86004SOL    HW259845   0.452   0.033   4.152
86005SOL     OW59846  12.343   4.722   6.674
86005SOL    HW159847  12.263   4.729   6.622
86005SOL    HW259848  12.332   4.641   6.724
86006SOL     OW59849   1.677   4.104   2.438
86006SOL    HW159850   1.720   4.158   2.371
86006SOL    HW259851   1.632   4.167   2.494
86007SOL     OW59852   0.277   0.151  10.272
86007SOL    HW159853   0.273   0.237  10.314
86007SOL    HW259854   0.289   0.089  10.344
86008SOL     OW59855   1.651  13.658   0.099
86008SOL    HW159856   1.631  13.565   0.091
86008SOL    HW259857   1.569  13.702   0.079
86009SOL     OW59858   9.063   8.049   2.770
86009SOL    HW159859   9.030   7.959   2.769
86009SOL    HW259860   9.158   8.040   2.773
86010SOL     OW59861  13.943  11.175   5.194
86010SOL    HW159862  13.880  11.171   5.266
86010SOL    HW259863  13.915  11.251   5.143
86011SOL     OW59864   1.986  14.796  12.072
86011SOL    HW159865   1.916  14.759  12.017
86011SOL    HW259866   2.063  14.744  12.051
86012SOL     OW59867  11.896  14.277   5.535
86012SOL    HW159868  11.833  14.204   5.539
86012SOL    HW259869  11.918  14.285   5.443
86013SOL     OW59870  10.754   1.822   3.871
86013SOL    HW159871  10.828   1.858   3.823
86013SOL    HW259872  10.703   1.775   3.805
86014SOL     OW59873  13.362  11.167   6.003
86014SOL    HW159874  13.308  11.207   5.934
86014SOL    HW259875  13.302  11.109   6.050
86015SOL     OW59876   2.435   4.845   2.104
86015SOL    HW159877   2.461   4.846   2.196
86015SOL    HW259878   2.349   4.887   2.102
86016SOL     OW59879  11.930  10.547   4.027
86016SOL    HW159880  11.909  10.591   4.109
86016SOL    HW259881  11.909  10.455   4.044
86017SOL     OW59882   3.222   4.231  10.428
86017SOL    HW159883   3.280   4.175  10.480
86017SOL    HW259884   3.192   4.175  10.356
86018SOL     OW59885  11.736   4.176   1.894
86018SOL    HW159886  11.783   4.169   1.811
86018SOL    HW259887  11.767   4.102   1.946
86019SOL     OW59888   6.429  13.257   8.591
86019SOL    HW159889   6.336  13.282   8.585
86019SOL    HW259890   6.467  13.321   8.650
86020SOL     OW59891   1.304  13.229   0.384
86020SOL    HW159892   1.301  13.256   0.292
86020SOL    HW259893   1.279  13.137   0.383
86021SOL     OW59894   6.609   6.848   4.758
86021SOL    HW159895   6.574   6.861   4.846
86021SOL    HW259896   6.533   6.854   4.700
86022SOL     OW59897   6.525   9.861   6.024
86022SOL    HW159898   6.511   9.769   6.002
86022SOL    HW259899   6.612   9.862   6.065
86023SOL     OW59900   8.073   2.271   2.508
86023SOL    HW159901   8.039   2.242   2.593
86023SOL    HW259902   8.168   2.272   2.519
86024SOL     OW59903   5.971  14.543   5.611
86024SOL    HW159904   6.034  14.501   5.553
86024SOL    HW259905   5.892  14.552   5.558
86025SOL     OW59906   2.397   0.818   2.868
86025SOL    HW159907   2.330   0.763   2.907
86025SOL    HW259908   2.438   0.763   2.802
86026SOL     OW59909   1.299   3.543   3.014
86026SOL    HW159910   1.351   3.473   3.055
86026SOL    HW259911   1.293   3.611   3.081
86027SOL     OW59912  11.214   7.436  10.739
86027SOL    HW159913  11.196   7.529  10.751
86027SOL    HW259914  11.249   7.430  10.650
86028SOL     OW59915  11.054   1.940   8.788
86028SOL    HW159916  11.107   1.979   8.857
86028SOL    HW259917  11.039   1.850   8.817
86029SOL     OW59918  12.096   2.276  10.504
86029SOL    HW159919  12.061   2.351  10.551
86029SOL    HW259920  12.038   2.203  10.528
86030SOL     OW59921   7.305   0.357   0.698
86030SOL    HW159922   7.254   0.423   0.652
86030SOL    HW259923   7.260   0.274   0.679
86031SOL     OW59924  14.726   1.967   8.151
86031SOL    HW159925  14.715   1.880   8.113
86031SOL    HW259926  14.707   1.956   8.244
86032SOL     OW59927  12.795   3.910  12.207
86032SOL    HW159928  12.890   3.913  12.221
86032SOL    HW259929  12.764   3.997  12.231
86033SOL     OW59930   3.217   0.850   2.212
86033SOL    HW159931   3.184   0.909   2.144
86033SOL    HW259932   3.266   0.907   2.271
86034SOL     OW59933   7.830   4.489   0.786
86034SOL    HW159934   7.754   4.431   0.785
86034SOL    HW259935   7.868   4.477   0.873
86035SOL     OW59936   7.677  10.079  12.491
86035SOL    HW159937   7.640   9.992  12.477
86035SOL    HW259938   7.750  10.064  12.551
86036SOL     OW59939  12.330   2.757   0.823
86036SOL    HW159940  12.269   2.700   0.871
86036SOL    HW259941  12.288   2.770   0.738
86037SOL     OW59942  11.426   3.861   4.304
86037SOL    HW159943  11.474   3.840   4.384
86037SOL    HW259944  11.344   3.812   4.312
86038SOL     OW59945   9.392   7.721   9.773
86038SOL    HW159946   9.400   7.728   9.868
86038SOL    HW259947   9.323   7.784   9.750
86039SOL     OW59948  13.840   1.021   4.739
86039SOL    HW159949  13.780   0.947   4.753
86039SOL    HW259950  13.799   1.073   4.670
86040SOL     OW59951   7.467   3.799   3.571
86040SOL    HW159952   7.496   3.875   3.620
86040SOL    HW259953   7.449   3.833   3.483
86041SOL     OW59954   7.804   5.450   1.730
86041SOL    HW159955   7.724   5.411   1.695
86041SOL    HW259956   7.831   5.515   1.665
86042SOL     OW59957   4.534   9.640   9.951
86042SOL    HW159958   4.459   9.652   9.892
86042SOL    HW259959   4.572   9.728   9.959
86043SOL     OW59960  10.990   2.882   0.839
86043SOL    HW159961  11.056   2.950   0.845
86043SOL    HW259962  10.908   2.929   0.821
86044SOL     OW59963   1.378   3.038   3.330
86044SOL    HW159964   1.331   3.122   3.334
86044SOL    HW259965   1.470   3.062   3.341
86045SOL     OW59966   7.052  10.130  11.869
86045SOL    HW159967   7.074  10.107  11.778
86045SOL    HW259968   7.082  10.055  11.920
86046SOL     OW59969  11.166  13.257   4.939
86046SOL    HW159970  11.160  13.328   5.003
86046SOL    HW259971  11.207  13.298   4.862
86047SOL     OW59972  10.225  13.864   1.563
86047SOL    HW159973  10.199  13.955   1.550
86047SOL    HW259974  10.316  13.869   1.590
86048SOL     OW59975  12.177  13.398   2.456
86048SOL    HW159976  12.156  13.325   2.514
86048SOL    HW259977  12.272  13.397   2.450
86049SOL     OW59978   8.627  12.781   7.014
86049SOL    HW159979   8.670  12.765   7.099
86049SOL    HW259980   8.598  12.872   7.019
86050SOL     OW59981   1.924  12.281   0.465
86050SOL    HW159982   2.014  12.313   0.469
86050SOL    HW259983   1.881  12.320   0.540
86051SOL     OW59984   7.595   1.890   3.992
86051SOL    HW159985   7.505   1.874   3.963
86051SOL    HW259986   7.618   1.812   4.041
86052SOL     OW59987   4.245  14.484   5.359
86052SOL    HW159988   4.217  14.475   5.268
86052SOL    HW259989   4.209  14.407   5.403
86053SOL     OW59990  13.401  11.487   7.933
86053SOL    HW159991  13.317  11.493   7.887
86053SOL    HW259992  13.404  11.396   7.963
86054SOL     OW59993   8.415  14.031  10.612
86054SOL    HW159994   8.406  14.125  10.630
86054SOL    HW259995   8.339  13.991  10.655
86055SOL     OW59996   5.440   5.835   2.665
86055SOL    HW159997   5.499   5.791   2.727
86055SOL    HW259998   5.378   5.883   2.720
86056SOL     OW59999   5.167   9.881  13.644
86056SOL    HW160000   5.182   9.864  13.551
86056SOL    HW260001   5.188   9.974  13.656
86057SOL     OW60002   7.172  14.814  14.528
86057SOL    HW160003   7.155   0.032  14.538
86057SOL    HW260004   7.260  14.809  14.492
86058SOL     OW60005   3.054   1.907  10.572
86058SOL    HW160006   3.144   1.884  10.594
86058SOL    HW260007   3.000   1.851  10.629
86059SOL     OW60008   3.382   3.407   3.156
86059SOL    HW160009   3.424   3.489   3.130
86059SOL    HW260010   3.432   3.340   3.111
86060SOL     OW60011   1.335   1.624  14.496
86060SOL    HW160012   1.242   1.641  14.478
86060SOL    HW260013   1.347   1.531  14.477
86061SOL     OW60014  10.299   6.297   5.503
86061SOL    HW160015  10.312   6.248   5.583
86061SOL    HW260016  10.330   6.385   5.523
86062SOL     OW60017   9.201   3.346   2.074
86062SOL    HW160018   9.181   3.429   2.031
86062SOL    HW260019   9.194   3.280   2.005
86063SOL     OW60020   6.281   9.626   0.709
86063SOL    HW160021   6.330   9.583   0.778
86063SOL    HW260022   6.349   9.657   0.648
86064SOL     OW60023   4.337   4.433   3.724
86064SOL    HW160024   4.341   4.455   3.631
86064SOL    HW260025   4.371   4.511   3.769
86065SOL     OW60026   3.255   1.442   0.640
86065SOL    HW160027   3.269   1.445   0.735
86065SOL    HW260028   3.311   1.371   0.610
86066SOL     OW60029  12.845   2.499   1.698
86066SOL    HW160030  12.804   2.466   1.777
86066SOL    HW260031  12.772   2.521   1.640
86067SOL     OW60032   4.794  10.435   3.903
86067SOL    HW160033   4.716  10.469   3.946
86067SOL    HW260034   4.761  10.392   3.824
86068SOL     OW60035   4.986  12.313  10.071
86068SOL    HW160036   4.978  12.402  10.035
86068SOL    HW260037   5.036  12.265  10.005
86069SOL     OW60038  12.875   3.789   0.066
86069SOL    HW160039  12.801   3.849   0.067
86069SOL    HW260040  12.929   3.815   0.140
86070SOL     OW60041   0.408  14.838   6.638
86070SOL    HW160042   0.367   0.048   6.645
86070SOL    HW260043   0.352  14.790   6.577
86071SOL     OW60044   0.924  11.586   1.646
86071SOL    HW160045   1.020  11.583   1.652
86071SOL    HW260046   0.898  11.495   1.641
86072SOL     OW60047   4.718   8.046   0.145
86072SOL    HW160048   4.770   8.125   0.130
86072SOL    HW260049   4.662   8.067   0.220
86073SOL     OW60050   1.106   9.235   2.917
86073SOL    HW160051   1.093   9.271   3.005
86073SOL    HW260052   1.080   9.305   2.858
86074SOL     OW60053   8.043   3.103   9.640
86074SOL    HW160054   7.954   3.133   9.622
86074SOL    HW260055   8.034   3.011   9.665
86075SOL     OW60056   2.433   5.905   6.224
86075SOL    HW160057   2.523   5.935   6.238
86075SOL    HW260058   2.422   5.906   6.129
86076SOL     OW60059   2.748   2.649   6.939
86076SOL    HW160060   2.743   2.647   7.034
86076SOL    HW260061   2.829   2.696   6.920
86077SOL     OW60062   6.165  10.242   2.042
86077SOL    HW160063   6.129  10.288   1.966
86077SOL    HW260064   6.184  10.311   2.105
86078SOL     OW60065   3.188  10.633   3.829
86078SOL    HW160066   3.135  10.675   3.896
86078SOL    HW260067   3.158  10.672   3.747
86079SOL     OW60068   8.915   9.582   7.388
86079SOL    HW160069   8.837   9.544   7.348
86079SOL    HW260070   8.886   9.614   7.473
86080SOL     OW60071   2.680   8.020   3.763
86080SOL    HW160072   2.692   7.935   3.806
86080SOL    HW260073   2.590   8.018   3.732
86081SOL     OW60074  12.620   8.337   9.546
86081SOL    HW160075  12.595   8.358   9.456
86081SOL    HW260076  12.673   8.258   9.539
86082SOL     OW60077   8.898   5.728   5.094
86082SOL    HW160078   8.989   5.699   5.099
86082SOL    HW260079   8.847   5.650   5.114
86083SOL     OW60080  11.256   3.506  14.808
86083SOL    HW160081  11.242   3.501  14.714
86083SOL    HW260082  11.342   3.466  14.822
86084SOL     OW60083   7.412  10.331   2.801
86084SOL    HW160084   7.478  10.277   2.844
86084SOL    HW260085   7.426  10.317   2.708
86085SOL     OW60086   8.587   2.120  12.091
86085SOL    HW160087   8.617   2.056  12.155
86085SOL    HW260088   8.493   2.129  12.108
86086SOL     OW60089   6.328   8.537   9.928
86086SOL    HW160090   6.300   8.473   9.993
86086SOL    HW260091   6.250   8.591   9.913
86087SOL     OW60092  11.434   1.268   5.724
86087SOL    HW160093  11.397   1.348   5.685
86087SOL    HW260094  11.358   1.222   5.760
86088SOL     OW60095  12.505   9.405  13.659
86088SOL    HW160096  12.412   9.396  13.638
86088SOL    HW260097  12.548   9.411  13.574
86089SOL     OW60098   1.979   7.887   1.893
86089SOL    HW160099   2.051   7.942   1.863
86089SOL    HW260100   1.900   7.939   1.875
86090SOL     OW60101   6.493   0.668  12.749
86090SOL    HW160102   6.588   0.677  12.741
86090SOL    HW260103   6.480   0.581  12.788
86091SOL     OW60104  11.256  12.336   0.701
86091SOL    HW160105  11.216  12.302   0.781
86091SOL    HW260106  11.187  12.388   0.660
86092SOL     OW60107   2.392   0.493   8.888
86092SOL    HW160108   2.415   0.547   8.964
86092SOL    HW260109   2.322   0.542   8.844
86093SOL     OW60110   4.212   8.594   9.019
86093SOL    HW160111   4.279   8.526   9.008
86093SOL    HW260112   4.194   8.594   9.113
86094SOL     OW60113   5.214  12.912   8.782
86094SOL    HW160114   5.221  12.845   8.850
86094SOL    HW260115   5.304  12.933   8.760
86095SOL     OW60116   7.431  13.022   9.155
86095SOL    HW160117   7.369  12.982   9.094
86095SOL    HW260118   7.384  13.097   9.191
86096SOL     OW60119   3.613   5.178   0.994
86096SOL    HW160120   3.575   5.126   1.066
86096SOL    HW260121   3.539   5.195   0.936
86097SOL     OW60122   6.014   2.863   3.504
86097SOL    HW160123   6.027   2.806   3.579
86097SOL    HW260124   5.932   2.834   3.465
86098SOL     OW60125   0.861   1.453  10.547
86098SOL    HW160126   0.803   1.476  10.620
86098SOL    HW260127   0.846   1.359  10.534
86099SOL     OW60128   9.626  12.180   5.703
86099SOL    HW160129   9.578  12.159   5.622
86099SOL    HW260130   9.679  12.256   5.680
86100SOL     OW60131   5.701  13.008  14.212
86100SOL    HW160132   5.700  12.913  14.218
86100SOL    HW260133   5.781  13.028  14.162
86101SOL     OW60134  11.612   2.812   5.892
86101SOL    HW160135  11.670   2.815   5.816
86101SOL    HW260136  11.534   2.765   5.861
86102SOL     OW60137   2.007   6.920   9.224
86102SOL    HW160138   1.980   6.981   9.293
86102SOL    HW260139   2.099   6.941   9.209
86103SOL     OW60140   4.102  13.548  10.266
86103SOL    HW160141   4.050  13.582  10.193
86103SOL    HW260142   4.085  13.454  10.267
86104SOL     OW60143   9.776   0.498   0.609
86104SOL    HW160144   9.732   0.444   0.674
86104SOL    HW260145   9.755   0.457   0.525
86105SOL     OW60146   9.471   0.295   6.180
86105SOL    HW160147   9.378   0.272   6.185
86105SOL    HW260148   9.500   0.256   6.097
86106SOL     OW60149  14.499   3.875   5.581
86106SOL    HW160150  14.591   3.886   5.608
86106SOL    HW260151  14.450   3.930   5.642
86107SOL     OW60152   3.188  11.598   5.299
86107SOL    HW160153   3.170  11.656   5.225
86107SOL    HW260154   3.193  11.656   5.375
86108SOL     OW60155  10.664   7.378   9.951
86108SOL    HW160156  10.632   7.306   9.897
86108SOL    HW260157  10.669   7.453   9.891
86109SOL     OW60158  13.991  14.277   5.680
86109SOL    HW160159  14.059  14.269   5.748
86109SOL    HW260160  13.917  14.316   5.726
86110SOL     OW60161  13.980   3.172   0.897
86110SOL    HW160162  14.028   3.250   0.870
86110SOL    HW260163  13.929   3.200   0.973
86111SOL     OW60164  12.406  12.333  13.758
86111SOL    HW160165  12.360  12.255  13.728
86111SOL    HW260166  12.339  12.402  13.756
86112SOL     OW60167   8.160   1.352   3.511
86112SOL    HW160168   8.151   1.429   3.454
86112SOL    HW260169   8.086   1.296   3.487
86113SOL     OW60170  11.571  11.072   8.573
86113SOL    HW160171  11.585  10.978   8.585
86113SOL    HW260172  11.630  11.096   8.501
86114SOL     OW60173   7.418   5.135   1.751
86114SOL    HW160174   7.422   5.040   1.745
86114SOL    HW260175   7.449   5.165   1.665
86115SOL     OW60176  14.324   9.700  10.942
86115SOL    HW160177  14.411   9.720  10.974
86115SOL    HW260178  14.269   9.698  11.020
86116SOL     OW60179   8.551   9.837  12.986
86116SOL    HW160180   8.466   9.867  12.952
86116SOL    HW260181   8.569   9.896  13.059
86117SOL     OW60182  10.341  10.416  11.728
86117SOL    HW160183  10.283  10.473  11.676
86117SOL    HW260184  10.308  10.424  11.817
86118SOL     OW60185   9.270   5.641   4.516
86118SOL    HW160186   9.276   5.570   4.580
86118SOL    HW260187   9.338   5.704   4.543
86119SOL     OW60188   3.756   3.024   6.625
86119SOL    HW160189   3.755   3.085   6.699
86119SOL    HW260190   3.669   3.031   6.586
86120SOL     OW60191   5.151  14.730   5.863
86120SOL    HW160192   5.216  14.659   5.868
86120SOL    HW260193   5.129  14.735   5.770
86121SOL     OW60194  12.171   4.311  11.953
86121SOL    HW160195  12.096   4.257  11.977
86121SOL    HW260196  12.239   4.248  11.930
86122SOL     OW60197  12.671   5.083   6.076
86122SOL    HW160198  12.646   5.049   6.162
86122SOL    HW260199  12.595   5.134   6.048
86123SOL     OW60200   2.963  14.666   2.725
86123SOL    HW160201   3.007  14.596   2.677
86123SOL    HW260202   2.970  14.640   2.817
86124SOL     OW60203   4.398   9.890  12.271
86124SOL    HW160204   4.441   9.813  12.309
86124SOL    HW260205   4.315   9.896  12.318
86125SOL     OW60206   7.001   5.452  11.032
86125SOL    HW160207   6.907   5.435  11.030
86125SOL    HW260208   7.040   5.373  10.994
86126SOL     OW60209   3.831   6.365   3.070
86126SOL    HW160210   3.919   6.352   3.105
86126SOL    HW260211   3.777   6.303   3.119
86127SOL     OW60212  13.341   9.438  12.460
86127SOL    HW160213  13.407   9.388  12.509
86127SOL    HW260214  13.350   9.408  12.370
86128SOL     OW60215   1.700   7.220   0.967
86128SOL    HW160216   1.733   7.171   0.892
86128SOL    HW260217   1.672   7.154   1.030
86129SOL     OW60218   2.520   7.312   8.537
86129SOL    HW160219   2.596   7.273   8.495
86129SOL    HW260220   2.510   7.264   8.619
86130SOL     OW60221   3.108   4.648   5.728
86130SOL    HW160222   3.050   4.717   5.759
86130SOL    HW260223   3.180   4.694   5.685
86131SOL     OW60224  13.000  14.302   1.972
86131SOL    HW160225  13.088  14.312   2.010
86131SOL    HW260226  12.990  14.208   1.959
86132SOL     OW60227   5.274   3.017   7.528
86132SOL    HW160228   5.274   2.932   7.485
86132SOL    HW260229   5.355   3.018   7.579
86133SOL     OW60230   3.354  10.143   5.044
86133SOL    HW160231   3.297  10.066   5.045
86133SOL    HW260232   3.381  10.152   4.953
86134SOL     OW60233   0.523   2.129  13.373
86134SOL    HW160234   0.458   2.164  13.312
86134SOL    HW260235   0.472   2.099  13.448
86135SOL     OW60236   6.474   7.579   3.349
86135SOL    HW160237   6.539   7.516   3.379
86135SOL    HW260238   6.413   7.586   3.422
86136SOL     OW60239   2.532  10.932   7.014
86136SOL    HW160240   2.523  10.837   7.019
86136SOL    HW260241   2.478  10.957   6.939
86137SOL     OW60242  11.187  11.123  12.905
86137SOL    HW160243  11.103  11.111  12.951
86137SOL    HW260244  11.225  11.201  12.946
86138SOL     OW60245  14.277   2.007   9.057
86138SOL    HW160246  14.358   2.025   9.008
86138SOL    HW260247  14.294   1.923   9.100
86139SOL     OW60248  14.183   0.739   9.587
86139SOL    HW160249  14.137   0.740   9.503
86139SOL    HW260250  14.265   0.786   9.569
86140SOL     OW60251   2.607   6.930   0.139
86140SOL    HW160252   2.563   6.971   0.214
86140SOL    HW260253   2.691   6.902   0.174
86141SOL     OW60254   0.618   4.891  10.772
86141SOL    HW160255   0.591   4.979  10.798
86141SOL    HW260256   0.706   4.903  10.735
86142SOL     OW60257   4.516   6.481   9.467
86142SOL    HW160258   4.497   6.563   9.512
86142SOL    HW260259   4.607   6.491   9.437
86143SOL     OW60260   6.408   7.286   3.822
86143SOL    HW160261   6.489   7.269   3.871
86143SOL    HW260262   6.437   7.337   3.746
86144SOL     OW60263  13.826  10.620   8.269
86144SOL    HW160264  13.869  10.687   8.215
86144SOL    HW260265  13.745  10.661   8.298
86145SOL     OW60266   6.984  13.309  14.850
86145SOL    HW160267   6.968  13.354   0.057
86145SOL    HW260268   6.898  13.275  14.825
86146SOL     OW60269   1.970   8.140  14.422
86146SOL    HW160270   1.964   8.092  14.505
86146SOL    HW260271   2.063   8.138  14.400
86147SOL     OW60272   6.048  11.621   6.570
86147SOL    HW160273   6.019  11.656   6.486
86147SOL    HW260274   6.116  11.558   6.548
86148SOL     OW60275  12.506   5.378  14.255
86148SOL    HW160276  12.575   5.347  14.196
86148SOL    HW260277  12.424   5.358  14.210
86149SOL     OW60278  11.762  12.221  10.860
86149SOL    HW160279  11.819  12.218  10.783
86149SOL    HW260280  11.732  12.312  10.865
86150SOL     OW60281   5.911   7.927   3.347
86150SOL    HW160282   5.854   7.947   3.421
86150SOL    HW260283   5.857   7.875   3.288
86151SOL     OW60284   0.421   5.733   7.459
86151SOL    HW160285   0.454   5.769   7.377
86151SOL    HW260286   0.491   5.676   7.490
86152SOL     OW60287   4.640   7.555   2.000
86152SOL    HW160288   4.553   7.518   1.986
86152SOL    HW260289   4.680   7.499   2.067
86153SOL     OW60290  10.347   4.572   3.823
86153SOL    HW160291  10.331   4.642   3.760
86153SOL    HW260292  10.439   4.583   3.848
86154SOL     OW60293  11.193   7.238  11.394
86154SOL    HW160294  11.202   7.237  11.299
86154SOL    HW260295  11.112   7.190  11.412
86155SOL     OW60296   3.565   9.614  12.377
86155SOL    HW160297   3.486   9.572  12.342
86155SOL    HW260298   3.581   9.688  12.319
86156SOL     OW60299   4.942   1.466  14.125
86156SOL    HW160300   4.877   1.445  14.058
86156SOL    HW260301   4.928   1.559  14.143
86157SOL     OW60302   2.253   3.564   7.543
86157SOL    HW160303   2.284   3.580   7.454
86157SOL    HW260304   2.305   3.622   7.597
86158SOL     OW60305  10.071  13.562   8.251
86158SOL    HW160306  10.066  13.609   8.334
86158SOL    HW260307  10.129  13.488   8.269
86159SOL     OW60308   3.157   3.846   8.866
86159SOL    HW160309   3.125   3.891   8.788
86159SOL    HW260310   3.252   3.841   8.854
86160SOL     OW60311   8.432   1.750  13.586
86160SOL    HW160312   8.507   1.803  13.613
86160SOL    HW260313   8.363   1.814  13.566
86161SOL     OW60314   6.743   1.427   9.247
86161SOL    HW160315   6.771   1.340   9.275
86161SOL    HW260316   6.656   1.437   9.287
86162SOL     OW60317  13.201  12.067   5.041
86162SOL    HW160318  13.151  12.091   5.119
86162SOL    HW260319  13.213  12.149   4.993
86163SOL     OW60320   0.635   2.752   3.827
86163SOL    HW160321   0.669   2.713   3.746
86163SOL    HW260322   0.591   2.679   3.871
86164SOL     OW60323   8.211   7.534   9.110
86164SOL    HW160324   8.201   7.507   9.019
86164SOL    HW260325   8.305   7.545   9.122
86165SOL     OW60326   4.115  11.100   7.420
86165SOL    HW160327   4.136  11.058   7.337
86165SOL    HW260328   4.110  11.028   7.483
86166SOL     OW60329   1.901  12.783   2.172
86166SOL    HW160330   1.813  12.785   2.210
86166SOL    HW260331   1.935  12.871   2.184
86167SOL     OW60332  14.662  10.752   8.422
86167SOL    HW160333  14.726  10.691   8.387
86167SOL    HW260334  14.579  10.704   8.420
86168SOL     OW60335  13.881  10.350   0.631
86168SOL    HW160336  13.886  10.445   0.644
86168SOL    HW260337  13.972  10.321   0.637
86169SOL     OW60338   4.075   7.578   7.593
86169SOL    HW160339   4.130   7.583   7.671
86169SOL    HW260340   4.135   7.555   7.522
86170SOL     OW60341   4.436  14.372   3.161
86170SOL    HW160342   4.438  14.316   3.239
86170SOL    HW260343   4.365  14.337   3.108
86171SOL     OW60344   8.715   3.436   1.491
86171SOL    HW160345   8.689   3.526   1.473
86171SOL    HW260346   8.713   3.428   1.586
86172SOL     OW60347   0.647   8.419   6.279
86172SOL    HW160348   0.601   8.395   6.198
86172SOL    HW260349   0.577   8.431   6.343
86173SOL     OW60350  13.537   3.349   1.205
86173SOL    HW160351  13.551   3.270   1.258
86173SOL    HW260352  13.553   3.319   1.115
86174SOL     OW60353   1.442   5.813   9.885
86174SOL    HW160354   1.358   5.830   9.927
86174SOL    HW260355   1.430   5.842   9.794
86175SOL     OW60356   5.393  13.263   6.953
86175SOL    HW160357   5.457  13.210   6.905
86175SOL    HW260358   5.347  13.312   6.885
86176SOL     OW60359   4.276   3.513  11.908
86176SOL    HW160360   4.266   3.513  12.003
86176SOL    HW260361   4.190   3.539  11.875
86177SOL     OW60362  10.868   5.829  11.531
86177SOL    HW160363  10.901   5.855  11.617
86177SOL    HW260364  10.932   5.865  11.469
86178SOL     OW60365   6.107   4.919  13.208
86178SOL    HW160366   6.159   4.888  13.282
86178SOL    HW260367   6.089   5.011  13.229
86179SOL     OW60368  13.084   7.750   5.531
86179SOL    HW160369  13.118   7.839   5.541
86179SOL    HW260370  13.000   7.761   5.488
86180SOL     OW60371   9.611   8.170   7.951
86180SOL    HW160372   9.542   8.108   7.973
86180SOL    HW260373   9.659   8.183   8.033
86181SOL     OW60374   7.539   1.727  12.339
86181SOL    HW160375   7.471   1.783  12.303
86181SOL    HW260376   7.495   1.680  12.410
86182SOL     OW60377   6.687  12.541   3.826
86182SOL    HW160378   6.613  12.600   3.814
86182SOL    HW260379   6.647  12.454   3.835
86183SOL     OW60380  13.608   4.406   6.050
86183SOL    HW160381  13.524   4.413   6.005
86183SOL    HW260382  13.590   4.437   6.139
86184SOL     OW60383   9.468   9.207   0.267
86184SOL    HW160384   9.474   9.277   0.202
86184SOL    HW260385   9.515   9.134   0.228
86185SOL     OW60386   7.784   0.268   0.592
86185SOL    HW160387   7.729   0.288   0.516
86185SOL    HW260388   7.836   0.193   0.565
86186SOL     OW60389  12.872   8.529   0.330
86186SOL    HW160390  12.869   8.603   0.270
86186SOL    HW260391  12.840   8.564   0.413
86187SOL     OW60392   6.485  13.347   9.304
86187SOL    HW160393   6.466  13.319   9.214
86187SOL    HW260394   6.400  13.377   9.338
86188SOL     OW60395  10.362  12.125   3.549
86188SOL    HW160396  10.398  12.059   3.609
86188SOL    HW260397  10.427  12.195   3.548
86189SOL     OW60398  13.595   0.547   7.179
86189SOL    HW160399  13.672   0.490   7.175
86189SOL    HW260400  13.522   0.491   7.152
86190SOL     OW60401   2.959  11.869   8.803
86190SOL    HW160402   3.038  11.825   8.834
86190SOL    HW260403   2.900  11.866   8.878
86191SOL     OW60404  14.185  14.585   6.758
86191SOL    HW160405  14.127  14.516   6.790
86191SOL    HW260406  14.198  14.566   6.666
86192SOL     OW60407   2.189   7.197   9.111
86192SOL    HW160408   2.245   7.264   9.150
86192SOL    HW260409   2.215   7.116   9.154
86193SOL     OW60410   6.516   0.705   1.822
86193SOL    HW160411   6.510   0.760   1.743
86193SOL    HW260412   6.568   0.757   1.883
86194SOL     OW60413   5.549   7.262   1.978
86194SOL    HW160414   5.638   7.286   2.003
86194SOL    HW260415   5.557   7.175   1.939
86195SOL     OW60416   2.847  12.303   3.491
86195SOL    HW160417   2.801  12.376   3.533
86195SOL    HW260418   2.792  12.227   3.509
86196SOL     OW60419   1.089   1.072   6.382
86196SOL    HW160420   0.994   1.067   6.370
86196SOL    HW260421   1.123   0.996   6.335
86197SOL     OW60422   8.469  12.821   0.934
86197SOL    HW160423   8.410  12.753   0.965
86197SOL    HW260424   8.466  12.888   1.002
86198SOL     OW60425  12.246   5.202   8.798
86198SOL    HW160426  12.326   5.178   8.844
86198SOL    HW260427  12.234   5.132   8.733
86199SOL     OW60428   6.446  14.795   9.580
86199SOL    HW160429   6.362  14.839   9.594
86199SOL    HW260430   6.499  14.857   9.530
86200SOL     OW60431   8.012   5.713  12.747
86200SOL    HW160432   7.970   5.764  12.677
86200SOL    HW260433   8.086   5.767  12.774
86201SOL     OW60434  10.872   7.688   8.986
86201SOL    HW160435  10.828   7.619   9.036
86201SOL    HW260436  10.872   7.656   8.896
86202SOL     OW60437  10.199   9.027  10.311
86202SOL    HW160438  10.142   8.952  10.293
86202SOL    HW260439  10.144   9.103  10.289
86203SOL     OW60440   9.553   1.685   7.027
86203SOL    HW160441   9.461   1.693   7.055
86203SOL    HW260442   9.570   1.766   6.979
86204SOL     OW60443   6.905   0.191  12.668
86204SOL    HW160444   6.863   0.117  12.625
86204SOL    HW260445   6.906   0.167  12.761
86205SOL     OW60446   4.476   8.131   5.568
86205SOL    HW160447   4.516   8.144   5.482
86205SOL    HW260448   4.549   8.117   5.627
86206SOL     OW60449  12.576  10.279   2.737
86206SOL    HW160450  12.568  10.374   2.742
86206SOL    HW260451  12.545  10.256   2.649
86207SOL     OW60452   7.521   3.778   9.429
86207SOL    HW160453   7.441   3.734   9.456
86207SOL    HW260454   7.591   3.729   9.472
86208SOL     OW60455   1.581   0.306   6.181
86208SOL    HW160456   1.540   0.390   6.160
86208SOL    HW260457   1.563   0.251   6.105
86209SOL     OW60458  10.622   9.869   6.324
86209SOL    HW160459  10.716   9.866   6.345
86209SOL    HW260460  10.594   9.778   6.329
86210SOL     OW60461   3.484  10.634   0.786
86210SOL    HW160462   3.409  10.655   0.731
86210SOL    HW260463   3.529  10.717   0.799
86211SOL     OW60464   4.221   4.183   3.613
86211SOL    HW160465   4.225   4.278   3.620
86211SOL    HW260466   4.306   4.153   3.646
86212SOL     OW60467  11.011   2.493   1.064
86212SOL    HW160468  11.095   2.462   1.030
86212SOL    HW260469  10.951   2.420   1.049
86213SOL     OW60470   7.071  10.665   6.427
86213SOL    HW160471   7.156  10.646   6.467
86213SOL    HW260472   7.038  10.579   6.399
86214SOL     OW60473   6.320   2.187   3.038
86214SOL    HW160474   6.347   2.100   3.067
86214SOL    HW260475   6.267   2.171   2.960
86215SOL     OW60476   1.496   9.759   2.177
86215SOL    HW160477   1.546   9.689   2.218
86215SOL    HW260478   1.558   9.805   2.121
86216SOL     OW60479   8.157   1.886   6.277
86216SOL    HW160480   8.078   1.911   6.229
86216SOL    HW260481   8.186   1.805   6.235
86217SOL     OW60482   5.691   7.940   1.247
86217SOL    HW160483   5.635   7.988   1.185
86217SOL    HW260484   5.684   7.849   1.220
86218SOL     OW60485  10.195  10.903   2.730
86218SOL    HW160486  10.134  10.830   2.743
86218SOL    HW260487  10.281  10.866   2.753
86219SOL     OW60488   7.233   2.264   1.094
86219SOL    HW160489   7.237   2.173   1.067
86219SOL    HW260490   7.296   2.270   1.166
86220SOL     OW60491   7.844   8.155   6.174
86220SOL    HW160492   7.801   8.234   6.206
86220SOL    HW260493   7.802   8.137   6.090
86221SOL     OW60494  11.333   3.700  10.559
86221SOL    HW160495  11.285   3.643  10.620
86221SOL    HW260496  11.422   3.704  10.596
86222SOL     OW60497   8.987  12.330   8.647
86222SOL    HW160498   8.915  12.389   8.625
86222SOL    HW260499   8.943  12.248   8.671
86223SOL     OW60500   2.397  10.731  13.925
86223SOL    HW160501   2.417  10.686  13.843
86223SOL    HW260502   2.406  10.664  13.992
86224SOL     OW60503  14.206   4.550   6.908
86224SOL    HW160504  14.131   4.572   6.964
86224SOL    HW260505  14.258   4.630   6.905
86225SOL     OW60506   7.613  14.681   4.701
86225SOL    HW160507   7.570  14.755   4.745
86225SOL    HW260508   7.690  14.720   4.658
86226SOL     OW60509  11.061  13.275  10.671
86226SOL    HW160510  11.064  13.294  10.765
86226SOL    HW260511  11.137  13.319  10.635
86227SOL     OW60512   2.664   8.319   7.859
86227SOL    HW160513   2.665   8.380   7.785
86227SOL    HW260514   2.714   8.363   7.927
86228SOL     OW60515   0.335   8.994   2.207
86228SOL    HW160516   0.357   8.910   2.168
86228SOL    HW260517   0.253   9.019   2.165
86229SOL     OW60518  12.156  10.941   2.657
86229SOL    HW160519  12.169  11.033   2.680
86229SOL    HW260520  12.076  10.941   2.603
86230SOL     OW60521   4.162   9.672   7.832
86230SOL    HW160522   4.107   9.730   7.884
86230SOL    HW260523   4.184   9.600   7.891
86231SOL     OW60524   1.208   6.293  10.155
86231SOL    HW160525   1.251   6.377  10.140
86231SOL    HW260526   1.159   6.304  10.237
86232SOL     OW60527   2.433   5.434   7.076
86232SOL    HW160528   2.452   5.522   7.043
86232SOL    HW260529   2.475   5.431   7.162
86233SOL     OW60530   6.494  12.740   1.054
86233SOL    HW160531   6.437  12.816   1.040
86233SOL    HW260532   6.434  12.666   1.057
86234SOL     OW60533   7.798   4.234  11.011
86234SOL    HW160534   7.881   4.190  11.029
86234SOL    HW260535   7.821   4.306  10.952
86235SOL     OW60536  12.311   4.818  11.912
86235SOL    HW160537  12.302   4.793  11.820
86235SOL    HW260538  12.255   4.757  11.960
86236SOL     OW60539   5.847   9.053   9.094
86236SOL    HW160540   5.943   9.048   9.100
86236SOL    HW260541   5.824   8.996   9.021
86237SOL     OW60542  14.183   9.816  13.331
86237SOL    HW160543  14.144   9.735  13.296
86237SOL    HW260544  14.196   9.871  13.253
86238SOL     OW60545   9.385  13.479   7.972
86238SOL    HW160546   9.367  13.519   7.887
86238SOL    HW260547   9.315  13.414   7.983
86239SOL     OW60548   8.587   6.053   5.084
86239SOL    HW160549   8.631   5.981   5.041
86239SOL    HW260550   8.648   6.127   5.077
86240SOL     OW60551   7.492   8.161   6.571
86240SOL    HW160552   7.478   8.214   6.649
86240SOL    HW260553   7.405   8.131   6.545
86241SOL     OW60554   3.312   8.899   3.282
86241SOL    HW160555   3.251   8.831   3.252
86241SOL    HW260556   3.317   8.961   3.209
86242SOL     OW60557   1.853   4.724  12.657
86242SOL    HW160558   1.839   4.694  12.567
86242SOL    HW260559   1.781   4.785  12.673
86243SOL     OW60560   1.861   8.767   6.790
86243SOL    HW160561   1.954   8.752   6.801
86243SOL    HW260562   1.845   8.753   6.696
86244SOL     OW60563   0.427  11.593   1.705
86244SOL    HW160564   0.385  11.512   1.675
86244SOL    HW260565   0.445  11.641   1.625
86245SOL     OW60566  12.361   0.825   9.287
86245SOL    HW160567  12.318   0.892   9.234
86245SOL    HW260568  12.319   0.743   9.260
86246SOL     OW60569   4.815   6.687  10.544
86246SOL    HW160570   4.806   6.707  10.637
86246SOL    HW260571   4.871   6.756  10.509
86247SOL     OW60572   2.861   8.065   9.368
86247SOL    HW160573   2.803   8.047   9.294
86247SOL    HW260574   2.809   8.122   9.425
86248SOL     OW60575  12.516  10.363  12.349
86248SOL    HW160576  12.529  10.338  12.440
86248SOL    HW260577  12.601  10.347  12.307
86249SOL     OW60578   7.864  10.597   6.025
86249SOL    HW160579   7.816  10.590   5.943
86249SOL    HW260580   7.859  10.690   6.048
86250SOL     OW60581   3.631   4.584  13.515
86250SOL    HW160582   3.671   4.669  13.533
86250SOL    HW260583   3.639   4.574  13.420
86251SOL     OW60584   5.406   6.562   1.076
86251SOL    HW160585   5.358   6.582   0.996
86251SOL    HW260586   5.407   6.644   1.126
86252SOL     OW60587   9.592   9.656   9.768
86252SOL    HW160588   9.653   9.720   9.731
86252SOL    HW260589   9.547   9.620   9.692
86253SOL     OW60590   4.410   4.424   8.398
86253SOL    HW160591   4.405   4.424   8.302
86253SOL    HW260592   4.448   4.509   8.420
86254SOL     OW60593  11.380   0.844  12.694
86254SOL    HW160594  11.375   0.760  12.649
86254SOL    HW260595  11.321   0.836  12.768
86255SOL     OW60596   9.509   6.359   7.566
86255SOL    HW160597   9.468   6.329   7.647
86255SOL    HW260598   9.518   6.279   7.513
86256SOL     OW60599   3.110   8.264   8.885
86256SOL    HW160600   3.136   8.348   8.924
86256SOL    HW260601   3.183   8.241   8.828
86257SOL     OW60602  14.377  10.652  14.087
86257SOL    HW160603  14.467  10.628  14.068
86257SOL    HW260604  14.383  10.739  14.127
86258SOL     OW60605   9.248   7.550   8.942
86258SOL    HW160606   9.312   7.589   9.002
86258SOL    HW260607   9.221   7.622   8.886
86259SOL     OW60608   6.891   1.828   0.132
86259SOL    HW160609   6.813   1.829   0.187
86259SOL    HW260610   6.958   1.872   0.185
86260SOL     OW60611  10.597   9.138   5.360
86260SOL    HW160612  10.572   9.230   5.372
86260SOL    HW260613  10.555   9.092   5.433
86261SOL     OW60614  12.398   9.662   6.466
86261SOL    HW160615  12.392   9.639   6.374
86261SOL    HW260616  12.306   9.667   6.495
86262SOL     OW60617   6.864   0.016   9.964
86262SOL    HW160618   6.893   0.106   9.982
86262SOL    HW260619   6.786   0.026   9.909
86263SOL     OW60620  11.994  11.191  12.265
86263SOL    HW160621  11.957  11.206  12.178
86263SOL    HW260622  12.009  11.097  12.269
86264SOL     OW60623   9.367  13.092   0.541
86264SOL    HW160624   9.388  13.072   0.632
86264SOL    HW260625   9.360  13.007   0.498
86265SOL     OW60626   1.964  13.814  12.315
86265SOL    HW160627   1.915  13.879  12.264
86265SOL    HW260628   2.049  13.855  12.330
86266SOL     OW60629   4.827   8.501   1.584
86266SOL    HW160630   4.749   8.531   1.536
86266SOL    HW260631   4.900   8.526   1.528
86267SOL     OW60632  11.907  14.864   0.866
86267SOL    HW160633  11.983   0.025   0.911
86267SOL    HW260634  11.835   0.049   0.886
86268SOL     OW60635  13.126   9.856   2.825
86268SOL    HW160636  13.039   9.866   2.865
86268SOL    HW260637  13.140   9.939   2.779
86269SOL     OW60638  14.370   0.079   3.297
86269SOL    HW160639  14.452   0.041   3.266
86269SOL    HW260640  14.307   0.061   3.228
86270SOL     OW60641   0.012   3.616   4.593
86270SOL    HW160642  14.837   3.680   4.544
86270SOL    HW260643  14.824   3.550   4.620
86271SOL     OW60644   3.014   6.153  13.008
86271SOL    HW160645   2.936   6.112  12.970
86271SOL    HW260646   2.998   6.247  12.998
86272SOL     OW60647   4.894   2.166  10.866
86272SOL    HW160648   4.901   2.219  10.945
86272SOL    HW260649   4.855   2.224  10.801
86273SOL     OW60650   1.608  10.130   3.887
86273SOL    HW160651   1.615  10.206   3.828
86273SOL    HW260652   1.561  10.164   3.963
86274SOL     OW60653  11.911   6.364   5.831
86274SOL    HW160654  11.927   6.417   5.753
86274SOL    HW260655  11.873   6.282   5.798
86275SOL     OW60656   3.407   2.093   6.154
86275SOL    HW160657   3.491   2.056   6.182
86275SOL    HW260658   3.359   2.018   6.119
86276SOL     OW60659   1.555   8.629   8.352
86276SOL    HW160660   1.556   8.539   8.385
86276SOL    HW260661   1.482   8.630   8.290
86277SOL     OW60662   2.768   6.586   6.702
86277SOL    HW160663   2.795   6.667   6.658
86277SOL    HW260664   2.825   6.519   6.667
86278SOL     OW60665   1.379   1.760  11.402
86278SOL    HW160666   1.442   1.803  11.344
86278SOL    HW260667   1.351   1.828  11.463
86279SOL     OW60668  12.645  14.487   2.818
86279SOL    HW160669  12.623  14.421   2.752
86279SOL    HW260670  12.647  14.438   2.901
86280SOL     OW60671   0.645  11.806   8.904
86280SOL    HW160672   0.704  11.848   8.841
86280SOL    HW260673   0.578  11.873   8.922
86281SOL     OW60674   1.554   8.876   6.739
86281SOL    HW160675   1.471   8.860   6.784
86281SOL    HW260676   1.619   8.831   6.792
86282SOL     OW60677   0.476   3.608  13.980
86282SOL    HW160678   0.381   3.617  13.995
86282SOL    HW260679   0.495   3.518  14.007
86283SOL     OW60680   7.652   6.228  11.821
86283SOL    HW160681   7.602   6.199  11.744
86283SOL    HW260682   7.742   6.204  11.801
86284SOL     OW60683  11.589   6.072   6.021
86284SOL    HW160684  11.651   5.999   6.010
86284SOL    HW260685  11.539   6.073   5.939
86285SOL     OW60686  10.322  11.795   0.622
86285SOL    HW160687  10.299  11.710   0.583
86285SOL    HW260688  10.279  11.860   0.566
86286SOL     OW60689   9.472  10.994  14.319
86286SOL    HW160690   9.414  10.969  14.246
86286SOL    HW260691   9.552  11.024  14.277
86287SOL     OW60692   2.489   3.738  11.229
86287SOL    HW160693   2.398   3.757  11.208
86287SOL    HW260694   2.505   3.781  11.313
86288SOL     OW60695  12.979   2.724   1.833
86288SOL    HW160696  13.003   2.697   1.922
86288SOL    HW260697  12.931   2.650   1.798
86289SOL     OW60698   8.867  12.083   6.155
86289SOL    HW160699   8.910  12.162   6.188
86289SOL    HW260700   8.784  12.113   6.119
86290SOL     OW60701  13.653  11.311   0.742
86290SOL    HW160702  13.694  11.318   0.829
86290SOL    HW260703  13.625  11.400   0.721
86291SOL     OW60704   8.572   0.292  10.941
86291SOL    HW160705   8.504   0.305  11.006
86291SOL    HW260706   8.612   0.378  10.930
86292SOL     OW60707  14.235   6.593   3.959
86292SOL    HW160708  14.318   6.634   3.982
86292SOL    HW260709  14.169   6.637   4.013
86293SOL     OW60710   5.116   9.018   3.522
86293SOL    HW160711   5.127   9.102   3.565
86293SOL    HW260712   5.206   8.985   3.513
86294SOL     OW60713   3.069   6.455   7.584
86294SOL    HW160714   2.985   6.484   7.548
86294SOL    HW260715   3.081   6.367   7.549
86295SOL     OW60716   8.754   2.894   9.739
86295SOL    HW160717   8.773   2.831   9.808
86295SOL    HW260718   8.733   2.975   9.786
86296SOL     OW60719   4.176   5.971  10.538
86296SOL    HW160720   4.166   6.064  10.520
86296SOL    HW260721   4.258   5.965  10.589
86297SOL     OW60722   5.310   5.897  12.498
86297SOL    HW160723   5.276   5.810  12.520
86297SOL    HW260724   5.372   5.881  12.427
86298SOL     OW60725  14.113   4.397   9.274
86298SOL    HW160726  14.109   4.403   9.370
86298SOL    HW260727  14.025   4.420   9.245
86299SOL     OW60728  12.522   4.202   0.288
86299SOL    HW160729  12.572   4.238   0.215
86299SOL    HW260730  12.588   4.165   0.347
86300SOL     OW60731   5.488   5.023   3.840
86300SOL    HW160732   5.456   5.062   3.921
86300SOL    HW260733   5.543   4.950   3.869
86301SOL     OW60734  11.304  11.116  12.470
86301SOL    HW160735  11.367  11.167  12.520
86301SOL    HW260736  11.279  11.173  12.397
86302SOL     OW60737   8.587  13.913   4.833
86302SOL    HW160738   8.503  13.952   4.809
86302SOL    HW260739   8.596  13.837   4.775
86303SOL     OW60740   4.822   7.167   7.437
86303SOL    HW160741   4.832   7.254   7.473
86303SOL    HW260742   4.831   7.108   7.512
86304SOL     OW60743   3.712  11.849   8.309
86304SOL    HW160744   3.762  11.918   8.353
86304SOL    HW260745   3.622  11.880   8.313
86305SOL     OW60746   1.548   0.545  12.186
86305SOL    HW160747   1.588   0.522  12.270
86305SOL    HW260748   1.477   0.482  12.175
86306SOL     OW60749  14.396   4.250   6.425
86306SOL    HW160750  14.455   4.194   6.474
86306SOL    HW260751  14.416   4.231   6.333
86307SOL     OW60752   2.006   6.906  13.904
86307SOL    HW160753   1.993   6.999  13.892
86307SOL    HW260754   2.030   6.873  13.818
86308SOL     OW60755  11.445   0.438   7.828
86308SOL    HW160756  11.415   0.414   7.740
86308SOL    HW260757  11.365   0.454   7.878
86309SOL     OW60758   8.927   1.588   6.755
86309SOL    HW160759   8.957   1.498   6.768
86309SOL    HW260760   8.945   1.631   6.838
86310SOL     OW60761   2.640   8.152   6.273
86310SOL    HW160762   2.679   8.152   6.361
86310SOL    HW260763   2.711   8.127   6.215
86311SOL     OW60764  12.037   8.333   8.191
86311SOL    HW160765  12.059   8.326   8.098
86311SOL    HW260766  11.960   8.277   8.202
86312SOL     OW60767  11.798  13.932   8.401
86312SOL    HW160768  11.742  13.860   8.371
86312SOL    HW260769  11.749  14.011   8.378
86313SOL     OW60770   0.118  10.828   8.319
86313SOL    HW160771   0.150  10.741   8.344
86313SOL    HW260772   0.195  10.875   8.288
86314SOL     OW60773  13.170   1.745   8.743
86314SOL    HW160774  13.146   1.656   8.717
86314SOL    HW260775  13.158   1.747   8.838
86315SOL     OW60776   1.484   9.375   9.421
86315SOL    HW160777   1.564   9.379   9.472
86315SOL    HW260778   1.469   9.282   9.407
86316SOL     OW60779   4.539  12.576   9.676
86316SOL    HW160780   4.529  12.586   9.770
86316SOL    HW260781   4.631  12.551   9.664
86317SOL     OW60782  14.000  14.053  13.290
86317SOL    HW160783  14.052  14.020  13.216
86317SOL    HW260784  14.062  14.108  13.339
86318SOL     OW60785   4.312  14.482   0.563
86318SOL    HW160786   4.370  14.414   0.528
86318SOL    HW260787   4.329  14.482   0.657
86319SOL     OW60788   8.952  13.852   5.055
86319SOL    HW160789   8.980  13.888   5.140
86319SOL    HW260790   8.859  13.831   5.069
86320SOL     OW60791  11.504  13.782   9.165
86320SOL    HW160792  11.411  13.767   9.146
86320SOL    HW260793  11.526  13.717   9.232
86321SOL     OW60794   5.775  12.953   8.225
86321SOL    HW160795   5.858  12.945   8.177
86321SOL    HW260796   5.783  12.889   8.296
86322SOL     OW60797   4.067   5.118   5.889
86322SOL    HW160798   4.080   5.079   5.975
86322SOL    HW260799   4.013   5.055   5.841
86323SOL     OW60800  12.781   3.605  11.426
86323SOL    HW160801  12.781   3.639  11.515
86323SOL    HW260802  12.743   3.518  11.432
86324SOL     OW60803  10.872   3.672   4.598
86324SOL    HW160804  10.915   3.756   4.582
86324SOL    HW260805  10.905   3.614   4.530
86325SOL     OW60806   7.221   8.530   9.425
86325SOL    HW160807   7.202   8.557   9.336
86325SOL    HW260808   7.169   8.450   9.438
86326SOL     OW60809  14.686  12.671  13.587
86326SOL    HW160810  14.701  12.628  13.671
86326SOL    HW260811  14.629  12.611  13.539
86327SOL     OW60812  13.879  13.295   3.416
86327SOL    HW160813  13.878  13.223   3.353
86327SOL    HW260814  13.804  13.350   3.392
86328SOL     OW60815   9.091  12.468  12.323
86328SOL    HW160816   9.066  12.520  12.247
86328SOL    HW260817   9.022  12.403  12.331
86329SOL     OW60818   1.751  14.669   3.396
86329SOL    HW160819   1.845  14.666   3.415
86329SOL    HW260820   1.710  14.625   3.471
86330SOL     OW60821   0.898   6.254   4.437
86330SOL    HW160822   0.895   6.184   4.503
86330SOL    HW260823   0.835   6.319   4.467
86331SOL     OW60824   9.693  13.694  12.456
86331SOL    HW160825   9.712  13.732  12.370
86331SOL    HW260826   9.684  13.600  12.438
86332SOL     OW60827  14.329   8.609   1.551
86332SOL    HW160828  14.299   8.691   1.511
86332SOL    HW260829  14.257   8.583   1.608
86333SOL     OW60830   0.611   6.871   2.277
86333SOL    HW160831   0.530   6.825   2.298
86333SOL    HW260832   0.640   6.908   2.360
86334SOL     OW60833   1.817   4.062  10.235
86334SOL    HW160834   1.800   4.105  10.151
86334SOL    HW260835   1.789   3.972  10.222
86335SOL     OW60836  11.633   1.933   3.041
86335SOL    HW160837  11.728   1.921   3.038
86335SOL    HW260838  11.616   2.003   2.979
86336SOL     OW60839   5.171  10.949   2.688
86336SOL    HW160840   5.191  11.031   2.734
86336SOL    HW260841   5.232  10.886   2.725
86337SOL     OW60842  14.669   9.997   5.538
86337SOL    HW160843  14.575  10.010   5.526
86337SOL    HW260844  14.703  10.085   5.557
86338SOL     OW60845   5.188  12.364   7.663
86338SOL    HW160846   5.228  12.323   7.586
86338SOL    HW260847   5.190  12.458   7.644
86339SOL     OW60848  11.893  12.202  14.447
86339SOL    HW160849  11.854  12.233  14.529
86339SOL    HW260850  11.821  12.206  14.384
86340SOL     OW60851   4.420   9.490  14.273
86340SOL    HW160852   4.431   9.505  14.367
86340SOL    HW260853   4.339   9.438  14.266
86341SOL     OW60854   7.671   7.395  13.805
86341SOL    HW160855   7.722   7.426  13.730
86341SOL    HW260856   7.690   7.301  13.810
86342SOL     OW60857  11.699   1.575   4.877
86342SOL    HW160858  11.748   1.657   4.887
86342SOL    HW260859  11.610   1.598   4.903
86343SOL     OW60860  13.731  10.643   4.556
86343SOL    HW160861  13.782  10.580   4.505
86343SOL    HW260862  13.775  10.726   4.542
86344SOL     OW60863  11.721   5.425   5.408
86344SOL    HW160864  11.649   5.479   5.375
86344SOL    HW260865  11.683   5.378   5.482
86345SOL     OW60866   7.171   2.791  14.079
86345SOL    HW160867   7.199   2.781  14.170
86345SOL    HW260868   7.251   2.777  14.028
86346SOL     OW60869   3.105   6.945   3.370
86346SOL    HW160870   3.081   6.962   3.279
86346SOL    HW260871   3.068   7.018   3.419
86347SOL     OW60872   6.462   5.775   5.642
86347SOL    HW160873   6.485   5.807   5.729
86347SOL    HW260874   6.454   5.680   5.653
86348SOL     OW60875   0.990  13.395   6.759
86348SOL    HW160876   1.056  13.464   6.761
86348SOL    HW260877   1.039  13.315   6.741
86349SOL     OW60878   4.334  10.917   6.822
86349SOL    HW160879   4.410  10.963   6.786
86349SOL    HW260880   4.272  10.987   6.844
86350SOL     OW60881  11.855   1.292  10.428
86350SOL    HW160882  11.943   1.265  10.400
86350SOL    HW260883  11.827   1.222  10.487
86351SOL     OW60884  12.022   9.289   7.016
86351SOL    HW160885  12.112   9.283   6.985
86351SOL    HW260886  12.020   9.232   7.094
86352SOL     OW60887   6.873  13.472  13.496
86352SOL    HW160888   6.802  13.534  13.480
86352SOL    HW260889   6.911  13.456  13.410
86353SOL     OW60890  11.574   9.157  14.534
86353SOL    HW160891  11.630   9.233  14.522
86353SOL    HW260892  11.528   9.147  14.451
86354SOL     OW60893   4.430  13.348   5.758
86354SOL    HW160894   4.509  13.322   5.804
86354SOL    HW260895   4.461  13.404   5.687
86355SOL     OW60896   0.002   2.497   1.663
86355SOL    HW160897  14.811   2.430   1.648
86355SOL    HW260898  14.835   2.563   1.716
86356SOL     OW60899   1.121   4.778   7.949
86356SOL    HW160900   1.028   4.756   7.959
86356SOL    HW260901   1.140   4.834   8.024
86357SOL     OW60902   8.881   3.822  13.306
86357SOL    HW160903   8.811   3.760  13.325
86357SOL    HW260904   8.862   3.853  13.218
86358SOL     OW60905  14.236   0.163   9.925
86358SOL    HW160906  14.236   0.241   9.980
86358SOL    HW260907  14.156   0.117   9.948
86359SOL     OW60908   7.966   0.738   5.657
86359SOL    HW160909   7.954   0.664   5.716
86359SOL    HW260910   8.060   0.743   5.643
86360SOL     OW60911   8.366  13.332   8.120
86360SOL    HW160912   8.275  13.303   8.117
86360SOL    HW260913   8.368  13.397   8.191
86361SOL     OW60914   7.332   5.630  11.494
86361SOL    HW160915   7.354   5.567  11.426
86361SOL    HW260916   7.287   5.700  11.448
86362SOL     OW60917   0.872   1.099  10.366
86362SOL    HW160918   0.953   1.047  10.375
86362SOL    HW260919   0.806   1.035  10.340
86363SOL     OW60920   5.542  11.591   2.308
86363SOL    HW160921   5.474  11.621   2.248
86363SOL    HW260922   5.558  11.500   2.283
86364SOL     OW60923   0.091  12.434  11.028
86364SOL    HW160924   0.090  12.345  11.064
86364SOL    HW260925   0.048  12.425  10.943
86365SOL     OW60926  11.178   7.636   7.580
86365SOL    HW160927  11.226   7.553   7.577
86365SOL    HW260928  11.226   7.689   7.642
86366SOL     OW60929   0.618   4.292   3.766
86366SOL    HW160930   0.558   4.221   3.745
86366SOL    HW260931   0.665   4.308   3.684
86367SOL     OW60932  12.603  10.317   4.066
86367SOL    HW160933  12.649  10.292   4.146
86367SOL    HW260934  12.608  10.239   4.010
86368SOL     OW60935   9.635   0.220   7.964
86368SOL    HW160936   9.563   0.158   7.952
86368SOL    HW260937   9.702   0.169   8.009
86369SOL     OW60938  10.285   1.262  11.773
86369SOL    HW160939  10.363   1.254  11.829
86369SOL    HW260940  10.296   1.194  11.706
86370SOL     OW60941  13.245   4.738   0.512
86370SOL    HW160942  13.328   4.703   0.480
86370SOL    HW260943  13.268   4.787   0.591
86371SOL     OW60944   4.750   4.358   7.756
86371SOL    HW160945   4.672   4.395   7.714
86371SOL    HW260946   4.789   4.432   7.804
86372SOL     OW60947   6.380   9.343   5.126
86372SOL    HW160948   6.429   9.373   5.050
86372SOL    HW260949   6.311   9.288   5.090
86373SOL     OW60950  10.218  12.214   0.486
86373SOL    HW160951  10.312  12.231   0.494
86373SOL    HW260952  10.211  12.119   0.482
86374SOL     OW60953   9.033   2.154  11.345
86374SOL    HW160954   8.974   2.133  11.273
86374SOL    HW260955   9.074   2.237  11.318
86375SOL     OW60956   6.118   1.966   0.741
86375SOL    HW160957   6.114   1.912   0.662
86375SOL    HW260958   6.026   1.978   0.766
86376SOL     OW60959   0.068  10.953  11.402
86376SOL    HW160960   0.113  10.958  11.486
86376SOL    HW260961   0.070  10.860  11.379
86377SOL     OW60962  12.311   8.798  11.704
86377SOL    HW160963  12.244   8.746  11.748
86377SOL    HW260964  12.333   8.867  11.766
86378SOL     OW60965   5.517   4.807   2.100
86378SOL    HW160966   5.461   4.769   2.032
86378SOL    HW260967   5.530   4.735   2.162
86379SOL     OW60968   7.419   3.667   6.446
86379SOL    HW160969   7.434   3.671   6.352
86379SOL    HW260970   7.358   3.593   6.458
86380SOL     OW60971   8.064  14.253   8.043
86380SOL    HW160972   7.999  14.213   8.100
86380SOL    HW260973   8.107  14.180   7.999
86381SOL     OW60974   4.047   3.568   9.363
86381SOL    HW160975   4.038   3.473   9.353
86381SOL    HW260976   4.003   3.604   9.286
86382SOL     OW60977  12.075   5.978   6.850
86382SOL    HW160978  11.996   6.020   6.884
86382SOL    HW260979  12.146   6.032   6.884
86383SOL     OW60980   0.639   0.328   3.120
86383SOL    HW160981   0.552   0.286   3.122
86383SOL    HW260982   0.698   0.259   3.091
86384SOL     OW60983  14.683  12.540   9.671
86384SOL    HW160984  14.652  12.494   9.749
86384SOL    HW260985  14.749  12.482   9.633
86385SOL     OW60986   4.713   6.192   4.424
86385SOL    HW160987   4.751   6.195   4.337
86385SOL    HW260988   4.775   6.241   4.479
86386SOL     OW60989   7.488  14.022   6.629
86386SOL    HW160990   7.511  14.046   6.719
86386SOL    HW260991   7.508  14.101   6.578
86387SOL     OW60992  12.286   9.986   8.427
86387SOL    HW160993  12.238   9.976   8.509
86387SOL    HW260994  12.378   9.989   8.453
86388SOL     OW60995  12.054   3.608   8.832
86388SOL    HW160996  12.097   3.576   8.753
86388SOL    HW260997  12.107   3.572   8.904
86389SOL     OW60998   1.298   6.859   6.304
86389SOL    HW160999   1.364   6.869   6.235
86389SOL    HW261000   1.246   6.939   6.298
86390SOL     OW61001  10.140   2.537  10.687
86390SOL    HW161002  10.170   2.616  10.732
86390SOL    HW261003  10.194   2.467  10.722
86391SOL     OW61004   9.893  14.428  14.294
86391SOL    HW161005   9.974  14.396  14.255
86391SOL    HW261006   9.869  14.505  14.243
86392SOL     OW61007   5.410   1.414   4.678
86392SOL    HW161008   5.456   1.497   4.695
86392SOL    HW261009   5.338   1.438   4.620
86393SOL     OW61010  14.605   3.744   7.205
86393SOL    HW161011  14.559   3.800   7.268
86393SOL    HW261012  14.537   3.686   7.170
86394SOL     OW61013   1.800   3.774  10.230
86394SOL    HW161014   1.872   3.753  10.290
86394SOL    HW261015   1.769   3.689  10.198
86395SOL     OW61016   3.647  13.472  13.151
86395SOL    HW161017   3.580  13.500  13.090
86395SOL    HW261018   3.713  13.542  13.149
86396SOL     OW61019   9.039   7.634  14.060
86396SOL    HW161020   9.055   7.621  14.153
86396SOL    HW261021   9.104   7.579  14.016
86397SOL     OW61022  10.152   8.421  11.664
86397SOL    HW161023  10.160   8.459  11.576
86397SOL    HW261024  10.080   8.470  11.704
86398SOL     OW61025   2.499   0.281  14.456
86398SOL    HW161026   2.523   0.362  14.411
86398SOL    HW261027   2.576   0.225  14.448
86399SOL     OW61028   4.868  14.806  14.451
86399SOL    HW161029   4.879  14.773  14.540
86399SOL    HW261030   4.856   0.025  14.462
86400SOL     OW61031   9.849   7.726   5.811
86400SOL    HW161032   9.842   7.750   5.904
86400SOL    HW261033   9.807   7.799   5.765
86401SOL     OW61034   6.447   0.508   3.059
86401SOL    HW161035   6.490   0.530   2.976
86401SOL    HW261036   6.377   0.447   3.034
86402SOL     OW61037  13.753   0.029   5.028
86402SOL    HW161038  13.843   0.050   5.003
86402SOL    HW261039  13.699   0.070   4.960
86403SOL     OW61040  12.390   0.572  11.392
86403SOL    HW161041  12.406   0.620  11.473
86403SOL    HW261042  12.417   0.633  11.323
86404SOL     OW61043   4.910   3.119   9.334
86404SOL    HW161044   5.004   3.097   9.339
86404SOL    HW261045   4.907   3.214   9.346
86405SOL     OW61046   1.179   1.622   5.485
86405SOL    HW161047   1.171   1.619   5.580
86405SOL    HW261048   1.089   1.618   5.453
86406SOL     OW61049   9.426  12.723   9.658
86406SOL    HW161050   9.454  12.686   9.574
86406SOL    HW261051   9.343  12.680   9.677
86407SOL     OW61052  12.733  13.392  13.416
86407SOL    HW161053  12.638  13.395  13.427
86407SOL    HW261054  12.761  13.483  13.425
86408SOL     OW61055   4.097  14.075   2.805
86408SOL    HW161056   4.112  14.099   2.713
86408SOL    HW261057   4.005  14.098   2.820
86409SOL     OW61058   4.017   1.468  10.930
86409SOL    HW161059   4.064   1.516  10.998
86409SOL    HW261060   4.041   1.514  10.849
86410SOL     OW61061  12.975   4.787  11.624
86410SOL    HW161062  12.882   4.809  11.615
86410SOL    HW261063  12.986   4.772  11.718
86411SOL     OW61064   9.378   1.220   1.190
86411SOL    HW161065   9.320   1.181   1.255
86411SOL    HW261066   9.334   1.202   1.106
86412SOL     OW61067  13.122   5.399   5.014
86412SOL    HW161068  13.110   5.346   4.936
86412SOL    HW261069  13.034   5.405   5.053
86413SOL     OW61070   7.669   0.563  10.393
86413SOL    HW161071   7.633   0.597  10.311
86413SOL    HW261072   7.708   0.479  10.368
86414SOL     OW61073  14.410  13.289   9.087
86414SOL    HW161074  14.459  13.221   9.131
86414SOL    HW261075  14.357  13.330   9.155
86415SOL     OW61076   4.120   2.878   3.908
86415SOL    HW161077   4.036   2.844   3.938
86415SOL    HW261078   4.174   2.800   3.894
86416SOL     OW61079   8.820  11.723   2.633
86416SOL    HW161080   8.817  11.796   2.695
86416SOL    HW261081   8.898  11.740   2.581
86417SOL     OW61082  11.574   2.692   2.079
86417SOL    HW161083  11.510   2.625   2.101
86417SOL    HW261084  11.614   2.661   1.997
86418SOL     OW61085  11.828   1.863   8.403
86418SOL    HW161086  11.879   1.797   8.451
86418SOL    HW261087  11.802   1.926   8.470
86419SOL     OW61088   7.013   2.085   7.736
86419SOL    HW161089   7.014   2.180   7.741
86419SOL    HW261090   7.098   2.062   7.699
86420SOL     OW61091  12.997   1.085  14.709
86420SOL    HW161092  13.031   1.016  14.651
86420SOL    HW261093  13.056   1.159  14.694
86421SOL     OW61094   5.406  10.973   5.820
86421SOL    HW161095   5.438  11.063   5.824
86421SOL    HW261096   5.371  10.964   5.731
86422SOL     OW61097   1.974  10.733  13.372
86422SOL    HW161098   2.041  10.778  13.321
86422SOL    HW261099   1.895  10.785  13.359
86423SOL     OW61100   0.521  13.366   6.693
86423SOL    HW161101   0.447  13.424   6.711
86423SOL    HW261102   0.598  13.419   6.709
86424SOL     OW61103   8.504  13.453   0.780
86424SOL    HW161104   8.514  13.548   0.782
86424SOL    HW261105   8.486  13.428   0.870
86425SOL     OW61106  12.003   6.277  11.028
86425SOL    HW161107  11.917   6.244  11.003
86425SOL    HW261108  12.065   6.220  10.982
86426SOL     OW61109  10.324   6.236  14.253
86426SOL    HW161110  10.331   6.141  14.261
86426SOL    HW261111  10.357   6.254  14.165
86427SOL     OW61112   6.705   2.483   2.686
86427SOL    HW161113   6.696   2.558   2.628
86427SOL    HW261114   6.629   2.488   2.744
86428SOL     OW61115   4.303  10.382   2.170
86428SOL    HW161116   4.300  10.393   2.075
86428SOL    HW261117   4.369  10.446   2.199
86429SOL     OW61118   9.727   5.069  12.781
86429SOL    HW161119   9.758   5.046  12.693
86429SOL    HW261120   9.634   5.048  12.780
86430SOL     OW61121  12.522  12.378  11.803
86430SOL    HW161122  12.528  12.415  11.891
86430SOL    HW261123  12.540  12.285  11.815
86431SOL     OW61124   6.000   6.192   7.328
86431SOL    HW161125   6.035   6.137   7.257
86431SOL    HW261126   6.011   6.139   7.406
86432SOL     OW61127   4.599   3.915   5.348
86432SOL    HW161128   4.650   3.971   5.408
86432SOL    HW261129   4.660   3.896   5.277
86433SOL     OW61130   8.759   4.211   7.733
86433SOL    HW161131   8.798   4.228   7.648
86433SOL    HW261132   8.722   4.123   7.726
86434SOL     OW61133  12.152   9.573  10.709
86434SOL    HW161134  12.234   9.523  10.714
86434SOL    HW261135  12.138   9.585  10.615
86435SOL     OW61136  11.067  11.381  11.637
86435SOL    HW161137  11.092  11.468  11.605
86435SOL    HW261138  11.001  11.351  11.575
86436SOL     OW61139   0.504  14.122  10.533
86436SOL    HW161140   0.552  14.205  10.534
86436SOL    HW261141   0.487  14.106  10.440
86437SOL     OW61142   0.033   4.878  11.213
86437SOL    HW161143   0.107   4.878  11.274
86437SOL    HW261144  14.843   4.822  11.255
86438SOL     OW61145   7.314   6.327  10.368
86438SOL    HW161146   7.261   6.344  10.290
86438SOL    HW261147   7.280   6.245  10.403
86439SOL     OW61148  12.176   9.792  12.152
86439SOL    HW161149  12.096   9.803  12.102
86439SOL    HW261150  12.155   9.726  12.218
86440SOL     OW61151   2.140   8.712  11.876
86440SOL    HW161152   2.170   8.700  11.786
86440SOL    HW261153   2.144   8.806  11.891
86441SOL     OW61154   2.093   4.686  14.543
86441SOL    HW161155   2.064   4.595  14.546
86441SOL    HW261156   2.034   4.732  14.603
86442SOL     OW61157   2.910   2.897   1.553
86442SOL    HW161158   2.840   2.904   1.488
86442SOL    HW261159   2.876   2.834   1.617
86443SOL     OW61160   9.115  11.376   2.281
86443SOL    HW161161   9.030  11.378   2.239
86443SOL    HW261162   9.106  11.310   2.350
86444SOL     OW61163  13.262  13.549   3.213
86444SOL    HW161164  13.324  13.513   3.276
86444SOL    HW261165  13.279  13.501   3.132
86445SOL     OW61166   1.082   5.375  13.265
86445SOL    HW161167   1.042   5.366  13.179
86445SOL    HW261168   1.174   5.394  13.248
86446SOL     OW61169   3.213   6.287   5.144
86446SOL    HW161170   3.129   6.310   5.184
86446SOL    HW261171   3.202   6.198   5.114
86447SOL     OW61172   5.700   4.976   2.005
86447SOL    HW161173   5.637   4.921   2.051
86447SOL    HW261174   5.660   4.990   1.918
86448SOL     OW61175   9.401  14.104   7.978
86448SOL    HW161176   9.350  14.180   8.005
86448SOL    HW261177   9.491  14.125   8.002
86449SOL     OW61178   7.940  14.265   8.592
86449SOL    HW161179   7.949  14.185   8.542
86449SOL    HW261180   7.991  14.330   8.543
86450SOL     OW61181   1.632   5.693   8.606
86450SOL    HW161182   1.708   5.737   8.568
86450SOL    HW261183   1.580   5.763   8.645
86451SOL     OW61184   3.695   9.615  14.156
86451SOL    HW161185   3.700   9.544  14.219
86451SOL    HW261186   3.676   9.572  14.072
86452SOL     OW61187   2.782  13.236   2.518
86452SOL    HW161188   2.875  13.241   2.537
86452SOL    HW261189   2.745  13.186   2.590
86453SOL     OW61190  13.550   1.469   8.545
86453SOL    HW161191  13.494   1.397   8.516
86453SOL    HW261192  13.552   1.530   8.472
86454SOL     OW61193  11.240  12.285   1.393
86454SOL    HW161194  11.330  12.276   1.361
86454SOL    HW261195  11.216  12.198   1.423
86455SOL     OW61196  11.000   5.059   7.612
86455SOL    HW161197  11.071   5.057   7.676
86455SOL    HW261198  10.937   4.993   7.643
86456SOL     OW61199   2.941   6.419   4.920
86456SOL    HW161200   2.901   6.489   4.868
86456SOL    HW261201   2.984   6.363   4.855
86457SOL     OW61202  11.807  10.300  10.583
86457SOL    HW161203  11.743  10.243  10.625
86457SOL    HW261204  11.876  10.312  10.649
86458SOL     OW61205  11.899   2.488   8.568
86458SOL    HW161206  11.928   2.399   8.549
86458SOL    HW261207  11.978   2.541   8.559
86459SOL     OW61208   9.039   8.007  13.127
86459SOL    HW161209   8.969   8.066  13.098
86459SOL    HW261210   9.027   8.001  13.222
86460SOL     OW61211   1.306   5.087   2.624
86460SOL    HW161212   1.278   5.134   2.702
86460SOL    HW261213   1.228   5.038   2.596
86461SOL     OW61214   1.504  12.410   3.334
86461SOL    HW161215   1.479  12.477   3.270
86461SOL    HW261216   1.586  12.442   3.371
86462SOL     OW61217   2.338  14.468   5.903
86462SOL    HW161218   2.308  14.505   5.985
86462SOL    HW261219   2.348  14.543   5.844
86463SOL     OW61220  13.428   7.194   1.569
86463SOL    HW161221  13.390   7.192   1.656
86463SOL    HW261222  13.368   7.142   1.515
86464SOL     OW61223   9.982   6.616   1.186
86464SOL    HW161224   9.893   6.637   1.161
86464SOL    HW261225  10.011   6.691   1.237
86465SOL     OW61226   7.899  13.139   7.515
86465SOL    HW161227   7.856  13.088   7.446
86465SOL    HW261228   7.846  13.121   7.593
86466SOL     OW61229   8.989   1.080   0.834
86466SOL    HW161230   9.021   1.003   0.786
86466SOL    HW261231   8.921   1.044   0.892
86467SOL     OW61232   9.637  14.364   9.211
86467SOL    HW161233   9.544  14.383   9.223
86467SOL    HW261234   9.641  14.269   9.198
86468SOL     OW61235   9.018   1.770   8.360
86468SOL    HW161236   9.033   1.682   8.395
86468SOL    HW261237   8.951   1.759   8.293
86469SOL     OW61238   5.350   6.691   0.082
86469SOL    HW161239   5.385   6.726   0.000
86469SOL    HW261240   5.427   6.657   0.128
86470SOL     OW61241   4.356   9.786   9.744
86470SOL    HW161242   4.273   9.797   9.791
86470SOL    HW261243   4.365   9.867   9.694
86471SOL     OW61244   6.662   4.866   9.554
86471SOL    HW161245   6.742   4.816   9.535
86471SOL    HW261246   6.592   4.816   9.511
86472SOL     OW61247  14.677   7.895   7.090
86472SOL    HW161248  14.596   7.921   7.045
86472SOL    HW261249  14.734   7.865   7.020
86473SOL     OW61250   7.726   0.882   3.344
86473SOL    HW161251   7.797   0.916   3.290
86473SOL    HW261252   7.728   0.935   3.423
86474SOL     OW61253   1.704  13.412   9.478
86474SOL    HW161254   1.621  13.444   9.444
86474SOL    HW261255   1.759  13.400   9.400
86475SOL     OW61256  10.991   5.659   6.521
86475SOL    HW161257  11.000   5.684   6.613
86475SOL    HW261258  10.924   5.590   6.521
86476SOL     OW61259   7.993   1.502   4.758
86476SOL    HW161260   8.054   1.558   4.805
86476SOL    HW261261   7.911   1.551   4.757
86477SOL     OW61262   6.657  12.658   2.707
86477SOL    HW161263   6.623  12.571   2.727
86477SOL    HW261264   6.603  12.717   2.758
86478SOL     OW61265   3.932   0.073   0.092
86478SOL    HW161266   3.967   0.133   0.158
86478SOL    HW261267   3.968  14.863   0.115
86479SOL     OW61268   3.246   8.815  12.709
86479SOL    HW161269   3.215   8.727  12.690
86479SOL    HW261270   3.325   8.803  12.762
86480SOL     OW61271   6.528   6.088   4.323
86480SOL    HW161272   6.588   6.111   4.252
86480SOL    HW261273   6.521   6.168   4.375
86481SOL     OW61274   1.413   2.730  12.561
86481SOL    HW161275   1.449   2.688  12.483
86481SOL    HW261276   1.334   2.681  12.582
86482SOL     OW61277  14.115  10.917   7.388
86482SOL    HW161278  14.034  10.938   7.434
86482SOL    HW261279  14.109  10.964   7.305
86483SOL     OW61280   2.472   8.559   7.974
86483SOL    HW161281   2.491   8.489   7.911
86483SOL    HW261282   2.426   8.515   8.045
86484SOL     OW61283  12.919  13.365   0.913
86484SOL    HW161284  12.859  13.378   0.840
86484SOL    HW261285  12.959  13.280   0.895
86485SOL     OW61286  11.245   2.034   8.517
86485SOL    HW161287  11.257   1.942   8.538
86485SOL    HW261288  11.283   2.081   8.591
86486SOL     OW61289   5.311  12.071   0.123
86486SOL    HW161290   5.294  12.158   0.087
86486SOL    HW261291   5.248  12.061   0.194
86487SOL     OW61292  13.489   8.193   1.657
86487SOL    HW161293  13.479   8.135   1.733
86487SOL    HW261294  13.545   8.144   1.597
86488SOL     OW61295   2.305  10.361  13.044
86488SOL    HW161296   2.227  10.342  12.991
86488SOL    HW261297   2.372  10.301  13.011
86489SOL     OW61298   5.467   7.612   4.879
86489SOL    HW161299   5.457   7.659   4.961
86489SOL    HW261300   5.391   7.637   4.827
86490SOL     OW61301   8.881   7.475  12.300
86490SOL    HW161302   8.789   7.495  12.285
86490SOL    HW261303   8.892   7.481  12.395
86491SOL     OW61304   0.261  12.181   1.711
86491SOL    HW161305   0.229  12.093   1.729
86491SOL    HW261306   0.188  12.225   1.667
86492SOL     OW61307   3.654   9.981   6.995
86492SOL    HW161308   3.717   9.993   7.067
86492SOL    HW261309   3.651  10.067   6.952
86493SOL     OW61310   4.831   1.458   5.127
86493SOL    HW161311   4.891   1.533   5.119
86493SOL    HW261312   4.837   1.432   5.219
86494SOL     OW61313  13.417   4.786   1.483
86494SOL    HW161314  13.499   4.792   1.531
86494SOL    HW261315  13.384   4.876   1.482
86495SOL     OW61316   7.337   7.081   2.869
86495SOL    HW161317   7.362   7.132   2.792
86495SOL    HW261318   7.395   7.112   2.938
86496SOL     OW61319   8.782   4.147  13.194
86496SOL    HW161320   8.751   4.090  13.124
86496SOL    HW261321   8.720   4.220  13.194
86497SOL     OW61322   6.096   4.868  14.691
86497SOL    HW161323   6.067   4.936  14.753
86497SOL    HW261324   6.090   4.910  14.605
86498SOL     OW61325  10.761   3.705  13.444
86498SOL    HW161326  10.689   3.649  13.470
86498SOL    HW261327  10.720   3.785  13.411
86499SOL     OW61328   0.155  12.547   7.044
86499SOL    HW161329   0.220  12.505   6.987
86499SOL    HW261330   0.071  12.526   7.004
86500SOL     OW61331   0.429   6.705  14.319
86500SOL    HW161332   0.358   6.725  14.380
86500SOL    HW261333   0.475   6.632  14.361
86501SOL     OW61334  11.147  10.255  12.266
86501SOL    HW161335  11.118  10.165  12.283
86501SOL    HW261336  11.148  10.296  12.352
86502SOL     OW61337   8.231   1.032   9.141
86502SOL    HW161338   8.235   0.937   9.130
86502SOL    HW261339   8.153   1.059   9.092
86503SOL     OW61340   0.465   0.737   4.511
86503SOL    HW161341   0.503   0.777   4.433
86503SOL    HW261342   0.518   0.773   4.583
86504SOL     OW61343   7.795   5.001  14.737
86504SOL    HW161344   7.804   5.067  14.805
86504SOL    HW261345   7.733   5.039  14.674
86505SOL     OW61346   6.455  13.719   3.825
86505SOL    HW161347   6.414  13.635   3.800
86505SOL    HW261348   6.547  13.697   3.839
86506SOL     OW61349  13.657   6.529   3.597
86506SOL    HW161350  13.724   6.543   3.664
86506SOL    HW261351  13.596   6.466   3.636
86507SOL     OW61352   6.473   7.919   1.261
86507SOL    HW161353   6.380   7.910   1.243
86507SOL    HW261354   6.498   7.834   1.299
86508SOL     OW61355  12.649  10.920   6.685
86508SOL    HW161356  12.653  10.854   6.755
86508SOL    HW261357  12.672  10.872   6.606
86509SOL     OW61358   3.404   3.312   2.396
86509SOL    HW161359   3.318   3.324   2.356
86509SOL    HW261360   3.454   3.261   2.332
86510SOL     OW61361   0.169   8.206   4.647
86510SOL    HW161362   0.136   8.128   4.602
86510SOL    HW261363   0.119   8.210   4.729
86511SOL     OW61364   2.116   7.150   0.935
86511SOL    HW161365   2.098   7.225   0.992
86511SOL    HW261366   2.033   7.133   0.890
86512SOL     OW61367   3.778   7.453  13.058
86512SOL    HW161368   3.833   7.509  13.003
86512SOL    HW261369   3.727   7.401  12.996
86513SOL     OW61370   7.571   1.979   7.528
86513SOL    HW161371   7.666   1.989   7.522
86513SOL    HW261372   7.552   1.993   7.621
86514SOL     OW61373  11.081   0.226  12.775
86514SOL    HW161374  11.075   0.203  12.682
86514SOL    HW261375  11.001   0.275  12.793
86515SOL     OW61376   1.217   1.718   0.706
86515SOL    HW161377   1.294   1.774   0.718
86515SOL    HW261378   1.240   1.635   0.748
86516SOL     OW61379   4.407  12.267  12.812
86516SOL    HW161380   4.441  12.228  12.892
86516SOL    HW261381   4.482  12.273  12.754
86517SOL     OW61382  14.228   7.451  14.596
86517SOL    HW161383  14.251   7.538  14.562
86517SOL    HW261384  14.262   7.390  14.531
86518SOL     OW61385  10.455   1.605   7.051
86518SOL    HW161386  10.384   1.666   7.033
86518SOL    HW261387  10.459   1.599   7.147
86519SOL     OW61388   5.435   3.413  13.049
86519SOL    HW161389   5.351   3.450  13.076
86519SOL    HW261390   5.459   3.463  12.971
86520SOL     OW61391   8.854  11.849  11.938
86520SOL    HW161392   8.871  11.833  12.031
86520SOL    HW261393   8.774  11.901  11.937
86521SOL     OW61394  13.609  11.840  11.641
86521SOL    HW161395  13.606  11.752  11.678
86521SOL    HW261396  13.701  11.864  11.641
86522SOL     OW61397   5.695  14.724   9.406
86522SOL    HW161398   5.661  14.727   9.316
86522SOL    HW261399   5.627  14.769   9.457
86523SOL     OW61400   7.563   1.986   6.002
86523SOL    HW161401   7.641   2.025   5.964
86523SOL    HW261402   7.497   1.992   5.932
86524SOL     OW61403   5.481  14.220   2.291
86524SOL    HW161404   5.558  14.241   2.238
86524SOL    HW261405   5.420  14.179   2.230
86525SOL     OW61406   8.651   8.955   8.600
86525SOL    HW161407   8.571   8.985   8.558
86525SOL    HW261408   8.685   8.887   8.542
86526SOL     OW61409   5.772   4.902   9.144
86526SOL    HW161410   5.705   4.960   9.109
86526SOL    HW261411   5.786   4.933   9.233
86527SOL     OW61412   0.424   0.843  13.138
86527SOL    HW161413   0.448   0.934  13.117
86527SOL    HW261414   0.343   0.828  13.089
86528SOL     OW61415  13.932   7.821   6.683
86528SOL    HW161416  13.916   7.802   6.775
86528SOL    HW261417  13.983   7.902   6.684
86529SOL     OW61418  11.214   1.000   4.118
86529SOL    HW161419  11.213   1.002   4.214
86529SOL    HW261420  11.303   1.028   4.096
86530SOL     OW61421  11.859  10.824   8.667
86530SOL    HW161422  11.914  10.826   8.745
86530SOL    HW261423  11.891  10.897   8.613
86531SOL     OW61424   0.542   1.352  11.114
86531SOL    HW161425   0.604   1.388  11.178
86531SOL    HW261426   0.457   1.385  11.141
86532SOL     OW61427   1.141   7.250   4.158
86532SOL    HW161428   1.112   7.195   4.230
86532SOL    HW261429   1.107   7.337   4.178
86533SOL     OW61430   1.827   5.379  13.358
86533SOL    HW161431   1.849   5.463  13.398
86533SOL    HW261432   1.911   5.345  13.327
86534SOL     OW61433   5.335   9.503  14.565
86534SOL    HW161434   5.269   9.454  14.516
86534SOL    HW261435   5.418   9.466  14.537
86535SOL     OW61436   3.532  11.258  11.148
86535SOL    HW161437   3.621  11.227  11.134
86535SOL    HW261438   3.508  11.301  11.066
86536SOL     OW61439   8.828  10.293  10.961
86536SOL    HW161440   8.923  10.286  10.972
86536SOL    HW261441   8.794  10.287  11.050
86537SOL     OW61442   7.160   1.468   8.755
86537SOL    HW161443   7.116   1.546   8.721
86537SOL    HW261444   7.099   1.432   8.819
86538SOL     OW61445  13.792   9.278  14.179
86538SOL    HW161446  13.716   9.335  14.187
86538SOL    HW261447  13.866   9.338  14.170
86539SOL     OW61448   7.530   8.065  10.040
86539SOL    HW161449   7.574   8.118   9.973
86539SOL    HW261450   7.601   8.025  10.090
86540SOL     OW61451   2.092  14.576  12.318
86540SOL    HW161452   2.163  14.545  12.373
86540SOL    HW261453   2.100  14.671  12.318
86541SOL     OW61454  12.470   0.864  11.309
86541SOL    HW161455  12.499   0.915  11.384
86541SOL    HW261456  12.375   0.869  11.311
86542SOL     OW61457   5.915  10.804  13.758
86542SOL    HW161458   5.945  10.775  13.844
86542SOL    HW261459   5.819  10.804  13.764
86543SOL     OW61460   9.789   8.430   2.536
86543SOL    HW161461   9.761   8.385   2.456
86543SOL    HW261462   9.805   8.520   2.508
86544SOL     OW61463   6.292   3.864   0.161
86544SOL    HW161464   6.203   3.872   0.196
86544SOL    HW261465   6.338   3.942   0.193
86545SOL     OW61466  12.546  13.833  14.649
86545SOL    HW161467  12.473  13.824  14.588
86545SOL    HW261468  12.589  13.914  14.622
86546SOL     OW61469   4.935   9.859  10.755
86546SOL    HW161470   4.909   9.922  10.822
86546SOL    HW261471   5.014   9.895  10.717
86547SOL     OW61472   9.248  14.693   9.682
86547SOL    HW161473   9.282  14.759   9.743
86547SOL    HW261474   9.256  14.611   9.730
86548SOL     OW61475   8.325   7.528   4.047
86548SOL    HW161476   8.313   7.459   3.982
86548SOL    HW261477   8.241   7.532   4.093
86549SOL     OW61478   5.796   9.090  11.700
86549SOL    HW161479   5.843   9.007  11.699
86549SOL    HW261480   5.752   9.092  11.786
86550SOL     OW61481   0.252   2.007   6.791
86550SOL    HW161482   0.306   1.958   6.853
86550SOL    HW261483   0.168   1.962   6.792
86551SOL     OW61484  13.181   4.013   3.888
86551SOL    HW161485  13.142   3.928   3.906
86551SOL    HW261486  13.273   3.994   3.870
86552SOL     OW61487   5.968   6.656   2.981
86552SOL    HW161488   5.962   6.751   2.990
86552SOL    HW261489   6.051   6.633   3.023
86553SOL     OW61490  11.900   4.468   3.016
86553SOL    HW161491  11.862   4.391   2.973
86553SOL    HW261492  11.955   4.508   2.948
86554SOL     OW61493   2.141   0.292   8.476
86554SOL    HW161494   2.186   0.215   8.442
86554SOL    HW261495   2.048   0.274   8.459
86555SOL     OW61496  13.286   4.904   8.534
86555SOL    HW161497  13.247   4.991   8.539
86555SOL    HW261498  13.308   4.893   8.442
86556SOL     OW61499   0.929   0.638  13.807
86556SOL    HW161500   0.916   0.710  13.870
86556SOL    HW261501   1.007   0.592  13.839
86557SOL     OW61502   2.543   4.550  10.622
86557SOL    HW161503   2.497   4.632  10.637
86557SOL    HW261504   2.532   4.533  10.528
86558SOL     OW61505  13.822   2.516  13.984
86558SOL    HW161506  13.912   2.531  13.955
86558SOL    HW261507  13.768   2.552  13.914
86559SOL     OW61508   0.309   0.840   8.042
86559SOL    HW161509   0.380   0.777   8.033
86559SOL    HW261510   0.289   0.839   8.136
86560SOL     OW61511   1.502   6.119   7.139
86560SOL    HW161512   1.428   6.180   7.135
86560SOL    HW261513   1.574   6.166   7.097
86561SOL     OW61514   8.565   1.328   5.774
86561SOL    HW161515   8.615   1.312   5.693
86561SOL    HW261516   8.482   1.282   5.761
86562SOL     OW61517  11.757  10.815   1.730
86562SOL    HW161518  11.700  10.738   1.739
86562SOL    HW261519  11.816  10.793   1.658
86563SOL     OW61520  12.123   7.573   0.244
86563SOL    HW161521  12.144   7.661   0.277
86563SOL    HW261522  12.206   7.525   0.248
86564SOL     OW61523   5.324   4.066   7.102
86564SOL    HW161524   5.327   3.971   7.116
86564SOL    HW261525   5.405   4.086   7.056
86565SOL     OW61526   7.502   3.405   9.583
86565SOL    HW161527   7.419   3.434   9.547
86565SOL    HW261528   7.479   3.338   9.648
86566SOL     OW61529   2.209  10.762  13.119
86566SOL    HW161530   2.211  10.848  13.077
86566SOL    HW261531   2.301  10.744  13.140
86567SOL     OW61532   5.626   1.515   2.240
86567SOL    HW161533   5.624   1.453   2.313
86567SOL    HW261534   5.534   1.534   2.223
86568SOL     OW61535   7.895  12.488   4.839
86568SOL    HW161536   7.931  12.565   4.883
86568SOL    HW261537   7.915  12.501   4.746
86569SOL     OW61538   9.963   8.544   0.923
86569SOL    HW161539   9.975   8.629   0.879
86569SOL    HW261540  10.012   8.552   1.004
86570SOL     OW61541   2.171   9.986   9.831
86570SOL    HW161542   2.185   9.894   9.811
86570SOL    HW261543   2.199  10.033   9.752
86571SOL     OW61544   8.174   6.807  13.510
86571SOL    HW161545   8.269   6.813  13.525
86571SOL    HW261546   8.164   6.827  13.417
86572SOL     OW61547   6.135  14.597  11.934
86572SOL    HW161548   6.208  14.651  11.965
86572SOL    HW261549   6.059  14.631  11.980
86573SOL     OW61550  10.244  14.104   8.169
86573SOL    HW161551  10.217  14.017   8.140
86573SOL    HW261552  10.293  14.088   8.249
86574SOL     OW61553   2.862   1.064  11.917
86574SOL    HW161554   2.803   1.017  11.976
86574SOL    HW261555   2.950   1.042  11.947
86575SOL     OW61556   9.080  12.407  13.402
86575SOL    HW161557   9.152  12.432  13.345
86575SOL    HW261558   9.119  12.399  13.488
86576SOL     OW61559   7.869   8.648   8.435
86576SOL    HW161560   7.885   8.664   8.528
86576SOL    HW261561   7.815   8.569   8.433
86577SOL     OW61562  11.797   4.742  12.683
86577SOL    HW161563  11.758   4.735  12.770
86577SOL    HW261564  11.723   4.759  12.625
86578SOL     OW61565  12.424  10.416  11.038
86578SOL    HW161566  12.427  10.385  10.947
86578SOL    HW261567  12.337  10.456  11.046
86579SOL     OW61568   1.322  14.874   4.803
86579SOL    HW161569   1.309  14.791   4.757
86579SOL    HW261570   1.262  14.870   4.877
86580SOL     OW61571   2.614  14.575   6.373
86580SOL    HW161572   2.594  14.667   6.354
86580SOL    HW261573   2.538  14.543   6.422
86581SOL     OW61574   7.848   6.643   8.171
86581SOL    HW161575   7.874   6.552   8.160
86581SOL    HW261576   7.752   6.642   8.171
86582SOL     OW61577   1.753   4.337  12.378
86582SOL    HW161578   1.798   4.265  12.422
86582SOL    HW261579   1.667   4.342  12.420
86583SOL     OW61580   0.865   7.054   5.534
86583SOL    HW161581   0.924   6.988   5.573
86583SOL    HW261582   0.822   7.094   5.609
86584SOL     OW61583   2.449  11.850  10.061
86584SOL    HW161584   2.399  11.769  10.055
86584SOL    HW261585   2.423  11.888  10.145
86585SOL     OW61586  13.309  11.671   3.954
86585SOL    HW161587  13.321  11.673   4.049
86585SOL    HW261588  13.214  11.672   3.942
86586SOL     OW61589   4.137  12.202   9.243
86586SOL    HW161590   4.073  12.182   9.311
86586SOL    HW261591   4.199  12.129   9.247
86587SOL     OW61592   9.202   3.594  10.971
86587SOL    HW161593   9.219   3.686  10.953
86587SOL    HW261594   9.234   3.548  10.893
86588SOL     OW61595   8.424  13.735  14.205
86588SOL    HW161596   8.511  13.768  14.230
86588SOL    HW261597   8.383  13.808  14.159
86589SOL     OW61598  10.997   1.553   4.548
86589SOL    HW161599  11.029   1.573   4.460
86589SOL    HW261600  10.924   1.494   4.535
86590SOL     OW61601   7.750  13.154  11.640
86590SOL    HW161602   7.734  13.082  11.578
86590SOL    HW261603   7.841  13.143  11.666
86591SOL     OW61604   6.820   1.941   4.915
86591SOL    HW161605   6.869   1.992   4.979
86591SOL    HW261606   6.844   1.979   4.831
86592SOL     OW61607   2.760   7.432   1.049
86592SOL    HW161608   2.824   7.362   1.034
86592SOL    HW261609   2.686   7.388   1.091
86593SOL     OW61610  12.801   3.681   1.656
86593SOL    HW161611  12.875   3.653   1.710
86593SOL    HW261612  12.726   3.674   1.714
86594SOL     OW61613   2.208  12.293   3.700
86594SOL    HW161614   2.284  12.305   3.644
86594SOL    HW261615   2.201  12.198   3.713
86595SOL     OW61616   0.345   9.652   4.135
86595SOL    HW161617   0.431   9.633   4.171
86595SOL    HW261618   0.308   9.566   4.114
86596SOL     OW61619   0.491  12.648  10.972
86596SOL    HW161620   0.490  12.736  10.934
86596SOL    HW261621   0.429  12.599  10.917
86597SOL     OW61622   1.369   7.253  13.940
86597SOL    HW161623   1.379   7.159  13.949
86597SOL    HW261624   1.406   7.274  13.854
86598SOL     OW61625   0.884   8.336   2.228
86598SOL    HW161626   0.882   8.241   2.243
86598SOL    HW261627   0.813   8.352   2.167
86599SOL     OW61628   3.076   1.808   8.873
86599SOL    HW161629   2.982   1.790   8.882
86599SOL    HW261630   3.081   1.902   8.855
86600SOL     OW61631  13.166   8.211   4.063
86600SOL    HW161632  13.103   8.258   4.008
86600SOL    HW261633  13.195   8.276   4.126
86601SOL     OW61634   4.504   9.567   1.891
86601SOL    HW161635   4.578   9.517   1.923
86601SOL    HW261636   4.528   9.592   1.801
86602SOL     OW61637   8.252  13.422   8.942
86602SOL    HW161638   8.265  13.423   8.848
86602SOL    HW261639   8.324  13.369   8.976
86603SOL     OW61640   1.634   2.351  12.359
86603SOL    HW161641   1.677   2.366  12.275
86603SOL    HW261642   1.695   2.296  12.408
86604SOL     OW61643   7.605   0.071   7.006
86604SOL    HW161644   7.536   0.104   7.063
86604SOL    HW261645   7.575  14.860   6.979
86605SOL     OW61646   4.438   7.432   3.427
86605SOL    HW161647   4.441   7.527   3.437
86605SOL    HW261648   4.355   7.406   3.469
86606SOL     OW61649   8.623   4.812   5.158
86606SOL    HW161650   8.629   4.729   5.204
86606SOL    HW261651   8.629   4.879   5.226
86607SOL     OW61652   8.646   4.796   4.443
86607SOL    HW161653   8.729   4.756   4.470
86607SOL    HW261654   8.665   4.834   4.357
86608SOL     OW61655  12.931   0.084   1.326
86608SOL    HW161656  12.974   0.019   1.382
86608SOL    HW261657  12.878   0.135   1.387
86609SOL     OW61658   2.183   0.440   7.803
86609SOL    HW161659   2.264   0.483   7.774
86609SOL    HW261660   2.170   0.369   7.741
86610SOL     OW61661  14.709   1.380   3.924
86610SOL    HW161662  14.745   1.445   3.983
86610SOL    HW261663  14.735   1.296   3.961
86611SOL     OW61664   7.315  14.351   9.263
86611SOL    HW161665   7.334  14.386   9.176
86611SOL    HW261666   7.290  14.428   9.315
86612SOL     OW61667  10.866   9.634  13.914
86612SOL    HW161668  10.827   9.609  13.998
86612SOL    HW261669  10.959   9.645  13.933
86613SOL     OW61670   8.363  14.023   4.720
86613SOL    HW161671   8.367  14.084   4.647
86613SOL    HW261672   8.345  14.077   4.796
86614SOL     OW61673   8.119   2.804   1.155
86614SOL    HW161674   8.190   2.741   1.143
86614SOL    HW261675   8.040   2.750   1.157
86615SOL     OW61676   5.102   1.973  14.261
86615SOL    HW161677   5.168   2.037  14.289
86615SOL    HW261678   5.109   1.902  14.325
86616SOL     OW61679   0.636   4.414   7.022
86616SOL    HW161680   0.587   4.334   7.003
86616SOL    HW261681   0.569   4.480   7.041
86617SOL     OW61682   9.657   9.724   7.278
86617SOL    HW161683   9.748   9.706   7.297
86617SOL    HW261684   9.616   9.737   7.364
86618SOL     OW61685  13.481   0.177   0.850
86618SOL    HW161686  13.506   0.165   0.759
86618SOL    HW261687  13.550   0.132   0.900
86619SOL     OW61688   1.432  12.383  14.479
86619SOL    HW161689   1.359  12.397  14.419
86619SOL    HW261690   1.429  12.457  14.539
86620SOL     OW61691  10.056  10.069  14.238
86620SOL    HW161692  10.040  10.072  14.144
86620SOL    HW261693  10.149  10.092  14.248
86621SOL     OW61694  11.395   2.003  10.167
86621SOL    HW161695  11.365   1.979  10.254
86621SOL    HW261696  11.460   2.072  10.182
86622SOL     OW61697   4.375   7.929   1.547
86622SOL    HW161698   4.348   8.021   1.551
86622SOL    HW261699   4.322   7.885   1.613
86623SOL     OW61700  10.527   1.278   0.947
86623SOL    HW161701  10.568   1.258   1.031
86623SOL    HW261702  10.514   1.192   0.906
86624SOL     OW61703   2.167   3.576   5.927
86624SOL    HW161704   2.091   3.526   5.896
86624SOL    HW261705   2.206   3.520   5.994
86625SOL     OW61706  14.697   4.623   2.393
86625SOL    HW161707  14.732   4.617   2.482
86625SOL    HW261708  14.762   4.675   2.346
86626SOL     OW61709  10.642   6.139   5.572
86626SOL    HW161710  10.584   6.189   5.629
86626SOL    HW261711  10.586   6.112   5.498
86627SOL     OW61712   3.164   2.648  12.227
86627SOL    HW161713   3.126   2.697  12.300
86627SOL    HW261714   3.197   2.714  12.167
86628SOL     OW61715   9.093   7.027  14.430
86628SOL    HW161716   9.040   7.027  14.350
86628SOL    HW261717   9.183   7.016  14.399
86629SOL     OW61718  10.736  13.758   8.544
86629SOL    HW161719  10.804  13.802   8.493
86629SOL    HW261720  10.744  13.666   8.519
86630SOL     OW61721   2.139   6.573   4.908
86630SOL    HW161722   2.154   6.485   4.872
86630SOL    HW261723   2.218   6.591   4.960
86631SOL     OW61724   6.743  11.405   6.141
86631SOL    HW161725   6.746  11.332   6.203
86631SOL    HW261726   6.820  11.391   6.086
86632SOL     OW61727   6.939  10.474   2.256
86632SOL    HW161728   6.958  10.381   2.246
86632SOL    HW261729   6.873  10.493   2.189
86633SOL     OW61730   3.647   8.186   6.669
86633SOL    HW161731   3.721   8.168   6.611
86633SOL    HW261732   3.624   8.100   6.705
86634SOL     OW61733   9.149   8.827   6.320
86634SOL    HW161734   9.102   8.746   6.338
86634SOL    HW261735   9.148   8.874   6.404
86635SOL     OW61736  13.598   5.846   7.357
86635SOL    HW161737  13.568   5.839   7.448
86635SOL    HW261738  13.687   5.812   7.359
86636SOL     OW61739  12.812  10.908   2.830
86636SOL    HW161740  12.865  10.887   2.907
86636SOL    HW261741  12.726  10.930   2.866
86637SOL     OW61742  12.544   6.351   8.159
86637SOL    HW161743  12.533   6.426   8.217
86637SOL    HW261744  12.621   6.306   8.193
86638SOL     OW61745   1.486  10.021  13.931
86638SOL    HW161746   1.474  10.012  14.025
86638SOL    HW261747   1.520  10.110  13.920
86639SOL     OW61748  11.900   3.960  11.470
86639SOL    HW161749  11.827   3.978  11.530
86639SOL    HW261750  11.976   4.003  11.511
86640SOL     OW61751   7.734   2.158  12.814
86640SOL    HW161752   7.719   2.084  12.755
86640SOL    HW261753   7.781   2.120  12.888
86641SOL     OW61754   7.374   0.071   6.243
86641SOL    HW161755   7.454   0.084   6.191
86641SOL    HW261756   7.382   0.133   6.315
86642SOL     OW61757  13.141   0.040   4.021
86642SOL    HW161758  13.205   0.098   3.979
86642SOL    HW261759  13.156  14.830   3.981
86643SOL     OW61760  11.491   7.553   1.803
86643SOL    HW161761  11.530   7.635   1.832
86643SOL    HW261762  11.437   7.524   1.877
86644SOL     OW61763   7.880   6.787   9.015
86644SOL    HW161764   7.841   6.700   9.001
86644SOL    HW261765   7.967   6.768   9.051
86645SOL     OW61766   7.081   8.293  12.324
86645SOL    HW161767   6.985   8.289  12.321
86645SOL    HW261768   7.101   8.386  12.332
86646SOL     OW61769   0.337   5.774  10.917
86646SOL    HW161770   0.420   5.731  10.939
86646SOL    HW261771   0.359   5.829  10.841
86647SOL     OW61772   8.918   7.276   0.610
86647SOL    HW161773   8.899   7.361   0.649
86647SOL    HW261774   8.988   7.294   0.547
86648SOL     OW61775  12.993   6.804  14.652
86648SOL    HW161776  12.952   6.870  14.596
86648SOL    HW261777  13.011   6.730  14.594
86649SOL     OW61778   3.704  13.028   3.952
86649SOL    HW161779   3.738  13.004   4.038
86649SOL    HW261780   3.780  13.021   3.893
86650SOL     OW61781   1.138  11.211   6.987
86650SOL    HW161782   1.224  11.242   6.961
86650SOL    HW261783   1.148  11.116   6.996
86651SOL     OW61784   8.334   3.272  13.622
86651SOL    HW161785   8.395   3.209  13.661
86651SOL    HW261786   8.328   3.343  13.686
86652SOL     OW61787   5.150   3.140   2.842
86652SOL    HW161788   5.223   3.176   2.893
86652SOL    HW261789   5.099   3.216   2.815
86653SOL     OW61790  13.909   4.056   8.818
86653SOL    HW161791  13.921   4.144   8.853
86653SOL    HW261792  13.996   4.030   8.788
86654SOL     OW61793  13.839  12.244   6.939
86654SOL    HW161794  13.807  12.320   6.986
86654SOL    HW261795  13.931  12.263   6.922
86655SOL     OW61796   3.087   8.058   8.530
86655SOL    HW161797   3.138   8.123   8.580
86655SOL    HW261798   3.008   8.045   8.582
86656SOL     OW61799   7.194   9.035   9.784
86656SOL    HW161800   7.101   9.016   9.786
86656SOL    HW261801   7.235   8.953   9.755
86657SOL     OW61802  10.248   1.727   1.678
86657SOL    HW161803  10.279   1.690   1.596
86657SOL    HW261804  10.326   1.732   1.733
86658SOL     OW61805   5.381  12.534  11.444
86658SOL    HW161806   5.456  12.494  11.488
86658SOL    HW261807   5.393  12.628  11.455
86659SOL     OW61808  10.640  13.282   8.036
86659SOL    HW161809  10.564  13.332   8.067
86659SOL    HW261810  10.698  13.347   7.996
86660SOL     OW61811  11.283  14.695   5.218
86660SOL    HW161812  11.359  14.653   5.259
86660SOL    HW261813  11.314  14.722   5.132
86661SOL     OW61814   3.760   4.105   5.057
86661SOL    HW161815   3.793   4.061   4.978
86661SOL    HW261816   3.817   4.075   5.127
86662SOL     OW61817   0.350   3.076   4.089
86662SOL    HW161818   0.307   3.002   4.134
86662SOL    HW261819   0.409   3.112   4.155
86663SOL     OW61820  10.098   5.545   6.539
86663SOL    HW161821  10.076   5.491   6.616
86663SOL    HW261822  10.191   5.531   6.526
86664SOL     OW61823  12.450  14.600   2.609
86664SOL    HW161824  12.372  14.551   2.582
86664SOL    HW261825  12.420  14.655   2.681
86665SOL     OW61826   4.537   3.093   1.456
86665SOL    HW161827   4.527   3.003   1.485
86665SOL    HW261828   4.489   3.145   1.520
86666SOL     OW61829   9.497   9.497   9.181
86666SOL    HW161830   9.503   9.584   9.141
86666SOL    HW261831   9.571   9.492   9.241
86667SOL     OW61832   7.359   2.376  11.656
86667SOL    HW161833   7.403   2.378  11.571
86667SOL    HW261834   7.268   2.398  11.636
86668SOL     OW61835   8.604   9.174   5.531
86668SOL    HW161836   8.571   9.122   5.604
86668SOL    HW261837   8.595   9.265   5.561
86669SOL     OW61838   2.871   7.443  12.303
86669SOL    HW161839   2.875   7.395  12.220
86669SOL    HW261840   2.862   7.374  12.369
86670SOL     OW61841  12.085  13.058  13.880
86670SOL    HW161842  12.026  13.127  13.912
86670SOL    HW261843  12.029  13.003  13.826
86671SOL     OW61844   3.800   8.243  14.821
86671SOL    HW161845   3.767   8.270   0.031
86671SOL    HW261846   3.895   8.254  14.828
86672SOL     OW61847  14.725   5.692   6.846
86672SOL    HW161848  14.723   5.719   6.754
86672SOL    HW261849  14.696   5.770   6.894
86673SOL     OW61850   5.729   5.958   7.956
86673SOL    HW161851   5.647   5.922   7.923
86673SOL    HW261852   5.791   5.948   7.884
86674SOL     OW61853   1.106   8.638   4.866
86674SOL    HW161854   1.139   8.592   4.943
86674SOL    HW261855   1.017   8.604   4.854
86675SOL     OW61856   6.791   0.563  11.839
86675SOL    HW161857   6.810   0.622  11.912
86675SOL    HW261858   6.856   0.585  11.773
86676SOL     OW61859   2.324  13.105   7.883
86676SOL    HW161860   2.304  13.193   7.915
86676SOL    HW261861   2.240  13.070   7.855
86677SOL     OW61862   4.810  10.241  13.879
86677SOL    HW161863   4.902  10.258  13.902
86677SOL    HW261864   4.760  10.286  13.946
86678SOL     OW61865   0.875   7.869   7.688
86678SOL    HW161866   0.782   7.890   7.681
86678SOL    HW261867   0.879   7.774   7.676
86679SOL     OW61868  13.578   5.606   3.618
86679SOL    HW161869  13.625   5.606   3.535
86679SOL    HW261870  13.491   5.572   3.597
86680SOL     OW61871  14.685  11.274  13.265
86680SOL    HW161872  14.725  11.353  13.303
86680SOL    HW261873  14.591  11.296  13.259
86681SOL     OW61874  13.363   3.062  13.849
86681SOL    HW161875  13.344   3.118  13.774
86681SOL    HW261876  13.294   3.082  13.913
86682SOL     OW61877  12.985  11.176  14.143
86682SOL    HW161878  12.985  11.269  14.164
86682SOL    HW261879  12.947  11.172  14.055
86683SOL     OW61880  10.618   8.371  10.452
86683SOL    HW161881  10.568   8.367  10.371
86683SOL    HW261882  10.641   8.280  10.471
86684SOL     OW61883   7.491  12.622  11.677
86684SOL    HW161884   7.416  12.567  11.702
86684SOL    HW261885   7.524  12.582  11.597
86685SOL     OW61886  12.059   1.440   9.692
86685SOL    HW161887  11.973   1.481   9.699
86685SOL    HW261888  12.047   1.353   9.732
86686SOL     OW61889  14.786   6.036   0.625
86686SOL    HW161890  14.737   6.073   0.699
86686SOL    HW261891  14.859   5.989   0.666
86687SOL     OW61892   1.759   9.121   7.455
86687SOL    HW161893   1.822   9.050   7.446
86687SOL    HW261894   1.692   9.102   7.390
86688SOL     OW61895   7.059   9.866   4.007
86688SOL    HW161896   6.972   9.898   3.982
86688SOL    HW261897   7.047   9.832   4.095
86689SOL     OW61898  14.232  14.237   7.877
86689SOL    HW161899  14.189  14.316   7.908
86689SOL    HW261900  14.162  14.185   7.838
86690SOL     OW61901  12.701   6.404   7.948
86690SOL    HW161902  12.621   6.389   7.998
86690SOL    HW261903  12.738   6.483   7.986
86691SOL     OW61904   8.495   2.226   1.782
86691SOL    HW161905   8.414   2.276   1.792
86691SOL    HW261906   8.548   2.250   1.858
86692SOL     OW61907   0.157   0.321   4.538
86692SOL    HW161908   0.138   0.254   4.604
86692SOL    HW261909   0.237   0.290   4.495
86693SOL     OW61910   2.648  12.322   0.619
86693SOL    HW161911   2.674  12.297   0.530
86693SOL    HW261912   2.694  12.404   0.636
86694SOL     OW61913   0.035   1.522   9.203
86694SOL    HW161914   0.105   1.478   9.252
86694SOL    HW261915   0.055   1.505   9.111
86695SOL     OW61916   4.717   2.585   3.483
86695SOL    HW161917   4.720   2.671   3.442
86695SOL    HW261918   4.651   2.592   3.551
86696SOL     OW61919   0.871  11.911   6.590
86696SOL    HW161920   0.794  11.934   6.641
86696SOL    HW261921   0.836  11.878   6.507
86697SOL     OW61922   8.846   0.374   8.531
86697SOL    HW161923   8.904   0.429   8.478
86697SOL    HW261924   8.774   0.433   8.554
86698SOL     OW61925   8.128  11.524   1.788
86698SOL    HW161926   8.144  11.467   1.863
86698SOL    HW261927   8.090  11.604   1.825
86699SOL     OW61928  12.761  10.508   7.059
86699SOL    HW161929  12.745  10.414   7.066
86699SOL    HW261930  12.849  10.516   7.023
86700SOL     OW61931   4.432   6.142  14.565
86700SOL    HW161932   4.423   6.234  14.542
86700SOL    HW261933   4.510   6.113  14.517
86701SOL     OW61934  14.064   2.784   0.204
86701SOL    HW161935  14.070   2.848   0.134
86701SOL    HW261936  14.113   2.822   0.277
86702SOL     OW61937  10.807   9.732   3.158
86702SOL    HW161938  10.748   9.780   3.216
86702SOL    HW261939  10.853   9.672   3.217
86703SOL     OW61940   5.211  13.428  13.140
86703SOL    HW161941   5.179  13.381  13.063
86703SOL    HW261942   5.198  13.520  13.120
86704SOL     OW61943   5.317   6.060   0.809
86704SOL    HW161944   5.374   6.030   0.738
86704SOL    HW261945   5.279   5.980   0.845
86705SOL     OW61946   7.280   4.232   4.780
86705SOL    HW161947   7.188   4.209   4.772
86705SOL    HW261948   7.305   4.203   4.868
86706SOL     OW61949   0.775   6.409   8.848
86706SOL    HW161950   0.828   6.410   8.927
86706SOL    HW261951   0.745   6.499   8.838
86707SOL     OW61952  12.152   8.946  12.823
86707SOL    HW161953  12.211   8.964  12.897
86707SOL    HW261954  12.073   8.997  12.842
86708SOL     OW61955   0.308   6.470   2.174
86708SOL    HW161956   0.366   6.492   2.101
86708SOL    HW261957   0.365   6.473   2.251
86709SOL     OW61958   7.479  10.008   5.018
86709SOL    HW161959   7.436   9.977   5.098
86709SOL    HW261960   7.478   9.932   4.960
86710SOL     OW61961   2.105   2.364   5.995
86710SOL    HW161962   2.164   2.396   6.063
86710SOL    HW261963   2.052   2.440   5.971
86711SOL     OW61964   4.247  10.241   8.793
86711SOL    HW161965   4.245  10.179   8.720
86711SOL    HW261966   4.235  10.186   8.871
86712SOL     OW61967  14.036   8.911  12.574
86712SOL    HW161968  14.076   8.911  12.488
86712SOL    HW261969  14.085   8.977  12.624
86713SOL     OW61970   6.241   7.777   3.687
86713SOL    HW161971   6.250   7.854   3.632
86713SOL    HW261972   6.233   7.704   3.626
86714SOL     OW61973   9.801   2.789  14.258
86714SOL    HW161974   9.778   2.701  14.231
86714SOL    HW261975   9.894   2.784  14.282
86715SOL     OW61976  14.779   5.400  10.512
86715SOL    HW161977  14.704   5.362  10.465
86715SOL    HW261978  14.833   5.438  10.444
86716SOL     OW61979   1.811   4.693  12.120
86716SOL    HW161980   1.855   4.661  12.041
86716SOL    HW261981   1.862   4.657  12.192
86717SOL     OW61982   2.667  14.388   9.555
86717SOL    HW161983   2.692  14.339   9.633
86717SOL    HW261984   2.664  14.323   9.485
86718SOL     OW61985   1.792   6.832   5.676
86718SOL    HW161986   1.873   6.813   5.628
86718SOL    HW261987   1.739   6.753   5.667
86719SOL     OW61988  10.486   1.249   5.630
86719SOL    HW161989  10.575   1.283   5.626
86719SOL    HW261990  10.445   1.278   5.548
86720SOL     OW61991  12.800   9.710   6.405
86720SOL    HW161992  12.850   9.769   6.350
86720SOL    HW261993  12.796   9.753   6.490
86721SOL     OW61994   7.157   8.763  11.027
86721SOL    HW161995   7.129   8.687  11.078
86721SOL    HW261996   7.143   8.737  10.936
86722SOL     OW61997   9.936   3.213   3.454
86722SOL    HW161998   9.882   3.288   3.431
86722SOL    HW261999   9.930   3.154   3.379
86723SOL     OW62000   5.281   4.265   4.630
86723SOL    HW162001   5.312   4.205   4.563
86723SOL    HW262002   5.185   4.262   4.624
86724SOL     OW62003  10.378   4.246  10.463
86724SOL    HW162004  10.284   4.264  10.468
86724SOL    HW262005  10.404   4.227  10.553
86725SOL     OW62006  14.765  10.873   4.391
86725SOL    HW162007  14.820  10.876   4.470
86725SOL    HW262008  14.700  10.805   4.410
86726SOL     OW62009   1.256  11.118  13.714
86726SOL    HW162010   1.251  11.204  13.754
86726SOL    HW262011   1.333  11.077  13.753
86727SOL     OW62012   6.142   6.330   6.734
86727SOL    HW162013   6.047   6.323   6.744
86727SOL    HW262014   6.169   6.387   6.806
86728SOL     OW62015   5.811   9.511  13.753
86728SOL    HW162016   5.901   9.487  13.774
86728SOL    HW262017   5.800   9.599  13.789
86729SOL     OW62018   4.607   1.639   3.653
86729SOL    HW162019   4.612   1.575   3.724
86729SOL    HW262020   4.644   1.719   3.689
86730SOL     OW62021   2.543   9.276   1.285
86730SOL    HW162022   2.519   9.324   1.364
86730SOL    HW262023   2.616   9.220   1.313
86731SOL     OW62024   8.140   9.284   9.057
86731SOL    HW162025   8.146   9.190   9.039
86731SOL    HW262026   8.152   9.326   8.973
86732SOL     OW62027   4.053   0.432   8.237
86732SOL    HW162028   4.026   0.340   8.236
86732SOL    HW262029   4.148   0.430   8.233
86733SOL     OW62030   9.787  11.898  10.400
86733SOL    HW162031   9.718  11.964  10.406
86733SOL    HW262032   9.756  11.837  10.333
86734SOL     OW62033   1.068  10.887  12.769
86734SOL    HW162034   1.086  10.928  12.685
86734SOL    HW262035   0.997  10.825  12.751
86735SOL     OW62036  12.694   2.875   3.004
86735SOL    HW162037  12.711   2.897   2.913
86735SOL    HW262038  12.653   2.954   3.041
86736SOL     OW62039   0.784   5.973  11.825
86736SOL    HW162040   0.772   6.033  11.751
86736SOL    HW262041   0.799   6.031  11.900
86737SOL     OW62042   2.767   0.893   5.101
86737SOL    HW162043   2.841   0.868   5.047
86737SOL    HW262044   2.724   0.810   5.123
86738SOL     OW62045  10.971   6.106  14.754
86738SOL    HW162046  10.945   6.069  14.670
86738SOL    HW262047  10.933   6.194  14.754
86739SOL     OW62048  12.308   1.067   9.153
86739SOL    HW162049  12.243   1.137   9.148
86739SOL    HW262050  12.354   1.083   9.236
86740SOL     OW62051  11.722   7.655   4.740
86740SOL    HW162052  11.655   7.587   4.749
86740SOL    HW262053  11.763   7.637   4.655
86741SOL     OW62054   0.405  11.364   3.240
86741SOL    HW162055   0.341  11.389   3.306
86741SOL    HW262056   0.490  11.385   3.279
86742SOL     OW62057   5.076  13.622   9.929
86742SOL    HW162058   5.165  13.618   9.893
86742SOL    HW262059   5.031  13.684   9.872
86743SOL     OW62060   2.067   3.313   9.181
86743SOL    HW162061   1.982   3.339   9.218
86743SOL    HW262062   2.097   3.390   9.133
86744SOL     OW62063   6.435   0.885   7.370
86744SOL    HW162064   6.481   0.839   7.440
86744SOL    HW262065   6.343   0.864   7.384
86745SOL     OW62066   9.615   7.230   2.168
86745SOL    HW162067   9.637   7.321   2.146
86745SOL    HW262068   9.667   7.178   2.107
86746SOL     OW62069   8.258   0.443   2.858
86746SOL    HW162070   8.268   0.505   2.786
86746SOL    HW262071   8.247   0.498   2.935
86747SOL     OW62072   5.333  12.928   5.717
86747SOL    HW162073   5.277  13.000   5.747
86747SOL    HW262074   5.422  12.957   5.737
86748SOL     OW62075   4.630   5.876   9.394
86748SOL    HW162076   4.559   5.936   9.370
86748SOL    HW262077   4.694   5.932   9.439
86749SOL     OW62078   1.053  13.617   0.683
86749SOL    HW162079   1.120  13.639   0.748
86749SOL    HW262080   1.096  13.551   0.627
86750SOL     OW62081  11.258  11.009  11.282
86750SOL    HW162082  11.175  10.982  11.244
86750SOL    HW262083  11.324  10.972  11.225
86751SOL     OW62084  11.316   9.796   3.923
86751SOL    HW162085  11.381   9.829   3.860
86751SOL    HW262086  11.369   9.756   3.992
86752SOL     OW62087   8.300   6.657   0.686
86752SOL    HW162088   8.363   6.586   0.672
86752SOL    HW262089   8.314   6.716   0.613
86753SOL     OW62090   3.087   9.331   2.933
86753SOL    HW162091   3.062   9.313   3.023
86753SOL    HW262092   3.133   9.252   2.904
86754SOL     OW62093   5.075  12.242  14.816
86754SOL    HW162094   5.115  12.238  14.729
86754SOL    HW262095   5.137  12.293  14.869
86755SOL     OW62096   5.794   0.933  10.478
86755SOL    HW162097   5.772   0.841  10.462
86755SOL    HW262098   5.800   0.939  10.574
86756SOL     OW62099   8.496  10.035   2.266
86756SOL    HW162100   8.538   9.951   2.250
86756SOL    HW262101   8.568  10.098   2.266
86757SOL     OW62102   2.190   1.024   6.292
86757SOL    HW162103   2.212   1.046   6.383
86757SOL    HW262104   2.162   0.933   6.296
86758SOL     OW62105   3.948   7.628   9.086
86758SOL    HW162106   3.934   7.616   8.992
86758SOL    HW262107   3.871   7.676   9.116
86759SOL     OW62108   0.187   8.907   3.154
86759SOL    HW162109   0.106   8.863   3.127
86759SOL    HW262110   0.238   8.839   3.197
86760SOL     OW62111   4.832   9.358   2.942
86760SOL    HW162112   4.878   9.437   2.914
86760SOL    HW262113   4.864   9.289   2.883
86761SOL     OW62114  10.647   7.957   5.057
86761SOL    HW162115  10.637   7.862   5.046
86761SOL    HW262116  10.558   7.989   5.068
86762SOL     OW62117   2.703  10.693  10.625
86762SOL    HW162118   2.711  10.738  10.708
86762SOL    HW262119   2.748  10.609  10.638
86763SOL     OW62120  14.708  12.369   2.201
86763SOL    HW162121  14.776  12.436   2.192
86763SOL    HW262122  14.725  12.308   2.128
86764SOL     OW62123  11.828   8.250   1.073
86764SOL    HW162124  11.746   8.255   1.024
86764SOL    HW262125  11.806   8.285   1.159
86765SOL     OW62126  10.657   2.724   9.772
86765SOL    HW162127  10.701   2.674   9.703
86765SOL    HW262128  10.566   2.694   9.769
86766SOL     OW62129   0.399  13.942  11.310
86766SOL    HW162130   0.346  13.862  11.311
86766SOL    HW262131   0.465  13.926  11.243
86767SOL     OW62132  10.599   5.441  11.942
86767SOL    HW162133  10.546   5.392  11.879
86767SOL    HW262134  10.537   5.472  12.007
86768SOL     OW62135   2.261  14.025   4.134
86768SOL    HW162136   2.334  13.963   4.134
86768SOL    HW262137   2.252  14.051   4.042
86769SOL     OW62138   1.840   2.056   2.853
86769SOL    HW162139   1.831   2.021   2.765
86769SOL    HW262140   1.751   2.063   2.886
86770SOL     OW62141   7.183  13.649   8.262
86770SOL    HW162142   7.125  13.643   8.186
86770SOL    HW262143   7.218  13.738   8.257
86771SOL     OW62144  10.829   6.230   9.903
86771SOL    HW162145  10.850   6.269   9.819
86771SOL    HW262146  10.734   6.221   9.904
86772SOL     OW62147  10.224   0.740   9.327
86772SOL    HW162148  10.177   0.676   9.274
86772SOL    HW262149  10.188   0.825   9.300
86773SOL     OW62150   8.849  13.698  11.044
86773SOL    HW162151   8.929  13.696  10.992
86773SOL    HW262152   8.825  13.790  11.047
86774SOL     OW62153   0.489  14.642   0.639
86774SOL    HW162154   0.552  14.712   0.619
86774SOL    HW262155   0.405  14.687   0.643
86775SOL     OW62156   1.399   2.051   1.336
86775SOL    HW162157   1.450   2.121   1.377
86775SOL    HW262158   1.318   2.046   1.387
86776SOL     OW62159   5.506   0.117  10.562
86776SOL    HW162160   5.530   0.210  10.569
86776SOL    HW262161   5.501   0.100  10.468
86777SOL     OW62162   3.149   7.966   1.548
86777SOL    HW162163   3.225   7.947   1.604
86777SOL    HW262164   3.083   7.902   1.574
86778SOL     OW62165   9.827   5.249   3.603
86778SOL    HW162166   9.793   5.321   3.550
86778SOL    HW262167   9.876   5.195   3.541
86779SOL     OW62168  11.406   4.976  13.008
86779SOL    HW162169  11.502   4.971  13.002
86779SOL    HW262170  11.376   4.970  12.917
86780SOL     OW62171   7.557   7.496   7.406
86780SOL    HW162172   7.507   7.414   7.398
86780SOL    HW262173   7.495   7.558   7.444
86781SOL     OW62174  12.802   5.674   7.586
86781SOL    HW162175  12.805   5.672   7.682
86781SOL    HW262176  12.872   5.615   7.558
86782SOL     OW62177   1.554   3.002   7.279
86782SOL    HW162178   1.477   2.958   7.314
86782SOL    HW262179   1.550   2.987   7.185
86783SOL     OW62180   9.748   2.964   2.869
86783SOL    HW162181   9.653   2.953   2.880
86783SOL    HW262182   9.760   3.059   2.861
86784SOL     OW62183   4.240   2.724   6.973
86784SOL    HW162184   4.218   2.806   6.929
86784SOL    HW262185   4.302   2.681   6.914
86785SOL     OW62186   8.266   3.466   8.384
86785SOL    HW162187   8.351   3.489   8.346
86785SOL    HW262188   8.236   3.548   8.425
86786SOL     OW62189   7.260   3.985  11.074
86786SOL    HW162190   7.229   4.039  11.146
86786SOL    HW262191   7.298   4.047  11.012
86787SOL     OW62192  14.071   7.490  14.815
86787SOL    HW162193  14.139   7.501  14.748
86787SOL    HW262194  13.989   7.489  14.766
86788SOL     OW62195  14.637  11.661   0.724
86788SOL    HW162196  14.717  11.624   0.687
86788SOL    HW262197  14.567  11.611   0.682
86789SOL     OW62198  10.574  11.253   4.410
86789SOL    HW162199  10.482  11.275   4.428
86789SOL    HW262200  10.570  11.188   4.340
86790SOL     OW62201   2.974   7.268   0.171
86790SOL    HW162202   2.991   7.213   0.095
86790SOL    HW262203   3.027   7.346   0.157
86791SOL     OW62204   5.511  13.490   8.280
86791SOL    HW162205   5.419  13.500   8.257
86791SOL    HW262206   5.552  13.459   8.199
86792SOL     OW62207  12.948  12.933   6.157
86792SOL    HW162208  13.027  12.880   6.170
86792SOL    HW262209  12.964  13.012   6.209
86793SOL     OW62210  14.254   7.881   5.446
86793SOL    HW162211  14.316   7.850   5.380
86793SOL    HW262212  14.176   7.904   5.396
86794SOL     OW62213   1.308  10.721   2.177
86794SOL    HW162214   1.389  10.771   2.192
86794SOL    HW262215   1.261  10.772   2.111
86795SOL     OW62216   2.778  14.749   7.672
86795SOL    HW162217   2.863  14.792   7.662
86795SOL    HW262218   2.777  14.683   7.603
86796SOL     OW62219  13.941   4.963   6.370
86796SOL    HW162220  13.942   4.932   6.279
86796SOL    HW262221  13.994   5.043   6.368
86797SOL     OW62222  11.802  10.308   4.393
86797SOL    HW162223  11.788  10.393   4.436
86797SOL    HW262224  11.765  10.245   4.455
86798SOL     OW62225   4.338   2.044   1.177
86798SOL    HW162226   4.318   2.121   1.231
86798SOL    HW262227   4.382   1.983   1.236
86799SOL     OW62228   0.606   2.289   2.831
86799SOL    HW162229   0.689   2.242   2.840
86799SOL    HW262230   0.551   2.252   2.900
86800SOL     OW62231  10.162   5.815   4.355
86800SOL    HW162232  10.069   5.795   4.345
86800SOL    HW262233  10.165   5.904   4.389
86801SOL     OW62234   8.176  11.317   2.864
86801SOL    HW162235   8.235  11.392   2.865
86801SOL    HW262236   8.213  11.256   2.928
86802SOL     OW62237  12.978   4.075   6.123
86802SOL    HW162238  12.932   4.116   6.050
86802SOL    HW262239  13.057   4.129   6.135
86803SOL     OW62240   8.940  14.677   2.589
86803SOL    HW162241   9.020  14.659   2.638
86803SOL    HW262242   8.956  14.641   2.502
86804SOL     OW62243  14.667  11.460   9.464
86804SOL    HW162244  14.588  11.514   9.457
86804SOL    HW262245  14.650  11.400   9.537
86805SOL     OW62246  10.848   6.630   0.454
86805SOL    HW162247  10.908   6.696   0.419
86805SOL    HW262248  10.826   6.662   0.542
86806SOL     OW62249  10.229   4.051  13.222
86806SOL    HW162250  10.181   4.123  13.182
86806SOL    HW262251  10.265   4.087  13.303
86807SOL     OW62252   7.693   3.621   3.473
86807SOL    HW162253   7.716   3.711   3.451
86807SOL    HW262254   7.623   3.629   3.538
86808SOL     OW62255   1.298   8.270  13.784
86808SOL    HW162256   1.242   8.268  13.707
86808SOL    HW262257   1.298   8.179  13.816
86809SOL     OW62258   4.284   4.548   1.406
86809SOL    HW162259   4.235   4.478   1.450
86809SOL    HW262260   4.217   4.600   1.361
86810SOL     OW62261  10.583   7.556  12.861
86810SOL    HW162262  10.672   7.591  12.858
86810SOL    HW262263  10.587   7.485  12.925
86811SOL     OW62264  12.798   3.318   2.977
86811SOL    HW162265  12.787   3.264   3.056
86811SOL    HW262266  12.709   3.329   2.944
86812SOL     OW62267  14.368   3.218  11.750
86812SOL    HW162268  14.390   3.186  11.662
86812SOL    HW262269  14.274   3.205  11.757
86813SOL     OW62270   7.388   2.712   1.721
86813SOL    HW162271   7.354   2.749   1.639
86813SOL    HW262272   7.348   2.625   1.727
86814SOL     OW62273  14.759   5.793   9.209
86814SOL    HW162274  14.671   5.764   9.233
86814SOL    HW262275  14.747   5.879   9.171
86815SOL     OW62276   1.538   2.539   1.319
86815SOL    HW162277   1.471   2.572   1.378
86815SOL    HW262278   1.550   2.610   1.255
86816SOL     OW62279  14.732   0.948   4.879
86816SOL    HW162280  14.685   0.998   4.813
86816SOL    HW262281  14.800   0.901   4.830
86817SOL     OW62282   8.733  10.788   1.610
86817SOL    HW162283   8.804  10.852   1.616
86817SOL    HW262284   8.745  10.732   1.687
86818SOL     OW62285   8.139  13.584   2.665
86818SOL    HW162286   8.073  13.611   2.729
86818SOL    HW262287   8.199  13.659   2.661
86819SOL     OW62288  12.002   9.457   4.339
86819SOL    HW162289  12.017   9.533   4.395
86819SOL    HW262290  11.977   9.387   4.399
86820SOL     OW62291  14.681   6.415   7.070
86820SOL    HW162292  14.593   6.376   7.073
86820SOL    HW262293  14.666   6.505   7.043
86821SOL     OW62294  13.833   9.492  10.555
86821SOL    HW162295  13.843   9.466  10.647
86821SOL    HW262296  13.741   9.516  10.547
86822SOL     OW62297  14.504  13.173  12.494
86822SOL    HW162298  14.493  13.104  12.560
86822SOL    HW262299  14.524  13.127  12.413
86823SOL     OW62300  12.778  12.652   6.810
86823SOL    HW162301  12.729  12.717   6.760
86823SOL    HW262302  12.819  12.596   6.744
86824SOL     OW62303  10.482   7.839   3.773
86824SOL    HW162304  10.474   7.803   3.861
86824SOL    HW262305  10.528   7.771   3.723
86825SOL     OW62306  13.764  11.863  10.339
86825SOL    HW162307  13.727  11.839  10.424
86825SOL    HW262308  13.702  11.926  10.303
86826SOL     OW62309   7.239   2.269  12.183
86826SOL    HW162310   7.165   2.272  12.243
86826SOL    HW262311   7.201   2.243  12.099
86827SOL     OW62312   3.587   1.527   9.385
86827SOL    HW162313   3.527   1.503   9.315
86827SOL    HW262314   3.674   1.508   9.348
86828SOL     OW62315   4.649   2.238   2.201
86828SOL    HW162316   4.665   2.288   2.121
86828SOL    HW262317   4.697   2.286   2.268
86829SOL     OW62318   4.538   3.600  10.022
86829SOL    HW162319   4.504   3.664   9.960
86829SOL    HW262320   4.463   3.573  10.074
86830SOL     OW62321   8.088   2.817   9.060
86830SOL    HW162322   8.098   2.839   9.153
86830SOL    HW262323   8.167   2.768   9.038
86831SOL     OW62324   9.982  12.423   4.332
86831SOL    HW162325  10.023  12.445   4.249
86831SOL    HW262326  10.048  12.446   4.398
86832SOL     OW62327   0.636   7.281   1.628
86832SOL    HW162328   0.724   7.251   1.602
86832SOL    HW262329   0.638   7.280   1.723
86833SOL     OW62330   7.106   1.445   2.892
86833SOL    HW162331   7.017   1.449   2.926
86833SOL    HW262332   7.147   1.527   2.922
86834SOL     OW62333   6.251   6.402  12.024
86834SOL    HW162334   6.170   6.352  12.035
86834SOL    HW262335   6.304   6.348  11.965
86835SOL     OW62336  11.893  12.523  12.703
86835SOL    HW162337  11.868  12.535  12.794
86835SOL    HW262338  11.955  12.594  12.686
86836SOL     OW62339   5.823  11.622   1.615
86836SOL    HW162340   5.769  11.651   1.541
86836SOL    HW262341   5.906  11.666   1.602
86837SOL     OW62342  14.648  12.307   5.914
86837SOL    HW162343  14.593  12.369   5.867
86837SOL    HW262344  14.684  12.358   5.987
86838SOL     OW62345  14.581   0.529   3.231
86838SOL    HW162346  14.635   0.555   3.157
86838SOL    HW262347  14.585   0.433   3.231
86839SOL     OW62348  14.244   8.384   8.025
86839SOL    HW162349  14.310   8.388   8.093
86839SOL    HW262350  14.233   8.290   8.007
86840SOL     OW62351   6.010  13.179  10.783
86840SOL    HW162352   5.934  13.236  10.770
86840SOL    HW262353   6.068  13.200  10.709
86841SOL     OW62354   1.968  12.604   2.624
86841SOL    HW162355   1.891  12.630   2.574
86841SOL    HW262356   2.042  12.648   2.582
86842SOL     OW62357   0.070  12.714   6.228
86842SOL    HW162358   0.161  12.704   6.199
86842SOL    HW262359   0.062  12.808   6.249
86843SOL     OW62360   7.737   3.984   6.461
86843SOL    HW162361   7.742   4.079   6.469
86843SOL    HW262362   7.650   3.962   6.493
86844SOL     OW62363  13.667   4.383   7.297
86844SOL    HW162364  13.604   4.393   7.226
86844SOL    HW262365  13.615   4.350   7.371
86845SOL     OW62366  10.907  13.802   1.153
86845SOL    HW162367  10.828  13.765   1.191
86845SOL    HW262368  10.953  13.727   1.114
86846SOL     OW62369   0.588   2.941   3.153
86846SOL    HW162370   0.676   2.914   3.178
86846SOL    HW262371   0.598   3.030   3.120
86847SOL     OW62372   4.439   9.215   1.857
86847SOL    HW162373   4.500   9.185   1.790
86847SOL    HW262374   4.474   9.180   1.939
86848SOL     OW62375  11.210   6.968   7.610
86848SOL    HW162376  11.165   6.902   7.663
86848SOL    HW262377  11.298   6.973   7.646
86849SOL     OW62378  10.355   6.038   3.234
86849SOL    HW162379  10.408   6.000   3.303
86849SOL    HW262380  10.301   5.966   3.201
86850SOL     OW62381   4.292   4.479   6.860
86850SOL    HW162382   4.349   4.507   6.788
86850SOL    HW262383   4.222   4.545   6.861
86851SOL     OW62384  10.006   1.736   4.899
86851SOL    HW162385  10.068   1.730   4.972
86851SOL    HW262386   9.976   1.646   4.887
86852SOL     OW62387   5.815   7.136   3.601
86852SOL    HW162388   5.889   7.126   3.661
86852SOL    HW262389   5.767   7.054   3.608
86853SOL     OW62390   3.322   1.427   6.000
86853SOL    HW162391   3.228   1.435   6.014
86853SOL    HW262392   3.347   1.506   5.953
86854SOL     OW62393   7.342   4.164   3.509
86854SOL    HW162394   7.405   4.146   3.579
86854SOL    HW262395   7.318   4.256   3.522
86855SOL     OW62396   0.657   0.742   1.506
86855SOL    HW162397   0.572   0.704   1.485
86855SOL    HW262398   0.669   0.726   1.600
86856SOL     OW62399  10.221   1.959   5.865
86856SOL    HW162400  10.297   1.939   5.919
86856SOL    HW262401  10.178   2.032   5.910
86857SOL     OW62402   4.611   7.384  12.864
86857SOL    HW162403   4.613   7.288  12.868
86857SOL    HW262404   4.557   7.404  12.788
86858SOL     OW62405  13.713   2.232  12.073
86858SOL    HW162406  13.731   2.261  11.984
86858SOL    HW262407  13.667   2.305  12.114
86859SOL     OW62408   5.182   6.212  11.799
86859SOL    HW162409   5.190   6.307  11.802
86859SOL    HW262410   5.199   6.183  11.888
86860SOL     OW62411   2.461  14.851   5.011
86860SOL    HW162412   2.454  14.761   5.044
86860SOL    HW262413   2.501   0.024   5.083
86861SOL     OW62414  11.774   7.946  10.035
86861SOL    HW162415  11.817   7.886   9.974
86861SOL    HW262416  11.681   7.939  10.013
86862SOL     OW62417   1.768   6.817   6.696
86862SOL    HW162418   1.729   6.870   6.765
86862SOL    HW262419   1.862   6.830   6.705
86863SOL     OW62420  12.858  12.310   6.712
86863SOL    HW162421  12.949  12.302   6.684
86863SOL    HW262422  12.829  12.220   6.725
86864SOL     OW62423  13.015   0.484   1.975
86864SOL    HW162424  12.935   0.452   1.933
86864SOL    HW262425  13.062   0.530   1.906
86865SOL     OW62426   0.113   6.308   3.630
86865SOL    HW162427   0.183   6.344   3.685
86865SOL    HW262428   0.135   6.216   3.619
86866SOL     OW62429   8.515   3.038  13.730
86866SOL    HW162430   8.551   3.012  13.646
86866SOL    HW262431   8.585   3.085  13.774
86867SOL     OW62432  12.659   5.327   8.608
86867SOL    HW162433  12.702   5.412   8.607
86867SOL    HW262434  12.655   5.300   8.517
86868SOL     OW62435   1.817  13.112  14.189
86868SOL    HW162436   1.871  13.091  14.113
86868SOL    HW262437   1.727  13.096  14.161
86869SOL     OW62438   9.359   5.034   5.386
86869SOL    HW162439   9.383   5.090   5.460
86869SOL    HW262440   9.384   5.086   5.309
86870SOL     OW62441  11.040  13.527   8.555
86870SOL    HW162442  11.076  13.568   8.477
86870SOL    HW262443  11.061  13.587   8.626
86871SOL     OW62444   6.091   2.760   1.266
86871SOL    HW162445   6.091   2.726   1.356
86871SOL    HW262446   6.128   2.688   1.214
86872SOL     OW62447   9.261  14.840   9.944
86872SOL    HW162448   9.245  14.757   9.990
86872SOL    HW262449   9.342  14.873   9.983
86873SOL     OW62450   2.059   4.070  11.130
86873SOL    HW162451   2.085   4.162  11.141
86873SOL    HW262452   1.982   4.061  11.186
86874SOL     OW62453   2.187   4.351   1.476
86874SOL    HW162454   2.231   4.295   1.412
86874SOL    HW262455   2.256   4.408   1.509
86875SOL     OW62456   7.640   6.972   1.260
86875SOL    HW162457   7.703   6.953   1.330
86875SOL    HW262458   7.693   6.974   1.180
86876SOL     OW62459   4.695   4.768   5.017
86876SOL    HW162460   4.727   4.724   4.939
86876SOL    HW262461   4.761   4.750   5.084
86877SOL     OW62462  12.602   3.935   6.907
86877SOL    HW162463  12.602   3.852   6.860
86877SOL    HW262464  12.692   3.966   6.902
86878SOL     OW62465   0.071   3.211  14.072
86878SOL    HW162466   0.166   3.200  14.082
86878SOL    HW262467   0.057   3.305  14.080
86879SOL     OW62468   2.089  11.170   6.116
86879SOL    HW162469   2.100  11.157   6.210
86879SOL    HW262470   2.175  11.199   6.085
86880SOL     OW62471  12.861  13.495   4.051
86880SOL    HW162472  12.845  13.417   4.104
86880SOL    HW262473  12.814  13.565   4.097
86881SOL     OW62474   3.685   0.476   3.874
86881SOL    HW162475   3.661   0.472   3.782
86881SOL    HW262476   3.622   0.537   3.913
86882SOL     OW62477   5.851   4.401   7.891
86882SOL    HW162478   5.879   4.411   7.982
86882SOL    HW262479   5.921   4.351   7.850
86883SOL     OW62480  14.348   7.552   5.735
86883SOL    HW162481  14.278   7.563   5.670
86883SOL    HW262482  14.367   7.641   5.765
86884SOL     OW62483   5.445   2.928   5.633
86884SOL    HW162484   5.461   2.908   5.541
86884SOL    HW262485   5.358   2.891   5.651
86885SOL     OW62486   1.029  11.908  12.384
86885SOL    HW162487   1.010  11.838  12.446
86885SOL    HW262488   0.967  11.894  12.313
86886SOL     OW62489   3.958   3.901   6.983
86886SOL    HW162490   4.042   3.922   7.024
86886SOL    HW262491   3.907   3.982   6.991
86887SOL     OW62492   3.246   6.197   6.306
86887SOL    HW162493   3.317   6.189   6.242
86887SOL    HW262494   3.284   6.165   6.388
86888SOL     OW62495  10.300   6.506  10.138
86888SOL    HW162496  10.281   6.415  10.112
86888SOL    HW262497  10.376   6.530  10.087
86889SOL     OW62498   8.465   7.505   8.880
86889SOL    HW162499   8.442   7.577   8.822
86889SOL    HW262500   8.498   7.436   8.822
86890SOL     OW62501  11.873  12.403  11.903
86890SOL    HW162502  11.924  12.483  11.889
86890SOL    HW262503  11.789  12.434  11.939
86891SOL     OW62504   6.498  14.840   4.024
86891SOL    HW162505   6.430  14.850   4.091
86891SOL    HW262506   6.450  14.836   3.941
86892SOL     OW62507   4.923   2.022   1.287
86892SOL    HW162508   4.882   1.946   1.329
86892SOL    HW262509   4.957   2.074   1.360
86893SOL     OW62510   7.643   7.790  12.121
86893SOL    HW162511   7.734   7.794  12.149
86893SOL    HW262512   7.634   7.861  12.057
86894SOL     OW62513   9.315   3.383   3.155
86894SOL    HW162514   9.392   3.415   3.108
86894SOL    HW262515   9.259   3.346   3.086
86895SOL     OW62516   7.930   7.958  12.589
86895SOL    HW162517   7.996   7.931  12.653
86895SOL    HW262518   7.846   7.939  12.631
86896SOL     OW62519   7.499   0.477   2.167
86896SOL    HW162520   7.584   0.471   2.124
86896SOL    HW262521   7.465   0.562   2.139
86897SOL     OW62522   1.549  10.975   9.213
86897SOL    HW162523   1.476  10.965   9.274
86897SOL    HW262524   1.605  10.899   9.231
86898SOL     OW62525   0.102   5.637  11.217
86898SOL    HW162526   0.126   5.592  11.135
86898SOL    HW262527   0.055   5.715  11.189
86899SOL     OW62528   4.960  11.216   7.713
86899SOL    HW162529   4.974  11.302   7.673
86899SOL    HW262530   4.918  11.164   7.645
86900SOL     OW62531  11.547   7.139   7.680
86900SOL    HW162532  11.500   7.163   7.600
86900SOL    HW262533  11.536   7.045   7.687
86901SOL     OW62534   0.292   3.633   7.413
86901SOL    HW162535   0.235   3.646   7.337
86901SOL    HW262536   0.242   3.669   7.487
86902SOL     OW62537  11.881  12.625   8.149
86902SOL    HW162538  11.886  12.711   8.191
86902SOL    HW262539  11.905  12.563   8.218
86903SOL     OW62540   2.817   1.971  12.342
86903SOL    HW162541   2.822   1.956  12.247
86903SOL    HW262542   2.820   2.066  12.351
86904SOL     OW62543  13.886  12.066   3.953
86904SOL    HW162544  13.926  11.986   3.918
86904SOL    HW262545  13.833  12.036   4.028
86905SOL     OW62546   0.438   4.890  10.593
86905SOL    HW162547   0.489   4.862  10.669
86905SOL    HW262548   0.494   4.872  10.518
86906SOL     OW62549  11.722   2.213   0.648
86906SOL    HW162550  11.766   2.289   0.687
86906SOL    HW262551  11.662   2.182   0.716
86907SOL     OW62552   9.008   9.563   8.094
86907SOL    HW162553   9.059   9.581   8.173
86907SOL    HW262554   9.032   9.632   8.033
86908SOL     OW62555   6.807   4.114  14.130
86908SOL    HW162556   6.784   4.072  14.047
86908SOL    HW262557   6.725   4.151  14.162
86909SOL     OW62558   6.376   3.612   0.127
86909SOL    HW162559   6.336   3.698   0.139
86909SOL    HW262560   6.302   3.553   0.113
86910SOL     OW62561   8.148   8.825   2.439
86910SOL    HW162562   8.201   8.747   2.426
86910SOL    HW262563   8.210   8.898   2.439
86911SOL     OW62564   5.232  13.260  10.122
86911SOL    HW162565   5.183  13.304  10.053
86911SOL    HW262566   5.324  13.279  10.101
86912SOL     OW62567   4.238   4.149   1.006
86912SOL    HW162568   4.249   4.228   1.059
86912SOL    HW262569   4.318   4.099   1.021
86913SOL     OW62570   6.138   2.763   4.117
86913SOL    HW162571   6.221   2.758   4.165
86913SOL    HW262572   6.162   2.805   4.034
86914SOL     OW62573  11.983   7.127   0.801
86914SOL    HW162574  11.950   7.202   0.850
86914SOL    HW262575  12.068   7.108   0.841
86915SOL     OW62576   9.425   8.538   6.325
86915SOL    HW162577   9.476   8.576   6.253
86915SOL    HW262578   9.451   8.446   6.328
86916SOL     OW62579   4.904   4.537   5.294
86916SOL    HW162580   4.966   4.493   5.235
86916SOL    HW262581   4.903   4.628   5.265
86917SOL     OW62582   1.194   2.166   8.181
86917SOL    HW162583   1.126   2.170   8.114
86917SOL    HW262584   1.210   2.072   8.194
86918SOL     OW62585   8.851   7.847   5.355
86918SOL    HW162586   8.848   7.942   5.346
86918SOL    HW262587   8.890   7.831   5.441
86919SOL     OW62588   5.243   8.863  11.183
86919SOL    HW162589   5.291   8.927  11.234
86919SOL    HW262590   5.212   8.911  11.106
86920SOL     OW62591   0.764  10.635  13.064
86920SOL    HW162592   0.699  10.692  13.023
86920SOL    HW262593   0.713  10.580  13.123
86921SOL     OW62594   3.883   9.869  14.861
86921SOL    HW162595   3.917   9.794   0.034
86921SOL    HW262596   3.788   9.858  14.865
86922SOL     OW62597   2.011  11.985  11.320
86922SOL    HW162598   1.975  11.989  11.409
86922SOL    HW262599   1.938  11.955  11.266
86923SOL     OW62600   0.872   4.271   4.656
86923SOL    HW162601   0.845   4.265   4.564
86923SOL    HW262602   0.828   4.197   4.698
86924SOL     OW62603   4.715   2.497   5.206
86924SOL    HW162604   4.624   2.478   5.229
86924SOL    HW262605   4.740   2.569   5.264
86925SOL     OW62606  10.205   0.894  12.827
86925SOL    HW162607  10.189   0.802  12.846
86925SOL    HW262608  10.217   0.896  12.732
86926SOL     OW62609   5.235   5.592   0.345
86926SOL    HW162610   5.173   5.647   0.393
86926SOL    HW262611   5.262   5.526   0.408
86927SOL     OW62612   2.187   4.195   3.705
86927SOL    HW162613   2.208   4.289   3.701
86927SOL    HW262614   2.092   4.193   3.709
86928SOL     OW62615  13.945   1.861   7.584
86928SOL    HW162616  13.862   1.902   7.560
86928SOL    HW262617  13.981   1.828   7.501
86929SOL     OW62618   3.142  14.807  14.518
86929SOL    HW162619   3.162  14.713  14.520
86929SOL    HW262620   3.128  14.826  14.425
86930SOL     OW62621   3.901   2.199   9.402
86930SOL    HW162622   3.905   2.288   9.367
86930SOL    HW262623   3.948   2.145   9.339
86931SOL     OW62624  11.064  13.509  12.350
86931SOL    HW162625  11.051  13.445  12.420
86931SOL    HW262626  11.100  13.459  12.277
86932SOL     OW62627   8.905  12.934   7.598
86932SOL    HW162628   8.896  12.927   7.503
86932SOL    HW262629   8.993  12.970   7.610
86933SOL     OW62630   9.420  14.860  13.104
86933SOL    HW162631   9.497  14.860  13.161
86933SOL    HW262632   9.349   0.014  13.160
86934SOL     OW62633   3.514   1.351   3.659
86934SOL    HW162634   3.446   1.299   3.702
86934SOL    HW262635   3.477   1.373   3.574
86935SOL     OW62636   1.829   3.788  13.862
86935SOL    HW162637   1.804   3.713  13.807
86935SOL    HW262638   1.868   3.850  13.800
86936SOL     OW62639  11.129   8.419  11.361
86936SOL    HW162640  11.190   8.491  11.375
86936SOL    HW262641  11.085   8.408  11.444
86937SOL     OW62642  11.040   4.966   2.134
86937SOL    HW162643  10.979   4.906   2.091
86937SOL    HW262644  11.119   4.963   2.080
86938SOL     OW62645  10.046  13.274   7.376
86938SOL    HW162646   9.964  13.317   7.403
86938SOL    HW262647  10.032  13.182   7.396
86939SOL     OW62648  12.078   1.291   7.253
86939SOL    HW162649  12.113   1.358   7.194
86939SOL    HW262650  11.983   1.302   7.247
86940SOL     OW62651   3.813   5.510   7.616
86940SOL    HW162652   3.733   5.531   7.567
86940SOL    HW262653   3.858   5.594   7.626
86941SOL     OW62654   5.817   1.274  13.196
86941SOL    HW162655   5.770   1.346  13.239
86941SOL    HW262656   5.747   1.218  13.162
86942SOL     OW62657   7.385  14.352  12.549
86942SOL    HW162658   7.443  14.286  12.588
86942SOL    HW262659   7.445  14.413  12.506
86943SOL     OW62660  12.525  13.421   8.733
86943SOL    HW162661  12.459  13.490   8.723
86943SOL    HW262662  12.608  13.467   8.738
86944SOL     OW62663   6.390  12.466   4.081
86944SOL    HW162664   6.416  12.516   4.158
86944SOL    HW262665   6.399  12.375   4.106
86945SOL     OW62666   2.043  13.070  13.644
86945SOL    HW162667   2.128  13.102  13.675
86945SOL    HW262668   2.048  13.077  13.549
86946SOL     OW62669  13.822   6.795   7.794
86946SOL    HW162670  13.843   6.878   7.752
86946SOL    HW262671  13.817   6.733   7.721
86947SOL     OW62672   2.976  11.740   1.925
86947SOL    HW162673   3.000  11.726   1.833
86947SOL    HW262674   3.021  11.821   1.949
86948SOL     OW62675   5.504  11.556   3.784
86948SOL    HW162676   5.552  11.481   3.820
86948SOL    HW262677   5.488  11.612   3.860
86949SOL     OW62678   1.823   0.104   8.752
86949SOL    HW162679   1.898   0.088   8.809
86949SOL    HW262680   1.831   0.195   8.725
86950SOL     OW62681  12.145  13.554   6.966
86950SOL    HW162682  12.135  13.578   6.874
86950SOL    HW262683  12.133  13.637   7.013
86951SOL     OW62684   1.132   4.997  10.531
86951SOL    HW162685   1.178   4.914  10.545
86951SOL    HW262686   1.067   4.976  10.464
86952SOL     OW62687  13.128  12.991   4.939
86952SOL    HW162688  13.167  12.946   5.014
86952SOL    HW262689  13.078  13.063   4.978
86953SOL     OW62690   2.697  12.616  14.624
86953SOL    HW162691   2.781  12.570  14.636
86953SOL    HW262692   2.643  12.586  14.697
86954SOL     OW62693   1.079   4.843  14.658
86954SOL    HW162694   1.066   4.753  14.626
86954SOL    HW262695   1.127   4.886  14.588
86955SOL     OW62696   2.599   7.182   3.808
86955SOL    HW162697   2.669   7.156   3.867
86955SOL    HW262698   2.643   7.203   3.726
86956SOL     OW62699   6.412  10.320   9.911
86956SOL    HW162700   6.339  10.266   9.942
86956SOL    HW262701   6.372  10.382   9.850
86957SOL     OW62702   8.443   2.433  11.098
86957SOL    HW162703   8.531   2.397  11.104
86957SOL    HW262704   8.413   2.410  11.010
86958SOL     OW62705  12.120   2.607  12.111
86958SOL    HW162706  12.054   2.675  12.116
86958SOL    HW262707  12.082   2.533  12.158
86959SOL     OW62708   8.517   5.802   2.548
86959SOL    HW162709   8.422   5.793   2.552
86959SOL    HW262710   8.537   5.797   2.455
86960SOL     OW62711  12.118   2.293  13.774
86960SOL    HW162712  12.156   2.285  13.687
86960SOL    HW262713  12.194   2.298  13.833
86961SOL     OW62714   2.719   2.337   2.737
86961SOL    HW162715   2.713   2.417   2.683
86961SOL    HW262716   2.812   2.332   2.760
86962SOL     OW62717   0.290  13.588   2.390
86962SOL    HW162718   0.315  13.600   2.481
86962SOL    HW262719   0.304  13.494   2.374
86963SOL     OW62720   1.181  11.648  14.037
86963SOL    HW162721   1.196  11.642  13.943
86963SOL    HW262722   1.260  11.691  14.071
86964SOL     OW62723  12.387  11.596  11.683
86964SOL    HW162724  12.318  11.610  11.748
86964SOL    HW262725  12.378  11.504  11.657
86965SOL     OW62726   6.466   2.748  14.096
86965SOL    HW162727   6.468   2.766  14.190
86965SOL    HW262728   6.461   2.835  14.055
86966SOL     OW62729   1.662  10.437   7.777
86966SOL    HW162730   1.652  10.396   7.862
86966SOL    HW262731   1.577  10.425   7.734
86967SOL     OW62732   5.750   7.634   0.469
86967SOL    HW162733   5.733   7.616   0.376
86967SOL    HW262734   5.746   7.548   0.511
86968SOL     OW62735   7.375   5.080   9.091
86968SOL    HW162736   7.454   5.133   9.081
86968SOL    HW262737   7.305   5.144   9.101
86969SOL     OW62738   1.958   8.712   8.214
86969SOL    HW162739   1.971   8.619   8.231
86969SOL    HW262740   1.974   8.723   8.121
86970SOL     OW62741   2.776  14.485   8.159
86970SOL    HW162742   2.725  14.465   8.238
86970SOL    HW262743   2.817  14.570   8.179
86971SOL     OW62744   5.589  14.383   9.892
86971SOL    HW162745   5.652  14.317   9.863
86971SOL    HW262746   5.541  14.407   9.813
86972SOL     OW62747   3.916  13.450   2.882
86972SOL    HW162748   3.970  13.495   2.817
86972SOL    HW262749   3.876  13.378   2.833
86973SOL     OW62750   5.591   9.579   9.823
86973SOL    HW162751   5.675   9.556   9.784
86973SOL    HW262752   5.532   9.587   9.748
86974SOL     OW62753   9.581  10.504   5.917
86974SOL    HW162754   9.637  10.454   5.976
86974SOL    HW262755   9.531  10.562   5.975
86975SOL     OW62756   0.528   3.430   3.585
86975SOL    HW162757   0.621   3.411   3.572
86975SOL    HW262758   0.486   3.344   3.584
86976SOL     OW62759   5.883  12.736  14.518
86976SOL    HW162760   5.945  12.682  14.568
86976SOL    HW262761   5.857  12.681  14.445
86977SOL     OW62762   1.052   5.977   3.123
86977SOL    HW162763   1.126   5.921   3.147
86977SOL    HW262764   1.073   6.062   3.161
86978SOL     OW62765   8.868   9.794  11.635
86978SOL    HW162766   8.861   9.705  11.601
86978SOL    HW262767   8.777   9.823  11.645
86979SOL     OW62768  11.768   6.765  14.233
86979SOL    HW162769  11.857   6.750  14.265
86979SOL    HW262770  11.769   6.734  14.143
86980SOL     OW62771   5.540   7.814   8.020
86980SOL    HW162772   5.622   7.775   7.990
86980SOL    HW262773   5.566   7.898   8.058
86981SOL     OW62774   5.785   3.079  10.635
86981SOL    HW162775   5.703   3.127  10.633
86981SOL    HW262776   5.840   3.128  10.696
86982SOL     OW62777   6.316  12.180  11.682
86982SOL    HW162778   6.314  12.084  11.685
86982SOL    HW262779   6.251  12.207  11.747
86983SOL     OW62780  10.169  12.643   2.463
86983SOL    HW162781  10.192  12.733   2.440
86983SOL    HW262782  10.102  12.653   2.531
86984SOL     OW62783   3.004   3.246   4.326
86984SOL    HW162784   2.995   3.323   4.381
86984SOL    HW262785   3.098   3.225   4.328
86985SOL     OW62786   6.422   9.596   0.372
86985SOL    HW162787   6.425   9.529   0.441
86985SOL    HW262788   6.338   9.579   0.328
86986SOL     OW62789  10.127  11.411  14.103
86986SOL    HW162790  10.214  11.390  14.137
86986SOL    HW262791  10.073  11.423  14.181
86987SOL     OW62792  10.768  11.940   6.392
86987SOL    HW162793  10.712  11.952   6.469
86987SOL    HW262794  10.846  11.992   6.411
86988SOL     OW62795  12.341  12.794  12.739
86988SOL    HW162796  12.356  12.878  12.696
86988SOL    HW262797  12.410  12.789  12.805
86989SOL     OW62798  14.459   7.831  10.096
86989SOL    HW162799  14.413   7.790  10.169
86989SOL    HW262800  14.540   7.865  10.135
86990SOL     OW62801  12.573   8.700  12.615
86990SOL    HW162802  12.575   8.606  12.599
86990SOL    HW262803  12.482   8.718  12.640
86991SOL     OW62804   3.227   1.213  10.502
86991SOL    HW162805   3.222   1.169  10.417
86991SOL    HW262806   3.146   1.188  10.547
86992SOL     OW62807  13.082   5.375   4.718
86992SOL    HW162808  12.992   5.349   4.700
86992SOL    HW262809  13.128   5.364   4.635
86993SOL     OW62810   1.518   0.655   3.713
86993SOL    HW162811   1.512   0.574   3.662
86993SOL    HW262812   1.606   0.653   3.750
86994SOL     OW62813   5.679   1.316  14.864
86994SOL    HW162814   5.634   1.347   0.067
86994SOL    HW262815   5.616   1.331  14.793
86995SOL     OW62816   8.924   6.408   0.617
86995SOL    HW162817   8.862   6.381   0.549
86995SOL    HW262818   8.992   6.455   0.569
86996SOL     OW62819  11.652   5.369   7.423
86996SOL    HW162820  11.671   5.446   7.368
86996SOL    HW262821  11.558   5.355   7.414
86997SOL     OW62822  14.117   3.209  13.383
86997SOL    HW162823  14.066   3.289  13.394
86997SOL    HW262824  14.136   3.180  13.472
86998SOL     OW62825  11.574  10.585   8.148
86998SOL    HW162826  11.528  10.612   8.068
86998SOL    HW262827  11.587  10.491   8.138
86999SOL     OW62828  14.736  13.903   5.317
86999SOL    HW162829  14.810  13.858   5.358
86999SOL    HW262830  14.705  13.964   5.384
87000SOL     OW62831  14.180   1.574  13.723
87000SOL    HW162832  14.106   1.628  13.753
87000SOL    HW262833  14.176   1.579  13.628
87001SOL     OW62834   3.670   8.073   2.741
87001SOL    HW162835   3.709   8.152   2.704
87001SOL    HW262836   3.589   8.103   2.781
87002SOL     OW62837   7.193   0.366  11.798
87002SOL    HW162838   7.201   0.329  11.710
87002SOL    HW262839   7.265   0.429  11.804
87003SOL     OW62840  14.156  10.849  13.942
87003SOL    HW162841  14.082  10.794  13.966
87003SOL    HW262842  14.208  10.856  14.022
87004SOL     OW62843  14.730   1.858   7.041
87004SOL    HW162844  14.705   1.776   6.998
87004SOL    HW262845  14.821   1.844   7.068
87005SOL     OW62846   3.536   0.573   2.950
87005SOL    HW162847   3.462   0.630   2.929
87005SOL    HW262848   3.612   0.631   2.951
87006SOL     OW62849  12.242  10.507   2.945
87006SOL    HW162850  12.221  10.589   2.990
87006SOL    HW262851  12.263  10.533   2.855
87007SOL     OW62852   1.969   0.975   0.951
87007SOL    HW162853   1.941   1.015   1.033
87007SOL    HW262854   1.954   1.044   0.885
87008SOL     OW62855   8.765  14.604  12.658
87008SOL    HW162856   8.861  14.609  12.657
87008SOL    HW262857   8.741  14.569  12.572
87009SOL     OW62858   7.831   6.099  12.229
87009SOL    HW162859   7.753   6.076  12.179
87009SOL    HW262860   7.800   6.161  12.295
87010SOL     OW62861   6.177   4.435   5.574
87010SOL    HW162862   6.186   4.491   5.497
87010SOL    HW262863   6.219   4.353   5.550
87011SOL     OW62864  13.265   4.832   2.561
87011SOL    HW162865  13.186   4.814   2.612
87011SOL    HW262866  13.254   4.923   2.532
87012SOL     OW62867  12.047   6.692   0.778
87012SOL    HW162868  11.986   6.766   0.771
87012SOL    HW262869  12.082   6.699   0.867
87013SOL     OW62870   6.504   3.381  10.026
87013SOL    HW162871   6.465   3.468  10.017
87013SOL    HW262872   6.598   3.397  10.025
87014SOL     OW62873   4.669   2.054  11.818
87014SOL    HW162874   4.752   2.099  11.835
87014SOL    HW262875   4.656   2.062  11.724
87015SOL     OW62876  12.270   3.482  13.183
87015SOL    HW162877  12.268   3.555  13.121
87015SOL    HW262878  12.179   3.469  13.209
87016SOL     OW62879   2.364   4.088   2.030
87016SOL    HW162880   2.388   4.022   1.965
87016SOL    HW262881   2.297   4.140   1.987
87017SOL     OW62882   7.786   9.723  10.695
87017SOL    HW162883   7.725   9.706  10.623
87017SOL    HW262884   7.872   9.727  10.653
87018SOL     OW62885  12.769  12.043   9.930
87018SOL    HW162886  12.715  11.981   9.978
87018SOL    HW262887  12.706  12.103   9.889
87019SOL     OW62888   2.649   7.993  10.134
87019SOL    HW162889   2.610   8.059  10.078
87019SOL    HW262890   2.744   8.003  10.120
87020SOL     OW62891   7.891   4.965  11.312
87020SOL    HW162892   7.807   4.998  11.346
87020SOL    HW262893   7.867   4.908  11.240
87021SOL     OW62894   4.289   1.642  11.325
87021SOL    HW162895   4.345   1.577  11.283
87021SOL    HW262896   4.347   1.715  11.347
87022SOL     OW62897   0.261  10.805   1.253
87022SOL    HW162898   0.248  10.843   1.340
87022SOL    HW262899   0.232  10.874   1.192
87023SOL     OW62900   5.780  13.073   2.554
87023SOL    HW162901   5.699  13.025   2.573
87023SOL    HW262902   5.779  13.148   2.614
87024SOL     OW62903   0.119   2.965   5.358
87024SOL    HW162904   0.162   2.979   5.442
87024SOL    HW262905   0.030   2.999   5.371
87025SOL     OW62906   0.288   0.359   8.693
87025SOL    HW162907   0.366   0.411   8.713
87025SOL    HW262908   0.231   0.419   8.645
87026SOL     OW62909   9.739   2.444   4.920
87026SOL    HW162910   9.740   2.525   4.971
87026SOL    HW262911   9.673   2.390   4.963
87027SOL     OW62912   6.195   1.818  10.684
87027SOL    HW162913   6.212   1.828  10.778
87027SOL    HW262914   6.104   1.845  10.674
87028SOL     OW62915  10.208   9.743  12.296
87028SOL    HW162916  10.193   9.825  12.249
87028SOL    HW262917  10.281   9.703  12.251
87029SOL     OW62918   0.520   5.905   1.837
87029SOL    HW162919   0.478   5.880   1.754
87029SOL    HW262920   0.455   5.961   1.880
87030SOL     OW62921   3.239   3.897  12.286
87030SOL    HW162922   3.198   3.932  12.207
87030SOL    HW262923   3.319   3.856  12.256
87031SOL     OW62924   8.930   4.399   2.742
87031SOL    HW162925   8.906   4.483   2.703
87031SOL    HW262926   8.971   4.422   2.825
87032SOL     OW62927   9.162  14.487  11.197
87032SOL    HW162928   9.072  14.456  11.183
87032SOL    HW262929   9.152  14.579  11.221
87033SOL     OW62930  12.562  11.893  10.048
87033SOL    HW162931  12.603  11.865  10.130
87033SOL    HW262932  12.469  11.872  10.060
87034SOL     OW62933  11.228   6.405   0.027
87034SOL    HW162934  11.199   6.466  14.834
87034SOL    HW262935  11.157   6.405   0.091
87035SOL     OW62936   6.825   3.747   5.755
87035SOL    HW162937   6.801   3.659   5.728
87035SOL    HW262938   6.905   3.735   5.806
87036SOL     OW62939   4.148   8.439   2.293
87036SOL    HW162940   4.191   8.380   2.232
87036SOL    HW262941   4.097   8.498   2.238
87037SOL     OW62942   6.556   7.811  13.959
87037SOL    HW162943   6.641   7.797  13.917
87037SOL    HW262944   6.533   7.901  13.936
87038SOL     OW62945   7.228  14.188   9.899
87038SOL    HW162946   7.249  14.187   9.805
87038SOL    HW262947   7.174  14.110   9.912
87039SOL     OW62948   4.351  14.117   2.515
87039SOL    HW162949   4.396  14.187   2.562
87039SOL    HW262950   4.341  14.150   2.426
87040SOL     OW62951  10.047   3.266   9.824
87040SOL    HW162952   9.971   3.261   9.881
87040SOL    HW262953  10.064   3.176   9.798
87041SOL     OW62954   1.326  13.087   4.298
87041SOL    HW162955   1.289  12.999   4.303
87041SOL    HW262956   1.418  13.073   4.273
87042SOL     OW62957   3.560   9.902  11.055
87042SOL    HW162958   3.495   9.833  11.067
87042SOL    HW262959   3.641   9.864  11.090
87043SOL     OW62960   5.012  12.338   5.055
87043SOL    HW162961   5.069  12.261   5.056
87043SOL    HW262962   4.939  12.315   5.112
87044SOL     OW62963   8.251  14.086   1.954
87044SOL    HW162964   8.173  14.085   1.898
87044SOL    HW262965   8.216  14.107   2.041
87045SOL     OW62966   0.147   7.006  13.375
87045SOL    HW162967   0.131   7.037  13.286
87045SOL    HW262968   0.238   6.976  13.374
87046SOL     OW62969  14.179   7.697  10.001
87046SOL    HW162970  14.255   7.754  10.012
87046SOL    HW262971  14.210   7.625   9.946
87047SOL     OW62972   7.865   0.262  10.682
87047SOL    HW162973   7.883   0.352  10.657
87047SOL    HW262974   7.928   0.243  10.751
87048SOL     OW62975  11.688   4.273   9.475
87048SOL    HW162976  11.617   4.270   9.539
87048SOL    HW262977  11.668   4.203   9.413
87049SOL     OW62978   7.261   9.650   0.676
87049SOL    HW162979   7.171   9.642   0.707
87049SOL    HW262980   7.259   9.621   0.585
87050SOL     OW62981   2.466   9.047  11.277
87050SOL    HW162982   2.415   8.990  11.219
87050SOL    HW262983   2.548   9.062  11.230
87051SOL     OW62984   0.905  12.882  11.762
87051SOL    HW162985   0.966  12.938  11.715
87051SOL    HW262986   0.960  12.826  11.817
87052SOL     OW62987   1.832  14.181   8.395
87052SOL    HW162988   1.888  14.257   8.412
87052SOL    HW262989   1.767  14.182   8.465
87053SOL     OW62990   3.794   9.461  10.157
87053SOL    HW162991   3.853   9.534  10.174
87053SOL    HW262992   3.766   9.432  10.244
87054SOL     OW62993   7.373   7.694   7.508
87054SOL    HW162994   7.308   7.652   7.564
87054SOL    HW262995   7.322   7.753   7.452
87055SOL     OW62996   3.956   2.854  12.331
87055SOL    HW162997   3.863   2.867  12.314
87055SOL    HW262998   3.980   2.923  12.393
87056SOL     OW62999   9.079  10.945   9.681
87056SOL    HW163000   8.998  10.894   9.677
87056SOL    HW263001   9.147  10.880   9.699
87057SOL     OW63002   1.497   3.195   3.822
87057SOL    HW163003   1.467   3.116   3.776
87057SOL    HW263004   1.559   3.236   3.761
87058SOL     OW63005  13.552   2.274   3.427
87058SOL    HW163006  13.524   2.258   3.337
87058SOL    HW263007  13.575   2.188   3.461
87059SOL     OW63008  12.100   2.653   8.209
87059SOL    HW163009  12.044   2.686   8.138
87059SOL    HW263010  12.148   2.580   8.170
87060SOL     OW63011   3.085   0.288  14.823
87060SOL    HW163012   3.001   0.244  14.807
87060SOL    HW263013   3.151   0.229  14.786
87061SOL     OW63014   5.928   6.402   7.196
87061SOL    HW163015   6.009   6.453   7.187
87061SOL    HW263016   5.955   6.321   7.239
87062SOL     OW63017   1.298   2.899  10.285
87062SOL    HW163018   1.243   2.953  10.229
87062SOL    HW263019   1.245   2.822  10.303
87063SOL     OW63020   8.689  10.861  10.495
87063SOL    HW163021   8.676  10.788  10.555
87063SOL    HW263022   8.607  10.866  10.446
87064SOL     OW63023   1.016   1.809   9.937
87064SOL    HW163024   1.037   1.825  10.029
87064SOL    HW263025   0.990   1.716   9.934
87065SOL     OW63026   4.665   0.669   9.630
87065SOL    HW163027   4.703   0.587   9.662
87065SOL    HW263028   4.580   0.645   9.594
87066SOL     OW63029   7.587  11.340   0.646
87066SOL    HW163030   7.526  11.269   0.667
87066SOL    HW263031   7.674  11.302   0.661
87067SOL     OW63032   5.296   9.120   8.306
87067SOL    HW163033   5.305   9.026   8.318
87067SOL    HW263034   5.204   9.138   8.321
87068SOL     OW63035  13.375   3.413   2.253
87068SOL    HW163036  13.445   3.356   2.287
87068SOL    HW263037  13.402   3.501   2.278
87069SOL     OW63038   8.820  13.310   7.044
87069SOL    HW163039   8.805  13.340   6.955
87069SOL    HW263040   8.905  13.265   7.041
87070SOL     OW63041  10.864  14.320   3.408
87070SOL    HW163042  10.812  14.396   3.381
87070SOL    HW263043  10.821  14.246   3.366
87071SOL     OW63044   4.299   8.152   3.764
87071SOL    HW163045   4.394   8.149   3.752
87071SOL    HW263046   4.287   8.181   3.855
87072SOL     OW63047   2.329  11.593   4.525
87072SOL    HW163048   2.304  11.523   4.464
87072SOL    HW263049   2.248  11.610   4.574
87073SOL     OW63050   2.227   2.256  11.780
87073SOL    HW163051   2.163   2.308  11.828
87073SOL    HW263052   2.302   2.314  11.768
87074SOL     OW63053   3.607  10.832   6.338
87074SOL    HW163054   3.622  10.863   6.427
87074SOL    HW263055   3.523  10.871   6.313
87075SOL     OW63056  12.987   4.252   9.159
87075SOL    HW163057  12.976   4.158   9.168
87075SOL    HW263058  12.916   4.279   9.100
87076SOL     OW63059   2.798   3.069   8.657
87076SOL    HW163060   2.806   2.980   8.622
87076SOL    HW263061   2.755   3.057   8.742
87077SOL     OW63062   5.869  10.466   6.556
87077SOL    HW163063   5.925  10.528   6.602
87077SOL    HW263064   5.905  10.380   6.580
87078SOL     OW63065   2.929  12.107  10.984
87078SOL    HW163066   2.851  12.091  10.931
87078SOL    HW263067   2.958  12.020  11.012
87079SOL     OW63068  13.312  14.335  11.691
87079SOL    HW163069  13.350  14.405  11.638
87079SOL    HW263070  13.384  14.272  11.702
87080SOL     OW63071   5.962  13.658   1.116
87080SOL    HW163072   6.032  13.701   1.165
87080SOL    HW263073   5.984  13.675   1.024
87081SOL     OW63074   3.038  11.368  10.937
87081SOL    HW163075   3.074  11.457  10.933
87081SOL    HW263076   2.943  11.381  10.941
87082SOL     OW63077   8.336   2.965   8.499
87082SOL    HW163078   8.340   3.008   8.413
87082SOL    HW263079   8.286   3.026   8.554
87083SOL     OW63080   9.166   6.930   7.130
87083SOL    HW163081   9.078   6.891   7.131
87083SOL    HW263082   9.217   6.873   7.073
87084SOL     OW63083   5.614   6.841   4.000
87084SOL    HW163084   5.706   6.816   3.985
87084SOL    HW263085   5.611   6.868   4.091
87085SOL     OW63086   4.064   6.117   7.157
87085SOL    HW163087   4.153   6.103   7.188
87085SOL    HW263088   4.072   6.189   7.094
87086SOL     OW63089  11.827  14.545  10.546
87086SOL    HW163090  11.744  14.568  10.586
87086SOL    HW263091  11.842  14.612  10.480
87087SOL     OW63092   9.315  12.021  13.956
87087SOL    HW163093   9.252  11.956  13.923
87087SOL    HW263094   9.370  12.040  13.880
87088SOL     OW63095  11.114  12.206  12.912
87088SOL    HW163096  11.066  12.135  12.870
87088SOL    HW263097  11.081  12.209  13.002
87089SOL     OW63098   5.369   4.149  13.261
87089SOL    HW163099   5.454   4.131  13.300
87089SOL    HW263100   5.308   4.090  13.306
87090SOL     OW63101   1.827   0.167   3.221
87090SOL    HW163102   1.739   0.205   3.231
87090SOL    HW263103   1.844   0.124   3.305
87091SOL     OW63104  13.258   6.403   3.856
87091SOL    HW163105  13.169   6.402   3.891
87091SOL    HW263106  13.297   6.322   3.887
87092SOL     OW63107  12.187   1.904   3.171
87092SOL    HW163108  12.165   1.833   3.231
87092SOL    HW263109  12.105   1.953   3.162
87093SOL     OW63110   8.310  14.631  12.741
87093SOL    HW163111   8.368  14.609  12.668
87093SOL    HW263112   8.222  14.616  12.705
87094SOL     OW63113   9.725   0.113   8.647
87094SOL    HW163114   9.684   0.033   8.679
87094SOL    HW263115   9.688   0.182   8.701
87095SOL     OW63116   3.811   2.777  14.291
87095SOL    HW163117   3.834   2.689  14.322
87095SOL    HW263118   3.859   2.787  14.209
87096SOL     OW63119   2.603   4.029  12.664
87096SOL    HW163120   2.671   4.074  12.715
87096SOL    HW263121   2.650   3.959  12.619
87097SOL     OW63122   1.230   8.061   4.389
87097SOL    HW163123   1.144   8.103   4.392
87097SOL    HW263124   1.276   8.094   4.467
87098SOL     OW63125   8.597   5.482   3.131
87098SOL    HW163126   8.522   5.541   3.141
87098SOL    HW263127   8.605   5.472   3.036
87099SOL     OW63128   8.942   0.556   7.359
87099SOL    HW163129   8.866   0.593   7.314
87099SOL    HW263130   9.014   0.565   7.297
87100SOL     OW63131   5.708   5.188  13.747
87100SOL    HW163132   5.742   5.104  13.778
87100SOL    HW263133   5.758   5.253  13.795
87101SOL     OW63134   4.356   1.288   4.561
87101SOL    HW163135   4.447   1.316   4.571
87101SOL    HW263136   4.362   1.205   4.514
87102SOL     OW63137   9.177   1.191   5.373
87102SOL    HW163138   9.164   1.120   5.435
87102SOL    HW263139   9.230   1.256   5.421
87103SOL     OW63140   2.605   2.874  12.984
87103SOL    HW163141   2.590   2.968  12.972
87103SOL    HW263142   2.687   2.869  13.032
87104SOL     OW63143  12.506   2.527  13.638
87104SOL    HW163144  12.516   2.487  13.551
87104SOL    HW263145  12.469   2.458  13.692
87105SOL     OW63146   5.824   1.830   8.425
87105SOL    HW163147   5.891   1.865   8.366
87105SOL    HW263148   5.811   1.740   8.397
87106SOL     OW63149  10.449   0.886   2.288
87106SOL    HW163150  10.457   0.977   2.318
87106SOL    HW263151  10.358   0.878   2.260
87107SOL     OW63152  14.015   7.147   9.557
87107SOL    HW163153  14.020   7.175   9.466
87107SOL    HW263154  14.105   7.144   9.587
87108SOL     OW63155   8.907   4.406  10.128
87108SOL    HW163156   8.819   4.427  10.097
87108SOL    HW263157   8.916   4.455  10.210
87109SOL     OW63158   5.616  13.285   5.372
87109SOL    HW163159   5.636  13.291   5.278
87109SOL    HW263160   5.538  13.340   5.383
87110SOL     OW63161   1.327   1.207   4.600
87110SOL    HW163162   1.236   1.215   4.628
87110SOL    HW263163   1.372   1.169   4.675
87111SOL     OW63164   5.374   9.271   2.808
87111SOL    HW163165   5.452   9.323   2.786
87111SOL    HW263166   5.408   9.194   2.853
87112SOL     OW63167   8.095   4.837  10.298
87112SOL    HW163168   8.064   4.746  10.302
87112SOL    HW263169   8.191   4.830  10.300
87113SOL     OW63170   8.952   7.646   5.088
87113SOL    HW163171   9.003   7.701   5.148
87113SOL    HW263172   8.861   7.666   5.108
87114SOL     OW63173   0.349  12.020  13.533
87114SOL    HW163174   0.425  12.041  13.479
87114SOL    HW263175   0.330  12.100  13.581
87115SOL     OW63176  14.321  10.580   8.830
87115SOL    HW163177  14.395  10.537   8.788
87115SOL    HW263178  14.297  10.651   8.771
87116SOL     OW63179   7.458   6.278   7.922
87116SOL    HW163180   7.386   6.324   7.879
87116SOL    HW263181   7.535   6.333   7.906
87117SOL     OW63182   6.501   1.566   9.110
87117SOL    HW163183   6.489   1.657   9.084
87117SOL    HW263184   6.510   1.518   9.028
87118SOL     OW63185   7.322  12.908   5.862
87118SOL    HW163186   7.276  12.903   5.946
87118SOL    HW263187   7.262  12.868   5.799
87119SOL     OW63188   4.248  10.563   7.018
87119SOL    HW163189   4.210  10.650   7.028
87119SOL    HW263190   4.307  10.571   6.942
87120SOL     OW63191  13.673   1.407   8.916
87120SOL    HW163192  13.586   1.414   8.953
87120SOL    HW263193  13.672   1.325   8.866
87121SOL     OW63194   9.019   7.708  13.370
87121SOL    HW163195   9.014   7.801  13.394
87121SOL    HW263196   9.109   7.696  13.339
87122SOL     OW63197   0.498   4.157   4.998
87122SOL    HW163198   0.496   4.247   5.030
87122SOL    HW263199   0.420   4.117   5.034
87123SOL     OW63200  12.647   8.815   7.591
87123SOL    HW163201  12.713   8.883   7.578
87123SOL    HW263202  12.690   8.735   7.560
87124SOL     OW63203   0.044  14.271  11.671
87124SOL    HW163204   0.132  14.304  11.687
87124SOL    HW263205   0.023  14.219  11.748
87125SOL     OW63206   1.803   2.917   5.707
87125SOL    HW163207   1.864   2.884   5.773
87125SOL    HW263208   1.800   2.848   5.641
87126SOL     OW63209   1.803  11.011   4.313
87126SOL    HW163210   1.767  11.054   4.390
87126SOL    HW263211   1.792  11.075   4.242
87127SOL     OW63212  12.552  11.527   4.646
87127SOL    HW163213  12.530  11.554   4.735
87127SOL    HW263214  12.618  11.459   4.657
87128SOL     OW63215   6.416  12.189  14.696
87128SOL    HW163216   6.364  12.247  14.753
87128SOL    HW263217   6.497  12.175  14.744
87129SOL     OW63218   0.075   3.358   5.435
87129SOL    HW163219   0.032   3.307   5.503
87129SOL    HW263220   0.167   3.334   5.441
87130SOL     OW63221  10.907   8.623  10.589
87130SOL    HW163222  10.826   8.665  10.561
87130SOL    HW263223  10.930   8.565  10.517
87131SOL     OW63224   2.754   9.831  14.714
87131SOL    HW163225   2.805   9.866  14.788
87131SOL    HW263226   2.812   9.839  14.639
87132SOL     OW63227   9.064   7.640   6.824
87132SOL    HW163228   8.979   7.665   6.789
87132SOL    HW263229   9.045   7.574   6.890
87133SOL     OW63230   4.590   7.053   3.653
87133SOL    HW163231   4.647   6.981   3.680
87133SOL    HW263232   4.650   7.127   3.642
87134SOL     OW63233  13.431   7.594   7.338
87134SOL    HW163234  13.436   7.519   7.279
87134SOL    HW263235  13.471   7.666   7.288
87135SOL     OW63236   8.480   7.304   4.994
87135SOL    HW163237   8.572   7.298   4.969
87135SOL    HW263238   8.471   7.245   5.068
87136SOL     OW63239   2.696   1.707   7.609
87136SOL    HW163240   2.746   1.638   7.565
87136SOL    HW263241   2.612   1.667   7.630
87137SOL     OW63242   6.908  12.551   9.785
87137SOL    HW163243   6.993  12.560   9.743
87137SOL    HW263244   6.886  12.458   9.775
87138SOL     OW63245   7.504   3.591   3.824
87138SOL    HW163246   7.410   3.582   3.841
87138SOL    HW263247   7.540   3.506   3.848
87139SOL     OW63248   4.666   9.733   6.190
87139SOL    HW163249   4.626   9.647   6.203
87139SOL    HW263250   4.712   9.726   6.107
87140SOL     OW63251   9.469   8.310   4.148
87140SOL    HW163252   9.442   8.255   4.222
87140SOL    HW263253   9.413   8.386   4.152
87141SOL     OW63254  14.760   3.433  12.408
87141SOL    HW163255  14.789   3.430  12.499
87141SOL    HW263256  14.838   3.460  12.359
87142SOL     OW63257   1.138   8.445   8.970
87142SOL    HW163258   1.203   8.510   8.945
87142SOL    HW263259   1.171   8.363   8.933
87143SOL     OW63260  14.612  10.177   3.114
87143SOL    HW163261  14.656  10.224   3.185
87143SOL    HW263262  14.600  10.088   3.149
87144SOL     OW63263  14.727   7.612   4.782
87144SOL    HW163264  14.654   7.604   4.720
87144SOL    HW263265  14.773   7.528   4.775
87145SOL     OW63266  12.578   2.120   5.008
87145SOL    HW163267  12.615   2.204   4.982
87145SOL    HW263268  12.653   2.064   5.023
87146SOL     OW63269   5.858  10.457  11.586
87146SOL    HW163270   5.810  10.457  11.669
87146SOL    HW263271   5.948  10.433  11.610
87147SOL     OW63272  12.923   7.907   8.004
87147SOL    HW163273  12.940   7.816   8.027
87147SOL    HW263274  12.880   7.944   8.082
87148SOL     OW63275   3.915   2.924   6.404
87148SOL    HW163276   4.002   2.963   6.408
87148SOL    HW263277   3.865   2.969   6.473
87149SOL     OW63278   0.497   8.043  10.915
87149SOL    HW163279   0.578   8.053  10.964
87149SOL    HW263280   0.455   7.966  10.954
87150SOL     OW63281  10.257   9.573   3.991
87150SOL    HW163282  10.324   9.581   4.059
87150SOL    HW263283  10.190   9.637   4.015
87151SOL     OW63284   3.164   3.411   5.149
87151SOL    HW163285   3.100   3.342   5.165
87151SOL    HW263286   3.171   3.415   5.053
87152SOL     OW63287   1.178   0.337   8.012
87152SOL    HW163288   1.167   0.383   7.929
87152SOL    HW263289   1.185   0.244   7.988
87153SOL     OW63290   4.277  11.991   2.099
87153SOL    HW163291   4.357  11.964   2.144
87153SOL    HW263292   4.210  11.929   2.129
87154SOL     OW63293  11.510   9.636  10.693
87154SOL    HW163294  11.483   9.644  10.785
87154SOL    HW263295  11.473   9.552  10.665
87155SOL     OW63296  10.457   8.916  13.554
87155SOL    HW163297  10.471   8.834  13.602
87155SOL    HW263298  10.470   8.893  13.462
87156SOL     OW63299   6.933  14.737   1.140
87156SOL    HW163300   6.905  14.649   1.167
87156SOL    HW263301   6.857  14.773   1.094
87157SOL     OW63302   9.210   2.001  13.959
87157SOL    HW163303   9.197   1.951  14.040
87157SOL    HW263304   9.305   2.003  13.947
87158SOL     OW63305  10.343  11.237  13.438
87158SOL    HW163306  10.274  11.304  13.436
87158SOL    HW263307  10.398  11.262  13.513
87159SOL     OW63308   7.858   5.232   0.037
87159SOL    HW163309   7.930   5.250  14.853
87159SOL    HW263310   7.898   5.186   0.111
87160SOL     OW63311  14.604   6.752  11.577
87160SOL    HW163312  14.564   6.732  11.662
87160SOL    HW263313  14.566   6.689  11.517
87161SOL     OW63314   8.242   1.809   8.767
87161SOL    HW163315   8.147   1.811   8.756
87161SOL    HW263316   8.256   1.757   8.847
87162SOL     OW63317   4.702   4.228  14.295
87162SOL    HW163318   4.706   4.165  14.222
87162SOL    HW263319   4.707   4.174  14.374
87163SOL     OW63320  11.475  10.398   1.814
87163SOL    HW163321  11.524  10.391   1.896
87163SOL    HW263322  11.397  10.448   1.836
87164SOL     OW63323   2.366   1.186  13.312
87164SOL    HW163324   2.376   1.281  13.323
87164SOL    HW263325   2.335   1.156  13.398
87165SOL     OW63326   0.867   6.553   5.031
87165SOL    HW163327   0.911   6.599   5.102
87165SOL    HW263328   0.874   6.460   5.055
87166SOL     OW63329   5.420   6.663   8.792
87166SOL    HW163330   5.358   6.722   8.750
87166SOL    HW263331   5.493   6.658   8.731
87167SOL     OW63332   5.238   3.110  11.209
87167SOL    HW163333   5.274   3.135  11.294
87167SOL    HW263334   5.286   3.164  11.146
87168SOL     OW63335  12.205  12.514   5.711
87168SOL    HW163336  12.190  12.513   5.616
87168SOL    HW263337  12.224  12.606   5.731
87169SOL     OW63338   6.345  12.462   7.448
87169SOL    HW163339   6.282  12.471   7.376
87169SOL    HW263340   6.292  12.438   7.524
87170SOL     OW63341   7.391  11.952   8.385
87170SOL    HW163342   7.342  11.897   8.447
87170SOL    HW263343   7.429  12.021   8.440
87171SOL     OW63344  12.401  14.516  11.069
87171SOL    HW163345  12.482  14.535  11.117
87171SOL    HW263346  12.414  14.428  11.034
87172SOL     OW63347   3.096  10.311   9.050
87172SOL    HW163348   3.147  10.391   9.064
87172SOL    HW263349   3.025  10.317   9.114
87173SOL     OW63350   5.004   8.561  11.347
87173SOL    HW163351   5.015   8.566  11.252
87173SOL    HW263352   5.073   8.501  11.376
87174SOL     OW63353   0.197   6.777  14.755
87174SOL    HW163354   0.189   6.726  14.835
87174SOL    HW263355   0.281   6.821  14.761
87175SOL     OW63356   3.547   1.395   8.296
87175SOL    HW163357   3.521   1.483   8.268
87175SOL    HW263358   3.564   1.403   8.390
87176SOL     OW63359   6.201   1.543   4.614
87176SOL    HW163360   6.133   1.544   4.547
87176SOL    HW263361   6.218   1.635   4.632
87177SOL     OW63362  11.863  12.588  10.109
87177SOL    HW163363  11.774  12.557  10.093
87177SOL    HW263364  11.884  12.557  10.197
87178SOL     OW63365   7.478   2.048  12.284
87178SOL    HW163366   7.490   2.019  12.194
87178SOL    HW263367   7.545   2.115  12.297
87179SOL     OW63368   3.741   7.014   9.458
87179SOL    HW163369   3.708   6.950   9.395
87179SOL    HW263370   3.836   7.013   9.446
87180SOL     OW63371  12.902   1.213   9.031
87180SOL    HW163372  12.880   1.279   8.965
87180SOL    HW263373  12.922   1.263   9.110
87181SOL     OW63374  12.387  14.312   9.525
87181SOL    HW163375  12.430  14.395   9.503
87181SOL    HW263376  12.318  14.337   9.587
87182SOL     OW63377  11.300   1.900   7.422
87182SOL    HW163378  11.296   1.813   7.382
87182SOL    HW263379  11.212   1.936   7.411
87183SOL     OW63380   6.001   6.196  12.418
87183SOL    HW163381   6.092   6.180  12.391
87183SOL    HW263382   5.987   6.289  12.399
87184SOL     OW63383   9.984  13.675  12.070
87184SOL    HW163384   9.993  13.588  12.110
87184SOL    HW263385   9.980  13.658  11.976
87185SOL     OW63386   5.878  10.803  11.680
87185SOL    HW163387   5.940  10.806  11.607
87185SOL    HW263388   5.906  10.727  11.732
87186SOL     OW63389   8.879  11.673   4.313
87186SOL    HW163390   8.885  11.642   4.403
87186SOL    HW263391   8.793  11.645   4.283
87187SOL     OW63392   6.510   6.400  10.753
87187SOL    HW163393   6.478   6.324  10.704
87187SOL    HW263394   6.556   6.453  10.688
87188SOL     OW63395  11.066   0.208   2.981
87188SOL    HW163396  11.117   0.237   3.057
87188SOL    HW263397  11.096   0.118   2.965
87189SOL     OW63398  14.797   8.189   0.302
87189SOL    HW163399  14.709   8.193   0.338
87189SOL    HW263400  14.799   8.254   0.233
87190SOL     OW63401   6.525   0.288   9.357
87190SOL    HW163402   6.532   0.384   9.363
87190SOL    HW263403   6.556   0.256   9.442
87191SOL     OW63404   3.542   0.649   6.645
87191SOL    HW163405   3.568   0.557   6.635
87191SOL    HW263406   3.453   0.645   6.681
87192SOL     OW63407   8.531   6.745   7.896
87192SOL    HW163408   8.610   6.792   7.870
87192SOL    HW263409   8.509   6.781   7.982
87193SOL     OW63410  10.231  13.126  10.893
87193SOL    HW163411  10.245  13.216  10.865
87193SOL    HW263412  10.261  13.125  10.984
87194SOL     OW63413   8.837   2.576   6.378
87194SOL    HW163414   8.757   2.546   6.334
87194SOL    HW263415   8.836   2.531   6.463
87195SOL     OW63416   9.881   6.324   6.268
87195SOL    HW163417   9.852   6.379   6.340
87195SOL    HW263418   9.803   6.277   6.239
87196SOL     OW63419   1.273   4.900   4.205
87196SOL    HW163420   1.224   4.847   4.142
87196SOL    HW263421   1.308   4.973   4.153
87197SOL     OW63422  12.324   9.356  13.150
87197SOL    HW163423  12.296   9.411  13.223
87197SOL    HW263424  12.301   9.406  13.072
87198SOL     OW63425   7.190   6.111   3.038
87198SOL    HW163426   7.170   6.072   2.953
87198SOL    HW263427   7.270   6.067   3.066
87199SOL     OW63428   5.896  12.968  11.235
87199SOL    HW163429   5.866  12.878  11.245
87199SOL    HW263430   5.985  12.960  11.200
87200SOL     OW63431   4.854  14.629  13.090
87200SOL    HW163432   4.816  14.628  13.002
87200SOL    HW263433   4.940  14.670  13.079
87201SOL     OW63434   6.612   1.394   7.647
87201SOL    HW163435   6.697   1.432   7.624
87201SOL    HW263436   6.572   1.373   7.562
87202SOL     OW63437   7.924  13.471  11.178
87202SOL    HW163438   7.846  13.442  11.131
87202SOL    HW263439   7.893  13.489  11.267
87203SOL     OW63440   4.999  12.890  10.286
87203SOL    HW163441   5.085  12.883  10.246
87203SOL    HW263442   4.964  12.973  10.254
87204SOL     OW63443   0.296   9.840  11.601
87204SOL    HW163444   0.343   9.774  11.653
87204SOL    HW263445   0.292   9.802  11.513
87205SOL     OW63446  10.307  13.656  11.398
87205SOL    HW163447  10.290  13.711  11.475
87205SOL    HW263448  10.246  13.688  11.332
87206SOL     OW63449  14.254   2.097  14.400
87206SOL    HW163450  14.189   2.049  14.451
87206SOL    HW263451  14.248   2.060  14.312
87207SOL     OW63452   8.066   0.283   1.436
87207SOL    HW163453   8.097   0.226   1.366
87207SOL    HW263454   8.002   0.341   1.394
87208SOL     OW63455   0.056   9.954   3.409
87208SOL    HW163456   0.073   9.918   3.322
87208SOL    HW263457   0.072   9.880   3.468
87209SOL     OW63458   2.655   9.776   7.454
87209SOL    HW163459   2.569   9.753   7.490
87209SOL    HW263460   2.671   9.865   7.484
87210SOL     OW63461   4.416   8.752   1.975
87210SOL    HW163462   4.396   8.708   1.892
87210SOL    HW263463   4.477   8.693   2.019
87211SOL     OW63464  10.733  12.383   2.357
87211SOL    HW163465  10.760  12.293   2.338
87211SOL    HW263466  10.806  12.421   2.406
87212SOL     OW63467  14.771   7.839  12.619
87212SOL    HW163468  14.683   7.812  12.592
87212SOL    HW263469  14.827   7.813  12.546
87213SOL     OW63470   8.337   4.605  14.558
87213SOL    HW163471   8.426   4.591  14.527
87213SOL    HW263472   8.324   4.538  14.626
87214SOL     OW63473   8.356  11.444  12.287
87214SOL    HW163474   8.270  11.461  12.325
87214SOL    HW263475   8.347  11.470  12.195
87215SOL     OW63476   2.798   3.477   1.665
87215SOL    HW163477   2.819   3.472   1.572
87215SOL    HW263478   2.702   3.481   1.668
87216SOL     OW63479  11.675   3.017   2.872
87216SOL    HW163480  11.684   3.094   2.928
87216SOL    HW263481  11.595   3.034   2.821
87217SOL     OW63482   6.553   1.551   3.121
87217SOL    HW163483   6.549   1.491   3.047
87217SOL    HW263484   6.554   1.638   3.081
87218SOL     OW63485   7.347  11.629   7.284
87218SOL    HW163486   7.357  11.543   7.325
87218SOL    HW263487   7.261  11.626   7.243
87219SOL     OW63488   5.873   1.915   6.226
87219SOL    HW163489   5.863   1.840   6.168
87219SOL    HW263490   5.932   1.974   6.179
87220SOL     OW63491  12.529   5.845  14.499
87220SOL    HW163492  12.597   5.825  14.436
87220SOL    HW263493  12.542   5.783  14.570
87221SOL     OW63494   4.372   5.305   8.525
87221SOL    HW163495   4.344   5.393   8.503
87221SOL    HW263496   4.293   5.252   8.521
87222SOL     OW63497  13.854   1.836   4.265
87222SOL    HW163498  13.776   1.886   4.288
87222SOL    HW263499  13.824   1.775   4.197
87223SOL     OW63500   1.958   4.658  10.063
87223SOL    HW163501   2.044   4.649  10.103
87223SOL    HW263502   1.936   4.570  10.033
87224SOL     OW63503   6.713   3.469   3.852
87224SOL    HW163504   6.625   3.508   3.851
87224SOL    HW263505   6.698   3.378   3.823
87225SOL     OW63506   0.382  14.582   1.584
87225SOL    HW163507   0.407  14.515   1.647
87225SOL    HW263508   0.330  14.536   1.518
87226SOL     OW63509   2.093   6.501   9.540
87226SOL    HW163510   2.160   6.556   9.582
87226SOL    HW263511   2.054   6.556   9.473
87227SOL     OW63512   5.640   5.378   0.236
87227SOL    HW163513   5.552   5.396   0.203
87227SOL    HW263514   5.693   5.452   0.204
87228SOL     OW63515  14.750  14.570   5.618
87228SOL    HW163516  14.661  14.537   5.632
87228SOL    HW263517  14.788  14.574   5.706
87229SOL     OW63518   6.888  10.242   8.116
87229SOL    HW163519   6.931  10.281   8.040
87229SOL    HW263520   6.955  10.246   8.186
87230SOL     OW63521  12.410   5.881   3.574
87230SOL    HW163522  12.334   5.863   3.630
87230SOL    HW263523  12.450   5.959   3.611
87231SOL     OW63524   9.709   8.769  13.613
87231SOL    HW163525   9.788   8.766  13.559
87231SOL    HW263526   9.644   8.811  13.557
87232SOL     OW63527  12.730  14.443   6.817
87232SOL    HW163528  12.748  14.356   6.783
87232SOL    HW263529  12.673  14.428   6.893
87233SOL     OW63530  11.183  13.344   3.061
87233SOL    HW163531  11.099  13.365   3.103
87233SOL    HW263532  11.191  13.408   2.990
87234SOL     OW63533  13.104   7.131  13.608
87234SOL    HW163534  13.051   7.052  13.615
87234SOL    HW263535  13.184   7.111  13.656
87235SOL     OW63536   6.826   8.629  13.523
87235SOL    HW163537   6.871   8.673  13.450
87235SOL    HW263538   6.892   8.625  13.593
87236SOL     OW63539   0.999   6.124   3.504
87236SOL    HW163540   0.924   6.105   3.561
87236SOL    HW263541   1.075   6.097   3.556
87237SOL     OW63542  13.936  13.914   3.769
87237SOL    HW163543  13.935  13.836   3.712
87237SOL    HW263544  14.017  13.959   3.746
87238SOL     OW63545   3.390  12.678   2.427
87238SOL    HW163546   3.439  12.601   2.455
87238SOL    HW263547   3.316  12.683   2.489
87239SOL     OW63548   6.101   1.588  11.708
87239SOL    HW163549   6.120   1.534  11.631
87239SOL    HW263550   6.186   1.600  11.751
87240SOL     OW63551   6.047   3.888  13.586
87240SOL    HW163552   5.968   3.901  13.533
87240SOL    HW263553   6.024   3.819  13.647
87241SOL     OW63554   1.125  13.586   5.145
87241SOL    HW163555   1.117  13.542   5.061
87241SOL    HW263556   1.035  13.596   5.176
87242SOL     OW63557   5.067   4.670  13.164
87242SOL    HW163558   5.104   4.642  13.080
87242SOL    HW263559   5.140   4.710  13.210
87243SOL     OW63560   2.518   8.004   7.455
87243SOL    HW163561   2.456   7.937   7.484
87243SOL    HW263562   2.478   8.087   7.481
87244SOL     OW63563   8.729   0.570  13.308
87244SOL    HW163564   8.739   0.492  13.363
87244SOL    HW263565   8.715   0.535  13.220
87245SOL     OW63566   6.318   9.743  12.310
87245SOL    HW163567   6.379   9.816  12.320
87245SOL    HW263568   6.248   9.762  12.372
87246SOL     OW63569   7.048   4.445   8.630
87246SOL    HW163570   7.019   4.423   8.541
87246SOL    HW263571   7.085   4.364   8.664
87247SOL     OW63572   8.180   4.758   3.261
87247SOL    HW163573   8.223   4.842   3.278
87247SOL    HW263574   8.103   4.759   3.318
87248SOL     OW63575   7.897  10.384   5.430
87248SOL    HW163576   7.823  10.403   5.487
87248SOL    HW263577   7.974  10.388   5.488
87249SOL     OW63578   1.497  12.307   1.748
87249SOL    HW163579   1.499  12.334   1.840
87249SOL    HW263580   1.512  12.213   1.751
87250SOL     OW63581   8.115   6.509   8.383
87250SOL    HW163582   8.084   6.436   8.331
87250SOL    HW263583   8.036   6.543   8.426
87251SOL     OW63584   6.919   0.333   5.461
87251SOL    HW163585   6.870   0.252   5.446
87251SOL    HW263586   6.916   0.379   5.377
87252SOL     OW63587   6.250  11.259  11.866
87252SOL    HW163588   6.213  11.175  11.895
87252SOL    HW263589   6.243  11.256  11.771
87253SOL     OW63590   3.980   2.054   9.190
87253SOL    HW163591   3.894   2.093   9.174
87253SOL    HW263592   4.010   2.026   9.104
87254SOL     OW63593   3.733  10.076   2.226
87254SOL    HW163594   3.747  10.015   2.154
87254SOL    HW263595   3.810  10.066   2.282
87255SOL     OW63596   6.322  10.643  10.688
87255SOL    HW163597   6.264  10.716  10.710
87255SOL    HW263598   6.364  10.620  10.771
87256SOL     OW63599   4.171   9.967   6.062
87256SOL    HW163600   4.226   9.974   6.139
87256SOL    HW263601   4.100   9.908   6.089
87257SOL     OW63602   3.196   7.168   1.556
87257SOL    HW163603   3.107   7.134   1.553
87257SOL    HW263604   3.217   7.173   1.649
87258SOL     OW63605   7.228   1.424   6.461
87258SOL    HW163606   7.285   1.423   6.384
87258SOL    HW263607   7.194   1.335   6.466
87259SOL     OW63608   3.291  10.910   8.282
87259SOL    HW163609   3.208  10.929   8.239
87259SOL    HW263610   3.357  10.954   8.228
87260SOL     OW63611   8.063  13.616  12.004
87260SOL    HW163612   8.050  13.596  12.097
87260SOL    HW263613   7.980  13.656  11.977
87261SOL     OW63614   1.722   2.923  10.817
87261SOL    HW163615   1.782   2.992  10.847
87261SOL    HW263616   1.780   2.849  10.797
87262SOL     OW63617   1.492   5.465  10.236
87262SOL    HW163618   1.584   5.492  10.235
87262SOL    HW263619   1.493   5.375  10.202
87263SOL     OW63620   1.819   0.895   9.803
87263SOL    HW163621   1.806   0.811   9.757
87263SOL    HW263622   1.731   0.923   9.827
87264SOL     OW63623   9.701  13.537   5.644
87264SOL    HW163624   9.749  13.613   5.677
87264SOL    HW263625   9.751  13.508   5.568
87265SOL     OW63626   2.405   1.396   7.931
87265SOL    HW163627   2.397   1.468   7.994
87265SOL    HW263628   2.404   1.439   7.846
87266SOL     OW63629   5.687  13.506   7.181
87266SOL    HW163630   5.634  13.513   7.102
87266SOL    HW263631   5.664  13.421   7.218
87267SOL     OW63632   9.971  12.987   5.878
87267SOL    HW163633   9.972  13.037   5.797
87267SOL    HW263634   9.891  12.934   5.873
87268SOL     OW63635  14.196   3.708  13.539
87268SOL    HW163636  14.197   3.625  13.491
87268SOL    HW263637  14.190   3.775  13.470
87269SOL     OW63638   2.657   0.862   2.058
87269SOL    HW163639   2.723   0.887   2.122
87269SOL    HW263640   2.580   0.914   2.082
87270SOL     OW63641   0.274  12.694   1.948
87270SOL    HW163642   0.257  12.743   1.868
87270SOL    HW263643   0.369  12.701   1.960
87271SOL     OW63644   1.280   4.929  10.271
87271SOL    HW163645   1.267   4.871  10.346
87271SOL    HW263646   1.339   4.997  10.303
87272SOL     OW63647  12.001   4.629   3.705
87272SOL    HW163648  11.986   4.675   3.622
87272SOL    HW263649  11.942   4.553   3.701
87273SOL     OW63650   9.554  13.891   9.637
87273SOL    HW163651   9.498  13.846   9.574
87273SOL    HW263652   9.613  13.824   9.670
87274SOL     OW63653   2.360   0.517  10.365
87274SOL    HW163654   2.441   0.520  10.416
87274SOL    HW263655   2.309   0.447  10.405
87275SOL     OW63656   0.284   6.468  11.591
87275SOL    HW163657   0.354   6.415  11.629
87275SOL    HW263658   0.327   6.549  11.564
87276SOL     OW63659   7.421   1.804  11.319
87276SOL    HW163660   7.345   1.789  11.375
87276SOL    HW263661   7.483   1.736  11.345
87277SOL     OW63662   7.791  11.871   8.590
87277SOL    HW163663   7.782  11.784   8.550
87277SOL    HW263664   7.814  11.853   8.681
87278SOL     OW63665   4.502  11.244   0.721
87278SOL    HW163666   4.505  11.188   0.643
87278SOL    HW263667   4.489  11.332   0.686
87279SOL     OW63668   7.256   2.890   1.570
87279SOL    HW163669   7.177   2.863   1.617
87279SOL    HW263670   7.233   2.974   1.531
87280SOL     OW63671   0.607  10.681   5.167
87280SOL    HW163672   0.589  10.601   5.216
87280SOL    HW263673   0.547  10.746   5.205
87281SOL     OW63674   3.688  11.027   7.288
87281SOL    HW163675   3.696  11.081   7.209
87281SOL    HW263676   3.739  11.074   7.354
87282SOL     OW63677  13.959  12.434   0.187
87282SOL    HW163678  14.043  12.388   0.195
87282SOL    HW263679  13.910  12.407   0.265
87283SOL     OW63680   4.914   7.792   3.611
87283SOL    HW163681   4.986   7.749   3.563
87283SOL    HW263682   4.918   7.755   3.699
87284SOL     OW63683  13.051  11.444  12.998
87284SOL    HW163684  13.123  11.431  13.060
87284SOL    HW263685  13.092  11.442  12.912
87285SOL     OW63686   1.272   5.641   7.088
87285SOL    HW163687   1.334   5.703   7.129
87285SOL    HW263688   1.203   5.697   7.053
87286SOL     OW63689   7.769   5.339   3.971
87286SOL    HW163690   7.750   5.383   4.054
87286SOL    HW263691   7.692   5.284   3.955
87287SOL     OW63692   1.065   8.960   1.689
87287SOL    HW163693   1.161   8.964   1.692
87287SOL    HW263694   1.041   8.920   1.773
87288SOL     OW63695   1.962   8.622   7.850
87288SOL    HW163696   1.896   8.584   7.908
87288SOL    HW263697   1.916   8.641   7.769
87289SOL     OW63698   0.102  14.831   5.484
87289SOL    HW163699   0.172  14.838   5.419
87289SOL    HW263700   0.143  14.786   5.559
87290SOL     OW63701   4.692  13.777   1.578
87290SOL    HW163702   4.621  13.733   1.530
87290SOL    HW263703   4.646  13.836   1.639
87291SOL     OW63704   3.720  10.040  12.039
87291SOL    HW163705   3.680  10.040  12.126
87291SOL    HW263706   3.681  10.115  11.995
87292SOL     OW63707   5.202   7.655   4.485
87292SOL    HW163708   5.219   7.683   4.395
87292SOL    HW263709   5.229   7.563   4.487
87293SOL     OW63710   3.783   8.223  11.705
87293SOL    HW163711   3.785   8.152  11.769
87293SOL    HW263712   3.793   8.302  11.757
87294SOL     OW63713  11.389  13.090   9.228
87294SOL    HW163714  11.410  13.139   9.148
87294SOL    HW263715  11.471  13.048   9.253
87295SOL     OW63716   9.060  10.455   3.713
87295SOL    HW163717   9.033  10.369   3.680
87295SOL    HW263718   9.002  10.471   3.788
87296SOL     OW63719  12.024  10.914  11.776
87296SOL    HW163720  12.063  10.937  11.692
87296SOL    HW263721  11.987  10.827  11.762
87297SOL     OW63722   9.361   1.723   2.735
87297SOL    HW163723   9.305   1.730   2.813
87297SOL    HW263724   9.326   1.648   2.687
87298SOL     OW63725   0.279   6.730   8.281
87298SOL    HW163726   0.200   6.720   8.333
87298SOL    HW263727   0.250   6.722   8.190
87299SOL     OW63728   1.082   4.336  13.613
87299SOL    HW163729   1.010   4.383  13.571
87299SOL    HW263730   1.134   4.302  13.540
87300SOL     OW63731  13.436  10.465   1.115
87300SOL    HW163732  13.492  10.429   1.047
87300SOL    HW263733  13.347  10.453   1.081
87301SOL     OW63734   1.899   4.994   5.821
87301SOL    HW163735   1.907   4.998   5.726
87301SOL    HW263736   1.990   4.985   5.852
87302SOL     OW63737   8.711   1.918   5.571
87302SOL    HW163738   8.666   1.964   5.500
87302SOL    HW263739   8.728   1.831   5.536
87303SOL     OW63740   0.212  10.660  10.047
87303SOL    HW163741   0.278  10.724  10.075
87303SOL    HW263742   0.168  10.702   9.973
87304SOL     OW63743   0.955  12.501   1.403
87304SOL    HW163744   1.021  12.434   1.385
87304SOL    HW263745   1.002  12.584   1.395
87305SOL     OW63746  11.557  14.556   2.659
87305SOL    HW163747  11.599  14.554   2.745
87305SOL    HW263748  11.482  14.615   2.671
87306SOL     OW63749  12.409  13.030   8.286
87306SOL    HW163750  12.344  13.095   8.259
87306SOL    HW263751  12.395  13.020   8.380
87307SOL     OW63752  14.834   5.438  10.234
87307SOL    HW163753  14.749   5.424  10.194
87307SOL    HW263754   0.015   5.372  10.194
87308SOL     OW63755   6.452   7.651   9.503
87308SOL    HW163756   6.494   7.605   9.576
87308SOL    HW263757   6.359   7.648   9.523
87309SOL     OW63758   5.011   6.832   1.238
87309SOL    HW163759   5.032   6.889   1.164
87309SOL    HW263760   4.917   6.816   1.231
87310SOL     OW63761  10.212   8.348  10.329
87310SOL    HW163762  10.277   8.307  10.385
87310SOL    HW263763  10.134   8.293  10.339
87311SOL     OW63764   2.189   3.155   8.497
87311SOL    HW163765   2.257   3.096   8.465
87311SOL    HW263766   2.120   3.096   8.530
87312SOL     OW63767  14.668   0.289   0.419
87312SOL    HW163768  14.677   0.373   0.374
87312SOL    HW263769  14.611   0.237   0.363
87313SOL     OW63770   4.676   6.863   9.844
87313SOL    HW163771   4.694   6.957   9.848
87313SOL    HW263772   4.762   6.822   9.851
87314SOL     OW63773   6.126   8.936   4.452
87314SOL    HW163774   6.183   8.866   4.420
87314SOL    HW263775   6.185   8.997   4.496
87315SOL     OW63776  14.687   5.614   8.454
87315SOL    HW163777  14.679   5.595   8.360
87315SOL    HW263778  14.596   5.616   8.485
87316SOL     OW63779   2.539  13.326  12.831
87316SOL    HW163780   2.633  13.339  12.841
87316SOL    HW263781   2.527  13.316  12.736
87317SOL     OW63782   4.347   8.572   1.750
87317SOL    HW163783   4.257   8.602   1.757
87317SOL    HW263784   4.378   8.608   1.667
87318SOL     OW63785   1.984   7.164  13.202
87318SOL    HW163786   2.039   7.144  13.278
87318SOL    HW263787   2.003   7.093  13.140
87319SOL     OW63788  12.792  12.474   9.060
87319SOL    HW163789  12.797  12.548   9.121
87319SOL    HW263790  12.730  12.503   8.993
87320SOL     OW63791   3.216   0.703   2.483
87320SOL    HW163792   3.178   0.751   2.410
87320SOL    HW263793   3.304   0.681   2.453
87321SOL     OW63794   2.828   3.592   2.573
87321SOL    HW163795   2.849   3.524   2.638
87321SOL    HW263796   2.863   3.673   2.611
87322SOL     OW63797  11.721   1.884   1.197
87322SOL    HW163798  11.792   1.825   1.173
87322SOL    HW263799  11.726   1.889   1.293
87323SOL     OW63800   7.409  12.652  14.122
87323SOL    HW163801   7.454  12.571  14.144
87323SOL    HW263802   7.351  12.669  14.196
87324SOL     OW63803   0.848   6.379  14.759
87324SOL    HW163804   0.835   6.285  14.766
87324SOL    HW263805   0.859   6.395  14.665
87325SOL     OW63806  11.071  11.728   1.660
87325SOL    HW163807  11.075  11.633   1.647
87325SOL    HW263808  11.157  11.751   1.697
87326SOL     OW63809   6.458  13.410  13.885
87326SOL    HW163810   6.498  13.327  13.911
87326SOL    HW263811   6.380  13.385  13.836
87327SOL     OW63812  10.023   8.798   5.049
87327SOL    HW163813  10.024   8.893   5.059
87327SOL    HW263814   9.949   8.780   4.992
87328SOL     OW63815   0.920   7.845   5.524
87328SOL    HW163816   0.996   7.817   5.472
87328SOL    HW263817   0.954   7.853   5.613
87329SOL     OW63818   6.958   7.591  12.293
87329SOL    HW163819   6.930   7.500  12.281
87329SOL    HW263820   6.878   7.642  12.286
87330SOL     OW63821   5.102   1.491   7.280
87330SOL    HW163822   5.096   1.581   7.247
87330SOL    HW263823   5.175   1.493   7.342
87331SOL     OW63824   0.570   4.326  13.478
87331SOL    HW163825   0.508   4.383  13.432
87331SOL    HW263826   0.573   4.246  13.425
87332SOL     OW63827   3.214   8.766   5.865
87332SOL    HW163828   3.269   8.843   5.847
87332SOL    HW263829   3.132   8.802   5.898
87333SOL     OW63830  13.212   1.774  14.544
87333SOL    HW163831  13.188   1.845  14.603
87333SOL    HW263832  13.289   1.733  14.585
87334SOL     OW63833   5.783  12.274   6.733
87334SOL    HW163834   5.837  12.340   6.689
87334SOL    HW263835   5.809  12.280   6.825
87335SOL     OW63836  11.817   8.171   8.229
87335SOL    HW163837  11.739   8.205   8.272
87335SOL    HW263838  11.842   8.094   8.280
87336SOL     OW63839  13.528   5.083  13.168
87336SOL    HW163840  13.436   5.069  13.189
87336SOL    HW263841  13.529   5.110  13.077
87337SOL     OW63842   7.986   1.603   9.630
87337SOL    HW163843   7.918   1.565   9.686
87337SOL    HW263844   8.067   1.561   9.658
87338SOL     OW63845   4.262  13.983  10.666
87338SOL    HW163846   4.204  14.060  10.665
87338SOL    HW263847   4.251  13.944  10.580
87339SOL     OW63848   3.808  10.606  11.780
87339SOL    HW163849   3.835  10.688  11.738
87339SOL    HW263850   3.852  10.537  11.731
87340SOL     OW63851  10.340  10.726  11.036
87340SOL    HW163852  10.309  10.780  11.109
87340SOL    HW263853  10.341  10.784  10.961
87341SOL     OW63854   0.425  11.172  11.197
87341SOL    HW163855   0.346  11.144  11.150
87341SOL    HW263856   0.447  11.256  11.157
87342SOL     OW63857  14.865   4.711   3.301
87342SOL    HW163858   0.011   4.783   3.360
87342SOL    HW263859  14.825   4.753   3.225
87343SOL     OW63860   3.771   0.793  13.964
87343SOL    HW163861   3.757   0.765  13.873
87343SOL    HW263862   3.865   0.779  13.979
87344SOL     OW63863   0.785   7.991  14.844
87344SOL    HW163864   0.853   7.970  14.779
87344SOL    HW263865   0.833   8.035   0.039
87345SOL     OW63866  10.431  12.818  14.550
87345SOL    HW163867  10.359  12.838  14.609
87345SOL    HW263868  10.389  12.802  14.465
87346SOL     OW63869   9.959   8.019  12.721
87346SOL    HW163870   9.982   7.957  12.790
87346SOL    HW263871  10.037   8.072  12.709
87347SOL     OW63872  10.439   2.480  13.575
87347SOL    HW163873  10.488   2.458  13.495
87347SOL    HW263874  10.504   2.473  13.645
87348SOL     OW63875   1.823   3.067   3.751
87348SOL    HW163876   1.751   3.028   3.702
87348SOL    HW263877   1.898   3.062   3.692
87349SOL     OW63878   3.886   1.599   1.278
87349SOL    HW163879   3.937   1.519   1.275
87349SOL    HW263880   3.935   1.658   1.335
87350SOL     OW63881  12.034   6.955   8.196
87350SOL    HW163882  11.980   6.878   8.215
87350SOL    HW263883  12.123   6.927   8.214
87351SOL     OW63884  10.597  12.847  12.103
87351SOL    HW163885  10.585  12.880  12.192
87351SOL    HW263886  10.666  12.903  12.066
87352SOL     OW63887  12.517  10.859   9.435
87352SOL    HW163888  12.545  10.781   9.388
87352SOL    HW263889  12.494  10.828   9.523
87353SOL     OW63890   7.019   9.690   5.351
87353SOL    HW163891   7.036   9.596   5.343
87353SOL    HW263892   6.964   9.699   5.428
87354SOL     OW63893   8.192   2.844   3.957
87354SOL    HW163894   8.180   2.923   3.904
87354SOL    HW263895   8.116   2.843   4.015
87355SOL     OW63896   6.479  12.120   3.988
87355SOL    HW163897   6.490  12.179   4.062
87355SOL    HW263898   6.526  12.041   4.013
87356SOL     OW63899   2.386   4.555   6.179
87356SOL    HW163900   2.426   4.642   6.182
87356SOL    HW263901   2.302   4.569   6.134
87357SOL     OW63902   8.455  14.547  12.524
87357SOL    HW163903   8.544  14.551  12.488
87357SOL    HW263904   8.398  14.569  12.451
87358SOL     OW63905   8.269   9.137  13.307
87358SOL    HW163906   8.183   9.158  13.272
87358SOL    HW263907   8.260   9.145  13.401
87359SOL     OW63908  11.631  12.265   5.836
87359SOL    HW163909  11.575  12.279   5.760
87359SOL    HW263910  11.660  12.353   5.861
87360SOL     OW63911   9.047  11.322  10.251
87360SOL    HW163912   9.096  11.326  10.332
87360SOL    HW263913   9.052  11.230  10.225
87361SOL     OW63914   1.006   4.995   8.961
87361SOL    HW163915   1.005   4.997   9.057
87361SOL    HW263916   1.021   4.903   8.940
87362SOL     OW63917   7.054   6.716   4.494
87362SOL    HW163918   7.005   6.786   4.538
87362SOL    HW263919   7.004   6.637   4.513
87363SOL     OW63920  14.279   6.207   9.249
87363SOL    HW163921  14.206   6.268   9.239
87363SOL    HW263922  14.285   6.192   9.343
87364SOL     OW63923  10.592   4.951  14.143
87364SOL    HW163924  10.596   4.986  14.054
87364SOL    HW263925  10.679   4.969  14.179
87365SOL     OW63926   1.914   6.043  11.535
87365SOL    HW163927   1.996   5.993  11.528
87365SOL    HW263928   1.853   5.985  11.580
87366SOL     OW63929  11.016  12.230   7.787
87366SOL    HW163930  11.052  12.282   7.715
87366SOL    HW263931  10.943  12.182   7.748
87367SOL     OW63932  12.607   9.364  14.123
87367SOL    HW163933  12.564   9.401  14.046
87367SOL    HW263934  12.660   9.436  14.157
87368SOL     OW63935  12.109   3.211   5.466
87368SOL    HW163936  12.027   3.242   5.505
87368SOL    HW263937  12.174   3.276   5.491
87369SOL     OW63938  11.349   3.879   7.315
87369SOL    HW163939  11.315   3.816   7.378
87369SOL    HW263940  11.444   3.863   7.314
87370SOL     OW63941   2.396   9.233  14.526
87370SOL    HW163942   2.372   9.248  14.434
87370SOL    HW263943   2.335   9.287  14.576
87371SOL     OW63944   1.519   4.485  13.271
87371SOL    HW163945   1.448   4.515  13.215
87371SOL    HW263946   1.590   4.464  13.211
87372SOL     OW63947   0.372   0.537   3.210
87372SOL    HW163948   0.389   0.486   3.289
87372SOL    HW263949   0.371   0.473   3.140
87373SOL     OW63950  13.710  13.995   0.046
87373SOL    HW163951  13.632  14.051   0.042
87373SOL    HW263952  13.681  13.911   0.012
87374SOL     OW63953  11.950   9.451  11.254
87374SOL    HW163954  11.985   9.367  11.283
87374SOL    HW263955  12.010   9.479  11.184
87375SOL     OW63956   1.848   0.742   9.088
87375SOL    HW163957   1.928   0.734   9.140
87375SOL    HW263958   1.796   0.808   9.134
87376SOL     OW63959  12.060  12.796   3.511
87376SOL    HW163960  11.967  12.808   3.528
87376SOL    HW263961  12.104  12.853   3.575
87377SOL     OW63962   0.137  12.123   9.595
87377SOL    HW163963   0.044  12.142   9.585
87377SOL    HW263964   0.146  12.095   9.686
87378SOL     OW63965   2.750  14.291   8.959
87378SOL    HW163966   2.747  14.195   8.967
87378SOL    HW263967   2.681  14.322   9.018
87379SOL     OW63968   2.302   6.043   1.685
87379SOL    HW163969   2.268   6.131   1.702
87379SOL    HW263970   2.361   6.026   1.759
87380SOL     OW63971   2.341  14.623  13.117
87380SOL    HW163972   2.260  14.574  13.103
87380SOL    HW263973   2.359  14.612  13.211
87381SOL     OW63974   9.958   9.120   4.970
87381SOL    HW163975   9.892   9.051   4.961
87381SOL    HW263976   9.915   9.186   5.025
87382SOL     OW63977   2.702  11.983   9.493
87382SOL    HW163978   2.760  11.939   9.555
87382SOL    HW263979   2.706  12.075   9.518
87383SOL     OW63980   0.704   6.080  10.540
87383SOL    HW163981   0.619   6.077  10.497
87383SOL    HW263982   0.741   6.164  10.513
87384SOL     OW63983  10.665  14.526  10.250
87384SOL    HW163984  10.741  14.527  10.309
87384SOL    HW263985  10.702  14.502  10.164
87385SOL     OW63986   1.648   8.855   7.028
87385SOL    HW163987   1.679   8.942   7.005
87385SOL    HW263988   1.728   8.802   7.033
87386SOL     OW63989  14.131  10.641   1.372
87386SOL    HW163990  14.089  10.557   1.354
87386SOL    HW263991  14.097  10.667   1.458
87387SOL     OW63992   1.669  12.579   4.448
87387SOL    HW163993   1.728  12.538   4.384
87387SOL    HW263994   1.595  12.609   4.396
87388SOL     OW63995   8.758   5.290   2.092
87388SOL    HW163996   8.733   5.317   2.003
87388SOL    HW263997   8.850   5.267   2.085
87389SOL     OW63998   6.294   1.176   8.190
87389SOL    HW163999   6.301   1.268   8.218
87389SOL    HW264000   6.287   1.181   8.095
87390SOL     OW64001  14.316   7.863  12.624
87390SOL    HW164002  14.256   7.805  12.670
87390SOL    HW264003  14.263   7.939  12.601
87391SOL     OW64004   8.539   0.387  13.812
87391SOL    HW164005   8.456   0.413  13.773
87391SOL    HW264006   8.571   0.316  13.756
87392SOL     OW64007   3.220  10.553   2.801
87392SOL    HW164008   3.127  10.530   2.799
87392SOL    HW264009   3.251  10.521   2.886
87393SOL     OW64010   2.769  13.061   1.073
87393SOL    HW164011   2.734  13.027   1.155
87393SOL    HW264012   2.751  12.993   1.009
87394SOL     OW64013   8.782   0.122  12.742
87394SOL    HW164014   8.859   0.167  12.706
87394SOL    HW264015   8.708   0.156  12.691
87395SOL     OW64016   8.845   9.840  10.654
87395SOL    HW164017   8.875   9.919  10.608
87395SOL    HW264018   8.782   9.800  10.595
87396SOL     OW64019   2.486  11.162   5.722
87396SOL    HW164020   2.396  11.176   5.750
87396SOL    HW264021   2.531  11.129   5.800
87397SOL     OW64022  10.109   4.790   3.657
87397SOL    HW164023  10.089   4.745   3.575
87397SOL    HW264024  10.114   4.882   3.633
87398SOL     OW64025  13.161   8.579  11.586
87398SOL    HW164026  13.221   8.511  11.617
87398SOL    HW264027  13.141   8.554  11.496
87399SOL     OW64028  11.621   4.776   7.575
87399SOL    HW164029  11.647   4.760   7.484
87399SOL    HW264030  11.544   4.832   7.568
87400SOL     OW64031   3.257   0.239  10.650
87400SOL    HW164032   3.284   0.331  10.643
87400SOL    HW264033   3.307   0.205  10.725
87401SOL     OW64034  11.516   4.505   5.544
87401SOL    HW164035  11.547   4.430   5.594
87401SOL    HW264036  11.490   4.569   5.610
87402SOL     OW64037   5.679  13.107   6.058
87402SOL    HW164038   5.615  13.178   6.056
87402SOL    HW264039   5.763  13.150   6.075
87403SOL     OW64040   6.665  11.096   9.233
87403SOL    HW164041   6.598  11.090   9.301
87403SOL    HW264042   6.748  11.095   9.280
87404SOL     OW64043  11.195   0.014  14.437
87404SOL    HW164044  11.115  14.840  14.421
87404SOL    HW264045  11.205   0.069  14.359
87405SOL     OW64046  11.884   9.656  10.729
87405SOL    HW164047  11.841   9.574  10.709
87405SOL    HW264048  11.977   9.633  10.739
87406SOL     OW64049  10.933   6.848  14.348
87406SOL    HW164050  10.958   6.934  14.381
87406SOL    HW264051  10.937   6.856  14.253
87407SOL     OW64052   5.795   0.270   7.948
87407SOL    HW164053   5.754   0.347   7.987
87407SOL    HW264054   5.723   0.222   7.907
87408SOL     OW64055  13.034   6.037  12.230
87408SOL    HW164056  13.014   6.043  12.137
87408SOL    HW264057  13.007   6.122  12.266
87409SOL     OW64058   6.916   4.294   0.328
87409SOL    HW164059   6.959   4.208   0.326
87409SOL    HW264060   6.919   4.325   0.237
87410SOL     OW64061   2.644  13.941   7.432
87410SOL    HW164062   2.608  14.021   7.470
87410SOL    HW264063   2.638  13.876   7.502
87411SOL     OW64064   1.940  12.017   2.885
87411SOL    HW164065   1.865  11.966   2.855
87411SOL    HW264066   1.993  11.955   2.934
87412SOL     OW64067   9.622   5.706   0.124
87412SOL    HW164068   9.636   5.628   0.070
87412SOL    HW264069   9.687   5.698   0.194
87413SOL     OW64070   1.660   7.501   7.099
87413SOL    HW164071   1.673   7.407   7.107
87413SOL    HW264072   1.716   7.539   7.167
87414SOL     OW64073   3.464   5.333   9.468
87414SOL    HW164074   3.510   5.417   9.458
87414SOL    HW264075   3.415   5.342   9.549
87415SOL     OW64076   1.337   8.839  14.618
87415SOL    HW164077   1.337   8.935  14.616
87415SOL    HW264078   1.428   8.815  14.602
87416SOL     OW64079   0.577   7.808   8.221
87416SOL    HW164080   0.659   7.801   8.270
87416SOL    HW264081   0.509   7.788   8.286
87417SOL     OW64082   1.950   0.995   5.960
87417SOL    HW164083   1.893   0.931   6.003
87417SOL    HW264084   1.964   1.063   6.027
87418SOL     OW64085  12.971   1.787   5.777
87418SOL    HW164086  13.040   1.782   5.710
87418SOL    HW264087  13.010   1.749   5.855
87419SOL     OW64088  10.242   5.097  12.552
87419SOL    HW164089  10.170   5.156  12.571
87419SOL    HW264090  10.313   5.154  12.523
87420SOL     OW64091  11.978   2.107  12.542
87420SOL    HW164092  12.056   2.077  12.588
87420SOL    HW264093  11.938   2.028  12.507
87421SOL     OW64094   6.911  11.996  11.410
87421SOL    HW164095   6.972  11.931  11.375
87421SOL    HW264096   6.917  12.070  11.350
87422SOL     OW64097   7.321   6.673  12.795
87422SOL    HW164098   7.276   6.736  12.851
87422SOL    HW264099   7.254   6.644  12.733
87423SOL     OW64100   9.312   9.899   0.499
87423SOL    HW164101   9.238   9.842   0.521
87423SOL    HW264102   9.305   9.912   0.405
87424SOL     OW64103   8.316   8.827  12.596
87424SOL    HW164104   8.345   8.778  12.519
87424SOL    HW264105   8.250   8.888  12.562
87425SOL     OW64106   4.177   2.224   6.256
87425SOL    HW164107   4.105   2.258   6.309
87425SOL    HW264108   4.213   2.152   6.309
87426SOL     OW64109   0.343  10.924  14.276
87426SOL    HW164110   0.415  10.969  14.230
87426SOL    HW264111   0.386  10.871  14.343
87427SOL     OW64112  12.193   7.521  10.979
87427SOL    HW164113  12.250   7.594  10.958
87427SOL    HW264114  12.247   7.461  11.030
87428SOL     OW64115   2.600   2.192   6.872
87428SOL    HW164116   2.594   2.287   6.877
87428SOL    HW264117   2.551   2.168   6.793
87429SOL     OW64118   6.718  11.680   6.127
87429SOL    HW164119   6.627  11.695   6.152
87429SOL    HW264120   6.731  11.586   6.137
87430SOL     OW64121  14.011   1.428   6.651
87430SOL    HW164122  14.080   1.462   6.594
87430SOL    HW264123  13.933   1.478   6.627
87431SOL     OW64124  11.631   8.019   0.869
87431SOL    HW164125  11.620   7.951   0.802
87431SOL    HW264126  11.630   7.971   0.952
87432SOL     OW64127  13.221   1.899  11.692
87432SOL    HW164128  13.177   1.817  11.672
87432SOL    HW264129  13.205   1.912  11.786
87433SOL     OW64130  10.617   5.966   9.920
87433SOL    HW164131  10.557   5.918   9.977
87433SOL    HW264132  10.585   6.056   9.922
87434SOL     OW64133   7.015   4.928  11.593
87434SOL    HW164134   6.931   4.882  11.591
87434SOL    HW264135   7.077   4.864  11.629
87435SOL     OW64136   7.191   6.202   0.434
87435SOL    HW164137   7.113   6.252   0.459
87435SOL    HW264138   7.189   6.124   0.490
87436SOL     OW64139   3.262   3.110   4.992
87436SOL    HW164140   3.168   3.129   4.996
87436SOL    HW264141   3.285   3.084   5.081
87437SOL     OW64142   3.734  13.096  13.622
87437SOL    HW164143   3.638  13.094  13.622
87437SOL    HW264144   3.757  13.164  13.686
87438SOL     OW64145  11.917   9.456   6.597
87438SOL    HW164146  11.932   9.361   6.599
87438SOL    HW264147  11.847   9.467   6.532
87439SOL     OW64148  12.563   1.444   4.124
87439SOL    HW164149  12.509   1.521   4.140
87439SOL    HW264150  12.600   1.457   4.037
87440SOL     OW64151   5.416  14.704   4.186
87440SOL    HW164152   5.338  14.744   4.225
87440SOL    HW264153   5.436  14.758   4.109
87441SOL     OW64154   2.205   7.011   0.452
87441SOL    HW164155   2.112   7.010   0.429
87441SOL    HW264156   2.207   7.039   0.544
87442SOL     OW64157   6.921   5.780  12.957
87442SOL    HW164158   6.936   5.860  13.007
87442SOL    HW264159   6.992   5.721  12.984
87443SOL     OW64160   4.095   7.137   2.124
87443SOL    HW164161   4.143   7.215   2.152
87443SOL    HW264162   4.004   7.154   2.151
87444SOL     OW64163   0.191  10.005  10.827
87444SOL    HW164164   0.188  10.062  10.750
87444SOL    HW264165   0.101   9.976  10.839
87445SOL     OW64166   1.926  11.982  12.418
87445SOL    HW164167   2.012  12.018  12.396
87445SOL    HW264168   1.928  11.893  12.382
87446SOL     OW64169  13.834   3.832   6.690
87446SOL    HW164170  13.752   3.881   6.702
87446SOL    HW264171  13.902   3.888   6.727
87447SOL     OW64172   5.638   8.344   3.307
87447SOL    HW164173   5.704   8.388   3.360
87447SOL    HW264174   5.612   8.268   3.358
87448SOL     OW64175   1.443   6.300   7.937
87448SOL    HW164176   1.393   6.382   7.938
87448SOL    HW264177   1.471   6.290   7.846
87449SOL     OW64178   8.083   3.053  11.152
87449SOL    HW164179   8.093   2.964  11.119
87449SOL    HW264180   8.105   3.048  11.245
87450SOL     OW64181   5.828   0.010   0.931
87450SOL    HW164182   5.819   0.100   0.964
87450SOL    HW264183   5.903  14.851   0.979
87451SOL     OW64184   5.982   8.936  10.608
87451SOL    HW164185   5.957   9.028  10.594
87451SOL    HW264186   6.077   8.937  10.605
87452SOL     OW64187   0.266  12.304  14.122
87452SOL    HW164188   0.287  12.210  14.125
87452SOL    HW264189   0.328  12.340  14.059
87453SOL     OW64190  14.543  12.983  12.311
87453SOL    HW164191  14.535  12.909  12.372
87453SOL    HW264192  14.619  12.961  12.257
87454SOL     OW64193   2.153   0.389  12.730
87454SOL    HW164194   2.232   0.335  12.719
87454SOL    HW264195   2.083   0.326  12.746
87455SOL     OW64196  14.438   4.985  12.134
87455SOL    HW164197  14.376   4.963  12.204
87455SOL    HW264198  14.383   5.019  12.063
87456SOL     OW64199   6.555   0.650   5.153
87456SOL    HW164200   6.587   0.565   5.186
87456SOL    HW264201   6.532   0.698   5.232
87457SOL     OW64202   6.143   8.358   4.136
87457SOL    HW164203   6.180   8.274   4.162
87457SOL    HW264204   6.090   8.385   4.211
87458SOL     OW64205   2.456   2.012   5.141
87458SOL    HW164206   2.396   1.937   5.135
87458SOL    HW264207   2.508   2.007   5.061
87459SOL     OW64208  12.198   7.828   5.057
87459SOL    HW164209  12.130   7.895   5.050
87459SOL    HW264210  12.150   7.747   5.075
87460SOL     OW64211  13.622  14.845  14.520
87460SOL    HW164212  13.595   0.054  14.485
87460SOL    HW264213  13.551  14.785  14.496
87461SOL     OW64214  10.421   6.894   6.658
87461SOL    HW164215  10.487   6.853   6.714
87461SOL    HW264216  10.402   6.977   6.702
87462SOL     OW64217   3.849   4.875   8.826
87462SOL    HW164218   3.840   4.832   8.741
87462SOL    HW264219   3.919   4.827   8.870
87463SOL     OW64220   9.494   6.693   6.538
87463SOL    HW164221   9.483   6.787   6.522
87463SOL    HW264222   9.470   6.652   6.455
87464SOL     OW64223  12.965   7.654  13.970
87464SOL    HW164224  12.882   7.647  14.017
87464SOL    HW264225  12.954   7.597  13.893
87465SOL     OW64226   9.966   9.593   8.038
87465SOL    HW164227  10.004   9.506   8.044
87465SOL    HW264228  10.021   9.640   7.975
87466SOL     OW64229  10.176   4.932   2.600
87466SOL    HW164230  10.261   4.958   2.636
87466SOL    HW264231  10.177   4.967   2.511
87467SOL     OW64232   4.473   2.575   5.339
87467SOL    HW164233   4.500   2.652   5.389
87467SOL    HW264234   4.394   2.543   5.383
87468SOL     OW64235  14.285   6.910   1.694
87468SOL    HW164236  14.250   6.890   1.607
87468SOL    HW264237  14.334   6.832   1.718
87469SOL     OW64238   9.768  13.301   7.457
87469SOL    HW164239   9.747  13.257   7.375
87469SOL    HW264240   9.688  13.348   7.481
87470SOL     OW64241   3.483   6.454   1.966
87470SOL    HW164242   3.433   6.531   1.940
87470SOL    HW264243   3.462   6.442   2.059
87471SOL     OW64244   8.453  14.221   2.109
87471SOL    HW164245   8.395  14.189   2.040
87471SOL    HW264246   8.530  14.254   2.063
87472SOL     OW64247  13.966   9.363   1.319
87472SOL    HW164248  13.937   9.423   1.388
87472SOL    HW264249  13.968   9.277   1.361
87473SOL     OW64250   1.064   2.353   6.410
87473SOL    HW164251   1.056   2.437   6.364
87473SOL    HW264252   1.028   2.289   6.348
87474SOL     OW64253  12.013   9.381  14.141
87474SOL    HW164254  12.091   9.430  14.116
87474SOL    HW264255  12.003   9.398  14.235
87475SOL     OW64256   8.172   1.415   8.290
87475SOL    HW164257   8.141   1.332   8.327
87475SOL    HW264258   8.264   1.421   8.319
87476SOL     OW64259   2.438   7.332  10.720
87476SOL    HW164260   2.520   7.369  10.685
87476SOL    HW264261   2.427   7.249  10.672
87477SOL     OW64262   9.662  13.642   3.227
87477SOL    HW164263   9.611  13.572   3.184
87477SOL    HW264264   9.657  13.716   3.166
87478SOL     OW64265   7.944   2.161   2.050
87478SOL    HW164266   7.985   2.151   2.135
87478SOL    HW264267   7.853   2.133   2.063
87479SOL     OW64268   4.954  10.600   7.689
87479SOL    HW164269   5.027  10.650   7.652
87479SOL    HW264270   4.983  10.578   7.778
87480SOL     OW64271   8.012   9.132   1.763
87480SOL    HW164272   7.917   9.140   1.774
87480SOL    HW264273   8.029   9.038   1.764
87481SOL     OW64274   8.561   7.115  11.046
87481SOL    HW164275   8.652   7.085  11.039
87481SOL    HW264276   8.512   7.056  10.988
87482SOL     OW64277   5.209   8.392   4.539
87482SOL    HW164278   5.273   8.439   4.592
87482SOL    HW264279   5.261   8.345   4.475
87483SOL     OW64280   3.906   5.875  12.094
87483SOL    HW164281   3.826   5.877  12.146
87483SOL    HW264282   3.970   5.925  12.145
87484SOL     OW64283   0.140  13.296  12.761
87484SOL    HW164284   0.067  13.311  12.821
87484SOL    HW264285   0.203  13.245  12.811
87485SOL     OW64286  12.649   5.559   9.707
87485SOL    HW164287  12.744   5.551   9.718
87485SOL    HW264288  12.613   5.488   9.761
87486SOL     OW64289   9.278   5.398   2.123
87486SOL    HW164290   9.278   5.457   2.199
87486SOL    HW264291   9.368   5.367   2.117
87487SOL     OW64292   4.409  13.164  14.456
87487SOL    HW164293   4.436  13.216  14.531
87487SOL    HW264294   4.467  13.088  14.456
87488SOL     OW64295  13.141   2.105  11.528
87488SOL    HW164296  13.168   2.039  11.592
87488SOL    HW264297  13.079   2.161  11.576
87489SOL     OW64298   9.854   8.553   5.775
87489SOL    HW164299   9.821   8.489   5.838
87489SOL    HW264300   9.776   8.600   5.745
87490SOL     OW64301   0.253   6.124   4.220
87490SOL    HW164302   0.286   6.062   4.285
87490SOL    HW264303   0.161   6.099   4.207
87491SOL     OW64304   1.571   9.436  11.779
87491SOL    HW164305   1.506   9.390  11.726
87491SOL    HW264306   1.526   9.455  11.861
87492SOL     OW64307   0.489  10.940   7.739
87492SOL    HW164308   0.494  11.012   7.802
87492SOL    HW264309   0.444  10.977   7.663
87493SOL     OW64310  14.367  13.765   4.136
87493SOL    HW164311  14.411  13.773   4.221
87493SOL    HW264312  14.431  13.723   4.079
87494SOL     OW64313   6.942   8.044  13.704
87494SOL    HW164314   6.968   8.124  13.658
87494SOL    HW264315   6.921   8.073  13.793
87495SOL     OW64316   3.367   9.991   6.744
87495SOL    HW164317   3.318  10.072   6.756
87495SOL    HW264318   3.451  10.018   6.707
87496SOL     OW64319   1.707   2.132   4.808
87496SOL    HW164320   1.800   2.110   4.804
87496SOL    HW264321   1.667   2.086   4.734
87497SOL     OW64322  10.883  14.000   0.256
87497SOL    HW164323  10.924  14.014   0.171
87497SOL    HW264324  10.941  14.046   0.317
87498SOL     OW64325   2.694   3.624  12.403
87498SOL    HW164326   2.765   3.592  12.347
87498SOL    HW264327   2.630   3.553  12.404
87499SOL     OW64328   8.188   9.483  14.018
87499SOL    HW164329   8.230   9.421  14.079
87499SOL    HW264330   8.101   9.445  14.003
87500SOL     OW64331   0.447  14.113   1.627
87500SOL    HW164332   0.458  14.159   1.544
87500SOL    HW264333   0.384  14.167   1.676
87501SOL     OW64334   1.175  11.050  13.341
87501SOL    HW164335   1.120  11.009  13.274
87501SOL    HW264336   1.114  11.071  13.412
87502SOL     OW64337  14.123   5.017   8.139
87502SOL    HW164338  14.134   4.983   8.228
87502SOL    HW264339  14.138   5.111   8.148
87503SOL     OW64340   9.382   8.323   4.451
87503SOL    HW164341   9.320   8.394   4.462
87503SOL    HW264342   9.463   8.356   4.490
87504SOL     OW64343   3.547   3.776  13.809
87504SOL    HW164344   3.642   3.786  13.805
87504SOL    HW264345   3.513   3.864  13.794
87505SOL     OW64346   1.689   0.912  12.502
87505SOL    HW164347   1.667   0.857  12.426
87505SOL    HW264348   1.775   0.881  12.530
87506SOL     OW64349   7.231  13.127   1.905
87506SOL    HW164350   7.226  13.132   2.000
87506SOL    HW264351   7.320  13.152   1.884
87507SOL     OW64352   7.566   5.470   2.090
87507SOL    HW164353   7.493   5.435   2.141
87507SOL    HW264354   7.525   5.509   2.013
87508SOL     OW64355   8.826   3.119   0.791
87508SOL    HW164356   8.852   3.052   0.853
87508SOL    HW264357   8.733   3.135   0.810
87509SOL     OW64358  12.814   2.520   5.119
87509SOL    HW164359  12.723   2.539   5.142
87509SOL    HW264360  12.863   2.541   5.199
87510SOL     OW64361   5.978   5.141  10.986
87510SOL    HW164362   6.051   5.190  11.024
87510SOL    HW264363   5.964   5.067  11.046
87511SOL     OW64364   0.204   1.005  13.353
87511SOL    HW164365   0.297   1.021  13.368
87511SOL    HW264366   0.184   0.929  13.408
87512SOL     OW64367  10.485  14.774  12.571
87512SOL    HW164368  10.533  14.731  12.641
87512SOL    HW264369  10.541  14.764  12.494
87513SOL     OW64370  13.078   8.421   3.910
87513SOL    HW164371  13.079   8.511   3.944
87513SOL    HW264372  12.998   8.415   3.859
87514SOL     OW64373  11.651   6.495  11.813
87514SOL    HW164374  11.557   6.511  11.816
87514SOL    HW264375  11.670   6.479  11.721
87515SOL     OW64376   0.225  11.517   8.446
87515SOL    HW164377   0.187  11.430   8.441
87515SOL    HW264378   0.308  11.510   8.398
87516SOL     OW64379  14.001   6.471   1.179
87516SOL    HW164380  13.939   6.399   1.165
87516SOL    HW264381  14.054   6.471   1.099
87517SOL     OW64382  13.120   4.453   6.066
87517SOL    HW164383  13.167   4.381   6.108
87517SOL    HW264384  13.059   4.484   6.132
87518SOL     OW64385  14.705   2.640   7.378
87518SOL    HW164386  14.660   2.582   7.439
87518SOL    HW264387  14.660   2.724   7.386
87519SOL     OW64388   8.303   8.237  14.806
87519SOL    HW164389   8.245   8.162  14.793
87519SOL    HW264390   8.289   8.291  14.728
87520SOL     OW64391   3.762  13.880   6.038
87520SOL    HW164392   3.849  13.904   6.069
87520SOL    HW264393   3.718  13.845   6.116
87521SOL     OW64394   3.404  14.642   2.383
87521SOL    HW164395   3.315  14.606   2.393
87521SOL    HW264396   3.397  14.732   2.413
87522SOL     OW64397   1.695   6.041   5.529
87522SOL    HW164398   1.706   5.987   5.607
87522SOL    HW264399   1.625   5.999   5.481
87523SOL     OW64400   0.001   9.188   6.759
87523SOL    HW164401  14.865   9.172   6.666
87523SOL    HW264402   0.093   9.167   6.776
87524SOL     OW64403   9.611   9.218   8.816
87524SOL    HW164404   9.551   9.153   8.853
87524SOL    HW264405   9.661   9.249   8.891
87525SOL     OW64406   5.095  10.859   0.024
87525SOL    HW164407   5.122  10.895   0.108
87525SOL    HW264408   5.174  10.863  14.845
87526SOL     OW64409   1.734   8.631   7.279
87526SOL    HW164410   1.643   8.639   7.249
87526SOL    HW264411   1.732   8.557   7.339
87527SOL     OW64412  11.953   1.607  10.808
87527SOL    HW164413  11.916   1.589  10.894
87527SOL    HW264414  11.878   1.610  10.749
87528SOL     OW64415  11.339  13.043  14.828
87528SOL    HW164416  11.287  13.102   0.007
87528SOL    HW264417  11.304  12.956  14.846
87529SOL     OW64418  12.688  13.822  12.101
87529SOL    HW164419  12.680  13.870  12.184
87529SOL    HW264420  12.732  13.883  12.042
87530SOL     OW64421  12.269   4.135  13.751
87530SOL    HW164422  12.308   4.154  13.836
87530SOL    HW264423  12.292   4.210  13.696
87531SOL     OW64424  11.144   9.736   4.859
87531SOL    HW164425  11.174   9.721   4.769
87531SOL    HW264426  11.049   9.749   4.850
87532SOL     OW64427  14.205  13.551  13.459
87532SOL    HW164428  14.203  13.496  13.380
87532SOL    HW264429  14.265  13.623  13.436
87533SOL     OW64430   5.017   7.892   6.837
87533SOL    HW164431   5.103   7.867   6.803
87533SOL    HW264432   5.026   7.883   6.932
87534SOL     OW64433   7.073   2.738   9.768
87534SOL    HW164434   6.986   2.720   9.732
87534SOL    HW264435   7.110   2.804   9.710
87535SOL     OW64436   2.928  10.793   7.014
87535SOL    HW164437   3.011  10.836   7.035
87535SOL    HW264438   2.879  10.794   7.096
87536SOL     OW64439   6.054  14.039  11.627
87536SOL    HW164440   5.959  14.039  11.640
87536SOL    HW264441   6.069  14.111  11.566
87537SOL     OW64442   1.961  10.277  12.763
87537SOL    HW164443   1.897  10.344  12.786
87537SOL    HW264444   1.930  10.240  12.681
87538SOL     OW64445   1.438  14.522   1.444
87538SOL    HW164446   1.400  14.609   1.433
87538SOL    HW264447   1.532  14.536   1.433
87539SOL     OW64448  14.558   7.713  12.477
87539SOL    HW164449  14.477   7.756  12.503
87539SOL    HW264450  14.570   7.738  12.385
87540SOL     OW64451   8.065  10.059   7.592
87540SOL    HW164452   8.054  10.154   7.596
87540SOL    HW264453   8.125  10.046   7.518
87541SOL     OW64454   0.878   5.019   8.095
87541SOL    HW164455   0.890   5.049   8.005
87541SOL    HW264456   0.826   4.939   8.087
87542SOL     OW64457   0.018   5.593   1.677
87542SOL    HW164458   0.011   5.499   1.661
87542SOL    HW264459   0.088   5.622   1.618
87543SOL     OW64460   8.578  11.348   6.750
87543SOL    HW164461   8.587  11.264   6.795
87543SOL    HW264462   8.512  11.333   6.682
87544SOL     OW64463  12.177  10.659  11.733
87544SOL    HW164464  12.257  10.656  11.785
87544SOL    HW264465  12.120  10.592  11.772
87545SOL     OW64466   7.425  10.078  10.130
87545SOL    HW164467   7.499  10.092  10.071
87545SOL    HW264468   7.410   9.983  10.127
87546SOL     OW64469   8.590   9.167   8.986
87546SOL    HW164470   8.634   9.097   9.034
87546SOL    HW264471   8.629   9.247   9.019
87547SOL     OW64472   0.762  13.335  14.320
87547SOL    HW164473   0.834  13.280  14.288
87547SOL    HW264474   0.805  13.406  14.367
87548SOL     OW64475  11.402   6.896  11.881
87548SOL    HW164476  11.414   6.974  11.828
87548SOL    HW264477  11.428   6.922  11.969
87549SOL     OW64478   6.197   7.667  13.909
87549SOL    HW164479   6.266   7.694  13.848
87549SOL    HW264480   6.116   7.693  13.866
87550SOL     OW64481   5.644   4.909   7.176
87550SOL    HW164482   5.561   4.957   7.178
87550SOL    HW264483   5.677   4.923   7.087
87551SOL     OW64484   0.932  14.329   4.153
87551SOL    HW164485   0.973  14.415   4.139
87551SOL    HW264486   0.838  14.348   4.154
87552SOL     OW64487  14.529   5.155  11.674
87552SOL    HW164488  14.520   5.229  11.614
87552SOL    HW264489  14.603   5.179  11.729
87553SOL     OW64490   3.975  14.527   8.536
87553SOL    HW164491   3.964  14.453   8.595
87553SOL    HW264492   4.068  14.548   8.541
87554SOL     OW64493  12.869  13.752   8.985
87554SOL    HW164494  12.834  13.663   8.993
87554SOL    HW264495  12.899  13.759   8.895
87555SOL     OW64496   5.213   7.288   9.580
87555SOL    HW164497   5.168   7.289   9.664
87555SOL    HW264498   5.304   7.310   9.601
87556SOL     OW64499   9.898   9.553   3.780
87556SOL    HW164500   9.989   9.550   3.810
87556SOL    HW264501   9.902   9.533   3.687
87557SOL     OW64502   1.607   5.054   7.780
87557SOL    HW164503   1.588   5.141   7.746
87557SOL    HW264504   1.697   5.037   7.753
87558SOL     OW64505  10.416   9.864   5.287
87558SOL    HW164506  10.368   9.786   5.315
87558SOL    HW264507  10.471   9.833   5.215
87559SOL     OW64508   9.621  10.726   5.321
87559SOL    HW164509   9.638  10.792   5.253
87559SOL    HW264510   9.527  10.731   5.336
87560SOL     OW64511   5.804   7.496   8.350
87560SOL    HW164512   5.791   7.590   8.366
87560SOL    HW264513   5.805   7.457   8.437
87561SOL     OW64514  10.883   3.086   3.800
87561SOL    HW164515  10.905   2.997   3.827
87561SOL    HW264516  10.795   3.101   3.835
87562SOL     OW64517  10.748   8.335  11.734
87562SOL    HW164518  10.658   8.303  11.730
87562SOL    HW264519  10.790   8.283  11.802
87563SOL     OW64520   8.667   0.418   9.960
87563SOL    HW164521   8.690   0.380  10.045
87563SOL    HW264522   8.594   0.364   9.929
87564SOL     OW64523  12.541   7.557   0.930
87564SOL    HW164524  12.582   7.472   0.912
87564SOL    HW264525  12.448   7.537   0.944
87565SOL     OW64526  10.442   6.028   4.553
87565SOL    HW164527  10.425   6.097   4.617
87565SOL    HW264528  10.358   5.983   4.543
87566SOL     OW64529   0.115  11.193  12.887
87566SOL    HW164530   0.085  11.269  12.937
87566SOL    HW264531   0.038  11.164  12.840
87567SOL     OW64532  11.294   1.224   2.085
87567SOL    HW164533  11.238   1.224   2.162
87567SOL    HW264534  11.250   1.283   2.023
87568SOL     OW64535  12.941   0.340  13.582
87568SOL    HW164536  12.927   0.435  13.586
87568SOL    HW264537  13.016   0.324  13.639
87569SOL     OW64538  11.418  14.450   4.454
87569SOL    HW164539  11.428  14.355   4.462
87569SOL    HW264540  11.506  14.481   4.434
87570SOL     OW64541   2.911   7.539   7.837
87570SOL    HW164542   2.855   7.528   7.914
87570SOL    HW264543   2.901   7.458   7.788
87571SOL     OW64544  13.988   4.596   2.303
87571SOL    HW164545  13.923   4.530   2.328
87571SOL    HW264546  14.058   4.585   2.367
87572SOL     OW64547   5.138   9.812   5.973
87572SOL    HW164548   5.110   9.811   5.881
87572SOL    HW264549   5.098   9.733   6.010
87573SOL     OW64550  13.870   2.142   5.364
87573SOL    HW164551  13.875   2.055   5.403
87573SOL    HW264552  13.914   2.133   5.279
87574SOL     OW64553   9.464   1.390   1.625
87574SOL    HW164554   9.381   1.439   1.629
87574SOL    HW264555   9.489   1.393   1.533
87575SOL     OW64556   6.556  11.809  10.935
87575SOL    HW164557   6.549  11.773  11.023
87575SOL    HW264558   6.547  11.733  10.877
87576SOL     OW64559   1.636   2.727   4.403
87576SOL    HW164560   1.640   2.632   4.392
87576SOL    HW264561   1.674   2.762   4.323
87577SOL     OW64562  14.400   1.691  12.921
87577SOL    HW164563  14.482   1.735  12.945
87577SOL    HW264564  14.348   1.760  12.880
87578SOL     OW64565   5.756   1.607   5.177
87578SOL    HW164566   5.670   1.580   5.208
87578SOL    HW264567   5.740   1.685   5.124
87579SOL     OW64568   5.714  12.671   4.558
87579SOL    HW164569   5.659  12.639   4.487
87579SOL    HW264570   5.666  12.745   4.594
87580SOL     OW64571  10.136   2.337   1.391
87580SOL    HW164572  10.191   2.409   1.361
87580SOL    HW264573  10.125   2.352   1.485
87581SOL     OW64574  10.651  13.781  12.004
87581SOL    HW164575  10.654  13.827  12.088
87581SOL    HW264576  10.606  13.698  12.023
87582SOL     OW64577  11.662  10.087   6.722
87582SOL    HW164578  11.698  10.003   6.696
87582SOL    HW264579  11.700  10.103   6.809
87583SOL     OW64580   5.642  11.094  12.219
87583SOL    HW164581   5.665  11.081  12.127
87583SOL    HW264582   5.718  11.140  12.256
87584SOL     OW64583  10.328   3.566  14.253
87584SOL    HW164584  10.390   3.504  14.215
87584SOL    HW264585  10.259   3.574  14.187
87585SOL     OW64586  12.259   8.727   9.744
87585SOL    HW164587  12.176   8.713   9.697
87585SOL    HW264588  12.305   8.644   9.737
87586SOL     OW64589   5.778   5.714  12.220
87586SOL    HW164590   5.699   5.661  12.211
87586SOL    HW264591   5.837   5.660  12.273
87587SOL     OW64592   0.973  13.114   4.861
87587SOL    HW164593   0.946  13.028   4.828
87587SOL    HW264594   0.938  13.118   4.950
87588SOL     OW64595   8.360  10.918  11.498
87588SOL    HW164596   8.317  10.863  11.433
87588SOL    HW264597   8.290  10.942  11.559
87589SOL     OW64598   6.829   3.109   7.761
87589SOL    HW164599   6.864   3.094   7.673
87589SOL    HW264600   6.869   3.040   7.815
87590SOL     OW64601  10.001   5.489   5.636
87590SOL    HW164602  10.033   5.564   5.686
87590SOL    HW264603  10.068   5.421   5.649
87591SOL     OW64604   5.983   3.806   4.010
87591SOL    HW164605   5.899   3.777   4.046
87591SOL    HW264606   6.026   3.851   4.083
87592SOL     OW64607   1.756   7.429   8.354
87592SOL    HW164608   1.824   7.404   8.291
87592SOL    HW264609   1.801   7.430   8.438
87593SOL     OW64610   9.276  11.492   4.336
87593SOL    HW164611   9.354  11.452   4.373
87593SOL    HW264612   9.226  11.521   4.412
87594SOL     OW64613   8.582   1.683   1.433
87594SOL    HW164614   8.488   1.678   1.418
87594SOL    HW264615   8.596   1.644   1.519
87595SOL     OW64616   6.602  10.404   0.059
87595SOL    HW164617   6.577  10.393   0.151
87595SOL    HW264618   6.566  10.490   0.035
87596SOL     OW64619   6.099   2.640   0.349
87596SOL    HW164620   6.195   2.639   0.355
87596SOL    HW264621   6.070   2.666   0.436
87597SOL     OW64622   2.104   5.044   8.840
87597SOL    HW164623   2.102   4.949   8.828
87597SOL    HW264624   2.197   5.068   8.830
87598SOL     OW64625  12.423   3.137   1.162
87598SOL    HW164626  12.333   3.162   1.181
87598SOL    HW264627  12.437   3.163   1.071
87599SOL     OW64628  10.928   9.565   9.545
87599SOL    HW164629  10.933   9.618   9.624
87599SOL    HW264630  10.962   9.480   9.571
87600SOL     OW64631  12.407   1.131  12.282
87600SOL    HW164632  12.331   1.187  12.269
87600SOL    HW264633  12.373   1.051  12.323
87601SOL     OW64634   9.456   4.036  11.195
87601SOL    HW164635   9.535   4.000  11.155
87601SOL    HW264636   9.480   4.054  11.286
87602SOL     OW64637   0.483   2.312   9.821
87602SOL    HW164638   0.477   2.393   9.771
87602SOL    HW264639   0.432   2.329   9.900
87603SOL     OW64640   2.434   0.556   9.590
87603SOL    HW164641   2.483   0.498   9.648
87603SOL    HW264642   2.466   0.535   9.502
87604SOL     OW64643   6.601   8.547  10.063
87604SOL    HW164644   6.560   8.587   9.985
87604SOL    HW264645   6.536   8.559  10.132
87605SOL     OW64646   9.661  11.943   4.104
87605SOL    HW164647   9.638  11.892   4.026
87605SOL    HW264648   9.657  12.034   4.075
87606SOL     OW64649   1.901   3.444   4.806
87606SOL    HW164650   1.822   3.497   4.811
87606SOL    HW264651   1.892   3.396   4.724
87607SOL     OW64652   2.874   3.644   0.202
87607SOL    HW164653   2.901   3.573   0.260
87607SOL    HW264654   2.779   3.645   0.207
87608SOL     OW64655   3.216   7.495  10.555
87608SOL    HW164656   3.302   7.477  10.518
87608SOL    HW264657   3.188   7.411  10.592
87609SOL     OW64658   7.055   3.152   0.437
87609SOL    HW164659   7.037   3.187   0.524
87609SOL    HW264660   6.977   3.171   0.386
87610SOL     OW64661  10.594  12.620   1.315
87610SOL    HW164662  10.578  12.677   1.390
87610SOL    HW264663  10.683  12.641   1.287
87611SOL     OW64664  12.617   0.294  14.006
87611SOL    HW164665  12.630   0.199  14.000
87611SOL    HW264666  12.616   0.311  14.100
87612SOL     OW64667   2.044   7.866   4.194
87612SOL    HW164668   2.082   7.953   4.179
87612SOL    HW264669   1.974   7.881   4.258
87613SOL     OW64670   4.953   0.157   7.984
87613SOL    HW164671   4.863   0.179   7.962
87613SOL    HW264672   5.006   0.213   7.927
87614SOL     OW64673   0.159   2.373  14.469
87614SOL    HW164674   0.245   2.408  14.493
87614SOL    HW264675   0.176   2.281  14.448
87615SOL     OW64676  12.529   3.253  13.633
87615SOL    HW164677  12.495   3.164  13.621
87615SOL    HW264678  12.567   3.253  13.721
87616SOL     OW64679  10.915  11.518  13.954
87616SOL    HW164680  10.850  11.456  13.922
87616SOL    HW264681  10.939  11.570  13.877
87617SOL     OW64682   0.356  10.977   8.592
87617SOL    HW164683   0.437  11.023   8.611
87617SOL    HW264684   0.334  11.004   8.502
87618SOL     OW64685   5.643   4.943   5.742
87618SOL    HW164686   5.560   4.987   5.726
87618SOL    HW264687   5.709   5.008   5.716
87619SOL     OW64688   8.741  14.626   5.575
87619SOL    HW164689   8.717  14.625   5.667
87619SOL    HW264690   8.700  14.705   5.540
87620SOL     OW64691   4.054   9.912   1.944
87620SOL    HW164692   4.105   9.993   1.952
87620SOL    HW264693   4.121   9.843   1.941
87621SOL     OW64694   1.302   9.863   7.971
87621SOL    HW164695   1.215   9.827   7.956
87621SOL    HW264696   1.347   9.853   7.887
87622SOL     OW64697  14.537   1.028   1.175
87622SOL    HW164698  14.546   0.944   1.221
87622SOL    HW264699  14.442   1.041   1.168
87623SOL     OW64700   9.865  13.950   9.846
87623SOL    HW164701   9.874  13.907   9.761
87623SOL    HW264702   9.932  13.909   9.901
87624SOL     OW64703   8.804   6.676   8.697
87624SOL    HW164704   8.893   6.704   8.678
87624SOL    HW264705   8.778   6.727   8.774
87625SOL     OW64706   8.708   3.957   4.988
87625SOL    HW164707   8.646   4.027   4.968
87625SOL    HW264708   8.742   3.931   4.903
87626SOL     OW64709   4.344   2.808   4.309
87626SOL    HW164710   4.437   2.824   4.289
87626SOL    HW264711   4.339   2.715   4.328
87627SOL     OW64712   8.554   3.110   6.095
87627SOL    HW164713   8.628   3.162   6.065
87627SOL    HW264714   8.530   3.055   6.020
87628SOL     OW64715   1.353   1.493   0.756
87628SOL    HW164716   1.352   1.404   0.791
87628SOL    HW264717   1.430   1.534   0.795
87629SOL     OW64718   3.576  11.654  10.767
87629SOL    HW164719   3.617  11.733  10.803
87629SOL    HW264720   3.644  11.587  10.775
87630SOL     OW64721   9.186  14.717   6.761
87630SOL    HW164722   9.268  14.719   6.713
87630SOL    HW264723   9.119  14.697   6.695
87631SOL     OW64724  11.017   8.324   3.815
87631SOL    HW164725  10.949   8.381   3.779
87631SOL    HW264726  11.035   8.359   3.902
87632SOL     OW64727   8.135  10.018  11.672
87632SOL    HW164728   8.115  10.110  11.650
87632SOL    HW264729   8.056   9.970  11.646
87633SOL     OW64730   4.613   4.394  12.461
87633SOL    HW164731   4.633   4.301  12.467
87633SOL    HW264732   4.551   4.401  12.388
87634SOL     OW64733  12.452   7.710   8.894
87634SOL    HW164734  12.369   7.754   8.908
87634SOL    HW264735  12.480   7.683   8.982
87635SOL     OW64736  14.850   2.608   4.729
87635SOL    HW164737  14.816   2.698   4.731
87635SOL    HW264738   0.035   2.608   4.655
87636SOL     OW64739   2.906  12.623   1.835
87636SOL    HW164740   2.979  12.680   1.858
87636SOL    HW264741   2.904  12.624   1.739
87637SOL     OW64742   5.392   4.470   8.995
87637SOL    HW164743   5.410   4.460   9.088
87637SOL    HW264744   5.478   4.477   8.955
87638SOL     OW64745   4.931  13.280   3.500
87638SOL    HW164746   4.882  13.354   3.464
87638SOL    HW264747   4.876  13.204   3.485
87639SOL     OW64748   1.801   9.036  11.070
87639SOL    HW164749   1.774   9.125  11.094
87639SOL    HW264750   1.881   9.049  11.019
87640SOL     OW64751   7.526   1.123   3.254
87640SOL    HW164752   7.556   1.053   3.312
87640SOL    HW264753   7.533   1.085   3.166
87641SOL     OW64754   6.038   8.809   0.454
87641SOL    HW164755   6.113   8.855   0.491
87641SOL    HW264756   6.062   8.793   0.363
87642SOL     OW64757   5.112   7.475   8.557
87642SOL    HW164758   5.131   7.561   8.519
87642SOL    HW264759   5.151   7.478   8.644
87643SOL     OW64760   3.874  13.475  10.987
87643SOL    HW164761   3.890  13.569  10.974
87643SOL    HW264762   3.923  13.453  11.066
87644SOL     OW64763   2.890   3.420   3.338
87644SOL    HW164764   2.846   3.427   3.254
87644SOL    HW264765   2.981   3.399   3.316
87645SOL     OW64766  14.762  11.944   4.593
87645SOL    HW164767  14.721  11.872   4.640
87645SOL    HW264768  14.698  12.015   4.595
87646SOL     OW64769   4.135   9.452   2.926
87646SOL    HW164770   4.203   9.504   2.967
87646SOL    HW264771   4.106   9.391   2.995
87647SOL     OW64772   7.362   4.185   8.944
87647SOL    HW164773   7.456   4.176   8.956
87647SOL    HW264774   7.351   4.270   8.901
87648SOL     OW64775   1.816  11.599   1.735
87648SOL    HW164776   1.856  11.643   1.661
87648SOL    HW264777   1.722  11.608   1.720
87649SOL     OW64778   1.215   5.400   9.558
87649SOL    HW164779   1.295   5.404   9.505
87649SOL    HW264780   1.163   5.474   9.528
87650SOL     OW64781   7.409  14.813  14.409
87650SOL    HW164782   7.481  14.758  14.376
87650SOL    HW264783   7.376  14.858  14.331
87651SOL     OW64784  10.994   7.964   3.750
87651SOL    HW164785  10.941   7.962   3.670
87651SOL    HW264786  10.943   8.020   3.810
87652SOL     OW64787  13.296   3.681  12.021
87652SOL    HW164788  13.348   3.613  12.063
87652SOL    HW264789  13.285   3.748  12.088
87653SOL     OW64790   5.824   5.628   4.964
87653SOL    HW164791   5.795   5.696   5.026
87653SOL    HW264792   5.750   5.617   4.905
87654SOL     OW64793   1.431   3.014  11.790
87654SOL    HW164794   1.518   2.996  11.752
87654SOL    HW264795   1.387   3.066  11.723
87655SOL     OW64796   3.763  11.461   6.898
87655SOL    HW164797   3.698  11.463   6.968
87655SOL    HW264798   3.782  11.553   6.880
87656SOL     OW64799   2.559   4.197  12.461
87656SOL    HW164800   2.570   4.131  12.529
87656SOL    HW264801   2.569   4.281  12.507
87657SOL     OW64802  12.281  10.032   5.179
87657SOL    HW164803  12.210  10.017   5.242
87657SOL    HW264804  12.332  10.103   5.218
87658SOL     OW64805   8.309  10.377  10.343
87658SOL    HW164806   8.261  10.296  10.328
87658SOL    HW264807   8.243  10.446  10.340
87659SOL     OW64808  14.699   8.104   9.315
87659SOL    HW164809  14.689   8.147   9.400
87659SOL    HW264810  14.749   8.024   9.335
87660SOL     OW64811  12.878   0.232  14.144
87660SOL    HW164812  12.913   0.321  14.143
87660SOL    HW264813  12.790   0.241  14.180
87661SOL     OW64814   7.396   5.885   0.452
87661SOL    HW164815   7.460   5.943   0.493
87661SOL    HW264816   7.321   5.885   0.511
87662SOL     OW64817  11.949  14.112   7.244
87662SOL    HW164818  11.878  14.172   7.266
87662SOL    HW264819  11.923  14.028   7.283
87663SOL     OW64820   2.935   5.239  10.225
87663SOL    HW164821   2.885   5.158  10.228
87663SOL    HW264822   2.881   5.298  10.172
87664SOL     OW64823  14.679  11.150   5.801
87664SOL    HW164824  14.770  11.161   5.827
87664SOL    HW264825  14.681  11.145   5.705
87665SOL     OW64826   8.824   7.129   5.004
87665SOL    HW164827   8.755   7.104   5.066
87665SOL    HW264828   8.822   7.224   5.002
87666SOL     OW64829   6.201   3.813   4.989
87666SOL    HW164830   6.187   3.731   5.037
87666SOL    HW264831   6.144   3.876   5.032
87667SOL     OW64832   2.545  13.826   1.567
87667SOL    HW164833   2.491  13.887   1.516
87667SOL    HW264834   2.541  13.744   1.517
87668SOL     OW64835   2.579   6.049  13.215
87668SOL    HW164836   2.587   6.133  13.169
87668SOL    HW264837   2.530   5.993  13.155
87669SOL     OW64838   8.749  12.026   7.445
87669SOL    HW164839   8.709  12.111   7.466
87669SOL    HW264840   8.714  12.004   7.358
87670SOL     OW64841  11.352   5.260   5.547
87670SOL    HW164842  11.311   5.339   5.511
87670SOL    HW264843  11.339   5.193   5.480
87671SOL     OW64844   1.006  14.596  13.184
87671SOL    HW164845   0.957  14.578  13.264
87671SOL    HW264846   1.083  14.540  13.190
87672SOL     OW64847  13.088  11.742  14.091
87672SOL    HW164848  13.074  11.726  14.184
87672SOL    HW264849  13.183  11.738  14.080
87673SOL     OW64850   8.064   1.478   1.887
87673SOL    HW164851   7.975   1.512   1.875
87673SOL    HW264852   8.119   1.542   1.842
87674SOL     OW64853   3.082   0.721  10.667
87674SOL    HW164854   2.995   0.741  10.631
87674SOL    HW264855   3.069   0.641  10.718
87675SOL     OW64856   8.942  12.646   0.479
87675SOL    HW164857   8.935  12.656   0.574
87675SOL    HW264858   8.911  12.729   0.444
87676SOL     OW64859   9.118   1.781   6.450
87676SOL    HW164860   9.088   1.775   6.359
87676SOL    HW264861   9.039   1.802   6.500
87677SOL     OW64862   9.400   5.006  10.690
87677SOL    HW164863   9.362   5.058  10.619
87677SOL    HW264864   9.492   4.996  10.665
87678SOL     OW64865   6.578  14.485   8.004
87678SOL    HW164866   6.526  14.460   7.928
87678SOL    HW264867   6.648  14.539   7.968
87679SOL     OW64868   9.059   9.221   3.713
87679SOL    HW164869   9.056   9.148   3.775
87679SOL    HW264870   9.089   9.295   3.766
87680SOL     OW64871   8.441   6.712   9.645
87680SOL    HW164872   8.397   6.627   9.649
87680SOL    HW264873   8.441   6.742   9.736
87681SOL     OW64874  12.878   5.544   0.728
87681SOL    HW164875  12.918   5.621   0.689
87681SOL    HW264876  12.899   5.473   0.667
87682SOL     OW64877   6.014  11.302   1.688
87682SOL    HW164878   6.099  11.327   1.725
87682SOL    HW264879   6.036  11.240   1.618
87683SOL     OW64880   3.101  10.966   2.927
87683SOL    HW164881   3.177  10.931   2.881
87683SOL    HW264882   3.027  10.945   2.870
87684SOL     OW64883  14.663   9.126   4.176
87684SOL    HW164884  14.694   9.213   4.198
87684SOL    HW264885  14.593   9.141   4.112
87685SOL     OW64886  10.526   8.758   5.037
87685SOL    HW164887  10.480   8.763   5.120
87685SOL    HW264888  10.490   8.681   4.993
87686SOL     OW64889   5.931  11.789   7.305
87686SOL    HW164890   6.023  11.768   7.322
87686SOL    HW264891   5.892  11.706   7.279
87687SOL     OW64892   6.072   6.793   9.003
87687SOL    HW164893   5.981   6.765   8.994
87687SOL    HW264894   6.123   6.713   8.988
87688SOL     OW64895   6.666  13.747  13.951
87688SOL    HW164896   6.717  13.828  13.945
87688SOL    HW264897   6.657  13.731  14.045
87689SOL     OW64898  12.935  13.932   3.419
87689SOL    HW164899  13.006  13.986   3.453
87689SOL    HW264900  12.942  13.940   3.324
87690SOL     OW64901   2.347  10.262  13.722
87690SOL    HW164902   2.283  10.194  13.704
87690SOL    HW264903   2.366  10.299  13.635
87691SOL     OW64904  10.236   4.300   5.269
87691SOL    HW164905  10.222   4.394   5.271
87691SOL    HW264906  10.307   4.288   5.206
87692SOL     OW64907   4.886   3.946  13.945
87692SOL    HW164908   4.807   3.901  13.916
87692SOL    HW264909   4.958   3.890  13.914
87693SOL     OW64910  10.638   1.529  10.196
87693SOL    HW164911  10.661   1.618  10.169
87693SOL    HW264912  10.545   1.535  10.219
87694SOL     OW64913   0.204   6.344   3.333
87694SOL    HW164914   0.229   6.335   3.241
87694SOL    HW264915   0.155   6.265   3.353
87695SOL     OW64916   5.206   1.816  12.297
87695SOL    HW164917   5.294   1.785  12.276
87695SOL    HW264918   5.150   1.738  12.288
87696SOL     OW64919  12.053  10.901   5.351
87696SOL    HW164920  12.017  10.845   5.282
87696SOL    HW264921  12.033  10.990   5.322
87697SOL     OW64922   3.010   6.771   4.500
87697SOL    HW164923   2.947   6.820   4.447
87697SOL    HW264924   3.081   6.749   4.440
87698SOL     OW64925   8.846   3.337   2.452
87698SOL    HW164926   8.890   3.339   2.537
87698SOL    HW264927   8.840   3.244   2.430
87699SOL     OW64928   8.783   1.107  10.415
87699SOL    HW164929   8.730   1.057  10.353
87699SOL    HW264930   8.722   1.131  10.484
87700SOL     OW64931  14.516  14.427   5.608
87700SOL    HW164932  14.459  14.358   5.643
87700SOL    HW264933  14.466  14.466   5.536
87701SOL     OW64934  12.027  14.127   1.167
87701SOL    HW164935  12.084  14.145   1.242
87701SOL    HW264936  11.948  14.089   1.205
87702SOL     OW64937   0.200  10.873   2.052
87702SOL    HW164938   0.221  10.948   1.996
87702SOL    HW264939   0.283  10.852   2.095
87703SOL     OW64940   1.990  10.880  14.032
87703SOL    HW164941   1.939  10.952  14.069
87703SOL    HW264942   2.036  10.842  14.107
87704SOL     OW64943   1.406  13.112  11.337
87704SOL    HW164944   1.389  13.044  11.402
87704SOL    HW264945   1.319  13.145  11.314
87705SOL     OW64946   5.973  10.278   9.837
87705SOL    HW164947   5.942  10.362   9.804
87705SOL    HW264948   5.956  10.216   9.766
87706SOL     OW64949   3.656   0.620   7.410
87706SOL    HW164950   3.658   0.706   7.366
87706SOL    HW264951   3.605   0.564   7.350
87707SOL     OW64952   4.511  14.201   7.366
87707SOL    HW164953   4.578  14.135   7.380
87707SOL    HW264954   4.490  14.233   7.453
87708SOL     OW64955   6.745   6.672  10.564
87708SOL    HW164956   6.656   6.637  10.550
87708SOL    HW264957   6.731   6.762  10.592
87709SOL     OW64958   8.919   6.710   5.395
87709SOL    HW164959   8.992   6.770   5.406
87709SOL    HW264960   8.885   6.698   5.483
87710SOL     OW64961   7.185   6.031  12.965
87710SOL    HW164962   7.092   6.035  12.984
87710SOL    HW264963   7.191   6.046  12.870
87711SOL     OW64964   8.260   9.850   4.936
87711SOL    HW164965   8.322   9.813   4.999
87711SOL    HW264966   8.244   9.778   4.874
87712SOL     OW64967   5.382   1.787   9.227
87712SOL    HW164968   5.343   1.700   9.241
87712SOL    HW264969   5.316   1.835   9.178
87713SOL     OW64970   7.782   6.075   6.889
87713SOL    HW164971   7.782   6.139   6.959
87713SOL    HW264972   7.703   6.096   6.838
87714SOL     OW64973   8.518   1.923   1.811
87714SOL    HW164974   8.505   2.009   1.852
87714SOL    HW264975   8.578   1.877   1.869
87715SOL     OW64976   5.825   5.248   4.599
87715SOL    HW164977   5.736   5.225   4.625
87715SOL    HW264978   5.816   5.332   4.554
87716SOL     OW64979  13.221  10.144  12.956
87716SOL    HW164980  13.223  10.236  12.984
87716SOL    HW264981  13.312  10.116  12.958
87717SOL     OW64982   1.279  12.173  10.644
87717SOL    HW164983   1.192  12.143  10.670
87717SOL    HW264984   1.262  12.254  10.596
87718SOL     OW64985   4.653   1.028   4.821
87718SOL    HW164986   4.660   0.933   4.811
87718SOL    HW264987   4.631   1.060   4.733
87719SOL     OW64988  13.651   3.231   0.967
87719SOL    HW164989  13.611   3.250   0.882
87719SOL    HW264990  13.621   3.142   0.988
87720SOL     OW64991   2.295   3.573   8.810
87720SOL    HW164992   2.251   3.493   8.781
87720SOL    HW264993   2.386   3.545   8.826
87721SOL     OW64994  14.748   4.257  10.031
87721SOL    HW164995  14.699   4.269  10.112
87721SOL    HW264996  14.839   4.270  10.056
87722SOL     OW64997   8.913   9.132  11.055
87722SOL    HW164998   8.984   9.119  11.117
87722SOL    HW264999   8.853   9.191  11.101
87723SOL     OW65000  14.739   4.114   6.104
87723SOL    HW165001  14.703   4.031   6.137
87723SOL    HW265002  14.694   4.181   6.155
87724SOL     OW65003   8.448   9.949   6.365
87724SOL    HW165004   8.376   9.916   6.418
87724SOL    HW265005   8.408  10.013   6.306
87725SOL     OW65006  11.014  10.807   9.799
87725SOL    HW165007  11.014  10.724   9.752
87725SOL    HW265008  10.988  10.872   9.734
87726SOL     OW65009  14.251   2.572  13.662
87726SOL    HW165010  14.156   2.570  13.673
87726SOL    HW265011  14.281   2.631  13.731
87727SOL     OW65012   7.981   7.764   9.304
87727SOL    HW165013   7.993   7.687   9.248
87727SOL    HW265014   7.916   7.817   9.258
87728SOL     OW65015   9.575   7.594  10.124
87728SOL    HW165016   9.640   7.631  10.184
87728SOL    HW265017   9.532   7.670  10.085
87729SOL     OW65018   5.835  10.574  13.981
87729SOL    HW165019   5.783  10.590  14.060
87729SOL    HW265020   5.783  10.612  13.910
87730SOL     OW65021   2.844  13.772  14.179
87730SOL    HW165022   2.885  13.733  14.102
87730SOL    HW265023   2.811  13.698  14.229
87731SOL     OW65024   1.465   0.056  12.994
87731SOL    HW165025   1.556   0.072  12.971
87731SOL    HW265026   1.442  14.852  12.946
87732SOL     OW65027  14.192   0.496   8.470
87732SOL    HW165028  14.126   0.561   8.445
87732SOL    HW265029  14.232   0.532   8.550
87733SOL     OW65030   2.070  10.194   2.491
87733SOL    HW165031   2.033  10.139   2.560
87733SOL    HW265032   1.995  10.221   2.439
87734SOL     OW65033   9.198   8.425   1.580
87734SOL    HW165034   9.139   8.429   1.655
87734SOL    HW265035   9.184   8.507   1.534
87735SOL     OW65036   7.373   8.140  13.657
87735SOL    HW165037   7.410   8.059  13.623
87735SOL    HW265038   7.380   8.202  13.584
87736SOL     OW65039   4.165   7.567  13.472
87736SOL    HW165040   4.136   7.493  13.525
87736SOL    HW265041   4.089   7.591  13.420
87737SOL     OW65042  11.332  12.882   1.419
87737SOL    HW165043  11.246  12.878   1.377
87737SOL    HW265044  11.391  12.840   1.356
87738SOL     OW65045   8.889   1.970   4.304
87738SOL    HW165046   8.944   1.921   4.243
87738SOL    HW265047   8.942   2.046   4.329
87739SOL     OW65048   8.758   8.729   9.252
87739SOL    HW165049   8.720   8.684   9.177
87739SOL    HW265050   8.794   8.659   9.306
87740SOL     OW65051  14.107   7.445   6.135
87740SOL    HW165052  14.167   7.405   6.072
87740SOL    HW265053  14.164   7.496   6.194
87741SOL     OW65054   9.661   8.414   4.918
87741SOL    HW165055   9.703   8.476   4.978
87741SOL    HW265056   9.728   8.349   4.899
87742SOL     OW65057   8.699   8.809   5.191
87742SOL    HW165058   8.713   8.875   5.259
87742SOL    HW265059   8.636   8.748   5.228
87743SOL     OW65060   4.660  12.451   8.635
87743SOL    HW165061   4.665  12.380   8.699
87743SOL    HW265062   4.638  12.528   8.687
87744SOL     OW65063   8.067   0.677  13.811
87744SOL    HW165064   8.144   0.701  13.862
87744SOL    HW265065   8.070   0.735  13.734
87745SOL     OW65066   5.133   0.493  11.037
87745SOL    HW165067   5.124   0.403  11.006
87745SOL    HW265068   5.219   0.521  11.006
87746SOL     OW65069   3.139   3.021   8.323
87746SOL    HW165070   3.174   3.057   8.241
87746SOL    HW265071   3.215   3.015   8.381
87747SOL     OW65072  14.430   9.973  14.404
87747SOL    HW165073  14.401   9.984  14.314
87747SOL    HW265074  14.501   9.909  14.400
87748SOL     OW65075   4.879   5.809   0.188
87748SOL    HW165076   4.872   5.743   0.257
87748SOL    HW265077   4.909   5.760   0.111
87749SOL     OW65078  11.123   2.256   1.969
87749SOL    HW165079  11.213   2.222   1.970
87749SOL    HW265080  11.131   2.346   1.939
87750SOL     OW65081   3.674   1.764   3.076
87750SOL    HW165082   3.588   1.801   3.061
87750SOL    HW265083   3.704   1.802   3.158
87751SOL     OW65084   2.355  10.909   8.303
87751SOL    HW165085   2.385  10.832   8.256
87751SOL    HW265086   2.435  10.958   8.322
87752SOL     OW65087   5.662  13.829  14.177
87752SOL    HW165088   5.670  13.917  14.140
87752SOL    HW265089   5.751  13.806  14.202
87753SOL     OW65090   0.653   6.622  13.140
87753SOL    HW165091   0.730   6.572  13.112
87753SOL    HW265092   0.580   6.562  13.127
87754SOL     OW65093  13.222   0.328   3.140
87754SOL    HW165094  13.208   0.252   3.196
87754SOL    HW265095  13.262   0.394   3.197
87755SOL     OW65096  12.821   4.303   2.195
87755SOL    HW165097  12.823   4.304   2.100
87755SOL    HW265098  12.911   4.283   2.222
87756SOL     OW65099  11.931  13.731  12.228
87756SOL    HW165100  11.970  13.787  12.295
87756SOL    HW265101  12.005  13.704  12.174
87757SOL     OW65102   4.978   0.583   6.055
87757SOL    HW165103   4.901   0.540   6.094
87757SOL    HW265104   4.944   0.629   5.978
87758SOL     OW65105   7.586   1.686  13.575
87758SOL    HW165106   7.517   1.633  13.536
87758SOL    HW265107   7.540   1.759  13.617
87759SOL     OW65108   4.483   3.062  13.980
87759SOL    HW165109   4.566   3.075  13.934
87759SOL    HW265110   4.455   3.151  14.003
87760SOL     OW65111   5.954   9.186   4.293
87760SOL    HW165112   5.906   9.261   4.258
87760SOL    HW265113   6.032   9.180   4.237
87761SOL     OW65114  13.551  10.177   2.769
87761SOL    HW165115  13.521  10.168   2.678
87761SOL    HW265116  13.475  10.210   2.817
87762SOL     OW65117   7.784   6.363  10.181
87762SOL    HW165118   7.756   6.411  10.104
87762SOL    HW265119   7.833   6.427  10.233
87763SOL     OW65120   4.475   4.832   1.898
87763SOL    HW165121   4.501   4.864   1.984
87763SOL    HW265122   4.466   4.737   1.909
87764SOL     OW65123   4.218   6.595   2.185
87764SOL    HW165124   4.252   6.677   2.149
87764SOL    HW265125   4.135   6.619   2.226
87765SOL     OW65126   3.929   7.384  13.268
87765SOL    HW165127   3.866   7.403  13.199
87765SOL    HW265128   3.984   7.314  13.233
87766SOL     OW65129  10.902  11.175  14.870
87766SOL    HW165130  10.842  11.124  14.815
87766SOL    HW265131  10.962  11.216  14.809
87767SOL     OW65132   5.190   4.197   2.692
87767SOL    HW165133   5.167   4.227   2.604
87767SOL    HW265134   5.134   4.121   2.708
87768SOL     OW65135  14.104   8.805   9.664
87768SOL    HW165136  14.103   8.893   9.627
87768SOL    HW265137  14.123   8.748   9.589
87769SOL     OW65138   7.284   9.697  12.528
87769SOL    HW165139   7.249   9.673  12.442
87769SOL    HW265140   7.227   9.652  12.590
87770SOL     OW65141   2.287  13.733  14.157
87770SOL    HW165142   2.259  13.776  14.077
87770SOL    HW265143   2.344  13.661  14.128
87771SOL     OW65144   2.206   0.121   7.196
87771SOL    HW165145   2.154   0.078   7.264
87771SOL    HW265146   2.236   0.049   7.140
87772SOL     OW65147   3.636  11.951   1.806
87772SOL    HW165148   3.577  11.959   1.880
87772SOL    HW265149   3.703  12.018   1.820
87773SOL     OW65150   6.067   4.069   1.878
87773SOL    HW165151   6.013   4.147   1.864
87773SOL    HW265152   6.111   4.055   1.794
87774SOL     OW65153  10.849  13.939  10.859
87774SOL    HW165154  10.853  14.021  10.810
87774SOL    HW265155  10.898  13.957  10.939
87775SOL     OW65156   9.301   6.692   3.547
87775SOL    HW165157   9.359   6.665   3.618
87775SOL    HW265158   9.288   6.786   3.561
87776SOL     OW65159   3.003   3.553   0.778
87776SOL    HW165160   2.928   3.505   0.742
87776SOL    HW265161   3.072   3.541   0.713
87777SOL     OW65162   4.354  14.768   5.262
87777SOL    HW165163   4.361  14.856   5.301
87777SOL    HW265164   4.328  14.712   5.335
87778SOL     OW65165   5.083   7.252   0.284
87778SOL    HW165166   5.050   7.337   0.313
87778SOL    HW265167   5.146   7.272   0.216
87779SOL     OW65168  14.148  11.799   1.058
87779SOL    HW165169  14.090  11.799   1.134
87779SOL    HW265170  14.236  11.808   1.095
87780SOL     OW65171   7.472   0.750  14.297
87780SOL    HW165172   7.484   0.692  14.222
87780SOL    HW265173   7.422   0.824  14.263
87781SOL     OW65174  11.024   8.085   1.161
87781SOL    HW165175  11.010   7.996   1.128
87781SOL    HW265176  10.943   8.106   1.207
87782SOL     OW65177   8.818   6.871  11.993
87782SOL    HW165178   8.814   6.895  11.900
87782SOL    HW265179   8.860   6.785  11.994
87783SOL     OW65180   1.571   1.334  14.526
87783SOL    HW165181   1.477   1.348  14.536
87783SOL    HW265182   1.590   1.257  14.580
87784SOL     OW65183   0.289   4.455   8.110
87784SOL    HW165184   0.236   4.478   8.033
87784SOL    HW265185   0.276   4.361   8.121
87785SOL     OW65186   8.035   8.679   5.581
87785SOL    HW165187   8.040   8.645   5.492
87785SOL    HW265188   7.951   8.725   5.585
87786SOL     OW65189   2.767   7.225  12.117
87786SOL    HW165190   2.847   7.174  12.127
87786SOL    HW265191   2.779   7.272  12.034
87787SOL     OW65192   0.785  11.256  14.261
87787SOL    HW165193   0.806  11.328  14.320
87787SOL    HW265194   0.696  11.275  14.231
87788SOL     OW65195   5.887   4.930   4.064
87788SOL    HW165196   5.974   4.896   4.082
87788SOL    HW265197   5.839   4.918   4.146
87789SOL     OW65198   5.523   5.260   9.670
87789SOL    HW165199   5.515   5.232   9.761
87789SOL    HW265200   5.479   5.345   9.667
87790SOL     OW65201  10.241   8.720   9.261
87790SOL    HW165202  10.221   8.770   9.340
87790SOL    HW265203  10.332   8.692   9.274
87791SOL     OW65204   4.170  14.863   7.855
87791SOL    HW165205   4.105   0.054   7.877
87791SOL    HW265206   4.135  14.782   7.891
87792SOL     OW65207   5.363  10.820  10.606
87792SOL    HW165208   5.356  10.910  10.637
87792SOL    HW265209   5.414  10.827  10.525
87793SOL     OW65210   7.886  10.442   1.629
87793SOL    HW165211   7.855  10.385   1.699
87793SOL    HW265212   7.946  10.388   1.578
87794SOL     OW65213  11.903  14.373   4.430
87794SOL    HW165214  11.861  14.288   4.447
87794SOL    HW265215  11.980  14.372   4.486
87795SOL     OW65216   2.799   3.390   4.579
87795SOL    HW165217   2.771   3.481   4.573
87795SOL    HW265218   2.737   3.342   4.525
87796SOL     OW65219   2.654   0.167   7.678
87796SOL    HW165220   2.585   0.193   7.739
87796SOL    HW265221   2.621   0.087   7.637
87797SOL     OW65222   6.262   9.393   8.311
87797SOL    HW165223   6.260   9.339   8.231
87797SOL    HW265224   6.320   9.345   8.370
87798SOL     OW65225   7.763   5.916   9.641
87798SOL    HW165226   7.839   5.868   9.672
87798SOL    HW265227   7.777   5.926   9.547
87799SOL     OW65228   1.019   2.227   7.752
87799SOL    HW165229   0.988   2.174   7.826
87799SOL    HW265230   1.049   2.162   7.688
87800SOL     OW65231  12.225   5.633   7.858
87800SOL    HW165232  12.308   5.594   7.830
87800SOL    HW265233  12.245   5.726   7.870
87801SOL     OW65234   2.395  14.767   6.213
87801SOL    HW165235   2.395  14.833   6.143
87801SOL    HW265236   2.443  14.809   6.285
87802SOL     OW65237  12.993  14.714   7.745
87802SOL    HW165238  13.030  14.771   7.677
87802SOL    HW265239  13.005  14.762   7.826
87803SOL     OW65240   1.994   0.185  14.403
87803SOL    HW165241   2.082   0.216  14.383
87803SOL    HW265242   2.005   0.093  14.424
87804SOL     OW65243   9.178   3.677  11.439
87804SOL    HW165244   9.111   3.648  11.377
87804SOL    HW265245   9.229   3.742  11.391
87805SOL     OW65246   5.862   2.772  11.477
87805SOL    HW165247   5.869   2.784  11.572
87805SOL    HW265248   5.880   2.859  11.441
87806SOL     OW65249  10.563  11.788  11.418
87806SOL    HW165250  10.549  11.775  11.511
87806SOL    HW265251  10.494  11.848  11.391
87807SOL     OW65252   7.625   9.959   4.352
87807SOL    HW165253   7.715   9.927   4.349
87807SOL    HW265254   7.622  10.017   4.429
87808SOL     OW65255   5.870   4.667  12.050
87808SOL    HW165256   5.962   4.665  12.077
87808SOL    HW265257   5.822   4.633  12.126
87809SOL     OW65258   9.495  10.166  11.132
87809SOL    HW165259   9.476  10.249  11.088
87809SOL    HW265260   9.442  10.169  11.212
87810SOL     OW65261  10.910   1.796   1.517
87810SOL    HW165262  11.004   1.781   1.526
87810SOL    HW265263  10.892   1.778   1.425
87811SOL     OW65264   6.649   7.706   2.488
87811SOL    HW165265   6.578   7.748   2.538
87811SOL    HW265266   6.690   7.647   2.551
87812SOL     OW65267  14.818   3.349  12.668
87812SOL    HW165268  14.826   3.372  12.761
87812SOL    HW265269   0.033   3.345  12.637
87813SOL     OW65270   4.159   8.364   7.564
87813SOL    HW165271   4.142   8.349   7.471
87813SOL    HW265272   4.141   8.457   7.577
87814SOL     OW65273   8.076  14.092  10.050
87814SOL    HW165274   8.068  14.154   9.977
87814SOL    HW265275   8.150  14.124  10.101
87815SOL     OW65276   4.065  11.852   4.504
87815SOL    HW165277   4.142  11.815   4.547
87815SOL    HW265278   4.021  11.777   4.464
87816SOL     OW65279  12.643   1.057   1.283
87816SOL    HW165280  12.600   1.086   1.364
87816SOL    HW265281  12.736   1.072   1.299
87817SOL     OW65282   3.346   5.740   4.443
87817SOL    HW165283   3.320   5.663   4.493
87817SOL    HW265284   3.365   5.707   4.356
87818SOL     OW65285   8.997  12.594   5.509
87818SOL    HW165286   8.976  12.518   5.454
87818SOL    HW265287   9.023  12.556   5.593
87819SOL     OW65288  14.484  14.854  11.740
87819SOL    HW165289  14.428  14.837  11.816
87819SOL    HW265290  14.507  14.767  11.707
87820SOL     OW65291   6.484   0.296  14.612
87820SOL    HW165292   6.533   0.346  14.678
87820SOL    HW265293   6.530   0.312  14.530
87821SOL     OW65294  11.778   9.755  14.523
87821SOL    HW165295  11.742   9.836  14.560
87821SOL    HW265296  11.873   9.770  14.522
87822SOL     OW65297   1.869  13.200   6.327
87822SOL    HW165298   1.797  13.244   6.372
87822SOL    HW265299   1.948  13.239   6.366
87823SOL     OW65300  10.611   9.832   4.290
87823SOL    HW165301  10.669   9.806   4.218
87823SOL    HW265302  10.554   9.898   4.251
87824SOL     OW65303   3.332   0.780   4.130
87824SOL    HW165304   3.403   0.837   4.158
87824SOL    HW265305   3.252   0.830   4.147
87825SOL     OW65306  10.429   0.271  14.355
87825SOL    HW165307  10.437   0.271  14.450
87825SOL    HW265308  10.448   0.361  14.328
87826SOL     OW65309  11.855   3.790  14.134
87826SOL    HW165310  11.765   3.777  14.163
87826SOL    HW265311  11.897   3.705  14.147
87827SOL     OW65312   9.461   2.704   0.693
87827SOL    HW165313   9.522   2.712   0.620
87827SOL    HW265314   9.483   2.777   0.751
87828SOL     OW65315  10.140   6.727   2.628
87828SOL    HW165316  10.207   6.660   2.638
87828SOL    HW265317  10.187   6.804   2.595
87829SOL     OW65318  12.553   9.930  12.106
87829SOL    HW165319  12.601  10.002  12.065
87829SOL    HW265320  12.596   9.918  12.190
87830SOL     OW65321  11.802  14.161   3.709
87830SOL    HW165322  11.863  14.233   3.727
87830SOL    HW265323  11.716  14.203   3.709
87831SOL     OW65324  11.015   8.107   8.781
87831SOL    HW165325  11.050   8.165   8.848
87831SOL    HW265326  11.083   8.041   8.769
87832SOL     OW65327   0.015   8.088   7.629
87832SOL    HW165328  14.835   8.165   7.639
87832SOL    HW265329   0.062   8.103   7.547
87833SOL     OW65330   2.546   8.974   4.254
87833SOL    HW165331   2.491   8.897   4.241
87833SOL    HW265332   2.557   9.011   4.166
87834SOL     OW65333   2.971   4.546  10.702
87834SOL    HW165334   3.016   4.626  10.731
87834SOL    HW265335   3.023   4.516  10.627
87835SOL     OW65336  10.783   1.243   8.615
87835SOL    HW165337  10.706   1.190   8.634
87835SOL    HW265338  10.768   1.325   8.662
87836SOL     OW65339   7.783   6.819   4.497
87836SOL    HW165340   7.734   6.827   4.415
87836SOL    HW265341   7.804   6.909   4.522
87837SOL     OW65342   0.757   8.480   3.139
87837SOL    HW165343   0.741   8.434   3.056
87837SOL    HW265344   0.672   8.482   3.182
87838SOL     OW65345   6.859   7.701   4.104
87838SOL    HW165346   6.797   7.634   4.132
87838SOL    HW265347   6.891   7.739   4.186
87839SOL     OW65348   2.779   1.164   5.175
87839SOL    HW165349   2.874   1.168   5.173
87839SOL    HW265350   2.758   1.074   5.151
87840SOL     OW65351   8.540  10.363   8.899
87840SOL    HW165352   8.568  10.380   8.809
87840SOL    HW265353   8.552  10.269   8.911
87841SOL     OW65354  11.864   5.648   1.633
87841SOL    HW165355  11.888   5.573   1.579
87841SOL    HW265356  11.883   5.724   1.577
87842SOL     OW65357  14.398   3.811   3.896
87842SOL    HW165358  14.332   3.770   3.952
87842SOL    HW265359  14.450   3.738   3.863
87843SOL     OW65360   7.385  11.525   6.862
87843SOL    HW165361   7.312  11.488   6.814
87843SOL    HW265362   7.402  11.609   6.819
87844SOL     OW65363   7.120   8.539   9.143
87844SOL    HW165364   7.035   8.584   9.150
87844SOL    HW265365   7.161   8.578   9.066
87845SOL     OW65366  12.755   1.529   4.845
87845SOL    HW165367  12.770   1.479   4.764
87845SOL    HW265368  12.843   1.546   4.879
87846SOL     OW65369   3.571   6.071   0.969
87846SOL    HW165370   3.558   6.141   1.033
87846SOL    HW265371   3.550   5.990   1.017
87847SOL     OW65372   8.986   0.594   4.898
87847SOL    HW165373   8.923   0.663   4.878
87847SOL    HW265374   9.013   0.560   4.812
87848SOL     OW65375   3.573   6.119   8.901
87848SOL    HW165376   3.497   6.177   8.905
87848SOL    HW265377   3.623   6.151   8.826
87849SOL     OW65378   2.293   1.485   2.935
87849SOL    HW165379   2.369   1.466   2.880
87849SOL    HW265380   2.317   1.452   3.021
87850SOL     OW65381   6.202  13.932   8.385
87850SOL    HW165382   6.279  13.894   8.426
87850SOL    HW265383   6.237  13.998   8.325
87851SOL     OW65384   5.467  11.109   7.152
87851SOL    HW165385   5.398  11.116   7.217
87851SOL    HW265386   5.530  11.048   7.190
87852SOL     OW65387   6.708   1.421   4.690
87852SOL    HW165388   6.726   1.475   4.767
87852SOL    HW265389   6.619   1.444   4.665
87853SOL     OW65390   8.604   6.461   9.424
87853SOL    HW165391   8.633   6.551   9.415
87853SOL    HW265392   8.684   6.409   9.417
87854SOL     OW65393  10.925   9.031   0.421
87854SOL    HW165394  10.874   9.029   0.340
87854SOL    HW265395  10.992   8.964   0.409
87855SOL     OW65396   0.721  12.550   2.713
87855SOL    HW165397   0.787  12.615   2.692
87855SOL    HW265398   0.680  12.582   2.793
87856SOL     OW65399  12.123  14.019  11.423
87856SOL    HW165400  12.085  13.942  11.465
87856SOL    HW265401  12.139  13.992  11.332
87857SOL     OW65402   3.085   5.178  11.830
87857SOL    HW165403   3.063   5.263  11.791
87857SOL    HW265404   3.181   5.175  11.827
87858SOL     OW65405   9.593   4.819   5.781
87858SOL    HW165406   9.602   4.724   5.788
87858SOL    HW265407   9.567   4.835   5.690
87859SOL     OW65408  12.181   0.193  10.953
87859SOL    HW165409  12.272   0.161  10.953
87859SOL    HW265410  12.131   0.119  10.918
87860SOL     OW65411   2.105   7.157   7.512
87860SOL    HW165412   2.068   7.083   7.464
87860SOL    HW265413   2.036   7.224   7.509
87861SOL     OW65414   2.046   9.319   9.544
87861SOL    HW165415   2.084   9.364   9.619
87861SOL    HW265416   2.020   9.390   9.485
87862SOL     OW65417  12.231  14.375   3.772
87862SOL    HW165418  12.265  14.461   3.749
87862SOL    HW265419  12.191  14.342   3.691
87863SOL     OW65420  10.347   6.196  12.590
87863SOL    HW165421  10.372   6.288  12.598
87863SOL    HW265422  10.415   6.148  12.637
87864SOL     OW65423   5.945   3.875   3.127
87864SOL    HW165424   5.907   3.928   3.056
87864SOL    HW265425   6.027   3.920   3.149
87865SOL     OW65426  13.393  10.999  12.445
87865SOL    HW165427  13.381  11.092  12.428
87865SOL    HW265428  13.460  10.995  12.514
87866SOL     OW65429   7.693   4.410  13.689
87866SOL    HW165430   7.646   4.483  13.647
87866SOL    HW265431   7.698   4.435  13.781
87867SOL     OW65432   8.865  10.699   4.876
87867SOL    HW165433   8.813  10.670   4.801
87867SOL    HW265434   8.820  10.662   4.952
87868SOL     OW65435   4.852  13.830   8.025
87868SOL    HW165436   4.834  13.806   8.116
87868SOL    HW265437   4.765  13.843   7.987
87869SOL     OW65438   9.326  11.432   6.642
87869SOL    HW165439   9.422  11.428   6.645
87869SOL    HW265440   9.298  11.386   6.721
87870SOL     OW65441  12.144  11.297   3.710
87870SOL    HW165442  12.159  11.387   3.680
87870SOL    HW265443  12.065  11.269   3.664
87871SOL     OW65444   3.093   1.886   3.733
87871SOL    HW165445   3.020   1.872   3.793
87871SOL    HW265446   3.122   1.798   3.710
87872SOL     OW65447  13.790   1.173   4.480
87872SOL    HW165448  13.822   1.243   4.423
87872SOL    HW265449  13.712   1.140   4.436
87873SOL     OW65450   7.842   4.763  10.086
87873SOL    HW165451   7.873   4.853  10.094
87873SOL    HW265452   7.813   4.739  10.174
87874SOL     OW65453   0.856  13.106   6.589
87874SOL    HW165454   0.835  13.013   6.588
87874SOL    HW265455   0.951  13.110   6.592
87875SOL     OW65456   9.538   7.968   9.188
87875SOL    HW165457   9.450   7.985   9.155
87875SOL    HW265458   9.554   7.876   9.167
87876SOL     OW65459   0.383   5.557   2.144
87876SOL    HW165460   0.440   5.504   2.200
87876SOL    HW265461   0.424   5.553   2.058
87877SOL     OW65462   7.069   8.897  13.700
87877SOL    HW165463   7.044   8.804  13.696
87877SOL    HW265464   7.163   8.896  13.717
87878SOL     OW65465  14.270   5.414   1.433
87878SOL    HW165466  14.351   5.464   1.425
87878SOL    HW265467  14.241   5.430   1.523
87879SOL     OW65468  14.351   1.789  10.054
87879SOL    HW165469  14.342   1.735  10.133
87879SOL    HW265470  14.264   1.788  10.014
87880SOL     OW65471  12.170   5.934   1.685
87880SOL    HW165472  12.077   5.916   1.702
87880SOL    HW265473  12.171   5.967   1.595
87881SOL     OW65474   4.180  14.206  12.538
87881SOL    HW165475   4.119  14.215  12.611
87881SOL    HW265476   4.261  14.245  12.569
87882SOL     OW65477   3.220  13.047   7.513
87882SOL    HW165478   3.132  13.009   7.518
87882SOL    HW265479   3.269  13.003   7.582
87883SOL     OW65480  11.849   9.009   0.534
87883SOL    HW165481  11.762   9.011   0.572
87883SOL    HW265482  11.858   9.095   0.491
87884SOL     OW65483   2.739   1.284  13.748
87884SOL    HW165484   2.758   1.192  13.763
87884SOL    HW265485   2.782   1.304  13.665
87885SOL     OW65486  10.598  10.615   0.117
87885SOL    HW165487  10.575  10.544   0.057
87885SOL    HW265488  10.549  10.690   0.084
87886SOL     OW65489   9.429   7.323  10.699
87886SOL    HW165490   9.354   7.374  10.670
87886SOL    HW265491   9.414   7.235  10.664
87887SOL     OW65492   6.464   3.836  10.273
87887SOL    HW165493   6.519   3.772  10.318
87887SOL    HW265494   6.484   3.920  10.316
87888SOL     OW65495   0.633  13.611   9.603
87888SOL    HW165496   0.613  13.599   9.696
87888SOL    HW265497   0.550  13.639   9.564
87889SOL     OW65498   3.996  14.213  12.965
87889SOL    HW165499   3.986  14.300  12.927
87889SOL    HW265500   4.091  14.203  12.977
87890SOL     OW65501  14.453   4.802  12.426
87890SOL    HW165502  14.506   4.729  12.394
87890SOL    HW265503  14.433   4.780  12.516
87891SOL     OW65504   8.845  14.167   8.243
87891SOL    HW165505   8.813  14.079   8.225
87891SOL    HW265506   8.766  14.216   8.269
87892SOL     OW65507   4.688   8.899   8.766
87892SOL    HW165508   4.763   8.847   8.738
87892SOL    HW265509   4.633   8.838   8.815
87893SOL     OW65510   5.173   3.861  12.932
87893SOL    HW165511   5.194   3.872  12.839
87893SOL    HW265512   5.212   3.778  12.956
87894SOL     OW65513   6.817  10.794  11.288
87894SOL    HW165514   6.869  10.739  11.346
87894SOL    HW265515   6.825  10.882  11.325
87895SOL     OW65516   9.689   7.683  14.705
87895SOL    HW165517   9.674   7.748  14.774
87895SOL    HW265518   9.729   7.609  14.751
87896SOL     OW65519  11.730  14.067   6.151
87896SOL    HW165520  11.718  13.973   6.133
87896SOL    HW265521  11.764  14.071   6.240
87897SOL     OW65522   4.492  14.778   6.893
87897SOL    HW165523   4.406  14.821   6.888
87897SOL    HW265524   4.486  14.723   6.972
87898SOL     OW65525  10.500  14.720   4.555
87898SOL    HW165526  10.594  14.702   4.553
87898SOL    HW265527  10.464  14.665   4.486
87899SOL     OW65528   2.829   6.951   1.753
87899SOL    HW165529   2.861   6.874   1.799
87899SOL    HW265530   2.788   7.004   1.822
87900SOL     OW65531   4.084  12.518   1.704
87900SOL    HW165532   4.030  12.558   1.772
87900SOL    HW265533   4.171  12.556   1.716
87901SOL     OW65534  14.184   7.098   8.036
87901SOL    HW165535  14.165   7.063   7.948
87901SOL    HW265536  14.262   7.051   8.064
87902SOL     OW65537   0.698   1.991   0.692
87902SOL    HW165538   0.631   2.031   0.638
87902SOL    HW265539   0.776   1.989   0.637
87903SOL     OW65540   5.736  13.057   2.266
87903SOL    HW165541   5.722  12.965   2.247
87903SOL    HW265542   5.738  13.061   2.362
87904SOL     OW65543   0.390   1.307  10.855
87904SOL    HW165544   0.462   1.302  10.919
87904SOL    HW265545   0.349   1.392  10.871
87905SOL     OW65546   8.872  14.525   4.560
87905SOL    HW165547   8.862  14.580   4.638
87905SOL    HW265548   8.833  14.441   4.586
87906SOL     OW65549   0.621  11.166  11.413
87906SOL    HW165550   0.545  11.206  11.371
87906SOL    HW265551   0.672  11.130  11.340
87907SOL     OW65552   3.435   0.796   7.713
87907SOL    HW165553   3.391   0.790   7.629
87907SOL    HW265554   3.428   0.708   7.750
87908SOL     OW65555  11.196  13.976   9.378
87908SOL    HW165556  11.247  13.923   9.440
87908SOL    HW265557  11.260  14.007   9.314
87909SOL     OW65558  14.864  12.983   7.649
87909SOL    HW165559   0.016  12.950   7.735
87909SOL    HW265560  14.875  12.908   7.590
87910SOL     OW65561   3.479  14.476   7.351
87910SOL    HW165562   3.459  14.525   7.431
87910SOL    HW265563   3.533  14.536   7.300
87911SOL     OW65564   3.695   7.146   6.095
87911SOL    HW165565   3.633   7.114   6.161
87911SOL    HW265566   3.707   7.072   6.036
87912SOL     OW65567   2.653   7.641  12.298
87912SOL    HW165568   2.566   7.609  12.321
87912SOL    HW265569   2.711   7.566  12.312
87913SOL     OW65570   0.273  13.535   4.887
87913SOL    HW165571   0.273  13.628   4.865
87913SOL    HW265572   0.238  13.492   4.809
87914SOL     OW65573  11.243   1.468  14.544
87914SOL    HW165574  11.197   1.542  14.585
87914SOL    HW265575  11.215   1.392  14.594
87915SOL     OW65576   7.069  13.282   5.159
87915SOL    HW165577   7.151  13.311   5.200
87915SOL    HW265578   7.096  13.227   5.086
87916SOL     OW65579   2.710   5.988   9.490
87916SOL    HW165580   2.628   5.944   9.469
87916SOL    HW265581   2.765   5.973   9.413
87917SOL     OW65582   3.664  11.470   1.383
87917SOL    HW165583   3.721  11.500   1.312
87917SOL    HW265584   3.722  11.462   1.459
87918SOL     OW65585  14.485   4.835   5.538
87918SOL    HW165586  14.492   4.741   5.525
87918SOL    HW265587  14.574   4.868   5.525
87919SOL     OW65588   2.876   0.040   3.422
87919SOL    HW165589   2.889  14.823   3.441
87919SOL    HW265590   2.863   0.043   3.328
87920SOL     OW65591   8.989   1.439  14.345
87920SOL    HW165592   8.988   1.372  14.277
87920SOL    HW265593   9.059   1.413  14.404
87921SOL     OW65594   3.533   7.205  11.943
87921SOL    HW165595   3.601   7.203  12.011
87921SOL    HW265596   3.567   7.267  11.878
87922SOL     OW65597   7.690  13.926   1.637
87922SOL    HW165598   7.671  13.892   1.724
87922SOL    HW265599   7.743  14.004   1.653
87923SOL     OW65600  11.682   7.825   9.449
87923SOL    HW165601  11.631   7.901   9.476
87923SOL    HW265602  11.773   7.853   9.457
87924SOL     OW65603   0.646   1.135   4.463
87924SOL    HW165604   0.573   1.181   4.421
87924SOL    HW265605   0.666   1.063   4.403
87925SOL     OW65606   0.470  10.832   3.117
87925SOL    HW165607   0.548  10.840   3.062
87925SOL    HW265608   0.495  10.869   3.201
87926SOL     OW65609   3.823   0.258   7.608
87926SOL    HW165610   3.784   0.346   7.611
87926SOL    HW265611   3.780   0.210   7.679
87927SOL     OW65612   5.038   5.009  11.765
87927SOL    HW165613   5.054   5.086  11.819
87927SOL    HW265614   4.952   5.024  11.726
87928SOL     OW65615   9.831   7.563   7.394
87928SOL    HW165616   9.851   7.594   7.483
87928SOL    HW265617   9.753   7.613   7.369
87929SOL     OW65618   4.980  10.353  11.025
87929SOL    HW165619   4.978  10.260  11.050
87929SOL    HW265620   5.063  10.385  11.062
87930SOL     OW65621  11.625   8.426  13.275
87930SOL    HW165622  11.611   8.339  13.313
87930SOL    HW265623  11.681   8.471  13.339
87931SOL     OW65624   9.109   9.433   4.127
87931SOL    HW165625   9.065   9.387   4.199
87931SOL    HW265626   9.163   9.499   4.171
87932SOL     OW65627   0.582   6.736   6.615
87932SOL    HW165628   0.648   6.719   6.682
87932SOL    HW265629   0.525   6.660   6.617
87933SOL     OW65630  14.166   8.147   6.541
87933SOL    HW165631  14.174   8.214   6.472
87933SOL    HW265632  14.142   8.068   6.494
87934SOL     OW65633   2.774  13.589  11.381
87934SOL    HW165634   2.858  13.591  11.335
87934SOL    HW265635   2.725  13.519  11.339
87935SOL     OW65636  13.327   8.100  11.693
87935SOL    HW165637  13.363   8.181  11.659
87935SOL    HW265638  13.403   8.043  11.707
87936SOL     OW65639   8.358   3.064   8.240
87936SOL    HW165640   8.268   3.077   8.211
87936SOL    HW265641   8.401   3.022   8.166
87937SOL     OW65642  12.815   5.025  14.542
87937SOL    HW165643  12.882   5.093  14.546
87937SOL    HW265644  12.864   4.943  14.553
87938SOL     OW65645   3.506  11.640  13.483
87938SOL    HW165646   3.521  11.552  13.447
87938SOL    HW265647   3.584  11.690  13.458
87939SOL     OW65648   6.538  12.057   2.262
87939SOL    HW165649   6.502  12.129   2.313
87939SOL    HW265650   6.467  12.031   2.203
87940SOL     OW65651  13.652  13.413  12.462
87940SOL    HW165652  13.647  13.484  12.397
87940SOL    HW265653  13.711  13.349  12.423
87941SOL     OW65654   0.994   1.727   3.311
87941SOL    HW165655   0.943   1.724   3.230
87941SOL    HW265656   1.020   1.818   3.320
87942SOL     OW65657   5.144   3.874  10.493
87942SOL    HW165658   5.090   3.861  10.571
87942SOL    HW265659   5.081   3.892  10.423
87943SOL     OW65660  11.410   5.915  13.307
87943SOL    HW165661  11.452   5.987  13.260
87943SOL    HW265662  11.348   5.878  13.245
87944SOL     OW65663   6.611  13.055   2.295
87944SOL    HW165664   6.572  13.018   2.215
87944SOL    HW265665   6.659  12.982   2.335
87945SOL     OW65666   1.531   1.980   8.569
87945SOL    HW165667   1.585   1.916   8.522
87945SOL    HW265668   1.463   1.928   8.611
87946SOL     OW65669   8.673  10.306   2.626
87946SOL    HW165670   8.763  10.275   2.626
87946SOL    HW265671   8.656  10.328   2.534
87947SOL     OW65672   2.486  13.981   7.206
87947SOL    HW165673   2.469  13.910   7.144
87947SOL    HW265674   2.555  13.947   7.263
87948SOL     OW65675   3.050   7.075   2.105
87948SOL    HW165676   3.063   7.169   2.122
87948SOL    HW265677   3.134   7.047   2.069
87949SOL     OW65678   7.535   1.577   3.725
87949SOL    HW165679   7.630   1.586   3.719
87949SOL    HW265680   7.521   1.500   3.780
87950SOL     OW65681  10.231   9.763   3.299
87950SOL    HW165682  10.296   9.759   3.369
87950SOL    HW265683  10.206   9.856   3.294
87951SOL     OW65684   6.790  12.847   7.394
87951SOL    HW165685   6.849  12.910   7.351
87951SOL    HW265686   6.765  12.891   7.476
87952SOL     OW65687  10.238   2.540   0.947
87952SOL    HW165688  10.290   2.618   0.966
87952SOL    HW265689  10.150   2.574   0.932
87953SOL     OW65690   8.633  10.749   7.655
87953SOL    HW165691   8.688  10.767   7.732
87953SOL    HW265692   8.544  10.750   7.690
87954SOL     OW65693   1.081  11.793  10.096
87954SOL    HW165694   1.129  11.875  10.097
87954SOL    HW265695   1.107  11.750  10.014
87955SOL     OW65696  12.729   2.597  14.744
87955SOL    HW165697  12.707   2.522  14.688
87955SOL    HW265698  12.808   2.634  14.705
87956SOL     OW65699  10.299   5.992   0.431
87956SOL    HW165700  10.362   6.063   0.444
87956SOL    HW265701  10.216   6.036   0.415
87957SOL     OW65702   9.462   1.047  12.335
87957SOL    HW165703   9.452   1.026  12.242
87957SOL    HW265704   9.490   0.965  12.376
87958SOL     OW65705  11.436   0.171   8.637
87958SOL    HW165706  11.369   0.121   8.590
87958SOL    HW265707  11.519   0.145   8.596
87959SOL     OW65708   9.916   6.897   9.667
87959SOL    HW165709   9.884   6.960   9.732
87959SOL    HW265710   9.847   6.830   9.663
87960SOL     OW65711   7.769   4.742   7.104
87960SOL    HW165712   7.856   4.762   7.137
87960SOL    HW265713   7.784   4.711   7.014
87961SOL     OW65714   6.943  10.396   9.337
87961SOL    HW165715   6.956  10.417   9.245
87961SOL    HW265716   7.001  10.322   9.354
87962SOL     OW65717   0.094   9.486  12.206
87962SOL    HW165718   0.038   9.428  12.258
87962SOL    HW265719   0.172   9.499  12.260
87963SOL     OW65720   8.933   5.151  12.085
87963SOL    HW165721   8.971   5.173  12.170
87963SOL    HW265722   8.976   5.209  12.023
87964SOL     OW65723   4.938   1.124   4.727
87964SOL    HW165724   4.885   1.073   4.788
87964SOL    HW265725   4.888   1.122   4.645
87965SOL     OW65726   9.440   3.695  13.924
87965SOL    HW165727   9.348   3.696  13.899
87965SOL    HW265728   9.453   3.777  13.971
87966SOL     OW65729   5.411  10.184   9.273
87966SOL    HW165730   5.321  10.217   9.263
87966SOL    HW265731   5.466  10.251   9.233
87967SOL     OW65732   3.509   5.002   9.090
87967SOL    HW165733   3.450   5.056   9.144
87967SOL    HW265734   3.566   4.959   9.153
87968SOL     OW65735   6.163   7.808  14.297
87968SOL    HW165736   6.179   7.770  14.384
87968SOL    HW265737   6.226   7.763  14.240
87969SOL     OW65738  14.652   4.054  10.782
87969SOL    HW165739  14.589   4.127  10.789
87969SOL    HW265740  14.704   4.059  10.862
87970SOL     OW65741  10.148   4.037  10.630
87970SOL    HW165742  10.064   4.043  10.585
87970SOL    HW265743  10.162   4.124  10.667
87971SOL     OW65744  11.469   9.827   8.270
87971SOL    HW165745  11.441   9.899   8.214
87971SOL    HW265746  11.517   9.768   8.212
87972SOL     OW65747   8.980   1.391   8.878
87972SOL    HW165748   8.924   1.386   8.801
87972SOL    HW265749   8.922   1.423   8.948
87973SOL     OW65750   9.604   7.586   5.745
87973SOL    HW165751   9.602   7.577   5.650
87973SOL    HW265752   9.687   7.629   5.763
87974SOL     OW65753   5.521   0.061   9.532
87974SOL    HW165754   5.498   0.106   9.451
87974SOL    HW265755   5.613   0.082   9.547
87975SOL     OW65756  12.721  13.254   4.501
87975SOL    HW165757  12.676  13.169   4.506
87975SOL    HW265758  12.709  13.293   4.588
87976SOL     OW65759   5.382   1.601  11.459
87976SOL    HW165760   5.318   1.561  11.400
87976SOL    HW265761   5.400   1.533  11.524
87977SOL     OW65762  13.154   2.569   1.600
87977SOL    HW165763  13.206   2.510   1.546
87977SOL    HW265764  13.088   2.513   1.642
87978SOL     OW65765   6.232   6.278  14.686
87978SOL    HW165766   6.293   6.311  14.752
87978SOL    HW265767   6.229   6.347  14.620
87979SOL     OW65768   4.471  12.138  11.964
87979SOL    HW165769   4.521  12.079  11.907
87979SOL    HW265770   4.497  12.226  11.936
87980SOL     OW65771   0.371   3.797   3.130
87980SOL    HW165772   0.304   3.760   3.073
87980SOL    HW265773   0.322   3.855   3.189
87981SOL     OW65774  14.407   7.578   2.583
87981SOL    HW165775  14.407   7.482   2.583
87981SOL    HW265776  14.486   7.602   2.632
87982SOL     OW65777  14.401   7.219  13.338
87982SOL    HW165778  14.385   7.230  13.244
87982SOL    HW265779  14.496   7.234  13.347
87983SOL     OW65780   2.778   7.525  13.551
87983SOL    HW165781   2.804   7.617  13.554
87983SOL    HW265782   2.847   7.482  13.501
87984SOL     OW65783   3.366   6.376   7.631
87984SOL    HW165784   3.375   6.411   7.720
87984SOL    HW265785   3.434   6.309   7.625
87985SOL     OW65786   8.757  12.101   9.604
87985SOL    HW165787   8.667  12.090   9.572
87985SOL    HW265788   8.794  12.013   9.602
87986SOL     OW65789   9.980   1.611   9.244
87986SOL    HW165790  10.013   1.614   9.334
87986SOL    HW265791  10.051   1.649   9.192
87987SOL     OW65792  14.818   5.814   6.071
87987SOL    HW165793   0.028   5.848   6.045
87987SOL    HW265794  14.833   5.721   6.087
87988SOL     OW65795   0.584   1.270   2.568
87988SOL    HW165796   0.527   1.281   2.644
87988SOL    HW265797   0.639   1.195   2.590
87989SOL     OW65798  13.139   7.983   2.498
87989SOL    HW165799  13.101   7.903   2.536
87989SOL    HW265800  13.174   7.955   2.414
87990SOL     OW65801   3.066   4.028   8.038
87990SOL    HW165802   3.135   4.015   7.972
87990SOL    HW265803   3.110   4.076   8.109
87991SOL     OW65804   5.921   0.091   6.758
87991SOL    HW165805   5.917  14.872   6.753
87991SOL    HW265806   5.915   0.120   6.667
87992SOL     OW65807   3.513   2.296   9.473
87992SOL    HW165808   3.513   2.201   9.458
87992SOL    HW265809   3.603   2.315   9.500
87993SOL     OW65810   5.539   3.340  13.288
87993SOL    HW165811   5.630   3.329  13.262
87993SOL    HW265812   5.498   3.382  13.212
87994SOL     OW65813  12.096  13.178  11.745
87994SOL    HW165814  12.152  13.237  11.694
87994SOL    HW265815  12.146  13.097  11.751
87995SOL     OW65816   1.996   2.434  10.767
87995SOL    HW165817   1.995   2.401  10.677
87995SOL    HW265818   1.992   2.529  10.758
87996SOL     OW65819   7.633   0.990   5.659
87996SOL    HW165820   7.549   0.972   5.701
87996SOL    HW265821   7.610   1.027   5.574
87997SOL     OW65822   7.333   4.434   3.401
87997SOL    HW165823   7.255   4.452   3.348
87997SOL    HW265824   7.348   4.516   3.449
87998SOL     OW65825   7.863  13.424   4.673
87998SOL    HW165826   7.850  13.424   4.768
87998SOL    HW265827   7.908  13.341   4.655
87999SOL     OW65828   3.848   9.418   7.020
87999SOL    HW165829   3.790   9.363   7.073
87999SOL    HW265830   3.820   9.403   6.930
88000SOL     OW65831  11.044   5.067  10.237
88000SOL    HW165832  10.968   5.098  10.286
88000SOL    HW265833  11.012   5.054  10.148
88001SOL     OW65834  14.322   2.632   1.279
88001SOL    HW165835  14.388   2.700   1.293
88001SOL    HW265836  14.339   2.601   1.190
88002SOL     OW65837   9.882   7.839  11.785
88002SOL    HW165838   9.894   7.918  11.837
88002SOL    HW265839   9.805   7.856  11.731
88003SOL     OW65840   3.894  12.160   6.173
88003SOL    HW165841   3.901  12.210   6.255
88003SOL    HW265842   3.840  12.085   6.195
88004SOL     OW65843   2.214   6.598   2.236
88004SOL    HW165844   2.216   6.689   2.209
88004SOL    HW265845   2.226   6.548   2.155
88005SOL     OW65846   9.854   6.732   3.062
88005SOL    HW165847   9.818   6.812   3.024
88005SOL    HW265848   9.902   6.691   2.990
88006SOL     OW65849   4.466  14.366   5.808
88006SOL    HW165850   4.529  14.425   5.768
88006SOL    HW265851   4.449  14.300   5.740
88007SOL     OW65852  12.382  12.723   3.594
88007SOL    HW165853  12.312  12.787   3.580
88007SOL    HW265854  12.412  12.701   3.506
88008SOL     OW65855   5.562   3.376   8.998
88008SOL    HW165856   5.572   3.323   8.918
88008SOL    HW265857   5.517   3.318   9.059
88009SOL     OW65858   8.918   4.219   0.442
88009SOL    HW165859   8.878   4.305   0.452
88009SOL    HW265860   8.903   4.196   0.350
88010SOL     OW65861  14.221   5.677  12.044
88010SOL    HW165862  14.143   5.622  12.052
88010SOL    HW265863  14.204   5.751  12.102
88011SOL     OW65864  13.427   0.984  12.590
88011SOL    HW165865  13.419   1.065  12.540
88011SOL    HW265866  13.463   0.921  12.527
88012SOL     OW65867  10.303  14.785   2.950
88012SOL    HW165868  10.306  14.867   2.999
88012SOL    HW265869  10.363  14.726   2.996
88013SOL     OW65870   5.877   5.168   8.214
88013SOL    HW165871   5.848   5.247   8.258
88013SOL    HW265872   5.818   5.160   8.138
88014SOL     OW65873   1.665   3.758   1.008
88014SOL    HW165874   1.574   3.764   1.037
88014SOL    HW265875   1.716   3.788   1.083
88015SOL     OW65876  13.280   7.460  10.834
88015SOL    HW165877  13.285   7.373  10.873
88015SOL    HW265878  13.238   7.446  10.749
88016SOL     OW65879  14.040   1.778   7.289
88016SOL    HW165880  14.025   1.688   7.260
88016SOL    HW265881  14.104   1.812   7.227
88017SOL     OW65882   9.845   8.953   6.774
88017SOL    HW165883   9.753   8.929   6.781
88017SOL    HW265884   9.871   8.926   6.686
88018SOL     OW65885  11.756   7.359   3.982
88018SOL    HW165886  11.765   7.354   3.887
88018SOL    HW265887  11.794   7.277   4.014
88019SOL     OW65888  13.286   4.690  14.253
88019SOL    HW165889  13.365   4.645  14.282
88019SOL    HW265890  13.318   4.760  14.196
88020SOL     OW65891  14.044   5.882   8.121
88020SOL    HW165892  14.008   5.971   8.121
88020SOL    HW265893  14.113   5.885   8.054
88021SOL     OW65894  14.379  12.659  13.015
88021SOL    HW165895  14.291  12.640  13.047
88021SOL    HW265896  14.402  12.582  12.963
88022SOL     OW65897   2.684   0.437   1.868
88022SOL    HW165898   2.656   0.526   1.845
88022SOL    HW265899   2.658   0.426   1.959
88023SOL     OW65900   5.312   9.081   4.590
88023SOL    HW165901   5.242   9.024   4.558
88023SOL    HW265902   5.375   9.022   4.630
88024SOL     OW65903   6.701   5.931   5.536
88024SOL    HW165904   6.610   5.902   5.525
88024SOL    HW265905   6.702   5.974   5.622
88025SOL     OW65906   0.348  12.201   2.763
88025SOL    HW165907   0.341  12.222   2.856
88025SOL    HW265908   0.417  12.136   2.758
88026SOL     OW65909   4.594   4.817   1.267
88026SOL    HW165910   4.649   4.769   1.205
88026SOL    HW265911   4.506   4.779   1.255
88027SOL     OW65912   0.543   5.033   7.953
88027SOL    HW165913   0.511   4.988   8.031
88027SOL    HW265914   0.574   5.118   7.986
88028SOL     OW65915  13.044   3.287   8.528
88028SOL    HW165916  12.976   3.283   8.596
88028SOL    HW265917  13.076   3.197   8.521
88029SOL     OW65918   3.441   1.336  10.645
88029SOL    HW165919   3.363   1.303  10.600
88029SOL    HW265920   3.479   1.398  10.583
88030SOL     OW65921   6.709  11.971   2.039
88030SOL    HW165922   6.764  11.986   2.115
88030SOL    HW265923   6.620  11.972   2.073
88031SOL     OW65924  14.499   9.480   0.025
88031SOL    HW165925  14.458   9.485  14.815
88031SOL    HW265926  14.465   9.398   0.063
88032SOL     OW65927   8.572   0.667   7.431
88032SOL    HW165928   8.595   0.746   7.479
88032SOL    HW265929   8.507   0.623   7.486
88033SOL     OW65930   9.060   4.949   2.769
88033SOL    HW165931   9.011   4.935   2.688
88033SOL    HW265932   9.121   5.020   2.748
88034SOL     OW65933   2.532  11.990   9.816
88034SOL    HW165934   2.536  11.912   9.760
88034SOL    HW265935   2.539  11.956   9.905
88035SOL     OW65936   2.114  12.905  12.686
88035SOL    HW165937   2.186  12.969  12.690
88035SOL    HW265938   2.079  12.904  12.775
88036SOL     OW65939   4.570   6.494   8.552
88036SOL    HW165940   4.619   6.435   8.493
88036SOL    HW265941   4.502   6.532   8.497
88037SOL     OW65942   4.482   8.280   1.564
88037SOL    HW165943   4.389   8.273   1.586
88037SOL    HW265944   4.484   8.275   1.468
88038SOL     OW65945   4.238   9.983  13.580
88038SOL    HW165946   4.330  10.006  13.591
88038SOL    HW265947   4.232   9.954  13.488
88039SOL     OW65948   0.028  13.528  13.494
88039SOL    HW165949   0.006  13.533  13.587
88039SOL    HW265950   0.115  13.487  13.493
88040SOL     OW65951  10.560   9.127   9.795
88040SOL    HW165952  10.538   9.198   9.855
88040SOL    HW265953  10.630   9.161   9.741
88041SOL     OW65954  11.225   8.829   1.686
88041SOL    HW165955  11.235   8.805   1.778
88041SOL    HW265956  11.144   8.785   1.659
88042SOL     OW65957   5.297  10.976   7.990
88042SOL    HW165958   5.298  11.066   8.023
88042SOL    HW265959   5.249  10.982   7.908
88043SOL     OW65960  12.913  13.120   4.758
88043SOL    HW165961  12.944  13.207   4.735
88043SOL    HW265962  12.954  13.062   4.694
88044SOL     OW65963  12.080   4.589  10.007
88044SOL    HW165964  12.169   4.558  10.024
88044SOL    HW265965  12.085   4.684  10.017
88045SOL     OW65966   0.411  13.142  10.386
88045SOL    HW165967   0.448  13.120  10.471
88045SOL    HW265968   0.476  13.112  10.323
88046SOL     OW65969  11.164   2.827   1.866
88046SOL    HW165970  11.238   2.769   1.848
88046SOL    HW265971  11.171   2.896   1.800
88047SOL     OW65972   8.203   5.088   0.710
88047SOL    HW165973   8.266   5.159   0.694
88047SOL    HW265974   8.175   5.100   0.801
88048SOL     OW65975  11.331   5.049   1.540
88048SOL    HW165976  11.242   5.050   1.504
88048SOL    HW265977  11.319   5.076   1.631
88049SOL     OW65978   8.013   5.490  14.460
88049SOL    HW165979   7.935   5.450  14.423
88049SOL    HW265980   7.980   5.544  14.533
88050SOL     OW65981   1.232   2.456  14.382
88050SOL    HW165982   1.152   2.507  14.367
88050SOL    HW265983   1.202   2.379  14.429
88051SOL     OW65984   4.174   9.143   3.767
88051SOL    HW165985   4.157   9.235   3.789
88051SOL    HW265986   4.264   9.143   3.735
88052SOL     OW65987   6.533   2.153  14.694
88052SOL    HW165988   6.485   2.074  14.717
88052SOL    HW265989   6.512   2.215  14.764
88053SOL     OW65990   3.997  11.337  13.819
88053SOL    HW165991   3.922  11.303  13.769
88053SOL    HW265992   4.064  11.270  13.810
88054SOL     OW65993  11.375   3.491   3.737
88054SOL    HW165994  11.284   3.518   3.750
88054SOL    HW265995  11.413   3.493   3.825
88055SOL     OW65996  10.088  10.079   5.387
88055SOL    HW165997  10.038  10.038   5.457
88055SOL    HW265998  10.023  10.126   5.335
88056SOL     OW65999  11.727  11.886   5.325
88056SOL    HW166000  11.651  11.848   5.281
88056SOL    HW266001  11.768  11.941   5.258
88057SOL     OW66002   5.430   3.423  11.445
88057SOL    HW166003   5.437   3.329  11.463
88057SOL    HW266004   5.520   3.454  11.444
88058SOL     OW66005   3.885   9.895   5.706
88058SOL    HW166006   3.813   9.869   5.649
88058SOL    HW266007   3.862   9.983   5.735
88059SOL     OW66008  10.306  13.003  13.097
88059SOL    HW166009  10.393  13.041  13.111
88059SOL    HW266010  10.255  13.073  13.056
88060SOL     OW66011   3.276   4.052   7.805
88060SOL    HW166012   3.358   4.093   7.832
88060SOL    HW266013   3.300   4.001   7.727
88061SOL     OW66014   1.373   3.095   4.046
88061SOL    HW166015   1.399   3.133   3.962
88061SOL    HW266016   1.415   3.009   4.047
88062SOL     OW66017  10.643   4.146   5.087
88062SOL    HW166018  10.633   4.076   5.151
88062SOL    HW266019  10.646   4.101   5.002
88063SOL     OW66020   2.212   7.408   5.498
88063SOL    HW166021   2.245   7.492   5.530
88063SOL    HW266022   2.145   7.431   5.434
88064SOL     OW66023   7.378   1.400   9.966
88064SOL    HW166024   7.296   1.439   9.996
88064SOL    HW266025   7.395   1.329  10.029
88065SOL     OW66026   8.347   9.611   0.122
88065SOL    HW166027   8.351   9.689   0.177
88065SOL    HW266028   8.348   9.538   0.185
88066SOL     OW66029   9.369   5.264  11.460
88066SOL    HW166030   9.275   5.243  11.461
88066SOL    HW266031   9.412   5.183  11.486
88067SOL     OW66032   9.075   4.689   5.860
88067SOL    HW166033   9.166   4.710   5.883
88067SOL    HW266034   9.083   4.621   5.794
88068SOL     OW66035  11.226  14.424   4.650
88068SOL    HW166036  11.276  14.469   4.718
88068SOL    HW266037  11.287  14.414   4.577
88069SOL     OW66038   8.270   9.628   8.657
88069SOL    HW166039   8.285   9.584   8.573
88069SOL    HW266040   8.178   9.655   8.654
88070SOL     OW66041   3.377  10.651   6.477
88070SOL    HW166042   3.392  10.725   6.418
88070SOL    HW266043   3.427  10.672   6.556
88071SOL     OW66044  10.690  12.154   0.292
88071SOL    HW166045  10.703  12.239   0.250
88071SOL    HW266046  10.703  12.090   0.221
88072SOL     OW66047   2.766  11.719   0.081
88072SOL    HW166048   2.702  11.651   0.061
88072SOL    HW266049   2.786  11.760  14.873
88073SOL     OW66050  12.385  14.040   0.826
88073SOL    HW166051  12.305  13.998   0.793
88073SOL    HW266052  12.353  14.105   0.889
88074SOL     OW66053   7.049  10.317   7.904
88074SOL    HW166054   7.103  10.237   7.902
88074SOL    HW266055   6.985  10.304   7.834
88075SOL     OW66056   8.490   0.413   2.495
88075SOL    HW166057   8.424   0.370   2.550
88075SOL    HW266058   8.550   0.455   2.557
88076SOL     OW66059   8.580  10.667   9.490
88076SOL    HW166060   8.548  10.688   9.402
88076SOL    HW266061   8.673  10.689   9.487
88077SOL     OW66062   7.234   1.502   4.005
88077SOL    HW166063   7.192   1.511   3.919
88077SOL    HW266064   7.196   1.423   4.042
88078SOL     OW66065   1.895  11.847   6.127
88078SOL    HW166066   1.830  11.810   6.186
88078SOL    HW266067   1.862  11.934   6.106
88079SOL     OW66068  13.197  10.431   7.221
88079SOL    HW166069  13.128  10.375   7.255
88079SOL    HW266070  13.160  10.520   7.223
88080SOL     OW66071  13.427   3.594  11.781
88080SOL    HW166072  13.374   3.613  11.859
88080SOL    HW266073  13.458   3.679  11.752
88081SOL     OW66074   8.882  14.265   6.693
88081SOL    HW166075   8.822  14.193   6.711
88081SOL    HW266076   8.968  14.232   6.720
88082SOL     OW66077   5.091  10.196   8.142
88082SOL    HW166078   5.055  10.110   8.166
88082SOL    HW266079   5.036  10.225   8.069
88083SOL     OW66080   5.546   2.224   2.655
88083SOL    HW166081   5.524   2.140   2.615
88083SOL    HW266082   5.516   2.289   2.591
88084SOL     OW66083   5.677   5.116  11.810
88084SOL    HW166084   5.738   5.165  11.865
88084SOL    HW266085   5.710   5.026  11.810
88085SOL     OW66086   2.756  13.692   2.726
88085SOL    HW166087   2.783  13.600   2.726
88085SOL    HW266088   2.761  13.718   2.634
88086SOL     OW66089   5.632  10.130   1.639
88086SOL    HW166090   5.715  10.170   1.665
88086SOL    HW266091   5.567  10.200   1.652
88087SOL     OW66092  13.235  14.578  13.957
88087SOL    HW166093  13.316  14.555  13.912
88087SOL    HW266094  13.210  14.499  14.004
88088SOL     OW66095   4.322  11.417  11.013
88088SOL    HW166096   4.306  11.369  10.932
88088SOL    HW266097   4.393  11.368  11.055
88089SOL     OW66098   4.803   2.634   1.082
88089SOL    HW166099   4.833   2.680   1.003
88089SOL    HW266100   4.734   2.690   1.117
88090SOL     OW66101  13.579   4.381   1.327
88090SOL    HW166102  13.486   4.376   1.301
88090SOL    HW266103  13.580   4.346   1.416
88091SOL     OW66104  13.548  12.428   2.874
88091SOL    HW166105  13.608  12.442   2.948
88091SOL    HW266106  13.571  12.497   2.812
88092SOL     OW66107   8.302   0.233   5.475
88092SOL    HW166108   8.330   0.156   5.426
88092SOL    HW266109   8.225   0.203   5.524
88093SOL     OW66110  11.434   2.378   0.831
88093SOL    HW166111  11.413   2.285   0.827
88093SOL    HW266112  11.477   2.397   0.748
88094SOL     OW66113   9.343   0.312  14.754
88094SOL    HW166114   9.289   0.320  14.832
88094SOL    HW266115   9.432   0.330  14.784
88095SOL     OW66116   1.854  12.629   3.792
88095SOL    HW166117   1.888  12.572   3.862
88095SOL    HW266118   1.927  12.637   3.730
88096SOL     OW66119   2.488   3.314  11.249
88096SOL    HW166120   2.471   3.276  11.335
88096SOL    HW266121   2.402   3.315  11.206
88097SOL     OW66122   0.076   2.564  10.213
88097SOL    HW166123   0.169   2.541  10.206
88097SOL    HW266124   0.074   2.659  10.205
88098SOL     OW66125   1.909   3.924   0.386
88098SOL    HW166126   1.927   4.008   0.343
88098SOL    HW266127   1.955   3.859   0.332
88099SOL     OW66128   9.522   5.464   0.658
88099SOL    HW166129   9.433   5.491   0.637
88099SOL    HW266130   9.536   5.385   0.607
88100SOL     OW66131  12.223   6.635  12.627
88100SOL    HW166132  12.291   6.697  12.652
88100SOL    HW266133  12.240   6.558  12.682
88101SOL     OW66134   8.568   9.952   8.300
88101SOL    HW166135   8.601  10.012   8.367
88101SOL    HW266136   8.646   9.923   8.254
88102SOL     OW66137   3.984  14.720  12.980
88102SOL    HW166138   3.976  14.669  12.899
88102SOL    HW266139   3.979  14.811  12.951
88103SOL     OW66140   7.962   3.679  10.398
88103SOL    HW166141   7.918   3.744  10.452
88103SOL    HW266142   7.910   3.674  10.318
88104SOL     OW66143   4.921   6.909  10.860
88104SOL    HW166144   4.940   7.001  10.881
88104SOL    HW266145   4.924   6.906  10.764
88105SOL     OW66146  12.834  13.953   9.498
88105SOL    HW166147  12.894  13.971   9.426
88105SOL    HW266148  12.767  14.021   9.492
88106SOL     OW66149   8.515   9.334   3.365
88106SOL    HW166150   8.483   9.331   3.455
88106SOL    HW266151   8.501   9.246   3.331
88107SOL     OW66152  13.375   7.686   1.370
88107SOL    HW166153  13.410   7.601   1.397
88107SOL    HW266154  13.283   7.669   1.349
88108SOL     OW66155   9.988   2.567   9.892
88108SOL    HW166156   9.929   2.642   9.895
88108SOL    HW266157  10.054   2.585   9.959
88109SOL     OW66158   1.299  10.246   0.774
88109SOL    HW166159   1.254  10.329   0.758
88109SOL    HW266160   1.230  10.180   0.769
88110SOL     OW66161   0.782   4.192   9.064
88110SOL    HW166162   0.856   4.211   9.122
88110SOL    HW266163   0.760   4.101   9.082
88111SOL     OW66164   9.564   4.758   7.930
88111SOL    HW166165   9.522   4.841   7.955
88111SOL    HW266166   9.644   4.755   7.982
88112SOL     OW66167   3.942   3.857   8.877
88112SOL    HW166168   4.020   3.805   8.857
88112SOL    HW266169   3.917   3.896   8.794
88113SOL     OW66170  13.027  12.716  12.825
88113SOL    HW166171  12.988  12.752  12.745
88113SOL    HW266172  13.118  12.744  12.822
88114SOL     OW66173   3.547   8.504   1.815
88114SOL    HW166174   3.473   8.511   1.874
88114SOL    HW266175   3.511   8.523   1.728
88115SOL     OW66176   9.538  11.010   3.269
88115SOL    HW166177   9.541  11.074   3.198
88115SOL    HW266178   9.624  10.967   3.266
88116SOL     OW66179   4.512  10.864   2.865
88116SOL    HW166180   4.419  10.866   2.842
88116SOL    HW266181   4.515  10.822   2.951
88117SOL     OW66182   6.170  14.667   7.494
88117SOL    HW166183   6.210  14.601   7.551
88117SOL    HW266184   6.077  14.662   7.514
88118SOL     OW66185   0.978   4.106  11.819
88118SOL    HW166186   0.919   4.099  11.894
88118SOL    HW266187   1.066   4.101  11.858
88119SOL     OW66188  12.302   9.718   4.078
88119SOL    HW166189  12.250   9.646   4.112
88119SOL    HW266190  12.367   9.677   4.021
88120SOL     OW66191   3.151   2.963   7.261
88120SOL    HW166192   3.099   2.898   7.215
88120SOL    HW266193   3.234   2.965   7.214
88121SOL     OW66194   2.103  10.929  11.641
88121SOL    HW166195   2.180  10.877  11.663
88121SOL    HW266196   2.137  11.012  11.609
88122SOL     OW66197   0.068   2.593   8.846
88122SOL    HW166198   0.041   2.682   8.870
88122SOL    HW266199   0.021   2.537   8.908
88123SOL     OW66200  10.122   8.174   7.541
88123SOL    HW166201  10.030   8.195   7.527
88123SOL    HW266202  10.162   8.257   7.563
88124SOL     OW66203   6.065  14.088   1.747
88124SOL    HW166204   6.057  14.002   1.787
88124SOL    HW266205   6.134  14.077   1.681
88125SOL     OW66206   5.827   3.461   8.921
88125SOL    HW166207   5.754   3.422   8.970
88125SOL    HW266208   5.882   3.502   8.987
88126SOL     OW66209   3.464   4.359   6.280
88126SOL    HW166210   3.453   4.293   6.349
88126SOL    HW266211   3.558   4.357   6.260
88127SOL     OW66212   0.005  10.373   4.239
88127SOL    HW166213   0.023  10.281   4.218
88127SOL    HW266214  14.813  10.399   4.178
88128SOL     OW66215   2.380   0.811   8.106
88128SOL    HW166216   2.457   0.839   8.155
88128SOL    HW266217   2.346   0.891   8.067
88129SOL     OW66218  10.653   6.872   4.541
88129SOL    HW166219  10.608   6.955   4.560
88129SOL    HW266220  10.582   6.811   4.520
88130SOL     OW66221  13.456   1.076   3.667
88130SOL    HW166222  13.545   1.111   3.671
88130SOL    HW266223  13.400   1.153   3.676
88131SOL     OW66224  11.883   6.892   0.687
88131SOL    HW166225  11.793   6.918   0.666
88131SOL    HW266226  11.926   6.973   0.714
88132SOL     OW66227   3.881  11.789   9.889
88132SOL    HW166228   3.944  11.756   9.825
88132SOL    HW266229   3.908  11.750   9.972
88133SOL     OW66230  10.970  13.365  14.122
88133SOL    HW166231  11.020  13.294  14.161
88133SOL    HW266232  10.937  13.329  14.039
88134SOL     OW66233   7.398  12.407   2.489
88134SOL    HW166234   7.405  12.379   2.398
88134SOL    HW266235   7.488  12.408   2.521
88135SOL     OW66236   5.001   0.409   0.109
88135SOL    HW166237   4.992   0.498   0.077
88135SOL    HW266238   5.072   0.413   0.173
88136SOL     OW66239  12.997   0.702   3.033
88136SOL    HW166240  13.090   0.687   3.015
88136SOL    HW266241  12.996   0.740   3.121
88137SOL     OW66242   8.002   4.472   1.043
88137SOL    HW166243   7.915   4.433   1.050
88137SOL    HW266244   8.062   4.400   1.059
88138SOL     OW66245   0.232   7.567  11.053
88138SOL    HW166246   0.319   7.574  11.014
88138SOL    HW266247   0.192   7.490  11.011
88139SOL     OW66248   8.920   5.675   8.424
88139SOL    HW166249   8.922   5.613   8.351
88139SOL    HW266250   8.829   5.673   8.455
88140SOL     OW66251  10.777  10.406   1.862
88140SOL    HW166252  10.682  10.403   1.854
88140SOL    HW266253  10.795  10.373   1.950
88141SOL     OW66254   3.857  13.543  14.235
88141SOL    HW166255   3.764  13.546  14.258
88141SOL    HW266256   3.894  13.623  14.272
88142SOL     OW66257  12.717   8.961  12.556
88142SOL    HW166258  12.691   8.870  12.572
88142SOL    HW266259  12.788   8.955  12.492
88143SOL     OW66260  13.884   1.689   6.908
88143SOL    HW166261  13.812   1.749   6.890
88143SOL    HW266262  13.874   1.666   7.000
88144SOL     OW66263   0.367  12.844   7.746
88144SOL    HW166264   0.287  12.890   7.772
88144SOL    HW266265   0.420  12.911   7.703
88145SOL     OW66266   0.473  10.604   9.647
88145SOL    HW166267   0.397  10.545   9.638
88145SOL    HW266268   0.526  10.563   9.715
88146SOL     OW66269   7.548   5.125   7.137
88146SOL    HW166270   7.550   5.220   7.129
88146SOL    HW266271   7.633   5.101   7.173
88147SOL     OW66272  10.426  12.096   6.998
88147SOL    HW166273  10.337  12.071   6.971
88147SOL    HW266274  10.452  12.162   6.934
88148SOL     OW66275   3.361  12.999   5.429
88148SOL    HW166276   3.308  13.013   5.350
88148SOL    HW266277   3.362  13.085   5.472
88149SOL     OW66278  13.275  12.180  14.541
88149SOL    HW166279  13.242  12.126  14.613
88149SOL    HW266280  13.365  12.150  14.528
88150SOL     OW66281  10.077   3.163   0.609
88150SOL    HW166282  10.138   3.225   0.569
88150SOL    HW266283  10.024   3.131   0.537
88151SOL     OW66284   7.200  10.920   4.202
88151SOL    HW166285   7.156  10.870   4.271
88151SOL    HW266286   7.160  11.006   4.205
88152SOL     OW66287   5.535  13.667   8.480
88152SOL    HW166288   5.630  13.657   8.492
88152SOL    HW266289   5.513  13.602   8.413
88153SOL     OW66290  12.888   0.250   8.553
88153SOL    HW166291  12.844   0.271   8.471
88153SOL    HW266292  12.859   0.317   8.614
88154SOL     OW66293   9.468  10.985   9.906
88154SOL    HW166294   9.436  11.044   9.838
88154SOL    HW266295   9.505  11.042   9.973
88155SOL     OW66296   8.773  11.499  11.657
88155SOL    HW166297   8.757  11.567  11.592
88155SOL    HW266298   8.868  11.501  11.671
88156SOL     OW66299   3.842   4.702   7.990
88156SOL    HW166300   3.813   4.668   7.905
88156SOL    HW266301   3.903   4.636   8.022
88157SOL     OW66302   4.485  13.291  11.699
88157SOL    HW166303   4.465  13.328  11.613
88157SOL    HW266304   4.575  13.262  11.693
88158SOL     OW66305   7.527   4.145   6.261
88158SOL    HW166306   7.531   4.158   6.355
88158SOL    HW266307   7.452   4.087   6.248
88159SOL     OW66308  13.309   5.266  10.084
88159SOL    HW166309  13.398   5.236  10.066
88159SOL    HW266310  13.276   5.206  10.152
88160SOL     OW66311  12.170  12.105   5.038
88160SOL    HW166312  12.194  12.101   4.945
88160SOL    HW266313  12.198  12.191   5.066
88161SOL     OW66314   9.150  13.648  12.742
88161SOL    HW166315   9.213  13.656  12.814
88161SOL    HW266316   9.081  13.591  12.776
88162SOL     OW66317   4.815   3.724   0.384
88162SOL    HW166318   4.810   3.632   0.358
88162SOL    HW266319   4.753   3.733   0.457
88163SOL     OW66320   9.809   5.889  10.696
88163SOL    HW166321   9.803   5.850  10.609
88163SOL    HW266322   9.735   5.950  10.700
88164SOL     OW66323   2.533  13.911  10.473
88164SOL    HW166324   2.548  13.817  10.477
88164SOL    HW266325   2.617  13.948  10.447
88165SOL     OW66326  10.235   4.575   6.812
88165SOL    HW166327  10.230   4.499   6.871
88165SOL    HW266328  10.215   4.539   6.725
88166SOL     OW66329   9.423  12.079  11.498
88166SOL    HW166330   9.425  12.023  11.576
88166SOL    HW266331   9.501  12.133  11.505
88167SOL     OW66332  11.246  13.798   3.750
88167SOL    HW166333  11.335  13.815   3.718
88167SOL    HW266334  11.257  13.729   3.816
88168SOL     OW66335   5.207   4.030   0.880
88168SOL    HW166336   5.265   4.012   0.955
88168SOL    HW266337   5.119   4.018   0.915
88169SOL     OW66338  13.482  11.584   0.983
88169SOL    HW166339  13.507  11.661   1.033
88169SOL    HW266340  13.557  11.525   0.990
88170SOL     OW66341   5.525   2.045   9.917
88170SOL    HW166342   5.558   2.079   9.834
88170SOL    HW266343   5.580   1.969   9.935
88171SOL     OW66344   1.776   3.103   2.923
88171SOL    HW166345   1.838   3.097   2.996
88171SOL    HW266346   1.828   3.133   2.849
88172SOL     OW66347   4.557  11.953   1.063
88172SOL    HW166348   4.584  11.908   0.982
88172SOL    HW266349   4.477  11.907   1.089
88173SOL     OW66350   5.555  14.503  13.560
88173SOL    HW166351   5.471  14.520  13.516
88173SOL    HW266352   5.550  14.554  13.641
88174SOL     OW66353  11.754  10.089   7.833
88174SOL    HW166354  11.815  10.155   7.800
88174SOL    HW266355  11.776  10.079   7.926
88175SOL     OW66356   5.845   2.953   5.618
88175SOL    HW166357   5.750   2.954   5.601
88175SOL    HW266358   5.870   2.862   5.604
88176SOL     OW66359   3.435   0.898  11.478
88176SOL    HW166360   3.502   0.831  11.467
88176SOL    HW266361   3.473   0.959  11.541
88177SOL     OW66362   4.333   0.143   4.609
88177SOL    HW166363   4.249   0.124   4.651
88177SOL    HW266364   4.370   0.057   4.591
88178SOL     OW66365   0.634  13.083   6.349
88178SOL    HW166366   0.596  13.023   6.284
88178SOL    HW266367   0.559  13.118   6.396
88179SOL     OW66368   5.303  13.421   8.775
88179SOL    HW166369   5.238  13.446   8.840
88179SOL    HW266370   5.280  13.472   8.697
88180SOL     OW66371   1.006  14.295   1.496
88180SOL    HW166372   1.100  14.310   1.506
88180SOL    HW266373   0.979  14.360   1.430
88181SOL     OW66374   5.972  14.280  12.147
88181SOL    HW166375   5.996  14.193  12.118
88181SOL    HW266376   6.055  14.326  12.158
88182SOL     OW66377  10.767   0.098   8.443
88182SOL    HW166378  10.801   0.168   8.386
88182SOL    HW266379  10.699   0.056   8.391
88183SOL     OW66380   4.218  13.592   3.706
88183SOL    HW166381   4.166  13.512   3.712
88183SOL    HW266382   4.303  13.564   3.672
88184SOL     OW66383   9.179   5.985   8.430
88184SOL    HW166384   9.212   5.895   8.440
88184SOL    HW266385   9.124   5.998   8.507
88185SOL     OW66386   1.812   5.761   6.479
88185SOL    HW166387   1.887   5.720   6.436
88185SOL    HW266388   1.848   5.804   6.556
88186SOL     OW66389  10.665   3.638  13.843
88186SOL    HW166390  10.727   3.624  13.914
88186SOL    HW266391  10.656   3.733  13.837
88187SOL     OW66392   9.455   7.698   9.471
88187SOL    HW166393   9.455   7.790   9.444
88187SOL    HW266394   9.420   7.699   9.560
88188SOL     OW66395  10.927  13.366   3.515
88188SOL    HW166396  10.886  13.404   3.593
88188SOL    HW266397  11.017  13.398   3.518
88189SOL     OW66398   0.647   5.555   7.496
88189SOL    HW166399   0.716   5.510   7.446
88189SOL    HW266400   0.580   5.488   7.509
88190SOL     OW66401   6.315  12.523   4.385
88190SOL    HW166402   6.261  12.529   4.464
88190SOL    HW266403   6.375  12.451   4.403
88191SOL     OW66404   1.719   8.867   8.232
88191SOL    HW166405   1.656   8.855   8.303
88191SOL    HW266406   1.792   8.808   8.255
88192SOL     OW66407   7.746   3.748   3.171
88192SOL    HW166408   7.754   3.767   3.265
88192SOL    HW266409   7.836   3.752   3.139
88193SOL     OW66410  12.957   6.577   6.199
88193SOL    HW166411  13.024   6.645   6.190
88193SOL    HW266412  13.005   6.499   6.227
88194SOL     OW66413  12.174   7.022   8.693
88194SOL    HW166414  12.132   6.954   8.745
88194SOL    HW266415  12.254   7.043   8.741
88195SOL     OW66416   7.341   3.818  13.625
88195SOL    HW166417   7.318   3.764  13.549
88195SOL    HW266418   7.365   3.903  13.588
88196SOL     OW66419   0.426  13.206   6.488
88196SOL    HW166420   0.429  13.267   6.415
88196SOL    HW266421   0.477  13.249   6.557
88197SOL     OW66422   3.858   7.420  14.665
88197SOL    HW166423   3.866   7.402  14.571
88197SOL    HW266424   3.829   7.337  14.703
88198SOL     OW66425   5.751   4.354   0.618
88198SOL    HW166426   5.694   4.394   0.552
88198SOL    HW266427   5.771   4.267   0.582
88199SOL     OW66428  12.770   3.495  13.846
88199SOL    HW166429  12.684   3.536  13.851
88199SOL    HW266430  12.811   3.515  13.930
88200SOL     OW66431   7.568  11.344   5.518
88200SOL    HW166432   7.514  11.309   5.588
88200SOL    HW266433   7.580  11.271   5.457
88201SOL     OW66434   0.129   1.889   0.904
88201SOL    HW166435   0.088   1.938   0.975
88201SOL    HW266436   0.122   1.947   0.828
88202SOL     OW66437   1.440   1.736   6.135
88202SOL    HW166438   1.505   1.669   6.115
88202SOL    HW266439   1.390   1.700   6.209
88203SOL     OW66440   1.719   7.782   6.893
88203SOL    HW166441   1.641   7.739   6.858
88203SOL    HW266442   1.778   7.711   6.917
88204SOL     OW66443   0.221   5.496  12.031
88204SOL    HW166444   0.303   5.450  12.051
88204SOL    HW266445   0.245   5.589  12.034
88205SOL     OW66446   4.280   0.455   6.627
88205SOL    HW166447   4.341   0.478   6.697
88205SOL    HW266448   4.200   0.503   6.649
88206SOL     OW66449  11.245   1.794  14.849
88206SOL    HW166450  11.334   1.765  14.831
88206SOL    HW266451  11.197   1.775  14.768
88207SOL     OW66452   8.036  11.513   5.651
88207SOL    HW166453   7.952  11.543   5.617
88207SOL    HW266454   8.029  11.418   5.653
88208SOL     OW66455  12.639   6.931   3.096
88208SOL    HW166456  12.606   6.885   3.018
88208SOL    HW266457  12.621   6.871   3.168
88209SOL     OW66458  12.762   2.813   5.339
88209SOL    HW166459  12.682   2.849   5.377
88209SOL    HW266460  12.757   2.835   5.246
88210SOL     OW66461   8.875   3.447   6.983
88210SOL    HW166462   8.900   3.364   7.022
88210SOL    HW266463   8.840   3.423   6.897
88211SOL     OW66464   4.546   8.887   9.856
88211SOL    HW166465   4.621   8.883   9.796
88211SOL    HW266466   4.475   8.925   9.804
88212SOL     OW66467   9.144   1.654  10.869
88212SOL    HW166468   9.114   1.587  10.931
88212SOL    HW266469   9.237   1.635  10.856
88213SOL     OW66470  12.160   1.441   2.693
88213SOL    HW166471  12.112   1.521   2.672
88213SOL    HW266472  12.224   1.432   2.622
88214SOL     OW66473   1.471   0.613   2.171
88214SOL    HW166474   1.421   0.649   2.244
88214SOL    HW266475   1.453   0.519   2.174
88215SOL     OW66476   2.258   0.522   0.258
88215SOL    HW166477   2.169   0.501   0.232
88215SOL    HW266478   2.281   0.600   0.208
88216SOL     OW66479  13.864   9.598   6.021
88216SOL    HW166480  13.893   9.631   5.936
88216SOL    HW266481  13.770   9.621   6.024
88217SOL     OW66482   0.979  11.292   5.203
88217SOL    HW166483   0.940  11.228   5.263
88217SOL    HW266484   0.930  11.373   5.219
88218SOL     OW66485  14.309  10.766  13.018
88218SOL    HW166486  14.288  10.800  12.931
88218SOL    HW266487  14.310  10.842  13.075
88219SOL     OW66488   0.433  14.166  13.658
88219SOL    HW166489   0.426  14.223  13.735
88219SOL    HW266490   0.527  14.160  13.641
88220SOL     OW66491   0.293   6.295   3.069
88220SOL    HW166492   0.297   6.294   2.973
88220SOL    HW266493   0.217   6.240   3.090
88221SOL     OW66494   4.748   7.541   5.825
88221SOL    HW166495   4.773   7.581   5.742
88221SOL    HW266496   4.796   7.591   5.891
88222SOL     OW66497   4.611   2.540   5.628
88222SOL    HW166498   4.644   2.505   5.711
88222SOL    HW266499   4.531   2.587   5.652
88223SOL     OW66500   5.868  13.610   9.813
88223SOL    HW166501   5.937  13.650   9.866
88223SOL    HW266502   5.798  13.676   9.812
88224SOL     OW66503   3.830   8.172   8.184
88224SOL    HW166504   3.864   8.126   8.260
88224SOL    HW266505   3.880   8.253   8.180
88225SOL     OW66506   4.477   8.912   0.671
88225SOL    HW166507   4.498   8.840   0.611
88225SOL    HW266508   4.491   8.991   0.619
88226SOL     OW66509  13.905   1.382   8.166
88226SOL    HW166510  13.829   1.327   8.147
88226SOL    HW266511  13.938   1.409   8.080
88227SOL     OW66512  11.213   7.932  10.070
88227SOL    HW166513  11.222   8.020  10.031
88227SOL    HW266514  11.180   7.949  10.158
88228SOL     OW66515   8.950   0.606   8.423
88228SOL    HW166516   9.035   0.638   8.454
88228SOL    HW266517   8.919   0.675   8.364
88229SOL     OW66518  11.928   0.116   1.813
88229SOL    HW166519  11.960   0.119   1.903
88229SOL    HW266520  11.998   0.074   1.764
88230SOL     OW66521   4.611  12.914   2.663
88230SOL    HW166522   4.573  12.886   2.746
88230SOL    HW266523   4.546  12.974   2.626
88231SOL     OW66524   6.926  11.401   9.017
88231SOL    HW166525   6.970  11.486   9.016
88231SOL    HW266526   6.844  11.416   8.971
88232SOL     OW66527  10.269   3.193   7.549
88232SOL    HW166528  10.210   3.183   7.623
88232SOL    HW266529  10.298   3.104   7.529
88233SOL     OW66530   6.872   2.421   1.834
88233SOL    HW166531   6.873   2.504   1.786
88233SOL    HW266532   6.894   2.445   1.924
88234SOL     OW66533  11.715   6.633   6.133
88234SOL    HW166534  11.754   6.547   6.115
88234SOL    HW266535  11.782   6.679   6.184
88235SOL     OW66536   7.781   1.018   0.904
88235SOL    HW166537   7.709   1.018   0.840
88235SOL    HW266538   7.856   0.986   0.854
88236SOL     OW66539  11.427   6.607  11.970
88236SOL    HW166540  11.405   6.691  11.930
88236SOL    HW266541  11.470   6.630  12.052
88237SOL     OW66542   6.057   9.440   1.181
88237SOL    HW166543   5.983   9.426   1.123
88237SOL    HW266544   6.133   9.446   1.123
88238SOL     OW66545  13.371  13.705   3.931
88238SOL    HW166546  13.373  13.705   3.835
88238SOL    HW266547  13.289  13.660   3.953
88239SOL     OW66548   1.855   9.060   9.888
88239SOL    HW166549   1.814   9.045   9.803
88239SOL    HW266550   1.829   9.149   9.911
88240SOL     OW66551   8.226   3.671  10.344
88240SOL    HW166552   8.251   3.598  10.401
88240SOL    HW266553   8.132   3.683  10.361
88241SOL     OW66554   1.693   3.025   4.840
88241SOL    HW166555   1.707   3.105   4.890
88241SOL    HW266556   1.611   3.040   4.794
88242SOL     OW66557   2.475   3.592   9.968
88242SOL    HW166558   2.551   3.556  10.014
88242SOL    HW266559   2.479   3.686   9.986
88243SOL     OW66560   1.696   2.320   5.715
88243SOL    HW166561   1.788   2.348   5.709
88243SOL    HW266562   1.669   2.307   5.624
88244SOL     OW66563   6.477   2.493   6.950
88244SOL    HW166564   6.444   2.546   6.877
88244SOL    HW266565   6.570   2.481   6.931
88245SOL     OW66566   5.036   7.605   4.918
88245SOL    HW166567   5.068   7.564   4.838
88245SOL    HW266568   5.102   7.583   4.984
88246SOL     OW66569   6.605   5.749   3.468
88246SOL    HW166570   6.600   5.805   3.391
88246SOL    HW266571   6.698   5.731   3.479
88247SOL     OW66572   3.857  11.673   0.526
88247SOL    HW166573   3.865  11.689   0.620
88247SOL    HW266574   3.851  11.578   0.518
88248SOL     OW66575   0.149   6.993   8.940
88248SOL    HW166576   0.071   7.032   8.979
88248SOL    HW266577   0.143   6.900   8.964
88249SOL     OW66578  13.878   0.870   6.559
88249SOL    HW166579  13.948   0.820   6.600
88249SOL    HW266580  13.812   0.879   6.627
88250SOL     OW66581   6.155  14.331   6.177
88250SOL    HW166582   6.079  14.388   6.188
88250SOL    HW266583   6.143  14.264   6.245
88251SOL     OW66584   7.002   1.217   3.479
88251SOL    HW166585   7.093   1.201   3.502
88251SOL    HW266586   7.006   1.257   3.392
88252SOL     OW66587   5.766   2.732   6.903
88252SOL    HW166588   5.714   2.666   6.950
88252SOL    HW266589   5.836   2.681   6.863
88253SOL     OW66590   6.048  14.106  13.069
88253SOL    HW166591   6.041  14.199  13.088
88253SOL    HW266592   5.963  14.070  13.094
88254SOL     OW66593   6.575   8.702  12.099
88254SOL    HW166594   6.626   8.624  12.117
88254SOL    HW266595   6.628   8.752  12.038
88255SOL     OW66596   9.793  13.979   7.346
88255SOL    HW166597   9.833  14.065   7.332
88255SOL    HW266598   9.725  13.973   7.279
88256SOL     OW66599  14.065   4.644  14.033
88256SOL    HW166600  14.133   4.700  13.994
88256SOL    HW266601  13.994   4.644  13.969
88257SOL     OW66602   7.651   1.405   5.143
88257SOL    HW166603   7.662   1.500   5.139
88257SOL    HW266604   7.675   1.382   5.233
88258SOL     OW66605   9.868   0.835   9.938
88258SOL    HW166606   9.806   0.904   9.916
88258SOL    HW266607   9.893   0.854  10.029
88259SOL     OW66608   3.640   8.791   9.155
88259SOL    HW166609   3.689   8.776   9.235
88259SOL    HW266610   3.548   8.786   9.181
88260SOL     OW66611   0.424  11.328  13.838
88260SOL    HW166612   0.420  11.339  13.933
88260SOL    HW266613   0.361  11.259  13.819
88261SOL     OW66614   5.579   9.383   1.040
88261SOL    HW166615   5.502   9.436   1.023
88261SOL    HW266616   5.642   9.444   1.079
88262SOL     OW66617   6.386  14.265   5.736
88262SOL    HW166618   6.375  14.324   5.811
88262SOL    HW266619   6.481  14.259   5.724
88263SOL     OW66620   4.934   1.859  12.648
88263SOL    HW166621   4.885   1.779  12.668
88263SOL    HW266622   4.866   1.923  12.624
88264SOL     OW66623  14.394   9.683  12.203
88264SOL    HW166624  14.314   9.707  12.157
88264SOL    HW266625  14.457   9.751  12.179
88265SOL     OW66626   7.019   5.840  14.622
88265SOL    HW166627   7.044   5.906  14.686
88265SOL    HW266628   6.939   5.801  14.658
88266SOL     OW66629   7.300   2.829   9.003
88266SOL    HW166630   7.338   2.917   8.996
88266SOL    HW266631   7.352   2.786   9.071
88267SOL     OW66632  14.048   1.967   4.098
88267SOL    HW166633  13.993   2.046   4.101
88267SOL    HW266634  13.989   1.896   4.124
88268SOL     OW66635   4.688  12.168  12.153
88268SOL    HW166636   4.614  12.131  12.106
88268SOL    HW266637   4.765  12.139  12.105
88269SOL     OW66638   5.830   6.731  12.480
88269SOL    HW166639   5.818   6.773  12.395
88269SOL    HW266640   5.780   6.785  12.541
88270SOL     OW66641   0.459  14.649  14.110
88270SOL    HW166642   0.401  14.599  14.052
88270SOL    HW266643   0.423  14.737  14.112
88271SOL     OW66644   9.502  10.733   0.032
88271SOL    HW166645   9.547  10.816   0.044
88271SOL    HW266646   9.488  10.700   0.121
88272SOL     OW66647  12.661   5.487  12.734
88272SOL    HW166648  12.655   5.496  12.830
88272SOL    HW266649  12.733   5.546  12.710
88273SOL     OW66650   2.026   1.639  11.927
88273SOL    HW166651   1.999   1.729  11.909
88273SOL    HW266652   1.961   1.585  11.883
88274SOL     OW66653   4.075   7.391   8.449
88274SOL    HW166654   4.100   7.303   8.476
88274SOL    HW266655   4.157   7.438   8.440
88275SOL     OW66656  13.940   1.978  12.428
88275SOL    HW166657  13.915   2.014  12.343
88275SOL    HW266658  13.904   1.890  12.429
88276SOL     OW66659  12.911   5.896  10.400
88276SOL    HW166660  12.871   5.810  10.389
88276SOL    HW266661  12.947   5.895  10.489
88277SOL     OW66662   4.775  13.947   3.982
88277SOL    HW166663   4.858  13.972   3.942
88277SOL    HW266664   4.720  13.921   3.909
88278SOL     OW66665   7.794   8.249   3.112
88278SOL    HW166666   7.794   8.169   3.166
88278SOL    HW266667   7.785   8.217   3.022
88279SOL     OW66668   7.513   9.008   3.377
88279SOL    HW166669   7.562   9.080   3.336
88279SOL    HW266670   7.535   8.932   3.324
88280SOL     OW66671   0.553   8.127   9.355
88280SOL    HW166672   0.529   8.193   9.420
88280SOL    HW266673   0.529   8.044   9.395
88281SOL     OW66674  11.124   8.962   4.092
88281SOL    HW166675  11.170   8.999   4.168
88281SOL    HW266676  11.063   9.030   4.066
88282SOL     OW66677   1.181  10.206  10.709
88282SOL    HW166678   1.259  10.244  10.750
88282SOL    HW266679   1.215  10.157  10.634
88283SOL     OW66680   5.741   4.428   6.034
88283SOL    HW166681   5.693   4.490   6.088
88283SOL    HW266682   5.726   4.343   6.075
88284SOL     OW66683  12.874   8.365   2.722
88284SOL    HW166684  12.930   8.419   2.668
88284SOL    HW266685  12.914   8.278   2.720
88285SOL     OW66686  12.680   3.993  13.089
88285SOL    HW166687  12.739   3.932  13.135
88285SOL    HW266688  12.723   4.008  13.005
88286SOL     OW66689   4.051  13.352   3.105
88286SOL    HW166690   4.011  13.265   3.111
88286SOL    HW266691   4.015  13.390   3.024
88287SOL     OW66692   2.853   4.743  10.532
88287SOL    HW166693   2.856   4.671  10.595
88287SOL    HW266694   2.775   4.793  10.556
88288SOL     OW66695  12.571   1.697   9.654
88288SOL    HW166696  12.481   1.666   9.667
88288SOL    HW266697  12.625   1.618   9.659
88289SOL     OW66698   1.304   9.214   6.104
88289SOL    HW166699   1.341   9.168   6.029
88289SOL    HW266700   1.365   9.286   6.121
88290SOL     OW66701   4.444  12.030  11.271
88290SOL    HW166702   4.499  12.068  11.203
88290SOL    HW266703   4.360  12.011  11.228
88291SOL     OW66704  10.257  14.793   4.986
88291SOL    HW166705  10.229  14.805   5.076
88291SOL    HW266706  10.351  14.814   4.987
88292SOL     OW66707   1.132   2.787   6.122
88292SOL    HW166708   1.083   2.796   6.041
88292SOL    HW266709   1.218   2.754   6.096
88293SOL     OW66710   7.245   2.564   3.713
88293SOL    HW166711   7.275   2.588   3.625
88293SOL    HW266712   7.175   2.500   3.698
88294SOL     OW66713   5.595  14.553   1.635
88294SOL    HW166714   5.524  14.614   1.614
88294SOL    HW266715   5.673  14.593   1.597
88295SOL     OW66716   3.801   5.849   2.877
88295SOL    HW166717   3.805   5.932   2.830
88295SOL    HW266718   3.892   5.828   2.897
88296SOL     OW66719   7.663   7.405   9.112
88296SOL    HW166720   7.608   7.350   9.057
88296SOL    HW266721   7.728   7.442   9.052
88297SOL     OW66722  11.121   8.670  11.218
88297SOL    HW166723  11.079   8.749  11.183
88297SOL    HW266724  11.049   8.618  11.252
88298SOL     OW66725   8.159   9.948   8.652
88298SOL    HW166726   8.118   9.862   8.666
88298SOL    HW266727   8.166   9.985   8.740
88299SOL     OW66728   6.607  13.435   4.526
88299SOL    HW166729   6.541  13.401   4.465
88299SOL    HW266730   6.685  13.448   4.472
88300SOL     OW66731   7.148   2.002   2.521
88300SOL    HW166732   7.105   2.068   2.576
88300SOL    HW266733   7.143   2.038   2.432
88301SOL     OW66734  14.099   6.949  12.737
88301SOL    HW166735  14.017   6.960  12.688
88301SOL    HW266736  14.148   6.883  12.687
88302SOL     OW66737   1.019   7.134   2.456
88302SOL    HW166738   1.033   7.111   2.548
88302SOL    HW266739   1.071   7.213   2.443
88303SOL     OW66740   3.074  12.104   1.723
88303SOL    HW166741   3.075  12.009   1.714
88303SOL    HW266742   3.080  12.119   1.817
88304SOL     OW66743   8.566  13.933  13.548
88304SOL    HW166744   8.626  13.865  13.580
88304SOL    HW266745   8.593  13.948  13.458
88305SOL     OW66746   2.932  11.079  10.095
88305SOL    HW166747   2.911  10.990  10.124
88305SOL    HW266748   3.021  11.072  10.060
88306SOL     OW66749  14.268  13.223   0.047
88306SOL    HW166750  14.188  13.171   0.039
88306SOL    HW266751  14.238  13.314   0.053
88307SOL     OW66752   1.446   6.373  12.454
88307SOL    HW166753   1.412   6.308  12.515
88307SOL    HW266754   1.517   6.327  12.408
88308SOL     OW66755   6.538   5.206   3.504
88308SOL    HW166756   6.609   5.190   3.567
88308SOL    HW266757   6.560   5.291   3.466
88309SOL     OW66758   2.611   6.036   3.054
88309SOL    HW166759   2.551   5.964   3.075
88309SOL    HW266760   2.697   5.994   3.046
88310SOL     OW66761   0.869  12.397   1.902
88310SOL    HW166762   0.912  12.357   1.826
88310SOL    HW266763   0.829  12.477   1.867
88311SOL     OW66764   0.119  14.120   4.211
88311SOL    HW166765   0.133  14.093   4.121
88311SOL    HW266766   0.117  14.039   4.261
88312SOL     OW66767   4.048   1.264   1.621
88312SOL    HW166768   3.974   1.227   1.669
88312SOL    HW266769   4.066   1.200   1.552
88313SOL     OW66770   6.295  12.915   6.000
88313SOL    HW166771   6.239  12.992   6.013
88313SOL    HW266772   6.235  12.846   5.973
88314SOL     OW66773  14.620   2.303  10.756
88314SOL    HW166774  14.641   2.269  10.669
88314SOL    HW266775  14.595   2.226  10.806
88315SOL     OW66776   8.311   6.875   3.964
88315SOL    HW166777   8.219   6.893   3.942
88315SOL    HW266778   8.315   6.779   3.970
88316SOL     OW66779   6.540   7.377   5.656
88316SOL    HW166780   6.548   7.306   5.719
88316SOL    HW266781   6.451   7.410   5.667
88317SOL     OW66782   7.434   4.584   7.387
88317SOL    HW166783   7.347   4.620   7.368
88317SOL    HW266784   7.465   4.551   7.303
88318SOL     OW66785   1.142   1.908  13.435
88318SOL    HW166786   1.072   1.973  13.437
88318SOL    HW266787   1.118   1.848  13.364
88319SOL     OW66788  10.948   1.322   6.205
88319SOL    HW166789  10.976   1.261   6.136
88319SOL    HW266790  10.995   1.403   6.184
88320SOL     OW66791  10.567   7.827  11.264
88320SOL    HW166792  10.510   7.899  11.237
88320SOL    HW266793  10.652   7.867  11.279
88321SOL     OW66794  10.893  12.668   8.931
88321SOL    HW166795  10.855  12.687   9.017
88321SOL    HW266796  10.987  12.662   8.947
88322SOL     OW66797   7.552  10.528  12.959
88322SOL    HW166798   7.468  10.552  12.997
88322SOL    HW266799   7.573  10.601  12.900
88323SOL     OW66800   6.543   2.449  12.295
88323SOL    HW166801   6.621   2.491  12.332
88323SOL    HW266802   6.578   2.385  12.233
88324SOL     OW66803  10.957   4.084  12.038
88324SOL    HW166804  10.943   4.165  12.086
88324SOL    HW266805  10.995   4.024  12.102
88325SOL     OW66806  12.661   9.129   5.150
88325SOL    HW166807  12.728   9.197   5.151
88325SOL    HW266808  12.708   9.048   5.131
88326SOL     OW66809  14.770   4.537  11.065
88326SOL    HW166810  14.775   4.553  11.159
88326SOL    HW266811  14.843   4.586  11.028
88327SOL     OW66812  13.626   5.759   3.308
88327SOL    HW166813  13.644   5.686   3.249
88327SOL    HW266814  13.542   5.738   3.347
88328SOL     OW66815   1.558   9.810   4.730
88328SOL    HW166816   1.556   9.714   4.729
88328SOL    HW266817   1.641   9.832   4.772
88329SOL     OW66818   9.123  13.772  13.790
88329SOL    HW166819   9.184  13.784  13.862
88329SOL    HW266820   9.050  13.723  13.828
88330SOL     OW66821  12.553   0.101   9.188
88330SOL    HW166822  12.643   0.124   9.169
88330SOL    HW266823  12.545   0.111   9.283
88331SOL     OW66824   9.443   4.628   0.985
88331SOL    HW166825   9.450   4.629   0.889
88331SOL    HW266826   9.412   4.540   1.006
88332SOL     OW66827   0.374   7.193   5.136
88332SOL    HW166828   0.370   7.218   5.044
88332SOL    HW266829   0.418   7.108   5.137
88333SOL     OW66830   7.288   3.868   3.094
88333SOL    HW166831   7.223   3.926   3.134
88333SOL    HW266832   7.254   3.780   3.108
88334SOL     OW66833   9.646  12.899   4.738
88334SOL    HW166834   9.661  12.868   4.649
88334SOL    HW266835   9.580  12.969   4.728
88335SOL     OW66836  13.367  12.466   7.529
88335SOL    HW166837  13.280  12.451   7.567
88335SOL    HW266838  13.353  12.462   7.434
88336SOL     OW66839  13.421   5.624   5.479
88336SOL    HW166840  13.379   5.558   5.423
88336SOL    HW266841  13.373   5.705   5.462
88337SOL     OW66842   5.286   2.089   6.505
88337SOL    HW166843   5.198   2.072   6.471
88337SOL    HW266844   5.294   2.032   6.581
88338SOL     OW66845   8.950  14.854   7.778
88338SOL    HW166846   8.986   0.044   7.838
88338SOL    HW266847   9.023  14.795   7.762
88339SOL     OW66848   4.087   3.677  13.001
88339SOL    HW166849   4.016   3.645  12.945
88339SOL    HW266850   4.166   3.665  12.949
88340SOL     OW66851   9.906   8.588  14.000
88340SOL    HW166852   9.974   8.614  14.063
88340SOL    HW266853   9.882   8.669  13.956
88341SOL     OW66854   5.589   9.514   4.064
88341SOL    HW166855   5.637   9.586   4.023
88341SOL    HW266856   5.562   9.550   4.149
88342SOL     OW66857   4.709   4.481  11.905
88342SOL    HW166858   4.701   4.576  11.899
88342SOL    HW266859   4.737   4.464  11.995
88343SOL     OW66860  12.745  10.075  11.952
88343SOL    HW166861  12.657  10.103  11.926
88343SOL    HW266862  12.801  10.149  11.931
88344SOL     OW66863  12.890   0.586   5.260
88344SOL    HW166864  12.888   0.505   5.310
88344SOL    HW266865  12.891   0.655   5.327
88345SOL     OW66866  12.888   2.180  12.358
88345SOL    HW166867  12.809   2.198  12.307
88345SOL    HW266868  12.897   2.084  12.357
88346SOL     OW66869  10.903   7.131  12.543
88346SOL    HW166870  10.912   7.202  12.606
88346SOL    HW266871  10.881   7.054  12.595
88347SOL     OW66872   1.052  12.762   1.752
88347SOL    HW166873   1.145  12.783   1.741
88347SOL    HW266874   1.044  12.672   1.721
88348SOL     OW66875  11.534   5.587   6.816
88348SOL    HW166876  11.615   5.636   6.804
88348SOL    HW266877  11.555   5.521   6.882
88349SOL     OW66878   9.909  11.734   2.963
88349SOL    HW166879  10.004  11.747   2.968
88349SOL    HW266880   9.878  11.805   2.907
88350SOL     OW66881   9.740   1.237   8.104
88350SOL    HW166882   9.749   1.168   8.038
88350SOL    HW266883   9.696   1.193   8.178
88351SOL     OW66884  11.342   2.564  12.076
88351SOL    HW166885  11.390   2.620  12.016
88351SOL    HW266886  11.410   2.509  12.116
88352SOL     OW66887   2.706   4.668  13.353
88352SOL    HW166888   2.792   4.663  13.313
88352SOL    HW266889   2.670   4.752  13.323
88353SOL     OW66890   7.039  14.804   1.397
88353SOL    HW166891   7.010  14.795   1.306
88353SOL    HW266892   6.990   0.004   1.429
88354SOL     OW66893   0.023   6.661   2.383
88354SOL    HW166894  14.849   6.602   2.438
88354SOL    HW266895  14.845   6.672   2.304
88355SOL     OW66896   9.346   9.550  10.443
88355SOL    HW166897   9.413   9.594  10.391
88355SOL    HW266898   9.266   9.598  10.424
88356SOL     OW66899   3.214  12.112  11.528
88356SOL    HW166900   3.223  12.143  11.618
88356SOL    HW266901   3.128  12.068  11.527
88357SOL     OW66902  11.054  13.918   3.628
88357SOL    HW166903  11.120  13.874   3.682
88357SOL    HW266904  10.975  13.917   3.682
88358SOL     OW66905  11.152  10.157   7.162
88358SOL    HW166906  11.101  10.118   7.234
88358SOL    HW266907  11.227  10.099   7.152
88359SOL     OW66908   5.217   1.186   5.414
88359SOL    HW166909   5.250   1.252   5.475
88359SOL    HW266910   5.149   1.232   5.364
88360SOL     OW66911  11.617  11.477  12.691
88360SOL    HW166912  11.546  11.525  12.733
88360SOL    HW266913  11.694  11.534  12.702
88361SOL     OW66914  10.527  12.349   5.457
88361SOL    HW166915  10.547  12.421   5.397
88361SOL    HW266916  10.610  12.331   5.502
88362SOL     OW66917  11.269   6.933  14.526
88362SOL    HW166918  11.241   6.845  14.500
88362SOL    HW266919  11.189   6.986  14.521
88363SOL     OW66920  10.729  13.392   7.619
88363SOL    HW166921  10.680  13.416   7.540
88363SOL    HW266922  10.797  13.333   7.587
88364SOL     OW66923   0.685   4.116   3.994
88364SOL    HW166924   0.592   4.092   3.995
88364SOL    HW266925   0.694   4.179   3.923
88365SOL     OW66926   9.604   4.263   8.869
88365SOL    HW166927   9.626   4.240   8.959
88365SOL    HW266928   9.655   4.341   8.851
88366SOL     OW66929   6.183   1.426   4.187
88366SOL    HW166930   6.252   1.390   4.132
88366SOL    HW266931   6.217   1.511   4.216
88367SOL     OW66932   5.277   7.419   0.627
88367SOL    HW166933   5.325   7.417   0.545
88367SOL    HW266934   5.232   7.503   0.627
88368SOL     OW66935   1.861  14.853  14.234
88368SOL    HW166936   1.879   0.064  14.269
88368SOL    HW266937   1.799  14.868  14.163
88369SOL     OW66938   1.098  10.559   1.547
88369SOL    HW166939   1.098  10.510   1.465
88369SOL    HW266940   1.036  10.631   1.533
88370SOL     OW66941   3.135  13.791   6.455
88370SOL    HW166942   3.223  13.816   6.483
88370SOL    HW266943   3.084  13.791   6.536
88371SOL     OW66944  12.636   2.992   2.016
88371SOL    HW166945  12.720   3.000   1.970
88371SOL    HW266946  12.645   3.050   2.091
88372SOL     OW66947  12.824  14.073  13.922
88372SOL    HW166948  12.873  13.992  13.907
88372SOL    HW266949  12.733  14.048  13.905
88373SOL     OW66950   8.091   2.898   5.513
88373SOL    HW166951   8.087   2.973   5.573
88373SOL    HW266952   8.020   2.840   5.541
88374SOL     OW66953   9.023   9.770   3.233
88374SOL    HW166954   8.985   9.705   3.291
88374SOL    HW266955   9.023   9.851   3.284
88375SOL     OW66956  12.533  13.125  14.537
88375SOL    HW166957  12.617  13.110  14.580
88375SOL    HW266958  12.509  13.040  14.500
88376SOL     OW66959   0.627   1.987   4.580
88376SOL    HW166960   0.634   1.902   4.537
88376SOL    HW266961   0.577   1.970   4.660
88377SOL     OW66962   1.725  10.075   7.634
88377SOL    HW166963   1.775  10.050   7.557
88377SOL    HW266964   1.635  10.083   7.603
88378SOL     OW66965   0.564  10.009   2.886
88378SOL    HW166966   0.543  10.079   2.824
88378SOL    HW266967   0.536  10.043   2.971
88379SOL     OW66968   1.822   9.719   8.135
88379SOL    HW166969   1.837   9.700   8.228
88379SOL    HW266970   1.797   9.812   8.133
88380SOL     OW66971   7.742  12.196   5.257
88380SOL    HW166972   7.655  12.187   5.220
88380SOL    HW266973   7.798  12.144   5.199
88381SOL     OW66974  10.227   2.715   0.315
88381SOL    HW166975  10.175   2.655   0.262
88381SOL    HW266976  10.310   2.670   0.327
88382SOL     OW66977   8.833   7.442   0.259
88382SOL    HW166978   8.761   7.486   0.215
88382SOL    HW266979   8.892   7.512   0.286
88383SOL     OW66980  11.009   0.047   1.991
88383SOL    HW166981  10.932   0.105   1.989
88383SOL    HW266982  11.083   0.106   1.980
88384SOL     OW66983   2.076   1.030  12.884
88384SOL    HW166984   2.121   1.032  12.799
88384SOL    HW266985   2.075   1.121  12.913
88385SOL     OW66986   4.796   8.240   9.419
88385SOL    HW166987   4.813   8.153   9.385
88385SOL    HW266988   4.793   8.229   9.514
88386SOL     OW66989   2.953  10.772   8.930
88386SOL    HW166990   2.969  10.708   9.000
88386SOL    HW266991   2.993  10.853   8.962
88387SOL     OW66992  11.382   6.584  10.132
88387SOL    HW166993  11.325   6.661  10.141
88387SOL    HW266994  11.346   6.520  10.193
88388SOL     OW66995   7.322   5.774   1.890
88388SOL    HW166996   7.270   5.809   1.962
88388SOL    HW266997   7.262   5.775   1.815
88389SOL     OW66998   0.766   4.536   0.920
88389SOL    HW166999   0.728   4.623   0.928
88389SOL    HW267000   0.781   4.508   1.010
88390SOL     OW67001   9.646  10.873   4.458
88390SOL    HW167002   9.641  10.937   4.528
88390SOL    HW267003   9.699  10.915   4.390
88391SOL     OW67004   7.594   3.044   9.772
88391SOL    HW167005   7.520   2.983   9.771
88391SOL    HW267006   7.555   3.128   9.798
88392SOL     OW67007   0.074   0.925   3.917
88392SOL    HW167008   0.063   0.878   4.000
88392SOL    HW267009   0.153   0.978   3.929
88393SOL     OW67010   7.813  11.974   0.289
88393SOL    HW167011   7.907  11.958   0.290
88393SOL    HW267012   7.796  12.022   0.370
88394SOL     OW67013   0.591   2.935  11.168
88394SOL    HW167014   0.514   2.908  11.219
88394SOL    HW267015   0.657   2.956  11.234
88395SOL     OW67016   6.113   0.484   9.708
88395SOL    HW167017   6.091   0.575   9.686
88395SOL    HW267018   6.073   0.470   9.794
88396SOL     OW67019   6.884  12.919   3.581
88396SOL    HW167020   6.857  12.829   3.562
88396SOL    HW267021   6.842  12.971   3.512
88397SOL     OW67022   4.810   7.387  14.556
88397SOL    HW167023   4.855   7.472  14.561
88397SOL    HW267024   4.799   7.371  14.463
88398SOL     OW67025  12.128  11.297   6.157
88398SOL    HW167026  12.098  11.283   6.246
88398SOL    HW267027  12.117  11.213   6.113
88399SOL     OW67028   7.068   9.542   7.961
88399SOL    HW167029   7.162   9.535   7.943
88399SOL    HW267030   7.034   9.455   7.941
88400SOL     OW67031   4.692   6.471  10.485
88400SOL    HW167032   4.739   6.554  10.482
88400SOL    HW267033   4.700   6.441  10.576
88401SOL     OW67034   8.468   8.362   4.107
88401SOL    HW167035   8.447   8.269   4.120
88401SOL    HW267036   8.402   8.409   4.158
88402SOL     OW67037   6.876  14.657  14.572
88402SOL    HW167038   6.937  14.656  14.646
88402SOL    HW267039   6.873  14.566  14.542
88403SOL     OW67040   0.207   1.973   9.949
88403SOL    HW167041   0.285   1.972   9.894
88403SOL    HW267042   0.239   1.949  10.036
88404SOL     OW67043   8.660   4.405   0.965
88404SOL    HW167044   8.706   4.334   0.920
88404SOL    HW267045   8.581   4.419   0.913
88405SOL     OW67046   5.844   1.918   0.722
88405SOL    HW167047   5.784   1.945   0.792
88405SOL    HW267048   5.805   1.952   0.642
88406SOL     OW67049  14.510   4.864   9.450
88406SOL    HW167050  14.555   4.934   9.497
88406SOL    HW267051  14.505   4.792   9.513
88407SOL     OW67052   9.767  13.034   9.186
88407SOL    HW167053   9.837  12.970   9.175
88407SOL    HW267054   9.695  12.984   9.224
88408SOL     OW67055   9.221   3.960   3.588
88408SOL    HW167056   9.238   3.921   3.502
88408SOL    HW267057   9.166   4.036   3.569
88409SOL     OW67058  14.817   4.239   9.311
88409SOL    HW167059  14.819   4.144   9.314
88409SOL    HW267060  14.738   4.263   9.359
88410SOL     OW67061  13.736  14.145   7.095
88410SOL    HW167062  13.707  14.059   7.125
88410SOL    HW267063  13.660  14.182   7.050
88411SOL     OW67064   7.470   8.194   1.143
88411SOL    HW167065   7.455   8.283   1.176
88411SOL    HW267066   7.407   8.184   1.072
88412SOL     OW67067   6.933   2.630  13.342
88412SOL    HW167068   6.874   2.604  13.413
88412SOL    HW267069   7.019   2.635  13.382
88413SOL     OW67070   7.191  14.238   6.894
88413SOL    HW167071   7.198  14.198   6.807
88413SOL    HW267072   7.115  14.296   6.888
88414SOL     OW67073  11.107  10.349   5.083
88414SOL    HW167074  11.029  10.404   5.086
88414SOL    HW267075  11.080  10.271   5.034
88415SOL     OW67076  12.201   8.231   1.140
88415SOL    HW167077  12.110   8.255   1.124
88415SOL    HW267078  12.246   8.252   1.058
88416SOL     OW67079   8.878  10.691   3.441
88416SOL    HW167080   8.800  10.645   3.408
88416SOL    HW267081   8.860  10.702   3.534
88417SOL     OW67082   8.738  14.808   2.456
88417SOL    HW167083   8.819  14.784   2.503
88417SOL    HW267084   8.690  14.725   2.448
88418SOL     OW67085   0.760  13.399   1.040
88418SOL    HW167086   0.822  13.390   0.968
88418SOL    HW267087   0.711  13.479   1.019
88419SOL     OW67088  14.425   2.038  14.826
88419SOL    HW167089  14.347   2.069  14.779
88419SOL    HW267090  14.442   2.105   0.016
88420SOL     OW67091   5.301   9.955   5.593
88420SOL    HW167092   5.232   9.999   5.544
88420SOL    HW267093   5.354   9.911   5.526
88421SOL     OW67094   9.218   6.541  12.295
88421SOL    HW167095   9.185   6.614  12.244
88421SOL    HW267096   9.308   6.566  12.318
88422SOL     OW67097   4.013   9.522  13.807
88422SOL    HW167098   3.973   9.591  13.860
88422SOL    HW267099   4.056   9.568  13.735
88423SOL     OW67100  14.158   4.625   9.557
88423SOL    HW167101  14.168   4.683   9.633
88423SOL    HW267102  14.188   4.678   9.483
88424SOL     OW67103   0.496   3.468  14.625
88424SOL    HW167104   0.437   3.394  14.641
88424SOL    HW267105   0.573   3.429  14.584
88425SOL     OW67106  14.034   2.529   8.251
88425SOL    HW167107  14.062   2.619   8.268
88425SOL    HW267108  14.090   2.499   8.180
88426SOL     OW67109   2.494  10.249   4.601
88426SOL    HW167110   2.470  10.174   4.657
88426SOL    HW267111   2.562  10.214   4.544
88427SOL     OW67112  14.832   7.969   6.694
88427SOL    HW167113   0.038   8.019   6.684
88427SOL    HW267114  14.766   8.035   6.713
88428SOL     OW67115  13.468   9.498   7.829
88428SOL    HW167116  13.498   9.571   7.774
88428SOL    HW267117  13.376   9.487   7.807
88429SOL     OW67118   4.159   2.337   4.265
88429SOL    HW167119   4.214   2.260   4.255
88429SOL    HW267120   4.112   2.343   4.181
88430SOL     OW67121  12.538   3.377  11.436
88430SOL    HW167122  12.464   3.436  11.423
88430SOL    HW267123  12.500   3.296  11.471
88431SOL     OW67124   7.715   3.323  14.037
88431SOL    HW167125   7.632   3.347  14.078
88431SOL    HW267126   7.771   3.298  14.110
88432SOL     OW67127  13.577  11.130   5.855
88432SOL    HW167128  13.500  11.154   5.907
88432SOL    HW267129  13.583  11.035   5.864
88433SOL     OW67130   2.402   0.779   6.584
88433SOL    HW167131   2.328   0.719   6.589
88433SOL    HW267132   2.364   0.866   6.596
88434SOL     OW67133  11.621   9.006   8.268
88434SOL    HW167134  11.693   8.950   8.297
88434SOL    HW267135  11.615   9.074   8.335
88435SOL     OW67136   1.297  12.158   1.073
88435SOL    HW167137   1.258  12.110   1.146
88435SOL    HW267138   1.376  12.109   1.052
88436SOL     OW67139   7.183  12.058   0.576
88436SOL    HW167140   7.274  12.084   0.588
88436SOL    HW267141   7.186  11.983   0.518
88437SOL     OW67142  13.693  13.366  11.774
88437SOL    HW167143  13.762  13.356  11.840
88437SOL    HW267144  13.698  13.287  11.721
88438SOL     OW67145   7.030   6.046  12.478
88438SOL    HW167146   7.049   6.074  12.568
88438SOL    HW267147   7.116   6.042  12.436
88439SOL     OW67148   5.023  10.073   0.381
88439SOL    HW167149   5.082  10.012   0.425
88439SOL    HW267150   5.063  10.159   0.393
88440SOL     OW67151  13.928   6.125   2.957
88440SOL    HW167152  14.021   6.143   2.944
88440SOL    HW267153  13.906   6.169   3.039
88441SOL     OW67154   3.735  14.767   1.654
88441SOL    HW167155   3.698  14.733   1.736
88441SOL    HW267156   3.757  14.858   1.674
88442SOL     OW67157   8.800  12.509   6.280
88442SOL    HW167158   8.753  12.512   6.197
88442SOL    HW267159   8.739  12.547   6.344
88443SOL     OW67160  12.965   2.095  13.373
88443SOL    HW167161  13.009   2.058  13.297
88443SOL    HW267162  13.036   2.129  13.427
88444SOL     OW67163  11.761  11.821   8.987
88444SOL    HW167164  11.824  11.810   9.058
88444SOL    HW267165  11.708  11.742   8.988
88445SOL     OW67166   3.010  11.357   6.792
88445SOL    HW167167   2.953  11.383   6.864
88445SOL    HW267168   3.019  11.262   6.802
88446SOL     OW67169   0.162  12.220  10.607
88446SOL    HW167170   0.251  12.213  10.640
88446SOL    HW267171   0.165  12.179  10.520
88447SOL     OW67172   8.770   7.692  13.220
88447SOL    HW167173   8.717   7.730  13.290
88447SOL    HW267174   8.856   7.679  13.260
88448SOL     OW67175  11.906  14.239   4.846
88448SOL    HW167176  11.989  14.205   4.810
88448SOL    HW267177  11.847  14.164   4.843
88449SOL     OW67178  12.210   9.529  11.714
88449SOL    HW167179  12.223   9.557  11.804
88449SOL    HW267180  12.203   9.610  11.664
88450SOL     OW67181  11.139  10.134  14.258
88450SOL    HW167182  11.190  10.123  14.178
88450SOL    HW267183  11.048  10.121  14.230
88451SOL     OW67184  10.163   3.057   1.978
88451SOL    HW167185  10.220   3.111   1.923
88451SOL    HW267186  10.165   3.099   2.064
88452SOL     OW67187   2.329   4.381  13.963
88452SOL    HW167188   2.240   4.354  13.989
88452SOL    HW267189   2.371   4.299  13.937
88453SOL     OW67190   1.341  10.396   0.124
88453SOL    HW167191   1.325  10.307   0.091
88453SOL    HW267192   1.336  10.452   0.046
88454SOL     OW67193  10.789  14.670  11.656
88454SOL    HW167194  10.744  14.632  11.732
88454SOL    HW267195  10.859  14.723  11.694
88455SOL     OW67196   8.334  10.915  10.916
88455SOL    HW167197   8.248  10.872  10.917
88455SOL    HW267198   8.396  10.845  10.934
88456SOL     OW67199  14.275  12.673   5.254
88456SOL    HW167200  14.219  12.604   5.218
88456SOL    HW267201  14.312  12.717   5.177
88457SOL     OW67202   3.960   2.620   7.349
88457SOL    HW167203   3.922   2.707   7.357
88457SOL    HW267204   3.887   2.563   7.324
88458SOL     OW67205  12.292   3.424   5.603
88458SOL    HW167206  12.283   3.500   5.546
88458SOL    HW267207  12.263   3.456   5.689
88459SOL     OW67208   1.340   1.368   6.669
88459SOL    HW167209   1.405   1.438   6.664
88459SOL    HW267210   1.357   1.314   6.593
88460SOL     OW67211  13.610   9.030   8.347
88460SOL    HW167212  13.703   9.012   8.364
88460SOL    HW267213  13.604   9.034   8.251
88461SOL     OW67214   3.373   8.618  14.503
88461SOL    HW167215   3.416   8.533  14.495
88461SOL    HW267216   3.404   8.653  14.587
88462SOL     OW67217  13.522   5.958  12.995
88462SOL    HW167218  13.543   5.999  12.911
88462SOL    HW267219  13.448   6.008  13.028
88463SOL     OW67220   0.363   0.472  14.175
88463SOL    HW167221   0.407   0.387  14.175
88463SOL    HW267222   0.338   0.487  14.266
88464SOL     OW67223   7.696   5.716  14.399
88464SOL    HW167224   7.672   5.790  14.343
88464SOL    HW267225   7.752   5.755  14.466
88465SOL     OW67226   1.316   0.179   1.347
88465SOL    HW167227   1.270   0.243   1.293
88465SOL    HW267228   1.406   0.211   1.352
88466SOL     OW67229  10.480   6.386   2.772
88466SOL    HW167230  10.479   6.470   2.726
88466SOL    HW267231  10.390   6.355   2.767
88467SOL     OW67232  12.790  14.226   5.832
88467SOL    HW167233  12.717  14.255   5.887
88467SOL    HW267234  12.853  14.189   5.893
88468SOL     OW67235   1.088   5.518   9.313
88468SOL    HW167236   0.998   5.532   9.284
88468SOL    HW267237   1.136   5.593   9.280
88469SOL     OW67238  14.540   7.570  10.910
88469SOL    HW167239  14.464   7.628  10.914
88469SOL    HW267240  14.508   7.486  10.941
88470SOL     OW67241   5.500  13.595  11.205
88470SOL    HW167242   5.556  13.650  11.259
88470SOL    HW267243   5.549  13.513  11.195
88471SOL     OW67244   2.468   7.428   1.807
88471SOL    HW167245   2.430   7.514   1.792
88471SOL    HW267246   2.505   7.403   1.723
88472SOL     OW67247  10.499   6.138   8.749
88472SOL    HW167248  10.408   6.162   8.738
88472SOL    HW267249  10.504   6.048   8.716
88473SOL     OW67250   7.376   8.838  14.213
88473SOL    HW167251   7.317   8.774  14.173
88473SOL    HW267252   7.319   8.913  14.234
88474SOL     OW67253   9.392   5.627   3.837
88474SOL    HW167254   9.430   5.540   3.840
88474SOL    HW267255   9.372   5.641   3.745
88475SOL     OW67256   5.751   7.055   6.233
88475SOL    HW167257   5.766   7.001   6.311
88475SOL    HW267258   5.837   7.092   6.213
88476SOL     OW67259   5.679   0.280  12.203
88476SOL    HW167260   5.637   0.217  12.261
88476SOL    HW267261   5.621   0.284  12.127
88477SOL     OW67262   2.401  11.049   3.883
88477SOL    HW167263   2.423  11.051   3.790
88477SOL    HW267264   2.468  10.993   3.923
88478SOL     OW67265   8.013   2.309   8.718
88478SOL    HW167266   7.993   2.248   8.647
88478SOL    HW267267   7.966   2.389   8.695
88479SOL     OW67268   3.014  14.128   8.389
88479SOL    HW167269   3.015  14.033   8.376
88479SOL    HW267270   3.073  14.142   8.463
88480SOL     OW67271  13.722  14.395  10.714
88480SOL    HW167272  13.668  14.392  10.793
88480SOL    HW267273  13.812  14.390  10.745
88481SOL     OW67274  10.424   3.049   6.668
88481SOL    HW167275  10.361   3.064   6.598
88481SOL    HW267276  10.507   3.080   6.632
88482SOL     OW67277   2.515   4.050  14.402
88482SOL    HW167278   2.436   4.007  14.435
88482SOL    HW267279   2.561   4.079  14.480
88483SOL     OW67280   8.804   5.469  11.802
88483SOL    HW167281   8.840   5.459  11.713
88483SOL    HW267282   8.726   5.414  11.803
88484SOL     OW67283  11.782  13.746   1.678
88484SOL    HW167284  11.697  13.789   1.670
88484SOL    HW267285  11.778  13.674   1.614
88485SOL     OW67286   6.554   3.889   7.806
88485SOL    HW167287   6.603   3.883   7.889
88485SOL    HW267288   6.534   3.982   7.797
88486SOL     OW67289  11.351   3.380   6.760
88486SOL    HW167290  11.347   3.333   6.843
88486SOL    HW267291  11.443   3.407   6.752
88487SOL     OW67292   6.461   6.380   3.132
88487SOL    HW167293   6.399   6.433   3.083
88487SOL    HW267294   6.491   6.438   3.203
88488SOL     OW67295   5.425   5.273   8.275
88488SOL    HW167296   5.360   5.205   8.257
88488SOL    HW267297   5.401   5.345   8.217
88489SOL     OW67298   3.800  13.537   1.404
88489SOL    HW167299   3.863  13.473   1.371
88489SOL    HW267300   3.737  13.547   1.332
88490SOL     OW67301   7.248   1.416  10.291
88490SOL    HW167302   7.269   1.361  10.366
88490SOL    HW267303   7.174   1.372  10.249
88491SOL     OW67304   8.736   3.901   1.338
88491SOL    HW167305   8.806   3.966   1.344
88491SOL    HW267306   8.664   3.947   1.296
88492SOL     OW67307   3.172   9.298  10.972
88492SOL    HW167308   3.161   9.307  10.877
88492SOL    HW267309   3.172   9.388  11.005
88493SOL     OW67310   8.275   7.649  12.650
88493SOL    HW167311   8.349   7.686  12.698
88493SOL    HW267312   8.272   7.699  12.569
88494SOL     OW67313   7.862   7.193  12.856
88494SOL    HW167314   7.771   7.166  12.846
88494SOL    HW267315   7.874   7.260  12.789
88495SOL     OW67316  11.380  14.420   9.157
88495SOL    HW167317  11.456  14.364   9.139
88495SOL    HW267318  11.323  14.408   9.082
88496SOL     OW67319  12.604   5.420  12.024
88496SOL    HW167320  12.574   5.373  11.946
88496SOL    HW267321  12.525   5.462  12.059
88497SOL     OW67322   4.379   7.751  12.976
88497SOL    HW167323   4.284   7.748  12.981
88497SOL    HW267324   4.398   7.837  12.938
88498SOL     OW67325   1.946  11.748   9.883
88498SOL    HW167326   1.914  11.661   9.909
88498SOL    HW267327   2.026  11.730   9.833
88499SOL     OW67328   5.608  11.373   7.311
88499SOL    HW167329   5.599  11.454   7.362
88499SOL    HW267330   5.532  11.373   7.253
88500SOL     OW67331   8.428   8.642   1.629
88500SOL    HW167332   8.386   8.609   1.708
88500SOL    HW267333   8.357   8.678   1.576
88501SOL     OW67334  12.207   8.796  10.391
88501SOL    HW167335  12.132   8.759  10.345
88501SOL    HW267336  12.180   8.885  10.414
88502SOL     OW67337   9.558   7.331   7.171
88502SOL    HW167338   9.502   7.409   7.169
88502SOL    HW267339   9.560   7.305   7.263
88503SOL     OW67340  10.108   2.630   1.806
88503SOL    HW167341  10.036   2.675   1.850
88503SOL    HW267342  10.174   2.698   1.794
88504SOL     OW67343   4.342  13.101   7.450
88504SOL    HW167344   4.257  13.079   7.411
88504SOL    HW267345   4.391  13.143   7.378
88505SOL     OW67346  12.187  10.315   3.120
88505SOL    HW167347  12.232  10.368   3.054
88505SOL    HW267348  12.168  10.378   3.191
88506SOL     OW67349   3.190   4.247  10.758
88506SOL    HW167350   3.274   4.292  10.770
88506SOL    HW267351   3.210   4.155  10.777
88507SOL     OW67352  11.747   0.025   3.451
88507SOL    HW167353  11.664   0.060   3.485
88507SOL    HW267354  11.789  14.862   3.527
88508SOL     OW67355   1.831   9.578   2.104
88508SOL    HW167356   1.780   9.654   2.132
88508SOL    HW267357   1.887   9.557   2.179
88509SOL     OW67358   1.227  10.670  12.673
88509SOL    HW167359   1.143  10.626  12.685
88509SOL    HW267360   1.206  10.750  12.625
88510SOL     OW67361  13.382  11.977   2.023
88510SOL    HW167362  13.399  12.020   1.938
88510SOL    HW267363  13.356  11.888   2.000
88511SOL     OW67364   2.902  14.487   5.559
88511SOL    HW167365   2.876  14.551   5.494
88511SOL    HW267366   2.984  14.520   5.595
88512SOL     OW67367  13.735   0.396  13.443
88512SOL    HW167368  13.720   0.488  13.424
88512SOL    HW267369  13.665   0.350  13.397
88513SOL     OW67370   7.673   4.492   6.405
88513SOL    HW167371   7.709   4.512   6.492
88513SOL    HW267372   7.635   4.405   6.415
88514SOL     OW67373  12.123   5.604   0.336
88514SOL    HW167374  12.125   5.567   0.247
88514SOL    HW267375  12.032   5.592   0.364
88515SOL     OW67376  10.787   1.761  14.378
88515SOL    HW167377  10.694   1.742  14.395
88515SOL    HW267378  10.806   1.837  14.433
88516SOL     OW67379   2.500   8.457   1.857
88516SOL    HW167380   2.524   8.449   1.949
88516SOL    HW267381   2.458   8.543   1.851
88517SOL     OW67382   2.496  11.652   6.926
88517SOL    HW167383   2.443  11.574   6.908
88517SOL    HW267384   2.526  11.681   6.840
88518SOL     OW67385  12.180   4.066  11.332
88518SOL    HW167386  12.258   4.011  11.339
88518SOL    HW267387  12.114   4.009  11.291
88519SOL     OW67388  11.728   1.708   3.549
88519SOL    HW167389  11.734   1.615   3.572
88519SOL    HW267390  11.634   1.724   3.542
88520SOL     OW67391  10.753   2.674   1.269
88520SOL    HW167392  10.804   2.732   1.213
88520SOL    HW267393  10.814   2.605   1.294
88521SOL     OW67394   0.852   6.204   0.840
88521SOL    HW167395   0.771   6.250   0.821
88521SOL    HW267396   0.854   6.133   0.776
88522SOL     OW67397  10.882  11.986   1.787
88522SOL    HW167398  10.824  11.988   1.863
88522SOL    HW267399  10.823  11.978   1.712
88523SOL     OW67400  10.197   8.132  12.718
88523SOL    HW167401  10.254   8.156  12.646
88523SOL    HW267402  10.235   8.177  12.794
88524SOL     OW67403   3.105   5.781  14.165
88524SOL    HW167404   3.098   5.841  14.239
88524SOL    HW267405   3.184   5.809  14.119
88525SOL     OW67406  11.024  10.089   4.700
88525SOL    HW167407  10.986  10.176   4.718
88525SOL    HW267408  11.089  10.077   4.770
88526SOL     OW67409   8.573   2.477   3.976
88526SOL    HW167410   8.555   2.393   4.018
88526SOL    HW267411   8.492   2.500   3.932
88527SOL     OW67412   2.274   0.704   3.835
88527SOL    HW167413   2.369   0.691   3.832
88527SOL    HW267414   2.263   0.798   3.826
88528SOL     OW67415  12.473   4.672   9.964
88528SOL    HW167416  12.527   4.593   9.972
88528SOL    HW267417  12.402   4.659  10.026
88529SOL     OW67418   8.718   2.108  12.538
88529SOL    HW167419   8.645   2.128  12.596
88529SOL    HW267420   8.786   2.073  12.596
88530SOL     OW67421   9.958   1.207   6.795
88530SOL    HW167422   9.876   1.187   6.752
88530SOL    HW267423   9.933   1.253   6.875
88531SOL     OW67424   6.350  11.245   6.985
88531SOL    HW167425   6.396  11.165   7.012
88531SOL    HW267426   6.261  11.216   6.966
88532SOL     OW67427   5.934   3.995   4.484
88532SOL    HW167428   5.962   3.904   4.481
88532SOL    HW267429   6.015   4.044   4.500
88533SOL     OW67430   5.066   2.347   4.500
88533SOL    HW167431   5.088   2.257   4.475
88533SOL    HW267432   4.974   2.357   4.474
88534SOL     OW67433  14.810   9.426   6.883
88534SOL    HW167434  14.730   9.449   6.835
88534SOL    HW267435  14.849   9.356   6.832
88535SOL     OW67436   8.736   9.013  12.768
88535SOL    HW167437   8.713   9.099  12.804
88535SOL    HW267438   8.676   9.002  12.694
88536SOL     OW67439   6.030   1.451   3.722
88536SOL    HW167440   6.114   1.467   3.679
88536SOL    HW267441   5.966   1.498   3.668
88537SOL     OW67442  11.574   3.653   6.114
88537SOL    HW167443  11.641   3.720   6.100
88537SOL    HW267444  11.525   3.651   6.031
88538SOL     OW67445  11.760   5.392  13.304
88538SOL    HW167446  11.739   5.475  13.260
88538SOL    HW267447  11.832   5.414  13.363
88539SOL     OW67448  12.555   8.780  13.375
88539SOL    HW167449  12.627   8.844  13.380
88539SOL    HW267450  12.525   8.770  13.465
88540SOL     OW67451  10.694  10.957  13.134
88540SOL    HW167452  10.744  11.034  13.161
88540SOL    HW267453  10.631  10.990  13.070
88541SOL     OW67454   1.246   3.163   6.487
88541SOL    HW167455   1.273   3.115   6.565
88541SOL    HW267456   1.191   3.100   6.438
88542SOL     OW67457  12.159  10.414   0.485
88542SOL    HW167458  12.213  10.484   0.449
88542SOL    HW267459  12.210  10.378   0.557
88543SOL     OW67460   7.839  11.857   1.043
88543SOL    HW167461   7.922  11.862   0.996
88543SOL    HW267462   7.836  11.767   1.076
88544SOL     OW67463   5.337   2.885   9.524
88544SOL    HW167464   5.416   2.837   9.497
88544SOL    HW267465   5.371   2.963   9.568
88545SOL     OW67466   9.941   8.462  12.340
88545SOL    HW167467   9.867   8.423  12.387
88545SOL    HW267468   9.918   8.555  12.333
88546SOL     OW67469   2.607   4.269  13.521
88546SOL    HW167470   2.676   4.265  13.456
88546SOL    HW267471   2.638   4.216  13.593
88547SOL     OW67472   0.511   7.032  13.860
88547SOL    HW167473   0.585   7.005  13.914
88547SOL    HW267474   0.515   6.975  13.784
88548SOL     OW67475   4.942   6.566  12.575
88548SOL    HW167476   4.908   6.479  12.557
88548SOL    HW267477   4.870   6.625  12.553
88549SOL     OW67478  13.972   0.598  12.993
88549SOL    HW167479  13.890   0.635  12.962
88549SOL    HW267480  13.946   0.524  13.047
88550SOL     OW67481   6.565   6.160   2.744
88550SOL    HW167482   6.544   6.244   2.703
88550SOL    HW267483   6.560   6.177   2.838
88551SOL     OW67484   5.189   1.151   7.803
88551SOL    HW167485   5.212   1.126   7.714
88551SOL    HW267486   5.190   1.069   7.853
88552SOL     OW67487   9.992  13.773   4.771
88552SOL    HW167488  10.000  13.722   4.690
88552SOL    HW267489   9.897  13.777   4.786
88553SOL     OW67490   8.047  11.785   0.425
88553SOL    HW167491   8.075  11.772   0.334
88553SOL    HW267492   8.023  11.698   0.455
88554SOL     OW67493  14.349   6.632   0.982
88554SOL    HW167494  14.442   6.630   1.002
88554SOL    HW267495  14.330   6.724   0.963
88555SOL     OW67496  14.184  10.384   2.958
88555SOL    HW167497  14.192  10.389   3.054
88555SOL    HW267498  14.256  10.328   2.930
88556SOL     OW67499   5.470   2.078   1.734
88556SOL    HW167500   5.398   2.082   1.798
88556SOL    HW267501   5.536   2.023   1.776
88557SOL     OW67502  13.119  12.555   2.958
88557SOL    HW167503  13.157  12.519   3.039
88557SOL    HW267504  13.165  12.509   2.888
88558SOL     OW67505   2.886   4.892   0.129
88558SOL    HW167506   2.913   4.959   0.192
88558SOL    HW267507   2.845   4.942   0.058
88559SOL     OW67508   7.992   1.103  10.119
88559SOL    HW167509   8.085   1.126  10.115
88559SOL    HW267510   7.980   1.038  10.050
88560SOL     OW67511   4.034  13.364  11.786
88560SOL    HW167512   4.024  13.272  11.762
88560SOL    HW267513   3.980  13.411  11.722
88561SOL     OW67514  12.522  12.113   6.186
88561SOL    HW167515  12.510  12.018   6.192
88561SOL    HW267516  12.488  12.136   6.100
88562SOL     OW67517   6.121  11.941  13.496
88562SOL    HW167518   6.211  11.974  13.507
88562SOL    HW267519   6.095  11.972  13.410
88563SOL     OW67520  14.287   1.824  13.786
88563SOL    HW167521  14.298   1.802  13.878
88563SOL    HW267522  14.262   1.742  13.744
88564SOL     OW67523   3.324   2.983   9.770
88564SOL    HW167524   3.395   3.002   9.709
88564SOL    HW267525   3.368   2.942   9.845
88565SOL     OW67526   5.164  11.537   3.154
88565SOL    HW167527   5.184  11.444   3.147
88565SOL    HW267528   5.189  11.560   3.244
88566SOL     OW67529  10.448   9.229  14.710
88566SOL    HW167530  10.417   9.318  14.730
88566SOL    HW267531  10.369   9.181  14.688
88567SOL     OW67532   9.649   9.380  14.423
88567SOL    HW167533   9.670   9.459  14.372
88567SOL    HW267534   9.576   9.406  14.478
88568SOL     OW67535   1.207   1.972   2.810
88568SOL    HW167536   1.151   2.050   2.803
88568SOL    HW267537   1.203   1.949   2.903
88569SOL     OW67538   6.445   6.583   4.351
88569SOL    HW167539   6.514   6.518   4.362
88569SOL    HW267540   6.457   6.616   4.261
88570SOL     OW67541  12.035  14.668   5.500
88570SOL    HW167542  12.078  14.621   5.429
88570SOL    HW267543  12.085  14.748   5.510
88571SOL     OW67544   2.742  11.140  10.596
88571SOL    HW167545   2.769  11.193  10.671
88571SOL    HW267546   2.678  11.194  10.551
88572SOL     OW67547   1.922   3.217   2.655
88572SOL    HW167548   1.918   3.312   2.662
88572SOL    HW267549   2.004   3.193   2.699
88573SOL     OW67550   2.198   9.800  10.746
88573SOL    HW167551   2.172   9.708  10.754
88573SOL    HW267552   2.205   9.830  10.836
88574SOL     OW67553   1.635  11.615  12.965
88574SOL    HW167554   1.630  11.710  12.958
88574SOL    HW267555   1.640  11.584  12.875
88575SOL     OW67556   7.778   7.263  10.386
88575SOL    HW167557   7.780   7.354  10.416
88575SOL    HW267558   7.865   7.248  10.347
88576SOL     OW67559   3.863   2.373   0.346
88576SOL    HW167560   3.952   2.343   0.326
88576SOL    HW267561   3.865   2.466   0.325
88577SOL     OW67562   9.259   3.102  12.980
88577SOL    HW167563   9.186   3.097  12.918
88577SOL    HW267564   9.225   3.154  13.053
88578SOL     OW67565   1.804   9.320   5.883
88578SOL    HW167566   1.827   9.406   5.847
88578SOL    HW267567   1.862   9.309   5.958
88579SOL     OW67568  11.940   0.663   2.223
88579SOL    HW167569  12.001   0.623   2.161
88579SOL    HW267570  11.991   0.676   2.303
88580SOL     OW67571   6.682   8.136   4.302
88580SOL    HW167572   6.590   8.141   4.328
88580SOL    HW267573   6.723   8.208   4.349
88581SOL     OW67574  13.877   6.856   0.994
88581SOL    HW167575  13.852   6.792   0.927
88581SOL    HW267576  13.915   6.929   0.945
88582SOL     OW67577   0.555   7.371  14.765
88582SOL    HW167578   0.477   7.354  14.711
88582SOL    HW267579   0.556   7.466  14.776
88583SOL     OW67580   1.390  11.748  14.165
88583SOL    HW167581   1.456  11.805  14.205
88583SOL    HW267582   1.432  11.714  14.085
88584SOL     OW67583   1.625  12.704  12.016
88584SOL    HW167584   1.650  12.671  11.930
88584SOL    HW267585   1.609  12.797  12.003
88585SOL     OW67586   2.030   8.134   8.095
88585SOL    HW167587   1.994   8.057   8.139
88585SOL    HW267588   2.115   8.104   8.061
88586SOL     OW67589  10.589   7.841   5.911
88586SOL    HW167590  10.506   7.810   5.947
88586SOL    HW267591  10.576   7.935   5.898
88587SOL     OW67592   9.209   2.037   3.477
88587SOL    HW167593   9.182   1.982   3.403
88587SOL    HW267594   9.219   2.124   3.439
88588SOL     OW67595   1.882   3.897   1.702
88588SOL    HW167596   1.957   3.856   1.746
88588SOL    HW267597   1.921   3.961   1.642
88589SOL     OW67598   6.501  13.623  14.652
88589SOL    HW167599   6.515  13.570  14.731
88589SOL    HW267600   6.407  13.622  14.638
88590SOL     OW67601   6.299   0.401   3.413
88590SOL    HW167602   6.352   0.413   3.335
88590SOL    HW267603   6.300   0.307   3.430
88591SOL     OW67604   5.583  12.527   3.997
88591SOL    HW167605   5.555  12.482   4.076
88591SOL    HW267606   5.583  12.459   3.929
88592SOL     OW67607  12.555   7.384   1.952
88592SOL    HW167608  12.467   7.408   1.981
88592SOL    HW267609  12.544   7.360   1.860
88593SOL     OW67610  14.020  13.117   5.470
88593SOL    HW167611  14.049  13.148   5.556
88593SOL    HW267612  13.929  13.147   5.464
88594SOL     OW67613   2.177  12.535   4.670
88594SOL    HW167614   2.166  12.444   4.641
88594SOL    HW267615   2.087  12.569   4.674
88595SOL     OW67616   1.532   3.903   1.830
88595SOL    HW167617   1.574   3.836   1.884
88595SOL    HW267618   1.567   3.888   1.742
88596SOL     OW67619   7.994   1.878   1.132
88596SOL    HW167620   8.066   1.815   1.135
88596SOL    HW267621   7.944   1.862   1.212
88597SOL     OW67622   0.348   3.048   3.816
88597SOL    HW167623   0.269   2.996   3.798
88597SOL    HW267624   0.367   3.032   3.908
88598SOL     OW67625   2.751  13.091   8.783
88598SOL    HW167626   2.680  13.089   8.719
88598SOL    HW267627   2.758  13.184   8.806
88599SOL     OW67628   8.085   6.518  12.045
88599SOL    HW167629   8.016   6.453  12.061
88599SOL    HW267630   8.056   6.565  11.967
88600SOL     OW67631  12.291   5.971   7.323
88600SOL    HW167632  12.387   5.973   7.314
88600SOL    HW267633  12.276   5.993   7.415
88601SOL     OW67634   0.369  13.608  12.408
88601SOL    HW167635   0.459  13.641  12.418
88601SOL    HW267636   0.348  13.570  12.494
88602SOL     OW67637  11.608   8.444   5.518
88602SOL    HW167638  11.596   8.527   5.565
88602SOL    HW267639  11.679   8.460   5.457
88603SOL     OW67640   6.663  13.951  10.661
88603SOL    HW167641   6.706  13.962  10.746
88603SOL    HW267642   6.724  13.990  10.598
88604SOL     OW67643  12.841   4.942   9.381
88604SOL    HW167644  12.805   4.855   9.363
88604SOL    HW267645  12.883   4.933   9.466
88605SOL     OW67646  13.567  13.780   5.734
88605SOL    HW167647  13.646  13.727   5.725
88605SOL    HW267648  13.516  13.737   5.803
88606SOL     OW67649  12.939  10.514   4.994
88606SOL    HW167650  12.867  10.550   4.942
88606SOL    HW267651  12.910  10.523   5.085
88607SOL     OW67652   6.681  10.903   5.414
88607SOL    HW167653   6.625  10.861   5.349
88607SOL    HW267654   6.762  10.923   5.367
88608SOL     OW67655   6.144   4.006  11.671
88608SOL    HW167656   6.093   4.086  11.658
88608SOL    HW267657   6.168   3.978  11.582
88609SOL     OW67658   7.455  12.272   1.871
88609SOL    HW167659   7.491  12.323   1.798
88609SOL    HW267660   7.443  12.184   1.836
88610SOL     OW67661   3.151  11.701  13.272
88610SOL    HW167662   3.181  11.653  13.194
88610SOL    HW267663   3.079  11.648  13.306
88611SOL     OW67664   0.163  11.347   5.650
88611SOL    HW167665   0.076  11.341   5.609
88611SOL    HW267666   0.220  11.298   5.590
88612SOL     OW67667   3.692   1.050  10.986
88612SOL    HW167668   3.630   1.004  11.043
88612SOL    HW267669   3.636   1.097  10.924
88613SOL     OW67670   5.779   3.625  11.049
88613SOL    HW167671   5.727   3.703  11.030
88613SOL    HW267672   5.716   3.553  11.047
88614SOL     OW67673   1.939  12.402   9.762
88614SOL    HW167674   1.907  12.314   9.781
88614SOL    HW267675   1.872  12.440   9.705
88615SOL     OW67676   3.190  13.264  14.333
88615SOL    HW167677   3.241  13.185  14.314
88615SOL    HW267678   3.123  13.235  14.394
88616SOL     OW67679  11.307  10.039   6.887
88616SOL    HW167680  11.351  10.057   6.970
88616SOL    HW267681  11.375  10.003   6.831
88617SOL     OW67682  14.217  12.883   4.876
88617SOL    HW167683  14.197  12.959   4.821
88617SOL    HW267684  14.133  12.858   4.914
88618SOL     OW67685   8.163   9.926   2.378
88618SOL    HW167686   8.181  10.015   2.348
88618SOL    HW267687   8.075   9.932   2.415
88619SOL     OW67688  12.674   6.227   2.546
88619SOL    HW167689  12.673   6.162   2.616
88619SOL    HW267690  12.728   6.188   2.478
88620SOL     OW67691  10.043   7.150  14.816
88620SOL    HW167692   9.967   7.194  14.777
88620SOL    HW267693  10.042   7.062  14.777
88621SOL     OW67694   0.735   7.130  13.022
88621SOL    HW167695   0.745   7.192  13.094
88621SOL    HW267696   0.673   7.065  13.055
88622SOL     OW67697  10.204   8.197  10.864
88622SOL    HW167698  10.119   8.218  10.902
88622SOL    HW267699  10.185   8.135  10.794
88623SOL     OW67700   9.811   8.066   9.802
88623SOL    HW167701   9.785   8.098   9.715
88623SOL    HW267702   9.732   8.074   9.855
88624SOL     OW67703   4.437   6.935   6.017
88624SOL    HW167704   4.446   6.976   6.104
88624SOL    HW267705   4.483   6.995   5.958
88625SOL     OW67706   9.751   4.343   0.386
88625SOL    HW167707   9.729   4.249   0.381
88625SOL    HW267708   9.667   4.385   0.405
88626SOL     OW67709   9.372   9.911  11.442
88626SOL    HW167710   9.282   9.883  11.424
88626SOL    HW267711   9.416   9.904  11.357
88627SOL     OW67712   2.164   5.460   9.788
88627SOL    HW167713   2.220   5.499   9.721
88627SOL    HW267714   2.173   5.518   9.863
88628SOL     OW67715  13.724   9.976  14.006
88628SOL    HW167716  13.664   9.904  13.984
88628SOL    HW267717  13.747  10.015  13.922
88629SOL     OW67718  13.423   9.857   9.798
88629SOL    HW167719  13.420   9.764   9.776
88629SOL    HW267720  13.367   9.865   9.875
88630SOL     OW67721   0.806   5.454   4.578
88630SOL    HW167722   0.800   5.379   4.637
88630SOL    HW267723   0.778   5.528   4.632
88631SOL     OW67724   7.520   6.645  14.143
88631SOL    HW167725   7.454   6.593  14.097
88631SOL    HW267726   7.603   6.619  14.104
88632SOL     OW67727   2.373  11.170  11.909
88632SOL    HW167728   2.376  11.240  11.975
88632SOL    HW267729   2.330  11.210  11.834
88633SOL     OW67730   5.353   8.927   6.054
88633SOL    HW167731   5.309   8.843   6.060
88633SOL    HW267732   5.344   8.965   6.142
88634SOL     OW67733   6.406  10.924   6.110
88634SOL    HW167734   6.413  10.879   6.026
88634SOL    HW267735   6.488  10.971   6.119
88635SOL     OW67736   7.230   7.539   4.000
88635SOL    HW167737   7.180   7.458   3.991
88635SOL    HW267738   7.195   7.597   3.933
88636SOL     OW67739  10.610   4.880   4.242
88636SOL    HW167740  10.548   4.808   4.243
88636SOL    HW267741  10.682   4.851   4.298
88637SOL     OW67742   8.832   7.862   9.399
88637SOL    HW167743   8.913   7.831   9.440
88637SOL    HW267744   8.766   7.854   9.467
88638SOL     OW67745   5.679   4.662  14.073
88638SOL    HW167746   5.749   4.689  14.014
88638SOL    HW267747   5.640   4.585  14.031
88639SOL     OW67748   3.535   3.641   1.327
88639SOL    HW167749   3.579   3.569   1.372
88639SOL    HW267750   3.550   3.625   1.234
88640SOL     OW67751  10.671  13.390   0.650
88640SOL    HW167752  10.648  13.452   0.581
88640SOL    HW267753  10.593  13.387   0.706
88641SOL     OW67754  14.813  10.374   8.741
88641SOL    HW167755  14.832  10.282   8.724
88641SOL    HW267756  14.852  10.421   8.668
88642SOL     OW67757  13.062   7.465  14.371
88642SOL    HW167758  13.031   7.552  14.344
88642SOL    HW267759  13.045   7.462  14.465
88643SOL     OW67760   7.724  14.489   8.110
88643SOL    HW167761   7.802  14.489   8.166
88643SOL    HW267762   7.650  14.483   8.172
88644SOL     OW67763   8.993   8.509   0.854
88644SOL    HW167764   8.912   8.478   0.893
88644SOL    HW267765   8.988   8.482   0.762
88645SOL     OW67766   1.842   0.513  14.195
88645SOL    HW167767   1.817   0.428  14.158
88645SOL    HW267768   1.891   0.556  14.125
88646SOL     OW67769   3.870   7.606  10.094
88646SOL    HW167770   3.803   7.632  10.157
88646SOL    HW267771   3.841   7.521  10.061
88647SOL     OW67772   8.693   7.129   3.997
88647SOL    HW167773   8.774   7.153   4.042
88647SOL    HW267774   8.642   7.209   3.994
88648SOL     OW67775   5.555   7.593   8.649
88648SOL    HW167776   5.554   7.644   8.568
88648SOL    HW267777   5.630   7.535   8.640
88649SOL     OW67778   6.522   6.974   1.067
88649SOL    HW167779   6.427   6.965   1.066
88649SOL    HW267780   6.551   6.921   1.142
88650SOL     OW67781   2.673   3.428   1.239
88650SOL    HW167782   2.679   3.519   1.208
88650SOL    HW267783   2.599   3.429   1.300
88651SOL     OW67784   0.178   5.287   5.784
88651SOL    HW167785   0.123   5.325   5.853
88651SOL    HW267786   0.265   5.283   5.823
88652SOL     OW67787   1.579   3.542  14.119
88652SOL    HW167788   1.642   3.613  14.132
88652SOL    HW267789   1.521   3.547  14.195
88653SOL     OW67790  14.332   2.792   4.233
88653SOL    HW167791  14.395   2.843   4.182
88653SOL    HW267792  14.260   2.775   4.172
88654SOL     OW67793   8.141   3.460   6.448
88654SOL    HW167794   8.163   3.472   6.540
88654SOL    HW267795   8.181   3.377   6.424
88655SOL     OW67796   0.651   8.571   6.777
88655SOL    HW167797   0.688   8.640   6.722
88655SOL    HW267798   0.627   8.615   6.858
88656SOL     OW67799   1.549   7.206   0.346
88656SOL    HW167800   1.500   7.204   0.264
88656SOL    HW267801   1.639   7.227   0.320
88657SOL     OW67802   8.781  12.228  12.748
88657SOL    HW167803   8.763  12.193  12.835
88657SOL    HW267804   8.744  12.164  12.687
88658SOL     OW67805  12.436   2.265   5.323
88658SOL    HW167806  12.357   2.258   5.377
88658SOL    HW267807  12.439   2.183   5.274
88659SOL     OW67808   9.231   4.496   6.150
88659SOL    HW167809   9.226   4.550   6.071
88659SOL    HW267810   9.261   4.556   6.218
88660SOL     OW67811   5.478   9.196  13.330
88660SOL    HW167812   5.388   9.169  13.346
88660SOL    HW267813   5.470   9.283  13.289
88661SOL     OW67814   0.463   6.512   1.953
88661SOL    HW167815   0.491   6.594   1.912
88661SOL    HW267816   0.438   6.456   1.879
88662SOL     OW67817   6.678  11.894   3.576
88662SOL    HW167818   6.600  11.850   3.611
88662SOL    HW267819   6.750  11.833   3.592
88663SOL     OW67820   1.797  12.192   0.228
88663SOL    HW167821   1.762  12.274   0.191
88663SOL    HW267822   1.860  12.221   0.294
88664SOL     OW67823   0.747   6.919  12.807
88664SOL    HW167824   0.742   6.974  12.729
88664SOL    HW267825   0.769   6.980  12.877
88665SOL     OW67826   9.983   0.353  11.540
88665SOL    HW167827   9.898   0.311  11.527
88665SOL    HW267828  10.022   0.307  11.615
88666SOL     OW67829   9.453   1.656  14.589
88666SOL    HW167830   9.429   1.593  14.656
88666SOL    HW267831   9.386   1.646  14.521
88667SOL     OW67832   3.768  14.342  12.841
88667SOL    HW167833   3.842  14.398  12.816
88667SOL    HW267834   3.710  14.399  12.891
88668SOL     OW67835   8.660   8.129   8.157
88668SOL    HW167836   8.646   8.218   8.128
88668SOL    HW267837   8.737   8.134   8.214
88669SOL     OW67838   3.561   3.124   7.545
88669SOL    HW167839   3.578   3.040   7.502
88669SOL    HW267840   3.552   3.102   7.638
88670SOL     OW67841   9.857  14.810   9.526
88670SOL    HW167842   9.787  14.823   9.461
88670SOL    HW267843   9.938  14.818   9.476
88671SOL     OW67844   5.793   7.471   3.548
88671SOL    HW167845   5.729   7.416   3.503
88671SOL    HW267846   5.778   7.559   3.514
88672SOL     OW67847  10.974   0.333   1.626
88672SOL    HW167848  11.025   0.410   1.600
88672SOL    HW267849  10.954   0.347   1.718
88673SOL     OW67850  11.782   1.949   3.710
88673SOL    HW167851  11.807   1.871   3.661
88673SOL    HW267852  11.690   1.962   3.689
88674SOL     OW67853  14.506   3.907  14.468
88674SOL    HW167854  14.504   3.997  14.501
88674SOL    HW267855  14.564   3.861  14.529
88675SOL     OW67856   0.482   9.406   1.140
88675SOL    HW167857   0.530   9.325   1.157
88675SOL    HW267858   0.527   9.446   1.066
88676SOL     OW67859   2.646   9.548   3.412
88676SOL    HW167860   2.584   9.588   3.473
88676SOL    HW267861   2.713   9.615   3.397
88677SOL     OW67862   7.546  10.331  10.996
88677SOL    HW167863   7.462  10.377  11.008
88677SOL    HW267864   7.522  10.244  10.966
88678SOL     OW67865   8.366   6.562   1.545
88678SOL    HW167866   8.435   6.518   1.595
88678SOL    HW267867   8.413   6.626   1.491
88679SOL     OW67868   6.067   5.400   3.945
88679SOL    HW167869   6.024   5.330   3.896
88679SOL    HW267870   6.126   5.440   3.881
88680SOL     OW67871  10.134   3.492  14.857
88680SOL    HW167872  10.100   3.406  14.832
88680SOL    HW267873  10.213   3.503  14.803
88681SOL     OW67874   8.191  12.766  11.151
88681SOL    HW167875   8.111  12.816  11.135
88681SOL    HW267876   8.261  12.820  11.115
88682SOL     OW67877   2.203   1.604   8.722
88682SOL    HW167878   2.243   1.556   8.795
88682SOL    HW267879   2.154   1.538   8.674
88683SOL     OW67880  10.636  13.113   5.095
88683SOL    HW167881  10.654  13.099   5.188
88683SOL    HW267882  10.674  13.036   5.051
88684SOL     OW67883   2.423  11.849   2.900
88684SOL    HW167884   2.452  11.921   2.845
88684SOL    HW267885   2.492  11.783   2.894
88685SOL     OW67886   1.835   7.000   4.632
88685SOL    HW167887   1.856   6.927   4.690
88685SOL    HW267888   1.898   6.991   4.560
88686SOL     OW67889  10.898   1.675   3.461
88686SOL    HW167890  10.915   1.662   3.554
88686SOL    HW267891  10.826   1.615   3.441
88687SOL     OW67892   0.267   6.204  10.630
88687SOL    HW167893   0.230   6.220  10.544
88687SOL    HW267894   0.206   6.244  10.691
88688SOL     OW67895   9.852  12.091   2.138
88688SOL    HW167896   9.892  12.177   2.121
88688SOL    HW267897   9.927  12.032   2.151
88689SOL     OW67898  11.035   9.642   2.457
88689SOL    HW167899  10.941   9.634   2.443
88689SOL    HW267900  11.071   9.557   2.430
88690SOL     OW67901  14.055   0.617   1.595
88690SOL    HW167902  13.979   0.648   1.644
88690SOL    HW267903  14.106   0.567   1.660
88691SOL     OW67904   0.415   5.063   4.870
88691SOL    HW167905   0.406   4.969   4.889
88691SOL    HW267906   0.435   5.066   4.776
88692SOL     OW67907   9.934   2.649   6.973
88692SOL    HW167908   9.966   2.739   6.971
88692SOL    HW267909   9.956   2.614   6.886
88693SOL     OW67910   6.038  11.393  12.384
88693SOL    HW167911   6.107  11.411  12.449
88693SOL    HW267912   6.086  11.373  12.304
88694SOL     OW67913   1.673  13.214  12.743
88694SOL    HW167914   1.687  13.120  12.732
88694SOL    HW267915   1.662  13.226  12.837
88695SOL     OW67916   8.861   3.164  10.463
88695SOL    HW167917   8.855   3.198  10.552
88695SOL    HW267918   8.930   3.097  10.468
88696SOL     OW67919   2.683  11.793  11.797
88696SOL    HW167920   2.679  11.836  11.712
88696SOL    HW267921   2.604  11.822  11.842
88697SOL     OW67922   8.030   4.280   8.272
88697SOL    HW167923   8.075   4.197   8.286
88697SOL    HW267924   8.099   4.341   8.247
88698SOL     OW67925  11.778  12.191   2.730
88698SOL    HW167926  11.752  12.242   2.807
88698SOL    HW267927  11.705  12.202   2.669
88699SOL     OW67928   4.644   3.040  12.730
88699SOL    HW167929   4.723   3.085  12.701
88699SOL    HW267930   4.665   3.010  12.819
88700SOL     OW67931  14.873   6.119  13.409
88700SOL    HW167932   0.014   6.066  13.331
88700SOL    HW267933   0.003   6.209  13.378
88701SOL     OW67934   1.634   1.468   6.949
88701SOL    HW167935   1.600   1.555   6.931
88701SOL    HW267936   1.705   1.456   6.886
88702SOL     OW67937  11.952   8.125  11.982
88702SOL    HW167938  11.936   8.182  12.057
88702SOL    HW267939  12.038   8.150  11.949
88703SOL     OW67940  13.153  12.226   8.699
88703SOL    HW167941  13.233  12.181   8.729
88703SOL    HW267942  13.167  12.240   8.606
88704SOL     OW67943   7.446   8.993   9.310
88704SOL    HW167944   7.477   9.015   9.222
88704SOL    HW267945   7.431   8.899   9.307
88705SOL     OW67946   3.684   1.397   4.868
88705SOL    HW167947   3.758   1.449   4.837
88705SOL    HW267948   3.610   1.458   4.867
88706SOL     OW67949  14.634  11.636  12.492
88706SOL    HW167950  14.583  11.593  12.423
88706SOL    HW267951  14.580  11.625  12.570
88707SOL     OW67952   9.913   2.506  13.914
88707SOL    HW167953   9.900   2.430  13.857
88707SOL    HW267954   9.829   2.518  13.957
88708SOL     OW67955   6.655   7.643   5.084
88708SOL    HW167956   6.573   7.615   5.041
88708SOL    HW267957   6.713   7.666   5.011
88709SOL     OW67958  10.547   7.924   7.405
88709SOL    HW167959  10.539   8.019   7.401
88709SOL    HW267960  10.631   7.905   7.364
88710SOL     OW67961   9.335   7.817   7.819
88710SOL    HW167962   9.327   7.901   7.773
88710SOL    HW267963   9.245   7.788   7.831
88711SOL     OW67964   5.007   8.873   4.141
88711SOL    HW167965   5.069   8.803   4.164
88711SOL    HW267966   4.942   8.830   4.087
88712SOL     OW67967  11.422   4.209  11.703
88712SOL    HW167968  11.390   4.241  11.618
88712SOL    HW267969  11.421   4.114  11.695
88713SOL     OW67970   6.886   6.688   1.283
88713SOL    HW167971   6.963   6.744   1.276
88713SOL    HW267972   6.893   6.627   1.210
88714SOL     OW67973   3.028   8.212   2.189
88714SOL    HW167974   3.094   8.281   2.197
88714SOL    HW267975   2.945   8.257   2.204
88715SOL     OW67976   1.178  14.342  13.999
88715SOL    HW167977   1.233  14.419  13.985
88715SOL    HW267978   1.101  14.357  13.946
88716SOL     OW67979   1.700   1.118   5.728
88716SOL    HW167980   1.642   1.147   5.799
88716SOL    HW267981   1.714   1.196   5.675
88717SOL     OW67982   4.753   5.363  11.445
88717SOL    HW167983   4.778   5.430  11.381
88717SOL    HW267984   4.784   5.398  11.529
88718SOL     OW67985  10.049  13.734  14.615
88718SOL    HW167986  10.051  13.688  14.531
88718SOL    HW267987  10.139  13.761  14.630
88719SOL     OW67988  14.849   4.298  10.984
88719SOL    HW167989  14.855   4.244  11.062
88719SOL    HW267990  14.805   4.378  11.013
88720SOL     OW67991  13.819   0.102  11.917
88720SOL    HW167992  13.794   0.194  11.919
88720SOL    HW267993  13.819   0.076  12.009
88721SOL     OW67994   8.253   1.574  14.568
88721SOL    HW167995   8.323   1.606  14.625
88721SOL    HW267996   8.224   1.652  14.521
88722SOL     OW67997   3.498   4.865   7.942
88722SOL    HW167998   3.507   4.805   7.868
88722SOL    HW267999   3.418   4.836   7.986
88723SOL     OW68000  12.488   1.552   6.127
88723SOL    HW168001  12.482   1.573   6.221
88723SOL    HW268002  12.565   1.600   6.097
88724SOL     OW68003  14.442  12.329   8.035
88724SOL    HW168004  14.532  12.296   8.033
88724SOL    HW268005  14.392  12.264   7.985
88725SOL     OW68006   2.506   8.479   2.128
88725SOL    HW168007   2.550   8.534   2.193
88725SOL    HW268008   2.413   8.486   2.149
88726SOL     OW68009   4.174  12.883  14.252
88726SOL    HW168010   4.143  12.940  14.322
88726SOL    HW268011   4.126  12.801  14.264
88727SOL     OW68012   5.635   2.836   8.504
88727SOL    HW168013   5.730   2.844   8.508
88727SOL    HW268014   5.616   2.753   8.549
88728SOL     OW68015  10.696   8.242  10.925
88728SOL    HW168016  10.702   8.146  10.921
88728SOL    HW268017  10.619   8.263  10.872
88729SOL     OW68018   7.457  12.796  14.775
88729SOL    HW168019   7.418  12.856  14.840
88729SOL    HW268020   7.467  12.850  14.697
88730SOL     OW68021  11.480   3.508   1.363
88730SOL    HW168022  11.411   3.512   1.297
88730SOL    HW268023  11.532   3.587   1.348
88731SOL     OW68024  11.677  10.402  13.319
88731SOL    HW168025  11.724  10.482  13.344
88731SOL    HW268026  11.616  10.386  13.391
88732SOL     OW68027   4.042   3.204  13.281
88732SOL    HW168028   4.111   3.137  13.276
88732SOL    HW268029   4.082   3.283  13.244
88733SOL     OW68030   3.514   9.266   3.896
88733SOL    HW168031   3.539   9.305   3.980
88733SOL    HW268032   3.480   9.179   3.919
88734SOL     OW68033  13.026   2.161  10.672
88734SOL    HW168034  13.099   2.223  10.671
88734SOL    HW268035  13.065   2.077  10.650
88735SOL     OW68036   1.031   6.813   8.746
88735SOL    HW168037   0.990   6.770   8.671
88735SOL    HW268038   1.026   6.907   8.726
88736SOL     OW68039   0.558   7.830   0.668
88736SOL    HW168040   0.568   7.754   0.610
88736SOL    HW268041   0.493   7.801   0.733
88737SOL     OW68042  10.846   0.113   8.954
88737SOL    HW168043  10.803   0.109   8.869
88737SOL    HW268044  10.906   0.038   8.953
88738SOL     OW68045   7.022  13.813  13.368
88738SOL    HW168046   7.112  13.782  13.353
88738SOL    HW268047   7.022  13.841  13.459
88739SOL     OW68048  11.650   0.015   0.611
88739SOL    HW168049  11.571  14.875   0.664
88739SOL    HW268050  11.691   0.090   0.652
88740SOL     OW68051   0.750  10.854  11.268
88740SOL    HW168052   0.836  10.855  11.227
88740SOL    HW268053   0.766  10.824  11.358
88741SOL     OW68054   5.220   0.502   9.309
88741SOL    HW168055   5.287   0.564   9.339
88741SOL    HW268056   5.235   0.423   9.361
88742SOL     OW68057   4.490  11.198   2.223
88742SOL    HW168058   4.570  11.241   2.255
88742SOL    HW268059   4.471  11.241   2.140
88743SOL     OW68060   6.794   0.676   1.531
88743SOL    HW168061   6.880   0.714   1.514
88743SOL    HW268062   6.734   0.728   1.479
88744SOL     OW68063   7.456  10.082   5.662
88744SOL    HW168064   7.505  10.000   5.673
88744SOL    HW268065   7.371  10.055   5.629
88745SOL     OW68066   4.643  12.230  14.587
88745SOL    HW168067   4.559  12.265  14.556
88745SOL    HW268068   4.646  12.254  14.679
88746SOL     OW68069   6.181   9.473  12.850
88746SOL    HW168070   6.119   9.546  12.857
88746SOL    HW268071   6.266   9.514  12.838
88747SOL     OW68072   0.055  14.852  10.216
88747SOL    HW168073   0.124  14.787  10.206
88747SOL    HW268074   0.099   0.060  10.205
88748SOL     OW68075   9.883   9.498   7.714
88748SOL    HW168076   9.808   9.441   7.694
88748SOL    HW268077   9.958   9.439   7.720
88749SOL     OW68078   3.774   6.181   1.259
88749SOL    HW168079   3.691   6.215   1.225
88749SOL    HW268080   3.794   6.106   1.202
88750SOL     OW68081   8.392   2.364  11.365
88750SOL    HW168082   8.369   2.410  11.284
88750SOL    HW268083   8.395   2.272  11.340
88751SOL     OW68084   6.795  10.634   1.517
88751SOL    HW168085   6.866  10.648   1.579
88751SOL    HW268086   6.760  10.722   1.500
88752SOL     OW68087  12.589   7.723   4.830
88752SOL    HW168088  12.577   7.796   4.891
88752SOL    HW268089  12.667   7.678   4.860
88753SOL     OW68090   2.501   8.613  11.069
88753SOL    HW168091   2.567   8.552  11.101
88753SOL    HW268092   2.460   8.568  10.995
88754SOL     OW68093   4.726   2.393   1.653
88754SOL    HW168094   4.822   2.397   1.652
88754SOL    HW268095   4.706   2.300   1.667
88755SOL     OW68096   4.164  13.581  13.390
88755SOL    HW168097   4.212  13.537  13.460
88755SOL    HW268098   4.115  13.511  13.347
88756SOL     OW68099  14.842  10.597   9.681
88756SOL    HW168100  14.748  10.597   9.700
88756SOL    HW268101  14.849  10.644   9.598
88757SOL     OW68102  10.590  13.166   0.383
88757SOL    HW168103  10.676  13.194   0.355
88757SOL    HW268104  10.592  13.174   0.479
88758SOL     OW68105   2.319   8.501   1.432
88758SOL    HW168106   2.407   8.484   1.397
88758SOL    HW268107   2.265   8.516   1.354
88759SOL     OW68108   3.605   4.343   1.254
88759SOL    HW168109   3.514   4.368   1.274
88759SOL    HW268110   3.641   4.418   1.208
88760SOL     OW68111   5.749   1.802   4.980
88760SOL    HW168112   5.751   1.853   4.900
88760SOL    HW268113   5.822   1.740   4.971
88761SOL     OW68114   7.631   4.948   3.316
88761SOL    HW168115   7.715   4.985   3.343
88761SOL    HW268116   7.598   4.905   3.395
88762SOL     OW68117   9.407   7.580   7.148
88762SOL    HW168118   9.466   7.632   7.094
88762SOL    HW268119   9.324   7.629   7.146
88763SOL     OW68120  14.694   7.409  11.721
88763SOL    HW168121  14.606   7.403  11.685
88763SOL    HW268122  14.707   7.502  11.738
88764SOL     OW68123   8.675  10.986  11.080
88764SOL    HW168124   8.759  10.957  11.046
88764SOL    HW268125   8.686  10.985  11.175
88765SOL     OW68126   4.262   3.528  12.203
88765SOL    HW168127   4.280   3.475  12.280
88765SOL    HW268128   4.226   3.610  12.238
88766SOL     OW68129   6.518   2.677  12.153
88766SOL    HW168130   6.518   2.597  12.205
88766SOL    HW268131   6.493   2.746  12.215
88767SOL     OW68132  14.380   6.082   0.624
88767SOL    HW168133  14.337   5.996   0.624
88767SOL    HW268134  14.469   6.064   0.595
88768SOL     OW68135   8.993   0.456   7.929
88768SOL    HW168136   9.026   0.530   7.980
88768SOL    HW268137   9.072   0.412   7.896
88769SOL     OW68138   7.894  11.753   2.329
88769SOL    HW168139   7.827  11.746   2.397
88769SOL    HW268140   7.940  11.835   2.349
88770SOL     OW68141   8.006   5.108   3.714
88770SOL    HW168142   8.059   5.031   3.736
88770SOL    HW268143   8.018   5.168   3.788
88771SOL     OW68144  11.822   5.281  10.265
88771SOL    HW168145  11.766   5.234  10.325
88771SOL    HW268146  11.908   5.282  10.308
88772SOL     OW68147   4.800   8.274  11.895
88772SOL    HW168148   4.767   8.272  11.805
88772SOL    HW268149   4.841   8.188  11.907
88773SOL     OW68150   8.381  10.381   8.516
88773SOL    HW168151   8.331  10.339   8.586
88773SOL    HW268152   8.395  10.470   8.547
88774SOL     OW68153  12.511  12.184   3.573
88774SOL    HW168154  12.556  12.261   3.538
88774SOL    HW268155  12.579  12.135   3.619
88775SOL     OW68156  11.688   5.817  10.870
88775SOL    HW168157  11.663   5.792  10.781
88775SOL    HW268158  11.754   5.752  10.895
88776SOL     OW68159  12.502   1.173  11.405
88776SOL    HW168160  12.585   1.217  11.423
88776SOL    HW268161  12.510   1.141  11.316
88777SOL     OW68162  13.877   7.224   9.787
88777SOL    HW168163  13.930   7.204   9.709
88777SOL    HW268164  13.929   7.289   9.834
88778SOL     OW68165  12.482  13.855   2.049
88778SOL    HW168166  12.437  13.921   1.996
88778SOL    HW268167  12.573  13.884   2.050
88779SOL     OW68168   3.579   0.869   5.027
88779SOL    HW168169   3.672   0.885   5.010
88779SOL    HW268170   3.551   0.810   4.956
88780SOL     OW68171  10.435  10.620   1.349
88780SOL    HW168172  10.367  10.631   1.283
88780SOL    HW268173  10.507  10.577   1.304
88781SOL     OW68174   5.876   8.759   1.507
88781SOL    HW168175   5.905   8.747   1.417
88781SOL    HW268176   5.798   8.704   1.515
88782SOL     OW68177   2.413  13.559   0.738
88782SOL    HW168178   2.502  13.580   0.710
88782SOL    HW268179   2.410  13.463   0.737
88783SOL     OW68180  10.127  12.033   8.658
88783SOL    HW168181  10.118  11.979   8.736
88783SOL    HW268182  10.123  11.971   8.585
88784SOL     OW68183   0.560  14.763   2.972
88784SOL    HW168184   0.489  14.785   2.912
88784SOL    HW268185   0.614  14.701   2.923
88785SOL     OW68186   5.722   4.191   2.372
88785SOL    HW168187   5.666   4.170   2.297
88785SOL    HW268188   5.692   4.277   2.400
88786SOL     OW68189   4.110   7.747   8.629
88786SOL    HW168190   4.146   7.664   8.662
88786SOL    HW268191   4.037   7.720   8.572
88787SOL     OW68192  13.654   5.392  12.963
88787SOL    HW168193  13.595   5.468  12.962
88787SOL    HW268194  13.599   5.319  12.933
88788SOL     OW68195  10.714  10.800  10.249
88788SOL    HW168196  10.742  10.886  10.217
88788SOL    HW268197  10.676  10.818  10.335
88789SOL     OW68198   9.410   3.540  11.315
88789SOL    HW168199   9.409   3.448  11.340
88789SOL    HW268200   9.318   3.566  11.315
88790SOL     OW68201  11.473   8.570  13.120
88790SOL    HW168202  11.518   8.558  13.036
88790SOL    HW268203  11.518   8.511  13.180
88791SOL     OW68204   9.857  13.760   4.026
88791SOL    HW168205   9.822  13.736   3.941
88791SOL    HW268206   9.951  13.749   4.018
88792SOL     OW68207   7.065  14.873   9.077
88792SOL    HW168208   7.143   0.053   9.073
88792SOL    HW268209   7.096  14.791   9.116
88793SOL     OW68210   0.609   0.335  13.002
88793SOL    HW168211   0.635   0.245  12.987
88793SOL    HW268212   0.548   0.331  13.076
88794SOL     OW68213  11.251  10.158   8.401
88794SOL    HW168214  11.280  10.071   8.431
88794SOL    HW268215  11.292  10.219   8.461
88795SOL     OW68216  14.870   2.324  11.513
88795SOL    HW168217  14.869   2.317  11.609
88795SOL    HW268218   0.083   2.353  11.492
88796SOL     OW68219   7.897   7.352  10.086
88796SOL    HW168220   7.915   7.260  10.104
88796SOL    HW268221   7.980   7.396  10.101
88797SOL     OW68222   4.524   8.259  12.424
88797SOL    HW168223   4.614   8.291  12.417
88797SOL    HW268224   4.522   8.211  12.507
88798SOL     OW68225  14.141   7.109   2.755
88798SOL    HW168226  14.132   7.064   2.671
88798SOL    HW268227  14.088   7.188   2.745
88799SOL     OW68228  10.391   8.886  12.035
88799SOL    HW168229  10.297   8.867  12.034
88799SOL    HW268230  10.418   8.870  12.125
88800SOL     OW68231  14.430   8.217   1.733
88800SOL    HW168232  14.462   8.163   1.805
88800SOL    HW268233  14.501   8.280   1.718
88801SOL     OW68234   8.716  13.473  14.482
88801SOL    HW168235   8.747  13.390  14.449
88801SOL    HW268236   8.625  13.457  14.509
88802SOL     OW68237  10.496  11.069   9.267
88802SOL    HW168238  10.491  11.021   9.350
88802SOL    HW268239  10.406  11.076   9.238
88803SOL     OW68240   7.952  13.249  12.051
88803SOL    HW168241   7.991  13.164  12.034
88803SOL    HW268242   7.897  13.266  11.974
88804SOL     OW68243   3.016   4.949   0.602
88804SOL    HW168244   2.928   4.970   0.569
88804SOL    HW268245   3.034   5.019   0.666
88805SOL     OW68246   3.248  14.552   7.212
88805SOL    HW168247   3.271  14.645   7.205
88805SOL    HW268248   3.332  14.508   7.226
88806SOL     OW68249   9.718   8.753  11.415
88806SOL    HW168250   9.731   8.848  11.412
88806SOL    HW268251   9.805   8.717  11.403
88807SOL     OW68252  12.676   5.371  10.228
88807SOL    HW168253  12.598   5.398  10.180
88807SOL    HW268254  12.710   5.296  10.179
88808SOL     OW68255   8.628   1.321   3.265
88808SOL    HW168256   8.707   1.332   3.316
88808SOL    HW268257   8.562   1.291   3.328
88809SOL     OW68258   9.203  11.437  14.846
88809SOL    HW168259   9.199  11.510   0.031
88809SOL    HW268260   9.296  11.426  14.828
88810SOL     OW68261  12.648  14.346   3.045
88810SOL    HW168262  12.699  14.266   3.044
88810SOL    HW268263  12.631  14.363   3.138
88811SOL     OW68264   9.358   8.426  13.698
88811SOL    HW168265   9.342   8.520  13.695
88811SOL    HW268266   9.289   8.387  13.644
88812SOL     OW68267  14.806  10.748  12.364
88812SOL    HW168268  14.813  10.843  12.368
88812SOL    HW268269  14.849  10.717  12.444
88813SOL     OW68270   9.274   0.298   5.395
88813SOL    HW168271   9.252   0.272   5.306
88813SOL    HW268272   9.357   0.345   5.387
88814SOL     OW68273   7.329   6.502  14.003
88814SOL    HW168274   7.344   6.408  14.006
88814SOL    HW268275   7.369   6.530  13.920
88815SOL     OW68276  10.693   5.861   8.824
88815SOL    HW168277  10.691   5.939   8.881
88815SOL    HW268278  10.611   5.815   8.844
88816SOL     OW68279   5.161   4.282   0.292
88816SOL    HW168280   5.067   4.265   0.303
88816SOL    HW268281   5.202   4.196   0.298
88817SOL     OW68282  10.048  11.216  12.118
88817SOL    HW168283  10.016  11.191  12.204
88817SOL    HW268284  10.140  11.240  12.133
88818SOL     OW68285   0.107  12.917   8.586
88818SOL    HW168286   0.045  12.918   8.513
88818SOL    HW268287   0.189  12.948   8.548
88819SOL     OW68288   5.759   3.049   8.967
88819SOL    HW168289   5.683   3.000   8.997
88819SOL    HW268290   5.729   3.096   8.889
88820SOL     OW68291  14.313   9.354  10.005
88820SOL    HW168292  14.331   9.343   9.912
88820SOL    HW268293  14.218   9.351  10.012
88821SOL     OW68294   2.002   4.085   1.048
88821SOL    HW168295   1.918   4.055   1.012
88821SOL    HW268296   1.985   4.097   1.141
88822SOL     OW68297   4.645   0.328  14.023
88822SOL    HW168298   4.599   0.401  14.063
88822SOL    HW268299   4.577   0.263  14.005
88823SOL     OW68300  12.207  13.195   9.885
88823SOL    HW168301  12.189  13.257   9.956
88823SOL    HW268302  12.277  13.235   9.835
88824SOL     OW68303   4.771   7.986  13.915
88824SOL    HW168304   4.813   7.919  13.860
88824SOL    HW268305   4.717   7.936  13.976
88825SOL     OW68306  13.857   7.760   6.007
88825SOL    HW168307  13.852   7.780   5.913
88825SOL    HW268308  13.808   7.830   6.049
88826SOL     OW68309   3.287   6.028   4.282
88826SOL    HW168310   3.382   6.013   4.289
88826SOL    HW268311   3.263   5.989   4.198
88827SOL     OW68312  13.094   4.673  11.917
88827SOL    HW168313  13.115   4.748  11.972
88827SOL    HW268314  13.002   4.654  11.936
88828SOL     OW68315   9.027  14.698  14.191
88828SOL    HW168316   9.020  14.672  14.099
88828SOL    HW268317   9.094  14.640  14.228
88829SOL     OW68318   7.967  10.745  13.342
88829SOL    HW168319   7.974  10.658  13.304
88829SOL    HW268320   8.044  10.791  13.309
88830SOL     OW68321   0.352   1.446  12.426
88830SOL    HW168322   0.351   1.458  12.521
88830SOL    HW268323   0.432   1.490  12.397
88831SOL     OW68324  13.692  14.795   1.511
88831SOL    HW168325  13.758  14.833   1.569
88831SOL    HW268326  13.610  14.804   1.558
88832SOL     OW68327   0.985  11.976   9.790
88832SOL    HW168328   0.939  11.900   9.753
88832SOL    HW268329   1.053  11.996   9.726
88833SOL     OW68330  10.271   9.706   1.019
88833SOL    HW168331  10.358   9.677   1.046
88833SOL    HW268332  10.278   9.801   1.011
88834SOL     OW68333  13.053   1.502   6.559
88834SOL    HW168334  13.134   1.450   6.565
88834SOL    HW268335  13.003   1.478   6.637
88835SOL     OW68336   9.871  11.429  11.622
88835SOL    HW168337   9.960  11.424  11.658
88835SOL    HW268338   9.819  11.376  11.682
88836SOL     OW68339   6.811  14.712   5.057
88836SOL    HW168340   6.820  14.805   5.078
88836SOL    HW268341   6.849  14.667   5.133
88837SOL     OW68342  10.567  13.946   8.726
88837SOL    HW168343  10.579  13.978   8.637
88837SOL    HW268344  10.612  13.862   8.728
88838SOL     OW68345   7.716   7.652  10.313
88838SOL    HW168346   7.772   7.642  10.236
88838SOL    HW268347   7.773   7.687  10.381
88839SOL     OW68348  10.813   3.115   2.898
88839SOL    HW168349  10.819   3.204   2.931
88839SOL    HW268350  10.848   3.061   2.969
88840SOL     OW68351   2.945   5.366   8.524
88840SOL    HW168352   2.897   5.338   8.602
88840SOL    HW268353   3.031   5.391   8.557
88841SOL     OW68354   5.342  14.122  12.915
88841SOL    HW168355   5.306  14.033  12.911
88841SOL    HW268356   5.322  14.152  13.003
88842SOL     OW68357   0.962  11.559  11.764
88842SOL    HW168358   1.017  11.507  11.705
88842SOL    HW268359   1.022  11.622  11.804
88843SOL     OW68360   7.289  12.036   1.504
88843SOL    HW168361   7.357  11.995   1.450
88843SOL    HW268362   7.263  12.114   1.455
88844SOL     OW68363   0.959   3.674  14.063
88844SOL    HW168364   1.040   3.711  14.030
88844SOL    HW268365   0.890   3.722  14.017
88845SOL     OW68366   0.688   4.481  14.287
88845SOL    HW168367   0.743   4.529  14.225
88845SOL    HW268368   0.747   4.416  14.326
88846SOL     OW68369  11.777   6.953   0.143
88846SOL    HW168370  11.802   7.045   0.144
88846SOL    HW268371  11.844   6.910   0.090
88847SOL     OW68372  14.596   6.772   7.387
88847SOL    HW168373  14.611   6.678   7.392
88847SOL    HW268374  14.605   6.794   7.294
88848SOL     OW68375  13.247   4.128   0.609
88848SOL    HW168376  13.218   4.218   0.597
88848SOL    HW268377  13.254   4.093   0.520
88849SOL     OW68378  14.373   7.528   5.342
88849SOL    HW168379  14.293   7.542   5.392
88849SOL    HW268380  14.368   7.437   5.313
88850SOL     OW68381  10.008  11.618   0.787
88850SOL    HW168382   9.924  11.592   0.825
88850SOL    HW268383  10.044  11.537   0.750
88851SOL     OW68384   3.030   1.156   2.938
88851SOL    HW168385   3.021   1.078   2.883
88851SOL    HW268386   2.962   1.216   2.908
88852SOL     OW68387   8.064   4.699   3.017
88852SOL    HW168388   8.087   4.719   3.108
88852SOL    HW268389   7.997   4.631   3.023
88853SOL     OW68390   1.697  12.862   3.830
88853SOL    HW168391   1.749  12.912   3.766
88853SOL    HW268392   1.730  12.773   3.824
88854SOL     OW68393   0.976  14.348  13.582
88854SOL    HW168394   1.070  14.331  13.585
88854SOL    HW268395   0.947  14.343  13.673
88855SOL     OW68396  10.589   6.546  10.735
88855SOL    HW168397  10.592   6.551  10.831
88855SOL    HW268398  10.681   6.542  10.709
88856SOL     OW68399  11.027   7.618   5.116
88856SOL    HW168400  11.060   7.650   5.032
88856SOL    HW268401  11.104   7.582   5.159
88857SOL     OW68402   3.759   8.645  12.630
88857SOL    HW168403   3.665   8.661  12.617
88857SOL    HW268404   3.768   8.550  12.622
88858SOL     OW68405   3.385   3.501   0.865
88858SOL    HW168406   3.294   3.484   0.890
88858SOL    HW268407   3.378   3.549   0.783
88859SOL     OW68408  11.021   2.067  10.445
88859SOL    HW168409  11.047   1.976  10.458
88859SOL    HW268410  11.002   2.074  10.351
88860SOL     OW68411   9.648   0.437   1.242
88860SOL    HW168412   9.672   0.460   1.152
88860SOL    HW268413   9.554   0.424   1.239
88861SOL     OW68414   4.922   4.216   7.878
88861SOL    HW168415   5.004   4.262   7.856
88861SOL    HW268416   4.862   4.239   7.807
88862SOL     OW68417   2.430  10.821  10.074
88862SOL    HW168418   2.347  10.867  10.066
88862SOL    HW268419   2.482  10.876  10.132
88863SOL     OW68420   0.822   3.211   4.894
88863SOL    HW168421   0.744   3.210   4.949
88863SOL    HW268422   0.893   3.237   4.954
88864SOL     OW68423   2.010   4.294   9.134
88864SOL    HW168424   2.088   4.347   9.114
88864SOL    HW268425   2.022   4.214   9.082
88865SOL     OW68426  14.782   4.043   5.835
88865SOL    HW168427  14.700   3.993   5.835
88865SOL    HW268428  14.786   4.083   5.922
88866SOL     OW68429   0.030   9.440  14.647
88866SOL    HW168430  14.835   9.381  14.621
88866SOL    HW268431   0.070   9.397  14.722
88867SOL     OW68432   0.274  11.597   6.108
88867SOL    HW168433   0.288  11.684   6.145
88867SOL    HW268434   0.358  11.573   6.069
88868SOL     OW68435   9.021  10.580   2.587
88868SOL    HW168436   9.064  10.512   2.639
88868SOL    HW268437   9.045  10.662   2.631
88869SOL     OW68438   6.701   3.877   5.960
88869SOL    HW168439   6.739   3.829   5.887
88869SOL    HW268440   6.637   3.936   5.920
88870SOL     OW68441  14.432   8.695   7.302
88870SOL    HW168442  14.428   8.666   7.394
88870SOL    HW268443  14.384   8.628   7.254
88871SOL     OW68444  14.801   8.202   7.101
88871SOL    HW168445  14.757   8.120   7.123
88871SOL    HW268446   0.016   8.177   7.088
88872SOL     OW68447   6.219  12.895  13.072
88872SOL    HW168448   6.244  12.984  13.045
88872SOL    HW268449   6.167  12.909  13.151
88873SOL     OW68450   1.784  12.471  10.398
88873SOL    HW168451   1.806  12.525  10.474
88873SOL    HW268452   1.722  12.406  10.432
88874SOL     OW68453   1.947  13.953   2.290
88874SOL    HW168454   1.966  13.895   2.363
88874SOL    HW268455   1.978  14.039   2.319
88875SOL     OW68456   1.549  12.665   9.040
88875SOL    HW168457   1.614  12.685   8.973
88875SOL    HW268458   1.545  12.569   9.040
88876SOL     OW68459   0.955   6.288   5.098
88876SOL    HW168460   1.002   6.247   5.171
88876SOL    HW268461   0.867   6.250   5.103
88877SOL     OW68462  13.474   7.565  11.621
88877SOL    HW168463  13.441   7.653  11.602
88877SOL    HW268464  13.554   7.579  11.671
88878SOL     OW68465   4.314   5.636  11.478
88878SOL    HW168466   4.264   5.685  11.543
88878SOL    HW268467   4.331   5.551  11.519
88879SOL     OW68468   1.234   1.961   6.698
88879SOL    HW168469   1.247   1.935   6.790
88879SOL    HW268470   1.235   2.056   6.700
88880SOL     OW68471   6.317  14.394   5.959
88880SOL    HW168472   6.260  14.377   6.034
88880SOL    HW268473   6.300  14.486   5.937
88881SOL     OW68474  10.548   9.275   2.839
88881SOL    HW168475  10.509   9.361   2.859
88881SOL    HW268476  10.478   9.226   2.796
88882SOL     OW68477   2.688   5.306   0.577
88882SOL    HW168478   2.693   5.367   0.504
88882SOL    HW268479   2.616   5.339   0.631
88883SOL     OW68480   6.412   8.859   3.329
88883SOL    HW168481   6.423   8.822   3.417
88883SOL    HW268482   6.499   8.853   3.290
88884SOL     OW68483   5.441   0.027   7.508
88884SOL    HW168484   5.378  14.866   7.570
88884SOL    HW268485   5.444   0.120   7.528
88885SOL     OW68486   8.947   5.327   5.117
88885SOL    HW168487   8.978   5.240   5.092
88885SOL    HW268488   8.937   5.374   5.033
88886SOL     OW68489   6.110   7.046   4.124
88886SOL    HW168490   6.135   7.015   4.037
88886SOL    HW268491   6.099   7.140   4.113
88887SOL     OW68492  10.817   7.997   5.811
88887SOL    HW168493  10.780   7.910   5.828
88887SOL    HW268494  10.905   7.992   5.847
88888SOL     OW68495   1.996   5.932  11.906
88888SOL    HW168496   1.927   5.895  11.851
88888SOL    HW268497   2.014   5.864  11.971
88889SOL     OW68498   9.341  10.621   8.711
88889SOL    HW168499   9.423  10.656   8.676
88889SOL    HW268500   9.364  10.532   8.738
88890SOL     OW68501  11.735   2.261   9.691
88890SOL    HW168502  11.792   2.232   9.620
88890SOL    HW268503  11.724   2.355   9.677
88891SOL     OW68504   8.625  11.510  12.319
88891SOL    HW168505   8.640  11.582  12.258
88891SOL    HW268506   8.531  11.492  12.313
88892SOL     OW68507   3.932  10.447   9.122
88892SOL    HW168508   4.009  10.444   9.064
88892SOL    HW268509   3.968  10.471   9.207
88893SOL     OW68510   7.831   2.961   1.502
88893SOL    HW168511   7.794   2.921   1.581
88893SOL    HW268512   7.766   3.025   1.475
88894SOL     OW68513   7.820   3.659  12.703
88894SOL    HW168514   7.882   3.653  12.630
88894SOL    HW268515   7.812   3.753  12.720
88895SOL     OW68516  10.893   8.286   0.668
88895SOL    HW168517  10.809   8.287   0.621
88895SOL    HW268518  10.916   8.194   0.675
88896SOL     OW68519   2.126   0.461   7.371
88896SOL    HW168520   2.134   0.510   7.289
88896SOL    HW268521   2.211   0.420   7.382
88897SOL     OW68522   3.928   3.989   4.405
88897SOL    HW168523   3.866   3.934   4.454
88897SOL    HW268524   3.879   4.070   4.388
88898SOL     OW68525   8.360   5.863  12.533
88898SOL    HW168526   8.293   5.846  12.599
88898SOL    HW268527   8.367   5.780  12.485
88899SOL     OW68528  11.688   7.309  13.886
88899SOL    HW168529  11.723   7.239  13.941
88899SOL    HW268530  11.657   7.265  13.807
88900SOL     OW68531   2.218   6.762  14.295
88900SOL    HW168532   2.301   6.751  14.249
88900SOL    HW268533   2.213   6.856  14.311
88901SOL     OW68534   2.335   8.546   9.264
88901SOL    HW168535   2.292   8.464   9.239
88901SOL    HW268536   2.423   8.539   9.226
88902SOL     OW68537   2.613  11.063   8.837
88902SOL    HW168538   2.582  10.975   8.856
88902SOL    HW268539   2.612  11.108   8.922
88903SOL     OW68540   9.922  10.498   8.684
88903SOL    HW168541   9.886  10.417   8.718
88903SOL    HW268542   9.986  10.469   8.618
88904SOL     OW68543  11.767   4.622  13.578
88904SOL    HW168544  11.820   4.546  13.555
88904SOL    HW268545  11.679   4.588  13.588
88905SOL     OW68546   1.867  12.928   3.026
88905SOL    HW168547   1.792  12.901   3.080
88905SOL    HW268548   1.879  13.021   3.047
88906SOL     OW68549   7.374   2.798   5.893
88906SOL    HW168550   7.460   2.764   5.919
88906SOL    HW268551   7.326   2.720   5.864
88907SOL     OW68552  13.536  13.478   3.066
88907SOL    HW168553  13.561  13.418   2.996
88907SOL    HW268554  13.491  13.550   3.022
88908SOL     OW68555   1.570   8.341   7.056
88908SOL    HW168556   1.635   8.351   6.987
88908SOL    HW268557   1.530   8.256   7.040
88909SOL     OW68558   5.068   6.580   2.848
88909SOL    HW168559   5.072   6.651   2.784
88909SOL    HW268560   5.144   6.525   2.829
88910SOL     OW68561  13.268  11.287  11.878
88910SOL    HW168562  13.246  11.315  11.789
88910SOL    HW268563  13.243  11.195  11.881
88911SOL     OW68564   8.470  14.445   0.772
88911SOL    HW168565   8.539  14.390   0.737
88911SOL    HW268566   8.512  14.496   0.841
88912SOL     OW68567   4.812   3.302   8.711
88912SOL    HW168568   4.861   3.232   8.667
88912SOL    HW268569   4.856   3.383   8.685
88913SOL     OW68570   3.217   5.530   0.654
88913SOL    HW168571   3.126   5.528   0.682
88913SOL    HW268572   3.243   5.438   0.651
88914SOL     OW68573   1.502   6.215   8.274
88914SOL    HW168574   1.484   6.249   8.362
88914SOL    HW268575   1.546   6.287   8.229
88915SOL     OW68576   9.669  10.939   3.640
88915SOL    HW168577   9.604  10.903   3.579
88915SOL    HW268578   9.675  10.873   3.709
88916SOL     OW68579  11.462   6.030  12.737
88916SOL    HW168580  11.534   5.969  12.724
88916SOL    HW268581  11.395   6.002  12.675
88917SOL     OW68582  14.780   4.402   8.273
88917SOL    HW168583  14.836   4.324   8.263
88917SOL    HW268584  14.787   4.446   8.188
88918SOL     OW68585   9.138   6.830   1.945
88918SOL    HW168586   9.114   6.917   1.915
88918SOL    HW268587   9.199   6.797   1.879
88919SOL     OW68588   5.039   6.214   9.678
88919SOL    HW168589   4.945   6.199   9.686
88919SOL    HW268590   5.049   6.309   9.682
88920SOL     OW68591   7.717   9.002   7.805
88920SOL    HW168592   7.720   8.906   7.809
88920SOL    HW268593   7.653   9.027   7.871
88921SOL     OW68594  12.825   0.879  12.610
88921SOL    HW168595  12.900   0.935  12.594
88921SOL    HW268596  12.766   0.897  12.536
88922SOL     OW68597  10.369   9.981   3.852
88922SOL    HW168598  10.399  10.055   3.798
88922SOL    HW268599  10.317   9.927   3.792
88923SOL     OW68600   3.223   9.643   8.964
88923SOL    HW168601   3.129   9.643   8.981
88923SOL    HW268602   3.241   9.556   8.927
88924SOL     OW68603  10.991   5.033   9.520
88924SOL    HW168604  10.948   4.957   9.561
88924SOL    HW268605  10.921   5.097   9.510
88925SOL     OW68606   1.372   1.558   7.715
88925SOL    HW168607   1.370   1.477   7.767
88925SOL    HW268608   1.435   1.614   7.760
88926SOL     OW68609  10.753   7.204   7.059
88926SOL    HW168610  10.667   7.242   7.042
88926SOL    HW268611  10.743   7.111   7.036
88927SOL     OW68612   0.302   0.525   3.675
88927SOL    HW168613   0.244   0.580   3.623
88927SOL    HW268614   0.278   0.436   3.651
88928SOL     OW68615   1.110   6.076  11.617
88928SOL    HW168616   1.178   6.080  11.549
88928SOL    HW268617   1.154   6.105  11.696
88929SOL     OW68618  10.411  11.853  10.814
88929SOL    HW168619  10.403  11.781  10.876
88929SOL    HW268620  10.496  11.892  10.833
88930SOL     OW68621  11.802  12.789   9.714
88930SOL    HW168622  11.776  12.874   9.750
88930SOL    HW268623  11.720  12.741   9.704
88931SOL     OW68624  13.819   1.018   2.207
88931SOL    HW168625  13.826   1.107   2.173
88931SOL    HW268626  13.910   0.993   2.227
88932SOL     OW68627  12.057  14.106  13.768
88932SOL    HW168628  12.076  14.198  13.749
88932SOL    HW268629  12.007  14.077  13.691
88933SOL     OW68630   3.571   5.615   6.817
88933SOL    HW168631   3.595   5.654   6.733
88933SOL    HW268632   3.557   5.690   6.875
88934SOL     OW68633   6.967   9.129  14.015
88934SOL    HW168634   6.977   9.067  13.943
88934SOL    HW268635   6.987   9.214  13.976
88935SOL     OW68636   2.824   0.506   0.495
88935SOL    HW168637   2.854   0.417   0.479
88935SOL    HW268638   2.754   0.497   0.559
88936SOL     OW68639   0.079  11.885  10.810
88936SOL    HW168640   0.001  11.919  10.855
88936SOL    HW268641   0.046  11.813  10.756
88937SOL     OW68642   0.455   6.351  12.239
88937SOL    HW168643   0.470   6.278  12.180
88937SOL    HW268644   0.456   6.428  12.183
88938SOL     OW68645   2.753   7.178  12.846
88938SOL    HW168646   2.707   7.198  12.927
88938SOL    HW268647   2.842   7.209  12.860
88939SOL     OW68648   3.445   8.697  14.751
88939SOL    HW168649   3.439   8.793  14.747
88939SOL    HW268650   3.487   8.679  14.835
88940SOL     OW68651   3.183  13.697   1.609
88940SOL    HW168652   3.158  13.730   1.523
88940SOL    HW268653   3.133  13.751   1.670
88941SOL     OW68654   7.214   4.054   0.801
88941SOL    HW168655   7.272   4.064   0.725
88941SOL    HW268656   7.195   3.961   0.804
88942SOL     OW68657  10.732  11.096   8.407
88942SOL    HW168658  10.666  11.107   8.339
88942SOL    HW268659  10.801  11.157   8.384
88943SOL     OW68660   6.602   3.335   3.421
88943SOL    HW168661   6.651   3.364   3.344
88943SOL    HW268662   6.576   3.245   3.400
88944SOL     OW68663   9.777   4.500   8.803
88944SOL    HW168664   9.868   4.525   8.818
88944SOL    HW268665   9.728   4.582   8.805
88945SOL     OW68666  10.596   5.613   1.450
88945SOL    HW168667  10.677   5.664   1.460
88945SOL    HW268668  10.562   5.604   1.539
88946SOL     OW68669   0.521  14.753  10.364
88946SOL    HW168670   0.580  14.788  10.297
88946SOL    HW268671   0.486  14.673  10.326
88947SOL     OW68672  13.848   6.495   3.793
88947SOL    HW168673  13.810   6.531   3.873
88947SOL    HW268674  13.902   6.422   3.823
88948SOL     OW68675  13.236  13.303   4.462
88948SOL    HW168676  13.171  13.275   4.398
88948SOL    HW268677  13.209  13.262   4.544
88949SOL     OW68678  11.200   7.418   2.233
88949SOL    HW168679  11.185   7.475   2.308
88949SOL    HW268680  11.119   7.366   2.227
88950SOL     OW68681  13.572   9.189   6.667
88950SOL    HW168682  13.530   9.181   6.582
88950SOL    HW268683  13.644   9.126   6.665
88951SOL     OW68684   5.712   2.004   5.174
88951SOL    HW168685   5.730   1.942   5.103
88951SOL    HW268686   5.793   2.055   5.182
88952SOL     OW68687   7.212   5.500   4.421
88952SOL    HW168688   7.262   5.536   4.494
88952SOL    HW268689   7.120   5.511   4.447
88953SOL     OW68690  13.658   9.262   4.682
88953SOL    HW168691  13.701   9.294   4.602
88953SOL    HW268692  13.567   9.251   4.658
88954SOL     OW68693  11.819   3.733   5.107
88954SOL    HW168694  11.792   3.684   5.185
88954SOL    HW268695  11.859   3.667   5.050
88955SOL     OW68696   0.394  12.422   1.989
88955SOL    HW168697   0.444  12.422   2.070
88955SOL    HW268698   0.325  12.486   2.002
88956SOL     OW68699  14.612  12.295  12.349
88956SOL    HW168700  14.694  12.258  12.380
88956SOL    HW268701  14.633  12.385  12.324
88957SOL     OW68702  10.125  10.145   6.620
88957SOL    HW168703  10.187  10.202   6.666
88957SOL    HW268704  10.143  10.158   6.527
88958SOL     OW68705  14.665  14.867  10.220
88958SOL    HW168706  14.642  14.775  10.225
88958SOL    HW268707  14.759  14.870  10.238
88959SOL     OW68708   3.330   9.987   0.037
88959SOL    HW168709   3.351   9.910   0.091
88959SOL    HW268710   3.282   9.952  14.838
88960SOL     OW68711   4.791   4.282   9.038
88960SOL    HW168712   4.754   4.194   9.042
88960SOL    HW268713   4.784   4.307   8.945
88961SOL     OW68714  11.079   4.738   7.012
88961SOL    HW168715  11.059   4.831   7.016
88961SOL    HW268716  11.159   4.728   7.064
88962SOL     OW68717   2.836   2.838  13.991
88962SOL    HW168718   2.858   2.914  13.938
88962SOL    HW268719   2.908   2.776  13.975
88963SOL     OW68720   3.212   4.032   2.248
88963SOL    HW168721   3.299   4.068   2.260
88963SOL    HW268722   3.165   4.098   2.197
88964SOL     OW68723   1.920  13.600   2.657
88964SOL    HW168724   1.984  13.531   2.639
88964SOL    HW268725   1.917  13.651   2.577
88965SOL     OW68726   8.525   2.561   6.537
88965SOL    HW168727   8.536   2.654   6.558
88965SOL    HW268728   8.489   2.523   6.618
88966SOL     OW68729  13.305  13.889   8.163
88966SOL    HW168730  13.218  13.888   8.124
88966SOL    HW268731  13.352  13.819   8.118
88967SOL     OW68732   3.120   7.854   4.811
88967SOL    HW168733   3.139   7.938   4.768
88967SOL    HW268734   3.141   7.868   4.903
88968SOL     OW68735  12.738   0.115  10.734
88968SOL    HW168736  12.720   0.155  10.819
88968SOL    HW268737  12.833   0.103  10.733
88969SOL     OW68738   1.362  11.310   5.389
88969SOL    HW168739   1.278  11.264   5.388
88969SOL    HW268740   1.422  11.252   5.343
88970SOL     OW68741   4.447   5.381   0.116
88970SOL    HW168742   4.382   5.357   0.050
88970SOL    HW268743   4.395   5.411   0.191
88971SOL     OW68744   0.091  12.676   5.359
88971SOL    HW168745   0.069  12.672   5.266
88971SOL    HW268746   0.023  12.623   5.402
88972SOL     OW68747   2.078   8.333   9.537
88972SOL    HW168748   2.073   8.428   9.525
88972SOL    HW268749   2.016   8.298   9.474
88973SOL     OW68750   1.113  10.990  12.488
88973SOL    HW168751   1.189  10.948  12.449
88973SOL    HW268752   1.056  11.012  12.414
88974SOL     OW68753   0.756  11.813  12.645
88974SOL    HW168754   0.704  11.822  12.565
88974SOL    HW268755   0.712  11.746  12.696
88975SOL     OW68756  10.469   7.806   0.192
88975SOL    HW168757  10.514   7.841   0.115
88975SOL    HW268758  10.535   7.809   0.261
88976SOL     OW68759   0.723   5.458   2.037
88976SOL    HW168760   0.685   5.394   1.977
88976SOL    HW268761   0.778   5.513   1.982
88977SOL     OW68762   8.021   7.049   7.589
88977SOL    HW168763   7.934   7.048   7.630
88977SOL    HW268764   8.016   6.984   7.519
88978SOL     OW68765  14.865   3.259   4.965
88978SOL    HW168766  14.844   3.304   5.047
88978SOL    HW268767   0.021   3.173   4.993
88979SOL     OW68768  12.745  11.939   5.566
88979SOL    HW168769  12.708  11.975   5.647
88979SOL    HW268770  12.686  11.969   5.497
88980SOL     OW68771   2.451   1.869  14.526
88980SOL    HW168772   2.383   1.826  14.577
88980SOL    HW268773   2.415   1.955  14.505
88981SOL     OW68774   4.022  11.080  10.605
88981SOL    HW168775   4.025  11.161  10.555
88981SOL    HW268776   4.048  11.012  10.543
88982SOL     OW68777  11.373   2.270   9.783
88982SOL    HW168778  11.379   2.209   9.710
88982SOL    HW268779  11.327   2.346   9.748
88983SOL     OW68780   1.810   3.591  11.001
88983SOL    HW168781   1.740   3.650  10.973
88983SOL    HW268782   1.870   3.587  10.926
88984SOL     OW68783   5.735   0.725   4.599
88984SOL    HW168784   5.747   0.633   4.573
88984SOL    HW268785   5.654   0.725   4.650
88985SOL     OW68786   8.342   8.599   2.516
88985SOL    HW168787   8.412   8.604   2.581
88985SOL    HW268788   8.385   8.617   2.433
88986SOL     OW68789  11.051   7.211   3.390
88986SOL    HW168790  11.112   7.249   3.454
88986SOL    HW268791  11.011   7.288   3.348
88987SOL     OW68792   4.226   0.588  14.387
88987SOL    HW168793   4.140   0.627  14.398
88987SOL    HW268794   4.241   0.540  14.469
88988SOL     OW68795   0.734   5.315   6.434
88988SOL    HW168796   0.713   5.408   6.446
88988SOL    HW268797   0.766   5.308   6.345
88989SOL     OW68798   5.402   5.894  12.214
88989SOL    HW168799   5.430   5.950  12.142
88989SOL    HW268800   5.307   5.886  12.202
88990SOL     OW68801  13.217   9.026   3.535
88990SOL    HW168802  13.276   9.033   3.460
88990SOL    HW268803  13.206   9.117   3.565
88991SOL     OW68804   4.729   4.988   5.829
88991SOL    HW168805   4.815   4.950   5.811
88991SOL    HW268806   4.748   5.079   5.851
88992SOL     OW68807   6.697  12.855  12.605
88992SOL    HW168808   6.656  12.880  12.523
88992SOL    HW268809   6.790  12.842  12.582
88993SOL     OW68810   6.736   7.897  10.071
88993SOL    HW168811   6.704   7.883  10.160
88993SOL    HW268812   6.699   7.825  10.020
88994SOL     OW68813   9.994   1.913   6.583
88994SOL    HW168814  10.057   1.858   6.537
88994SOL    HW268815   9.915   1.860   6.588
88995SOL     OW68816   5.620   3.600   2.821
88995SOL    HW168817   5.594   3.518   2.862
88995SOL    HW268818   5.703   3.624   2.864
88996SOL     OW68819  10.485  11.744   5.543
88996SOL    HW168820  10.402  11.742   5.495
88996SOL    HW268821  10.551  11.730   5.476
88997SOL     OW68822   3.639  13.174   6.720
88997SOL    HW168823   3.638  13.082   6.746
88997SOL    HW268824   3.551  13.205   6.738
88998SOL     OW68825   3.141  14.659   7.800
88998SOL    HW168826   3.191  14.589   7.757
88998SOL    HW268827   3.073  14.613   7.850
88999SOL     OW68828   0.843   0.945   6.987
88999SOL    HW168829   0.902   0.999   6.935
88999SOL    HW268830   0.756   0.982   6.970
89000SOL     OW68831   1.762   4.886   8.614
89000SOL    HW168832   1.854   4.897   8.638
89000SOL    HW268833   1.757   4.799   8.576
89001SOL     OW68834   4.343   3.232   5.358
89001SOL    HW168835   4.329   3.160   5.297
89001SOL    HW268836   4.423   3.275   5.325
89002SOL     OW68837   6.839   7.162   9.733
89002SOL    HW168838   6.802   7.218   9.801
89002SOL    HW268839   6.866   7.222   9.664
89003SOL     OW68840   1.234   6.045  12.107
89003SOL    HW168841   1.236   6.082  12.195
89003SOL    HW268842   1.326   6.039  12.082
89004SOL     OW68843   1.945  12.236  10.039
89004SOL    HW168844   2.040  12.229  10.024
89004SOL    HW268845   1.906  12.208   9.956
89005SOL     OW68846   5.781  10.881   3.773
89005SOL    HW168847   5.740  10.824   3.838
89005SOL    HW268848   5.709  10.911   3.718
89006SOL     OW68849  13.694   1.621   1.448
89006SOL    HW168850  13.707   1.528   1.465
89006SOL    HW268851  13.757   1.665   1.505
89007SOL     OW68852   5.105  11.518  11.180
89007SOL    HW168853   5.095  11.589  11.243
89007SOL    HW268854   5.052  11.544  11.105
89008SOL     OW68855   6.907   9.249   9.732
89008SOL    HW168856   6.950   9.243   9.647
89008SOL    HW268857   6.854   9.170   9.738
89009SOL     OW68858   5.162   3.540   6.766
89009SOL    HW168859   5.189   3.631   6.760
89009SOL    HW268860   5.081   3.542   6.818
89010SOL     OW68861   2.541   0.416   7.201
89010SOL    HW168862   2.573   0.504   7.183
89010SOL    HW268863   2.620   0.364   7.216
89011SOL     OW68864   2.104  10.836   5.601
89011SOL    HW168865   2.088  10.813   5.693
89011SOL    HW268866   2.143  10.756   5.564
89012SOL     OW68867   9.206   7.147   2.453
89012SOL    HW168868   9.297   7.165   2.475
89012SOL    HW268869   9.190   7.196   2.372
89013SOL     OW68870  12.914  13.589   4.508
89013SOL    HW168871  12.859  13.596   4.430
89013SOL    HW268872  13.003  13.579   4.474
89014SOL     OW68873   2.703   0.751   9.455
89014SOL    HW168874   2.609   0.747   9.438
89014SOL    HW268875   2.712   0.813   9.528
89015SOL     OW68876   4.871   7.508  12.947
89015SOL    HW168877   4.878   7.600  12.975
89015SOL    HW268878   4.777   7.490  12.948
89016SOL     OW68879   1.613   9.870   9.365
89016SOL    HW168880   1.549   9.801   9.346
89016SOL    HW268881   1.661   9.838   9.442
89017SOL     OW68882   3.730  11.811  13.988
89017SOL    HW168883   3.671  11.824  14.063
89017SOL    HW268884   3.783  11.891  13.985
89018SOL     OW68885   0.746   7.905   6.103
89018SOL    HW168886   0.666   7.955   6.089
89018SOL    HW268887   0.816   7.964   6.074
89019SOL     OW68888  13.454  11.808   4.736
89019SOL    HW168889  13.501  11.725   4.731
89019SOL    HW268890  13.468  11.839   4.825
89020SOL     OW68891   9.795  14.667   8.872
89020SOL    HW168892   9.731  14.711   8.816
89020SOL    HW268893   9.747  14.592   8.908
89021SOL     OW68894   3.087   4.928   3.165
89021SOL    HW168895   3.121   5.011   3.197
89021SOL    HW268896   3.115   4.924   3.074
89022SOL     OW68897   3.187   6.518   0.368
89022SOL    HW168898   3.163   6.508   0.460
89022SOL    HW268899   3.270   6.470   0.360
89023SOL     OW68900   5.180  13.825   3.848
89023SOL    HW168901   5.200  13.915   3.823
89023SOL    HW268902   5.164  13.829   3.943
89024SOL     OW68903   8.714   5.151   7.065
89024SOL    HW168904   8.806   5.172   7.051
89024SOL    HW268905   8.715   5.084   7.133
89025SOL     OW68906   1.703   5.614   7.512
89025SOL    HW168907   1.665   5.645   7.595
89025SOL    HW268908   1.675   5.523   7.505
89026SOL     OW68909   1.811   9.343   4.299
89026SOL    HW168910   1.772   9.293   4.371
89026SOL    HW268911   1.844   9.277   4.239
89027SOL     OW68912  10.818   9.102  12.838
89027SOL    HW168913  10.808   9.135  12.749
89027SOL    HW268914  10.770   9.019  12.838
89028SOL     OW68915  13.008   3.065  10.285
89028SOL    HW168916  12.999   2.984  10.336
89028SOL    HW268917  13.087   3.051  10.233
89029SOL     OW68918   8.081  14.151   2.526
89029SOL    HW168919   8.083  14.144   2.621
89029SOL    HW268920   8.140  14.224   2.506
89030SOL     OW68921   7.888   6.050  10.649
89030SOL    HW168922   7.870   5.963  10.614
89030SOL    HW268923   7.979   6.067  10.626
89031SOL     OW68924   1.834  12.238   2.405
89031SOL    HW168925   1.782  12.159   2.421
89031SOL    HW268926   1.901  12.236   2.473
89032SOL     OW68927  10.001  12.420  11.342
89032SOL    HW168928  10.004  12.333  11.383
89032SOL    HW268929  10.015  12.402  11.248
89033SOL     OW68930  11.535   2.354   3.272
89033SOL    HW168931  11.584   2.432   3.246
89033SOL    HW268932  11.496   2.377   3.356
89034SOL     OW68933   0.530   2.085   5.533
89034SOL    HW168934   0.501   2.167   5.494
89034SOL    HW268935   0.614   2.107   5.574
89035SOL     OW68936  13.172   6.849   6.486
89035SOL    HW168937  13.149   6.757   6.478
89035SOL    HW268938  13.266   6.853   6.472
89036SOL     OW68939   1.847   4.326  12.949
89036SOL    HW168940   1.932   4.357  12.980
89036SOL    HW268941   1.803   4.405  12.917
89037SOL     OW68942   4.700   3.292  13.598
89037SOL    HW168943   4.650   3.351  13.541
89037SOL    HW268944   4.692   3.331  13.685
89038SOL     OW68945   6.612  13.119   3.233
89038SOL    HW168946   6.627  13.092   3.142
89038SOL    HW268947   6.546  13.058   3.265
89039SOL     OW68948   1.138   2.544   8.076
89039SOL    HW168949   1.136   2.523   7.982
89039SOL    HW268950   1.061   2.500   8.112
89040SOL     OW68951   3.048   6.088   5.490
89040SOL    HW168952   3.069   6.106   5.399
89040SOL    HW268953   3.112   6.021   5.516
89041SOL     OW68954  11.510   5.240   5.883
89041SOL    HW168955  11.446   5.273   5.819
89041SOL    HW268956  11.517   5.311   5.947
89042SOL     OW68957   0.993  10.932  14.049
89042SOL    HW168958   0.989  11.016  14.096
89042SOL    HW268959   1.005  10.867  14.118
89043SOL     OW68960  12.967   4.846   4.845
89043SOL    HW168961  12.924   4.929   4.868
89043SOL    HW268962  12.899   4.796   4.800
89044SOL     OW68963  12.555   8.481  13.528
89044SOL    HW168964  12.461   8.496  13.518
89044SOL    HW268965  12.595   8.526  13.453
89045SOL     OW68966   6.254   2.813   6.530
89045SOL    HW168967   6.196   2.879   6.491
89045SOL    HW268968   6.340   2.832   6.493
89046SOL     OW68969   0.209  11.131   8.773
89046SOL    HW168970   0.255  11.058   8.732
89046SOL    HW268971   0.254  11.209   8.739
89047SOL     OW68972  11.176  13.750   7.802
89047SOL    HW168973  11.231  13.826   7.821
89047SOL    HW268974  11.120  13.742   7.880
89048SOL     OW68975   9.871   7.322  12.301
89048SOL    HW168976   9.933   7.372  12.247
89048SOL    HW268977   9.852   7.379  12.375
89049SOL     OW68978   7.917  12.324  13.330
89049SOL    HW168979   7.839  12.323  13.275
89049SOL    HW268980   7.939  12.232  13.341
89050SOL     OW68981   0.892  10.554   4.692
89050SOL    HW168982   0.896  10.635   4.743
89050SOL    HW268983   0.885  10.582   4.601
89051SOL     OW68984   5.840  10.849   0.049
89051SOL    HW168985   5.839  10.795   0.129
89051SOL    HW268986   5.891  10.926   0.074
89052SOL     OW68987   6.621  10.969   7.715
89052SOL    HW168988   6.605  10.963   7.621
89052SOL    HW268989   6.579  11.051   7.741
89053SOL     OW68990   1.282   5.640   5.427
89053SOL    HW168991   1.222   5.694   5.376
89053SOL    HW268992   1.231   5.611   5.503
89054SOL     OW68993  12.688   4.175   1.156
89054SOL    HW168994  12.745   4.156   1.081
89054SOL    HW268995  12.617   4.112   1.149
89055SOL     OW68996  13.340   9.795   1.486
89055SOL    HW168997  13.405   9.807   1.555
89055SOL    HW268998  13.350   9.872   1.429
89056SOL     OW68999  10.623   0.615   0.542
89056SOL    HW169000  10.558   0.594   0.609
89056SOL    HW269001  10.599   0.702   0.512
89057SOL     OW69002   5.925   8.465   3.405
89057SOL    HW169003   5.919   8.392   3.344
89057SOL    HW269004   5.941   8.541   3.349
89058SOL     OW69005  10.925   5.937  11.830
89058SOL    HW169006  10.959   6.025  11.841
89058SOL    HW269007  10.925   5.900  11.918
89059SOL     OW69008  11.483   0.594  12.556
89059SOL    HW169009  11.572   0.571  12.584
89059SOL    HW269010  11.432   0.515  12.576
89060SOL     OW69011  13.255   1.537   3.539
89060SOL    HW169012  13.245   1.537   3.444
89060SOL    HW269013  13.236   1.627   3.565
89061SOL     OW69014   4.727   2.850   2.719
89061SOL    HW169015   4.638   2.883   2.732
89061SOL    HW269016   4.724   2.761   2.752
89062SOL     OW69017   4.378  13.695   4.952
89062SOL    HW169018   4.399  13.609   4.987
89062SOL    HW269019   4.284  13.704   4.964
89063SOL     OW69020   1.190  14.767   8.383
89063SOL    HW169021   1.126  14.725   8.440
89063SOL    HW269022   1.154  14.756   8.295
89064SOL     OW69023  12.152   3.835   2.721
89064SOL    HW169024  12.164   3.864   2.812
89064SOL    HW269025  12.219   3.768   2.708
89065SOL     OW69026   3.867  12.338   2.317
89065SOL    HW169027   3.787  12.287   2.302
89065SOL    HW269028   3.860  12.368   2.408
89066SOL     OW69029   9.346   9.515  14.152
89066SOL    HW169030   9.432   9.544  14.183
89066SOL    HW269031   9.327   9.437  14.203
89067SOL     OW69032  12.465   3.036   5.661
89067SOL    HW169033  12.534   3.087   5.703
89067SOL    HW269034  12.385   3.060   5.708
89068SOL     OW69035  10.340   8.965   9.981
89068SOL    HW169036  10.306   8.902   9.918
89068SOL    HW269037  10.367   9.040   9.928
89069SOL     OW69038  10.766  11.310   2.110
89069SOL    HW169039  10.851  11.350   2.090
89069SOL    HW269040  10.763  11.308   2.206
89070SOL     OW69041   0.308  11.173   6.437
89070SOL    HW169042   0.223  11.201   6.470
89070SOL    HW269043   0.335  11.103   6.496
89071SOL     OW69044  13.236   9.696   1.818
89071SOL    HW169045  13.300   9.754   1.776
89071SOL    HW269046  13.167   9.755   1.848
89072SOL     OW69047   9.121   0.896   0.595
89072SOL    HW169048   9.190   0.831   0.583
89072SOL    HW269049   9.041   0.851   0.570
89073SOL     OW69050   3.787   5.571   3.152
89073SOL    HW169051   3.881   5.569   3.170
89073SOL    HW269052   3.766   5.482   3.124
89074SOL     OW69053   4.735   5.444   0.549
89074SOL    HW169054   4.691   5.399   0.476
89074SOL    HW269055   4.667   5.457   0.614
89075SOL     OW69056   2.292  13.701   0.519
89075SOL    HW169057   2.374  13.697   0.568
89075SOL    HW269058   2.316  13.678   0.430
89076SOL     OW69059   5.838   1.183   9.552
89076SOL    HW169060   5.875   1.133   9.479
89076SOL    HW269061   5.839   1.273   9.523
89077SOL     OW69062   7.881   5.030   7.702
89077SOL    HW169063   7.893   5.092   7.774
89077SOL    HW269064   7.786   5.030   7.688
89078SOL     OW69065  13.995  14.696   1.058
89078SOL    HW169066  14.052  14.663   0.988
89078SOL    HW269067  14.018  14.789   1.064
89079SOL     OW69068   3.338   6.193   5.376
89079SOL    HW169069   3.312   6.106   5.404
89079SOL    HW269070   3.274   6.217   5.309
89080SOL     OW69071  11.724   8.205   9.635
89080SOL    HW169072  11.630   8.184   9.639
89080SOL    HW269073  11.746   8.228   9.726
89081SOL     OW69074  11.197   4.611   1.713
89081SOL    HW169075  11.180   4.604   1.807
89081SOL    HW269076  11.136   4.678   1.683
89082SOL     OW69077   5.525   3.665  13.322
89082SOL    HW169078   5.549   3.718  13.246
89082SOL    HW269079   5.438   3.631  13.301
89083SOL     OW69080   5.743   0.569   0.256
89083SOL    HW169081   5.727   0.481   0.290
89083SOL    HW269082   5.711   0.566   0.166
89084SOL     OW69083   2.457   5.887  11.745
89084SOL    HW169084   2.541   5.911  11.786
89084SOL    HW269085   2.482   5.852  11.659
89085SOL     OW69086   0.024   5.126   4.854
89085SOL    HW169087   0.013   5.194   4.920
89085SOL    HW269088   0.116   5.131   4.829
89086SOL     OW69089   7.202   9.880   0.421
89086SOL    HW169090   7.282   9.877   0.474
89086SOL    HW269091   7.133   9.900   0.484
89087SOL     OW69092   4.947  12.688  12.157
89087SOL    HW169093   5.042  12.695  12.153
89087SOL    HW269094   4.916  12.761  12.103
89088SOL     OW69095   7.638  13.098   9.672
89088SOL    HW169096   7.587  13.062   9.745
89088SOL    HW269097   7.703  13.155   9.714
89089SOL     OW69098   9.864   0.585  11.511
89089SOL    HW169099   9.935   0.529  11.541
89089SOL    HW269100   9.871   0.664  11.565
89090SOL     OW69101   9.653   4.820  13.208
89090SOL    HW169102   9.650   4.725  13.217
89090SOL    HW269103   9.678   4.834  13.116
89091SOL     OW69104   0.435   1.461  14.865
89091SOL    HW169105   0.461   1.549  14.838
89091SOL    HW269106   0.495   1.440   0.061
89092SOL     OW69107   2.414   8.068   8.910
89092SOL    HW169108   2.458   8.152   8.922
89092SOL    HW269109   2.348   8.066   8.979
89093SOL     OW69110  10.406   4.596   0.678
89093SOL    HW169111  10.324   4.549   0.664
89093SOL    HW269112  10.384   4.664   0.742
89094SOL     OW69113  12.503   1.908   0.381
89094SOL    HW169114  12.486   2.001   0.397
89094SOL    HW269115  12.500   1.868   0.468
89095SOL     OW69116  10.564  10.192   8.540
89095SOL    HW169117  10.654  10.188   8.508
89095SOL    HW269118  10.554  10.282   8.572
89096SOL     OW69119   1.374   2.949  14.662
89096SOL    HW169120   1.314   2.929  14.591
89096SOL    HW269121   1.420   2.867  14.680
89097SOL     OW69122   1.516  10.871   6.430
89097SOL    HW169123   1.460  10.948   6.426
89097SOL    HW269124   1.464  10.801   6.390
89098SOL     OW69125   9.878  10.922  13.759
89098SOL    HW169126   9.788  10.910  13.727
89098SOL    HW269127   9.920  10.974  13.691
89099SOL     OW69128   5.777   0.383   9.696
89099SOL    HW169129   5.827   0.460   9.669
89099SOL    HW269130   5.694   0.418   9.727
89100SOL     OW69131   3.198  12.091  10.373
89100SOL    HW169132   3.237  12.134  10.449
89100SOL    HW269133   3.116  12.138  10.358
89101SOL     OW69134   7.673   5.541   8.212
89101SOL    HW169135   7.639   5.463   8.170
89101SOL    HW269136   7.648   5.613   8.154
89102SOL     OW69137  10.760   5.949  13.787
89102SOL    HW169138  10.842   5.992  13.812
89102SOL    HW269139  10.728   5.911  13.869
89103SOL     OW69140   6.223   8.413   5.229
89103SOL    HW169141   6.172   8.482   5.186
89103SOL    HW269142   6.188   8.409   5.318
89104SOL     OW69143  12.830  12.366   8.562
89104SOL    HW169144  12.877  12.383   8.480
89104SOL    HW269145  12.886  12.402   8.630
89105SOL     OW69146   9.976   0.151   8.541
89105SOL    HW169147   9.893   0.144   8.587
89105SOL    HW269148   9.956   0.127   8.450
89106SOL     OW69149   6.385  13.788  13.213
89106SOL    HW169150   6.430  13.870  13.192
89106SOL    HW269151   6.444  13.720  13.181
89107SOL     OW69152  13.461   9.164   6.444
89107SOL    HW169153  13.450   9.081   6.397
89107SOL    HW269154  13.437   9.231   6.380
89108SOL     OW69155  13.358   4.915   4.210
89108SOL    HW169156  13.333   5.002   4.241
89108SOL    HW269157  13.377   4.927   4.117
89109SOL     OW69158  11.491  14.309  10.569
89109SOL    HW169159  11.547  14.306  10.492
89109SOL    HW269160  11.441  14.390  10.559
89110SOL     OW69161   2.368   5.046   7.603
89110SOL    HW169162   2.319   5.042   7.521
89110SOL    HW269163   2.445   5.100   7.583
89111SOL     OW69164   2.746   7.051  10.002
89111SOL    HW169165   2.660   7.079  10.032
89111SOL    HW269166   2.761   7.100   9.921
89112SOL     OW69167  13.293   5.946  11.709
89112SOL    HW169168  13.275   6.011  11.777
89112SOL    HW269169  13.213   5.895  11.702
89113SOL     OW69170   8.458   6.592  14.669
89113SOL    HW169171   8.535   6.643  14.696
89113SOL    HW269172   8.384   6.636  14.712
89114SOL     OW69173  13.692   5.356   9.299
89114SOL    HW169174  13.626   5.286   9.300
89114SOL    HW269175  13.727   5.353   9.210
89115SOL     OW69176   3.528  10.579  14.645
89115SOL    HW169177   3.496  10.489  14.637
89115SOL    HW269178   3.474  10.629  14.583
89116SOL     OW69179   7.762   9.161   6.629
89116SOL    HW169180   7.734   9.096   6.564
89116SOL    HW269181   7.680   9.193   6.667
89117SOL     OW69182   8.842  14.714   0.840
89117SOL    HW169183   8.925  14.761   0.830
89117SOL    HW269184   8.818  14.689   0.751
89118SOL     OW69185   0.102   8.756  13.616
89118SOL    HW169186   0.194   8.742  13.597
89118SOL    HW269187   0.084   8.845  13.583
89119SOL     OW69188   3.814   3.213   7.827
89119SOL    HW169189   3.870   3.202   7.904
89119SOL    HW269190   3.866   3.178   7.755
89120SOL     OW69191   9.291   0.683   4.080
89120SOL    HW169192   9.258   0.768   4.107
89120SOL    HW269193   9.250   0.666   3.996
89121SOL     OW69194   9.691   6.914   9.162
89121SOL    HW169195   9.782   6.935   9.185
89121SOL    HW269196   9.661   6.857   9.233
89122SOL     OW69197  10.826  13.842  10.261
89122SOL    HW169198  10.894  13.774  10.255
89122SOL    HW269199  10.748  13.795  10.290
89123SOL     OW69200  11.114   3.676   7.432
89123SOL    HW169201  11.086   3.722   7.353
89123SOL    HW269202  11.046   3.697   7.497
89124SOL     OW69203   8.043   5.088   6.020
89124SOL    HW169204   8.133   5.110   5.997
89124SOL    HW269205   7.992   5.111   5.943
89125SOL     OW69206  11.726   3.478   3.820
89125SOL    HW169207  11.663   3.550   3.819
89125SOL    HW269208  11.701   3.424   3.895
89126SOL     OW69209  10.605   6.185   4.097
89126SOL    HW169210  10.542   6.186   4.169
89126SOL    HW269211  10.635   6.094   4.093
89127SOL     OW69212   4.789   8.032   3.705
89127SOL    HW169213   4.839   7.964   3.660
89127SOL    HW269214   4.698   8.015   3.680
89128SOL     OW69215   8.115   2.679  13.259
89128SOL    HW169216   8.023   2.677  13.287
89128SOL    HW269217   8.115   2.639  13.172
89129SOL     OW69218  11.691   4.710   3.567
89129SOL    HW169219  11.661   4.628   3.527
89129SOL    HW269220  11.611   4.760   3.582
89130SOL     OW69221  10.466  12.349   3.761
89130SOL    HW169222  10.558  12.325   3.750
89130SOL    HW269223  10.418  12.267   3.755
89131SOL     OW69224   6.691  11.643   7.208
89131SOL    HW169225   6.770  11.665   7.259
89131SOL    HW269226   6.666  11.556   7.239
89132SOL     OW69227  10.042  10.349  13.011
89132SOL    HW169228  10.021  10.292  12.937
89132SOL    HW269229  10.107  10.299  13.061
89133SOL     OW69230   8.274   6.928   2.792
89133SOL    HW169231   8.190   6.931   2.839
89133SOL    HW269232   8.252   6.890   2.707
89134SOL     OW69233   8.337   9.950   8.062
89134SOL    HW169234   8.295   9.874   8.023
89134SOL    HW269235   8.392   9.913   8.132
89135SOL     OW69236  14.649   1.179   3.433
89135SOL    HW169237  14.659   1.196   3.527
89135SOL    HW269238  14.668   1.264   3.392
89136SOL     OW69239  12.979  11.163   4.091
89136SOL    HW169240  12.922  11.087   4.100
89136SOL    HW269241  13.066  11.125   4.079
89137SOL     OW69242   9.836  12.980  13.368
89137SOL    HW169243   9.868  13.038  13.438
89137SOL    HW269244   9.915  12.939  13.334
89138SOL     OW69245   0.918   8.567   3.570
89138SOL    HW169246   0.832   8.603   3.591
89138SOL    HW269247   0.968   8.642   3.538
89139SOL     OW69248   3.272   3.586  11.052
89139SOL    HW169249   3.308   3.531  10.982
89139SOL    HW269250   3.178   3.588  11.035
89140SOL     OW69251   9.778   5.160   9.797
89140SOL    HW169252   9.849   5.170   9.733
89140SOL    HW269253   9.819   5.182   9.881
89141SOL     OW69254   0.328   2.698   5.522
89141SOL    HW169255   0.309   2.607   5.544
89141SOL    HW269256   0.299   2.708   5.432
89142SOL     OW69257   4.668   7.545  13.264
89142SOL    HW169258   4.610   7.498  13.323
89142SOL    HW269259   4.745   7.489  13.257
89143SOL     OW69260   6.478  12.914  14.713
89143SOL    HW169261   6.454  12.845  14.774
89143SOL    HW269262   6.413  12.908  14.643
89144SOL     OW69263   9.742   8.212   2.360
89144SOL    HW169264   9.798   8.170   2.294
89144SOL    HW269265   9.787   8.197   2.442
89145SOL     OW69266   1.816   3.176  10.246
89145SOL    HW169267   1.784   3.248  10.301
89145SOL    HW269268   1.737   3.125  10.225
89146SOL     OW69269   7.638   9.909   5.786
89146SOL    HW169270   7.671   9.998   5.777
89146SOL    HW269271   7.637   9.894   5.881
89147SOL     OW69272  13.959   4.761   4.558
89147SOL    HW169273  13.933   4.853   4.553
89147SOL    HW269274  14.053   4.763   4.545
89148SOL     OW69275   6.866   6.674   5.586
89148SOL    HW169276   6.863   6.623   5.668
89148SOL    HW269277   6.844   6.610   5.518
89149SOL     OW69278  11.000   0.489   8.386
89149SOL    HW169279  11.047   0.406   8.389
89149SOL    HW269280  10.913   0.467   8.352
89150SOL     OW69281  11.490   8.885  10.987
89150SOL    HW169282  11.430   8.876  11.061
89150SOL    HW269283  11.553   8.951  11.015
89151SOL     OW69284  10.359   4.091   0.336
89151SOL    HW169285  10.392   4.142   0.262
89151SOL    HW269286  10.264   4.105   0.334
89152SOL     OW69287   7.286   1.792  12.181
89152SOL    HW169288   7.203   1.802  12.134
89152SOL    HW269289   7.261   1.781  12.272
89153SOL     OW69290   4.769   5.682   5.572
89153SOL    HW169291   4.680   5.713   5.587
89153SOL    HW269292   4.823   5.732   5.633
89154SOL     OW69293   3.209  13.194   6.176
89154SOL    HW169294   3.255  13.231   6.252
89154SOL    HW269295   3.273  13.136   6.135
89155SOL     OW69296  13.339  10.667   2.994
89155SOL    HW169297  13.255  10.710   2.979
89155SOL    HW269298  13.341  10.648   3.088
89156SOL     OW69299   4.340   6.329   0.917
89156SOL    HW169300   4.270   6.393   0.903
89156SOL    HW269301   4.385   6.324   0.833
89157SOL     OW69302   2.804   7.008   9.574
89157SOL    HW169303   2.719   7.000   9.617
89157SOL    HW269304   2.799   6.948   9.499
89158SOL     OW69305  10.755   2.250   8.802
89158SOL    HW169306  10.790   2.334   8.830
89158SOL    HW269307  10.722   2.210   8.882
89159SOL     OW69308   3.415   2.436   9.237
89159SOL    HW169309   3.436   2.395   9.321
89159SOL    HW269310   3.420   2.365   9.173
89160SOL     OW69311   5.133   3.428  10.602
89160SOL    HW169312   5.074   3.499  10.577
89160SOL    HW269313   5.087   3.382  10.672
89161SOL     OW69314   7.264   2.717   7.943
89161SOL    HW169315   7.352   2.689   7.918
89161SOL    HW269316   7.278   2.781   8.012
89162SOL     OW69317   0.199  11.828  13.853
89162SOL    HW169318   0.221  11.741  13.822
89162SOL    HW269319   0.153  11.869  13.780
89163SOL     OW69320   4.538   0.550  14.215
89163SOL    HW169321   4.627   0.525  14.241
89163SOL    HW269322   4.484   0.476  14.242
89164SOL     OW69323   0.227  10.060   6.378
89164SOL    HW169324   0.171   9.984   6.386
89164SOL    HW269325   0.312  10.031   6.411
89165SOL     OW69326   8.381  11.447   9.915
89165SOL    HW169327   8.393  11.540   9.893
89165SOL    HW269328   8.289  11.440   9.940
89166SOL     OW69329   9.973   8.398   6.134
89166SOL    HW169330   9.914   8.370   6.064
89166SOL    HW269331   9.997   8.487   6.112
89167SOL     OW69332  13.916  12.941  12.185
89167SOL    HW169333  14.006  12.916  12.205
89167SOL    HW269334  13.878  12.965  12.270
89168SOL     OW69335  10.305   6.217  13.486
89168SOL    HW169336  10.373   6.247  13.426
89168SOL    HW269337  10.288   6.293  13.542
89169SOL     OW69338  10.586  12.736  11.096
89169SOL    HW169339  10.638  12.763  11.172
89169SOL    HW269340  10.499  12.773  11.113
89170SOL     OW69341   6.880   6.719  11.152
89170SOL    HW169342   6.822   6.794  11.139
89170SOL    HW269343   6.967   6.757  11.158
89171SOL     OW69344   0.431   8.931   5.078
89171SOL    HW169345   0.498   8.880   5.124
89171SOL    HW269346   0.390   8.869   5.019
89172SOL     OW69347  10.470   6.658   1.628
89172SOL    HW169348  10.488   6.749   1.602
89172SOL    HW269349  10.495   6.606   1.551
89173SOL     OW69350  13.562  13.907   2.125
89173SOL    HW169351  13.520  13.822   2.141
89173SOL    HW269352  13.565  13.914   2.030
89174SOL     OW69353   1.677   2.111   7.367
89174SOL    HW169354   1.609   2.087   7.429
89174SOL    HW269355   1.641   2.187   7.320
89175SOL     OW69356   9.871  13.761  11.141
89175SOL    HW169357   9.890  13.668  11.151
89175SOL    HW269358   9.880  13.797  11.230
89176SOL     OW69359  13.593   3.286   0.423
89176SOL    HW169360  13.549   3.336   0.355
89176SOL    HW269361  13.548   3.310   0.504
89177SOL     OW69362   0.020  10.484  14.316
89177SOL    HW169363  14.801  10.491  14.325
89177SOL    HW269364   0.034  10.448  14.228
89178SOL     OW69365   9.856   7.100   5.895
89178SOL    HW169366   9.768   7.113   5.930
89178SOL    HW269367   9.842   7.054   5.812
89179SOL     OW69368   2.368  14.296   9.285
89179SOL    HW169369   2.416  14.214   9.297
89179SOL    HW269370   2.341  14.321   9.374
89180SOL     OW69371   6.758   5.204  12.821
89180SOL    HW169372   6.760   5.143  12.895
89180SOL    HW269373   6.672   5.191  12.781
89181SOL     OW69374   8.921   9.924  12.328
89181SOL    HW169375   8.990   9.858  12.334
89181SOL    HW269376   8.855   9.895  12.391
89182SOL     OW69377   5.479   8.553   5.967
89182SOL    HW169378   5.495   8.562   5.873
89182SOL    HW269379   5.566   8.549   6.005
89183SOL     OW69380   7.162  14.707   0.120
89183SOL    HW169381   7.173  14.802   0.106
89183SOL    HW269382   7.110  14.701   0.200
89184SOL     OW69383   4.050   2.706   1.292
89184SOL    HW169384   4.087   2.784   1.250
89184SOL    HW269385   4.065   2.720   1.385
89185SOL     OW69386   1.512  12.163   6.149
89185SOL    HW169387   1.442  12.189   6.089
89185SOL    HW269388   1.555  12.245   6.172
89186SOL     OW69389   3.329   6.088  11.126
89186SOL    HW169390   3.358   6.061  11.039
89186SOL    HW269391   3.294   6.176  11.115
89187SOL     OW69392   1.460   7.449  11.488
89187SOL    HW169393   1.520   7.375  11.484
89187SOL    HW269394   1.468   7.492  11.403
89188SOL     OW69395   1.344   0.943   1.036
89188SOL    HW169396   1.331   1.016   1.096
89188SOL    HW269397   1.434   0.914   1.052
89189SOL     OW69398   4.827   1.281   9.675
89189SOL    HW169399   4.739   1.250   9.696
89189SOL    HW269400   4.838   1.361   9.726
89190SOL     OW69401   2.743  12.782   6.349
89190SOL    HW169402   2.725  12.829   6.268
89190SOL    HW269403   2.668  12.802   6.406
89191SOL     OW69404   5.949  13.813   3.761
89191SOL    HW169405   5.939  13.718   3.767
89191SOL    HW269406   6.004  13.828   3.684
89192SOL     OW69407  14.566   6.943   2.592
89192SOL    HW169408  14.600   6.854   2.581
89192SOL    HW269409  14.539   6.948   2.683
89193SOL     OW69410  10.743   2.029  14.856
89193SOL    HW169411  10.778   2.084  14.786
89193SOL    HW269412  10.719   2.090   0.049
89194SOL     OW69413   8.904  10.713   8.858
89194SOL    HW169414   8.966  10.755   8.798
89194SOL    HW269415   8.818  10.735   8.822
89195SOL     OW69416   3.360   5.328   9.723
89195SOL    HW169417   3.338   5.234   9.722
89195SOL    HW269418   3.417   5.338   9.799
89196SOL     OW69419   4.516  11.368  10.067
89196SOL    HW169420   4.438  11.375  10.123
89196SOL    HW269421   4.481  11.351   9.980
89197SOL     OW69422   7.466   1.061   2.989
89197SOL    HW169423   7.375   1.032   2.994
89197SOL    HW269424   7.462   1.140   2.934
89198SOL     OW69425   8.385   7.773  11.949
89198SOL    HW169426   8.363   7.847  11.893
89198SOL    HW269427   8.304   7.722  11.954
89199SOL     OW69428  11.877  12.065   7.346
89199SOL    HW169429  11.946  12.004   7.319
89199SOL    HW269430  11.796  12.026   7.313
89200SOL     OW69431  10.394   3.146  10.162
89200SOL    HW169432  10.334   3.091  10.212
89200SOL    HW269433  10.434   3.204  10.227
89201SOL     OW69434   5.197  13.737   8.289
89201SOL    HW169435   5.214  13.643   8.278
89201SOL    HW269436   5.234  13.777   8.210
89202SOL     OW69437   6.894   7.297   9.253
89202SOL    HW169438   6.986   7.271   9.248
89202SOL    HW269439   6.877   7.343   9.171
89203SOL     OW69440   1.806   2.721   7.663
89203SOL    HW169441   1.821   2.770   7.744
89203SOL    HW269442   1.780   2.788   7.599
89204SOL     OW69443  10.598  14.647  14.115
89204SOL    HW169444  10.692  14.662  14.127
89204SOL    HW269445  10.589  14.624  14.022
89205SOL     OW69446  13.347   1.550  13.647
89205SOL    HW169447  13.381   1.519  13.563
89205SOL    HW269448  13.283   1.618  13.623
89206SOL     OW69449   2.871   0.456   4.040
89206SOL    HW169450   2.820   0.532   4.068
89206SOL    HW269451   2.852   0.388   4.105
89207SOL     OW69452  13.473  14.578   1.589
89207SOL    HW169453  13.507  14.583   1.500
89207SOL    HW269454  13.546  14.543   1.641
89208SOL     OW69455   6.124   4.320  11.867
89208SOL    HW169456   6.069   4.397  11.859
89208SOL    HW269457   6.062   4.247  11.877
89209SOL     OW69458  12.143  14.698   4.718
89209SOL    HW169459  12.168  14.748   4.795
89209SOL    HW269460  12.052  14.722   4.702
89210SOL     OW69461   7.616  12.531  12.747
89210SOL    HW169462   7.691  12.484  12.783
89210SOL    HW269463   7.619  12.617  12.790
89211SOL     OW69464   7.039   0.536  12.021
89211SOL    HW169465   7.047   0.491  11.937
89211SOL    HW269466   6.976   0.483  12.071
89212SOL     OW69467   2.172   3.086   1.154
89212SOL    HW169468   2.176   2.990   1.150
89212SOL    HW269469   2.082   3.107   1.131
89213SOL     OW69470  13.374  10.927  14.321
89213SOL    HW169471  13.424  10.997  14.279
89213SOL    HW269472  13.283  10.947  14.301
89214SOL     OW69473   1.217  12.285  10.216
89214SOL    HW169474   1.263  12.201  10.212
89214SOL    HW269475   1.212  12.305  10.309
89215SOL     OW69476  11.701   8.958   3.703
89215SOL    HW169477  11.692   8.867   3.674
89215SOL    HW269478  11.673   9.010   3.627
89216SOL     OW69479  13.907  11.684   3.674
89216SOL    HW169480  13.920  11.685   3.769
89216SOL    HW269481  13.857  11.605   3.657
89217SOL     OW69482  11.762  13.249   9.119
89217SOL    HW169483  11.791  13.286   9.203
89217SOL    HW269484  11.843  13.238   9.069
89218SOL     OW69485  11.916   0.167   3.661
89218SOL    HW169486  11.945   0.253   3.632
89218SOL    HW269487  11.890   0.181   3.752
89219SOL     OW69488   9.407   5.060   1.938
89219SOL    HW169489   9.502   5.062   1.951
89219SOL    HW269490   9.391   5.127   1.871
89220SOL     OW69491   3.741   2.265   5.153
89220SOL    HW169492   3.823   2.305   5.182
89220SOL    HW269493   3.766   2.176   5.127
89221SOL     OW69494   3.546   7.045   6.283
89221SOL    HW169495   3.452   7.025   6.277
89221SOL    HW269496   3.585   6.968   6.324
89222SOL     OW69497   4.963   4.400  14.028
89222SOL    HW169498   4.922   4.485  14.041
89222SOL    HW269499   5.043   4.419  13.979
89223SOL     OW69500  11.542  12.688  11.524
89223SOL    HW169501  11.576  12.773  11.496
89223SOL    HW269502  11.455  12.707  11.559
89224SOL     OW69503   1.695  11.675   7.722
89224SOL    HW169504   1.603  11.698   7.715
89224SOL    HW269505   1.700  11.613   7.795
89225SOL     OW69506  13.552  11.001   8.907
89225SOL    HW169507  13.485  10.939   8.936
89225SOL    HW269508  13.622  10.945   8.872
89226SOL     OW69509   2.776  12.413   7.022
89226SOL    HW169510   2.726  12.424   6.941
89226SOL    HW269511   2.836  12.488   7.023
89227SOL     OW69512   8.180   1.479  11.157
89227SOL    HW169513   8.275   1.495  11.163
89227SOL    HW269514   8.145   1.559  11.119
89228SOL     OW69515  14.086  13.855   4.418
89228SOL    HW169516  14.018  13.884   4.479
89228SOL    HW269517  14.167  13.860   4.468
89229SOL     OW69518   9.441  14.490   0.872
89229SOL    HW169519   9.449  14.408   0.823
89229SOL    HW269520   9.525  14.499   0.917
89230SOL     OW69521  12.167   8.190   8.927
89230SOL    HW169522  12.188   8.270   8.878
89230SOL    HW269523  12.223   8.123   8.887
89231SOL     OW69524  14.331   8.763  13.422
89231SOL    HW169525  14.379   8.726  13.495
89231SOL    HW269526  14.385   8.836  13.392
89232SOL     OW69527   4.581   1.443   4.642
89232SOL    HW169528   4.632   1.440   4.723
89232SOL    HW269529   4.624   1.511   4.589
89233SOL     OW69530   6.781   6.794  13.689
89233SOL    HW169531   6.734   6.838  13.618
89233SOL    HW269532   6.735   6.711  13.699
89234SOL     OW69533   3.464  12.266   0.775
89234SOL    HW169534   3.545  12.218   0.795
89234SOL    HW269535   3.488  12.328   0.707
89235SOL     OW69536   4.980   2.289   3.825
89235SOL    HW169537   4.974   2.378   3.791
89235SOL    HW269538   5.023   2.240   3.755
89236SOL     OW69539  11.439   5.022   0.888
89236SOL    HW169540  11.397   5.081   0.825
89236SOL    HW269541  11.402   5.049   0.973
89237SOL     OW69542   6.049   3.658   7.092
89237SOL    HW169543   6.040   3.639   7.185
89237SOL    HW269544   5.959   3.660   7.059
89238SOL     OW69545   7.008  11.180   3.135
89238SOL    HW169546   6.994  11.268   3.099
89238SOL    HW269547   6.921  11.154   3.167
89239SOL     OW69548   2.882   6.539   4.148
89239SOL    HW169549   2.827   6.547   4.226
89239SOL    HW269550   2.844   6.468   4.098
89240SOL     OW69551   1.253   6.531   7.411
89240SOL    HW169552   1.162   6.560   7.413
89240SOL    HW269553   1.304   6.610   7.430
89241SOL     OW69554   2.196  13.964   5.175
89241SOL    HW169555   2.183  14.014   5.255
89241SOL    HW269556   2.132  13.893   5.180
89242SOL     OW69557   4.783   9.775   2.931
89242SOL    HW169558   4.713   9.722   2.892
89242SOL    HW269559   4.864   9.729   2.910
89243SOL     OW69560   7.003  11.398  10.007
89243SOL    HW169561   6.998  11.303   9.993
89243SOL    HW269562   7.082  11.410  10.061
89244SOL     OW69563  13.880  13.008  11.511
89244SOL    HW169564  13.818  13.025  11.582
89244SOL    HW269565  13.965  13.007  11.555
89245SOL     OW69566  13.513  12.076   0.035
89245SOL    HW169567  13.429  12.058   0.078
89245SOL    HW269568  13.526  12.170   0.048
89246SOL     OW69569   4.336   5.309   3.675
89246SOL    HW169570   4.427   5.305   3.645
89246SOL    HW269571   4.292   5.239   3.627
89247SOL     OW69572   7.675  13.055  12.854
89247SOL    HW169573   7.641  13.138  12.819
89247SOL    HW269574   7.765  13.051  12.822
89248SOL     OW69575   0.839  10.576   3.689
89248SOL    HW169576   0.901  10.508   3.662
89248SOL    HW269577   0.864  10.652   3.637
89249SOL     OW69578   6.934  13.518   8.850
89249SOL    HW169579   7.017  13.473   8.838
89249SOL    HW269580   6.878  13.453   8.893
89250SOL     OW69581  14.768  11.320   2.412
89250SOL    HW169582  14.740  11.337   2.502
89250SOL    HW269583  14.809  11.234   2.416
89251SOL     OW69584   2.669   6.912   6.796
89251SOL    HW169585   2.593   6.862   6.766
89251SOL    HW269586   2.660   6.915   6.891
89252SOL     OW69587   4.887   1.938   0.657
89252SOL    HW169588   4.876   2.000   0.584
89252SOL    HW269589   4.944   1.984   0.719
89253SOL     OW69590  10.262   1.940   2.050
89253SOL    HW169591  10.334   1.972   1.995
89253SOL    HW269592  10.191   2.001   2.033
89254SOL     OW69593   0.998   6.023  12.790
89254SOL    HW169594   1.045   5.948  12.826
89254SOL    HW269595   1.006   6.091  12.856
89255SOL     OW69596   4.774  11.650  11.822
89255SOL    HW169597   4.815  11.566  11.806
89255SOL    HW269598   4.714  11.663  11.748
89256SOL     OW69599   9.577  10.602  11.092
89256SOL    HW169600   9.625  10.643  11.020
89256SOL    HW269601   9.572  10.509  11.067
89257SOL     OW69602  13.481  11.839  10.061
89257SOL    HW169603  13.545  11.775  10.028
89257SOL    HW269604  13.531  11.891  10.125
89258SOL     OW69605   8.959   3.687   1.372
89258SOL    HW169606   8.907   3.607   1.370
89258SOL    HW269607   8.906   3.751   1.324
89259SOL     OW69608  12.207   3.569   8.625
89259SOL    HW169609  12.211   3.515   8.546
89259SOL    HW269610  12.180   3.656   8.594
89260SOL     OW69611   4.248  14.339  10.881
89260SOL    HW169612   4.310  14.313  10.812
89260SOL    HW269613   4.248  14.265  10.942
89261SOL     OW69614  12.877  14.513   6.588
89261SOL    HW169615  12.915  14.600   6.599
89261SOL    HW269616  12.864  14.480   6.678
89262SOL     OW69617   7.669   8.351  10.152
89262SOL    HW169618   7.629   8.318  10.071
89262SOL    HW269619   7.763   8.349  10.134
89263SOL     OW69620  11.396   6.533   1.641
89263SOL    HW169621  11.401   6.520   1.736
89263SOL    HW269622  11.395   6.628   1.630
89264SOL     OW69623  10.677   5.208  13.587
89264SOL    HW169624  10.671   5.114  13.575
89264SOL    HW269625  10.603   5.244  13.538
89265SOL     OW69626  14.704   2.418  14.014
89265SOL    HW169627  14.659   2.334  14.025
89265SOL    HW269628  14.649   2.482  14.058
89266SOL     OW69629   5.749   1.742   2.169
89266SOL    HW169630   5.815   1.704   2.112
89266SOL    HW269631   5.705   1.667   2.210
89267SOL     OW69632  13.578  12.290  12.566
89267SOL    HW169633  13.565  12.244  12.483
89267SOL    HW269634  13.588  12.382  12.542
89268SOL     OW69635   0.976   3.688   1.290
89268SOL    HW169636   0.928   3.665   1.211
89268SOL    HW269637   1.000   3.780   1.278
89269SOL     OW69638  11.518   3.645   1.905
89269SOL    HW169639  11.459   3.572   1.923
89269SOL    HW269640  11.475   3.693   1.834
89270SOL     OW69641   5.138   8.777  10.463
89270SOL    HW169642   5.070   8.716  10.435
89270SOL    HW269643   5.108   8.809  10.548
89271SOL     OW69644   2.162  14.559   1.481
89271SOL    HW169645   2.125  14.641   1.448
89271SOL    HW269646   2.125  14.549   1.569
89272SOL     OW69647   8.024   1.198   1.875
89272SOL    HW169648   8.030   1.291   1.897
89272SOL    HW269649   8.058   1.153   1.952
89273SOL     OW69650   5.664   3.105   9.342
89273SOL    HW169651   5.665   3.092   9.437
89273SOL    HW269652   5.572   3.125   9.322
89274SOL     OW69653   9.084   2.707   7.682
89274SOL    HW169654   9.169   2.750   7.669
89274SOL    HW269655   9.033   2.730   7.605
89275SOL     OW69656   9.990   4.678   7.615
89275SOL    HW169657   9.916   4.722   7.575
89275SOL    HW269658   9.964   4.586   7.622
89276SOL     OW69659  11.292  14.462  13.408
89276SOL    HW169660  11.245  14.507  13.338
89276SOL    HW269661  11.360  14.525  13.434
89277SOL     OW69662   5.039  13.012  13.100
89277SOL    HW169663   4.997  12.926  13.108
89277SOL    HW269664   5.098  13.017  13.175
89278SOL     OW69665   6.647  12.754  13.211
89278SOL    HW169666   6.616  12.689  13.274
89278SOL    HW269667   6.684  12.703  13.139
89279SOL     OW69668   5.660   1.000   4.157
89279SOL    HW169669   5.729   1.017   4.092
89279SOL    HW269670   5.704   0.949   4.225
89280SOL     OW69671   2.374   8.935   7.480
89280SOL    HW169672   2.348   9.027   7.468
89280SOL    HW269673   2.306   8.899   7.536
89281SOL     OW69674  14.223   5.038   0.705
89281SOL    HW169675  14.230   5.114   0.762
89281SOL    HW269676  14.154   5.061   0.642
89282SOL     OW69677   2.634  14.331  12.234
89282SOL    HW169678   2.552  14.340  12.281
89282SOL    HW269679   2.670  14.420  12.230
89283SOL     OW69680   6.835   2.559  13.600
89283SOL    HW169681   6.883   2.600  13.673
89283SOL    HW269682   6.762   2.619  13.584
89284SOL     OW69683  12.465   8.221   2.794
89284SOL    HW169684  12.490   8.273   2.718
89284SOL    HW269685  12.529   8.245   2.861
89285SOL     OW69686   7.375   5.411   1.819
89285SOL    HW169687   7.317   5.419   1.895
89285SOL    HW269688   7.382   5.317   1.804
89286SOL     OW69689  10.138   6.983   6.613
89286SOL    HW169690  10.136   6.942   6.527
89286SOL    HW269691  10.226   6.964   6.646
89287SOL     OW69692   0.829  14.261   9.393
89287SOL    HW169693   0.842  14.331   9.458
89287SOL    HW269694   0.877  14.186   9.430
89288SOL     OW69695   3.759   8.376  10.155
89288SOL    HW169696   3.697   8.307  10.135
89288SOL    HW269697   3.748   8.440  10.084
89289SOL     OW69698   3.774   5.013  11.943
89289SOL    HW169699   3.851   4.995  11.997
89289SOL    HW269700   3.807   5.070  11.873
89290SOL     OW69701   9.831  11.687  13.818
89290SOL    HW169702   9.767  11.757  13.831
89290SOL    HW269703   9.799  11.616  13.874
89291SOL     OW69704  10.242   7.259   6.365
89291SOL    HW169705  10.331   7.264   6.398
89291SOL    HW269706  10.187   7.266   6.443
89292SOL     OW69707  12.718  12.282   1.006
89292SOL    HW169708  12.791  12.342   1.025
89292SOL    HW269709  12.715  12.223   1.081
89293SOL     OW69710  10.482  14.610   9.588
89293SOL    HW169711  10.389  14.586   9.586
89293SOL    HW269712  10.482  14.705   9.579
89294SOL     OW69713   7.319   4.242   7.222
89294SOL    HW169714   7.280   4.161   7.189
89294SOL    HW269715   7.245   4.302   7.233
89295SOL     OW69716  10.835   6.598  10.102
89295SOL    HW169717  10.922   6.590  10.063
89295SOL    HW269718  10.849   6.577  10.195
89296SOL     OW69719  13.266  12.598   1.607
89296SOL    HW169720  13.347  12.645   1.628
89296SOL    HW269721  13.225  12.581   1.692
89297SOL     OW69722  10.306   1.065  11.594
89297SOL    HW169723  10.291   1.057  11.500
89297SOL    HW269724  10.377   1.003  11.612
89298SOL     OW69725   8.882   8.251  10.395
89298SOL    HW169726   8.870   8.157  10.407
89298SOL    HW269727   8.794   8.288  10.397
89299SOL     OW69728   5.950  11.741   8.261
89299SOL    HW169729   5.948  11.709   8.352
89299SOL    HW269730   6.022  11.692   8.221
89300SOL     OW69731  13.675   8.107   7.558
89300SOL    HW169732  13.656   8.155   7.638
89300SOL    HW269733  13.603   8.045   7.549
89301SOL     OW69734  11.178  14.501   6.139
89301SOL    HW169735  11.257  14.543   6.105
89301SOL    HW269736  11.126  14.480   6.061
89302SOL     OW69737   6.931   6.619   9.284
89302SOL    HW169738   6.845   6.625   9.243
89302SOL    HW269739   6.936   6.696   9.341
89303SOL     OW69740   0.942   6.926   3.666
89303SOL    HW169741   0.911   6.913   3.756
89303SOL    HW269742   0.907   6.852   3.617
89304SOL     OW69743  14.231   4.893   3.881
89304SOL    HW169744  14.235   4.977   3.835
89304SOL    HW269745  14.154   4.849   3.844
89305SOL     OW69746   1.616  11.391   4.064
89305SOL    HW169747   1.551  11.362   4.127
89305SOL    HW269748   1.579  11.470   4.024
89306SOL     OW69749  11.216   9.615   2.646
89306SOL    HW169750  11.147   9.653   2.592
89306SOL    HW269751  11.228   9.527   2.612
89307SOL     OW69752   6.582   1.258   6.299
89307SOL    HW169753   6.584   1.340   6.251
89307SOL    HW269754   6.633   1.197   6.245
89308SOL     OW69755  11.931  12.882   0.097
89308SOL    HW169756  12.009  12.932   0.072
89308SOL    HW269757  11.858  12.942   0.080
89309SOL     OW69758   8.280  12.853   2.549
89309SOL    HW169759   8.265  12.894   2.633
89309SOL    HW269760   8.197  12.862   2.502
89310SOL     OW69761  10.667  14.381   4.358
89310SOL    HW169762  10.591  14.356   4.411
89310SOL    HW269763  10.724  14.427   4.420
89311SOL     OW69764  11.267  13.059   8.648
89311SOL    HW169765  11.309  13.045   8.733
89311SOL    HW269766  11.332  13.108   8.598
89312SOL     OW69767   4.504   1.686  12.915
89312SOL    HW169768   4.548   1.612  12.872
89312SOL    HW269769   4.441   1.717  12.851
89313SOL     OW69770  11.154  13.193  10.989
89313SOL    HW169771  11.239  13.203  10.947
89313SOL    HW269772  11.114  13.280  10.984
89314SOL     OW69773   5.832   8.724   0.922
89314SOL    HW169774   5.852   8.786   0.852
89314SOL    HW269775   5.797   8.779   0.992
89315SOL     OW69776  10.691  13.523   9.319
89315SOL    HW169777  10.721  13.433   9.304
89315SOL    HW269778  10.596  13.519   9.309
89316SOL     OW69779   8.985  12.767   7.070
89316SOL    HW169780   8.955  12.680   7.044
89316SOL    HW269781   8.998  12.814   6.987
89317SOL     OW69782   0.583  11.811   8.018
89317SOL    HW169783   0.655  11.793   8.079
89317SOL    HW269784   0.624  11.859   7.947
89318SOL     OW69785   6.704   5.855   9.662
89318SOL    HW169786   6.769   5.809   9.715
89318SOL    HW269787   6.648   5.899   9.725
89319SOL     OW69788   4.076  13.551  13.864
89319SOL    HW169789   3.996  13.601  13.852
89319SOL    HW269790   4.061  13.498  13.942
89320SOL     OW69791  12.850   0.016   6.833
89320SOL    HW169792  12.802   0.097   6.816
89320SOL    HW269793  12.788  14.822   6.816
89321SOL     OW69794  13.422   6.648   2.365
89321SOL    HW169795  13.450   6.700   2.440
89321SOL    HW269796  13.463   6.562   2.379
89322SOL     OW69797   1.000   8.447   7.815
89322SOL    HW169798   1.028   8.360   7.844
89322SOL    HW269799   0.938   8.475   7.882
89323SOL     OW69800   3.596   6.208   9.194
89323SOL    HW169801   3.532   6.279   9.193
89323SOL    HW269802   3.624   6.198   9.103
89324SOL     OW69803  12.381   3.098   0.587
89324SOL    HW169804  12.461   3.062   0.549
89324SOL    HW269805  12.314   3.083   0.520
89325SOL     OW69806   8.121   5.310   4.278
89325SOL    HW169807   8.034   5.332   4.245
89325SOL    HW269808   8.175   5.302   4.199
89326SOL     OW69809   0.600   2.391   0.926
89326SOL    HW169810   0.669   2.456   0.937
89326SOL    HW269811   0.610   2.331   1.000
89327SOL     OW69812   0.865  10.249   0.754
89327SOL    HW169813   0.811  10.255   0.832
89327SOL    HW269814   0.806  10.219   0.685
89328SOL     OW69815   9.548  14.062   4.501
89328SOL    HW169816   9.623  14.058   4.561
89328SOL    HW269817   9.531  14.156   4.490
89329SOL     OW69818  11.594  13.572   0.477
89329SOL    HW169819  11.591  13.660   0.439
89329SOL    HW269820  11.508  13.534   0.457
89330SOL     OW69821  11.467   0.948   9.303
89330SOL    HW169822  11.505   0.879   9.248
89330SOL    HW269823  11.373   0.943   9.286
89331SOL     OW69824  10.262  12.565   6.927
89331SOL    HW169825  10.307  12.587   6.845
89331SOL    HW269826  10.192  12.506   6.901
89332SOL     OW69827  13.148   4.268  13.420
89332SOL    HW169828  13.092   4.191  13.428
89332SOL    HW269829  13.156   4.282  13.326
89333SOL     OW69830   3.295   2.974   7.619
89333SOL    HW169831   3.365   3.014   7.671
89333SOL    HW269832   3.319   2.882   7.613
89334SOL     OW69833  11.539   5.561   1.569
89334SOL    HW169834  11.615   5.519   1.530
89334SOL    HW269835  11.479   5.489   1.590
89335SOL     OW69836   5.811   9.380  11.557
89335SOL    HW169837   5.841   9.291  11.574
89335SOL    HW269838   5.791   9.416  11.644
89336SOL     OW69839   0.071   4.248   7.454
89336SOL    HW169840   0.058   4.244   7.360
89336SOL    HW269841   0.022   4.174   7.489
89337SOL     OW69842   9.318   6.213   8.493
89337SOL    HW169843   9.264   6.136   8.476
89337SOL    HW269844   9.389   6.180   8.548
89338SOL     OW69845  11.373   5.839  11.783
89338SOL    HW169846  11.303   5.871  11.840
89338SOL    HW269847  11.329   5.817  11.701
89339SOL     OW69848   2.925   7.431   8.918
89339SOL    HW169849   2.915   7.410   8.825
89339SOL    HW269850   2.940   7.347   8.960
89340SOL     OW69851   5.979  13.681   6.188
89340SOL    HW169852   6.031  13.727   6.122
89340SOL    HW269853   5.939  13.609   6.139
89341SOL     OW69854  13.435   9.839   2.059
89341SOL    HW169855  13.525   9.820   2.035
89341SOL    HW269856  13.409   9.911   2.000
89342SOL     OW69857  12.051   8.011  10.728
89342SOL    HW169858  12.145   8.032  10.723
89342SOL    HW269859  12.033   7.963  10.647
89343SOL     OW69860  11.984  13.908   0.473
89343SOL    HW169861  12.077  13.926   0.457
89343SOL    HW269862  11.945  13.905   0.386
89344SOL     OW69863  13.035  12.227  11.294
89344SOL    HW169864  12.993  12.151  11.254
89344SOL    HW269865  12.963  12.286  11.315
89345SOL     OW69866   8.951   3.304  14.744
89345SOL    HW169867   8.871   3.251  14.743
89345SOL    HW269868   8.941   3.365  14.671
89346SOL     OW69869   6.729   5.641   9.979
89346SOL    HW169870   6.664   5.705  10.009
89346SOL    HW269871   6.784   5.690   9.919
89347SOL     OW69872   9.448  14.583  10.436
89347SOL    HW169873   9.537  14.548  10.442
89347SOL    HW269874   9.435  14.598  10.342
89348SOL     OW69875   2.501  11.130   4.676
89348SOL    HW169876   2.592  11.151   4.694
89348SOL    HW269877   2.492  11.038   4.700
89349SOL     OW69878   3.157   4.504  12.959
89349SOL    HW169879   3.106   4.493  12.879
89349SOL    HW269880   3.183   4.596  12.958
89350SOL     OW69881   9.454   4.976  11.495
89350SOL    HW169882   9.456   4.910  11.564
89350SOL    HW269883   9.370   4.962  11.451
89351SOL     OW69884   3.417   0.192  10.140
89351SOL    HW169885   3.337   0.208  10.090
89351SOL    HW269886   3.410   0.251  10.215
89352SOL     OW69887  14.447   3.947   1.965
89352SOL    HW169888  14.356   3.974   1.972
89352SOL    HW269889  14.459   3.882   2.034
89353SOL     OW69890   6.329  12.341   1.706
89353SOL    HW169891   6.317  12.433   1.730
89353SOL    HW269892   6.377  12.345   1.623
89354SOL     OW69893   9.183   0.402   1.817
89354SOL    HW169894   9.267   0.414   1.773
89354SOL    HW269895   9.127   0.470   1.781
89355SOL     OW69896   4.680   4.643   2.774
89355SOL    HW169897   4.672   4.548   2.777
89355SOL    HW269898   4.716   4.662   2.688
89356SOL     OW69899   5.043  13.751   5.186
89356SOL    HW169900   5.099  13.744   5.108
89356SOL    HW269901   4.988  13.673   5.183
89357SOL     OW69902  14.704   3.751   4.440
89357SOL    HW169903  14.700   3.845   4.459
89357SOL    HW269904  14.630   3.735   4.383
89358SOL     OW69905   2.524   9.682   5.796
89358SOL    HW169906   2.498   9.763   5.750
89358SOL    HW269907   2.452   9.665   5.857
89359SOL     OW69908   3.470   6.164   8.601
89359SOL    HW169909   3.434   6.081   8.571
89359SOL    HW269910   3.422   6.183   8.682
89360SOL     OW69911   2.461   8.928   9.499
89360SOL    HW169912   2.494   8.912   9.587
89360SOL    HW269913   2.538   8.925   9.443
89361SOL     OW69914   2.897   0.664  13.248
89361SOL    HW169915   2.841   0.735  13.214
89361SOL    HW269916   2.852   0.584  13.221
89362SOL     OW69917   9.100   5.872   1.033
89362SOL    HW169918   9.174   5.841   0.981
89362SOL    HW269919   9.138   5.900   1.116
89363SOL     OW69920  10.128   3.738  14.643
89363SOL    HW169921  10.147   3.661  14.591
89363SOL    HW269922  10.203   3.747  14.702
89364SOL     OW69923  10.725   9.603   2.479
89364SOL    HW169924  10.638   9.641   2.495
89364SOL    HW269925  10.708   9.511   2.459
89365SOL     OW69926  12.491   0.472   1.692
89365SOL    HW169927  12.462   0.560   1.665
89365SOL    HW269928  12.491   0.421   1.612
89366SOL     OW69929  11.523   2.625  12.534
89366SOL    HW169930  11.465   2.679  12.480
89366SOL    HW269931  11.464   2.569  12.585
89367SOL     OW69932  10.261   7.009   1.578
89367SOL    HW169933  10.293   6.992   1.490
89367SOL    HW269934  10.166   6.998   1.572
89368SOL     OW69935   4.524   6.933   2.593
89368SOL    HW169936   4.515   6.839   2.575
89368SOL    HW269937   4.618   6.948   2.601
89369SOL     OW69938   4.336   8.370   2.466
89369SOL    HW169939   4.384   8.446   2.501
89369SOL    HW269940   4.272   8.408   2.407
89370SOL     OW69941  13.708   3.654  10.286
89370SOL    HW169942  13.669   3.623  10.204
89370SOL    HW269943  13.652   3.615  10.354
89371SOL     OW69944   8.351  12.167   1.222
89371SOL    HW169945   8.340  12.079   1.184
89371SOL    HW269946   8.318  12.226   1.154
89372SOL     OW69947  11.218   7.059   5.676
89372SOL    HW169948  11.227   7.074   5.771
89372SOL    HW269949  11.297   7.098   5.638
89373SOL     OW69950  13.848   7.404   8.770
89373SOL    HW169951  13.826   7.415   8.862
89373SOL    HW269952  13.765   7.413   8.724
89374SOL     OW69953   3.224   7.767   9.314
89374SOL    HW169954   3.254   7.722   9.235
89374SOL    HW269955   3.195   7.853   9.283
89375SOL     OW69956  14.182   3.798   7.991
89375SOL    HW169957  14.094   3.766   8.008
89375SOL    HW269958  14.188   3.803   7.896
89376SOL     OW69959   2.151  10.027   0.741
89376SOL    HW169960   2.055  10.025   0.730
89376SOL    HW269961   2.165  10.070   0.825
89377SOL     OW69962  14.625   1.971   8.455
89377SOL    HW169963  14.706   1.966   8.506
89377SOL    HW269964  14.556   1.960   8.520
89378SOL     OW69965   0.726   3.712   0.684
89378SOL    HW169966   0.724   3.794   0.635
89378SOL    HW269967   0.700   3.645   0.621
89379SOL     OW69968  11.413   4.211   0.875
89379SOL    HW169969  11.344   4.194   0.811
89379SOL    HW269970  11.485   4.247   0.824
89380SOL     OW69971   9.851   9.382  11.204
89380SOL    HW169972   9.937   9.381  11.247
89380SOL    HW269973   9.820   9.472  11.216
89381SOL     OW69974   9.833   3.650  11.843
89381SOL    HW169975   9.833   3.555  11.859
89381SOL    HW269976   9.772   3.685  11.907
89382SOL     OW69977  10.222   3.517  11.310
89382SOL    HW169978  10.281   3.456  11.265
89382SOL    HW269979  10.135   3.497  11.274
89383SOL     OW69980   0.029   7.650  10.337
89383SOL    HW169981   0.102   7.606  10.380
89383SOL    HW269982  14.840   7.581  10.323
89384SOL     OW69983   0.448   1.277   9.219
89384SOL    HW169984   0.519   1.268   9.156
89384SOL    HW269985   0.377   1.224   9.184
89385SOL     OW69986   6.199   6.565   8.864
89385SOL    HW169987   6.288   6.597   8.870
89385SOL    HW269988   6.176   6.574   8.771
89386SOL     OW69989  13.467   5.346   4.171
89386SOL    HW169990  13.518   5.302   4.102
89386SOL    HW269991  13.511   5.322   4.252
89387SOL     OW69992   2.628  14.800   0.350
89387SOL    HW169993   2.538  14.825   0.373
89387SOL    HW269994   2.642  14.717   0.396
89388SOL     OW69995  13.624   1.577   6.764
89388SOL    HW169996  13.654   1.667   6.777
89388SOL    HW269997  13.667   1.549   6.684
89389SOL     OW69998   5.750   5.530   7.689
89389SOL    HW169999   5.825   5.481   7.658
89389SOL    HW270000   5.759   5.531   7.785
89390SOL     OW70001   3.873   5.180   9.174
89390SOL    HW170002   3.963   5.211   9.168
89390SOL    HW270003   3.880   5.093   9.214
89391SOL     OW70004  11.615   5.378   8.007
89391SOL    HW170005  11.589   5.394   7.916
89391SOL    HW270006  11.618   5.465   8.047
89392SOL     OW70007   1.385   4.973   9.324
89392SOL    HW170008   1.453   4.908   9.303
89392SOL    HW270009   1.394   4.987   9.418
89393SOL     OW70010  11.998   5.718   2.413
89393SOL    HW170011  12.050   5.746   2.338
89393SOL    HW270012  12.055   5.730   2.489
89394SOL     OW70013   8.317   2.195   3.297
89394SOL    HW170014   8.321   2.100   3.307
89394SOL    HW270015   8.407   2.220   3.278
89395SOL     OW70016   7.285  14.308   5.316
89395SOL    HW170017   7.348  14.379   5.303
89395SOL    HW270018   7.322  14.233   5.271
89396SOL     OW70019   8.069  10.683   1.795
89396SOL    HW170020   8.067  10.776   1.775
89396SOL    HW270021   8.119  10.644   1.724
89397SOL     OW70022  10.607   7.938  12.264
89397SOL    HW170023  10.610   7.903  12.354
89397SOL    HW270024  10.514   7.937  12.241
89398SOL     OW70025   6.029  10.032  12.667
89398SOL    HW170026   6.064  10.079  12.743
89398SOL    HW270027   5.965   9.971  12.703
89399SOL     OW70028  13.348   4.114  12.949
89399SOL    HW170029  13.279   4.153  12.895
89399SOL    HW270030  13.429   4.154  12.917
89400SOL     OW70031   2.728   3.184   2.438
89400SOL    HW170032   2.749   3.260   2.383
89400SOL    HW270033   2.640   3.158   2.411
89401SOL     OW70034  14.838   8.759   7.087
89401SOL    HW170035  14.844   8.665   7.072
89401SOL    HW270036   0.052   8.790   7.075
89402SOL     OW70037   5.468  12.847  13.059
89402SOL    HW170038   5.520  12.777  13.097
89402SOL    HW270039   5.454  12.821  12.968
89403SOL     OW70040   9.457   1.467  14.792
89403SOL    HW170041   9.453   1.462   0.012
89403SOL    HW270042   9.366   1.468  14.764
89404SOL     OW70043   0.380  10.778   4.838
89404SOL    HW170044   0.420  10.850   4.789
89404SOL    HW270045   0.417  10.699   4.799
89405SOL     OW70046  14.521   1.639   7.048
89405SOL    HW170047  14.519   1.645   7.143
89405SOL    HW270048  14.501   1.547   7.029
89406SOL     OW70049   6.742   9.114  14.185
89406SOL    HW170050   6.712   9.026  14.160
89406SOL    HW270051   6.802   9.140  14.116
89407SOL     OW70052   3.703  13.894  14.764
89407SOL    HW170053   3.691  13.823  14.827
89407SOL    HW270054   3.633  13.957  14.785
89408SOL     OW70055  14.692   1.478  10.847
89408SOL    HW170056  14.716   1.548  10.908
89408SOL    HW270057  14.725   1.398  10.888
89409SOL     OW70058  14.666  13.476  11.911
89409SOL    HW170059  14.737  13.536  11.936
89409SOL    HW270060  14.707  13.389  11.912
89410SOL     OW70061   1.811   1.218  11.981
89410SOL    HW170062   1.882   1.155  11.982
89410SOL    HW270063   1.733   1.167  12.003
89411SOL     OW70064   9.415   0.013   7.901
89411SOL    HW170065   9.426  14.842   7.983
89411SOL    HW270066   9.466  14.839   7.837
89412SOL     OW70067   1.278   8.285   1.897
89412SOL    HW170068   1.239   8.202   1.871
89412SOL    HW270069   1.332   8.263   1.973
89413SOL     OW70070   4.378   0.205   6.590
89413SOL    HW170071   4.307   0.247   6.638
89413SOL    HW270072   4.450   0.268   6.594
89414SOL     OW70073   9.244   7.887  14.244
89414SOL    HW170074   9.270   7.869  14.334
89414SOL    HW270075   9.149   7.896  14.247
89415SOL     OW70076   9.241   0.676   3.418
89415SOL    HW170077   9.279   0.762   3.436
89415SOL    HW270078   9.284   0.618   3.480
89416SOL     OW70079   6.775   0.686   5.801
89416SOL    HW170080   6.697   0.691   5.746
89416SOL    HW270081   6.788   0.593   5.816
89417SOL     OW70082   7.110  11.217  13.010
89417SOL    HW170083   7.188  11.246  13.057
89417SOL    HW270084   7.047  11.197  13.078
89418SOL     OW70085  11.959   7.736   5.934
89418SOL    HW170086  11.906   7.658   5.947
89418SOL    HW270087  11.924   7.800   5.996
89419SOL     OW70088  13.668   0.500   4.308
89419SOL    HW170089  13.657   0.450   4.227
89419SOL    HW270090  13.658   0.592   4.282
89420SOL     OW70091  14.225   9.785   2.530
89420SOL    HW170092  14.227   9.863   2.475
89420SOL    HW270093  14.154   9.732   2.495
89421SOL     OW70094   2.417  10.591   8.246
89421SOL    HW170095   2.440  10.516   8.189
89421SOL    HW270096   2.438  10.561   8.334
89422SOL     OW70097  11.790  10.196   5.999
89422SOL    HW170098  11.771  10.215   5.907
89422SOL    HW270099  11.837  10.113   5.997
89423SOL     OW70100  11.953  10.920   4.558
89423SOL    HW170101  11.907  10.880   4.633
89423SOL    HW270102  12.023  10.971   4.598
89424SOL     OW70103   8.772   3.595   6.418
89424SOL    HW170104   8.707   3.655   6.380
89424SOL    HW270105   8.759   3.513   6.371
89425SOL     OW70106   5.016  12.799  13.740
89425SOL    HW170107   5.089  12.850  13.775
89425SOL    HW270108   4.939  12.834  13.785
89426SOL     OW70109  11.474   9.568  10.973
89426SOL    HW170110  11.439   9.634  11.032
89426SOL    HW270111  11.522   9.508  11.030
89427SOL     OW70112   6.413  13.697   2.094
89427SOL    HW170113   6.318  13.687   2.096
89427SOL    HW270114   6.431  13.738   2.009
89428SOL     OW70115  12.501   6.634   3.792
89428SOL    HW170116  12.497   6.595   3.705
89428SOL    HW270117  12.423   6.690   3.797
89429SOL     OW70118   7.530   7.625   0.220
89429SOL    HW170119   7.544   7.693   0.286
89429SOL    HW270120   7.442   7.641   0.186
89430SOL     OW70121   6.500  11.581   7.836
89430SOL    HW170122   6.499  11.610   7.745
89430SOL    HW270123   6.555  11.645   7.881
89431SOL     OW70124   5.336   4.628  11.500
89431SOL    HW170125   5.261   4.576  11.472
89431SOL    HW270126   5.348   4.693  11.430
89432SOL     OW70127   1.904   9.273  14.396
89432SOL    HW170128   1.961   9.254  14.321
89432SOL    HW270129   1.867   9.188  14.420
89433SOL     OW70130  12.743   3.717   2.954
89433SOL    HW170131  12.739   3.807   2.986
89433SOL    HW270132  12.761   3.665   3.032
89434SOL     OW70133   2.844   4.473  14.854
89434SOL    HW170134   2.774   4.466   0.044
89434SOL    HW270135   2.922   4.443   0.024
89435SOL     OW70136   8.799   8.974   4.114
89435SOL    HW170137   8.874   8.999   4.168
89435SOL    HW270138   8.753   9.057   4.097
89436SOL     OW70139   7.893  12.550   8.607
89436SOL    HW170140   7.848  12.514   8.684
89436SOL    HW270141   7.897  12.477   8.546
89437SOL     OW70142   5.938   2.146  11.238
89437SOL    HW170143   5.853   2.188  11.225
89437SOL    HW270144   5.986   2.163  11.157
89438SOL     OW70145  12.549   9.635   3.871
89438SOL    HW170146  12.485   9.641   3.800
89438SOL    HW270147  12.624   9.685   3.840
89439SOL     OW70148   3.063  13.767   1.345
89439SOL    HW170149   3.120  13.746   1.270
89439SOL    HW270150   2.998  13.698   1.346
89440SOL     OW70151   4.119  12.383   9.724
89440SOL    HW170152   4.093  12.423   9.807
89440SOL    HW270153   4.088  12.293   9.730
89441SOL     OW70154   8.675   6.791  14.737
89441SOL    HW170155   8.699   6.801  14.829
89441SOL    HW270156   8.743   6.837  14.689
89442SOL     OW70157   9.621  14.068  14.673
89442SOL    HW170158   9.686  14.133  14.698
89442SOL    HW270159   9.537  14.110  14.689
89443SOL     OW70160   4.994   1.434   7.574
89443SOL    HW170161   5.055   1.449   7.646
89443SOL    HW270162   4.979   1.520   7.536
89444SOL     OW70163  11.642   9.666   7.496
89444SOL    HW170164  11.667   9.739   7.552
89444SOL    HW270165  11.603   9.707   7.419
89445SOL     OW70166   5.233   9.467   2.667
89445SOL    HW170167   5.270   9.389   2.710
89445SOL    HW270168   5.141   9.444   2.652
89446SOL     OW70169   2.446   0.694  10.084
89446SOL    HW170170   2.425   0.777  10.127
89446SOL    HW270171   2.369   0.639  10.102
89447SOL     OW70172  14.337  12.888   1.867
89447SOL    HW170173  14.377  12.812   1.826
89447SOL    HW270174  14.397  12.960   1.848
89448SOL     OW70175   5.235  11.738  14.501
89448SOL    HW170176   5.156  11.754  14.448
89448SOL    HW270177   5.306  11.732  14.437
89449SOL     OW70178   6.552  10.344   3.221
89449SOL    HW170179   6.496  10.345   3.299
89449SOL    HW270180   6.492  10.323   3.149
89450SOL     OW70181  14.111   3.576  14.743
89450SOL    HW170182  14.157   3.638  14.687
89450SOL    HW270183  14.066   3.517  14.682
89451SOL     OW70184   9.493  12.363  10.507
89451SOL    HW170185   9.458  12.396  10.590
89451SOL    HW270186   9.579  12.327  10.530
89452SOL     OW70187   7.860   4.194   8.726
89452SOL    HW170188   7.877   4.226   8.637
89452SOL    HW270189   7.781   4.240   8.753
89453SOL     OW70190  10.645   9.263   4.834
89453SOL    HW170191  10.649   9.206   4.911
89453SOL    HW270192  10.688   9.212   4.765
89454SOL     OW70193   8.882   6.210   2.135
89454SOL    HW170194   8.835   6.229   2.054
89454SOL    HW270195   8.863   6.284   2.192
89455SOL     OW70196   8.519   9.199  12.639
89455SOL    HW170197   8.567   9.281  12.636
89455SOL    HW270198   8.428   9.224  12.621
89456SOL     OW70199   9.744   2.500  12.668
89456SOL    HW170200   9.685   2.546  12.728
89456SOL    HW270201   9.688   2.473  12.595
89457SOL     OW70202  12.657   3.436  11.194
89457SOL    HW170203  12.725   3.371  11.177
89457SOL    HW270204  12.624   3.414  11.281
89458SOL     OW70205   8.595  13.331   4.123
89458SOL    HW170206   8.659  13.401   4.130
89458SOL    HW270207   8.516  13.366   4.165
89459SOL     OW70208   2.028  14.708   4.660
89459SOL    HW170209   1.996  14.787   4.617
89459SOL    HW270210   2.122  14.708   4.641
89460SOL     OW70211  12.337   1.523  13.455
89460SOL    HW170212  12.364   1.600  13.505
89460SOL    HW270213  12.268   1.554  13.397
89461SOL     OW70214   0.229   0.857  12.005
89461SOL    HW170215   0.240   0.819  11.918
89461SOL    HW270216   0.136   0.874  12.013
89462SOL     OW70217   2.416  14.004   2.088
89462SOL    HW170218   2.428  13.949   2.165
89462SOL    HW270219   2.499  14.049   2.076
89463SOL     OW70220   4.918   7.973   1.571
89463SOL    HW170221   4.826   7.950   1.567
89463SOL    HW270222   4.942   7.992   1.480
89464SOL     OW70223   4.612  14.192   2.178
89464SOL    HW170224   4.566  14.270   2.207
89464SOL    HW270225   4.563  14.119   2.217
89465SOL     OW70226  12.541  10.267  13.447
89465SOL    HW170227  12.487  10.281  13.525
89465SOL    HW270228  12.569  10.176  13.453
89466SOL     OW70229  11.870   3.624  13.113
89466SOL    HW170230  11.860   3.674  13.032
89466SOL    HW270231  11.919   3.682  13.171
89467SOL     OW70232   2.757  12.617   5.664
89467SOL    HW170233   2.714  12.597   5.581
89467SOL    HW270234   2.797  12.703   5.651
89468SOL     OW70235   5.947   5.451   2.558
89468SOL    HW170236   5.912   5.366   2.585
89468SOL    HW270237   5.879   5.514   2.582
89469SOL     OW70238  10.700  13.905   2.225
89469SOL    HW170239  10.640  13.944   2.288
89469SOL    HW270240  10.718  13.818   2.260
89470SOL     OW70241  12.979   2.426   3.470
89470SOL    HW170242  13.029   2.507   3.462
89470SOL    HW270243  12.991   2.381   3.387
89471SOL     OW70244   7.976   9.363   6.011
89471SOL    HW170245   7.910   9.390   6.076
89471SOL    HW270246   7.926   9.344   5.932
89472SOL     OW70247   8.524   3.517   8.322
89472SOL    HW170248   8.548   3.509   8.230
89472SOL    HW270249   8.592   3.572   8.360
89473SOL     OW70250  10.835   2.851   7.499
89473SOL    HW170251  10.836   2.902   7.418
89473SOL    HW270252  10.927   2.846   7.525
89474SOL     OW70253  14.467   2.630   5.335
89474SOL    HW170254  14.482   2.558   5.273
89474SOL    HW270255  14.390   2.602   5.386
89475SOL     OW70256  10.910   2.669   9.566
89475SOL    HW170257  10.985   2.680   9.507
89475SOL    HW270258  10.858   2.600   9.525
89476SOL     OW70259  10.130   8.274   2.524
89476SOL    HW170260  10.213   8.236   2.553
89476SOL    HW270261  10.141   8.368   2.540
89477SOL     OW70262   7.248   7.273  13.837
89477SOL    HW170263   7.198   7.290  13.757
89477SOL    HW270264   7.190   7.217  13.889
89478SOL     OW70265   7.808  11.773   3.221
89478SOL    HW170266   7.883  11.761   3.163
89478SOL    HW270267   7.845  11.804   3.303
89479SOL     OW70268   3.434   4.401  10.784
89479SOL    HW170269   3.528   4.385  10.792
89479SOL    HW270270   3.413   4.456  10.860
89480SOL     OW70271   4.075   6.657   6.734
89480SOL    HW170272   4.093   6.702   6.817
89480SOL    HW270273   4.159   6.653   6.690
89481SOL     OW70274  10.593   2.800   9.350
89481SOL    HW170275  10.541   2.881   9.348
89481SOL    HW270276  10.532   2.732   9.377
89482SOL     OW70277   0.203  10.260   8.435
89482SOL    HW170278   0.295  10.256   8.463
89482SOL    HW270279   0.155  10.215   8.505
89483SOL     OW70280   4.009  14.843   3.709
89483SOL    HW170281   3.949  14.871   3.641
89483SOL    HW270282   3.997  14.748   3.716
89484SOL     OW70283   4.664   1.208  11.644
89484SOL    HW170284   4.704   1.134  11.598
89484SOL    HW270285   4.604   1.168  11.706
89485SOL     OW70286  14.573  12.698   5.351
89485SOL    HW170287  14.588  12.628   5.288
89485SOL    HW270288  14.478  12.712   5.349
89486SOL     OW70289   6.969  14.282   1.225
89486SOL    HW170290   6.994  14.225   1.153
89486SOL    HW270291   7.050  14.326   1.251
89487SOL     OW70292   6.387   6.790  11.544
89487SOL    HW170293   6.403   6.782  11.638
89487SOL    HW270294   6.292   6.777  11.535
89488SOL     OW70295   7.576  10.770   0.039
89488SOL    HW170296   7.553  10.861   0.060
89488SOL    HW270297   7.512  10.744  14.849
89489SOL     OW70298   6.702   4.483  11.445
89489SOL    HW170299   6.637   4.549  11.470
89489SOL    HW270300   6.652   4.419  11.395
89490SOL     OW70301  13.060   2.701   0.121
89490SOL    HW170302  13.137   2.735   0.167
89490SOL    HW270303  13.000   2.775   0.116
89491SOL     OW70304   4.857  10.782   9.682
89491SOL    HW170305   4.807  10.825   9.611
89491SOL    HW270306   4.902  10.854   9.726
89492SOL     OW70307   7.493  10.611   0.917
89492SOL    HW170308   7.523  10.535   0.967
89492SOL    HW270309   7.556  10.619   0.845
89493SOL     OW70310   4.128   7.218  13.173
89493SOL    HW170311   4.178   7.166  13.236
89493SOL    HW270312   4.093   7.154  13.111
89494SOL     OW70313  12.547   5.660   7.544
89494SOL    HW170314  12.640   5.651   7.565
89494SOL    HW270315  12.542   5.641   7.450
89495SOL     OW70316   0.983   3.295   6.668
89495SOL    HW170317   0.952   3.347   6.593
89495SOL    HW270318   1.074   3.273   6.646
89496SOL     OW70319   3.621   9.334   3.401
89496SOL    HW170320   3.546   9.375   3.445
89496SOL    HW270321   3.693   9.395   3.415
89497SOL     OW70322  11.659   6.560   6.557
89497SOL    HW170323  11.662   6.487   6.619
89497SOL    HW270324  11.641   6.519   6.472
89498SOL     OW70325   8.314   6.740  10.219
89498SOL    HW170326   8.253   6.674  10.252
89498SOL    HW270327   8.323   6.803  10.290
89499SOL     OW70328   2.157   4.865   8.139
89499SOL    HW170329   2.079   4.813   8.120
89499SOL    HW270330   2.130   4.923   8.210
89500SOL     OW70331  12.243  11.359   7.320
89500SOL    HW170332  12.221  11.422   7.252
89500SOL    HW270333  12.247  11.411   7.401
89501SOL     OW70334   8.339   5.570   2.180
89501SOL    HW170335   8.323   5.496   2.122
89501SOL    HW270336   8.318   5.537   2.268
89502SOL     OW70337   7.750   0.057   2.588
89502SOL    HW170338   7.694  14.873   2.636
89502SOL    HW270339   7.835   0.052   2.633
89503SOL     OW70340   2.750   8.975  14.061
89503SOL    HW170341   2.839   9.009  14.066
89503SOL    HW270342   2.758   8.884  14.092
89504SOL     OW70343   4.990  12.458   2.038
89504SOL    HW170344   5.005  12.381   2.094
89504SOL    HW270345   4.896  12.457   2.020
89505SOL     OW70346   6.316   4.409   8.504
89505SOL    HW170347   6.400   4.363   8.507
89505SOL    HW270348   6.331   4.489   8.554
89506SOL     OW70349   2.141   9.054   4.167
89506SOL    HW170350   2.214   9.019   4.116
89506SOL    HW270351   2.140   9.148   4.146
89507SOL     OW70352   7.402   9.279   5.605
89507SOL    HW170353   7.312   9.302   5.582
89507SOL    HW270354   7.401   9.273   5.701
89508SOL     OW70355  11.499   9.958  12.020
89508SOL    HW170356  11.588   9.934  11.994
89508SOL    HW270357  11.454   9.973  11.936
89509SOL     OW70358  10.608   1.214  11.053
89509SOL    HW170359  10.577   1.156  11.122
89509SOL    HW270360  10.646   1.156  10.987
89510SOL     OW70361   7.995  13.145   4.937
89510SOL    HW170362   8.067  13.203   4.962
89510SOL    HW270363   7.957  13.187   4.860
89511SOL     OW70364  13.202   0.316  13.672
89511SOL    HW170365  13.244   0.311  13.758
89511SOL    HW270366  13.275   0.320  13.610
89512SOL     OW70367   2.956   1.808  11.667
89512SOL    HW170368   3.042   1.841  11.642
89512SOL    HW270369   2.970   1.769  11.753
89513SOL     OW70370   6.139  12.788   5.527
89513SOL    HW170371   6.045  12.801   5.514
89513SOL    HW270372   6.147  12.766   5.620
89514SOL     OW70373   1.141  10.689   6.805
89514SOL    HW170374   1.228  10.703   6.844
89514SOL    HW270375   1.152  10.714   6.714
89515SOL     OW70376  11.272   3.488  14.064
89515SOL    HW170377  11.260   3.425  14.135
89515SOL    HW270378  11.367   3.493  14.053
89516SOL     OW70379   1.343   9.433   2.651
89516SOL    HW170380   1.426   9.481   2.654
89516SOL    HW270381   1.277   9.497   2.678
89517SOL     OW70382  14.229   5.994   3.235
89517SOL    HW170383  14.246   5.901   3.253
89517SOL    HW270384  14.137   6.006   3.259
89518SOL     OW70385   8.693   6.983   4.534
89518SOL    HW170386   8.655   7.028   4.610
89518SOL    HW270387   8.748   7.049   4.492
89519SOL     OW70388   6.040   8.838   7.028
89519SOL    HW170389   6.082   8.798   6.952
89519SOL    HW270390   5.948   8.815   7.020
89520SOL     OW70391   3.481   1.268  13.047
89520SOL    HW170392   3.491   1.353  13.004
89520SOL    HW270393   3.389   1.246  13.035
89521SOL     OW70394   8.174   9.359   8.784
89521SOL    HW170395   8.102   9.323   8.733
89521SOL    HW270396   8.192   9.444   8.744
89522SOL     OW70397   4.093  14.522   5.104
89522SOL    HW170398   4.009  14.515   5.060
89522SOL    HW270399   4.136  14.597   5.062
89523SOL     OW70400   9.322   8.596   4.565
89523SOL    HW170401   9.259   8.635   4.505
89523SOL    HW270402   9.307   8.640   4.649
89524SOL     OW70403   5.792   9.618  14.728
89524SOL    HW170404   5.872   9.669  14.738
89524SOL    HW270405   5.799   9.548  14.793
89525SOL     OW70406   6.101   5.157   9.659
89525SOL    HW170407   6.154   5.079   9.643
89525SOL    HW270408   6.014   5.124   9.681
89526SOL     OW70409   6.747   3.422  11.208
89526SOL    HW170410   6.695   3.466  11.140
89526SOL    HW270411   6.803   3.491  11.244
89527SOL     OW70412   0.202   1.484   3.093
89527SOL    HW170413   0.118   1.458   3.056
89527SOL    HW270414   0.223   1.416   3.156
89528SOL     OW70415   2.715   3.841   8.800
89528SOL    HW170416   2.705   3.800   8.714
89528SOL    HW270417   2.729   3.934   8.781
89529SOL     OW70418   6.217  14.599  12.836
89529SOL    HW170419   6.255  14.512  12.853
89529SOL    HW270420   6.136  14.581  12.789
89530SOL     OW70421   4.330   4.940   9.095
89530SOL    HW170422   4.308   4.848   9.111
89530SOL    HW270423   4.374   4.968   9.174
89531SOL     OW70424   8.066   0.254  10.857
89531SOL    HW170425   8.092   0.162  10.849
89531SOL    HW270426   8.078   0.275  10.950
89532SOL     OW70427  13.870   8.216  13.666
89532SOL    HW170428  13.923   8.222  13.586
89532SOL    HW270429  13.861   8.122  13.681
89533SOL     OW70430   2.082  14.759   1.292
89533SOL    HW170431   2.148  14.827   1.278
89533SOL    HW270432   2.021  14.798   1.355
89534SOL     OW70433  12.103   2.339  13.347
89534SOL    HW170434  12.010   2.320  13.354
89534SOL    HW270435  12.118   2.357  13.255
89535SOL     OW70436  10.690   8.101  10.458
89535SOL    HW170437  10.738   8.042  10.400
89535SOL    HW270438  10.662   8.045  10.531
89536SOL     OW70439   8.880   9.078   4.866
89536SOL    HW170440   8.846   9.155   4.911
89536SOL    HW270441   8.822   9.066   4.790
89537SOL     OW70442  11.382  10.728  12.494
89537SOL    HW170443  11.408  10.819  12.485
89537SOL    HW270444  11.336  10.707  12.413
89538SOL     OW70445   9.060   5.904   1.598
89538SOL    HW170446   9.097   5.844   1.663
89538SOL    HW270447   9.136   5.940   1.552
89539SOL     OW70448  13.732   4.593  14.291
89539SOL    HW170449  13.637   4.604  14.284
89539SOL    HW270450  13.762   4.579  14.201
89540SOL     OW70451   5.044   9.103   8.803
89540SOL    HW170452   5.119   9.145   8.762
89540SOL    HW270453   5.068   9.011   8.808
89541SOL     OW70454   2.985   1.860   7.747
89541SOL    HW170455   2.997   1.933   7.687
89541SOL    HW270456   2.895   1.868   7.778
89542SOL     OW70457  11.734  13.064   2.151
89542SOL    HW170458  11.818  13.108   2.138
89542SOL    HW270459  11.694  13.111   2.224
89543SOL     OW70460  14.400  12.821   6.919
89543SOL    HW170461  14.399  12.885   6.990
89543SOL    HW270462  14.423  12.872   6.841
89544SOL     OW70463   0.496   9.600  12.929
89544SOL    HW170464   0.441   9.677  12.914
89544SOL    HW270465   0.577   9.618  12.881
89545SOL     OW70466  13.457  13.825   3.107
89545SOL    HW170467  13.444  13.802   3.198
89545SOL    HW270468  13.368  13.829   3.070
89546SOL     OW70469   1.097  12.291   7.594
89546SOL    HW170470   1.162  12.352   7.559
89546SOL    HW270471   1.147  12.211   7.612
89547SOL     OW70472   0.988  11.571   0.507
89547SOL    HW170473   0.964  11.607   0.422
89547SOL    HW270474   0.905  11.555   0.551
89548SOL     OW70475  11.423  10.149   4.070
89548SOL    HW170476  11.385  10.065   4.042
89548SOL    HW270477  11.457  10.132   4.157
89549SOL     OW70478   7.167  14.398   9.578
89549SOL    HW170479   7.238  14.335   9.586
89549SOL    HW270480   7.204  14.470   9.528
89550SOL     OW70481  13.245  11.205   0.332
89550SOL    HW170482  13.231  11.160   0.416
89550SOL    HW270483  13.182  11.277   0.333
89551SOL     OW70484   5.085   8.471   0.961
89551SOL    HW170485   5.137   8.437   0.888
89551SOL    HW270486   5.044   8.551   0.926
89552SOL     OW70487  12.802   6.604   2.762
89552SOL    HW170488  12.862   6.670   2.727
89552SOL    HW270489  12.834   6.587   2.851
89553SOL     OW70490  14.813   6.676   9.495
89553SOL    HW170491  14.750   6.719   9.437
89553SOL    HW270492   0.011   6.653   9.438
89554SOL     OW70493   9.095   9.514  11.862
89554SOL    HW170494   9.104   9.435  11.915
89554SOL    HW270495   9.177   9.519  11.813
89555SOL     OW70496  12.457   6.640  13.521
89555SOL    HW170497  12.498   6.725  13.503
89555SOL    HW270498  12.503   6.579  13.463
89556SOL     OW70499  10.730  13.175   3.881
89556SOL    HW170500  10.705  13.114   3.950
89556SOL    HW270501  10.763  13.119   3.810
89557SOL     OW70502   9.011  11.043   0.958
89557SOL    HW170503   9.023  11.047   0.863
89557SOL    HW270504   8.954  11.117   0.978
89558SOL     OW70505   9.393   9.338  10.894
89558SOL    HW170506   9.336   9.314  10.967
89558SOL    HW270507   9.345   9.309  10.816
89559SOL     OW70508   6.924   6.114   9.130
89559SOL    HW170509   6.941   6.205   9.157
89559SOL    HW270510   6.849   6.088   9.185
89560SOL     OW70511   6.454  13.402   2.399
89560SOL    HW170512   6.367  13.439   2.385
89560SOL    HW270513   6.507  13.434   2.327
89561SOL     OW70514   8.254   9.085   8.763
89561SOL    HW170515   8.264   9.076   8.858
89561SOL    HW270516   8.226   9.176   8.751
89562SOL     OW70517   4.443   2.673  11.838
89562SOL    HW170518   4.430   2.702  11.748
89562SOL    HW270519   4.376   2.606  11.852
89563SOL     OW70520   5.617   4.054  12.124
89563SOL    HW170521   5.643   4.011  12.206
89563SOL    HW270522   5.622   4.148  12.143
89564SOL     OW70523  12.473  10.526  14.508
89564SOL    HW170524  12.499  10.477  14.585
89564SOL    HW270525  12.491  10.467  14.434
89565SOL     OW70526   1.765   1.138   4.049
89565SOL    HW170527   1.699   1.204   4.067
89565SOL    HW270528   1.799   1.113   4.135
89566SOL     OW70529   0.784   5.119   9.406
89566SOL    HW170530   0.816   5.209   9.398
89566SOL    HW270531   0.829   5.085   9.483
89567SOL     OW70532  11.813   2.254   0.130
89567SOL    HW170533  11.822   2.335   0.079
89567SOL    HW270534  11.725   2.222   0.110
89568SOL     OW70535  12.550   3.001   5.400
89568SOL    HW170536  12.486   3.037   5.339
89568SOL    HW270537  12.502   2.993   5.483
89569SOL     OW70538   1.105   5.253   9.271
89569SOL    HW170539   1.060   5.281   9.191
89569SOL    HW270540   1.113   5.333   9.323
89570SOL     OW70541  10.116  13.068   1.690
89570SOL    HW170542  10.092  12.976   1.698
89570SOL    HW270543  10.118  13.100   1.780
89571SOL     OW70544   6.909   8.287   1.016
89571SOL    HW170545   6.861   8.291   1.099
89571SOL    HW270546   6.850   8.241   0.957
89572SOL     OW70547   5.034   5.866   5.200
89572SOL    HW170548   5.112   5.900   5.245
89572SOL    HW270549   4.987   5.944   5.171
89573SOL     OW70550   4.308  13.308  11.901
89573SOL    HW170551   4.369  13.296  11.828
89573SOL    HW270552   4.234  13.355  11.863
89574SOL     OW70553  11.860   8.136  11.719
89574SOL    HW170554  11.799   8.210  11.717
89574SOL    HW270555  11.864   8.111  11.811
89575SOL     OW70556  14.206   3.039  10.073
89575SOL    HW170557  14.190   3.081  10.157
89575SOL    HW270558  14.298   3.014  10.075
89576SOL     OW70559  13.087  11.406   7.265
89576SOL    HW170560  13.058  11.316   7.250
89576SOL    HW270561  13.060  11.453   7.186
89577SOL     OW70562   8.974  10.168   2.273
89577SOL    HW170563   9.044  10.190   2.211
89577SOL    HW270564   8.981  10.074   2.285
89578SOL     OW70565   7.266   6.766   8.262
89578SOL    HW170566   7.220   6.729   8.337
89578SOL    HW270567   7.326   6.830   8.301
89579SOL     OW70568   6.316  10.131  10.538
89579SOL    HW170569   6.316  10.077  10.617
89579SOL    HW270570   6.356  10.076  10.470
89580SOL     OW70571   4.657   7.887   5.220
89580SOL    HW170572   4.672   7.940   5.142
89580SOL    HW270573   4.576   7.922   5.258
89581SOL     OW70574   2.644   0.502   9.791
89581SOL    HW170575   2.618   0.445   9.863
89581SOL    HW270576   2.632   0.591   9.825
89582SOL     OW70577  13.153  10.286  14.451
89582SOL    HW170578  13.191  10.310  14.366
89582SOL    HW270579  13.066  10.326  14.450
89583SOL     OW70580   2.367   5.154   6.815
89583SOL    HW170581   2.418   5.095   6.760
89583SOL    HW270582   2.390   5.241   6.785
89584SOL     OW70583   4.266   8.568   7.197
89584SOL    HW170584   4.343   8.516   7.218
89584SOL    HW270585   4.266   8.638   7.262
89585SOL     OW70586   4.088   8.067  11.786
89585SOL    HW170587   4.038   8.005  11.733
89585SOL    HW270588   4.054   8.056  11.874
89586SOL     OW70589   9.498   4.815   2.351
89586SOL    HW170590   9.497   4.741   2.412
89586SOL    HW270591   9.425   4.799   2.292
89587SOL     OW70592   2.709   2.719   0.004
89587SOL    HW170593   2.660   2.652   0.049
89587SOL    HW270594   2.667   2.727  14.794
89588SOL     OW70595   2.720   3.051  14.807
89588SOL    HW170596   2.789   3.114  14.785
89588SOL    HW270597   2.765   2.968  14.818
89589SOL     OW70598  13.199  12.649   5.933
89589SOL    HW170599  13.171  12.558   5.937
89589SOL    HW270600  13.122  12.697   5.902
89590SOL     OW70601   8.218   3.744   2.546
89590SOL    HW170602   8.308   3.732   2.575
89590SOL    HW270603   8.211   3.838   2.529
89591SOL     OW70604   6.455   7.321  12.180
89591SOL    HW170605   6.409   7.395  12.218
89591SOL    HW270606   6.396   7.288  12.112
89592SOL     OW70607  10.387   9.447   2.083
89592SOL    HW170608  10.380   9.417   2.174
89592SOL    HW270609  10.327   9.521   2.077
89593SOL     OW70610   9.770   2.190  14.245
89593SOL    HW170611   9.783   2.164  14.336
89593SOL    HW270612   9.858   2.197  14.209
89594SOL     OW70613  10.392  10.524   5.762
89594SOL    HW170614  10.424  10.590   5.824
89594SOL    HW270615  10.472  10.489   5.723
89595SOL     OW70616   6.052   4.833   0.947
89595SOL    HW170617   6.034   4.739   0.954
89595SOL    HW270618   6.131   4.846   0.998
89596SOL     OW70619   4.886   9.781   4.841
89596SOL    HW170620   4.908   9.785   4.934
89596SOL    HW270621   4.843   9.865   4.823
89597SOL     OW70622  13.769   8.562   0.940
89597SOL    HW170623  13.700   8.616   0.902
89597SOL    HW270624  13.847   8.584   0.889
89598SOL     OW70625  12.985  11.730   7.642
89598SOL    HW170626  12.952  11.808   7.598
89598SOL    HW270627  13.064  11.760   7.688
89599SOL     OW70628   2.576   7.557   2.653
89599SOL    HW170629   2.584   7.605   2.571
89599SOL    HW270630   2.593   7.622   2.721
89600SOL     OW70631   7.458   0.073   7.814
89600SOL    HW170632   7.451   0.110   7.902
89600SOL    HW270633   7.549   0.046   7.807
89601SOL     OW70634  10.316   9.353  13.169
89601SOL    HW170635  10.244   9.399  13.213
89601SOL    HW270636  10.287   9.346  13.078
89602SOL     OW70637   3.588   6.003   7.452
89602SOL    HW170638   3.533   5.963   7.385
89602SOL    HW270639   3.664   6.037   7.404
89603SOL     OW70640   6.675   3.873  12.137
89603SOL    HW170641   6.629   3.893  12.219
89603SOL    HW270642   6.702   3.782  12.146
89604SOL     OW70643  14.729   7.353   4.492
89604SOL    HW170644  14.786   7.280   4.516
89604SOL    HW270645  14.751   7.372   4.400
89605SOL     OW70646  11.381  10.668   9.655
89605SOL    HW170647  11.359  10.576   9.672
89605SOL    HW270648  11.338  10.688   9.572
89606SOL     OW70649   9.401   3.736   2.020
89606SOL    HW170650   9.441   3.668   2.075
89606SOL    HW270651   9.451   3.815   2.040
89607SOL     OW70652   1.415   3.020  10.506
89607SOL    HW170653   1.500   2.979  10.520
89607SOL    HW270654   1.376   2.970  10.434
89608SOL     OW70655  14.662   3.113  10.467
89608SOL    HW170656  14.706   3.059  10.401
89608SOL    HW270657  14.578   3.068  10.482
89609SOL     OW70658  12.615   2.123   1.789
89609SOL    HW170659  12.695   2.163   1.753
89609SOL    HW270660  12.646   2.057   1.851
89610SOL     OW70661  13.525   8.949   3.470
89610SOL    HW170662  13.492   8.939   3.381
89610SOL    HW270663  13.545   8.860   3.499
89611SOL     OW70664   8.163   2.467  10.426
89611SOL    HW170665   8.178   2.538  10.489
89611SOL    HW270666   8.247   2.421  10.422
89612SOL     OW70667   1.823   1.704   9.024
89612SOL    HW170668   1.788   1.751   8.949
89612SOL    HW270669   1.756   1.638   9.044
89613SOL     OW70670  11.638  11.713  14.477
89613SOL    HW170671  11.650  11.805  14.499
89613SOL    HW270672  11.562  11.685  14.528
89614SOL     OW70673   2.708  11.249  12.479
89614SOL    HW170674   2.716  11.173  12.421
89614SOL    HW270675   2.721  11.213  12.567
89615SOL     OW70676   8.289  13.661   3.078
89615SOL    HW170677   8.283  13.573   3.040
89615SOL    HW270678   8.200  13.696   3.071
89616SOL     OW70679   8.906   3.614   0.787
89616SOL    HW170680   8.914   3.570   0.703
89616SOL    HW270681   8.872   3.547   0.847
89617SOL     OW70682   2.918  13.896   2.854
89617SOL    HW170683   2.875  13.965   2.803
89617SOL    HW270684   2.885  13.814   2.818
89618SOL     OW70685   3.601   4.419  12.010
89618SOL    HW170686   3.535   4.486  11.995
89618SOL    HW270687   3.660   4.425  11.934
89619SOL     OW70688  11.412  10.442   7.922
89619SOL    HW170689  11.476  10.394   7.870
89619SOL    HW270690  11.387  10.381   7.991
89620SOL     OW70691   0.250   1.933  13.398
89620SOL    HW170692   0.305   1.984  13.456
89620SOL    HW270693   0.161   1.947  13.430
89621SOL     OW70694  12.260   2.878   7.192
89621SOL    HW170695  12.336   2.928   7.222
89621SOL    HW270696  12.194   2.892   7.259
89622SOL     OW70697   4.437   8.820  11.358
89622SOL    HW170698   4.386   8.891  11.319
89622SOL    HW270699   4.383   8.790  11.431
89623SOL     OW70700   9.951   4.841   8.719
89623SOL    HW170701   9.860   4.852   8.745
89623SOL    HW270702   9.952   4.860   8.625
89624SOL     OW70703   6.061  12.819   9.583
89624SOL    HW170704   6.135  12.879   9.582
89624SOL    HW270705   5.985  12.874   9.564
89625SOL     OW70706   8.995  10.525   9.626
89625SOL    HW170707   9.080  10.534   9.669
89625SOL    HW270708   8.999  10.442   9.580
89626SOL     OW70709   8.006   7.437   3.783
89626SOL    HW170710   7.912   7.425   3.768
89626SOL    HW270711   8.019   7.408   3.873
89627SOL     OW70712   9.299  13.337  11.638
89627SOL    HW170713   9.232  13.405  11.635
89627SOL    HW270714   9.314  13.313  11.547
89628SOL     OW70715  13.582   3.631   3.763
89628SOL    HW170716  13.617   3.698   3.822
89628SOL    HW270717  13.654   3.568   3.752
89629SOL     OW70718   1.518  12.797   9.272
89629SOL    HW170719   1.526  12.891   9.257
89629SOL    HW270720   1.537  12.758   9.186
89630SOL     OW70721  11.089   4.236  14.744
89630SOL    HW170722  11.071   4.199  14.830
89630SOL    HW270723  11.172   4.283  14.755
89631SOL     OW70724   6.707   5.553   5.644
89631SOL    HW170725   6.789   5.505   5.631
89631SOL    HW270726   6.714   5.591   5.731
89632SOL     OW70727   9.185   8.451   9.827
89632SOL    HW170728   9.186   8.409   9.741
89632SOL    HW270729   9.242   8.527   9.818
89633SOL     OW70730  14.508   5.076  10.499
89633SOL    HW170731  14.466   5.109  10.578
89633SOL    HW270732  14.567   5.007  10.531
89634SOL     OW70733   7.759   8.269  13.466
89634SOL    HW170734   7.668   8.297  13.472
89634SOL    HW270735   7.800   8.335  13.410
89635SOL     OW70736   0.242  10.790   6.325
89635SOL    HW170737   0.300  10.765   6.253
89635SOL    HW270738   0.159  10.749   6.305
89636SOL     OW70739  11.307   9.223   0.124
89636SOL    HW170740  11.244   9.295   0.124
89636SOL    HW270741  11.317   9.199   0.032
89637SOL     OW70742  12.062   5.953   2.702
89637SOL    HW170743  12.076   5.958   2.797
89637SOL    HW270744  11.978   5.908   2.693
89638SOL     OW70745   0.030   1.032   4.645
89638SOL    HW170746   0.074   1.093   4.704
89638SOL    HW270747   0.097   0.965   4.626
89639SOL     OW70748   8.157  11.188   0.960
89639SOL    HW170749   8.107  11.141   1.027
89639SOL    HW270750   8.185  11.269   1.004
89640SOL     OW70751  11.771  11.724  10.843
89640SOL    HW170752  11.726  11.711  10.760
89640SOL    HW270753  11.818  11.807  10.832
89641SOL     OW70754   6.007  12.533  11.608
89641SOL    HW170755   5.959  12.528  11.525
89641SOL    HW270756   6.003  12.626  11.631
89642SOL     OW70757   4.472   5.190   5.268
89642SOL    HW170758   4.388   5.229   5.245
89642SOL    HW270759   4.502   5.148   5.187
89643SOL     OW70760   5.100   8.857   6.954
89643SOL    HW170761   5.064   8.768   6.955
89643SOL    HW270762   5.023   8.914   6.959
89644SOL     OW70763   1.313   0.850   6.680
89644SOL    HW170764   1.352   0.786   6.739
89644SOL    HW270765   1.370   0.927   6.686
89645SOL     OW70766   0.865   9.440   1.647
89645SOL    HW170767   0.783   9.487   1.633
89645SOL    HW270768   0.839   9.347   1.650
89646SOL     OW70769   0.690   9.718  13.611
89646SOL    HW170770   0.610   9.767  13.629
89646SOL    HW270771   0.662   9.648  13.552
89647SOL     OW70772   9.846   9.140   0.902
89647SOL    HW170773   9.925   9.188   0.878
89647SOL    HW270774   9.835   9.076   0.832
89648SOL     OW70775  13.500   3.477   5.341
89648SOL    HW170776  13.534   3.563   5.316
89648SOL    HW270777  13.494   3.481   5.437
89649SOL     OW70778  12.556   7.581  13.044
89649SOL    HW170779  12.470   7.546  13.067
89649SOL    HW270780  12.542   7.674  13.031
89650SOL     OW70781  10.297  13.474  12.253
89650SOL    HW170782  10.314  13.550  12.308
89650SOL    HW270783  10.346  13.403  12.294
89651SOL     OW70784   8.130   5.853   2.248
89651SOL    HW170785   8.169   5.858   2.160
89651SOL    HW270786   8.190   5.795   2.296
89652SOL     OW70787   9.051   5.336   8.587
89652SOL    HW170788   9.092   5.254   8.561
89652SOL    HW270789   9.123   5.390   8.620
89653SOL     OW70790  13.121  10.708   7.153
89653SOL    HW170791  13.149  10.769   7.085
89653SOL    HW270792  13.029  10.731   7.169
89654SOL     OW70793   4.450   9.387   0.849
89654SOL    HW170794   4.459   9.403   0.943
89654SOL    HW270795   4.399   9.306   0.844
89655SOL     OW70796   7.538  14.038   5.548
89655SOL    HW170797   7.569  14.127   5.564
89655SOL    HW270798   7.466  14.026   5.609
89656SOL     OW70799   9.083   0.728   2.991
89656SOL    HW170800   9.148   0.708   3.058
89656SOL    HW270801   9.002   0.742   3.040
89657SOL     OW70802  14.551   9.319   4.683
89657SOL    HW170803  14.558   9.362   4.597
89657SOL    HW270804  14.620   9.360   4.735
89658SOL     OW70805   3.081   0.697  14.321
89658SOL    HW170806   3.095   0.606  14.348
89658SOL    HW270807   3.100   0.749  14.399
89659SOL     OW70808   0.844  14.051   8.133
89659SOL    HW170809   0.767  13.998   8.151
89659SOL    HW270810   0.834  14.077   8.041
89660SOL     OW70811   4.848   1.817  11.602
89660SOL    HW170812   4.913   1.773  11.656
89660SOL    HW270813   4.898   1.872  11.543
89661SOL     OW70814   3.530  12.038   0.406
89661SOL    HW170815   3.574  12.123   0.405
89661SOL    HW270816   3.576  11.986   0.340
89662SOL     OW70817   8.631   4.059   5.729
89662SOL    HW170818   8.572   4.000   5.775
89662SOL    HW270819   8.647   4.016   5.645
89663SOL     OW70820  11.109   6.113   7.854
89663SOL    HW170821  11.086   6.066   7.774
89663SOL    HW270822  11.165   6.184   7.824
89664SOL     OW70823   5.810   5.061  10.781
89664SOL    HW170824   5.874   5.089  10.715
89664SOL    HW270825   5.857   5.068  10.864
89665SOL     OW70826  14.019  13.439   5.568
89665SOL    HW170827  14.030  13.357   5.615
89665SOL    HW270828  14.086  13.438   5.500
89666SOL     OW70829   2.520   2.977  10.032
89666SOL    HW170830   2.607   2.941  10.012
89666SOL    HW270831   2.534   3.035  10.107
89667SOL     OW70832   7.895  13.452   1.896
89667SOL    HW170833   7.927  13.542   1.887
89667SOL    HW270834   7.966  13.405   1.938
89668SOL     OW70835   5.439  12.455   1.650
89668SOL    HW170836   5.442  12.370   1.607
89668SOL    HW270837   5.481  12.440   1.735
89669SOL     OW70838   0.383   4.193  14.071
89669SOL    HW170839   0.441   4.154  14.006
89669SOL    HW270840   0.311   4.131  14.080
89670SOL     OW70841   3.045  14.071   2.060
89670SOL    HW170842   2.990  14.078   2.138
89670SOL    HW270843   3.003  14.129   1.997
89671SOL     OW70844  13.704   5.191   1.962
89671SOL    HW170845  13.696   5.279   1.925
89671SOL    HW270846  13.792   5.189   2.000
89672SOL     OW70847   2.778   7.587   7.398
89672SOL    HW170848   2.764   7.556   7.487
89672SOL    HW270849   2.762   7.682   7.402
89673SOL     OW70850   3.035   1.462   1.536
89673SOL    HW170851   2.940   1.464   1.534
89673SOL    HW270852   3.057   1.373   1.563
89674SOL     OW70853   6.814  12.533  10.477
89674SOL    HW170854   6.866  12.613  10.468
89674SOL    HW270855   6.844  12.493  10.558
89675SOL     OW70856   7.911   1.921   0.486
89675SOL    HW170857   7.840   1.971   0.445
89675SOL    HW270858   7.876   1.833   0.495
89676SOL     OW70859  14.198  12.182  12.915
89676SOL    HW170860  14.160  12.099  12.945
89676SOL    HW270861  14.279  12.191  12.964
89677SOL     OW70862   1.135   8.268   6.384
89677SOL    HW170863   1.100   8.345   6.340
89677SOL    HW270864   1.064   8.239   6.441
89678SOL     OW70865  10.148   3.214   7.174
89678SOL    HW170866  10.080   3.176   7.230
89678SOL    HW270867  10.198   3.138   7.144
89679SOL     OW70868   6.264   3.521  13.726
89679SOL    HW170869   6.345   3.562  13.694
89679SOL    HW270870   6.195   3.561  13.673
89680SOL     OW70871   0.113   6.865  10.847
89680SOL    HW170872   0.185   6.844  10.906
89680SOL    HW270873   0.035   6.869  10.903
89681SOL     OW70874   9.168   7.158   8.016
89681SOL    HW170875   9.112   7.235   8.018
89681SOL    HW270876   9.120   7.093   8.069
89682SOL     OW70877   0.022  12.270  14.265
89682SOL    HW170878   0.088  12.279  14.196
89682SOL    HW270879   0.051  12.328  14.335
89683SOL     OW70880   3.260   1.825   7.573
89683SOL    HW170881   3.170   1.818   7.539
89683SOL    HW270882   3.274   1.919   7.584
89684SOL     OW70883   2.309   0.247  12.459
89684SOL    HW170884   2.337   0.159  12.486
89684SOL    HW270885   2.332   0.303  12.533
89685SOL     OW70886   7.014  11.817   4.698
89685SOL    HW170887   7.008  11.906   4.733
89685SOL    HW270888   7.084  11.822   4.633
89686SOL     OW70889  13.760   1.502   6.542
89686SOL    HW170890  13.820   1.541   6.477
89686SOL    HW270891  13.688   1.467   6.490
89687SOL     OW70892   5.600   1.186  10.512
89687SOL    HW170893   5.620   1.093  10.511
89687SOL    HW270894   5.683   1.229  10.491
89688SOL     OW70895  11.577  13.871   2.704
89688SOL    HW170896  11.670  13.874   2.728
89688SOL    HW270897  11.562  13.780   2.679
89689SOL     OW70898   7.932  11.518  10.932
89689SOL    HW170899   7.943  11.540  10.839
89689SOL    HW270900   7.837  11.514  10.944
89690SOL     OW70901   0.918  14.627  13.761
89690SOL    HW170902   0.914  14.591  13.849
89690SOL    HW270903   0.828  14.623  13.728
89691SOL     OW70904   9.456  12.601  12.060
89691SOL    HW170905   9.384  12.564  12.008
89691SOL    HW270906   9.416  12.673  12.109
89692SOL     OW70907   6.169   3.325  10.842
89692SOL    HW170908   6.258   3.301  10.816
89692SOL    HW270909   6.177   3.356  10.932
89693SOL     OW70910   8.851   6.270  14.478
89693SOL    HW170911   8.796   6.347  14.489
89693SOL    HW270912   8.852   6.254  14.383
89694SOL     OW70913  10.245  14.689  13.434
89694SOL    HW170914  10.211  14.617  13.486
89694SOL    HW270915  10.281  14.751  13.498
89695SOL     OW70916   7.342   1.346   8.141
89695SOL    HW170917   7.282   1.411   8.105
89695SOL    HW270918   7.367   1.292   8.066
89696SOL     OW70919  14.581  13.743   0.749
89696SOL    HW170920  14.509  13.771   0.693
89696SOL    HW270921  14.660  13.764   0.699
89697SOL     OW70922  10.782   0.340   8.269
89697SOL    HW170923  10.759   0.292   8.189
89697SOL    HW270924  10.745   0.427   8.257
89698SOL     OW70925   8.358   3.746  12.147
89698SOL    HW170926   8.426   3.795  12.101
89698SOL    HW270927   8.401   3.664  12.173
89699SOL     OW70928  12.961   6.001   8.473
89699SOL    HW170929  12.987   6.093   8.476
89699SOL    HW270930  12.949   5.983   8.380
89700SOL     OW70931   6.920   7.735  13.393
89700SOL    HW170932   6.968   7.757  13.314
89700SOL    HW270933   6.856   7.670  13.366
89701SOL     OW70934   0.913   3.625  13.236
89701SOL    HW170935   0.913   3.677  13.156
89701SOL    HW270936   0.934   3.536  13.207
89702SOL     OW70937   7.350  13.813   9.662
89702SOL    HW170938   7.279  13.748   9.660
89702SOL    HW270939   7.362  13.839   9.571
89703SOL     OW70940   1.210   8.756   3.811
89703SOL    HW170941   1.265   8.807   3.870
89703SOL    HW270942   1.140   8.816   3.785
89704SOL     OW70943  11.884   9.026   9.724
89704SOL    HW170944  11.846   8.961   9.783
89704SOL    HW270945  11.854   8.999   9.637
89705SOL     OW70946   1.593   9.658   5.259
89705SOL    HW170947   1.672   9.710   5.277
89705SOL    HW270948   1.589   9.595   5.331
89706SOL     OW70949  11.381  11.013   6.976
89706SOL    HW170950  11.362  11.107   6.973
89706SOL    HW270951  11.295  10.971   6.972
89707SOL     OW70952   7.854  11.015   8.800
89707SOL    HW170953   7.872  10.979   8.887
89707SOL    HW270954   7.889  10.950   8.739
89708SOL     OW70955   4.042   8.334  11.573
89708SOL    HW170956   3.985   8.392  11.523
89708SOL    HW270957   3.982   8.270  11.612
89709SOL     OW70958   7.291  13.401   9.117
89709SOL    HW170959   7.385  13.386   9.101
89709SOL    HW270960   7.269  13.476   9.061
89710SOL     OW70961  14.509  14.434   4.008
89710SOL    HW170962  14.536  14.403   3.922
89710SOL    HW270963  14.525  14.359   4.066
89711SOL     OW70964   4.018  12.901   1.333
89711SOL    HW170965   3.928  12.867   1.335
89711SOL    HW270966   4.048  12.893   1.424
89712SOL     OW70967  13.318  12.758   2.806
89712SOL    HW170968  13.300  12.740   2.898
89712SOL    HW270969  13.293  12.850   2.794
89713SOL     OW70970   5.548   3.882  14.264
89713SOL    HW170971   5.624   3.868  14.207
89713SOL    HW270972   5.586   3.890  14.352
89714SOL     OW70973   6.959   3.682   5.327
89714SOL    HW170974   7.024   3.642   5.384
89714SOL    HW270975   6.894   3.613   5.313
89715SOL     OW70976  13.149  14.344   3.258
89715SOL    HW170977  13.077  14.349   3.195
89715SOL    HW270978  13.224  14.315   3.206
89716SOL     OW70979  14.187  10.479   0.957
89716SOL    HW170980  14.127  10.410   0.986
89716SOL    HW270981  14.270  10.458   1.001
89717SOL     OW70982   4.550   2.162  13.714
89717SOL    HW170983   4.596   2.078  13.708
89717SOL    HW270984   4.457   2.138  13.712
89718SOL     OW70985   8.479   0.141  10.211
89718SOL    HW170986   8.430   0.109  10.135
89718SOL    HW270987   8.460   0.078  10.280
89719SOL     OW70988   8.909  12.498   7.105
89719SOL    HW170989   8.868  12.411   7.102
89719SOL    HW270990   8.991  12.487   7.057
89720SOL     OW70991   4.091   3.812  13.618
89720SOL    HW170992   4.104   3.890  13.671
89720SOL    HW270993   4.017   3.767  13.658
89721SOL     OW70994   1.581   2.542   0.009
89721SOL    HW170995   1.625   2.468  14.843
89721SOL    HW270996   1.549   2.508   0.092
89722SOL     OW70997   9.026   2.600   3.786
89722SOL    HW170998   9.029   2.669   3.720
89722SOL    HW270999   9.053   2.521   3.740
89723SOL     OW71000   3.202   8.723   4.759
89723SOL    HW171001   3.212   8.792   4.824
89723SOL    HW271002   3.180   8.769   4.678
89724SOL     OW71003   3.226   9.477   3.986
89724SOL    HW171004   3.205   9.532   3.910
89724SOL    HW271005   3.222   9.387   3.952
89725SOL     OW71006   6.323  13.318   5.413
89725SOL    HW171007   6.373  13.396   5.437
89725SOL    HW271008   6.360  13.291   5.329
89726SOL     OW71009   4.400   3.183   6.138
89726SOL    HW171010   4.453   3.157   6.062
89726SOL    HW271011   4.461   3.181   6.211
89727SOL     OW71012  14.369   5.544   0.782
89727SOL    HW171013  14.295   5.600   0.804
89727SOL    HW271014  14.383   5.557   0.689
89728SOL     OW71015   2.482   8.379   0.369
89728SOL    HW171016   2.517   8.455   0.415
89728SOL    HW271017   2.390   8.399   0.355
89729SOL     OW71018  14.395  12.645  11.318
89729SOL    HW171019  14.395  12.708  11.246
89729SOL    HW271020  14.367  12.563  11.278
89730SOL     OW71021   9.681   6.106  13.929
89730SOL    HW171022   9.765   6.151  13.941
89730SOL    HW271023   9.683   6.034  13.993
89731SOL     OW71024  10.792   4.717   3.265
89731SOL    HW171025  10.715   4.756   3.222
89731SOL    HW271026  10.800   4.630   3.226
89732SOL     OW71027   0.119   6.592   4.486
89732SOL    HW171028   0.186   6.615   4.421
89732SOL    HW271029   0.106   6.673   4.536
89733SOL     OW71030   4.457  12.280   0.962
89733SOL    HW171031   4.438  12.354   0.904
89733SOL    HW271032   4.522  12.229   0.914
89734SOL     OW71033  13.739   7.905   3.398
89734SOL    HW171034  13.705   7.823   3.360
89734SOL    HW271035  13.663   7.963   3.400
89735SOL     OW71036   2.542  11.837   7.554
89735SOL    HW171037   2.586  11.918   7.582
89735SOL    HW271038   2.579  11.769   7.610
89736SOL     OW71039  12.701   1.892  14.839
89736SOL    HW171040  12.649   1.960   0.005
89736SOL    HW271041  12.791   1.910  14.867
89737SOL     OW71042   5.085   1.152  13.337
89737SOL    HW171043   5.114   1.235  13.299
89737SOL    HW271044   5.070   1.172  13.429
89738SOL     OW71045  12.112   3.306   6.448
89738SOL    HW171046  12.097   3.361   6.525
89738SOL    HW271047  12.051   3.340   6.383
89739SOL     OW71048   6.781  13.163   9.232
89739SOL    HW171049   6.872  13.150   9.260
89739SOL    HW271050   6.756  13.247   9.271
89740SOL     OW71051   1.657  12.379   0.412
89740SOL    HW171052   1.719  12.306   0.409
89740SOL    HW271053   1.585  12.351   0.355
89741SOL     OW71054   8.088   9.758   0.443
89741SOL    HW171055   8.018   9.743   0.505
89741SOL    HW271056   8.160   9.702   0.473
89742SOL     OW71057   3.053   2.699  13.142
89742SOL    HW171058   3.145   2.714  13.124
89742SOL    HW271059   3.010   2.783  13.124
89743SOL     OW71060   6.346  13.126   4.613
89743SOL    HW171061   6.260  13.169   4.622
89743SOL    HW271062   6.347  13.093   4.523
89744SOL     OW71063  13.786   8.082  12.103
89744SOL    HW171064  13.788   7.987  12.092
89744SOL    HW271065  13.876   8.104  12.129
89745SOL     OW71066   6.708  11.446   3.725
89745SOL    HW171067   6.658  11.518   3.764
89745SOL    HW271068   6.776  11.426   3.789
89746SOL     OW71069   6.236   8.676  11.192
89746SOL    HW171070   6.187   8.618  11.134
89746SOL    HW271071   6.201   8.658  11.279
89747SOL     OW71072   0.759  13.029  12.996
89747SOL    HW171073   0.844  12.986  13.006
89747SOL    HW271074   0.746  13.075  13.079
89748SOL     OW71075   9.295   5.163  10.010
89748SOL    HW171076   9.259   5.110   9.938
89748SOL    HW271077   9.275   5.112  10.088
89749SOL     OW71078   3.665   0.866  10.334
89749SOL    HW171079   3.645   0.835  10.246
89749SOL    HW271080   3.743   0.921  10.323
89750SOL     OW71081   9.809   1.827   8.573
89750SOL    HW171082   9.790   1.916   8.544
89750SOL    HW271083   9.819   1.833   8.668
89751SOL     OW71084  11.723  10.704   5.334
89751SOL    HW171085  11.710  10.621   5.378
89751SOL    HW271086  11.791  10.687   5.269
89752SOL     OW71087   2.530   1.556   1.522
89752SOL    HW171088   2.542   1.462   1.540
89752SOL    HW271089   2.619   1.591   1.519
89753SOL     OW71090   4.633   1.672   5.865
89753SOL    HW171091   4.540   1.687   5.878
89753SOL    HW271092   4.643   1.660   5.771
89754SOL     OW71093  12.640   0.656  12.739
89754SOL    HW171094  12.686   0.714  12.679
89754SOL    HW271095  12.631   0.706  12.820
89755SOL     OW71096  14.580  13.482   7.119
89755SOL    HW171097  14.669  13.477   7.151
89755SOL    HW271098  14.528  13.433   7.182
89756SOL     OW71099   9.221  12.593  11.220
89756SOL    HW171100   9.204  12.590  11.314
89756SOL    HW271101   9.265  12.509  11.202
89757SOL     OW71102  10.883   0.553   1.306
89757SOL    HW171103  10.886   0.464   1.271
89757SOL    HW271104  10.971   0.587   1.292
89758SOL     OW71105   4.480  10.072   5.109
89758SOL    HW171106   4.446   9.983   5.122
89758SOL    HW271107   4.574  10.060   5.093
89759SOL     OW71108   9.309  11.238   9.468
89759SOL    HW171109   9.280  11.310   9.525
89759SOL    HW271110   9.335  11.281   9.387
89760SOL     OW71111  11.822   2.949   3.187
89760SOL    HW171112  11.856   2.859   3.188
89760SOL    HW271113  11.744   2.945   3.242
89761SOL     OW71114   0.226   8.364  12.786
89761SOL    HW171115   0.168   8.304  12.833
89761SOL    HW271116   0.168   8.409  12.724
89762SOL     OW71117  13.863   6.139   1.293
89762SOL    HW171118  13.848   6.132   1.388
89762SOL    HW271119  13.898   6.053   1.268
89763SOL     OW71120  12.997   1.615  11.386
89763SOL    HW171121  13.061   1.656  11.444
89763SOL    HW271122  12.932   1.683  11.369
89764SOL     OW71123  13.190  11.951   3.184
89764SOL    HW171124  13.212  12.017   3.250
89764SOL    HW271125  13.255  11.881   3.198
89765SOL     OW71126   9.254  13.806   3.354
89765SOL    HW171127   9.229  13.725   3.397
89765SOL    HW271128   9.184  13.867   3.377
89766SOL     OW71129   7.617   5.750   4.634
89766SOL    HW171130   7.649   5.816   4.696
89766SOL    HW271131   7.624   5.793   4.548
89767SOL     OW71132   7.015   4.731  13.261
89767SOL    HW171133   6.992   4.821  13.286
89767SOL    HW271134   6.987   4.677  13.335
89768SOL     OW71135  13.622   7.417   8.278
89768SOL    HW171136  13.547   7.403   8.334
89768SOL    HW271137  13.668   7.492   8.317
89769SOL     OW71138   8.448   5.007  14.249
89769SOL    HW171139   8.407   4.941  14.193
89769SOL    HW271140   8.383   5.022  14.318
89770SOL     OW71141   1.519   3.083  11.434
89770SOL    HW171142   1.460   3.014  11.468
89770SOL    HW271143   1.499   3.087  11.341
89771SOL     OW71144   6.940   4.709  12.998
89771SOL    HW171145   6.864   4.765  12.982
89771SOL    HW271146   6.970   4.733  13.086
89772SOL     OW71147   9.442   8.704   7.804
89772SOL    HW171148   9.358   8.712   7.850
89772SOL    HW271149   9.505   8.685   7.873
89773SOL     OW71150   8.408   3.930  13.469
89773SOL    HW171151   8.437   4.021  13.478
89773SOL    HW271152   8.460   3.895  13.396
89774SOL     OW71153   7.459   3.442  10.525
89774SOL    HW171154   7.414   3.446  10.609
89774SOL    HW271155   7.529   3.507  10.533
89775SOL     OW71156   0.306   9.767   0.554
89775SOL    HW171157   0.385   9.721   0.585
89775SOL    HW271158   0.332   9.859   0.550
89776SOL     OW71159   4.787  10.742   6.997
89776SOL    HW171160   4.834  10.774   6.920
89776SOL    HW271161   4.706  10.705   6.962
89777SOL     OW71162   3.111   7.102  13.264
89777SOL    HW171163   3.162   7.108  13.183
89777SOL    HW271164   3.174   7.122  13.334
89778SOL     OW71165  13.011   7.693   0.886
89778SOL    HW171166  13.060   7.699   0.803
89778SOL    HW271167  12.926   7.730   0.866
89779SOL     OW71168   9.695  11.939   8.990
89779SOL    HW171169   9.692  11.866   9.052
89779SOL    HW271170   9.775  11.986   9.011
89780SOL     OW71171   0.488  11.159   8.988
89780SOL    HW171172   0.468  11.176   8.896
89780SOL    HW271173   0.532  11.074   8.987
89781SOL     OW71174   0.856  10.372   3.887
89781SOL    HW171175   0.903  10.436   3.833
89781SOL    HW271176   0.893  10.287   3.860
89782SOL     OW71177   5.015  10.532   9.650
89782SOL    HW171178   4.979  10.464   9.592
89782SOL    HW271179   4.938  10.575   9.687
89783SOL     OW71180  13.031   0.963   7.480
89783SOL    HW171181  12.998   1.043   7.440
89783SOL    HW271182  13.121   0.984   7.505
89784SOL     OW71183   4.134  10.643   3.904
89784SOL    HW171184   4.115  10.735   3.924
89784SOL    HW271185   4.187  10.613   3.978
89785SOL     OW71186  13.396   7.809   9.589
89785SOL    HW171187  13.471   7.851   9.631
89785SOL    HW271188  13.321   7.833   9.643
89786SOL     OW71189  11.463   8.656   7.682
89786SOL    HW171190  11.391   8.594   7.667
89786SOL    HW271191  11.500   8.672   7.595
89787SOL     OW71192   5.517  10.532  10.684
89787SOL    HW171193   5.610  10.529  10.705
89787SOL    HW271194   5.500  10.624  10.665
89788SOL     OW71195  11.112  11.987   3.015
89788SOL    HW171196  11.021  12.001   2.987
89788SOL    HW271197  11.122  12.041   3.093
89789SOL     OW71198  12.512   2.808   3.904
89789SOL    HW171199  12.592   2.774   3.944
89789SOL    HW271200  12.512   2.771   3.815
89790SOL     OW71201  14.847   0.198   3.270
89790SOL    HW171202  14.755   0.216   3.285
89790SOL    HW271203   0.016   0.280   3.293
89791SOL     OW71204  11.093  12.049   5.598
89791SOL    HW171205  11.126  12.134   5.629
89791SOL    HW271206  11.158  11.986   5.629
89792SOL     OW71207   3.186   3.338  11.667
89792SOL    HW171208   3.234   3.316  11.747
89792SOL    HW271209   3.254   3.367  11.606
89793SOL     OW71210  13.851  12.839  13.283
89793SOL    HW171211  13.823  12.876  13.199
89793SOL    HW271212  13.797  12.884  13.348
89794SOL     OW71213   9.738   2.127   9.629
89794SOL    HW171214   9.709   2.217   9.615
89794SOL    HW271215   9.662   2.084   9.671
89795SOL     OW71216   8.403  13.477   4.475
89795SOL    HW171217   8.468  13.497   4.408
89795SOL    HW271218   8.330  13.536   4.456
89796SOL     OW71219   7.269   1.548   1.955
89796SOL    HW171220   7.340   1.512   2.009
89796SOL    HW271221   7.191   1.541   2.010
89797SOL     OW71222  13.194  13.016   7.811
89797SOL    HW171223  13.147  13.035   7.892
89797SOL    HW271224  13.173  12.925   7.792
89798SOL     OW71225   4.022  14.306   7.312
89798SOL    HW171226   3.929  14.298   7.335
89798SOL    HW271227   4.024  14.370   7.241
89799SOL     OW71228   9.689   1.855  13.240
89799SOL    HW171229   9.747   1.786  13.208
89799SOL    HW271230   9.652   1.819  13.321
89800SOL     OW71231   0.281  14.631   9.875
89800SOL    HW171232   0.324  14.707   9.836
89800SOL    HW271233   0.189  14.656   9.878
89801SOL     OW71234   9.567  10.132  13.912
89801SOL    HW171235   9.472  10.132  13.924
89801SOL    HW271236   9.584  10.205  13.852
89802SOL     OW71237   3.975   8.932  14.216
89802SOL    HW171238   4.052   8.877  14.201
89802SOL    HW271239   3.971   8.989  14.139
89803SOL     OW71240   9.241   0.985   8.348
89803SOL    HW171241   9.250   1.078   8.369
89803SOL    HW271242   9.271   0.978   8.257
89804SOL     OW71243   4.613   2.564   7.734
89804SOL    HW171244   4.532   2.562   7.785
89804SOL    HW271245   4.621   2.475   7.699
89805SOL     OW71246   4.807  11.295   1.387
89805SOL    HW171247   4.780  11.373   1.436
89805SOL    HW271248   4.883  11.262   1.435
89806SOL     OW71249   5.964   5.844   2.099
89806SOL    HW171250   6.049   5.875   2.067
89806SOL    HW271251   5.946   5.900   2.174
89807SOL     OW71252  12.742  10.847   8.769
89807SOL    HW171253  12.815  10.909   8.760
89807SOL    HW271254  12.753  10.810   8.857
89808SOL     OW71255   2.314  11.910   6.293
89808SOL    HW171256   2.273  11.963   6.361
89808SOL    HW271257   2.245  11.851   6.263
89809SOL     OW71258   7.376   1.237  13.194
89809SOL    HW171259   7.385   1.168  13.128
89809SOL    HW271260   7.461   1.239  13.238
89810SOL     OW71261   9.103   7.804   6.248
89810SOL    HW171262   9.181   7.838   6.293
89810SOL    HW271263   9.047   7.771   6.319
89811SOL     OW71264  10.510   4.428  12.783
89811SOL    HW171265  10.567   4.435  12.706
89811SOL    HW271266  10.538   4.500  12.839
89812SOL     OW71267  10.782  13.570  13.797
89812SOL    HW171268  10.800  13.662  13.816
89812SOL    HW271269  10.868  13.531  13.781
89813SOL     OW71270   2.395   1.148   5.619
89813SOL    HW171271   2.325   1.117   5.676
89813SOL    HW271272   2.360   1.138   5.530
89814SOL     OW71273   4.966   5.460   6.822
89814SOL    HW171274   5.034   5.432   6.761
89814SOL    HW271275   4.884   5.446   6.774
89815SOL     OW71276   1.964   5.335   5.570
89815SOL    HW171277   1.987   5.278   5.643
89815SOL    HW271278   2.006   5.296   5.493
89816SOL     OW71279   3.172   7.851   0.812
89816SOL    HW171280   3.187   7.787   0.742
89816SOL    HW271281   3.079   7.874   0.804
89817SOL     OW71282   3.799  14.217  10.207
89817SOL    HW171283   3.842  14.298  10.179
89817SOL    HW271284   3.770  14.175  10.126
89818SOL     OW71285   8.893   2.708  12.957
89818SOL    HW171286   8.935   2.739  12.877
89818SOL    HW271287   8.914   2.615  12.961
89819SOL     OW71288   4.306   5.578   8.554
89819SOL    HW171289   4.307   5.608   8.463
89819SOL    HW271290   4.391   5.605   8.588
89820SOL     OW71291   6.437  12.647   3.340
89820SOL    HW171292   6.344  12.635   3.362
89820SOL    HW271293   6.447  12.607   3.254
89821SOL     OW71294  13.836   4.281   5.603
89821SOL    HW171295  13.930   4.278   5.585
89821SOL    HW271296  13.827   4.249   5.692
89822SOL     OW71297  10.544  11.495   6.349
89822SOL    HW171298  10.586  11.481   6.265
89822SOL    HW271299  10.533  11.408   6.386
89823SOL     OW71300   1.774   3.161   9.835
89823SOL    HW171301   1.840   3.227   9.812
89823SOL    HW271302   1.818   3.104   9.899
89824SOL     OW71303   5.108  14.232   5.037
89824SOL    HW171304   5.153  14.152   5.064
89824SOL    HW271305   5.169  14.274   4.976
89825SOL     OW71306  10.015  10.342   4.262
89825SOL    HW171307  10.005  10.422   4.210
89825SOL    HW271308   9.957  10.356   4.337
89826SOL     OW71309   3.975   3.042   5.379
89826SOL    HW171310   3.943   3.097   5.451
89826SOL    HW271311   3.899   2.989   5.355
89827SOL     OW71312  11.973  14.295   6.361
89827SOL    HW171313  12.061  14.261   6.374
89827SOL    HW271314  11.986  14.382   6.322
89828SOL     OW71315   1.193   8.051   8.732
89828SOL    HW171316   1.111   8.056   8.781
89828SOL    HW271317   1.166   8.039   8.641
89829SOL     OW71318   5.970   9.505   4.415
89829SOL    HW171319   5.884   9.472   4.391
89829SOL    HW271320   6.012   9.432   4.461
89830SOL     OW71321   9.748  13.682   3.800
89830SOL    HW171322   9.698  13.602   3.815
89830SOL    HW271323   9.779  13.675   3.709
89831SOL     OW71324   0.806  13.999  10.806
89831SOL    HW171325   0.789  13.990  10.713
89831SOL    HW271326   0.722  13.983  10.848
89832SOL     OW71327  10.024   8.324   3.611
89832SOL    HW171328   9.973   8.244   3.597
89832SOL    HW271329  10.109   8.306   3.570
89833SOL     OW71330  13.497   4.291  13.345
89833SOL    HW171331  13.507   4.332  13.259
89833SOL    HW271332  13.448   4.210  13.327
89834SOL     OW71333   5.997  12.980   2.902
89834SOL    HW171334   6.040  12.931   2.831
89834SOL    HW271335   5.924  12.924   2.929
89835SOL     OW71336   3.943   3.674   6.646
89835SOL    HW171337   3.904   3.701   6.729
89835SOL    HW271338   3.988   3.752   6.613
89836SOL     OW71339   3.256   2.745   1.897
89836SOL    HW171340   3.204   2.678   1.854
89836SOL    HW271341   3.307   2.786   1.827
89837SOL     OW71342   8.793  14.157   7.481
89837SOL    HW171343   8.860  14.213   7.442
89837SOL    HW271344   8.816  14.151   7.573
89838SOL     OW71345   0.415   4.762   8.507
89838SOL    HW171346   0.348   4.707   8.465
89838SOL    HW271347   0.496   4.740   8.461
89839SOL     OW71348  12.676   2.419   7.927
89839SOL    HW171349  12.741   2.358   7.962
89839SOL    HW271350  12.677   2.493   7.987
89840SOL     OW71351   0.606   7.254   7.646
89840SOL    HW171352   0.604   7.303   7.728
89840SOL    HW271353   0.694   7.216   7.643
89841SOL     OW71354   2.000  11.753  13.084
89841SOL    HW171355   1.961  11.708  13.159
89841SOL    HW271356   1.930  11.808  13.049
89842SOL     OW71357   0.610   5.775   6.862
89842SOL    HW171358   0.576   5.832   6.931
89842SOL    HW271359   0.609   5.688   6.901
89843SOL     OW71360  12.942   8.852  11.171
89843SOL    HW171361  12.856   8.813  11.188
89843SOL    HW271362  12.924   8.945  11.158
89844SOL     OW71363  11.215  14.685   2.419
89844SOL    HW171364  11.198  14.608   2.473
89844SOL    HW271365  11.128  14.716   2.392
89845SOL     OW71366   3.411  12.748  10.072
89845SOL    HW171367   3.397  12.828  10.021
89845SOL    HW271368   3.505  12.731  10.064
89846SOL     OW71369  12.987  10.857   0.226
89846SOL    HW171370  13.035  10.861   0.144
89846SOL    HW271371  12.908  10.806   0.206
89847SOL     OW71372   9.251  10.031   5.206
89847SOL    HW171373   9.216   9.954   5.161
89847SOL    HW271374   9.253  10.099   5.138
89848SOL     OW71375   9.972   1.473   3.248
89848SOL    HW171376  10.066   1.478   3.265
89848SOL    HW271377   9.943   1.564   3.250
89849SOL     OW71378   1.016  13.379   2.643
89849SOL    HW171379   1.076  13.430   2.697
89849SOL    HW271380   0.929  13.404   2.673
89850SOL     OW71381   8.790   1.508  11.146
89850SOL    HW171382   8.697   1.495  11.165
89850SOL    HW271383   8.791   1.575  11.078
89851SOL     OW71384   6.864   4.431   6.874
89851SOL    HW171385   6.884   4.446   6.966
89851SOL    HW271386   6.905   4.504   6.828
89852SOL     OW71387   4.014   0.153   8.283
89852SOL    HW171388   4.083   0.087   8.291
89852SOL    HW271389   3.932   0.105   8.294
89853SOL     OW71390  10.308  14.012   7.311
89853SOL    HW171391  10.271  14.068   7.379
89853SOL    HW271392  10.348  14.073   7.249
89854SOL     OW71393  14.832   6.320   0.911
89854SOL    HW171394  14.809   6.413   0.903
89854SOL    HW271395   0.040   6.313   0.866
89855SOL     OW71396   4.150   4.489   5.806
89855SOL    HW171397   4.239   4.477   5.774
89855SOL    HW271398   4.159   4.546   5.883
89856SOL     OW71399  14.409   1.797  10.730
89856SOL    HW171400  14.340   1.766  10.672
89856SOL    HW271401  14.473   1.837  10.672
89857SOL     OW71402   3.785   5.367  11.017
89857SOL    HW171403   3.737   5.296  11.059
89857SOL    HW271404   3.851   5.323  10.963
89858SOL     OW71405  11.971   2.091   3.834
89858SOL    HW171406  12.041   2.111   3.771
89858SOL    HW271407  11.908   2.040   3.783
89859SOL     OW71408   4.640   1.723   8.619
89859SOL    HW171409   4.669   1.696   8.706
89859SOL    HW271410   4.548   1.698   8.615
89860SOL     OW71411  10.359  14.597   0.753
89860SOL    HW171412  10.322  14.544   0.823
89860SOL    HW271413  10.357  14.687   0.787
89861SOL     OW71414   8.231   4.537  11.936
89861SOL    HW171415   8.225   4.571  12.025
89861SOL    HW271416   8.198   4.447  11.942
89862SOL     OW71417   1.233   5.912   9.375
89862SOL    HW171418   1.277   5.833   9.405
89862SOL    HW271419   1.261   5.923   9.284
89863SOL     OW71420   4.625   8.195  13.418
89863SOL    HW171421   4.710   8.163  13.448
89863SOL    HW271422   4.611   8.276  13.467
89864SOL     OW71423   3.426   9.396   7.698
89864SOL    HW171424   3.411   9.456   7.625
89864SOL    HW271425   3.428   9.309   7.657
89865SOL     OW71426   1.019   9.072   6.373
89865SOL    HW171427   1.042   9.151   6.422
89865SOL    HW271428   1.038   9.094   6.282
89866SOL     OW71429   7.764   7.744   6.227
89866SOL    HW171430   7.827   7.816   6.227
89866SOL    HW271431   7.702   7.766   6.297
89867SOL     OW71432   8.816   1.142   7.511
89867SOL    HW171433   8.733   1.189   7.510
89867SOL    HW271434   8.879   1.203   7.473
89868SOL     OW71435  12.423   2.148  12.504
89868SOL    HW171436  12.498   2.158  12.445
89868SOL    HW271437  12.458   2.167  12.591
89869SOL     OW71438   7.394   1.821  12.880
89869SOL    HW171439   7.420   1.821  12.788
89869SOL    HW271440   7.317   1.764  12.884
89870SOL     OW71441  13.419   9.494   7.149
89870SOL    HW171442  13.508   9.501   7.114
89870SOL    HW271443  13.390   9.406   7.124
89871SOL     OW71444  11.617   6.982   5.620
89871SOL    HW171445  11.617   7.076   5.634
89871SOL    HW271446  11.544   6.950   5.672
89872SOL     OW71447  12.169   0.875   8.961
89872SOL    HW171448  12.085   0.912   8.935
89872SOL    HW271449  12.198   0.930   9.033
89873SOL     OW71450  13.130   9.585   5.940
89873SOL    HW171451  13.040   9.587   5.970
89873SOL    HW271452  13.180   9.629   6.009
89874SOL     OW71453   0.837  12.036   2.535
89874SOL    HW171454   0.810  11.968   2.597
89874SOL    HW271455   0.765  12.099   2.537
89875SOL     OW71456   6.143   3.304   7.691
89875SOL    HW171457   6.064   3.355   7.708
89875SOL    HW271458   6.215   3.362   7.716
89876SOL     OW71459   7.462  11.286   7.840
89876SOL    HW171460   7.538  11.275   7.783
89876SOL    HW271461   7.407  11.350   7.793
89877SOL     OW71462   1.791   7.689   9.995
89877SOL    HW171463   1.766   7.776   9.964
89877SOL    HW271464   1.817   7.703  10.086
89878SOL     OW71465  10.629  10.753  14.506
89878SOL    HW171466  10.559  10.722  14.563
89878SOL    HW271467  10.710  10.727  14.550
89879SOL     OW71468   5.784  11.809   5.921
89879SOL    HW171469   5.826  11.725   5.901
89879SOL    HW271470   5.832  11.842   5.997
89880SOL     OW71471   4.090   6.784   6.063
89880SOL    HW171472   4.143   6.843   6.117
89880SOL    HW271473   4.119   6.802   5.974
89881SOL     OW71474   1.780   3.839  12.514
89881SOL    HW171475   1.813   3.928  12.499
89881SOL    HW271476   1.814   3.789  12.440
89882SOL     OW71477   6.330  14.081   0.331
89882SOL    HW171478   6.378  14.101   0.250
89882SOL    HW271479   6.243  14.057   0.301
89883SOL     OW71480   5.053   9.509   7.080
89883SOL    HW171481   5.110   9.432   7.081
89883SOL    HW271482   4.993   9.494   7.007
89884SOL     OW71483  13.713   4.905   3.863
89884SOL    HW171484  13.749   4.828   3.908
89884SOL    HW271485  13.788   4.945   3.821
89885SOL     OW71486   0.338  13.743  10.367
89885SOL    HW171487   0.401  13.813  10.385
89885SOL    HW271488   0.389  13.675  10.324
89886SOL     OW71489   7.853   4.519   7.608
89886SOL    HW171490   7.835   4.585   7.540
89886SOL    HW271491   7.918   4.560   7.665
89887SOL     OW71492  11.059   9.717  14.595
89887SOL    HW171493  11.022   9.632  14.574
89887SOL    HW271494  10.982   9.772  14.613
89888SOL     OW71495   2.320   1.815   0.884
89888SOL    HW171496   2.401   1.841   0.840
89888SOL    HW271497   2.347   1.788   0.971
89889SOL     OW71498   4.381   0.085   7.731
89889SOL    HW171499   4.358   0.171   7.696
89889SOL    HW271500   4.300   0.053   7.771
89890SOL     OW71501   6.905   2.214  12.198
89890SOL    HW171502   6.878   2.261  12.277
89890SOL    HW271503   6.925   2.283  12.134
89891SOL     OW71504   6.204   6.369   1.893
89891SOL    HW171505   6.195   6.464   1.884
89891SOL    HW271506   6.200   6.336   1.803
89892SOL     OW71507   3.374  14.044  13.320
89892SOL    HW171508   3.333  14.014  13.239
89892SOL    HW271509   3.467  14.048  13.300
89893SOL     OW71510   7.218   2.089   8.787
89893SOL    HW171511   7.267   2.166   8.760
89893SOL    HW271512   7.172   2.117   8.866
89894SOL     OW71513   2.392   0.550   1.514
89894SOL    HW171514   2.305   0.558   1.555
89894SOL    HW271515   2.390   0.465   1.471
89895SOL     OW71516   0.134   1.512   5.664
89895SOL    HW171517   0.185   1.580   5.707
89895SOL    HW271518   0.196   1.439   5.653
89896SOL     OW71519   1.030  11.877   7.066
89896SOL    HW171520   1.052  11.966   7.038
89896SOL    HW271521   1.114  11.839   7.093
89897SOL     OW71522  10.466   8.391   1.375
89897SOL    HW171523  10.516   8.471   1.365
89897SOL    HW271524  10.377   8.414   1.348
89898SOL     OW71525   9.329  10.875   2.005
89898SOL    HW171526   9.288  10.850   2.088
89898SOL    HW271527   9.385  10.800   1.982
89899SOL     OW71528  10.233  10.696   2.344
89899SOL    HW171529  10.276  10.742   2.416
89899SOL    HW271530  10.166  10.756   2.313
89900SOL     OW71531   8.843   4.130   4.351
89900SOL    HW171532   8.886   4.044   4.345
89900SOL    HW271533   8.879   4.168   4.432
89901SOL     OW71534  14.120   1.453   9.129
89901SOL    HW171535  14.088   1.386   9.069
89901SOL    HW271536  14.215   1.437   9.133
89902SOL     OW71537   3.764   4.123   1.646
89902SOL    HW171538   3.676   4.125   1.682
89902SOL    HW271539   3.766   4.195   1.583
89903SOL     OW71540   2.583   2.623  12.905
89903SOL    HW171541   2.613   2.705  12.945
89903SOL    HW271542   2.533   2.652  12.828
89904SOL     OW71543  12.195   4.387   8.871
89904SOL    HW171544  12.157   4.420   8.789
89904SOL    HW271545  12.254   4.456   8.899
89905SOL     OW71546   6.623  13.837  12.307
89905SOL    HW171547   6.637  13.836  12.212
89905SOL    HW271548   6.683  13.905  12.339
89906SOL     OW71549   5.140   6.459   6.344
89906SOL    HW171550   5.137   6.497   6.256
89906SOL    HW271551   5.213   6.504   6.387
89907SOL     OW71552   9.559   1.461   4.518
89907SOL    HW171553   9.476   1.469   4.565
89907SOL    HW271554   9.626   1.484   4.583
89908SOL     OW71555  14.722  12.915  14.420
89908SOL    HW171556  14.817  12.915  14.421
89908SOL    HW271557  14.699  12.941  14.331
89909SOL     OW71558   0.296  11.494   4.368
89909SOL    HW171559   0.259  11.519   4.453
89909SOL    HW271560   0.391  11.504   4.379
89910SOL     OW71561  13.653  11.495   0.352
89910SOL    HW171562  13.732  11.483   0.404
89910SOL    HW271563  13.596  11.551   0.405
89911SOL     OW71564   6.312   5.976  13.259
89911SOL    HW171565   6.325   6.006  13.169
89911SOL    HW271566   6.290   5.884  13.251
89912SOL     OW71567  13.310   0.924  13.358
89912SOL    HW171568  13.291   0.832  13.377
89912SOL    HW271569  13.257   0.972  13.423
89913SOL     OW71570   2.249   0.756  10.369
89913SOL    HW171571   2.229   0.763  10.463
89913SOL    HW271572   2.295   0.672  10.361
89914SOL     OW71573   6.138   5.078   4.844
89914SOL    HW171574   6.177   5.082   4.757
89914SOL    HW271575   6.206   5.042   4.900
89915SOL     OW71576  11.844   5.472  14.457
89915SOL    HW171577  11.791   5.468  14.378
89915SOL    HW271578  11.783   5.498  14.526
89916SOL     OW71579  12.225   0.596  14.568
89916SOL    HW171580  12.205   0.567  14.657
89916SOL    HW271581  12.219   0.691  14.572
89917SOL     OW71582   6.394   6.376  13.951
89917SOL    HW171583   6.477   6.394  13.907
89917SOL    HW271584   6.345   6.458  13.945
89918SOL     OW71585   1.075   6.284  12.891
89918SOL    HW171586   1.144   6.317  12.949
89918SOL    HW271587   1.120   6.266  12.809
89919SOL     OW71588  13.261   3.596  10.448
89919SOL    HW171589  13.224   3.603  10.360
89919SOL    HW271590  13.186   3.605  10.507
89920SOL     OW71591   0.929   1.193  14.204
89920SOL    HW171592   1.006   1.174  14.151
89920SOL    HW271593   0.956   1.173  14.294
89921SOL     OW71594   7.591   0.703  10.615
89921SOL    HW171595   7.619   0.660  10.535
89921SOL    HW271596   7.530   0.771  10.585
89922SOL     OW71597   5.546  11.062  13.767
89922SOL    HW171598   5.539  10.989  13.706
89922SOL    HW271599   5.634  11.055  13.804
89923SOL     OW71600   5.569   4.186   2.131
89923SOL    HW171601   5.569   4.185   2.036
89923SOL    HW271602   5.479   4.168   2.156
89924SOL     OW71603  13.248  12.853   6.104
89924SOL    HW171604  13.247  12.766   6.064
89924SOL    HW271605  13.320  12.850   6.167
89925SOL     OW71606  13.233  10.035  10.304
89925SOL    HW171607  13.140  10.013  10.296
89925SOL    HW271608  13.235  10.108  10.366
89926SOL     OW71609   4.864   0.226   9.151
89926SOL    HW171610   4.861   0.265   9.239
89926SOL    HW271611   4.954   0.197   9.140
89927SOL     OW71612  14.338   1.481  13.405
89927SOL    HW171613  14.323   1.518  13.318
89927SOL    HW271614  14.393   1.546  13.449
89928SOL     OW71615  11.779   9.791  13.891
89928SOL    HW171616  11.752   9.879  13.918
89928SOL    HW271617  11.830   9.758  13.965
89929SOL     OW71618   0.445   9.900  12.176
89929SOL    HW171619   0.524   9.952  12.193
89929SOL    HW271620   0.448   9.880  12.083
89930SOL     OW71621   9.293  12.686  14.653
89930SOL    HW171622   9.357  12.718  14.589
89930SOL    HW271623   9.227  12.755  14.657
89931SOL     OW71624   2.096  11.531   3.631
89931SOL    HW171625   2.157  11.604   3.636
89931SOL    HW271626   2.013  11.566   3.661
89932SOL     OW71627  14.829   2.749   0.381
89932SOL    HW171628  14.839   2.706   0.296
89932SOL    HW271629   0.043   2.766   0.410
89933SOL     OW71630   2.442  10.512  10.088
89933SOL    HW171631   2.421  10.605  10.099
89933SOL    HW271632   2.386  10.468  10.151
89934SOL     OW71633   0.770   8.228   0.256
89934SOL    HW171634   0.783   8.237   0.161
89934SOL    HW271635   0.829   8.157   0.281
89935SOL     OW71636  13.231   8.557   2.214
89935SOL    HW171637  13.227   8.562   2.118
89935SOL    HW271638  13.220   8.648   2.243
89936SOL     OW71639   1.351   5.887   1.909
89936SOL    HW171640   1.310   5.895   1.995
89936SOL    HW271641   1.430   5.942   1.915
89937SOL     OW71642   0.903  11.109   6.283
89937SOL    HW171643   0.885  11.109   6.377
89937SOL    HW271644   0.943  11.023   6.267
89938SOL     OW71645   8.634   8.826   2.284
89938SOL    HW171646   8.647   8.895   2.218
89938SOL    HW271647   8.632   8.745   2.233
89939SOL     OW71648   5.554   3.528  10.730
89939SOL    HW171649   5.510   3.509  10.647
89939SOL    HW271650   5.487   3.512  10.797
89940SOL     OW71651   0.110   8.591   9.715
89940SOL    HW171652   0.137   8.503   9.689
89940SOL    HW271653   0.164   8.611   9.791
89941SOL     OW71654   9.911   5.769  12.482
89941SOL    HW171655   9.973   5.805  12.545
89941SOL    HW271656   9.926   5.819  12.402
89942SOL     OW71657   8.475  10.211  12.656
89942SOL    HW171658   8.423  10.160  12.594
89942SOL    HW271659   8.430  10.295  12.664
89943SOL     OW71660  12.467  10.825  10.213
89943SOL    HW171661  12.492  10.906  10.258
89943SOL    HW271662  12.447  10.764  10.284
89944SOL     OW71663  12.320   5.619   2.051
89944SOL    HW171664  12.326   5.531   2.014
89944SOL    HW271665  12.299   5.675   1.976
89945SOL     OW71666   7.157   5.043   7.685
89945SOL    HW171667   7.247   5.062   7.657
89945SOL    HW271668   7.119   4.994   7.613
89946SOL     OW71669  10.689  10.254   5.924
89946SOL    HW171670  10.598  10.261   5.952
89946SOL    HW271671  10.717  10.167   5.954
89947SOL     OW71672   2.221   8.733   7.858
89947SOL    HW171673   2.153   8.668   7.838
89947SOL    HW271674   2.288   8.684   7.905
89948SOL     OW71675   4.927   0.339   5.205
89948SOL    HW171676   5.011   0.383   5.218
89948SOL    HW271677   4.876   0.400   5.151
89949SOL     OW71678   4.739   9.578   3.784
89949SOL    HW171679   4.704   9.663   3.759
89949SOL    HW271680   4.832   9.594   3.799
89950SOL     OW71681  12.063   3.800  10.166
89950SOL    HW171682  12.041   3.882  10.210
89950SOL    HW271683  12.137   3.765  10.215
89951SOL     OW71684  12.214   0.639   1.035
89951SOL    HW171685  12.291   0.659   1.087
89951SOL    HW271686  12.220   0.698   0.959
89952SOL     OW71687  13.715  10.411   1.398
89952SOL    HW171688  13.741  10.494   1.358
89952SOL    HW271689  13.749  10.417   1.488
89953SOL     OW71690   9.205  13.747  14.617
89953SOL    HW171691   9.189  13.751  14.712
89953SOL    HW271692   9.287  13.699  14.609
89954SOL     OW71693  12.843   9.339   2.450
89954SOL    HW171694  12.937   9.322   2.449
89954SOL    HW271695  12.820   9.351   2.358
89955SOL     OW71696   4.731   0.244  10.844
89955SOL    HW171697   4.762   0.333  10.861
89955SOL    HW271698   4.790   0.210  10.778
89956SOL     OW71699   1.519   2.055   2.719
89956SOL    HW171700   1.494   2.093   2.803
89956SOL    HW271701   1.563   2.126   2.672
89957SOL     OW71702   2.253   4.818   1.647
89957SOL    HW171703   2.242   4.847   1.738
89957SOL    HW271704   2.166   4.787   1.621
89958SOL     OW71705   9.996   2.209   2.433
89958SOL    HW171706  10.069   2.184   2.376
89958SOL    HW271707  10.018   2.297   2.463
89959SOL     OW71708   2.098   8.172   8.861
89959SOL    HW171709   2.049   8.090   8.855
89959SOL    HW271710   2.151   8.174   8.781
89960SOL     OW71711  10.934   4.822   9.695
89960SOL    HW171712  10.931   4.727   9.686
89960SOL    HW271713  10.942   4.837   9.789
89961SOL     OW71714   7.985   9.283   4.481
89961SOL    HW171715   7.896   9.277   4.446
89961SOL    HW271716   8.040   9.302   4.405
89962SOL     OW71717  14.593   2.029   2.546
89962SOL    HW171718  14.567   2.093   2.612
89962SOL    HW271719  14.689   2.027   2.551
89963SOL     OW71720   8.565   4.104   1.132
89963SOL    HW171721   8.489   4.094   1.076
89963SOL    HW271722   8.637   4.063   1.084
89964SOL     OW71723   6.931   6.707  13.171
89964SOL    HW171724   6.843   6.670  13.158
89964SOL    HW271725   6.963   6.726  13.083
89965SOL     OW71726   1.239  13.231  11.978
89965SOL    HW171727   1.294  13.302  12.010
89965SOL    HW271728   1.152  13.250  12.013
89966SOL     OW71729   7.661  11.909   2.813
89966SOL    HW171730   7.689  11.878   2.727
89966SOL    HW271731   7.685  11.838   2.873
89967SOL     OW71732  11.288  14.268   4.009
89967SOL    HW171733  11.267  14.181   3.973
89967SOL    HW271734  11.288  14.255   4.104
89968SOL     OW71735   8.184   6.907  14.586
89968SOL    HW171736   8.178   6.833  14.525
89968SOL    HW271737   8.211   6.981  14.531
89969SOL     OW71738   1.201  11.710   9.840
89969SOL    HW171739   1.183  11.771   9.769
89969SOL    HW271740   1.295  11.718   9.856
89970SOL     OW71741   8.344   8.212   9.413
89970SOL    HW171742   8.349   8.127   9.369
89970SOL    HW271743   8.418   8.213   9.473
89971SOL     OW71744   1.876  10.593   3.581
89971SOL    HW171745   1.846  10.657   3.516
89971SOL    HW271746   1.854  10.508   3.543
89972SOL     OW71747  14.399  14.332  12.452
89972SOL    HW171748  14.385  14.412  12.402
89972SOL    HW271749  14.321  14.324  12.507
89973SOL     OW71750   4.516   0.931   3.912
89973SOL    HW171751   4.561   0.933   3.997
89973SOL    HW271752   4.556   0.858   3.865
89974SOL     OW71753  11.427  12.180  12.477
89974SOL    HW171754  11.455  12.093  12.505
89974SOL    HW271755  11.370  12.211  12.548
89975SOL     OW71756   4.742   7.649   0.393
89975SOL    HW171757   4.670   7.706   0.367
89975SOL    HW271758   4.786   7.696   0.465
89976SOL     OW71759   3.431   9.354   0.356
89976SOL    HW171760   3.392   9.385   0.438
89976SOL    HW271761   3.483   9.278   0.382
89977SOL     OW71762   8.628   8.353  10.422
89977SOL    HW171763   8.637   8.343  10.517
89977SOL    HW271764   8.534   8.352  10.406
89978SOL     OW71765  14.796   6.253   2.695
89978SOL    HW171766  14.834   6.291   2.615
89978SOL    HW271767  14.832   6.164   2.698
89979SOL     OW71768  10.657   5.408   9.160
89979SOL    HW171769  10.608   5.463   9.099
89979SOL    HW271770  10.591   5.376   9.222
89980SOL     OW71771   2.930   5.103   9.589
89980SOL    HW171772   2.873   5.140   9.521
89980SOL    HW271773   2.924   5.166   9.661
89981SOL     OW71774   9.598  11.414  12.621
89981SOL    HW171775   9.638  11.359  12.688
89981SOL    HW271776   9.528  11.360  12.584
89982SOL     OW71777   9.692  14.492  11.315
89982SOL    HW171778   9.636  14.443  11.255
89982SOL    HW271779   9.779  14.455  11.301
89983SOL     OW71780   1.219   3.513   7.183
89983SOL    HW171781   1.135   3.486   7.147
89983SOL    HW271782   1.279   3.442   7.159
89984SOL     OW71783   8.232   0.413  14.099
89984SOL    HW171784   8.248   0.501  14.063
89984SOL    HW271785   8.316   0.387  14.136
89985SOL     OW71786   4.777   6.804   9.566
89985SOL    HW171787   4.781   6.709   9.556
89985SOL    HW271788   4.840   6.824   9.635
89986SOL     OW71789   0.919   7.858   2.709
89986SOL    HW171790   0.981   7.918   2.669
89986SOL    HW271791   0.841   7.912   2.726
89987SOL     OW71792   5.139  12.614   1.492
89987SOL    HW171793   5.182  12.580   1.413
89987SOL    HW271794   5.206  12.606   1.560
89988SOL     OW71795   9.468  11.800   1.100
89988SOL    HW171796   9.490  11.707   1.093
89988SOL    HW271797   9.553  11.845   1.098
89989SOL     OW71798   7.933   7.245   7.247
89989SOL    HW171799   7.888   7.327   7.227
89989SOL    HW271800   7.864   7.187   7.279
89990SOL     OW71801  14.298   9.110   3.029
89990SOL    HW171802  14.311   9.056   2.950
89990SOL    HW271803  14.232   9.063   3.079
89991SOL     OW71804   6.397   0.617  13.870
89991SOL    HW171805   6.435   0.548  13.924
89991SOL    HW271806   6.310   0.633  13.907
89992SOL     OW71807   4.028   8.078  10.982
89992SOL    HW171808   3.935   8.064  11.001
89992SOL    HW271809   4.062   8.123  11.059
89993SOL     OW71810  11.115  10.927  13.965
89993SOL    HW171811  11.107  10.934  13.870
89993SOL    HW271812  11.155  10.842  13.979
89994SOL     OW71813   7.762   3.723   2.036
89994SOL    HW171814   7.751   3.656   2.104
89994SOL    HW271815   7.797   3.799   2.083
89995SOL     OW71816  13.283   5.555   4.528
89995SOL    HW171817  13.220   5.615   4.569
89995SOL    HW271818  13.231   5.481   4.499
89996SOL     OW71819   8.059  13.893   9.472
89996SOL    HW171820   8.033  13.974   9.428
89996SOL    HW271821   8.137  13.917   9.522
89997SOL     OW71822  14.813   1.495   1.426
89997SOL    HW171823  14.788   1.558   1.493
89997SOL    HW271824   0.026   1.520   1.401
89998SOL     OW71825   3.146   9.151   5.465
89998SOL    HW171826   3.204   9.215   5.506
89998SOL    HW271827   3.122   9.091   5.537
89999SOL     OW71828   1.739   4.333  14.634
89999SOL    HW171829   1.715   4.266  14.570
89999SOL    HW271830   1.746   4.287  14.717
90000SOL     OW71831  13.688   3.109  12.302
90000SOL    HW171832  13.622   3.041  12.293
90000SOL    HW271833  13.752   3.090  12.233
90001SOL     OW71834  14.375  14.366  14.816
90001SOL    HW171835  14.422  14.341   0.020
90001SOL    HW271836  14.376  14.461  14.817
90002SOL     OW71837   9.611   7.180   6.624
90002SOL    HW171838   9.659   7.115   6.677
90002SOL    HW271839   9.650   7.264   6.648
90003SOL     OW71840  13.270   4.955   1.982
90003SOL    HW171841  13.249   4.970   2.074
90003SOL    HW271842  13.295   5.041   1.948
90004SOL     OW71843   5.188  14.525   3.578
90004SOL    HW171844   5.116  14.501   3.520
90004SOL    HW271845   5.198  14.450   3.637
90005SOL     OW71846   9.731  12.312  10.593
90005SOL    HW171847   9.780  12.248  10.645
90005SOL    HW271848   9.754  12.397  10.631
90006SOL     OW71849  11.153   2.276   6.682
90006SOL    HW171850  11.091   2.244   6.617
90006SOL    HW271851  11.217   2.326   6.632
90007SOL     OW71852  12.787   8.594   7.517
90007SOL    HW171853  12.776   8.550   7.602
90007SOL    HW271854  12.870   8.561   7.484
90008SOL     OW71855   4.437   1.794   6.722
90008SOL    HW171856   4.413   1.712   6.678
90008SOL    HW271857   4.499   1.836   6.663
90009SOL     OW71858   6.676  11.673   8.420
90009SOL    HW171859   6.693  11.588   8.381
90009SOL    HW271860   6.689  11.736   8.349
90010SOL     OW71861   3.673   6.767  12.105
90010SOL    HW171862   3.719   6.700  12.154
90010SOL    HW271863   3.730   6.844  12.110
90011SOL     OW71864  10.356  12.158   2.820
90011SOL    HW171865  10.371  12.252   2.835
90011SOL    HW271866  10.392  12.143   2.732
90012SOL     OW71867  13.581   3.481   4.622
90012SOL    HW171868  13.617   3.445   4.703
90012SOL    HW271869  13.633   3.559   4.604
90013SOL     OW71870   8.825  12.651   7.521
90013SOL    HW171871   8.766  12.666   7.594
90013SOL    HW271872   8.886  12.726   7.523
90014SOL     OW71873  10.070   1.415   8.573
90014SOL    HW171874  10.033   1.501   8.557
90014SOL    HW271875  10.138   1.406   8.506
90015SOL     OW71876   0.713   1.974  13.462
90015SOL    HW171877   0.801   1.997  13.432
90015SOL    HW271878   0.656   2.040  13.422
90016SOL     OW71879   3.237   4.067   1.840
90016SOL    HW171880   3.223   3.972   1.842
90016SOL    HW271881   3.230   4.095   1.931
90017SOL     OW71882   9.310   3.902   3.331
90017SOL    HW171883   9.405   3.896   3.337
90017SOL    HW271884   9.295   3.975   3.271
90018SOL     OW71885   4.335   0.905  14.445
90018SOL    HW171886   4.311   0.817  14.416
90018SOL    HW271887   4.253   0.943  14.476
90019SOL     OW71888   7.767   5.401  10.728
90019SOL    HW171889   7.840   5.455  10.756
90019SOL    HW271890   7.725   5.372  10.809
90020SOL     OW71891   8.284   9.644  13.078
90020SOL    HW171892   8.195   9.626  13.109
90020SOL    HW271893   8.331   9.561  13.090
90021SOL     OW71894  10.489   2.807   5.991
90021SOL    HW171895  10.441   2.887   5.969
90021SOL    HW271896  10.574   2.818   5.948
90022SOL     OW71897  12.250  14.823   4.479
90022SOL    HW171898  12.276  14.793   4.392
90022SOL    HW271899  12.180  14.763   4.505
90023SOL     OW71900   5.370   9.668  12.203
90023SOL    HW171901   5.380   9.694  12.295
90023SOL    HW271902   5.285   9.624  12.200
90024SOL     OW71903  13.607   0.119   8.603
90024SOL    HW171904  13.562   0.194   8.642
90024SOL    HW271905  13.548   0.090   8.533
90025SOL     OW71906   9.110   8.643  12.326
90025SOL    HW171907   9.144   8.558  12.298
90025SOL    HW271908   9.018   8.643  12.300
90026SOL     OW71909  12.741   0.868   1.100
90026SOL    HW171910  12.710   0.920   1.174
90026SOL    HW271911  12.830   0.901   1.084
90027SOL     OW71912   0.707   4.374   7.663
90027SOL    HW171913   0.656   4.381   7.744
90027SOL    HW271914   0.749   4.460   7.654
90028SOL     OW71915   6.254  10.056   3.857
90028SOL    HW171916   6.281  10.137   3.900
90028SOL    HW271917   6.166  10.038   3.892
90029SOL     OW71918   9.212   9.669   3.066
90029SOL    HW171919   9.148   9.679   3.137
90029SOL    HW271920   9.250   9.756   3.055
90030SOL     OW71921   2.963   6.801  13.452
90030SOL    HW171922   2.962   6.734  13.383
90030SOL    HW271923   3.054   6.830  13.456
90031SOL     OW71924   0.594   1.603  11.693
90031SOL    HW171925   0.683   1.569  11.694
90031SOL    HW271926   0.540   1.529  11.720
90032SOL     OW71927   3.706   8.416  13.123
90032SOL    HW171928   3.634   8.360  13.152
90032SOL    HW271929   3.695   8.422  13.028
90033SOL     OW71930  10.098   5.233   6.277
90033SOL    HW171931  10.154   5.307   6.252
90033SOL    HW271932  10.123   5.214   6.368
90034SOL     OW71933   1.212   2.824   4.295
90034SOL    HW171934   1.211   2.729   4.297
90034SOL    HW271935   1.121   2.850   4.309
90035SOL     OW71936   2.032  13.130   2.765
90035SOL    HW171937   1.938  13.145   2.773
90035SOL    HW271938   2.049  13.053   2.820
90036SOL     OW71939  13.452   4.168   7.336
90036SOL    HW171940  13.372   4.127   7.303
90036SOL    HW271941  13.427   4.258   7.357
90037SOL     OW71942   1.409  11.570  13.361
90037SOL    HW171943   1.341  11.621  13.318
90037SOL    HW271944   1.453  11.523  13.290
90038SOL     OW71945   5.152   9.487  12.156
90038SOL    HW171946   5.098   9.458  12.229
90038SOL    HW271947   5.089   9.515  12.090
90039SOL     OW71948   6.765  11.112   9.664
90039SOL    HW171949   6.671  11.133   9.661
90039SOL    HW271950   6.782  11.069   9.580
90040SOL     OW71951   1.330   0.952  11.674
90040SOL    HW171952   1.409   1.003  11.687
90040SOL    HW271953   1.360   0.870  11.635
90041SOL     OW71954   0.538   5.394   0.315
90041SOL    HW171955   0.451   5.353   0.321
90041SOL    HW271956   0.597   5.321   0.292
90042SOL     OW71957  13.534   9.296  10.419
90042SOL    HW171958  13.503   9.219  10.371
90042SOL    HW271959  13.551   9.361  10.351
90043SOL     OW71960   9.537   5.396   1.857
90043SOL    HW171961   9.500   5.478   1.890
90043SOL    HW271962   9.535   5.337   1.933
90044SOL     OW71963  12.745   0.351   7.031
90044SOL    HW171964  12.731   0.293   7.106
90044SOL    HW271965  12.746   0.439   7.068
90045SOL     OW71966  10.376   1.766  10.632
90045SOL    HW171967  10.327   1.845  10.608
90045SOL    HW271968  10.452   1.799  10.680
90046SOL     OW71969   1.837   8.161   4.228
90046SOL    HW171970   1.777   8.178   4.156
90046SOL    HW271971   1.824   8.069   4.250
90047SOL     OW71972  14.665   4.619   4.117
90047SOL    HW171973  14.723   4.564   4.169
90047SOL    HW271974  14.592   4.640   4.176
90048SOL     OW71975  12.164  14.140   7.035
90048SOL    HW171976  12.081  14.126   7.080
90048SOL    HW271977  12.230  14.108   7.097
90049SOL     OW71978  12.689   8.223   3.671
90049SOL    HW171979  12.651   8.251   3.588
90049SOL    HW271980  12.674   8.128   3.673
90050SOL     OW71981   0.086   6.872  10.398
90050SOL    HW171982   0.108   6.785  10.431
90050SOL    HW271983   0.038   6.913  10.470
90051SOL     OW71984   9.573  12.257   6.325
90051SOL    HW171985   9.563  12.350   6.306
90051SOL    HW271986   9.483  12.222   6.322
90052SOL     OW71987  13.705  10.532  10.398
90052SOL    HW171988  13.672  10.450  10.361
90052SOL    HW271989  13.635  10.562  10.456
90053SOL     OW71990   0.795   5.753   0.165
90053SOL    HW171991   0.729   5.736   0.098
90053SOL    HW271992   0.745   5.766   0.245
90054SOL     OW71993   2.270   6.628  12.254
90054SOL    HW171994   2.283   6.607  12.346
90054SOL    HW271995   2.315   6.711  12.241
90055SOL     OW71996   0.128   1.185   0.573
90055SOL    HW171997   0.065   1.160   0.505
90055SOL    HW271998   0.089   1.154   0.654
90056SOL     OW71999   9.761   2.195  14.515
90056SOL    HW172000   9.842   2.151  14.540
90056SOL    HW272001   9.755   2.268  14.577
90057SOL     OW72002  14.057   7.387   2.469
90057SOL    HW172003  13.998   7.455   2.437
90057SOL    HW272004  14.143   7.429   2.471
90058SOL     OW72005   3.256  11.942  13.388
90058SOL    HW172006   3.246  11.865  13.332
90058SOL    HW272007   3.293  12.009  13.330
90059SOL     OW72008  10.043   8.571   3.093
90059SOL    HW172009  10.127   8.533   3.116
90059SOL    HW272010  10.028   8.639   3.158
90060SOL     OW72011   1.226  11.215   2.341
90060SOL    HW172012   1.236  11.121   2.355
90060SOL    HW272013   1.269  11.255   2.416
90061SOL     OW72014   6.405  10.578   1.112
90061SOL    HW172015   6.425  10.611   1.200
90061SOL    HW272016   6.317  10.541   1.120
90062SOL     OW72017   6.559   4.595   6.730
90062SOL    HW172018   6.632   4.656   6.718
90062SOL    HW272019   6.595   4.510   6.704
90063SOL     OW72020   9.645  13.404   3.440
90063SOL    HW172021   9.571  13.395   3.379
90063SOL    HW272022   9.721  13.379   3.388
90064SOL     OW72023   0.375   0.804   4.215
90064SOL    HW172024   0.280   0.812   4.205
90064SOL    HW272025   0.394   0.712   4.200
90065SOL     OW72026   3.907   6.440   1.734
90065SOL    HW172027   3.842   6.510   1.743
90065SOL    HW272028   3.884   6.396   1.652
90066SOL     OW72029  12.674   9.284   1.820
90066SOL    HW172030  12.767   9.266   1.812
90066SOL    HW272031  12.669   9.377   1.846
90067SOL     OW72032   9.682  10.892   6.151
90067SOL    HW172033   9.680  10.800   6.178
90067SOL    HW272034   9.760  10.928   6.194
90068SOL     OW72035   1.548   6.452   4.931
90068SOL    HW172036   1.567   6.521   4.867
90068SOL    HW272037   1.455   6.463   4.950
90069SOL     OW72038   1.132   3.657   8.655
90069SOL    HW172039   1.085   3.656   8.572
90069SOL    HW272040   1.111   3.573   8.696
90070SOL     OW72041  14.874   2.021  13.450
90070SOL    HW172042  14.790   1.979  13.428
90070SOL    HW272043  14.850   2.100  13.497
90071SOL     OW72044   7.498  10.428   1.701
90071SOL    HW172045   7.425  10.488   1.686
90071SOL    HW272046   7.496  10.409   1.795
90072SOL     OW72047   3.537   2.358  10.633
90072SOL    HW172048   3.476   2.317  10.694
90072SOL    HW272049   3.622   2.322  10.657
90073SOL     OW72050   8.391  12.892   3.091
90073SOL    HW172051   8.306  12.851   3.078
90073SOL    HW272052   8.449  12.819   3.115
90074SOL     OW72053  12.736   4.991  11.045
90074SOL    HW172054  12.729   4.915  10.988
90074SOL    HW272055  12.820   5.031  11.021
90075SOL     OW72056  12.424  11.213   9.227
90075SOL    HW172057  12.365  11.276   9.268
90075SOL    HW272058  12.369  11.163   9.168
90076SOL     OW72059   9.390  11.463   8.582
90076SOL    HW172060   9.349  11.527   8.640
90076SOL    HW272061   9.327  11.392   8.576
90077SOL     OW72062   8.575  11.975   4.613
90077SOL    HW172063   8.585  11.909   4.544
90077SOL    HW272064   8.487  12.008   4.602
90078SOL     OW72065   3.027  11.825   9.088
90078SOL    HW172066   3.104  11.815   9.032
90078SOL    HW272067   3.057  11.798   9.175
90079SOL     OW72068   8.156  10.944   9.103
90079SOL    HW172069   8.103  10.893   9.165
90079SOL    HW272070   8.243  10.946   9.141
90080SOL     OW72071   5.128   3.359   3.368
90080SOL    HW172072   5.035   3.339   3.378
90080SOL    HW272073   5.171   3.274   3.369
90081SOL     OW72074   4.867  11.586   2.107
90081SOL    HW172075   4.792  11.626   2.151
90081SOL    HW272076   4.829  11.525   2.044
90082SOL     OW72077   7.423   8.901   5.743
90082SOL    HW172078   7.503   8.902   5.796
90082SOL    HW272079   7.402   8.808   5.734
90083SOL     OW72080  12.963  11.722   2.026
90083SOL    HW172081  13.044  11.714   2.077
90083SOL    HW272082  12.989  11.773   1.949
90084SOL     OW72083  14.503   8.493   5.570
90084SOL    HW172084  14.537   8.580   5.592
90084SOL    HW272085  14.492   8.495   5.475
90085SOL     OW72086   6.979   5.514  11.651
90085SOL    HW172087   6.987   5.494  11.558
90085SOL    HW272088   7.029   5.594  11.663
90086SOL     OW72089   6.283   5.827   6.828
90086SOL    HW172090   6.299   5.745   6.781
90086SOL    HW272091   6.257   5.889   6.760
90087SOL     OW72092   2.111  14.109  10.964
90087SOL    HW172093   2.097  14.017  10.987
90087SOL    HW272094   2.167  14.106  10.887
90088SOL     OW72095   7.194  10.148   3.773
90088SOL    HW172096   7.110  10.102   3.775
90088SOL    HW272097   7.252  10.093   3.826
90089SOL     OW72098   2.935   6.866  13.954
90089SOL    HW172099   2.919   6.790  13.897
90089SOL    HW272100   2.918   6.833  14.042
90090SOL     OW72101   2.281   7.184   1.263
90090SOL    HW172102   2.279   7.202   1.357
90090SOL    HW272103   2.320   7.097   1.256
90091SOL     OW72104   2.963   8.773   2.951
90091SOL    HW172105   2.904   8.699   2.935
90091SOL    HW272106   3.021   8.742   3.021
90092SOL     OW72107   7.489   2.404  11.133
90092SOL    HW172108   7.432   2.355  11.193
90092SOL    HW272109   7.442   2.486  11.116
90093SOL     OW72110   2.444  14.248   3.664
90093SOL    HW172111   2.406  14.162   3.645
90093SOL    HW272112   2.535  14.241   3.636
90094SOL     OW72113   4.796   5.012   7.131
90094SOL    HW172114   4.889   5.033   7.120
90094SOL    HW272115   4.751   5.067   7.067
90095SOL     OW72116   7.308   5.955   9.647
90095SOL    HW172117   7.312   5.896   9.572
90095SOL    HW272118   7.370   5.919   9.710
90096SOL     OW72119  13.224   5.467   8.016
90096SOL    HW172120  13.218   5.541   8.078
90096SOL    HW272121  13.306   5.423   8.039
90097SOL     OW72122  11.668  12.988   0.831
90097SOL    HW172123  11.622  13.067   0.861
90097SOL    HW272124  11.619  12.960   0.753
90098SOL     OW72125   6.089   6.212  13.270
90098SOL    HW172126   6.097   6.181  13.360
90098SOL    HW272127   6.055   6.137  13.221
90099SOL     OW72128   4.202   5.115   8.174
90099SOL    HW172129   4.221   5.047   8.109
90099SOL    HW272130   4.107   5.129   8.167
90100SOL     OW72131  12.604   3.444   1.961
90100SOL    HW172132  12.652   3.391   1.897
90100SOL    HW272133  12.602   3.532   1.922
90101SOL     OW72134  12.779   1.414   8.323
90101SOL    HW172135  12.730   1.332   8.314
90101SOL    HW272136  12.857   1.402   8.269
90102SOL     OW72137   8.945   6.247   2.902
90102SOL    HW172138   8.911   6.196   2.975
90102SOL    HW272139   9.029   6.281   2.934
90103SOL     OW72140  11.170   6.924   1.135
90103SOL    HW172141  11.259   6.939   1.165
90103SOL    HW272142  11.123   7.004   1.159
90104SOL     OW72143   6.189   2.557   6.397
90104SOL    HW172144   6.144   2.585   6.317
90104SOL    HW272145   6.202   2.638   6.447
90105SOL     OW72146   2.630   1.903   7.790
90105SOL    HW172147   2.548   1.939   7.758
90105SOL    HW272148   2.649   1.831   7.730
90106SOL     OW72149  12.777  12.360  14.638
90106SOL    HW172150  12.853  12.302  14.649
90106SOL    HW272151  12.744  12.339  14.551
90107SOL     OW72152   4.096   6.344  14.485
90107SOL    HW172153   4.154   6.310  14.417
90107SOL    HW272154   4.024   6.384  14.438
90108SOL     OW72155  13.372   1.181  14.168
90108SOL    HW172156  13.321   1.114  14.214
90108SOL    HW272157  13.319   1.202  14.091
90109SOL     OW72158  14.601   2.346   8.592
90109SOL    HW172159  14.694   2.354   8.573
90109SOL    HW272160  14.560   2.416   8.541
90110SOL     OW72161   3.828   6.364  12.369
90110SOL    HW172162   3.868   6.277  12.376
90110SOL    HW272163   3.814   6.391  12.460
90111SOL     OW72164  13.190   4.949  11.528
90111SOL    HW172165  13.116   4.894  11.555
90111SOL    HW272166  13.166   5.037  11.557
90112SOL     OW72167  11.785   9.378  10.098
90112SOL    HW172168  11.760   9.437  10.026
90112SOL    HW272169  11.775   9.290  10.061
90113SOL     OW72170   1.265   1.162   5.307
90113SOL    HW172171   1.303   1.078   5.333
90113SOL    HW272172   1.193   1.139   5.248
90114SOL     OW72173   0.974   5.213  12.329
90114SOL    HW172174   0.966   5.168  12.245
90114SOL    HW272175   1.022   5.293  12.307
90115SOL     OW72176  11.687   8.802   4.150
90115SOL    HW172177  11.666   8.891   4.121
90115SOL    HW272178  11.632   8.746   4.095
90116SOL     OW72179  12.946   3.163   4.303
90116SOL    HW172180  12.997   3.203   4.232
90116SOL    HW272181  12.880   3.229   4.325
90117SOL     OW72182   1.511  11.752   2.697
90117SOL    HW172183   1.520  11.758   2.601
90117SOL    HW272184   1.428  11.706   2.710
90118SOL     OW72185   5.671  11.033   1.255
90118SOL    HW172186   5.704  11.087   1.327
90118SOL    HW272187   5.747  10.983   1.227
90119SOL     OW72188   4.872   4.809  10.471
90119SOL    HW172189   4.838   4.832  10.385
90119SOL    HW272190   4.966   4.797  10.457
90120SOL     OW72191   0.232   5.273   4.768
90120SOL    HW172192   0.314   5.245   4.728
90120SOL    HW272193   0.256   5.344   4.827
90121SOL     OW72194  14.113   8.262   9.955
90121SOL    HW172195  14.123   8.242   9.862
90121SOL    HW272196  14.056   8.339   9.956
90122SOL     OW72197   2.758  11.810   5.618
90122SOL    HW172198   2.697  11.786   5.548
90122SOL    HW272199   2.724  11.892   5.652
90123SOL     OW72200   4.321  10.096  11.179
90123SOL    HW172201   4.262  10.108  11.254
90123SOL    HW272202   4.400  10.058  11.217
90124SOL     OW72203  11.414   7.081  13.992
90124SOL    HW172204  11.462   7.014  14.040
90124SOL    HW272205  11.479   7.117  13.932
90125SOL     OW72206   0.848  11.522   1.922
90125SOL    HW172207   0.854  11.578   1.844
90125SOL    HW272208   0.777  11.560   1.973
90126SOL     OW72209   0.357   6.104   7.207
90126SOL    HW172210   0.262   6.103   7.201
90126SOL    HW272211   0.379   6.193   7.235
90127SOL     OW72212  13.211   3.671  13.344
90127SOL    HW172213  13.233   3.609  13.414
90127SOL    HW272214  13.285   3.731  13.343
90128SOL     OW72215   4.582   2.797   7.539
90128SOL    HW172216   4.574   2.744   7.618
90128SOL    HW272217   4.555   2.739   7.468
90129SOL     OW72218  12.243   4.680   7.281
90129SOL    HW172219  12.151   4.707   7.277
90129SOL    HW272220  12.241   4.586   7.262
90130SOL     OW72221   6.031   0.324   3.104
90130SOL    HW172222   6.002   0.387   3.038
90130SOL    HW272223   5.976   0.247   3.091
90131SOL     OW72224   0.907   9.282   5.552
90131SOL    HW172225   1.002   9.274   5.553
90131SOL    HW272226   0.876   9.197   5.584
90132SOL     OW72227   9.606  10.725   7.632
90132SOL    HW172228   9.644  10.691   7.714
90132SOL    HW272229   9.522  10.681   7.625
90133SOL     OW72230   1.392  10.984  11.106
90133SOL    HW172231   1.340  11.028  11.173
90133SOL    HW272232   1.436  11.055  11.060
90134SOL     OW72233   8.064  12.560   9.958
90134SOL    HW172234   8.137  12.526   9.906
90134SOL    HW272235   8.076  12.655   9.954
90135SOL     OW72236  10.169  14.317   7.221
90135SOL    HW172237  10.226  14.371   7.276
90135SOL    HW272238  10.227  14.278   7.156
90136SOL     OW72239   4.366  10.155   0.826
90136SOL    HW172240   4.412  10.130   0.747
90136SOL    HW272241   4.298  10.088   0.836
90137SOL     OW72242   5.678  13.191   9.059
90137SOL    HW172243   5.714  13.161   8.975
90137SOL    HW272244   5.725  13.273   9.077
90138SOL     OW72245   0.758  12.145  13.208
90138SOL    HW172246   0.663  12.151  13.213
90138SOL    HW272247   0.779  12.057  13.240
90139SOL     OW72248  14.079  12.846   6.586
90139SOL    HW172249  14.062  12.912   6.654
90139SOL    HW272250  14.067  12.762   6.631
90140SOL     OW72251   6.890  14.276   2.541
90140SOL    HW172252   6.833  14.216   2.495
90140SOL    HW272253   6.889  14.356   2.488
90141SOL     OW72254  12.621   6.630  11.445
90141SOL    HW172255  12.672   6.595  11.372
90141SOL    HW272256  12.650   6.580  11.521
90142SOL     OW72257   9.304   0.702   0.565
90142SOL    HW172258   9.389   0.719   0.606
90142SOL    HW272259   9.310   0.611   0.535
90143SOL     OW72260  14.344   1.684  11.469
90143SOL    HW172261  14.345   1.632  11.388
90143SOL    HW272262  14.414   1.748  11.456
90144SOL     OW72263   0.363   4.101   9.652
90144SOL    HW172264   0.432   4.046   9.689
90144SOL    HW272265   0.302   4.040   9.611
90145SOL     OW72266  14.488   2.563   4.006
90145SOL    HW172267  14.540   2.495   4.051
90145SOL    HW272268  14.551   2.633   3.990
90146SOL     OW72269   7.587   6.811  12.767
90146SOL    HW172270   7.569   6.897  12.805
90146SOL    HW272271   7.504   6.764  12.776
90147SOL     OW72272  13.040   0.685  13.852
90147SOL    HW172273  13.001   0.653  13.771
90147SOL    HW272274  13.134   0.690  13.833
90148SOL     OW72275  11.790   7.470   1.684
90148SOL    HW172276  11.852   7.437   1.749
90148SOL    HW272277  11.706   7.471   1.729
90149SOL     OW72278   8.704  12.053   3.719
90149SOL    HW172279   8.750  12.066   3.635
90149SOL    HW272280   8.673  12.140   3.743
90150SOL     OW72281   8.373   3.949   4.705
90150SOL    HW172282   8.372   3.875   4.765
90150SOL    HW272283   8.291   3.996   4.723
90151SOL     OW72284   6.419   4.412   4.194
90151SOL    HW172285   6.381   4.417   4.107
90151SOL    HW272286   6.467   4.329   4.194
90152SOL     OW72287  12.228   8.595   6.966
90152SOL    HW172288  12.148   8.563   7.008
90152SOL    HW272289  12.241   8.682   7.003
90153SOL     OW72290   9.696   8.963  12.072
90153SOL    HW172291   9.719   8.983  12.162
90153SOL    HW272292   9.760   8.896  12.045
90154SOL     OW72293  11.919   8.959  14.598
90154SOL    HW172294  11.938   8.868  14.621
90154SOL    HW272295  11.900   9.001  14.682
90155SOL     OW72296  11.873   1.991   8.622
90155SOL    HW172297  11.956   1.961   8.660
90155SOL    HW272298  11.808   1.972   8.689
90156SOL     OW72299   1.204   5.231   2.864
90156SOL    HW172300   1.117   5.267   2.852
90156SOL    HW272301   1.262   5.291   2.818
90157SOL     OW72302  12.050  10.699  12.079
90157SOL    HW172303  12.049  10.639  12.153
90157SOL    HW272304  12.071  10.645  12.003
90158SOL     OW72305  12.092  10.390  10.296
90158SOL    HW172306  12.072  10.307  10.253
90158SOL    HW272307  12.126  10.447  10.227
90159SOL     OW72308   1.261   9.299   5.694
90159SOL    HW172309   1.339   9.253   5.725
90159SOL    HW272310   1.272   9.389   5.724
90160SOL     OW72311   7.290  10.767  12.732
90160SOL    HW172312   7.287  10.859  12.758
90160SOL    HW272313   7.283  10.769  12.636
90161SOL     OW72314   3.740   3.466  10.728
90161SOL    HW172315   3.736   3.458  10.823
90161SOL    HW272316   3.768   3.556  10.713
90162SOL     OW72317   4.793  10.317  10.070
90162SOL    HW172318   4.864  10.337  10.009
90162SOL    HW272319   4.731  10.265  10.019
90163SOL     OW72320  10.915  11.707  13.723
90163SOL    HW172321  10.871  11.691  13.640
90163SOL    HW272322  10.902  11.801  13.738
90164SOL     OW72323   8.996  12.945   6.829
90164SOL    HW172324   9.026  12.884   6.761
90164SOL    HW272325   8.928  12.997   6.785
90165SOL     OW72326   8.611   7.918   1.022
90165SOL    HW172327   8.680   7.951   0.964
90165SOL    HW272328   8.529   7.950   0.983
90166SOL     OW72329   7.891   5.430   8.604
90166SOL    HW172330   7.958   5.455   8.667
90166SOL    HW272331   7.897   5.496   8.535
90167SOL     OW72332   1.044  10.928   8.353
90167SOL    HW172333   0.953  10.933   8.322
90167SOL    HW272334   1.041  10.870   8.429
90168SOL     OW72335   6.939   3.348  12.815
90168SOL    HW172336   6.939   3.396  12.898
90168SOL    HW272337   6.927   3.257  12.841
90169SOL     OW72338   9.818   9.786   2.128
90169SOL    HW172339   9.807   9.869   2.083
90169SOL    HW272340   9.808   9.720   2.060
90170SOL     OW72341  14.605   3.783   1.801
90170SOL    HW172342  14.553   3.804   1.723
90170SOL    HW272343  14.565   3.834   1.871
90171SOL     OW72344   3.991   4.509   8.434
90171SOL    HW172345   3.964   4.559   8.511
90171SOL    HW272346   4.002   4.574   8.365
90172SOL     OW72347  13.224   2.212  14.018
90172SOL    HW172348  13.240   2.125  13.981
90172SOL    HW272349  13.276   2.214  14.098
90173SOL     OW72350   7.853   1.648  11.595
90173SOL    HW172351   7.922   1.590  11.564
90173SOL    HW272352   7.866   1.729  11.545
90174SOL     OW72353   9.662  13.508   7.951
90174SOL    HW172354   9.570  13.523   7.974
90174SOL    HW272355   9.711  13.530   8.030
90175SOL     OW72356   0.064   2.907  10.564
90175SOL    HW172357   0.059   2.984  10.508
90175SOL    HW272358   0.127   2.931  10.632
90176SOL     OW72359   0.086   6.813   7.265
90176SOL    HW172360   0.137   6.866   7.203
90176SOL    HW272361   0.113   6.845   7.351
90177SOL     OW72362   2.793  13.608   1.808
90177SOL    HW172363   2.798  13.565   1.893
90177SOL    HW272364   2.700  13.608   1.786
90178SOL     OW72365  11.327   8.364   0.135
90178SOL    HW172366  11.376   8.401   0.208
90178SOL    HW272367  11.366   8.405   0.057
90179SOL     OW72368   3.444  10.153   5.564
90179SOL    HW172369   3.363  10.103   5.573
90179SOL    HW272370   3.420  10.229   5.511
90180SOL     OW72371  13.180   6.140   6.839
90180SOL    HW172372  13.131   6.175   6.914
90180SOL    HW272373  13.207   6.052   6.867
90181SOL     OW72374   0.730  14.063   4.493
90181SOL    HW172375   0.815  14.025   4.471
90181SOL    HW272376   0.690  14.084   4.409
90182SOL     OW72377  12.455  14.438   7.264
90182SOL    HW172378  12.426  14.347   7.262
90182SOL    HW272379  12.393  14.482   7.322
90183SOL     OW72380  10.766  10.138  10.094
90183SOL    HW172381  10.813  10.217  10.120
90183SOL    HW272382  10.688  10.136  10.150
90184SOL     OW72383   0.281  12.914   8.825
90184SOL    HW172384   0.215  12.928   8.756
90184SOL    HW272385   0.238  12.943   8.905
90185SOL     OW72386  12.708   1.196  10.497
90185SOL    HW172387  12.643   1.264  10.515
90185SOL    HW272388  12.783   1.218  10.552
90186SOL     OW72389   1.356  14.139   3.045
90186SOL    HW172390   1.378  14.047   3.031
90186SOL    HW272391   1.287  14.157   2.982
90187SOL     OW72392  14.462   7.625   6.002
90187SOL    HW172393  14.417   7.650   6.082
90187SOL    HW272394  14.529   7.563   6.030
90188SOL     OW72395   0.785   0.979   5.117
90188SOL    HW172396   0.796   0.887   5.093
90188SOL    HW272397   0.874   1.013   5.124
90189SOL     OW72398  14.812   8.309   3.836
90189SOL    HW172399  14.766   8.370   3.893
90189SOL    HW272400  14.744   8.248   3.807
90190SOL     OW72401   4.196  12.319   5.274
90190SOL    HW172402   4.208  12.403   5.320
90190SOL    HW272403   4.108  12.291   5.299
90191SOL     OW72404   1.140   9.268  11.036
90191SOL    HW172405   1.161   9.352  10.995
90191SOL    HW272406   1.193   9.204  10.989
90192SOL     OW72407   9.176   7.122   0.679
90192SOL    HW172408   9.206   7.049   0.626
90192SOL    HW272409   9.203   7.200   0.631
90193SOL     OW72410   1.205   3.898   5.703
90193SOL    HW172411   1.132   3.926   5.757
90193SOL    HW272412   1.204   3.802   5.708
90194SOL     OW72413   4.139   9.882  13.289
90194SOL    HW172414   4.086   9.953  13.253
90194SOL    HW272415   4.219   9.882  13.237
90195SOL     OW72416   7.798  12.963   0.748
90195SOL    HW172417   7.850  13.007   0.815
90195SOL    HW272418   7.861  12.909   0.700
90196SOL     OW72419   2.235   8.309   9.168
90196SOL    HW172420   2.149   8.315   9.208
90196SOL    HW272421   2.249   8.215   9.155
90197SOL     OW72422   3.587   7.005   0.080
90197SOL    HW172423   3.519   6.951   0.041
90197SOL    HW272424   3.626   6.950   0.148
90198SOL     OW72425   9.853   8.413  12.041
90198SOL    HW172426   9.891   8.415  12.129
90198SOL    HW272427   9.777   8.355  12.049
90199SOL     OW72428  14.503   5.780   5.395
90199SOL    HW172429  14.575   5.718   5.383
90199SOL    HW272430  14.541   5.864   5.370
90200SOL     OW72431   6.203   0.003  10.652
90200SOL    HW172432   6.184  14.786  10.669
90200SOL    HW272433   6.231   0.005  10.561
90201SOL     OW72434  13.924   3.520   4.137
90201SOL    HW172435  13.884   3.578   4.202
90201SOL    HW272436  13.936   3.575   4.060
90202SOL     OW72437   4.792  12.677   7.445
90202SOL    HW172438   4.754  12.683   7.532
90202SOL    HW272439   4.741  12.738   7.392
90203SOL     OW72440   7.332   8.868   3.584
90203SOL    HW172441   7.324   8.797   3.520
90203SOL    HW272442   7.381   8.936   3.540
90204SOL     OW72443   8.829  11.161  12.198
90204SOL    HW172444   8.807  11.202  12.281
90204SOL    HW272445   8.898  11.098  12.219
90205SOL     OW72446  11.117  14.262   4.287
90205SOL    HW172447  11.074  14.324   4.346
90205SOL    HW272448  11.045  14.221   4.239
90206SOL     OW72449   7.857   8.886   1.437
90206SOL    HW172450   7.903   8.832   1.374
90206SOL    HW272451   7.920   8.953   1.463
90207SOL     OW72452  10.001   6.416   4.409
90207SOL    HW172453   9.945   6.489   4.381
90207SOL    HW272454  10.082   6.457   4.438
90208SOL     OW72455   7.168  13.385  10.808
90208SOL    HW172456   7.224  13.448  10.763
90208SOL    HW272457   7.131  13.332  10.738
90209SOL     OW72458   0.456  11.252   2.157
90209SOL    HW172459   0.388  11.296   2.208
90209SOL    HW272460   0.530  11.312   2.158
90210SOL     OW72461   6.709  11.436   7.534
90210SOL    HW172462   6.722  11.528   7.559
90210SOL    HW272463   6.782  11.390   7.576
90211SOL     OW72464   5.420   0.342  11.553
90211SOL    HW172465   5.447   0.277  11.489
90211SOL    HW272466   5.332   0.367  11.526
90212SOL     OW72467  11.526   1.947  12.417
90212SOL    HW172468  11.442   1.933  12.375
90212SOL    HW272469  11.557   1.858  12.438
90213SOL     OW72470  11.945   4.394  12.449
90213SOL    HW172471  11.966   4.412  12.358
90213SOL    HW272472  11.911   4.304  12.449
90214SOL     OW72473   9.812   8.630  11.131
90214SOL    HW172474   9.883   8.672  11.180
90214SOL    HW272475   9.761   8.702  11.095
90215SOL     OW72476   0.892   3.274   6.931
90215SOL    HW172477   0.950   3.282   6.856
90215SOL    HW272478   0.893   3.180   6.952
90216SOL     OW72479   2.233   6.328  13.865
90216SOL    HW172480   2.268   6.403  13.914
90216SOL    HW272481   2.311   6.282  13.834
90217SOL     OW72482   3.784   4.259   4.089
90217SOL    HW172483   3.759   4.168   4.071
90217SOL    HW272484   3.813   4.293   4.004
90218SOL     OW72485  14.530   1.617   9.273
90218SOL    HW172486  14.586   1.541   9.287
90218SOL    HW272487  14.559   1.654   9.190
90219SOL     OW72488   0.930  13.185   4.497
90219SOL    HW172489   0.835  13.195   4.502
90219SOL    HW272490   0.945  13.091   4.508
90220SOL     OW72491   3.476   3.518   9.015
90220SOL    HW172492   3.384   3.541   9.023
90220SOL    HW272493   3.487   3.496   8.922
90221SOL     OW72494  12.999  14.470   3.718
90221SOL    HW172495  12.927  14.473   3.782
90221SOL    HW272496  12.960  14.430   3.640
90222SOL     OW72497   4.720  13.719   6.346
90222SOL    HW172498   4.739  13.759   6.261
90222SOL    HW272499   4.797  13.666   6.365
90223SOL     OW72500   1.204   8.428   8.325
90223SOL    HW172501   1.221   8.506   8.272
90223SOL    HW272502   1.291   8.394   8.346
90224SOL     OW72503   8.228  10.556   3.289
90224SOL    HW172504   8.141  10.515   3.295
90224SOL    HW272505   8.267  10.518   3.210
90225SOL     OW72506  11.435   0.704   4.239
90225SOL    HW172507  11.341   0.689   4.231
90225SOL    HW272508  11.442   0.798   4.260
90226SOL     OW72509  11.729   9.010   3.045
90226SOL    HW172510  11.691   8.927   3.014
90226SOL    HW272511  11.653   9.065   3.065
90227SOL     OW72512   7.557  13.709   5.537
90227SOL    HW172513   7.508  13.763   5.598
90227SOL    HW272514   7.639  13.689   5.582
90228SOL     OW72515   7.249   5.811  12.317
90228SOL    HW172516   7.215   5.895  12.287
90228SOL    HW272517   7.200   5.746  12.266
90229SOL     OW72518  13.241  11.132  12.227
90229SOL    HW172519  13.273  11.060  12.281
90229SOL    HW272520  13.212  11.089  12.146
90230SOL     OW72521   6.000   4.618   3.146
90230SOL    HW172522   6.004   4.631   3.241
90230SOL    HW272523   5.950   4.693   3.114
90231SOL     OW72524  12.159  11.701   8.173
90231SOL    HW172525  12.245  11.682   8.137
90231SOL    HW272526  12.149  11.640   8.246
90232SOL     OW72527  14.675   6.215   7.599
90232SOL    HW172528  14.691   6.240   7.508
90232SOL    HW272529  14.712   6.127   7.607
90233SOL     OW72530   1.253   0.024  11.583
90233SOL    HW172531   1.165   0.027  11.621
90233SOL    HW272532   1.262  14.811  11.549
90234SOL     OW72533   9.877  14.104  12.885
90234SOL    HW172534   9.947  14.107  12.820
90234SOL    HW272535   9.876  14.013  12.915
90235SOL     OW72536  11.097   1.346  13.525
90235SOL    HW172537  11.172   1.405  13.514
90235SOL    HW272538  11.134   1.258  13.513
90236SOL     OW72539   7.347   0.077  14.193
90236SOL    HW172540   7.280   0.120  14.141
90236SOL    HW272541   7.401   0.030  14.129
90237SOL     OW72542   8.909   5.249   7.694
90237SOL    HW172543   8.953   5.327   7.726
90237SOL    HW272544   8.969   5.177   7.714
90238SOL     OW72545   2.729   7.966   5.726
90238SOL    HW172546   2.746   8.003   5.639
90238SOL    HW272547   2.700   8.040   5.779
90239SOL     OW72548   1.728   9.921   4.987
90239SOL    HW172549   1.764  10.007   5.009
90239SOL    HW272550   1.792   9.882   4.928
90240SOL     OW72551   5.517   4.232   5.844
90240SOL    HW172552   5.513   4.306   5.905
90240SOL    HW272553   5.565   4.165   5.892
90241SOL     OW72554  11.107  13.217   4.335
90241SOL    HW172555  11.184  13.180   4.379
90241SOL    HW272556  11.132  13.308   4.317
90242SOL     OW72557   7.797  13.851   4.580
90242SOL    HW172558   7.871  13.804   4.541
90242SOL    HW272559   7.787  13.929   4.526
90243SOL     OW72560   8.164   5.552   1.739
90243SOL    HW172561   8.195   5.623   1.795
90243SOL    HW272562   8.096   5.593   1.684
90244SOL     OW72563   9.839   2.879  13.011
90244SOL    HW172564   9.807   2.793  12.986
90244SOL    HW272565   9.931   2.866  13.031
90245SOL     OW72566   8.706   9.800   3.475
90245SOL    HW172567   8.779   9.752   3.437
90245SOL    HW272568   8.706   9.776   3.568
90246SOL     OW72569  11.741  10.730   7.790
90246SOL    HW172570  11.657  10.683   7.793
90246SOL    HW272571  11.738  10.779   7.708
90247SOL     OW72572   6.879  14.673  11.581
90247SOL    HW172573   6.950  14.660  11.517
90247SOL    HW272574   6.822  14.739  11.540
90248SOL     OW72575   4.896   2.658  10.261
90248SOL    HW172576   4.896   2.753  10.247
90248SOL    HW272577   4.831   2.625  10.199
90249SOL     OW72578   9.870   0.751   1.320
90249SOL    HW172579   9.886   0.672   1.270
90249SOL    HW272580   9.881   0.724   1.412
90250SOL     OW72581  13.342   4.371   3.186
90250SOL    HW172582  13.275   4.348   3.122
90250SOL    HW272583  13.293   4.390   3.266
90251SOL     OW72584   5.393  13.863   0.724
90251SOL    HW172585   5.488  13.876   0.730
90251SOL    HW272586   5.356  13.943   0.763
90252SOL     OW72587   2.771   2.050   9.331
90252SOL    HW172588   2.754   1.958   9.310
90252SOL    HW272589   2.850   2.072   9.282
90253SOL     OW72590   2.418   1.074   4.695
90253SOL    HW172591   2.370   1.050   4.775
90253SOL    HW272592   2.367   1.036   4.624
90254SOL     OW72593  14.550  11.577  11.158
90254SOL    HW172594  14.471  11.522  11.158
90254SOL    HW272595  14.524  11.656  11.206
90255SOL     OW72596   5.116   3.224   7.784
90255SOL    HW172597   5.026   3.246   7.809
90255SOL    HW272598   5.154   3.185   7.862
90256SOL     OW72599  14.205  11.490  14.326
90256SOL    HW172600  14.242  11.472  14.412
90256SOL    HW272601  14.124  11.539  14.345
90257SOL     OW72602   3.969  14.577   3.791
90257SOL    HW172603   3.893  14.546   3.839
90257SOL    HW272604   3.998  14.501   3.740
90258SOL     OW72605  11.027  13.810  14.640
90258SOL    HW172606  10.962  13.845  14.700
90258SOL    HW272607  11.005  13.847  14.554
90259SOL     OW72608   6.872   6.993   6.700
90259SOL    HW172609   6.838   6.913   6.660
90259SOL    HW272610   6.811   7.011   6.772
90260SOL     OW72611   1.099   2.564   1.266
90260SOL    HW172612   1.048   2.644   1.253
90260SOL    HW272613   1.035   2.493   1.258
90261SOL     OW72614  14.586   4.699   6.807
90261SOL    HW172615  14.556   4.698   6.716
90261SOL    HW272616  14.528   4.761   6.851
90262SOL     OW72617  13.238  12.826   8.149
90262SOL    HW172618  13.321  12.867   8.173
90262SOL    HW272619  13.261  12.764   8.080
90263SOL     OW72620   6.087   5.516   4.624
90263SOL    HW172621   5.993   5.522   4.606
90263SOL    HW272622   6.120   5.605   4.610
90264SOL     OW72623   5.098  14.194   6.668
90264SOL    HW172624   5.189  14.176   6.692
90264SOL    HW272625   5.105  14.248   6.589
90265SOL     OW72626  10.186  11.669  13.128
90265SOL    HW172627  10.176  11.588  13.079
90265SOL    HW272628  10.098  11.704  13.136
90266SOL     OW72629   2.945  13.468   7.440
90266SOL    HW172630   3.037  13.481   7.464
90266SOL    HW272631   2.923  13.544   7.387
90267SOL     OW72632   1.016   6.012   8.821
90267SOL    HW172633   0.924   6.029   8.803
90267SOL    HW272634   1.025   6.028   8.915
90268SOL     OW72635  10.680  11.843   6.687
90268SOL    HW172636  10.690  11.771   6.749
90268SOL    HW272637  10.624  11.808   6.617
90269SOL     OW72638  11.310  13.913   6.830
90269SOL    HW172639  11.319  13.846   6.762
90269SOL    HW272640  11.388  13.900   6.886
90270SOL     OW72641   5.946  13.147   4.372
90270SOL    HW172642   5.987  13.204   4.438
90270SOL    HW272643   6.020  13.100   4.333
90271SOL     OW72644   5.342  10.536   9.427
90271SOL    HW172645   5.288  10.459   9.414
90271SOL    HW272646   5.285  10.599   9.471
90272SOL     OW72647   4.436   4.557   7.401
90272SOL    HW172648   4.461   4.649   7.405
90272SOL    HW272649   4.413   4.542   7.310
90273SOL     OW72650   7.590   9.643   7.738
90273SOL    HW172651   7.658   9.606   7.681
90273SOL    HW272652   7.546   9.708   7.683
90274SOL     OW72653   5.303  11.511   4.888
90274SOL    HW172654   5.379  11.565   4.865
90274SOL    HW272655   5.242  11.524   4.815
90275SOL     OW72656   9.788   0.795   8.996
90275SOL    HW172657   9.821   0.862   9.056
90275SOL    HW272658   9.866   0.752   8.962
90276SOL     OW72659  11.921  14.480   2.667
90276SOL    HW172660  11.859  14.415   2.636
90276SOL    HW272661  11.888  14.507   2.752
90277SOL     OW72662  11.677   4.665   6.517
90277SOL    HW172663  11.586   4.639   6.503
90277SOL    HW272664  11.676   4.761   6.509
90278SOL     OW72665   5.072   4.431   9.572
90278SOL    HW172666   5.021   4.352   9.583
90278SOL    HW272667   5.117   4.443   9.656
90279SOL     OW72668   0.042   5.066   1.188
90279SOL    HW172669   0.021   5.110   1.106
90279SOL    HW272670   0.129   5.029   1.174
90280SOL     OW72671  12.571   0.374   5.639
90280SOL    HW172672  12.576   0.453   5.693
90280SOL    HW272673  12.543   0.405   5.553
90281SOL     OW72674   9.570   4.132   6.942
90281SOL    HW172675   9.511   4.180   6.884
90281SOL    HW272676   9.657   4.165   6.921
90282SOL     OW72677  13.761  11.162  12.265
90282SOL    HW172678  13.679  11.118  12.245
90282SOL    HW272679  13.750  11.251  12.230
90283SOL     OW72680   1.458  10.115   7.592
90283SOL    HW172681   1.416  10.169   7.660
90283SOL    HW272682   1.396  10.043   7.578
90284SOL     OW72683   4.713   1.137   8.049
90284SOL    HW172684   4.658   1.071   8.091
90284SOL    HW272685   4.685   1.135   7.957
90285SOL     OW72686  11.196  14.284   1.909
90285SOL    HW172687  11.167  14.248   1.825
90285SOL    HW272688  11.269  14.343   1.887
90286SOL     OW72689   0.072  11.244   1.706
90286SOL    HW172690  14.859  11.221   1.735
90286SOL    HW272691   0.059  11.289   1.622
90287SOL     OW72692   1.264   8.953  12.142
90287SOL    HW172693   1.291   8.999  12.063
90287SOL    HW272694   1.298   8.864  12.131
90288SOL     OW72695   8.117  12.409   7.539
90288SOL    HW172696   8.096  12.419   7.446
90288SOL    HW272697   8.047  12.355   7.575
90289SOL     OW72698   7.315   4.755   4.292
90289SOL    HW172699   7.269   4.674   4.267
90289SOL    HW272700   7.405   4.740   4.265
90290SOL     OW72701   5.455   2.468   6.551
90290SOL    HW172702   5.451   2.500   6.641
90290SOL    HW272703   5.479   2.376   6.559
90291SOL     OW72704   8.926   8.057   3.916
90291SOL    HW172705   8.929   8.119   3.844
90291SOL    HW272706   8.989   8.090   3.980
90292SOL     OW72707   5.831   3.667  14.506
90292SOL    HW172708   5.789   3.752  14.521
90292SOL    HW272709   5.761   3.611  14.473
90293SOL     OW72710  12.726   8.158   0.455
90293SOL    HW172711  12.670   8.081   0.442
90293SOL    HW272712  12.708   8.214   0.380
90294SOL     OW72713   3.375   9.283   1.946
90294SOL    HW172714   3.357   9.377   1.946
90294SOL    HW272715   3.321   9.249   2.018
90295SOL     OW72716   4.871   0.140  11.326
90295SOL    HW172717   4.827   0.179  11.250
90295SOL    HW272718   4.853   0.200  11.398
90296SOL     OW72719  10.909   9.355   2.170
90296SOL    HW172720  10.959   9.366   2.089
90296SOL    HW272721  10.844   9.425   2.168
90297SOL     OW72722  14.371   3.740   2.174
90297SOL    HW172723  14.342   3.773   2.259
90297SOL    HW272724  14.455   3.699   2.192
90298SOL     OW72725  14.204   2.427   6.492
90298SOL    HW172726  14.281   2.399   6.442
90298SOL    HW272727  14.240   2.472   6.569
90299SOL     OW72728   4.861   1.527   6.603
90299SOL    HW172729   4.900   1.474   6.672
90299SOL    HW272730   4.815   1.464   6.547
90300SOL     OW72731  13.099  12.288   6.550
90300SOL    HW172732  13.101  12.333   6.466
90300SOL    HW272733  13.178  12.316   6.595
90301SOL     OW72734   2.312   5.765   6.421
90301SOL    HW172735   2.336   5.783   6.331
90301SOL    HW272736   2.226   5.725   6.416
90302SOL     OW72737   7.716   9.163   9.877
90302SOL    HW172738   7.741   9.071   9.884
90302SOL    HW272739   7.634   9.163   9.827
90303SOL     OW72740   2.172   7.580   7.689
90303SOL    HW172741   2.082   7.551   7.673
90303SOL    HW272742   2.168   7.676   7.680
90304SOL     OW72743  13.408   0.336   1.733
90304SOL    HW172744  13.473   0.399   1.765
90304SOL    HW272745  13.336   0.341   1.797
90305SOL     OW72746   6.532   7.822   4.255
90305SOL    HW172747   6.588   7.745   4.267
90305SOL    HW272748   6.586   7.896   4.285
90306SOL     OW72749   8.544   0.302   0.996
90306SOL    HW172750   8.500   0.253   0.927
90306SOL    HW272751   8.474   0.337   1.051
90307SOL     OW72752   9.676   4.751   8.772
90307SOL    HW172753   9.593   4.713   8.798
90307SOL    HW272754   9.653   4.825   8.716
90308SOL     OW72755  11.290   0.238   8.231
90308SOL    HW172756  11.384   0.221   8.225
90308SOL    HW272757  11.271   0.299   8.160
90309SOL     OW72758   0.585  14.875   2.135
90309SOL    HW172759   0.514   0.061   2.153
90309SOL    HW272760   0.545  14.807   2.081
90310SOL     OW72761   4.571  14.105   7.824
90310SOL    HW172762   4.604  14.025   7.783
90310SOL    HW272763   4.567  14.168   7.753
90311SOL     OW72764   3.102   9.156  13.091
90311SOL    HW172765   3.103   9.065  13.118
90311SOL    HW272766   3.194   9.179  13.077
90312SOL     OW72767   2.255  10.476  11.539
90312SOL    HW172768   2.170  10.499  11.577
90312SOL    HW272769   2.265  10.535  11.464
90313SOL     OW72770   2.080   7.370  12.699
90313SOL    HW172771   2.156   7.360  12.641
90313SOL    HW272772   2.112   7.339  12.784
90314SOL     OW72773   0.336   8.172   1.057
90314SOL    HW172774   0.424   8.188   1.091
90314SOL    HW272775   0.349   8.161   0.963
90315SOL     OW72776   7.758   9.305  10.873
90315SOL    HW172777   7.671   9.323  10.908
90315SOL    HW272778   7.772   9.211  10.890
90316SOL     OW72779   6.076   8.138  11.070
90316SOL    HW172780   6.016   8.080  11.023
90316SOL    HW272781   6.032   8.155  11.153
90317SOL     OW72782   7.864   3.975  13.930
90317SOL    HW172783   7.881   4.068  13.945
90317SOL    HW272784   7.836   3.941  14.014
90318SOL     OW72785   1.379   4.864   4.952
90318SOL    HW172786   1.341   4.777   4.938
90318SOL    HW272787   1.303   4.921   4.967
90319SOL     OW72788  11.752  11.351   9.321
90319SOL    HW172789  11.808  11.365   9.397
90319SOL    HW272790  11.789  11.406   9.252
90320SOL     OW72791  10.819   9.142   1.588
90320SOL    HW172792  10.833   9.236   1.579
90320SOL    HW272793  10.804   9.128   1.682
90321SOL     OW72794  14.428   3.096   3.028
90321SOL    HW172795  14.422   3.016   3.080
90321SOL    HW272796  14.370   3.081   2.953
90322SOL     OW72797  12.360  13.420  13.944
90322SOL    HW172798  12.390  13.511  13.946
90322SOL    HW272799  12.435  13.371  13.908
90323SOL     OW72800   3.694  14.042  13.930
90323SOL    HW172801   3.647  13.973  13.976
90323SOL    HW272802   3.720  14.002  13.847
90324SOL     OW72803  12.182   1.498  10.997
90324SOL    HW172804  12.252   1.468  11.055
90324SOL    HW272805  12.206   1.463  10.911
90325SOL     OW72806   9.351   9.883   6.667
90325SOL    HW172807   9.316   9.926   6.745
90325SOL    HW272808   9.290   9.906   6.597
90326SOL     OW72809   9.983   2.186   4.662
90326SOL    HW172810  10.047   2.237   4.711
90326SOL    HW272811  10.023   2.100   4.654
90327SOL     OW72812   3.486   9.521   3.746
90327SOL    HW172813   3.552   9.583   3.777
90327SOL    HW272814   3.502   9.442   3.797
90328SOL     OW72815   9.914   7.203   4.753
90328SOL    HW172816   9.968   7.276   4.725
90328SOL    HW272817   9.879   7.165   4.672
90329SOL     OW72818   9.509  13.331  10.542
90329SOL    HW172819   9.462  13.290  10.614
90329SOL    HW272820   9.602  13.314  10.561
90330SOL     OW72821   1.084   4.831  11.432
90330SOL    HW172822   1.156   4.869  11.383
90330SOL    HW272823   1.078   4.741  11.401
90331SOL     OW72824  12.459  13.477   3.078
90331SOL    HW172825  12.483  13.543   3.013
90331SOL    HW272826  12.459  13.523   3.161
90332SOL     OW72827   1.014   7.622   7.648
90332SOL    HW172828   1.018   7.589   7.738
90332SOL    HW272829   1.105   7.625   7.619
90333SOL     OW72830  12.304  11.303  14.503
90333SOL    HW172831  12.381  11.260  14.464
90333SOL    HW272832  12.332  11.393  14.518
90334SOL     OW72833  10.918   2.690   3.665
90334SOL    HW172834  11.009   2.715   3.656
90334SOL    HW272835  10.914   2.598   3.637
90335SOL     OW72836   6.887   2.493   9.527
90335SOL    HW172837   6.849   2.575   9.557
90335SOL    HW272838   6.812   2.435   9.515
90336SOL     OW72839  12.581   6.688  12.619
90336SOL    HW172840  12.508   6.737  12.656
90336SOL    HW272841  12.612   6.743  12.546
90337SOL     OW72842  12.193   6.692   5.377
90337SOL    HW172843  12.214   6.771   5.328
90337SOL    HW272844  12.100   6.677   5.359
90338SOL     OW72845   7.972  13.157   4.397
90338SOL    HW172846   7.911  13.105   4.449
90338SOL    HW272847   8.035  13.191   4.460
90339SOL     OW72848   9.416   8.278   6.646
90339SOL    HW172849   9.365   8.225   6.584
90339SOL    HW272850   9.501   8.288   6.604
90340SOL     OW72851   4.577  12.061   6.451
90340SOL    HW172852   4.500  12.050   6.396
90340SOL    HW272853   4.568  12.149   6.488
90341SOL     OW72854   7.424   0.000  12.846
90341SOL    HW172855   7.440  14.870  12.752
90341SOL    HW272856   7.488  14.817  12.885
90342SOL     OW72857  13.115   2.269   4.809
90342SOL    HW172858  13.041   2.303   4.861
90342SOL    HW272859  13.150   2.346   4.765
90343SOL     OW72860  14.513  12.971   8.421
90343SOL    HW172861  14.579  12.962   8.490
90343SOL    HW272862  14.430  12.954   8.465
90344SOL     OW72863   4.736   3.700   9.665
90344SOL    HW172864   4.764   3.756   9.592
90344SOL    HW272865   4.695   3.624   9.623
90345SOL     OW72866  11.907   7.553  10.114
90345SOL    HW172867  11.825   7.565  10.066
90345SOL    HW272868  11.974   7.595  10.059
90346SOL     OW72869   3.864  11.880   3.531
90346SOL    HW172870   3.788  11.934   3.548
90346SOL    HW272871   3.938  11.940   3.536
90347SOL     OW72872   3.565  14.170  13.635
90347SOL    HW172873   3.621  14.246  13.624
90347SOL    HW272874   3.610  14.116  13.700
90348SOL     OW72875   0.747   4.639   5.557
90348SOL    HW172876   0.822   4.697   5.547
90348SOL    HW272877   0.733   4.603   5.469
90349SOL     OW72878   1.067  14.584   8.567
90349SOL    HW172879   1.095  14.598   8.657
90349SOL    HW272880   1.081  14.491   8.552
90350SOL     OW72881   1.153   2.901  12.893
90350SOL    HW172882   1.218   2.963  12.860
90350SOL    HW272883   1.110   2.868  12.814
90351SOL     OW72884  12.908  13.425   7.401
90351SOL    HW172885  12.967  13.425   7.477
90351SOL    HW272886  12.965  13.447   7.327
90352SOL     OW72887   1.793   3.854   6.853
90352SOL    HW172888   1.760   3.779   6.905
90352SOL    HW272889   1.713   3.898   6.823
90353SOL     OW72890   3.348   3.681   4.882
90353SOL    HW172891   3.367   3.666   4.974
90353SOL    HW272892   3.350   3.776   4.871
90354SOL     OW72893   2.009   9.477  10.416
90354SOL    HW172894   1.973   9.470  10.328
90354SOL    HW272895   1.934   9.502  10.471
90355SOL     OW72896   2.882   3.340   8.262
90355SOL    HW172897   2.962   3.294   8.288
90355SOL    HW272898   2.825   3.333   8.338
90356SOL     OW72899   6.001   1.563  12.915
90356SOL    HW172900   5.911   1.584  12.892
90356SOL    HW272901   6.050   1.643  12.899
90357SOL     OW72902  12.843   5.101   5.752
90357SOL    HW172903  12.818   5.165   5.819
90357SOL    HW272904  12.760   5.075   5.712
90358SOL     OW72905   0.450   5.534  10.642
90358SOL    HW172906   0.512   5.607  10.639
90358SOL    HW272907   0.500   5.461  10.676
90359SOL     OW72908   1.695   3.765   2.385
90359SOL    HW172909   1.603   3.773   2.362
90359SOL    HW272910   1.702   3.679   2.427
90360SOL     OW72911   9.992   5.859   5.417
90360SOL    HW172912  10.080   5.851   5.380
90360SOL    HW272913   9.964   5.768   5.430
90361SOL     OW72914   5.681  13.128   4.429
90361SOL    HW172915   5.765  13.126   4.382
90361SOL    HW272916   5.677  13.215   4.467
90362SOL     OW72917   4.437  12.994   5.315
90362SOL    HW172918   4.394  13.058   5.259
90362SOL    HW272919   4.462  13.044   5.393
90363SOL     OW72920  11.459   9.437   8.733
90363SOL    HW172921  11.412   9.460   8.813
90363SOL    HW272922  11.438   9.344   8.719
90364SOL     OW72923   3.163   3.401   3.311
90364SOL    HW172924   3.229   3.381   3.245
90364SOL    HW272925   3.199   3.476   3.359
90365SOL     OW72926   3.247   5.851   4.655
90365SOL    HW172927   3.276   5.827   4.567
90365SOL    HW272928   3.271   5.776   4.709
90366SOL     OW72929  12.662  13.509   7.082
90366SOL    HW172930  12.723  13.443   7.116
90366SOL    HW272931  12.643  13.565   7.157
90367SOL     OW72932   0.307   2.589  10.752
90367SOL    HW172933   0.223   2.586  10.705
90367SOL    HW272934   0.290   2.543  10.834
90368SOL     OW72935   6.227  11.809   6.666
90368SOL    HW172936   6.277  11.754   6.726
90368SOL    HW272937   6.165  11.749   6.624
90369SOL     OW72938  13.000   5.790   5.357
90369SOL    HW172939  12.976   5.708   5.400
90369SOL    HW272940  13.029   5.847   5.428
90370SOL     OW72941   1.974   6.960  11.069
90370SOL    HW172942   1.956   7.051  11.046
90370SOL    HW272943   2.057   6.939  11.025
90371SOL     OW72944  14.130  14.102   4.947
90371SOL    HW172945  14.053  14.146   4.909
90371SOL    HW272946  14.095  14.022   4.986
90372SOL     OW72947   8.251  13.067  12.661
90372SOL    HW172948   8.240  13.073  12.756
90372SOL    HW272949   8.202  13.142  12.627
90373SOL     OW72950   9.320   3.487   2.291
90373SOL    HW172951   9.294   3.407   2.246
90373SOL    HW272952   9.399   3.516   2.245
90374SOL     OW72953   5.363   9.918   6.941
90374SOL    HW172954   5.298   9.954   7.001
90374SOL    HW272955   5.349   9.824   6.943
90375SOL     OW72956   0.952  14.160  11.067
90375SOL    HW172957   1.039  14.200  11.067
90375SOL    HW272958   0.968  14.067  11.078
90376SOL     OW72959   3.183   4.817  12.183
90376SOL    HW172960   3.169   4.745  12.244
90376SOL    HW272961   3.113   4.807  12.118
90377SOL     OW72962   8.847   4.467   7.802
90377SOL    HW172963   8.828   4.380   7.769
90377SOL    HW272964   8.907   4.505   7.737
90378SOL     OW72965   7.674  13.430   1.498
90378SOL    HW172966   7.706  13.340   1.486
90378SOL    HW272967   7.713  13.479   1.426
90379SOL     OW72968   4.066   3.639  10.872
90379SOL    HW172969   4.053   3.563  10.815
90379SOL    HW272970   4.126   3.695  10.824
90380SOL     OW72971  11.208  11.944   7.593
90380SOL    HW172972  11.225  11.897   7.675
90380SOL    HW272973  11.130  11.902   7.557
90381SOL     OW72974   0.066  11.972   3.950
90381SOL    HW172975   0.069  12.027   3.871
90381SOL    HW272976  14.863  11.919   3.939
90382SOL     OW72977   7.462   6.899  10.986
90382SOL    HW172978   7.555   6.882  10.973
90382SOL    HW272979   7.460   6.979  11.038
90383SOL     OW72980   7.013  11.925  14.356
90383SOL    HW172981   7.091  11.877  14.383
90383SOL    HW272982   7.044  12.013  14.337
90384SOL     OW72983  10.816   8.130   5.171
90384SOL    HW172984  10.750   8.070   5.136
90384SOL    HW272985  10.767   8.188   5.229
90385SOL     OW72986   2.311   8.392  10.497
90385SOL    HW172987   2.354   8.449  10.433
90385SOL    HW272988   2.374   8.322  10.513
90386SOL     OW72989   1.253   8.728   1.285
90386SOL    HW172990   1.319   8.690   1.343
90386SOL    HW272991   1.174   8.678   1.304
90387SOL     OW72992  12.011   7.431   3.450
90387SOL    HW172993  12.068   7.473   3.385
90387SOL    HW272994  11.973   7.504   3.499
90388SOL     OW72995   1.128  11.284   0.380
90388SOL    HW172996   1.138  11.372   0.343
90388SOL    HW272997   1.216  11.245   0.371
90389SOL     OW72998  13.283  13.078   6.618
90389SOL    HW172999  13.259  13.004   6.563
90389SOL    HW273000  13.271  13.155   6.561
90390SOL     OW73001   3.148   6.605   8.158
90390SOL    HW173002   3.224   6.617   8.100
90390SOL    HW273003   3.147   6.511   8.175
90391SOL     OW73004  13.030   1.319   4.411
90391SOL    HW173005  13.023   1.226   4.392
90391SOL    HW273006  12.996   1.362   4.333
90392SOL     OW73007  10.564   5.314   7.733
90392SOL    HW173008  10.594   5.399   7.765
90392SOL    HW273009  10.610   5.302   7.650
90393SOL     OW73010   5.610   4.243   4.246
90393SOL    HW173011   5.528   4.281   4.278
90393SOL    HW273012   5.677   4.279   4.304
90394SOL     OW73013   8.878   2.349   4.205
90394SOL    HW173014   8.833   2.286   4.147
90394SOL    HW273015   8.873   2.309   4.292
90395SOL     OW73016   8.146   8.326   6.195
90395SOL    HW173017   8.073   8.358   6.142
90395SOL    HW273018   8.110   8.317   6.283
90396SOL     OW73019   8.431  13.103   0.575
90396SOL    HW173020   8.360  13.088   0.637
90396SOL    HW273021   8.390  13.090   0.489
90397SOL     OW73022  13.947   4.451  14.451
90397SOL    HW173023  14.021   4.503  14.420
90397SOL    HW273024  13.874   4.475  14.394
90398SOL     OW73025   9.310  12.816   0.403
90398SOL    HW173026   9.320  12.765   0.483
90398SOL    HW273027   9.385  12.790   0.349
90399SOL     OW73028   5.042   3.557   4.832
90399SOL    HW173029   4.999   3.516   4.756
90399SOL    HW273030   5.069   3.643   4.801
90400SOL     OW73031   5.714   4.697  10.067
90400SOL    HW173032   5.691   4.607  10.087
90400SOL    HW273033   5.751   4.693   9.978
90401SOL     OW73034  13.730   2.441   3.200
90401SOL    HW173035  13.711   2.351   3.223
90401SOL    HW273036  13.780   2.476   3.274
90402SOL     OW73037  11.065  12.018   1.160
90402SOL    HW173038  11.089  11.930   1.188
90402SOL    HW273039  10.984  12.037   1.209
90403SOL     OW73040   8.647   3.193   3.600
90403SOL    HW173041   8.600   3.161   3.523
90403SOL    HW273042   8.738   3.196   3.573
90404SOL     OW73043  13.064   8.588   7.444
90404SOL    HW173044  13.146   8.548   7.416
90404SOL    HW273045  13.032   8.635   7.367
90405SOL     OW73046   0.689  14.801   4.319
90405SOL    HW173047   0.660  14.861   4.388
90405SOL    HW273048   0.612  14.749   4.298
90406SOL     OW73049   3.356  11.494   7.380
90406SOL    HW173050   3.406  11.573   7.359
90406SOL    HW273051   3.354  11.444   7.298
90407SOL     OW73052   2.676  13.429  11.093
90407SOL    HW173053   2.645  13.375  11.021
90407SOL    HW273054   2.762  13.461  11.065
90408SOL     OW73055  13.635  14.487   6.508
90408SOL    HW173056  13.707  14.499   6.570
90408SOL    HW273057  13.650  14.400   6.470
90409SOL     OW73058   4.392   1.654   9.485
90409SOL    HW173059   4.303   1.628   9.462
90409SOL    HW273060   4.434   1.671   9.400
90410SOL     OW73061   5.013   3.129   4.519
90410SOL    HW173062   5.099   3.090   4.535
90410SOL    HW273063   4.962   3.108   4.597
90411SOL     OW73064   7.707   3.114   3.539
90411SOL    HW173065   7.703   3.203   3.505
90411SOL    HW273066   7.626   3.104   3.590
90412SOL     OW73067  11.221   1.274   6.894
90412SOL    HW173068  11.148   1.295   6.953
90412SOL    HW273069  11.290   1.336   6.919
90413SOL     OW73070  14.011  12.369  12.851
90413SOL    HW173071  14.075  12.298  12.858
90413SOL    HW273072  13.950  12.339  12.783
90414SOL     OW73073   0.460   4.365   4.196
90414SOL    HW173074   0.403   4.405   4.130
90414SOL    HW273075   0.466   4.430   4.266
90415SOL     OW73076   5.680  13.242  12.265
90415SOL    HW173077   5.687  13.264  12.172
90415SOL    HW273078   5.732  13.163  12.274
90416SOL     OW73079   5.679   7.957  13.424
90416SOL    HW173080   5.617   7.990  13.489
90416SOL    HW273081   5.713   7.876  13.463
90417SOL     OW73082  12.168   1.847  13.234
90417SOL    HW173083  12.206   1.875  13.317
90417SOL    HW273084  12.192   1.915  13.172
90418SOL     OW73085   8.501   7.194   1.760
90418SOL    HW173086   8.545   7.263   1.810
90418SOL    HW273087   8.409   7.201   1.785
90419SOL     OW73088   4.089   1.421   0.781
90419SOL    HW173089   4.026   1.378   0.723
90419SOL    HW273090   4.152   1.462   0.721
90420SOL     OW73091   0.521   4.029  11.200
90420SOL    HW173092   0.610   3.995  11.212
90420SOL    HW273093   0.464   3.954  11.215
90421SOL     OW73094  13.763   8.237   6.954
90421SOL    HW173095  13.706   8.200   7.021
90421SOL    HW273096  13.820   8.297   7.001
90422SOL     OW73097   8.247   1.291   2.884
90422SOL    HW173098   8.285   1.285   2.796
90422SOL    HW273099   8.314   1.334   2.936
90423SOL     OW73100  11.400   6.898  13.431
90423SOL    HW173101  11.439   6.881  13.517
90423SOL    HW273102  11.346   6.821  13.414
90424SOL     OW73103  12.075  13.308   4.313
90424SOL    HW173104  12.165  13.338   4.295
90424SOL    HW273105  12.057  13.243   4.246
90425SOL     OW73106   2.489   8.387   0.967
90425SOL    HW173107   2.506   8.349   0.881
90425SOL    HW273108   2.395   8.405   0.967
90426SOL     OW73109   4.345  12.306   7.775
90426SOL    HW173110   4.319  12.256   7.697
90426SOL    HW273111   4.428  12.267   7.802
90427SOL     OW73112   9.328  13.539   2.272
90427SOL    HW173113   9.234  13.519   2.271
90427SOL    HW273114   9.335  13.619   2.324
90428SOL     OW73115   2.395  14.184   9.004
90428SOL    HW173116   2.373  14.268   9.044
90428SOL    HW273117   2.384  14.120   9.074
90429SOL     OW73118  13.675   1.603  12.795
90429SOL    HW173119  13.708   1.591  12.705
90429SOL    HW273120  13.736   1.552  12.849
90430SOL     OW73121   4.285   0.508  10.437
90430SOL    HW173122   4.191   0.527  10.445
90430SOL    HW273123   4.321   0.534  10.522
90431SOL     OW73124   2.678   2.734   7.215
90431SOL    HW173125   2.588   2.705   7.202
90431SOL    HW273126   2.698   2.711   7.306
90432SOL     OW73127   3.504   8.397   3.422
90432SOL    HW173128   3.532   8.325   3.478
90432SOL    HW273129   3.487   8.470   3.482
90433SOL     OW73130   7.774   3.696   9.515
90433SOL    HW173131   7.819   3.626   9.468
90433SOL    HW273132   7.826   3.709   9.594
90434SOL     OW73133   0.653   6.711   1.803
90434SOL    HW173134   0.695   6.721   1.717
90434SOL    HW273135   0.709   6.759   1.863
90435SOL     OW73136  14.592   3.582   2.052
90435SOL    HW173137  14.656   3.596   2.121
90435SOL    HW273138  14.637   3.611   1.972
90436SOL     OW73139  10.870   2.421   4.147
90436SOL    HW173140  10.963   2.419   4.171
90436SOL    HW273141  10.826   2.454   4.225
90437SOL     OW73142  13.659  10.650   8.629
90437SOL    HW173143  13.587  10.603   8.671
90437SOL    HW273144  13.632  10.659   8.538
90438SOL     OW73145   2.706   2.218  12.854
90438SOL    HW173146   2.712   2.223  12.949
90438SOL    HW273147   2.640   2.151  12.837
90439SOL     OW73148   5.334   7.361   7.429
90439SOL    HW173149   5.366   7.291   7.487
90439SOL    HW273150   5.328   7.319   7.343
90440SOL     OW73151  10.399   9.619   3.685
90440SOL    HW173152  10.399   9.696   3.628
90440SOL    HW273153  10.425   9.653   3.771
90441SOL     OW73154   3.362  13.817  10.250
90441SOL    HW173155   3.387  13.894  10.301
90441SOL    HW273156   3.409  13.745  10.291
90442SOL     OW73157   3.081   4.593   9.561
90442SOL    HW173158   3.045   4.587   9.472
90442SOL    HW273159   3.132   4.674   9.561
90443SOL     OW73160   2.958  11.837  14.020
90443SOL    HW173161   2.939  11.744  14.008
90443SOL    HW273162   3.054  11.841  14.030
90444SOL     OW73163  11.462   6.020  10.149
90444SOL    HW173164  11.542   6.067  10.174
90444SOL    HW273165  11.415   6.007  10.231
90445SOL     OW73166  12.485   9.588   2.373
90445SOL    HW173167  12.401   9.553   2.405
90445SOL    HW273168  12.473   9.594   2.278
90446SOL     OW73169   5.256   9.591   9.151
90446SOL    HW173170   5.185   9.649   9.122
90446SOL    HW273171   5.230   9.504   9.120
90447SOL     OW73172   3.139   5.037   6.634
90447SOL    HW173173   3.082   5.083   6.695
90447SOL    HW273174   3.186   5.106   6.588
90448SOL     OW73175   3.119   5.839  14.668
90448SOL    HW173176   3.163   5.803  14.591
90448SOL    HW273177   3.149   5.930  14.673
90449SOL     OW73178   4.158   1.737   4.477
90449SOL    HW173179   4.236   1.784   4.506
90449SOL    HW273180   4.155   1.659   4.531
90450SOL     OW73181   6.329   4.740   1.570
90450SOL    HW173182   6.249   4.784   1.541
90450SOL    HW273183   6.350   4.782   1.653
90451SOL     OW73184   4.610   5.361  13.290
90451SOL    HW173185   4.608   5.342  13.384
90451SOL    HW273186   4.690   5.319  13.259
90452SOL     OW73187  14.468   8.056  11.249
90452SOL    HW173188  14.456   7.987  11.184
90452SOL    HW273189  14.420   8.131  11.213
90453SOL     OW73190   6.004   4.198  12.279
90453SOL    HW173191   5.984   4.291  12.283
90453SOL    HW273192   5.967   4.162  12.360
90454SOL     OW73193   2.146   2.474  12.601
90454SOL    HW173194   2.228   2.432  12.627
90454SOL    HW273195   2.082   2.403  12.597
90455SOL     OW73196   1.715   0.906  13.984
90455SOL    HW173197   1.630   0.880  13.947
90455SOL    HW273198   1.692   0.951  14.065
90456SOL     OW73199   0.433   1.830   3.458
90456SOL    HW173200   0.469   1.851   3.372
90456SOL    HW273201   0.435   1.735   3.462
90457SOL     OW73202   8.403   8.455   0.847
90457SOL    HW173203   8.347   8.440   0.923
90457SOL    HW273204   8.490   8.470   0.884
90458SOL     OW73205  13.737  14.607   2.585
90458SOL    HW173206  13.644  14.620   2.604
90458SOL    HW273207  13.746  14.513   2.568
90459SOL     OW73208  12.744  12.152   3.729
90459SOL    HW173209  12.789  12.225   3.686
90459SOL    HW273210  12.804  12.126   3.800
90460SOL     OW73211  14.707  14.125   4.395
90460SOL    HW173212  14.766  14.157   4.464
90460SOL    HW273213  14.697  14.032   4.414
90461SOL     OW73214   1.690  13.960   6.793
90461SOL    HW173215   1.675  13.874   6.833
90461SOL    HW273216   1.633  14.019   6.843
90462SOL     OW73217   0.113   9.860   1.361
90462SOL    HW173218   0.058   9.872   1.438
90462SOL    HW273219   0.054   9.822   1.295
90463SOL     OW73220   0.917  11.770  10.578
90463SOL    HW173221   0.898  11.837  10.512
90463SOL    HW273222   0.941  11.820  10.656
90464SOL     OW73223  14.332   5.525   4.420
90464SOL    HW173224  14.256   5.511   4.476
90464SOL    HW273225  14.306   5.493   4.334
90465SOL     OW73226   7.512  11.758  13.641
90465SOL    HW173227   7.420  11.763  13.614
90465SOL    HW273228   7.561  11.757  13.559
90466SOL     OW73229  14.160   8.359   3.344
90466SOL    HW173230  14.191   8.363   3.254
90466SOL    HW273231  14.224   8.410   3.394
90467SOL     OW73232  13.272   9.363  10.490
90467SOL    HW173233  13.310   9.390  10.574
90467SOL    HW273234  13.345   9.322  10.443
90468SOL     OW73235  13.487  13.623   4.651
90468SOL    HW173236  13.532  13.651   4.571
90468SOL    HW273237  13.516  13.685   4.718
90469SOL     OW73238  14.138   5.386   5.180
90469SOL    HW173239  14.207   5.365   5.243
90469SOL    HW273240  14.181   5.438   5.113
90470SOL     OW73241   0.177  13.789   8.427
90470SOL    HW173242   0.212  13.798   8.339
90470SOL    HW273243   0.216  13.861   8.476
90471SOL     OW73244   6.766  12.024   3.045
90471SOL    HW173245   6.770  12.102   3.099
90471SOL    HW273246   6.731  11.956   3.103
90472SOL     OW73247   8.004  11.600   1.100
90472SOL    HW173248   7.965  11.530   1.151
90472SOL    HW273249   8.099  11.584   1.105
90473SOL     OW73250   9.857  10.301   9.648
90473SOL    HW173251   9.771  10.315   9.687
90473SOL    HW273252   9.919  10.323   9.717
90474SOL     OW73253   9.106  13.356  12.522
90474SOL    HW173254   9.126  13.376  12.614
90474SOL    HW273255   9.128  13.263  12.513
90475SOL     OW73256   5.480  10.124   9.920
90475SOL    HW173257   5.562  10.075   9.930
90475SOL    HW273258   5.487  10.197   9.981
90476SOL     OW73259  10.597  13.033  10.041
90476SOL    HW173260  10.508  13.065  10.054
90476SOL    HW273261  10.587  12.957   9.984
90477SOL     OW73262   7.182   5.674   8.756
90477SOL    HW173263   7.190   5.593   8.706
90477SOL    HW273264   7.266   5.719   8.743
90478SOL     OW73265   6.681   3.476  14.591
90478SOL    HW173266   6.686   3.562  14.634
90478SOL    HW273267   6.767   3.465  14.549
90479SOL     OW73268  11.178   5.854   8.633
90479SOL    HW173269  11.162   5.946   8.656
90479SOL    HW273270  11.247   5.826   8.693
90480SOL     OW73271   8.692   5.328   9.040
90480SOL    HW173272   8.782   5.362   9.039
90480SOL    HW273273   8.649   5.379   9.109
90481SOL     OW73274  12.461   5.014   8.000
90481SOL    HW173275  12.403   5.045   7.929
90481SOL    HW273276  12.543   4.992   7.956
90482SOL     OW73277   8.169   8.185  14.527
90482SOL    HW173278   8.241   8.238  14.562
90482SOL    HW273279   8.174   8.198  14.432
90483SOL     OW73280   4.482   4.387   2.250
90483SOL    HW173281   4.509   4.330   2.179
90483SOL    HW273282   4.408   4.342   2.290
90484SOL     OW73283   5.126   6.114   4.876
90484SOL    HW173284   5.189   6.080   4.939
90484SOL    HW273285   5.178   6.129   4.796
90485SOL     OW73286   4.096   3.226   9.915
90485SOL    HW173287   4.026   3.285   9.943
90485SOL    HW273288   4.069   3.140   9.947
90486SOL     OW73289   8.374  10.942  14.361
90486SOL    HW173290   8.295  10.893  14.338
90486SOL    HW273291   8.349  11.034  14.353
90487SOL     OW73292   9.520   1.509   8.889
90487SOL    HW173293   9.441   1.472   8.849
90487SOL    HW273294   9.585   1.509   8.818
90488SOL     OW73295   2.898   7.461   9.894
90488SOL    HW173296   2.904   7.367   9.916
90488SOL    HW273297   2.958   7.503   9.956
90489SOL     OW73298  10.601   9.425   0.699
90489SOL    HW173299  10.641   9.497   0.651
90489SOL    HW273300  10.659   9.411   0.774
90490SOL     OW73301  13.133  11.857  13.576
90490SOL    HW173302  13.058  11.816  13.618
90490SOL    HW273303  13.200  11.789  13.572
90491SOL     OW73304   2.290  11.356  11.106
90491SOL    HW173305   2.270  11.448  11.126
90491SOL    HW273306   2.274  11.349  11.012
90492SOL     OW73307   7.461   4.418   3.681
90492SOL    HW173308   7.503   4.369   3.609
90492SOL    HW273309   7.457   4.355   3.753
90493SOL     OW73310   7.234   9.822   5.233
90493SOL    HW173311   7.157   9.783   5.276
90493SOL    HW273312   7.307   9.767   5.260
90494SOL     OW73313   6.411  11.526  11.415
90494SOL    HW173314   6.449  11.439  11.425
90494SOL    HW273315   6.392  11.555  11.505
90495SOL     OW73316   9.066   8.466   3.212
90495SOL    HW173317   9.130   8.406   3.251
90495SOL    HW273318   9.039   8.522   3.285
90496SOL     OW73319   6.657  11.625   6.527
90496SOL    HW173320   6.737  11.573   6.522
90496SOL    HW273321   6.685  11.715   6.509
90497SOL     OW73322  13.529  12.496  11.219
90497SOL    HW173323  13.501  12.471  11.131
90497SOL    HW273324  13.551  12.588  11.212
90498SOL     OW73325  14.722   5.008   1.750
90498SOL    HW173326  14.816   5.004   1.768
90498SOL    HW273327  14.687   5.065   1.818
90499SOL     OW73328   8.807  12.870   6.379
90499SOL    HW173329   8.894  12.833   6.367
90499SOL    HW273330   8.799  12.936   6.310
90500SOL     OW73331  11.352   1.377   1.609
90500SOL    HW173332  11.409   1.413   1.541
90500SOL    HW273333  11.278   1.438   1.613
90501SOL     OW73334  11.335   7.899  11.974
90501SOL    HW173335  11.330   7.932  12.063
90501SOL    HW273336  11.383   7.816  11.982
90502SOL     OW73337   1.043   8.276  11.890
90502SOL    HW173338   1.129   8.233  11.885
90502SOL    HW273339   1.061   8.368  11.871
90503SOL     OW73340  11.107   9.760   1.765
90503SOL    HW173341  11.112   9.684   1.823
90503SOL    HW273342  11.018   9.793   1.778
90504SOL     OW73343   3.243  13.176  11.148
90504SOL    HW173344   3.305  13.210  11.212
90504SOL    HW273345   3.157  13.186  11.190
90505SOL     OW73346  10.426  10.279   3.239
90505SOL    HW173347  10.477  10.341   3.291
90505SOL    HW273348  10.391  10.331   3.167
90506SOL     OW73349   2.633   3.547   2.857
90506SOL    HW173350   2.602   3.607   2.924
90506SOL    HW273351   2.703   3.594   2.812
90507SOL     OW73352   7.362  11.889   3.442
90507SOL    HW173353   7.286  11.912   3.389
90507SOL    HW273354   7.435  11.937   3.403
90508SOL     OW73355  10.083  12.028  11.391
90508SOL    HW173356  10.165  12.035  11.439
90508SOL    HW273357  10.037  11.955  11.433
90509SOL     OW73358  13.122   7.763  11.539
90509SOL    HW173359  13.207   7.784  11.501
90509SOL    HW273360  13.098   7.678  11.500
90510SOL     OW73361   9.055   3.852   2.271
90510SOL    HW173362   8.986   3.842   2.337
90510SOL    HW273363   9.018   3.910   2.205
90511SOL     OW73364   4.813   8.619  10.168
90511SOL    HW173365   4.780   8.584  10.085
90511SOL    HW273366   4.871   8.691  10.142
90512SOL     OW73367   4.651   1.005   6.908
90512SOL    HW173368   4.718   0.972   6.968
90512SOL    HW273369   4.616   0.926   6.866
90513SOL     OW73370   5.153  14.586  13.026
90513SOL    HW173371   5.177  14.548  13.110
90513SOL    HW273372   5.174  14.518  12.962
90514SOL     OW73373  13.072   8.023  11.630
90514SOL    HW173374  13.153   8.047  11.674
90514SOL    HW273375  13.078   7.928  11.618
90515SOL     OW73376   0.728   3.827   3.408
90515SOL    HW173377   0.640   3.854   3.433
90515SOL    HW273378   0.784   3.856   3.480
90516SOL     OW73379  11.630  12.196   7.158
90516SOL    HW173380  11.550  12.192   7.105
90516SOL    HW273381  11.679  12.118   7.132
90517SOL     OW73382   8.715   3.983   6.511
90517SOL    HW173383   8.748   4.048   6.449
90517SOL    HW273384   8.757   4.005   6.594
90518SOL     OW73385   6.738   8.073  11.510
90518SOL    HW173386   6.652   8.078  11.470
90518SOL    HW273387   6.794   8.034  11.442
90519SOL     OW73388  13.456   8.595  10.940
90519SOL    HW173389  13.459   8.525  11.005
90519SOL    HW273390  13.451   8.675  10.992
90520SOL     OW73391  10.172   2.482  13.462
90520SOL    HW173392  10.254   2.501  13.507
90520SOL    HW273393  10.172   2.387  13.450
90521SOL     OW73394   2.025  14.049  13.545
90521SOL    HW173395   2.078  13.970  13.546
90521SOL    HW273396   1.940  14.021  13.581
90522SOL     OW73397  10.760   7.406   0.403
90522SOL    HW173398  10.785   7.499   0.400
90522SOL    HW273399  10.708   7.398   0.483
90523SOL     OW73400   7.366   1.500   0.680
90523SOL    HW173401   7.409   1.585   0.681
90523SOL    HW273402   7.287   1.512   0.733
90524SOL     OW73403  11.846   2.896   8.880
90524SOL    HW173404  11.837   2.873   8.788
90524SOL    HW273405  11.910   2.833   8.914
90525SOL     OW73406  10.723   1.630   4.688
90525SOL    HW173407  10.743   1.599   4.777
90525SOL    HW273408  10.744   1.556   4.631
90526SOL     OW73409   9.992  12.843   9.173
90526SOL    HW173410   9.969  12.756   9.143
90526SOL    HW273411  10.002  12.895   9.093
90527SOL     OW73412  14.374   9.327  10.664
90527SOL    HW173413  14.338   9.416  10.661
90527SOL    HW273414  14.302   9.274  10.698
90528SOL     OW73415   1.077   0.622   7.410
90528SOL    HW173416   0.994   0.622   7.456
90528SOL    HW273417   1.129   0.690   7.452
90529SOL     OW73418   4.110   5.639   9.661
90529SOL    HW173419   4.169   5.663   9.590
90529SOL    HW273420   4.026   5.680   9.637
90530SOL     OW73421  10.882   7.676   4.405
90530SOL    HW173422  10.902   7.766   4.430
90530SOL    HW273423  10.864   7.631   4.488
90531SOL     OW73424   5.571   2.334   0.922
90531SOL    HW173425   5.550   2.427   0.936
90531SOL    HW273426   5.558   2.293   1.008
90532SOL     OW73427  10.788   5.701   1.117
90532SOL    HW173428  10.843   5.637   1.162
90532SOL    HW273429  10.711   5.651   1.089
90533SOL     OW73430  13.605  11.327   9.622
90533SOL    HW173431  13.571  11.238   9.615
90533SOL    HW273432  13.603  11.360   9.532
90534SOL     OW73433   7.200   2.499  13.935
90534SOL    HW173434   7.228   2.478  14.025
90534SOL    HW273435   7.267   2.560  13.903
90535SOL     OW73436   0.592  13.197   8.282
90535SOL    HW173437   0.554  13.160   8.362
90535SOL    HW273438   0.516  13.231   8.234
90536SOL     OW73439   2.636   0.364   3.600
90536SOL    HW173440   2.680   0.448   3.613
90536SOL    HW273441   2.547   0.378   3.632
90537SOL     OW73442   5.101  10.019  11.695
90537SOL    HW173443   5.179   9.964  11.703
90537SOL    HW273444   5.134  10.103  11.664
90538SOL     OW73445  13.725   8.566   8.902
90538SOL    HW173446  13.676   8.510   8.961
90538SOL    HW273447  13.666   8.640   8.885
90539SOL     OW73448  14.003   9.465  14.216
90539SOL    HW173449  14.077   9.492  14.270
90539SOL    HW273450  14.021   9.503  14.130
90540SOL     OW73451  13.243   3.082   2.377
90540SOL    HW173452  13.199   3.161   2.343
90540SOL    HW273453  13.262   3.103   2.468
90541SOL     OW73454   9.719   4.238   3.625
90541SOL    HW173455   9.733   4.257   3.532
90541SOL    HW273456   9.640   4.183   3.627
90542SOL     OW73457   1.309  11.796   6.233
90542SOL    HW173458   1.269  11.863   6.178
90542SOL    HW273459   1.403  11.811   6.225
90543SOL     OW73460   4.052  11.127   9.666
90543SOL    HW173461   4.051  11.032   9.680
90543SOL    HW273462   3.974  11.144   9.613
90544SOL     OW73463   9.178   9.066   2.427
90544SOL    HW173464   9.265   9.062   2.388
90544SOL    HW273465   9.160   8.977   2.458
90545SOL     OW73466   6.299   5.050  14.054
90545SOL    HW173467   6.374   5.063  14.113
90545SOL    HW273468   6.222   5.064  14.111
90546SOL     OW73469   4.749  11.445   3.149
90546SOL    HW173470   4.687  11.408   3.086
90546SOL    HW273471   4.813  11.376   3.164
90547SOL     OW73472  14.739   9.380   5.300
90547SOL    HW173473  14.682   9.308   5.327
90547SOL    HW273474  14.771   9.417   5.381
90548SOL     OW73475   0.721   2.662  14.372
90548SOL    HW173476   0.637   2.617  14.378
90548SOL    HW273477   0.714   2.735  14.434
90549SOL     OW73478  14.760   4.122  11.526
90549SOL    HW173479  14.778   4.030  11.545
90549SOL    HW273480  14.760   4.164  11.612
90550SOL     OW73481  11.357   4.526  13.913
90550SOL    HW173482  11.387   4.616  13.898
90550SOL    HW273483  11.350   4.488  13.825
90551SOL     OW73484   6.304   6.997   6.291
90551SOL    HW173485   6.227   7.021   6.343
90551SOL    HW273486   6.268   6.969   6.207
90552SOL     OW73487   4.646  14.740   3.279
90552SOL    HW173488   4.587  14.689   3.333
90552SOL    HW273489   4.706  14.676   3.241
90553SOL     OW73490  14.230   2.772   3.880
90553SOL    HW173491  14.163   2.774   3.949
90553SOL    HW273492  14.179   2.775   3.799
90554SOL     OW73493  14.609  11.449  13.648
90554SOL    HW173494  14.644  11.486  13.729
90554SOL    HW273495  14.654  11.365  13.638
90555SOL     OW73496   2.220   1.841   1.773
90555SOL    HW173497   2.295   1.810   1.823
90555SOL    HW273498   2.241   1.933   1.755
90556SOL     OW73499   0.494  12.035  14.553
90556SOL    HW173500   0.474  12.112  14.499
90556SOL    HW273501   0.550  12.068  14.623
90557SOL     OW73502   9.442   2.128  11.581
90557SOL    HW173503   9.417   2.047  11.537
90557SOL    HW273504   9.459   2.102  11.672
90558SOL     OW73505  10.154   2.440   5.598
90558SOL    HW173506  10.097   2.515   5.613
90558SOL    HW273507  10.196   2.458   5.514
90559SOL     OW73508   3.310   7.923  12.222
90559SOL    HW173509   3.319   7.844  12.275
90559SOL    HW273510   3.250   7.979  12.272
90560SOL     OW73511  11.204  13.468  11.175
90560SOL    HW173512  11.260  13.520  11.232
90560SOL    HW273513  11.174  13.396  11.230
90561SOL     OW73514   8.486  12.183   0.763
90561SOL    HW173515   8.402  12.149   0.793
90561SOL    HW273516   8.490  12.272   0.798
90562SOL     OW73517   7.132  13.972   1.470
90562SOL    HW173518   7.212  13.979   1.521
90562SOL    HW273519   7.149  13.901   1.408
90563SOL     OW73520   4.174   2.023  10.864
90563SOL    HW173521   4.207   2.111  10.879
90563SOL    HW273522   4.202   1.973  10.940
90564SOL     OW73523  12.613   6.552  14.187
90564SOL    HW173524  12.630   6.581  14.277
90564SOL    HW273525  12.520   6.531  14.186
90565SOL     OW73526  11.815  10.386   9.582
90565SOL    HW173527  11.727  10.396   9.547
90565SOL    HW273528  11.802  10.347   9.669
90566SOL     OW73529  13.287   9.737   6.151
90566SOL    HW173530  13.216   9.731   6.215
90566SOL    HW273531  13.363   9.701   6.197
90567SOL     OW73532  13.573  11.725   4.973
90567SOL    HW173533  13.514  11.678   5.032
90567SOL    HW273534  13.569  11.816   5.003
90568SOL     OW73535  11.652  12.147   8.088
90568SOL    HW173536  11.580  12.098   8.047
90568SOL    HW273537  11.617  12.235   8.101
90569SOL     OW73538   0.958   7.824   4.317
90569SOL    HW173539   0.980   7.915   4.332
90569SOL    HW273540   1.027   7.792   4.259
90570SOL     OW73541   5.388   0.397   1.291
90570SOL    HW173542   5.414   0.408   1.199
90570SOL    HW273543   5.471   0.402   1.339
90571SOL     OW73544  12.577   7.977   9.564
90571SOL    HW173545  12.656   7.988   9.512
90571SOL    HW273546  12.505   7.981   9.501
90572SOL     OW73547   6.020  12.516   9.265
90572SOL    HW173548   6.083  12.568   9.316
90572SOL    HW273549   6.039  12.425   9.290
90573SOL     OW73550   9.719   7.947  14.425
90573SOL    HW173551   9.802   7.986  14.454
90573SOL    HW273552   9.674   8.017  14.378
90574SOL     OW73553   3.284   2.099   8.627
90574SOL    HW173554   3.241   2.137   8.703
90574SOL    HW273555   3.321   2.174   8.581
90575SOL     OW73556   5.537  14.009  10.215
90575SOL    HW173557   5.513  14.100  10.235
90575SOL    HW273558   5.586  13.980  10.292
90576SOL     OW73559   1.482   2.895   1.602
90576SOL    HW173560   1.504   2.978   1.559
90576SOL    HW273561   1.421   2.920   1.672
90577SOL     OW73562   7.661  14.213  13.851
90577SOL    HW173563   7.744  14.168  13.871
90577SOL    HW273564   7.687  14.303  13.832
90578SOL     OW73565   5.353   6.256  10.535
90578SOL    HW173566   5.367   6.214  10.620
90578SOL    HW273567   5.425   6.225  10.480
90579SOL     OW73568  14.189  11.535   6.861
90579SOL    HW173569  14.267  11.577   6.825
90579SOL    HW273570  14.216  11.507   6.949
90580SOL     OW73571   6.287   4.788   9.709
90580SOL    HW173572   6.352   4.741   9.655
90580SOL    HW273573   6.210   4.731   9.708
90581SOL     OW73574  13.882  11.689   0.960
90581SOL    HW173575  13.886  11.642   1.044
90581SOL    HW273576  13.962  11.743   0.959
90582SOL     OW73577   1.254  10.084   3.023
90582SOL    HW173578   1.237  10.066   2.931
90582SOL    HW273579   1.349  10.093   3.029
90583SOL     OW73580   7.358   9.116   7.411
90583SOL    HW173581   7.364   9.080   7.323
90583SOL    HW273582   7.265   9.136   7.422
90584SOL     OW73583  11.549   0.905   3.003
90584SOL    HW173584  11.469   0.881   3.049
90584SOL    HW273585  11.536   0.997   2.979
90585SOL     OW73586  14.649   3.883   3.540
90585SOL    HW173587  14.668   3.857   3.630
90585SOL    HW273588  14.726   3.858   3.490
90586SOL     OW73589  13.846   0.438   7.148
90586SOL    HW173590  13.916   0.410   7.089
90586SOL    HW273591  13.886   0.436   7.235
90587SOL     OW73592  14.295   4.429  14.819
90587SOL    HW173593  14.330   4.487  14.751
90587SOL    HW273594  14.207   4.407  14.788
90588SOL     OW73595   8.428   6.261  11.249
90588SOL    HW173596   8.348   6.298  11.284
90588SOL    HW273597   8.493   6.275  11.318
90589SOL     OW73598   0.425   4.250  14.702
90589SOL    HW173599   0.367   4.176  14.722
90589SOL    HW273600   0.464   4.228  14.618
90590SOL     OW73601  12.482   5.638   9.972
90590SOL    HW173602  12.402   5.659   9.923
90590SOL    HW273603  12.543   5.605   9.906
90591SOL     OW73604   1.811   0.480   9.885
90591SOL    HW173605   1.825   0.462   9.978
90591SOL    HW273606   1.839   0.399   9.841
90592SOL     OW73607  10.307   1.287   5.830
90592SOL    HW173608  10.369   1.257   5.764
90592SOL    HW273609  10.345   1.259   5.913
90593SOL     OW73610   7.146   2.022   1.623
90593SOL    HW173611   7.160   2.076   1.546
90593SOL    HW273612   7.151   1.932   1.591
90594SOL     OW73613   1.975   9.506   7.408
90594SOL    HW173614   2.027   9.427   7.396
90594SOL    HW273615   1.980   9.523   7.502
90595SOL     OW73616   3.756   0.257   3.325
90595SOL    HW173617   3.785   0.188   3.386
90595SOL    HW273618   3.778   0.222   3.238
90596SOL     OW73619   2.807   2.763   4.190
90596SOL    HW173620   2.821   2.856   4.208
90596SOL    HW273621   2.895   2.726   4.188
90597SOL     OW73622   6.709  13.918   8.877
90597SOL    HW173623   6.759  13.933   8.796
90597SOL    HW273624   6.739  13.986   8.937
90598SOL     OW73625   7.051   3.875  10.341
90598SOL    HW173626   6.983   3.866  10.408
90598SOL    HW273627   7.099   3.953  10.365
90599SOL     OW73628  13.776   3.815  13.922
90599SOL    HW173629  13.841   3.863  13.871
90599SOL    HW273630  13.799   3.833  14.014
90600SOL     OW73631   6.188   5.669  12.481
90600SOL    HW173632   6.186   5.582  12.522
90600SOL    HW273633   6.252   5.718  12.532
90601SOL     OW73634  10.459   1.563   2.564
90601SOL    HW173635  10.393   1.591   2.501
90601SOL    HW273636  10.416   1.496   2.616
90602SOL     OW73637  14.278   5.608  12.375
90602SOL    HW173638  14.259   5.514  12.376
90602SOL    HW273639  14.348   5.617  12.310
90603SOL     OW73640   2.455   3.099   1.085
90603SOL    HW173641   2.460   3.180   1.034
90603SOL    HW273642   2.363   3.073   1.079
90604SOL     OW73643  12.436  12.590  10.496
90604SOL    HW173644  12.515  12.537  10.509
90604SOL    HW273645  12.468  12.680  10.486
90605SOL     OW73646   3.899  11.421  14.458
90605SOL    HW173647   3.917  11.515  14.457
90605SOL    HW273648   3.810  11.414  14.424
90606SOL     OW73649   3.099  10.615  11.550
90606SOL    HW173650   3.194  10.616  11.541
90606SOL    HW273651   3.077  10.695  11.597
90607SOL     OW73652  14.590   4.455   2.742
90607SOL    HW173653  14.622   4.454   2.832
90607SOL    HW273654  14.549   4.370   2.731
90608SOL     OW73655   7.402   9.956   3.869
90608SOL    HW173656   7.395   9.972   3.963
90608SOL    HW273657   7.461   9.881   3.861
90609SOL     OW73658   9.986   7.134  10.037
90609SOL    HW173659  10.075   7.125  10.070
90609SOL    HW273660   9.986   7.217   9.990
90610SOL     OW73661  13.483  10.551   5.473
90610SOL    HW173662  13.459  10.505   5.393
90610SOL    HW273663  13.578  10.552   5.473
90611SOL     OW73664   8.960   9.428  14.863
90611SOL    HW173665   8.913   9.481   0.051
90611SOL    HW273666   8.910   9.347  14.855
90612SOL     OW73667   9.742   8.875   5.131
90612SOL    HW173668   9.770   8.948   5.186
90612SOL    HW273669   9.721   8.915   5.047
90613SOL     OW73670   5.251   5.414   6.874
90613SOL    HW173671   5.289   5.483   6.928
90613SOL    HW273672   5.295   5.334   6.904
90614SOL     OW73673  14.872   9.221   4.598
90614SOL    HW173674  14.863   9.298   4.654
90614SOL    HW273675   0.062   9.167   4.643
90615SOL     OW73676   4.306  13.628   9.484
90615SOL    HW173677   4.397  13.633   9.453
90615SOL    HW273678   4.310  13.567   9.558
90616SOL     OW73679  10.096   5.373  10.297
90616SOL    HW173680  10.014   5.325  10.307
90616SOL    HW273681  10.111   5.412  10.383
90617SOL     OW73682   4.968   2.728   7.518
90617SOL    HW173683   5.054   2.712   7.557
90617SOL    HW273684   4.960   2.662   7.449
90618SOL     OW73685  11.353  12.721  14.234
90618SOL    HW173686  11.343  12.715  14.329
90618SOL    HW273687  11.289  12.659  14.199
90619SOL     OW73688   9.959   7.621   7.645
90619SOL    HW173689   9.883   7.567   7.666
90619SOL    HW273690  10.016   7.614   7.722
90620SOL     OW73691  13.258  10.389  13.041
90620SOL    HW173692  13.316  10.446  12.992
90620SOL    HW273693  13.185  10.445  13.067
90621SOL     OW73694   5.527   2.289   1.567
90621SOL    HW173695   5.444   2.319   1.531
90621SOL    HW273696   5.504   2.217   1.626
90622SOL     OW73697   0.117   5.229   7.703
90622SOL    HW173698   0.128   5.251   7.610
90622SOL    HW273699   0.203   5.196   7.730
90623SOL     OW73700   3.740  13.790  14.515
90623SOL    HW173701   3.724  13.844  14.593
90623SOL    HW273702   3.834  13.770  14.519
90624SOL     OW73703   7.249   8.176   3.474
90624SOL    HW173704   7.309   8.198   3.546
90624SOL    HW273705   7.176   8.132   3.517
90625SOL     OW73706   5.680   0.851   9.740
90625SOL    HW173707   5.665   0.945   9.737
90625SOL    HW273708   5.715   0.835   9.827
90626SOL     OW73709   4.715  14.450   5.728
90626SOL    HW173710   4.768  14.518   5.687
90626SOL    HW273711   4.755  14.437   5.815
90627SOL     OW73712  13.646  13.826   6.358
90627SOL    HW173713  13.553  13.833   6.379
90627SOL    HW273714  13.657  13.878   6.278
90628SOL     OW73715  11.683   9.395  11.168
90628SOL    HW173716  11.767   9.409  11.211
90628SOL    HW273717  11.697   9.320  11.111
90629SOL     OW73718   6.104  14.601   8.422
90629SOL    HW173719   6.178  14.606   8.362
90629SOL    HW273720   6.125  14.662   8.492
90630SOL     OW73721   4.016  12.546   6.652
90630SOL    HW173722   3.975  12.613   6.707
90630SOL    HW273723   3.943  12.502   6.609
90631SOL     OW73724   2.021  10.743   2.660
90631SOL    HW173725   2.056  10.825   2.626
90631SOL    HW273726   2.086  10.678   2.637
90632SOL     OW73727   3.474   1.037  11.923
90632SOL    HW173728   3.408   0.993  11.976
90632SOL    HW273729   3.551   1.043  11.979
90633SOL     OW73730   5.324   6.879  14.472
90633SOL    HW173731   5.254   6.944  14.465
90633SOL    HW273732   5.401   6.924  14.436
90634SOL     OW73733   4.919  11.783  12.873
90634SOL    HW173734   4.887  11.705  12.917
90634SOL    HW273735   4.940  11.843  12.945
90635SOL     OW73736   9.008  10.530  11.891
90635SOL    HW173737   9.028  10.622  11.909
90635SOL    HW273738   8.944  10.506  11.958
90636SOL     OW73739  11.516   4.474  10.579
90636SOL    HW173740  11.433   4.518  10.599
90636SOL    HW273741  11.553   4.453  10.665
90637SOL     OW73742  11.200   4.670  11.825
90637SOL    HW173743  11.222   4.752  11.869
90637SOL    HW273744  11.131   4.694  11.763
90638SOL     OW73745   0.486   0.051   9.219
90638SOL    HW173746   0.555   0.105   9.258
90638SOL    HW273747   0.423   0.115   9.185
90639SOL     OW73748   9.596   2.497  13.563
90639SOL    HW173749   9.582   2.580  13.610
90639SOL    HW273750   9.686   2.472  13.587
90640SOL     OW73751  13.733  12.687   2.992
90640SOL    HW173752  13.768  12.774   2.971
90640SOL    HW273753  13.791  12.627   2.946
90641SOL     OW73754   7.269   2.352  13.530
90641SOL    HW173755   7.280   2.357  13.625
90641SOL    HW273756   7.307   2.267  13.507
90642SOL     OW73757  13.697   9.854   2.367
90642SOL    HW173758  13.742   9.817   2.443
90642SOL    HW273759  13.690   9.947   2.386
90643SOL     OW73760   7.895   3.318   3.868
90643SOL    HW173761   7.902   3.389   3.804
90643SOL    HW273762   7.863   3.243   3.817
90644SOL     OW73763   7.239   3.724  11.696
90644SOL    HW173764   7.291   3.679  11.763
90644SOL    HW273765   7.269   3.814  11.699
90645SOL     OW73766   8.450   5.777  10.754
90645SOL    HW173767   8.427   5.687  10.774
90645SOL    HW273768   8.382   5.830  10.795
90646SOL     OW73769   1.326   0.862   5.764
90646SOL    HW173770   1.281   0.918   5.701
90646SOL    HW273771   1.257   0.834   5.824
90647SOL     OW73772   5.993  13.985   5.812
90647SOL    HW173773   6.079  14.008   5.846
90647SOL    HW273774   6.000  13.892   5.790
90648SOL     OW73775   7.411  10.901   3.722
90648SOL    HW173776   7.368  10.818   3.703
90648SOL    HW273777   7.386  10.921   3.813
90649SOL     OW73778   2.776   5.238  12.224
90649SOL    HW173779   2.747   5.184  12.298
90649SOL    HW273780   2.710   5.223  12.156
90650SOL     OW73781   7.019   4.385   7.713
90650SOL    HW173782   6.989   4.295   7.726
90650SOL    HW273783   7.037   4.391   7.619
90651SOL     OW73784   0.992   2.183   6.195
90651SOL    HW173785   0.987   2.089   6.179
90651SOL    HW273786   1.063   2.213   6.138
90652SOL     OW73787  14.824   2.151   5.986
90652SOL    HW173788   0.002   2.175   6.061
90652SOL    HW273789  14.828   2.227   5.928
90653SOL     OW73790  11.915  13.480  11.797
90653SOL    HW173791  11.983  13.494  11.862
90653SOL    HW273792  11.959  13.492  11.713
90654SOL     OW73793   3.210   9.194  11.564
90654SOL    HW173794   3.154   9.190  11.642
90654SOL    HW273795   3.165   9.255  11.505
90655SOL     OW73796   5.354  11.985   7.480
90655SOL    HW173797   5.354  11.978   7.576
90655SOL    HW273798   5.404  12.064   7.461
90656SOL     OW73799   5.379   4.198   9.892
90656SOL    HW173800   5.404   4.211   9.984
90656SOL    HW273801   5.402   4.106   9.875
90657SOL     OW73802   2.520  14.715   2.848
90657SOL    HW173803   2.485  14.679   2.930
90657SOL    HW273804   2.508  14.644   2.784
90658SOL     OW73805   1.761   1.607   1.756
90658SOL    HW173806   1.828   1.551   1.796
90658SOL    HW273807   1.811   1.672   1.707
90659SOL     OW73808  11.288   2.099  10.712
90659SOL    HW173809  11.222   2.031  10.727
90659SOL    HW273810  11.249   2.179  10.747
90660SOL     OW73811   5.104   7.782   7.356
90660SOL    HW173812   5.077   7.713   7.417
90660SOL    HW273813   5.130   7.855   7.412
90661SOL     OW73814   5.773  12.735   2.311
90661SOL    HW173815   5.695  12.724   2.256
90661SOL    HW273816   5.844  12.699   2.257
90662SOL     OW73817   4.266   6.240  14.270
90662SOL    HW173818   4.271   6.207  14.180
90662SOL    HW273819   4.291   6.332  14.263
90663SOL     OW73820   0.371   5.373  10.981
90663SOL    HW173821   0.452   5.415  11.010
90663SOL    HW273822   0.310   5.445  10.970
90664SOL     OW73823   1.622   5.935  14.048
90664SOL    HW173824   1.664   5.977  14.124
90664SOL    HW273825   1.662   5.849  14.043
90665SOL     OW73826  12.800   6.766   5.740
90665SOL    HW173827  12.781   6.764   5.833
90665SOL    HW273828  12.767   6.851   5.710
90666SOL     OW73829   0.291   7.926  13.860
90666SOL    HW173830   0.208   7.973  13.849
90666SOL    HW273831   0.283   7.850  13.803
90667SOL     OW73832   3.877   0.786  12.137
90667SOL    HW173833   3.809   0.804  12.202
90667SOL    HW273834   3.848   0.833  12.058
90668SOL     OW73835  13.318   5.908   5.383
90668SOL    HW173836  13.283   5.856   5.310
90668SOL    HW273837  13.342   5.991   5.343
90669SOL     OW73838   0.236   6.673   4.222
90669SOL    HW173839   0.167   6.738   4.232
90669SOL    HW273840   0.281   6.699   4.141
90670SOL     OW73841   0.119  14.203  13.157
90670SOL    HW173842   0.170  14.284  13.159
90670SOL    HW273843   0.063  14.213  13.080
90671SOL     OW73844   3.732   8.439   1.422
90671SOL    HW173845   3.660   8.459   1.361
90671SOL    HW273846   3.785   8.375   1.375
90672SOL     OW73847  11.313   4.127   8.790
90672SOL    HW173848  11.236   4.185   8.791
90672SOL    HW273849  11.315   4.091   8.701
90673SOL     OW73850  14.139  14.662   6.283
90673SOL    HW173851  14.081  14.685   6.355
90673SOL    HW273852  14.118  14.725   6.214
90674SOL     OW73853   9.199   7.817  10.354
90674SOL    HW173854   9.134   7.750  10.334
90674SOL    HW273855   9.198   7.876  10.279
90675SOL     OW73856  12.341   0.265  12.085
90675SOL    HW173857  12.388   0.275  12.002
90675SOL    HW273858  12.275   0.197  12.067
90676SOL     OW73859  14.722  12.024  13.444
90676SOL    HW173860  14.703  12.001  13.535
90676SOL    HW273861  14.811  12.059  13.447
90677SOL     OW73862  14.632   6.032  14.096
90677SOL    HW173863  14.704   5.997  14.148
90677SOL    HW273864  14.577   6.078  14.160
90678SOL     OW73865   1.213  12.091  14.867
90678SOL    HW173866   1.160  12.161  14.831
90678SOL    HW273867   1.302  12.108  14.835
90679SOL     OW73868   8.693   5.376  14.279
90679SOL    HW173869   8.620   5.433  14.302
90679SOL    HW273870   8.734   5.417  14.203
90680SOL     OW73871   2.901   7.441  14.062
90680SOL    HW173872   2.831   7.505  14.070
90680SOL    HW273873   2.859   7.357  14.077
90681SOL     OW73874  10.830   4.561   8.387
90681SOL    HW173875  10.765   4.630   8.372
90681SOL    HW273876  10.779   4.487   8.419
90682SOL     OW73877   7.871  10.208  13.608
90682SOL    HW173878   7.859  10.122  13.650
90682SOL    HW273879   7.851  10.271  13.676
90683SOL     OW73880   5.098  14.328   1.810
90683SOL    HW173881   5.065  14.369   1.890
90683SOL    HW273882   5.027  14.269   1.782
90684SOL     OW73883  12.176  13.740  13.886
90684SOL    HW173884  12.268  13.741  13.912
90684SOL    HW273885  12.140  13.822  13.920
90685SOL     OW73886  14.691  14.071   1.544
90685SOL    HW173887  14.644  14.028   1.616
90685SOL    HW273888  14.695  14.163   1.570
90686SOL     OW73889  10.438   7.251  13.902
90686SOL    HW173890  10.478   7.200  13.971
90686SOL    HW273891  10.485   7.226  13.823
90687SOL     OW73892   9.648  13.610   2.204
90687SOL    HW173893   9.721  13.664   2.235
90687SOL    HW273894   9.616  13.565   2.282
90688SOL     OW73895  14.441  11.481  12.321
90688SOL    HW173896  14.408  11.411  12.377
90688SOL    HW273897  14.364  11.536  12.303
90689SOL     OW73898  12.932   7.206   1.059
90689SOL    HW173899  12.886   7.265   1.119
90689SOL    HW273900  12.989   7.263   1.008
90690SOL     OW73901   0.425   9.198   5.229
90690SOL    HW173902   0.347   9.219   5.281
90690SOL    HW273903   0.393   9.137   5.162
90691SOL     OW73904   3.054   6.062   3.833
90691SOL    HW173905   2.977   6.018   3.868
90691SOL    HW273906   3.077   6.126   3.900
90692SOL     OW73907   4.036   9.036   9.323
90692SOL    HW173908   3.945   9.013   9.346
90692SOL    HW273909   4.089   8.967   9.364
90693SOL     OW73910   9.259  13.778  13.554
90693SOL    HW173911   9.209  13.775  13.636
90693SOL    HW273912   9.341  13.822  13.577
90694SOL     OW73913  13.277   2.699   1.800
90694SOL    HW173914  13.222   2.722   1.726
90694SOL    HW273915  13.222   2.716   1.877
90695SOL     OW73916   5.324  12.547   4.419
90695SOL    HW173917   5.316  12.566   4.512
90695SOL    HW273918   5.237  12.565   4.383
90696SOL     OW73919  13.122  13.617   8.530
90696SOL    HW173920  13.209  13.635   8.493
90696SOL    HW273921  13.064  13.612   8.454
90697SOL     OW73922   0.171   0.934   8.539
90697SOL    HW173923   0.160   0.862   8.601
90697SOL    HW273924   0.249   0.980   8.569
90698SOL     OW73925   7.401   7.469  13.938
90698SOL    HW173926   7.491   7.457  13.906
90698SOL    HW273927   7.356   7.388  13.913
90699SOL     OW73928   8.871   9.695   5.035
90699SOL    HW173929   8.797   9.722   4.981
90699SOL    HW273930   8.832   9.672   5.119
90700SOL     OW73931   0.771  14.026   6.082
90700SOL    HW173932   0.796  13.941   6.119
90700SOL    HW273933   0.710  14.063   6.145
90701SOL     OW73934   5.984   3.370   0.441
90701SOL    HW173935   5.931   3.320   0.503
90701SOL    HW273936   5.920   3.423   0.392
90702SOL     OW73937   4.464  10.083   6.991
90702SOL    HW173938   4.508  10.022   6.932
90702SOL    HW273939   4.535  10.129   7.036
90703SOL     OW73940  14.166   9.114   5.422
90703SOL    HW173941  14.195   9.077   5.506
90703SOL    HW273942  14.100   9.178   5.446
90704SOL     OW73943  14.740   2.627   5.720
90704SOL    HW173944  14.644   2.627   5.727
90704SOL    HW273945  14.757   2.613   5.627
90705SOL     OW73946   4.759   5.398   8.156
90705SOL    HW173947   4.669   5.412   8.125
90705SOL    HW273948   4.749   5.359   8.243
90706SOL     OW73949   5.741   9.870   8.727
90706SOL    HW173950   5.667   9.868   8.788
90706SOL    HW273951   5.700   9.869   8.640
90707SOL     OW73952   4.024   5.372   6.950
90707SOL    HW173953   3.931   5.388   6.935
90707SOL    HW273954   4.064   5.459   6.946
90708SOL     OW73955  11.580  13.642   2.337
90708SOL    HW173956  11.548  13.554   2.360
90708SOL    HW273957  11.502  13.687   2.304
90709SOL     OW73958  11.122   1.639   7.836
90709SOL    HW173959  11.195   1.651   7.896
90709SOL    HW273960  11.046   1.628   7.893
90710SOL     OW73961   3.967   4.484   3.454
90710SOL    HW173962   3.946   4.403   3.408
90710SOL    HW273963   3.955   4.462   3.547
90711SOL     OW73964   0.541   3.617   6.898
90711SOL    HW173965   0.605   3.574   6.954
90711SOL    HW273966   0.462   3.623   6.952
90712SOL     OW73967   8.275   5.971   8.021
90712SOL    HW173968   8.240   6.053   7.987
90712SOL    HW273969   8.307   5.992   8.109
90713SOL     OW73970   4.267   8.201   4.029
90713SOL    HW173971   4.182   8.240   4.049
90713SOL    HW273972   4.328   8.245   4.088
90714SOL     OW73973   5.660  11.898  12.456
90714SOL    HW173974   5.659  11.982  12.411
90714SOL    HW273975   5.583  11.852  12.422
90715SOL     OW73976  13.074   0.877  11.675
90715SOL    HW173977  13.117   0.945  11.727
90715SOL    HW273978  13.114   0.884  11.589
90716SOL     OW73979  10.503   8.695  13.687
90716SOL    HW173980  10.456   8.706  13.770
90716SOL    HW273981  10.579   8.642  13.710
90717SOL     OW73982   6.059  11.848   4.694
90717SOL    HW173983   6.100  11.764   4.674
90717SOL    HW273984   6.116  11.888   4.760
90718SOL     OW73985   4.491   2.234   4.184
90718SOL    HW173986   4.499   2.318   4.138
90718SOL    HW273987   4.541   2.246   4.265
90719SOL     OW73988   0.733   2.362   9.933
90719SOL    HW173989   0.651   2.332   9.892
90719SOL    HW273990   0.766   2.286   9.980
90720SOL     OW73991   7.583   5.008   7.642
90720SOL    HW173992   7.575   5.085   7.699
90720SOL    HW273993   7.502   5.008   7.590
90721SOL     OW73994  10.431   2.105   8.488
90721SOL    HW173995  10.480   2.165   8.431
90721SOL    HW273996  10.404   2.034   8.430
90722SOL     OW73997   5.521   3.777   1.885
90722SOL    HW173998   5.525   3.728   1.803
90722SOL    HW273999   5.520   3.869   1.859
90723SOL     OW74000   1.697   7.412  10.824
90723SOL    HW174001   1.683   7.503  10.852
90723SOL    HW274002   1.792   7.405  10.815
90724SOL     OW74003   5.236  10.021   2.481
90724SOL    HW174004   5.203   9.948   2.429
90724SOL    HW274005   5.303   9.982   2.537
90725SOL     OW74006   0.188   8.831  10.451
90725SOL    HW174007   0.208   8.920  10.423
90725SOL    HW274008   0.240   8.820  10.531
90726SOL     OW74009  13.216  14.605  12.348
90726SOL    HW174010  13.261  14.585  12.429
90726SOL    HW274011  13.124  14.618  12.373
90727SOL     OW74012   3.897   4.921   6.295
90727SOL    HW174013   3.888   4.957   6.384
90727SOL    HW274014   3.823   4.861   6.286
90728SOL     OW74015   0.283   9.388   7.009
90728SOL    HW174016   0.206   9.378   7.065
90728SOL    HW274017   0.281   9.312   6.951
90729SOL     OW74018   9.295  14.358  10.981
90729SOL    HW174019   9.282  14.404  10.898
90729SOL    HW274020   9.233  14.400  11.041
90730SOL     OW74021   1.521  10.124   2.993
90730SOL    HW174022   1.563  10.059   2.937
90730SOL    HW274023   1.551  10.208   2.960
90731SOL     OW74024  13.663   5.949   7.660
90731SOL    HW174025  13.699   6.006   7.592
90731SOL    HW274026  13.665   6.002   7.740
90732SOL     OW74027   7.786   8.502  12.591
90732SOL    HW174028   7.823   8.414  12.604
90732SOL    HW274029   7.863   8.559  12.584
90733SOL     OW74030   9.796   5.562  10.291
90733SOL    HW174031   9.768   5.577  10.200
90733SOL    HW274032   9.848   5.482  10.287
90734SOL     OW74033  12.269   7.161   4.668
90734SOL    HW174034  12.188   7.211   4.659
90734SOL    HW274035  12.275   7.143   4.762
90735SOL     OW74036  14.028  12.610   9.663
90735SOL    HW174037  14.118  12.587   9.640
90735SOL    HW274038  13.988  12.633   9.579
90736SOL     OW74039   5.566   8.050  12.352
90736SOL    HW174040   5.576   7.957  12.367
90736SOL    HW274041   5.624   8.069  12.278
90737SOL     OW74042   1.986   2.510   2.674
90737SOL    HW174043   1.903   2.504   2.722
90737SOL    HW274044   1.998   2.604   2.658
90738SOL     OW74045   4.310   8.260  12.919
90738SOL    HW174046   4.341   8.322  12.853
90738SOL    HW274047   4.355   8.178  12.898
90739SOL     OW74048  11.394   2.968   3.596
90739SOL    HW174049  11.355   2.883   3.572
90739SOL    HW274050  11.332   3.032   3.562
90740SOL     OW74051   0.430  11.143   7.089
90740SOL    HW174052   0.374  11.174   7.160
90740SOL    HW274053   0.517  11.179   7.110
90741SOL     OW74054   7.769  11.005   7.244
90741SOL    HW174055   7.675  10.993   7.236
90741SOL    HW274056   7.788  11.083   7.192
90742SOL     OW74057   3.308   8.985  13.943
90742SOL    HW174058   3.308   8.942  14.028
90742SOL    HW274059   3.328   8.916  13.881
90743SOL     OW74060   8.163   8.887   1.705
90743SOL    HW174061   8.169   8.820   1.636
90743SOL    HW274062   8.244   8.937   1.696
90744SOL     OW74063   2.277  13.448  12.781
90744SOL    HW174064   2.371  13.434  12.777
90744SOL    HW274065   2.261  13.487  12.867
90745SOL     OW74066  13.621   6.041   5.471
90745SOL    HW174067  13.630   6.026   5.565
90745SOL    HW274068  13.527   6.028   5.454
90746SOL     OW74069  12.437   7.090  12.299
90746SOL    HW174070  12.398   7.121  12.381
90746SOL    HW274071  12.393   7.141  12.231
90747SOL     OW74072   3.918   7.871   5.663
90747SOL    HW174073   4.008   7.891   5.687
90747SOL    HW274074   3.874   7.852   5.746
90748SOL     OW74075   0.223   1.958   4.230
90748SOL    HW174076   0.175   2.021   4.176
90748SOL    HW274077   0.305   2.002   4.252
90749SOL     OW74078  11.791  11.685  12.728
90749SOL    HW174079  11.758  11.748  12.664
90749SOL    HW274080  11.886  11.688  12.718
90750SOL     OW74081   4.272   9.356   7.118
90750SOL    HW174082   4.346   9.412   7.137
90750SOL    HW274083   4.302   9.299   7.047
90751SOL     OW74084   8.205   4.748  12.135
90751SOL    HW174085   8.247   4.765  12.219
90751SOL    HW274086   8.231   4.822  12.080
90752SOL     OW74087   0.634   6.217   2.089
90752SOL    HW174088   0.560   6.206   2.029
90752SOL    HW274089   0.711   6.192   2.038
90753SOL     OW74090  10.332   0.325   4.353
90753SOL    HW174091  10.240   0.311   4.376
90753SOL    HW274092  10.331   0.340   4.258
90754SOL     OW74093   1.472   9.673   1.500
90754SOL    HW174094   1.425   9.731   1.560
90754SOL    HW274095   1.507   9.732   1.433
90755SOL     OW74096   8.001   2.413  14.819
90755SOL    HW174097   7.965   2.460   0.018
90755SOL    HW274098   7.974   2.464  14.743
90756SOL     OW74099   1.291  12.272   5.366
90756SOL    HW174100   1.353  12.253   5.437
90756SOL    HW274101   1.210  12.228   5.392
90757SOL     OW74102   8.078  11.832  13.444
90757SOL    HW174103   8.087  11.810  13.352
90757SOL    HW274104   8.146  11.898  13.460
90758SOL     OW74105   0.676  13.300  14.594
90758SOL    HW174106   0.672  13.390  14.625
90758SOL    HW274107   0.680  13.308  14.498
90759SOL     OW74108   4.007   9.953   2.686
90759SOL    HW174109   3.980   9.903   2.762
90759SOL    HW274110   4.052  10.030   2.721
90760SOL     OW74111   9.481  12.379  14.362
90760SOL    HW174112   9.559  12.370  14.307
90760SOL    HW274113   9.447  12.290  14.369
90761SOL     OW74114   2.963   7.149   3.496
90761SOL    HW174115   2.958   7.108   3.582
90761SOL    HW274116   2.891   7.212   3.495
90762SOL     OW74117   1.456   3.374   8.624
90762SOL    HW174118   1.468   3.282   8.646
90762SOL    HW274119   1.378   3.375   8.568
90763SOL     OW74120  13.083  11.552   5.567
90763SOL    HW174121  13.142  11.577   5.495
90763SOL    HW274122  13.141  11.542   5.642
90764SOL     OW74123   7.584  10.007   1.259
90764SOL    HW174124   7.495  10.000   1.223
90764SOL    HW274125   7.575   9.978   1.349
90765SOL     OW74126   4.404   6.051  13.417
90765SOL    HW174127   4.343   6.101  13.471
90765SOL    HW274128   4.477   6.030  13.476
90766SOL     OW74129  12.352   8.380   6.549
90766SOL    HW174130  12.284   8.427   6.501
90766SOL    HW274131  12.352   8.420   6.636
90767SOL     OW74132   9.242  12.157   0.759
90767SOL    HW174133   9.255  12.070   0.798
90767SOL    HW274134   9.203  12.139   0.674
90768SOL     OW74135   1.187   2.755  11.028
90768SOL    HW174136   1.138   2.711  11.099
90768SOL    HW274137   1.185   2.848  11.052
90769SOL     OW74138   6.072  12.024   5.109
90769SOL    HW174139   6.154  12.002   5.064
90769SOL    HW274140   6.096  12.027   5.202
90770SOL     OW74141  10.525   1.045  11.236
90770SOL    HW174142  10.487   1.061  11.322
90770SOL    HW274143  10.487   0.962  11.208
90771SOL     OW74144  11.503  13.318   9.359
90771SOL    HW174145  11.444  13.347   9.429
90771SOL    HW274146  11.468  13.234   9.331
90772SOL     OW74147   1.401  11.701   3.242
90772SOL    HW174148   1.492  11.728   3.259
90772SOL    HW274149   1.367  11.768   3.183
90773SOL     OW74150   9.962  12.622   8.270
90773SOL    HW174151   9.908  12.686   8.316
90773SOL    HW274152   9.911  12.599   8.192
90774SOL     OW74153  14.047  11.091   8.717
90774SOL    HW174154  14.096  11.079   8.798
90774SOL    HW274155  14.108  11.135   8.658
90775SOL     OW74156  11.173   2.824   8.959
90775SOL    HW174157  11.191   2.915   8.984
90775SOL    HW274158  11.116   2.790   9.028
90776SOL     OW74159   7.253  11.240   3.817
90776SOL    HW174160   7.227  11.192   3.738
90776SOL    HW274161   7.295  11.174   3.872
90777SOL     OW74162   5.195  13.771   0.524
90777SOL    HW174163   5.275  13.798   0.569
90777SOL    HW274164   5.223  13.757   0.433
90778SOL     OW74165   5.835  10.088  11.928
90778SOL    HW174166   5.741  10.080  11.912
90778SOL    HW274167   5.876  10.084  11.842
90779SOL     OW74168   6.943  11.574  10.640
90779SOL    HW174169   6.902  11.544  10.721
90779SOL    HW274170   6.886  11.543  10.571
90780SOL     OW74171  10.559  12.790   9.891
90780SOL    HW174172  10.498  12.716   9.899
90780SOL    HW274173  10.637  12.753   9.850
90781SOL     OW74174   0.269   7.413   2.867
90781SOL    HW174175   0.291   7.481   2.931
90781SOL    HW274176   0.228   7.344   2.919
90782SOL     OW74177   7.750  14.181  12.404
90782SOL    HW174178   7.834  14.217  12.374
90782SOL    HW274179   7.707  14.151  12.325
90783SOL     OW74180   2.514   4.614   2.545
90783SOL    HW174181   2.590   4.571   2.505
90783SOL    HW274182   2.551   4.665   2.617
90784SOL     OW74183   2.092  11.070   4.490
90784SOL    HW174184   2.013  11.111   4.456
90784SOL    HW274185   2.065  11.034   4.575
90785SOL     OW74186  12.352   7.828   4.080
90785SOL    HW174187  12.326   7.841   3.988
90785SOL    HW274188  12.445   7.807   4.076
90786SOL     OW74189  13.655  11.524   3.478
90786SOL    HW174190  13.700  11.542   3.396
90786SOL    HW274191  13.566  11.558   3.464
90787SOL     OW74192  14.023   6.610   5.574
90787SOL    HW174193  14.107   6.654   5.564
90787SOL    HW274194  13.981   6.655   5.648
90788SOL     OW74195  11.092   7.058   7.390
90788SOL    HW174196  11.119   7.012   7.469
90788SOL    HW274197  11.076   7.148   7.419
90789SOL     OW74198   5.248  13.792  12.598
90789SOL    HW174199   5.186  13.766  12.529
90789SOL    HW274200   5.329  13.746  12.575
90790SOL     OW74201   3.059   2.067   3.251
90790SOL    HW174202   2.987   2.054   3.190
90790SOL    HW274203   3.031   2.139   3.307
90791SOL     OW74204   3.740   2.731  11.957
90791SOL    HW174205   3.772   2.659  11.903
90791SOL    HW274206   3.745   2.808  11.900
90792SOL     OW74207  12.354  13.636   8.734
90792SOL    HW174208  12.282  13.698   8.722
90792SOL    HW274209  12.421  13.686   8.782
90793SOL     OW74210   9.075  11.972   6.397
90793SOL    HW174211   8.980  11.981   6.398
90793SOL    HW274212   9.092  11.892   6.447
90794SOL     OW74213  10.259  11.592   3.444
90794SOL    HW174214  10.190  11.615   3.382
90794SOL    HW274215  10.250  11.498   3.457
90795SOL     OW74216  12.825   1.403  10.317
90795SOL    HW174217  12.899   1.407  10.378
90795SOL    HW274218  12.763   1.342  10.357
90796SOL     OW74219   1.495  11.964   1.106
90796SOL    HW174220   1.543  12.024   1.164
90796SOL    HW274221   1.473  11.889   1.161
90797SOL     OW74222   5.378   1.703   5.982
90797SOL    HW174223   5.451   1.760   6.005
90797SOL    HW274224   5.419   1.620   5.959
90798SOL     OW74225  10.245   9.926  10.655
90798SOL    HW174226  10.272   9.852  10.709
90798SOL    HW274227  10.195   9.886  10.583
90799SOL     OW74228  12.724   5.773   2.632
90799SOL    HW174229  12.683   5.732   2.708
90799SOL    HW274230  12.798   5.716   2.611
90800SOL     OW74231  13.639  12.662   2.356
90800SOL    HW174232  13.629  12.586   2.299
90800SOL    HW274233  13.550  12.696   2.366
90801SOL     OW74234   0.038   8.204  14.590
90801SOL    HW174235  14.844   8.246  14.540
90801SOL    HW274236   0.018   8.223  14.681
90802SOL     OW74237  10.840   1.110  10.925
90802SOL    HW174238  10.894   1.076  10.854
90802SOL    HW274239  10.854   1.205  10.923
90803SOL     OW74240   4.841   9.184  13.602
90803SOL    HW174241   4.859   9.246  13.673
90803SOL    HW274242   4.853   9.098  13.642
90804SOL     OW74243   0.629   2.715   2.770
90804SOL    HW174244   0.651   2.712   2.864
90804SOL    HW274245   0.541   2.678   2.766
90805SOL     OW74246   0.937   5.963   0.666
90805SOL    HW174247   0.905   5.936   0.580
90805SOL    HW274248   1.022   6.004   0.648
90806SOL     OW74249   4.296  13.266  12.153
90806SOL    HW174250   4.285  13.172  12.165
90806SOL    HW274251   4.301  13.278  12.058
90807SOL     OW74252  12.881   5.641  13.123
90807SOL    HW174253  12.853   5.726  13.156
90807SOL    HW274254  12.932   5.662  13.044
90808SOL     OW74255   4.681   8.067   7.009
90808SOL    HW174256   4.642   8.023   7.084
90808SOL    HW274257   4.735   8.136   7.046
90809SOL     OW74258   6.112   4.893   2.593
90809SOL    HW174259   6.018   4.906   2.601
90809SOL    HW274260   6.150   4.950   2.661
90810SOL     OW74261   3.964   1.764   5.957
90810SOL    HW174262   4.043   1.743   6.007
90810SOL    HW274263   3.901   1.697   5.983
90811SOL     OW74264   2.711  11.194   0.226
90811SOL    HW174265   2.642  11.149   0.178
90811SOL    HW274266   2.727  11.140   0.303
90812SOL     OW74267  11.921   4.484   8.003
90812SOL    HW174268  11.834   4.464   7.968
90812SOL    HW274269  11.957   4.399   8.026
90813SOL     OW74270   0.411   6.660  12.276
90813SOL    HW174271   0.445   6.744  12.245
90813SOL    HW274272   0.321   6.678  12.301
90814SOL     OW74273  14.021  13.715   3.980
90814SOL    HW174274  14.033  13.770   3.902
90814SOL    HW274275  14.054  13.768   4.052
90815SOL     OW74276  10.476   7.849   1.295
90815SOL    HW174277  10.410   7.865   1.362
90815SOL    HW274278  10.560   7.862   1.341
90816SOL     OW74279   6.735  13.067   2.994
90816SOL    HW174280   6.694  13.090   2.910
90816SOL    HW274281   6.792  13.140   3.014
90817SOL     OW74282   2.930   2.865   5.512
90817SOL    HW174283   2.986   2.932   5.473
90817SOL    HW274284   2.934   2.883   5.606
90818SOL     OW74285  11.552   1.733   8.533
90818SOL    HW174286  11.487   1.759   8.598
90818SOL    HW274287  11.573   1.813   8.485
90819SOL     OW74288   0.085  12.791   1.157
90819SOL    HW174289   0.152  12.803   1.090
90819SOL    HW274290   0.129  12.814   1.239
90820SOL     OW74291   0.637   6.351   2.992
90820SOL    HW174292   0.569   6.283   2.988
90820SOL    HW274293   0.630   6.386   3.080
90821SOL     OW74294   2.809  11.556  11.820
90821SOL    HW174295   2.777  11.492  11.884
90821SOL    HW274296   2.760  11.636  11.840
90822SOL     OW74297  14.649   1.091   2.997
90822SOL    HW174298  14.662   1.029   3.068
90822SOL    HW274299  14.592   1.159   3.034
90823SOL     OW74300   7.386   8.778   5.360
90823SOL    HW174301   7.394   8.862   5.405
90823SOL    HW274302   7.362   8.801   5.270
90824SOL     OW74303   2.204  11.274   8.518
90824SOL    HW174304   2.287  11.258   8.473
90824SOL    HW274305   2.214  11.228   8.602
90825SOL     OW74306  13.070  10.596  10.391
90825SOL    HW174307  13.012  10.525  10.419
90825SOL    HW274308  13.010  10.667  10.366
90826SOL     OW74309  11.686   3.735   5.690
90826SOL    HW174310  11.593   3.730   5.711
90826SOL    HW274311  11.691   3.710   5.597
90827SOL     OW74312  10.146  13.054  12.595
90827SOL    HW174313  10.214  12.991  12.570
90827SOL    HW274314  10.087  13.058  12.520
90828SOL     OW74315   8.061   2.054  11.594
90828SOL    HW174316   8.004   1.986  11.558
90828SOL    HW274317   8.148   2.033  11.559
90829SOL     OW74318   2.498   0.256   4.130
90829SOL    HW174319   2.502   0.287   4.221
90829SOL    HW274320   2.590   0.252   4.103
90830SOL     OW74321   2.488  13.162  13.113
90830SOL    HW174322   2.506  13.167  13.019
90830SOL    HW274323   2.449  13.076  13.126
90831SOL     OW74324   6.938   2.686   7.310
90831SOL    HW174325   7.016   2.724   7.350
90831SOL    HW274326   6.964   2.666   7.220
90832SOL     OW74327   7.719   1.016   4.062
90832SOL    HW174328   7.696   1.053   3.977
90832SOL    HW274329   7.815   1.014   4.062
90833SOL     OW74330  14.261   8.114   7.351
90833SOL    HW174331  14.309   8.176   7.297
90833SOL    HW274332  14.173   8.112   7.313
90834SOL     OW74333  11.867   5.397   1.152
90834SOL    HW174334  11.868   5.314   1.105
90834SOL    HW274335  11.957   5.406   1.185
90835SOL     OW74336  11.846   5.235  11.688
90835SOL    HW174337  11.800   5.256  11.769
90835SOL    HW274338  11.869   5.320  11.651
90836SOL     OW74339  12.172  12.927   9.549
90836SOL    HW174340  12.232  12.982   9.599
90836SOL    HW274341  12.109  12.988   9.510
90837SOL     OW74342   7.822   5.785  10.567
90837SOL    HW174343   7.746   5.800  10.511
90837SOL    HW274344   7.787   5.735  10.641
90838SOL     OW74345   9.753   0.520   3.317
90838SOL    HW174346   9.666   0.488   3.341
90838SOL    HW274347   9.797   0.534   3.401
90839SOL     OW74348   9.082   9.124   3.456
90839SOL    HW174349   9.085   9.163   3.543
90839SOL    HW274350   9.171   9.130   3.423
90840SOL     OW74351  11.740   2.958   1.868
90840SOL    HW174352  11.796   3.025   1.828
90840SOL    HW274353  11.665   3.007   1.902
90841SOL     OW74354  10.126   3.280   3.994
90841SOL    HW174355  10.218   3.255   4.000
90841SOL    HW274356  10.108   3.282   3.900
90842SOL     OW74357   9.901  13.581  11.578
90842SOL    HW174358   9.978  13.557  11.527
90842SOL    HW274359   9.862  13.498  11.604
90843SOL     OW74360  14.646  12.616   0.566
90843SOL    HW174361  14.673  12.607   0.658
90843SOL    HW274362  14.619  12.707   0.558
90844SOL     OW74363   3.731  11.130  12.752
90844SOL    HW174364   3.801  11.140  12.687
90844SOL    HW274365   3.685  11.051  12.724
90845SOL     OW74366   4.189   3.966   5.489
90845SOL    HW174367   4.136   4.033   5.446
90845SOL    HW274368   4.269   4.011   5.516
90846SOL     OW74369  11.195   0.267  13.038
90846SOL    HW174370  11.175   0.248  12.947
90846SOL    HW274371  11.122   0.229  13.087
90847SOL     OW74372   1.835   1.000   1.516
90847SOL    HW174373   1.822   1.094   1.512
90847SOL    HW274374   1.929   0.989   1.531
90848SOL     OW74375   4.821   3.560   1.723
90848SOL    HW174376   4.752   3.533   1.784
90848SOL    HW274377   4.811   3.502   1.648
90849SOL     OW74378  10.376  13.141   5.172
90849SOL    HW174379  10.437  13.145   5.099
90849SOL    HW274380  10.306  13.083   5.141
90850SOL     OW74381   7.480   1.735   5.540
90850SOL    HW174382   7.575   1.734   5.531
90850SOL    HW274383   7.454   1.643   5.531
90851SOL     OW74384   3.060  11.893   0.337
90851SOL    HW174385   3.100  11.829   0.279
90851SOL    HW274386   3.096  11.977   0.308
90852SOL     OW74387   4.270   5.295  14.798
90852SOL    HW174388   4.317   5.263  14.722
90852SOL    HW274389   4.253   5.387  14.779
90853SOL     OW74390   1.577   3.114  14.444
90853SOL    HW174391   1.525   3.068  14.379
90853SOL    HW274392   1.646   3.053  14.468
90854SOL     OW74393   8.339   7.814   4.457
90854SOL    HW174394   8.372   7.904   4.467
90854SOL    HW274395   8.244   7.824   4.457
90855SOL     OW74396  13.898   4.498   8.018
90855SOL    HW174397  13.834   4.564   7.994
90855SOL    HW274398  13.982   4.544   8.014
90856SOL     OW74399  11.996  13.360   6.717
90856SOL    HW174400  12.052  13.438   6.725
90856SOL    HW274401  12.058  13.288   6.708
90857SOL     OW74402   2.946   4.581   1.979
90857SOL    HW174403   2.872   4.599   2.037
90857SOL    HW274404   2.945   4.654   1.917
90858SOL     OW74405  14.780   2.159   2.959
90858SOL    HW174406  14.804   2.100   2.888
90858SOL    HW274407  14.847   2.227   2.959
90859SOL     OW74408   6.184   3.152   6.564
90859SOL    HW174409   6.184   3.202   6.646
90859SOL    HW274410   6.099   3.171   6.524
90860SOL     OW74411  13.806   9.828  11.330
90860SOL    HW174412  13.885   9.880  11.311
90860SOL    HW274413  13.735   9.892  11.332
90861SOL     OW74414   4.778   8.610   6.851
90861SOL    HW174415   4.824   8.586   6.771
90861SOL    HW274416   4.848   8.623   6.916
90862SOL     OW74417   8.506  13.588   8.864
90862SOL    HW174418   8.551  13.590   8.948
90862SOL    HW274419   8.526  13.501   8.828
90863SOL     OW74420  13.861   6.076  14.166
90863SOL    HW174421  13.858   6.011  14.236
90863SOL    HW274422  13.947   6.064  14.126
90864SOL     OW74423  11.358   6.818   3.866
90864SOL    HW174424  11.306   6.787   3.791
90864SOL    HW274425  11.356   6.745   3.928
90865SOL     OW74426   9.705   3.374   8.365
90865SOL    HW174427   9.709   3.389   8.270
90865SOL    HW274428   9.763   3.299   8.380
90866SOL     OW74429   8.976   3.256  12.117
90866SOL    HW174430   8.960   3.334  12.065
90866SOL    HW274431   9.001   3.189  12.053
90867SOL     OW74432   8.015   7.198  10.731
90867SOL    HW174433   7.938   7.162  10.687
90867SOL    HW274434   7.988   7.207  10.823
90868SOL     OW74435  14.817   8.814  14.020
90868SOL    HW174436  14.749   8.763  14.066
90868SOL    HW274437  14.825   8.771  13.935
90869SOL     OW74438   0.470   0.197   5.619
90869SOL    HW174439   0.491   0.104   5.631
90869SOL    HW274440   0.480   0.236   5.706
90870SOL     OW74441   1.162   0.992  12.594
90870SOL    HW174442   1.241   1.002  12.647
90870SOL    HW274443   1.175   1.053  12.521
90871SOL     OW74444   8.941   7.792  10.898
90871SOL    HW174445   8.848   7.786  10.920
90871SOL    HW274446   8.945   7.772  10.805
90872SOL     OW74447  10.967   8.381  13.988
90872SOL    HW174448  11.047   8.342  14.024
90872SOL    HW274449  10.993   8.470  13.965
90873SOL     OW74450  13.437   0.650   5.428
90873SOL    HW174451  13.420   0.711   5.356
90873SOL    HW274452  13.351   0.629   5.463
90874SOL     OW74453   8.601  13.488   7.248
90874SOL    HW174454   8.513  13.516   7.226
90874SOL    HW274455   8.592  13.440   7.330
90875SOL     OW74456   3.261   6.010   3.023
90875SOL    HW174457   3.202   6.073   2.983
90875SOL    HW274458   3.212   5.928   3.025
90876SOL     OW74459   0.742   5.115  11.915
90876SOL    HW174460   0.758   5.158  11.831
90876SOL    HW274461   0.694   5.180  11.966
90877SOL     OW74462   5.091   0.389  14.636
90877SOL    HW174463   5.124   0.476  14.613
90877SOL    HW274464   5.059   0.398  14.725
90878SOL     OW74465   0.004   8.504   0.615
90878SOL    HW174466  14.874   8.493   0.710
90878SOL    HW274467  14.791   8.489   0.583
90879SOL     OW74468  11.429   1.149   8.218
90879SOL    HW174469  11.502   1.209   8.207
90879SOL    HW274470  11.409   1.119   8.129
90880SOL     OW74471   1.322   4.849   8.646
90880SOL    HW174472   1.346   4.909   8.716
90880SOL    HW274473   1.386   4.865   8.577
90881SOL     OW74474  12.883   1.944  12.809
90881SOL    HW174475  12.910   1.853  12.823
90881SOL    HW274476  12.963   1.994  12.827
90882SOL     OW74477   5.301   3.663   8.412
90882SOL    HW174478   5.330   3.743   8.368
90882SOL    HW274479   5.285   3.690   8.503
90883SOL     OW74480   3.948   9.108  10.334
90883SOL    HW174481   4.038   9.118  10.305
90883SOL    HW274482   3.924   9.195  10.368
90884SOL     OW74483   7.155   8.583  14.780
90884SOL    HW174484   7.097   8.538  14.841
90884SOL    HW274485   7.173   8.518  14.712
90885SOL     OW74486  12.015   3.099   9.308
90885SOL    HW174487  12.094   3.085   9.255
90885SOL    HW274488  12.005   3.018   9.358
90886SOL     OW74489   3.986   0.249  10.684
90886SOL    HW174490   3.906   0.246  10.737
90886SOL    HW274491   3.977   0.175  10.624
90887SOL     OW74492  12.113   8.029  14.689
90887SOL    HW174493  12.020   8.023  14.707
90887SOL    HW274494  12.145   8.099  14.745
90888SOL     OW74495   1.863  13.989   0.593
90888SOL    HW174496   1.828  13.971   0.680
90888SOL    HW274497   1.946  13.942   0.590
90889SOL     OW74498   9.442   5.509   6.853
90889SOL    HW174499   9.533   5.525   6.828
90889SOL    HW274500   9.435   5.413   6.855
90890SOL     OW74501  11.829   4.357   6.606
90890SOL    HW174502  11.903   4.370   6.666
90890SOL    HW274503  11.751   4.364   6.662
90891SOL     OW74504   1.294   4.810  13.373
90891SOL    HW174505   1.263   4.756  13.446
90891SOL    HW274506   1.317   4.894  13.413
90892SOL     OW74507   0.878   5.295   8.170
90892SOL    HW174508   0.905   5.203   8.174
90892SOL    HW274509   0.939   5.341   8.228
90893SOL     OW74510   0.986   2.803   9.570
90893SOL    HW174511   0.893   2.828   9.565
90893SOL    HW274512   1.003   2.793   9.663
90894SOL     OW74513   5.886  11.796  12.329
90894SOL    HW174514   5.870  11.702  12.326
90894SOL    HW274515   5.812  11.831  12.379
90895SOL     OW74516   9.528   2.304   6.694
90895SOL    HW174517   9.575   2.232   6.651
90895SOL    HW274518   9.469   2.337   6.626
90896SOL     OW74519   3.480   0.161   0.876
90896SOL    HW174520   3.415   0.184   0.942
90896SOL    HW274521   3.550   0.118   0.925
90897SOL     OW74522   5.913  13.557   3.812
90897SOL    HW174523   5.878  13.541   3.899
90897SOL    HW274524   5.975  13.486   3.797
90898SOL     OW74525   8.271   4.530   1.743
90898SOL    HW174526   8.327   4.527   1.666
90898SOL    HW274527   8.247   4.623   1.751
90899SOL     OW74528   0.882  11.231   0.712
90899SOL    HW174529   0.927  11.286   0.776
90899SOL    HW274530   0.950  11.175   0.676
90900SOL     OW74531   8.866   7.356   2.225
90900SOL    HW174532   8.893   7.264   2.218
90900SOL    HW274533   8.948   7.405   2.232
90901SOL     OW74534   9.940  10.925   1.141
90901SOL    HW174535  10.001  10.874   1.087
90901SOL    HW274536   9.966  11.016   1.126
90902SOL     OW74537   4.260   0.515  11.385
90902SOL    HW174538   4.298   0.428  11.372
90902SOL    HW274539   4.251   0.551  11.297
90903SOL     OW74540   5.389  10.655   1.484
90903SOL    HW174541   5.374  10.683   1.574
90903SOL    HW274542   5.452  10.719   1.449
90904SOL     OW74543   3.147  14.570  13.131
90904SOL    HW174544   3.186  14.497  13.180
90904SOL    HW274545   3.106  14.624  13.198
90905SOL     OW74546   0.680  11.258   7.169
90905SOL    HW174547   0.701  11.194   7.238
90905SOL    HW274548   0.743  11.239   7.099
90906SOL     OW74549   0.155  10.755   5.461
90906SOL    HW174550   0.136  10.668   5.497
90906SOL    HW274551   0.249  10.756   5.448
90907SOL     OW74552   1.470   9.595   0.879
90907SOL    HW174553   1.435   9.626   0.963
90907SOL    HW274554   1.396   9.551   0.837
90908SOL     OW74555  12.791   9.592   8.895
90908SOL    HW174556  12.862   9.592   8.960
90908SOL    HW274557  12.789   9.682   8.863
90909SOL     OW74558   8.017   6.101   2.247
90909SOL    HW174559   8.076   6.115   2.321
90909SOL    HW274560   8.064   6.040   2.190
90910SOL     OW74561   8.959   3.028   0.381
90910SOL    HW174562   9.045   2.997   0.353
90910SOL    HW274563   8.924   3.075   0.305
90911SOL     OW74564   8.996   7.979   1.405
90911SOL    HW174565   9.075   7.974   1.352
90911SOL    HW274566   8.938   8.039   1.358
90912SOL     OW74567   2.642  14.324   2.728
90912SOL    HW174568   2.561  14.327   2.676
90912SOL    HW274569   2.697  14.392   2.690
90913SOL     OW74570   8.523  14.306  12.242
90913SOL    HW174571   8.458  14.376  12.236
90913SOL    HW274572   8.570  14.308  12.159
90914SOL     OW74573   8.785  13.593   0.331
90914SOL    HW174574   8.813  13.611   0.422
90914SOL    HW274575   8.807  13.502   0.317
90915SOL     OW74576  11.608  13.177  11.461
90915SOL    HW174577  11.558  13.100  11.435
90915SOL    HW274578  11.676  13.186  11.394
90916SOL     OW74579  13.070   2.407   9.456
90916SOL    HW174580  13.063   2.458   9.375
90916SOL    HW274581  13.020   2.458   9.520
90917SOL     OW74582  10.596  13.700  11.525
90917SOL    HW174583  10.534  13.652  11.471
90917SOL    HW274584  10.545  13.728  11.602
90918SOL     OW74585   5.551   0.503   0.574
90918SOL    HW174586   5.497   0.575   0.607
90918SOL    HW274587   5.488   0.442   0.536
90919SOL     OW74588  13.559  12.257   5.385
90919SOL    HW174589  13.537  12.314   5.459
90919SOL    HW274590  13.535  12.308   5.308
90920SOL     OW74591   7.645  13.641   8.898
90920SOL    HW174592   7.703  13.701   8.850
90920SOL    HW274593   7.560  13.684   8.896
90921SOL     OW74594   1.945   6.597  13.563
90921SOL    HW174595   1.879   6.666  13.570
90921SOL    HW274596   1.962   6.569  13.653
90922SOL     OW74597  12.252  14.471   3.073
90922SOL    HW174598  12.288  14.402   3.017
90922SOL    HW274599  12.312  14.476   3.147
90923SOL     OW74600   4.364   1.355  10.259
90923SOL    HW174601   4.274   1.322  10.261
90923SOL    HW274602   4.374   1.391  10.171
90924SOL     OW74603  12.857   4.699   6.092
90924SOL    HW174604  12.950   4.701   6.111
90924SOL    HW274605  12.850   4.651   6.009
90925SOL     OW74606   6.918   4.635  12.001
90925SOL    HW174607   6.974   4.701  12.042
90925SOL    HW274608   6.963   4.552  12.016
90926SOL     OW74609  12.175   6.251  11.507
90926SOL    HW174610  12.197   6.261  11.599
90926SOL    HW274611  12.260   6.247  11.462
90927SOL     OW74612   9.989   4.991   4.085
90927SOL    HW174613  10.023   5.077   4.062
90927SOL    HW274614  10.067   4.934   4.085
90928SOL     OW74615  14.832   4.138   0.282
90928SOL    HW174616  14.753   4.189   0.264
90928SOL    HW274617  14.822   4.060   0.228
90929SOL     OW74618   3.483  10.305   6.658
90929SOL    HW174619   3.465  10.393   6.693
90929SOL    HW274620   3.432  10.301   6.578
90930SOL     OW74621  12.056  10.028   0.707
90930SOL    HW174622  12.140  10.001   0.669
90930SOL    HW274623  12.030  10.104   0.655
90931SOL     OW74624  10.624  10.867  10.519
90931SOL    HW174625  10.694  10.926  10.492
90931SOL    HW274626  10.590  10.906  10.600
90932SOL     OW74627  10.909   3.785   0.599
90932SOL    HW174628  10.903   3.691   0.581
90932SOL    HW274629  10.836   3.824   0.550
90933SOL     OW74630  14.144  14.043  10.484
90933SOL    HW174631  14.194  14.116  10.520
90933SOL    HW274632  14.054  14.060  10.511
90934SOL     OW74633   7.276  13.017   5.485
90934SOL    HW174634   7.195  13.064   5.467
90934SOL    HW274635   7.251  12.947   5.546
90935SOL     OW74636   5.020  11.364   0.292
90935SOL    HW174637   4.933  11.385   0.327
90935SOL    HW274638   5.056  11.449   0.265
90936SOL     OW74639  12.437   7.062  10.992
90936SOL    HW174640  12.457   7.142  11.040
90936SOL    HW274641  12.342   7.052  11.000
90937SOL     OW74642  13.897   3.485   0.198
90937SOL    HW174643  13.881   3.430   0.122
90937SOL    HW274644  13.856   3.569   0.177
90938SOL     OW74645  11.685  13.628  10.155
90938SOL    HW174646  11.689  13.721  10.176
90938SOL    HW274647  11.592  13.612  10.135
90939SOL     OW74648   0.890   5.135   6.085
90939SOL    HW174649   0.802   5.107   6.111
90939SOL    HW274650   0.920   5.191   6.156
90940SOL     OW74651   9.525   9.526  10.773
90940SOL    HW174652   9.469   9.453  10.800
90940SOL    HW274653   9.601   9.484  10.733
90941SOL     OW74654  11.218   9.542  13.316
90941SOL    HW174655  11.294   9.497  13.353
90941SOL    HW274656  11.254   9.600  13.249
90942SOL     OW74657  10.746  12.623   0.044
90942SOL    HW174658  10.779  12.713   0.043
90942SOL    HW274659  10.675  12.623  14.856
90943SOL     OW74660   6.283   6.577   1.155
90943SOL    HW174661   6.220   6.511   1.127
90943SOL    HW274662   6.316   6.545   1.238
90944SOL     OW74663   6.454   2.436   8.485
90944SOL    HW174664   6.400   2.472   8.555
90944SOL    HW274665   6.489   2.355   8.521
90945SOL     OW74666   3.853  10.385   8.858
90945SOL    HW174667   3.867  10.392   8.952
90945SOL    HW274668   3.772  10.335   8.849
90946SOL     OW74669  13.717   0.942  12.742
90946SOL    HW174670  13.649   0.956  12.676
90946SOL    HW274671  13.798   0.968  12.699
90947SOL     OW74672  13.240   8.375  11.403
90947SOL    HW174673  13.192   8.292  11.412
90947SOL    HW274674  13.293   8.381  11.483
90948SOL     OW74675  10.752  14.866   7.006
90948SOL    HW174676  10.704   0.073   7.014
90948SOL    HW274677  10.844   0.016   7.001
90949SOL     OW74678  10.834   3.722   2.427
90949SOL    HW174679  10.758   3.759   2.384
90949SOL    HW274680  10.816   3.733   2.521
90950SOL     OW74681   3.546   2.635   5.708
90950SOL    HW174682   3.573   2.713   5.756
90950SOL    HW274683   3.451   2.638   5.709
90951SOL     OW74684  13.179   0.935   2.646
90951SOL    HW174685  13.208   0.986   2.570
90951SOL    HW274686  13.206   0.845   2.626
90952SOL     OW74687  13.478  14.484   9.329
90952SOL    HW174688  13.400  14.463   9.380
90952SOL    HW274689  13.500  14.573   9.354
90953SOL     OW74690   0.930   5.317  14.711
90953SOL    HW174691   0.873   5.394  14.720
90953SOL    HW274692   0.920   5.270  14.794
90954SOL     OW74693  11.464  13.049   1.738
90954SOL    HW174694  11.560  13.051   1.739
90954SOL    HW274695  11.440  13.095   1.657
90955SOL     OW74696  11.017   6.832   5.373
90955SOL    HW174697  11.078   6.758   5.372
90955SOL    HW274698  11.000   6.848   5.466
90956SOL     OW74699   7.206  10.835   5.472
90956SOL    HW174700   7.173  10.883   5.396
90956SOL    HW274701   7.135  10.775   5.494
90957SOL     OW74702   1.145   6.194   3.814
90957SOL    HW174703   1.062   6.153   3.791
90957SOL    HW274704   1.123   6.286   3.828
90958SOL     OW74705   7.994   5.114   2.321
90958SOL    HW174706   8.008   5.127   2.227
90958SOL    HW274707   7.972   5.022   2.331
90959SOL     OW74708   3.950   8.101  14.549
90959SOL    HW174709   3.985   8.170  14.605
90959SOL    HW274710   3.855   8.111  14.555
90960SOL     OW74711   8.466   9.665   5.902
90960SOL    HW174712   8.484   9.626   5.988
90960SOL    HW274713   8.391   9.616   5.869
90961SOL     OW74714  10.836   6.894   7.952
90961SOL    HW174715  10.778   6.929   8.019
90961SOL    HW274716  10.908   6.957   7.947
90962SOL     OW74717   6.196   6.997  13.617
90962SOL    HW174718   6.203   7.009  13.523
90962SOL    HW274719   6.216   6.905  13.632
90963SOL     OW74720  12.288  10.641  12.959
90963SOL    HW174721  12.239  10.683  12.887
90963SOL    HW274722  12.333  10.568  12.917
90964SOL     OW74723   7.940   9.311   1.357
90964SOL    HW174724   7.993   9.238   1.389
90964SOL    HW274725   7.970   9.386   1.409
90965SOL     OW74726   5.448   3.095   1.581
90965SOL    HW174727   5.494   3.040   1.517
90965SOL    HW274728   5.461   3.185   1.549
90966SOL     OW74729   8.496  13.349   4.696
90966SOL    HW174730   8.447  13.400   4.631
90966SOL    HW274731   8.430  13.293   4.737
90967SOL     OW74732   4.614  10.615   4.342
90967SOL    HW174733   4.590  10.653   4.257
90967SOL    HW274734   4.531  10.604   4.388
90968SOL     OW74735   7.641   9.344   0.369
90968SOL    HW174736   7.640   9.429   0.326
90968SOL    HW274737   7.576   9.292   0.323
90969SOL     OW74738  13.379   2.295   3.162
90969SOL    HW174739  13.423   2.361   3.108
90969SOL    HW274740  13.304   2.341   3.199
90970SOL     OW74741  12.241   9.198  14.638
90970SOL    HW174742  12.286   9.166  14.717
90970SOL    HW274743  12.310   9.235  14.584
90971SOL     OW74744  10.378   3.636   7.527
90971SOL    HW174745  10.294   3.615   7.486
90971SOL    HW274746  10.374   3.731   7.540
90972SOL     OW74747   0.098  13.746   0.114
90972SOL    HW174748   0.119  13.654   0.132
90972SOL    HW274749   0.004  13.747   0.100
90973SOL     OW74750  11.601   5.931   2.055
90973SOL    HW174751  11.532   5.906   2.118
90973SOL    HW274752  11.660   5.987   2.105
90974SOL     OW74753   0.248  14.124   0.924
90974SOL    HW174754   0.285  14.041   0.891
90974SOL    HW274755   0.160  14.128   0.886
90975SOL     OW74756   7.888   8.530  10.507
90975SOL    HW174757   7.868   8.491  10.593
90975SOL    HW274758   7.808   8.516  10.456
90976SOL     OW74759  10.300  12.767   7.923
90976SOL    HW174760  10.372  12.743   7.981
90976SOL    HW274761  10.270  12.684   7.887
90977SOL     OW74762   2.668   3.765   9.490
90977SOL    HW174763   2.717   3.847   9.484
90977SOL    HW274764   2.625   3.769   9.575
90978SOL     OW74765   8.899  14.478  11.273
90978SOL    HW174766   8.883  14.398  11.324
90978SOL    HW274767   8.814  14.497  11.233
90979SOL     OW74768  12.388  13.439   8.166
90979SOL    HW174769  12.428  13.520   8.197
90979SOL    HW274770  12.458  13.394   8.119
90980SOL     OW74771   5.636   4.207  14.338
90980SOL    HW174772   5.564   4.175  14.283
90980SOL    HW274773   5.592   4.246  14.413
90981SOL     OW74774   5.584   6.714   2.141
90981SOL    HW174775   5.624   6.628   2.152
90981SOL    HW274776   5.554   6.716   2.050
90982SOL     OW74777  13.732  13.857   4.546
90982SOL    HW174778  13.710  13.802   4.470
90982SOL    HW274779  13.667  13.927   4.544
90983SOL     OW74780   1.165   8.647   5.474
90983SOL    HW174781   1.215   8.637   5.555
90983SOL    HW274782   1.112   8.726   5.488
90984SOL     OW74783  13.817   4.052   1.911
90984SOL    HW174784  13.814   4.145   1.891
90984SOL    HW274785  13.739   4.015   1.868
90985SOL     OW74786   2.537   6.906  11.277
90985SOL    HW174787   2.580   6.873  11.199
90985SOL    HW274788   2.521   6.999  11.259
90986SOL     OW74789  14.818   1.009   1.043
90986SOL    HW174790  14.740   0.989   1.093
90986SOL    HW274791  14.855   1.086   1.085
90987SOL     OW74792   4.535   8.420   7.203
90987SOL    HW174793   4.550   8.393   7.112
90987SOL    HW274794   4.559   8.343   7.254
90988SOL     OW74795   0.759   4.343   8.461
90988SOL    HW174796   0.762   4.247   8.459
90988SOL    HW274797   0.727   4.364   8.548
90989SOL     OW74798  12.561   1.666  11.960
90989SOL    HW174799  12.629   1.629  12.017
90989SOL    HW274800  12.491   1.601  11.962
90990SOL     OW74801  12.286  12.666  12.046
90990SOL    HW174802  12.280  12.657  11.951
90990SOL    HW274803  12.222  12.604  12.080
90991SOL     OW74804  12.668   8.570  13.141
90991SOL    HW174805  12.627   8.657  13.142
90991SOL    HW274806  12.721   8.568  13.221
90992SOL     OW74807   5.451  12.779   6.958
90992SOL    HW174808   5.380  12.806   7.017
90992SOL    HW274809   5.458  12.684   6.971
90993SOL     OW74810  13.377  13.777   1.874
90993SOL    HW174811  13.351  13.866   1.851
90993SOL    HW274812  13.324  13.756   1.952
90994SOL     OW74813  10.774   0.492   1.036
90994SOL    HW174814  10.774   0.585   1.055
90994SOL    HW274815  10.683   0.473   1.011
90995SOL     OW74816   3.179  13.778   2.857
90995SOL    HW174817   3.228  13.767   2.775
90995SOL    HW274818   3.106  13.835   2.833
90996SOL     OW74819  13.778   1.970   4.596
90996SOL    HW174820  13.852   1.942   4.650
90996SOL    HW274821  13.795   2.063   4.579
90997SOL     OW74822  12.880  10.561   7.916
90997SOL    HW174823  12.949  10.624   7.939
90997SOL    HW274824  12.855  10.585   7.827
90998SOL     OW74825   6.969  11.198  10.367
90998SOL    HW174826   6.986  11.108  10.396
90998SOL    HW274827   7.043  11.218  10.309
90999SOL     OW74828  10.278  11.614   9.012
90999SOL    HW174829  10.287  11.625   9.106
90999SOL    HW274830  10.345  11.671   8.974
91000SOL     OW74831   7.098  14.335   5.006
91000SOL    HW174832   7.100  14.278   5.083
91000SOL    HW274833   7.106  14.275   4.932
91001SOL     OW74834   6.686   0.538   4.360
91001SOL    HW174835   6.621   0.607   4.371
91001SOL    HW274836   6.667   0.502   4.273
91002SOL     OW74837   2.759  10.593   2.958
91002SOL    HW174838   2.719  10.640   3.031
91002SOL    HW274839   2.710  10.511   2.952
91003SOL     OW74840  11.855   4.621  11.653
91003SOL    HW174841  11.906   4.545  11.626
91003SOL    HW274842  11.919   4.693  11.655
91004SOL     OW74843  12.241  13.255   8.307
91004SOL    HW174844  12.252  13.288   8.396
91004SOL    HW274845  12.290  13.317   8.252
91005SOL     OW74846  13.354   7.527  12.032
91005SOL    HW174847  13.375   7.517  12.125
91005SOL    HW274848  13.394   7.450  11.990
91006SOL     OW74849   4.584   6.005   7.896
91006SOL    HW174850   4.614   6.074   7.838
91006SOL    HW274851   4.664   5.966   7.931
91007SOL     OW74852   8.031   1.601   6.245
91007SOL    HW174853   8.021   1.513   6.282
91007SOL    HW274854   7.953   1.614   6.191
91008SOL     OW74855   6.218   1.126  12.887
91008SOL    HW174856   6.249   1.199  12.833
91008SOL    HW274857   6.139   1.159  12.929
91009SOL     OW74858   1.548  10.908  10.028
91009SOL    HW174859   1.531  10.930   9.937
91009SOL    HW274860   1.603  10.980  10.060
91010SOL     OW74861   4.482   5.670  13.889
91010SOL    HW174862   4.446   5.672  13.978
91010SOL    HW274863   4.570   5.705  13.899
91011SOL     OW74864   3.371  14.473  13.780
91011SOL    HW174865   3.355  14.510  13.867
91011SOL    HW274866   3.407  14.545  13.729
91012SOL     OW74867   5.950  10.226  10.265
91012SOL    HW174868   6.002  10.278  10.203
91012SOL    HW274869   5.956  10.275  10.348
91013SOL     OW74870   0.093   3.632   8.951
91013SOL    HW174871   0.125   3.641   8.861
91013SOL    HW274872   0.064   3.541   8.956
91014SOL     OW74873   0.216   6.729   3.893
91014SOL    HW174874   0.125   6.707   3.876
91014SOL    HW274875   0.238   6.796   3.828
91015SOL     OW74876   9.045   3.581  11.690
91015SOL    HW174877   9.098   3.555  11.615
91015SOL    HW274878   9.068   3.673  11.705
91016SOL     OW74879   2.959   1.349   6.254
91016SOL    HW174880   3.004   1.430   6.281
91016SOL    HW274881   2.985   1.337   6.163
91017SOL     OW74882   4.958   2.029   6.707
91017SOL    HW174883   4.965   2.110   6.657
91017SOL    HW274884   5.023   1.971   6.667
91018SOL     OW74885   4.242   2.684  10.229
91018SOL    HW174886   4.180   2.644  10.168
91018SOL    HW274887   4.189   2.706  10.305
91019SOL     OW74888  11.553  11.188   9.223
91019SOL    HW174889  11.595  11.240   9.293
91019SOL    HW274890  11.603  11.106   9.221
91020SOL     OW74891   0.717   0.732  10.354
91020SOL    HW174892   0.792   0.679  10.329
91020SOL    HW274893   0.653   0.670  10.389
91021SOL     OW74894   9.599   9.888  14.285
91021SOL    HW174895   9.504   9.881  14.274
91021SOL    HW274896   9.623   9.967  14.237
91022SOL     OW74897   4.871   7.216   1.347
91022SOL    HW174898   4.913   7.300   1.330
91022SOL    HW274899   4.918   7.180   1.422
91023SOL     OW74900  10.870   4.531  10.267
91023SOL    HW174901  10.919   4.603  10.228
91023SOL    HW274902  10.788   4.570  10.296
91024SOL     OW74903   6.481   9.881   3.080
91024SOL    HW174904   6.396   9.908   3.117
91024SOL    HW274905   6.470   9.789   3.059
91025SOL     OW74906   6.082  10.641  14.794
91025SOL    HW174907   6.104  10.709  14.857
91025SOL    HW274908   5.986  10.638  14.795
91026SOL     OW74909   5.630   3.134  11.347
91026SOL    HW174910   5.621   3.116  11.253
91026SOL    HW274911   5.591   3.058  11.390
91027SOL     OW74912   2.183   8.419  14.859
91027SOL    HW174913   2.188   8.456   0.072
91027SOL    HW274914   2.092   8.434  14.832
91028SOL     OW74915  14.292  13.898  10.049
91028SOL    HW174916  14.286  13.968  10.114
91028SOL    HW274917  14.320  13.821  10.099
91029SOL     OW74918   3.097   1.434  11.121
91029SOL    HW174919   3.020   1.396  11.078
91029SOL    HW274920   3.134   1.493  11.056
91030SOL     OW74921   8.481   4.155   4.904
91030SOL    HW174922   8.423   4.141   4.829
91030SOL    HW274923   8.449   4.094   4.971
91031SOL     OW74924   5.026  11.076   6.374
91031SOL    HW174925   4.989  11.161   6.397
91031SOL    HW274926   4.956  11.014   6.392
91032SOL     OW74927   9.581  12.468  12.522
91032SOL    HW174928   9.633  12.512  12.456
91032SOL    HW274929   9.518  12.534  12.552
91033SOL     OW74930   6.373  13.188  13.319
91033SOL    HW174931   6.468  13.178  13.320
91033SOL    HW274932   6.358  13.272  13.276
91034SOL     OW74933   2.538   7.065   4.871
91034SOL    HW174934   2.538   7.159   4.853
91034SOL    HW274935   2.451   7.048   4.905
91035SOL     OW74936   7.220  10.098   6.405
91035SOL    HW174937   7.248  10.068   6.491
91035SOL    HW274938   7.213  10.019   6.352
91036SOL     OW74939   3.551   4.596  13.000
91036SOL    HW174940   3.593   4.557  12.923
91036SOL    HW274941   3.468   4.632  12.967
91037SOL     OW74942   8.712   2.737   9.309
91037SOL    HW174943   8.761   2.816   9.285
91037SOL    HW274944   8.746   2.712   9.395
91038SOL     OW74945   4.164   1.411   6.062
91038SOL    HW174946   4.104   1.349   6.104
91038SOL    HW274947   4.141   1.496   6.100
91039SOL     OW74948  13.328  12.001   2.386
91039SOL    HW174949  13.257  11.972   2.329
91039SOL    HW274950  13.341  12.093   2.363
91040SOL     OW74951   9.358   9.463   7.227
91040SOL    HW174952   9.432   9.475   7.168
91040SOL    HW274953   9.289   9.517   7.190
91041SOL     OW74954   7.420   3.170   8.742
91041SOL    HW174955   7.436   3.206   8.829
91041SOL    HW274956   7.325   3.159   8.738
91042SOL     OW74957  12.491   0.321   2.985
91042SOL    HW174958  12.431   0.338   3.058
91042SOL    HW274959  12.542   0.246   3.013
91043SOL     OW74960   9.246   2.369  14.203
91043SOL    HW174961   9.201   2.299  14.251
91043SOL    HW274962   9.337   2.363  14.230
91044SOL     OW74963   9.732  11.210  10.198
91044SOL    HW174964   9.682  11.212  10.280
91044SOL    HW274965   9.814  11.167  10.221
91045SOL     OW74966   7.950  12.575   4.584
91045SOL    HW174967   7.919  12.623   4.508
91045SOL    HW274968   8.009  12.509   4.549
91046SOL     OW74969   2.970   1.948  13.033
91046SOL    HW174970   2.986   2.035  13.069
91046SOL    HW274971   2.998   1.888  13.102
91047SOL     OW74972   5.364  12.921   6.144
91047SOL    HW174973   5.396  13.011   6.151
91047SOL    HW274974   5.427  12.878   6.087
91048SOL     OW74975  13.091   4.224   6.432
91048SOL    HW174976  13.100   4.247   6.525
91048SOL    HW274977  13.097   4.128   6.431
91049SOL     OW74978  13.090   2.223   9.097
91049SOL    HW174979  13.168   2.198   9.147
91049SOL    HW274980  13.117   2.216   9.005
91050SOL     OW74981   1.038   2.103   8.695
91050SOL    HW174982   1.122   2.107   8.649
91050SOL    HW274983   1.047   2.167   8.765
91051SOL     OW74984  10.887   6.323  11.961
91051SOL    HW174985  10.945   6.249  11.944
91051SOL    HW274986  10.947   6.396  11.977
91052SOL     OW74987   9.139   6.862  11.884
91052SOL    HW174988   9.169   6.930  11.944
91052SOL    HW274989   9.044   6.862  11.893
91053SOL     OW74990   0.798   6.226   7.515
91053SOL    HW174991   0.843   6.220   7.599
91053SOL    HW274992   0.721   6.280   7.532
91054SOL     OW74993  14.543   3.586  12.383
91054SOL    HW174994  14.622   3.536  12.403
91054SOL    HW274995  14.472   3.521  12.389
91055SOL     OW74996   7.108   8.115   6.679
91055SOL    HW174997   7.136   8.119   6.770
91055SOL    HW274998   7.033   8.174   6.673
91056SOL     OW74999   6.167  11.226   9.440
91056SOL    HW175000   6.190  11.150   9.493
91056SOL    HW275001   6.074  11.241   9.458
91057SOL     OW75002  14.503   9.741   6.226
91057SOL    HW175003  14.416   9.751   6.265
91057SOL    HW275004  14.498   9.657   6.179
91058SOL     OW75005   7.713   4.287   7.196
91058SOL    HW175006   7.648   4.281   7.265
91058SOL    HW275007   7.762   4.205   7.202
91059SOL     OW75008   9.390   7.127   2.768
91059SOL    HW175009   9.461   7.066   2.749
91059SOL    HW275010   9.311   7.074   2.770
91060SOL     OW75011  12.754   7.200  13.423
91060SOL    HW175012  12.761   7.188  13.517
91060SOL    HW275013  12.756   7.295  13.411
91061SOL     OW75014  12.959   3.106   3.955
91061SOL    HW175015  12.992   3.190   3.988
91061SOL    HW275016  13.015   3.085   3.881
91062SOL     OW75017   6.082   1.028   5.268
91062SOL    HW175018   6.007   1.028   5.209
91062SOL    HW275019   6.157   1.005   5.213
91063SOL     OW75020   1.676  14.801   1.136
91063SOL    HW175021   1.744  14.813   1.202
91063SOL    HW275022   1.650   0.015   1.113
91064SOL     OW75023   8.887   8.134   5.015
91064SOL    HW175024   8.812   8.112   5.070
91064SOL    HW275025   8.860   8.213   4.968
91065SOL     OW75026   4.680   4.767   9.103
91065SOL    HW175027   4.743   4.702   9.072
91065SOL    HW275028   4.595   4.734   9.072
91066SOL     OW75029   0.978   9.257   7.138
91066SOL    HW175030   0.890   9.220   7.129
91066SOL    HW275031   0.969   9.347   7.108
91067SOL     OW75032   5.021   8.923   1.113
91067SOL    HW175033   5.058   8.981   1.180
91067SOL    HW275034   5.046   8.835   1.143
91068SOL     OW75035   8.735   8.946   5.412
91068SOL    HW175036   8.731   8.871   5.472
91068SOL    HW275037   8.697   9.019   5.462
91069SOL     OW75038   6.042   0.126   4.084
91069SOL    HW175039   6.019   0.155   4.173
91069SOL    HW275040   6.038   0.206   4.032
91070SOL     OW75041  12.227  13.816  12.612
91070SOL    HW175042  12.259  13.727  12.618
91070SOL    HW275043  12.287  13.867  12.667
91071SOL     OW75044   8.777   7.975   1.218
91071SOL    HW175045   8.739   8.038   1.279
91071SOL    HW275046   8.705   7.951   1.160
91072SOL     OW75047   1.773   6.198   2.735
91072SOL    HW175048   1.779   6.259   2.808
91072SOL    HW275049   1.747   6.252   2.660
91073SOL     OW75050  11.333  14.275  14.850
91073SOL    HW175051  11.307  14.352  14.799
91073SOL    HW275052  11.356  14.310   0.060
91074SOL     OW75053   4.226  11.681   0.912
91074SOL    HW175054   4.279  11.601   0.911
91074SOL    HW275055   4.137  11.651   0.898
91075SOL     OW75056   6.995  10.498   3.786
91075SOL    HW175057   7.075  10.522   3.739
91075SOL    HW275058   6.984  10.568   3.851
91076SOL     OW75059  14.153   8.492   4.502
91076SOL    HW175060  14.068   8.521   4.534
91076SOL    HW275061  14.145   8.491   4.407
91077SOL     OW75062   5.622  14.826   5.991
91077SOL    HW175063   5.533  14.859   5.985
91077SOL    HW275064   5.667  14.865   5.916
91078SOL     OW75065  13.595   6.431  14.407
91078SOL    HW175066  13.572   6.392  14.323
91078SOL    HW275067  13.631   6.516  14.386
91079SOL     OW75068   5.044   6.190   0.835
91079SOL    HW175069   5.105   6.228   0.898
91079SOL    HW275070   5.099   6.162   0.762
91080SOL     OW75071   5.355   1.943  13.054
91080SOL    HW175072   5.281   1.912  13.001
91080SOL    HW275073   5.381   2.025  13.012
91081SOL     OW75074   2.155   3.306   9.708
91081SOL    HW175075   2.247   3.319   9.729
91081SOL    HW275076   2.109   3.374   9.757
91082SOL     OW75077   8.277   3.903  10.202
91082SOL    HW175078   8.277   3.818  10.246
91082SOL    HW275079   8.186   3.917  10.176
91083SOL     OW75080   5.961  10.618  11.841
91083SOL    HW175081   5.920  10.537  11.870
91083SOL    HW275082   6.019  10.592  11.770
91084SOL     OW75083   0.300  12.893   7.059
91084SOL    HW175084   0.359  12.890   7.134
91084SOL    HW275085   0.213  12.881   7.097
91085SOL     OW75086   4.947   2.913  10.153
91085SOL    HW175087   4.969   2.862  10.076
91085SOL    HW275088   5.030   2.923  10.200
91086SOL     OW75089   0.747  12.414   3.598
91086SOL    HW175090   0.762  12.378   3.686
91086SOL    HW275091   0.708  12.343   3.549
91087SOL     OW75092   3.251   5.792   7.724
91087SOL    HW175093   3.176   5.829   7.770
91087SOL    HW275094   3.270   5.855   7.654
91088SOL     OW75095  10.287   3.603  12.548
91088SOL    HW175096  10.243   3.598  12.463
91088SOL    HW275097  10.319   3.693  12.553
91089SOL     OW75098   6.404   8.196  10.738
91089SOL    HW175099   6.352   8.214  10.817
91089SOL    HW275100   6.482   8.153  10.771
91090SOL     OW75101  14.606  13.057   9.957
91090SOL    HW175102  14.696  13.087   9.974
91090SOL    HW275103  14.597  13.062   9.862
91091SOL     OW75104   3.629   9.393   5.828
91091SOL    HW175105   3.554   9.336   5.843
91091SOL    HW275106   3.664   9.410   5.915
91092SOL     OW75107   6.089  10.702  13.347
91092SOL    HW175108   6.139  10.631  13.307
91092SOL    HW275109   6.038  10.659  13.416
91093SOL     OW75110   4.795   8.500   9.517
91093SOL    HW175111   4.813   8.427   9.457
91093SOL    HW275112   4.881   8.521   9.555
91094SOL     OW75113  12.493   3.986   7.148
91094SOL    HW175114  12.507   3.962   7.056
91094SOL    HW275115  12.581   4.003   7.182
91095SOL     OW75116   4.448   8.175   9.596
91095SOL    HW175117   4.496   8.094   9.579
91095SOL    HW275118   4.509   8.245   9.573
91096SOL     OW75119   4.730   6.878   1.096
91096SOL    HW175120   4.753   6.971   1.094
91096SOL    HW275121   4.635   6.877   1.108
91097SOL     OW75122   2.030   5.042   4.010
91097SOL    HW175123   1.991   4.979   4.071
91097SOL    HW275124   2.021   5.000   3.924
91098SOL     OW75125  13.484   5.072   7.863
91098SOL    HW175126  13.523   5.160   7.863
91098SOL    HW275127  13.513   5.033   7.781
91099SOL     OW75128   6.042   6.322   1.439
91099SOL    HW175129   6.102   6.391   1.410
91099SOL    HW275130   5.955   6.354   1.416
91100SOL     OW75131   5.346   8.382   2.958
91100SOL    HW175132   5.354   8.414   2.868
91100SOL    HW275133   5.267   8.328   2.957
91101SOL     OW75134  12.228   5.457   0.092
91101SOL    HW175135  12.314   5.497   0.100
91101SOL    HW275136  12.217   5.443  14.874
91102SOL     OW75137   4.318   7.649   8.111
91102SOL    HW175138   4.353   7.706   8.179
91102SOL    HW275139   4.388   7.645   8.045
91103SOL     OW75140   3.699   5.121  14.874
91103SOL    HW175141   3.668   5.184  14.809
91103SOL    HW275142   3.710   5.039  14.825
91104SOL     OW75143   3.950  13.709  10.107
91104SOL    HW175144   3.938  13.784  10.049
91104SOL    HW275145   3.916  13.739  10.192
91105SOL     OW75146  13.424   2.558   1.038
91105SOL    HW175147  13.475   2.603   1.105
91105SOL    HW275148  13.480   2.559   0.961
91106SOL     OW75149   0.616   8.695   5.041
91106SOL    HW175150   0.621   8.682   4.946
91106SOL    HW275151   0.617   8.607   5.078
91107SOL     OW75152  13.137  10.540  11.080
91107SOL    HW175153  13.177  10.625  11.098
91107SOL    HW275154  13.162  10.519  10.990
91108SOL     OW75155   5.635   6.756  12.252
91108SOL    HW175156   5.546   6.744  12.285
91108SOL    HW275157   5.628   6.828  12.189
91109SOL     OW75158   7.922   1.136   4.855
91109SOL    HW175159   8.018   1.137   4.856
91109SOL    HW275160   7.899   1.044   4.859
91110SOL     OW75161   2.214   4.126   2.526
91110SOL    HW175162   2.293   4.095   2.482
91110SOL    HW275163   2.192   4.055   2.587
91111SOL     OW75164   3.148  12.730   8.477
91111SOL    HW175165   3.063  12.695   8.502
91111SOL    HW275166   3.132  12.780   8.397
91112SOL     OW75167  11.548   8.861   8.802
91112SOL    HW175168  11.533   8.800   8.874
91112SOL    HW275169  11.565   8.945   8.846
91113SOL     OW75170  11.056   3.413   8.273
91113SOL    HW175171  11.029   3.383   8.186
91113SOL    HW275172  10.975   3.419   8.323
91114SOL     OW75173  13.203   7.891  12.359
91114SOL    HW175174  13.224   7.798  12.354
91114SOL    HW275175  13.288   7.934  12.369
91115SOL     OW75176   3.356   5.862   0.467
91115SOL    HW175177   3.414   5.916   0.522
91115SOL    HW275178   3.292   5.923   0.433
91116SOL     OW75179   3.462   7.187   3.088
91116SOL    HW175180   3.369   7.204   3.107
91116SOL    HW275181   3.489   7.126   3.156
91117SOL     OW75182  10.291  13.948   3.342
91117SOL    HW175183  10.198  13.964   3.326
91117SOL    HW275184  10.331  13.953   3.255
91118SOL     OW75185   4.644   4.220   7.969
91118SOL    HW175186   4.635   4.126   7.951
91118SOL    HW275187   4.704   4.252   7.902
91119SOL     OW75188   5.801   9.625   0.918
91119SOL    HW175189   5.807   9.720   0.910
91119SOL    HW275190   5.807   9.608   1.012
91120SOL     OW75191   0.818   9.627  14.867
91120SOL    HW175192   0.785   9.538  14.862
91120SOL    HW275193   0.772   9.674  14.797
91121SOL     OW75194   9.022  11.156  13.685
91121SOL    HW175195   9.024  11.233  13.742
91121SOL    HW275196   9.011  11.191  13.597
91122SOL     OW75197   3.007  10.726   2.463
91122SOL    HW175198   2.949  10.652   2.482
91122SOL    HW275199   3.031  10.715   2.371
91123SOL     OW75200   3.375  13.996   7.228
91123SOL    HW175201   3.419  14.051   7.293
91123SOL    HW275202   3.334  14.058   7.168
91124SOL     OW75203  10.925   8.619   4.328
91124SOL    HW175204  10.921   8.715   4.327
91124SOL    HW275205  10.975   8.596   4.250
91125SOL     OW75206   8.589   2.080   8.740
91125SOL    HW175207   8.573   2.137   8.815
91125SOL    HW275208   8.529   2.111   8.673
91126SOL     OW75209   8.284   8.820   6.429
91126SOL    HW175210   8.368   8.851   6.397
91126SOL    HW275211   8.304   8.779   6.513
91127SOL     OW75212  13.603   9.939   5.388
91127SOL    HW175213  13.548   9.870   5.350
91127SOL    HW275214  13.685   9.934   5.339
91128SOL     OW75215   8.433   1.972   2.102
91128SOL    HW175216   8.412   1.960   2.195
91128SOL    HW275217   8.424   1.885   2.064
91129SOL     OW75218  14.097  14.660   0.081
91129SOL    HW175219  14.034  14.589   0.093
91129SOL    HW275220  14.065  14.708   0.005
91130SOL     OW75221   8.965  11.886  10.286
91130SOL    HW175222   8.918  11.808  10.256
91130SOL    HW275223   8.950  11.888  10.381
91131SOL     OW75224  13.538   2.634  14.011
91131SOL    HW175225  13.511   2.707  14.067
91131SOL    HW275226  13.575   2.675  13.933
91132SOL     OW75227   0.553   5.012   6.572
91132SOL    HW175228   0.501   4.986   6.496
91132SOL    HW275229   0.604   4.934   6.594
91133SOL     OW75230  14.257   3.445   0.365
91133SOL    HW175231  14.223   3.533   0.383
91133SOL    HW275232  14.350   3.458   0.346
91134SOL     OW75233  12.672   0.678   5.105
91134SOL    HW175234  12.751   0.651   5.151
91134SOL    HW275235  12.625   0.732   5.168
91135SOL     OW75236   9.655   9.902   1.729
91135SOL    HW175237   9.625   9.902   1.638
91135SOL    HW275238   9.588   9.952   1.776
91136SOL     OW75239   7.256   0.663   3.862
91136SOL    HW175240   7.337   0.612   3.875
91136SOL    HW275241   7.189   0.597   3.846
91137SOL     OW75242  13.596   1.699   7.519
91137SOL    HW175243  13.547   1.685   7.600
91137SOL    HW275244  13.630   1.788   7.526
91138SOL     OW75245  13.789  12.797   1.204
91138SOL    HW175246  13.855  12.759   1.147
91138SOL    HW275247  13.812  12.766   1.291
91139SOL     OW75248  13.656   1.166  13.211
91139SOL    HW175249  13.689   1.160  13.300
91139SOL    HW275250  13.608   1.084  13.197
91140SOL     OW75251   4.435   9.848   9.335
91140SOL    HW175252   4.471   9.914   9.395
91140SOL    HW275253   4.507   9.831   9.273
91141SOL     OW75254   0.238  14.350  13.641
91141SOL    HW175255   0.275  14.422  13.692
91141SOL    HW275256   0.305  14.282  13.641
91142SOL     OW75257   3.300   8.438  13.717
91142SOL    HW175258   3.289   8.344  13.703
91142SOL    HW275259   3.213   8.475  13.704
91143SOL     OW75260   0.413   1.495   2.262
91143SOL    HW175261   0.348   1.493   2.192
91143SOL    HW275262   0.428   1.588   2.279
91144SOL     OW75263   7.592   4.537   7.156
91144SOL    HW175264   7.654   4.604   7.127
91144SOL    HW275265   7.646   4.461   7.176
91145SOL     OW75266   6.896   8.837   5.757
91145SOL    HW175267   6.950   8.905   5.716
91145SOL    HW275268   6.888   8.769   5.691
91146SOL     OW75269   2.602  12.308  11.831
91146SOL    HW175270   2.561  12.372  11.889
91146SOL    HW275271   2.665  12.262  11.887
91147SOL     OW75272  14.790   2.029   5.501
91147SOL    HW175273  14.748   1.943   5.495
91147SOL    HW275274  14.819   2.047   5.412
91148SOL     OW75275   3.297  14.246  14.053
91148SOL    HW175276   3.363  14.187  14.088
91148SOL    HW275277   3.328  14.334  14.076
91149SOL     OW75278   5.813   7.196  11.381
91149SOL    HW175279   5.721   7.174  11.366
91149SOL    HW275280   5.847   7.122  11.432
91150SOL     OW75281  10.542   9.507   1.411
91150SOL    HW175282  10.562   9.436   1.473
91150SOL    HW275283  10.492   9.464   1.342
91151SOL     OW75284   5.533   0.637  12.814
91151SOL    HW175285   5.508   0.661  12.903
91151SOL    HW275286   5.626   0.613  12.821
91152SOL     OW75287  11.444   7.952  13.470
91152SOL    HW175288  11.361   7.934  13.512
91152SOL    HW275289  11.458   7.877  13.412
91153SOL     OW75290   6.118  12.661   8.137
91153SOL    HW175291   6.069  12.736   8.102
91153SOL    HW275292   6.066  12.631   8.211
91154SOL     OW75293   8.337  12.195  10.537
91154SOL    HW175294   8.374  12.226  10.620
91154SOL    HW275295   8.283  12.267  10.506
91155SOL     OW75296  13.460   9.619   0.952
91155SOL    HW175297  13.382   9.654   0.908
91155SOL    HW275298  13.526   9.611   0.883
91156SOL     OW75299   2.645   0.262   9.113
91156SOL    HW175300   2.594   0.307   9.045
91156SOL    HW275301   2.581   0.244   9.182
91157SOL     OW75302  14.576  11.360   5.929
91157SOL    HW175303  14.639  11.425   5.901
91157SOL    HW275304  14.600  11.281   5.882
91158SOL     OW75305  11.722   8.676  13.899
91158SOL    HW175306  11.723   8.712  13.988
91158SOL    HW275307  11.814   8.669  13.874
91159SOL     OW75308  11.297   5.426   7.099
91159SOL    HW175309  11.221   5.394   7.050
91159SOL    HW275310  11.371   5.408   7.042
91160SOL     OW75311  10.278   2.571  10.446
91160SOL    HW175312  10.243   2.568  10.535
91160SOL    HW275313  10.218   2.628  10.398
91161SOL     OW75314   7.873   2.684  13.339
91161SOL    HW175315   7.782   2.702  13.316
91161SOL    HW275316   7.891   2.740  13.414
91162SOL     OW75317  12.648   6.738  11.144
91162SOL    HW175318  12.554   6.727  11.158
91162SOL    HW275319  12.684   6.650  11.155
91163SOL     OW75320   1.440   8.417   4.682
91163SOL    HW175321   1.498   8.492   4.698
91163SOL    HW275322   1.398   8.437   4.598
91164SOL     OW75323   2.817  11.086   4.734
91164SOL    HW175324   2.833  11.112   4.643
91164SOL    HW275325   2.874  11.145   4.785
91165SOL     OW75326   3.834   2.678   6.486
91165SOL    HW175327   3.852   2.755   6.431
91165SOL    HW275328   3.892   2.688   6.561
91166SOL     OW75329  12.485   6.759   7.373
91166SOL    HW175330  12.550   6.782   7.306
91166SOL    HW275331  12.411   6.816   7.356
91167SOL     OW75332   1.766   3.110   8.104
91167SOL    HW175333   1.720   3.137   8.183
91167SOL    HW275334   1.800   3.191   8.067
91168SOL     OW75335   4.644  13.268   5.897
91168SOL    HW175336   4.627  13.214   5.974
91168SOL    HW275337   4.734  13.247   5.873
91169SOL     OW75338   0.523  14.282   0.099
91169SOL    HW175339   0.611  14.254   0.075
91169SOL    HW275340   0.487  14.209   0.148
91170SOL     OW75341  11.276  12.744   4.949
91170SOL    HW175342  11.187  12.718   4.927
91170SOL    HW275343  11.267  12.826   4.996
91171SOL     OW75344   8.132  12.442   2.903
91171SOL    HW175345   8.149  12.478   2.990
91171SOL    HW275346   8.126  12.518   2.846
91172SOL     OW75347  12.849   8.082   3.394
91172SOL    HW175348  12.820   8.174   3.392
91172SOL    HW275349  12.934   8.083   3.351
91173SOL     OW75350   6.990   4.697   1.976
91173SOL    HW175351   6.927   4.742   1.920
91173SOL    HW275352   6.997   4.609   1.938
91174SOL     OW75353   0.519   6.361   8.683
91174SOL    HW175354   0.472   6.317   8.612
91174SOL    HW275355   0.607   6.376   8.648
91175SOL     OW75356   2.771   0.541   4.728
91175SOL    HW175357   2.836   0.610   4.746
91175SOL    HW275358   2.766   0.538   4.632
91176SOL     OW75359   0.930   9.743  13.449
91176SOL    HW175360   0.854   9.724  13.503
91176SOL    HW275361   1.003   9.699  13.495
91177SOL     OW75362   7.704   3.843   0.957
91177SOL    HW175363   7.633   3.851   1.021
91177SOL    HW275364   7.782   3.823   1.010
91178SOL     OW75365   8.864   0.908   3.485
91178SOL    HW175366   8.804   0.849   3.529
91178SOL    HW275367   8.939   0.914   3.544
91179SOL     OW75368  14.759   8.707   9.886
91179SOL    HW175369  14.802   8.648   9.947
91179SOL    HW275370  14.814   8.706   9.808
91180SOL     OW75371   9.659   3.164   6.219
91180SOL    HW175372   9.663   3.157   6.124
91180SOL    HW275373   9.682   3.255   6.238
91181SOL     OW75374   9.837   8.740   4.867
91181SOL    HW175375   9.752   8.722   4.827
91181SOL    HW275376   9.900   8.697   4.808
91182SOL     OW75377  10.425   8.183  14.121
91182SOL    HW175378  10.473   8.214  14.198
91182SOL    HW275379  10.491   8.174  14.053
91183SOL     OW75380   1.941   1.378   6.999
91183SOL    HW175381   2.013   1.355   7.058
91183SOL    HW275382   1.958   1.469   6.975
91184SOL     OW75383   7.904   9.874   4.392
91184SOL    HW175384   7.958   9.889   4.470
91184SOL    HW275385   7.866   9.787   4.406
91185SOL     OW75386   1.909  11.947   1.955
91185SOL    HW175387   1.986  11.902   1.989
91185SOL    HW275388   1.836  11.909   2.004
91186SOL     OW75389   7.401   3.346   0.368
91186SOL    HW175390   7.442   3.415   0.316
91186SOL    HW275391   7.317   3.382   0.394
91187SOL     OW75392   3.890   9.379   1.482
91187SOL    HW175393   3.829   9.390   1.409
91187SOL    HW275394   3.976   9.375   1.441
91188SOL     OW75395   8.529  12.485   9.456
91188SOL    HW175396   8.508  12.554   9.394
91188SOL    HW275397   8.470  12.413   9.433
91189SOL     OW75398  10.104   0.525   2.148
91189SOL    HW175399  10.092   0.599   2.207
91189SOL    HW275400  10.019   0.482   2.144
91190SOL     OW75401  14.146   0.961   3.000
91190SOL    HW175402  14.052   0.952   2.991
91190SOL    HW275403  14.157   1.036   3.058
91191SOL     OW75404   7.987   2.381   9.534
91191SOL    HW175405   7.913   2.322   9.524
91191SOL    HW275406   7.964   2.436   9.609
91192SOL     OW75407   9.894   5.257   6.084
91192SOL    HW175408   9.915   5.196   6.013
91192SOL    HW275409   9.970   5.254   6.142
91193SOL     OW75410   5.673   8.649   7.788
91193SOL    HW175411   5.601   8.592   7.814
91193SOL    HW275412   5.716   8.602   7.716
91194SOL     OW75413   0.526  12.744  10.315
91194SOL    HW175414   0.505  12.650  10.317
91194SOL    HW275415   0.510  12.770  10.225
91195SOL     OW75416  14.534  10.411   7.717
91195SOL    HW175417  14.457  10.443   7.670
91195SOL    HW275418  14.519  10.317   7.727
91196SOL     OW75419   8.059   4.133   8.898
91196SOL    HW175420   7.990   4.167   8.841
91196SOL    HW275421   8.056   4.038   8.884
91197SOL     OW75422   9.836  13.640   3.540
91197SOL    HW175423   9.835  13.640   3.444
91197SOL    HW275424   9.874  13.556   3.564
91198SOL     OW75425   2.564   2.256   5.305
91198SOL    HW175426   2.562   2.282   5.397
91198SOL    HW275427   2.525   2.169   5.304
91199SOL     OW75428  12.891   2.729   7.137
91199SOL    HW175429  12.925   2.766   7.218
91199SOL    HW275430  12.844   2.650   7.164
91200SOL     OW75431   7.025   3.994   9.399
91200SOL    HW175432   6.957   3.964   9.338
91200SOL    HW275433   7.100   4.013   9.342
91201SOL     OW75434   0.703  14.676  10.535
91201SOL    HW175435   0.650  14.712  10.464
91201SOL    HW275436   0.642  14.664  10.608
91202SOL     OW75437   3.144  12.124   8.238
91202SOL    HW175438   3.153  12.181   8.161
91202SOL    HW275439   3.071  12.067   8.217
91203SOL     OW75440  12.518  10.573   8.703
91203SOL    HW175441  12.429  10.540   8.718
91203SOL    HW275442  12.506  10.662   8.672
91204SOL     OW75443   9.713   3.528  13.031
91204SOL    HW175444   9.670   3.478  12.961
91204SOL    HW275445   9.766   3.463  13.077
91205SOL     OW75446   0.633   1.258   9.014
91205SOL    HW175447   0.630   1.163   9.027
91205SOL    HW275448   0.638   1.269   8.919
91206SOL     OW75449  11.772  10.267  14.603
91206SOL    HW175450  11.800  10.311  14.683
91206SOL    HW275451  11.744  10.180  14.631
91207SOL     OW75452  14.710   0.212   4.855
91207SOL    HW175453  14.690   0.121   4.880
91207SOL    HW275454  14.744   0.252   4.935
91208SOL     OW75455   9.386   6.083   4.770
91208SOL    HW175456   9.309   6.041   4.810
91208SOL    HW275457   9.366   6.177   4.774
91209SOL     OW75458  10.484   4.558  12.385
91209SOL    HW175459  10.478   4.645  12.424
91209SOL    HW275460  10.528   4.572  12.301
91210SOL     OW75461   1.579  10.153  11.028
91210SOL    HW175462   1.592  10.061  11.053
91210SOL    HW275463   1.521  10.150  10.952
91211SOL     OW75464   3.095  13.670   0.088
91211SOL    HW175465   3.115  13.668  14.870
91211SOL    HW275466   3.078  13.578   0.110
91212SOL     OW75467   7.427   1.719   7.881
91212SOL    HW175468   7.453   1.808   7.904
91212SOL    HW275469   7.359   1.697   7.946
91213SOL     OW75470   4.077   3.387   9.609
91213SOL    HW175471   4.073   3.462   9.549
91213SOL    HW275472   4.083   3.427   9.696
91214SOL     OW75473  10.650   9.740   9.880
91214SOL    HW175474  10.697   9.691   9.947
91214SOL    HW275475  10.600   9.806   9.928
91215SOL     OW75476   9.059  10.077   0.381
91215SOL    HW175477   9.083  10.099   0.471
91215SOL    HW275478   9.033  10.161   0.342
91216SOL     OW75479   0.248  11.405   7.064
91216SOL    HW175480   0.292  11.449   6.991
91216SOL    HW275481   0.165  11.376   7.028
91217SOL     OW75482   1.906  14.135   6.760
91217SOL    HW175483   1.865  14.201   6.816
91217SOL    HW275484   1.842  14.063   6.757
91218SOL     OW75485  14.252   5.223   6.725
91218SOL    HW175486  14.339   5.224   6.685
91218SOL    HW275487  14.267   5.243   6.817
91219SOL     OW75488   7.406   7.853   1.928
91219SOL    HW175489   7.377   7.793   1.997
91219SOL    HW275490   7.332   7.856   1.867
91220SOL     OW75491   9.632  14.679   1.530
91220SOL    HW175492   9.640  14.768   1.497
91220SOL    HW275493   9.680  14.678   1.613
91221SOL     OW75494   0.396   0.758   2.886
91221SOL    HW175495   0.381   0.712   2.804
91221SOL    HW275496   0.313   0.752   2.933
91222SOL     OW75497  11.992   7.231   8.287
91222SOL    HW175498  12.069   7.266   8.331
91222SOL    HW275499  12.023   7.149   8.247
91223SOL     OW75500  11.646   5.221   5.606
91223SOL    HW175501  11.699   5.146   5.579
91223SOL    HW275502  11.556   5.189   5.604
91224SOL     OW75503   7.640   8.859   4.537
91224SOL    HW175504   7.668   8.950   4.521
91224SOL    HW275505   7.545   8.861   4.525
91225SOL     OW75506   4.943   6.003  11.054
91225SOL    HW175507   4.987   5.920  11.075
91225SOL    HW275508   4.899   6.027  11.136
91226SOL     OW75509   0.187   0.335   1.677
91226SOL    HW175510   0.092   0.329   1.665
91226SOL    HW275511   0.221   0.254   1.638
91227SOL     OW75512  11.665  13.396   1.663
91227SOL    HW175513  11.728  13.355   1.603
91227SOL    HW275514  11.671  13.344   1.743
91228SOL     OW75515   4.734  14.291   4.034
91228SOL    HW175516   4.695  14.221   3.981
91228SOL    HW275517   4.713  14.267   4.124
91229SOL     OW75518  11.655   4.861   2.689
91229SOL    HW175519  11.611   4.891   2.610
91229SOL    HW275520  11.583   4.832   2.746
91230SOL     OW75521   1.382   0.754   3.525
91230SOL    HW175522   1.407   0.841   3.493
91230SOL    HW275523   1.438   0.740   3.601
91231SOL     OW75524  13.181   9.196   2.922
91231SOL    HW175525  13.223   9.282   2.913
91231SOL    HW275526  13.164   9.188   3.016
91232SOL     OW75527  13.089  13.219  10.464
91232SOL    HW175528  13.095  13.124  10.453
91232SOL    HW275529  13.150  13.239  10.535
91233SOL     OW75530  13.831  11.468   4.274
91233SOL    HW175531  13.813  11.415   4.352
91233SOL    HW275532  13.803  11.413   4.201
91234SOL     OW75533  10.839   4.990   0.137
91234SOL    HW175534  10.911   4.928   0.150
91234SOL    HW275535  10.761   4.943   0.168
91235SOL     OW75536   1.704   2.356  13.666
91235SOL    HW175537   1.652   2.370  13.745
91235SOL    HW275538   1.745   2.270  13.679
91236SOL     OW75539   8.347  11.303   6.070
91236SOL    HW175540   8.400  11.322   5.992
91236SOL    HW275541   8.353  11.382   6.123
91237SOL     OW75542  10.374   8.148   2.554
91237SOL    HW175543  10.391   8.055   2.543
91237SOL    HW275544  10.450   8.182   2.602
91238SOL     OW75545  10.361  13.654   4.660
91238SOL    HW175546  10.408  13.670   4.579
91238SOL    HW275547  10.415  13.592   4.708
91239SOL     OW75548   2.654  13.516   4.959
91239SOL    HW175549   2.625  13.588   5.015
91239SOL    HW275550   2.737  13.487   4.997
91240SOL     OW75551   8.433  11.947  14.580
91240SOL    HW175552   8.396  12.033  14.603
91240SOL    HW275553   8.447  11.951  14.486
91241SOL     OW75554   6.535   5.729  14.230
91241SOL    HW175555   6.601   5.677  14.276
91241SOL    HW275556   6.460   5.669  14.219
91242SOL     OW75557   2.938  13.359   8.011
91242SOL    HW175558   2.845  13.352   8.031
91242SOL    HW275559   2.948  13.446   7.973
91243SOL     OW75560   0.171  10.486  12.566
91243SOL    HW175561   0.183  10.566  12.617
91243SOL    HW275562   0.107  10.435  12.616
91244SOL     OW75563   6.556   5.056  14.214
91244SOL    HW175564   6.550   4.994  14.286
91244SOL    HW275565   6.581   5.003  14.138
91245SOL     OW75566   4.035   4.032  13.865
91245SOL    HW175567   4.047   4.024  13.959
91245SOL    HW275568   4.091   4.106  13.840
91246SOL     OW75569   9.928  12.612   1.853
91246SOL    HW175570   9.834  12.610   1.872
91246SOL    HW275571   9.942  12.538   1.793
91247SOL     OW75572  11.128   2.020   8.285
91247SOL    HW175573  11.076   2.098   8.303
91247SOL    HW275574  11.206   2.029   8.340
91248SOL     OW75575  12.030   9.261  10.634
91248SOL    HW175576  11.998   9.298  10.716
91248SOL    HW275577  12.120   9.235  10.652
91249SOL     OW75578   6.565  11.532   4.484
91249SOL    HW175579   6.523  11.472   4.545
91249SOL    HW275580   6.652  11.548   4.523
91250SOL     OW75581   0.664  12.674  11.932
91250SOL    HW175582   0.756  12.653  11.922
91250SOL    HW275583   0.662  12.741  12.001
91251SOL     OW75584  13.421  12.236   7.232
91251SOL    HW175585  13.510  12.257   7.257
91251SOL    HW275586  13.382  12.321   7.209
91252SOL     OW75587   1.647   5.039   3.661
91252SOL    HW175588   1.649   5.098   3.737
91252SOL    HW275589   1.556   5.009   3.657
91253SOL     OW75590   8.432  13.382  14.446
91253SOL    HW175591   8.345  13.421  14.435
91253SOL    HW275592   8.424  13.294  14.409
91254SOL     OW75593  12.265   4.322   2.945
91254SOL    HW175594  12.213   4.385   2.896
91254SOL    HW275595  12.293   4.258   2.879
91255SOL     OW75596  11.975   6.374   1.590
91255SOL    HW175597  11.916   6.376   1.665
91255SOL    HW275598  12.005   6.283   1.586
91256SOL     OW75599  10.622  11.355   3.068
91256SOL    HW175600  10.678  11.345   3.145
91256SOL    HW275601  10.546  11.403   3.101
91257SOL     OW75602   0.789   2.026   3.217
91257SOL    HW175603   0.863   2.030   3.277
91257SOL    HW275604   0.783   2.114   3.180
91258SOL     OW75605   7.164   6.596   2.585
91258SOL    HW175606   7.231   6.650   2.542
91258SOL    HW275607   7.190   6.506   2.565
91259SOL     OW75608   1.151   2.538   0.112
91259SOL    HW175609   1.232   2.581   0.141
91259SOL    HW275610   1.120   2.592   0.040
91260SOL     OW75611   5.917   8.320  12.331
91260SOL    HW175612   5.903   8.281  12.417
91260SOL    HW275613   5.831   8.355  12.307
91261SOL     OW75614  13.686   5.868   4.707
91261SOL    HW175615  13.655   5.782   4.733
91261SOL    HW275616  13.641   5.887   4.625
91262SOL     OW75617  12.038   0.520   9.966
91262SOL    HW175618  12.107   0.560  10.018
91262SOL    HW275619  12.025   0.433  10.003
91263SOL     OW75620  12.823   2.274  13.689
91263SOL    HW175621  12.857   2.328  13.618
91263SOL    HW275622  12.878   2.296  13.764
91264SOL     OW75623   4.346   1.676  12.377
91264SOL    HW175624   4.304   1.597  12.344
91264SOL    HW275625   4.273   1.735  12.396
91265SOL     OW75626   0.633   3.185  13.235
91265SOL    HW175627   0.625   3.277  13.261
91265SOL    HW275628   0.680   3.143  13.307
91266SOL     OW75629   6.365   7.708  10.026
91266SOL    HW175630   6.436   7.707  10.090
91266SOL    HW275631   6.326   7.621  10.033
91267SOL     OW75632  12.136   1.623   5.218
91267SOL    HW175633  12.104   1.614   5.128
91267SOL    HW275634  12.123   1.716   5.239
91268SOL     OW75635   3.477  11.017   8.135
91268SOL    HW175636   3.407  11.063   8.088
91268SOL    HW275637   3.544  11.002   8.069
91269SOL     OW75638   1.361   3.828   2.402
91269SOL    HW175639   1.297   3.768   2.440
91269SOL    HW275640   1.423   3.844   2.472
91270SOL     OW75641   0.297  11.582  13.787
91270SOL    HW175642   0.350  11.504  13.801
91270SOL    HW275643   0.218  11.550  13.743
91271SOL     OW75644  11.727   4.851  10.334
91271SOL    HW175645  11.811   4.890  10.354
91271SOL    HW275646  11.742   4.803  10.252
91272SOL     OW75647   1.693   2.378   8.166
91272SOL    HW175648   1.604   2.363   8.200
91272SOL    HW275649   1.709   2.471   8.182
91273SOL     OW75650   0.757   3.634   9.437
91273SOL    HW175651   0.784   3.641   9.528
91273SOL    HW275652   0.696   3.707   9.424
91274SOL     OW75653   1.759   1.744   4.604
91274SOL    HW175654   1.743   1.836   4.584
91274SOL    HW275655   1.793   1.744   4.693
91275SOL     OW75656   0.847   7.443  11.906
91275SOL    HW175657   0.852   7.465  11.999
91275SOL    HW275658   0.787   7.369  11.901
91276SOL     OW75659  13.433   5.096   1.590
91276SOL    HW175660  13.423   5.125   1.681
91276SOL    HW275661  13.504   5.151   1.556
91277SOL     OW75662   0.150  13.278   0.919
91277SOL    HW175663   0.159  13.188   0.951
91277SOL    HW275664   0.097  13.322   0.986
91278SOL     OW75665   1.861   7.680   8.939
91278SOL    HW175666   1.825   7.762   8.904
91278SOL    HW275667   1.784   7.627   8.960
91279SOL     OW75668  13.022   7.951   8.338
91279SOL    HW175669  12.954   7.883   8.344
91279SOL    HW275670  13.083   7.929   8.409
91280SOL     OW75671   0.201   9.482   9.979
91280SOL    HW175672   0.151   9.500  10.059
91280SOL    HW275673   0.262   9.556   9.973
91281SOL     OW75674   4.622   0.552   5.267
91281SOL    HW175675   4.681   0.498   5.319
91281SOL    HW275676   4.557   0.584   5.329
91282SOL     OW75677   3.316  11.994   6.719
91282SOL    HW175678   3.352  12.067   6.769
91282SOL    HW275679   3.234  12.026   6.684
91283SOL     OW75680   3.556   9.732   4.440
91283SOL    HW175681   3.592   9.704   4.355
91283SOL    HW275682   3.474   9.682   4.449
91284SOL     OW75683   6.335  11.386   8.453
91284SOL    HW175684   6.244  11.413   8.457
91284SOL    HW275685   6.366  11.393   8.544
91285SOL     OW75686   3.141   0.120   2.023
91285SOL    HW175687   3.222   0.085   2.062
91285SOL    HW275688   3.112   0.187   2.085
91286SOL     OW75689   2.411  14.011   4.709
91286SOL    HW175690   2.393  13.930   4.757
91286SOL    HW275691   2.396  13.987   4.617
91287SOL     OW75692   8.863  14.818  11.960
91287SOL    HW175693   8.954  14.842  11.943
91287SOL    HW275694   8.826  14.802  11.873
91288SOL     OW75695   6.457   7.762  10.852
91288SOL    HW175696   6.426   7.705  10.923
91288SOL    HW275697   6.425   7.849  10.874
91289SOL     OW75698  12.459   5.537   7.783
91289SOL    HW175699  12.509   5.457   7.772
91289SOL    HW275700  12.493   5.596   7.716
91290SOL     OW75701   4.521   4.510  14.613
91290SOL    HW175702   4.598   4.552  14.575
91290SOL    HW275703   4.547   4.488  14.702
91291SOL     OW75704   4.504   2.733  13.246
91291SOL    HW175705   4.413   2.722  13.273
91291SOL    HW275706   4.509   2.692  13.160
91292SOL     OW75707   7.415  10.760   2.957
91292SOL    HW175708   7.354  10.754   2.883
91292SOL    HW275709   7.502  10.748   2.918
91293SOL     OW75710   3.828   3.427  12.066
91293SOL    HW175711   3.837   3.522  12.078
91293SOL    HW275712   3.828   3.392  12.155
91294SOL     OW75713   3.846  13.289   1.770
91294SOL    HW175714   3.891  13.264   1.690
91294SOL    HW275715   3.759  13.316   1.742
91295SOL     OW75716   2.688   6.325   6.321
91295SOL    HW175717   2.629   6.342   6.394
91295SOL    HW275718   2.743   6.253   6.350
91296SOL     OW75719  11.604   3.774   4.522
91296SOL    HW175720  11.668   3.845   4.530
91296SOL    HW275721  11.654   3.694   4.536
91297SOL     OW75722   6.441   3.148   6.504
91297SOL    HW175723   6.480   3.231   6.529
91297SOL    HW275724   6.352   3.151   6.538
91298SOL     OW75725   0.206  13.951   7.948
91298SOL    HW175726   0.284  13.930   7.999
91298SOL    HW275727   0.134  13.949   8.011
91299SOL     OW75728  12.935   9.345   4.713
91299SOL    HW175729  12.968   9.277   4.655
91299SOL    HW275730  13.004   9.359   4.777
91300SOL     OW75731   1.347   1.240  13.223
91300SOL    HW175732   1.263   1.206  13.192
91300SOL    HW275733   1.328   1.330  13.249
91301SOL     OW75734   6.442   7.054  14.421
91301SOL    HW175735   6.487   6.970  14.411
91301SOL    HW275736   6.379   7.056  14.349
91302SOL     OW75737   4.016   7.760   0.200
91302SOL    HW175738   4.036   7.839   0.251
91302SOL    HW275739   4.102   7.731   0.168
91303SOL     OW75740   5.535   5.276   6.175
91303SOL    HW175741   5.502   5.200   6.128
91303SOL    HW275742   5.580   5.240   6.251
91304SOL     OW75743   1.096   6.548   1.174
91304SOL    HW175744   1.097   6.638   1.141
91304SOL    HW275745   1.166   6.545   1.239
91305SOL     OW75746   7.299   2.532   1.272
91305SOL    HW175747   7.295   2.557   1.180
91305SOL    HW275748   7.372   2.470   1.277
91306SOL     OW75749  11.519   4.341   8.636
91306SOL    HW175750  11.479   4.427   8.649
91306SOL    HW275751  11.445   4.282   8.622
91307SOL     OW75752   7.403   6.015   4.059
91307SOL    HW175753   7.360   5.943   4.105
91307SOL    HW275754   7.446   5.975   3.984
91308SOL     OW75755   9.858   0.118   8.074
91308SOL    HW175756   9.905   0.066   8.009
91308SOL    HW275757   9.895   0.092   8.158
91309SOL     OW75758   7.763   2.149  12.216
91309SOL    HW175759   7.784   2.081  12.279
91309SOL    HW275760   7.713   2.103  12.147
91310SOL     OW75761   4.148  11.325   7.841
91310SOL    HW175762   4.183  11.276   7.916
91310SOL    HW275763   4.219  11.323   7.776
91311SOL     OW75764   6.658   8.867  10.367
91311SOL    HW175765   6.679   8.961  10.369
91311SOL    HW275766   6.580   8.862  10.311
91312SOL     OW75767   4.901   9.639   2.124
91312SOL    HW175768   4.825   9.645   2.182
91312SOL    HW275769   4.975   9.624   2.182
91313SOL     OW75770  13.398  10.195   6.952
91313SOL    HW175771  13.351  10.277   6.935
91313SOL    HW275772  13.391  10.182   7.047
91314SOL     OW75773   5.644   6.077   6.824
91314SOL    HW175774   5.641   6.173   6.832
91314SOL    HW275775   5.717   6.051   6.880
91315SOL     OW75776  14.678   0.465  10.286
91315SOL    HW175777  14.719   0.549  10.262
91315SOL    HW275778  14.633   0.437  10.206
91316SOL     OW75779  13.638  11.738   3.987
91316SOL    HW175780  13.624  11.715   3.895
91316SOL    HW275781  13.732  11.726   4.001
91317SOL     OW75782   1.243   9.654  13.996
91317SOL    HW175783   1.218   9.731  14.047
91317SOL    HW275784   1.181   9.652  13.923
91318SOL     OW75785  12.365   8.447   3.416
91318SOL    HW175786  12.344   8.372   3.360
91318SOL    HW275787  12.343   8.523   3.364
91319SOL     OW75788  13.126   8.953  11.864
91319SOL    HW175789  13.099   8.861  11.854
91319SOL    HW275790  13.059   9.002  11.817
91320SOL     OW75791   4.075  14.129   7.500
91320SOL    HW175792   4.027  14.057   7.459
91320SOL    HW275793   4.081  14.195   7.432
91321SOL     OW75794  12.615   9.410  11.417
91321SOL    HW175795  12.535   9.445  11.378
91321SOL    HW275796  12.617   9.445  11.506
91322SOL     OW75797  11.178   8.248   5.743
91322SOL    HW175798  11.180   8.256   5.647
91322SOL    HW275799  11.092   8.282   5.768
91323SOL     OW75800  13.700  11.803  12.231
91323SOL    HW175801  13.655  11.779  12.150
91323SOL    HW275802  13.750  11.882  12.207
91324SOL     OW75803   5.146   5.338   7.901
91324SOL    HW175804   5.085   5.399   7.943
91324SOL    HW275805   5.157   5.372   7.813
91325SOL     OW75806  13.014   3.692   5.069
91325SOL    HW175807  13.036   3.624   5.133
91325SOL    HW275808  13.054   3.663   4.987
91326SOL     OW75809   5.253   6.931   4.782
91326SOL    HW175810   5.240   6.838   4.798
91326SOL    HW275811   5.345   6.946   4.802
91327SOL     OW75812   3.074  11.767   4.625
91327SOL    HW175813   3.015  11.842   4.628
91327SOL    HW275814   3.030  11.704   4.568
91328SOL     OW75815   9.292  13.674   0.014
91328SOL    HW175816   9.321  13.598   0.065
91328SOL    HW275817   9.264  13.738   0.080
91329SOL     OW75818  14.134  12.709   7.493
91329SOL    HW175819  14.169  12.622   7.473
91329SOL    HW275820  14.184  12.769   7.439
91330SOL     OW75821   5.288  13.371   4.050
91330SOL    HW175822   5.345  13.295   4.034
91330SOL    HW275823   5.258  13.396   3.962
91331SOL     OW75824  13.239  12.229   1.580
91331SOL    HW175825  13.224  12.248   1.672
91331SOL    HW275826  13.195  12.145   1.566
91332SOL     OW75827   5.844   9.796   4.385
91332SOL    HW175828   5.919   9.739   4.372
91332SOL    HW275829   5.854   9.830   4.474
91333SOL     OW75830   2.539   9.978   5.299
91333SOL    HW175831   2.467   9.914   5.299
91333SOL    HW275832   2.510  10.047   5.359
91334SOL     OW75833  12.211  12.061   7.624
91334SOL    HW175834  12.292  12.078   7.672
91334SOL    HW275835  12.142  12.097   7.680
91335SOL     OW75836   2.394  14.266  12.751
91335SOL    HW175837   2.478  14.302  12.779
91335SOL    HW275838   2.400  14.172  12.772
91336SOL     OW75839  12.721  14.555  13.022
91336SOL    HW175840  12.697  14.643  13.049
91336SOL    HW275841  12.809  14.543  13.057
91337SOL     OW75842  10.482  13.702   2.195
91337SOL    HW175843  10.447  13.771   2.138
91337SOL    HW275844  10.536  13.748   2.259
91338SOL     OW75845   8.807   9.670   4.207
91338SOL    HW175846   8.740   9.737   4.200
91338SOL    HW275847   8.770   9.604   4.267
91339SOL     OW75848   5.588   7.270   0.203
91339SOL    HW175849   5.597   7.202   0.270
91339SOL    HW275850   5.494   7.274   0.185
91340SOL     OW75851   5.439   0.807   4.285
91340SOL    HW175852   5.498   0.868   4.241
91340SOL    HW275853   5.378   0.779   4.216
91341SOL     OW75854   6.971  11.404   3.506
91341SOL    HW175855   6.910  11.344   3.464
91341SOL    HW275856   6.927  11.432   3.586
91342SOL     OW75857   1.382   7.513   4.064
91342SOL    HW175858   1.466   7.488   4.026
91342SOL    HW275859   1.395   7.508   4.159
91343SOL     OW75860   6.958  14.054   8.286
91343SOL    HW175861   6.947  14.061   8.191
91343SOL    HW275862   6.871  14.033   8.319
91344SOL     OW75863  10.766   3.484   4.795
91344SOL    HW175864  10.822   3.538   4.738
91344SOL    HW275865  10.763   3.532   4.878
91345SOL     OW75866   3.200  12.595   6.026
91345SOL    HW175867   3.119  12.569   5.983
91345SOL    HW275868   3.263  12.527   6.001
91346SOL     OW75869   2.526   2.857  13.752
91346SOL    HW175870   2.445   2.847  13.702
91346SOL    HW275871   2.501   2.905  13.830
91347SOL     OW75872   8.252   6.024   2.036
91347SOL    HW175873   8.317   6.049   2.102
91347SOL    HW275874   8.242   6.103   1.983
91348SOL     OW75875   9.109   2.963   2.392
91348SOL    HW175876   9.158   3.039   2.359
91348SOL    HW275877   9.027   3.000   2.426
91349SOL     OW75878  14.505  12.134   6.076
91349SOL    HW175879  14.530  12.062   6.017
91349SOL    HW275880  14.545  12.212   6.037
91350SOL     OW75881   3.507   4.885  10.531
91350SOL    HW175882   3.484   4.799  10.566
91350SOL    HW275883   3.426   4.936  10.538
91351SOL     OW75884  14.493   6.014   4.147
91351SOL    HW175885  14.456   5.994   4.233
91351SOL    HW275886  14.423   5.990   4.085
91352SOL     OW75887   7.026   8.299   4.187
91352SOL    HW175888   6.965   8.225   4.177
91352SOL    HW275889   7.066   8.284   4.273
91353SOL     OW75890   9.222   6.029  13.101
91353SOL    HW175891   9.184   5.955  13.055
91353SOL    HW275892   9.184   6.106  13.060
91354SOL     OW75893   0.199   3.221  10.514
91354SOL    HW175894   0.205   3.242  10.421
91354SOL    HW275895   0.288   3.231  10.547
91355SOL     OW75896   6.256   2.443   7.070
91355SOL    HW175897   6.310   2.409   6.999
91355SOL    HW275898   6.309   2.511   7.111
91356SOL     OW75899   7.785  11.908   3.847
91356SOL    HW175900   7.718  11.859   3.895
91356SOL    HW275901   7.817  11.848   3.780
91357SOL     OW75902  12.982   6.801  10.532
91357SOL    HW175903  12.901   6.836  10.569
91357SOL    HW275904  13.032   6.878  10.505
91358SOL     OW75905   3.288  12.924  12.775
91358SOL    HW175906   3.293  12.969  12.691
91358SOL    HW275907   3.358  12.964  12.828
91359SOL     OW75908   1.572   8.262  11.307
91359SOL    HW175909   1.608   8.297  11.226
91359SOL    HW275910   1.633   8.291  11.375
91360SOL     OW75911   8.364  12.674   0.202
91360SOL    HW175912   8.459  12.672   0.199
91360SOL    HW275913   8.337  12.685   0.111
91361SOL     OW75914   6.080   3.944   7.401
91361SOL    HW175915   6.051   4.033   7.423
91361SOL    HW275916   6.011   3.887   7.434
91362SOL     OW75917   7.425  13.573   3.806
91362SOL    HW175918   7.445  13.503   3.869
91362SOL    HW275919   7.329  13.578   3.805
91363SOL     OW75920  13.572   7.679  11.260
91363SOL    HW175921  13.595   7.594  11.223
91363SOL    HW275922  13.589   7.742  11.190
91364SOL     OW75923  14.125   4.889  11.778
91364SOL    HW175924  14.035   4.858  11.791
91364SOL    HW275925  14.119   4.950  11.705
91365SOL     OW75926   1.873  10.225  13.173
91365SOL    HW175927   1.809  10.187  13.113
91365SOL    HW275928   1.856  10.319  13.170
91366SOL     OW75929   6.944  10.862   7.011
91366SOL    HW175930   6.998  10.863   7.090
91366SOL    HW275931   7.003  10.835   6.941
91367SOL     OW75932   4.269  12.862  11.452
91367SOL    HW175933   4.290  12.925  11.383
91367SOL    HW275934   4.345  12.863  11.510
91368SOL     OW75935  12.735   6.778   9.716
91368SOL    HW175936  12.814   6.830   9.729
91368SOL    HW275937  12.666   6.827   9.761
91369SOL     OW75938  10.349   9.711   1.373
91369SOL    HW175939  10.413   9.647   1.343
91369SOL    HW275940  10.390   9.752   1.449
91370SOL     OW75941  11.131  10.816  10.922
91370SOL    HW175942  11.098  10.879  10.986
91370SOL    HW275943  11.225  10.812  10.938
91371SOL     OW75944  11.391   3.915   0.994
91371SOL    HW175945  11.404   3.934   1.087
91371SOL    HW275946  11.426   3.993   0.949
91372SOL     OW75947  14.165   0.150   3.013
91372SOL    HW175948  14.133   0.225   3.063
91372SOL    HW275949  14.109   0.147   2.936
91373SOL     OW75950   8.334   8.990  10.320
91373SOL    HW175951   8.241   9.009  10.313
91373SOL    HW275952   8.348   8.915  10.263
91374SOL     OW75953  11.448  12.255  10.204
91374SOL    HW175954  11.393  12.216  10.137
91374SOL    HW275955  11.388  12.279  10.274
91375SOL     OW75956  14.664   9.882   6.747
91375SOL    HW175957  14.586   9.923   6.787
91375SOL    HW275958  14.696   9.947   6.685
91376SOL     OW75959   3.389   9.138  12.449
91376SOL    HW175960   3.484   9.148  12.456
91376SOL    HW275961   3.376   9.089  12.368
91377SOL     OW75962   2.751   8.643   5.450
91377SOL    HW175963   2.810   8.573   5.423
91377SOL    HW275964   2.793   8.723   5.419
91378SOL     OW75965  13.144  11.991  14.781
91378SOL    HW175966  13.207  11.934  14.739
91378SOL    HW275967  13.181  12.010  14.867
91379SOL     OW75968  14.492   6.076   3.164
91379SOL    HW175969  14.404   6.060   3.196
91379SOL    HW275970  14.509   6.168   3.185
91380SOL     OW75971  10.836   4.493  13.797
91380SOL    HW175972  10.819   4.422  13.859
91380SOL    HW275973  10.774   4.477  13.725
91381SOL     OW75974  11.183   5.884   1.417
91381SOL    HW175975  11.192   5.820   1.346
91381SOL    HW275976  11.273   5.913   1.434
91382SOL     OW75977   7.158  14.468  12.758
91382SOL    HW175978   7.158  14.376  12.731
91382SOL    HW275979   7.138  14.517  12.678
91383SOL     OW75980   3.489  10.322   4.795
91383SOL    HW175981   3.515  10.337   4.704
91383SOL    HW275982   3.572  10.310   4.842
91384SOL     OW75983  12.472   9.916  14.713
91384SOL    HW175984  12.556   9.939  14.672
91384SOL    HW275985  12.452   9.828  14.681
91385SOL     OW75986   1.475   5.955   6.253
91385SOL    HW175987   1.455   6.048   6.264
91385SOL    HW275988   1.569   5.949   6.268
91386SOL     OW75989  11.488   0.675   0.156
91386SOL    HW175990  11.452   0.674   0.244
91386SOL    HW275991  11.479   0.767   0.128
91387SOL     OW75992  10.073  12.464   9.252
91387SOL    HW175993  10.034  12.450   9.166
91387SOL    HW275994  10.153  12.412   9.251
91388SOL     OW75995   7.515   9.046   7.976
91388SOL    HW175996   7.472   8.974   8.023
91388SOL    HW275997   7.447   9.112   7.968
91389SOL     OW75998   0.362   9.882   3.205
91389SOL    HW175999   0.273   9.914   3.192
91389SOL    HW276000   0.415   9.961   3.213
91390SOL     OW76001   2.409  11.105   3.114
91390SOL    HW176002   2.408  11.037   3.182
91390SOL    HW276003   2.343  11.168   3.143
91391SOL     OW76004   7.589  13.985   8.110
91391SOL    HW176005   7.567  14.035   8.031
91391SOL    HW276006   7.634  14.048   8.166
91392SOL     OW76007   5.669   5.686   6.676
91392SOL    HW176008   5.661   5.780   6.657
91392SOL    HW276009   5.583   5.661   6.707
91393SOL     OW76010  12.219   0.737  13.180
91393SOL    HW176011  12.291   0.748  13.118
91393SOL    HW276012  12.248   0.782  13.259
91394SOL     OW76013  10.060   7.914  12.953
91394SOL    HW176014  10.035   7.823  12.970
91394SOL    HW276015  10.082   7.950  13.040
91395SOL     OW76016   2.242   3.443   2.088
91395SOL    HW176017   2.265   3.511   2.023
91395SOL    HW276018   2.320   3.435   2.142
91396SOL     OW76019  13.283  12.420   3.227
91396SOL    HW176020  13.353  12.486   3.224
91396SOL    HW276021  13.311  12.354   3.164
91397SOL     OW76022  13.707  10.446   9.650
91397SOL    HW176023  13.721  10.355   9.623
91397SOL    HW276024  13.760  10.456   9.728
91398SOL     OW76025  11.372  14.759   2.647
91398SOL    HW176026  11.326  14.726   2.570
91398SOL    HW276027  11.333  14.844   2.665
91399SOL     OW76028   0.066   2.328  14.087
91399SOL    HW176029   0.034   2.284  14.166
91399SOL    HW276030  14.865   2.369  14.049
91400SOL     OW76031   3.451   9.716  13.107
91400SOL    HW176032   3.362   9.751  13.110
91400SOL    HW276033   3.441   9.628  13.070
91401SOL     OW76034  11.811  10.528   6.844
91401SOL    HW176035  11.774  10.487   6.922
91401SOL    HW276036  11.853  10.456   6.796
91402SOL     OW76037   4.413  14.706   8.651
91402SOL    HW176038   4.478  14.691   8.581
91402SOL    HW276039   4.466  14.724   8.729
91403SOL     OW76040  13.462  13.730   5.999
91403SOL    HW176041  13.416  13.670   5.941
91403SOL    HW276042  13.394  13.763   6.058
91404SOL     OW76043   9.227   8.731  10.659
91404SOL    HW176044   9.181   8.813  10.640
91404SOL    HW276045   9.280   8.715  10.581
91405SOL     OW76046   2.778   5.572   9.317
91405SOL    HW176047   2.866   5.609   9.326
91405SOL    HW276048   2.793   5.486   9.276
91406SOL     OW76049   5.399  13.590   1.286
91406SOL    HW176050   5.391  13.617   1.194
91406SOL    HW276051   5.449  13.509   1.283
91407SOL     OW76052  13.036   4.254   8.144
91407SOL    HW176053  13.035   4.201   8.224
91407SOL    HW276054  13.030   4.345   8.176
91408SOL     OW76055  12.583  12.673   2.579
91408SOL    HW176056  12.498  12.631   2.590
91408SOL    HW276057  12.618  12.635   2.499
91409SOL     OW76058   1.427  14.661  12.900
91409SOL    HW176059   1.379  14.601  12.843
91409SOL    HW276060   1.518  14.632  12.895
91410SOL     OW76061  11.266  11.268   6.183
91410SOL    HW176062  11.281  11.302   6.271
91410SOL    HW276063  11.201  11.199   6.195
91411SOL     OW76064   0.325   6.611   0.082
91411SOL    HW176065   0.389   6.673   0.117
91411SOL    HW276066   0.371   6.565   0.012
91412SOL     OW76067   1.046   5.073  11.778
91412SOL    HW176068   1.127   5.078  11.728
91412SOL    HW276069   0.999   5.153  11.756
91413SOL     OW76070  11.747   8.047  14.196
91413SOL    HW176071  11.779   7.978  14.254
91413SOL    HW276072  11.661   8.070  14.231
91414SOL     OW76073   8.853   4.526   7.161
91414SOL    HW176074   8.923   4.583   7.195
91414SOL    HW276075   8.881   4.505   7.072
91415SOL     OW76076  14.658   8.572   5.871
91415SOL    HW176077  14.675   8.627   5.794
91415SOL    HW276078  14.617   8.632   5.934
91416SOL     OW76079   8.305  12.365   7.165
91416SOL    HW176080   8.369  12.436   7.170
91416SOL    HW276081   8.240  12.394   7.101
91417SOL     OW76082   2.070   4.332  13.358
91417SOL    HW176083   2.038   4.410  13.403
91417SOL    HW276084   2.142   4.301  13.413
91418SOL     OW76085  10.513   0.862   2.724
91418SOL    HW176086  10.444   0.863   2.658
91418SOL    HW276087  10.593   0.840   2.676
91419SOL     OW76088  10.368   4.316   8.100
91419SOL    HW176089  10.284   4.314   8.054
91419SOL    HW276090  10.362   4.245   8.163
91420SOL     OW76091  11.683  11.851  14.155
91420SOL    HW176092  11.590  11.852  14.180
91420SOL    HW276093  11.694  11.766  14.112
91421SOL     OW76094  13.846  11.842   4.483
91421SOL    HW176095  13.757  11.811   4.500
91421SOL    HW276096  13.884  11.857   4.570
91422SOL     OW76097   8.476  14.562   7.892
91422SOL    HW176098   8.562  14.565   7.850
91422SOL    HW276099   8.496  14.542   7.984
91423SOL     OW76100   5.117   1.362   7.033
91423SOL    HW176101   5.098   1.407   7.115
91423SOL    HW276102   5.046   1.299   7.023
91424SOL     OW76103   1.937   2.548  13.013
91424SOL    HW176104   1.927   2.475  13.074
91424SOL    HW276105   2.030   2.568  13.015
91425SOL     OW76106   9.664   8.399  13.963
91425SOL    HW176107   9.739   8.424  14.016
91425SOL    HW276108   9.686   8.429  13.875
91426SOL     OW76109  10.843   4.108   4.503
91426SOL    HW176110  10.855   4.064   4.587
91426SOL    HW276111  10.882   4.195   4.516
91427SOL     OW76112   6.317   5.096   5.781
91427SOL    HW176113   6.302   5.076   5.688
91427SOL    HW276114   6.328   5.010   5.822
91428SOL     OW76115  12.403   3.140  11.498
91428SOL    HW176116  12.326   3.117  11.549
91428SOL    HW276117  12.399   3.083  11.421
91429SOL     OW76118   8.187  11.351   3.165
91429SOL    HW176119   8.124  11.365   3.235
91429SOL    HW276120   8.161  11.268   3.125
91430SOL     OW76121   3.730   2.876   5.366
91430SOL    HW176122   3.712   2.820   5.441
91430SOL    HW276123   3.672   2.844   5.298
91431SOL     OW76124   0.100   6.408   4.260
91431SOL    HW176125   0.190   6.375   4.264
91431SOL    HW276126   0.097   6.476   4.328
91432SOL     OW76127   0.274   7.326   0.247
91432SOL    HW176128   0.209   7.351   0.182
91432SOL    HW276129   0.351   7.302   0.195
91433SOL     OW76130   0.050   0.058  12.893
91433SOL    HW176131   0.057   0.150  12.920
91433SOL    HW276132   0.120   0.014  12.941
91434SOL     OW76133   8.435  13.308   1.425
91434SOL    HW176134   8.402  13.301   1.515
91434SOL    HW276135   8.494  13.383   1.427
91435SOL     OW76136   4.211   6.424   7.120
91435SOL    HW176137   4.140   6.384   7.069
91435SOL    HW276138   4.276   6.354   7.131
91436SOL     OW76139  10.307  14.756   9.100
91436SOL    HW176140  10.236  14.809   9.136
91436SOL    HW276141  10.374  14.756   9.168
91437SOL     OW76142  14.809   2.027  11.615
91437SOL    HW176143  14.857   1.981  11.684
91437SOL    HW276144  14.850   2.113  11.610
91438SOL     OW76145   8.782   1.728   8.187
91438SOL    HW176146   8.766   1.759   8.098
91438SOL    HW276147   8.709   1.763   8.239
91439SOL     OW76148  13.675   0.106   6.193
91439SOL    HW176149  13.698   0.119   6.286
91439SOL    HW276150  13.745   0.050   6.159
91440SOL     OW76151  10.468  10.075   6.390
91440SOL    HW176152  10.480  10.048   6.481
91440SOL    HW276153  10.504  10.003   6.338
91441SOL     OW76154   6.715   8.782   1.781
91441SOL    HW176155   6.687   8.855   1.727
91441SOL    HW276156   6.653   8.781   1.854
91442SOL     OW76157   6.033   9.896   1.702
91442SOL    HW176158   6.059   9.808   1.730
91442SOL    HW276159   5.988   9.882   1.618
91443SOL     OW76160  12.694  13.275  12.014
91443SOL    HW176161  12.667  13.263  11.923
91443SOL    HW276162  12.735  13.361  12.016
91444SOL     OW76163   6.453  13.212  14.754
91444SOL    HW176164   6.450  13.118  14.774
91444SOL    HW276165   6.392  13.252  14.815
91445SOL     OW76166   8.345   4.824   9.119
91445SOL    HW176167   8.367   4.863   9.034
91445SOL    HW276168   8.285   4.885   9.160
91446SOL     OW76169   1.328  13.830   0.653
91446SOL    HW176170   1.301  13.783   0.732
91446SOL    HW276171   1.353  13.917   0.684
91447SOL     OW76172   0.797   9.970  11.148
91447SOL    HW176173   0.858   9.922  11.204
91447SOL    HW276174   0.758  10.036  11.205
91448SOL     OW76175   7.731  12.140  13.161
91448SOL    HW176176   7.687  12.063  13.194
91448SOL    HW276177   7.821  12.112  13.144
91449SOL     OW76178  10.347   8.792  12.307
91449SOL    HW176179  10.286   8.725  12.337
91449SOL    HW276180  10.395   8.817  12.386
91450SOL     OW76181   1.266   0.453   4.514
91450SOL    HW176182   1.205   0.451   4.440
91450SOL    HW276183   1.235   0.383   4.572
91451SOL     OW76184   5.315   0.676   5.089
91451SOL    HW176185   5.349   0.706   5.173
91451SOL    HW276186   5.338   0.746   5.028
91452SOL     OW76187   6.022  13.224   2.240
91452SOL    HW176188   5.961  13.152   2.253
91452SOL    HW276189   6.086  13.216   2.311
91453SOL     OW76190   1.355   7.406  13.324
91453SOL    HW176191   1.322   7.317  13.308
91453SOL    HW276192   1.438   7.393  13.369
91454SOL     OW76193   5.941   9.412  14.133
91454SOL    HW176194   5.986   9.342  14.181
91454SOL    HW276195   5.985   9.492  14.162
91455SOL     OW76196   6.230  13.602  14.581
91455SOL    HW176197   6.156  13.545  14.559
91455SOL    HW276198   6.274  13.618  14.498
91456SOL     OW76199   6.877   1.499   4.060
91456SOL    HW176200   6.812   1.448   4.110
91456SOL    HW276201   6.901   1.441   3.987
91457SOL     OW76202   9.963   3.957   2.709
91457SOL    HW176203   9.926   3.944   2.622
91457SOL    HW276204   9.942   4.048   2.730
91458SOL     OW76205   5.682   1.636  12.034
91458SOL    HW176206   5.717   1.702  11.974
91458SOL    HW276207   5.736   1.558  12.018
91459SOL     OW76208  10.525   7.443   5.123
91459SOL    HW176209  10.583   7.476   5.191
91459SOL    HW276210  10.484   7.366   5.162
91460SOL     OW76211  14.264   2.156   4.100
91460SOL    HW176212  14.216   2.073   4.098
91460SOL    HW276213  14.196   2.223   4.111
91461SOL     OW76214   0.404   6.138   4.785
91461SOL    HW176215   0.404   6.044   4.802
91461SOL    HW276216   0.317   6.156   4.748
91462SOL     OW76217   8.179   5.225  10.152
91462SOL    HW176218   8.274   5.214  10.160
91462SOL    HW276219   8.144   5.186  10.232
91463SOL     OW76220   4.229   3.428   6.805
91463SOL    HW176221   4.272   3.514   6.798
91463SOL    HW276222   4.253   3.383   6.724
91464SOL     OW76223   3.354   5.206  11.797
91464SOL    HW176224   3.404   5.165  11.726
91464SOL    HW276225   3.381   5.158  11.875
91465SOL     OW76226  11.858   7.283  12.742
91465SOL    HW176227  11.900   7.296  12.827
91465SOL    HW276228  11.815   7.198  12.749
91466SOL     OW76229   3.394   3.398  14.344
91466SOL    HW176230   3.363   3.328  14.287
91466SOL    HW276231   3.320   3.459  14.350
91467SOL     OW76232   7.626   2.310  12.424
91467SOL    HW176233   7.537   2.308  12.388
91467SOL    HW276234   7.683   2.297  12.348
91468SOL     OW76235   5.924   9.509   3.255
91468SOL    HW176236   5.979   9.462   3.318
91468SOL    HW276237   5.862   9.443   3.224
91469SOL     OW76238   4.161   4.742  12.464
91469SOL    HW176239   4.112   4.765  12.543
91469SOL    HW276240   4.180   4.648  12.475
91470SOL     OW76241   7.844  11.756   7.667
91470SOL    HW176242   7.798  11.805   7.599
91470SOL    HW276243   7.922  11.722   7.624
91471SOL     OW76244   5.825   3.391  10.105
91471SOL    HW176245   5.809   3.359  10.017
91471SOL    HW276246   5.844   3.484  10.094
91472SOL     OW76247   4.012   5.840   0.261
91472SOL    HW176248   4.023   5.808   0.350
91472SOL    HW276249   4.097   5.826   0.219
91473SOL     OW76250  10.051   1.553   1.610
91473SOL    HW176251  10.120   1.608   1.648
91473SOL    HW276252   9.970   1.585   1.651
91474SOL     OW76253   1.546  13.142   5.858
91474SOL    HW176254   1.484  13.210   5.881
91474SOL    HW276255   1.599  13.130   5.937
91475SOL     OW76256  12.156  14.052   5.867
91475SOL    HW176257  12.116  14.139   5.871
91475SOL    HW276258  12.216  14.057   5.793
91476SOL     OW76259  10.524  13.958   3.074
91476SOL    HW176260  10.538  14.052   3.060
91476SOL    HW276261  10.477  13.930   2.995
91477SOL     OW76262   2.918   8.831   8.222
91477SOL    HW176263   2.907   8.893   8.294
91477SOL    HW276264   2.949   8.885   8.149
91478SOL     OW76265   1.648   5.851   4.884
91478SOL    HW176266   1.698   5.925   4.848
91478SOL    HW276267   1.687   5.836   4.970
91479SOL     OW76268   3.647   5.996  14.311
91479SOL    HW176269   3.697   5.972  14.389
91479SOL    HW276270   3.639   5.915  14.261
91480SOL     OW76271   0.106   3.475   2.610
91480SOL    HW176272   0.094   3.462   2.516
91480SOL    HW276273   0.028   3.436   2.650
91481SOL     OW76274   4.789  10.136   0.816
91481SOL    HW176275   4.722  10.152   0.751
91481SOL    HW276276   4.743  10.141   0.900
91482SOL     OW76277   3.549  14.657   9.591
91482SOL    HW176278   3.514  14.677   9.678
91482SOL    HW276279   3.626  14.603   9.607
91483SOL     OW76280  12.098   0.506   6.075
91483SOL    HW176281  12.190   0.483   6.088
91483SOL    HW276282  12.099   0.601   6.061
91484SOL     OW76283  12.305  13.662   4.178
91484SOL    HW176284  12.306  13.749   4.137
91484SOL    HW276285  12.233  13.616   4.135
91485SOL     OW76286   0.234   7.520  14.797
91485SOL    HW176287   0.190   7.597  14.761
91485SOL    HW276288   0.179   7.492  14.870
91486SOL     OW76289  14.560   1.540  12.407
91486SOL    HW176290  14.475   1.580  12.426
91486SOL    HW276291  14.599   1.598  12.342
91487SOL     OW76292   0.743   1.246  12.458
91487SOL    HW176293   0.736   1.152  12.439
91487SOL    HW276294   0.804   1.279  12.391
91488SOL     OW76295   5.875  11.670  10.624
91488SOL    HW176296   5.863  11.706  10.537
91488SOL    HW276297   5.951  11.716  10.659
91489SOL     OW76298   5.199  10.042   7.093
91489SOL    HW176299   5.259  10.076   7.159
91489SOL    HW276300   5.125  10.103   7.093
91490SOL     OW76301   2.965  13.963   9.452
91490SOL    HW176302   3.056  13.993   9.453
91490SOL    HW276303   2.971  13.868   9.453
91491SOL     OW76304  14.751   5.967   5.606
91491SOL    HW176305  14.734   5.968   5.512
91491SOL    HW276306  14.833   6.014   5.616
91492SOL     OW76307   7.494   2.278  10.887
91492SOL    HW176308   7.412   2.232  10.907
91492SOL    HW276309   7.520   2.317  10.970
91493SOL     OW76310  14.782  14.079   7.928
91493SOL    HW176311  14.806  13.997   7.972
91493SOL    HW276312  14.690  14.068   7.906
91494SOL     OW76313   8.765   2.321   8.990
91494SOL    HW176314   8.760   2.416   8.997
91494SOL    HW276315   8.681   2.295   8.953
91495SOL     OW76316  13.758   9.725  13.253
91495SOL    HW176317  13.845   9.696  13.225
91495SOL    HW276318  13.710   9.643  13.268
91496SOL     OW76319   0.269   0.781   3.184
91496SOL    HW176320   0.318   0.698   3.185
91496SOL    HW276321   0.177   0.755   3.185
91497SOL     OW76322   4.788   5.247  13.921
91497SOL    HW176323   4.817   5.206  14.003
91497SOL    HW276324   4.769   5.173  13.863
91498SOL     OW76325   3.190   1.726   0.922
91498SOL    HW176326   3.168   1.698   1.010
91498SOL    HW276327   3.140   1.668   0.865
91499SOL     OW76328  14.744   8.033  11.255
91499SOL    HW176329  14.752   7.944  11.222
91499SOL    HW276330  14.650   8.049  11.259
91500SOL     OW76331  12.531   1.317  13.217
91500SOL    HW176332  12.530   1.288  13.308
91500SOL    HW276333  12.563   1.408  13.221
91501SOL     OW76334   8.830   9.761   5.794
91501SOL    HW176335   8.883   9.834   5.764
91501SOL    HW276336   8.748   9.769   5.745
91502SOL     OW76337  11.257   9.401  12.901
91502SOL    HW176338  11.188   9.346  12.939
91502SOL    HW276339  11.316   9.340  12.858
91503SOL     OW76340   8.663   9.176   9.605
91503SOL    HW176341   8.607   9.228   9.548
91503SOL    HW276342   8.662   9.089   9.566
91504SOL     OW76343   5.210   1.095   4.692
91504SOL    HW176344   5.118   1.114   4.710
91504SOL    HW276345   5.207   1.029   4.622
91505SOL     OW76346  12.570  13.300   8.406
91505SOL    HW176347  12.488  13.284   8.453
91505SOL    HW276348  12.580  13.224   8.349
91506SOL     OW76349   6.459   0.577  11.054
91506SOL    HW176350   6.541   0.534  11.032
91506SOL    HW276351   6.476   0.670  11.041
91507SOL     OW76352  11.233   3.381  11.309
91507SOL    HW176353  11.175   3.323  11.259
91507SOL    HW276354  11.256   3.450  11.247
91508SOL     OW76355  14.318  11.855  10.494
91508SOL    HW176356  14.305  11.764  10.468
91508SOL    HW276357  14.282  11.860  10.583
91509SOL     OW76358   3.278   9.371  10.010
91509SOL    HW176359   3.298   9.317   9.934
91509SOL    HW276360   3.206   9.427   9.983
91510SOL     OW76361   5.384   4.376  14.096
91510SOL    HW176362   5.405   4.293  14.139
91510SOL    HW276363   5.377   4.439  14.168
91511SOL     OW76364  14.642   2.007   4.028
91511SOL    HW176365  14.617   1.985   4.118
91511SOL    HW276366  14.560   2.037   3.987
91512SOL     OW76367   9.406   8.682   0.327
91512SOL    HW176368   9.493   8.710   0.355
91512SOL    HW276369   9.418   8.592   0.297
91513SOL     OW76370   1.921   3.718  11.234
91513SOL    HW176371   1.871   3.658  11.290
91513SOL    HW276372   1.890   3.700  11.145
91514SOL     OW76373   7.666  10.234  11.612
91514SOL    HW176374   7.621  10.287  11.546
91514SOL    HW276375   7.664  10.145  11.577
91515SOL     OW76376   1.526  11.641  12.584
91515SOL    HW176377   1.566  11.712  12.535
91515SOL    HW276378   1.599  11.601  12.632
91516SOL     OW76379  10.578   7.146   4.287
91516SOL    HW176380  10.504   7.172   4.343
91516SOL    HW276381  10.558   7.056   4.262
91517SOL     OW76382  13.392   3.932   4.578
91517SOL    HW176383  13.306   3.964   4.552
91517SOL    HW276384  13.446   4.010   4.586
91518SOL     OW76385   4.832   9.553   9.597
91518SOL    HW176386   4.789   9.506   9.669
91518SOL    HW276387   4.763   9.606   9.559
91519SOL     OW76388   6.215   5.627  10.678
91519SOL    HW176389   6.121   5.628  10.696
91519SOL    HW276390   6.256   5.602  10.760
91520SOL     OW76391   9.974   9.650   6.410
91520SOL    HW176392   9.919   9.616   6.480
91520SOL    HW276393   9.943   9.740   6.397
91521SOL     OW76394   8.549   2.132   5.735
91521SOL    HW176395   8.551   2.044   5.773
91521SOL    HW276396   8.633   2.141   5.690
91522SOL     OW76397  14.691   3.561   8.640
91522SOL    HW176398  14.785   3.578   8.637
91522SOL    HW276399  14.667   3.547   8.548
91523SOL     OW76400  13.140   3.439  10.962
91523SOL    HW176401  13.135   3.534  10.953
91523SOL    HW276402  13.057   3.407  10.928
91524SOL     OW76403   7.139   5.084   0.381
91524SOL    HW176404   7.231   5.102   0.360
91524SOL    HW276405   7.106   5.166   0.416
91525SOL     OW76406   2.964   5.953  13.219
91525SOL    HW176407   2.903   6.024  13.239
91525SOL    HW276408   3.017   5.944  13.298
91526SOL     OW76409  11.671   9.033   2.537
91526SOL    HW176410  11.762   9.002   2.541
91526SOL    HW276411  11.678   9.125   2.512
91527SOL     OW76412  12.947   4.648  10.307
91527SOL    HW176413  12.974   4.686  10.391
91527SOL    HW276414  12.983   4.560  10.308
91528SOL     OW76415  10.108   6.526   6.406
91528SOL    HW176416  10.156   6.603   6.434
91528SOL    HW276417  10.145   6.454   6.458
91529SOL     OW76418  10.123   9.106  11.525
91529SOL    HW176419  10.157   9.186  11.565
91529SOL    HW276420  10.078   9.061  11.596
91530SOL     OW76421  14.328   5.735   1.252
91530SOL    HW176422  14.396   5.692   1.304
91530SOL    HW276423  14.297   5.667   1.192
91531SOL     OW76424  11.385  14.144   3.152
91531SOL    HW176425  11.459  14.155   3.211
91531SOL    HW276426  11.394  14.056   3.116
91532SOL     OW76427   9.203   4.919  10.873
91532SOL    HW176428   9.218   4.826  10.858
91532SOL    HW276429   9.272   4.963  10.823
91533SOL     OW76430  11.568  11.284  14.378
91533SOL    HW176431  11.609  11.360  14.336
91533SOL    HW276432  11.627  11.211  14.359
91534SOL     OW76433   9.952  11.283  10.521
91534SOL    HW176434   9.919  11.361  10.477
91534SOL    HW276435  10.012  11.243  10.458
91535SOL     OW76436   9.046   9.915   4.073
91535SOL    HW176437   9.052   9.893   3.980
91535SOL    HW276438   8.952   9.917   4.091
91536SOL     OW76439  14.309   1.594   3.912
91536SOL    HW176440  14.278   1.658   3.976
91536SOL    HW276441  14.363   1.533   3.963
91537SOL     OW76442   4.262   8.685   0.325
91537SOL    HW176443   4.226   8.742   0.393
91537SOL    HW276444   4.211   8.706   0.247
91538SOL     OW76445  12.683   4.135   6.604
91538SOL    HW176446  12.589   4.122   6.617
91538SOL    HW276447  12.689   4.193   6.528
91539SOL     OW76448   1.814   5.261   8.869
91539SOL    HW176449   1.729   5.223   8.846
91539SOL    HW276450   1.873   5.231   8.799
91540SOL     OW76451   6.407   0.925   7.912
91540SOL    HW176452   6.490   0.920   7.961
91540SOL    HW276453   6.425   0.986   7.841
91541SOL     OW76454  11.487   1.024   7.938
91541SOL    HW176455  11.493   1.101   7.882
91541SOL    HW276456  11.499   0.950   7.879
91542SOL     OW76457   6.936   8.091   8.060
91542SOL    HW176458   6.867   8.146   8.023
91542SOL    HW276459   6.908   8.076   8.151
91543SOL     OW76460   4.714   3.257   8.136
91543SOL    HW176461   4.773   3.189   8.102
91543SOL    HW276462   4.768   3.308   8.196
91544SOL     OW76463  10.885   9.505  12.857
91544SOL    HW176464  10.795   9.538  12.847
91544SOL    HW276465  10.876   9.429  12.916
91545SOL     OW76466  12.213   5.879  10.654
91545SOL    HW176467  12.163   5.808  10.614
91545SOL    HW276468  12.261   5.919  10.581
91546SOL     OW76469  10.652   0.920   6.501
91546SOL    HW176470  10.718   0.887   6.561
91546SOL    HW276471  10.601   0.983   6.553
91547SOL     OW76472   5.992   1.715   5.626
91547SOL    HW176473   5.955   1.682   5.544
91547SOL    HW276474   6.032   1.798   5.603
91548SOL     OW76475   3.513  12.812   8.235
91548SOL    HW176476   3.465  12.735   8.266
91548SOL    HW276477   3.501  12.878   8.303
91549SOL     OW76478   6.625   3.154  11.522
91549SOL    HW176479   6.629   3.248  11.541
91549SOL    HW276480   6.545   3.125  11.566
91550SOL     OW76481   1.829   7.820   8.543
91550SOL    HW176482   1.746   7.800   8.500
91550SOL    HW276483   1.891   7.758   8.504
91551SOL     OW76484  13.495   6.350   9.348
91551SOL    HW176485  13.463   6.315   9.265
91551SOL    HW276486  13.415   6.373   9.396
91552SOL     OW76487   1.374  11.794   5.604
91552SOL    HW176488   1.393  11.706   5.572
91552SOL    HW276489   1.406  11.795   5.694
91553SOL     OW76490   9.760   7.037  12.611
91553SOL    HW176491   9.805   7.113  12.646
91553SOL    HW276492   9.759   6.973  12.683
91554SOL     OW76493  14.066  14.840  14.766
91554SOL    HW176494  13.992  14.790  14.731
91554SOL    HW276495  14.091   0.023  14.696
91555SOL     OW76496   4.395   2.893  13.548
91555SOL    HW176497   4.398   2.797  13.550
91555SOL    HW276498   4.486   2.920  13.533
91556SOL     OW76499   9.176   1.081  14.594
91556SOL    HW176500   9.094   1.130  14.580
91556SOL    HW276501   9.244   1.149  14.594
91557SOL     OW76502   8.686  12.489   2.589
91557SOL    HW176503   8.618  12.450   2.645
91557SOL    HW276504   8.687  12.433   2.511
91558SOL     OW76505   2.762   2.625   3.763
91558SOL    HW176506   2.806   2.560   3.707
91558SOL    HW276507   2.826   2.645   3.831
91559SOL     OW76508  14.039   7.656  10.229
91559SOL    HW176509  13.957   7.626  10.189
91559SOL    HW276510  14.096   7.677  10.155
91560SOL     OW76511   5.181   6.579   6.064
91560SOL    HW176512   5.148   6.663   6.031
91560SOL    HW276513   5.224   6.539   5.988
91561SOL     OW76514  12.514  13.957   8.416
91561SOL    HW176515  12.477  14.035   8.374
91561SOL    HW276516  12.589  13.933   8.362
91562SOL     OW76517  13.813   5.354   5.877
91562SOL    HW176518  13.787   5.265   5.854
91562SOL    HW276519  13.903   5.345   5.907
91563SOL     OW76520  11.562   2.640   2.482
91563SOL    HW176521  11.494   2.693   2.441
91563SOL    HW276522  11.644   2.673   2.444
91564SOL     OW76523  10.492   1.377   0.654
91564SOL    HW176524  10.510   1.369   0.748
91564SOL    HW276525  10.499   1.287   0.622
91565SOL     OW76526   4.022  13.869   6.106
91565SOL    HW176527   4.106  13.835   6.074
91565SOL    HW276528   4.009  13.825   6.190
91566SOL     OW76529   6.681   8.705   0.114
91566SOL    HW176530   6.704   8.767   0.045
91566SOL    HW276531   6.752   8.714   0.178
91567SOL     OW76532   8.119   4.896   1.139
91567SOL    HW176533   8.196   4.855   1.179
91567SOL    HW276534   8.115   4.858   1.051
91568SOL     OW76535  13.030   8.168   5.607
91568SOL    HW176536  13.111   8.121   5.629
91568SOL    HW276537  13.044   8.200   5.518
91569SOL     OW76538  12.595   4.649   7.919
91569SOL    HW176539  12.572   4.706   7.846
91569SOL    HW276540  12.600   4.561   7.880
91570SOL     OW76541   4.291   7.083   1.201
91570SOL    HW176542   4.205   7.089   1.160
91570SOL    HW276543   4.353   7.104   1.131
91571SOL     OW76544  12.877  13.955   0.656
91571SOL    HW176545  12.795  13.995   0.687
91571SOL    HW276546  12.861  13.861   0.661
91572SOL     OW76547  13.211  13.824   2.609
91572SOL    HW176548  13.264  13.903   2.601
91572SOL    HW276549  13.121  13.856   2.621
91573SOL     OW76550   2.226   7.792  13.573
91573SOL    HW176551   2.234   7.799  13.478
91573SOL    HW276552   2.275   7.713  13.596
91574SOL     OW76553   5.740   4.270   8.775
91574SOL    HW176554   5.774   4.207   8.711
91574SOL    HW276555   5.667   4.313   8.731
91575SOL     OW76556   8.262   3.676   5.073
91575SOL    HW176557   8.215   3.753   5.105
91575SOL    HW276558   8.254   3.612   5.143
91576SOL     OW76559   8.012   9.414   0.279
91576SOL    HW176560   8.094   9.391   0.323
91576SOL    HW276561   8.030   9.496   0.235
91577SOL     OW76562  13.785  14.759   8.414
91577SOL    HW176563  13.796  14.736   8.322
91577SOL    HW276564  13.820  14.848   8.421
91578SOL     OW76565  12.545   2.985  11.689
91578SOL    HW176566  12.523   3.049  11.621
91578SOL    HW276567  12.476   2.995  11.755
91579SOL     OW76568   7.310   1.594   9.670
91579SOL    HW176569   7.394   1.551   9.690
91579SOL    HW276570   7.312   1.675   9.721
91580SOL     OW76571   2.967   1.110   3.776
91580SOL    HW176572   2.943   1.195   3.741
91580SOL    HW276573   2.982   1.055   3.699
91581SOL     OW76574   5.491   5.115  12.336
91581SOL    HW176575   5.466   5.176  12.406
91581SOL    HW276576   5.581   5.089  12.358
91582SOL     OW76577   7.831  13.368  14.572
91582SOL    HW176578   7.857  13.428  14.502
91582SOL    HW276579   7.888  13.391  14.646
91583SOL     OW76580   9.565  12.255  11.769
91583SOL    HW176581   9.475  12.284  11.751
91583SOL    HW276582   9.575  12.265  11.863
91584SOL     OW76583   3.517  12.711  11.485
91584SOL    HW176584   3.426  12.682  11.476
91584SOL    HW276585   3.510  12.798  11.525
91585SOL     OW76586   0.767  13.473   2.718
91585SOL    HW176587   0.788  13.520   2.799
91585SOL    HW276588   0.725  13.539   2.662
91586SOL     OW76589   5.799   4.948  14.812
91586SOL    HW176590   5.858   5.019  14.840
91586SOL    HW276591   5.762   4.980  14.729
91587SOL     OW76592   1.091   3.957   6.353
91587SOL    HW176593   1.152   3.893   6.390
91587SOL    HW276594   1.148   4.019   6.306
91588SOL     OW76595   5.443  13.128   4.826
91588SOL    HW176596   5.497  13.202   4.854
91588SOL    HW276597   5.377  13.167   4.769
91589SOL     OW76598   6.150   3.734   0.527
91589SOL    HW176599   6.105   3.765   0.448
91589SOL    HW276600   6.167   3.642   0.509
91590SOL     OW76601   1.577   4.561   4.613
91590SOL    HW176602   1.515   4.525   4.550
91590SOL    HW276603   1.636   4.615   4.559
91591SOL     OW76604  14.074   8.437   7.383
91591SOL    HW176605  14.015   8.415   7.311
91591SOL    HW276606  14.039   8.519   7.418
91592SOL     OW76607   3.627   8.764   6.339
91592SOL    HW176608   3.650   8.714   6.418
91592SOL    HW276609   3.608   8.696   6.273
91593SOL     OW76610  11.744   7.574   9.521
91593SOL    HW176611  11.691   7.510   9.474
91593SOL    HW276612  11.714   7.659   9.488
91594SOL     OW76613   5.360  12.846  11.265
91594SOL    HW176614   5.410  12.863  11.185
91594SOL    HW276615   5.306  12.769  11.243
91595SOL     OW76616  12.550  10.187  10.415
91595SOL    HW176617  12.488  10.182  10.488
91595SOL    HW276618  12.603  10.108  10.424
91596SOL     OW76619   4.448   9.176   8.648
91596SOL    HW176620   4.532   9.222   8.640
91596SOL    HW276621   4.468   9.085   8.627
91597SOL     OW76622  11.192   9.329  12.499
91597SOL    HW176623  11.150   9.378  12.570
91597SOL    HW276624  11.183   9.237  12.525
91598SOL     OW76625   6.998   1.949   6.079
91598SOL    HW176626   7.035   1.928   6.165
91598SOL    HW276627   6.911   1.985   6.098
91599SOL     OW76628   7.952   9.770   9.739
91599SOL    HW176629   7.866   9.745   9.705
91599SOL    HW276630   7.934   9.802   9.827
91600SOL     OW76631  10.280   0.124  13.186
91600SOL    HW176632  10.267   0.114  13.281
91600SOL    HW276633  10.350   0.064  13.165
91601SOL     OW76634  11.957  11.746   9.425
91601SOL    HW176635  11.941  11.724   9.333
91601SOL    HW276636  12.007  11.828   9.421
91602SOL     OW76637   9.421   3.032   1.368
91602SOL    HW176638   9.465   2.947   1.356
91602SOL    HW276639   9.487   3.097   1.346
91603SOL     OW76640   0.318   4.530   0.388
91603SOL    HW176641   0.251   4.461   0.392
91603SOL    HW276642   0.379   4.500   0.321
91604SOL     OW76643   8.442   0.348   7.913
91604SOL    HW176644   8.536   0.335   7.906
91604SOL    HW276645   8.431   0.399   7.993
91605SOL     OW76646   5.509   1.624   3.932
91605SOL    HW176647   5.475   1.709   3.958
91605SOL    HW276648   5.538   1.583   4.014
91606SOL     OW76649  12.479  10.358   5.075
91606SOL    HW176650  12.482  10.316   4.989
91606SOL    HW276651  12.512  10.291   5.135
91607SOL     OW76652  10.964   5.925   6.432
91607SOL    HW176653  11.052   5.931   6.394
91607SOL    HW276654  10.949   5.831   6.442
91608SOL     OW76655   9.332   0.719   5.320
91608SOL    HW176656   9.329   0.666   5.241
91608SOL    HW276657   9.416   0.698   5.360
91609SOL     OW76658   2.326   7.292   4.316
91609SOL    HW176659   2.370   7.225   4.263
91609SOL    HW276660   2.389   7.313   4.385
91610SOL     OW76661   6.910  14.404   5.663
91610SOL    HW176662   6.978  14.410   5.596
91610SOL    HW276663   6.934  14.326   5.714
91611SOL     OW76664   4.774   9.520   7.622
91611SOL    HW176665   4.812   9.587   7.564
91611SOL    HW276666   4.828   9.442   7.607
91612SOL     OW76667   9.145  13.552  11.591
91612SOL    HW176668   9.121  13.596  11.510
91612SOL    HW276669   9.081  13.584  11.655
91613SOL     OW76670   7.309  12.509   0.193
91613SOL    HW176671   7.302  12.525   0.099
91613SOL    HW276672   7.367  12.433   0.200
91614SOL     OW76673  10.392   9.189   6.823
91614SOL    HW176674  10.316   9.240   6.850
91614SOL    HW276675  10.355   9.116   6.773
91615SOL     OW76676   4.740   7.596   7.357
91615SOL    HW176677   4.757   7.611   7.264
91615SOL    HW276678   4.656   7.551   7.359
91616SOL     OW76679   2.501   0.681   2.180
91616SOL    HW176680   2.540   0.734   2.110
91616SOL    HW276681   2.523   0.591   2.156
91617SOL     OW76682  14.085   2.544  12.896
91617SOL    HW176683  14.059   2.596  12.972
91617SOL    HW276684  14.025   2.470  12.896
91618SOL     OW76685   4.915  13.901   3.561
91618SOL    HW176686   4.985  13.954   3.599
91618SOL    HW276687   4.956  13.819   3.536
91619SOL     OW76688   4.710   6.961  13.972
91619SOL    HW176689   4.742   7.024  13.908
91619SOL    HW276690   4.721   6.875  13.930
91620SOL     OW76691   5.499   0.128  10.294
91620SOL    HW176692   5.466   0.057  10.238
91620SOL    HW276693   5.574   0.163  10.246
91621SOL     OW76694  14.569  11.959   1.497
91621SOL    HW176695  14.615  11.957   1.581
91621SOL    HW276696  14.594  11.877   1.455
91622SOL     OW76697   8.240   2.152   0.279
91622SOL    HW176698   8.174   2.213   0.311
91622SOL    HW276699   8.193   2.070   0.263
91623SOL     OW76700   4.136   1.820   9.599
91623SOL    HW176701   4.130   1.805   9.504
91623SOL    HW276702   4.229   1.810   9.618
91624SOL     OW76703  12.506   3.003   9.845
91624SOL    HW176704  12.454   3.074   9.884
91624SOL    HW276705  12.441   2.948   9.801
91625SOL     OW76706  11.857  12.162   1.749
91625SOL    HW176707  11.895  12.226   1.689
91625SOL    HW276708  11.822  12.214   1.821
91626SOL     OW76709  13.512   8.761  14.022
91626SOL    HW176710  13.561   8.689  13.983
91626SOL    HW276711  13.426   8.758  13.979
91627SOL     OW76712   0.880  12.302  10.422
91627SOL    HW176713   0.897  12.257  10.339
91627SOL    HW276714   0.797  12.265  10.453
91628SOL     OW76715   3.642   7.304   9.127
91628SOL    HW176716   3.727   7.272   9.094
91628SOL    HW276717   3.599   7.226   9.161
91629SOL     OW76718   7.163  12.522   1.753
91629SOL    HW176719   7.100  12.594   1.754
91629SOL    HW276720   7.141  12.470   1.830
91630SOL     OW76721   8.718   5.363   6.751
91630SOL    HW176722   8.670   5.413   6.686
91630SOL    HW276723   8.794   5.417   6.772
91631SOL     OW76724   8.806   8.175   0.149
91631SOL    HW176725   8.737   8.118   0.115
91631SOL    HW276726   8.873   8.174   0.080
91632SOL     OW76727  10.373   3.485  10.648
91632SOL    HW176728  10.325   3.550  10.598
91632SOL    HW276729  10.464   3.494  10.619
91633SOL     OW76730   4.739   6.480   9.264
91633SOL    HW176731   4.650   6.506   9.239
91633SOL    HW276732   4.796   6.529   9.204
91634SOL     OW76733   2.621   9.035   7.389
91634SOL    HW176734   2.548   9.001   7.441
91634SOL    HW276735   2.589   9.033   7.299
91635SOL     OW76736  14.505  13.902  11.195
91635SOL    HW176737  14.576  13.839  11.185
91635SOL    HW276738  14.425  13.849  11.194
91636SOL     OW76739  11.427   8.082  11.793
91636SOL    HW176740  11.383   8.163  11.771
91636SOL    HW276741  11.367   8.037  11.853
91637SOL     OW76742  14.726   6.572   8.595
91637SOL    HW176743  14.691   6.569   8.505
91637SOL    HW276744  14.713   6.483   8.628
91638SOL     OW76745  14.296  10.092  11.696
91638SOL    HW176746  14.365  10.025  11.692
91638SOL    HW276747  14.275  10.111  11.605
91639SOL     OW76748  13.540  11.308   4.089
91639SOL    HW176749  13.510  11.377   4.147
91639SOL    HW276750  13.626  11.337   4.058
91640SOL     OW76751   2.513   4.324  11.806
91640SOL    HW176752   2.484   4.398  11.752
91640SOL    HW276753   2.491   4.350  11.895
91641SOL     OW76754  10.520   1.728   8.483
91641SOL    HW176755  10.614   1.726   8.501
91641SOL    HW276756  10.489   1.641   8.506
91642SOL     OW76757  13.630  14.017   3.078
91642SOL    HW176758  13.580  13.943   3.111
91642SOL    HW276759  13.588  14.040   2.996
91643SOL     OW76760   5.249  11.317  11.297
91643SOL    HW176761   5.339  11.346  11.284
91643SOL    HW276762   5.196  11.391  11.269
91644SOL     OW76763  13.375   7.000  10.086
91644SOL    HW176764  13.461   6.963  10.065
91644SOL    HW276765  13.335   7.016  10.000
91645SOL     OW76766   1.310   6.494  14.055
91645SOL    HW176767   1.322   6.428  13.986
91645SOL    HW276768   1.368   6.566  14.029
91646SOL     OW76769   8.315   1.602   2.271
91646SOL    HW176770   8.291   1.672   2.210
91646SOL    HW276771   8.386   1.639   2.323
91647SOL     OW76772   9.896   6.345  11.267
91647SOL    HW176773   9.981   6.388  11.272
91647SOL    HW276774   9.891   6.292  11.346
91648SOL     OW76775   9.445  14.774   8.143
91648SOL    HW176776   9.506  14.830   8.191
91648SOL    HW276777   9.358  14.799   8.176
91649SOL     OW76778   7.824   4.324  14.641
91649SOL    HW176779   7.775   4.332  14.723
91649SOL    HW276780   7.822   4.412  14.603
91650SOL     OW76781   7.533   4.545  11.225
91650SOL    HW176782   7.530   4.536  11.130
91650SOL    HW276783   7.535   4.454  11.257
91651SOL     OW76784   7.642  13.775  13.066
91651SOL    HW176785   7.668  13.685  13.084
91651SOL    HW276786   7.707  13.807  13.004
91652SOL     OW76787  13.205  11.228  14.464
91652SOL    HW176788  13.131  11.170  14.445
91652SOL    HW276789  13.237  11.200  14.549
91653SOL     OW76790   6.213   5.087  11.653
91653SOL    HW176791   6.263   5.052  11.579
91653SOL    HW276792   6.171   5.165  11.618
91654SOL     OW76793   1.720   5.940   2.682
91654SOL    HW176794   1.711   5.940   2.586
91654SOL    HW276795   1.722   6.033   2.706
91655SOL     OW76796  11.229   3.831   7.085
91655SOL    HW176797  11.268   3.846   7.171
91655SOL    HW276798  11.157   3.894   7.079
91656SOL     OW76799   5.948  14.280   1.978
91656SOL    HW176800   5.999  14.202   1.955
91656SOL    HW276801   5.863  14.245   2.005
91657SOL     OW76802  12.766   2.976  12.078
91657SOL    HW176803  12.686   2.967  12.129
91657SOL    HW276804  12.787   3.070  12.083
91658SOL     OW76805   1.688   7.330   5.471
91658SOL    HW176806   1.782   7.339   5.461
91658SOL    HW276807   1.658   7.299   5.386
91659SOL     OW76808   5.536  11.489   5.977
91659SOL    HW176809   5.511  11.462   5.889
91659SOL    HW276810   5.482  11.566   5.994
91660SOL     OW76811   7.651  11.359  11.651
91660SOL    HW176812   7.684  11.274  11.622
91660SOL    HW276813   7.728  11.415  11.653
91661SOL     OW76814  10.068   9.892   6.663
91661SOL    HW176815  10.141   9.850   6.619
91661SOL    HW276816  10.074   9.984   6.637
91662SOL     OW76817   8.007  12.459  14.239
91662SOL    HW176818   8.102  12.446  14.229
91662SOL    HW276819   7.970  12.372  14.223
91663SOL     OW76820   4.634  14.843   6.670
91663SOL    HW176821   4.716  14.863   6.715
91663SOL    HW276822   4.578  14.806   6.739
91664SOL     OW76823   7.511  12.892   7.447
91664SOL    HW176824   7.509  12.797   7.447
91664SOL    HW276825   7.446  12.918   7.382
91665SOL     OW76826   7.273   2.170   5.376
91665SOL    HW176827   7.290   2.153   5.283
91665SOL    HW276828   7.179   2.186   5.381
91666SOL     OW76829   7.750   8.743  11.842
91666SOL    HW176830   7.813   8.803  11.882
91666SOL    HW276831   7.668   8.761  11.887
91667SOL     OW76832   9.262   2.131  13.072
91667SOL    HW176833   9.307   2.177  13.001
91667SOL    HW276834   9.240   2.200  13.134
91668SOL     OW76835   1.496   0.489   2.504
91668SOL    HW176836   1.498   0.394   2.496
91668SOL    HW276837   1.577   0.511   2.550
91669SOL     OW76838   3.962   2.379   7.512
91669SOL    HW176839   3.933   2.469   7.498
91669SOL    HW276840   3.995   2.351   7.426
91670SOL     OW76841   7.422  13.698   2.892
91670SOL    HW176842   7.370  13.679   2.814
91670SOL    HW276843   7.491  13.756   2.861
91671SOL     OW76844  10.822  13.170   7.256
91671SOL    HW176845  10.835  13.246   7.313
91671SOL    HW276846  10.748  13.193   7.200
91672SOL     OW76847   7.458   1.216   1.082
91672SOL    HW176848   7.451   1.217   0.986
91672SOL    HW276849   7.371   1.238   1.113
91673SOL     OW76850   9.540   2.989  13.110
91673SOL    HW176851   9.589   2.994  13.192
91673SOL    HW276852   9.574   3.062  13.058
91674SOL     OW76853   7.476   3.110   8.230
91674SOL    HW176854   7.528   3.142   8.304
91674SOL    HW276855   7.403   3.171   8.224
91675SOL     OW76856   5.458  14.284  14.275
91675SOL    HW176857   5.523  14.354  14.270
91675SOL    HW276858   5.390  14.309  14.212
91676SOL     OW76859  12.575   8.351  10.602
91676SOL    HW176860  12.526   8.398  10.669
91676SOL    HW276861  12.609   8.419  10.544
91677SOL     OW76862   4.152   9.310   0.639
91677SOL    HW176863   4.105   9.247   0.584
91677SOL    HW276864   4.226   9.260   0.676
91678SOL     OW76865   8.840  13.432  10.573
91678SOL    HW176866   8.867  13.519  10.544
91678SOL    HW276867   8.915  13.376  10.554
91679SOL     OW76868   8.421  14.640  14.865
91679SOL    HW176869   8.380  14.688   0.061
91679SOL    HW276870   8.454  14.708  14.806
91680SOL     OW76871   0.471  14.722   3.241
91680SOL    HW176872   0.496  14.732   3.149
91680SOL    HW276873   0.440  14.632   3.248
91681SOL     OW76874  11.888  13.081   5.491
91681SOL    HW176875  11.799  13.091   5.457
91681SOL    HW276876  11.942  13.066   5.413
91682SOL     OW76877   7.244   0.908  10.370
91682SOL    HW176878   7.274   0.968  10.302
91682SOL    HW276879   7.231   0.825  10.324
91683SOL     OW76880   5.909   9.729  11.686
91683SOL    HW176881   5.966   9.656  11.661
91683SOL    HW276882   5.844   9.688  11.744
91684SOL     OW76883  14.710   6.257   7.336
91684SOL    HW176884  14.725   6.169   7.304
91684SOL    HW276885  14.782   6.309   7.299
91685SOL     OW76886   2.664   1.845   2.989
91685SOL    HW176887   2.682   1.925   2.940
91685SOL    HW276888   2.583   1.863   3.037
91686SOL     OW76889   9.347   4.694   5.930
91686SOL    HW176890   9.380   4.731   5.848
91686SOL    HW276891   9.423   4.693   5.988
91687SOL     OW76892  14.461  11.787  14.157
91687SOL    HW176893  14.530  11.801  14.221
91687SOL    HW276894  14.500  11.728  14.092
91688SOL     OW76895   7.218  11.117  13.385
91688SOL    HW176896   7.137  11.121  13.334
91688SOL    HW276897   7.230  11.025  13.404
91689SOL     OW76898   3.371  11.184   5.635
91689SOL    HW176899   3.376  11.257   5.573
91689SOL    HW276900   3.454  11.138   5.623
91690SOL     OW76901  10.351   4.046   2.871
91690SOL    HW176902  10.392   4.122   2.829
91690SOL    HW276903  10.373   4.055   2.963
91691SOL     OW76904   2.442   8.056   2.911
91691SOL    HW176905   2.471   8.015   2.829
91691SOL    HW276906   2.392   8.133   2.882
91692SOL     OW76907   2.308  10.810   0.327
91692SOL    HW176908   2.223  10.828   0.366
91692SOL    HW276909   2.334  10.725   0.362
91693SOL     OW76910  11.737   7.823   6.320
91693SOL    HW176911  11.663   7.871   6.359
91693SOL    HW276912  11.696   7.753   6.270
91694SOL     OW76913   3.693   0.648   1.785
91694SOL    HW176914   3.619   0.631   1.844
91694SOL    HW276915   3.652   0.684   1.706
91695SOL     OW76916  13.031  14.570   2.989
91695SOL    HW176917  13.087  14.599   3.061
91695SOL    HW276918  13.083  14.584   2.911
91696SOL     OW76919   9.508   4.097   3.636
91696SOL    HW176920   9.433   4.113   3.579
91696SOL    HW276921   9.477   4.030   3.698
91697SOL     OW76922  10.705   4.940   4.677
91697SOL    HW176923  10.621   4.984   4.691
91697SOL    HW276924  10.700   4.861   4.731
91698SOL     OW76925  13.399  12.378   3.649
91698SOL    HW176926  13.340  12.312   3.683
91698SOL    HW276927  13.341  12.447   3.616
91699SOL     OW76928   7.128  11.681   1.698
91699SOL    HW176929   7.140  11.675   1.793
91699SOL    HW276930   7.217  11.682   1.663
91700SOL     OW76931   2.484  13.623  11.140
91700SOL    HW176932   2.538  13.702  11.139
91700SOL    HW276933   2.546  13.552  11.125
91701SOL     OW76934  11.533   4.437   1.733
91701SOL    HW176935  11.622   4.458   1.761
91701SOL    HW276936  11.480   4.509   1.765
91702SOL     OW76937   7.395   0.258   5.353
91702SOL    HW176938   7.352   0.294   5.276
91702SOL    HW276939   7.324   0.231   5.410
91703SOL     OW76940   9.589   2.496  10.547
91703SOL    HW176941   9.531   2.557  10.593
91703SOL    HW276942   9.550   2.410  10.564
91704SOL     OW76943   0.511   4.440  14.059
91704SOL    HW176944   0.480   4.359  14.099
91704SOL    HW276945   0.590   4.462  14.109
91705SOL     OW76946  12.337  12.499   0.837
91705SOL    HW176947  12.394  12.576   0.842
91705SOL    HW276948  12.395  12.424   0.850
91706SOL     OW76949  12.471   2.471   4.347
91706SOL    HW176950  12.471   2.395   4.288
91706SOL    HW276951  12.546   2.523   4.320
91707SOL     OW76952   3.547  10.637   7.368
91707SOL    HW176953   3.521  10.562   7.421
91707SOL    HW276954   3.612  10.683   7.421
91708SOL     OW76955   4.856   0.309   3.469
91708SOL    HW176956   4.782   0.249   3.474
91708SOL    HW276957   4.922   0.271   3.527
91709SOL     OW76958  11.844  14.776  13.226
91709SOL    HW176959  11.761  14.760  13.270
91709SOL    HW276960  11.902  14.808  13.296
91710SOL     OW76961   9.867  12.631   1.548
91710SOL    HW176962   9.889  12.599   1.461
91710SOL    HW276963   9.787  12.584   1.571
91711SOL     OW76964   1.203  12.454   2.302
91711SOL    HW176965   1.112  12.482   2.312
91711SOL    HW276966   1.221  12.461   2.209
91712SOL     OW76967   9.395   8.964   7.725
91712SOL    HW176968   9.450   8.894   7.761
91712SOL    HW276969   9.347   8.922   7.653
91713SOL     OW76970  14.323   6.275   7.460
91713SOL    HW176971  14.363   6.307   7.541
91713SOL    HW276972  14.307   6.354   7.409
91714SOL     OW76973   0.631   4.858   0.434
91714SOL    HW176974   0.654   4.768   0.412
91714SOL    HW276975   0.701   4.887   0.492
91715SOL     OW76976   7.187   1.419  13.227
91715SOL    HW176977   7.125   1.387  13.162
91715SOL    HW276978   7.255   1.351  13.230
91716SOL     OW76979   9.145   2.858  11.429
91716SOL    HW176980   9.149   2.889  11.338
91716SOL    HW276981   9.133   2.763  11.422
91717SOL     OW76982  14.776   5.223   8.729
91717SOL    HW176983  14.830   5.144   8.719
91717SOL    HW276984  14.839   5.293   8.749
91718SOL     OW76985   8.138   2.036  12.828
91718SOL    HW176986   8.070   1.972  12.846
91718SOL    HW276987   8.220   1.990  12.842
91719SOL     OW76988  11.556   3.390  10.966
91719SOL    HW176989  11.633   3.355  10.920
91719SOL    HW276990  11.584   3.476  10.998
91720SOL     OW76991   6.970   3.094   7.509
91720SOL    HW176992   7.054   3.139   7.516
91720SOL    HW276993   6.988   3.016   7.456
91721SOL     OW76994   3.279   7.562   8.767
91721SOL    HW176995   3.233   7.641   8.797
91721SOL    HW276996   3.246   7.547   8.679
91722SOL     OW76997  13.295   9.279   7.017
91722SOL    HW176998  13.347   9.233   6.950
91722SOL    HW276999  13.247   9.346   6.968
91723SOL     OW77000  11.818  10.094   2.693
91723SOL    HW177001  11.866  10.019   2.656
91723SOL    HW277002  11.764  10.055   2.762
91724SOL     OW77003   7.754   4.475   2.026
91724SOL    HW177004   7.799   4.393   2.047
91724SOL    HW277005   7.819   4.543   2.041
91725SOL     OW77006   5.017   8.137  13.926
91725SOL    HW177007   4.947   8.085  13.888
91725SOL    HW277008   5.011   8.120  14.020
91726SOL     OW77009   1.412  13.307   7.685
91726SOL    HW177010   1.487  13.259   7.721
91726SOL    HW277011   1.340  13.285   7.744
91727SOL     OW77012   0.389   4.042   9.057
91727SOL    HW177013   0.335   4.047   8.977
91727SOL    HW277014   0.460   3.983   9.033
91728SOL     OW77015   6.927  10.219   2.207
91728SOL    HW177016   6.865  10.173   2.263
91728SOL    HW277017   7.000  10.159   2.197
91729SOL     OW77018  11.252   8.638  10.671
91729SOL    HW177019  11.256   8.578  10.746
91729SOL    HW277020  11.261   8.581  10.594
91730SOL     OW77021  14.726  14.163  10.390
91730SOL    HW177022  14.652  14.168  10.329
91730SOL    HW277023  14.803  14.185  10.338
91731SOL     OW77024   1.311  11.499  10.419
91731SOL    HW177025   1.276  11.569  10.364
91731SOL    HW277026   1.274  11.516  10.505
91732SOL     OW77027  14.754   6.818   2.987
91732SOL    HW177028  14.793   6.825   2.900
91732SOL    HW277029  14.815   6.763   3.037
91733SOL     OW77030  13.622  10.957  10.922
91733SOL    HW177031  13.656  11.041  10.951
91733SOL    HW277032  13.632  10.959  10.827
91734SOL     OW77033   1.876   8.812   4.705
91734SOL    HW177034   1.952   8.781   4.754
91734SOL    HW277035   1.890   8.906   4.695
91735SOL     OW77036  10.944   2.198  12.242
91735SOL    HW177037  11.023   2.182  12.189
91735SOL    HW277038  10.880   2.231  12.180
91736SOL     OW77039   7.970   8.808  12.011
91736SOL    HW177040   7.962   8.740  12.079
91736SOL    HW277041   8.026   8.875  12.050
91737SOL     OW77042   8.585   7.717   7.723
91737SOL    HW177043   8.501   7.763   7.716
91737SOL    HW277044   8.561   7.625   7.739
91738SOL     OW77045   3.953   6.947   0.344
91738SOL    HW177046   3.966   7.000   0.265
91738SOL    HW277047   3.891   6.998   0.396
91739SOL     OW77048  10.592   8.190  13.377
91739SOL    HW177049  10.681   8.166  13.350
91739SOL    HW277050  10.548   8.214  13.296
91740SOL     OW77051   1.788  13.306   9.215
91740SOL    HW177052   1.833  13.224   9.236
91740SOL    HW277053   1.857  13.372   9.216
91741SOL     OW77054   5.381   8.498   0.747
91741SOL    HW177055   5.468   8.486   0.785
91741SOL    HW277056   5.365   8.592   0.754
91742SOL     OW77057  13.006   8.705  11.799
91742SOL    HW177058  13.008   8.628  11.855
91742SOL    HW277059  13.027   8.671  11.711
91743SOL     OW77060   9.792  13.088   4.348
91743SOL    HW177061   9.716  13.088   4.290
91743SOL    HW277062   9.800  13.179   4.378
91744SOL     OW77063  14.715  11.163   7.083
91744SOL    HW177064  14.761  11.101   7.140
91744SOL    HW277065  14.657  11.211   7.142
91745SOL     OW77066   9.740   2.471   8.866
91745SOL    HW177067   9.770   2.518   8.943
91745SOL    HW277068   9.815   2.469   8.807
91746SOL     OW77069  13.682  14.716   0.703
91746SOL    HW177070  13.641  14.630   0.698
91746SOL    HW277071  13.700  14.740   0.612
91747SOL     OW77072   4.607   1.454  12.830
91747SOL    HW177073   4.591   1.417  12.743
91747SOL    HW277074   4.567   1.392  12.891
91748SOL     OW77075  11.064   8.413  12.898
91748SOL    HW177076  11.124   8.436  12.969
91748SOL    HW277077  11.107   8.446  12.819
91749SOL     OW77078   6.161   9.650   6.135
91749SOL    HW177079   6.220   9.680   6.204
91749SOL    HW277080   6.155   9.555   6.148
91750SOL     OW77081   8.439   4.384   4.300
91750SOL    HW177082   8.534   4.391   4.292
91750SOL    HW277083   8.412   4.342   4.218
91751SOL     OW77084   0.650   7.732  13.789
91751SOL    HW177085   0.637   7.673  13.863
91751SOL    HW277086   0.714   7.686  13.734
91752SOL     OW77087  12.087   0.549   4.911
91752SOL    HW177088  12.119   0.569   4.824
91752SOL    HW277089  12.138   0.474   4.939
91753SOL     OW77090   5.787   1.274   1.615
91753SOL    HW177091   5.809   1.363   1.587
91753SOL    HW277092   5.870   1.239   1.649
91754SOL     OW77093  13.779   5.878   5.323
91754SOL    HW177094  13.735   5.944   5.376
91754SOL    HW277095  13.722   5.802   5.326
91755SOL     OW77096   6.122   5.451   7.090
91755SOL    HW177097   6.032   5.484   7.087
91755SOL    HW277098   6.122   5.378   7.028
91756SOL     OW77099   8.939  11.280   7.457
91756SOL    HW177100   9.029  11.310   7.469
91756SOL    HW277101   8.947  11.190   7.425
91757SOL     OW77102   2.700   4.692  14.761
91757SOL    HW177103   2.775   4.636  14.780
91757SOL    HW277104   2.716   4.771  14.814
91758SOL     OW77105   1.332  12.093  10.371
91758SOL    HW177106   1.254  12.046  10.342
91758SOL    HW277107   1.311  12.123  10.459
91759SOL     OW77108   0.113   1.443  12.295
91759SOL    HW177109   0.096   1.357  12.255
91759SOL    HW277110   0.203   1.437  12.327
91760SOL     OW77111   0.661   2.388  12.144
91760SOL    HW177112   0.630   2.478  12.157
91760SOL    HW277113   0.619   2.338  12.215
91761SOL     OW77114   6.582  12.258  12.493
91761SOL    HW177115   6.499  12.301  12.472
91761SOL    HW277116   6.581  12.248  12.589
91762SOL     OW77117   6.479   9.381   9.233
91762SOL    HW177118   6.572   9.364   9.220
91762SOL    HW277119   6.435   9.300   9.206
91763SOL     OW77120  11.589  12.414   6.803
91763SOL    HW177121  11.544  12.369   6.874
91763SOL    HW277122  11.536  12.492   6.786
91764SOL     OW77123  12.279   6.884   5.202
91764SOL    HW177124  12.340   6.953   5.228
91764SOL    HW277125  12.334   6.816   5.163
91765SOL     OW77126   8.925   6.341   6.880
91765SOL    HW177127   8.841   6.385   6.863
91765SOL    HW277128   8.900   6.261   6.927
91766SOL     OW77129   6.361   0.542   9.518
91766SOL    HW177130   6.315   0.548   9.434
91766SOL    HW277131   6.301   0.582   9.581
91767SOL     OW77132  11.039   9.360  12.055
91767SOL    HW177133  11.071   9.298  12.119
91767SOL    HW277134  10.978   9.416  12.104
91768SOL     OW77135   6.957  10.531   9.068
91768SOL    HW177136   6.967  10.513   8.974
91768SOL    HW277137   6.864  10.550   9.079
91769SOL     OW77138   7.193   4.181   2.575
91769SOL    HW177139   7.214   4.266   2.614
91769SOL    HW277140   7.103   4.164   2.602
91770SOL     OW77141   4.581  14.676  11.703
91770SOL    HW177142   4.657  14.710  11.656
91770SOL    HW277143   4.601  14.584  11.719
91771SOL     OW77144  12.987  14.220  13.192
91771SOL    HW177145  13.045  14.292  13.168
91771SOL    HW277146  12.965  14.237  13.284
91772SOL     OW77147   4.181   2.165   5.570
91772SOL    HW177148   4.186   2.072   5.551
91772SOL    HW277149   4.265   2.201   5.542
91773SOL     OW77150  13.573   4.737  10.755
91773SOL    HW177151  13.526   4.655  10.741
91773SOL    HW277152  13.545   4.794  10.684
91774SOL     OW77153   8.889   2.479   5.459
91774SOL    HW177154   8.863   2.561   5.501
91774SOL    HW277155   8.980   2.465   5.487
91775SOL     OW77156  11.442   9.414  14.434
91775SOL    HW177157  11.357   9.458  14.440
91775SOL    HW277158  11.434   9.357  14.358
91776SOL     OW77159   8.734  13.123   9.222
91776SOL    HW177160   8.799  13.194   9.220
91776SOL    HW277161   8.714  13.111   9.315
91777SOL     OW77162  10.795  12.237  10.508
91777SOL    HW177163  10.840  12.305  10.458
91777SOL    HW277164  10.841  12.156  10.485
91778SOL     OW77165  11.931  12.318  13.034
91778SOL    HW177166  11.899  12.405  13.009
91778SOL    HW277167  11.944  12.324  13.129
91779SOL     OW77168   0.244   5.394  13.564
91779SOL    HW177169   0.322   5.406  13.509
91779SOL    HW277170   0.276   5.345  13.639
91780SOL     OW77171   1.777  13.579   7.659
91780SOL    HW177172   1.820  13.633   7.726
91780SOL    HW277173   1.812  13.612   7.576
91781SOL     OW77174   4.715   4.028   5.914
91781SOL    HW177175   4.771   4.080   5.971
91781SOL    HW277176   4.670   4.093   5.860
91782SOL     OW77177  13.565  13.745   4.115
91782SOL    HW177178  13.492  13.712   4.063
91782SOL    HW277179  13.537  13.833   4.141
91783SOL     OW77180  12.560  11.834   1.171
91783SOL    HW177181  12.506  11.852   1.248
91783SOL    HW277182  12.502  11.852   1.097
91784SOL     OW77183  14.085   2.025  10.745
91784SOL    HW177184  14.111   2.115  10.764
91784SOL    HW277185  14.062   1.988  10.830
91785SOL     OW77186  14.486   3.762   9.295
91785SOL    HW177187  14.537   3.684   9.272
91785SOL    HW277188  14.477   3.757   9.390
91786SOL     OW77189   7.708   9.504   1.619
91786SOL    HW177190   7.799   9.486   1.596
91786SOL    HW277191   7.695   9.460   1.702
91787SOL     OW77192   6.197   1.480   7.876
91787SOL    HW177193   6.292   1.489   7.868
91787SOL    HW277194   6.161   1.549   7.820
91788SOL     OW77195   6.452   4.711  11.115
91788SOL    HW177196   6.507   4.759  11.052
91788SOL    HW277197   6.484   4.621  11.111
91789SOL     OW77198   5.064   0.873  10.012
91789SOL    HW177199   5.092   0.959  10.042
91789SOL    HW277200   4.987   0.892   9.958
91790SOL     OW77201   6.905  14.268   0.640
91790SOL    HW177202   6.893  14.358   0.670
91790SOL    HW277203   6.903  14.215   0.720
91791SOL     OW77204   4.618   9.398   9.073
91791SOL    HW177205   4.603   9.473   9.131
91791SOL    HW277206   4.551   9.406   9.005
91792SOL     OW77207   6.328   9.234  12.824
91792SOL    HW177208   6.271   9.310  12.837
91792SOL    HW277209   6.268   9.165  12.796
91793SOL     OW77210   6.132   0.550   3.260
91793SOL    HW177211   6.111   0.478   3.202
91793SOL    HW277212   6.185   0.511   3.330
91794SOL     OW77213   8.051   9.074  14.559
91794SOL    HW177214   8.094   9.152  14.523
91794SOL    HW277215   7.982   9.110  14.615
91795SOL     OW77216   0.267  10.163  11.883
91795SOL    HW177217   0.214  10.096  11.840
91795SOL    HW277218   0.218  10.244  11.872
91796SOL     OW77219   0.917  12.128   0.130
91796SOL    HW177220   0.969  12.093   0.058
91796SOL    HW277221   0.957  12.212   0.151
91797SOL     OW77222  12.071   4.306  13.280
91797SOL    HW177223  12.162   4.279  13.284
91797SOL    HW277224  12.054   4.346  13.366
91798SOL     OW77225   1.403  12.144   8.839
91798SOL    HW177226   1.358  12.177   8.761
91798SOL    HW277227   1.420  12.222   8.892
91799SOL     OW77228   2.781   7.158   0.330
91799SOL    HW177229   2.859   7.178   0.278
91799SOL    HW277230   2.807   7.081   0.382
91800SOL     OW77231  14.319  10.291   6.997
91800SOL    HW177232  14.229  10.273   7.025
91800SOL    HW277233  14.327  10.248   6.912
91801SOL     OW77234   9.753   2.686   7.188
91801SOL    HW177235   9.720   2.613   7.240
91801SOL    HW277236   9.813   2.646   7.125
91802SOL     OW77237  13.124   9.956  10.007
91802SOL    HW177238  13.109  10.003   9.925
91802SOL    HW277239  13.119  10.023  10.074
91803SOL     OW77240   4.370   4.608  13.115
91803SOL    HW177241   4.354   4.678  13.178
91803SOL    HW277242   4.304   4.542  13.136
91804SOL     OW77243  14.850  10.157   0.563
91804SOL    HW177244  14.837  10.193   0.475
91804SOL    HW277245  14.844  10.063   0.552
91805SOL     OW77246  11.009   4.125  11.556
91805SOL    HW177247  10.922   4.085  11.554
91805SOL    HW277248  11.013   4.178  11.477
91806SOL     OW77249   3.605  11.198   1.403
91806SOL    HW177250   3.524  11.194   1.352
91806SOL    HW277251   3.634  11.289   1.395
91807SOL     OW77252  10.210   2.380  10.065
91807SOL    HW177253  10.224   2.328  10.144
91807SOL    HW277254  10.298   2.410  10.040
91808SOL     OW77255  13.926   2.567   3.373
91808SOL    HW177256  13.891   2.642   3.422
91808SOL    HW277257  13.989   2.605   3.312
91809SOL     OW77258  10.857   4.660  14.301
91809SOL    HW177259  10.908   4.587  14.337
91809SOL    HW277260  10.772   4.621  14.278
91810SOL     OW77261   1.517   5.433   8.160
91810SOL    HW177262   1.559   5.480   8.232
91810SOL    HW277263   1.430   5.473   8.152
91811SOL     OW77264   5.240  10.952  13.049
91811SOL    HW177265   5.166  11.013  13.045
91811SOL    HW277266   5.291  10.973  12.970
91812SOL     OW77267   4.784  12.335   5.286
91812SOL    HW177268   4.790  12.278   5.362
91812SOL    HW277269   4.790  12.424   5.321
91813SOL     OW77270   7.256  12.940   0.489
91813SOL    HW177271   7.185  13.002   0.470
91813SOL    HW277272   7.306  12.934   0.408
91814SOL     OW77273  10.407  13.650  13.990
91814SOL    HW177274  10.340  13.590  14.022
91814SOL    HW277275  10.447  13.605  13.916
91815SOL     OW77276  10.678  12.066   3.205
91815SOL    HW177277  10.588  12.058   3.176
91815SOL    HW277278  10.678  12.034   3.295
91816SOL     OW77279  12.182  13.872   1.749
91816SOL    HW177280  12.208  13.781   1.735
91816SOL    HW277281  12.155  13.875   1.841
91817SOL     OW77282  12.739   2.690   0.892
91817SOL    HW177283  12.677   2.645   0.948
91817SOL    HW277284  12.693   2.768   0.862
91818SOL     OW77285   6.200   3.464  11.727
91818SOL    HW177286   6.168   3.541  11.682
91818SOL    HW277287   6.295   3.467  11.717
91819SOL     OW77288   1.059   9.209  10.105
91819SOL    HW177289   1.149   9.210  10.139
91819SOL    HW277290   1.008   9.165  10.172
91820SOL     OW77291  13.632   4.198   9.199
91820SOL    HW177292  13.555   4.216   9.253
91820SOL    HW277293  13.634   4.271   9.136
91821SOL     OW77294  11.809   5.897   4.056
91821SOL    HW177295  11.760   5.819   4.030
91821SOL    HW277296  11.751   5.944   4.116
91822SOL     OW77297   4.037   1.041   9.561
91822SOL    HW177298   4.009   1.122   9.518
91822SOL    HW277299   4.068   1.070   9.647
91823SOL     OW77300   3.608  12.290  10.469
91823SOL    HW177301   3.645  12.344  10.539
91823SOL    HW277302   3.537  12.343  10.433
91824SOL     OW77303  11.695   2.426   5.816
91824SOL    HW177304  11.749   2.463   5.886
91824SOL    HW277305  11.614   2.400   5.860
91825SOL     OW77306   8.703  12.854   4.404
91825SOL    HW177307   8.621  12.880   4.446
91825SOL    HW277308   8.754  12.813   4.475
91826SOL     OW77309  10.645   6.086  11.088
91826SOL    HW177310  10.592   6.065  11.011
91826SOL    HW277311  10.667   6.001  11.126
91827SOL     OW77312  14.230   8.294   6.313
91827SOL    HW177313  14.299   8.321   6.251
91827SOL    HW277314  14.166   8.248   6.259
91828SOL     OW77315  13.138  12.233  10.773
91828SOL    HW177316  13.174  12.148  10.747
91828SOL    HW277317  13.047  12.230  10.742
91829SOL     OW77318   5.030   1.375   5.324
91829SOL    HW177319   4.966   1.304   5.329
91829SOL    HW277320   5.010   1.430   5.400
91830SOL     OW77321   4.286  12.480  12.228
91830SOL    HW177322   4.243  12.405  12.270
91830SOL    HW277323   4.350  12.511  12.292
91831SOL     OW77324  14.163  14.790   6.014
91831SOL    HW177325  14.189  14.765   5.925
91831SOL    HW277326  14.206  14.874   6.029
91832SOL     OW77327   6.434   4.468   6.940
91832SOL    HW177328   6.458   4.516   7.020
91832SOL    HW277329   6.489   4.507   6.872
91833SOL     OW77330   2.305   7.989   7.123
91833SOL    HW177331   2.291   8.044   7.200
91833SOL    HW277332   2.390   7.948   7.137
91834SOL     OW77333   9.206   2.487   5.905
91834SOL    HW177334   9.290   2.476   5.861
91834SOL    HW277335   9.208   2.578   5.937
91835SOL     OW77336   0.337   2.968  11.297
91835SOL    HW177337   0.368   3.055  11.319
91835SOL    HW277338   0.289   2.939  11.375
91836SOL     OW77339  13.181   5.264   3.629
91836SOL    HW177340  13.103   5.269   3.575
91836SOL    HW277341  13.155   5.208   3.703
91837SOL     OW77342   2.910   4.111   7.575
91837SOL    HW177343   2.904   4.015   7.575
91837SOL    HW277344   2.823   4.140   7.548
91838SOL     OW77345  12.178  12.778   2.935
91838SOL    HW177346  12.137  12.691   2.939
91838SOL    HW277347  12.262  12.768   2.979
91839SOL     OW77348   5.207  13.571  10.605
91839SOL    HW177349   5.140  13.534  10.548
91839SOL    HW277350   5.160  13.632  10.661
91840SOL     OW77351  13.568   9.524   5.978
91840SOL    HW177352  13.574   9.469   5.899
91840SOL    HW277353  13.575   9.614   5.944
91841SOL     OW77354  14.441   0.753   1.084
91841SOL    HW177355  14.364   0.779   1.034
91841SOL    HW277356  14.420   0.666   1.118
91842SOL     OW77357  13.394   8.350   8.572
91842SOL    HW177358  13.488   8.366   8.562
91842SOL    HW277359  13.362   8.423   8.624
91843SOL     OW77360  12.463   5.988   6.156
91843SOL    HW177361  12.484   6.056   6.219
91843SOL    HW277362  12.535   5.991   6.092
91844SOL     OW77363  14.333   6.381   4.521
91844SOL    HW177364  14.305   6.468   4.552
91844SOL    HW277365  14.257   6.325   4.533
91845SOL     OW77366  11.055   3.815   5.689
91845SOL    HW177367  11.144   3.839   5.663
91845SOL    HW277368  11.041   3.730   5.648
91846SOL     OW77369  10.285  12.765  12.260
91846SOL    HW177370  10.226  12.764  12.335
91846SOL    HW277371  10.238  12.816  12.193
91847SOL     OW77372   4.302   7.204   5.724
91847SOL    HW177373   4.288   7.236   5.813
91847SOL    HW277374   4.256   7.267   5.669
91848SOL     OW77375   3.145   5.374   1.568
91848SOL    HW177376   3.101   5.302   1.524
91848SOL    HW277377   3.107   5.375   1.656
91849SOL     OW77378   7.729   9.034  10.941
91849SOL    HW177379   7.764   8.983  11.015
91849SOL    HW277380   7.650   8.986  10.915
91850SOL     OW77381  12.195   0.129   2.277
91850SOL    HW177382  12.230   0.074   2.347
91850SOL    HW277383  12.213   0.219   2.305
91851SOL     OW77384   7.589  11.272  10.824
91851SOL    HW177385   7.645  11.217  10.769
91851SOL    HW277386   7.513  11.291  10.769
91852SOL     OW77387   1.065   0.409  13.991
91852SOL    HW177388   1.160   0.402  13.977
91852SOL    HW277389   1.057   0.477  14.059
91853SOL     OW77390   5.458  11.501  11.729
91853SOL    HW177391   5.412  11.435  11.780
91853SOL    HW277392   5.535  11.457  11.695
91854SOL     OW77393  13.092  12.026   7.970
91854SOL    HW177394  13.129  11.938   7.958
91854SOL    HW277395  13.005  12.011   8.007
91855SOL     OW77396   0.797   8.757   4.258
91855SOL    HW177397   0.878   8.797   4.226
91855SOL    HW277398   0.728   8.817   4.229
91856SOL     OW77399   0.703   7.110   3.636
91856SOL    HW177400   0.639   7.145   3.574
91856SOL    HW277401   0.691   7.015   3.632
91857SOL     OW77402   3.614  11.936   9.491
91857SOL    HW177403   3.681  11.871   9.470
91857SOL    HW277404   3.624  11.951   9.585
91858SOL     OW77405   7.129   3.661  11.429
91858SOL    HW177406   7.151   3.598  11.361
91858SOL    HW277407   7.177   3.631  11.506
91859SOL     OW77408   5.254   3.681  11.474
91859SOL    HW177409   5.203   3.611  11.434
91859SOL    HW277410   5.221   3.761  11.435
91860SOL     OW77411   7.657  10.553   9.188
91860SOL    HW177412   7.677  10.496   9.113
91860SOL    HW277413   7.605  10.624   9.150
91861SOL     OW77414   2.828  13.526   2.228
91861SOL    HW177415   2.898  13.526   2.294
91861SOL    HW277416   2.871  13.494   2.149
91862SOL     OW77417  11.344   3.214   3.778
91862SOL    HW177418  11.291   3.287   3.746
91862SOL    HW277419  11.390   3.182   3.700
91863SOL     OW77420  11.301   8.755  14.338
91863SOL    HW177421  11.243   8.829  14.321
91863SOL    HW277422  11.311   8.711  14.254
91864SOL     OW77423   4.998  12.737   9.422
91864SOL    HW177424   5.088  12.738   9.389
91864SOL    HW277425   4.952  12.676   9.363
91865SOL     OW77426   5.980   2.245   3.016
91865SOL    HW177427   6.003   2.195   3.094
91865SOL    HW277428   6.031   2.204   2.945
91866SOL     OW77429  11.277   8.150  13.073
91866SOL    HW177430  11.271   8.246  13.075
91866SOL    HW277431  11.219   8.121  13.144
91867SOL     OW77432   6.626  13.133   1.928
91867SOL    HW177433   6.610  13.119   1.834
91867SOL    HW277434   6.539  13.152   1.964
91868SOL     OW77435   7.330  11.867   9.827
91868SOL    HW177436   7.359  11.833   9.742
91868SOL    HW277437   7.350  11.798   9.889
91869SOL     OW77438  13.560   5.225   0.232
91869SOL    HW177439  13.614   5.146   0.223
91869SOL    HW277440  13.586   5.262   0.316
91870SOL     OW77441  14.681  11.193  13.621
91870SOL    HW177442  14.640  11.112  13.651
91870SOL    HW277443  14.757  11.164  13.572
91871SOL     OW77444   0.910   6.628   7.710
91871SOL    HW177445   0.958   6.581   7.641
91871SOL    HW277446   0.901   6.564   7.781
91872SOL     OW77447  13.327   5.853   9.767
91872SOL    HW177448  13.401   5.859   9.827
91872SOL    HW277449  13.254   5.821   9.821
91873SOL     OW77450   9.610   1.661   5.745
91873SOL    HW177451   9.588   1.699   5.830
91873SOL    HW277452   9.525   1.647   5.703
91874SOL     OW77453   8.783   6.520   4.856
91874SOL    HW177454   8.863   6.472   4.880
91874SOL    HW277455   8.801   6.553   4.768
91875SOL     OW77456   4.097   1.888   6.414
91875SOL    HW177457   4.094   1.804   6.459
91875SOL    HW277458   4.158   1.941   6.464
91876SOL     OW77459  14.388   3.939   8.540
91876SOL    HW177460  14.450   3.945   8.468
91876SOL    HW277461  14.390   3.847   8.567
91877SOL     OW77462   1.211  13.801   1.359
91877SOL    HW177463   1.272  13.759   1.420
91877SOL    HW277464   1.124  13.774   1.390
91878SOL     OW77465   4.053  13.697   9.636
91878SOL    HW177466   4.093  13.729   9.716
91878SOL    HW277467   4.127  13.669   9.582
91879SOL     OW77468   5.377   9.700  12.477
91879SOL    HW177469   5.321   9.622  12.476
91879SOL    HW277470   5.319   9.770  12.508
91880SOL     OW77471   3.307   9.491   0.704
91880SOL    HW177472   3.289   9.584   0.694
91880SOL    HW277473   3.352   9.483   0.788
91881SOL     OW77474   5.167   1.486   4.536
91881SOL    HW177475   5.089   1.437   4.510
91881SOL    HW277476   5.139   1.540   4.609
91882SOL     OW77477  13.625   3.983   9.439
91882SOL    HW177478  13.622   4.006   9.346
91882SOL    HW277479  13.630   4.067   9.484
91883SOL     OW77480   4.941   2.921  12.233
91883SOL    HW177481   4.847   2.932  12.218
91883SOL    HW277482   4.965   2.994  12.291
91884SOL     OW77483   6.126   3.597  10.025
91884SOL    HW177484   6.137   3.523   9.966
91884SOL    HW277485   6.213   3.614  10.059
91885SOL     OW77486   9.809   1.771  12.788
91885SOL    HW177487   9.849   1.711  12.726
91885SOL    HW277488   9.805   1.722  12.870
91886SOL     OW77489  14.745   0.280  13.121
91886SOL    HW177490  14.834   0.310  13.102
91886SOL    HW277491  14.704   0.271  13.035
91887SOL     OW77492  13.363   1.659  10.392
91887SOL    HW177493  13.383   1.677  10.484
91887SOL    HW277494  13.345   1.745  10.354
91888SOL     OW77495  14.430   2.777   0.642
91888SOL    HW177496  14.444   2.727   0.723
91888SOL    HW277497  14.433   2.869   0.669
91889SOL     OW77498  13.861  13.634   9.478
91889SOL    HW177499  13.825  13.636   9.389
91889SOL    HW277500  13.831  13.715   9.518
91890SOL     OW77501  11.800   3.983   5.120
91890SOL    HW177502  11.874   4.027   5.078
91890SOL    HW277503  11.820   3.890   5.113
91891SOL     OW77504   7.791   9.958  13.265
91891SOL    HW177505   7.790  10.052  13.282
91891SOL    HW277506   7.853   9.922  13.328
91892SOL     OW77507   3.883   2.006   4.805
91892SOL    HW177508   3.833   1.977   4.882
91892SOL    HW277509   3.971   1.971   4.819
91893SOL     OW77510   3.453   5.336   6.045
91893SOL    HW177511   3.544   5.317   6.065
91893SOL    HW277512   3.428   5.269   5.981
91894SOL     OW77513   4.975  14.178   3.940
91894SOL    HW177514   5.020  14.168   4.023
91894SOL    HW277515   4.892  14.221   3.963
91895SOL     OW77516   8.463   6.179   4.753
91895SOL    HW177517   8.448   6.146   4.842
91895SOL    HW277518   8.488   6.101   4.703
91896SOL     OW77519  14.350   2.023   7.856
91896SOL    HW177520  14.260   2.025   7.823
91896SOL    HW277521  14.362   1.934   7.888
91897SOL     OW77522   4.472   9.555  14.558
91897SOL    HW177523   4.410   9.610  14.605
91897SOL    HW277524   4.446   9.465  14.580
91898SOL     OW77525   2.565   8.788   7.691
91898SOL    HW177526   2.509   8.831   7.627
91898SOL    HW277527   2.553   8.839   7.771
91899SOL     OW77528   9.221   8.375   2.202
91899SOL    HW177529   9.224   8.291   2.248
91899SOL    HW277530   9.261   8.437   2.263
91900SOL     OW77531  14.726  10.910   9.502
91900SOL    HW177532  14.672  10.864   9.437
91900SOL    HW277533  14.741  10.996   9.464
91901SOL     OW77534   2.338   4.981   7.951
91901SOL    HW177535   2.282   4.941   8.017
91901SOL    HW277536   2.307   5.071   7.945
91902SOL     OW77537  14.685   0.303  14.029
91902SOL    HW177538  14.692   0.245  14.105
91902SOL    HW277539  14.625   0.373  14.057
91903SOL     OW77540  13.246   0.154   1.394
91903SOL    HW177541  13.262   0.062   1.415
91903SOL    HW277542  13.223   0.154   1.301
91904SOL     OW77543   9.476   7.044   7.638
91904SOL    HW177544   9.404   7.057   7.699
91904SOL    HW277545   9.438   7.062   7.552
91905SOL     OW77546   1.017   9.637   3.452
91905SOL    HW177547   0.976   9.676   3.375
91905SOL    HW277548   1.109   9.664   3.447
91906SOL     OW77549   2.624  13.914   1.240
91906SOL    HW177550   2.540  13.914   1.287
91906SOL    HW277551   2.662  13.828   1.258
91907SOL     OW77552   1.391  12.595   8.308
91907SOL    HW177553   1.401  12.647   8.388
91907SOL    HW277554   1.479  12.562   8.289
91908SOL     OW77555   6.577   3.748   1.074
91908SOL    HW177556   6.488   3.730   1.045
91908SOL    HW277557   6.626   3.764   0.993
91909SOL     OW77558   9.770   3.148  13.638
91909SOL    HW177559   9.752   3.113  13.725
91909SOL    HW277560   9.865   3.156  13.634
91910SOL     OW77561   9.479   5.750  13.155
91910SOL    HW177562   9.417   5.783  13.090
91910SOL    HW277563   9.449   5.662  13.174
91911SOL     OW77564  13.970   1.191  14.326
91911SOL    HW177565  14.055   1.236  14.331
91911SOL    HW277566  13.977   1.134  14.249
91912SOL     OW77567   1.698   2.625  10.915
91912SOL    HW177568   1.644   2.701  10.891
91912SOL    HW277569   1.721   2.641  11.006
91913SOL     OW77570   6.796   5.690   5.881
91913SOL    HW177571   6.854   5.756   5.843
91913SOL    HW277572   6.729   5.741   5.926
91914SOL     OW77573  11.373   1.140   6.144
91914SOL    HW177574  11.372   1.222   6.095
91914SOL    HW277575  11.458   1.140   6.189
91915SOL     OW77576  12.280  12.129   4.168
91915SOL    HW177577  12.250  12.144   4.079
91915SOL    HW277578  12.231  12.052   4.198
91916SOL     OW77579  11.409   4.373   6.055
91916SOL    HW177580  11.343   4.376   5.985
91916SOL    HW277581  11.483   4.423   6.021
91917SOL     OW77582  14.656  13.169   9.135
91917SOL    HW177583  14.717  13.198   9.067
91917SOL    HW277584  14.611  13.094   9.096
91918SOL     OW77585   8.514  10.211   0.873
91918SOL    HW177586   8.559  10.279   0.924
91918SOL    HW277587   8.523  10.132   0.926
91919SOL     OW77588  10.871   2.504   2.804
91919SOL    HW177589  10.775   2.510   2.799
91919SOL    HW277590  10.902   2.570   2.741
91920SOL     OW77591   3.292  11.950   6.069
91920SOL    HW177592   3.302  11.908   5.984
91920SOL    HW277593   3.224  12.016   6.056
91921SOL     OW77594   2.671  12.855   1.604
91921SOL    HW177595   2.709  12.896   1.682
91921SOL    HW277596   2.724  12.776   1.590
91922SOL     OW77597   7.636  14.255  14.509
91922SOL    HW177598   7.703  14.204  14.555
91922SOL    HW277599   7.554  14.228  14.549
91923SOL     OW77600   6.563   4.261  10.775
91923SOL    HW177601   6.535   4.319  10.705
91923SOL    HW277602   6.482   4.223  10.809
91924SOL     OW77603  10.123   4.347   2.369
91924SOL    HW177604  10.180   4.308   2.302
91924SOL    HW277605  10.115   4.279   2.436
91925SOL     OW77606   4.179   0.663  13.468
91925SOL    HW177607   4.118   0.591  13.482
91925SOL    HW277608   4.205   0.654  13.376
91926SOL     OW77609  12.328   5.748   6.297
91926SOL    HW177610  12.374   5.810   6.240
91926SOL    HW277611  12.384   5.670   6.296
91927SOL     OW77612   5.002   2.066   8.253
91927SOL    HW177613   5.053   2.018   8.318
91927SOL    HW277614   4.984   2.002   8.184
91928SOL     OW77615  14.715   6.782  12.160
91928SOL    HW177616  14.678   6.843  12.224
91928SOL    HW277617  14.796   6.825  12.132
91929SOL     OW77618   3.309  14.570   6.118
91929SOL    HW177619   3.392  14.575   6.071
91929SOL    HW277620   3.278  14.481   6.104
91930SOL     OW77621   7.054   1.985  12.133
91930SOL    HW177622   7.048   1.979  12.038
91930SOL    HW277623   7.003   2.062  12.156
91931SOL     OW77624   4.913   5.032   5.540
91931SOL    HW177625   4.932   4.985   5.621
91931SOL    HW277626   4.820   5.017   5.524
91932SOL     OW77627   3.150  10.077   3.589
91932SOL    HW177628   3.146  10.156   3.643
91932SOL    HW277629   3.179  10.108   3.503
91933SOL     OW77630  10.645  10.032   2.075
91933SOL    HW177631  10.662   9.980   2.154
91933SOL    HW277632  10.596   9.974   2.018
91934SOL     OW77633   3.138   8.528   8.901
91934SOL    HW177634   3.081   8.592   8.859
91934SOL    HW277635   3.226   8.566   8.895
91935SOL     OW77636  11.692   6.139   1.409
91935SOL    HW177637  11.735   6.157   1.493
91935SOL    HW277638  11.666   6.226   1.376
91936SOL     OW77639   9.905   4.664   9.125
91936SOL    HW177640   9.809   4.671   9.126
91936SOL    HW277641   9.923   4.576   9.157
91937SOL     OW77642   4.757   9.039   1.430
91937SOL    HW177643   4.703   8.979   1.380
91937SOL    HW277644   4.705   9.118   1.438
91938SOL     OW77645   1.801  12.856  10.909
91938SOL    HW177646   1.849  12.838  10.990
91938SOL    HW277647   1.861  12.826  10.840
91939SOL     OW77648   1.246   4.028   9.930
91939SOL    HW177649   1.281   4.008  10.016
91939SOL    HW277650   1.323   4.036   9.874
91940SOL     OW77651  12.975  13.415  13.738
91940SOL    HW177652  12.912  13.391  13.806
91940SOL    HW277653  13.040  13.345  13.739
91941SOL     OW77654   7.270   3.732   5.191
91941SOL    HW177655   7.203   3.695   5.134
91941SOL    HW277656   7.257   3.826   5.188
91942SOL     OW77657  10.982   5.509  12.181
91942SOL    HW177658  11.075   5.500  12.202
91942SOL    HW277659  10.937   5.472  12.257
91943SOL     OW77660  13.045  13.854   7.809
91943SOL    HW177661  13.047  13.940   7.766
91943SOL    HW277662  13.121  13.808   7.775
91944SOL     OW77663   9.034   4.219   1.083
91944SOL    HW177664   8.995   4.289   1.031
91944SOL    HW277665   9.089   4.171   1.021
91945SOL     OW77666   7.057  13.818   6.244
91945SOL    HW177667   7.013  13.879   6.304
91945SOL    HW277668   7.119  13.771   6.299
91946SOL     OW77669   4.616   0.014   5.992
91946SOL    HW177670   4.649  14.858   6.076
91946SOL    HW277671   4.694   0.024   5.937
91947SOL     OW77672   5.673   7.357  13.038
91947SOL    HW177673   5.715   7.277  13.006
91947SOL    HW277674   5.614   7.383  12.967
91948SOL     OW77675   0.000  11.662  13.085
91948SOL    HW177676   0.020  11.723  13.156
91948SOL    HW277677  14.781  11.654  13.086
91949SOL     OW77678  11.648   5.688   3.973
91949SOL    HW177679  11.643   5.691   3.877
91949SOL    HW277680  11.594   5.613   3.997
91950SOL     OW77681   1.392   0.032   0.603
91950SOL    HW177682   1.444   0.001   0.529
91950SOL    HW277683   1.320  14.844   0.610
91951SOL     OW77684   4.881  10.674   3.248
91951SOL    HW177685   4.787  10.654   3.257
91951SOL    HW277686   4.902  10.650   3.158
91952SOL     OW77687   8.187   5.883   8.663
91952SOL    HW177688   8.164   5.830   8.739
91952SOL    HW277689   8.159   5.971   8.686
91953SOL     OW77690  14.630  14.050   7.560
91953SOL    HW177691  14.662  14.121   7.616
91953SOL    HW277692  14.535  14.055   7.567
91954SOL     OW77693   0.265  11.114   8.346
91954SOL    HW177694   0.260  11.099   8.252
91954SOL    HW277695   0.177  11.142   8.371
91955SOL     OW77696   3.331   5.532   7.196
91955SOL    HW177697   3.275   5.475   7.248
91955SOL    HW277698   3.409   5.479   7.177
91956SOL     OW77699   0.623  12.744   1.597
91956SOL    HW177700   0.656  12.697   1.521
91956SOL    HW277701   0.527  12.737   1.591
91957SOL     OW77702   1.422   5.858   8.663
91957SOL    HW177703   1.435   5.807   8.583
91957SOL    HW277704   1.402   5.793   8.730
91958SOL     OW77705   7.147   4.479   7.216
91958SOL    HW177706   7.118   4.499   7.127
91958SOL    HW277707   7.113   4.551   7.269
91959SOL     OW77708  10.074   1.517   2.385
91959SOL    HW177709  10.059   1.568   2.464
91959SOL    HW277710  10.153   1.553   2.346
91960SOL     OW77711   8.204   1.502   3.163
91960SOL    HW177712   8.259   1.522   3.238
91960SOL    HW277713   8.119   1.542   3.183
91961SOL     OW77714   9.447   1.375   9.740
91961SOL    HW177715   9.480   1.286   9.748
91961SOL    HW277716   9.524   1.427   9.717
91962SOL     OW77717   6.472   8.797   3.009
91962SOL    HW177718   6.534   8.754   3.068
91962SOL    HW277719   6.519   8.873   2.976
91963SOL     OW77720  13.279   0.918   3.449
91963SOL    HW177721  13.356   0.961   3.488
91963SOL    HW277722  13.207   0.977   3.467
91964SOL     OW77723   8.833   1.624   6.306
91964SOL    HW177724   8.918   1.649   6.268
91964SOL    HW277725   8.836   1.658   6.395
91965SOL     OW77726   0.850   7.608  11.640
91965SOL    HW177727   0.790   7.546  11.598
91965SOL    HW277728   0.865   7.570  11.727
91966SOL     OW77729   0.819  14.018   5.459
91966SOL    HW177730   0.793  13.947   5.518
91966SOL    HW277731   0.874  14.075   5.513
91967SOL     OW77732   3.036   9.225  13.383
91967SOL    HW177733   3.130   9.214  13.392
91967SOL    HW277734   3.023   9.258  13.295
91968SOL     OW77735  12.053   0.981  13.272
91968SOL    HW177736  11.994   1.050  13.241
91968SOL    HW277737  12.006   0.900  13.253
91969SOL     OW77738   1.146   8.410   4.650
91969SOL    HW177739   1.194   8.409   4.568
91969SOL    HW277740   1.210   8.440   4.715
91970SOL     OW77741   1.215   6.801  14.004
91970SOL    HW177742   1.201   6.708  13.987
91970SOL    HW277743   1.175   6.816  14.090
91971SOL     OW77744   3.306   5.341   6.702
91971SOL    HW177745   3.219   5.303   6.690
91971SOL    HW277746   3.299   5.394   6.781
91972SOL     OW77747   3.968   1.028   0.295
91972SOL    HW177748   4.053   0.998   0.263
91972SOL    HW277749   3.904   0.988   0.237
91973SOL     OW77750   0.142   6.054   9.667
91973SOL    HW177751   0.108   5.966   9.649
91973SOL    HW277752   0.147   6.096   9.581
91974SOL     OW77753  14.038  13.607  12.328
91974SOL    HW177754  14.105  13.544  12.301
91974SOL    HW277755  14.078  13.692  12.315
91975SOL     OW77756   6.149   3.149   7.457
91975SOL    HW177757   6.238   3.138   7.424
91975SOL    HW277758   6.155   3.217   7.523
91976SOL     OW77759   5.791   3.946  11.262
91976SOL    HW177760   5.788   4.034  11.224
91976SOL    HW277761   5.729   3.895  11.210
91977SOL     OW77762  13.303   6.762   0.953
91977SOL    HW177763  13.359   6.755   1.030
91977SOL    HW277764  13.247   6.838   0.971
91978SOL     OW77765   1.444   0.470  13.078
91978SOL    HW177766   1.418   0.379  13.063
91978SOL    HW277767   1.531   0.464  13.119
91979SOL     OW77768   1.669  12.089  13.781
91979SOL    HW177769   1.628  12.175  13.792
91979SOL    HW277770   1.738  12.103  13.716
91980SOL     OW77771   5.559  13.351   5.117
91980SOL    HW177772   5.466  13.333   5.109
91980SOL    HW277773   5.569  13.439   5.081
91981SOL     OW77774   5.885  10.485   4.220
91981SOL    HW177775   5.948  10.522   4.283
91981SOL    HW277776   5.799  10.502   4.259
91982SOL     OW77777   4.509  12.859   4.947
91982SOL    HW177778   4.457  12.815   5.014
91982SOL    HW277779   4.505  12.800   4.872
91983SOL     OW77780  14.323   3.087   4.730
91983SOL    HW177781  14.230   3.094   4.751
91983SOL    HW277782  14.331   3.005   4.681
91984SOL     OW77783   9.454   3.695  12.807
91984SOL    HW177784   9.421   3.711  12.896
91984SOL    HW277785   9.539   3.738  12.805
91985SOL     OW77786  14.481   0.062   9.694
91985SOL    HW177787  14.452   0.036   9.781
91985SOL    HW277788  14.401   0.091   9.650
91986SOL     OW77789   0.622   2.099   9.246
91986SOL    HW177790   0.530   2.105   9.271
91986SOL    HW277791   0.642   2.184   9.207
91987SOL     OW77792   9.239   9.260  13.198
91987SOL    HW177793   9.228   9.355  13.204
91987SOL    HW277794   9.278   9.235  13.282
91988SOL     OW77795   5.262  14.526   4.012
91988SOL    HW177796   5.329  14.579   4.056
91988SOL    HW277797   5.179  14.567   4.036
91989SOL     OW77798  11.332   5.889   5.718
91989SOL    HW177799  11.375   5.875   5.634
91989SOL    HW277800  11.239   5.883   5.698
91990SOL     OW77801   9.835   9.332  11.968
91990SOL    HW177802   9.805   9.276  11.896
91990SOL    HW277803   9.756   9.356  12.015
91991SOL     OW77804   6.257   5.646   6.521
91991SOL    HW177805   6.275   5.671   6.431
91991SOL    HW277806   6.343   5.635   6.561
91992SOL     OW77807  11.427  13.217   3.825
91992SOL    HW177808  11.378  13.179   3.753
91992SOL    HW277809  11.442  13.308   3.798
91993SOL     OW77810   9.969  13.262   3.509
91993SOL    HW177811   9.997  13.348   3.541
91993SOL    HW277812  10.046  13.206   3.520
91994SOL     OW77813  12.288   9.407   0.097
91994SOL    HW177814  12.253   9.318   0.102
91994SOL    HW277815  12.327   9.423   0.183
91995SOL     OW77816   1.914  12.624   4.659
91995SOL    HW177817   1.863  12.548   4.689
91995SOL    HW277818   1.854  12.698   4.668
91996SOL     OW77819  10.288   3.371   8.569
91996SOL    HW177820  10.339   3.387   8.490
91996SOL    HW277821  10.208   3.329   8.537
91997SOL     OW77822   9.629  12.270   5.318
91997SOL    HW177823   9.536  12.251   5.301
91997SOL    HW277824   9.641  12.361   5.289
91998SOL     OW77825   1.470  11.059   4.775
91998SOL    HW177826   1.433  11.123   4.715
91998SOL    HW277827   1.564  11.076   4.774
91999SOL     OW77828   6.853   8.513   6.908
91999SOL    HW177829   6.823   8.593   6.865
91999SOL    HW277830   6.773   8.466   6.930
92000SOL     OW77831   2.104   2.296  14.847
92000SOL    HW177832   2.168   2.366  14.835
92000SOL    HW277833   2.064   2.285  14.761
92001SOL     OW77834   1.253   7.061   1.941
92001SOL    HW177835   1.219   7.020   2.021
92001SOL    HW277836   1.312   6.995   1.904
92002SOL     OW77837   8.513  10.282   8.307
92002SOL    HW177838   8.453  10.322   8.370
92002SOL    HW277839   8.570  10.227   8.360
92003SOL     OW77840   3.775   8.678  14.844
92003SOL    HW177841   3.727   8.606   0.010
92003SOL    HW277842   3.793   8.738   0.040
92004SOL     OW77843   4.247   1.201   9.710
92004SOL    HW177844   4.243   1.297   9.703
92004SOL    HW277845   4.283   1.173   9.626
92005SOL     OW77846   6.520   3.448  13.229
92005SOL    HW177847   6.490   3.364  13.264
92005SOL    HW277848   6.578   3.424  13.156
92006SOL     OW77849   6.743   2.439   4.312
92006SOL    HW177850   6.835   2.417   4.298
92006SOL    HW277851   6.699   2.413   4.231
92007SOL     OW77852  13.757   2.607  10.065
92007SOL    HW177853  13.697   2.682  10.063
92007SOL    HW277854  13.818   2.626  10.136
92008SOL     OW77855   7.065   5.085   3.114
92008SOL    HW177856   7.108   5.052   3.193
92008SOL    HW277857   7.121   5.056   3.043
92009SOL     OW77858  10.674   4.021  10.252
92009SOL    HW177859  10.696   4.112  10.233
92009SOL    HW277860  10.707   3.972  10.176
92010SOL     OW77861  14.273   0.738  14.140
92010SOL    HW177862  14.217   0.797  14.192
92010SOL    HW277863  14.220   0.659  14.128
92011SOL     OW77864   8.670   6.105  10.027
92011SOL    HW177865   8.716   6.022  10.019
92011SOL    HW277866   8.578   6.082  10.041
92012SOL     OW77867   6.761   3.481   4.993
92012SOL    HW177868   6.757   3.511   4.902
92012SOL    HW277869   6.715   3.397   4.993
92013SOL     OW77870  12.098  13.378   0.929
92013SOL    HW177871  12.059  13.316   0.991
92013SOL    HW277872  12.144  13.322   0.866
92014SOL     OW77873   1.719   9.539   6.252
92014SOL    HW177874   1.625   9.550   6.267
92014SOL    HW277875   1.755   9.520   6.339
92015SOL     OW77876   9.675   4.762  11.292
92015SOL    HW177877   9.736   4.750  11.364
92015SOL    HW277878   9.588   4.754  11.332
92016SOL     OW77879   3.224   4.098  13.265
92016SOL    HW177880   3.239   4.136  13.178
92016SOL    HW277881   3.286   4.143  13.322
92017SOL     OW77882  10.616  14.527   6.120
92017SOL    HW177883  10.527  14.540   6.153
92017SOL    HW277884  10.618  14.436   6.092
92018SOL     OW77885   7.293   5.540   1.339
92018SOL    HW177886   7.228   5.555   1.408
92018SOL    HW277887   7.292   5.621   1.288
92019SOL     OW77888   9.115   0.385   2.575
92019SOL    HW177889   9.074   0.396   2.489
92019SOL    HW277890   9.118   0.474   2.611
92020SOL     OW77891   5.672  13.926   0.664
92020SOL    HW177892   5.718  13.943   0.746
92020SOL    HW277893   5.651  14.012   0.630
92021SOL     OW77894   7.971   9.108   7.841
92021SOL    HW177895   7.880   9.079   7.829
92021SOL    HW277896   7.972   9.197   7.808
92022SOL     OW77897   5.589   0.350  13.317
92022SOL    HW177898   5.511   0.371  13.265
92022SOL    HW277899   5.636   0.285  13.264
92023SOL     OW77900   8.461   2.087   9.522
92023SOL    HW177901   8.439   2.073   9.614
92023SOL    HW277902   8.377   2.083   9.476
92024SOL     OW77903   5.438   4.455   7.065
92024SOL    HW177904   5.496   4.409   7.125
92024SOL    HW277905   5.448   4.410   6.981
92025SOL     OW77906  11.977   2.292   2.858
92025SOL    HW177907  11.956   2.209   2.816
92025SOL    HW277908  12.073   2.298   2.855
92026SOL     OW77909   1.313   8.858   4.881
92026SOL    HW177910   1.260   8.780   4.863
92026SOL    HW277911   1.402   8.831   4.859
92027SOL     OW77912   0.002  12.350  10.282
92027SOL    HW177913   0.029  12.270  10.327
92027SOL    HW277914  14.835  12.320  10.202
92028SOL     OW77915   8.007   4.419   4.965
92028SOL    HW177916   7.958   4.343   4.932
92028SOL    HW277917   8.077   4.380   5.018
92029SOL     OW77918  12.176   2.306   4.252
92029SOL    HW177919  12.164   2.245   4.324
92029SOL    HW277920  12.167   2.392   4.292
92030SOL     OW77921  13.474   9.789   1.735
92030SOL    HW177922  13.544   9.727   1.753
92030SOL    HW277923  13.519   9.874   1.727
92031SOL     OW77924   2.432   7.351  14.081
92031SOL    HW177925   2.364   7.292  14.114
92031SOL    HW277926   2.422   7.430  14.133
92032SOL     OW77927   4.497  12.256   7.519
92032SOL    HW177928   4.549  12.197   7.573
92032SOL    HW277929   4.409  12.219   7.520
92033SOL     OW77930   2.532   0.192   3.051
92033SOL    HW177931   2.450   0.173   3.005
92033SOL    HW277932   2.596   0.207   2.981
92034SOL     OW77933   9.200   0.285   1.021
92034SOL    HW177934   9.120   0.252   1.061
92034SOL    HW277935   9.171   0.358   0.965
92035SOL     OW77936   7.978  13.289   7.074
92035SOL    HW177937   7.964  13.288   6.979
92035SOL    HW277938   7.907  13.235   7.109
92036SOL     OW77939   9.756   2.080  11.102
92036SOL    HW177940   9.762   2.029  11.183
92036SOL    HW277941   9.847   2.097  11.077
92037SOL     OW77942   3.818  14.379   0.536
92037SOL    HW177943   3.913  14.367   0.529
92037SOL    HW277944   3.803  14.468   0.504
92038SOL     OW77945   1.220   4.140   3.433
92038SOL    HW177946   1.276   4.208   3.395
92038SOL    HW277947   1.233   4.148   3.527
92039SOL     OW77948   6.835  10.288   4.959
92039SOL    HW177949   6.742  10.265   4.960
92039SOL    HW277950   6.858  10.290   4.866
92040SOL     OW77951   3.646   3.472   2.375
92040SOL    HW177952   3.710   3.443   2.310
92040SOL    HW277953   3.568   3.421   2.356
92041SOL     OW77954  14.261  10.249  10.529
92041SOL    HW177955  14.325  10.288  10.590
92041SOL    HW277956  14.177  10.262  10.572
92042SOL     OW77957   8.515   9.827  10.724
92042SOL    HW177958   8.525   9.748  10.778
92042SOL    HW277959   8.585   9.885  10.753
92043SOL     OW77960   4.084  14.693   0.091
92043SOL    HW177961   4.012  14.652   0.138
92043SOL    HW277962   4.144  14.622   0.069
92044SOL     OW77963   9.689  13.333  10.953
92044SOL    HW177964   9.648  13.291  10.878
92044SOL    HW277965   9.621  13.391  10.988
92045SOL     OW77966   6.120   2.538  10.894
92045SOL    HW177967   6.051   2.535  10.827
92045SOL    HW277968   6.170   2.617  10.873
92046SOL     OW77969   9.974   3.730  11.208
92046SOL    HW177970   9.920   3.769  11.139
92046SOL    HW277971   9.935   3.761  11.290
92047SOL     OW77972   2.660  10.757   3.164
92047SOL    HW177973   2.619  10.826   3.217
92047SOL    HW277974   2.658  10.680   3.220
92048SOL     OW77975  13.059   8.146  11.371
92048SOL    HW177976  13.031   8.111  11.456
92048SOL    HW277977  12.979   8.182  11.332
92049SOL     OW77978  10.678  13.389   5.100
92049SOL    HW177979  10.656  13.297   5.091
92049SOL    HW277980  10.657  13.410   5.191
92050SOL     OW77981   9.326   4.603   7.855
92050SOL    HW177982   9.386   4.529   7.853
92050SOL    HW277983   9.381   4.677   7.880
92051SOL     OW77984   9.654   8.443   9.844
92051SOL    HW177985   9.573   8.454   9.794
92051SOL    HW277986   9.717   8.408   9.781
92052SOL     OW77987   9.365   2.385   8.703
92052SOL    HW177988   9.291   2.327   8.681
92052SOL    HW277989   9.324   2.465   8.735
92053SOL     OW77990   0.080   8.801   6.744
92053SOL    HW177991   0.082   8.831   6.653
92053SOL    HW277992  14.874   8.835   6.779
92054SOL     OW77993   4.704   3.525   9.162
92054SOL    HW177994   4.766   3.569   9.104
92054SOL    HW277995   4.687   3.441   9.121
92055SOL     OW77996   9.069  12.292   4.119
92055SOL    HW177997   9.077  12.206   4.160
92055SOL    HW277998   8.974  12.308   4.115
92056SOL     OW77999  10.980  12.286   3.087
92056SOL    HW178000  11.068  12.269   3.121
92056SOL    HW278001  10.962  12.377   3.111
92057SOL     OW78002   2.831   7.350  11.899
92057SOL    HW178003   2.874   7.436  11.897
92057SOL    HW278004   2.797   7.338  11.810
92058SOL     OW78005   9.764  13.101   2.617
92058SOL    HW178006   9.801  13.026   2.570
92058SOL    HW278007   9.754  13.070   2.707
92059SOL     OW78008   9.169  11.007  11.142
92059SOL    HW178009   9.241  10.944  11.147
92059SOL    HW278010   9.190  11.072  11.209
92060SOL     OW78011   3.870   3.032   4.529
92060SOL    HW178012   3.817   2.964   4.486
92060SOL    HW278013   3.955   3.027   4.486
92061SOL     OW78014   3.568  11.473  13.762
92061SOL    HW178015   3.481  11.435  13.761
92061SOL    HW278016   3.554  11.567  13.750
92062SOL     OW78017  11.644   6.596  14.408
92062SOL    HW178018  11.670   6.639  14.489
92062SOL    HW278019  11.663   6.661  14.340
92063SOL     OW78020   0.682   1.477   9.731
92063SOL    HW178021   0.741   1.403   9.747
92063SOL    HW278022   0.732   1.537   9.676
92064SOL     OW78023   2.949   1.250   7.729
92064SOL    HW178024   2.917   1.251   7.819
92064SOL    HW278025   3.036   1.289   7.733
92065SOL     OW78026  13.376   6.372   1.316
92065SOL    HW178027  13.354   6.457   1.354
92065SOL    HW278028  13.291   6.332   1.296
92066SOL     OW78029  13.136   5.750  13.502
92066SOL    HW178030  13.145   5.655  13.514
92066SOL    HW278031  13.164   5.787  13.585
92067SOL     OW78032   9.520   9.478   3.182
92067SOL    HW178033   9.438   9.434   3.159
92067SOL    HW278034   9.522   9.555   3.126
92068SOL     OW78035   2.428   4.861  12.338
92068SOL    HW178036   2.459   4.783  12.294
92068SOL    HW278037   2.464   4.856  12.426
92069SOL     OW78038   4.784   3.537   4.278
92069SOL    HW178039   4.690   3.533   4.297
92069SOL    HW278040   4.799   3.627   4.248
92070SOL     OW78041   4.337   7.523  10.824
92070SOL    HW178042   4.429   7.530  10.797
92070SOL    HW278043   4.291   7.496  10.745
92071SOL     OW78044   7.531   8.505   0.924
92071SOL    HW178045   7.617   8.466   0.910
92071SOL    HW278046   7.534   8.587   0.876
92072SOL     OW78047   6.606   6.806  10.893
92072SOL    HW178048   6.615   6.837  10.983
92072SOL    HW278049   6.548   6.731  10.899
92073SOL     OW78050   3.302   1.667   5.857
92073SOL    HW178051   3.369   1.710   5.804
92073SOL    HW278052   3.237   1.736   5.874
92074SOL     OW78053   8.821   9.165   9.334
92074SOL    HW178054   8.845   9.171   9.241
92074SOL    HW278055   8.847   9.250   9.371
92075SOL     OW78056  11.508   5.777   7.136
92075SOL    HW178057  11.445   5.825   7.190
92075SOL    HW278058  11.455   5.711   7.091
92076SOL     OW78059   9.833  11.805  11.414
92076SOL    HW178060   9.754  11.820  11.466
92076SOL    HW278061   9.890  11.754  11.472
92077SOL     OW78062  11.643   4.257   7.389
92077SOL    HW178063  11.601   4.330   7.343
92077SOL    HW278064  11.713   4.229   7.330
92078SOL     OW78065   0.834  10.842   7.909
92078SOL    HW178066   0.773  10.783   7.953
92078SOL    HW278067   0.918  10.825   7.951
92079SOL     OW78068   2.443   6.525  10.540
92079SOL    HW178069   2.450   6.606  10.591
92079SOL    HW278070   2.527   6.518  10.494
92080SOL     OW78071   4.262   2.935   2.535
92080SOL    HW178072   4.185   2.881   2.519
92080SOL    HW278073   4.271   2.988   2.456
92081SOL     OW78074  13.449   6.150   1.771
92081SOL    HW178075  13.391   6.139   1.846
92081SOL    HW278076  13.462   6.244   1.764
92082SOL     OW78077   9.585   1.254  12.465
92082SOL    HW178078   9.641   1.302  12.403
92082SOL    HW278079   9.518   1.213  12.411
92083SOL     OW78080   3.493   0.643  14.405
92083SOL    HW178081   3.458   0.653  14.493
92083SOL    HW278082   3.587   0.656  14.415
92084SOL     OW78083   3.918  14.469  11.440
92084SOL    HW178084   4.000  14.483  11.487
92084SOL    HW278085   3.941  14.483  11.348
92085SOL     OW78086   7.207   6.936   8.997
92085SOL    HW178087   7.285   6.986   8.972
92085SOL    HW278088   7.234   6.886   9.074
92086SOL     OW78089   1.338   7.691   6.597
92086SOL    HW178090   1.382   7.690   6.512
92086SOL    HW278091   1.354   7.779   6.632
92087SOL     OW78092   4.043   9.826  10.368
92087SOL    HW178093   4.031   9.732  10.357
92087SOL    HW278094   4.116   9.834  10.429
92088SOL     OW78095   3.450   7.684  13.724
92088SOL    HW178096   3.478   7.719  13.639
92088SOL    HW278097   3.481   7.748  13.788
92089SOL     OW78098  11.702  13.700   5.548
92089SOL    HW178099  11.777  13.643   5.567
92089SOL    HW278100  11.733  13.788   5.568
92090SOL     OW78101  10.604  10.362   9.807
92090SOL    HW178102  10.562  10.428   9.752
92090SOL    HW278103  10.532  10.313   9.847
92091SOL     OW78104  10.028   5.795   7.783
92091SOL    HW178105   9.981   5.717   7.812
92091SOL    HW278106  10.072   5.827   7.862
92092SOL     OW78107   7.703   3.645   4.401
92092SOL    HW178108   7.755   3.621   4.324
92092SOL    HW278109   7.767   3.657   4.470
92093SOL     OW78110  10.535   9.763   7.449
92093SOL    HW178111  10.585   9.820   7.391
92093SOL    HW278112  10.600   9.725   7.508
92094SOL     OW78113   4.016   8.307  13.284
92094SOL    HW178114   4.100   8.338  13.250
92094SOL    HW278115   4.017   8.213  13.269
92095SOL     OW78116   3.427   7.895   7.407
92095SOL    HW178117   3.434   7.937   7.321
92095SOL    HW278118   3.397   7.965   7.465
92096SOL     OW78119   4.153   5.099  11.295
92096SOL    HW178120   4.147   5.068  11.204
92096SOL    HW278121   4.221   5.044  11.335
92097SOL     OW78122   2.985   3.031   3.605
92097SOL    HW178123   2.915   3.097   3.600
92097SOL    HW278124   3.026   3.033   3.518
92098SOL     OW78125  14.521  13.710  12.600
92098SOL    HW178126  14.546  13.789  12.647
92098SOL    HW278127  14.604  13.676  12.566
92099SOL     OW78128   0.654   8.948   2.228
92099SOL    HW178129   0.653   8.978   2.137
92099SOL    HW278130   0.582   8.996   2.270
92100SOL     OW78131  11.268  14.631   4.909
92100SOL    HW178132  11.246  14.581   4.987
92100SOL    HW278133  11.357  14.602   4.886
92101SOL     OW78134   6.493   9.638   4.372
92101SOL    HW178135   6.473   9.545   4.368
92101SOL    HW278136   6.417   9.678   4.414
92102SOL     OW78137   0.855   2.666   9.337
92102SOL    HW178138   0.934   2.670   9.390
92102SOL    HW278139   0.852   2.575   9.305
92103SOL     OW78140   4.601   8.319  13.153
92103SOL    HW178141   4.681   8.302  13.103
92103SOL    HW278142   4.613   8.270  13.234
92104SOL     OW78143   9.647   3.025   5.717
92104SOL    HW178144   9.628   2.931   5.720
92104SOL    HW278145   9.607   3.060   5.797
92105SOL     OW78146   3.833   6.082  14.758
92105SOL    HW178147   3.856   5.996  14.792
92105SOL    HW278148   3.864   6.081  14.667
92106SOL     OW78149   2.710  10.419  10.665
92106SOL    HW178150   2.718  10.325  10.680
92106SOL    HW278151   2.622  10.440  10.695
92107SOL     OW78152   5.895  11.772  11.112
92107SOL    HW178153   5.866  11.742  11.026
92107SOL    HW278154   5.976  11.724  11.128
92108SOL     OW78155  14.803  10.611   7.447
92108SOL    HW178156  14.792  10.522   7.414
92108SOL    HW278157   0.005  10.644   7.401
92109SOL     OW78158   0.499  13.701   8.836
92109SOL    HW178159   0.532  13.612   8.818
92109SOL    HW278160   0.407  13.698   8.810
92110SOL     OW78161   6.434   8.355  13.150
92110SOL    HW178162   6.390   8.370  13.233
92110SOL    HW278163   6.519   8.319  13.174
92111SOL     OW78164  12.784   2.275  11.919
92111SOL    HW178165  12.734   2.328  11.981
92111SOL    HW278166  12.853   2.234  11.972
92112SOL     OW78167   3.073   8.124   4.049
92112SOL    HW178168   3.017   8.202   4.045
92112SOL    HW278169   3.133   8.134   3.976
92113SOL     OW78170   6.328  10.074   9.460
92113SOL    HW178171   6.266  10.103   9.527
92113SOL    HW278172   6.284  10.094   9.377
92114SOL     OW78173  14.813  10.477   7.695
92114SOL    HW178174  14.719  10.479   7.714
92114SOL    HW278175  14.822  10.524   7.612
92115SOL     OW78176  13.069   3.927   2.488
92115SOL    HW178177  12.987   3.964   2.453
92115SOL    HW278178  13.104   3.874   2.417
92116SOL     OW78179   3.459   8.135   3.156
92116SOL    HW178180   3.431   8.226   3.168
92116SOL    HW278181   3.483   8.106   3.243
92117SOL     OW78182  10.128  14.485   1.545
92117SOL    HW178183  10.181  14.451   1.472
92117SOL    HW278184  10.190  14.533   1.600
92118SOL     OW78185  11.005  10.227   9.005
92118SOL    HW178186  11.004  10.216   9.100
92118SOL    HW278187  11.049  10.148   8.973
92119SOL     OW78188   0.618   8.762   3.332
92119SOL    HW178189   0.710   8.737   3.332
92119SOL    HW278190   0.606   8.811   3.251
92120SOL     OW78191   6.440  10.787   3.880
92120SOL    HW178192   6.525  10.824   3.853
92120SOL    HW278193   6.430  10.817   3.971
92121SOL     OW78194   8.133   9.290   5.701
92121SOL    HW178195   8.127   9.377   5.661
92121SOL    HW278196   8.186   9.239   5.640
92122SOL     OW78197  11.892   8.891   5.540
92122SOL    HW178198  11.836   8.914   5.466
92122SOL    HW278199  11.978   8.878   5.502
92123SOL     OW78200   7.109  10.486   7.026
92123SOL    HW178201   7.113  10.426   6.952
92123SOL    HW278202   7.048  10.444   7.087
92124SOL     OW78203   7.922   6.750   6.616
92124SOL    HW178204   7.858   6.730   6.549
92124SOL    HW278205   7.966   6.829   6.585
92125SOL     OW78206  14.157   6.601   7.494
92125SOL    HW178207  14.252   6.606   7.488
92125SOL    HW278208  14.141   6.548   7.572
92126SOL     OW78209  10.822   5.817   0.434
92126SOL    HW178210  10.907   5.777   0.454
92126SOL    HW278211  10.785   5.763   0.365
92127SOL     OW78212   9.582   2.342   9.065
92127SOL    HW178213   9.634   2.355   8.986
92127SOL    HW278214   9.577   2.247   9.076
92128SOL     OW78215   6.214   1.850  12.210
92128SOL    HW178216   6.131   1.829  12.252
92128SOL    HW278217   6.238   1.936  12.244
92129SOL     OW78218   3.685  12.119   8.781
92129SOL    HW178219   3.693  12.032   8.742
92129SOL    HW278220   3.638  12.104   8.863
92130SOL     OW78221   2.937   9.187  13.797
92130SOL    HW178222   2.959   9.121  13.732
92130SOL    HW278223   2.853   9.222  13.768
92131SOL     OW78224   6.849   4.751   4.761
92131SOL    HW178225   6.876   4.796   4.842
92131SOL    HW278226   6.927   4.752   4.706
92132SOL     OW78227  12.410   2.250   9.333
92132SOL    HW178228  12.495   2.282   9.303
92132SOL    HW278229  12.346   2.296   9.279
92133SOL     OW78230  10.110   0.986   0.417
92133SOL    HW178231  10.132   1.028   0.334
92133SOL    HW278232  10.039   1.038   0.453
92134SOL     OW78233   1.838   5.153  10.542
92134SOL    HW178234   1.746   5.163  10.564
92134SOL    HW278235   1.839   5.093  10.468
92135SOL     OW78236   5.569   4.692   9.307
92135SOL    HW178237   5.654   4.649   9.306
92135SOL    HW278238   5.586   4.779   9.269
92136SOL     OW78239   3.144  12.203   4.312
92136SOL    HW178240   3.207  12.237   4.377
92136SOL    HW278241   3.175  12.115   4.292
92137SOL     OW78242   7.563   4.129   6.971
92137SOL    HW178243   7.490   4.121   6.909
92137SOL    HW278244   7.549   4.214   7.013
92138SOL     OW78245   1.428  11.135   0.977
92138SOL    HW178246   1.419  11.229   0.992
92138SOL    HW278247   1.512  11.125   0.932
92139SOL     OW78248  10.333   7.471  11.262
92139SOL    HW178249  10.351   7.557  11.224
92139SOL    HW278250  10.374   7.474  11.348
92140SOL     OW78251   8.788   0.970   7.187
92140SOL    HW178252   8.798   1.015   7.271
92140SOL    HW278253   8.696   0.984   7.163
92141SOL     OW78254   0.598   9.480   8.373
92141SOL    HW178255   0.521   9.474   8.316
92141SOL    HW278256   0.563   9.511   8.457
92142SOL     OW78257   1.108  10.655  14.831
92142SOL    HW178258   1.087  10.725  14.769
92142SOL    HW278259   1.161  10.593  14.780
92143SOL     OW78260   1.579   3.389  10.981
92143SOL    HW178261   1.544   3.477  10.962
92143SOL    HW278262   1.534   3.332  10.919
92144SOL     OW78263   4.761   5.663   8.948
92144SOL    HW178264   4.779   5.590   8.890
92144SOL    HW278265   4.814   5.735   8.914
92145SOL     OW78266  14.013   3.677  12.389
92145SOL    HW178267  14.027   3.582  12.383
92145SOL    HW278268  13.927   3.691  12.351
92146SOL     OW78269  11.041   9.214   1.938
92146SOL    HW178270  11.097   9.149   1.980
92146SOL    HW278271  10.956   9.169   1.928
92147SOL     OW78272   1.549  11.455   3.197
92147SOL    HW178273   1.627  11.500   3.166
92147SOL    HW278274   1.478  11.519   3.188
92148SOL     OW78275  11.181  14.843  12.868
92148SOL    HW178276  11.273  14.832  12.845
92148SOL    HW278277  11.152   0.044  12.819
92149SOL     OW78278  14.150   3.804   9.459
92149SOL    HW178279  14.127   3.712   9.445
92149SOL    HW278280  14.088   3.853   9.406
92150SOL     OW78281  13.458   9.206  13.081
92150SOL    HW178282  13.431   9.163  12.999
92150SOL    HW278283  13.513   9.142  13.125
92151SOL     OW78284   8.064   4.883   4.162
92151SOL    HW178285   8.026   4.861   4.077
92151SOL    HW278286   8.141   4.935   4.142
92152SOL     OW78287   5.425   9.773   5.414
92152SOL    HW178288   5.518   9.759   5.395
92152SOL    HW278289   5.405   9.709   5.482
92153SOL     OW78290   3.373   6.208  11.981
92153SOL    HW178291   3.449   6.264  11.968
92153SOL    HW278292   3.354   6.213  12.075
92154SOL     OW78293   9.858   6.142  13.253
92154SOL    HW178294   9.952   6.160  13.248
92154SOL    HW278295   9.838   6.096  13.171
92155SOL     OW78296   9.825  11.178   0.367
92155SOL    HW178297   9.817  11.167   0.272
92155SOL    HW278298   9.898  11.121   0.392
92156SOL     OW78299   8.810   4.967  12.507
92156SOL    HW178300   8.876   4.921  12.456
92156SOL    HW278301   8.844   5.056  12.516
92157SOL     OW78302   1.688   1.031   1.280
92157SOL    HW178303   1.707   1.017   1.373
92157SOL    HW278304   1.608   1.082   1.278
92158SOL     OW78305  10.419   4.796   6.596
92158SOL    HW178306  10.368   4.717   6.615
92158SOL    HW278307  10.354   4.858   6.561
92159SOL     OW78308   4.949   2.692   4.365
92159SOL    HW178309   4.947   2.691   4.269
92159SOL    HW278310   4.910   2.777   4.388
92160SOL     OW78311   4.785   6.036   0.286
92160SOL    HW178312   4.844   5.964   0.262
92160SOL    HW278313   4.778   6.088   0.206
92161SOL     OW78314   7.309  14.044   3.248
92161SOL    HW178315   7.266  14.005   3.324
92161SOL    HW278316   7.274  13.997   3.173
92162SOL     OW78317  14.183   9.233   8.531
92162SOL    HW178318  14.228   9.314   8.555
92162SOL    HW278319  14.094   9.245   8.563
92163SOL     OW78320   8.751   7.291   4.401
92163SOL    HW178321   8.753   7.378   4.362
92163SOL    HW278322   8.661   7.282   4.434
92164SOL     OW78323   9.038   3.450   8.856
92164SOL    HW178324   8.981   3.384   8.815
92164SOL    HW278325   9.127   3.418   8.841
92165SOL     OW78326  12.955   0.676  12.762
92165SOL    HW178327  12.919   0.590  12.742
92165SOL    HW278328  12.909   0.735  12.702
92166SOL     OW78329   8.899   7.448  11.426
92166SOL    HW178330   8.867   7.531  11.391
92166SOL    HW278331   8.931   7.470  11.514
92167SOL     OW78332   6.573   0.505  11.432
92167SOL    HW178333   6.555   0.498  11.525
92167SOL    HW278334   6.655   0.457  11.419
92168SOL     OW78335  12.655   5.290   1.022
92168SOL    HW178336  12.588   5.295   0.954
92168SOL    HW278337  12.644   5.370   1.074
92169SOL     OW78338   3.318  12.847   3.126
92169SOL    HW178339   3.287  12.893   3.204
92169SOL    HW278340   3.263  12.770   3.119
92170SOL     OW78341   9.324   7.484  12.822
92170SOL    HW178342   9.377   7.446  12.752
92170SOL    HW278343   9.387   7.533  12.876
92171SOL     OW78344  13.877   4.829  11.837
92171SOL    HW178345  13.808   4.881  11.877
92171SOL    HW278346  13.841   4.741  11.831
92172SOL     OW78347  12.501  13.039   9.954
92172SOL    HW178348  12.536  13.117   9.996
92172SOL    HW278349  12.408  13.039   9.975
92173SOL     OW78350   3.269  11.815   1.360
92173SOL    HW178351   3.350  11.781   1.397
92173SOL    HW278352   3.297  11.884   1.300
92174SOL     OW78353   1.725   4.058   9.961
92174SOL    HW178354   1.705   4.108   9.882
92174SOL    HW278355   1.763   3.976   9.929
92175SOL     OW78356   3.968  14.741  14.279
92175SOL    HW178357   4.004  14.811  14.224
92175SOL    HW278358   3.971  14.663  14.224
92176SOL     OW78359  13.055   8.272   9.137
92176SOL    HW178360  13.059   8.250   9.230
92176SOL    HW278361  13.019   8.360   9.135
92177SOL     OW78362   8.334   9.965   1.962
92177SOL    HW178363   8.373  10.040   1.919
92177SOL    HW278364   8.360   9.973   2.054
92178SOL     OW78365  13.874  13.361  11.519
92178SOL    HW178366  13.919  13.293  11.569
92178SOL    HW278367  13.879  13.439  11.575
92179SOL     OW78368   6.759   8.083   9.889
92179SOL    HW178369   6.756   8.018   9.960
92179SOL    HW278370   6.842   8.129   9.904
92180SOL     OW78371   6.244   6.416   5.262
92180SOL    HW178372   6.162   6.449   5.226
92180SOL    HW278373   6.312   6.468   5.219
92181SOL     OW78374   7.181   0.217   1.961
92181SOL    HW178375   7.246   0.251   2.022
92181SOL    HW278376   7.103   0.201   2.015
92182SOL     OW78377  10.660   9.890   2.346
92182SOL    HW178378  10.605   9.823   2.387
92182SOL    HW278379  10.672   9.956   2.414
92183SOL     OW78380  14.309  10.382  14.751
92183SOL    HW178381  14.399  10.358  14.729
92183SOL    HW278382  14.278  10.310  14.806
92184SOL     OW78383  13.065   6.526   8.770
92184SOL    HW178384  13.120   6.451   8.749
92184SOL    HW278385  12.979   6.488   8.791
92185SOL     OW78386   7.076   2.111   8.318
92185SOL    HW178387   7.030   2.129   8.236
92185SOL    HW278388   7.009   2.124   8.386
92186SOL     OW78389  14.401  10.697   6.914
92186SOL    HW178390  14.387  10.709   6.820
92186SOL    HW278391  14.313  10.690   6.951
92187SOL     OW78392  13.787   3.744   5.459
92187SOL    HW178393  13.698   3.741   5.424
92187SOL    HW278394  13.807   3.653   5.483
92188SOL     OW78395  11.575   7.153   2.541
92188SOL    HW178396  11.572   7.209   2.618
92188SOL    HW278397  11.539   7.208   2.470
92189SOL     OW78398   2.930   6.599   1.558
92189SOL    HW178399   2.874   6.551   1.496
92189SOL    HW278400   3.019   6.571   1.537
92190SOL     OW78401  13.060   2.858   9.910
92190SOL    HW178402  13.125   2.904   9.858
92190SOL    HW278403  13.003   2.817   9.845
92191SOL     OW78404   3.564   7.877   8.597
92191SOL    HW178405   3.612   7.879   8.514
92191SOL    HW278406   3.601   7.948   8.649
92192SOL     OW78407  10.493   2.756   6.253
92192SOL    HW178408  10.478   2.775   6.161
92192SOL    HW278409  10.581   2.718   6.257
92193SOL     OW78410  10.304   2.511   4.199
92193SOL    HW178411  10.357   2.476   4.270
92193SOL    HW278412  10.286   2.435   4.143
92194SOL     OW78413  13.822   2.458   1.667
92194SOL    HW178414  13.840   2.429   1.578
92194SOL    HW278415  13.881   2.532   1.680
92195SOL     OW78416   2.909   3.933   5.921
92195SOL    HW178417   2.854   3.914   5.844
92195SOL    HW278418   2.880   4.019   5.950
92196SOL     OW78419   9.312   5.074   3.749
92196SOL    HW178420   9.330   5.093   3.841
92196SOL    HW278421   9.290   5.159   3.711
92197SOL     OW78422  10.150   8.504   7.913
92197SOL    HW178423  10.185   8.421   7.943
92197SOL    HW278424  10.057   8.489   7.903
92198SOL     OW78425  10.898  10.492  12.587
92198SOL    HW178426  10.985  10.457  12.566
92198SOL    HW278427  10.914  10.585  12.603
92199SOL     OW78428   1.233   3.281   6.899
92199SOL    HW178429   1.239   3.372   6.870
92199SOL    HW278430   1.208   3.287   6.991
92200SOL     OW78431   1.503   7.792  12.206
92200SOL    HW178432   1.587   7.825  12.236
92200SOL    HW278433   1.521   7.752  12.121
92201SOL     OW78434   2.318  12.604   5.574
92201SOL    HW178435   2.237  12.623   5.527
92201SOL    HW278436   2.378  12.673   5.548
92202SOL     OW78437   8.834   3.510   1.143
92202SOL    HW178438   8.873   3.423   1.137
92202SOL    HW278439   8.908   3.570   1.133
92203SOL     OW78440   8.282  13.229   3.499
92203SOL    HW178441   8.215  13.178   3.546
92203SOL    HW278442   8.251  13.319   3.503
92204SOL     OW78443   6.358  11.408  14.587
92204SOL    HW178444   6.369  11.498  14.559
92204SOL    HW278445   6.386  11.356  14.511
92205SOL     OW78446   6.863   8.016  12.260
92205SOL    HW178447   6.945   7.980  12.293
92205SOL    HW278448   6.805   7.941  12.253
92206SOL     OW78449  11.568   5.860  14.673
92206SOL    HW178450  11.559   5.879  14.766
92206SOL    HW278451  11.576   5.765  14.668
92207SOL     OW78452  13.216   1.674   7.522
92207SOL    HW178453  13.207   1.754   7.573
92207SOL    HW278454  13.155   1.686   7.448
92208SOL     OW78455   9.293  12.262   3.023
92208SOL    HW178456   9.215  12.315   3.038
92208SOL    HW278457   9.298  12.253   2.928
92209SOL     OW78458  14.830   1.698   4.584
92209SOL    HW178459   0.019   1.693   4.513
92209SOL    HW278460  14.872   1.752   4.651
92210SOL     OW78461   9.482  10.590   6.838
92210SOL    HW178462   9.390  10.612   6.851
92210SOL    HW278463   9.507  10.541   6.916
92211SOL     OW78464   2.680   8.627  10.445
92211SOL    HW178465   2.688   8.717  10.477
92211SOL    HW278466   2.770   8.602  10.423
92212SOL     OW78467   0.709  14.444   1.417
92212SOL    HW178468   0.717  14.497   1.337
92212SOL    HW278469   0.667  14.363   1.388
92213SOL     OW78470   6.208   6.359   6.300
92213SOL    HW178471   6.249   6.445   6.285
92213SOL    HW278472   6.257   6.322   6.373
92214SOL     OW78473  11.072   4.560   9.612
92214SOL    HW178474  11.032   4.505   9.680
92214SOL    HW278475  11.164   4.535   9.612
92215SOL     OW78476   9.928   1.018   1.575
92215SOL    HW178477   9.864   1.045   1.510
92215SOL    HW278478   9.981   1.097   1.590
92216SOL     OW78479   7.960   0.343   6.637
92216SOL    HW178480   8.032   0.378   6.690
92216SOL    HW278481   7.883   0.351   6.693
92217SOL     OW78482  11.439  10.739  14.186
92217SOL    HW178483  11.432  10.720  14.280
92217SOL    HW278484  11.421  10.833  14.179
92218SOL     OW78485   8.616  12.706   0.296
92218SOL    HW178486   8.583  12.683   0.383
92218SOL    HW278487   8.594  12.798   0.286
92219SOL     OW78488   2.459   6.257   0.792
92219SOL    HW178489   2.551   6.231   0.786
92219SOL    HW278490   2.435   6.279   0.702
92220SOL     OW78491  13.128  14.325   7.444
92220SOL    HW178492  13.178  14.323   7.362
92220SOL    HW278493  13.044  14.286   7.423
92221SOL     OW78494   8.343   1.353   4.699
92221SOL    HW178495   8.396   1.432   4.713
92221SOL    HW278496   8.385   1.286   4.754
92222SOL     OW78497  10.691   6.556  12.810
92222SOL    HW178498  10.651   6.477  12.773
92222SOL    HW278499  10.626   6.625  12.797
92223SOL     OW78500   1.950  11.147   7.532
92223SOL    HW178501   1.916  11.233   7.509
92223SOL    HW278502   1.980  11.109   7.449
92224SOL     OW78503  13.120  13.293  12.011
92224SOL    HW178504  13.189  13.231  11.986
92224SOL    HW278505  13.145  13.322  12.099
92225SOL     OW78506   0.941   7.883   8.177
92225SOL    HW178507   0.922   7.792   8.155
92225SOL    HW278508   0.862   7.931   8.150
92226SOL     OW78509  13.092   9.275  11.386
92226SOL    HW178510  13.153   9.218  11.431
92226SOL    HW278511  13.124   9.279  11.296
92227SOL     OW78512  14.564  10.878   4.821
92227SOL    HW178513  14.531  10.788   4.811
92227SOL    HW278514  14.488  10.928   4.850
92228SOL     OW78515  14.197   7.043   9.840
92228SOL    HW178516  14.283   7.047   9.882
92228SOL    HW278517  14.183   7.131   9.806
92229SOL     OW78518  12.591   4.876   2.894
92229SOL    HW178519  12.528   4.863   2.965
92229SOL    HW278520  12.615   4.969   2.900
92230SOL     OW78521  14.632   0.557   7.202
92230SOL    HW178522  14.673   0.570   7.117
92230SOL    HW278523  14.642   0.640   7.247
92231SOL     OW78524   9.633   0.447   3.662
92231SOL    HW178525   9.589   0.465   3.745
92231SOL    HW278526   9.718   0.409   3.687
92232SOL     OW78527   8.273  14.040   0.591
92232SOL    HW178528   8.278  14.068   0.500
92232SOL    HW278529   8.255  14.120   0.641
92233SOL     OW78530   6.060  12.586  14.684
92233SOL    HW178531   6.155  12.580  14.674
92233SOL    HW278532   6.046  12.579  14.779
92234SOL     OW78533   9.863  13.340   2.907
92234SOL    HW178534   9.932  13.329   2.971
92234SOL    HW278535   9.908  13.338   2.822
92235SOL     OW78536   4.908  14.531   0.743
92235SOL    HW178537   4.920  14.472   0.817
92235SOL    HW278538   4.944  14.614   0.772
92236SOL     OW78539   6.616   0.818  11.930
92236SOL    HW178540   6.704   0.798  11.961
92236SOL    HW278541   6.566   0.738  11.949
92237SOL     OW78542   6.132   7.257   3.672
92237SOL    HW178543   6.170   7.261   3.584
92237SOL    HW278544   6.207   7.246   3.730
92238SOL     OW78545   5.248   5.621   1.469
92238SOL    HW178546   5.302   5.694   1.438
92238SOL    HW278547   5.209   5.654   1.550
92239SOL     OW78548   0.052  11.612   7.318
92239SOL    HW178549   0.022  11.522   7.318
92239SOL    HW278550   0.123  11.614   7.382
92240SOL     OW78551   6.655   6.857   3.730
92240SOL    HW178552   6.567   6.822   3.745
92240SOL    HW278553   6.647   6.950   3.750
92241SOL     OW78554   7.796   1.169  10.305
92241SOL    HW178555   7.855   1.178  10.230
92241SOL    HW278556   7.779   1.075  10.310
92242SOL     OW78557  11.702   7.533   4.293
92242SOL    HW178558  11.659   7.573   4.217
92242SOL    HW278559  11.794   7.525   4.265
92243SOL     OW78560   2.527  11.460   3.797
92243SOL    HW178561   2.591  11.420   3.855
92243SOL    HW278562   2.451  11.477   3.852
92244SOL     OW78563  14.808   0.262   0.004
92244SOL    HW178564  14.859   0.187   0.035
92244SOL    HW278565  14.859   0.339   0.029
92245SOL     OW78566   2.746   1.140  12.532
92245SOL    HW178567   2.838   1.132  12.504
92245SOL    HW278568   2.720   1.228  12.506
92246SOL     OW78569   1.832   8.171  14.815
92246SOL    HW178570   1.897   8.102  14.830
92246SOL    HW278571   1.785   8.142  14.736
92247SOL     OW78572   5.926  11.271   9.571
92247SOL    HW178573   5.871  11.285   9.494
92247SOL    HW278574   5.934  11.176   9.579
92248SOL     OW78575  13.749   7.314   1.617
92248SOL    HW178576  13.813   7.250   1.648
92248SOL    HW278577  13.677   7.262   1.583
92249SOL     OW78578   5.976   5.787  10.715
92249SOL    HW178579   6.053   5.840  10.695
92249SOL    HW278580   5.932   5.835  10.785
92250SOL     OW78581   4.792   6.292   0.051
92250SOL    HW178582   4.742   6.249  14.858
92250SOL    HW278583   4.877   6.310   0.010
92251SOL     OW78584   7.838   0.092   7.366
92251SOL    HW178585   7.817   0.108   7.458
92251SOL    HW278586   7.765   0.039   7.333
92252SOL     OW78587  14.651   4.778   1.268
92252SOL    HW178588  14.584   4.843   1.287
92252SOL    HW278589  14.621   4.735   1.188
92253SOL     OW78590   5.045  12.463   9.464
92253SOL    HW178591   5.033  12.437   9.372
92253SOL    HW278592   5.106  12.537   9.460
92254SOL     OW78593  11.784   9.835  11.345
92254SOL    HW178594  11.751   9.861  11.259
92254SOL    HW278595  11.872   9.872  11.348
92255SOL     OW78596  11.692  14.502   2.882
92255SOL    HW178597  11.625  14.483   2.947
92255SOL    HW278598  11.773  14.510   2.932
92256SOL     OW78599  11.305   0.585  12.914
92256SOL    HW178600  11.361   0.532  12.858
92256SOL    HW278601  11.327   0.557  13.003
92257SOL     OW78602   4.784   5.003   1.600
92257SOL    HW178603   4.819   5.090   1.621
92257SOL    HW278604   4.713   5.020   1.539
92258SOL     OW78605   7.609   8.104   0.746
92258SOL    HW178606   7.541   8.038   0.760
92258SOL    HW278607   7.650   8.114   0.832
92259SOL     OW78608   6.835   1.528  12.698
92259SOL    HW178609   6.834   1.550  12.791
92259SOL    HW278610   6.769   1.584  12.659
92260SOL     OW78611   6.765   7.314  14.208
92260SOL    HW178612   6.715   7.309  14.290
92260SOL    HW278613   6.856   7.298  14.234
92261SOL     OW78614   9.310   5.879  13.532
92261SOL    HW178615   9.260   5.856  13.610
92261SOL    HW278616   9.250   5.930  13.478
92262SOL     OW78617  10.335   4.144   5.884
92262SOL    HW178618  10.323   4.216   5.822
92262SOL    HW278619  10.331   4.065   5.829
92263SOL     OW78620   3.667   5.131   6.751
92263SOL    HW178621   3.700   5.159   6.837
92263SOL    HW278622   3.599   5.066   6.772
92264SOL     OW78623  11.713   0.251   6.324
92264SOL    HW178624  11.800   0.283   6.349
92264SOL    HW278625  11.729   0.168   6.280
92265SOL     OW78626  10.610   2.590   1.023
92265SOL    HW178627  10.630   2.630   1.107
92265SOL    HW278628  10.517   2.607   1.009
92266SOL     OW78629  13.794   8.126  10.713
92266SOL    HW178630  13.843   8.107  10.793
92266SOL    HW278631  13.856   8.174  10.657
92267SOL     OW78632  11.270   9.960   0.143
92267SOL    HW178633  11.251   9.946   0.235
92267SOL    HW278634  11.270   9.873   0.104
92268SOL     OW78635   6.553   6.366   4.038
92268SOL    HW178636   6.576   6.274   4.046
92268SOL    HW278637   6.556   6.399   4.127
92269SOL     OW78638  11.520   6.771   9.243
92269SOL    HW178639  11.498   6.709   9.312
92269SOL    HW278640  11.453   6.839   9.249
92270SOL     OW78641  14.225   6.328  11.075
92270SOL    HW178642  14.227   6.287  11.162
92270SOL    HW278643  14.220   6.254  11.014
92271SOL     OW78644   4.354  10.459  14.653
92271SOL    HW178645   4.308  10.376  14.667
92271SOL    HW278646   4.424  10.437  14.591
92272SOL     OW78647  13.412   1.070  11.680
92272SOL    HW178648  13.477   1.131  11.644
92272SOL    HW278649  13.402   1.003  11.612
92273SOL     OW78650   2.893  14.550   4.528
92273SOL    HW178651   2.838  14.496   4.471
92273SOL    HW278652   2.952  14.488   4.571
92274SOL     OW78653  14.378   8.004   0.125
92274SOL    HW178654  14.306   7.958   0.081
92274SOL    HW278655  14.457   7.955   0.100
92275SOL     OW78656   6.096   6.460   0.950
92275SOL    HW178657   6.032   6.502   0.892
92275SOL    HW278658   6.176   6.511   0.936
92276SOL     OW78659   9.769   1.483   4.108
92276SOL    HW178660   9.864   1.488   4.115
92276SOL    HW278661   9.742   1.427   4.180
92277SOL     OW78662  11.242   7.581   9.050
92277SOL    HW178663  11.315   7.618   9.100
92277SOL    HW278664  11.251   7.486   9.060
92278SOL     OW78665  10.102  13.927   3.679
92278SOL    HW178666  10.062  13.953   3.596
92278SOL    HW278667  10.108  13.832   3.675
92279SOL     OW78668   4.695   2.263   3.628
92279SOL    HW178669   4.742   2.321   3.569
92279SOL    HW278670   4.714   2.175   3.597
92280SOL     OW78671  12.933  14.639  10.004
92280SOL    HW178672  12.911  14.655   9.912
92280SOL    HW278673  12.890  14.556  10.025
92281SOL     OW78674   5.443   1.774   5.695
92281SOL    HW178675   5.467   1.857   5.736
92281SOL    HW278676   5.384   1.733   5.758
92282SOL     OW78677   9.104   2.571  10.509
92282SOL    HW178678   9.110   2.539  10.599
92282SOL    HW278679   9.101   2.667  10.517
92283SOL     OW78680   3.245  10.795  11.803
92283SOL    HW178681   3.165  10.782  11.753
92283SOL    HW278682   3.306  10.835  11.741
92284SOL     OW78683   6.184  12.986  13.706
92284SOL    HW178684   6.233  13.066  13.724
92284SOL    HW278685   6.103  13.016  13.665
92285SOL     OW78686  11.017  10.772   7.759
92285SOL    HW178687  10.935  10.804   7.796
92285SOL    HW278688  11.075  10.763   7.834
92286SOL     OW78689  10.725  13.628   0.930
92286SOL    HW178690  10.737  13.677   0.849
92286SOL    HW278691  10.683  13.690   0.990
92287SOL     OW78692   8.983   1.861  14.845
92287SOL    HW178693   8.887   1.869  14.848
92287SOL    HW278694   9.013   1.906   0.048
92288SOL     OW78695   0.526   3.173   9.520
92288SOL    HW178696   0.497   3.132   9.439
92288SOL    HW278697   0.445   3.208   9.559
92289SOL     OW78698   7.364   1.436  12.963
92289SOL    HW178699   7.354   1.402  13.052
92289SOL    HW278700   7.457   1.427  12.944
92290SOL     OW78701  12.303  14.411   7.794
92290SOL    HW178702  12.268  14.488   7.750
92290SOL    HW278703  12.383  14.390   7.745
92291SOL     OW78704   8.198   1.645   4.846
92291SOL    HW178705   8.265   1.713   4.853
92291SOL    HW278706   8.238   1.569   4.888
92292SOL     OW78707   6.546   5.984  14.152
92292SOL    HW178708   6.468   6.015  14.199
92292SOL    HW278709   6.549   5.891  14.170
92293SOL     OW78710   8.631   7.823   8.356
92293SOL    HW178711   8.723   7.847   8.346
92293SOL    HW278712   8.585   7.876   8.291
92294SOL     OW78713   3.989  10.996  10.865
92294SOL    HW178714   4.080  10.971  10.882
92294SOL    HW278715   3.989  11.031  10.776
92295SOL     OW78716  11.348   1.482   6.314
92295SOL    HW178717  11.360   1.391   6.338
92295SOL    HW278718  11.416   1.529   6.361
92296SOL     OW78719   4.560   4.997   5.046
92296SOL    HW178720   4.497   4.980   4.975
92296SOL    HW278721   4.635   4.942   5.026
92297SOL     OW78722  14.472   1.368   7.106
92297SOL    HW178723  14.560   1.330   7.112
92297SOL    HW278724  14.439   1.369   7.196
92298SOL     OW78725   7.907   8.272  10.042
92298SOL    HW178726   7.933   8.187  10.007
92298SOL    HW278727   7.913   8.332   9.968
92299SOL     OW78728   7.376   3.506   3.507
92299SOL    HW178729   7.342   3.489   3.594
92299SOL    HW278730   7.407   3.597   3.510
92300SOL     OW78731   6.879   4.556  12.334
92300SOL    HW178732   6.859   4.510  12.415
92300SOL    HW278733   6.801   4.608  12.315
92301SOL     OW78734   5.621   5.892   4.438
92301SOL    HW178735   5.560   5.826   4.472
92301SOL    HW278736   5.704   5.845   4.430
92302SOL     OW78737   8.752   7.093   3.342
92302SOL    HW178738   8.704   7.023   3.386
92302SOL    HW278739   8.788   7.052   3.263
92303SOL     OW78740  13.551   4.322   0.049
92303SOL    HW178741  13.641   4.301   0.023
92303SOL    HW278742  13.500   4.244   0.026
92304SOL     OW78743  12.565   8.308   9.294
92304SOL    HW178744  12.649   8.276   9.263
92304SOL    HW278745  12.500   8.272   9.233
92305SOL     OW78746   2.465   2.904   8.979
92305SOL    HW178747   2.396   2.878   8.919
92305SOL    HW278748   2.418   2.931   9.059
92306SOL     OW78749  12.883  14.797   6.090
92306SOL    HW178750  12.834  14.715   6.080
92306SOL    HW278751  12.975  14.770   6.085
92307SOL     OW78752  12.638   2.712   0.517
92307SOL    HW178753  12.673   2.780   0.575
92307SOL    HW278754  12.714   2.682   0.467
92308SOL     OW78755   3.406   1.046  12.597
92308SOL    HW178756   3.440   1.130  12.566
92308SOL    HW278757   3.452   1.029  12.679
92309SOL     OW78758  10.426   6.525   5.571
92309SOL    HW178759  10.401   6.570   5.491
92309SOL    HW278760  10.440   6.595   5.635
92310SOL     OW78761   6.842  13.244   6.828
92310SOL    HW178762   6.869  13.243   6.919
92310SOL    HW278763   6.769  13.306   6.825
92311SOL     OW78764   8.676   8.315  11.951
92311SOL    HW178765   8.606   8.264  11.910
92311SOL    HW278766   8.670   8.294  12.044
92312SOL     OW78767   8.447  12.255  10.785
92312SOL    HW178768   8.519  12.309  10.752
92312SOL    HW278769   8.385  12.319  10.822
92313SOL     OW78770   8.567  13.006   1.177
92313SOL    HW178771   8.651  13.052   1.173
92313SOL    HW278772   8.576  12.946   1.251
92314SOL     OW78773  11.038  14.703  13.512
92314SOL    HW178774  11.127  14.730  13.531
92314SOL    HW278775  10.988  14.725  13.591
92315SOL     OW78776   9.289   1.159   0.589
92315SOL    HW178777   9.264   1.067   0.578
92315SOL    HW278778   9.206   1.206   0.595
92316SOL     OW78779   6.025   8.969  14.128
92316SOL    HW178780   6.102   8.972  14.071
92316SOL    HW278781   5.991   8.881  14.118
92317SOL     OW78782  13.362   4.433  10.058
92317SOL    HW178783  13.429   4.502  10.056
92317SOL    HW278784  13.389   4.370   9.992
92318SOL     OW78785  12.735   6.143  10.418
92318SOL    HW178786  12.780   6.064  10.389
92318SOL    HW278787  12.806   6.207  10.429
92319SOL     OW78788  14.139   9.132   4.018
92319SOL    HW178789  14.177   9.164   3.936
92319SOL    HW278790  14.150   9.037   4.014
92320SOL     OW78791   7.171   8.618   8.143
92320SOL    HW178792   7.107   8.552   8.116
92320SOL    HW278793   7.242   8.567   8.181
92321SOL     OW78794  14.018   0.492  13.832
92321SOL    HW178795  14.062   0.410  13.810
92321SOL    HW278796  13.936   0.490  13.782
92322SOL     OW78797   2.887  11.992  12.982
92322SOL    HW178798   2.936  12.071  12.960
92322SOL    HW278799   2.863  11.953  12.898
92323SOL     OW78800   0.404  10.143   4.980
92323SOL    HW178801   0.350  10.063   4.975
92323SOL    HW278802   0.375  10.196   4.906
92324SOL     OW78803  13.517   8.146   5.306
92324SOL    HW178804  13.495   8.234   5.277
92324SOL    HW278805  13.606   8.154   5.342
92325SOL     OW78806   7.025  11.443  14.254
92325SOL    HW178807   7.015  11.348  14.262
92325SOL    HW278808   7.052  11.456  14.163
92326SOL     OW78809   3.330   2.573  11.795
92326SOL    HW178810   3.375   2.616  11.722
92326SOL    HW278811   3.238   2.571  11.768
92327SOL     OW78812   8.159   9.641   2.736
92327SOL    HW178813   8.217   9.581   2.688
92327SOL    HW278814   8.184   9.728   2.705
92328SOL     OW78815   3.491  11.961   6.272
92328SOL    HW178816   3.458  11.935   6.358
92328SOL    HW278817   3.420  11.938   6.212
92329SOL     OW78818  12.377   4.309  11.308
92329SOL    HW178819  12.344   4.221  11.295
92329SOL    HW278820  12.352   4.357  11.229
92330SOL     OW78821   9.077   4.791   0.334
92330SOL    HW178822   9.104   4.859   0.395
92330SOL    HW278823   9.034   4.838   0.263
92331SOL     OW78824   3.401  14.341   9.840
92331SOL    HW178825   3.390  14.412   9.902
92331SOL    HW278826   3.352  14.268   9.878
92332SOL     OW78827   1.419   9.226   6.503
92332SOL    HW178828   1.510   9.217   6.476
92332SOL    HW278829   1.375   9.149   6.467
92333SOL     OW78830  10.712   9.279   3.545
92333SOL    HW178831  10.786   9.300   3.602
92333SOL    HW278832  10.707   9.351   3.483
92334SOL     OW78833  10.165  10.894   3.626
92334SOL    HW178834  10.083  10.883   3.577
92334SOL    HW278835  10.164  10.986   3.654
92335SOL     OW78836   8.112   4.358  13.814
92335SOL    HW178837   8.090   4.281  13.866
92335SOL    HW278838   8.151   4.322  13.734
92336SOL     OW78839   1.770   3.783  10.629
92336SOL    HW178840   1.850   3.757  10.584
92336SOL    HW278841   1.701   3.730  10.589
92337SOL     OW78842   2.794   8.340   2.224
92337SOL    HW178843   2.773   8.432   2.204
92337SOL    HW278844   2.718   8.291   2.194
92338SOL     OW78845   6.091   4.945  11.845
92338SOL    HW178846   6.125   5.001  11.775
92338SOL    HW278847   6.004   4.919  11.814
92339SOL     OW78848   9.530   1.198  10.920
92339SOL    HW178849   9.516   1.240  11.005
92339SOL    HW278850   9.571   1.266  10.866
92340SOL     OW78851   0.451   8.901   3.497
92340SOL    HW178852   0.522   8.871   3.440
92340SOL    HW278853   0.413   8.976   3.451
92341SOL     OW78854   4.404   4.884  12.406
92341SOL    HW178855   4.473   4.843  12.354
92341SOL    HW278856   4.326   4.831  12.389
92342SOL     OW78857   2.491  11.024  13.275
92342SOL    HW178858   2.526  11.101  13.320
92342SOL    HW278859   2.430  11.060  13.210
92343SOL     OW78860   7.790  11.561  12.200
92343SOL    HW178861   7.702  11.529  12.216
92343SOL    HW278862   7.843  11.524  12.270
92344SOL     OW78863   1.439   1.226   0.555
92344SOL    HW178864   1.348   1.257   0.552
92344SOL    HW278865   1.432   1.131   0.564
92345SOL     OW78866   0.922   7.830   6.352
92345SOL    HW178867   0.937   7.742   6.316
92345SOL    HW278868   0.864   7.872   6.289
92346SOL     OW78869   3.595   9.156  11.328
92346SOL    HW178870   3.534   9.229  11.322
92346SOL    HW278871   3.608   9.126  11.238
92347SOL     OW78872   2.880  13.897   3.698
92347SOL    HW178873   2.840  13.832   3.756
92347SOL    HW278874   2.920  13.961   3.757
92348SOL     OW78875  11.667   4.727   7.880
92348SOL    HW178876  11.571   4.730   7.883
92348SOL    HW278877  11.688   4.717   7.788
92349SOL     OW78878   8.549   3.864  11.258
92349SOL    HW178879   8.510   3.804  11.321
92349SOL    HW278880   8.639   3.833  11.248
92350SOL     OW78881   9.776   5.056   7.316
92350SOL    HW178882   9.770   5.129   7.254
92350SOL    HW278883   9.700   5.002   7.297
92351SOL     OW78884   4.211   2.233   2.103
92351SOL    HW178885   4.169   2.304   2.152
92351SOL    HW278886   4.151   2.159   2.111
92352SOL     OW78887   6.050   2.408   2.756
92352SOL    HW178888   6.030   2.419   2.663
92352SOL    HW278889   5.971   2.369   2.792
92353SOL     OW78890  14.212  14.017   9.302
92353SOL    HW178891  14.226  14.111   9.309
92353SOL    HW278892  14.281  13.978   9.355
92354SOL     OW78893  14.504   3.793   3.199
92354SOL    HW178894  14.455   3.874   3.191
92354SOL    HW278895  14.505   3.775   3.293
92355SOL     OW78896   2.756  10.654  14.684
92355SOL    HW178897   2.837  10.705  14.674
92355SOL    HW278898   2.786  10.570  14.719
92356SOL     OW78899   7.119   7.013  10.040
92356SOL    HW178900   7.101   6.981   9.952
92356SOL    HW278901   7.063   6.959  10.097
92357SOL     OW78902   2.359   4.249   0.316
92357SOL    HW178903   2.294   4.184   0.290
92357SOL    HW278904   2.321   4.333   0.291
92358SOL     OW78905   5.325  12.107   1.032
92358SOL    HW178906   5.305  12.015   1.052
92358SOL    HW278907   5.368  12.140   1.110
92359SOL     OW78908  12.531   3.146  12.865
92359SOL    HW178909  12.452   3.178  12.909
92359SOL    HW278910  12.599   3.209  12.888
92360SOL     OW78911   6.861   6.904  10.872
92360SOL    HW178912   6.775   6.864  10.858
92360SOL    HW278913   6.871   6.967  10.801
92361SOL     OW78914   4.066   9.451   8.333
92361SOL    HW178915   4.038   9.426   8.421
92361SOL    HW278916   4.131   9.386   8.309
92362SOL     OW78917   0.769   4.476   1.227
92362SOL    HW178918   0.775   4.412   1.157
92362SOL    HW278919   0.850   4.526   1.221
92363SOL     OW78920   0.873   2.839  12.073
92363SOL    HW178921   0.816   2.825  11.998
92363SOL    HW278922   0.906   2.928  12.062
92364SOL     OW78923   6.207  10.840   0.902
92364SOL    HW178924   6.243  10.751   0.903
92364SOL    HW278925   6.232  10.875   0.816
92365SOL     OW78926  13.330   3.179   6.121
92365SOL    HW178927  13.419   3.203   6.094
92365SOL    HW278928  13.338   3.155   6.213
92366SOL     OW78929  12.083   8.673  10.593
92366SOL    HW178930  12.129   8.723  10.525
92366SOL    HW278931  12.068   8.587  10.554
92367SOL     OW78932   6.985  14.534  11.053
92367SOL    HW178933   6.964  14.514  10.962
92367SOL    HW278934   6.966  14.453  11.100
92368SOL     OW78935   6.931  10.746  11.011
92368SOL    HW178936   6.912  10.773  11.101
92368SOL    HW278937   6.846  10.746  10.968
92369SOL     OW78938  14.718  13.734   7.844
92369SOL    HW178939  14.735  13.643   7.868
92369SOL    HW278940  14.623  13.743   7.853
92370SOL     OW78941   6.163   5.470  13.614
92370SOL    HW178942   6.205   5.474  13.700
92370SOL    HW278943   6.203   5.541  13.564
92371SOL     OW78944   7.604  13.133   2.691
92371SOL    HW178945   7.533  13.141   2.755
92371SOL    HW278946   7.608  13.040   2.671
92372SOL     OW78947   0.810   1.448   4.770
92372SOL    HW178948   0.752   1.425   4.697
92372SOL    HW278949   0.751   1.474   4.841
92373SOL     OW78950   1.553   5.250   0.128
92373SOL    HW178951   1.551   5.157   0.148
92373SOL    HW278952   1.465   5.281   0.151
92374SOL     OW78953   0.346  11.747  10.064
92374SOL    HW178954   0.293  11.670  10.042
92374SOL    HW278955   0.395  11.720  10.141
92375SOL     OW78956   5.128   0.965   0.977
92375SOL    HW178957   5.075   0.920   1.043
92375SOL    HW278958   5.159   1.044   1.022
92376SOL     OW78959  14.268   7.902   9.094
92376SOL    HW178960  14.203   7.834   9.084
92376SOL    HW278961  14.333   7.866   9.153
92377SOL     OW78962  11.369   5.667  12.181
92377SOL    HW178963  11.376   5.578  12.147
92377SOL    HW278964  11.429   5.718  12.127
92378SOL     OW78965   7.423  12.352   2.205
92378SOL    HW178966   7.420  12.406   2.126
92378SOL    HW278967   7.428  12.262   2.172
92379SOL     OW78968  13.898   6.269   0.873
92379SOL    HW178969  13.928   6.299   0.959
92379SOL    HW278970  13.813   6.227   0.891
92380SOL     OW78971   2.727   9.672   2.783
92380SOL    HW178972   2.820   9.682   2.762
92380SOL    HW278973   2.718   9.705   2.872
92381SOL     OW78974  12.537   3.705  12.609
92381SOL    HW178975  12.575   3.702  12.522
92381SOL    HW278976  12.572   3.627  12.653
92382SOL     OW78977   0.748   3.585   8.851
92382SOL    HW178978   0.807   3.660   8.845
92382SOL    HW278979   0.802   3.514   8.885
92383SOL     OW78980   0.024  14.540   8.559
92383SOL    HW178981  14.845  14.505   8.488
92383SOL    HW278982   0.093  14.589   8.515
92384SOL     OW78983  12.281  10.810   5.032
92384SOL    HW178984  12.251  10.725   5.063
92384SOL    HW278985  12.337  10.843   5.103
92385SOL     OW78986  12.376  10.882  13.610
92385SOL    HW178987  12.391  10.828  13.533
92385SOL    HW278988  12.341  10.821  13.675
92386SOL     OW78989   0.682   6.953   8.538
92386SOL    HW178990   0.619   6.983   8.473
92386SOL    HW278991   0.702   6.863   8.513
92387SOL     OW78992  13.931   2.818   4.345
92387SOL    HW178993  13.867   2.866   4.398
92387SOL    HW278994  14.006   2.807   4.403
92388SOL     OW78995   4.243   9.047   5.205
92388SOL    HW178996   4.274   9.117   5.148
92388SOL    HW278997   4.246   9.085   5.293
92389SOL     OW78998   9.813   6.503   8.139
92389SOL    HW178999   9.723   6.471   8.133
92389SOL    HW279000   9.811   6.568   8.209
92390SOL     OW79001   2.162   9.359   3.670
92390SOL    HW179002   2.067   9.371   3.669
92390SOL    HW279003   2.178   9.284   3.613
92391SOL     OW79004   9.243  11.101   6.795
92391SOL    HW179005   9.233  11.126   6.703
92391SOL    HW279006   9.322  11.046   6.797
92392SOL     OW79007   6.273  12.992   9.605
92392SOL    HW179008   6.310  13.024   9.523
92392SOL    HW279009   6.270  13.070   9.661
92393SOL     OW79010  14.856   4.947  14.772
92393SOL    HW179011   0.063   4.942  14.819
92393SOL    HW279012  14.862   5.026  14.718
92394SOL     OW79013   5.636  12.549  13.043
92394SOL    HW179014   5.589  12.474  13.081
92394SOL    HW279015   5.648  12.525  12.951
92395SOL     OW79016  10.043  12.400   1.640
92395SOL    HW179017  10.119  12.410   1.697
92395SOL    HW279018  10.046  12.475   1.581
92396SOL     OW79019   3.604  12.184   2.336
92396SOL    HW179020   3.542  12.258   2.332
92396SOL    HW279021   3.586  12.134   2.256
92397SOL     OW79022   7.777   7.675   8.169
92397SOL    HW179023   7.844   7.706   8.107
92397SOL    HW279024   7.694   7.699   8.128
92398SOL     OW79025   1.179  14.117   3.460
92398SOL    HW179026   1.179  14.023   3.476
92398SOL    HW279027   1.090  14.145   3.481
92399SOL     OW79028   6.602   0.125   0.448
92399SOL    HW179029   6.627   0.040   0.412
92399SOL    HW279030   6.508   0.132   0.432
92400SOL     OW79031  14.874  10.573  10.171
92400SOL    HW179032   0.079  10.589  10.122
92400SOL    HW279033   0.020  10.595  10.261
92401SOL     OW79034  12.701  12.891  14.365
92401SOL    HW179035  12.614  12.860  14.393
92401SOL    HW279036  12.684  12.975  14.323
92402SOL     OW79037   6.632   5.014   9.247
92402SOL    HW179038   6.721   5.027   9.215
92402SOL    HW279039   6.602   5.102   9.271
92403SOL     OW79040   5.228  12.872  10.134
92403SOL    HW179041   5.300  12.900  10.077
92403SOL    HW279042   5.209  12.783  10.107
92404SOL     OW79043  13.134  12.132   1.883
92404SOL    HW179044  13.190  12.110   1.957
92404SOL    HW279045  13.121  12.227   1.889
92405SOL     OW79046   6.837   0.621   3.751
92405SOL    HW179047   6.872   0.690   3.806
92405SOL    HW279048   6.742   0.624   3.765
92406SOL     OW79049   2.511   0.392  11.575
92406SOL    HW179050   2.460   0.366  11.499
92406SOL    HW279051   2.477   0.479  11.598
92407SOL     OW79052  14.359   7.246   7.560
92407SOL    HW179053  14.295   7.245   7.489
92407SOL    HW279054  14.348   7.332   7.601
92408SOL     OW79055  14.203  14.492  13.259
92408SOL    HW179056  14.298  14.497  13.273
92408SOL    HW279057  14.165  14.530  13.338
92409SOL     OW79058   4.895   1.189   7.035
92409SOL    HW179059   4.855   1.222   6.955
92409SOL    HW279060   4.838   1.220   7.106
92410SOL     OW79061  13.763  13.237   4.452
92410SOL    HW179062  13.833  13.271   4.397
92410SOL    HW279063  13.687  13.232   4.394
92411SOL     OW79064  11.953   9.776   8.586
92411SOL    HW179065  11.924   9.686   8.573
92411SOL    HW279066  11.910   9.825   8.516
92412SOL     OW79067  10.508  12.284   8.876
92412SOL    HW179068  10.420  12.309   8.905
92412SOL    HW279069  10.540  12.360   8.828
92413SOL     OW79070   0.024   3.419   0.271
92413SOL    HW179071   0.095   3.442   0.211
92413SOL    HW279072   0.003   3.502   0.315
92414SOL     OW79073   0.785   3.261   0.087
92414SOL    HW179074   0.875   3.274   0.057
92414SOL    HW279075   0.793   3.196   0.157
92415SOL     OW79076   6.338   7.892   0.323
92415SOL    HW179077   6.278   7.851   0.260
92415SOL    HW279078   6.396   7.945   0.268
92416SOL     OW79079   4.403  12.864   3.785
92416SOL    HW179080   4.474  12.818   3.739
92416SOL    HW279081   4.369  12.799   3.846
92417SOL     OW79082   0.515   6.827   5.964
92417SOL    HW179083   0.575   6.892   6.000
92417SOL    HW279084   0.536   6.747   6.012
92418SOL     OW79085   3.755   3.263   8.172
92418SOL    HW179086   3.842   3.230   8.193
92418SOL    HW279087   3.723   3.301   8.254
92419SOL     OW79088   1.444   7.208   3.847
92419SOL    HW179089   1.502   7.284   3.853
92419SOL    HW279090   1.417   7.191   3.937
92420SOL     OW79091  11.040  12.990  12.246
92420SOL    HW179092  11.026  12.923  12.313
92420SOL    HW279093  10.955  13.032  12.235
92421SOL     OW79094   3.586   8.345   7.191
92421SOL    HW179095   3.571   8.277   7.125
92421SOL    HW279096   3.506   8.397   7.190
92422SOL     OW79097   5.696   3.579  14.875
92422SOL    HW179098   5.684   3.651   0.062
92422SOL    HW279099   5.786   3.589  14.845
92423SOL     OW79100   1.289   8.954  13.721
92423SOL    HW179101   1.261   9.028  13.775
92423SOL    HW279102   1.360   8.914  13.770
92424SOL     OW79103  10.147  14.762  14.070
92424SOL    HW179104  10.199  14.705  14.126
92424SOL    HW279105  10.157  14.849  14.108
92425SOL     OW79106  11.221   2.747  12.226
92425SOL    HW179107  11.260   2.670  12.183
92425SOL    HW279108  11.202   2.807  12.154
92426SOL     OW79109   3.627  14.374   1.495
92426SOL    HW179110   3.657  14.449   1.444
92426SOL    HW279111   3.562  14.331   1.439
92427SOL     OW79112   0.289   8.756  13.421
92427SOL    HW179113   0.269   8.834  13.370
92427SOL    HW279114   0.253   8.684  13.369
92428SOL     OW79115   4.937   9.744  14.642
92428SOL    HW179116   4.855   9.695  14.652
92428SOL    HW279117   4.973   9.750  14.731
92429SOL     OW79118   3.293   5.376   8.740
92429SOL    HW179119   3.346   5.454   8.759
92429SOL    HW279120   3.339   5.304   8.782
92430SOL     OW79121  14.503   2.568  14.179
92430SOL    HW179122  14.423   2.614  14.206
92430SOL    HW279123  14.563   2.578  14.253
92431SOL     OW79124  13.855  10.702  11.111
92431SOL    HW179125  13.776  10.752  11.132
92431SOL    HW279126  13.919  10.730  11.177
92432SOL     OW79127   1.111   6.256   3.255
92432SOL    HW179128   1.084   6.215   3.337
92432SOL    HW279129   1.075   6.344   3.259
92433SOL     OW79130   5.176   1.557   1.594
92433SOL    HW179131   5.271   1.548   1.582
92433SOL    HW279132   5.167   1.632   1.653
92434SOL     OW79133   5.054   6.211  11.369
92434SOL    HW179134   5.130   6.235  11.422
92434SOL    HW279135   4.979   6.241  11.421
92435SOL     OW79136  14.338   2.524  10.346
92435SOL    HW179137  14.306   2.610  10.321
92435SOL    HW279138  14.412   2.542  10.405
92436SOL     OW79139   0.042   9.781   9.578
92436SOL    HW179140   0.074   9.791   9.667
92436SOL    HW279141  14.828   9.815   9.580
92437SOL     OW79142   0.952   9.365   3.406
92437SOL    HW179143   0.953   9.458   3.430
92437SOL    HW279144   0.917   9.363   3.317
92438SOL     OW79145   4.200   2.764   6.647
92438SOL    HW179146   4.242   2.834   6.698
92438SOL    HW279147   4.110   2.762   6.680
92439SOL     OW79148   7.611   2.817   7.421
92439SOL    HW179149   7.627   2.722   7.417
92439SOL    HW279150   7.624   2.847   7.331
92440SOL     OW79151  13.466   5.655   4.790
92440SOL    HW179152  13.474   5.727   4.852
92440SOL    HW279153  13.406   5.688   4.723
92441SOL     OW79154   6.358   8.791  11.928
92441SOL    HW179155   6.420   8.754  11.991
92441SOL    HW279156   6.361   8.733  11.853
92442SOL     OW79157   0.249   4.386   1.237
92442SOL    HW179158   0.340   4.376   1.263
92442SOL    HW279159   0.248   4.367   1.143
92443SOL     OW79160   9.713   9.122   9.779
92443SOL    HW179161   9.702   9.061   9.852
92443SOL    HW279162   9.682   9.075   9.702
92444SOL     OW79163   1.877  10.465   1.983
92444SOL    HW179164   1.854  10.466   1.890
92444SOL    HW279165   1.965  10.427   1.987
92445SOL     OW79166   2.259   9.459   0.360
92445SOL    HW179167   2.262   9.460   0.456
92445SOL    HW279168   2.174   9.421   0.339
92446SOL     OW79169   4.131  12.272   8.783
92446SOL    HW179170   4.037  12.289   8.787
92446SOL    HW279171   4.162  12.288   8.873
92447SOL     OW79172   6.708   8.777   9.829
92447SOL    HW179173   6.722   8.760   9.922
92447SOL    HW279174   6.616   8.756   9.813
92448SOL     OW79175   5.325  10.225  14.504
92448SOL    HW179176   5.312  10.133  14.528
92448SOL    HW279177   5.409  10.248  14.543
92449SOL     OW79178   8.843  13.671  11.585
92449SOL    HW179179   8.751  13.661  11.611
92449SOL    HW279180   8.892  13.658  11.666
92450SOL     OW79181   7.278   8.581   8.620
92450SOL    HW179182   7.249   8.499   8.660
92450SOL    HW279183   7.224   8.591   8.543
92451SOL     OW79184  10.356   5.519   2.112
92451SOL    HW179185  10.267   5.492   2.089
92451SOL    HW279186  10.403   5.437   2.128
92452SOL     OW79187   5.671  11.341   2.585
92452SOL    HW179188   5.741  11.392   2.545
92452SOL    HW279189   5.600  11.343   2.521
92453SOL     OW79190   4.039   1.399   7.039
92453SOL    HW179191   3.973   1.461   7.071
92453SOL    HW279192   4.049   1.336   7.111
92454SOL     OW79193   5.514   2.016   7.688
92454SOL    HW179194   5.478   1.984   7.605
92454SOL    HW279195   5.442   2.005   7.750
92455SOL     OW79196  14.309   3.953   0.510
92455SOL    HW179197  14.380   4.012   0.485
92455SOL    HW279198  14.239   4.011   0.541
92456SOL     OW79199  12.866  12.554  12.403
92456SOL    HW179200  12.837  12.464  12.390
92456SOL    HW279201  12.853  12.595  12.318
92457SOL     OW79202   8.672   1.687   3.494
92457SOL    HW179203   8.618   1.720   3.565
92457SOL    HW279204   8.624   1.612   3.460
92458SOL     OW79205   3.100   0.138   4.430
92458SOL    HW179206   3.071   0.068   4.489
92458SOL    HW279207   3.177   0.102   4.386
92459SOL     OW79208  12.881   3.436  11.929
92459SOL    HW179209  12.968   3.431  11.970
92459SOL    HW279210  12.892   3.500  11.858
92460SOL     OW79211   5.601   5.764  13.546
92460SOL    HW179212   5.605   5.784  13.453
92460SOL    HW279213   5.573   5.846  13.587
92461SOL     OW79214  11.261   0.627   8.790
92461SOL    HW179215  11.235   0.676   8.712
92461SOL    HW279216  11.179   0.600   8.830
92462SOL     OW79217   3.443  10.765   9.833
92462SOL    HW179218   3.356  10.728   9.817
92462SOL    HW279219   3.426  10.855   9.859
92463SOL     OW79220   6.860   9.691   5.601
92463SOL    HW179221   6.823   9.694   5.690
92463SOL    HW279222   6.946   9.650   5.612
92464SOL     OW79223  14.539  11.151   0.081
92464SOL    HW179224  14.583  11.076   0.120
92464SOL    HW279225  14.447  11.140   0.106
92465SOL     OW79226  13.164   7.337   6.594
92465SOL    HW179227  13.069   7.325   6.593
92465SOL    HW279228  13.189   7.320   6.685
92466SOL     OW79229   0.861  10.120   3.353
92466SOL    HW179230   0.945  10.138   3.312
92466SOL    HW279231   0.841  10.199   3.403
92467SOL     OW79232   1.428  13.692   1.122
92467SOL    HW179233   1.478  13.634   1.181
92467SOL    HW279234   1.461  13.671   1.035
92468SOL     OW79235   6.556   6.584  11.881
92468SOL    HW179236   6.487   6.530  11.841
92468SOL    HW279237   6.622   6.521  11.910
92469SOL     OW79238   6.141   7.381  13.068
92469SOL    HW179239   6.071   7.367  13.132
92469SOL    HW279240   6.108   7.339  12.988
92470SOL     OW79241  14.798  11.501   5.915
92470SOL    HW179242  14.839  11.586   5.903
92470SOL    HW279243  14.871  11.440   5.921
92471SOL     OW79244   6.614  11.669   1.789
92471SOL    HW179245   6.679  11.697   1.854
92471SOL    HW279246   6.666  11.633   1.717
92472SOL     OW79247  11.310   4.020  11.993
92472SOL    HW179248  11.232   4.003  11.940
92472SOL    HW279249  11.281   4.007  12.083
92473SOL     OW79250   1.501  10.112   1.960
92473SOL    HW179251   1.495  10.173   2.034
92473SOL    HW279252   1.410  10.094   1.936
92474SOL     OW79253  10.563  12.686  11.544
92474SOL    HW179254  10.578  12.603  11.499
92474SOL    HW279255  10.581  12.668  11.636
92475SOL     OW79256  14.214   5.930  13.833
92475SOL    HW179257  14.310   5.935  13.836
92475SOL    HW279258  14.187   5.921  13.924
92476SOL     OW79259  10.839   9.158  11.298
92476SOL    HW179260  10.842   9.189  11.388
92476SOL    HW279261  10.750   9.125  11.287
92477SOL     OW79262  10.837   2.826   3.877
92477SOL    HW179263  10.760   2.785   3.917
92477SOL    HW279264  10.871   2.759   3.818
92478SOL     OW79265  10.324   8.305  12.908
92478SOL    HW179266  10.405   8.257  12.890
92478SOL    HW279267  10.352   8.396  12.920
92479SOL     OW79268   5.006  11.140   5.832
92479SOL    HW179269   4.971  11.182   5.911
92479SOL    HW279270   5.073  11.080   5.865
92480SOL     OW79271   0.613   5.067   5.833
92480SOL    HW179272   0.657   5.081   5.917
92480SOL    HW279273   0.600   4.972   5.828
92481SOL     OW79274   9.918  12.421   5.046
92481SOL    HW179275   9.847  12.445   5.105
92481SOL    HW279276   9.974  12.498   5.044
92482SOL     OW79277   6.005  13.467  13.820
92482SOL    HW179278   5.978  13.428  13.736
92482SOL    HW279279   5.926  13.508  13.854
92483SOL     OW79280  11.030   0.635   4.503
92483SOL    HW179281  10.978   0.641   4.423
92483SOL    HW279282  11.023   0.544   4.530
92484SOL     OW79283   4.128   1.506  12.442
92484SOL    HW179284   4.125   1.484  12.349
92484SOL    HW279285   4.177   1.434  12.482
92485SOL     OW79286   4.085   1.168   4.393
92485SOL    HW179287   4.075   1.075   4.373
92485SOL    HW279288   4.025   1.183   4.466
92486SOL     OW79289  14.691   6.818   7.107
92486SOL    HW179290  14.724   6.867   7.032
92486SOL    HW279291  14.769   6.798   7.159
92487SOL     OW79292   9.413   0.476   8.503
92487SOL    HW179293   9.397   0.393   8.458
92487SOL    HW279294   9.507   0.478   8.518
92488SOL     OW79295  10.223  10.366  12.646
92488SOL    HW179296  10.211  10.453  12.606
92488SOL    HW279297  10.300  10.377  12.702
92489SOL     OW79298   9.066  13.267  10.565
92489SOL    HW179299   9.116  13.296  10.641
92489SOL    HW279300   9.034  13.180  10.590
92490SOL     OW79301   4.366   1.854  11.771
92490SOL    HW179302   4.369   1.929  11.710
92490SOL    HW279303   4.397   1.780  11.719
92491SOL     OW79304   5.113  12.237  14.091
92491SOL    HW179305   5.092  12.214  14.001
92491SOL    HW279306   5.091  12.159  14.142
92492SOL     OW79307   2.967   9.295  12.890
92492SOL    HW179308   3.005   9.213  12.920
92492SOL    HW279309   2.988   9.358  12.959
92493SOL     OW79310   8.174   5.467  12.731
92493SOL    HW179311   8.147   5.530  12.798
92493SOL    HW279312   8.092   5.443  12.687
92494SOL     OW79313   1.808   5.970  13.724
92494SOL    HW179314   1.900   5.996  13.730
92494SOL    HW279315   1.762   6.051  13.703
92495SOL     OW79316   7.745   7.157  13.599
92495SOL    HW179317   7.834   7.124  13.611
92495SOL    HW279318   7.697   7.128  13.676
92496SOL     OW79319   7.749   1.661  13.931
92496SOL    HW179320   7.795   1.675  13.848
92496SOL    HW279321   7.795   1.587  13.971
92497SOL     OW79322   6.136   3.506   4.365
92497SOL    HW179323   6.145   3.521   4.270
92497SOL    HW279324   6.224   3.481   4.393
92498SOL     OW79325   5.265   8.456  10.486
92498SOL    HW179326   5.209   8.534  10.475
92498SOL    HW279327   5.354   8.491  10.491
92499SOL     OW79328   7.857   8.844   7.390
92499SOL    HW179329   7.844   8.896   7.469
92499SOL    HW279330   7.904   8.766   7.421
92500SOL     OW79331   1.334   9.997   2.275
92500SOL    HW179332   1.358   9.908   2.248
92500SOL    HW279333   1.384  10.012   2.356
92501SOL     OW79334  10.834   4.752   0.506
92501SOL    HW179335  10.748   4.779   0.474
92501SOL    HW279336  10.894   4.818   0.470
92502SOL     OW79337  12.138   3.169   2.637
92502SOL    HW179338  12.070   3.102   2.642
92502SOL    HW279339  12.133   3.214   2.721
92503SOL     OW79340   8.032  11.830   6.406
92503SOL    HW179341   8.037  11.924   6.389
92503SOL    HW279342   8.123  11.803   6.414
92504SOL     OW79343   9.379   2.375   9.759
92504SOL    HW179344   9.414   2.329   9.683
92504SOL    HW279345   9.303   2.324   9.785
92505SOL     OW79346   8.725  12.226   1.955
92505SOL    HW179347   8.661  12.292   1.981
92505SOL    HW279348   8.673  12.153   1.920
92506SOL     OW79349   6.947   3.424  12.251
92506SOL    HW179350   6.983   3.390  12.333
92506SOL    HW279351   7.008   3.393  12.184
92507SOL     OW79352   8.758  13.482  12.280
92507SOL    HW179353   8.729  13.391  12.283
92507SOL    HW279354   8.841  13.482  12.328
92508SOL     OW79355  13.079   4.062   1.391
92508SOL    HW179356  13.006   4.015   1.431
92508SOL    HW279357  13.141   4.076   1.463
92509SOL     OW79358  13.719  12.090   7.772
92509SOL    HW179359  13.674  12.171   7.793
92509SOL    HW279360  13.690  12.028   7.839
92510SOL     OW79361   6.656   3.997   3.828
92510SOL    HW179362   6.684   4.086   3.852
92510SOL    HW279363   6.596   3.972   3.898
92511SOL     OW79364   8.426   8.768   5.636
92511SOL    HW179365   8.349   8.818   5.611
92511SOL    HW279366   8.415   8.684   5.592
92512SOL     OW79367   9.989   5.903   6.037
92512SOL    HW179368   9.948   5.845   6.102
92512SOL    HW279369  10.025   5.975   6.089
92513SOL     OW79370  12.540   9.135  14.559
92513SOL    HW179371  12.573   9.224  14.549
92513SOL    HW279372  12.528   9.103  14.470
92514SOL     OW79373  11.350  14.172  13.247
92514SOL    HW179374  11.403  14.160  13.168
92514SOL    HW279375  11.260  14.182  13.215
92515SOL     OW79376   9.886  12.497   3.431
92515SOL    HW179377   9.921  12.413   3.460
92515SOL    HW279378   9.806  12.508   3.481
92516SOL     OW79379  12.246  11.774   0.350
92516SOL    HW179380  12.339  11.792   0.338
92516SOL    HW279381  12.222  11.719   0.276
92517SOL     OW79382   0.402   3.753  11.711
92517SOL    HW179383   0.307   3.744  11.716
92517SOL    HW279384   0.418   3.804  11.632
92518SOL     OW79385  11.145  10.791   3.130
92518SOL    HW179386  11.179  10.702   3.134
92518SOL    HW279387  11.204  10.841   3.187
92519SOL     OW79388   8.370  13.860   2.045
92519SOL    HW179389   8.284  13.821   2.026
92519SOL    HW279390   8.366  13.947   2.004
92520SOL     OW79391  14.562   5.070   7.800
92520SOL    HW179392  14.632   5.129   7.826
92520SOL    HW279393  14.482   5.110   7.834
92521SOL     OW79394   0.347   4.564   7.430
92521SOL    HW179395   0.259   4.600   7.415
92521SOL    HW279396   0.397   4.590   7.353
92522SOL     OW79397   9.561   5.008   1.313
92522SOL    HW179398   9.589   5.081   1.258
92522SOL    HW279399   9.495   4.963   1.260
92523SOL     OW79400   1.284   3.483  11.149
92523SOL    HW179401   1.200   3.503  11.108
92523SOL    HW279402   1.348   3.533  11.099
92524SOL     OW79403   0.205   7.347  14.089
92524SOL    HW179404   0.165   7.433  14.073
92524SOL    HW279405   0.192   7.299  14.007
92525SOL     OW79406   1.713   9.427   0.873
92525SOL    HW179407   1.768   9.469   0.939
92525SOL    HW279408   1.627   9.470   0.882
92526SOL     OW79409  12.436   9.454   3.295
92526SOL    HW179410  12.345   9.426   3.306
92526SOL    HW279411  12.452   9.447   3.201
92527SOL     OW79412   4.348   0.211  11.300
92527SOL    HW179413   4.440   0.197  11.321
92527SOL    HW279414   4.337   0.172  11.213
92528SOL     OW79415   6.459  12.878   8.510
92528SOL    HW179416   6.481  12.787   8.531
92528SOL    HW279417   6.391  12.902   8.573
92529SOL     OW79418  11.595   6.417  10.315
92529SOL    HW179419  11.584   6.376  10.401
92529SOL    HW279420  11.650   6.494  10.331
92530SOL     OW79421   4.173  10.870  14.167
92530SOL    HW179422   4.156  10.928  14.093
92530SOL    HW279423   4.123  10.907  14.239
92531SOL     OW79424   1.056  14.301  13.015
92531SOL    HW179425   1.106  14.346  13.083
92531SOL    HW279426   1.001  14.239  13.062
92532SOL     OW79427  12.620   7.093  14.225
92532SOL    HW179428  12.639   7.176  14.183
92532SOL    HW279429  12.538   7.108  14.273
92533SOL     OW79430  13.866   6.554   1.867
92533SOL    HW179431  13.881   6.459   1.861
92533SOL    HW279432  13.933   6.592   1.810
92534SOL     OW79433   1.994   9.420   0.271
92534SOL    HW179434   1.937   9.343   0.266
92534SOL    HW279435   1.941   9.485   0.318
92535SOL     OW79436   2.757  14.620   3.802
92535SOL    HW179437   2.785  14.531   3.823
92535SOL    HW279438   2.703  14.610   3.723
92536SOL     OW79439   0.915   1.324   9.731
92536SOL    HW179440   0.970   1.310   9.809
92536SOL    HW279441   0.905   1.236   9.694
92537SOL     OW79442  12.101   3.088   9.758
92537SOL    HW179443  12.167   3.025   9.730
92537SOL    HW279444  12.018   3.042   9.749
92538SOL     OW79445   9.084  14.847   7.394
92538SOL    HW179446   9.055  14.760   7.420
92538SOL    HW279447   9.004   0.023   7.388
92539SOL     OW79448   4.576  10.926  10.722
92539SOL    HW179449   4.603  11.013  10.753
92539SOL    HW279450   4.608  10.866  10.789
92540SOL     OW79451   8.900  12.766  12.363
92540SOL    HW179452   8.919  12.728  12.277
92540SOL    HW279453   8.848  12.700  12.408
92541SOL     OW79454   2.923  12.825   5.854
92541SOL    HW179455   2.928  12.854   5.763
92541SOL    HW279456   2.881  12.897   5.900
92542SOL     OW79457  12.248   3.231  14.367
92542SOL    HW179458  12.300   3.218  14.446
92542SOL    HW279459  12.158   3.244  14.398
92543SOL     OW79460   8.339   4.533  10.819
92543SOL    HW179461   8.396   4.522  10.895
92543SOL    HW279462   8.366   4.616  10.780
92544SOL     OW79463  10.170   0.997   9.299
92544SOL    HW179464  10.135   1.058   9.364
92544SOL    HW279465  10.259   1.027   9.283
92545SOL     OW79466   2.200   4.633  13.893
92545SOL    HW179467   2.262   4.665  13.827
92545SOL    HW279468   2.248   4.566  13.941
92546SOL     OW79469   4.465   9.072   8.247
92546SOL    HW179470   4.441   8.986   8.281
92546SOL    HW279471   4.516   9.054   8.168
92547SOL     OW79472   9.394   8.960   0.791
92547SOL    HW179473   9.319   8.953   0.850
92547SOL    HW279474   9.413   8.870   0.765
92548SOL     OW79475  14.598   9.416   8.077
92548SOL    HW179476  14.550   9.418   7.995
92548SOL    HW279477  14.551   9.476   8.135
92549SOL     OW79478   0.365  13.695   3.869
92549SOL    HW179479   0.454  13.666   3.850
92549SOL    HW279480   0.376  13.760   3.938
92550SOL     OW79481  10.736   9.532   3.790
92550SOL    HW179482  10.651   9.523   3.832
92550SOL    HW279483  10.795   9.558   3.860
92551SOL     OW79484   5.571   9.879   0.707
92551SOL    HW179485   5.600   9.852   0.794
92551SOL    HW279486   5.492   9.826   0.691
92552SOL     OW79487  10.996  13.499  10.487
92552SOL    HW179488  11.070  13.497  10.547
92552SOL    HW279489  10.919  13.510  10.544
92553SOL     OW79490   1.049   0.335   6.053
92553SOL    HW179491   1.055   0.243   6.078
92553SOL    HW279492   1.131   0.374   6.082
92554SOL     OW79493   7.522  13.583   5.289
92554SOL    HW179494   7.549  13.661   5.337
92554SOL    HW279495   7.588  13.573   5.221
92555SOL     OW79496   0.763   5.224   5.273
92555SOL    HW179497   0.825   5.216   5.201
92555SOL    HW279498   0.742   5.134   5.298
92556SOL     OW79499  11.344   2.838   5.137
92556SOL    HW179500  11.401   2.878   5.202
92556SOL    HW279501  11.376   2.748   5.129
92557SOL     OW79502  11.859   0.032  14.219
92557SOL    HW179503  11.775   0.006  14.181
92557SOL    HW279504  11.866   0.126  14.200
92558SOL     OW79505   7.864   4.756   7.975
92558SOL    HW179506   7.802   4.764   7.903
92558SOL    HW279507   7.928   4.692   7.943
92559SOL     OW79508   8.276  12.486  10.859
92559SOL    HW179509   8.277  12.457  10.950
92559SOL    HW279510   8.294  12.580  10.863
92560SOL     OW79511   8.827   1.421   8.567
92560SOL    HW179512   8.739   1.458   8.571
92560SOL    HW279513   8.819   1.346   8.508
92561SOL     OW79514  10.908   1.831   4.620
92561SOL    HW179515  10.823   1.868   4.646
92561SOL    HW279516  10.896   1.736   4.627
92562SOL     OW79517  11.543   0.742   5.725
92562SOL    HW179518  11.619   0.757   5.781
92562SOL    HW279519  11.482   0.693   5.779
92563SOL     OW79520  10.359  10.093  14.178
92563SOL    HW179521  10.388  10.003  14.165
92563SOL    HW279522  10.372  10.135  14.093
92564SOL     OW79523   4.408  10.223   3.284
92564SOL    HW179524   4.337  10.165   3.311
92564SOL    HW279525   4.386  10.308   3.323
92565SOL     OW79526   9.320   6.190   2.441
92565SOL    HW179527   9.235   6.219   2.406
92565SOL    HW279528   9.310   6.200   2.536
92566SOL     OW79529   0.639  10.215   5.206
92566SOL    HW179530   0.655  10.132   5.251
92566SOL    HW279531   0.666  10.199   5.116
92567SOL     OW79532   6.309   3.184   9.665
92567SOL    HW179533   6.331   3.149   9.751
92567SOL    HW279534   6.376   3.250   9.647
92568SOL     OW79535   6.502  13.782   1.433
92568SOL    HW179536   6.568  13.837   1.476
92568SOL    HW279537   6.454  13.743   1.506
92569SOL     OW79538   3.293   1.086   6.268
92569SOL    HW179539   3.207   1.051   6.291
92569SOL    HW279540   3.301   1.071   6.174
92570SOL     OW79541   5.557  10.901   3.356
92570SOL    HW179542   5.557  10.924   3.449
92570SOL    HW279543   5.520  10.813   3.353
92571SOL     OW79544   0.244  13.381   9.711
92571SOL    HW179545   0.261  13.437   9.636
92571SOL    HW279546   0.202  13.439   9.775
92572SOL     OW79547   2.003  11.594   7.649
92572SOL    HW179548   1.943  11.636   7.711
92572SOL    HW279549   2.070  11.660   7.631
92573SOL     OW79550   6.909  14.740   3.374
92573SOL    HW179551   6.858  14.771   3.299
92573SOL    HW279552   6.890  14.647   3.379
92574SOL     OW79553   7.529   9.265   1.127
92574SOL    HW179554   7.456   9.325   1.114
92574SOL    HW279555   7.503   9.184   1.082
92575SOL     OW79556  10.742   7.500   2.141
92575SOL    HW179557  10.724   7.406   2.142
92575SOL    HW279558  10.712   7.532   2.226
92576SOL     OW79559   1.916   9.515   5.109
92576SOL    HW179560   1.821   9.513   5.112
92576SOL    HW279561   1.943   9.424   5.123
92577SOL     OW79562   8.828   2.770   3.493
92577SOL    HW179563   8.920   2.793   3.481
92577SOL    HW279564   8.801   2.822   3.569
92578SOL     OW79565   9.046  12.024   7.159
92578SOL    HW179566   9.096  11.995   7.236
92578SOL    HW279567   8.964  12.058   7.195
92579SOL     OW79568   2.722   9.152  13.390
92579SOL    HW179569   2.728   9.088  13.320
92579SOL    HW279570   2.703   9.101  13.468
92580SOL     OW79571   7.320   5.427   0.597
92580SOL    HW179572   7.377   5.407   0.522
92580SOL    HW279573   7.369   5.396   0.673
92581SOL     OW79574   7.286   3.221   3.869
92581SOL    HW179575   7.233   3.288   3.826
92581SOL    HW279576   7.352   3.197   3.804
92582SOL     OW79577  13.979  11.942   5.959
92582SOL    HW179578  13.886  11.966   5.960
92582SOL    HW279579  14.023  12.018   5.920
92583SOL     OW79580   0.922  13.609  10.985
92583SOL    HW179581   0.880  13.571  10.908
92583SOL    HW279582   0.998  13.552  11.001
92584SOL     OW79583   8.639   8.252   3.106
92584SOL    HW179584   8.671   8.302   3.031
92584SOL    HW279585   8.643   8.161   3.077
92585SOL     OW79586   4.586   1.211   9.572
92585SOL    HW179587   4.544   1.134   9.612
92585SOL    HW279588   4.562   1.205   9.479
92586SOL     OW79589   4.830   9.574   9.226
92586SOL    HW179590   4.829   9.494   9.279
92586SOL    HW279591   4.921   9.582   9.196
92587SOL     OW79592   7.387   5.613   4.713
92587SOL    HW179593   7.360   5.660   4.792
92587SOL    HW279594   7.430   5.679   4.659
92588SOL     OW79595  12.858   5.643  10.420
92588SOL    HW179596  12.793   5.616  10.486
92588SOL    HW279597  12.940   5.604  10.451
92589SOL     OW79598   9.028   5.297   1.079
92589SOL    HW179599   9.122   5.295   1.100
92589SOL    HW279600   8.986   5.256   1.155
92590SOL     OW79601   2.946  13.436   1.647
92590SOL    HW179602   2.876  13.475   1.700
92590SOL    HW279603   2.913  13.348   1.625
92591SOL     OW79604   3.344   2.746   0.563
92591SOL    HW179605   3.335   2.842   0.569
92591SOL    HW279606   3.407   2.723   0.631
92592SOL     OW79607   2.748   4.707   6.177
92592SOL    HW179608   2.751   4.691   6.271
92592SOL    HW279609   2.820   4.769   6.161
92593SOL     OW79610   2.420   4.476   6.908
92593SOL    HW179611   2.377   4.510   6.986
92593SOL    HW279612   2.392   4.384   6.902
92594SOL     OW79613   1.158   1.902   3.569
92594SOL    HW179614   1.228   1.960   3.598
92594SOL    HW279615   1.164   1.825   3.625
92595SOL     OW79616   1.806   9.278   1.220
92595SOL    HW179617   1.853   9.316   1.147
92595SOL    HW279618   1.716   9.309   1.210
92596SOL     OW79619   5.879   3.707   1.700
92596SOL    HW179620   5.804   3.647   1.690
92596SOL    HW279621   5.872   3.766   1.625
92597SOL     OW79622   7.334   1.397  12.251
92597SOL    HW179623   7.309   1.432  12.166
92597SOL    HW279624   7.407   1.338  12.233
92598SOL     OW79625   2.117  14.847   6.628
92598SOL    HW179626   2.143   0.056   6.593
92598SOL    HW279627   2.054  14.868   6.697
92599SOL     OW79628  11.100  13.522   0.572
92599SOL    HW179629  11.066  13.607   0.603
92599SOL    HW279630  11.177  13.506   0.627
92600SOL     OW79631   3.973   1.986  12.320
92600SOL    HW179632   3.936   1.982  12.408
92600SOL    HW279633   3.941   2.069  12.284
92601SOL     OW79634  10.056  14.721   3.074
92601SOL    HW179635  10.082  14.774   3.150
92601SOL    HW279636  10.129  14.731   3.013
92602SOL     OW79637  11.580   3.761   1.514
92602SOL    HW179638  11.619   3.774   1.428
92602SOL    HW279639  11.655   3.737   1.570
92603SOL     OW79640  10.599  12.514   1.660
92603SOL    HW179641  10.616  12.602   1.626
92603SOL    HW279642  10.680  12.466   1.645
92604SOL     OW79643   1.825   4.485   5.186
92604SOL    HW179644   1.862   4.417   5.241
92604SOL    HW279645   1.756   4.441   5.136
92605SOL     OW79646   0.657   8.957  10.901
92605SOL    HW179647   0.591   9.023  10.924
92605SOL    HW279648   0.690   8.986  10.816
92606SOL     OW79649   2.087  14.529   3.409
92606SOL    HW179650   2.061  14.484   3.489
92606SOL    HW279651   2.180  14.511   3.400
92607SOL     OW79652   9.052   0.031  12.888
92607SOL    HW179653   9.006   0.110  12.913
92607SOL    HW279654   9.013  14.838  12.942
92608SOL     OW79655   2.179   0.058   2.318
92608SOL    HW179656   2.160  14.842   2.302
92608SOL    HW279657   2.273   0.059   2.340
92609SOL     OW79658   7.810   8.014   1.445
92609SOL    HW179659   7.736   7.997   1.504
92609SOL    HW279660   7.869   7.940   1.459
92610SOL     OW79661   1.394   8.532  14.527
92610SOL    HW179662   1.345   8.522  14.609
92610SOL    HW279663   1.331   8.570  14.466
92611SOL     OW79664   1.961   3.601  10.399
92611SOL    HW179665   1.937   3.517  10.440
92611SOL    HW279666   2.036   3.632  10.449
92612SOL     OW79667   4.721  10.738   0.865
92612SOL    HW179668   4.631  10.769   0.851
92612SOL    HW279669   4.753  10.793   0.937
92613SOL     OW79670   3.727   2.712  10.179
92613SOL    HW179671   3.771   2.653  10.117
92613SOL    HW279672   3.645   2.668  10.200
92614SOL     OW79673   1.543  11.218   2.513
92614SOL    HW179674   1.521  11.150   2.450
92614SOL    HW279675   1.465  11.273   2.517
92615SOL     OW79676  13.635   8.321   3.456
92615SOL    HW179677  13.612   8.408   3.423
92615SOL    HW279678  13.730   8.321   3.459
92616SOL     OW79679  13.062   3.935  14.610
92616SOL    HW179680  13.069   4.002  14.678
92616SOL    HW279681  13.025   3.859  14.654
92617SOL     OW79682   8.795   6.241   1.344
92617SOL    HW179683   8.776   6.334   1.341
92617SOL    HW279684   8.710   6.198   1.339
92618SOL     OW79685   5.400  10.990   5.030
92618SOL    HW179686   5.375  11.080   5.050
92618SOL    HW279687   5.371  10.976   4.940
92619SOL     OW79688   9.442  12.533   4.453
92619SOL    HW179689   9.531  12.521   4.483
92619SOL    HW279690   9.449  12.593   4.379
92620SOL     OW79691   1.746   1.323  10.157
92620SOL    HW179692   1.715   1.259  10.221
92620SOL    HW279693   1.787   1.270  10.088
92621SOL     OW79694   3.982   3.121   2.244
92621SOL    HW179695   4.055   3.147   2.188
92621SOL    HW279696   4.005   3.155   2.330
92622SOL     OW79697   4.205   2.701   0.293
92622SOL    HW179698   4.161   2.737   0.216
92622SOL    HW279699   4.268   2.769   0.318
92623SOL     OW79700   8.913  14.191  12.511
92623SOL    HW179701   8.902  14.267  12.453
92623SOL    HW279702   8.995  14.150  12.481
92624SOL     OW79703   9.178  14.452   0.715
92624SOL    HW179704   9.221  14.367   0.708
92624SOL    HW279705   9.247  14.512   0.743
92625SOL     OW79706   9.466   3.547   5.001
92625SOL    HW179707   9.519   3.622   4.974
92625SOL    HW279708   9.405   3.582   5.065
92626SOL     OW79709   7.592  11.256   0.327
92626SOL    HW179710   7.620  11.315   0.258
92626SOL    HW279711   7.497  11.258   0.324
92627SOL     OW79712   8.387   9.053   0.838
92627SOL    HW179713   8.345   9.015   0.760
92627SOL    HW279714   8.454   9.111   0.803
92628SOL     OW79715  14.092   2.473   1.100
92628SOL    HW179716  14.075   2.440   1.189
92628SOL    HW279717  14.187   2.473   1.093
92629SOL     OW79718   6.376  12.502  12.987
92629SOL    HW179719   6.343  12.545  13.066
92629SOL    HW279720   6.394  12.574  12.927
92630SOL     OW79721   5.301  10.486   0.577
92630SOL    HW179722   5.380  10.519   0.536
92630SOL    HW279723   5.283  10.547   0.649
92631SOL     OW79724  10.619   7.405  14.262
92631SOL    HW179725  10.530   7.439  14.256
92631SOL    HW279726  10.668   7.474  14.307
92632SOL     OW79727   5.195  11.387   7.395
92632SOL    HW179728   5.266  11.411   7.454
92632SOL    HW279729   5.219  11.300   7.363
92633SOL     OW79730  10.980   9.189   9.353
92633SOL    HW179731  10.961   9.110   9.302
92633SOL    HW279732  10.908   9.248   9.334
92634SOL     OW79733   9.004  12.787   2.184
92634SOL    HW179734   9.097  12.787   2.208
92634SOL    HW279735   9.001  12.743   2.099
92635SOL     OW79736   2.053   8.422   8.971
92635SOL    HW179737   2.133   8.437   9.022
92635SOL    HW279738   2.063   8.333   8.938
92636SOL     OW79739   6.166   0.022   2.970
92636SOL    HW179740   6.203  14.809   2.965
92636SOL    HW279741   6.077   0.012   2.935
92637SOL     OW79742  14.770  13.174   1.322
92637SOL    HW179743  14.848  13.171   1.378
92637SOL    HW279744  14.771  13.091   1.274
92638SOL     OW79745  11.838   1.854   7.948
92638SOL    HW179746  11.875   1.941   7.961
92638SOL    HW279747  11.820   1.850   7.854
92639SOL     OW79748  11.045   2.876  13.650
92639SOL    HW179749  11.115   2.874  13.585
92639SOL    HW279750  11.036   2.968  13.674
92640SOL     OW79751  12.390   2.272  13.225
92640SOL    HW179752  12.357   2.249  13.312
92640SOL    HW279753  12.442   2.351  13.239
92641SOL     OW79754   2.702   2.811   1.827
92641SOL    HW179755   2.789   2.808   1.867
92641SOL    HW279756   2.714   2.774   1.740
92642SOL     OW79757  13.805   4.396  12.348
92642SOL    HW179758  13.796   4.491  12.337
92642SOL    HW279759  13.755   4.359  12.275
92643SOL     OW79760  14.155   4.573   4.055
92643SOL    HW179761  14.204   4.633   4.113
92643SOL    HW279762  14.173   4.486   4.090
92644SOL     OW79763  13.631   3.815   3.044
92644SOL    HW179764  13.641   3.905   3.076
92644SOL    HW279765  13.720   3.787   3.024
92645SOL     OW79766   5.294   1.839   9.935
92645SOL    HW179767   5.360   1.869   9.872
92645SOL    HW279768   5.229   1.909   9.938
92646SOL     OW79769   1.338  13.481   3.963
92646SOL    HW179770   1.307  13.420   4.029
92646SOL    HW279771   1.360  13.426   3.888
92647SOL     OW79772   7.152  14.144  12.788
92647SOL    HW179773   7.130  14.084  12.716
92647SOL    HW279774   7.240  14.118  12.815
92648SOL     OW79775   9.814  11.836   4.279
92648SOL    HW179776   9.783  11.752   4.311
92648SOL    HW279777   9.743  11.869   4.224
92649SOL     OW79778  11.622  12.754   3.902
92649SOL    HW179779  11.558  12.801   3.848
92649SOL    HW279780  11.654  12.820   3.964
92650SOL     OW79781   0.778  12.820   1.826
92650SOL    HW179782   0.733  12.800   1.743
92650SOL    HW279783   0.868  12.791   1.812
92651SOL     OW79784  11.417  12.410   3.157
92651SOL    HW179785  11.382  12.382   3.073
92651SOL    HW279786  11.506  12.440   3.138
92652SOL     OW79787   1.955  11.463  12.647
92652SOL    HW179788   2.014  11.479  12.720
92652SOL    HW279789   1.958  11.368  12.634
92653SOL     OW79790   0.564   6.441  11.349
92653SOL    HW179791   0.551   6.519  11.295
92653SOL    HW279792   0.498   6.448  11.417
92654SOL     OW79793  12.450   2.470  12.686
92654SOL    HW179794  12.360   2.469  12.652
92654SOL    HW279795  12.442   2.509  12.773
92655SOL     OW79796   2.193   2.813  14.330
92655SOL    HW179797   2.161   2.806  14.240
92655SOL    HW279798   2.288   2.818  14.322
92656SOL     OW79799   4.900   6.008   2.082
92656SOL    HW179800   4.966   5.969   2.140
92656SOL    HW279801   4.837   6.049   2.142
92657SOL     OW79802   0.527   3.536   9.604
92657SOL    HW179803   0.594   3.475   9.574
92657SOL    HW279804   0.473   3.553   9.526
92658SOL     OW79805  13.032   6.203   2.527
92658SOL    HW179806  13.113   6.216   2.575
92658SOL    HW279807  12.963   6.221   2.590
92659SOL     OW79808  13.431   1.135   2.827
92659SOL    HW179809  13.393   1.205   2.775
92659SOL    HW279810  13.486   1.086   2.765
92660SOL     OW79811  11.877   0.083  12.723
92660SOL    HW179812  11.915   0.051  12.805
92660SOL    HW279813  11.947   0.136  12.684
92661SOL     OW79814   8.205  14.667   3.637
92661SOL    HW179815   8.136  14.601   3.630
92661SOL    HW279816   8.286  14.619   3.618
92662SOL     OW79817  10.370   7.882  14.091
92662SOL    HW179818  10.412   7.966  14.108
92662SOL    HW279819  10.443   7.819  14.089
92663SOL     OW79820   6.736   5.084   4.349
92663SOL    HW179821   6.695   5.153   4.297
92663SOL    HW279822   6.777   5.027   4.283
92664SOL     OW79823   2.675   2.608   2.623
92664SOL    HW179824   2.638   2.693   2.649
92664SOL    HW279825   2.739   2.630   2.556
92665SOL     OW79826  12.949  14.514   7.960
92665SOL    HW179827  12.936  14.542   8.051
92665SOL    HW279828  12.945  14.595   7.909
92666SOL     OW79829   2.425  13.727   7.645
92666SOL    HW179830   2.422  13.822   7.652
92666SOL    HW279831   2.417  13.696   7.735
92667SOL     OW79832  12.782   8.741   4.608
92667SOL    HW179833  12.854   8.741   4.546
92667SOL    HW279834  12.796   8.662   4.661
92668SOL     OW79835   5.417  12.289   1.214
92668SOL    HW179836   5.430  12.240   1.296
92668SOL    HW279837   5.337  12.339   1.228
92669SOL     OW79838   1.085  10.069  11.089
92669SOL    HW179839   1.035  10.140  11.128
92669SOL    HW279840   1.061  10.071  10.996
92670SOL     OW79841   0.053  14.685   7.436
92670SOL    HW179842   0.058  14.688   7.531
92670SOL    HW279843   0.062  14.593   7.413
92671SOL     OW79844   3.377   7.363   6.509
92671SOL    HW179845   3.445   7.375   6.575
92671SOL    HW279846   3.319   7.296   6.546
92672SOL     OW79847  13.511   2.558  10.360
92672SOL    HW179848  13.465   2.489  10.312
92672SOL    HW279849  13.515   2.527  10.450
92673SOL     OW79850  10.706   7.282   4.064
92673SOL    HW179851  10.658   7.253   4.142
92673SOL    HW279852  10.763   7.208   4.043
92674SOL     OW79853  10.043   1.580   6.108
92674SOL    HW179854  10.103   1.518   6.067
92674SOL    HW279855  10.007   1.631   6.035
92675SOL     OW79856  12.565  11.789   8.159
92675SOL    HW179857  12.540  11.798   8.067
92675SOL    HW279858  12.561  11.878   8.194
92676SOL     OW79859   1.616  10.706   0.083
92676SOL    HW179860   1.676  10.780   0.093
92676SOL    HW279861   1.544  10.740   0.031
92677SOL     OW79862   9.800   1.382   4.778
92677SOL    HW179863   9.735   1.314   4.793
92677SOL    HW279864   9.753   1.464   4.791
92678SOL     OW79865  11.779  13.020   3.249
92678SOL    HW179866  11.706  13.047   3.193
92678SOL    HW279867  11.790  12.927   3.232
92679SOL     OW79868  11.187   1.215  14.664
92679SOL    HW179869  11.260   1.153  14.662
92679SOL    HW279870  11.111   1.164  14.638
92680SOL     OW79871  14.045  10.038  12.738
92680SOL    HW179872  14.052  10.127  12.702
92680SOL    HW279873  13.956  10.011  12.717
92681SOL     OW79874   7.369  10.356   5.587
92681SOL    HW179875   7.412  10.274   5.610
92681SOL    HW279876   7.351  10.348   5.493
92682SOL     OW79877  10.344   5.343   4.271
92682SOL    HW179878  10.355   5.261   4.223
92682SOL    HW279879  10.372   5.411   4.211
92683SOL     OW79880  14.784  11.116   9.301
92683SOL    HW179881  14.845  11.056   9.259
92683SOL    HW279882  14.840  11.185   9.337
92684SOL     OW79883   7.971  14.721   8.209
92684SOL    HW179884   7.908  14.748   8.143
92684SOL    HW279885   8.054  14.717   8.163
92685SOL     OW79886  13.067  12.760   1.200
92685SOL    HW179887  13.086  12.753   1.294
92685SOL    HW279888  12.984  12.713   1.189
92686SOL     OW79889   8.304  13.084   7.741
92686SOL    HW179890   8.212  13.072   7.766
92686SOL    HW279891   8.319  13.178   7.750
92687SOL     OW79892   7.435   3.260  12.908
92687SOL    HW179893   7.521   3.283  12.943
92687SOL    HW279894   7.414   3.176  12.948
92688SOL     OW79895  12.095   8.083   9.282
92688SOL    HW179896  12.127   8.172   9.289
92688SOL    HW279897  12.009   8.085   9.324
92689SOL     OW79898   6.145   8.418  10.339
92689SOL    HW179899   6.091   8.471  10.398
92689SOL    HW279900   6.139   8.329  10.374
92690SOL     OW79901   8.062   6.967  13.208
92690SOL    HW179902   8.156   6.949  13.207
92690SOL    HW279903   8.023   6.887  13.175
92691SOL     OW79904   7.190   6.575   3.605
92691SOL    HW179905   7.198   6.670   3.613
92691SOL    HW279906   7.186   6.559   3.511
92692SOL     OW79907   8.129  13.072  11.119
92692SOL    HW179908   8.195  13.025  11.068
92692SOL    HW279909   8.165  13.159  11.131
92693SOL     OW79910  11.674   1.207  11.233
92693SOL    HW179911  11.702   1.179  11.320
92693SOL    HW279912  11.591   1.163  11.219
92694SOL     OW79913  10.958   6.348   8.839
92694SOL    HW179914  10.867   6.322   8.835
92694SOL    HW279915  10.973   6.371   8.931
92695SOL     OW79916  11.598   7.590   5.871
92695SOL    HW179917  11.531   7.534   5.911
92695SOL    HW279918  11.680   7.561   5.910
92696SOL     OW79919   7.249   3.551   5.903
92696SOL    HW179920   7.286   3.556   5.816
92696SOL    HW279921   7.254   3.458   5.926
92697SOL     OW79922  11.708  14.162   9.336
92697SOL    HW179923  11.760  14.141   9.414
92697SOL    HW279924  11.738  14.099   9.271
92698SOL     OW79925   2.820   6.618  13.868
92698SOL    HW179926   2.867   6.593  13.789
92698SOL    HW279927   2.809   6.536  13.916
92699SOL     OW79928   0.251   8.401   3.568
92699SOL    HW179929   0.202   8.401   3.486
92699SOL    HW279930   0.312   8.474   3.560
92700SOL     OW79931   9.830   4.254   3.367
92700SOL    HW179932   9.844   4.160   3.377
92700SOL    HW279933   9.917   4.292   3.373
92701SOL     OW79934   3.487   8.270  10.545
92701SOL    HW179935   3.569   8.319  10.535
92701SOL    HW279936   3.458   8.291  10.634
92702SOL     OW79937  14.383   1.237   0.741
92702SOL    HW179938  14.362   1.328   0.720
92702SOL    HW279939  14.470   1.242   0.781
92703SOL     OW79940   9.245   8.505  11.851
92703SOL    HW179941   9.184   8.470  11.916
92703SOL    HW279942   9.216   8.468  11.768
92704SOL     OW79943   8.351   0.223  11.110
92704SOL    HW179944   8.265   0.246  11.146
92704SOL    HW279945   8.345   0.130  11.091
92705SOL     OW79946   6.003   4.243   0.975
92705SOL    HW179947   6.015   4.255   0.881
92705SOL    HW279948   6.077   4.190   1.002
92706SOL     OW79949  12.278  14.697   4.228
92706SOL    HW179950  12.265  14.628   4.163
92706SOL    HW279951  12.370  14.720   4.219
92707SOL     OW79952   8.983  13.511   6.182
92707SOL    HW179953   9.059  13.465   6.144
92707SOL    HW279954   8.994  13.602   6.154
92708SOL     OW79955  10.061   2.726   0.851
92708SOL    HW179956  10.061   2.819   0.873
92708SOL    HW279957  10.083   2.723   0.758
92709SOL     OW79958  11.579   6.222  13.646
92709SOL    HW179959  11.505   6.178  13.689
92709SOL    HW279960  11.558   6.315  13.652
92710SOL     OW79961   4.886  13.550   0.465
92710SOL    HW179962   4.886  13.642   0.440
92710SOL    HW279963   4.793  13.529   0.479
92711SOL     OW79964   6.288   6.000   4.236
92711SOL    HW179965   6.272   6.041   4.151
92711SOL    HW279966   6.360   6.050   4.274
92712SOL     OW79967   2.193   6.765   8.771
92712SOL    HW179968   2.187   6.841   8.713
92712SOL    HW279969   2.104   6.750   8.801
92713SOL     OW79970  11.151   4.356   6.555
92713SOL    HW179971  11.105   4.322   6.632
92713SOL    HW279972  11.089   4.343   6.483
92714SOL     OW79973   9.589   6.223   5.556
92714SOL    HW179974   9.542   6.305   5.539
92714SOL    HW279975   9.621   6.196   5.470
92715SOL     OW79976  11.645  13.500   2.771
92715SOL    HW179977  11.686  13.520   2.855
92715SOL    HW279978  11.710  13.447   2.725
92716SOL     OW79979  12.551   0.469  13.283
92716SOL    HW179980  12.538   0.535  13.351
92716SOL    HW279981  12.464   0.433  13.268
92717SOL     OW79982  11.252   8.940   3.767
92717SOL    HW179983  11.323   8.913   3.709
92717SOL    HW279984  11.197   8.997   3.713
92718SOL     OW79985   2.460  12.604   1.073
92718SOL    HW179986   2.505  12.650   1.144
92718SOL    HW279987   2.440  12.517   1.109
92719SOL     OW79988   7.065  13.377   6.121
92719SOL    HW179989   6.980  13.393   6.160
92719SOL    HW279990   7.050  13.380   6.027
92720SOL     OW79991   0.866   1.091   9.640
92720SOL    HW179992   0.842   1.024   9.704
92720SOL    HW279993   0.879   1.043   9.558
92721SOL     OW79994  11.498   9.659  11.460
92721SOL    HW179995  11.506   9.745  11.501
92721SOL    HW279996  11.588   9.634  11.439
92722SOL     OW79997  14.328   0.127   6.028
92722SOL    HW179998  14.410   0.167   5.999
92722SOL    HW279999  14.262   0.195   6.015
92723SOL     OW80000   3.787  11.456   9.521
92723SOL    HW180001   3.755  11.452   9.611
92723SOL    HW280002   3.713  11.493   9.471
92724SOL     OW80003   0.912  14.420  10.202
92724SOL    HW180004   0.962  14.500  10.186
92724SOL    HW280005   0.959  14.352  10.155
92725SOL     OW80006   2.822  11.085  13.424
92725SOL    HW180007   2.748  11.134  13.387
92725SOL    HW280008   2.872  11.150  13.473
92726SOL     OW80009   9.105  11.003   6.291
92726SOL    HW180010   9.108  11.000   6.387
92726SOL    HW280011   9.165  11.073   6.268
92727SOL     OW80012  13.907  11.044  11.691
92727SOL    HW180013  13.814  11.065  11.701
92727SOL    HW280014  13.942  11.112  11.634
92728SOL     OW80015   0.092  11.984  12.236
92728SOL    HW180016   0.185  12.005  12.239
92728SOL    HW280017   0.089  11.890  12.217
92729SOL     OW80018  11.540  10.823   1.425
92729SOL    HW180019  11.635  10.809   1.422
92729SOL    HW280020  11.511  10.810   1.334
92730SOL     OW80021   4.371   0.334   0.484
92730SOL    HW180022   4.380   0.239   0.491
92730SOL    HW280023   4.365   0.351   0.390
92731SOL     OW80024  13.175   9.430  11.071
92731SOL    HW180025  13.207   9.459  10.986
92731SOL    HW280026  13.086   9.399  11.054
92732SOL     OW80027   9.099   3.309   8.264
92732SOL    HW180028   9.137   3.305   8.352
92732SOL    HW280029   9.154   3.370   8.216
92733SOL     OW80030   7.430   7.533   5.546
92733SOL    HW180031   7.341   7.515   5.513
92733SOL    HW280032   7.419   7.609   5.603
92734SOL     OW80033   7.139  12.836  14.215
92734SOL    HW180034   7.121  12.746  14.190
92734SOL    HW280035   7.058  12.867  14.254
92735SOL     OW80036   7.170  11.155   3.586
92735SOL    HW180037   7.084  11.190   3.560
92735SOL    HW280038   7.204  11.113   3.507
92736SOL     OW80039   9.977  13.114   9.445
92736SOL    HW180040  10.001  13.021   9.442
92736SOL    HW280041   9.882  13.113   9.456
92737SOL     OW80042   8.055  10.585   2.985
92737SOL    HW180043   8.003  10.608   2.908
92737SOL    HW280044   8.029  10.495   3.006
92738SOL     OW80045   8.118   3.229   9.414
92738SOL    HW180046   8.137   3.317   9.447
92738SOL    HW280047   8.109   3.176   9.493
92739SOL     OW80048  14.558  12.549   1.461
92739SOL    HW180049  14.605  12.630   1.480
92739SOL    HW280050  14.614  12.480   1.497
92740SOL     OW80051   0.038  13.762  11.025
92740SOL    HW180052   0.004  13.848  11.050
92740SOL    HW280053  14.859  13.699  11.073
92741SOL     OW80054   5.705   6.353   5.345
92741SOL    HW180055   5.699   6.388   5.434
92741SOL    HW280056   5.646   6.278   5.344
92742SOL     OW80057   0.864  11.817  13.761
92742SOL    HW180058   0.859  11.787  13.852
92742SOL    HW280059   0.952  11.793  13.733
92743SOL     OW80060   1.065   9.692   1.596
92743SOL    HW180061   1.026   9.616   1.640
92743SOL    HW280062   1.011   9.705   1.518
92744SOL     OW80063  12.482   2.555   0.723
92744SOL    HW180064  12.511   2.608   0.649
92744SOL    HW280065  12.435   2.616   0.780
92745SOL     OW80066   1.622  13.928   3.143
92745SOL    HW180067   1.552  13.922   3.209
92745SOL    HW280068   1.644  13.837   3.122
92746SOL     OW80069   4.028   7.792  10.365
92746SOL    HW180070   4.077   7.841  10.299
92746SOL    HW280071   4.034   7.701  10.337
92747SOL     OW80072   9.270  13.845   2.741
92747SOL    HW180073   9.330  13.910   2.703
92747SOL    HW280074   9.190  13.895   2.759
92748SOL     OW80075   9.177  13.161  11.811
92748SOL    HW180076   9.212  13.212  11.738
92748SOL    HW280077   9.093  13.202  11.831
92749SOL     OW80078  13.223   3.859   2.266
92749SOL    HW180079  13.244   3.776   2.308
92749SOL    HW280080  13.305   3.889   2.228
92750SOL     OW80081   2.404   5.889  12.570
92750SOL    HW180082   2.406   5.931  12.656
92750SOL    HW280083   2.483   5.834  12.568
92751SOL     OW80084   2.632   6.547   9.507
92751SOL    HW180085   2.709   6.552   9.564
92751SOL    HW280086   2.666   6.555   9.418
92752SOL     OW80087   0.700  12.278   2.696
92752SOL    HW180088   0.744  12.361   2.717
92752SOL    HW280089   0.646  12.299   2.619
92753SOL     OW80090   8.833   9.016   3.425
92753SOL    HW180091   8.922   9.050   3.436
92753SOL    HW280092   8.826   8.947   3.492
92754SOL     OW80093   9.298  13.029   5.798
92754SOL    HW180094   9.285  13.035   5.703
92754SOL    HW280095   9.386  13.065   5.812
92755SOL     OW80096   2.314   3.642   3.214
92755SOL    HW180097   2.367   3.722   3.207
92755SOL    HW280098   2.225   3.674   3.233
92756SOL     OW80099  10.260  13.276   2.488
92756SOL    HW180100  10.166  13.259   2.494
92756SOL    HW280101  10.267  13.355   2.436
92757SOL     OW80102   4.935  12.966   7.519
92757SOL    HW180103   4.968  13.025   7.451
92757SOL    HW280104   4.988  12.886   7.509
92758SOL     OW80105   8.240  13.001  11.398
92758SOL    HW180106   8.180  12.943  11.445
92758SOL    HW280107   8.229  12.977  11.306
92759SOL     OW80108   1.359  14.533   8.726
92759SOL    HW180109   1.289  14.575   8.777
92759SOL    HW280110   1.364  14.586   8.646
92760SOL     OW80111   1.787   0.919  14.274
92760SOL    HW180112   1.847   0.894  14.204
92760SOL    HW280113   1.790   0.846  14.336
92761SOL     OW80114   4.879   8.964  11.127
92761SOL    HW180115   4.894   9.058  11.119
92761SOL    HW280116   4.857   8.952  11.220
92762SOL     OW80117  12.194  11.586  14.131
92762SOL    HW180118  12.119  11.570  14.074
92762SOL    HW280119  12.259  11.626  14.074
92763SOL     OW80120   4.442  12.524   0.564
92763SOL    HW180121   4.460  12.617   0.571
92763SOL    HW280122   4.371  12.518   0.501
92764SOL     OW80123   0.539   5.895  12.953
92764SOL    HW180124   0.444   5.897  12.941
92764SOL    HW280125   0.551   5.911  13.047
92765SOL     OW80126  14.095   3.177  11.797
92765SOL    HW180127  14.096   3.158  11.703
92765SOL    HW280128  14.120   3.095  11.839
92766SOL     OW80129   8.707   0.257  14.032
92766SOL    HW180130   8.802   0.260  14.037
92766SOL    HW280131   8.688   0.251  13.939
92767SOL     OW80132   2.777   7.868   7.491
92767SOL    HW180133   2.764   7.918   7.410
92767SOL    HW280134   2.734   7.920   7.558
92768SOL     OW80135   3.357   8.009  10.072
92768SOL    HW180136   3.420   8.078  10.052
92768SOL    HW280137   3.284   8.054  10.113
92769SOL     OW80138   1.254  10.243   5.441
92769SOL    HW180139   1.274  10.154   5.414
92769SOL    HW280140   1.159  10.244   5.453
92770SOL     OW80141   8.516   5.792  12.099
92770SOL    HW180142   8.571   5.735  12.153
92770SOL    HW280143   8.447   5.822  12.159
92771SOL     OW80144   0.170   0.694   7.569
92771SOL    HW180145   0.169   0.638   7.492
92771SOL    HW280146   0.081   0.726   7.577
92772SOL     OW80147   3.557   0.241   9.461
92772SOL    HW180148   3.517   0.254   9.547
92772SOL    HW280149   3.646   0.276   9.471
92773SOL     OW80150  10.579  10.689   9.704
92773SOL    HW180151  10.583  10.726   9.793
92773SOL    HW280152  10.668  10.696   9.671
92774SOL     OW80153  13.650   1.724  11.750
92774SOL    HW180154  13.629   1.780  11.825
92774SOL    HW280155  13.607   1.765  11.676
92775SOL     OW80156   1.911   4.531   2.629
92775SOL    HW180157   1.932   4.590   2.701
92775SOL    HW280158   1.995   4.510   2.589
92776SOL     OW80159   9.220   6.734   7.568
92776SOL    HW180160   9.297   6.681   7.547
92776SOL    HW280161   9.234   6.816   7.520
92777SOL     OW80162  11.678   2.754   2.990
92777SOL    HW180163  11.709   2.840   3.020
92777SOL    HW280164  11.690   2.756   2.895
92778SOL     OW80165   9.803  11.116   2.688
92778SOL    HW180166   9.752  11.196   2.683
92778SOL    HW280167   9.789  11.084   2.778
92779SOL     OW80168   9.714   0.176  13.800
92779SOL    HW180169   9.645   0.233  13.766
92779SOL    HW280170   9.742   0.124  13.724
92780SOL     OW80171  12.107   7.307   6.519
92780SOL    HW180172  12.035   7.337   6.574
92780SOL    HW280173  12.160   7.386   6.503
92781SOL     OW80174   7.356  10.970   3.969
92781SOL    HW180175   7.437  10.967   4.020
92781SOL    HW280176   7.286  10.963   4.034
92782SOL     OW80177   6.979  11.985   4.092
92782SOL    HW180178   6.934  12.065   4.065
92782SOL    HW280179   7.048  12.015   4.151
92783SOL     OW80180   9.261   3.048   6.214
92783SOL    HW180181   9.303   3.113   6.270
92783SOL    HW280182   9.191   3.011   6.268
92784SOL     OW80183  12.100   5.311   9.411
92784SOL    HW180184  12.086   5.379   9.476
92784SOL    HW280185  12.192   5.285   9.423
92785SOL     OW80186   1.039   2.288   5.294
92785SOL    HW180187   1.113   2.340   5.261
92785SOL    HW280188   1.047   2.295   5.390
92786SOL     OW80189   5.508  11.763   4.220
92786SOL    HW180190   5.584  11.816   4.245
92786SOL    HW280191   5.470  11.737   4.304
92787SOL     OW80192   6.038  10.931   8.360
92787SOL    HW180193   5.962  10.873   8.354
92787SOL    HW280194   6.029  10.989   8.284
92788SOL     OW80195  10.950   4.722   6.036
92788SOL    HW180196  10.990   4.710   6.123
92788SOL    HW280197  11.023   4.745   5.979
92789SOL     OW80198   6.701   4.782  13.841
92789SOL    HW180199   6.622   4.757  13.889
92789SOL    HW280200   6.763   4.712  13.859
92790SOL     OW80201   7.924   8.224  12.599
92790SOL    HW180202   7.914   8.134  12.569
92790SOL    HW280203   7.994   8.220  12.665
92791SOL     OW80204   2.356  10.604   1.771
92791SOL    HW180205   2.363  10.581   1.679
92791SOL    HW280206   2.430  10.663   1.787
92792SOL     OW80207   5.238  12.521  13.957
92792SOL    HW180208   5.150  12.519  13.921
92792SOL    HW280209   5.233  12.581  14.031
92793SOL     OW80210   9.765  10.703   0.657
92793SOL    HW180211   9.762  10.777   0.718
92793SOL    HW280212   9.749  10.743   0.571
92794SOL     OW80213   8.910  12.753  14.161
92794SOL    HW180214   8.856  12.832  14.155
92794SOL    HW280215   8.918  12.723  14.071
92795SOL     OW80216   5.816  11.084   0.590
92795SOL    HW180217   5.768  11.008   0.623
92795SOL    HW280218   5.754  11.130   0.534
92796SOL     OW80219   6.550  10.947   7.450
92796SOL    HW180220   6.477  11.003   7.424
92796SOL    HW280221   6.612  10.951   7.377
92797SOL     OW80222  12.273   3.843   5.017
92797SOL    HW180223  12.307   3.931   4.998
92797SOL    HW280224  12.296   3.828   5.108
92798SOL     OW80225   7.940   6.882  11.799
92798SOL    HW180226   8.015   6.853  11.747
92798SOL    HW280227   7.922   6.809  11.859
92799SOL     OW80228   2.621  13.079   6.413
92799SOL    HW180229   2.534  13.080   6.373
92799SOL    HW280230   2.673  13.139   6.359
92800SOL     OW80231  10.200   8.283   4.206
92800SOL    HW180232  10.163   8.357   4.253
92800SOL    HW280233  10.177   8.207   4.260
92801SOL     OW80234   1.093   3.415   8.258
92801SOL    HW180235   1.049   3.480   8.202
92801SOL    HW280236   1.109   3.340   8.199
92802SOL     OW80237   1.607   1.739   6.892
92802SOL    HW180238   1.678   1.786   6.935
92802SOL    HW280239   1.602   1.778   6.805
92803SOL     OW80240   9.485  14.323   5.297
92803SOL    HW180241   9.428  14.272   5.239
92803SOL    HW280242   9.531  14.383   5.238
92804SOL     OW80243   1.229  10.048   9.181
92804SOL    HW180244   1.252  10.139   9.164
92804SOL    HW280245   1.191  10.049   9.269
92805SOL     OW80246   1.295   6.474   4.912
92805SOL    HW180247   1.273   6.544   4.850
92805SOL    HW280248   1.231   6.484   4.983
92806SOL     OW80249   6.579   8.718  13.620
92806SOL    HW180250   6.514   8.649  13.611
92806SOL    HW280251   6.643   8.700  13.551
92807SOL     OW80252   7.227   2.233  14.507
92807SOL    HW180253   7.277   2.158  14.538
92807SOL    HW280254   7.148   2.234  14.562
92808SOL     OW80255  14.608  13.318   9.351
92808SOL    HW180256  14.518  13.309   9.380
92808SOL    HW280257  14.617  13.258   9.278
92809SOL     OW80258   3.325   4.880   7.426
92809SOL    HW180259   3.235   4.848   7.425
92809SOL    HW280260   3.379   4.801   7.418
92810SOL     OW80261   4.980   2.945   3.987
92810SOL    HW180262   5.022   3.004   3.924
92810SOL    HW280263   5.014   2.972   4.072
92811SOL     OW80264  12.549   7.184   3.627
92811SOL    HW180265  12.458   7.173   3.598
92811SOL    HW280266  12.542   7.217   3.716
92812SOL     OW80267   2.041  11.935   1.354
92812SOL    HW180268   2.094  11.956   1.431
92812SOL    HW280269   2.101  11.943   1.281
92813SOL     OW80270   3.246  10.136   0.592
92813SOL    HW180271   3.172  10.153   0.651
92813SOL    HW280272   3.323  10.134   0.650
92814SOL     OW80273  14.199   2.007   8.521
92814SOL    HW180274  14.220   1.932   8.577
92814SOL    HW280275  14.276   2.064   8.530
92815SOL     OW80276  13.865  11.324   1.809
92815SOL    HW180277  13.935  11.323   1.873
92815SOL    HW280278  13.910  11.328   1.724
92816SOL     OW80279   9.790   8.318   5.910
92816SOL    HW180280   9.825   8.259   5.843
92816SOL    HW280281   9.699   8.291   5.920
92817SOL     OW80282   6.141   9.019  13.200
92817SOL    HW180283   6.119   9.100  13.155
92817SOL    HW280284   6.151   8.954  13.130
92818SOL     OW80285   1.248   9.801  10.794
92818SOL    HW180286   1.330   9.776  10.837
92818SOL    HW280287   1.181   9.753  10.842
92819SOL     OW80288   1.820   1.183   5.308
92819SOL    HW180289   1.819   1.089   5.293
92819SOL    HW280290   1.910   1.210   5.292
92820SOL     OW80291  11.430   0.951   0.081
92820SOL    HW180292  11.473   1.029   0.046
92820SOL    HW280293  11.431   0.963   0.176
92821SOL     OW80294   8.538   7.862   3.860
92821SOL    HW180295   8.559   7.885   3.950
92821SOL    HW280296   8.444   7.847   3.859
92822SOL     OW80297   9.316   6.598  13.849
92822SOL    HW180298   9.270   6.546  13.915
92822SOL    HW280299   9.385   6.541  13.816
92823SOL     OW80300   2.931   9.364  10.565
92823SOL    HW180301   2.998   9.400  10.507
92823SOL    HW280302   2.902   9.438  10.617
92824SOL     OW80303  13.043   3.838   6.770
92824SOL    HW180304  13.049   3.751   6.731
92824SOL    HW280305  13.133   3.872   6.766
92825SOL     OW80306   2.206   2.780   5.511
92825SOL    HW180307   2.177   2.859   5.467
92825SOL    HW280308   2.268   2.739   5.450
92826SOL     OW80309   6.838   3.420  13.293
92826SOL    HW180310   6.851   3.339  13.343
92826SOL    HW280311   6.772   3.468  13.343
92827SOL     OW80312   5.106  14.637  14.376
92827SOL    HW180313   5.178  14.694  14.401
92827SOL    HW280314   5.027  14.688  14.397
92828SOL     OW80315  12.147   4.107   1.050
92828SOL    HW180316  12.125   4.162   0.975
92828SOL    HW280317  12.140   4.018   1.018
92829SOL     OW80318   9.487   1.161   2.947
92829SOL    HW180319   9.526   1.075   2.932
92829SOL    HW280320   9.466   1.194   2.860
92830SOL     OW80321  13.673   0.684  10.340
92830SOL    HW180322  13.731   0.608  10.333
92830SOL    HW280323  13.618   0.680  10.262
92831SOL     OW80324   2.800   4.664   6.731
92831SOL    HW180325   2.811   4.613   6.811
92831SOL    HW280326   2.877   4.720   6.727
92832SOL     OW80327  13.717   9.923   2.840
92832SOL    HW180328  13.788   9.965   2.888
92832SOL    HW280329  13.651   9.992   2.829
92833SOL     OW80330  10.176  13.404  10.172
92833SOL    HW180331  10.260  13.441  10.200
92833SOL    HW280332  10.121  13.407  10.251
92834SOL     OW80333   0.478  14.077   5.644
92834SOL    HW180334   0.488  13.992   5.601
92834SOL    HW280335   0.547  14.079   5.710
92835SOL     OW80336  11.332   2.576   8.175
92835SOL    HW180337  11.399   2.612   8.116
92835SOL    HW280338  11.338   2.481   8.162
92836SOL     OW80339   9.547  11.612   5.384
92836SOL    HW180340   9.559  11.519   5.401
92836SOL    HW280341   9.610  11.632   5.315
92837SOL     OW80342  12.343  11.053   8.784
92837SOL    HW180343  12.361  10.985   8.849
92837SOL    HW280344  12.269  11.102   8.820
92838SOL     OW80345   2.093  11.778   1.005
92838SOL    HW180346   2.119  11.860   1.048
92838SOL    HW280347   2.148  11.711   1.046
92839SOL     OW80348  12.248   4.971   9.250
92839SOL    HW180349  12.172   4.932   9.293
92839SOL    HW280350  12.217   4.990   9.161
92840SOL     OW80351  10.383  14.845   6.955
92840SOL    HW180352  10.434  14.785   7.009
92840SOL    HW280353  10.440   0.044   6.941
92841SOL     OW80354   3.418  14.378  10.455
92841SOL    HW180355   3.355  14.447  10.433
92841SOL    HW280356   3.453  14.350  10.370
92842SOL     OW80357  14.444  12.199  13.061
92842SOL    HW180358  14.522  12.241  13.025
92842SOL    HW280359  14.445  12.222  13.154
92843SOL     OW80360   0.421   0.068  14.240
92843SOL    HW180361   0.421   0.158  14.205
92843SOL    HW280362   0.511   0.054  14.269
92844SOL     OW80363   4.274  12.854  12.549
92844SOL    HW180364   4.184  12.823  12.539
92844SOL    HW280365   4.301  12.823  12.635
92845SOL     OW80366  12.893   6.824   2.650
92845SOL    HW180367  12.819   6.862   2.602
92845SOL    HW280368  12.935   6.766   2.587
92846SOL     OW80369   8.808  13.473  13.265
92846SOL    HW180370   8.836  13.517  13.185
92846SOL    HW280371   8.734  13.526  13.297
92847SOL     OW80372   4.838  14.650   1.592
92847SOL    HW180373   4.928  14.683   1.599
92847SOL    HW280374   4.846  14.556   1.604
92848SOL     OW80375  11.088   2.296   3.544
92848SOL    HW180376  11.146   2.355   3.495
92848SOL    HW280377  11.045   2.244   3.476
92849SOL     OW80378   1.821   1.206   6.788
92849SOL    HW180379   1.779   1.284   6.752
92849SOL    HW280380   1.871   1.238   6.864
92850SOL     OW80381  13.257   8.885   9.003
92850SOL    HW180382  13.299   8.903   8.918
92850SOL    HW280383  13.163   8.883   8.983
92851SOL     OW80384   1.715   1.959   0.810
92851SOL    HW180385   1.796   1.932   0.767
92851SOL    HW280386   1.741   1.982   0.899
92852SOL     OW80387   9.164  14.039  12.619
92852SOL    HW180388   9.152  14.125  12.658
92852SOL    HW280389   9.237  14.000  12.667
92853SOL     OW80390   0.907   6.440   7.901
92853SOL    HW180391   0.860   6.420   7.982
92853SOL    HW280392   0.931   6.354   7.866
92854SOL     OW80393   1.665   1.417  12.467
92854SOL    HW180394   1.745   1.394  12.515
92854SOL    HW280395   1.601   1.436  12.536
92855SOL     OW80396  10.179   7.079  12.923
92855SOL    HW180397  10.144   7.063  13.011
92855SOL    HW280398  10.203   7.172  12.923
92856SOL     OW80399   6.492  11.943  12.603
92856SOL    HW180400   6.563  11.928  12.540
92856SOL    HW280401   6.486  11.861  12.651
92857SOL     OW80402   3.781   8.164   5.819
92857SOL    HW180403   3.756   8.073   5.839
92857SOL    HW280404   3.841   8.188   5.888
92858SOL     OW80405   1.153   2.701  14.722
92858SOL    HW180406   1.144   2.768  14.655
92858SOL    HW280407   1.241   2.666  14.710
92859SOL     OW80408   0.620   6.627  13.997
92859SOL    HW180409   0.604   6.541  14.034
92859SOL    HW280410   0.581   6.623  13.909
92860SOL     OW80411   7.662   3.746  12.144
92860SOL    HW180412   7.594   3.762  12.079
92860SOL    HW280413   7.631   3.790  12.223
92861SOL     OW80414   0.904  12.748  12.405
92861SOL    HW180415   0.819  12.781  12.435
92861SOL    HW280416   0.967  12.790  12.463
92862SOL     OW80417  11.307   3.177  13.463
92862SOL    HW180418  11.379   3.236  13.440
92862SOL    HW280419  11.237   3.235  13.493
92863SOL     OW80420   6.089   8.492   0.292
92863SOL    HW180421   6.168   8.459   0.334
92863SOL    HW280422   6.025   8.422   0.303
92864SOL     OW80423  11.039  12.717   9.546
92864SOL    HW180424  11.063  12.682   9.632
92864SOL    HW280425  11.111  12.777   9.524
92865SOL     OW80426   2.953   6.260   8.799
92865SOL    HW180427   2.913   6.199   8.862
92865SOL    HW280428   2.947   6.214   8.715
92866SOL     OW80429  11.705  10.377   8.343
92866SOL    HW180430  11.656  10.412   8.418
92866SOL    HW280431  11.797  10.386   8.368
92867SOL     OW80432  13.202   0.999  14.245
92867SOL    HW180433  13.173   0.927  14.188
92867SOL    HW280434  13.126   1.057  14.250
92868SOL     OW80435   8.192  14.259   3.189
92868SOL    HW180436   8.205  14.345   3.228
92868SOL    HW280437   8.208  14.197   3.260
92869SOL     OW80438   8.110   3.122   8.154
92869SOL    HW180439   8.052   3.100   8.081
92869SOL    HW280440   8.072   3.200   8.194
92870SOL     OW80441  11.053   4.112   0.113
92870SOL    HW180442  11.053   4.194   0.162
92870SOL    HW280443  10.979   4.063   0.148
92871SOL     OW80444  12.269  11.714   9.748
92871SOL    HW180445  12.224  11.632   9.730
92871SOL    HW280446  12.362  11.691   9.748
92872SOL     OW80447  13.240   7.969   9.315
92872SOL    HW180448  13.318   7.934   9.357
92872SOL    HW280449  13.199   8.023   9.382
92873SOL     OW80450   7.177   4.198   8.680
92873SOL    HW180451   7.191   4.115   8.635
92873SOL    HW280452   7.174   4.175   8.773
92874SOL     OW80453   0.787   3.009   3.970
92874SOL    HW180454   0.836   3.040   3.894
92874SOL    HW280455   0.696   3.024   3.947
92875SOL     OW80456   0.002  10.569   3.455
92875SOL    HW180457   0.094  10.545   3.459
92875SOL    HW280458  14.840  10.532   3.535
92876SOL     OW80459   1.953   9.773   5.924
92876SOL    HW180460   1.940   9.694   5.872
92876SOL    HW280461   1.902   9.757   6.004
92877SOL     OW80462  10.515   9.655   9.583
92877SOL    HW180463  10.564   9.610   9.515
92877SOL    HW280464  10.506   9.590   9.653
92878SOL     OW80465   5.644   0.948  10.218
92878SOL    HW180466   5.695   0.958  10.298
92878SOL    HW280467   5.686   1.006  10.155
92879SOL     OW80468   6.400   9.706   3.411
92879SOL    HW180469   6.450   9.631   3.443
92879SOL    HW280470   6.435   9.781   3.458
92880SOL     OW80471   4.852   8.915  10.541
92880SOL    HW180472   4.824   8.833  10.583
92880SOL    HW280473   4.778   8.974  10.553
92881SOL     OW80474  12.818   6.276   3.885
92881SOL    HW180475  12.845   6.350   3.830
92881SOL    HW280476  12.746   6.310   3.937
92882SOL     OW80477  14.104   7.235  12.159
92882SOL    HW180478  14.153   7.161  12.122
92882SOL    HW280479  14.079   7.288  12.084
92883SOL     OW80480   9.560   6.061  11.588
92883SOL    HW180481   9.549   6.016  11.505
92883SOL    HW280482   9.471   6.077  11.619
92884SOL     OW80483   7.981  13.935   0.652
92884SOL    HW180484   7.915  14.002   0.636
92884SOL    HW280485   8.055  13.961   0.598
92885SOL     OW80486  13.307   3.565   7.858
92885SOL    HW180487  13.291   3.507   7.932
92885SOL    HW280488  13.339   3.646   7.898
92886SOL     OW80489   3.074   0.461  10.466
92886SOL    HW180490   3.124   0.534  10.429
92886SOL    HW280491   2.984   0.477  10.439
92887SOL     OW80492   3.411  12.949   2.810
92887SOL    HW180493   3.338  12.893   2.835
92887SOL    HW280494   3.432  12.998   2.890
92888SOL     OW80495   2.634   0.572   7.547
92888SOL    HW180496   2.679   0.515   7.484
92888SOL    HW280497   2.703   0.623   7.587
92889SOL     OW80498   3.747  10.679   6.910
92889SOL    HW180499   3.784  10.690   6.997
92889SOL    HW280500   3.816  10.710   6.851
92890SOL     OW80501   6.189   7.844   3.398
92890SOL    HW180502   6.098   7.842   3.427
92890SOL    HW280503   6.205   7.936   3.376
92891SOL     OW80504   4.565  13.470   4.416
92891SOL    HW180505   4.610  13.509   4.341
92891SOL    HW280506   4.596  13.521   4.492
92892SOL     OW80507   7.576   9.816  12.510
92892SOL    HW180508   7.493   9.784  12.546
92892SOL    HW280509   7.569   9.801  12.416
92893SOL     OW80510   9.089   2.025  10.706
92893SOL    HW180511   9.141   2.056  10.780
92893SOL    HW280512   9.092   2.097  10.643
92894SOL     OW80513   0.224  10.738   4.138
92894SOL    HW180514   0.182  10.688   4.068
92894SOL    HW280515   0.223  10.829   4.107
92895SOL     OW80516   0.881   5.112  14.534
92895SOL    HW180517   0.968   5.112  14.492
92895SOL    HW280518   0.878   5.196  14.581
92896SOL     OW80519   0.562   8.128   8.545
92896SOL    HW180520   0.592   8.113   8.635
92896SOL    HW280521   0.478   8.172   8.555
92897SOL     OW80522   1.574  14.043  12.697
92897SOL    HW180523   1.492  14.003  12.667
92897SOL    HW280524   1.643  13.987  12.662
92898SOL     OW80525  10.099   1.126   5.661
92898SOL    HW180526  10.120   1.067   5.588
92898SOL    HW280527  10.180   1.130   5.712
92899SOL     OW80528  10.295  13.890   1.077
92899SOL    HW180529  10.351  13.891   1.000
92899SOL    HW280530  10.208  13.868   1.044
92900SOL     OW80531  10.544   9.461   9.808
92900SOL    HW180532  10.549   9.403   9.884
92900SOL    HW280533  10.563   9.548   9.844
92901SOL     OW80534   9.928   5.987   4.640
92901SOL    HW180535   9.932   6.072   4.685
92901SOL    HW280536   9.862   6.000   4.572
92902SOL     OW80537   1.899   8.621  13.465
92902SOL    HW180538   1.890   8.592  13.556
92902SOL    HW280539   1.856   8.552  13.414
92903SOL     OW80540  13.187  11.558  13.553
92903SOL    HW180541  13.098  11.522  13.549
92903SOL    HW280542  13.239  11.500  13.497
92904SOL     OW80543   7.366   5.640   6.713
92904SOL    HW180544   7.276   5.653   6.741
92904SOL    HW280545   7.372   5.548   6.690
92905SOL     OW80546  11.004   3.098   2.211
92905SOL    HW180547  11.097   3.121   2.217
92905SOL    HW280548  10.968   3.120   2.297
92906SOL     OW80549   0.711   5.829   7.239
92906SOL    HW180550   0.807   5.833   7.235
92906SOL    HW280551   0.686   5.908   7.287
92907SOL     OW80552  11.123   2.430  12.884
92907SOL    HW180553  11.090   2.378  12.811
92907SOL    HW280554  11.090   2.387  12.963
92908SOL     OW80555   6.723   3.408  11.548
92908SOL    HW180556   6.791   3.451  11.600
92908SOL    HW280557   6.771   3.366  11.476
92909SOL     OW80558   8.667  12.129   2.228
92909SOL    HW180559   8.728  12.058   2.251
92909SOL    HW280560   8.629  12.101   2.144
92910SOL     OW80561   8.144   1.858  11.951
92910SOL    HW180562   8.054   1.862  11.917
92910SOL    HW280563   8.195   1.822  11.878
92911SOL     OW80564   9.287   4.526  11.905
92911SOL    HW180565   9.337   4.461  11.953
92911SOL    HW280566   9.317   4.518  11.814
92912SOL     OW80567   2.299   6.703   0.423
92912SOL    HW180568   2.310   6.742   0.509
92912SOL    HW280569   2.207   6.676   0.419
92913SOL     OW80570  13.974   6.606   1.398
92913SOL    HW180571  13.954   6.579   1.308
92913SOL    HW280572  13.941   6.534   1.452
92914SOL     OW80573   9.776  14.297   2.927
92914SOL    HW180574   9.804  14.250   2.849
92914SOL    HW280575   9.857  14.316   2.974
92915SOL     OW80576   0.781   0.922   1.339
92915SOL    HW180577   0.721   0.869   1.391
92915SOL    HW280578   0.724   0.976   1.284
92916SOL     OW80579   3.467  14.671  13.603
92916SOL    HW180580   3.558  14.697  13.613
92916SOL    HW280581   3.422  14.751  13.576
92917SOL     OW80582  12.670   5.107   4.426
92917SOL    HW180583  12.697   5.017   4.411
92917SOL    HW280584  12.617   5.104   4.506
92918SOL     OW80585  10.525   6.763   5.740
92918SOL    HW180586  10.511   6.840   5.684
92918SOL    HW280587  10.596   6.789   5.799
92919SOL     OW80588  12.704   7.137   1.571
92919SOL    HW180589  12.794   7.162   1.552
92919SOL    HW280590  12.706   7.042   1.578
92920SOL     OW80591   4.983  10.926   4.514
92920SOL    HW180592   4.999  11.012   4.554
92920SOL    HW280593   4.911  10.941   4.452
92921SOL     OW80594  13.515   6.390   2.519
92921SOL    HW180595  13.578   6.412   2.451
92921SOL    HW280596  13.563   6.334   2.580
92922SOL     OW80597  11.743   0.483  13.112
92922SOL    HW180598  11.829   0.492  13.154
92922SOL    HW280599  11.761   0.445  13.027
92923SOL     OW80600   0.278   9.646   2.780
92923SOL    HW180601   0.361   9.649   2.733
92923SOL    HW280602   0.302   9.657   2.872
92924SOL     OW80603  12.930  13.254   3.001
92924SOL    HW180604  12.944  13.276   3.093
92924SOL    HW280605  12.840  13.283   2.983
92925SOL     OW80606   5.645  14.818  14.786
92925SOL    HW180607   5.682  14.786  14.869
92925SOL    HW280608   5.554  14.788  14.788
92926SOL     OW80609  14.092  13.433  14.215
92926SOL    HW180610  14.081  13.509  14.273
92926SOL    HW280611  14.160  13.381  14.257
92927SOL     OW80612   9.221   0.065   0.061
92927SOL    HW180613   9.254   0.020  14.859
92927SOL    HW280614   9.293   0.060   0.124
92928SOL     OW80615   0.730  11.952  10.800
92928SOL    HW180616   0.759  11.948  10.709
92928SOL    HW280617   0.745  12.042  10.827
92929SOL     OW80618  12.641   2.136  10.087
92929SOL    HW180619  12.615   2.224  10.116
92929SOL    HW280620  12.560   2.095  10.058
92930SOL     OW80621  11.661  12.633   3.019
92930SOL    HW180622  11.612  12.680   3.086
92930SOL    HW280623  11.597  12.575   2.978
92931SOL     OW80624   1.665  11.585   0.647
92931SOL    HW180625   1.726  11.651   0.680
92931SOL    HW280626   1.693  11.568   0.557
92932SOL     OW80627   3.074  14.608  11.671
92932SOL    HW180628   3.105  14.552  11.600
92932SOL    HW280629   3.137  14.594  11.742
92933SOL     OW80630  10.806   8.191   3.259
92933SOL    HW180631  10.712   8.199   3.273
92933SOL    HW280632  10.845   8.208   3.345
92934SOL     OW80633  14.514  12.380   5.475
92934SOL    HW180634  14.475  12.293   5.485
92934SOL    HW280635  14.548  12.380   5.385
92935SOL     OW80636   6.922   1.130  11.911
92935SOL    HW180637   6.960   1.077  11.840
92935SOL    HW280638   6.971   1.212  11.907
92936SOL     OW80639   4.074   6.310   0.205
92936SOL    HW180640   4.086   6.396   0.164
92936SOL    HW280641   3.995   6.275   0.164
92937SOL     OW80642   0.797  13.181  10.176
92937SOL    HW180643   0.836  13.161  10.091
92937SOL    HW280644   0.869  13.217  10.227
92938SOL     OW80645   8.284   1.306  10.764
92938SOL    HW180646   8.334   1.384  10.790
92938SOL    HW280647   8.271   1.259  10.847
92939SOL     OW80648   6.546  12.283   1.937
92939SOL    HW180649   6.526  12.194   1.909
92939SOL    HW280650   6.514  12.339   1.866
92940SOL     OW80651  12.255  12.251  13.221
92940SOL    HW180652  12.161  12.243  13.237
92940SOL    HW280653  12.295  12.191  13.283
92941SOL     OW80654  10.439  10.960   8.916
92941SOL    HW180655  10.520  10.992   8.875
92941SOL    HW280656  10.420  11.024   8.984
92942SOL     OW80657   3.434   9.850   0.248
92942SOL    HW180658   3.443   9.760   0.277
92942SOL    HW280659   3.356   9.882   0.294
92943SOL     OW80660  12.634   5.039   9.211
92943SOL    HW180661  12.560   4.989   9.245
92943SOL    HW280662  12.698   5.039   9.283
92944SOL     OW80663   4.778  13.208   9.635
92944SOL    HW180664   4.812  13.147   9.571
92944SOL    HW280665   4.812  13.293   9.608
92945SOL     OW80666  14.057   8.682   1.434
92945SOL    HW180667  14.022   8.757   1.386
92945SOL    HW280668  14.013   8.606   1.396
92946SOL     OW80669  12.655  11.729  12.949
92946SOL    HW180670  12.742  11.723  12.907
92946SOL    HW280671  12.658  11.810  12.999
92947SOL     OW80672   9.793   2.292   3.341
92947SOL    HW180673   9.836   2.215   3.378
92947SOL    HW280674   9.756   2.337   3.417
92948SOL     OW80675   7.229   5.528   7.364
92948SOL    HW180676   7.233   5.603   7.305
92948SOL    HW280677   7.145   5.486   7.344
92949SOL     OW80678  10.744  10.382   4.282
92949SOL    HW180679  10.788  10.378   4.366
92949SOL    HW280680  10.787  10.453   4.235
92950SOL     OW80681   1.057  11.920   5.838
92950SOL    HW180682   1.136  11.932   5.891
92950SOL    HW280683   1.006  11.856   5.887
92951SOL     OW80684   5.719   9.336   5.670
92951SOL    HW180685   5.683   9.396   5.604
92951SOL    HW280686   5.721   9.388   5.750
92952SOL     OW80687   3.674  11.395   0.557
92952SOL    HW180688   3.602  11.355   0.605
92952SOL    HW280689   3.636  11.421   0.474
92953SOL     OW80690   1.301   0.955  12.201
92953SOL    HW180691   1.280   0.952  12.108
92953SOL    HW280692   1.250   0.884  12.239
92954SOL     OW80693  14.684   1.914   5.973
92954SOL    HW180694  14.734   1.994   5.987
92954SOL    HW280695  14.598   1.933   6.011
92955SOL     OW80696   4.546   4.614   5.935
92955SOL    HW180697   4.505   4.695   5.904
92955SOL    HW280698   4.581   4.573   5.856
92956SOL     OW80699   4.917  10.695   8.617
92956SOL    HW180700   4.965  10.683   8.535
92956SOL    HW280701   4.825  10.683   8.592
92957SOL     OW80702   7.410   2.588   8.236
92957SOL    HW180703   7.318   2.564   8.252
92957SOL    HW280704   7.459   2.509   8.254
92958SOL     OW80705   1.828   8.044  11.617
92958SOL    HW180706   1.845   8.117  11.558
92958SOL    HW280707   1.887   8.058  11.690
92959SOL     OW80708  11.725  11.626  10.595
92959SOL    HW180709  11.808  11.629  10.547
92959SOL    HW280710  11.663  11.590  10.531
92960SOL     OW80711   1.558  13.301   1.672
92960SOL    HW180712   1.583  13.269   1.759
92960SOL    HW280713   1.597  13.388   1.666
92961SOL     OW80714   1.051   9.358   7.601
92961SOL    HW180715   1.108   9.298   7.649
92961SOL    HW280716   0.982   9.302   7.565
92962SOL     OW80717   6.516  11.220   9.057
92962SOL    HW180718   6.577  11.177   9.118
92962SOL    HW280719   6.434  11.226   9.106
92963SOL     OW80720   4.792  14.825   9.711
92963SOL    HW180721   4.714  14.832   9.655
92963SOL    HW280722   4.853  14.771   9.660
92964SOL     OW80723   1.254   3.479   9.331
92964SOL    HW180724   1.183   3.528   9.373
92964SOL    HW280725   1.221   3.461   9.243
92965SOL     OW80726  13.249   8.321   1.878
92965SOL    HW180727  13.285   8.317   1.790
92965SOL    HW280728  13.194   8.400   1.878
92966SOL     OW80729   9.006   3.639   1.702
92966SOL    HW180730   8.997   3.708   1.636
92966SOL    HW280731   8.979   3.681   1.784
92967SOL     OW80732   6.818  14.472  10.083
92967SOL    HW180733   6.826  14.379  10.059
92967SOL    HW280734   6.753  14.507  10.022
92968SOL     OW80735   0.422   2.870   0.864
92968SOL    HW180736   0.336   2.828   0.867
92968SOL    HW280737   0.464   2.833   0.787
92969SOL     OW80738   7.782   9.565   9.075
92969SOL    HW180739   7.799   9.472   9.090
92969SOL    HW280740   7.751   9.570   8.985
92970SOL     OW80741   0.474   2.170  14.210
92970SOL    HW180742   0.415   2.173  14.285
92970SOL    HW280743   0.423   2.206  14.138
92971SOL     OW80744   5.765   6.914   1.589
92971SOL    HW180745   5.732   6.839   1.540
92971SOL    HW280746   5.842   6.943   1.539
92972SOL     OW80747  14.688   4.671   7.603
92972SOL    HW180748  14.740   4.718   7.668
92972SOL    HW280749  14.621   4.626   7.654
92973SOL     OW80750   5.994   5.710  13.136
92973SOL    HW180751   5.949   5.687  13.218
92973SOL    HW280752   5.929   5.693  13.068
92974SOL     OW80753  14.211   4.453  13.833
92974SOL    HW180754  14.146   4.444  13.903
92974SOL    HW280755  14.208   4.370  13.786
92975SOL     OW80756  11.868  13.491  14.837
92975SOL    HW180757  11.846  13.582  14.853
92975SOL    HW280758  11.961  13.492  14.812
92976SOL     OW80759  12.443   6.221   9.503
92976SOL    HW180760  12.397   6.147   9.463
92976SOL    HW280761  12.536   6.203   9.487
92977SOL     OW80762   3.403   8.099   7.600
92977SOL    HW180763   3.474   8.127   7.657
92977SOL    HW280764   3.336   8.065   7.659
92978SOL     OW80765   5.091   9.898   9.398
92978SOL    HW180766   5.178   9.859   9.395
92978SOL    HW280767   5.046   9.862   9.322
92979SOL     OW80768   4.565   6.584   9.936
92979SOL    HW180769   4.647   6.629   9.957
92979SOL    HW280770   4.584   6.491   9.950
92980SOL     OW80771   6.345  12.344  12.390
92980SOL    HW180772   6.293  12.265  12.372
92980SOL    HW280773   6.285  12.403  12.435
92981SOL     OW80774   8.314   5.190  11.823
92981SOL    HW180775   8.240   5.233  11.867
92981SOL    HW280776   8.277   5.109  11.787
92982SOL     OW80777  12.610   4.891  10.059
92982SOL    HW180778  12.692   4.843  10.061
92982SOL    HW280779  12.554   4.840  10.000
92983SOL     OW80780  12.079  12.714  14.051
92983SOL    HW180781  11.997  12.762  14.049
92983SOL    HW280782  12.080  12.671  14.136
92984SOL     OW80783   0.512   5.583  14.175
92984SOL    HW180784   0.505   5.603  14.269
92984SOL    HW280785   0.444   5.637  14.135
92985SOL     OW80786   2.210   3.206   3.803
92985SOL    HW180787   2.141   3.178   3.862
92985SOL    HW280788   2.248   3.283   3.845
92986SOL     OW80789   4.147   3.700   5.839
92986SOL    HW180790   4.125   3.654   5.920
92986SOL    HW280791   4.124   3.639   5.769
92987SOL     OW80792   4.851   9.969  11.538
92987SOL    HW180793   4.879   9.897  11.482
92987SOL    HW280794   4.933  10.006  11.571
92988SOL     OW80795   0.597   3.974   5.952
92988SOL    HW180796   0.654   4.049   5.934
92988SOL    HW280797   0.552   3.959   5.869
92989SOL     OW80798  11.779  13.373   5.396
92989SOL    HW180799  11.689  13.398   5.413
92989SOL    HW280800  11.791  13.390   5.302
92990SOL     OW80801  11.993   0.621   3.300
92990SOL    HW180802  12.014   0.648   3.211
92990SOL    HW280803  11.967   0.702   3.344
92991SOL     OW80804   5.358  11.685   6.026
92991SOL    HW180805   5.399  11.750   6.084
92991SOL    HW280806   5.278  11.728   5.996
92992SOL     OW80807   0.976   4.487   3.706
92992SOL    HW180808   0.958   4.429   3.781
92992SOL    HW280809   1.038   4.438   3.653
92993SOL     OW80810   0.322   8.316   3.822
92993SOL    HW180811   0.303   8.223   3.835
92993SOL    HW280812   0.268   8.341   3.747
92994SOL     OW80813   5.161   7.859   1.666
92994SOL    HW180814   5.074   7.897   1.657
92994SOL    HW280815   5.152   7.793   1.735
92995SOL     OW80816  12.438   5.325  11.841
92995SOL    HW180817  12.393   5.358  11.763
92995SOL    HW280818  12.410   5.233  11.847
92996SOL     OW80819  14.104   2.915   9.865
92996SOL    HW180820  14.115   2.954   9.952
92996SOL    HW280821  14.091   2.822   9.882
92997SOL     OW80822   6.944  11.310  13.761
92997SOL    HW180823   6.964  11.383  13.703
92997SOL    HW280824   7.021  11.253  13.755
92998SOL     OW80825  13.906   9.716   0.118
92998SOL    HW180826  13.988   9.759   0.096
92998SOL    HW280827  13.896   9.648   0.051
92999SOL     OW80828  11.681   1.507  10.365
92999SOL    HW180829  11.609   1.448  10.388
92999SOL    HW280830  11.756   1.473  10.413
93000SOL     OW80831  12.233   3.650  12.083
93000SOL    HW180832  12.269   3.597  12.012
93000SOL    HW280833  12.306   3.662  12.143
93001SOL     OW80834   5.771   6.766   0.049
93001SOL    HW180835   5.764   6.705  14.852
93001SOL    HW280836   5.847   6.735   0.099
93002SOL     OW80837   3.940   3.877   4.859
93002SOL    HW180838   3.979   3.944   4.804
93002SOL    HW280839   3.969   3.794   4.821
93003SOL     OW80840  13.138   0.553   8.072
93003SOL    HW180841  13.170   0.553   7.982
93003SOL    HW280842  13.210   0.590   8.123
93004SOL     OW80843   6.566   3.833   2.902
93004SOL    HW180844   6.651   3.788   2.899
93004SOL    HW280845   6.520   3.792   2.975
93005SOL     OW80846   5.397   5.466   4.007
93005SOL    HW180847   5.326   5.450   3.945
93005SOL    HW280848   5.382   5.556   4.037
93006SOL     OW80849   5.859   4.471   8.428
93006SOL    HW180850   5.927   4.535   8.449
93006SOL    HW280851   5.778   4.521   8.427
93007SOL     OW80852  11.285  12.896   0.940
93007SOL    HW180853  11.290  12.816   0.889
93007SOL    HW280854  11.292  12.967   0.876
93008SOL     OW80855  14.622  10.455  13.858
93008SOL    HW180856  14.546  10.399  13.840
93008SOL    HW280857  14.697  10.397  13.852
93009SOL     OW80858   0.592   9.712   6.975
93009SOL    HW180859   0.532   9.661   7.030
93009SOL    HW280860   0.596   9.663   6.893
93010SOL     OW80861  13.207   9.031   5.849
93010SOL    HW180862  13.121   9.066   5.876
93010SOL    HW280863  13.192   8.937   5.837
93011SOL     OW80864  12.943   1.587  11.861
93011SOL    HW180865  12.920   1.564  11.772
93011SOL    HW280866  12.898   1.671  11.876
93012SOL     OW80867   0.294  14.605   1.158
93012SOL    HW180868   0.388  14.595   1.144
93012SOL    HW280869   0.255  14.533   1.108
93013SOL     OW80870  11.462   6.591  12.253
93013SOL    HW180871  11.528   6.532  12.218
93013SOL    HW280872  11.512   6.660  12.297
93014SOL     OW80873  12.932   8.715   2.774
93014SOL    HW180874  12.965   8.791   2.821
93014SOL    HW280875  12.851   8.744   2.732
93015SOL     OW80876   4.282  13.848   8.099
93015SOL    HW180877   4.224  13.806   8.036
93015SOL    HW280878   4.244  13.935   8.111
93016SOL     OW80879   2.365   9.071  12.426
93016SOL    HW180880   2.329   8.988  12.459
93016SOL    HW280881   2.458   9.066  12.446
93017SOL     OW80882   5.145  14.777   5.590
93017SOL    HW180883   5.235  14.746   5.600
93017SOL    HW280884   5.154  14.859   5.541
93018SOL     OW80885   9.619  10.407   7.551
93018SOL    HW180886   9.649  10.406   7.642
93018SOL    HW280887   9.642  10.321   7.517
93019SOL     OW80888   3.957   0.406   4.418
93019SOL    HW180889   3.956   0.402   4.322
93019SOL    HW280890   3.903   0.332   4.446
93020SOL     OW80891  11.714  10.168   0.910
93020SOL    HW180892  11.706  10.240   0.848
93020SOL    HW280893  11.625  10.151   0.940
93021SOL     OW80894   6.018   0.102   8.374
93021SOL    HW180895   6.080   0.032   8.352
93021SOL    HW280896   5.934   0.071   8.341
93022SOL     OW80897   2.187   9.284  11.191
93022SOL    HW180898   2.183   9.200  11.144
93022SOL    HW280899   2.138   9.267  11.272
93023SOL     OW80900  12.912  14.203   3.884
93023SOL    HW180901  12.901  14.296   3.906
93023SOL    HW280902  12.850  14.158   3.941
93024SOL     OW80903  14.175   0.752   0.966
93024SOL    HW180904  14.227   0.768   0.887
93024SOL    HW280905  14.114   0.684   0.941
93025SOL     OW80906   8.577   1.838   2.725
93025SOL    HW180907   8.508   1.887   2.678
93025SOL    HW280908   8.641   1.816   2.657
93026SOL     OW80909   3.367   8.639   0.905
93026SOL    HW180910   3.294   8.700   0.897
93026SOL    HW280911   3.433   8.687   0.956
93027SOL     OW80912  12.574   6.272  12.388
93027SOL    HW180913  12.520   6.197  12.411
93027SOL    HW280914  12.627   6.289  12.466
93028SOL     OW80915   0.177  11.354   3.101
93028SOL    HW180916   0.102  11.376   3.156
93028SOL    HW280917   0.253  11.385   3.151
93029SOL     OW80918   6.004  10.676   5.969
93029SOL    HW180919   6.003  10.744   6.037
93029SOL    HW280920   5.933  10.700   5.910
93030SOL     OW80921  12.145   5.177  10.008
93030SOL    HW180922  12.237   5.166  10.032
93030SOL    HW280923  12.122   5.265  10.037
93031SOL     OW80924   0.130   0.795  13.498
93031SOL    HW180925   0.046   0.750  13.489
93031SOL    HW280926   0.195   0.725  13.495
93032SOL     OW80927  12.967   5.041   7.073
93032SOL    HW180928  12.892   5.014   7.021
93032SOL    HW280929  12.971   5.136   7.062
93033SOL     OW80930  12.033   4.895   2.848
93033SOL    HW180931  12.106   4.909   2.787
93033SOL    HW280932  11.968   4.846   2.798
93034SOL     OW80933   8.814   7.028  11.257
93034SOL    HW180934   8.790   6.942  11.222
93034SOL    HW280935   8.907   7.039  11.236
93035SOL     OW80936   4.773   2.148   6.106
93035SOL    HW180937   4.678   2.157   6.091
93035SOL    HW280938   4.780   2.075   6.167
93036SOL     OW80939   3.908  14.231  14.058
93036SOL    HW180940   3.940  14.179  14.132
93036SOL    HW280941   3.833  14.180  14.024
93037SOL     OW80942  10.616  10.429  14.502
93037SOL    HW180943  10.647  10.339  14.489
93037SOL    HW280944  10.525  10.427  14.473
93038SOL     OW80945   1.879   9.510  11.861
93038SOL    HW180946   1.867   9.520  11.955
93038SOL    HW280947   1.873   9.416  11.845
93039SOL     OW80948   8.638  10.146  13.307
93039SOL    HW180949   8.564  10.200  13.333
93039SOL    HW280950   8.600  10.076  13.254
93040SOL     OW80951   9.376   0.073   5.672
93040SOL    HW180952   9.392   0.068   5.578
93040SOL    HW280953   9.464   0.076   5.711
93041SOL     OW80954   1.584  13.813   8.177
93041SOL    HW180955   1.578  13.730   8.224
93041SOL    HW280956   1.493  13.842   8.166
93042SOL     OW80957  11.312   3.727  10.294
93042SOL    HW180958  11.331   3.739  10.387
93042SOL    HW280959  11.268   3.642  10.289
93043SOL     OW80960   8.290   8.042  10.421
93043SOL    HW180961   8.228   8.017  10.352
93043SOL    HW280962   8.349   7.967  10.429
93044SOL     OW80963   9.824   4.370  10.007
93044SOL    HW180964   9.803   4.370   9.914
93044SOL    HW280965   9.875   4.290  10.020
93045SOL     OW80966   1.603   7.633   6.643
93045SOL    HW180967   1.599   7.560   6.581
93045SOL    HW280968   1.521   7.628   6.691
93046SOL     OW80969  13.293  12.140  11.365
93046SOL    HW180970  13.200  12.161  11.360
93046SOL    HW280971  13.314  12.144  11.458
93047SOL     OW80972   7.413   9.148  12.032
93047SOL    HW180973   7.359   9.095  12.091
93047SOL    HW280974   7.360   9.225  12.012
93048SOL     OW80975   3.225  14.558   9.953
93048SOL    HW180976   3.280  14.602  10.017
93048SOL    HW280977   3.219  14.620   9.880
93049SOL     OW80978   3.233   5.814  10.559
93049SOL    HW180979   3.320   5.815  10.599
93049SOL    HW280980   3.244   5.763  10.479
93050SOL     OW80981  12.914   1.742   5.457
93050SOL    HW180982  12.889   1.740   5.365
93050SOL    HW280983  12.946   1.832   5.471
93051SOL     OW80984   2.179  13.226   9.114
93051SOL    HW180985   2.146  13.161   9.053
93051SOL    HW280986   2.169  13.186   9.200
93052SOL     OW80987  14.456   1.329  13.829
93052SOL    HW180988  14.536   1.289  13.796
93052SOL    HW280989  14.387   1.297  13.770
93053SOL     OW80990   1.856   8.634   3.836
93053SOL    HW180991   1.890   8.705   3.890
93053SOL    HW280992   1.764   8.627   3.861
93054SOL     OW80993   8.408  12.298   2.953
93054SOL    HW180994   8.328  12.350   2.955
93054SOL    HW280995   8.450  12.314   3.037
93055SOL     OW80996   9.627   4.591  10.138
93055SOL    HW180997   9.697   4.546  10.092
93055SOL    HW280998   9.662   4.607  10.226
93056SOL     OW80999   1.843  12.483  13.260
93056SOL    HW181000   1.788  12.519  13.329
93056SOL    HW281001   1.926  12.530  13.269
93057SOL     OW81002   1.034   1.652  10.997
93057SOL    HW181003   1.049   1.738  11.037
93057SOL    HW281004   0.939   1.641  10.999
93058SOL     OW81005   1.094   7.393   4.837
93058SOL    HW181006   1.002   7.413   4.821
93058SOL    HW281007   1.142   7.464   4.796
93059SOL     OW81008   5.689  12.524   0.637
93059SOL    HW181009   5.631  12.453   0.664
93059SOL    HW281010   5.777  12.487   0.643
93060SOL     OW81011   8.501  10.403   0.103
93060SOL    HW181012   8.441  10.330   0.086
93060SOL    HW281013   8.499  10.454   0.023
93061SOL     OW81014  13.364  10.593   2.640
93061SOL    HW181015  13.270  10.606   2.632
93061SOL    HW281016  13.373  10.502   2.671
93062SOL     OW81017   6.981  14.687  13.215
93062SOL    HW181018   7.020  14.771  13.238
93062SOL    HW281019   7.022  14.624  13.275
93063SOL     OW81020  12.540  13.658   4.855
93063SOL    HW181021  12.501  13.572   4.872
93063SOL    HW281022  12.469  13.720   4.870
93064SOL     OW81023  12.680   7.195   3.039
93064SOL    HW181024  12.686   7.109   3.081
93064SOL    HW281025  12.626   7.179   2.961
93065SOL     OW81026   2.817   9.895  12.823
93065SOL    HW181027   2.824   9.918  12.730
93065SOL    HW281028   2.765   9.966  12.861
93066SOL     OW81029  12.258   0.072   8.195
93066SOL    HW181030  12.300   0.144   8.149
93066SOL    HW281031  12.317  14.873   8.183
93067SOL     OW81032   4.047   2.366  10.965
93067SOL    HW181033   4.048   2.288  11.020
93067SOL    HW281034   3.954   2.382  10.948
93068SOL     OW81035   8.238   9.542   3.413
93068SOL    HW181036   8.269   9.481   3.346
93068SOL    HW281037   8.312   9.555   3.472
93069SOL     OW81038  12.662   6.717   1.341
93069SOL    HW181039  12.645   6.805   1.308
93069SOL    HW281040  12.756   6.705   1.332
93070SOL     OW81041  13.909   5.626   2.222
93070SOL    HW181042  13.908   5.655   2.313
93070SOL    HW281043  14.001   5.606   2.204
93071SOL     OW81044   4.474   3.346   8.250
93071SOL    HW181045   4.536   3.308   8.188
93071SOL    HW281046   4.528   3.391   8.314
93072SOL     OW81047   0.909   0.569  14.189
93072SOL    HW181048   0.897   0.494  14.247
93072SOL    HW281049   0.823   0.612  14.187
93073SOL     OW81050   3.684   3.923   3.494
93073SOL    HW181051   3.766   3.906   3.540
93073SOL    HW281052   3.615   3.904   3.558
93074SOL     OW81053   4.293   3.180   7.474
93074SOL    HW181054   4.319   3.138   7.557
93074SOL    HW281055   4.219   3.128   7.444
93075SOL     OW81056   3.225   9.574   4.674
93075SOL    HW181057   3.260   9.511   4.737
93075SOL    HW281058   3.130   9.559   4.676
93076SOL     OW81059   1.956   1.931   8.428
93076SOL    HW181060   2.042   1.899   8.457
93076SOL    HW281061   1.964   1.937   8.333
93077SOL     OW81062  12.685   0.389   2.826
93077SOL    HW181063  12.637   0.361   2.905
93077SOL    HW281064  12.623   0.445   2.780
93078SOL     OW81065   8.451   4.314  14.472
93078SOL    HW181066   8.501   4.305  14.391
93078SOL    HW281067   8.381   4.250  14.465
93079SOL     OW81068  14.194  12.643   8.509
93079SOL    HW181069  14.143  12.617   8.432
93079SOL    HW281070  14.163  12.731   8.529
93080SOL     OW81071   8.613   6.522   0.215
93080SOL    HW181072   8.584   6.444   0.262
93080SOL    HW281073   8.541   6.543   0.156
93081SOL     OW81074   2.879   7.726   4.850
93081SOL    HW181075   2.952   7.766   4.802
93081SOL    HW281076   2.901   7.738   4.942
93082SOL     OW81077  11.952  10.269   9.366
93082SOL    HW181078  11.913  10.307   9.445
93082SOL    HW281079  12.046  10.284   9.376
93083SOL     OW81080  13.769  11.514  10.656
93083SOL    HW181081  13.708  11.519  10.583
93083SOL    HW281082  13.813  11.430  10.645
93084SOL     OW81083   9.599   2.536   3.562
93084SOL    HW181084   9.562   2.465   3.510
93084SOL    HW281085   9.529   2.561   3.623
93085SOL     OW81086   5.094   7.390   1.934
93085SOL    HW181087   5.060   7.351   2.015
93085SOL    HW281088   5.111   7.316   1.877
93086SOL     OW81089  10.103   7.231   6.627
93086SOL    HW181090  10.074   7.228   6.718
93086SOL    HW281091  10.102   7.139   6.599
93087SOL     OW81092  12.754   6.424  12.777
93087SOL    HW181093  12.735   6.425  12.871
93087SOL    HW281094  12.669   6.410  12.736
93088SOL     OW81095   7.252   8.270  13.358
93088SOL    HW181096   7.236   8.332  13.287
93088SOL    HW281097   7.246   8.184  13.317
93089SOL     OW81098   2.515   2.737   7.855
93089SOL    HW181099   2.457   2.710   7.926
93089SOL    HW281100   2.544   2.825   7.880
93090SOL     OW81101   9.548   2.765  13.683
93090SOL    HW181102   9.627   2.818  13.678
93090SOL    HW281103   9.476   2.825  13.664
93091SOL     OW81104  10.607   5.697   7.046
93091SOL    HW181105  10.542   5.712   7.114
93091SOL    HW281106  10.687   5.674   7.092
93092SOL     OW81107   0.988  10.174  11.735
93092SOL    HW181108   0.963  10.141  11.821
93092SOL    HW281109   0.908  10.214  11.700
93093SOL     OW81110   0.828  10.350  10.445
93093SOL    HW181111   0.772  10.272  10.449
93093SOL    HW281112   0.784  10.414  10.500
93094SOL     OW81113   3.593   8.498   0.421
93094SOL    HW181114   3.621   8.408   0.405
93094SOL    HW281115   3.534   8.492   0.496
93095SOL     OW81116   3.967  12.111   4.441
93095SOL    HW181117   4.025  12.183   4.418
93095SOL    HW281118   4.021  12.033   4.435
93096SOL     OW81119   2.660   9.811  10.561
93096SOL    HW181120   2.590   9.763  10.605
93096SOL    HW281121   2.655   9.783  10.470
93097SOL     OW81122   3.597  11.824   9.889
93097SOL    HW181123   3.632  11.903   9.847
93097SOL    HW281124   3.672  11.767   9.901
93098SOL     OW81125   1.852   9.546  13.831
93098SOL    HW181126   1.792   9.587  13.893
93098SOL    HW281127   1.795   9.491  13.776
93099SOL     OW81128   1.613   8.375  13.655
93099SOL    HW181129   1.554   8.378  13.580
93099SOL    HW281130   1.562   8.334  13.725
93100SOL     OW81131   6.792   3.248   6.820
93100SOL    HW181132   6.783   3.282   6.909
93100SOL    HW281133   6.704   3.221   6.795
93101SOL     OW81134  12.824   3.160  13.179
93101SOL    HW181135  12.818   3.087  13.240
93101SOL    HW281136  12.907   3.147  13.133
93102SOL     OW81137   2.918   5.316  12.637
93102SOL    HW181138   2.956   5.253  12.575
93102SOL    HW281139   2.824   5.294  12.638
93103SOL     OW81140   4.562  12.817  13.772
93103SOL    HW181141   4.645  12.835  13.815
93103SOL    HW281142   4.573  12.731  13.731
93104SOL     OW81143  14.127   9.152   1.881
93104SOL    HW181144  14.120   9.230   1.826
93104SOL    HW281145  14.071   9.087   1.838
93105SOL     OW81146  12.733   2.032   5.350
93105SOL    HW181147  12.732   2.047   5.445
93105SOL    HW281148  12.673   1.959   5.336
93106SOL     OW81149   5.188  14.058   8.129
93106SOL    HW181150   5.265  14.109   8.151
93106SOL    HW281151   5.141  14.047   8.212
93107SOL     OW81152   9.681   6.390   1.880
93107SOL    HW181153   9.594   6.352   1.873
93107SOL    HW281154   9.714   6.359   1.965
93108SOL     OW81155   5.836   6.252  13.621
93108SOL    HW181156   5.924   6.251  13.660
93108SOL    HW281157   5.799   6.166  13.644
93109SOL     OW81158   2.195   1.531   9.611
93109SOL    HW181159   2.263   1.472   9.578
93109SOL    HW281160   2.133   1.472   9.654
93110SOL     OW81161   0.158   0.380   7.012
93110SOL    HW181162   0.125   0.393   6.923
93110SOL    HW281163   0.109   0.304   7.045
93111SOL     OW81164   0.561   6.273  14.637
93111SOL    HW181165   0.628   6.206  14.646
93111SOL    HW281166   0.478   6.226  14.651
93112SOL     OW81167  12.108   2.927   6.849
93112SOL    HW181168  12.165   3.000   6.824
93112SOL    HW281169  12.163   2.871   6.903
93113SOL     OW81170   3.284   3.212   4.351
93113SOL    HW181171   3.309   3.223   4.443
93113SOL    HW281172   3.352   3.259   4.303
93114SOL     OW81173  13.557   6.040  10.461
93114SOL    HW181174  13.652   6.048  10.457
93114SOL    HW281175  13.525   6.093  10.388
93115SOL     OW81176  10.185   0.202  10.679
93115SOL    HW181177  10.131   0.245  10.613
93115SOL    HW281178  10.195   0.112  10.649
93116SOL     OW81179   0.809  11.514   6.388
93116SOL    HW181180   0.892  11.492   6.345
93116SOL    HW281181   0.834  11.540   6.476
93117SOL     OW81182  13.572  13.145   5.879
93117SOL    HW181183  13.589  13.060   5.920
93117SOL    HW281184  13.506  13.185   5.935
93118SOL     OW81185   2.885  10.981   2.318
93118SOL    HW181186   2.933  10.984   2.401
93118SOL    HW281187   2.952  11.001   2.252
93119SOL     OW81188  13.068   7.408   7.793
93119SOL    HW181189  13.015   7.474   7.749
93119SOL    HW281190  13.158   7.428   7.768
93120SOL     OW81191   2.404   6.692   9.680
93120SOL    HW181192   2.459   6.646   9.744
93120SOL    HW281193   2.452   6.684   9.598
93121SOL     OW81194  13.344   4.933   5.415
93121SOL    HW181195  13.343   4.937   5.319
93121SOL    HW281196  13.277   4.868   5.437
93122SOL     OW81197   2.060  13.067   6.141
93122SOL    HW181198   2.116  13.011   6.193
93122SOL    HW281199   2.020  13.127   6.204
93123SOL     OW81200  13.823   4.402  12.949
93123SOL    HW181201  13.837   4.471  13.015
93123SOL    HW281202  13.911   4.384  12.915
93124SOL     OW81203   5.993  14.849   9.751
93124SOL    HW181204   6.079   0.012   9.736
93124SOL    HW281205   5.942   0.044   9.791
93125SOL     OW81206   6.394   8.766   0.169
93125SOL    HW181207   6.404   8.814   0.252
93125SOL    HW281208   6.483   8.739   0.146
93126SOL     OW81209   7.001   2.166   0.158
93126SOL    HW181210   6.987   2.087   0.106
93126SOL    HW281211   7.058   2.139   0.229
93127SOL     OW81212   8.128  13.799   2.213
93127SOL    HW181213   8.190  13.858   2.254
93127SOL    HW281214   8.046  13.813   2.260
93128SOL     OW81215   4.985   5.216   8.191
93128SOL    HW181216   4.891   5.197   8.194
93128SOL    HW281217   4.990   5.307   8.162
93129SOL     OW81218   9.724   4.322   6.248
93129SOL    HW181219   9.775   4.242   6.260
93129SOL    HW281220   9.770   4.369   6.179
93130SOL     OW81221  11.968   6.587   1.421
93130SOL    HW181222  11.993   6.510   1.472
93130SOL    HW281223  11.873   6.580   1.411
93131SOL     OW81224   0.883   8.293   1.239
93131SOL    HW181225   0.942   8.244   1.181
93131SOL    HW281226   0.828   8.343   1.179
93132SOL     OW81227   6.206   5.804  10.925
93132SOL    HW181228   6.234   5.867  10.991
93132SOL    HW281229   6.232   5.843  10.841
93133SOL     OW81230   3.293  10.125  10.178
93133SOL    HW181231   3.383  10.094  10.164
93133SOL    HW281232   3.243  10.083  10.108
93134SOL     OW81233  14.711  11.522   1.955
93134SOL    HW181234  14.702  11.511   2.050
93134SOL    HW281235  14.685  11.438   1.919
93135SOL     OW81236   1.184   7.991  14.184
93135SOL    HW181237   1.251   7.931  14.151
93135SOL    HW281238   1.179   8.060  14.118
93136SOL     OW81239  13.126   0.801  13.136
93136SOL    HW181240  13.198   0.742  13.114
93136SOL    HW281241  13.048   0.757  13.100
93137SOL     OW81242  10.293  14.742  12.859
93137SOL    HW181243  10.314  14.754  12.951
93137SOL    HW281244  10.255  14.654  12.855
93138SOL     OW81245   9.597   6.231   1.518
93138SOL    HW181246   9.575   6.145   1.482
93138SOL    HW281247   9.631   6.212   1.606
93139SOL     OW81248   1.201   2.138   9.279
93139SOL    HW181249   1.194   2.081   9.202
93139SOL    HW281250   1.147   2.096   9.345
93140SOL     OW81251  14.018  12.696   1.078
93140SOL    HW181252  14.083  12.661   1.017
93140SOL    HW281253  14.069  12.753   1.136
93141SOL     OW81254   2.797   5.755  10.512
93141SOL    HW181255   2.827   5.689  10.449
93141SOL    HW281256   2.702   5.743  10.515
93142SOL     OW81257  14.267   0.270  13.748
93142SOL    HW181258  14.240   0.338  13.686
93142SOL    HW281259  14.363   0.274  13.747
93143SOL     OW81260  14.718   2.963   8.907
93143SOL    HW181261  14.680   3.047   8.930
93143SOL    HW281262  14.686   2.945   8.818
93144SOL     OW81263   2.752   7.149   5.178
93144SOL    HW181264   2.769   7.101   5.260
93144SOL    HW281265   2.778   7.088   5.109
93145SOL     OW81266   5.062   3.418   1.058
93145SOL    HW181267   5.047   3.493   1.001
93145SOL    HW281268   5.138   3.374   1.021
93146SOL     OW81269   3.232   5.719   5.343
93146SOL    HW181270   3.293   5.737   5.271
93146SOL    HW281271   3.212   5.626   5.335
93147SOL     OW81272   4.876   5.749   7.457
93147SOL    HW181273   4.868   5.819   7.522
93147SOL    HW281274   4.798   5.759   7.402
93148SOL     OW81275   1.738  10.814   8.482
93148SOL    HW181276   1.719  10.878   8.552
93148SOL    HW281277   1.834  10.811   8.478
93149SOL     OW81278  12.272   4.654  14.471
93149SOL    HW181279  12.338   4.594  14.435
93149SOL    HW281280  12.308   4.683  14.555
93150SOL     OW81281  11.061   4.712  13.272
93150SOL    HW181282  11.047   4.717  13.367
93150SOL    HW281283  11.153   4.689  13.263
93151SOL     OW81284   5.962  13.187  12.927
93151SOL    HW181285   5.908  13.114  12.957
93151SOL    HW281286   6.034  13.192  12.990
93152SOL     OW81287   0.952   5.760   4.938
93152SOL    HW181288   0.996   5.844   4.951
93152SOL    HW281289   0.929   5.731   5.026
93153SOL     OW81290   0.880  11.572   6.651
93153SOL    HW181291   0.937  11.634   6.696
93153SOL    HW281292   0.835  11.526   6.722
93154SOL     OW81293   2.552  11.014  10.309
93154SOL    HW181294   2.469  11.031  10.353
93154SOL    HW281295   2.588  10.938  10.355
93155SOL     OW81296   2.294  10.437   7.415
93155SOL    HW181297   2.213  10.451   7.366
93155SOL    HW281298   2.272  10.463   7.505
93156SOL     OW81299  13.674   8.548   3.698
93156SOL    HW181300  13.695   8.592   3.780
93156SOL    HW281301  13.730   8.471   3.697
93157SOL     OW81302  12.837   7.776  13.504
93157SOL    HW181303  12.746   7.804  13.499
93157SOL    HW281304  12.858   7.775  13.597
93158SOL     OW81305   9.928  10.032   8.166
93158SOL    HW181306   9.976  10.002   8.089
93158SOL    HW281307   9.927   9.957   8.224
93159SOL     OW81308  10.475   8.909   4.795
93159SOL    HW181309  10.380   8.905   4.799
93159SOL    HW281310  10.504   8.859   4.872
93160SOL     OW81311   6.793   2.896   5.866
93160SOL    HW181312   6.880   2.857   5.862
93160SOL    HW281313   6.733   2.825   5.844
93161SOL     OW81314   8.665   1.531   0.043
93161SOL    HW181315   8.711   1.532  14.834
93161SOL    HW281316   8.694   1.451   0.085
93162SOL     OW81317   1.684  13.509  10.247
93162SOL    HW181318   1.762  13.511  10.303
93162SOL    HW281319   1.636  13.588  10.271
93163SOL     OW81320   2.015   3.655   4.510
93163SOL    HW181321   2.056   3.598   4.444
93163SOL    HW281322   1.924   3.661   4.481
93164SOL     OW81323  10.423   1.671   5.489
93164SOL    HW181324  10.367   1.735   5.533
93164SOL    HW281325  10.363   1.607   5.452
93165SOL     OW81326  10.396  11.936   8.495
93165SOL    HW181327  10.311  11.973   8.473
93165SOL    HW281328  10.456  11.974   8.431
93166SOL     OW81329   2.801   0.326   0.278
93166SOL    HW181330   2.825   0.418   0.287
93166SOL    HW281331   2.882   0.278   0.297
93167SOL     OW81332   1.731  13.572   6.330
93167SOL    HW181333   1.809  13.577   6.385
93167SOL    HW281334   1.760  13.603   6.244
93168SOL     OW81335   2.802   6.911  12.883
93168SOL    HW181336   2.864   6.933  12.952
93168SOL    HW281337   2.769   6.996  12.853
93169SOL     OW81338  12.983   7.163   1.519
93169SOL    HW181339  13.022   7.208   1.594
93169SOL    HW281340  13.041   7.090   1.502
93170SOL     OW81341   1.869   6.151  12.964
93170SOL    HW181342   1.899   6.060  12.969
93170SOL    HW281343   1.786   6.151  13.011
93171SOL     OW81344   7.671   4.359  13.374
93171SOL    HW181345   7.745   4.305  13.400
93171SOL    HW281346   7.709   4.443  13.348
93172SOL     OW81347  13.493   2.371  11.217
93172SOL    HW181348  13.509   2.426  11.294
93172SOL    HW281349  13.398   2.363  11.212
93173SOL     OW81350   1.707   7.618   8.072
93173SOL    HW181351   1.749   7.621   8.158
93173SOL    HW281352   1.761   7.557   8.021
93174SOL     OW81353   8.965   1.436  12.362
93174SOL    HW181354   9.004   1.470  12.281
93174SOL    HW281355   9.023   1.365  12.389
93175SOL     OW81356  13.946   8.119  14.002
93175SOL    HW181357  13.868   8.112  13.947
93175SOL    HW281358  13.936   8.049  14.066
93176SOL     OW81359   8.685   2.950   0.222
93176SOL    HW181360   8.683   3.046   0.219
93176SOL    HW281361   8.770   2.929   0.261
93177SOL     OW81362   3.304   5.054   9.952
93177SOL    HW181363   3.270   4.981  10.004
93177SOL    HW281364   3.257   5.131   9.984
93178SOL     OW81365   3.403  12.342   4.939
93178SOL    HW181366   3.310  12.358   4.955
93178SOL    HW281367   3.448  12.391   5.008
93179SOL     OW81368   4.737  13.313  10.502
93179SOL    HW181369   4.771  13.301  10.414
93179SOL    HW281370   4.772  13.240  10.552
93180SOL     OW81371   4.409   5.120  13.126
93180SOL    HW181372   4.325   5.128  13.081
93180SOL    HW281373   4.393   5.059  13.198
93181SOL     OW81374   9.849   1.118  10.864
93181SOL    HW181375   9.861   1.180  10.792
93181SOL    HW281376   9.755   1.119  10.882
93182SOL     OW81377   3.663  12.095   7.751
93182SOL    HW181378   3.627  12.181   7.731
93182SOL    HW281379   3.668  12.093   7.847
93183SOL     OW81380  13.726   3.059   7.730
93183SOL    HW181381  13.771   3.031   7.650
93183SOL    HW281382  13.795   3.063   7.796
93184SOL     OW81383   8.153  13.147  10.789
93184SOL    HW181384   8.141  13.054  10.806
93184SOL    HW281385   8.128  13.189  10.872
93185SOL     OW81386   9.698   5.875  13.703
93185SOL    HW181387   9.697   5.962  13.663
93185SOL    HW281388   9.657   5.819  13.638
93186SOL     OW81389   7.276   4.323   3.049
93186SOL    HW181390   7.332   4.291   2.978
93186SOL    HW281391   7.319   4.403   3.079
93187SOL     OW81392   7.532   7.640   9.030
93187SOL    HW181393   7.555   7.557   9.071
93187SOL    HW281394   7.582   7.642   8.949
93188SOL     OW81395   4.843   6.637  10.009
93188SOL    HW181396   4.859   6.565  10.071
93188SOL    HW281397   4.824   6.712  10.064
93189SOL     OW81398   6.942   4.844  10.711
93189SOL    HW181399   6.891   4.819  10.634
93189SOL    HW281400   6.890   4.813  10.785
93190SOL     OW81401   2.805   0.257   8.498
93190SOL    HW181402   2.774   0.170   8.474
93190SOL    HW281403   2.726   0.305   8.524
93191SOL     OW81404   3.838   1.808  14.300
93191SOL    HW181405   3.806   1.724  14.268
93191SOL    HW281406   3.777   1.872  14.264
93192SOL     OW81407   8.914   7.259   4.606
93192SOL    HW181408   8.864   7.268   4.525
93192SOL    HW281409   8.986   7.322   4.598
93193SOL     OW81410  10.490  14.094  10.630
93193SOL    HW181411  10.535  14.138  10.558
93193SOL    HW281412  10.425  14.038  10.588
93194SOL     OW81413   4.313   9.139   0.786
93194SOL    HW181414   4.240   9.085   0.815
93194SOL    HW281415   4.368   9.080   0.734
93195SOL     OW81416   3.838   8.069  10.665
93195SOL    HW181417   3.915   8.012  10.678
93195SOL    HW281418   3.792   8.029  10.591
93196SOL     OW81419   2.628   0.502  13.405
93196SOL    HW181420   2.609   0.544  13.321
93196SOL    HW281421   2.696   0.437  13.385
93197SOL     OW81422   6.049   4.101  10.004
93197SOL    HW181423   6.000   4.100   9.922
93197SOL    HW281424   6.027   4.017  10.045
93198SOL     OW81425   7.847   6.810   7.944
93198SOL    HW181426   7.853   6.754   8.021
93198SOL    HW281427   7.798   6.887   7.974
93199SOL     OW81428   2.971   2.913  12.781
93199SOL    HW181429   3.035   2.851  12.745
93199SOL    HW281430   2.951   2.879  12.868
93200SOL     OW81431   7.805   8.221   7.543
93200SOL    HW181432   7.713   8.243   7.526
93200SOL    HW281433   7.800   8.161   7.618
93201SOL     OW81434  12.926  13.430   5.874
93201SOL    HW181435  12.881  13.511   5.849
93201SOL    HW281436  12.973  13.404   5.795
93202SOL     OW81437   8.758   2.053  14.692
93202SOL    HW181438   8.751   1.987  14.761
93202SOL    HW281439   8.752   2.003  14.610
93203SOL     OW81440   1.335  10.817   2.828
93203SOL    HW181441   1.259  10.760   2.818
93203SOL    HW281442   1.302  10.895   2.873
93204SOL     OW81443  10.800   5.282   1.672
93204SOL    HW181444  10.759   5.368   1.681
93204SOL    HW281445  10.765   5.231   1.745
93205SOL     OW81446   1.855  13.862   8.434
93205SOL    HW181447   1.818  13.780   8.468
93205SOL    HW281448   1.785  13.926   8.446
93206SOL     OW81449   8.210   1.444   9.586
93206SOL    HW181450   8.202   1.429   9.491
93206SOL    HW281451   8.284   1.504   9.594
93207SOL     OW81452   7.499  14.464   8.276
93207SOL    HW181453   7.466  14.542   8.231
93207SOL    HW281454   7.434  14.397   8.258
93208SOL     OW81455   8.561   1.267   6.995
93208SOL    HW181456   8.526   1.348   6.958
93208SOL    HW281457   8.493   1.237   7.055
93209SOL     OW81458  14.027   2.939  13.981
93209SOL    HW181459  14.088   2.986  14.039
93209SOL    HW281460  13.951   2.921  14.036
93210SOL     OW81461   6.831  14.083  14.717
93210SOL    HW181462   6.809  14.172  14.689
93210SOL    HW281463   6.797  14.078  14.807
93211SOL     OW81464   9.681  11.923  13.504
93211SOL    HW181465   9.733  11.937  13.425
93211SOL    HW281466   9.591  11.945  13.478
93212SOL     OW81467  10.582   4.735   8.034
93212SOL    HW181468  10.552   4.689   8.112
93212SOL    HW281469  10.593   4.666   7.968
93213SOL     OW81470  13.980   7.777   4.753
93213SOL    HW181471  13.987   7.781   4.657
93213SOL    HW281472  13.891   7.745   4.768
93214SOL     OW81473  12.330   9.601  13.302
93214SOL    HW181474  12.320   9.696  13.311
93214SOL    HW281475  12.386   9.590  13.225
93215SOL     OW81476   7.937   7.864   3.026
93215SOL    HW181477   8.012   7.909   3.065
93215SOL    HW281478   7.914   7.918   2.950
93216SOL     OW81479   1.987  13.536  12.105
93216SOL    HW181480   1.898  13.538  12.139
93216SOL    HW281481   2.006  13.626  12.082
93217SOL     OW81482  13.238   7.758   7.536
93217SOL    HW181483  13.316   7.727   7.489
93217SOL    HW281484  13.272   7.792   7.618
93218SOL     OW81485   1.962   1.464   5.814
93218SOL    HW181486   2.056   1.459   5.830
93218SOL    HW281487   1.953   1.445   5.721
93219SOL     OW81488   3.443   2.406  13.227
93219SOL    HW181489   3.514   2.421  13.165
93219SOL    HW281490   3.472   2.332  13.280
93220SOL     OW81491  11.935   1.676  13.112
93220SOL    HW181492  11.951   1.697  13.020
93220SOL    HW281493  12.004   1.723  13.159
93221SOL     OW81494   7.075   8.985   0.646
93221SOL    HW181495   7.083   8.890   0.639
93221SOL    HW281496   7.120   9.007   0.728
93222SOL     OW81497   5.947   0.132  13.765
93222SOL    HW181498   5.932   0.227  13.757
93222SOL    HW281499   5.870   0.100  13.812
93223SOL     OW81500   3.195   4.804   8.074
93223SOL    HW181501   3.163   4.892   8.090
93223SOL    HW281502   3.253   4.785   8.149
93224SOL     OW81503   4.482   0.937   9.607
93224SOL    HW181504   4.456   0.856   9.564
93224SOL    HW281505   4.507   0.911   9.695
93225SOL     OW81506   0.475   4.228   4.470
93225SOL    HW181507   0.432   4.164   4.415
93225SOL    HW281508   0.491   4.183   4.553
93226SOL     OW81509  10.439   4.733   0.142
93226SOL    HW181510  10.431   4.716   0.236
93226SOL    HW281511  10.514   4.681   0.115
93227SOL     OW81512   5.874   1.368   8.591
93227SOL    HW181513   5.844   1.389   8.679
93227SOL    HW281514   5.952   1.422   8.578
93228SOL     OW81515   3.670   9.043  13.864
93228SOL    HW181516   3.673   9.078  13.953
93228SOL    HW281517   3.695   8.951  13.874
93229SOL     OW81518   0.943   9.385   5.846
93229SOL    HW181519   1.005   9.451   5.813
93229SOL    HW281520   0.977   9.302   5.814
93230SOL     OW81521   9.867   8.956  13.115
93230SOL    HW181522   9.794   8.916  13.067
93230SOL    HW281523   9.842   8.950  13.207
93231SOL     OW81524   2.825   1.902   0.651
93231SOL    HW181525   2.843   1.809   0.663
93231SOL    HW281526   2.747   1.919   0.704
93232SOL     OW81527   4.295   4.789  11.099
93232SOL    HW181528   4.369   4.729  11.095
93232SOL    HW281529   4.273   4.794  11.192
93233SOL     OW81530   7.063   6.228  14.858
93233SOL    HW181531   7.015   6.150   0.010
93233SOL    HW281532   7.016   6.301   0.023
93234SOL     OW81533  14.707  11.123  11.049
93234SOL    HW181534  14.678  11.032  11.043
93234SOL    HW281535  14.758  11.127  11.130
93235SOL     OW81536   7.085  11.441  13.997
93235SOL    HW181537   7.130  11.357  13.983
93235SOL    HW281538   7.024  11.448  13.925
93236SOL     OW81539   2.714   1.383   1.720
93236SOL    HW181540   2.642   1.441   1.745
93236SOL    HW281541   2.691   1.299   1.758
93237SOL     OW81542  13.087  12.243  12.297
93237SOL    HW181543  13.155  12.244  12.366
93237SOL    HW281544  13.006  12.264  12.344
93238SOL     OW81545  13.082  14.170   8.212
93238SOL    HW181546  13.099  14.087   8.256
93238SOL    HW281547  13.165  14.193   8.169
93239SOL     OW81548   5.466   7.709   6.071
93239SOL    HW181549   5.490   7.726   5.980
93239SOL    HW281550   5.371   7.722   6.073
93240SOL     OW81551   6.750  10.563   3.393
93240SOL    HW181552   6.707  10.524   3.468
93240SOL    HW281553   6.692  10.635   3.366
93241SOL     OW81554   8.331   5.231   5.928
93241SOL    HW181555   8.347   5.266   5.840
93241SOL    HW281556   8.398   5.164   5.940
93242SOL     OW81557   1.522   5.117   6.162
93242SOL    HW181558   1.589   5.080   6.104
93242SOL    HW281559   1.510   5.051   6.230
93243SOL     OW81560   0.531   5.348  12.709
93243SOL    HW181561   0.575   5.431  12.727
93243SOL    HW281562   0.494   5.358  12.622
93244SOL     OW81563   6.844   5.530   0.142
93244SOL    HW181564   6.850   5.435   0.145
93244SOL    HW281565   6.766   5.551   0.192
93245SOL     OW81566  13.645  12.270   9.474
93245SOL    HW181567  13.681  12.191   9.515
93245SOL    HW281568  13.583  12.304   9.539
93246SOL     OW81569   4.720  12.283   3.809
93246SOL    HW181570   4.810  12.253   3.795
93246SOL    HW281571   4.719  12.312   3.901
93247SOL     OW81572  10.274   6.240  10.061
93247SOL    HW181573  10.212   6.271   9.995
93247SOL    HW281574  10.242   6.153  10.085
93248SOL     OW81575   4.494   6.320   4.313
93248SOL    HW181576   4.581   6.330   4.352
93248SOL    HW281577   4.508   6.269   4.233
93249SOL     OW81578   2.623   5.427  10.374
93249SOL    HW181579   2.570   5.507  10.370
93249SOL    HW281580   2.608   5.384  10.290
93250SOL     OW81581   2.858   6.350  12.699
93250SOL    HW181582   2.911   6.273  12.681
93250SOL    HW281583   2.902   6.421  12.651
93251SOL     OW81584  10.615   6.829   9.588
93251SOL    HW181585  10.680   6.886   9.629
93251SOL    HW281586  10.632   6.837   9.494
93252SOL     OW81587   7.766  14.276   6.246
93252SOL    HW181588   7.785  14.207   6.183
93252SOL    HW281589   7.723  14.344   6.195
93253SOL     OW81590  14.755  12.809   3.737
93253SOL    HW181591  14.689  12.741   3.730
93253SOL    HW281592  14.743  12.862   3.658
93254SOL     OW81593   5.077   8.192   5.221
93254SOL    HW181594   5.150   8.215   5.279
93254SOL    HW281595   5.086   8.251   5.146
93255SOL     OW81596   3.467  12.947  14.086
93255SOL    HW181597   3.494  12.982  14.171
93255SOL    HW281598   3.485  12.853  14.092
93256SOL     OW81599  10.488   4.305   6.839
93256SOL    HW181600  10.430   4.360   6.786
93256SOL    HW281601  10.475   4.216   6.806
93257SOL     OW81602   3.266   0.638  12.085
93257SOL    HW181603   3.346   0.605  12.043
93257SOL    HW281604   3.198   0.576  12.059
93258SOL     OW81605   6.024   7.732   1.288
93258SOL    HW181606   5.963   7.694   1.351
93258SOL    HW281607   6.035   7.822   1.316
93259SOL     OW81608  13.124   7.244  12.247
93259SOL    HW181609  13.187   7.219  12.315
93259SOL    HW281610  13.118   7.340  12.254
93260SOL     OW81611   4.905   6.852  14.181
93260SOL    HW181612   4.912   6.813  14.094
93260SOL    HW281613   4.824   6.901  14.179
93261SOL     OW81614  13.411   5.058  13.953
93261SOL    HW181615  13.452   5.145  13.956
93261SOL    HW281616  13.469   5.006  13.897
93262SOL     OW81617   2.378   3.673   9.666
93262SOL    HW181618   2.325   3.666   9.745
93262SOL    HW281619   2.403   3.582   9.645
93263SOL     OW81620  10.144  14.383   5.260
93263SOL    HW181621  10.078  14.390   5.329
93263SOL    HW281622  10.208  14.451   5.281
93264SOL     OW81623   8.374   7.208   6.014
93264SOL    HW181624   8.292   7.195   5.966
93264SOL    HW281625   8.412   7.287   5.976
93265SOL     OW81626  10.949   2.383   5.569
93265SOL    HW181627  10.911   2.354   5.652
93265SOL    HW281628  10.988   2.468   5.589
93266SOL     OW81629  12.617   1.481  10.538
93266SOL    HW181630  12.584   1.539  10.469
93266SOL    HW281631  12.665   1.538  10.598
93267SOL     OW81632   9.556   5.791  13.448
93267SOL    HW181633   9.481   5.842  13.476
93267SOL    HW281634   9.552   5.794  13.352
93268SOL     OW81635  11.628   9.258   2.053
93268SOL    HW181636  11.667   9.262   2.141
93268SOL    HW281637  11.655   9.173   2.019
93269SOL     OW81638  13.943   9.208  13.066
93269SOL    HW181639  13.871   9.249  13.114
93269SOL    HW281640  14.018   9.218  13.124
93270SOL     OW81641  13.371   6.051   6.593
93270SOL    HW181642  13.314   6.076   6.666
93270SOL    HW281643  13.403   6.133   6.557
93271SOL     OW81644   9.386   9.890   0.762
93271SOL    HW181645   9.393   9.888   0.666
93271SOL    HW281646   9.385   9.798   0.787
93272SOL     OW81647  12.123  12.827   1.705
93272SOL    HW181648  12.190  12.894   1.721
93272SOL    HW281649  12.084  12.812   1.791
93273SOL     OW81650  11.841   4.852  14.223
93273SOL    HW181651  11.814   4.914  14.290
93273SOL    HW281652  11.896   4.903  14.164
93274SOL     OW81653   9.779   7.261   1.329
93274SOL    HW181654   9.697   7.211   1.335
93274SOL    HW281655   9.752   7.352   1.335
93275SOL     OW81656   7.854   4.067  11.787
93275SOL    HW181657   7.848   4.163  11.785
93275SOL    HW281658   7.775   4.040  11.833
93276SOL     OW81659  11.120   2.007   8.017
93276SOL    HW181660  11.111   1.914   7.998
93276SOL    HW281661  11.134   2.011   8.112
93277SOL     OW81662  14.719   6.288   5.474
93277SOL    HW181663  14.803   6.247   5.495
93277SOL    HW281664  14.742   6.370   5.432
93278SOL     OW81665   1.240  12.259   2.918
93278SOL    HW181666   1.216  12.185   2.863
93278SOL    HW281667   1.329  12.241   2.946
93279SOL     OW81668   1.550   1.111  13.371
93279SOL    HW181669   1.474   1.145  13.324
93279SOL    HW281670   1.535   1.136  13.462
93280SOL     OW81671  13.591   2.347   5.047
93280SOL    HW181672  13.597   2.304   5.132
93280SOL    HW281673  13.599   2.440   5.067
93281SOL     OW81674  14.104  13.439   8.254
93281SOL    HW181675  14.099  13.455   8.160
93281SOL    HW281676  14.126  13.525   8.292
93282SOL     OW81677   9.272   6.766  14.243
93282SOL    HW181678   9.329   6.697  14.211
93282SOL    HW281679   9.187   6.724  14.256
93283SOL     OW81680  13.341   8.698   5.857
93283SOL    HW181681  13.373   8.630   5.797
93283SOL    HW281682  13.288   8.755   5.803
93284SOL     OW81683   7.495   0.301   6.359
93284SOL    HW181684   7.460   0.381   6.398
93284SOL    HW281685   7.585   0.296   6.392
93285SOL     OW81686   9.722  13.944   3.521
93285SOL    HW181687   9.766  13.878   3.574
93285SOL    HW281688   9.644  13.900   3.487
93286SOL     OW81689   9.793  12.950   6.585
93286SOL    HW181690   9.711  12.987   6.552
93286SOL    HW281691   9.780  12.942   6.679
93287SOL     OW81692   3.830   2.778   3.285
93287SOL    HW181693   3.790   2.751   3.368
93287SOL    HW281694   3.762   2.830   3.241
93288SOL     OW81695  14.309   2.127   9.544
93288SOL    HW181696  14.252   2.137   9.468
93288SOL    HW281697  14.271   2.054   9.594
93289SOL     OW81698   1.281   4.441   0.538
93289SOL    HW181699   1.244   4.366   0.586
93289SOL    HW281700   1.373   4.418   0.526
93290SOL     OW81701   9.629  11.493   1.666
93290SOL    HW181702   9.619  11.518   1.574
93290SOL    HW281703   9.622  11.575   1.714
93291SOL     OW81704   8.328   4.215   6.995
93291SOL    HW181705   8.249   4.262   6.967
93291SOL    HW281706   8.394   4.239   6.930
93292SOL     OW81707  12.912   0.563   9.771
93292SOL    HW181708  12.921   0.627   9.701
93292SOL    HW281709  12.880   0.614   9.846
93293SOL     OW81710   9.557   8.535   3.146
93293SOL    HW181711   9.622   8.568   3.207
93293SOL    HW281712   9.518   8.460   3.190
93294SOL     OW81713   0.818   6.488   5.602
93294SOL    HW181714   0.759   6.511   5.673
93294SOL    HW281715   0.769   6.508   5.522
93295SOL     OW81716   7.670   5.843   0.317
93295SOL    HW181717   7.579   5.865   0.297
93295SOL    HW281718   7.674   5.840   0.413
93296SOL     OW81719   3.421  11.174  13.546
93296SOL    HW181720   3.374  11.112  13.602
93296SOL    HW281721   3.513  11.151  13.558
93297SOL     OW81722   1.466   6.923   1.882
93297SOL    HW181723   1.492   6.848   1.828
93297SOL    HW281724   1.528   6.924   1.954
93298SOL     OW81725   1.696  14.327   2.544
93298SOL    HW181726   1.621  14.268   2.534
93298SOL    HW281727   1.762  14.275   2.589
93299SOL     OW81728   9.672   8.579  13.010
93299SOL    HW181729   9.689   8.558  12.918
93299SOL    HW281730   9.750   8.550  13.057
93300SOL     OW81731   7.993   2.361   6.349
93300SOL    HW181732   8.055   2.404   6.407
93300SOL    HW281733   8.034   2.364   6.263
93301SOL     OW81734   9.919   6.378   2.429
93301SOL    HW181735   9.827   6.397   2.408
93301SOL    HW281736   9.930   6.408   2.519
93302SOL     OW81737   0.054   4.108   2.546
93302SOL    HW181738   0.132   4.118   2.490
93302SOL    HW281739   0.068   4.024   2.591
93303SOL     OW81740  11.818   6.682  13.939
93303SOL    HW181741  11.789   6.591  13.939
93303SOL    HW281742  11.834   6.702  13.847
93304SOL     OW81743   0.846   4.341  12.653
93304SOL    HW181744   0.910   4.309  12.589
93304SOL    HW281745   0.761   4.328  12.610
93305SOL     OW81746   0.948  10.870   1.755
93305SOL    HW181747   1.037  10.900   1.738
93305SOL    HW281748   0.930  10.807   1.685
93306SOL     OW81749  14.207   8.579  12.783
93306SOL    HW181750  14.184   8.545  12.696
93306SOL    HW281751  14.249   8.663  12.765
93307SOL     OW81752   6.675   7.218   7.174
93307SOL    HW181753   6.749   7.244   7.230
93307SOL    HW281754   6.676   7.282   7.103
93308SOL     OW81755   5.601   5.608   4.782
93308SOL    HW181756   5.524   5.563   4.748
93308SOL    HW281757   5.566   5.689   4.819
93309SOL     OW81758   9.417   9.597   0.179
93309SOL    HW181759   9.490   9.541   0.155
93309SOL    HW281760   9.446   9.686   0.156
93310SOL     OW81761   3.033  12.810   9.921
93310SOL    HW181762   3.078  12.731   9.893
93310SOL    HW281763   3.102  12.875   9.933
93311SOL     OW81764   0.893   4.917  10.417
93311SOL    HW181765   0.869   4.944  10.328
93311SOL    HW281766   0.835   4.843  10.436
93312SOL     OW81767   5.408   9.752   1.769
93312SOL    HW181768   5.473   9.784   1.832
93312SOL    HW281769   5.331   9.806   1.786
93313SOL     OW81770   0.083   3.240  10.241
93313SOL    HW181771   0.152   3.284  10.191
93313SOL    HW281772   0.028   3.312  10.273
93314SOL     OW81773  14.121  14.315  14.463
93314SOL    HW181774  14.213  14.321  14.438
93314SOL    HW281775  14.119  14.350  14.553
93315SOL     OW81776   5.489  10.542   0.352
93315SOL    HW181777   5.483  10.448   0.339
93315SOL    HW281778   5.538  10.574   0.277
93316SOL     OW81779   7.123   0.344   2.674
93316SOL    HW181780   7.203   0.372   2.629
93316SOL    HW281781   7.062   0.417   2.662
93317SOL     OW81782  11.813   3.038   4.910
93317SOL    HW181783  11.756   2.976   4.955
93317SOL    HW281784  11.782   3.037   4.819
93318SOL     OW81785   0.286   6.913   9.262
93318SOL    HW181786   0.288   6.977   9.333
93318SOL    HW281787   0.238   6.956   9.192
93319SOL     OW81788   9.911  10.433  11.470
93319SOL    HW181789   9.919  10.517  11.426
93319SOL    HW281790   9.893  10.455  11.562
93320SOL     OW81791  14.663   8.881   7.256
93320SOL    HW181792  14.586   8.825   7.263
93320SOL    HW281793  14.728   8.826   7.212
93321SOL     OW81794   9.926   5.339   2.154
93321SOL    HW181795   9.910   5.265   2.095
93321SOL    HW281796  10.004   5.314   2.203
93322SOL     OW81797  11.919  10.569  14.501
93322SOL    HW181798  11.827  10.593  14.508
93322SOL    HW281799  11.948  10.558  14.592
93323SOL     OW81800   7.775  13.145   3.439
93323SOL    HW181801   7.684  13.120   3.430
93323SOL    HW281802   7.778  13.197   3.519
93324SOL     OW81803   9.277   9.202   6.131
93324SOL    HW181804   9.297   9.247   6.213
93324SOL    HW281805   9.191   9.162   6.146
93325SOL     OW81806   2.508   0.770   4.467
93325SOL    HW181807   2.497   0.696   4.407
93325SOL    HW281808   2.597   0.801   4.452
93326SOL     OW81809   8.492  10.234   0.607
93326SOL    HW181810   8.541  10.231   0.689
93326SOL    HW281811   8.440  10.314   0.614
93327SOL     OW81812   5.328   3.287   0.038
93327SOL    HW181813   5.395   3.232   0.078
93327SOL    HW281814   5.296   3.236  14.840
93328SOL     OW81815   6.132  13.553  14.845
93328SOL    HW181816   6.183  13.587  14.771
93328SOL    HW281817   6.099  13.632   0.013
93329SOL     OW81818   7.560   4.781  13.643
93329SOL    HW181819   7.627   4.819  13.587
93329SOL    HW281820   7.480   4.783  13.590
93330SOL     OW81821  13.921  10.124   7.224
93330SOL    HW181822  13.978  10.049   7.206
93330SOL    HW281823  13.962  10.197   7.178
93331SOL     OW81824   4.510  14.722  13.742
93331SOL    HW181825   4.599  14.687  13.754
93331SOL    HW281826   4.473  14.722  13.831
93332SOL     OW81827   0.637   5.133   8.820
93332SOL    HW181828   0.619   5.057   8.765
93332SOL    HW281829   0.728   5.156   8.800
93333SOL     OW81830   8.528   3.037   5.668
93333SOL    HW181831   8.476   3.100   5.619
93333SOL    HW281832   8.565   2.980   5.600
93334SOL     OW81833   0.286   9.212  10.066
93334SOL    HW181834   0.350   9.224  10.136
93334SOL    HW281835   0.265   9.301  10.037
93335SOL     OW81836  11.907   1.813  12.840
93335SOL    HW181837  11.920   1.878  12.909
93335SOL    HW281838  11.831   1.844  12.792
93336SOL     OW81839   6.152   1.885   0.472
93336SOL    HW181840   6.219   1.866   0.406
93336SOL    HW281841   6.085   1.933   0.425
93337SOL     OW81842   6.298  10.626   2.489
93337SOL    HW181843   6.341  10.544   2.465
93337SOL    HW281844   6.247  10.650   2.412
93338SOL     OW81845   3.167  14.090   4.559
93338SOL    HW181846   3.228  14.034   4.607
93338SOL    HW281847   3.198  14.088   4.469
93339SOL     OW81848  11.302  14.418   6.698
93339SOL    HW181849  11.243  14.455   6.764
93339SOL    HW281850  11.343  14.344   6.742
93340SOL     OW81851  11.440   0.880  10.096
93340SOL    HW181852  11.493   0.801  10.108
93340SOL    HW281853  11.417   0.908  10.184
93341SOL     OW81854  13.781   6.866   4.580
93341SOL    HW181855  13.699   6.900   4.544
93341SOL    HW281856  13.761   6.852   4.673
93342SOL     OW81857  10.628   2.689   0.158
93342SOL    HW181858  10.717   2.717   0.137
93342SOL    HW281859  10.577   2.708   0.079
93343SOL     OW81860  11.563   8.537   6.056
93343SOL    HW181861  11.557   8.492   6.141
93343SOL    HW281862  11.516   8.479   5.996
93344SOL     OW81863  10.045  13.908   6.188
93344SOL    HW181864  10.066  13.871   6.102
93344SOL    HW281865  10.120  13.962   6.210
93345SOL     OW81866   7.778   1.442  11.152
93345SOL    HW181867   7.808   1.498  11.081
93345SOL    HW281868   7.841   1.455  11.222
93346SOL     OW81869   7.580   7.477   5.300
93346SOL    HW181870   7.644   7.548   5.304
93346SOL    HW281871   7.519   7.495   5.372
93347SOL     OW81872   9.651   1.057   2.204
93347SOL    HW181873   9.613   1.048   2.291
93347SOL    HW281874   9.602   1.129   2.164
93348SOL     OW81875  13.023   5.201  14.825
93348SOL    HW181876  13.013   5.119  14.874
93348SOL    HW281877  13.105   5.190  14.777
93349SOL     OW81878  14.799  13.658  14.007
93349SOL    HW181879  14.862  13.713  14.054
93349SOL    HW281880  14.773  13.592  14.070
93350SOL     OW81881   5.779  13.558   1.544
93350SOL    HW181882   5.752  13.533   1.633
93350SOL    HW281883   5.698  13.585   1.501
93351SOL     OW81884   3.642   5.396   5.785
93351SOL    HW181885   3.712   5.443   5.830
93351SOL    HW281886   3.563   5.416   5.836
93352SOL     OW81887  13.479   4.405  13.098
93352SOL    HW181888  13.521   4.371  13.019
93352SOL    HW281889  13.497   4.499  13.096
93353SOL     OW81890  12.445  10.962   1.640
93353SOL    HW181891  12.366  10.958   1.692
93353SOL    HW281892  12.416  10.946   1.550
93354SOL     OW81893   0.602  12.962   2.462
93354SOL    HW181894   0.662  13.031   2.487
93354SOL    HW281895   0.555  12.940   2.542
93355SOL     OW81896   9.193   1.688  14.855
93355SOL    HW181897   9.112   1.740  14.854
93355SOL    HW281898   9.262   1.751  14.874
93356SOL     OW81899   1.771  11.880  11.232
93356SOL    HW181900   1.717  11.910  11.305
93356SOL    HW281901   1.729  11.915  11.154
93357SOL     OW81902   9.624   5.642  10.740
93357SOL    HW181903   9.659   5.560  10.708
93357SOL    HW281904   9.589   5.686  10.663
93358SOL     OW81905   6.642  14.225  10.160
93358SOL    HW181906   6.593  14.272  10.093
93358SOL    HW281907   6.690  14.158  10.111
93359SOL     OW81908   1.391   1.844   3.114
93359SOL    HW181909   1.383   1.801   3.029
93359SOL    HW281910   1.471   1.897   3.106
93360SOL     OW81911  10.878   1.163   9.949
93360SOL    HW181912  10.786   1.170   9.974
93360SOL    HW281913  10.879   1.096   9.880
93361SOL     OW81914   1.819   7.258   6.560
93361SOL    HW181915   1.902   7.211   6.570
93361SOL    HW281916   1.812   7.312   6.639
93362SOL     OW81917   4.823  13.653  14.462
93362SOL    HW181918   4.908  13.641  14.505
93362SOL    HW281919   4.828  13.739  14.420
93363SOL     OW81920   5.705  11.973  12.731
93363SOL    HW181921   5.786  12.023  12.742
93363SOL    HW281922   5.698  11.958  12.637
93364SOL     OW81923  14.384   0.159   4.080
93364SOL    HW181924  14.399   0.246   4.116
93364SOL    HW281925  14.405   0.099   4.153
93365SOL     OW81926  13.342  14.815   5.246
93365SOL    HW181927  13.370  14.780   5.162
93365SOL    HW281928  13.391   0.020   5.257
93366SOL     OW81929   3.623   6.346   9.979
93366SOL    HW181930   3.564   6.272   9.987
93366SOL    HW281931   3.706   6.315  10.014
93367SOL     OW81932   6.874   3.818   2.930
93367SOL    HW181933   6.896   3.904   2.895
93367SOL    HW281934   6.887   3.758   2.856
93368SOL     OW81935   5.933   2.588  13.515
93368SOL    HW181936   6.006   2.573  13.455
93368SOL    HW281937   5.939   2.517  13.578
93369SOL     OW81938  14.272   6.019  12.241
93369SOL    HW181939  14.235   6.078  12.306
93369SOL    HW281940  14.333   6.073  12.191
93370SOL     OW81941   7.793   4.492  14.321
93370SOL    HW181942   7.741   4.526  14.248
93370SOL    HW281943   7.739   4.508  14.399
93371SOL     OW81944   6.405   8.852   2.268
93371SOL    HW181945   6.407   8.783   2.335
93371SOL    HW281946   6.451   8.925   2.309
93372SOL     OW81947   2.697   3.642   4.478
93372SOL    HW181948   2.739   3.723   4.449
93372SOL    HW281949   2.633   3.623   4.409
93373SOL     OW81950  12.520   2.750  14.436
93373SOL    HW181951  12.434   2.718  14.464
93373SOL    HW281952  12.551   2.803  14.510
93374SOL     OW81953   3.669   8.182  11.476
93374SOL    HW181954   3.676   8.204  11.569
93374SOL    HW281955   3.759   8.166  11.448
93375SOL     OW81956   2.451   7.664  11.222
93375SOL    HW181957   2.464   7.753  11.190
93375SOL    HW281958   2.539   7.632  11.239
93376SOL     OW81959  14.804   3.704  13.000
93376SOL    HW181960  14.859   3.668  12.930
93376SOL    HW281961  14.765   3.782  12.962
93377SOL     OW81962   9.168   4.188  11.856
93377SOL    HW181963   9.245   4.147  11.816
93377SOL    HW281964   9.147   4.260  11.797
93378SOL     OW81965   1.725   1.667  10.628
93378SOL    HW181966   1.698   1.747  10.672
93378SOL    HW281967   1.711   1.598  10.693
93379SOL     OW81968   8.571   2.503   6.288
93379SOL    HW181969   8.552   2.547   6.371
93379SOL    HW281970   8.501   2.532   6.230
93380SOL     OW81971   2.498   8.827   7.978
93380SOL    HW181972   2.485   8.829   8.073
93380SOL    HW281973   2.484   8.735   7.954
93381SOL     OW81974   9.530   4.002   0.007
93381SOL    HW181975   9.477   4.015  14.804
93381SOL    HW281976   9.477   3.946   0.063
93382SOL     OW81977   2.316   5.859   4.094
93382SOL    HW181978   2.265   5.832   4.017
93382SOL    HW281979   2.362   5.780   4.121
93383SOL     OW81980   0.151   2.757   9.925
93383SOL    HW181981   0.158   2.803  10.009
93383SOL    HW281982   0.237   2.719   9.911
93384SOL     OW81983   3.827   0.722   6.804
93384SOL    HW181984   3.750   0.760   6.847
93384SOL    HW281985   3.803   0.718   6.711
93385SOL     OW81986   3.625  11.998   4.754
93385SOL    HW181987   3.719  12.008   4.738
93385SOL    HW281988   3.615  11.907   4.783
93386SOL     OW81989   6.671   6.646  13.437
93386SOL    HW181990   6.602   6.624  13.375
93386SOL    HW281991   6.739   6.686  13.384
93387SOL     OW81992   0.374   2.216  11.796
93387SOL    HW181993   0.414   2.189  11.714
93387SOL    HW281994   0.290   2.171  11.799
93388SOL     OW81995   8.583   1.194   1.154
93388SOL    HW181996   8.520   1.146   1.207
93388SOL    HW281997   8.530   1.246   1.094
93389SOL     OW81998   6.540  12.382   7.871
93389SOL    HW181999   6.626  12.340   7.879
93389SOL    HW282000   6.510  12.392   7.962
93390SOL     OW82001   6.207   5.951   1.830
93390SOL    HW182002   6.143   6.021   1.822
93390SOL    HW282003   6.252   5.969   1.912
93391SOL     OW82004   1.480  11.638  11.316
93391SOL    HW182005   1.414  11.614  11.381
93391SOL    HW282006   1.545  11.689  11.366
93392SOL     OW82007  12.472  12.840   5.158
93392SOL    HW182008  12.444  12.763   5.109
93392SOL    HW282009  12.423  12.834   5.241
93393SOL     OW82010  13.060  10.860   8.919
93393SOL    HW182011  13.069  10.819   8.832
93393SOL    HW282012  13.042  10.952   8.900
93394SOL     OW82013  11.956   1.506  11.608
93394SOL    HW182014  11.955   1.411  11.616
93394SOL    HW282015  11.995   1.537  11.690
93395SOL     OW82016   1.002  10.843  12.270
93395SOL    HW182017   1.029  10.752  12.278
93395SOL    HW282018   0.917  10.839  12.227
93396SOL     OW82019  14.576   6.956   0.126
93396SOL    HW182020  14.592   7.050   0.115
93396SOL    HW282021  14.617   6.934   0.210
93397SOL     OW82022   8.810   9.161   6.006
93397SOL    HW182023   8.859   9.115   6.074
93397SOL    HW282024   8.838   9.252   6.014
93398SOL     OW82025   8.200   0.265  11.856
93398SOL    HW182026   8.257   0.268  11.933
93398SOL    HW282027   8.239   0.327  11.794
93399SOL     OW82028   2.903   1.820  10.787
93399SOL    HW182029   2.966   1.834  10.857
93399SOL    HW282030   2.818   1.820  10.831
93400SOL     OW82031  13.631   4.120   7.129
93400SOL    HW182032  13.672   4.034   7.139
93400SOL    HW282033  13.580   4.132   7.208
93401SOL     OW82034   0.306  14.854   0.599
93401SOL    HW182035   0.296   0.035   0.675
93401SOL    HW282036   0.392   0.000   0.564
93402SOL     OW82037   2.627   5.089   8.164
93402SOL    HW182038   2.677   5.159   8.121
93402SOL    HW282039   2.665   5.083   8.251
93403SOL     OW82040   8.820  10.996   4.920
93403SOL    HW182041   8.731  10.964   4.904
93403SOL    HW282042   8.872  10.916   4.930
93404SOL     OW82043   2.882   8.236  11.173
93404SOL    HW182044   2.961   8.239  11.118
93404SOL    HW282045   2.879   8.146  11.205
93405SOL     OW82046   8.474   3.508  10.189
93405SOL    HW182047   8.431   3.569  10.130
93405SOL    HW282048   8.545   3.558  10.229
93406SOL     OW82049  10.560  10.818  12.296
93406SOL    HW182050  10.644  10.865  12.298
93406SOL    HW282051  10.554  10.778  12.383
93407SOL     OW82052   1.140   4.479   1.198
93407SOL    HW182053   1.094   4.412   1.248
93407SOL    HW282054   1.220   4.435   1.167
93408SOL     OW82055  11.318   8.321   6.191
93408SOL    HW182056  11.271   8.361   6.118
93408SOL    HW282057  11.354   8.395   6.240
93409SOL     OW82058   1.058   8.041  12.833
93409SOL    HW182059   1.126   8.067  12.770
93409SOL    HW282060   1.105   8.029  12.915
93410SOL     OW82061   6.723   4.843  12.936
93410SOL    HW182062   6.686   4.840  13.024
93410SOL    HW282063   6.674   4.912  12.891
93411SOL     OW82064   3.900  10.910   0.195
93411SOL    HW182065   3.949  10.986   0.227
93411SOL    HW282066   3.965  10.840   0.191
93412SOL     OW82067   8.027   1.012   2.801
93412SOL    HW182068   8.063   1.101   2.795
93412SOL    HW282069   8.095   0.962   2.846
93413SOL     OW82070   9.616   1.576  14.059
93413SOL    HW182071   9.627   1.562  13.965
93413SOL    HW282072   9.521   1.581  14.071
93414SOL     OW82073   1.840  13.170   3.309
93414SOL    HW182074   1.835  13.176   3.213
93414SOL    HW282075   1.840  13.261   3.339
93415SOL     OW82076  14.847   7.939  14.549
93415SOL    HW182077  14.865   8.022  14.505
93415SOL    HW282078  14.776   7.900  14.498
93416SOL     OW82079   0.247  10.331  13.740
93416SOL    HW182080   0.223  10.240  13.755
93416SOL    HW282081   0.179  10.365  13.683
93417SOL     OW82082  14.448   1.339   6.593
93417SOL    HW182083  14.526   1.375   6.635
93417SOL    HW282084  14.394   1.308   6.665
93418SOL     OW82085  12.709   8.503   3.213
93418SOL    HW182086  12.784   8.556   3.188
93418SOL    HW282087  12.653   8.561   3.265
93419SOL     OW82088   8.500   5.199   1.291
93419SOL    HW182089   8.408   5.192   1.314
93419SOL    HW282090   8.518   5.120   1.239
93420SOL     OW82091  13.753   3.205   7.319
93420SOL    HW182092  13.805   3.235   7.244
93420SOL    HW282093  13.818   3.177   7.384
93421SOL     OW82094   2.278   6.815   7.482
93421SOL    HW182095   2.298   6.875   7.410
93421SOL    HW282096   2.237   6.740   7.439
93422SOL     OW82097   2.437  12.704  14.835
93422SOL    HW182098   2.485  12.762  14.776
93422SOL    HW282099   2.423  12.756   0.038
93423SOL     OW82100  10.579   0.304   1.725
93423SOL    HW182101  10.612   0.361   1.656
93423SOL    HW282102  10.523   0.362   1.778
93424SOL     OW82103   4.901  14.717   7.714
93424SOL    HW182104   4.898  14.641   7.772
93424SOL    HW282105   4.809  14.745   7.706
93425SOL     OW82106  14.454   4.348   8.083
93425SOL    HW182107  14.550   4.351   8.082
93425SOL    HW282108  14.428   4.428   8.127
93426SOL     OW82109   1.834   0.570   3.763
93426SOL    HW182110   1.809   0.657   3.796
93426SOL    HW282111   1.912   0.547   3.813
93427SOL     OW82112  10.493   2.372   1.616
93427SOL    HW182113  10.567   2.426   1.588
93427SOL    HW282114  10.478   2.397   1.707
93428SOL     OW82115  13.479   1.603   3.206
93428SOL    HW182116  13.458   1.571   3.118
93428SOL    HW282117  13.551   1.664   3.193
93429SOL     OW82118   0.548   8.685  10.792
93429SOL    HW182119   0.573   8.638  10.871
93429SOL    HW282120   0.593   8.769  10.797
93430SOL     OW82121   2.761   4.019  11.466
93430SOL    HW182122   2.845   3.978  11.445
93430SOL    HW282123   2.705   3.947  11.493
93431SOL     OW82124   2.604   5.788   2.328
93431SOL    HW182125   2.657   5.839   2.267
93431SOL    HW282126   2.587   5.706   2.282
93432SOL     OW82127   7.989  10.413   4.063
93432SOL    HW182128   7.957  10.429   3.974
93432SOL    HW282129   7.997  10.318   4.069
93433SOL     OW82130   5.149   0.772   3.499
93433SOL    HW182131   5.120   0.687   3.466
93433SOL    HW282132   5.076   0.803   3.553
93434SOL     OW82133   6.700  11.589   3.489
93434SOL    HW182134   6.636  11.573   3.421
93434SOL    HW282135   6.696  11.512   3.545
93435SOL     OW82136   5.960  13.315  13.604
93435SOL    HW182137   6.019  13.271  13.543
93435SOL    HW282138   5.879  13.328  13.553
93436SOL     OW82139   1.990   6.167   6.175
93436SOL    HW182140   2.063   6.193   6.120
93436SOL    HW282141   1.917   6.157   6.115
93437SOL     OW82142  12.111   3.843  10.488
93437SOL    HW182143  12.104   3.936  10.513
93437SOL    HW282144  12.204   3.828  10.477
93438SOL     OW82145   5.468   1.222  12.000
93438SOL    HW182146   5.445   1.142  12.048
93438SOL    HW282147   5.561   1.213  11.981
93439SOL     OW82148   4.692  12.560  12.096
93439SOL    HW182149   4.687  12.582  12.189
93439SOL    HW282150   4.782  12.530  12.084
93440SOL     OW82151  13.506   5.130  14.287
93440SOL    HW182152  13.575   5.191  14.262
93440SOL    HW282153  13.536   5.092  14.370
93441SOL     OW82154   7.605   8.178   4.461
93441SOL    HW182155   7.676   8.222   4.508
93441SOL    HW282156   7.640   8.091   4.440
93442SOL     OW82157  10.466   7.456   4.146
93442SOL    HW182158  10.375   7.461   4.116
93442SOL    HW282159  10.505   7.388   4.092
93443SOL     OW82160   5.491   4.293  14.542
93443SOL    HW182161   5.399   4.320  14.546
93443SOL    HW282162   5.521   4.297  14.633
93444SOL     OW82163   4.256  13.178   8.125
93444SOL    HW182164   4.252  13.270   8.100
93444SOL    HW282165   4.172  13.142   8.096
93445SOL     OW82166  14.475   9.610   2.388
93445SOL    HW182167  14.387   9.581   2.413
93445SOL    HW282168  14.466   9.639   2.298
93446SOL     OW82169   5.063   7.169  13.952
93446SOL    HW182170   5.144   7.214  13.977
93446SOL    HW282171   5.003   7.239  13.928
93447SOL     OW82172   6.796   9.174   3.177
93447SOL    HW182173   6.852   9.219   3.114
93447SOL    HW282174   6.857   9.140   3.243
93448SOL     OW82175  14.515   4.856   3.848
93448SOL    HW182176  14.509   4.808   3.765
93448SOL    HW282177  14.430   4.845   3.889
93449SOL     OW82178   6.712   1.980   7.119
93449SOL    HW182179   6.747   2.028   7.195
93449SOL    HW282180   6.776   1.910   7.104
93450SOL     OW82181   2.059  13.255   0.340
93450SOL    HW182182   2.086  13.333   0.388
93450SOL    HW282183   2.136  13.229   0.290
93451SOL     OW82184   1.483  12.250   7.025
93451SOL    HW182185   1.417  12.243   7.094
93451SOL    HW282186   1.442  12.304   6.957
93452SOL     OW82187   7.515   4.411  11.720
93452SOL    HW182188   7.464   4.487  11.751
93452SOL    HW282189   7.571   4.447  11.651
93453SOL     OW82190  10.601   9.079   2.442
93453SOL    HW182191  10.653   9.009   2.403
93453SOL    HW282192  10.546   9.035   2.507
93454SOL     OW82193  14.362   2.192   8.592
93454SOL    HW182194  14.452   2.226   8.601
93454SOL    HW282195  14.323   2.246   8.523
93455SOL     OW82196   9.537   1.370   9.328
93455SOL    HW182197   9.575   1.454   9.356
93455SOL    HW282198   9.584   1.348   9.248
93456SOL     OW82199   4.186   1.895   6.086
93456SOL    HW182200   4.169   1.938   6.002
93456SOL    HW282201   4.196   1.967   6.148
93457SOL     OW82202  13.467   7.107  13.982
93457SOL    HW182203  13.396   7.059  13.941
93457SOL    HW282204  13.512   7.043  14.037
93458SOL     OW82205  12.395  11.836   2.106
93458SOL    HW182206  12.405  11.743   2.127
93458SOL    HW282207  12.358  11.837   2.018
93459SOL     OW82208   1.128  12.853   8.908
93459SOL    HW182209   1.055  12.915   8.912
93459SOL    HW282210   1.185  12.879   8.980
93460SOL     OW82211   8.285   4.338   5.640
93460SOL    HW182212   8.336   4.411   5.606
93460SOL    HW282213   8.198   4.376   5.656
93461SOL     OW82214   3.014  13.688   7.284
93461SOL    HW182215   2.963  13.718   7.209
93461SOL    HW282216   3.056  13.767   7.318
93462SOL     OW82217   6.738   8.573  14.553
93462SOL    HW182218   6.658   8.523  14.537
93462SOL    HW282219   6.774   8.538  14.634
93463SOL     OW82220   9.852  13.445  14.392
93463SOL    HW182221   9.895  13.402  14.465
93463SOL    HW282222   9.880  13.536  14.398
93464SOL     OW82223  12.303   9.704   1.367
93464SOL    HW182224  12.328   9.707   1.275
93464SOL    HW282225  12.381   9.733   1.414
93465SOL     OW82226  14.842  14.671   2.376
93465SOL    HW182227   0.058  14.690   2.354
93465SOL    HW282228  14.791  14.714   2.308
93466SOL     OW82229   4.830   3.334   5.759
93466SOL    HW182230   4.743   3.292   5.762
93466SOL    HW282231   4.825   3.395   5.686
93467SOL     OW82232  10.815   4.819   4.420
93467SOL    HW182233  10.767   4.781   4.493
93467SOL    HW282234  10.897   4.851   4.458
93468SOL     OW82235   6.972   3.314   5.785
93468SOL    HW182236   7.067   3.329   5.783
93468SOL    HW282237   6.962   3.240   5.845
93469SOL     OW82238   6.874   9.515  11.476
93469SOL    HW182239   6.930   9.440  11.496
93469SOL    HW282240   6.807   9.514  11.545
93470SOL     OW82241   6.330   5.741   4.230
93470SOL    HW182242   6.423   5.733   4.252
93470SOL    HW282243   6.313   5.835   4.234
93471SOL     OW82244   3.881   8.697   8.232
93471SOL    HW182245   3.823   8.623   8.250
93471SOL    HW282246   3.956   8.685   8.290
93472SOL     OW82247   6.642  14.649   7.034
93472SOL    HW182248   6.601  14.588   7.095
93472SOL    HW282249   6.705  14.595   6.985
93473SOL     OW82250   1.041  12.451   2.834
93473SOL    HW182251   1.105  12.382   2.857
93473SOL    HW282252   1.084  12.532   2.860
93474SOL     OW82253  12.623   4.268   0.015
93474SOL    HW182254  12.689   4.335  14.872
93474SOL    HW282255  12.539   4.310  14.869
93475SOL     OW82256   9.696   1.976   0.875
93475SOL    HW182257   9.751   1.899   0.860
93475SOL    HW282258   9.612   1.940   0.904
93476SOL     OW82259  10.306   5.685   9.837
93476SOL    HW182260  10.285   5.622   9.768
93476SOL    HW282261  10.221   5.722   9.862
93477SOL     OW82262  14.061  10.468   2.204
93477SOL    HW182263  14.124  10.524   2.249
93477SOL    HW282264  13.978  10.485   2.249
93478SOL     OW82265   8.014  11.407  11.943
93478SOL    HW182266   8.055  11.325  11.916
93478SOL    HW282267   7.929  11.408  11.898
93479SOL     OW82268   5.667   9.114   9.472
93479SOL    HW182269   5.644   9.050   9.540
93479SOL    HW282270   5.747   9.155   9.504
93480SOL     OW82271   0.751   5.486   4.290
93480SOL    HW182272   0.791   5.475   4.375
93480SOL    HW282273   0.691   5.412   4.282
93481SOL     OW82274   2.253   6.282  12.169
93481SOL    HW182275   2.223   6.265  12.258
93481SOL    HW282276   2.249   6.198  12.125
93482SOL     OW82277  12.886  10.004   1.075
93482SOL    HW182278  12.855  10.005   1.166
93482SOL    HW282279  12.962   9.946   1.076
93483SOL     OW82280   8.115   1.659  10.523
93483SOL    HW182281   8.159   1.597  10.466
93483SOL    HW282282   8.045   1.696  10.469
93484SOL     OW82283   1.522   4.394   9.551
93484SOL    HW182284   1.559   4.436   9.473
93484SOL    HW282285   1.463   4.328   9.516
93485SOL     OW82286   9.920   0.363  10.116
93485SOL    HW182287   9.970   0.316  10.050
93485SOL    HW282288   9.878   0.294  10.168
93486SOL     OW82289   7.809   9.592   4.425
93486SOL    HW182290   7.841   9.513   4.381
93486SOL    HW282291   7.838   9.582   4.516
93487SOL     OW82292   8.311  14.537   8.748
93487SOL    HW182293   8.289  14.444   8.758
93487SOL    HW282294   8.226  14.579   8.730
93488SOL     OW82295  10.622   2.265   4.549
93488SOL    HW182296  10.623   2.202   4.621
93488SOL    HW282297  10.713   2.289   4.537
93489SOL     OW82298   6.416   0.937   2.277
93489SOL    HW182299   6.396   0.896   2.192
93489SOL    HW282300   6.507   0.915   2.294
93490SOL     OW82301  11.931  10.620   5.166
93490SOL    HW182302  11.890  10.543   5.125
93490SOL    HW282303  11.995  10.582   5.226
93491SOL     OW82304  10.932   8.182   9.101
93491SOL    HW182305  10.942   8.200   9.195
93491SOL    HW282306  10.893   8.262   9.066
93492SOL     OW82307   4.046   8.020   9.380
93492SOL    HW182308   4.051   7.994   9.288
93492SOL    HW282309   4.110   8.091   9.389
93493SOL     OW82310   9.527  13.494   3.672
93493SOL    HW182311   9.437  13.468   3.650
93493SOL    HW282312   9.572  13.499   3.587
93494SOL     OW82313   6.664   8.722   6.811
93494SOL    HW182314   6.652   8.763   6.725
93494SOL    HW282315   6.575   8.719   6.848
93495SOL     OW82316   8.947   3.462   2.238
93495SOL    HW182317   8.908   3.432   2.320
93495SOL    HW282318   9.038   3.434   2.243
93496SOL     OW82319  12.119   0.255   4.408
93496SOL    HW182320  12.054   0.185   4.403
93496SOL    HW282321  12.161   0.244   4.493
93497SOL     OW82322   5.556  13.912  14.863
93497SOL    HW182323   5.466  13.941  14.848
93497SOL    HW282324   5.558  13.887   0.079
93498SOL     OW82325   1.886   1.351   1.066
93498SOL    HW182326   1.885   1.265   1.109
93498SOL    HW282327   1.862   1.332   0.975
93499SOL     OW82328  12.976   2.003   7.416
93499SOL    HW182329  13.028   2.060   7.360
93499SOL    HW282330  12.990   2.036   7.504
93500SOL     OW82331   0.814   7.831   8.779
93500SOL    HW182332   0.732   7.818   8.731
93500SOL    HW282333   0.787   7.849   8.869
93501SOL     OW82334  12.812   2.440   5.681
93501SOL    HW182335  12.739   2.395   5.639
93501SOL    HW282336  12.885   2.430   5.620
93502SOL     OW82337   8.659   1.447   6.687
93502SOL    HW182338   8.586   1.438   6.748
93502SOL    HW282339   8.731   1.478   6.741
93503SOL     OW82340   3.263  13.845   0.471
93503SOL    HW182341   3.225  13.783   0.409
93503SOL    HW282342   3.189  13.877   0.523
93504SOL     OW82343   0.836  10.776   7.368
93504SOL    HW182344   0.904  10.712   7.389
93504SOL    HW282345   0.786  10.786   7.449
93505SOL     OW82346  12.868  12.421   7.160
93505SOL    HW182347  12.947  12.381   7.196
93505SOL    HW282348  12.822  12.349   7.116
93506SOL     OW82349   9.000  11.774   9.609
93506SOL    HW182350   9.008  11.865   9.637
93506SOL    HW282351   9.049  11.724   9.674
93507SOL     OW82352   0.316  11.079  10.084
93507SOL    HW182353   0.381  11.116  10.024
93507SOL    HW282354   0.339  11.117  10.169
93508SOL     OW82355   8.863   0.798   8.190
93508SOL    HW182356   8.887   0.882   8.229
93508SOL    HW282357   8.901   0.800   8.102
93509SOL     OW82358   2.160   9.571   5.231
93509SOL    HW182359   2.144   9.513   5.306
93509SOL    HW282360   2.072   9.594   5.200
93510SOL     OW82361   9.026   4.602   6.657
93510SOL    HW182362   8.937   4.619   6.626
93510SOL    HW282363   9.068   4.554   6.585
93511SOL     OW82364  11.167   2.157  10.015
93511SOL    HW182365  11.222   2.120  10.084
93511SOL    HW282366  11.228   2.174   9.943
93512SOL     OW82367   2.139   7.859   7.673
93512SOL    HW182368   2.212   7.920   7.684
93512SOL    HW282369   2.139   7.838   7.579
93513SOL     OW82370   6.398  12.404  10.002
93513SOL    HW182371   6.318  12.450   9.977
93513SOL    HW282372   6.402  12.328   9.944
93514SOL     OW82373   9.106   3.260  13.152
93514SOL    HW182374   9.011   3.252  13.162
93514SOL    HW282375   9.140   3.257  13.241
93515SOL     OW82376  11.185   5.504  10.412
93515SOL    HW182377  11.103   5.480  10.370
93515SOL    HW282378  11.230   5.558  10.348
93516SOL     OW82379  12.165   1.952   1.531
93516SOL    HW182380  12.161   2.043   1.561
93516SOL    HW282381  12.221   1.908   1.595
93517SOL     OW82382   2.835  12.152   5.269
93517SOL    HW182383   2.785  12.076   5.240
93517SOL    HW282384   2.925  12.120   5.279
93518SOL     OW82385   4.547   0.487  11.140
93518SOL    HW182386   4.612   0.523  11.199
93518SOL    HW282387   4.501   0.420  11.191
93519SOL     OW82388   5.370   9.246   6.271
93519SOL    HW182389   5.323   9.318   6.311
93519SOL    HW282390   5.452   9.285   6.239
93520SOL     OW82391   4.680   2.177   5.091
93520SOL    HW182392   4.707   2.251   5.145
93520SOL    HW282393   4.592   2.198   5.062
93521SOL     OW82394   3.819   2.277  12.191
93521SOL    HW182395   3.770   2.346  12.147
93521SOL    HW282396   3.867   2.322  12.260
93522SOL     OW82397   0.236  14.326   6.230
93522SOL    HW182398   0.240  14.341   6.324
93522SOL    HW282399   0.316  14.365   6.196
93523SOL     OW82400  10.460   8.468  13.410
93523SOL    HW182401  10.477   8.560  13.428
93523SOL    HW282402  10.520   8.421  13.469
93524SOL     OW82403   9.885   0.649   4.947
93524SOL    HW182404   9.956   0.709   4.969
93524SOL    HW282405   9.915   0.563   4.978
93525SOL     OW82406  11.999   1.927   9.439
93525SOL    HW182407  12.007   1.832   9.444
93525SOL    HW282408  12.087   1.959   9.459
93526SOL     OW82409  10.815   4.486   5.168
93526SOL    HW182410  10.757   4.484   5.244
93526SOL    HW282411  10.903   4.479   5.204
93527SOL     OW82412  11.293   0.702   9.732
93527SOL    HW182413  11.259   0.704   9.642
93527SOL    HW282414  11.370   0.759   9.729
93528SOL     OW82415   6.693   0.489   7.066
93528SOL    HW182416   6.650   0.498   7.151
93528SOL    HW282417   6.658   0.408   7.029
93529SOL     OW82418   2.488  12.425   6.488
93529SOL    HW182419   2.467  12.510   6.448
93529SOL    HW282420   2.431  12.420   6.565
93530SOL     OW82421   2.887   6.057  10.640
93530SOL    HW182422   2.866   6.108  10.718
93530SOL    HW282423   2.925   6.120  10.579
93531SOL     OW82424  11.042   5.593   6.147
93531SOL    HW182425  11.123   5.610   6.100
93531SOL    HW282426  11.006   5.680   6.164
93532SOL     OW82427   3.758   5.070   7.362
93532SOL    HW182428   3.681   5.033   7.406
93532SOL    HW282429   3.827   5.068   7.428
93533SOL     OW82430  11.366   2.642   5.825
93533SOL    HW182431  11.295   2.634   5.889
93533SOL    HW282432  11.377   2.553   5.791
93534SOL     OW82433  12.858   9.380   4.184
93534SOL    HW182434  12.796   9.349   4.119
93534SOL    HW282435  12.839   9.474   4.192
93535SOL     OW82436   4.613   3.906   1.607
93535SOL    HW182437   4.668   3.882   1.681
93535SOL    HW282438   4.625   3.836   1.543
93536SOL     OW82439   8.495   3.693   2.361
93536SOL    HW182440   8.536   3.704   2.447
93536SOL    HW282441   8.487   3.782   2.326
93537SOL     OW82442  12.146   9.055   5.364
93537SOL    HW182443  12.144   8.966   5.328
93537SOL    HW282444  12.239   9.077   5.368
93538SOL     OW82445  14.545   1.964   4.542
93538SOL    HW182446  14.534   2.058   4.552
93538SOL    HW282447  14.636   1.953   4.515
93539SOL     OW82448  12.435   6.446   1.258
93539SOL    HW182449  12.340   6.436   1.248
93539SOL    HW282450  12.445   6.514   1.324
93540SOL     OW82451   6.097   5.694   4.886
93540SOL    HW182452   6.093   5.763   4.819
93540SOL    HW282453   6.008   5.658   4.888
93541SOL     OW82454   1.542   2.270   5.011
93541SOL    HW182455   1.577   2.341   5.064
93541SOL    HW282456   1.602   2.264   4.936
93542SOL     OW82457   7.568  13.272  10.371
93542SOL    HW182458   7.535  13.219  10.298
93542SOL    HW282459   7.647  13.313  10.336
93543SOL     OW82460   5.990   1.572  12.126
93543SOL    HW182461   5.932   1.612  12.191
93543SOL    HW282462   6.025   1.646  12.076
93544SOL     OW82463  12.815   9.255   2.998
93544SOL    HW182464  12.894   9.245   3.051
93544SOL    HW282465  12.776   9.337   3.026
93545SOL     OW82466   2.253  14.859  13.374
93545SOL    HW182467   2.262   0.078  13.363
93545SOL    HW282468   2.164  14.846  13.405
93546SOL     OW82469   0.778   3.725   8.471
93546SOL    HW182470   0.764   3.669   8.395
93546SOL    HW282471   0.836   3.675   8.528
93547SOL     OW82472   7.055   7.541   0.122
93547SOL    HW182473   7.039   7.466   0.180
93547SOL    HW282474   7.046   7.505   0.034
93548SOL     OW82475  12.182   4.574  10.658
93548SOL    HW182476  12.150   4.492  10.618
93548SOL    HW282477  12.257   4.547  10.711
93549SOL     OW82478  13.947   0.988   3.968
93549SOL    HW182479  13.965   0.906   3.921
93549SOL    HW282480  14.025   1.002   4.023
93550SOL     OW82481   2.764   2.884   6.314
93550SOL    HW182482   2.691   2.947   6.310
93550SOL    HW282483   2.834   2.926   6.264
93551SOL     OW82484  11.955   4.635   6.435
93551SOL    HW182485  11.969   4.558   6.491
93551SOL    HW282486  11.860   4.646   6.432
93552SOL     OW82487   8.881   6.948  14.579
93552SOL    HW182488   8.954   6.982  14.528
93552SOL    HW282489   8.865   6.861  14.543
93553SOL     OW82490   4.747   2.021  13.488
93553SOL    HW182491   4.780   1.950  13.432
93553SOL    HW282492   4.686   1.978  13.547
93554SOL     OW82493   6.083  11.109   8.572
93554SOL    HW182494   6.064  11.043   8.506
93554SOL    HW282495   6.021  11.091   8.643
93555SOL     OW82496   0.012  13.413   4.770
93555SOL    HW182497  14.872  13.440   4.680
93555SOL    HW282498  14.840  13.476   4.823
93556SOL     OW82499  12.410   1.952   7.230
93556SOL    HW182500  12.488   1.896   7.236
93556SOL    HW282501  12.435   2.022   7.170
93557SOL     OW82502   8.606   7.399  10.879
93557SOL    HW182503   8.542   7.469  10.885
93557SOL    HW282504   8.638   7.388  10.969
93558SOL     OW82505  12.669  11.722  10.234
93558SOL    HW182506  12.658  11.709  10.328
93558SOL    HW282507  12.607  11.660  10.194
93559SOL     OW82508  14.291   2.215  13.761
93559SOL    HW182509  14.198   2.197  13.774
93559SOL    HW282510  14.298   2.310  13.773
93560SOL     OW82511   5.178   5.055  11.218
93560SOL    HW182512   5.198   5.004  11.140
93560SOL    HW282513   5.263   5.089  11.247
93561SOL     OW82514   4.558   7.129  12.774
93561SOL    HW182515   4.545   7.160  12.684
93561SOL    HW282516   4.490   7.063  12.787
93562SOL     OW82517  14.428   4.059  11.549
93562SOL    HW182518  14.352   4.024  11.595
93562SOL    HW282519  14.402   4.147  11.523
93563SOL     OW82520  11.723   4.019   4.290
93563SOL    HW182521  11.794   4.073   4.254
93563SOL    HW282522  11.756   3.989   4.375
93564SOL     OW82523  10.865   2.661   5.443
93564SOL    HW182524  10.824   2.707   5.370
93564SOL    HW282525  10.850   2.568   5.424
93565SOL     OW82526   8.037  12.497   2.503
93565SOL    HW182527   8.010  12.587   2.489
93565SOL    HW282528   7.960  12.455   2.543
93566SOL     OW82529   5.415   2.800  14.051
93566SOL    HW182530   5.467   2.852  13.990
93566SOL    HW282531   5.439   2.835  14.137
93567SOL     OW82532  11.504   9.091  10.752
93567SOL    HW182533  11.578   9.048  10.796
93567SOL    HW282534  11.524   9.184  10.758
93568SOL     OW82535   5.383   0.265  14.752
93568SOL    HW182536   5.440   0.312  14.812
93568SOL    HW282537   5.367   0.181  14.795
93569SOL     OW82538  11.980   2.826   9.164
93569SOL    HW182539  11.933   2.743   9.169
93569SOL    HW282540  11.924   2.882   9.109
93570SOL     OW82541   7.741   4.913  13.865
93570SOL    HW182542   7.669   4.856  13.892
93570SOL    HW282543   7.699   4.981  13.813
93571SOL     OW82544  10.880  10.617  14.555
93571SOL    HW182545  10.934  10.564  14.613
93571SOL    HW282546  10.841  10.554  14.494
93572SOL     OW82547   6.673   9.069   0.340
93572SOL    HW182548   6.666   9.079   0.245
93572SOL    HW282549   6.768   9.062   0.355
93573SOL     OW82550  12.712   9.345  13.456
93573SOL    HW182551  12.726   9.424  13.402
93573SOL    HW282552  12.655   9.290  13.402
93574SOL     OW82553   5.058   0.621   7.510
93574SOL    HW182554   5.055   0.703   7.461
93574SOL    HW282555   5.015   0.557   7.452
93575SOL     OW82556   0.926   8.302   7.239
93575SOL    HW182557   0.959   8.378   7.287
93575SOL    HW282558   0.984   8.294   7.164
93576SOL     OW82559  11.884   7.357  11.960
93576SOL    HW182560  11.877   7.283  11.900
93576SOL    HW282561  11.815   7.417  11.931
93577SOL     OW82562   7.640   8.607   0.471
93577SOL    HW182563   7.689   8.557   0.537
93577SOL    HW282564   7.614   8.542   0.407
93578SOL     OW82565   0.411  12.899   0.393
93578SOL    HW182566   0.367  12.835   0.449
93578SOL    HW282567   0.368  12.982   0.412
93579SOL     OW82568   1.839  10.941  14.366
93579SOL    HW182569   1.783  10.864  14.360
93579SOL    HW282570   1.925  10.906  14.392
93580SOL     OW82571   3.465   0.239   5.975
93580SOL    HW182572   3.540   0.180   5.984
93580SOL    HW282573   3.460   0.257   5.881
93581SOL     OW82574   8.966   4.161   4.594
93581SOL    HW182575   9.052   4.179   4.630
93581SOL    HW282576   8.931   4.090   4.648
93582SOL     OW82577   1.888   5.017   6.872
93582SOL    HW182578   1.924   5.104   6.891
93582SOL    HW282579   1.901   5.006   6.778
93583SOL     OW82580   8.923   1.084   3.735
93583SOL    HW182581   8.838   1.090   3.779
93583SOL    HW282582   8.986   1.069   3.806
93584SOL     OW82583   9.517   9.590  11.276
93584SOL    HW182584   9.523   9.677  11.315
93584SOL    HW282585   9.496   9.607  11.184
93585SOL     OW82586   4.962   9.439   8.494
93585SOL    HW182587   4.872   9.467   8.483
93585SOL    HW282588   5.014   9.518   8.479
93586SOL     OW82589  12.856   1.913   6.277
93586SOL    HW182590  12.788   1.935   6.213
93586SOL    HW282591  12.807   1.876   6.351
93587SOL     OW82592   0.150   6.337   8.860
93587SOL    HW182593   0.095   6.346   8.938
93587SOL    HW282594   0.111   6.265   8.811
93588SOL     OW82595  12.677   0.948  12.379
93588SOL    HW182596  12.666   0.970  12.286
93588SOL    HW282597  12.646   0.857  12.385
93589SOL     OW82598   5.225   6.223   9.907
93589SOL    HW182599   5.154   6.184   9.958
93589SOL    HW282600   5.201   6.206   9.816
93590SOL     OW82601  10.537  13.315  14.707
93590SOL    HW182602  10.456  13.338  14.662
93590SOL    HW282603  10.606  13.335  14.644
93591SOL     OW82604   9.922   4.484   6.109
93591SOL    HW182605  10.002   4.450   6.150
93591SOL    HW282606   9.896   4.558   6.164
93592SOL     OW82607   3.387  14.764   4.110
93592SOL    HW182608   3.457  14.791   4.051
93592SOL    HW282609   3.323  14.720   4.054
93593SOL     OW82610   5.169  10.891   8.219
93593SOL    HW182611   5.230  10.935   8.161
93593SOL    HW282612   5.109  10.844   8.160
93594SOL     OW82613   9.224   6.694  11.683
93594SOL    HW182614   9.133   6.672  11.660
93594SOL    HW282615   9.216   6.772  11.738
93595SOL     OW82616  13.230   8.265  11.960
93595SOL    HW182617  13.279   8.209  11.901
93595SOL    HW282618  13.247   8.230  12.047
93596SOL     OW82619  12.349   4.201   6.496
93596SOL    HW182620  12.371   4.142   6.568
93596SOL    HW282621  12.433   4.218   6.452
93597SOL     OW82622   4.298  12.733   4.037
93597SOL    HW182623   4.387  12.712   4.063
93597SOL    HW282624   4.246  12.722   4.116
93598SOL     OW82625   0.338   6.082   5.722
93598SOL    HW182626   0.318   6.093   5.815
93598SOL    HW282627   0.327   5.988   5.707
93599SOL     OW82628  10.477   8.220  14.526
93599SOL    HW182629  10.549   8.224  14.464
93599SOL    HW282630  10.511   8.260  14.606
93600SOL     OW82631  14.769   1.040  10.739
93600SOL    HW182632  14.764   1.093  10.659
93600SOL    HW282633  14.700   0.974  10.728
93601SOL     OW82634   0.204   0.719   9.016
93601SOL    HW182635   0.251   0.758   9.090
93601SOL    HW282636   0.118   0.696   9.052
93602SOL     OW82637   2.528  13.860  14.713
93602SOL    HW182638   2.595  13.894  14.654
93602SOL    HW282639   2.556  13.771  14.732
93603SOL     OW82640   4.912   3.681  14.642
93603SOL    HW182641   4.943   3.590  14.636
93603SOL    HW282642   4.941   3.710  14.728
93604SOL     OW82643   5.702   8.373  11.872
93604SOL    HW182644   5.643   8.444  11.847
93604SOL    HW282645   5.645   8.303  11.901
93605SOL     OW82646   5.123   5.082   3.259
93605SOL    HW182647   5.037   5.041   3.247
93605SOL    HW282648   5.110   5.142   3.332
93606SOL     OW82649  12.976   3.021  10.703
93606SOL    HW182650  13.054   3.074  10.720
93606SOL    HW282651  12.938   3.005  10.789
93607SOL     OW82652   0.773   5.077  12.802
93607SOL    HW182653   0.687   5.040  12.785
93607SOL    HW282654   0.810   5.093  12.716
93608SOL     OW82655   1.551   2.600  12.383
93608SOL    HW182656   1.587   2.637  12.302
93608SOL    HW282657   1.580   2.509  12.383
93609SOL     OW82658   5.929  13.702  11.797
93609SOL    HW182659   5.977  13.678  11.876
93609SOL    HW282660   5.852  13.750  11.829
93610SOL     OW82661   7.854   5.308   8.937
93610SOL    HW182662   7.872   5.257   8.858
93610SOL    HW282663   7.797   5.379   8.907
93611SOL     OW82664   9.151   2.576  10.791
93611SOL    HW182665   9.186   2.594  10.878
93611SOL    HW282666   9.080   2.513  10.805
93612SOL     OW82667   1.489  13.910   2.010
93612SOL    HW182668   1.458  13.823   1.988
93612SOL    HW282669   1.580  13.898   2.037
93613SOL     OW82670   5.683  13.852  12.941
93613SOL    HW182671   5.644  13.911  13.006
93613SOL    HW282672   5.759  13.814  12.985
93614SOL     OW82673   4.196   4.728   4.296
93614SOL    HW182674   4.283   4.690   4.303
93614SOL    HW282675   4.207   4.802   4.237
93615SOL     OW82676   2.930  10.031  12.607
93615SOL    HW182677   2.884   9.972  12.548
93615SOL    HW282678   3.017   9.992  12.618
93616SOL     OW82679   0.970  10.766   9.743
93616SOL    HW182680   0.956  10.712   9.665
93616SOL    HW282681   1.061  10.793   9.737
93617SOL     OW82682   3.872  13.450  12.942
93617SOL    HW182683   3.882  13.452  12.847
93617SOL    HW282684   3.959  13.472  12.976
93618SOL     OW82685   1.396   7.616  14.767
93618SOL    HW182686   1.301   7.606  14.753
93618SOL    HW282687   1.419   7.694  14.717
93619SOL     OW82688   9.590   7.504   1.358
93619SOL    HW182689   9.586   7.503   1.263
93619SOL    HW282690   9.550   7.587   1.383
93620SOL     OW82691   5.950  14.387   8.224
93620SOL    HW182692   6.008  14.369   8.149
93620SOL    HW282693   5.933  14.300   8.261
93621SOL     OW82694   9.388   0.243   8.150
93621SOL    HW182695   9.383   0.335   8.173
93621SOL    HW282696   9.298   0.218   8.127
93622SOL     OW82697  10.133   6.771  10.207
93622SOL    HW182698  10.106   6.757  10.117
93622SOL    HW282699  10.212   6.824  10.201
93623SOL     OW82700   3.011   1.075   9.454
93623SOL    HW182701   2.977   1.000   9.405
93623SOL    HW282702   3.105   1.058   9.461
93624SOL     OW82703  10.624   6.162  14.159
93624SOL    HW182704  10.573   6.100  14.212
93624SOL    HW282705  10.677   6.107  14.102
93625SOL     OW82706   0.387   9.982   2.624
93625SOL    HW182707   0.334  10.039   2.568
93625SOL    HW282708   0.328   9.956   2.695
93626SOL     OW82709   3.588  13.178  12.719
93626SOL    HW182710   3.651  13.192  12.789
93626SOL    HW282711   3.556  13.089  12.733
93627SOL     OW82712   2.170   4.450  13.616
93627SOL    HW182713   2.220   4.516  13.665
93627SOL    HW282714   2.235   4.384  13.592
93628SOL     OW82715  11.378  13.270   8.992
93628SOL    HW182716  11.349  13.338   9.054
93628SOL    HW282717  11.413  13.319   8.918
93629SOL     OW82718   0.758   3.561  14.228
93629SOL    HW182719   0.829   3.589  14.171
93629SOL    HW282720   0.783   3.473  14.257
93630SOL     OW82721  13.579  13.118   2.893
93630SOL    HW182722  13.630  13.198   2.882
93630SOL    HW282723  13.643  13.052   2.921
93631SOL     OW82724   9.253   1.556  11.258
93631SOL    HW182725   9.219   1.644  11.275
93631SOL    HW282726   9.268   1.519  11.345
93632SOL     OW82727  10.704   6.725  12.023
93632SOL    HW182728  10.775   6.748  11.963
93632SOL    HW282729  10.625   6.762  11.983
93633SOL     OW82730   9.493   2.485   2.289
93633SOL    HW182731   9.425   2.552   2.289
93633SOL    HW282732   9.575   2.535   2.281
93634SOL     OW82733   2.797   5.834   7.603
93634SOL    HW182734   2.854   5.759   7.587
93634SOL    HW282735   2.764   5.821   7.692
93635SOL     OW82736   8.490  14.761  12.225
93635SOL    HW182737   8.535  14.806  12.296
93635SOL    HW282738   8.494  14.822  12.152
93636SOL     OW82739  11.182   2.695  12.968
93636SOL    HW182740  11.169   2.602  12.984
93636SOL    HW282741  11.276   2.703  12.949
93637SOL     OW82742   4.662   4.528  11.400
93637SOL    HW182743   4.598   4.456  11.404
93637SOL    HW282744   4.746   4.484  11.390
93638SOL     OW82745   0.917   2.464   1.812
93638SOL    HW182746   0.917   2.398   1.743
93638SOL    HW282747   0.982   2.433   1.875
93639SOL     OW82748   0.155  10.724  11.238
93639SOL    HW182749   0.107  10.662  11.292
93639SOL    HW282750   0.245  10.693  11.239
93640SOL     OW82751   1.466   0.649   8.922
93640SOL    HW182752   1.555   0.614   8.929
93640SOL    HW282753   1.467   0.701   8.841
93641SOL     OW82754   7.942   0.083   0.465
93641SOL    HW182755   7.921   0.066   0.374
93641SOL    HW282756   8.025   0.037   0.480
93642SOL     OW82757   1.930   6.273   1.722
93642SOL    HW182758   1.903   6.194   1.675
93642SOL    HW282759   2.011   6.249   1.765
93643SOL     OW82760   1.112   6.087   5.297
93643SOL    HW182761   1.196   6.123   5.270
93643SOL    HW282762   1.125   5.993   5.301
93644SOL     OW82763   1.399  10.759   5.529
93644SOL    HW182764   1.353  10.720   5.455
93644SOL    HW282765   1.349  10.838   5.550
93645SOL     OW82766  13.165   7.019   7.106
93645SOL    HW182767  13.187   7.026   7.199
93645SOL    HW282768  13.101   7.088   7.091
93646SOL     OW82769   7.620   5.837   7.523
93646SOL    HW182770   7.590   5.882   7.444
93646SOL    HW282771   7.675   5.765   7.491
93647SOL     OW82772  13.543   4.157   4.604
93647SOL    HW182773  13.555   4.228   4.542
93647SOL    HW282774  13.532   4.200   4.689
93648SOL     OW82775   2.793   4.501   4.224
93648SOL    HW182776   2.728   4.440   4.260
93648SOL    HW282777   2.770   4.586   4.261
93649SOL     OW82778   2.153   2.796  14.027
93649SOL    HW182779   2.158   2.876  13.974
93649SOL    HW282780   2.155   2.725  13.963
93650SOL     OW82781  10.818   1.009   8.978
93650SOL    HW182782  10.827   0.919   8.947
93650SOL    HW282783  10.756   1.049   8.917
93651SOL     OW82784   1.405   9.924   9.929
93651SOL    HW182785   1.461   9.990   9.970
93651SOL    HW282786   1.329   9.974   9.898
93652SOL     OW82787   9.172   7.349   3.351
93652SOL    HW182788   9.099   7.383   3.403
93652SOL    HW282789   9.216   7.287   3.409
93653SOL     OW82790   4.960  11.842   2.634
93653SOL    HW182791   4.955  11.899   2.711
93653SOL    HW282792   4.949  11.754   2.669
93654SOL     OW82793   1.919   6.442   8.336
93654SOL    HW182794   2.002   6.484   8.313
93654SOL    HW282795   1.927   6.354   8.301
93655SOL     OW82796   0.244   4.567   8.366
93655SOL    HW182797   0.267   4.543   8.276
93655SOL    HW282798   0.223   4.483   8.408
93656SOL     OW82799  14.608  10.564   1.762
93656SOL    HW182800  14.653  10.640   1.799
93656SOL    HW282801  14.572  10.518   1.838
93657SOL     OW82802   5.114  11.469   1.392
93657SOL    HW182803   5.100  11.444   1.300
93657SOL    HW282804   5.071  11.400   1.442
93658SOL     OW82805   6.911   9.053  14.453
93658SOL    HW182806   6.909   8.959  14.472
93658SOL    HW282807   6.836   9.067  14.396
93659SOL     OW82808   5.753   3.931  13.079
93659SOL    HW182809   5.816   3.862  13.058
93659SOL    HW282810   5.667   3.891  13.065
93660SOL     OW82811  10.830   8.069   3.952
93660SOL    HW182812  10.850   8.157   3.985
93660SOL    HW282813  10.737   8.058   3.968
93661SOL     OW82814  10.096  13.732   5.027
93661SOL    HW182815  10.082  13.721   4.933
93661SOL    HW282816  10.063  13.820   5.046
93662SOL     OW82817   3.580   7.118   0.661
93662SOL    HW182818   3.611   7.112   0.751
93662SOL    HW282819   3.536   7.203   0.656
93663SOL     OW82820   9.082  10.085   8.766
93663SOL    HW182821   9.005  10.048   8.723
93663SOL    HW282822   9.119  10.012   8.816
93664SOL     OW82823   1.962  11.011   9.138
93664SOL    HW182824   1.967  11.103   9.113
93664SOL    HW282825   1.908  10.970   9.070
93665SOL     OW82826  14.544   6.934  14.243
93665SOL    HW182827  14.473   6.880  14.276
93665SOL    HW282828  14.505   7.021  14.231
93666SOL     OW82829   1.961   2.750  10.811
93666SOL    HW182830   2.046   2.789  10.789
93666SOL    HW282831   1.956   2.756  10.906
93667SOL     OW82832   7.709  13.540   0.871
93667SOL    HW182833   7.754  13.584   0.944
93667SOL    HW282834   7.693  13.610   0.807
93668SOL     OW82835   4.288   2.167   3.918
93668SOL    HW182836   4.298   2.124   4.003
93668SOL    HW282837   4.374   2.159   3.877
93669SOL     OW82838  12.891   6.184   4.713
93669SOL    HW182839  12.813   6.184   4.768
93669SOL    HW282840  12.959   6.222   4.767
93670SOL     OW82841   7.835   0.704  12.973
93670SOL    HW182842   7.830   0.771  13.042
93670SOL    HW282843   7.924   0.710  12.940
93671SOL     OW82844   0.423   2.313   4.945
93671SOL    HW182845   0.488   2.371   4.985
93671SOL    HW282846   0.339   2.352   4.967
93672SOL     OW82847   8.816   7.959   2.560
93672SOL    HW182848   8.798   8.050   2.536
93672SOL    HW282849   8.901   7.961   2.603
93673SOL     OW82850  14.280   2.363   0.124
93673SOL    HW182851  14.362   2.315   0.132
93673SOL    HW282852  14.286   2.433   0.189
93674SOL     OW82853  12.324   2.884   6.204
93674SOL    HW182854  12.368   2.814   6.156
93674SOL    HW282855  12.391   2.916   6.265
93675SOL     OW82856   7.111   0.480   2.943
93675SOL    HW182857   7.086   0.449   2.856
93675SOL    HW282858   7.074   0.415   3.003
93676SOL     OW82859   0.467   4.328   9.561
93676SOL    HW182860   0.386   4.379   9.554
93676SOL    HW282861   0.436   4.237   9.569
93677SOL     OW82862   2.562   3.493   8.720
93677SOL    HW182863   2.645   3.461   8.756
93677SOL    HW282864   2.587   3.563   8.660
93678SOL     OW82865   2.419   1.187  13.621
93678SOL    HW182866   2.403   1.169  13.714
93678SOL    HW282867   2.507   1.153  13.605
93679SOL     OW82868   6.103  12.458  11.209
93679SOL    HW182869   6.186  12.428  11.248
93679SOL    HW282870   6.128  12.489  11.122
93680SOL     OW82871  14.647   6.815   9.313
93680SOL    HW182872  14.597   6.738   9.287
93680SOL    HW282873  14.581   6.883   9.327
93681SOL     OW82874  14.164   6.113   7.703
93681SOL    HW182875  14.146   6.019   7.711
93681SOL    HW282876  14.228   6.119   7.632
93682SOL     OW82877  12.831   7.565  11.916
93682SOL    HW182878  12.881   7.630  11.866
93682SOL    HW282879  12.805   7.612  11.995
93683SOL     OW82880   8.518  10.322   9.277
93683SOL    HW182881   8.481  10.364   9.199
93683SOL    HW282882   8.453  10.256   9.302
93684SOL     OW82883   8.325  13.856  13.404
93684SOL    HW182884   8.303  13.920  13.472
93684SOL    HW282885   8.371  13.787  13.451
93685SOL     OW82886  10.811   9.386   3.119
93685SOL    HW182887  10.774   9.430   3.042
93685SOL    HW282888  10.871   9.450   3.157
93686SOL     OW82889  12.245   1.047  11.083
93686SOL    HW182890  12.186   1.111  11.122
93686SOL    HW282891  12.327   1.057  11.132
93687SOL     OW82892   9.452   2.419   3.089
93687SOL    HW182893   9.398   2.343   3.111
93687SOL    HW282894   9.410   2.492   3.136
93688SOL     OW82895  10.170   0.219   2.473
93688SOL    HW182896  10.089   0.176   2.501
93688SOL    HW282897  10.236   0.150   2.475
93689SOL     OW82898   7.215   0.664  11.407
93689SOL    HW182899   7.252   0.576  11.409
93689SOL    HW282900   7.174   0.671  11.321
93690SOL     OW82901   1.614   0.310  14.153
93690SOL    HW182902   1.574   0.283  14.235
93690SOL    HW282903   1.566   0.388  14.127
93691SOL     OW82904   2.467   3.995  11.457
93691SOL    HW182905   2.488   4.075  11.410
93691SOL    HW282906   2.504   4.008  11.544
93692SOL     OW82907   4.129   1.574  11.793
93692SOL    HW182908   4.152   1.481  11.790
93692SOL    HW282909   4.195   1.613  11.851
93693SOL     OW82910   9.744  11.145  12.426
93693SOL    HW182911   9.718  11.171  12.514
93693SOL    HW282912   9.726  11.051  12.422
93694SOL     OW82913   6.543   9.145   6.164
93694SOL    HW182914   6.571   9.202   6.092
93694SOL    HW282915   6.620   9.090   6.182
93695SOL     OW82916   0.171   7.794  12.071
93695SOL    HW182917   0.200   7.833  11.988
93695SOL    HW282918   0.143   7.706  12.047
93696SOL     OW82919   3.017   3.579   2.351
93696SOL    HW182920   3.056   3.495   2.328
93696SOL    HW282921   3.023   3.583   2.446
93697SOL     OW82922  13.720  11.690  14.757
93697SOL    HW182923  13.735  11.755  14.825
93697SOL    HW282924  13.710  11.742  14.677
93698SOL     OW82925  14.364  10.780   7.781
93698SOL    HW182926  14.368  10.793   7.686
93698SOL    HW282927  14.275  10.748   7.797
93699SOL     OW82928  11.209   6.186   7.492
93699SOL    HW182929  11.295   6.224   7.478
93699SOL    HW282930  11.158   6.255   7.532
93700SOL     OW82931   2.338   0.922  14.208
93700SOL    HW182932   2.355   1.011  14.238
93700SOL    HW282933   2.398   0.910  14.134
93701SOL     OW82934   0.554   1.705   8.126
93701SOL    HW182935   0.566   1.797   8.147
93701SOL    HW282936   0.557   1.660   8.211
93702SOL     OW82937   7.779  10.609   8.481
93702SOL    HW182938   7.775  10.610   8.577
93702SOL    HW282939   7.783  10.516   8.459
93703SOL     OW82940   1.900  12.560   6.086
93703SOL    HW182941   1.852  12.623   6.140
93703SOL    HW282942   1.987  12.557   6.126
93704SOL     OW82943   1.264   2.417   1.077
93704SOL    HW182944   1.248   2.463   1.159
93704SOL    HW282945   1.197   2.349   1.074
93705SOL     OW82946  13.154   2.218  13.514
93705SOL    HW182947  13.114   2.289  13.565
93705SOL    HW282948  13.205   2.263  13.446
93706SOL     OW82949  10.939  10.612   2.490
93706SOL    HW182950  10.996  10.545   2.453
93706SOL    HW282951  10.966  10.693   2.447
93707SOL     OW82952   1.065   9.707   9.951
93707SOL    HW182953   1.158   9.693   9.968
93707SOL    HW282954   1.025   9.621   9.965
93708SOL     OW82955   4.735  14.022   5.743
93708SOL    HW182956   4.747  14.096   5.683
93708SOL    HW282957   4.713  14.063   5.827
93709SOL     OW82958   7.923   7.445  12.529
93709SOL    HW182959   7.956   7.471  12.615
93709SOL    HW282960   7.984   7.378  12.499
93710SOL     OW82961   6.824   0.964   8.291
93710SOL    HW182962   6.811   0.870   8.285
93710SOL    HW282963   6.880   0.986   8.217
93711SOL     OW82964  10.783   7.654  12.141
93711SOL    HW182965  10.749   7.623  12.225
93711SOL    HW282966  10.780   7.577  12.084
93712SOL     OW82967  13.317  13.454   9.987
93712SOL    HW182968  13.372  13.397   9.933
93712SOL    HW282969  13.296  13.400  10.064
93713SOL     OW82970   9.771   5.803   8.902
93713SOL    HW182971   9.835   5.733   8.887
93713SOL    HW282972   9.777   5.820   8.996
93714SOL     OW82973   5.055   9.236   5.522
93714SOL    HW182974   5.023   9.186   5.447
93714SOL    HW282975   5.113   9.302   5.483
93715SOL     OW82976  12.347  10.009   2.281
93715SOL    HW182977  12.383   9.940   2.337
93715SOL    HW282978  12.376   9.985   2.193
93716SOL     OW82979  13.262  14.055   8.604
93716SOL    HW182980  13.320  14.041   8.529
93716SOL    HW282981  13.174  14.042   8.569
93717SOL     OW82982  12.531  14.322  13.224
93717SOL    HW182983  12.587  14.353  13.152
93717SOL    HW282984  12.556  14.375  13.299
93718SOL     OW82985   7.142  11.918   7.466
93718SOL    HW182986   7.142  12.010   7.491
93718SOL    HW282987   7.232  11.889   7.481
93719SOL     OW82988   4.982   0.180  10.714
93719SOL    HW182989   4.966   0.088  10.734
93719SOL    HW282990   5.014   0.180  10.624
93720SOL     OW82991   5.844   9.686   9.274
93720SOL    HW182992   5.850   9.614   9.211
93720SOL    HW282993   5.933   9.719   9.283
93721SOL     OW82994   5.064   7.129   6.585
93721SOL    HW182995   5.086   7.191   6.516
93721SOL    HW282996   5.109   7.162   6.663
93722SOL     OW82997   0.025   2.289   7.960
93722SOL    HW182998   0.025   2.199   7.927
93722SOL    HW282999  14.809   2.308   7.978
93723SOL     OW83000   4.145   8.370  12.408
93723SOL    HW183001   4.141   8.291  12.354
93723SOL    HW283002   4.208   8.427  12.364
93724SOL     OW83003   7.670   5.500   8.877
93724SOL    HW183004   7.653   5.497   8.783
93724SOL    HW283005   7.587   5.528   8.916
93725SOL     OW83006  10.169   0.590  10.930
93725SOL    HW183007  10.165   0.622  11.021
93725SOL    HW283008  10.082   0.609  10.894
93726SOL     OW83009  12.711  13.694   9.461
93726SOL    HW183010  12.649  13.743   9.407
93726SOL    HW283011  12.765  13.761   9.502
93727SOL     OW83012  13.033   9.613   3.292
93727SOL    HW183013  13.047   9.707   3.281
93727SOL    HW283014  12.982   9.587   3.215
93728SOL     OW83015  11.759  11.792  13.786
93728SOL    HW183016  11.801  11.709  13.762
93728SOL    HW283017  11.666  11.770  13.793
93729SOL     OW83018   2.430   0.672  13.543
93729SOL    HW183019   2.399   0.695  13.456
93729SOL    HW283020   2.500   0.608  13.529
93730SOL     OW83021   7.957   4.014   8.098
93730SOL    HW183022   7.973   4.048   8.009
93730SOL    HW283023   8.044   4.006   8.137
93731SOL     OW83024  11.511  14.117   7.657
93731SOL    HW183025  11.503  14.201   7.702
93731SOL    HW283026  11.598  14.120   7.617
93732SOL     OW83027   9.967   4.480   8.193
93732SOL    HW183028   9.893   4.503   8.250
93732SOL    HW283029  10.037   4.541   8.219
93733SOL     OW83030   2.005   9.250  11.401
93733SOL    HW183031   1.916   9.217  11.416
93733SOL    HW283032   2.004   9.338  11.438
93734SOL     OW83033  10.237   1.630  14.462
93734SOL    HW183034  10.242   1.535  14.454
93734SOL    HW283035  10.174   1.657  14.396
93735SOL     OW83036   2.935  14.057  14.188
93735SOL    HW183037   2.863  14.070  14.251
93735SOL    HW283038   2.917  13.972  14.149
93736SOL     OW83039  11.803   6.079   9.120
93736SOL    HW183040  11.758   6.014   9.066
93736SOL    HW283041  11.896   6.056   9.113
93737SOL     OW83042  12.483  14.783  14.533
93737SOL    HW183043  12.480  14.869  14.493
93737SOL    HW283044  12.394  14.748  14.522
93738SOL     OW83045  11.831  11.443  14.561
93738SOL    HW183046  11.833  11.482  14.473
93738SOL    HW283047  11.745  11.467  14.596
93739SOL     OW83048  10.883   7.516   2.968
93739SOL    HW183049  10.826   7.507   3.044
93739SOL    HW283050  10.946   7.584   2.993
93740SOL     OW83051   7.835   6.936  10.349
93740SOL    HW183052   7.803   6.888  10.273
93740SOL    HW283053   7.787   6.900  10.423
93741SOL     OW83054   6.544   0.125   9.155
93741SOL    HW183055   6.458   0.084   9.166
93741SOL    HW283056   6.551   0.186   9.228
93742SOL     OW83057   8.123   3.269   7.172
93742SOL    HW183058   8.036   3.287   7.206
93742SOL    HW283059   8.113   3.190   7.118
93743SOL     OW83060   5.442  12.156  10.982
93743SOL    HW183061   5.362  12.192  11.018
93743SOL    HW283062   5.415  12.117  10.898
93744SOL     OW83063   9.487  10.557   6.166
93744SOL    HW183064   9.425  10.490   6.195
93744SOL    HW283065   9.513  10.602   6.247
93745SOL     OW83066   3.037  12.184   7.601
93745SOL    HW183067   3.064  12.092   7.604
93745SOL    HW283068   3.031  12.204   7.507
93746SOL     OW83069  12.421   1.289   0.291
93746SOL    HW183070  12.420   1.365   0.234
93746SOL    HW283071  12.339   1.293   0.340
93747SOL     OW83072   5.263  12.272  13.837
93747SOL    HW183073   5.356  12.260  13.855
93747SOL    HW283074   5.238  12.348  13.890
93748SOL     OW83075  13.154  14.116   4.464
93748SOL    HW183076  13.218  14.157   4.406
93748SOL    HW283077  13.196  14.036   4.496
93749SOL     OW83078   2.865   3.259  12.363
93749SOL    HW183079   2.778   3.259  12.403
93749SOL    HW283080   2.848   3.278  12.270
93750SOL     OW83081  10.181   7.236  13.470
93750SOL    HW183082  10.261   7.227  13.521
93750SOL    HW283083  10.205   7.206  13.382
93751SOL     OW83084   0.765   9.111  12.576
93751SOL    HW183085   0.750   9.165  12.499
93751SOL    HW283086   0.785   9.173  12.646
93752SOL     OW83087   6.221  12.874   4.776
93752SOL    HW183088   6.267  12.938   4.830
93752SOL    HW283089   6.273  12.794   4.784
93753SOL     OW83090  12.631   5.510  13.010
93753SOL    HW183091  12.582   5.561  13.074
93753SOL    HW283092  12.722   5.517  13.038
93754SOL     OW83093   0.332  14.280   5.490
93754SOL    HW183094   0.364  14.259   5.402
93754SOL    HW283095   0.345  14.199   5.540
93755SOL     OW83096   2.049   6.957  14.599
93755SOL    HW183097   2.111   6.885  14.610
93755SOL    HW283098   2.082   7.026  14.656
93756SOL     OW83099   4.381  14.687  11.375
93756SOL    HW183100   4.366  14.653  11.287
93756SOL    HW283101   4.460  14.741  11.367
93757SOL     OW83102   7.999   0.887   0.802
93757SOL    HW183103   8.092   0.866   0.799
93757SOL    HW283104   7.956   0.803   0.816
93758SOL     OW83105   3.679   8.195  14.580
93758SOL    HW183106   3.715   8.222  14.664
93758SOL    HW283107   3.587   8.179  14.596
93759SOL     OW83108   7.537  13.159  10.113
93759SOL    HW183109   7.526  13.093  10.045
93759SOL    HW283110   7.487  13.235  10.082
93760SOL     OW83111   2.211   2.891   6.882
93760SOL    HW183112   2.249   2.963   6.933
93760SOL    HW283113   2.163   2.839   6.946
93761SOL     OW83114   6.056   1.517   8.310
93761SOL    HW183115   6.087   1.491   8.397
93761SOL    HW283116   6.026   1.435   8.270
93762SOL     OW83117  13.319   7.161   2.270
93762SOL    HW183118  13.313   7.163   2.366
93762SOL    HW283119  13.406   7.125   2.252
93763SOL     OW83120   9.428   9.111  14.038
93763SOL    HW183121   9.502   9.130  13.981
93763SOL    HW283122   9.355   9.157  13.998
93764SOL     OW83123   1.366   2.664  12.961
93764SOL    HW183124   1.340   2.750  12.928
93764SOL    HW283125   1.420   2.627  12.891
93765SOL     OW83126  11.425  14.052   6.053
93765SOL    HW183127  11.425  14.045   6.149
93765SOL    HW283128  11.518  14.059   6.029
93766SOL     OW83129   1.436  12.747  12.235
93766SOL    HW183130   1.518  12.736  12.186
93766SOL    HW283131   1.447  12.693  12.313
93767SOL     OW83132   3.700   8.634  11.803
93767SOL    HW183133   3.717   8.726  11.826
93767SOL    HW283134   3.743   8.622  11.719
93768SOL     OW83135   8.518   4.042   3.356
93768SOL    HW183136   8.607   4.065   3.330
93768SOL    HW283137   8.520   4.042   3.451
93769SOL     OW83138   0.191  11.492  11.181
93769SOL    HW183139   0.212  11.408  11.140
93769SOL    HW283140   0.098  11.504  11.165
93770SOL     OW83141   1.602  12.082   8.415
93770SOL    HW183142   1.632  12.060   8.327
93770SOL    HW283143   1.659  12.033   8.473
93771SOL     OW83144   1.774   0.853  12.159
93771SOL    HW183145   1.703   0.839  12.221
93771SOL    HW283146   1.744   0.924  12.103
93772SOL     OW83147   2.702   4.695   6.483
93772SOL    HW183148   2.733   4.709   6.572
93772SOL    HW283149   2.615   4.735   6.481
93773SOL     OW83150   8.099  12.723  14.193
93773SOL    HW183151   8.193  12.736  14.209
93773SOL    HW283152   8.073  12.656  14.256
93774SOL     OW83153  12.028   7.075  13.798
93774SOL    HW183154  12.099   7.129  13.833
93774SOL    HW283155  12.072   7.010  13.743
93775SOL     OW83156   9.846   1.397   9.891
93775SOL    HW183157   9.886   1.409   9.977
93775SOL    HW283158   9.766   1.347   9.908
93776SOL     OW83159   2.716   2.889   5.905
93776SOL    HW183160   2.748   2.838   5.830
93776SOL    HW283161   2.723   2.829   5.979
93777SOL     OW83162   2.648   8.386   4.468
93777SOL    HW183163   2.620   8.296   4.453
93777SOL    HW283164   2.596   8.437   4.405
93778SOL     OW83165   7.313  11.054  12.145
93778SOL    HW183166   7.261  11.102  12.081
93778SOL    HW283167   7.279  10.965  12.141
93779SOL     OW83168  14.058  12.358  14.467
93779SOL    HW183169  14.062  12.415  14.390
93779SOL    HW283170  14.130  12.388  14.522
93780SOL     OW83171   6.688  10.836   3.801
93780SOL    HW183172   6.730  10.801   3.723
93780SOL    HW283173   6.673  10.929   3.780
93781SOL     OW83174   8.768   7.246   0.915
93781SOL    HW183175   8.824   7.299   0.972
93781SOL    HW283176   8.685   7.294   0.912
93782SOL     OW83177   6.434  10.093   6.418
93782SOL    HW183178   6.384  10.044   6.483
93782SOL    HW283179   6.514  10.118   6.464
93783SOL     OW83180   8.752   6.294   7.513
93783SOL    HW183181   8.834   6.246   7.528
93783SOL    HW283182   8.700   6.278   7.592
93784SOL     OW83183   5.155   7.724   7.757
93784SOL    HW183184   5.173   7.795   7.695
93784SOL    HW283185   5.074   7.751   7.801
93785SOL     OW83186  14.402  12.695   9.059
93785SOL    HW183187  14.387  12.612   9.013
93785SOL    HW283188  14.325  12.748   9.037
93786SOL     OW83189   4.438   0.088   7.446
93786SOL    HW183190   4.443   0.069   7.352
93786SOL    HW283191   4.392   0.013   7.483
93787SOL     OW83192   1.204   6.999  13.497
93787SOL    HW183193   1.296   6.971  13.494
93787SOL    HW283194   1.171   6.961  13.578
93788SOL     OW83195   0.519   9.285   2.052
93788SOL    HW183196   0.570   9.346   2.105
93788SOL    HW283197   0.572   9.270   1.974
93789SOL     OW83198   5.833   2.841   1.274
93789SOL    HW183199   5.922   2.808   1.261
93789SOL    HW283200   5.811   2.883   1.190
93790SOL     OW83201   0.977  14.615   9.428
93790SOL    HW183202   0.964  14.680   9.359
93790SOL    HW283203   0.965  14.663   9.510
93791SOL     OW83204  11.987   8.339   5.004
93791SOL    HW183205  11.945   8.415   5.043
93791SOL    HW283206  12.051   8.311   5.070
93792SOL     OW83207   3.761   2.871  14.019
93792SOL    HW183208   3.756   2.813  13.943
93792SOL    HW283209   3.794   2.954  13.984
93793SOL     OW83210   6.567   1.400   2.558
93793SOL    HW183211   6.592   1.349   2.481
93793SOL    HW283212   6.537   1.335   2.621
93794SOL     OW83213  10.267  13.946  13.478
93794SOL    HW183214  10.287  13.860  13.442
93794SOL    HW283215  10.341  14.001  13.452
93795SOL     OW83216   3.211  13.786  14.321
93795SOL    HW183217   3.242  13.791  14.230
93795SOL    HW283218   3.275  13.730  14.365
93796SOL     OW83219  12.930   8.053  10.918
93796SOL    HW183220  12.951   8.022  11.006
93796SOL    HW283221  13.014   8.055  10.873
93797SOL     OW83222   0.129  12.661   5.662
93797SOL    HW183223   0.095  12.677   5.574
93797SOL    HW283224   0.142  12.748   5.699
93798SOL     OW83225   4.522   5.882   1.276
93798SOL    HW183226   4.586   5.866   1.207
93798SOL    HW283227   4.535   5.974   1.300
93799SOL     OW83228   0.967  13.900   0.098
93799SOL    HW183229   1.041  13.961   0.097
93799SOL    HW283230   0.925  13.911   0.013
93800SOL     OW83231   2.604   7.692   2.885
93800SOL    HW183232   2.542   7.657   2.950
93800SOL    HW283233   2.669   7.739   2.936
93801SOL     OW83234   8.784  13.228   8.142
93801SOL    HW183235   8.817  13.139   8.154
93801SOL    HW283236   8.690  13.218   8.126
93802SOL     OW83237  13.190   7.699   8.904
93802SOL    HW183238  13.222   7.697   8.994
93802SOL    HW283239  13.153   7.786   8.893
93803SOL     OW83240   3.426   7.213   4.260
93803SOL    HW183241   3.435   7.142   4.196
93803SOL    HW283242   3.400   7.168   4.341
93804SOL     OW83243  10.832   5.099   6.100
93804SOL    HW183244  10.863   5.033   6.162
93804SOL    HW283245  10.834   5.054   6.015
93805SOL     OW83246   5.297   9.164   8.594
93805SOL    HW183247   5.344   9.083   8.576
93805SOL    HW283248   5.290   9.208   8.509
93806SOL     OW83249  12.779   4.995   6.735
93806SOL    HW183250  12.694   4.970   6.698
93806SOL    HW283251  12.764   5.081   6.774
93807SOL     OW83252  10.080   4.409  13.675
93807SOL    HW183253  10.029   4.452  13.606
93807SOL    HW283254  10.086   4.318  13.646
93808SOL     OW83255   5.317   5.748  11.656
93808SOL    HW183256   5.222   5.741  11.649
93808SOL    HW283257   5.346   5.772  11.568
93809SOL     OW83258   8.072   2.709  11.715
93809SOL    HW183259   8.095   2.657  11.792
93809SOL    HW283260   7.982   2.683  11.695
93810SOL     OW83261   2.808  11.130   6.153
93810SOL    HW183262   2.738  11.126   6.088
93810SOL    HW283263   2.788  11.058   6.213
93811SOL     OW83264  11.030  12.183  13.185
93811SOL    HW183265  10.937  12.189  13.209
93811SOL    HW283266  11.071  12.258  13.229
93812SOL     OW83267   5.656   4.266  10.290
93812SOL    HW183268   5.644   4.326  10.364
93812SOL    HW283269   5.738   4.294  10.250
93813SOL     OW83270   8.729   7.190  14.132
93813SOL    HW183271   8.642   7.150  14.120
93813SOL    HW283272   8.716   7.282  14.107
93814SOL     OW83273   7.275  11.144   0.146
93814SOL    HW183274   7.181  11.133   0.163
93814SOL    HW283275   7.300  11.220   0.197
93815SOL     OW83276  10.962   8.898  12.508
93815SOL    HW183277  10.922   8.820  12.546
93815SOL    HW283278  10.895   8.965  12.514
93816SOL     OW83279   4.303   0.671   0.844
93816SOL    HW183280   4.320   0.754   0.800
93816SOL    HW283281   4.248   0.694   0.919
93817SOL     OW83282   2.249   7.280   4.657
93817SOL    HW183283   2.301   7.360   4.671
93817SOL    HW283284   2.169   7.311   4.615
93818SOL     OW83285   2.908   8.020  12.330
93818SOL    HW183286   2.838   8.074  12.366
93818SOL    HW283287   2.863   7.956  12.274
93819SOL     OW83288   7.175   2.397  11.171
93819SOL    HW183289   7.207   2.487  11.167
93819SOL    HW283290   7.086   2.405  11.205
93820SOL     OW83291   6.780   7.196   6.330
93820SOL    HW183292   6.700   7.161   6.368
93820SOL    HW283293   6.760   7.287   6.310
93821SOL     OW83294   5.597   7.020  10.139
93821SOL    HW183295   5.665   7.086  10.126
93821SOL    HW283296   5.600   7.000  10.232
93822SOL     OW83297   2.317  13.204   9.536
93822SOL    HW183298   2.387  13.141   9.552
93822SOL    HW283299   2.362  13.280   9.498
93823SOL     OW83300   8.867   5.930   5.312
93823SOL    HW183301   8.879   5.894   5.224
93823SOL    HW283302   8.949   5.909   5.357
93824SOL     OW83303  14.618   5.581   9.438
93824SOL    HW183304  14.532   5.543   9.459
93824SOL    HW283305  14.598   5.652   9.377
93825SOL     OW83306   2.171   2.933   1.898
93825SOL    HW183307   2.158   2.869   1.967
93825SOL    HW283308   2.114   3.006   1.922
93826SOL     OW83309  12.889  12.518  12.952
93826SOL    HW183310  12.944  12.589  12.918
93826SOL    HW283311  12.845  12.483  12.874
93827SOL     OW83312   5.610   9.032   9.215
93827SOL    HW183313   5.624   9.050   9.308
93827SOL    HW283314   5.698   9.025   9.179
93828SOL     OW83315   6.568  10.958  10.238
93828SOL    HW183316   6.543  10.866  10.235
93828SOL    HW283317   6.605  10.970  10.325
93829SOL     OW83318   6.668   5.178  12.308
93829SOL    HW183319   6.675   5.213  12.219
93829SOL    HW283320   6.741   5.218  12.356
93830SOL     OW83321   8.341   8.285  11.288
93830SOL    HW183322   8.276   8.240  11.234
93830SOL    HW283323   8.387   8.344  11.227
93831SOL     OW83324   5.243   5.970  13.515
93831SOL    HW183325   5.283   5.912  13.580
93831SOL    HW283326   5.174   5.917  13.475
93832SOL     OW83327   5.173   5.049  10.258
93832SOL    HW183328   5.203   4.958  10.260
93832SOL    HW283329   5.186   5.077  10.167
93833SOL     OW83330   0.858   8.451   8.957
93833SOL    HW183331   0.953   8.443   8.965
93833SOL    HW283332   0.843   8.475   8.866
93834SOL     OW83333   7.136  13.372  14.241
93834SOL    HW183334   7.198  13.430  14.286
93834SOL    HW283335   7.191  13.310  14.194
93835SOL     OW83336   8.506   9.647  13.742
93835SOL    HW183337   8.513   9.553  13.726
93835SOL    HW283338   8.587   9.669  13.789
93836SOL     OW83339   3.154   1.969  10.306
93836SOL    HW183340   3.110   1.933  10.383
93836SOL    HW283341   3.196   1.894  10.264
93837SOL     OW83342  13.053  12.463   5.284
93837SOL    HW183343  12.960  12.481   5.272
93837SOL    HW283344  13.077  12.511   5.363
93838SOL     OW83345   9.740  14.007   6.551
93838SOL    HW183346   9.782  13.983   6.469
93838SOL    HW283347   9.804  13.986   6.619
93839SOL     OW83348  10.732   0.851  10.318
93839SOL    HW183349  10.662   0.790  10.339
93839SOL    HW283350  10.811   0.811  10.354
93840SOL     OW83351  14.694   1.402   9.319
93840SOL    HW183352  14.713   1.310   9.338
93840SOL    HW283353  14.770   1.432   9.268
93841SOL     OW83354   4.420  13.032   0.411
93841SOL    HW183355   4.422  12.955   0.353
93841SOL    HW283356   4.481  13.094   0.369
93842SOL     OW83357   8.572  10.188   1.615
93842SOL    HW183358   8.625  10.113   1.643
93842SOL    HW283359   8.519  10.154   1.543
93843SOL     OW83360   2.934   7.454  10.780
93843SOL    HW183361   2.970   7.396  10.847
93843SOL    HW283362   2.847   7.418  10.761
93844SOL     OW83363   6.126   4.364  10.999
93844SOL    HW183364   6.099   4.349  10.908
93844SOL    HW283365   6.045   4.389  11.044
93845SOL     OW83366   4.056  11.884   3.836
93845SOL    HW183367   4.127  11.931   3.792
93845SOL    HW283368   4.088  11.794   3.842
93846SOL     OW83369   9.296  13.798   2.405
93846SOL    HW183370   9.288  13.812   2.310
93846SOL    HW283371   9.206  13.786   2.434
93847SOL     OW83372  11.694  10.036   8.652
93847SOL    HW183373  11.615  10.013   8.701
93847SOL    HW283374  11.664  10.052   8.563
93848SOL     OW83375   2.994   5.046  13.870
93848SOL    HW183376   2.960   4.968  13.914
93848SOL    HW283377   2.991   5.114  13.937
93849SOL     OW83378   9.068  11.991   7.915
93849SOL    HW183379   9.019  12.073   7.915
93849SOL    HW283380   9.073  11.966   8.007
93850SOL     OW83381  14.513   0.979   6.086
93850SOL    HW183382  14.442   0.971   6.150
93850SOL    HW283383  14.485   0.924   6.013
93851SOL     OW83384  12.949   1.061   1.094
93851SOL    HW183385  13.036   1.023   1.090
93851SOL    HW283386  12.954   1.128   1.162
93852SOL     OW83387  10.842   4.991   0.738
93852SOL    HW183388  10.931   4.955   0.735
93852SOL    HW283389  10.786   4.915   0.752
93853SOL     OW83390   5.515   6.456   0.550
93853SOL    HW183391   5.528   6.454   0.645
93853SOL    HW283392   5.426   6.425   0.537
93854SOL     OW83393   4.585   3.821   6.309
93854SOL    HW183394   4.517   3.885   6.292
93854SOL    HW283395   4.618   3.796   6.223
93855SOL     OW83396   6.578   3.158   5.458
93855SOL    HW183397   6.581   3.064   5.476
93855SOL    HW283398   6.618   3.198   5.535
93856SOL     OW83399   5.182  10.518   9.084
93856SOL    HW183400   5.153  10.587   9.144
93856SOL    HW283401   5.218  10.565   9.009
93857SOL     OW83402   7.029   2.591   6.032
93857SOL    HW183403   7.073   2.615   6.113
93857SOL    HW283404   7.029   2.671   5.979
93858SOL     OW83405   0.018   1.717  14.853
93858SOL    HW183406   0.107   1.695   0.005
93858SOL    HW283407  14.848   1.633  14.849
93859SOL     OW83408   3.807   8.935   8.145
93859SOL    HW183409   3.712   8.928   8.160
93859SOL    HW283410   3.842   8.853   8.178
93860SOL     OW83411   8.916   0.746   3.946
93860SOL    HW183412   8.833   0.782   3.915
93860SOL    HW283413   8.957   0.708   3.868
93861SOL     OW83414   9.869   3.359   2.631
93861SOL    HW183415   9.800   3.307   2.589
93861SOL    HW283416   9.834   3.448   2.632
93862SOL     OW83417  11.731   0.716   9.000
93862SOL    HW183418  11.748   0.799   9.046
93862SOL    HW283419  11.643   0.691   9.027
93863SOL     OW83420   6.663  10.104   7.629
93863SOL    HW183421   6.576  10.085   7.664
93863SOL    HW283422   6.690  10.022   7.586
93864SOL     OW83423   6.382  12.683  11.485
93864SOL    HW183424   6.463  12.699  11.533
93864SOL    HW283425   6.339  12.768  11.480
93865SOL     OW83426   8.089  12.782   4.305
93865SOL    HW183427   8.016  12.721   4.296
93865SOL    HW283428   8.167  12.727   4.295
93866SOL     OW83429   0.182   3.959  11.617
93866SOL    HW183430   0.188   4.049  11.650
93866SOL    HW283431   0.115   3.918  11.672
93867SOL     OW83432   8.224   1.122  13.586
93867SOL    HW183433   8.316   1.144  13.596
93867SOL    HW283434   8.217   1.085  13.499
93868SOL     OW83435   6.025  12.510   1.488
93868SOL    HW183436   5.956  12.514   1.421
93868SOL    HW283437   6.079  12.435   1.463
93869SOL     OW83438   2.985   2.774  11.073
93869SOL    HW183439   3.031   2.858  11.063
93869SOL    HW283440   2.902   2.796  11.114
93870SOL     OW83441  10.422  14.389  10.876
93870SOL    HW183442  10.411  14.408  10.969
93870SOL    HW283443  10.431  14.475  10.835
93871SOL     OW83444   9.968  11.551   9.754
93871SOL    HW183445  10.033  11.616   9.727
93871SOL    HW283446   9.885  11.597   9.750
93872SOL     OW83447   3.476   1.538   8.572
93872SOL    HW183448   3.532   1.612   8.545
93872SOL    HW283449   3.458   1.554   8.665
93873SOL     OW83450   9.105   6.363   9.982
93873SOL    HW183451   9.049   6.314  10.042
93873SOL    HW283452   9.088   6.455  10.003
93874SOL     OW83453   7.300   8.144  12.286
93874SOL    HW183454   7.217   8.190  12.296
93874SOL    HW283455   7.281   8.075  12.222
93875SOL     OW83456  14.747  10.481   8.227
93875SOL    HW183457  14.738  10.387   8.243
93875SOL    HW283458  14.842  10.495   8.219
93876SOL     OW83459   3.644  10.927   6.572
93876SOL    HW183460   3.728  10.973   6.565
93876SOL    HW283461   3.665  10.845   6.617
93877SOL     OW83462   6.832   7.969   1.050
93877SOL    HW183463   6.899   8.003   1.110
93877SOL    HW283464   6.859   8.000   0.964
93878SOL     OW83465  10.595   8.444   9.083
93878SOL    HW183466  10.626   8.506   9.017
93878SOL    HW283467  10.507   8.419   9.054
93879SOL     OW83468  10.047   8.758   6.888
93879SOL    HW183469   9.982   8.827   6.893
93879SOL    HW283470  10.068   8.751   6.795
93880SOL     OW83471   0.878   8.980   0.143
93880SOL    HW183472   0.882   8.930   0.225
93880SOL    HW283473   0.969   8.988   0.115
93881SOL     OW83474   7.263  14.302   7.429
93881SOL    HW183475   7.327  14.273   7.494
93881SOL    HW283476   7.315  14.318   7.350
93882SOL     OW83477  11.820   7.509   6.004
93882SOL    HW183478  11.796   7.425   5.966
93882SOL    HW283479  11.844   7.488   6.094
93883SOL     OW83480   8.627   4.378   6.968
93883SOL    HW183481   8.580   4.439   7.025
93883SOL    HW283482   8.715   4.415   6.961
93884SOL     OW83483   4.452   4.755  10.775
93884SOL    HW183484   4.382   4.739  10.711
93884SOL    HW283485   4.516   4.809  10.728
93885SOL     OW83486   3.941  14.538   5.342
93885SOL    HW183487   3.891  14.456   5.333
93885SOL    HW283488   4.021  14.523   5.293
93886SOL     OW83489  10.941  13.297   6.637
93886SOL    HW183490  10.966  13.388   6.654
93886SOL    HW283491  11.023  13.253   6.613
93887SOL     OW83492  10.185   6.909   4.668
93887SOL    HW183493  10.161   6.930   4.758
93887SOL    HW283494  10.110   6.860   4.634
93888SOL     OW83495  11.218  12.368   5.568
93888SOL    HW183496  11.247  12.436   5.507
93888SOL    HW283497  11.150  12.410   5.620
93889SOL     OW83498   0.865   1.674   6.661
93889SOL    HW183499   0.811   1.596   6.646
93889SOL    HW283500   0.953   1.648   6.634
93890SOL     OW83501  11.851   0.306   7.893
93890SOL    HW183502  11.793   0.373   7.930
93890SOL    HW283503  11.930   0.355   7.869
93891SOL     OW83504  14.286   1.671   3.651
93891SOL    HW183505  14.346   1.747   3.652
93891SOL    HW283506  14.269   1.653   3.743
93892SOL     OW83507   4.141  13.726  14.268
93892SOL    HW183508   4.126  13.789  14.197
93892SOL    HW283509   4.217  13.676  14.240
93893SOL     OW83510   3.419  14.119  10.653
93893SOL    HW183511   3.388  14.206  10.627
93893SOL    HW283512   3.348  14.085  10.708
93894SOL     OW83513  10.590  10.903   0.265
93894SOL    HW183514  10.645  10.974   0.234
93894SOL    HW283515  10.583  10.844   0.190
93895SOL     OW83516  13.657   1.661   1.178
93895SOL    HW183517  13.659   1.647   1.273
93895SOL    HW283518  13.750   1.663   1.153
93896SOL     OW83519  10.940   6.919   4.490
93896SOL    HW183520  10.874   6.901   4.557
93896SOL    HW283521  10.908   6.996   4.444
93897SOL     OW83522   9.364   9.575   3.692
93897SOL    HW183523   9.456   9.554   3.705
93897SOL    HW283524   9.323   9.556   3.776
93898SOL     OW83525   9.708   2.431   6.880
93898SOL    HW183526   9.702   2.526   6.881
93898SOL    HW283527   9.670   2.405   6.796
93899SOL     OW83528   3.292  14.449   7.652
93899SOL    HW183529   3.286  14.391   7.576
93899SOL    HW283530   3.330  14.395   7.721
93900SOL     OW83531   9.712   3.550  13.431
93900SOL    HW183532   9.762   3.616  13.480
93900SOL    HW283533   9.778   3.489  13.399
93901SOL     OW83534   7.044   2.813   3.666
93901SOL    HW183535   7.087   2.732   3.692
93901SOL    HW283536   7.016   2.853   3.748
93902SOL     OW83537   4.159  14.472   7.530
93902SOL    HW183538   4.083  14.439   7.481
93902SOL    HW283539   4.199  14.536   7.472
93903SOL     OW83540   2.460   9.126   2.347
93903SOL    HW183541   2.451   9.032   2.364
93903SOL    HW283542   2.551   9.145   2.369
93904SOL     OW83543   8.398  10.362  13.291
93904SOL    HW183544   8.331  10.428  13.273
93904SOL    HW283545   8.372  10.324  13.375
93905SOL     OW83546   7.707   8.498   3.194
93905SOL    HW183547   7.732   8.406   3.182
93905SOL    HW283548   7.713   8.536   3.107
93906SOL     OW83549   8.085   7.022   8.511
93906SOL    HW183550   8.118   7.023   8.422
93906SOL    HW283551   7.995   7.052   8.504
93907SOL     OW83552   2.720  12.262   9.552
93907SOL    HW183553   2.749  12.353   9.563
93907SOL    HW283554   2.640  12.270   9.499
93908SOL     OW83555   4.371   9.267  10.620
93908SOL    HW183556   4.429   9.227  10.555
93908SOL    HW283557   4.318   9.194  10.653
93909SOL     OW83558   8.755  10.005   5.275
93909SOL    HW183559   8.743   9.939   5.344
93909SOL    HW283560   8.667  10.026   5.245
93910SOL     OW83561   2.937   0.418   6.418
93910SOL    HW183562   2.864   0.475   6.397
93910SOL    HW283563   3.007   0.444   6.358
93911SOL     OW83564   0.287   9.511   1.284
93911SOL    HW183565   0.337   9.477   1.210
93911SOL    HW283566   0.335   9.589   1.311
93912SOL     OW83567   7.980   9.389   7.950
93912SOL    HW183568   7.909   9.331   7.975
93912SOL    HW283569   7.943   9.477   7.957
93913SOL     OW83570  14.287  14.809   7.229
93913SOL    HW183571  14.275  14.714   7.225
93913SOL    HW283572  14.245  14.835   7.311
93914SOL     OW83573   8.751   4.178  14.624
93914SOL    HW183574   8.785   4.251  14.572
93914SOL    HW283575   8.690   4.133  14.566
93915SOL     OW83576   5.630   4.265  12.321
93915SOL    HW183577   5.566   4.288  12.388
93915SOL    HW283578   5.649   4.173  12.337
93916SOL     OW83579   4.610   1.888  13.696
93916SOL    HW183580   4.680   1.864  13.757
93916SOL    HW283581   4.552   1.812  13.695
93917SOL     OW83582   2.308  11.200   7.319
93917SOL    HW183583   2.291  11.137   7.388
93917SOL    HW283584   2.273  11.283   7.352
93918SOL     OW83585   7.005   3.400   2.607
93918SOL    HW183586   7.022   3.315   2.648
93918SOL    HW283587   6.980   3.457   2.679
93919SOL     OW83588  12.527   5.250   2.166
93919SOL    HW183589  12.443   5.277   2.204
93919SOL    HW283590  12.525   5.154   2.171
93920SOL     OW83591   6.369   4.510   6.324
93920SOL    HW183592   6.295   4.534   6.268
93920SOL    HW283593   6.341   4.536   6.412
93921SOL     OW83594   2.631   7.902   8.855
93921SOL    HW183595   2.646   7.837   8.924
93921SOL    HW283596   2.546   7.941   8.876
93922SOL     OW83597  12.450   3.179  14.599
93922SOL    HW183598  12.470   3.268  14.628
93922SOL    HW283599  12.513   3.161  14.529
93923SOL     OW83600   0.328   1.901   8.456
93923SOL    HW183601   0.264   1.930   8.392
93923SOL    HW283602   0.300   1.940   8.538
93924SOL     OW83603   7.076   4.111   1.730
93924SOL    HW183604   7.150   4.149   1.777
93924SOL    HW283605   7.111   4.090   1.643
93925SOL     OW83606   4.702   4.953  13.534
93925SOL    HW183607   4.744   5.025  13.486
93925SOL    HW283608   4.687   4.988  13.622
93926SOL     OW83609   8.956   5.461   0.531
93926SOL    HW183610   8.898   5.394   0.495
93926SOL    HW283611   8.973   5.432   0.620
93927SOL     OW83612   2.205   2.662   1.527
93927SOL    HW183613   2.152   2.626   1.598
93927SOL    HW283614   2.293   2.631   1.545
93928SOL     OW83615  10.598  11.453   1.741
93928SOL    HW183616  10.624  11.408   1.661
93928SOL    HW283617  10.552  11.387   1.792
93929SOL     OW83618  10.747   3.852  10.056
93929SOL    HW183619  10.811   3.786  10.029
93929SOL    HW283620  10.689   3.861   9.980
93930SOL     OW83621   6.822  13.399  10.476
93930SOL    HW183622   6.772  13.379  10.397
93930SOL    HW283623   6.829  13.494  10.477
93931SOL     OW83624  12.832   9.510   7.860
93931SOL    HW183625  12.818   9.420   7.834
93931SOL    HW283626  12.823   9.510   7.956
93932SOL     OW83627  12.045   1.806  14.854
93932SOL    HW183628  12.025   1.879   0.037
93932SOL    HW283629  12.102   1.845  14.787
93933SOL     OW83630  10.005  10.862   2.233
93933SOL    HW183631   9.949  10.794   2.195
93933SOL    HW283632   9.959  10.944   2.212
93934SOL     OW83633  11.225   7.179  14.873
93934SOL    HW183634  11.182   7.220  14.798
93934SOL    HW283635  11.170   7.104   0.018
93935SOL     OW83636  10.723  11.938  13.971
93935SOL    HW183637  10.705  11.998  14.043
93935SOL    HW283638  10.711  11.851  14.009
93936SOL     OW83639   0.752  10.953   1.450
93936SOL    HW183640   0.762  11.044   1.478
93936SOL    HW283641   0.679  10.955   1.388
93937SOL     OW83642   6.696  13.306   6.123
93937SOL    HW183643   6.698  13.214   6.148
93937SOL    HW283644   6.721  13.353   6.202
93938SOL     OW83645  13.113   9.156   0.636
93938SOL    HW183646  13.204   9.178   0.657
93938SOL    HW283647  13.061   9.221   0.682
93939SOL     OW83648  13.807   5.411  14.305
93939SOL    HW183649  13.901   5.391  14.310
93939SOL    HW283650  13.768   5.356  14.373
93940SOL     OW83651   5.809   0.399  11.051
93940SOL    HW183652   5.870   0.445  10.994
93940SOL    HW283653   5.806   0.452  11.130
93941SOL     OW83654   6.822   8.477   9.691
93941SOL    HW183655   6.833   8.565   9.654
93941SOL    HW283656   6.728   8.465   9.697
93942SOL     OW83657  14.769   3.013   8.141
93942SOL    HW183658  14.851   2.978   8.107
93942SOL    HW283659  14.724   2.936   8.178
93943SOL     OW83660  13.265   3.436   6.557
93943SOL    HW183661  13.338   3.422   6.617
93943SOL    HW283662  13.262   3.355   6.505
93944SOL     OW83663   5.079   5.778  11.136
93944SOL    HW183664   5.039   5.693  11.117
93944SOL    HW283665   5.171   5.758  11.154
93945SOL     OW83666  10.260  11.474   8.087
93945SOL    HW183667  10.349  11.488   8.119
93945SOL    HW283668  10.267  11.400   8.027
93946SOL     OW83669   7.359   2.037   5.852
93946SOL    HW183670   7.286   1.981   5.825
93946SOL    HW283671   7.319   2.124   5.863
93947SOL     OW83672  12.294  14.667  12.445
93947SOL    HW183673  12.256  14.660  12.358
93947SOL    HW283674  12.333  14.582  12.462
93948SOL     OW83675  14.134  11.083  10.642
93948SOL    HW183676  14.068  11.071  10.574
93948SOL    HW283677  14.166  11.172  10.629
93949SOL     OW83678   0.818   8.536   1.645
93949SOL    HW183679   0.840   8.629   1.632
93949SOL    HW283680   0.728   8.529   1.613
93950SOL     OW83681   1.061  13.730  10.630
93950SOL    HW183682   1.035  13.804  10.685
93950SOL    HW283683   0.988  13.718  10.569
93951SOL     OW83684   1.091  12.189   3.121
93951SOL    HW183685   1.058  12.273   3.154
93951SOL    HW283686   1.140  12.212   3.042
93952SOL     OW83687   5.849   9.887   7.574
93952SOL    HW183688   5.913   9.875   7.644
93952SOL    HW283689   5.894   9.855   7.495
93953SOL     OW83690   4.081  10.585  12.823
93953SOL    HW183691   4.075  10.503  12.774
93953SOL    HW283692   3.990  10.614  12.834
93954SOL     OW83693   0.480   1.493   8.344
93954SOL    HW183694   0.518   1.405   8.345
93954SOL    HW283695   0.524   1.539   8.416
93955SOL     OW83696   1.959  12.623   8.119
93955SOL    HW183697   1.957  12.715   8.092
93955SOL    HW283698   1.965  12.574   8.037
93956SOL     OW83699   3.466  11.248   8.430
93956SOL    HW183700   3.547  11.300   8.425
93956SOL    HW283701   3.396  11.312   8.416
93957SOL     OW83702  10.748   4.873   3.825
93957SOL    HW183703  10.699   4.901   3.748
93957SOL    HW283704  10.840   4.874   3.797
93958SOL     OW83705   4.271  14.427   4.379
93958SOL    HW183706   4.318  14.357   4.334
93958SOL    HW283707   4.195  14.384   4.419
93959SOL     OW83708  12.373   8.719   7.590
93959SOL    HW183709  12.377   8.666   7.670
93959SOL    HW283710  12.461   8.756   7.582
93960SOL     OW83711   5.354  12.049   3.725
93960SOL    HW183712   5.277  12.006   3.763
93960SOL    HW283713   5.408  11.978   3.692
93961SOL     OW83714   2.713  11.830   8.106
93961SOL    HW183715   2.736  11.803   8.017
93961SOL    HW283716   2.738  11.756   8.161
93962SOL     OW83717  12.536   3.661   8.631
93962SOL    HW183718  12.548   3.587   8.571
93962SOL    HW283719  12.454   3.701   8.603
93963SOL     OW83720   9.767  10.210   4.909
93963SOL    HW183721   9.693  10.170   4.955
93963SOL    HW283722   9.732  10.233   4.823
93964SOL     OW83723   8.279  11.926   1.072
93964SOL    HW183724   8.194  11.903   1.035
93964SOL    HW283725   8.306  11.848   1.122
93965SOL     OW83726   0.005  11.891   5.254
93965SOL    HW183727   0.026  11.969   5.305
93965SOL    HW283728   0.084  11.837   5.259
93966SOL     OW83729   9.195  12.751   4.778
93966SOL    HW183730   9.152  12.666   4.775
93966SOL    HW283731   9.172  12.793   4.695
93967SOL     OW83732   3.877   8.139  12.435
93967SOL    HW183733   3.890   8.059  12.486
93967SOL    HW283734   3.813   8.115  12.368
93968SOL     OW83735  12.722   9.454   5.250
93968SOL    HW183736  12.686   9.414   5.329
93968SOL    HW283737  12.646   9.476   5.197
93969SOL     OW83738  13.389   8.062   8.633
93969SOL    HW183739  13.480   8.058   8.605
93969SOL    HW283740  13.355   8.142   8.592
93970SOL     OW83741   7.236  14.342   4.528
93970SOL    HW183742   7.284  14.275   4.577
93970SOL    HW283743   7.198  14.398   4.596
93971SOL     OW83744   2.571  12.183   2.938
93971SOL    HW183745   2.632  12.110   2.950
93971SOL    HW283746   2.520  12.184   3.019
93972SOL     OW83747   1.783   3.424   7.456
93972SOL    HW183748   1.781   3.432   7.360
93972SOL    HW283749   1.876   3.415   7.477
93973SOL     OW83750   1.297   6.414  13.727
93973SOL    HW183751   1.349   6.370  13.661
93973SOL    HW283752   1.282   6.502  13.692
93974SOL     OW83753   5.381   4.673   0.137
93974SOL    HW183754   5.476   4.661   0.143
93974SOL    HW283755   5.367   4.767   0.151
93975SOL     OW83756  13.471   3.087   4.666
93975SOL    HW183757  13.530   3.123   4.599
93975SOL    HW283758  13.405   3.155   4.678
93976SOL     OW83759   3.480   4.001   3.652
93976SOL    HW183760   3.388   4.001   3.675
93976SOL    HW283761   3.485   4.056   3.573
93977SOL     OW83762   5.564   8.283  13.571
93977SOL    HW183763   5.513   8.274  13.490
93977SOL    HW283764   5.573   8.194  13.604
93978SOL     OW83765   2.629  14.063  13.552
93978SOL    HW183766   2.720  14.057  13.522
93978SOL    HW283767   2.605  13.972  13.570
93979SOL     OW83768   3.602   6.246   7.734
93979SOL    HW183769   3.690   6.278   7.754
93979SOL    HW283770   3.614   6.151   7.724
93980SOL     OW83771   7.479   0.161  14.760
93980SOL    HW183772   7.448   0.073  14.742
93980SOL    HW283773   7.408   0.203  14.808
93981SOL     OW83774  11.936   8.926  12.366
93981SOL    HW183775  11.916   8.993  12.302
93981SOL    HW283776  12.002   8.966  12.423
93982SOL     OW83777  13.273  13.050  10.747
93982SOL    HW183778  13.194  13.020  10.703
93982SOL    HW283779  13.343  12.994  10.712
93983SOL     OW83780  12.013   7.026   9.035
93983SOL    HW183781  11.976   7.016   9.123
93983SOL    HW283782  12.075   7.099   9.043
93984SOL     OW83783  12.724   4.694   5.674
93984SOL    HW183784  12.686   4.747   5.745
93984SOL    HW283785  12.791   4.641   5.717
93985SOL     OW83786   7.514   4.997  14.050
93985SOL    HW183787   7.447   4.948  14.003
93985SOL    HW283788   7.529   5.075  13.995
93986SOL     OW83789   1.852  12.111   5.795
93986SOL    HW183790   1.800  12.069   5.727
93986SOL    HW283791   1.937  12.066   5.792
93987SOL     OW83792   5.745   3.822  10.405
93987SOL    HW183793   5.717   3.839  10.315
93987SOL    HW283794   5.799   3.898  10.427
93988SOL     OW83795   5.079  14.296   3.414
93988SOL    HW183796   5.154  14.248   3.450
93988SOL    HW283797   5.018  14.229   3.386
93989SOL     OW83798   6.544  12.685   5.213
93989SOL    HW183799   6.464  12.666   5.263
93989SOL    HW283800   6.613  12.637   5.259
93990SOL     OW83801   6.014   7.836   4.522
93990SOL    HW183802   6.008   7.925   4.487
93990SOL    HW283803   5.977   7.780   4.454
93991SOL     OW83804   7.844   8.153   7.845
93991SOL    HW183805   7.861   8.241   7.880
93991SOL    HW283806   7.921   8.102   7.869
93992SOL     OW83807   3.943   9.697   7.079
93992SOL    HW183808   3.978   9.634   7.016
93992SOL    HW283809   3.851   9.672   7.089
93993SOL     OW83810   7.538   0.582   8.588
93993SOL    HW183811   7.552   0.516   8.656
93993SOL    HW283812   7.564   0.664   8.628
93994SOL     OW83813  11.389   5.272  13.149
93994SOL    HW183814  11.407   5.201  13.087
93994SOL    HW283815  11.464   5.330  13.141
93995SOL     OW83816   2.098   6.203  14.327
93995SOL    HW183817   2.160   6.251  14.272
93995SOL    HW283818   2.152   6.138  14.372
93996SOL     OW83819   9.895   8.147  12.503
93996SOL    HW183820   9.908   8.102  12.586
93996SOL    HW283821   9.904   8.078  12.437
93997SOL     OW83822   6.727   0.453   5.020
93997SOL    HW183823   6.648   0.402   5.042
93997SOL    HW283824   6.706   0.494   4.937
93998SOL     OW83825   2.266  13.173  12.771
93998SOL    HW183826   2.235  13.259  12.742
93998SOL    HW283827   2.230  13.163  12.859
93999SOL     OW83828   0.813  11.739   8.169
93999SOL    HW183829   0.895  11.727   8.120
93999SOL    HW283830   0.839  11.790   8.247
94000SOL     OW83831  13.401   0.954  13.842
94000SOL    HW183832  13.308   0.968  13.825
94000SOL    HW283833  13.414   0.860  13.831
94001SOL     OW83834   7.061   1.108   0.098
94001SOL    HW183835   6.971   1.139   0.102
94001SOL    HW283836   7.079   1.073   0.186
94002SOL     OW83837   4.714  13.854  10.794
94002SOL    HW183838   4.731  13.789  10.726
94002SOL    HW283839   4.689  13.802  10.871
94003SOL     OW83840  11.832   8.283   9.104
94003SOL    HW183841  11.765   8.268   9.170
94003SOL    HW283842  11.791   8.258   9.021
94004SOL     OW83843  10.451   8.798   6.198
94004SOL    HW183844  10.414   8.711   6.210
94004SOL    HW283845  10.540   8.783   6.166
94005SOL     OW83846   7.646   5.790  12.693
94005SOL    HW183847   7.590   5.805  12.617
94005SOL    HW283848   7.732   5.823  12.666
94006SOL     OW83849   9.044  11.516  11.749
94006SOL    HW183850   9.124  11.568  11.749
94006SOL    HW283851   9.008  11.526  11.837
94007SOL     OW83852  11.679   1.393  13.274
94007SOL    HW183853  11.618   1.454  13.232
94007SOL    HW283854  11.747   1.449  13.312
94008SOL     OW83855  13.720   4.536   9.957
94008SOL    HW183856  13.801   4.527   9.907
94008SOL    HW283857  13.722   4.463  10.019
94009SOL     OW83858  11.761  13.488  14.374
94009SOL    HW183859  11.753  13.565  14.317
94009SOL    HW283860  11.844  13.500  14.420
94010SOL     OW83861  10.859   2.653   3.326
94010SOL    HW183862  10.845   2.678   3.235
94010SOL    HW283863  10.821   2.724   3.377
94011SOL     OW83864  10.736   7.929   0.417
94011SOL    HW183865  10.649   7.889   0.428
94011SOL    HW283866  10.765   7.898   0.331
94012SOL     OW83867  14.752  12.866  13.865
94012SOL    HW183868  14.670  12.877  13.817
94012SOL    HW283869  14.783  12.779  13.839
94013SOL     OW83870   5.357  10.085   8.523
94013SOL    HW183871   5.318   9.997   8.522
94013SOL    HW283872   5.318  10.127   8.600
94014SOL     OW83873   2.895   4.387  13.073
94014SOL    HW183874   2.864   4.430  12.993
94014SOL    HW283875   2.965   4.444  13.104
94015SOL     OW83876   3.659  10.930   3.376
94015SOL    HW183877   3.722  11.002   3.371
94015SOL    HW283878   3.677  10.877   3.298
94016SOL     OW83879  11.279   0.388   8.584
94016SOL    HW183880  11.297   0.368   8.492
94016SOL    HW283881  11.319   0.315   8.632
94017SOL     OW83882   8.438   1.231   3.472
94017SOL    HW183883   8.492   1.155   3.489
94017SOL    HW283884   8.348   1.199   3.477
94018SOL     OW83885  13.410   8.418  13.908
94018SOL    HW183886  13.396   8.324  13.899
94018SOL    HW283887  13.382   8.438  13.997
94019SOL     OW83888  14.583   5.241   4.494
94019SOL    HW183889  14.507   5.186   4.513
94019SOL    HW283890  14.590   5.299   4.570
94020SOL     OW83891   2.423  13.963   3.356
94020SOL    HW183892   2.517  13.962   3.372
94020SOL    HW283893   2.405  13.882   3.309
94021SOL     OW83894  10.096   5.689   3.826
94021SOL    HW183895  10.032   5.664   3.892
94021SOL    HW283896  10.145   5.761   3.865
94022SOL     OW83897   6.598  13.077   7.243
94022SOL    HW183898   6.523  13.095   7.300
94022SOL    HW283899   6.623  12.987   7.265
94023SOL     OW83900   2.462  13.258   0.223
94023SOL    HW183901   2.405  13.182   0.230
94023SOL    HW283902   2.428  13.307   0.148
94024SOL     OW83903  11.657  13.671   6.646
94024SOL    HW183904  11.629  13.762   6.653
94024SOL    HW283905  11.583  13.626   6.604
94025SOL     OW83906   1.340   2.071   9.948
94025SOL    HW183907   1.272   2.095   9.885
94025SOL    HW283908   1.318   1.982   9.975
94026SOL     OW83909  13.408   9.156   0.776
94026SOL    HW183910  13.448   9.081   0.732
94026SOL    HW283911  13.478   9.192   0.831
94027SOL     OW83912   7.199  10.291   3.089
94027SOL    HW183913   7.121  10.266   3.039
94027SOL    HW283914   7.228  10.373   3.049
94028SOL     OW83915   4.723   6.227   2.133
94028SOL    HW183916   4.803   6.279   2.125
94028SOL    HW283917   4.703   6.228   2.227
94029SOL     OW83918  14.182   4.121  13.923
94029SOL    HW183919  14.257   4.156  13.971
94029SOL    HW283920  14.109   4.178  13.947
94030SOL     OW83921   6.834   3.113   8.668
94030SOL    HW183922   6.849   3.067   8.751
94030SOL    HW283923   6.900   3.077   8.609
94031SOL     OW83924   0.508   6.182  13.024
94031SOL    HW183925   0.487   6.119  13.094
94031SOL    HW283926   0.569   6.135  12.967
94032SOL     OW83927  12.281   1.977  10.063
94032SOL    HW183928  12.270   2.072  10.052
94032SOL    HW283929  12.241   1.958  10.148
94033SOL     OW83930   4.299   1.606   0.667
94033SOL    HW183931   4.260   1.689   0.695
94033SOL    HW283932   4.383   1.602   0.714
94034SOL     OW83933   8.550  11.733   6.356
94034SOL    HW183934   8.614  11.778   6.301
94034SOL    HW283935   8.599  11.708   6.434
94035SOL     OW83936  13.514   7.708   2.513
94035SOL    HW183937  13.556   7.792   2.529
94035SOL    HW283938  13.432   7.712   2.564
94036SOL     OW83939  12.590   4.578   4.940
94036SOL    HW183940  12.623   4.599   5.028
94036SOL    HW283941  12.668   4.553   4.891
94037SOL     OW83942   8.244   9.729   7.959
94037SOL    HW183943   8.248   9.635   7.938
94037SOL    HW283944   8.186   9.765   7.893
94038SOL     OW83945   2.102   0.539   1.912
94038SOL    HW183946   2.022   0.555   1.962
94038SOL    HW283947   2.171   0.586   1.960
94039SOL     OW83948  10.872   1.770  13.421
94039SOL    HW183949  10.901   1.710  13.352
94039SOL    HW283950  10.902   1.856  13.392
94040SOL     OW83951  11.496   6.130  13.025
94040SOL    HW183952  11.470   6.118  12.933
94040SOL    HW283953  11.417   6.164  13.067
94041SOL     OW83954   1.377   4.914   7.398
94041SOL    HW183955   1.468   4.903   7.425
94041SOL    HW283956   1.350   4.826   7.372
94042SOL     OW83957  14.519   2.499  13.772
94042SOL    HW183958  14.613   2.485  13.784
94042SOL    HW283959  14.506   2.496  13.677
94043SOL     OW83960   1.648   7.986   4.492
94043SOL    HW183961   1.673   8.056   4.553
94043SOL    HW283962   1.563   7.955   4.524
94044SOL     OW83963  13.751  13.196   1.646
94044SOL    HW183964  13.777  13.109   1.614
94044SOL    HW283965  13.753  13.252   1.568
94045SOL     OW83966  14.452   7.680   9.140
94045SOL    HW183967  14.514   7.670   9.212
94045SOL    HW283968  14.506   7.679   9.061
94046SOL     OW83969   8.612   4.641   1.490
94046SOL    HW183970   8.617   4.575   1.559
94046SOL    HW283971   8.530   4.622   1.444
94047SOL     OW83972  10.890   7.778   2.378
94047SOL    HW183973  10.922   7.692   2.352
94047SOL    HW283974  10.796   7.766   2.391
94048SOL     OW83975   3.520  12.656   3.164
94048SOL    HW183976   3.451  12.720   3.145
94048SOL    HW283977   3.589  12.676   3.100
94049SOL     OW83978   0.516   7.413   7.866
94049SOL    HW183979   0.478   7.328   7.888
94049SOL    HW283980   0.485   7.471   7.935
94050SOL     OW83981  13.843   3.218   3.311
94050SOL    HW183982  13.775   3.279   3.282
94050SOL    HW283983  13.795   3.143   3.346
94051SOL     OW83984   2.427   0.648   2.615
94051SOL    HW183985   2.454   0.699   2.539
94051SOL    HW283986   2.361   0.587   2.581
94052SOL     OW83987   3.813   5.542   8.739
94052SOL    HW183988   3.796   5.632   8.712
94052SOL    HW283989   3.771   5.534   8.825
94053SOL     OW83990   4.346  13.056   2.612
94053SOL    HW183991   4.344  13.020   2.523
94053SOL    HW283992   4.307  13.143   2.604
94054SOL     OW83993   1.631  14.698   9.692
94054SOL    HW183994   1.569  14.695   9.619
94054SOL    HW283995   1.606  14.776   9.742
94055SOL     OW83996   4.215   6.410  13.939
94055SOL    HW183997   4.235   6.478  14.003
94055SOL    HW283998   4.211   6.456  13.855
94056SOL     OW83999   0.602   7.780   0.105
94056SOL    HW184000   0.635   7.847   0.045
94056SOL    HW284001   0.591   7.703   0.050
94057SOL     OW84002   1.311   0.285   9.122
94057SOL    HW184003   1.289   0.370   9.084
94057SOL    HW284004   1.407   0.286   9.127
94058SOL     OW84005   2.640   3.603   8.317
94058SOL    HW184006   2.582   3.679   8.322
94058SOL    HW284007   2.588   3.531   8.353
94059SOL     OW84008   8.315   4.020   3.163
94059SOL    HW184009   8.405   4.026   3.196
94059SOL    HW284010   8.268   3.970   3.230
94060SOL     OW84011   7.465   3.654   0.290
94060SOL    HW184012   7.463   3.714   0.215
94060SOL    HW284013   7.558   3.639   0.307
94061SOL     OW84014  10.709   3.405   7.891
94061SOL    HW184015  10.650   3.443   7.826
94061SOL    HW284016  10.773   3.475   7.908
94062SOL     OW84017   8.308   2.182   9.901
94062SOL    HW184018   8.277   2.269   9.877
94062SOL    HW284019   8.265   2.123   9.840
94063SOL     OW84020   7.397   5.715   5.014
94063SOL    HW184021   7.362   5.709   5.103
94063SOL    HW284022   7.479   5.763   5.024
94064SOL     OW84023  11.365   4.589  14.440
94064SOL    HW184024  11.361   4.636  14.523
94064SOL    HW284025  11.440   4.530  14.450
94065SOL     OW84026   7.848   8.476  11.456
94065SOL    HW184027   7.901   8.398  11.439
94065SOL    HW284028   7.808   8.460  11.541
94066SOL     OW84029  12.407   9.973   4.958
94066SOL    HW184030  12.367   9.992   5.043
94066SOL    HW284031  12.417   9.878   4.957
94067SOL     OW84032  13.330   7.978  13.336
94067SOL    HW184033  13.247   7.943  13.369
94067SOL    HW284034  13.383   7.993  13.414
94068SOL     OW84035   1.322  11.064   0.348
94068SOL    HW184036   1.313  10.982   0.300
94068SOL    HW284037   1.308  11.040   0.440
94069SOL     OW84038   5.599   5.012   9.396
94069SOL    HW184039   5.551   5.016   9.478
94069SOL    HW284040   5.532   5.012   9.328
94070SOL     OW84041  10.750  12.752  13.091
94070SOL    HW184042  10.695  12.801  13.029
94070SOL    HW284043  10.711  12.665  13.094
94071SOL     OW84044   1.572   2.021  14.248
94071SOL    HW184045   1.622   1.952  14.205
94071SOL    HW284046   1.482   1.988  14.250
94072SOL     OW84047  10.797   1.804   1.766
94072SOL    HW184048  10.843   1.804   1.682
94072SOL    HW284049  10.806   1.894   1.798
94073SOL     OW84050   9.529  11.830   5.563
94073SOL    HW184051   9.556  11.814   5.472
94073SOL    HW284052   9.609  11.856   5.608
94074SOL     OW84053  13.687   5.107   4.123
94074SOL    HW184054  13.744   5.031   4.136
94074SOL    HW284055  13.599   5.076   4.147
94075SOL     OW84056   7.690   1.756  14.792
94075SOL    HW184057   7.712   1.724   0.004
94075SOL    HW284058   7.733   1.841  14.787
94076SOL     OW84059  10.651   2.364  14.563
94076SOL    HW184060  10.707   2.328  14.632
94076SOL    HW284061  10.694   2.444  14.536
94077SOL     OW84062   2.691  12.418   3.781
94077SOL    HW184063   2.620  12.431   3.844
94077SOL    HW284064   2.757  12.368   3.829
94078SOL     OW84065   8.879   9.282   8.196
94078SOL    HW184066   8.907   9.209   8.142
94078SOL    HW284067   8.915   9.360   8.153
94079SOL     OW84068  13.095   0.255   1.637
94079SOL    HW184069  13.068   0.196   1.708
94079SOL    HW284070  13.168   0.210   1.595
94080SOL     OW84071   5.313   1.198   4.923
94080SOL    HW184072   5.280   1.153   4.845
94080SOL    HW284073   5.241   1.255   4.949
94081SOL     OW84074  10.179  11.131   3.766
94081SOL    HW184075  10.127  11.198   3.811
94081SOL    HW284076  10.270  11.154   3.785
94082SOL     OW84077   4.077   3.533   8.922
94082SOL    HW184078   4.094   3.443   8.948
94082SOL    HW284079   4.160   3.565   8.888
94083SOL     OW84080  14.003   8.774  13.081
94083SOL    HW184081  13.918   8.730  13.091
94083SOL    HW284082  13.996   8.821  12.998
94084SOL     OW84083   4.738  13.265  13.064
94084SOL    HW184084   4.690  13.348  13.073
94084SOL    HW284085   4.708  13.230  12.980
94085SOL     OW84086   9.637   1.015   3.893
94085SOL    HW184087   9.575   0.972   3.953
94085SOL    HW284088   9.618   1.108   3.901
94086SOL     OW84089   7.051  13.516   3.653
94086SOL    HW184090   6.995  13.541   3.579
94086SOL    HW284091   7.078  13.600   3.691
94087SOL     OW84092   8.618   7.274   8.747
94087SOL    HW184093   8.600   7.206   8.812
94087SOL    HW284094   8.658   7.228   8.673
94088SOL     OW84095   0.872  12.274   0.958
94088SOL    HW184096   0.934  12.204   0.936
94088SOL    HW284097   0.925  12.337   1.007
94089SOL     OW84098   2.763   9.909   2.129
94089SOL    HW184099   2.686   9.854   2.115
94089SOL    HW284100   2.804   9.873   2.207
94090SOL     OW84101   1.597   2.144   2.958
94090SOL    HW184102   1.589   2.108   3.046
94090SOL    HW284103   1.588   2.238   2.969
94091SOL     OW84104  10.794  11.969   0.024
94091SOL    HW184105  10.798  11.878  14.871
94091SOL    HW284106  10.882  12.003   0.010
94092SOL     OW84107  12.768  10.264   8.679
94092SOL    HW184108  12.781  10.338   8.620
94092SOL    HW284109  12.854  10.221   8.683
94093SOL     OW84110  10.771  12.429  12.797
94093SOL    HW184111  10.687  12.410  12.839
94093SOL    HW284112  10.750  12.441  12.705
94094SOL     OW84113   2.621  11.656   0.833
94094SOL    HW184114   2.621  11.685   0.741
94094SOL    HW284115   2.710  11.621   0.846
94095SOL     OW84116   2.338  12.896   0.845
94095SOL    HW184117   2.272  12.879   0.912
94095SOL    HW284118   2.292  12.949   0.780
94096SOL     OW84119  14.617   2.119   6.608
94096SOL    HW184120  14.590   2.188   6.548
94096SOL    HW284121  14.710   2.135   6.623
94097SOL     OW84122   3.920  14.699  10.816
94097SOL    HW184123   3.962  14.742  10.741
94097SOL    HW284124   3.828  14.694  10.791
94098SOL     OW84125   8.609  14.164   1.407
94098SOL    HW184126   8.691  14.118   1.390
94098SOL    HW284127   8.631  14.228   1.475
94099SOL     OW84128   5.193  11.938   6.364
94099SOL    HW184129   5.284  11.920   6.338
94099SOL    HW284130   5.142  11.875   6.313
94100SOL     OW84131   3.179   4.523   1.562
94100SOL    HW184132   3.220   4.609   1.575
94100SOL    HW284133   3.156   4.494   1.650
94101SOL     OW84134  10.713   0.446   1.544
94101SOL    HW184135  10.808   0.441   1.558
94101SOL    HW284136  10.703   0.502   1.467
94102SOL     OW84137   6.117   9.853   5.943
94102SOL    HW184138   6.140   9.778   5.997
94102SOL    HW284139   6.047   9.897   5.991
94103SOL     OW84140   3.991  11.118   7.734
94103SOL    HW184141   4.049  11.043   7.748
94103SOL    HW284142   4.028  11.187   7.789
94104SOL     OW84143   5.278   4.098  11.858
94104SOL    HW184144   5.295   4.123  11.767
94104SOL    HW284145   5.363   4.067  11.890
94105SOL     OW84146   4.653   4.452   6.842
94105SOL    HW184147   4.728   4.452   6.901
94105SOL    HW284148   4.654   4.539   6.801
94106SOL     OW84149   4.556  11.579   0.717
94106SOL    HW184150   4.533  11.526   0.641
94106SOL    HW284151   4.487  11.561   0.781
94107SOL     OW84152  13.594  10.091   5.026
94107SOL    HW184153  13.621  10.126   5.111
94107SOL    HW284154  13.511  10.046   5.044
94108SOL     OW84155   5.297   1.186   0.634
94108SOL    HW184156   5.346   1.250   0.583
94108SOL    HW284157   5.209   1.223   0.641
94109SOL     OW84158   2.944   1.135   0.756
94109SOL    HW184159   2.998   1.154   0.678
94109SOL    HW284160   2.923   1.042   0.747
94110SOL     OW84161   4.186  13.552   2.253
94110SOL    HW184162   4.147  13.465   2.260
94110SOL    HW284163   4.112  13.612   2.245
94111SOL     OW84164   0.308   5.634   6.654
94111SOL    HW184165   0.303   5.607   6.746
94111SOL    HW284166   0.259   5.567   6.607
94112SOL     OW84167   1.176   1.287   4.311
94112SOL    HW184168   1.152   1.227   4.240
94112SOL    HW284169   1.101   1.285   4.370
94113SOL     OW84170  14.284  13.870   8.135
94113SOL    HW184171  14.293  13.965   8.145
94113SOL    HW284172  14.245  13.858   8.049
94114SOL     OW84173   0.684  14.735   9.060
94114SOL    HW184174   0.692  14.719   8.966
94114SOL    HW284175   0.634  14.816   9.066
94115SOL     OW84176  14.084  11.358   5.559
94115SOL    HW184177  14.129  11.439   5.582
94115SOL    HW284178  14.068  11.314   5.643
94116SOL     OW84179   8.026   8.687   3.608
94116SOL    HW184180   7.944   8.649   3.640
94116SOL    HW284181   8.014   8.781   3.617
94117SOL     OW84182   2.914   6.359   3.401
94117SOL    HW184183   2.930   6.299   3.473
94117SOL    HW284184   2.905   6.303   3.324
94118SOL     OW84185   2.905   9.530   6.399
94118SOL    HW184186   2.900   9.434   6.405
94118SOL    HW284187   2.978   9.546   6.340
94119SOL     OW84188  11.522   8.575   0.914
94119SOL    HW184189  11.523   8.604   1.006
94119SOL    HW284190  11.529   8.479   0.919
94120SOL     OW84191   2.198  13.943   9.746
94120SOL    HW184192   2.271  13.939   9.809
94120SOL    HW284193   2.141  13.870   9.770
94121SOL     OW84194   4.971   3.511   4.547
94121SOL    HW184195   5.064   3.525   4.529
94121SOL    HW284196   4.926   3.563   4.481
94122SOL     OW84197  12.548  11.322   0.950
94122SOL    HW184198  12.542  11.375   0.870
94122SOL    HW284199  12.608  11.371   1.006
94123SOL     OW84200   9.102  12.946   1.111
94123SOL    HW184201   9.050  13.021   1.083
94123SOL    HW284202   9.085  12.879   1.045
94124SOL     OW84203   4.984   2.022   7.454
94124SOL    HW184204   4.928   2.090   7.419
94124SOL    HW284205   5.030   2.063   7.527
94125SOL     OW84206  10.958  10.759  12.693
94125SOL    HW184207  10.972  10.758  12.788
94125SOL    HW284208  11.007  10.835  12.662
94126SOL     OW84209   7.358  10.734  12.472
94126SOL    HW184210   7.317  10.664  12.421
94126SOL    HW284211   7.340  10.814  12.422
94127SOL     OW84212  13.915  10.311   2.953
94127SOL    HW184213  13.902  10.326   2.859
94127SOL    HW284214  14.003  10.346   2.970
94128SOL     OW84215  11.402   8.193   0.601
94128SOL    HW184216  11.447   8.109   0.612
94128SOL    HW284217  11.473   8.256   0.590
94129SOL     OW84218   5.275  13.510   1.867
94129SOL    HW184219   5.269  13.581   1.803
94129SOL    HW284220   5.194  13.460   1.855
94130SOL     OW84221   0.305   1.296   3.288
94130SOL    HW184222   0.272   1.209   3.266
94130SOL    HW284223   0.395   1.296   3.256
94131SOL     OW84224   7.979   7.510   8.700
94131SOL    HW184225   8.072   7.493   8.686
94131SOL    HW284226   7.949   7.547   8.616
94132SOL     OW84227   5.335   7.245   3.392
94132SOL    HW184228   5.341   7.271   3.484
94132SOL    HW284229   5.280   7.312   3.351
94133SOL     OW84230  10.985  12.007   0.461
94133SOL    HW184231  10.962  12.097   0.440
94133SOL    HW284232  10.902  11.960   0.459
94134SOL     OW84233   0.440   2.585   9.990
94134SOL    HW184234   0.515   2.593  10.049
94134SOL    HW284235   0.407   2.496  10.004
94135SOL     OW84236   0.276   0.071   3.324
94135SOL    HW184237   0.194   0.039   3.362
94135SOL    HW284238   0.267   0.056   3.230
94136SOL     OW84239   1.876   0.629   2.048
94136SOL    HW184240   1.793   0.652   2.008
94136SOL    HW284241   1.895   0.700   2.109
94137SOL     OW84242   2.738  11.000  11.683
94137SOL    HW184243   2.783  11.050  11.752
94137SOL    HW284244   2.755  11.049  11.603
94138SOL     OW84245   5.855   9.061   6.862
94138SOL    HW184246   5.789   9.017   6.808
94138SOL    HW284247   5.810   9.137   6.897
94139SOL     OW84248   5.495   5.874   3.436
94139SOL    HW184249   5.431   5.891   3.367
94139SOL    HW284250   5.459   5.915   3.514
94140SOL     OW84251   9.184   2.007   7.222
94140SOL    HW184252   9.143   2.087   7.254
94140SOL    HW284253   9.119   1.939   7.237
94141SOL     OW84254   3.947   2.191  14.526
94141SOL    HW184255   3.987   2.263  14.575
94141SOL    HW284256   3.866   2.227  14.491
94142SOL     OW84257  11.392   8.056   3.367
94142SOL    HW184258  11.393   8.025   3.458
94142SOL    HW284259  11.321   8.007   3.326
94143SOL     OW84260  14.222   5.496   7.802
94143SOL    HW184261  14.165   5.540   7.865
94143SOL    HW284262  14.277   5.566   7.767
94144SOL     OW84263  14.646   7.142  12.175
94144SOL    HW184264  14.644   7.124  12.081
94144SOL    HW284265  14.560   7.180  12.194
94145SOL     OW84266  10.351   2.729   4.538
94145SOL    HW184267  10.299   2.732   4.619
94145SOL    HW284268  10.368   2.821   4.518
94146SOL     OW84269   2.078   0.051   3.121
94146SOL    HW184270   2.069  14.833   3.137
94146SOL    HW284271   1.988   0.084   3.123
94147SOL     OW84272   4.751  12.985   8.644
94147SOL    HW184273   4.712  12.995   8.731
94147SOL    HW284274   4.831  12.935   8.660
94148SOL     OW84275   6.556  11.005   0.889
94148SOL    HW184276   6.615  11.077   0.863
94148SOL    HW284277   6.575  10.990   0.981
94149SOL     OW84278  14.107  10.966  11.156
94149SOL    HW184279  14.057  10.955  11.075
94149SOL    HW284280  14.198  10.956  11.129
94150SOL     OW84281   0.365   0.807   9.252
94150SOL    HW184282   0.398   0.833   9.338
94150SOL    HW284283   0.418   0.730   9.229
94151SOL     OW84284   6.797   6.545   5.134
94151SOL    HW184285   6.816   6.621   5.080
94151SOL    HW284286   6.873   6.537   5.192
94152SOL     OW84287   1.603  11.934  14.203
94152SOL    HW184288   1.641  11.926  14.115
94152SOL    HW284289   1.555  12.016  14.200
94153SOL     OW84290   1.255  12.952  10.041
94153SOL    HW184291   1.298  12.941   9.957
94153SOL    HW284292   1.165  12.923  10.026
94154SOL     OW84293   1.122  11.912   4.541
94154SOL    HW184294   1.164  11.995   4.518
94154SOL    HW284295   1.130  11.906   4.636
94155SOL     OW84296  12.050  14.774   0.185
94155SOL    HW184297  12.106  14.793   0.261
94155SOL    HW284298  12.081  14.690   0.153
94156SOL     OW84299  12.324  11.833   8.529
94156SOL    HW184300  12.265  11.895   8.485
94156SOL    HW284301  12.409  11.849   8.489
94157SOL     OW84302  10.190   9.832   0.302
94157SOL    HW184303  10.099   9.806   0.289
94157SOL    HW284304  10.190   9.873   0.389
94158SOL     OW84305   1.395  13.649   2.809
94158SOL    HW184306   1.454  13.573   2.803
94158SOL    HW284307   1.307  13.611   2.806
94159SOL     OW84308   3.386   2.242   0.837
94159SOL    HW184309   3.308   2.217   0.788
94159SOL    HW284310   3.460   2.212   0.783
94160SOL     OW84311   4.332  12.780   4.543
94160SOL    HW184312   4.403  12.813   4.598
94160SOL    HW284313   4.268  12.745   4.604
94161SOL     OW84314   3.612   9.960  10.790
94161SOL    HW184315   3.578   9.923  10.871
94161SOL    HW284316   3.700   9.923  10.781
94162SOL     OW84317   3.635   8.445   9.699
94162SOL    HW184318   3.724   8.460   9.732
94162SOL    HW284319   3.581   8.504   9.751
94163SOL     OW84320   1.491   9.860   8.419
94163SOL    HW184321   1.580   9.864   8.455
94163SOL    HW284322   1.499   9.904   8.334
94164SOL     OW84323   9.902   2.837   3.079
94164SOL    HW184324   9.932   2.766   3.023
94164SOL    HW284325   9.834   2.881   3.028
94165SOL     OW84326   9.196  10.346  10.011
94165SOL    HW184327   9.179  10.270  10.067
94165SOL    HW284328   9.190  10.312   9.922
94166SOL     OW84329   8.285  11.595   1.441
94166SOL    HW184330   8.377  11.581   1.465
94166SOL    HW284331   8.240  11.605   1.524
94167SOL     OW84332   5.649   7.375  11.758
94167SOL    HW184333   5.603   7.382  11.675
94167SOL    HW284334   5.582   7.350  11.822
94168SOL     OW84335  14.587   4.402  13.954
94168SOL    HW184336  14.635   4.353  13.887
94168SOL    HW284337  14.551   4.478  13.908
94169SOL     OW84338  14.191   9.014   2.723
94169SOL    HW184339  14.287   9.015   2.730
94169SOL    HW284340  14.167   9.105   2.705
94170SOL     OW84341  14.045   5.708  14.280
94170SOL    HW184342  14.021   5.666  14.198
94170SOL    HW284343  14.108   5.775  14.255
94171SOL     OW84344  12.274  10.851   6.115
94171SOL    HW184345  12.225  10.791   6.171
94171SOL    HW284346  12.265  10.937   6.157
94172SOL     OW84347   2.313   4.963   9.866
94172SOL    HW184348   2.352   4.962   9.779
94172SOL    HW284349   2.288   5.055   9.880
94173SOL     OW84350   7.460   4.940  14.484
94173SOL    HW184351   7.555   4.941  14.472
94173SOL    HW284352   7.427   4.888  14.410
94174SOL     OW84353  14.394   1.821   5.248
94174SOL    HW184354  14.475   1.845   5.202
94174SOL    HW284355  14.339   1.898   5.241
94175SOL     OW84356  12.243  10.787   1.888
94175SOL    HW184357  12.219  10.756   1.801
94175SOL    HW284358  12.166  10.837   1.917
94176SOL     OW84359   0.126   2.241  10.163
94176SOL    HW184360   0.111   2.182  10.237
94176SOL    HW284361   0.042   2.248  10.119
94177SOL     OW84362   4.884  12.789   3.502
94177SOL    HW184363   4.955  12.752   3.554
94177SOL    HW284364   4.812  12.727   3.511
94178SOL     OW84365  14.453   2.180   5.695
94178SOL    HW184366  14.499   2.098   5.712
94178SOL    HW284367  14.521   2.241   5.668
94179SOL     OW84368  13.039   9.030  10.823
94179SOL    HW184369  13.071   8.946  10.856
94179SOL    HW284370  13.116   9.087  10.823
94180SOL     OW84371   5.214   0.784   7.299
94180SOL    HW184372   5.278   0.726   7.339
94180SOL    HW284373   5.266   0.844   7.246
94181SOL     OW84374   3.500  13.446  12.902
94181SOL    HW184375   3.518  13.353  12.912
94181SOL    HW284376   3.570  13.479  12.846
94182SOL     OW84377   6.827  14.495   0.750
94182SOL    HW184378   6.782  14.566   0.704
94182SOL    HW284379   6.762  14.463   0.813
94183SOL     OW84380   2.463   7.822   5.320
94183SOL    HW184381   2.449   7.783   5.234
94183SOL    HW284382   2.447   7.916   5.308
94184SOL     OW84383   7.727   1.697   4.155
94184SOL    HW184384   7.775   1.690   4.238
94184SOL    HW284385   7.706   1.606   4.132
94185SOL     OW84386   7.064   8.336   2.622
94185SOL    HW184387   7.060   8.244   2.650
94185SOL    HW284388   7.149   8.366   2.654
94186SOL     OW84389  11.972   9.152   0.903
94186SOL    HW184390  11.995   9.080   0.962
94186SOL    HW284391  11.971   9.229   0.959
94187SOL     OW84392   6.543  10.898   8.049
94187SOL    HW184393   6.630  10.868   8.020
94187SOL    HW284394   6.561  10.981   8.094
94188SOL     OW84395   6.516   9.196   4.534
94188SOL    HW184396   6.601   9.224   4.569
94188SOL    HW284397   6.538   9.138   4.461
94189SOL     OW84398   2.225   2.148   8.656
94189SOL    HW184399   2.188   2.236   8.666
94189SOL    HW284400   2.156   2.089   8.688
94190SOL     OW84401   6.382  10.841   0.399
94190SOL    HW184402   6.405  10.870   0.311
94190SOL    HW284403   6.439  10.767   0.415
94191SOL     OW84404   3.521   3.275   1.804
94191SOL    HW184405   3.473   3.205   1.761
94191SOL    HW284406   3.456   3.344   1.818
94192SOL     OW84407   5.402   4.635   5.655
94192SOL    HW184408   5.381   4.546   5.628
94192SOL    HW284409   5.492   4.648   5.625
94193SOL     OW84410  12.468  11.192   1.366
94193SOL    HW184411  12.448  11.252   1.294
94193SOL    HW284412  12.495  11.249   1.438
94194SOL     OW84413  10.812   9.292  13.026
94194SOL    HW184414  10.875   9.279  13.097
94194SOL    HW284415  10.825   9.216  12.968
94195SOL     OW84416   1.886   3.436   9.814
94195SOL    HW184417   1.917   3.418   9.903
94195SOL    HW284418   1.930   3.518   9.790
94196SOL     OW84419  12.299   5.457   8.096
94196SOL    HW184420  12.257   5.519   8.037
94196SOL    HW284421  12.295   5.373   8.051
94197SOL     OW84422   6.919  11.350   2.926
94197SOL    HW184423   6.842  11.408   2.924
94197SOL    HW284424   6.955  11.355   2.838
94198SOL     OW84425   1.668  14.529  12.916
94198SOL    HW184426   1.719  14.527  12.835
94198SOL    HW284427   1.635  14.440  12.927
94199SOL     OW84428   0.709  11.538   0.857
94199SOL    HW184429   0.752  11.523   0.942
94199SOL    HW284430   0.657  11.617   0.871
94200SOL     OW84431   2.477   1.130  13.909
94200SOL    HW184432   2.475   1.040  13.944
94200SOL    HW284433   2.566   1.140  13.875
94201SOL     OW84434   0.612  14.020   7.315
94201SOL    HW184435   0.532  13.969   7.300
94201SOL    HW284436   0.595  14.066   7.397
94202SOL     OW84437   0.761   4.752   4.675
94202SOL    HW184438   0.800   4.826   4.627
94202SOL    HW284439   0.717   4.701   4.607
94203SOL     OW84440   8.268   7.939   0.552
94203SOL    HW184441   8.290   7.852   0.584
94203SOL    HW284442   8.216   7.923   0.473
94204SOL     OW84443   1.273   0.643   4.723
94204SOL    HW184444   1.299   0.603   4.806
94204SOL    HW284445   1.295   0.578   4.657
94205SOL     OW84446  14.175   1.316   3.855
94205SOL    HW184447  14.172   1.410   3.874
94205SOL    HW284448  14.084   1.287   3.865
94206SOL     OW84449   3.871   0.716   3.588
94206SOL    HW184450   3.786   0.758   3.582
94206SOL    HW284451   3.856   0.626   3.557
94207SOL     OW84452  14.578  14.166  13.304
94207SOL    HW184453  14.537  14.096  13.253
94207SOL    HW284454  14.517  14.183  13.376
94208SOL     OW84455   1.214   1.015   0.290
94208SOL    HW184456   1.154   1.081   0.325
94208SOL    HW284457   1.222   0.951   0.361
94209SOL     OW84458   8.119   6.323  14.278
94209SOL    HW184459   8.077   6.242  14.307
94209SOL    HW284460   8.204   6.323  14.323
94210SOL     OW84461   2.793   8.283   2.905
94210SOL    HW184462   2.746   8.241   2.977
94210SOL    HW284463   2.791   8.219   2.834
94211SOL     OW84464   3.248   5.014   8.822
94211SOL    HW184465   3.247   4.919   8.832
94211SOL    HW284466   3.322   5.044   8.875
94212SOL     OW84467   9.688   8.727   8.204
94212SOL    HW184468   9.698   8.686   8.291
94212SOL    HW284469   9.646   8.811   8.222
94213SOL     OW84470   1.974   8.742   7.312
94213SOL    HW184471   1.881   8.725   7.300
94213SOL    HW284472   1.998   8.690   7.389
94214SOL     OW84473  12.370  10.265   7.467
94214SOL    HW184474  12.293  10.322   7.473
94214SOL    HW284475  12.444  10.323   7.486
94215SOL     OW84476   3.386   3.127  11.032
94215SOL    HW184477   3.464   3.076  11.055
94215SOL    HW284478   3.313   3.076  11.068
94216SOL     OW84479   6.943   6.606   3.781
94216SOL    HW184480   6.859   6.569   3.753
94216SOL    HW284481   6.999   6.600   3.704
94217SOL     OW84482   9.891   9.067   4.562
94217SOL    HW184483   9.820   9.019   4.604
94217SOL    HW284484   9.971   9.022   4.591
94218SOL     OW84485  10.484   2.192   0.987
94218SOL    HW184486  10.421   2.146   1.042
94218SOL    HW284487  10.433   2.224   0.913
94219SOL     OW84488  11.042   3.138  13.748
94219SOL    HW184489  11.078   3.189  13.675
94219SOL    HW284490  10.974   3.194  13.784
94220SOL     OW84491   5.857   9.371  12.075
94220SOL    HW184492   5.819   9.445  12.122
94220SOL    HW284493   5.837   9.294  12.130
94221SOL     OW84494   2.881   2.877  14.572
94221SOL    HW184495   2.872   2.841  14.484
94221SOL    HW284496   2.959   2.932  14.569
94222SOL     OW84497   1.395   4.079  10.189
94222SOL    HW184498   1.427   4.116  10.271
94222SOL    HW284499   1.436   4.132  10.121
94223SOL     OW84500   6.591   4.535   3.915
94223SOL    HW184501   6.502   4.524   3.950
94223SOL    HW284502   6.577   4.561   3.823
94224SOL     OW84503   6.995  11.079   6.611
94224SOL    HW184504   6.946  11.160   6.622
94224SOL    HW284505   7.082  11.098   6.646
94225SOL     OW84506   1.035  13.677  14.710
94225SOL    HW184507   1.003  13.741  14.646
94225SOL    HW284508   0.961  13.662  14.769
94226SOL     OW84509   2.427  13.596  14.386
94226SOL    HW184510   2.362  13.657  14.352
94226SOL    HW284511   2.379  13.515  14.402
94227SOL     OW84512   7.795  12.839   8.011
94227SOL    HW184513   7.830  12.915   8.057
94227SOL    HW284514   7.705  12.864   7.989
94228SOL     OW84515   8.204  13.447   0.384
94228SOL    HW184516   8.280  13.451   0.443
94228SOL    HW284517   8.235  13.486   0.303
94229SOL     OW84518   3.479  13.079  10.440
94229SOL    HW184519   3.431  13.020  10.498
94229SOL    HW284520   3.555  13.029  10.411
94230SOL     OW84521   4.195   5.912  13.232
94230SOL    HW184522   4.246   5.991  13.248
94230SOL    HW284523   4.113   5.926  13.280
94231SOL     OW84524  11.095   8.103   6.613
94231SOL    HW184525  11.007   8.140   6.612
94231SOL    HW284526  11.120   8.099   6.520
94232SOL     OW84527   6.405   1.323   8.494
94232SOL    HW184528   6.485   1.363   8.528
94232SOL    HW284529   6.389   1.368   8.411
94233SOL     OW84530  10.615   3.490  12.775
94233SOL    HW184531  10.629   3.396  12.788
94233SOL    HW284532  10.567   3.518  12.852
94234SOL     OW84533   0.482  14.441   7.489
94234SOL    HW184534   0.420  14.423   7.418
94234SOL    HW284535   0.516  14.355   7.515
94235SOL     OW84536  13.827   2.664   5.953
94235SOL    HW184537  13.738   2.651   5.986
94235SOL    HW284538  13.815   2.681   5.859
94236SOL     OW84539  14.183  11.755   8.210
94236SOL    HW184540  14.230  11.673   8.199
94236SOL    HW284541  14.217  11.812   8.141
94237SOL     OW84542   0.794   0.010   6.223
94237SOL    HW184543   0.780  14.804   6.176
94237SOL    HW284544   0.771  14.866   6.314
94238SOL     OW84545   2.156   0.864  13.106
94238SOL    HW184546   2.131   0.927  13.039
94238SOL    HW284547   2.209   0.799  13.060
94239SOL     OW84548   1.889  10.798  11.499
94239SOL    HW184549   1.968  10.789  11.552
94239SOL    HW284550   1.885  10.717  11.448
94240SOL     OW84551   3.098   4.944  11.662
94240SOL    HW184552   3.092   5.030  11.703
94240SOL    HW284553   3.124   4.885  11.732
94241SOL     OW84554   6.200  13.137   6.112
94241SOL    HW184555   6.252  13.217   6.107
94241SOL    HW284556   6.239  13.087   6.183
94242SOL     OW84557  10.915   0.256  12.539
94242SOL    HW184558  10.841   0.260  12.599
94242SOL    HW284559  10.903   0.173  12.491
94243SOL     OW84560  13.482   4.951  14.499
94243SOL    HW184561  13.477   4.982  14.590
94243SOL    HW284562  13.556   4.890  14.498
94244SOL     OW84563   0.615  10.541   1.938
94244SOL    HW184564   0.641  10.631   1.916
94244SOL    HW284565   0.601  10.542   2.032
94245SOL     OW84566   3.073   2.162   5.716
94245SOL    HW184567   3.149   2.167   5.775
94245SOL    HW284568   3.087   2.233   5.653
94246SOL     OW84569   1.718  12.452  13.944
94246SOL    HW184570   1.624  12.442  13.931
94246SOL    HW284571   1.734  12.545  13.928
94247SOL     OW84572  13.370   6.341  13.971
94247SOL    HW184573  13.373   6.278  13.898
94247SOL    HW284574  13.329   6.292  14.042
94248SOL     OW84575  12.105   1.952   5.091
94248SOL    HW184576  12.049   2.029   5.083
94248SOL    HW284577  12.185   1.984   5.133
94249SOL     OW84578   9.798  13.744  14.541
94249SOL    HW184579   9.759  13.764  14.627
94249SOL    HW284580   9.892  13.743  14.557
94250SOL     OW84581   3.303   1.393  12.756
94250SOL    HW184582   3.233   1.441  12.713
94250SOL    HW284583   3.266   1.305  12.770
94251SOL     OW84584   3.896  12.505   7.299
94251SOL    HW184585   3.931  12.503   7.211
94251SOL    HW284586   3.863  12.594   7.310
94252SOL     OW84587  10.333   0.665   1.263
94252SOL    HW184588  10.271   0.734   1.290
94252SOL    HW284589  10.416   0.691   1.303
94253SOL     OW84590  12.837   6.422  10.318
94253SOL    HW184591  12.899   6.475  10.368
94253SOL    HW284592  12.888   6.389  10.244
94254SOL     OW84593   3.038   0.329   5.065
94254SOL    HW184594   3.023   0.424   5.064
94254SOL    HW284595   2.980   0.297   5.134
94255SOL     OW84596   7.740   1.509  12.650
94255SOL    HW184597   7.742   1.432  12.706
94255SOL    HW284598   7.802   1.489  12.580
94256SOL     OW84599   7.016   2.350   1.304
94256SOL    HW184600   7.017   2.399   1.222
94256SOL    HW284601   6.934   2.376   1.346
94257SOL     OW84602  11.868   2.152   9.473
94257SOL    HW184603  11.913   2.068   9.465
94257SOL    HW284604  11.933   2.211   9.512
94258SOL     OW84605   6.591   3.212   3.750
94258SOL    HW184606   6.675   3.203   3.706
94258SOL    HW284607   6.582   3.132   3.803
94259SOL     OW84608   1.092   8.512   4.338
94259SOL    HW184609   1.006   8.532   4.375
94259SOL    HW284610   1.146   8.587   4.360
94260SOL     OW84611   9.678   7.545   6.981
94260SOL    HW184612   9.656   7.639   6.981
94260SOL    HW284613   9.597   7.502   7.006
94261SOL     OW84614   4.578   3.087   5.936
94261SOL    HW184615   4.670   3.065   5.954
94261SOL    HW284616   4.581   3.133   5.853
94262SOL     OW84617  14.863   8.723   9.469
94262SOL    HW184618   0.035   8.681   9.540
94262SOL    HW284619   0.039   8.800   9.445
94263SOL     OW84620   4.180   5.101   4.170
94263SOL    HW184621   4.275   5.094   4.181
94263SOL    HW284622   4.160   5.192   4.189
94264SOL     OW84623  10.745   9.299   9.667
94264SOL    HW184624  10.836   9.329   9.671
94264SOL    HW284625  10.695   9.370   9.709
94265SOL     OW84626   4.181  13.239   1.744
94265SOL    HW184627   4.227  13.298   1.803
94265SOL    HW284628   4.217  13.259   1.657
94266SOL     OW84629  12.358  12.816  14.057
94266SOL    HW184630  12.276  12.782  14.095
94266SOL    HW284631  12.330  12.887  13.999
94267SOL     OW84632   3.962   6.639   3.199
94267SOL    HW184633   4.025   6.709   3.183
94267SOL    HW284634   3.887   6.661   3.143
94268SOL     OW84635   2.697   1.880  10.041
94268SOL    HW184636   2.766   1.921   9.990
94268SOL    HW284637   2.685   1.938  10.116
94269SOL     OW84638   1.392   8.144  12.230
94269SOL    HW184639   1.469   8.087  12.228
94269SOL    HW284640   1.428   8.233  12.236
94270SOL     OW84641   4.965   9.921   2.043
94270SOL    HW184642   5.042   9.868   2.068
94270SOL    HW284643   4.936   9.882   1.961
94271SOL     OW84644   6.806   5.233   0.630
94271SOL    HW184645   6.734   5.267   0.684
94271SOL    HW284646   6.820   5.144   0.662
94272SOL     OW84647   3.088   0.427   6.882
94272SOL    HW184648   3.043   0.464   6.806
94272SOL    HW284649   3.118   0.341   6.853
94273SOL     OW84650   6.467   4.325  13.296
94273SOL    HW184651   6.478   4.335  13.201
94273SOL    HW284652   6.482   4.232  13.311
94274SOL     OW84653  11.405   6.558   8.769
94274SOL    HW184654  11.373   6.578   8.856
94274SOL    HW284655  11.326   6.535   8.719
94275SOL     OW84656   6.670   3.219  14.671
94275SOL    HW184657   6.609   3.198  14.742
94275SOL    HW284658   6.636   3.301  14.635
94276SOL     OW84659  12.878   5.400   2.486
94276SOL    HW184660  12.847   5.310   2.486
94276SOL    HW284661  12.801   5.452   2.466
94277SOL     OW84662   8.340  11.982   4.053
94277SOL    HW184663   8.435  11.969   4.063
94277SOL    HW284664   8.317  12.041   4.124
94278SOL     OW84665   0.610  11.136   8.681
94278SOL    HW184666   0.661  11.082   8.742
94278SOL    HW284667   0.675  11.179   8.626
94279SOL     OW84668  10.203   5.833   5.213
94279SOL    HW184669  10.272   5.769   5.233
94279SOL    HW284670  10.250   5.911   5.184
94280SOL     OW84671   8.529  11.503  10.464
94280SOL    HW184672   8.457  11.538  10.517
94280SOL    HW284673   8.507  11.527  10.374
94281SOL     OW84674   2.994   6.396   3.092
94281SOL    HW184675   2.924   6.458   3.113
94281SOL    HW284676   3.041   6.435   3.018
94282SOL     OW84677   8.887   5.261   2.814
94282SOL    HW184678   8.850   5.348   2.828
94282SOL    HW284679   8.816   5.200   2.835
94283SOL     OW84680   9.226  14.334   3.078
94283SOL    HW184681   9.216  14.240   3.067
94283SOL    HW284682   9.139  14.370   3.060
94284SOL     OW84683   8.841   5.762  12.712
94284SOL    HW184684   8.750   5.739  12.694
94284SOL    HW284685   8.841   5.858  12.717
94285SOL     OW84686   1.440   2.648  11.120
94285SOL    HW184687   1.420   2.702  11.045
94285SOL    HW284688   1.356   2.630  11.161
94286SOL     OW84689   4.791   2.487  10.014
94286SOL    HW184690   4.724   2.547   9.980
94286SOL    HW284691   4.753   2.453  10.095
94287SOL     OW84692   8.693   5.507   5.282
94287SOL    HW184693   8.739   5.517   5.199
94287SOL    HW284694   8.605   5.479   5.256
94288SOL     OW84695  13.082   9.434   6.853
94288SOL    HW184696  13.142   9.508   6.862
94288SOL    HW284697  13.016   9.464   6.790
94289SOL     OW84698  10.466   7.632  10.179
94289SOL    HW184699  10.537   7.652  10.240
94289SOL    HW284700  10.400   7.587  10.232
94290SOL     OW84701   9.251   1.119   5.107
94290SOL    HW184702   9.191   1.141   5.179
94290SOL    HW284703   9.323   1.073   5.150
94291SOL     OW84704   5.068   5.386  13.751
94291SOL    HW184705   5.164   5.389  13.742
94291SOL    HW284706   5.051   5.303  13.797
94292SOL     OW84707   9.238   3.869   4.323
94292SOL    HW184708   9.333   3.863   4.334
94292SOL    HW284709   9.218   3.803   4.257
94293SOL     OW84710   4.791  11.208   3.287
94293SOL    HW184711   4.720  11.151   3.257
94293SOL    HW284712   4.860  11.147   3.314
94294SOL     OW84713   7.245  13.465   2.151
94294SOL    HW184714   7.169  13.483   2.206
94294SOL    HW284715   7.265  13.373   2.166
94295SOL     OW84716   9.054  11.952   1.071
94295SOL    HW184717   9.124  11.958   1.006
94295SOL    HW284718   8.982  11.910   1.023
94296SOL     OW84719   7.187   8.395  12.633
94296SOL    HW184720   7.194   8.488  12.611
94296SOL    HW284721   7.268   8.357  12.601
94297SOL     OW84722   5.522   6.970   4.831
94297SOL    HW184723   5.589   6.929   4.776
94297SOL    HW284724   5.532   7.063   4.815
94298SOL     OW84725  13.719   6.048   1.082
94298SOL    HW184726  13.737   6.026   1.173
94298SOL    HW284727  13.636   6.094   1.084
94299SOL     OW84728   4.812  11.960  14.237
94299SOL    HW184729   4.901  11.959  14.201
94299SOL    HW284730   4.756  11.942  14.162
94300SOL     OW84731   8.079   4.102  12.541
94300SOL    HW184732   8.120   4.067  12.620
94300SOL    HW284733   8.141   4.083  12.471
94301SOL     OW84734   5.580  12.647   0.916
94301SOL    HW184735   5.657  12.670   0.864
94301SOL    HW284736   5.562  12.725   0.969
94302SOL     OW84737  11.243  12.020   0.750
94302SOL    HW184738  11.252  11.961   0.675
94302SOL    HW284739  11.169  11.985   0.799
94303SOL     OW84740   5.150   5.287   3.024
94303SOL    HW184741   5.207   5.245   2.960
94303SOL    HW284742   5.127   5.217   3.085
94304SOL     OW84743  12.693  13.034   7.931
94304SOL    HW184744  12.600  13.013   7.940
94304SOL    HW284745  12.732  13.005   8.014
94305SOL     OW84746   8.296  10.139   5.939
94305SOL    HW184747   8.322  10.058   5.981
94305SOL    HW284748   8.303  10.121   5.845
94306SOL     OW84749   3.904   9.682   2.215
94306SOL    HW184750   3.972   9.723   2.268
94306SOL    HW284751   3.872   9.609   2.269
94307SOL     OW84752   5.918   4.535  11.099
94307SOL    HW184753   5.867   4.607  11.061
94307SOL    HW284754   5.854   4.484  11.149
94308SOL     OW84755   4.548  14.135   3.878
94308SOL    HW184756   4.583  14.152   3.790
94308SOL    HW284757   4.510  14.047   3.871
94309SOL     OW84758   2.514  14.735   7.757
94309SOL    HW184759   2.518  14.658   7.813
94309SOL    HW284760   2.602  14.742   7.720
94310SOL     OW84761   4.793   8.738  13.382
94310SOL    HW184762   4.713   8.720  13.430
94310SOL    HW284763   4.792   8.678  13.308
94311SOL     OW84764   2.165   5.597  12.415
94311SOL    HW184765   2.207   5.559  12.492
94311SOL    HW284766   2.100   5.531  12.388
94312SOL     OW84767   9.618   6.192  12.140
94312SOL    HW184768   9.564   6.232  12.072
94312SOL    HW284769   9.629   6.262  12.206
94313SOL     OW84770   6.528   3.094  10.560
94313SOL    HW184771   6.591   3.143  10.612
94313SOL    HW284772   6.535   3.004  10.593
94314SOL     OW84773  11.927   5.405  14.838
94314SOL    HW184774  11.926   5.446  14.752
94314SOL    HW284775  12.010   5.357  14.840
94315SOL     OW84776   1.484   2.348  13.910
94315SOL    HW184777   1.499   2.261  13.947
94315SOL    HW284778   1.390   2.361  13.916
94316SOL     OW84779   9.733   3.493   3.598
94316SOL    HW184780   9.651   3.447   3.616
94316SOL    HW284781   9.757   3.466   3.509
94317SOL     OW84782   6.164  13.549   0.804
94317SOL    HW184783   6.252  13.577   0.827
94317SOL    HW284784   6.144  13.480   0.867
94318SOL     OW84785   2.678  12.534  13.325
94318SOL    HW184786   2.678  12.617  13.372
94318SOL    HW284787   2.637  12.472  13.384
94319SOL     OW84788   1.939   4.085   1.299
94319SOL    HW184789   1.997   4.056   1.370
94319SOL    HW284790   1.854   4.097   1.341
94320SOL     OW84791   0.740  11.164   9.793
94320SOL    HW184792   0.778  11.172   9.705
94320SOL    HW284793   0.815  11.146   9.850
94321SOL     OW84794   8.407  12.439   6.404
94321SOL    HW184795   8.320  12.404   6.384
94321SOL    HW284796   8.416  12.425   6.499
94322SOL     OW84797   6.303   6.027  12.974
94322SOL    HW184798   6.209   6.044  12.971
94322SOL    HW284799   6.340   6.085  12.908
94323SOL     OW84800   9.497  11.196   3.826
94323SOL    HW184801   9.583  11.182   3.786
94323SOL    HW284802   9.464  11.276   3.786
94324SOL     OW84803   1.338  14.377  10.703
94324SOL    HW184804   1.311  14.409  10.617
94324SOL    HW284805   1.372  14.289  10.686
94325SOL     OW84806  12.733   9.670   5.693
94325SOL    HW184807  12.755   9.620   5.772
94325SOL    HW284808  12.696   9.752   5.726
94326SOL     OW84809  13.370   6.944   0.747
94326SOL    HW184810  13.359   6.889   0.825
94326SOL    HW284811  13.445   6.905   0.701
94327SOL     OW84812   7.278   9.001  13.250
94327SOL    HW184813   7.214   8.997  13.320
94327SOL    HW284814   7.226   8.999  13.169
94328SOL     OW84815   2.208  10.310   3.691
94328SOL    HW184816   2.252  10.228   3.715
94328SOL    HW284817   2.123  10.282   3.657
94329SOL     OW84818   7.763  14.681  12.566
94329SOL    HW184819   7.776  14.654  12.657
94329SOL    HW284820   7.707  14.613  12.529
94330SOL     OW84821   1.969  13.130   7.327
94330SOL    HW184822   1.951  13.200   7.391
94330SOL    HW284823   1.987  13.053   7.381
94331SOL     OW84824   6.690   3.222   4.210
94331SOL    HW184825   6.753   3.293   4.196
94331SOL    HW284826   6.607   3.267   4.223
94332SOL     OW84827   8.338   5.320   9.946
94332SOL    HW184828   8.329   5.400   9.894
94332SOL    HW284829   8.263   5.322  10.006
94333SOL     OW84830   6.547   7.195   6.848
94333SOL    HW184831   6.488   7.203   6.923
94333SOL    HW284832   6.557   7.101   6.836
94334SOL     OW84833   4.751   4.882   1.853
94334SOL    HW184834   4.655   4.884   1.845
94334SOL    HW284835   4.783   4.928   1.776
94335SOL     OW84836  14.351   4.291  12.099
94335SOL    HW184837  14.353   4.386  12.091
94335SOL    HW284838  14.283   4.273  12.163
94336SOL     OW84839  13.602   9.502  14.176
94336SOL    HW184840  13.548   9.537  14.247
94336SOL    HW284841  13.556   9.525  14.096
94337SOL     OW84842   3.838  13.673  13.127
94337SOL    HW184843   3.849  13.708  13.039
94337SOL    HW284844   3.920  13.629  13.146
94338SOL     OW84845  12.434  14.372  11.518
94338SOL    HW184846  12.372  14.395  11.448
94338SOL    HW284847  12.501  14.320  11.474
94339SOL     OW84848   2.448   3.666  10.756
94339SOL    HW184849   2.401   3.622  10.827
94339SOL    HW284850   2.540   3.640  10.768
94340SOL     OW84851   7.727  13.744   1.425
94340SOL    HW184852   7.676  13.779   1.498
94340SOL    HW284853   7.794  13.810   1.408
94341SOL     OW84854  13.247   3.110   6.645
94341SOL    HW184855  13.197   3.133   6.567
94341SOL    HW284856  13.189   3.054   6.695
94342SOL     OW84857  11.662  11.293   7.157
94342SOL    HW184858  11.579  11.340   7.148
94342SOL    HW284859  11.637  11.200   7.156
94343SOL     OW84860   3.213  12.284   9.740
94343SOL    HW184861   3.132  12.316   9.700
94343SOL    HW284862   3.184  12.230   9.814
94344SOL     OW84863  12.185   7.987   0.671
94344SOL    HW184864  12.107   7.996   0.727
94344SOL    HW284865  12.206   7.894   0.674
94345SOL     OW84866   9.089  14.304  12.721
94345SOL    HW184867   9.072  14.334  12.631
94345SOL    HW284868   9.007  14.264  12.749
94346SOL     OW84869   0.107   7.191  12.099
94346SOL    HW184870   0.075   7.224  12.015
94346SOL    HW284871   0.056   7.238  12.165
94347SOL     OW84872  11.336  11.743   9.299
94347SOL    HW184873  11.370  11.806   9.362
94347SOL    HW284874  11.354  11.783   9.214
94348SOL     OW84875   8.578  11.986   8.710
94348SOL    HW184876   8.518  12.004   8.639
94348SOL    HW284877   8.589  11.891   8.710
94349SOL     OW84878   1.554  12.890   4.452
94349SOL    HW184879   1.619  12.946   4.495
94349SOL    HW284880   1.603  12.847   4.382
94350SOL     OW84881  10.578   7.280  10.271
94350SOL    HW184882  10.597   7.186  10.266
94350SOL    HW284883  10.610   7.315  10.187
94351SOL     OW84884   4.991   0.146   0.742
94351SOL    HW184885   5.064   0.098   0.704
94351SOL    HW284886   4.914   0.113   0.697
94352SOL     OW84887  10.271   7.714  10.543
94352SOL    HW184888  10.237   7.669  10.621
94352SOL    HW284889  10.299   7.644  10.485
94353SOL     OW84890  11.341   3.971   6.252
94353SOL    HW184891  11.298   3.888   6.274
94353SOL    HW284892  11.431   3.960   6.285
94354SOL     OW84893   5.676  12.283   5.289
94354SOL    HW184894   5.736  12.344   5.245
94354SOL    HW284895   5.665  12.211   5.226
94355SOL     OW84896   9.341   1.946  11.119
94355SOL    HW184897   9.277   1.899  11.172
94355SOL    HW284898   9.395   1.877  11.080
94356SOL     OW84899  12.735   6.241  13.695
94356SOL    HW184900  12.740   6.165  13.752
94356SOL    HW284901  12.659   6.290  13.726
94357SOL     OW84902   2.390   3.221   7.978
94357SOL    HW184903   2.352   3.259   8.057
94357SOL    HW284904   2.465   3.278   7.958
94358SOL     OW84905   1.394  10.281   7.850
94358SOL    HW184906   1.394  10.259   7.943
94358SOL    HW284907   1.309  10.322   7.835
94359SOL     OW84908   4.747   9.867   5.269
94359SOL    HW184909   4.672   9.825   5.227
94359SOL    HW284910   4.716   9.954   5.293
94360SOL     OW84911  14.585   8.935  10.481
94360SOL    HW184912  14.503   8.921  10.527
94360SOL    HW284913  14.565   9.003  10.417
94361SOL     OW84914   8.009   2.698   4.467
94361SOL    HW184915   7.964   2.625   4.508
94361SOL    HW284916   7.959   2.775   4.494
94362SOL     OW84917   1.067   9.072   8.412
94362SOL    HW184918   1.045   9.161   8.440
94362SOL    HW284919   1.145   9.049   8.464
94363SOL     OW84920   6.405  14.356   6.310
94363SOL    HW184921   6.447  14.423   6.255
94363SOL    HW284922   6.328  14.330   6.260
94364SOL     OW84923   2.864  12.535  14.350
94364SOL    HW184924   2.819  12.612  14.313
94364SOL    HW284925   2.809  12.461  14.325
94365SOL     OW84926   1.909   2.541  13.651
94365SOL    HW184927   1.862   2.457  13.654
94365SOL    HW284928   1.874   2.591  13.725
94366SOL     OW84929   2.267   0.426  10.102
94366SOL    HW184930   2.268   0.463  10.191
94366SOL    HW284931   2.234   0.337  10.114
94367SOL     OW84932  10.410   8.929   5.431
94367SOL    HW184933  10.355   8.964   5.361
94367SOL    HW284934  10.400   8.834   5.425
94368SOL     OW84935   3.549   5.145   4.268
94368SOL    HW184936   3.639   5.155   4.297
94368SOL    HW284937   3.554   5.087   4.192
94369SOL     OW84938  13.958  13.100   2.116
94369SOL    HW184939  14.009  13.163   2.166
94369SOL    HW284940  14.013  13.077   2.041
94370SOL     OW84941   1.171   5.846  12.921
94370SOL    HW184942   1.158   5.894  13.003
94370SOL    HW284943   1.256   5.802  12.931
94371SOL     OW84944   9.325  14.044   5.501
94371SOL    HW184945   9.315  14.085   5.587
94371SOL    HW284946   9.236  14.037   5.467
94372SOL     OW84947   3.604  11.389  12.095
94372SOL    HW184948   3.633  11.434  12.174
94372SOL    HW284949   3.525  11.342  12.121
94373SOL     OW84950  14.875   7.335   6.752
94373SOL    HW184951  14.823   7.411   6.780
94373SOL    HW284952  14.811   7.267   6.733
94374SOL     OW84953  11.532  11.898   8.847
94374SOL    HW184954  11.528  11.809   8.810
94374SOL    HW284955  11.625  11.912   8.866
94375SOL     OW84956   3.563   4.743  13.822
94375SOL    HW184957   3.635   4.715  13.879
94375SOL    HW284958   3.607   4.780  13.745
94376SOL     OW84959   2.046   0.063   0.200
94376SOL    HW184960   2.044  14.855   0.246
94376SOL    HW284961   1.981   0.054   0.130
94377SOL     OW84962   5.496   5.424   1.945
94377SOL    HW184963   5.431   5.468   1.999
94377SOL    HW284964   5.502   5.336   1.981
94378SOL     OW84965   5.695   3.510   5.580
94378SOL    HW184966   5.650   3.426   5.585
94378SOL    HW284967   5.676   3.541   5.491
94379SOL     OW84968   3.988   7.136   5.030
94379SOL    HW184969   4.026   7.074   4.969
94379SOL    HW284970   3.972   7.215   4.978
94380SOL     OW84971  11.498   0.096   3.616
94380SOL    HW184972  11.520   0.155   3.689
94380SOL    HW284973  11.429   0.040   3.651
94381SOL     OW84974   4.218   4.976   5.451
94381SOL    HW184975   4.207   4.893   5.406
94381SOL    HW284976   4.139   5.026   5.431
94382SOL     OW84977   9.133   6.153   7.821
94382SOL    HW184978   9.212   6.099   7.823
94382SOL    HW284979   9.088   6.134   7.903
94383SOL     OW84980  13.484  13.000   8.125
94383SOL    HW184981  13.475  13.094   8.141
94383SOL    HW284982  13.574  12.989   8.095
94384SOL     OW84983   9.281   9.536  13.548
94384SOL    HW184984   9.238   9.618  13.571
94384SOL    HW284985   9.359   9.563  13.499
94385SOL     OW84986  13.986   0.895   4.405
94385SOL    HW184987  13.966   0.831   4.336
94385SOL    HW284988  14.032   0.844   4.472
94386SOL     OW84989  10.156   8.496   3.901
94386SOL    HW184990  10.142   8.591   3.907
94386SOL    HW284991  10.068   8.459   3.902
94387SOL     OW84992   0.323   6.540  10.775
94387SOL    HW184993   0.246   6.494  10.809
94387SOL    HW284994   0.354   6.593  10.848
94388SOL     OW84995  11.632   0.576   1.762
94388SOL    HW184996  11.552   0.525   1.756
94388SOL    HW284997  11.655   0.574   1.855
94389SOL     OW84998   8.018   6.050   3.434
94389SOL    HW184999   8.091   6.100   3.470
94389SOL    HW285000   7.950   6.115   3.417
94390SOL     OW85001  14.458   8.172  10.691
94390SOL    HW185002  14.381   8.222  10.663
94390SOL    HW285003  14.520   8.238  10.721
94391SOL     OW85004   5.607   5.939  10.694
94391SOL    HW185005   5.583   6.032  10.691
94391SOL    HW285006   5.654   5.929  10.777
94392SOL     OW85007  12.877   0.068   8.841
94392SOL    HW185008  12.932   0.018   8.781
94392SOL    HW285009  12.791   0.071   8.798
94393SOL     OW85010   0.798  14.643   1.618
94393SOL    HW185011   0.891  14.657   1.633
94393SOL    HW285012   0.794  14.591   1.537
94394SOL     OW85013   9.579   7.831   8.559
94394SOL    HW185014   9.588   7.918   8.520
94394SOL    HW285015   9.650   7.780   8.521
94395SOL     OW85016   4.579  11.025   6.747
94395SOL    HW185017   4.669  10.995   6.745
94395SOL    HW285018   4.574  11.082   6.824
94396SOL     OW85019   4.012  14.373   0.228
94396SOL    HW185020   3.975  14.461   0.221
94396SOL    HW285021   4.031  14.362   0.321
94397SOL     OW85022  14.817   3.860  13.246
94397SOL    HW185023  14.828   3.939  13.193
94397SOL    HW285024  14.779   3.796  13.185
94398SOL     OW85025   3.395   1.559  11.911
94398SOL    HW185026   3.406   1.608  11.992
94398SOL    HW285027   3.441   1.476  11.926
94399SOL     OW85028   7.987   5.095  11.961
94399SOL    HW185029   7.971   5.016  12.012
94399SOL    HW285030   8.037   5.064  11.885
94400SOL     OW85031   1.753   6.938   9.709
94400SOL    HW185032   1.783   6.849   9.732
94400SOL    HW285033   1.823   6.995   9.739
94401SOL     OW85034   0.575   9.469  12.374
94401SOL    HW185035   0.635   9.397  12.356
94401SOL    HW285036   0.597   9.536  12.310
94402SOL     OW85037   6.907  12.635   2.189
94402SOL    HW185038   6.977  12.571   2.181
94402SOL    HW285039   6.866  12.637   2.102
94403SOL     OW85040  10.650  14.195  10.145
94403SOL    HW185041  10.686  14.197  10.233
94403SOL    HW285042  10.559  14.221  10.155
94404SOL     OW85043  13.982   1.774   9.535
94404SOL    HW185044  14.035   1.851   9.515
94404SOL    HW285045  13.950   1.745   9.449
94405SOL     OW85046   0.742  13.832  13.447
94405SOL    HW185047   0.769  13.753  13.400
94405SOL    HW285048   0.784  13.824  13.533
94406SOL     OW85049  11.717  12.637   8.721
94406SOL    HW185050  11.783  12.640   8.651
94406SOL    HW285051  11.646  12.585   8.684
94407SOL     OW85052  11.581   3.165  12.134
94407SOL    HW185053  11.603   3.091  12.191
94407SOL    HW285054  11.554   3.124  12.052
94408SOL     OW85055   8.286   3.374   6.156
94408SOL    HW185056   8.312   3.337   6.240
94408SOL    HW285057   8.262   3.297   6.103
94409SOL     OW85058   0.827   4.712   7.975
94409SOL    HW185059   0.792   4.738   8.061
94409SOL    HW285060   0.749   4.690   7.924
94410SOL     OW85061   0.266  13.195   0.002
94410SOL    HW185062   0.355  13.199   0.036
94410SOL    HW285063   0.211  13.179   0.079
94411SOL     OW85064   0.747  13.259   3.429
94411SOL    HW185065   0.726  13.238   3.338
94411SOL    HW285066   0.692  13.199   3.480
94412SOL     OW85067   5.883  11.962   4.011
94412SOL    HW185068   5.948  11.897   4.037
94412SOL    HW285069   5.904  12.039   4.064
94413SOL     OW85070   3.929   8.084  13.638
94413SOL    HW185071   3.885   8.148  13.582
94413SOL    HW285072   3.986   8.035  13.579
94414SOL     OW85073   7.103   8.549   6.105
94414SOL    HW185074   7.168   8.488   6.070
94414SOL    HW285075   7.026   8.537   6.049
94415SOL     OW85076   9.156   3.036   1.986
94415SOL    HW185077   9.247   3.010   1.976
94415SOL    HW285078   9.135   3.083   1.905
94416SOL     OW85079   7.599   7.337   2.343
94416SOL    HW185080   7.617   7.346   2.436
94416SOL    HW285081   7.681   7.307   2.305
94417SOL     OW85082   8.430   4.748   0.942
94417SOL    HW185083   8.338   4.775   0.946
94417SOL    HW285084   8.430   4.670   0.887
94418SOL     OW85085  13.996   9.379   6.066
94418SOL    HW185086  14.035   9.377   6.153
94418SOL    HW285087  13.961   9.468   6.057
94419SOL     OW85088   7.531  11.040  10.953
94419SOL    HW185089   7.590  11.107  10.919
94419SOL    HW285090   7.459  11.036  10.891
94420SOL     OW85091   8.756  14.047   7.031
94420SOL    HW185092   8.774  14.036   6.938
94420SOL    HW285093   8.745  14.142   7.042
94421SOL     OW85094   5.616  11.591   3.099
94421SOL    HW185095   5.566  11.568   3.020
94421SOL    HW285096   5.644  11.507   3.135
94422SOL     OW85097  10.663  12.680   4.278
94422SOL    HW185098  10.597  12.678   4.347
94422SOL    HW285099  10.657  12.768   4.241
94423SOL     OW85100   9.014   1.572   2.054
94423SOL    HW185101   8.958   1.517   2.110
94423SOL    HW285102   8.952   1.629   2.008
94424SOL     OW85103  13.058   2.659   3.178
94424SOL    HW185104  13.009   2.697   3.251
94424SOL    HW285105  12.999   2.666   3.103
94425SOL     OW85106   2.277   5.917   8.043
94425SOL    HW185107   2.184   5.925   8.023
94425SOL    HW285108   2.311   5.858   7.976
94426SOL     OW85109   1.306   3.378  12.647
94426SOL    HW185110   1.268   3.449  12.595
94426SOL    HW285111   1.275   3.298  12.604
94427SOL     OW85112   7.470   2.681  12.528
94427SOL    HW185113   7.461   2.637  12.443
94427SOL    HW285114   7.529   2.755  12.511
94428SOL     OW85115   3.720   1.317  10.779
94428SOL    HW185116   3.638   1.279  10.747
94428SOL    HW285117   3.727   1.400  10.733
94429SOL     OW85118  13.325   2.720  13.200
94429SOL    HW185119  13.388   2.657  13.164
94429SOL    HW285120  13.241   2.674  13.195
94430SOL     OW85121   2.578   8.756   5.213
94430SOL    HW185122   2.549   8.811   5.285
94430SOL    HW285123   2.673   8.747   5.227
94431SOL     OW85124   4.393   4.116   5.788
94431SOL    HW185125   4.406   4.119   5.883
94431SOL    HW285126   4.311   4.162   5.774
94432SOL     OW85127   1.706   1.963  14.713
94432SOL    HW185128   1.742   1.970  14.625
94432SOL    HW285129   1.613   1.942  14.699
94433SOL     OW85130  13.092  10.727   7.925
94433SOL    HW185131  13.165  10.726   7.987
94433SOL    HW285132  13.132  10.704   7.841
94434SOL     OW85133   4.971   6.754   8.118
94434SOL    HW185134   4.982   6.846   8.141
94434SOL    HW285135   5.059   6.724   8.096
94435SOL     OW85136  11.973  14.017   1.650
94435SOL    HW185137  11.968  14.066   1.732
94435SOL    HW285138  12.047  13.958   1.663
94436SOL     OW85139  13.307   9.797   5.566
94436SOL    HW185140  13.354   9.718   5.592
94436SOL    HW285141  13.235   9.804   5.629
94437SOL     OW85142   9.316   1.196   8.923
94437SOL    HW185143   9.281   1.136   8.988
94437SOL    HW285144   9.408   1.208   8.948
94438SOL     OW85145   7.090  13.163   7.945
94438SOL    HW185146   7.041  13.169   7.863
94438SOL    HW285147   7.109  13.254   7.969
94439SOL     OW85148   8.119   3.658  10.748
94439SOL    HW185149   8.168   3.721  10.696
94439SOL    HW285150   8.095   3.589  10.687
94440SOL     OW85151  13.677  10.172   7.565
94440SOL    HW185152  13.753  10.220   7.531
94440SOL    HW285153  13.602  10.228   7.546
94441SOL     OW85154   8.953   4.096   6.148
94441SOL    HW185155   9.039   4.092   6.105
94441SOL    HW285156   8.892   4.067   6.080
94442SOL     OW85157   2.786   2.711   5.702
94442SOL    HW185158   2.874   2.675   5.691
94442SOL    HW285159   2.758   2.732   5.612
94443SOL     OW85160   0.247   1.468   8.202
94443SOL    HW185161   0.318   1.488   8.263
94443SOL    HW285162   0.254   1.535   8.134
94444SOL     OW85163   0.318   5.870   2.851
94444SOL    HW185164   0.289   5.782   2.824
94444SOL    HW285165   0.358   5.856   2.937
94445SOL     OW85166   9.599   6.919   3.522
94445SOL    HW185167   9.622   7.001   3.567
94445SOL    HW285168   9.547   6.947   3.446
94446SOL     OW85169   1.018   0.408  11.295
94446SOL    HW185170   0.960   0.366  11.359
94446SOL    HW285171   1.009   0.501  11.312
94447SOL     OW85172  14.820  13.996  11.086
94447SOL    HW185173  14.854  14.073  11.131
94447SOL    HW285174  14.731  14.019  11.063
94448SOL     OW85175   6.744  12.390  10.956
94448SOL    HW185176   6.688  12.457  10.997
94448SOL    HW285177   6.732  12.313  11.011
94449SOL     OW85178  13.411   2.155   2.608
94449SOL    HW185179  13.455   2.080   2.648
94449SOL    HW285180  13.371   2.201   2.681
94450SOL     OW85181   7.524   1.487  11.200
94450SOL    HW185182   7.610   1.455  11.172
94450SOL    HW285183   7.540   1.536  11.280
94451SOL     OW85184   5.099   3.345  10.249
94451SOL    HW185185   5.027   3.282  10.248
94451SOL    HW285186   5.057   3.429  10.271
94452SOL     OW85187  12.693  11.271   0.640
94452SOL    HW185188  12.707  11.246   0.548
94452SOL    HW285189  12.598  11.279   0.648
94453SOL     OW85190   0.893  11.184   3.429
94453SOL    HW185191   0.888  11.277   3.453
94453SOL    HW285192   0.982  11.158   3.456
94454SOL     OW85193  14.254  12.607   6.988
94454SOL    HW185194  14.167  12.636   7.017
94454SOL    HW285195  14.296  12.687   6.957
94455SOL     OW85196   8.127   4.893   7.583
94455SOL    HW185197   8.141   4.935   7.498
94455SOL    HW285198   8.040   4.922   7.610
94456SOL     OW85199   2.368  11.305   6.299
94456SOL    HW185200   2.360  11.216   6.334
94456SOL    HW285201   2.451  11.337   6.334
94457SOL     OW85202   3.463  14.402   0.706
94457SOL    HW185203   3.558  14.399   0.696
94457SOL    HW285204   3.450  14.424   0.799
94458SOL     OW85205   9.338   5.987  14.056
94458SOL    HW185206   9.326   6.037  13.975
94458SOL    HW285207   9.276   5.915  14.048
94459SOL     OW85208   1.268   3.747  11.952
94459SOL    HW185209   1.291   3.654  11.946
94459SOL    HW285210   1.216   3.754  12.032
94460SOL     OW85211  10.417  14.816  10.663
94460SOL    HW185212  10.445  14.776  10.745
94460SOL    HW285213  10.441   0.032  10.671
94461SOL     OW85214   7.392   1.215   9.771
94461SOL    HW185215   7.375   1.280   9.838
94461SOL    HW285216   7.331   1.237   9.700
94462SOL     OW85217  11.922   6.754   4.677
94462SOL    HW185218  11.911   6.836   4.629
94462SOL    HW285219  11.840   6.706   4.660
94463SOL     OW85220  11.779   4.563   9.202
94463SOL    HW185221  11.845   4.599   9.143
94463SOL    HW285222  11.701   4.616   9.185
94464SOL     OW85223  13.329  11.307   7.355
94464SOL    HW185224  13.245  11.351   7.342
94464SOL    HW285225  13.376  11.362   7.417
94465SOL     OW85226  10.212   6.482   0.894
94465SOL    HW185227  10.237   6.396   0.929
94465SOL    HW285228  10.157   6.462   0.819
94466SOL     OW85229   5.876   0.317   0.868
94466SOL    HW185230   5.840   0.401   0.838
94466SOL    HW285231   5.844   0.308   0.958
94467SOL     OW85232  10.975   9.497   5.541
94467SOL    HW185233  10.891   9.474   5.581
94467SOL    HW285234  10.990   9.428   5.476
94468SOL     OW85235   5.560   1.371   2.466
94468SOL    HW185236   5.616   1.338   2.537
94468SOL    HW285237   5.477   1.393   2.509
94469SOL     OW85238  13.812  11.251   3.010
94469SOL    HW185239  13.724  11.277   2.985
94469SOL    HW285240  13.859  11.241   2.927
94470SOL     OW85241  13.306   8.529   6.394
94470SOL    HW185242  13.343   8.443   6.413
94470SOL    HW285243  13.379   8.590   6.410
94471SOL     OW85244  12.564  13.409  10.393
94471SOL    HW185245  12.483  13.443  10.429
94471SOL    HW285246  12.590  13.472  10.326
94472SOL     OW85247   5.777  14.337  12.620
94472SOL    HW185248   5.820  14.310  12.539
94472SOL    HW285249   5.756  14.255  12.665
94473SOL     OW85250   3.335  13.536   3.316
94473SOL    HW185251   3.260  13.577   3.274
94473SOL    HW285252   3.329  13.444   3.289
94474SOL     OW85253   2.999   9.583   0.810
94474SOL    HW185254   2.999   9.594   0.715
94474SOL    HW285255   2.910   9.553   0.830
94475SOL     OW85256   4.870  11.127  11.996
94475SOL    HW185257   4.896  11.164  11.911
94475SOL    HW285258   4.951  11.089  12.031
94476SOL     OW85259   3.655  10.081  13.922
94476SOL    HW185260   3.651   9.989  13.898
94476SOL    HW285261   3.568  10.115  13.904
94477SOL     OW85262   6.731   3.832   7.378
94477SOL    HW185263   6.672   3.779   7.432
94477SOL    HW285264   6.771   3.769   7.318
94478SOL     OW85265   1.250   5.791   6.109
94478SOL    HW185266   1.316   5.837   6.162
94478SOL    HW285267   1.292   5.778   6.024
94479SOL     OW85268  10.603  13.024  14.693
94479SOL    HW185269  10.526  13.008  14.638
94479SOL    HW285270  10.580  12.986  14.778
94480SOL     OW85271  14.671  13.146   5.512
94480SOL    HW185272  14.622  13.225   5.491
94480SOL    HW285273  14.718  13.167   5.592
94481SOL     OW85274   8.052   0.082  14.157
94481SOL    HW185275   8.118   0.070  14.089
94481SOL    HW285276   7.973   0.042  14.121
94482SOL     OW85277   4.761   8.549   4.295
94482SOL    HW185278   4.722   8.489   4.358
94482SOL    HW285279   4.845   8.574   4.334
94483SOL     OW85280   3.271  10.413  11.002
94483SOL    HW185281   3.193  10.467  10.991
94483SOL    HW285282   3.339  10.457  10.951
94484SOL     OW85283  14.601  13.516  14.147
94484SOL    HW185284  14.572  13.570  14.073
94484SOL    HW285285  14.565  13.559  14.224
94485SOL     OW85286   4.043  10.660   1.559
94485SOL    HW185287   4.073  10.610   1.634
94485SOL    HW285288   3.948  10.661   1.567
94486SOL     OW85289  13.329   9.514   0.309
94486SOL    HW185290  13.397   9.448   0.316
94486SOL    HW285291  13.361   9.588   0.361
94487SOL     OW85292  13.241  14.782   7.007
94487SOL    HW185293  13.247  14.821   6.920
94487SOL    HW285294  13.147  14.770   7.021
94488SOL     OW85295  13.228  10.356   8.589
94488SOL    HW185296  13.291  10.329   8.521
94488SOL    HW285297  13.204  10.275   8.633
94489SOL     OW85298   2.802   3.250  12.086
94489SOL    HW185299   2.817   3.156  12.076
94489SOL    HW285300   2.832   3.289  12.003
94490SOL     OW85301   8.520   1.779   7.095
94490SOL    HW185302   8.582   1.785   7.022
94490SOL    HW285303   8.489   1.869   7.108
94491SOL     OW85304   9.690   3.693   5.972
94491SOL    HW185305   9.615   3.637   5.991
94491SOL    HW285306   9.691   3.758   6.042
94492SOL     OW85307   0.150   8.620   7.460
94492SOL    HW185308   0.184   8.537   7.494
94492SOL    HW285309   0.061   8.599   7.432
94493SOL     OW85310  11.863   0.422   1.920
94493SOL    HW185311  11.897   0.376   1.843
94493SOL    HW285312  11.933   0.483   1.944
94494SOL     OW85313   6.232   6.875   5.078
94494SOL    HW185314   6.196   6.787   5.077
94494SOL    HW285315   6.213   6.908   5.166
94495SOL     OW85316  12.182   3.007   0.381
94495SOL    HW185317  12.106   2.960   0.346
94495SOL    HW285318  12.183   3.090   0.333
94496SOL     OW85319   4.320  14.348   6.558
94496SOL    HW185320   4.373  14.279   6.518
94496SOL    HW285321   4.260  14.376   6.489
94497SOL     OW85322  11.428   8.145   5.758
94497SOL    HW185323  11.439   8.060   5.801
94497SOL    HW285324  11.334   8.154   5.746
94498SOL     OW85325   8.242  12.352  14.113
94498SOL    HW185326   8.285  12.279  14.157
94498SOL    HW285327   8.313  12.403  14.075
94499SOL     OW85328   2.219  11.183   0.520
94499SOL    HW185329   2.260  11.264   0.550
94499SOL    HW285330   2.230  11.184   0.425
94500SOL     OW85331  10.050  13.912   2.406
94500SOL    HW185332   9.980  13.903   2.471
94500SOL    HW285333  10.026  13.990   2.356
94501SOL     OW85334   0.635   6.167   9.483
94501SOL    HW185335   0.601   6.193   9.398
94501SOL    HW285336   0.731   6.170   9.473
94502SOL     OW85337  12.975   2.281  13.938
94502SOL    HW185338  13.065   2.260  13.962
94502SOL    HW285339  12.925   2.272  14.019
94503SOL     OW85340  11.658   0.384   0.533
94503SOL    HW185341  11.638   0.347   0.446
94503SOL    HW285342  11.753   0.376   0.541
94504SOL     OW85343   1.622   8.634   2.715
94504SOL    HW185344   1.594   8.627   2.806
94504SOL    HW285345   1.557   8.692   2.675
94505SOL     OW85346   6.824   7.404  14.696
94505SOL    HW185347   6.854   7.369  14.780
94505SOL    HW285348   6.872   7.354  14.630
94506SOL     OW85349  13.032  14.137   2.434
94506SOL    HW185350  12.980  14.198   2.382
94506SOL    HW285351  13.065  14.073   2.370
94507SOL     OW85352   9.460   8.898  12.467
94507SOL    HW185353   9.390   8.839  12.494
94507SOL    HW285354   9.456   8.899  12.372
94508SOL     OW85355  12.819   0.281   2.123
94508SOL    HW185356  12.782   0.303   2.209
94508SOL    HW285357  12.749   0.302   2.061
94509SOL     OW85358  13.249   9.895   4.434
94509SOL    HW185359  13.166   9.932   4.465
94509SOL    HW285360  13.312   9.917   4.503
94510SOL     OW85361   9.512   2.309  13.363
94510SOL    HW185362   9.541   2.373  13.428
94510SOL    HW285363   9.589   2.293  13.308
94511SOL     OW85364   3.336  13.266   6.421
94511SOL    HW185365   3.296  13.222   6.496
94511SOL    HW285366   3.429  13.272   6.443
94512SOL     OW85367  11.671   5.978  13.645
94512SOL    HW185368  11.637   6.067  13.638
94512SOL    HW285369  11.599   5.922  13.618
94513SOL     OW85370   0.014   8.039  10.809
94513SOL    HW185371   0.058   8.082  10.882
94513SOL    HW285372  14.797   8.042  10.832
94514SOL     OW85373   6.396   0.758  14.640
94514SOL    HW185374   6.489   0.743  14.659
94514SOL    HW285375   6.394   0.786  14.549
94515SOL     OW85376   1.983  12.849  11.325
94515SOL    HW185377   2.014  12.822  11.238
94515SOL    HW285378   2.032  12.929  11.344
94516SOL     OW85379   9.884   0.019   8.329
94516SOL    HW185380   9.796   0.002   8.361
94516SOL    HW285381   9.928  14.810   8.333
94517SOL     OW85382   0.205  13.864   6.061
94517SOL    HW185383   0.124  13.913   6.075
94517SOL    HW285384   0.273  13.917   6.103
94518SOL     OW85385   8.465   4.570   6.115
94518SOL    HW185386   8.536   4.572   6.179
94518SOL    HW285387   8.494   4.630   6.046
94519SOL     OW85388  14.349   2.172  10.367
94519SOL    HW185389  14.419   2.151  10.306
94519SOL    HW285390  14.364   2.264  10.391
94520SOL     OW85391   8.273   1.294  11.744
94520SOL    HW185392   8.254   1.206  11.712
94520SOL    HW285393   8.356   1.285  11.791
94521SOL     OW85394  14.197   4.243   3.746
94521SOL    HW185395  14.220   4.251   3.654
94521SOL    HW285396  14.247   4.167   3.777
94522SOL     OW85397  12.450   8.778  10.813
94522SOL    HW185398  12.440   8.804  10.904
94522SOL    HW285399  12.380   8.714  10.798
94523SOL     OW85400   2.809   4.198  12.786
94523SOL    HW185401   2.864   4.152  12.849
94523SOL    HW285402   2.797   4.285  12.825
94524SOL     OW85403   7.450  12.968   7.020
94524SOL    HW185404   7.366  12.934   6.989
94524SOL    HW285405   7.507  12.963   6.944
94525SOL     OW85406  13.240   9.195   7.755
94525SOL    HW185407  13.233   9.290   7.747
94525SOL    HW285408  13.300   9.169   7.685
94526SOL     OW85409   1.936   0.052   1.877
94526SOL    HW185410   1.864   0.107   1.847
94526SOL    HW285411   1.984   0.108   1.938
94527SOL     OW85412   4.421  11.613   2.711
94527SOL    HW185413   4.355  11.650   2.769
94527SOL    HW285414   4.374  11.592   2.631
94528SOL     OW85415   0.857  11.847   8.406
94528SOL    HW185416   0.926  11.789   8.437
94528SOL    HW285417   0.883  11.934   8.435
94529SOL     OW85418   8.213   8.333  11.529
94529SOL    HW185419   8.288   8.346  11.587
94529SOL    HW285420   8.249   8.338  11.441
94530SOL     OW85421  14.038  14.017   5.622
94530SOL    HW185422  13.982  14.002   5.546
94530SOL    HW285423  14.029  14.110   5.641
94531SOL     OW85424  13.432  10.313  10.719
94531SOL    HW185425  13.385  10.269  10.648
94531SOL    HW285426  13.482  10.243  10.762
94532SOL     OW85427   8.948   4.106   1.314
94532SOL    HW185428   9.023   4.052   1.338
94532SOL    HW285429   8.977   4.155   1.237
94533SOL     OW85430   6.489  13.247   9.006
94533SOL    HW185431   6.474  13.154   8.988
94533SOL    HW285432   6.438  13.293   8.939
94534SOL     OW85433   2.194   4.688   0.875
94534SOL    HW185434   2.145   4.760   0.914
94534SOL    HW285435   2.227   4.638   0.950
94535SOL     OW85436   4.415   3.742  14.327
94535SOL    HW185437   4.438   3.712  14.240
94535SOL    HW285438   4.479   3.702  14.385
94536SOL     OW85439   0.073   1.018   0.775
94536SOL    HW185440   0.036   1.006   0.863
94536SOL    HW285441   0.080   0.930   0.740
94537SOL     OW85442  14.296   5.231  14.361
94537SOL    HW185443  14.285   5.145  14.400
94537SOL    HW285444  14.383   5.259  14.388
94538SOL     OW85445  12.134   8.782   5.447
94538SOL    HW185446  12.141   8.693   5.413
94538SOL    HW285447  12.168   8.777   5.537
94539SOL     OW85448   3.696   9.400   1.958
94539SOL    HW185449   3.776   9.411   1.907
94539SOL    HW285450   3.699   9.309   1.988
94540SOL     OW85451   2.569   5.322   5.965
94540SOL    HW185452   2.665   5.329   5.965
94540SOL    HW285453   2.551   5.251   6.026
94541SOL     OW85454   4.212  10.949  13.493
94541SOL    HW185455   4.240  10.858  13.496
94541SOL    HW285456   4.191  10.965  13.400
94542SOL     OW85457   8.054  13.110   7.859
94542SOL    HW185458   8.082  13.022   7.886
94542SOL    HW285459   7.973  13.095   7.810
94543SOL     OW85460  10.051  12.286   2.094
94543SOL    HW185461  10.070  12.350   2.025
94543SOL    HW285462  10.111  12.309   2.165
94544SOL     OW85463   4.518   4.954  13.327
94544SOL    HW185464   4.563   4.877  13.363
94544SOL    HW285465   4.551   5.027  13.379
94545SOL     OW85466  11.799   7.205   1.549
94545SOL    HW185467  11.772   7.180   1.638
94545SOL    HW285468  11.865   7.273   1.562
94546SOL     OW85469   3.304   4.049  12.508
94546SOL    HW185470   3.297   3.994  12.430
94546SOL    HW285471   3.389   4.028  12.545
94547SOL     OW85472   2.624   8.936  12.228
94547SOL    HW185473   2.546   8.888  12.201
94547SOL    HW285474   2.620   8.937  12.324
94548SOL     OW85475   2.485   0.571  12.053
94548SOL    HW185476   2.401   0.613  12.070
94548SOL    HW285477   2.464   0.494  12.001
94549SOL     OW85478   5.605   6.357   5.601
94549SOL    HW185479   5.551   6.432   5.628
94549SOL    HW285480   5.600   6.297   5.675
94550SOL     OW85481   2.678   2.706   9.802
94550SOL    HW185482   2.707   2.616   9.789
94550SOL    HW285483   2.759   2.757   9.804
94551SOL     OW85484   4.290   6.222   8.479
94551SOL    HW185485   4.289   6.138   8.525
94551SOL    HW285486   4.383   6.247   8.476
94552SOL     OW85487  14.111   0.490   4.869
94552SOL    HW185488  14.128   0.510   4.961
94552SOL    HW285489  14.049   0.558   4.841
94553SOL     OW85490  11.394   5.670   3.305
94553SOL    HW185491  11.418   5.728   3.378
94553SOL    HW285492  11.333   5.607   3.344
94554SOL     OW85493   9.840   5.290  11.809
94554SOL    HW185494   9.874   5.361  11.864
94554SOL    HW285495   9.835   5.328  11.722
94555SOL     OW85496  13.556   1.224  14.399
94555SOL    HW185497  13.537   1.234  14.306
94555SOL    HW285498  13.477   1.184  14.435
94556SOL     OW85499   5.813   5.228   1.712
94556SOL    HW185500   5.883   5.260   1.655
94556SOL    HW285501   5.749   5.299   1.712
94557SOL     OW85502  13.202   6.939  10.316
94557SOL    HW185503  13.147   6.914  10.242
94557SOL    HW285504  13.280   6.977  10.276
94558SOL     OW85505   6.134   6.762   6.521
94558SOL    HW185506   6.168   6.851   6.530
94558SOL    HW285507   6.134   6.746   6.427
94559SOL     OW85508   0.874   1.789  13.945
94559SOL    HW185509   0.821   1.810  13.868
94559SOL    HW285510   0.871   1.693  13.951
94560SOL     OW85511   9.029   5.093   4.717
94560SOL    HW185512   8.943   5.051   4.721
94560SOL    HW285513   9.085   5.028   4.673
94561SOL     OW85514   5.986   5.635  13.923
94561SOL    HW185515   5.930   5.594  13.989
94561SOL    HW285516   5.929   5.700  13.881
94562SOL     OW85517  12.844   7.394   9.447
94562SOL    HW185518  12.752   7.368   9.453
94562SOL    HW285519  12.891   7.324   9.492
94563SOL     OW85520   4.433  13.489  13.478
94563SOL    HW185521   4.461  13.571  13.436
94563SOL    HW285522   4.461  13.421  13.416
94564SOL     OW85523   3.766  12.837   1.660
94564SOL    HW185524   3.703  12.774   1.624
94564SOL    HW285525   3.739  12.847   1.751
94565SOL     OW85526  13.266   5.682   3.803
94565SOL    HW185527  13.306   5.614   3.856
94565SOL    HW285528  13.299   5.764   3.839
94566SOL     OW85529  12.053   1.597   4.973
94566SOL    HW185530  12.082   1.668   4.916
94566SOL    HW285531  12.019   1.531   4.914
94567SOL     OW85532   9.751   4.028   6.613
94567SOL    HW185533   9.830   4.011   6.561
94567SOL    HW285534   9.769   3.986   6.697
94568SOL     OW85535   7.236  13.211  11.202
94568SOL    HW185536   7.268  13.185  11.116
94568SOL    HW285537   7.272  13.146  11.262
94569SOL     OW85538  11.271   2.034   0.502
94569SOL    HW185539  11.263   2.121   0.538
94569SOL    HW285540  11.182   2.000   0.497
94570SOL     OW85541  10.971   6.726   3.175
94570SOL    HW185542  10.995   6.721   3.267
94570SOL    HW285543  10.878   6.705   3.172
94571SOL     OW85544  14.869  14.491   2.123
94571SOL    HW185545  14.787  14.477   2.172
94571SOL    HW285546   0.061  14.456   2.181
94572SOL     OW85547   2.356   9.653  13.819
94572SOL    HW185548   2.400   9.603  13.888
94572SOL    HW285549   2.270   9.674  13.857
94573SOL     OW85550   5.063   3.034  10.649
94573SOL    HW185551   5.053   2.939  10.641
94573SOL    HW285552   4.995   3.061  10.710
94574SOL     OW85553  10.643   5.497   7.261
94574SOL    HW185554  10.561   5.509   7.308
94574SOL    HW285555  10.710   5.493   7.329
94575SOL     OW85556   2.249  14.005   0.814
94575SOL    HW185557   2.340  13.999   0.786
94575SOL    HW285558   2.246  13.952   0.894
94576SOL     OW85559  12.057  11.449  12.064
94576SOL    HW185560  12.088  11.363  12.092
94576SOL    HW285561  11.993  11.429  11.995
94577SOL     OW85562   0.678   1.496  10.735
94577SOL    HW185563   0.674   1.405  10.764
94577SOL    HW285564   0.688   1.547  10.815
94578SOL     OW85565   6.435  12.226   1.395
94578SOL    HW185566   6.474  12.312   1.411
94578SOL    HW285567   6.494  12.165   1.438
94579SOL     OW85568  10.754   3.935   8.244
94579SOL    HW185569  10.827   3.892   8.200
94579SOL    HW285570  10.702   3.972   8.172
94580SOL     OW85571   0.479   9.005   3.975
94580SOL    HW185572   0.554   9.026   3.919
94580SOL    HW285573   0.419   8.958   3.918
94581SOL     OW85574   8.748   9.967   1.421
94581SOL    HW185575   8.771   9.938   1.332
94581SOL    HW285576   8.768  10.061   1.421
94582SOL     OW85577  13.039   0.026  14.198
94582SOL    HW185578  13.108   0.036  14.133
94582SOL    HW285579  12.990   0.108  14.194
94583SOL     OW85580  11.191   8.816   2.638
94583SOL    HW185581  11.113   8.809   2.584
94583SOL    HW285582  11.260   8.775   2.586
94584SOL     OW85583  14.392   7.618  12.114
94584SOL    HW185584  14.379   7.555  12.185
94584SOL    HW285585  14.312   7.670  12.113
94585SOL     OW85586  10.821   5.544  11.487
94585SOL    HW185587  10.827   5.621  11.544
94585SOL    HW285588  10.893   5.554  11.425
94586SOL     OW85589   6.450   5.287  13.163
94586SOL    HW185590   6.434   5.372  13.123
94586SOL    HW285591   6.420   5.296  13.254
94587SOL     OW85592   9.857  10.213  13.737
94587SOL    HW185593   9.911  10.289  13.716
94587SOL    HW285594   9.871  10.152  13.664
94588SOL     OW85595   3.661   3.425   0.206
94588SOL    HW185596   3.737   3.445   0.151
94588SOL    HW285597   3.587   3.460   0.157
94589SOL     OW85598  12.218   9.257  11.890
94589SOL    HW185599  12.209   9.341  11.935
94589SOL    HW285600  12.161   9.265  11.813
94590SOL     OW85601   0.177   0.965  10.182
94590SOL    HW185602   0.095   0.951  10.229
94590SOL    HW285603   0.232   1.014  10.243
94591SOL     OW85604   9.291  11.008   3.744
94591SOL    HW185605   9.279  10.962   3.661
94591SOL    HW285606   9.361  11.071   3.726
94592SOL     OW85607  11.069  14.234  14.658
94592SOL    HW185608  11.070  14.328  14.676
94592SOL    HW285609  11.139  14.221  14.594
94593SOL     OW85610  11.989   1.687   8.106
94593SOL    HW185611  11.934   1.609   8.118
94593SOL    HW285612  11.932   1.749   8.061
94594SOL     OW85613   3.536  12.178   6.490
94594SOL    HW185614   3.469  12.193   6.557
94594SOL    HW285615   3.492  12.128   6.422
94595SOL     OW85616   9.846   1.800   1.952
94595SOL    HW185617   9.868   1.751   1.873
94595SOL    HW285618   9.751   1.802   1.954
94596SOL     OW85619  11.806   4.813   3.161
94596SOL    HW185620  11.887   4.792   3.116
94596SOL    HW285621  11.750   4.737   3.148
94597SOL     OW85622   4.322   6.416  11.236
94597SOL    HW185623   4.334   6.348  11.303
94597SOL    HW285624   4.306   6.367  11.155
94598SOL     OW85625   2.363   2.618   3.158
94598SOL    HW185626   2.326   2.594   3.074
94598SOL    HW285627   2.418   2.544   3.182
94599SOL     OW85628   0.109   9.540   1.058
94599SOL    HW185629   0.023   9.563   1.093
94599SOL    HW285630   0.167   9.542   1.134
94600SOL     OW85631   9.545   7.393   4.843
94600SOL    HW185632   9.534   7.331   4.916
94600SOL    HW285633   9.532   7.339   4.764
94601SOL     OW85634   0.570   0.385   8.080
94601SOL    HW185635   0.630   0.418   8.014
94601SOL    HW285636   0.606   0.300   8.105
94602SOL     OW85637  10.674  14.755   9.844
94602SOL    HW185638  10.729  14.772   9.768
94602SOL    HW285639  10.729  14.704   9.903
94603SOL     OW85640   4.880   3.059   8.949
94603SOL    HW185641   4.896   2.973   8.910
94603SOL    HW285642   4.963   3.105   8.941
94604SOL     OW85643   3.664   2.258  13.864
94604SOL    HW185644   3.740   2.299  13.906
94604SOL    HW285645   3.621   2.209  13.934
94605SOL     OW85646   0.293   0.717  14.489
94605SOL    HW185647   0.294   0.797  14.542
94605SOL    HW285648   0.200   0.696  14.481
94606SOL     OW85649   7.607  14.681  12.988
94606SOL    HW185650   7.539  14.613  12.983
94606SOL    HW285651   7.676  14.650  12.929
94607SOL     OW85652   1.004   3.778  13.731
94607SOL    HW185653   1.029   3.779  13.639
94607SOL    HW285654   0.934   3.843  13.738
94608SOL     OW85655   4.087   2.356   4.616
94608SOL    HW185656   4.081   2.435   4.562
94608SOL    HW285657   4.159   2.306   4.578
94609SOL     OW85658  12.634   0.234   3.382
94609SOL    HW185659  12.556   0.225   3.328
94609SOL    HW285660  12.703   0.261   3.322
94610SOL     OW85661   6.052   4.273   0.686
94610SOL    HW185662   6.109   4.254   0.611
94610SOL    HW285663   5.991   4.340   0.653
94611SOL     OW85664   2.065   9.007  11.177
94611SOL    HW185665   2.054   8.912  11.183
94611SOL    HW285666   2.022   9.041  11.256
94612SOL     OW85667   8.364  12.853  14.468
94612SOL    HW185668   8.381  12.803  14.388
94612SOL    HW285669   8.437  12.831  14.526
94613SOL     OW85670   5.096   6.332   3.336
94613SOL    HW185671   5.018   6.289   3.370
94613SOL    HW285672   5.063   6.390   3.267
94614SOL     OW85673   4.690   0.081   6.429
94614SOL    HW185674   4.652   0.042   6.507
94614SOL    HW285675   4.705   0.173   6.452
94615SOL     OW85676  12.123   9.485  12.008
94615SOL    HW185677  12.165   9.561  12.049
94615SOL    HW285678  12.058   9.457  12.072
94616SOL     OW85679   1.826  11.366   6.102
94616SOL    HW185680   1.839  11.276   6.131
94616SOL    HW285681   1.773  11.406   6.171
94617SOL     OW85682   9.651   3.957   9.785
94617SOL    HW185683   9.740   3.976   9.755
94617SOL    HW285684   9.599   3.956   9.705
94618SOL     OW85685   4.998   3.611   7.179
94618SOL    HW185686   5.069   3.675   7.182
94618SOL    HW285687   4.983   3.587   7.270
94619SOL     OW85688   3.174   8.913   6.480
94619SOL    HW185689   3.152   8.966   6.557
94619SOL    HW285690   3.269   8.916   6.475
94620SOL     OW85691   5.369  11.869   8.068
94620SOL    HW185692   5.289  11.911   8.099
94620SOL    HW285693   5.338  11.792   8.020
94621SOL     OW85694   6.567   6.320   7.256
94621SOL    HW185695   6.569   6.381   7.330
94621SOL    HW285696   6.531   6.372   7.184
94622SOL     OW85697  10.723   0.908   6.190
94622SOL    HW185698  10.693   0.887   6.101
94622SOL    HW285699  10.695   0.834   6.243
94623SOL     OW85700  14.046  13.421  13.641
94623SOL    HW185701  14.107  13.348  13.647
94623SOL    HW285702  14.099  13.493  13.606
94624SOL     OW85703  13.487   8.776  11.127
94624SOL    HW185704  13.502   8.859  11.082
94624SOL    HW285705  13.407   8.790  11.178
94625SOL     OW85706  14.054   2.323   1.360
94625SOL    HW185707  14.059   2.417   1.380
94625SOL    HW285708  14.045   2.281   1.446
94626SOL     OW85709   0.350   4.596  13.891
94626SOL    HW185710   0.406   4.557  13.958
94626SOL    HW285711   0.384   4.684  13.879
94627SOL     OW85712   4.661  14.292   2.634
94627SOL    HW185713   4.584  14.261   2.682
94627SOL    HW285714   4.626  14.332   2.554
94628SOL     OW85715   9.086   0.683   5.425
94628SOL    HW185716   9.060   0.643   5.342
94628SOL    HW285717   9.176   0.711   5.411
94629SOL     OW85718   8.238   2.022   8.004
94629SOL    HW185719   8.166   1.961   7.985
94629SOL    HW285720   8.236   2.033   8.099
94630SOL     OW85721  14.289   8.605   9.795
94630SOL    HW185722  14.321   8.608   9.704
94630SOL    HW285723  14.199   8.637   9.790
94631SOL     OW85724  12.510   3.270   2.692
94631SOL    HW185725  12.578   3.247   2.628
94631SOL    HW285726  12.429   3.274   2.641
94632SOL     OW85727   0.337   9.778  14.159
94632SOL    HW185728   0.336   9.695  14.208
94632SOL    HW285729   0.326   9.845  14.226
94633SOL     OW85730   3.884   0.937   1.300
94633SOL    HW185731   3.915   0.863   1.353
94633SOL    HW285732   3.822   0.899   1.238
94634SOL     OW85733   4.607   5.764  12.656
94634SOL    HW185734   4.594   5.852  12.690
94634SOL    HW285735   4.557   5.707  12.714
94635SOL     OW85736   0.326   3.323  10.799
94635SOL    HW185737   0.317   3.253  10.863
94635SOL    HW285738   0.397   3.294  10.741
94636SOL     OW85739   8.937  13.640   4.523
94636SOL    HW185740   8.884  13.720   4.531
94636SOL    HW285741   8.887  13.574   4.571
94637SOL     OW85742   7.566   6.473   3.685
94637SOL    HW185743   7.518   6.534   3.742
94637SOL    HW285744   7.498   6.432   3.632
94638SOL     OW85745   1.431   7.321  12.858
94638SOL    HW185746   1.440   7.323  12.763
94638SOL    HW285747   1.509   7.277  12.889
94639SOL     OW85748   1.347  10.315   3.759
94639SOL    HW185749   1.258  10.287   3.742
94639SOL    HW285750   1.355  10.314   3.854
94640SOL     OW85751   4.716   4.596   1.932
94640SOL    HW185752   4.729   4.681   1.891
94640SOL    HW285753   4.623   4.593   1.952
94641SOL     OW85754   6.063  14.256   8.513
94641SOL    HW185755   6.028  14.344   8.508
94641SOL    HW285756   6.043  14.216   8.428
94642SOL     OW85757   5.586   0.145   2.895
94642SOL    HW185758   5.586   0.190   2.811
94642SOL    HW285759   5.495   0.117   2.908
94643SOL     OW85760   5.727  12.370   7.864
94643SOL    HW185761   5.663  12.440   7.873
94643SOL    HW285762   5.810  12.409   7.892
94644SOL     OW85763   0.876   2.406   9.280
94644SOL    HW185764   0.908   2.329   9.327
94644SOL    HW285765   0.928   2.410   9.200
94645SOL     OW85766   1.509  11.872  10.510
94645SOL    HW185767   1.526  11.817  10.433
94645SOL    HW285768   1.484  11.957  10.473
94646SOL     OW85769   1.761   8.352   7.814
94646SOL    HW185770   1.718   8.428   7.852
94646SOL    HW285771   1.691   8.290   7.798
94647SOL     OW85772   8.513  13.938   8.478
94647SOL    HW185773   8.555  13.852   8.471
94647SOL    HW285774   8.484  13.943   8.569
94648SOL     OW85775  10.268  12.203   3.261
94648SOL    HW185776  10.295  12.171   3.347
94648SOL    HW285777  10.183  12.163   3.246
94649SOL     OW85778   5.923   7.904  11.763
94649SOL    HW185779   5.918   7.997  11.744
94649SOL    HW285780   5.848   7.866  11.718
94650SOL     OW85781   4.361   6.860   5.134
94650SOL    HW185782   4.314   6.924   5.080
94650SOL    HW285783   4.336   6.881   5.224
94651SOL     OW85784   9.342  12.757  12.340
94651SOL    HW185785   9.313  12.700  12.412
94651SOL    HW285786   9.437  12.756  12.346
94652SOL     OW85787   9.294   4.732   6.747
94652SOL    HW185788   9.285   4.788   6.824
94652SOL    HW285789   9.204   4.705   6.726
94653SOL     OW85790  13.109   1.186  10.421
94653SOL    HW185791  13.104   1.133  10.342
94653SOL    HW285792  13.192   1.162  10.462
94654SOL     OW85793   0.917   9.837  13.764
94654SOL    HW185794   0.835   9.874  13.730
94654SOL    HW285795   0.891   9.752  13.800
94655SOL     OW85796   8.382   2.026   5.541
94655SOL    HW185797   8.317   2.097   5.533
94655SOL    HW285798   8.435   2.051   5.616
94656SOL     OW85799  10.556   3.265   9.070
94656SOL    HW185800  10.591   3.176   9.074
94656SOL    HW285801  10.620   3.318   9.118
94657SOL     OW85802  11.302   3.966  12.275
94657SOL    HW185803  11.346   3.901  12.330
94657SOL    HW285804  11.231   3.999  12.329
94658SOL     OW85805  13.461   5.441   9.501
94658SOL    HW185806  13.446   5.421   9.593
94658SOL    HW285807  13.457   5.356   9.457
94659SOL     OW85808   8.038   5.771   5.358
94659SOL    HW185809   7.979   5.846   5.356
94659SOL    HW285810   7.988   5.698   5.322
94660SOL     OW85811  12.839   1.151   8.000
94660SOL    HW185812  12.878   1.231   7.965
94660SOL    HW285813  12.902   1.083   7.980
94661SOL     OW85814   9.802   4.747   7.432
94661SOL    HW185815   9.722   4.739   7.483
94661SOL    HW285816   9.781   4.812   7.364
94662SOL     OW85817  12.531   6.692   8.146
94662SOL    HW185818  12.624   6.675   8.129
94662SOL    HW285819  12.520   6.671   8.239
94663SOL     OW85820   0.078  11.332  12.388
94663SOL    HW185821   0.136  11.265  12.425
94663SOL    HW285822   0.049  11.295  12.305
94664SOL     OW85823  11.856   6.140   5.695
94664SOL    HW185824  11.876   6.133   5.602
94664SOL    HW285825  11.933   6.106   5.739
94665SOL     OW85826   8.628   0.690   8.158
94665SOL    HW185827   8.649   0.598   8.141
94665SOL    HW285828   8.712   0.730   8.180
94666SOL     OW85829   6.526  11.241   9.616
94666SOL    HW185830   6.494  11.173   9.557
94666SOL    HW285831   6.586  11.294   9.562
94667SOL     OW85832   2.837   8.337  12.463
94667SOL    HW185833   2.778   8.271  12.498
94667SOL    HW285834   2.790   8.420  12.473
94668SOL     OW85835   1.445   4.450   2.213
94668SOL    HW185836   1.386   4.469   2.285
94668SOL    HW285837   1.403   4.378   2.165
94669SOL     OW85838  10.184   4.779   6.123
94669SOL    HW185839  10.240   4.757   6.198
94669SOL    HW285840  10.213   4.721   6.053
94670SOL     OW85841  10.665  11.381   7.558
94670SOL    HW185842  10.759  11.377   7.576
94670SOL    HW285843  10.623  11.358   7.640
94671SOL     OW85844  13.147   4.577   3.867
94671SOL    HW185845  13.226   4.625   3.893
94671SOL    HW285846  13.076   4.640   3.878
94672SOL     OW85847   6.188   2.326  14.788
94672SOL    HW185848   6.135   2.405  14.793
94672SOL    HW285849   6.214   2.321  14.696
94673SOL     OW85850   7.132   1.761  13.974
94673SOL    HW185851   7.141   1.671  13.943
94673SOL    HW285852   7.059   1.796  13.923
94674SOL     OW85853   2.745   7.894  13.752
94674SOL    HW185854   2.672   7.932  13.801
94674SOL    HW285855   2.788   7.969  13.711
94675SOL     OW85856   8.795   1.244  12.131
94675SOL    HW185857   8.839   1.189  12.195
94675SOL    HW285858   8.820   1.208  12.046
94676SOL     OW85859   5.574   4.647   9.580
94676SOL    HW185860   5.534   4.675   9.498
94676SOL    HW285861   5.627   4.571   9.556
94677SOL     OW85862   1.707   1.780  14.114
94677SOL    HW185863   1.647   1.707  14.125
94677SOL    HW285864   1.731   1.778  14.022
94678SOL     OW85865  13.209  14.472   6.961
94678SOL    HW185866  13.132  14.527   6.975
94678SOL    HW285867  13.269  14.527   6.911
94679SOL     OW85868   8.463   3.325   5.836
94679SOL    HW185869   8.388   3.284   5.879
94679SOL    HW285870   8.538   3.301   5.890
94680SOL     OW85871  10.557   9.049   8.398
94680SOL    HW185872  10.544   9.131   8.445
94680SOL    HW285873  10.493   9.052   8.326
94681SOL     OW85874  12.507   0.733  13.102
94681SOL    HW185875  12.573   0.789  13.061
94681SOL    HW285876  12.557   0.663  13.143
94682SOL     OW85877   4.175  11.468  10.586
94682SOL    HW185878   4.201  11.426  10.504
94682SOL    HW285879   4.218  11.416  10.654
94683SOL     OW85880  12.348  14.074  11.868
94683SOL    HW185881  12.283  14.132  11.827
94683SOL    HW285882  12.352  13.998  11.810
94684SOL     OW85883   1.562  10.564  11.636
94684SOL    HW185884   1.583  10.655  11.618
94684SOL    HW285885   1.548  10.561  11.731
94685SOL     OW85886  13.462   2.113   9.722
94685SOL    HW185887  13.526   2.108   9.792
94685SOL    HW285888  13.504   2.167   9.655
94686SOL     OW85889   7.288  12.232  10.860
94686SOL    HW185890   7.360  12.288  10.832
94686SOL    HW285891   7.221  12.293  10.892
94687SOL     OW85892   3.259   1.971   1.823
94687SOL    HW185893   3.257   2.063   1.847
94687SOL    HW285894   3.286   1.971   1.731
94688SOL     OW85895   4.157   2.982  12.873
94688SOL    HW185896   4.201   2.955  12.792
94688SOL    HW285897   4.144   3.076  12.863
94689SOL     OW85898   1.998   6.020   2.742
94689SOL    HW185899   2.034   5.961   2.676
94689SOL    HW285900   1.904   6.023   2.723
94690SOL     OW85901   9.308   6.047  11.703
94690SOL    HW185902   9.345   5.963  11.732
94690SOL    HW285903   9.271   6.086  11.782
94691SOL     OW85904  12.212   0.168   4.664
94691SOL    HW185905  12.303   0.178   4.691
94691SOL    HW285906  12.212   0.088   4.611
94692SOL     OW85907   1.564   0.254  11.904
94692SOL    HW185908   1.506   0.293  11.838
94692SOL    HW285909   1.557   0.160  11.889
94693SOL     OW85910   6.894  10.659  12.924
94693SOL    HW185911   6.806  10.627  12.907
94693SOL    HW285912   6.942  10.643  12.843
94694SOL     OW85913   6.678   3.706  13.733
94694SOL    HW185914   6.694   3.735  13.823
94694SOL    HW285915   6.724   3.622  13.728
94695SOL     OW85916  12.150   5.937  12.570
94695SOL    HW185917  12.126   5.845  12.561
94695SOL    HW285918  12.068   5.981  12.594
94696SOL     OW85919  11.306   9.874   6.337
94696SOL    HW185920  11.340   9.925   6.411
94696SOL    HW285921  11.211   9.890   6.340
94697SOL     OW85922   8.338  10.777   8.296
94697SOL    HW185923   8.283  10.708   8.333
94697SOL    HW285924   8.340  10.758   8.202
94698SOL     OW85925   1.586  10.478   6.447
94698SOL    HW185926   1.601  10.497   6.539
94698SOL    HW285927   1.671  10.449   6.414
94699SOL     OW85928   1.198   3.316   4.415
94699SOL    HW185929   1.141   3.341   4.342
94699SOL    HW285930   1.261   3.255   4.376
94700SOL     OW85931   7.011  13.457  13.233
94700SOL    HW185932   7.089  13.498  13.194
94700SOL    HW285933   7.040  13.369  13.256
94701SOL     OW85934   1.634   6.380   6.747
94701SOL    HW185935   1.586   6.348   6.671
94701SOL    HW285936   1.573   6.373   6.820
94702SOL     OW85937   5.672  12.224  11.099
94702SOL    HW185938   5.730  12.149  11.113
94702SOL    HW285939   5.603  12.190  11.042
94703SOL     OW85940   6.697   5.506   7.538
94703SOL    HW185941   6.741   5.506   7.453
94703SOL    HW285942   6.758   5.550   7.597
94704SOL     OW85943  13.546   9.031   5.586
94704SOL    HW185944  13.477   9.091   5.613
94704SOL    HW285945  13.615   9.041   5.652
94705SOL     OW85946  10.580   5.223   5.792
94705SOL    HW185947  10.613   5.290   5.852
94705SOL    HW285948  10.585   5.142   5.842
94706SOL     OW85949   2.325  12.013   8.550
94706SOL    HW185950   2.319  12.046   8.460
94706SOL    HW285951   2.238  12.028   8.587
94707SOL     OW85952   6.345   9.392  10.758
94707SOL    HW185953   6.278   9.459  10.747
94707SOL    HW285954   6.299   9.309  10.744
94708SOL     OW85955   7.928  10.469   7.712
94708SOL    HW185956   7.980  10.496   7.787
94708SOL    HW285957   7.838  10.494   7.735
94709SOL     OW85958   4.294   3.824   4.098
94709SOL    HW185959   4.235   3.880   4.046
94709SOL    HW285960   4.243   3.802   4.176
94710SOL     OW85961   9.588  11.479   2.049
94710SOL    HW185962   9.503  11.521   2.048
94710SOL    HW285963   9.574  11.395   2.005
94711SOL     OW85964   1.896  10.327   8.194
94711SOL    HW185965   1.829  10.297   8.132
94711SOL    HW285966   1.874  10.419   8.211
94712SOL     OW85967   3.602   9.713   8.128
94712SOL    HW185968   3.594   9.759   8.044
94712SOL    HW285969   3.655   9.772   8.182
94713SOL     OW85970   5.480   3.602   0.376
94713SOL    HW185971   5.439   3.524   0.339
94713SOL    HW285972   5.488   3.583   0.470
94714SOL     OW85973  12.241  13.896  11.196
94714SOL    HW185974  12.263  13.856  11.112
94714SOL    HW285975  12.320  13.942  11.222
94715SOL     OW85976   2.938   8.705   0.076
94715SOL    HW185977   2.928   8.752   0.160
94715SOL    HW285978   2.859   8.651   0.070
94716SOL     OW85979   7.163  13.136   9.586
94716SOL    HW185980   7.143  13.104   9.674
94716SOL    HW285981   7.218  13.067   9.548
94717SOL     OW85982  12.212  10.806   7.278
94717SOL    HW185983  12.139  10.745   7.279
94717SOL    HW285984  12.191  10.870   7.346
94718SOL     OW85985   6.055   1.361  13.138
94718SOL    HW185986   5.962   1.339  13.151
94718SOL    HW285987   6.057   1.404  13.053
94719SOL     OW85988  10.434  11.059   7.876
94719SOL    HW185989  10.360  11.118   7.865
94719SOL    HW285990  10.400  10.986   7.928
94720SOL     OW85991   4.795  10.531   1.488
94720SOL    HW185992   4.809  10.558   1.397
94720SOL    HW285993   4.709  10.568   1.510
94721SOL     OW85994   4.710  10.394   5.139
94721SOL    HW185995   4.654  10.402   5.215
94721SOL    HW285996   4.793  10.435   5.165
94722SOL     OW85997  10.420   2.453   9.191
94722SOL    HW185998  10.405   2.392   9.119
94722SOL    HW285999  10.357   2.523   9.177
94723SOL     OW86000  11.984   6.217   7.520
94723SOL    HW186001  12.077   6.239   7.525
94723SOL    HW286002  11.964   6.180   7.606
94724SOL     OW86003   5.481   3.632   5.706
94724SOL    HW186004   5.554   3.574   5.684
94724SOL    HW286005   5.456   3.673   5.622
94725SOL     OW86006  14.182  10.694   8.346
94725SOL    HW186007  14.140  10.766   8.393
94725SOL    HW286008  14.123  10.619   8.360
94726SOL     OW86009   8.586   5.333   3.820
94726SOL    HW186010   8.653   5.342   3.753
94726SOL    HW286011   8.632   5.349   3.902
94727SOL     OW86012  11.249  12.786   6.466
94727SOL    HW186013  11.187  12.844   6.422
94727SOL    HW286014  11.199  12.707   6.484
94728SOL     OW86015   2.161   4.883   1.893
94728SOL    HW186016   2.156   4.978   1.882
94728SOL    HW286017   2.093   4.862   1.956
94729SOL     OW86018  12.496  11.562   9.681
94729SOL    HW186019  12.514  11.632   9.617
94729SOL    HW286020  12.554  11.491   9.655
94730SOL     OW86021   9.514  10.595   5.668
94730SOL    HW186022   9.510  10.516   5.615
94730SOL    HW286023   9.536  10.565   5.756
94731SOL     OW86024   9.963   2.363   6.594
94731SOL    HW186025   9.870   2.352   6.578
94731SOL    HW286026   9.990   2.283   6.640
94732SOL     OW86027  12.871   2.545  10.720
94732SOL    HW186028  12.957   2.579  10.694
94732SOL    HW286029  12.808   2.605  10.681
94733SOL     OW86030   2.060   6.666   6.005
94733SOL    HW186031   2.106   6.701   6.081
94733SOL    HW286032   2.117   6.687   5.931
94734SOL     OW86033  13.023  12.087   2.222
94734SOL    HW186034  13.033  11.995   2.249
94734SOL    HW286035  12.929  12.099   2.215
94735SOL     OW86036   6.673   3.182  10.779
94735SOL    HW186037   6.746   3.244  10.785
94735SOL    HW286038   6.703   3.105  10.826
94736SOL     OW86039   5.689   1.312  11.469
94736SOL    HW186040   5.713   1.390  11.419
94736SOL    HW286041   5.623   1.343  11.530
94737SOL     OW86042   8.934  14.003  10.095
94737SOL    HW186043   9.022  13.972  10.115
94737SOL    HW286044   8.876  13.940  10.139
94738SOL     OW86045   9.301  12.659  11.593
94738SOL    HW186046   9.388  12.636  11.625
94738SOL    HW286047   9.267  12.579  11.554
94739SOL     OW86048   8.226   4.821  12.834
94739SOL    HW186049   8.187   4.896  12.878
94739SOL    HW286050   8.186   4.745  12.876
94740SOL     OW86051   7.913   0.613  11.907
94740SOL    HW186052   7.837   0.669  11.895
94740SOL    HW286053   7.970   0.633  11.832
94741SOL     OW86054   9.990  11.828   9.415
94741SOL    HW186055   9.900  11.849   9.389
94741SOL    HW286056  10.044  11.883   9.359
94742SOL     OW86057   1.154   3.156  12.279
94742SOL    HW186058   1.071   3.148  12.232
94742SOL    HW286059   1.129   3.177  12.369
94743SOL     OW86060   2.917   2.078   5.309
94743SOL    HW186061   2.826   2.081   5.337
94743SOL    HW286062   2.962   2.027   5.378
94744SOL     OW86063  11.873   3.351   3.627
94744SOL    HW186064  11.934   3.302   3.682
94744SOL    HW286065  11.820   3.401   3.689
94745SOL     OW86066   0.239  14.096   9.722
94745SOL    HW186067   0.232  14.138   9.808
94745SOL    HW286068   0.188  14.152   9.663
94746SOL     OW86069  13.942  12.386  13.994
94746SOL    HW186070  13.954  12.434  13.912
94746SOL    HW286071  13.883  12.314  13.972
94747SOL     OW86072   5.021   4.713  10.191
94747SOL    HW186073   5.007   4.621  10.168
94747SOL    HW286074   5.017   4.759  10.107
94748SOL     OW86075  10.755  14.240  14.300
94748SOL    HW186076  10.695  14.213  14.370
94748SOL    HW286077  10.705  14.227  14.219
94749SOL     OW86078   8.559   0.119   8.695
94749SOL    HW186079   8.629   0.074   8.648
94749SOL    HW286080   8.503   0.048   8.729
94750SOL     OW86081  14.569  11.441  10.718
94750SOL    HW186082  14.656  11.461  10.751
94750SOL    HW286083  14.535  11.524  10.686
94751SOL     OW86084  14.170  14.193  13.457
94751SOL    HW186085  14.099  14.253  13.481
94751SOL    HW286086  14.249  14.246  13.461
94752SOL     OW86087   8.122   7.355   1.402
94752SOL    HW186088   8.044   7.322   1.358
94752SOL    HW286089   8.134   7.444   1.367
94753SOL     OW86090   8.936  14.873  14.605
94753SOL    HW186091   8.863  14.822  14.640
94753SOL    HW286092   8.935   0.078  14.656
94754SOL     OW86093   1.131   2.295   8.859
94754SOL    HW186094   1.160   2.364   8.798
94754SOL    HW286095   1.190   2.222   8.842
94755SOL     OW86096   9.539  13.572  10.672
94755SOL    HW186097   9.626  13.601  10.700
94755SOL    HW286098   9.551  13.481  10.646
94756SOL     OW86099   4.480   2.500   6.512
94756SOL    HW186100   4.482   2.533   6.422
94756SOL    HW286101   4.387   2.484   6.529
94757SOL     OW86102   1.841   9.612   4.388
94757SOL    HW186103   1.826   9.698   4.349
94757SOL    HW286104   1.832   9.550   4.316
94758SOL     OW86105   0.665   2.514   8.712
94758SOL    HW186106   0.722   2.460   8.656
94758SOL    HW286107   0.627   2.451   8.774
94759SOL     OW86108   8.016   4.678  13.345
94759SOL    HW186109   8.092   4.732  13.323
94759SOL    HW286110   7.977   4.720  13.421
94760SOL     OW86111   6.628  12.160   6.316
94760SOL    HW186112   6.656  12.068   6.323
94760SOL    HW286113   6.709  12.208   6.300
94761SOL     OW86114  10.011   9.069   9.780
94761SOL    HW186115  10.085   9.108   9.732
94761SOL    HW286116   9.941   9.134   9.774
94762SOL     OW86117   0.960  10.700  13.355
94762SOL    HW186118   1.041  10.748  13.370
94762SOL    HW286119   0.897  10.767  13.328
94763SOL     OW86120  14.843   4.253   3.288
94763SOL    HW186121  14.808   4.171   3.252
94763SOL    HW286122  14.824   4.319   3.221
94764SOL     OW86123  13.839   6.616   9.970
94764SOL    HW186124  13.834   6.711   9.977
94764SOL    HW286125  13.896   6.601   9.894
94765SOL     OW86126   3.383  11.061   7.144
94765SOL    HW186127   3.402  10.993   7.209
94765SOL    HW286128   3.445  11.044   7.073
94766SOL     OW86129  14.853  14.813   4.979
94766SOL    HW186130  14.855  14.729   5.024
94766SOL    HW286131   0.046  14.865   5.022
94767SOL     OW86132   8.560   0.603  10.633
94767SOL    HW186133   8.494   0.644  10.576
94767SOL    HW286134   8.565   0.512  10.603
94768SOL     OW86135   4.654  11.652   6.350
94768SOL    HW186136   4.676  11.716   6.417
94768SOL    HW286137   4.688  11.569   6.383
94769SOL     OW86138  10.623   6.430  11.657
94769SOL    HW186139  10.551   6.443  11.596
94769SOL    HW286140  10.633   6.335  11.662
94770SOL     OW86141   7.939   3.688  13.880
94770SOL    HW186142   7.847   3.710  13.872
94770SOL    HW286143   7.941   3.592  13.878
94771SOL     OW86144   1.665   9.500   0.128
94771SOL    HW186145   1.723   9.536   0.196
94771SOL    HW286146   1.620   9.428   0.171
94772SOL     OW86147   9.895   6.330   1.669
94772SOL    HW186148   9.939   6.267   1.726
94772SOL    HW286149   9.815   6.353   1.716
94773SOL     OW86150   9.534   4.222   2.249
94773SOL    HW186151   9.592   4.235   2.174
94773SOL    HW286152   9.471   4.156   2.219
94774SOL     OW86153  14.470  11.622  13.477
94774SOL    HW186154  14.520  11.545  13.504
94774SOL    HW286155  14.482  11.685  13.548
94775SOL     OW86156   0.884  12.378  14.031
94775SOL    HW186157   0.964  12.326  14.026
94775SOL    HW286158   0.817  12.324  13.987
94776SOL     OW86159  14.380  14.302   1.085
94776SOL    HW186160  14.440  14.375   1.102
94776SOL    HW286161  14.309  14.341   1.034
94777SOL     OW86162  10.591  14.201  14.086
94777SOL    HW186163  10.596  14.116  14.043
94777SOL    HW286164  10.504  14.203  14.125
94778SOL     OW86165   6.070   4.301   8.458
94778SOL    HW186166   6.136   4.356   8.502
94778SOL    HW286167   5.994   4.358   8.448
94779SOL     OW86168   1.388  14.779   7.705
94779SOL    HW186169   1.373  14.702   7.761
94779SOL    HW286170   1.383  14.745   7.616
94780SOL     OW86171   1.674   8.315   7.299
94780SOL    HW186172   1.592   8.276   7.330
94780SOL    HW286173   1.661   8.324   7.204
94781SOL     OW86174  11.608   7.529   5.422
94781SOL    HW186175  11.658   7.449   5.403
94781SOL    HW286176  11.523   7.514   5.379
94782SOL     OW86177   4.978   0.848   1.654
94782SOL    HW186178   4.907   0.785   1.666
94782SOL    HW286179   5.052   0.810   1.701
94783SOL     OW86180  11.626   5.647   8.171
94783SOL    HW186181  11.714   5.615   8.152
94783SOL    HW286182  11.628   5.739   8.146
94784SOL     OW86183   5.966   1.203   3.803
94784SOL    HW186184   5.984   1.290   3.768
94784SOL    HW286185   6.031   1.146   3.763
94785SOL     OW86186  13.065   3.379   6.111
94785SOL    HW186187  13.015   3.438   6.167
94785SOL    HW286188  13.155   3.411   6.117
94786SOL     OW86189  14.490   7.762   5.239
94786SOL    HW186190  14.474   7.697   5.307
94786SOL    HW286191  14.544   7.717   5.175
94787SOL     OW86192   9.763   0.861   6.557
94787SOL    HW186193   9.699   0.922   6.593
94787SOL    HW286194   9.719   0.824   6.480
94788SOL     OW86195   1.909  14.674  13.211
94788SOL    HW186196   1.819  14.649  13.233
94788SOL    HW286197   1.961  14.647  13.287
94789SOL     OW86198   3.266   9.354   2.212
94789SOL    HW186199   3.342   9.303   2.241
94789SOL    HW286200   3.301   9.442   2.195
94790SOL     OW86201   4.460   1.838  10.938
94790SOL    HW186202   4.407   1.834  10.859
94790SOL    HW286203   4.532   1.898  10.916
94791SOL     OW86204   6.360  14.681   2.157
94791SOL    HW186205   6.388  14.772   2.158
94791SOL    HW286206   6.326  14.667   2.068
94792SOL     OW86207  13.566  11.205  13.480
94792SOL    HW186208  13.630  11.154  13.530
94792SOL    HW286209  13.485  11.153  13.485
94793SOL     OW86210   7.211   9.584   5.925
94793SOL    HW186211   7.185   9.497   5.957
94793SOL    HW286212   7.304   9.592   5.949
94794SOL     OW86213   0.814  11.689   9.098
94794SOL    HW186214   0.751  11.617   9.103
94794SOL    HW286215   0.784  11.742   9.024
94795SOL     OW86216  13.634   3.049   8.136
94795SOL    HW186217  13.687   2.969   8.143
94795SOL    HW286218  13.684   3.106   8.077
94796SOL     OW86219   9.165   0.363   3.312
94796SOL    HW186220   9.100   0.428   3.285
94796SOL    HW286221   9.189   0.317   3.232
94797SOL     OW86222   5.927  12.251  13.188
94797SOL    HW186223   5.882  12.318  13.238
94797SOL    HW286224   5.880  12.246  13.105
94798SOL     OW86225  11.959   4.653   4.689
94798SOL    HW186226  11.869   4.643   4.658
94798SOL    HW286227  12.009   4.674   4.611
94799SOL     OW86228  12.517   0.331  13.742
94799SOL    HW186229  12.502   0.425  13.750
94799SOL    HW286230  12.543   0.303  13.830
94800SOL     OW86231   8.952   9.623  10.780
94800SOL    HW186232   8.894   9.693  10.751
94800SOL    HW286233   8.912   9.543  10.746
94801SOL     OW86234   8.221   6.796   6.253
94801SOL    HW186235   8.133   6.774   6.224
94801SOL    HW286236   8.230   6.890   6.235
94802SOL     OW86237   6.271   8.200  11.926
94802SOL    HW186238   6.211   8.201  11.852
94802SOL    HW286239   6.219   8.164  11.998
94803SOL     OW86240  10.280  10.604   7.483
94803SOL    HW186241  10.257  10.671   7.419
94803SOL    HW286242  10.208  10.540   7.478
94804SOL     OW86243   7.928  11.882  14.321
94804SOL    HW186244   7.954  11.796  14.289
94804SOL    HW286245   7.833  11.885  14.309
94805SOL     OW86246  13.509   3.732   6.055
94805SOL    HW186247  13.556   3.770   5.980
94805SOL    HW286248  13.434   3.790   6.068
94806SOL     OW86249   7.036   5.766   6.509
94806SOL    HW186250   7.032   5.847   6.459
94806SOL    HW286251   7.080   5.704   6.452
94807SOL     OW86252  13.076   1.880   5.057
94807SOL    HW186253  13.020   1.929   5.117
94807SOL    HW286254  13.137   1.946   5.022
94808SOL     OW86255  12.914  13.106  12.026
94808SOL    HW186256  12.972  13.173  11.990
94808SOL    HW286257  12.828  13.150  12.031
94809SOL     OW86258   2.661   2.345   5.087
94809SOL    HW186259   2.603   2.319   5.015
94809SOL    HW286260   2.624   2.301   5.164
94810SOL     OW86261   4.841   7.804   7.554
94810SOL    HW186262   4.815   7.727   7.505
94810SOL    HW286263   4.872   7.866   7.488
94811SOL     OW86264   8.101   2.940   9.306
94811SOL    HW186265   8.030   2.920   9.367
94811SOL    HW286266   8.124   3.031   9.325
94812SOL     OW86267  10.953   7.987  10.772
94812SOL    HW186268  10.929   7.904  10.814
94812SOL    HW286269  11.043   8.004  10.800
94813SOL     OW86270  14.686   8.416   3.251
94813SOL    HW186271  14.627   8.459   3.313
94813SOL    HW286272  14.628   8.385   3.181
94814SOL     OW86273  10.584   0.930  13.398
94814SOL    HW186274  10.585   0.885  13.313
94814SOL    HW286275  10.515   0.886  13.448
94815SOL     OW86276  11.420  11.565   5.914
94815SOL    HW186277  11.501  11.605   5.881
94815SOL    HW286278  11.398  11.617   5.991
94816SOL     OW86279   3.927  11.672  14.286
94816SOL    HW186280   3.941  11.760  14.250
94816SOL    HW286281   4.014  11.632  14.285
94817SOL     OW86282  14.670   9.367  10.096
94817SOL    HW186283  14.584   9.384  10.135
94817SOL    HW286284  14.651   9.313  10.019
94818SOL     OW86285  10.467   3.794   2.811
94818SOL    HW186286  10.382   3.756   2.787
94818SOL    HW286287  10.449   3.886   2.825
94819SOL     OW86288   9.252   0.219   8.661
94819SOL    HW186289   9.322   0.216   8.595
94819SOL    HW286290   9.287   0.168   8.734
94820SOL     OW86291  11.751   9.088   7.180
94820SOL    HW186292  11.840   9.099   7.213
94820SOL    HW286293  11.703   9.052   7.255
94821SOL     OW86294   6.570  10.685  10.215
94821SOL    HW186295   6.598  10.632  10.289
94821SOL    HW286296   6.592  10.633  10.138
94822SOL     OW86297   4.194   0.634  13.020
94822SOL    HW186298   4.241   0.695  12.962
94822SOL    HW286299   4.174   0.686  13.098
94823SOL     OW86300   4.575   1.105  13.426
94823SOL    HW186301   4.503   1.049  13.455
94823SOL    HW286302   4.533   1.171  13.371
94824SOL     OW86303   4.159   7.385  14.604
94824SOL    HW186304   4.241   7.434  14.603
94824SOL    HW286305   4.090   7.452  14.602
94825SOL     OW86306   9.595   0.672   1.524
94825SOL    HW186307   9.686   0.688   1.551
94825SOL    HW286308   9.600   0.595   1.468
94826SOL     OW86309  14.167   8.839   1.161
94826SOL    HW186310  14.077   8.815   1.139
94826SOL    HW286311  14.205   8.868   1.078
94827SOL     OW86312   5.000  14.059   1.634
94827SOL    HW186313   4.958  14.007   1.566
94827SOL    HW286314   5.062  14.115   1.587
94828SOL     OW86315  11.615   2.573   4.694
94828SOL    HW186316  11.666   2.493   4.703
94828SOL    HW286317  11.528   2.544   4.667
94829SOL     OW86318   4.230  12.417   4.734
94829SOL    HW186319   4.302  12.396   4.675
94829SOL    HW286320   4.209  12.333   4.777
94830SOL     OW86321   8.833   4.910   4.781
94830SOL    HW186322   8.850   4.881   4.870
94830SOL    HW286323   8.867   4.839   4.726
94831SOL     OW86324  14.558  13.919  10.462
94831SOL    HW186325  14.602  13.993  10.504
94831SOL    HW286326  14.621  13.888  10.397
94832SOL     OW86327   9.344   2.846  14.446
94832SOL    HW186328   9.406   2.780  14.477
94832SOL    HW286329   9.258   2.804  14.451
94833SOL     OW86330   9.777   7.307   4.364
94833SOL    HW186331   9.713   7.258   4.312
94833SOL    HW286332   9.804   7.244   4.432
94834SOL     OW86333   9.645  12.689   1.238
94834SOL    HW186334   9.717  12.640   1.276
94834SOL    HW286335   9.665  12.781   1.259
94835SOL     OW86336   1.661  13.885   4.641
94835SOL    HW186337   1.603  13.952   4.606
94835SOL    HW286338   1.737  13.886   4.583
94836SOL     OW86339  13.322   4.026   0.046
94836SOL    HW186340  13.373   4.013  14.842
94836SOL    HW286341  13.231   4.018   0.018
94837SOL     OW86342   2.225   8.443   6.487
94837SOL    HW186343   2.214   8.430   6.392
94837SOL    HW286344   2.275   8.366   6.515
94838SOL     OW86345   5.011  11.354   5.648
94838SOL    HW186346   4.920  11.380   5.661
94838SOL    HW286347   5.011  11.260   5.666
94839SOL     OW86348   9.783   6.678   3.820
94839SOL    HW186349   9.759   6.659   3.730
94839SOL    HW286350   9.718   6.741   3.850
94840SOL     OW86351  12.611   3.725   5.211
94840SOL    HW186352  12.603   3.756   5.121
94840SOL    HW286353  12.544   3.774   5.260
94841SOL     OW86354   0.106   9.775  12.819
94841SOL    HW186355   0.086   9.786  12.726
94841SOL    HW286356   0.020   9.770  12.861
94842SOL     OW86357  13.002   0.702  11.297
94842SOL    HW186358  12.911   0.723  11.318
94842SOL    HW286359  13.053   0.770  11.341
94843SOL     OW86360  10.023  10.485   0.158
94843SOL    HW186361  10.048  10.433   0.234
94843SOL    HW286362  10.072  10.447   0.085
94844SOL     OW86363   4.670  13.722   5.077
94844SOL    HW186364   4.735  13.716   5.007
94844SOL    HW286365   4.609  13.651   5.060
94845SOL     OW86366   8.428   5.279  13.472
94845SOL    HW186367   8.392   5.190  13.469
94845SOL    HW286368   8.369   5.331  13.417
94846SOL     OW86369   9.368   0.190  11.015
94846SOL    HW186370   9.444   0.243  10.992
94846SOL    HW286371   9.359   0.127  10.944
94847SOL     OW86372  12.011   0.535   3.028
94847SOL    HW186373  12.002   0.446   2.994
94847SOL    HW286374  11.923   0.573   3.018
94848SOL     OW86375   0.250   7.930   6.326
94848SOL    HW186376   0.327   7.932   6.383
94848SOL    HW286377   0.211   7.844   6.340
94849SOL     OW86378  13.670   2.983   2.122
94849SOL    HW186379  13.676   2.894   2.088
94849SOL    HW286380  13.612   3.029   2.060
94850SOL     OW86381  12.096  12.588  10.932
94850SOL    HW186382  12.108  12.602  10.838
94850SOL    HW286383  12.015  12.634  10.953
94851SOL     OW86384   9.452  14.010   3.896
94851SOL    HW186385   9.437  13.922   3.861
94851SOL    HW286386   9.536  14.003   3.943
94852SOL     OW86387   4.537   3.203  10.124
94852SOL    HW186388   4.574   3.290  10.112
94852SOL    HW286389   4.576   3.150  10.054
94853SOL     OW86390  11.649   1.347   4.679
94853SOL    HW186391  11.620   1.276   4.737
94853SOL    HW286392  11.700   1.405   4.735
94854SOL     OW86393   1.973   5.668   7.820
94854SOL    HW186394   1.892   5.630   7.853
94854SOL    HW286395   2.040   5.602   7.838
94855SOL     OW86396   9.141   9.832  11.602
94855SOL    HW186397   9.046   9.834  11.618
94855SOL    HW286398   9.175   9.905  11.654
94856SOL     OW86399   4.037  11.991   6.754
94856SOL    HW186400   4.128  11.970   6.730
94856SOL    HW286401   4.046  12.052   6.827
94857SOL     OW86402   7.308   2.115   6.803
94857SOL    HW186403   7.347   2.154   6.881
94857SOL    HW286404   7.335   2.173   6.732
94858SOL     OW86405   4.841  13.289   4.223
94858SOL    HW186406   4.909  13.333   4.172
94858SOL    HW286407   4.765  13.287   4.164
94859SOL     OW86408  10.663   8.449   0.898
94859SOL    HW186409  10.631   8.504   0.969
94859SOL    HW286410  10.746   8.415   0.930
94860SOL     OW86411   9.276   5.202  12.033
94860SOL    HW186412   9.339   5.258  12.078
94860SOL    HW286413   9.197   5.206  12.087
94861SOL     OW86414   8.147   6.534   7.633
94861SOL    HW186415   8.064   6.503   7.669
94861SOL    HW286416   8.193   6.571   7.708
94862SOL     OW86417   6.943   0.405   0.359
94862SOL    HW186418   6.893   0.437   0.435
94862SOL    HW286419   6.948   0.480   0.300
94863SOL     OW86420   7.561  14.099   0.006
94863SOL    HW186421   7.569  14.018  14.832
94863SOL    HW286422   7.523  14.161  14.820
94864SOL     OW86423   5.299   0.061   9.719
94864SOL    HW186424   5.221   0.109   9.689
94864SOL    HW286425   5.355   0.055   9.642
94865SOL     OW86426  13.528   0.084  12.606
94865SOL    HW186427  13.567   0.110  12.690
94865SOL    HW286428  13.458   0.024  12.629
94866SOL     OW86429   6.663  12.521   3.442
94866SOL    HW186430   6.725  12.584   3.480
94866SOL    HW286431   6.590  12.574   3.412
94867SOL     OW86432   7.780  13.302   9.846
94867SOL    HW186433   7.861  13.267   9.883
94867SOL    HW286434   7.749  13.364   9.912
94868SOL     OW86435   1.523   5.975   8.941
94868SOL    HW186436   1.610   6.003   8.970
94868SOL    HW286437   1.537   5.887   8.906
94869SOL     OW86438   5.684   2.282   8.371
94869SOL    HW186439   5.609   2.239   8.411
94869SOL    HW286440   5.724   2.215   8.316
94870SOL     OW86441  10.340   9.288   2.306
94870SOL    HW186442  10.348   9.197   2.277
94870SOL    HW286443  10.308   9.281   2.396
94871SOL     OW86444  11.011  13.331   5.358
94871SOL    HW186445  10.977  13.399   5.300
94871SOL    HW286446  11.015  13.374   5.444
94872SOL     OW86447  14.865  10.094   9.274
94872SOL    HW186448  14.774  10.083   9.247
94872SOL    HW286449   0.014  10.179   9.238
94873SOL     OW86450   3.488   7.100   9.195
94873SOL    HW186451   3.443   7.075   9.276
94873SOL    HW286452   3.446   7.049   9.127
94874SOL     OW86453   1.344   1.228   6.414
94874SOL    HW186454   1.355   1.165   6.343
94874SOL    HW286455   1.249   1.234   6.427
94875SOL     OW86456   5.213   2.502   5.686
94875SOL    HW186457   5.285   2.549   5.645
94875SOL    HW286458   5.250   2.465   5.765
94876SOL     OW86459   8.740   7.254  11.899
94876SOL    HW186460   8.745   7.202  11.818
94876SOL    HW286461   8.663   7.221  11.944
94877SOL     OW86462  11.970  14.066  10.674
94877SOL    HW186463  12.060  14.066  10.706
94877SOL    HW286464  11.955  14.156  10.643
94878SOL     OW86465   6.858  12.242   4.415
94878SOL    HW186466   6.792  12.251   4.484
94878SOL    HW286467   6.930  12.298   4.443
94879SOL     OW86468  12.171   9.946   7.221
94879SOL    HW186469  12.209  10.033   7.228
94879SOL    HW286470  12.207   9.898   7.295
94880SOL     OW86471   0.246   3.382  14.282
94880SOL    HW186472   0.202   3.361  14.365
94880SOL    HW286473   0.277   3.297  14.249
94881SOL     OW86474  14.556   6.564  10.143
94881SOL    HW186475  14.578   6.625  10.072
94881SOL    HW286476  14.571   6.477  10.105
94882SOL     OW86477  12.615   7.153   8.521
94882SOL    HW186478  12.543   7.200   8.563
94882SOL    HW286479  12.643   7.089   8.586
94883SOL     OW86480  12.811  10.090   8.998
94883SOL    HW186481  12.904  10.072   8.982
94883SOL    HW286482  12.800  10.079   9.093
94884SOL     OW86483  14.317  12.410  13.372
94884SOL    HW186484  14.386  12.350  13.402
94884SOL    HW286485  14.362  12.493  13.357
94885SOL     OW86486   8.150  13.394   2.013
94885SOL    HW186487   8.221  13.360   2.067
94885SOL    HW286488   8.187  13.399   1.925
94886SOL     OW86489   4.735   4.669   5.491
94886SOL    HW186490   4.784   4.615   5.428
94886SOL    HW286491   4.696   4.738   5.438
94887SOL     OW86492   6.123   7.295   2.820
94887SOL    HW186493   6.160   7.354   2.886
94887SOL    HW286494   6.028   7.300   2.833
94888SOL     OW86495   4.227   9.536   4.315
94888SOL    HW186496   4.243   9.472   4.245
94888SOL    HW286497   4.132   9.548   4.315
94889SOL     OW86498   2.749   3.694  13.808
94889SOL    HW186499   2.656   3.707  13.825
94889SOL    HW286500   2.781   3.782  13.787
94890SOL     OW86501  12.411   6.461  10.485
94890SOL    HW186502  12.401   6.464  10.580
94890SOL    HW286503  12.424   6.369  10.465
94891SOL     OW86504  14.476   1.708  13.542
94891SOL    HW186505  14.470   1.803  13.540
94891SOL    HW286506  14.487   1.686  13.634
94892SOL     OW86507  11.775   2.080   8.205
94892SOL    HW186508  11.809   2.030   8.280
94892SOL    HW286509  11.694   2.035   8.182
94893SOL     OW86510   2.110   2.208   7.402
94893SOL    HW186511   2.066   2.293   7.405
94893SOL    HW286512   2.197   2.227   7.368
94894SOL     OW86513   9.845   8.668   7.658
94894SOL    HW186514   9.878   8.728   7.725
94894SOL    HW286515   9.867   8.581   7.692
94895SOL     OW86516   6.146   4.444   4.471
94895SOL    HW186517   6.240   4.458   4.482
94895SOL    HW286518   6.106   4.484   4.548
94896SOL     OW86519   7.763  14.349  11.196
94896SOL    HW186520   7.672  14.352  11.168
94896SOL    HW286521   7.761  14.301  11.278
94897SOL     OW86522   9.748   9.331   4.912
94897SOL    HW186523   9.787   9.348   4.998
94897SOL    HW286524   9.823   9.319   4.854
94898SOL     OW86525  12.697   9.195  11.271
94898SOL    HW186526  12.696   9.266  11.334
94898SOL    HW286527  12.609   9.195  11.233
94899SOL     OW86528   1.049   4.037   4.246
94899SOL    HW186529   1.087   4.108   4.298
94899SOL    HW286530   0.999   4.080   4.177
94900SOL     OW86531  14.683  10.905   8.680
94900SOL    HW186532  14.675  10.884   8.587
94900SOL    HW286533  14.720  10.994   8.681
94901SOL     OW86534  13.808  12.030   7.091
94901SOL    HW186535  13.725  11.986   7.111
94901SOL    HW286536  13.783  12.102   7.034
94902SOL     OW86537   0.420   4.813  10.110
94902SOL    HW186538   0.502   4.790  10.066
94902SOL    HW286539   0.357   4.748  10.080
94903SOL     OW86540  13.222   8.290   4.518
94903SOL    HW186541  13.225   8.331   4.604
94903SOL    HW286542  13.198   8.361   4.458
94904SOL     OW86543   8.619   0.889  11.112
94904SOL    HW186544   8.623   0.821  11.179
94904SOL    HW286545   8.660   0.966  11.152
94905SOL     OW86546   4.474  13.719   3.597
94905SOL    HW186547   4.525  13.638   3.606
94905SOL    HW286548   4.434  13.712   3.510
94906SOL     OW86549   7.941  14.254   6.621
94906SOL    HW186550   7.944  14.224   6.530
94906SOL    HW286551   7.999  14.330   6.623
94907SOL     OW86552  13.347  12.739  14.138
94907SOL    HW186553  13.427  12.720  14.187
94907SOL    HW286554  13.276  12.707  14.194
94908SOL     OW86555   9.265   7.735   1.255
94908SOL    HW186556   9.256   7.723   1.161
94908SOL    HW286557   9.192   7.685   1.293
94909SOL     OW86558  10.742   8.586   7.406
94909SOL    HW186559  10.793   8.567   7.328
94909SOL    HW286560  10.722   8.679   7.401
94910SOL     OW86561  11.421   4.913  14.727
94910SOL    HW186562  11.387   4.977  14.664
94910SOL    HW286563  11.432   4.962  14.808
94911SOL     OW86564   3.062  11.869  11.960
94911SOL    HW186565   3.145  11.833  11.993
94911SOL    HW286566   3.027  11.800  11.904
94912SOL     OW86567   2.862   1.958   2.204
94912SOL    HW186568   2.822   1.984   2.287
94912SOL    HW286569   2.897   2.039   2.167
94913SOL     OW86570   6.768   5.963   8.209
94913SOL    HW186571   6.741   5.872   8.220
94913SOL    HW286572   6.859   5.965   8.238
94914SOL     OW86573   4.342  14.812   5.948
94914SOL    HW186574   4.323  14.788   6.038
94914SOL    HW286575   4.436  14.832   5.948
94915SOL     OW86576   1.123   8.765  13.923
94915SOL    HW186577   1.040   8.729  13.954
94915SOL    HW286578   1.162   8.804  14.001
94916SOL     OW86579  10.695   1.194   4.249
94916SOL    HW186580  10.653   1.201   4.164
94916SOL    HW286581  10.789   1.202   4.230
94917SOL     OW86582  12.684   0.174   7.993
94917SOL    HW186583  12.727   0.147   7.911
94917SOL    HW286584  12.694   0.269   7.994
94918SOL     OW86585   2.618   1.674   1.201
94918SOL    HW186586   2.680   1.673   1.128
94918SOL    HW286587   2.644   1.749   1.254
94919SOL     OW86588   6.537   7.356  13.623
94919SOL    HW186589   6.524   7.445  13.656
94919SOL    HW286590   6.449   7.318  13.623
94920SOL     OW86591  14.254   8.997  14.622
94920SOL    HW186592  14.312   8.926  14.649
94920SOL    HW286593  14.249   9.054  14.698
94921SOL     OW86594  13.731   6.944  14.452
94921SOL    HW186595  13.711   6.879  14.520
94921SOL    HW286596  13.693   7.025  14.484
94922SOL     OW86597  10.685  10.706  13.183
94922SOL    HW186598  10.689  10.801  13.187
94922SOL    HW286599  10.686  10.685  13.089
94923SOL     OW86600   1.562   3.441  13.615
94923SOL    HW186601   1.625   3.445  13.543
94923SOL    HW286602   1.493   3.384  13.583
94924SOL     OW86603   8.971  14.245   3.625
94924SOL    HW186604   8.971  14.301   3.547
94924SOL    HW286605   8.927  14.165   3.596
94925SOL     OW86606   9.303  10.256   8.398
94925SOL    HW186607   9.281  10.348   8.411
94925SOL    HW286608   9.346  10.254   8.312
94926SOL     OW86609  13.218  13.446   4.760
94926SOL    HW186610  13.226  13.352   4.741
94926SOL    HW286611  13.273  13.488   4.694
94927SOL     OW86612   1.714  12.597   1.269
94927SOL    HW186613   1.772  12.568   1.199
94927SOL    HW286614   1.638  12.633   1.223
94928SOL     OW86615   8.156  13.323   4.528
94928SOL    HW186616   8.226  13.341   4.465
94928SOL    HW286617   8.154  13.400   4.585
94929SOL     OW86618   9.799  10.425   6.227
94929SOL    HW186619   9.775  10.511   6.262
94929SOL    HW286620   9.796  10.367   6.303
94930SOL     OW86621   7.546   4.625   8.883
94930SOL    HW186622   7.558   4.558   8.950
94930SOL    HW286623   7.574   4.706   8.925
94931SOL     OW86624   9.378  13.404  11.943
94931SOL    HW186625   9.320  13.408  11.867
94931SOL    HW286626   9.423  13.320  11.934
94932SOL     OW86627   1.682  11.591   5.301
94932SOL    HW186628   1.734  11.638   5.366
94932SOL    HW286629   1.725  11.506   5.293
94933SOL     OW86630  10.972   2.146   7.775
94933SOL    HW186631  10.984   2.055   7.800
94933SOL    HW286632  11.057   2.174   7.741
94934SOL     OW86633  11.771  14.450   9.865
94934SOL    HW186634  11.783  14.545   9.874
94934SOL    HW286635  11.706  14.441   9.795
94935SOL     OW86636  13.375   7.346   7.170
94935SOL    HW186637  13.335   7.411   7.112
94935SOL    HW286638  13.430   7.292   7.112
94936SOL     OW86639   7.801  13.990   5.449
94936SOL    HW186640   7.797  13.910   5.396
94936SOL    HW286641   7.715  13.994   5.492
94937SOL     OW86642   8.537  14.726   9.219
94937SOL    HW186643   8.585  14.754   9.298
94937SOL    HW286644   8.489  14.648   9.247
94938SOL     OW86645  14.155   5.734  12.941
94938SOL    HW186646  14.190   5.692  13.020
94938SOL    HW286647  14.129   5.662  12.884
94939SOL     OW86648   9.065   2.800   2.110
94939SOL    HW186649   8.971   2.803   2.126
94939SOL    HW286650   9.086   2.886   2.072
94940SOL     OW86651  10.589   0.818   4.353
94940SOL    HW186652  10.502   0.815   4.393
94940SOL    HW286653  10.650   0.818   4.427
94941SOL     OW86654   1.944   9.669   6.650
94941SOL    HW186655   1.870   9.728   6.663
94941SOL    HW286656   2.007   9.694   6.718
94942SOL     OW86657   8.225   2.647   5.271
94942SOL    HW186658   8.316   2.668   5.291
94942SOL    HW286659   8.174   2.701   5.331
94943SOL     OW86660   8.012   9.345   2.688
94943SOL    HW186661   8.020   9.351   2.783
94943SOL    HW286662   7.940   9.404   2.666
94944SOL     OW86663   2.895   3.896   8.230
94944SOL    HW186664   2.970   3.950   8.205
94944SOL    HW286665   2.902   3.818   8.176
94945SOL     OW86666   8.405   4.282   1.583
94945SOL    HW186667   8.448   4.263   1.500
94945SOL    HW286668   8.462   4.347   1.624
94946SOL     OW86669   8.257  10.853   6.780
94946SOL    HW186670   8.216  10.901   6.709
94946SOL    HW286671   8.235  10.762   6.764
94947SOL     OW86672   2.876   5.456   6.280
94947SOL    HW186673   2.812   5.389   6.304
94947SOL    HW286674   2.960   5.420   6.310
94948SOL     OW86675   7.675   0.214   2.942
94948SOL    HW186676   7.717   0.299   2.930
94948SOL    HW286677   7.747   0.153   2.961
94949SOL     OW86678   7.487   2.583   7.778
94949SOL    HW186679   7.541   2.659   7.754
94949SOL    HW286680   7.549   2.520   7.813
94950SOL     OW86681  12.984  13.822   9.259
94950SOL    HW186682  12.954  13.795   9.172
94950SOL    HW286683  12.961  13.749   9.316
94951SOL     OW86684   9.192   6.651   0.227
94951SOL    HW186685   9.147   6.685   0.150
94951SOL    HW286686   9.130   6.663   0.299
94952SOL     OW86687   5.542   3.849   0.801
94952SOL    HW186688   5.534   3.843   0.706
94952SOL    HW286689   5.535   3.942   0.820
94953SOL     OW86690  14.768  12.353  13.464
94953SOL    HW186691  14.773  12.367  13.370
94953SOL    HW286692  14.752  12.259  13.474
94954SOL     OW86693   5.051   0.677  14.530
94954SOL    HW186694   5.113   0.653  14.462
94954SOL    HW286695   4.973   0.706  14.483
94955SOL     OW86696   3.782  13.039  14.097
94955SOL    HW186697   3.780  12.966  14.159
94955SOL    HW286698   3.747  13.003  14.015
94956SOL     OW86699   0.045   4.990   8.747
94956SOL    HW186700   0.060   4.917   8.807
94956SOL    HW286701   0.113   4.979   8.679
94957SOL     OW86702  11.433  12.524  14.498
94957SOL    HW186703  11.376  12.538  14.574
94957SOL    HW286704  11.404  12.441  14.461
94958SOL     OW86705  13.748  10.072   8.079
94958SOL    HW186706  13.686  10.141   8.055
94958SOL    HW286707  13.834  10.106   8.054
94959SOL     OW86708  11.104   4.888  13.833
94959SOL    HW186709  11.146   4.967  13.868
94959SOL    HW286710  11.091   4.832  13.909
94960SOL     OW86711  14.661   1.730   6.667
94960SOL    HW186712  14.601   1.770   6.731
94960SOL    HW286713  14.659   1.637   6.688
94961SOL     OW86714  11.807  10.224   7.379
94961SOL    HW186715  11.735  10.270   7.422
94961SOL    HW286716  11.819  10.271   7.296
94962SOL     OW86717   1.312  12.782  10.969
94962SOL    HW186718   1.387  12.833  10.998
94962SOL    HW286719   1.313  12.789  10.873
94963SOL     OW86720   6.792  14.058   0.419
94963SOL    HW186721   6.836  14.107   0.489
94963SOL    HW286722   6.781  13.970   0.456
94964SOL     OW86723  11.145  11.156   8.510
94964SOL    HW186724  11.103  11.241   8.496
94964SOL    HW286725  11.144  11.144   8.605
94965SOL     OW86726   5.090  10.158   2.310
94965SOL    HW186727   5.000  10.130   2.297
94965SOL    HW286728   5.123  10.099   2.378
94966SOL     OW86729   1.080   8.344  13.610
94966SOL    HW186730   0.994   8.311  13.585
94966SOL    HW286731   1.066   8.437  13.625
94967SOL     OW86732  10.232   0.694   6.490
94967SOL    HW186733  10.199   0.769   6.440
94967SOL    HW286734  10.154   0.642   6.509
94968SOL     OW86735   6.558   4.547   8.581
94968SOL    HW186736   6.549   4.563   8.675
94968SOL    HW286737   6.580   4.633   8.544
94969SOL     OW86738  13.846   2.239   2.698
94969SOL    HW186739  13.770   2.260   2.643
94969SOL    HW286740  13.879   2.156   2.662
94970SOL     OW86741   6.466   8.558  12.389
94970SOL    HW186742   6.484   8.501  12.464
94970SOL    HW286743   6.502   8.511  12.314
94971SOL     OW86744   5.025   9.078  13.846
94971SOL    HW186745   4.966   9.150  13.867
94971SOL    HW286746   4.973   8.999  13.859
94972SOL     OW86747   0.579   9.717   4.481
94972SOL    HW186748   0.628   9.658   4.539
94972SOL    HW286749   0.488   9.687   4.489
94973SOL     OW86750   2.919   9.359  14.122
94973SOL    HW186751   2.946   9.450  14.136
94973SOL    HW286752   2.999   9.314  14.093
94974SOL     OW86753  12.581  12.351   3.996
94974SOL    HW186754  12.500  12.303   3.977
94974SOL    HW286755  12.611  12.382   3.910
94975SOL     OW86756   0.333   6.071  13.821
94975SOL    HW186757   0.276   6.048  13.748
94975SOL    HW286758   0.294   6.028  13.897
94976SOL     OW86759  13.862   4.472   0.717
94976SOL    HW186760  13.882   4.565   0.733
94976SOL    HW286761  13.888   4.428   0.798
94977SOL     OW86762  11.134  11.379  14.395
94977SOL    HW186763  11.184  11.457  14.419
94977SOL    HW286764  11.061  11.412  14.342
94978SOL     OW86765  10.922   9.952   0.522
94978SOL    HW186766  10.876   9.869   0.511
94978SOL    HW286767  10.852  10.018   0.523
94979SOL     OW86768   8.117   3.359   1.672
94979SOL    HW186769   8.170   3.337   1.596
94979SOL    HW286770   8.077   3.444   1.649
94980SOL     OW86771   2.833   6.351   6.052
94980SOL    HW186772   2.788   6.319   6.130
94980SOL    HW286773   2.925   6.358   6.079
94981SOL     OW86774   1.566   4.163  10.397
94981SOL    HW186775   1.580   4.253  10.426
94981SOL    HW286776   1.646   4.141  10.349
94982SOL     OW86777   9.525  13.629   2.775
94982SOL    HW186778   9.481  13.590   2.851
94982SOL    HW286779   9.500  13.573   2.701
94983SOL     OW86780   7.924  11.030   2.342
94983SOL    HW186781   7.843  10.992   2.375
94983SOL    HW286782   7.929  11.116   2.382
94984SOL     OW86783   1.759  12.646  14.275
94984SOL    HW186784   1.826  12.632  14.208
94984SOL    HW286785   1.795  12.604  14.353
94985SOL     OW86786   8.764  10.317   5.361
94985SOL    HW186787   8.795  10.248   5.303
94985SOL    HW286788   8.835  10.328   5.424
94986SOL     OW86789  12.750   2.184   1.074
94986SOL    HW186790  12.761   2.091   1.095
94986SOL    HW286791  12.788   2.230   1.149
94987SOL     OW86792   6.931   5.901   4.682
94987SOL    HW186793   6.982   5.897   4.763
94987SOL    HW286794   6.997   5.909   4.613
94988SOL     OW86795   7.637   4.597  10.666
94988SOL    HW186796   7.546   4.586  10.691
94988SOL    HW286797   7.645   4.549  10.584
94989SOL     OW86798   7.339   4.966   5.295
94989SOL    HW186799   7.418   5.019   5.289
94989SOL    HW286800   7.311   4.974   5.387
94990SOL     OW86801  11.437   7.086   5.045
94990SOL    HW186802  11.499   7.141   5.093
94990SOL    HW286803  11.434   7.004   5.094
94991SOL     OW86804  13.570   0.864   6.098
94991SOL    HW186805  13.599   0.774   6.084
94991SOL    HW286806  13.649   0.917   6.084
94992SOL     OW86807   5.049  12.550   0.032
94992SOL    HW186808   5.006  12.626   0.071
94992SOL    HW286809   5.018  12.476   0.084
94993SOL     OW86810   9.501   3.147  12.376
94993SOL    HW186811   9.492   3.200  12.297
94993SOL    HW286812   9.412   3.133  12.407
94994SOL     OW86813   8.939  12.672  13.256
94994SOL    HW186814   8.943  12.604  13.188
94994SOL    HW286815   8.962  12.753  13.211
94995SOL     OW86816   2.111  13.043   3.806
94995SOL    HW186817   2.158  12.963   3.827
94995SOL    HW286818   2.105  13.090   3.889
94996SOL     OW86819   7.430   5.818   8.791
94996SOL    HW186820   7.512   5.773   8.775
94996SOL    HW286821   7.445   5.907   8.760
94997SOL     OW86822  11.322  11.382   2.937
94997SOL    HW186823  11.243  11.436   2.927
94997SOL    HW286824  11.291  11.304   2.983
94998SOL     OW86825   2.306  13.066   4.040
94998SOL    HW186826   2.339  13.066   3.951
94998SOL    HW286827   2.328  12.979   4.074
94999SOL     OW86828   9.550   5.062   4.083
94999SOL    HW186829   9.604   5.096   4.154
94999SOL    HW286830   9.469   5.113   4.087
95000SOL     OW86831   3.893  11.029   2.320
95000SOL    HW186832   3.902  10.951   2.265
95000SOL    HW286833   3.898  10.995   2.410
95001SOL     OW86834  11.788  13.389  10.546
95001SOL    HW186835  11.815  13.395  10.454
95001SOL    HW286836  11.837  13.459  10.590
95002SOL     OW86837   3.999  12.394  10.195
95002SOL    HW186838   4.030  12.438  10.274
95002SOL    HW286839   3.923  12.344  10.223
95003SOL     OW86840   5.272   1.570   4.263
95003SOL    HW186841   5.243   1.487   4.300
95003SOL    HW286842   5.363   1.554   4.235
95004SOL     OW86843  12.567  10.003  13.469
95004SOL    HW186844  12.580   9.990  13.375
95004SOL    HW286845  12.499   9.940  13.493
95005SOL     OW86846  13.510   7.641   0.211
95005SOL    HW186847  13.533   7.733   0.211
95005SOL    HW286848  13.414   7.640   0.212
95006SOL     OW86849  10.024  14.795   1.272
95006SOL    HW186850  10.030  14.707   1.234
95006SOL    HW286851  10.095  14.844   1.231
95007SOL     OW86852   9.008   8.494   5.053
95007SOL    HW186853   8.996   8.455   5.140
95007SOL    HW286854   9.013   8.588   5.069
95008SOL     OW86855   4.978  11.957  13.067
95008SOL    HW186856   4.995  11.924  13.155
95008SOL    HW286857   4.906  12.019  13.079
95009SOL     OW86858   0.623   9.532   1.659
95009SOL    HW186859   0.605   9.478   1.583
95009SOL    HW286860   0.543   9.528   1.711
95010SOL     OW86861   3.416   8.559   7.061
95010SOL    HW186862   3.388   8.577   7.151
95010SOL    HW286863   3.337   8.571   7.008
95011SOL     OW86864  10.512  10.896   9.466
95011SOL    HW186865  10.550  10.823   9.417
95011SOL    HW286866  10.444  10.855   9.520
95012SOL     OW86867   7.956  11.309  14.387
95012SOL    HW186868   7.879  11.254  14.370
95012SOL    HW286869   7.947  11.334  14.479
95013SOL     OW86870   3.516   1.136   8.221
95013SOL    HW186871   3.530   1.231   8.224
95013SOL    HW286872   3.596   1.099   8.257
95014SOL     OW86873   0.242  12.148   9.859
95014SOL    HW186874   0.295  12.227   9.871
95014SOL    HW286875   0.155  12.173   9.891
95015SOL     OW86876   1.950   3.622   1.579
95015SOL    HW186877   1.871   3.588   1.621
95015SOL    HW286878   1.920   3.694   1.524
95016SOL     OW86879  13.387   0.061   3.713
95016SOL    HW186880  13.437  14.856   3.702
95016SOL    HW286881  13.436   0.110   3.779
95017SOL     OW86882   3.694   9.430   2.583
95017SOL    HW186883   3.706   9.337   2.602
95017SOL    HW286884   3.649   9.465   2.661
95018SOL     OW86885   3.567   2.941  14.720
95018SOL    HW186886   3.551   3.033  14.696
95018SOL    HW286887   3.582   2.897  14.637
95019SOL     OW86888  10.299  11.921  11.600
95019SOL    HW186889  10.371  11.859  11.612
95019SOL    HW286890  10.278  11.952  11.688
95020SOL     OW86891   3.831   1.914   0.161
95020SOL    HW186892   3.743   1.920   0.199
95020SOL    HW286893   3.825   1.842   0.098
95021SOL     OW86894   7.315  11.431   3.107
95021SOL    HW186895   7.251  11.469   3.166
95021SOL    HW286896   7.306  11.336   3.118
95022SOL     OW86897   5.799   4.686   5.814
95022SOL    HW186898   5.769   4.693   5.905
95022SOL    HW286899   5.769   4.767   5.773
95023SOL     OW86900   0.988   5.754  14.225
95023SOL    HW186901   0.971   5.711  14.141
95023SOL    HW286902   0.901   5.767  14.263
95024SOL     OW86903   6.970   2.572   0.009
95024SOL    HW186904   6.932   2.501  14.832
95024SOL    HW286905   6.936   2.557   0.097
95025SOL     OW86906   8.396   3.643   9.740
95025SOL    HW186907   8.411   3.646   9.645
95025SOL    HW286908   8.348   3.561   9.754
95026SOL     OW86909   9.854  14.515  14.838
95026SOL    HW186910   9.946  14.504  14.860
95026SOL    HW286911   9.819  14.426  14.835
95027SOL     OW86912   0.467   4.018   2.962
95027SOL    HW186913   0.514   3.984   2.886
95027SOL    HW286914   0.488   3.956   3.032
95028SOL     OW86915   7.085   9.654   3.817
95028SOL    HW186916   7.107   9.570   3.858
95028SOL    HW286917   7.065   9.712   3.891
95029SOL     OW86918  14.695  12.408  10.563
95029SOL    HW186919  14.641  12.485  10.543
95029SOL    HW286920  14.664  12.341  10.502
95030SOL     OW86921   4.927   7.790   7.907
95030SOL    HW186922   4.914   7.756   7.995
95030SOL    HW286923   4.845   7.835   7.886
95031SOL     OW86924   0.310   8.535   9.433
95031SOL    HW186925   0.330   8.576   9.350
95031SOL    HW286926   0.216   8.520   9.431
95032SOL     OW86927  13.590  11.789   4.369
95032SOL    HW186928  13.634  11.872   4.352
95032SOL    HW286929  13.498  11.805   4.345
95033SOL     OW86930   9.586   7.558  12.894
95033SOL    HW186931   9.667   7.598  12.863
95033SOL    HW286932   9.607   7.466  12.907
95034SOL     OW86933  12.059   8.745  13.462
95034SOL    HW186934  12.007   8.823  13.478
95034SOL    HW286935  12.054   8.696  13.544
95035SOL     OW86936   2.280  13.237   3.087
95035SOL    HW186937   2.292  13.143   3.102
95035SOL    HW286938   2.281  13.246   2.992
95036SOL     OW86939   5.253   2.305   2.065
95036SOL    HW186940   5.312   2.380   2.057
95036SOL    HW286941   5.307   2.237   2.105
95037SOL     OW86942   9.313  10.655  12.934
95037SOL    HW186943   9.279  10.633  12.848
95037SOL    HW286944   9.237  10.684  12.984
95038SOL     OW86945   1.171  13.873   3.572
95038SOL    HW186946   1.233  13.800   3.579
95038SOL    HW286947   1.181  13.921   3.655
95039SOL     OW86948   1.156   5.730  11.341
95039SOL    HW186949   1.195   5.797  11.285
95039SOL    HW286950   1.231   5.678  11.371
95040SOL     OW86951   5.687   7.163   6.593
95040SOL    HW186952   5.746   7.193   6.662
95040SOL    HW286953   5.666   7.241   6.543
95041SOL     OW86954  10.115  14.782   3.573
95041SOL    HW186955  10.146  14.719   3.638
95041SOL    HW286956  10.028  14.752   3.550
95042SOL     OW86957   4.786   9.007   7.695
95042SOL    HW186958   4.861   9.043   7.743
95042SOL    HW286959   4.724   9.080   7.690
95043SOL     OW86960  14.364   7.341   4.385
95043SOL    HW186961  14.282   7.293   4.395
95043SOL    HW286962  14.337   7.433   4.377
95044SOL     OW86963  13.675   8.657   8.068
95044SOL    HW186964  13.757   8.629   8.028
95044SOL    HW286965  13.661   8.596   8.141
95045SOL     OW86966  14.567   1.753   6.410
95045SOL    HW186967  14.622   1.740   6.487
95045SOL    HW286968  14.614   1.818   6.357
95046SOL     OW86969  14.186   9.844   4.715
95046SOL    HW186970  14.240   9.776   4.754
95046SOL    HW286971  14.149   9.892   4.789
95047SOL     OW86972  11.423  14.503   8.668
95047SOL    HW186973  11.502  14.548   8.698
95047SOL    HW286974  11.351  14.555   8.702
95048SOL     OW86975   5.889   2.890   8.549
95048SOL    HW186976   5.899   2.981   8.576
95048SOL    HW286977   5.973   2.868   8.508
95049SOL     OW86978  14.589   8.669   4.183
95049SOL    HW186979  14.505   8.691   4.223
95049SOL    HW286980  14.643   8.747   4.195
95050SOL     OW86981   7.345   9.779   2.765
95050SOL    HW186982   7.364   9.692   2.731
95050SOL    HW286983   7.362   9.773   2.859
95051SOL     OW86984  13.211  10.641   7.704
95051SOL    HW186985  13.210  10.565   7.646
95051SOL    HW286986  13.211  10.716   7.645
95052SOL     OW86987   1.698   7.037  14.278
95052SOL    HW186988   1.740   7.091  14.211
95052SOL    HW286989   1.679   6.955  14.234
95053SOL     OW86990  14.856   7.130   9.120
95053SOL    HW186991  14.804   7.069   9.173
95053SOL    HW286992  14.797   7.203   9.103
95054SOL     OW86993   1.228   2.773   0.469
95054SOL    HW186994   1.197   2.814   0.550
95054SOL    HW286995   1.321   2.756   0.484
95055SOL     OW86996   3.359   7.590  14.774
95055SOL    HW186997   3.307   7.599  14.694
95055SOL    HW286998   3.300   7.622  14.843
95056SOL     OW86999   5.098  13.456   5.839
95056SOL    HW187000   5.042  13.379   5.852
95056SOL    HW287001   5.179  13.435   5.887
95057SOL     OW87002  13.213   0.637   0.799
95057SOL    HW187003  13.160   0.610   0.724
95057SOL    HW287004  13.214   0.561   0.856
95058SOL     OW87005  12.314  11.627  13.244
95058SOL    HW187006  12.303  11.707  13.193
95058SOL    HW287007  12.351  11.657  13.327
95059SOL     OW87008   8.327   7.232   7.508
95059SOL    HW187009   8.371   7.203   7.427
95059SOL    HW287010   8.267   7.161   7.529
95060SOL     OW87011  12.660   9.702   0.647
95060SOL    HW187012  12.732   9.644   0.623
95060SOL    HW287013  12.678   9.784   0.601
95061SOL     OW87014   2.415   5.833   0.605
95061SOL    HW187015   2.387   5.895   0.672
95061SOL    HW287016   2.376   5.865   0.524
95062SOL     OW87017   0.072   7.008  14.150
95062SOL    HW187018   0.121   7.051  14.220
95062SOL    HW287019   0.137   6.993  14.081
95063SOL     OW87020   9.709  14.848  13.180
95063SOL    HW187021   9.732  14.834  13.088
95063SOL    HW287022   9.790   0.003  13.221
95064SOL     OW87023  14.016  11.877   7.870
95064SOL    HW187024  13.992  11.964   7.836
95064SOL    HW287025  14.093  11.893   7.924
95065SOL     OW87026  13.752  14.579  12.542
95065SOL    HW187027  13.732  14.668  12.511
95065SOL    HW287028  13.740  14.583  12.637
95066SOL     OW87029  12.289   3.284  12.154
95066SOL    HW187030  12.338   3.245  12.081
95066SOL    HW287031  12.208   3.316  12.115
95067SOL     OW87032   4.493  10.286  11.031
95067SOL    HW187033   4.581  10.277  11.066
95067SOL    HW287034   4.441  10.222  11.080
95068SOL     OW87035  10.443   3.329  11.222
95068SOL    HW187036  10.468   3.274  11.148
95068SOL    HW287037  10.512   3.395  11.228
95069SOL     OW87038  13.217   4.644   2.150
95069SOL    HW187039  13.276   4.625   2.223
95069SOL    HW287040  13.156   4.709   2.184
95070SOL     OW87041  12.174   8.373   9.892
95070SOL    HW187042  12.238   8.393   9.824
95070SOL    HW287043  12.219   8.393   9.974
95071SOL     OW87044   9.019   4.356  14.698
95071SOL    HW187045   8.986   4.350  14.609
95071SOL    HW287046   8.989   4.442  14.729
95072SOL     OW87047   3.574   7.198   0.274
95072SOL    HW187048   3.576   7.144   0.195
95072SOL    HW287049   3.640   7.159   0.332
95073SOL     OW87050  10.756   2.168   4.182
95073SOL    HW187051  10.809   2.091   4.202
95073SOL    HW287052  10.820   2.238   4.168
95074SOL     OW87053  11.929   0.464   6.987
95074SOL    HW187054  11.992   0.450   6.916
95074SOL    HW287055  11.977   0.516   7.051
95075SOL     OW87056   9.275   7.163  12.807
95075SOL    HW187057   9.354   7.111  12.820
95075SOL    HW287058   9.256   7.156  12.713
95076SOL     OW87059   2.369  10.381   6.096
95076SOL    HW187060   2.391  10.386   6.003
95076SOL    HW287061   2.343  10.290   6.110
95077SOL     OW87062  12.289   9.354   9.892
95077SOL    HW187063  12.235   9.432   9.877
95077SOL    HW287064  12.378   9.382   9.872
95078SOL     OW87065  10.218   0.422   7.762
95078SOL    HW187066  10.234   0.512   7.734
95078SOL    HW287067  10.129   0.403   7.732
95079SOL     OW87068   6.034   2.994   4.820
95079SOL    HW187069   6.046   2.919   4.878
95079SOL    HW287070   6.040   3.070   4.878
95080SOL     OW87071  12.878  11.714  11.320
95080SOL    HW187072  12.880  11.659  11.242
95080SOL    HW287073  12.805  11.680  11.372
95081SOL     OW87074   6.445   3.112  10.901
95081SOL    HW187075   6.465   3.024  10.869
95081SOL    HW287076   6.506   3.168  10.854
95082SOL     OW87077   5.026   6.674  11.065
95082SOL    HW187078   4.998   6.719  10.985
95082SOL    HW287079   5.064   6.592  11.035
95083SOL     OW87080   6.909   7.874   1.983
95083SOL    HW187081   6.950   7.911   1.905
95083SOL    HW287082   6.920   7.942   2.050
95084SOL     OW87083  12.310   5.270   4.829
95084SOL    HW187084  12.351   5.336   4.773
95084SOL    HW287085  12.291   5.317   4.911
95085SOL     OW87086  14.530   7.655  13.401
95085SOL    HW187087  14.625   7.653  13.394
95085SOL    HW287088  14.499   7.633  13.313
95086SOL     OW87089   5.565   0.837   7.779
95086SOL    HW187090   5.615   0.890   7.718
95086SOL    HW287091   5.572   0.882   7.863
95087SOL     OW87092  14.291   9.360   6.529
95087SOL    HW187093  14.234   9.306   6.475
95087SOL    HW287094  14.236   9.433   6.557
95088SOL     OW87095  14.401  11.617  10.163
95088SOL    HW187096  14.314  11.579  10.164
95088SOL    HW287097  14.460  11.544  10.184
95089SOL     OW87098   7.327   6.696   3.214
95089SOL    HW187099   7.285   6.633   3.272
95089SOL    HW287100   7.256   6.729   3.159
95090SOL     OW87101   5.947   1.870  13.068
95090SOL    HW187102   5.952   1.793  13.123
95090SOL    HW287103   5.855   1.896  13.071
95091SOL     OW87104   6.382  13.016   1.111
95091SOL    HW187105   6.310  13.078   1.122
95091SOL    HW287106   6.443  13.060   1.052
95092SOL     OW87107   1.550  13.263  10.789
95092SOL    HW187108   1.506  13.261  10.704
95092SOL    HW287109   1.497  13.207  10.845
95093SOL     OW87110   9.362   0.480   3.611
95093SOL    HW187111   9.320   0.399   3.581
95093SOL    HW287112   9.453   0.455   3.625
95094SOL     OW87113  13.565  13.476   6.141
95094SOL    HW187114  13.502  13.404   6.129
95094SOL    HW287115  13.557  13.529   6.062
95095SOL     OW87116   3.456  13.550  10.312
95095SOL    HW187117   3.458  13.464  10.271
95095SOL    HW287118   3.515  13.543  10.387
95096SOL     OW87119  11.082   6.502  11.515
95096SOL    HW187120  11.136   6.571  11.552
95096SOL    HW287121  11.087   6.516  11.420
95097SOL     OW87122   9.521   1.121  11.899
95097SOL    HW187123   9.616   1.116  11.888
95097SOL    HW287124   9.499   1.213  11.884
95098SOL     OW87125   1.565   1.519   6.002
95098SOL    HW187126   1.588   1.513   5.909
95098SOL    HW287127   1.478   1.480   6.008
95099SOL     OW87128   4.095   2.498   6.016
95099SOL    HW187129   4.179   2.530   5.984
95099SOL    HW287130   4.095   2.405   5.994
95100SOL     OW87131  11.593   4.425   3.812
95100SOL    HW187132  11.567   4.339   3.844
95100SOL    HW287133  11.523   4.484   3.839
95101SOL     OW87134   3.315   4.153   2.533
95101SOL    HW187135   3.388   4.115   2.582
95101SOL    HW287136   3.354   4.184   2.451
95102SOL     OW87137  10.905   3.371   5.295
95102SOL    HW187138  10.999   3.366   5.310
95102SOL    HW287139  10.886   3.301   5.233
95103SOL     OW87140  14.229  10.779   8.662
95103SOL    HW187141  14.302  10.840   8.670
95103SOL    HW287142  14.184  10.805   8.582
95104SOL     OW87143  14.229   2.840  10.670
95104SOL    HW187144  14.152   2.868  10.720
95104SOL    HW287145  14.227   2.744  10.674
95105SOL     OW87146  12.189   4.517   9.652
95105SOL    HW187147  12.194   4.608   9.623
95105SOL    HW287148  12.239   4.468   9.587
95106SOL     OW87149   3.619   4.797   4.746
95106SOL    HW187150   3.564   4.744   4.689
95106SOL    HW287151   3.604   4.762   4.834
95107SOL     OW87152  12.507   8.472   1.838
95107SOL    HW187153  12.509   8.399   1.899
95107SOL    HW287154  12.504   8.550   1.893
95108SOL     OW87155  13.283   1.334   3.933
95108SOL    HW187156  13.254   1.249   3.965
95108SOL    HW287157  13.358   1.356   3.987
95109SOL     OW87158   2.582  14.724   1.298
95109SOL    HW187159   2.553  14.677   1.377
95109SOL    HW287160   2.509  14.782   1.277
95110SOL     OW87161  12.528  13.852  10.777
95110SOL    HW187162  12.482  13.869  10.695
95110SOL    HW287163  12.563  13.763  10.767
95111SOL     OW87164   2.123   0.362   8.742
95111SOL    HW187165   2.123   0.354   8.647
95111SOL    HW287166   2.155   0.450   8.759
95112SOL     OW87167  10.766  14.832   4.825
95112SOL    HW187168  10.784  14.801   4.736
95112SOL    HW287169  10.838   0.015   4.845
95113SOL     OW87170   9.641   5.033   3.322
95113SOL    HW187171   9.619   5.054   3.412
95113SOL    HW287172   9.575   5.078   3.269
95114SOL     OW87173   0.619  12.759   8.512
95114SOL    HW187174   0.600  12.716   8.595
95114SOL    HW287175   0.532  12.777   8.474
95115SOL     OW87176  13.188   8.255   1.390
95115SOL    HW187177  13.112   8.276   1.336
95115SOL    HW287178  13.259   8.239   1.328
95116SOL     OW87179  10.900   0.101   5.148
95116SOL    HW187180  10.883   0.017   5.191
95116SOL    HW287181  10.938   0.156   5.217
95117SOL     OW87182   5.204   9.639   7.674
95117SOL    HW187183   5.114   9.654   7.647
95117SOL    HW287184   5.239   9.579   7.608
95118SOL     OW87185   8.632   5.650   0.045
95118SOL    HW187186   8.569   5.595   0.092
95118SOL    HW287187   8.646   5.605  14.838
95119SOL     OW87188  13.111   2.060   1.195
95119SOL    HW187189  13.048   2.006   1.147
95119SOL    HW287190  13.143   2.003   1.265
95120SOL     OW87191   6.170   5.800   7.931
95120SOL    HW187192   6.184   5.826   7.840
95120SOL    HW287193   6.144   5.880   7.976
95121SOL     OW87194  13.602   6.524   2.875
95121SOL    HW187195  13.646   6.460   2.818
95121SOL    HW287196  13.513   6.491   2.883
95122SOL     OW87197   4.014   4.721   1.705
95122SOL    HW187198   3.953   4.695   1.773
95122SOL    HW287199   4.043   4.639   1.665
95123SOL     OW87200   5.914  12.842   8.849
95123SOL    HW187201   5.929  12.749   8.829
95123SOL    HW287202   5.923  12.848   8.944
95124SOL     OW87203   1.749   4.576  12.854
95124SOL    HW187204   1.779   4.647  12.797
95124SOL    HW287205   1.759   4.612  12.943
95125SOL     OW87206   9.800  12.047  11.962
95125SOL    HW187207   9.708  12.065  11.941
95125SOL    HW287208   9.846  12.053  11.878
95126SOL     OW87209   6.532   1.792   1.728
95126SOL    HW187210   6.604   1.782   1.791
95126SOL    HW287211   6.565   1.751   1.648
95127SOL     OW87212  10.018   2.802   7.847
95127SOL    HW187213   9.930   2.778   7.817
95127SOL    HW287214  10.065   2.826   7.767
95128SOL     OW87215   2.957  14.108   2.327
95128SOL    HW187216   3.014  14.086   2.400
95128SOL    HW287217   2.904  14.181   2.359
95129SOL     OW87218   9.529  11.430   4.441
95129SOL    HW187219   9.625  11.421   4.441
95129SOL    HW287220   9.498  11.348   4.401
95130SOL     OW87221  13.790   1.608   3.715
95130SOL    HW187222  13.698   1.581   3.717
95130SOL    HW287223  13.838   1.530   3.688
95131SOL     OW87224  10.997   8.795   8.603
95131SOL    HW187225  11.070   8.802   8.541
95131SOL    HW287226  10.943   8.872   8.586
95132SOL     OW87227  10.088  14.674   9.881
95132SOL    HW187228  10.000  14.697   9.850
95132SOL    HW287229  10.076  14.595   9.933
95133SOL     OW87230   1.505  10.046  10.396
95133SOL    HW187231   1.561  10.014  10.324
95133SOL    HW287232   1.530   9.992  10.471
95134SOL     OW87233   8.931   0.551  10.521
95134SOL    HW187234   8.939   0.643  10.548
95134SOL    HW287235   8.841   0.542  10.490
95135SOL     OW87236  14.587  12.609  12.577
95135SOL    HW187237  14.580  12.704  12.588
95135SOL    HW287238  14.499  12.581  12.551
95136SOL     OW87239   5.525  12.909  10.316
95136SOL    HW187240   5.504  12.819  10.341
95136SOL    HW287241   5.450  12.960  10.345
95137SOL     OW87242   7.810   0.035   8.058
95137SOL    HW187243   7.787   0.084   8.137
95137SOL    HW287244   7.777   0.089   7.986
95138SOL     OW87245  13.855   2.066   5.796
95138SOL    HW187246  13.936   2.025   5.765
95138SOL    HW287247  13.789   2.042   5.730
95139SOL     OW87248  14.845  12.386   9.543
95139SOL    HW187249  14.822  12.329   9.469
95139SOL    HW287250   0.049  12.430   9.515
95140SOL     OW87251  14.754   1.241  11.849
95140SOL    HW187252  14.672   1.224  11.803
95140SOL    HW287253  14.820   1.192  11.799
95141SOL     OW87254   2.676  10.691   7.907
95141SOL    HW187255   2.679  10.785   7.926
95141SOL    HW287256   2.746  10.677   7.843
95142SOL     OW87257   6.194   2.161   5.511
95142SOL    HW187258   6.202   2.193   5.421
95142SOL    HW287259   6.217   2.068   5.506
95143SOL     OW87260   5.821   4.881   7.586
95143SOL    HW187261   5.742   4.920   7.624
95143SOL    HW287262   5.835   4.927   7.504
95144SOL     OW87263   4.805  12.179   0.614
95144SOL    HW187264   4.725  12.190   0.666
95144SOL    HW287265   4.870  12.234   0.659
95145SOL     OW87266   7.223  10.788  10.551
95145SOL    HW187267   7.223  10.822  10.461
95145SOL    HW287268   7.289  10.719  10.550
95146SOL     OW87269  14.261  13.574   5.166
95146SOL    HW187270  14.210  13.593   5.088
95146SOL    HW287271  14.318  13.651   5.176
95147SOL     OW87272   5.364  12.082  10.272
95147SOL    HW187273   5.294  12.144  10.292
95147SOL    HW287274   5.373  12.030  10.352
95148SOL     OW87275  12.846   3.608   8.465
95148SOL    HW187276  12.771   3.636   8.413
95148SOL    HW287277  12.909   3.680   8.459
95149SOL     OW87278   3.619   7.710  13.102
95149SOL    HW187279   3.607   7.693  13.009
95149SOL    HW287280   3.593   7.629  13.145
95150SOL     OW87281   9.326   0.442  12.859
95150SOL    HW187282   9.381   0.376  12.901
95150SOL    HW287283   9.263   0.467  12.926
95151SOL     OW87284   8.182  10.281   8.702
95151SOL    HW187285   8.222  10.196   8.717
95151SOL    HW287286   8.126  10.295   8.779
95152SOL     OW87287   2.108   4.669  13.195
95152SOL    HW187288   2.158   4.712  13.126
95152SOL    HW287289   2.017   4.694  13.178
95153SOL     OW87290   5.567   5.545   1.254
95153SOL    HW187291   5.549   5.542   1.160
95153SOL    HW287292   5.657   5.514   1.262
95154SOL     OW87293   0.259   0.131   4.819
95154SOL    HW187294   0.178   0.110   4.772
95154SOL    HW287295   0.232   0.134   4.911
95155SOL     OW87296   3.308   4.424  10.264
95155SOL    HW187297   3.281   4.369  10.338
95155SOL    HW287298   3.303   4.366  10.188
95156SOL     OW87299   1.138   5.471   8.967
95156SOL    HW187300   1.050   5.470   9.006
95156SOL    HW287301   1.187   5.533   9.022
95157SOL     OW87302   6.144  14.653  14.661
95157SOL    HW187303   6.096  14.679  14.582
95157SOL    HW287304   6.080  14.658  14.731
95158SOL     OW87305   3.854   6.580  14.344
95158SOL    HW187306   3.818   6.658  14.303
95158SOL    HW287307   3.936   6.563  14.296
95159SOL     OW87308  12.016   7.333  12.952
95159SOL    HW187309  12.098   7.382  12.943
95159SOL    HW287310  12.033   7.271  13.023
95160SOL     OW87311   8.380   1.610   7.284
95160SOL    HW187312   8.329   1.550   7.229
95160SOL    HW287313   8.430   1.663   7.222
95161SOL     OW87314   5.222   1.759   1.786
95161SOL    HW187315   5.204   1.835   1.842
95161SOL    HW287316   5.313   1.736   1.806
95162SOL     OW87317   6.360   4.588   5.396
95162SOL    HW187318   6.371   4.683   5.395
95162SOL    HW287319   6.347   4.565   5.304
95163SOL     OW87320   0.012  14.584   3.505
95163SOL    HW187321   0.000  14.679   3.503
95163SOL    HW287322   0.102  14.570   3.475
95164SOL     OW87323   2.254   8.109   3.293
95164SOL    HW187324   2.180   8.092   3.350
95164SOL    HW287325   2.222   8.175   3.231
95165SOL     OW87326  11.567   5.610  12.850
95165SOL    HW187327  11.569   5.682  12.787
95165SOL    HW287328  11.509   5.641  12.920
95166SOL     OW87329   0.285   1.141  10.651
95166SOL    HW187330   0.308   1.199  10.724
95166SOL    HW287331   0.274   1.055  10.692
95167SOL     OW87332   7.358   0.547  10.166
95167SOL    HW187333   7.286   0.587  10.213
95167SOL    HW287334   7.342   0.453  10.173
95168SOL     OW87335   6.617   2.954   4.263
95168SOL    HW187336   6.649   3.042   4.240
95168SOL    HW287337   6.662   2.896   4.202
95169SOL     OW87338   9.652  10.942   8.789
95169SOL    HW187339   9.590  10.912   8.723
95169SOL    HW287340   9.702  10.863   8.811
95170SOL     OW87341   5.707   4.698   0.048
95170SOL    HW187342   5.731   4.754  14.850
95170SOL    HW287343   5.738   4.746   0.125
95171SOL     OW87344  12.727   7.652   8.026
95171SOL    HW187345  12.712   7.659   7.931
95171SOL    HW287346  12.651   7.694   8.065
95172SOL     OW87347   5.051   9.065   6.512
95172SOL    HW187348   5.086   9.003   6.576
95172SOL    HW287349   4.969   9.026   6.483
95173SOL     OW87350   6.099   2.614   9.180
95173SOL    HW187351   6.067   2.705   9.173
95173SOL    HW287352   6.182   2.614   9.132
95174SOL     OW87353  11.701   5.064   4.390
95174SOL    HW187354  11.718   5.081   4.297
95174SOL    HW287355  11.745   5.136   4.435
95175SOL     OW87356   6.250   9.470   7.434
95175SOL    HW187357   6.255   9.558   7.473
95175SOL    HW287358   6.302   9.415   7.493
95176SOL     OW87359   4.771   3.101   0.585
95176SOL    HW187360   4.775   3.134   0.495
95176SOL    HW287361   4.792   3.176   0.639
95177SOL     OW87362  13.033   4.772   7.883
95177SOL    HW187363  13.123   4.767   7.915
95177SOL    HW287364  13.003   4.681   7.881
95178SOL     OW87365   3.263  12.709   3.571
95178SOL    HW187366   3.260  12.627   3.520
95178SOL    HW287367   3.315  12.687   3.648
95179SOL     OW87368  10.266  10.121  10.853
95179SOL    HW187369  10.191  10.102  10.911
95179SOL    HW287370  10.242  10.082  10.769
95180SOL     OW87371  11.685   9.479  14.542
95180SOL    HW187372  11.747   9.551  14.538
95180SOL    HW287373  11.651   9.471  14.453
95181SOL     OW87374   0.315  12.591   7.909
95181SOL    HW187375   0.382  12.545   7.959
95181SOL    HW287376   0.346  12.681   7.905
95182SOL     OW87377  12.574   1.810   5.294
95182SOL    HW187378  12.602   1.741   5.234
95182SOL    HW287379  12.550   1.765   5.374
95183SOL     OW87380  12.478   6.178   4.810
95183SOL    HW187381  12.511   6.262   4.843
95183SOL    HW287382  12.414   6.151   4.875
95184SOL     OW87383  10.236   0.747  12.082
95184SOL    HW187384  10.243   0.656  12.055
95184SOL    HW287385  10.153   0.753  12.128
95185SOL     OW87386   3.000  14.591   1.188
95185SOL    HW187387   2.976  14.508   1.147
95185SOL    HW287388   2.994  14.655   1.118
95186SOL     OW87389  11.960   6.966  12.415
95186SOL    HW187390  11.905   7.041  12.391
95186SOL    HW287391  11.913   6.926  12.489
95187SOL     OW87392  11.440  12.124   8.979
95187SOL    HW187393  11.499  12.102   9.051
95187SOL    HW287394  11.474  12.073   8.905
95188SOL     OW87395   9.049  12.593  10.028
95188SOL    HW187396   9.054  12.511  10.078
95188SOL    HW287397   8.974  12.580   9.970
95189SOL     OW87398  10.486   4.810  10.673
95189SOL    HW187399  10.563   4.768  10.714
95189SOL    HW287400  10.459   4.876  10.736
95190SOL     OW87401   7.179   6.560  14.220
95190SOL    HW187402   7.206   6.474  14.252
95190SOL    HW287403   7.222   6.570  14.135
95191SOL     OW87404   3.977   1.406  13.212
95191SOL    HW187405   3.947   1.358  13.288
95191SOL    HW287406   4.008   1.339  13.151
95192SOL     OW87407  13.977  11.024   0.401
95192SOL    HW187408  14.065  11.052   0.374
95192SOL    HW287409  13.941  11.100   0.446
95193SOL     OW87410   5.079   9.491   0.455
95193SOL    HW187411   5.087   9.456   0.366
95193SOL    HW287412   5.155   9.457   0.501
95194SOL     OW87413   1.282   6.984  10.213
95194SOL    HW187414   1.191   6.981  10.243
95194SOL    HW287415   1.277   6.959  10.121
95195SOL     OW87416  11.142   6.871   6.308
95195SOL    HW187417  11.066   6.923   6.335
95195SOL    HW287418  11.168   6.909   6.224
95196SOL     OW87419   2.301   3.650   3.691
95196SOL    HW187420   2.230   3.592   3.667
95196SOL    HW287421   2.281   3.676   3.781
95197SOL     OW87422  11.982   9.370   3.894
95197SOL    HW187423  11.913   9.331   3.840
95197SOL    HW287424  11.969   9.333   3.981
95198SOL     OW87425   8.002   6.566  12.525
95198SOL    HW187426   7.915   6.603  12.542
95198SOL    HW287427   8.012   6.572  12.430
95199SOL     OW87428  10.319  11.572  12.138
95199SOL    HW187429  10.244  11.518  12.163
95199SOL    HW287430  10.381  11.559  12.210
95200SOL     OW87431   1.234   8.788   2.742
95200SOL    HW187432   1.182   8.740   2.807
95200SOL    HW287433   1.170   8.841   2.694
95201SOL     OW87434  10.567  10.560   1.581
95201SOL    HW187435  10.519  10.545   1.662
95201SOL    HW287436  10.499  10.577   1.516
95202SOL     OW87437   5.991   7.435   4.228
95202SOL    HW187438   6.076   7.473   4.207
95202SOL    HW287439   6.007   7.380   4.305
95203SOL     OW87440  12.141  14.134  14.509
95203SOL    HW187441  12.176  14.070  14.571
95203SOL    HW287442  12.211  14.146  14.444
95204SOL     OW87443   3.627   3.805   0.124
95204SOL    HW187444   3.654   3.897   0.118
95204SOL    HW287445   3.592   3.797   0.213
95205SOL     OW87446  14.392  13.346   7.999
95205SOL    HW187447  14.452  13.344   8.074
95205SOL    HW287448  14.310  13.310   8.033
95206SOL     OW87449  13.617   9.655   2.834
95206SOL    HW187450  13.546   9.700   2.790
95206SOL    HW287451  13.668   9.725   2.876
95207SOL     OW87452   8.774   7.396  14.642
95207SOL    HW187453   8.752   7.461  14.709
95207SOL    HW287454   8.713   7.414  14.570
95208SOL     OW87455   8.874  10.924  13.783
95208SOL    HW187456   8.888  11.011  13.745
95208SOL    HW287457   8.817  10.879  13.719
95209SOL     OW87458  12.944  10.102   5.700
95209SOL    HW187459  12.986  10.187   5.681
95209SOL    HW287460  12.953  10.052   5.619
95210SOL     OW87461   2.727  14.665  11.094
95210SOL    HW187462   2.747  14.599  11.160
95210SOL    HW287463   2.787  14.646  11.022
95211SOL     OW87464  10.065  14.191  10.486
95211SOL    HW187465  10.038  14.235  10.405
95211SOL    HW287466  10.001  14.219  10.551
95212SOL     OW87467  11.748   5.875   5.905
95212SOL    HW187468  11.751   5.866   5.810
95212SOL    HW287469  11.823   5.826   5.937
95213SOL     OW87470  13.982  10.564   9.024
95213SOL    HW187471  14.051  10.507   8.988
95213SOL    HW287472  14.008  10.579   9.114
95214SOL     OW87473  13.164  12.434   0.357
95214SOL    HW187474  13.224  12.398   0.422
95214SOL    HW287475  13.132  12.515   0.397
95215SOL     OW87476  12.747   6.759  13.593
95215SOL    HW187477  12.716   6.783  13.506
95215SOL    HW287478  12.779   6.670  13.583
95216SOL     OW87479  14.773   3.700   2.676
95216SOL    HW187480  14.796   3.610   2.699
95216SOL    HW287481  14.857   3.744   2.663
95217SOL     OW87482   4.226   4.469   7.703
95217SOL    HW187483   4.133   4.448   7.695
95217SOL    HW287484   4.257   4.413   7.773
95218SOL     OW87485   6.176  11.748  14.411
95218SOL    HW187486   6.158  11.706  14.496
95218SOL    HW287487   6.141  11.837  14.421
95219SOL     OW87488  11.188  14.058  10.374
95219SOL    HW187489  11.155  14.132  10.323
95219SOL    HW287490  11.128  14.050  10.448
95220SOL     OW87491   4.278  13.275   4.671
95220SOL    HW187492   4.365  13.250   4.642
95220SOL    HW287493   4.235  13.193   4.694
95221SOL     OW87494   5.332   8.329  11.201
95221SOL    HW187495   5.261   8.269  11.177
95221SOL    HW287496   5.290   8.392  11.260
95222SOL     OW87497  11.719  10.661   0.266
95222SOL    HW187498  11.724  10.733   0.203
95222SOL    HW287499  11.810  10.634   0.279
95223SOL     OW87500   7.976   2.204   5.150
95223SOL    HW187501   7.887   2.170   5.161
95223SOL    HW287502   7.975   2.244   5.063
95224SOL     OW87503   9.906   0.675  10.813
95224SOL    HW187504   9.884   0.637  10.728
95224SOL    HW287505   9.857   0.621  10.876
95225SOL     OW87506   4.111   1.660   6.552
95225SOL    HW187507   4.113   1.660   6.648
95225SOL    HW287508   4.187   1.608   6.526
95226SOL     OW87509   9.335  14.391  11.368
95226SOL    HW187510   9.429  14.392  11.347
95226SOL    HW287511   9.293  14.428  11.291
95227SOL     OW87512   4.663   1.185   6.661
95227SOL    HW187513   4.599   1.146   6.602
95227SOL    HW287514   4.674   1.120   6.730
95228SOL     OW87515  13.391  12.222   3.065
95228SOL    HW187516  13.476  12.227   3.022
95228SOL    HW287517  13.332  12.189   2.998
95229SOL     OW87518   4.131   5.558   0.901
95229SOL    HW187519   4.112   5.464   0.902
95229SOL    HW287520   4.158   5.576   0.811
95230SOL     OW87521   7.175   4.490   4.758
95230SOL    HW187522   7.200   4.535   4.839
95230SOL    HW287523   7.228   4.410   4.758
95231SOL     OW87524   0.542  13.780  10.082
95231SOL    HW187525   0.592  13.858  10.059
95231SOL    HW287526   0.456  13.794  10.044
95232SOL     OW87527   7.248   4.361  10.133
95232SOL    HW187528   7.192   4.429  10.095
95232SOL    HW287529   7.302   4.331  10.060
95233SOL     OW87530   3.859   6.202   9.808
95233SOL    HW187531   3.864   6.110   9.832
95233SOL    HW287532   3.854   6.249   9.891
95234SOL     OW87533   0.682   1.058  13.029
95234SOL    HW187534   0.706   1.059  12.937
95234SOL    HW287535   0.587   1.069  13.029
95235SOL     OW87536  11.325   8.019  13.886
95235SOL    HW187537  11.256   8.049  13.827
95235SOL    HW287538  11.404   8.061  13.853
95236SOL     OW87539   3.641  13.014   7.537
95236SOL    HW187540   3.584  13.069   7.590
95236SOL    HW287541   3.585  12.982   7.466
95237SOL     OW87542  13.463   1.815   1.044
95237SOL    HW187543  13.460   1.898   1.092
95237SOL    HW287544  13.512   1.756   1.102
95238SOL     OW87545  11.951   9.865   6.608
95238SOL    HW187546  12.030   9.911   6.634
95238SOL    HW287547  11.892   9.872   6.684
95239SOL     OW87548  13.353  14.518   5.120
95239SOL    HW187549  13.409  14.451   5.080
95239SOL    HW287550  13.366  14.595   5.065
95240SOL     OW87551  10.444   7.968  14.661
95240SOL    HW187552  10.380   7.957  14.732
95240SOL    HW287553  10.424   8.053  14.623
95241SOL     OW87554  10.663   4.727   1.367
95241SOL    HW187555  10.757   4.714   1.359
95241SOL    HW287556  10.624   4.669   1.302
95242SOL     OW87557  10.909  10.851   7.477
95242SOL    HW187558  10.904  10.786   7.547
95242SOL    HW287559  10.999  10.885   7.482
95243SOL     OW87560   8.755  13.457   1.103
95243SOL    HW187561   8.840  13.493   1.128
95243SOL    HW287562   8.758  13.450   1.008
95244SOL     OW87563   6.435   1.303   1.292
95244SOL    HW187564   6.490   1.381   1.279
95244SOL    HW287565   6.368   1.310   1.225
95245SOL     OW87566  12.470  11.528  11.092
95245SOL    HW187567  12.381  11.515  11.061
95245SOL    HW287568  12.472  11.486  11.178
95246SOL     OW87569   7.533   9.858   7.565
95246SOL    HW187570   7.483   9.932   7.532
95246SOL    HW287571   7.617   9.896   7.592
95247SOL     OW87572   9.551  12.866   6.774
95247SOL    HW187573   9.473  12.868   6.831
95247SOL    HW287574   9.624  12.879   6.835
95248SOL     OW87575   3.968  14.776   9.140
95248SOL    HW187576   3.911  14.810   9.071
95248SOL    HW287577   4.056  14.790   9.107
95249SOL     OW87578   2.196   0.567  12.281
95249SOL    HW187579   2.218   0.620  12.204
95249SOL    HW287580   2.223   0.622  12.355
95250SOL     OW87581   8.894   9.402   7.842
95250SOL    HW187582   8.936   9.443   7.766
95250SOL    HW287583   8.947   9.430   7.916
95251SOL     OW87584   2.465  11.301   9.284
95251SOL    HW187585   2.536  11.299   9.349
95251SOL    HW287586   2.465  11.391   9.251
95252SOL     OW87587   8.467  13.117  11.770
95252SOL    HW187588   8.487  13.184  11.704
95252SOL    HW287589   8.547  13.110  11.822
95253SOL     OW87590   4.301  11.533   4.520
95253SOL    HW187591   4.301  11.519   4.615
95253SOL    HW287592   4.390  11.562   4.501
95254SOL     OW87593  11.376   8.771  11.221
95254SOL    HW187594  11.291   8.735  11.197
95254SOL    HW287595  11.432   8.695  11.234
95255SOL     OW87596   2.134   1.488   4.819
95255SOL    HW187597   2.214   1.534   4.843
95255SOL    HW287598   2.112   1.520   4.732
95256SOL     OW87599  12.264   2.861  11.538
95256SOL    HW187600  12.290   2.909  11.616
95256SOL    HW287601  12.207   2.921  11.490
95257SOL     OW87602   4.984   9.627   3.882
95257SOL    HW187603   5.000   9.707   3.932
95257SOL    HW287604   5.055   9.568   3.907
95258SOL     OW87605  12.908  12.900   9.286
95258SOL    HW187606  12.987  12.854   9.257
95258SOL    HW287607  12.838  12.836   9.272
95259SOL     OW87608   3.974   2.952  13.643
95259SOL    HW187609   3.964   2.928  13.552
95259SOL    HW287610   3.920   3.031  13.654
95260SOL     OW87611  10.305   5.918   8.802
95260SOL    HW187612  10.323   5.987   8.865
95260SOL    HW287613  10.248   5.856   8.849
95261SOL     OW87614  11.621  10.736   8.739
95261SOL    HW187615  11.707  10.760   8.706
95261SOL    HW287616  11.611  10.787   8.820
95262SOL     OW87617  11.250   3.347   5.656
95262SOL    HW187618  11.311   3.301   5.599
95262SOL    HW287619  11.176   3.287   5.666
95263SOL     OW87620   3.312  14.823   7.943
95263SOL    HW187621   3.387  14.765   7.954
95263SOL    HW287622   3.240  14.765   7.917
95264SOL     OW87623   4.913  13.060  14.006
95264SOL    HW187624   4.984  13.123  13.993
95264SOL    HW287625   4.863  13.097  14.079
95265SOL     OW87626   1.109   3.372  10.588
95265SOL    HW187627   1.166   3.333  10.522
95265SOL    HW287628   1.047   3.425  10.537
95266SOL     OW87629   1.902   6.296   4.672
95266SOL    HW187630   1.910   6.258   4.584
95266SOL    HW287631   1.952   6.377   4.667
95267SOL     OW87632  10.901   9.985  14.572
95267SOL    HW187633  10.815   9.950  14.551
95267SOL    HW287634  10.954   9.969  14.494
95268SOL     OW87635   4.863   1.707  14.417
95268SOL    HW187636   4.932   1.672  14.473
95268SOL    HW287637   4.820   1.773  14.472
95269SOL     OW87638  13.735   6.995   7.344
95269SOL    HW187639  13.681   7.067   7.310
95269SOL    HW287640  13.735   7.006   7.439
95270SOL     OW87641  13.098   5.364   4.430
95270SOL    HW187642  13.027   5.301   4.431
95270SOL    HW287643  13.098   5.399   4.341
95271SOL     OW87644   0.933   8.944  10.964
95271SOL    HW187645   0.842   8.971  10.976
95271SOL    HW287646   0.927   8.859  10.919
95272SOL     OW87647   3.036   3.422  13.059
95272SOL    HW187648   2.954   3.461  13.029
95272SOL    HW287649   3.062   3.474  13.135
95273SOL     OW87650   4.225  11.469   5.195
95273SOL    HW187651   4.265  11.481   5.282
95273SOL    HW287652   4.298  11.475   5.134
95274SOL     OW87653   8.991   5.177  14.472
95274SOL    HW187654   8.950   5.110  14.418
95274SOL    HW287655   9.040   5.231  14.410
95275SOL     OW87656   2.946  13.459  13.360
95275SOL    HW187657   2.974  13.492  13.275
95275SOL    HW287658   2.996  13.510  13.424
95276SOL     OW87659   8.598   1.551  14.461
95276SOL    HW187660   8.574   1.474  14.512
95276SOL    HW287661   8.527   1.561  14.397
95277SOL     OW87662  13.487  13.309  11.000
95277SOL    HW187663  13.436  13.314  11.081
95277SOL    HW287664  13.553  13.242  11.018
95278SOL     OW87665   4.283   3.316  12.379
95278SOL    HW187666   4.269   3.318  12.473
95278SOL    HW287667   4.373   3.287  12.368
95279SOL     OW87668  10.613  12.763   1.554
95279SOL    HW187669  10.548  12.829   1.576
95279SOL    HW287670  10.684  12.812   1.512
95280SOL     OW87671  13.185  12.367   7.930
95280SOL    HW187672  13.236  12.307   7.876
95280SOL    HW287673  13.202  12.338   8.020
95281SOL     OW87674   7.558   5.282   8.181
95281SOL    HW187675   7.563   5.188   8.199
95281SOL    HW287676   7.475   5.310   8.220
95282SOL     OW87677  12.240   6.413  10.114
95282SOL    HW187678  12.227   6.412  10.020
95282SOL    HW287679  12.325   6.455  10.127
95283SOL     OW87680  10.436   6.283   1.514
95283SOL    HW187681  10.385   6.298   1.435
95283SOL    HW287682  10.408   6.352   1.574
95284SOL     OW87683  11.026   0.601   0.589
95284SOL    HW187684  10.992   0.683   0.623
95284SOL    HW287685  10.948   0.553   0.558
95285SOL     OW87686   2.685   6.429   0.953
95285SOL    HW187687   2.768   6.393   0.982
95285SOL    HW287688   2.667   6.501   1.013
95286SOL     OW87689   2.551  10.844  11.715
95286SOL    HW187690   2.485  10.859  11.647
95286SOL    HW287691   2.623  10.903  11.693
95287SOL     OW87692   2.644   3.585   9.166
95287SOL    HW187693   2.715   3.641   9.198
95287SOL    HW287694   2.611   3.541   9.245
95288SOL     OW87695   6.361  12.144   9.289
95288SOL    HW187696   6.292  12.084   9.314
95288SOL    HW287697   6.442  12.099   9.314
95289SOL     OW87698   0.450   8.210  11.634
95289SOL    HW187699   0.423   8.289  11.681
95289SOL    HW287700   0.405   8.139  11.679
95290SOL     OW87701   7.457   7.379  10.434
95290SOL    HW187702   7.461   7.405  10.526
95290SOL    HW287703   7.483   7.287  10.434
95291SOL     OW87704   3.659   9.423   8.567
95291SOL    HW187705   3.641   9.476   8.489
95291SOL    HW287706   3.672   9.334   8.534
95292SOL     OW87707   5.412   6.900   2.877
95292SOL    HW187708   5.493   6.856   2.852
95292SOL    HW287709   5.405   6.973   2.815
95293SOL     OW87710   0.884  12.852   1.016
95293SOL    HW187711   0.965  12.894   0.986
95293SOL    HW287712   0.880  12.769   0.969
95294SOL     OW87713  10.383   9.781   7.194
95294SOL    HW187714  10.360   9.867   7.158
95294SOL    HW287715  10.415   9.800   7.282
95295SOL     OW87716  12.026  11.540  13.931
95295SOL    HW187717  12.049  11.608  13.868
95295SOL    HW287718  12.002  11.465  13.876
95296SOL     OW87719   6.178   2.921  12.503
95296SOL    HW187720   6.184   2.865  12.581
95296SOL    HW287721   6.153   3.007  12.538
95297SOL     OW87722   9.876  12.858  10.368
95297SOL    HW187723   9.859  12.768  10.338
95297SOL    HW287724   9.844  12.913  10.296
95298SOL     OW87725  10.630  12.113   7.177
95298SOL    HW187726  10.549  12.117   7.125
95298SOL    HW287727  10.700  12.129   7.114
95299SOL     OW87728   1.388  13.979   2.265
95299SOL    HW187729   1.441  13.904   2.238
95299SOL    HW287730   1.326  13.991   2.193
95300SOL     OW87731   8.656   3.617   4.778
95300SOL    HW187732   8.662   3.620   4.873
95300SOL    HW287733   8.732   3.666   4.747
95301SOL     OW87734   0.836   9.323   9.436
95301SOL    HW187735   0.911   9.327   9.377
95301SOL    HW287736   0.827   9.230   9.458
95302SOL     OW87737   4.654  10.217  14.730
95302SOL    HW187738   4.645  10.311  14.744
95302SOL    HW287739   4.740  10.207  14.690
95303SOL     OW87740  12.654   4.701   0.800
95303SOL    HW187741  12.714   4.775   0.790
95303SOL    HW287742  12.709   4.624   0.792
95304SOL     OW87743   8.037   2.451  11.842
95304SOL    HW187744   7.981   2.436  11.918
95304SOL    HW287745   7.999   2.396  11.773
95305SOL     OW87746  14.245   4.891   2.330
95305SOL    HW187747  14.338   4.888   2.352
95305SOL    HW287748  14.237   4.837   2.252
95306SOL     OW87749   2.606   8.453   8.415
95306SOL    HW187750   2.606   8.524   8.351
95306SOL    HW287751   2.608   8.373   8.362
95307SOL     OW87752  11.363   2.203  13.991
95307SOL    HW187753  11.333   2.118  14.023
95307SOL    HW287754  11.367   2.257  14.070
95308SOL     OW87755   5.385   9.209  11.638
95308SOL    HW187756   5.455   9.193  11.575
95308SOL    HW287757   5.304   9.193  11.590
95309SOL     OW87758   2.399  14.015   9.312
95309SOL    HW187759   2.313  14.004   9.353
95309SOL    HW287760   2.427  13.927   9.290
95310SOL     OW87761  12.277   3.073  11.750
95310SOL    HW187762  12.187   3.061  11.782
95310SOL    HW287763  12.292   3.168  11.758
95311SOL     OW87764   3.143   4.920   9.385
95311SOL    HW187765   3.131   4.957   9.472
95311SOL    HW287766   3.066   4.864   9.372
95312SOL     OW87767  14.677   5.823   7.811
95312SOL    HW187768  14.732   5.899   7.828
95312SOL    HW287769  14.734   5.748   7.827
95313SOL     OW87770  12.014   7.628  14.101
95313SOL    HW187771  12.058   7.714  14.103
95313SOL    HW287772  11.994   7.610  14.193
95314SOL     OW87773   7.902   7.025   0.506
95314SOL    HW187774   7.922   6.940   0.466
95314SOL    HW287775   7.868   7.002   0.593
95315SOL     OW87776  13.869   8.278   4.045
95315SOL    HW187777  13.849   8.371   4.052
95315SOL    HW287778  13.955   8.269   4.086
95316SOL     OW87779   7.809  10.558  14.646
95316SOL    HW187780   7.792  10.575  14.739
95316SOL    HW287781   7.882  10.616  14.623
95317SOL     OW87782   4.571  11.466   9.586
95317SOL    HW187783   4.489  11.495   9.545
95317SOL    HW287784   4.636  11.531   9.559
95318SOL     OW87785  14.569  12.401   7.133
95318SOL    HW187786  14.503  12.331   7.142
95318SOL    HW287787  14.645  12.357   7.094
95319SOL     OW87788   3.263  14.401   1.790
95319SOL    HW187789   3.279  14.316   1.748
95319SOL    HW287790   3.257  14.381   1.883
95320SOL     OW87791   2.443   7.422   2.134
95320SOL    HW187792   2.371   7.361   2.117
95320SOL    HW287793   2.401   7.508   2.143
95321SOL     OW87794   6.791  13.855   4.376
95321SOL    HW187795   6.774  13.904   4.456
95321SOL    HW287796   6.857  13.790   4.400
95322SOL     OW87797  12.597   7.454   7.524
95322SOL    HW187798  12.619   7.508   7.448
95322SOL    HW287799  12.536   7.388   7.491
95323SOL     OW87800   4.221   2.069  13.417
95323SOL    HW187801   4.209   1.977  13.442
95323SOL    HW287802   4.257   2.110  13.495
95324SOL     OW87803   5.183  10.484   0.144
95324SOL    HW187804   5.234  10.562   0.123
95324SOL    HW287805   5.241  10.432   0.200
95325SOL     OW87806   9.840   3.552   2.397
95325SOL    HW187807   9.888   3.579   2.319
95325SOL    HW287808   9.906   3.512   2.454
95326SOL     OW87809   7.108   9.098  11.631
95326SOL    HW187810   7.199   9.124  11.625
95326SOL    HW287811   7.102   9.017  11.579
95327SOL     OW87812   1.746   1.710   2.553
95327SOL    HW187813   1.787   1.792   2.580
95327SOL    HW287814   1.659   1.737   2.521
95328SOL     OW87815   9.256   3.337   8.767
95328SOL    HW187816   9.327   3.282   8.800
95328SOL    HW287817   9.291   3.378   8.688
95329SOL     OW87818   9.633   0.154   3.530
95329SOL    HW187819   9.630   0.248   3.512
95329SOL    HW287820   9.579   0.115   3.462
95330SOL     OW87821   4.885  13.432  10.976
95330SOL    HW187822   4.898  13.337  10.977
95330SOL    HW287823   4.973  13.468  10.979
95331SOL     OW87824   7.148   6.317  11.804
95331SOL    HW187825   7.071   6.261  11.797
95331SOL    HW287826   7.163   6.347  11.714
95332SOL     OW87827   8.990   0.822   7.826
95332SOL    HW187828   8.981   0.748   7.766
95332SOL    HW287829   9.046   0.789   7.896
95333SOL     OW87830  12.732   8.580  12.404
95333SOL    HW187831  12.655   8.621  12.365
95333SOL    HW287832  12.739   8.495  12.359
95334SOL     OW87833   6.037   3.548   2.016
95334SOL    HW187834   5.974   3.575   2.083
95334SOL    HW287835   6.059   3.629   1.970
95335SOL     OW87836   9.354   6.166   0.964
95335SOL    HW187837   9.406   6.238   0.999
95335SOL    HW287838   9.267   6.204   0.950
95336SOL     OW87839   9.431   2.119   9.130
95336SOL    HW187840   9.378   2.050   9.091
95336SOL    HW287841   9.477   2.076   9.202
95337SOL     OW87842   2.698  12.156  13.201
95337SOL    HW187843   2.778  12.140  13.150
95337SOL    HW287844   2.627  12.148  13.138
95338SOL     OW87845   1.398   0.783   1.987
95338SOL    HW187846   1.317   0.743   1.954
95338SOL    HW287847   1.439   0.715   2.039
95339SOL     OW87848   5.375   1.519  11.036
95339SOL    HW187849   5.464   1.496  11.007
95339SOL    HW287850   5.338   1.567  10.962
95340SOL     OW87851   1.138  12.883   0.982
95340SOL    HW187852   1.168  12.827   0.911
95340SOL    HW287853   1.213  12.938   1.004
95341SOL     OW87854   5.387   8.790   7.105
95341SOL    HW187855   5.457   8.726   7.116
95341SOL    HW287856   5.350   8.771   7.019
95342SOL     OW87857  14.038   0.582   6.320
95342SOL    HW187858  13.984   0.660   6.303
95342SOL    HW287859  14.127   0.610   6.297
95343SOL     OW87860   0.853   2.328  11.963
95343SOL    HW187861   0.818   2.399  11.910
95343SOL    HW287862   0.818   2.345  12.051
95344SOL     OW87863  14.799   6.410  10.539
95344SOL    HW187864  14.752   6.477  10.489
95344SOL    HW287865  14.729   6.356  10.577
95345SOL     OW87866  13.533   4.783   9.653
95345SOL    HW187867  13.554   4.750   9.741
95345SOL    HW287868  13.459   4.730   9.624
95346SOL     OW87869  13.785   0.131  13.704
95346SOL    HW187870  13.811   0.189  13.775
95346SOL    HW287871  13.848   0.148  13.635
95347SOL     OW87872   8.515   7.675  13.655
95347SOL    HW187873   8.427   7.640  13.674
95347SOL    HW287874   8.532   7.735  13.728
95348SOL     OW87875   7.536   6.156   4.259
95348SOL    HW187876   7.501   6.128   4.175
95348SOL    HW287877   7.627   6.179   4.241
95349SOL     OW87878   7.798   9.930  13.718
95349SOL    HW187879   7.707   9.909  13.698
95349SOL    HW287880   7.811   9.898  13.807
95350SOL     OW87881   9.534   5.189   9.101
95350SOL    HW187882   9.593   5.144   9.039
95350SOL    HW287883   9.584   5.265   9.131
95351SOL     OW87884   9.365  13.618   8.697
95351SOL    HW187885   9.445  13.616   8.645
95351SOL    HW287886   9.381  13.555   8.767
95352SOL     OW87887  12.802   0.488   9.425
95352SOL    HW187888  12.836   0.577   9.434
95352SOL    HW287889  12.860   0.434   9.478
95353SOL     OW87890   8.675  10.429   3.645
95353SOL    HW187891   8.594  10.380   3.658
95353SOL    HW287892   8.685  10.434   3.550
95354SOL     OW87893   5.280   2.385  14.323
95354SOL    HW187894   5.355   2.416  14.374
95354SOL    HW287895   5.282   2.438  14.243
95355SOL     OW87896   8.611   2.254   0.608
95355SOL    HW187897   8.518   2.256   0.631
95355SOL    HW287898   8.613   2.216   0.520
95356SOL     OW87899   6.793   7.698  10.987
95356SOL    HW187900   6.792   7.609  11.023
95356SOL    HW287901   6.795   7.685  10.892
95357SOL     OW87902   5.210   8.842   2.297
95357SOL    HW187903   5.225   8.776   2.229
95357SOL    HW287904   5.115   8.840   2.312
95358SOL     OW87905   1.601  10.190   1.695
95358SOL    HW187906   1.581  10.163   1.785
95358SOL    HW287907   1.591  10.285   1.696
95359SOL     OW87908   6.998   4.118   6.819
95359SOL    HW187909   6.959   4.170   6.889
95359SOL    HW287910   7.004   4.177   6.745
95360SOL     OW87911   5.985   1.468  11.298
95360SOL    HW187912   5.911   1.527  11.289
95360SOL    HW287913   5.960   1.389  11.251
95361SOL     OW87914   3.371   8.825  10.132
95361SOL    HW187915   3.320   8.906  10.135
95361SOL    HW287916   3.344   8.778  10.211
95362SOL     OW87917   9.468  11.890  11.301
95362SOL    HW187918   9.455  11.975  11.343
95362SOL    HW287919   9.427  11.827  11.361
95363SOL     OW87920   4.558   5.289   1.217
95363SOL    HW187921   4.510   5.358   1.172
95363SOL    HW287922   4.647   5.324   1.225
95364SOL     OW87923  13.849   1.586   2.798
95364SOL    HW187924  13.774   1.644   2.785
95364SOL    HW287925  13.814   1.498   2.784
95365SOL     OW87926   9.969   8.228  10.195
95365SOL    HW187927  10.011   8.249  10.111
95365SOL    HW287928   9.885   8.274  10.192
95366SOL     OW87929   4.555  12.234  13.935
95366SOL    HW187930   4.475  12.186  13.953
95366SOL    HW287931   4.593  12.250  14.021
95367SOL     OW87932  10.355   8.971  10.533
95367SOL    HW187933  10.318   8.985  10.445
95367SOL    HW287934  10.289   9.006  10.593
95368SOL     OW87935  13.537   1.820   8.561
95368SOL    HW187936  13.479   1.775   8.499
95368SOL    HW287937  13.539   1.761   8.637
95369SOL     OW87938  11.092   7.159   1.236
95369SOL    HW187939  11.143   7.223   1.186
95369SOL    HW287940  11.057   7.210   1.310
95370SOL     OW87941   7.223   9.414   0.837
95370SOL    HW187942   7.142   9.429   0.789
95370SOL    HW287943   7.291   9.449   0.780
95371SOL     OW87944  13.304   8.761   4.643
95371SOL    HW187945  13.349   8.753   4.727
95371SOL    HW287946  13.350   8.833   4.599
95372SOL     OW87947   1.651   5.421   4.570
95372SOL    HW187948   1.655   5.499   4.625
95372SOL    HW287949   1.667   5.453   4.481
95373SOL     OW87950   6.959  10.945  12.365
95373SOL    HW187951   6.906  10.886  12.311
95373SOL    HW287952   6.945  10.915  12.455
95374SOL     OW87953   6.248  14.232   6.908
95374SOL    HW187954   6.256  14.252   7.001
95374SOL    HW287955   6.235  14.317   6.866
95375SOL     OW87956   7.126  11.563  12.198
95375SOL    HW187957   7.114  11.652  12.230
95375SOL    HW287958   7.179  11.520  12.265
95376SOL     OW87959   3.945  14.582  11.163
95376SOL    HW187960   3.873  14.629  11.120
95376SOL    HW287961   3.976  14.520  11.098
95377SOL     OW87962   0.980  12.911   4.501
95377SOL    HW187963   0.980  12.892   4.595
95377SOL    HW287964   1.071  12.902   4.474
95378SOL     OW87965  12.849  13.099   8.502
95378SOL    HW187966  12.929  13.084   8.451
95378SOL    HW287967  12.799  13.018   8.492
95379SOL     OW87968  10.145  13.104   3.240
95379SOL    HW187969  10.131  13.173   3.176
95379SOL    HW287970  10.193  13.145   3.311
95380SOL     OW87971  11.045   9.835   3.899
95380SOL    HW187972  11.130   9.821   3.942
95380SOL    HW287973  11.051   9.922   3.860
95381SOL     OW87974   9.185   3.325   2.934
95381SOL    HW187975   9.102   3.279   2.923
95381SOL    HW287976   9.247   3.278   2.878
95382SOL     OW87977   8.962   3.884   9.693
95382SOL    HW187978   8.903   3.812   9.714
95382SOL    HW287979   8.979   3.875   9.599
95383SOL     OW87980  13.823   4.574  10.832
95383SOL    HW187981  13.771   4.649  10.802
95383SOL    HW287982  13.913   4.607  10.837
95384SOL     OW87983   9.240  10.408   1.107
95384SOL    HW187984   9.237  10.487   1.162
95384SOL    HW287985   9.249  10.336   1.169
95385SOL     OW87986  13.907   4.620   1.815
95385SOL    HW187987  13.928   4.682   1.746
95385SOL    HW287988  13.884   4.675   1.891
95386SOL     OW87989   7.841   9.520  12.525
95386SOL    HW187990   7.909   9.454  12.536
95386SOL    HW287991   7.880   9.586  12.467
95387SOL     OW87992  11.224   3.902   8.988
95387SOL    HW187993  11.283   3.895   9.063
95387SOL    HW287994  11.250   3.982   8.944
95388SOL     OW87995   5.963  12.729   2.082
95388SOL    HW187996   5.930  12.643   2.057
95388SOL    HW287997   6.033  12.747   2.019
95389SOL     OW87998   7.640   5.072   0.920
95389SOL    HW187999   7.587   5.001   0.885
95389SOL    HW288000   7.600   5.152   0.885
95390SOL     OW88001   2.078  10.757   1.753
95390SOL    HW188002   2.129  10.799   1.822
95390SOL    HW288003   1.991  10.795   1.762
95391SOL     OW88004   5.929   5.200  13.360
95391SOL    HW188005   5.968   5.234  13.441
95391SOL    HW288006   5.839   5.231  13.362
95392SOL     OW88007   4.895  12.241   6.529
95392SOL    HW188008   4.890  12.146   6.536
95392SOL    HW288009   4.956  12.267   6.599
95393SOL     OW88010   0.339   5.760  14.108
95393SOL    HW188011   0.263   5.752  14.050
95393SOL    HW288012   0.390   5.832  14.071
95394SOL     OW88013   7.019   5.051  13.933
95394SOL    HW188014   7.023   5.144  13.955
95394SOL    HW288015   6.926   5.033  13.919
95395SOL     OW88016   3.982   5.631   5.626
95395SOL    HW188017   3.960   5.675   5.544
95395SOL    HW288018   4.008   5.543   5.599
95396SOL     OW88019  13.685   7.189   5.764
95396SOL    HW188020  13.640   7.237   5.834
95396SOL    HW288021  13.665   7.238   5.685
95397SOL     OW88022   3.877  12.071   3.893
95397SOL    HW188023   3.836  12.098   3.811
95397SOL    HW288024   3.946  12.010   3.866
95398SOL     OW88025   6.397   4.658  12.010
95398SOL    HW188026   6.353   4.573  12.019
95398SOL    HW288027   6.488   4.636  11.990
95399SOL     OW88028  11.781  12.126   1.010
95399SOL    HW188029  11.825  12.053   1.054
95399SOL    HW288030  11.719  12.084   0.950
95400SOL     OW88031  10.885   5.194   1.448
95400SOL    HW188032  10.806   5.171   1.399
95400SOL    HW288033  10.852   5.237   1.527
95401SOL     OW88034   1.363   8.343   6.805
95401SOL    HW188035   1.397   8.432   6.802
95401SOL    HW288036   1.282   8.350   6.854
95402SOL     OW88037   2.281   5.237   0.398
95402SOL    HW188038   2.190   5.210   0.385
95402SOL    HW288039   2.276   5.325   0.434
95403SOL     OW88040   9.787   2.302  11.696
95403SOL    HW188041   9.851   2.349  11.642
95403SOL    HW288042   9.796   2.210  11.671
95404SOL     OW88043   3.118  13.647   4.631
95404SOL    HW188044   3.204  13.634   4.671
95404SOL    HW288045   3.058  13.654   4.706
95405SOL     OW88046   7.244   5.493   7.980
95405SOL    HW188047   7.158   5.464   7.950
95405SOL    HW288048   7.289   5.520   7.900
95406SOL     OW88049   6.400   1.104   7.176
95406SOL    HW188050   6.421   1.016   7.207
95406SOL    HW288051   6.351   1.090   7.095
95407SOL     OW88052   1.210   9.114   4.918
95407SOL    HW188053   1.251   9.164   4.988
95407SOL    HW288054   1.268   9.039   4.905
95408SOL     OW88055   1.274   1.137  12.418
95408SOL    HW188056   1.272   1.078  12.343
95408SOL    HW288057   1.347   1.105  12.472
95409SOL     OW88058   0.450  11.492  13.051
95409SOL    HW188059   0.490  11.460  12.970
95409SOL    HW288060   0.362  11.455  13.051
95410SOL     OW88061   3.006  13.649  12.198
95410SOL    HW188062   3.001  13.712  12.127
95410SOL    HW288063   2.969  13.695  12.274
95411SOL     OW88064  10.667  11.023  14.703
95411SOL    HW188065  10.587  10.995  14.745
95411SOL    HW288066  10.655  11.117  14.688
95412SOL     OW88067   6.971   2.055   5.119
95412SOL    HW188068   6.970   1.979   5.177
95412SOL    HW288069   6.956   2.130   5.176
95413SOL     OW88070   1.157   1.290   0.536
95413SOL    HW188071   1.133   1.209   0.582
95413SOL    HW288072   1.117   1.282   0.450
95414SOL     OW88073   8.106   3.003   5.272
95414SOL    HW188074   8.013   2.982   5.265
95414SOL    HW288075   8.129   2.981   5.363
95415SOL     OW88076   5.712   2.315  10.353
95415SOL    HW188077   5.768   2.264  10.411
95415SOL    HW288078   5.676   2.251  10.292
95416SOL     OW88079  13.363   6.199   7.854
95416SOL    HW188080  13.323   6.204   7.767
95416SOL    HW288081  13.306   6.142   7.904
95417SOL     OW88082   0.482   7.708   6.702
95417SOL    HW188083   0.535   7.776   6.743
95417SOL    HW288084   0.455   7.652   6.774
95418SOL     OW88085  14.468   0.205  10.987
95418SOL    HW188086  14.458   0.165  11.073
95418SOL    HW288087  14.561   0.194  10.966
95419SOL     OW88088  13.627   3.001  11.959
95419SOL    HW188089  13.538   3.028  11.981
95419SOL    HW288090  13.681   3.079  11.975
95420SOL     OW88091  14.315   7.416   9.406
95420SOL    HW188092  14.222   7.419   9.384
95420SOL    HW288093  14.333   7.501   9.445
95421SOL     OW88094  11.979   4.922  11.142
95421SOL    HW188095  11.965   4.979  11.067
95421SOL    HW288096  11.978   4.980  11.218
95422SOL     OW88097  10.402  10.858  14.151
95422SOL    HW188098  10.436  10.790  14.210
95422SOL    HW288099  10.479  10.910  14.127
95423SOL     OW88100   4.538  10.222   9.246
95423SOL    HW188101   4.531  10.145   9.189
95423SOL    HW288102   4.496  10.292   9.195
95424SOL     OW88103  12.260   0.682  10.314
95424SOL    HW188104  12.353   0.661  10.303
95424SOL    HW288105  12.229   0.618  10.378
95425SOL     OW88106   7.423   9.809  12.898
95425SOL    HW188107   7.491   9.855  12.947
95425SOL    HW288108   7.364   9.776  12.965
95426SOL     OW88109   0.876   9.441   2.059
95426SOL    HW188110   0.903   9.367   2.004
95426SOL    HW288111   0.945   9.507   2.046
95427SOL     OW88112  11.952   5.225   4.773
95427SOL    HW188113  11.922   5.136   4.792
95427SOL    HW288114  11.989   5.256   4.855
95428SOL     OW88115   4.237  14.511   8.569
95428SOL    HW188116   4.307  14.571   8.593
95428SOL    HW288117   4.271  14.463   8.493
95429SOL     OW88118  10.031  14.094  13.545
95429SOL    HW188119  10.096  14.150  13.587
95429SOL    HW288120  10.082  14.022  13.509
95430SOL     OW88121   2.549   4.133   6.820
95430SOL    HW188122   2.564   4.203   6.757
95430SOL    HW288123   2.464   4.097   6.796
95431SOL     OW88124   4.906  14.538   9.105
95431SOL    HW188125   4.844  14.468   9.082
95431SOL    HW288126   4.990  14.493   9.114
95432SOL     OW88127  14.718  11.477   6.760
95432SOL    HW188128  14.737  11.432   6.677
95432SOL    HW288129  14.624  11.467   6.771
95433SOL     OW88130   3.489   8.964   3.916
95433SOL    HW188131   3.584   8.953   3.914
95433SOL    HW288132   3.458   8.905   3.847
95434SOL     OW88133   5.000   2.673  11.009
95434SOL    HW188134   5.068   2.740  11.015
95434SOL    HW288135   5.047   2.593  10.983
95435SOL     OW88136   1.460   1.273   5.151
95435SOL    HW188137   1.404   1.289   5.074
95435SOL    HW288138   1.400   1.238   5.217
95436SOL     OW88139   5.953   4.351   3.208
95436SOL    HW188140   5.973   4.438   3.173
95436SOL    HW288141   5.861   4.338   3.189
95437SOL     OW88142   4.759   3.754   7.533
95437SOL    HW188143   4.739   3.758   7.626
95437SOL    HW288144   4.717   3.833   7.497
95438SOL     OW88145   1.930   4.408   8.872
95438SOL    HW188146   1.921   4.313   8.883
95438SOL    HW288147   1.870   4.445   8.937
95439SOL     OW88148   0.103   8.439  10.637
95439SOL    HW188149   0.116   8.453  10.731
95439SOL    HW288150   0.175   8.381  10.612
95440SOL     OW88151  11.646   9.852  13.484
95440SOL    HW188152  11.590   9.879  13.557
95440SOL    HW288153  11.646   9.928  13.425
95441SOL     OW88154  14.235   8.099   5.277
95441SOL    HW188155  14.261   8.085   5.186
95441SOL    HW288156  14.304   8.154   5.313
95442SOL     OW88157   5.655   5.455   9.329
95442SOL    HW188158   5.635   5.486   9.417
95442SOL    HW288159   5.569   5.443   9.288
95443SOL     OW88160   9.573   1.609  13.398
95443SOL    HW188161   9.479   1.610  13.418
95443SOL    HW288162   9.583   1.538  13.335
95444SOL     OW88163   3.051  12.004   5.313
95444SOL    HW188164   3.000  11.956   5.379
95444SOL    HW288165   3.140  12.005   5.348
95445SOL     OW88166  13.615  12.744  11.181
95445SOL    HW188167  13.611  12.743  11.085
95445SOL    HW288168  13.572  12.826  11.206
95446SOL     OW88169   8.688   0.826  10.764
95446SOL    HW188170   8.643   0.755  10.718
95446SOL    HW288171   8.617   0.877  10.804
95447SOL     OW88172  11.603   9.120   8.928
95447SOL    HW188173  11.623   9.183   8.998
95447SOL    HW288174  11.570   9.174   8.856
95448SOL     OW88175   8.906  10.491   6.191
95448SOL    HW188176   8.907  10.500   6.096
95448SOL    HW288177   8.863  10.572   6.221
95449SOL     OW88178   5.150  11.262   9.106
95449SOL    HW188179   5.072  11.311   9.132
95449SOL    HW288180   5.123  11.214   9.028
95450SOL     OW88181   3.963  10.294   2.220
95450SOL    HW188182   3.901  10.246   2.275
95450SOL    HW288183   4.042  10.240   2.221
95451SOL     OW88184   4.731  13.786  13.208
95451SOL    HW188185   4.705  13.697  13.185
95451SOL    HW288186   4.826  13.788  13.196
95452SOL     OW88187   9.914   7.915  13.296
95452SOL    HW188188   9.846   7.882  13.238
95452SOL    HW288189   9.891   8.007  13.311
95453SOL     OW88190   4.664   2.394   1.092
95453SOL    HW188191   4.719   2.472   1.089
95453SOL    HW288192   4.585   2.422   1.138
95454SOL     OW88193   7.040  13.913   5.537
95454SOL    HW188194   7.127  13.919   5.576
95454SOL    HW288195   7.051  13.857   5.460
95455SOL     OW88196   2.527   0.507   9.335
95455SOL    HW188197   2.623   0.503   9.329
95455SOL    HW288198   2.498   0.424   9.297
95456SOL     OW88199  10.469   6.792  11.078
95456SOL    HW188200  10.505   6.763  10.995
95456SOL    HW288201  10.448   6.711  11.125
95457SOL     OW88202  13.748  13.582   4.002
95457SOL    HW188203  13.693  13.656   4.029
95457SOL    HW288204  13.837  13.617   4.002
95458SOL     OW88205   4.170   9.740   9.972
95458SOL    HW188206   4.194   9.789  10.051
95458SOL    HW288207   4.201   9.651   9.989
95459SOL     OW88208   2.543   9.692  14.837
95459SOL    HW188209   2.605   9.752  14.796
95459SOL    HW288210   2.507   9.741   0.035
95460SOL     OW88211   4.103  11.212   0.024
95460SOL    HW188212   4.039  11.213  14.828
95460SOL    HW288213   4.169  11.148  14.873
95461SOL     OW88214   7.888   2.090   3.190
95461SOL    HW188215   7.828   2.038   3.136
95461SOL    HW288216   7.851   2.179   3.188
95462SOL     OW88217   4.446   5.627   2.132
95462SOL    HW188218   4.498   5.703   2.159
95462SOL    HW288219   4.488   5.596   2.052
95463SOL     OW88220  13.607   4.331   4.400
95463SOL    HW188221  13.673   4.396   4.423
95463SOL    HW288222  13.550   4.376   4.337
95464SOL     OW88223  14.373   3.114  12.295
95464SOL    HW188224  14.452   3.167  12.284
95464SOL    HW288225  14.397   3.048  12.361
95465SOL     OW88226  11.136   2.239   4.075
95465SOL    HW188227  11.226   2.217   4.052
95465SOL    HW288228  11.083   2.184   4.016
95466SOL     OW88229   2.404   9.003  10.380
95466SOL    HW188230   2.444   9.065  10.441
95466SOL    HW288231   2.361   9.058  10.314
95467SOL     OW88232  11.705  10.279   2.394
95467SOL    HW188233  11.659  10.206   2.434
95467SOL    HW288234  11.774  10.238   2.342
95468SOL     OW88235   8.210   3.436  13.430
95468SOL    HW188236   8.265   3.369  13.470
95468SOL    HW288237   8.226   3.515  13.481
95469SOL     OW88238   8.225   2.750   2.589
95469SOL    HW188239   8.194   2.731   2.678
95469SOL    HW288240   8.318   2.729   2.591
95470SOL     OW88241   5.753  14.211  13.059
95470SOL    HW188242   5.706  14.212  12.976
95470SOL    HW288243   5.771  14.304  13.077
95471SOL     OW88244  14.037  12.537   7.955
95471SOL    HW188245  13.995  12.451   7.949
95471SOL    HW288246  14.125  12.523   7.919
95472SOL     OW88247   7.386  12.991  10.560
95472SOL    HW188248   7.378  13.086  10.565
95472SOL    HW288249   7.300  12.962  10.528
95473SOL     OW88250   5.069   2.892   7.867
95473SOL    HW188251   5.000   2.840   7.825
95473SOL    HW288252   5.122   2.925   7.794
95474SOL     OW88253   2.410   8.105   9.993
95474SOL    HW188254   2.349   8.058  10.050
95474SOL    HW288255   2.377   8.195   9.991
95475SOL     OW88256   0.245   4.171   7.887
95475SOL    HW188257   0.185   4.244   7.906
95475SOL    HW288258   0.269   4.184   7.795
95476SOL     OW88259   0.804   9.693   1.801
95476SOL    HW188260   0.831   9.602   1.791
95476SOL    HW288261   0.775   9.700   1.892
95477SOL     OW88262   7.457  10.636  10.482
95477SOL    HW188263   7.535  10.627  10.427
95477SOL    HW288264   7.397  10.569  10.449
95478SOL     OW88265  11.960   7.438   0.511
95478SOL    HW188266  11.886   7.494   0.535
95478SOL    HW288267  11.999   7.481   0.435
95479SOL     OW88268   8.495  10.225   6.611
95479SOL    HW188269   8.443  10.300   6.640
95479SOL    HW288270   8.448  10.149   6.644
95480SOL     OW88271   7.342   8.659   9.990
95480SOL    HW188272   7.248   8.668   9.978
95480SOL    HW288273   7.351   8.600  10.065
95481SOL     OW88274   3.555   7.407   6.724
95481SOL    HW188275   3.636   7.448   6.692
95481SOL    HW288276   3.584   7.326   6.765
95482SOL     OW88277   8.310   1.380   9.074
95482SOL    HW188278   8.238   1.319   9.089
95482SOL    HW288279   8.381   1.326   9.039
95483SOL     OW88280  12.972   9.844  10.901
95483SOL    HW188281  13.018   9.927  10.888
95483SOL    HW288282  12.910   9.862  10.972
95484SOL     OW88283   9.936   5.098  14.280
95484SOL    HW188284   9.845   5.069  14.272
95484SOL    HW288285   9.944   5.172  14.220
95485SOL     OW88286  10.176  12.544   5.091
95485SOL    HW188287  10.184  12.473   5.155
95485SOL    HW288288  10.239  12.610   5.121
95486SOL     OW88289  13.421  14.577  11.258
95486SOL    HW188290  13.356  14.562  11.327
95486SOL    HW288291  13.503  14.543  11.294
95487SOL     OW88292   9.963   6.702   3.531
95487SOL    HW188293  10.029   6.765   3.561
95487SOL    HW288294   9.974   6.699   3.436
95488SOL     OW88295   1.188   3.818   9.690
95488SOL    HW188296   1.259   3.844   9.632
95488SOL    HW288297   1.124   3.889   9.683
95489SOL     OW88298   8.241   6.629  11.084
95489SOL    HW188299   8.237   6.634  10.989
95489SOL    HW288300   8.333   6.614  11.104
95490SOL     OW88301   6.148  12.770   0.441
95490SOL    HW188302   6.080  12.824   0.401
95490SOL    HW288303   6.112  12.747   0.527
95491SOL     OW88304   4.933  14.674   2.760
95491SOL    HW188305   4.931  14.709   2.849
95491SOL    HW288306   4.954  14.749   2.705
95492SOL     OW88307   2.604   3.399   0.015
95492SOL    HW188308   2.536   3.394  14.824
95492SOL    HW288309   2.574   3.341   0.085
95493SOL     OW88310   7.234   8.297   9.008
95493SOL    HW188311   7.202   8.368   9.064
95493SOL    HW288312   7.171   8.294   8.936
95494SOL     OW88313   8.638  10.724   1.355
95494SOL    HW188314   8.707  10.746   1.417
95494SOL    HW288315   8.564  10.698   1.410
95495SOL     OW88316   7.812  10.212   5.253
95495SOL    HW188317   7.834  10.276   5.320
95495SOL    HW288318   7.771  10.263   5.184
95496SOL     OW88319   8.175  12.104   5.339
95496SOL    HW188320   8.100  12.152   5.373
95496SOL    HW288321   8.250  12.140   5.387
95497SOL     OW88322   4.558  11.361  11.826
95497SOL    HW188323   4.522  11.389  11.911
95497SOL    HW288324   4.481  11.353  11.770
95498SOL     OW88325   1.415   7.111  10.887
95498SOL    HW188326   1.454   7.033  10.927
95498SOL    HW288327   1.488   7.153  10.841
95499SOL     OW88328   0.184  10.191  13.254
95499SOL    HW188329   0.262  10.231  13.216
95499SOL    HW288330   0.148  10.137  13.184
95500SOL     OW88331   0.360   4.755   1.541
95500SOL    HW188332   0.323   4.704   1.469
95500SOL    HW288333   0.405   4.828   1.498
95501SOL     OW88334   8.018  12.140   0.479
95501SOL    HW188335   7.971  12.134   0.562
95501SOL    HW288336   8.081  12.068   0.482
95502SOL     OW88337   7.971  11.502  12.405
95502SOL    HW188338   8.049  11.557  12.399
95502SOL    HW288339   7.926  11.533  12.484
95503SOL     OW88340  12.810   3.152   3.242
95503SOL    HW188341  12.784   3.219   3.306
95503SOL    HW288342  12.753   3.077   3.261
95504SOL     OW88343   3.182   3.085  12.462
95504SOL    HW188344   3.173   2.990  12.469
95504SOL    HW288345   3.140   3.107  12.379
95505SOL     OW88346   5.696  14.300   2.563
95505SOL    HW188347   5.674  14.281   2.654
95505SOL    HW288348   5.693  14.214   2.519
95506SOL     OW88349   6.733   5.405  11.266
95506SOL    HW188350   6.722   5.500  11.269
95506SOL    HW288351   6.714   5.380  11.176
95507SOL     OW88352   7.612  11.057   0.523
95507SOL    HW188353   7.621  11.118   0.451
95507SOL    HW288354   7.679  11.083   0.586
95508SOL     OW88355   1.276   4.357  14.611
95508SOL    HW188356   1.358   4.377  14.565
95508SOL    HW288357   1.258   4.266  14.589
95509SOL     OW88358  14.387   2.841   7.755
95509SOL    HW188359  14.478   2.831   7.727
95509SOL    HW288360  14.336   2.812   7.679
95510SOL     OW88361   9.714   7.249   1.741
95510SOL    HW188362   9.650   7.292   1.685
95510SOL    HW288363   9.674   7.164   1.761
95511SOL     OW88364   3.490  11.400  13.376
95511SOL    HW188365   3.479  11.323  13.432
95511SOL    HW288366   3.557  11.374  13.313
95512SOL     OW88367  14.170   3.621  14.390
95512SOL    HW188368  14.101   3.662  14.337
95512SOL    HW288369  14.153   3.527  14.384
95513SOL     OW88370  11.017  13.358   0.949
95513SOL    HW188371  11.045  13.280   0.900
95513SOL    HW288372  10.922  13.361   0.938
95514SOL     OW88373   7.873   4.456  10.513
95514SOL    HW188374   7.839   4.369  10.534
95514SOL    HW288375   7.959   4.458  10.555
95515SOL     OW88376   3.739   0.989   8.327
95515SOL    HW188377   3.827   0.952   8.321
95515SOL    HW288378   3.690   0.926   8.380
95516SOL     OW88379   0.390  13.643   4.223
95516SOL    HW188380   0.337  13.696   4.164
95516SOL    HW288381   0.476  13.685   4.222
95517SOL     OW88382  11.185  12.189   6.864
95517SOL    HW188383  11.193  12.104   6.821
95517SOL    HW288384  11.124  12.173   6.937
95518SOL     OW88385   5.321   2.234   7.432
95518SOL    HW188386   5.246   2.207   7.377
95518SOL    HW288387   5.305   2.326   7.449
95519SOL     OW88388  14.149  13.866   3.209
95519SOL    HW188389  14.234  13.910   3.222
95519SOL    HW288390  14.148  13.842   3.117
95520SOL     OW88391  10.586  12.254   3.477
95520SOL    HW188392  10.552  12.315   3.411
95520SOL    HW288393  10.667  12.221   3.439
95521SOL     OW88394  10.992   4.421   9.824
95521SOL    HW188395  10.907   4.455   9.849
95521SOL    HW288396  11.008   4.350   9.886
95522SOL     OW88397   7.605  12.720   1.780
95522SOL    HW188398   7.581  12.730   1.872
95522SOL    HW288399   7.540  12.660   1.745
95523SOL     OW88400  14.744  14.502   9.620
95523SOL    HW188401  14.807  14.464   9.682
95523SOL    HW288402  14.797  14.528   9.545
95524SOL     OW88403   6.429  13.273   4.005
95524SOL    HW188404   6.428  13.273   3.910
95524SOL    HW288405   6.435  13.366   4.029
95525SOL     OW88406   2.603  13.125   2.346
95525SOL    HW188407   2.603  13.098   2.438
95525SOL    HW288408   2.661  13.201   2.344
95526SOL     OW88409  14.330   2.527   4.378
95526SOL    HW188410  14.358   2.615   4.353
95526SOL    HW288411  14.380   2.508   4.457
95527SOL     OW88412   7.766  11.822  10.387
95527SOL    HW188413   7.712  11.773  10.449
95527SOL    HW288414   7.703  11.858  10.324
95528SOL     OW88415   9.946  13.779   7.228
95528SOL    HW188416   9.983  13.831   7.156
95528SOL    HW288417   9.889  13.839   7.274
95529SOL     OW88418   8.546  10.433  12.456
95529SOL    HW188419   8.466  10.466  12.497
95529SOL    HW288420   8.617  10.466  12.511
95530SOL     OW88421  10.375   6.518  11.113
95530SOL    HW188422  10.329   6.450  11.161
95530SOL    HW288423  10.327   6.528  11.032
95531SOL     OW88424   0.131  10.054   5.301
95531SOL    HW188425   0.172  10.004   5.371
95531SOL    HW288426   0.197  10.118   5.275
95532SOL     OW88427  10.353   8.462  13.834
95532SOL    HW188428  10.275   8.502  13.796
95532SOL    HW288429  10.425   8.491  13.778
95533SOL     OW88430   0.912   2.610   0.251
95533SOL    HW188431   0.974   2.563   0.195
95533SOL    HW288432   0.950   2.698   0.261
95534SOL     OW88433  13.332   1.886   2.083
95534SOL    HW188434  13.358   1.977   2.095
95534SOL    HW288435  13.415   1.839   2.068
95535SOL     OW88436  10.823   8.267  13.688
95535SOL    HW188437  10.899   8.286  13.633
95535SOL    HW288438  10.851   8.193  13.743
95536SOL     OW88439   7.395   0.952   5.767
95536SOL    HW188440   7.364   0.865   5.791
95536SOL    HW288441   7.318   0.995   5.729
95537SOL     OW88442  13.140   6.867   5.357
95537SOL    HW188443  13.222   6.865   5.405
95537SOL    HW288444  13.150   6.799   5.290
95538SOL     OW88445   5.836   6.369   9.525
95538SOL    HW188446   5.922   6.354   9.564
95538SOL    HW288447   5.797   6.439   9.577
95539SOL     OW88448   3.505   7.262   4.925
95539SOL    HW188449   3.596   7.236   4.912
95539SOL    HW288450   3.456   7.208   4.863
95540SOL     OW88451  11.540   7.382  12.739
95540SOL    HW188452  11.445   7.387  12.730
95540SOL    HW288453  11.573   7.381  12.648
95541SOL     OW88454  12.194   0.950  11.773
95541SOL    HW188455  12.153   0.876  11.728
95541SOL    HW288456  12.194   1.020  11.708
95542SOL     OW88457   2.079   9.666  12.175
95542SOL    HW188458   1.998   9.621  12.153
95542SOL    HW288459   2.094   9.646  12.267
95543SOL     OW88460   5.111  10.257  10.366
95543SOL    HW188461   5.198  10.272  10.402
95543SOL    HW288462   5.125  10.247  10.272
95544SOL     OW88463   8.475   9.127   6.343
95544SOL    HW188464   8.521   9.210   6.330
95544SOL    HW288465   8.382   9.152   6.348
95545SOL     OW88466   5.124   5.830   1.897
95545SOL    HW188467   5.055   5.894   1.881
95545SOL    HW288468   5.203   5.882   1.908
95546SOL     OW88469  12.253  12.169  11.623
95546SOL    HW188470  12.165  12.166  11.584
95546SOL    HW288471  12.262  12.259  11.654
95547SOL     OW88472   0.591   0.752   9.708
95547SOL    HW188473   0.633   0.671   9.737
95547SOL    HW288474   0.612   0.816   9.775
95548SOL     OW88475  12.871   5.592   4.097
95548SOL    HW188476  12.837   5.627   4.016
95548SOL    HW288477  12.794   5.582   4.154
95549SOL     OW88478   6.506   3.848   4.008
95549SOL    HW188479   6.423   3.823   4.048
95549SOL    HW288480   6.556   3.888   4.079
95550SOL     OW88481   6.191   2.849   2.876
95550SOL    HW188482   6.275   2.811   2.901
95550SOL    HW288483   6.153   2.880   2.958
95551SOL     OW88484   2.537  12.641   7.806
95551SOL    HW188485   2.537  12.550   7.777
95551SOL    HW288486   2.456  12.678   7.771
95552SOL     OW88487   9.782   6.550   9.054
95552SOL    HW188488   9.777   6.459   9.027
95552SOL    HW288489   9.707   6.592   9.011
95553SOL     OW88490   3.534   6.916   1.849
95553SOL    HW188491   3.593   6.986   1.878
95553SOL    HW288492   3.544   6.916   1.753
95554SOL     OW88493   1.840   0.467   1.625
95554SOL    HW188494   1.936   0.460   1.618
95554SOL    HW288495   1.819   0.435   1.712
95555SOL     OW88496  13.804   5.451   9.051
95555SOL    HW188497  13.848   5.433   8.968
95555SOL    HW288498  13.731   5.508   9.027
95556SOL     OW88499  12.897  14.642   4.592
95556SOL    HW188500  12.907  14.735   4.569
95556SOL    HW288501  12.882  14.598   4.509
95557SOL     OW88502   6.068  14.399   4.191
95557SOL    HW188503   6.007  14.458   4.235
95557SOL    HW288504   6.140  14.388   4.254
95558SOL     OW88505   3.658  13.428   0.345
95558SOL    HW188506   3.612  13.511   0.361
95558SOL    HW288507   3.688  13.401   0.432
95559SOL     OW88508   5.041   9.599  13.360
95559SOL    HW188509   5.037   9.581  13.454
95559SOL    HW288510   5.008   9.519  13.319
95560SOL     OW88511   6.880  13.650  14.181
95560SOL    HW188512   6.897  13.556  14.177
95560SOL    HW288513   6.785  13.656  14.193
95561SOL     OW88514  14.586   8.861   9.739
95561SOL    HW188515  14.647   8.816   9.797
95561SOL    HW288516  14.632   8.867   9.656
95562SOL     OW88517   8.391   8.981   9.296
95562SOL    HW188518   8.352   8.963   9.382
95562SOL    HW288519   8.453   8.909   9.283
95563SOL     OW88520   1.192  11.325   4.524
95563SOL    HW188521   1.168  11.393   4.586
95563SOL    HW288522   1.147  11.349   4.443
95564SOL     OW88523   2.396   4.986   1.143
95564SOL    HW188524   2.430   5.076   1.151
95564SOL    HW288525   2.337   4.977   1.218
95565SOL     OW88526   1.461   7.317   3.406
95565SOL    HW188527   1.402   7.339   3.478
95565SOL    HW288528   1.473   7.399   3.358
95566SOL     OW88529   4.199  13.983   3.108
95566SOL    HW188530   4.171  13.923   3.038
95566SOL    HW288531   4.128  14.046   3.116
95567SOL     OW88532   2.495  13.234  14.102
95567SOL    HW188533   2.511  13.196  14.016
95567SOL    HW288534   2.583  13.249  14.138
95568SOL     OW88535   3.334  11.464   5.984
95568SOL    HW188536   3.251  11.508   5.964
95568SOL    HW288537   3.347  11.480   6.077
95569SOL     OW88538  12.131   6.697  10.013
95569SOL    HW188539  12.050   6.660  10.047
95569SOL    HW288540  12.198   6.667  10.075
95570SOL     OW88541   3.589  13.163  12.069
95570SOL    HW188542   3.555  13.131  11.986
95570SOL    HW288543   3.547  13.109  12.135
95571SOL     OW88544   3.375   7.268  14.345
95571SOL    HW188545   3.332   7.191  14.381
95571SOL    HW288546   3.468   7.245  14.343
95572SOL     OW88547   1.313  11.779   4.990
95572SOL    HW188548   1.363  11.849   5.032
95572SOL    HW288549   1.374  11.705   4.986
95573SOL     OW88550   9.605   0.659  14.837
95573SOL    HW188551   9.624   0.730  14.775
95573SOL    HW288552   9.663   0.675   0.035
95574SOL     OW88553  10.481  13.936   6.055
95574SOL    HW188554  10.416  13.961   6.121
95574SOL    HW288555  10.542  14.009   6.052
95575SOL     OW88556   2.496   8.153  10.797
95575SOL    HW188557   2.456   8.158  10.710
95575SOL    HW288558   2.585   8.120  10.780
95576SOL     OW88559   0.476   1.510  13.549
95576SOL    HW188560   0.489   1.500  13.455
95576SOL    HW288561   0.511   1.430  13.588
95577SOL     OW88562   7.038   1.657  13.124
95577SOL    HW188563   7.088   1.586  13.165
95577SOL    HW288564   7.012   1.714  13.196
95578SOL     OW88565  10.155   7.155   3.976
95578SOL    HW188566  10.068   7.185   3.953
95578SOL    HW288567  10.169   7.076   3.924
95579SOL     OW88568   4.159   9.368   5.336
95579SOL    HW188569   4.240   9.382   5.288
95579SOL    HW288570   4.169   9.283   5.378
95580SOL     OW88571   9.288   0.696   8.266
95580SOL    HW188572   9.315   0.788   8.259
95580SOL    HW288573   9.250   0.689   8.354
95581SOL     OW88574   6.932   2.850  13.976
95581SOL    HW188575   6.857   2.813  14.022
95581SOL    HW288576   7.008   2.826  14.029
95582SOL     OW88577   9.385   1.127  13.336
95582SOL    HW188578   9.431   1.195  13.387
95582SOL    HW288579   9.308   1.171  13.302
95583SOL     OW88580   2.798   4.421   7.203
95583SOL    HW188581   2.892   4.428   7.191
95583SOL    HW288582   2.781   4.326   7.204
95584SOL     OW88583   2.645  14.459   5.641
95584SOL    HW188584   2.665  14.458   5.735
95584SOL    HW288585   2.729  14.478   5.599
95585SOL     OW88586  11.795  13.262  12.757
95585SOL    HW188587  11.890  13.261  12.764
95585SOL    HW288588  11.766  13.187  12.810
95586SOL     OW88589   4.276   5.436   7.221
95586SOL    HW188590   4.219   5.386   7.280
95586SOL    HW288591   4.363   5.400   7.236
95587SOL     OW88592  10.244  11.127   9.172
95587SOL    HW188593  10.162  11.086   9.146
95587SOL    HW288594  10.217  11.204   9.222
95588SOL     OW88595   8.756   2.514  10.941
95588SOL    HW188596   8.697   2.467  11.000
95588SOL    HW288597   8.815   2.562  10.999
95589SOL     OW88598   7.829   0.582   0.039
95589SOL    HW188599   7.831   0.676   0.058
95589SOL    HW288600   7.903   0.568  14.856
95590SOL     OW88601   3.148   7.060   5.299
95590SOL    HW188602   3.150   7.018   5.385
95590SOL    HW288603   3.081   7.013   5.250
95591SOL     OW88604   3.946  14.674   7.285
95591SOL    HW188605   3.864  14.714   7.257
95591SOL    HW288606   3.999  14.747   7.317
95592SOL     OW88607   1.099   9.739  11.646
95592SOL    HW188608   1.151   9.660  11.629
95592SOL    HW288609   1.159   9.811  11.627
95593SOL     OW88610   7.609  11.361   6.834
95593SOL    HW188611   7.574  11.274   6.855
95593SOL    HW288612   7.541  11.422   6.863
95594SOL     OW88613   1.394   0.087   5.271
95594SOL    HW188614   1.318   0.055   5.319
95594SOL    HW288615   1.460   0.018   5.283
95595SOL     OW88616   5.908  10.659   8.573
95595SOL    HW188617   5.915  10.588   8.637
95595SOL    HW288618   5.866  10.731   8.621
95596SOL     OW88619  13.811   3.325  10.797
95596SOL    HW188620  13.779   3.266  10.728
95596SOL    HW288621  13.827   3.268  10.872
95597SOL     OW88622   1.521   0.166  10.961
95597SOL    HW188623   1.546   0.085  11.007
95597SOL    HW288624   1.526   0.143  10.868
95598SOL     OW88625   5.765   5.417   2.028
95598SOL    HW188626   5.674   5.415   1.998
95598SOL    HW288627   5.773   5.340   2.084
95599SOL     OW88628   5.569  12.692   3.446
95599SOL    HW188629   5.618  12.627   3.396
95599SOL    HW288630   5.480  12.658   3.450
95600SOL     OW88631   1.087   9.028   7.930
95600SOL    HW188632   1.096   8.943   7.887
95600SOL    HW288633   1.108   9.091   7.861
95601SOL     OW88634   9.378   0.376   1.221
95601SOL    HW188635   9.334   0.375   1.136
95601SOL    HW288636   9.314   0.338   1.282
95602SOL     OW88637   9.341  13.785   4.852
95602SOL    HW188638   9.379  13.709   4.896
95602SOL    HW288639   9.373  13.781   4.762
95603SOL     OW88640  14.111  13.464   0.037
95603SOL    HW188641  14.193  13.505   0.065
95603SOL    HW288642  14.050  13.536   0.028
95604SOL     OW88643   0.992  10.528   9.982
95604SOL    HW188644   0.921  10.475  10.017
95604SOL    HW288645   0.955  10.616   9.974
95605SOL     OW88646  14.119   7.996  13.821
95605SOL    HW188647  14.075   8.040  13.894
95605SOL    HW288648  14.198   8.048  13.806
95606SOL     OW88649   5.913   5.999  12.792
95606SOL    HW188650   5.876   5.911  12.792
95606SOL    HW288651   5.872   6.042  12.716
95607SOL     OW88652  10.903  13.228  12.734
95607SOL    HW188653  10.908  13.143  12.777
95607SOL    HW288654  10.817  13.229  12.692
95608SOL     OW88655   3.976  12.592  11.933
95608SOL    HW188656   4.040  12.654  11.900
95608SOL    HW288657   3.893  12.622  11.895
95609SOL     OW88658   6.640   4.406   2.431
95609SOL    HW188659   6.681   4.340   2.375
95609SOL    HW288660   6.620   4.361   2.512
95610SOL     OW88661   0.908   8.265  11.575
95610SOL    HW188662   0.974   8.203  11.608
95610SOL    HW288663   0.834   8.210  11.550
95611SOL     OW88664   9.349   1.728   1.714
95611SOL    HW188665   9.307   1.779   1.783
95611SOL    HW288666   9.296   1.649   1.706
95612SOL     OW88667   8.240   7.543   1.732
95612SOL    HW188668   8.267   7.632   1.756
95612SOL    HW288669   8.260   7.537   1.639
95613SOL     OW88670   3.389   8.887   1.059
95613SOL    HW188671   3.449   8.946   1.106
95613SOL    HW288672   3.379   8.927   0.973
95614SOL     OW88673  10.083  13.442  11.461
95614SOL    HW188674  10.122  13.425  11.547
95614SOL    HW288675  10.153  13.421  11.399
95615SOL     OW88676   0.147   3.651   8.335
95615SOL    HW188677   0.112   3.570   8.373
95615SOL    HW288678   0.242   3.642   8.342
95616SOL     OW88679   2.534  11.430  11.893
95616SOL    HW188680   2.622  11.408  11.924
95616SOL    HW288681   2.476  11.400  11.963
95617SOL     OW88682  11.443   8.868   2.357
95617SOL    HW188683  11.502   8.794   2.375
95617SOL    HW288684  11.476   8.939   2.412
95618SOL     OW88685  10.130  10.801   0.960
95618SOL    HW188686  10.157  10.885   0.923
95618SOL    HW288687  10.103  10.749   0.885
95619SOL     OW88688  10.328  10.825   9.772
95619SOL    HW188689  10.404  10.770   9.752
95619SOL    HW288690  10.306  10.802   9.862
95620SOL     OW88691  13.080  12.404   5.934
95620SOL    HW188692  12.999  12.362   5.960
95620SOL    HW288693  13.144  12.333   5.928
95621SOL     OW88694   3.915   8.228   3.535
95621SOL    HW188695   3.862   8.210   3.613
95621SOL    HW288696   3.892   8.158   3.474
95622SOL     OW88697   5.871   4.710  10.685
95622SOL    HW188698   5.950   4.761  10.668
95622SOL    HW288699   5.838   4.687  10.598
95623SOL     OW88700   6.654  14.633   4.331
95623SOL    HW188701   6.627  14.635   4.239
95623SOL    HW288702   6.579  14.668   4.379
95624SOL     OW88703  10.162  13.692  11.156
95624SOL    HW188704  10.243  13.667  11.110
95624SOL    HW288705  10.098  13.705  11.086
95625SOL     OW88706  11.716   9.959   3.630
95625SOL    HW188707  11.635  10.010   3.626
95625SOL    HW288708  11.717   9.909   3.548
95626SOL     OW88709  10.008   4.958   0.786
95626SOL    HW188710   9.969   4.938   0.871
95626SOL    HW288711   9.981   5.047   0.767
95627SOL     OW88712   6.446  11.353   6.709
95627SOL    HW188713   6.356  11.338   6.680
95627SOL    HW288714   6.443  11.337   6.804
95628SOL     OW88715   1.808  14.832   8.043
95628SOL    HW188716   1.765  14.774   7.980
95628SOL    HW288717   1.898  14.799   8.049
95629SOL     OW88718  10.539   4.099   8.921
95629SOL    HW188719  10.448   4.089   8.895
95629SOL    HW288720  10.580   4.015   8.902
95630SOL     OW88721   6.468   2.087   6.580
95630SOL    HW188722   6.456   2.181   6.594
95630SOL    HW288723   6.558   2.078   6.550
95631SOL     OW88724  10.619  13.436   7.365
95631SOL    HW188725  10.697  13.453   7.311
95631SOL    HW288726  10.562  13.511   7.350
95632SOL     OW88727   6.024  13.733  14.090
95632SOL    HW188728   5.976  13.791  14.149
95632SOL    HW288729   6.073  13.791  14.032
95633SOL     OW88730  12.932   8.790   8.493
95633SOL    HW188731  12.947   8.701   8.461
95633SOL    HW288732  12.938   8.846   8.416
95634SOL     OW88733   8.109   2.380  12.785
95634SOL    HW188734   8.038   2.337  12.737
95634SOL    HW288735   8.128   2.321  12.858
95635SOL     OW88736   6.069   8.691  10.861
95635SOL    HW188737   6.162   8.712  10.851
95635SOL    HW288738   6.066   8.621  10.926
95636SOL     OW88739   7.891   8.655   4.658
95636SOL    HW188740   7.811   8.672   4.706
95636SOL    HW288741   7.862   8.610   4.578
95637SOL     OW88742   4.328   1.684  11.981
95637SOL    HW188743   4.367   1.742  11.915
95637SOL    HW288744   4.279   1.742  12.039
95638SOL     OW88745   8.706  12.288   6.746
95638SOL    HW188746   8.706  12.253   6.835
95638SOL    HW288747   8.744  12.218   6.693
95639SOL     OW88748   9.749   4.119  11.202
95639SOL    HW188749   9.773   4.042  11.150
95639SOL    HW288750   9.797   4.191  11.161
95640SOL     OW88751   6.828   4.438   9.780
95640SOL    HW188752   6.879   4.375   9.833
95640SOL    HW288753   6.888   4.512   9.767
95641SOL     OW88754   3.223  13.146  13.664
95641SOL    HW188755   3.280  13.151  13.587
95641SOL    HW288756   3.282  13.152  13.738
95642SOL     OW88757   7.058   7.615   7.342
95642SOL    HW188758   7.008   7.663   7.275
95642SOL    HW288759   7.010   7.532   7.351
95643SOL     OW88760   4.337   9.812  10.186
95643SOL    HW188761   4.317   9.822  10.279
95643SOL    HW288762   4.419   9.763  10.185
95644SOL     OW88763   3.022   1.211  13.679
95644SOL    HW188764   2.965   1.135  13.673
95644SOL    HW288765   3.036   1.223  13.773
95645SOL     OW88766  12.284  11.377   2.507
95645SOL    HW188767  12.195  11.343   2.496
95645SOL    HW288768  12.325  11.362   2.422
95646SOL     OW88769  14.650   5.255  12.317
95646SOL    HW188770  14.663   5.166  12.283
95646SOL    HW288771  14.720   5.306  12.278
95647SOL     OW88772   2.059   1.357  14.868
95647SOL    HW188773   2.040   1.342  14.775
95647SOL    HW288774   1.980   1.398   0.027
95648SOL     OW88775   9.108   1.404   4.078
95648SOL    HW188776   9.117   1.376   3.987
95648SOL    HW288777   9.064   1.331   4.122
95649SOL     OW88778   7.603   0.821  12.838
95649SOL    HW188779   7.693   0.789  12.846
95649SOL    HW288780   7.572   0.783  12.756
95650SOL     OW88781   9.014   2.791   4.679
95650SOL    HW188782   9.105   2.816   4.690
95650SOL    HW288783   8.969   2.829   4.754
95651SOL     OW88784   1.719   0.464   3.029
95651SOL    HW188785   1.735   0.485   3.122
95651SOL    HW288786   1.773   0.387   3.013
95652SOL     OW88787   2.443   0.264  12.188
95652SOL    HW188788   2.360   0.311  12.192
95652SOL    HW288789   2.491   0.293  12.266
95653SOL     OW88790   5.170   7.704   1.457
95653SOL    HW188791   5.131   7.747   1.381
95653SOL    HW288792   5.192   7.775   1.517
95654SOL     OW88793   8.048  10.994   3.382
95654SOL    HW188794   8.050  11.087   3.404
95654SOL    HW288795   8.139  10.965   3.395
95655SOL     OW88796  11.326   2.382   7.116
95655SOL    HW188797  11.292   2.468   7.141
95655SOL    HW288798  11.398   2.366   7.178
95656SOL     OW88799  12.446   1.949   1.063
95656SOL    HW188800  12.421   1.940   1.155
95656SOL    HW288801  12.456   2.043   1.050
95657SOL     OW88802   0.067  14.561  13.813
95657SOL    HW188803   0.026  14.521  13.737
95657SOL    HW288804   0.078  14.653  13.789
95658SOL     OW88805  10.890  13.032  12.926
95658SOL    HW188806  10.943  13.069  12.997
95658SOL    HW288807  10.930  12.947  12.908
95659SOL     OW88808  12.094   2.200   4.500
95659SOL    HW188809  12.149   2.126   4.526
95659SOL    HW288810  12.011   2.161   4.474
95660SOL     OW88811  14.107   3.073   8.972
95660SOL    HW188812  14.201   3.061   8.979
95660SOL    HW288813  14.068   2.998   9.017
95661SOL     OW88814   4.188   8.036  13.231
95661SOL    HW188815   4.273   8.052  13.271
95661SOL    HW288816   4.153   7.961  13.280
95662SOL     OW88817  12.063  12.817   2.676
95662SOL    HW188818  11.996  12.876   2.709
95662SOL    HW288819  12.135  12.825   2.738
95663SOL     OW88820   7.770   5.636  12.362
95663SOL    HW188821   7.804   5.585  12.435
95663SOL    HW288822   7.802   5.725  12.377
95664SOL     OW88823   7.703   5.483  12.749
95664SOL    HW188824   7.671   5.393  12.741
95664SOL    HW288825   7.623   5.536  12.756
95665SOL     OW88826   5.758  13.570   0.820
95665SOL    HW188827   5.838  13.619   0.804
95665SOL    HW288828   5.719  13.611   0.897
95666SOL     OW88829   8.358   9.688   9.823
95666SOL    HW188830   8.280   9.640   9.796
95666SOL    HW288831   8.325   9.772   9.855
95667SOL     OW88832   4.542  12.447   7.005
95667SOL    HW188833   4.500  12.406   6.930
95667SOL    HW288834   4.544  12.379   7.072
95668SOL     OW88835   8.776   3.641  14.210
95668SOL    HW188836   8.814   3.725  14.184
95668SOL    HW288837   8.692   3.637  14.165
95669SOL     OW88838   4.763   1.271   7.550
95669SOL    HW188839   4.798   1.246   7.636
95669SOL    HW288840   4.834   1.321   7.509
95670SOL     OW88841  13.384   8.062   7.611
95670SOL    HW188842  13.323   7.991   7.631
95670SOL    HW288843  13.447   8.060   7.683
95671SOL     OW88844   9.704   4.651   1.100
95671SOL    HW188845   9.622   4.621   1.062
95671SOL    HW288846   9.699   4.747   1.095
95672SOL     OW88847   3.831   1.567   8.538
95672SOL    HW188848   3.853   1.477   8.516
95672SOL    HW288849   3.890   1.590   8.610
95673SOL     OW88850  12.510   2.067  10.799
95673SOL    HW188851  12.473   2.066  10.887
95673SOL    HW288852  12.452   2.127  10.751
95674SOL     OW88853  11.608   2.766   6.260
95674SOL    HW188854  11.626   2.673   6.246
95674SOL    HW288855  11.512   2.772   6.256
95675SOL     OW88856   5.530   0.745   8.101
95675SOL    HW188857   5.521   0.679   8.032
95675SOL    HW288858   5.575   0.818   8.058
95676SOL     OW88859  13.685  13.648  12.777
95676SOL    HW188860  13.733  13.576  12.737
95676SOL    HW288861  13.625  13.678  12.708
95677SOL     OW88862   8.783   4.256   3.329
95677SOL    HW188863   8.788   4.224   3.239
95677SOL    HW288864   8.787   4.176   3.383
95678SOL     OW88865   0.370   5.590  12.664
95678SOL    HW188866   0.338   5.667  12.711
95678SOL    HW288867   0.304   5.523  12.680
95679SOL     OW88868  13.877   5.234   6.989
95679SOL    HW188869  13.833   5.308   7.031
95679SOL    HW288870  13.937   5.201   7.056
95680SOL     OW88871   0.354  14.081   6.126
95680SOL    HW188872   0.441  14.090   6.165
95680SOL    HW288873   0.335  14.168   6.091
95681SOL     OW88874   3.083   9.075   8.489
95681SOL    HW188875   3.055   8.985   8.503
95681SOL    HW288876   3.014   9.115   8.437
95682SOL     OW88877  13.031   4.918   2.159
95682SOL    HW188878  12.997   4.961   2.080
95682SOL    HW288879  13.034   4.988   2.224
95683SOL     OW88880   0.373   2.223   8.582
95683SOL    HW188881   0.463   2.196   8.600
95683SOL    HW288882   0.367   2.312   8.618
95684SOL     OW88883   1.797   8.843  11.255
95684SOL    HW188884   1.882   8.801  11.245
95684SOL    HW288885   1.790   8.902  11.180
95685SOL     OW88886  14.204   6.059   8.844
95685SOL    HW188887  14.275   6.104   8.889
95685SOL    HW288888  14.161   6.127   8.792
95686SOL     OW88889   3.733   8.299  10.739
95686SOL    HW188890   3.649   8.271  10.776
95686SOL    HW288891   3.768   8.220  10.699
95687SOL     OW88892   0.899   6.165   7.758
95687SOL    HW188893   0.846   6.086   7.751
95687SOL    HW288894   0.936   6.161   7.847
95688SOL     OW88895  13.479  13.367   0.491
95688SOL    HW188896  13.505  13.417   0.568
95688SOL    HW288897  13.478  13.432   0.420
95689SOL     OW88898   6.747  10.380   6.969
95689SOL    HW188899   6.764  10.455   6.913
95689SOL    HW288900   6.799  10.309   6.931
95690SOL     OW88901   7.582   1.010  13.023
95690SOL    HW188902   7.571   0.944  12.955
95690SOL    HW288903   7.515   1.076  13.004
95691SOL     OW88904   2.277  10.703   2.542
95691SOL    HW188905   2.287  10.608   2.541
95691SOL    HW288906   2.349  10.735   2.596
95692SOL     OW88907   0.320  12.595  14.550
95692SOL    HW188908   0.411  12.567  14.539
95692SOL    HW288909   0.323  12.663  14.617
95693SOL     OW88910   5.220   7.974   4.921
95693SOL    HW188911   5.231   7.903   4.858
95693SOL    HW288912   5.225   8.054   4.868
95694SOL     OW88913   6.956   5.085   0.832
95694SOL    HW188914   6.885   5.027   0.807
95694SOL    HW288915   7.020   5.027   0.874
95695SOL     OW88916   8.294  11.576   5.579
95695SOL    HW188917   8.278  11.639   5.508
95695SOL    HW288918   8.212  11.525   5.584
95696SOL     OW88919   1.230   3.237   1.036
95696SOL    HW188920   1.164   3.306   1.038
95696SOL    HW288921   1.260   3.235   0.945
95697SOL     OW88922   1.435   4.644   0.050
95697SOL    HW188923   1.368   4.651   0.118
95697SOL    HW288924   1.438   4.550   0.029
95698SOL     OW88925   5.988  10.161   1.660
95698SOL    HW188926   5.970  10.181   1.752
95698SOL    HW288927   6.025  10.072   1.661
95699SOL     OW88928   8.233   8.103   6.030
95699SOL    HW188929   8.211   8.182   6.080
95699SOL    HW288930   8.324   8.085   6.054
95700SOL     OW88931   5.259   3.534  13.324
95700SOL    HW188932   5.201   3.460  13.345
95700SOL    HW288933   5.209   3.588  13.263
95701SOL     OW88934  14.046   4.987   2.476
95701SOL    HW188935  14.109   4.931   2.431
95701SOL    HW288936  13.986   4.926   2.519
95702SOL     OW88937  11.598   8.937   0.617
95702SOL    HW188938  11.534   8.878   0.576
95702SOL    HW288939  11.563   9.025   0.601
95703SOL     OW88940  13.400   5.269   5.903
95703SOL    HW188941  13.466   5.331   5.873
95703SOL    HW288942  13.421   5.187   5.858
95704SOL     OW88943   8.890   5.953  13.443
95704SOL    HW188944   8.888   6.036  13.395
95704SOL    HW288945   8.889   5.885  13.375
95705SOL     OW88946   7.184  12.383  10.566
95705SOL    HW188947   7.243  12.451  10.599
95705SOL    HW288948   7.111  12.430  10.528
95706SOL     OW88949  14.272   3.561  11.394
95706SOL    HW188950  14.231   3.646  11.408
95706SOL    HW288951  14.262   3.544  11.300
95707SOL     OW88952  11.260   8.856   6.520
95707SOL    HW188953  11.195   8.924   6.499
95707SOL    HW288954  11.209   8.776   6.528
95708SOL     OW88955   2.128   6.753  10.017
95708SOL    HW188956   2.051   6.759   9.961
95708SOL    HW288957   2.094   6.760  10.106
95709SOL     OW88958  12.342   4.949  13.395
95709SOL    HW188959  12.396   5.018  13.434
95709SOL    HW288960  12.254   4.987  13.391
95710SOL     OW88961   9.184   6.350   2.948
95710SOL    HW188962   9.203   6.289   3.019
95710SOL    HW288963   9.182   6.436   2.990
95711SOL     OW88964  12.342   9.726   8.268
95711SOL    HW188965  12.314   9.814   8.293
95711SOL    HW288966  12.293   9.668   8.326
95712SOL     OW88967   3.037   2.544   3.394
95712SOL    HW188968   3.023   2.449   3.390
95712SOL    HW288969   3.032   2.565   3.487
95713SOL     OW88970  11.302  12.555  14.861
95713SOL    HW188971  11.209  12.573  14.848
95713SOL    HW288972  11.306  12.464   0.012
95714SOL     OW88973  11.393   6.087  13.784
95714SOL    HW188974  11.299   6.100  13.802
95714SOL    HW288975  11.427   6.048  13.865
95715SOL     OW88976   5.611   2.759   0.183
95715SOL    HW188977   5.604   2.665   0.166
95715SOL    HW288978   5.649   2.794   0.102
95716SOL     OW88979   6.977   0.974  10.309
95716SOL    HW188980   7.017   0.899  10.354
95716SOL    HW288981   7.040   0.997  10.241
95717SOL     OW88982  10.667   4.286   7.726
95717SOL    HW188983  10.692   4.313   7.638
95717SOL    HW288984  10.750   4.267   7.770
95718SOL     OW88985   6.083   7.381   2.063
95718SOL    HW188986   6.163   7.331   2.076
95718SOL    HW288987   6.085   7.448   2.132
95719SOL     OW88988  13.810   4.694   1.300
95719SOL    HW188989  13.862   4.755   1.247
95719SOL    HW288990  13.786   4.745   1.378
95720SOL     OW88991   7.080  10.886   3.776
95720SOL    HW188992   7.165  10.842   3.775
95720SOL    HW288993   7.031  10.844   3.705
95721SOL     OW88994   6.973  14.423   8.550
95721SOL    HW188995   6.887  14.398   8.582
95721SOL    HW288996   6.978  14.517   8.566
95722SOL     OW88997  13.722   1.914   1.339
95722SOL    HW188998  13.698   1.822   1.340
95722SOL    HW288999  13.716   1.942   1.430
95723SOL     OW89000   1.870   1.544  12.659
95723SOL    HW189001   1.868   1.559  12.754
95723SOL    HW289002   1.895   1.452  12.650
95724SOL     OW89003  12.974   1.368   2.005
95724SOL    HW189004  12.930   1.384   2.088
95724SOL    HW289005  12.954   1.445   1.951
95725SOL     OW89006  12.336   0.516   8.256
95725SOL    HW189007  12.291   0.567   8.189
95725SOL    HW289008  12.290   0.537   8.338
95726SOL     OW89009   0.940  10.686  10.261
95726SOL    HW189010   0.854  10.645  10.249
95726SOL    HW289011   1.002  10.613  10.264
95727SOL     OW89012   1.505   7.709   1.383
95727SOL    HW189013   1.501   7.671   1.295
95727SOL    HW289014   1.491   7.803   1.370
95728SOL     OW89015   9.559  12.141   7.174
95728SOL    HW189016   9.620  12.167   7.105
95728SOL    HW289017   9.501  12.217   7.185
95729SOL     OW89018  10.933   6.022   0.166
95729SOL    HW189019  10.932   6.004   0.072
95729SOL    HW289020  11.003   5.967   0.200
95730SOL     OW89021   1.379   0.148   0.140
95730SOL    HW189022   1.430   0.077   0.103
95730SOL    HW289023   1.290   0.113   0.148
95731SOL     OW89024   4.018  13.370   6.260
95731SOL    HW189025   3.958  13.432   6.301
95731SOL    HW289026   4.097  13.374   6.314
95732SOL     OW89027  14.120  12.734   0.544
95732SOL    HW189028  14.172  12.677   0.487
95732SOL    HW289029  14.083  12.674   0.609
95733SOL     OW89030  11.220   5.601   6.375
95733SOL    HW189031  11.169   5.638   6.447
95733SOL    HW289032  11.157   5.592   6.303
95734SOL     OW89033   4.372  11.877  14.500
95734SOL    HW189034   4.438  11.913  14.560
95734SOL    HW289035   4.385  11.782  14.505
95735SOL     OW89036   8.663  10.013  10.893
95735SOL    HW189037   8.755   9.987  10.887
95735SOL    HW289038   8.644  10.012  10.986
95736SOL     OW89039  11.745   0.844  11.342
95736SOL    HW189040  11.695   0.880  11.270
95736SOL    HW289041  11.743   0.749  11.328
95737SOL     OW89042  10.577   7.734   8.084
95737SOL    HW189043  10.611   7.729   7.995
95737SOL    HW289044  10.572   7.642   8.112
95738SOL     OW89045  12.758  11.479   0.091
95738SOL    HW189046  12.730  11.404   0.039
95738SOL    HW289047  12.793  11.540   0.026
95739SOL     OW89048  14.462   5.650  11.244
95739SOL    HW189049  14.373   5.646  11.278
95739SOL    HW289050  14.459   5.603  11.161
95740SOL     OW89051   0.647   8.086   3.283
95740SOL    HW189052   0.571   8.130   3.245
95740SOL    HW289053   0.722   8.141   3.257
95741SOL     OW89054  13.129  11.797   2.964
95741SOL    HW189055  13.224  11.797   2.953
95741SOL    HW289056  13.114  11.848   3.044
95742SOL     OW89057   6.248  11.050   9.768
95742SOL    HW189058   6.284  11.136   9.790
95742SOL    HW289059   6.223  11.012   9.852
95743SOL     OW89060   0.896   1.683   3.048
95743SOL    HW189061   0.871   1.672   2.956
95743SOL    HW289062   0.919   1.595   3.077
95744SOL     OW89063   0.252   3.342  13.303
95744SOL    HW189064   0.211   3.399  13.369
95744SOL    HW289065   0.334   3.386  13.282
95745SOL     OW89066   8.143   9.237   2.130
95745SOL    HW189067   8.147   9.144   2.108
95745SOL    HW289068   8.064   9.245   2.184
95746SOL     OW89069  13.151  11.281  12.519
95746SOL    HW189070  13.116  11.195  12.496
95746SOL    HW289071  13.191  11.313  12.438
95747SOL     OW89072  10.200   8.976   4.913
95747SOL    HW189073  10.134   9.033   4.951
95747SOL    HW289074  10.199   8.997   4.819
95748SOL     OW89075   8.365   2.475   8.896
95748SOL    HW189076   8.363   2.483   8.801
95748SOL    HW289077   8.349   2.563   8.929
95749SOL     OW89078   3.632   5.845   7.202
95749SOL    HW189079   3.666   5.934   7.206
95749SOL    HW289080   3.694   5.798   7.145
95750SOL     OW89081   3.285   0.885  12.419
95750SOL    HW189082   3.331   0.934  12.487
95750SOL    HW289083   3.331   0.801  12.415
95751SOL     OW89084   5.487  14.236   6.659
95751SOL    HW189085   5.578  14.261   6.676
95751SOL    HW289086   5.443  14.319   6.639
95752SOL     OW89087  13.780   6.085   6.505
95752SOL    HW189088  13.853   6.069   6.445
95752SOL    HW289089  13.718   6.014   6.487
95753SOL     OW89090   6.922   0.393   5.186
95753SOL    HW189091   6.849   0.416   5.129
95753SOL    HW289092   6.985   0.464   5.173
95754SOL     OW89093  13.201   9.267  13.216
95754SOL    HW189094  13.118   9.239  13.179
95754SOL    HW289095  13.260   9.272  13.141
95755SOL     OW89096   8.381  11.254  13.212
95755SOL    HW189097   8.358  11.247  13.119
95755SOL    HW289098   8.306  11.219  13.258
95756SOL     OW89099   0.571   4.936  14.809
95756SOL    HW189100   0.507   4.968  14.746
95756SOL    HW289101   0.654   4.939  14.762
95757SOL     OW89102   7.855   1.149   4.470
95757SOL    HW189103   7.940   1.113   4.498
95757SOL    HW289104   7.820   1.191   4.548
95758SOL     OW89105  10.251   5.140   9.281
95758SOL    HW189106  10.186   5.208   9.262
95758SOL    HW289107  10.208   5.083   9.344
95759SOL     OW89108  12.407   9.859   5.459
95759SOL    HW189109  12.377   9.877   5.370
95759SOL    HW289110  12.400   9.765   5.469
95760SOL     OW89111  13.902   0.737  13.718
95760SOL    HW189112  13.975   0.684  13.749
95760SOL    HW289113  13.940   0.824  13.703
95761SOL     OW89114   7.789  10.457   9.647
95761SOL    HW189115   7.808  10.424   9.559
95761SOL    HW289116   7.859  10.422   9.702
95762SOL     OW89117   8.655   0.365   9.209
95762SOL    HW189118   8.698   0.409   9.282
95762SOL    HW289119   8.571   0.336   9.244
95763SOL     OW89120   7.769  10.462  13.451
95763SOL    HW189121   7.838  10.450  13.516
95763SOL    HW289122   7.705  10.519  13.494
95764SOL     OW89123   6.252   9.429  10.186
95764SOL    HW189124   6.216   9.488  10.252
95764SOL    HW289125   6.280   9.487  10.115
95765SOL     OW89126   8.063  10.026   8.111
95765SOL    HW189127   8.067   9.996   8.202
95765SOL    HW289128   8.151  10.011   8.078
95766SOL     OW89129   1.083  10.872  14.682
95766SOL    HW189130   1.023  10.946  14.668
95766SOL    HW289131   1.151  10.883  14.615
95767SOL     OW89132   8.254  14.126   1.039
95767SOL    HW189133   8.297  14.177   0.970
95767SOL    HW289134   8.251  14.037   1.003
95768SOL     OW89135   3.357   0.735   9.134
95768SOL    HW189136   3.428   0.773   9.187
95768SOL    HW289137   3.369   0.774   9.047
95769SOL     OW89138   9.781   9.898  10.722
95769SOL    HW189139   9.780   9.832  10.790
95769SOL    HW289140   9.703   9.881  10.670
95770SOL     OW89141  10.732   9.402   4.474
95770SOL    HW189142  10.737   9.480   4.530
95770SOL    HW289143  10.729   9.436   4.385
95771SOL     OW89144  12.380   1.173   6.634
95771SOL    HW189145  12.303   1.201   6.684
95771SOL    HW289146  12.357   1.190   6.543
95772SOL     OW89147   6.234   6.019   6.626
95772SOL    HW189148   6.140   6.031   6.628
95772SOL    HW289149   6.266   6.082   6.562
95773SOL     OW89150   2.918   2.566   8.475
95773SOL    HW189151   2.921   2.508   8.399
95773SOL    HW289152   2.935   2.653   8.440
95774SOL     OW89153  10.239  10.950   1.979
95774SOL    HW189154  10.263  10.921   2.067
95774SOL    HW289155  10.200  10.873   1.938
95775SOL     OW89156   2.227   6.341   3.149
95775SOL    HW189157   2.205   6.315   3.238
95775SOL    HW289158   2.292   6.411   3.161
95776SOL     OW89159   9.461   6.721   4.914
95776SOL    HW189160   9.511   6.641   4.930
95776SOL    HW289161   9.433   6.714   4.823
95777SOL     OW89162  10.807   0.418   5.291
95777SOL    HW189163  10.844   0.332   5.314
95777SOL    HW289164  10.713   0.401   5.284
95778SOL     OW89165   0.907  14.186   5.789
95778SOL    HW189166   1.001  14.187   5.769
95778SOL    HW289167   0.887  14.275   5.817
95779SOL     OW89168   4.820  12.993   4.671
95779SOL    HW189169   4.870  13.004   4.752
95779SOL    HW289170   4.885  13.008   4.602
95780SOL     OW89171   0.508   1.657   4.979
95780SOL    HW189172   0.529   1.720   5.049
95780SOL    HW289173   0.555   1.578   5.004
95781SOL     OW89174  11.832  10.791  13.609
95781SOL    HW189175  11.817  10.872  13.560
95781SOL    HW289176  11.762  10.789  13.674
95782SOL     OW89177  10.644  13.845  13.228
95782SOL    HW189178  10.555  13.819  13.254
95782SOL    HW289179  10.700  13.774  13.262
95783SOL     OW89180  14.534   2.026   7.116
95783SOL    HW189181  14.607   1.965   7.108
95783SOL    HW289182  14.552   2.093   7.049
95784SOL     OW89183  14.430   2.227  13.315
95784SOL    HW189184  14.467   2.145  13.347
95784SOL    HW289185  14.472   2.295  13.368
95785SOL     OW89186  12.557   5.252  12.948
95785SOL    HW189187  12.575   5.346  12.955
95785SOL    HW289188  12.641   5.210  12.967
95786SOL     OW89189   8.986   8.083   3.127
95786SOL    HW189190   8.919   8.059   3.191
95786SOL    HW289191   9.037   8.003   3.115
95787SOL     OW89192   1.885  11.798   5.418
95787SOL    HW189193   1.901  11.820   5.327
95787SOL    HW289194   1.964  11.825   5.464
95788SOL     OW89195  11.138   0.197   4.206
95788SOL    HW189196  11.148   0.199   4.301
95788SOL    HW289197  11.085   0.274   4.186
95789SOL     OW89198  12.204  10.638   3.756
95789SOL    HW189199  12.110  10.622   3.750
95789SOL    HW289200  12.233  10.645   3.665
95790SOL     OW89201   6.409  13.215   3.721
95790SOL    HW189202   6.474  13.178   3.661
95790SOL    HW289203   6.373  13.139   3.768
95791SOL     OW89204   8.264   5.742   4.153
95791SOL    HW189205   8.347   5.699   4.134
95791SOL    HW289206   8.233   5.702   4.234
95792SOL     OW89207  10.150   8.604   5.993
95792SOL    HW189208  10.199   8.588   6.073
95792SOL    HW289209  10.092   8.677   6.015
95793SOL     OW89210  10.317  10.477   4.800
95793SOL    HW189211  10.276  10.432   4.726
95793SOL    HW289212  10.265  10.556   4.812
95794SOL     OW89213  13.974  11.264   4.812
95794SOL    HW189214  13.984  11.358   4.793
95794SOL    HW289215  14.060  11.226   4.793
95795SOL     OW89216  10.034   9.754   8.814
95795SOL    HW189217  10.083   9.835   8.799
95795SOL    HW289218  10.090   9.703   8.873
95796SOL     OW89219  13.593   7.254   3.883
95796SOL    HW189220  13.584   7.255   3.979
95796SOL    HW289221  13.620   7.165   3.863
95797SOL     OW89222  12.831  14.211   6.725
95797SOL    HW189223  12.849  14.148   6.795
95797SOL    HW289224  12.886  14.182   6.652
95798SOL     OW89225   9.663   4.342  14.758
95798SOL    HW189226   9.752   4.323  14.790
95798SOL    HW289227   9.664   4.315  14.667
95799SOL     OW89228  10.185   5.307   8.490
95799SOL    HW189229  10.115   5.257   8.448
95799SOL    HW289230  10.154   5.398   8.488
95800SOL     OW89231   1.343  12.399   4.607
95800SOL    HW189232   1.393  12.322   4.635
95800SOL    HW289233   1.384  12.426   4.525
95801SOL     OW89234   6.758   4.628   2.821
95801SOL    HW189235   6.802   4.594   2.900
95801SOL    HW289236   6.824   4.620   2.752
95802SOL     OW89237  10.906   2.084  10.185
95802SOL    HW189238  10.869   1.996  10.194
95802SOL    HW289239  10.901   2.102  10.091
95803SOL     OW89240  10.740   2.798   3.507
95803SOL    HW189241  10.671   2.846   3.553
95803SOL    HW289242  10.792   2.758   3.577
95804SOL     OW89243   7.681  11.441   5.835
95804SOL    HW189244   7.756  11.444   5.895
95804SOL    HW289245   7.698  11.511   5.772
95805SOL     OW89246   5.573   3.859   8.475
95805SOL    HW189247   5.508   3.917   8.514
95805SOL    HW289248   5.579   3.785   8.535
95806SOL     OW89249   8.972  11.057   3.421
95806SOL    HW189250   9.034  11.129   3.425
95806SOL    HW289251   8.886  11.099   3.429
95807SOL     OW89252   6.923   8.468  12.001
95807SOL    HW189253   6.963   8.383  12.017
95807SOL    HW289254   6.845   8.469  12.057
95808SOL     OW89255   9.804   4.797  13.981
95808SOL    HW189256   9.732   4.779  14.043
95808SOL    HW289257   9.833   4.710  13.953
95809SOL     OW89258  12.149   6.548   9.190
95809SOL    HW189259  12.055   6.562   9.176
95809SOL    HW289260  12.192   6.611   9.133
95810SOL     OW89261  12.322   3.712  11.221
95810SOL    HW189262  12.407   3.687  11.186
95810SOL    HW289263  12.342   3.760  11.301
95811SOL     OW89264  14.220   8.202   3.723
95811SOL    HW189265  14.203   8.112   3.751
95811SOL    HW289266  14.158   8.216   3.651
95812SOL     OW89267   0.419   8.756   8.273
95812SOL    HW189268   0.505   8.731   8.238
95812SOL    HW289269   0.435   8.835   8.324
95813SOL     OW89270   6.388   0.427  14.288
95813SOL    HW189271   6.314   0.467  14.243
95813SOL    HW289272   6.460   0.489  14.277
95814SOL     OW89273   6.761   6.258  11.350
95814SOL    HW189274   6.714   6.248  11.433
95814SOL    HW289275   6.753   6.351  11.329
95815SOL     OW89276   6.170   9.280   6.517
95815SOL    HW189277   6.118   9.320   6.447
95815SOL    HW289278   6.248   9.245   6.473
95816SOL     OW89279  10.145  14.653   2.244
95816SOL    HW189280  10.228  14.606   2.251
95816SOL    HW289281  10.097  14.629   2.323
95817SOL     OW89282   8.517  14.530   7.077
95817SOL    HW189283   8.486  14.572   7.157
95817SOL    HW289284   8.450  14.552   7.011
95818SOL     OW89285  11.377  14.480   1.845
95818SOL    HW189286  11.362  14.573   1.865
95818SOL    HW289287  11.460  14.460   1.889
95819SOL     OW89288  11.079   3.511   4.941
95819SOL    HW189289  11.051   3.423   4.918
95819SOL    HW289290  11.024   3.534   5.016
95820SOL     OW89291  11.465  10.970   0.813
95820SOL    HW189292  11.559  10.955   0.827
95820SOL    HW289293  11.442  10.913   0.740
95821SOL     OW89294  14.104   6.848   0.215
95821SOL    HW189295  14.186   6.868   0.262
95821SOL    HW289296  14.070   6.933   0.189
95822SOL     OW89297   3.890   5.652  11.912
95822SOL    HW189298   3.807   5.603  11.916
95822SOL    HW289299   3.873   5.731  11.963
95823SOL     OW89300   2.940   2.872   8.100
95823SOL    HW189301   2.861   2.819   8.089
95823SOL    HW289302   2.946   2.886   8.195
95824SOL     OW89303   3.408   4.625   6.476
95824SOL    HW189304   3.460   4.587   6.405
95824SOL    HW289305   3.396   4.716   6.450
95825SOL     OW89306   9.643   2.032   3.503
95825SOL    HW189307   9.615   1.942   3.485
95825SOL    HW289308   9.735   2.034   3.478
95826SOL     OW89309   8.893   8.331  14.179
95826SOL    HW189310   8.911   8.252  14.231
95826SOL    HW289311   8.972   8.342  14.126
95827SOL     OW89312  10.586  13.888  11.059
95827SOL    HW189313  10.608  13.953  10.992
95827SOL    HW289314  10.666  13.838  11.072
95828SOL     OW89315   4.604   1.578  10.028
95828SOL    HW189316   4.591   1.488   9.999
95828SOL    HW289317   4.614   1.628   9.947
95829SOL     OW89318  11.515  12.071   3.186
95829SOL    HW189319  11.448  12.074   3.117
95829SOL    HW289320  11.521  11.978   3.209
95830SOL     OW89321   7.776   6.917   0.262
95830SOL    HW189322   7.741   6.989   0.211
95830SOL    HW289323   7.708   6.850   0.259
95831SOL     OW89324  10.955  11.962   9.064
95831SOL    HW189325  11.033  12.006   9.031
95831SOL    HW289326  10.965  11.871   9.036
95832SOL     OW89327  13.223   7.923   3.258
95832SOL    HW189328  13.172   7.898   3.182
95832SOL    HW289329  13.173   7.994   3.299
95833SOL     OW89330  13.260   9.226   0.065
95833SOL    HW189331  13.213   9.262   0.140
95833SOL    HW289332  13.321   9.295   0.040
95834SOL     OW89333   5.229   2.561  11.744
95834SOL    HW189334   5.177   2.522  11.673
95834SOL    HW289335   5.179   2.542  11.823
95835SOL     OW89336   0.112   9.689  14.314
95835SOL    HW189337   0.144   9.685  14.404
95835SOL    HW289338   0.113   9.599  14.283
95836SOL     OW89339  12.108   8.492   2.509
95836SOL    HW189340  12.122   8.547   2.586
95836SOL    HW289341  12.170   8.420   2.519
95837SOL     OW89342  13.727  10.922   7.374
95837SOL    HW189343  13.786  10.964   7.312
95837SOL    HW289344  13.695  10.994   7.429
95838SOL     OW89345   3.022   6.789  11.892
95838SOL    HW189346   2.942   6.817  11.848
95838SOL    HW289347   2.993   6.726  11.958
95839SOL     OW89348   6.873  14.511   4.564
95839SOL    HW189349   6.786  14.546   4.584
95839SOL    HW289350   6.858  14.439   4.503
95840SOL     OW89351   5.971  11.419  10.716
95840SOL    HW189352   6.055  11.388  10.682
95840SOL    HW289353   5.969  11.512  10.695
95841SOL     OW89354   6.664  10.966   2.110
95841SOL    HW189355   6.621  10.923   2.184
95841SOL    HW289356   6.647  10.907   2.036
95842SOL     OW89357   0.841   9.055   5.654
95842SOL    HW189358   0.762   9.072   5.705
95842SOL    HW289359   0.913   9.079   5.712
95843SOL     OW89360  10.742   7.967   7.653
95843SOL    HW189361  10.782   7.904   7.592
95843SOL    HW289362  10.816   8.016   7.688
95844SOL     OW89363  13.206  12.658   0.108
95844SOL    HW189364  13.152  12.737   0.118
95844SOL    HW289365  13.287  12.678   0.155
95845SOL     OW89366  11.464   6.794   7.982
95845SOL    HW189367  11.441   6.715   8.031
95845SOL    HW289368  11.388   6.851   7.992
95846SOL     OW89369  14.510  11.272   4.826
95846SOL    HW189370  14.435  11.281   4.885
95846SOL    HW289371  14.518  11.358   4.785
95847SOL     OW89372   9.145   5.384   5.458
95847SOL    HW189373   9.221   5.349   5.504
95847SOL    HW289374   9.176   5.465   5.418
95848SOL     OW89375   5.560   7.443   2.754
95848SOL    HW189376   5.654   7.445   2.734
95848SOL    HW289377   5.521   7.506   2.693
95849SOL     OW89378   7.502   4.658   4.952
95849SOL    HW189379   7.415   4.627   4.979
95849SOL    HW289380   7.492   4.752   4.940
95850SOL     OW89381   9.596  10.952  11.920
95850SOL    HW189382   9.544  10.930  11.842
95850SOL    HW289383   9.622  10.867  11.957
95851SOL     OW89384   5.827   6.051   2.800
95851SOL    HW189385   5.806   5.973   2.851
95851SOL    HW289386   5.760   6.115   2.824
95852SOL     OW89387   5.200  14.140  10.721
95852SOL    HW189388   5.199  14.191  10.640
95852SOL    HW289389   5.110  14.107  10.729
95853SOL     OW89390   8.723   3.396   4.175
95853SOL    HW189391   8.756   3.360   4.093
95853SOL    HW289392   8.628   3.394   4.166
95854SOL     OW89393   7.118   4.827   3.900
95854SOL    HW189394   7.086   4.746   3.941
95854SOL    HW289395   7.039   4.871   3.869
95855SOL     OW89396   6.217   3.453  10.334
95855SOL    HW189397   6.132   3.444  10.377
95855SOL    HW289398   6.271   3.502  10.396
95856SOL     OW89399   9.676  11.299   7.368
95856SOL    HW189400   9.584  11.289   7.343
95856SOL    HW289401   9.673  11.324   7.461
95857SOL     OW89402   0.817   7.688   6.600
95857SOL    HW189403   0.765   7.759   6.637
95857SOL    HW289404   0.859   7.726   6.523
95858SOL     OW89405  14.160  11.476   4.620
95858SOL    HW189406  14.068  11.486   4.646
95858SOL    HW289407  14.158  11.470   4.525
95859SOL     OW89408   7.557   0.508   0.627
95859SOL    HW189409   7.590   0.457   0.553
95859SOL    HW289410   7.492   0.450   0.668
95860SOL     OW89411  11.029  13.030   3.969
95860SOL    HW189412  11.116  13.063   3.990
95860SOL    HW289413  11.024  13.032   3.874
95861SOL     OW89414   3.689   7.138   5.298
95861SOL    HW189415   3.621   7.088   5.252
95861SOL    HW289416   3.665   7.229   5.285
95862SOL     OW89417   4.531   6.763  14.364
95862SOL    HW189418   4.505   6.846  14.323
95862SOL    HW289419   4.613   6.784  14.409
95863SOL     OW89420  12.345  13.882   5.130
95863SOL    HW189421  12.348  13.814   5.198
95863SOL    HW289422  12.288  13.949   5.166
95864SOL     OW89423   0.908   8.919   0.731
95864SOL    HW189424   0.894   8.976   0.806
95864SOL    HW289425   1.003   8.908   0.726
95865SOL     OW89426  11.543  13.034  11.720
95865SOL    HW189427  11.550  13.090  11.642
95865SOL    HW289428  11.601  13.074  11.784
95866SOL     OW89429   3.556   7.177  13.144
95866SOL    HW189430   3.573   7.180  13.238
95866SOL    HW289431   3.643   7.169  13.104
95867SOL     OW89432  14.670  10.065   8.534
95867SOL    HW189433  14.744  10.006   8.524
95867SOL    HW289434  14.604  10.014   8.581
95868SOL     OW89435   3.947   1.836   4.369
95868SOL    HW189436   3.959   1.785   4.289
95868SOL    HW289437   4.019   1.808   4.426
95869SOL     OW89438   6.952   6.724  12.881
95869SOL    HW189439   6.980   6.690  12.796
95869SOL    HW289440   6.861   6.694  12.890
95870SOL     OW89441   6.977   1.005  11.444
95870SOL    HW189442   7.051   1.025  11.386
95870SOL    HW289443   6.908   1.065  11.415
95871SOL     OW89444   1.858  11.666   6.953
95871SOL    HW189445   1.885  11.757   6.966
95871SOL    HW289446   1.852  11.630   7.041
95872SOL     OW89447   7.931   8.962   2.381
95872SOL    HW189448   8.010   8.924   2.417
95872SOL    HW289449   7.904   8.903   2.311
95873SOL     OW89450   7.706  11.113   8.531
95873SOL    HW189451   7.793  11.085   8.502
95873SOL    HW289452   7.700  11.083   8.622
95874SOL     OW89453   3.279   3.701  10.097
95874SOL    HW189454   3.258   3.795  10.096
95874SOL    HW289455   3.219   3.664  10.162
95875SOL     OW89456   0.157  13.000   5.053
95875SOL    HW189457   0.170  12.974   5.144
95875SOL    HW289458   0.150  13.095   5.056
95876SOL     OW89459   9.665  14.835   9.235
95876SOL    HW189460   9.616  14.856   9.314
95876SOL    HW289461   9.700  14.747   9.251
95877SOL     OW89462   4.407   6.531   3.972
95877SOL    HW189463   4.315   6.527   3.996
95877SOL    HW289464   4.425   6.448   3.929
95878SOL     OW89465   8.102   8.238   8.338
95878SOL    HW189466   8.060   8.237   8.253
95878SOL    HW289467   8.060   8.168   8.387
95879SOL     OW89468   8.546   1.922   5.325
95879SOL    HW189469   8.571   1.832   5.304
95879SOL    HW289470   8.477   1.913   5.390
95880SOL     OW89471  13.979   7.477   6.964
95880SOL    HW189472  14.005   7.569   6.963
95880SOL    HW289473  13.883   7.479   6.960
95881SOL     OW89474   0.454   3.935   8.370
95881SOL    HW189475   0.414   3.966   8.451
95881SOL    HW289476   0.406   3.979   8.300
95882SOL     OW89477  10.084  13.401   2.023
95882SOL    HW189478  10.048  13.439   2.103
95882SOL    HW289479  10.176  13.430   2.022
95883SOL     OW89480   4.201   4.307   1.507
95883SOL    HW189481   4.120   4.256   1.509
95883SOL    HW289482   4.258   4.265   1.571
95884SOL     OW89483   8.999   7.842   3.342
95884SOL    HW189484   8.916   7.868   3.301
95884SOL    HW289485   9.065   7.855   3.275
95885SOL     OW89486   2.764  10.215   3.737
95885SOL    HW189487   2.838  10.226   3.797
95885SOL    HW289488   2.699  10.166   3.787
95886SOL     OW89489  13.275   0.320   3.916
95886SOL    HW189490  13.287   0.328   3.821
95886SOL    HW289491  13.231   0.401   3.942
95887SOL     OW89492   9.367   0.430  14.512
95887SOL    HW189493   9.359   0.371  14.587
95887SOL    HW289494   9.438   0.489  14.535
95888SOL     OW89495   8.535   6.233  13.190
95888SOL    HW189496   8.464   6.202  13.246
95888SOL    HW289497   8.606   6.169  13.202
95889SOL     OW89498   3.908   5.103   9.611
95889SOL    HW189499   3.989   5.134   9.652
95889SOL    HW289500   3.877   5.178   9.561
95890SOL     OW89501   4.746   8.949  13.212
95890SOL    HW189502   4.775   8.882  13.275
95890SOL    HW289503   4.821   8.959  13.153
95891SOL     OW89504   9.724  13.004   3.182
95891SOL    HW189505   9.659  13.073   3.195
95891SOL    HW289506   9.703  12.968   3.096
95892SOL     OW89507   7.814  11.507   9.146
95892SOL    HW189508   7.894  11.469   9.109
95892SOL    HW289509   7.759  11.432   9.168
95893SOL     OW89510   9.280  11.209   1.232
95893SOL    HW189511   9.250  11.300   1.225
95893SOL    HW289512   9.354  11.213   1.292
95894SOL     OW89513  11.533   6.935  14.654
95894SOL    HW189514  11.444   6.948  14.621
95894SOL    HW289515  11.537   6.842  14.678
95895SOL     OW89516   3.407  14.743  14.243
95895SOL    HW189517   3.379  14.835  14.238
95895SOL    HW289518   3.498  14.744  14.214
95896SOL     OW89519   3.935   4.326   3.854
95896SOL    HW189520   3.959   4.307   3.764
95896SOL    HW289521   3.914   4.419   3.854
95897SOL     OW89522   4.229  10.255   8.277
95897SOL    HW189523   4.175  10.181   8.306
95897SOL    HW289524   4.292  10.268   8.347
95898SOL     OW89525  13.775  12.204   3.065
95898SOL    HW189526  13.730  12.265   3.123
95898SOL    HW289527  13.861  12.244   3.049
95899SOL     OW89528   0.467  13.359   5.002
95899SOL    HW189529   0.401  13.421   4.971
95899SOL    HW289530   0.456  13.282   4.947
95900SOL     OW89531   2.355  14.398   7.025
95900SOL    HW189532   2.364  14.467   7.091
95900SOL    HW289533   2.441  14.357   7.022
95901SOL     OW89534   1.799  10.216   2.115
95901SOL    HW189535   1.804  10.304   2.077
95901SOL    HW289536   1.706  10.202   2.131
95902SOL     OW89537   8.047   8.903   4.540
95902SOL    HW189538   7.958   8.900   4.577
95902SOL    HW289539   8.096   8.838   4.590
95903SOL     OW89540   1.024   5.891   3.897
95903SOL    HW189541   1.055   5.880   3.986
95903SOL    HW289542   1.086   5.842   3.843
95904SOL     OW89543   8.624   0.700   6.248
95904SOL    HW189544   8.565   0.660   6.184
95904SOL    HW289545   8.618   0.644   6.325
95905SOL     OW89546   7.108  10.346   6.733
95905SOL    HW189547   7.143  10.332   6.645
95905SOL    HW289548   7.040  10.413   6.721
95906SOL     OW89549   9.638  10.423   8.832
95906SOL    HW189550   9.624  10.445   8.924
95906SOL    HW289551   9.717  10.368   8.832
95907SOL     OW89552   0.279  14.634   4.436
95907SOL    HW189553   0.260  14.726   4.418
95907SOL    HW289554   0.196  14.588   4.419
95908SOL     OW89555  14.550  11.753   3.663
95908SOL    HW189556  14.563  11.810   3.587
95908SOL    HW289557  14.467  11.782   3.700
95909SOL     OW89558  12.439   9.425  10.290
95909SOL    HW189559  12.377   9.483  10.246
95909SOL    HW289560  12.400   9.338  10.283
95910SOL     OW89561   3.755  11.784   0.776
95910SOL    HW189562   3.666  11.776   0.741
95910SOL    HW289563   3.749  11.851   0.843
95911SOL     OW89564   8.166   1.118   7.764
95911SOL    HW189565   8.225   1.075   7.826
95911SOL    HW289566   8.095   1.055   7.751
95912SOL     OW89567   0.801   2.742   8.783
95912SOL    HW189568   0.756   2.664   8.751
95912SOL    HW289569   0.774   2.749   8.874
95913SOL     OW89570   9.602   9.015   8.200
95913SOL    HW189571   9.515   9.022   8.160
95913SOL    HW289572   9.599   9.074   8.275
95914SOL     OW89573   6.103  14.168  14.604
95914SOL    HW189574   6.143  14.086  14.575
95914SOL    HW289575   6.135  14.180  14.693
95915SOL     OW89576   1.601  10.471   6.719
95915SOL    HW189577   1.607  10.565   6.740
95915SOL    HW289578   1.687  10.436   6.742
95916SOL     OW89579   1.762   9.360   4.783
95916SOL    HW189580   1.820   9.380   4.709
95916SOL    HW289581   1.821   9.326   4.851
95917SOL     OW89582  10.249   5.272  11.275
95917SOL    HW189583  10.336   5.242  11.301
95917SOL    HW289584  10.190   5.233  11.340
95918SOL     OW89585  13.173   8.574   3.100
95918SOL    HW189586  13.100   8.521   3.068
95918SOL    HW289587  13.243   8.510   3.115
95919SOL     OW89588   4.455   2.969   3.061
95919SOL    HW189589   4.369   2.980   3.021
95919SOL    HW289590   4.440   2.914   3.137
95920SOL     OW89591   9.772  12.802   5.878
95920SOL    HW189592   9.829  12.726   5.862
95920SOL    HW289593   9.684  12.770   5.861
95921SOL     OW89594   6.728   0.329  11.973
95921SOL    HW189595   6.724   0.411  11.924
95921SOL    HW289596   6.794   0.345  12.041
95922SOL     OW89597  11.202   8.204   0.386
95922SOL    HW189598  11.270   8.209   0.318
95922SOL    HW289599  11.218   8.280   0.441
95923SOL     OW89600   6.749   9.777   7.611
95923SOL    HW189601   6.674   9.721   7.632
95923SOL    HW289602   6.819   9.745   7.668
95924SOL     OW89603  11.474   8.106   1.387
95924SOL    HW189604  11.568   8.111   1.370
95924SOL    HW289605  11.465   8.125   1.481
95925SOL     OW89606   4.015  13.114   3.607
95925SOL    HW189607   4.017  13.024   3.638
95925SOL    HW289608   3.925  13.127   3.577
95926SOL     OW89609   5.373  11.475   9.131
95926SOL    HW189610   5.299  11.425   9.167
95926SOL    HW289611   5.335  11.560   9.109
95927SOL     OW89612   4.426   9.405   8.863
95927SOL    HW189613   4.419   9.334   8.800
95927SOL    HW289614   4.338   9.442   8.867
95928SOL     OW89615  10.130   6.875  11.803
95928SOL    HW189616  10.056   6.816  11.788
95928SOL    HW289617  10.097   6.940  11.865
95929SOL     OW89618   2.795  11.253   4.504
95929SOL    HW189619   2.797  11.292   4.417
95929SOL    HW289620   2.735  11.308   4.554
95930SOL     OW89621  11.039   1.844   7.012
95930SOL    HW189622  11.036   1.763   6.962
95930SOL    HW289623  10.982   1.828   7.087
95931SOL     OW89624   2.570  10.983  11.977
95931SOL    HW189625   2.591  10.936  11.896
95931SOL    HW289626   2.515  11.056  11.949
95932SOL     OW89627  10.378  13.648  10.225
95932SOL    HW189628  10.431  13.580  10.268
95932SOL    HW289629  10.438  13.723  10.217
95933SOL     OW89630  14.151  14.801  13.095
95933SOL    HW189631  14.104  14.726  13.061
95933SOL    HW289632  14.241  14.789  13.066
95934SOL     OW89633   4.632   1.595   8.903
95934SOL    HW189634   4.610   1.681   8.938
95934SOL    HW289635   4.725   1.600   8.880
95935SOL     OW89636   6.139  12.549   4.594
95935SOL    HW189637   6.119  12.621   4.654
95935SOL    HW289638   6.053  12.510   4.574
95936SOL     OW89639  10.605  10.255  12.165
95936SOL    HW189640  10.605  10.305  12.083
95936SOL    HW289641  10.650  10.312  12.227
95937SOL     OW89642   5.686   1.879  13.131
95937SOL    HW189643   5.607   1.892  13.079
95937SOL    HW289644   5.654   1.860  13.219
95938SOL     OW89645  13.119   0.567   4.053
95938SOL    HW189646  13.096   0.541   4.142
95938SOL    HW289647  13.044   0.541   4.000
95939SOL     OW89648   3.961   5.939   4.074
95939SOL    HW189649   4.039   5.992   4.057
95939SOL    HW289650   3.955   5.934   4.169
95940SOL     OW89651  11.614   2.161  10.967
95940SOL    HW189652  11.684   2.119  10.917
95940SOL    HW289653  11.659   2.222  11.024
95941SOL     OW89654   4.430  10.087   7.380
95941SOL    HW189655   4.392  10.100   7.467
95941SOL    HW289656   4.367  10.031   7.334
95942SOL     OW89657   1.896   1.830   3.248
95942SOL    HW189658   1.953   1.845   3.324
95942SOL    HW289659   1.944   1.767   3.195
95943SOL     OW89660   7.529   0.149   3.751
95943SOL    HW189661   7.539   0.241   3.727
95943SOL    HW289662   7.462   0.115   3.691
95944SOL     OW89663   6.458   3.740   1.908
95944SOL    HW189664   6.499   3.809   1.960
95944SOL    HW289665   6.418   3.787   1.835
95945SOL     OW89666  11.786   4.025   3.283
95945SOL    HW189667  11.750   4.026   3.372
95945SOL    HW289668  11.880   4.033   3.296
95946SOL     OW89669   1.963  10.069   8.986
95946SOL    HW189670   2.056  10.087   8.975
95946SOL    HW289671   1.960   9.995   9.045
95947SOL     OW89672  12.310   2.853   4.132
95947SOL    HW189673  12.371   2.896   4.192
95947SOL    HW289674  12.354   2.854   4.047
95948SOL     OW89675  13.387  13.927  14.145
95948SOL    HW189676  13.324  13.942  14.075
95948SOL    HW289677  13.429  13.844  14.121
95949SOL     OW89678   1.493   2.421   8.676
95949SOL    HW189679   1.570   2.475   8.662
95949SOL    HW289680   1.490   2.408   8.771
95950SOL     OW89681   1.330   2.274   5.740
95950SOL    HW189682   1.334   2.311   5.828
95950SOL    HW289683   1.239   2.247   5.730
95951SOL     OW89684   0.776   4.012  13.104
95951SOL    HW189685   0.740   4.034  13.018
95951SOL    HW289686   0.799   3.919  13.097
95952SOL     OW89687   7.904   6.004   6.648
95952SOL    HW189688   7.858   5.978   6.569
95952SOL    HW289689   7.846   5.979   6.720
95953SOL     OW89690   1.499  12.316  13.245
95953SOL    HW189691   1.512  12.410  13.260
95953SOL    HW289692   1.422  12.311  13.189
95954SOL     OW89693  13.602   5.343  11.380
95954SOL    HW189694  13.610   5.378  11.469
95954SOL    HW289695  13.686   5.301  11.363
95955SOL     OW89696   3.257   9.912  12.514
95955SOL    HW189697   3.269   9.821  12.541
95955SOL    HW289698   3.217   9.907  12.428
95956SOL     OW89699   3.001  10.119   7.499
95956SOL    HW189700   3.071  10.066   7.462
95956SOL    HW289701   2.921  10.086   7.457
95957SOL     OW89702  11.083   7.259  10.887
95957SOL    HW189703  10.992   7.284  10.874
95957SOL    HW289704  11.133   7.321  10.834
95958SOL     OW89705   7.719   3.580  10.555
95958SOL    HW189706   7.807   3.613  10.572
95958SOL    HW289707   7.723   3.487  10.579
95959SOL     OW89708   9.552   2.201   0.967
95959SOL    HW189709   9.465   2.181   0.932
95959SOL    HW289710   9.611   2.147   0.914
95960SOL     OW89711   8.664   8.369   2.834
95960SOL    HW189712   8.695   8.452   2.871
95960SOL    HW289713   8.742   8.313   2.832
95961SOL     OW89714   0.748  12.652  13.059
95961SOL    HW189715   0.759  12.569  13.104
95961SOL    HW289716   0.701  12.708  13.121
95962SOL     OW89717   4.328   6.943   9.735
95962SOL    HW189718   4.282   6.958   9.653
95962SOL    HW289719   4.339   7.030   9.773
95963SOL     OW89720  13.789   3.885   1.018
95963SOL    HW189721  13.754   3.850   1.100
95963SOL    HW289722  13.826   3.809   0.974
95964SOL     OW89723   6.655   4.131  11.713
95964SOL    HW189724   6.561   4.147  11.716
95964SOL    HW289725   6.671   4.070  11.785
95965SOL     OW89726   7.673   2.080  11.762
95965SOL    HW189727   7.754   2.130  11.749
95965SOL    HW289728   7.700   1.989  11.750
95966SOL     OW89729   1.831   5.717  11.329
95966SOL    HW189730   1.851   5.796  11.379
95966SOL    HW289731   1.812   5.651  11.396
95967SOL     OW89732   7.347   6.325  12.078
95967SOL    HW189733   7.256   6.333  12.106
95967SOL    HW289734   7.346   6.253  12.015
95968SOL     OW89735   4.806   6.794  12.226
95968SOL    HW189736   4.821   6.813  12.319
95968SOL    HW289737   4.888   6.817  12.183
95969SOL     OW89738   1.369  11.356   8.912
95969SOL    HW189739   1.362  11.379   8.819
95969SOL    HW289740   1.353  11.438   8.958
95970SOL     OW89741  13.092   0.181  11.526
95970SOL    HW189742  13.164   0.200  11.466
95970SOL    HW289743  13.035   0.257  11.519
95971SOL     OW89744   2.074   7.234   7.944
95971SOL    HW189745   2.120   7.247   7.861
95971SOL    HW289746   2.125   7.168   7.990
95972SOL     OW89747  12.954   9.700  13.646
95972SOL    HW189748  13.046   9.675  13.644
95972SOL    HW289749  12.939   9.740  13.560
95973SOL     OW89750   9.664   5.907  10.204
95973SOL    HW189751   9.662   5.863  10.119
95973SOL    HW289752   9.573   5.926  10.224
95974SOL     OW89753  13.845  10.604  10.173
95974SOL    HW189754  13.809  10.620  10.260
95974SOL    HW289755  13.886  10.517  10.179
95975SOL     OW89756   9.307  12.200   6.313
95975SOL    HW189757   9.243  12.175   6.247
95975SOL    HW289758   9.290  12.293   6.329
95976SOL     OW89759   8.063  10.014   6.154
95976SOL    HW189760   8.013  10.085   6.195
95976SOL    HW289761   8.155  10.036   6.170
95977SOL     OW89762   9.613   1.012   5.865
95977SOL    HW189763   9.527   0.977   5.885
95977SOL    HW289764   9.638   0.972   5.782
95978SOL     OW89765  11.478   7.632  12.029
95978SOL    HW189766  11.563   7.626  12.072
95978SOL    HW289767  11.415   7.605  12.096
95979SOL     OW89768  11.877   4.518  10.846
95979SOL    HW189769  11.908   4.538  10.934
95979SOL    HW289770  11.868   4.603  10.803
95980SOL     OW89771   9.693   4.335   6.564
95980SOL    HW189772   9.605   4.309   6.591
95980SOL    HW289773   9.751   4.289   6.624
95981SOL     OW89774   3.074   4.096   1.617
95981SOL    HW189775   3.049   4.010   1.583
95981SOL    HW289776   3.139   4.077   1.684
95982SOL     OW89777   4.803   5.384   1.843
95982SOL    HW189778   4.763   5.470   1.828
95982SOL    HW289779   4.857   5.370   1.765
95983SOL     OW89780   6.420   9.531  12.212
95983SOL    HW189781   6.453   9.559  12.126
95983SOL    HW289782   6.381   9.610  12.249
95984SOL     OW89783   1.684   0.916   3.343
95984SOL    HW189784   1.608   0.975   3.342
95984SOL    HW289785   1.732   0.941   3.421
95985SOL     OW89786   0.769  11.050  12.582
95985SOL    HW189787   0.762  11.114  12.512
95985SOL    HW289788   0.804  10.971  12.540
95986SOL     OW89789   7.172   7.903   7.412
95986SOL    HW189790   7.161   7.915   7.318
95986SOL    HW289791   7.086   7.874   7.443
95987SOL     OW89792  10.857   5.341  12.862
95987SOL    HW189793  10.818   5.392  12.933
95987SOL    HW289794  10.913   5.277  12.906
95988SOL     OW89795   3.173  10.844  12.408
95988SOL    HW189796   3.087  10.885  12.400
95988SOL    HW289797   3.233  10.916  12.426
95989SOL     OW89798   6.947   7.991   6.232
95989SOL    HW189799   6.968   7.899   6.244
95989SOL    HW289800   6.864   7.991   6.183
95990SOL     OW89801   1.320   8.537   0.810
95990SOL    HW189802   1.363   8.595   0.874
95990SOL    HW289803   1.382   8.532   0.737
95991SOL     OW89804   7.322   2.444   8.861
95991SOL    HW189805   7.365   2.495   8.929
95991SOL    HW289806   7.394   2.407   8.810
95992SOL     OW89807   2.528  14.438   4.704
95992SOL    HW189808   2.590  14.378   4.663
95992SOL    HW289809   2.475  14.383   4.761
95993SOL     OW89810  11.323   7.401   3.624
95993SOL    HW189811  11.258   7.459   3.585
95993SOL    HW289812  11.321   7.422   3.717
95994SOL     OW89813  13.513  10.073   3.850
95994SOL    HW189814  13.452  10.138   3.884
95994SOL    HW289815  13.490   9.992   3.897
95995SOL     OW89816   3.968  14.700   3.055
95995SOL    HW189817   4.047  14.647   3.051
95995SOL    HW289818   3.925  14.687   2.971
95996SOL     OW89819   2.719  12.316  14.677
95996SOL    HW189820   2.723  12.289  14.585
95996SOL    HW289821   2.702  12.235  14.725
95997SOL     OW89822   5.587   0.177   1.884
95997SOL    HW189823   5.611   0.098   1.834
95997SOL    HW289824   5.670   0.207   1.922
95998SOL     OW89825   0.090   6.034   4.722
95998SOL    HW189826   0.063   5.954   4.767
95998SOL    HW289827   0.036   6.037   4.643
95999SOL     OW89828   5.887   8.134  13.424
95999SOL    HW189829   5.815   8.072  13.414
95999SOL    HW289830   5.908   8.161  13.335
96000SOL     OW89831   9.450   2.026   6.249
96000SOL    HW189832   9.462   2.041   6.343
96000SOL    HW289833   9.424   1.934   6.242
96001SOL     OW89834  13.481   7.285  10.175
96001SOL    HW189835  13.570   7.266  10.145
96001SOL    HW289836  13.493   7.321  10.263
96002SOL     OW89837   3.807  14.514   7.475
96002SOL    HW189838   3.761  14.568   7.539
96002SOL    HW289839   3.848  14.577   7.416
96003SOL     OW89840   9.521   2.960   4.635
96003SOL    HW189841   9.568   2.937   4.555
96003SOL    HW289842   9.588   2.996   4.693
96004SOL     OW89843  12.730   4.004  12.809
96004SOL    HW189844  12.681   3.985  12.729
96004SOL    HW289845  12.749   4.098  12.803
96005SOL     OW89846  13.910   5.307  12.888
96005SOL    HW189847  13.975   5.376  12.876
96005SOL    HW289848  13.829   5.353  12.909
96006SOL     OW89849   2.658   0.439  13.846
96006SOL    HW189850   2.714   0.371  13.807
96006SOL    HW289851   2.713   0.516  13.851
96007SOL     OW89852  10.277   5.254  12.160
96007SOL    HW189853  10.285   5.162  12.184
96007SOL    HW289854  10.184   5.266  12.143
96008SOL     OW89855  13.534   7.961  14.151
96008SOL    HW189856  13.569   7.955  14.240
96008SOL    HW289857  13.611   7.959  14.095
96009SOL     OW89858   5.255   9.964  13.402
96009SOL    HW189859   5.303   9.908  13.341
96009SOL    HW289860   5.310  10.042  13.410
96010SOL     OW89861  12.878   5.143  13.989
96010SOL    HW189862  12.841   5.063  13.953
96010SOL    HW289863  12.970   5.142  13.960
96011SOL     OW89864  14.772   8.223   8.431
96011SOL    HW189865  14.857   8.221   8.388
96011SOL    HW289866  14.712   8.185   8.368
96012SOL     OW89867  12.261   0.152   3.836
96012SOL    HW189868  12.332   0.206   3.871
96012SOL    HW289869  12.287   0.135   3.745
96013SOL     OW89870  10.383   7.488   3.419
96013SOL    HW189871  10.341   7.544   3.483
96013SOL    HW289872  10.337   7.404   3.426
96014SOL     OW89873   2.950  11.231   9.350
96014SOL    HW189874   2.943  11.148   9.398
96014SOL    HW289875   3.021  11.278   9.394
96015SOL     OW89876   1.597   3.067   2.040
96015SOL    HW189877   1.669   3.130   2.039
96015SOL    HW289878   1.629   2.994   2.092
96016SOL     OW89879   7.668   2.425   7.889
96016SOL    HW189880   7.739   2.394   7.833
96016SOL    HW289881   7.626   2.345   7.922
96017SOL     OW89882   6.458   1.145   2.092
96017SOL    HW189883   6.397   1.095   2.146
96017SOL    HW289884   6.423   1.139   2.004
96018SOL     OW89885  10.906   0.796  13.192
96018SOL    HW189886  10.903   0.800  13.097
96018SOL    HW289887  10.995   0.766  13.212
96019SOL     OW89888   1.209   9.707   4.885
96019SOL    HW189889   1.274   9.654   4.838
96019SOL    HW289890   1.167   9.759   4.816
96020SOL     OW89891   8.428   6.776  12.336
96020SOL    HW189892   8.334   6.782  12.355
96020SOL    HW289893   8.434   6.712  12.266
96021SOL     OW89894   3.167   1.321  13.468
96021SOL    HW189895   3.255   1.344  13.498
96021SOL    HW289896   3.127   1.278  13.543
96022SOL     OW89897   6.380   2.349   6.603
96022SOL    HW189898   6.399   2.408   6.529
96022SOL    HW289899   6.335   2.405   6.666
96023SOL     OW89900   6.615   5.531  12.250
96023SOL    HW189901   6.631   5.453  12.195
96023SOL    HW289902   6.545   5.578  12.204
96024SOL     OW89903   7.857   0.893   6.336
96024SOL    HW189904   7.782   0.835   6.322
96024SOL    HW289905   7.917   0.873   6.265
96025SOL     OW89906   2.422  10.480   3.952
96025SOL    HW189907   2.497  10.519   3.997
96025SOL    HW289908   2.363  10.554   3.937
96026SOL     OW89909  13.309   1.861   0.116
96026SOL    HW189910  13.385   1.919   0.120
96026SOL    HW289911  13.316   1.808   0.196
96027SOL     OW89912  10.365  14.051  13.725
96027SOL    HW189913  10.324  14.008  13.651
96027SOL    HW289914  10.459  14.036  13.713
96028SOL     OW89915  10.433  14.066   6.881
96028SOL    HW189916  10.501  14.041   6.943
96028SOL    HW289917  10.370  14.115   6.933
96029SOL     OW89918   0.108   8.866   1.797
96029SOL    HW189919   0.045   8.853   1.868
96029SOL    HW289920   0.092   8.792   1.738
96030SOL     OW89921   1.130   6.237  13.503
96030SOL    HW189922   1.096   6.178  13.570
96030SOL    HW289923   1.064   6.306  13.496
96031SOL     OW89924  14.145  12.161   7.123
96031SOL    HW189925  14.146  12.082   7.069
96031SOL    HW289926  14.106  12.228   7.067
96032SOL     OW89927  12.382   5.665  11.391
96032SOL    HW189928  12.462   5.717  11.382
96032SOL    HW289929  12.364   5.634  11.302
96033SOL     OW89930  11.797  12.886   0.546
96033SOL    HW189931  11.838  12.939   0.615
96033SOL    HW289932  11.799  12.943   0.469
96034SOL     OW89933   9.121   5.576   4.290
96034SOL    HW189934   9.161   5.627   4.361
96034SOL    HW289935   9.188   5.575   4.221
96035SOL     OW89936   1.351  14.469   0.539
96035SOL    HW189937   1.433  14.512   0.561
96035SOL    HW289938   1.341  14.484   0.445
96036SOL     OW89939  13.297  11.986   7.577
96036SOL    HW189940  13.340  11.901   7.575
96036SOL    HW289941  13.368  12.049   7.565
96037SOL     OW89942   2.893  13.169   9.948
96037SOL    HW189943   2.950  13.213   9.885
96037SOL    HW289944   2.847  13.241   9.993
96038SOL     OW89945  13.463  12.449  10.504
96038SOL    HW189946  13.409  12.374  10.531
96038SOL    HW289947  13.401  12.510  10.463
96039SOL     OW89948  13.260   9.093  12.616
96039SOL    HW189949  13.285   9.003  12.594
96039SOL    HW289950  13.283   9.102  12.708
96040SOL     OW89951   8.192  13.575   4.336
96040SOL    HW189952   8.123  13.531   4.287
96040SOL    HW289953   8.238  13.628   4.271
96041SOL     OW89954   4.018  12.518   7.046
96041SOL    HW189955   4.111  12.524   7.068
96041SOL    HW289956   4.013  12.448   6.981
96042SOL     OW89957   0.189  10.748   8.991
96042SOL    HW189958   0.129  10.674   8.990
96042SOL    HW289959   0.242  10.736   9.070
96043SOL     OW89960  13.328  14.768   8.899
96043SOL    HW189961  13.398  14.743   8.959
96043SOL    HW289962  13.263  14.812   8.954
96044SOL     OW89963  10.672  11.869  10.515
96044SOL    HW189964  10.675  11.844  10.608
96044SOL    HW289965  10.752  11.920  10.502
96045SOL     OW89966  14.489  13.936   0.462
96045SOL    HW189967  14.544  14.003   0.502
96045SOL    HW289968  14.414  13.929   0.520
96046SOL     OW89969  10.050   4.458   4.534
96046SOL    HW189970   9.975   4.470   4.476
96046SOL    HW289971  10.069   4.545   4.568
96047SOL     OW89972   4.237   6.317   7.863
96047SOL    HW189973   4.257   6.313   7.769
96047SOL    HW289974   4.285   6.394   7.894
96048SOL     OW89975  11.069   1.855   5.351
96048SOL    HW189976  11.116   1.819   5.426
96048SOL    HW289977  11.133   1.909   5.305
96049SOL     OW89978   2.774  13.197   0.018
96049SOL    HW189979   2.688  13.227   0.047
96049SOL    HW289980   2.760  13.106  14.869
96050SOL     OW89981   6.564  11.342   5.492
96050SOL    HW189982   6.631  11.283   5.526
96050SOL    HW289983   6.585  11.351   5.399
96051SOL     OW89984  10.040   6.881   7.514
96051SOL    HW189985  10.117   6.823   7.510
96051SOL    HW289986  10.068   6.960   7.467
96052SOL     OW89987   4.845  13.524   3.441
96052SOL    HW189988   4.898  13.603   3.441
96052SOL    HW289989   4.761  13.551   3.478
96053SOL     OW89990   3.446   9.843  12.765
96053SOL    HW189991   3.458   9.898  12.688
96053SOL    HW289992   3.380   9.779  12.739
96054SOL     OW89993   7.002  14.133  14.356
96054SOL    HW189994   7.006  14.048  14.312
96054SOL    HW289995   6.970  14.113  14.444
96055SOL     OW89996   0.366   0.737   0.779
96055SOL    HW189997   0.460   0.740   0.801
96055SOL    HW289998   0.322   0.763   0.860
96056SOL     OW89999   7.111  10.876  11.388
96056SOL    HW190000   7.158  10.846  11.466
96056SOL    HW290001   7.093  10.797  11.338
96057SOL     OW90002  10.521   5.376   0.591
96057SOL    HW190003  10.545   5.469   0.595
96057SOL    HW290004  10.597   5.331   0.628
96058SOL     OW90005   7.655  11.403   4.773
96058SOL    HW190006   7.680  11.444   4.690
96058SOL    HW290007   7.694  11.316   4.769
96059SOL     OW90008   9.549  11.802   1.798
96059SOL    HW190009   9.540  11.882   1.850
96059SOL    HW290010   9.623  11.820   1.740
96060SOL     OW90011   0.373  12.122   3.884
96060SOL    HW190012   0.440  12.056   3.900
96060SOL    HW290013   0.344  12.149   3.971
96061SOL     OW90014  11.331   3.020   7.723
96061SOL    HW190015  11.298   3.024   7.813
96061SOL    HW290016  11.376   2.935   7.719
96062SOL     OW90017   1.901  10.555   7.865
96062SOL    HW190018   1.817  10.512   7.847
96062SOL    HW290019   1.881  10.617   7.935
96063SOL     OW90020   6.949   2.634   0.299
96063SOL    HW190021   6.947   2.724   0.331
96063SOL    HW290022   6.956   2.581   0.378
96064SOL     OW90023   2.204  11.645   0.327
96064SOL    HW190024   2.109  11.643   0.339
96064SOL    HW290025   2.231  11.554   0.327
96065SOL     OW90026   4.970  13.125   7.256
96065SOL    HW190027   5.021  13.131   7.175
96065SOL    HW290028   4.879  13.138   7.227
96066SOL     OW90029  12.157   7.272  14.431
96066SOL    HW190030  12.155   7.368  14.428
96066SOL    HW290031  12.248   7.250  14.448
96067SOL     OW90032   8.045   7.953   5.631
96067SOL    HW190033   8.047   7.895   5.707
96067SOL    HW290034   8.024   8.039   5.667
96068SOL     OW90035   5.889   3.871  11.519
96068SOL    HW190036   5.811   3.875  11.573
96068SOL    HW290037   5.857   3.888  11.430
96069SOL     OW90038  11.184   8.990   4.564
96069SOL    HW190039  11.175   9.009   4.657
96069SOL    HW290040  11.155   8.899   4.554
96070SOL     OW90041   6.121  11.543   7.910
96070SOL    HW190042   6.056  11.473   7.902
96070SOL    HW290043   6.135  11.572   7.820
96071SOL     OW90044  13.691   2.643   7.518
96071SOL    HW190045  13.756   2.713   7.517
96071SOL    HW290046  13.653   2.646   7.606
96072SOL     OW90047   2.653   1.433   0.316
96072SOL    HW190048   2.599   1.412   0.392
96072SOL    HW290049   2.704   1.353   0.300
96073SOL     OW90050   1.830  12.721  13.997
96073SOL    HW190051   1.834  12.812  14.026
96073SOL    HW290052   1.913  12.683  14.026
96074SOL     OW90053   3.423   7.451   3.185
96074SOL    HW190054   3.343   7.474   3.138
96074SOL    HW290055   3.472   7.396   3.124
96075SOL     OW90056  14.769   5.789  12.485
96075SOL    HW190057  14.684   5.817  12.451
96075SOL    HW290058  14.833   5.835  12.432
96076SOL     OW90059  12.763   9.953   8.583
96076SOL    HW190060  12.790  10.029   8.532
96076SOL    HW290061  12.841   9.897   8.585
96077SOL     OW90062   9.586  13.744  11.013
96077SOL    HW190063   9.611  13.754  10.922
96077SOL    HW290064   9.668  13.755  11.062
96078SOL     OW90065   5.494  13.339   1.936
96078SOL    HW190066   5.415  13.390   1.919
96078SOL    HW290067   5.500  13.333   2.031
96079SOL     OW90068   5.022   3.164  12.407
96079SOL    HW190069   5.033   3.259  12.415
96079SOL    HW290070   5.053   3.130  12.491
96080SOL     OW90071   8.119  10.601  10.368
96080SOL    HW190072   8.116  10.690  10.333
96080SOL    HW290073   8.139  10.612  10.461
96081SOL     OW90074   6.359   4.586  13.765
96081SOL    HW190075   6.384   4.513  13.822
96081SOL    HW290076   6.354   4.548  13.677
96082SOL     OW90077   9.264   1.655   2.982
96082SOL    HW190078   9.241   1.565   3.007
96082SOL    HW290079   9.350   1.670   3.020
96083SOL     OW90080  14.471  13.997  12.016
96083SOL    HW190081  14.433  13.912  12.039
96083SOL    HW290082  14.395  14.051  11.993
96084SOL     OW90083  11.868  14.464  11.408
96084SOL    HW190084  11.861  14.500  11.319
96084SOL    HW290085  11.881  14.370  11.394
96085SOL     OW90086   9.565   0.209   2.697
96085SOL    HW190087   9.648   0.254   2.707
96085SOL    HW290088   9.502   0.279   2.677
96086SOL     OW90089  12.700  14.136  13.381
96086SOL    HW190090  12.660  14.110  13.298
96086SOL    HW290091  12.793  14.115  13.370
96087SOL     OW90092   7.066  11.242   8.857
96087SOL    HW190093   7.011  11.275   8.928
96087SOL    HW290094   7.022  11.161   8.829
96088SOL     OW90095   0.674   8.107   2.399
96088SOL    HW190096   0.673   8.199   2.425
96088SOL    HW290097   0.600   8.098   2.338
96089SOL     OW90098  14.683   9.324   0.818
96089SOL    HW190099  14.688   9.268   0.896
96089SOL    HW290100  14.611   9.287   0.767
96090SOL     OW90101  11.112   3.330   0.456
96090SOL    HW190102  11.076   3.279   0.383
96090SOL    HW290103  11.087   3.281   0.534
96091SOL     OW90104   1.724   5.758   7.041
96091SOL    HW190105   1.816   5.734   7.025
96091SOL    HW290106   1.704   5.823   6.974
96092SOL     OW90107   2.846  12.957  10.113
96092SOL    HW190108   2.758  12.958  10.150
96092SOL    HW290109   2.859  13.046  10.080
96093SOL     OW90110   7.361   6.582   8.829
96093SOL    HW190111   7.388   6.496   8.797
96093SOL    HW290112   7.386   6.642   8.759
96094SOL     OW90113  14.715   7.943   7.446
96094SOL    HW190114  14.770   7.946   7.524
96094SOL    HW290115  14.778   7.940   7.373
96095SOL     OW90116   3.063   1.097  14.284
96095SOL    HW190117   3.057   1.191  14.266
96095SOL    HW290118   2.975   1.063  14.270
96096SOL     OW90119   9.708   9.757  10.978
96096SOL    HW190120   9.703   9.841  11.023
96096SOL    HW290121   9.617   9.735  10.958
96097SOL     OW90122   3.058   5.107   9.173
96097SOL    HW190123   3.113   5.031   9.194
96097SOL    HW290124   3.084   5.174   9.235
96098SOL     OW90125   2.676   6.073   5.557
96098SOL    HW190126   2.767   6.098   5.575
96098SOL    HW290127   2.627   6.105   5.633
96099SOL     OW90128   0.979  12.338   8.506
96099SOL    HW190129   0.895  12.382   8.495
96099SOL    HW290130   1.021  12.342   8.420
96100SOL     OW90131  10.478   8.010   7.740
96100SOL    HW190132  10.432   8.087   7.708
96100SOL    HW290133  10.559   8.009   7.689
96101SOL     OW90134   6.513   5.190   6.761
96101SOL    HW190135   6.606   5.175   6.776
96101SOL    HW290136   6.503   5.285   6.758
96102SOL     OW90137  10.078   5.217   4.689
96102SOL    HW190138  10.165   5.256   4.698
96102SOL    HW290139  10.021   5.291   4.670
96103SOL     OW90140  13.012   1.241   0.458
96103SOL    HW190141  12.941   1.183   0.487
96103SOL    HW290142  13.090   1.187   0.463
96104SOL     OW90143  10.059   6.721   8.512
96104SOL    HW190144  10.060   6.720   8.416
96104SOL    HW290145  10.004   6.796   8.535
96105SOL     OW90146   0.281   0.816   1.022
96105SOL    HW190147   0.325   0.893   1.058
96105SOL    HW290148   0.309   0.744   1.078
96106SOL     OW90149   4.857   8.528  12.934
96106SOL    HW190150   4.897   8.594  12.878
96106SOL    HW290151   4.807   8.472  12.875
96107SOL     OW90152  12.647   4.006   0.086
96107SOL    HW190153  12.660   4.077   0.024
96107SOL    HW290154  12.586   4.041   0.151
96108SOL     OW90155  14.617   7.957   4.049
96108SOL    HW190156  14.670   8.024   4.093
96108SOL    HW290157  14.630   7.975   3.956
96109SOL     OW90158   2.456   5.791  13.627
96109SOL    HW190159   2.503   5.793  13.543
96109SOL    HW290160   2.485   5.710  13.668
96110SOL     OW90161   0.094   0.952  10.914
96110SOL    HW190162   0.018   1.002  10.886
96110SOL    HW290163   0.062   0.862  10.922
96111SOL     OW90164   4.489   0.598   2.703
96111SOL    HW190165   4.504   0.506   2.723
96111SOL    HW290166   4.412   0.623   2.755
96112SOL     OW90167   9.947  14.691  10.262
96112SOL    HW190168   9.939  14.729  10.350
96112SOL    HW290169  10.035  14.718  10.233
96113SOL     OW90170   7.771   7.065   7.703
96113SOL    HW190171   7.738   7.123   7.635
96113SOL    HW290172   7.705   6.996   7.710
96114SOL     OW90173   3.557  13.472   4.207
96114SOL    HW190174   3.618  13.534   4.248
96114SOL    HW290175   3.471  13.505   4.230
96115SOL     OW90176  11.033  14.319  14.048
96115SOL    HW190177  10.945  14.332  14.014
96115SOL    HW290178  11.061  14.234  14.014
96116SOL     OW90179  10.817   6.276  13.746
96116SOL    HW190180  10.743   6.253  13.690
96116SOL    HW290181  10.837   6.367  13.725
96117SOL     OW90182  13.952   7.350  14.303
96117SOL    HW190183  13.910   7.273  14.266
96117SOL    HW290184  13.883   7.416  14.307
96118SOL     OW90185  11.565   8.150   6.585
96118SOL    HW190186  11.480   8.161   6.627
96118SOL    HW290187  11.550   8.084   6.517
96119SOL     OW90188   1.987  10.430   6.114
96119SOL    HW190189   1.991  10.457   6.023
96119SOL    HW290190   1.924  10.489   6.155
96120SOL     OW90191   0.795   1.584   1.017
96120SOL    HW190192   0.720   1.643   1.008
96120SOL    HW290193   0.859   1.619   0.955
96121SOL     OW90194   9.465  11.236  11.605
96121SOL    HW190195   9.445  11.310  11.663
96121SOL    HW290196   9.539  11.192  11.647
96122SOL     OW90197   5.007   3.192   0.206
96122SOL    HW190198   5.081   3.139   0.236
96122SOL    HW290199   5.031   3.282   0.229
96123SOL     OW90200   2.383   6.954  11.573
96123SOL    HW190201   2.308   7.009  11.550
96123SOL    HW290202   2.391   6.893  11.499
96124SOL     OW90203   7.952   5.362  10.096
96124SOL    HW190204   7.924   5.367  10.005
96124SOL    HW290205   8.045   5.337  10.091
96125SOL     OW90206  11.777   5.115   2.889
96125SOL    HW190207  11.686   5.108   2.917
96125SOL    HW290208  11.800   5.028   2.857
96126SOL     OW90209   6.826   8.090   9.608
96126SOL    HW190210   6.767   8.166   9.616
96126SOL    HW290211   6.809   8.038   9.686
96127SOL     OW90212  10.778   1.736  11.931
96127SOL    HW190213  10.798   1.646  11.905
96127SOL    HW290214  10.703   1.760  11.876
96128SOL     OW90215   0.326   2.882  10.689
96128SOL    HW190216   0.333   2.788  10.705
96128SOL    HW290217   0.404   2.919  10.730
96129SOL     OW90218   5.000   5.654   6.992
96129SOL    HW190219   4.966   5.580   6.941
96129SOL    HW290220   4.923   5.708   7.010
96130SOL     OW90221   1.186  10.071   9.818
96130SOL    HW190222   1.143  10.152   9.790
96130SOL    HW290223   1.121  10.026   9.873
96131SOL     OW90224  12.552   1.317   5.626
96131SOL    HW190225  12.457   1.308   5.628
96131SOL    HW290226  12.567   1.395   5.573
96132SOL     OW90227   4.276  14.178   9.499
96132SOL    HW190228   4.324  14.225   9.431
96132SOL    HW290229   4.296  14.086   9.482
96133SOL     OW90230  12.229   0.573   3.452
96133SOL    HW190231  12.208   0.492   3.498
96133SOL    HW290232  12.151   0.590   3.398
96134SOL     OW90233  14.563   7.896   5.804
96134SOL    HW190234  14.607   7.975   5.836
96134SOL    HW290235  14.481   7.927   5.767
96135SOL     OW90236   6.232   9.793  11.425
96135SOL    HW190237   6.138   9.812  11.424
96135SOL    HW290238   6.241   9.719  11.484
96136SOL     OW90239   9.589   4.418  13.462
96136SOL    HW190240   9.565   4.407  13.371
96136SOL    HW290241   9.601   4.512  13.474
96137SOL     OW90242   5.101  11.154  10.417
96137SOL    HW190243   5.171  11.126  10.358
96137SOL    HW290244   5.131  11.239  10.451
96138SOL     OW90245   1.560   2.820   8.662
96138SOL    HW190246   1.466   2.806   8.675
96138SOL    HW290247   1.600   2.736   8.684
96139SOL     OW90248  14.535   4.774   8.484
96139SOL    HW190249  14.615   4.739   8.523
96139SOL    HW290250  14.564   4.846   8.428
96140SOL     OW90251   0.168   1.274   1.612
96140SOL    HW190252   0.225   1.332   1.561
96140SOL    HW290253   0.225   1.202   1.639
96141SOL     OW90254   6.775  12.701   4.999
96141SOL    HW190255   6.812  12.734   5.081
96141SOL    HW290256   6.793  12.770   4.935
96142SOL     OW90257   8.013   0.709  14.194
96142SOL    HW190258   7.961   0.650  14.140
96142SOL    HW290259   8.094   0.722  14.146
96143SOL     OW90260  11.243   8.835  14.597
96143SOL    HW190261  11.234   8.918  14.550
96143SOL    HW290262  11.293   8.780  14.537
96144SOL     OW90263   8.879   2.048   4.613
96144SOL    HW190264   8.859   2.118   4.551
96144SOL    HW290265   8.797   2.033   4.660
96145SOL     OW90266   9.857   2.577   8.084
96145SOL    HW190267   9.791   2.518   8.120
96145SOL    HW290268   9.926   2.519   8.053
96146SOL     OW90269   5.375   2.096   4.569
96146SOL    HW190270   5.427   2.021   4.596
96146SOL    HW290271   5.432   2.172   4.585
96147SOL     OW90272   4.534  14.690  14.548
96147SOL    HW190273   4.628  14.672  14.539
96147SOL    HW290274   4.531  14.775  14.592
96148SOL     OW90275  13.005  11.486   3.109
96148SOL    HW190276  13.077  11.450   3.057
96148SOL    HW290277  13.047  11.538   3.177
96149SOL     OW90278   8.246   8.103   7.757
96149SOL    HW190279   8.339   8.117   7.737
96149SOL    HW290280   8.202   8.120   7.674
96150SOL     OW90281   8.482  12.892  13.932
96150SOL    HW190282   8.412  12.922  13.874
96150SOL    HW290283   8.559  12.888  13.877
96151SOL     OW90284   8.771  11.930   5.362
96151SOL    HW190285   8.799  11.960   5.275
96151SOL    HW290286   8.832  11.860   5.384
96152SOL     OW90287   7.147   1.862  12.494
96152SOL    HW190288   7.136   1.780  12.543
96152SOL    HW290289   7.216   1.909  12.540
96153SOL     OW90290  13.223   7.181  10.924
96153SOL    HW190291  13.172   7.136  10.856
96153SOL    HW290292  13.164   7.187  10.999
96154SOL     OW90293  11.247  10.450   6.326
96154SOL    HW190294  11.298  10.390   6.380
96154SOL    HW290295  11.257  10.535   6.368
96155SOL     OW90296  11.575   3.384   1.614
96155SOL    HW190297  11.669   3.393   1.598
96155SOL    HW290298  11.534   3.436   1.545
96156SOL     OW90299   8.398  11.430   2.542
96156SOL    HW190300   8.432  11.518   2.559
96156SOL    HW290301   8.469  11.371   2.569
96157SOL     OW90302  14.024   3.671   7.755
96157SOL    HW190303  14.018   3.580   7.782
96157SOL    HW290304  14.056   3.667   7.664
96158SOL     OW90305   9.345   1.112  14.195
96158SOL    HW190306   9.335   1.204  14.171
96158SOL    HW290307   9.350   1.066  14.111
96159SOL     OW90308  10.417   6.635   5.954
96159SOL    HW190309  10.479   6.638   5.881
96159SOL    HW290310  10.380   6.723   5.958
96160SOL     OW90311   2.317   8.886  10.071
96160SOL    HW190312   2.265   8.964  10.052
96160SOL    HW290313   2.292   8.862  10.161
96161SOL     OW90314   4.280  12.447   5.661
96161SOL    HW190315   4.252  12.537   5.678
96161SOL    HW290316   4.205  12.393   5.687
96162SOL     OW90317   6.319   8.269   9.813
96162SOL    HW190318   6.298   8.318   9.893
96162SOL    HW290319   6.233   8.245   9.777
96163SOL     OW90320   0.642  14.577  14.758
96163SOL    HW190321   0.718  14.623  14.724
96163SOL    HW290322   0.678  14.515  14.822
96164SOL     OW90323   9.870   8.425  13.411
96164SOL    HW190324   9.942   8.486  13.426
96164SOL    HW290325   9.822   8.423  13.493
96165SOL     OW90326   7.750  13.342   0.707
96165SOL    HW190327   7.739  13.414   0.768
96165SOL    HW290328   7.796  13.380   0.632
96166SOL     OW90329  13.922  12.852   6.110
96166SOL    HW190330  13.935  12.772   6.059
96166SOL    HW290331  14.007  12.869   6.150
96167SOL     OW90332  13.016   3.109  13.636
96167SOL    HW190333  12.954   3.042  13.606
96167SOL    HW290334  12.976   3.145  13.715
96168SOL     OW90335   2.339  12.164   9.357
96168SOL    HW190336   2.261  12.110   9.366
96168SOL    HW290337   2.389  12.123   9.287
96169SOL     OW90338  10.123  11.408   1.109
96169SOL    HW190339  10.159  11.446   1.189
96169SOL    HW290340  10.172  11.450   1.038
96170SOL     OW90341   1.814   9.928   1.800
96170SOL    HW190342   1.902   9.907   1.831
96170SOL    HW290343   1.828  10.000   1.738
96171SOL     OW90344   9.571   5.669  12.005
96171SOL    HW190345   9.620   5.602  12.053
96171SOL    HW290346   9.600   5.752  12.044
96172SOL     OW90347   8.278   2.382   4.584
96172SOL    HW190348   8.225   2.441   4.637
96172SOL    HW290349   8.320   2.439   4.519
96173SOL     OW90350   5.705   4.551   1.871
96173SOL    HW190351   5.730   4.506   1.952
96173SOL    HW290352   5.621   4.512   1.847
96174SOL     OW90353   8.751   4.457  12.804
96174SOL    HW190354   8.758   4.495  12.892
96174SOL    HW290355   8.839   4.424  12.785
96175SOL     OW90356   0.173  14.217   9.956
96175SOL    HW190357   0.218  14.143   9.997
96175SOL    HW290358   0.235  14.289   9.963
96176SOL     OW90359   4.886   9.048   2.583
96176SOL    HW190360   4.921   8.991   2.652
96176SOL    HW290361   4.791   9.044   2.596
96177SOL     OW90362   4.022   4.296   9.611
96177SOL    HW190363   3.972   4.224   9.649
96177SOL    HW290364   4.111   4.284   9.643
96178SOL     OW90365   9.890  13.900   0.505
96178SOL    HW190366   9.855  13.956   0.574
96178SOL    HW290367   9.961  13.952   0.466
96179SOL     OW90368   2.388   9.746   1.259
96179SOL    HW190369   2.327   9.789   1.319
96179SOL    HW290370   2.374   9.652   1.275
96180SOL     OW90371   9.538   8.093   0.091
96180SOL    HW190372   9.580   8.171   0.055
96180SOL    HW290373   9.476   8.126   0.155
96181SOL     OW90374  12.246   2.762  11.169
96181SOL    HW190375  12.253   2.796  11.080
96181SOL    HW290376  12.169   2.705  11.168
96182SOL     OW90377   0.973  11.108   0.172
96182SOL    HW190378   1.031  11.039   0.139
96182SOL    HW290379   1.025  11.155   0.237
96183SOL     OW90380  12.738   0.290  11.765
96183SOL    HW190381  12.751   0.336  11.682
96183SOL    HW290382  12.786   0.342  11.829
96184SOL     OW90383   3.003   9.276  10.245
96184SOL    HW190384   2.958   9.196  10.217
96184SOL    HW290385   2.952   9.347  10.206
96185SOL     OW90386   9.814   3.527   0.628
96185SOL    HW190387   9.836   3.484   0.711
96185SOL    HW290388   9.803   3.619   0.651
96186SOL     OW90389  13.180   1.938   7.643
96186SOL    HW190390  13.246   1.999   7.678
96186SOL    HW290391  13.171   1.963   7.551
96187SOL     OW90392   1.014   3.838   0.993
96187SOL    HW190393   0.943   3.884   0.947
96187SOL    HW290394   1.014   3.877   1.081
96188SOL     OW90395   4.330   5.025   1.770
96188SOL    HW190396   4.340   5.005   1.677
96188SOL    HW290397   4.365   4.948   1.815
96189SOL     OW90398  13.963   6.001  11.572
96189SOL    HW190399  13.962   5.910  11.601
96189SOL    HW290400  13.941   5.997  11.479
96190SOL     OW90401   5.258  11.987  12.294
96190SOL    HW190402   5.196  12.010  12.225
96190SOL    HW290403   5.203  11.967  12.370
96191SOL     OW90404  10.987   8.253   7.019
96191SOL    HW190405  10.899   8.239   6.983
96191SOL    HW290406  10.993   8.194   7.094
96192SOL     OW90407   1.756  11.030   8.049
96192SOL    HW190408   1.848  11.014   8.032
96192SOL    HW290409   1.752  11.051   8.143
96193SOL     OW90410   8.832  10.214   1.416
96193SOL    HW190411   8.892  10.258   1.477
96193SOL    HW290412   8.765  10.280   1.396
96194SOL     OW90413   2.959  14.341   1.112
96194SOL    HW190414   3.020  14.288   1.061
96194SOL    HW290415   2.877  14.293   1.108
96195SOL     OW90416  11.101   3.832  12.799
96195SOL    HW190417  11.065   3.744  12.807
96195SOL    HW290418  11.024   3.889  12.804
96196SOL     OW90419  13.579   8.586   8.647
96196SOL    HW190420  13.674   8.575   8.649
96196SOL    HW290421  13.565   8.671   8.606
96197SOL     OW90422   4.065   9.026   0.766
96197SOL    HW190423   4.008   8.953   0.791
96197SOL    HW290424   4.050   9.037   0.672
96198SOL     OW90425   3.744  13.402   0.593
96198SOL    HW190426   3.823  13.351   0.612
96198SOL    HW290427   3.716  13.436   0.678
96199SOL     OW90428   4.953  11.494   5.236
96199SOL    HW190429   4.942  11.526   5.326
96199SOL    HW290430   5.015  11.555   5.197
96200SOL     OW90431   1.947  11.022   9.421
96200SOL    HW190432   2.028  10.977   9.447
96200SOL    HW290433   1.960  11.043   9.329
96201SOL     OW90434   6.241  13.673   5.713
96201SOL    HW190435   6.193  13.609   5.764
96201SOL    HW290436   6.317  13.695   5.767
96202SOL     OW90437   8.699   7.473  13.737
96202SOL    HW190438   8.775   7.495  13.684
96202SOL    HW290439   8.627   7.523  13.698
96203SOL     OW90440   3.092   8.013   0.138
96203SOL    HW190441   3.178   8.044   0.168
96203SOL    HW290442   3.038   8.012   0.217
96204SOL     OW90443   8.227   0.800   3.286
96204SOL    HW190444   8.317   0.829   3.297
96204SOL    HW290445   8.216   0.729   3.349
96205SOL     OW90446   1.001   7.088  12.949
96205SOL    HW190447   0.913   7.110  12.980
96205SOL    HW290448   1.031   7.167  12.904
96206SOL     OW90449   0.233   3.651  14.155
96206SOL    HW190450   0.244   3.567  14.200
96206SOL    HW290451   0.149   3.642  14.108
96207SOL     OW90452   7.573  13.891  14.410
96207SOL    HW190453   7.666  13.911  14.403
96207SOL    HW290454   7.560  13.866  14.502
96208SOL     OW90455   5.418  13.414  11.694
96208SOL    HW190456   5.473  13.474  11.745
96208SOL    HW290457   5.480  13.359  11.647
96209SOL     OW90458   7.360   9.545   3.227
96209SOL    HW190459   7.274   9.524   3.192
96209SOL    HW290460   7.349   9.543   3.322
96210SOL     OW90461   3.740   9.568   0.516
96210SOL    HW190462   3.790   9.528   0.445
96210SOL    HW290463   3.804   9.625   0.561
96211SOL     OW90464   0.894  13.400   9.259
96211SOL    HW190465   0.888  13.467   9.327
96211SOL    HW290466   0.806  13.394   9.222
96212SOL     OW90467   2.864   2.200   1.050
96212SOL    HW190468   2.837   2.271   1.109
96212SOL    HW290469   2.809   2.126   1.076
96213SOL     OW90470  13.403  10.026  10.096
96213SOL    HW190471  13.482   9.994  10.139
96213SOL    HW290472  13.338  10.031  10.166
96214SOL     OW90473  13.906   4.810  10.492
96214SOL    HW190474  13.899   4.754  10.415
96214SOL    HW290475  13.943   4.753  10.559
96215SOL     OW90476   6.058   2.036   9.525
96215SOL    HW190477   5.974   2.026   9.481
96215SOL    HW290478   6.041   2.011   9.615
96216SOL     OW90479   3.792   6.262  11.924
96216SOL    HW190480   3.859   6.193  11.928
96216SOL    HW290481   3.799   6.297  11.836
96217SOL     OW90482  12.441   5.701   4.535
96217SOL    HW190483  12.527   5.693   4.493
96217SOL    HW290484  12.382   5.650   4.480
96218SOL     OW90485   7.284   4.932  11.413
96218SOL    HW190486   7.202   4.944  11.461
96218SOL    HW290487   7.273   4.983  11.333
96219SOL     OW90488   6.772   9.399  11.005
96219SOL    HW190489   6.701   9.371  10.948
96219SOL    HW290490   6.841   9.429  10.945
96220SOL     OW90491  11.394   4.950  12.470
96220SOL    HW190492  11.317   4.895  12.459
96220SOL    HW290493  11.417   4.979  12.382
96221SOL     OW90494   8.884  13.141  13.934
96221SOL    HW190495   8.804  13.186  13.906
96221SOL    HW290496   8.867  13.116  14.024
96222SOL     OW90497   2.345   9.285  14.239
96222SOL    HW190498   2.413   9.220  14.220
96222SOL    HW290499   2.263   9.239  14.224
96223SOL     OW90500  13.240   5.622   1.648
96223SOL    HW190501  13.296   5.609   1.572
96223SOL    HW290502  13.263   5.710   1.679
96224SOL     OW90503   4.501  13.017   5.592
96224SOL    HW190504   4.520  12.935   5.637
96224SOL    HW290505   4.579  13.071   5.604
96225SOL     OW90506   4.878   1.288   6.770
96225SOL    HW190507   4.804   1.252   6.722
96225SOL    HW290508   4.952   1.231   6.746
96226SOL     OW90509   5.185   9.793   2.354
96226SOL    HW190510   5.170   9.702   2.379
96226SOL    HW290511   5.178   9.793   2.258
96227SOL     OW90512   4.327  11.447   0.838
96227SOL    HW190513   4.293  11.396   0.765
96227SOL    HW290514   4.360  11.382   0.900
96228SOL     OW90515   7.137  13.749   8.719
96228SOL    HW190516   7.049  13.714   8.710
96228SOL    HW290517   7.184  13.715   8.643
96229SOL     OW90518  11.040   9.866   6.323
96229SOL    HW190519  11.004   9.829   6.243
96229SOL    HW290520  10.975   9.844   6.390
96230SOL     OW90521   8.135   7.019   9.061
96230SOL    HW190522   8.056   7.069   9.082
96230SOL    HW290523   8.119   6.985   8.973
96231SOL     OW90524   0.586   5.338  10.174
96231SOL    HW190525   0.591   5.282  10.252
96231SOL    HW290526   0.553   5.422  10.206
96232SOL     OW90527   9.361   3.387  14.174
96232SOL    HW190528   9.381   3.310  14.227
96232SOL    HW290529   9.326   3.351  14.092
96233SOL     OW90530   1.081  10.188   3.202
96233SOL    HW190531   1.037  10.254   3.148
96233SOL    HW290532   1.130  10.134   3.139
96234SOL     OW90533   4.074   2.368   5.717
96234SOL    HW190534   4.099   2.296   5.660
96234SOL    HW290535   4.012   2.330   5.779
96235SOL     OW90536   0.683   5.152   7.653
96235SOL    HW190537   0.708   5.060   7.656
96235SOL    HW290538   0.720   5.189   7.733
96236SOL     OW90539  13.703  14.188   7.721
96236SOL    HW190540  13.769  14.217   7.658
96236SOL    HW290541  13.621  14.189   7.673
96237SOL     OW90542   3.242   7.034   2.637
96237SOL    HW190543   3.196   7.091   2.576
96237SOL    HW290544   3.329   7.073   2.645
96238SOL     OW90545  13.855   0.703  11.667
96238SOL    HW190546  13.807   0.630  11.627
96238SOL    HW290547  13.787   0.762  11.698
96239SOL     OW90548  10.368   5.664   9.485
96239SOL    HW190549  10.435   5.725   9.452
96239SOL    HW290550  10.386   5.582   9.439
96240SOL     OW90551   0.129   2.903   3.738
96240SOL    HW190552   0.157   2.821   3.697
96240SOL    HW290553   0.041   2.885   3.770
96241SOL     OW90554   0.533  12.942   8.812
96241SOL    HW190555   0.562  12.852   8.794
96241SOL    HW290556   0.437  12.938   8.807
96242SOL     OW90557  14.836   7.788   6.892
96242SOL    HW190558  14.806   7.706   6.853
96242SOL    HW290559  14.841   7.850   6.818
96243SOL     OW90560   9.488   5.193  12.519
96243SOL    HW190561   9.471   5.287  12.516
96243SOL    HW290562   9.570   5.182  12.471
96244SOL     OW90563  14.865  12.208   9.065
96244SOL    HW190564  14.799  12.147   9.099
96244SOL    HW290565  14.813  12.278   9.024
96245SOL     OW90566   0.703  11.808   9.324
96245SOL    HW190567   0.764  11.792   9.253
96245SOL    HW290568   0.682  11.901   9.317
96246SOL     OW90569   2.727   6.267   7.714
96246SOL    HW190570   2.788   6.266   7.640
96246SOL    HW290571   2.689   6.355   7.713
96247SOL     OW90572   4.850   0.184   4.623
96247SOL    HW190573   4.892   0.163   4.707
96247SOL    HW290574   4.763   0.215   4.648
96248SOL     OW90575  11.955  10.850   0.091
96248SOL    HW190576  11.869  10.875   0.126
96248SOL    HW290577  11.990  10.931   0.053
96249SOL     OW90578   6.168   0.210  12.072
96249SOL    HW190579   6.200   0.189  12.159
96249SOL    HW290580   6.132   0.128  12.039
96250SOL     OW90581   1.082   6.459   3.903
96250SOL    HW190582   1.029   6.504   3.837
96250SOL    HW290583   1.168   6.501   3.898
96251SOL     OW90584   8.452  11.167   3.375
96251SOL    HW190585   8.444  11.115   3.295
96251SOL    HW290586   8.440  11.257   3.346
96252SOL     OW90587   8.357   0.228   6.525
96252SOL    HW190588   8.389   0.147   6.484
96252SOL    HW290589   8.269   0.206   6.556
96253SOL     OW90590   7.094  12.317  13.627
96253SOL    HW190591   7.122  12.250  13.565
96253SOL    HW290592   7.163  12.383  13.623
96254SOL     OW90593   7.941   7.761  13.847
96254SOL    HW190594   7.977   7.772  13.758
96254SOL    HW290595   7.945   7.848  13.885
96255SOL     OW90596  11.613   5.534   5.930
96255SOL    HW190597  11.641   5.511   6.018
96255SOL    HW290598  11.545   5.601   5.943
96256SOL     OW90599   0.260   2.725   5.252
96256SOL    HW190600   0.190   2.689   5.198
96256SOL    HW290601   0.219   2.798   5.299
96257SOL     OW90602   3.233   2.156   2.293
96257SOL    HW190603   3.196   2.079   2.337
96257SOL    HW290604   3.169   2.180   2.227
96258SOL     OW90605  13.522  12.742   1.275
96258SOL    HW190606  13.530  12.758   1.369
96258SOL    HW290607  13.606  12.768   1.239
96259SOL     OW90608   2.384   2.907  12.138
96259SOL    HW190609   2.317   2.845  12.166
96259SOL    HW290610   2.419   2.943  12.220
96260SOL     OW90611  14.438   5.851   9.002
96260SOL    HW190612  14.419   5.940   9.032
96260SOL    HW290613  14.446   5.859   8.907
96261SOL     OW90614  12.414   8.692   3.019
96261SOL    HW190615  12.399   8.784   2.999
96261SOL    HW290616  12.499   8.672   2.980
96262SOL     OW90617   3.707   4.937   5.948
96262SOL    HW190618   3.794   4.899   5.945
96262SOL    HW290619   3.653   4.870   5.990
96263SOL     OW90620   6.802   6.458  10.723
96263SOL    HW190621   6.863   6.480  10.793
96263SOL    HW290622   6.785   6.541  10.679
96264SOL     OW90623   2.679   7.937   9.204
96264SOL    HW190624   2.681   7.874   9.132
96264SOL    HW290625   2.683   7.882   9.283
96265SOL     OW90626   6.664   9.312   0.866
96265SOL    HW190627   6.691   9.397   0.831
96265SOL    HW290628   6.704   9.248   0.808
96266SOL     OW90629  13.131  14.610   4.734
96266SOL    HW190630  13.167  14.699   4.728
96266SOL    HW290631  13.054  14.611   4.677
96267SOL     OW90632   4.886   2.429  12.816
96267SOL    HW190633   4.964   2.481  12.796
96267SOL    HW290634   4.914   2.338  12.808
96268SOL     OW90635  12.247   6.324   6.191
96268SOL    HW190636  12.339   6.322   6.164
96268SOL    HW290637  12.220   6.232   6.190
96269SOL     OW90638   5.981  10.353   0.487
96269SOL    HW190639   6.011  10.303   0.563
96269SOL    HW290640   5.886  10.358   0.498
96270SOL     OW90641   4.663   9.883  10.114
96270SOL    HW190642   4.633   9.814  10.173
96270SOL    HW290643   4.692   9.954  10.173
96271SOL     OW90644   9.815  11.357   6.222
96271SOL    HW190645   9.799  11.413   6.146
96271SOL    HW290646   9.747  11.290   6.217
96272SOL     OW90647  11.093   0.818   5.197
96272SOL    HW190648  11.097   0.869   5.116
96272SOL    HW290649  11.029   0.750   5.180
96273SOL     OW90650  12.145   8.500  14.575
96273SOL    HW190651  12.091   8.532  14.503
96273SOL    HW290652  12.207   8.440  14.533
96274SOL     OW90653  13.669   7.177  13.826
96274SOL    HW190654  13.650   7.244  13.760
96274SOL    HW290655  13.590   7.174  13.879
96275SOL     OW90656   0.103  10.477  14.605
96275SOL    HW190657   0.127  10.387  14.629
96275SOL    HW290658   0.041  10.467  14.533
96276SOL     OW90659  14.642  12.915   8.663
96276SOL    HW190660  14.630  12.892   8.756
96276SOL    HW290661  14.686  12.838   8.626
96277SOL     OW90662  13.024  12.947   3.664
96277SOL    HW190663  13.036  12.888   3.738
96277SOL    HW290664  13.097  13.009   3.671
96278SOL     OW90665   9.424  12.037   2.438
96278SOL    HW190666   9.337  12.074   2.429
96278SOL    HW290667   9.481  12.095   2.389
96279SOL     OW90668  14.458  10.397   1.088
96279SOL    HW190669  14.522  10.462   1.116
96279SOL    HW290670  14.457  10.332   1.158
96280SOL     OW90671  12.779   9.197   3.387
96280SOL    HW190672  12.753   9.160   3.302
96280SOL    HW290673  12.771   9.124   3.448
96281SOL     OW90674  11.701   5.942   8.307
96281SOL    HW190675  11.622   5.949   8.252
96281SOL    HW290676  11.674   5.890   8.382
96282SOL     OW90677   7.573  12.612  12.497
96282SOL    HW190678   7.656  12.622  12.449
96282SOL    HW290679   7.599  12.574  12.581
96283SOL     OW90680  13.564   9.292  12.503
96283SOL    HW190681  13.622   9.297  12.578
96283SOL    HW290682  13.534   9.202  12.502
96284SOL     OW90683   5.463   4.790  11.306
96284SOL    HW190684   5.543   4.737  11.301
96284SOL    HW290685   5.481   4.854  11.375
96285SOL     OW90686   7.437  10.760   6.810
96285SOL    HW190687   7.485  10.755   6.893
96285SOL    HW290688   7.500  10.796   6.748
96286SOL     OW90689  11.544   4.698   2.189
96286SOL    HW190690  11.605   4.643   2.238
96286SOL    HW290691  11.485   4.734   2.254
96287SOL     OW90692   3.762   7.595  10.794
96287SOL    HW190693   3.838   7.642  10.759
96287SOL    HW290694   3.796   7.550  10.872
96288SOL     OW90695  10.400   1.328   4.880
96288SOL    HW190696  10.366   1.416   4.895
96288SOL    HW290697  10.324   1.277   4.852
96289SOL     OW90698   8.514   1.497  11.086
96289SOL    HW190699   8.508   1.403  11.100
96289SOL    HW290700   8.472   1.512  11.001
96290SOL     OW90701   0.507   5.704   1.001
96290SOL    HW190702   0.558   5.749   0.934
96290SOL    HW290703   0.462   5.634   0.954
96291SOL     OW90704   6.699  13.686  13.514
96291SOL    HW190705   6.671  13.612  13.567
96291SOL    HW290706   6.730  13.751  13.577
96292SOL     OW90707   8.079   2.419   5.346
96292SOL    HW190708   8.131   2.486   5.303
96292SOL    HW290709   8.023   2.382   5.277
96293SOL     OW90710  10.510   5.863   8.179
96293SOL    HW190711  10.493   5.769   8.171
96293SOL    HW290712  10.508   5.897   8.090
96294SOL     OW90713  10.916  11.009   2.184
96294SOL    HW190714  10.825  11.040   2.189
96294SOL    HW290715  10.951  11.051   2.105
96295SOL     OW90716   7.187   7.740   1.776
96295SOL    HW190717   7.114   7.698   1.823
96295SOL    HW290718   7.212   7.676   1.710
96296SOL     OW90719   1.147  11.553  12.339
96296SOL    HW190720   1.131  11.603  12.418
96296SOL    HW290721   1.065  11.559  12.290
96297SOL     OW90722   7.666  14.552  10.016
96297SOL    HW190723   7.663  14.587  10.105
96297SOL    HW290724   7.613  14.472  10.020
96298SOL     OW90725  12.893   6.896   6.377
96298SOL    HW190726  12.981   6.900   6.417
96298SOL    HW290727  12.910   6.888   6.283
96299SOL     OW90728   1.232   8.892   5.809
96299SOL    HW190729   1.306   8.831   5.812
96299SOL    HW290730   1.186   8.877   5.891
96300SOL     OW90731  11.291   7.458   3.281
96300SOL    HW190732  11.296   7.388   3.216
96300SOL    HW290733  11.381   7.464   3.315
96301SOL     OW90734   5.190   7.958   5.362
96301SOL    HW190735   5.151   7.967   5.276
96301SOL    HW290736   5.209   8.048   5.390
96302SOL     OW90737   2.459   2.464   8.432
96302SOL    HW190738   2.376   2.484   8.474
96302SOL    HW290739   2.487   2.381   8.471
96303SOL     OW90740  11.697   1.232   5.609
96303SOL    HW190741  11.761   1.189   5.666
96303SOL    HW290742  11.616   1.231   5.660
96304SOL     OW90743   1.023   5.037  10.891
96304SOL    HW190744   1.042   5.130  10.903
96304SOL    HW290745   1.093   4.992  10.939
96305SOL     OW90746  14.574   4.211   8.541
96305SOL    HW190747  14.648   4.196   8.481
96305SOL    HW290748  14.500   4.228   8.482
96306SOL     OW90749  13.881   2.214   7.544
96306SOL    HW190750  13.818   2.284   7.526
96306SOL    HW290751  13.959   2.239   7.495
96307SOL     OW90752   9.200  12.116   1.905
96307SOL    HW190753   9.119  12.117   1.957
96307SOL    HW290754   9.184  12.050   1.838
96308SOL     OW90755  14.190   3.972   8.764
96308SOL    HW190756  14.225   3.955   8.852
96308SOL    HW290757  14.264   4.007   8.715
96309SOL     OW90758  14.054  11.448   7.563
96309SOL    HW190759  14.075  11.488   7.478
96309SOL    HW290760  14.066  11.519   7.626
96310SOL     OW90761  13.150  13.350   8.842
96310SOL    HW190762  13.069  13.386   8.878
96310SOL    HW290763  13.211  13.424   8.840
96311SOL     OW90764   7.703   9.436   6.080
96311SOL    HW190765   7.668   9.501   6.141
96311SOL    HW290766   7.644   9.439   6.005
96312SOL     OW90767   0.642  13.227   1.820
96312SOL    HW190768   0.660  13.279   1.898
96312SOL    HW290769   0.714  13.165   1.814
96313SOL     OW90770   7.066  12.037   6.646
96313SOL    HW190771   7.007  11.980   6.597
96313SOL    HW290772   7.153  12.017   6.611
96314SOL     OW90773   7.959  14.845   7.133
96314SOL    HW190774   8.013   0.042   7.100
96314SOL    HW290775   7.939  14.870   7.223
96315SOL     OW90776   2.250   2.951   7.513
96315SOL    HW190777   2.251   2.893   7.589
96315SOL    HW290778   2.281   3.035   7.546
96316SOL     OW90779   7.181  12.911   1.450
96316SOL    HW190780   7.274  12.922   1.430
96316SOL    HW290781   7.171  12.943   1.539
96317SOL     OW90782   2.741  12.070   8.396
96317SOL    HW190783   2.816  12.074   8.455
96317SOL    HW290784   2.672  12.028   8.448
96318SOL     OW90785  11.378   0.492   1.708
96318SOL    HW190786  11.355   0.438   1.632
96318SOL    HW290787  11.295   0.518   1.747
96319SOL     OW90788  11.625   9.074   3.466
96319SOL    HW190789  11.688   9.051   3.398
96319SOL    HW290790  11.574   9.146   3.429
96320SOL     OW90791   9.386   1.769  11.865
96320SOL    HW190792   9.458   1.831  11.853
96320SOL    HW290793   9.368   1.772  11.959
96321SOL     OW90794   2.833   7.971   0.977
96321SOL    HW190795   2.880   8.044   1.018
96321SOL    HW290796   2.786   7.930   1.049
96322SOL     OW90797   8.966   0.810   6.341
96322SOL    HW190798   8.925   0.858   6.269
96322SOL    HW290799   9.043   0.768   6.301
96323SOL     OW90800  11.371  14.087  12.264
96323SOL    HW190801  11.434  14.143  12.218
96323SOL    HW290802  11.357  14.013  12.205
96324SOL     OW90803   9.977  13.449   7.798
96324SOL    HW190804  10.049  13.504   7.831
96324SOL    HW290805   9.917  13.441   7.872
96325SOL     OW90806   8.974   2.528   4.583
96325SOL    HW190807   9.061   2.489   4.578
96325SOL    HW290808   8.990   2.619   4.605
96326SOL     OW90809  14.588  10.847   9.281
96326SOL    HW190810  14.579  10.936   9.246
96326SOL    HW290811  14.546  10.791   9.215
96327SOL     OW90812   8.222   2.171   6.254
96327SOL    HW190813   8.291   2.205   6.312
96327SOL    HW290814   8.229   2.076   6.261
96328SOL     OW90815   6.610  13.932   3.098
96328SOL    HW190816   6.654  13.967   3.021
96328SOL    HW290817   6.622  13.837   3.092
96329SOL     OW90818   0.556   6.994   6.448
96329SOL    HW190819   0.466   7.007   6.477
96329SOL    HW290820   0.575   6.902   6.469
96330SOL     OW90821   4.430   1.192   3.276
96330SOL    HW190822   4.345   1.225   3.304
96330SOL    HW290823   4.486   1.270   3.269
96331SOL     OW90824   4.507   0.208   6.888
96331SOL    HW190825   4.562   0.131   6.904
96331SOL    HW290826   4.418   0.173   6.884
96332SOL     OW90827   8.892   5.321  12.867
96332SOL    HW190828   8.915   5.236  12.906
96332SOL    HW290829   8.800   5.313  12.842
96333SOL     OW90830   4.528   9.424   3.825
96333SOL    HW190831   4.518   9.391   3.914
96333SOL    HW290832   4.609   9.474   3.827
96334SOL     OW90833   4.648   2.420   2.670
96334SOL    HW190834   4.631   2.475   2.593
96334SOL    HW290835   4.563   2.405   2.709
96335SOL     OW90836   1.404   3.065   5.538
96335SOL    HW190837   1.338   3.117   5.492
96335SOL    HW290838   1.356   2.986   5.564
96336SOL     OW90839   7.152   5.131   3.917
96336SOL    HW190840   7.097   5.198   3.956
96336SOL    HW290841   7.194   5.088   3.992
96337SOL     OW90842  12.958  13.733   2.446
96337SOL    HW190843  13.028  13.741   2.381
96337SOL    HW290844  12.966  13.811   2.500
96338SOL     OW90845   3.843   0.696   2.740
96338SOL    HW190846   3.936   0.697   2.716
96338SOL    HW290847   3.843   0.683   2.835
96339SOL     OW90848  12.293  11.070   7.403
96339SOL    HW190849  12.262  11.145   7.353
96339SOL    HW290850  12.334  11.108   7.481
96340SOL     OW90851   2.877   4.648   0.294
96340SOL    HW190852   2.868   4.709   0.221
96340SOL    HW290853   2.787   4.631   0.322
96341SOL     OW90854   4.487  14.357   8.833
96341SOL    HW190855   4.569  14.315   8.808
96341SOL    HW290856   4.440  14.369   8.750
96342SOL     OW90857  10.701   1.083  13.107
96342SOL    HW190858  10.728   1.051  13.021
96342SOL    HW290859  10.779   1.124  13.143
96343SOL     OW90860   4.079   7.118   7.658
96343SOL    HW190861   4.138   7.141   7.586
96343SOL    HW290862   4.034   7.200   7.678
96344SOL     OW90863   2.140   5.725   7.137
96344SOL    HW190864   2.232   5.698   7.142
96344SOL    HW290865   2.130   5.786   7.210
96345SOL     OW90866   2.069   5.982  10.177
96345SOL    HW190867   2.049   5.953  10.088
96345SOL    HW290868   2.050   5.905  10.232
96346SOL     OW90869  14.710  11.340   4.199
96346SOL    HW190870  14.684  11.269   4.258
96346SOL    HW290871  14.803  11.323   4.181
96347SOL     OW90872   1.396   7.948   5.592
96347SOL    HW190873   1.479   7.949   5.640
96347SOL    HW290874   1.418   7.910   5.507
96348SOL     OW90875  10.891  11.311   9.294
96348SOL    HW190876  10.908  11.359   9.213
96348SOL    HW290877  10.845  11.232   9.266
96349SOL     OW90878   6.579   1.259   8.725
96349SOL    HW190879   6.543   1.223   8.644
96349SOL    HW290880   6.658   1.306   8.698
96350SOL     OW90881  13.735   9.147   7.365
96350SOL    HW190882  13.703   9.081   7.304
96350SOL    HW290883  13.803   9.194   7.317
96351SOL     OW90884  12.366   3.754  10.892
96351SOL    HW190885  12.300   3.707  10.840
96351SOL    HW290886  12.419   3.684  10.931
96352SOL     OW90887   4.588   9.044  10.554
96352SOL    HW190888   4.549   8.967  10.594
96352SOL    HW290889   4.588   9.024  10.460
96353SOL     OW90890  10.681   6.789  12.285
96353SOL    HW190891  10.702   6.779  12.192
96353SOL    HW290892  10.603   6.845  12.286
96354SOL     OW90893   1.055   2.769   7.406
96354SOL    HW190894   1.077   2.737   7.318
96354SOL    HW290895   0.979   2.825   7.393
96355SOL     OW90896   1.617  10.769   6.670
96355SOL    HW190897   1.607  10.790   6.577
96355SOL    HW290898   1.607  10.854   6.714
96356SOL     OW90899   1.347  12.991   5.264
96356SOL    HW190900   1.330  13.085   5.261
96356SOL    HW290901   1.437  12.981   5.235
96357SOL     OW90902   8.609   7.666  11.810
96357SOL    HW190903   8.550   7.699  11.878
96357SOL    HW290904   8.623   7.740  11.751
96358SOL     OW90905   2.299   7.790   6.729
96358SOL    HW190906   2.260   7.868   6.691
96358SOL    HW290907   2.392   7.811   6.737
96359SOL     OW90908   8.524  11.677   2.611
96359SOL    HW190909   8.488  11.765   2.601
96359SOL    HW290910   8.615  11.684   2.581
96360SOL     OW90911   3.550   1.258   8.649
96360SOL    HW190912   3.537   1.352   8.638
96360SOL    HW290913   3.475   1.229   8.700
96361SOL     OW90914   2.067   1.918   2.951
96361SOL    HW190915   2.076   1.828   2.980
96361SOL    HW290916   1.975   1.926   2.925
96362SOL     OW90917  10.426   4.529   1.644
96362SOL    HW190918  10.466   4.457   1.692
96362SOL    HW290919  10.351   4.491   1.600
96363SOL     OW90920   5.457   4.282   6.827
96363SOL    HW190921   5.413   4.288   6.743
96363SOL    HW290922   5.550   4.290   6.807
96364SOL     OW90923   4.212   9.767  12.576
96364SOL    HW190924   4.205   9.735  12.666
96364SOL    HW290925   4.233   9.689  12.524
96365SOL     OW90926  12.545  12.240   4.591
96365SOL    HW190927  12.527  12.269   4.502
96365SOL    HW290928  12.548  12.144   4.585
96366SOL     OW90929   9.864  10.568   2.990
96366SOL    HW190930   9.815  10.485   2.984
96366SOL    HW290931   9.933  10.550   3.053
96367SOL     OW90932   9.163  13.909   3.738
96367SOL    HW190933   9.208  13.992   3.749
96367SOL    HW290934   9.231  13.848   3.709
96368SOL     OW90935   9.079  13.920  11.298
96368SOL    HW190936   9.125  13.978  11.359
96368SOL    HW290937   9.123  13.836  11.306
96369SOL     OW90938  13.459  11.096   3.924
96369SOL    HW190939  13.533  11.039   3.947
96369SOL    HW290940  13.473  11.176   3.975
96370SOL     OW90941  14.097  10.108   2.261
96370SOL    HW190942  14.171  10.050   2.279
96370SOL    HW290943  14.108  10.132   2.168
96371SOL     OW90944   1.611   0.796   8.122
96371SOL    HW190945   1.704   0.803   8.141
96371SOL    HW290946   1.571   0.869   8.169
96372SOL     OW90947   2.207  14.499   6.653
96372SOL    HW190948   2.141  14.430   6.645
96372SOL    HW290949   2.157  14.577   6.677
96373SOL     OW90950  10.295   4.660   3.111
96373SOL    HW190951  10.214   4.621   3.144
96373SOL    HW290952  10.327   4.598   3.046
96374SOL     OW90953   4.287   1.993  12.370
96374SOL    HW190954   4.206   2.044  12.382
96374SOL    HW290955   4.325   2.028  12.290
96375SOL     OW90956   4.292   3.810  10.797
96375SOL    HW190957   4.312   3.872  10.868
96375SOL    HW290958   4.222   3.853  10.748
96376SOL     OW90959   2.776   9.208   7.563
96376SOL    HW190960   2.720   9.180   7.491
96376SOL    HW290961   2.836   9.271   7.523
96377SOL     OW90962   8.941  14.063   9.583
96377SOL    HW190963   8.862  14.114   9.603
96377SOL    HW290964   8.958  14.082   9.491
96378SOL     OW90965  13.863   0.702   5.146
96378SOL    HW190966  13.911   0.655   5.215
96378SOL    HW290967  13.900   0.790   5.146
96379SOL     OW90968  10.455   9.953   0.996
96379SOL    HW190969  10.540   9.935   1.036
96379SOL    HW290970  10.441  10.047   1.010
96380SOL     OW90971   1.710   2.481   7.061
96380SOL    HW190972   1.790   2.455   7.106
96380SOL    HW290973   1.689   2.567   7.097
96381SOL     OW90974  12.759   8.290   9.053
96381SOL    HW190975  12.718   8.351   8.991
96381SOL    HW290976  12.853   8.300   9.038
96382SOL     OW90977   5.982   3.742   3.357
96382SOL    HW190978   5.946   3.782   3.278
96382SOL    HW290979   6.063   3.791   3.373
96383SOL     OW90980   1.050  10.805   7.206
96383SOL    HW190981   0.956  10.811   7.191
96383SOL    HW290982   1.058  10.751   7.284
96384SOL     OW90983   4.897   1.520   1.527
96384SOL    HW190984   4.871   1.491   1.440
96384SOL    HW290985   4.992   1.529   1.522
96385SOL     OW90986   6.542   6.144   3.027
96385SOL    HW190987   6.535   6.201   3.103
96385SOL    HW290988   6.453   6.113   3.012
96386SOL     OW90989  11.303   5.853   8.879
96386SOL    HW190990  11.308   5.943   8.912
96386SOL    HW290991  11.225   5.817   8.923
96387SOL     OW90992   8.020   1.392  10.082
96387SOL    HW190993   7.981   1.320  10.132
96387SOL    HW290994   7.957   1.409  10.012
96388SOL     OW90995  13.852   0.352   0.450
96388SOL    HW190996  13.882   0.388   0.534
96388SOL    HW290997  13.900   0.270   0.441
96389SOL     OW90998  12.139  13.053  14.291
96389SOL    HW190999  12.162  13.146  14.282
96389SOL    HW291000  12.183  13.011  14.217
96390SOL     OW91001   9.599   2.021   2.399
96390SOL    HW191002   9.657   1.974   2.459
96390SOL    HW291003   9.648   2.027   2.317
96391SOL     OW91004   6.519   3.935  12.367
96391SOL    HW191005   6.602   3.980  12.380
96391SOL    HW291006   6.453   4.005  12.368
96392SOL     OW91007   1.188   5.908   6.736
96392SOL    HW191008   1.203   5.845   6.665
96392SOL    HW291009   1.181   5.853   6.815
96393SOL     OW91010   6.220   6.645   1.937
96393SOL    HW191011   6.207   6.655   2.031
96393SOL    HW291012   6.307   6.605   1.929
96394SOL     OW91013   1.129  12.831  13.852
96394SOL    HW191014   1.045  12.790  13.874
96394SOL    HW291015   1.108  12.923  13.837
96395SOL     OW91016  12.767   5.838   7.357
96395SOL    HW191017  12.848   5.889   7.347
96395SOL    HW291018  12.788   5.772   7.423
96396SOL     OW91019   9.063   0.134   2.421
96396SOL    HW191020   9.156   0.132   2.401
96396SOL    HW291021   9.058   0.146   2.516
96397SOL     OW91022   0.705   7.324  13.218
96397SOL    HW191023   0.745   7.351  13.301
96397SOL    HW291024   0.680   7.405  13.176
96398SOL     OW91025   3.688  10.354   8.267
96398SOL    HW191026   3.595  10.366   8.285
96398SOL    HW291027   3.731  10.359   8.352
96399SOL     OW91028   5.931  13.348  12.718
96399SOL    HW191029   5.842  13.320  12.697
96399SOL    HW291030   5.953  13.300  12.798
96400SOL     OW91031  10.118   7.011   9.269
96400SOL    HW191032  10.153   7.054   9.347
96400SOL    HW291033  10.062   6.941   9.303
96401SOL     OW91034  10.154   3.506  11.830
96401SOL    HW191035  10.178   3.518  11.738
96401SOL    HW291036  10.226   3.456  11.868
96402SOL     OW91037   2.341  14.342   2.348
96402SOL    HW191038   2.331  14.328   2.442
96402SOL    HW291039   2.396  14.420   2.341
96403SOL     OW91040   6.499   6.497   5.208
96403SOL    HW191041   6.571   6.546   5.168
96403SOL    HW291042   6.519   6.405   5.187
96404SOL     OW91043  14.187   8.385   3.966
96404SOL    HW191044  14.160   8.335   3.888
96404SOL    HW291045  14.263   8.336   4.000
96405SOL     OW91046   4.485   3.560   6.309
96405SOL    HW191047   4.510   3.653   6.311
96405SOL    HW291048   4.464   3.540   6.401
96406SOL     OW91049   1.324   6.903   9.925
96406SOL    HW191050   1.341   6.825   9.872
96406SOL    HW291051   1.362   6.975   9.875
96407SOL     OW91052   2.733   4.305  13.270
96407SOL    HW191053   2.784   4.294  13.191
96407SOL    HW291054   2.777   4.375  13.318
96408SOL     OW91055   5.390   9.659   2.791
96408SOL    HW191056   5.365   9.651   2.882
96408SOL    HW291057   5.348   9.585   2.747
96409SOL     OW91058   6.790   9.876   3.611
96409SOL    HW191059   6.704   9.915   3.625
96409SOL    HW291060   6.778   9.818   3.536
96410SOL     OW91061   9.397   9.763  14.032
96410SOL    HW191062   9.456   9.821  13.984
96410SOL    HW291063   9.399   9.796  14.122
96411SOL     OW91064  12.561   5.672   6.468
96411SOL    HW191065  12.623   5.744   6.471
96411SOL    HW291066  12.611   5.595   6.495
96412SOL     OW91067   6.124   9.582  10.378
96412SOL    HW191068   6.125   9.656  10.439
96412SOL    HW291069   6.051   9.528  10.407
96413SOL     OW91070  13.558  12.174  14.455
96413SOL    HW191071  13.619  12.204  14.523
96413SOL    HW291072  13.587  12.218  14.375
96414SOL     OW91073   7.470  12.723   9.258
96414SOL    HW191074   7.461  12.814   9.288
96414SOL    HW291075   7.564  12.711   9.248
96415SOL     OW91076   3.113   5.770   3.037
96415SOL    HW191077   3.103   5.712   3.113
96415SOL    HW291078   3.155   5.715   2.971
96416SOL     OW91079  10.562   9.435  13.022
96416SOL    HW191080  10.488   9.379  12.997
96416SOL    HW291081  10.639   9.380  13.008
96417SOL     OW91082  13.683   3.534   7.878
96417SOL    HW191083  13.632   3.593   7.823
96417SOL    HW291084  13.625   3.514   7.952
96418SOL     OW91085  12.471   8.239  10.094
96418SOL    HW191086  12.478   8.226   9.999
96418SOL    HW291087  12.474   8.333  10.105
96419SOL     OW91088   4.312   0.850   3.603
96419SOL    HW191089   4.308   0.843   3.507
96419SOL    HW291090   4.243   0.793   3.635
96420SOL     OW91091  14.325   4.685   0.947
96420SOL    HW191092  14.285   4.642   0.871
96420SOL    HW291093  14.264   4.756   0.969
96421SOL     OW91094  14.429   4.972   4.558
96421SOL    HW191095  14.366   5.029   4.602
96421SOL    HW291096  14.413   4.986   4.465
96422SOL     OW91097   4.816   1.999   2.154
96422SOL    HW191098   4.838   1.979   2.245
96422SOL    HW291099   4.782   2.089   2.157
96423SOL     OW91100   6.447   8.616   1.184
96423SOL    HW191101   6.440   8.530   1.144
96423SOL    HW291102   6.360   8.633   1.219
96424SOL     OW91103   7.865   5.580  12.930
96424SOL    HW191104   7.918   5.621  12.861
96424SOL    HW291105   7.779   5.567  12.890
96425SOL     OW91106  12.908  14.019   8.636
96425SOL    HW191107  12.905  14.088   8.703
96425SOL    HW291108  12.860  14.057   8.562
96426SOL     OW91109   2.687  11.239   3.907
96426SOL    HW191110   2.682  11.164   3.966
96426SOL    HW291111   2.773  11.231   3.865
96427SOL     OW91112   7.660   6.664   2.732
96427SOL    HW191113   7.619   6.636   2.813
96427SOL    HW291114   7.644   6.758   2.728
96428SOL     OW91115   0.300  13.200   9.924
96428SOL    HW191116   0.314  13.230   9.834
96428SOL    HW291117   0.332  13.271   9.979
96429SOL     OW91118   2.350  12.081  13.415
96429SOL    HW191119   2.407  12.152  13.385
96429SOL    HW291120   2.283  12.125  13.466
96430SOL     OW91121   2.420   2.441  13.953
96430SOL    HW191122   2.339   2.487  13.973
96430SOL    HW291123   2.486   2.509  13.946
96431SOL     OW91124   0.696   3.479   9.935
96431SOL    HW191125   0.643   3.531   9.995
96431SOL    HW291126   0.639   3.407   9.909
96432SOL     OW91127   3.024   9.194   2.038
96432SOL    HW191128   2.965   9.197   2.114
96432SOL    HW291129   2.999   9.270   1.985
96433SOL     OW91130   1.433   8.395  12.004
96433SOL    HW191131   1.524   8.380  11.975
96433SOL    HW291132   1.381   8.337  11.948
96434SOL     OW91133   2.609  14.226   0.146
96434SOL    HW191134   2.566  14.145   0.172
96434SOL    HW291135   2.686  14.197   0.096
96435SOL     OW91136   4.626   8.209  14.666
96435SOL    HW191137   4.622   8.221  14.572
96435SOL    HW291138   4.708   8.162  14.682
96436SOL     OW91139   0.991   6.859  13.380
96436SOL    HW191140   1.083   6.872  13.402
96436SOL    HW291141   0.969   6.773  13.418
96437SOL     OW91142   2.022   1.596   5.176
96437SOL    HW191143   2.073   1.622   5.252
96437SOL    HW291144   2.073   1.526   5.135
96438SOL     OW91145   0.145  10.590   2.522
96438SOL    HW191146   0.106  10.539   2.592
96438SOL    HW291147   0.083  10.584   2.449
96439SOL     OW91148  12.750  10.605   5.841
96439SOL    HW191149  12.782  10.616   5.930
96439SOL    HW291150  12.768  10.689   5.798
96440SOL     OW91151   6.010  13.459   8.093
96440SOL    HW191152   5.973  13.411   8.019
96440SOL    HW291153   5.945  13.526   8.114
96441SOL     OW91154  11.099  12.501   6.567
96441SOL    HW191155  11.047  12.551   6.630
96441SOL    HW291156  11.068  12.411   6.577
96442SOL     OW91157  13.813   5.518   9.489
96442SOL    HW191158  13.791   5.503   9.582
96442SOL    HW291159  13.747   5.467   9.441
96443SOL     OW91160  10.128  14.100  12.747
96443SOL    HW191161  10.182  14.177  12.765
96443SOL    HW291162  10.115  14.101  12.653
96444SOL     OW91163   5.325   9.833   0.440
96444SOL    HW191164   5.333   9.892   0.515
96444SOL    HW291165   5.338   9.745   0.476
96445SOL     OW91166   9.704  12.481   3.794
96445SOL    HW191167   9.700  12.387   3.775
96445SOL    HW291168   9.702  12.523   3.708
96446SOL     OW91169   8.326   1.025  11.619
96446SOL    HW191170   8.257   0.974  11.576
96446SOL    HW291171   8.372   1.067  11.547
96447SOL     OW91172  13.703   7.404  12.848
96447SOL    HW191173  13.685   7.315  12.818
96447SOL    HW291174  13.769   7.393  12.916
96448SOL     OW91175   1.518   3.349   3.068
96448SOL    HW191176   1.491   3.257   3.067
96448SOL    HW291177   1.550   3.366   2.979
96449SOL     OW91178   5.173  13.496  12.805
96449SOL    HW191179   5.169  13.566  12.870
96449SOL    HW291180   5.263  13.497  12.773
96450SOL     OW91181   2.319   1.579   7.464
96450SOL    HW191182   2.356   1.528   7.391
96450SOL    HW291183   2.263   1.644   7.421
96451SOL     OW91184   5.603  12.506   4.370
96451SOL    HW191185   5.634  12.418   4.391
96451SOL    HW291186   5.508  12.495   4.357
96452SOL     OW91187  14.460   1.891   3.674
96452SOL    HW191188  14.553   1.897   3.653
96452SOL    HW291189  14.436   1.979   3.704
96453SOL     OW91190   8.573  10.818   9.735
96453SOL    HW191191   8.527  10.748   9.688
96453SOL    HW291192   8.532  10.820   9.822
96454SOL     OW91193   2.762   6.451   1.343
96454SOL    HW191194   2.790   6.371   1.298
96454SOL    HW291195   2.788   6.522   1.285
96455SOL     OW91196  11.334  13.764   8.557
96455SOL    HW191197  11.240  13.778   8.569
96455SOL    HW291198  11.374  13.795   8.639
96456SOL     OW91199   6.360   3.864   7.363
96456SOL    HW191200   6.264   3.858   7.368
96456SOL    HW291201   6.388   3.774   7.343
96457SOL     OW91202  14.091   5.942   7.021
96457SOL    HW191203  14.028   5.942   6.949
96457SOL    HW291204  14.050   5.997   7.089
96458SOL     OW91205   8.780  13.369  11.625
96458SOL    HW191206   8.801  13.407  11.710
96458SOL    HW291207   8.687  13.390  11.611
96459SOL     OW91208   7.616   3.279  14.673
96459SOL    HW191209   7.638   3.225  14.748
96459SOL    HW291210   7.651   3.231  14.598
96460SOL     OW91211   7.843   7.325   3.414
96460SOL    HW191212   7.904   7.256   3.387
96460SOL    HW291213   7.898   7.403   3.423
96461SOL     OW91214   0.071   4.373  13.442
96461SOL    HW191215   0.104   4.428  13.371
96461SOL    HW291216   0.077   4.429  13.520
96462SOL     OW91217   5.978   2.375   0.589
96462SOL    HW191218   5.907   2.325   0.629
96462SOL    HW291219   6.057   2.327   0.614
96463SOL     OW91220  12.160   6.575   9.480
96463SOL    HW191221  12.183   6.545   9.392
96463SOL    HW291222  12.164   6.496   9.534
96464SOL     OW91223   4.528  14.853   2.485
96464SOL    HW191224   4.580  14.786   2.530
96464SOL    HW291225   4.473   0.014   2.555
96465SOL     OW91226   5.511  12.292  13.552
96465SOL    HW191227   5.480  12.376  13.518
96465SOL    HW291228   5.591  12.313  13.599
96466SOL     OW91229  10.127   5.756   6.981
96466SOL    HW191230  10.101   5.835   6.933
96466SOL    HW291231  10.046   5.725   7.022
96467SOL     OW91232  14.111   9.363   7.921
96467SOL    HW191233  14.044   9.390   7.983
96467SOL    HW291234  14.170   9.308   7.971
96468SOL     OW91235   5.315   2.101  10.673
96468SOL    HW191236   5.250   2.090  10.742
96468SOL    HW291237   5.275   2.061  10.595
96469SOL     OW91238   2.242  14.412  14.632
96469SOL    HW191239   2.212  14.325  14.658
96469SOL    HW291240   2.162  14.463  14.624
96470SOL     OW91241   7.941   5.194   8.705
96470SOL    HW191242   7.919   5.264   8.644
96470SOL    HW291243   8.029   5.167   8.680
96471SOL     OW91244   9.848  14.618   3.267
96471SOL    HW191245   9.815  14.533   3.294
96471SOL    HW291246   9.785  14.649   3.202
96472SOL     OW91247   4.389   7.487   6.979
96472SOL    HW191248   4.437   7.436   6.913
96472SOL    HW291249   4.302   7.498   6.941
96473SOL     OW91250  13.566   7.723  13.240
96473SOL    HW191251  13.583   7.650  13.180
96473SOL    HW291252  13.473   7.713  13.263
96474SOL     OW91253   7.801   2.205   0.657
96474SOL    HW191254   7.846   2.127   0.626
96474SOL    HW291255   7.836   2.221   0.744
96475SOL     OW91256  13.813  11.225  10.847
96475SOL    HW191257  13.817  11.221  10.751
96475SOL    HW291258  13.722  11.246  10.866
96476SOL     OW91259   8.255   9.440   7.916
96476SOL    HW191260   8.291   9.380   7.981
96476SOL    HW291261   8.162   9.417   7.911
96477SOL     OW91262   1.943   4.835   3.815
96477SOL    HW191263   2.016   4.791   3.858
96477SOL    HW291264   1.977   4.860   3.729
96478SOL     OW91265  12.693  14.167   5.239
96478SOL    HW191266  12.677  14.085   5.193
96478SOL    HW291267  12.786  14.165   5.261
96479SOL     OW91268   6.641   0.356   5.737
96479SOL    HW191269   6.734   0.375   5.743
96479SOL    HW291270   6.633   0.292   5.666
96480SOL     OW91271  13.177  13.125  11.003
96480SOL    HW191272  13.193  13.091  10.916
96480SOL    HW291273  13.213  13.059  11.062
96481SOL     OW91274  11.330   3.355   2.036
96481SOL    HW191275  11.325   3.267   2.073
96481SOL    HW291276  11.291   3.347   1.949
96482SOL     OW91277   2.634  14.287   6.259
96482SOL    HW191278   2.727  14.277   6.282
96482SOL    HW291279   2.611  14.374   6.291
96483SOL     OW91280   3.484   4.310   1.693
96483SOL    HW191281   3.472   4.345   1.782
96483SOL    HW291282   3.395   4.297   1.660
96484SOL     OW91283  12.549  13.310   1.632
96484SOL    HW191284  12.643  13.299   1.648
96484SOL    HW291285  12.513  13.222   1.645
96485SOL     OW91286   1.876   7.621   1.085
96485SOL    HW191287   1.786   7.594   1.067
96485SOL    HW291288   1.928   7.579   1.017
96486SOL     OW91289   0.861   3.498   2.946
96486SOL    HW191290   0.878   3.542   3.029
96486SOL    HW291291   0.909   3.416   2.952
96487SOL     OW91292   5.802  12.974   3.176
96487SOL    HW191293   5.719  12.945   3.212
96487SOL    HW291294   5.858  12.896   3.177
96488SOL     OW91295   7.488  12.188   3.770
96488SOL    HW191296   7.535  12.112   3.803
96488SOL    HW291297   7.401  12.155   3.747
96489SOL     OW91298   7.063   6.342   2.327
96489SOL    HW191299   7.027   6.351   2.239
96489SOL    HW291300   7.051   6.250   2.349
96490SOL     OW91301  13.353   6.673   7.055
96490SOL    HW191302  13.324   6.606   7.117
96490SOL    HW291303  13.281   6.680   6.992
96491SOL     OW91304  10.528   2.041  11.270
96491SOL    HW191305  10.581   2.112  11.307
96491SOL    HW291306  10.440   2.055  11.307
96492SOL     OW91307   8.819  13.681  14.626
96492SOL    HW191308   8.887  13.709  14.565
96492SOL    HW291309   8.792  13.596  14.594
96493SOL     OW91310   6.939   7.295   5.415
96493SOL    HW191311   6.845   7.304   5.406
96493SOL    HW291312   6.955   7.299   5.509
96494SOL     OW91313   3.457   7.845   3.442
96494SOL    HW191314   3.491   7.764   3.480
96494SOL    HW291315   3.373   7.859   3.486
96495SOL     OW91316   0.877  12.969   2.981
96495SOL    HW191317   0.892  12.877   2.960
96495SOL    HW291318   0.965  13.006   2.986
96496SOL     OW91319   4.094   0.869   7.926
96496SOL    HW191320   4.102   0.863   8.021
96496SOL    HW291321   4.181   0.845   7.894
96497SOL     OW91322   4.725   2.619   2.881
96497SOL    HW191323   4.682   2.620   2.967
96497SOL    HW291324   4.695   2.538   2.840
96498SOL     OW91325   2.674   2.153   6.545
96498SOL    HW191326   2.654   2.230   6.492
96498SOL    HW291327   2.698   2.188   6.630
96499SOL     OW91328  12.017  10.666   7.754
96499SOL    HW191329  12.052  10.640   7.839
96499SOL    HW291330  11.922  10.666   7.767
96500SOL     OW91331  11.479   0.741   9.108
96500SOL    HW191332  11.452   0.757   9.017
96500SOL    HW291333  11.419   0.673   9.139
96501SOL     OW91334  12.497   0.933   9.733
96501SOL    HW191335  12.435   0.888   9.792
96501SOL    HW291336  12.514   0.869   9.663
96502SOL     OW91337   0.074  11.719  12.191
96502SOL    HW191338   0.147  11.662  12.166
96502SOL    HW291339   0.037  11.678  12.269
96503SOL     OW91340   5.659   0.959  11.908
96503SOL    HW191341   5.565   0.949  11.895
96503SOL    HW291342   5.678   1.049  11.883
96504SOL     OW91343   9.046   6.616  10.826
96504SOL    HW191344   9.103   6.663  10.765
96504SOL    HW291345   9.073   6.646  10.912
96505SOL     OW91346   5.348  11.819   4.745
96505SOL    HW191347   5.338  11.902   4.792
96505SOL    HW291348   5.411  11.770   4.797
96506SOL     OW91349   5.785   4.506   9.821
96506SOL    HW191350   5.829   4.584   9.786
96506SOL    HW291351   5.852   4.464   9.875
96507SOL     OW91352  11.478  14.582  13.583
96507SOL    HW191353  11.571  14.601  13.591
96507SOL    HW291354  11.463  14.507  13.641
96508SOL     OW91355  10.167   3.740   5.672
96508SOL    HW191356  10.183   3.721   5.764
96508SOL    HW291357  10.203   3.665   5.625
96509SOL     OW91358   3.189   8.892   0.273
96509SOL    HW191359   3.183   8.959   0.342
96509SOL    HW291360   3.178   8.940   0.191
96510SOL     OW91361   9.067   7.775   3.830
96510SOL    HW191362   8.985   7.821   3.847
96510SOL    HW291363   9.077   7.716   3.904
96511SOL     OW91364   7.048   5.507   3.369
96511SOL    HW191365   7.144   5.516   3.363
96511SOL    HW291366   7.023   5.456   3.292
96512SOL     OW91367   4.141   5.838   3.214
96512SOL    HW191368   4.053   5.876   3.207
96512SOL    HW291369   4.158   5.835   3.308
96513SOL     OW91370   4.753  13.677   7.563
96513SOL    HW191371   4.756  13.606   7.627
96513SOL    HW291372   4.660  13.688   7.543
96514SOL     OW91373  10.958  11.946   2.379
96514SOL    HW191374  10.912  11.908   2.305
96514SOL    HW291375  11.045  11.968   2.345
96515SOL     OW91376  11.643  10.344  11.110
96515SOL    HW191377  11.649  10.305  11.023
96515SOL    HW291378  11.617  10.435  11.094
96516SOL     OW91379   2.493   4.897  14.670
96516SOL    HW191380   2.579   4.938  14.656
96516SOL    HW291381   2.452   4.950  14.739
96517SOL     OW91382   9.752   7.290  12.004
96517SOL    HW191383   9.725   7.199  11.993
96517SOL    HW291384   9.783   7.317  11.918
96518SOL     OW91385   5.723  13.021   1.180
96518SOL    HW191386   5.667  12.954   1.142
96518SOL    HW291387   5.812  12.988   1.167
96519SOL     OW91388  13.735  12.136   4.320
96519SOL    HW191389  13.666  12.187   4.363
96519SOL    HW291390  13.692  12.096   4.244
96520SOL     OW91391   1.365   6.093  14.272
96520SOL    HW191392   1.352   6.005  14.307
96520SOL    HW291393   1.399   6.079  14.183
96521SOL     OW91394   9.305  11.713  11.881
96521SOL    HW191395   9.378  11.747  11.933
96521SOL    HW291396   9.312  11.618  11.888
96522SOL     OW91397   4.108   7.333  14.240
96522SOL    HW191398   4.171   7.272  14.201
96522SOL    HW291399   4.162   7.395  14.288
96523SOL     OW91400   0.303   6.693   7.141
96523SOL    HW191401   0.297   6.777   7.095
96523SOL    HW291402   0.259   6.708   7.225
96524SOL     OW91403   9.102   9.152   5.552
96524SOL    HW191404   9.135   9.155   5.642
96524SOL    HW291405   9.014   9.189   5.558
96525SOL     OW91406   0.793   2.378   7.565
96525SOL    HW191407   0.719   2.397   7.622
96525SOL    HW291408   0.853   2.328   7.619
96526SOL     OW91409   6.365   5.510   1.530
96526SOL    HW191410   6.394   5.427   1.492
96526SOL    HW291411   6.321   5.484   1.612
96527SOL     OW91412   6.420   9.358  13.581
96527SOL    HW191413   6.346   9.310  13.618
96527SOL    HW291414   6.393   9.375  13.490
96528SOL     OW91415   9.944   0.862   3.443
96528SOL    HW191416   9.857   0.897   3.422
96528SOL    HW291417   9.983   0.842   3.358
96529SOL     OW91418   5.838  14.373   1.357
96529SOL    HW191419   5.897  14.310   1.399
96529SOL    HW291420   5.814  14.434   1.427
96530SOL     OW91421   5.431  11.249   4.210
96530SOL    HW191422   5.425  11.227   4.303
96530SOL    HW291423   5.374  11.326   4.201
96531SOL     OW91424  13.580   3.249   5.975
96531SOL    HW191425  13.586   3.278   5.884
96531SOL    HW291426  13.640   3.174   5.981
96532SOL     OW91427   9.983   8.832   9.683
96532SOL    HW191428   9.891   8.813   9.667
96532SOL    HW291429   9.984   8.922   9.716
96533SOL     OW91430   3.558   8.177  11.226
96533SOL    HW191431   3.473   8.134  11.232
96533SOL    HW291432   3.584   8.192  11.317
96534SOL     OW91433   1.916   3.779   8.251
96534SOL    HW191434   1.912   3.701   8.195
96534SOL    HW291435   2.009   3.798   8.260
96535SOL     OW91436   4.799   9.824   7.197
96535SOL    HW191437   4.868   9.798   7.135
96535SOL    HW291438   4.765   9.906   7.162
96536SOL     OW91439   4.790   3.699   0.060
96536SOL    HW191440   4.807   3.605   0.059
96536SOL    HW291441   4.700   3.708   0.029
96537SOL     OW91442  13.603   2.657   5.390
96537SOL    HW191443  13.539   2.646   5.460
96537SOL    HW291444  13.576   2.736   5.344
96538SOL     OW91445   7.523   6.985   8.912
96538SOL    HW191446   7.604   6.947   8.880
96538SOL    HW291447   7.483   7.025   8.835
96539SOL     OW91448  10.707  10.464   9.251
96539SOL    HW191449  10.770  10.457   9.180
96539SOL    HW291450  10.679  10.374   9.267
96540SOL     OW91451   1.022   0.033   7.430
96540SOL    HW191452   0.928   0.021   7.419
96540SOL    HW291453   1.059  14.823   7.412
96541SOL     OW91454   0.180   2.861  10.213
96541SOL    HW191455   0.233   2.894  10.285
96541SOL    HW291456   0.180   2.933  10.149
96542SOL     OW91457  11.021   9.307   9.619
96542SOL    HW191458  11.045   9.243   9.552
96542SOL    HW291459  11.105   9.343   9.649
96543SOL     OW91460  10.491   3.376   6.211
96543SOL    HW191461  10.577   3.351   6.245
96543SOL    HW291462  10.448   3.293   6.190
96544SOL     OW91463  13.083   0.197   0.618
96544SOL    HW191464  13.149   0.127   0.616
96544SOL    HW291465  13.127   0.272   0.578
96545SOL     OW91466  10.291   7.948  10.700
96545SOL    HW191467  10.309   7.864  10.659
96545SOL    HW291468  10.196   7.952  10.707
96546SOL     OW91469  12.237   9.651  12.751
96546SOL    HW191470  12.186   9.711  12.696
96546SOL    HW291471  12.252   9.575  12.695
96547SOL     OW91472   8.796  12.752  12.048
96547SOL    HW191473   8.763  12.704  11.973
96547SOL    HW291474   8.823  12.837  12.013
96548SOL     OW91475   1.504  10.212  11.290
96548SOL    HW191476   1.576  10.274  11.297
96548SOL    HW291477   1.487  10.205  11.196
96549SOL     OW91478   6.702  14.020   7.485
96549SOL    HW191479   6.717  14.082   7.556
96549SOL    HW291480   6.731  14.066   7.406
96550SOL     OW91481   7.984   4.987   8.926
96550SOL    HW191482   7.962   5.067   8.879
96550SOL    HW291483   8.047   4.942   8.870
96551SOL     OW91484  11.733   7.343  10.841
96551SOL    HW191485  11.793   7.388  10.901
96551SOL    HW291486  11.667   7.305  10.899
96552SOL     OW91487   7.244   3.964   7.197
96552SOL    HW191488   7.192   3.907   7.254
96552SOL    HW291489   7.322   3.912   7.178
96553SOL     OW91490   9.117  12.114   5.329
96553SOL    HW191491   9.089  12.086   5.416
96553SOL    HW291492   9.134  12.032   5.282
96554SOL     OW91493   3.152  14.540   4.385
96554SOL    HW191494   3.095  14.565   4.458
96554SOL    HW291495   3.127  14.599   4.314
96555SOL     OW91496   4.959  13.724  10.467
96555SOL    HW191497   4.984  13.676  10.389
96555SOL    HW291498   4.866  13.704  10.479
96556SOL     OW91499  12.217  13.730   3.780
96556SOL    HW191500  12.190  13.701   3.867
96556SOL    HW291501  12.303  13.691   3.767
96557SOL     OW91502   5.261  10.028  13.954
96557SOL    HW191503   5.189  10.074  13.910
96557SOL    HW291504   5.299   9.972  13.886
96558SOL     OW91505   5.771  12.362   6.992
96558SOL    HW191506   5.832  12.347   7.065
96558SOL    HW291507   5.695  12.308   7.013
96559SOL     OW91508   7.454   1.337  10.781
96559SOL    HW191509   7.475   1.430  10.779
96559SOL    HW291510   7.501   1.300  10.706
96560SOL     OW91511  10.507   8.157   6.151
96560SOL    HW191512  10.528   8.174   6.243
96560SOL    HW291513  10.412   8.157   6.147
96561SOL     OW91514   1.847   0.612  14.757
96561SOL    HW191515   1.753   0.603  14.740
96561SOL    HW291516   1.859   0.572  14.844
96562SOL     OW91517  10.281  13.221   1.186
96562SOL    HW191518  10.279  13.178   1.271
96562SOL    HW291519  10.216  13.291   1.193
96563SOL     OW91520   1.725   2.810   6.715
96563SOL    HW191521   1.804   2.839   6.761
96563SOL    HW291522   1.654   2.862   6.755
96564SOL     OW91523   7.665  12.952   2.411
96564SOL    HW191524   7.590  12.922   2.360
96564SOL    HW291525   7.648  12.920   2.500
96565SOL     OW91526   1.102   6.850  10.627
96565SOL    HW191527   1.079   6.942  10.613
96565SOL    HW291528   1.077   6.832  10.718
96566SOL     OW91529   6.860   9.853  10.135
96566SOL    HW191530   6.905   9.774  10.104
96566SOL    HW291531   6.911   9.925  10.097
96567SOL     OW91532   4.091   0.938  10.403
96567SOL    HW191533   4.049   0.852  10.393
96567SOL    HW291534   4.179   0.918  10.434
96568SOL     OW91535  11.422  10.980   9.629
96568SOL    HW191536  11.339  11.013   9.597
96568SOL    HW291537  11.420  10.886   9.610
96569SOL     OW91538  11.472   0.766   6.675
96569SOL    HW191539  11.534   0.771   6.748
96569SOL    HW291540  11.514   0.813   6.604
96570SOL     OW91541  14.249   8.879   3.988
96570SOL    HW191542  14.186   8.836   4.046
96570SOL    HW291543  14.329   8.827   3.997
96571SOL     OW91544   7.297   7.193   6.465
96571SOL    HW191545   7.228   7.129   6.483
96571SOL    HW291546   7.263   7.275   6.500
96572SOL     OW91547   3.600   2.280   2.214
96572SOL    HW191548   3.613   2.186   2.205
96572SOL    HW291549   3.548   2.290   2.294
96573SOL     OW91550  12.550   3.403   9.178
96573SOL    HW191551  12.468   3.381   9.135
96573SOL    HW291552  12.525   3.466   9.246
96574SOL     OW91553   2.121  10.047   3.913
96574SOL    HW191554   2.127  10.133   3.955
96574SOL    HW291555   2.058  10.061   3.842
96575SOL     OW91556   9.626  13.222   5.385
96575SOL    HW191557   9.691  13.155   5.404
96575SOL    HW291558   9.670  13.284   5.327
96576SOL     OW91559   9.855   6.772   6.476
96576SOL    HW191560   9.812   6.687   6.465
96576SOL    HW291561   9.908   6.762   6.556
96577SOL     OW91562  14.633   1.181  14.072
96577SOL    HW191563  14.654   1.262  14.118
96577SOL    HW291564  14.648   1.200  13.980
96578SOL     OW91565   8.473  14.384   5.655
96578SOL    HW191566   8.499  14.470   5.689
96578SOL    HW291567   8.411  14.405   5.585
96579SOL     OW91568   3.582   7.877   7.841
96579SOL    HW191569   3.587   7.925   7.758
96579SOL    HW291570   3.666   7.832   7.848
96580SOL     OW91571  11.526  14.361   7.410
96580SOL    HW191572  11.433  14.370   7.433
96580SOL    HW291573  11.530  14.281   7.359
96581SOL     OW91574   8.885   1.469  13.607
96581SOL    HW191575   8.808   1.422  13.575
96581SOL    HW291576   8.856   1.560  13.617
96582SOL     OW91577   4.364  10.248   5.551
96582SOL    HW191578   4.303  10.317   5.575
96582SOL    HW291579   4.324  10.205   5.476
96583SOL     OW91580   9.650   6.343  10.596
96583SOL    HW191581   9.654   6.248  10.609
96583SOL    HW291582   9.723   6.363  10.538
96584SOL     OW91583  11.429  13.503   3.762
96584SOL    HW191584  11.424  13.533   3.853
96584SOL    HW291585  11.469  13.576   3.715
96585SOL     OW91586  10.155   0.312   0.997
96585SOL    HW191587  10.219   0.270   1.055
96585SOL    HW291588  10.152   0.403   1.027
96586SOL     OW91589   9.762  12.750   2.925
96586SOL    HW191590   9.696  12.717   2.986
96586SOL    HW291591   9.735  12.714   2.840
96587SOL     OW91592   2.955   1.495  11.505
96587SOL    HW191593   3.005   1.555  11.561
96587SOL    HW291594   2.902   1.553  11.451
96588SOL     OW91595   8.056  11.791   0.888
96588SOL    HW191596   8.016  11.704   0.890
96588SOL    HW291597   8.147  11.775   0.863
96589SOL     OW91598  13.440   8.457  13.276
96589SOL    HW191599  13.506   8.444  13.208
96589SOL    HW291600  13.376   8.516  13.236
96590SOL     OW91601   0.502   2.160   0.215
96590SOL    HW191602   0.427   2.202   0.258
96590SOL    HW291603   0.568   2.228   0.209
96591SOL     OW91604   9.445   9.919   7.944
96591SOL    HW191605   9.536   9.901   7.966
96591SOL    HW291606   9.433   9.883   7.857
96592SOL     OW91607  13.688  10.851  13.541
96592SOL    HW191608  13.696  10.839  13.446
96592SOL    HW291609  13.773  10.886  13.568
96593SOL     OW91610  10.655   5.876   1.911
96593SOL    HW191611  10.604   5.877   1.830
96593SOL    HW291612  10.598   5.834   1.975
96594SOL     OW91613   4.004   5.675   1.752
96594SOL    HW191614   4.028   5.586   1.778
96594SOL    HW291615   4.017   5.677   1.657
96595SOL     OW91616   3.980   4.725   8.996
96595SOL    HW191617   4.035   4.655   9.032
96595SOL    HW291618   3.893   4.686   8.989
96596SOL     OW91619   4.338  11.816  13.934
96596SOL    HW191620   4.372  11.810  14.024
96596SOL    HW291621   4.249  11.848  13.944
96597SOL     OW91622  10.356   5.960   7.666
96597SOL    HW191623  10.422   6.008   7.615
96597SOL    HW291624  10.280   5.954   7.608
96598SOL     OW91625  11.758   9.420   5.140
96598SOL    HW191626  11.810   9.466   5.073
96598SOL    HW291627  11.676   9.468   5.143
96599SOL     OW91628  13.141   6.566   2.224
96599SOL    HW191629  13.186   6.572   2.309
96599SOL    HW291630  13.200   6.610   2.163
96600SOL     OW91631   9.398  13.134   7.757
96600SOL    HW191632   9.488  13.158   7.776
96600SOL    HW291633   9.365  13.205   7.702
96601SOL     OW91634   5.961  11.004   2.169
96601SOL    HW191635   5.942  10.913   2.187
96601SOL    HW291636   6.002  11.004   2.082
96602SOL     OW91637   4.376   2.470   0.249
96602SOL    HW191638   4.305   2.530   0.272
96602SOL    HW291639   4.432   2.467   0.327
96603SOL     OW91640   2.059   6.059   1.369
96603SOL    HW191641   2.113   5.982   1.352
96603SOL    HW291642   2.101   6.130   1.320
96604SOL     OW91643   9.053   0.635   9.581
96604SOL    HW191644   9.128   0.577   9.594
96604SOL    HW291645   9.005   0.631   9.664
96605SOL     OW91646  10.258   4.661   7.571
96605SOL    HW191647  10.257   4.680   7.477
96605SOL    HW291648  10.166   4.664   7.597
96606SOL     OW91649  11.675  12.515  13.875
96606SOL    HW191650  11.699  12.530  13.783
96606SOL    HW291651  11.755  12.481  13.915
96607SOL     OW91652  11.784  14.161   4.524
96607SOL    HW191653  11.780  14.106   4.446
96607SOL    HW291654  11.842  14.114   4.584
96608SOL     OW91655   8.436  14.820   6.680
96608SOL    HW191656   8.366  14.857   6.734
96608SOL    HW291657   8.434  14.727   6.698
96609SOL     OW91658   5.686   5.734   1.409
96609SOL    HW191659   5.638   5.658   1.377
96609SOL    HW291660   5.758   5.697   1.460
96610SOL     OW91661   2.241   9.210   9.815
96610SOL    HW191662   2.281   9.297   9.820
96610SOL    HW291663   2.291   9.164   9.748
96611SOL     OW91664  13.692   6.552   4.778
96611SOL    HW191665  13.692   6.514   4.690
96611SOL    HW291666  13.784   6.566   4.798
96612SOL     OW91667   5.835   3.165  12.203
96612SOL    HW191668   5.772   3.155  12.274
96612SOL    HW291669   5.913   3.118  12.233
96613SOL     OW91670   0.212   1.718   5.799
96613SOL    HW191671   0.283   1.722   5.864
96613SOL    HW291672   0.132   1.708   5.851
96614SOL     OW91673  13.164  10.048  12.156
96614SOL    HW191674  13.240  10.041  12.098
96614SOL    HW291675  13.110   9.972  12.134
96615SOL     OW91676  13.616   5.538   7.597
96615SOL    HW191677  13.535   5.576   7.632
96615SOL    HW291678  13.620   5.571   7.507
96616SOL     OW91679  12.670   0.259  10.200
96616SOL    HW191680  12.706   0.238  10.113
96616SOL    HW291681  12.729   0.217  10.262
96617SOL     OW91682   1.368   9.985  12.169
96617SOL    HW191683   1.396   9.973  12.079
96617SOL    HW291684   1.432  10.046  12.207
96618SOL     OW91685  14.018  12.168  14.155
96618SOL    HW191686  13.999  12.250  14.110
96618SOL    HW291687  14.112  12.170  14.169
96619SOL     OW91688   9.347   8.698   1.462
96619SOL    HW191689   9.340   8.721   1.554
96619SOL    HW291690   9.407   8.624   1.460
96620SOL     OW91691  11.194   3.280   7.244
96620SOL    HW191692  11.220   3.260   7.334
96620SOL    HW291693  11.162   3.370   7.247
96621SOL     OW91694   4.671   6.715   8.940
96621SOL    HW191695   4.689   6.751   8.853
96621SOL    HW291696   4.707   6.781   9.000
96622SOL     OW91697   1.840   8.796  11.517
96622SOL    HW191698   1.804   8.808  11.429
96622SOL    HW291699   1.897   8.872  11.531
96623SOL     OW91700   5.700   5.261  13.037
96623SOL    HW191701   5.694   5.352  13.063
96623SOL    HW291702   5.794   5.241  13.040
96624SOL     OW91703   5.959   3.603  13.312
96624SOL    HW191704   5.916   3.529  13.268
96624SOL    HW291705   6.014   3.641  13.244
96625SOL     OW91706   9.979   5.370  14.858
96625SOL    HW191707   9.977   5.364  14.763
96625SOL    HW291708   9.886   5.369   0.008
96626SOL     OW91709   7.296   6.371   8.471
96626SOL    HW191710   7.354   6.349   8.398
96626SOL    HW291711   7.308   6.466   8.482
96627SOL     OW91712   1.881   5.127   5.124
96627SOL    HW191713   1.936   5.158   5.052
96627SOL    HW291714   1.793   5.159   5.102
96628SOL     OW91715   8.478   8.723   3.146
96628SOL    HW191716   8.467   8.771   3.228
96628SOL    HW291717   8.493   8.790   3.080
96629SOL     OW91718   7.661   7.672   5.979
96629SOL    HW191719   7.704   7.677   6.064
96629SOL    HW291720   7.667   7.580   5.954
96630SOL     OW91721  12.921   0.290   9.768
96630SOL    HW191722  12.916   0.277   9.673
96630SOL    HW291723  12.906   0.383   9.781
96631SOL     OW91724  12.862   8.164   9.747
96631SOL    HW191725  12.844   8.087   9.801
96631SOL    HW291726  12.880   8.129   9.660
96632SOL     OW91727   3.329   7.357  13.672
96632SOL    HW191728   3.379   7.333  13.749
96632SOL    HW291729   3.351   7.290  13.607
96633SOL     OW91730   8.609   4.372  10.127
96633SOL    HW191731   8.554   4.311  10.177
96633SOL    HW291732   8.565   4.381  10.043
96634SOL     OW91733   3.169  13.199   3.077
96634SOL    HW191734   3.191  13.279   3.029
96634SOL    HW291735   3.078  13.181   3.055
96635SOL     OW91736   0.532  10.196  13.976
96635SOL    HW191737   0.607  10.245  13.941
96635SOL    HW291738   0.458  10.228  13.925
96636SOL     OW91739   0.547   1.494   6.049
96636SOL    HW191740   0.519   1.411   6.089
96636SOL    HW291741   0.621   1.523   6.101
96637SOL     OW91742  13.536   9.558   9.474
96637SOL    HW191743  13.527   9.578   9.381
96637SOL    HW291744  13.555   9.464   9.476
96638SOL     OW91745   9.895   5.210   0.640
96638SOL    HW191746   9.956   5.230   0.569
96638SOL    HW291747   9.915   5.274   0.708
96639SOL     OW91748   1.118   1.139   1.169
96639SOL    HW191749   1.155   1.121   1.256
96639SOL    HW291750   1.025   1.153   1.185
96640SOL     OW91751   0.105   6.517   2.883
96640SOL    HW191752   0.123   6.428   2.851
96640SOL    HW291753   0.032   6.506   2.943
96641SOL     OW91754  14.608   4.809  13.554
96641SOL    HW191755  14.556   4.888  13.567
96641SOL    HW291756  14.639   4.816  13.463
96642SOL     OW91757   3.490   2.410   3.459
96642SOL    HW191758   3.438   2.490   3.453
96642SOL    HW291759   3.553   2.428   3.529
96643SOL     OW91760   3.994  10.706   4.218
96643SOL    HW191761   4.075  10.745   4.184
96643SOL    HW291762   4.009  10.697   4.312
96644SOL     OW91763  11.113  14.107   0.050
96644SOL    HW191764  11.157  14.171   0.105
96644SOL    HW291765  11.102  14.151  14.841
96645SOL     OW91766   1.428   3.151   9.571
96645SOL    HW191767   1.517   3.115   9.581
96645SOL    HW291768   1.374   3.096   9.628
96646SOL     OW91769   3.005  14.458   2.567
96646SOL    HW191770   3.052  14.394   2.620
96646SOL    HW291771   2.926  14.412   2.538
96647SOL     OW91772  12.609   0.713   4.345
96647SOL    HW191773  12.544   0.737   4.411
96647SOL    HW291774  12.690   0.703   4.395
96648SOL     OW91775   0.203   6.699  13.938
96648SOL    HW191776   0.230   6.780  13.980
96648SOL    HW291777   0.213   6.716  13.844
96649SOL     OW91778   8.215   3.579   2.293
96649SOL    HW191779   8.156   3.606   2.364
96649SOL    HW291780   8.300   3.614   2.318
96650SOL     OW91781   5.393   8.497   3.324
96650SOL    HW191782   5.332   8.445   3.377
96650SOL    HW291783   5.474   8.447   3.324
96651SOL     OW91784   0.046  11.545  11.657
96651SOL    HW191785  14.843  11.551  11.711
96651SOL    HW291786   0.033  11.465  11.606
96652SOL     OW91787  10.710   5.421   0.337
96652SOL    HW191788  10.619   5.393   0.326
96652SOL    HW291789  10.713   5.508   0.297
96653SOL     OW91790  14.245   9.041   7.729
96653SOL    HW191791  14.188   9.083   7.665
96653SOL    HW291792  14.323   9.097   7.733
96654SOL     OW91793   9.652   4.172   4.788
96654SOL    HW191794   9.644   4.180   4.693
96654SOL    HW291795   9.747   4.167   4.803
96655SOL     OW91796   8.265   5.368   8.022
96655SOL    HW191797   8.239   5.408   8.105
96655SOL    HW291798   8.360   5.358   8.029
96656SOL     OW91799   9.403   5.403   7.277
96656SOL    HW191800   9.375   5.328   7.225
96656SOL    HW291801   9.373   5.384   7.366
96657SOL     OW91802   3.411   2.501   1.776
96657SOL    HW191803   3.471   2.549   1.833
96657SOL    HW291804   3.458   2.491   1.694
96658SOL     OW91805   5.310   7.582  14.772
96658SOL    HW191806   5.239   7.569  14.710
96658SOL    HW291807   5.382   7.528  14.738
96659SOL     OW91808   5.870   6.750   0.983
96659SOL    HW191809   5.798   6.755   0.921
96659SOL    HW291810   5.949   6.761   0.930
96660SOL     OW91811   6.996   4.883   7.142
96660SOL    HW191812   6.927   4.817   7.128
96660SOL    HW291813   6.951   4.966   7.131
96661SOL     OW91814  14.355   9.880   7.498
96661SOL    HW191815  14.287   9.941   7.471
96661SOL    HW291816  14.437   9.927   7.481
96662SOL     OW91817   5.510   3.455   8.157
96662SOL    HW191818   5.596   3.413   8.165
96662SOL    HW291819   5.484   3.442   8.066
96663SOL     OW91820  12.593   1.682   2.685
96663SOL    HW191821  12.587   1.605   2.628
96663SOL    HW291822  12.518   1.736   2.660
96664SOL     OW91823   7.506   2.786   1.081
96664SOL    HW191824   7.463   2.789   1.166
96664SOL    HW291825   7.550   2.871   1.072
96665SOL     OW91826   7.931  13.067  12.743
96665SOL    HW191827   7.960  12.990  12.694
96665SOL    HW291828   7.972  13.141  12.698
96666SOL     OW91829   0.706   8.657  13.740
96666SOL    HW191830   0.721   8.569  13.776
96666SOL    HW291831   0.628   8.648  13.686
96667SOL     OW91832  13.084  13.476  11.822
96667SOL    HW191833  13.163  13.461  11.770
96667SOL    HW291834  13.100  13.428  11.904
96668SOL     OW91835   3.534   9.522  11.447
96668SOL    HW191836   3.487   9.605  11.445
96668SOL    HW291837   3.480   9.465  11.502
96669SOL     OW91838   3.899   0.121  12.848
96669SOL    HW191839   3.928   0.192  12.791
96669SOL    HW291840   3.890   0.162  12.934
96670SOL     OW91841  11.893   5.639   2.976
96670SOL    HW191842  11.821   5.688   3.016
96670SOL    HW291843  11.852   5.559   2.942
96671SOL     OW91844   2.996   2.785   7.449
96671SOL    HW191845   3.012   2.876   7.423
96671SOL    HW291846   2.902   2.781   7.463
96672SOL     OW91847   7.674   6.594   3.310
96672SOL    HW191848   7.647   6.685   3.316
96672SOL    HW291849   7.664   6.572   3.217
96673SOL     OW91850   5.553   6.212   9.138
96673SOL    HW191851   5.573   6.245   9.225
96673SOL    HW291852   5.612   6.137   9.127
96674SOL     OW91853   8.628   4.720  10.364
96674SOL    HW191854   8.706   4.776  10.369
96674SOL    HW291855   8.663   4.631  10.352
96675SOL     OW91856  12.009   2.346   8.283
96675SOL    HW191857  12.009   2.315   8.373
96675SOL    HW291858  11.926   2.392   8.272
96676SOL     OW91859  10.232   5.444   6.208
96676SOL    HW191860  10.236   5.460   6.113
96676SOL    HW291861  10.315   5.479   6.241
96677SOL     OW91862  14.418   7.923   7.468
96677SOL    HW191863  14.513   7.914   7.454
96677SOL    HW291864  14.396   8.007   7.429
96678SOL     OW91865  13.913   2.621   3.832
96678SOL    HW191866  13.878   2.710   3.831
96678SOL    HW291867  13.837   2.564   3.818
96679SOL     OW91868   7.223   9.370   4.170
96679SOL    HW191869   7.237   9.336   4.081
96679SOL    HW291870   7.269   9.454   4.170
96680SOL     OW91871   6.333   4.146  12.797
96680SOL    HW191872   6.343   4.074  12.735
96680SOL    HW291873   6.247   4.184  12.776
96681SOL     OW91874   5.680   1.667   9.060
96681SOL    HW191875   5.766   1.666   9.018
96681SOL    HW291876   5.698   1.687   9.151
96682SOL     OW91877   4.319   0.982  14.862
96682SOL    HW191878   4.277   0.931   0.056
96682SOL    HW291879   4.402   1.011   0.024
96683SOL     OW91880  14.751   7.107   5.408
96683SOL    HW191881  14.800   7.184   5.378
96683SOL    HW291882  14.660   7.127   5.387
96684SOL     OW91883  11.922  14.788   2.198
96684SOL    HW191884  11.931  14.746   2.283
96684SOL    HW291885  11.859  14.858   2.211
96685SOL     OW91886  10.135   1.097  12.281
96685SOL    HW191887  10.140   1.068  12.372
96685SOL    HW291888  10.211   1.058  12.239
96686SOL     OW91889  13.398   1.767   6.563
96686SOL    HW191890  13.307   1.746   6.542
96686SOL    HW291891  13.449   1.726   6.493
96687SOL     OW91892   2.456   4.583  14.875
96687SOL    HW191893   2.515   4.658  14.869
96687SOL    HW291894   2.368   4.620  14.867
96688SOL     OW91895   8.351   7.431   7.321
96688SOL    HW191896   8.311   7.512   7.352
96688SOL    HW291897   8.312   7.363   7.377
96689SOL     OW91898  13.286  12.531   5.115
96689SOL    HW191899  13.354  12.503   5.176
96689SOL    HW291900  13.204  12.524   5.165
96690SOL     OW91901   5.045  10.007   8.499
96690SOL    HW191902   5.086  10.094   8.492
96690SOL    HW291903   5.079   9.959   8.423
96691SOL     OW91904   4.343   7.416   6.596
96691SOL    HW191905   4.291   7.378   6.667
96691SOL    HW291906   4.329   7.510   6.603
96692SOL     OW91907   8.433   5.614   9.381
96692SOL    HW191908   8.457   5.565   9.303
96692SOL    HW291909   8.501   5.682   9.388
96693SOL     OW91910   9.910  13.301  11.882
96693SOL    HW191911   9.948  13.302  11.969
96693SOL    HW291912   9.829  13.351  11.890
96694SOL     OW91913   2.618  11.024   8.263
96694SOL    HW191914   2.648  11.000   8.175
96694SOL    HW291915   2.685  10.988   8.322
96695SOL     OW91916  11.427   9.640   5.751
96695SOL    HW191917  11.339   9.643   5.714
96695SOL    HW291918  11.413   9.640   5.846
96696SOL     OW91919   1.492   2.977   3.671
96696SOL    HW191920   1.454   2.913   3.732
96696SOL    HW291921   1.562   2.928   3.626
96697SOL     OW91922  11.792   5.830   6.358
96697SOL    HW191923  11.846   5.753   6.376
96697SOL    HW291924  11.845   5.883   6.299
96698SOL     OW91925  14.405   2.763  11.095
96698SOL    HW191926  14.455   2.713  11.159
96698SOL    HW291927  14.385   2.701  11.025
96699SOL     OW91928   3.171  14.244   5.663
96699SOL    HW191929   3.136  14.251   5.574
96699SOL    HW291930   3.221  14.162   5.664
96700SOL     OW91931   3.923   2.524   8.587
96700SOL    HW191932   3.923   2.612   8.550
96700SOL    HW291933   3.835   2.490   8.567
96701SOL     OW91934   9.040   7.247  12.220
96701SOL    HW191935   9.013   7.187  12.289
96701SOL    HW291936   8.981   7.322  12.228
96702SOL     OW91937  11.744  11.287   3.182
96702SOL    HW191938  11.701  11.245   3.108
96702SOL    HW291939  11.812  11.342   3.142
96703SOL     OW91940   6.525  12.921   4.724
96703SOL    HW191941   6.486  12.883   4.803
96703SOL    HW291942   6.457  12.979   4.689
96704SOL     OW91943   3.423   7.868  14.755
96704SOL    HW191944   3.496   7.905  14.804
96704SOL    HW291945   3.454   7.783  14.725
96705SOL     OW91946   6.375  14.417  11.201
96705SOL    HW191947   6.336  14.357  11.138
96705SOL    HW291948   6.310  14.486  11.213
96706SOL     OW91949   8.576   3.569  12.198
96706SOL    HW191950   8.608   3.484  12.228
96706SOL    HW291951   8.613   3.578  12.110
96707SOL     OW91952   5.782   0.913   4.377
96707SOL    HW191953   5.773   0.848   4.446
96707SOL    HW291954   5.780   0.997   4.421
96708SOL     OW91955   3.907   7.189   4.395
96708SOL    HW191956   3.975   7.215   4.334
96708SOL    HW291957   3.833   7.246   4.375
96709SOL     OW91958   9.502   6.581   3.705
96709SOL    HW191959   9.480   6.493   3.675
96709SOL    HW291960   9.575   6.608   3.650
96710SOL     OW91961  11.755   6.395   7.531
96710SOL    HW191962  11.830   6.369   7.478
96710SOL    HW291963  11.780   6.478   7.570
96711SOL     OW91964   9.817   0.867  10.210
96711SOL    HW191965   9.729   0.862  10.172
96711SOL    HW291966   9.802   0.885  10.303
96712SOL     OW91967   5.016   4.187  13.016
96712SOL    HW191968   5.095   4.178  12.962
96712SOL    HW291969   5.044   4.240  13.091
96713SOL     OW91970   5.662   2.945   1.754
96713SOL    HW191971   5.735   3.004   1.736
96713SOL    HW291972   5.609   2.992   1.819
96714SOL     OW91973   5.995  13.570   7.314
96714SOL    HW191974   5.942  13.556   7.393
96714SOL    HW291975   5.935  13.611   7.252
96715SOL     OW91976   3.468  14.608   1.756
96715SOL    HW191977   3.552  14.597   1.802
96715SOL    HW291978   3.413  14.537   1.789
96716SOL     OW91979   2.791   2.076  13.860
96716SOL    HW191980   2.712   2.110  13.902
96716SOL    HW291981   2.853   2.150  13.862
96717SOL     OW91982   3.187   5.319   7.336
96717SOL    HW191983   3.111   5.315   7.394
96717SOL    HW291984   3.192   5.232   7.296
96718SOL     OW91985  11.420   2.650  11.539
96718SOL    HW191986  11.368   2.731  11.538
96718SOL    HW291987  11.370   2.589  11.485
96719SOL     OW91988  14.192   4.785   2.636
96719SOL    HW191989  14.240   4.858   2.598
96719SOL    HW291990  14.156   4.738   2.561
96720SOL     OW91991   0.136   8.980  10.103
96720SOL    HW191992   0.210   9.040  10.102
96720SOL    HW291993   0.113   8.972  10.195
96721SOL     OW91994   0.226  11.185  11.481
96721SOL    HW191995   0.218  11.109  11.424
96721SOL    HW291996   0.293  11.160  11.545
96722SOL     OW91997  12.357   4.411   1.342
96722SOL    HW191998  12.274   4.446   1.375
96722SOL    HW291999  12.336   4.322   1.314
96723SOL     OW92000   5.019  13.540   4.504
96723SOL    HW192001   5.030  13.629   4.470
96723SOL    HW292002   4.940  13.544   4.558
96724SOL     OW92003   3.467  12.698   7.391
96724SOL    HW192004   3.480  12.626   7.329
96724SOL    HW292005   3.547  12.749   7.385
96725SOL     OW92006  10.961   0.420   9.807
96725SOL    HW192007  10.933   0.469   9.885
96725SOL    HW292008  10.918   0.465   9.734
96726SOL     OW92009   7.372   0.729   6.986
96726SOL    HW192010   7.432   0.717   7.060
96726SOL    HW292011   7.398   0.812   6.947
96727SOL     OW92012   3.633   1.876   3.649
96727SOL    HW192013   3.540   1.858   3.668
96727SOL    HW292014   3.680   1.815   3.706
96728SOL     OW92015   8.930  11.503  11.236
96728SOL    HW192016   8.911  11.557  11.159
96728SOL    HW292017   8.993  11.555  11.286
96729SOL     OW92018  11.472   2.645   7.038
96729SOL    HW192019  11.536   2.574   7.051
96729SOL    HW292020  11.414   2.638   7.113
96730SOL     OW92021   4.471  14.034  12.246
96730SOL    HW192022   4.528  13.999  12.178
96730SOL    HW292023   4.395  13.975  12.245
96731SOL     OW92024  14.344   8.924   7.056
96731SOL    HW192025  14.421   8.959   7.102
96731SOL    HW292026  14.283   8.998   7.053
96732SOL     OW92027  11.880   3.217   3.222
96732SOL    HW192028  11.863   3.122   3.223
96732SOL    HW292029  11.875   3.243   3.313
96733SOL     OW92030   6.180  13.175   4.947
96733SOL    HW192031   6.091  13.185   4.912
96733SOL    HW292032   6.169  13.116   5.022
96734SOL     OW92033   1.782  12.861  10.135
96734SOL    HW192034   1.709  12.807  10.104
96734SOL    HW292035   1.841  12.868  10.060
96735SOL     OW92036  12.367  14.817   5.140
96735SOL    HW192037  12.390  14.775   5.223
96735SOL    HW292038  12.275  14.842   5.150
96736SOL     OW92039  10.522   8.688   2.418
96736SOL    HW192040  10.521   8.596   2.389
96736SOL    HW292041  10.571   8.686   2.500
96737SOL     OW92042   5.630  14.765  11.563
96737SOL    HW192043   5.543  14.797  11.589
96737SOL    HW292044   5.645  14.690  11.620
96738SOL     OW92045   3.529   3.199   3.030
96738SOL    HW192046   3.599   3.141   3.060
96738SOL    HW292047   3.574   3.268   2.981
96739SOL     OW92048   9.204   6.012  10.696
96739SOL    HW192049   9.220   5.953  10.770
96739SOL    HW292050   9.123   5.979  10.657
96740SOL     OW92051  12.946  11.095   8.843
96740SOL    HW192052  12.982  11.126   8.926
96740SOL    HW292053  12.930  11.174   8.792
96741SOL     OW92054   2.967  14.483   7.007
96741SOL    HW192055   2.900  14.456   6.944
96741SOL    HW292056   3.016  14.552   6.963
96742SOL     OW92057   7.024   6.448  12.137
96742SOL    HW192058   6.941   6.432  12.093
96742SOL    HW292059   7.070   6.509  12.079
96743SOL     OW92060   2.552   7.718   3.294
96743SOL    HW192061   2.491   7.786   3.265
96743SOL    HW292062   2.583   7.678   3.212
96744SOL     OW92063  10.974   7.099   6.389
96744SOL    HW192064  10.932   7.182   6.411
96744SOL    HW292065  10.933   7.035   6.447
96745SOL     OW92066   4.938   9.153  10.038
96745SOL    HW192067   4.911   9.215   9.970
96745SOL    HW292068   4.928   9.202  10.120
96746SOL     OW92069   4.844  10.230   9.215
96746SOL    HW192070   4.759  10.263   9.243
96746SOL    HW292071   4.871  10.170   9.285
96747SOL     OW92072   6.721   7.029  12.877
96747SOL    HW192073   6.803   7.049  12.924
96747SOL    HW292074   6.728   7.078  12.795
96748SOL     OW92075  10.540  10.687   0.470
96748SOL    HW192076  10.545  10.717   0.561
96748SOL    HW292077  10.496  10.757   0.424
96749SOL     OW92078   6.791  11.591   4.601
96749SOL    HW192079   6.872  11.632   4.571
96749SOL    HW292080   6.768  11.639   4.681
96750SOL     OW92081  11.285  14.506  14.706
96750SOL    HW192082  11.219  14.530  14.641
96750SOL    HW292083  11.339  14.585  14.715
96751SOL     OW92084  14.115   5.591  13.514
96751SOL    HW192085  14.186   5.566  13.573
96751SOL    HW292086  14.154   5.589  13.427
96752SOL     OW92087  12.358  11.949  13.889
96752SOL    HW192088  12.385  12.003  13.963
96752SOL    HW292089  12.267  11.974  13.873
96753SOL     OW92090  14.354  13.581   0.057
96753SOL    HW192091  14.403  13.627   0.126
96753SOL    HW292092  14.422  13.537   0.005
96754SOL     OW92093   1.022  10.017   1.294
96754SOL    HW192094   0.953  10.018   1.228
96754SOL    HW292095   0.979  10.044   1.375
96755SOL     OW92096   5.726  11.789   9.792
96755SOL    HW192097   5.782  11.712   9.798
96755SOL    HW292098   5.768  11.853   9.849
96756SOL     OW92099   0.424   8.159   2.660
96756SOL    HW192100   0.362   8.149   2.588
96756SOL    HW292101   0.376   8.128   2.737
96757SOL     OW92102   2.670   9.149   8.598
96757SOL    HW192103   2.588   9.198   8.588
96757SOL    HW292104   2.706   9.181   8.681
96758SOL     OW92105   4.211   1.777   8.589
96758SOL    HW192106   4.268   1.706   8.618
96758SOL    HW292107   4.216   1.775   8.494
96759SOL     OW92108  11.579  10.442  13.054
96759SOL    HW192109  11.647  10.425  12.989
96759SOL    HW292110  11.615  10.410  13.136
96760SOL     OW92111   6.086   7.051   6.447
96760SOL    HW192112   6.051   7.123   6.499
96760SOL    HW292113   6.026   7.044   6.372
96761SOL     OW92114   8.282   0.673  11.545
96761SOL    HW192115   8.340   0.747  11.524
96761SOL    HW292116   8.274   0.626  11.463
96762SOL     OW92117  14.772   4.958   9.780
96762SOL    HW192118  14.804   5.044   9.806
96762SOL    HW292119  14.695   4.942   9.834
96763SOL     OW92120   8.387   8.009   5.022
96763SOL    HW192121   8.337   8.081   4.984
96763SOL    HW292122   8.389   8.028   5.116
96764SOL     OW92123   3.390   1.914  14.838
96764SOL    HW192124   3.320   1.876  14.786
96764SOL    HW292125   3.368   1.893   0.053
96765SOL     OW92126   5.140   2.819  13.388
96765SOL    HW192127   5.177   2.736  13.357
96765SOL    HW292128   5.200   2.886  13.355
96766SOL     OW92129  14.640  13.847  10.738
96766SOL    HW192130  14.645  13.930  10.690
96766SOL    HW292131  14.546  13.837  10.757
96767SOL     OW92132  12.387   3.083   4.503
96767SOL    HW192133  12.480   3.103   4.508
96767SOL    HW292134  12.359   3.116   4.418
96768SOL     OW92135   6.619   4.450   1.698
96768SOL    HW192136   6.579   4.493   1.774
96768SOL    HW292137   6.619   4.357   1.722
96769SOL     OW92138  14.578   6.268  13.359
96769SOL    HW192139  14.639   6.223  13.418
96769SOL    HW292140  14.527   6.197  13.318
96770SOL     OW92141  13.706  12.685  10.868
96770SOL    HW192142  13.694  12.633  10.789
96770SOL    HW292143  13.793  12.660  10.900
96771SOL     OW92144   5.691   2.844  14.824
96771SOL    HW192145   5.646   2.896  14.757
96771SOL    HW292146   5.761   2.799  14.777
96772SOL     OW92147   6.632  10.169   9.988
96772SOL    HW192148   6.550  10.218   9.993
96772SOL    HW292149   6.696  10.227  10.030
96773SOL     OW92150   0.170  13.026   2.632
96773SOL    HW192151   0.092  13.068   2.594
96773SOL    HW292152   0.231  13.018   2.559
96774SOL     OW92153   2.321  14.046  12.197
96774SOL    HW192154   2.259  14.013  12.262
96774SOL    HW292155   2.386  13.976  12.188
96775SOL     OW92156   5.222   7.893   8.451
96775SOL    HW192157   5.170   7.967   8.484
96775SOL    HW292158   5.199   7.887   8.358
96776SOL     OW92159   4.281   2.380   8.439
96776SOL    HW192160   4.281   2.475   8.428
96776SOL    HW292161   4.248   2.366   8.528
96777SOL     OW92162  13.999   9.632   0.430
96777SOL    HW192163  14.033   9.710   0.385
96777SOL    HW292164  13.912   9.658   0.461
96778SOL     OW92165   6.661   3.130  11.961
96778SOL    HW192166   6.597   3.194  11.991
96778SOL    HW292167   6.717   3.115  12.038
96779SOL     OW92168   2.426   5.586  13.319
96779SOL    HW192169   2.464   5.663  13.360
96779SOL    HW292170   2.375   5.544  13.389
96780SOL     OW92171   9.775   5.577   1.140
96780SOL    HW192172   9.866   5.570   1.111
96780SOL    HW292173   9.724   5.562   1.061
96781SOL     OW92174   7.790  13.061  13.526
96781SOL    HW192175   7.741  13.140  13.550
96781SOL    HW292176   7.731  12.989  13.546
96782SOL     OW92177  10.884  11.468   6.116
96782SOL    HW192178  10.878  11.382   6.159
96782SOL    HW292179  10.869  11.531   6.187
96783SOL     OW92180   7.082   9.424  13.669
96783SOL    HW192181   7.063   9.388  13.582
96783SOL    HW292182   7.162   9.476  13.656
96784SOL     OW92183   8.783   9.967   8.991
96784SOL    HW192184   8.784   9.883   8.946
96784SOL    HW292185   8.812   9.947   9.080
96785SOL     OW92186   8.424  11.049   8.285
96785SOL    HW192187   8.346  11.104   8.276
96785SOL    HW292188   8.396  10.962   8.258
96786SOL     OW92189   3.320  14.619   8.445
96786SOL    HW192190   3.385  14.612   8.374
96786SOL    HW292191   3.287  14.529   8.454
96787SOL     OW92192   6.381   3.295  13.590
96787SOL    HW192193   6.319   3.239  13.637
96787SOL    HW292194   6.376   3.379  13.636
96788SOL     OW92195  13.090   5.223  11.537
96788SOL    HW192196  13.036   5.301  11.525
96788SOL    HW292197  13.090   5.180  11.451
96789SOL     OW92198   7.929   6.749   8.419
96789SOL    HW192199   7.882   6.720   8.341
96789SOL    HW292200   7.988   6.817   8.387
96790SOL     OW92201  10.563  13.017   6.741
96790SOL    HW192202  10.488  12.958   6.747
96790SOL    HW292203  10.526  13.104   6.757
96791SOL     OW92204   6.779   7.922   4.940
96791SOL    HW192205   6.686   7.931   4.962
96791SOL    HW292206   6.784   7.841   4.890
96792SOL     OW92207   9.814   1.717   6.573
96792SOL    HW192208   9.795   1.631   6.610
96792SOL    HW292209   9.751   1.726   6.501
96793SOL     OW92210   0.886  12.754   2.613
96793SOL    HW192211   0.944  12.780   2.541
96793SOL    HW292212   0.852  12.836   2.647
96794SOL     OW92213   9.904   3.381  12.510
96794SOL    HW192214   9.839   3.384  12.580
96794SOL    HW292215   9.988   3.388  12.555
96795SOL     OW92216   1.306   1.920  14.831
96795SOL    HW192217   1.387   1.874  14.808
96795SOL    HW292218   1.236   1.865  14.798
96796SOL     OW92219   1.501   1.982   7.507
96796SOL    HW192220   1.408   1.975   7.526
96796SOL    HW292221   1.542   1.986   7.594
96797SOL     OW92222   5.200   9.236   2.396
96797SOL    HW192223   5.184   9.181   2.472
96797SOL    HW292224   5.120   9.227   2.343
96798SOL     OW92225   5.853   8.264   4.985
96798SOL    HW192226   5.935   8.311   4.970
96798SOL    HW292227   5.788   8.334   4.995
96799SOL     OW92228   5.590  11.058   0.125
96799SOL    HW192229   5.646  11.115   0.072
96799SOL    HW292230   5.547  11.001   0.061
96800SOL     OW92231  12.065  10.760   2.857
96800SOL    HW192232  12.130  10.774   2.925
96800SOL    HW292233  12.092  10.818   2.785
96801SOL     OW92234   7.524   5.006   6.490
96801SOL    HW192235   7.498   5.038   6.404
96801SOL    HW292236   7.539   5.085   6.542
96802SOL     OW92237   3.667  14.812  13.130
96802SOL    HW192238   3.606  14.741  13.151
96802SOL    HW292239   3.631  14.852  13.051
96803SOL     OW92240   5.425   8.776  10.163
96803SOL    HW192241   5.412   8.791  10.069
96803SOL    HW292242   5.364   8.835  10.206
96804SOL     OW92243  12.113  11.739   5.314
96804SOL    HW192244  12.169  11.798   5.264
96804SOL    HW292245  12.123  11.769   5.405
96805SOL     OW92246  11.778   6.771   9.143
96805SOL    HW192247  11.831   6.813   9.211
96805SOL    HW292248  11.687   6.793   9.166
96806SOL     OW92249   5.112  12.628   2.964
96806SOL    HW192250   5.187  12.596   2.914
96806SOL    HW292251   5.109  12.722   2.945
96807SOL     OW92252  10.948   1.583  14.073
96807SOL    HW192253  11.024   1.572  14.015
96807SOL    HW292254  10.873   1.580  14.015
96808SOL     OW92255  12.980  14.137   4.892
96808SOL    HW192256  13.002  14.146   4.799
96808SOL    HW292257  12.890  14.170   4.898
96809SOL     OW92258   0.748   1.768  10.115
96809SOL    HW192259   0.841   1.747  10.108
96809SOL    HW292260   0.710   1.695  10.164
96810SOL     OW92261   8.945   1.327   9.601
96810SOL    HW192262   9.001   1.401   9.625
96810SOL    HW292263   8.992   1.282   9.531
96811SOL     OW92264  13.148  13.530   0.962
96811SOL    HW192265  13.073  13.472   0.945
96811SOL    HW292266  13.109  13.608   1.002
96812SOL     OW92267   2.126   7.567   8.001
96812SOL    HW192268   2.154   7.540   8.089
96812SOL    HW292269   2.207   7.588   7.956
96813SOL     OW92270   5.233   0.651   0.434
96813SOL    HW192271   5.215   0.743   0.417
96813SOL    HW292272   5.277   0.650   0.519
96814SOL     OW92273  14.241   6.573  11.003
96814SOL    HW192274  14.227   6.481  11.028
96814SOL    HW292275  14.185   6.622  11.063
96815SOL     OW92276   6.489  11.750  11.840
96815SOL    HW192277   6.565  11.693  11.827
96815SOL    HW292278   6.527  11.834  11.868
96816SOL     OW92279  10.675   3.492  11.170
96816SOL    HW192280  10.762   3.483  11.132
96816SOL    HW292281  10.659   3.586  11.170
96817SOL     OW92282  12.503   9.420   1.441
96817SOL    HW192283  12.506   9.329   1.470
96817SOL    HW292284  12.460   9.417   1.356
96818SOL     OW92285   2.371   6.157   2.005
96818SOL    HW192286   2.419   6.232   1.970
96818SOL    HW292287   2.426   6.082   1.984
96819SOL     OW92288  14.212   4.486   2.139
96819SOL    HW192289  14.131   4.488   2.189
96819SOL    HW292290  14.188   4.447   2.055
96820SOL     OW92291   4.874   6.635   0.473
96820SOL    HW192292   4.845   6.615   0.384
96820SOL    HW292293   4.800   6.681   0.513
96821SOL     OW92294   2.916  10.053   4.085
96821SOL    HW192295   2.997  10.047   4.134
96821SOL    HW292296   2.938  10.105   4.007
96822SOL     OW92297  12.109   1.200  10.680
96822SOL    HW192298  12.126   1.108  10.699
96822SOL    HW292299  12.126   1.209  10.586
96823SOL     OW92300   9.574   1.760   1.944
96823SOL    HW192301   9.523   1.831   1.982
96823SOL    HW292302   9.547   1.759   1.852
96824SOL     OW92303   8.324   4.756   5.204
96824SOL    HW192304   8.290   4.841   5.175
96824SOL    HW292305   8.355   4.714   5.124
96825SOL     OW92306  13.734   4.093   0.869
96825SOL    HW192307  13.772   4.022   0.920
96825SOL    HW292308  13.696   4.152   0.934
96826SOL     OW92309   4.557   7.769   0.097
96826SOL    HW192310   4.545   7.781   0.192
96826SOL    HW292311   4.611   7.843   0.070
96827SOL     OW92312   9.942   0.982   5.285
96827SOL    HW192313   9.904   0.971   5.372
96827SOL    HW292314  10.037   0.978   5.300
96828SOL     OW92315  13.487   4.686   8.504
96828SOL    HW192316  13.573   4.716   8.534
96828SOL    HW292317  13.425   4.748   8.541
96829SOL     OW92318   5.172   6.621   3.464
96829SOL    HW192319   5.122   6.539   3.458
96829SOL    HW292320   5.250   6.598   3.514
96830SOL     OW92321   3.286   0.344   4.948
96830SOL    HW192322   3.221   0.307   5.008
96830SOL    HW292323   3.339   0.402   5.002
96831SOL     OW92324  10.582   6.273  13.609
96831SOL    HW192325  10.519   6.346  13.613
96831SOL    HW292326  10.604   6.266  13.516
96832SOL     OW92327  14.308   6.069   0.086
96832SOL    HW192328  14.244   6.088   0.155
96832SOL    HW292329  14.350   6.153   0.069
96833SOL     OW92330   0.641   8.574   9.574
96833SOL    HW192331   0.604   8.495   9.535
96833SOL    HW292332   0.628   8.563   9.668
96834SOL     OW92333  10.323   8.655   8.066
96834SOL    HW192334  10.373   8.695   7.995
96834SOL    HW292335  10.260   8.598   8.021
96835SOL     OW92336   1.400  14.505   7.834
96835SOL    HW192337   1.305  14.511   7.825
96835SOL    HW292338   1.415  14.417   7.869
96836SOL     OW92339   9.585   3.750   9.913
96836SOL    HW192340   9.643   3.675   9.899
96836SOL    HW292341   9.630   3.823   9.870
96837SOL     OW92342   1.470  12.170   4.684
96837SOL    HW192343   1.512  12.186   4.769
96837SOL    HW292344   1.435  12.081   4.691
96838SOL     OW92345  10.161  12.705  12.533
96838SOL    HW192346  10.131  12.689  12.622
96838SOL    HW292347  10.235  12.765  12.543
96839SOL     OW92348   1.935   4.333   3.603
96839SOL    HW192349   1.914   4.252   3.557
96839SOL    HW292350   1.883   4.401   3.560
96840SOL     OW92351  12.539   0.491  10.927
96840SOL    HW192352  12.607   0.531  10.874
96840SOL    HW292353  12.584   0.460  11.006
96841SOL     OW92354   6.189  10.159   9.962
96841SOL    HW192355   6.159  10.075   9.998
96841SOL    HW292356   6.109  10.203   9.934
96842SOL     OW92357   5.943   2.308  11.989
96842SOL    HW192358   5.944   2.303  11.894
96842SOL    HW292359   5.982   2.392  12.010
96843SOL     OW92360   1.707  11.729   7.451
96843SOL    HW192361   1.715  11.697   7.541
96843SOL    HW292362   1.653  11.663   7.407
96844SOL     OW92363   5.516   1.007   7.170
96844SOL    HW192364   5.451   1.043   7.231
96844SOL    HW292365   5.554   1.083   7.127
96845SOL     OW92366   9.531  13.057   6.538
96845SOL    HW192367   9.442  13.028   6.517
96845SOL    HW292368   9.522  13.103   6.621
96846SOL     OW92369   2.537  12.903   8.986
96846SOL    HW192370   2.544  12.825   8.931
96846SOL    HW292371   2.619  12.907   9.034
96847SOL     OW92372   3.599  10.091   3.448
96847SOL    HW192373   3.549  10.034   3.389
96847SOL    HW292374   3.557  10.078   3.534
96848SOL     OW92375   1.031   2.654  11.846
96848SOL    HW192376   1.070   2.593  11.909
96848SOL    HW292377   1.013   2.733  11.897
96849SOL     OW92378   6.570   0.943   8.508
96849SOL    HW192379   6.616   0.908   8.583
96849SOL    HW292380   6.629   1.009   8.471
96850SOL     OW92381  10.982   2.343   9.258
96850SOL    HW192382  11.000   2.342   9.164
96850SOL    HW292383  10.887   2.346   9.264
96851SOL     OW92384   0.311   7.973  14.710
96851SOL    HW192385   0.277   7.890  14.744
96851SOL    HW292386   0.305   8.033  14.784
96852SOL     OW92387   4.579   5.360   0.359
96852SOL    HW192388   4.547   5.361   0.269
96852SOL    HW292389   4.505   5.326   0.410
96853SOL     OW92390  11.465   7.386   0.667
96853SOL    HW192391  11.410   7.464   0.663
96853SOL    HW292392  11.408   7.318   0.702
96854SOL     OW92393   5.428  10.376   1.104
96854SOL    HW192394   5.437  10.380   1.199
96854SOL    HW292395   5.476  10.297   1.078
96855SOL     OW92396   8.884   2.369   1.049
96855SOL    HW192397   8.923   2.319   0.977
96855SOL    HW292398   8.790   2.363   1.034
96856SOL     OW92399   9.163   8.914  12.367
96856SOL    HW192400   9.103   8.956  12.428
96856SOL    HW292401   9.144   8.820  12.375
96857SOL     OW92402   4.364   0.121   0.895
96857SOL    HW192403   4.298   0.158   0.837
96857SOL    HW292404   4.386   0.037   0.856
96858SOL     OW92405   7.171  10.289   9.583
96858SOL    HW192406   7.139  10.379   9.583
96858SOL    HW292407   7.125  10.247   9.510
96859SOL     OW92408   2.331   0.664   6.880
96859SOL    HW192409   2.377   0.639   6.800
96859SOL    HW292410   2.263   0.725   6.851
96860SOL     OW92411   2.690   8.571  13.513
96860SOL    HW192412   2.692   8.513  13.589
96860SOL    HW292413   2.777   8.609  13.509
96861SOL     OW92414   6.356   3.036   0.314
96861SOL    HW192415   6.287   3.003   0.256
96861SOL    HW292416   6.434   2.986   0.289
96862SOL     OW92417  13.250   4.453   1.932
96862SOL    HW192418  13.241   4.527   1.991
96862SOL    HW292419  13.289   4.490   1.853
96863SOL     OW92420   0.202   4.560   3.257
96863SOL    HW192421   0.273   4.593   3.202
96863SOL    HW292422   0.138   4.630   3.257
96864SOL     OW92423  10.970   7.262  13.310
96864SOL    HW192424  11.055   7.225  13.334
96864SOL    HW292425  10.906   7.198  13.343
96865SOL     OW92426   4.510  10.185  13.247
96865SOL    HW192427   4.469  10.155  13.328
96865SOL    HW292428   4.548  10.106  13.209
96866SOL     OW92429  12.865   6.982  13.089
96866SOL    HW192430  12.942   7.010  13.139
96866SOL    HW292431  12.808   7.058  13.088
96867SOL     OW92432  12.565   9.906  12.804
96867SOL    HW192433  12.561   9.838  12.737
96867SOL    HW292434  12.617   9.868  12.874
96868SOL     OW92435  10.283   9.079   1.305
96868SOL    HW192436  10.193   9.047   1.293
96868SOL    HW292437  10.314   9.031   1.382
96869SOL     OW92438   6.956   5.923   3.672
96869SOL    HW192439   6.973   5.871   3.594
96869SOL    HW292440   7.030   5.983   3.677
96870SOL     OW92441  11.072   7.465   6.165
96870SOL    HW192442  11.102   7.553   6.187
96870SOL    HW292443  11.094   7.454   6.073
96871SOL     OW92444   9.147   6.130   2.097
96871SOL    HW192445   9.147   6.039   2.066
96871SOL    HW292446   9.056   6.148   2.119
96872SOL     OW92447  11.038  14.742   9.236
96872SOL    HW192448  11.110  14.761   9.296
96872SOL    HW292449  10.978  14.687   9.286
96873SOL     OW92450   5.899  10.363   8.442
96873SOL    HW192451   5.816  10.409   8.430
96873SOL    HW292452   5.878  10.287   8.494
96874SOL     OW92453  11.172   1.351   1.866
96874SOL    HW192454  11.252   1.298   1.861
96874SOL    HW292455  11.179   1.412   1.793
96875SOL     OW92456   5.788   7.596  13.162
96875SOL    HW192457   5.876   7.613  13.130
96875SOL    HW292458   5.752   7.532  13.100
96876SOL     OW92459  13.578  14.365  10.932
96876SOL    HW192460  13.498  14.409  10.963
96876SOL    HW292461  13.602  14.306  11.003
96877SOL     OW92462   4.356   1.810   7.339
96877SOL    HW192463   4.355   1.886   7.398
96877SOL    HW292464   4.294   1.833   7.270
96878SOL     OW92465   1.455   2.469  14.522
96878SOL    HW192466   1.455   2.402  14.591
96878SOL    HW292467   1.374   2.455  14.475
96879SOL     OW92468   8.078  13.316   1.313
96879SOL    HW192469   8.122  13.374   1.375
96879SOL    HW292470   8.047  13.374   1.243
96880SOL     OW92471   2.337  14.786  11.108
96880SOL    HW192472   2.431  14.803  11.108
96880SOL    HW292473   2.329  14.699  11.148
96881SOL     OW92474   1.505   9.536   4.172
96881SOL    HW192475   1.482   9.486   4.250
96881SOL    HW292476   1.545   9.472   4.113
96882SOL     OW92477   6.190  10.158  14.040
96882SOL    HW192478   6.233  10.229  14.087
96882SOL    HW292479   6.170  10.194  13.954
96883SOL     OW92480   2.165   4.004  12.095
96883SOL    HW192481   2.178   3.915  12.064
96883SOL    HW292482   2.234   4.018  12.160
96884SOL     OW92483   1.339   4.943   0.325
96884SOL    HW192484   1.291   4.912   0.248
96884SOL    HW292485   1.409   4.880   0.337
96885SOL     OW92486   4.974   6.537   8.658
96885SOL    HW192487   5.023   6.612   8.692
96885SOL    HW292488   4.916   6.513   8.730
96886SOL     OW92489   9.568  11.242   3.455
96886SOL    HW192490   9.515  11.162   3.445
96886SOL    HW292491   9.658  11.212   3.440
96887SOL     OW92492  11.201  10.798   5.724
96887SOL    HW192493  11.178  10.855   5.650
96887SOL    HW292494  11.118  10.764   5.755
96888SOL     OW92495  14.819   6.622   3.886
96888SOL    HW192496  14.811   6.557   3.815
96888SOL    HW292497  14.749   6.685   3.868
96889SOL     OW92498   0.148  14.228  14.298
96889SOL    HW192499   0.067  14.223  14.248
96889SOL    HW292500   0.164  14.322  14.308
96890SOL     OW92501  12.283  14.777   8.644
96890SOL    HW192502  12.227  14.790   8.720
96890SOL    HW292503  12.356  14.724   8.676
96891SOL     OW92504   7.652  11.039  13.571
96891SOL    HW192505   7.726  11.099  13.579
96891SOL    HW292506   7.614  11.059  13.485
96892SOL     OW92507   2.932   0.938   3.529
96892SOL    HW192508   2.865   0.878   3.561
96892SOL    HW292509   3.013   0.887   3.534
96893SOL     OW92510   3.598   1.618  10.090
96893SOL    HW192511   3.653   1.540  10.083
96893SOL    HW292512   3.510   1.583  10.106
96894SOL     OW92513   5.458  12.532   5.823
96894SOL    HW192514   5.554  12.536   5.819
96894SOL    HW292515   5.437  12.442   5.798
96895SOL     OW92516   3.177   0.049   1.594
96895SOL    HW192517   3.268   0.048   1.625
96895SOL    HW292518   3.157  14.833   1.576
96896SOL     OW92519   9.635   9.381  12.144
96896SOL    HW192520   9.570   9.333  12.194
96896SOL    HW292521   9.700   9.410  12.209
96897SOL     OW92522   2.171   4.843   7.762
96897SOL    HW192523   2.241   4.896   7.802
96897SOL    HW292524   2.161   4.880   7.674
96898SOL     OW92525   4.030   7.966   3.962
96898SOL    HW192526   4.097   7.954   4.030
96898SOL    HW292527   3.972   8.033   3.997
96899SOL     OW92528  12.464   6.162   3.640
96899SOL    HW192529  12.541   6.180   3.587
96899SOL    HW292530  12.458   6.238   3.699
96900SOL     OW92531   5.248  10.232   8.750
96900SOL    HW192532   5.280  10.257   8.836
96900SOL    HW292533   5.201  10.308   8.718
96901SOL     OW92534   5.490  14.682  14.108
96901SOL    HW192535   5.466  14.671  14.200
96901SOL    HW292536   5.527  14.770  14.104
96902SOL     OW92537  13.142  11.816   8.429
96902SOL    HW192538  13.196  11.823   8.508
96902SOL    HW292539  13.097  11.732   8.438
96903SOL     OW92540   3.601   4.921  14.090
96903SOL    HW192541   3.546   4.843  14.081
96903SOL    HW292542   3.604   4.957  14.001
96904SOL     OW92543  11.777  13.960   8.852
96904SOL    HW192544  11.717  14.014   8.801
96904SOL    HW292545  11.850  13.944   8.793
96905SOL     OW92546   7.500   9.484  10.378
96905SOL    HW192547   7.499   9.418  10.447
96905SOL    HW292548   7.424   9.462  10.324
96906SOL     OW92549   2.526  13.676  12.552
96906SOL    HW192550   2.440  13.654  12.588
96906SOL    HW292551   2.529  13.630  12.468
96907SOL     OW92552   4.507  13.740  14.666
96907SOL    HW192553   4.551  13.696  14.593
96907SOL    HW292554   4.579  13.767  14.723
96908SOL     OW92555   3.544   6.851   5.885
96908SOL    HW192556   3.630   6.893   5.884
96908SOL    HW292557   3.514   6.856   5.794
96909SOL     OW92558   1.860   3.248   4.619
96909SOL    HW192559   1.893   3.161   4.643
96909SOL    HW292560   1.782   3.259   4.672
96910SOL     OW92561  11.541   7.536  13.731
96910SOL    HW192562  11.450   7.550  13.758
96910SOL    HW292563  11.585   7.505  13.810
96911SOL     OW92564  13.072  10.485   2.311
96911SOL    HW192565  13.067  10.558   2.373
96911SOL    HW292566  13.165  10.479   2.290
96912SOL     OW92567   0.136  13.758   3.735
96912SOL    HW192568   0.157  13.801   3.652
96912SOL    HW292569   0.221  13.742   3.776
96913SOL     OW92570  12.268  11.717   9.462
96913SOL    HW192571  12.241  11.629   9.436
96913SOL    HW292572  12.237  11.725   9.553
96914SOL     OW92573   9.154   8.941   4.906
96914SOL    HW192574   9.076   8.920   4.956
96914SOL    HW292575   9.125   9.006   4.842
96915SOL     OW92576   1.534   3.673   6.123
96915SOL    HW192577   1.545   3.750   6.179
96915SOL    HW292578   1.448   3.685   6.083
96916SOL     OW92579   5.729  12.508   3.289
96916SOL    HW192580   5.700  12.418   3.274
96916SOL    HW292581   5.824  12.502   3.297
96917SOL     OW92582  13.943   7.476  11.618
96917SOL    HW192583  13.964   7.564  11.651
96917SOL    HW292584  13.912   7.490  11.529
96918SOL     OW92585   6.057   3.316   5.527
96918SOL    HW192586   6.062   3.344   5.619
96918SOL    HW292587   5.963   3.323   5.506
96919SOL     OW92588   5.448   4.861  14.308
96919SOL    HW192589   5.485   4.889  14.225
96919SOL    HW292590   5.390   4.932  14.334
96920SOL     OW92591  11.061   4.385   7.568
96920SOL    HW192592  11.153   4.400   7.592
96920SOL    HW292593  11.019   4.470   7.584
96921SOL     OW92594   9.105   1.597   7.976
96921SOL    HW192595   9.150   1.567   7.897
96921SOL    HW292596   9.126   1.690   7.981
96922SOL     OW92597   5.065   3.983  14.551
96922SOL    HW192598   5.071   3.894  14.517
96922SOL    HW292599   5.004   3.977  14.624
96923SOL     OW92600   8.449   2.158  13.362
96923SOL    HW192601   8.406   2.131  13.280
96923SOL    HW292602   8.482   2.246  13.344
96924SOL     OW92603   4.492   0.190  11.638
96924SOL    HW192604   4.404   0.181  11.602
96924SOL    HW292605   4.488   0.269  11.692
96925SOL     OW92606   0.758   0.538   8.556
96925SOL    HW192607   0.695   0.607   8.574
96925SOL    HW292608   0.783   0.505   8.642
96926SOL     OW92609   7.720   0.576  14.646
96926SOL    HW192610   7.776   0.509  14.607
96926SOL    HW292611   7.743   0.575  14.739
96927SOL     OW92612  10.459  13.361   1.061
96927SOL    HW192613  10.421  13.299   1.124
96927SOL    HW292614  10.436  13.447   1.095
96928SOL     OW92615   1.766   7.221  14.066
96928SOL    HW192616   1.725   7.307  14.069
96928SOL    HW292617   1.859   7.238  14.079
96929SOL     OW92618   7.233  11.994   6.871
96929SOL    HW192619   7.167  12.063   6.870
96929SOL    HW292620   7.292  12.018   6.942
96930SOL     OW92621   5.766   1.455   0.465
96930SOL    HW192622   5.853   1.419   0.485
96930SOL    HW292623   5.761   1.535   0.518
96931SOL     OW92624   6.674  11.848  12.396
96931SOL    HW192625   6.737  11.908  12.436
96931SOL    HW292626   6.727  11.773  12.369
96932SOL     OW92627   7.181  12.413  11.022
96932SOL    HW192628   7.241  12.467  11.073
96932SOL    HW292629   7.189  12.326  11.061
96933SOL     OW92630   4.417   1.309   0.543
96933SOL    HW192631   4.490   1.322   0.482
96933SOL    HW292632   4.397   1.398   0.575
96934SOL     OW92633   0.202  14.173   9.391
96934SOL    HW192634   0.162  14.250   9.349
96934SOL    HW292635   0.294  14.177   9.365
96935SOL     OW92636   5.565  14.457   0.150
96935SOL    HW192637   5.653  14.420   0.148
96935SOL    HW292638   5.577  14.547   0.182
96936SOL     OW92639  10.086   4.039   8.257
96936SOL    HW192640  10.106   4.085   8.176
96936SOL    HW292641  10.075   4.108   8.322
96937SOL     OW92642   1.756   6.076   4.090
96937SOL    HW192643   1.678   6.022   4.077
96937SOL    HW292644   1.737   6.157   4.043
96938SOL     OW92645   6.124   0.440   6.797
96938SOL    HW192646   6.083   0.414   6.880
96938SOL    HW292647   6.054   0.435   6.733
96939SOL     OW92648   4.034   7.379  10.769
96939SOL    HW192649   3.987   7.392  10.851
96939SOL    HW292650   4.084   7.460  10.757
96940SOL     OW92651  12.114   9.153  13.527
96940SOL    HW192652  12.116   9.239  13.487
96940SOL    HW292653  12.121   9.169  13.621
96941SOL     OW92654   8.087   8.834  11.038
96941SOL    HW192655   8.021   8.778  10.998
96941SOL    HW292656   8.169   8.785  11.029
96942SOL     OW92657  11.072  13.941   5.401
96942SOL    HW192658  10.989  13.938   5.449
96942SOL    HW292659  11.108  14.027   5.420
96943SOL     OW92660  14.461  14.848   1.840
96943SOL    HW192661  14.442   0.022   1.919
96943SOL    HW292662  14.546  14.808   1.857
96944SOL     OW92663   4.277  13.055   3.606
96944SOL    HW192664   4.287  12.979   3.663
96944SOL    HW292665   4.189  13.087   3.625
96945SOL     OW92666   2.497   8.847   1.244
96945SOL    HW192667   2.587   8.820   1.261
96945SOL    HW292668   2.452   8.839   1.328
96946SOL     OW92669  10.437   3.417   0.924
96946SOL    HW192670  10.369   3.485   0.921
96946SOL    HW292671  10.427   3.371   0.841
96947SOL     OW92672   6.330  10.599   0.852
96947SOL    HW192673   6.366  10.572   0.936
96947SOL    HW292674   6.290  10.520   0.816
96948SOL     OW92675  10.574   8.666  14.640
96948SOL    HW192676  10.566   8.592  14.580
96948SOL    HW292677  10.484   8.693  14.656
96949SOL     OW92678   6.029   9.545  13.263
96949SOL    HW192679   5.948   9.503  13.235
96949SOL    HW292680   6.054   9.500  13.344
96950SOL     OW92681   6.081  14.678   0.910
96950SOL    HW192682   6.148  14.656   0.845
96950SOL    HW292683   6.128  14.724   0.979
96951SOL     OW92684   9.023   1.040  12.323
96951SOL    HW192685   9.067   1.096  12.386
96951SOL    HW292686   9.005   0.959  12.370
96952SOL     OW92687  13.471   6.670   4.333
96952SOL    HW192688  13.540   6.625   4.381
96952SOL    HW292689  13.399   6.607   4.330
96953SOL     OW92690   6.157   0.534   8.732
96953SOL    HW192691   6.106   0.524   8.651
96953SOL    HW292692   6.128   0.462   8.788
96954SOL     OW92693   8.766   3.660   8.721
96954SOL    HW192694   8.857   3.669   8.748
96954SOL    HW292695   8.722   3.622   8.797
96955SOL     OW92696   6.973  11.830   6.839
96955SOL    HW192697   6.941  11.900   6.897
96955SOL    HW292698   7.059  11.861   6.811
96956SOL     OW92699   9.896   3.587   0.180
96956SOL    HW192700   9.885   3.648   0.108
96956SOL    HW292701   9.897   3.500   0.139
96957SOL     OW92702  14.309   5.249   7.005
96957SOL    HW192703  14.378   5.196   6.965
96957SOL    HW292704  14.350   5.288   7.082
96958SOL     OW92705  11.658   1.804   2.013
96958SOL    HW192706  11.651   1.718   1.973
96958SOL    HW292707  11.591   1.804   2.082
96959SOL     OW92708  11.916   8.155   7.617
96959SOL    HW192709  11.954   8.078   7.575
96959SOL    HW292710  11.833   8.124   7.654
96960SOL     OW92711  14.184   9.147   5.734
96960SOL    HW192712  14.192   9.236   5.769
96960SOL    HW292713  14.272   9.127   5.702
96961SOL     OW92714  10.272   0.174   3.047
96961SOL    HW192715  10.224   0.166   3.129
96961SOL    HW292716  10.251   0.262   3.015
96962SOL     OW92717   0.666   8.940   0.563
96962SOL    HW192718   0.655   8.852   0.525
96962SOL    HW292719   0.747   8.933   0.615
96963SOL     OW92720   0.001  11.273  10.107
96963SOL    HW192721   0.061  11.210  10.069
96963SOL    HW292722  14.804  11.278  10.044
96964SOL     OW92723  13.997   7.806   3.508
96964SOL    HW192724  14.002   7.723   3.556
96964SOL    HW292725  13.904   7.825   3.502
96965SOL     OW92726   4.477   1.152   6.130
96965SOL    HW192727   4.478   1.091   6.203
96965SOL    HW292728   4.476   1.096   6.052
96966SOL     OW92729   9.988   6.763   0.187
96966SOL    HW192730  10.039   6.701   0.239
96966SOL    HW292731   9.898   6.750   0.217
96967SOL     OW92732   7.686   8.588   9.966
96967SOL    HW192733   7.644   8.506   9.940
96967SOL    HW292734   7.640   8.615  10.045
96968SOL     OW92735  11.443   5.229   4.210
96968SOL    HW192736  11.499   5.271   4.276
96968SOL    HW292737  11.354   5.246   4.240
96969SOL     OW92738   0.683   6.125   8.299
96969SOL    HW192739   0.752   6.117   8.364
96969SOL    HW292740   0.728   6.115   8.215
96970SOL     OW92741   9.577   6.649  10.132
96970SOL    HW192742   9.512   6.581  10.149
96970SOL    HW292743   9.572   6.706  10.209
96971SOL     OW92744  10.328   1.624   8.123
96971SOL    HW192745  10.421   1.632   8.143
96971SOL    HW292746  10.305   1.708   8.084
96972SOL     OW92747   5.554  11.344   3.321
96972SOL    HW192748   5.478  11.301   3.281
96972SOL    HW292749   5.518  11.389   3.398
96973SOL     OW92750  13.227   5.366  13.952
96973SOL    HW192751  13.263   5.444  13.994
96973SOL    HW292752  13.218   5.302  14.022
96974SOL     OW92753   6.738  12.104   6.663
96974SOL    HW192754   6.717  12.192   6.694
96974SOL    HW292755   6.833  12.101   6.660
96975SOL     OW92756   1.358  10.892   4.975
96975SOL    HW192757   1.396  10.944   4.904
96975SOL    HW292758   1.263  10.897   4.960
96976SOL     OW92759   4.590   4.786   5.294
96976SOL    HW192760   4.496   4.781   5.307
96976SOL    HW292761   4.602   4.789   5.199
96977SOL     OW92762   4.808   8.677   0.324
96977SOL    HW192763   4.787   8.694   0.232
96977SOL    HW292764   4.893   8.633   0.321
96978SOL     OW92765   9.684  12.557   6.972
96978SOL    HW192766   9.773  12.547   6.937
96978SOL    HW292767   9.629  12.566   6.894
96979SOL     OW92768   8.737   6.161   0.041
96979SOL    HW192769   8.828   6.169   0.011
96979SOL    HW292770   8.723   6.067   0.049
96980SOL     OW92771   5.254   8.387   1.463
96980SOL    HW192772   5.219   8.327   1.528
96980SOL    HW292773   5.349   8.389   1.479
96981SOL     OW92774  13.349   0.334  14.618
96981SOL    HW192775  13.266   0.326  14.664
96981SOL    HW292776  13.416   0.324  14.686
96982SOL     OW92777   5.933  14.832  12.685
96982SOL    HW192778   5.913  14.866  12.598
96982SOL    HW292779   6.028  14.836  12.691
96983SOL     OW92780   5.215  12.154   5.104
96983SOL    HW192781   5.253  12.069   5.128
96983SOL    HW292782   5.290  12.213   5.096
96984SOL     OW92783  10.389  14.730   7.303
96984SOL    HW192784  10.346  14.816   7.303
96984SOL    HW292785  10.480  14.749   7.279
96985SOL     OW92786  10.749   7.199   6.629
96985SOL    HW192787  10.693   7.234   6.698
96985SOL    HW292788  10.836   7.234   6.649
96986SOL     OW92789   4.839  14.480  12.281
96986SOL    HW192790   4.811  14.535  12.208
96986SOL    HW292791   4.790  14.398  12.270
96987SOL     OW92792  10.640   1.135   7.116
96987SOL    HW192793  10.686   1.192   7.055
96987SOL    HW292794  10.697   1.131   7.193
96988SOL     OW92795   0.187   3.626   1.738
96988SOL    HW192796   0.279   3.602   1.751
96988SOL    HW292797   0.189   3.692   1.669
96989SOL     OW92798   2.133  12.746  13.600
96989SOL    HW192799   2.051  12.785  13.631
96989SOL    HW292800   2.192  12.821  13.589
96990SOL     OW92801  13.249   4.474   7.393
96990SOL    HW192802  13.231   4.398   7.448
96990SOL    HW292803  13.165   4.496   7.353
96991SOL     OW92804  14.308  14.085  10.235
96991SOL    HW192805  14.299  14.049  10.324
96991SOL    HW292806  14.381  14.147  10.242
96992SOL     OW92807   8.446   7.172   8.023
96992SOL    HW192808   8.373   7.113   8.039
96992SOL    HW292809   8.405   7.257   8.008
96993SOL     OW92810  12.238   4.431  13.871
96993SOL    HW192811  12.261   4.521  13.852
96993SOL    HW292812  12.312   4.396  13.919
96994SOL     OW92813   9.387   9.226   4.518
96994SOL    HW192814   9.451   9.155   4.524
96994SOL    HW292815   9.421   9.295   4.576
96995SOL     OW92816   3.295  14.817   7.225
96995SOL    HW192817   3.329   0.022   7.187
96995SOL    HW292818   3.218  14.844   7.275
96996SOL     OW92819   8.471   9.461  10.594
96996SOL    HW192820   8.382   9.430  10.579
96996SOL    HW292821   8.473   9.549  10.555
96997SOL     OW92822   1.291   2.953  12.173
96997SOL    HW192823   1.367   2.979  12.224
96997SOL    HW292824   1.219   3.004  12.211
96998SOL     OW92825   5.990   9.915   2.003
96998SOL    HW192826   6.066   9.940   1.950
96998SOL    HW292827   5.958   9.834   1.964
96999SOL     OW92828   3.935   4.450  12.687
96999SOL    HW192829   3.981   4.486  12.611
96999SOL    HW292830   4.004   4.408  12.738
97000SOL     OW92831  12.682   7.773   8.460
97000SOL    HW192832  12.607   7.820   8.424
97000SOL    HW292833  12.694   7.699   8.401
97001SOL     OW92834   8.301   3.184   2.855
97001SOL    HW192835   8.284   3.156   2.765
97001SOL    HW292836   8.353   3.113   2.893
97002SOL     OW92837  12.475   3.377   0.138
97002SOL    HW192838  12.569   3.363   0.148
97002SOL    HW292839  12.445   3.398   0.227
97003SOL     OW92840   1.837   6.502   2.782
97003SOL    HW192841   1.920   6.496   2.734
97003SOL    HW292842   1.861   6.482   2.873
97004SOL     OW92843  11.070   8.889   5.460
97004SOL    HW192844  11.050   8.923   5.373
97004SOL    HW292845  11.138   8.823   5.445
97005SOL     OW92846   1.932  10.100   0.091
97005SOL    HW192847   1.928  10.195   0.095
97005SOL    HW292848   2.007  10.082   0.033
97006SOL     OW92849   0.021  12.197   5.841
97006SOL    HW192850  14.829  12.250   5.884
97006SOL    HW292851   0.051  12.251   5.768
97007SOL     OW92852   0.829  11.903   3.862
97007SOL    HW192853   0.880  11.865   3.934
97007SOL    HW292854   0.862  11.859   3.784
97008SOL     OW92855   2.712  12.692   1.019
97008SOL    HW192856   2.618  12.699   1.036
97008SOL    HW292857   2.735  12.603   1.044
97009SOL     OW92858  14.203  11.603  13.098
97009SOL    HW192859  14.252  11.682  13.118
97009SOL    HW292860  14.191  11.560  13.183
97010SOL     OW92861   7.277   0.264  10.651
97010SOL    HW192862   7.319   0.193  10.701
97010SOL    HW292863   7.349   0.304  10.602
97011SOL     OW92864  12.099   8.261   5.246
97011SOL    HW192865  12.048   8.220   5.316
97011SOL    HW292866  12.181   8.212   5.244
97012SOL     OW92867   5.397   3.714   5.441
97012SOL    HW192868   5.462   3.716   5.371
97012SOL    HW292869   5.345   3.793   5.428
97013SOL     OW92870   0.203  13.581   7.994
97013SOL    HW192871   0.246  13.577   7.909
97013SOL    HW292872   0.123  13.530   7.983
97014SOL     OW92873   3.338  12.532  11.275
97014SOL    HW192874   3.272  12.469  11.304
97014SOL    HW292875   3.302  12.618  11.301
97015SOL     OW92876   1.008   3.624   8.072
97015SOL    HW192877   1.071   3.645   8.003
97015SOL    HW292878   0.985   3.709   8.110
97016SOL     OW92879  11.768   4.655   5.454
97016SOL    HW192880  11.680   4.624   5.434
97016SOL    HW292881  11.820   4.576   5.465
97017SOL     OW92882   7.655   0.559   6.665
97017SOL    HW192883   7.730   0.616   6.676
97017SOL    HW292884   7.688   0.471   6.683
97018SOL     OW92885   3.372   2.295   8.496
97018SOL    HW192886   3.383   2.236   8.421
97018SOL    HW292887   3.434   2.366   8.479
97019SOL     OW92888   3.144   8.793   0.857
97019SOL    HW192889   3.213   8.852   0.829
97019SOL    HW292890   3.064   8.845   0.849
97020SOL     OW92891  11.034   4.880  13.558
97020SOL    HW192892  11.009   4.964  13.520
97020SOL    HW292893  11.065   4.902  13.646
97021SOL     OW92894   7.839  11.252  13.682
97021SOL    HW192895   7.896  11.176  13.687
97021SOL    HW292896   7.879  11.317  13.740
97022SOL     OW92897   5.366   8.406   7.578
97022SOL    HW192898   5.411   8.403   7.663
97022SOL    HW292899   5.436   8.420   7.514
97023SOL     OW92900  14.785  13.989  10.024
97023SOL    HW192901  14.758  13.998   9.933
97023SOL    HW292902  14.797  14.079  10.054
97024SOL     OW92903  12.742   0.671   7.958
97024SOL    HW192904  12.690   0.666   7.877
97024SOL    HW292905  12.701   0.608   8.016
97025SOL     OW92906   8.242  11.789   5.407
97025SOL    HW192907   8.229  11.806   5.314
97025SOL    HW292908   8.287  11.867   5.440
97026SOL     OW92909   4.549   7.872   7.152
97026SOL    HW192910   4.496   7.859   7.073
97026SOL    HW292911   4.605   7.795   7.156
97027SOL     OW92912   4.425  10.629   7.563
97027SOL    HW192913   4.479  10.582   7.627
97027SOL    HW292914   4.411  10.566   7.492
97028SOL     OW92915   4.128   1.430   3.587
97028SOL    HW192916   4.214   1.472   3.591
97028SOL    HW292917   4.119   1.403   3.495
97029SOL     OW92918  11.184  10.377  13.886
97029SOL    HW192919  11.221  10.354  13.801
97029SOL    HW292920  11.229  10.320  13.948
97030SOL     OW92921  13.455   9.754   0.399
97030SOL    HW192922  13.439   9.847   0.381
97030SOL    HW292923  13.524   9.729   0.338
97031SOL     OW92924   6.691   6.309   1.141
97031SOL    HW192925   6.655   6.295   1.228
97031SOL    HW292926   6.616   6.305   1.082
97032SOL     OW92927  14.287   0.062   1.538
97032SOL    HW192928  14.210   0.028   1.493
97032SOL    HW292929  14.346  14.862   1.543
97033SOL     OW92930   9.916   8.518   8.578
97033SOL    HW192931   9.868   8.496   8.658
97033SOL    HW292932   9.990   8.571   8.608
97034SOL     OW92933  12.277  11.554  14.630
97034SOL    HW192934  12.280  11.630  14.572
97034SOL    HW292935  12.190  11.559  14.671
97035SOL     OW92936   5.416   3.259   5.044
97035SOL    HW192937   5.341   3.269   4.985
97035SOL    HW292938   5.454   3.175   5.020
97036SOL     OW92939   0.734   4.303   4.409
97036SOL    HW192940   0.769   4.284   4.322
97036SOL    HW292941   0.643   4.273   4.404
97037SOL     OW92942   7.254   2.824  10.996
97037SOL    HW192943   7.258   2.899  11.055
97037SOL    HW292944   7.292   2.856  10.914
97038SOL     OW92945   3.870   8.526   2.860
97038SOL    HW192946   3.859   8.598   2.923
97038SOL    HW292947   3.783   8.514   2.822
97039SOL     OW92948   9.640  11.748   7.466
97039SOL    HW192949   9.573  11.680   7.453
97039SOL    HW292950   9.714  11.700   7.502
97040SOL     OW92951  14.433   1.008   9.643
97040SOL    HW192952  14.442   1.004   9.738
97040SOL    HW292953  14.517   0.976   9.609
97041SOL     OW92954   0.519  13.029   5.478
97041SOL    HW192955   0.453  13.050   5.544
97041SOL    HW292956   0.506  13.094   5.409
97042SOL     OW92957   9.586  11.425   0.555
97042SOL    HW192958   9.544  11.511   0.553
97042SOL    HW292959   9.513  11.363   0.549
97043SOL     OW92960   4.341  13.079   6.533
97043SOL    HW192961   4.269  13.018   6.517
97043SOL    HW292962   4.398  13.033   6.595
97044SOL     OW92963  11.039   3.734  14.269
97044SOL    HW192964  11.041   3.709  14.361
97044SOL    HW292965  11.020   3.652  14.223
97045SOL     OW92966   2.034  10.712   5.851
97045SOL    HW192967   1.947  10.672   5.851
97045SOL    HW292968   2.026  10.789   5.907
97046SOL     OW92969  11.424  11.223   4.814
97046SOL    HW192970  11.430  11.245   4.721
97046SOL    HW292971  11.360  11.285   4.849
97047SOL     OW92972  12.152   0.729   9.493
97047SOL    HW192973  12.148   0.644   9.536
97047SOL    HW292974  12.158   0.709   9.400
97048SOL     OW92975   8.740   9.555   3.630
97048SOL    HW192976   8.764   9.480   3.685
97048SOL    HW292977   8.792   9.544   3.551
97049SOL     OW92978   7.536   5.424   1.610
97049SOL    HW192979   7.481   5.420   1.688
97049SOL    HW292980   7.497   5.361   1.549
97050SOL     OW92981   3.214   8.978   9.583
97050SOL    HW192982   3.260   8.894   9.593
97050SOL    HW292983   3.257   9.019   9.509
97051SOL     OW92984   0.309   4.689   0.043
97051SOL    HW192985   0.296   4.616   0.104
97051SOL    HW292986   0.356   4.650  14.845
97052SOL     OW92987  12.513   1.976   9.328
97052SOL    HW192988  12.429   1.934   9.349
97052SOL    HW292989  12.496   2.070   9.341
97053SOL     OW92990  14.482   2.728   3.597
97053SOL    HW192991  14.476   2.784   3.674
97053SOL    HW292992  14.479   2.789   3.523
97054SOL     OW92993   1.412  11.527   5.564
97054SOL    HW192994   1.406  11.465   5.491
97054SOL    HW292995   1.494  11.504   5.608
97055SOL     OW92996   6.900   0.434   5.724
97055SOL    HW192997   6.977   0.477   5.760
97055SOL    HW292998   6.931   0.394   5.642
97056SOL     OW92999   6.714   7.113  12.122
97056SOL    HW193000   6.673   7.177  12.063
97056SOL    HW293001   6.808   7.129  12.113
97057SOL     OW93002   6.614   2.053   0.493
97057SOL    HW193003   6.612   2.135   0.443
97057SOL    HW293004   6.652   2.077   0.577
97058SOL     OW93005  12.977  14.028  12.899
97058SOL    HW193006  12.899  14.073  12.931
97058SOL    HW293007  12.988  14.059  12.809
97059SOL     OW93008  10.583   3.023   6.316
97059SOL    HW193009  10.617   3.035   6.404
97059SOL    HW293010  10.565   2.930   6.309
97060SOL     OW93011   2.606   1.327  11.597
97060SOL    HW193012   2.642   1.294  11.679
97060SOL    HW293013   2.681   1.367  11.552
97061SOL     OW93014   7.679  11.887   2.186
97061SOL    HW193015   7.686  11.820   2.118
97061SOL    HW293016   7.741  11.858   2.253
97062SOL     OW93017   5.451   8.162   4.375
97062SOL    HW193018   5.533   8.209   4.388
97062SOL    HW293019   5.419   8.193   4.290
97063SOL     OW93020  10.418   9.013   1.710
97063SOL    HW193021  10.473   9.020   1.788
97063SOL    HW293022  10.356   9.086   1.718
97064SOL     OW93023  13.155   6.754   6.150
97064SOL    HW193024  13.226   6.697   6.119
97064SOL    HW293025  13.123   6.797   6.071
97065SOL     OW93026   5.457   3.664  11.637
97065SOL    HW193027   5.464   3.756  11.661
97065SOL    HW293028   5.389   3.662  11.570
97066SOL     OW93029   4.069   6.303   4.495
97066SOL    HW193030   4.008   6.375   4.510
97066SOL    HW293031   4.060   6.247   4.572
97067SOL     OW93032   9.497   5.841   6.315
97067SOL    HW193033   9.461   5.877   6.234
97067SOL    HW293034   9.532   5.756   6.290
97068SOL     OW93035   1.689   6.715   2.698
97068SOL    HW193036   1.721   6.637   2.744
97068SOL    HW293037   1.697   6.786   2.761
97069SOL     OW93038  11.077  10.313   5.980
97069SOL    HW193039  11.081  10.340   5.888
97069SOL    HW293040  11.169  10.309   6.007
97070SOL     OW93041  13.377   8.011   1.126
97070SOL    HW193042  13.447   7.960   1.165
97070SOL    HW293043  13.405   8.102   1.135
97071SOL     OW93044   4.506   8.339   1.830
97071SOL    HW193045   4.535   8.342   1.739
97071SOL    HW293046   4.432   8.401   1.834
97072SOL     OW93047   3.905  14.135  10.583
97072SOL    HW193048   3.863  14.207  10.630
97072SOL    HW293049   3.996  14.163  10.572
97073SOL     OW93050  10.003  11.215   6.853
97073SOL    HW193051   9.921  11.242   6.811
97073SOL    HW293052   9.975  11.169   6.932
97074SOL     OW93053   9.850  10.286   1.897
97074SOL    HW193054   9.838  10.243   1.813
97074SOL    HW293055   9.944  10.284   1.913
97075SOL     OW93056  10.254   5.188   9.642
97075SOL    HW193057  10.251   5.278   9.673
97075SOL    HW293058  10.169   5.174   9.601
97076SOL     OW93059   9.673  13.317   1.424
97076SOL    HW193060   9.711  13.262   1.354
97076SOL    HW293061   9.709  13.280   1.504
97077SOL     OW93062   0.661  13.196  14.094
97077SOL    HW193063   0.586  13.145  14.126
97077SOL    HW293064   0.711  13.218  14.173
97078SOL     OW93065   9.503  14.464  14.477
97078SOL    HW193066   9.596  14.449  14.495
97078SOL    HW293067   9.497  14.557  14.457
97079SOL     OW93068   5.794   7.762   1.778
97079SOL    HW193069   5.798   7.830   1.711
97079SOL    HW293070   5.729   7.699   1.746
97080SOL     OW93071  13.374  12.798   3.631
97080SOL    HW193072  13.360  12.848   3.712
97080SOL    HW293073  13.304  12.732   3.632
97081SOL     OW93074  13.460  14.710   8.457
97081SOL    HW193075  13.465  14.803   8.433
97081SOL    HW293076  13.394  14.707   8.526
97082SOL     OW93077  12.347   1.720   9.142
97082SOL    HW193078  12.359   1.812   9.119
97082SOL    HW293079  12.318   1.723   9.234
97083SOL     OW93080   6.580  12.351  12.762
97083SOL    HW193081   6.650  12.313  12.814
97083SOL    HW293082   6.502  12.341  12.816
97084SOL     OW93083   4.982   0.960   2.820
97084SOL    HW193084   5.077   0.946   2.820
97084SOL    HW293085   4.970   1.043   2.775
97085SOL     OW93086   7.262  10.775   1.151
97085SOL    HW193087   7.283  10.691   1.110
97085SOL    HW293088   7.170  10.767   1.177
97086SOL     OW93089  11.033   4.080   7.512
97086SOL    HW193090  11.064   4.171   7.502
97086SOL    HW293091  10.948   4.079   7.469
97087SOL     OW93092   2.161   1.301   5.023
97087SOL    HW193093   2.240   1.344   5.057
97087SOL    HW293094   2.142   1.347   4.941
97088SOL     OW93095  14.822  14.684   6.983
97088SOL    HW193096  14.787  14.673   6.895
97088SOL    HW293097  14.748  14.715   7.035
97089SOL     OW93098  13.746  10.724   0.635
97089SOL    HW193099  13.748  10.788   0.564
97089SOL    HW293100  13.734  10.640   0.591
97090SOL     OW93101   8.942  11.600   6.349
97090SOL    HW193102   8.904  11.672   6.299
97090SOL    HW293103   8.945  11.527   6.287
97091SOL     OW93104  10.408   9.287   6.185
97091SOL    HW193105  10.380   9.378   6.182
97091SOL    HW293106  10.372   9.248   6.105
97092SOL     OW93107  11.085   4.891   0.132
97092SOL    HW193108  11.085   4.874   0.038
97092SOL    HW293109  11.136   4.819   0.169
97093SOL     OW93110  13.344   0.630   2.018
97093SOL    HW193111  13.418   0.640   2.079
97093SOL    HW293112  13.304   0.547   2.043
97094SOL     OW93113   6.206   8.416  14.121
97094SOL    HW193114   6.184   8.509  14.133
97094SOL    HW293115   6.135   8.369  14.163
97095SOL     OW93116   9.257   3.115  11.146
97095SOL    HW193117   9.222   3.195  11.107
97095SOL    HW293118   9.317   3.146  11.214
97096SOL     OW93119   1.652  12.252  14.382
97096SOL    HW193120   1.587  12.293  14.440
97096SOL    HW293121   1.601  12.196  14.325
97097SOL     OW93122  14.336   0.680  10.660
97097SOL    HW193123  14.288   0.605  10.694
97097SOL    HW293124  14.392   0.644  10.591
97098SOL     OW93125   2.861   6.861   3.145
97098SOL    HW193126   2.826   6.814   3.221
97098SOL    HW293127   2.949   6.825   3.134
97099SOL     OW93128   2.004   9.783   2.358
97099SOL    HW193129   2.073   9.833   2.401
97099SOL    HW293130   1.933   9.846   2.346
97100SOL     OW93131   5.687   9.927   3.029
97100SOL    HW193132   5.714   9.884   3.110
97100SOL    HW293133   5.683  10.020   3.051
97101SOL     OW93134   0.875   6.284  13.740
97101SOL    HW193135   0.907   6.195  13.729
97101SOL    HW293136   0.905   6.310  13.827
97102SOL     OW93137   6.048   1.716   2.098
97102SOL    HW193138   6.087   1.651   2.156
97102SOL    HW293139   6.122   1.770   2.069
97103SOL     OW93140  11.511   0.195  12.692
97103SOL    HW193141  11.601   0.162  12.683
97103SOL    HW293142  11.480   0.155  12.774
97104SOL     OW93143   7.283   0.058   7.116
97104SOL    HW193144   7.262   0.121   7.047
97104SOL    HW293145   7.284   0.110   7.197
97105SOL     OW93146   0.269   1.321   9.534
97105SOL    HW193147   0.287   1.388   9.468
97105SOL    HW293148   0.207   1.261   9.492
97106SOL     OW93149   0.380  11.975  12.332
97106SOL    HW193150   0.362  11.946  12.421
97106SOL    HW293151   0.449  12.041  12.341
97107SOL     OW93152   0.520  11.624   3.570
97107SOL    HW193153   0.595  11.605   3.628
97107SOL    HW293154   0.517  11.720   3.566
97108SOL     OW93155   3.896  12.978  10.234
97108SOL    HW193156   3.961  13.015  10.294
97108SOL    HW293157   3.928  13.002  10.147
97109SOL     OW93158  12.282  12.636   1.634
97109SOL    HW193159  12.327  12.669   1.556
97109SOL    HW293160  12.213  12.699   1.651
97110SOL     OW93161   2.309   9.064  10.661
97110SOL    HW193162   2.273   9.064  10.749
97110SOL    HW293163   2.235   9.086  10.604
97111SOL     OW93164  13.162   1.414   1.649
97111SOL    HW193165  13.126   1.489   1.697
97111SOL    HW293166  13.096   1.346   1.659
97112SOL     OW93167  11.892  11.904  14.323
97112SOL    HW193168  11.815  11.880  14.270
97112SOL    HW293169  11.854  11.939  14.404
97113SOL     OW93170   2.038   7.602   1.880
97113SOL    HW193171   1.955   7.565   1.850
97113SOL    HW293172   2.025   7.697   1.875
97114SOL     OW93173   2.017  10.093   4.816
97114SOL    HW193174   2.043  10.090   4.908
97114SOL    HW293175   2.095  10.123   4.769
97115SOL     OW93176   7.134   1.431   9.798
97115SOL    HW193177   7.054   1.471   9.764
97115SOL    HW293178   7.205   1.488   9.765
97116SOL     OW93179  11.872   8.153   6.928
97116SOL    HW193180  11.840   8.215   6.994
97116SOL    HW293181  11.805   8.084   6.925
97117SOL     OW93182  13.058   2.540   8.126
97117SOL    HW193183  13.151   2.523   8.142
97117SOL    HW293184  13.015   2.523   8.210
97118SOL     OW93185   6.831  12.681   0.001
97118SOL    HW193186   6.765  12.664   0.068
97118SOL    HW293187   6.913  12.651   0.041
97119SOL     OW93188  10.233   5.730   2.688
97119SOL    HW193189  10.148   5.775   2.683
97119SOL    HW293190  10.212   5.643   2.721
97120SOL     OW93191   0.893   4.073   6.639
97120SOL    HW193192   0.915   4.165   6.653
97120SOL    HW293193   0.976   4.027   6.648
97121SOL     OW93194  12.397   5.072  13.836
97121SOL    HW193195  12.319   5.021  13.858
97121SOL    HW293196  12.452   5.068  13.914
97122SOL     OW93197  13.224   0.528  11.877
97122SOL    HW193198  13.202   0.506  11.786
97122SOL    HW293199  13.240   0.443  11.919
97123SOL     OW93200  12.358   6.030  13.335
97123SOL    HW193201  12.441   6.002  13.296
97123SOL    HW293202  12.311   5.949  13.353
97124SOL     OW93203   3.942   0.896  13.358
97124SOL    HW193204   4.031   0.929  13.344
97124SOL    HW293205   3.896   0.921  13.277
97125SOL     OW93206   6.075   4.018   3.702
97125SOL    HW193207   5.988   3.979   3.712
97125SOL    HW293208   6.134   3.951   3.736
97126SOL     OW93209   7.003  14.452   3.007
97126SOL    HW193210   7.037  14.392   2.941
97126SOL    HW293211   7.024  14.539   2.975
97127SOL     OW93212   3.745  11.096   7.585
97127SOL    HW193213   3.733  11.015   7.635
97127SOL    HW293214   3.826  11.134   7.619
97128SOL     OW93215  13.501   7.775   9.911
97128SOL    HW193216  13.504   7.746  10.002
97128SOL    HW293217  13.509   7.870   9.917
97129SOL     OW93218   0.585   0.136  10.711
97129SOL    HW193219   0.560   0.044  10.702
97129SOL    HW293220   0.576   0.172  10.622
97130SOL     OW93221  10.257   6.722  14.169
97130SOL    HW193222  10.186   6.785  14.156
97130SOL    HW293223  10.295   6.710  14.082
97131SOL     OW93224   9.301   5.548  13.192
97131SOL    HW193225   9.300   5.452  13.192
97131SOL    HW293226   9.248   5.572  13.268
97132SOL     OW93227   1.714   2.906   3.265
97132SOL    HW193228   1.797   2.878   3.226
97132SOL    HW293229   1.651   2.841   3.237
97133SOL     OW93230   0.142   2.610  11.330
97133SOL    HW193231   0.115   2.561  11.252
97133SOL    HW293232   0.140   2.702  11.302
97134SOL     OW93233   3.781   5.460  14.284
97134SOL    HW193234   3.789   5.365  14.278
97134SOL    HW293235   3.714   5.483  14.220
97135SOL     OW93236   3.870   5.724   2.258
97135SOL    HW193237   3.942   5.787   2.263
97135SOL    HW293238   3.797   5.775   2.223
97136SOL     OW93239   3.903  10.828   1.257
97136SOL    HW193240   3.817  10.814   1.297
97136SOL    HW293241   3.886  10.826   1.163
97137SOL     OW93242  13.703  10.127  11.960
97137SOL    HW193243  13.683  10.117  11.866
97137SOL    HW293244  13.674  10.045  11.999
97138SOL     OW93245   5.772   7.614   3.069
97138SOL    HW193246   5.866   7.602   3.063
97138SOL    HW293247   5.750   7.674   2.998
97139SOL     OW93248  14.836   6.625  12.428
97139SOL    HW193249  14.862   6.685  12.358
97139SOL    HW293250  14.746   6.600  12.406
97140SOL     OW93251  12.624   1.782   4.883
97140SOL    HW193252  12.693   1.832   4.926
97140SOL    HW293253  12.667   1.704   4.849
97141SOL     OW93254  12.094  12.125   5.530
97141SOL    HW193255  12.138  12.101   5.612
97141SOL    HW293256  12.163  12.116   5.463
97142SOL     OW93257   5.962  13.405   8.367
97142SOL    HW193258   5.878  13.360   8.365
97142SOL    HW293259   5.982  13.423   8.275
97143SOL     OW93260   1.464  14.775  14.039
97143SOL    HW193261   1.530  14.805  14.101
97143SOL    HW293262   1.423  14.856  14.007
97144SOL     OW93263   0.379  11.687   9.212
97144SOL    HW193264   0.448  11.642   9.261
97144SOL    HW293265   0.412  11.776   9.200
97145SOL     OW93266  13.853  10.459   7.002
97145SOL    HW193267  13.814  10.512   6.932
97145SOL    HW293268  13.789  10.389   7.016
97146SOL     OW93269   4.290  10.918   5.076
97146SOL    HW193270   4.284  10.935   5.170
97146SOL    HW293271   4.380  10.940   5.052
97147SOL     OW93272  12.459  10.401  14.771
97147SOL    HW193273  12.470  10.388  14.865
97147SOL    HW293274  12.406  10.326  14.743
97148SOL     OW93275   5.951   2.448   2.496
97148SOL    HW193276   5.970   2.541   2.509
97148SOL    HW293277   5.920   2.442   2.405
97149SOL     OW93278   2.969   4.259  10.576
97149SOL    HW193279   2.991   4.328  10.514
97149SOL    HW293280   3.046   4.251  10.632
97150SOL     OW93281   7.708   1.899   5.066
97150SOL    HW193282   7.696   1.963   5.136
97150SOL    HW293283   7.681   1.945   4.986
97151SOL     OW93284  12.340   8.763  14.245
97151SOL    HW193285  12.370   8.763  14.336
97151SOL    HW293286  12.387   8.690  14.205
97152SOL     OW93287   1.806   7.358  10.565
97152SOL    HW193288   1.864   7.434  10.562
97152SOL    HW293289   1.736   7.378  10.503
97153SOL     OW93290   7.672   8.029  11.958
97153SOL    HW193291   7.659   8.106  12.014
97153SOL    HW293292   7.610   8.041  11.886
97154SOL     OW93293  13.834   1.068   7.317
97154SOL    HW193294  13.851   0.979   7.287
97154SOL    HW293295  13.846   1.122   7.239
97155SOL     OW93296  13.548   2.239  10.998
97155SOL    HW193297  13.629   2.194  11.022
97155SOL    HW293298  13.529   2.297  11.071
97156SOL     OW93299   0.798   1.383   2.360
97156SOL    HW193300   0.712   1.351   2.388
97156SOL    HW293301   0.778   1.457   2.302
97157SOL     OW93302   8.833   2.122   4.054
97157SOL    HW193303   8.778   2.048   4.082
97157SOL    HW293304   8.922   2.085   4.052
97158SOL     OW93305  12.955  10.320  13.151
97158SOL    HW193306  12.915  10.332  13.065
97158SOL    HW293307  12.905  10.378  13.209
97159SOL     OW93308  12.486   1.513   1.845
97159SOL    HW193309  12.538   1.460   1.785
97159SOL    HW293310  12.396   1.501   1.815
97160SOL     OW93311  12.314  13.737  13.553
97160SOL    HW193312  12.236  13.704  13.508
97160SOL    HW293313  12.288  13.822  13.587
97161SOL     OW93314  11.199   9.494  14.780
97161SOL    HW193315  11.278   9.440  14.771
97161SOL    HW293316  11.164   9.500  14.691
97162SOL     OW93317  12.449   0.102  10.955
97162SOL    HW193318  12.513   0.170  10.978
97162SOL    HW293319  12.502   0.024  10.937
97163SOL     OW93320   1.061   3.380   0.623
97163SOL    HW193321   1.005   3.411   0.694
97163SOL    HW293322   1.118   3.455   0.604
97164SOL     OW93323   9.638  14.820  12.401
97164SOL    HW193324   9.571  14.753  12.387
97164SOL    HW293325   9.668  14.806  12.491
97165SOL     OW93326  11.358   3.388   8.254
97165SOL    HW193327  11.264   3.400   8.262
97165SOL    HW293328  11.375   3.302   8.293
97166SOL     OW93329   8.386  11.049  10.530
97166SOL    HW193330   8.393  10.961  10.493
97166SOL    HW293331   8.332  11.038  10.608
97167SOL     OW93332  12.709   4.201   4.679
97167SOL    HW193333  12.739   4.250   4.756
97167SOL    HW293334  12.675   4.119   4.714
97168SOL     OW93335   1.070   3.912   2.943
97168SOL    HW193336   1.027   3.985   2.899
97168SOL    HW293337   1.086   3.943   3.032
97169SOL     OW93338  11.918   1.075  12.213
97169SOL    HW193339  11.982   1.045  12.147
97169SOL    HW293340  11.960   1.056  12.297
97170SOL     OW93341   0.250   3.966  14.395
97170SOL    HW193342   0.168   3.919  14.375
97170SOL    HW293343   0.224   4.057  14.403
97171SOL     OW93344   7.862   4.185   1.477
97171SOL    HW193345   7.881   4.165   1.569
97171SOL    HW293346   7.876   4.280   1.470
97172SOL     OW93347   1.598   2.275   1.686
97172SOL    HW193348   1.520   2.309   1.729
97172SOL    HW293349   1.595   2.181   1.703
97173SOL     OW93350   0.615   4.483   6.072
97173SOL    HW193351   0.674   4.420   6.113
97173SOL    HW293352   0.654   4.568   6.091
97174SOL     OW93353  11.108   8.884   7.048
97174SOL    HW193354  11.070   8.874   6.961
97174SOL    HW293355  11.188   8.831   7.045
97175SOL     OW93356  10.928   5.750  12.045
97175SOL    HW193357  10.949   5.656  12.051
97175SOL    HW293358  10.840   5.757  12.082
97176SOL     OW93359   2.224   8.256   9.763
97176SOL    HW193360   2.140   8.212   9.775
97176SOL    HW293361   2.207   8.321   9.695
97177SOL     OW93362  13.696   5.690   5.772
97177SOL    HW193363  13.622   5.751   5.768
97177SOL    HW293364  13.761   5.736   5.824
97178SOL     OW93365  10.718  14.627   8.745
97178SOL    HW193366  10.629  14.591   8.748
97178SOL    HW293367  10.756  14.590   8.664
97179SOL     OW93368   6.925   6.389  13.819
97179SOL    HW193369   6.902   6.374  13.728
97179SOL    HW293370   6.866   6.332  13.869
97180SOL     OW93371   6.333   1.755  13.030
97180SOL    HW193372   6.415   1.725  12.992
97180SOL    HW293373   6.328   1.710  13.115
97181SOL     OW93374   0.677  12.479   1.035
97181SOL    HW193375   0.650  12.408   1.094
97181SOL    HW293376   0.738  12.439   0.974
97182SOL     OW93377  13.611  10.690   7.179
97182SOL    HW193378  13.603  10.595   7.182
97182SOL    HW293379  13.667  10.713   7.253
97183SOL     OW93380   2.422   4.801   4.432
97183SOL    HW193381   2.402   4.727   4.489
97183SOL    HW293382   2.500   4.841   4.470
97184SOL     OW93383   8.266   2.758   7.829
97184SOL    HW193384   8.198   2.774   7.764
97184SOL    HW293385   8.302   2.846   7.847
97185SOL     OW93386   2.883   9.035   0.127
97185SOL    HW193387   2.801   9.041   0.078
97185SOL    HW293388   2.950   9.026   0.060
97186SOL     OW93389  13.491   4.414  14.044
97186SOL    HW193390  13.513   4.322  14.031
97186SOL    HW293391  13.440   4.438  13.967
97187SOL     OW93392   5.922  14.742   4.848
97187SOL    HW193393   5.846  14.714   4.798
97187SOL    HW293394   5.948  14.825   4.808
97188SOL     OW93395   0.862  14.119   8.446
97188SOL    HW193396   0.867  14.111   8.351
97188SOL    HW293397   0.833  14.032   8.476
97189SOL     OW93398  12.830  14.648   0.264
97189SOL    HW193399  12.751  14.663   0.213
97189SOL    HW293400  12.817  14.697   0.345
97190SOL     OW93401  12.666  11.574  14.560
97190SOL    HW193402  12.634  11.601  14.474
97190SOL    HW293403  12.595  11.596  14.620
97191SOL     OW93404  10.709   4.180   6.498
97191SOL    HW193405  10.721   4.116   6.427
97191SOL    HW293406  10.777   4.159   6.562
97192SOL     OW93407  12.933   4.285   2.811
97192SOL    HW193408  13.019   4.314   2.780
97192SOL    HW293409  12.952   4.210   2.867
97193SOL     OW93410   5.053   1.605  12.153
97193SOL    HW193411   4.971   1.557  12.162
97193SOL    HW293412   5.119   1.537  12.135
97194SOL     OW93413   6.946  13.059   4.228
97194SOL    HW193414   7.014  13.037   4.293
97194SOL    HW293415   6.869  13.010   4.257
97195SOL     OW93416  10.805   5.153   2.595
97195SOL    HW193417  10.845   5.180   2.512
97195SOL    HW293418  10.811   5.058   2.596
97196SOL     OW93419   9.564   1.760   4.517
97196SOL    HW193420   9.574   1.694   4.449
97196SOL    HW293421   9.470   1.774   4.524
97197SOL     OW93422   4.294   6.598   9.773
97197SOL    HW193423   4.227   6.531   9.788
97197SOL    HW293424   4.309   6.597   9.679
97198SOL     OW93425  14.218   6.426  12.823
97198SOL    HW193426  14.252   6.338  12.803
97198SOL    HW293427  14.187   6.419  12.913
97199SOL     OW93428  12.756  14.064   6.089
97199SOL    HW193429  12.835  14.055   6.036
97199SOL    HW293430  12.776  14.019   6.171
97200SOL     OW93431  13.022   7.528   5.285
97200SOL    HW193432  13.041   7.465   5.355
97200SOL    HW293433  13.088   7.509   5.217
97201SOL     OW93434   6.592   2.934  11.746
97201SOL    HW193435   6.563   3.007  11.690
97201SOL    HW293436   6.646   2.975  11.813
97202SOL     OW93437   9.333  10.021  14.722
97202SOL    HW193438   9.248  10.012  14.765
97202SOL    HW293439   9.342   9.941  14.671
97203SOL     OW93440  11.814   0.723  12.358
97203SOL    HW193441  11.836   0.643  12.406
97203SOL    HW293442  11.809   0.696  12.266
97204SOL     OW93443  10.216   1.951  12.846
97204SOL    HW193444  10.127   1.986  12.848
97204SOL    HW293445  10.263   2.007  12.785
97205SOL     OW93446   7.782   4.495   3.395
97205SOL    HW193447   7.711   4.450   3.441
97205SOL    HW293448   7.842   4.425   3.368
97206SOL     OW93449  13.098   1.186   8.472
97206SOL    HW193450  13.023   1.246   8.472
97206SOL    HW293451  13.082   1.127   8.546
97207SOL     OW93452   3.078   1.391  14.468
97207SOL    HW193453   3.041   1.313  14.508
97207SOL    HW293454   3.002   1.442  14.440
97208SOL     OW93455   9.084   7.147   9.115
97208SOL    HW193456   9.089   7.109   9.027
97208SOL    HW293457   9.037   7.229   9.104
97209SOL     OW93458   0.465   1.420   6.444
97209SOL    HW193459   0.510   1.384   6.521
97209SOL    HW293460   0.522   1.490   6.414
97210SOL     OW93461  13.138   1.957  11.297
97210SOL    HW193462  13.129   2.005  11.380
97210SOL    HW293463  13.103   2.017  11.231
97211SOL     OW93464   4.184   5.688   6.093
97211SOL    HW193465   4.127   5.699   6.018
97211SOL    HW293466   4.249   5.624   6.065
97212SOL     OW93467   1.628   5.018   8.837
97212SOL    HW193468   1.664   4.989   8.753
97212SOL    HW293469   1.658   4.952   8.900
97213SOL     OW93470   3.324   9.080   9.356
97213SOL    HW193471   3.304   9.173   9.357
97213SOL    HW293472   3.411   9.075   9.316
97214SOL     OW93473   7.595   8.163   2.263
97214SOL    HW193474   7.536   8.130   2.196
97214SOL    HW293475   7.551   8.241   2.298
97215SOL     OW93476   2.395   0.739   1.307
97215SOL    HW193477   2.427   0.701   1.389
97215SOL    HW293478   2.468   0.728   1.246
97216SOL     OW93479   5.078   6.639  13.215
97216SOL    HW193480   5.083   6.663  13.307
97216SOL    HW293481   5.055   6.546  13.215
97217SOL     OW93482   9.710   8.821   1.120
97217SOL    HW193483   9.796   8.858   1.102
97217SOL    HW293484   9.727   8.730   1.145
97218SOL     OW93485  12.962   2.543   9.664
97218SOL    HW193486  13.031   2.536   9.730
97218SOL    HW293487  12.897   2.602   9.703
97219SOL     OW93488   6.925   8.376  14.292
97219SOL    HW193489   6.881   8.314  14.234
97219SOL    HW293490   6.924   8.334  14.378
97220SOL     OW93491  10.663   0.117  11.755
97220SOL    HW193492  10.699   0.106  11.667
97220SOL    HW293493  10.713   0.190  11.792
97221SOL     OW93494   5.740   5.417   3.352
97221SOL    HW193495   5.666   5.474   3.375
97221SOL    HW293496   5.747   5.424   3.257
97222SOL     OW93497   0.886   6.859   1.972
97222SOL    HW193498   0.956   6.807   1.931
97222SOL    HW293499   0.891   6.837   2.065
97223SOL     OW93500   0.896  12.286   4.217
97223SOL    HW193501   0.921  12.306   4.126
97223SOL    HW293502   0.822  12.226   4.209
97224SOL     OW93503   1.555   4.823   6.834
97224SOL    HW193504   1.622   4.795   6.897
97224SOL    HW293505   1.513   4.898   6.875
97225SOL     OW93506   8.796  14.091   3.877
97225SOL    HW193507   8.741  14.091   3.956
97225SOL    HW293508   8.752  14.152   3.818
97226SOL     OW93509   8.288   7.303   2.998
97226SOL    HW193510   8.258   7.312   3.089
97226SOL    HW293511   8.215   7.334   2.945
97227SOL     OW93512   2.066  10.630   2.263
97227SOL    HW193513   2.132  10.608   2.328
97227SOL    HW293514   2.107  10.610   2.179
97228SOL     OW93515   4.214  10.979   3.167
97228SOL    HW193516   4.197  10.933   3.249
97228SOL    HW293517   4.164  10.930   3.101
97229SOL     OW93518  11.011  11.202   8.053
97229SOL    HW193519  11.086  11.260   8.038
97229SOL    HW293520  11.050  11.119   8.080
97230SOL     OW93521  10.310  14.604   1.250
97230SOL    HW193522  10.316  14.690   1.291
97230SOL    HW293523  10.222  14.601   1.213
97231SOL     OW93524   7.767   0.804  10.804
97231SOL    HW193525   7.780   0.887  10.758
97231SOL    HW293526   7.715   0.751  10.744
97232SOL     OW93527   0.679  14.860   3.650
97232SOL    HW193528   0.759   0.036   3.640
97232SOL    HW293529   0.629   0.001   3.570
97233SOL     OW93530   1.308  11.775   0.155
97233SOL    HW193531   1.391  11.737   0.127
97233SOL    HW293532   1.314  11.780   0.250
97234SOL     OW93533  12.562   8.094  13.911
97234SOL    HW193534  12.508   8.016  13.923
97234SOL    HW293535  12.510   8.149  13.852
97235SOL     OW93536  12.277   6.514  12.043
97235SOL    HW193537  12.320   6.518  12.128
97235SOL    HW293538  12.184   6.525  12.064
97236SOL     OW93539   6.260   8.540  13.642
97236SOL    HW193540   6.195   8.574  13.580
97236SOL    HW293541   6.215   8.468  13.687
97237SOL     OW93542   9.805   4.391  13.203
97237SOL    HW193543   9.807   4.468  13.147
97237SOL    HW293544   9.748   4.329  13.157
97238SOL     OW93545   8.362  10.368   1.184
97238SOL    HW193546   8.349  10.463   1.181
97238SOL    HW293547   8.401  10.346   1.100
97239SOL     OW93548   7.590   6.743   1.854
97239SOL    HW193549   7.506   6.786   1.839
97239SOL    HW293550   7.647   6.778   1.786
97240SOL     OW93551  10.944   4.577  12.437
97240SOL    HW193552  10.890   4.633  12.492
97240SOL    HW293553  11.012   4.635  12.403
97241SOL     OW93554  12.511   6.108   2.232
97241SOL    HW193555  12.566   6.186   2.243
97241SOL    HW293556  12.545   6.045   2.296
97242SOL     OW93557  10.923   5.822   6.186
97242SOL    HW193558  10.889   5.887   6.125
97242SOL    HW293559  10.935   5.869   6.269
97243SOL     OW93560  12.307  10.031   1.541
97243SOL    HW193561  12.394  10.038   1.581
97243SOL    HW293562  12.289  10.119   1.508
97244SOL     OW93563  12.054   1.351   1.164
97244SOL    HW193564  12.049   1.411   1.089
97244SOL    HW293565  11.968   1.311   1.168
97245SOL     OW93566   6.067  10.263  10.551
97245SOL    HW193567   6.131  10.194  10.533
97245SOL    HW293568   6.116  10.344  10.540
97246SOL     OW93569  11.769   6.938  14.533
97246SOL    HW193570  11.794   7.025  14.567
97246SOL    HW293571  11.673   6.938  14.536
97247SOL     OW93572  14.374   6.483   7.278
97247SOL    HW193573  14.288   6.461   7.242
97247SOL    HW293574  14.399   6.563   7.232
97248SOL     OW93575   9.081   5.126   7.015
97248SOL    HW193576   9.057   5.067   7.086
97248SOL    HW293577   9.079   5.071   6.936
97249SOL     OW93578   3.615   7.314   9.750
97249SOL    HW193579   3.661   7.359   9.679
97249SOL    HW293580   3.538   7.275   9.708
97250SOL     OW93581   6.340   0.528  11.314
97250SOL    HW193582   6.409   0.535  11.379
97250SOL    HW293583   6.387   0.520  11.230
97251SOL     OW93584  10.359  10.634   9.534
97251SOL    HW193585  10.437  10.652   9.586
97251SOL    HW293586  10.354  10.538   9.531
97252SOL     OW93587   1.189   9.404   0.091
97252SOL    HW193588   1.124   9.461   0.050
97252SOL    HW293589   1.268   9.416   0.038
97253SOL     OW93590  10.400   7.629  10.904
97253SOL    HW193591  10.427   7.717  10.931
97253SOL    HW293592  10.304   7.629  10.915
97254SOL     OW93593   7.324   2.374   6.213
97254SOL    HW193594   7.283   2.320   6.281
97254SOL    HW293595   7.281   2.459   6.220
97255SOL     OW93596   8.369   1.117   4.129
97255SOL    HW193597   8.303   1.068   4.080
97255SOL    HW293598   8.357   1.208   4.101
97256SOL     OW93599   3.330   6.666   5.545
97256SOL    HW193600   3.408   6.701   5.588
97256SOL    HW293601   3.360   6.643   5.457
97257SOL     OW93602  12.370   9.701   0.107
97257SOL    HW193603  12.355   9.609   0.088
97257SOL    HW293604  12.320   9.748   0.041
97258SOL     OW93605  10.969   2.116   6.358
97258SOL    HW193606  10.938   2.117   6.449
97258SOL    HW293607  10.898   2.156   6.308
97259SOL     OW93608   8.645  10.452  11.403
97259SOL    HW193609   8.574  10.508  11.436
97259SOL    HW293610   8.715  10.512  11.380
97260SOL     OW93611   7.785   0.334   7.155
97260SOL    HW193612   7.709   0.277   7.168
97260SOL    HW293613   7.777   0.401   7.223
97261SOL     OW93614  11.014   4.364   0.250
97261SOL    HW193615  10.985   4.375   0.340
97261SOL    HW293616  10.939   4.391   0.197
97262SOL     OW93617  11.063  13.332  12.542
97262SOL    HW193618  11.019  13.281  12.610
97262SOL    HW293619  11.136  13.276  12.515
97263SOL     OW93620   1.438   1.533   1.937
97263SOL    HW193621   1.520   1.503   1.899
97263SOL    HW293622   1.384   1.559   1.863
97264SOL     OW93623   1.559  12.638   1.652
97264SOL    HW193624   1.575  12.558   1.601
97264SOL    HW293625   1.613  12.628   1.730
97265SOL     OW93626   3.413  10.636  13.754
97265SOL    HW193627   3.416  10.721  13.798
97265SOL    HW293628   3.484  10.639  13.691
97266SOL     OW93629   6.137   8.304  13.804
97266SOL    HW193630   6.125   8.227  13.750
97266SOL    HW293631   6.060   8.306  13.861
97267SOL     OW93632  14.852   1.563   0.282
97267SOL    HW193633  14.839   1.502   0.209
97267SOL    HW293634  14.828   1.648   0.247
97268SOL     OW93635   2.090   5.998   3.691
97268SOL    HW193636   2.008   5.980   3.645
97268SOL    HW293637   2.067   5.993   3.783
97269SOL     OW93638   1.617   5.475   0.994
97269SOL    HW193639   1.655   5.388   1.006
97269SOL    HW293640   1.673   5.533   1.045
97270SOL     OW93641   7.340   6.177   7.054
97270SOL    HW193642   7.404   6.219   7.111
97270SOL    HW293643   7.276   6.245   7.035
97271SOL     OW93644   5.292  13.777   2.266
97271SOL    HW193645   5.285  13.791   2.171
97271SOL    HW293646   5.280  13.864   2.304
97272SOL     OW93647   8.977  12.564  12.101
97272SOL    HW193648   8.974  12.516  12.018
97272SOL    HW293649   8.929  12.645  12.084
97273SOL     OW93650  12.876  14.201   9.855
97273SOL    HW193651  12.926  14.182   9.935
97273SOL    HW293652  12.905  14.134   9.793
97274SOL     OW93653  13.038   5.450   5.999
97274SOL    HW193654  13.066   5.476   5.911
97274SOL    HW293655  12.953   5.407   5.986
97275SOL     OW93656   9.911   9.147   0.325
97275SOL    HW193657   9.960   9.097   0.391
97275SOL    HW293658   9.825   9.107   0.324
97276SOL     OW93659  10.709   5.164   9.449
97276SOL    HW193660  10.699   5.153   9.355
97276SOL    HW293661  10.664   5.089   9.487
97277SOL     OW93662   7.867   0.757  12.204
97277SOL    HW193663   7.939   0.815  12.226
97277SOL    HW293664   7.802   0.813  12.162
97278SOL     OW93665   6.568  14.013   0.121
97278SOL    HW193666   6.604  13.937   0.075
97278SOL    HW293667   6.642  14.073   0.129
97279SOL     OW93668  11.961   4.078   9.814
97279SOL    HW193669  11.942   4.163   9.774
97279SOL    HW293670  11.997   4.100   9.900
97280SOL     OW93671   5.664   8.826  12.519
97280SOL    HW193672   5.577   8.851  12.488
97280SOL    HW293673   5.672   8.733  12.497
97281SOL     OW93674   9.358   5.237   1.725
97281SOL    HW193675   9.319   5.270   1.645
97281SOL    HW293676   9.418   5.306   1.754
97282SOL     OW93677  10.088  13.520  13.418
97282SOL    HW193678  10.171  13.473  13.426
97282SOL    HW293679  10.084  13.544  13.325
97283SOL     OW93680  11.642   9.920   1.357
97283SOL    HW193681  11.708   9.965   1.304
97283SOL    HW293682  11.647   9.829   1.329
97284SOL     OW93683   9.242   7.401  13.060
97284SOL    HW193684   9.261   7.418  12.968
97284SOL    HW293685   9.326   7.371  13.096
97285SOL     OW93686   8.182  10.117  12.724
97285SOL    HW193687   8.227  10.047  12.771
97285SOL    HW293688   8.210  10.106  12.633
97286SOL     OW93689  14.652   6.262  14.716
97286SOL    HW193690  14.564   6.259  14.679
97286SOL    HW293691  14.704   6.310  14.651
97287SOL     OW93692   6.471   1.958   0.086
97287SOL    HW193693   6.443   1.912   0.007
97287SOL    HW293694   6.424   2.041   0.083
97288SOL     OW93695   3.130   4.537   8.150
97288SOL    HW193696   3.181   4.471   8.102
97288SOL    HW293697   3.161   4.621   8.115
97289SOL     OW93698   9.730  11.474   9.017
97289SOL    HW193699   9.794  11.409   8.988
97289SOL    HW293700   9.679  11.495   8.938
97290SOL     OW93701   4.060   6.925   3.858
97290SOL    HW193702   4.015   6.844   3.835
97290SOL    HW293703   4.135   6.896   3.910
97291SOL     OW93704   4.715  11.417   8.561
97291SOL    HW193705   4.714  11.501   8.606
97291SOL    HW293706   4.627  11.383   8.572
97292SOL     OW93707   2.340   3.312   5.610
97292SOL    HW193708   2.287   3.276   5.681
97292SOL    HW293709   2.411   3.358   5.654
97293SOL     OW93710   8.361   0.219  12.173
97293SOL    HW193711   8.302   0.283  12.133
97293SOL    HW293712   8.439   0.221  12.119
97294SOL     OW93713  11.489  12.401   4.523
97294SOL    HW193714  11.408  12.405   4.574
97294SOL    HW293715  11.480  12.471   4.459
97295SOL     OW93716   5.056  11.550  13.410
97295SOL    HW193717   5.082  11.458  13.399
97295SOL    HW293718   4.991  11.548  13.480
97296SOL     OW93719   0.660   2.722   9.545
97296SOL    HW193720   0.680   2.678   9.628
97296SOL    HW293721   0.721   2.682   9.482
97297SOL     OW93722   3.974  12.552   0.598
97297SOL    HW193723   3.939  12.613   0.533
97297SOL    HW293724   3.904  12.488   0.612
97298SOL     OW93725   0.265  10.577   5.697
97298SOL    HW193726   0.261  10.482   5.688
97298SOL    HW293727   0.339  10.603   5.642
97299SOL     OW93728   9.988   4.407   9.203
97299SOL    HW193729  10.029   4.330   9.163
97299SOL    HW293730  10.061   4.453   9.246
97300SOL     OW93731  14.282   2.494   6.766
97300SOL    HW193732  14.284   2.584   6.799
97300SOL    HW293733  14.374   2.473   6.750
97301SOL     OW93734  11.623   3.836   7.314
97301SOL    HW193735  11.716   3.854   7.300
97301SOL    HW293736  11.606   3.864   7.403
97302SOL     OW93737  10.989  10.226   3.166
97302SOL    HW193738  11.011  10.168   3.093
97302SOL    HW293739  11.011  10.313   3.135
97303SOL     OW93740   0.401   4.943  11.032
97303SOL    HW193741   0.456   4.959  11.109
97303SOL    HW293742   0.448   4.984  10.960
97304SOL     OW93743  13.673  10.852  13.979
97304SOL    HW193744  13.672  10.786  13.910
97304SOL    HW293745  13.638  10.807  14.056
97305SOL     OW93746  14.847  13.332  12.987
97305SOL    HW193747  14.829  13.394  13.058
97305SOL    HW293748   0.002  13.253  13.032
97306SOL     OW93749   3.078  14.041   1.301
97306SOL    HW193750   3.069  13.950   1.330
97306SOL    HW293751   3.156  14.041   1.246
97307SOL     OW93752   3.125  12.581   7.299
97307SOL    HW193753   3.146  12.562   7.208
97307SOL    HW293754   3.077  12.664   7.296
97308SOL     OW93755   9.341   7.727  14.779
97308SOL    HW193756   9.344   7.703  14.872
97308SOL    HW293757   9.426   7.768  14.762
97309SOL     OW93758   4.985   4.855   1.985
97309SOL    HW193759   4.900   4.873   1.946
97309SOL    HW293760   5.047   4.869   1.914
97310SOL     OW93761   0.553  14.629   1.998
97310SOL    HW193762   0.592  14.572   1.931
97310SOL    HW293763   0.469  14.588   2.018
97311SOL     OW93764   5.462   1.685  12.871
97311SOL    HW193765   5.503   1.687  12.958
97311SOL    HW293766   5.371   1.711  12.887
97312SOL     OW93767  14.427   7.541   9.999
97312SOL    HW193768  14.399   7.454  10.028
97312SOL    HW293769  14.460   7.584  10.078
97313SOL     OW93770  10.657   0.453  11.576
97313SOL    HW193771  10.711   0.432  11.499
97313SOL    HW293772  10.613   0.371  11.597
97314SOL     OW93773  12.292  12.398   4.337
97314SOL    HW193774  12.348  12.320   4.345
97314SOL    HW293775  12.240  12.383   4.258
97315SOL     OW93776  14.718   0.390   6.816
97315SOL    HW193777  14.653   0.390   6.746
97315SOL    HW293778  14.691   0.318   6.873
97316SOL     OW93779  14.489   3.205   5.853
97316SOL    HW193780  14.526   3.119   5.830
97316SOL    HW293781  14.487   3.253   5.770
97317SOL     OW93782  14.533   0.705   5.283
97317SOL    HW193783  14.519   0.800   5.285
97317SOL    HW293784  14.544   0.685   5.190
97318SOL     OW93785  13.825   9.312  11.976
97318SOL    HW193786  13.826   9.238  12.037
97318SOL    HW293787  13.817   9.389  12.032
97319SOL     OW93788   7.571  14.425   3.485
97319SOL    HW193789   7.529  14.370   3.551
97319SOL    HW293790   7.533  14.398   3.402
97320SOL     OW93791   0.172   2.395   5.010
97320SOL    HW193792   0.102   2.452   5.042
97320SOL    HW293793   0.203   2.438   4.930
97321SOL     OW93794   1.866   6.222   0.261
97321SOL    HW193795   1.873   6.317   0.252
97321SOL    HW293796   1.883   6.206   0.353
97322SOL     OW93797  14.722   0.297   3.986
97322SOL    HW193798  14.676   0.307   3.902
97322SOL    HW293799  14.658   0.322   4.052
97323SOL     OW93800  14.834   4.648   2.992
97323SOL    HW193801  14.785   4.721   3.031
97323SOL    HW293802   0.007   4.687   2.920
97324SOL     OW93803  12.149   3.436  14.559
97324SOL    HW193804  12.065   3.410  14.521
97324SOL    HW293805  12.156   3.383  14.639
97325SOL     OW93806   1.503  12.495  13.727
97325SOL    HW193807   1.556  12.495  13.647
97325SOL    HW293808   1.462  12.581  13.729
97326SOL     OW93809  11.205   3.716   9.310
97326SOL    HW193810  11.294   3.736   9.339
97326SOL    HW293811  11.214   3.633   9.263
97327SOL     OW93812   9.562   0.883   2.526
97327SOL    HW193813   9.585   0.947   2.594
97327SOL    HW293814   9.483   0.918   2.486
97328SOL     OW93815   3.425   6.673  12.180
97328SOL    HW193816   3.388   6.742  12.235
97328SOL    HW293817   3.510   6.706  12.153
97329SOL     OW93818   4.974   0.330   9.386
97329SOL    HW193819   4.978   0.425   9.402
97329SOL    HW293820   5.062   0.299   9.407
97330SOL     OW93821  13.298  10.713  13.195
97330SOL    HW193822  13.230  10.674  13.141
97330SOL    HW293823  13.271  10.694  13.285
97331SOL     OW93824   6.752   1.155   6.745
97331SOL    HW193825   6.669   1.201   6.739
97331SOL    HW293826   6.730   1.070   6.784
97332SOL     OW93827  13.666  14.428   1.784
97332SOL    HW193828  13.728  14.483   1.831
97332SOL    HW293829  13.719  14.375   1.724
97333SOL     OW93830   3.225   6.322   5.622
97333SOL    HW193831   3.154   6.372   5.582
97333SOL    HW293832   3.286   6.305   5.550
97334SOL     OW93833   5.924  14.294  10.352
97334SOL    HW193834   5.926  14.201  10.374
97334SOL    HW293835   6.014  14.315  10.325
97335SOL     OW93836   9.172   7.241   4.976
97335SOL    HW193837   9.160   7.146   4.987
97335SOL    HW293838   9.093   7.280   5.013
97336SOL     OW93839   8.022   1.850   6.023
97336SOL    HW193840   7.952   1.786   6.040
97336SOL    HW293841   8.093   1.798   5.986
97337SOL     OW93842  12.073  13.512   7.785
97337SOL    HW193843  12.002  13.475   7.733
97337SOL    HW293844  12.052  13.490   7.875
97338SOL     OW93845   8.458  14.732   4.597
97338SOL    HW193846   8.480  14.682   4.675
97338SOL    HW293847   8.519  14.701   4.530
97339SOL     OW93848  13.988  10.141   0.430
97339SOL    HW193849  14.042  10.181   0.362
97339SOL    HW293850  13.977  10.211   0.495
97340SOL     OW93851  10.751   3.023  10.307
97340SOL    HW193852  10.714   2.955  10.251
97340SOL    HW293853  10.754   2.983  10.394
97341SOL     OW93854   3.758   9.054   8.409
97341SOL    HW193855   3.703   8.978   8.390
97341SOL    HW293856   3.738   9.116   8.339
97342SOL     OW93857  12.541   9.350   6.903
97342SOL    HW193858  12.583   9.436   6.894
97342SOL    HW293859  12.612   9.287   6.890
97343SOL     OW93860   8.359   8.709  12.355
97343SOL    HW193861   8.358   8.783  12.294
97343SOL    HW293862   8.411   8.642  12.310
97344SOL     OW93863   0.689   7.889   1.904
97344SOL    HW193864   0.616   7.893   1.966
97344SOL    HW293865   0.687   7.973   1.859
97345SOL     OW93866   0.334   3.727   5.924
97345SOL    HW193867   0.369   3.787   5.858
97345SOL    HW293868   0.259   3.774   5.961
97346SOL     OW93869   1.547  14.775  10.940
97346SOL    HW193870   1.458  14.742  10.930
97346SOL    HW293871   1.601  14.714  10.891
97347SOL     OW93872   7.449   8.779   1.059
97347SOL    HW193873   7.394   8.715   1.014
97347SOL    HW293874   7.391   8.854   1.073
97348SOL     OW93875  12.499   8.490  14.173
97348SOL    HW193876  12.546   8.499  14.256
97348SOL    HW293877  12.557   8.437  14.118
97349SOL     OW93878   1.844   5.186  11.574
97349SOL    HW193879   1.767   5.229  11.538
97349SOL    HW293880   1.918   5.226  11.527
97350SOL     OW93881   9.775   4.930   0.546
97350SOL    HW193882   9.729   4.976   0.476
97350SOL    HW293883   9.814   5.000   0.599
97351SOL     OW93884  12.954   7.324   1.323
97351SOL    HW193885  12.889   7.386   1.356
97351SOL    HW293886  12.967   7.262   1.394
97352SOL     OW93887  12.054   3.212   8.923
97352SOL    HW193888  12.002   3.287   8.951
97352SOL    HW293889  12.002   3.136   8.949
97353SOL     OW93890   2.434   8.563   0.603
97353SOL    HW193891   2.342   8.539   0.610
97353SOL    HW293892   2.451   8.615   0.681
97354SOL     OW93893   6.651  12.232   3.563
97354SOL    HW193894   6.632  12.319   3.528
97354SOL    HW293895   6.700  12.188   3.493
97355SOL     OW93896  14.018   7.211  14.034
97355SOL    HW193897  14.106   7.178  14.052
97355SOL    HW293898  13.973   7.139  13.991
97356SOL     OW93899   0.009   7.118   1.823
97356SOL    HW193900   0.042   7.036   1.860
97356SOL    HW293901  14.841   7.161   1.896
97357SOL     OW93902   3.344   5.826   3.629
97357SOL    HW193903   3.289   5.768   3.576
97357SOL    HW293904   3.424   5.837   3.577
97358SOL     OW93905  12.084   7.545   9.627
97358SOL    HW193906  11.997   7.548   9.667
97358SOL    HW293907  12.072   7.584   9.540
97359SOL     OW93908  10.321  13.456   8.623
97359SOL    HW193909  10.371  13.444   8.704
97359SOL    HW293910  10.363  13.531   8.580
97360SOL     OW93911  11.845   7.641  12.566
97360SOL    HW193912  11.903   7.570  12.593
97360SOL    HW293913  11.902   7.703  12.520
97361SOL     OW93914   8.992   4.765   9.714
97361SOL    HW193915   9.078   4.745   9.678
97361SOL    HW293916   8.956   4.680   9.739
97362SOL     OW93917   5.693  13.350   2.493
97362SOL    HW193918   5.671  13.376   2.403
97362SOL    HW293919   5.788  13.353   2.496
97363SOL     OW93920   9.502   8.242  11.765
97363SOL    HW193921   9.560   8.231  11.690
97363SOL    HW293922   9.466   8.330  11.755
97364SOL     OW93923   2.749   3.368  11.699
97364SOL    HW193924   2.669   3.415  11.723
97364SOL    HW293925   2.775   3.406  11.615
97365SOL     OW93926   7.278   1.628   2.570
97365SOL    HW193927   7.331   1.605   2.646
97365SOL    HW293928   7.312   1.712   2.540
97366SOL     OW93929  10.005  12.051  12.830
97366SOL    HW193930  10.022  12.075  12.921
97366SOL    HW293931   9.974  12.132  12.790
97367SOL     OW93932   7.170   3.279   2.090
97367SOL    HW193933   7.136   3.304   2.176
97367SOL    HW293934   7.103   3.308   2.028
97368SOL     OW93935   3.300  12.937   3.407
97368SOL    HW193936   3.263  12.867   3.460
97368SOL    HW293937   3.239  13.010   3.417
97369SOL     OW93938   4.326  10.079   0.367
97369SOL    HW193939   4.351  10.046   0.453
97369SOL    HW293940   4.374  10.161   0.357
97370SOL     OW93941   6.580   3.245   7.388
97370SOL    HW193942   6.589   3.313   7.455
97370SOL    HW293943   6.490   3.252   7.359
97371SOL     OW93944   5.167   9.268   6.967
97371SOL    HW193945   5.238   9.205   6.976
97371SOL    HW293946   5.164   9.287   6.873
97372SOL     OW93947   4.034  13.321  12.175
97372SOL    HW193948   3.974  13.282  12.112
97372SOL    HW293949   4.110  13.262  12.175
97373SOL     OW93950   7.331   3.989   7.532
97373SOL    HW193951   7.323   3.909   7.479
97373SOL    HW293952   7.320   4.060   7.469
97374SOL     OW93953   6.215   7.726   0.147
97374SOL    HW193954   6.125   7.712   0.176
97374SOL    HW293955   6.259   7.643   0.167
97375SOL     OW93956   1.174  10.366  12.425
97375SOL    HW193957   1.108  10.296  12.418
97375SOL    HW293958   1.257  10.321  12.412
97376SOL     OW93959   4.070  10.750   2.102
97376SOL    HW193960   4.147  10.779   2.054
97376SOL    HW293961   4.104  10.713   2.183
97377SOL     OW93962   2.229   6.737   1.909
97377SOL    HW193963   2.262   6.768   1.993
97377SOL    HW293964   2.134   6.736   1.919
97378SOL     OW93965  12.339   2.374  14.426
97378SOL    HW193966  12.356   2.417  14.510
97378SOL    HW293967  12.424   2.341  14.398
97379SOL     OW93968   1.411   0.261   8.648
97379SOL    HW193969   1.450   0.348   8.634
97379SOL    HW293970   1.472   0.201   8.605
97380SOL     OW93971   9.719   8.831  10.368
97380SOL    HW193972   9.726   8.922  10.397
97380SOL    HW293973   9.776   8.782  10.427
97381SOL     OW93974   1.546   7.104  13.156
97381SOL    HW193975   1.489   7.106  13.079
97381SOL    HW293976   1.620   7.050  13.128
97382SOL     OW93977   0.954  14.092  13.167
97382SOL    HW193978   0.887  14.026  13.149
97382SOL    HW293979   1.031  14.062  13.119
97383SOL     OW93980   5.896  14.084   1.113
97383SOL    HW193981   5.940  14.057   1.033
97383SOL    HW293982   5.949  14.046   1.184
97384SOL     OW93983  13.891   9.276   0.139
97384SOL    HW193984  13.914   9.335   0.068
97384SOL    HW293985  13.872   9.334   0.213
97385SOL     OW93986   1.136  14.734   2.443
97385SOL    HW193987   1.231  14.737   2.446
97385SOL    HW293988   1.108  14.775   2.526
97386SOL     OW93989  10.074  12.886  13.276
97386SOL    HW193990  10.134  12.875  13.349
97386SOL    HW293991  10.127  12.928  13.208
97387SOL     OW93992  12.692   5.387   7.708
97387SOL    HW193993  12.685   5.341   7.792
97387SOL    HW293994  12.774   5.356   7.671
97388SOL     OW93995   6.063  13.400   5.394
97388SOL    HW193996   6.151  13.374   5.420
97388SOL    HW293997   6.075  13.448   5.312
97389SOL     OW93998  10.961   6.006   1.541
97389SOL    HW193999  10.965   6.100   1.523
97389SOL    HW294000  11.040   5.971   1.499
97390SOL     OW94001   4.702   1.776   1.354
97390SOL    HW194002   4.771   1.712   1.339
97390SOL    HW294003   4.621   1.730   1.332
97391SOL     OW94004   5.368  12.502   3.444
97391SOL    HW194005   5.393  12.409   3.444
97391SOL    HW294006   5.333  12.517   3.356
97392SOL     OW94007   7.932   0.227  11.814
97392SOL    HW194008   8.027   0.237  11.811
97392SOL    HW294009   7.898   0.293  11.753
97393SOL     OW94010   8.762   4.890  14.327
97393SOL    HW194011   8.760   4.983  14.304
97393SOL    HW294012   8.676   4.874  14.366
97394SOL     OW94013   7.481   3.437  14.156
97394SOL    HW194014   7.502   3.476  14.241
97394SOL    HW294015   7.401   3.386  14.173
97395SOL     OW94016  11.514  11.029  13.111
97395SOL    HW194017  11.435  11.021  13.165
97395SOL    HW294018  11.529  11.124  13.105
97396SOL     OW94019  13.973   1.324  12.480
97396SOL    HW194020  14.056   1.342  12.438
97396SOL    HW294021  13.992   1.254  12.543
97397SOL     OW94022   9.936  12.831   0.532
97397SOL    HW194023   9.879  12.843   0.609
97397SOL    HW294024   9.991  12.909   0.530
97398SOL     OW94025  11.568   2.490  14.628
97398SOL    HW194026  11.637   2.556  14.632
97398SOL    HW294027  11.614   2.407  14.643
97399SOL     OW94028  11.040   7.184   5.513
97399SOL    HW194029  11.034   7.109   5.454
97399SOL    HW294030  11.094   7.154   5.586
97400SOL     OW94031   5.013   3.071  13.162
97400SOL    HW194032   4.986   3.060  13.253
97400SOL    HW294033   5.101   3.032  13.158
97401SOL     OW94034   7.344   4.505   0.967
97401SOL    HW194035   7.365   4.592   0.932
97401SOL    HW294036   7.297   4.522   1.049
97402SOL     OW94037  10.952   2.066  12.686
97402SOL    HW194038  10.990   2.144  12.726
97402SOL    HW294039  11.024   2.002  12.686
97403SOL     OW94040   7.846   1.604   8.028
97403SOL    HW194041   7.892   1.528   8.063
97403SOL    HW294042   7.754   1.578   8.027
97404SOL     OW94043  11.336  13.932   7.933
97404SOL    HW194044  11.356  13.971   8.018
97404SOL    HW294045  11.418  13.936   7.884
97405SOL     OW94046  12.096  13.409   8.064
97405SOL    HW194047  12.041  13.486   8.080
97405SOL    HW294048  12.176  13.427   8.115
97406SOL     OW94049   0.383   6.276  13.351
97406SOL    HW194050   0.352   6.309  13.436
97406SOL    HW294051   0.340   6.191  13.341
97407SOL     OW94052   2.514   5.151  10.485
97407SOL    HW194053   2.474   5.237  10.471
97407SOL    HW294054   2.442   5.089  10.476
97408SOL     OW94055   4.448   3.639   4.737
97408SOL    HW194056   4.428   3.595   4.819
97408SOL    HW294057   4.474   3.569   4.677
97409SOL     OW94058  12.327   8.907   7.791
97409SOL    HW194059  12.313   8.821   7.830
97409SOL    HW294060  12.344   8.889   7.698
97410SOL     OW94061   7.682   8.000   9.614
97410SOL    HW194062   7.590   7.984   9.633
97410SOL    HW294063   7.708   7.927   9.558
97411SOL     OW94064   9.594   4.348   0.817
97411SOL    HW194065   9.531   4.381   0.752
97411SOL    HW294066   9.551   4.364   0.901
97412SOL     OW94067   3.360   9.039   3.028
97412SOL    HW194068   3.311   9.079   2.957
97412SOL    HW294069   3.422   9.107   3.056
97413SOL     OW94070   9.631  10.190   6.158
97413SOL    HW194071   9.546  10.199   6.201
97413SOL    HW294072   9.671  10.276   6.167
97414SOL     OW94073  10.187   0.049   2.056
97414SOL    HW194074  10.270   0.016   2.090
97414SOL    HW294075  10.180   0.011   1.968
97415SOL     OW94076   1.171  14.082   1.201
97415SOL    HW194077   1.165  14.100   1.295
97415SOL    HW294078   1.245  14.135   1.172
97416SOL     OW94079   4.016   9.678   1.146
97416SOL    HW194080   4.006   9.696   1.053
97416SOL    HW294081   3.937   9.713   1.187
97417SOL     OW94082   0.674   0.715   0.759
97417SOL    HW194083   0.754   0.719   0.811
97417SOL    HW294084   0.680   0.789   0.699
97418SOL     OW94085  12.096   5.406  11.378
97418SOL    HW194086  12.177   5.369  11.343
97418SOL    HW294087  12.032   5.396  11.307
97419SOL     OW94088   5.365   0.527  13.774
97419SOL    HW194089   5.300   0.592  13.800
97419SOL    HW294090   5.432   0.578  13.728
97420SOL     OW94091   9.892   3.030   5.184
97420SOL    HW194092   9.814   2.975   5.177
97420SOL    HW294093   9.859   3.120   5.177
97421SOL     OW94094   4.155   5.986  11.085
97421SOL    HW194095   4.114   6.023  11.163
97421SOL    HW294096   4.119   5.898  11.078
97422SOL     OW94097   9.764  13.312   3.670
97422SOL    HW194098   9.718  13.381   3.621
97422SOL    HW294099   9.837  13.286   3.614
97423SOL     OW94100  13.751   1.655   6.166
97423SOL    HW194101  13.805   1.608   6.102
97423SOL    HW294102  13.711   1.726   6.116
97424SOL     OW94103   9.014  13.737  14.440
97424SOL    HW194104   9.054  13.743  14.353
97424SOL    HW294105   9.088  13.746  14.500
97425SOL     OW94106   4.018  13.852   6.621
97425SOL    HW194107   4.038  13.916   6.553
97425SOL    HW294108   4.097  13.798   6.628
97426SOL     OW94109   4.277   0.417   0.217
97426SOL    HW194110   4.337   0.442   0.146
97426SOL    HW294111   4.221   0.493   0.230
97427SOL     OW94112   5.314  12.768   9.715
97427SOL    HW194113   5.332  12.684   9.675
97427SOL    HW294114   5.219  12.768   9.730
97428SOL     OW94115   4.785  11.069  13.543
97428SOL    HW194116   4.749  10.998  13.489
97428SOL    HW294117   4.838  11.025  13.609
97429SOL     OW94118  13.564   8.662   1.837
97429SOL    HW194119  13.534   8.658   1.746
97429SOL    HW294120  13.510   8.730   1.878
97430SOL     OW94121   0.654  11.628   3.944
97430SOL    HW194122   0.706  11.613   3.866
97430SOL    HW294123   0.622  11.541   3.969
97431SOL     OW94124   8.123  14.460   5.288
97431SOL    HW194125   8.173  14.407   5.350
97431SOL    HW294126   8.042  14.480   5.334
97432SOL     OW94127  11.026   4.442  13.220
97432SOL    HW194128  11.119   4.417  13.214
97432SOL    HW294129  11.028   4.536  13.237
97433SOL     OW94130  14.756  13.812   0.577
97433SOL    HW194131  14.751  13.860   0.495
97433SOL    HW294132  14.795  13.728   0.554
97434SOL     OW94133   4.525   3.968  12.318
97434SOL    HW194134   4.495   3.960  12.228
97434SOL    HW294135   4.614   4.001  12.311
97435SOL     OW94136   2.505   3.269   0.274
97435SOL    HW194137   2.481   3.177   0.262
97435SOL    HW294138   2.421   3.314   0.283
97436SOL     OW94139   6.449  14.828   3.221
97436SOL    HW194140   6.417   0.035   3.187
97436SOL    HW294141   6.374  14.768   3.213
97437SOL     OW94142   6.171   1.463   8.998
97437SOL    HW194143   6.213   1.512   9.069
97437SOL    HW294144   6.163   1.373   9.032
97438SOL     OW94145   1.110   8.502  10.176
97438SOL    HW194146   1.072   8.427  10.222
97438SOL    HW294147   1.194   8.516  10.219
97439SOL     OW94148   5.498   7.271   4.833
97439SOL    HW194149   5.490   7.248   4.926
97439SOL    HW294150   5.592   7.274   4.817
97440SOL     OW94151   0.489   8.883   7.434
97440SOL    HW194152   0.523   8.843   7.514
97440SOL    HW294153   0.423   8.820   7.402
97441SOL     OW94154   9.723  12.140  10.139
97441SOL    HW194155   9.628  12.153  10.137
97441SOL    HW294156   9.753  12.170  10.053
97442SOL     OW94157   8.365  13.696  12.510
97442SOL    HW194158   8.349  13.762  12.578
97442SOL    HW294159   8.340  13.739  12.428
97443SOL     OW94160   5.805  10.425  12.089
97443SOL    HW194161   5.727  10.369  12.093
97443SOL    HW294162   5.842  10.421  12.177
97444SOL     OW94163   6.558   6.192  13.287
97444SOL    HW194164   6.571   6.141  13.207
97444SOL    HW294165   6.495   6.141  13.338
97445SOL     OW94166   1.631   7.544   9.636
97445SOL    HW194167   1.638   7.521   9.728
97445SOL    HW294168   1.717   7.581   9.614
97446SOL     OW94169   2.965   0.199   9.811
97446SOL    HW194170   3.011   0.252   9.747
97446SOL    HW294171   2.938   0.121   9.763
97447SOL     OW94172   0.737   2.946  13.099
97447SOL    HW194173   0.811   2.954  13.160
97447SOL    HW294174   0.667   2.997  13.140
97448SOL     OW94175  13.433   3.861  12.998
97448SOL    HW194176  13.384   3.944  12.994
97448SOL    HW294177  13.434   3.830  12.907
97449SOL     OW94178   5.702  13.782  11.944
97449SOL    HW194179   5.703  13.876  11.966
97449SOL    HW294180   5.707  13.738  12.029
97450SOL     OW94181   4.225  11.568   5.721
97450SOL    HW194182   4.272  11.614   5.791
97450SOL    HW294183   4.145  11.619   5.708
97451SOL     OW94184  14.655  12.440  11.748
97451SOL    HW194185  14.611  12.395  11.675
97451SOL    HW294186  14.739  12.395  11.756
97452SOL     OW94187   2.626   8.174   3.093
97452SOL    HW194188   2.561   8.125   3.044
97452SOL    HW294189   2.577   8.246   3.134
97453SOL     OW94190   0.622   1.399  12.237
97453SOL    HW194191   0.716   1.390  12.228
97453SOL    HW294192   0.607   1.413  12.330
97454SOL     OW94193   8.512  11.990   5.464
97454SOL    HW194194   8.481  12.073   5.428
97454SOL    HW294195   8.574  11.957   5.398
97455SOL     OW94196  10.705   7.529   6.787
97455SOL    HW194197  10.758   7.594   6.832
97455SOL    HW294198  10.744   7.522   6.700
97456SOL     OW94199  10.390   0.494   2.131
97456SOL    HW194200  10.296   0.481   2.115
97456SOL    HW294201  10.397   0.506   2.225
97457SOL     OW94202  11.453   0.689  14.177
97457SOL    HW194203  11.364   0.711  14.205
97457SOL    HW294204  11.470   0.603  14.216
97458SOL     OW94205   8.299  10.938   4.514
97458SOL    HW194206   8.263  10.970   4.431
97458SOL    HW294207   8.233  10.961   4.580
97459SOL     OW94208   8.896   8.182  14.445
97459SOL    HW194209   8.988   8.210  14.450
97459SOL    HW294210   8.850   8.239  14.506
97460SOL     OW94211   8.391   2.742  11.040
97460SOL    HW194212   8.297   2.727  11.054
97460SOL    HW294213   8.428   2.655  11.027
97461SOL     OW94214   3.844   6.390   9.589
97461SOL    HW194215   3.775   6.347   9.539
97461SOL    HW294216   3.876   6.323   9.649
97462SOL     OW94217  11.654   6.556   1.488
97462SOL    HW194218  11.591   6.595   1.549
97462SOL    HW294219  11.646   6.461   1.503
97463SOL     OW94220   9.028   8.679   3.540
97463SOL    HW194221   9.093   8.748   3.531
97463SOL    HW294222   9.066   8.617   3.602
97464SOL     OW94223   5.681   5.106   0.639
97464SOL    HW194224   5.758   5.063   0.677
97464SOL    HW294225   5.624   5.034   0.611
97465SOL     OW94226   3.298   0.145   0.455
97465SOL    HW194227   3.220   0.112   0.501
97465SOL    HW294228   3.327   0.220   0.506
97466SOL     OW94229  11.597   9.824   6.046
97466SOL    HW194230  11.540   9.853   5.974
97466SOL    HW294231  11.596   9.897   6.108
97467SOL     OW94232  14.261   6.319  14.253
97467SOL    HW194233  14.338   6.362  14.216
97467SOL    HW294234  14.229   6.381  14.319
97468SOL     OW94235   3.346   8.471  14.195
97468SOL    HW194236   3.259   8.440  14.220
97468SOL    HW294237   3.405   8.399  14.221
97469SOL     OW94238   1.962   0.765   8.807
97469SOL    HW194239   1.920   0.737   8.726
97469SOL    HW294240   1.898   0.742   8.876
97470SOL     OW94241   2.562   2.392   4.367
97470SOL    HW194242   2.619   2.430   4.434
97470SOL    HW294243   2.488   2.453   4.362
97471SOL     OW94244  13.625   9.817  13.776
97471SOL    HW194245  13.540   9.843  13.811
97471SOL    HW294246  13.609   9.798  13.684
97472SOL     OW94247   1.961   8.422   4.262
97472SOL    HW194248   1.897   8.351   4.254
97472SOL    HW294249   1.913   8.501   4.239
97473SOL     OW94250   9.751   9.347  13.542
97473SOL    HW194251   9.686   9.370  13.475
97473SOL    HW294252   9.742   9.416  13.608
97474SOL     OW94253  12.970   4.147   7.436
97474SOL    HW194254  12.886   4.160   7.391
97474SOL    HW294255  12.949   4.087   7.508
97475SOL     OW94256   1.642   5.436  10.531
97475SOL    HW194257   1.675   5.475  10.449
97475SOL    HW294258   1.611   5.350  10.505
97476SOL     OW94259   4.239   4.431   7.991
97476SOL    HW194260   4.291   4.495   7.943
97476SOL    HW294261   4.303   4.384   8.044
97477SOL     OW94262  13.595   4.718   6.046
97477SOL    HW194263  13.593   4.669   6.128
97477SOL    HW294264  13.503   4.736   6.027
97478SOL     OW94265   3.066   3.075   2.267
97478SOL    HW194266   3.000   3.007   2.283
97478SOL    HW294267   3.148   3.037   2.296
97479SOL     OW94268   3.196   4.669  10.207
97479SOL    HW194269   3.258   4.598  10.225
97479SOL    HW294270   3.121   4.625  10.167
97480SOL     OW94271   4.735   5.231   4.758
97480SOL    HW194272   4.676   5.265   4.825
97480SOL    HW294273   4.780   5.308   4.724
97481SOL     OW94274   3.983   4.798  13.562
97481SOL    HW194275   4.044   4.788  13.636
97481SOL    HW294276   3.973   4.709  13.527
97482SOL     OW94277  14.771  13.328   0.220
97482SOL    HW194278  14.854  13.366   0.191
97482SOL    HW294279  14.789  13.294   0.308
97483SOL     OW94280   7.925   3.177   4.813
97483SOL    HW194281   7.935   3.204   4.721
97483SOL    HW294282   7.988   3.231   4.860
97484SOL     OW94283   9.671   8.988   3.514
97484SOL    HW194284   9.708   8.917   3.567
97484SOL    HW294285   9.721   9.065   3.539
97485SOL     OW94286   4.824   6.212   3.343
97485SOL    HW194287   4.762   6.281   3.369
97485SOL    HW294288   4.769   6.145   3.303
97486SOL     OW94289  12.358   7.382   0.221
97486SOL    HW194290  12.344   7.308   0.280
97486SOL    HW294291  12.295   7.368   0.151
97487SOL     OW94292  12.904   7.656   6.077
97487SOL    HW194293  12.887   7.633   5.985
97487SOL    HW294294  12.846   7.730   6.094
97488SOL     OW94295   0.227  14.668   9.084
97488SOL    HW194296   0.263  14.707   9.004
97488SOL    HW294297   0.132  14.671   9.072
97489SOL     OW94298   6.529   5.578   9.561
97489SOL    HW194299   6.481   5.499   9.585
97489SOL    HW294300   6.505   5.642   9.628
97490SOL     OW94301   2.599   3.265  12.445
97490SOL    HW194302   2.556   3.180  12.448
97490SOL    HW294303   2.527   3.328  12.441
97491SOL     OW94304  10.142   7.897   7.599
97491SOL    HW194305  10.125   7.988   7.577
97491SOL    HW294306  10.157   7.854   7.515
97492SOL     OW94307   3.427   9.498   3.100
97492SOL    HW194308   3.344   9.534   3.070
97492SOL    HW294309   3.471   9.468   3.021
97493SOL     OW94310  13.221  13.317  10.199
97493SOL    HW194311  13.229  13.319  10.294
97493SOL    HW294312  13.196  13.226  10.179
97494SOL     OW94313   1.327   0.003   2.161
97494SOL    HW194314   1.264   0.067   2.195
97494SOL    HW294315   1.294  14.859   2.073
97495SOL     OW94316  14.131  12.387   5.387
97495SOL    HW194317  14.035  12.381   5.388
97495SOL    HW294318  14.159  12.346   5.469
97496SOL     OW94319  10.038  14.339   7.563
97496SOL    HW194320  10.100  14.385   7.620
97496SOL    HW294321   9.955  14.343   7.610
97497SOL     OW94322   5.199   9.928   1.818
97497SOL    HW194323   5.124   9.876   1.789
97497SOL    HW294324   5.176  10.018   1.797
97498SOL     OW94325  13.364   9.613  11.734
97498SOL    HW194326  13.428   9.682  11.716
97498SOL    HW294327  13.388   9.541  11.676
97499SOL     OW94328  11.105  11.340  13.799
97499SOL    HW194329  11.053  11.315  13.876
97499SOL    HW294330  11.151  11.260  13.774
97500SOL     OW94331  14.119   9.378  10.853
97500SOL    HW194332  14.186   9.365  10.920
97500SOL    HW294333  14.159   9.440  10.791
97501SOL     OW94334   8.517   9.323  13.699
97501SOL    HW194335   8.472   9.350  13.619
97501SOL    HW294336   8.602   9.289  13.669
97502SOL     OW94337  13.011   7.230   7.025
97502SOL    HW194338  12.931   7.213   6.975
97502SOL    HW294339  12.981   7.244   7.115
97503SOL     OW94340   7.652   6.627   1.056
97503SOL    HW194341   7.636   6.711   1.014
97503SOL    HW294342   7.713   6.647   1.127
97504SOL     OW94343   5.171  11.298  13.479
97504SOL    HW194344   5.150  11.208  13.452
97504SOL    HW294345   5.262  11.293  13.509
97505SOL     OW94346   6.072  10.728   5.320
97505SOL    HW194347   6.143  10.715   5.258
97505SOL    HW294348   5.996  10.688   5.279
97506SOL     OW94349  11.848   6.224   7.308
97506SOL    HW194350  11.851   6.140   7.263
97506SOL    HW294351  11.898   6.210   7.389
97507SOL     OW94352   8.578   4.333   8.985
97507SOL    HW194353   8.511   4.388   8.943
97507SOL    HW294354   8.626   4.393   9.042
97508SOL     OW94355  13.233   6.182   5.825
97508SOL    HW194356  13.140   6.167   5.809
97508SOL    HW294357  13.236   6.254   5.887
97509SOL     OW94358   6.400  12.272  14.434
97509SOL    HW194359   6.388  12.240  14.523
97509SOL    HW294360   6.359  12.205  14.379
97510SOL     OW94361   2.527   1.886   9.158
97510SOL    HW194362   2.563   1.826   9.223
97510SOL    HW294363   2.471   1.946   9.208
97511SOL     OW94364   3.046  14.759  12.206
97511SOL    HW194365   3.017  14.738  12.117
97511SOL    HW294366   2.967  14.792  12.249
97512SOL     OW94367   2.730   5.341   5.011
97512SOL    HW194368   2.655   5.339   4.951
97512SOL    HW294369   2.694   5.313   5.095
97513SOL     OW94370   6.899   2.921   0.222
97513SOL    HW194371   6.964   2.949   0.157
97513SOL    HW294372   6.873   3.001   0.266
97514SOL     OW94373  14.213   4.204  14.384
97514SOL    HW194374  14.265   4.208  14.465
97514SOL    HW294375  14.234   4.286  14.339
97515SOL     OW94376   1.896  13.525   6.767
97515SOL    HW194377   1.949  13.505   6.690
97515SOL    HW294378   1.806  13.510   6.739
97516SOL     OW94379   3.158   4.738   0.698
97516SOL    HW194380   3.238   4.790   0.702
97516SOL    HW294381   3.091   4.799   0.668
97517SOL     OW94382   1.078  14.092  10.707
97517SOL    HW194383   1.075  14.145  10.627
97517SOL    HW294384   0.988  14.063  10.720
97518SOL     OW94385   1.220  14.359   7.464
97518SOL    HW194386   1.187  14.367   7.554
97518SOL    HW294387   1.141  14.353   7.410
97519SOL     OW94388   9.281   4.717  10.317
97519SOL    HW194389   9.257   4.646  10.376
97519SOL    HW294390   9.312   4.672  10.238
97520SOL     OW94391   7.629   0.088   1.106
97520SOL    HW194392   7.577   0.143   1.048
97520SOL    HW294393   7.664   0.019   1.050
97521SOL     OW94394   4.065   8.237   9.926
97521SOL    HW194395   4.003   8.203   9.862
97521SOL    HW294396   4.143   8.183   9.915
97522SOL     OW94397   5.848   9.571   2.989
97522SOL    HW194398   5.909   9.534   3.052
97522SOL    HW294399   5.854   9.666   3.002
97523SOL     OW94400   1.087   6.811   4.166
97523SOL    HW194401   1.113   6.871   4.236
97523SOL    HW294402   1.124   6.726   4.191
97524SOL     OW94403   5.881  10.481  12.612
97524SOL    HW194404   5.862  10.574  12.626
97524SOL    HW294405   5.869  10.441  12.698
97525SOL     OW94406   7.706   1.390  12.935
97525SOL    HW194407   7.706   1.334  12.858
97525SOL    HW294408   7.757   1.342  13.000
97526SOL     OW94409   9.322   9.601   6.492
97526SOL    HW194410   9.402   9.653   6.486
97526SOL    HW294411   9.253   9.666   6.506
97527SOL     OW94412  13.474   7.337   6.862
97527SOL    HW194413  13.464   7.303   6.773
97527SOL    HW294414  13.390   7.379   6.882
97528SOL     OW94415   3.758  10.313   3.443
97528SOL    HW194416   3.686  10.249   3.433
97528SOL    HW294417   3.802  10.286   3.523
97529SOL     OW94418  13.129   0.429   6.026
97529SOL    HW194419  13.097   0.359   6.083
97529SOL    HW294420  13.082   0.507   6.056
97530SOL     OW94421  14.086   9.429  14.771
97530SOL    HW194422  14.118   9.423  14.681
97530SOL    HW294423  14.011   9.489  14.766
97531SOL     OW94424   8.857   6.814  11.746
97531SOL    HW194425   8.907   6.739  11.713
97531SOL    HW294426   8.766   6.793  11.726
97532SOL     OW94427  13.791   7.766   0.040
97532SOL    HW194428  13.860   7.717   0.085
97532SOL    HW294429  13.836   7.818  14.850
97533SOL     OW94430  12.308   8.112  10.636
97533SOL    HW194431  12.377   8.141  10.696
97533SOL    HW294432  12.351   8.106  10.551
97534SOL     OW94433   1.811   8.774   8.557
97534SOL    HW194434   1.881   8.812   8.609
97534SOL    HW294435   1.737   8.833   8.569
97535SOL     OW94436   7.190  11.578   1.947
97535SOL    HW194437   7.229  11.651   1.996
97535SOL    HW294438   7.182  11.507   2.010
97536SOL     OW94439   6.713   9.138  10.362
97536SOL    HW194440   6.669   9.187  10.293
97536SOL    HW294441   6.795   9.186  10.376
97537SOL     OW94442   5.803  12.704   4.042
97537SOL    HW194443   5.725  12.681   3.992
97537SOL    HW294444   5.855  12.623   4.044
97538SOL     OW94445   9.556   3.674   5.598
97538SOL    HW194446   9.475   3.623   5.599
97538SOL    HW294447   9.626   3.610   5.611
97539SOL     OW94448   4.842   8.069   4.237
97539SOL    HW194449   4.924   8.044   4.196
97539SOL    HW294450   4.840   8.164   4.232
97540SOL     OW94451   0.952  11.844   3.626
97540SOL    HW194452   0.892  11.914   3.598
97540SOL    HW294453   1.038  11.873   3.596
97541SOL     OW94454   2.443   7.393  13.221
97541SOL    HW194455   2.506   7.463  13.202
97541SOL    HW294456   2.449   7.381  13.316
97542SOL     OW94457   9.476   9.428  12.985
97542SOL    HW194458   9.474   9.523  12.994
97542SOL    HW294459   9.426   9.411  12.905
97543SOL     OW94460   0.412  10.342  11.037
97543SOL    HW194461   0.459  10.266  11.071
97543SOL    HW294462   0.453  10.359  10.952
97544SOL     OW94463  12.406   7.931   0.191
97544SOL    HW194464  12.354   7.888   0.123
97544SOL    HW294465  12.367   8.017   0.201
97545SOL     OW94466   6.062   3.703  11.630
97545SOL    HW194467   6.081   3.755  11.709
97545SOL    HW294468   6.000   3.757  11.581
97546SOL     OW94469  10.676   9.561   2.152
97546SOL    HW194470  10.600   9.512   2.120
97546SOL    HW294471  10.640   9.625   2.212
97547SOL     OW94472   4.224   3.191   9.676
97547SOL    HW194473   4.193   3.204   9.766
97547SOL    HW294474   4.179   3.257   9.625
97548SOL     OW94475   9.725  11.985  10.923
97548SOL    HW194476   9.663  11.918  10.893
97548SOL    HW294477   9.716  11.985  11.018
97549SOL     OW94478  13.188   2.876   4.059
97549SOL    HW194479  13.232   2.956   4.031
97549SOL    HW294480  13.217   2.809   3.998
97550SOL     OW94481   8.793   1.029  11.505
97550SOL    HW194482   8.806   0.934  11.505
97550SOL    HW294483   8.861   1.062  11.563
97551SOL     OW94484   0.879  12.761  10.844
97551SOL    HW194485   0.857  12.853  10.857
97551SOL    HW294486   0.951  12.745  10.904
97552SOL     OW94487   7.255   4.328   6.652
97552SOL    HW194488   7.161   4.309   6.661
97552SOL    HW294489   7.258   4.412   6.607
97553SOL     OW94490   7.556   0.592   9.735
97553SOL    HW194491   7.650   0.609   9.737
97553SOL    HW294492   7.527   0.609   9.824
97554SOL     OW94493   0.277   7.056   1.157
97554SOL    HW194494   0.303   6.965   1.174
97554SOL    HW294495   0.186   7.060   1.186
97555SOL     OW94496   9.217  14.512  12.866
97555SOL    HW194497   9.123  14.533  12.868
97555SOL    HW294498   9.220  14.424  12.829
97556SOL     OW94499  11.193  10.904   3.985
97556SOL    HW194500  11.216  10.845   4.056
97556SOL    HW294501  11.127  10.963   4.023
97557SOL     OW94502  11.992  11.992   9.572
97557SOL    HW194503  11.956  12.078   9.595
97557SOL    HW294504  12.024  12.003   9.482
97558SOL     OW94505   9.839   2.285  10.681
97558SOL    HW194506   9.847   2.310  10.590
97558SOL    HW294507   9.757   2.235  10.686
97559SOL     OW94508   8.448   9.521   7.768
97559SOL    HW194509   8.362   9.492   7.798
97559SOL    HW294510   8.501   9.524   7.848
97560SOL     OW94511   0.487   1.406  13.021
97560SOL    HW194512   0.450   1.337  12.966
97560SOL    HW294513   0.580   1.386  13.027
97561SOL     OW94514   5.033   2.707   1.490
97561SOL    HW194515   5.103   2.715   1.555
97561SOL    HW294516   4.953   2.696   1.542
97562SOL     OW94517   6.279  12.523   9.672
97562SOL    HW194518   6.291  12.516   9.577
97562SOL    HW294519   6.319  12.442   9.706
97563SOL     OW94520   1.939  11.934   6.939
97563SOL    HW194521   1.870  12.001   6.942
97563SOL    HW294522   2.021  11.983   6.943
97564SOL     OW94523  12.635   9.390  14.484
97564SOL    HW194524  12.683   9.423  14.560
97564SOL    HW294525  12.675   9.434  14.409
97565SOL     OW94526  14.785  10.951  14.788
97565SOL    HW194527  14.824  10.938  14.875
97565SOL    HW294528  14.783  11.046  14.777
97566SOL     OW94529  13.315  11.458   0.640
97566SOL    HW194530  13.247  11.411   0.689
97566SOL    HW294531  13.271  11.489   0.561
97567SOL     OW94532   9.542  11.495   8.332
97567SOL    HW194533   9.495  11.476   8.414
97567SOL    HW294534   9.635  11.485   8.355
97568SOL     OW94535  11.380   3.863   4.880
97568SOL    HW194536  11.370   3.779   4.926
97568SOL    HW294537  11.366   3.841   4.788
97569SOL     OW94538   1.925   1.663  11.401
97569SOL    HW194539   1.978   1.600  11.354
97569SOL    HW294540   1.837   1.625  11.402
97570SOL     OW94541  11.730   2.184   6.441
97570SOL    HW194542  11.666   2.168   6.372
97570SOL    HW294543  11.728   2.106   6.495
97571SOL     OW94544  13.789   4.696   5.607
97571SOL    HW194545  13.836   4.763   5.557
97571SOL    HW294546  13.722   4.664   5.546
97572SOL     OW94547   6.424  14.233   9.910
97572SOL    HW194548   6.348  14.225   9.968
97572SOL    HW294549   6.416  14.320   9.871
97573SOL     OW94550   2.969  14.456  11.964
97573SOL    HW194551   2.915  14.405  11.903
97573SOL    HW294552   2.916  14.459  12.045
97574SOL     OW94553   2.063  14.273  11.294
97574SOL    HW194554   2.048  14.193  11.345
97574SOL    HW294555   2.003  14.265  11.220
97575SOL     OW94556  12.441   2.946   1.849
97575SOL    HW194557  12.416   3.036   1.830
97575SOL    HW294558  12.494   2.952   1.929
97576SOL     OW94559   0.690  10.820  13.557
97576SOL    HW194560   0.777  10.856  13.576
97576SOL    HW294561   0.645  10.821  13.642
97577SOL     OW94562   3.989  10.622   3.317
97577SOL    HW194563   4.000  10.556   3.248
97577SOL    HW294564   3.904  10.661   3.299
97578SOL     OW94565   8.782   7.554   4.540
97578SOL    HW194566   8.701   7.554   4.591
97578SOL    HW294567   8.753   7.557   4.449
97579SOL     OW94568   5.358   4.679   1.218
97579SOL    HW194569   5.342   4.585   1.207
97579SOL    HW294570   5.430   4.698   1.157
97580SOL     OW94571   9.263  14.311   6.620
97580SOL    HW194572   9.308  14.241   6.572
97580SOL    HW294573   9.220  14.266   6.692
97581SOL     OW94574   2.804   5.725   7.894
97581SOL    HW194575   2.870   5.680   7.947
97581SOL    HW294576   2.749   5.771   7.957
97582SOL     OW94577  14.541  12.574   9.419
97582SOL    HW194578  14.566  12.518   9.346
97582SOL    HW294579  14.554  12.519   9.496
97583SOL     OW94580  10.694   6.278   6.486
97583SOL    HW194581  10.599   6.287   6.492
97583SOL    HW294582  10.712   6.189   6.516
97584SOL     OW94583   7.663  14.721  10.723
97584SOL    HW194584   7.636  14.767  10.802
97584SOL    HW294585   7.585  14.674  10.694
97585SOL     OW94586  12.743   3.016   0.658
97585SOL    HW194587  12.760   2.967   0.578
97585SOL    HW294588  12.757   3.108   0.633
97586SOL     OW94589   1.725   5.914  12.306
97586SOL    HW194590   1.723   5.967  12.226
97586SOL    HW294591   1.784   5.842  12.286
97587SOL     OW94592   9.593  14.401   5.674
97587SOL    HW194593   9.686  14.381   5.680
97587SOL    HW294594   9.590  14.484   5.625
97588SOL     OW94595   1.685   6.011  14.391
97588SOL    HW194596   1.746   6.076  14.354
97588SOL    HW294597   1.718   5.927  14.360
97589SOL     OW94598   6.046  11.362   5.756
97589SOL    HW194599   6.030  11.268   5.747
97589SOL    HW294600   6.135  11.374   5.722
97590SOL     OW94601   7.630  12.701   8.621
97590SOL    HW194602   7.619  12.652   8.703
97590SOL    HW294603   7.687  12.646   8.568
97591SOL     OW94604   7.159   5.757  14.245
97591SOL    HW194605   7.134   5.666  14.229
97591SOL    HW294606   7.202   5.756  14.330
97592SOL     OW94607   0.596   1.467   0.275
97592SOL    HW194608   0.550   1.471   0.359
97592SOL    HW294609   0.684   1.500   0.296
97593SOL     OW94610   6.187   9.003  12.730
97593SOL    HW194611   6.103   8.957  12.731
97593SOL    HW294612   6.190   9.044  12.643
97594SOL     OW94613  10.873  13.028   8.496
97594SOL    HW194614  10.932  13.103   8.505
97594SOL    HW294615  10.929  12.951   8.509
97595SOL     OW94616   2.259  10.732   8.981
97595SOL    HW194617   2.234  10.772   9.065
97595SOL    HW294618   2.179  10.690   8.949
97596SOL     OW94619   5.616  12.403  10.718
97596SOL    HW194620   5.689  12.418  10.779
97596SOL    HW294621   5.551  12.357  10.771
97597SOL     OW94622   6.780   7.641   1.343
97597SOL    HW194623   6.748   7.656   1.254
97597SOL    HW294624   6.702   7.646   1.398
97598SOL     OW94625   0.944  11.328   9.959
97598SOL    HW194626   0.875  11.394   9.966
97598SOL    HW294627   1.019  11.374   9.923
97599SOL     OW94628  13.359   1.188   2.302
97599SOL    HW194629  13.333   1.101   2.272
97599SOL    HW294630  13.417   1.221   2.233
97600SOL     OW94631   8.670   2.663   4.921
97600SOL    HW194632   8.589   2.613   4.934
97600SOL    HW294633   8.640   2.750   4.896
97601SOL     OW94634   9.425   1.382  13.143
97601SOL    HW194635   9.335   1.366  13.172
97601SOL    HW294636   9.431   1.341  13.057
97602SOL     OW94637   0.307   3.897   0.813
97602SOL    HW194638   0.234   3.930   0.760
97602SOL    HW294639   0.385   3.919   0.762
97603SOL     OW94640   5.114   6.123   2.680
97603SOL    HW194641   5.029   6.124   2.723
97603SOL    HW294642   5.172   6.079   2.743
97604SOL     OW94643  12.961   0.652  14.639
97604SOL    HW194644  12.985   0.740  14.670
97604SOL    HW294645  12.867   0.659  14.620
97605SOL     OW94646  11.072   3.506   4.499
97605SOL    HW194647  11.090   3.414   4.481
97605SOL    HW294648  11.129   3.528   4.573
97606SOL     OW94649   1.314   6.501   4.159
97606SOL    HW194650   1.232   6.487   4.205
97606SOL    HW294651   1.371   6.543   4.224
97607SOL     OW94652   7.589  12.696  10.936
97607SOL    HW194653   7.636  12.708  10.854
97607SOL    HW294654   7.511  12.752  10.927
97608SOL     OW94655   8.423  14.191  13.127
97608SOL    HW194656   8.352  14.129  13.107
97608SOL    HW294657   8.494  14.136  13.159
97609SOL     OW94658   4.621   1.856  14.186
97609SOL    HW194659   4.558   1.803  14.137
97609SOL    HW294660   4.569   1.895  14.256
97610SOL     OW94661   2.863  10.584   5.054
97610SOL    HW194662   2.911  10.502   5.066
97610SOL    HW294663   2.838  10.611   5.142
97611SOL     OW94664   5.344   3.734  12.260
97611SOL    HW194665   5.437   3.716  12.277
97611SOL    HW294666   5.344   3.775  12.173
97612SOL     OW94667   0.560   5.290   1.922
97612SOL    HW194668   0.521   5.267   2.006
97612SOL    HW294669   0.625   5.221   1.906
97613SOL     OW94670   7.807  12.835  14.634
97613SOL    HW194671   7.756  12.916  14.626
97613SOL    HW294672   7.820  12.806  14.543
97614SOL     OW94673   3.108  11.002   7.080
97614SOL    HW194674   3.201  11.013   7.095
97614SOL    HW294675   3.068  11.020   7.165
97615SOL     OW94676  14.385  11.074  10.220
97615SOL    HW194677  14.337  11.048  10.299
97615SOL    HW294678  14.347  11.021  10.151
97616SOL     OW94679   6.447   2.268   5.659
97616SOL    HW194680   6.431   2.192   5.604
97616SOL    HW294681   6.445   2.234   5.748
97617SOL     OW94682   0.252  11.867   6.186
97617SOL    HW194683   0.220  11.908   6.266
97617SOL    HW294684   0.227  11.927   6.116
97618SOL     OW94685   9.092  12.114  13.705
97618SOL    HW194686   9.186  12.095  13.712
97618SOL    HW294687   9.069  12.086  13.617
97619SOL     OW94688   4.414  13.217  13.648
97619SOL    HW194689   4.322  13.197  13.628
97619SOL    HW294690   4.438  13.285  13.586
97620SOL     OW94691   2.997   3.874  11.293
97620SOL    HW194692   3.026   3.890  11.203
97620SOL    HW294693   2.954   3.789  11.290
97621SOL     OW94694   8.627   5.451   1.820
97621SOL    HW194695   8.544   5.472   1.777
97621SOL    HW294696   8.636   5.518   1.888
97622SOL     OW94697   5.594  13.903   7.191
97622SOL    HW194698   5.672  13.883   7.244
97622SOL    HW294699   5.626  13.907   7.101
97623SOL     OW94700  14.154   4.628   6.306
97623SOL    HW194701  14.202   4.599   6.382
97623SOL    HW294702  14.088   4.560   6.291
97624SOL     OW94703   0.787   3.399   3.251
97624SOL    HW194704   0.716   3.449   3.292
97624SOL    HW294705   0.835   3.464   3.200
97625SOL     OW94706   2.475  14.348  14.507
97625SOL    HW194707   2.387  14.366  14.541
97625SOL    HW294708   2.511  14.434  14.487
97626SOL     OW94709   1.961  10.385   0.618
97626SOL    HW194710   1.885  10.437   0.646
97626SOL    HW294711   1.957  10.306   0.672
97627SOL     OW94712  12.218  14.498   2.514
97627SOL    HW194713  12.142  14.442   2.535
97627SOL    HW294714  12.189  14.550   2.439
97628SOL     OW94715   7.660   2.636   6.440
97628SOL    HW194716   7.590   2.680   6.392
97628SOL    HW294717   7.638   2.543   6.435
97629SOL     OW94718   0.301  14.236   3.662
97629SOL    HW194719   0.271  14.224   3.572
97629SOL    HW294720   0.395  14.221   3.659
97630SOL     OW94721  10.447   5.290  12.544
97630SOL    HW194722  10.483   5.298  12.456
97630SOL    HW294723  10.523   5.296  12.602
97631SOL     OW94724   3.027  12.504   0.641
97631SOL    HW194725   2.943  12.550   0.633
97631SOL    HW294726   3.004  12.412   0.649
97632SOL     OW94727  13.060   4.043  11.962
97632SOL    HW194728  12.980   4.062  11.914
97632SOL    HW294729  13.080   3.951  11.942
97633SOL     OW94730   3.220   6.250   5.931
97633SOL    HW194731   3.228   6.237   5.836
97633SOL    HW294732   3.304   6.222   5.966
97634SOL     OW94733   9.366   7.457   9.625
97634SOL    HW194734   9.342   7.383   9.569
97634SOL    HW294735   9.423   7.511   9.571
97635SOL     OW94736   7.194   1.239   4.085
97635SOL    HW194737   7.106   1.227   4.122
97635SOL    HW294738   7.253   1.224   4.158
97636SOL     OW94739  10.083   1.717   0.382
97636SOL    HW194740  10.007   1.667   0.413
97636SOL    HW294741  10.157   1.680   0.431
97637SOL     OW94742   0.023   7.164   6.009
97637SOL    HW194743   0.068   7.095   5.960
97637SOL    HW294744   0.088   7.195   6.072
97638SOL     OW94745   3.349  11.086   2.712
97638SOL    HW194746   3.290  11.011   2.710
97638SOL    HW294747   3.407  11.073   2.636
97639SOL     OW94748   8.598   7.090   3.753
97639SOL    HW194749   8.643   7.095   3.837
97639SOL    HW294750   8.637   7.014   3.709
97640SOL     OW94751   5.737   4.894   0.350
97640SOL    HW194752   5.686   4.961   0.304
97640SOL    HW294753   5.812   4.878   0.293
97641SOL     OW94754   3.343   6.812   9.121
97641SOL    HW194755   3.270   6.845   9.069
97641SOL    HW294756   3.340   6.863   9.202
97642SOL     OW94757   4.099   4.159   5.129
97642SOL    HW194758   4.091   4.067   5.103
97642SOL    HW294759   4.131   4.203   5.051
97643SOL     OW94760   0.864   6.873   3.954
97643SOL    HW194761   0.800   6.921   4.006
97643SOL    HW294762   0.917   6.827   4.019
97644SOL     OW94763  12.327  13.321   3.331
97644SOL    HW194764  12.288  13.398   3.374
97644SOL    HW294765  12.272  13.308   3.254
97645SOL     OW94766  10.946   2.777   1.089
97645SOL    HW194767  10.971   2.687   1.071
97645SOL    HW294768  10.995   2.829   1.026
97646SOL     OW94769  13.596   2.945  13.894
97646SOL    HW194770  13.649   3.024  13.910
97646SOL    HW294771  13.506   2.977  13.894
97647SOL     OW94772   1.629   1.369  13.595
97647SOL    HW194773   1.671   1.434  13.652
97647SOL    HW294774   1.637   1.287  13.643
97648SOL     OW94775   1.979   3.202   1.468
97648SOL    HW194776   2.047   3.267   1.452
97648SOL    HW294777   2.016   3.120   1.436
97649SOL     OW94778   9.217   8.627  13.965
97649SOL    HW194779   9.244   8.630  13.873
97649SOL    HW294780   9.297   8.601  14.012
97650SOL     OW94781   3.517   0.476   0.373
97650SOL    HW194782   3.510   0.402   0.313
97650SOL    HW294783   3.472   0.447   0.452
97651SOL     OW94784  12.631  14.611   8.031
97651SOL    HW194785  12.606  14.682   7.972
97651SOL    HW294786  12.699  14.564   7.984
97652SOL     OW94787   0.620   5.940   9.731
97652SOL    HW194788   0.528   5.966   9.719
97652SOL    HW294789   0.668   5.993   9.667
97653SOL     OW94790  13.259   6.782  10.875
97653SOL    HW194791  13.299   6.818  10.795
97653SOL    HW294792  13.181   6.835  10.888
97654SOL     OW94793   7.208   3.327  13.161
97654SOL    HW194794   7.168   3.243  13.185
97654SOL    HW294795   7.249   3.311  13.076
97655SOL     OW94796   9.462   7.340  11.944
97655SOL    HW194797   9.551   7.370  11.963
97655SOL    HW294798   9.474   7.257  11.899
97656SOL     OW94799  10.639  13.878  12.283
97656SOL    HW194800  10.629  13.839  12.370
97656SOL    HW294801  10.733  13.896  12.275
97657SOL     OW94802   9.041   3.805   9.140
97657SOL    HW194803   9.080   3.850   9.066
97657SOL    HW294804   9.009   3.722   9.104
97658SOL     OW94805   5.091  14.211   7.459
97658SOL    HW194806   5.129  14.182   7.377
97658SOL    HW294807   5.166  14.241   7.511
97659SOL     OW94808   5.812   4.034   0.994
97659SOL    HW194809   5.854   4.120   0.993
97659SOL    HW294810   5.827   4.000   0.906
97660SOL     OW94811   4.498   4.119  14.010
97660SOL    HW194812   4.462   4.102  14.097
97660SOL    HW294813   4.591   4.096  14.018
97661SOL     OW94814   8.823   4.727   2.961
97661SOL    HW194815   8.746   4.712   2.906
97661SOL    HW294816   8.804   4.679   3.042
97662SOL     OW94817   2.168   6.867  10.623
97662SOL    HW194818   2.156   6.960  10.606
97662SOL    HW294819   2.091   6.825  10.584
97663SOL     OW94820   3.374   1.351   1.227
97663SOL    HW194821   3.462   1.389   1.227
97663SOL    HW294822   3.342   1.364   1.316
97664SOL     OW94823   7.291   8.722  13.342
97664SOL    HW194824   7.259   8.661  13.276
97664SOL    HW294825   7.314   8.801  13.292
97665SOL     OW94826   0.432   3.816   2.453
97665SOL    HW194827   0.354   3.836   2.400
97665SOL    HW294828   0.397   3.774   2.532
97666SOL     OW94829   9.259  11.323  12.252
97666SOL    HW194830   9.178  11.319  12.303
97666SOL    HW294831   9.328  11.306  12.315
97667SOL     OW94832   4.071   1.601  13.014
97667SOL    HW194833   4.060   1.516  13.056
97667SOL    HW294834   4.157   1.632  13.044
97668SOL     OW94835  13.221  14.421   7.940
97668SOL    HW194836  13.236  14.487   7.872
97668SOL    HW294837  13.127  14.423   7.955
97669SOL     OW94838   5.564   0.175   2.387
97669SOL    HW194839   5.644   0.140   2.349
97669SOL    HW294840   5.531   0.237   2.322
97670SOL     OW94841   4.340   0.511   3.606
97670SOL    HW194842   4.433   0.531   3.608
97670SOL    HW294843   4.331   0.450   3.533
97671SOL     OW94844  10.331   1.942   4.045
97671SOL    HW194845  10.422   1.918   4.062
97671SOL    HW294846  10.333   1.982   3.958
97672SOL     OW94847  13.499   2.796   9.513
97672SOL    HW194848  13.456   2.793   9.427
97672SOL    HW294849  13.591   2.817   9.493
97673SOL     OW94850   3.166   0.066   3.528
97673SOL    HW194851   3.200   0.121   3.457
97673SOL    HW294852   3.075   0.049   3.503
97674SOL     OW94853  10.356   5.050   7.878
97674SOL    HW194854  10.423   4.987   7.849
97674SOL    HW294855  10.353   5.038   7.973
97675SOL     OW94856  14.846  12.202   0.209
97675SOL    HW194857   0.036  12.164   0.152
97675SOL    HW294858   0.005  12.287   0.234
97676SOL     OW94859   6.938   0.919   0.789
97676SOL    HW194860   6.920   0.959   0.704
97676SOL    HW294861   6.852   0.898   0.825
97677SOL     OW94862  13.600  14.724   5.732
97677SOL    HW194863  13.681  14.693   5.691
97677SOL    HW294864  13.601  14.819   5.717
97678SOL     OW94865   6.358   1.647  11.473
97678SOL    HW194866   6.287   1.583  11.478
97678SOL    HW294867   6.370   1.663  11.379
97679SOL     OW94868   9.640   1.661   2.175
97679SOL    HW194869   9.622   1.692   2.086
97679SOL    HW294870   9.717   1.712   2.202
97680SOL     OW94871  12.835  11.538   5.540
97680SOL    HW194872  12.928  11.544   5.564
97680SOL    HW294873  12.835  11.495   5.455
97681SOL     OW94874  12.702   8.948   2.696
97681SOL    HW194875  12.760   8.933   2.622
97681SOL    HW294876  12.693   9.043   2.700
97682SOL     OW94877   8.701  14.140   8.680
97682SOL    HW194878   8.679  14.162   8.770
97682SOL    HW294879   8.751  14.059   8.686
97683SOL     OW94880   8.117   3.848  11.411
97683SOL    HW194881   8.113   3.804  11.496
97683SOL    HW294882   8.200   3.895  11.412
97684SOL     OW94883   7.637  14.639  10.269
97684SOL    HW194884   7.627  14.734  10.277
97684SOL    HW294885   7.698  14.616  10.339
97685SOL     OW94886  11.872   1.079   7.365
97685SOL    HW194887  11.847   1.171   7.355
97685SOL    HW294888  11.813   1.046   7.432
97686SOL     OW94889   2.075  13.728   4.771
97686SOL    HW194890   2.094  13.675   4.849
97686SOL    HW294891   2.130  13.690   4.703
97687SOL     OW94892  13.989   9.864  10.999
97687SOL    HW194893  14.043   9.921  10.945
97687SOL    HW294894  13.999   9.899  11.088
97688SOL     OW94895   4.685   1.573  12.259
97688SOL    HW194896   4.670   1.660  12.296
97688SOL    HW294897   4.598   1.532  12.256
97689SOL     OW94898   7.747  10.569  14.073
97689SOL    HW194899   7.690  10.514  14.019
97689SOL    HW294900   7.832  10.525  14.069
97690SOL     OW94901   0.520   7.420   5.218
97690SOL    HW194902   0.500   7.335   5.180
97690SOL    HW294903   0.449   7.437   5.280
97691SOL     OW94904   3.075  12.128   6.653
97691SOL    HW194905   2.996  12.085   6.621
97691SOL    HW294906   3.059  12.222   6.640
97692SOL     OW94907   9.459   0.569  10.060
97692SOL    HW194908   9.454   0.628  10.135
97692SOL    HW294909   9.551   0.540  10.058
97693SOL     OW94910  13.029   2.487   8.415
97693SOL    HW194911  13.077   2.542   8.478
97693SOL    HW294912  13.037   2.398   8.450
97694SOL     OW94913  11.166   1.344   0.085
97694SOL    HW194914  11.102   1.409   0.057
97694SOL    HW294915  11.230   1.341   0.014
97695SOL     OW94916  14.162  14.199   0.232
97695SOL    HW194917  14.206  14.282   0.250
97695SOL    HW294918  14.118  14.177   0.315
97696SOL     OW94919  13.306  14.252   9.544
97696SOL    HW194920  13.335  14.341   9.525
97696SOL    HW294921  13.214  14.260   9.566
97697SOL     OW94922   2.206  14.804   5.587
97697SOL    HW194923   2.156  14.872   5.541
97697SOL    HW294924   2.142  14.762   5.644
97698SOL     OW94925   3.960  12.991   2.473
97698SOL    HW194926   3.874  12.960   2.501
97698SOL    HW294927   4.022  12.944   2.529
97699SOL     OW94928   8.482   6.816  11.847
97699SOL    HW194929   8.462   6.813  11.940
97699SOL    HW294930   8.483   6.724  11.819
97700SOL     OW94931   0.536  12.780   1.973
97700SOL    HW194932   0.567  12.749   2.058
97700SOL    HW294933   0.616  12.792   1.922
97701SOL     OW94934   7.018   2.258   0.808
97701SOL    HW194935   7.073   2.335   0.797
97701SOL    HW294936   7.074   2.194   0.851
97702SOL     OW94937  11.581   7.116  12.437
97702SOL    HW194938  11.647   7.177  12.406
97702SOL    HW294939  11.503   7.169  12.451
97703SOL     OW94940  12.104   2.839  13.092
97703SOL    HW194941  12.198   2.850  13.077
97703SOL    HW294942  12.098   2.801  13.180
97704SOL     OW94943   6.643   9.124   3.465
97704SOL    HW194944   6.656   9.048   3.407
97704SOL    HW294945   6.680   9.197   3.417
97705SOL     OW94946  14.136  11.793  14.144
97705SOL    HW194947  14.126  11.834  14.230
97705SOL    HW294948  14.215  11.740  14.152
97706SOL     OW94949   5.359  10.809   0.986
97706SOL    HW194950   5.288  10.872   0.975
97706SOL    HW294951   5.324  10.728   0.950
97707SOL     OW94952   1.051   7.604   2.658
97707SOL    HW194953   1.018   7.691   2.681
97707SOL    HW294954   0.973   7.548   2.656
97708SOL     OW94955   3.906   6.340  14.861
97708SOL    HW194956   3.976   6.356  14.798
97708SOL    HW294957   3.865   6.259  14.831
97709SOL     OW94958   6.269   5.301  12.238
97709SOL    HW194959   6.175   5.293  12.228
97709SOL    HW294960   6.288   5.259  12.322
97710SOL     OW94961   6.786  13.354   4.818
97710SOL    HW194962   6.828  13.369   4.734
97710SOL    HW294963   6.692  13.350   4.798
97711SOL     OW94964   7.858   3.068   7.971
97711SOL    HW194965   7.825   3.075   8.061
97711SOL    HW294966   7.825   3.146   7.927
97712SOL     OW94967   7.354   8.409   3.073
97712SOL    HW194968   7.394   8.323   3.066
97712SOL    HW294969   7.298   8.403   3.151
97713SOL     OW94970   1.362   7.101  12.445
97713SOL    HW194971   1.392   7.116  12.355
97713SOL    HW294972   1.293   7.166  12.459
97714SOL     OW94973   9.319   6.472   7.144
97714SOL    HW194974   9.305   6.399   7.205
97714SOL    HW294975   9.232   6.489   7.108
97715SOL     OW94976   3.863   7.435  10.995
97715SOL    HW194977   3.810   7.472  11.066
97715SOL    HW294978   3.918   7.370  11.039
97716SOL     OW94979   8.152  13.751   9.803
97716SOL    HW194980   8.059  13.750   9.825
97716SOL    HW294981   8.165  13.671   9.752
97717SOL     OW94982   0.714   6.602   0.026
97717SOL    HW194983   0.748   6.540  14.837
97717SOL    HW294984   0.694   6.549   0.103
97718SOL     OW94985   9.590   0.906   8.866
97718SOL    HW194986   9.571   0.987   8.912
97718SOL    HW294987   9.659   0.864   8.918
97719SOL     OW94988   4.087  14.531  12.489
97719SOL    HW194989   4.157  14.533  12.554
97719SOL    HW294990   4.109  14.601  12.428
97720SOL     OW94991   5.159  12.472   7.230
97720SOL    HW194992   5.066  12.476   7.249
97720SOL    HW294993   5.175  12.546   7.171
97721SOL     OW94994   1.738  13.383   1.440
97721SOL    HW194995   1.697  13.305   1.402
97721SOL    HW294996   1.832  13.364   1.439
97722SOL     OW94997  11.024   7.695   3.073
97722SOL    HW194998  10.962   7.768   3.074
97722SOL    HW294999  11.092   7.723   3.011
97723SOL     OW95000   8.010   5.340  12.375
97723SOL    HW195001   8.059   5.267  12.338
97723SOL    HW295002   7.948   5.365  12.306
97724SOL     OW95003  12.389   6.404   2.429
97724SOL    HW195004  12.346   6.378   2.510
97724SOL    HW295005  12.475   6.362   2.433
97725SOL     OW95006   0.286  12.402   5.291
97725SOL    HW195007   0.346  12.427   5.222
97725SOL    HW295008   0.258  12.485   5.330
97726SOL     OW95009   6.796   5.409   5.927
97726SOL    HW195010   6.721   5.410   5.986
97726SOL    HW295011   6.820   5.501   5.917
97727SOL     OW95012   8.525   5.360   7.982
97727SOL    HW195013   8.492   5.328   7.898
97727SOL    HW295014   8.568   5.443   7.960
97728SOL     OW95015  10.619   2.511  11.591
97728SOL    HW195016  10.599   2.597  11.554
97728SOL    HW295017  10.534   2.469  11.602
97729SOL     OW95018   4.043   6.609  10.711
97729SOL    HW195019   4.096   6.687  10.728
97729SOL    HW295020   4.108   6.539  10.699
97730SOL     OW95021  14.789   1.175   0.091
97730SOL    HW195022  14.711   1.144   0.046
97730SOL    HW295023  14.803   1.263   0.057
97731SOL     OW95024   0.994   3.793   3.647
97731SOL    HW195025   0.958   3.881   3.636
97731SOL    HW295026   0.995   3.779   3.742
97732SOL     OW95027   7.764   4.662  10.905
97732SOL    HW195028   7.761   4.655  10.809
97732SOL    HW295029   7.767   4.756  10.921
97733SOL     OW95030  14.114  12.459   2.364
97733SOL    HW195031  14.045  12.519   2.392
97733SOL    HW295032  14.191  12.488   2.412
97734SOL     OW95033   8.547   6.160  14.520
97734SOL    HW195034   8.557   6.068  14.543
97734SOL    HW295035   8.588   6.207  14.593
97735SOL     OW95036   4.059   3.956   0.941
97735SOL    HW195037   4.108   3.907   0.874
97735SOL    HW295038   4.119   4.026   0.967
97736SOL     OW95039   2.869   1.020   5.458
97736SOL    HW195040   2.924   0.957   5.410
97736SOL    HW295041   2.842   0.973   5.537
97737SOL     OW95042   1.824  12.226   1.891
97737SOL    HW195043   1.869  12.142   1.900
97737SOL    HW295044   1.773  12.233   1.972
97738SOL     OW95045   7.033  13.320   7.338
97738SOL    HW195046   7.012  13.337   7.430
97738SOL    HW295047   7.103  13.382   7.317
97739SOL     OW95048   5.627  12.704   5.275
97739SOL    HW195049   5.605  12.748   5.193
97739SOL    HW295050   5.572  12.746   5.341
97740SOL     OW95051   7.989   1.255   0.636
97740SOL    HW195052   7.993   1.334   0.583
97740SOL    HW295053   8.070   1.208   0.617
97741SOL     OW95054  14.049   0.096   1.047
97741SOL    HW195055  13.998   0.166   1.007
97741SOL    HW295056  14.076   0.131   1.132
97742SOL     OW95057   5.296   1.137   9.529
97742SOL    HW195058   5.379   1.183   9.547
97742SOL    HW295059   5.230   1.206   9.530
97743SOL     OW95060  11.027  12.100  14.476
97743SOL    HW195061  11.036  12.008  14.499
97743SOL    HW295062  10.940  12.124  14.508
97744SOL     OW95063   7.754   3.763   4.723
97744SOL    HW195064   7.825   3.701   4.709
97744SOL    HW295065   7.687   3.714   4.770
97745SOL     OW95066   6.047   6.975  12.778
97745SOL    HW195067   5.956   6.945  12.784
97745SOL    HW295068   6.045   7.064  12.811
97746SOL     OW95069  12.585   6.435   2.726
97746SOL    HW195070  12.632   6.370   2.674
97746SOL    HW295071  12.651   6.502   2.746
97747SOL     OW95072  10.849   8.786  11.419
97747SOL    HW195073  10.836   8.763  11.326
97747SOL    HW295074  10.822   8.877  11.425
97748SOL     OW95075   9.232   0.862   0.069
97748SOL    HW195076   9.262   0.950   0.047
97748SOL    HW295077   9.260   0.849   0.160
97749SOL     OW95078   8.240  10.196   2.623
97749SOL    HW195079   8.225  10.197   2.528
97749SOL    HW295080   8.321  10.145   2.633
97750SOL     OW95081   0.823   3.129  10.431
97750SOL    HW195082   0.845   3.190  10.501
97750SOL    HW295083   0.819   3.183  10.352
97751SOL     OW95084  10.067   9.637   1.266
97751SOL    HW195085  10.159   9.639   1.291
97751SOL    HW295086  10.062   9.686   1.185
97752SOL     OW95087  11.084   1.654  14.657
97752SOL    HW195088  11.000   1.666  14.703
97752SOL    HW295089  11.094   1.734  14.605
97753SOL     OW95090   9.331   7.847   1.813
97753SOL    HW195091   9.336   7.794   1.734
97753SOL    HW295092   9.389   7.921   1.796
97754SOL     OW95093   0.487   6.916  12.180
97754SOL    HW195094   0.453   7.006  12.184
97754SOL    HW295095   0.578   6.923  12.211
97755SOL     OW95096  10.690   6.194   7.891
97755SOL    HW195097  10.734   6.210   7.807
97755SOL    HW295098  10.628   6.266   7.900
97756SOL     OW95099   1.032  14.074   7.566
97756SOL    HW195100   1.083  14.010   7.515
97756SOL    HW295101   1.090  14.097   7.639
97757SOL     OW95102   9.737   2.157  12.901
97757SOL    HW195103   9.705   2.241  12.934
97757SOL    HW295104   9.658   2.113  12.868
97758SOL     OW95105   1.742   6.911   2.869
97758SOL    HW195106   1.671   6.902   2.933
97758SOL    HW295107   1.822   6.916   2.922
97759SOL     OW95108   5.556   0.448   9.128
97759SOL    HW195109   5.613   0.423   9.055
97759SOL    HW295110   5.549   0.543   9.122
97760SOL     OW95111  11.972  13.041  11.088
97760SOL    HW195112  11.957  12.961  11.139
97760SOL    HW295113  11.970  13.011  10.997
97761SOL     OW95114   8.978   7.241   4.137
97761SOL    HW195115   9.019   7.312   4.187
97761SOL    HW295116   8.923   7.285   4.073
97762SOL     OW95117   8.040   7.531  12.741
97762SOL    HW195118   8.126   7.548  12.702
97762SOL    HW295119   8.037   7.587  12.819
97763SOL     OW95120  10.692   8.203   1.600
97763SOL    HW195121  10.630   8.137   1.569
97763SOL    HW295122  10.701   8.264   1.527
97764SOL     OW95123   5.251   4.401   7.395
97764SOL    HW195124   5.169   4.447   7.409
97764SOL    HW295125   5.227   4.325   7.342
97765SOL     OW95126   6.381   0.332   9.723
97765SOL    HW195127   6.315   0.392   9.687
97765SOL    HW295128   6.438   0.388   9.776
97766SOL     OW95129   5.210   9.062  12.240
97766SOL    HW195130   5.125   9.017  12.230
97766SOL    HW295131   5.261   9.004  12.296
97767SOL     OW95132   1.080   6.544   8.566
97767SOL    HW195133   1.157   6.514   8.614
97767SOL    HW295134   1.033   6.463   8.543
97768SOL     OW95135  14.223  12.825  12.745
97768SOL    HW195136  14.249  12.806  12.835
97768SOL    HW295137  14.165  12.752  12.721
97769SOL     OW95138   9.100  14.433   9.343
97769SOL    HW195139   9.034  14.371   9.375
97769SOL    HW295140   9.072  14.518   9.375
97770SOL     OW95141  10.596  14.736   1.919
97770SOL    HW195142  10.580  14.655   1.871
97770SOL    HW295143  10.691  14.739   1.932
97771SOL     OW95144  12.121  10.854   5.587
97771SOL    HW195145  12.198  10.910   5.573
97771SOL    HW295146  12.072  10.860   5.505
97772SOL     OW95147   4.677   3.708   8.389
97772SOL    HW195148   4.646   3.773   8.453
97772SOL    HW295149   4.690   3.758   8.309
97773SOL     OW95150  13.879   0.562  14.639
97773SOL    HW195151  13.866   0.614  14.718
97773SOL    HW295152  13.970   0.580  14.613
97774SOL     OW95153   6.600   9.330   5.264
97774SOL    HW195154   6.518   9.325   5.214
97774SOL    HW295155   6.596   9.256   5.325
97775SOL     OW95156   2.540  12.036   9.198
97775SOL    HW195157   2.458  11.987   9.189
97775SOL    HW295158   2.608  11.970   9.188
97776SOL     OW95159   4.637   4.383   2.800
97776SOL    HW195160   4.618   4.365   2.892
97776SOL    HW295161   4.726   4.350   2.787
97777SOL     OW95162  10.433   0.976  11.858
97777SOL    HW195163  10.489   0.903  11.833
97777SOL    HW295164  10.492   1.051  11.862
97778SOL     OW95165   4.422   7.557   5.650
97778SOL    HW195166   4.508   7.543   5.610
97778SOL    HW295167   4.422   7.650   5.673
97779SOL     OW95168   4.975  13.099   4.017
97779SOL    HW195169   4.958  13.111   3.923
97779SOL    HW295170   4.889  13.082   4.055
97780SOL     OW95171  12.222   8.773   8.481
97780SOL    HW195172  12.283   8.706   8.450
97780SOL    HW295173  12.190   8.740   8.564
97781SOL     OW95174   8.461  14.631   2.936
97781SOL    HW195175   8.543  14.641   2.888
97781SOL    HW295176   8.419  14.716   2.930
97782SOL     OW95177   9.292   0.774   9.931
97782SOL    HW195178   9.369   0.731   9.968
97782SOL    HW295179   9.324   0.815   9.851
97783SOL     OW95180  13.864   9.996  12.437
97783SOL    HW195181  13.848  10.086  12.466
97783SOL    HW295182  13.952   9.976  12.470
97784SOL     OW95183   4.412  13.155   1.586
97784SOL    HW195184   4.466  13.077   1.572
97784SOL    HW295185   4.460  13.225   1.542
97785SOL     OW95186  11.282  14.811   3.657
97785SOL    HW195187  11.235  14.797   3.740
97785SOL    HW295188  11.340  14.735   3.650
97786SOL     OW95189   2.420   1.343   9.470
97786SOL    HW195190   2.453   1.432   9.456
97786SOL    HW295191   2.475   1.308   9.540
97787SOL     OW95192  11.073   6.132   8.736
97787SOL    HW195193  11.022   6.118   8.657
97787SOL    HW295194  11.045   6.218   8.768
97788SOL     OW95195   1.091  13.861   2.847
97788SOL    HW195196   1.166  13.847   2.905
97788SOL    HW295197   1.112  13.940   2.797
97789SOL     OW95198   3.318  14.338   4.760
97789SOL    HW195199   3.321  14.337   4.664
97789SOL    HW295200   3.356  14.423   4.783
97790SOL     OW95201  14.678   1.618  12.153
97790SOL    HW195202  14.629   1.678  12.096
97790SOL    HW295203  14.659   1.531  12.119
97791SOL     OW95204  14.270  14.065   6.244
97791SOL    HW195205  14.324  14.016   6.182
97791SOL    HW295206  14.201  14.104   6.190
97792SOL     OW95207  11.183  10.526   0.625
97792SOL    HW195208  11.249  10.462   0.596
97792SOL    HW295209  11.234  10.602   0.652
97793SOL     OW95210  14.657  14.838  14.158
97793SOL    HW195211  14.731  14.844  14.219
97793SOL    HW295212  14.580  14.846  14.214
97794SOL     OW95213   5.365   9.272  13.914
97794SOL    HW195214   5.309   9.220  13.857
97794SOL    HW295215   5.454   9.240  13.896
97795SOL     OW95216   4.757  14.698  14.207
97795SOL    HW195217   4.820  14.699  14.279
97795SOL    HW295218   4.785  14.769  14.149
97796SOL     OW95219   0.702   4.626  14.556
97796SOL    HW195220   0.703   4.578  14.473
97796SOL    HW295221   0.789   4.665  14.561
97797SOL     OW95222   6.205  10.884  11.076
97797SOL    HW195223   6.177  10.975  11.071
97797SOL    HW295224   6.131  10.834  11.041
97798SOL     OW95225   2.113  12.727  14.588
97798SOL    HW195226   2.143  12.817  14.579
97798SOL    HW295227   2.183  12.683  14.636
97799SOL     OW95228   9.848  11.011   7.829
97799SOL    HW195229   9.928  11.015   7.881
97799SOL    HW295230   9.868  10.949   7.758
97800SOL     OW95231  11.160   9.598   5.365
97800SOL    HW195232  11.096   9.569   5.430
97800SOL    HW295233  11.197   9.679   5.402
97801SOL     OW95234   2.402   6.246  10.858
97801SOL    HW195235   2.385   6.339  10.872
97801SOL    HW295236   2.363   6.227  10.772
97802SOL     OW95237   4.585  12.334   7.251
97802SOL    HW195238   4.573  12.321   7.345
97802SOL    HW295239   4.605  12.247   7.217
97803SOL     OW95240   5.059   6.953   1.522
97803SOL    HW195241   4.977   6.912   1.495
97803SOL    HW295242   5.123   6.882   1.523
97804SOL     OW95243   0.612   8.292   3.753
97804SOL    HW195244   0.638   8.285   3.845
97804SOL    HW295245   0.517   8.306   3.756
97805SOL     OW95246  11.935  12.682  11.787
97805SOL    HW195247  11.905  12.761  11.742
97805SOL    HW295248  11.967  12.713  11.872
97806SOL     OW95249   4.680   7.418   1.766
97806SOL    HW195250   4.600   7.446   1.720
97806SOL    HW295251   4.672   7.458   1.853
97807SOL     OW95252  12.513  13.525   1.960
97807SOL    HW195253  12.431  13.540   2.008
97807SOL    HW295254  12.505  13.581   1.883
97808SOL     OW95255  11.892  10.743   9.441
97808SOL    HW195256  11.808  10.719   9.403
97808SOL    HW295257  11.871  10.802   9.513
97809SOL     OW95258   3.865   7.695   4.059
97809SOL    HW195259   3.815   7.633   4.006
97809SOL    HW295260   3.943   7.714   4.006
97810SOL     OW95261   2.956   7.098   7.073
97810SOL    HW195262   3.003   7.181   7.066
97810SOL    HW295263   3.016   7.033   7.036
97811SOL     OW95264   0.709  10.050   1.401
97811SOL    HW195265   0.756   9.991   1.460
97811SOL    HW295266   0.665  10.112   1.459
97812SOL     OW95267   2.130   4.532  12.545
97812SOL    HW195268   2.059   4.489  12.592
97812SOL    HW295269   2.209   4.488  12.576
97813SOL     OW95270   1.030  12.634   8.278
97813SOL    HW195271   1.035  12.709   8.218
97813SOL    HW295272   0.948  12.591   8.255
97814SOL     OW95273  13.389  11.028  13.958
97814SOL    HW195274  13.464  10.999  13.905
97814SOL    HW295275  13.415  11.113  13.992
97815SOL     OW95276  13.760   5.482   0.197
97815SOL    HW195277  13.719   5.524   0.272
97815SOL    HW295278  13.754   5.546   0.127
97816SOL     OW95279   7.058   7.014   6.929
97816SOL    HW195280   7.054   7.045   6.839
97816SOL    HW295281   6.976   6.967   6.942
97817SOL     OW95282   4.066  13.743  13.579
97817SOL    HW195283   4.078  13.664  13.632
97817SOL    HW295284   4.064  13.711  13.488
97818SOL     OW95285  11.527   3.814  11.039
97818SOL    HW195286  11.451   3.863  11.071
97818SOL    HW295287  11.586   3.882  11.006
97819SOL     OW95288   9.312   2.815   9.864
97819SOL    HW195289   9.298   2.910   9.857
97819SOL    HW295290   9.356   2.804   9.948
97820SOL     OW95291   6.475   1.535   0.245
97820SOL    HW195292   6.479   1.519   0.151
97820SOL    HW295293   6.566   1.529   0.275
97821SOL     OW95294  14.140  10.118   3.371
97821SOL    HW195295  14.074  10.050   3.382
97821SOL    HW295296  14.224  10.071   3.373
97822SOL     OW95297   3.926   9.467   9.091
97822SOL    HW195298   3.913   9.403   9.021
97822SOL    HW295299   3.963   9.543   9.047
97823SOL     OW95300   2.587   9.543   5.532
97823SOL    HW195301   2.672   9.588   5.527
97823SOL    HW295302   2.555   9.564   5.620
97824SOL     OW95303  14.230   4.682   5.775
97824SOL    HW195304  14.318   4.647   5.759
97824SOL    HW295305  14.231   4.768   5.733
97825SOL     OW95306   0.734  13.150   4.030
97825SOL    HW195307   0.700  13.231   4.068
97825SOL    HW295308   0.751  13.094   4.106
97826SOL     OW95309  13.593   0.576   7.473
97826SOL    HW195310  13.501   0.576   7.497
97826SOL    HW295311  13.593   0.564   7.378
97827SOL     OW95312   5.385   4.434   4.984
97827SOL    HW195313   5.374   4.436   4.889
97827SOL    HW295314   5.480   4.436   4.997
97828SOL     OW95315   7.176   2.458   0.736
97828SOL    HW195316   7.267   2.444   0.759
97828SOL    HW295317   7.169   2.552   0.721
97829SOL     OW95318   4.919  14.691   6.864
97829SOL    HW195319   4.874  14.644   6.794
97829SOL    HW295320   4.985  14.630   6.896
97830SOL     OW95321  14.363   2.181  12.426
97830SOL    HW195322  14.358   2.177  12.522
97830SOL    HW295323  14.444   2.230  12.408
97831SOL     OW95324   6.546   7.332  14.770
97831SOL    HW195325   6.632   7.345  14.732
97831SOL    HW295326   6.551   7.375  14.855
97832SOL     OW95327   6.059   6.264  10.194
97832SOL    HW195328   6.033   6.323  10.265
97832SOL    HW295329   6.034   6.177  10.225
97833SOL     OW95330   5.675  12.045   3.576
97833SOL    HW195331   5.733  12.105   3.622
97833SOL    HW295332   5.686  11.962   3.622
97834SOL     OW95333   2.958  12.681   6.702
97834SOL    HW195334   2.961  12.776   6.693
97834SOL    HW295335   2.883  12.655   6.648
97835SOL     OW95336   9.083   3.216   1.775
97835SOL    HW195337   9.047   3.164   1.704
97835SOL    HW295338   9.100   3.302   1.736
97836SOL     OW95339  10.712   7.018   2.990
97836SOL    HW195340  10.798   6.988   2.961
97836SOL    HW295341  10.731   7.093   3.046
97837SOL     OW95342  13.692  12.769  11.438
97837SOL    HW195343  13.599  12.763  11.462
97837SOL    HW295344  13.692  12.762  11.343
97838SOL     OW95345  14.153   0.093   0.115
97838SOL    HW195346  14.128   0.011   0.073
97838SOL    HW295347  14.117   0.161   0.058
97839SOL     OW95348   2.235   7.134   6.961
97839SOL    HW195349   2.195   7.169   6.882
97839SOL    HW295350   2.206   7.193   7.031
97840SOL     OW95351   2.038  13.159   7.847
97840SOL    HW195352   1.967  13.221   7.833
97840SOL    HW295353   2.056  13.164   7.941
97841SOL     OW95354   1.555   0.485   7.716
97841SOL    HW195355   1.553   0.397   7.677
97841SOL    HW295356   1.615   0.534   7.659
97842SOL     OW95357   1.809   3.667  14.430
97842SOL    HW195358   1.810   3.613  14.351
97842SOL    HW295359   1.741   3.628  14.485
97843SOL     OW95360  14.432   7.731   8.463
97843SOL    HW195361  14.367   7.665   8.437
97843SOL    HW295362  14.423   7.739   8.558
97844SOL     OW95363   7.956   7.433   6.862
97844SOL    HW195364   7.922   7.370   6.798
97844SOL    HW295365   7.956   7.385   6.945
97845SOL     OW95366   4.253   1.647   9.938
97845SOL    HW195367   4.326   1.595   9.974
97845SOL    HW295368   4.288   1.737   9.934
97846SOL     OW95369   1.740   9.428   8.688
97846SOL    HW195370   1.776   9.424   8.600
97846SOL    HW295371   1.658   9.477   8.678
97847SOL     OW95372   4.342  12.175   5.080
97847SOL    HW195373   4.421  12.189   5.133
97847SOL    HW295374   4.274  12.224   5.125
97848SOL     OW95375   7.617   7.781   1.693
97848SOL    HW195376   7.589   7.774   1.784
97848SOL    HW295377   7.608   7.875   1.673
97849SOL     OW95378   7.048  13.342   6.557
97849SOL    HW195379   7.018  13.334   6.648
97849SOL    HW295380   7.141  13.322   6.561
97850SOL     OW95381   1.314   6.622   3.249
97850SOL    HW195382   1.294   6.559   3.318
97850SOL    HW295383   1.356   6.695   3.295
97851SOL     OW95384   9.134   2.039   7.671
97851SOL    HW195385   9.181   1.979   7.729
97851SOL    HW295386   9.046   2.044   7.710
97852SOL     OW95387   2.984   9.433  11.730
97852SOL    HW195388   2.958   9.513  11.774
97852SOL    HW295389   3.006   9.461  11.641
97853SOL     OW95390   9.748  14.789  10.873
97853SOL    HW195391   9.823  14.849  10.871
97853SOL    HW295392   9.785  14.706  10.902
97854SOL     OW95393   0.930   3.496   4.706
97854SOL    HW195394   0.928   3.419   4.650
97854SOL    HW295395   0.939   3.569   4.644
97855SOL     OW95396  14.245   2.053   9.971
97855SOL    HW195397  14.226   2.046   9.878
97855SOL    HW295398  14.337   2.029   9.979
97856SOL     OW95399  12.908   3.035   0.047
97856SOL    HW195400  12.913   2.989  14.839
97856SOL    HW295401  12.974   3.103   0.041
97857SOL     OW95402  14.673  13.213   7.296
97857SOL    HW195403  14.683  13.171   7.211
97857SOL    HW295404  14.760  13.209   7.336
97858SOL     OW95405   4.595   6.988  13.403
97858SOL    HW195406   4.653   6.946  13.467
97858SOL    HW295407   4.510   6.990  13.447
97859SOL     OW95408   3.684   9.728   4.803
97859SOL    HW195409   3.688   9.779   4.722
97859SOL    HW295410   3.604   9.758   4.846
97860SOL     OW95411   2.230   9.727   4.844
97860SOL    HW195412   2.245   9.788   4.916
97860SOL    HW295413   2.219   9.783   4.767
97861SOL     OW95414   6.395   3.260   8.015
97861SOL    HW195415   6.470   3.205   7.995
97861SOL    HW295416   6.322   3.199   8.026
97862SOL     OW95417   5.615   4.458  13.317
97862SOL    HW195418   5.597   4.385  13.376
97862SOL    HW295419   5.708   4.447  13.293
97863SOL     OW95420  13.431  14.079   0.799
97863SOL    HW195421  13.458  13.990   0.823
97863SOL    HW295422  13.507  14.116   0.756
97864SOL     OW95423   8.366   2.527  12.242
97864SOL    HW195424   8.328   2.505  12.157
97864SOL    HW295425   8.351   2.621  12.251
97865SOL     OW95426  12.745   5.235   6.882
97865SOL    HW195427  12.739   5.313   6.826
97865SOL    HW295428  12.788   5.267   6.961
97866SOL     OW95429   7.427  14.171   4.686
97866SOL    HW195430   7.520  14.189   4.670
97866SOL    HW295431   7.428  14.104   4.755
97867SOL     OW95432  10.425   4.018  10.136
97867SOL    HW195433  10.450   4.105  10.107
97867SOL    HW295434  10.494   3.991  10.196
97868SOL     OW95435  13.808   3.586   9.725
97868SOL    HW195436  13.875   3.522   9.749
97868SOL    HW295437  13.857   3.660   9.689
97869SOL     OW95438   4.863   9.699   9.882
97869SOL    HW195439   4.816   9.617   9.871
97869SOL    HW295440   4.931   9.698   9.814
97870SOL     OW95441   3.570   1.804   1.457
97870SOL    HW195442   3.639   1.800   1.523
97870SOL    HW295443   3.613   1.784   1.375
97871SOL     OW95444  11.789   5.122  10.053
97871SOL    HW195445  11.812   5.183  10.123
97871SOL    HW295446  11.814   5.168   9.973
97872SOL     OW95447  11.203  10.630  11.627
97872SOL    HW195448  11.189  10.566  11.557
97872SOL    HW295449  11.214  10.713  11.582
97873SOL     OW95450  12.424  11.174  13.524
97873SOL    HW195451  12.419  11.079  13.538
97873SOL    HW295452  12.342  11.196  13.480
97874SOL     OW95453   7.220   9.775  11.088
97874SOL    HW195454   7.217   9.748  11.180
97874SOL    HW295455   7.155   9.845  11.082
97875SOL     OW95456   7.346   1.837   5.079
97875SOL    HW195457   7.338   1.932   5.072
97875SOL    HW295458   7.262   1.804   5.048
97876SOL     OW95459  12.542   2.721   9.429
97876SOL    HW195460  12.630   2.684   9.418
97876SOL    HW295461  12.556   2.815   9.437
97877SOL     OW95462   3.554  11.842   5.729
97877SOL    HW195463   3.469  11.845   5.772
97877SOL    HW295464   3.617  11.838   5.801
97878SOL     OW95465  11.392  13.649  10.115
97878SOL    HW195466  11.325  13.656  10.047
97878SOL    HW295467  11.411  13.739  10.141
97879SOL     OW95468   4.859   0.385   7.682
97879SOL    HW195469   4.810   0.305   7.663
97879SOL    HW295470   4.802   0.456   7.651
97880SOL     OW95471  14.158   5.085   5.253
97880SOL    HW195472  14.173   5.122   5.340
97880SOL    HW295473  14.242   5.093   5.209
97881SOL     OW95474  13.846  10.726   7.693
97881SOL    HW195475  13.773  10.786   7.710
97881SOL    HW295476  13.818  10.642   7.730
97882SOL     OW95477  13.231  10.988   2.450
97882SOL    HW195478  13.194  11.075   2.462
97882SOL    HW295479  13.200  10.938   2.525
97883SOL     OW95480  13.748   9.721   0.539
97883SOL    HW195481  13.732   9.810   0.508
97883SOL    HW295482  13.666   9.694   0.580
97884SOL     OW95483  14.460   6.724   8.941
97884SOL    HW195484  14.491   6.705   8.852
97884SOL    HW295485  14.540   6.746   8.990
97885SOL     OW95486   9.002  12.663   0.041
97885SOL    HW195487   8.944  12.740   0.037
97885SOL    HW295488   9.086  12.699   0.070
97886SOL     OW95489   6.887  13.381   6.348
97886SOL    HW195490   6.810  13.351   6.396
97886SOL    HW295491   6.960  13.363   6.407
97887SOL     OW95492  14.117  11.099  12.979
97887SOL    HW195493  14.211  11.115  12.974
97887SOL    HW295494  14.100  11.036  12.909
97888SOL     OW95495   1.229  13.586   7.934
97888SOL    HW195496   1.239  13.679   7.953
97888SOL    HW295497   1.178  13.552   8.007
97889SOL     OW95498   2.014   8.639   0.123
97889SOL    HW195499   2.035   8.666   0.033
97889SOL    HW295500   2.004   8.721   0.171
97890SOL     OW95501   2.588   6.944  12.147
97890SOL    HW195502   2.681   6.955  12.167
97890SOL    HW295503   2.544   7.014  12.195
97891SOL     OW95504   4.568  14.289   8.488
97891SOL    HW195505   4.602  14.199   8.490
97891SOL    HW295506   4.636  14.339   8.444
97892SOL     OW95507  14.335  10.301   9.991
97892SOL    HW195508  14.360  10.270  10.078
97892SOL    HW295509  14.240  10.310   9.995
97893SOL     OW95510   3.285   8.704   8.684
97893SOL    HW195511   3.329   8.623   8.710
97893SOL    HW295512   3.307   8.714   8.591
97894SOL     OW95513   9.019  14.614   8.618
97894SOL    HW195514   8.978  14.672   8.681
97894SOL    HW295515   9.107  14.599   8.653
97895SOL     OW95516   3.204  12.740   1.649
97895SOL    HW195517   3.284  12.773   1.609
97895SOL    HW295518   3.175  12.670   1.592
97896SOL     OW95519   8.359   2.538   8.619
97896SOL    HW195520   8.272   2.520   8.582
97896SOL    HW295521   8.390   2.615   8.572
97897SOL     OW95522   0.125  10.420  11.379
97897SOL    HW195523   0.180  10.368  11.438
97897SOL    HW295524   0.059  10.459  11.437
97898SOL     OW95525  10.164   9.924   1.332
97898SOL    HW195526  10.107   9.884   1.266
97898SOL    HW295527  10.231   9.858   1.348
97899SOL     OW95528   7.673  11.814   5.884
97899SOL    HW195529   7.723  11.751   5.936
97899SOL    HW295530   7.731  11.890   5.877
97900SOL     OW95531   7.074   2.275   6.792
97900SOL    HW195532   7.056   2.305   6.881
97900SOL    HW295533   7.126   2.195   6.804
97901SOL     OW95534   8.198   3.277  13.209
97901SOL    HW195535   8.174   3.206  13.269
97901SOL    HW295536   8.205   3.354  13.265
97902SOL     OW95537   7.778  14.315   7.582
97902SOL    HW195538   7.853  14.267   7.549
97902SOL    HW295539   7.798  14.334   7.673
97903SOL     OW95540   0.275   5.887  11.175
97903SOL    HW195541   0.277   5.886  11.079
97903SOL    HW295542   0.248   5.798  11.198
97904SOL     OW95543  13.215  13.995  14.595
97904SOL    HW195544  13.157  14.048  14.541
97904SOL    HW295545  13.236  13.919  14.540
97905SOL     OW95546   9.990  13.513   2.303
97905SOL    HW195547   9.961  13.604   2.291
97905SOL    HW295548  10.028  13.512   2.391
97906SOL     OW95549   5.215   8.276  12.853
97906SOL    HW195550   5.280   8.208  12.870
97906SOL    HW295551   5.131   8.234  12.867
97907SOL     OW95552   1.659  10.170  12.597
97907SOL    HW195553   1.581  10.128  12.635
97907SOL    HW295554   1.732  10.134  12.647
97908SOL     OW95555  14.661   1.191   6.093
97908SOL    HW195556  14.621   1.233   6.169
97908SOL    HW295557  14.626   1.102   6.094
97909SOL     OW95558  11.122   2.766   8.698
97909SOL    HW195559  11.031   2.743   8.682
97909SOL    HW295560  11.130   2.772   8.793
97910SOL     OW95561  12.979   5.776   3.389
97910SOL    HW195562  12.916   5.847   3.394
97910SOL    HW295563  12.958   5.720   3.464
97911SOL     OW95564   4.665   6.600   6.544
97911SOL    HW195565   4.628   6.652   6.615
97911SOL    HW295566   4.706   6.663   6.486
97912SOL     OW95567  12.130   2.238   0.122
97912SOL    HW195568  12.047   2.237   0.074
97912SOL    HW295569  12.105   2.235   0.214
97913SOL     OW95570   7.763  11.106  11.535
97913SOL    HW195571   7.769  11.054  11.614
97913SOL    HW295572   7.809  11.055  11.468
97914SOL     OW95573   9.530  11.602   5.721
97914SOL    HW195574   9.519  11.686   5.676
97914SOL    HW295575   9.624  11.598   5.740
97915SOL     OW95576   0.811   6.450   1.477
97915SOL    HW195577   0.850   6.398   1.406
97915SOL    HW295578   0.717   6.440   1.465
97916SOL     OW95579   0.003   0.932   2.418
97916SOL    HW195580   0.092   0.952   2.392
97916SOL    HW295581  14.826   1.004   2.384
97917SOL     OW95582   1.330  13.182  10.999
97917SOL    HW195583   1.267  13.120  10.963
97917SOL    HW295584   1.293  13.208  11.083
97918SOL     OW95585  11.432  11.836  12.634
97918SOL    HW195586  11.520  11.869  12.654
97918SOL    HW295587  11.427  11.839  12.538
97919SOL     OW95588   4.599   9.174  11.806
97919SOL    HW195589   4.631   9.164  11.716
97919SOL    HW295590   4.550   9.094  11.823
97920SOL     OW95591  12.841  10.193   3.100
97920SOL    HW195592  12.835  10.191   3.004
97920SOL    HW295593  12.914  10.252   3.117
97921SOL     OW95594   4.503  12.262   4.177
97921SOL    HW195595   4.592  12.289   4.155
97921SOL    HW295596   4.507  12.240   4.270
97922SOL     OW95597   1.781   4.300   4.837
97922SOL    HW195598   1.773   4.302   4.932
97922SOL    HW295599   1.697   4.268   4.806
97923SOL     OW95600  12.365   0.302   8.092
97923SOL    HW195601  12.399   0.346   8.014
97923SOL    HW295602  12.346   0.373   8.153
97924SOL     OW95603  10.339   2.390   8.644
97924SOL    HW195604  10.431   2.412   8.627
97924SOL    HW295605  10.343   2.311   8.699
97925SOL     OW95606   5.810   6.258   5.836
97925SOL    HW195607   5.717   6.242   5.821
97925SOL    HW295608   5.841   6.177   5.878
97926SOL     OW95609   1.392  13.669   1.545
97926SOL    HW195610   1.441  13.721   1.609
97926SOL    HW295611   1.439  13.585   1.541
97927SOL     OW95612  12.772   1.673  10.647
97927SOL    HW195613  12.704   1.734  10.678
97927SOL    HW295614  12.800   1.710  10.564
97928SOL     OW95615   6.723  14.671   9.190
97928SOL    HW195616   6.708  14.766   9.187
97928SOL    HW295617   6.662  14.640   9.256
97929SOL     OW95618   5.022   1.301  11.409
97929SOL    HW195619   5.024   1.215  11.450
97929SOL    HW295620   4.982   1.286  11.324
97930SOL     OW95621   4.611   4.250  13.447
97930SOL    HW195622   4.535   4.232  13.502
97930SOL    HW295623   4.685   4.255  13.508
97931SOL     OW95624   7.162   0.008   4.788
97931SOL    HW195625   7.071  14.856   4.793
97931SOL    HW295626   7.212  14.805   4.812
97932SOL     OW95627  12.891  14.604  10.656
97932SOL    HW195628  12.934  14.538  10.710
97932SOL    HW295629  12.954  14.625  10.588
97933SOL     OW95630   1.690  13.660  14.657
97933SOL    HW195631   1.689  13.755  14.650
97933SOL    HW295632   1.719  13.642  14.746
97934SOL     OW95633   5.988   8.181  14.684
97934SOL    HW195634   5.982   8.268  14.645
97934SOL    HW295635   6.070   8.181  14.733
97935SOL     OW95636   9.145   9.103   1.560
97935SOL    HW195637   9.184   9.189   1.570
97935SOL    HW295638   9.215   9.049   1.522
97936SOL     OW95639   3.405   5.741   3.901
97936SOL    HW195640   3.382   5.831   3.924
97936SOL    HW295641   3.453   5.748   3.820
97937SOL     OW95642   4.450   0.305   5.079
97937SOL    HW195643   4.518   0.325   5.015
97937SOL    HW295644   4.497   0.270   5.154
97938SOL     OW95645   5.387   5.010   7.220
97938SOL    HW195646   5.385   5.072   7.293
97938SOL    HW295647   5.362   4.926   7.260
97939SOL     OW95648   5.250   6.221   2.478
97939SOL    HW195649   5.210   6.165   2.544
97939SOL    HW295650   5.339   6.237   2.509
97940SOL     OW95651  14.645  12.448  14.341
97940SOL    HW195652  14.631  12.354  14.327
97940SOL    HW295653  14.558  12.487  14.334
97941SOL     OW95654  11.590   7.540  14.482
97941SOL    HW195655  11.605   7.599  14.555
97941SOL    HW295656  11.558   7.459  14.522
97942SOL     OW95657  13.203   8.944  10.518
97942SOL    HW195658  13.248   8.913  10.596
97942SOL    HW295659  13.260   8.918  10.446
97943SOL     OW95660  14.095  14.566  12.977
97943SOL    HW195661  14.179  14.563  12.932
97943SOL    HW295662  14.102  14.501  13.047
97944SOL     OW95663   2.250   2.630   2.916
97944SOL    HW195664   2.223   2.539   2.903
97944SOL    HW295665   2.238   2.671   2.830
97945SOL     OW95666  13.303   2.167  12.218
97945SOL    HW195667  13.382   2.191  12.266
97945SOL    HW295668  13.290   2.239  12.156
97946SOL     OW95669   0.058  13.434   2.718
97946SOL    HW195670   0.005  13.419   2.797
97946SOL    HW295671   0.139  13.387   2.734
97947SOL     OW95672   1.266   6.575  14.325
97947SOL    HW195673   1.331   6.531  14.381
97947SOL    HW295674   1.279   6.536  14.239
97948SOL     OW95675   8.478  10.305   4.711
97948SOL    HW195676   8.392  10.327   4.674
97948SOL    HW295677   8.469  10.214   4.739
97949SOL     OW95678   3.825  13.933   9.209
97949SOL    HW195679   3.799  14.020   9.238
97949SOL    HW295680   3.887  13.903   9.276
97950SOL     OW95681   9.229   4.296  14.841
97950SOL    HW195682   9.153   4.322  14.788
97950SOL    HW295683   9.194   4.228   0.023
97951SOL     OW95684  13.163   6.855  13.336
97951SOL    HW195685  13.203   6.885  13.254
97951SOL    HW295686  13.078   6.898  13.340
97952SOL     OW95687  14.036  11.774   6.140
97952SOL    HW195688  14.030  11.836   6.068
97952SOL    HW295689  14.042  11.688   6.098
97953SOL     OW95690  10.654   5.315   8.781
97953SOL    HW195691  10.739   5.275   8.800
97953SOL    HW295692  10.661   5.343   8.690
97954SOL     OW95693   9.133   8.540  14.502
97954SOL    HW195694   9.166   8.458  14.463
97954SOL    HW295695   9.164   8.609  14.443
97955SOL     OW95696  10.425   7.704   8.610
97955SOL    HW195697  10.407   7.798   8.619
97955SOL    HW295698  10.357   7.662   8.662
97956SOL     OW95699   0.072  13.862  14.269
97956SOL    HW195700   0.148  13.849  14.327
97956SOL    HW295701   0.008  13.905  14.324
97957SOL     OW95702  10.071   9.587   0.874
97957SOL    HW195703  10.124   9.659   0.906
97957SOL    HW295704  10.131   9.535   0.820
97958SOL     OW95705   1.856   1.158  13.173
97958SOL    HW195706   1.816   1.110  13.101
97958SOL    HW295707   1.808   1.130  13.250
97959SOL     OW95708  10.760  13.081   2.959
97959SOL    HW195709  10.798  13.099   2.873
97959SOL    HW295710  10.713  12.998   2.947
97960SOL     OW95711   6.980  10.728   1.212
97960SOL    HW195712   6.992  10.749   1.119
97960SOL    HW295713   6.998  10.634   1.219
97961SOL     OW95714   5.770   0.886   0.201
97961SOL    HW195715   5.760   0.915   0.292
97961SOL    HW295716   5.711   0.811   0.194
97962SOL     OW95717   7.206  11.608  14.837
97962SOL    HW195718   7.211  11.703  14.821
97962SOL    HW295719   7.223  11.599   0.055
97963SOL     OW95720   7.043  13.289  10.594
97963SOL    HW195721   7.090  13.281  10.511
97963SOL    HW295722   6.956  13.321  10.570
97964SOL     OW95723   3.276  10.547   9.587
97964SOL    HW195724   3.335  10.490   9.637
97964SOL    HW295725   3.314  10.552   9.500
97965SOL     OW95726  11.908   9.615  14.789
97965SOL    HW195727  11.842   9.547  14.803
97965SOL    HW295728  11.982   9.568  14.750
97966SOL     OW95729   4.460   0.457   6.814
97966SOL    HW195730   4.477   0.368   6.845
97966SOL    HW295731   4.531   0.510   6.851
97967SOL     OW95732  12.110  11.852   6.128
97967SOL    HW195733  12.076  11.853   6.039
97967SOL    HW295734  12.075  11.932   6.168
97968SOL     OW95735   6.163   4.513   1.572
97968SOL    HW195736   6.202   4.601   1.572
97968SOL    HW295737   6.210   4.467   1.502
97969SOL     OW95738   1.482  10.093   2.510
97969SOL    HW195739   1.426  10.137   2.574
97969SOL    HW295740   1.570  10.126   2.528
97970SOL     OW95741   0.008   5.807   7.396
97970SOL    HW195742  14.855   5.889   7.436
97970SOL    HW295743  14.805   5.770   7.357
97971SOL     OW95744  13.366   2.016   5.936
97971SOL    HW195745  13.275   2.019   5.964
97971SOL    HW295746  13.417   2.030   6.016
97972SOL     OW95747  13.317   6.091   2.409
97972SOL    HW195748  13.251   6.034   2.447
97972SOL    HW295749  13.386   6.095   2.475
97973SOL     OW95750   2.374   7.967   2.170
97973SOL    HW195751   2.367   7.931   2.259
97973SOL    HW295752   2.299   7.930   2.124
97974SOL     OW95753   2.485  10.670   9.840
97974SOL    HW195754   2.518  10.744   9.789
97974SOL    HW295755   2.474  10.704   9.928
97975SOL     OW95756   3.686   0.616   4.124
97975SOL    HW195757   3.737   0.685   4.167
97975SOL    HW295758   3.751   0.550   4.100
97976SOL     OW95759   3.003  13.407  14.572
97976SOL    HW195760   3.003  13.469  14.499
97976SOL    HW295761   3.021  13.461  14.649
97977SOL     OW95762   2.626   5.754   9.151
97977SOL    HW195763   2.568   5.682   9.126
97977SOL    HW295764   2.707   5.711   9.179
97978SOL     OW95765   6.144   5.361   4.869
97978SOL    HW195766   6.107   5.404   4.791
97978SOL    HW295767   6.114   5.270   4.862
97979SOL     OW95768   5.012   1.061   1.494
97979SOL    HW195769   5.045   1.122   1.561
97979SOL    HW295770   4.987   0.983   1.544
97980SOL     OW95771   3.239   6.478   4.391
97980SOL    HW195772   3.298   6.486   4.466
97980SOL    HW295773   3.278   6.408   4.338
97981SOL     OW95774   5.578  14.244  12.852
97981SOL    HW195775   5.495  14.218  12.890
97981SOL    HW295776   5.554  14.301  12.779
97982SOL     OW95777  13.850   8.202  14.471
97982SOL    HW195778  13.846   8.189  14.565
97982SOL    HW295779  13.934   8.246  14.457
97983SOL     OW95780  14.547   8.638  11.143
97983SOL    HW195781  14.579   8.691  11.071
97983SOL    HW295782  14.452   8.636  11.132
97984SOL     OW95783  12.388  13.833   8.010
97984SOL    HW195784  12.443  13.815   7.933
97984SOL    HW295785  12.426  13.778   8.079
97985SOL     OW95786   6.682  14.536  11.352
97985SOL    HW195787   6.676  14.508  11.261
97985SOL    HW295788   6.702  14.630  11.347
97986SOL     OW95789  14.335   8.852   1.402
97986SOL    HW195790  14.375   8.925   1.355
97986SOL    HW295791  14.302   8.794   1.334
97987SOL     OW95792   1.178   6.923   3.888
97987SOL    HW195793   1.103   6.901   3.943
97987SOL    HW295794   1.176   7.019   3.883
97988SOL     OW95795  11.666   6.341   6.747
97988SOL    HW195796  11.691   6.322   6.837
97988SOL    HW295797  11.718   6.281   6.694
97989SOL     OW95798  14.617  10.675   7.802
97989SOL    HW195799  14.597  10.615   7.874
97989SOL    HW295800  14.533  10.718   7.783
97990SOL     OW95801  12.826   1.321  11.007
97990SOL    HW195802  12.900   1.330  10.947
97990SOL    HW295803  12.772   1.399  10.991
97991SOL     OW95804   9.255  12.993   5.533
97991SOL    HW195805   9.164  12.980   5.509
97991SOL    HW295806   9.291  12.905   5.540
97992SOL     OW95807  11.789   0.974   8.633
97992SOL    HW195808  11.697   1.000   8.628
97992SOL    HW295809  11.832   1.022   8.562
97993SOL     OW95810   0.265   4.078   8.169
97993SOL    HW195811   0.203   4.013   8.136
97993SOL    HW295812   0.334   4.081   8.104
97994SOL     OW95813  12.001   4.143   6.551
97994SOL    HW195814  12.045   4.129   6.634
97994SOL    HW295815  11.932   4.206   6.570
97995SOL     OW95816   5.893  12.744  10.378
97995SOL    HW195817   5.803  12.770  10.398
97995SOL    HW295818   5.888  12.701  10.293
97996SOL     OW95819   7.309  13.896  11.580
97996SOL    HW195820   7.325  13.836  11.507
97996SOL    HW295821   7.252  13.846  11.639
97997SOL     OW95822   5.884   3.868   6.914
97997SOL    HW195823   5.908   3.957   6.888
97997SOL    HW295824   5.900   3.815   6.836
97998SOL     OW95825   2.912   2.868  10.538
97998SOL    HW195826   2.885   2.932  10.604
97998SOL    HW295827   3.002   2.895  10.516
97999SOL     OW95828   6.800   5.128   1.222
97999SOL    HW195829   6.717   5.120   1.268
97999SOL    HW295830   6.775   5.146   1.131
98000SOL     OW95831  10.132   2.384   9.760
98000SOL    HW195832  10.130   2.315   9.826
98000SOL    HW295833  10.090   2.459   9.802
98001SOL     OW95834  13.464   0.344  11.704
98001SOL    HW195835  13.529   0.402  11.744
98001SOL    HW295836  13.410   0.402  11.650
98002SOL     OW95837   5.197   0.767   6.925
98002SOL    HW195838   5.144   0.826   6.979
98002SOL    HW295839   5.223   0.697   6.984
98003SOL     OW95840   6.429  14.875  12.479
98003SOL    HW195841   6.461  14.831  12.400
98003SOL    HW295842   6.480   0.080  12.484
98004SOL     OW95843   2.990   2.962  13.798
98004SOL    HW195844   2.916   2.926  13.749
98004SOL    HW295845   3.001   3.050  13.762
98005SOL     OW95846  12.111  10.484   7.082
98005SOL    HW195847  12.099  10.568   7.038
98005SOL    HW295848  12.206  10.477   7.095
98006SOL     OW95849   8.217   0.895   9.459
98006SOL    HW195850   8.142   0.944   9.425
98006SOL    HW295851   8.266   0.869   9.381
98007SOL     OW95852   4.500  12.190   0.312
98007SOL    HW195853   4.437  12.127   0.346
98007SOL    HW295854   4.457  12.275   0.321
98008SOL     OW95855   0.313   2.512   1.046
98008SOL    HW195856   0.354   2.475   0.968
98008SOL    HW295857   0.366   2.480   1.119
98009SOL     OW95858   6.146   1.826  12.853
98009SOL    HW195859   6.075   1.835  12.917
98009SOL    HW295860   6.224   1.807  12.907
98010SOL     OW95861   6.194   8.180   2.487
98010SOL    HW195862   6.215   8.149   2.575
98010SOL    HW295863   6.106   8.218   2.495
98011SOL     OW95864  10.341   5.948  13.460
98011SOL    HW195865  10.412   5.930  13.522
98011SOL    HW295866  10.327   6.042  13.467
98012SOL     OW95867   6.336   1.078   8.571
98012SOL    HW195868   6.348   1.171   8.550
98012SOL    HW295869   6.411   1.034   8.530
98013SOL     OW95870  13.443  12.049   6.679
98013SOL    HW195871  13.442  11.966   6.631
98013SOL    HW295872  13.362  12.047   6.730
98014SOL     OW95873  13.732   8.311   1.110
98014SOL    HW195874  13.683   8.252   1.052
98014SOL    HW295875  13.727   8.396   1.066
98015SOL     OW95876   3.411   6.716  10.641
98015SOL    HW195877   3.422   6.630  10.599
98015SOL    HW295878   3.462   6.709  10.722
98016SOL     OW95879   2.219   6.504   3.722
98016SOL    HW195880   2.248   6.575   3.781
98016SOL    HW295881   2.221   6.426   3.777
98017SOL     OW95882   2.554   4.390   0.499
98017SOL    HW195883   2.494   4.465   0.498
98017SOL    HW295884   2.511   4.325   0.444
98018SOL     OW95885   2.312   1.101   8.217
98018SOL    HW195886   2.282   1.184   8.180
98018SOL    HW295887   2.245   1.078   8.282
98019SOL     OW95888  12.462  13.166   2.272
98019SOL    HW195889  12.367  13.153   2.264
98019SOL    HW295890  12.499  13.115   2.200
98020SOL     OW95891   6.372  11.921   4.439
98020SOL    HW195892   6.391  11.856   4.372
98020SOL    HW295893   6.449  11.978   4.439
98021SOL     OW95894   3.877  12.439   2.585
98021SOL    HW195895   3.862  12.350   2.617
98021SOL    HW295896   3.904  12.488   2.662
98022SOL     OW95897   1.742   1.496   4.601
98022SOL    HW195898   1.750   1.592   4.596
98022SOL    HW295899   1.648   1.481   4.607
98023SOL     OW95900   4.140   5.816  14.804
98023SOL    HW195901   4.052   5.797  14.835
98023SOL    HW295902   4.197   5.798   0.003
98024SOL     OW95903  13.590   4.791   0.318
98024SOL    HW195904  13.573   4.698   0.309
98024SOL    HW295905  13.503   4.831   0.326
98025SOL     OW95906   5.576   4.882   3.372
98025SOL    HW195907   5.605   4.972   3.359
98025SOL    HW295908   5.517   4.865   3.299
98026SOL     OW95909   9.116   2.352   3.006
98026SOL    HW195910   9.032   2.306   3.008
98026SOL    HW295911   9.139   2.363   3.098
98027SOL     OW95912   4.277   0.680   2.870
98027SOL    HW195913   4.204   0.742   2.861
98027SOL    HW295914   4.318   0.703   2.953
98028SOL     OW95915   2.409   4.057   3.567
98028SOL    HW195916   2.469   4.120   3.607
98028SOL    HW295917   2.324   4.101   3.568
98029SOL     OW95918   3.868   4.529   0.158
98029SOL    HW195919   3.858   4.437   0.180
98029SOL    HW295920   3.962   4.542   0.152
98030SOL     OW95921  10.492  11.412  13.015
98030SOL    HW195922  10.523  11.383  13.101
98030SOL    HW295923  10.400  11.435  13.030
98031SOL     OW95924   6.221  13.483   1.904
98031SOL    HW195925   6.228  13.556   1.842
98031SOL    HW295926   6.164  13.420   1.861
98032SOL     OW95927   5.685  11.565   8.114
98032SOL    HW195928   5.668  11.655   8.142
98032SOL    HW295929   5.597  11.527   8.103
98033SOL     OW95930  10.650  11.034  12.509
98033SOL    HW195931  10.711  11.090  12.461
98033SOL    HW295932  10.568  11.082  12.511
98034SOL     OW95933  12.652   0.842   3.908
98034SOL    HW195934  12.558   0.847   3.891
98034SOL    HW295935  12.691   0.816   3.824
98035SOL     OW95936   6.341  13.798  12.349
98035SOL    HW195937   6.312  13.718  12.305
98035SOL    HW295938   6.436  13.796  12.342
98036SOL     OW95939   4.613   0.251   2.513
98036SOL    HW195940   4.566   0.319   2.464
98036SOL    HW295941   4.604   0.172   2.459
98037SOL     OW95942   9.031   9.801   7.916
98037SOL    HW195943   9.098   9.868   7.909
98037SOL    HW295944   8.949   9.849   7.926
98038SOL     OW95945   7.005  12.181  10.613
98038SOL    HW195946   7.008  12.130  10.533
98038SOL    HW295947   7.085  12.233  10.611
98039SOL     OW95948  14.515   8.273   8.236
98039SOL    HW195949  14.513   8.222   8.155
98039SOL    HW295950  14.454   8.229   8.295
98040SOL     OW95951   2.380   0.282   7.616
98040SOL    HW195952   2.409   0.368   7.644
98040SOL    HW295953   2.378   0.287   7.521
98041SOL     OW95954   9.753  10.020   0.009
98041SOL    HW195955   9.814  10.093   0.021
98041SOL    HW295956   9.754   9.973   0.092
98042SOL     OW95957   4.291   0.920   5.705
98042SOL    HW195958   4.279   0.826   5.721
98042SOL    HW295959   4.203   0.956   5.710
98043SOL     OW95960   7.651   8.393   5.592
98043SOL    HW195961   7.745   8.391   5.610
98043SOL    HW295962   7.637   8.477   5.548
98044SOL     OW95963  12.376   5.328   3.821
98044SOL    HW195964  12.455   5.291   3.780
98044SOL    HW295965  12.410   5.383   3.891
98045SOL     OW95966  11.587   0.301  11.740
98045SOL    HW195967  11.667   0.331  11.696
98045SOL    HW295968  11.586   0.207  11.723
98046SOL     OW95969  12.774   4.760   2.180
98046SOL    HW195970  12.826   4.840   2.189
98046SOL    HW295971  12.833   4.689   2.206
98047SOL     OW95972   7.124  12.658   0.386
98047SOL    HW195973   7.089  12.631   0.471
98047SOL    HW295974   7.193  12.721   0.407
98048SOL     OW95975   9.321   4.122  14.615
98048SOL    HW195976   9.294   4.203  14.657
98048SOL    HW295977   9.311   4.139  14.521
98049SOL     OW95978  13.318  12.454  14.694
98049SOL    HW195979  13.274  12.396  14.632
98049SOL    HW295980  13.324  12.403  14.775
98050SOL     OW95981   3.278   5.182  12.738
98050SOL    HW195982   3.346   5.248  12.745
98050SOL    HW295983   3.213   5.207  12.804
98051SOL     OW95984  11.730   3.455   2.261
98051SOL    HW195985  11.666   3.489   2.322
98051SOL    HW295986  11.805   3.429   2.315
98052SOL     OW95987   4.711  12.812  13.492
98052SOL    HW195988   4.697  12.890  13.547
98052SOL    HW295989   4.669  12.741  13.541
98053SOL     OW95990   3.062  10.571  13.275
98053SOL    HW195991   3.093  10.574  13.185
98053SOL    HW295992   3.142  10.565  13.328
98054SOL     OW95993   7.015   1.292  13.408
98054SOL    HW195994   7.082   1.351  13.372
98054SOL    HW295995   7.064   1.217  13.442
98055SOL     OW95996  11.245   4.897   2.858
98055SOL    HW195997  11.325   4.867   2.900
98055SOL    HW295998  11.251   4.993   2.861
98056SOL     OW95999   8.161  12.340   2.306
98056SOL    HW196000   8.121  12.416   2.348
98056SOL    HW296001   8.097  12.270   2.317
98057SOL     OW96002   9.060   8.879   8.274
98057SOL    HW196003   9.032   8.792   8.245
98057SOL    HW296004   9.043   8.878   8.369
98058SOL     OW96005   1.602   8.798  14.512
98058SOL    HW196006   1.589   8.813  14.419
98058SOL    HW296007   1.692   8.764  14.518
98059SOL     OW96008   9.828  12.579  10.615
98059SOL    HW196009   9.917  12.596  10.647
98059SOL    HW296010   9.778  12.657  10.639
98060SOL     OW96011   4.389   6.707   9.226
98060SOL    HW196012   4.435   6.644   9.171
98060SOL    HW296013   4.336   6.758   9.165
98061SOL     OW96014   0.228   4.943   4.565
98061SOL    HW196015   0.166   4.885   4.609
98061SOL    HW296016   0.314   4.912   4.594
98062SOL     OW96017   4.965   9.327   2.694
98062SOL    HW196018   4.896   9.385   2.661
98062SOL    HW296019   4.939   9.240   2.665
98063SOL     OW96020   2.575   9.861  14.100
98063SOL    HW196021   2.484   9.859  14.069
98063SOL    HW296022   2.605   9.771  14.091
98064SOL     OW96023   4.793  11.249  12.386
98064SOL    HW196024   4.801  11.342  12.410
98064SOL    HW296025   4.730  11.249  12.313
98065SOL     OW96026   4.679   8.530  10.734
98065SOL    HW196027   4.648   8.481  10.811
98065SOL    HW296028   4.633   8.489  10.661
98066SOL     OW96029  11.845   7.255   3.730
98066SOL    HW196030  11.880   7.214   3.650
98066SOL    HW296031  11.827   7.182   3.789
98067SOL     OW96032   4.065  12.531  10.678
98067SOL    HW196033   4.018  12.544  10.760
98067SOL    HW296034   4.147  12.490  10.704
98068SOL     OW96035   2.502   6.340   9.622
98068SOL    HW196036   2.561   6.414   9.605
98068SOL    HW296037   2.558   6.274   9.665
98069SOL     OW96038   2.178   1.352  12.010
98069SOL    HW196039   2.262   1.399  12.012
98069SOL    HW296040   2.114   1.420  11.990
98070SOL     OW96041  10.350   3.178   4.756
98070SOL    HW196042  10.395   3.256   4.724
98070SOL    HW296043  10.272   3.212   4.800
98071SOL     OW96044   0.902  10.469  14.141
98071SOL    HW196045   0.953  10.392  14.165
98071SOL    HW296046   0.968  10.537  14.126
98072SOL     OW96047   9.320  14.831   9.183
98072SOL    HW196048   9.404  14.787   9.173
98072SOL    HW296049   9.265  14.768   9.230
98073SOL     OW96050   0.603   4.321  11.402
98073SOL    HW196051   0.563   4.302  11.317
98073SOL    HW296052   0.559   4.401  11.432
98074SOL     OW96053   0.339  12.636   8.548
98074SOL    HW196054   0.321  12.714   8.496
98074SOL    HW296055   0.254  12.592   8.556
98075SOL     OW96056  13.855  14.221  12.522
98075SOL    HW196057  13.842  14.315  12.520
98075SOL    HW296058  13.792  14.186  12.458
98076SOL     OW96059   5.115  13.400  14.585
98076SOL    HW196060   5.194  13.370  14.541
98076SOL    HW296061   5.133  13.390  14.678
98077SOL     OW96062   0.272   5.093  10.219
98077SOL    HW196063   0.306   5.095  10.309
98077SOL    HW296064   0.349   5.074  10.166
98078SOL     OW96065   4.621   4.948  14.011
98078SOL    HW196066   4.673   4.968  14.088
98078SOL    HW296067   4.635   4.855  13.995
98079SOL     OW96068  13.883   8.836   7.784
98079SOL    HW196069  13.917   8.895   7.716
98079SOL    HW296070  13.823   8.778   7.737
98080SOL     OW96071   7.614   5.362   5.136
98080SOL    HW196072   7.683   5.428   5.146
98080SOL    HW296073   7.539   5.410   5.103
98081SOL     OW96074  12.152   3.891   2.996
98081SOL    HW196075  12.105   3.846   3.066
98081SOL    HW296076  12.137   3.984   3.013
98082SOL     OW96077   8.366   9.298   8.111
98082SOL    HW196078   8.403   9.238   8.175
98082SOL    HW296079   8.362   9.382   8.156
98083SOL     OW96080   7.347   1.495   5.519
98083SOL    HW196081   7.413   1.457   5.461
98083SOL    HW296082   7.312   1.421   5.568
98084SOL     OW96083   5.906  12.558   8.830
98084SOL    HW196084   5.941  12.486   8.882
98084SOL    HW296085   5.811  12.547   8.834
98085SOL     OW96086   9.228  10.536  11.438
98085SOL    HW196087   9.321  10.539  11.416
98085SOL    HW296088   9.187  10.494  11.363
98086SOL     OW96089   2.231   8.679   8.335
98086SOL    HW196090   2.152   8.725   8.307
98086SOL    HW296091   2.249   8.618   8.264
98087SOL     OW96092   0.749  11.819   5.300
98087SOL    HW196093   0.680  11.756   5.317
98087SOL    HW296094   0.730  11.892   5.359
98088SOL     OW96095   1.429   7.089   2.396
98088SOL    HW196096   1.448   7.121   2.307
98088SOL    HW296097   1.471   7.153   2.453
98089SOL     OW96098   0.960   0.798  10.604
98089SOL    HW196099   0.915   0.730  10.554
98089SOL    HW296100   0.889   0.848  10.645
98090SOL     OW96101   9.723  10.077  14.594
98090SOL    HW196102   9.817  10.058  14.592
98090SOL    HW296103   9.703  10.091  14.686
98091SOL     OW96104   4.664  12.270   9.614
98091SOL    HW196105   4.617  12.314   9.685
98091SOL    HW296106   4.644  12.323   9.536
98092SOL     OW96107   6.269   5.138   6.344
98092SOL    HW196108   6.287   5.073   6.411
98092SOL    HW296109   6.182   5.117   6.312
98093SOL     OW96110   1.786  13.708   1.143
98093SOL    HW196111   1.825  13.665   1.067
98093SOL    HW296112   1.729  13.642   1.182
98094SOL     OW96113  13.697  12.439  13.550
98094SOL    HW196114  13.630  12.416  13.486
98094SOL    HW296115  13.748  12.508  13.509
98095SOL     OW96116   5.528  12.949   0.810
98095SOL    HW196117   5.467  12.921   0.743
98095SOL    HW296118   5.609  12.901   0.791
98096SOL     OW96119   4.044  14.628   5.998
98096SOL    HW196120   3.981  14.575   6.047
98096SOL    HW296121   4.078  14.568   5.931
98097SOL     OW96122  12.674  10.477   2.482
98097SOL    HW196123  12.594  10.426   2.469
98097SOL    HW296124  12.727  10.424   2.542
98098SOL     OW96125   9.217   3.450  10.414
98098SOL    HW196126   9.177   3.481  10.496
98098SOL    HW296127   9.143   3.445  10.352
98099SOL     OW96128   4.601  11.725  10.630
98099SOL    HW196129   4.507  11.740  10.631
98099SOL    HW296130   4.627  11.732  10.538
98100SOL     OW96131  12.640   5.393  11.509
98100SOL    HW196132  12.547   5.391  11.531
98100SOL    HW296133  12.643   5.387  11.413
98101SOL     OW96134   4.845   9.799   8.460
98101SOL    HW196135   4.923   9.747   8.443
98101SOL    HW296136   4.879   9.883   8.492
98102SOL     OW96137   5.699   4.923   5.202
98102SOL    HW196138   5.769   4.974   5.242
98102SOL    HW296139   5.689   4.960   5.114
98103SOL     OW96140  10.405   2.901  13.040
98103SOL    HW196141  10.464   2.973  13.018
98103SOL    HW296142  10.404   2.847  12.961
98104SOL     OW96143   8.843   6.878  13.771
98104SOL    HW196144   8.857   6.873  13.677
98104SOL    HW296145   8.804   6.965  13.785
98105SOL     OW96146   0.975   1.653   0.836
98105SOL    HW196147   1.044   1.687   0.779
98105SOL    HW296148   0.992   1.559   0.843
98106SOL     OW96149  14.132   2.629   7.559
98106SOL    HW196150  14.190   2.586   7.622
98106SOL    HW296151  14.188   2.646   7.483
98107SOL     OW96152  12.905   1.963   3.449
98107SOL    HW196153  12.996   1.992   3.458
98107SOL    HW296154  12.854   2.044   3.450
98108SOL     OW96155   0.048   9.843   2.383
98108SOL    HW196156   0.085   9.787   2.452
98108SOL    HW296157  14.829   9.832   2.392
98109SOL     OW96158   1.498   9.935  11.927
98109SOL    HW196159   1.573   9.991  11.909
98109SOL    HW296160   1.485   9.885  11.846
98110SOL     OW96161   2.967   7.109  13.511
98110SOL    HW196162   3.006   7.079  13.429
98110SOL    HW296163   2.897   7.046  13.528
98111SOL     OW96164  11.515  11.684   1.538
98111SOL    HW196165  11.509  11.619   1.468
98111SOL    HW296166  11.590  11.656   1.590
98112SOL     OW96167   5.228   7.739   6.515
98112SOL    HW196168   5.250   7.740   6.609
98112SOL    HW296169   5.309   7.767   6.472
98113SOL     OW96170   3.772   9.423  12.376
98113SOL    HW196171   3.760   9.374  12.458
98113SOL    HW296172   3.705   9.491  12.378
98114SOL     OW96173   4.404   4.302   8.137
98114SOL    HW196174   4.347   4.226   8.153
98114SOL    HW296175   4.493   4.267   8.147
98115SOL     OW96176   7.496  11.634   8.682
98115SOL    HW196177   7.459  11.547   8.671
98115SOL    HW296178   7.585  11.619   8.712
98116SOL     OW96179   5.537  10.824  12.853
98116SOL    HW196180   5.526  10.826  12.948
98116SOL    HW296181   5.565  10.912  12.830
98117SOL     OW96182  14.492   7.451   2.166
98117SOL    HW196183  14.522   7.375   2.116
98117SOL    HW296184  14.408   7.474   2.127
98118SOL     OW96185  10.295   9.058   7.799
98118SOL    HW196186  10.348   9.102   7.865
98118SOL    HW296187  10.298   8.965   7.823
98119SOL     OW96188   0.828   9.467   9.787
98119SOL    HW196189   0.771   9.390   9.790
98119SOL    HW296190   0.823   9.498   9.697
98120SOL     OW96191   1.514   0.531   1.322
98120SOL    HW196192   1.426   0.554   1.291
98120SOL    HW296193   1.516   0.435   1.319
98121SOL     OW96194  12.716  13.105   1.748
98121SOL    HW196195  12.765  13.151   1.816
98121SOL    HW296196  12.774  13.106   1.672
98122SOL     OW96197   5.128  13.137   4.260
98122SOL    HW196198   5.213  13.097   4.246
98122SOL    HW296199   5.081  13.123   4.178
98123SOL     OW96200   4.299   7.357   4.937
98123SOL    HW196201   4.236   7.412   4.890
98123SOL    HW296202   4.379   7.409   4.939
98124SOL     OW96203  10.368   9.823   6.609
98124SOL    HW196204  10.355   9.734   6.644
98124SOL    HW296205  10.457   9.846   6.634
98125SOL     OW96206   4.025   4.919   9.884
98125SOL    HW196207   3.930   4.908   9.887
98125SOL    HW296208   4.039   5.013   9.896
98126SOL     OW96209   9.210   7.163   9.361
98126SOL    HW196210   9.136   7.211   9.399
98126SOL    HW296211   9.180   7.139   9.273
98127SOL     OW96212  11.162  12.383   6.265
98127SOL    HW196213  11.130  12.472   6.275
98127SOL    HW296214  11.088  12.335   6.228
98128SOL     OW96215   1.976   1.185   4.378
98128SOL    HW196216   1.957   1.277   4.358
98128SOL    HW296217   2.032   1.188   4.456
98129SOL     OW96218   2.760   3.847   5.193
98129SOL    HW196219   2.826   3.901   5.149
98129SOL    HW296220   2.728   3.789   5.124
98130SOL     OW96221   0.317   9.874   6.816
98130SOL    HW196222   0.278   9.812   6.877
98130SOL    HW296223   0.389   9.914   6.865
98131SOL     OW96224   1.718   1.408  13.010
98131SOL    HW196225   1.729   1.313  13.004
98131SOL    HW296226   1.709   1.425  13.104
98132SOL     OW96227   2.760   6.255  13.544
98132SOL    HW196228   2.834   6.210  13.585
98132SOL    HW296229   2.781   6.254  13.450
98133SOL     OW96230   0.462   2.186   6.674
98133SOL    HW196231   0.409   2.115   6.710
98133SOL    HW296232   0.400   2.257   6.658
98134SOL     OW96233   4.526   9.551   3.579
98134SOL    HW196234   4.525   9.491   3.654
98134SOL    HW296235   4.610   9.534   3.536
98135SOL     OW96236   0.069  10.124   1.271
98135SOL    HW196237   0.082  10.038   1.313
98135SOL    HW296238   0.149  10.173   1.292
98136SOL     OW96239  14.002  13.613  14.431
98136SOL    HW196240  13.928  13.617  14.492
98136SOL    HW296241  14.078  13.635  14.484
98137SOL     OW96242   7.426  12.851   4.755
98137SOL    HW196243   7.395  12.912   4.822
98137SOL    HW296244   7.397  12.765   4.784
98138SOL     OW96245  10.615   3.226  11.570
98138SOL    HW196246  10.528   3.268  11.565
98138SOL    HW296247  10.676   3.299  11.562
98139SOL     OW96248  12.672  14.837   6.484
98139SOL    HW196249  12.764  14.827   6.460
98139SOL    HW296250  12.624  14.799   6.410
98140SOL     OW96251  12.315  12.421   2.919
98140SOL    HW196252  12.360  12.337   2.932
98140SOL    HW296253  12.359  12.481   2.979
98141SOL     OW96254  12.904   6.602   5.045
98141SOL    HW196255  12.857   6.668   5.097
98141SOL    HW296256  12.914   6.642   4.959
98142SOL     OW96257  12.026  12.730  13.066
98142SOL    HW196258  12.068  12.815  13.078
98142SOL    HW296259  12.065  12.675  13.134
98143SOL     OW96260   8.072  11.312  11.297
98143SOL    HW196261   8.095  11.264  11.376
98143SOL    HW296262   7.991  11.271  11.266
98144SOL     OW96263  12.314   9.387   5.215
98144SOL    HW196264  12.228   9.427   5.230
98144SOL    HW296265  12.372   9.461   5.199
98145SOL     OW96266   6.305   8.359   2.293
98145SOL    HW196267   6.306   8.322   2.205
98145SOL    HW296268   6.266   8.290   2.347
98146SOL     OW96269  13.383  12.597   9.323
98146SOL    HW196270  13.371  12.592   9.417
98146SOL    HW296271  13.471  12.633   9.311
98147SOL     OW96272   0.204   3.219  12.964
98147SOL    HW196273   0.270   3.286  12.984
98147SOL    HW296274   0.237   3.140  13.006
98148SOL     OW96275   6.348   2.028   4.027
98148SOL    HW196276   6.280   1.973   4.066
98148SOL    HW296277   6.300   2.098   3.983
98149SOL     OW96278  10.341   1.374   2.707
98149SOL    HW196279  10.261   1.405   2.749
98149SOL    HW296280  10.333   1.279   2.706
98150SOL     OW96281   0.790   1.541   1.286
98150SOL    HW196282   0.790   1.553   1.191
98150SOL    HW296283   0.872   1.496   1.304
98151SOL     OW96284  10.697   1.983  11.056
98151SOL    HW196285  10.781   2.029  11.050
98151SOL    HW296286  10.675   1.986  11.149
98152SOL     OW96287   3.558   2.729   4.767
98152SOL    HW196288   3.634   2.787   4.763
98152SOL    HW296289   3.489   2.783   4.805
98153SOL     OW96290   8.755   8.782   8.419
98153SOL    HW196291   8.742   8.687   8.411
98153SOL    HW296292   8.775   8.811   8.330
98154SOL     OW96293   9.924   0.340   6.604
98154SOL    HW196294   9.851   0.278   6.603
98154SOL    HW296295  10.002   0.286   6.593
98155SOL     OW96296   5.451  10.352   5.132
98155SOL    HW196297   5.474  10.327   5.042
98155SOL    HW296298   5.371  10.404   5.122
98156SOL     OW96299   8.949  10.030   5.077
98156SOL    HW196300   8.888  10.030   5.151
98156SOL    HW296301   9.018   9.969   5.103
98157SOL     OW96302   5.127   9.438   8.744
98157SOL    HW196303   5.085   9.436   8.658
98157SOL    HW296304   5.157   9.528   8.755
98158SOL     OW96305   0.087   9.116   9.294
98158SOL    HW196306   0.103   9.042   9.236
98158SOL    HW296307   0.137   9.096   9.373
98159SOL     OW96308   3.934  11.291   8.069
98159SOL    HW196309   3.994  11.360   8.041
98159SOL    HW296310   3.982  11.245   8.138
98160SOL     OW96311   2.694  13.928   6.091
98160SOL    HW196312   2.622  13.885   6.045
98160SOL    HW296313   2.653  14.003   6.134
98161SOL     OW96314   9.555   7.103   7.986
98161SOL    HW196315   9.567   7.157   7.909
98161SOL    HW296316   9.622   7.133   8.048
98162SOL     OW96317   8.225  13.115  11.643
98162SOL    HW196318   8.264  13.089  11.560
98162SOL    HW296319   8.297  13.118  11.705
98163SOL     OW96320   8.032   8.843   8.395
98163SOL    HW196321   8.115   8.800   8.415
98163SOL    HW296322   7.966   8.779   8.422
98164SOL     OW96323   0.457   4.079   1.043
98164SOL    HW196324   0.393   4.016   1.075
98164SOL    HW296325   0.409   4.161   1.035
98165SOL     OW96326   4.345   5.190  14.225
98165SOL    HW196327   4.303   5.276  14.220
98165SOL    HW296328   4.437   5.210  14.246
98166SOL     OW96329   9.043   0.223  10.279
98166SOL    HW196330   9.097   0.282  10.331
98166SOL    HW296331   8.957   0.265  10.277
98167SOL     OW96332  13.310   0.284   9.593
98167SOL    HW196333  13.295   0.376   9.617
98167SOL    HW296334  13.261   0.234   9.659
98168SOL     OW96335   1.283   3.260   5.399
98168SOL    HW196336   1.219   3.290   5.334
98168SOL    HW296337   1.297   3.336   5.456
98169SOL     OW96338   2.775  13.069   0.688
98169SOL    HW196339   2.859  13.059   0.731
98169SOL    HW296340   2.716  13.011   0.736
98170SOL     OW96341   1.545   5.443   2.725
98170SOL    HW196342   1.573   5.421   2.814
98170SOL    HW296343   1.495   5.524   2.735
98171SOL     OW96344  10.300  12.066   8.133
98171SOL    HW196345  10.252  12.142   8.101
98171SOL    HW296346  10.235  11.996   8.137
98172SOL     OW96347   3.301   5.108   2.470
98172SOL    HW196348   3.227   5.058   2.504
98172SOL    HW296349   3.372   5.091   2.531
98173SOL     OW96350  12.770   3.731   2.609
98173SOL    HW196351  12.697   3.792   2.609
98173SOL    HW296352  12.771   3.696   2.698
98174SOL     OW96353  10.904  13.822   2.926
98174SOL    HW196354  10.870  13.839   3.013
98174SOL    HW296355  10.984  13.874   2.920
98175SOL     OW96356   9.533  11.076   0.352
98175SOL    HW196357   9.595  11.147   0.371
98175SOL    HW296358   9.447  11.118   0.353
98176SOL     OW96359  14.631  11.707   0.114
98176SOL    HW196360  14.570  11.637   0.135
98176SOL    HW296361  14.705  11.692   0.173
98177SOL     OW96362  14.869  10.467   1.336
98177SOL    HW196363  14.781  10.485   1.302
98177SOL    HW296364   0.039  10.427   1.262
98178SOL     OW96365   6.467   2.121   8.273
98178SOL    HW196366   6.475   2.181   8.199
98178SOL    HW296367   6.390   2.152   8.321
98179SOL     OW96368   5.347   4.145   3.891
98179SOL    HW196369   5.296   4.063   3.892
98179SOL    HW296370   5.434   4.119   3.922
98180SOL     OW96371   9.865   8.412   9.615
98180SOL    HW196372   9.846   8.325   9.578
98180SOL    HW296373   9.849   8.472   9.542
98181SOL     OW96374   4.888  13.302  12.316
98181SOL    HW196375   4.965  13.337  12.361
98181SOL    HW296376   4.818  13.306  12.382
98182SOL     OW96377   3.561   1.064  14.415
98182SOL    HW196378   3.500   1.134  14.391
98182SOL    HW296379   3.575   1.016  14.333
98183SOL     OW96380   5.714  10.037  13.533
98183SOL    HW196381   5.679  10.094  13.602
98183SOL    HW296382   5.805  10.022  13.559
98184SOL     OW96383   8.991   9.643  12.697
98184SOL    HW196384   8.937   9.719  12.720
98184SOL    HW296385   9.079   9.679  12.685
98185SOL     OW96386   0.778   1.155  11.186
98185SOL    HW196387   0.725   1.142  11.107
98185SOL    HW296388   0.776   1.070  11.229
98186SOL     OW96389  10.097   4.732  12.515
98186SOL    HW196390  10.013   4.737  12.561
98186SOL    HW296391  10.090   4.652  12.463
98187SOL     OW96392   2.627   0.242   0.049
98187SOL    HW196393   2.703   0.184   0.052
98187SOL    HW296394   2.620   0.276   0.138
98188SOL     OW96395   6.543   0.425  13.968
98188SOL    HW196396   6.607   0.382  14.024
98188SOL    HW296397   6.477   0.357  13.950
98189SOL     OW96398   0.489   1.226   6.219
98189SOL    HW196399   0.491   1.248   6.312
98189SOL    HW296400   0.400   1.195   6.203
98190SOL     OW96401  14.784   1.323   1.724
98190SOL    HW196402  14.750   1.247   1.678
98190SOL    HW296403   0.001   1.326   1.700
98191SOL     OW96404   2.961   2.179   0.725
98191SOL    HW196405   2.913   2.124   0.663
98191SOL    HW296406   3.019   2.119   0.771
98192SOL     OW96407   9.014  13.381   7.504
98192SOL    HW196408   9.013  13.432   7.423
98192SOL    HW296409   8.965  13.301   7.483
98193SOL     OW96410   7.448   9.818  12.250
98193SOL    HW196411   7.358   9.845  12.267
98193SOL    HW296412   7.446   9.778  12.163
98194SOL     OW96413  12.759   5.779   9.988
98194SOL    HW196414  12.682   5.749  10.036
98194SOL    HW296415  12.833   5.738  10.032
98195SOL     OW96416   7.165   4.979  13.346
98195SOL    HW196417   7.100   5.048  13.330
98195SOL    HW296418   7.240   5.004  13.292
98196SOL     OW96419   1.924   0.938  11.030
98196SOL    HW196420   2.012   0.974  11.037
98196SOL    HW296421   1.879   0.966  11.109
98197SOL     OW96422   0.321   5.601   2.762
98197SOL    HW196423   0.358   5.551   2.835
98197SOL    HW296424   0.374   5.577   2.686
98198SOL     OW96425   4.169   5.211  10.322
98198SOL    HW196426   4.262   5.231  10.310
98198SOL    HW296427   4.166   5.116  10.330
98199SOL     OW96428  10.899   4.931   8.568
98199SOL    HW196429  10.894   5.017   8.526
98199SOL    HW296430  10.978   4.891   8.532
98200SOL     OW96431  10.852   6.743   1.128
98200SOL    HW196432  10.846   6.830   1.167
98200SOL    HW296433  10.894   6.758   1.043
98201SOL     OW96434   7.417   3.534  11.822
98201SOL    HW196435   7.388   3.498  11.738
98201SOL    HW296436   7.441   3.458  11.875
98202SOL     OW96437   5.359   9.965   9.111
98202SOL    HW196438   5.278   9.996   9.071
98202SOL    HW296439   5.380  10.032   9.177
98203SOL     OW96440   1.967   6.299   0.505
98203SOL    HW196441   1.897   6.281   0.568
98203SOL    HW296442   1.994   6.389   0.524
98204SOL     OW96443  10.519   4.201   4.131
98204SOL    HW196444  10.476   4.248   4.202
98204SOL    HW296445  10.604   4.243   4.120
98205SOL     OW96446   8.095   7.787  11.191
98205SOL    HW196447   8.013   7.794  11.143
98205SOL    HW296448   8.084   7.709  11.246
98206SOL     OW96449  10.293   2.543   3.248
98206SOL    HW196450  10.270   2.595   3.325
98206SOL    HW296451  10.353   2.599   3.199
98207SOL     OW96452   5.686   5.776   3.656
98207SOL    HW196453   5.627   5.800   3.584
98207SOL    HW296454   5.759   5.838   3.649
98208SOL     OW96455   8.220   2.197   7.215
98208SOL    HW196456   8.284   2.209   7.145
98208SOL    HW296457   8.256   2.126   7.268
98209SOL     OW96458   5.152   3.432  11.136
98209SOL    HW196459   5.115   3.433  11.224
98209SOL    HW296460   5.084   3.389  11.083
98210SOL     OW96461   2.619   7.470   0.733
98210SOL    HW196462   2.679   7.427   0.673
98210SOL    HW296463   2.672   7.488   0.811
98211SOL     OW96464  13.497   3.381   6.734
98211SOL    HW196465  13.517   3.288   6.744
98211SOL    HW296466  13.552   3.424   6.799
98212SOL     OW96467   3.046   2.630  13.961
98212SOL    HW196468   3.127   2.669  13.995
98212SOL    HW296469   3.054   2.635  13.866
98213SOL     OW96470  14.071   6.447  12.310
98213SOL    HW196471  13.977   6.426  12.317
98213SOL    HW296472  14.101   6.451  12.401
98214SOL     OW96473   6.989  10.062   2.577
98214SOL    HW196474   6.953  10.151   2.576
98214SOL    HW296475   7.072  10.071   2.624
98215SOL     OW96476   0.353   1.260   9.916
98215SOL    HW196477   0.376   1.350   9.937
98215SOL    HW296478   0.401   1.207   9.980
98216SOL     OW96479  12.061   0.543  11.260
98216SOL    HW196480  12.070   0.448  11.268
98216SOL    HW296481  12.112   0.565  11.183
98217SOL     OW96482   4.269   0.828  12.704
98217SOL    HW196483   4.306   0.824  12.616
98217SOL    HW296484   4.343   0.847  12.761
98218SOL     OW96485   9.355   9.225   0.765
98218SOL    HW196486   9.405   9.277   0.827
98218SOL    HW296487   9.373   9.134   0.789
98219SOL     OW96488   8.337   1.678   6.087
98219SOL    HW196489   8.314   1.643   6.000
98219SOL    HW296490   8.405   1.743   6.069
98220SOL     OW96491   3.398  13.627   6.676
98220SOL    HW196492   3.457  13.614   6.751
98220SOL    HW296493   3.313  13.597   6.708
98221SOL     OW96494  13.036   6.191   7.081
98221SOL    HW196495  12.967   6.126   7.093
98221SOL    HW296496  12.990   6.274   7.073
98222SOL     OW96497   1.456   8.369   9.932
98222SOL    HW196498   1.447   8.322  10.016
98222SOL    HW296499   1.546   8.350   9.904
98223SOL     OW96500   9.319   3.645   6.298
98223SOL    HW196501   9.263   3.705   6.250
98223SOL    HW296502   9.298   3.559   6.262
98224SOL     OW96503   5.249   2.659  12.143
98224SOL    HW196504   5.232   2.627  12.232
98224SOL    HW296505   5.183   2.615  12.089
98225SOL     OW96506  14.555   6.763   8.682
98225SOL    HW196507  14.639   6.719   8.669
98225SOL    HW296508  14.523   6.780   8.593
98226SOL     OW96509   9.095  11.624  13.695
98226SOL    HW196510   9.126  11.600  13.608
98226SOL    HW296511   9.021  11.682  13.680
98227SOL     OW96512   3.721   3.450   1.723
98227SOL    HW196513   3.648   3.394   1.749
98227SOL    HW296514   3.737   3.505   1.800
98228SOL     OW96515   9.690   7.127  12.228
98228SOL    HW196516   9.715   7.094  12.142
98228SOL    HW296517   9.739   7.208  12.238
98229SOL     OW96518   5.075   9.828   5.698
98229SOL    HW196519   5.023   9.808   5.620
98229SOL    HW296520   5.165   9.835   5.666
98230SOL     OW96521  12.889   8.362   6.700
98230SOL    HW196522  12.928   8.449   6.703
98230SOL    HW296523  12.805   8.376   6.656
98231SOL     OW96524   3.721   3.764  10.600
98231SOL    HW196525   3.676   3.711  10.535
98231SOL    HW296526   3.794   3.804  10.552
98232SOL     OW96527  11.912   2.772   6.757
98232SOL    HW196528  11.976   2.837   6.785
98232SOL    HW296529  11.839   2.782   6.819
98233SOL     OW96530   6.997   2.457   3.477
98233SOL    HW196531   7.027   2.547   3.467
98233SOL    HW296532   6.906   2.459   3.449
98234SOL     OW96533   6.229   6.346  13.044
98234SOL    HW196534   6.179   6.316  12.968
98234SOL    HW296535   6.186   6.305  13.119
98235SOL     OW96536  14.674  14.704   9.824
98235SOL    HW196537  14.667  14.634   9.758
98235SOL    HW296538  14.759  14.689   9.865
98236SOL     OW96539   3.790   4.712   5.013
98236SOL    HW196540   3.882   4.713   5.038
98236SOL    HW296541   3.755   4.632   5.051
98237SOL     OW96542   2.065   0.746  11.277
98237SOL    HW196543   2.078   0.760  11.371
98237SOL    HW296544   1.970   0.746  11.266
98238SOL     OW96545   6.798   6.145   4.690
98238SOL    HW196546   6.737   6.158   4.763
98238SOL    HW296547   6.796   6.050   4.674
98239SOL     OW96548   2.724  14.268   7.153
98239SOL    HW196549   2.750  14.181   7.181
98239SOL    HW296550   2.771  14.282   7.071
98240SOL     OW96551  13.680   6.230  13.791
98240SOL    HW196552  13.725   6.189  13.717
98240SOL    HW296553  13.613   6.285  13.751
98241SOL     OW96554  14.791   7.679   1.318
98241SOL    HW196555   0.004   7.649   1.297
98241SOL    HW296556  14.763   7.622   1.390
98242SOL     OW96557   6.097  14.603   9.823
98242SOL    HW196558   6.046  14.679   9.797
98242SOL    HW296559   6.051  14.566   9.898
98243SOL     OW96560   6.321   7.229   3.471
98243SOL    HW196561   6.367   7.308   3.444
98243SOL    HW296562   6.281   7.195   3.390
98244SOL     OW96563   4.865   0.528   6.560
98244SOL    HW196564   4.895   0.506   6.648
98244SOL    HW296565   4.944   0.558   6.514
98245SOL     OW96566   2.863   2.154  14.592
98245SOL    HW196567   2.931   2.176  14.656
98245SOL    HW296568   2.905   2.166  14.507
98246SOL     OW96569  12.407   8.300  13.812
98246SOL    HW196570  12.325   8.256  13.833
98246SOL    HW296571  12.416   8.290  13.717
98247SOL     OW96572   9.708   1.588  10.384
98247SOL    HW196573   9.787   1.630  10.418
98247SOL    HW296574   9.740   1.508  10.342
98248SOL     OW96575   0.438  13.473   6.324
98248SOL    HW196576   0.451  13.561   6.360
98248SOL    HW296577   0.492  13.471   6.245
98249SOL     OW96578   1.099  10.078   0.230
98249SOL    HW196579   1.163  10.126   0.284
98249SOL    HW296580   1.049  10.026   0.293
98250SOL     OW96581   4.041  12.456  13.274
98250SOL    HW196582   4.125  12.499  13.257
98250SOL    HW296583   4.050  12.420  13.362
98251SOL     OW96584   9.283   4.319  10.724
98251SOL    HW196585   9.277   4.227  10.750
98251SOL    HW296586   9.316   4.316  10.634
98252SOL     OW96587   1.421   9.978  11.376
98252SOL    HW196588   1.337  10.014  11.349
98252SOL    HW296589   1.486  10.040  11.344
98253SOL     OW96590   7.074   6.754   3.062
98253SOL    HW196591   6.980   6.766   3.056
98253SOL    HW296592   7.108   6.785   2.978
98254SOL     OW96593  14.447  13.049  14.842
98254SOL    HW196594  14.378  12.986  14.820
98254SOL    HW296595  14.400  13.125  14.875
98255SOL     OW96596   3.022  11.060   7.325
98255SOL    HW196597   3.038  11.148   7.357
98255SOL    HW296598   3.046  11.003   7.397
98256SOL     OW96599  14.683   8.522   9.407
98256SOL    HW196600  14.731   8.439   9.406
98256SOL    HW296601  14.746   8.586   9.441
98257SOL     OW96602   1.934   9.903   9.397
98257SOL    HW196603   1.900   9.864   9.316
98257SOL    HW296604   2.026   9.919   9.378
98258SOL     OW96605   3.945  11.984   3.167
98258SOL    HW196606   3.960  12.074   3.197
98258SOL    HW296607   3.855  11.984   3.136
98259SOL     OW96608   8.688   3.462  10.475
98259SOL    HW196609   8.665   3.549  10.442
98259SOL    HW296610   8.783   3.465  10.485
98260SOL     OW96611  11.329   8.434   1.603
98260SOL    HW196612  11.407   8.380   1.613
98260SOL    HW296613  11.257   8.378   1.631
98261SOL     OW96614  10.679  12.681   3.884
98261SOL    HW196615  10.766  12.690   3.923
98261SOL    HW296616  10.643  12.602   3.925
98262SOL     OW96617   1.885   5.383   8.540
98262SOL    HW196618   1.923   5.443   8.604
98262SOL    HW296619   1.897   5.296   8.579
98263SOL     OW96620  12.411  13.231   7.711
98263SOL    HW196621  12.471  13.159   7.691
98263SOL    HW296622  12.344  13.227   7.643
98264SOL     OW96623   9.583  11.625  13.055
98264SOL    HW196624   9.567  11.609  13.148
98264SOL    HW296625   9.518  11.571  13.009
98265SOL     OW96626  12.618  13.906   1.245
98265SOL    HW196627  12.561  13.849   1.192
98265SOL    HW296628  12.557  13.959   1.296
98266SOL     OW96629   0.255   5.471   0.274
98266SOL    HW196630   0.238   5.377   0.284
98266SOL    HW296631   0.295   5.480   0.188
98267SOL     OW96632   0.078  10.466   5.135
98267SOL    HW196633   0.126  10.545   5.110
98267SOL    HW296634   0.000  10.498   5.179
98268SOL     OW96635  14.645   4.170   1.467
98268SOL    HW196636  14.737   4.193   1.470
98268SOL    HW296637  14.627   4.129   1.552
98269SOL     OW96638  12.806   5.562   8.647
98269SOL    HW196639  12.815   5.656   8.661
98269SOL    HW296640  12.822   5.523   8.733
98270SOL     OW96641   5.445   3.568   4.293
98270SOL    HW196642   5.445   3.661   4.271
98270SOL    HW296643   5.418   3.524   4.213
98271SOL     OW96644   6.118   1.907   8.345
98271SOL    HW196645   6.111   1.835   8.282
98271SOL    HW296646   6.188   1.881   8.405
98272SOL     OW96647   8.552  14.437  13.935
98272SOL    HW196648   8.610  14.443  13.859
98272SOL    HW296649   8.489  14.507  13.923
98273SOL     OW96650  11.508  11.593   6.504
98273SOL    HW196651  11.580  11.531   6.491
98273SOL    HW296652  11.547  11.679   6.492
98274SOL     OW96653   3.582  13.494   6.900
98274SOL    HW196654   3.623  13.566   6.949
98274SOL    HW296655   3.654  13.439   6.872
98275SOL     OW96656   6.168   9.015   3.331
98275SOL    HW196657   6.254   9.015   3.289
98275SOL    HW296658   6.184   8.976   3.417
98276SOL     OW96659   8.278  10.192   2.338
98276SOL    HW196660   8.359  10.142   2.330
98276SOL    HW296661   8.274  10.245   2.258
98277SOL     OW96662   3.593   0.005   1.072
98277SOL    HW196663   3.664  14.817   1.069
98277SOL    HW296664   3.523  14.836   1.120
98278SOL     OW96665   3.486   7.058   9.591
98278SOL    HW196666   3.579   7.051   9.570
98278SOL    HW296667   3.452   7.123   9.530
98279SOL     OW96668   9.152   7.007  10.400
98279SOL    HW196669   9.126   7.081  10.345
98279SOL    HW296670   9.240   6.986  10.372
98280SOL     OW96671   8.414  14.626   4.289
98280SOL    HW196672   8.503  14.648   4.317
98280SOL    HW296673   8.368  14.710   4.286
98281SOL     OW96674  10.786  10.094  12.694
98281SOL    HW196675  10.706  10.095  12.642
98281SOL    HW296676  10.788  10.179  12.737
98282SOL     OW96677   1.959   1.704   8.047
98282SOL    HW196678   1.980   1.651   8.124
98282SOL    HW296679   1.932   1.639   7.981
98283SOL     OW96680   1.520   9.078   5.995
98283SOL    HW196681   1.604   9.083   6.039
98283SOL    HW296682   1.538   9.107   5.906
98284SOL     OW96683   9.864   6.563  12.419
98284SOL    HW196684   9.866   6.658  12.402
98284SOL    HW296685   9.952   6.533  12.396
98285SOL     OW96686   1.331   4.421   6.471
98285SOL    HW196687   1.422   4.398   6.487
98285SOL    HW296688   1.332   4.515   6.455
98286SOL     OW96689   7.046   8.327   8.361
98286SOL    HW196690   7.042   8.246   8.412
98286SOL    HW296691   7.137   8.355   8.368
98287SOL     OW96692   4.760   4.954  11.284
98287SOL    HW196693   4.834   4.987  11.335
98287SOL    HW296694   4.682   4.982  11.332
98288SOL     OW96695   3.401   4.483  14.710
98288SOL    HW196696   3.367   4.465  14.798
98288SOL    HW296697   3.350   4.558  14.679
98289SOL     OW96698   4.075  14.341   0.503
98289SOL    HW196699   4.152  14.392   0.527
98289SOL    HW296700   4.093  14.253   0.534
98290SOL     OW96701  11.194  12.160  13.450
98290SOL    HW196702  11.103  12.131  13.442
98290SOL    HW296703  11.211  12.159  13.544
98291SOL     OW96704   5.688   3.713   3.113
98291SOL    HW196705   5.623   3.783   3.123
98291SOL    HW296706   5.772   3.759   3.112
98292SOL     OW96707  13.491   8.237   4.531
98292SOL    HW196708  13.400   8.266   4.532
98292SOL    HW296709  13.500   8.190   4.448
98293SOL     OW96710   0.602  11.661  11.334
98293SOL    HW196711   0.659  11.651  11.410
98293SOL    HW296712   0.659  11.699  11.266
98294SOL     OW96713  11.114  10.981   8.160
98294SOL    HW196714  11.137  10.906   8.105
98294SOL    HW296715  11.098  10.944   8.247
98295SOL     OW96716   8.642   9.562   3.907
98295SOL    HW196717   8.726   9.583   3.948
98295SOL    HW296718   8.631   9.630   3.840
98296SOL     OW96719  10.023   2.359   7.505
98296SOL    HW196720  10.102   2.402   7.538
98296SOL    HW296721   9.986   2.314   7.581
98297SOL     OW96722   6.605  13.857   7.976
98297SOL    HW196723   6.535  13.904   8.022
98297SOL    HW296724   6.632  13.788   8.037
98298SOL     OW96725   5.727   2.118   0.086
98298SOL    HW196726   5.651   2.150   0.135
98298SOL    HW296727   5.735   2.026   0.111
98299SOL     OW96728  10.540  10.427  11.971
98299SOL    HW196729  10.580  10.430  11.884
98299SOL    HW296730  10.557  10.513  12.008
98300SOL     OW96731   3.764   6.389   7.196
98300SOL    HW196732   3.720   6.427   7.272
98300SOL    HW296733   3.696   6.383   7.129
98301SOL     OW96734  11.269   2.907  12.432
98301SOL    HW196735  11.261   2.991  12.387
98301SOL    HW296736  11.239   2.843  12.368
98302SOL     OW96737   8.912   0.138  11.318
98302SOL    HW196738   8.931   0.197  11.245
98302SOL    HW296739   8.969   0.168  11.388
98303SOL     OW96740  13.227   1.552   9.247
98303SOL    HW196741  13.237   1.639   9.285
98303SOL    HW296742  13.273   1.494   9.307
98304SOL     OW96743  10.595   1.438  10.826
98304SOL    HW196744  10.642   1.452  10.908
98304SOL    HW296745  10.509   1.405  10.853
98305SOL     OW96746   5.766   4.278   4.484
98305SOL    HW196747   5.702   4.346   4.509
98305SOL    HW296748   5.847   4.306   4.526
98306SOL     OW96749   7.584   7.300   6.282
98306SOL    HW196750   7.606   7.324   6.192
98306SOL    HW296751   7.504   7.350   6.301
98307SOL     OW96752   8.361   4.806  10.312
98307SOL    HW196753   8.385   4.894  10.285
98307SOL    HW296754   8.444   4.762  10.329
98308SOL     OW96755   1.717   3.759  14.108
98308SOL    HW196756   1.635   3.802  14.086
98308SOL    HW296757   1.770   3.765  14.028
98309SOL     OW96758   1.958   0.401   3.311
98309SOL    HW196759   1.952   0.312   3.278
98309SOL    HW296760   1.932   0.395   3.403
98310SOL     OW96761   2.783   4.506   3.411
98310SOL    HW196762   2.796   4.584   3.357
98310SOL    HW296763   2.695   4.517   3.448
98311SOL     OW96764   5.841  14.177  13.731
98311SOL    HW196765   5.816  14.268  13.715
98311SOL    HW296766   5.883  14.149  13.649
98312SOL     OW96767   2.933   0.845   0.646
98312SOL    HW196768   2.867   0.877   0.583
98312SOL    HW296769   2.974   0.771   0.601
98313SOL     OW96770   8.195   0.858  10.115
98313SOL    HW196771   8.182   0.836  10.208
98313SOL    HW296772   8.214   0.951  10.115
98314SOL     OW96773   8.525  10.814   4.523
98314SOL    HW196774   8.553  10.807   4.432
98314SOL    HW296775   8.438  10.853   4.518
98315SOL     OW96776   2.902  13.863   5.935
98315SOL    HW196777   2.833  13.850   6.000
98315SOL    HW296778   2.865  13.926   5.872
98316SOL     OW96779  13.890   5.888   4.198
98316SOL    HW196780  13.982   5.871   4.218
98316SOL    HW296781  13.845   5.878   4.282
98317SOL     OW96782   8.214   3.327  12.429
98317SOL    HW196783   8.273   3.390  12.471
98317SOL    HW296784   8.272   3.268  12.381
98318SOL     OW96785   7.440  14.257  11.187
98318SOL    HW196786   7.407  14.211  11.264
98318SOL    HW296787   7.502  14.195  11.147
98319SOL     OW96788  10.166  14.514  14.628
98319SOL    HW196789  10.135  14.531  14.717
98319SOL    HW296790  10.131  14.427  14.607
98320SOL     OW96791   1.482   2.357   2.809
98320SOL    HW196792   1.527   2.335   2.727
98320SOL    HW296793   1.523   2.439   2.837
98321SOL     OW96794   4.409  11.668  11.737
98321SOL    HW196795   4.398  11.656  11.832
98321SOL    HW296796   4.326  11.706  11.709
98322SOL     OW96797   2.883  12.793   0.542
98322SOL    HW196798   2.927  12.863   0.590
98322SOL    HW296799   2.917  12.800   0.453
98323SOL     OW96800  10.117   5.745   0.654
98323SOL    HW196801  10.187   5.691   0.691
98323SOL    HW296802  10.111   5.717   0.562
98324SOL     OW96803   0.885   5.567   6.935
98324SOL    HW196804   0.832   5.551   6.857
98324SOL    HW296805   0.822   5.570   7.007
98325SOL     OW96806   2.625   8.241   6.849
98325SOL    HW196807   2.648   8.258   6.940
98325SOL    HW296808   2.675   8.162   6.826
98326SOL     OW96809  13.096   8.778   3.567
98326SOL    HW196810  13.114   8.743   3.480
98326SOL    HW296811  13.128   8.868   3.564
98327SOL     OW96812   1.903  12.130   7.264
98327SOL    HW196813   1.867  12.055   7.216
98327SOL    HW296814   1.988  12.099   7.295
98328SOL     OW96815   2.036  14.817   7.014
98328SOL    HW196816   1.946  14.799   7.041
98328SOL    HW296817   2.078  14.731   7.011
98329SOL     OW96818   4.422   1.909   1.875
98329SOL    HW196819   4.410   1.944   1.963
98329SOL    HW296820   4.517   1.902   1.865
98330SOL     OW96821   8.117   4.384  11.629
98330SOL    HW196822   8.135   4.292  11.648
98330SOL    HW296823   8.190   4.431  11.669
98331SOL     OW96824  13.235   4.426   8.622
98331SOL    HW196825  13.224   4.510   8.666
98331SOL    HW296826  13.330   4.413   8.619
98332SOL     OW96827   5.428   8.852  12.383
98332SOL    HW196828   5.388   8.889  12.461
98332SOL    HW296829   5.388   8.766  12.372
98333SOL     OW96830   7.885   6.975   1.402
98333SOL    HW196831   7.893   7.069   1.384
98333SOL    HW296832   7.952   6.934   1.347
98334SOL     OW96833   7.142  12.202   5.964
98334SOL    HW196834   7.082  12.144   6.010
98334SOL    HW296835   7.099  12.219   5.880
98335SOL     OW96836   9.396  13.037   0.822
98335SOL    HW196837   9.458  13.026   0.893
98335SOL    HW296838   9.319  13.078   0.862
98336SOL     OW96839  13.020   3.947  12.382
98336SOL    HW196840  13.047   4.024  12.332
98336SOL    HW296841  13.093   3.885  12.373
98337SOL     OW96842  13.303   7.646   3.055
98337SOL    HW196843  13.290   7.601   2.972
98337SOL    HW296844  13.394   7.678   3.051
98338SOL     OW96845   6.951  11.697   7.324
98338SOL    HW196846   6.983  11.675   7.237
98338SOL    HW296847   7.023  11.748   7.363
98339SOL     OW96848   1.579   9.091   3.701
98339SOL    HW196849   1.512   9.096   3.632
98339SOL    HW296850   1.609   9.000   3.699
98340SOL     OW96851  13.407  10.252  14.860
98340SOL    HW196852  13.464  10.183  14.826
98340SOL    HW296853  13.430  10.259   0.077
98341SOL     OW96854   4.664   8.109   5.069
98341SOL    HW196855   4.592   8.171   5.081
98341SOL    HW296856   4.743   8.163   5.077
98342SOL     OW96857   1.937  13.260  12.386
98342SOL    HW196858   2.011  13.244  12.327
98342SOL    HW296859   1.918  13.174  12.424
98343SOL     OW96860   4.467   2.162   0.891
98343SOL    HW196861   4.489   2.169   0.984
98343SOL    HW296862   4.521   2.089   0.859
98344SOL     OW96863   0.270  10.748   5.103
98344SOL    HW196864   0.317  10.762   5.021
98344SOL    HW296865   0.315  10.804   5.166
98345SOL     OW96866   4.469   5.345   9.418
98345SOL    HW196867   4.494   5.337   9.326
98345SOL    HW296868   4.434   5.258   9.440
98346SOL     OW96869   0.469   8.855  13.765
98346SOL    HW196870   0.488   8.780  13.708
98346SOL    HW296871   0.537   8.919  13.744
98347SOL     OW96872   7.313  10.412   3.748
98347SOL    HW196873   7.322  10.420   3.843
98347SOL    HW296874   7.261  10.332   3.736
98348SOL     OW96875   6.229  11.729  11.892
98348SOL    HW196876   6.204  11.657  11.950
98348SOL    HW296877   6.325  11.729  11.894
98349SOL     OW96878  12.707   2.665   2.489
98349SOL    HW196879  12.652   2.649   2.412
98349SOL    HW296880  12.789   2.621   2.470
98350SOL     OW96881   2.626   5.746   7.417
98350SOL    HW196882   2.640   5.780   7.505
98350SOL    HW296883   2.674   5.663   7.415
98351SOL     OW96884   0.614   4.395   1.804
98351SOL    HW196885   0.590   4.363   1.890
98351SOL    HW296886   0.556   4.470   1.788
98352SOL     OW96887  11.836   9.471  13.593
98352SOL    HW196888  11.802   9.382  13.591
98352SOL    HW296889  11.776   9.518  13.651
98353SOL     OW96890   6.163   5.676   9.124
98353SOL    HW196891   6.149   5.765   9.156
98353SOL    HW296892   6.225   5.685   9.052
98354SOL     OW96893   5.273   8.579   4.858
98354SOL    HW196894   5.293   8.650   4.919
98354SOL    HW296895   5.185   8.598   4.826
98355SOL     OW96896  11.057  11.484   0.727
98355SOL    HW196897  11.142  11.442   0.719
98355SOL    HW296898  10.997  11.429   0.678
98356SOL     OW96899   4.246   5.699   2.392
98356SOL    HW196900   4.281   5.786   2.412
98356SOL    HW296901   4.254   5.692   2.297
98357SOL     OW96902   0.362   7.995  14.278
98357SOL    HW196903   0.305   7.918  14.276
98357SOL    HW296904   0.325   8.051  14.346
98358SOL     OW96905  11.489  10.099   6.476
98358SOL    HW196906  11.406  10.105   6.522
98358SOL    HW296907  11.550  10.065   6.541
98359SOL     OW96908  13.629   9.748   3.640
98359SOL    HW196909  13.548   9.699   3.655
98359SOL    HW296910  13.600   9.830   3.599
98360SOL     OW96911   9.599  11.212  13.635
98360SOL    HW196912   9.616  11.211  13.541
98360SOL    HW296913   9.584  11.304  13.656
98361SOL     OW96914  10.601   9.982   4.808
98361SOL    HW196915  10.515  10.015   4.835
98361SOL    HW296916  10.581   9.917   4.740
98362SOL     OW96917   3.050   8.943   5.646
98362SOL    HW196918   3.091   8.877   5.589
98362SOL    HW296919   3.021   8.894   5.722
98363SOL     OW96920  13.223   3.591  12.775
98363SOL    HW196921  13.288   3.526  12.800
98363SOL    HW296922  13.139   3.547  12.787
98364SOL     OW96923   7.751   3.826   4.099
98364SOL    HW196924   7.770   3.859   4.187
98364SOL    HW296925   7.797   3.742   4.095
98365SOL     OW96926   5.203  12.361  12.723
98365SOL    HW196927   5.225  12.406  12.642
98365SOL    HW296928   5.235  12.419  12.792
98366SOL     OW96929   8.991   2.720  12.698
98366SOL    HW196930   9.083   2.745  12.688
98366SOL    HW296931   8.951   2.740  12.613
98367SOL     OW96932   7.617  10.781   3.590
98367SOL    HW196933   7.563  10.835   3.648
98367SOL    HW296934   7.699  10.830   3.581
98368SOL     OW96935   5.619   6.210   2.258
98368SOL    HW196936   5.674   6.155   2.203
98368SOL    HW296937   5.591   6.153   2.329
98369SOL     OW96938   0.293  13.725  10.943
98369SOL    HW196939   0.302  13.723  10.848
98369SOL    HW296940   0.200  13.710  10.959
98370SOL     OW96941   7.414   5.642   0.337
98370SOL    HW196942   7.490   5.591   0.365
98370SOL    HW296943   7.418   5.722   0.388
98371SOL     OW96944   9.050  10.245   4.454
98371SOL    HW196945   9.044  10.214   4.364
98371SOL    HW296946   9.009  10.177   4.507
98372SOL     OW96947   5.404   2.908   6.642
98372SOL    HW196948   5.410   2.858   6.561
98372SOL    HW296949   5.442   2.994   6.621
98373SOL     OW96950   8.407  12.122   8.361
98373SOL    HW196951   8.438  12.183   8.429
98373SOL    HW296952   8.392  12.040   8.408
98374SOL     OW96953  11.214   5.908  13.097
98374SOL    HW196954  11.139   5.859  13.130
98374SOL    HW296955  11.188   6.000  13.106
98375SOL     OW96956  14.031  13.610   1.746
98375SOL    HW196957  13.994  13.630   1.832
98375SOL    HW296958  14.065  13.694   1.714
98376SOL     OW96959   0.059   9.068  11.865
98376SOL    HW196960   0.086   9.151  11.902
98376SOL    HW296961   0.136   9.012  11.872
98377SOL     OW96962  11.506   4.474   4.863
98377SOL    HW196963  11.563   4.550   4.850
98377SOL    HW296964  11.432   4.508   4.913
98378SOL     OW96965   7.480   9.834   6.578
98378SOL    HW196966   7.496   9.790   6.661
98378SOL    HW296967   7.534   9.912   6.581
98379SOL     OW96968   9.768   0.434   7.457
98379SOL    HW196969   9.760   0.493   7.381
98379SOL    HW296970   9.775   0.347   7.418
98380SOL     OW96971  11.735   7.553   0.621
98380SOL    HW196972  11.711   7.603   0.699
98380SOL    HW296973  11.714   7.462   0.642
98381SOL     OW96974  12.248   5.336  12.157
98381SOL    HW196975  12.281   5.392  12.227
98381SOL    HW296976  12.297   5.364  12.079
98382SOL     OW96977   5.107   4.255  10.666
98382SOL    HW196978   5.149   4.177  10.702
98382SOL    HW296979   5.018   4.227  10.645
98383SOL     OW96980   3.178  11.756   8.307
98383SOL    HW196981   3.148  11.741   8.397
98383SOL    HW296982   3.217  11.673   8.281
98384SOL     OW96983   1.544   2.310   7.239
98384SOL    HW196984   1.552   2.280   7.148
98384SOL    HW296985   1.567   2.403   7.234
98385SOL     OW96986   2.096   5.218  11.119
98385SOL    HW196987   2.016   5.166  11.125
98385SOL    HW296988   2.075   5.289  11.058
98386SOL     OW96989   5.175   3.855  11.036
98386SOL    HW196990   5.264   3.867  11.003
98386SOL    HW296991   5.138   3.785  10.982
98387SOL     OW96992  14.250   1.452   8.494
98387SOL    HW196993  14.181   1.416   8.437
98387SOL    HW296994  14.273   1.536   8.453
98388SOL     OW96995  12.573   5.990   7.272
98388SOL    HW196996  12.608   6.069   7.313
98388SOL    HW296997  12.636   5.922   7.292
98389SOL     OW96998  10.393  12.577   3.635
98389SOL    HW196999  10.305  12.548   3.612
98389SOL    HW297000  10.434  12.500   3.675
98390SOL     OW97001   2.277   5.324   6.295
98390SOL    HW197002   2.353   5.334   6.352
98390SOL    HW297003   2.208   5.374   6.339
98391SOL     OW97004   7.649   6.264   0.541
98391SOL    HW197005   7.592   6.307   0.477
98391SOL    HW297006   7.615   6.292   0.626
98392SOL     OW97007  11.118   0.823  11.861
98392SOL    HW197008  11.139   0.841  11.952
98392SOL    HW297009  11.026   0.849  11.851
98393SOL     OW97010  14.517   6.522   2.105
98393SOL    HW197011  14.440   6.514   2.049
98393SOL    HW297012  14.569   6.592   2.065
98394SOL     OW97013  14.350  10.816   7.517
98394SOL    HW197014  14.276  10.865   7.481
98394SOL    HW297015  14.427  10.867   7.491
98395SOL     OW97016  10.231   3.144   5.263
98395SOL    HW197017  10.155   3.104   5.305
98395SOL    HW297018  10.289   3.168   5.336
98396SOL     OW97019   8.900   9.876  14.742
98396SOL    HW197020   8.846   9.913  14.672
98396SOL    HW297021   8.862   9.910  14.823
98397SOL     OW97022   8.746   6.252   4.952
98397SOL    HW197023   8.770   6.201   4.875
98397SOL    HW297024   8.668   6.300   4.926
98398SOL     OW97025   1.830  13.309  14.391
98398SOL    HW197026   1.827  13.238  14.327
98398SOL    HW297027   1.898  13.368  14.358
98399SOL     OW97028  11.004   7.368   8.849
98399SOL    HW197029  11.021   7.274   8.836
98399SOL    HW297030  10.991   7.377   8.943
98400SOL     OW97031  14.689  11.516   2.726
98400SOL    HW197032  14.596  11.491   2.728
98400SOL    HW297033  14.736  11.435   2.741
98401SOL     OW97034   6.601  12.045   8.905
98401SOL    HW197035   6.607  12.105   8.980
98401SOL    HW297036   6.521  11.995   8.922
98402SOL     OW97037   1.974  11.216   7.088
98402SOL    HW197038   1.907  11.219   7.021
98402SOL    HW297039   2.056  11.224   7.041
98403SOL     OW97040   9.698   3.021  12.041
98403SOL    HW197041   9.776   3.076  12.050
98403SOL    HW297042   9.675   2.997  12.131
98404SOL     OW97043   9.398   2.565  11.730
98404SOL    HW197044   9.434   2.592  11.815
98404SOL    HW297045   9.391   2.646  11.680
98405SOL     OW97046   8.293  14.520   1.876
98405SOL    HW197047   8.250  14.468   1.944
98405SOL    HW297048   8.278  14.611   1.902
98406SOL     OW97049  13.170  12.432  11.574
98406SOL    HW197050  13.154  12.462  11.484
98406SOL    HW297051  13.087  12.395  11.602
98407SOL     OW97052  12.747  13.657   2.695
98407SOL    HW197053  12.740  13.642   2.600
98407SOL    HW297054  12.837  13.685   2.709
98408SOL     OW97055  14.752   6.804  11.851
98408SOL    HW197056  14.712   6.717  11.846
98408SOL    HW297057  14.846   6.787  11.840
98409SOL     OW97058  14.497  13.492   8.937
98409SOL    HW197059  14.485  13.441   9.017
98409SOL    HW297060  14.449  13.444   8.870
98410SOL     OW97061   8.208   0.759   9.123
98410SOL    HW197062   8.151   0.685   9.103
98410SOL    HW297063   8.286   0.719   9.162
98411SOL     OW97064  12.280   0.649  12.603
98411SOL    HW197065  12.226   0.581  12.563
98411SOL    HW297066  12.330   0.603  12.671
98412SOL     OW97067   9.364  10.180  11.555
98412SOL    HW197068   9.301  10.201  11.487
98412SOL    HW297069   9.409  10.102  11.523
98413SOL     OW97070  14.124  10.587   0.719
98413SOL    HW197071  14.108  10.679   0.738
98413SOL    HW297072  14.149  10.549   0.803
98414SOL     OW97073  13.707  11.971   6.025
98414SOL    HW197074  13.694  11.882   5.994
98414SOL    HW297075  13.721  11.962   6.120
98415SOL     OW97076   8.254   2.512  14.659
98415SOL    HW197077   8.269   2.469  14.743
98415SOL    HW297078   8.222   2.443  14.601
98416SOL     OW97079  14.669   1.058   3.909
98416SOL    HW197080  14.618   1.038   3.830
98416SOL    HW297081  14.752   1.012   3.896
98417SOL     OW97082   7.196   1.425   8.490
98417SOL    HW197083   7.180   1.440   8.583
98417SOL    HW297084   7.283   1.386   8.487
98418SOL     OW97085   8.531  11.481   8.667
98418SOL    HW197086   8.477  11.446   8.596
98418SOL    HW297087   8.525  11.416   8.737
98419SOL     OW97088   3.134   3.501   6.223
98419SOL    HW197089   3.176   3.500   6.136
98419SOL    HW297090   3.192   3.448   6.278
98420SOL     OW97091   1.267   5.201  13.825
98420SOL    HW197092   1.241   5.212  13.734
98420SOL    HW297093   1.187   5.175  13.870
98421SOL     OW97094   3.845   9.966   7.205
98421SOL    HW197095   3.894  10.023   7.264
98421SOL    HW297096   3.907   9.895   7.183
98422SOL     OW97097   3.705  12.882  13.860
98422SOL    HW197098   3.716  12.830  13.781
98422SOL    HW297099   3.683  12.818  13.928
98423SOL     OW97100   6.161   8.511   3.616
98423SOL    HW197101   6.070   8.538   3.599
98423SOL    HW297102   6.189   8.470   3.535
98424SOL     OW97103   8.384   4.566   3.271
98424SOL    HW197104   8.410   4.562   3.179
98424SOL    HW297105   8.312   4.628   3.273
98425SOL     OW97106  11.152   8.250  12.610
98425SOL    HW197107  11.163   8.330  12.559
98425SOL    HW297108  11.058   8.246  12.630
98426SOL     OW97109   3.278   1.732   0.619
98426SOL    HW197110   3.284   1.708   0.711
98426SOL    HW297111   3.336   1.670   0.574
98427SOL     OW97112   8.515   1.353   0.332
98427SOL    HW197113   8.534   1.447   0.330
98427SOL    HW297114   8.464   1.341   0.412
98428SOL     OW97115   8.830   2.036  13.544
98428SOL    HW197116   8.889   2.077  13.481
98428SOL    HW297117   8.888   2.000  13.611
98429SOL     OW97118  10.112   4.911   4.988
98429SOL    HW197119  10.031   4.940   4.948
98429SOL    HW297120  10.124   4.821   4.958
98430SOL     OW97121   7.091   2.254  14.768
98430SOL    HW197122   7.008   2.294  14.744
98430SOL    HW297123   7.073   2.210  14.851
98431SOL     OW97124   7.772   2.511   5.783
98431SOL    HW197125   7.867   2.498   5.777
98431SOL    HW297126   7.736   2.422   5.788
98432SOL     OW97127  12.642   3.582   5.436
98432SOL    HW197128  12.639   3.610   5.344
98432SOL    HW297129  12.586   3.504   5.440
98433SOL     OW97130   8.693   0.437   8.117
98433SOL    HW197131   8.771   0.399   8.157
98433SOL    HW297132   8.711   0.434   8.023
98434SOL     OW97133  12.209   0.264   1.512
98434SOL    HW197134  12.240   0.354   1.514
98434SOL    HW297135  12.187   0.244   1.603
98435SOL     OW97136   4.991  10.622   6.247
98435SOL    HW197137   4.995  10.670   6.330
98435SOL    HW297138   5.015  10.687   6.181
98436SOL     OW97139   4.168   2.852   5.255
98436SOL    HW197140   4.120   2.892   5.328
98436SOL    HW297141   4.220   2.923   5.219
98437SOL     OW97142  13.480   9.743   5.229
98437SOL    HW197143  13.571   9.725   5.255
98437SOL    HW297144  13.434   9.660   5.243
98438SOL     OW97145   2.649  13.866  11.408
98438SOL    HW197146   2.712  13.803  11.444
98438SOL    HW297147   2.656  13.855  11.313
98439SOL     OW97148   7.620   7.467   3.594
98439SOL    HW197149   7.703   7.508   3.571
98439SOL    HW297150   7.645   7.379   3.624
98440SOL     OW97151  14.087   4.835   6.599
98440SOL    HW197152  14.176   4.824   6.565
98440SOL    HW297153  14.038   4.873   6.527
98441SOL     OW97154   9.728  11.919   5.745
98441SOL    HW197155   9.764  11.903   5.832
98441SOL    HW297156   9.732  12.014   5.734
98442SOL     OW97157  10.945   4.425  14.414
98442SOL    HW197158  10.923   4.369  14.338
98442SOL    HW297159  11.040   4.436  14.408
98443SOL     OW97160  14.048   1.048  14.066
98443SOL    HW197161  14.037   0.957  14.039
98443SOL    HW297162  13.986   1.096  14.012
98444SOL     OW97163   2.824   3.948  13.746
98444SOL    HW197164   2.919   3.953  13.732
98444SOL    HW297165   2.797   4.038  13.765
98445SOL     OW97166   9.688  12.466   5.736
98445SOL    HW197167   9.595  12.489   5.725
98445SOL    HW297168   9.734  12.523   5.674
98446SOL     OW97169   4.796   0.625   1.654
98446SOL    HW197170   4.838   0.542   1.630
98446SOL    HW297171   4.743   0.648   1.578
98447SOL     OW97172   8.832   7.752   6.687
98447SOL    HW197173   8.773   7.719   6.755
98447SOL    HW297174   8.815   7.846   6.684
98448SOL     OW97175  13.807   7.292   7.584
98448SOL    HW197176  13.857   7.318   7.662
98448SOL    HW297177  13.797   7.373   7.534
98449SOL     OW97178  13.406  13.003  12.688
98449SOL    HW197179  13.395  13.090  12.726
98449SOL    HW297180  13.467  13.015  12.616
98450SOL     OW97181   9.462   4.087   5.297
98450SOL    HW197182   9.463   4.155   5.364
98450SOL    HW297183   9.533   4.112   5.238
98451SOL     OW97184   5.425  13.144   6.482
98451SOL    HW197185   5.424  13.228   6.529
98451SOL    HW297186   5.348  13.097   6.515
98452SOL     OW97187   3.205   0.479   7.220
98452SOL    HW197188   3.147   0.403   7.229
98452SOL    HW297189   3.158   0.538   7.161
98453SOL     OW97190  12.815  14.495  13.597
98453SOL    HW197191  12.850  14.406  13.602
98453SOL    HW297192  12.892  14.551  13.602
98454SOL     OW97193  10.412  12.780   0.385
98454SOL    HW197194  10.470  12.751   0.455
98454SOL    HW297195  10.371  12.700   0.354
98455SOL     OW97196  10.804   3.792   5.343
98455SOL    HW197197  10.770   3.713   5.385
98455SOL    HW297198  10.730   3.851   5.338
98456SOL     OW97199   1.936  14.331   6.218
98456SOL    HW197200   1.971  14.420   6.222
98456SOL    HW297201   1.916  14.309   6.309
98457SOL     OW97202  10.019  12.377  11.753
98457SOL    HW197203   9.958  12.450  11.765
98457SOL    HW297204  10.036  12.345  11.841
98458SOL     OW97205   2.880  11.383   2.608
98458SOL    HW197206   2.786  11.373   2.592
98458SOL    HW297207   2.887  11.421   2.696
98459SOL     OW97208  12.099   4.334   5.868
98459SOL    HW197209  12.117   4.428   5.878
98459SOL    HW297210  12.164   4.303   5.806
98460SOL     OW97211   7.702   9.588   8.818
98460SOL    HW197212   7.636   9.521   8.800
98460SOL    HW297213   7.739   9.608   8.732
98461SOL     OW97214   6.157  10.476   8.584
98461SOL    HW197215   6.087  10.438   8.637
98461SOL    HW297216   6.119  10.485   8.497
98462SOL     OW97217   3.645  11.601  12.289
98462SOL    HW197218   3.616  11.560  12.370
98462SOL    HW297219   3.725  11.647  12.313
98463SOL     OW97220   8.517  13.225   5.512
98463SOL    HW197221   8.561  13.303   5.545
98463SOL    HW297222   8.487  13.179   5.591
98464SOL     OW97223   3.222   8.057   2.815
98464SOL    HW197224   3.154   8.052   2.749
98464SOL    HW297225   3.186   8.115   2.883
98465SOL     OW97226  12.342  11.550   5.554
98465SOL    HW197227  12.288  11.516   5.482
98465SOL    HW297228  12.392  11.621   5.514
98466SOL     OW97229   7.986  14.002   3.074
98466SOL    HW197230   7.968  14.040   3.160
98466SOL    HW297231   7.901  13.970   3.043
98467SOL     OW97232   0.676   8.983   7.661
98467SOL    HW197233   0.584   8.957   7.651
98467SOL    HW297234   0.671   9.075   7.689
98468SOL     OW97235  13.469  14.242   1.730
98468SOL    HW197236  13.483  14.254   1.636
98468SOL    HW297237  13.538  14.293   1.772
98469SOL     OW97238  13.036   6.842   1.123
98469SOL    HW197239  12.954   6.818   1.167
98469SOL    HW297240  13.097   6.860   1.194
98470SOL     OW97241   9.959   4.660   3.169
98470SOL    HW197242   9.885   4.691   3.220
98470SOL    HW297243   9.968   4.723   3.098
98471SOL     OW97244   2.101   7.270   4.974
98471SOL    HW197245   2.051   7.287   4.894
98471SOL    HW297246   2.051   7.313   5.043
98472SOL     OW97247   9.235   7.532  10.937
98472SOL    HW197248   9.150   7.503  10.970
98472SOL    HW297249   9.298   7.476  10.983
98473SOL     OW97250   6.877  11.310   5.202
98473SOL    HW197251   6.791  11.352   5.204
98473SOL    HW297252   6.925  11.351   5.274
98474SOL     OW97253  14.795   8.492  14.054
98474SOL    HW197254  14.751   8.559  14.106
98474SOL    HW297255   0.010   8.522  14.049
98475SOL     OW97256  12.651  13.898   3.916
98475SOL    HW197257  12.725  13.931   3.968
98475SOL    HW297258  12.629  13.971   3.858
98476SOL     OW97259  11.281   2.142   1.127
98476SOL    HW197260  11.358   2.194   1.103
98476SOL    HW297261  11.273   2.077   1.057
98477SOL     OW97262  11.373   1.593   8.290
98477SOL    HW197263  11.454   1.626   8.329
98477SOL    HW297264  11.306   1.611   8.356
98478SOL     OW97265  13.470   2.229   7.464
98478SOL    HW197266  13.536   2.284   7.423
98478SOL    HW297267  13.446   2.277   7.544
98479SOL     OW97268   8.915   6.074   3.614
98479SOL    HW197269   8.937   6.138   3.546
98479SOL    HW297270   8.820   6.065   3.607
98480SOL     OW97271   7.415   8.951   7.211
98480SOL    HW197272   7.508   8.933   7.222
98480SOL    HW297273   7.393   8.913   7.126
98481SOL     OW97274   2.193  10.746   6.249
98481SOL    HW197275   2.197  10.666   6.301
98481SOL    HW297276   2.192  10.715   6.158
98482SOL     OW97277   1.155   7.528   6.478
98482SOL    HW197278   1.208   7.460   6.520
98482SOL    HW297279   1.196   7.610   6.505
98483SOL     OW97280   4.794   2.462  13.530
98483SOL    HW197281   4.748   2.394  13.480
98483SOL    HW297282   4.757   2.544  13.498
98484SOL     OW97283   6.127  12.087   3.059
98484SOL    HW197284   6.068  12.160   3.076
98484SOL    HW297285   6.103  12.057   2.971
98485SOL     OW97286   7.312   1.684   8.155
98485SOL    HW197287   7.251   1.677   8.228
98485SOL    HW297288   7.367   1.759   8.178
98486SOL     OW97289   7.993   4.161   5.219
98486SOL    HW197290   7.995   4.093   5.151
98486SOL    HW297291   8.070   4.215   5.201
98487SOL     OW97292   8.166   8.881   2.737
98487SOL    HW197293   8.151   8.813   2.670
98487SOL    HW297294   8.116   8.851   2.813
98488SOL     OW97295   9.256   8.130  11.938
98488SOL    HW197296   9.180   8.180  11.965
98488SOL    HW297297   9.323   8.195  11.918
98489SOL     OW97298   0.313  12.492  14.834
98489SOL    HW197299   0.222  12.487  14.862
98489SOL    HW297300   0.322  12.580  14.797
98490SOL     OW97301   6.318   9.229   0.627
98490SOL    HW197302   6.300   9.135   0.632
98490SOL    HW297303   6.413   9.235   0.615
98491SOL     OW97304  13.255  10.952   6.120
98491SOL    HW197305  13.165  10.979   6.103
98491SOL    HW297306  13.255  10.858   6.103
98492SOL     OW97307   0.897   2.363   8.616
98492SOL    HW197308   0.945   2.402   8.688
98492SOL    HW297309   0.964   2.338   8.552
98493SOL     OW97310   9.649  13.412   0.534
98493SOL    HW197311   9.670  13.439   0.624
98493SOL    HW297312   9.554  13.405   0.533
98494SOL     OW97313  10.415   6.161  11.660
98494SOL    HW197314  10.402   6.248  11.697
98494SOL    HW297315  10.385   6.169  11.570
98495SOL     OW97316  11.369  10.034   2.419
98495SOL    HW197317  11.371  10.091   2.342
98495SOL    HW297318  11.276  10.018   2.434
98496SOL     OW97319  12.995  10.572   5.573
98496SOL    HW197320  13.012  10.499   5.632
98496SOL    HW297321  12.903  10.561   5.547
98497SOL     OW97322   9.540   2.554   5.183
98497SOL    HW197323   9.538   2.462   5.210
98497SOL    HW297324   9.450   2.573   5.157
98498SOL     OW97325   6.345  14.300   3.782
98498SOL    HW197326   6.258  14.292   3.822
98498SOL    HW297327   6.405  14.263   3.846
98499SOL     OW97328   8.443  12.027  14.314
98499SOL    HW197329   8.461  12.121  14.309
98499SOL    HW297330   8.349  12.019  14.296
98500SOL     OW97331   3.594   2.775   4.059
98500SOL    HW197332   3.576   2.858   4.014
98500SOL    HW297333   3.509   2.747   4.093
98501SOL     OW97334   7.498   6.118   3.721
98501SOL    HW197335   7.403   6.114   3.733
98501SOL    HW297336   7.510   6.150   3.632
98502SOL     OW97337   0.249  14.350   7.912
98502SOL    HW197338   0.230  14.273   7.858
98502SOL    HW297339   0.173  14.356   7.970
98503SOL     OW97340  11.979  10.869   2.253
98503SOL    HW197341  11.950  10.828   2.172
98503SOL    HW297342  11.993  10.796   2.313
98504SOL     OW97343  13.453  13.633   9.332
98504SOL    HW197344  13.432  13.549   9.373
98504SOL    HW297345  13.371  13.683   9.335
98505SOL     OW97346  13.478   1.139   6.536
98505SOL    HW197347  13.496   1.192   6.613
98505SOL    HW297348  13.548   1.161   6.475
98506SOL     OW97349  11.389  10.958   4.815
98506SOL    HW197350  11.408  11.051   4.817
98506SOL    HW297351  11.306  10.950   4.768
98507SOL     OW97352   7.207   8.992   3.044
98507SOL    HW197353   7.221   8.947   3.127
98507SOL    HW297354   7.255   9.074   3.053
98508SOL     OW97355  14.678  11.489   6.186
98508SOL    HW197356  14.684  11.524   6.097
98508SOL    HW297357  14.691  11.566   6.243
98509SOL     OW97358  12.975  10.109   8.435
98509SOL    HW197359  12.946  10.164   8.362
98509SOL    HW297360  12.979  10.021   8.399
98510SOL     OW97361  12.243   8.517   2.204
98510SOL    HW197362  12.257   8.424   2.223
98510SOL    HW297363  12.180   8.517   2.132
98511SOL     OW97364   9.952   0.803  12.682
98511SOL    HW197365   9.885   0.857  12.723
98511SOL    HW297366   9.989   0.752  12.754
98512SOL     OW97367  11.365   1.639  11.720
98512SOL    HW197368  11.414   1.708  11.675
98512SOL    HW297369  11.427   1.566  11.727
98513SOL     OW97370  10.566   5.120   0.993
98513SOL    HW197371  10.498   5.090   1.053
98513SOL    HW297372  10.539   5.086   0.908
98514SOL     OW97373  11.094   7.807   6.326
98514SOL    HW197374  11.085   7.896   6.361
98514SOL    HW297375  11.072   7.815   6.233
98515SOL     OW97376   4.738   8.563   5.544
98515SOL    HW197377   4.748   8.622   5.469
98515SOL    HW297378   4.655   8.517   5.528
98516SOL     OW97379   9.933   9.770   5.497
98516SOL    HW197380  10.000   9.738   5.558
98516SOL    HW297381   9.976   9.766   5.411
98517SOL     OW97382   0.123   5.939   0.790
98517SOL    HW197383   0.061   5.992   0.839
98517SOL    HW297384   0.150   5.870   0.852
98518SOL     OW97385  11.762   6.437   8.529
98518SOL    HW197386  11.771   6.346   8.500
98518SOL    HW297387  11.834   6.450   8.591
98519SOL     OW97388  12.534   5.681  10.915
98519SOL    HW197389  12.615   5.638  10.887
98519SOL    HW297390  12.557   5.773  10.926
98520SOL     OW97391   4.036   9.011  12.853
98520SOL    HW197392   4.025   8.957  12.775
98520SOL    HW297393   4.065   8.950  12.921
98521SOL     OW97394   3.189  11.714   0.152
98521SOL    HW197395   3.269  11.763   0.133
98521SOL    HW297396   3.146  11.705   0.068
98522SOL     OW97397   5.813   5.616  10.568
98522SOL    HW197398   5.764   5.573  10.638
98522SOL    HW297399   5.882   5.665  10.614
98523SOL     OW97400   2.719   4.689   2.186
98523SOL    HW197401   2.647   4.746   2.212
98523SOL    HW297402   2.738   4.636   2.264
98524SOL     OW97403   0.100  14.799  12.259
98524SOL    HW197404   0.144  14.726  12.304
98524SOL    HW297405   0.052  14.757  12.188
98525SOL     OW97406   5.712   7.571   2.155
98525SOL    HW197407   5.636   7.602   2.106
98525SOL    HW297408   5.678   7.557   2.244
98526SOL     OW97409   8.826  11.921  14.783
98526SOL    HW197410   8.912  11.893  14.752
98526SOL    HW297411   8.840  12.011  14.812
98527SOL     OW97412   7.240   0.258  11.549
98527SOL    HW197413   7.277   0.319  11.486
98527SOL    HW297414   7.285   0.175  11.532
98528SOL     OW97415   7.338  10.573  12.243
98528SOL    HW197416   7.323  10.479  12.243
98528SOL    HW297417   7.430  10.583  12.219
98529SOL     OW97418  13.888   3.938   7.504
98529SOL    HW197419  13.959   4.002   7.514
98529SOL    HW297420  13.860   3.920   7.594
98530SOL     OW97421  10.373  10.712   8.773
98530SOL    HW197422  10.281  10.723   8.747
98530SOL    HW297423  10.404  10.801   8.789
98531SOL     OW97424   2.163   6.300  14.626
98531SOL    HW197425   2.187   6.334  14.540
98531SOL    HW297426   2.093   6.358  14.655
98532SOL     OW97427   3.492   3.266   5.087
98532SOL    HW197428   3.477   3.292   5.178
98532SOL    HW297429   3.451   3.179   5.079
98533SOL     OW97430   9.654  13.181   6.318
98533SOL    HW197431   9.657  13.108   6.256
98533SOL    HW297432   9.596  13.152   6.388
98534SOL     OW97433  13.737   9.312  13.820
98534SOL    HW197434  13.681   9.268  13.884
98534SOL    HW297435  13.715   9.405  13.829
98535SOL     OW97436  12.966   5.964  11.764
98535SOL    HW197437  12.923   6.005  11.688
98535SOL    HW297438  12.934   6.014  11.839
98536SOL     OW97439   8.588   6.371   2.090
98536SOL    HW197440   8.655   6.375   2.023
98536SOL    HW297441   8.507   6.351   2.043
98537SOL     OW97442   4.070   5.038  13.459
98537SOL    HW197443   4.060   4.965  13.520
98537SOL    HW297444   4.011   5.017  13.387
98538SOL     OW97445   4.812   0.557   8.031
98538SOL    HW197446   4.790   0.630   8.090
98538SOL    HW297447   4.743   0.558   7.965
98539SOL     OW97448   3.230  10.138  13.380
98539SOL    HW197449   3.297  10.129  13.447
98539SOL    HW297450   3.155  10.177  13.426
98540SOL     OW97451   9.727   4.717  10.354
98540SOL    HW197452   9.822   4.727  10.349
98540SOL    HW297453   9.709   4.710  10.448
98541SOL     OW97454  11.954  13.228   2.074
98541SOL    HW197455  11.940  13.280   2.154
98541SOL    HW297456  12.049  13.218   2.069
98542SOL     OW97457  12.140   2.188   6.675
98542SOL    HW197458  12.145   2.238   6.756
98542SOL    HW297459  12.105   2.103   6.701
98543SOL     OW97460   0.552  13.838   5.511
98543SOL    HW197461   0.474  13.818   5.459
98543SOL    HW297462   0.615  13.771   5.486
98544SOL     OW97463   1.068   4.730  13.104
98544SOL    HW197464   1.044   4.683  13.184
98544SOL    HW297465   1.163   4.718  13.097
98545SOL     OW97466   8.798   2.280  12.101
98545SOL    HW197467   8.825   2.251  12.189
98545SOL    HW297468   8.707   2.250  12.093
98546SOL     OW97469  13.035   4.166  10.058
98546SOL    HW197470  13.127   4.145  10.072
98546SOL    HW297471  12.994   4.083  10.035
98547SOL     OW97472   1.568   6.683   8.039
98547SOL    HW197473   1.518   6.761   8.016
98547SOL    HW297474   1.652   6.717   8.071
98548SOL     OW97475  14.609   0.293   3.553
98548SOL    HW197476  14.694   0.295   3.597
98548SOL    HW297477  14.545   0.294   3.623
98549SOL     OW97478   6.096  14.247  11.438
98549SOL    HW197479   6.013  14.295  11.438
98549SOL    HW297480   6.163  14.315  11.445
98550SOL     OW97481   6.869   7.558   1.002
98550SOL    HW197482   6.811   7.629   1.029
98550SOL    HW297483   6.954   7.581   1.039
98551SOL     OW97484   9.575  11.278   7.910
98551SOL    HW197485   9.534  11.224   7.842
98551SOL    HW297486   9.591  11.217   7.982
98552SOL     OW97487   5.797  11.741   2.661
98552SOL    HW197488   5.845  11.674   2.613
98552SOL    HW297489   5.861  11.811   2.676
98553SOL     OW97490  13.392   6.039   2.133
98553SOL    HW197491  13.389   6.061   2.226
98553SOL    HW297492  13.481   6.009   2.118
98554SOL     OW97493   3.073   0.233   7.735
98554SOL    HW197494   3.162   0.268   7.731
98554SOL    HW297495   3.016   0.311   7.733
98555SOL     OW97496   6.750   6.573  10.223
98555SOL    HW197497   6.663   6.598  10.192
98555SOL    HW297498   6.774   6.498  10.168
98556SOL     OW97499   4.071   3.636  14.051
98556SOL    HW197500   4.003   3.626  14.117
98556SOL    HW297501   4.026   3.620  13.968
98557SOL     OW97502   1.145   1.772  11.646
98557SOL    HW197503   1.058   1.801  11.674
98557SOL    HW297504   1.129   1.694  11.594
98558SOL     OW97505   8.323   5.039   2.723
98558SOL    HW197506   8.341   5.034   2.629
98558SOL    HW297507   8.258   4.971   2.740
98559SOL     OW97508  13.387  10.542  14.430
98559SOL    HW197509  13.342  10.505  14.354
98559SOL    HW297510  13.344  10.626  14.445
98560SOL     OW97511   6.975   9.930  14.542
98560SOL    HW197512   6.885   9.933  14.509
98560SOL    HW297513   6.984  10.011  14.592
98561SOL     OW97514   2.609  11.960   8.608
98561SOL    HW197515   2.624  11.879   8.656
98561SOL    HW297516   2.515  11.961   8.591
98562SOL     OW97517   7.463   1.924  14.855
98562SOL    HW197518   7.375   1.887  14.865
98562SOL    HW297519   7.520   1.848  14.840
98563SOL     OW97520  14.786  10.351   9.445
98563SOL    HW197521  14.851  10.327   9.379
98563SOL    HW297522  14.751  10.435   9.415
98564SOL     OW97523   0.854   6.605   3.801
98564SOL    HW197524   0.851   6.675   3.866
98564SOL    HW297525   0.763   6.595   3.772
98565SOL     OW97526   7.871   6.338   4.948
98565SOL    HW197527   7.803   6.402   4.971
98565SOL    HW297528   7.924   6.331   5.027
98566SOL     OW97529   4.421  13.321   1.072
98566SOL    HW197530   4.363  13.266   1.125
98566SOL    HW297531   4.493  13.343   1.131
98567SOL     OW97532   4.277  10.949   9.217
98567SOL    HW197533   4.299  10.949   9.124
98567SOL    HW297534   4.183  10.965   9.220
98568SOL     OW97535   6.932   5.333  10.101
98568SOL    HW197536   7.016   5.377  10.089
98568SOL    HW297537   6.875   5.400  10.139
98569SOL     OW97538   2.593  14.118   2.392
98569SOL    HW197539   2.605  14.033   2.351
98569SOL    HW297540   2.498  14.128   2.400
98570SOL     OW97541  14.422  11.844  12.664
98570SOL    HW197542  14.424  11.763  12.613
98570SOL    HW297543  14.330  11.869  12.666
98571SOL     OW97544   5.968   8.830  14.396
98571SOL    HW197545   6.003   8.895  14.456
98571SOL    HW297546   5.879   8.860  14.377
98572SOL     OW97547   7.068  13.827   9.089
98572SOL    HW197548   7.045  13.872   9.008
98572SOL    HW297549   7.122  13.754   9.061
98573SOL     OW97550  13.612   7.937  13.548
98573SOL    HW197551  13.640   7.902  13.632
98573SOL    HW297552  13.598   7.861  13.493
98574SOL     OW97553  11.768   2.238  12.766
98574SOL    HW197554  11.851   2.205  12.732
98574SOL    HW297555  11.701   2.194  12.713
98575SOL     OW97556   9.121  14.191   1.229
98575SOL    HW197557   9.045  14.248   1.218
98575SOL    HW297558   9.164  14.223   1.309
98576SOL     OW97559   8.791   4.918   1.116
98576SOL    HW197560   8.802   5.011   1.097
98576SOL    HW297561   8.793   4.912   1.211
98577SOL     OW97562   0.624   0.910   4.290
98577SOL    HW197563   0.696   0.848   4.284
98577SOL    HW297564   0.550   0.866   4.248
98578SOL     OW97565   0.901  12.483   9.445
98578SOL    HW197566   0.941  12.518   9.525
98578SOL    HW297567   0.975  12.449   9.394
98579SOL     OW97568   6.607   1.733   2.427
98579SOL    HW197569   6.566   1.712   2.343
98579SOL    HW297570   6.549   1.694   2.493
98580SOL     OW97571   7.009   7.842   4.308
98580SOL    HW197572   6.955   7.848   4.387
98580SOL    HW297573   7.045   7.754   4.310
98581SOL     OW97574   4.155  12.927   6.380
98581SOL    HW197575   4.212  12.959   6.310
98581SOL    HW297576   4.146  12.833   6.362
98582SOL     OW97577   7.441  10.378   0.480
98582SOL    HW197578   7.450  10.474   0.474
98582SOL    HW297579   7.375  10.356   0.414
98583SOL     OW97580   1.592   3.905  13.637
98583SOL    HW197581   1.601   3.987  13.589
98583SOL    HW297582   1.675   3.897  13.686
98584SOL     OW97583   6.588   0.614   3.814
98584SOL    HW197584   6.544   0.698   3.807
98584SOL    HW297585   6.518   0.549   3.804
98585SOL     OW97586   5.952   6.072   1.453
98585SOL    HW197587   5.857   6.081   1.446
98585SOL    HW297588   5.984   6.163   1.455
98586SOL     OW97589   9.623  11.829  11.613
98586SOL    HW197590   9.574  11.880  11.678
98586SOL    HW297591   9.558  11.771  11.574
98587SOL     OW97592   1.996  13.725  13.083
98587SOL    HW197593   1.928  13.658  13.079
98587SOL    HW297594   2.071  13.687  13.037
98588SOL     OW97595   8.614   7.444   7.155
98588SOL    HW197596   8.659   7.491   7.225
98588SOL    HW297597   8.685   7.403   7.105
98589SOL     OW97598   1.273  12.340  12.363
98589SOL    HW197599   1.355  12.384  12.339
98589SOL    HW297600   1.206  12.409  12.354
98590SOL     OW97601   1.208  13.550   2.472
98590SOL    HW197602   1.117  13.534   2.499
98590SOL    HW297603   1.200  13.587   2.384
98591SOL     OW97604  14.352   3.368  12.435
98591SOL    HW197605  14.379   3.311  12.363
98591SOL    HW297606  14.257   3.357  12.440
98592SOL     OW97607   6.538  12.371  10.717
98592SOL    HW197608   6.490  12.439  10.670
98592SOL    HW297609   6.617  12.357  10.665
98593SOL     OW97610   8.352   6.212   9.779
98593SOL    HW197611   8.319   6.245   9.695
98593SOL    HW297612   8.323   6.121   9.781
98594SOL     OW97613   6.010   3.055   7.774
98594SOL    HW197614   6.045   3.120   7.713
98594SOL    HW297615   6.004   2.975   7.723
98595SOL     OW97616   5.645   4.663  14.411
98595SOL    HW197617   5.585   4.739  14.412
98595SOL    HW297618   5.725   4.697  14.372
98596SOL     OW97619   5.026   6.661   4.616
98596SOL    HW197620   5.084   6.671   4.692
98596SOL    HW297621   5.030   6.567   4.596
98597SOL     OW97622   7.619   1.559   3.401
98597SOL    HW197623   7.617   1.506   3.322
98597SOL    HW297624   7.558   1.515   3.460
98598SOL     OW97625   3.152   5.638   3.317
98598SOL    HW197626   3.243   5.627   3.289
98598SOL    HW297627   3.155   5.625   3.412
98599SOL     OW97628   2.520   1.679   5.030
98599SOL    HW197629   2.587   1.743   5.008
98599SOL    HW297630   2.446   1.702   4.974
98600SOL     OW97631   7.207  12.533   8.903
98600SOL    HW197632   7.114  12.533   8.922
98600SOL    HW297633   7.232  12.441   8.905
98601SOL     OW97634   3.539  10.293   7.117
98601SOL    HW197635   3.563  10.283   7.025
98601SOL    HW297636   3.615  10.261   7.166
98602SOL     OW97637   4.252   0.010  10.226
98602SOL    HW197638   4.337  14.844  10.242
98602SOL    HW297639   4.264   0.100  10.256
98603SOL     OW97640   7.452  14.280  10.275
98603SOL    HW197641   7.476  14.364  10.314
98603SOL    HW297642   7.516  14.218  10.310
98604SOL     OW97643   7.714  14.026  10.293
98604SOL    HW197644   7.771  13.978  10.233
98604SOL    HW297645   7.753  14.012  10.379
98605SOL     OW97646   0.156  12.771   4.160
98605SOL    HW197647   0.077  12.723   4.182
98605SOL    HW297648   0.138  12.809   4.074
98606SOL     OW97649   6.791   7.989  13.369
98606SOL    HW197650   6.841   8.028  13.297
98606SOL    HW297651   6.844   7.914  13.396
98607SOL     OW97652   7.107  14.100   4.880
98607SOL    HW197653   7.094  14.037   4.951
98607SOL    HW297654   7.158  14.052   4.815
98608SOL     OW97655   3.177   9.695   1.024
98608SOL    HW197656   3.179   9.687   0.929
98608SOL    HW297657   3.092   9.734   1.043
98609SOL     OW97658  12.110   5.394  10.161
98609SOL    HW197659  12.097   5.404  10.255
98609SOL    HW297660  12.030   5.429  10.122
98610SOL     OW97661   2.518   3.870  14.095
98610SOL    HW197662   2.484   3.959  14.083
98610SOL    HW297663   2.610   3.883  14.119
98611SOL     OW97664  13.400   5.179   1.862
98611SOL    HW197665  13.389   5.262   1.817
98611SOL    HW297666  13.459   5.199   1.935
98612SOL     OW97667   4.961  12.529   0.449
98612SOL    HW197668   4.874  12.532   0.487
98612SOL    HW297669   4.980  12.619   0.424
98613SOL     OW97670   5.610   1.380  10.991
98613SOL    HW197671   5.612   1.328  11.071
98613SOL    HW297672   5.622   1.316  10.921
98614SOL     OW97673   5.041  13.300  11.197
98614SOL    HW197674   4.949  13.313  11.223
98614SOL    HW297675   5.080  13.387  11.202
98615SOL     OW97676   9.521   6.395   8.394
98615SOL    HW197677   9.576   6.317   8.384
98615SOL    HW297678   9.431   6.362   8.389
98616SOL     OW97679   9.335   9.394  11.358
98616SOL    HW197680   9.411   9.408  11.302
98616SOL    HW297681   9.308   9.481  11.386
98617SOL     OW97682   9.460   3.531   6.028
98617SOL    HW197683   9.447   3.496   5.939
98617SOL    HW297684   9.461   3.453   6.084
98618SOL     OW97685   2.569   1.775   0.509
98618SOL    HW197686   2.626   1.768   0.432
98618SOL    HW297687   2.490   1.818   0.476
98619SOL     OW97688   5.963  12.292   0.462
98619SOL    HW197689   5.997  12.206   0.486
98619SOL    HW297690   6.009  12.314   0.381
98620SOL     OW97691   5.554  13.234   9.964
98620SOL    HW197692   5.642  13.256   9.933
98620SOL    HW297693   5.563  13.146  10.001
98621SOL     OW97694   5.840   6.594   8.518
98621SOL    HW197695   5.769   6.561   8.462
98621SOL    HW297696   5.913   6.605   8.458
98622SOL     OW97697  12.740   7.666  13.808
98622SOL    HW197698  12.679   7.720  13.759
98622SOL    HW297699  12.717   7.576  13.785
98623SOL     OW97700   2.727   4.165   7.267
98623SOL    HW197701   2.666   4.133   7.201
98623SOL    HW297702   2.683   4.148   7.351
98624SOL     OW97703   5.892   0.189   9.877
98624SOL    HW197704   5.850   0.257   9.825
98624SOL    HW297705   5.981   0.220   9.890
98625SOL     OW97706   6.974   9.359   0.549
98625SOL    HW197707   7.064   9.324   0.552
98625SOL    HW297708   6.944   9.341   0.460
98626SOL     OW97709   3.543   1.877   4.101
98626SOL    HW197710   3.561   1.784   4.113
98626SOL    HW297711   3.576   1.918   4.182
98627SOL     OW97712   4.032  10.114   6.796
98627SOL    HW197713   4.118  10.145   6.826
98627SOL    HW297714   3.985  10.094   6.877
98628SOL     OW97715   7.687  14.338   0.416
98628SOL    HW197716   7.763  14.313   0.362
98628SOL    HW297717   7.633  14.259   0.418
98629SOL     OW97718  10.595   1.264   2.745
98629SOL    HW197719  10.526   1.330   2.747
98629SOL    HW297720  10.569   1.199   2.810
98630SOL     OW97721  14.123  14.440   2.255
98630SOL    HW197722  14.096  14.510   2.196
98630SOL    HW297723  14.072  14.455   2.334
98631SOL     OW97724   4.514   1.032  12.336
98631SOL    HW197725   4.502   0.994  12.249
98631SOL    HW297726   4.497   0.959  12.396
98632SOL     OW97727  14.238  12.973   3.350
98632SOL    HW197728  14.244  12.885   3.388
98632SOL    HW297729  14.240  12.958   3.256
98633SOL     OW97730  13.395   4.710   2.891
98633SOL    HW197731  13.371   4.801   2.876
98633SOL    HW297732  13.392   4.699   2.987
98634SOL     OW97733  13.945  13.332   3.955
98634SOL    HW197734  13.892  13.381   3.892
98634SOL    HW297735  14.033  13.366   3.945
98635SOL     OW97736   7.373  10.763   7.560
98635SOL    HW197737   7.447  10.821   7.578
98635SOL    HW297738   7.329  10.753   7.645
98636SOL     OW97739   5.756   5.621   2.599
98636SOL    HW197740   5.750   5.706   2.555
98636SOL    HW297741   5.798   5.640   2.683
98637SOL     OW97742  10.535   8.949   7.976
98637SOL    HW197743  10.573   8.997   8.050
98637SOL    HW297744  10.585   8.868   7.970
98638SOL     OW97745   9.160  12.311   6.785
98638SOL    HW197746   9.092  12.288   6.722
98638SOL    HW297747   9.118  12.301   6.870
98639SOL     OW97748  11.267   2.294  12.398
98639SOL    HW197749  11.191   2.332  12.355
98639SOL    HW297750  11.337   2.302  12.334
98640SOL     OW97751   4.648   3.828  11.081
98640SOL    HW197752   4.699   3.865  11.153
98640SOL    HW297753   4.560   3.818  11.116
98641SOL     OW97754  13.641   1.827   5.969
98641SOL    HW197755  13.559   1.784   5.948
98641SOL    HW297756  13.699   1.806   5.896
98642SOL     OW97757   5.743  12.358  12.510
98642SOL    HW197758   5.699  12.288  12.461
98642SOL    HW297759   5.812  12.313  12.558
98643SOL     OW97760   8.150   6.525   4.906
98643SOL    HW197761   8.091   6.600   4.911
98643SOL    HW297762   8.197   6.526   4.990
98644SOL     OW97763  10.207   6.694   9.376
98644SOL    HW197764  10.148   6.637   9.426
98644SOL    HW297765  10.253   6.745   9.443
98645SOL     OW97766   8.782  11.531   1.090
98645SOL    HW197767   8.810  11.596   1.154
98645SOL    HW297768   8.726  11.580   1.030
98646SOL     OW97769   3.824   0.077   5.684
98646SOL    HW197770   3.848  14.873   5.636
98646SOL    HW297771   3.732   0.092   5.662
98647SOL     OW97772  12.029   9.960   0.374
98647SOL    HW197773  12.100  10.024   0.377
98647SOL    HW297774  11.965   9.997   0.314
98648SOL     OW97775   5.147   4.804  11.886
98648SOL    HW197776   5.240   4.826  11.874
98648SOL    HW297777   5.100   4.886  11.872
98649SOL     OW97778  13.626   1.317  13.848
98649SOL    HW197779  13.535   1.345  13.844
98649SOL    HW297780  13.676   1.398  13.835
98650SOL     OW97781   7.612  10.753   7.080
98650SOL    HW197782   7.532  10.700   7.084
98650SOL    HW297783   7.610  10.803   7.162
98651SOL     OW97784  12.215  11.441   5.915
98651SOL    HW197785  12.139  11.498   5.925
98651SOL    HW297786  12.219  11.391   5.997
98652SOL     OW97787   1.177   1.569   6.194
98652SOL    HW197788   1.117   1.643   6.206
98652SOL    HW297789   1.128   1.508   6.139
98653SOL     OW97790   5.762   1.598  12.823
98653SOL    HW197791   5.753   1.693  12.810
98653SOL    HW297792   5.740   1.560  12.739
98654SOL     OW97793   5.051   0.629   2.082
98654SOL    HW197794   5.000   0.657   2.006
98654SOL    HW297795   5.048   0.703   2.142
98655SOL     OW97796   8.862   7.978   4.804
98655SOL    HW197797   8.856   8.039   4.878
98655SOL    HW297798   8.776   7.981   4.762
98656SOL     OW97799  10.133   5.112  10.809
98656SOL    HW197800  10.113   5.167  10.885
98656SOL    HW297801  10.048   5.095  10.768
98657SOL     OW97802   6.939   2.714  12.527
98657SOL    HW197803   6.845   2.713  12.507
98657SOL    HW297804   6.943   2.742  12.619
98658SOL     OW97805   4.042   2.116   2.955
98658SOL    HW197806   4.072   2.203   2.928
98658SOL    HW297807   3.974   2.133   3.021
98659SOL     OW97808   2.849  10.034  14.396
98659SOL    HW197809   2.937  10.063  14.373
98659SOL    HW297810   2.860   9.940  14.415
98660SOL     OW97811   4.798  14.530  13.842
98660SOL    HW197812   4.802  14.617  13.801
98660SOL    HW297813   4.884  14.492  13.827
98661SOL     OW97814   6.066   5.804  11.775
98661SOL    HW197815   6.112   5.742  11.831
98661SOL    HW297816   6.054   5.758  11.693
98662SOL     OW97817   1.045  10.916   9.965
98662SOL    HW197818   0.978  10.970  10.007
98662SOL    HW297819   0.999  10.869   9.896
98663SOL     OW97820   8.312   3.973   5.049
98663SOL    HW197821   8.320   3.896   4.993
98663SOL    HW297822   8.228   4.012   5.025
98664SOL     OW97823  10.484   0.590  13.763
98664SOL    HW197824  10.525   0.566  13.680
98664SOL    HW297825  10.557   0.594  13.825
98665SOL     OW97826   8.978  10.026   4.639
98665SOL    HW197827   9.062  10.009   4.683
98665SOL    HW297828   8.912  10.002   4.703
98666SOL     OW97829   5.766   8.967  13.406
98666SOL    HW197830   5.819   8.944  13.482
98666SOL    HW297831   5.760   8.887  13.355
98667SOL     OW97832  13.085  11.240   3.676
98667SOL    HW197833  13.164  11.237   3.622
98667SOL    HW297834  13.022  11.288   3.623
98668SOL     OW97835   0.009   2.807  12.971
98668SOL    HW197836  14.821   2.760  12.919
98668SOL    HW297837  14.843   2.890  12.993
98669SOL     OW97838  14.250  11.718   5.808
98669SOL    HW197839  14.236  11.676   5.893
98669SOL    HW297840  14.299  11.797   5.829
98670SOL     OW97841   5.582   2.134   9.424
98670SOL    HW197842   5.538   2.216   9.448
98670SOL    HW297843   5.572   2.129   9.329
98671SOL     OW97844  14.064   3.711   7.163
98671SOL    HW197845  14.057   3.690   7.070
98671SOL    HW297846  14.087   3.628   7.205
98672SOL     OW97847  12.189  13.287  13.736
98672SOL    HW197848  12.207  13.204  13.780
98672SOL    HW297849  12.199  13.353  13.805
98673SOL     OW97850   1.859  12.093   4.210
98673SOL    HW197851   1.885  12.087   4.302
98673SOL    HW297852   1.914  12.029   4.165
98674SOL     OW97853   1.248   4.240   8.114
98674SOL    HW197854   1.273   4.225   8.206
98674SOL    HW297855   1.256   4.154   8.073
98675SOL     OW97856   7.274  10.643   0.265
98675SOL    HW197857   7.263  10.725   0.217
98675SOL    HW297858   7.334  10.591   0.212
98676SOL     OW97859   6.253   7.498   6.679
98676SOL    HW197860   6.171   7.534   6.645
98676SOL    HW297861   6.311   7.573   6.688
98677SOL     OW97862   5.234  13.280   0.402
98677SOL    HW197863   5.292  13.344   0.444
98677SOL    HW297864   5.284  13.248   0.327
98678SOL     OW97865  10.780  14.816   0.725
98678SOL    HW197866  10.707  14.849   0.673
98678SOL    HW297867  10.760  14.843   0.815
98679SOL     OW97868  12.918   9.374  10.994
98679SOL    HW197869  12.894   9.281  10.991
98679SOL    HW297870  12.887   9.410  10.911
98680SOL     OW97871  11.831   0.055   2.679
98680SOL    HW197872  11.918   0.051   2.638
98680SOL    HW297873  11.783   0.119   2.626
98681SOL     OW97874  14.311   7.054  12.467
98681SOL    HW197875  14.315   6.964  12.501
98681SOL    HW297876  14.321   7.045  12.373
98682SOL     OW97877   5.799   3.264   1.685
98682SOL    HW197878   5.843   3.209   1.621
98682SOL    HW297879   5.838   3.238   1.769
98683SOL     OW97880   0.237   7.453   4.888
98683SOL    HW197881   0.304   7.385   4.884
98683SOL    HW297882   0.162   7.415   4.842
98684SOL     OW97883   6.200   0.238  12.766
98684SOL    HW197884   6.229   0.168  12.708
98684SOL    HW297885   6.155   0.193  12.838
98685SOL     OW97886  11.059  10.702   1.964
98685SOL    HW197887  10.970  10.704   1.927
98685SOL    HW297888  11.096  10.786   1.940
98686SOL     OW97889   7.157   9.414  10.561
98686SOL    HW197890   7.205   9.334  10.585
98686SOL    HW297891   7.184   9.433  10.472
98687SOL     OW97892   6.358   4.794  11.716
98687SOL    HW197893   6.272   4.827  11.740
98687SOL    HW297894   6.341   4.706  11.682
98688SOL     OW97895   0.505   2.049  10.562
98688SOL    HW197896   0.431   1.990  10.551
98688SOL    HW297897   0.582   1.992  10.554
98689SOL     OW97898   5.399   2.966  10.874
98689SOL    HW197899   5.472   2.923  10.918
98689SOL    HW297900   5.430   2.980  10.785
98690SOL     OW97901   8.201   3.265  11.856
98690SOL    HW197902   8.261   3.191  11.841
98690SOL    HW297903   8.256   3.333  11.893
98691SOL     OW97904  10.310   5.032  13.218
98691SOL    HW197905  10.352   4.950  13.243
98691SOL    HW297906  10.217   5.017  13.235
98692SOL     OW97907  13.052  11.674  10.754
98692SOL    HW197908  12.984  11.693  10.819
98692SOL    HW297909  13.134  11.677  10.804
98693SOL     OW97910  12.574   7.302   0.846
98693SOL    HW197911  12.647   7.278   0.787
98693SOL    HW297912  12.550   7.219   0.888
98694SOL     OW97913   1.022  11.906   2.375
98694SOL    HW197914   1.075  11.856   2.438
98694SOL    HW297915   0.971  11.966   2.430
98695SOL     OW97916   3.099   1.970   8.261
98695SOL    HW197917   3.068   2.010   8.343
98695SOL    HW297918   3.087   1.876   8.275
98696SOL     OW97919   2.147   2.414   8.427
98696SOL    HW197920   2.085   2.474   8.469
98696SOL    HW297921   2.171   2.458   8.346
98697SOL     OW97922   1.117  13.932  12.011
98697SOL    HW197923   1.049  13.984  11.969
98697SOL    HW297924   1.098  13.842  11.984
98698SOL     OW97925   3.794  10.721  14.013
98698SOL    HW197926   3.793  10.631  13.980
98698SOL    HW297927   3.786  10.712  14.108
98699SOL     OW97928   8.686  11.189  10.192
98699SOL    HW197929   8.648  11.181  10.279
98699SOL    HW297930   8.611  11.187  10.132
98700SOL     OW97931   2.430   4.755   6.498
98700SOL    HW197932   2.392   4.689   6.556
98700SOL    HW297933   2.370   4.759   6.424
98701SOL     OW97934  12.050   4.391  10.476
98701SOL    HW197935  12.050   4.458  10.407
98701SOL    HW297936  11.959   4.386  10.504
98702SOL     OW97937   5.320   4.018   5.707
98702SOL    HW197938   5.269   4.060   5.638
98702SOL    HW297939   5.381   4.086   5.736
98703SOL     OW97940   7.376  10.052   0.125
98703SOL    HW197941   7.399  10.007   0.207
98703SOL    HW297942   7.284  10.031   0.111
98704SOL     OW97943   8.412  10.753   7.413
98704SOL    HW197944   8.352  10.826   7.401
98704SOL    HW297945   8.403  10.731   7.506
98705SOL     OW97946   7.013   9.288  11.465
98705SOL    HW197947   7.068   9.244  11.530
98705SOL    HW297948   6.967   9.216  11.421
98706SOL     OW97949   5.076  12.965  12.614
98706SOL    HW197950   5.052  12.941  12.704
98706SOL    HW297951   5.167  12.993  12.619
98707SOL     OW97952   6.860   2.425   7.120
98707SOL    HW197953   6.871   2.414   7.215
98707SOL    HW297954   6.940   2.388   7.082
98708SOL     OW97955  13.558  10.844   5.955
98708SOL    HW197956  13.527  10.805   5.873
98708SOL    HW297957  13.653  10.837   5.951
98709SOL     OW97958   5.682   9.644  12.963
98709SOL    HW197959   5.655   9.553  12.967
98709SOL    HW297960   5.602   9.692  12.941
98710SOL     OW97961   8.888   8.246   1.360
98710SOL    HW197962   8.918   8.243   1.451
98710SOL    HW297963   8.793   8.243   1.366
98711SOL     OW97964   3.374  11.179  13.214
98711SOL    HW197965   3.462  11.149  13.236
98711SOL    HW297966   3.320  11.100  13.217
98712SOL     OW97967   0.089   5.534   2.205
98712SOL    HW197968   0.166   5.564   2.157
98712SOL    HW297969   0.124   5.495   2.284
98713SOL     OW97970   9.847   5.179  11.176
98713SOL    HW197971   9.836   5.084  11.172
98713SOL    HW297972   9.759   5.214  11.162
98714SOL     OW97973   7.649   8.662  13.309
98714SOL    HW197974   7.662   8.723  13.237
98714SOL    HW297975   7.699   8.699  13.382
98715SOL     OW97976   6.802   2.364   0.237
98715SOL    HW197977   6.836   2.428   0.300
98715SOL    HW297978   6.880   2.334   0.189
98716SOL     OW97979  12.597  13.597   1.239
98716SOL    HW197980  12.633  13.555   1.161
98716SOL    HW297981  12.524  13.650   1.206
98717SOL     OW97982   7.391  14.850   4.239
98717SOL    HW197983   7.379  14.771   4.291
98717SOL    HW297984   7.303   0.007   4.224
98718SOL     OW97985   8.605   8.373   9.334
98718SOL    HW197986   8.626   8.282   9.314
98718SOL    HW297987   8.570   8.371   9.423
98719SOL     OW97988  10.317   9.026   9.265
98719SOL    HW197989  10.407   9.003   9.241
98719SOL    HW297990  10.300   8.975   9.344
98720SOL     OW97991   6.121   1.100  12.312
98720SOL    HW197992   6.036   1.111  12.355
98720SOL    HW297993   6.102   1.044  12.236
98721SOL     OW97994   2.748   5.494   1.922
98721SOL    HW197995   2.762   5.497   2.017
98721SOL    HW297996   2.778   5.579   1.890
98722SOL     OW97997  10.754   1.861   6.884
98722SOL    HW197998  10.811   1.905   6.948
98722SOL    HW297999  10.667   1.864   6.924
98723SOL     OW98000  10.065  12.046  10.148
98723SOL    HW198001   9.999  12.005  10.092
98723SOL    HW298002  10.088  12.126  10.102
98724SOL     OW98003   8.214   4.295   5.161
98724SOL    HW198004   8.296   4.302   5.112
98724SOL    HW298005   8.216   4.368   5.223
98725SOL     OW98006   3.961  12.931   6.610
98725SOL    HW198007   4.030  12.904   6.549
98725SOL    HW298008   3.991  13.015   6.645
98726SOL     OW98009   4.173   3.314   3.163
98726SOL    HW198010   4.172   3.321   3.258
98726SOL    HW298011   4.206   3.399   3.132
98727SOL     OW98012   3.194  10.090   2.753
98727SOL    HW198013   3.281  10.054   2.738
98727SOL    HW298014   3.135  10.027   2.711
98728SOL     OW98015   6.648  13.408   9.526
98728SOL    HW198016   6.704  13.359   9.466
98728SOL    HW298017   6.570  13.430   9.475
98729SOL     OW98018   5.616   7.933   3.770
98729SOL    HW198019   5.697   7.911   3.815
98729SOL    HW298020   5.613   8.029   3.772
98730SOL     OW98021   7.596   7.841   5.395
98730SOL    HW198022   7.611   7.934   5.411
98730SOL    HW298023   7.644   7.797   5.465
98731SOL     OW98024   9.695   3.810   7.809
98731SOL    HW198025   9.683   3.893   7.765
98731SOL    HW298026   9.675   3.828   7.901
98732SOL     OW98027  13.711  12.561   4.403
98732SOL    HW198028  13.747  12.537   4.489
98732SOL    HW298029  13.773  12.624   4.368
98733SOL     OW98030   3.484   0.702   2.407
98733SOL    HW198031   3.456   0.788   2.376
98733SOL    HW298032   3.527   0.719   2.491
98734SOL     OW98033  14.857   3.674   9.729
98734SOL    HW198034  14.793   3.729   9.683
98734SOL    HW298035   0.003   3.605   9.667
98735SOL     OW98036  10.681   4.644   0.732
98735SOL    HW198037  10.592   4.646   0.697
98735SOL    HW298038  10.737   4.640   0.654
98736SOL     OW98039   2.358  10.754   3.010
98736SOL    HW198040   2.380  10.706   3.089
98736SOL    HW298041   2.359  10.689   2.940
98737SOL     OW98042   0.406  11.924   8.200
98737SOL    HW198043   0.469  11.897   8.133
98737SOL    HW298044   0.331  11.957   8.149
98738SOL     OW98045   4.197   8.629  11.434
98738SOL    HW198046   4.157   8.670  11.358
98738SOL    HW298047   4.266   8.574  11.398
98739SOL     OW98048   0.281   1.348  10.302
98739SOL    HW198049   0.253   1.420  10.245
98739SOL    HW298050   0.292   1.389  10.388
98740SOL     OW98051  11.865   8.104   9.411
98740SOL    HW198052  11.865   8.116   9.506
98740SOL    HW298053  11.780   8.138   9.382
98741SOL     OW98054   4.573   7.588   6.295
98741SOL    HW198055   4.667   7.577   6.305
98741SOL    HW298056   4.556   7.680   6.317
98742SOL     OW98057   6.740   5.985  13.701
98742SOL    HW198058   6.763   6.033  13.622
98742SOL    HW298059   6.646   5.970  13.693
98743SOL     OW98060  10.868  12.044   1.358
98743SOL    HW198061  10.778  12.076   1.360
98743SOL    HW298062  10.861  11.951   1.382
98744SOL     OW98063   3.104  10.547   3.431
98744SOL    HW198064   3.098  10.579   3.341
98744SOL    HW298065   3.195  10.518   3.440
98745SOL     OW98066   7.544   5.771  13.128
98745SOL    HW198067   7.558   5.849  13.075
98745SOL    HW298068   7.451   5.750  13.117
98746SOL     OW98069  14.406  14.655   1.620
98746SOL    HW198070  14.496  14.643   1.587
98746SOL    HW298071  14.416  14.715   1.694
98747SOL     OW98072   7.947   7.737  12.976
98747SOL    HW198073   7.882   7.719  12.907
98747SOL    HW298074   7.930   7.827  13.002
98748SOL     OW98075  13.057  10.156   8.692
98748SOL    HW198076  13.038  10.173   8.600
98748SOL    HW298077  13.076  10.062   8.695
98749SOL     OW98078  10.382   6.871  13.549
98749SOL    HW198079  10.356   6.930  13.620
98749SOL    HW298080  10.300   6.845  13.507
98750SOL     OW98081   7.979  14.204  14.378
98750SOL    HW198082   8.037  14.279  14.392
98750SOL    HW298083   7.940  14.187  14.463
98751SOL     OW98084  13.777  14.711  11.133
98751SOL    HW198085  13.724  14.785  11.162
98751SOL    HW298086  13.867  14.734  11.156
98752SOL     OW98087  11.162   1.177   5.782
98752SOL    HW198088  11.188   1.086   5.797
98752SOL    HW298089  11.144   1.182   5.688
98753SOL     OW98090   2.279   8.188   6.922
98753SOL    HW198091   2.371   8.191   6.893
98753SOL    HW298092   2.281   8.133   7.001
98754SOL     OW98093  10.062   8.459   9.861
98754SOL    HW198094   9.989   8.432   9.805
98754SOL    HW298095  10.119   8.382   9.865
98755SOL     OW98096   9.518   3.688  11.522
98755SOL    HW198097   9.573   3.717  11.449
98755SOL    HW298098   9.484   3.603  11.494
98756SOL     OW98099  12.532  11.971   4.617
98756SOL    HW198100  12.479  11.926   4.682
98756SOL    HW298101  12.604  11.911   4.599
98757SOL     OW98102   6.425  14.686  14.672
98757SOL    HW198103   6.334  14.707  14.651
98757SOL    HW298104   6.462  14.768  14.705
98758SOL     OW98105   6.951   6.942   1.741
98758SOL    HW198106   7.035   6.903   1.765
98758SOL    HW298107   6.952   6.945   1.645
98759SOL     OW98108   8.677  11.483  11.910
98759SOL    HW198109   8.738  11.414  11.938
98759SOL    HW298110   8.686  11.485  11.815
98760SOL     OW98111   1.575  11.933  14.517
98760SOL    HW198112   1.635  11.886  14.574
98760SOL    HW298113   1.630  11.993  14.467
98761SOL     OW98114   8.253   1.463   8.657
98761SOL    HW198115   8.216   1.376   8.673
98761SOL    HW298116   8.222   1.517   8.730
98762SOL     OW98117  11.234   2.313  10.343
98762SOL    HW198118  11.239   2.405  10.370
98762SOL    HW298119  11.325   2.285  10.336
98763SOL     OW98120   0.483   2.847   9.091
98763SOL    HW198121   0.416   2.832   9.024
98763SOL    HW298122   0.559   2.799   9.061
98764SOL     OW98123   3.501   1.108  10.753
98764SOL    HW198124   3.498   1.193  10.709
98764SOL    HW298125   3.481   1.045  10.684
98765SOL     OW98126   8.155   2.409   9.813
98765SOL    HW198127   8.087   2.474   9.831
98765SOL    HW298128   8.143   2.387   9.720
98766SOL     OW98129  12.996   3.090   1.051
98766SOL    HW198130  12.964   3.000   1.042
98766SOL    HW298131  12.978   3.130   0.966
98767SOL     OW98132   1.169  12.742   2.176
98767SOL    HW198133   1.216  12.658   2.173
98767SOL    HW298134   1.212  12.795   2.109
98768SOL     OW98135  10.560  10.309   4.883
98768SOL    HW198136  10.511  10.385   4.851
98768SOL    HW298137  10.557  10.246   4.811
98769SOL     OW98138   7.020   3.583   4.753
98769SOL    HW198139   7.036   3.615   4.842
98769SOL    HW298140   7.107   3.573   4.715
98770SOL     OW98141  10.160  10.736   0.208
98770SOL    HW198142  10.096  10.669   0.184
98770SOL    HW298143  10.206  10.755   0.127
98771SOL     OW98144   6.469  10.409   2.366
98771SOL    HW198145   6.479  10.410   2.461
98771SOL    HW298146   6.498  10.321   2.340
98772SOL     OW98147  12.708  10.116   6.195
98772SOL    HW198148  12.748  10.158   6.272
98772SOL    HW298149  12.653  10.184   6.157
98773SOL     OW98150   4.068   2.854   9.414
98773SOL    HW198151   4.098   2.943   9.397
98773SOL    HW298152   4.102   2.803   9.340
98774SOL     OW98153   8.263   8.456   9.109
98774SOL    HW198154   8.181   8.408   9.117
98774SOL    HW298155   8.323   8.394   9.068
98775SOL     OW98156  10.392   2.570   6.441
98775SOL    HW198157  10.414   2.627   6.367
98775SOL    HW298158  10.310   2.528   6.416
98776SOL     OW98159   3.476   9.811  10.581
98776SOL    HW198160   3.554   9.857  10.550
98776SOL    HW298161   3.478   9.822  10.676
98777SOL     OW98162   9.426   0.183   7.642
98777SOL    HW198163   9.453   0.143   7.559
98777SOL    HW298164   9.414   0.108   7.701
98778SOL     OW98165   5.840   4.031   4.239
98778SOL    HW198166   5.851   4.040   4.333
98778SOL    HW298167   5.777   4.099   4.215
98779SOL     OW98168  10.129   3.790   0.194
98779SOL    HW198169  10.112   3.871   0.145
98779SOL    HW298170  10.059   3.731   0.169
98780SOL     OW98171  12.983   4.902   5.878
98780SOL    HW198172  12.924   4.968   5.842
98780SOL    HW298173  13.071   4.941   5.871
98781SOL     OW98174   1.650   2.309   2.032
98781SOL    HW198175   1.618   2.361   1.958
98781SOL    HW298176   1.730   2.267   1.998
98782SOL     OW98177  14.131   1.534  10.024
98782SOL    HW198178  14.142   1.513   9.932
98782SOL    HW298179  14.053   1.484  10.051
98783SOL     OW98180   6.812   6.935   8.219
98783SOL    HW198181   6.860   6.885   8.285
98783SOL    HW298182   6.753   6.871   8.179
98784SOL     OW98183   9.832  12.208   1.761
98784SOL    HW198184   9.895  12.264   1.716
98784SOL    HW298185   9.773  12.269   1.806
98785SOL     OW98186   9.238   9.001  14.204
98785SOL    HW198187   9.297   9.010  14.130
98785SOL    HW298188   9.250   9.082  14.254
98786SOL     OW98189  14.335   6.832   0.321
98786SOL    HW198190  14.318   6.738   0.315
98786SOL    HW298191  14.425   6.843   0.289
98787SOL     OW98192   9.037   8.212   2.547
98787SOL    HW198193   9.037   8.152   2.622
98787SOL    HW298194   9.128   8.213   2.517
98788SOL     OW98195  13.672   3.613   7.422
98788SOL    HW198196  13.650   3.563   7.343
98788SOL    HW298197  13.588   3.636   7.461
98789SOL     OW98198   5.598   4.470   4.477
98789SOL    HW198199   5.520   4.510   4.514
98789SOL    HW298200   5.662   4.541   4.473
98790SOL     OW98201   8.822  12.899   1.353
98790SOL    HW198202   8.746  12.942   1.391
98790SOL    HW298203   8.793  12.868   1.267
98791SOL     OW98204  11.479  14.167  14.247
98791SOL    HW198205  11.495  14.178  14.341
98791SOL    HW298206  11.386  14.146  14.242
98792SOL     OW98207  14.802   9.631   1.209
98792SOL    HW198208  14.775   9.616   1.299
98792SOL    HW298209  14.725   9.609   1.156
98793SOL     OW98210   3.277   8.984  10.868
98793SOL    HW198211   3.191   8.968  10.905
98793SOL    HW298212   3.338   8.944  10.931
98794SOL     OW98213   5.488  14.505   8.859
98794SOL    HW198214   5.557  14.439   8.850
98794SOL    HW298215   5.531  14.588   8.838
98795SOL     OW98216  10.853   3.502  10.162
98795SOL    HW198217  10.879   3.559  10.090
98795SOL    HW298218  10.793   3.439  10.121
98796SOL     OW98219   1.034   8.504  14.535
98796SOL    HW198220   1.106   8.470  14.588
98796SOL    HW298221   1.021   8.593  14.566
98797SOL     OW98222   7.689   8.867   9.879
98797SOL    HW198223   7.700   8.803   9.950
98797SOL    HW298224   7.682   8.814   9.800
98798SOL     OW98225   8.446   4.276   0.391
98798SOL    HW198226   8.412   4.211   0.330
98798SOL    HW298227   8.520   4.233   0.434
98799SOL     OW98228  13.877   5.581   6.034
98799SOL    HW198229  13.942   5.534   6.087
98799SOL    HW298230  13.843   5.516   5.973
98800SOL     OW98231  10.093   9.302   2.812
98800SOL    HW198232  10.071   9.395   2.805
98800SOL    HW298233  10.016   9.257   2.777
98801SOL     OW98234   2.370  10.001  13.431
98801SOL    HW198235   2.284  10.034  13.456
98801SOL    HW298236   2.374  10.013  13.336
98802SOL     OW98237   8.905   8.396  13.433
98802SOL    HW198238   8.903   8.444  13.350
98802SOL    HW298239   8.816   8.365  13.445
98803SOL     OW98240  11.547  10.168   5.245
98803SOL    HW198241  11.504  10.136   5.325
98803SOL    HW298242  11.481  10.156   5.177
98804SOL     OW98243   6.445   3.469   2.358
98804SOL    HW198244   6.370   3.481   2.300
98804SOL    HW298245   6.512   3.528   2.323
98805SOL     OW98246   3.381   6.957   8.642
98805SOL    HW198247   3.315   6.963   8.574
98805SOL    HW298248   3.462   6.934   8.596
98806SOL     OW98249   4.377   1.145  12.564
98806SOL    HW198250   4.372   1.128  12.658
98806SOL    HW298251   4.465   1.115  12.539
98807SOL     OW98252   2.850   8.109  13.368
98807SOL    HW198253   2.869   8.017  13.354
98807SOL    HW298254   2.787   8.131  13.299
98808SOL     OW98255   3.920   5.146   8.175
98808SOL    HW198256   3.906   5.234   8.142
98808SOL    HW298257   3.879   5.089   8.109
98809SOL     OW98258   8.107  14.652   6.900
98809SOL    HW198259   8.059  14.698   6.969
98809SOL    HW298260   8.071  14.563   6.902
98810SOL     OW98261  14.393  10.011  10.114
98810SOL    HW198262  14.390  10.086  10.173
98810SOL    HW298263  14.477  10.019  10.069
98811SOL     OW98264   9.263   2.661  13.428
98811SOL    HW198265   9.291   2.610  13.503
98811SOL    HW298266   9.304   2.747  13.440
98812SOL     OW98267   6.610  10.817   3.478
98812SOL    HW198268   6.544  10.768   3.526
98812SOL    HW298269   6.582  10.908   3.485
98813SOL     OW98270   1.281   6.737  11.061
98813SOL    HW198271   1.246   6.797  11.127
98813SOL    HW298272   1.204   6.706  11.013
98814SOL     OW98273   4.705  12.951   4.367
98814SOL    HW198274   4.673  13.009   4.436
98814SOL    HW298275   4.800  12.955   4.374
98815SOL     OW98276   5.928  12.436   5.955
98815SOL    HW198277   5.962  12.354   5.988
98815SOL    HW298278   5.954  12.501   6.020
98816SOL     OW98279   5.315  10.981  14.496
98816SOL    HW198280   5.298  10.983  14.402
98816SOL    HW298281   5.309  11.073  14.523
98817SOL     OW98282  11.168  13.677   5.307
98817SOL    HW198283  11.201  13.740   5.243
98817SOL    HW298284  11.124  13.730   5.373
98818SOL     OW98285   0.495  13.492   0.533
98818SOL    HW198286   0.513  13.507   0.440
98818SOL    HW298287   0.400  13.504   0.541
98819SOL     OW98288   7.927   6.553  10.335
98819SOL    HW198289   7.883   6.492  10.394
98819SOL    HW298290   7.966   6.618  10.393
98820SOL     OW98291   1.052  14.014  12.561
98820SOL    HW198292   1.015  14.098  12.587
98820SOL    HW298293   0.984  13.973  12.508
98821SOL     OW98294   2.460   9.281   6.694
98821SOL    HW198295   2.554   9.270   6.685
98821SOL    HW298296   2.447   9.375   6.707
98822SOL     OW98297  11.052   4.371   0.904
98822SOL    HW198298  11.036   4.456   0.945
98822SOL    HW298299  11.109   4.389   0.830
98823SOL     OW98300  12.935  11.289   8.658
98823SOL    HW198301  12.872  11.238   8.608
98823SOL    HW298302  12.900  11.379   8.656
98824SOL     OW98303   2.091  10.558   0.095
98824SOL    HW198304   2.118  10.650   0.090
98824SOL    HW298305   2.086  10.540   0.189
98825SOL     OW98306   0.431   2.565  11.608
98825SOL    HW198307   0.476   2.565  11.523
98825SOL    HW298308   0.495   2.528  11.669
98826SOL     OW98309   1.181  11.483  14.782
98826SOL    HW198310   1.161  11.410  14.724
98826SOL    HW298311   1.108  11.543  14.771
98827SOL     OW98312   2.553   7.815   6.044
98827SOL    HW198313   2.593   7.804   6.130
98827SOL    HW298314   2.595   7.749   5.990
98828SOL     OW98315  10.573  10.565  10.985
98828SOL    HW198316  10.495  10.605  11.023
98828SOL    HW298317  10.542  10.483  10.948
98829SOL     OW98318   3.199   1.264  13.035
98829SOL    HW198319   3.143   1.267  12.957
98829SOL    HW298320   3.139   1.282  13.107
98830SOL     OW98321  10.670   5.109   4.437
98830SOL    HW198322  10.658   5.041   4.371
98830SOL    HW298323  10.690   5.062   4.517
98831SOL     OW98324   6.309  11.359  13.569
98831SOL    HW198325   6.290  11.265  13.575
98831SOL    HW298326   6.362  11.368  13.490
98832SOL     OW98327   7.795  11.533   3.768
98832SOL    HW198328   7.717  11.517   3.715
98832SOL    HW298329   7.761  11.562   3.853
98833SOL     OW98330   9.941  12.947   3.342
98833SOL    HW198331  10.010  12.994   3.295
98833SOL    HW298332   9.860  12.976   3.300
98834SOL     OW98333  14.790  12.540   6.074
98834SOL    HW198334  14.797  12.557   5.980
98834SOL    HW298335  14.845  12.607   6.115
98835SOL     OW98336  10.798   1.538   7.678
98835SOL    HW198337  10.713   1.573   7.651
98835SOL    HW298338  10.780   1.487   7.756
98836SOL     OW98339   7.771   4.179   4.051
98836SOL    HW198340   7.853   4.152   4.092
98836SOL    HW298341   7.777   4.275   4.049
98837SOL     OW98342   5.671   4.861   9.738
98837SOL    HW198343   5.611   4.905   9.797
98837SOL    HW298344   5.617   4.795   9.693
98838SOL     OW98345   8.116   6.221  13.502
98838SOL    HW198346   8.148   6.264  13.581
98838SOL    HW298347   8.189   6.224  13.441
98839SOL     OW98348   0.991   0.027  12.838
98839SOL    HW198349   1.027   0.024  12.749
98839SOL    HW298350   1.065   0.009  12.895
98840SOL     OW98351   5.942   5.636   9.914
98840SOL    HW198352   5.979   5.608   9.830
98840SOL    HW298353   5.849   5.646   9.897
98841SOL     OW98354   1.034   4.451   4.392
98841SOL    HW198355   1.084   4.533   4.397
98841SOL    HW298356   0.968   4.468   4.324
98842SOL     OW98357  10.188   0.973   6.153
98842SOL    HW198358  10.144   0.902   6.105
98842SOL    HW298359  10.247   0.927   6.213
98843SOL     OW98360  11.914  10.719   0.880
98843SOL    HW198361  11.945  10.792   0.826
98843SOL    HW298362  11.980  10.651   0.869
98844SOL     OW98363  11.394  14.545  14.048
98844SOL    HW198364  11.359  14.574  13.964
98844SOL    HW298365  11.458  14.478  14.026
98845SOL     OW98366   9.424  13.532   9.770
98845SOL    HW198367   9.492  13.596   9.793
98845SOL    HW298368   9.448  13.453   9.819
98846SOL     OW98369  11.996   3.960  14.303
98846SOL    HW198370  11.996   4.049  14.268
98846SOL    HW298371  11.989   3.904  14.226
98847SOL     OW98372   2.976   6.356   4.446
98847SOL    HW198373   2.992   6.265   4.470
98847SOL    HW298374   3.062   6.391   4.425
98848SOL     OW98375   7.726   8.055   5.939
98848SOL    HW198376   7.688   7.994   5.876
98848SOL    HW298377   7.755   8.130   5.886
98849SOL     OW98378   0.766   0.562   9.744
98849SOL    HW198379   0.859   0.542   9.746
98849SOL    HW298380   0.732   0.512   9.670
98850SOL     OW98381   7.244   9.752  13.778
98850SOL    HW198382   7.254   9.678  13.717
98850SOL    HW298383   7.264   9.715  13.864
98851SOL     OW98384   7.223   3.778   1.607
98851SOL    HW198385   7.282   3.852   1.622
98851SOL    HW298386   7.158   3.811   1.545
98852SOL     OW98387   9.540   9.121   2.677
98852SOL    HW198388   9.553   9.035   2.716
98852SOL    HW298389   9.444   9.132   2.674
98853SOL     OW98390   9.575  13.188  13.570
98853SOL    HW198391   9.485  13.219  13.557
98853SOL    HW298392   9.601  13.226  13.654
98854SOL     OW98393  11.189   7.121  13.368
98854SOL    HW198394  11.142   7.063  13.307
98854SOL    HW298395  11.227   7.062  13.433
98855SOL     OW98396   1.193   6.937  13.094
98855SOL    HW198397   1.136   6.987  13.035
98855SOL    HW298398   1.257   6.896  13.036
98856SOL     OW98399   1.489  11.026   8.371
98856SOL    HW198400   1.468  11.117   8.349
98856SOL    HW298401   1.580  11.015   8.345
98857SOL     OW98402   3.789   2.736   0.499
98857SOL    HW198403   3.854   2.700   0.559
98857SOL    HW298404   3.706   2.726   0.545
98858SOL     OW98405  11.571   7.960   0.591
98858SOL    HW198406  11.654   8.005   0.581
98858SOL    HW298407  11.522   7.980   0.511
98859SOL     OW98408   7.086   4.290   1.226
98859SOL    HW198409   7.161   4.260   1.175
98859SOL    HW298410   7.019   4.223   1.213
98860SOL     OW98411   4.236   5.884   1.736
98860SOL    HW198412   4.162   5.885   1.796
98860SOL    HW298413   4.234   5.798   1.695
98861SOL     OW98414   9.309   7.650  13.680
98861SOL    HW198415   9.283   7.647  13.588
98861SOL    HW298416   9.358   7.732  13.689
98862SOL     OW98417  13.510   6.400   7.750
98862SOL    HW198418  13.461   6.409   7.668
98862SOL    HW298419  13.482   6.316   7.786
98863SOL     OW98420   8.083   4.149  11.237
98863SOL    HW198421   8.031   4.068  11.237
98863SOL    HW298422   8.172   4.119  11.255
98864SOL     OW98423   6.511   9.257   3.081
98864SOL    HW198424   6.589   9.201   3.084
98864SOL    HW298425   6.439   9.197   3.063
98865SOL     OW98426   1.688  13.631   6.981
98865SOL    HW198427   1.720  13.692   7.048
98865SOL    HW298428   1.741  13.552   6.993
98866SOL     OW98429  12.165   9.555  13.985
98866SOL    HW198430  12.130   9.550  13.896
98866SOL    HW298431  12.148   9.645  14.013
98867SOL     OW98432   8.229   6.311  10.894
98867SOL    HW198433   8.133   6.305  10.890
98867SOL    HW298434   8.259   6.266  10.815
98868SOL     OW98435   2.151  14.195   6.994
98868SOL    HW198436   2.078  14.239   7.038
98868SOL    HW298437   2.221  14.260   6.992
98869SOL     OW98438   1.904   4.470   3.868
98869SOL    HW198439   1.983   4.435   3.910
98869SOL    HW298440   1.899   4.423   3.785
98870SOL     OW98441   1.897   5.349  10.917
98870SOL    HW198442   1.936   5.272  10.876
98870SOL    HW298443   1.884   5.410  10.844
98871SOL     OW98444   1.433  11.703   8.459
98871SOL    HW198445   1.496  11.633   8.443
98871SOL    HW298446   1.350  11.669   8.425
98872SOL     OW98447  14.274   0.825   1.902
98872SOL    HW198448  14.324   0.821   1.984
98872SOL    HW298449  14.182   0.820   1.930
98873SOL     OW98450   7.685   6.300  14.246
98873SOL    HW198451   7.662   6.371  14.306
98873SOL    HW298452   7.667   6.335  14.159
98874SOL     OW98453   6.224  13.552  12.265
98874SOL    HW198454   6.196  13.502  12.188
98874SOL    HW298455   6.250  13.486  12.329
98875SOL     OW98456   8.794   8.456   6.532
98875SOL    HW198457   8.840   8.535   6.559
98875SOL    HW298458   8.702   8.473   6.553
98876SOL     OW98459   2.276   1.513   4.552
98876SOL    HW198460   2.240   1.436   4.508
98876SOL    HW298461   2.365   1.522   4.517
98877SOL     OW98462   5.648  11.261   5.202
98877SOL    HW198463   5.560  11.223   5.203
98877SOL    HW298464   5.705  11.188   5.181
98878SOL     OW98465   8.534   0.629   0.102
98878SOL    HW198466   8.548   0.687   0.177
98878SOL    HW298467   8.497   0.685   0.034
98879SOL     OW98468  14.367   1.896  11.776
98879SOL    HW198469  14.419   1.883  11.696
98879SOL    HW298470  14.308   1.821  11.778
98880SOL     OW98471   3.756  10.518   5.971
98880SOL    HW198472   3.837  10.532   6.020
98880SOL    HW298473   3.719  10.438   6.008
98881SOL     OW98474   3.618   2.926   7.353
98881SOL    HW198475   3.560   2.852   7.367
98881SOL    HW298476   3.594   2.960   7.266
98882SOL     OW98477   3.110  12.319   9.137
98882SOL    HW198478   3.172  12.340   9.207
98882SOL    HW298479   3.159  12.260   9.079
98883SOL     OW98480   0.147  12.679  11.153
98883SOL    HW198481   0.072  12.690  11.211
98883SOL    HW298482   0.131  12.596  11.108
98884SOL     OW98483   5.130   0.760   3.954
98884SOL    HW198484   5.121   0.738   4.047
98884SOL    HW298485   5.212   0.718   3.927
98885SOL     OW98486  11.125   1.946  11.562
98885SOL    HW198487  11.105   1.974  11.473
98885SOL    HW298488  11.057   1.987  11.616
98886SOL     OW98489   8.389  12.406   8.239
98886SOL    HW198490   8.408  12.318   8.272
98886SOL    HW298491   8.352  12.392   8.152
98887SOL     OW98492   6.186  13.580  11.546
98887SOL    HW198493   6.221  13.667  11.563
98887SOL    HW298494   6.248  13.521  11.590
98888SOL     OW98495  11.567   9.035   7.401
98888SOL    HW198496  11.594   9.035   7.493
98888SOL    HW298497  11.523   9.119   7.390
98889SOL     OW98498   3.079   9.441   2.385
98889SOL    HW198499   3.149   9.393   2.341
98889SOL    HW298500   3.095   9.425   2.478
98890SOL     OW98501   9.908  12.993   1.970
98890SOL    HW198502   9.916  12.900   1.993
98890SOL    HW298503   9.863  12.993   1.885
98891SOL     OW98504  13.012   0.288  10.497
98891SOL    HW198505  13.052   0.230  10.562
98891SOL    HW298506  12.949   0.232  10.452
98892SOL     OW98507   4.994   5.812   2.703
98892SOL    HW198508   4.945   5.891   2.727
98892SOL    HW298509   5.003   5.818   2.608
98893SOL     OW98510  10.633  10.975   2.089
98893SOL    HW198511  10.644  11.025   2.008
98893SOL    HW298512  10.583  11.034   2.146
98894SOL     OW98513   5.442   5.948   8.467
98894SOL    HW198514   5.524   5.901   8.451
98894SOL    HW298515   5.453   6.032   8.424
98895SOL     OW98516  12.839  11.946  10.342
98895SOL    HW198517  12.783  11.886  10.292
98895SOL    HW298518  12.785  12.024  10.354
98896SOL     OW98519  12.810   7.311  11.998
98896SOL    HW198520  12.903   7.286  11.994
98896SOL    HW298521  12.811   7.406  11.986
98897SOL     OW98522  12.734   4.151   0.472
98897SOL    HW198523  12.738   4.057   0.455
98897SOL    HW298524  12.723   4.157   0.567
98898SOL     OW98525   8.149   7.079   3.526
98898SOL    HW198526   8.191   7.097   3.610
98898SOL    HW298527   8.207   7.121   3.461
98899SOL     OW98528   8.210   4.791   2.037
98899SOL    HW198529   8.289   4.834   2.004
98899SOL    HW298530   8.234   4.758   2.123
98900SOL     OW98531   1.309  13.217  11.635
98900SOL    HW198532   1.236  13.278  11.626
98900SOL    HW298533   1.358  13.248  11.711
98901SOL     OW98534   6.706   5.811   4.822
98901SOL    HW198535   6.783   5.825   4.767
98901SOL    HW298536   6.657   5.741   4.777
98902SOL     OW98537   5.932  12.969  13.514
98902SOL    HW198538   5.934  12.877  13.539
98902SOL    HW298539   5.884  13.012  13.585
98903SOL     OW98540   1.731   3.703   4.453
98903SOL    HW198541   1.702   3.612   4.461
98903SOL    HW298542   1.650   3.754   4.450
98904SOL     OW98543   2.679  10.536   6.487
98904SOL    HW198544   2.608  10.554   6.425
98904SOL    HW298545   2.755  10.578   6.448
98905SOL     OW98546   7.049   3.969   5.091
98905SOL    HW198547   7.083   4.002   5.175
98905SOL    HW298548   6.961   4.005   5.085
98906SOL     OW98549   6.107   8.316   2.763
98906SOL    HW198550   6.080   8.320   2.671
98906SOL    HW298551   6.026   8.329   2.812
98907SOL     OW98552  10.063  13.529   9.905
98907SOL    HW198553  10.143  13.509   9.954
98907SOL    HW298554  10.092  13.586   9.834
98908SOL     OW98555   7.530   8.252   1.806
98908SOL    HW198556   7.507   8.298   1.887
98908SOL    HW298557   7.621   8.224   1.820
98909SOL     OW98558  11.914   9.632   0.833
98909SOL    HW198559  11.900   9.720   0.870
98909SOL    HW298560  12.005   9.633   0.803
98910SOL     OW98561  12.577   3.810  11.879
98910SOL    HW198562  12.637   3.775  11.945
98910SOL    HW298563  12.571   3.904  11.898
98911SOL     OW98564  10.864   6.948  11.882
98911SOL    HW198565  10.844   7.034  11.916
98911SOL    HW298566  10.955   6.932  11.907
98912SOL     OW98567   6.734   2.102   6.825
98912SOL    HW198568   6.741   2.129   6.916
98912SOL    HW298569   6.644   2.073   6.814
98913SOL     OW98570   9.703   8.317   0.021
98913SOL    HW198571   9.631   8.360  14.851
98913SOL    HW298572   9.737   8.385   0.080
98914SOL     OW98573   8.899   8.310  11.332
98914SOL    HW198574   8.989   8.280  11.342
98914SOL    HW298575   8.897   8.396  11.374
98915SOL     OW98576   6.325  14.123   3.066
98915SOL    HW198577   6.299  14.093   3.153
98915SOL    HW298578   6.345  14.043   3.018
98916SOL     OW98579  10.444   2.657  12.025
98916SOL    HW198580  10.458   2.707  11.945
98916SOL    HW298581  10.478   2.712  12.095
98917SOL     OW98582   4.380   8.812   6.517
98917SOL    HW198583   4.427   8.826   6.434
98917SOL    HW298584   4.446   8.774   6.575
98918SOL     OW98585   9.963   5.887  12.217
98918SOL    HW198586   9.988   5.971  12.257
98918SOL    HW298587  10.036   5.866  12.159
98919SOL     OW98588   2.510  13.229  12.557
98919SOL    HW198589   2.564  13.190  12.487
98919SOL    HW298590   2.421  13.200  12.537
98920SOL     OW98591   7.928  11.971   2.501
98920SOL    HW198592   8.020  11.996   2.495
98920SOL    HW298593   7.923  11.915   2.579
98921SOL     OW98594   6.234   5.139  13.012
98921SOL    HW198595   6.306   5.174  13.063
98921SOL    HW298596   6.273   5.074  12.954
98922SOL     OW98597  14.842   5.090   6.169
98922SOL    HW198598  14.786   5.098   6.092
98922SOL    HW298599  14.785   5.110   6.243
98923SOL     OW98600   3.234   2.617   9.526
98923SOL    HW198601   3.263   2.659   9.445
98923SOL    HW298602   3.148   2.654   9.543
98924SOL     OW98603  10.144  11.925   0.444
98924SOL    HW198604  10.095  11.883   0.515
98924SOL    HW298605  10.099  11.896   0.364
98925SOL     OW98606   0.743  10.916   9.607
98925SOL    HW198607   0.768  11.008   9.599
98925SOL    HW298608   0.823  10.873   9.639
98926SOL     OW98609  12.731  13.127  13.325
98926SOL    HW198610  12.821  13.107  13.299
98926SOL    HW298611  12.737  13.211  13.371
98927SOL     OW98612   5.786   7.214   7.687
98927SOL    HW198613   5.742   7.252   7.763
98927SOL    HW298614   5.876   7.198   7.718
98928SOL     OW98615   9.895   2.770   1.904
98928SOL    HW198616   9.828   2.749   1.840
98928SOL    HW298617   9.853   2.834   1.962
98929SOL     OW98618  14.523   0.491  14.126
98929SOL    HW198619  14.566   0.501  14.210
98929SOL    HW298620  14.520   0.580  14.089
98930SOL     OW98621  12.460  10.207  14.110
98930SOL    HW198622  12.464  10.289  14.059
98930SOL    HW298623  12.396  10.226  14.179
98931SOL     OW98624   1.050   6.157   2.594
98931SOL    HW198625   1.091   6.244   2.585
98931SOL    HW298626   0.973   6.161   2.538
98932SOL     OW98627  12.885   8.408   3.743
98932SOL    HW198628  12.903   8.455   3.661
98932SOL    HW298629  12.813   8.349   3.721
98933SOL     OW98630   7.692   3.684  11.773
98933SOL    HW198631   7.751   3.709  11.844
98933SOL    HW298632   7.693   3.588  11.774
98934SOL     OW98633  11.664   8.672   2.423
98934SOL    HW198634  11.686   8.612   2.495
98934SOL    HW298635  11.590   8.630   2.380
98935SOL     OW98636   2.988   2.306   6.987
98935SOL    HW198637   2.969   2.372   7.053
98935SOL    HW298638   3.053   2.348   6.930
98936SOL     OW98639   5.599   3.946  13.854
98936SOL    HW198640   5.548   4.011  13.902
98936SOL    HW298641   5.583   3.967  13.762
98937SOL     OW98642   7.937  12.789   8.729
98937SOL    HW198643   7.984  12.755   8.805
98937SOL    HW298644   7.911  12.711   8.681
98938SOL     OW98645   5.345   6.037   5.939
98938SOL    HW198646   5.373   6.055   6.029
98938SOL    HW298647   5.333   5.942   5.937
98939SOL     OW98648   0.070  13.651  11.958
98939SOL    HW198649   0.137  13.602  12.006
98939SOL    HW298650   0.119  13.714  11.905
98940SOL     OW98651   0.046   1.584   7.988
98940SOL    HW198652   0.138   1.609   7.975
98940SOL    HW298653  14.873   1.666   7.979
98941SOL     OW98654   5.245   4.475   9.768
98941SOL    HW198655   5.340   4.484   9.762
98941SOL    HW298656   5.230   4.429   9.851
98942SOL     OW98657  11.332   2.530   3.768
98942SOL    HW198658  11.271   2.516   3.841
98942SOL    HW298659  11.289   2.597   3.714
98943SOL     OW98660   2.382  11.668   3.997
98943SOL    HW198661   2.301  11.618   3.990
98943SOL    HW298662   2.423  11.637   4.078
98944SOL     OW98663   3.904   8.392   9.352
98944SOL    HW198664   3.875   8.317   9.302
98944SOL    HW298665   3.824   8.428   9.390
98945SOL     OW98666   1.459   7.170   0.745
98945SOL    HW198667   1.545   7.205   0.721
98945SOL    HW298668   1.400   7.245   0.740
98946SOL     OW98669   0.462   5.315   8.367
98946SOL    HW198670   0.452   5.221   8.349
98946SOL    HW298671   0.508   5.318   8.451
98947SOL     OW98672   2.226   2.364   2.801
98947SOL    HW198673   2.204   2.395   2.713
98947SOL    HW298674   2.319   2.345   2.798
98948SOL     OW98675  12.489  10.788  10.987
98948SOL    HW198676  12.442  10.748  10.914
98948SOL    HW298677  12.546  10.853  10.946
98949SOL     OW98678   7.962  13.521  10.815
98949SOL    HW198679   7.934  13.605  10.852
98949SOL    HW298680   8.008  13.478  10.887
98950SOL     OW98681   0.381  10.659   2.734
98950SOL    HW198682   0.430  10.736   2.704
98950SOL    HW298683   0.304  10.656   2.677
98951SOL     OW98684   1.444  10.028  12.730
98951SOL    HW198685   1.428   9.959  12.794
98951SOL    HW298686   1.392  10.102  12.762
98952SOL     OW98687  12.203  12.567  13.204
98952SOL    HW198688  12.286  12.530  13.172
98952SOL    HW298689  12.147  12.490  13.219
98953SOL     OW98690  14.198   9.446   2.151
98953SOL    HW198691  14.188   9.367   2.204
98953SOL    HW298692  14.146   9.512   2.197
98954SOL     OW98693   7.787  11.510   5.506
98954SOL    HW198694   7.787  11.581   5.442
98954SOL    HW298695   7.700  11.472   5.499
98955SOL     OW98696  12.087  11.633   8.427
98955SOL    HW198697  12.004  11.587   8.443
98955SOL    HW298698  12.079  11.715   8.476
98956SOL     OW98699   5.260  14.191  12.623
98956SOL    HW198700   5.229  14.186  12.714
98956SOL    HW298701   5.329  14.126  12.617
98957SOL     OW98702   8.733   5.872   4.917
98957SOL    HW198703   8.749   5.849   4.825
98957SOL    HW298704   8.805   5.830   4.964
98958SOL     OW98705   0.018  11.744   9.467
98958SOL    HW198706  14.837  11.672   9.443
98958SOL    HW298707   0.014  11.747   9.563
98959SOL     OW98708   9.191   1.338  13.252
98959SOL    HW198709   9.133   1.276  13.209
98959SOL    HW298710   9.132   1.398  13.298
98960SOL     OW98711  12.542  14.791  12.516
98960SOL    HW198712  12.588  14.745  12.586
98960SOL    HW298713  12.473  14.731  12.488
98961SOL     OW98714   5.460   8.913   1.083
98961SOL    HW198715   5.489   8.956   1.002
98961SOL    HW298716   5.541   8.878   1.122
98962SOL     OW98717   5.797  14.205   6.281
98962SOL    HW198718   5.851  14.283   6.274
98962SOL    HW298719   5.820  14.152   6.205
98963SOL     OW98720   2.962   3.387  11.867
98963SOL    HW198721   2.898   3.419  11.804
98963SOL    HW298722   3.042   3.376  11.816
98964SOL     OW98723   5.290  14.571  11.132
98964SOL    HW198724   5.358  14.635  11.111
98964SOL    HW298725   5.320  14.531  11.214
98965SOL     OW98726  13.253   1.163   9.016
98965SOL    HW198727  13.317   1.187   9.084
98965SOL    HW298728  13.186   1.113   9.062
98966SOL     OW98729   9.241   2.698   6.471
98966SOL    HW198730   9.162   2.744   6.443
98966SOL    HW298731   9.229   2.685   6.565
98967SOL     OW98732   7.309  11.301   5.021
98967SOL    HW198733   7.367  11.260   4.957
98967SOL    HW298734   7.368  11.339   5.086
98968SOL     OW98735  10.814   1.110   0.605
98968SOL    HW198736  10.826   1.198   0.571
98968SOL    HW298737  10.862   1.053   0.545
98969SOL     OW98738  12.482   8.838   8.138
98969SOL    HW198739  12.546   8.787   8.089
98969SOL    HW298740  12.473   8.919   8.089
98970SOL     OW98741   7.251   6.551   1.787
98970SOL    HW198742   7.218   6.639   1.807
98970SOL    HW298743   7.174   6.504   1.753
98971SOL     OW98744  13.688   5.426   1.815
98971SOL    HW198745  13.639   5.502   1.846
98971SOL    HW298746  13.682   5.431   1.720
98972SOL     OW98747   1.114  12.184   0.419
98972SOL    HW198748   1.181  12.150   0.360
98972SOL    HW298749   1.103  12.276   0.393
98973SOL     OW98750   2.511   5.277   4.863
98973SOL    HW198751   2.473   5.205   4.813
98973SOL    HW298752   2.464   5.276   4.946
98974SOL     OW98753   9.335   9.128  12.591
98974SOL    HW198754   9.330   9.081  12.674
98974SOL    HW298755   9.356   9.061  12.526
98975SOL     OW98756  12.694  14.155  12.640
98975SOL    HW198757  12.682  14.198  12.724
98975SOL    HW298758  12.779  14.187  12.609
98976SOL     OW98759  13.200   4.902  10.810
98976SOL    HW198760  13.263   4.931  10.744
98976SOL    HW298761  13.182   4.980  10.862
98977SOL     OW98762   4.652  13.146  12.137
98977SOL    HW198763   4.587  13.087  12.176
98977SOL    HW298764   4.621  13.234  12.160
98978SOL     OW98765  10.508   5.562  10.389
98978SOL    HW198766  10.430   5.600  10.348
98978SOL    HW298767  10.473   5.508  10.460
98979SOL     OW98768   2.277  10.857  12.443
98979SOL    HW198769   2.335  10.933  12.439
98979SOL    HW298770   2.275  10.832  12.535
98980SOL     OW98771   1.783   6.808   7.544
98980SOL    HW198772   1.871   6.796   7.578
98980SOL    HW298773   1.746   6.878   7.598
98981SOL     OW98774   1.342   0.508   7.091
98981SOL    HW198775   1.316   0.483   7.179
98981SOL    HW298776   1.427   0.551   7.102
98982SOL     OW98777   3.970   3.901   3.197
98982SOL    HW198778   3.956   3.825   3.140
98982SOL    HW298779   4.013   3.965   3.141
98983SOL     OW98780   0.909   8.252   1.800
98983SOL    HW198781   0.926   8.252   1.706
98983SOL    HW298782   0.917   8.344   1.826
98984SOL     OW98783  14.726  14.769   8.767
98984SOL    HW198784  14.701  14.862   8.769
98984SOL    HW298785  14.721  14.745   8.675
98985SOL     OW98786   5.739   3.909  12.662
98985SOL    HW198787   5.829   3.927  12.689
98985SOL    HW298788   5.689   3.984  12.694
98986SOL     OW98789   4.218   5.815   6.679
98986SOL    HW198790   4.214   5.723   6.655
98986SOL    HW298791   4.254   5.859   6.601
98987SOL     OW98792   3.750  12.821   3.608
98987SOL    HW198793   3.692  12.797   3.535
98987SOL    HW298794   3.731  12.913   3.625
98988SOL     OW98795   4.947   8.090   1.327
98988SOL    HW198796   4.911   8.150   1.262
98988SOL    HW298797   5.042   8.094   1.313
98989SOL     OW98798  13.331   0.874   5.705
98989SOL    HW198799  13.282   0.890   5.786
98989SOL    HW298800  13.360   0.784   5.712
98990SOL     OW98801   6.280   0.111  11.484
98990SOL    HW198802   6.305   0.030  11.528
98990SOL    HW298803   6.288   0.179  11.552
98991SOL     OW98804   3.935   7.250   5.826
98991SOL    HW198805   3.867   7.310   5.796
98991SOL    HW298806   4.007   7.263   5.764
98992SOL     OW98807  10.398  10.708   5.144
98992SOL    HW198808  10.414  10.627   5.192
98992SOL    HW298809  10.310  10.735   5.172
98993SOL     OW98810   1.883   3.069  14.772
98993SOL    HW198811   1.955   3.077  14.709
98993SOL    HW298812   1.925   3.075  14.858
98994SOL     OW98813  10.291  13.133   6.501
98994SOL    HW198814  10.326  13.182   6.575
98994SOL    HW298815  10.344  13.161   6.426
98995SOL     OW98816   1.964  12.499  13.618
98995SOL    HW198817   2.028  12.569  13.608
98995SOL    HW298818   2.016  12.420  13.634
98996SOL     OW98819  11.433   8.586  12.103
98996SOL    HW198820  11.486   8.590  12.024
98996SOL    HW298821  11.464   8.659  12.157
98997SOL     OW98822   9.506   4.035   6.486
98997SOL    HW198823   9.446   4.077   6.547
98997SOL    HW298824   9.591   4.036   6.530
98998SOL     OW98825   4.560   8.873   6.999
98998SOL    HW198826   4.479   8.844   6.957
98998SOL    HW298827   4.593   8.795   7.045
98999SOL     OW98828   9.143   7.851   7.501
98999SOL    HW198829   9.126   7.760   7.476
98999SOL    HW298830   9.085   7.902   7.444
99000SOL     OW98831   3.901  14.162   1.396
99000SOL    HW198832   3.894  14.190   1.487
99000SOL    HW298833   3.987  14.194   1.367
99001SOL     OW98834   5.665   0.304  13.973
99001SOL    HW198835   5.724   0.352  13.915
99001SOL    HW298836   5.578   0.317  13.936
99002SOL     OW98837  14.407   1.228   4.328
99002SOL    HW198838  14.478   1.200   4.270
99002SOL    HW298839  14.402   1.323   4.315
99003SOL     OW98840   5.848   2.894   3.229
99003SOL    HW198841   5.801   2.953   3.287
99003SOL    HW298842   5.784   2.867   3.164
99004SOL     OW98843   0.858  13.499  10.496
99004SOL    HW198844   0.900  13.441  10.433
99004SOL    HW298845   0.868  13.587  10.459
99005SOL     OW98846  11.176   8.131   3.013
99005SOL    HW198847  11.223   8.166   2.938
99005SOL    HW298848  11.137   8.208   3.054
99006SOL     OW98849   6.067   2.630   6.167
99006SOL    HW198850   5.990   2.682   6.143
99006SOL    HW298851   6.118   2.625   6.086
99007SOL     OW98852   7.053   4.805   0.412
99007SOL    HW198853   7.046   4.900   0.403
99007SOL    HW298854   7.060   4.790   0.506
99008SOL     OW98855  13.188  10.095  13.504
99008SOL    HW198856  13.152  10.158  13.566
99008SOL    HW298857  13.211  10.147  13.427
99009SOL     OW98858  11.255  13.458  10.601
99009SOL    HW198859  11.307  13.507  10.665
99009SOL    HW298860  11.276  13.497  10.517
99010SOL     OW98861   3.587  11.911   4.477
99010SOL    HW198862   3.612  11.941   4.565
99010SOL    HW298863   3.606  11.986   4.420
99011SOL     OW98864   4.661   0.575   6.945
99011SOL    HW198865   4.756   0.581   6.934
99011SOL    HW298866   4.644   0.611   7.031
99012SOL     OW98867  10.622   3.043  12.970
99012SOL    HW198868  10.677   3.029  13.047
99012SOL    HW298869  10.663   2.991  12.901
99013SOL     OW98870   1.709   9.864   0.363
99013SOL    HW198871   1.733   9.843   0.273
99013SOL    HW298872   1.614   9.875   0.360
99014SOL     OW98873  14.199   5.890   6.258
99014SOL    HW198874  14.212   5.839   6.178
99014SOL    HW298875  14.197   5.981   6.227
99015SOL     OW98876   5.176  14.032   7.738
99015SOL    HW198877   5.221  14.091   7.678
99015SOL    HW298878   5.237  13.959   7.751
99016SOL     OW98879   4.223  13.998   0.039
99016SOL    HW198880   4.199  13.911   0.005
99016SOL    HW298881   4.140  14.045   0.044
99017SOL     OW98882   3.594   5.645   1.536
99017SOL    HW198883   3.551   5.668   1.454
99017SOL    HW298884   3.622   5.554   1.523
99018SOL     OW98885   7.205   6.829   1.854
99018SOL    HW198886   7.243   6.842   1.941
99018SOL    HW298887   7.280   6.836   1.794
99019SOL     OW98888  11.116   7.826   8.998
99019SOL    HW198889  11.035   7.786   8.968
99019SOL    HW298890  11.170   7.753   9.028
99020SOL     OW98891   6.350   2.202   0.066
99020SOL    HW198892   6.285   2.229   0.001
99020SOL    HW298893   6.366   2.279   0.119
99021SOL     OW98894   0.699   3.046   6.174
99021SOL    HW198895   0.613   3.054   6.133
99021SOL    HW298896   0.749   3.120   6.139
99022SOL     OW98897  12.915  11.766  14.542
99022SOL    HW198898  12.950  11.845  14.501
99022SOL    HW298899  12.868  11.722  14.471
99023SOL     OW98900  14.174  12.554  14.290
99023SOL    HW198901  14.200  12.634  14.243
99023SOL    HW298902  14.248  12.494  14.277
99024SOL     OW98903  13.031   0.799  14.112
99024SOL    HW198904  12.977   0.878  14.105
99024SOL    HW298905  13.043   0.770  14.022
99025SOL     OW98906  13.355  13.830  10.943
99025SOL    HW198907  13.389  13.864  10.860
99025SOL    HW298908  13.379  13.897  11.007
99026SOL     OW98909  10.278   2.454   5.081
99026SOL    HW198910  10.349   2.446   5.018
99026SOL    HW298911  10.249   2.546   5.073
99027SOL     OW98912   6.379   5.931  10.162
99027SOL    HW198913   6.328   5.851  10.148
99027SOL    HW298914   6.341   5.994  10.101
99028SOL     OW98915   8.884  13.048   8.766
99028SOL    HW198916   8.826  13.043   8.690
99028SOL    HW298917   8.874  12.962   8.809
99029SOL     OW98918   5.490   5.034  10.248
99029SOL    HW198919   5.472   4.968  10.182
99029SOL    HW298920   5.405   5.053  10.287
99030SOL     OW98921   2.742   8.844   6.072
99030SOL    HW198922   2.748   8.844   6.168
99030SOL    HW298923   2.672   8.906   6.052
99031SOL     OW98924   5.130   4.213   7.213
99031SOL    HW198925   5.045   4.213   7.169
99031SOL    HW298926   5.184   4.154   7.162
99032SOL     OW98927   8.551  13.822   7.396
99032SOL    HW198928   8.575  13.738   7.436
99032SOL    HW298929   8.503  13.868   7.464
99033SOL     OW98930   1.628   6.353  10.227
99033SOL    HW198931   1.702   6.296  10.208
99033SOL    HW298932   1.557   6.294  10.253
99034SOL     OW98933   2.812   8.176   1.676
99034SOL    HW198934   2.880   8.137   1.621
99034SOL    HW298935   2.763   8.101   1.710
99035SOL     OW98936   8.597  14.050  10.394
99035SOL    HW198937   8.616  13.956  10.393
99035SOL    HW298938   8.531  14.060  10.463
99036SOL     OW98939  14.352  13.514   2.031
99036SOL    HW198940  14.263  13.480   2.020
99036SOL    HW298941  14.394  13.453   2.091
99037SOL     OW98942   7.482   3.070   9.020
99037SOL    HW198943   7.443   3.117   9.094
99037SOL    HW298944   7.569   3.109   9.010
99038SOL     OW98945   1.052   3.854  10.677
99038SOL    HW198946   1.131   3.846  10.731
99038SOL    HW298947   1.044   3.948  10.659
99039SOL     OW98948   7.964  14.521   2.629
99039SOL    HW198949   8.000  14.543   2.543
99039SOL    HW298950   8.031  14.549   2.691
99040SOL     OW98951   7.793   7.333   8.569
99040SOL    HW198952   7.709   7.356   8.530
99040SOL    HW298953   7.839   7.416   8.580
99041SOL     OW98954  13.603  14.262  11.172
99041SOL    HW198955  13.570  14.173  11.185
99041SOL    HW298956  13.630  14.290  11.260
99042SOL     OW98957   3.127   5.825   4.120
99042SOL    HW198958   3.051   5.835   4.064
99042SOL    HW298959   3.149   5.732   4.115
99043SOL     OW98960   7.007   5.402   1.049
99043SOL    HW198961   7.015   5.496   1.030
99043SOL    HW298962   6.913   5.384   1.038
99044SOL     OW98963  12.671   8.702   8.013
99044SOL    HW198964  12.754   8.659   7.992
99044SOL    HW298965  12.604   8.644   7.977
99045SOL     OW98966  12.381   2.640  12.037
99045SOL    HW198967  12.380   2.735  12.029
99045SOL    HW298968  12.289   2.615  12.039
99046SOL     OW98969  13.825  10.849   1.131
99046SOL    HW198970  13.789  10.915   1.190
99046SOL    HW298971  13.769  10.852   1.054
99047SOL     OW98972   1.441   1.001   8.281
99047SOL    HW198973   1.350   1.007   8.253
99047SOL    HW298974   1.447   1.055   8.359
99048SOL     OW98975   8.485   9.601   4.735
99048SOL    HW198976   8.395   9.569   4.740
99048SOL    HW298977   8.531   9.534   4.685
99049SOL     OW98978   9.663  14.432   5.061
99049SOL    HW198979   9.617  14.505   5.101
99049SOL    HW298980   9.747  14.469   5.033
99050SOL     OW98981   8.224   9.329   0.909
99050SOL    HW198982   8.215   9.236   0.887
99050SOL    HW298983   8.160   9.343   0.979
99051SOL     OW98984  11.718   3.354   8.922
99051SOL    HW198985  11.727   3.305   8.841
99051SOL    HW298986  11.722   3.288   8.991
99052SOL     OW98987   3.979   2.245   8.245
99052SOL    HW198988   4.049   2.184   8.267
99052SOL    HW298989   3.941   2.271   8.329
99053SOL     OW98990   5.284   4.208   0.666
99053SOL    HW198991   5.328   4.163   0.737
99053SOL    HW298992   5.191   4.191   0.680
99054SOL     OW98993   9.503  12.664   3.863
99054SOL    HW198994   9.424  12.610   3.853
99054SOL    HW298995   9.574  12.608   3.831
99055SOL     OW98996  12.351  12.634   5.445
99055SOL    HW198997  12.265  12.652   5.406
99055SOL    HW298998  12.391  12.721   5.456
99056SOL     OW98999  14.766  11.580  14.518
99056SOL    HW199000  14.670  11.579  14.521
99056SOL    HW299001  14.787  11.549  14.430
99057SOL     OW99002  14.802  14.316   4.628
99057SOL    HW199003  14.734  14.309   4.695
99057SOL    HW299004   0.003  14.275   4.667
99058SOL     OW99005   0.242  11.769  11.200
99058SOL    HW199006   0.281  11.786  11.286
99058SOL    HW299007   0.240  11.674  11.193
99059SOL     OW99008   9.190   4.059   8.223
99059SOL    HW199009   9.198   4.154   8.210
99059SOL    HW299010   9.266   4.023   8.179
99060SOL     OW99011   0.099   0.441   6.748
99060SOL    HW199012   0.010   0.423   6.778
99060SOL    HW299013   0.091   0.452   6.654
99061SOL     OW99014   5.728   8.149  14.444
99061SOL    HW199015   5.799   8.092  14.475
99061SOL    HW299016   5.765   8.237  14.448
99062SOL     OW99017   5.020   8.131   3.833
99062SOL    HW199018   5.061   8.047   3.852
99062SOL    HW299019   4.980   8.120   3.747
99063SOL     OW99020   4.095   0.505   7.780
99063SOL    HW199021   4.105   0.452   7.701
99063SOL    HW299022   4.027   0.569   7.759
99064SOL     OW99023   2.023   3.040  10.588
99064SOL    HW199024   2.003   2.993  10.507
99064SOL    HW299025   2.119   3.043  10.590
99065SOL     OW99026   4.106   8.474   2.766
99065SOL    HW199027   4.025   8.478   2.818
99065SOL    HW299028   4.159   8.546   2.799
99066SOL     OW99029   7.025  11.110   0.901
99066SOL    HW199030   7.033  11.122   0.806
99066SOL    HW299031   7.007  11.017   0.912
99067SOL     OW99032  12.420   1.304  10.620
99067SOL    HW199033  12.411   1.257  10.537
99067SOL    HW299034  12.483   1.374  10.601
99068SOL     OW99035   6.800  11.063   4.052
99068SOL    HW199036   6.829  11.082   3.962
99068SOL    HW299037   6.802  10.967   4.057
99069SOL     OW99038   5.528  13.436   3.900
99069SOL    HW199039   5.527  13.531   3.900
99069SOL    HW299040   5.571  13.413   3.818
99070SOL     OW99041   8.203   6.046   8.402
99070SOL    HW199042   8.242   6.100   8.471
99070SOL    HW299043   8.160   5.974   8.449
99071SOL     OW99044   9.104  12.497   5.749
99071SOL    HW199045   9.062  12.418   5.783
99071SOL    HW299046   9.196  12.472   5.740
99072SOL     OW99047   2.914  14.580  14.564
99072SOL    HW199048   2.842  14.560  14.624
99072SOL    HW299049   2.985  14.609  14.621
99073SOL     OW99050   4.927   2.754  14.504
99073SOL    HW199051   4.891   2.833  14.544
99073SOL    HW299052   4.855   2.692  14.505
99074SOL     OW99053   8.412   1.850   4.862
99074SOL    HW199054   8.399   1.867   4.955
99074SOL    HW299055   8.342   1.900   4.819
99075SOL     OW99056   8.608   7.024   9.553
99075SOL    HW199057   8.531   7.081   9.547
99075SOL    HW299058   8.598   6.979   9.637
99076SOL     OW99059   2.905   9.043   7.734
99076SOL    HW199060   2.986   9.090   7.754
99076SOL    HW299061   2.861   9.098   7.669
99077SOL     OW99062  13.764  13.553  10.862
99077SOL    HW199063  13.702  13.582  10.928
99077SOL    HW299064  13.713  13.495  10.805
99078SOL     OW99065  13.051   0.816   9.301
99078SOL    HW199066  13.057   0.908   9.277
99078SOL    HW299067  13.142   0.790   9.319
99079SOL     OW99068   8.115   1.365  12.840
99079SOL    HW199069   8.144   1.386  12.929
99079SOL    HW299070   8.030   1.323  12.852
99080SOL     OW99071  13.906   2.656  13.354
99080SOL    HW199072  13.998   2.648  13.328
99080SOL    HW299073  13.903   2.618  13.442
99081SOL     OW99074   9.311   5.939   5.737
99081SOL    HW199075   9.308   5.917   5.644
99081SOL    HW299076   9.222   5.968   5.758
99082SOL     OW99077   6.298   2.572   3.499
99082SOL    HW199078   6.290   2.477   3.491
99082SOL    HW299079   6.242   2.606   3.430
99083SOL     OW99080   4.608   7.651   0.976
99083SOL    HW199081   4.555   7.729   0.958
99083SOL    HW299082   4.631   7.658   1.068
99084SOL     OW99083   3.139  14.147   3.035
99084SOL    HW199084   3.169  14.238   3.040
99084SOL    HW299085   3.127  14.121   3.126
99085SOL     OW99086   6.638   8.139  12.602
99085SOL    HW199087   6.573   8.082  12.644
99085SOL    HW299088   6.692   8.079  12.549
99086SOL     OW99089   7.507  11.695  10.803
99086SOL    HW199090   7.558  11.629  10.850
99086SOL    HW299091   7.416  11.675  10.825
99087SOL     OW99092  12.721  14.502  10.175
99087SOL    HW199093  12.756  14.488  10.264
99087SOL    HW299094  12.731  14.417  10.132
99088SOL     OW99095  12.130   3.392   0.456
99088SOL    HW199096  12.092   3.320   0.505
99088SOL    HW299097  12.055   3.437   0.417
99089SOL     OW99098   7.538   7.502   8.741
99089SOL    HW199099   7.494   7.448   8.807
99089SOL    HW299100   7.467   7.549   8.697
99090SOL     OW99101   5.228   0.420   6.577
99090SOL    HW199102   5.281   0.344   6.601
99090SOL    HW299103   5.174   0.391   6.504
99091SOL     OW99104   8.077   2.456  12.208
99091SOL    HW199105   7.991   2.482  12.239
99091SOL    HW299106   8.134   2.466  12.285
99092SOL     OW99107  14.849   4.553  10.267
99092SOL    HW199108  14.803   4.496  10.205
99092SOL    HW299109   0.062   4.560  10.231
99093SOL     OW99110   3.947   3.179   8.720
99093SOL    HW199111   3.926   3.168   8.812
99093SOL    HW299112   4.014   3.113   8.702
99094SOL     OW99113   6.790  10.797  13.620
99094SOL    HW199114   6.847  10.857  13.670
99094SOL    HW299115   6.702  10.835  13.629
99095SOL     OW99116   1.117   6.384   1.544
99095SOL    HW199117   1.157   6.325   1.608
99095SOL    HW299118   1.055   6.436   1.594
99096SOL     OW99119   2.708   0.826   3.666
99096SOL    HW199120   2.633   0.882   3.689
99096SOL    HW299121   2.753   0.811   3.750
99097SOL     OW99122   5.891   5.800  11.138
99097SOL    HW199123   5.930   5.732  11.192
99097SOL    HW299124   5.945   5.878  11.154
99098SOL     OW99125  11.249   1.979   4.322
99098SOL    HW199126  11.291   1.941   4.400
99098SOL    HW299127  11.290   1.933   4.249
99099SOL     OW99128   9.750   7.791   1.501
99099SOL    HW199129   9.771   7.716   1.558
99099SOL    HW299130   9.659   7.777   1.476
99100SOL     OW99131   7.314   6.970  11.265
99100SOL    HW199132   7.280   7.049  11.307
99100SOL    HW299133   7.289   6.898  11.323
99101SOL     OW99134  11.990  14.801   3.406
99101SOL    HW199135  11.897  14.818   3.392
99101SOL    HW299136  12.011  14.728   3.348
99102SOL     OW99137  10.861   6.701   5.129
99102SOL    HW199138  10.851   6.723   5.222
99102SOL    HW299139  10.955   6.687   5.118
99103SOL     OW99140   5.933   4.132   9.171
99103SOL    HW199141   5.838   4.124   9.176
99103SOL    HW299142   5.956   4.189   9.244
99104SOL     OW99143   6.516  11.563   3.305
99104SOL    HW199144   6.492  11.592   3.217
99104SOL    HW299145   6.462  11.484   3.319
99105SOL     OW99146  13.024  13.890   5.049
99105SOL    HW199147  13.087  13.929   5.108
99105SOL    HW299148  12.993  13.962   4.994
99106SOL     OW99149   5.721  10.181   3.868
99106SOL    HW199150   5.776  10.141   3.801
99106SOL    HW299151   5.744  10.136   3.949
99107SOL     OW99152   3.313   0.498   9.915
99107SOL    HW199153   3.352   0.534   9.994
99107SOL    HW299154   3.277   0.574   9.869
99108SOL     OW99155   8.453   0.007   6.376
99108SOL    HW199156   8.516  14.816   6.401
99108SOL    HW299157   8.506   0.080   6.343
99109SOL     OW99158  14.382   5.793  13.576
99109SOL    HW199159  14.409   5.755  13.660
99109SOL    HW299160  14.379   5.887  13.593
99110SOL     OW99161   7.000   2.004   4.144
99110SOL    HW199162   7.017   2.094   4.171
99110SOL    HW299163   7.079   1.956   4.167
99111SOL     OW99164   5.353  13.249   7.241
99111SOL    HW199165   5.446  13.249   7.262
99111SOL    HW299166   5.350  13.242   7.146
99112SOL     OW99167   1.335   4.696   8.262
99112SOL    HW199168   1.339   4.774   8.207
99112SOL    HW299169   1.242   4.687   8.284
99113SOL     OW99170  10.437   8.952   2.618
99113SOL    HW199171  10.406   9.023   2.674
99113SOL    HW299172  10.449   8.878   2.677
99114SOL     OW99173  14.358  10.247  12.184
99114SOL    HW199174  14.371  10.227  12.092
99114SOL    HW299175  14.361  10.161  12.228
99115SOL     OW99176   3.419   5.741   7.943
99115SOL    HW199177   3.335   5.772   7.978
99115SOL    HW299178   3.401   5.726   7.850
99116SOL     OW99179   5.067  11.725  11.395
99116SOL    HW199180   4.992  11.758  11.445
99116SOL    HW299181   5.131  11.797  11.397
99117SOL     OW99182   9.128   2.835  13.626
99117SOL    HW199183   9.113   2.787  13.708
99117SOL    HW299184   9.060   2.803  13.567
99118SOL     OW99185   6.868  12.651   3.631
99118SOL    HW199186   6.828  12.587   3.690
99118SOL    HW299187   6.961  12.649   3.653
99119SOL     OW99188   9.066   7.274   3.800
99119SOL    HW199189   9.004   7.339   3.834
99119SOL    HW299190   9.137   7.325   3.762
99120SOL     OW99191   8.119  12.249   2.643
99120SOL    HW199192   8.106  12.294   2.726
99120SOL    HW299193   8.096  12.314   2.576
99121SOL     OW99194   8.987  11.323   4.926
99121SOL    HW199195   8.952  11.299   5.012
99121SOL    HW299196   9.078  11.344   4.943
99122SOL     OW99197   2.531   4.324   6.084
99122SOL    HW199198   2.478   4.403   6.096
99122SOL    HW299199   2.471   4.252   6.103
99123SOL     OW99200   6.776   3.888   3.274
99123SOL    HW199201   6.817   3.938   3.345
99123SOL    HW299202   6.721   3.953   3.229
99124SOL     OW99203  12.137  10.802  12.727
99124SOL    HW199204  12.200  10.870  12.703
99124SOL    HW299205  12.053  10.848  12.732
99125SOL     OW99206   4.343   5.888  12.026
99125SOL    HW199207   4.401   5.884  11.949
99125SOL    HW299208   4.303   5.974  12.021
99126SOL     OW99209   6.353   4.679  10.301
99126SOL    HW199210   6.265   4.705  10.274
99126SOL    HW299211   6.344   4.656  10.393
99127SOL     OW99212  10.716   1.598   4.976
99127SOL    HW199213  10.723   1.503   4.966
99127SOL    HW299214  10.806   1.627   4.994
99128SOL     OW99215   6.057   6.600  11.166
99128SOL    HW199216   6.052   6.521  11.219
99128SOL    HW299217   6.004   6.581  11.088
99129SOL     OW99218   5.116   2.772  12.550
99129SOL    HW199219   5.121   2.838  12.480
99129SOL    HW299220   5.190   2.713  12.533
99130SOL     OW99221   6.184   7.463   8.672
99130SOL    HW199222   6.265   7.449   8.624
99130SOL    HW299223   6.147   7.376   8.684
99131SOL     OW99224  13.713   2.463   7.958
99131SOL    HW199225  13.788   2.499   7.911
99131SOL    HW299226  13.637   2.487   7.904
99132SOL     OW99227  11.833   5.651   9.225
99132SOL    HW199228  11.921   5.688   9.229
99132SOL    HW299229  11.846   5.558   9.243
99133SOL     OW99230   2.550  12.463   1.776
99133SOL    HW199231   2.604  12.406   1.721
99133SOL    HW299232   2.460  12.442   1.750
99134SOL     OW99233   8.426  10.377  11.255
99134SOL    HW199234   8.476  10.367  11.174
99134SOL    HW299235   8.493  10.396  11.322
99135SOL     OW99236   7.402   9.020   5.499
99135SOL    HW199237   7.387   9.109   5.531
99135SOL    HW299238   7.426   8.970   5.577
99136SOL     OW99239   3.114   6.869   8.068
99136SOL    HW199240   3.073   6.899   8.149
99136SOL    HW299241   3.155   6.786   8.091
99137SOL     OW99242   0.691   1.500   4.331
99137SOL    HW199243   0.662   1.421   4.285
99137SOL    HW299244   0.731   1.554   4.263
99138SOL     OW99245   5.094  13.481   3.204
99138SOL    HW199246   5.070  13.497   3.296
99138SOL    HW299247   5.051  13.551   3.156
99139SOL     OW99248   8.860   6.305   3.847
99139SOL    HW199249   8.797   6.338   3.911
99139SOL    HW299250   8.826   6.332   3.762
99140SOL     OW99251   2.450   4.251  11.038
99140SOL    HW199252   2.460   4.246  10.943
99140SOL    HW299253   2.538   4.272  11.070
99141SOL     OW99254   2.176   2.965  12.937
99141SOL    HW199255   2.109   2.901  12.912
99141SOL    HW299256   2.189   3.017  12.858
99142SOL     OW99257   7.752  13.653  14.706
99142SOL    HW199258   7.815  13.722  14.686
99142SOL    HW299259   7.797  13.597  14.769
99143SOL     OW99260   7.313  13.606  13.883
99143SOL    HW199261   7.223  13.574  13.886
99143SOL    HW299262   7.313  13.683  13.940
99144SOL     OW99263   6.296   0.379   9.259
99144SOL    HW199264   6.262   0.338   9.180
99144SOL    HW299265   6.376   0.330   9.279
99145SOL     OW99266  13.207  12.896  13.635
99145SOL    HW199267  13.250  12.814  13.660
99145SOL    HW299268  13.114  12.881  13.649
99146SOL     OW99269  10.363   3.936   5.205
99146SOL    HW199270  10.319   4.005   5.156
99146SOL    HW299271  10.423   3.897   5.141
99147SOL     OW99272  11.286  14.427   9.422
99147SOL    HW199273  11.339  14.446   9.344
99147SOL    HW299274  11.206  14.389   9.387
99148SOL     OW99275  11.478   1.212   3.662
99148SOL    HW199276  11.468   1.277   3.593
99148SOL    HW299277  11.389   1.193   3.690
99149SOL     OW99278   2.201  10.272   4.698
99149SOL    HW199279   2.283  10.315   4.672
99149SOL    HW299280   2.199  10.280   4.793
99150SOL     OW99281   1.562  13.129   2.363
99150SOL    HW199282   1.493  13.106   2.425
99150SOL    HW299283   1.521  13.119   2.277
99151SOL     OW99284   0.392   9.672   7.581
99151SOL    HW199285   0.479   9.662   7.543
99151SOL    HW299286   0.399   9.750   7.636
99152SOL     OW99287   8.635   9.768   4.886
99152SOL    HW199288   8.571   9.707   4.922
99152SOL    HW299289   8.632   9.752   4.791
99153SOL     OW99290   6.471  12.542  14.821
99153SOL    HW199291   6.549  12.530  14.769
99153SOL    HW299292   6.399  12.546  14.758
99154SOL     OW99293   8.216   3.667   3.316
99154SOL    HW199294   8.292   3.642   3.263
99154SOL    HW299295   8.143   3.670   3.254
99155SOL     OW99296   4.076   9.860   6.399
99155SOL    HW199297   4.155   9.900   6.363
99155SOL    HW299298   4.038   9.811   6.326
99156SOL     OW99299  11.721   2.415   7.493
99156SOL    HW199300  11.796   2.410   7.434
99156SOL    HW299301  11.645   2.405   7.436
99157SOL     OW99302   9.129  11.670   5.887
99157SOL    HW199303   9.149  11.621   5.807
99157SOL    HW299304   9.213  11.677   5.933
99158SOL     OW99305   1.114   2.161  12.708
99158SOL    HW199306   1.056   2.126  12.776
99158SOL    HW299307   1.201   2.161  12.749
99159SOL     OW99308   0.043   5.934  13.186
99159SOL    HW199309  14.833   5.891  13.180
99159SOL    HW299310   0.052   5.981  13.103
99160SOL     OW99311  13.955  11.480   9.945
99160SOL    HW199312  13.981  11.536   9.871
99160SOL    HW299313  13.872  11.441   9.918
99161SOL     OW99314   3.704   5.688  12.406
99161SOL    HW199315   3.649   5.658  12.479
99161SOL    HW299316   3.750   5.765  12.441
99162SOL     OW99317   0.152  10.077   0.758
99162SOL    HW199318   0.069  10.114   0.729
99162SOL    HW299319   0.128  10.006   0.817
99163SOL     OW99320   5.558  14.464  13.933
99163SOL    HW199321   5.541  14.548  13.975
99163SOL    HW299322   5.648  14.442  13.957
99164SOL     OW99323   6.473   3.695   3.117
99164SOL    HW199324   6.483   3.600   3.121
99164SOL    HW299325   6.378   3.709   3.125
99165SOL     OW99326   1.190   1.514   9.864
99165SOL    HW199327   1.170   1.423   9.888
99165SOL    HW299328   1.174   1.564   9.944
99166SOL     OW99329   6.973  11.726  13.670
99166SOL    HW199330   6.901  11.703  13.728
99166SOL    HW299331   7.045  11.668  13.696
99167SOL     OW99332  14.219   5.819   2.841
99167SOL    HW199333  14.310   5.830   2.868
99167SOL    HW299334  14.208   5.883   2.770
99168SOL     OW99335   3.046  12.964   0.690
99168SOL    HW199336   3.100  13.037   0.722
99168SOL    HW299337   3.069  12.890   0.745
99169SOL     OW99338  12.001   3.195   5.918
99169SOL    HW199339  11.963   3.283   5.916
99169SOL    HW299340  11.930   3.138   5.889
99170SOL     OW99341  12.222   4.206   5.142
99170SOL    HW199342  12.182   4.220   5.228
99170SOL    HW299343  12.266   4.289   5.123
99171SOL     OW99344  13.418  11.958   7.897
99171SOL    HW199345  13.354  11.889   7.882
99171SOL    HW299346  13.502  11.918   7.872
99172SOL     OW99347   6.688   9.600   0.740
99172SOL    HW199348   6.643   9.675   0.702
99172SOL    HW299349   6.716   9.630   0.827
99173SOL     OW99350   0.141  10.410  10.673
99173SOL    HW199351   0.144  10.483  10.611
99173SOL    HW299352   0.177  10.446  10.754
99174SOL     OW99353  10.790  10.877   5.336
99174SOL    HW199354  10.708  10.865   5.385
99174SOL    HW299355  10.765  10.933   5.263
99175SOL     OW99356  10.685  14.410   5.667
99175SOL    HW199357  10.729  14.350   5.607
99175SOL    HW299358  10.733  14.400   5.750
99176SOL     OW99359   7.891   6.354  13.868
99176SOL    HW199360   7.872   6.396  13.784
99176SOL    HW299361   7.806   6.344  13.910
99177SOL     OW99362   9.396  12.602   6.001
99177SOL    HW199363   9.437  12.674   5.953
99177SOL    HW299364   9.302  12.611   5.984
99178SOL     OW99365   2.464   3.067   1.913
99178SOL    HW199366   2.413   3.110   1.844
99178SOL    HW299367   2.514   3.139   1.953
99179SOL     OW99368   9.785   4.599  13.034
99179SOL    HW199369   9.818   4.549  12.959
99179SOL    HW299370   9.761   4.684  12.998
99180SOL     OW99371   1.265  12.967  10.516
99180SOL    HW199372   1.170  12.971  10.523
99180SOL    HW299373   1.283  12.979  10.422
99181SOL     OW99374   0.901   2.700  13.045
99181SOL    HW199375   0.854   2.777  13.075
99181SOL    HW299376   0.834   2.644  13.006
99182SOL     OW99377  12.799   1.632   4.498
99182SOL    HW199378  12.869   1.671   4.550
99182SOL    HW299379  12.770   1.703   4.440
99183SOL     OW99380   5.070  11.232   5.082
99183SOL    HW199381   5.001  11.297   5.069
99183SOL    HW299382   5.051  11.163   5.019
99184SOL     OW99383  12.877   4.311   1.926
99184SOL    HW199384  12.852   4.299   1.834
99184SOL    HW299385  12.874   4.406   1.939
99185SOL     OW99386   8.480  13.540   2.064
99185SOL    HW199387   8.423  13.466   2.043
99185SOL    HW299388   8.427  13.618   2.047
99186SOL     OW99389  12.113   5.797  14.151
99186SOL    HW199390  12.030   5.843  14.164
99186SOL    HW299391  12.102   5.751  14.067
99187SOL     OW99392   7.142   4.928   8.974
99187SOL    HW199393   7.236   4.919   8.990
99187SOL    HW299394   7.136   4.985   8.897
99188SOL     OW99395  11.202   3.133   3.037
99188SOL    HW199396  11.284   3.102   3.075
99188SOL    HW299397  11.229   3.194   2.968
99189SOL     OW99398   6.227   2.227   1.871
99189SOL    HW199399   6.166   2.226   1.798
99189SOL    HW299400   6.210   2.310   1.916
99190SOL     OW99401  10.829   4.928   1.294
99190SOL    HW199402  10.741   4.916   1.331
99190SOL    HW299403  10.874   4.846   1.315
99191SOL     OW99404   9.579   3.540  14.115
99191SOL    HW199405   9.556   3.593  14.038
99191SOL    HW299406   9.495   3.507  14.147
99192SOL     OW99407   9.045   3.559  10.633
99192SOL    HW199408   9.010   3.649  10.639
99192SOL    HW299409   8.989   3.508  10.692
99193SOL     OW99410   4.797   4.980   4.553
99193SOL    HW199411   4.806   4.991   4.648
99193SOL    HW299412   4.863   4.915   4.530
99194SOL     OW99413   0.847   3.358   9.040
99194SOL    HW199414   0.814   3.383   9.127
99194SOL    HW299415   0.885   3.271   9.052
99195SOL     OW99416   0.995   1.243   7.891
99195SOL    HW199417   0.928   1.211   7.831
99195SOL    HW299418   1.072   1.189   7.871
99196SOL     OW99419   1.532  13.731   6.373
99196SOL    HW199420   1.573  13.803   6.324
99196SOL    HW299421   1.605  13.677   6.402
99197SOL     OW99422   8.206  10.891   3.711
99197SOL    HW199423   8.230  10.969   3.661
99197SOL    HW299424   8.264  10.893   3.787
99198SOL     OW99425   4.375   0.888   0.687
99198SOL    HW199426   4.454   0.856   0.645
99198SOL    HW299427   4.318   0.915   0.615
99199SOL     OW99428   0.081   8.577   1.934
99199SOL    HW199429   0.088   8.672   1.940
99199SOL    HW299430   0.161   8.545   1.976
99200SOL     OW99431  13.343   7.135   7.945
99200SOL    HW199432  13.268   7.133   8.004
99200SOL    HW299433  13.358   7.228   7.928
99201SOL     OW99434  14.744   4.566  12.086
99201SOL    HW199435  14.712   4.476  12.088
99201SOL    HW299436  14.704   4.605  12.008
99202SOL     OW99437   0.703   0.589   2.567
99202SOL    HW199438   0.795   0.574   2.546
99202SOL    HW299439   0.663   0.618   2.485
99203SOL     OW99440  10.147   1.409   4.499
99203SOL    HW199441  10.089   1.477   4.465
99203SOL    HW299442  10.228   1.455   4.519
99204SOL     OW99443  13.996   8.132   8.551
99204SOL    HW199444  13.943   8.097   8.622
99204SOL    HW299445  14.016   8.221   8.578
99205SOL     OW99446   1.627   0.379  14.614
99205SOL    HW199447   1.708   0.387  14.564
99205SOL    HW299448   1.591   0.467  14.615
99206SOL     OW99449   6.718   4.356  13.046
99206SOL    HW199450   6.625   4.338  13.031
99206SOL    HW299451   6.743   4.413  12.973
99207SOL     OW99452  11.510  12.469   9.225
99207SOL    HW199453  11.471  12.382   9.215
99207SOL    HW299454  11.595  12.461   9.181
99208SOL     OW99455   9.048  12.965  11.119
99208SOL    HW199456   9.034  12.972  11.214
99208SOL    HW299457   9.143  12.977  11.108
99209SOL     OW99458  14.438  13.154  14.218
99209SOL    HW199459  14.430  13.110  14.133
99209SOL    HW299460  14.420  13.086  14.283
99210SOL     OW99461   7.957  14.085   0.035
99210SOL    HW199462   7.971  13.991   0.042
99210SOL    HW299463   8.044  14.123   0.047
99211SOL     OW99464  12.319   4.422   5.005
99211SOL    HW199465  12.329   4.504   5.054
99211SOL    HW299466  12.320   4.449   4.913
99212SOL     OW99467  12.989  10.221   4.931
99212SOL    HW199468  12.994  10.313   4.958
99212SOL    HW299469  12.914  10.186   4.978
99213SOL     OW99470   8.977   4.996   2.121
99213SOL    HW199471   8.961   4.954   2.206
99213SOL    HW299472   9.012   5.082   2.144
99214SOL     OW99473  13.319  11.864  13.216
99214SOL    HW199474  13.353  11.775  13.228
99214SOL    HW299475  13.392  11.912  13.178
99215SOL     OW99476   1.262   0.922   4.411
99215SOL    HW199477   1.239   0.854   4.347
99215SOL    HW299478   1.192   0.986   4.404
99216SOL     OW99479   9.858  11.613  12.976
99216SOL    HW199480   9.763  11.607  12.981
99216SOL    HW299481   9.882  11.676  13.045
99217SOL     OW99482  13.627   7.202  12.568
99217SOL    HW199483  13.645   7.143  12.641
99217SOL    HW299484  13.681   7.169  12.497
99218SOL     OW99485   2.323   5.059  12.985
99218SOL    HW199486   2.282   4.973  12.988
99218SOL    HW299487   2.358   5.072  13.073
99219SOL     OW99488   2.778   6.252  12.321
99219SOL    HW199489   2.718   6.257  12.247
99219SOL    HW299490   2.799   6.159  12.329
99220SOL     OW99491   6.013   1.870   8.872
99220SOL    HW199492   5.988   1.906   8.957
99220SOL    HW299493   6.060   1.941   8.829
99221SOL     OW99494  10.823  14.757   7.697
99221SOL    HW199495  10.863  14.834   7.657
99221SOL    HW299496  10.737  14.751   7.656
99222SOL     OW99497  10.430   5.401   5.337
99222SOL    HW199498  10.339   5.429   5.337
99222SOL    HW299499  10.440   5.352   5.419
99223SOL     OW99500   2.157   8.702  13.507
99223SOL    HW199501   2.076   8.663  13.477
99223SOL    HW299502   2.213   8.706  13.430
99224SOL     OW99503   3.923  13.448   1.144
99224SOL    HW199504   3.876  13.524   1.109
99224SOL    HW299505   3.930  13.388   1.070
99225SOL     OW99506   2.233   9.904   8.250
99225SOL    HW199507   2.226   9.992   8.212
99225SOL    HW299508   2.277   9.918   8.334
99226SOL     OW99509  13.173   6.480   2.804
99226SOL    HW199510  13.188   6.464   2.897
99226SOL    HW299511  13.230   6.554   2.783
99227SOL     OW99512   3.202  14.198   0.423
99227SOL    HW199513   3.196  14.123   0.364
99227SOL    HW299514   3.239  14.268   0.370
99228SOL     OW99515   9.553   8.673   4.788
99228SOL    HW199516   9.461   8.693   4.771
99228SOL    HW299517   9.554   8.635   4.875
99229SOL     OW99518   6.902  11.746   5.649
99229SOL    HW199519   6.821  11.695   5.647
99229SOL    HW299520   6.963  11.693   5.701
99230SOL     OW99521   0.247   8.683   0.786
99230SOL    HW199522   0.309   8.611   0.795
99230SOL    HW299523   0.298   8.755   0.748
99231SOL     OW99524   5.619   2.946  14.466
99231SOL    HW199525   5.643   3.036  14.488
99231SOL    HW299526   5.699   2.907  14.431
99232SOL     OW99527  12.451   8.573   1.024
99232SOL    HW199528  12.361   8.566   1.053
99232SOL    HW299529  12.497   8.503   1.070
99233SOL     OW99530   8.675   5.711   8.914
99233SOL    HW199531   8.706   5.702   9.004
99233SOL    HW299532   8.732   5.654   8.863
99234SOL     OW99533   3.019  10.758   0.596
99234SOL    HW199534   2.937  10.808   0.598
99234SOL    HW299535   3.026  10.719   0.682
99235SOL     OW99536  11.098   8.353  11.098
99235SOL    HW199537  11.084   8.356  11.192
99235SOL    HW299538  11.033   8.413  11.062
99236SOL     OW99539   7.411  14.271   3.698
99236SOL    HW199540   7.395  14.362   3.721
99236SOL    HW299541   7.341  14.250   3.636
99237SOL     OW99542   6.257  14.692   0.132
99237SOL    HW199543   6.243  14.770   0.078
99237SOL    HW299544   6.352  14.678   0.130
99238SOL     OW99545  11.774   5.362   5.784
99238SOL    HW199546  11.729   5.307   5.720
99238SOL    HW299547  11.710   5.427   5.810
99239SOL     OW99548  13.557   1.266   6.023
99239SOL    HW199549  13.553   1.260   6.118
99239SOL    HW299550  13.604   1.187   5.996
99240SOL     OW99551  13.681  12.826   9.047
99240SOL    HW199552  13.740  12.757   9.017
99240SOL    HW299553  13.596  12.803   9.010
99241SOL     OW99554   2.365   3.854   0.867
99241SOL    HW199555   2.430   3.923   0.853
99241SOL    HW299556   2.409   3.773   0.841
99242SOL     OW99557  11.394   9.426   2.411
99242SOL    HW199558  11.364   9.515   2.393
99242SOL    HW299559  11.345   9.371   2.350
99243SOL     OW99560   0.400  14.647   7.318
99243SOL    HW199561   0.422  14.722   7.374
99243SOL    HW299562   0.332  14.600   7.366
99244SOL     OW99563   3.106   6.653  10.698
99244SOL    HW199564   3.088   6.569  10.657
99244SOL    HW299565   3.177   6.691  10.647
99245SOL     OW99566  14.216  12.072   8.557
99245SOL    HW199567  14.302  12.031   8.562
99245SOL    HW299568  14.233  12.160   8.523
99246SOL     OW99569   6.497  13.834  12.615
99246SOL    HW199570   6.580  13.812  12.658
99246SOL    HW299571   6.502  13.790  12.530
99247SOL     OW99572   4.892  11.358   4.758
99247SOL    HW199573   4.896  11.384   4.850
99247SOL    HW299574   4.930  11.270   4.757
99248SOL     OW99575   3.968   2.259  11.845
99248SOL    HW199576   3.967   2.170  11.811
99248SOL    HW299577   4.018   2.254  11.926
99249SOL     OW99578   3.187  14.206   2.722
99249SOL    HW199579   3.185  14.166   2.809
99249SOL    HW299580   3.273  14.184   2.687
99250SOL     OW99581  14.638  12.696   2.585
99250SOL    HW199582  14.676  12.636   2.649
99250SOL    HW299583  14.553  12.719   2.622
99251SOL     OW99584   4.401  11.751   6.897
99251SOL    HW199585   4.414  11.833   6.945
99251SOL    HW299586   4.359  11.693   6.959
99252SOL     OW99587   7.276   1.739   0.480
99252SOL    HW199588   7.183   1.733   0.500
99252SOL    HW299589   7.319   1.748   0.565
99253SOL     OW99590   9.117   5.176  12.287
99253SOL    HW199591   9.128   5.227  12.367
99253SOL    HW299592   9.140   5.086  12.312
99254SOL     OW99593   8.285  12.333   0.557
99254SOL    HW199594   8.376  12.318   0.531
99254SOL    HW299595   8.247  12.246   0.562
99255SOL     OW99596  12.196   4.730   1.189
99255SOL    HW199597  12.143   4.693   1.119
99255SOL    HW299598  12.286   4.706   1.166
99256SOL     OW99599   9.493   5.006   8.028
99256SOL    HW199600   9.538   5.051   7.956
99256SOL    HW299601   9.504   5.064   8.103
99257SOL     OW99602   6.091  14.050  13.345
99257SOL    HW199603   6.104  14.071  13.253
99257SOL    HW299604   6.118  13.959  13.353
99258SOL     OW99605   3.224   8.018  12.871
99258SOL    HW199606   3.295   7.990  12.813
99258SOL    HW299607   3.150   8.036  12.812
99259SOL     OW99608   5.164   3.676   9.598
99259SOL    HW199609   5.176   3.718   9.683
99259SOL    HW299610   5.160   3.582   9.619
99260SOL     OW99611   8.645  14.146  14.804
99260SOL    HW199612   8.626  14.166  14.713
99260SOL    HW299613   8.735  14.115  14.805
99261SOL     OW99614  10.988  11.905  12.986
99261SOL    HW199615  11.045  11.923  12.912
99261SOL    HW299616  10.916  11.967  12.978
99262SOL     OW99617  11.029   0.720   6.058
99262SOL    HW199618  11.034   0.810   6.091
99262SOL    HW299619  10.935   0.705   6.045
99263SOL     OW99620   1.502   4.490   5.304
99263SOL    HW199621   1.480   4.446   5.222
99263SOL    HW299622   1.547   4.570   5.276
99264SOL     OW99623   4.824  11.480  10.709
99264SOL    HW199624   4.824  11.399  10.657
99264SOL    HW299625   4.767  11.539  10.660
99265SOL     OW99626   7.204   1.642  12.893
99265SOL    HW199627   7.257   1.564  12.908
99265SOL    HW299628   7.149   1.649  12.970
99266SOL     OW99629   1.768   4.286   4.371
99266SOL    HW199630   1.793   4.353   4.307
99266SOL    HW299631   1.830   4.298   4.443
99267SOL     OW99632   3.872   8.124   5.260
99267SOL    HW199633   3.874   8.201   5.318
99267SOL    HW299634   3.837   8.054   5.315
99268SOL     OW99635  10.895  14.249   5.654
99268SOL    HW199636  10.832  14.180   5.672
99268SOL    HW299637  10.979  14.204   5.644
99269SOL     OW99638   2.321   0.228   8.971
99269SOL    HW199639   2.338   0.315   8.934
99269SOL    HW299640   2.271   0.246   9.051
99270SOL     OW99641   2.705   0.111  13.756
99270SOL    HW199642   2.648   0.040  13.785
99270SOL    HW299643   2.754   0.136  13.835
99271SOL     OW99644  10.237  11.292   3.218
99271SOL    HW199645  10.297  11.366   3.218
99271SOL    HW299646  10.222  11.274   3.125
99272SOL     OW99647   8.165  14.404   8.441
99272SOL    HW199648   8.239  14.369   8.392
99272SOL    HW299649   8.195  14.406   8.532
99273SOL     OW99650  12.876   3.812  13.761
99273SOL    HW199651  12.908   3.722  13.775
99273SOL    HW299652  12.857   3.816  13.667
99274SOL     OW99653   1.351   0.134   4.070
99274SOL    HW199654   1.370   0.099   3.983
99274SOL    HW299655   1.359   0.229   4.060
99275SOL     OW99656  13.116  14.082  12.076
99275SOL    HW199657  13.161  14.011  12.029
99275SOL    HW299658  13.122  14.057  12.168
99276SOL     OW99659   2.616  11.168   3.544
99276SOL    HW199660   2.523  11.145   3.549
99276SOL    HW299661   2.651  11.146   3.630
99277SOL     OW99662  14.802   1.264   7.819
99277SOL    HW199663  14.833   1.273   7.909
99277SOL    HW299664  14.735   1.331   7.810
99278SOL     OW99665   2.372   6.473   0.938
99278SOL    HW199666   2.415   6.559   0.936
99278SOL    HW299667   2.439   6.412   0.910
99279SOL     OW99668   3.757   3.909   6.737
99279SOL    HW199669   3.682   3.922   6.795
99279SOL    HW299670   3.737   3.827   6.691
99280SOL     OW99671   7.137  13.902   0.561
99280SOL    HW199672   7.200  13.857   0.505
99280SOL    HW299673   7.169  13.887   0.650
99281SOL     OW99674   8.351   4.355   1.079
99281SOL    HW199675   8.408   4.287   1.045
99281SOL    HW299676   8.266   4.313   1.091
99282SOL     OW99677   1.798  10.633   1.118
99282SOL    HW199678   1.706  10.619   1.094
99282SOL    HW299679   1.807  10.728   1.122
99283SOL     OW99680  10.091  12.375  14.046
99283SOL    HW199681  10.144  12.304  14.008
99283SOL    HW299682  10.135  12.397  14.128
99284SOL     OW99683  11.057   3.131   6.389
99284SOL    HW199684  11.118   3.089   6.449
99284SOL    HW299685  11.042   3.218   6.427
99285SOL     OW99686   1.655   1.673  11.972
99285SOL    HW199687   1.668   1.599  11.913
99285SOL    HW299688   1.564   1.698  11.959
99286SOL     OW99689  13.094   7.768  13.135
99286SOL    HW199690  13.056   7.850  13.103
99286SOL    HW299691  13.176   7.759  13.087
99287SOL     OW99692  10.317   2.729  13.845
99287SOL    HW199693  10.244   2.746  13.904
99287SOL    HW299694  10.391   2.775  13.884
99288SOL     OW99695  10.973  10.669   5.476
99288SOL    HW199696  10.930  10.741   5.428
99288SOL    HW299697  10.923  10.661   5.557
99289SOL     OW99698   8.040   0.524   9.135
99289SOL    HW199699   7.993   0.551   9.214
99289SOL    HW299700   7.972   0.510   9.070
99290SOL     OW99701  13.540   3.225   9.879
99290SOL    HW199702  13.458   3.255   9.920
99290SOL    HW299703  13.604   3.230   9.950
99291SOL     OW99704  13.914  12.729  12.855
99291SOL    HW199705  13.973  12.782  12.908
99291SOL    HW299706  13.834  12.781  12.848
99292SOL     OW99707  11.855  13.596   6.812
99292SOL    HW199708  11.836  13.502   6.808
99292SOL    HW299709  11.798  13.635   6.746
99293SOL     OW99710  13.967  14.214   1.884
99293SOL    HW199711  13.928  14.224   1.797
99293SOL    HW299712  13.957  14.121   1.905
99294SOL     OW99713  11.088  14.795   3.856
99294SOL    HW199714  10.999  14.829   3.847
99294SOL    HW299715  11.120  14.833   3.939
99295SOL     OW99716   3.505  12.699   5.884
99295SOL    HW199717   3.484  12.770   5.945
99295SOL    HW299718   3.441  12.631   5.904
99296SOL     OW99719   1.543  12.028  12.186
99296SOL    HW199720   1.541  12.120  12.160
99296SOL    HW299721   1.602  11.986  12.123
99297SOL     OW99722   8.934   3.237  11.151
99297SOL    HW199723   8.848   3.249  11.110
99297SOL    HW299724   8.915   3.228  11.245
99298SOL     OW99725  13.758  12.143   0.288
99298SOL    HW199726  13.812  12.143   0.209
99298SOL    HW299727  13.817  12.111   0.357
99299SOL     OW99728   0.798  13.836  11.525
99299SOL    HW199729   0.709  13.808  11.505
99299SOL    HW299730   0.797  13.853  11.620
99300SOL     OW99731  12.725   3.819  13.497
99300SOL    HW199732  12.712   3.730  13.527
99300SOL    HW299733  12.645   3.865  13.522
99301SOL     OW99734   6.221   1.008   9.565
99301SOL    HW199735   6.257   1.011   9.477
99301SOL    HW299736   6.296   1.023   9.622
99302SOL     OW99737   2.086  13.699   7.738
99302SOL    HW199738   2.097  13.791   7.713
99302SOL    HW299739   2.091  13.700   7.834
99303SOL     OW99740  10.525   9.064   1.972
99303SOL    HW199741  10.537   8.996   2.038
99303SOL    HW299742  10.447   9.112   2.001
99304SOL     OW99743  10.568  13.868   9.468
99304SOL    HW199744  10.534  13.952   9.439
99304SOL    HW299745  10.580  13.818   9.387
99305SOL     OW99746   7.465  13.171   2.398
99305SOL    HW199747   7.507  13.148   2.481
99305SOL    HW299748   7.451  13.266   2.404
99306SOL     OW99749   5.714   7.061   4.578
99306SOL    HW199750   5.622   7.040   4.567
99306SOL    HW299751   5.755   7.034   4.496
99307SOL     OW99752  13.047  11.572   3.993
99307SOL    HW199753  13.011  11.525   4.069
99307SOL    HW299754  13.006  11.531   3.917
99308SOL     OW99755   3.803  10.828   2.904
99308SOL    HW199756   3.791  10.775   2.826
99308SOL    HW299757   3.727  10.886   2.907
99309SOL     OW99758  11.973   7.909   8.007
99309SOL    HW199759  12.040   7.931   8.072
99309SOL    HW299760  11.917   7.987   8.003
99310SOL     OW99761  13.285   6.577   1.479
99310SOL    HW199762  13.329   6.646   1.530
99310SOL    HW299763  13.206   6.557   1.528
99311SOL     OW99764  12.403   7.700   0.677
99311SOL    HW199765  12.483   7.712   0.627
99311SOL    HW299766  12.401   7.606   0.697
99312SOL     OW99767   6.234  12.082   7.504
99312SOL    HW199768   6.314  12.082   7.451
99312SOL    HW299769   6.218  11.990   7.524
99313SOL     OW99770  14.465   7.204   4.128
99313SOL    HW199771  14.435   7.244   4.209
99313SOL    HW299772  14.388   7.207   4.071
99314SOL     OW99773   8.640   2.208   7.028
99314SOL    HW199774   8.638   2.136   7.091
99314SOL    HW299775   8.623   2.286   7.081
99315SOL     OW99776   7.668  11.466  11.227
99315SOL    HW199777   7.590  11.418  11.256
99315SOL    HW299778   7.735  11.398  11.217
99316SOL     OW99779   1.689  12.527   6.835
99316SOL    HW199780   1.705  12.537   6.741
99316SOL    HW299781   1.751  12.460   6.863
99317SOL     OW99782  11.035  10.233   0.893
99317SOL    HW199783  11.058  10.255   0.983
99317SOL    HW299784  10.946  10.200   0.898
99318SOL     OW99785  13.806   1.842   9.967
99318SOL    HW199786  13.759   1.818   9.887
99318SOL    HW299787  13.766   1.789  10.035
99319SOL     OW99788   1.143   0.833  10.105
99319SOL    HW199789   1.096   0.889  10.043
99319SOL    HW299790   1.231   0.869  10.108
99320SOL     OW99791   6.489   2.247   8.038
99320SOL    HW199792   6.499   2.342   8.028
99320SOL    HW299793   6.483   2.214   7.949
99321SOL     OW99794  10.169   2.145   3.241
99321SOL    HW199795  10.250   2.154   3.190
99321SOL    HW299796  10.155   2.232   3.278
99322SOL     OW99797   6.818   6.750   4.979
99322SOL    HW199798   6.820   6.836   5.022
99322SOL    HW299799   6.729   6.743   4.945
99323SOL     OW99800   9.360  12.618   9.955
99323SOL    HW199801   9.440  12.666   9.974
99323SOL    HW299802   9.294  12.657  10.012
99324SOL     OW99803   7.399  12.199   5.317
99324SOL    HW199804   7.436  12.195   5.229
99324SOL    HW299805   7.406  12.109   5.350
99325SOL     OW99806  14.757  11.552   5.147
99325SOL    HW199807  14.680  11.525   5.197
99325SOL    HW299808  14.764  11.488   5.076
99326SOL     OW99809   2.183   7.192   9.855
99326SOL    HW199810   2.255   7.254   9.864
99326SOL    HW299811   2.226   7.107   9.844
99327SOL     OW99812   3.555  14.272   4.880
99327SOL    HW199813   3.479  14.307   4.835
99327SOL    HW299814   3.576  14.191   4.833
99328SOL     OW99815  12.716   1.647   6.010
99328SOL    HW199816  12.800   1.692   6.003
99328SOL    HW299817  12.690   1.630   5.919
99329SOL     OW99818   4.753  14.127  14.349
99329SOL    HW199819   4.680  14.152  14.293
99329SOL    HW299820   4.809  14.205  14.351
99330SOL     OW99821  14.783   0.086   2.720
99330SOL    HW199822  14.823   0.043   2.795
99330SOL    HW299823  14.734   0.016   2.676
99331SOL     OW99824   6.968   8.208  12.040
99331SOL    HW199825   6.959   8.173  11.951
99331SOL    HW299826   6.914   8.150  12.094
99332SOL     OW99827   0.719   6.190  11.659
99332SOL    HW199828   0.651   6.135  11.621
99332SOL    HW299829   0.790   6.188  11.594
99333SOL     OW99830  11.150   3.106   0.825
99333SOL    HW199831  11.239   3.121   0.791
99333SOL    HW299832  11.122   3.192   0.856
99334SOL     OW99833  14.066   9.967   7.509
99334SOL    HW199834  14.095   9.971   7.418
99334SOL    HW299835  14.125  10.026   7.555
99335SOL     OW99836   5.963   4.531   0.206
99335SOL    HW199837   5.986   4.593   0.137
99335SOL    HW299838   5.935   4.586   0.279
99336SOL     OW99839   9.210   2.984  10.882
99336SOL    HW199840   9.301   2.956  10.872
99336SOL    HW299841   9.212   3.050  10.951
99337SOL     OW99842   2.629   7.135  13.593
99337SOL    HW199843   2.613   7.174  13.679
99337SOL    HW299844   2.644   7.042  13.611
99338SOL     OW99845  13.361   7.703   3.374
99338SOL    HW199846  13.396   7.648   3.304
99338SOL    HW299847  13.312   7.772   3.329
99339SOL     OW99848  14.688   8.141   5.447
99339SOL    HW199849  14.782   8.125   5.457
99339SOL    HW299850  14.666   8.104   5.362
99340SOL     OW99851   1.971  12.246   3.043
99340SOL    HW199852   1.931  12.176   2.992
99340SOL    HW299853   1.942  12.327   3.001
99341SOL     OW99854   1.961   9.624  10.980
99341SOL    HW199855   1.964   9.581  11.065
99341SOL    HW299856   2.039   9.594  10.935
99342SOL     OW99857   3.918  10.797   7.946
99342SOL    HW199858   3.924  10.816   8.040
99342SOL    HW299859   3.828  10.821   7.922
99343SOL     OW99860  14.454   2.318   2.001
99343SOL    HW199861  14.384   2.275   1.953
99343SOL    HW299862  14.482   2.389   1.944
99344SOL     OW99863   4.185   8.837   1.323
99344SOL    HW199864   4.112   8.829   1.262
99344SOL    HW299865   4.145   8.828   1.410
99345SOL     OW99866   2.477  12.252  14.126
99345SOL    HW199867   2.475  12.342  14.094
99345SOL    HW299868   2.400  12.210  14.086
99346SOL     OW99869   9.484  13.706   7.134
99346SOL    HW199870   9.577  13.683   7.137
99346SOL    HW299871   9.469  13.731   7.042
99347SOL     OW99872  12.621   4.845  14.653
99347SOL    HW199873  12.635   4.851  14.559
99347SOL    HW299874  12.647   4.931  14.687
99348SOL     OW99875  12.724   3.561  12.807
99348SOL    HW199876  12.760   3.626  12.867
99348SOL    HW299877  12.712   3.483  12.861
99349SOL     OW99878   1.664   5.923  10.029
99349SOL    HW199879   1.729   5.920   9.959
99349SOL    HW299880   1.586   5.882   9.992
99350SOL     OW99881   6.233  14.382  10.510
99350SOL    HW199882   6.284  14.374  10.590
99350SOL    HW299883   6.295  14.416  10.445
99351SOL     OW99884   7.200   8.781   7.685
99351SOL    HW199885   7.204   8.739   7.599
99351SOL    HW299886   7.186   8.709   7.746
99352SOL     OW99887  12.462   3.845   3.303
99352SOL    HW199888  12.532   3.825   3.365
99352SOL    HW299889  12.383   3.848   3.357
99353SOL     OW99890   1.536   1.177   5.987
99353SOL    HW199891   1.472   1.188   6.057
99353SOL    HW299892   1.553   1.266   5.955
99354SOL     OW99893   7.473   6.175   2.894
99354SOL    HW199894   7.381   6.172   2.867
99354SOL    HW299895   7.491   6.089   2.932
99355SOL     OW99896  12.063  10.922  13.132
99355SOL    HW199897  12.013  10.858  13.081
99355SOL    HW299898  12.055  11.003  13.081
99356SOL     OW99899  14.212  12.135   9.004
99356SOL    HW199900  14.266  12.207   9.036
99356SOL    HW299901  14.243  12.059   9.052
99357SOL     OW99902   6.201  14.648   6.517
99357SOL    HW199903   6.219  14.705   6.592
99357SOL    HW299904   6.160  14.571   6.554
99358SOL     OW99905   2.353  10.978   0.880
99358SOL    HW199906   2.415  10.905   0.884
99358SOL    HW299907   2.405  11.056   0.900
99359SOL     OW99908   8.253  13.340  10.619
99359SOL    HW199909   8.221  13.265  10.669
99359SOL    HW299910   8.348  13.328  10.616
99360SOL     OW99911  13.867   8.627  13.706
99360SOL    HW199912  13.946   8.588  13.669
99360SOL    HW299913  13.798   8.564  13.684
99361SOL     OW99914   9.315   7.228  11.526
99361SOL    HW199915   9.292   7.299  11.586
99361SOL    HW299916   9.335   7.272  11.443
99362SOL     OW99917  13.382   8.488   2.765
99362SOL    HW199918  13.448   8.440   2.715
99362SOL    HW299919  13.308   8.497   2.705
99363SOL     OW99920   9.242   1.843  13.443
99363SOL    HW199921   9.296   1.922  13.447
99363SOL    HW299922   9.169   1.867  13.387
99364SOL     OW99923   9.958  10.880   4.353
99364SOL    HW199924   9.906  10.876   4.272
99364SOL    HW299925  10.045  10.851   4.327
99365SOL     OW99926  14.774   0.916  14.570
99365SOL    HW199927  14.799   1.008  14.562
99365SOL    HW299928  14.820   0.873  14.498
99366SOL     OW99929  14.805   9.705   8.309
99366SOL    HW199930  14.736   9.649   8.275
99366SOL    HW299931   0.011   9.664   8.281
99367SOL     OW99932   9.896  12.211   5.225
99367SOL    HW199933   9.905  12.275   5.154
99367SOL    HW299934   9.808  12.226   5.259
99368SOL     OW99935   1.818  10.474   1.543
99368SOL    HW199936   1.896  10.473   1.599
99368SOL    HW299937   1.750  10.515   1.597
99369SOL     OW99938   4.285   4.652   9.417
99369SOL    HW199939   4.362   4.623   9.465
99369SOL    HW299940   4.211   4.620   9.469
99370SOL     OW99941  11.453   1.306   9.773
99370SOL    HW199942  11.421   1.397   9.778
99370SOL    HW299943  11.384   1.254   9.815
99371SOL     OW99944   6.651   3.678   4.815
99371SOL    HW199945   6.622   3.770   4.813
99371SOL    HW299946   6.582   3.630   4.770
99372SOL     OW99947  13.559   6.792   7.845
99372SOL    HW199948  13.650   6.763   7.837
99372SOL    HW299949  13.555   6.872   7.792
99373SOL     OW99950   9.162   4.648   4.486
99373SOL    HW199951   9.137   4.591   4.559
99373SOL    HW299952   9.255   4.630   4.473
99374SOL     OW99953   8.246   9.076  11.079
99374SOL    HW199954   8.190   9.000  11.096
99374SOL    HW299955   8.278   9.102  11.166
99375SOL     OW99956  10.519  13.440  11.440
99375SOL    HW199957  10.454  13.475  11.380
99375SOL    HW299958  10.559  13.367  11.393
99376SOL     OW99959   1.908   6.155   6.699
99376SOL    HW199960   1.925   6.068   6.664
99376SOL    HW299961   1.814   6.169   6.686
99377SOL     OW99962   2.569   7.656   0.561
99377SOL    HW199963   2.657   7.677   0.532
99377SOL    HW299964   2.581   7.588   0.627
99378SOL     OW99965  14.339   2.563   8.440
99378SOL    HW199966  14.327   2.615   8.361
99378SOL    HW299967  14.296   2.479   8.420
99379SOL     OW99968   4.986   0.768   6.420
99379SOL    HW199969   5.049   0.746   6.489
99379SOL    HW299970   4.910   0.802   6.466
99380SOL     OW99971   3.969   7.747   9.837
99380SOL    HW199972   3.950   7.696   9.916
99380SOL    HW299973   4.047   7.706   9.800
99381SOL     OW99974  13.895  12.644   9.938
99381SOL    HW199975  13.823  12.592   9.973
99381SOL    HW299976  13.924  12.596   9.860
99382SOL     OW99977   9.140   2.927   3.370
99382SOL    HW199978   9.220   2.978   3.353
99382SOL    HW299979   9.069   2.990   3.358
99383SOL     OW99980   3.631  14.049   5.827
99383SOL    HW199981   3.665  14.017   5.911
99383SOL    HW299982   3.566  14.115   5.852
99384SOL     OW99983   9.151  13.338  13.147
99384SOL    HW199984   9.176  13.415  13.095
99384SOL    HW299985   9.122  13.374  13.230
99385SOL     OW99986   6.861  11.586   1.640
99385SOL    HW199987   6.952  11.613   1.658
99385SOL    HW299988   6.864  11.548   1.553
99386SOL     OW99989   5.723   2.837   4.689
99386SOL    HW199990   5.731   2.870   4.779
99386SOL    HW299991   5.655   2.770   4.694
99387SOL     OW99992   9.610  12.808   6.288
99387SOL    HW199993   9.530  12.814   6.235
99387SOL    HW299994   9.665  12.880   6.256
99388SOL     OW99995  11.313  10.561  10.038
99388SOL    HW199996  11.261  10.532  10.113
99388SOL    HW299997  11.399  10.582  10.075
99389SOL     OW99998   9.372  14.817   4.942
99389SOL    HW199999   9.277  14.822   4.939
99389SOL    HW2    0   9.396  14.864   5.023
99390SOL     OW    1  12.607  13.324  13.752
99390SOL    HW1    2  12.692  13.365  13.768
99390SOL    HW2    3  12.626  13.230  13.744
99391SOL     OW    4  12.392   9.338   3.950
99391SOL    HW1    5  12.357   9.251   3.971
99391SOL    HW2    6  12.338   9.369   3.878
99392SOL     OW    7   2.929   4.916   1.450
99392SOL    HW1    8   2.948   4.825   1.425
99392SOL    HW2    9   2.833   4.920   1.451
99393SOL     OW   10  10.019   2.613  13.632
99393SOL    HW1   11  10.067   2.563  13.566
99393SOL    HW2   12  10.012   2.554  13.707
99394SOL     OW   13   9.469   8.606   7.302
99394SOL    HW1   14   9.381   8.587   7.335
99394SOL    HW2   15   9.489   8.533   7.243
99395SOL     OW   16  13.549   5.902   6.450
99395SOL    HW1   17  13.526   5.814   6.479
99395SOL    HW2   18  13.497   5.960   6.507
99396SOL     OW   19   1.516   1.658  10.011
99396SOL    HW1   20   1.531   1.593  10.079
99396SOL    HW2   21   1.501   1.607   9.932
99397SOL     OW   22   1.847  14.811   2.589
99397SOL    HW1   23   1.832  14.836   2.497
99397SOL    HW2   24   1.788  14.737   2.603
99398SOL     OW   25  13.689   6.707   0.167
99398SOL    HW1   26  13.744   6.724   0.243
99398SOL    HW2   27  13.601   6.697   0.203
99399SOL     OW   28   5.074  11.343  13.099
99399SOL    HW1   29   4.994  11.299  13.127
99399SOL    HW2   30   5.144  11.283  13.123
99400SOL     OW   31  11.583  14.832   7.654
99400SOL    HW1   32  11.629   0.003   7.723
99400SOL    HW2   33  11.532  14.765   7.700
99401SOL     OW   34   8.634   7.348  11.390
99401SOL    HW1   35   8.618   7.439  11.416
99401SOL    HW2   36   8.728   7.336  11.398
99402SOL     OW   37   5.880   2.855   6.017
99402SOL    HW1   38   5.935   2.932   6.000
99402SOL    HW2   39   5.797   2.875   5.972
99403SOL     OW   40   2.423   9.392  10.414
99403SOL    HW1   41   2.473   9.433  10.343
99403SOL    HW2   42   2.360   9.335  10.368
99404SOL     OW   43   4.026  12.054  13.379
99404SOL    HW1   44   4.098  12.098  13.333
99404SOL    HW2   45   4.036  12.081  13.471
99405SOL     OW   46   4.998   6.150   8.905
99405SOL    HW1   47   5.088   6.142   8.871
99405SOL    HW2   48   5.003   6.220   8.970
99406SOL     OW   49   4.663   9.405   2.293
99406SOL    HW1   50   4.715   9.364   2.224
99406SOL    HW2   51   4.623   9.481   2.251
99407SOL     OW   52  13.807   7.822  12.093
99407SOL    HW1   53  13.862   7.747  12.115
99407SOL    HW2   54  13.720   7.785  12.077
99408SOL     OW   55   0.515   3.628  11.363
99408SOL    HW1   56   0.444   3.572  11.395
99408SOL    HW2   57   0.470   3.693  11.308
99409SOL     OW   58   2.294   0.187  11.063
99409SOL    HW1   59   2.370   0.243  11.054
99409SOL    HW2   60   2.326   0.099  11.045
99410SOL     OW   61   6.581   8.274  10.020
99410SOL    HW1   62   6.633   8.251  10.097
99410SOL    HW2   63   6.586   8.370  10.016
99411SOL     OW   64   8.552   7.199  12.086
99411SOL    HW1   65   8.486   7.264  12.061
99411SOL    HW2   66   8.502   7.129  12.128
99412SOL     OW   67  10.689  14.301   8.604
99412SOL    HW1   68  10.761  14.337   8.552
99412SOL    HW2   69  10.728  14.227   8.650
99413SOL     OW   70   9.157   1.262   4.451
99413SOL    HW1   71   9.091   1.215   4.399
99413SOL    HW2   72   9.134   1.242   4.542
99414SOL     OW   73   7.878   8.013   4.751
99414SOL    HW1   74   7.929   8.018   4.670
99414SOL    HW2   75   7.844   7.923   4.752
99415SOL     OW   76   1.310   4.586   8.622
99415SOL    HW1   77   1.219   4.557   8.619
99415SOL    HW2   78   1.305   4.680   8.637
99416SOL     OW   79   9.628   3.654  12.044
99416SOL    HW1   80   9.644   3.618  12.132
99416SOL    HW2   81   9.552   3.710  12.055
99417SOL     OW   82   0.528   6.926   8.806
99417SOL    HW1   83   0.617   6.961   8.814
99417SOL    HW2   84   0.537   6.850   8.749
99418SOL     OW   85   5.137   3.386   1.343
99418SOL    HW1   86   5.103   3.366   1.256
99418SOL    HW2   87   5.105   3.475   1.360
99419SOL     OW   88   7.223   8.576   4.314
99419SOL    HW1   89   7.183   8.504   4.362
99419SOL    HW2   90   7.149   8.620   4.272
99420SOL     OW   91   5.523   5.598   2.240
99420SOL    HW1   92   5.561   5.560   2.319
99420SOL    HW2   93   5.598   5.629   2.189
99421SOL     OW   94   8.653   8.213  11.275
99421SOL    HW1   95   8.596   8.258  11.212
99421SOL    HW2   96   8.732   8.266  11.277
99422SOL     OW   97   6.525   9.985  14.628
99422SOL    HW1   98   6.529  10.050  14.698
99422SOL    HW2   99   6.432   9.985  14.602
99423SOL     OW  100  13.375   4.447   8.384
99423SOL    HW1  101  13.460   4.445   8.427
99423SOL    HW2  102  13.334   4.529   8.415
99424SOL     OW  103   9.801   1.087   7.169
99424SOL    HW1  104   9.841   1.033   7.101
99424SOL    HW2  105   9.862   1.084   7.242
99425SOL     OW  106  10.650   7.428   5.660
99425SOL    HW1  107  10.730   7.472   5.631
99425SOL    HW2  108  10.677   7.377   5.736
99426SOL     OW  109   4.246   7.408   0.705
99426SOL    HW1  110   4.155   7.430   0.686
99426SOL    HW2  111   4.278   7.481   0.759
99427SOL     OW  112   3.461  12.188   8.078
99427SOL    HW1  113   3.469  12.275   8.117
99427SOL    HW2  114   3.369  12.182   8.052
99428SOL     OW  115   4.542   3.800   6.864
99428SOL    HW1  116   4.588   3.789   6.780
99428SOL    HW2  117   4.602   3.766   6.929
99429SOL     OW  118   8.363   3.897  13.044
99429SOL    HW1  119   8.407   3.860  12.967
99429SOL    HW2  120   8.321   3.977  13.011
99430SOL     OW  121   6.559   9.246  14.338
99430SOL    HW1  122   6.478   9.261  14.289
99430SOL    HW2  123   6.618   9.205  14.274
99431SOL     OW  124   9.041   9.706  13.645
99431SOL    HW1  125   8.961   9.655  13.657
99431SOL    HW2  126   9.037   9.736  13.554
99432SOL     OW  127   8.239  11.738   7.711
99432SOL    HW1  128   8.185  11.789   7.772
99432SOL    HW2  129   8.180  11.718   7.638
99433SOL     OW  130   4.229   4.502  13.506
99433SOL    HW1  131   4.297   4.470  13.566
99433SOL    HW2  132   4.245   4.596  13.498
99434SOL     OW  133   3.929   6.982   5.243
99434SOL    HW1  134   3.982   7.027   5.177
99434SOL    HW2  135   3.857   7.042   5.261
99435SOL     OW  136   6.879   0.368  12.189
99435SOL    HW1  137   6.835   0.404  12.266
99435SOL    HW2  138   6.945   0.309  12.225
99436SOL     OW  139   8.963   6.328  13.526
99436SOL    HW1  140   8.922   6.291  13.448
99436SOL    HW2  141   9.009   6.254  13.565
99437SOL     OW  142  11.420   3.702  13.409
99437SOL    HW1  143  11.360   3.697  13.484
99437SOL    HW2  144  11.454   3.792  13.413
99438SOL     OW  145   4.195   3.576   3.082
99438SOL    HW1  146   4.229   3.600   3.168
99438SOL    HW2  147   4.267   3.596   3.021
99439SOL     OW  148   3.021  10.328   8.443
99439SOL    HW1  149   3.049  10.284   8.364
99439SOL    HW2  150   3.092  10.313   8.506
99440SOL     OW  151   4.013   9.015   7.672
99440SOL    HW1  152   4.065   8.991   7.748
99440SOL    HW2  153   4.026   9.109   7.663
99441SOL     OW  154   7.456  14.527   5.266
99441SOL    HW1  155   7.485  14.559   5.180
99441SOL    HW2  156   7.477  14.598   5.326
99442SOL     OW  157   0.515   6.431  10.610
99442SOL    HW1  158   0.518   6.364  10.678
99442SOL    HW2  159   0.458   6.500  10.647
99443SOL     OW  160   6.754  14.784  12.018
99443SOL    HW1  161   6.764  14.711  12.080
99443SOL    HW2  162   6.752  14.742  11.932
99444SOL     OW  163  14.379   6.606   4.279
99444SOL    HW1  164  14.396   6.697   4.255
99444SOL    HW2  165  14.284   6.596   4.272
99445SOL     OW  166   7.665   2.174   4.440
99445SOL    HW1  167   7.672   2.083   4.471
99445SOL    HW2  168   7.600   2.171   4.370
99446SOL     OW  169   5.393   5.805   9.396
99446SOL    HW1  170   5.447   5.737   9.438
99446SOL    HW2  171   5.306   5.792   9.432
99447SOL     OW  172   4.161  12.082  14.306
99447SOL    HW1  173   4.144  12.052  14.396
99447SOL    HW2  174   4.230  12.024  14.274
99448SOL     OW  175   8.183   6.891   8.770
99448SOL    HW1  176   8.239   6.910   8.695
99448SOL    HW2  177   8.096   6.919   8.744
99449SOL     OW  178   7.987  11.696  14.861
99449SOL    HW1  179   8.044  11.737  14.796
99449SOL    HW2  180   8.029  11.612   0.004
99450SOL     OW  181   4.486   0.112   5.685
99450SOL    HW1  182   4.456   0.102   5.594
99450SOL    HW2  183   4.581   0.113   5.678
99451SOL     OW  184   4.481   4.366   8.958
99451SOL    HW1  185   4.441   4.318   9.031
99451SOL    HW2  186   4.532   4.300   8.911
99452SOL     OW  187   1.689   4.479   0.400
99452SOL    HW1  188   1.640   4.411   0.355
99452SOL    HW2  189   1.740   4.522   0.331
99453SOL     OW  190   4.566   2.331  10.118
99453SOL    HW1  191   4.520   2.377  10.048
99453SOL    HW2  192   4.500   2.318  10.186
99454SOL     OW  193   4.022   7.722  11.865
99454SOL    HW1  194   4.040   7.779  11.791
99454SOL    HW2  195   4.107   7.690  11.893
99455SOL     OW  196   9.809  11.848   8.578
99455SOL    HW1  197   9.876  11.908   8.545
99455SOL    HW2  198   9.847  11.761   8.565
99456SOL     OW  199   7.010   7.583  11.822
99456SOL    HW1  200   6.923   7.561  11.787
99456SOL    HW2  201   7.068   7.517  11.784
99457SOL     OW  202  14.609  12.519   6.560
99457SOL    HW1  203  14.548  12.535   6.633
99457SOL    HW2  204  14.586  12.586   6.496
99458SOL     OW  205  12.220  11.626   0.130
99458SOL    HW1  206  12.289  11.562   0.149
99458SOL    HW2  207  12.243  11.660   0.043
99459SOL     OW  208   2.374   8.141   6.170
99459SOL    HW1  209   2.324   8.097   6.238
99459SOL    HW2  210   2.466   8.133   6.198
99460SOL     OW  211   5.960  12.345   4.733
99460SOL    HW1  212   5.946  12.396   4.653
99460SOL    HW2  213   5.881  12.292   4.742
99461SOL     OW  214   7.778  12.024   9.751
99461SOL    HW1  215   7.869  12.047   9.731
99461SOL    HW2  216   7.729  12.049   9.673
99462SOL     OW  217   9.851  13.225  13.992
99462SOL    HW1  218   9.839  13.160  13.923
99462SOL    HW2  219   9.850  13.309  13.945
99463SOL     OW  220  12.607   7.002   2.650
99463SOL    HW1  221  12.517   7.022   2.674
99463SOL    HW2  222  12.658   7.075   2.684
99464SOL     OW  223   5.896   8.409  10.523
99464SOL    HW1  224   5.814   8.397  10.474
99464SOL    HW2  225   5.898   8.503  10.544
99465SOL     OW  226   9.443  10.082   2.175
99465SOL    HW1  227   9.499  10.104   2.100
99465SOL    HW2  228   9.504  10.053   2.243
99466SOL     OW  229   8.160   9.849  12.056
99466SOL    HW1  230   8.129   9.796  12.130
99466SOL    HW2  231   8.237   9.803  12.023
99467SOL     OW  232  14.394   6.102   7.928
99467SOL    HW1  233  14.327   6.033   7.926
99467SOL    HW2  234  14.427   6.100   8.018
99468SOL     OW  235   4.466   0.618   5.505
99468SOL    HW1  236   4.512   0.673   5.569
99468SOL    HW2  237   4.453   0.535   5.551
99469SOL     OW  238   1.207   2.498   8.650
99469SOL    HW1  239   1.302   2.494   8.643
99469SOL    HW2  240   1.175   2.477   8.562
99470SOL     OW  241  11.684   6.112   1.023
99470SOL    HW1  242  11.743   6.086   0.953
99470SOL    HW2  243  11.736   6.170   1.079
99471SOL     OW  244  12.228   7.630  13.807
99471SOL    HW1  245  12.295   7.561  13.811
99471SOL    HW2  246  12.271   7.707  13.845
99472SOL     OW  247   2.088   5.623  11.770
99472SOL    HW1  248   2.066   5.699  11.716
99472SOL    HW2  249   2.088   5.549  11.710
99473SOL     OW  250   4.129   6.979   4.845
99473SOL    HW1  251   4.215   7.020   4.834
99473SOL    HW2  252   4.080   7.005   4.767
99474SOL     OW  253   9.145  11.092   0.415
99474SOL    HW1  254   9.214  11.154   0.390
99474SOL    HW2  255   9.066  11.128   0.376
99475SOL     OW  256   1.792   3.666  13.303
99475SOL    HW1  257   1.787   3.572  13.291
99475SOL    HW2  258   1.757   3.703  13.222
99476SOL     OW  259   3.961   7.095   0.092
99476SOL    HW1  260   4.034   7.146   0.057
99476SOL    HW2  261   3.887   7.118   0.036
99477SOL     OW  262   6.369   7.014  12.575
99477SOL    HW1  263   6.353   6.961  12.652
99477SOL    HW2  264   6.387   6.951  12.505
99478SOL     OW  265   7.800   4.959   1.139
99478SOL    HW1  266   7.891   4.979   1.119
99478SOL    HW2  267   7.751   4.990   1.063
99479SOL     OW  268  12.885   3.501   8.095
99479SOL    HW1  269  12.954   3.563   8.117
99479SOL    HW2  270  12.877   3.445   8.172
99480SOL     OW  271   0.564   9.604   6.130
99480SOL    HW1  272   0.517   9.669   6.182
99480SOL    HW2  273   0.627   9.656   6.080
99481SOL     OW  274   0.478   7.926   9.886
99481SOL    HW1  275   0.564   7.938   9.926
99481SOL    HW2  276   0.457   7.834   9.901
99482SOL     OW  277   7.534  14.716  11.007
99482SOL    HW1  278   7.616  14.751  11.042
99482SOL    HW2  279   7.495  14.668  11.080
99483SOL     OW  280   8.182  14.331  10.819
99483SOL    HW1  281   8.239  14.305  10.746
99483SOL    HW2  282   8.175  14.252  10.872
99484SOL     OW  283   2.912   4.582   1.668
99484SOL    HW1  284   2.998   4.580   1.710
99484SOL    HW2  285   2.931   4.598   1.576
99485SOL     OW  286   7.888   6.521   0.422
99485SOL    HW1  287   7.942   6.600   0.413
99485SOL    HW2  288   7.948   6.449   0.403
99486SOL     OW  289  13.671  13.154  12.921
99486SOL    HW1  290  13.764  13.158  12.899
99486SOL    HW2  291  13.664  13.194  13.007
99487SOL     OW  292   4.680   8.222  10.843
99487SOL    HW1  293   4.668   8.140  10.890
99487SOL    HW2  294   4.773   8.225  10.823
99488SOL     OW  295   9.417   4.563   4.096
99488SOL    HW1  296   9.438   4.656   4.102
99488SOL    HW2  297   9.493   4.524   4.053
99489SOL     OW  298   9.420  12.573  13.763
99489SOL    HW1  299   9.468  12.595  13.842
99489SOL    HW2  300   9.350  12.638  13.757
99490SOL     OW  301  12.740  13.321   4.238
99490SOL    HW1  302  12.711  13.323   4.329
99490SOL    HW2  303  12.698  13.243   4.201
99491SOL     OW  304  13.481   4.273  10.586
99491SOL    HW1  305  13.434   4.226  10.656
99491SOL    HW2  306  13.524   4.203  10.536
99492SOL     OW  307   9.431  11.170   6.324
99492SOL    HW1  308   9.503  11.162   6.386
99492SOL    HW2  309   9.439  11.093   6.267
99493SOL     OW  310   0.218  13.498   4.509
99493SOL    HW1  311   0.122  13.495   4.510
99493SOL    HW2  312   0.239  13.570   4.450
99494SOL     OW  313  12.597  12.707   7.992
99494SOL    HW1  314  12.605  12.802   7.983
99494SOL    HW2  315  12.685  12.673   7.976
99495SOL     OW  316   7.931   8.542   9.877
99495SOL    HW1  317   7.842   8.556   9.911
99495SOL    HW2  318   7.937   8.600   9.801
99496SOL     OW  319  13.440  11.977   4.966
99496SOL    HW1  320  13.347  11.976   4.990
99496SOL    HW2  321  13.459  12.069   4.946
99497SOL     OW  322  14.204   0.924   5.754
99497SOL    HW1  323  14.237   0.933   5.665
99497SOL    HW2  324  14.109   0.913   5.743
99498SOL     OW  325  12.036   9.796  14.438
99498SOL    HW1  326  12.130   9.779  14.434
99498SOL    HW2  327  12.025   9.881  14.395
99499SOL     OW  328  10.695   0.653  11.291
99499SOL    HW1  329  10.784   0.621  11.307
99499SOL    HW2  330  10.694   0.741  11.329
99500SOL     OW  331  13.505   9.943   5.741
99500SOL    HW1  332  13.486   9.879   5.673
99500SOL    HW2  333  13.421   9.959   5.783
99501SOL     OW  334   2.947   1.005   7.308
99501SOL    HW1  335   2.995   1.084   7.284
99501SOL    HW2  336   2.911   1.024   7.394
99502SOL     OW  337   2.105  10.169  10.357
99502SOL    HW1  338   2.148  10.255  10.364
99502SOL    HW2  339   2.048  10.177  10.281
99503SOL     OW  340   2.535   9.640  11.770
99503SOL    HW1  341   2.518   9.649  11.864
99503SOL    HW2  342   2.518   9.728  11.735
99504SOL     OW  343   4.251  13.689  11.186
99504SOL    HW1  344   4.269  13.733  11.103
99504SOL    HW2  345   4.247  13.760  11.251
99505SOL     OW  346   3.687  12.029   8.016
99505SOL    HW1  347   3.764  12.054   8.066
99505SOL    HW2  348   3.617  12.084   8.050
99506SOL     OW  349   4.170   8.108   0.784
99506SOL    HW1  350   4.210   8.186   0.822
99506SOL    HW2  351   4.199   8.036   0.839
99507SOL     OW  352  10.641   0.529  12.301
99507SOL    HW1  353  10.657   0.471  12.226
99507SOL    HW2  354  10.598   0.605  12.265
99508SOL     OW  355   3.442   1.505   7.561
99508SOL    HW1  356   3.397   1.528   7.643
99508SOL    HW2  357   3.511   1.571   7.552
99509SOL     OW  358   7.656  13.348   4.141
99509SOL    HW1  359   7.661  13.287   4.068
99509SOL    HW2  360   7.611  13.300   4.210
99510SOL     OW  361   8.774  10.010   4.864
99510SOL    HW1  362   8.825  10.019   4.944
99510SOL    HW2  363   8.749   9.917   4.862
99511SOL     OW  364   9.123  14.209   4.310
99511SOL    HW1  365   9.155  14.260   4.235
99511SOL    HW2  366   9.053  14.155   4.274
99512SOL     OW  367   5.715   2.443   5.656
99512SOL    HW1  368   5.683   2.371   5.709
99512SOL    HW2  369   5.794   2.473   5.701
99513SOL     OW  370  10.038  11.170   1.946
99513SOL    HW1  371   9.995  11.182   2.031
99513SOL    HW2  372  10.099  11.098   1.960
99514SOL     OW  373   5.038   3.170  11.459
99514SOL    HW1  374   5.061   3.132  11.374
99514SOL    HW2  375   5.067   3.105  11.523
99515SOL     OW  376  10.756   9.962   7.784
99515SOL    HW1  377  10.781  10.029   7.720
99515SOL    HW2  378  10.835   9.950   7.837
99516SOL     OW  379   5.688  13.513  10.499
99516SOL    HW1  380   5.625  13.584  10.502
99516SOL    HW2  381   5.675  13.472  10.414
99517SOL     OW  382  14.268   5.428  11.453
99517SOL    HW1  383  14.231   5.345  11.425
99517SOL    HW2  384  14.338   5.403  11.514
99518SOL     OW  385   5.529   7.998  14.697
99518SOL    HW1  386   5.477   8.049  14.634
99518SOL    HW2  387   5.593   7.951  14.643
99519SOL     OW  388  11.704   6.156  10.677
99519SOL    HW1  389  11.748   6.148  10.761
99519SOL    HW2  390  11.760   6.106  10.616
99520SOL     OW  391   4.017  10.843  12.541
99520SOL    HW1  392   4.100  10.869  12.501
99520SOL    HW2  393   3.965  10.924  12.543
99521SOL     OW  394   5.998   0.249  10.174
99521SOL    HW1  395   5.962   0.320  10.123
99521SOL    HW2  396   5.934   0.178  10.166
99522SOL     OW  397   1.835  10.375   8.920
99522SOL    HW1  398   1.781  10.298   8.939
99522SOL    HW2  399   1.921  10.354   8.957
99523SOL     OW  400  12.886   3.727  13.012
99523SOL    HW1  401  12.982   3.730  13.008
99523SOL    HW2  402  12.865   3.753  13.102
99524SOL     OW  403   1.629  14.038  14.015
99524SOL    HW1  404   1.686  13.985  14.072
99524SOL    HW2  405   1.590  13.975  13.954
99525SOL     OW  406   9.397   6.775   9.746
99525SOL    HW1  407   9.346   6.856   9.740
99525SOL    HW2  408   9.457   6.790   9.819
99526SOL     OW  409   7.904   7.614  13.274
99526SOL    HW1  410   7.867   7.615  13.186
99526SOL    HW2  411   7.833   7.646  13.330
99527SOL     OW  412   7.375   2.250   9.251
99527SOL    HW1  413   7.282   2.273   9.252
99527SOL    HW2  414   7.378   2.165   9.207
99528SOL     OW  415   3.593   2.271   8.111
99528SOL    HW1  416   3.636   2.316   8.038
99528SOL    HW2  417   3.657   2.275   8.182
99529SOL     OW  418  12.718  11.675   8.386
99529SOL    HW1  419  12.661  11.708   8.316
99529SOL    HW2  420  12.792  11.636   8.340
99530SOL     OW  421   4.911   3.683   8.062
99530SOL    HW1  422   4.974   3.639   8.119
99530SOL    HW2  423   4.965   3.736   8.003
99531SOL     OW  424  10.585   7.372   7.585
99531SOL    HW1  425  10.557   7.463   7.594
99531SOL    HW2  426  10.667   7.376   7.537
99532SOL     OW  427   6.697   6.631   2.881
99532SOL    HW1  428   6.726   6.693   2.948
99532SOL    HW2  429   6.679   6.685   2.804
99533SOL     OW  430  14.791  14.099  14.670
99533SOL    HW1  431  14.709  14.128  14.630
99533SOL    HW2  432  14.850  14.174  14.661
99534SOL     OW  433   7.252   0.681   8.516
99534SOL    HW1  434   7.277   0.763   8.473
99534SOL    HW2  435   7.332   0.629   8.518
99535SOL     OW  436   6.032  10.991  14.732
99535SOL    HW1  437   6.111  11.035  14.764
99535SOL    HW2  438   5.963  11.021  14.790
99536SOL     OW  439   9.781   6.242   3.989
99536SOL    HW1  440   9.702   6.294   3.976
99536SOL    HW2  441   9.849   6.290   3.942
99537SOL     OW  442  13.368   8.830   9.784
99537SOL    HW1  443  13.429   8.834   9.858
99537SOL    HW2  444  13.297   8.889   9.808
99538SOL     OW  445  10.366   9.914   0.114
99538SOL    HW1  446  10.332  10.001   0.136
99538SOL    HW2  447  10.314   9.854   0.167
99539SOL     OW  448   7.419  13.991   1.507
99539SOL    HW1  449   7.439  14.078   1.542
99539SOL    HW2  450   7.495  13.938   1.532
99540SOL     OW  451   2.254   7.121   3.129
99540SOL    HW1  452   2.283   7.030   3.132
99540SOL    HW2  453   2.291   7.156   3.048
99541SOL     OW  454  12.702   7.782   4.580
99541SOL    HW1  455  12.652   7.755   4.657
99541SOL    HW2  456  12.664   7.866   4.555
99542SOL     OW  457   0.082  10.062   8.272
99542SOL    HW1  458   0.140  10.125   8.315
99542SOL    HW2  459   0.045  10.010   8.344
99543SOL     OW  460   6.341   0.256   0.410
99543SOL    HW1  461   6.305   0.320   0.471
99543SOL    HW2  462   6.292   0.271   0.329
99544SOL     OW  463   2.541   7.456   4.123
99544SOL    HW1  464   2.607   7.388   4.131
99544SOL    HW2  465   2.556   7.514   4.198
99545SOL     OW  466   3.014   3.231   8.725
99545SOL    HW1  467   2.942   3.176   8.697
99545SOL    HW2  468   2.986   3.320   8.707
99546SOL     OW  469   6.726  14.657   1.465
99546SOL    HW1  470   6.794  14.601   1.428
99546SOL    HW2  471   6.668  14.596   1.512
99547SOL     OW  472  12.402   3.945   1.758
99547SOL    HW1  473  12.352   4.023   1.733
99547SOL    HW2  474  12.441   3.914   1.676
99548SOL     OW  475   3.098   9.968  12.238
99548SOL    HW1  476   3.019   9.980  12.185
99548SOL    HW2  477   3.149  10.047  12.223
99549SOL     OW  478   1.352   7.848  10.999
99549SOL    HW1  479   1.363   7.894  11.083
99549SOL    HW2  480   1.422   7.882  10.944
99550SOL     OW  481   1.259   8.989   5.556
99550SOL    HW1  482   1.249   8.945   5.640
99550SOL    HW2  483   1.248   8.919   5.491
99551SOL     OW  484   5.479  12.620  12.417
99551SOL    HW1  485   5.530  12.667  12.484
99551SOL    HW2  486   5.540  12.609  12.345
99552SOL     OW  487   8.110   8.599   6.540
99552SOL    HW1  488   8.192   8.631   6.578
99552SOL    HW2  489   8.047   8.605   6.611
99553SOL     OW  490  13.698   7.836  13.804
99553SOL    HW1  491  13.644   7.761  13.828
99553SOL    HW2  492  13.788   7.806  13.820
99554SOL     OW  493   6.072   4.848   5.292
99554SOL    HW1  494   6.041   4.920   5.237
99554SOL    HW2  495   6.065   4.881   5.381
99555SOL     OW  496   8.154   3.613   6.233
99555SOL    HW1  497   8.129   3.552   6.302
99555SOL    HW2  498   8.241   3.584   6.205
99556SOL     OW  499  10.187   3.936   0.564
99556SOL    HW1  500  10.254   3.960   0.500
99556SOL    HW2  501  10.214   3.850   0.596
99557SOL     OW  502   6.263   3.300   6.287
99557SOL    HW1  503   6.259   3.371   6.351
99557SOL    HW2  504   6.201   3.326   6.219
99558SOL     OW  505   7.282   0.637   7.702
99558SOL    HW1  506   7.304   0.571   7.636
99558SOL    HW2  507   7.209   0.685   7.664
99559SOL     OW  508  10.712   5.151   7.216
99559SOL    HW1  509  10.706   5.173   7.309
99559SOL    HW2  510  10.759   5.225   7.177
99560SOL     OW  511   5.056   1.992  10.659
99560SOL    HW1  512   5.038   2.008  10.566
99560SOL    HW2  513   5.035   2.075  10.702
99561SOL     OW  514  13.241   8.294   3.746
99561SOL    HW1  515  13.292   8.374   3.736
99561SOL    HW2  516  13.163   8.320   3.794
99562SOL     OW  517  13.771  13.979  11.625
99562SOL    HW1  518  13.808  13.908  11.573
99562SOL    HW2  519  13.818  14.058  11.596
99563SOL     OW  520   7.633  12.217   5.698
99563SOL    HW1  521   7.583  12.261   5.629
99563SOL    HW2  522   7.698  12.165   5.650
99564SOL     OW  523   3.747  10.122   5.402
99564SOL    HW1  524   3.836  10.095   5.380
99564SOL    HW2  525   3.733  10.202   5.351
99565SOL     OW  526   2.192   6.058  11.018
99565SOL    HW1  527   2.172   5.965  11.027
99565SOL    HW2  528   2.286   6.061  11.000
99566SOL     OW  529  12.058  11.088   7.610
99566SOL    HW1  530  11.985  11.128   7.563
99566SOL    HW2  531  12.105  11.038   7.544
99567SOL     OW  532   2.300   2.182  14.053
99567SOL    HW1  533   2.211   2.156  14.031
99567SOL    HW2  534   2.341   2.201  13.969
99568SOL     OW  535   8.575   9.019   4.423
99568SOL    HW1  536   8.604   8.978   4.342
99568SOL    HW2  537   8.486   9.048   4.406
99569SOL     OW  538  12.440   1.665   1.366
99569SOL    HW1  539  12.422   1.580   1.406
99569SOL    HW2  540  12.466   1.643   1.276
99570SOL     OW  541   7.329   4.343  14.403
99570SOL    HW1  542   7.341   4.395  14.483
99570SOL    HW2  543   7.259   4.282  14.424
99571SOL     OW  544   2.560   4.200   8.741
99571SOL    HW1  545   2.482   4.187   8.688
99571SOL    HW2  546   2.533   4.177   8.830
99572SOL     OW  547   3.035   1.808   7.412
99572SOL    HW1  548   2.977   1.872   7.454
99572SOL    HW2  549   3.072   1.854   7.337
99573SOL     OW  550   7.258   5.773  14.509
99573SOL    HW1  551   7.320   5.842  14.534
99573SOL    HW2  552   7.173   5.806  14.536
99574SOL     OW  553   2.685   1.060   9.597
99574SOL    HW1  554   2.682   1.155   9.608
99574SOL    HW2  555   2.714   1.027   9.682
99575SOL     OW  556  13.248   6.281   8.294
99575SOL    HW1  557  13.293   6.197   8.283
99575SOL    HW2  558  13.233   6.311   8.204
99576SOL     OW  559   2.957  10.941   5.406
99576SOL    HW1  560   3.015  10.988   5.465
99576SOL    HW2  561   2.885  11.002   5.389
99577SOL     OW  562   1.660  12.675  14.853
99577SOL    HW1  563   1.701  12.689  14.767
99577SOL    HW2  564   1.669  12.759   0.022
99578SOL     OW  565  14.844  14.172   1.082
99578SOL    HW1  566  14.789  14.115   1.136
99578SOL    HW2  567  14.781  14.222   1.029
99579SOL     OW  568   5.140   0.569  13.496
99579SOL    HW1  569   5.220   0.527  13.463
99579SOL    HW2  570   5.164   0.597  13.584
99580SOL     OW  571  11.765   4.525   1.001
99580SOL    HW1  572  11.706   4.597   1.025
99580SOL    HW2  573  11.782   4.538   0.908
99581SOL     OW  574   2.432  10.218   5.012
99581SOL    HW1  575   2.497  10.182   5.073
99581SOL    HW2  576   2.441  10.165   4.933
99582SOL     OW  577  12.708   5.744  14.322
99582SOL    HW1  578  12.742   5.677  14.382
99582SOL    HW2  579  12.785   5.779  14.279
99583SOL     OW  580   9.146   7.238   7.532
99583SOL    HW1  581   9.074   7.274   7.481
99583SOL    HW2  582   9.221   7.294   7.511
99584SOL     OW  583   7.752   5.965   3.492
99584SOL    HW1  584   7.822   6.002   3.438
99584SOL    HW2  585   7.673   5.976   3.439
99585SOL     OW  586   7.723   1.247  12.698
99585SOL    HW1  587   7.657   1.234  12.630
99585SOL    HW2  588   7.787   1.177  12.683
99586SOL     OW  589   2.696   8.724  14.168
99586SOL    HW1  590   2.713   8.760  14.255
99586SOL    HW2  591   2.626   8.779  14.133
99587SOL     OW  592  14.732   0.370   2.513
99587SOL    HW1  593  14.789   0.388   2.588
99587SOL    HW2  594  14.657   0.427   2.527
99588SOL     OW  595  11.017   0.470   9.052
99588SOL    HW1  596  11.048   0.395   9.001
99588SOL    HW2  597  10.924   0.452   9.068
99589SOL     OW  598   8.943   5.542  11.167
99589SOL    HW1  599   8.968   5.628  11.134
99589SOL    HW2  600   9.018   5.486  11.147
99590SOL     OW  601   0.333   3.188  14.613
99590SOL    HW1  602   0.253   3.237  14.594
99590SOL    HW2  603   0.337   3.121  14.545
99591SOL     OW  604   1.590   6.311  11.663
99591SOL    HW1  605   1.551   6.302  11.750
99591SOL    HW2  606   1.683   6.290  11.676
99592SOL     OW  607  14.770   1.678   9.605
99592SOL    HW1  608  14.801   1.766   9.583
99592SOL    HW2  609  14.848   1.623   9.598
99593SOL     OW  610  10.204   7.959   4.024
99593SOL    HW1  611  10.138   8.022   3.996
99593SOL    HW2  612  10.287   8.005   4.012
99594SOL     OW  613  11.457  11.430   2.359
99594SOL    HW1  614  11.537  11.470   2.393
99594SOL    HW2  615  11.408  11.502   2.321
99595SOL     OW  616   0.448   2.598   7.703
99595SOL    HW1  617   0.369   2.602   7.757
99595SOL    HW2  618   0.432   2.661   7.633
99596SOL     OW  619   0.433   7.650   9.880
99596SOL    HW1  620   0.394   7.584   9.937
99596SOL    HW2  621   0.481   7.599   9.814
99597SOL     OW  622   9.364   0.067   1.827
99597SOL    HW1  623   9.460   0.063   1.819
99597SOL    HW2  624   9.334   0.095   1.741
99598SOL     OW  625   1.675  11.411  14.031
99598SOL    HW1  626   1.734  11.335  14.030
99598SOL    HW2  627   1.653  11.425  13.939
99599SOL     OW  628   5.096  14.659   8.548
99599SOL    HW1  629   5.069  14.640   8.458
99599SOL    HW2  630   5.172  14.602   8.562
99600SOL     OW  631   5.978   0.206   0.198
99600SOL    HW1  632   6.072   0.227   0.197
99600SOL    HW2  633   5.946   0.238   0.114
99601SOL     OW  634   4.829   2.078   3.345
99601SOL    HW1  635   4.849   2.169   3.366
99601SOL    HW2  636   4.771   2.082   3.269
99602SOL     OW  637  13.245   6.170   3.505
99602SOL    HW1  638  13.222   6.079   3.488
99602SOL    HW2  639  13.248   6.211   3.418
99603SOL     OW  640   9.484   6.432   9.142
99603SOL    HW1  641   9.489   6.486   9.063
99603SOL    HW2  642   9.568   6.387   9.145
99604SOL     OW  643   6.533   2.781   5.867
99604SOL    HW1  644   6.509   2.690   5.885
99604SOL    HW2  645   6.502   2.830   5.943
99605SOL     OW  646   5.400  13.626  10.223
99605SOL    HW1  647   5.430  13.630  10.314
99605SOL    HW2  648   5.478  13.603  10.172
99606SOL     OW  649  12.074   0.162   5.980
99606SOL    HW1  650  12.098   0.135   6.069
99606SOL    HW2  651  11.989   0.205   5.990
99607SOL     OW  652   2.339   5.132   8.286
99607SOL    HW1  653   2.402   5.203   8.301
99607SOL    HW2  654   2.392   5.056   8.263
99608SOL     OW  655   1.287   6.390  13.076
99608SOL    HW1  656   1.343   6.449  13.025
99608SOL    HW2  657   1.215   6.446  13.106
99609SOL     OW  658   2.500   6.783   4.681
99609SOL    HW1  659   2.447   6.729   4.623
99609SOL    HW2  660   2.448   6.790   4.761
99610SOL     OW  661   4.468   5.684   4.361
99610SOL    HW1  662   4.407   5.610   4.358
99610SOL    HW2  663   4.414   5.761   4.345
99611SOL     OW  664   6.286   3.218   1.916
99611SOL    HW1  665   6.314   3.258   1.834
99611SOL    HW2  666   6.363   3.224   1.973
99612SOL     OW  667  14.083   4.008  11.022
99612SOL    HW1  668  13.995   4.044  11.034
99612SOL    HW2  669  14.138   4.084  11.007
99613SOL     OW  670  11.623  11.044   5.060
99613SOL    HW1  671  11.600  11.131   5.091
99613SOL    HW2  672  11.548  11.018   5.006
99614SOL     OW  673   4.358   0.510   7.795
99614SOL    HW1  674   4.368   0.447   7.724
99614SOL    HW2  675   4.264   0.531   7.795
99615SOL     OW  676   9.016   8.592   7.099
99615SOL    HW1  677   9.015   8.661   7.165
99615SOL    HW2  678   9.102   8.600   7.058
99616SOL     OW  679  10.409   7.101   8.769
99616SOL    HW1  680  10.343   7.109   8.699
99616SOL    HW2  681  10.452   7.187   8.771
99617SOL     OW  682  13.873   0.023   0.777
99617SOL    HW1  683  13.801  14.836   0.770
99617SOL    HW2  684  13.938  14.868   0.714
99618SOL     OW  685   1.549   9.254   4.112
99618SOL    HW1  686   1.617   9.293   4.167
99618SOL    HW2  687   1.591   9.241   4.027
99619SOL     OW  688   7.524  12.764  10.222
99619SOL    HW1  689   7.569  12.813  10.291
99619SOL    HW2  690   7.536  12.672  10.246
99620SOL     OW  691  11.072   1.398   8.578
99620SOL    HW1  692  11.132   1.338   8.534
99620SOL    HW2  693  11.036   1.347   8.651
99621SOL     OW  694   5.081   2.636  12.800
99621SOL    HW1  695   5.004   2.682  12.831
99621SOL    HW2  696   5.106   2.682  12.720
99622SOL     OW  697   5.730   9.628   5.673
99622SOL    HW1  698   5.765   9.707   5.714
99622SOL    HW2  699   5.732   9.647   5.579
99623SOL     OW  700   7.653   6.751   6.131
99623SOL    HW1  701   7.646   6.685   6.062
99623SOL    HW2  702   7.614   6.830   6.093
99624SOL     OW  703  10.663   7.604   3.174
99624SOL    HW1  704  10.640   7.519   3.212
99624SOL    HW2  705  10.628   7.601   3.085
99625SOL     OW  706  10.492   4.110   0.593
99625SOL    HW1  707  10.529   4.198   0.598
99625SOL    HW2  708  10.455   4.105   0.504
99626SOL     OW  709  12.986  13.022   6.487
99626SOL    HW1  710  12.953  13.067   6.410
99626SOL    HW2  711  13.076  12.997   6.464
99627SOL     OW  712  10.080   6.109  11.941
99627SOL    HW1  713  10.049   6.093  11.852
99627SOL    HW2  714  10.078   6.204  11.951
99628SOL     OW  715  11.637   9.121   0.197
99628SOL    HW1  716  11.642   9.156   0.286
99628SOL    HW2  717  11.544   9.126   0.174
99629SOL     OW  718   1.835   4.501  13.274
99629SOL    HW1  719   1.863   4.540  13.357
99629SOL    HW2  720   1.887   4.421  13.266
99630SOL     OW  721   3.831  11.647   5.622
99630SOL    HW1  722   3.880  11.583   5.674
99630SOL    HW2  723   3.882  11.657   5.541
99631SOL     OW  724  11.443  12.023  13.136
99631SOL    HW1  725  11.520  12.028  13.079
99631SOL    HW2  726  11.417  11.931  13.134
99632SOL     OW  727   5.998   2.548  14.778
99632SOL    HW1  728   5.974   2.562  14.870
99632SOL    HW2  729   5.961   2.623  14.732
99633SOL     OW  730   2.089   5.367  13.300
99633SOL    HW1  731   2.131   5.406  13.223
99633SOL    HW2  732   2.150   5.385  13.372
99634SOL     OW  733   1.600   4.096   9.539
99634SOL    HW1  734   1.647   4.018   9.568
99634SOL    HW2  735   1.661   4.168   9.553
99635SOL     OW  736  13.425  11.787   5.366
99635SOL    HW1  737  13.410  11.872   5.326
99635SOL    HW2  738  13.447  11.729   5.293
99636SOL     OW  739   0.394   1.043   8.597
99636SOL    HW1  740   0.480   1.039   8.555
99636SOL    HW2  741   0.409   1.008   8.685
99637SOL     OW  742  10.232   1.828   7.244
99637SOL    HW1  743  10.178   1.903   7.268
99637SOL    HW2  744  10.242   1.779   7.326
99638SOL     OW  745   9.318   9.552   7.532
99638SOL    HW1  746   9.332   9.539   7.438
99638SOL    HW2  747   9.365   9.633   7.552
99639SOL     OW  748   4.513   9.857  13.591
99639SOL    HW1  749   4.534   9.920  13.660
99639SOL    HW2  750   4.530   9.772  13.630
99640SOL     OW  751  10.459  10.755   5.938
99640SOL    HW1  752  10.516  10.807   5.881
99640SOL    HW2  753  10.476  10.791   6.026
99641SOL     OW  754   1.619   2.279  10.629
99641SOL    HW1  755   1.532   2.307  10.602
99641SOL    HW2  756   1.673   2.358  10.623
99642SOL     OW  757   3.901   2.124   6.707
99642SOL    HW1  758   3.849   2.106   6.786
99642SOL    HW2  759   3.882   2.050   6.649
99643SOL     OW  760  11.076   4.828  12.993
99643SOL    HW1  761  11.038   4.767  12.930
99643SOL    HW2  762  11.032   4.807  13.076
99644SOL     OW  763  10.148   4.378  10.600
99644SOL    HW1  764  10.205   4.455  10.591
99644SOL    HW2  765  10.087   4.385  10.526
99645SOL     OW  766   8.086   1.491   3.766
99645SOL    HW1  767   8.128   1.445   3.693
99645SOL    HW2  768   8.144   1.567   3.782
99646SOL     OW  769   3.624   9.924   7.349
99646SOL    HW1  770   3.690   9.930   7.280
99646SOL    HW2  771   3.602   9.831   7.354
99647SOL     OW  772  13.283   6.234  11.800
99647SOL    HW1  773  13.189   6.241  11.818
99647SOL    HW2  774  13.320   6.316  11.833
99648SOL     OW  775   7.750   4.024  13.016
99648SOL    HW1  776   7.789   3.975  13.088
99648SOL    HW2  777   7.673   4.066  13.055
99649SOL     OW  778   0.160   5.731   4.602
99649SOL    HW1  779   0.141   5.671   4.675
99649SOL    HW2  780   0.159   5.676   4.524
99650SOL     OW  781   5.707   6.257  10.958
99650SOL    HW1  782   5.751   6.285  11.038
99650SOL    HW2  783   5.626   6.308  10.955
99651SOL     OW  784   7.330   8.872  10.387
99651SOL    HW1  785   7.385   8.950  10.379
99651SOL    HW2  786   7.284   8.867  10.303
99652SOL     OW  787   4.131  12.811   9.082
99652SOL    HW1  788   4.116  12.757   9.004
99652SOL    HW2  789   4.093  12.761   9.154
99653SOL     OW  790   7.536  10.967  11.224
99653SOL    HW1  791   7.553  10.877  11.253
99653SOL    HW2  792   7.552  10.966  11.130
99654SOL     OW  793  10.080  12.745  11.678
99654SOL    HW1  794  10.084  12.666  11.624
99654SOL    HW2  795  10.148  12.802  11.644
99655SOL     OW  796  13.280   8.558  14.560
99655SOL    HW1  797  13.228   8.635  14.580
99655SOL    HW2  798  13.371   8.589  14.562
99656SOL     OW  799   8.919   2.844   8.970
99656SOL    HW1  800   8.870   2.806   8.897
99656SOL    HW2  801   8.852   2.867   9.035
99657SOL     OW  802  11.653  10.657  14.444
99657SOL    HW1  803  11.676  10.718  14.374
99657SOL    HW2  804  11.567  10.686  14.474
99658SOL     OW  805  11.103  12.670   4.645
99658SOL    HW1  806  11.085  12.641   4.735
99658SOL    HW2  807  11.034  12.734   4.627
99659SOL     OW  808  11.292   4.110   2.922
99659SOL    HW1  809  11.331   4.041   2.868
99659SOL    HW2  810  11.366   4.164   2.950
99660SOL     OW  811   3.108  14.413  13.842
99660SOL    HW1  812   3.199  14.389  13.827
99660SOL    HW2  813   3.059  14.334  13.821
99661SOL     OW  814   6.856   5.853  12.436
99661SOL    HW1  815   6.921   5.923  12.434
99661SOL    HW2  816   6.812   5.862  12.520
99662SOL     OW  817  14.388  13.327  13.922
99662SOL    HW1  818  14.292  13.327  13.925
99662SOL    HW2  819  14.410  13.260  13.857
99663SOL     OW  820   0.957   1.230   7.236
99663SOL    HW1  821   0.952   1.325   7.235
99663SOL    HW2  822   1.023   1.208   7.170
99664SOL     OW  823   8.776   2.657   2.502
99664SOL    HW1  824   8.792   2.629   2.412
99664SOL    HW2  825   8.858   2.698   2.529
99665SOL     OW  826   0.008  12.841  12.864
99665SOL    HW1  827  14.836  12.910  12.909
99665SOL    HW2  828   0.096  12.878  12.851
99666SOL     OW  829   6.762   1.719   9.262
99666SOL    HW1  830   6.783   1.751   9.349
99666SOL    HW2  831   6.762   1.623   9.271
99667SOL     OW  832   0.310   7.087   8.741
99667SOL    HW1  833   0.236   7.055   8.792
99667SOL    HW2  834   0.385   7.035   8.772
99668SOL     OW  835   5.253   1.481   0.265
99668SOL    HW1  836   5.232   1.415   0.199
99668SOL    HW2  837   5.324   1.531   0.226
99669SOL     OW  838  14.519  13.400   0.618
99669SOL    HW1  839  14.492  13.318   0.576
99669SOL    HW2  840  14.523  13.378   0.711
99670SOL     OW  841   6.617   9.283  12.836
99670SOL    HW1  842   6.546   9.255  12.779
99670SOL    HW2  843   6.581   9.278  12.924
99671SOL     OW  844   1.461   7.353   9.368
99671SOL    HW1  845   1.461   7.298   9.446
99671SOL    HW2  846   1.552   7.380   9.357
99672SOL     OW  847  14.168   6.650   2.398
99672SOL    HW1  848  14.085   6.698   2.404
99672SOL    HW2  849  14.174   6.625   2.305
99673SOL     OW  850   6.415   6.100  14.835
99673SOL    HW1  851   6.504   6.119  14.804
99673SOL    HW2  852   6.361   6.107  14.757
99674SOL     OW  853   2.624  14.273  10.356
99674SOL    HW1  854   2.629  14.366  10.337
99674SOL    HW2  855   2.637  14.267  10.450
99675SOL     OW  856   0.584   8.735   6.988
99675SOL    HW1  857   0.641   8.810   7.005
99675SOL    HW2  858   0.512   8.745   7.051
99676SOL     OW  859   4.501  11.540  12.845
99676SOL    HW1  860   4.421  11.503  12.883
99676SOL    HW2  861   4.489  11.530  12.751
99677SOL     OW  862  11.806   4.470   7.185
99677SOL    HW1  863  11.799   4.401   7.118
99677SOL    HW2  864  11.856   4.430   7.256
99678SOL     OW  865  11.745  11.395   7.413
99678SOL    HW1  866  11.802  11.465   7.383
99678SOL    HW2  867  11.693  11.371   7.337
99679SOL     OW  868  13.967  12.691   6.967
99679SOL    HW1  869  13.941  12.783   6.969
99679SOL    HW2  870  13.984  12.673   6.875
99680SOL     OW  871  10.744  14.434  12.351
99680SOL    HW1  872  10.827  14.411  12.311
99680SOL    HW2  873  10.706  14.350  12.378
99681SOL     OW  874   0.621  12.515   2.432
99681SOL    HW1  875   0.626  12.541   2.524
99681SOL    HW2  876   0.572  12.433   2.432
99682SOL     OW  877  10.797   4.428   0.064
99682SOL    HW1  878  10.848   4.465  14.868
99682SOL    HW2  879  10.706   4.443   0.039
99683SOL     OW  880   5.523   1.042  13.310
99683SOL    HW1  881   5.465   0.995  13.250
99683SOL    HW2  882   5.540   1.126  13.266
99684SOL     OW  883   4.516   9.781   0.697
99684SOL    HW1  884   4.523   9.835   0.776
99684SOL    HW2  885   4.606   9.753   0.679
99685SOL     OW  886   5.607  12.272   6.087
99685SOL    HW1  887   5.659  12.215   6.030
99685SOL    HW2  888   5.660  12.352   6.094
99686SOL     OW  889   2.062   6.267   9.677
99686SOL    HW1  890   2.074   6.335   9.610
99686SOL    HW2  891   2.055   6.186   9.628
99687SOL     OW  892  13.811  12.933  10.415
99687SOL    HW1  893  13.769  13.008  10.459
99687SOL    HW2  894  13.893  12.922  10.462
99688SOL     OW  895   5.275  13.842   2.014
99688SOL    HW1  896   5.361  13.864   1.979
99688SOL    HW2  897   5.213  13.882   1.952
99689SOL     OW  898  10.296  13.817   8.282
99689SOL    HW1  899  10.335  13.779   8.360
99689SOL    HW2  900  10.210  13.849   8.310
99690SOL     OW  901   0.195   4.259   5.276
99690SOL    HW1  902   0.268   4.216   5.233
99690SOL    HW2  903   0.214   4.352   5.270
99691SOL     OW  904   1.145   9.592  10.618
99691SOL    HW1  905   1.167   9.641  10.539
99691SOL    HW2  906   1.129   9.660  10.684
99692SOL     OW  907   3.227  11.929   2.295
99692SOL    HW1  908   3.297  11.870   2.323
99692SOL    HW2  909   3.260  12.017   2.315
99693SOL     OW  910   9.447   3.051   5.392
99693SOL    HW1  911   9.477   3.075   5.304
99693SOL    HW2  912   9.502   2.977   5.416
99694SOL     OW  913   7.684   7.785   3.203
99694SOL    HW1  914   7.684   7.853   3.136
99694SOL    HW2  915   7.641   7.710   3.161
99695SOL     OW  916   4.204   5.344   3.233
99695SOL    HW1  917   4.226   5.436   3.247
99695SOL    HW2  918   4.288   5.302   3.212
99696SOL     OW  919   6.717   3.063   9.557
99696SOL    HW1  920   6.733   3.154   9.532
99696SOL    HW2  921   6.775   3.048   9.631
99697SOL     OW  922   6.474   6.157   2.355
99697SOL    HW1  923   6.554   6.154   2.408
99697SOL    HW2  924   6.483   6.236   2.302
99698SOL     OW  925   0.932   3.816   9.322
99698SOL    HW1  926   0.938   3.725   9.353
99698SOL    HW2  927   0.937   3.868   9.402
99699SOL     OW  928  12.466  14.044  12.096
99699SOL    HW1  929  12.417  14.061  12.015
99699SOL    HW2  930  12.444  13.954  12.119
99700SOL     OW  931   5.604  10.420  11.205
99700SOL    HW1  932   5.542  10.351  11.184
99700SOL    HW2  933   5.608  10.474  11.126
99701SOL     OW  934   7.658  10.520   4.186
99701SOL    HW1  935   7.630  10.467   4.112
99701SOL    HW2  936   7.646  10.463   4.262
99702SOL     OW  937  11.514   8.568  11.304
99702SOL    HW1  938  11.518   8.544  11.396
99702SOL    HW2  939  11.481   8.490  11.260
99703SOL     OW  940  12.196   7.183  11.209
99703SOL    HW1  941  12.137   7.124  11.162
99703SOL    HW2  942  12.271   7.129  11.232
99704SOL     OW  943   1.090   8.313   1.049
99704SOL    HW1  944   1.060   8.377   0.985
99704SOL    HW2  945   1.140   8.250   0.997
99705SOL     OW  946  11.641   1.704  12.911
99705SOL    HW1  947  11.729   1.670  12.928
99705SOL    HW2  948  11.639   1.788  12.956
99706SOL     OW  949  13.920  11.454  14.113
99706SOL    HW1  950  13.994  11.402  14.080
99706SOL    HW2  951  13.914  11.431  14.206
99707SOL     OW  952   7.861   6.309  11.424
99707SOL    HW1  953   7.819   6.375  11.480
99707SOL    HW2  954   7.856   6.345  11.336
99708SOL     OW  955   5.813  12.338   1.350
99708SOL    HW1  956   5.781  12.254   1.317
99708SOL    HW2  957   5.821  12.325   1.445
99709SOL     OW  958  12.881   7.387   3.000
99709SOL    HW1  959  12.808   7.327   3.011
99709SOL    HW2  960  12.843   7.464   2.958
99710SOL     OW  961   6.449  12.265   9.736
99710SOL    HW1  962   6.487  12.187   9.777
99710SOL    HW2  963   6.509  12.285   9.664
99711SOL     OW  964   1.096   5.138   9.695
99711SOL    HW1  965   1.149   5.197   9.642
99711SOL    HW2  966   1.124   5.154   9.785
99712SOL     OW  967   2.699   4.596  13.942
99712SOL    HW1  968   2.792   4.572  13.949
99712SOL    HW2  969   2.652   4.516  13.965
99713SOL     OW  970  12.136   3.883   8.193
99713SOL    HW1  971  12.152   3.915   8.104
99713SOL    HW2  972  12.214   3.831   8.214
99714SOL     OW  973  11.930   6.803   2.094
99714SOL    HW1  974  11.860   6.867   2.088
99714SOL    HW2  975  11.997   6.833   2.033
99715SOL     OW  976  10.000   8.329   9.271
99715SOL    HW1  977  10.073   8.275   9.303
99715SOL    HW2  978   9.932   8.266   9.248
99716SOL     OW  979   5.924   6.598  11.897
99716SOL    HW1  980   5.982   6.563  11.965
99716SOL    HW2  981   5.909   6.525  11.838
99717SOL     OW  982  10.071   2.111   9.349
99717SOL    HW1  983  10.004   2.079   9.409
99717SOL    HW2  984  10.095   2.197   9.383
99718SOL     OW  985  11.418   7.107  14.364
99718SOL    HW1  986  11.433   7.063  14.280
99718SOL    HW2  987  11.391   7.036  14.423
99719SOL     OW  988  11.757   7.742   2.517
99719SOL    HW1  989  11.791   7.748   2.428
99719SOL    HW2  990  11.776   7.828   2.556
99720SOL     OW  991   3.326   1.702  11.245
99720SOL    HW1  992   3.249   1.720  11.299
99720SOL    HW2  993   3.293   1.700  11.155
99721SOL     OW  994   3.256  10.342  10.558
99721SOL    HW1  995   3.179  10.310  10.606
99721SOL    HW2  996   3.312  10.266  10.548
99722SOL     OW  997   9.981  10.348   2.316
99722SOL    HW1  998   9.901  10.368   2.364
99722SOL    HW2  999   9.987  10.252   2.318
99723SOL     OW 1000   5.308  10.274  11.915
99723SOL    HW1 1001   5.394  10.306  11.889
99723SOL    HW2 1002   5.246  10.330  11.868
99724SOL     OW 1003   1.387   7.847   2.564
99724SOL    HW1 1004   1.303   7.851   2.519
99724SOL    HW2 1005   1.366   7.807   2.649
99725SOL     OW 1006   0.423  11.637  10.302
99725SOL    HW1 1007   0.437  11.544  10.322
99725SOL    HW2 1008   0.506  11.679  10.325
99726SOL     OW 1009   9.597   3.220   5.920
99726SOL    HW1 1010   9.533   3.272   5.872
99726SOL    HW2 1011   9.677   3.273   5.919
99727SOL     OW 1012   6.022   2.978   2.061
99727SOL    HW1 1013   5.957   2.922   2.018
99727SOL    HW2 1014   6.055   2.924   2.133
99728SOL     OW 1015   0.027  11.180   8.991
99728SOL    HW1 1016   0.085  11.231   9.049
99728SOL    HW2 1017   0.082  11.158   8.916
99729SOL     OW 1018  13.366   7.847   4.648
99729SOL    HW1 1019  13.296   7.912   4.639
99729SOL    HW2 1020  13.343   7.779   4.585
99730SOL     OW 1021   2.003   1.140   9.327
99730SOL    HW1 1022   2.018   1.098   9.242
99730SOL    HW2 1023   2.088   1.174   9.352
99731SOL     OW 1024   5.657   9.951   0.062
99731SOL    HW1 1025   5.590   9.984   0.123
99731SOL    HW2 1026   5.606   9.908  14.869
99732SOL     OW 1027   4.518   2.671   1.825
99732SOL    HW1 1028   4.594   2.659   1.769
99732SOL    HW2 1029   4.445   2.633   1.776
99733SOL     OW 1030   4.280   4.834  11.388
99733SOL    HW1 1031   4.213   4.832  11.456
99733SOL    HW2 1032   4.346   4.772  11.417
99734SOL     OW 1033   5.112  14.315   9.627
99734SOL    HW1 1034   5.045  14.373   9.663
99734SOL    HW2 1035   5.082  14.227   9.652
99735SOL     OW 1036   0.832   7.298   8.374
99735SOL    HW1 1037   0.870   7.225   8.324
99735SOL    HW2 1038   0.883   7.301   8.455
99736SOL     OW 1039   2.636   6.207  12.109
99736SOL    HW1 1040   2.592   6.291  12.118
99736SOL    HW2 1041   2.664   6.204  12.017
99737SOL     OW 1042   4.455   4.385   3.423
99737SOL    HW1 1043   4.442   4.308   3.367
99737SOL    HW2 1044   4.424   4.458   3.370
99738SOL     OW 1045   4.041   9.073   8.404
99738SOL    HW1 1046   4.069   9.036   8.488
99738SOL    HW2 1047   3.946   9.061   8.402
99739SOL     OW 1048   3.559   0.291  13.003
99739SOL    HW1 1049   3.534   0.201  13.026
99739SOL    HW2 1050   3.558   0.292  12.908
99740SOL     OW 1051   0.004   5.525  10.759
99740SOL    HW1 1052  14.847   5.481  10.680
99740SOL    HW2 1053   0.058   5.596  10.727
99741SOL     OW 1054   2.090   0.184   5.508
99741SOL    HW1 1055   2.135   0.265   5.483
99741SOL    HW2 1056   1.998   0.201   5.487
99742SOL     OW 1057   5.603  11.180   5.541
99742SOL    HW1 1058   5.637  11.204   5.627
99742SOL    HW2 1059   5.599  11.263   5.493
99743SOL     OW 1060  10.329   3.208   0.128
99743SOL    HW1 1061  10.368   3.124   0.152
99743SOL    HW2 1062  10.243   3.207   0.170
99744SOL     OW 1063  11.118   8.136   4.590
99744SOL    HW1 1064  11.212   8.148   4.580
99744SOL    HW2 1065  11.095   8.193   4.664
99745SOL     OW 1066   7.985   8.990  10.802
99745SOL    HW1 1067   8.037   8.960  10.876
99745SOL    HW2 1068   7.896   8.959  10.821
99746SOL     OW 1069   2.690   9.760   9.228
99746SOL    HW1 1070   2.631   9.741   9.301
99746SOL    HW2 1071   2.719   9.674   9.198
99747SOL     OW 1072   7.858  12.022   8.252
99747SOL    HW1 1073   7.807  12.102   8.243
99747SOL    HW2 1074   7.795  11.951   8.239
99748SOL     OW 1075   2.326  13.153  13.730
99748SOL    HW1 1076   2.358  13.068  13.700
99748SOL    HW2 1077   2.309  13.140  13.823
99749SOL     OW 1078   5.988   8.519   7.030
99749SOL    HW1 1079   5.912   8.577   7.037
99749SOL    HW2 1080   5.959   8.448   6.973
99750SOL     OW 1081   9.343  11.134   5.616
99750SOL    HW1 1082   9.306  11.173   5.695
99750SOL    HW2 1083   9.417  11.083   5.647
99751SOL     OW 1084   9.196  13.643   4.514
99751SOL    HW1 1085   9.101  13.635   4.523
99751SOL    HW2 1086   9.208  13.720   4.459
99752SOL     OW 1087   7.951  14.465   6.373
99752SOL    HW1 1088   8.036  14.454   6.416
99752SOL    HW2 1089   7.937  14.381   6.328
99753SOL     OW 1090  11.710   6.368   6.362
99753SOL    HW1 1091  11.803   6.373   6.387
99753SOL    HW2 1092  11.705   6.296   6.300
99754SOL     OW 1093   7.807   1.933   6.571
99754SOL    HW1 1094   7.726   1.908   6.615
99754SOL    HW2 1095   7.862   1.855   6.574
99755SOL     OW 1096   8.217  10.576   1.596
99755SOL    HW1 1097   8.203  10.481   1.598
99755SOL    HW2 1098   8.236  10.595   1.505
99756SOL     OW 1099   0.487   9.094  11.941
99756SOL    HW1 1100   0.524   9.079  12.028
99756SOL    HW2 1101   0.499   9.011  11.895
99757SOL     OW 1102   9.175   6.062   0.245
99757SOL    HW1 1103   9.193   6.134   0.306
99757SOL    HW2 1104   9.090   6.028   0.273
99758SOL     OW 1105   0.365   8.315   1.347
99758SOL    HW1 1106   0.340   8.342   1.258
99758SOL    HW2 1107   0.344   8.222   1.350
99759SOL     OW 1108   4.512   4.453   5.079
99759SOL    HW1 1109   4.446   4.413   5.137
99759SOL    HW2 1110   4.461   4.510   5.022
99760SOL     OW 1111   5.748  10.419   1.318
99760SOL    HW1 1112   5.785  10.338   1.353
99760SOL    HW2 1113   5.788  10.488   1.370
99761SOL     OW 1114   8.153   7.132  11.993
99761SOL    HW1 1115   8.176   7.156  11.903
99761SOL    HW2 1116   8.120   7.043  11.987
99762SOL     OW 1117   9.485   3.849  12.137
99762SOL    HW1 1118   9.452   3.922  12.084
99762SOL    HW2 1119   9.538   3.890  12.205
99763SOL     OW 1120   8.521   0.961   7.125
99763SOL    HW1 1121   8.476   0.891   7.171
99763SOL    HW2 1122   8.466   1.038   7.138
99764SOL     OW 1123   7.136  13.877   2.486
99764SOL    HW1 1124   7.066  13.931   2.448
99764SOL    HW2 1125   7.137  13.900   2.578
99765SOL     OW 1126  11.526   3.676   3.037
99765SOL    HW1 1127  11.432   3.671   3.020
99765SOL    HW2 1128  11.538   3.760   3.081
99766SOL     OW 1129  10.119   2.152  11.492
99766SOL    HW1 1130  10.192   2.173  11.434
99766SOL    HW2 1131  10.045   2.201  11.457
99767SOL     OW 1132  12.293   6.247   2.940
99767SOL    HW1 1133  12.249   6.189   3.003
99767SOL    HW2 1134  12.386   6.238   2.960
99768SOL     OW 1135   0.180   4.653  10.044
99768SOL    HW1 1136   0.181   4.716  10.116
99768SOL    HW2 1137   0.126   4.693   9.976
99769SOL     OW 1138   0.128   7.307   5.593
99769SOL    HW1 1139   0.172   7.259   5.524
99769SOL    HW2 1140   0.189   7.305   5.667
99770SOL     OW 1141   1.541   6.952   5.364
99770SOL    HW1 1142   1.588   6.872   5.339
99770SOL    HW2 1143   1.556   6.960   5.459
99771SOL     OW 1144   3.359   8.831  14.328
99771SOL    HW1 1145   3.447   8.862  14.352
99771SOL    HW2 1146   3.355   8.741  14.360
99772SOL     OW 1147   5.981  11.132  12.976
99772SOL    HW1 1148   5.952  11.041  12.976
99772SOL    HW2 1149   6.065  11.131  13.022
99773SOL     OW 1150   4.763  11.082  12.964
99773SOL    HW1 1151   4.809  11.159  12.998
99773SOL    HW2 1152   4.722  11.043  13.040
99774SOL     OW 1153  14.406   2.528   9.598
99774SOL    HW1 1154  14.311   2.518   9.593
99774SOL    HW2 1155  14.439   2.438   9.596
99775SOL     OW 1156   2.788   4.986   1.091
99775SOL    HW1 1157   2.754   4.899   1.110
99775SOL    HW2 1158   2.784   5.032   1.175
99776SOL     OW 1159  10.716  13.315   8.314
99776SOL    HW1 1160  10.725  13.262   8.235
99776SOL    HW2 1161  10.623  13.306   8.338
99777SOL     OW 1162   5.462   5.935  12.837
99777SOL    HW1 1163   5.409   6.012  12.858
99777SOL    HW2 1164   5.455   5.927  12.741
99778SOL     OW 1165  10.240   1.920  13.147
99778SOL    HW1 1166  10.206   2.006  13.172
99778SOL    HW2 1167  10.230   1.916  13.052
99779SOL     OW 1168  11.788  11.815  11.338
99779SOL    HW1 1169  11.821  11.866  11.411
99779SOL    HW2 1170  11.865  11.794  11.285
99780SOL     OW 1171   9.951   4.047   5.126
99780SOL    HW1 1172   9.933   4.134   5.160
99780SOL    HW2 1173   9.997   4.002   5.196
99781SOL     OW 1174  11.130   0.441   3.495
99781SOL    HW1 1175  11.159   0.499   3.565
99781SOL    HW2 1176  11.167   0.356   3.518
99782SOL     OW 1177   1.127   2.757  14.147
99782SOL    HW1 1178   1.081   2.680  14.116
99782SOL    HW2 1179   1.219   2.729  14.153
99783SOL     OW 1180   2.209   0.767   7.811
99783SOL    HW1 1181   2.159   0.738   7.735
99783SOL    HW2 1182   2.189   0.703   7.879
99784SOL     OW 1183  13.510  12.216  11.202
99784SOL    HW1 1184  13.433  12.176  11.243
99784SOL    HW2 1185  13.512  12.305  11.235
99785SOL     OW 1186  12.431  11.584   2.162
99785SOL    HW1 1187  12.395  11.507   2.206
99785SOL    HW2 1188  12.452  11.553   2.074
99786SOL     OW 1189   0.404   7.601  11.666
99786SOL    HW1 1190   0.468   7.531  11.649
99786SOL    HW2 1191   0.356   7.610  11.584
99787SOL     OW 1192  11.797   7.267   5.882
99787SOL    HW1 1193  11.778   7.174   5.870
99787SOL    HW2 1194  11.878   7.281   5.833
99788SOL     OW 1195  13.415   9.990   6.420
99788SOL    HW1 1196  13.441   9.898   6.416
99788SOL    HW2 1197  13.480  10.031   6.478
99789SOL     OW 1198  10.447   7.167   3.542
99789SOL    HW1 1199  10.432   7.172   3.637
99789SOL    HW2 1200  10.372   7.212   3.504
99790SOL     OW 1201  10.390   4.674   5.955
99790SOL    HW1 1202  10.414   4.596   5.906
99790SOL    HW2 1203  10.473   4.711   5.985
99791SOL     OW 1204   6.671   9.136   9.954
99791SOL    HW1 1205   6.639   9.112   9.867
99791SOL    HW2 1206   6.675   9.053  10.002
99792SOL     OW 1207   3.218  11.866  14.211
99792SOL    HW1 1208   3.281  11.810  14.165
99792SOL    HW2 1209   3.204  11.822  14.295
99793SOL     OW 1210   4.025   3.180   8.110
99793SOL    HW1 1211   4.053   3.155   8.198
99793SOL    HW2 1212   4.066   3.115   8.053
99794SOL     OW 1213   1.729   5.604   7.911
99794SOL    HW1 1214   1.733   5.510   7.927
99794SOL    HW2 1215   1.655   5.615   7.852
99795SOL     OW 1216   6.833  14.709  10.728
99795SOL    HW1 1217   6.797  14.711  10.816
99795SOL    HW2 1218   6.760  14.732  10.671
99796SOL     OW 1219   5.190   9.981  12.513
99796SOL    HW1 1220   5.126   9.981  12.442
99796SOL    HW2 1221   5.147  10.028  12.585
99797SOL     OW 1222  10.820  13.029   3.697
99797SOL    HW1 1223  10.796  13.015   3.605
99797SOL    HW2 1224  10.901  12.980   3.709
99798SOL     OW 1225   7.915   6.559   9.756
99798SOL    HW1 1226   7.976   6.496   9.794
99798SOL    HW2 1227   7.942   6.643   9.793
99799SOL     OW 1228   3.105   5.310   2.777
99799SOL    HW1 1229   3.128   5.325   2.686
99799SOL    HW2 1230   3.164   5.366   2.827
99800SOL     OW 1231   6.837   3.825  13.501
99800SOL    HW1 1232   6.793   3.751  13.460
99800SOL    HW2 1233   6.782   3.848  13.576
99801SOL     OW 1234   4.732  12.007   4.350
99801SOL    HW1 1235   4.742  11.914   4.326
99801SOL    HW2 1236   4.799  12.052   4.298
99802SOL     OW 1237   8.116   2.380  11.575
99802SOL    HW1 1238   8.202   2.420  11.588
99802SOL    HW2 1239   8.135   2.291  11.544
99803SOL     OW 1240  10.405   3.298   7.348
99803SOL    HW1 1241  10.485   3.249   7.369
99803SOL    HW2 1242  10.340   3.267   7.411
99804SOL     OW 1243   2.791  11.602  12.990
99804SOL    HW1 1244   2.880  11.625  12.963
99804SOL    HW2 1245   2.761  11.679  13.039
99805SOL     OW 1246   9.473  12.823   5.856
99805SOL    HW1 1247   9.540  12.891   5.863
99805SOL    HW2 1248   9.390  12.870   5.868
99806SOL     OW 1249   3.257   6.736   8.407
99806SOL    HW1 1250   3.228   6.679   8.335
99806SOL    HW2 1251   3.349   6.712   8.421
99807SOL     OW 1252   4.606   2.665   9.992
99807SOL    HW1 1253   4.528   2.680   9.938
99807SOL    HW2 1254   4.572   2.661  10.082
99808SOL     OW 1255  12.393  12.461  12.886
99808SOL    HW1 1256  12.305  12.425  12.886
99808SOL    HW2 1257  12.424  12.449  12.976
99809SOL     OW 1258   5.991   7.298  11.167
99809SOL    HW1 1259   5.955   7.356  11.100
99809SOL    HW2 1260   5.917   7.280  11.225
99810SOL     OW 1261   0.137   7.435  11.558
99810SOL    HW1 1262   0.090   7.363  11.600
99810SOL    HW2 1263   0.073   7.506  11.554
99811SOL     OW 1264   2.319   6.633   7.039
99811SOL    HW1 1265   2.406   6.597   7.025
99811SOL    HW2 1266   2.324   6.723   7.008
99812SOL     OW 1267   7.700   6.507   8.464
99812SOL    HW1 1268   7.764   6.450   8.506
99812SOL    HW2 1269   7.688   6.579   8.526
99813SOL     OW 1270   6.688   7.385   8.397
99813SOL    HW1 1271   6.754   7.438   8.441
99813SOL    HW2 1272   6.739   7.320   8.348
99814SOL     OW 1273   0.777   6.981   8.931
99814SOL    HW1 1274   0.838   7.015   8.865
99814SOL    HW2 1275   0.796   7.031   9.010
99815SOL     OW 1276   8.863  10.744   2.886
99815SOL    HW1 1277   8.958  10.730   2.889
99815SOL    HW2 1278   8.833  10.721   2.975
99816SOL     OW 1279   2.930   6.214  10.376
99816SOL    HW1 1280   2.852   6.222  10.320
99816SOL    HW2 1281   3.001   6.193  10.315
99817SOL     OW 1282  10.763  11.886   0.550
99817SOL    HW1 1283  10.802  11.815   0.600
99817SOL    HW2 1284  10.701  11.927   0.611
99818SOL     OW 1285   9.974   7.771   8.018
99818SOL    HW1 1286  10.022   7.823   7.954
99818SOL    HW2 1287  10.011   7.796   8.103
99819SOL     OW 1288   3.767   6.984   6.796
99819SOL    HW1 1289   3.768   7.074   6.761
99819SOL    HW2 1290   3.770   6.996   6.891
99820SOL     OW 1291   9.684   6.467  14.523
99820SOL    HW1 1292   9.754   6.505  14.469
99820SOL    HW2 1293   9.610   6.526  14.512
99821SOL     OW 1294   2.908   8.142  12.998
99821SOL    HW1 1295   2.890   8.052  12.971
99821SOL    HW2 1296   2.833   8.166  13.053
99822SOL     OW 1297   8.681   0.409  13.049
99822SOL    HW1 1298   8.612   0.363  13.002
99822SOL    HW2 1299   8.675   0.500  13.019
99823SOL     OW 1300  11.325  13.613  10.386
99823SOL    HW1 1301  11.237  13.596  10.352
99823SOL    HW2 1302  11.383  13.591  10.314
99824SOL     OW 1303   5.932   2.103  14.439
99824SOL    HW1 1304   5.923   2.184  14.491
99824SOL    HW2 1305   6.009   2.119  14.384
99825SOL     OW 1306   9.898   6.381  12.657
99825SOL    HW1 1307   9.810   6.402  12.687
99825SOL    HW2 1308   9.911   6.438  12.581
99826SOL     OW 1309   8.629   8.806  14.254
99826SOL    HW1 1310   8.641   8.717  14.220
99826SOL    HW2 1311   8.642   8.862  14.178
99827SOL     OW 1312   8.151   8.814   8.092
99827SOL    HW1 1313   8.246   8.823   8.099
99827SOL    HW2 1314   8.119   8.842   8.178
99828SOL     OW 1315   2.787   0.886   5.696
99828SOL    HW1 1316   2.713   0.827   5.711
99828SOL    HW2 1317   2.818   0.907   5.783
99829SOL     OW 1318  10.102   5.033  11.265
99829SOL    HW1 1319  10.052   4.964  11.223
99829SOL    HW2 1320  10.071   5.114  11.225
99830SOL     OW 1321   5.757   6.953   3.307
99830SOL    HW1 1322   5.720   7.003   3.234
99830SOL    HW2 1323   5.801   7.019   3.361
99831SOL     OW 1324   1.289   6.496  12.245
99831SOL    HW1 1325   1.302   6.585  12.213
99831SOL    HW2 1326   1.378   6.465  12.265
99832SOL     OW 1327   4.458  12.467   9.222
99832SOL    HW1 1328   4.401  12.519   9.279
99832SOL    HW2 1329   4.495  12.400   9.279
99833SOL     OW 1330   9.049   1.887   6.167
99833SOL    HW1 1331   9.087   1.810   6.126
99833SOL    HW2 1332   9.080   1.961   6.113
99834SOL     OW 1333   9.155   1.666   5.768
99834SOL    HW1 1334   9.185   1.721   5.841
99834SOL    HW2 1335   9.072   1.630   5.798
99835SOL     OW 1336  14.718   9.677   8.681
99835SOL    HW1 1337  14.706   9.687   8.776
99835SOL    HW2 1338  14.643   9.722   8.642
99836SOL     OW 1339  11.623   1.366  10.654
99836SOL    HW1 1340  11.694   1.427  10.634
99836SOL    HW2 1341  11.644   1.287  10.604
99837SOL     OW 1342   3.523  12.551   7.151
99837SOL    HW1 1343   3.463  12.552   7.077
99837SOL    HW2 1344   3.605  12.585   7.116
99838SOL     OW 1345  14.475   5.050   6.928
99838SOL    HW1 1346  14.518   5.034   6.843
99838SOL    HW2 1347  14.535   5.011   6.992
99839SOL     OW 1348   0.326   1.546   4.437
99839SOL    HW1 1349   0.241   1.504   4.426
99839SOL    HW2 1350   0.311   1.638   4.416
99840SOL     OW 1351   7.236   3.265   4.153
99840SOL    HW1 1352   7.316   3.302   4.191
99840SOL    HW2 1353   7.261   3.244   4.063
99841SOL     OW 1354   5.228   7.740   0.674
99841SOL    HW1 1355   5.238   7.750   0.769
99841SOL    HW2 1356   5.303   7.787   0.638
99842SOL     OW 1357   0.272  11.996  11.579
99842SOL    HW1 1358   0.318  11.913  11.567
99842SOL    HW2 1359   0.223  12.008  11.498
99843SOL     OW 1360   6.240  11.983   0.736
99843SOL    HW1 1361   6.260  12.074   0.713
99843SOL    HW2 1362   6.153  11.967   0.699
99844SOL     OW 1363  13.737  14.361  11.637
99844SOL    HW1 1364  13.729  14.444  11.685
99844SOL    HW2 1365  13.661  14.310  11.664
99845SOL     OW 1366   1.459  10.006  10.802
99845SOL    HW1 1367   1.399   9.972  10.736
99845SOL    HW2 1368   1.471   9.934  10.864
99846SOL     OW 1369   8.372  12.441   3.822
99846SOL    HW1 1370   8.396  12.487   3.902
99846SOL    HW2 1371   8.317  12.504   3.774
99847SOL     OW 1372   0.917   3.572  14.776
99847SOL    HW1 1373   0.992   3.575  14.835
99847SOL    HW2 1374   0.842   3.553  14.833
99848SOL     OW 1375  12.728  10.243   7.090
99848SOL    HW1 1376  12.673  10.232   7.168
99848SOL    HW2 1377  12.812  10.206   7.116
99849SOL     OW 1378   9.373   1.372  11.502
99849SOL    HW1 1379   9.468   1.378  11.517
99849SOL    HW2 1380   9.335   1.382  11.590
99850SOL     OW 1381   0.367  14.414  10.818
99850SOL    HW1 1382   0.422  14.389  10.891
99850SOL    HW2 1383   0.351  14.507  10.829
99851SOL     OW 1384   1.426   9.847   6.699
99851SOL    HW1 1385   1.348   9.794   6.684
99851SOL    HW2 1386   1.463   9.861   6.612
99852SOL     OW 1387   2.059   2.754   6.221
99852SOL    HW1 1388   2.052   2.838   6.174
99852SOL    HW2 1389   2.014   2.691   6.165
99853SOL     OW 1390   7.554   6.896   2.320
99853SOL    HW1 1391   7.543   6.810   2.279
99853SOL    HW2 1392   7.606   6.946   2.257
99854SOL     OW 1393   5.001  11.980   7.959
99854SOL    HW1 1394   4.949  11.905   7.988
99854SOL    HW2 1395   4.938  12.052   7.954
99855SOL     OW 1396   4.734   5.237  10.040
99855SOL    HW1 1397   4.797   5.171  10.070
99855SOL    HW2 1398   4.717   5.291  10.117
99856SOL     OW 1399   9.813   1.357   2.710
99856SOL    HW1 1400   9.865   1.359   2.629
99856SOL    HW2 1401   9.866   1.306   2.771
99857SOL     OW 1402  14.107  13.885   7.939
99857SOL    HW1 1403  14.119  13.909   7.847
99857SOL    HW2 1404  14.060  13.801   7.936
99858SOL     OW 1405   0.406  10.816   1.766
99858SOL    HW1 1406   0.355  10.892   1.796
99858SOL    HW2 1407   0.472  10.803   1.833
99859SOL     OW 1408   3.939   3.141   4.767
99859SOL    HW1 1409   3.919   3.230   4.795
99859SOL    HW2 1410   3.910   3.137   4.676
99860SOL     OW 1411  14.277   6.776   9.348
99860SOL    HW1 1412  14.340   6.844   9.371
99860SOL    HW2 1413  14.260   6.790   9.255
99861SOL     OW 1414   1.297   5.257  12.896
99861SOL    HW1 1415   1.209   5.239  12.864
99861SOL    HW2 1416   1.307   5.352  12.889
99862SOL     OW 1417   5.390   5.800  14.570
99862SOL    HW1 1418   5.422   5.855  14.499
99862SOL    HW2 1419   5.332   5.857  14.620
99863SOL     OW 1420   6.886   8.222   3.602
99863SOL    HW1 1421   6.953   8.287   3.625
99863SOL    HW2 1422   6.835   8.211   3.682
99864SOL     OW 1423   4.050   3.262  12.028
99864SOL    HW1 1424   4.084   3.246  12.116
99864SOL    HW2 1425   3.996   3.340  12.036
99865SOL     OW 1426  11.438   9.095   3.179
99865SOL    HW1 1427  11.374   9.057   3.239
99865SOL    HW2 1428  11.492   9.152   3.235
99866SOL     OW 1429   7.361  12.451  12.350
99866SOL    HW1 1430   7.426  12.474  12.417
99866SOL    HW2 1431   7.338  12.535  12.309
99867SOL     OW 1432   1.518  13.121   9.011
99867SOL    HW1 1433   1.612  13.119   8.998
99867SOL    HW2 1434   1.507  13.135   9.105
99868SOL     OW 1435  14.364   2.684   2.149
99868SOL    HW1 1436  14.394   2.596   2.126
99868SOL    HW2 1437  14.377   2.736   2.070
99869SOL     OW 1438  12.226  11.549   4.024
99869SOL    HW1 1439  12.239  11.627   4.078
99869SOL    HW2 1440  12.295  11.554   3.958
99870SOL     OW 1441   6.455  13.785  11.727
99870SOL    HW1 1442   6.499  13.815  11.647
99870SOL    HW2 1443   6.365  13.816  11.718
99871SOL     OW 1444  11.099   9.543  11.067
99871SOL    HW1 1445  11.157   9.526  11.142
99871SOL    HW2 1446  11.018   9.574  11.107
99872SOL     OW 1447   9.818   0.244   9.003
99872SOL    HW1 1448   9.769   0.326   9.002
99872SOL    HW2 1449   9.883   0.255   8.934
99873SOL     OW 1450   3.225   0.052  14.738
99873SOL    HW1 1451   3.304   0.085  14.694
99873SOL    HW2 1452   3.182  14.872  14.673
99874SOL     OW 1453   2.106   0.865   7.178
99874SOL    HW1 1454   2.147   0.921   7.243
99874SOL    HW2 1455   2.055   0.925   7.123
99875SOL     OW 1456   7.909  14.351  10.921
99875SOL    HW1 1457   7.875  14.334  11.009
99875SOL    HW2 1458   7.987  14.404  10.936
99876SOL     OW 1459   3.017   9.330   9.911
99876SOL    HW1 1460   3.040   9.255   9.857
99876SOL    HW2 1461   3.006   9.293   9.999
99877SOL     OW 1462   6.611   2.833   9.512
99877SOL    HW1 1463   6.517   2.854   9.509
99877SOL    HW2 1464   6.653   2.915   9.537
99878SOL     OW 1465   7.838  14.226   2.366
99878SOL    HW1 1466   7.859  14.207   2.457
99878SOL    HW2 1467   7.763  14.171   2.346
99879SOL     OW 1468   8.271   5.570  13.024
99879SOL    HW1 1469   8.204   5.602  13.085
99879SOL    HW2 1470   8.354   5.593  13.066
99880SOL     OW 1471   1.612  13.919  14.814
99880SOL    HW1 1472   1.665  13.986  14.771
99880SOL    HW2 1473   1.658  13.901   0.020
99881SOL     OW 1474   7.424   4.312  12.645
99881SOL    HW1 1475   7.406   4.234  12.592
99881SOL    HW2 1476   7.344   4.325  12.696
99882SOL     OW 1477   3.324  14.040   4.812
99882SOL    HW1 1478   3.321  14.134   4.792
99882SOL    HW2 1479   3.417  14.022   4.826
99883SOL     OW 1480  14.360   4.920   1.172
99883SOL    HW1 1481  14.272   4.882   1.167
99883SOL    HW2 1482  14.347   5.005   1.214
99884SOL     OW 1483  12.489  13.035   8.863
99884SOL    HW1 1484  12.554  13.065   8.927
99884SOL    HW2 1485  12.531  12.963   8.817
99885SOL     OW 1486  13.474  11.227  14.271
99885SOL    HW1 1487  13.471  11.270  14.185
99885SOL    HW2 1488  13.482  11.298  14.334
99886SOL     OW 1489   0.941  13.647  11.384
99886SOL    HW1 1490   0.878  13.579  11.361
99886SOL    HW2 1491   0.890  13.709  11.437
99887SOL     OW 1492   3.262   6.553   4.742
99887SOL    HW1 1493   3.303   6.491   4.682
99887SOL    HW2 1494   3.277   6.517   4.829
99888SOL     OW 1495   4.943   8.631   0.558
99888SOL    HW1 1496   4.907   8.676   0.482
99888SOL    HW2 1497   4.989   8.555   0.523
99889SOL     OW 1498   5.669  10.706  13.832
99889SOL    HW1 1499   5.588  10.689  13.785
99889SOL    HW2 1500   5.643  10.760  13.907
99890SOL     OW 1501   7.720  14.567   1.700
99890SOL    HW1 1502   7.678  14.482   1.691
99890SOL    HW2 1503   7.653  14.630   1.673
99891SOL     OW 1504   2.320  11.040   6.516
99891SOL    HW1 1505   2.257  11.091   6.567
99891SOL    HW2 1506   2.397  11.096   6.509
99892SOL     OW 1507   5.936  11.828   6.870
99892SOL    HW1 1508   5.908  11.736   6.871
99892SOL    HW2 1509   5.856  11.877   6.851
99893SOL     OW 1510   4.025  12.538  12.869
99893SOL    HW1 1511   4.093  12.499  12.923
99893SOL    HW2 1512   4.045  12.510  12.780
99894SOL     OW 1513   4.223  12.420   6.830
99894SOL    HW1 1514   4.128  12.426   6.823
99894SOL    HW2 1515   4.254  12.425   6.739
99895SOL     OW 1516   8.712   2.237  11.767
99895SOL    HW1 1517   8.769   2.267  11.696
99895SOL    HW2 1518   8.771   2.204  11.834
99896SOL     OW 1519  13.457   2.919   0.446
99896SOL    HW1 1520  13.466   2.979   0.521
99896SOL    HW2 1521  13.520   2.849   0.464
99897SOL     OW 1522   4.823   6.949   0.278
99897SOL    HW1 1523   4.822   6.955   0.183
99897SOL    HW2 1524   4.734   6.972   0.305
99898SOL     OW 1525   0.596  11.878   5.738
99898SOL    HW1 1526   0.572  11.785   5.739
99898SOL    HW2 1527   0.642  11.892   5.820
99899SOL     OW 1528   9.534   3.155   7.277
99899SOL    HW1 1529   9.445   3.119   7.276
99899SOL    HW2 1530   9.590   3.081   7.253
99900SOL     OW 1531   6.990   0.864   2.405
99900SOL    HW1 1532   6.998   0.768   2.396
99900SOL    HW2 1533   6.976   0.895   2.315
99901SOL     OW 1534   1.697   0.085   2.764
99901SOL    HW1 1535   1.740   0.062   2.846
99901SOL    HW2 1536   1.755   0.052   2.696
99902SOL     OW 1537   0.233   2.441   7.162
99902SOL    HW1 1538   0.181   2.450   7.082
99902SOL    HW2 1539   0.287   2.363   7.147
99903SOL     OW 1540  14.076  10.777  13.520
99903SOL    HW1 1541  14.033  10.692  13.524
99903SOL    HW2 1542  14.020  10.834  13.573
99904SOL     OW 1543   2.487  12.287   6.971
99904SOL    HW1 1544   2.508  12.314   7.060
99904SOL    HW2 1545   2.508  12.363   6.917
99905SOL     OW 1546   2.349   9.179   8.413
99905SOL    HW1 1547   2.376   9.260   8.457
99905SOL    HW2 1548   2.265   9.157   8.453
99906SOL     OW 1549  14.462   3.358   5.617
99906SOL    HW1 1550  14.514   3.400   5.549
99906SOL    HW2 1551  14.372   3.371   5.590
99907SOL     OW 1552   4.457   6.616  10.893
99907SOL    HW1 1553   4.552   6.613  10.906
99907SOL    HW2 1554   4.446   6.617  10.798
99908SOL     OW 1555   9.948   0.959   2.780
99908SOL    HW1 1556   9.974   0.868   2.765
99908SOL    HW2 1557   9.958   1.001   2.695
99909SOL     OW 1558  10.455  12.847   2.410
99909SOL    HW1 1559  10.466  12.756   2.437
99909SOL    HW2 1560  10.367  12.870   2.441
99910SOL     OW 1561   9.515  13.165   4.682
99910SOL    HW1 1562   9.455  13.198   4.748
99910SOL    HW2 1563   9.466  13.170   4.600
99911SOL     OW 1564  11.745  11.343   7.676
99911SOL    HW1 1565  11.738  11.380   7.588
99911SOL    HW2 1566  11.829  11.377   7.709
99912SOL     OW 1567  10.628   5.718   2.506
99912SOL    HW1 1568  10.547   5.745   2.549
99912SOL    HW2 1569  10.612   5.628   2.479
99913SOL     OW 1570   2.649   9.880  11.592
99913SOL    HW1 1571   2.675   9.792  11.565
99913SOL    HW2 1572   2.575   9.902  11.535
99914SOL     OW 1573   7.119   0.155  11.957
99914SOL    HW1 1574   7.174   0.227  11.926
99914SOL    HW2 1575   7.042   0.158  11.901
99915SOL     OW 1576   3.641   7.138   3.770
99915SOL    HW1 1577   3.604   7.075   3.708
99915SOL    HW2 1578   3.731   7.152   3.738
99916SOL     OW 1579   9.858   9.081   7.076
99916SOL    HW1 1580   9.795   9.153   7.076
99916SOL    HW2 1581   9.809   9.008   7.035
99917SOL     OW 1582   5.563   9.972   7.993
99917SOL    HW1 1583   5.539   9.996   8.083
99917SOL    HW2 1584   5.492   9.914   7.964
99918SOL     OW 1585   1.035   9.579   1.149
99918SOL    HW1 1586   1.071   9.667   1.155
99918SOL    HW2 1587   0.955   9.590   1.097
99919SOL     OW 1588   6.819  13.369   8.065
99919SOL    HW1 1589   6.736  13.389   8.107
99919SOL    HW2 1590   6.868  13.319   8.131
99920SOL     OW 1591  13.941   3.896   9.329
99920SOL    HW1 1592  13.921   3.911   9.236
99920SOL    HW2 1593  13.939   3.984   9.368
99921SOL     OW 1594   7.421  12.871  10.806
99921SOL    HW1 1595   7.329  12.874  10.835
99921SOL    HW2 1596   7.420  12.913  10.720
99922SOL     OW 1597   1.340  10.312   4.369
99922SOL    HW1 1598   1.266  10.255   4.392
99922SOL    HW2 1599   1.318  10.396   4.408
99923SOL     OW 1600   1.076   4.238   9.895
99923SOL    HW1 1601   1.156   4.190   9.914
99923SOL    HW2 1602   1.006   4.173   9.904
99924SOL     OW 1603   9.235   5.727   0.177
99924SOL    HW1 1604   9.203   5.646   0.217
99924SOL    HW2 1605   9.283   5.771   0.248
99925SOL     OW 1606  10.124  11.034   6.664
99925SOL    HW1 1607  10.170  11.008   6.744
99925SOL    HW2 1608  10.054  11.092   6.694
99926SOL     OW 1609   8.682   8.510   1.623
99926SOL    HW1 1610   8.688   8.455   1.545
99926SOL    HW2 1611   8.598   8.554   1.615
99927SOL     OW 1612   0.601  13.548   8.539
99927SOL    HW1 1613   0.681  13.499   8.521
99927SOL    HW2 1614   0.581  13.531   8.631
99928SOL     OW 1615   8.140   4.866   9.898
99928SOL    HW1 1616   8.180   4.780   9.889
99928SOL    HW2 1617   8.213   4.927   9.896
99929SOL     OW 1618  11.540  14.108   8.882
99929SOL    HW1 1619  11.502  14.173   8.824
99929SOL    HW2 1620  11.563  14.157   8.961
99930SOL     OW 1621   6.274   8.793  10.366
99930SOL    HW1 1622   6.179   8.781  10.357
99930SOL    HW2 1623   6.288   8.805  10.460
99931SOL     OW 1624  12.766   5.913   9.497
99931SOL    HW1 1625  12.740   5.842   9.439
99931SOL    HW2 1626  12.859   5.896   9.516
99932SOL     OW 1627   0.394   0.248  13.746
99932SOL    HW1 1628   0.472   0.200  13.719
99932SOL    HW2 1629   0.322   0.185  13.738
99933SOL     OW 1630  12.123   3.236  11.253
99933SOL    HW1 1631  12.198   3.290  11.229
99933SOL    HW2 1632  12.051   3.298  11.262
99934SOL     OW 1633   7.510   7.345  13.454
99934SOL    HW1 1634   7.594   7.329  13.497
99934SOL    HW2 1635   7.485   7.433  13.484
99935SOL     OW 1636   5.233   3.798   6.727
99935SOL    HW1 1637   5.214   3.817   6.635
99935SOL    HW2 1638   5.237   3.884   6.769
99936SOL     OW 1639  11.481  11.481   1.308
99936SOL    HW1 1640  11.430  11.430   1.370
99936SOL    HW2 1641  11.531  11.416   1.258
99937SOL     OW 1642   9.458  14.608  10.727
99937SOL    HW1 1643   9.453  14.611  10.632
99937SOL    HW2 1644   9.368  14.597  10.756
99938SOL     OW 1645   6.938   8.602   1.797
99938SOL    HW1 1646   6.856   8.652   1.799
99938SOL    HW2 1647   7.002   8.663   1.761
99939SOL     OW 1648  12.108  13.609   6.662
99939SOL    HW1 1649  12.137  13.669   6.593
99939SOL    HW2 1650  12.015  13.628   6.672
99940SOL     OW 1651   0.236   2.082   7.687
99940SOL    HW1 1652   0.265   2.076   7.778
99940SOL    HW2 1653   0.234   1.992   7.657
99941SOL     OW 1654  10.327   7.429   0.289
99941SOL    HW1 1655  10.327   7.338   0.259
99941SOL    HW2 1656  10.419   7.455   0.286
99942SOL     OW 1657  14.424  12.511   4.419
99942SOL    HW1 1658  14.394  12.443   4.480
99942SOL    HW2 1659  14.498  12.471   4.373
99943SOL     OW 1660  11.137  10.126   0.653
99943SOL    HW1 1661  11.071  10.070   0.613
99943SOL    HW2 1662  11.093  10.165   0.728
99944SOL     OW 1663   3.947   4.377   0.624
99944SOL    HW1 1664   4.022   4.370   0.684
99944SOL    HW2 1665   3.872   4.351   0.676
99945SOL     OW 1666  12.298   8.088   3.527
99945SOL    HW1 1667  12.292   8.128   3.614
99945SOL    HW2 1668  12.263   8.154   3.468
99946SOL     OW 1669   8.865   9.625  11.038
99946SOL    HW1 1670   8.936   9.625  11.102
99946SOL    HW2 1671   8.908   9.637  10.953
99947SOL     OW 1672   7.123   1.169   6.236
99947SOL    HW1 1673   7.192   1.132   6.181
99947SOL    HW2 1674   7.102   1.254   6.197
99948SOL     OW 1675  14.780   2.709   1.803
99948SOL    HW1 1676  14.722   2.676   1.871
99948SOL    HW2 1677  14.778   2.804   1.814
99949SOL     OW 1678   7.558   7.358  11.561
99949SOL    HW1 1679   7.555   7.453  11.572
99949SOL    HW2 1680   7.515   7.342  11.477
99950SOL     OW 1681   7.825   9.381  11.547
99950SOL    HW1 1682   7.832   9.474  11.528
99950SOL    HW2 1683   7.731   9.364  11.552
99951SOL     OW 1684   7.097   6.079   5.997
99951SOL    HW1 1685   7.060   6.160   6.031
99951SOL    HW2 1686   7.180   6.069   6.043
99952SOL     OW 1687   5.518   3.791   3.469
99952SOL    HW1 1688   5.499   3.815   3.560
99952SOL    HW2 1689   5.520   3.695   3.470
99953SOL     OW 1690   2.154   6.022   4.552
99953SOL    HW1 1691   2.164   6.115   4.574
99953SOL    HW2 1692   2.079   5.993   4.604
99954SOL     OW 1693   8.117   4.988  12.589
99954SOL    HW1 1694   8.162   4.986  12.674
99954SOL    HW2 1695   8.127   4.900  12.554
99955SOL     OW 1696   0.973   5.660  12.897
99955SOL    HW1 1697   1.016   5.744  12.913
99955SOL    HW2 1698   1.022   5.597  12.950
99956SOL     OW 1699   2.418  14.324   4.164
99956SOL    HW1 1700   2.330  14.296   4.136
99956SOL    HW2 1701   2.421  14.418   4.144
99957SOL     OW 1702   2.844  14.365   3.759
99957SOL    HW1 1703   2.792  14.297   3.801
99957SOL    HW2 1704   2.930  14.359   3.802
99958SOL     OW 1705   6.496   7.068   8.244
99958SOL    HW1 1706   6.406   7.073   8.277
99958SOL    HW2 1707   6.527   6.982   8.272
99959SOL     OW 1708  12.437  10.150   7.829
99959SOL    HW1 1709  12.406  10.155   7.920
99959SOL    HW2 1710  12.415  10.235   7.791
99960SOL     OW 1711   3.225   0.488   6.322
99960SOL    HW1 1712   3.272   0.464   6.402
99960SOL    HW2 1713   3.180   0.570   6.344
99961SOL     OW 1714   9.193   9.877   8.925
99961SOL    HW1 1715   9.237   9.911   9.003
99961SOL    HW2 1716   9.256   9.817   8.886
99962SOL     OW 1717   6.010   3.981  14.704
99962SOL    HW1 1718   5.963   4.046  14.651
99962SOL    HW2 1719   6.101   3.989  14.675
99963SOL     OW 1720   1.854   2.334   0.606
99963SOL    HW1 1721   1.790   2.264   0.592
99963SOL    HW2 1722   1.865   2.337   0.701
99964SOL     OW 1723   1.886   6.729   9.890
99964SOL    HW1 1724   1.813   6.760   9.945
99964SOL    HW2 1725   1.855   6.645   9.856
99965SOL     OW 1726   2.910  10.780   2.790
99965SOL    HW1 1727   2.869  10.725   2.856
99965SOL    HW2 1728   2.852  10.774   2.714
99966SOL     OW 1729  11.448   5.134   8.393
99966SOL    HW1 1730  11.507   5.106   8.463
99966SOL    HW2 1731  11.496   5.204   8.348
99967SOL     OW 1732   6.227  10.273  14.868
99967SOL    HW1 1733   6.176  10.309   0.064
99967SOL    HW2 1734   6.206  10.328  14.793
99968SOL     OW 1735   4.731  11.056  11.405
99968SOL    HW1 1736   4.729  11.151  11.417
99968SOL    HW2 1737   4.825  11.034  11.400
99969SOL     OW 1738   0.714   9.843  12.756
99969SOL    HW1 1739   0.785   9.858  12.818
99969SOL    HW2 1740   0.649   9.911  12.778
99970SOL     OW 1741  12.796  11.765   3.426
99970SOL    HW1 1742  12.853  11.841   3.412
99970SOL    HW2 1743  12.768  11.740   3.338
99971SOL     OW 1744  14.798  11.984  12.490
99971SOL    HW1 1745  14.850  11.964  12.412
99971SOL    HW2 1746  14.707  11.979  12.461
99972SOL     OW 1747   5.374  12.425   6.093
99972SOL    HW1 1748   5.359  12.421   5.999
99972SOL    HW2 1749   5.420  12.344   6.114
99973SOL     OW 1750   6.368  12.789  10.733
99973SOL    HW1 1751   6.296  12.849  10.713
99973SOL    HW2 1752   6.385  12.803  10.827
99974SOL     OW 1753  10.968  10.241  10.274
99974SOL    HW1 1754  10.959  10.146  10.265
99974SOL    HW2 1755  10.912  10.263  10.349
99975SOL     OW 1756  10.094   5.089   5.957
99975SOL    HW1 1757  10.136   5.055   5.878
99975SOL    HW2 1758  10.163   5.088   6.023
99976SOL     OW 1759  13.031   5.660   9.540
99976SOL    HW1 1760  13.020   5.608   9.620
99976SOL    HW2 1761  13.028   5.751   9.571
99977SOL     OW 1762  10.980   8.746   1.615
99977SOL    HW1 1763  10.897   8.764   1.571
99977SOL    HW2 1764  11.028   8.690   1.554
99978SOL     OW 1765   3.412   2.135   8.233
99978SOL    HW1 1766   3.457   2.052   8.244
99978SOL    HW2 1767   3.467   2.184   8.171
99979SOL     OW 1768  12.245   6.571  11.320
99979SOL    HW1 1769  12.224   6.640  11.382
99979SOL    HW2 1770  12.166   6.516  11.318
99980SOL     OW 1771   9.948  10.680  12.749
99980SOL    HW1 1772  10.030  10.649  12.787
99980SOL    HW2 1773   9.881  10.646  12.808
99981SOL     OW 1774   7.805  11.770   4.729
99981SOL    HW1 1775   7.835  11.686   4.695
99981SOL    HW2 1776   7.884  11.810   4.767
99982SOL     OW 1777   8.110   9.865   7.104
99982SOL    HW1 1778   8.041   9.925   7.131
99982SOL    HW2 1779   8.074   9.817   7.030
99983SOL     OW 1780   2.478  11.464   4.234
99983SOL    HW1 1781   2.513  11.525   4.299
99983SOL    HW2 1782   2.448  11.389   4.285
99984SOL     OW 1783   3.661   4.303  10.127
99984SOL    HW1 1784   3.576   4.325  10.091
99984SOL    HW2 1785   3.698   4.240  10.066
99985SOL     OW 1786   5.439   6.055   6.210
99985SOL    HW1 1787   5.369   6.101   6.255
99985SOL    HW2 1788   5.519   6.090   6.247
99986SOL     OW 1789   4.095  11.021   5.672
99986SOL    HW1 1790   4.043  10.962   5.726
99986SOL    HW2 1791   4.032  11.082   5.635
99987SOL     OW 1792  10.318   5.580   0.346
99987SOL    HW1 1793  10.286   5.549   0.431
99987SOL    HW2 1794  10.305   5.505   0.287
99988SOL     OW 1795   4.828   6.522   3.959
99988SOL    HW1 1796   4.808   6.494   3.869
99988SOL    HW2 1797   4.841   6.616   3.952
99989SOL     OW 1798  10.186   5.284   2.657
99989SOL    HW1 1799  10.211   5.212   2.716
99989SOL    HW2 1800  10.125   5.337   2.709
99990SOL     OW 1801  13.896   2.659  10.637
99990SOL    HW1 1802  13.828   2.593  10.654
99990SOL    HW2 1803  13.861   2.739  10.677
99991SOL     OW 1804  12.421  12.085   7.101
99991SOL    HW1 1805  12.327  12.104   7.101
99991SOL    HW2 1806  12.456  12.138   7.029
99992SOL     OW 1807  13.247   2.109   5.021
99992SOL    HW1 1808  13.236   2.185   4.963
99992SOL    HW2 1809  13.293   2.143   5.097
99993SOL     OW 1810  11.231   1.900  11.939
99993SOL    HW1 1811  11.310   1.845  11.942
99993SOL    HW2 1812  11.179   1.871  12.014
99994SOL     OW 1813   3.523   6.511   0.240
99994SOL    HW1 1814   3.513   6.442   0.174
99994SOL    HW2 1815   3.614   6.503   0.269
99995SOL     OW 1816   7.360   0.918  14.865
99995SOL    HW1 1817   7.415   0.843  14.840
99995SOL    HW2 1818   7.368   0.979  14.792
99996SOL     OW 1819   7.147   3.724  12.709
99996SOL    HW1 1820   7.189   3.659  12.652
99996SOL    HW2 1821   7.215   3.790  12.723
99997SOL     OW 1822   4.429   3.440  13.497
99997SOL    HW1 1823   4.379   3.489  13.431
99997SOL    HW2 1824   4.413   3.348  13.476
99998SOL     OW 1825   3.075   0.154   5.543
99998SOL    HW1 1826   3.012   0.153   5.472
99998SOL    HW2 1827   3.093   0.246   5.559
99999SOL     OW 1828   4.195  11.600  14.787
99999SOL    HW1 1829   4.222  11.689  14.811
99999SOL    HW2 1830   4.192  11.600  14.692
    0SOL     OW 1831   8.885   3.812   4.769
    0SOL    HW1 1832   8.935   3.884   4.807
    0SOL    HW2 1833   8.945   3.738   4.769
    1SOL     OW 1834   1.301   8.110   3.197
    1SOL    HW1 1835   1.282   8.054   3.122
    1SOL    HW2 1836   1.218   8.116   3.245
    2SOL     OW 1837   5.074   4.132   5.961
    2SOL    HW1 1838   5.065   4.142   5.866
    2SOL    HW2 1839   4.985   4.140   5.995
    3SOL     OW 1840  11.902   3.528   0.406
    3SOL    HW1 1841  11.846   3.564   0.475
    3SOL    HW2 1842  11.860   3.556   0.324
    4SOL     OW 1843   4.472  12.830  10.420
    4SOL    HW1 1844   4.549  12.775  10.432
    4SOL    HW2 1845   4.405  12.790  10.476
    5SOL     OW 1846  10.413   3.259   0.686
    5SOL    HW1 1847  10.389   3.167   0.697
    5SOL    HW2 1848  10.338   3.298   0.641
    6SOL     OW 1849   8.381   3.508  14.411
    6SOL    HW1 1850   8.407   3.439  14.472
    6SOL    HW2 1851   8.438   3.495  14.335
    7SOL     OW 1852   7.821  10.070   3.158
    7SOL    HW1 1853   7.874  10.085   3.236
    7SOL    HW2 1854   7.748  10.131   3.166
    8SOL     OW 1855   3.341  13.882   1.786
    8SOL    HW1 1856   3.246  13.881   1.798
    8SOL    HW2 1857   3.359  13.967   1.746
    9SOL     OW 1858   8.330   4.005  12.415
    9SOL    HW1 1859   8.345   4.055  12.496
    9SOL    HW2 1860   8.337   4.069  12.345
   10SOL     OW 1861  14.073  11.079   1.625
   10SOL    HW1 1862  14.149  11.025   1.649
   10SOL    HW2 1863  14.103  11.169   1.637
   11SOL     OW 1864   3.289  13.183  11.583
   11SOL    HW1 1865   3.287  13.140  11.668
   11SOL    HW2 1866   3.315  13.273  11.603
   12SOL     OW 1867   5.922   8.660   9.033
   12SOL    HW1 1868   5.936   8.566   9.042
   12SOL    HW2 1869   5.924   8.693   9.123
   13SOL     OW 1870   3.565   8.008  11.767
   13SOL    HW1 1871   3.484   7.966  11.793
   13SOL    HW2 1872   3.585   7.972  11.681
   14SOL     OW 1873   6.470   9.379   0.118
   14SOL    HW1 1874   6.434   9.363   0.205
   14SOL    HW2 1875   6.545   9.320   0.111
   15SOL     OW 1876   8.641   2.955  10.126
   15SOL    HW1 1877   8.735   2.974  10.119
   15SOL    HW2 1878   8.602   3.002  10.052
   16SOL     OW 1879  13.469   3.088   5.092
   16SOL    HW1 1880  13.459   3.182   5.081
   16SOL    HW2 1881  13.388   3.050   5.059
   17SOL     OW 1882   3.762  13.938   3.334
   17SOL    HW1 1883   3.673  13.976   3.337
   17SOL    HW2 1884   3.748  13.845   3.348
   18SOL     OW 1885  11.025   6.252   2.636
   18SOL    HW1 1886  10.951   6.252   2.696
   18SOL    HW2 1887  11.036   6.161   2.611
   19SOL     OW 1888  13.230  10.302   0.796
   19SOL    HW1 1889  13.149  10.348   0.773
   19SOL    HW2 1890  13.271  10.358   0.861
   20SOL     OW 1891  12.929   6.648   1.344
   20SOL    HW1 1892  13.004   6.628   1.288
   20SOL    HW2 1893  12.907   6.564   1.385
   21SOL     OW 1894   0.743  11.392   4.501
   21SOL    HW1 1895   0.773  11.396   4.592
   21SOL    HW2 1896   0.737  11.299   4.482
   22SOL     OW 1897   9.301   7.236  14.164
   22SOL    HW1 1898   9.338   7.205  14.081
   22SOL    HW2 1899   9.322   7.168  14.227
   23SOL     OW 1900   1.038   1.267   9.961
   23SOL    HW1 1901   0.980   1.197   9.988
   23SOL    HW2 1902   1.125   1.227   9.957
   24SOL     OW 1903   5.126  12.044   0.329
   24SOL    HW1 1904   5.074  11.967   0.351
   24SOL    HW2 1905   5.138  12.089   0.412
   25SOL     OW 1906  11.652  10.939   4.743
   25SOL    HW1 1907  11.671  11.031   4.727
   25SOL    HW2 1908  11.556  10.934   4.741
   26SOL     OW 1909   4.534   4.769   8.147
   26SOL    HW1 1910   4.482   4.818   8.212
   26SOL    HW2 1911   4.514   4.811   8.064
   27SOL     OW 1912  11.681   7.138   8.598
   27SOL    HW1 1913  11.723   7.052   8.599
   27SOL    HW2 1914  11.679   7.166   8.689
   28SOL     OW 1915   5.498  13.227   0.882
   28SOL    HW1 1916   5.446  13.275   0.817
   28SOL    HW2 1917   5.493  13.136   0.854
   29SOL     OW 1918  14.755  13.348   9.804
   29SOL    HW1 1919  14.786  13.275   9.859
   29SOL    HW2 1920  14.762  13.315   9.715
   30SOL     OW 1921  12.503   2.758  12.897
   30SOL    HW1 1922  12.456   2.773  12.816
   30SOL    HW2 1923  12.447   2.795  12.965
   31SOL     OW 1924  14.866  12.565  12.004
   31SOL    HW1 1925  14.799  12.581  11.938
   31SOL    HW2 1926  14.818  12.561  12.086
   32SOL     OW 1927   4.884   0.141   6.864
   32SOL    HW1 1928   4.919   0.067   6.913
   32SOL    HW2 1929   4.805   0.166   6.911
   33SOL     OW 1930   0.509   3.547   5.841
   33SOL    HW1 1931   0.447   3.615   5.867
   33SOL    HW2 1932   0.527   3.499   5.922
   34SOL     OW 1933   0.576   8.806   6.629
   34SOL    HW1 1934   0.596   8.898   6.644
   34SOL    HW2 1935   0.653   8.771   6.584
   35SOL     OW 1936   2.934  11.111   1.862
   35SOL    HW1 1937   2.954  11.017   1.853
   35SOL    HW2 1938   2.988  11.140   1.935
   36SOL     OW 1939   2.676   9.175  12.123
   36SOL    HW1 1940   2.673   9.084  12.150
   36SOL    HW2 1941   2.584   9.203  12.124
   37SOL     OW 1942   1.020  13.472   1.780
   37SOL    HW1 1943   1.066  13.407   1.727
   37SOL    HW2 1944   1.065  13.555   1.761
   38SOL     OW 1945  14.575   2.752   2.967
   38SOL    HW1 1946  14.660   2.710   2.982
   38SOL    HW2 1947  14.524   2.686   2.920
   39SOL     OW 1948   6.952   4.191   8.952
   39SOL    HW1 1949   6.924   4.198   9.043
   39SOL    HW2 1950   6.976   4.281   8.927
   40SOL     OW 1951  14.123   5.071  14.204
   40SOL    HW1 1952  14.108   5.009  14.275
   40SOL    HW2 1953  14.188   5.132  14.238
   41SOL     OW 1954   3.592  12.524   2.547
   41SOL    HW1 1955   3.579  12.526   2.642
   41SOL    HW2 1956   3.686  12.510   2.536
   42SOL     OW 1957  11.456   4.278   3.085
   42SOL    HW1 1958  11.412   4.362   3.073
   42SOL    HW2 1959  11.449   4.260   3.179
   43SOL     OW 1960  12.215   5.530   1.623
   43SOL    HW1 1961  12.121   5.523   1.606
   43SOL    HW2 1962  12.235   5.455   1.679
   44SOL     OW 1963   9.740   2.299   4.684
   44SOL    HW1 1964   9.823   2.251   4.675
   44SOL    HW2 1965   9.751   2.350   4.765
   45SOL     OW 1966   7.119   4.170  14.454
   45SOL    HW1 1967   7.169   4.102  14.499
   45SOL    HW2 1968   7.038   4.177  14.504
   46SOL     OW 1969   6.528   8.409   5.995
   46SOL    HW1 1970   6.456   8.421   6.058
   46SOL    HW2 1971   6.517   8.481   5.933
   47SOL     OW 1972  14.265  12.572   6.368
   47SOL    HW1 1973  14.340  12.631   6.372
   47SOL    HW2 1974  14.292  12.494   6.417
   48SOL     OW 1975  12.341   1.517  11.973
   48SOL    HW1 1976  12.254   1.556  11.963
   48SOL    HW2 1977  12.327   1.423  11.966
   49SOL     OW 1978   5.224  14.657   0.306
   49SOL    HW1 1979   5.278  14.586   0.342
   49SOL    HW2 1980   5.134  14.628   0.321
   50SOL     OW 1981   8.763   4.463   0.440
   50SOL    HW1 1982   8.812   4.533   0.483
   50SOL    HW2 1983   8.673   4.495   0.436
   51SOL     OW 1984   2.965   9.141   6.280
   51SOL    HW1 1985   3.030   9.147   6.349
   51SOL    HW2 1986   2.984   9.216   6.222
   52SOL     OW 1987   3.892   0.448   0.345
   52SOL    HW1 1988   3.829   0.455   0.417
   52SOL    HW2 1989   3.845   0.403   0.275
   53SOL     OW 1990   0.469   9.125   5.505
   53SOL    HW1 1991   0.460   9.148   5.412
   53SOL    HW2 1992   0.550   9.074   5.508
   54SOL     OW 1993   9.786   0.061   5.127
   54SOL    HW1 1994   9.800  14.870   5.060
   54SOL    HW2 1995   9.865   0.058   5.181
   55SOL     OW 1996   5.013   5.343  13.291
   55SOL    HW1 1997   5.027   5.438  13.290
   55SOL    HW2 1998   4.955   5.327  13.217
   56SOL     OW 1999  13.503   9.282   2.195
   56SOL    HW1 2000  13.507   9.285   2.291
   56SOL    HW2 2001  13.500   9.374   2.169
   57SOL     OW 2002   6.217  12.014   7.184
   57SOL    HW1 2003   6.178  12.029   7.098
   57SOL    HW2 2004   6.177  12.079   7.241
   58SOL     OW 2005   9.356   1.861   5.846
   58SOL    HW1 2006   9.424   1.920   5.880
   58SOL    HW2 2007   9.355   1.877   5.752
   59SOL     OW 2008   2.390   3.933  10.934
   59SOL    HW1 2009   2.437   3.869  10.881
   59SOL    HW2 2010   2.442   4.014  10.925
   60SOL     OW 2011   0.712  10.478   1.632
   60SOL    HW1 2012   0.689  10.570   1.618
   60SOL    HW2 2013   0.638  10.442   1.681
   61SOL     OW 2014   4.451  13.604  10.870
   61SOL    HW1 2015   4.541  13.587  10.841
   61SOL    HW2 2016   4.397  13.572  10.798
   62SOL     OW 2017  12.191   4.580  13.487
   62SOL    HW1 2018  12.244   4.501  13.482
   62SOL    HW2 2019  12.113   4.560  13.435
   63SOL     OW 2020   1.392  14.128   6.640
   63SOL    HW1 2021   1.439  14.189   6.697
   63SOL    HW2 2022   1.386  14.047   6.690
   64SOL     OW 2023   5.071  13.853   9.737
   64SOL    HW1 2024   4.997  13.897   9.694
   64SOL    HW2 2025   5.129  13.924   9.765
   65SOL     OW 2026   3.764   0.975  11.318
   65SOL    HW1 2027   3.680   0.994  11.277
   65SOL    HW2 2028   3.747   0.900  11.375
   66SOL     OW 2029   5.550   8.405  10.726
   66SOL    HW1 2030   5.566   8.325  10.676
   66SOL    HW2 2031   5.501   8.461  10.666
   67SOL     OW 2032   2.518   1.780  12.406
   67SOL    HW1 2033   2.583   1.790  12.475
   67SOL    HW2 2034   2.465   1.860  12.411
   68SOL     OW 2035  13.770   6.431   5.517
   68SOL    HW1 2036  13.781   6.367   5.587
   68SOL    HW2 2037  13.849   6.485   5.521
   69SOL     OW 2038   6.469  13.224   5.702
   69SOL    HW1 2039   6.460  13.136   5.738
   69SOL    HW2 2040   6.493  13.211   5.611
   70SOL     OW 2041   8.816   2.206  14.390
   70SOL    HW1 2042   8.865   2.253  14.458
   70SOL    HW2 2043   8.816   2.265  14.315
   71SOL     OW 2044   5.645   7.385   3.076
   71SOL    HW1 2045   5.712   7.452   3.067
   71SOL    HW2 2046   5.566   7.424   3.038
   72SOL     OW 2047   6.834   2.783   6.276
   72SOL    HW1 2048   6.790   2.865   6.253
   72SOL    HW2 2049   6.768   2.732   6.323
   73SOL     OW 2050   1.390   0.012   6.449
   73SOL    HW1 2051   1.434  14.856   6.370
   73SOL    HW2 2052   1.306   0.046   6.418
   74SOL     OW 2053   1.764  11.388   0.807
   74SOL    HW1 2054   1.682  11.343   0.828
   74SOL    HW2 2055   1.736  11.468   0.762
   75SOL     OW 2056   3.309   2.833  14.513
   75SOL    HW1 2057   3.353   2.773  14.573
   75SOL    HW2 2058   3.380   2.887  14.478
   76SOL     OW 2059   6.786   7.113   0.684
   76SOL    HW1 2060   6.782   7.160   0.601
   76SOL    HW2 2061   6.706   7.139   0.730
   77SOL     OW 2062   6.191   1.056  10.266
   77SOL    HW1 2063   6.160   1.037  10.354
   77SOL    HW2 2064   6.279   1.018  10.263
   78SOL     OW 2065  13.224   2.372  12.037
   78SOL    HW1 2066  13.281   2.372  11.960
   78SOL    HW2 2067  13.222   2.464  12.065
   79SOL     OW 2068  11.668   3.216   0.123
   79SOL    HW1 2069  11.604   3.232   0.192
   79SOL    HW2 2070  11.661   3.122   0.105
   80SOL     OW 2071   5.997   4.365   9.026
   80SOL    HW1 2072   5.927   4.430   9.035
   80SOL    HW2 2073   5.951   4.281   9.023
   81SOL     OW 2074  10.606  14.611   4.960
   81SOL    HW1 2075  10.654  14.677   4.910
   81SOL    HW2 2076  10.540  14.578   4.898
   82SOL     OW 2077  11.125  14.474   1.358
   82SOL    HW1 2078  11.129  14.479   1.454
   82SOL    HW2 2079  11.043  14.429   1.340
   83SOL     OW 2080   8.363   4.050  12.694
   83SOL    HW1 2081   8.444   4.097  12.712
   83SOL    HW2 2082   8.376   3.963  12.732
   84SOL     OW 2083  10.000   8.453   1.776
   84SOL    HW1 2084   9.919   8.502   1.762
   84SOL    HW2 2085  10.051   8.507   1.837
   85SOL     OW 2086   7.486   2.985  13.470
   85SOL    HW1 2087   7.502   3.072  13.433
   85SOL    HW2 2088   7.560   2.932  13.440
   86SOL     OW 2089   5.532   1.149   1.498
   86SOL    HW1 2090   5.611   1.158   1.551
   86SOL    HW2 2091   5.478   1.087   1.546
   87SOL     OW 2092   4.354   9.347   6.231
   87SOL    HW1 2093   4.311   9.429   6.209
   87SOL    HW2 2094   4.292   9.301   6.287
   88SOL     OW 2095   1.177  11.828  14.346
   88SOL    HW1 2096   1.234  11.836  14.269
   88SOL    HW2 2097   1.231  11.860  14.419
   89SOL     OW 2098   5.411   7.144   7.769
   89SOL    HW1 2099   5.443   7.144   7.679
   89SOL    HW2 2100   5.483   7.181   7.820
   90SOL     OW 2101   4.172   3.527   5.618
   90SOL    HW1 2102   4.223   3.570   5.550
   90SOL    HW2 2103   4.136   3.448   5.576
   91SOL     OW 2104   4.310   9.028  11.616
   91SOL    HW1 2105   4.377   8.983  11.667
   91SOL    HW2 2106   4.271   9.091  11.677
   92SOL     OW 2107  13.097  10.100   7.535
   92SOL    HW1 2108  13.015  10.051   7.529
   92SOL    HW2 2109  13.165  10.033   7.537
   93SOL     OW 2110  10.504  10.837   8.269
   93SOL    HW1 2111  10.479  10.789   8.348
   93SOL    HW2 2112  10.577  10.787   8.232
   94SOL     OW 2113   7.454   4.286  13.515
   94SOL    HW1 2114   7.516   4.329  13.456
   94SOL    HW2 2115   7.463   4.193  13.496
   95SOL     OW 2116   2.214   5.104   2.490
   95SOL    HW1 2117   2.204   5.015   2.522
   95SOL    HW2 2118   2.307   5.123   2.501
   96SOL     OW 2119   7.660   1.146  13.296
   96SOL    HW1 2120   7.708   1.076  13.252
   96SOL    HW2 2121   7.645   1.114  13.385
   97SOL     OW 2122  11.949   5.458  11.600
   97SOL    HW1 2123  11.970   5.552  11.602
   97SOL    HW2 2124  11.979   5.429  11.514
   98SOL     OW 2125  11.047  14.510  10.682
   98SOL    HW1 2126  11.007  14.423  10.689
   98SOL    HW2 2127  11.052  14.541  10.773
   99SOL     OW 2128  10.858   2.859   1.592
   99SOL    HW1 2129  10.848   2.942   1.545
   99SOL    HW2 2130  10.944   2.827   1.566
  100SOL     OW 2131   4.914   1.577   5.491
  100SOL    HW1 2132   4.995   1.608   5.532
  100SOL    HW2 2133   4.867   1.657   5.467
  101SOL     OW 2134   8.949   3.904   8.127
  101SOL    HW1 2135   8.920   3.943   8.045
  101SOL    HW2 2136   9.019   3.961   8.157
  102SOL     OW 2137   8.384   9.627   9.366
  102SOL    HW1 2138   8.299   9.618   9.409
  102SOL    HW2 2139   8.399   9.722   9.364
  103SOL     OW 2140  14.553   6.758   6.202
  103SOL    HW1 2141  14.514   6.675   6.175
  103SOL    HW2 2142  14.641   6.757   6.165
  104SOL     OW 2143   2.995  10.334   5.128
  104SOL    HW1 2144   3.017  10.373   5.213
  104SOL    HW2 2145   3.075  10.342   5.076
  105SOL     OW 2146   3.080  13.074   4.211
  105SOL    HW1 2147   3.170  13.062   4.181
  105SOL    HW2 2148   3.085  13.076   4.306
  106SOL     OW 2149   4.612   7.772   0.639
  106SOL    HW1 2150   4.669   7.698   0.659
  106SOL    HW2 2151   4.636   7.840   0.702
  107SOL     OW 2152   3.297   1.778   8.680
  107SOL    HW1 2153   3.371   1.820   8.725
  107SOL    HW2 2154   3.222   1.798   8.736
  108SOL     OW 2155   6.234   9.526   9.672
  108SOL    HW1 2156   6.318   9.487   9.648
  108SOL    HW2 2157   6.222   9.504   9.764
  109SOL     OW 2158   6.207   2.329   5.951
  109SOL    HW1 2159   6.148   2.332   6.026
  109SOL    HW2 2160   6.150   2.320   5.875
  110SOL     OW 2161   8.301   3.745   0.282
  110SOL    HW1 2162   8.340   3.722   0.198
  110SOL    HW2 2163   8.356   3.701   0.347
  111SOL     OW 2164   9.166   8.035   5.048
  111SOL    HW1 2165   9.084   8.064   5.008
  111SOL    HW2 2166   9.193   8.108   5.104
  112SOL     OW 2167   6.308  10.091  12.296
  112SOL    HW1 2168   6.336  10.066  12.384
  112SOL    HW2 2169   6.215  10.113  12.305
  113SOL     OW 2170   1.438   1.603  13.500
  113SOL    HW1 2171   1.458   1.520  13.544
  113SOL    HW2 2172   1.408   1.578  13.413
  114SOL     OW 2173   1.707   1.799   8.800
  114SOL    HW1 2174   1.622   1.827   8.764
  114SOL    HW2 2175   1.742   1.739   8.734
  115SOL     OW 2176  13.966   1.339  11.933
  115SOL    HW1 2177  13.964   1.258  11.883
  115SOL    HW2 2178  14.001   1.313  12.019
  116SOL     OW 2179   1.009   1.154  12.830
  116SOL    HW1 2180   1.079   1.159  12.765
  116SOL    HW2 2181   1.054   1.159  12.914
  117SOL     OW 2182  12.634   8.118   4.574
  117SOL    HW1 2183  12.550   8.090   4.539
  117SOL    HW2 2184  12.669   8.179   4.509
  118SOL     OW 2185   7.922  12.231   3.099
  118SOL    HW1 2186   8.012  12.206   3.081
  118SOL    HW2 2187   7.872  12.191   3.028
  119SOL     OW 2188   2.012   6.124   5.680
  119SOL    HW1 2189   1.937   6.149   5.734
  119SOL    HW2 2190   2.029   6.033   5.702
  120SOL     OW 2191  11.530  14.340  11.769
  120SOL    HW1 2192  11.439  14.363  11.785
  120SOL    HW2 2193  11.525  14.261  11.715
  121SOL     OW 2194   2.176  10.376  10.540
  121SOL    HW1 2195   2.104  10.312  10.545
  121SOL    HW2 2196   2.176  10.418  10.627
  122SOL     OW 2197  13.608   0.130  12.861
  122SOL    HW1 2198  13.526   0.122  12.910
  122SOL    HW2 2199  13.649   0.209  12.896
  123SOL     OW 2200   8.122  10.734   1.219
  123SOL    HW1 2201   8.201  10.706   1.172
  123SOL    HW2 2202   8.155  10.787   1.292
  124SOL     OW 2203  13.304  14.472  10.466
  124SOL    HW1 2204  13.327  14.565  10.468
  124SOL    HW2 2205  13.336  14.437  10.549
  125SOL     OW 2206   9.139  10.438   5.140
  125SOL    HW1 2207   9.075  10.407   5.076
  125SOL    HW2 2208   9.162  10.526   5.111
  126SOL     OW 2209  13.520   3.402  13.962
  126SOL    HW1 2210  13.576   3.460  13.910
  126SOL    HW2 2211  13.433   3.413  13.923
  127SOL     OW 2212  13.376   4.216  10.824
  127SOL    HW1 2213  13.395   4.292  10.880
  127SOL    HW2 2214  13.319   4.161  10.877
  128SOL     OW 2215   1.184  10.825  13.826
  128SOL    HW1 2216   1.121  10.813  13.755
  128SOL    HW2 2217   1.139  10.879  13.890
  129SOL     OW 2218   0.605  13.444   6.080
  129SOL    HW1 2219   0.696  13.420   6.095
  129SOL    HW2 2220   0.599  13.458   5.985
  130SOL     OW 2221   6.522   1.131  10.159
  130SOL    HW1 2222   6.488   1.053  10.204
  130SOL    HW2 2223   6.593   1.162  10.216
  131SOL     OW 2224   3.268   8.628  10.298
  131SOL    HW1 2225   3.285   8.648  10.390
  131SOL    HW2 2226   3.255   8.533  10.296
  132SOL     OW 2227   8.343  13.563  11.959
  132SOL    HW1 2228   8.396  13.553  12.038
  132SOL    HW2 2229   8.253  13.572  11.990
  133SOL     OW 2230   8.057  13.806   0.869
  133SOL    HW1 2231   8.030  13.845   0.786
  133SOL    HW2 2232   8.006  13.852   0.935
  134SOL     OW 2233   2.762  11.129  10.969
  134SOL    HW1 2234   2.760  11.223  10.950
  134SOL    HW2 2235   2.689  11.093  10.919
  135SOL     OW 2236  12.004   8.855   6.544
  135SOL    HW1 2237  11.943   8.812   6.484
  135SOL    HW2 2238  12.091   8.840   6.506
  136SOL     OW 2239   4.642   4.399   6.310
  136SOL    HW1 2240   4.571   4.462   6.325
  136SOL    HW2 2241   4.692   4.436   6.237
  137SOL     OW 2242   8.341   0.811   6.610
  137SOL    HW1 2243   8.380   0.892   6.577
  137SOL    HW2 2244   8.414   0.750   6.617
  138SOL     OW 2245  14.443   0.380  11.984
  138SOL    HW1 2246  14.381   0.378  11.911
  138SOL    HW2 2247  14.503   0.452  11.963
  139SOL     OW 2248  12.040   1.589   3.619
  139SOL    HW1 2249  11.958   1.615   3.661
  139SOL    HW2 2250  12.082   1.530   3.682
  140SOL     OW 2251  11.039   8.534   2.250
  140SOL    HW1 2252  11.061   8.456   2.302
  140SOL    HW2 2253  11.055   8.608   2.309
  141SOL     OW 2254   2.621   9.075   8.096
  141SOL    HW1 2255   2.551   9.057   8.159
  141SOL    HW2 2256   2.607   9.010   8.026
  142SOL     OW 2257  13.275   6.418   4.146
  142SOL    HW1 2258  13.195   6.390   4.100
  142SOL    HW2 2259  13.344   6.362   4.111
  143SOL     OW 2260   2.308  14.843   1.984
  143SOL    HW1 2261   2.232   0.023   1.970
  143SOL    HW2 2262   2.382   0.027   1.992
  144SOL     OW 2263   8.351  11.289  13.643
  144SOL    HW1 2264   8.389  11.307  13.729
  144SOL    HW2 2265   8.375  11.198  13.624
  145SOL     OW 2266   0.442   5.530   1.837
  145SOL    HW1 2267   0.488   5.448   1.853
  145SOL    HW2 2268   0.473   5.559   1.751
  146SOL     OW 2269  14.279  13.552  10.536
  146SOL    HW1 2270  14.249  13.643  10.527
  146SOL    HW2 2271  14.312  13.546  10.625
  147SOL     OW 2272   6.029   8.002   0.566
  147SOL    HW1 2273   6.039   7.922   0.618
  147SOL    HW2 2274   5.971   7.977   0.495
  148SOL     OW 2275  12.016   8.289   6.745
  148SOL    HW1 2276  11.976   8.224   6.805
  148SOL    HW2 2277  12.104   8.255   6.729
  149SOL     OW 2278   4.595  11.911   9.877
  149SOL    HW1 2279   4.627  11.821   9.871
  149SOL    HW2 2280   4.668  11.964   9.845
  150SOL     OW 2281  13.869   9.757   7.518
  150SOL    HW1 2282  13.824   9.774   7.435
  150SOL    HW2 2283  13.940   9.821   7.520
  151SOL     OW 2284   7.244   5.270   1.245
  151SOL    HW1 2285   7.257   5.354   1.290
  151SOL    HW2 2286   7.200   5.293   1.163
  152SOL     OW 2287   0.604   0.103  11.573
  152SOL    HW1 2288   0.606   0.150  11.489
  152SOL    HW2 2289   0.511   0.092  11.593
  153SOL     OW 2290  13.313   1.884   2.430
  153SOL    HW1 2291  13.235   1.915   2.476
  153SOL    HW2 2292  13.292   1.795   2.403
  154SOL     OW 2293   7.148   2.699   4.027
  154SOL    HW1 2294   7.142   2.779   4.079
  154SOL    HW2 2295   7.157   2.629   4.092
  155SOL     OW 2296   3.216   7.397   9.841
  155SOL    HW1 2297   3.167   7.450   9.904
  155SOL    HW2 2298   3.306   7.399   9.873
  156SOL     OW 2299   6.528   4.236   9.299
  156SOL    HW1 2300   6.584   4.181   9.244
  156SOL    HW2 2301   6.476   4.174   9.350
  157SOL     OW 2302   0.260  13.003   0.848
  157SOL    HW1 2303   0.320  13.071   0.880
  157SOL    HW2 2304   0.284  12.925   0.897
  158SOL     OW 2305   1.545   0.718   3.189
  158SOL    HW1 2306   1.585   0.780   3.250
  158SOL    HW2 2307   1.551   0.761   3.103
  159SOL     OW 2308   8.354   8.169   3.097
  159SOL    HW1 2309   8.386   8.246   3.145
  159SOL    HW2 2310   8.432   8.116   3.082
  160SOL     OW 2311  14.199   4.344   4.191
  160SOL    HW1 2312  14.154   4.359   4.274
  160SOL    HW2 2313  14.289   4.324   4.216
  161SOL     OW 2314  11.781   1.374  14.113
  161SOL    HW1 2315  11.735   1.302  14.070
  161SOL    HW2 2316  11.842   1.407  14.047
  162SOL     OW 2317   9.621  13.634  13.748
  162SOL    HW1 2318   9.706  13.598  13.772
  162SOL    HW2 2319   9.636  13.680  13.666
  163SOL     OW 2320   6.541  13.229   9.922
  163SOL    HW1 2321   6.511  13.317   9.901
  163SOL    HW2 2322   6.479  13.171   9.876
  164SOL     OW 2323   9.593   6.787  10.370
  164SOL    HW1 2324   9.675   6.828  10.344
  164SOL    HW2 2325   9.601   6.773  10.464
  165SOL     OW 2326   3.398   3.656  10.657
  165SOL    HW1 2327   3.465   3.660  10.589
  165SOL    HW2 2328   3.408   3.569  10.696
  166SOL     OW 2329   1.807   1.952   0.400
  166SOL    HW1 2330   1.769   2.007   0.331
  166SOL    HW2 2331   1.778   1.993   0.482
  167SOL     OW 2332  12.425   6.921  14.096
  167SOL    HW1 2333  12.458   6.840  14.057
  167SOL    HW2 2334  12.503   6.963  14.132
  168SOL     OW 2335   6.639   6.227   5.396
  168SOL    HW1 2336   6.577   6.157   5.378
  168SOL    HW2 2337   6.602   6.274   5.471
  169SOL     OW 2338  11.502   9.037   6.109
  169SOL    HW1 2339  11.459   9.042   6.024
  169SOL    HW2 2340  11.529   8.945   6.118
  170SOL     OW 2341   3.487  10.115   9.131
  170SOL    HW1 2342   3.465  10.056   9.059
  170SOL    HW2 2343   3.505  10.199   9.089
  171SOL     OW 2344   4.577   2.284   6.293
  171SOL    HW1 2345   4.651   2.295   6.353
  171SOL    HW2 2346   4.537   2.371   6.287
  172SOL     OW 2347   6.807  11.389   0.307
  172SOL    HW1 2348   6.786  11.439   0.386
  172SOL    HW2 2349   6.826  11.456   0.241
  173SOL     OW 2350  13.871  11.548   2.948
  173SOL    HW1 2351  13.844  11.538   2.857
  173SOL    HW2 2352  13.798  11.512   2.999
  174SOL     OW 2353   8.779   3.001   6.211
  174SOL    HW1 2354   8.848   2.935   6.220
  174SOL    HW2 2355   8.711   2.958   6.159
  175SOL     OW 2356   2.860   0.805  12.488
  175SOL    HW1 2357   2.924   0.750  12.443
  175SOL    HW2 2358   2.852   0.882  12.433
  176SOL     OW 2359   3.390   5.681   8.325
  176SOL    HW1 2360   3.325   5.698   8.257
  176SOL    HW2 2361   3.415   5.590   8.312
  177SOL     OW 2362   9.376   6.462  11.653
  177SOL    HW1 2363   9.332   6.547  11.655
  177SOL    HW2 2364   9.305   6.398  11.653
  178SOL     OW 2365  12.517  13.743   7.216
  178SOL    HW1 2366  12.605  13.726   7.247
  178SOL    HW2 2367  12.462  13.683   7.267
  179SOL     OW 2368   6.774   3.575   4.530
  179SOL    HW1 2369   6.815   3.597   4.614
  179SOL    HW2 2370   6.793   3.651   4.475
  180SOL     OW 2371  10.717   8.226   3.672
  180SOL    HW1 2372  10.737   8.132   3.674
  180SOL    HW2 2373  10.707   8.250   3.764
  181SOL     OW 2374   1.672  10.676  12.992
  181SOL    HW1 2375   1.628  10.757  12.965
  181SOL    HW2 2376   1.763  10.702  13.005
  182SOL     OW 2377   2.443   8.011   3.583
  182SOL    HW1 2378   2.396   7.964   3.513
  182SOL    HW2 2379   2.389   8.088   3.601
  183SOL     OW 2380  12.629   7.131  14.698
  183SOL    HW1 2381  12.588   7.178  14.770
  183SOL    HW2 2382  12.597   7.041  14.707
  184SOL     OW 2383  13.784   8.478   3.075
  184SOL    HW1 2384  13.853   8.494   3.139
  184SOL    HW2 2385  13.785   8.554   3.018
  185SOL     OW 2386   3.384   8.569   0.648
  185SOL    HW1 2387   3.385   8.603   0.737
  185SOL    HW2 2388   3.293   8.542   0.633
  186SOL     OW 2389  12.881  13.955  10.032
  186SOL    HW1 2390  12.883  13.914   9.946
  186SOL    HW2 2391  12.972  13.954  10.061
  187SOL     OW 2392   0.328  11.121   0.836
  187SOL    HW1 2393   0.410  11.121   0.787
  187SOL    HW2 2394   0.285  11.202   0.812
  188SOL     OW 2395  12.754   1.441   9.641
  188SOL    HW1 2396  12.795   1.415   9.724
  188SOL    HW2 2397  12.828   1.459   9.583
  189SOL     OW 2398  10.895   6.988   5.203
  189SOL    HW1 2399  10.940   6.925   5.259
  189SOL    HW2 2400  10.950   6.995   5.125
  190SOL     OW 2401   3.192  10.038   7.012
  190SOL    HW1 2402   3.268   9.984   7.035
  190SOL    HW2 2403   3.202  10.055   6.919
  191SOL     OW 2404   9.986   4.113   5.695
  191SOL    HW1 2405   9.902   4.159   5.689
  191SOL    HW2 2406  10.052   4.181   5.679
  192SOL     OW 2407   8.393  12.823   6.468
  192SOL    HW1 2408   8.349  12.774   6.399
  192SOL    HW2 2409   8.350  12.909   6.466
  193SOL     OW 2410   4.753   9.773   9.414
  193SOL    HW1 2411   4.674   9.734   9.453
  193SOL    HW2 2412   4.795   9.700   9.367
  194SOL     OW 2413   4.950   6.022   4.648
  194SOL    HW1 2414   4.976   6.061   4.564
  194SOL    HW2 2415   4.997   6.073   4.714
  195SOL     OW 2416   8.427   8.253   5.608
  195SOL    HW1 2417   8.513   8.253   5.650
  195SOL    HW2 2418   8.377   8.186   5.655
  196SOL     OW 2419   3.746   1.427  11.624
  196SOL    HW1 2420   3.711   1.349  11.582
  196SOL    HW2 2421   3.713   1.500  11.571
  197SOL     OW 2422   8.071   9.717   8.295
  197SOL    HW1 2423   7.982   9.749   8.278
  197SOL    HW2 2424   8.115   9.791   8.337
  198SOL     OW 2425   7.133   0.593   6.953
  198SOL    HW1 2426   7.227   0.608   6.964
  198SOL    HW2 2427   7.101   0.670   6.908
  199SOL     OW 2428  14.841  13.461   9.302
  199SOL    HW1 2429  14.758  13.413   9.301
  199SOL    HW2 2430  14.852  13.489   9.393
  200SOL     OW 2431   5.733  10.343   2.407
  200SOL    HW1 2432   5.650  10.307   2.376
  200SOL    HW2 2433   5.759  10.285   2.479
  201SOL     OW 2434   2.188  10.355   4.996
  201SOL    HW1 2435   2.207  10.430   5.052
  201SOL    HW2 2436   2.261  10.295   5.011
  202SOL     OW 2437   4.483   9.875   1.968
  202SOL    HW1 2438   4.446   9.896   2.053
  202SOL    HW2 2439   4.547   9.806   1.987
  203SOL     OW 2440  13.816  12.650   8.036
  203SOL    HW1 2441  13.806  12.607   8.121
  203SOL    HW2 2442  13.885  12.600   7.992
  204SOL     OW 2443   4.942   1.213   2.709
  204SOL    HW1 2444   4.994   1.280   2.664
  204SOL    HW2 2445   4.901   1.163   2.638
  205SOL     OW 2446  11.785   6.982  11.271
  205SOL    HW1 2447  11.780   6.887  11.279
  205SOL    HW2 2448  11.860   6.997  11.214
  206SOL     OW 2449  14.822   4.422   9.093
  206SOL    HW1 2450  14.752   4.478   9.125
  206SOL    HW2 2451  14.811   4.340   9.142
  207SOL     OW 2452  10.446   9.541  14.520
  207SOL    HW1 2453  10.393   9.581  14.590
  207SOL    HW2 2454  10.536   9.548  14.551
  208SOL     OW 2455   0.097   8.104   3.918
  208SOL    HW1 2456   0.062   8.193   3.918
  208SOL    HW2 2457   0.055   8.061   3.993
  209SOL     OW 2458   8.291   9.612  11.265
  209SOL    HW1 2459   8.336   9.612  11.180
  209SOL    HW2 2460   8.279   9.705  11.285
  210SOL     OW 2461  13.123  13.859   4.069
  210SOL    HW1 2462  13.139  13.773   4.031
  210SOL    HW2 2463  13.170  13.920   4.012
  211SOL     OW 2464   6.198   5.517   7.920
  211SOL    HW1 2465   6.148   5.497   7.840
  211SOL    HW2 2466   6.202   5.612   7.923
  212SOL     OW 2467  14.647  13.685   5.655
  212SOL    HW1 2468  14.615  13.745   5.722
  212SOL    HW2 2469  14.568  13.659   5.607
  213SOL     OW 2470  11.228  11.719   2.504
  213SOL    HW1 2471  11.186  11.779   2.565
  213SOL    HW2 2472  11.274  11.656   2.559
  214SOL     OW 2473  13.761  10.930  10.238
  214SOL    HW1 2474  13.769  11.000  10.174
  214SOL    HW2 2475  13.763  10.850  10.186
  215SOL     OW 2476   1.784   4.522   1.504
  215SOL    HW1 2477   1.739   4.514   1.589
  215SOL    HW2 2478   1.716   4.552   1.444
  216SOL     OW 2479  10.338   3.224   3.749
  216SOL    HW1 2480  10.290   3.151   3.710
  216SOL    HW2 2481  10.306   3.301   3.702
  217SOL     OW 2482   7.673   9.155  14.553
  217SOL    HW1 2483   7.717   9.184  14.633
  217SOL    HW2 2484   7.647   9.237  14.510
  218SOL     OW 2485   2.271   1.066  12.698
  218SOL    HW1 2486   2.296   1.151  12.734
  218SOL    HW2 2487   2.250   1.083  12.606
  219SOL     OW 2488   1.906  10.392   3.916
  219SOL    HW1 2489   1.865  10.477   3.896
  219SOL    HW2 2490   1.834  10.330   3.916
  220SOL     OW 2491  12.256   8.002  14.372
  220SOL    HW1 2492  12.314   7.976  14.443
  220SOL    HW2 2493  12.315   8.025  14.300
  221SOL     OW 2494   4.604   8.811  14.558
  221SOL    HW1 2495   4.525   8.844  14.601
  221SOL    HW2 2496   4.621   8.874  14.489
  222SOL     OW 2497   7.319  13.678  11.806
  222SOL    HW1 2498   7.253  13.626  11.760
  222SOL    HW2 2499   7.290  13.678  11.897
  223SOL     OW 2500   2.394   1.915   3.603
  223SOL    HW1 2501   2.443   1.995   3.585
  223SOL    HW2 2502   2.321   1.943   3.659
  224SOL     OW 2503   0.609  10.252   3.980
  224SOL    HW1 2504   0.648  10.168   3.957
  224SOL    HW2 2505   0.683  10.313   3.980
  225SOL     OW 2506   8.238  11.281  13.984
  225SOL    HW1 2507   8.214  11.315  14.070
  225SOL    HW2 2508   8.331  11.301  13.976
  226SOL     OW 2509   9.243  13.579  10.692
  226SOL    HW1 2510   9.339  13.579  10.685
  226SOL    HW2 2511   9.226  13.568  10.786
  227SOL     OW 2512   0.062   2.545   3.470
  227SOL    HW1 2513   0.123   2.476   3.496
  227SOL    HW2 2514   0.059   2.540   3.375
  228SOL     OW 2515  13.141  14.192  10.013
  228SOL    HW1 2516  13.198  14.127  10.054
  228SOL    HW2 2517  13.192  14.228   9.941
  229SOL     OW 2518   6.179   8.969   8.484
  229SOL    HW1 2519   6.234   8.891   8.474
  229SOL    HW2 2520   6.138   8.980   8.398
  230SOL     OW 2521   9.207  12.475   6.314
  230SOL    HW1 2522   9.196  12.511   6.226
  230SOL    HW2 2523   9.258  12.540   6.361
  231SOL     OW 2524   5.055  11.499  14.801
  231SOL    HW1 2525   5.085  11.590  14.810
  231SOL    HW2 2526   5.135  11.450  14.783
  232SOL     OW 2527   5.807   5.955   7.698
  232SOL    HW1 2528   5.752   5.887   7.659
  232SOL    HW2 2529   5.763   6.037   7.675
  233SOL     OW 2530  13.992   5.968   5.440
  233SOL    HW1 2531  13.928   5.925   5.384
  233SOL    HW2 2532  14.076   5.934   5.412
  234SOL     OW 2533   3.977  11.645  10.522
  234SOL    HW1 2534   4.005  11.736  10.528
  234SOL    HW2 2535   4.056  11.594  10.538
  235SOL     OW 2536   3.631   2.006   6.775
  235SOL    HW1 2537   3.564   1.947   6.739
  235SOL    HW2 2538   3.603   2.093   6.750
  236SOL     OW 2539  13.359   7.160  12.940
  236SOL    HW1 2540  13.297   7.233  12.936
  236SOL    HW2 2541  13.444   7.202  12.956
  237SOL     OW 2542  11.866  13.277   8.202
  237SOL    HW1 2543  11.944  13.292   8.148
  237SOL    HW2 2544  11.808  13.226   8.146
  238SOL     OW 2545   6.614   6.131   3.455
  238SOL    HW1 2546   6.622   6.085   3.538
  238SOL    HW2 2547   6.591   6.063   3.392
  239SOL     OW 2548   4.984   3.150   4.803
  239SOL    HW1 2549   4.922   3.220   4.781
  239SOL    HW2 2550   5.008   3.169   4.894
  240SOL     OW 2551   5.537  12.930   3.238
  240SOL    HW1 2552   5.486  12.855   3.208
  240SOL    HW2 2553   5.524  12.997   3.172
  241SOL     OW 2554   4.128   6.421  10.331
  241SOL    HW1 2555   4.159   6.510  10.344
  241SOL    HW2 2556   4.161   6.396  10.245
  242SOL     OW 2557   1.843   1.669   8.590
  242SOL    HW1 2558   1.933   1.647   8.568
  242SOL    HW2 2559   1.809   1.713   8.511
  243SOL     OW 2560   6.683   3.695   9.242
  243SOL    HW1 2561   6.727   3.779   9.230
  243SOL    HW2 2562   6.669   3.662   9.153
  244SOL     OW 2563   7.874  12.316   2.262
  244SOL    HW1 2564   7.805  12.252   2.281
  244SOL    HW2 2565   7.832  12.401   2.276
  245SOL     OW 2566   9.726   1.082  13.964
  245SOL    HW1 2567   9.682   1.167  13.970
  245SOL    HW2 2568   9.676   1.025  14.023
  246SOL     OW 2569   0.324   0.261   6.491
  246SOL    HW1 2570   0.391   0.276   6.558
  246SOL    HW2 2571   0.348   0.320   6.420
  247SOL     OW 2572   7.334  11.206   9.410
  247SOL    HW1 2573   7.262  11.259   9.445
  247SOL    HW2 2574   7.362  11.152   9.484
  248SOL     OW 2575   3.780   4.667   4.127
  248SOL    HW1 2576   3.824   4.599   4.076
  248SOL    HW2 2577   3.737   4.620   4.198
  249SOL     OW 2578   2.669   8.774  11.293
  249SOL    HW1 2579   2.657   8.814  11.206
  249SOL    HW2 2580   2.721   8.838  11.341
  250SOL     OW 2581   7.518   7.220  11.070
  250SOL    HW1 2582   7.590   7.161  11.093
  250SOL    HW2 2583   7.471   7.233  11.153
  251SOL     OW 2584  10.245  11.845   4.709
  251SOL    HW1 2585  10.225  11.757   4.676
  251SOL    HW2 2586  10.160  11.887   4.718
  252SOL     OW 2587   6.268   7.668   5.371
  252SOL    HW1 2588   6.172   7.664   5.369
  252SOL    HW2 2589   6.295   7.576   5.380
  253SOL     OW 2590  10.077   3.253  14.762
  253SOL    HW1 2591  10.092   3.170  14.807
  253SOL    HW2 2592  10.052   3.228  14.673
  254SOL     OW 2593   9.219  10.038   4.284
  254SOL    HW1 2594   9.169   9.994   4.353
  254SOL    HW2 2595   9.178  10.010   4.202
  255SOL     OW 2596   3.063  12.724  14.418
  255SOL    HW1 2597   3.072  12.741  14.512
  255SOL    HW2 2598   3.008  12.646  14.413
  256SOL     OW 2599  11.835   5.605   1.899
  256SOL    HW1 2600  11.741   5.609   1.887
  256SOL    HW2 2601  11.871   5.630   1.813
  257SOL     OW 2602   1.107  12.085  12.805
  257SOL    HW1 2603   1.199  12.062  12.791
  257SOL    HW2 2604   1.063  12.001  12.817
  258SOL     OW 2605  13.079   9.591   4.154
  258SOL    HW1 2606  13.125   9.674   4.167
  258SOL    HW2 2607  12.991   9.607   4.188
  259SOL     OW 2608   0.769   3.099  12.390
  259SOL    HW1 2609   0.821   3.106  12.470
  259SOL    HW2 2610   0.678   3.101  12.421
  260SOL     OW 2611   0.729   9.895   4.706
  260SOL    HW1 2612   0.692   9.983   4.698
  260SOL    HW2 2613   0.670   9.840   4.653
  261SOL     OW 2614  10.359   7.118   6.810
  261SOL    HW1 2615  10.318   7.204   6.811
  261SOL    HW2 2616  10.435   7.127   6.868
  262SOL     OW 2617   7.735   6.381   8.219
  262SOL    HW1 2618   7.801   6.315   8.241
  262SOL    HW2 2619   7.705   6.414   8.303
  263SOL     OW 2620   5.334   8.142  14.517
  263SOL    HW1 2621   5.293   8.203  14.455
  263SOL    HW2 2622   5.267   8.126  14.584
  264SOL     OW 2623  12.701  11.696   2.861
  264SOL    HW1 2624  12.753  11.774   2.880
  264SOL    HW2 2625  12.623  11.729   2.816
  265SOL     OW 2626   2.319   5.913   2.302
  265SOL    HW1 2627   2.356   5.845   2.245
  265SOL    HW2 2628   2.380   5.918   2.376
  266SOL     OW 2629   5.018   7.570   1.127
  266SOL    HW1 2630   5.020   7.581   1.032
  266SOL    HW2 2631   4.926   7.551   1.146
  267SOL     OW 2632  11.938   1.413   4.523
  267SOL    HW1 2633  11.864   1.467   4.550
  267SOL    HW2 2634  11.947   1.430   4.429
  268SOL     OW 2635   5.157  12.978  11.394
  268SOL    HW1 2636   5.236  12.943  11.353
  268SOL    HW2 2637   5.093  12.983  11.324
  269SOL     OW 2638   2.535   1.734   3.267
  269SOL    HW1 2639   2.619   1.691   3.284
  269SOL    HW2 2640   2.550   1.826   3.288
  270SOL     OW 2641   4.000   4.533   6.617
  270SOL    HW1 2642   4.020   4.626   6.612
  270SOL    HW2 2643   4.072   4.490   6.570
  271SOL     OW 2644   9.341  10.085  13.502
  271SOL    HW1 2645   9.303  10.143  13.437
  271SOL    HW2 2646   9.428  10.122  13.520
  272SOL     OW 2647   5.059   5.147  13.865
  272SOL    HW1 2648   5.011   5.103  13.936
  272SOL    HW2 2649   5.097   5.076  13.814
  273SOL     OW 2650  13.853   4.606  11.170
  273SOL    HW1 2651  13.937   4.616  11.125
  273SOL    HW2 2652  13.788   4.642  11.109
  274SOL     OW 2653   0.351   0.277   3.079
  274SOL    HW1 2654   0.309   0.198   3.113
  274SOL    HW2 2655   0.309   0.293   2.995
  275SOL     OW 2656   8.262   2.742  13.894
  275SOL    HW1 2657   8.210   2.721  13.971
  275SOL    HW2 2658   8.353   2.740  13.924
  276SOL     OW 2659   6.998   1.279   7.154
  276SOL    HW1 2660   7.076   1.226   7.167
  276SOL    HW2 2661   6.986   1.282   7.059
  277SOL     OW 2662   4.309   1.864   2.359
  277SOL    HW1 2663   4.256   1.821   2.291
  277SOL    HW2 2664   4.376   1.912   2.311
  278SOL     OW 2665   2.866  13.943   5.584
  278SOL    HW1 2666   2.953  13.935   5.545
  278SOL    HW2 2667   2.870  14.022   5.638
  279SOL     OW 2668   0.782   8.115   5.877
  279SOL    HW1 2669   0.698   8.072   5.864
  279SOL    HW2 2670   0.776   8.195   5.824
  280SOL     OW 2671   6.990   9.322   4.863
  280SOL    HW1 2672   6.929   9.317   4.789
  280SOL    HW2 2673   6.938   9.297   4.939
  281SOL     OW 2674   4.307  12.381  11.752
  281SOL    HW1 2675   4.327  12.417  11.839
  281SOL    HW2 2676   4.390  12.344  11.722
  282SOL     OW 2677  10.461   2.757   4.943
  282SOL    HW1 2678  10.509   2.687   4.899
  282SOL    HW2 2679  10.474   2.834   4.887
  283SOL     OW 2680   3.897   6.963  10.975
  283SOL    HW1 2681   3.919   6.937  11.065
  283SOL    HW2 2682   3.932   7.052  10.967
  284SOL     OW 2683   6.214   4.572  12.700
  284SOL    HW1 2684   6.193   4.602  12.611
  284SOL    HW2 2685   6.178   4.483  12.704
  285SOL     OW 2686  12.642  14.573  11.203
  285SOL    HW1 2687  12.709  14.519  11.244
  285SOL    HW2 2688  12.680  14.661  11.201
  286SOL     OW 2689   1.639   4.692   2.222
  286SOL    HW1 2690   1.651   4.662   2.313
  286SOL    HW2 2691   1.573   4.632   2.186
  287SOL     OW 2692  12.486   0.663   8.607
  287SOL    HW1 2693  12.527   0.728   8.664
  287SOL    HW2 2694  12.534   0.582   8.623
  288SOL     OW 2695  14.409   2.512   1.526
  288SOL    HW1 2696  14.427   2.418   1.517
  288SOL    HW2 2697  14.353   2.533   1.451
  289SOL     OW 2698   2.108  14.782   7.940
  289SOL    HW1 2699   2.168  14.760   8.012
  289SOL    HW2 2700   2.151  14.854   7.895
  290SOL     OW 2701   1.445   4.709   9.886
  290SOL    HW1 2702   1.380   4.640   9.898
  290SOL    HW2 2703   1.510   4.692   9.954
  291SOL     OW 2704   4.351  10.348   8.534
  291SOL    HW1 2705   4.416  10.397   8.484
  291SOL    HW2 2706   4.389  10.340   8.621
  292SOL     OW 2707  12.292   2.587   9.713
  292SOL    HW1 2708  12.348   2.510   9.721
  292SOL    HW2 2709  12.313   2.641   9.789
  293SOL     OW 2710  10.688   0.992   5.422
  293SOL    HW1 2711  10.741   0.982   5.501
  293SOL    HW2 2712  10.620   1.055   5.445
  294SOL     OW 2713   9.423  10.391   7.826
  294SOL    HW1 2714   9.513  10.361   7.822
  294SOL    HW2 2715   9.401  10.392   7.919
  295SOL     OW 2716  13.685   8.900   3.008
  295SOL    HW1 2717  13.725   8.953   2.940
  295SOL    HW2 2718  13.727   8.814   3.000
  296SOL     OW 2719   8.182   8.579  11.649
  296SOL    HW1 2720   8.178   8.512  11.581
  296SOL    HW2 2721   8.100   8.570  11.698
  297SOL     OW 2722   6.329   8.684  10.818
  297SOL    HW1 2723   6.319   8.759  10.877
  297SOL    HW2 2724   6.413   8.646  10.842
  298SOL     OW 2725   1.827  13.288   1.800
  298SOL    HW1 2726   1.839  13.225   1.728
  298SOL    HW2 2727   1.887  13.257   1.868
  299SOL     OW 2728   2.975   8.387   4.816
  299SOL    HW1 2729   2.908   8.441   4.775
  299SOL    HW2 2730   2.930   8.342   4.887
  300SOL     OW 2731   6.011  12.671   0.693
  300SOL    HW1 2732   5.971  12.585   0.676
  300SOL    HW2 2733   6.078  12.653   0.759
  301SOL     OW 2734   7.037   0.988   7.307
  301SOL    HW1 2735   7.094   1.045   7.256
  301SOL    HW2 2736   6.958   0.979   7.254
  302SOL     OW 2737   7.464   2.415   2.266
  302SOL    HW1 2738   7.392   2.451   2.215
  302SOL    HW2 2739   7.512   2.492   2.299
  303SOL     OW 2740   1.712   5.892  11.619
  303SOL    HW1 2741   1.629   5.911  11.575
  303SOL    HW2 2742   1.687   5.871  11.709
  304SOL     OW 2743   0.070   5.952   6.808
  304SOL    HW1 2744  14.874   6.015   6.802
  304SOL    HW2 2745   0.027   5.871   6.836
  305SOL     OW 2746   3.313  12.785  10.624
  305SOL    HW1 2747   3.316  12.698  10.664
  305SOL    HW2 2748   3.335  12.770  10.532
  306SOL     OW 2749  12.336   8.056   4.520
  306SOL    HW1 2750  12.295   8.086   4.601
  306SOL    HW2 2751  12.355   8.136   4.472
  307SOL     OW 2752   7.287  12.535   4.292
  307SOL    HW1 2753   7.317  12.626   4.290
  307SOL    HW2 2754   7.193  12.540   4.273
  308SOL     OW 2755  11.497  10.176   5.970
  308SOL    HW1 2756  11.551  10.149   6.044
  308SOL    HW2 2757  11.437  10.242   6.006
  309SOL     OW 2758   1.867   3.829   1.222
  309SOL    HW1 2759   1.896   3.743   1.193
  309SOL    HW2 2760   1.946   3.883   1.222
  310SOL     OW 2761   2.013   8.902   1.000
  310SOL    HW1 2762   2.076   8.923   1.069
  310SOL    HW2 2763   2.007   8.982   0.948
  311SOL     OW 2764   2.301   3.502   8.492
  311SOL    HW1 2765   2.318   3.578   8.547
  311SOL    HW2 2766   2.243   3.446   8.545
  312SOL     OW 2767   4.504   9.048   7.439
  312SOL    HW1 2768   4.525   9.136   7.408
  312SOL    HW2 2769   4.455   9.062   7.520
  313SOL     OW 2770   6.899   7.399   2.239
  313SOL    HW1 2771   6.934   7.488   2.236
  313SOL    HW2 2772   6.867   7.383   2.150
  314SOL     OW 2773  11.270   8.201  10.695
  314SOL    HW1 2774  11.176   8.191  10.705
  314SOL    HW2 2775  11.281   8.238  10.607
  315SOL     OW 2776   2.069   6.853  12.392
  315SOL    HW1 2777   2.026   6.788  12.337
  315SOL    HW2 2778   2.053   6.936  12.349
  316SOL     OW 2779   6.191   4.663   2.069
  316SOL    HW1 2780   6.223   4.751   2.090
  316SOL    HW2 2781   6.104   4.659   2.109
  317SOL     OW 2782  11.615   2.759  12.768
  317SOL    HW1 2783  11.709   2.744  12.777
  317SOL    HW2 2784  11.591   2.715  12.686
  318SOL     OW 2785  13.875   4.172   8.406
  318SOL    HW1 2786  13.791   4.175   8.454
  318SOL    HW2 2787  13.864   4.234   8.334
  319SOL     OW 2788   7.787   1.455   2.792
  319SOL    HW1 2789   7.846   1.447   2.867
  319SOL    HW2 2790   7.813   1.383   2.734
  320SOL     OW 2791   7.658   7.089  13.869
  320SOL    HW1 2792   7.689   7.005  13.903
  320SOL    HW2 2793   7.594   7.118  13.934
  321SOL     OW 2794  13.406   3.731  11.192
  321SOL    HW1 2795  13.344   3.660  11.206
  321SOL    HW2 2796  13.405   3.747  11.098
  322SOL     OW 2797   4.059   0.681   4.805
  322SOL    HW1 2798   3.965   0.699   4.807
  322SOL    HW2 2799   4.074   0.619   4.877
  323SOL     OW 2800  11.557   6.046   7.411
  323SOL    HW1 2801  11.645   6.038   7.374
  323SOL    HW2 2802  11.500   6.014   7.341
  324SOL     OW 2803   9.711  13.973   1.833
  324SOL    HW1 2804   9.781  13.947   1.774
  324SOL    HW2 2805   9.673  13.890   1.863
  325SOL     OW 2806   0.826   7.683   1.990
  325SOL    HW1 2807   0.779   7.674   2.073
  325SOL    HW2 2808   0.776   7.749   1.941
  326SOL     OW 2809  10.186  10.342   4.582
  326SOL    HW1 2810  10.150  10.420   4.540
  326SOL    HW2 2811  10.111  10.283   4.592
  327SOL     OW 2812   4.379   1.034  10.143
  327SOL    HW1 2813   4.294   1.050  10.184
  327SOL    HW2 2814   4.443   1.060  10.210
  328SOL     OW 2815   8.849   8.558   5.841
  328SOL    HW1 2816   8.776   8.616   5.863
  328SOL    HW2 2817   8.917   8.579   5.906
  329SOL     OW 2818  12.783   4.558  12.278
  329SOL    HW1 2819  12.716   4.622  12.305
  329SOL    HW2 2820  12.797   4.576  12.185
  330SOL     OW 2821   2.926   8.667  14.008
  330SOL    HW1 2822   2.865   8.648  14.079
  330SOL    HW2 2823   2.975   8.744  14.039
  331SOL     OW 2824   0.822  13.371   8.485
  331SOL    HW1 2825   0.840  13.300   8.547
  331SOL    HW2 2826   0.798  13.326   8.404
  332SOL     OW 2827   6.308  11.132   8.087
  332SOL    HW1 2828   6.360  11.076   8.030
  332SOL    HW2 2829   6.307  11.217   8.043
  333SOL     OW 2830   9.146   1.892   7.962
  333SOL    HW1 2831   9.156   1.886   8.057
  333SOL    HW2 2832   9.136   1.985   7.945
  334SOL     OW 2833   3.220   8.165  11.795
  334SOL    HW1 2834   3.219   8.083  11.746
  334SOL    HW2 2835   3.300   8.209  11.765
  335SOL     OW 2836   6.953   5.455  11.952
  335SOL    HW1 2837   7.040   5.456  11.991
  335SOL    HW2 2838   6.969   5.459  11.858
  336SOL     OW 2839   1.343   4.186   2.446
  336SOL    HW1 2840   1.270   4.243   2.421
  336SOL    HW2 2841   1.339   4.113   2.385
  337SOL     OW 2842  13.781  12.413  10.442
  337SOL    HW1 2843  13.841  12.458  10.502
  337SOL    HW2 2844  13.694  12.434  10.476
  338SOL     OW 2845   3.529   8.240   6.006
  338SOL    HW1 2846   3.478   8.285   6.073
  338SOL    HW2 2847   3.535   8.304   5.934
  339SOL     OW 2848   8.142   6.228  13.035
  339SOL    HW1 2849   8.159   6.147  13.084
  339SOL    HW2 2850   8.156   6.298  13.098
  340SOL     OW 2851  13.085   3.881   7.143
  340SOL    HW1 2852  13.137   3.951   7.182
  340SOL    HW2 2853  13.135   3.853   7.067
  341SOL     OW 2854   9.044   4.472   0.676
  341SOL    HW1 2855   9.046   4.394   0.621
  341SOL    HW2 2856   8.998   4.538   0.624
  342SOL     OW 2857   6.865  11.839  13.349
  342SOL    HW1 2858   6.823  11.785  13.281
  342SOL    HW2 2859   6.795  11.859  13.411
  343SOL     OW 2860   4.701   3.096  11.641
  343SOL    HW1 2861   4.758   3.091  11.717
  343SOL    HW2 2862   4.690   3.005  11.613
  344SOL     OW 2863  11.215  13.715  12.212
  344SOL    HW1 2864  11.242  13.631  12.176
  344SOL    HW2 2865  11.156  13.692  12.284
  345SOL     OW 2866  10.804   3.780  11.943
  345SOL    HW1 2867  10.736   3.712  11.945
  345SOL    HW2 2868  10.854   3.760  11.864
  346SOL     OW 2869   9.177  12.698   1.492
  346SOL    HW1 2870   9.265  12.717   1.461
  346SOL    HW2 2871   9.145  12.629   1.434
  347SOL     OW 2872  10.811   1.493  11.845
  347SOL    HW1 2873  10.865   1.458  11.915
  347SOL    HW2 2874  10.824   1.432  11.772
  348SOL     OW 2875   5.264   5.098   1.957
  348SOL    HW1 2876   5.342   5.148   1.980
  348SOL    HW2 2877   5.220   5.082   2.040
  349SOL     OW 2878  10.466   2.485  10.020
  349SOL    HW1 2879  10.558   2.463  10.008
  349SOL    HW2 2880  10.463   2.527  10.106
  350SOL     OW 2881   4.857   4.100  12.778
  350SOL    HW1 2882   4.807   4.041  12.835
  350SOL    HW2 2883   4.932   4.126  12.831
  351SOL     OW 2884   7.269   5.874   4.803
  351SOL    HW1 2885   7.196   5.875   4.864
  351SOL    HW2 2886   7.342   5.836   4.853
  352SOL     OW 2887   2.986   3.893   0.288
  352SOL    HW1 2888   2.982   3.927   0.199
  352SOL    HW2 2889   2.958   3.802   0.280
  353SOL     OW 2890   5.053   8.391  13.806
  353SOL    HW1 2891   5.055   8.361  13.715
  353SOL    HW2 2892   5.038   8.312  13.858
  354SOL     OW 2893  10.018   8.818   7.882
  354SOL    HW1 2894  10.025   8.795   7.974
  354SOL    HW2 2895   9.964   8.897   7.881
  355SOL     OW 2896  12.011   0.310  14.229
  355SOL    HW1 2897  12.073   0.249  14.189
  355SOL    HW2 2898  11.991   0.271  14.314
  356SOL     OW 2899  10.881   0.296  14.814
  356SOL    HW1 2900  10.976   0.309  14.805
  356SOL    HW2 2901  10.861   0.224  14.754
  357SOL     OW 2902   7.440   5.599   8.972
  357SOL    HW1 2903   7.413   5.673   8.917
  357SOL    HW2 2904   7.432   5.632   9.062
  358SOL     OW 2905   0.294   3.015   2.544
  358SOL    HW1 2906   0.315   3.047   2.456
  358SOL    HW2 2907   0.375   3.025   2.593
  359SOL     OW 2908   0.780  14.092  14.561
  359SOL    HW1 2909   0.850  14.153  14.584
  359SOL    HW2 2910   0.732  14.136  14.491
  360SOL     OW 2911   7.558  14.320   5.640
  360SOL    HW1 2912   7.546  14.405   5.683
  360SOL    HW2 2913   7.580  14.341   5.550
  361SOL     OW 2914   9.176  12.020   8.445
  361SOL    HW1 2915   9.247  11.958   8.461
  361SOL    HW2 2916   9.219  12.097   8.410
  362SOL     OW 2917   4.431  13.806   7.289
  362SOL    HW1 2918   4.455  13.754   7.366
  362SOL    HW2 2919   4.501  13.791   7.227
  363SOL     OW 2920   1.110   2.254   8.439
  363SOL    HW1 2921   1.148   2.212   8.362
  363SOL    HW2 2922   1.032   2.202   8.460
  364SOL     OW 2923  14.090   6.762  10.782
  364SOL    HW1 2924  14.007   6.759  10.830
  364SOL    HW2 2925  14.146   6.699  10.827
  365SOL     OW 2926  10.503   2.073   1.773
  365SOL    HW1 2927  10.598   2.078   1.762
  365SOL    HW2 2928  10.487   2.107   1.861
  366SOL     OW 2929  14.805   2.372   6.528
  366SOL    HW1 2930  14.849   2.288   6.524
  366SOL    HW2 2931  14.868   2.430   6.571
  367SOL     OW 2932   3.380  14.661  10.153
  367SOL    HW1 2933   3.337  14.631  10.233
  367SOL    HW2 2934   3.441  14.729  10.182
  368SOL     OW 2935   2.696   5.824  12.954
  368SOL    HW1 2936   2.753   5.759  12.995
  368SOL    HW2 2937   2.683   5.793  12.865
  369SOL     OW 2938   2.828  11.079   2.840
  369SOL    HW1 2939   2.768  11.017   2.880
  369SOL    HW2 2940   2.825  11.156   2.897
  370SOL     OW 2941   1.362  10.002   0.929
  370SOL    HW1 2942   1.389  10.029   1.016
  370SOL    HW2 2943   1.388  10.074   0.872
  371SOL     OW 2944  14.537  11.382   7.766
  371SOL    HW1 2945  14.484  11.305   7.784
  371SOL    HW2 2946  14.475  11.446   7.730
  372SOL     OW 2947   1.781   7.338  13.100
  372SOL    HW1 2948   1.866   7.303  13.125
  372SOL    HW2 2949   1.722   7.307  13.169
  373SOL     OW 2950   5.167  11.232  14.229
  373SOL    HW1 2951   5.257  11.243  14.261
  373SOL    HW2 2952   5.113  11.277  14.294
  374SOL     OW 2953   4.130  14.232  10.524
  374SOL    HW1 2954   4.196  14.301  10.519
  374SOL    HW2 2955   4.095  14.226  10.435
  375SOL     OW 2956   2.047   7.549   9.156
  375SOL    HW1 2957   1.957   7.559   9.126
  375SOL    HW2 2958   2.062   7.455   9.156
  376SOL     OW 2959   7.268   9.566   1.724
  376SOL    HW1 2960   7.332   9.530   1.662
  376SOL    HW2 2961   7.184   9.559   1.678
  377SOL     OW 2962   6.761   6.900   5.483
  377SOL    HW1 2963   6.800   6.968   5.538
  377SOL    HW2 2964   6.791   6.818   5.521
  378SOL     OW 2965   4.901   0.699   6.972
  378SOL    HW1 2966   4.935   0.788   6.966
  378SOL    HW2 2967   4.977   0.645   6.990
  379SOL     OW 2968   9.239   0.205   6.298
  379SOL    HW1 2969   9.246   0.118   6.258
  379SOL    HW2 2970   9.149   0.211   6.327
  380SOL     OW 2971   2.868   6.318   9.855
  380SOL    HW1 2972   2.849   6.409   9.881
  380SOL    HW2 2973   2.862   6.268   9.936
  381SOL     OW 2974  13.217   0.004   6.306
  381SOL    HW1 2975  13.266  14.847   6.230
  381SOL    HW2 2976  13.283   0.039   6.365
  382SOL     OW 2977   8.293   9.160   5.460
  382SOL    HW1 2978   8.386   9.165   5.483
  382SOL    HW2 2979   8.263   9.077   5.497
  383SOL     OW 2980   0.017   3.280   1.863
  383SOL    HW1 2981  14.848   3.362   1.840
  383SOL    HW2 2982   0.062   3.254   1.783
  384SOL     OW 2983   4.495   2.062   6.569
  384SOL    HW1 2984   4.495   2.012   6.487
  384SOL    HW2 2985   4.407   2.100   6.573
  385SOL     OW 2986   9.913  12.662   3.925
  385SOL    HW1 2987   9.936  12.688   3.835
  385SOL    HW2 2988   9.858  12.585   3.914
  386SOL     OW 2989   8.792  12.585   3.091
  386SOL    HW1 2990   8.785  12.518   3.159
  386SOL    HW2 2991   8.768  12.540   3.010
  387SOL     OW 2992  11.312   6.428   5.188
  387SOL    HW1 2993  11.394   6.455   5.146
  387SOL    HW2 2994  11.335   6.416   5.280
  388SOL     OW 2995   1.460  10.460   2.570
  388SOL    HW1 2996   1.549  10.476   2.603
  388SOL    HW2 2997   1.428  10.387   2.622
  389SOL     OW 2998  14.595   9.334   8.798
  389SOL    HW1 2999  14.679   9.300   8.769
  389SOL    HW2 3000  14.572   9.399   8.732
  390SOL     OW 3001  14.061   6.535   0.515
  390SOL    HW1 3002  14.005   6.518   0.590
  390SOL    HW2 3003  14.081   6.448   0.479
  391SOL     OW 3004   7.835   1.274   2.593
  391SOL    HW1 3005   7.899   1.246   2.527
  391SOL    HW2 3006   7.752   1.275   2.546
  392SOL     OW 3007  13.394   1.294   6.986
  392SOL    HW1 3008  13.309   1.281   6.943
  392SOL    HW2 3009  13.382   1.373   7.040
  393SOL     OW 3010   0.451  14.374  11.406
  393SOL    HW1 3011   0.532  14.329  11.430
  393SOL    HW2 3012   0.406  14.313  11.347
  394SOL     OW 3013   0.292  10.591   3.457
  394SOL    HW1 3014   0.357  10.535   3.415
  394SOL    HW2 3015   0.337  10.674   3.471
  395SOL     OW 3016   1.940   1.352   3.919
  395SOL    HW1 3017   2.021   1.301   3.915
  395SOL    HW2 3018   1.874   1.290   3.953
  396SOL     OW 3019  14.490   7.405   7.305
  396SOL    HW1 3020  14.443   7.484   7.334
  396SOL    HW2 3021  14.528   7.369   7.385
  397SOL     OW 3022   5.452   7.063  12.766
  397SOL    HW1 3023   5.402   7.061  12.684
  397SOL    HW2 3024   5.482   7.154  12.773
  398SOL     OW 3025   3.003  10.549  10.098
  398SOL    HW1 3026   2.981  10.567  10.190
  398SOL    HW2 3027   2.931  10.497  10.065
  399SOL     OW 3028   7.019   8.853   0.050
  399SOL    HW1 3029   6.931   8.874   0.018
  399SOL    HW2 3030   7.029   8.759   0.034
  400SOL     OW 3031   9.843  13.966   0.827
  400SOL    HW1 3032   9.802  14.052   0.824
  400SOL    HW2 3033   9.772  13.906   0.849
  401SOL     OW 3034   8.557   2.162  14.120
  401SOL    HW1 3035   8.609   2.114  14.056
  401SOL    HW2 3036   8.533   2.243  14.076
  402SOL     OW 3037   0.453  12.191  13.278
  402SOL    HW1 3038   0.359  12.184  13.294
  402SOL    HW2 3039   0.461  12.194  13.182
  403SOL     OW 3040  10.381   8.360   4.640
  403SOL    HW1 3041  10.456   8.354   4.581
  403SOL    HW2 3042  10.375   8.452   4.663
  404SOL     OW 3043   8.034   5.155  10.797
  404SOL    HW1 3044   8.106   5.122  10.851
  404SOL    HW2 3045   8.009   5.238  10.838
  405SOL     OW 3046   0.405  11.809   6.607
  405SOL    HW1 3047   0.454  11.755   6.546
  405SOL    HW2 3048   0.324  11.760   6.624
  406SOL     OW 3049  14.814   8.702   0.982
  406SOL    HW1 3050  14.843   8.700   1.073
  406SOL    HW2 3051   0.015   8.732   0.933
  407SOL     OW 3052  11.661   7.238   6.657
  407SOL    HW1 3053  11.684   7.151   6.625
  407SOL    HW2 3054  11.732   7.262   6.716
  408SOL     OW 3055   1.897  10.167   5.277
  408SOL    HW1 3056   1.957  10.241   5.292
  408SOL    HW2 3057   1.819  10.208   5.239
  409SOL     OW 3058  10.028   7.055   3.715
  409SOL    HW1 3059  10.056   7.013   3.634
  409SOL    HW2 3060  10.004   6.983   3.773
  410SOL     OW 3061  13.691  11.689   5.825
  410SOL    HW1 3062  13.770  11.662   5.778
  410SOL    HW2 3063  13.636  11.730   5.758
  411SOL     OW 3064  12.876  13.547   9.315
  411SOL    HW1 3065  12.811  13.597   9.363
  411SOL    HW2 3066  12.826  13.475   9.275
  412SOL     OW 3067   5.871  14.075   0.244
  412SOL    HW1 3068   5.799  14.011   0.239
  412SOL    HW2 3069   5.950  14.023   0.237
  413SOL     OW 3070   3.835   3.252   5.569
  413SOL    HW1 3071   3.770   3.243   5.499
  413SOL    HW2 3072   3.867   3.342   5.560
  414SOL     OW 3073  14.067  12.518  12.337
  414SOL    HW1 3074  14.068  12.533  12.242
  414SOL    HW2 3075  14.000  12.450  12.349
  415SOL     OW 3076   9.932   3.923   7.445
  415SOL    HW1 3077  10.003   3.866   7.475
  415SOL    HW2 3078   9.861   3.863   7.421
  416SOL     OW 3079  13.586   3.553  10.707
  416SOL    HW1 3080  13.666   3.558  10.759
  416SOL    HW2 3081  13.603   3.483  10.644
  417SOL     OW 3082  11.763   9.450   7.654
  417SOL    HW1 3083  11.719   9.406   7.727
  417SOL    HW2 3084  11.740   9.542   7.665
  418SOL     OW 3085   2.764   0.965  14.107
  418SOL    HW1 3086   2.751   0.997  14.197
  418SOL    HW2 3087   2.798   0.876  14.119
  419SOL     OW 3088  13.854   2.534   1.000
  419SOL    HW1 3089  13.792   2.485   1.055
  419SOL    HW2 3090  13.939   2.521   1.043
  420SOL     OW 3091  12.870   8.996  14.813
  420SOL    HW1 3092  12.962   8.999  14.839
  420SOL    HW2 3093  12.855   9.079  14.767
  421SOL     OW 3094  14.456   9.877   0.751
  421SOL    HW1 3095  14.531   9.840   0.705
  421SOL    HW2 3096  14.381   9.826   0.720
  422SOL     OW 3097  13.094  13.686  14.058
  422SOL    HW1 3098  13.114  13.757  14.119
  422SOL    HW2 3099  13.003  13.699  14.034
  423SOL     OW 3100  14.701   4.617   8.802
  423SOL    HW1 3101  14.661   4.699   8.771
  423SOL    HW2 3102  14.779   4.645   8.850
  424SOL     OW 3103   7.784  10.056  14.717
  424SOL    HW1 3104   7.770  10.049  14.811
  424SOL    HW2 3105   7.697  10.048  14.678
  425SOL     OW 3106  10.938  13.497   3.210
  425SOL    HW1 3107  10.869  13.448   3.254
  425SOL    HW2 3108  10.900  13.522   3.126
  426SOL     OW 3109   0.326  12.963   4.273
  426SOL    HW1 3110   0.260  12.895   4.258
  426SOL    HW2 3111   0.332  12.970   4.368
  427SOL     OW 3112   8.430   8.804   7.817
  427SOL    HW1 3113   8.393   8.889   7.842
  427SOL    HW2 3114   8.488   8.823   7.744
  428SOL     OW 3115  14.459   4.418  12.370
  428SOL    HW1 3116  14.487   4.340  12.416
  428SOL    HW2 3117  14.525   4.484  12.391
  429SOL     OW 3118  12.644   6.193  13.025
  429SOL    HW1 3119  12.696   6.117  13.052
  429SOL    HW2 3120  12.672   6.263  13.084
  430SOL     OW 3121  12.246   9.482   7.462
  430SOL    HW1 3122  12.185   9.412   7.488
  430SOL    HW2 3123  12.279   9.517   7.545
  431SOL     OW 3124   3.073  14.315   0.122
  431SOL    HW1 3125   3.091  14.225   0.150
  431SOL    HW2 3126   3.008  14.346   0.184
  432SOL     OW 3127   4.476  11.312  12.637
  432SOL    HW1 3128   4.406  11.279  12.580
  432SOL    HW2 3129   4.498  11.237  12.693
  433SOL     OW 3130   9.855  12.245  13.947
  433SOL    HW1 3131   9.911  12.297  14.005
  433SOL    HW2 3132   9.771  12.291  13.946
  434SOL     OW 3133  12.430   9.709  14.568
  434SOL    HW1 3134  12.514   9.700  14.523
  434SOL    HW2 3135  12.377   9.636  14.536
  435SOL     OW 3136   4.825  13.849   7.233
  435SOL    HW1 3137   4.853  13.882   7.148
  435SOL    HW2 3138   4.898  13.794   7.262
  436SOL     OW 3139   1.933   8.420  14.741
  436SOL    HW1 3140   1.933   8.346  14.803
  436SOL    HW2 3141   1.846   8.418  14.702
  437SOL     OW 3142   7.052   0.173   7.493
  437SOL    HW1 3143   7.047   0.167   7.588
  437SOL    HW2 3144   6.974   0.224   7.468
  438SOL     OW 3145   1.453  11.204  10.946
  438SOL    HW1 3146   1.446  11.273  11.012
  438SOL    HW2 3147   1.408  11.239  10.869
  439SOL     OW 3148   6.237   4.757   4.650
  439SOL    HW1 3149   6.141   4.755   4.646
  439SOL    HW2 3150   6.261   4.845   4.621
  440SOL     OW 3151   2.104  11.345   8.848
  440SOL    HW1 3152   2.111  11.314   8.938
  440SOL    HW2 3153   2.191  11.379   8.827
  441SOL     OW 3154  10.599  14.448  14.663
  441SOL    HW1 3155  10.544  14.397  14.722
  441SOL    HW2 3156  10.677  14.393  14.650
  442SOL     OW 3157   1.190   2.887  14.469
  442SOL    HW1 3158   1.130   2.817  14.446
  442SOL    HW2 3159   1.134   2.964  14.482
  443SOL     OW 3160   4.151   6.952   3.560
  443SOL    HW1 3161   4.220   7.017   3.550
  443SOL    HW2 3162   4.158   6.926   3.652
  444SOL     OW 3163  11.402   9.712  10.151
  444SOL    HW1 3164  11.396   9.760  10.234
  444SOL    HW2 3165  11.311   9.698  10.125
  445SOL     OW 3166   4.590  12.165   5.203
  445SOL    HW1 3167   4.662  12.117   5.162
  445SOL    HW2 3168   4.632  12.233   5.255
  446SOL     OW 3169   9.549  14.137   3.385
  446SOL    HW1 3170   9.617  14.084   3.427
  446SOL    HW2 3171   9.556  14.116   3.292
  447SOL     OW 3172  10.532  12.331   1.277
  447SOL    HW1 3173  10.545  12.306   1.186
  447SOL    HW2 3174  10.559  12.423   1.281
  448SOL     OW 3175   8.980  11.626   6.708
  448SOL    HW1 3176   8.908  11.564   6.718
  448SOL    HW2 3177   9.021  11.629   6.795
  449SOL     OW 3178  12.056   1.715  12.300
  449SOL    HW1 3179  12.144   1.739  12.328
  449SOL    HW2 3180  12.057   1.724  12.205
  450SOL     OW 3181   2.948   0.669  11.524
  450SOL    HW1 3182   3.011   0.737  11.547
  450SOL    HW2 3183   2.903   0.648  11.606
  451SOL     OW 3184   0.213   8.605  11.235
  451SOL    HW1 3185   0.135   8.580  11.283
  451SOL    HW2 3186   0.194   8.692  11.201
  452SOL     OW 3187   4.806  10.793   4.241
  452SOL    HW1 3188   4.820  10.703   4.269
  452SOL    HW2 3189   4.750  10.831   4.309
  453SOL     OW 3190   5.748   7.219   1.365
  453SOL    HW1 3191   5.826   7.174   1.397
  453SOL    HW2 3192   5.686   7.216   1.438
  454SOL     OW 3193   4.380   7.221   4.376
  454SOL    HW1 3194   4.358   7.290   4.439
  454SOL    HW2 3195   4.456   7.177   4.414
  455SOL     OW 3196  10.220  10.701  13.978
  455SOL    HW1 3197  10.280  10.761  14.023
  455SOL    HW2 3198  10.240  10.713  13.885
  456SOL     OW 3199   6.534   2.212  13.517
  456SOL    HW1 3200   6.465   2.182  13.457
  456SOL    HW2 3201   6.487   2.259  13.586
  457SOL     OW 3202   3.988   8.990   7.075
  457SOL    HW1 3203   3.961   8.987   7.167
  457SOL    HW2 3204   4.077   9.026   7.078
  458SOL     OW 3205  14.849   4.052   1.844
  458SOL    HW1 3206   0.042   3.985   1.843
  458SOL    HW2 3207   0.020   4.134   1.861
  459SOL     OW 3208  12.762  13.270   6.026
  459SOL    HW1 3209  12.703  13.345   6.036
  459SOL    HW2 3210  12.834  13.303   5.972
  460SOL     OW 3211   8.107   7.506   6.666
  460SOL    HW1 3212   8.095   7.592   6.626
  460SOL    HW2 3213   8.030   7.494   6.722
  461SOL     OW 3214   4.180  13.638   5.244
  461SOL    HW1 3215   4.096  13.645   5.199
  461SOL    HW2 3216   4.217  13.555   5.213
  462SOL     OW 3217  13.763  11.673   8.823
  462SOL    HW1 3218  13.776  11.669   8.728
  462SOL    HW2 3219  13.709  11.596   8.842
  463SOL     OW 3220   2.589  11.013  10.815
  463SOL    HW1 3221   2.631  11.028  10.730
  463SOL    HW2 3222   2.496  11.006  10.794
  464SOL     OW 3223  11.614   9.030   7.703
  464SOL    HW1 3224  11.532   9.045   7.749
  464SOL    HW2 3225  11.682   9.051   7.767
  465SOL     OW 3226  13.305   3.373  14.503
  465SOL    HW1 3227  13.367   3.407  14.439
  465SOL    HW2 3228  13.351   3.300  14.545
  466SOL     OW 3229   1.070  13.218   0.748
  466SOL    HW1 3230   1.057  13.137   0.797
  466SOL    HW2 3231   1.008  13.279   0.788
  467SOL     OW 3232   0.797   3.411   2.685
  467SOL    HW1 3233   0.843   3.446   2.762
  467SOL    HW2 3234   0.727   3.357   2.722
  468SOL     OW 3235   3.887   3.898  14.411
  468SOL    HW1 3236   3.881   3.879  14.505
  468SOL    HW2 3237   3.829   3.833  14.370
  469SOL     OW 3238   8.914   1.656  12.515
  469SOL    HW1 3239   8.834   1.646  12.566
  469SOL    HW2 3240   8.930   1.570  12.476
  470SOL     OW 3241   7.814   6.184   9.504
  470SOL    HW1 3242   7.771   6.120   9.562
  470SOL    HW2 3243   7.742   6.236   9.468
  471SOL     OW 3244   9.117   1.315   8.096
  471SOL    HW1 3245   9.188   1.329   8.159
  471SOL    HW2 3246   9.099   1.402   8.060
  472SOL     OW 3247   1.386   6.558   3.854
  472SOL    HW1 3248   1.388   6.647   3.890
  472SOL    HW2 3249   1.395   6.501   3.930
  473SOL     OW 3250  11.130   6.855  11.937
  473SOL    HW1 3251  11.140   6.782  11.876
  473SOL    HW2 3252  11.214   6.901  11.934
  474SOL     OW 3253   1.827  10.996  13.646
  474SOL    HW1 3254   1.837  10.916  13.697
  474SOL    HW2 3255   1.903  11.050  13.670
  475SOL     OW 3256   0.971   3.455   7.099
  475SOL    HW1 3257   0.937   3.398   7.030
  475SOL    HW2 3258   0.992   3.537   7.055
  476SOL     OW 3259   2.345   6.093   9.556
  476SOL    HW1 3260   2.343   6.139   9.640
  476SOL    HW2 3261   2.349   6.162   9.490
  477SOL     OW 3262   8.280   9.876  14.512
  477SOL    HW1 3263   8.326   9.885  14.428
  477SOL    HW2 3264   8.347   9.892  14.578
  478SOL     OW 3265   4.447   4.548   2.000
  478SOL    HW1 3266   4.492   4.472   2.036
  478SOL    HW2 3267   4.384   4.573   2.068
  479SOL     OW 3268   1.140   4.315   2.327
  479SOL    HW1 3269   1.155   4.349   2.239
  479SOL    HW2 3270   1.147   4.392   2.384
  480SOL     OW 3271  11.487   8.109  11.273
  480SOL    HW1 3272  11.503   8.060  11.193
  480SOL    HW2 3273  11.404   8.153  11.259
  481SOL     OW 3274  11.668   5.446  14.237
  481SOL    HW1 3275  11.666   5.389  14.160
  481SOL    HW2 3276  11.655   5.534  14.202
  482SOL     OW 3277   7.520   0.776   4.140
  482SOL    HW1 3278   7.538   0.706   4.077
  482SOL    HW2 3279   7.606   0.807   4.166
  483SOL     OW 3280  12.422   2.292   1.887
  483SOL    HW1 3281  12.490   2.235   1.851
  483SOL    HW2 3282  12.400   2.353   1.816
  484SOL     OW 3283   1.279   4.728   7.719
  484SOL    HW1 3284   1.236   4.806   7.684
  484SOL    HW2 3285   1.280   4.740   7.813
  485SOL     OW 3286  13.987   4.329  14.036
  485SOL    HW1 3287  13.929   4.400  14.009
  485SOL    HW2 3288  13.971   4.320  14.130
  486SOL     OW 3289   8.648   8.435   0.155
  486SOL    HW1 3290   8.642   8.346   0.191
  486SOL    HW2 3291   8.558   8.462   0.142
  487SOL     OW 3292   2.676  12.167   0.834
  487SOL    HW1 3293   2.734  12.104   0.791
  487SOL    HW2 3294   2.653  12.229   0.765
  488SOL     OW 3295   3.182  13.445  12.143
  488SOL    HW1 3296   3.152  13.381  12.206
  488SOL    HW2 3297   3.124  13.521  12.156
  489SOL     OW 3298   5.420  11.406   3.568
  489SOL    HW1 3299   5.394  11.323   3.608
  489SOL    HW2 3300   5.455  11.458   3.641
  490SOL     OW 3301  14.538   4.581  10.891
  490SOL    HW1 3302  14.609   4.551  10.947
  490SOL    HW2 3303  14.579   4.601  10.807
  491SOL     OW 3304   3.952   9.758   5.320
  491SOL    HW1 3305   3.969   9.710   5.239
  491SOL    HW2 3306   3.862   9.790   5.310
  492SOL     OW 3307   3.794   9.883   4.057
  492SOL    HW1 3308   3.723   9.923   4.107
  492SOL    HW2 3309   3.874   9.924   4.091
  493SOL     OW 3310   9.145   6.814   8.401
  493SOL    HW1 3311   9.232   6.849   8.418
  493SOL    HW2 3312   9.101   6.818   8.486
  494SOL     OW 3313   9.172   4.594   9.340
  494SOL    HW1 3314   9.086   4.628   9.315
  494SOL    HW2 3315   9.154   4.509   9.378
  495SOL     OW 3316   0.963   6.158   1.197
  495SOL    HW1 3317   1.025   6.143   1.126
  495SOL    HW2 3318   0.998   6.106   1.270
  496SOL     OW 3319  10.303  14.298   6.699
  496SOL    HW1 3320  10.271  14.366   6.759
  496SOL    HW2 3321  10.388  14.272   6.735
  497SOL     OW 3322   6.309   5.220   8.457
  497SOL    HW1 3323   6.318   5.315   8.453
  497SOL    HW2 3324   6.272   5.196   8.372
  498SOL     OW 3325  13.070  11.430   1.046
  498SOL    HW1 3326  13.125  11.499   1.010
  498SOL    HW2 3327  13.108  11.410   1.131
  499SOL     OW 3328   7.970   4.105   0.836
  499SOL    HW1 3329   7.992   4.149   0.918
  499SOL    HW2 3330   8.036   4.135   0.775
  500SOL     OW 3331   6.888  12.603  11.853
  500SOL    HW1 3332   6.919  12.597  11.762
  500SOL    HW2 3333   6.952  12.554  11.904
  501SOL     OW 3334   7.229   2.545   6.549
  501SOL    HW1 3335   7.240   2.624   6.496
  501SOL    HW2 3336   7.134   2.531   6.552
  502SOL     OW 3337  11.708  13.192   1.118
  502SOL    HW1 3338  11.659  13.111   1.131
  502SOL    HW2 3339  11.661  13.238   1.048
  503SOL     OW 3340   4.330   8.025   4.609
  503SOL    HW1 3341   4.277   7.964   4.660
  503SOL    HW2 3342   4.400   8.052   4.668
  504SOL     OW 3343   4.380  14.177   9.232
  504SOL    HW1 3344   4.295  14.188   9.189
  504SOL    HW2 3345   4.397  14.083   9.228
  505SOL     OW 3346   1.461   5.156   2.384
  505SOL    HW1 3347   1.412   5.202   2.317
  505SOL    HW2 3348   1.401   5.089   2.416
  506SOL     OW 3349   0.077   2.814   2.533
  506SOL    HW1 3350   0.129   2.894   2.539
  506SOL    HW2 3351  14.869   2.836   2.573
  507SOL     OW 3352  11.470   7.365   1.615
  507SOL    HW1 3353  11.526   7.425   1.566
  507SOL    HW2 3354  11.437   7.418   1.688
  508SOL     OW 3355   9.722   0.328   5.138
  508SOL    HW1 3356   9.728   0.233   5.127
  508SOL    HW2 3357   9.780   0.364   5.071
  509SOL     OW 3358   5.829   5.741  10.131
  509SOL    HW1 3359   5.893   5.695  10.076
  509SOL    HW2 3360   5.814   5.824  10.086
  510SOL     OW 3361  13.922   5.699   1.218
  510SOL    HW1 3362  13.945   5.613   1.251
  510SOL    HW2 3363  13.828   5.707   1.235
  511SOL     OW 3364   7.840   1.112  12.976
  511SOL    HW1 3365   7.745   1.100  12.984
  511SOL    HW2 3366   7.859   1.092  12.885
  512SOL     OW 3367   1.546   4.204   4.525
  512SOL    HW1 3368   1.597   4.240   4.453
  512SOL    HW2 3369   1.608   4.192   4.596
  513SOL     OW 3370   0.403  11.293   8.682
  513SOL    HW1 3371   0.474  11.230   8.671
  513SOL    HW2 3372   0.447  11.375   8.706
  514SOL     OW 3373   3.214   0.442   5.384
  514SOL    HW1 3374   3.126   0.429   5.419
  514SOL    HW2 3375   3.204   0.516   5.323
  515SOL     OW 3376  11.128   7.452   5.599
  515SOL    HW1 3377  11.083   7.524   5.554
  515SOL    HW2 3378  11.095   7.373   5.557
  516SOL     OW 3379  14.347   1.515  12.171
  516SOL    HW1 3380  14.379   1.605  12.170
  516SOL    HW2 3381  14.399   1.470  12.104
  517SOL     OW 3382  12.925  13.423   1.180
  517SOL    HW1 3383  12.930  13.378   1.096
  517SOL    HW2 3384  12.882  13.506   1.160
  518SOL     OW 3385   3.154   9.143   7.831
  518SOL    HW1 3386   3.191   9.195   7.902
  518SOL    HW2 3387   3.226   9.085   7.804
  519SOL     OW 3388  12.546   6.095   8.840
  519SOL    HW1 3389  12.562   6.183   8.806
  519SOL    HW2 3390  12.533   6.108   8.934
  520SOL     OW 3391  13.391   8.863  14.347
  520SOL    HW1 3392  13.364   8.813  14.270
  520SOL    HW2 3393  13.324   8.845  14.412
  521SOL     OW 3394   1.624  12.950  10.702
  521SOL    HW1 3395   1.679  13.023  10.673
  521SOL    HW2 3396   1.672  12.913  10.777
  522SOL     OW 3397   7.076   6.785  14.404
  522SOL    HW1 3398   7.131   6.710  14.381
  522SOL    HW2 3399   6.989   6.747  14.420
  523SOL     OW 3400  11.375   3.567   2.215
  523SOL    HW1 3401  11.373   3.497   2.149
  523SOL    HW2 3402  11.284   3.575   2.243
  524SOL     OW 3403   6.862  14.475   3.236
  524SOL    HW1 3404   6.835  14.470   3.144
  524SOL    HW2 3405   6.957  14.481   3.233
  525SOL     OW 3406  13.866   4.034  14.453
  525SOL    HW1 3407  13.923   4.048  14.377
  525SOL    HW2 3408  13.870   3.939  14.468
  526SOL     OW 3409  12.250  10.951   6.645
  526SOL    HW1 3410  12.324  11.012   6.642
  526SOL    HW2 3411  12.276  10.885   6.709
  527SOL     OW 3412  11.591  14.859   7.003
  527SOL    HW1 3413  11.605  14.768   7.027
  527SOL    HW2 3414  11.618  14.865   6.912
  528SOL     OW 3415   9.685   1.244  13.081
  528SOL    HW1 3416   9.600   1.279  13.057
  528SOL    HW2 3417   9.675   1.149  13.073
  529SOL     OW 3418   2.164   6.931  10.900
  529SOL    HW1 3419   2.227   7.001  10.881
  529SOL    HW2 3420   2.167   6.874  10.822
  530SOL     OW 3421   2.385  14.445   6.455
  530SOL    HW1 3422   2.322  14.477   6.520
  530SOL    HW2 3423   2.344  14.368   6.417
  531SOL     OW 3424   8.448   5.272   7.457
  531SOL    HW1 3425   8.505   5.324   7.401
  531SOL    HW2 3426   8.479   5.183   7.447
  532SOL     OW 3427   5.273  12.904   3.557
  532SOL    HW1 3428   5.214  12.975   3.581
  532SOL    HW2 3429   5.323  12.938   3.483
  533SOL     OW 3430  11.931   4.983  11.869
  533SOL    HW1 3431  11.874   4.910  11.843
  533SOL    HW2 3432  11.978   4.951  11.946
  534SOL     OW 3433   4.160   6.607   1.724
  534SOL    HW1 3434   4.234   6.577   1.671
  534SOL    HW2 3435   4.092   6.541   1.711
  535SOL     OW 3436   5.483   1.579   6.933
  535SOL    HW1 3437   5.471   1.484   6.936
  535SOL    HW2 3438   5.558   1.595   6.991
  536SOL     OW 3439   7.449  13.569   1.965
  536SOL    HW1 3440   7.388  13.641   1.974
  536SOL    HW2 3441   7.406  13.495   2.009
  537SOL     OW 3442  12.021   2.500  10.637
  537SOL    HW1 3443  11.937   2.538  10.662
  537SOL    HW2 3444  12.080   2.574  10.629
  538SOL     OW 3445   6.990   0.177   2.413
  538SOL    HW1 3446   6.983   0.271   2.427
  538SOL    HW2 3447   7.079   0.155   2.441
  539SOL     OW 3448   7.959   0.778   4.296
  539SOL    HW1 3449   7.996   0.863   4.320
  539SOL    HW2 3450   8.032   0.717   4.305
  540SOL     OW 3451   0.652  10.594   9.392
  540SOL    HW1 3452   0.612  10.633   9.470
  540SOL    HW2 3453   0.627  10.653   9.321
  541SOL     OW 3454   5.473  12.716   1.668
  541SOL    HW1 3455   5.551  12.737   1.719
  541SOL    HW2 3456   5.476  12.621   1.657
  542SOL     OW 3457  10.120   0.874  10.786
  542SOL    HW1 3458  10.105   0.805  10.850
  542SOL    HW2 3459  10.090   0.954  10.829
  543SOL     OW 3460   2.551   4.783  14.047
  543SOL    HW1 3461   2.621   4.738  13.999
  543SOL    HW2 3462   2.525   4.721  14.115
  544SOL     OW 3463   0.088   6.471   6.692
  544SOL    HW1 3464   0.171   6.459   6.738
  544SOL    HW2 3465   0.082   6.566   6.678
  545SOL     OW 3466   9.070  14.591   0.524
  545SOL    HW1 3467   9.132  14.530   0.564
  545SOL    HW2 3468   8.984  14.562   0.556
  546SOL     OW 3469  10.595   3.151  12.655
  546SOL    HW1 3470  10.634   3.069  12.624
  546SOL    HW2 3471  10.669   3.201  12.691
  547SOL     OW 3472   9.310   5.789   2.596
  547SOL    HW1 3473   9.289   5.801   2.689
  547SOL    HW2 3474   9.241   5.837   2.550
  548SOL     OW 3475  12.475  11.844   7.392
  548SOL    HW1 3476  12.527  11.789   7.450
  548SOL    HW2 3477  12.532  11.920   7.375
  549SOL     OW 3478   7.435  11.021  11.859
  549SOL    HW1 3479   7.403  11.067  11.936
  549SOL    HW2 3480   7.423  11.082  11.786
  550SOL     OW 3481   9.268   3.634  14.283
  550SOL    HW1 3482   9.185   3.605  14.320
  550SOL    HW2 3483   9.311   3.553  14.255
  551SOL     OW 3484   4.193   8.481   5.231
  551SOL    HW1 3485   4.132   8.433   5.288
  551SOL    HW2 3486   4.185   8.572   5.259
  552SOL     OW 3487   3.217  11.931   7.029
  552SOL    HW1 3488   3.147  11.937   6.964
  552SOL    HW2 3489   3.294  11.966   6.985
  553SOL     OW 3490  12.407  13.041   3.839
  553SOL    HW1 3491  12.414  13.136   3.839
  553SOL    HW2 3492  12.390  13.018   3.930
  554SOL     OW 3493   0.068   2.533  12.249
  554SOL    HW1 3494   0.042   2.513  12.159
  554SOL    HW2 3495   0.036   2.622  12.264
  555SOL     OW 3496  12.628  12.668   9.609
  555SOL    HW1 3497  12.538  12.640   9.595
  555SOL    HW2 3498  12.681  12.590   9.591
  556SOL     OW 3499  10.274   3.781   8.218
  556SOL    HW1 3500  10.220   3.848   8.260
  556SOL    HW2 3501  10.356   3.783   8.267
  557SOL     OW 3502  10.481   2.644   0.694
  557SOL    HW1 3503  10.450   2.593   0.769
  557SOL    HW2 3504  10.566   2.678   0.721
  558SOL     OW 3505   9.065  13.099   2.873
  558SOL    HW1 3506   9.009  13.166   2.835
  558SOL    HW2 3507   9.126  13.147   2.928
  559SOL     OW 3508   9.514   3.122   0.698
  559SOL    HW1 3509   9.599   3.124   0.655
  559SOL    HW2 3510   9.526   3.064   0.773
  560SOL     OW 3511   8.186   9.155   4.649
  560SOL    HW1 3512   8.165   9.103   4.726
  560SOL    HW2 3513   8.104   9.196   4.623
  561SOL     OW 3514   5.338  10.762  10.247
  561SOL    HW1 3515   5.409  10.752  10.311
  561SOL    HW2 3516   5.259  10.734  10.294
  562SOL     OW 3517   8.939   2.222   7.048
  562SOL    HW1 3518   8.965   2.138   7.008
  562SOL    HW2 3519   8.855   2.242   7.007
  563SOL     OW 3520   4.113   3.007  11.375
  563SOL    HW1 3521   4.096   3.065  11.301
  563SOL    HW2 3522   4.058   2.930  11.359
  564SOL     OW 3523  14.678   6.686   4.646
  564SOL    HW1 3524  14.654   6.650   4.561
  564SOL    HW2 3525  14.618   6.760   4.659
  565SOL     OW 3526  13.207   7.222  10.166
  565SOL    HW1 3527  13.301   7.207  10.164
  565SOL    HW2 3528  13.169   7.140  10.135
  566SOL     OW 3529   7.430   3.053   1.742
  566SOL    HW1 3530   7.455   3.137   1.704
  566SOL    HW2 3531   7.389   3.005   1.670
  567SOL     OW 3532  11.085   3.904   7.716
  567SOL    HW1 3533  11.026   3.829   7.710
  567SOL    HW2 3534  11.068   3.956   7.637
  568SOL     OW 3535   6.856   5.874  14.389
  568SOL    HW1 3536   6.928   5.904  14.444
  568SOL    HW2 3537   6.787   5.939  14.403
  569SOL     OW 3538   5.242  13.015  10.659
  569SOL    HW1 3539   5.219  13.105  10.680
  569SOL    HW2 3540   5.246  13.013  10.564
  570SOL     OW 3541   3.260   9.313   5.662
  570SOL    HW1 3542   3.308   9.321   5.744
  570SOL    HW2 3543   3.179   9.363   5.676
  571SOL     OW 3544  10.245   3.028   0.410
  571SOL    HW1 3545  10.151   3.026   0.393
  571SOL    HW2 3546  10.252   3.048   0.503
  572SOL     OW 3547  13.758   3.598  10.894
  572SOL    HW1 3548  13.804   3.515  10.877
  572SOL    HW2 3549  13.756   3.605  10.989
  573SOL     OW 3550   1.583  12.526  12.395
  573SOL    HW1 3551   1.643  12.476  12.340
  573SOL    HW2 3552   1.641  12.585  12.444
  574SOL     OW 3553   9.062   2.151  13.408
  574SOL    HW1 3554   9.048   2.244  13.388
  574SOL    HW2 3555   9.155   2.136  13.387
  575SOL     OW 3556  12.698  11.590   4.063
  575SOL    HW1 3557  12.743  11.542   3.993
  575SOL    HW2 3558  12.620  11.538   4.082
  576SOL     OW 3559   2.163   9.472   1.729
  576SOL    HW1 3560   2.147   9.419   1.652
  576SOL    HW2 3561   2.089   9.533   1.732
  577SOL     OW 3562   6.253  11.254   9.188
  577SOL    HW1 3563   6.235  11.247   9.282
  577SOL    HW2 3564   6.182  11.204   9.146
  578SOL     OW 3565   7.072  14.127   9.509
  578SOL    HW1 3566   7.119  14.104   9.430
  578SOL    HW2 3567   7.126  14.194   9.551
  579SOL     OW 3568   1.600   6.591   0.953
  579SOL    HW1 3569   1.512   6.620   0.975
  579SOL    HW2 3570   1.656   6.631   1.019
  580SOL     OW 3571   3.379  14.251   1.421
  580SOL    HW1 3572   3.331  14.330   1.397
  580SOL    HW2 3573   3.356  14.188   1.352
  581SOL     OW 3574   6.139   5.219   8.215
  581SOL    HW1 3575   6.044   5.208   8.209
  581SOL    HW2 3576   6.155   5.307   8.180
  582SOL     OW 3577  12.088  14.747   1.989
  582SOL    HW1 3578  12.021  14.762   2.056
  582SOL    HW2 3579  12.171  14.766   2.033
  583SOL     OW 3580  14.464  14.622  12.036
  583SOL    HW1 3581  14.370  14.602  12.039
  583SOL    HW2 3582  14.507  14.537  12.031
  584SOL     OW 3583   9.053   4.025   4.872
  584SOL    HW1 3584   9.030   4.076   4.950
  584SOL    HW2 3585   9.147   4.009   4.881
  585SOL     OW 3586   0.409   0.739   0.502
  585SOL    HW1 3587   0.387   0.739   0.595
  585SOL    HW2 3588   0.430   0.831   0.482
  586SOL     OW 3589   1.597   1.619   1.492
  586SOL    HW1 3590   1.526   1.672   1.528
  586SOL    HW2 3591   1.675   1.649   1.538
  587SOL     OW 3592   4.501  10.922  11.361
  587SOL    HW1 3593   4.486  10.973  11.281
  587SOL    HW2 3594   4.587  10.951  11.392
  588SOL     OW 3595  11.499   0.650   1.158
  588SOL    HW1 3596  11.462   0.736   1.142
  588SOL    HW2 3597  11.476   0.631   1.249
  589SOL     OW 3598   1.639  12.460  12.870
  589SOL    HW1 3599   1.551  12.439  12.838
  589SOL    HW2 3600   1.668  12.381  12.914
  590SOL     OW 3601   2.378   1.343   3.517
  590SOL    HW1 3602   2.444   1.337   3.447
  590SOL    HW2 3603   2.304   1.387   3.476
  591SOL     OW 3604  14.711   7.083   0.561
  591SOL    HW1 3605  14.760   7.144   0.504
  591SOL    HW2 3606  14.672   7.138   0.628
  592SOL     OW 3607   3.605  13.326   6.471
  592SOL    HW1 3608   3.650  13.395   6.518
  592SOL    HW2 3609   3.652  13.245   6.493
  593SOL     OW 3610  13.799  12.554   7.446
  593SOL    HW1 3611  13.725  12.593   7.399
  593SOL    HW2 3612  13.875  12.576   7.394
  594SOL     OW 3613  12.056   5.943   3.943
  594SOL    HW1 3614  11.968   5.911   3.963
  594SOL    HW2 3615  12.068   6.018   4.001
  595SOL     OW 3616   7.573   0.262   2.665
  595SOL    HW1 3617   7.634   0.198   2.629
  595SOL    HW2 3618   7.578   0.250   2.760
  596SOL     OW 3619   1.930   6.135   8.130
  596SOL    HW1 3620   2.017   6.108   8.101
  596SOL    HW2 3621   1.904   6.204   8.069
  597SOL     OW 3622   8.403   2.476   2.357
  597SOL    HW1 3623   8.338   2.480   2.287
  597SOL    HW2 3624   8.408   2.565   2.391
  598SOL     OW 3625  11.437  13.395   4.297
  598SOL    HW1 3626  11.361  13.435   4.254
  598SOL    HW2 3627  11.513  13.433   4.253
  599SOL     OW 3628  10.196   8.165   4.624
  599SOL    HW1 3629  10.257   8.238   4.634
  599SOL    HW2 3630  10.172   8.166   4.531
  600SOL     OW 3631  14.827   0.542  11.981
  600SOL    HW1 3632  14.827   0.448  11.960
  600SOL    HW2 3633  14.854   0.546  12.072
  601SOL     OW 3634   0.619   9.111   5.799
  601SOL    HW1 3635   0.635   9.033   5.853
  601SOL    HW2 3636   0.523   9.116   5.793
  602SOL     OW 3637   1.340   5.062  13.065
  602SOL    HW1 3638   1.381   5.086  13.148
  602SOL    HW2 3639   1.323   5.146  13.022
  603SOL     OW 3640   5.974   3.476  11.486
  603SOL    HW1 3641   6.012   3.556  11.521
  603SOL    HW2 3642   5.975   3.488  11.391
  604SOL     OW 3643   4.201   3.254  14.809
  604SOL    HW1 3644   4.223   3.255  14.716
  604SOL    HW2 3645   4.216   3.344  14.838
  605SOL     OW 3646   1.632  11.537  10.104
  605SOL    HW1 3647   1.610  11.470  10.040
  605SOL    HW2 3648   1.728  11.542  10.103
  606SOL     OW 3649   0.330   3.065   2.032
  606SOL    HW1 3650   0.344   3.116   1.953
  606SOL    HW2 3651   0.293   2.982   2.002
  607SOL     OW 3652   2.891   2.659   9.304
  607SOL    HW1 3653   2.978   2.625   9.285
  607SOL    HW2 3654   2.895   2.751   9.276
  608SOL     OW 3655   7.838  12.573   0.280
  608SOL    HW1 3656   7.883  12.488   0.287
  608SOL    HW2 3657   7.809  12.577   0.189
  609SOL     OW 3658   7.640   2.253   2.077
  609SOL    HW1 3659   7.605   2.320   2.135
  609SOL    HW2 3660   7.640   2.293   1.990
  610SOL     OW 3661   7.044  11.433   2.715
  610SOL    HW1 3662   7.057  11.527   2.726
  610SOL    HW2 3663   7.024  11.423   2.622
  611SOL     OW 3664  12.874   5.614   0.180
  611SOL    HW1 3665  12.946   5.552   0.171
  611SOL    HW2 3666  12.865   5.629   0.274
  612SOL     OW 3667   8.622  11.188   4.189
  612SOL    HW1 3668   8.614  11.262   4.129
  612SOL    HW2 3669   8.663  11.225   4.267
  613SOL     OW 3670  13.898   1.032   2.497
  613SOL    HW1 3671  13.980   0.983   2.490
  613SOL    HW2 3672  13.909   1.105   2.437
  614SOL     OW 3673  14.230   5.304   4.919
  614SOL    HW1 3674  14.301   5.267   4.973
  614SOL    HW2 3675  14.234   5.398   4.937
  615SOL     OW 3676   9.415   3.689   1.714
  615SOL    HW1 3677   9.408   3.601   1.677
  615SOL    HW2 3678   9.439   3.675   1.805
  616SOL     OW 3679   0.970   4.015   7.256
  616SOL    HW1 3680   0.975   4.086   7.320
  616SOL    HW2 3681   0.923   4.053   7.182
  617SOL     OW 3682   4.320   5.231   4.730
  617SOL    HW1 3683   4.254   5.300   4.744
  617SOL    HW2 3684   4.322   5.183   4.813
  618SOL     OW 3685   3.385  11.872   3.482
  618SOL    HW1 3686   3.458  11.877   3.419
  618SOL    HW2 3687   3.389  11.955   3.529
  619SOL     OW 3688   5.711   0.511   8.035
  619SOL    HW1 3689   5.771   0.584   8.021
  619SOL    HW2 3690   5.628   0.541   7.996
  620SOL     OW 3691   3.362   6.589  11.823
  620SOL    HW1 3692   3.365   6.527  11.895
  620SOL    HW2 3693   3.450   6.627  11.820
  621SOL     OW 3694  12.079   5.035  13.364
  621SOL    HW1 3695  12.043   5.066  13.281
  621SOL    HW2 3696  12.017   4.968  13.394
  622SOL     OW 3697   3.695   1.160   8.919
  622SOL    HW1 3698   3.669   1.136   8.830
  622SOL    HW2 3699   3.790   1.147   8.921
  623SOL     OW 3700   5.776   0.516   3.269
  623SOL    HW1 3701   5.854   0.484   3.314
  623SOL    HW2 3702   5.710   0.449   3.286
  624SOL     OW 3703   2.070  10.026   7.742
  624SOL    HW1 3704   2.016  10.022   7.820
  624SOL    HW2 3705   2.160  10.033   7.774
  625SOL     OW 3706  13.753   9.329   9.058
  625SOL    HW1 3707  13.699   9.251   9.072
  625SOL    HW2 3708  13.789   9.350   9.144
  626SOL     OW 3709  11.486  12.403  13.048
  626SOL    HW1 3710  11.510  12.370  12.961
  626SOL    HW2 3711  11.453  12.325  13.094
  627SOL     OW 3712   7.276   6.935   7.566
  627SOL    HW1 3713   7.231   6.980   7.495
  627SOL    HW2 3714   7.229   6.961   7.645
  628SOL     OW 3715  14.431   1.009  11.089
  628SOL    HW1 3716  14.467   1.087  11.131
  628SOL    HW2 3717  14.425   0.945  11.160
  629SOL     OW 3718   9.913   2.189   0.818
  629SOL    HW1 3719   9.903   2.116   0.879
  629SOL    HW2 3720   9.824   2.215   0.796
  630SOL     OW 3721   3.869   4.486   9.903
  630SOL    HW1 3722   3.815   4.517   9.829
  630SOL    HW2 3723   3.827   4.524   9.980
  631SOL     OW 3724   5.018   5.876  13.376
  631SOL    HW1 3725   5.032   5.954  13.322
  631SOL    HW2 3726   4.927   5.852  13.361
  632SOL     OW 3727   9.258   4.719  12.145
  632SOL    HW1 3728   9.299   4.802  12.123
  632SOL    HW2 3729   9.230   4.683  12.061
  633SOL     OW 3730   5.067   4.545   6.642
  633SOL    HW1 3731   5.023   4.487   6.580
  633SOL    HW2 3732   5.118   4.605   6.587
  634SOL     OW 3733   1.085  12.181  13.665
  634SOL    HW1 3734   1.131  12.176  13.748
  634SOL    HW2 3735   1.013  12.242  13.681
  635SOL     OW 3736  12.278   4.115   4.890
  635SOL    HW1 3737  12.256   4.194   4.841
  635SOL    HW2 3738  12.274   4.141   4.982
  636SOL     OW 3739  10.900   1.614  11.409
  636SOL    HW1 3740  10.933   1.683  11.351
  636SOL    HW2 3741  10.936   1.636  11.495
  637SOL     OW 3742   6.057   0.346  14.017
  637SOL    HW1 3743   6.091   0.414  14.076
  637SOL    HW2 3744   5.999   0.393  13.958
  638SOL     OW 3745   4.360  10.484   3.374
  638SOL    HW1 3746   4.440  10.524   3.408
  638SOL    HW2 3747   4.301  10.557   3.359
  639SOL     OW 3748   9.595   9.761   3.091
  639SOL    HW1 3749   9.560   9.839   3.047
  639SOL    HW2 3750   9.670   9.735   3.037
  640SOL     OW 3751  11.219   4.857   9.163
  640SOL    HW1 3752  11.224   4.924   9.095
  640SOL    HW2 3753  11.137   4.876   9.210
  641SOL     OW 3754   4.453   0.655   1.882
  641SOL    HW1 3755   4.387   0.606   1.834
  641SOL    HW2 3756   4.485   0.720   1.818
  642SOL     OW 3757   6.114   2.051  14.650
  642SOL    HW1 3758   6.063   2.021  14.574
  642SOL    HW2 3759   6.184   2.105  14.611
  643SOL     OW 3760   9.788   2.090   4.434
  643SOL    HW1 3761   9.756   2.151   4.500
  643SOL    HW2 3762   9.874   2.062   4.468
  644SOL     OW 3763  11.236   8.536  13.644
  644SOL    HW1 3764  11.276   8.610  13.599
  644SOL    HW2 3765  11.308   8.496  13.693
  645SOL     OW 3766  13.000  13.773   1.753
  645SOL    HW1 3767  13.041  13.792   1.668
  645SOL    HW2 3768  13.052  13.701   1.789
  646SOL     OW 3769   6.051  13.942  13.686
  646SOL    HW1 3770   5.970  13.898  13.663
  646SOL    HW2 3771   6.066  14.004  13.615
  647SOL     OW 3772   1.912   1.156  10.031
  647SOL    HW1 3773   1.946   1.162   9.941
  647SOL    HW2 3774   1.885   1.065  10.040
  648SOL     OW 3775   2.137   6.513   7.181
  648SOL    HW1 3776   2.154   6.424   7.151
  648SOL    HW2 3777   2.184   6.569   7.120
  649SOL     OW 3778  10.081  10.939  13.925
  649SOL    HW1 3779   9.996  10.931  13.881
  649SOL    HW2 3780  10.140  10.973  13.857
  650SOL     OW 3781   3.000   6.146   4.758
  650SOL    HW1 3782   3.008   6.054   4.785
  650SOL    HW2 3783   3.072   6.159   4.697
  651SOL     OW 3784   7.812   6.523   3.543
  651SOL    HW1 3785   7.724   6.514   3.581
  651SOL    HW2 3786   7.797   6.547   3.452
  652SOL     OW 3787  12.785  10.944   7.731
  652SOL    HW1 3788  12.793  11.035   7.760
  652SOL    HW2 3789  12.847  10.937   7.658
  653SOL     OW 3790   1.997   6.202   7.650
  653SOL    HW1 3791   1.933   6.178   7.717
  653SOL    HW2 3792   1.965   6.158   7.571
  654SOL     OW 3793   2.345  14.292   1.373
  654SOL    HW1 3794   2.404  14.257   1.439
  654SOL    HW2 3795   2.370  14.247   1.292
  655SOL     OW 3796   7.511   8.016   3.398
  655SOL    HW1 3797   7.506   8.084   3.331
  655SOL    HW2 3798   7.453   8.046   3.467
  656SOL     OW 3799   9.083   6.875   7.761
  656SOL    HW1 3800   9.094   6.825   7.680
  656SOL    HW2 3801   9.152   6.942   7.758
  657SOL     OW 3802   2.343  12.474   8.727
  657SOL    HW1 3803   2.420  12.438   8.771
  657SOL    HW2 3804   2.375  12.504   8.643
  658SOL     OW 3805   2.359   6.901   6.990
  658SOL    HW1 3806   2.319   6.987   6.999
  658SOL    HW2 3807   2.447   6.911   7.026
  659SOL     OW 3808  14.663   6.822  14.452
  659SOL    HW1 3809  14.652   6.892  14.388
  659SOL    HW2 3810  14.626   6.858  14.533
  660SOL     OW 3811   4.207  12.008  11.134
  660SOL    HW1 3812   4.177  12.059  11.059
  660SOL    HW2 3813   4.230  11.923  11.097
  661SOL     OW 3814  11.749   5.882   5.417
  661SOL    HW1 3815  11.702   5.826   5.479
  661SOL    HW2 3816  11.698   5.875   5.336
  662SOL     OW 3817   5.430  10.227  11.188
  662SOL    HW1 3818   5.449  10.202  11.279
  662SOL    HW2 3819   5.467  10.155  11.136
  663SOL     OW 3820  11.857   3.309   4.619
  663SOL    HW1 3821  11.935   3.346   4.578
  663SOL    HW2 3822  11.820   3.253   4.552
  664SOL     OW 3823   9.940  12.640   7.620
  664SOL    HW1 3824   9.993  12.718   7.603
  664SOL    HW2 3825   9.861  12.653   7.568
  665SOL     OW 3826   0.104   4.117   8.610
  665SOL    HW1 3827   0.040   4.153   8.672
  665SOL    HW2 3828   0.056   4.048   8.563
  666SOL     OW 3829   0.422  12.438   3.217
  666SOL    HW1 3830   0.479  12.514   3.204
  666SOL    HW2 3831   0.481  12.368   3.245
  667SOL     OW 3832  14.849  14.517   5.860
  667SOL    HW1 3833   0.067  14.525   5.876
  667SOL    HW2 3834  14.808  14.574   5.925
  668SOL     OW 3835   6.027   9.321   8.582
  668SOL    HW1 3836   6.020   9.289   8.672
  668SOL    HW2 3837   6.061   9.410   8.591
  669SOL     OW 3838  13.649  11.513  11.518
  669SOL    HW1 3839  13.608  11.592  11.553
  669SOL    HW2 3840  13.607  11.499  11.433
  670SOL     OW 3841   7.534   8.268   3.308
  670SOL    HW1 3842   7.524   8.325   3.232
  670SOL    HW2 3843   7.515   8.325   3.383
  671SOL     OW 3844  13.792   6.843   1.400
  671SOL    HW1 3845  13.775   6.847   1.306
  671SOL    HW2 3846  13.841   6.762   1.412
  672SOL     OW 3847  14.345  10.751  13.458
  672SOL    HW1 3848  14.372  10.777  13.546
  672SOL    HW2 3849  14.249  10.757  13.460
  673SOL     OW 3850   8.895   6.204  10.127
  673SOL    HW1 3851   8.921   6.132  10.185
  673SOL    HW2 3852   8.814   6.174  10.086
  674SOL     OW 3853   0.960   7.538   6.289
  674SOL    HW1 3854   1.027   7.553   6.355
  674SOL    HW2 3855   1.004   7.555   6.206
  675SOL     OW 3856   2.779  14.648   6.052
  675SOL    HW1 3857   2.777  14.738   6.083
  675SOL    HW2 3858   2.824  14.599   6.120
  676SOL     OW 3859  14.855  14.329   0.500
  676SOL    HW1 3860  14.870  14.267   0.429
  676SOL    HW2 3861   0.060  14.379   0.506
  677SOL     OW 3862  14.482   4.046   4.785
  677SOL    HW1 3863  14.395   4.050   4.745
  677SOL    HW2 3864  14.507   4.138   4.796
  678SOL     OW 3865  11.040   4.648   3.801
  678SOL    HW1 3866  11.028   4.734   3.840
  678SOL    HW2 3867  10.994   4.653   3.717
  679SOL     OW 3868  11.301  14.351   2.302
  679SOL    HW1 3869  11.310  14.376   2.210
  679SOL    HW2 3870  11.206  14.343   2.315
  680SOL     OW 3871  12.220   7.111   4.927
  680SOL    HW1 3872  12.149   7.175   4.933
  680SOL    HW2 3873  12.280   7.135   4.997
  681SOL     OW 3874  11.849  11.486   6.994
  681SOL    HW1 3875  11.771  11.431   6.990
  681SOL    HW2 3876  11.850  11.518   7.085
  682SOL     OW 3877   6.782   5.520  10.231
  682SOL    HW1 3878   6.692   5.528  10.263
  682SOL    HW2 3879   6.787   5.581  10.158
  683SOL     OW 3880  14.831   7.380   1.653
  683SOL    HW1 3881   0.011   7.395   1.577
  683SOL    HW2 3882  14.846   7.289   1.677
  684SOL     OW 3883   0.295  13.784   9.936
  684SOL    HW1 3884   0.291  13.808   9.843
  684SOL    HW2 3885   0.253  13.698   9.940
  685SOL     OW 3886   6.107   9.018   6.712
  685SOL    HW1 3887   6.049   9.045   6.783
  685SOL    HW2 3888   6.111   9.094   6.654
  686SOL     OW 3889  13.617   8.016   1.532
  686SOL    HW1 3890  13.686   7.961   1.571
  686SOL    HW2 3891  13.588   7.967   1.455
  687SOL     OW 3892   3.368  14.761   1.221
  687SOL    HW1 3893   3.333  14.718   1.298
  687SOL    HW2 3894   3.295  14.813   1.187
  688SOL     OW 3895   3.091   3.416  12.099
  688SOL    HW1 3896   3.161   3.479  12.078
  688SOL    HW2 3897   3.034   3.418  12.021
  689SOL     OW 3898   9.021   1.961  13.749
  689SOL    HW1 3899   9.011   2.056  13.748
  689SOL    HW2 3900   9.072   1.942  13.827
  690SOL     OW 3901   1.054   2.128  10.286
  690SOL    HW1 3902   1.147   2.108  10.276
  690SOL    HW2 3903   1.049   2.182  10.366
  691SOL     OW 3904  13.320   4.083  11.563
  691SOL    HW1 3905  13.299   4.074  11.656
  691SOL    HW2 3906  13.392   4.147  11.561
  692SOL     OW 3907   8.129   9.426   0.660
  692SOL    HW1 3908   8.045   9.473   0.661
  692SOL    HW2 3909   8.167   9.445   0.745
  693SOL     OW 3910   5.208   4.866   4.232
  693SOL    HW1 3911   5.138   4.801   4.224
  693SOL    HW2 3912   5.282   4.827   4.185
  694SOL     OW 3913  11.465   1.897   5.860
  694SOL    HW1 3914  11.442   1.835   5.929
  694SOL    HW2 3915  11.561   1.894   5.856
  695SOL     OW 3916   8.902   0.455   9.375
  695SOL    HW1 3917   8.959   0.403   9.318
  695SOL    HW2 3918   8.961   0.490   9.442
  696SOL     OW 3919   9.253   2.756   7.275
  696SOL    HW1 3920   9.253   2.686   7.210
  696SOL    HW2 3921   9.324   2.814   7.249
  697SOL     OW 3922   8.195   0.994   9.841
  697SOL    HW1 3923   8.254   0.927   9.807
  697SOL    HW2 3924   8.253   1.058   9.883
  698SOL     OW 3925   3.449   0.006   1.661
  698SOL    HW1 3926   3.476   0.039   1.747
  698SOL    HW2 3927   3.459  14.787   1.668
  699SOL     OW 3928   1.827  13.469  13.674
  699SOL    HW1 3929   1.919  13.469  13.646
  699SOL    HW2 3930   1.808  13.377  13.693
  700SOL     OW 3931   7.712   9.980   6.324
  700SOL    HW1 3932   7.794   9.945   6.359
  700SOL    HW2 3933   7.668  10.018   6.400
  701SOL     OW 3934  13.420   0.809  12.346
  701SOL    HW1 3935  13.513   0.820  12.363
  701SOL    HW2 3936  13.385   0.767  12.425
  702SOL     OW 3937   2.166  14.578  10.151
  702SOL    HW1 3938   2.191  14.554  10.063
  702SOL    HW2 3939   2.244  14.563  10.204
  703SOL     OW 3940  12.922  11.293  11.293
  703SOL    HW1 3941  12.990  11.361  11.289
  703SOL    HW2 3942  12.855  11.322  11.231
  704SOL     OW 3943  10.376   5.124   0.098
  704SOL    HW1 3944  10.431   5.188   0.144
  704SOL    HW2 3945  10.413   5.039   0.122
  705SOL     OW 3946   5.321   9.288   7.753
  705SOL    HW1 3947   5.397   9.340   7.781
  705SOL    HW2 3948   5.267   9.281   7.832
  706SOL     OW 3949  12.430  14.599  14.182
  706SOL    HW1 3950  12.405  14.643  14.101
  706SOL    HW2 3951  12.521  14.572  14.168
  707SOL     OW 3952   1.481   2.456   0.251
  707SOL    HW1 3953   1.545   2.474   0.320
  707SOL    HW2 3954   1.423   2.532   0.251
  708SOL     OW 3955  14.519   0.637   4.978
  708SOL    HW1 3956  14.481   0.694   4.911
  708SOL    HW2 3957  14.583   0.583   4.931
  709SOL     OW 3958   8.730  14.441  14.671
  709SOL    HW1 3959   8.654  14.383  14.667
  709SOL    HW2 3960   8.760  14.437  14.762
  710SOL     OW 3961  11.593   3.208   1.850
  710SOL    HW1 3962  11.620   3.253   1.770
  710SOL    HW2 3963  11.649   3.246   1.919
  711SOL     OW 3964  14.216  14.637  11.470
  711SOL    HW1 3965  14.260  14.636  11.385
  711SOL    HW2 3966  14.193  14.545  11.486
  712SOL     OW 3967   8.058  10.963   0.799
  712SOL    HW1 3968   8.080  11.056   0.807
  712SOL    HW2 3969   7.965  10.958   0.821
  713SOL     OW 3970   1.476   2.886  10.931
  713SOL    HW1 3971   1.485   2.944  11.006
  713SOL    HW2 3972   1.544   2.914  10.870
  714SOL     OW 3973   2.370   8.785   4.211
  714SOL    HW1 3974   2.398   8.695   4.229
  714SOL    HW2 3975   2.285   8.775   4.169
  715SOL     OW 3976  12.352   1.786   2.986
  715SOL    HW1 3977  12.274   1.826   3.025
  715SOL    HW2 3978  12.339   1.692   2.995
  716SOL     OW 3979  12.138   6.167   4.080
  716SOL    HW1 3980  12.224   6.169   4.038
  716SOL    HW2 3981  12.156   6.184   4.173
  717SOL     OW 3982   8.875  11.898  12.202
  717SOL    HW1 3983   8.796  11.950  12.213
  717SOL    HW2 3984   8.887  11.854  12.286
  718SOL     OW 3985  14.789  12.804   9.987
  718SOL    HW1 3986  14.844  12.878  10.011
  718SOL    HW2 3987  14.742  12.833   9.908
  719SOL     OW 3988   9.371   4.790   0.729
  719SOL    HW1 3989   9.460   4.774   0.698
  719SOL    HW2 3990   9.375   4.877   0.770
  720SOL     OW 3991  10.834   1.557   0.675
  720SOL    HW1 3992  10.810   1.646   0.701
  720SOL    HW2 3993  10.769   1.533   0.609
  721SOL     OW 3994   2.667   2.338   4.093
  721SOL    HW1 3995   2.640   2.363   4.181
  721SOL    HW2 3996   2.616   2.259   4.074
  722SOL     OW 3997   2.390   8.881   3.481
  722SOL    HW1 3998   2.363   8.951   3.541
  722SOL    HW2 3999   2.456   8.921   3.425
  723SOL     OW 4000   2.170  14.318   5.761
  723SOL    HW1 4001   2.217  14.235   5.768
  723SOL    HW2 4002   2.218  14.378   5.819
  724SOL     OW 4003   6.066  14.076   9.754
  724SOL    HW1 4004   6.116  14.122   9.687
  724SOL    HW2 4005   5.992  14.039   9.707
  725SOL     OW 4006   8.312   1.709  13.853
  725SOL    HW1 4007   8.338   1.645  13.787
  725SOL    HW2 4008   8.385   1.771  13.855
  726SOL     OW 4009   3.290   2.357   3.018
  726SOL    HW1 4010   3.255   2.319   2.937
  726SOL    HW2 4011   3.351   2.424   2.988
  727SOL     OW 4012   1.662   6.725   5.352
  727SOL    HW1 4013   1.742   6.683   5.383
  727SOL    HW2 4014   1.623   6.661   5.292
  728SOL     OW 4015  11.028   1.633   1.969
  728SOL    HW1 4016  11.118   1.602   1.961
  728SOL    HW2 4017  11.022   1.666   2.059
  729SOL     OW 4018   8.905   0.361  14.374
  729SOL    HW1 4019   8.925   0.348  14.466
  729SOL    HW2 4020   8.904   0.274  14.336
  730SOL     OW 4021  11.790   4.079   1.625
  730SOL    HW1 4022  11.764   4.062   1.535
  730SOL    HW2 4023  11.817   3.993   1.659
  731SOL     OW 4024   5.371   3.467  10.519
  731SOL    HW1 4025   5.375   3.477  10.424
  731SOL    HW2 4026   5.283   3.431  10.535
  732SOL     OW 4027   4.057   4.494   1.027
  732SOL    HW1 4028   4.001   4.456   1.095
  732SOL    HW2 4029   4.095   4.572   1.067
  733SOL     OW 4030   0.069   2.965   4.499
  733SOL    HW1 4031   0.076   3.058   4.519
  733SOL    HW2 4032   0.144   2.925   4.542
  734SOL     OW 4033  11.590   0.448   9.414
  734SOL    HW1 4034  11.541   0.368   9.431
  734SOL    HW2 4035  11.594   0.454   9.318
  735SOL     OW 4036   6.413   5.046   7.147
  735SOL    HW1 4037   6.439   4.984   7.215
  735SOL    HW2 4038   6.455   5.014   7.067
  736SOL     OW 4039   7.057   6.943   5.628
  736SOL    HW1 4040   7.063   7.005   5.701
  736SOL    HW2 4041   6.975   6.896   5.644
  737SOL     OW 4042   3.177  11.099  13.793
  737SOL    HW1 4043   3.098  11.065  13.835
  737SOL    HW2 4044   3.152  11.185  13.760
  738SOL     OW 4045   5.065  14.010   5.306
  738SOL    HW1 4046   5.050  13.920   5.275
  738SOL    HW2 4047   5.144  14.003   5.359
  739SOL     OW 4048  10.577   3.818  14.719
  739SOL    HW1 4049  10.551   3.750  14.657
  739SOL    HW2 4050  10.651   3.779  14.766
  740SOL     OW 4051   6.166   6.075   5.820
  740SOL    HW1 4052   6.084   6.027   5.831
  740SOL    HW2 4053   6.234   6.008   5.825
  741SOL     OW 4054  10.255  14.795   8.373
  741SOL    HW1 4055  10.234  14.870   8.428
  741SOL    HW2 4056  10.264  14.722   8.434
  742SOL     OW 4057   7.089   5.627  13.563
  742SOL    HW1 4058   7.057   5.716  13.566
  742SOL    HW2 4059   7.012   5.573  13.546
  743SOL     OW 4060  10.521  11.075   8.631
  743SOL    HW1 4061  10.510  11.170   8.640
  743SOL    HW2 4062  10.615  11.064   8.614
  744SOL     OW 4063  13.100   7.902   7.312
  744SOL    HW1 4064  13.118   7.989   7.348
  744SOL    HW2 4065  13.122   7.842   7.384
  745SOL     OW 4066  14.087   1.415   4.709
  745SOL    HW1 4067  14.127   1.498   4.736
  745SOL    HW2 4068  14.028   1.393   4.781
  746SOL     OW 4069   0.031   9.786   1.921
  746SOL    HW1 4070   0.099   9.832   1.970
  746SOL    HW2 4071  14.846   9.856   1.893
  747SOL     OW 4072   6.399   3.399   4.318
  747SOL    HW1 4073   6.421   3.455   4.244
  747SOL    HW2 4074   6.371   3.316   4.278
  748SOL     OW 4075   9.839   9.443   1.942
  748SOL    HW1 4076   9.816   9.530   1.908
  748SOL    HW2 4077   9.802   9.442   2.030
  749SOL     OW 4078  13.183  13.969   7.534
  749SOL    HW1 4079  13.110  13.965   7.473
  749SOL    HW2 4080  13.153  14.029   7.603
  750SOL     OW 4081   0.922   8.911  13.609
  750SOL    HW1 4082   0.954   8.988  13.563
  750SOL    HW2 4083   0.879   8.859  13.541
  751SOL     OW 4084   1.397   3.424   3.477
  751SOL    HW1 4085   1.451   3.498   3.449
  751SOL    HW2 4086   1.442   3.390   3.555
  752SOL     OW 4087   4.911  10.496  12.145
  752SOL    HW1 4088   4.825  10.534  12.164
  752SOL    HW2 4089   4.974  10.565  12.166
  753SOL     OW 4090   8.414   3.434   9.182
  753SOL    HW1 4091   8.351   3.499   9.150
  753SOL    HW2 4092   8.497   3.480   9.185
  754SOL     OW 4093  13.419   4.627   3.160
  754SOL    HW1 4094  13.442   4.664   3.245
  754SOL    HW2 4095  13.401   4.535   3.178
  755SOL     OW 4096  14.527   2.257   4.583
  755SOL    HW1 4097  14.569   2.224   4.663
  755SOL    HW2 4098  14.547   2.351   4.583
  756SOL     OW 4099   3.755   2.466  14.232
  756SOL    HW1 4100   3.691   2.406  14.270
  756SOL    HW2 4101   3.832   2.412  14.217
  757SOL     OW 4102   9.322   9.565   9.626
  757SOL    HW1 4103   9.390   9.580   9.560
  757SOL    HW2 4104   9.300   9.653   9.658
  758SOL     OW 4105   8.536  11.384  13.421
  758SOL    HW1 4106   8.480  11.310  13.447
  758SOL    HW2 4107   8.612  11.379  13.479
  759SOL     OW 4108  12.659  11.251  14.825
  759SOL    HW1 4109  12.593  11.298  14.775
  759SOL    HW2 4110  12.613  11.174  14.860
  760SOL     OW 4111   0.467   7.248  13.142
  760SOL    HW1 4112   0.558   7.275  13.155
  760SOL    HW2 4113   0.425   7.265  13.227
  761SOL     OW 4114   5.383   9.943   4.901
  761SOL    HW1 4115   5.306   9.899   4.865
  761SOL    HW2 4116   5.378   9.926   4.995
  762SOL     OW 4117   6.749  11.171   5.584
  762SOL    HW1 4118   6.752  11.133   5.672
  762SOL    HW2 4119   6.835  11.151   5.547
  763SOL     OW 4120   6.719  12.507  11.550
  763SOL    HW1 4121   6.637  12.458  11.560
  763SOL    HW2 4122   6.711  12.550  11.465
  764SOL     OW 4123  13.638   9.878  10.252
  764SOL    HW1 4124  13.573   9.809  10.261
  764SOL    HW2 4125  13.715   9.833  10.217
  765SOL     OW 4126  14.627   7.049   8.718
  765SOL    HW1 4127  14.603   6.962   8.687
  765SOL    HW2 4128  14.572   7.064   8.794
  766SOL     OW 4129   5.445   4.518  13.098
  766SOL    HW1 4130   5.465   4.480  13.183
  766SOL    HW2 4131   5.442   4.613  13.114
  767SOL     OW 4132   9.568   6.674   4.292
  767SOL    HW1 4133   9.516   6.675   4.212
  767SOL    HW2 4134   9.595   6.583   4.303
  768SOL     OW 4135  13.221   7.487   3.971
  768SOL    HW1 4136  13.269   7.567   3.993
  768SOL    HW2 4137  13.204   7.494   3.877
  769SOL     OW 4138   8.466   4.241   8.197
  769SOL    HW1 4139   8.500   4.158   8.233
  769SOL    HW2 4140   8.430   4.217   8.112
  770SOL     OW 4141   8.901   0.064   6.156
  770SOL    HW1 4142   8.943   0.146   6.130
  770SOL    HW2 4143   8.940   0.044   6.242
  771SOL     OW 4144   4.370   7.828  10.765
  771SOL    HW1 4145   4.333   7.739  10.774
  771SOL    HW2 4146   4.312   7.883  10.818
  772SOL     OW 4147   6.103   9.743   0.875
  772SOL    HW1 4148   6.162   9.796   0.928
  772SOL    HW2 4149   6.160   9.692   0.818
  773SOL     OW 4150   9.647   0.802   9.736
  773SOL    HW1 4151   9.649   0.727   9.795
  773SOL    HW2 4152   9.711   0.781   9.668
  774SOL     OW 4153   1.914  14.745   6.465
  774SOL    HW1 4154   1.873  14.831   6.459
  774SOL    HW2 4155   1.993  14.761   6.518
  775SOL     OW 4156   1.297  14.430   6.447
  775SOL    HW1 4157   1.329  14.503   6.500
  775SOL    HW2 4158   1.283  14.467   6.360
  776SOL     OW 4159   3.174   9.376   8.985
  776SOL    HW1 4160   3.144   9.322   8.912
  776SOL    HW2 4161   3.093   9.411   9.024
  777SOL     OW 4162   8.031   4.673   8.457
  777SOL    HW1 4163   8.114   4.709   8.424
  777SOL    HW2 4164   7.971   4.679   8.383
  778SOL     OW 4165   2.695  13.208   4.241
  778SOL    HW1 4166   2.602  13.229   4.238
  778SOL    HW2 4167   2.735  13.266   4.177
  779SOL     OW 4168   3.215   3.497   4.012
  779SOL    HW1 4169   3.127   3.468   4.037
  779SOL    HW2 4170   3.209   3.593   4.012
  780SOL     OW 4171  13.588   9.780   6.882
  780SOL    HW1 4172  13.593   9.845   6.812
  780SOL    HW2 4173  13.594   9.696   6.838
  781SOL     OW 4174  12.802   7.550  14.581
  781SOL    HW1 4175  12.776   7.497  14.506
  781SOL    HW2 4176  12.723   7.597  14.606
  782SOL     OW 4177   8.188   8.304  13.313
  782SOL    HW1 4178   8.230   8.325  13.396
  782SOL    HW2 4179   8.105   8.352  13.316
  783SOL     OW 4180  11.534   5.635   0.340
  783SOL    HW1 4181  11.491   5.593   0.414
  783SOL    HW2 4182  11.564   5.719   0.374
  784SOL     OW 4183   8.000   0.084   3.588
  784SOL    HW1 4184   7.925   0.038   3.624
  784SOL    HW2 4185   8.018   0.154   3.651
  785SOL     OW 4186  13.657   8.707   4.609
  785SOL    HW1 4187  13.588   8.649   4.642
  785SOL    HW2 4188  13.720   8.712   4.681
  786SOL     OW 4189   9.502   2.833   7.058
  786SOL    HW1 4190   9.439   2.769   7.025
  786SOL    HW2 4191   9.581   2.783   7.075
  787SOL     OW 4192   1.482   0.379   9.728
  787SOL    HW1 4193   1.534   0.328   9.666
  787SOL    HW2 4194   1.517   0.355   9.814
  788SOL     OW 4195   7.986   9.005  11.619
  788SOL    HW1 4196   8.024   9.026  11.534
  788SOL    HW2 4197   7.893   8.991  11.601
  789SOL     OW 4198   2.535   2.979   3.602
  789SOL    HW1 4199   2.556   3.064   3.641
  789SOL    HW2 4200   2.479   2.936   3.666
  790SOL     OW 4201  12.643  10.058   0.157
  790SOL    HW1 4202  12.706  10.045   0.227
  790SOL    HW2 4203  12.621   9.970   0.127
  791SOL     OW 4204   1.060   8.341   6.984
  791SOL    HW1 4205   0.986   8.356   6.925
  791SOL    HW2 4206   1.102   8.426   6.992
  792SOL     OW 4207   7.902   6.480   7.365
  792SOL    HW1 4208   7.871   6.456   7.452
  792SOL    HW2 4209   7.994   6.454   7.365
  793SOL     OW 4210   2.891   7.695   5.814
  793SOL    HW1 4211   2.854   7.608   5.796
  793SOL    HW2 4212   2.823   7.756   5.786
  794SOL     OW 4213  10.664   5.771  12.124
  794SOL    HW1 4214  10.639   5.714  12.051
  794SOL    HW2 4215  10.587   5.775  12.179
  795SOL     OW 4216  12.990  12.799  11.187
  795SOL    HW1 4217  12.973  12.705  11.179
  795SOL    HW2 4218  12.913  12.841  11.148
  796SOL     OW 4219  14.118   7.320   7.436
  796SOL    HW1 4220  14.047   7.271   7.394
  796SOL    HW2 4221  14.114   7.407   7.396
  797SOL     OW 4222   0.905   2.643   7.782
  797SOL    HW1 4223   0.826   2.607   7.822
  797SOL    HW2 4224   0.974   2.581   7.805
  798SOL     OW 4225  14.384   4.410  14.290
  798SOL    HW1 4226  14.454   4.377  14.347
  798SOL    HW2 4227  14.382   4.504  14.308
  799SOL     OW 4228  13.990  14.027   6.764
  799SOL    HW1 4229  13.916  13.981   6.725
  799SOL    HW2 4230  14.060  14.019   6.700
  800SOL     OW 4231   4.965  11.643   3.003
  800SOL    HW1 4232   4.904  11.662   3.074
  800SOL    HW2 4233   5.035  11.592   3.044
  801SOL     OW 4234   9.266   5.154   9.032
  801SOL    HW1 4235   9.214   5.138   9.111
  801SOL    HW2 4236   9.356   5.132   9.058
  802SOL     OW 4237  14.758   7.323   5.687
  802SOL    HW1 4238  14.849   7.315   5.660
  802SOL    HW2 4239  14.734   7.236   5.718
  803SOL     OW 4240   2.831   9.596   1.229
  803SOL    HW1 4241   2.860   9.523   1.284
  803SOL    HW2 4242   2.803   9.663   1.291
  804SOL     OW 4243   2.809   7.882  10.541
  804SOL    HW1 4244   2.879   7.818  10.554
  804SOL    HW2 4245   2.731   7.839  10.576
  805SOL     OW 4246  13.754   6.207   5.305
  805SOL    HW1 4247  13.693   6.166   5.366
  805SOL    HW2 4248  13.830   6.230   5.358
  806SOL     OW 4249   4.080   7.978   6.321
  806SOL    HW1 4250   4.145   8.047   6.308
  806SOL    HW2 4251   4.128   7.896   6.306
  807SOL     OW 4252  13.878   8.512   4.596
  807SOL    HW1 4253  13.871   8.457   4.675
  807SOL    HW2 4254  13.813   8.581   4.610
  808SOL     OW 4255   5.273   5.643   7.011
  808SOL    HW1 4256   5.179   5.623   7.008
  808SOL    HW2 4257   5.285   5.695   7.091
  809SOL     OW 4258   2.618   8.593   3.402
  809SOL    HW1 4259   2.638   8.631   3.316
  809SOL    HW2 4260   2.642   8.501   3.394
  810SOL     OW 4261   9.608   2.914   9.401
  810SOL    HW1 4262   9.548   2.867   9.459
  810SOL    HW2 4263   9.580   2.889   9.313
  811SOL     OW 4264   6.487  10.308  12.177
  811SOL    HW1 4265   6.415  10.368  12.160
  811SOL    HW2 4266   6.447  10.233  12.221
  812SOL     OW 4267   9.449  14.496   2.207
  812SOL    HW1 4268   9.448  14.508   2.302
  812SOL    HW2 4269   9.461  14.402   2.195
  813SOL     OW 4270   2.412  11.509  14.257
  813SOL    HW1 4271   2.342  11.478  14.314
  813SOL    HW2 4272   2.446  11.430  14.215
  814SOL     OW 4273   6.290  10.367  14.187
  814SOL    HW1 4274   6.275  10.367  14.281
  814SOL    HW2 4275   6.379  10.403  14.176
  815SOL     OW 4276  13.548  11.574   0.707
  815SOL    HW1 4277  13.465  11.539   0.674
  815SOL    HW2 4278  13.536  11.578   0.802
  816SOL     OW 4279   3.314   8.057   7.186
  816SOL    HW1 4280   3.224   8.052   7.154
  816SOL    HW2 4281   3.319   8.142   7.231
  817SOL     OW 4282   4.465  11.627   6.594
  817SOL    HW1 4283   4.473  11.691   6.523
  817SOL    HW2 4284   4.555  11.614   6.625
  818SOL     OW 4285   1.115   3.977   8.996
  818SOL    HW1 4286   1.192   3.947   8.948
  818SOL    HW2 4287   1.148   4.005   9.081
  819SOL     OW 4288   1.712   6.593   0.461
  819SOL    HW1 4289   1.677   6.579   0.549
  819SOL    HW2 4290   1.635   6.590   0.404
  820SOL     OW 4291  10.575  11.533   4.021
  820SOL    HW1 4292  10.606  11.622   4.039
  820SOL    HW2 4293  10.481  11.544   4.008
  821SOL     OW 4294   3.670   9.490   5.547
  821SOL    HW1 4295   3.762   9.506   5.569
  821SOL    HW2 4296   3.635   9.446   5.625
  822SOL     OW 4297   0.326  11.748   9.526
  822SOL    HW1 4298   0.311  11.724   9.618
  822SOL    HW2 4299   0.241  11.734   9.484
  823SOL     OW 4300   2.344   3.675   7.314
  823SOL    HW1 4301   2.283   3.724   7.259
  823SOL    HW2 4302   2.425   3.670   7.263
  824SOL     OW 4303   2.625   3.798   4.756
  824SOL    HW1 4304   2.639   3.762   4.668
  824SOL    HW2 4305   2.550   3.856   4.746
  825SOL     OW 4306   3.230   0.475  11.369
  825SOL    HW1 4307   3.247   0.557  11.415
  825SOL    HW2 4308   3.169   0.428  11.426
  826SOL     OW 4309  12.972  14.733   7.005
  826SOL    HW1 4310  12.907  14.672   7.039
  826SOL    HW2 4311  12.920  14.803   6.964
  827SOL     OW 4312   8.321   6.097  12.852
  827SOL    HW1 4313   8.284   6.137  12.931
  827SOL    HW2 4314   8.414   6.121  12.854
  828SOL     OW 4315   1.564   9.149  10.097
  828SOL    HW1 4316   1.655   9.169  10.119
  828SOL    HW2 4317   1.547   9.064  10.139
  829SOL     OW 4318   7.491  13.016  14.610
  829SOL    HW1 4319   7.485  13.111  14.621
  829SOL    HW2 4320   7.458  13.000  14.522
  830SOL     OW 4321   4.212   8.610   6.524
  830SOL    HW1 4322   4.235   8.539   6.465
  830SOL    HW2 4323   4.266   8.684   6.494
  831SOL     OW 4324  12.113   9.080   4.260
  831SOL    HW1 4325  12.079   9.037   4.338
  831SOL    HW2 4326  12.205   9.096   4.280
  832SOL     OW 4327   5.968   5.250  12.712
  832SOL    HW1 4328   5.891   5.212  12.753
  832SOL    HW2 4329   5.943   5.263  12.620
  833SOL     OW 4330  14.519   9.932   3.917
  833SOL    HW1 4331  14.601   9.886   3.934
  833SOL    HW2 4332  14.536  10.022   3.944
  834SOL     OW 4333   9.961   2.370   7.079
  834SOL    HW1 4334   9.947   2.458   7.115
  834SOL    HW2 4335   9.936   2.377   6.987
  835SOL     OW 4336  12.224   5.258  13.475
  835SOL    HW1 4337  12.172   5.187  13.437
  835SOL    HW2 4338  12.290   5.278  13.407
  836SOL     OW 4339   6.561  13.572   6.501
  836SOL    HW1 4340   6.513  13.585   6.583
  836SOL    HW2 4341   6.608  13.489   6.515
  837SOL     OW 4342  11.665   6.765  12.116
  837SOL    HW1 4343  11.666   6.822  12.192
  837SOL    HW2 4344  11.626   6.818  12.046
  838SOL     OW 4345   8.071  13.837  11.367
  838SOL    HW1 4346   8.070  13.799  11.279
  838SOL    HW2 4347   8.014  13.781  11.419
  839SOL     OW 4348   3.426   4.102  10.589
  839SOL    HW1 4349   3.460   4.166  10.652
  839SOL    HW2 4350   3.487   4.105  10.516
  840SOL     OW 4351   7.842  10.691   9.834
  840SOL    HW1 4352   7.900  10.673   9.908
  840SOL    HW2 4353   7.784  10.615   9.831
  841SOL     OW 4354   1.434  12.985   4.859
  841SOL    HW1 4355   1.345  13.021   4.849
  841SOL    HW2 4356   1.441  12.919   4.790
  842SOL     OW 4357   8.616   7.157   5.220
  842SOL    HW1 4358   8.625   7.244   5.258
  842SOL    HW2 4359   8.662   7.099   5.279
  843SOL     OW 4360  10.426   6.803   8.749
  843SOL    HW1 4361  10.333   6.800   8.730
  843SOL    HW2 4362  10.435   6.870   8.816
  844SOL     OW 4363  12.222  13.218   9.000
  844SOL    HW1 4364  12.285  13.281   9.035
  844SOL    HW2 4365  12.139  13.266   8.999
  845SOL     OW 4366  12.460   7.794   1.137
  845SOL    HW1 4367  12.391   7.856   1.157
  845SOL    HW2 4368  12.509   7.835   1.065
  846SOL     OW 4369   7.067   8.307   5.828
  846SOL    HW1 4370   7.136   8.337   5.888
  846SOL    HW2 4371   7.060   8.377   5.763
  847SOL     OW 4372   9.437   8.831  11.205
  847SOL    HW1 4373   9.365   8.799  11.149
  847SOL    HW2 4374   9.516   8.807  11.158
  848SOL     OW 4375   5.779   2.362   6.318
  848SOL    HW1 4376   5.758   2.270   6.331
  848SOL    HW2 4377   5.703   2.397   6.270
  849SOL     OW 4378  11.281  11.933   5.792
  849SOL    HW1 4379  11.269  12.023   5.821
  849SOL    HW2 4380  11.372  11.912   5.815
  850SOL     OW 4381   5.540   0.490  14.867
  850SOL    HW1 4382   5.502   0.537  14.793
  850SOL    HW2 4383   5.505   0.534   0.069
  851SOL     OW 4384  11.992   4.559   7.756
  851SOL    HW1 4385  12.010   4.540   7.848
  851SOL    HW2 4386  12.008   4.476   7.711
  852SOL     OW 4387   9.333   7.765   3.812
  852SOL    HW1 4388   9.355   7.733   3.900
  852SOL    HW2 4389   9.246   7.804   3.822
  853SOL     OW 4390   1.119   4.895  12.733
  853SOL    HW1 4391   1.101   4.989  12.729
  853SOL    HW2 4392   1.208   4.889  12.769
  854SOL     OW 4393  14.677   4.499   9.932
  854SOL    HW1 4394  14.747   4.549   9.891
  854SOL    HW2 4395  14.714   4.412   9.946
  855SOL     OW 4396   0.242   4.034   5.010
  855SOL    HW1 4397   0.238   4.030   4.915
  855SOL    HW2 4398   0.244   3.943   5.038
  856SOL     OW 4399   8.913   3.198  11.498
  856SOL    HW1 4400   8.887   3.287  11.474
  856SOL    HW2 4401   8.875   3.143  11.430
  857SOL     OW 4402   0.181   9.585  13.639
  857SOL    HW1 4403   0.096   9.623  13.659
  857SOL    HW2 4404   0.220   9.646  13.576
  858SOL     OW 4405   6.117   6.713  11.460
  858SOL    HW1 4406   6.033   6.673  11.437
  858SOL    HW2 4407   6.176   6.688  11.389
  859SOL     OW 4408   8.807   0.802   4.846
  859SOL    HW1 4409   8.767   0.786   4.931
  859SOL    HW2 4410   8.733   0.810   4.785
  860SOL     OW 4411  13.186   7.903   8.555
  860SOL    HW1 4412  13.254   7.967   8.579
  860SOL    HW2 4413  13.127   7.901   8.630
  861SOL     OW 4414   2.744   2.107  11.906
  861SOL    HW1 4415   2.798   2.097  11.828
  861SOL    HW2 4416   2.657   2.130  11.873
  862SOL     OW 4417  12.223  11.644   3.141
  862SOL    HW1 4418  12.177  11.583   3.198
  862SOL    HW2 4419  12.207  11.612   3.052
  863SOL     OW 4420   8.301  13.613  13.206
  863SOL    HW1 4421   8.207  13.631  13.206
  863SOL    HW2 4422   8.313  13.546  13.138
  864SOL     OW 4423  11.593   8.149  13.348
  864SOL    HW1 4424  11.678   8.114  13.374
  864SOL    HW2 4425  11.531   8.108  13.408
  865SOL     OW 4426   7.908   6.998   8.825
  865SOL    HW1 4427   7.868   7.073   8.869
  865SOL    HW2 4428   7.884   6.923   8.881
  866SOL     OW 4429   6.648   3.032   8.504
  866SOL    HW1 4430   6.708   3.072   8.567
  866SOL    HW2 4431   6.569   3.015   8.555
  867SOL     OW 4432   1.623   1.358   1.798
  867SOL    HW1 4433   1.687   1.425   1.774
  867SOL    HW2 4434   1.630   1.351   1.893
  868SOL     OW 4435  10.685   1.678   7.410
  868SOL    HW1 4436  10.677   1.758   7.462
  868SOL    HW2 4437  10.595   1.651   7.394
  869SOL     OW 4438  13.518  10.135  13.649
  869SOL    HW1 4439  13.483  10.058  13.604
  869SOL    HW2 4440  13.613  10.125  13.646
  870SOL     OW 4441  14.483  10.737   1.590
  870SOL    HW1 4442  14.529  10.677   1.649
  870SOL    HW2 4443  14.535  10.818   1.594
  871SOL     OW 4444   5.848   6.502  13.128
  871SOL    HW1 4445   5.778   6.514  13.064
  871SOL    HW2 4446   5.807   6.454  13.200
  872SOL     OW 4447   1.002  11.288  11.100
  872SOL    HW1 4448   0.953  11.214  11.137
  872SOL    HW2 4449   1.014  11.265  11.008
  873SOL     OW 4450   2.758   9.599   1.635
  873SOL    HW1 4451   2.843   9.619   1.675
  873SOL    HW2 4452   2.776   9.601   1.541
  874SOL     OW 4453  13.874   1.706  14.470
  874SOL    HW1 4454  13.877   1.618  14.433
  874SOL    HW2 4455  13.787   1.738  14.446
  875SOL     OW 4456  14.797  12.716   1.931
  875SOL    HW1 4457  14.853  12.783   1.969
  875SOL    HW2 4458  14.843  12.633   1.947
  876SOL     OW 4459   5.514   4.475   9.784
  876SOL    HW1 4460   5.522   4.529   9.705
  876SOL    HW2 4461   5.605   4.453   9.807
  877SOL     OW 4462   3.603  13.780   1.258
  877SOL    HW1 4463   3.560  13.812   1.337
  877SOL    HW2 4464   3.690  13.820   1.261
  878SOL     OW 4465  11.377   9.848   5.142
  878SOL    HW1 4466  11.408   9.758   5.150
  878SOL    HW2 4467  11.357   9.859   5.049
  879SOL     OW 4468  11.069   7.258  13.703
  879SOL    HW1 4469  11.000   7.210  13.750
  879SOL    HW2 4470  11.129   7.191  13.673
  880SOL     OW 4471   5.131   6.082   5.423
  880SOL    HW1 4472   5.062   6.025   5.457
  880SOL    HW2 4473   5.175   6.115   5.501
  881SOL     OW 4474   8.250  13.299   4.836
  881SOL    HW1 4475   8.231  13.373   4.777
  881SOL    HW2 4476   8.256  13.339   4.923
  882SOL     OW 4477   2.004   9.523   3.332
  882SOL    HW1 4478   2.021   9.429   3.337
  882SOL    HW2 4479   1.988   9.550   3.423
  883SOL     OW 4480   6.858   4.566   2.270
  883SOL    HW1 4481   6.896   4.479   2.284
  883SOL    HW2 4482   6.904   4.601   2.193
  884SOL     OW 4483   3.474  10.467   4.543
  884SOL    HW1 4484   3.515  10.508   4.467
  884SOL    HW2 4485   3.473  10.535   4.610
  885SOL     OW 4486   4.494   7.689   4.312
  885SOL    HW1 4487   4.425   7.715   4.374
  885SOL    HW2 4488   4.548   7.767   4.303
  886SOL     OW 4489  13.916   3.522  11.647
  886SOL    HW1 4490  13.979   3.505  11.717
  886SOL    HW2 4491  13.957   3.591  11.595
  887SOL     OW 4492   4.576   7.681   1.276
  887SOL    HW1 4493   4.549   7.595   1.306
  887SOL    HW2 4494   4.503   7.739   1.299
  888SOL     OW 4495   2.257  11.697   8.892
  888SOL    HW1 4496   2.166  11.676   8.872
  888SOL    HW2 4497   2.289  11.743   8.814
  889SOL     OW 4498   2.150  13.713   6.002
  889SOL    HW1 4499   2.204  13.635   6.012
  889SOL    HW2 4500   2.176  13.749   5.917
  890SOL     OW 4501   6.165  11.979   6.914
  890SOL    HW1 4502   6.149  11.953   6.824
  890SOL    HW2 4503   6.211  11.904   6.953
  891SOL     OW 4504  13.834  12.063   9.191
  891SOL    HW1 4505  13.879  12.127   9.136
  891SOL    HW2 4506  13.831  11.983   9.138
  892SOL     OW 4507  10.705   3.780  14.188
  892SOL    HW1 4508  10.624   3.831  14.186
  892SOL    HW2 4509  10.721   3.764  14.281
  893SOL     OW 4510  12.880   5.861   2.929
  893SOL    HW1 4511  12.896   5.856   3.023
  893SOL    HW2 4512  12.815   5.793   2.912
  894SOL     OW 4513  11.168   0.154   0.773
  894SOL    HW1 4514  11.141   0.131   0.862
  894SOL    HW2 4515  11.086   0.175   0.728
  895SOL     OW 4516   9.525  11.579   1.386
  895SOL    HW1 4517   9.548  11.671   1.390
  895SOL    HW2 4518   9.541  11.554   1.295
  896SOL     OW 4519   9.531  13.484  11.675
  896SOL    HW1 4520   9.576  13.461  11.594
  896SOL    HW2 4521   9.448  13.438  11.670
  897SOL     OW 4522   5.771   0.631  12.611
  897SOL    HW1 4523   5.785   0.645  12.705
  897SOL    HW2 4524   5.850   0.587  12.581
  898SOL     OW 4525   2.825   9.078   8.339
  898SOL    HW1 4526   2.800   9.130   8.416
  898SOL    HW2 4527   2.746   9.078   8.284
  899SOL     OW 4528   6.999   0.212  14.559
  899SOL    HW1 4529   6.940   0.284  14.535
  899SOL    HW2 4530   7.039   0.185  14.477
  900SOL     OW 4531   4.505   8.785  13.416
  900SOL    HW1 4532   4.468   8.733  13.487
  900SOL    HW2 4533   4.545   8.860  13.460
  901SOL     OW 4534   0.734  12.991   7.810
  901SOL    HW1 4535   0.690  12.906   7.817
  901SOL    HW2 4536   0.786  12.984   7.730
  902SOL     OW 4537   6.485   4.758  13.527
  902SOL    HW1 4538   6.507   4.713  13.608
  902SOL    HW2 4539   6.561   4.813  13.508
  903SOL     OW 4540   4.350  11.613   3.685
  903SOL    HW1 4541   4.271  11.560   3.678
  903SOL    HW2 4542   4.339  11.681   3.618
  904SOL     OW 4543   1.749  13.446  12.292
  904SOL    HW1 4544   1.809  13.380  12.324
  904SOL    HW2 4545   1.662  13.407  12.303
  905SOL     OW 4546   6.985   3.569   3.853
  905SOL    HW1 4547   6.973   3.640   3.789
  905SOL    HW2 4548   6.899   3.529   3.862
  906SOL     OW 4549   1.400   5.187  13.317
  906SOL    HW1 4550   1.489   5.173  13.348
  906SOL    HW2 4551   1.344   5.142  13.381
  907SOL     OW 4552   9.123   1.253   1.753
  907SOL    HW1 4553   9.050   1.237   1.693
  907SOL    HW2 4554   9.087   1.237   1.840
  908SOL     OW 4555   5.834  14.112   8.926
  908SOL    HW1 4556   5.739  14.103   8.924
  908SOL    HW2 4557   5.851  14.170   9.000
  909SOL     OW 4558   2.911   2.616   2.004
  909SOL    HW1 4559   2.908   2.692   1.946
  909SOL    HW2 4560   2.974   2.640   2.072
  910SOL     OW 4561  11.077   8.754  10.289
  910SOL    HW1 4562  11.134   8.831  10.291
  910SOL    HW2 4563  11.007   8.774  10.350
  911SOL     OW 4564  14.387   3.398  14.444
  911SOL    HW1 4565  14.298   3.395  14.409
  911SOL    HW2 4566  14.410   3.306  14.459
  912SOL     OW 4567  14.796  10.007  12.850
  912SOL    HW1 4568  14.836  10.035  12.767
  912SOL    HW2 4569  14.720   9.956  12.823
  913SOL     OW 4570   5.444  11.781  12.242
  913SOL    HW1 4571   5.376  11.847  12.252
  913SOL    HW2 4572   5.516  11.826  12.197
  914SOL     OW 4573   7.872  12.591   0.850
  914SOL    HW1 4574   7.931  12.560   0.782
  914SOL    HW2 4575   7.784  12.569   0.818
  915SOL     OW 4576  12.653   7.886   8.707
  915SOL    HW1 4577  12.610   7.827   8.769
  915SOL    HW2 4578  12.677   7.830   8.633
  916SOL     OW 4579  14.067   4.723   0.046
  916SOL    HW1 4580  14.159   4.704   0.065
  916SOL    HW2 4581  14.020   4.693   0.124
  917SOL     OW 4582  10.943   3.900   6.987
  917SOL    HW1 4583  10.861   3.942   6.962
  917SOL    HW2 4584  10.926   3.806   6.981
  918SOL     OW 4585   7.143   7.378  12.554
  918SOL    HW1 4586   7.092   7.359  12.633
  918SOL    HW2 4587   7.198   7.301  12.542
  919SOL     OW 4588   2.448   4.232  10.725
  919SOL    HW1 4589   2.468   4.311  10.676
  919SOL    HW2 4590   2.388   4.183  10.668
  920SOL     OW 4591   8.589   8.159   1.374
  920SOL    HW1 4592   8.526   8.228   1.396
  920SOL    HW2 4593   8.536   8.084   1.349
  921SOL     OW 4594   8.340   6.850   1.902
  921SOL    HW1 4595   8.264   6.887   1.857
  921SOL    HW2 4596   8.395   6.814   1.832
  922SOL     OW 4597   2.884  10.839  13.543
  922SOL    HW1 4598   2.976  10.830  13.518
  922SOL    HW2 4599   2.857  10.922  13.505
  923SOL     OW 4600   5.102  10.273  14.177
  923SOL    HW1 4601   5.140  10.230  14.254
  923SOL    HW2 4602   5.092  10.364  14.203
  924SOL     OW 4603   7.665   5.316  11.403
  924SOL    HW1 4604   7.713   5.329  11.485
  924SOL    HW2 4605   7.581   5.278  11.429
  925SOL     OW 4606   3.468   3.209  12.986
  925SOL    HW1 4607   3.416   3.134  13.016
  925SOL    HW2 4608   3.467   3.269  13.060
  926SOL     OW 4609   9.571   2.209  13.719
  926SOL    HW1 4610   9.478   2.194  13.705
  926SOL    HW2 4611   9.592   2.160  13.799
  927SOL     OW 4612   2.589  10.373  11.379
  927SOL    HW1 4613   2.626  10.446  11.329
  927SOL    HW2 4614   2.540  10.323  11.314
  928SOL     OW 4615   9.463   9.884   3.589
  928SOL    HW1 4616   9.531   9.930   3.638
  928SOL    HW2 4617   9.508   9.847   3.513
  929SOL     OW 4618   6.033   4.540  12.288
  929SOL    HW1 4619   6.116   4.507  12.254
  929SOL    HW2 4620   5.966   4.491  12.240
  930SOL     OW 4621   1.923   5.034   2.269
  930SOL    HW1 4622   1.963   4.947   2.274
  930SOL    HW2 4623   1.839   5.024   2.313
  931SOL     OW 4624  13.869   3.836   2.502
  931SOL    HW1 4625  13.865   3.741   2.511
  931SOL    HW2 4626  13.924   3.865   2.575
  932SOL     OW 4627   8.296   8.370   1.580
  932SOL    HW1 4628   8.205   8.340   1.577
  932SOL    HW2 4629   8.295   8.442   1.644
  933SOL     OW 4630   5.350  14.680   1.985
  933SOL    HW1 4631   5.367  14.613   2.050
  933SOL    HW2 4632   5.348  14.633   1.902
  934SOL     OW 4633   7.180   3.020   3.535
  934SOL    HW1 4634   7.139   2.953   3.590
  934SOL    HW2 4635   7.260   3.044   3.583
  935SOL     OW 4636   5.274  11.470   4.197
  935SOL    HW1 4637   5.321  11.552   4.214
  935SOL    HW2 4638   5.182  11.495   4.193
  936SOL     OW 4639   7.348   2.619  14.667
  936SOL    HW1 4640   7.351   2.556  14.740
  936SOL    HW2 4641   7.291   2.689  14.700
  937SOL     OW 4642  13.313   7.776   5.704
  937SOL    HW1 4643  13.246   7.708   5.705
  937SOL    HW2 4644  13.395   7.727   5.693
  938SOL     OW 4645  14.203   9.443   5.109
  938SOL    HW1 4646  14.167   9.473   5.025
  938SOL    HW2 4647  14.157   9.494   5.175
  939SOL     OW 4648  11.257  10.338   6.996
  939SOL    HW1 4649  11.202  10.279   7.046
  939SOL    HW2 4650  11.343  10.333   7.039
  940SOL     OW 4651   8.509  13.046   5.733
  940SOL    HW1 4652   8.476  12.982   5.796
  940SOL    HW2 4653   8.604  13.047   5.746
  941SOL     OW 4654  10.351   5.935   6.282
  941SOL    HW1 4655  10.356   5.880   6.204
  941SOL    HW2 4656  10.263   5.919   6.318
  942SOL     OW 4657   8.212   3.935   3.411
  942SOL    HW1 4658   8.139   3.917   3.470
  942SOL    HW2 4659   8.252   3.849   3.395
  943SOL     OW 4660   3.310   6.612   8.781
  943SOL    HW1 4661   3.258   6.609   8.862
  943SOL    HW2 4662   3.385   6.668   8.803
  944SOL     OW 4663   1.672  10.099  13.482
  944SOL    HW1 4664   1.674  10.189  13.514
  944SOL    HW2 4665   1.583  10.070  13.499
  945SOL     OW 4666   6.466   4.140  14.831
  945SOL    HW1 4667   6.533   4.083  14.867
  945SOL    HW2 4668   6.410   4.161   0.030
  946SOL     OW 4669   3.980   1.108   4.845
  946SOL    HW1 4670   3.937   1.105   4.760
  946SOL    HW2 4671   3.925   1.167   4.898
  947SOL     OW 4672  10.099   3.330  14.280
  947SOL    HW1 4673  10.006   3.312  14.295
  947SOL    HW2 4674  10.106   3.346  14.186
  948SOL     OW 4675  11.008  12.210   7.069
  948SOL    HW1 4676  10.996  12.289   7.121
  948SOL    HW2 4677  10.946  12.148   7.105
  949SOL     OW 4678   1.547   1.848   9.062
  949SOL    HW1 4679   1.589   1.830   8.978
  949SOL    HW2 4680   1.531   1.942   9.061
  950SOL     OW 4681   8.934  10.204   2.542
  950SOL    HW1 4682   8.939  10.197   2.447
  950SOL    HW2 4683   9.015  10.164   2.573
  951SOL     OW 4684   3.479   0.587   3.248
  951SOL    HW1 4685   3.558   0.639   3.264
  951SOL    HW2 4686   3.499   0.537   3.169
  952SOL     OW 4687  14.304  11.657   8.507
  952SOL    HW1 4688  14.237  11.618   8.451
  952SOL    HW2 4689  14.261  11.666   8.592
  953SOL     OW 4690   2.700  10.003   1.116
  953SOL    HW1 4691   2.628  10.027   1.058
  953SOL    HW2 4692   2.749  10.085   1.127
  954SOL     OW 4693   4.944   9.481  11.956
  954SOL    HW1 4694   4.936   9.518  11.868
  954SOL    HW2 4695   4.864   9.506  12.001
  955SOL     OW 4696  14.321  10.595  10.009
  955SOL    HW1 4697  14.332  10.501   9.996
  955SOL    HW2 4698  14.375  10.616  10.085
  956SOL     OW 4699   7.824   9.814   1.684
  956SOL    HW1 4700   7.772   9.755   1.628
  956SOL    HW2 4701   7.900   9.762   1.710
  957SOL     OW 4702   9.830   3.164  11.438
  957SOL    HW1 4703   9.767   3.146  11.368
  957SOL    HW2 4704   9.782   3.146  11.518
  958SOL     OW 4705  11.322   6.285   7.744
  958SOL    HW1 4706  11.242   6.328   7.715
  958SOL    HW2 4707  11.372   6.270   7.664
  959SOL     OW 4708  14.048   8.381   6.982
  959SOL    HW1 4709  14.025   8.296   7.018
  959SOL    HW2 4710  14.012   8.445   7.044
  960SOL     OW 4711   9.091  13.662   9.482
  960SOL    HW1 4712   9.083  13.714   9.562
  960SOL    HW2 4713   9.082  13.726   9.411
  961SOL     OW 4714   8.029   4.995   5.007
  961SOL    HW1 4715   8.089   4.980   4.934
  961SOL    HW2 4716   7.971   5.064   4.976
  962SOL     OW 4717  12.584   9.989  11.347
  962SOL    HW1 4718  12.617  10.043  11.276
  962SOL    HW2 4719  12.661   9.946  11.383
  963SOL     OW 4720   6.556   2.359   0.608
  963SOL    HW1 4721   6.464   2.350   0.632
  963SOL    HW2 4722   6.559   2.341   0.514
  964SOL     OW 4723  13.338   5.356   7.705
  964SOL    HW1 4724  13.420   5.374   7.749
  964SOL    HW2 4725  13.339   5.262   7.688
  965SOL     OW 4726   2.537   9.796   3.229
  965SOL    HW1 4727   2.590   9.732   3.183
  965SOL    HW2 4728   2.455   9.751   3.248
  966SOL     OW 4729   5.027  11.817   0.480
  966SOL    HW1 4730   4.974  11.850   0.553
  966SOL    HW2 4731   5.116  11.815   0.514
  967SOL     OW 4732   8.519   0.998   9.200
  967SOL    HW1 4733   8.473   1.038   9.127
  967SOL    HW2 4734   8.570   1.069   9.239
  968SOL     OW 4735  12.586   9.806   1.414
  968SOL    HW1 4736  12.569   9.894   1.382
  968SOL    HW2 4737  12.676   9.787   1.387
  969SOL     OW 4738   3.202   3.199  12.792
  969SOL    HW1 4739   3.218   3.293  12.795
  969SOL    HW2 4740   3.157   3.185  12.709
  970SOL     OW 4741  10.448   7.218  13.554
  970SOL    HW1 4742  10.484   7.211  13.466
  970SOL    HW2 4743  10.493   7.150  13.604
  971SOL     OW 4744   3.763  12.235  11.396
  971SOL    HW1 4745   3.751  12.326  11.425
  971SOL    HW2 4746   3.857  12.219  11.405
  972SOL     OW 4747   5.400  13.226   9.495
  972SOL    HW1 4748   5.363  13.261   9.576
  972SOL    HW2 4749   5.385  13.132   9.501
  973SOL     OW 4750   5.228   0.167   5.578
  973SOL    HW1 4751   5.174   0.172   5.658
  973SOL    HW2 4752   5.244   0.259   5.555
  974SOL     OW 4753   9.305   2.131  13.705
  974SOL    HW1 4754   9.277   2.222  13.710
  974SOL    HW2 4755   9.237   2.083  13.754
  975SOL     OW 4756   8.317  10.681   6.012
  975SOL    HW1 4757   8.293  10.589   6.015
  975SOL    HW2 4758   8.344  10.702   6.102
  976SOL     OW 4759   0.163  12.342   8.089
  976SOL    HW1 4760   0.238  12.338   8.149
  976SOL    HW2 4761   0.107  12.269   8.116
  977SOL     OW 4762   0.189   4.291   2.319
  977SOL    HW1 4763   0.172   4.385   2.311
  977SOL    HW2 4764   0.254   4.284   2.389
  978SOL     OW 4765   0.881  11.613   5.701
  978SOL    HW1 4766   0.817  11.581   5.638
  978SOL    HW2 4767   0.956  11.640   5.648
  979SOL     OW 4768   2.028   6.505   2.453
  979SOL    HW1 4769   2.083   6.528   2.378
  979SOL    HW2 4770   2.031   6.409   2.456
  980SOL     OW 4771   2.765   0.370   0.736
  980SOL    HW1 4772   2.749   0.285   0.694
  980SOL    HW2 4773   2.845   0.357   0.786
  981SOL     OW 4774   5.201  12.650   7.680
  981SOL    HW1 4775   5.191  12.699   7.762
  981SOL    HW2 4776   5.295  12.650   7.663
  982SOL     OW 4777   4.179   8.536   4.948
  982SOL    HW1 4778   4.134   8.474   4.890
  982SOL    HW2 4779   4.168   8.500   5.035
  983SOL     OW 4780   8.341   2.625   1.105
  983SOL    HW1 4781   8.350   2.550   1.164
  983SOL    HW2 4782   8.386   2.697   1.150
  984SOL     OW 4783   6.824   7.579  12.836
  984SOL    HW1 4784   6.898   7.589  12.896
  984SOL    HW2 4785   6.747   7.593  12.891
  985SOL     OW 4786  12.632  14.654   0.056
  985SOL    HW1 4787  12.605  14.737   0.017
  985SOL    HW2 4788  12.659  14.600  14.858
  986SOL     OW 4789  10.842   6.672   7.800
  986SOL    HW1 4790  10.859   6.694   7.708
  986SOL    HW2 4791  10.854   6.755   7.846
  987SOL     OW 4792   6.303   6.258  12.376
  987SOL    HW1 4793   6.371   6.221  12.320
  987SOL    HW2 4794   6.345   6.332  12.420
  988SOL     OW 4795   0.828  12.588  14.216
  988SOL    HW1 4796   0.836  12.501  14.176
  988SOL    HW2 4797   0.751  12.580  14.273
  989SOL     OW 4798  12.260  10.477   4.723
  989SOL    HW1 4799  12.257  10.507   4.632
  989SOL    HW2 4800  12.302  10.549   4.770
  990SOL     OW 4801   8.575   0.116   3.922
  990SOL    HW1 4802   8.622   0.103   3.839
  990SOL    HW2 4803   8.484   0.096   3.901
  991SOL     OW 4804  12.948   2.455   2.672
  991SOL    HW1 4805  13.002   2.514   2.725
  991SOL    HW2 4806  12.946   2.496   2.586
  992SOL     OW 4807  14.431   6.847  13.611
  992SOL    HW1 4808  14.469   6.933  13.589
  992SOL    HW2 4809  14.498   6.784  13.585
  993SOL     OW 4810   0.427   5.010  14.283
  993SOL    HW1 4811   0.465   5.073  14.222
  993SOL    HW2 4812   0.495   4.943  14.294
  994SOL     OW 4813   0.423   8.196   7.472
  994SOL    HW1 4814   0.379   8.129   7.420
  994SOL    HW2 4815   0.517   8.177   7.462
  995SOL     OW 4816  12.145  12.040   0.410
  995SOL    HW1 4817  12.230  12.038   0.366
  995SOL    HW2 4818  12.134  12.131   0.437
  996SOL     OW 4819  13.386   1.307   5.041
  996SOL    HW1 4820  13.408   1.277   5.129
  996SOL    HW2 4821  13.457   1.274   4.986
  997SOL     OW 4822  12.201   0.121   9.704
  997SOL    HW1 4823  12.222   0.039   9.751
  997SOL    HW2 4824  12.121   0.153   9.747
  998SOL     OW 4825   9.849   8.828   9.135
  998SOL    HW1 4826   9.920   8.764   9.142
  998SOL    HW2 4827   9.829   8.832   9.042
  999SOL     OW 4828   8.485  12.140   1.725
  999SOL    HW1 4829   8.427  12.167   1.653
  999SOL    HW2 4830   8.572  12.168   1.697
 1000SOL     OW 4831   2.036   7.726   3.396
 1000SOL    HW1 4832   2.089   7.805   3.410
 1000SOL    HW2 4833   2.006   7.734   3.305
 1001SOL     OW 4834  10.884  12.339   3.687
 1001SOL    HW1 4835  10.841  12.284   3.622
 1001SOL    HW2 4836  10.829  12.332   3.765
 1002SOL     OW 4837  11.192   0.486  10.941
 1002SOL    HW1 4838  11.151   0.401  10.928
 1002SOL    HW2 4839  11.260   0.490  10.874
 1003SOL     OW 4840   1.059  14.636  10.129
 1003SOL    HW1 4841   1.144  14.676  10.109
 1003SOL    HW2 4842   0.995  14.692  10.086
 1004SOL     OW 4843   6.324   3.519   8.706
 1004SOL    HW1 4844   6.263   3.521   8.780
 1004SOL    HW2 4845   6.354   3.428   8.703
 1005SOL     OW 4846   7.390  12.453   9.327
 1005SOL    HW1 4847   7.378  12.537   9.281
 1005SOL    HW2 4848   7.427  12.478   9.412
 1006SOL     OW 4849  13.523  14.081   2.352
 1006SOL    HW1 4850  13.515  14.171   2.322
 1006SOL    HW2 4851  13.531  14.029   2.272
 1007SOL     OW 4852   6.657  14.095   6.166
 1007SOL    HW1 4853   6.723  14.046   6.117
 1007SOL    HW2 4854   6.612  14.148   6.100
 1008SOL     OW 4855   6.611   2.725   4.868
 1008SOL    HW1 4856   6.517   2.735   4.853
 1008SOL    HW2 4857   6.617   2.658   4.936
 1009SOL     OW 4858   0.847  11.589   8.761
 1009SOL    HW1 4859   0.763  11.544   8.770
 1009SOL    HW2 4860   0.830  11.678   8.790
 1010SOL     OW 4861   4.221   7.187  10.689
 1010SOL    HW1 4862   4.190   7.107  10.645
 1010SOL    HW2 4863   4.143   7.224  10.729
 1011SOL     OW 4864   0.495  12.474  10.358
 1011SOL    HW1 4865   0.529  12.393  10.397
 1011SOL    HW2 4866   0.437  12.510  10.425
 1012SOL     OW 4867   1.477  13.325  10.215
 1012SOL    HW1 4868   1.511  13.251  10.164
 1012SOL    HW2 4869   1.547  13.389  10.214
 1013SOL     OW 4870   1.635   9.607   2.347
 1013SOL    HW1 4871   1.642   9.674   2.415
 1013SOL    HW2 4872   1.597   9.531   2.391
 1014SOL     OW 4873   7.022   5.865   2.929
 1014SOL    HW1 4874   7.081   5.896   2.860
 1014SOL    HW2 4875   7.039   5.772   2.936
 1015SOL     OW 4876  12.878  12.962   2.773
 1015SOL    HW1 4877  12.954  12.995   2.821
 1015SOL    HW2 4878  12.871  12.870   2.800
 1016SOL     OW 4879   1.353  12.458   1.059
 1016SOL    HW1 4880   1.359  12.366   1.086
 1016SOL    HW2 4881   1.309  12.455   0.974
 1017SOL     OW 4882  12.864   6.107  13.466
 1017SOL    HW1 4883  12.789   6.125  13.523
 1017SOL    HW2 4884  12.940   6.133  13.517
 1018SOL     OW 4885   1.636   3.899  12.978
 1018SOL    HW1 4886   1.672   3.987  12.989
 1018SOL    HW2 4887   1.634   3.885  12.884
 1019SOL     OW 4888   8.961   4.966  10.719
 1019SOL    HW1 4889   8.948   4.879  10.756
 1019SOL    HW2 4890   9.046   4.994  10.754
 1020SOL     OW 4891  12.526   4.851  11.692
 1020SOL    HW1 4892  12.602   4.863  11.636
 1020SOL    HW2 4893  12.545   4.902  11.771
 1021SOL     OW 4894   2.277  14.162   3.871
 1021SOL    HW1 4895   2.222  14.155   3.793
 1021SOL    HW2 4896   2.361  14.194   3.839
 1022SOL     OW 4897   0.057   3.141   1.030
 1022SOL    HW1 4898  14.846   3.102   1.035
 1022SOL    HW2 4899   0.104   3.089   0.964
 1023SOL     OW 4900   1.735  14.262   3.299
 1023SOL    HW1 4901   1.735  14.280   3.205
 1023SOL    HW2 4902   1.654  14.301   3.331
 1024SOL     OW 4903  13.524   1.169   9.126
 1024SOL    HW1 4904  13.612   1.132   9.112
 1024SOL    HW2 4905  13.530   1.258   9.090
 1025SOL     OW 4906   6.872   6.751   7.027
 1025SOL    HW1 4907   6.937   6.777   7.092
 1025SOL    HW2 4908   6.868   6.656   7.033
 1026SOL     OW 4909   4.956   1.483   6.172
 1026SOL    HW1 4910   4.968   1.409   6.112
 1026SOL    HW2 4911   4.910   1.549   6.120
 1027SOL     OW 4912  14.042  10.303  13.950
 1027SOL    HW1 4913  14.091  10.385  13.939
 1027SOL    HW2 4914  13.975  10.306  13.881
 1028SOL     OW 4915  12.354   5.322   6.352
 1028SOL    HW1 4916  12.322   5.397   6.402
 1028SOL    HW2 4917  12.275   5.269   6.336
 1029SOL     OW 4918  12.211  10.216   1.742
 1029SOL    HW1 4919  12.275  10.150   1.715
 1029SOL    HW2 4920  12.187  10.190   1.831
 1030SOL     OW 4921  14.102  13.394   1.970
 1030SOL    HW1 4922  14.061  13.446   1.900
 1030SOL    HW2 4923  14.121  13.310   1.929
 1031SOL     OW 4924   4.050  10.928  10.116
 1031SOL    HW1 4925   4.054  11.016  10.151
 1031SOL    HW2 4926   4.069  10.871  10.191
 1032SOL     OW 4927  10.638  14.818   3.614
 1032SOL    HW1 4928  10.544  14.828   3.598
 1032SOL    HW2 4929  10.645  14.803   3.709
 1033SOL     OW 4930   0.167  12.134  12.966
 1033SOL    HW1 4931   0.144  12.118  12.874
 1033SOL    HW2 4932   0.091  12.103  13.015
 1034SOL     OW 4933   3.562  14.651   5.530
 1034SOL    HW1 4934   3.602  14.718   5.475
 1034SOL    HW2 4935   3.560  14.690   5.618
 1035SOL     OW 4936   7.713   6.509   9.349
 1035SOL    HW1 4937   7.723   6.519   9.443
 1035SOL    HW2 4938   7.752   6.588   9.311
 1036SOL     OW 4939   7.646  11.580   6.374
 1036SOL    HW1 4940   7.661  11.616   6.286
 1036SOL    HW2 4941   7.551  11.586   6.385
 1037SOL     OW 4942   7.777   7.982   2.317
 1037SOL    HW1 4943   7.738   8.069   2.310
 1037SOL    HW2 4944   7.723   7.927   2.260
 1038SOL     OW 4945   9.071  10.749   7.295
 1038SOL    HW1 4946   9.038  10.678   7.241
 1038SOL    HW2 4947   8.996  10.776   7.348
 1039SOL     OW 4948   0.710  14.116   5.213
 1039SOL    HW1 4949   0.786  14.144   5.162
 1039SOL    HW2 4950   0.745  14.098   5.300
 1040SOL     OW 4951   3.383   8.099   8.490
 1040SOL    HW1 4952   3.358   8.008   8.473
 1040SOL    HW2 4953   3.468   8.094   8.533
 1041SOL     OW 4954  10.390  10.022   8.689
 1041SOL    HW1 4955  10.340   9.974   8.623
 1041SOL    HW2 4956  10.465  10.058   8.642
 1042SOL     OW 4957  14.754   7.276  14.011
 1042SOL    HW1 4958  14.753   7.366  14.044
 1042SOL    HW2 4959  14.847   7.258  13.995
 1043SOL     OW 4960   4.352  13.699   4.524
 1043SOL    HW1 4961   4.425  13.664   4.574
 1043SOL    HW2 4962   4.392  13.748   4.453
 1044SOL     OW 4963  11.119   9.791   7.296
 1044SOL    HW1 4964  11.130   9.790   7.201
 1044SOL    HW2 4965  11.055   9.860   7.311
 1045SOL     OW 4966  12.378  10.528   0.392
 1045SOL    HW1 4967  12.400  10.573   0.474
 1045SOL    HW2 4968  12.447  10.462   0.382
 1046SOL     OW 4969   8.062  12.796   1.707
 1046SOL    HW1 4970   8.004  12.740   1.758
 1046SOL    HW2 4971   8.133  12.819   1.767
 1047SOL     OW 4972   4.455   6.771   6.305
 1047SOL    HW1 4973   4.465   6.778   6.210
 1047SOL    HW2 4974   4.524   6.827   6.341
 1048SOL     OW 4975   4.708  12.660   7.115
 1048SOL    HW1 4976   4.646  12.716   7.161
 1048SOL    HW2 4977   4.658  12.580   7.096
 1049SOL     OW 4978   5.580  11.802   2.485
 1049SOL    HW1 4979   5.566  11.736   2.418
 1049SOL    HW2 4980   5.654  11.770   2.536
 1050SOL     OW 4981   3.995   0.186  11.305
 1050SOL    HW1 4982   4.059   0.120  11.331
 1050SOL    HW2 4983   3.982   0.171  11.211
 1051SOL     OW 4984   0.997   3.676   4.931
 1051SOL    HW1 4985   0.963   3.759   4.899
 1051SOL    HW2 4986   0.972   3.612   4.865
 1052SOL     OW 4987   3.631   0.398   4.305
 1052SOL    HW1 4988   3.638   0.392   4.210
 1052SOL    HW2 4989   3.719   0.377   4.337
 1053SOL     OW 4990  10.649   1.408   0.211
 1053SOL    HW1 4991  10.598   1.478   0.171
 1053SOL    HW2 4992  10.628   1.414   0.305
 1054SOL     OW 4993   8.137  12.533  14.711
 1054SOL    HW1 4994   8.065  12.501  14.764
 1054SOL    HW2 4995   8.099  12.548  14.625
 1055SOL     OW 4996   6.350  11.019   6.466
 1055SOL    HW1 4997   6.436  10.997   6.502
 1055SOL    HW2 4998   6.368  11.074   6.390
 1056SOL     OW 4999   8.758   8.153   7.402
 1056SOL    HW1 5000   8.685   8.097   7.429
 1056SOL    HW2 5001   8.717   8.231   7.365
 1057SOL     OW 5002  11.002  12.338  12.413
 1057SOL    HW1 5003  11.013  12.243  12.413
 1057SOL    HW2 5004  10.930  12.354  12.475
 1058SOL     OW 5005   0.856   2.769  10.795
 1058SOL    HW1 5006   0.797   2.762  10.870
 1058SOL    HW2 5007   0.798   2.781  10.720
 1059SOL     OW 5008   3.892   8.445   6.102
 1059SOL    HW1 5009   3.973   8.489   6.125
 1059SOL    HW2 5010   3.919   8.372   6.047
 1060SOL     OW 5011   2.769   1.613   7.161
 1060SOL    HW1 5012   2.828   1.576   7.227
 1060SOL    HW2 5013   2.700   1.547   7.152
 1061SOL     OW 5014  12.027  13.616  10.018
 1061SOL    HW1 5015  12.040  13.619  10.113
 1061SOL    HW2 5016  12.114  13.632   9.982
 1062SOL     OW 5017   0.808   8.785   8.753
 1062SOL    HW1 5018   0.876   8.719   8.741
 1062SOL    HW2 5019   0.832   8.856   8.693
 1063SOL     OW 5020   0.101   9.404  14.260
 1063SOL    HW1 5021   0.011   9.415  14.228
 1063SOL    HW2 5022   0.113   9.309  14.264
 1064SOL     OW 5023  10.173   4.299   4.852
 1064SOL    HW1 5024  10.104   4.365   4.859
 1064SOL    HW2 5025  10.208   4.310   4.764
 1065SOL     OW 5026   0.119   7.115   1.578
 1065SOL    HW1 5027   0.112   7.113   1.673
 1065SOL    HW2 5028   0.213   7.119   1.561
 1066SOL     OW 5029   4.700  12.524   5.617
 1066SOL    HW1 5030   4.725  12.465   5.688
 1066SOL    HW2 5031   4.780  12.539   5.568
 1067SOL     OW 5032  12.703  10.017  14.546
 1067SOL    HW1 5033  12.796  10.002  14.566
 1067SOL    HW2 5034  12.689  10.109  14.568
 1068SOL     OW 5035   8.256  14.136   4.940
 1068SOL    HW1 5036   8.180  14.193   4.957
 1068SOL    HW2 5037   8.314  14.151   5.015
 1069SOL     OW 5038   7.425   5.282  11.943
 1069SOL    HW1 5039   7.473   5.200  11.937
 1069SOL    HW2 5040   7.336   5.255  11.968
 1070SOL     OW 5041  12.683   2.342   4.714
 1070SOL    HW1 5042  12.740   2.348   4.791
 1070SOL    HW2 5043  12.703   2.421   4.663
 1071SOL     OW 5044   0.384  13.257   9.116
 1071SOL    HW1 5045   0.344  13.291   9.036
 1071SOL    HW2 5046   0.358  13.319   9.184
 1072SOL     OW 5047   6.279   8.869  10.619
 1072SOL    HW1 5048   6.342   8.941  10.622
 1072SOL    HW2 5049   6.320   8.800  10.671
 1073SOL     OW 5050  10.005   0.461   7.609
 1073SOL    HW1 5051  10.021   0.520   7.535
 1073SOL    HW2 5052   9.921   0.419   7.588
 1074SOL     OW 5053   5.133   3.470  12.640
 1074SOL    HW1 5054   5.065   3.472  12.573
 1074SOL    HW2 5055   5.214   3.452  12.592
 1075SOL     OW 5056   5.816   8.365   3.880
 1075SOL    HW1 5057   5.909   8.354   3.898
 1075SOL    HW2 5058   5.807   8.457   3.854
 1076SOL     OW 5059   2.100   3.999   5.336
 1076SOL    HW1 5060   2.039   3.957   5.397
 1076SOL    HW2 5061   2.045   4.057   5.283
 1077SOL     OW 5062  12.105  12.827   1.420
 1077SOL    HW1 5063  12.089  12.817   1.514
 1077SOL    HW2 5064  12.184  12.881   1.415
 1078SOL     OW 5065   5.377   3.361  13.998
 1078SOL    HW1 5066   5.468   3.375  13.971
 1078SOL    HW2 5067   5.344   3.449  14.015
 1079SOL     OW 5068  13.806   1.357   3.424
 1079SOL    HW1 5069  13.717   1.392   3.431
 1079SOL    HW2 5070  13.803   1.275   3.473
 1080SOL     OW 5071   9.581   1.829   1.674
 1080SOL    HW1 5072   9.557   1.887   1.745
 1080SOL    HW2 5073   9.504   1.774   1.660
 1081SOL     OW 5074   8.711   7.139   8.539
 1081SOL    HW1 5075   8.780   7.137   8.472
 1081SOL    HW2 5076   8.660   7.060   8.522
 1082SOL     OW 5077   1.357   6.799   1.415
 1082SOL    HW1 5078   1.286   6.860   1.395
 1082SOL    HW2 5079   1.328   6.716   1.377
 1083SOL     OW 5080  12.168   8.410   4.665
 1083SOL    HW1 5081  12.197   8.319   4.674
 1083SOL    HW2 5082  12.135   8.434   4.752
 1084SOL     OW 5083  12.549  12.556   8.613
 1084SOL    HW1 5084  12.566  12.462   8.610
 1084SOL    HW2 5085  12.475  12.569   8.554
 1085SOL     OW 5086  14.686   4.600   1.628
 1085SOL    HW1 5087  14.645   4.550   1.557
 1085SOL    HW2 5088  14.626   4.671   1.645
 1086SOL     OW 5089   7.767   3.413   1.548
 1086SOL    HW1 5090   7.673   3.397   1.537
 1086SOL    HW2 5091   7.783   3.403   1.642
 1087SOL     OW 5092   8.663   6.475   4.050
 1087SOL    HW1 5093   8.676   6.561   4.090
 1087SOL    HW2 5094   8.606   6.491   3.975
 1088SOL     OW 5095   4.963  10.591   3.497
 1088SOL    HW1 5096   4.993  10.501   3.486
 1088SOL    HW2 5097   4.949  10.623   3.408
 1089SOL     OW 5098   5.029   6.988   0.776
 1089SOL    HW1 5099   4.946   7.020   0.741
 1089SOL    HW2 5100   5.096   7.033   0.724
 1090SOL     OW 5101  10.179   1.715   4.052
 1090SOL    HW1 5102  10.217   1.795   4.015
 1090SOL    HW2 5103  10.238   1.691   4.124
 1091SOL     OW 5104   3.594   5.821   5.794
 1091SOL    HW1 5105   3.648   5.778   5.727
 1091SOL    HW2 5106   3.644   5.814   5.874
 1092SOL     OW 5107   7.824   2.095   1.317
 1092SOL    HW1 5108   7.866   2.147   1.249
 1092SOL    HW2 5109   7.836   2.146   1.397
 1093SOL     OW 5110  13.703   0.347  14.179
 1093SOL    HW1 5111  13.741   0.267  14.141
 1093SOL    HW2 5112  13.779   0.401  14.201
 1094SOL     OW 5113   5.849  10.373   7.367
 1094SOL    HW1 5114   5.778  10.359   7.429
 1094SOL    HW2 5115   5.825  10.321   7.290
 1095SOL     OW 5116   8.521   8.263   0.364
 1095SOL    HW1 5117   8.470   8.331   0.407
 1095SOL    HW2 5118   8.543   8.201   0.434
 1096SOL     OW 5119  11.707   4.122   3.025
 1096SOL    HW1 5120  11.630   4.175   3.042
 1096SOL    HW2 5121  11.747   4.110   3.111
 1097SOL     OW 5122  14.555   8.857   0.523
 1097SOL    HW1 5123  14.472   8.858   0.571
 1097SOL    HW2 5124  14.539   8.912   0.446
 1098SOL     OW 5125  14.273   1.813   5.901
 1098SOL    HW1 5126  14.369   1.814   5.899
 1098SOL    HW2 5127  14.251   1.755   5.974
 1099SOL     OW 5128   2.159   2.923   8.091
 1099SOL    HW1 5129   2.127   2.931   8.181
 1099SOL    HW2 5130   2.122   2.998   8.045
 1100SOL     OW 5131  10.994   9.681   1.525
 1100SOL    HW1 5132  10.965   9.729   1.603
 1100SOL    HW2 5133  11.066   9.734   1.490
 1101SOL     OW 5134   8.109   7.905   5.387
 1101SOL    HW1 5135   8.076   7.915   5.476
 1101SOL    HW2 5136   8.058   7.833   5.350
 1102SOL     OW 5137   5.577   5.931   3.117
 1102SOL    HW1 5138   5.509   5.952   3.181
 1102SOL    HW2 5139   5.651   5.902   3.170
 1103SOL     OW 5140  11.526  14.454  12.208
 1103SOL    HW1 5141  11.438  14.455  12.247
 1103SOL    HW2 5142  11.575  14.520  12.257
 1104SOL     OW 5143   6.325  12.123   6.658
 1104SOL    HW1 5144   6.310  12.117   6.752
 1104SOL    HW2 5145   6.260  12.064   6.620
 1105SOL     OW 5146   6.903   6.096   6.520
 1105SOL    HW1 5147   6.878   6.058   6.436
 1105SOL    HW2 5148   6.998   6.082   6.526
 1106SOL     OW 5149   8.207  10.931   5.956
 1106SOL    HW1 5150   8.259  10.851   5.964
 1106SOL    HW2 5151   8.269  10.996   5.922
 1107SOL     OW 5152   1.684   9.982  14.648
 1107SOL    HW1 5153   1.767   9.951  14.686
 1107SOL    HW2 5154   1.649  10.042  14.713
 1108SOL     OW 5155  10.359   9.726   4.749
 1108SOL    HW1 5156  10.390   9.636   4.743
 1108SOL    HW2 5157  10.409   9.774   4.683
 1109SOL     OW 5158   5.144  14.559   6.211
 1109SOL    HW1 5159   5.155  14.488   6.275
 1109SOL    HW2 5160   5.056  14.545   6.175
 1110SOL     OW 5161   1.055   1.569   4.643
 1110SOL    HW1 5162   1.024   1.649   4.600
 1110SOL    HW2 5163   0.979   1.539   4.693
 1111SOL     OW 5164   7.980  11.742   9.099
 1111SOL    HW1 5165   7.923  11.680   9.144
 1111SOL    HW2 5166   8.067  11.703   9.106
 1112SOL     OW 5167   6.626   8.183   5.918
 1112SOL    HW1 5168   6.687   8.175   5.991
 1112SOL    HW2 5169   6.592   8.273   5.925
 1113SOL     OW 5170  12.113  13.711   2.995
 1113SOL    HW1 5171  12.108  13.702   2.899
 1113SOL    HW2 5172  12.165  13.791   3.008
 1114SOL     OW 5173   4.826   4.699  12.739
 1114SOL    HW1 5174   4.769   4.706  12.815
 1114SOL    HW2 5175   4.766   4.684  12.666
 1115SOL     OW 5176   6.253  11.819  11.165
 1115SOL    HW1 5177   6.250  11.876  11.241
 1115SOL    HW2 5178   6.336  11.773  11.173
 1116SOL     OW 5179  13.083   9.300  13.509
 1116SOL    HW1 5180  13.135   9.229  13.472
 1116SOL    HW2 5181  13.014   9.256  13.559
 1117SOL     OW 5182   0.439  10.222   3.506
 1117SOL    HW1 5183   0.454  10.302   3.456
 1117SOL    HW2 5184   0.346  10.202   3.493
 1118SOL     OW 5185   6.178   8.309  13.011
 1118SOL    HW1 5186   6.151   8.366  12.939
 1118SOL    HW2 5187   6.269   8.333  13.028
 1119SOL     OW 5188  13.609   9.818  14.346
 1119SOL    HW1 5189  13.530   9.813  14.399
 1119SOL    HW2 5190  13.623   9.911  14.333
 1120SOL     OW 5191   4.267  13.305   7.665
 1120SOL    HW1 5192   4.230  13.252   7.736
 1120SOL    HW2 5193   4.309  13.241   7.607
 1121SOL     OW 5194  12.168   4.921   0.525
 1121SOL    HW1 5195  12.089   4.933   0.578
 1121SOL    HW2 5196  12.137   4.883   0.443
 1122SOL     OW 5197  11.735  12.065  13.807
 1122SOL    HW1 5198  11.708  12.124  13.736
 1122SOL    HW2 5199  11.733  11.978  13.767
 1123SOL     OW 5200   0.994   0.498   3.878
 1123SOL    HW1 5201   1.053   0.426   3.857
 1123SOL    HW2 5202   0.956   0.524   3.794
 1124SOL     OW 5203  11.519   9.612   3.663
 1124SOL    HW1 5204  11.479   9.699   3.661
 1124SOL    HW2 5205  11.448   9.555   3.692
 1125SOL     OW 5206   5.562   3.184   6.165
 1125SOL    HW1 5207   5.489   3.170   6.104
 1125SOL    HW2 5208   5.639   3.195   6.108
 1126SOL     OW 5209  10.399   8.801  11.238
 1126SOL    HW1 5210  10.414   8.707  11.244
 1126SOL    HW2 5211  10.346   8.822  11.315
 1127SOL     OW 5212  11.137   1.526   1.624
 1127SOL    HW1 5213  11.097   1.530   1.537
 1127SOL    HW2 5214  11.072   1.480   1.678
 1128SOL     OW 5215   3.937   2.795   0.764
 1128SOL    HW1 5216   3.982   2.738   0.702
 1128SOL    HW2 5217   4.003   2.815   0.831
 1129SOL     OW 5218   4.576   2.821   5.130
 1129SOL    HW1 5219   4.516   2.896   5.129
 1129SOL    HW2 5220   4.528   2.752   5.083
 1130SOL     OW 5221   9.732   5.419  11.576
 1130SOL    HW1 5222   9.658   5.478  11.590
 1130SOL    HW2 5223   9.755   5.433  11.484
 1131SOL     OW 5224   2.803   8.012   3.216
 1131SOL    HW1 5225   2.812   8.041   3.306
 1131SOL    HW2 5226   2.734   8.067   3.178
 1132SOL     OW 5227   3.029   2.036  12.532
 1132SOL    HW1 5228   2.960   2.092  12.566
 1132SOL    HW2 5229   2.988   1.988  12.460
 1133SOL     OW 5230   5.111   2.345   9.363
 1133SOL    HW1 5231   5.104   2.282   9.291
 1133SOL    HW2 5232   5.036   2.326   9.419
 1134SOL     OW 5233  12.708   0.083  11.328
 1134SOL    HW1 5234  12.612   0.085  11.326
 1134SOL    HW2 5235  12.730   0.104  11.419
 1135SOL     OW 5236   1.903   4.736   8.158
 1135SOL    HW1 5237   1.880   4.750   8.066
 1135SOL    HW2 5238   1.823   4.761   8.206
 1136SOL     OW 5239   5.617   1.985   2.181
 1136SOL    HW1 5240   5.530   1.959   2.211
 1136SOL    HW2 5241   5.669   1.905   2.187
 1137SOL     OW 5242   1.041   1.133   5.810
 1137SOL    HW1 5243   0.958   1.094   5.837
 1137SOL    HW2 5244   1.023   1.228   5.810
 1138SOL     OW 5245   7.932   3.368  13.459
 1138SOL    HW1 5246   8.020   3.405  13.463
 1138SOL    HW2 5247   7.879   3.437  13.418
 1139SOL     OW 5248  10.203   1.678  10.279
 1139SOL    HW1 5249  10.281   1.638  10.319
 1139SOL    HW2 5250  10.231   1.766  10.255
 1140SOL     OW 5251   2.244  13.208   8.680
 1140SOL    HW1 5252   2.322  13.233   8.730
 1140SOL    HW2 5253   2.264  13.120   8.648
 1141SOL     OW 5254   8.410   5.509   5.235
 1141SOL    HW1 5255   8.360   5.432   5.263
 1141SOL    HW2 5256   8.369   5.582   5.283
 1142SOL     OW 5257   4.444  12.233   8.045
 1142SOL    HW1 5258   4.382  12.257   7.975
 1142SOL    HW2 5259   4.395  12.248   8.126
 1143SOL     OW 5260   2.152  11.519   2.529
 1143SOL    HW1 5261   2.151  11.429   2.497
 1143SOL    HW2 5262   2.062  11.536   2.556
 1144SOL     OW 5263   6.041   9.719  12.834
 1144SOL    HW1 5264   5.971   9.736  12.770
 1144SOL    HW2 5265   6.016   9.770  12.911
 1145SOL     OW 5266  13.086   5.241   6.623
 1145SOL    HW1 5267  13.072   5.152   6.590
 1145SOL    HW2 5268  13.145   5.282   6.560
 1146SOL     OW 5269   7.645   5.678   2.978
 1146SOL    HW1 5270   7.701   5.718   2.912
 1146SOL    HW2 5271   7.556   5.703   2.952
 1147SOL     OW 5272   9.784   5.241   6.338
 1147SOL    HW1 5273   9.859   5.187   6.364
 1147SOL    HW2 5274   9.797   5.254   6.244
 1148SOL     OW 5275   6.788   2.375  12.674
 1148SOL    HW1 5276   6.812   2.413  12.758
 1148SOL    HW2 5277   6.835   2.427  12.609
 1149SOL     OW 5278   9.238   4.170   6.553
 1149SOL    HW1 5279   9.181   4.195   6.625
 1149SOL    HW2 5280   9.240   4.075   6.555
 1150SOL     OW 5281   7.995   3.839   0.327
 1150SOL    HW1 5282   8.061   3.847   0.397
 1150SOL    HW2 5283   7.912   3.862   0.370
 1151SOL     OW 5284   5.413   7.839  14.401
 1151SOL    HW1 5285   5.497   7.819  14.444
 1151SOL    HW2 5286   5.432   7.916  14.346
 1152SOL     OW 5287   0.129   7.735   4.891
 1152SOL    HW1 5288   0.042   7.701   4.871
 1152SOL    HW2 5289   0.186   7.658   4.886
 1153SOL     OW 5290   8.896  13.972   3.651
 1153SOL    HW1 5291   8.986  13.957   3.682
 1153SOL    HW2 5292   8.846  13.988   3.731
 1154SOL     OW 5293   0.836  10.984  14.358
 1154SOL    HW1 5294   0.802  11.040  14.288
 1154SOL    HW2 5295   0.763  10.973  14.418
 1155SOL     OW 5296  10.425   5.093  14.293
 1155SOL    HW1 5297  10.484   5.037  14.242
 1155SOL    HW2 5298  10.338   5.056  14.279
 1156SOL     OW 5299   5.178   8.662  11.782
 1156SOL    HW1 5300   5.095   8.626  11.749
 1156SOL    HW2 5301   5.244   8.601  11.751
 1157SOL     OW 5302   4.482   4.327   0.177
 1157SOL    HW1 5303   4.427   4.268   0.228
 1157SOL    HW2 5304   4.548   4.270   0.138
 1158SOL     OW 5305   2.041  12.057   0.878
 1158SOL    HW1 5306   1.967  12.098   0.834
 1158SOL    HW2 5307   2.002  11.996   0.940
 1159SOL     OW 5308   8.174   6.079   2.987
 1159SOL    HW1 5309   8.079   6.067   2.988
 1159SOL    HW2 5310   8.194   6.109   2.899
 1160SOL     OW 5311   4.199   4.469  12.450
 1160SOL    HW1 5312   4.129   4.416  12.412
 1160SOL    HW2 5313   4.279   4.425  12.422
 1161SOL     OW 5314   7.632  13.980   9.521
 1161SOL    HW1 5315   7.604  14.069   9.544
 1161SOL    HW2 5316   7.591  13.963   9.436
 1162SOL     OW 5317   6.190  10.340   5.435
 1162SOL    HW1 5318   6.241  10.259   5.427
 1162SOL    HW2 5319   6.255  10.409   5.421
 1163SOL     OW 5320  13.534   2.586   2.204
 1163SOL    HW1 5321  13.604   2.575   2.140
 1163SOL    HW2 5322  13.565   2.656   2.262
 1164SOL     OW 5323  13.546  10.834   5.141
 1164SOL    HW1 5324  13.462  10.796   5.164
 1164SOL    HW2 5325  13.573  10.786   5.062
 1165SOL     OW 5326   4.538   4.550  10.058
 1165SOL    HW1 5327   4.500   4.607   9.991
 1165SOL    HW2 5328   4.509   4.588  10.141
 1166SOL     OW 5329   2.827   6.627   9.683
 1166SOL    HW1 5330   2.820   6.596   9.774
 1166SOL    HW2 5331   2.898   6.691   9.685
 1167SOL     OW 5332   8.083  11.966  10.102
 1167SOL    HW1 5333   8.076  12.023  10.179
 1167SOL    HW2 5334   8.166  11.991  10.061
 1168SOL     OW 5335   7.255   3.513  12.565
 1168SOL    HW1 5336   7.200   3.436  12.570
 1168SOL    HW2 5337   7.247   3.543  12.474
 1169SOL     OW 5338   5.471   2.593  12.334
 1169SOL    HW1 5339   5.429   2.514  12.299
 1169SOL    HW2 5340   5.520   2.629  12.260
 1170SOL     OW 5341   4.361   1.091  12.859
 1170SOL    HW1 5342   4.402   1.005  12.858
 1170SOL    HW2 5343   4.406   1.139  12.928
 1171SOL     OW 5344  11.379  10.386   0.866
 1171SOL    HW1 5345  11.341  10.365   0.951
 1171SOL    HW2 5346  11.337  10.326   0.805
 1172SOL     OW 5347   9.089   7.728   7.840
 1172SOL    HW1 5348   9.050   7.641   7.837
 1172SOL    HW2 5349   9.024   7.785   7.800
 1173SOL     OW 5350   7.722   1.083   5.221
 1173SOL    HW1 5351   7.647   1.033   5.253
 1173SOL    HW2 5352   7.744   1.043   5.137
 1174SOL     OW 5353  10.473   4.460  11.571
 1174SOL    HW1 5354  10.422   4.459  11.651
 1174SOL    HW2 5355  10.441   4.385  11.521
 1175SOL     OW 5356  10.721   5.617   6.215
 1175SOL    HW1 5357  10.767   5.596   6.296
 1175SOL    HW2 5358  10.777   5.680   6.170
 1176SOL     OW 5359   6.076   0.170   0.646
 1176SOL    HW1 5360   6.028   0.182   0.728
 1176SOL    HW2 5361   6.111   0.257   0.626
 1177SOL     OW 5362  14.680   3.109  12.594
 1177SOL    HW1 5363  14.724   3.082  12.513
 1177SOL    HW2 5364  14.728   3.187  12.622
 1178SOL     OW 5365  13.914  13.243   2.730
 1178SOL    HW1 5366  13.884  13.153   2.720
 1178SOL    HW2 5367  14.003  13.235   2.765
 1179SOL     OW 5368   9.528   1.550  11.902
 1179SOL    HW1 5369   9.597   1.575  11.963
 1179SOL    HW2 5370   9.498   1.632  11.864
 1180SOL     OW 5371  12.445  14.720   9.213
 1180SOL    HW1 5372  12.480  14.805   9.187
 1180SOL    HW2 5373  12.504  14.689   9.281
 1181SOL     OW 5374   8.769   9.972   1.936
 1181SOL    HW1 5375   8.733   9.893   1.977
 1181SOL    HW2 5376   8.707   9.993   1.866
 1182SOL     OW 5377   7.306   4.269   1.786
 1182SOL    HW1 5378   7.365   4.198   1.760
 1182SOL    HW2 5379   7.365   4.335   1.825
 1183SOL     OW 5380  13.446   1.215   4.737
 1183SOL    HW1 5381  13.355   1.208   4.707
 1183SOL    HW2 5382  13.459   1.137   4.791
 1184SOL     OW 5383   9.035  12.297   8.017
 1184SOL    HW1 5384   9.088  12.372   8.045
 1184SOL    HW2 5385   9.055  12.229   8.082
 1185SOL     OW 5386   8.297   0.111   9.181
 1185SOL    HW1 5387   8.291   0.197   9.222
 1185SOL    HW2 5388   8.377   0.114   9.129
 1186SOL     OW 5389   9.075  10.530   5.975
 1186SOL    HW1 5390   9.111  10.609   6.016
 1186SOL    HW2 5391   9.122  10.458   6.017
 1187SOL     OW 5392  13.016   2.095  10.341
 1187SOL    HW1 5393  13.072   2.099  10.264
 1187SOL    HW2 5394  12.929   2.077  10.307
 1188SOL     OW 5395   0.072   7.942  12.844
 1188SOL    HW1 5396   0.152   7.890  12.841
 1188SOL    HW2 5397   0.010   7.894  12.789
 1189SOL     OW 5398  14.653   5.862  10.781
 1189SOL    HW1 5399  14.637   5.800  10.852
 1189SOL    HW2 5400  14.745   5.888  10.793
 1190SOL     OW 5401   1.851   2.622  12.737
 1190SOL    HW1 5402   1.897   2.546  12.772
 1190SOL    HW2 5403   1.762   2.614  12.774
 1191SOL     OW 5404   5.927   1.512   6.572
 1191SOL    HW1 5405   5.938   1.566   6.494
 1191SOL    HW2 5406   5.864   1.445   6.545
 1192SOL     OW 5407  14.015   7.011   4.542
 1192SOL    HW1 5408  13.936   6.961   4.564
 1192SOL    HW2 5409  14.087   6.950   4.557
 1193SOL     OW 5410   9.507   8.328  11.384
 1193SOL    HW1 5411   9.555   8.396  11.336
 1193SOL    HW2 5412   9.459   8.281  11.316
 1194SOL     OW 5413  10.266   2.069   1.303
 1194SOL    HW1 5414  10.237   2.160   1.312
 1194SOL    HW2 5415  10.283   2.040   1.392
 1195SOL     OW 5416  14.570   2.773   1.388
 1195SOL    HW1 5417  14.530   2.832   1.324
 1195SOL    HW2 5418  14.639   2.825   1.429
 1196SOL     OW 5419   4.432   5.222  11.945
 1196SOL    HW1 5420   4.402   5.309  11.970
 1196SOL    HW2 5421   4.525   5.222  11.967
 1197SOL     OW 5422   1.080   0.820  13.643
 1197SOL    HW1 5423   1.045   0.878  13.576
 1197SOL    HW2 5424   1.002   0.784  13.686
 1198SOL     OW 5425   5.734   7.080  12.373
 1198SOL    HW1 5426   5.827   7.060  12.380
 1198SOL    HW2 5427   5.710   7.054  12.284
 1199SOL     OW 5428   2.019   9.016  14.005
 1199SOL    HW1 5429   1.960   8.983  14.073
 1199SOL    HW2 5430   1.963   9.026  13.928
 1200SOL     OW 5431   3.838  14.225   4.115
 1200SOL    HW1 5432   3.765  14.162   4.112
 1200SOL    HW2 5433   3.916  14.172   4.099
 1201SOL     OW 5434   8.543   6.660   6.456
 1201SOL    HW1 5435   8.476   6.726   6.475
 1201SOL    HW2 5436   8.611   6.707   6.409
 1202SOL     OW 5437   1.602   3.300   7.058
 1202SOL    HW1 5438   1.578   3.347   6.978
 1202SOL    HW2 5439   1.526   3.245   7.077
 1203SOL     OW 5440   5.579  12.729   2.160
 1203SOL    HW1 5441   5.521  12.805   2.166
 1203SOL    HW2 5442   5.579  12.706   2.067
 1204SOL     OW 5443   1.937   6.133   8.415
 1204SOL    HW1 5444   1.930   6.108   8.323
 1204SOL    HW2 5445   2.030   6.145   8.430
 1205SOL     OW 5446   7.130  11.016   5.276
 1205SOL    HW1 5447   7.073  11.017   5.199
 1205SOL    HW2 5448   7.198  11.081   5.257
 1206SOL     OW 5449  10.961   6.317   6.666
 1206SOL    HW1 5450  11.003   6.250   6.719
 1206SOL    HW2 5451  10.950   6.276   6.580
 1207SOL     OW 5452  13.527   6.485  10.398
 1207SOL    HW1 5453  13.486   6.572  10.402
 1207SOL    HW2 5454  13.551   6.467  10.489
 1208SOL     OW 5455   8.924   8.217   9.510
 1208SOL    HW1 5456   8.896   8.297   9.554
 1208SOL    HW2 5457   8.941   8.155   9.581
 1209SOL     OW 5458   7.280   8.987   4.191
 1209SOL    HW1 5459   7.269   8.985   4.286
 1209SOL    HW2 5460   7.268   8.896   4.163
 1210SOL     OW 5461  14.098   3.149  13.658
 1210SOL    HW1 5462  14.147   3.219  13.702
 1210SOL    HW2 5463  14.146   3.069  13.680
 1211SOL     OW 5464   7.222  12.626  12.701
 1211SOL    HW1 5465   7.136  12.587  12.685
 1211SOL    HW2 5466   7.270  12.559  12.750
 1212SOL     OW 5467   6.086   0.356   1.926
 1212SOL    HW1 5468   6.130   0.328   1.846
 1212SOL    HW2 5469   6.156   0.358   1.992
 1213SOL     OW 5470   3.874   5.684   4.494
 1213SOL    HW1 5471   3.787   5.674   4.455
 1213SOL    HW2 5472   3.926   5.614   4.454
 1214SOL     OW 5473  14.719   0.631   8.984
 1214SOL    HW1 5474  14.724   0.582   8.901
 1214SOL    HW2 5475  14.722   0.563   9.051
 1215SOL     OW 5476   2.996  10.981   2.597
 1215SOL    HW1 5477   2.928  11.010   2.658
 1215SOL    HW2 5478   3.025  10.897   2.633
 1216SOL     OW 5479  11.180   4.630   8.918
 1216SOL    HW1 5480  11.157   4.697   8.983
 1216SOL    HW2 5481  11.115   4.561   8.931
 1217SOL     OW 5482  14.304   0.309  12.970
 1217SOL    HW1 5483  14.221   0.273  12.937
 1217SOL    HW2 5484  14.299   0.299  13.065
 1218SOL     OW 5485   4.489   1.452   1.760
 1218SOL    HW1 5486   4.401   1.464   1.725
 1218SOL    HW2 5487   4.535   1.533   1.738
 1219SOL     OW 5488   5.273   4.827   9.391
 1219SOL    HW1 5489   5.341   4.874   9.439
 1219SOL    HW2 5490   5.268   4.872   9.307
 1220SOL     OW 5491   4.685   9.444   9.806
 1220SOL    HW1 5492   4.612   9.505   9.817
 1220SOL    HW2 5493   4.645   9.357   9.809
 1221SOL     OW 5494  14.218   8.164  12.987
 1221SOL    HW1 5495  14.138   8.118  13.011
 1221SOL    HW2 5496  14.221   8.239  13.046
 1222SOL     OW 5497  13.051  10.246  14.148
 1222SOL    HW1 5498  13.058  10.288  14.062
 1222SOL    HW2 5499  12.958  10.246  14.168
 1223SOL     OW 5500  12.591  10.597   3.930
 1223SOL    HW1 5501  12.684  10.582   3.945
 1223SOL    HW2 5502  12.547  10.554   4.003
 1224SOL     OW 5503   7.472   0.258   0.924
 1224SOL    HW1 5504   7.417   0.274   0.847
 1224SOL    HW2 5505   7.518   0.341   0.938
 1225SOL     OW 5506   3.698  11.411   6.625
 1225SOL    HW1 5507   3.604  11.409   6.644
 1225SOL    HW2 5508   3.740  11.417   6.710
 1226SOL     OW 5509  13.769   9.849   5.148
 1226SOL    HW1 5510  13.728   9.809   5.071
 1226SOL    HW2 5511  13.862   9.852   5.127
 1227SOL     OW 5512   7.194  13.719   6.466
 1227SOL    HW1 5513   7.150  13.688   6.545
 1227SOL    HW2 5514   7.278  13.753   6.496
 1228SOL     OW 5515  13.461   4.496   3.791
 1228SOL    HW1 5516  13.535   4.438   3.806
 1228SOL    HW2 5517  13.391   4.439   3.759
 1229SOL     OW 5518   9.045   7.568   2.243
 1229SOL    HW1 5519   8.981   7.625   2.285
 1229SOL    HW2 5520   9.125   7.580   2.294
 1230SOL     OW 5521   0.427  11.232   2.974
 1230SOL    HW1 5522   0.393  11.190   2.895
 1230SOL    HW2 5523   0.351  11.241   3.032
 1231SOL     OW 5524  14.594   1.884   7.355
 1231SOL    HW1 5525  14.557   1.797   7.342
 1231SOL    HW2 5526  14.558   1.937   7.284
 1232SOL     OW 5527  11.861   1.622   9.376
 1232SOL    HW1 5528  11.799   1.614   9.448
 1232SOL    HW2 5529  11.807   1.636   9.298
 1233SOL     OW 5530   1.392  12.182   9.158
 1233SOL    HW1 5531   1.386  12.188   9.253
 1233SOL    HW2 5532   1.344  12.258   9.126
 1234SOL     OW 5533   5.966  10.724   6.869
 1234SOL    HW1 5534   5.934  10.814   6.866
 1234SOL    HW2 5535   5.887  10.671   6.881
 1235SOL     OW 5536   7.355   6.599   0.074
 1235SOL    HW1 5537   7.443   6.575   0.045
 1235SOL    HW2 5538   7.329   6.529   0.133
 1236SOL     OW 5539  12.798   3.327   1.795
 1236SOL    HW1 5540  12.785   3.232   1.791
 1236SOL    HW2 5541  12.888   3.337   1.826
 1237SOL     OW 5542  10.751   7.590   5.259
 1237SOL    HW1 5543  10.826   7.613   5.204
 1237SOL    HW2 5544  10.782   7.516   5.311
 1238SOL     OW 5545  12.015   9.693  12.586
 1238SOL    HW1 5546  11.975   9.645  12.658
 1238SOL    HW2 5547  11.957   9.768  12.572
 1239SOL     OW 5548   9.431   4.088  12.807
 1239SOL    HW1 5549   9.440   4.064  12.715
 1239SOL    HW2 5550   9.520   4.083  12.843
 1240SOL     OW 5551  14.570   9.711  14.380
 1240SOL    HW1 5552  14.514   9.674  14.448
 1240SOL    HW2 5553  14.659   9.698  14.412
 1241SOL     OW 5554   9.481  14.660   3.728
 1241SOL    HW1 5555   9.395  14.622   3.715
 1241SOL    HW2 5556   9.512  14.621   3.810
 1242SOL     OW 5557   1.356  13.967  12.545
 1242SOL    HW1 5558   1.371  13.878  12.514
 1242SOL    HW2 5559   1.262  13.982  12.529
 1243SOL     OW 5560  13.031  12.139   9.894
 1243SOL    HW1 5561  12.956  12.081   9.909
 1243SOL    HW2 5562  13.020  12.169   9.804
 1244SOL     OW 5563  14.038  12.528   3.557
 1244SOL    HW1 5564  13.948  12.555   3.542
 1244SOL    HW2 5565  14.055  12.461   3.491
 1245SOL     OW 5566   5.095   4.115   3.243
 1245SOL    HW1 5567   5.032   4.130   3.172
 1245SOL    HW2 5568   5.172   4.165   3.217
 1246SOL     OW 5569   4.824   7.118   0.603
 1246SOL    HW1 5570   4.872   7.077   0.531
 1246SOL    HW2 5571   4.837   7.212   0.591
 1247SOL     OW 5572   3.853   8.459  12.377
 1247SOL    HW1 5573   3.770   8.503  12.359
 1247SOL    HW2 5574   3.906   8.473  12.298
 1248SOL     OW 5575   7.282   8.669   1.339
 1248SOL    HW1 5576   7.270   8.591   1.284
 1248SOL    HW2 5577   7.302   8.739   1.277
 1249SOL     OW 5578   1.274   7.755   1.832
 1249SOL    HW1 5579   1.190   7.800   1.823
 1249SOL    HW2 5580   1.335   7.824   1.861
 1250SOL     OW 5581   7.874   7.909   5.141
 1250SOL    HW1 5582   7.843   7.988   5.186
 1250SOL    HW2 5583   7.852   7.838   5.200
 1251SOL     OW 5584   6.606  10.336   6.079
 1251SOL    HW1 5585   6.604  10.412   6.138
 1251SOL    HW2 5586   6.551  10.271   6.123
 1252SOL     OW 5587  13.303   8.236  14.347
 1252SOL    HW1 5588  13.377   8.290  14.374
 1252SOL    HW2 5589  13.230   8.267  14.399
 1253SOL     OW 5590  12.807   5.592   7.254
 1253SOL    HW1 5591  12.817   5.686   7.269
 1253SOL    HW2 5592  12.742   5.585   7.184
 1254SOL     OW 5593  12.270   7.166   3.574
 1254SOL    HW1 5594  12.184   7.130   3.551
 1254SOL    HW2 5595  12.258   7.261   3.569
 1255SOL     OW 5596   8.583  13.589   7.857
 1255SOL    HW1 5597   8.621  13.555   7.939
 1255SOL    HW2 5598   8.646  13.656   7.828
 1256SOL     OW 5599   5.820  11.852   0.937
 1256SOL    HW1 5600   5.809  11.934   0.888
 1256SOL    HW2 5601   5.732  11.816   0.943
 1257SOL     OW 5602  10.586  12.792   2.869
 1257SOL    HW1 5603  10.642  12.727   2.911
 1257SOL    HW2 5604  10.497  12.761   2.885
 1258SOL     OW 5605  10.011  10.267  12.386
 1258SOL    HW1 5606   9.995  10.174  12.401
 1258SOL    HW2 5607   9.963  10.311  12.456
 1259SOL     OW 5608  10.032  11.451   4.029
 1259SOL    HW1 5609   9.945  11.425   3.999
 1259SOL    HW2 5610  10.054  11.387   4.097
 1260SOL     OW 5611  13.375   5.731   0.535
 1260SOL    HW1 5612  13.413   5.781   0.607
 1260SOL    HW2 5613  13.421   5.762   0.457
 1261SOL     OW 5614  11.813  12.516   0.315
 1261SOL    HW1 5615  11.818  12.452   0.245
 1261SOL    HW2 5616  11.881  12.491   0.377
 1262SOL     OW 5617   3.817   1.173   1.170
 1262SOL    HW1 5618   3.807   1.098   1.229
 1262SOL    HW2 5619   3.897   1.216   1.200
 1263SOL     OW 5620   2.618  13.441   7.193
 1263SOL    HW1 5621   2.603  13.460   7.286
 1263SOL    HW2 5622   2.534  13.460   7.151
 1264SOL     OW 5623   0.175   3.689   9.950
 1264SOL    HW1 5624   0.202   3.597   9.956
 1264SOL    HW2 5625   0.110   3.690   9.880
 1265SOL     OW 5626  13.621  12.563  12.532
 1265SOL    HW1 5627  13.566  12.592  12.459
 1265SOL    HW2 5628  13.574  12.591  12.610
 1266SOL     OW 5629   3.970  13.684   5.474
 1266SOL    HW1 5630   3.978  13.595   5.509
 1266SOL    HW2 5631   4.001  13.676   5.384
 1267SOL     OW 5632   4.118   8.172  12.227
 1267SOL    HW1 5633   4.095   8.202  12.139
 1267SOL    HW2 5634   4.119   8.076  12.219
 1268SOL     OW 5635   5.870  13.247   3.227
 1268SOL    HW1 5636   5.788  13.276   3.268
 1268SOL    HW2 5637   5.856  13.154   3.210
 1269SOL     OW 5638   7.731  14.148   0.186
 1269SOL    HW1 5639   7.801  14.119   0.127
 1269SOL    HW2 5640   7.651  14.129   0.138
 1270SOL     OW 5641   8.649   1.906  13.040
 1270SOL    HW1 5642   8.685   1.983  12.995
 1270SOL    HW2 5643   8.683   1.832  12.989
 1271SOL     OW 5644  13.855   3.144  10.991
 1271SOL    HW1 5645  13.913   3.080  11.031
 1271SOL    HW2 5646  13.815   3.190  11.066
 1272SOL     OW 5647  14.553   1.282   3.690
 1272SOL    HW1 5648  14.531   1.200   3.735
 1272SOL    HW2 5649  14.617   1.325   3.748
 1273SOL     OW 5650  10.291   5.034   0.755
 1273SOL    HW1 5651  10.298   5.026   0.660
 1273SOL    HW2 5652  10.204   4.999   0.776
 1274SOL     OW 5653   5.147   1.240   3.306
 1274SOL    HW1 5654   5.216   1.234   3.372
 1274SOL    HW2 5655   5.078   1.183   3.339
 1275SOL     OW 5656   8.501  12.925  13.303
 1275SOL    HW1 5657   8.531  12.927  13.394
 1275SOL    HW2 5658   8.439  12.852  13.300
 1276SOL     OW 5659  11.948   1.683   8.646
 1276SOL    HW1 5660  11.989   1.673   8.732
 1276SOL    HW2 5661  12.009   1.640   8.585
 1277SOL     OW 5662   6.291   0.509   6.106
 1277SOL    HW1 5663   6.265   0.417   6.112
 1277SOL    HW2 5664   6.209   0.557   6.095
 1278SOL     OW 5665   4.487  10.450   7.351
 1278SOL    HW1 5666   4.546  10.472   7.280
 1278SOL    HW2 5667   4.494  10.355   7.360
 1279SOL     OW 5668   4.212   5.957   4.921
 1279SOL    HW1 5669   4.300   5.919   4.911
 1279SOL    HW2 5670   4.214   6.035   4.867
 1280SOL     OW 5671   0.256   5.793  12.775
 1280SOL    HW1 5672   0.250   5.869  12.718
 1280SOL    HW2 5673   0.188   5.807  12.841
 1281SOL     OW 5674   2.190   1.607   0.414
 1281SOL    HW1 5675   2.180   1.600   0.319
 1281SOL    HW2 5676   2.157   1.694   0.435
 1282SOL     OW 5677   5.800   1.951   9.420
 1282SOL    HW1 5678   5.713   1.988   9.407
 1282SOL    HW2 5679   5.788   1.857   9.404
 1283SOL     OW 5680  10.068   7.899   9.461
 1283SOL    HW1 5681  10.024   7.816   9.479
 1283SOL    HW2 5682  10.150   7.874   9.419
 1284SOL     OW 5683   0.729  13.223   5.087
 1284SOL    HW1 5684   0.647  13.175   5.082
 1284SOL    HW2 5685   0.711  13.307   5.044
 1285SOL     OW 5686   9.443   8.498  14.095
 1285SOL    HW1 5687   9.474   8.558  14.163
 1285SOL    HW2 5688   9.519   8.486  14.038
 1286SOL     OW 5689   7.509   9.693   0.771
 1286SOL    HW1 5690   7.500   9.706   0.865
 1286SOL    HW2 5691   7.420   9.673   0.742
 1287SOL     OW 5692   1.394  13.732   9.502
 1287SOL    HW1 5693   1.485  13.740   9.475
 1287SOL    HW2 5694   1.350  13.692   9.426
 1288SOL     OW 5695  12.240   2.074  13.100
 1288SOL    HW1 5696  12.274   2.075  13.010
 1288SOL    HW2 5697  12.287   2.145  13.145
 1289SOL     OW 5698   1.094   6.867  12.783
 1289SOL    HW1 5699   1.059   6.943  12.829
 1289SOL    HW2 5700   1.073   6.883  12.691
 1290SOL     OW 5701   0.650   8.929   5.392
 1290SOL    HW1 5702   0.657   8.848   5.341
 1290SOL    HW2 5703   0.732   8.976   5.374
 1291SOL     OW 5704  13.090  14.105  10.766
 1291SOL    HW1 5705  13.180  14.134  10.780
 1291SOL    HW2 5706  13.097  14.030  10.707
 1292SOL     OW 5707  10.009  14.643  12.958
 1292SOL    HW1 5708   9.952  14.575  12.993
 1292SOL    HW2 5709  10.090  14.635  13.009
 1293SOL     OW 5710   1.853   2.372   0.096
 1293SOL    HW1 5711   1.862   2.438   0.028
 1293SOL    HW2 5712   1.942   2.338   0.108
 1294SOL     OW 5713   0.430   8.666  12.301
 1294SOL    HW1 5714   0.491   8.597  12.275
 1294SOL    HW2 5715   0.456   8.689  12.390
 1295SOL     OW 5716   0.987   5.351  11.785
 1295SOL    HW1 5717   1.016   5.436  11.751
 1295SOL    HW2 5718   0.894   5.364  11.804
 1296SOL     OW 5719   5.848   0.213   1.162
 1296SOL    HW1 5720   5.780   0.263   1.207
 1296SOL    HW2 5721   5.930   0.254   1.189
 1297SOL     OW 5722  12.811   5.859   8.675
 1297SOL    HW1 5723  12.835   5.872   8.583
 1297SOL    HW2 5724  12.863   5.923   8.722
 1298SOL     OW 5725  12.885   8.956   7.152
 1298SOL    HW1 5726  12.934   8.963   7.070
 1298SOL    HW2 5727  12.925   8.882   7.197
 1299SOL     OW 5728  12.299  12.220  12.332
 1299SOL    HW1 5729  12.394  12.208  12.325
 1299SOL    HW2 5730  12.273  12.162  12.403
 1300SOL     OW 5731  14.645  13.251  14.058
 1300SOL    HW1 5732  14.645  13.339  14.096
 1300SOL    HW2 5733  14.574  13.205  14.103
 1301SOL     OW 5734   5.537   0.398   4.980
 1301SOL    HW1 5735   5.472   0.339   4.941
 1301SOL    HW2 5736   5.621   0.361   4.954
 1302SOL     OW 5737   3.588  12.158   9.055
 1302SOL    HW1 5738   3.556  12.087   9.110
 1302SOL    HW2 5739   3.655  12.201   9.109
 1303SOL     OW 5740   1.034  13.590   4.510
 1303SOL    HW1 5741   1.102  13.530   4.538
 1303SOL    HW2 5742   1.068  13.629   4.430
 1304SOL     OW 5743  14.852   6.216  11.503
 1304SOL    HW1 5744  14.872   6.245  11.592
 1304SOL    HW2 5745   0.061   6.217  11.458
 1305SOL     OW 5746   8.648  10.601  10.155
 1305SOL    HW1 5747   8.626  10.675  10.099
 1305SOL    HW2 5748   8.621  10.524  10.104
 1306SOL     OW 5749   4.562  11.873   3.741
 1306SOL    HW1 5750   4.471  11.898   3.725
 1306SOL    HW2 5751   4.608  11.957   3.749
 1307SOL     OW 5752   6.238   3.876   3.398
 1307SOL    HW1 5753   6.303   3.868   3.329
 1307SOL    HW2 5754   6.268   3.950   3.451
 1308SOL     OW 5755   7.724   0.782  10.105
 1308SOL    HW1 5756   7.808   0.794  10.061
 1308SOL    HW2 5757   7.733   0.830  10.187
 1309SOL     OW 5758   5.470   0.042   7.242
 1309SOL    HW1 5759   5.471   0.137   7.225
 1309SOL    HW2 5760   5.426   0.033   7.327
 1310SOL     OW 5761   0.836   7.840  11.185
 1310SOL    HW1 5762   0.858   7.928  11.156
 1310SOL    HW2 5763   0.899   7.783  11.142
 1311SOL     OW 5764   5.834  13.284   9.412
 1311SOL    HW1 5765   5.921  13.257   9.383
 1311SOL    HW2 5766   5.819  13.235   9.493
 1312SOL     OW 5767  13.138  13.884  10.619
 1312SOL    HW1 5768  13.058  13.843  10.653
 1312SOL    HW2 5769  13.140  13.860  10.527
 1313SOL     OW 5770   3.735  13.532   6.615
 1313SOL    HW1 5771   3.794  13.503   6.685
 1313SOL    HW2 5772   3.693  13.611   6.651
 1314SOL     OW 5773   7.253   2.856   8.700
 1314SOL    HW1 5774   7.296   2.790   8.647
 1314SOL    HW2 5775   7.273   2.832   8.790
 1315SOL     OW 5776   5.758  13.153   5.062
 1315SOL    HW1 5777   5.694  13.224   5.055
 1315SOL    HW2 5778   5.793  13.162   5.151
 1316SOL     OW 5779   5.880   5.146   2.933
 1316SOL    HW1 5780   5.956   5.190   2.894
 1316SOL    HW2 5781   5.907   5.055   2.942
 1317SOL     OW 5782   4.848  11.803  11.545
 1317SOL    HW1 5783   4.771  11.745  11.540
 1317SOL    HW2 5784   4.852  11.829  11.637
 1318SOL     OW 5785   2.048   6.777   0.776
 1318SOL    HW1 5786   1.997   6.793   0.855
 1318SOL    HW2 5787   1.998   6.819   0.706
 1319SOL     OW 5788   4.205  13.081   9.436
 1319SOL    HW1 5789   4.255  13.038   9.505
 1319SOL    HW2 5790   4.244  13.168   9.429
 1320SOL     OW 5791  13.694  13.586  11.212
 1320SOL    HW1 5792  13.685  13.499  11.250
 1320SOL    HW2 5793  13.624  13.591  11.147
 1321SOL     OW 5794   0.067   8.898  14.729
 1321SOL    HW1 5795   0.114   8.899  14.646
 1321SOL    HW2 5796   0.085   8.811  14.766
 1322SOL     OW 5797  11.633  11.631   7.990
 1322SOL    HW1 5798  11.621  11.542   7.955
 1322SOL    HW2 5799  11.662  11.682   7.915
 1323SOL     OW 5800   5.851   5.611   0.734
 1323SOL    HW1 5801   5.884   5.563   0.659
 1323SOL    HW2 5802   5.838   5.544   0.801
 1324SOL     OW 5803  10.287   1.089   3.459
 1324SOL    HW1 5804  10.293   1.088   3.554
 1324SOL    HW2 5805  10.371   1.055   3.429
 1325SOL     OW 5806   1.022   1.905   0.953
 1325SOL    HW1 5807   1.035   1.959   0.876
 1325SOL    HW2 5808   1.012   1.816   0.919
 1326SOL     OW 5809   1.678   6.295  12.711
 1326SOL    HW1 5810   1.695   6.237  12.786
 1326SOL    HW2 5811   1.602   6.346  12.737
 1327SOL     OW 5812   2.888   6.600  13.306
 1327SOL    HW1 5813   2.844   6.626  13.225
 1327SOL    HW2 5814   2.946   6.528  13.279
 1328SOL     OW 5815  11.177   7.218  12.012
 1328SOL    HW1 5816  11.209   7.172  12.089
 1328SOL    HW2 5817  11.253   7.268  11.981
 1329SOL     OW 5818  14.446  11.415   2.696
 1329SOL    HW1 5819  14.379  11.380   2.638
 1329SOL    HW2 5820  14.430  11.370   2.780
 1330SOL     OW 5821   2.619  11.720   8.738
 1330SOL    HW1 5822   2.524  11.717   8.748
 1330SOL    HW2 5823   2.653  11.705   8.827
 1331SOL     OW 5824   0.152   2.077   1.635
 1331SOL    HW1 5825   0.172   2.107   1.724
 1331SOL    HW2 5826   0.098   1.999   1.648
 1332SOL     OW 5827   1.520  11.943   0.427
 1332SOL    HW1 5828   1.489  12.028   0.459
 1332SOL    HW2 5829   1.446  11.884   0.439
 1333SOL     OW 5830   9.985  14.448   3.030
 1333SOL    HW1 5831  10.063  14.413   3.071
 1333SOL    HW2 5832   9.973  14.534   3.071
 1334SOL     OW 5833   4.830   7.235   9.275
 1334SOL    HW1 5834   4.843   7.144   9.301
 1334SOL    HW2 5835   4.745   7.236   9.232
 1335SOL     OW 5836  13.556  13.361   4.699
 1335SOL    HW1 5837  13.527  13.451   4.713
 1335SOL    HW2 5838  13.531  13.341   4.609
 1336SOL     OW 5839  14.242   0.741  13.394
 1336SOL    HW1 5840  14.261   0.828  13.359
 1336SOL    HW2 5841  14.159   0.716  13.355
 1337SOL     OW 5842   4.362   0.797   6.421
 1337SOL    HW1 5843   4.339   0.813   6.329
 1337SOL    HW2 5844   4.418   0.871   6.445
 1338SOL     OW 5845   7.287   6.146   4.856
 1338SOL    HW1 5846   7.276   6.052   4.845
 1338SOL    HW2 5847   7.212   6.185   4.811
 1339SOL     OW 5848   0.868   9.910  13.228
 1339SOL    HW1 5849   0.788   9.961  13.219
 1339SOL    HW2 5850   0.873   9.890  13.322
 1340SOL     OW 5851   1.233   7.621   0.737
 1340SOL    HW1 5852   1.259   7.712   0.749
 1340SOL    HW2 5853   1.137   7.624   0.732
 1341SOL     OW 5854   5.669  14.279   8.417
 1341SOL    HW1 5855   5.738  14.223   8.453
 1341SOL    HW2 5856   5.715  14.340   8.360
 1342SOL     OW 5857  12.921  14.237  13.669
 1342SOL    HW1 5858  12.947  14.185  13.744
 1342SOL    HW2 5859  12.950  14.187  13.593
 1343SOL     OW 5860  10.448   6.395  14.418
 1343SOL    HW1 5861  10.432   6.488  14.400
 1343SOL    HW2 5862  10.388   6.349  14.360
 1344SOL     OW 5863  14.646   4.952   2.604
 1344SOL    HW1 5864  14.667   5.043   2.627
 1344SOL    HW2 5865  14.552   4.945   2.618
 1345SOL     OW 5866   8.844   1.968  11.880
 1345SOL    HW1 5867   8.911   1.900  11.882
 1345SOL    HW2 5868   8.800   1.962  11.965
 1346SOL     OW 5869   2.591   8.407   6.112
 1346SOL    HW1 5870   2.584   8.313   6.124
 1346SOL    HW2 5871   2.531   8.427   6.040
 1347SOL     OW 5872   9.890   4.162   7.937
 1347SOL    HW1 5873   9.796   4.181   7.939
 1347SOL    HW2 5874   9.906   4.130   7.848
 1348SOL     OW 5875   4.755  10.790   1.846
 1348SOL    HW1 5876   4.672  10.815   1.806
 1348SOL    HW2 5877   4.730  10.751   1.930
 1349SOL     OW 5878   4.348  11.730   0.217
 1349SOL    HW1 5879   4.358  11.745   0.123
 1349SOL    HW2 5880   4.437  11.717   0.249
 1350SOL     OW 5881  14.389  10.067   5.321
 1350SOL    HW1 5882  14.368  10.108   5.237
 1350SOL    HW2 5883  14.312  10.081   5.375
 1351SOL     OW 5884   6.533  14.669   8.814
 1351SOL    HW1 5885   6.522  14.603   8.882
 1351SOL    HW2 5886   6.444  14.702   8.797
 1352SOL     OW 5887  14.654  12.182  11.941
 1352SOL    HW1 5888  14.749  12.180  11.932
 1352SOL    HW2 5889  14.621  12.197  11.853
 1353SOL     OW 5890  11.321   4.256   0.237
 1353SOL    HW1 5891  11.362   4.341   0.250
 1353SOL    HW2 5892  11.246   4.274   0.181
 1354SOL     OW 5893   1.653   9.229   4.525
 1354SOL    HW1 5894   1.675   9.147   4.569
 1354SOL    HW2 5895   1.698   9.296   4.576
 1355SOL     OW 5896  12.723  11.966   2.622
 1355SOL    HW1 5897  12.637  11.982   2.585
 1355SOL    HW2 5898  12.758  11.893   2.571
 1356SOL     OW 5899  12.746   0.410   1.828
 1356SOL    HW1 5900  12.659   0.442   1.804
 1356SOL    HW2 5901  12.758   0.332   1.773
 1357SOL     OW 5902   4.361   6.539   8.360
 1357SOL    HW1 5903   4.365   6.517   8.267
 1357SOL    HW2 5904   4.273   6.512   8.387
 1358SOL     OW 5905   9.925  11.968   9.909
 1358SOL    HW1 5906   9.931  12.023   9.831
 1358SOL    HW2 5907   9.852  11.909   9.891
 1359SOL     OW 5908   3.479   8.257  11.738
 1359SOL    HW1 5909   3.477   8.288  11.647
 1359SOL    HW2 5910   3.519   8.171  11.733
 1360SOL     OW 5911   2.719   7.592   8.199
 1360SOL    HW1 5912   2.678   7.624   8.119
 1360SOL    HW2 5913   2.763   7.511   8.174
 1361SOL     OW 5914   9.511   6.155   9.476
 1361SOL    HW1 5915   9.475   6.102   9.405
 1361SOL    HW2 5916   9.469   6.241   9.465
 1362SOL     OW 5917   8.328   3.001  10.121
 1362SOL    HW1 5918   8.355   2.969  10.207
 1362SOL    HW2 5919   8.337   2.925  10.063
 1363SOL     OW 5920   1.789   4.560  11.049
 1363SOL    HW1 5921   1.864   4.558  11.109
 1363SOL    HW2 5922   1.719   4.602  11.100
 1364SOL     OW 5923   4.177   6.658   7.772
 1364SOL    HW1 5924   4.194   6.715   7.846
 1364SOL    HW2 5925   4.089   6.624   7.786
 1365SOL     OW 5926   8.717   6.963  10.318
 1365SOL    HW1 5927   8.782   6.895  10.296
 1365SOL    HW2 5928   8.761   7.045  10.297
 1366SOL     OW 5929  10.697  14.809  12.000
 1366SOL    HW1 5930  10.769  14.849  12.049
 1366SOL    HW2 5931  10.688  14.863  11.921
 1367SOL     OW 5932   3.831   3.415  10.469
 1367SOL    HW1 5933   3.790   3.429  10.555
 1367SOL    HW2 5934   3.852   3.321  10.469
 1368SOL     OW 5935   2.952   2.881   1.921
 1368SOL    HW1 5936   3.046   2.891   1.906
 1368SOL    HW2 5937   2.927   2.958   1.973
 1369SOL     OW 5938   0.256   7.736   3.570
 1369SOL    HW1 5939   0.229   7.666   3.629
 1369SOL    HW2 5940   0.223   7.816   3.610
 1370SOL     OW 5941   4.922   6.529   1.335
 1370SOL    HW1 5942   4.988   6.460   1.340
 1370SOL    HW2 5943   4.843   6.483   1.306
 1371SOL     OW 5944  11.855  14.760   8.295
 1371SOL    HW1 5945  11.943  14.727   8.312
 1371SOL    HW2 5946  11.868  14.852   8.272
 1372SOL     OW 5947   4.699   5.542   2.733
 1372SOL    HW1 5948   4.733   5.507   2.650
 1372SOL    HW2 5949   4.777   5.570   2.781
 1373SOL     OW 5950   5.807   8.759   6.912
 1373SOL    HW1 5951   5.770   8.799   6.833
 1373SOL    HW2 5952   5.734   8.712   6.952
 1374SOL     OW 5953   9.938   5.507  12.411
 1374SOL    HW1 5954   9.925   5.580  12.471
 1374SOL    HW2 5955   9.985   5.545  12.336
 1375SOL     OW 5956  12.883   3.878   8.922
 1375SOL    HW1 5957  12.826   3.802   8.912
 1375SOL    HW2 5958  12.885   3.918   8.835
 1376SOL     OW 5959  13.768   1.474   0.918
 1376SOL    HW1 5960  13.764   1.417   0.995
 1376SOL    HW2 5961  13.688   1.453   0.869
 1377SOL     OW 5962   7.860   6.243   2.059
 1377SOL    HW1 5963   7.908   6.215   2.138
 1377SOL    HW2 5964   7.873   6.337   2.056
 1378SOL     OW 5965   0.896  11.694  13.981
 1378SOL    HW1 5966   0.983  11.663  14.008
 1378SOL    HW2 5967   0.837  11.664  14.050
 1379SOL     OW 5968   5.367  11.508  10.182
 1379SOL    HW1 5969   5.340  11.495  10.273
 1379SOL    HW2 5970   5.384  11.419  10.149
 1380SOL     OW 5971  12.634   6.988   2.119
 1380SOL    HW1 5972  12.685   7.022   2.046
 1380SOL    HW2 5973  12.694   6.991   2.194
 1381SOL     OW 5974   1.482   1.459   4.619
 1381SOL    HW1 5975   1.430   1.502   4.551
 1381SOL    HW2 5976   1.455   1.367   4.615
 1382SOL     OW 5977   5.266  11.714   1.841
 1382SOL    HW1 5978   5.290  11.779   1.775
 1382SOL    HW2 5979   5.247  11.766   1.919
 1383SOL     OW 5980   6.345   5.742   5.017
 1383SOL    HW1 5981   6.263   5.740   4.969
 1383SOL    HW2 5982   6.408   5.702   4.958
 1384SOL     OW 5983   1.862   0.035  12.587
 1384SOL    HW1 5984   1.885   0.042  12.495
 1384SOL    HW2 5985   1.803   0.108  12.603
 1385SOL     OW 5986   5.372  12.948   0.108
 1385SOL    HW1 5987   5.292  12.961   0.057
 1385SOL    HW2 5988   5.348  12.884   0.175
 1386SOL     OW 5989   3.333   3.965   1.545
 1386SOL    HW1 5990   3.309   4.047   1.502
 1386SOL    HW2 5991   3.270   3.901   1.511
 1387SOL     OW 5992   6.655   3.583  13.417
 1387SOL    HW1 5993   6.603   3.549  13.344
 1387SOL    HW2 5994   6.590   3.611  13.481
 1388SOL     OW 5995   0.729   3.943   1.332
 1388SOL    HW1 5996   0.660   4.009   1.333
 1388SOL    HW2 5997   0.693   3.872   1.279
 1389SOL     OW 5998   0.383  13.759   3.054
 1389SOL    HW1 5999   0.447  13.721   3.114
 1389SOL    HW2 6000   0.345  13.683   3.009
 1390SOL     OW 6001  13.482  11.872  10.852
 1390SOL    HW1 6002  13.461  11.862  10.759
 1390SOL    HW2 6003  13.403  11.907  10.891
 1391SOL     OW 6004  10.702   7.267   5.896
 1391SOL    HW1 6005  10.701   7.337   5.961
 1391SOL    HW2 6006  10.782   7.217   5.915
 1392SOL     OW 6007  11.949   4.389  14.381
 1392SOL    HW1 6008  11.907   4.474  14.394
 1392SOL    HW2 6009  11.883   4.337  14.334
 1393SOL     OW 6010  11.499   8.729   9.025
 1393SOL    HW1 6011  11.455   8.650   9.057
 1393SOL    HW2 6012  11.571   8.743   9.087
 1394SOL     OW 6013  12.647   2.374   9.268
 1394SOL    HW1 6014  12.700   2.453   9.266
 1394SOL    HW2 6015  12.697   2.310   9.217
 1395SOL     OW 6016   7.493  12.337   7.343
 1395SOL    HW1 6017   7.516  12.267   7.405
 1395SOL    HW2 6018   7.556  12.327   7.271
 1396SOL     OW 6019   1.778  12.862   4.748
 1396SOL    HW1 6020   1.752  12.916   4.673
 1396SOL    HW2 6021   1.835  12.920   4.800
 1397SOL     OW 6022   0.198   3.025  12.526
 1397SOL    HW1 6023   0.117   2.996  12.484
 1397SOL    HW2 6024   0.169   3.077  12.601
 1398SOL     OW 6025   9.507  12.949   1.779
 1398SOL    HW1 6026   9.523  12.971   1.687
 1398SOL    HW2 6027   9.532  13.028   1.827
 1399SOL     OW 6028   8.068   0.287   4.042
 1399SOL    HW1 6029   8.039   0.273   4.132
 1399SOL    HW2 6030   8.017   0.361   4.011
 1400SOL     OW 6031   7.309   6.047  12.525
 1400SOL    HW1 6032   7.342   5.963  12.558
 1400SOL    HW2 6033   7.379   6.078  12.468
 1401SOL     OW 6034   7.778   9.086   8.797
 1401SOL    HW1 6035   7.826   9.059   8.719
 1401SOL    HW2 6036   7.799   9.020   8.863
 1402SOL     OW 6037  12.894   7.847   2.089
 1402SOL    HW1 6038  12.823   7.874   2.032
 1402SOL    HW2 6039  12.971   7.893   2.055
 1403SOL     OW 6040  11.174   2.299   0.666
 1403SOL    HW1 6041  11.244   2.266   0.721
 1403SOL    HW2 6042  11.188   2.394   0.664
 1404SOL     OW 6043  11.643   0.045  11.922
 1404SOL    HW1 6044  11.645   0.038  12.018
 1404SOL    HW2 6045  11.662  14.833  11.891
 1405SOL     OW 6046  12.097   4.144   3.047
 1405SOL    HW1 6047  12.166   4.205   3.022
 1405SOL    HW2 6048  12.047   4.192   3.114
 1406SOL     OW 6049   5.333  13.319  14.425
 1406SOL    HW1 6050   5.394  13.380  14.385
 1406SOL    HW2 6051   5.387  13.265  14.482
 1407SOL     OW 6052   1.700   0.080   7.779
 1407SOL    HW1 6053   1.719   0.001   7.728
 1407SOL    HW2 6054   1.682   0.047   7.867
 1408SOL     OW 6055   6.530  13.584   0.047
 1408SOL    HW1 6056   6.485  13.501   0.056
 1408SOL    HW2 6057   6.482  13.645   0.103
 1409SOL     OW 6058  11.670  11.643   0.846
 1409SOL    HW1 6059  11.603  11.587   0.807
 1409SOL    HW2 6060  11.624  11.689   0.917
 1410SOL     OW 6061  12.931   5.946   0.222
 1410SOL    HW1 6062  12.897   6.000   0.294
 1410SOL    HW2 6063  12.951   5.862   0.263
 1411SOL     OW 6064  13.047   0.130  10.734
 1411SOL    HW1 6065  13.061   0.074  10.810
 1411SOL    HW2 6066  13.039   0.218  10.769
 1412SOL     OW 6067  12.118   4.673   8.262
 1412SOL    HW1 6068  12.033   4.685   8.219
 1412SOL    HW2 6069  12.169   4.749   8.233
 1413SOL     OW 6070   0.478   3.308   3.960
 1413SOL    HW1 6071   0.459   3.219   3.989
 1413SOL    HW2 6072   0.550   3.298   3.897
 1414SOL     OW 6073   1.869   3.594   9.471
 1414SOL    HW1 6074   1.922   3.618   9.547
 1414SOL    HW2 6075   1.792   3.551   9.509
 1415SOL     OW 6076   6.432  12.282  13.846
 1415SOL    HW1 6077   6.468  12.193  13.846
 1415SOL    HW2 6078   6.381  12.287  13.927
 1416SOL     OW 6079   8.408   5.155   9.311
 1416SOL    HW1 6080   8.332   5.096   9.315
 1416SOL    HW2 6081   8.483   5.096   9.313
 1417SOL     OW 6082   4.316  10.274   6.320
 1417SOL    HW1 6083   4.261  10.353   6.322
 1417SOL    HW2 6084   4.403  10.305   6.344
 1418SOL     OW 6085   2.750   0.097   5.110
 1418SOL    HW1 6086   2.734   0.003   5.121
 1418SOL    HW2 6087   2.677   0.139   5.155
 1419SOL     OW 6088  11.546  11.076   5.678
 1419SOL    HW1 6089  11.515  11.099   5.590
 1419SOL    HW2 6090  11.595  11.152   5.707
 1420SOL     OW 6091   7.599   6.872   5.052
 1420SOL    HW1 6092   7.515   6.891   5.095
 1420SOL    HW2 6093   7.576   6.810   4.983
 1421SOL     OW 6094   9.498   4.489   0.432
 1421SOL    HW1 6095   9.453   4.423   0.379
 1421SOL    HW2 6096   9.428   4.546   0.463
 1422SOL     OW 6097   0.087  13.296   8.241
 1422SOL    HW1 6098   0.137  13.376   8.259
 1422SOL    HW2 6099   0.008  13.304   8.294
 1423SOL     OW 6100   8.695   6.827  11.158
 1423SOL    HW1 6101   8.707   6.788  11.071
 1423SOL    HW2 6102   8.603   6.812  11.178
 1424SOL     OW 6103   4.912  14.549   0.131
 1424SOL    HW1 6104   4.929  14.622   0.190
 1424SOL    HW2 6105   4.843  14.581   0.072
 1425SOL     OW 6106   1.480   4.720   3.696
 1425SOL    HW1 6107   1.502   4.684   3.781
 1425SOL    HW2 6108   1.558   4.704   3.642
 1426SOL     OW 6109  11.829   1.118   6.431
 1426SOL    HW1 6110  11.865   1.187   6.487
 1426SOL    HW2 6111  11.905   1.079   6.388
 1427SOL     OW 6112   4.683  13.336  13.480
 1427SOL    HW1 6113   4.762  13.299  13.441
 1427SOL    HW2 6114   4.715  13.395  13.549
 1428SOL     OW 6115   9.003   7.763   8.496
 1428SOL    HW1 6116   8.926   7.736   8.545
 1428SOL    HW2 6117   9.025   7.849   8.532
 1429SOL     OW 6118   4.552  11.995  10.288
 1429SOL    HW1 6119   4.605  11.995  10.368
 1429SOL    HW2 6120   4.584  12.069  10.237
 1430SOL     OW 6121  13.330  10.026  10.813
 1430SOL    HW1 6122  13.320   9.948  10.758
 1430SOL    HW2 6123  13.240  10.056  10.827
 1431SOL     OW 6124  13.035   5.074   7.342
 1431SOL    HW1 6125  13.050   5.065   7.248
 1431SOL    HW2 6126  13.119   5.054   7.382
 1432SOL     OW 6127  12.645   9.852   7.505
 1432SOL    HW1 6128  12.617   9.773   7.458
 1432SOL    HW2 6129  12.674   9.820   7.590
 1433SOL     OW 6130   5.527   5.553  14.088
 1433SOL    HW1 6131   5.547   5.632  14.139
 1433SOL    HW2 6132   5.542   5.579  13.997
 1434SOL     OW 6133   4.878  14.776   8.693
 1434SOL    HW1 6134   4.798  14.724   8.696
 1434SOL    HW2 6135   4.936  14.728   8.634
 1435SOL     OW 6136   2.118  10.588   4.738
 1435SOL    HW1 6137   2.052  10.560   4.675
 1435SOL    HW2 6138   2.200  10.552   4.705
 1436SOL     OW 6139   9.511  12.200   8.628
 1436SOL    HW1 6140   9.416  12.206   8.620
 1436SOL    HW2 6141   9.528  12.110   8.654
 1437SOL     OW 6142   2.325  11.753  14.358
 1437SOL    HW1 6143   2.341  11.662  14.333
 1437SOL    HW2 6144   2.329  11.753  14.454
 1438SOL     OW 6145   6.547   1.932   1.339
 1438SOL    HW1 6146   6.585   2.010   1.380
 1438SOL    HW2 6147   6.486   1.898   1.404
 1439SOL     OW 6148   2.195   5.033  13.420
 1439SOL    HW1 6149   2.206   4.940  13.438
 1439SOL    HW2 6150   2.281   5.063  13.389
 1440SOL     OW 6151   6.310  14.639   5.790
 1440SOL    HW1 6152   6.222  14.635   5.753
 1440SOL    HW2 6153   6.367  14.612   5.718
 1441SOL     OW 6154   3.910   2.804   6.728
 1441SOL    HW1 6155   3.918   2.811   6.823
 1441SOL    HW2 6156   3.867   2.885   6.702
 1442SOL     OW 6157   9.714   4.061  12.790
 1442SOL    HW1 6158   9.738   3.969  12.785
 1442SOL    HW2 6159   9.792   4.108  12.762
 1443SOL     OW 6160   4.706   5.657  14.684
 1443SOL    HW1 6161   4.728   5.622  14.770
 1443SOL    HW2 6162   4.735   5.590  14.623
 1444SOL     OW 6163  13.729  10.034   4.254
 1444SOL    HW1 6164  13.688   9.977   4.319
 1444SOL    HW2 6165  13.740   9.978   4.177
 1445SOL     OW 6166  11.597   7.771   7.136
 1445SOL    HW1 6167  11.527   7.793   7.075
 1445SOL    HW2 6168  11.563   7.696   7.186
 1446SOL     OW 6169  12.948  13.162   6.723
 1446SOL    HW1 6170  12.974  13.140   6.633
 1446SOL    HW2 6171  12.978  13.252   6.735
 1447SOL     OW 6172   2.899   2.233   0.338
 1447SOL    HW1 6173   2.876   2.143   0.313
 1447SOL    HW2 6174   2.912   2.278   0.255
 1448SOL     OW 6175   2.766  13.149   3.306
 1448SOL    HW1 6176   2.726  13.161   3.392
 1448SOL    HW2 6177   2.757  13.056   3.288
 1449SOL     OW 6178   1.783  13.204  13.722
 1449SOL    HW1 6179   1.730  13.162  13.655
 1449SOL    HW2 6180   1.873  13.178  13.702
 1450SOL     OW 6181   4.709   4.233   1.152
 1450SOL    HW1 6182   4.782   4.293   1.167
 1450SOL    HW2 6183   4.729   4.158   1.207
 1451SOL     OW 6184  11.733  13.918   3.881
 1451SOL    HW1 6185  11.824  13.933   3.905
 1451SOL    HW2 6186  11.714  13.983   3.814
 1452SOL     OW 6187  14.809   0.186   5.347
 1452SOL    HW1 6188  14.815   0.094   5.372
 1452SOL    HW2 6189  14.819   0.235   5.429
 1453SOL     OW 6190   9.877  11.163  13.104
 1453SOL    HW1 6191   9.890  11.241  13.159
 1453SOL    HW2 6192   9.965  11.126  13.095
 1454SOL     OW 6193   9.510   9.993   2.980
 1454SOL    HW1 6194   9.432  10.043   2.955
 1454SOL    HW2 6195   9.577  10.020   2.917
 1455SOL     OW 6196   6.290   9.545   7.915
 1455SOL    HW1 6197   6.381   9.535   7.943
 1455SOL    HW2 6198   6.267   9.634   7.943
 1456SOL     OW 6199   2.689   8.932  13.231
 1456SOL    HW1 6200   2.623   8.940  13.162
 1456SOL    HW2 6201   2.698   8.838  13.244
 1457SOL     OW 6202   8.394  14.797   0.296
 1457SOL    HW1 6203   8.476  14.828   0.333
 1457SOL    HW2 6204   8.366  14.868   0.238
 1458SOL     OW 6205   3.701  12.363   7.438
 1458SOL    HW1 6206   3.765  12.415   7.389
 1458SOL    HW2 6207   3.722  12.380   7.530
 1459SOL     OW 6208   4.777  12.378   4.346
 1459SOL    HW1 6209   4.809  12.385   4.436
 1459SOL    HW2 6210   4.792  12.465   4.309
 1460SOL     OW 6211  14.093   2.113   3.402
 1460SOL    HW1 6212  14.131   2.087   3.487
 1460SOL    HW2 6213  14.111   2.206   3.395
 1461SOL     OW 6214   9.657   9.141  12.525
 1461SOL    HW1 6215   9.719   9.156  12.596
 1461SOL    HW2 6216   9.584   9.201  12.545
 1462SOL     OW 6217   2.912  11.802  12.584
 1462SOL    HW1 6218   2.908  11.870  12.518
 1462SOL    HW2 6219   2.820  11.786  12.608
 1463SOL     OW 6220   7.815   3.992  14.757
 1463SOL    HW1 6221   7.844   3.925  14.695
 1463SOL    HW2 6222   7.731   4.023  14.721
 1464SOL     OW 6223  11.783  11.955   2.056
 1464SOL    HW1 6224  11.771  11.959   2.151
 1464SOL    HW2 6225  11.860  12.008   2.039
 1465SOL     OW 6226   8.421   1.829  14.570
 1465SOL    HW1 6227   8.488   1.875  14.520
 1465SOL    HW2 6228   8.343   1.831  14.515
 1466SOL     OW 6229   6.618  12.223  11.164
 1466SOL    HW1 6230   6.524  12.207  11.174
 1466SOL    HW2 6231   6.655  12.203  11.250
 1467SOL     OW 6232  11.918  12.580  13.723
 1467SOL    HW1 6233  11.957  12.515  13.781
 1467SOL    HW2 6234  11.984  12.649  13.716
 1468SOL     OW 6235   1.371  12.236   5.945
 1468SOL    HW1 6236   1.334  12.321   5.965
 1468SOL    HW2 6237   1.393  12.239   5.852
 1469SOL     OW 6238   3.860   4.717   3.163
 1469SOL    HW1 6239   3.797   4.693   3.231
 1469SOL    HW2 6240   3.857   4.644   3.101
 1470SOL     OW 6241   9.688   8.754  11.726
 1470SOL    HW1 6242   9.632   8.678  11.744
 1470SOL    HW2 6243   9.733   8.732  11.645
 1471SOL     OW 6244   6.889   4.254   3.227
 1471SOL    HW1 6245   6.875   4.348   3.213
 1471SOL    HW2 6246   6.946   4.227   3.155
 1472SOL     OW 6247  14.254  14.203  10.892
 1472SOL    HW1 6248  14.200  14.126  10.877
 1472SOL    HW2 6249  14.317  14.176  10.959
 1473SOL     OW 6250  13.832   1.115   3.552
 1473SOL    HW1 6251  13.912   1.074   3.586
 1473SOL    HW2 6252  13.777   1.127   3.630
 1474SOL     OW 6253   7.514  10.745  14.639
 1474SOL    HW1 6254   7.454  10.675  14.611
 1474SOL    HW2 6255   7.597  10.723  14.596
 1475SOL     OW 6256   5.104   7.670   1.897
 1475SOL    HW1 6257   5.024   7.661   1.948
 1475SOL    HW2 6258   5.133   7.580   1.881
 1476SOL     OW 6259   7.369  14.052   1.201
 1476SOL    HW1 6260   7.363  14.067   1.296
 1476SOL    HW2 6261   7.379  13.957   1.193
 1477SOL     OW 6262   9.245   6.246  11.937
 1477SOL    HW1 6263   9.166   6.271  11.890
 1477SOL    HW2 6264   9.223   6.258  12.030
 1478SOL     OW 6265  12.107   5.355   3.102
 1478SOL    HW1 6266  12.050   5.381   3.175
 1478SOL    HW2 6267  12.080   5.266   3.081
 1479SOL     OW 6268   8.469   5.611   6.241
 1479SOL    HW1 6269   8.508   5.570   6.164
 1479SOL    HW2 6270   8.375   5.608   6.226
 1480SOL     OW 6271  11.925   8.968  13.487
 1480SOL    HW1 6272  11.992   9.026  13.524
 1480SOL    HW2 6273  11.884   8.928  13.564
 1481SOL     OW 6274  12.585   6.543   5.798
 1481SOL    HW1 6275  12.557   6.454   5.820
 1481SOL    HW2 6276  12.540   6.598   5.861
 1482SOL     OW 6277  11.791  10.835   7.503
 1482SOL    HW1 6278  11.887  10.838   7.499
 1482SOL    HW2 6279  11.765  10.927   7.497
 1483SOL     OW 6280   2.169   5.073  13.918
 1483SOL    HW1 6281   2.177   5.153  13.969
 1483SOL    HW2 6282   2.259   5.046  13.902
 1484SOL     OW 6283  12.024  10.952  13.392
 1484SOL    HW1 6284  12.085  10.883  13.419
 1484SOL    HW2 6285  12.035  10.958  13.298
 1485SOL     OW 6286  12.656   7.437  13.680
 1485SOL    HW1 6287  12.723   7.385  13.724
 1485SOL    HW2 6288  12.670   7.420  13.586
 1486SOL     OW 6289  11.886   5.220  12.326
 1486SOL    HW1 6290  11.950   5.237  12.395
 1486SOL    HW2 6291  11.936   5.228  12.244
 1487SOL     OW 6292  10.989   6.871   0.927
 1487SOL    HW1 6293  11.032   6.852   0.844
 1487SOL    HW2 6294  11.060   6.867   0.992
 1488SOL     OW 6295  13.139   1.028   5.173
 1488SOL    HW1 6296  13.104   0.985   5.251
 1488SOL    HW2 6297  13.066   1.080   5.139
 1489SOL     OW 6298  14.846   1.862  14.088
 1489SOL    HW1 6299   0.031   1.927  14.053
 1489SOL    HW2 6300  14.806   1.822  14.011
 1490SOL     OW 6301  12.430   7.655  14.071
 1490SOL    HW1 6302  12.395   7.736  14.035
 1490SOL    HW2 6303  12.417   7.590  14.002
 1491SOL     OW 6304   6.499  12.253   3.101
 1491SOL    HW1 6305   6.559  12.300   3.159
 1491SOL    HW2 6306   6.451  12.194   3.159
 1492SOL     OW 6307  13.632   8.621  12.284
 1492SOL    HW1 6308  13.600   8.554  12.223
 1492SOL    HW2 6309  13.632   8.578  12.369
 1493SOL     OW 6310  12.996   9.424   9.904
 1493SOL    HW1 6311  12.925   9.481   9.931
 1493SOL    HW2 6312  13.076   9.471   9.928
 1494SOL     OW 6313   0.002   1.398   2.482
 1494SOL    HW1 6314  14.811   1.457   2.450
 1494SOL    HW2 6315   0.081   1.451   2.487
 1495SOL     OW 6316  10.089   0.498   5.992
 1495SOL    HW1 6317  10.002   0.536   5.975
 1495SOL    HW2 6318  10.072   0.428   6.055
 1496SOL     OW 6319   9.576  14.384   7.106
 1496SOL    HW1 6320   9.635  14.362   7.178
 1496SOL    HW2 6321   9.629  14.436   7.045
 1497SOL     OW 6322  12.533  12.475  13.944
 1497SOL    HW1 6323  12.562  12.459  14.034
 1497SOL    HW2 6324  12.498  12.391  13.915
 1498SOL     OW 6325   5.829   2.873   6.536
 1498SOL    HW1 6326   5.789   2.912   6.458
 1498SOL    HW2 6327   5.874   2.795   6.503
 1499SOL     OW 6328   3.010   4.475  10.349
 1499SOL    HW1 6329   3.034   4.405  10.289
 1499SOL    HW2 6330   3.058   4.552  10.316
 1500SOL     OW 6331   6.580  12.723   1.901
 1500SOL    HW1 6332   6.615  12.662   1.966
 1500SOL    HW2 6333   6.502  12.679   1.867
 1501SOL     OW 6334   2.266   7.180   8.244
 1501SOL    HW1 6335   2.314   7.158   8.165
 1501SOL    HW2 6336   2.263   7.099   8.294
 1502SOL     OW 6337   8.932   9.400   9.548
 1502SOL    HW1 6338   8.963   9.454   9.621
 1502SOL    HW2 6339   9.005   9.399   9.486
 1503SOL     OW 6340  10.811   5.274   0.752
 1503SOL    HW1 6341  10.799   5.304   0.842
 1503SOL    HW2 6342  10.834   5.181   0.760
 1504SOL     OW 6343   4.150   4.384   0.399
 1504SOL    HW1 6344   4.146   4.462   0.343
 1504SOL    HW2 6345   4.059   4.365   0.421
 1505SOL     OW 6346   7.726   2.668   2.030
 1505SOL    HW1 6347   7.631   2.673   2.016
 1505SOL    HW2 6348   7.761   2.654   1.942
 1506SOL     OW 6349   6.173   4.463   9.752
 1506SOL    HW1 6350   6.250   4.444   9.698
 1506SOL    HW2 6351   6.099   4.459   9.691
 1507SOL     OW 6352   7.687   2.587  10.370
 1507SOL    HW1 6353   7.771   2.558  10.406
 1507SOL    HW2 6354   7.708   2.669  10.325
 1508SOL     OW 6355   7.943   3.568   4.657
 1508SOL    HW1 6356   7.927   3.474   4.641
 1508SOL    HW2 6357   7.983   3.599   4.576
 1509SOL     OW 6358   9.491   1.394   1.356
 1509SOL    HW1 6359   9.584   1.390   1.335
 1509SOL    HW2 6360   9.450   1.334   1.294
 1510SOL     OW 6361   9.235   8.663   5.678
 1510SOL    HW1 6362   9.306   8.674   5.741
 1510SOL    HW2 6363   9.227   8.568   5.668
 1511SOL     OW 6364  14.154   9.825   0.015
 1511SOL    HW1 6365  14.247   9.845   0.026
 1511SOL    HW2 6366  14.110   9.910   0.022
 1512SOL     OW 6367  13.629   8.428   9.128
 1512SOL    HW1 6368  13.541   8.391   9.128
 1512SOL    HW2 6369  13.665   8.404   9.213
 1513SOL     OW 6370  13.841   3.286  11.816
 1513SOL    HW1 6371  13.829   3.341  11.738
 1513SOL    HW2 6372  13.931   3.253  11.808
 1514SOL     OW 6373  14.320  13.361  14.343
 1514SOL    HW1 6374  14.323  13.334  14.435
 1514SOL    HW2 6375  14.360  13.288  14.296
 1515SOL     OW 6376   6.534   8.320   5.393
 1515SOL    HW1 6377   6.529   8.225   5.401
 1515SOL    HW2 6378   6.454   8.345   5.347
 1516SOL     OW 6379   1.836   0.469   0.893
 1516SOL    HW1 6380   1.839   0.450   0.800
 1516SOL    HW2 6381   1.867   0.560   0.900
 1517SOL     OW 6382   7.906  11.143   5.629
 1517SOL    HW1 6383   7.811  11.134   5.623
 1517SOL    HW2 6384   7.941  11.063   5.590
 1518SOL     OW 6385   8.209   8.558   5.388
 1518SOL    HW1 6386   8.216   8.644   5.348
 1518SOL    HW2 6387   8.199   8.498   5.315
 1519SOL     OW 6388   2.911   2.700   4.939
 1519SOL    HW1 6389   3.003   2.710   4.966
 1519SOL    HW2 6390   2.867   2.662   5.016
 1520SOL     OW 6391   5.885   0.573   4.017
 1520SOL    HW1 6392   5.939   0.648   4.045
 1520SOL    HW2 6393   5.948   0.514   3.974
 1521SOL     OW 6394   3.021   8.114   2.553
 1521SOL    HW1 6395   3.074   8.078   2.483
 1521SOL    HW2 6396   3.034   8.209   2.545
 1522SOL     OW 6397   1.322  12.660   1.806
 1522SOL    HW1 6398   1.387  12.663   1.736
 1522SOL    HW2 6399   1.257  12.596   1.776
 1523SOL     OW 6400   9.530   7.482   1.091
 1523SOL    HW1 6401   9.551   7.542   1.019
 1523SOL    HW2 6402   9.477   7.414   1.051
 1524SOL     OW 6403  11.215  11.393   4.732
 1524SOL    HW1 6404  11.219  11.487   4.748
 1524SOL    HW2 6405  11.191  11.385   4.640
 1525SOL     OW 6406   1.017   8.765   1.882
 1525SOL    HW1 6407   1.069   8.685   1.889
 1525SOL    HW2 6408   0.963   8.766   1.961
 1526SOL     OW 6409   2.280   8.635  12.824
 1526SOL    HW1 6410   2.230   8.619  12.744
 1526SOL    HW2 6411   2.371   8.629  12.797
 1527SOL     OW 6412   2.467  11.043  13.669
 1527SOL    HW1 6413   2.475  10.949  13.653
 1527SOL    HW2 6414   2.554  11.078  13.652
 1528SOL     OW 6415   3.920   2.813  10.600
 1528SOL    HW1 6416   3.902   2.901  10.566
 1528SOL    HW2 6417   3.842   2.790  10.650
 1529SOL     OW 6418   4.686   6.766   8.499
 1529SOL    HW1 6419   4.704   6.784   8.591
 1529SOL    HW2 6420   4.659   6.675   8.497
 1530SOL     OW 6421   0.229  11.868  10.508
 1530SOL    HW1 6422   0.185  11.880  10.592
 1530SOL    HW2 6423   0.207  11.779  10.482
 1531SOL     OW 6424   5.901  11.744   0.495
 1531SOL    HW1 6425   5.882  11.666   0.443
 1531SOL    HW2 6426   5.982  11.723   0.541
 1532SOL     OW 6427   1.578   9.814   2.555
 1532SOL    HW1 6428   1.528   9.893   2.536
 1532SOL    HW2 6429   1.520   9.760   2.608
 1533SOL     OW 6430   8.924   1.184  14.555
 1533SOL    HW1 6431   8.874   1.199  14.475
 1533SOL    HW2 6432   8.901   1.258  14.612
 1534SOL     OW 6433   5.678   7.990   5.285
 1534SOL    HW1 6434   5.743   8.001   5.215
 1534SOL    HW2 6435   5.648   7.899   5.276
 1535SOL     OW 6436   8.066  10.640   2.676
 1535SOL    HW1 6437   8.047  10.710   2.613
 1535SOL    HW2 6438   8.013  10.566   2.647
 1536SOL     OW 6439   0.717   0.331   2.603
 1536SOL    HW1 6440   0.711   0.426   2.608
 1536SOL    HW2 6441   0.687   0.301   2.689
 1537SOL     OW 6442   7.563   8.376  12.393
 1537SOL    HW1 6443   7.525   8.334  12.471
 1537SOL    HW2 6444   7.622   8.442  12.429
 1538SOL     OW 6445   4.922  10.476   4.687
 1538SOL    HW1 6446   4.874  10.393   4.691
 1538SOL    HW2 6447   4.977  10.475   4.765
 1539SOL     OW 6448  12.454  12.083   7.794
 1539SOL    HW1 6449  12.547  12.089   7.772
 1539SOL    HW2 6450  12.440  12.157   7.853
 1540SOL     OW 6451  10.029   6.520  13.061
 1540SOL    HW1 6452  10.076   6.603  13.061
 1540SOL    HW2 6453   9.941   6.541  13.028
 1541SOL     OW 6454   7.191   9.537   7.209
 1541SOL    HW1 6455   7.099   9.522   7.186
 1541SOL    HW2 6456   7.231   9.451   7.207
 1542SOL     OW 6457   9.611   9.419   0.092
 1542SOL    HW1 6458   9.610   9.323   0.090
 1542SOL    HW2 6459   9.704   9.441   0.089
 1543SOL     OW 6460   6.216   1.640  10.179
 1543SOL    HW1 6461   6.250   1.718  10.134
 1543SOL    HW2 6462   6.126   1.632  10.148
 1544SOL     OW 6463   4.456   3.075   6.695
 1544SOL    HW1 6464   4.552   3.077   6.689
 1544SOL    HW2 6465   4.426   3.143   6.635
 1545SOL     OW 6466  10.705   9.806  12.583
 1545SOL    HW1 6467  10.756   9.887  12.580
 1545SOL    HW2 6468  10.617   9.831  12.557
 1546SOL     OW 6469   7.363   0.420   2.554
 1546SOL    HW1 6470   7.434   0.378   2.601
 1546SOL    HW2 6471   7.391   0.511   2.543
 1547SOL     OW 6472  12.391   5.906   2.715
 1547SOL    HW1 6473  12.365   5.814   2.726
 1547SOL    HW2 6474  12.375   5.925   2.622
 1548SOL     OW 6475  11.972  12.879   7.500
 1548SOL    HW1 6476  12.003  12.936   7.570
 1548SOL    HW2 6477  11.957  12.938   7.426
 1549SOL     OW 6478   2.342   7.404   0.786
 1549SOL    HW1 6479   2.429   7.424   0.751
 1549SOL    HW2 6480   2.354   7.322   0.835
 1550SOL     OW 6481   2.962   3.153  12.992
 1550SOL    HW1 6482   3.007   3.217  13.047
 1550SOL    HW2 6483   3.000   3.164  12.905
 1551SOL     OW 6484  10.038   9.006   8.929
 1551SOL    HW1 6485   9.962   8.949   8.921
 1551SOL    HW2 6486  10.077   9.005   8.841
 1552SOL     OW 6487   9.471   1.297  12.889
 1552SOL    HW1 6488   9.423   1.227  12.844
 1552SOL    HW2 6489   9.516   1.344  12.819
 1553SOL     OW 6490   3.194   7.534  12.141
 1553SOL    HW1 6491   3.282   7.555  12.110
 1553SOL    HW2 6492   3.202   7.447  12.179
 1554SOL     OW 6493   6.613   8.847   6.593
 1554SOL    HW1 6494   6.530   8.889   6.614
 1554SOL    HW2 6495   6.602   8.814   6.504
 1555SOL     OW 6496   7.293  12.783   9.021
 1555SOL    HW1 6497   7.269  12.709   8.965
 1555SOL    HW2 6498   7.357  12.747   9.083
 1556SOL     OW 6499   5.507  13.230   0.479
 1556SOL    HW1 6500   5.570  13.167   0.513
 1556SOL    HW2 6501   5.521  13.230   0.385
 1557SOL     OW 6502   3.724  12.725   8.583
 1557SOL    HW1 6503   3.719  12.635   8.616
 1557SOL    HW2 6504   3.795  12.724   8.519
 1558SOL     OW 6505  11.774   2.496   8.230
 1558SOL    HW1 6506  11.732   2.464   8.150
 1558SOL    HW2 6507  11.759   2.590   8.228
 1559SOL     OW 6508   2.244   8.807   9.309
 1559SOL    HW1 6509   2.312   8.867   9.339
 1559SOL    HW2 6510   2.278   8.720   9.328
 1560SOL     OW 6511   3.655   1.989   1.222
 1560SOL    HW1 6512   3.621   2.049   1.157
 1560SOL    HW2 6513   3.618   1.904   1.198
 1561SOL     OW 6514   0.584   1.040   6.981
 1561SOL    HW1 6515   0.520   0.987   7.028
 1561SOL    HW2 6516   0.543   1.059   6.896
 1562SOL     OW 6517  12.108   3.898   9.665
 1562SOL    HW1 6518  12.057   3.958   9.720
 1562SOL    HW2 6519  12.163   3.851   9.727
 1563SOL     OW 6520  14.444   7.982   1.559
 1563SOL    HW1 6521  14.439   8.064   1.606
 1563SOL    HW2 6522  14.425   7.915   1.624
 1564SOL     OW 6523   4.305  12.297  14.679
 1564SOL    HW1 6524   4.336  12.385  14.698
 1564SOL    HW2 6525   4.378  12.240  14.702
 1565SOL     OW 6526   0.797  13.487   4.453
 1565SOL    HW1 6527   0.863  13.548   4.486
 1565SOL    HW2 6528   0.830  13.400   4.478
 1566SOL     OW 6529   1.791   0.259   4.966
 1566SOL    HW1 6530   1.864   0.213   4.925
 1566SOL    HW2 6531   1.714   0.206   4.945
 1567SOL     OW 6532  10.002  14.004  13.252
 1567SOL    HW1 6533   9.992  14.026  13.345
 1567SOL    HW2 6534   9.934  14.055  13.208
 1568SOL     OW 6535   9.054   5.068   5.525
 1568SOL    HW1 6536   9.099   5.147   5.496
 1568SOL    HW2 6537   9.112   4.997   5.499
 1569SOL     OW 6538  14.270   3.987   9.016
 1569SOL    HW1 6539  14.286   3.915   9.076
 1569SOL    HW2 6540  14.267   4.065   9.072
 1570SOL     OW 6541  13.133  10.417  13.918
 1570SOL    HW1 6542  13.178  10.355  13.861
 1570SOL    HW2 6543  13.203  10.460  13.967
 1571SOL     OW 6544   9.175   0.799  12.553
 1571SOL    HW1 6545   9.142   0.795  12.463
 1571SOL    HW2 6546   9.270   0.804  12.544
 1572SOL     OW 6547  12.075   7.748   2.120
 1572SOL    HW1 6548  12.070   7.843   2.115
 1572SOL    HW2 6549  12.128   7.731   2.198
 1573SOL     OW 6550   3.630   2.495  13.047
 1573SOL    HW1 6551   3.627   2.588  13.023
 1573SOL    HW2 6552   3.720   2.481  13.078
 1574SOL     OW 6553   5.373  12.632  11.996
 1574SOL    HW1 6554   5.322  12.635  12.077
 1574SOL    HW2 6555   5.319  12.677  11.932
 1575SOL     OW 6556   8.160   9.802  10.832
 1575SOL    HW1 6557   8.153   9.855  10.911
 1575SOL    HW2 6558   8.144   9.713  10.861
 1576SOL     OW 6559   3.852   1.052  14.494
 1576SOL    HW1 6560   3.836   1.071  14.587
 1576SOL    HW2 6561   3.765   1.051  14.454
 1577SOL     OW 6562   6.963   3.244  11.398
 1577SOL    HW1 6563   6.938   3.189  11.324
 1577SOL    HW2 6564   7.050   3.276  11.376
 1578SOL     OW 6565   7.237  12.755  11.740
 1578SOL    HW1 6566   7.332  12.768  11.751
 1578SOL    HW2 6567   7.218  12.675  11.788
 1579SOL     OW 6568   4.164   0.009   3.930
 1579SOL    HW1 6569   4.146  14.801   3.974
 1579SOL    HW2 6570   4.134  14.872   3.840
 1580SOL     OW 6571   4.348   4.010   2.049
 1580SOL    HW1 6572   4.399   3.932   2.025
 1580SOL    HW2 6573   4.274   4.009   1.989
 1581SOL     OW 6574   1.368   2.803   9.858
 1581SOL    HW1 6575   1.390   2.886   9.900
 1581SOL    HW2 6576   1.411   2.808   9.772
 1582SOL     OW 6577   6.394   8.034   0.904
 1582SOL    HW1 6578   6.465   8.040   0.839
 1582SOL    HW2 6579   6.436   8.055   0.987
 1583SOL     OW 6580   4.608  11.389   4.238
 1583SOL    HW1 6581   4.699  11.388   4.267
 1583SOL    HW2 6582   4.589  11.298   4.215
 1584SOL     OW 6583  11.878   4.243  10.796
 1584SOL    HW1 6584  11.894   4.334  10.820
 1584SOL    HW2 6585  11.947   4.194  10.840
 1585SOL     OW 6586   0.126   3.776   3.782
 1585SOL    HW1 6587   0.093   3.693   3.817
 1585SOL    HW2 6588   0.106   3.840   3.851
 1586SOL     OW 6589   0.361  12.408   6.926
 1586SOL    HW1 6590   0.397  12.493   6.902
 1586SOL    HW2 6591   0.437  12.355   6.949
 1587SOL     OW 6592  11.511   5.572  13.663
 1587SOL    HW1 6593  11.503   5.650  13.608
 1587SOL    HW2 6594  11.433   5.572  13.717
 1588SOL     OW 6595  12.556   4.350  12.543
 1588SOL    HW1 6596  12.632   4.382  12.590
 1588SOL    HW2 6597  12.556   4.255  12.557
 1589SOL     OW 6598   0.109   7.165   9.542
 1589SOL    HW1 6599   0.075   7.161   9.453
 1589SOL    HW2 6600   0.202   7.141   9.533
 1590SOL     OW 6601  11.650   1.130  10.522
 1590SOL    HW1 6602  11.582   1.119  10.456
 1590SOL    HW2 6603  11.653   1.046  10.568
 1591SOL     OW 6604  13.676   7.530   5.508
 1591SOL    HW1 6605  13.599   7.562   5.461
 1591SOL    HW2 6606  13.704   7.604   5.562
 1592SOL     OW 6607   8.490  13.869   7.918
 1592SOL    HW1 6608   8.480  13.905   7.830
 1592SOL    HW2 6609   8.497  13.774   7.905
 1593SOL     OW 6610  13.014  13.169  12.717
 1593SOL    HW1 6611  12.957  13.142  12.789
 1593SOL    HW2 6612  13.082  13.222  12.758
 1594SOL     OW 6613  12.627   1.437  12.880
 1594SOL    HW1 6614  12.709   1.404  12.916
 1594SOL    HW2 6615  12.584   1.360  12.844
 1595SOL     OW 6616   2.447   0.025   5.463
 1595SOL    HW1 6617   2.382   0.013   5.532
 1595SOL    HW2 6618   2.530  14.872   5.501
 1596SOL     OW 6619   7.128   2.264   9.971
 1596SOL    HW1 6620   7.180   2.332   9.929
 1596SOL    HW2 6621   7.068   2.233   9.903
 1597SOL     OW 6622   6.845  10.548   5.693
 1597SOL    HW1 6623   6.761  10.585   5.721
 1597SOL    HW2 6624   6.837  10.454   5.711
 1598SOL     OW 6625   7.302   3.674   6.806
 1598SOL    HW1 6626   7.246   3.633   6.873
 1598SOL    HW2 6627   7.242   3.727   6.754
 1599SOL     OW 6628   2.957  12.077   7.892
 1599SOL    HW1 6629   2.920  12.057   7.978
 1599SOL    HW2 6630   2.992  11.994   7.860
 1600SOL     OW 6631   2.106   4.194   4.480
 1600SOL    HW1 6632   2.085   4.118   4.425
 1600SOL    HW2 6633   2.062   4.177   4.563
 1601SOL     OW 6634   9.180  12.952   4.566
 1601SOL    HW1 6635   9.260  12.942   4.514
 1601SOL    HW2 6636   9.163  13.046   4.567
 1602SOL     OW 6637  12.650  13.514   6.017
 1602SOL    HW1 6638  12.598  13.533   5.938
 1602SOL    HW2 6639  12.731  13.563   6.004
 1603SOL     OW 6640  13.284   8.439   4.762
 1603SOL    HW1 6641  13.264   8.472   4.850
 1603SOL    HW2 6642  13.327   8.513   4.719
 1604SOL     OW 6643   8.916  13.271  10.129
 1604SOL    HW1 6644   8.887  13.205  10.067
 1604SOL    HW2 6645   8.837  13.295  10.178
 1605SOL     OW 6646  10.433   5.291   0.318
 1605SOL    HW1 6647  10.444   5.197   0.327
 1605SOL    HW2 6648  10.468   5.328   0.399
 1606SOL     OW 6649  13.979   7.090   0.794
 1606SOL    HW1 6650  13.935   7.154   0.738
 1606SOL    HW2 6651  14.011   7.023   0.733
 1607SOL     OW 6652   2.004  11.939   1.664
 1607SOL    HW1 6653   1.985  11.944   1.757
 1607SOL    HW2 6654   2.057  11.860   1.654
 1608SOL     OW 6655  14.867  10.323   4.603
 1608SOL    HW1 6656  14.856  10.241   4.652
 1608SOL    HW2 6657  14.837  10.390   4.664
 1609SOL     OW 6658   3.810   9.814   8.261
 1609SOL    HW1 6659   3.870   9.812   8.335
 1609SOL    HW2 6660   3.821   9.900   8.222
 1610SOL     OW 6661   8.991   6.284   3.429
 1610SOL    HW1 6662   8.931   6.317   3.362
 1610SOL    HW2 6663   8.995   6.353   3.494
 1611SOL     OW 6664   5.613  14.694   7.642
 1611SOL    HW1 6665   5.677  14.677   7.711
 1611SOL    HW2 6666   5.622  14.787   7.622
 1612SOL     OW 6667   9.517   3.009   6.701
 1612SOL    HW1 6668   9.563   2.976   6.624
 1612SOL    HW2 6669   9.587   3.035   6.761
 1613SOL     OW 6670   2.409  11.887  10.801
 1613SOL    HW1 6671   2.397  11.967  10.750
 1613SOL    HW2 6672   2.346  11.825  10.764
 1614SOL     OW 6673   4.432   4.458  13.685
 1614SOL    HW1 6674   4.510   4.429  13.731
 1614SOL    HW2 6675   4.436   4.554  13.688
 1615SOL     OW 6676   5.346   6.894   6.225
 1615SOL    HW1 6677   5.346   6.956   6.152
 1615SOL    HW2 6678   5.316   6.812   6.187
 1616SOL     OW 6679   8.848  11.733  12.668
 1616SOL    HW1 6680   8.819  11.651  12.627
 1616SOL    HW2 6681   8.884  11.784  12.595
 1617SOL     OW 6682   1.282   1.955  12.244
 1617SOL    HW1 6683   1.374   1.973  12.226
 1617SOL    HW2 6684   1.269   1.986  12.334
 1618SOL     OW 6685  13.414   2.265  11.852
 1618SOL    HW1 6686  13.386   2.316  11.776
 1618SOL    HW2 6687  13.443   2.181  11.815
 1619SOL     OW 6688   4.303  10.071   4.300
 1619SOL    HW1 6689   4.323   9.978   4.287
 1619SOL    HW2 6690   4.300  10.082   4.395
 1620SOL     OW 6691   5.382   4.251   8.798
 1620SOL    HW1 6692   5.453   4.188   8.791
 1620SOL    HW2 6693   5.410   4.313   8.865
 1621SOL     OW 6694  11.318  11.302  12.253
 1621SOL    HW1 6695  11.411  11.309  12.233
 1621SOL    HW2 6696  11.295  11.385  12.294
 1622SOL     OW 6697   2.794  13.066   5.857
 1622SOL    HW1 6698   2.699  13.071   5.849
 1622SOL    HW2 6699   2.825  13.044   5.769
 1623SOL     OW 6700   3.082   7.045  10.294
 1623SOL    HW1 6701   3.090   6.956  10.327
 1623SOL    HW2 6702   3.127   7.043  10.210
 1624SOL     OW 6703  12.991   4.519   1.697
 1624SOL    HW1 6704  12.939   4.536   1.775
 1624SOL    HW2 6705  13.081   4.540   1.723
 1625SOL     OW 6706   4.067   3.500  10.087
 1625SOL    HW1 6707   3.992   3.556  10.106
 1625SOL    HW2 6708   4.037   3.411  10.108
 1626SOL     OW 6709   8.312   3.591   4.479
 1626SOL    HW1 6710   8.350   3.667   4.436
 1626SOL    HW2 6711   8.379   3.563   4.542
 1627SOL     OW 6712   6.960   4.884   1.253
 1627SOL    HW1 6713   6.964   4.854   1.343
 1627SOL    HW2 6714   6.938   4.977   1.259
 1628SOL     OW 6715   6.310   9.075  11.442
 1628SOL    HW1 6716   6.273   9.036  11.521
 1628SOL    HW2 6717   6.339   9.000  11.389
 1629SOL     OW 6718   5.450   1.584   7.708
 1629SOL    HW1 6719   5.464   1.615   7.798
 1629SOL    HW2 6720   5.367   1.537   7.713
 1630SOL     OW 6721   1.075   5.496  11.102
 1630SOL    HW1 6722   1.136   5.512  11.174
 1630SOL    HW2 6723   1.048   5.583  11.073
 1631SOL     OW 6724  14.249   3.110   2.824
 1631SOL    HW1 6725  14.171   3.055   2.829
 1631SOL    HW2 6726  14.215   3.199   2.812
 1632SOL     OW 6727   7.197  10.978  14.092
 1632SOL    HW1 6728   7.286  10.943  14.091
 1632SOL    HW2 6729   7.146  10.916  14.040
 1633SOL     OW 6730  14.438   2.846  11.662
 1633SOL    HW1 6731  14.515   2.872  11.611
 1633SOL    HW2 6732  14.370   2.909  11.637
 1634SOL     OW 6733  12.437   1.453  14.442
 1634SOL    HW1 6734  12.464   1.454  14.534
 1634SOL    HW2 6735  12.348   1.488  14.443
 1635SOL     OW 6736   4.238  10.178  12.500
 1635SOL    HW1 6737   4.168  10.239  12.478
 1635SOL    HW2 6738   4.209  10.095  12.462
 1636SOL     OW 6739  14.325   8.249  10.129
 1636SOL    HW1 6740  14.371   8.329  10.152
 1636SOL    HW2 6741  14.240   8.278  10.097
 1637SOL     OW 6742  14.349   5.461   6.489
 1637SOL    HW1 6743  14.301   5.521   6.547
 1637SOL    HW2 6744  14.359   5.381   6.541
 1638SOL     OW 6745   9.743  14.157   3.678
 1638SOL    HW1 6746   9.736  14.085   3.615
 1638SOL    HW2 6747   9.764  14.114   3.761
 1639SOL     OW 6748   4.092  13.045  11.116
 1639SOL    HW1 6749   4.075  12.951  11.124
 1639SOL    HW2 6750   4.006  13.084  11.105
 1640SOL     OW 6751  10.450   7.123   7.905
 1640SOL    HW1 6752  10.463   7.206   7.860
 1640SOL    HW2 6753  10.483   7.057   7.844
 1641SOL     OW 6754   0.703   5.408   1.273
 1641SOL    HW1 6755   0.748   5.381   1.192
 1641SOL    HW2 6756   0.652   5.331   1.298
 1642SOL     OW 6757  11.069   9.143   7.442
 1642SOL    HW1 6758  11.006   9.071   7.439
 1642SOL    HW2 6759  11.076   9.173   7.352
 1643SOL     OW 6760  13.022  11.025  12.457
 1643SOL    HW1 6761  12.932  11.017  12.489
 1643SOL    HW2 6762  13.018  10.992  12.367
 1644SOL     OW 6763   0.054   8.976   3.932
 1644SOL    HW1 6764  14.844   8.980   3.890
 1644SOL    HW2 6765   0.096   8.901   3.893
 1645SOL     OW 6766   1.762  10.040  13.727
 1645SOL    HW1 6767   1.724  10.039  13.639
 1645SOL    HW2 6768   1.721  10.115  13.770
 1646SOL     OW 6769   8.948   5.058  10.110
 1646SOL    HW1 6770   8.951   5.116  10.034
 1646SOL    HW2 6771   8.871   5.002  10.095
 1647SOL     OW 6772  12.099   7.780   4.573
 1647SOL    HW1 6773  12.193   7.786   4.587
 1647SOL    HW2 6774  12.083   7.828   4.492
 1648SOL     OW 6775   3.762   0.845   8.052
 1648SOL    HW1 6776   3.808   0.763   8.068
 1648SOL    HW2 6777   3.775   0.897   8.131
 1649SOL     OW 6778   1.613   3.364  12.467
 1649SOL    HW1 6779   1.561   3.295  12.509
 1649SOL    HW2 6780   1.608   3.344  12.373
 1650SOL     OW 6781  11.088   3.014   0.548
 1650SOL    HW1 6782  11.070   3.001   0.642
 1650SOL    HW2 6783  11.010   2.980   0.504
 1651SOL     OW 6784  10.228   5.281  10.092
 1651SOL    HW1 6785  10.189   5.326  10.167
 1651SOL    HW2 6786  10.312   5.325  10.078
 1652SOL     OW 6787   6.775  14.724   8.714
 1652SOL    HW1 6788   6.689  14.721   8.757
 1652SOL    HW2 6789   6.757  14.703   8.622
 1653SOL     OW 6790   7.398  10.789   2.220
 1653SOL    HW1 6791   7.356  10.703   2.229
 1653SOL    HW2 6792   7.438  10.786   2.133
 1654SOL     OW 6793  11.570   4.472   4.340
 1654SOL    HW1 6794  11.548   4.379   4.350
 1654SOL    HW2 6795  11.585   4.502   4.430
 1655SOL     OW 6796  11.489   3.441  13.648
 1655SOL    HW1 6797  11.515   3.533  13.659
 1655SOL    HW2 6798  11.405   3.445  13.602
 1656SOL     OW 6799   9.631  13.975   4.849
 1656SOL    HW1 6800   9.543  13.957   4.817
 1656SOL    HW2 6801   9.689  13.936   4.784
 1657SOL     OW 6802  13.137  12.751   9.251
 1657SOL    HW1 6803  13.206  12.686   9.267
 1657SOL    HW2 6804  13.151  12.778   9.160
 1658SOL     OW 6805   8.328  11.635   4.496
 1658SOL    HW1 6806   8.334  11.686   4.415
 1658SOL    HW2 6807   8.326  11.544   4.467
 1659SOL     OW 6808   6.231  12.397   3.807
 1659SOL    HW1 6809   6.318  12.366   3.781
 1659SOL    HW2 6810   6.188  12.319   3.842
 1660SOL     OW 6811   9.190   1.324   9.890
 1660SOL    HW1 6812   9.264   1.352   9.836
 1660SOL    HW2 6813   9.179   1.231   9.870
 1661SOL     OW 6814   2.184  12.407   9.641
 1661SOL    HW1 6815   2.135  12.413   9.559
 1661SOL    HW2 6816   2.119  12.423   9.709
 1662SOL     OW 6817   6.002   2.073  12.118
 1662SOL    HW1 6818   5.973   2.101  12.205
 1662SOL    HW2 6819   5.996   2.151  12.064
 1663SOL     OW 6820   5.577   2.081   5.404
 1663SOL    HW1 6821   5.558   2.172   5.377
 1663SOL    HW2 6822   5.597   2.036   5.322
 1664SOL     OW 6823  11.774   6.263   2.085
 1664SOL    HW1 6824  11.763   6.187   2.141
 1664SOL    HW2 6825  11.819   6.328   2.140
 1665SOL     OW 6826  14.227   9.508  12.418
 1665SOL    HW1 6827  14.158   9.572  12.397
 1665SOL    HW2 6828  14.301   9.534  12.364
 1666SOL     OW 6829  14.673  10.930   5.142
 1666SOL    HW1 6830  14.745  10.884   5.185
 1666SOL    HW2 6831  14.692  10.923   5.048
 1667SOL     OW 6832   5.272  12.700   8.038
 1667SOL    HW1 6833   5.179  12.711   8.060
 1667SOL    HW2 6834   5.309  12.656   8.115
 1668SOL     OW 6835   8.915   2.688  11.803
 1668SOL    HW1 6836   8.905   2.635  11.882
 1668SOL    HW2 6837   8.991   2.744  11.821
 1669SOL     OW 6838  13.769   3.162  10.581
 1669SOL    HW1 6839  13.823   3.110  10.521
 1669SOL    HW2 6840  13.694   3.106  10.600
 1670SOL     OW 6841   0.706   1.309   0.062
 1670SOL    HW1 6842   0.664   1.361   0.130
 1670SOL    HW2 6843   0.755   1.372   0.010
 1671SOL     OW 6844  12.813  14.438   4.780
 1671SOL    HW1 6845  12.842  14.493   4.708
 1671SOL    HW2 6846  12.831  14.348   4.752
 1672SOL     OW 6847   5.793   3.221  13.974
 1672SOL    HW1 6848   5.752   3.157  13.916
 1672SOL    HW2 6849   5.887   3.204  13.966
 1673SOL     OW 6850   2.245   6.819   4.853
 1673SOL    HW1 6851   2.259   6.867   4.771
 1673SOL    HW2 6852   2.269   6.881   4.922
 1674SOL     OW 6853  12.528   1.526   8.196
 1674SOL    HW1 6854  12.523   1.622   8.192
 1674SOL    HW2 6855  12.593   1.508   8.264
 1675SOL     OW 6856  11.723  11.861   6.474
 1675SOL    HW1 6857  11.767  11.934   6.517
 1675SOL    HW2 6858  11.630  11.877   6.489
 1676SOL     OW 6859   4.994   4.010   6.940
 1676SOL    HW1 6860   5.081   4.017   6.900
 1676SOL    HW2 6861   4.941   3.968   6.872
 1677SOL     OW 6862  13.571  11.530   6.262
 1677SOL    HW1 6863  13.523  11.565   6.187
 1677SOL    HW2 6864  13.606  11.447   6.231
 1678SOL     OW 6865  12.242   3.505   7.316
 1678SOL    HW1 6866  12.191   3.468   7.244
 1678SOL    HW2 6867  12.297   3.433   7.346
 1679SOL     OW 6868  13.236  13.297  12.792
 1679SOL    HW1 6869  13.261  13.290  12.884
 1679SOL    HW2 6870  13.320  13.306  12.745
 1680SOL     OW 6871   4.493  14.096   0.477
 1680SOL    HW1 6872   4.427  14.049   0.426
 1680SOL    HW2 6873   4.545  14.143   0.411
 1681SOL     OW 6874  11.010  10.307   2.783
 1681SOL    HW1 6875  11.020  10.379   2.721
 1681SOL    HW2 6876  10.985  10.232   2.729
 1682SOL     OW 6877  12.252  10.609   2.105
 1682SOL    HW1 6878  12.242  10.578   2.015
 1682SOL    HW2 6879  12.222  10.699   2.103
 1683SOL     OW 6880  10.372   6.253  11.427
 1683SOL    HW1 6881  10.352   6.347  11.427
 1683SOL    HW2 6882  10.406   6.236  11.339
 1684SOL     OW 6883  11.658   7.081   3.511
 1684SOL    HW1 6884  11.698   6.994   3.515
 1684SOL    HW2 6885  11.733   7.141   3.504
 1685SOL     OW 6886   7.363   7.604   8.280
 1685SOL    HW1 6887   7.283   7.608   8.333
 1685SOL    HW2 6888   7.342   7.652   8.200
 1686SOL     OW 6889   7.960   9.478   2.306
 1686SOL    HW1 6890   8.054   9.495   2.302
 1686SOL    HW2 6891   7.952   9.383   2.302
 1687SOL     OW 6892  12.430   4.329   2.311
 1687SOL    HW1 6893  12.496   4.335   2.381
 1687SOL    HW2 6894  12.404   4.237   2.312
 1688SOL     OW 6895   2.861   2.561   9.922
 1688SOL    HW1 6896   2.933   2.503   9.944
 1688SOL    HW2 6897   2.792   2.541   9.985
 1689SOL     OW 6898   7.851  12.404  12.556
 1689SOL    HW1 6899   7.792  12.479  12.553
 1689SOL    HW2 6900   7.890  12.401  12.468
 1690SOL     OW 6901   3.784   1.539   8.104
 1690SOL    HW1 6902   3.705   1.566   8.151
 1690SOL    HW2 6903   3.756   1.532   8.013
 1691SOL     OW 6904   7.122  10.698   1.957
 1691SOL    HW1 6905   7.114  10.730   1.867
 1691SOL    HW2 6906   7.098  10.773   2.012
 1692SOL     OW 6907   9.698  11.535  11.005
 1692SOL    HW1 6908   9.635  11.501  11.068
 1692SOL    HW2 6909   9.770  11.568  11.059
 1693SOL     OW 6910   8.652  12.317  12.182
 1693SOL    HW1 6911   8.571  12.333  12.135
 1693SOL    HW2 6912   8.706  12.395  12.165
 1694SOL     OW 6913  10.455  10.535   3.418
 1694SOL    HW1 6914  10.508  10.565   3.345
 1694SOL    HW2 6915  10.366  10.565   3.397
 1695SOL     OW 6916   3.264   6.418   3.841
 1695SOL    HW1 6917   3.345   6.384   3.802
 1695SOL    HW2 6918   3.208   6.438   3.766
 1696SOL     OW 6919  12.292   3.290   6.847
 1696SOL    HW1 6920  12.339   3.358   6.897
 1696SOL    HW2 6921  12.200   3.314   6.855
 1697SOL     OW 6922   8.675   7.839   8.978
 1697SOL    HW1 6923   8.711   7.777   9.042
 1697SOL    HW2 6924   8.640   7.783   8.909
 1698SOL     OW 6925   9.430  10.884   6.919
 1698SOL    HW1 6926   9.414  10.794   6.889
 1698SOL    HW2 6927   9.484  10.923   6.850
 1699SOL     OW 6928  10.278   4.834   7.143
 1699SOL    HW1 6929  10.283   4.763   7.208
 1699SOL    HW2 6930  10.365   4.874   7.145
 1700SOL     OW 6931  10.840  11.195   3.609
 1700SOL    HW1 6932  10.873  11.133   3.543
 1700SOL    HW2 6933  10.807  11.269   3.557
 1701SOL     OW 6934   9.335   6.019   9.297
 1701SOL    HW1 6935   9.285   5.940   9.278
 1701SOL    HW2 6936   9.426   5.993   9.284
 1702SOL     OW 6937  10.280  13.462   6.733
 1702SOL    HW1 6938  10.191  13.464   6.768
 1702SOL    HW2 6939  10.282  13.536   6.671
 1703SOL     OW 6940  10.498   4.031   6.075
 1703SOL    HW1 6941  10.437   4.049   6.003
 1703SOL    HW2 6942  10.549   4.112   6.083
 1704SOL     OW 6943   6.822  13.680   0.004
 1704SOL    HW1 6944   6.731  13.660   0.023
 1704SOL    HW2 6945   6.870  13.601   0.030
 1705SOL     OW 6946  13.249   4.830  10.382
 1705SOL    HW1 6947  13.319   4.869  10.434
 1705SOL    HW2 6948  13.182   4.806  10.447
 1706SOL     OW 6949  11.652   7.034   9.859
 1706SOL    HW1 6950  11.604   6.953   9.876
 1706SOL    HW2 6951  11.741   7.005   9.835
 1707SOL     OW 6952  13.067   8.072  12.537
 1707SOL    HW1 6953  13.026   8.137  12.479
 1707SOL    HW2 6954  13.116   8.015  12.478
 1708SOL     OW 6955  12.938   5.117   9.209
 1708SOL    HW1 6956  12.867   5.166   9.167
 1708SOL    HW2 6957  12.894   5.060   9.272
 1709SOL     OW 6958   1.540  12.621   0.534
 1709SOL    HW1 6959   1.612  12.672   0.571
 1709SOL    HW2 6960   1.582  12.548   0.489
 1710SOL     OW 6961   6.631  13.475   5.343
 1710SOL    HW1 6962   6.669  13.461   5.256
 1710SOL    HW2 6963   6.675  13.411   5.399
 1711SOL     OW 6964   4.900  13.271  14.489
 1711SOL    HW1 6965   4.862  13.306  14.408
 1711SOL    HW2 6966   4.986  13.314  14.495
 1712SOL     OW 6967  14.616   6.036   5.381
 1712SOL    HW1 6968  14.571   6.071   5.303
 1712SOL    HW2 6969  14.649   6.114   5.426
 1713SOL     OW 6970   2.769   6.086  12.908
 1713SOL    HW1 6971   2.789   6.070  12.815
 1713SOL    HW2 6972   2.733   6.003  12.939
 1714SOL     OW 6973  10.695  13.600   0.465
 1714SOL    HW1 6974  10.785  13.628   0.446
 1714SOL    HW2 6975  10.654  13.591   0.379
 1715SOL     OW 6976   7.207  10.668   5.933
 1715SOL    HW1 6977   7.139  10.691   5.997
 1715SOL    HW2 6978   7.175  10.587   5.892
 1716SOL     OW 6979  11.415  11.558   9.781
 1716SOL    HW1 6980  11.335  11.516   9.750
 1716SOL    HW2 6981  11.486  11.503   9.748
 1717SOL     OW 6982   3.189   6.061   0.399
 1717SOL    HW1 6983   3.128   6.119   0.354
 1717SOL    HW2 6984   3.172   6.076   0.492
 1718SOL     OW 6985   6.665  12.508   7.019
 1718SOL    HW1 6986   6.635  12.448   7.088
 1718SOL    HW2 6987   6.698  12.584   7.066
 1719SOL     OW 6988   3.461   6.617  11.163
 1719SOL    HW1 6989   3.537   6.673  11.172
 1719SOL    HW2 6990   3.482   6.539  11.213
 1720SOL     OW 6991   3.887   4.342  12.137
 1720SOL    HW1 6992   3.918   4.329  12.227
 1720SOL    HW2 6993   3.794   4.323  12.140
 1721SOL     OW 6994   8.087  12.600  12.311
 1721SOL    HW1 6995   8.121  12.625  12.397
 1721SOL    HW2 6996   8.084  12.505  12.313
 1722SOL     OW 6997   0.767  11.077   2.941
 1722SOL    HW1 6998   0.753  11.153   2.998
 1722SOL    HW2 6999   0.794  11.114   2.857
 1723SOL     OW 7000  11.724   6.476   8.251
 1723SOL    HW1 7001  11.653   6.518   8.298
 1723SOL    HW2 7002  11.757   6.409   8.312
 1724SOL     OW 7003  10.848   8.477  11.049
 1724SOL    HW1 7004  10.773   8.417  11.057
 1724SOL    HW2 7005  10.837   8.518  10.964
 1725SOL     OW 7006   2.417   1.465   6.612
 1725SOL    HW1 7007   2.401   1.559   6.606
 1725SOL    HW2 7008   2.505   1.458   6.649
 1726SOL     OW 7009   1.277   2.251   9.632
 1726SOL    HW1 7010   1.263   2.196   9.555
 1726SOL    HW2 7011   1.188   2.273   9.661
 1727SOL     OW 7012   3.057   5.847   4.431
 1727SOL    HW1 7013   3.129   5.812   4.378
 1727SOL    HW2 7014   3.070   5.941   4.431
 1728SOL     OW 7015   9.291   7.208   3.567
 1728SOL    HW1 7016   9.252   7.122   3.551
 1728SOL    HW2 7017   9.371   7.189   3.616
 1729SOL     OW 7018   8.767   2.706   5.559
 1729SOL    HW1 7019   8.796   2.702   5.650
 1729SOL    HW2 7020   8.776   2.798   5.535
 1730SOL     OW 7021   9.928   7.668   3.537
 1730SOL    HW1 7022   9.927   7.761   3.560
 1730SOL    HW2 7023   9.909   7.623   3.619
 1731SOL     OW 7024   6.772   6.057   8.656
 1731SOL    HW1 7025   6.796   5.964   8.652
 1731SOL    HW2 7026   6.739   6.077   8.569
 1732SOL     OW 7027  13.056  10.354   1.428
 1732SOL    HW1 7028  13.026  10.438   1.392
 1732SOL    HW2 7029  13.069  10.298   1.351
 1733SOL     OW 7030   2.512  10.493   4.987
 1733SOL    HW1 7031   2.490  10.400   4.994
 1733SOL    HW2 7032   2.595  10.496   4.939
 1734SOL     OW 7033   3.381  13.710   4.941
 1734SOL    HW1 7034   3.427  13.786   4.978
 1734SOL    HW2 7035   3.432  13.634   4.972
 1735SOL     OW 7036  11.408  14.437   7.106
 1735SOL    HW1 7037  11.359  14.356   7.097
 1735SOL    HW2 7038  11.389  14.468   7.194
 1736SOL     OW 7039   6.821  11.044  10.176
 1736SOL    HW1 7040   6.850  11.085  10.257
 1736SOL    HW2 7041   6.729  11.023  10.192
 1737SOL     OW 7042  13.623   9.926   4.787
 1737SOL    HW1 7043  13.580   9.967   4.711
 1737SOL    HW2 7044  13.655  10.000   4.838
 1738SOL     OW 7045  13.989  13.101   5.950
 1738SOL    HW1 7046  14.053  13.054   6.004
 1738SOL    HW2 7047  13.964  13.176   6.003
 1739SOL     OW 7048  13.180   4.512  13.097
 1739SOL    HW1 7049  13.201   4.535  13.006
 1739SOL    HW2 7050  13.259   4.469  13.130
 1740SOL     OW 7051   2.269  11.463   8.037
 1740SOL    HW1 7052   2.301  11.392   8.093
 1740SOL    HW2 7053   2.240  11.419   7.957
 1741SOL     OW 7054  14.202   4.522   1.495
 1741SOL    HW1 7055  14.194   4.617   1.500
 1741SOL    HW2 7056  14.118   4.489   1.527
 1742SOL     OW 7057   4.801   0.627  11.884
 1742SOL    HW1 7058   4.849   0.662  11.958
 1742SOL    HW2 7059   4.866   0.617  11.815
 1743SOL     OW 7060   0.056  10.597  13.944
 1743SOL    HW1 7061   0.063  10.618  14.037
 1743SOL    HW2 7062   0.107  10.665  13.900
 1744SOL     OW 7063   7.043   6.688   5.262
 1744SOL    HW1 7064   6.985   6.713   5.191
 1744SOL    HW2 7065   7.068   6.771   5.304
 1745SOL     OW 7066  14.030   7.647   5.197
 1745SOL    HW1 7067  14.068   7.560   5.212
 1745SOL    HW2 7068  13.935   7.630   5.191
 1746SOL     OW 7069   6.784   0.428  10.366
 1746SOL    HW1 7070   6.775   0.519  10.394
 1746SOL    HW2 7071   6.874   0.405  10.390
 1747SOL     OW 7072   8.827   4.345   9.491
 1747SOL    HW1 7073   8.808   4.312   9.403
 1747SOL    HW2 7074   8.921   4.362   9.490
 1748SOL     OW 7075  11.553  10.376  14.819
 1748SOL    HW1 7076  11.648  10.367  14.831
 1748SOL    HW2 7077  11.515  10.331   0.019
 1749SOL     OW 7078  14.622   7.515   6.275
 1749SOL    HW1 7079  14.649   7.601   6.243
 1749SOL    HW2 7080  14.694   7.457   6.252
 1750SOL     OW 7081   4.342   9.247  12.512
 1750SOL    HW1 7082   4.343   9.227  12.418
 1750SOL    HW2 7083   4.292   9.175  12.551
 1751SOL     OW 7084  11.263  13.152  10.049
 1751SOL    HW1 7085  11.213  13.071  10.048
 1751SOL    HW2 7086  11.327  13.142   9.978
 1752SOL     OW 7087   7.778   2.679   2.871
 1752SOL    HW1 7088   7.786   2.585   2.883
 1752SOL    HW2 7089   7.818   2.717   2.948
 1753SOL     OW 7090   0.837  12.835   6.531
 1753SOL    HW1 7091   0.806  12.839   6.440
 1753SOL    HW2 7092   0.903  12.765   6.530
 1754SOL     OW 7093   3.667   5.245  10.426
 1754SOL    HW1 7094   3.740   5.243  10.488
 1754SOL    HW2 7095   3.588   5.244  10.481
 1755SOL     OW 7096   1.694   8.395   2.295
 1755SOL    HW1 7097   1.664   8.434   2.213
 1755SOL    HW2 7098   1.710   8.470   2.353
 1756SOL     OW 7099   1.834  10.110   1.578
 1756SOL    HW1 7100   1.751  10.139   1.617
 1756SOL    HW2 7101   1.901  10.139   1.640
 1757SOL     OW 7102   3.957   2.914   0.077
 1757SOL    HW1 7103   4.048   2.924   0.048
 1757SOL    HW2 7104   3.930   3.003   0.100
 1758SOL     OW 7105   6.753   1.440  11.713
 1758SOL    HW1 7106   6.672   1.467  11.670
 1758SOL    HW2 7107   6.779   1.516  11.766
 1759SOL     OW 7108   4.455   6.599  10.623
 1759SOL    HW1 7109   4.522   6.551  10.574
 1759SOL    HW2 7110   4.460   6.688  10.589
 1760SOL     OW 7111  14.307   1.207  11.408
 1760SOL    HW1 7112  14.373   1.216  11.340
 1760SOL    HW2 7113  14.335   1.269  11.476
 1761SOL     OW 7114  12.051  11.232   3.336
 1761SOL    HW1 7115  12.004  11.244   3.418
 1761SOL    HW2 7116  12.018  11.149   3.301
 1762SOL     OW 7117   7.203   2.154  12.453
 1762SOL    HW1 7118   7.274   2.091  12.463
 1762SOL    HW2 7119   7.142   2.112  12.393
 1763SOL     OW 7120  12.665  10.438   8.487
 1763SOL    HW1 7121  12.633  10.465   8.401
 1763SOL    HW2 7122  12.614  10.489   8.549
 1764SOL     OW 7123   6.755   3.664   0.337
 1764SOL    HW1 7124   6.662   3.681   0.358
 1764SOL    HW2 7125   6.755   3.641   0.244
 1765SOL     OW 7126  10.549   4.046   8.068
 1765SOL    HW1 7127  10.507   4.088   7.994
 1765SOL    HW2 7128  10.487   4.056   8.140
 1766SOL     OW 7129  11.525   4.322  10.354
 1766SOL    HW1 7130  11.436   4.299  10.383
 1766SOL    HW2 7131  11.556   4.384  10.420
 1767SOL     OW 7132   9.071  12.829  10.154
 1767SOL    HW1 7133   9.071  12.744  10.110
 1767SOL    HW2 7134   8.978  12.851  10.164
 1768SOL     OW 7135   5.288  13.993  14.786
 1768SOL    HW1 7136   5.202  13.954  14.776
 1768SOL    HW2 7137   5.278  14.083  14.755
 1769SOL     OW 7138   3.998   8.824  12.632
 1769SOL    HW1 7139   3.930   8.763  12.660
 1769SOL    HW2 7140   4.064   8.769  12.590
 1770SOL     OW 7141   5.066  14.460  13.754
 1770SOL    HW1 7142   5.082  14.514  13.676
 1770SOL    HW2 7143   5.152  14.431  13.782
 1771SOL     OW 7144   0.450   1.260   7.265
 1771SOL    HW1 7145   0.375   1.258   7.324
 1771SOL    HW2 7146   0.497   1.179   7.283
 1772SOL     OW 7147   6.419   0.632   0.037
 1772SOL    HW1 7148   6.401   0.726   0.047
 1772SOL    HW2 7149   6.449   0.623  14.823
 1773SOL     OW 7150   9.200   8.240   0.182
 1773SOL    HW1 7151   9.267   8.284   0.234
 1773SOL    HW2 7152   9.150   8.311   0.143
 1774SOL     OW 7153   6.664   1.424   8.523
 1774SOL    HW1 7154   6.717   1.393   8.450
 1774SOL    HW2 7155   6.674   1.519   8.522
 1775SOL     OW 7156   1.284   5.129  11.700
 1775SOL    HW1 7157   1.291   5.180  11.781
 1775SOL    HW2 7158   1.354   5.064  11.707
 1776SOL     OW 7159  11.228   0.188  13.333
 1776SOL    HW1 7160  11.256   0.272  13.371
 1776SOL    HW2 7161  11.288   0.124  13.371
 1777SOL     OW 7162   3.567   5.697  11.912
 1777SOL    HW1 7163   3.543   5.785  11.884
 1777SOL    HW2 7164   3.484   5.649  11.916
 1778SOL     OW 7165   4.570   2.929   7.918
 1778SOL    HW1 7166   4.645   2.956   7.866
 1778SOL    HW2 7167   4.536   3.010   7.956
 1779SOL     OW 7168   1.315  10.690  12.230
 1779SOL    HW1 7169   1.330  10.781  12.202
 1779SOL    HW2 7170   1.268  10.650  12.157
 1780SOL     OW 7171  11.755   9.685   9.064
 1780SOL    HW1 7172  11.769   9.616   9.129
 1780SOL    HW2 7173  11.721   9.639   8.987
 1781SOL     OW 7174  10.563   5.834   7.481
 1781SOL    HW1 7175  10.480   5.788   7.494
 1781SOL    HW2 7176  10.542   5.903   7.418
 1782SOL     OW 7177   5.028   9.004  14.798
 1782SOL    HW1 7178   4.947   9.041  14.834
 1782SOL    HW2 7179   5.064   8.952  14.869
 1783SOL     OW 7180   6.577   8.247  11.875
 1783SOL    HW1 7181   6.599   8.184  11.944
 1783SOL    HW2 7182   6.483   8.238  11.864
 1784SOL     OW 7183   9.305   2.891   4.438
 1784SOL    HW1 7184   9.363   2.905   4.512
 1784SOL    HW2 7185   9.344   2.819   4.389
 1785SOL     OW 7186   3.105  14.710   6.269
 1785SOL    HW1 7187   3.037  14.653   6.236
 1785SOL    HW2 7188   3.187  14.665   6.248
 1786SOL     OW 7189   9.417  14.618   1.815
 1786SOL    HW1 7190   9.448  14.662   1.895
 1786SOL    HW2 7191   9.351  14.678   1.779
 1787SOL     OW 7192  12.531   0.774   5.338
 1787SOL    HW1 7193  12.539   0.691   5.384
 1787SOL    HW2 7194  12.508   0.837   5.406
 1788SOL     OW 7195   8.792   4.181  10.261
 1788SOL    HW1 7196   8.748   4.249  10.210
 1788SOL    HW2 7197   8.849   4.137  10.198
 1789SOL     OW 7198   6.462  13.873   1.151
 1789SOL    HW1 7199   6.504  13.830   1.076
 1789SOL    HW2 7200   6.516  13.848   1.226
 1790SOL     OW 7201   1.226   0.016   2.931
 1790SOL    HW1 7202   1.313  14.865   2.902
 1790SOL    HW2 7203   1.237   0.107   2.957
 1791SOL     OW 7204  13.022  14.742   1.066
 1791SOL    HW1 7205  13.000  14.767   0.976
 1791SOL    HW2 7206  12.995  14.651   1.073
 1792SOL     OW 7207   2.035   4.264  12.401
 1792SOL    HW1 7208   2.075   4.282  12.316
 1792SOL    HW2 7209   2.099   4.294  12.465
 1793SOL     OW 7210   5.448  11.044   4.657
 1793SOL    HW1 7211   5.528  10.994   4.675
 1793SOL    HW2 7212   5.479  11.123   4.613
 1794SOL     OW 7213  11.719  10.341   8.069
 1794SOL    HW1 7214  11.722  10.358   8.163
 1794SOL    HW2 7215  11.710  10.246   8.062
 1795SOL     OW 7216   4.027   3.788  12.562
 1795SOL    HW1 7217   4.088   3.774  12.634
 1795SOL    HW2 7218   3.948   3.740  12.588
 1796SOL     OW 7219   0.005  11.903   3.087
 1796SOL    HW1 7220  14.811  11.842   3.064
 1796SOL    HW2 7221   0.068  11.895   3.015
 1797SOL     OW 7222  11.851  13.693  12.880
 1797SOL    HW1 7223  11.815  13.761  12.937
 1797SOL    HW2 7224  11.940  13.678  12.913
 1798SOL     OW 7225   3.316   1.989  12.592
 1798SOL    HW1 7226   3.222   1.999  12.585
 1798SOL    HW2 7227   3.353   2.064  12.547
 1799SOL     OW 7228   1.139   7.534  14.170
 1799SOL    HW1 7229   1.215   7.499  14.215
 1799SOL    HW2 7230   1.171   7.614  14.127
 1800SOL     OW 7231   4.939  10.465   0.407
 1800SOL    HW1 7232   4.982  10.397   0.459
 1800SOL    HW2 7233   4.969  10.449   0.318
 1801SOL     OW 7234  13.523   5.324   2.858
 1801SOL    HW1 7235  13.476   5.398   2.819
 1801SOL    HW2 7236  13.516   5.255   2.792
 1802SOL     OW 7237   5.478  12.505  10.039
 1802SOL    HW1 7238   5.456  12.454  10.118
 1802SOL    HW2 7239   5.505  12.439   9.975
 1803SOL     OW 7240  11.848   0.123   2.983
 1803SOL    HW1 7241  11.907   0.172   2.927
 1803SOL    HW2 7242  11.805   0.060   2.925
 1804SOL     OW 7243   7.467  13.215   1.847
 1804SOL    HW1 7244   7.511  13.132   1.828
 1804SOL    HW2 7245   7.525  13.282   1.811
 1805SOL     OW 7246   6.393   8.255  14.414
 1805SOL    HW1 7247   6.476   8.218  14.444
 1805SOL    HW2 7248   6.358   8.189  14.354
 1806SOL     OW 7249  12.190   8.974  12.500
 1806SOL    HW1 7250  12.257   8.931  12.446
 1806SOL    HW2 7251  12.231   8.982  12.586
 1807SOL     OW 7252   8.966   2.230   6.751
 1807SOL    HW1 7253   8.970   2.158   6.814
 1807SOL    HW2 7254   9.045   2.281   6.766
 1808SOL     OW 7255   0.552   0.523  10.498
 1808SOL    HW1 7256   0.547   0.513  10.593
 1808SOL    HW2 7257   0.570   0.435  10.466
 1809SOL     OW 7258   1.786   4.400   6.786
 1809SOL    HW1 7259   1.696   4.430   6.794
 1809SOL    HW2 7260   1.836   4.478   6.763
 1810SOL     OW 7261   9.703  13.100   9.720
 1810SOL    HW1 7262   9.612  13.086   9.745
 1810SOL    HW2 7263   9.701  13.106   9.624
 1811SOL     OW 7264   5.881   5.484  14.349
 1811SOL    HW1 7265   5.819   5.519  14.413
 1811SOL    HW2 7266   5.840   5.500  14.264
 1812SOL     OW 7267   8.544   6.098  11.576
 1812SOL    HW1 7268   8.550   6.048  11.495
 1812SOL    HW2 7269   8.453   6.089  11.604
 1813SOL     OW 7270   8.846  14.342   9.204
 1813SOL    HW1 7271   8.833  14.307   9.116
 1813SOL    HW2 7272   8.847  14.437   9.192
 1814SOL     OW 7273   7.020  10.371   8.362
 1814SOL    HW1 7274   7.000  10.424   8.439
 1814SOL    HW2 7275   7.036  10.283   8.397
 1815SOL     OW 7276  13.550   2.776   1.852
 1815SOL    HW1 7277  13.557   2.863   1.813
 1815SOL    HW2 7278  13.459   2.749   1.835
 1816SOL     OW 7279  10.208  11.557   1.321
 1816SOL    HW1 7280  10.140  11.555   1.389
 1816SOL    HW2 7281  10.233  11.650   1.315
 1817SOL     OW 7282   9.406  13.498   1.971
 1817SOL    HW1 7283   9.313  13.520   1.975
 1817SOL    HW2 7284   9.415  13.421   2.027
 1818SOL     OW 7285   0.749   9.860  12.300
 1818SOL    HW1 7286   0.704   9.820  12.375
 1818SOL    HW2 7287   0.822   9.908  12.340
 1819SOL     OW 7288   8.450   5.473   6.002
 1819SOL    HW1 7289   8.407   5.388   6.007
 1819SOL    HW2 7290   8.541   5.454   5.979
 1820SOL     OW 7291   1.874   7.424   4.479
 1820SOL    HW1 7292   1.839   7.443   4.392
 1820SOL    HW2 7293   1.939   7.355   4.464
 1821SOL     OW 7294   5.413   0.086   2.061
 1821SOL    HW1 7295   5.479   0.111   1.996
 1821SOL    HW2 7296   5.411  14.866   2.057
 1822SOL     OW 7297   6.839   4.375   0.571
 1822SOL    HW1 7298   6.912   4.418   0.616
 1822SOL    HW2 7299   6.873   4.358   0.483
 1823SOL     OW 7300   8.297   5.178   4.961
 1823SOL    HW1 7301   8.355   5.105   4.982
 1823SOL    HW2 7302   8.232   5.140   4.903
 1824SOL     OW 7303   0.376  14.166  12.654
 1824SOL    HW1 7304   0.330  14.084  12.634
 1824SOL    HW2 7305   0.362  14.179  12.747
 1825SOL     OW 7306  11.221   1.279   2.981
 1825SOL    HW1 7307  11.182   1.333   3.051
 1825SOL    HW2 7308  11.281   1.338   2.935
 1826SOL     OW 7309   0.031   5.054   2.006
 1826SOL    HW1 7310   0.041   4.976   2.060
 1826SOL    HW2 7311  14.814   5.075   2.009
 1827SOL     OW 7312   0.824   0.117   9.776
 1827SOL    HW1 7313   0.868   0.181   9.720
 1827SOL    HW2 7314   0.759   0.169   9.825
 1828SOL     OW 7315   5.573  11.171   8.826
 1828SOL    HW1 7316   5.630  11.168   8.749
 1828SOL    HW2 7317   5.541  11.262   8.828
 1829SOL     OW 7318   2.553   9.015  12.646
 1829SOL    HW1 7319   2.645   9.017  12.618
 1829SOL    HW2 7320   2.554   8.963  12.726
 1830SOL     OW 7321   8.452  12.502   9.173
 1830SOL    HW1 7322   8.365  12.482   9.137
 1830SOL    HW2 7323   8.507  12.429   9.144
 1831SOL     OW 7324   7.167   4.523   4.259
 1831SOL    HW1 7325   7.201   4.433   4.252
 1831SOL    HW2 7326   7.117   4.523   4.341
 1832SOL     OW 7327   6.958  12.622  10.131
 1832SOL    HW1 7328   6.983  12.541  10.087
 1832SOL    HW2 7329   6.869  12.638  10.102
 1833SOL     OW 7330   9.601  13.566  12.843
 1833SOL    HW1 7331   9.553  13.511  12.781
 1833SOL    HW2 7332   9.652  13.625  12.788
 1834SOL     OW 7333   8.925  14.412   9.551
 1834SOL    HW1 7334   8.981  14.441   9.623
 1834SOL    HW2 7335   8.864  14.350   9.591
 1835SOL     OW 7336   3.360  14.591   1.468
 1835SOL    HW1 7337   3.288  14.616   1.526
 1835SOL    HW2 7338   3.439  14.604   1.521
 1836SOL     OW 7339   0.715   2.373  10.880
 1836SOL    HW1 7340   0.793   2.423  10.904
 1836SOL    HW2 7341   0.747   2.285  10.862
 1837SOL     OW 7342  12.703  14.741   8.577
 1837SOL    HW1 7343  12.660  14.822   8.605
 1837SOL    HW2 7344  12.641  14.672   8.603
 1838SOL     OW 7345   2.799  14.689  14.358
 1838SOL    HW1 7346   2.710  14.667  14.385
 1838SOL    HW2 7347   2.853  14.660  14.432
 1839SOL     OW 7348   4.457  11.971   8.311
 1839SOL    HW1 7349   4.411  12.049   8.341
 1839SOL    HW2 7350   4.396  11.930   8.249
 1840SOL     OW 7351   0.257   5.762   8.856
 1840SOL    HW1 7352   0.169   5.798   8.846
 1840SOL    HW2 7353   0.267   5.703   8.781
 1841SOL     OW 7354   0.644  10.048   6.028
 1841SOL    HW1 7355   0.608  10.108   6.094
 1841SOL    HW2 7356   0.693  10.105   5.969
 1842SOL     OW 7357  11.068  12.991   1.380
 1842SOL    HW1 7358  11.082  12.988   1.475
 1842SOL    HW2 7359  11.048  13.083   1.362
 1843SOL     OW 7360  11.339   2.332  14.277
 1843SOL    HW1 7361  11.363   2.423  14.258
 1843SOL    HW2 7362  11.420   2.294  14.312
 1844SOL     OW 7363  11.391  14.755  14.593
 1844SOL    HW1 7364  11.309  14.765  14.545
 1844SOL    HW2 7365  11.444  14.830  14.566
 1845SOL     OW 7366   3.082   6.622   4.004
 1845SOL    HW1 7367   3.091   6.553   3.938
 1845SOL    HW2 7368   2.999   6.603   4.047
 1846SOL     OW 7369   0.208  14.298   1.629
 1846SOL    HW1 7370   0.132  14.322   1.683
 1846SOL    HW2 7371   0.173  14.234   1.567
 1847SOL     OW 7372  11.307   4.942  13.248
 1847SOL    HW1 7373  11.341   4.958  13.160
 1847SOL    HW2 7374  11.277   4.852  13.247
 1848SOL     OW 7375   2.294  12.534  14.673
 1848SOL    HW1 7376   2.258  12.470  14.734
 1848SOL    HW2 7377   2.351  12.589  14.726
 1849SOL     OW 7378  11.523  12.235  10.684
 1849SOL    HW1 7379  11.557  12.305  10.628
 1849SOL    HW2 7380  11.584  12.230  10.757
 1850SOL     OW 7381   5.584   5.593   3.138
 1850SOL    HW1 7382   5.523   5.537   3.187
 1850SOL    HW2 7383   5.632   5.533   3.081
 1851SOL     OW 7384  13.361   3.341   9.468
 1851SOL    HW1 7385  13.447   3.374   9.492
 1851SOL    HW2 7386  13.299   3.397   9.515
 1852SOL     OW 7387   5.530  14.454  10.682
 1852SOL    HW1 7388   5.590  14.398  10.633
 1852SOL    HW2 7389   5.496  14.516  10.617
 1853SOL     OW 7390  12.941  13.954  11.049
 1853SOL    HW1 7391  12.914  13.985  10.963
 1853SOL    HW2 7392  12.996  13.878  11.031
 1854SOL     OW 7393   0.775   4.439   1.577
 1854SOL    HW1 7394   0.702   4.438   1.639
 1854SOL    HW2 7395   0.780   4.349   1.545
 1855SOL     OW 7396   9.954   0.164   5.597
 1855SOL    HW1 7397   9.876   0.219   5.605
 1855SOL    HW2 7398  10.026   0.226   5.580
 1856SOL     OW 7399   3.274   5.350  10.225
 1856SOL    HW1 7400   3.290   5.256  10.229
 1856SOL    HW2 7401   3.262   5.376  10.317
 1857SOL     OW 7402   4.907   9.564  11.702
 1857SOL    HW1 7403   4.813   9.571  11.718
 1857SOL    HW2 7404   4.937   9.655  11.698
 1858SOL     OW 7405   1.900   0.313  13.309
 1858SOL    HW1 7406   1.963   0.376  13.274
 1858SOL    HW2 7407   1.916   0.233  13.258
 1859SOL     OW 7408   2.798  11.702   2.364
 1859SOL    HW1 7409   2.885  11.733   2.391
 1859SOL    HW2 7410   2.810  11.608   2.349
 1860SOL     OW 7411   3.898   5.201   2.599
 1860SOL    HW1 7412   3.944   5.262   2.657
 1860SOL    HW2 7413   3.832   5.160   2.655
 1861SOL     OW 7414   3.387  11.486   0.701
 1861SOL    HW1 7415   3.430  11.437   0.771
 1861SOL    HW2 7416   3.384  11.426   0.627
 1862SOL     OW 7417   6.730   2.204   2.661
 1862SOL    HW1 7418   6.738   2.299   2.662
 1862SOL    HW2 7419   6.705   2.183   2.571
 1863SOL     OW 7420   5.745   5.691  14.505
 1863SOL    HW1 7421   5.788   5.750  14.567
 1863SOL    HW2 7422   5.668   5.659  14.552
 1864SOL     OW 7423  11.524  14.070  11.647
 1864SOL    HW1 7424  11.507  13.976  11.638
 1864SOL    HW2 7425  11.513  14.106  11.559
 1865SOL     OW 7426  10.732   3.289  12.180
 1865SOL    HW1 7427  10.650   3.339  12.179
 1865SOL    HW2 7428  10.789   3.336  12.241
 1866SOL     OW 7429  14.397   0.519   0.606
 1866SOL    HW1 7430  14.374   0.526   0.513
 1866SOL    HW2 7431  14.481   0.563   0.614
 1867SOL     OW 7432   0.994  14.872   8.763
 1867SOL    HW1 7433   1.082   0.030   8.746
 1867SOL    HW2 7434   0.935   0.069   8.744
 1868SOL     OW 7435   1.629   8.895   0.847
 1868SOL    HW1 7436   1.684   8.890   0.925
 1868SOL    HW2 7437   1.620   8.989   0.830
 1869SOL     OW 7438  13.470  11.131   6.755
 1869SOL    HW1 7439  13.492  11.200   6.817
 1869SOL    HW2 7440  13.504  11.161   6.671
 1870SOL     OW 7441  14.479   5.734  10.264
 1870SOL    HW1 7442  14.494   5.671  10.194
 1870SOL    HW2 7443  14.518   5.694  10.341
 1871SOL     OW 7444   7.080  11.510  12.683
 1871SOL    HW1 7445   7.103  11.557  12.764
 1871SOL    HW2 7446   7.020  11.442  12.711
 1872SOL     OW 7447   6.154  11.002   6.017
 1872SOL    HW1 7448   6.233  10.955   6.043
 1872SOL    HW2 7449   6.089  10.975   6.082
 1873SOL     OW 7450   6.011  12.939   4.186
 1873SOL    HW1 7451   5.959  13.019   4.184
 1873SOL    HW2 7452   5.958  12.877   4.236
 1874SOL     OW 7453   3.463   1.926  11.117
 1874SOL    HW1 7454   3.442   1.834  11.133
 1874SOL    HW2 7455   3.506   1.956  11.197
 1875SOL     OW 7456  14.429  12.920  10.137
 1875SOL    HW1 7457  14.498  12.963  10.087
 1875SOL    HW2 7458  14.349  12.938  10.088
 1876SOL     OW 7459  10.652   1.128   5.979
 1876SOL    HW1 7460  10.558   1.140   5.989
 1876SOL    HW2 7461  10.691   1.182   6.048
 1877SOL     OW 7462   9.923   4.592  13.837
 1877SOL    HW1 7463   9.887   4.640  13.763
 1877SOL    HW2 7464   9.998   4.545  13.800
 1878SOL     OW 7465  11.566  13.790   8.354
 1878SOL    HW1 7466  11.560  13.701   8.319
 1878SOL    HW2 7467  11.527  13.785   8.441
 1879SOL     OW 7468  10.706   7.606  11.209
 1879SOL    HW1 7469  10.652   7.681  11.233
 1879SOL    HW2 7470  10.796   7.636  11.223
 1880SOL     OW 7471   7.298  12.497   8.578
 1880SOL    HW1 7472   7.350  12.537   8.648
 1880SOL    HW2 7473   7.210  12.490   8.616
 1881SOL     OW 7474   9.640   6.999   1.669
 1881SOL    HW1 7475   9.648   6.957   1.583
 1881SOL    HW2 7476   9.674   6.935   1.731
 1882SOL     OW 7477   3.348  13.945   4.262
 1882SOL    HW1 7478   3.277  13.881   4.262
 1882SOL    HW2 7479   3.307  14.026   4.232
 1883SOL     OW 7480   3.292   4.451   5.782
 1883SOL    HW1 7481   3.219   4.506   5.753
 1883SOL    HW2 7482   3.308   4.480   5.872
 1884SOL     OW 7483   2.237  12.334  13.086
 1884SOL    HW1 7484   2.179  12.393  13.039
 1884SOL    HW2 7485   2.182  12.258  13.106
 1885SOL     OW 7486   7.728   8.728  10.218
 1885SOL    HW1 7487   7.714   8.815  10.256
 1885SOL    HW2 7488   7.823   8.717  10.219
 1886SOL     OW 7489   1.919   6.637   2.180
 1886SOL    HW1 7490   1.958   6.692   2.113
 1886SOL    HW2 7491   1.943   6.678   2.263
 1887SOL     OW 7492  11.219  10.567   5.496
 1887SOL    HW1 7493  11.249  10.570   5.405
 1887SOL    HW2 7494  11.141  10.622   5.497
 1888SOL     OW 7495  12.916  10.386   2.610
 1888SOL    HW1 7496  12.983  10.450   2.584
 1888SOL    HW2 7497  12.915  10.322   2.538
 1889SOL     OW 7498  11.813   6.245   6.105
 1889SOL    HW1 7499  11.743   6.206   6.052
 1889SOL    HW2 7500  11.847   6.317   6.051
 1890SOL     OW 7501   8.484   0.309  12.885
 1890SOL    HW1 7502   8.400   0.272  12.855
 1890SOL    HW2 7503   8.530   0.331  12.805
 1891SOL     OW 7504   8.864   8.031  12.369
 1891SOL    HW1 7505   8.920   8.031  12.292
 1891SOL    HW2 7506   8.920   8.001  12.440
 1892SOL     OW 7507   2.589   9.378  11.788
 1892SOL    HW1 7508   2.560   9.459  11.748
 1892SOL    HW2 7509   2.632   9.329  11.717
 1893SOL     OW 7510   7.102   2.325  13.296
 1893SOL    HW1 7511   7.132   2.371  13.374
 1893SOL    HW2 7512   7.132   2.235  13.309
 1894SOL     OW 7513   3.206  13.848  11.809
 1894SOL    HW1 7514   3.196  13.933  11.766
 1894SOL    HW2 7515   3.258  13.866  11.887
 1895SOL     OW 7516   7.374  11.151   4.808
 1895SOL    HW1 7517   7.281  11.134   4.794
 1895SOL    HW2 7518   7.407  11.177   4.722
 1896SOL     OW 7519   2.778  10.906  11.127
 1896SOL    HW1 7520   2.736  10.982  11.087
 1896SOL    HW2 7521   2.827  10.942  11.201
 1897SOL     OW 7522   2.304   4.493  10.084
 1897SOL    HW1 7523   2.218   4.470  10.050
 1897SOL    HW2 7524   2.354   4.411  10.082
 1898SOL     OW 7525   2.453  12.819  14.052
 1898SOL    HW1 7526   2.399  12.834  14.130
 1898SOL    HW2 7527   2.505  12.742  14.075
 1899SOL     OW 7528   2.871  11.341   5.431
 1899SOL    HW1 7529   2.929  11.391   5.488
 1899SOL    HW2 7530   2.786  11.345   5.474
 1900SOL     OW 7531  11.801   2.496  11.739
 1900SOL    HW1 7532  11.830   2.487  11.829
 1900SOL    HW2 7533  11.882   2.491  11.687
 1901SOL     OW 7534   2.549   6.453   6.572
 1901SOL    HW1 7535   2.465   6.486   6.605
 1901SOL    HW2 7536   2.606   6.530   6.572
 1902SOL     OW 7537  14.420   0.032   8.364
 1902SOL    HW1 7538  14.488  14.843   8.347
 1902SOL    HW2 7539  14.342  14.855   8.386
 1903SOL     OW 7540   8.772  13.469  11.907
 1903SOL    HW1 7541   8.764  13.539  11.972
 1903SOL    HW2 7542   8.711  13.401  11.937
 1904SOL     OW 7543   0.165  13.305   0.650
 1904SOL    HW1 7544   0.169  13.304   0.746
 1904SOL    HW2 7545   0.152  13.398   0.628
 1905SOL     OW 7546   6.177   1.669   5.963
 1905SOL    HW1 7547   6.167   1.585   5.918
 1905SOL    HW2 7548   6.088   1.702   5.971
 1906SOL     OW 7549  10.668   5.374   7.016
 1906SOL    HW1 7550  10.649   5.418   7.099
 1906SOL    HW2 7551  10.595   5.314   7.004
 1907SOL     OW 7552  11.089   8.199   5.236
 1907SOL    HW1 7553  11.117   8.275   5.184
 1907SOL    HW2 7554  11.007   8.171   5.194
 1908SOL     OW 7555   3.586   4.182  10.373
 1908SOL    HW1 7556   3.618   4.258  10.421
 1908SOL    HW2 7557   3.618   4.195  10.283
 1909SOL     OW 7558  14.189  10.940   4.423
 1909SOL    HW1 7559  14.224  10.906   4.340
 1909SOL    HW2 7560  14.265  10.949   4.480
 1910SOL     OW 7561   3.150  12.515   7.041
 1910SOL    HW1 7562   3.228  12.539   6.991
 1910SOL    HW2 7563   3.139  12.421   7.027
 1911SOL     OW 7564  12.021  14.054  12.059
 1911SOL    HW1 7565  12.062  14.138  12.079
 1911SOL    HW2 7566  12.041  14.040  11.966
 1912SOL     OW 7567   2.178   6.450   1.997
 1912SOL    HW1 7568   2.154   6.358   1.989
 1912SOL    HW2 7569   2.094   6.496   2.002
 1913SOL     OW 7570   3.801   4.492   9.263
 1913SOL    HW1 7571   3.721   4.536   9.233
 1913SOL    HW2 7572   3.774   4.441   9.339
 1914SOL     OW 7573   9.800   7.149   8.839
 1914SOL    HW1 7574   9.709   7.153   8.869
 1914SOL    HW2 7575   9.849   7.118   8.915
 1915SOL     OW 7576   3.104   3.774   3.388
 1915SOL    HW1 7577   3.169   3.710   3.417
 1915SOL    HW2 7578   3.146   3.819   3.315
 1916SOL     OW 7579  14.185   6.770  13.525
 1916SOL    HW1 7580  14.227   6.744  13.443
 1916SOL    HW2 7581  14.252   6.820  13.571
 1917SOL     OW 7582   5.897   4.290  10.148
 1917SOL    HW1 7583   5.965   4.227  10.170
 1917SOL    HW2 7584   5.938   4.350  10.086
 1918SOL     OW 7585  11.998   4.724  12.325
 1918SOL    HW1 7586  12.046   4.804  12.306
 1918SOL    HW2 7587  12.066   4.658  12.342
 1919SOL     OW 7588   0.688   6.405   8.161
 1919SOL    HW1 7589   0.594   6.418   8.174
 1919SOL    HW2 7590   0.705   6.318   8.198
 1920SOL     OW 7591   0.111  10.217  14.729
 1920SOL    HW1 7592   0.163  10.153  14.777
 1920SOL    HW2 7593   0.021  10.185  14.736
 1921SOL     OW 7594   0.797   0.374   6.793
 1921SOL    HW1 7595   0.703   0.370   6.812
 1921SOL    HW2 7596   0.837   0.402   6.875
 1922SOL     OW 7597   0.050   7.407   0.083
 1922SOL    HW1 7598   0.021   7.356   0.007
 1922SOL    HW2 7599  14.845   7.426   0.131
 1923SOL     OW 7600  13.977  10.780   3.808
 1923SOL    HW1 7601  14.049  10.838   3.784
 1923SOL    HW2 7602  14.017  10.715   3.866
 1924SOL     OW 7603  10.528   3.374   3.234
 1924SOL    HW1 7604  10.557   3.452   3.188
 1924SOL    HW2 7605  10.465   3.406   3.299
 1925SOL     OW 7606   1.322   9.644  12.762
 1925SOL    HW1 7607   1.313   9.673  12.671
 1925SOL    HW2 7608   1.316   9.724  12.814
 1926SOL     OW 7609   3.596  13.810   9.520
 1926SOL    HW1 7610   3.601  13.715   9.524
 1926SOL    HW2 7611   3.673  13.840   9.568
 1927SOL     OW 7612   3.053   4.169   4.687
 1927SOL    HW1 7613   3.050   4.140   4.778
 1927SOL    HW2 7614   3.120   4.114   4.646
 1928SOL     OW 7615   4.783   5.594   9.465
 1928SOL    HW1 7616   4.730   5.607   9.386
 1928SOL    HW2 7617   4.737   5.645   9.532
 1929SOL     OW 7618   9.080   3.726   3.354
 1929SOL    HW1 7619   9.045   3.752   3.269
 1929SOL    HW2 7620   9.160   3.777   3.364
 1930SOL     OW 7621  14.488   5.271   0.713
 1930SOL    HW1 7622  14.410   5.303   0.757
 1930SOL    HW2 7623  14.464   5.184   0.682
 1931SOL     OW 7624  14.512   3.124   4.979
 1931SOL    HW1 7625  14.481   3.127   4.889
 1931SOL    HW2 7626  14.432   3.114   5.031
 1932SOL     OW 7627   0.396   1.010   4.790
 1932SOL    HW1 7628   0.428   1.096   4.817
 1932SOL    HW2 7629   0.472   0.952   4.799
 1933SOL     OW 7630  12.157   8.744   2.680
 1933SOL    HW1 7631  12.210   8.689   2.622
 1933SOL    HW2 7632  12.212   8.757   2.757
 1934SOL     OW 7633   5.541  10.249   6.920
 1934SOL    HW1 7634   5.481  10.323   6.924
 1934SOL    HW2 7635   5.510  10.197   6.846
 1935SOL     OW 7636   2.558   2.439   3.229
 1935SOL    HW1 7637   2.612   2.458   3.306
 1935SOL    HW2 7638   2.590   2.355   3.197
 1936SOL     OW 7639   8.664   5.557   1.055
 1936SOL    HW1 7640   8.758   5.563   1.071
 1936SOL    HW2 7641   8.656   5.520   0.967
 1937SOL     OW 7642  12.868   3.527   9.570
 1937SOL    HW1 7643  12.873   3.543   9.476
 1937SOL    HW2 7644  12.841   3.436   9.578
 1938SOL     OW 7645   0.165  10.667   1.827
 1938SOL    HW1 7646   0.205  10.608   1.890
 1938SOL    HW2 7647   0.232  10.735   1.813
 1939SOL     OW 7648   0.780   0.633   3.673
 1939SOL    HW1 7649   0.744   0.705   3.621
 1939SOL    HW2 7650   0.707   0.573   3.686
 1940SOL     OW 7651  11.620   0.773   8.413
 1940SOL    HW1 7652  11.575   0.695   8.446
 1940SOL    HW2 7653  11.574   0.846   8.453
 1941SOL     OW 7654   7.935   1.203   1.482
 1941SOL    HW1 7655   7.900   1.270   1.541
 1941SOL    HW2 7656   7.896   1.224   1.397
 1942SOL     OW 7657   5.910   9.080   3.245
 1942SOL    HW1 7658   5.883   8.996   3.207
 1942SOL    HW2 7659   6.002   9.068   3.268
 1943SOL     OW 7660  14.628   7.117   7.699
 1943SOL    HW1 7661  14.649   7.024   7.686
 1943SOL    HW2 7662  14.549   7.131   7.646
 1944SOL     OW 7663   5.479   6.705   6.816
 1944SOL    HW1 7664   5.481   6.641   6.887
 1944SOL    HW2 7665   5.566   6.745   6.817
 1945SOL     OW 7666  13.265   6.926   3.155
 1945SOL    HW1 7667  13.270   7.017   3.186
 1945SOL    HW2 7668  13.173   6.914   3.132
 1946SOL     OW 7669  11.426  13.634  14.624
 1946SOL    HW1 7670  11.332  13.645  14.609
 1946SOL    HW2 7671  11.440  13.660  14.714
 1947SOL     OW 7672   5.449   0.114   4.301
 1947SOL    HW1 7673   5.503   0.052   4.251
 1947SOL    HW2 7674   5.463   0.088   4.392
 1948SOL     OW 7675   7.972   5.023   4.381
 1948SOL    HW1 7676   8.047   5.063   4.426
 1948SOL    HW2 7677   8.011   4.978   4.306
 1949SOL     OW 7678  11.787   7.516   8.795
 1949SOL    HW1 7679  11.713   7.495   8.739
 1949SOL    HW2 7680  11.748   7.534   8.881
 1950SOL     OW 7681   9.539   5.081   3.560
 1950SOL    HW1 7682   9.451   5.089   3.597
 1950SOL    HW2 7683   9.595   5.128   3.622
 1951SOL     OW 7684   6.598  13.158   5.447
 1951SOL    HW1 7685   6.660  13.166   5.374
 1951SOL    HW2 7686   6.513  13.180   5.409
 1952SOL     OW 7687   6.093   9.396   1.448
 1952SOL    HW1 7688   6.107   9.409   1.355
 1952SOL    HW2 7689   6.052   9.309   1.455
 1953SOL     OW 7690   4.497   8.429   0.747
 1953SOL    HW1 7691   4.462   8.376   0.819
 1953SOL    HW2 7692   4.439   8.411   0.673
 1954SOL     OW 7693  10.860  10.268   9.499
 1954SOL    HW1 7694  10.795  10.239   9.435
 1954SOL    HW2 7695  10.839  10.221   9.579
 1955SOL     OW 7696   1.372   9.901  13.246
 1955SOL    HW1 7697   1.289   9.913  13.292
 1955SOL    HW2 7698   1.411   9.823  13.286
 1956SOL     OW 7699   2.538   7.658   4.315
 1956SOL    HW1 7700   2.613   7.715   4.299
 1956SOL    HW2 7701   2.462   7.715   4.301
 1957SOL     OW 7702   2.235   4.992   4.890
 1957SOL    HW1 7703   2.225   5.064   4.827
 1957SOL    HW2 7704   2.239   4.914   4.835
 1958SOL     OW 7705   3.616   5.847   9.405
 1958SOL    HW1 7706   3.661   5.885   9.329
 1958SOL    HW2 7707   3.572   5.922   9.445
 1959SOL     OW 7708   5.706  12.888   5.028
 1959SOL    HW1 7709   5.786  12.843   5.057
 1959SOL    HW2 7710   5.721  12.980   5.049
 1960SOL     OW 7711   7.663  13.264  13.664
 1960SOL    HW1 7712   7.727  13.315  13.713
 1960SOL    HW2 7713   7.585  13.264  13.720
 1961SOL     OW 7714   4.081   8.473  12.730
 1961SOL    HW1 7715   4.064   8.485  12.823
 1961SOL    HW2 7716   4.169   8.436  12.727
 1962SOL     OW 7717  11.256  11.219   0.778
 1962SOL    HW1 7718  11.348  11.194   0.789
 1962SOL    HW2 7719  11.229  11.248   0.865
 1963SOL     OW 7720  10.173   5.886   5.641
 1963SOL    HW1 7721  10.245   5.864   5.582
 1963SOL    HW2 7722  10.098   5.898   5.583
 1964SOL     OW 7723   9.514   3.129   5.131
 1964SOL    HW1 7724   9.579   3.197   5.112
 1964SOL    HW2 7725   9.550   3.050   5.090
 1965SOL     OW 7726  14.398  11.410   6.166
 1965SOL    HW1 7727  14.390  11.316   6.185
 1965SOL    HW2 7728  14.493  11.423   6.155
 1966SOL     OW 7729   3.495  12.249   2.631
 1966SOL    HW1 7730   3.399  12.242   2.631
 1966SOL    HW2 7731   3.512  12.332   2.587
 1967SOL     OW 7732   6.584   5.186   4.648
 1967SOL    HW1 7733   6.573   5.199   4.742
 1967SOL    HW2 7734   6.636   5.105   4.642
 1968SOL     OW 7735  14.262   7.744   4.954
 1968SOL    HW1 7736  14.311   7.749   5.036
 1968SOL    HW2 7737  14.325   7.774   4.888
 1969SOL     OW 7738   4.723  12.956  11.031
 1969SOL    HW1 7739   4.659  12.887  11.049
 1969SOL    HW2 7740   4.765  12.928  10.950
 1970SOL     OW 7741   2.154  14.177  14.677
 1970SOL    HW1 7742   2.108  14.147  14.599
 1970SOL    HW2 7743   2.213  14.105  14.699
 1971SOL     OW 7744  11.328  12.024   9.775
 1971SOL    HW1 7745  11.263  11.955   9.788
 1971SOL    HW2 7746  11.321  12.079   9.853
 1972SOL     OW 7747   6.848   9.430   9.040
 1972SOL    HW1 7748   6.918   9.373   9.072
 1972SOL    HW2 7749   6.848   9.504   9.101
 1973SOL     OW 7750   3.062   6.153  11.334
 1973SOL    HW1 7751   3.095   6.065  11.352
 1973SOL    HW2 7752   3.043   6.153  11.240
 1974SOL     OW 7753  14.037   9.771   1.578
 1974SOL    HW1 7754  14.019   9.855   1.536
 1974SOL    HW2 7755  14.054   9.711   1.505
 1975SOL     OW 7756  13.729  13.727   1.040
 1975SOL    HW1 7757  13.641  13.748   1.010
 1975SOL    HW2 7758  13.753  13.800   1.098
 1976SOL     OW 7759   4.415  10.893   2.357
 1976SOL    HW1 7760   4.406  10.885   2.262
 1976SOL    HW2 7761   4.366  10.972   2.379
 1977SOL     OW 7762   5.243   6.653  11.600
 1977SOL    HW1 7763   5.330   6.642  11.640
 1977SOL    HW2 7764   5.189   6.687  11.671
 1978SOL     OW 7765   5.470   3.357   3.256
 1978SOL    HW1 7766   5.425   3.325   3.178
 1978SOL    HW2 7767   5.471   3.282   3.315
 1979SOL     OW 7768  13.247   9.693   7.481
 1979SOL    HW1 7769  13.330   9.680   7.527
 1979SOL    HW2 7770  13.187   9.629   7.520
 1980SOL     OW 7771   5.920  14.815   8.040
 1980SOL    HW1 7772   5.968   0.022   8.034
 1980SOL    HW2 7773   5.867  14.825   8.120
 1981SOL     OW 7774   0.409  10.866   0.822
 1981SOL    HW1 7775   0.369  10.953   0.822
 1981SOL    HW2 7776   0.371  10.822   0.747
 1982SOL     OW 7777  13.377   1.272   2.581
 1982SOL    HW1 7778  13.347   1.247   2.493
 1982SOL    HW2 7779  13.465   1.307   2.567
 1983SOL     OW 7780   0.759   0.077   5.022
 1983SOL    HW1 7781   0.800   0.025   4.953
 1983SOL    HW2 7782   0.801   0.163   5.016
 1984SOL     OW 7783  14.152  14.535  10.973
 1984SOL    HW1 7784  14.115  14.451  10.947
 1984SOL    HW2 7785  14.208  14.560  10.900
 1985SOL     OW 7786  14.183   5.600  11.244
 1985SOL    HW1 7787  14.224   5.560  11.168
 1985SOL    HW2 7788  14.148   5.526  11.294
 1986SOL     OW 7789   6.388  13.354   6.100
 1986SOL    HW1 7790   6.458  13.372   6.163
 1986SOL    HW2 7791   6.421  13.389   6.018
 1987SOL     OW 7792   7.305   9.556  13.588
 1987SOL    HW1 7793   7.401   9.552  13.596
 1987SOL    HW2 7794   7.290   9.561  13.493
 1988SOL     OW 7795   0.167   8.159   6.974
 1988SOL    HW1 7796   0.157   8.170   6.880
 1988SOL    HW2 7797   0.219   8.079   6.983
 1989SOL     OW 7798   3.434   7.973  12.665
 1989SOL    HW1 7799   3.508   7.965  12.605
 1989SOL    HW2 7800   3.373   8.031  12.619
 1990SOL     OW 7801   8.538   8.902   2.552
 1990SOL    HW1 7802   8.459   8.940   2.513
 1990SOL    HW2 7803   8.580   8.856   2.479
 1991SOL     OW 7804   1.071   3.593   9.545
 1991SOL    HW1 7805   1.008   3.548   9.601
 1991SOL    HW2 7806   1.111   3.659   9.602
 1992SOL     OW 7807   2.578   9.003  10.863
 1992SOL    HW1 7808   2.638   9.078  10.857
 1992SOL    HW2 7809   2.617   8.947  10.930
 1993SOL     OW 7810   0.322  14.669  10.950
 1993SOL    HW1 7811   0.364  14.676  11.035
 1993SOL    HW2 7812   0.244  14.725  10.956
 1994SOL     OW 7813  10.385  10.454  14.384
 1994SOL    HW1 7814  10.402  10.468  14.291
 1994SOL    HW2 7815  10.292  10.474  14.394
 1995SOL     OW 7816   5.563   6.432   4.307
 1995SOL    HW1 7817   5.627   6.478   4.253
 1995SOL    HW2 7818   5.595   6.442   4.397
 1996SOL     OW 7819   4.057  10.749  12.033
 1996SOL    HW1 7820   4.089  10.689  11.966
 1996SOL    HW2 7821   4.087  10.835  12.006
 1997SOL     OW 7822   6.903  11.119  13.521
 1997SOL    HW1 7823   6.937  11.208  13.515
 1997SOL    HW2 7824   6.943  11.082  13.600
 1998SOL     OW 7825   7.776   8.062   0.100
 1998SOL    HW1 7826   7.700   8.099   0.053
 1998SOL    HW2 7827   7.820   8.007   0.036
 1999SOL     OW 7828   1.103   0.604   3.548
 1999SOL    HW1 7829   1.195   0.629   3.551
 1999SOL    HW2 7830   1.056   0.684   3.574
 2000SOL     OW 7831  10.686   7.425  11.639
 2000SOL    HW1 7832  10.696   7.488  11.711
 2000SOL    HW2 7833  10.699   7.340  11.679
 2001SOL     OW 7834   5.536  13.275  11.496
 2001SOL    HW1 7835   5.553  13.267  11.402
 2001SOL    HW2 7836   5.487  13.196  11.518
 2002SOL     OW 7837  10.706   4.545   6.149
 2002SOL    HW1 7838  10.685   4.638   6.155
 2002SOL    HW2 7839  10.802   4.542   6.143
 2003SOL     OW 7840   9.279   9.210   2.678
 2003SOL    HW1 7841   9.222   9.209   2.601
 2003SOL    HW2 7842   9.223   9.243   2.749
 2004SOL     OW 7843   9.046   5.242   9.241
 2004SOL    HW1 7844   8.996   5.319   9.217
 2004SOL    HW2 7845   8.999   5.169   9.203
 2005SOL     OW 7846  10.753   1.475  11.127
 2005SOL    HW1 7847  10.721   1.397  11.083
 2005SOL    HW2 7848  10.812   1.442  11.196
 2006SOL     OW 7849  13.802   4.294   5.288
 2006SOL    HW1 7850  13.765   4.206   5.296
 2006SOL    HW2 7851  13.819   4.321   5.379
 2007SOL     OW 7852  12.162   8.428   0.373
 2007SOL    HW1 7853  12.072   8.443   0.402
 2007SOL    HW2 7854  12.170   8.478   0.292
 2008SOL     OW 7855   2.097  14.099   6.151
 2008SOL    HW1 7856   2.066  14.189   6.143
 2008SOL    HW2 7857   2.098  14.065   6.062
 2009SOL     OW 7858   5.878   2.527  11.167
 2009SOL    HW1 7859   5.964   2.565  11.185
 2009SOL    HW2 7860   5.866   2.539  11.072
 2010SOL     OW 7861   6.240  10.753  13.894
 2010SOL    HW1 7862   6.323  10.735  13.851
 2010SOL    HW2 7863   6.225  10.846  13.880
 2011SOL     OW 7864   6.088   4.275   2.222
 2011SOL    HW1 7865   6.174   4.315   2.211
 2011SOL    HW2 7866   6.098   4.187   2.185
 2012SOL     OW 7867   8.071   5.098  13.327
 2012SOL    HW1 7868   8.110   5.179  13.295
 2012SOL    HW2 7869   8.059   5.044  13.249
 2013SOL     OW 7870  12.197   2.734   5.577
 2013SOL    HW1 7871  12.121   2.688   5.542
 2013SOL    HW2 7872  12.167   2.824   5.591
 2014SOL     OW 7873   9.729   7.286  14.357
 2014SOL    HW1 7874   9.696   7.362  14.405
 2014SOL    HW2 7875   9.824   7.288  14.371
 2015SOL     OW 7876   7.602   8.392  11.840
 2015SOL    HW1 7877   7.538   8.322  11.827
 2015SOL    HW2 7878   7.612   8.432  11.754
 2016SOL     OW 7879  11.969   4.138   7.567
 2016SOL    HW1 7880  11.879   4.130   7.599
 2016SOL    HW2 7881  11.998   4.047   7.555
 2017SOL     OW 7882   9.565  11.783  14.108
 2017SOL    HW1 7883   9.582  11.877  14.119
 2017SOL    HW2 7884   9.623  11.741  14.172
 2018SOL     OW 7885   2.976  13.414  11.722
 2018SOL    HW1 7886   2.906  13.479  11.718
 2018SOL    HW2 7887   3.054  13.465  11.745
 2019SOL     OW 7888  11.646   2.591   3.207
 2019SOL    HW1 7889  11.682   2.642   3.280
 2019SOL    HW2 7890  11.656   2.648   3.130
 2020SOL     OW 7891  12.248   9.984   9.083
 2020SOL    HW1 7892  12.270   9.902   9.038
 2020SOL    HW2 7893  12.277  10.053   9.024
 2021SOL     OW 7894   5.667  11.370   0.268
 2021SOL    HW1 7895   5.604  11.431   0.230
 2021SOL    HW2 7896   5.663  11.293   0.211
 2022SOL     OW 7897   7.146   2.216   3.438
 2022SOL    HW1 7898   7.226   2.237   3.389
 2022SOL    HW2 7899   7.102   2.301   3.449
 2023SOL     OW 7900   2.820  13.388  12.842
 2023SOL    HW1 7901   2.870  13.429  12.913
 2023SOL    HW2 7902   2.873  13.401  12.764
 2024SOL     OW 7903  11.316   8.005   0.851
 2024SOL    HW1 7904  11.270   8.085   0.824
 2024SOL    HW2 7905  11.330   8.017   0.945
 2025SOL     OW 7906   7.688  11.387   3.160
 2025SOL    HW1 7907   7.651  11.446   3.095
 2025SOL    HW2 7908   7.652  11.301   3.137
 2026SOL     OW 7909   4.021   8.529  12.178
 2026SOL    HW1 7910   4.048   8.602  12.122
 2026SOL    HW2 7911   4.102   8.482  12.197
 2027SOL     OW 7912  10.072  14.698   5.966
 2027SOL    HW1 7913  10.065  14.608   5.934
 2027SOL    HW2 7914  10.072  14.752   5.887
 2028SOL     OW 7915  12.527  12.356  10.926
 2028SOL    HW1 7916  12.447  12.345  10.876
 2028SOL    HW2 7917  12.588  12.399  10.865
 2029SOL     OW 7918  11.414   7.541  14.269
 2029SOL    HW1 7919  11.470   7.520  14.344
 2029SOL    HW2 7920  11.430   7.470  14.207
 2030SOL     OW 7921   5.943   8.898  12.703
 2030SOL    HW1 7922   5.931   8.816  12.655
 2030SOL    HW2 7923   5.920   8.966  12.640
 2031SOL     OW 7924   3.379   2.489  12.521
 2031SOL    HW1 7925   3.472   2.487  12.543
 2031SOL    HW2 7926   3.338   2.536  12.593
 2032SOL     OW 7927   7.039  14.615   9.228
 2032SOL    HW1 7928   6.962  14.645   9.182
 2032SOL    HW2 7929   7.029  14.520   9.232
 2033SOL     OW 7930  14.704  12.822  11.638
 2033SOL    HW1 7931  14.651  12.846  11.562
 2033SOL    HW2 7932  14.756  12.747  11.609
 2034SOL     OW 7933   1.044   7.348  10.969
 2034SOL    HW1 7934   1.053   7.392  11.054
 2034SOL    HW2 7935   0.958   7.306  10.974
 2035SOL     OW 7936   5.756   0.171   9.549
 2035SOL    HW1 7937   5.770   0.232   9.622
 2035SOL    HW2 7938   5.716   0.224   9.481
 2036SOL     OW 7939   9.111   1.643   0.813
 2036SOL    HW1 7940   9.112   1.697   0.892
 2036SOL    HW2 7941   9.171   1.571   0.833
 2037SOL     OW 7942   1.057   5.528   5.587
 2037SOL    HW1 7943   1.031   5.620   5.578
 2037SOL    HW2 7944   0.975   5.480   5.574
 2038SOL     OW 7945   4.737   5.686  10.421
 2038SOL    HW1 7946   4.817   5.663  10.468
 2038SOL    HW2 7947   4.764   5.692  10.329
 2039SOL     OW 7948   9.351   5.019   7.368
 2039SOL    HW1 7949   9.395   5.039   7.451
 2039SOL    HW2 7950   9.345   5.104   7.323
 2040SOL     OW 7951   5.771   9.183  12.253
 2040SOL    HW1 7952   5.822   9.140  12.322
 2040SOL    HW2 7953   5.686   9.201  12.295
 2041SOL     OW 7954   8.708   9.461   3.213
 2041SOL    HW1 7955   8.663   9.482   3.131
 2041SOL    HW2 7956   8.640   9.422   3.269
 2042SOL     OW 7957  10.599   6.753   0.596
 2042SOL    HW1 7958  10.577   6.740   0.688
 2042SOL    HW2 7959  10.514   6.768   0.553
 2043SOL     OW 7960   4.219   1.430   4.020
 2043SOL    HW1 7961   4.280   1.432   4.094
 2043SOL    HW2 7962   4.237   1.347   3.976
 2044SOL     OW 7963   8.134  10.126   1.366
 2044SOL    HW1 7964   8.046  10.097   1.391
 2044SOL    HW2 7965   8.120  10.179   1.287
 2045SOL     OW 7966   0.380   7.200   1.515
 2045SOL    HW1 7967   0.403   7.246   1.596
 2045SOL    HW2 7968   0.460   7.154   1.490
 2046SOL     OW 7969  13.628  14.075   3.659
 2046SOL    HW1 7970  13.637  14.104   3.568
 2046SOL    HW2 7971  13.686  14.000   3.667
 2047SOL     OW 7972  11.465  13.779  11.090
 2047SOL    HW1 7973  11.480  13.722  11.014
 2047SOL    HW2 7974  11.549  13.821  11.106
 2048SOL     OW 7975   8.908   2.352   2.767
 2048SOL    HW1 7976   8.906   2.310   2.681
 2048SOL    HW2 7977   8.919   2.280   2.828
 2049SOL     OW 7978  13.498  11.807   7.623
 2049SOL    HW1 7979  13.552  11.834   7.550
 2049SOL    HW2 7980  13.549  11.829   7.701
 2050SOL     OW 7981  13.730   9.775   1.988
 2050SOL    HW1 7982  13.756   9.855   2.035
 2050SOL    HW2 7983  13.810   9.744   1.946
 2051SOL     OW 7984   0.724   7.922  10.364
 2051SOL    HW1 7985   0.664   7.903  10.436
 2051SOL    HW2 7986   0.812   7.915  10.403
 2052SOL     OW 7987   8.082  14.864   7.487
 2052SOL    HW1 7988   8.069   0.010   7.580
 2052SOL    HW2 7989   8.050   0.066   7.440
 2053SOL     OW 7990   8.214   3.436   9.777
 2053SOL    HW1 7991   8.119   3.432   9.792
 2053SOL    HW2 7992   8.243   3.346   9.790
 2054SOL     OW 7993  14.177   2.007  14.749
 2054SOL    HW1 7994  14.114   2.078  14.763
 2054SOL    HW2 7995  14.165   1.949  14.825
 2055SOL     OW 7996   4.863   0.948  12.238
 2055SOL    HW1 7997   4.901   1.010  12.300
 2055SOL    HW2 7998   4.805   0.894  12.292
 2056SOL     OW 7999   5.007  10.001  14.417
 2056SOL    HW1 8000   5.050   9.917  14.434
 2056SOL    HW2 8001   4.995  10.003  14.323
 2057SOL     OW 8002   0.349   5.575   7.880
 2057SOL    HW1 8003   0.442   5.600   7.886
 2057SOL    HW2 8004   0.350   5.480   7.896
 2058SOL     OW 8005   3.554  13.377   5.949
 2058SOL    HW1 8006   3.647  13.371   5.930
 2058SOL    HW2 8007   3.547  13.357   6.043
 2059SOL     OW 8008  11.469   3.122   4.182
 2059SOL    HW1 8009  11.504   3.034   4.198
 2059SOL    HW2 8010  11.496   3.173   4.258
 2060SOL     OW 8011   1.075   8.445   5.323
 2060SOL    HW1 8012   1.018   8.483   5.257
 2060SOL    HW2 8013   1.101   8.519   5.378
 2061SOL     OW 8014   8.142  11.660   2.155
 2061SOL    HW1 8015   8.094  11.583   2.189
 2061SOL    HW2 8016   8.128  11.727   2.222
 2062SOL     OW 8017   3.354   9.523   2.508
 2062SOL    HW1 8018   3.276   9.501   2.558
 2062SOL    HW2 8019   3.405   9.441   2.506
 2063SOL     OW 8020   9.011  12.279  13.022
 2063SOL    HW1 8021   8.956  12.356  13.038
 2063SOL    HW2 8022   9.098  12.305  13.052
 2064SOL     OW 8023   3.328  10.009   1.077
 2064SOL    HW1 8024   3.305   9.919   1.054
 2064SOL    HW2 8025   3.304  10.061   0.999
 2065SOL     OW 8026   3.380   7.342   9.037
 2065SOL    HW1 8027   3.462   7.381   9.005
 2065SOL    HW2 8028   3.408   7.266   9.087
 2066SOL     OW 8029   4.088   0.690   8.893
 2066SOL    HW1 8030   4.013   0.745   8.871
 2066SOL    HW2 8031   4.094   0.628   8.820
 2067SOL     OW 8032  11.481   2.367   9.996
 2067SOL    HW1 8033  11.549   2.301  10.007
 2067SOL    HW2 8034  11.433   2.340   9.917
 2068SOL     OW 8035   8.652   0.405   6.469
 2068SOL    HW1 8036   8.699   0.367   6.543
 2068SOL    HW2 8037   8.713   0.468   6.431
 2069SOL     OW 8038   3.109   0.428  14.415
 2069SOL    HW1 8039   3.043   0.427  14.485
 2069SOL    HW2 8040   3.192   0.419  14.461
 2070SOL     OW 8041   3.152   0.431  13.388
 2070SOL    HW1 8042   3.162   0.412  13.481
 2070SOL    HW2 8043   3.226   0.388  13.346
 2071SOL     OW 8044   2.237  12.216  13.979
 2071SOL    HW1 8045   2.232  12.122  13.994
 2071SOL    HW2 8046   2.156  12.251  14.015
 2072SOL     OW 8047  10.902  10.792   6.844
 2072SOL    HW1 8048  10.827  10.850   6.856
 2072SOL    HW2 8049  10.924  10.800   6.752
 2073SOL     OW 8050   8.477   3.475  13.146
 2073SOL    HW1 8051   8.418   3.538  13.189
 2073SOL    HW2 8052   8.422   3.399  13.129
 2074SOL     OW 8053   6.941  11.039   8.218
 2074SOL    HW1 8054   6.891  11.120   8.226
 2074SOL    HW2 8055   7.030  11.062   8.244
 2075SOL     OW 8056   1.119   9.952  12.086
 2075SOL    HW1 8057   1.075   9.941  12.170
 2075SOL    HW2 8058   1.212   9.949  12.106
 2076SOL     OW 8059   0.423  10.928   4.349
 2076SOL    HW1 8060   0.482  10.860   4.382
 2076SOL    HW2 8061   0.427  10.920   4.254
 2077SOL     OW 8062   9.025   6.030   7.005
 2077SOL    HW1 8063   9.120   6.019   7.011
 2077SOL    HW2 8064   8.998   6.052   7.093
 2078SOL     OW 8065  12.802   5.501   8.911
 2078SOL    HW1 8066  12.798   5.414   8.949
 2078SOL    HW2 8067  12.802   5.561   8.985
 2079SOL     OW 8068  11.912   2.798  10.837
 2079SOL    HW1 8069  11.838   2.744  10.812
 2079SOL    HW2 8070  11.973   2.792  10.763
 2080SOL     OW 8071  11.303  13.549  13.715
 2080SOL    HW1 8072  11.352  13.558  13.633
 2080SOL    HW2 8073  11.370  13.528  13.780
 2081SOL     OW 8074   8.106   5.630   5.617
 2081SOL    HW1 8075   8.172   5.638   5.547
 2081SOL    HW2 8076   8.116   5.540   5.649
 2082SOL     OW 8077  14.259  13.735   8.756
 2082SOL    HW1 8078  14.214  13.700   8.833
 2082SOL    HW2 8079  14.266  13.661   8.696
 2083SOL     OW 8080   7.845  13.002   8.204
 2083SOL    HW1 8081   7.851  13.086   8.249
 2083SOL    HW2 8082   7.874  12.938   8.269
 2084SOL     OW 8083   0.737  13.172  13.227
 2084SOL    HW1 8084   0.764  13.158  13.318
 2084SOL    HW2 8085   0.645  13.197  13.234
 2085SOL     OW 8086  11.293  10.674   6.629
 2085SOL    HW1 8087  11.298  10.763   6.664
 2085SOL    HW2 8088  11.320  10.682   6.538
 2086SOL     OW 8089   7.634   2.470   9.524
 2086SOL    HW1 8090   7.683   2.455   9.605
 2086SOL    HW2 8091   7.604   2.561   9.532
 2087SOL     OW 8092   6.845   1.470   5.762
 2087SOL    HW1 8093   6.781   1.507   5.701
 2087SOL    HW2 8094   6.820   1.378   5.770
 2088SOL     OW 8095   4.182  13.176   5.721
 2088SOL    HW1 8096   4.171  13.164   5.627
 2088SOL    HW2 8097   4.234  13.256   5.730
 2089SOL     OW 8098   7.169   7.971   3.289
 2089SOL    HW1 8099   7.188   8.063   3.309
 2089SOL    HW2 8100   7.231   7.922   3.343
 2090SOL     OW 8101   4.615  12.982   9.700
 2090SOL    HW1 8102   4.542  13.026   9.745
 2090SOL    HW2 8103   4.674  13.053   9.676
 2091SOL     OW 8104   0.204   3.594   5.529
 2091SOL    HW1 8105   0.166   3.622   5.612
 2091SOL    HW2 8106   0.143   3.527   5.497
 2092SOL     OW 8107  14.114   7.896   8.111
 2092SOL    HW1 8108  14.185   7.836   8.134
 2092SOL    HW2 8109  14.158   7.980   8.098
 2093SOL     OW 8110  10.378   5.677   7.732
 2093SOL    HW1 8111  10.328   5.632   7.663
 2093SOL    HW2 8112  10.364   5.770   7.714
 2094SOL     OW 8113   5.372  14.870   4.723
 2094SOL    HW1 8114   5.317   0.066   4.690
 2094SOL    HW2 8115   5.424  14.843   4.647
 2095SOL     OW 8116  10.589   6.471  14.026
 2095SOL    HW1 8117  10.576   6.482  13.932
 2095SOL    HW2 8118  10.551   6.385  14.045
 2096SOL     OW 8119   9.247  12.241   3.496
 2096SOL    HW1 8120   9.338  12.241   3.525
 2096SOL    HW2 8121   9.231  12.152   3.466
 2097SOL     OW 8122  10.034   4.590   8.854
 2097SOL    HW1 8123  10.014   4.660   8.791
 2097SOL    HW2 8124  10.046   4.636   8.937
 2098SOL     OW 8125   4.233   3.224  11.014
 2098SOL    HW1 8126   4.158   3.199  11.068
 2098SOL    HW2 8127   4.295   3.263  11.076
 2099SOL     OW 8128   3.302   2.650   8.921
 2099SOL    HW1 8129   3.307   2.654   9.017
 2099SOL    HW2 8130   3.340   2.565   8.899
 2100SOL     OW 8131  12.945  12.588   0.567
 2100SOL    HW1 8132  13.013  12.653   0.548
 2100SOL    HW2 8133  12.865  12.640   0.578
 2101SOL     OW 8134  13.012   3.401  10.654
 2101SOL    HW1 8135  13.105   3.390  10.670
 2101SOL    HW2 8136  12.969   3.349  10.723
 2102SOL     OW 8137   5.411  12.557   8.616
 2102SOL    HW1 8138   5.386  12.474   8.575
 2102SOL    HW2 8139   5.336  12.615   8.601
 2103SOL     OW 8140   4.469   7.897   0.940
 2103SOL    HW1 8141   4.425   7.973   0.977
 2103SOL    HW2 8142   4.410   7.865   0.872
 2104SOL     OW 8143   0.310   3.370   8.388
 2104SOL    HW1 8144   0.340   3.279   8.399
 2104SOL    HW2 8145   0.239   3.364   8.325
 2105SOL     OW 8146   5.440   2.338  10.579
 2105SOL    HW1 8147   5.399   2.252  10.574
 2105SOL    HW2 8148   5.523   2.329  10.531
 2106SOL     OW 8149   5.954   7.246   8.140
 2106SOL    HW1 8150   6.009   7.308   8.187
 2106SOL    HW2 8151   5.986   7.160   8.168
 2107SOL     OW 8152   8.083   7.615   5.048
 2107SOL    HW1 8153   8.081   7.601   5.142
 2107SOL    HW2 8154   8.010   7.675   5.031
 2108SOL     OW 8155   4.713  14.280   7.971
 2108SOL    HW1 8156   4.643  14.220   7.946
 2108SOL    HW2 8157   4.791  14.226   7.973
 2109SOL     OW 8158   6.258  10.544   1.905
 2109SOL    HW1 8159   6.346  10.527   1.938
 2109SOL    HW2 8160   6.227  10.619   1.956
 2110SOL     OW 8161   9.136  11.793   2.163
 2110SOL    HW1 8162   9.178  11.719   2.120
 2110SOL    HW2 8163   9.105  11.849   2.091
 2111SOL     OW 8164   5.143  13.414  11.707
 2111SOL    HW1 8165   5.231  13.384  11.729
 2111SOL    HW2 8166   5.125  13.373  11.622
 2112SOL     OW 8167   0.133   2.022  11.850
 2112SOL    HW1 8168   0.179   1.943  11.879
 2112SOL    HW2 8169   0.081   2.048  11.926
 2113SOL     OW 8170   8.710   2.637  10.691
 2113SOL    HW1 8171   8.726   2.558  10.639
 2113SOL    HW2 8172   8.736   2.613  10.779
 2114SOL     OW 8173   0.683   4.594   6.806
 2114SOL    HW1 8174   0.667   4.527   6.873
 2114SOL    HW2 8175   0.605   4.593   6.751
 2115SOL     OW 8176  14.200  10.780   6.704
 2115SOL    HW1 8177  14.219  10.865   6.744
 2115SOL    HW2 8178  14.147  10.735   6.768
 2116SOL     OW 8179   9.087   9.101  11.254
 2116SOL    HW1 8180   9.169   9.051  11.253
 2116SOL    HW2 8181   9.085   9.142  11.340
 2117SOL     OW 8182  11.821   1.393   2.661
 2117SOL    HW1 8183  11.878   1.470   2.659
 2117SOL    HW2 8184  11.744   1.422   2.710
 2118SOL     OW 8185   4.040   4.012   0.624
 2118SOL    HW1 8186   4.132   4.018   0.597
 2118SOL    HW2 8187   4.031   4.078   0.692
 2119SOL     OW 8188   9.836   8.997  10.967
 2119SOL    HW1 8189   9.878   9.001  11.053
 2119SOL    HW2 8190   9.833   9.088  10.938
 2120SOL     OW 8191   8.664  13.073  10.075
 2120SOL    HW1 8192   8.579  13.035  10.051
 2120SOL    HW2 8193   8.708  13.003  10.125
 2121SOL     OW 8194   6.680   9.688   6.432
 2121SOL    HW1 8195   6.619   9.687   6.359
 2121SOL    HW2 8196   6.626   9.678   6.510
 2122SOL     OW 8197   1.413   0.088  12.537
 2122SOL    HW1 8198   1.453   0.019  12.590
 2122SOL    HW2 8199   1.319   0.079  12.552
 2123SOL     OW 8200  13.306   8.829   7.455
 2123SOL    HW1 8201  13.386   8.870   7.488
 2123SOL    HW2 8202  13.334   8.747   7.416
 2124SOL     OW 8203   7.695   7.275   7.522
 2124SOL    HW1 8204   7.706   7.240   7.433
 2124SOL    HW2 8205   7.663   7.364   7.508
 2125SOL     OW 8206   2.586   7.625   3.728
 2125SOL    HW1 8207   2.491   7.620   3.727
 2125SOL    HW2 8208   2.608   7.669   3.645
 2126SOL     OW 8209  14.363   4.057   3.761
 2126SOL    HW1 8210  14.359   3.981   3.819
 2126SOL    HW2 8211  14.456   4.077   3.755
 2127SOL     OW 8212   7.794   6.603  14.077
 2127SOL    HW1 8213   7.861   6.660  14.114
 2127SOL    HW2 8214   7.840   6.550  14.012
 2128SOL     OW 8215   4.156   5.738  12.980
 2128SOL    HW1 8216   4.177   5.773  13.067
 2128SOL    HW2 8217   4.114   5.654  12.998
 2129SOL     OW 8218   7.394   6.534  14.533
 2129SOL    HW1 8219   7.359   6.453  14.568
 2129SOL    HW2 8220   7.468   6.555  14.591
 2130SOL     OW 8221   2.182   5.799   1.257
 2130SOL    HW1 8222   2.098   5.790   1.213
 2130SOL    HW2 8223   2.201   5.711   1.292
 2131SOL     OW 8224  13.327  14.732  13.586
 2131SOL    HW1 8225  13.418  14.752  13.608
 2131SOL    HW2 8226  13.288  14.817  13.567
 2132SOL     OW 8227   7.500   6.631   2.245
 2132SOL    HW1 8228   7.513   6.563   2.312
 2132SOL    HW2 8229   7.508   6.584   2.162
 2133SOL     OW 8230   8.426   0.907   0.500
 2133SOL    HW1 8231   8.471   0.946   0.575
 2133SOL    HW2 8232   8.365   0.844   0.539
 2134SOL     OW 8233   4.797  12.520   9.613
 2134SOL    HW1 8234   4.856  12.449   9.638
 2134SOL    HW2 8235   4.825  12.545   9.525
 2135SOL     OW 8236   7.962  14.842  11.058
 2135SOL    HW1 8237   7.876   0.002  11.037
 2135SOL    HW2 8238   7.946  14.782  11.132
 2136SOL     OW 8239   1.433  10.131   1.211
 2136SOL    HW1 8240   1.356  10.184   1.231
 2136SOL    HW2 8241   1.458  10.092   1.295
 2137SOL     OW 8242   8.357  14.510   4.931
 2137SOL    HW1 8243   8.426  14.487   4.993
 2137SOL    HW2 8244   8.395  14.495   4.845
 2138SOL     OW 8245   6.021   9.047   1.791
 2138SOL    HW1 8246   5.956   9.041   1.721
 2138SOL    HW2 8247   5.970   9.046   1.872
 2139SOL     OW 8248   9.329   3.895  10.589
 2139SOL    HW1 8249   9.396   3.961  10.575
 2139SOL    HW2 8250   9.250   3.933  10.550
 2140SOL     OW 8251   2.904  12.386  14.048
 2140SOL    HW1 8252   2.950  12.364  13.967
 2140SOL    HW2 8253   2.973  12.396  14.113
 2141SOL     OW 8254   8.715   4.661   6.846
 2141SOL    HW1 8255   8.731   4.744   6.801
 2141SOL    HW2 8256   8.621   4.646   6.836
 2142SOL     OW 8257   2.964   7.730  10.862
 2142SOL    HW1 8258   2.893   7.759  10.919
 2142SOL    HW2 8259   2.963   7.635  10.869
 2143SOL     OW 8260   6.225  12.740   7.339
 2143SOL    HW1 8261   6.190  12.669   7.285
 2143SOL    HW2 8262   6.164  12.745   7.413
 2144SOL     OW 8263   1.715   1.746  13.101
 2144SOL    HW1 8264   1.795   1.710  13.064
 2144SOL    HW2 8265   1.721   1.727  13.195
 2145SOL     OW 8266   5.063   3.728   1.061
 2145SOL    HW1 8267   5.055   3.700   0.970
 2145SOL    HW2 8268   5.157   3.740   1.074
 2146SOL     OW 8269  10.138   7.774  10.105
 2146SOL    HW1 8270  10.091   7.756  10.187
 2146SOL    HW2 8271  10.070   7.800  10.043
 2147SOL     OW 8272   8.554   8.219   6.817
 2147SOL    HW1 8273   8.486   8.243   6.880
 2147SOL    HW2 8274   8.557   8.291   6.755
 2148SOL     OW 8275   6.147   8.379  11.406
 2148SOL    HW1 8276   6.107   8.293  11.421
 2148SOL    HW2 8277   6.072   8.438  11.391
 2149SOL     OW 8278   4.500   2.973   8.296
 2149SOL    HW1 8279   4.594   2.955   8.292
 2149SOL    HW2 8280   4.495   3.066   8.320
 2150SOL     OW 8281   5.679   3.145   5.894
 2150SOL    HW1 8282   5.617   3.180   5.829
 2150SOL    HW2 8283   5.765   3.163   5.856
 2151SOL     OW 8284   8.881   4.987   4.004
 2151SOL    HW1 8285   8.960   4.941   4.033
 2151SOL    HW2 8286   8.868   4.958   3.913
 2152SOL     OW 8287  14.070  12.191   9.683
 2152SOL    HW1 8288  13.987  12.239   9.686
 2152SOL    HW2 8289  14.045  12.099   9.682
 2153SOL     OW 8290   2.086   2.313  12.331
 2153SOL    HW1 8291   2.154   2.248  12.348
 2153SOL    HW2 8292   2.118   2.393  12.372
 2154SOL     OW 8293   0.871   9.644  13.109
 2154SOL    HW1 8294   0.885   9.718  13.167
 2154SOL    HW2 8295   0.887   9.679  13.021
 2155SOL     OW 8296  12.989  14.525  14.649
 2155SOL    HW1 8297  13.050  14.503  14.720
 2155SOL    HW2 8298  12.990  14.449  14.592
 2156SOL     OW 8299  14.364   3.584   7.973
 2156SOL    HW1 8300  14.329   3.553   7.890
 2156SOL    HW2 8301  14.321   3.668   7.987
 2157SOL     OW 8302  12.147   9.778  14.828
 2157SOL    HW1 8303  12.086   9.707  14.845
 2157SOL    HW2 8304  12.154   9.783  14.733
 2158SOL     OW 8305   1.999   5.000   3.287
 2158SOL    HW1 8306   2.003   5.095   3.302
 2158SOL    HW2 8307   1.945   4.991   3.209
 2159SOL     OW 8308  11.481   2.874   9.682
 2159SOL    HW1 8309  11.577   2.878   9.687
 2159SOL    HW2 8310  11.455   2.957   9.642
 2160SOL     OW 8311   1.025   1.717  12.551
 2160SOL    HW1 8312   0.988   1.655  12.614
 2160SOL    HW2 8313   1.085   1.771  12.602
 2161SOL     OW 8314   3.056   4.498  10.038
 2161SOL    HW1 8315   3.112   4.488   9.962
 2161SOL    HW2 8316   2.969   4.515  10.002
 2162SOL     OW 8317   3.260   7.529   5.065
 2162SOL    HW1 8318   3.191   7.486   5.116
 2162SOL    HW2 8319   3.295   7.595   5.124
 2163SOL     OW 8320  10.546  13.050   8.936
 2163SOL    HW1 8321  10.618  13.003   8.894
 2163SOL    HW2 8322  10.541  13.013   9.024
 2164SOL     OW 8323   4.203  10.183   9.770
 2164SOL    HW1 8324   4.229  10.143   9.853
 2164SOL    HW2 8325   4.108  10.192   9.777
 2165SOL     OW 8326   9.652  13.677   8.846
 2165SOL    HW1 8327   9.590  13.712   8.909
 2165SOL    HW2 8328   9.637  13.582   8.847
 2166SOL     OW 8329  11.864   2.647   4.261
 2166SOL    HW1 8330  11.890   2.597   4.339
 2166SOL    HW2 8331  11.947   2.680   4.226
 2167SOL     OW 8332  13.639   2.290   5.314
 2167SOL    HW1 8333  13.719   2.244   5.342
 2167SOL    HW2 8334  13.662   2.383   5.320
 2168SOL     OW 8335  13.060   8.022  14.175
 2168SOL    HW1 8336  13.101   8.091  14.123
 2168SOL    HW2 8337  13.069   7.943  14.121
 2169SOL     OW 8338   2.739  10.381  13.642
 2169SOL    HW1 8339   2.658  10.337  13.617
 2169SOL    HW2 8340   2.759  10.438  13.568
 2170SOL     OW 8341  11.298  13.960   2.058
 2170SOL    HW1 8342  11.310  13.865   2.064
 2170SOL    HW2 8343  11.380  13.992   2.019
 2171SOL     OW 8344   3.715   3.998   3.205
 2171SOL    HW1 8345   3.700   3.954   3.288
 2171SOL    HW2 8346   3.803   3.970   3.178
 2172SOL     OW 8347   8.843   0.770   3.238
 2172SOL    HW1 8348   8.750   0.758   3.223
 2172SOL    HW2 8349   8.848   0.833   3.310
 2173SOL     OW 8350  12.036  10.486  12.251
 2173SOL    HW1 8351  12.023  10.462  12.343
 2173SOL    HW2 8352  11.969  10.437  12.204
 2174SOL     OW 8353   9.547   1.764   3.652
 2174SOL    HW1 8354   9.496   1.826   3.704
 2174SOL    HW2 8355   9.612   1.729   3.713
 2175SOL     OW 8356  14.176   8.854  10.256
 2175SOL    HW1 8357  14.225   8.892  10.183
 2175SOL    HW2 8358  14.204   8.905  10.332
 2176SOL     OW 8359   6.414   0.585   8.623
 2176SOL    HW1 8360   6.318   0.581   8.629
 2176SOL    HW2 8361   6.440   0.494   8.606
 2177SOL     OW 8362  11.314   2.080   9.247
 2177SOL    HW1 8363  11.337   2.101   9.157
 2177SOL    HW2 8364  11.293   2.164   9.287
 2178SOL     OW 8365   3.656   2.837  13.107
 2178SOL    HW1 8366   3.594   2.820  13.178
 2178SOL    HW2 8367   3.710   2.908  13.139
 2179SOL     OW 8368   3.622   1.004   9.539
 2179SOL    HW1 8369   3.610   1.082   9.593
 2179SOL    HW2 8370   3.580   0.934   9.588
 2180SOL     OW 8371  14.811   2.410   5.227
 2180SOL    HW1 8372  14.749   2.367   5.286
 2180SOL    HW2 8373  14.769   2.406   5.141
 2181SOL     OW 8374   7.222   8.659  14.092
 2181SOL    HW1 8375   7.263   8.651  14.006
 2181SOL    HW2 8376   7.250   8.581  14.140
 2182SOL     OW 8377  12.035   8.717   6.002
 2182SOL    HW1 8378  12.011   8.727   6.094
 2182SOL    HW2 8379  11.973   8.654   5.967
 2183SOL     OW 8380   3.281  12.349   2.843
 2183SOL    HW1 8381   3.331  12.303   2.911
 2183SOL    HW2 8382   3.286  12.441   2.869
 2184SOL     OW 8383   1.956   5.123   7.933
 2184SOL    HW1 8384   1.966   5.151   7.843
 2184SOL    HW2 8385   1.984   5.031   7.933
 2185SOL     OW 8386   7.945   5.969  11.944
 2185SOL    HW1 8387   7.853   5.994  11.958
 2185SOL    HW2 8388   7.953   5.959  11.850
 2186SOL     OW 8389   7.545   6.654   6.685
 2186SOL    HW1 8390   7.548   6.741   6.645
 2186SOL    HW2 8391   7.508   6.668   6.772
 2187SOL     OW 8392   4.753   5.274   2.084
 2187SOL    HW1 8393   4.692   5.206   2.057
 2187SOL    HW2 8394   4.783   5.314   2.002
 2188SOL     OW 8395   1.680   1.267   2.660
 2188SOL    HW1 8396   1.591   1.235   2.675
 2188SOL    HW2 8397   1.733   1.187   2.652
 2189SOL     OW 8398   4.993   4.853   9.922
 2189SOL    HW1 8399   4.985   4.759   9.910
 2189SOL    HW2 8400   4.922   4.875   9.982
 2190SOL     OW 8401   4.849  13.016   6.347
 2190SOL    HW1 8402   4.848  13.112   6.349
 2190SOL    HW2 8403   4.863  12.990   6.438
 2191SOL     OW 8404   0.321   1.095  10.369
 2191SOL    HW1 8405   0.296   1.176  10.325
 2191SOL    HW2 8406   0.341   1.122  10.459
 2192SOL     OW 8407   1.971   5.681   6.919
 2192SOL    HW1 8408   2.026   5.680   6.997
 2192SOL    HW2 8409   2.011   5.617   6.860
 2193SOL     OW 8410   6.038  12.402   9.010
 2193SOL    HW1 8411   6.114  12.351   9.039
 2193SOL    HW2 8412   6.007  12.446   9.089
 2194SOL     OW 8413   7.113   0.663  11.164
 2194SOL    HW1 8414   7.046   0.689  11.100
 2194SOL    HW2 8415   7.179   0.618  11.112
 2195SOL     OW 8416   0.463  10.537  11.970
 2195SOL    HW1 8417   0.440  10.630  11.967
 2195SOL    HW2 8418   0.405  10.501  12.037
 2196SOL     OW 8419   7.034  10.754   0.933
 2196SOL    HW1 8420   6.959  10.720   0.884
 2196SOL    HW2 8421   7.101  10.685   0.926
 2197SOL     OW 8422   8.420  12.449  12.710
 2197SOL    HW1 8423   8.431  12.468  12.617
 2197SOL    HW2 8424   8.338  12.400  12.716
 2198SOL     OW 8425   5.932   3.506  12.837
 2198SOL    HW1 8426   6.023   3.532  12.826
 2198SOL    HW2 8427   5.886   3.548  12.764
 2199SOL     OW 8428   7.057   6.655  13.744
 2199SOL    HW1 8429   7.079   6.676  13.654
 2199SOL    HW2 8430   7.058   6.559  13.748
 2200SOL     OW 8431   5.356  14.625   1.471
 2200SOL    HW1 8432   5.322  14.537   1.491
 2200SOL    HW2 8433   5.307  14.683   1.530
 2201SOL     OW 8434   5.617   3.471   4.486
 2201SOL    HW1 8435   5.684   3.426   4.435
 2201SOL    HW2 8436   5.568   3.523   4.421
 2202SOL     OW 8437  14.701   8.494  10.300
 2202SOL    HW1 8438  14.785   8.522  10.265
 2202SOL    HW2 8439  14.681   8.559  10.367
 2203SOL     OW 8440  10.716  14.237  10.424
 2203SOL    HW1 8441  10.726  14.326  10.458
 2203SOL    HW2 8442  10.775  14.184  10.478
 2204SOL     OW 8443  13.759   0.435   7.664
 2204SOL    HW1 8444  13.791   0.365   7.607
 2204SOL    HW2 8445  13.692   0.479   7.613
 2205SOL     OW 8446  14.117  10.919   9.189
 2205SOL    HW1 8447  14.168  10.951   9.115
 2205SOL    HW2 8448  14.095  10.998   9.239
 2206SOL     OW 8449   3.391   4.489   8.798
 2206SOL    HW1 8450   3.479   4.453   8.800
 2206SOL    HW2 8451   3.349   4.445   8.724
 2207SOL     OW 8452  10.302  12.550   1.502
 2207SOL    HW1 8453  10.367  12.573   1.569
 2207SOL    HW2 8454  10.297  12.627   1.445
 2208SOL     OW 8455   7.735  11.992  11.386
 2208SOL    HW1 8456   7.762  11.901  11.375
 2208SOL    HW2 8457   7.641  11.993  11.369
 2209SOL     OW 8458   6.047  12.597  13.241
 2209SOL    HW1 8459   6.133  12.603  13.200
 2209SOL    HW2 8460   6.062  12.619  13.333
 2210SOL     OW 8461  13.804   2.607   2.777
 2210SOL    HW1 8462  13.795   2.682   2.718
 2210SOL    HW2 8463  13.724   2.557   2.764
 2211SOL     OW 8464   8.570   0.969   8.051
 2211SOL    HW1 8465   8.581   0.889   8.102
 2211SOL    HW2 8466   8.641   0.968   7.987
 2212SOL     OW 8467  13.387   9.898   8.033
 2212SOL    HW1 8468  13.411   9.914   7.942
 2212SOL    HW2 8469  13.294   9.918   8.038
 2213SOL     OW 8470  13.413   7.434   8.868
 2213SOL    HW1 8471  13.429   7.474   8.953
 2213SOL    HW2 8472  13.417   7.339   8.884
 2214SOL     OW 8473  14.077   9.497   9.943
 2214SOL    HW1 8474  14.046   9.433  10.007
 2214SOL    HW2 8475  14.132   9.557   9.993
 2215SOL     OW 8476   4.821   5.408   7.498
 2215SOL    HW1 8477   4.791   5.453   7.577
 2215SOL    HW2 8478   4.809   5.315   7.517
 2216SOL     OW 8479   5.798   0.013   8.273
 2216SOL    HW1 8480   5.719   0.066   8.278
 2216SOL    HW2 8481   5.766  14.799   8.266
 2217SOL     OW 8482   1.559   0.895   5.485
 2217SOL    HW1 8483   1.639   0.870   5.530
 2217SOL    HW2 8484   1.501   0.820   5.495
 2218SOL     OW 8485   9.135   2.615   6.708
 2218SOL    HW1 8486   9.220   2.604   6.751
 2218SOL    HW2 8487   9.073   2.624   6.781
 2219SOL     OW 8488   8.997   3.555  10.263
 2219SOL    HW1 8489   8.978   3.621  10.329
 2219SOL    HW2 8490   8.963   3.593  10.181
 2220SOL     OW 8491   0.490   2.583   1.545
 2220SOL    HW1 8492   0.529   2.528   1.612
 2220SOL    HW2 8493   0.398   2.557   1.543
 2221SOL     OW 8494  12.387   1.964   2.350
 2221SOL    HW1 8495  12.351   2.052   2.352
 2221SOL    HW2 8496  12.393   1.938   2.442
 2222SOL     OW 8497   7.617   0.993   2.299
 2222SOL    HW1 8498   7.664   0.930   2.354
 2222SOL    HW2 8499   7.542   1.020   2.352
 2223SOL     OW 8500   5.437  11.486  12.170
 2223SOL    HW1 8501   5.461  11.578  12.180
 2223SOL    HW2 8502   5.496  11.453  12.103
 2224SOL     OW 8503  11.859   7.277  11.127
 2224SOL    HW1 8504  11.881   7.363  11.092
 2224SOL    HW2 8505  11.769   7.286  11.157
 2225SOL     OW 8506  13.747   7.692   5.163
 2225SOL    HW1 8507  13.656   7.668   5.180
 2225SOL    HW2 8508  13.742   7.767   5.103
 2226SOL     OW 8509   1.247   2.457   6.603
 2226SOL    HW1 8510   1.180   2.424   6.543
 2226SOL    HW2 8511   1.328   2.419   6.571
 2227SOL     OW 8512   2.471   9.331   0.276
 2227SOL    HW1 8513   2.491   9.304   0.366
 2227SOL    HW2 8514   2.399   9.394   0.285
 2228SOL     OW 8515   5.080  10.626   1.823
 2228SOL    HW1 8516   5.018  10.684   1.778
 2228SOL    HW2 8517   5.112  10.567   1.755
 2229SOL     OW 8518  10.479   4.966   1.242
 2229SOL    HW1 8519  10.386   4.981   1.258
 2229SOL    HW2 8520  10.493   4.875   1.269
 2230SOL     OW 8521   0.074   0.057   3.790
 2230SOL    HW1 8522   0.029  14.852   3.814
 2230SOL    HW2 8523   0.147   0.064   3.851
 2231SOL     OW 8524   0.282   3.385  13.823
 2231SOL    HW1 8525   0.325   3.378  13.907
 2231SOL    HW2 8526   0.293   3.299  13.782
 2232SOL     OW 8527   9.530   1.080  11.289
 2232SOL    HW1 8528   9.602   1.132  11.253
 2232SOL    HW2 8529   9.523   1.109  11.380
 2233SOL     OW 8530   3.030   5.433   7.010
 2233SOL    HW1 8531   2.996   5.344   7.000
 2233SOL    HW2 8532   2.953   5.486   7.030
 2234SOL     OW 8533  14.075   6.478  12.043
 2234SOL    HW1 8534  13.984   6.499  12.024
 2234SOL    HW2 8535  14.073   6.432  12.127
 2235SOL     OW 8536  12.238   6.350  11.789
 2235SOL    HW1 8537  12.158   6.394  11.820
 2235SOL    HW2 8538  12.305   6.418  11.791
 2236SOL     OW 8539   0.521   4.722   1.226
 2236SOL    HW1 8540   0.472   4.640   1.217
 2236SOL    HW2 8541   0.466   4.788   1.183
 2237SOL     OW 8542   1.764   7.748   2.235
 2237SOL    HW1 8543   1.739   7.778   2.323
 2237SOL    HW2 8544   1.848   7.705   2.247
 2238SOL     OW 8545   0.727   9.456   5.682
 2238SOL    HW1 8546   0.755   9.390   5.618
 2238SOL    HW2 8547   0.786   9.443   5.756
 2239SOL     OW 8548   9.002   5.538  12.689
 2239SOL    HW1 8549   8.954   5.491  12.757
 2239SOL    HW2 8550   8.966   5.627  12.691
 2240SOL     OW 8551   7.245   4.987   1.352
 2240SOL    HW1 8552   7.166   5.031   1.383
 2240SOL    HW2 8553   7.249   5.006   1.258
 2241SOL     OW 8554   7.954   5.194  12.600
 2241SOL    HW1 8555   7.996   5.249  12.534
 2241SOL    HW2 8556   7.991   5.107  12.587
 2242SOL     OW 8557   3.436   2.871  10.456
 2242SOL    HW1 8558   3.454   2.786  10.497
 2242SOL    HW2 8559   3.373   2.851  10.387
 2243SOL     OW 8560   2.918  13.142   0.433
 2243SOL    HW1 8561   2.845  13.116   0.489
 2243SOL    HW2 8562   2.964  13.209   0.482
 2244SOL     OW 8563   1.393   3.500  10.227
 2244SOL    HW1 8564   1.362   3.574  10.280
 2244SOL    HW2 8565   1.362   3.519  10.139
 2245SOL     OW 8566  12.895   7.679   3.780
 2245SOL    HW1 8567  12.866   7.703   3.692
 2245SOL    HW2 8568  12.871   7.587   3.789
 2246SOL     OW 8569  12.694   9.884   9.651
 2246SOL    HW1 8570  12.707   9.802   9.604
 2246SOL    HW2 8571  12.753   9.947   9.609
 2247SOL     OW 8572   8.985   6.000   8.206
 2247SOL    HW1 8573   8.965   5.983   8.298
 2247SOL    HW2 8574   8.924   5.945   8.157
 2248SOL     OW 8575   2.176   2.953   3.415
 2248SOL    HW1 8576   2.224   2.879   3.451
 2248SOL    HW2 8577   2.239   2.997   3.357
 2249SOL     OW 8578   2.715  10.743   6.060
 2249SOL    HW1 8579   2.659  10.763   6.136
 2249SOL    HW2 8580   2.745  10.828   6.029
 2250SOL     OW 8581  13.428  14.773   7.369
 2250SOL    HW1 8582  13.416  14.684   7.335
 2250SOL    HW2 8583  13.522  14.790   7.360
 2251SOL     OW 8584   9.049   9.566   9.736
 2251SOL    HW1 8585   9.125   9.541   9.790
 2251SOL    HW2 8586   8.990   9.610   9.798
 2252SOL     OW 8587   6.889   3.043   2.699
 2252SOL    HW1 8588   6.853   2.972   2.752
 2252SOL    HW2 8589   6.893   3.118   2.759
 2253SOL     OW 8590  12.473   6.309  11.954
 2253SOL    HW1 8591  12.416   6.386  11.962
 2253SOL    HW2 8592  12.445   6.251  12.025
 2254SOL     OW 8593   7.713  12.092  11.729
 2254SOL    HW1 8594   7.784  12.128  11.782
 2254SOL    HW2 8595   7.754  12.069  11.646
 2255SOL     OW 8596   6.191   5.154   1.822
 2255SOL    HW1 8597   6.127   5.098   1.867
 2255SOL    HW2 8598   6.268   5.153   1.880
 2256SOL     OW 8599   5.636   0.818   6.430
 2256SOL    HW1 8600   5.718   0.811   6.380
 2256SOL    HW2 8601   5.567   0.809   6.364
 2257SOL     OW 8602  12.968  12.503  10.686
 2257SOL    HW1 8603  13.025  12.447  10.632
 2257SOL    HW2 8604  13.006  12.591  10.677
 2258SOL     OW 8605   2.725   9.476   3.791
 2258SOL    HW1 8606   2.771   9.394   3.810
 2258SOL    HW2 8607   2.726   9.523   3.875
 2259SOL     OW 8608   6.588  10.362   1.006
 2259SOL    HW1 8609   6.537  10.443   1.007
 2259SOL    HW2 8610   6.647  10.372   0.931
 2260SOL     OW 8611  11.222   4.064  12.712
 2260SOL    HW1 8612  11.181   3.984  12.744
 2260SOL    HW2 8613  11.228   4.052  12.617
 2261SOL     OW 8614   5.754   1.414   8.845
 2261SOL    HW1 8615   5.713   1.362   8.914
 2261SOL    HW2 8616   5.820   1.467   8.890
 2262SOL     OW 8617   3.300   5.441   8.480
 2262SOL    HW1 8618   3.275   5.402   8.564
 2262SOL    HW2 8619   3.393   5.459   8.489
 2263SOL     OW 8620   1.389   0.883   4.670
 2263SOL    HW1 8621   1.358   0.794   4.689
 2263SOL    HW2 8622   1.342   0.909   4.591
 2264SOL     OW 8623  10.045   3.913   7.167
 2264SOL    HW1 8624   9.998   3.995   7.151
 2264SOL    HW2 8625  10.046   3.904   7.262
 2265SOL     OW 8626   9.427   7.809   8.181
 2265SOL    HW1 8627   9.393   7.798   8.270
 2265SOL    HW2 8628   9.520   7.828   8.193
 2266SOL     OW 8629  13.494   7.465   6.356
 2266SOL    HW1 8630  13.415   7.416   6.333
 2266SOL    HW2 8631  13.557   7.442   6.287
 2267SOL     OW 8632   4.891   2.926   7.141
 2267SOL    HW1 8633   4.823   2.940   7.074
 2267SOL    HW2 8634   4.845   2.937   7.224
 2268SOL     OW 8635   1.595   8.913  13.285
 2268SOL    HW1 8636   1.502   8.938  13.283
 2268SOL    HW2 8637   1.624   8.935  13.373
 2269SOL     OW 8638  12.037  11.095   7.068
 2269SOL    HW1 8639  12.126  11.066   7.086
 2269SOL    HW2 8640  12.047  11.184   7.035
 2270SOL     OW 8641   1.019   0.810   3.699
 2270SOL    HW1 8642   0.935   0.763   3.706
 2270SOL    HW2 8643   1.044   0.828   3.790
 2271SOL     OW 8644  10.796   1.728   5.717
 2271SOL    HW1 8645  10.824   1.770   5.798
 2271SOL    HW2 8646  10.742   1.795   5.673
 2272SOL     OW 8647   0.420   8.846  10.159
 2272SOL    HW1 8648   0.325   8.846  10.155
 2272SOL    HW2 8649   0.442   8.779  10.224
 2273SOL     OW 8650   0.089  14.372  12.527
 2273SOL    HW1 8651   0.156  14.420  12.576
 2273SOL    HW2 8652   0.019  14.436  12.515
 2274SOL     OW 8653  12.973   7.950  11.179
 2274SOL    HW1 8654  13.056   7.934  11.134
 2274SOL    HW2 8655  12.995   7.948  11.272
 2275SOL     OW 8656  11.687   8.409   0.104
 2275SOL    HW1 8657  11.625   8.465   0.057
 2275SOL    HW2 8658  11.724   8.465   0.172
 2276SOL     OW 8659   9.593   4.320   3.217
 2276SOL    HW1 8660   9.612   4.394   3.159
 2276SOL    HW2 8661   9.672   4.309   3.269
 2277SOL     OW 8662  13.620   8.148   7.198
 2277SOL    HW1 8663  13.529   8.152   7.226
 2277SOL    HW2 8664  13.647   8.058   7.217
 2278SOL     OW 8665  12.319  12.411   2.251
 2278SOL    HW1 8666  12.231  12.443   2.271
 2278SOL    HW2 8667  12.368  12.490   2.228
 2279SOL     OW 8668   0.433   7.497   1.767
 2279SOL    HW1 8669   0.358   7.557   1.763
 2279SOL    HW2 8670   0.497   7.534   1.706
 2280SOL     OW 8671  13.891   6.705   9.200
 2280SOL    HW1 8672  13.858   6.629   9.247
 2280SOL    HW2 8673  13.817   6.733   9.145
 2281SOL     OW 8674  13.019  11.348   1.447
 2281SOL    HW1 8675  13.078  11.407   1.401
 2281SOL    HW2 8676  12.980  11.402   1.516
 2282SOL     OW 8677   3.575   6.738   0.732
 2282SOL    HW1 8678   3.543   6.826   0.711
 2282SOL    HW2 8679   3.497   6.683   0.729
 2283SOL     OW 8680  13.922  13.838   3.363
 2283SOL    HW1 8681  13.974  13.785   3.424
 2283SOL    HW2 8682  13.988  13.879   3.306
 2284SOL     OW 8683   3.492  13.401  12.574
 2284SOL    HW1 8684   3.515  13.336  12.639
 2284SOL    HW2 8685   3.519  13.484  12.612
 2285SOL     OW 8686   4.872   3.340   5.180
 2285SOL    HW1 8687   4.916   3.288   5.113
 2285SOL    HW2 8688   4.940   3.396   5.216
 2286SOL     OW 8689  10.517  14.536   3.680
 2286SOL    HW1 8690  10.572  14.526   3.758
 2286SOL    HW2 8691  10.569  14.590   3.621
 2287SOL     OW 8692  13.151   3.305   7.550
 2287SOL    HW1 8693  13.072   3.262   7.583
 2287SOL    HW2 8694  13.217   3.290   7.618
 2288SOL     OW 8695   6.157   4.678   8.132
 2288SOL    HW1 8696   6.198   4.689   8.046
 2288SOL    HW2 8697   6.088   4.743   8.134
 2289SOL     OW 8698  13.830   8.879   0.340
 2289SOL    HW1 8699  13.736   8.868   0.327
 2289SOL    HW2 8700  13.865   8.790   0.340
 2290SOL     OW 8701   4.816   4.741  11.105
 2290SOL    HW1 8702   4.804   4.814  11.166
 2290SOL    HW2 8703   4.828   4.782  11.020
 2291SOL     OW 8704  11.594   4.158  13.976
 2291SOL    HW1 8705  11.507   4.146  13.939
 2291SOL    HW2 8706  11.602   4.253  13.988
 2292SOL     OW 8707   1.122  14.675   7.313
 2292SOL    HW1 8708   1.076  14.690   7.230
 2292SOL    HW2 8709   1.101  14.584   7.336
 2293SOL     OW 8710  14.387  12.991   0.260
 2293SOL    HW1 8711  14.407  12.975   0.168
 2293SOL    HW2 8712  14.423  12.916   0.306
 2294SOL     OW 8713   7.363   8.481  10.235
 2294SOL    HW1 8714   7.281   8.486  10.284
 2294SOL    HW2 8715   7.431   8.488  10.302
 2295SOL     OW 8716  13.621   2.015   2.333
 2295SOL    HW1 8717  13.539   1.979   2.367
 2295SOL    HW2 8718  13.598   2.052   2.248
 2296SOL     OW 8719   3.540   4.457   0.870
 2296SOL    HW1 8720   3.460   4.408   0.892
 2296SOL    HW2 8721   3.598   4.391   0.832
 2297SOL     OW 8722   1.438   8.015   1.666
 2297SOL    HW1 8723   1.443   8.098   1.618
 2297SOL    HW2 8724   1.413   7.951   1.600
 2298SOL     OW 8725   7.909   6.644   2.752
 2298SOL    HW1 8726   7.819   6.666   2.775
 2298SOL    HW2 8727   7.962   6.713   2.792
 2299SOL     OW 8728  14.755  13.508   5.199
 2299SOL    HW1 8729  14.849  13.527   5.188
 2299SOL    HW2 8730  14.745  13.418   5.168
 2300SOL     OW 8731   3.211   7.331   3.450
 2300SOL    HW1 8732   3.287   7.376   3.490
 2300SOL    HW2 8733   3.173   7.281   3.523
 2301SOL     OW 8734  12.229  12.931  11.891
 2301SOL    HW1 8735  12.239  13.009  11.946
 2301SOL    HW2 8736  12.154  12.885  11.928
 2302SOL     OW 8737  14.260  11.276  10.533
 2302SOL    HW1 8738  14.255  11.362  10.574
 2302SOL    HW2 8739  14.348  11.272  10.494
 2303SOL     OW 8740  10.635   3.059  11.787
 2303SOL    HW1 8741  10.620   3.085  11.696
 2303SOL    HW2 8742  10.699   3.122  11.820
 2304SOL     OW 8743  14.531  13.639   1.180
 2304SOL    HW1 8744  14.517  13.728   1.211
 2304SOL    HW2 8745  14.560  13.590   1.257
 2305SOL     OW 8746   2.774   7.607   0.180
 2305SOL    HW1 8747   2.798   7.606   0.087
 2305SOL    HW2 8748   2.720   7.529   0.192
 2306SOL     OW 8749   0.869   4.465   9.273
 2306SOL    HW1 8750   0.884   4.462   9.368
 2306SOL    HW2 8751   0.932   4.403   9.237
 2307SOL     OW 8752   9.327  10.555   2.924
 2307SOL    HW1 8753   9.276  10.543   3.005
 2307SOL    HW2 8754   9.393  10.486   2.928
 2308SOL     OW 8755   7.728   9.953   5.317
 2308SOL    HW1 8756   7.663   9.965   5.385
 2308SOL    HW2 8757   7.758  10.041   5.296
 2309SOL     OW 8758   1.044   8.689  12.444
 2309SOL    HW1 8759   1.111   8.682  12.512
 2309SOL    HW2 8760   1.018   8.598  12.426
 2310SOL     OW 8761  12.656   2.322   4.191
 2310SOL    HW1 8762  12.711   2.380   4.139
 2310SOL    HW2 8763  12.716   2.281   4.253
 2311SOL     OW 8764  13.295   9.850  13.548
 2311SOL    HW1 8765  13.346   9.855  13.467
 2311SOL    HW2 8766  13.234   9.923  13.543
 2312SOL     OW 8767   8.297  11.229   0.703
 2312SOL    HW1 8768   8.259  11.241   0.791
 2312SOL    HW2 8769   8.221  11.227   0.645
 2313SOL     OW 8770  13.619   8.859  14.543
 2313SOL    HW1 8771  13.634   8.856  14.449
 2313SOL    HW2 8772  13.557   8.788  14.560
 2314SOL     OW 8773   2.180   3.335   1.291
 2314SOL    HW1 8774   2.255   3.379   1.250
 2314SOL    HW2 8775   2.157   3.265   1.230
 2315SOL     OW 8776  11.080   7.655  10.150
 2315SOL    HW1 8777  11.134   7.576  10.155
 2315SOL    HW2 8778  11.127   7.712  10.089
 2316SOL     OW 8779   5.262  14.385  14.090
 2316SOL    HW1 8780   5.315  14.389  14.010
 2316SOL    HW2 8781   5.203  14.459  14.084
 2317SOL     OW 8782   4.044   1.007   1.849
 2317SOL    HW1 8783   4.031   0.919   1.814
 2317SOL    HW2 8784   3.956   1.042   1.858
 2318SOL     OW 8785   7.399  11.866   9.435
 2318SOL    HW1 8786   7.343  11.938   9.464
 2318SOL    HW2 8787   7.355  11.787   9.465
 2319SOL     OW 8788   1.322  10.977   0.613
 2319SOL    HW1 8789   1.396  11.001   0.669
 2319SOL    HW2 8790   1.258  11.047   0.627
 2320SOL     OW 8791   5.485  10.111   1.072
 2320SOL    HW1 8792   5.527  10.045   1.017
 2320SOL    HW2 8793   5.535  10.109   1.154
 2321SOL     OW 8794  10.031  10.691   1.709
 2321SOL    HW1 8795  10.056  10.773   1.667
 2321SOL    HW2 8796  10.048  10.624   1.643
 2322SOL     OW 8797   9.321   9.289   9.683
 2322SOL    HW1 8798   9.303   9.381   9.661
 2322SOL    HW2 8799   9.260   9.269   9.754
 2323SOL     OW 8800   2.059   3.881   2.197
 2323SOL    HW1 8801   2.052   3.800   2.248
 2323SOL    HW2 8802   2.135   3.926   2.233
 2324SOL     OW 8803   1.714   3.165   0.744
 2324SOL    HW1 8804   1.810   3.169   0.744
 2324SOL    HW2 8805   1.693   3.101   0.676
 2325SOL     OW 8806   8.310  13.188  12.121
 2325SOL    HW1 8807   8.242  13.197  12.054
 2325SOL    HW2 8808   8.292  13.104  12.163
 2326SOL     OW 8809   0.556   3.945   9.730
 2326SOL    HW1 8810   0.620   3.875   9.738
 2326SOL    HW2 8811   0.493   3.929   9.800
 2327SOL     OW 8812   5.178  11.854   0.821
 2327SOL    HW1 8813   5.176  11.872   0.915
 2327SOL    HW2 8814   5.170  11.759   0.814
 2328SOL     OW 8815   5.259  14.460  10.809
 2328SOL    HW1 8816   5.192  14.392  10.812
 2328SOL    HW2 8817   5.325  14.433  10.873
 2329SOL     OW 8818   2.408  10.424   5.829
 2329SOL    HW1 8819   2.369  10.400   5.746
 2329SOL    HW2 8820   2.481  10.482   5.806
 2330SOL     OW 8821  10.094   8.200  11.821
 2330SOL    HW1 8822  10.156   8.144  11.775
 2330SOL    HW2 8823  10.108   8.287  11.783
 2331SOL     OW 8824  12.483   9.896   6.168
 2331SOL    HW1 8825  12.535   9.975   6.180
 2331SOL    HW2 8826  12.397   9.928   6.141
 2332SOL     OW 8827  10.361   1.469  11.355
 2332SOL    HW1 8828  10.332   1.555  11.386
 2332SOL    HW2 8829  10.454   1.465  11.376
 2333SOL     OW 8830   2.917   7.614  12.954
 2333SOL    HW1 8831   3.009   7.595  12.973
 2333SOL    HW2 8832   2.880   7.529  12.930
 2334SOL     OW 8833   6.356   7.384   2.989
 2334SOL    HW1 8834   6.447   7.405   3.009
 2334SOL    HW2 8835   6.327   7.329   3.062
 2335SOL     OW 8836  10.053   5.474   3.491
 2335SOL    HW1 8837  10.001   5.543   3.532
 2335SOL    HW2 8838   9.996   5.396   3.496
 2336SOL     OW 8839   2.743   9.726   7.189
 2336SOL    HW1 8840   2.829   9.768   7.194
 2336SOL    HW2 8841   2.718   9.714   7.281
 2337SOL     OW 8842   4.798   9.628   5.912
 2337SOL    HW1 8843   4.762   9.601   5.828
 2337SOL    HW2 8844   4.891   9.603   5.908
 2338SOL     OW 8845   4.805  11.849   7.043
 2338SOL    HW1 8846   4.790  11.832   7.136
 2338SOL    HW2 8847   4.885  11.800   7.023
 2339SOL     OW 8848   8.536   1.738   2.344
 2339SOL    HW1 8849   8.467   1.804   2.349
 2339SOL    HW2 8850   8.610   1.776   2.391
 2340SOL     OW 8851   7.176   2.789  11.886
 2340SOL    HW1 8852   7.215   2.706  11.915
 2340SOL    HW2 8853   7.083   2.769  11.874
 2341SOL     OW 8854  13.676   8.750   5.666
 2341SOL    HW1 8855  13.604   8.718   5.612
 2341SOL    HW2 8856  13.736   8.792   5.603
 2342SOL     OW 8857  14.607   8.074   1.114
 2342SOL    HW1 8858  14.624   7.986   1.082
 2342SOL    HW2 8859  14.511   8.080   1.121
 2343SOL     OW 8860   6.777  14.808   8.284
 2343SOL    HW1 8861   6.815  14.756   8.213
 2343SOL    HW2 8862   6.843  14.875   8.303
 2344SOL     OW 8863  13.474  14.309   1.116
 2344SOL    HW1 8864  13.404  14.246   1.095
 2344SOL    HW2 8865  13.428  14.390   1.137
 2345SOL     OW 8866   1.658  14.333   8.542
 2345SOL    HW1 8867   1.720  14.403   8.524
 2345SOL    HW2 8868   1.591  14.343   8.474
 2346SOL     OW 8869   3.218   4.020   8.553
 2346SOL    HW1 8870   3.310   3.995   8.542
 2346SOL    HW2 8871   3.170   3.938   8.546
 2347SOL     OW 8872   8.279  12.245  11.043
 2347SOL    HW1 8873   8.335  12.179  11.083
 2347SOL    HW2 8874   8.268  12.312  11.111
 2348SOL     OW 8875   7.087   8.354   2.955
 2348SOL    HW1 8876   7.037   8.424   2.998
 2348SOL    HW2 8877   7.176   8.388   2.951
 2349SOL     OW 8878  14.195   1.238   7.369
 2349SOL    HW1 8879  14.224   1.170   7.309
 2349SOL    HW2 8880  14.161   1.308   7.311
 2350SOL     OW 8881   0.003   2.194   9.232
 2350SOL    HW1 8882  14.874   2.102   9.205
 2350SOL    HW2 8883  14.791   2.229   9.217
 2351SOL     OW 8884   7.714   0.854   9.348
 2351SOL    HW1 8885   7.730   0.863   9.254
 2351SOL    HW2 8886   7.629   0.810   9.354
 2352SOL     OW 8887   6.944  10.363   8.717
 2352SOL    HW1 8888   6.961  10.288   8.775
 2352SOL    HW2 8889   6.881  10.329   8.653
 2353SOL     OW 8890  11.658   7.471   2.448
 2353SOL    HW1 8891  11.569   7.442   2.468
 2353SOL    HW2 8892  11.660   7.563   2.474
 2354SOL     OW 8893   9.703   6.285   9.143
 2354SOL    HW1 8894   9.777   6.293   9.203
 2354SOL    HW2 8895   9.675   6.194   9.151
 2355SOL     OW 8896  13.130  13.445   6.047
 2355SOL    HW1 8897  13.161  13.526   6.007
 2355SOL    HW2 8898  13.052  13.422   5.998
 2356SOL     OW 8899  14.725   0.302  12.270
 2356SOL    HW1 8900  14.818   0.283  12.269
 2356SOL    HW2 8901  14.718   0.386  12.315
 2357SOL     OW 8902   5.471   1.050   4.436
 2357SOL    HW1 8903   5.566   1.059   4.431
 2357SOL    HW2 8904   5.454   0.957   4.418
 2358SOL     OW 8905  14.304   4.799   1.847
 2358SOL    HW1 8906  14.253   4.858   1.792
 2358SOL    HW2 8907  14.389   4.793   1.804
 2359SOL     OW 8908   9.027   7.653  12.185
 2359SOL    HW1 8909   8.979   7.596  12.244
 2359SOL    HW2 8910   9.119   7.642  12.211
 2360SOL     OW 8911   0.114   6.818   0.682
 2360SOL    HW1 8912   0.158   6.746   0.726
 2360SOL    HW2 8913   0.027   6.821   0.722
 2361SOL     OW 8914  13.537   1.372   7.486
 2361SOL    HW1 8915  13.488   1.299   7.525
 2361SOL    HW2 8916  13.552   1.344   7.395
 2362SOL     OW 8917   6.743   9.788  11.600
 2362SOL    HW1 8918   6.655   9.763  11.628
 2362SOL    HW2 8919   6.728   9.846  11.525
 2363SOL     OW 8920  12.617   5.767   8.341
 2363SOL    HW1 8921  12.540   5.727   8.381
 2363SOL    HW2 8922  12.588   5.792   8.253
 2364SOL     OW 8923  14.607   2.853   5.452
 2364SOL    HW1 8924  14.517   2.866   5.481
 2364SOL    HW2 8925  14.610   2.762   5.423
 2365SOL     OW 8926   8.695  11.964  14.192
 2365SOL    HW1 8927   8.651  11.992  14.272
 2365SOL    HW2 8928   8.678  12.034  14.129
 2366SOL     OW 8929   7.139   0.072   4.151
 2366SOL    HW1 8930   7.049   0.097   4.173
 2366SOL    HW2 8931   7.180   0.154   4.122
 2367SOL     OW 8932  10.380   3.711   4.572
 2367SOL    HW1 8933  10.324   3.765   4.517
 2367SOL    HW2 8934  10.322   3.644   4.607
 2368SOL     OW 8935  13.200   0.739   4.347
 2368SOL    HW1 8936  13.198   0.651   4.309
 2368SOL    HW2 8937  13.115   0.777   4.323
 2369SOL     OW 8938   5.139  10.728  10.760
 2369SOL    HW1 8939   5.109  10.805  10.712
 2369SOL    HW2 8940   5.234  10.729  10.750
 2370SOL     OW 8941   6.087   3.283   9.248
 2370SOL    HW1 8942   6.130   3.301   9.165
 2370SOL    HW2 8943   5.997   3.261   9.224
 2371SOL     OW 8944   6.007   8.847  12.259
 2371SOL    HW1 8945   6.088   8.823  12.303
 2371SOL    HW2 8946   6.032   8.858  12.167
 2372SOL     OW 8947   1.469   2.521   1.868
 2372SOL    HW1 8948   1.524   2.599   1.855
 2372SOL    HW2 8949   1.441   2.526   1.959
 2373SOL     OW 8950   3.510  10.854  13.284
 2373SOL    HW1 8951   3.548  10.872  13.198
 2373SOL    HW2 8952   3.581  10.871  13.346
 2374SOL     OW 8953   7.496  13.111   7.779
 2374SOL    HW1 8954   7.488  13.098   7.873
 2374SOL    HW2 8955   7.405  13.115   7.748
 2375SOL     OW 8956  13.772  14.034   4.240
 2375SOL    HW1 8957  13.765  14.049   4.146
 2375SOL    HW2 8958  13.857  13.991   4.251
 2376SOL     OW 8959   0.192  10.636   4.494
 2376SOL    HW1 8960   0.176  10.648   4.400
 2376SOL    HW2 8961   0.280  10.600   4.499
 2377SOL     OW 8962   4.904   5.777  14.114
 2377SOL    HW1 8963   4.924   5.849  14.054
 2377SOL    HW2 8964   4.948   5.701  14.075
 2378SOL     OW 8965  11.552   8.091  14.402
 2378SOL    HW1 8966  11.605   8.042  14.465
 2378SOL    HW2 8967  11.486   8.028  14.372
 2379SOL     OW 8968   2.850   1.902   1.689
 2379SOL    HW1 8969   2.888   1.951   1.616
 2379SOL    HW2 8970   2.825   1.969   1.752
 2380SOL     OW 8971  11.516  14.859  12.913
 2380SOL    HW1 8972  11.533  14.774  12.952
 2380SOL    HW2 8973  11.471   0.033  12.981
 2381SOL     OW 8974   7.517   0.222   1.336
 2381SOL    HW1 8975   7.433   0.177   1.348
 2381SOL    HW2 8976   7.551   0.188   1.253
 2382SOL     OW 8977  10.062  13.087   0.566
 2382SOL    HW1 8978   9.974  13.123   0.564
 2382SOL    HW2 8979  10.112  13.143   0.507
 2383SOL     OW 8980   4.595  12.902  14.463
 2383SOL    HW1 8981   4.687  12.912  14.488
 2383SOL    HW2 8982   4.579  12.808  14.472
 2384SOL     OW 8983  10.110   2.353  11.061
 2384SOL    HW1 8984  10.055   2.419  11.103
 2384SOL    HW2 8985  10.049   2.303  11.006
 2385SOL     OW 8986   4.853   4.690   2.561
 2385SOL    HW1 8987   4.909   4.669   2.635
 2385SOL    HW2 8988   4.858   4.613   2.504
 2386SOL     OW 8989   4.214  12.945  14.544
 2386SOL    HW1 8990   4.215  13.035  14.513
 2386SOL    HW2 8991   4.235  12.951  14.637
 2387SOL     OW 8992  11.555   3.559  12.525
 2387SOL    HW1 8993  11.595   3.488  12.475
 2387SOL    HW2 8994  11.584   3.544  12.615
 2388SOL     OW 8995   6.257   3.848   6.267
 2388SOL    HW1 8996   6.308   3.832   6.188
 2388SOL    HW2 8997   6.307   3.914   6.315
 2389SOL     OW 8998   3.889  12.476   8.353
 2389SOL    HW1 8999   3.863  12.445   8.440
 2389SOL    HW2 9000   3.812  12.463   8.298
 2390SOL     OW 9001   6.723   0.976   1.427
 2390SOL    HW1 9002   6.730   1.071   1.434
 2390SOL    HW2 9003   6.663   0.951   1.497
 2391SOL     OW 9004   9.721   9.596   5.645
 2391SOL    HW1 9005   9.640   9.646   5.649
 2391SOL    HW2 9006   9.787   9.659   5.619
 2392SOL     OW 9007  13.833   0.374  11.671
 2392SOL    HW1 9008  13.860   0.282  11.668
 2392SOL    HW2 9009  13.841   0.399  11.763
 2393SOL     OW 9010   9.966   8.151   2.186
 2393SOL    HW1 9011   9.965   8.074   2.242
 2393SOL    HW2 9012  10.050   8.194   2.206
 2394SOL     OW 9013   6.077   7.612  13.349
 2394SOL    HW1 9014   6.056   7.673  13.279
 2394SOL    HW2 9015   6.027   7.533  13.328
 2395SOL     OW 9016   4.869  14.286   4.587
 2395SOL    HW1 9017   4.817  14.220   4.631
 2395SOL    HW2 9018   4.953  14.243   4.570
 2396SOL     OW 9019   9.777   4.580   5.026
 2396SOL    HW1 9020   9.778   4.639   4.950
 2396SOL    HW2 9021   9.687   4.547   5.029
 2397SOL     OW 9022   5.171  11.658   5.092
 2397SOL    HW1 9023   5.207  11.584   5.044
 2397SOL    HW2 9024   5.239  11.725   5.089
 2398SOL     OW 9025   8.914  11.138   5.785
 2398SOL    HW1 9026   8.820  11.147   5.773
 2398SOL    HW2 9027   8.944  11.225   5.811
 2399SOL     OW 9028   1.431   7.244   7.613
 2399SOL    HW1 9029   1.359   7.301   7.586
 2399SOL    HW2 9030   1.460   7.280   7.697
 2400SOL     OW 9031   8.268   9.678  13.841
 2400SOL    HW1 9032   8.266   9.593  13.886
 2400SOL    HW2 9033   8.347   9.675  13.788
 2401SOL     OW 9034  13.420   0.803   2.741
 2401SOL    HW1 9035  13.346   0.856   2.772
 2401SOL    HW2 9036  13.479   0.798   2.816
 2402SOL     OW 9037   0.110   3.214   9.416
 2402SOL    HW1 9038   0.072   3.299   9.440
 2402SOL    HW2 9039   0.038   3.152   9.425
 2403SOL     OW 9040  13.115   0.755   2.088
 2403SOL    HW1 9041  13.193   0.708   2.059
 2403SOL    HW2 9042  13.102   0.727   2.179
 2404SOL     OW 9043  13.874  14.205  10.996
 2404SOL    HW1 9044  13.878  14.115  11.029
 2404SOL    HW2 9045  13.838  14.256  11.069
 2405SOL     OW 9046   3.376  12.148   0.140
 2405SOL    HW1 9047   3.461  12.171   0.103
 2405SOL    HW2 9048   3.377  12.052   0.146
 2406SOL     OW 9049   4.807   1.858  13.894
 2406SOL    HW1 9050   4.836   1.779  13.939
 2406SOL    HW2 9051   4.839   1.930  13.948
 2407SOL     OW 9052  14.608   9.071   9.221
 2407SOL    HW1 9053  14.534   9.066   9.160
 2407SOL    HW2 9054  14.659   9.146   9.191
 2408SOL     OW 9055   7.205  10.982   2.317
 2408SOL    HW1 9056   7.289  10.942   2.292
 2408SOL    HW2 9057   7.154  10.910   2.353
 2409SOL     OW 9058   5.956  11.035   9.229
 2409SOL    HW1 9059   5.909  11.101   9.279
 2409SOL    HW2 9060   5.912  11.033   9.144
 2410SOL     OW 9061   0.025   3.793   4.821
 2410SOL    HW1 9062   0.037   3.749   4.906
 2410SOL    HW2 9063   0.022   3.721   4.758
 2411SOL     OW 9064   9.926   1.284   2.359
 2411SOL    HW1 9065   9.916   1.263   2.266
 2411SOL    HW2 9066  10.008   1.334   2.364
 2412SOL     OW 9067  12.991   6.045   6.668
 2412SOL    HW1 9068  13.052   6.111   6.702
 2412SOL    HW2 9069  13.012   6.040   6.575
 2413SOL     OW 9070  12.931   6.360   6.851
 2413SOL    HW1 9071  12.883   6.287   6.810
 2413SOL    HW2 9072  12.920   6.433   6.791
 2414SOL     OW 9073  11.728   5.626   4.806
 2414SOL    HW1 9074  11.731   5.619   4.901
 2414SOL    HW2 9075  11.717   5.536   4.775
 2415SOL     OW 9076   1.265  13.799   5.260
 2415SOL    HW1 9077   1.193  13.861   5.267
 2415SOL    HW2 9078   1.224  13.717   5.232
 2416SOL     OW 9079   4.402  14.112   8.905
 2416SOL    HW1 9080   4.449  14.192   8.880
 2416SOL    HW2 9081   4.312  14.141   8.917
 2417SOL     OW 9082   6.941  10.564   6.726
 2417SOL    HW1 9083   6.852  10.561   6.694
 2417SOL    HW2 9084   6.961  10.657   6.734
 2418SOL     OW 9085  14.189   3.000   8.077
 2418SOL    HW1 9086  14.267   2.960   8.037
 2418SOL    HW2 9087  14.213   3.093   8.086
 2419SOL     OW 9088   8.753   4.536  13.070
 2419SOL    HW1 9089   8.722   4.626  13.055
 2419SOL    HW2 9090   8.843   4.547  13.101
 2420SOL     OW 9091  11.977   6.821  14.873
 2420SOL    HW1 9092  12.057   6.870   0.018
 2420SOL    HW2 9093  11.982   6.806  14.778
 2421SOL     OW 9094   3.002   5.448  13.048
 2421SOL    HW1 9095   2.955   5.454  13.131
 2421SOL    HW2 9096   3.022   5.538  13.025
 2422SOL     OW 9097   0.081   7.489   3.690
 2422SOL    HW1 9098   0.077   7.539   3.772
 2422SOL    HW2 9099  14.869   7.497   3.653
 2423SOL     OW 9100  14.735   2.530   9.030
 2423SOL    HW1 9101  14.642   2.533   9.051
 2423SOL    HW2 9102  14.779   2.557   9.111
 2424SOL     OW 9103  13.695  12.436  11.434
 2424SOL    HW1 9104  13.690  12.507  11.498
 2424SOL    HW2 9105  13.641  12.466  11.360
 2425SOL     OW 9106   1.626   0.510  12.818
 2425SOL    HW1 9107   1.589   0.422  12.807
 2425SOL    HW2 9108   1.669   0.528  12.734
 2426SOL     OW 9109  13.546   4.445  11.008
 2426SOL    HW1 9110  13.495   4.517  11.046
 2426SOL    HW2 9111  13.632   4.483  10.991
 2427SOL     OW 9112   8.160  14.428  11.147
 2427SOL    HW1 9113   8.242  14.441  11.100
 2427SOL    HW2 9114   8.148  14.333  11.149
 2428SOL     OW 9115  10.485   3.631   3.087
 2428SOL    HW1 9116  10.494   3.695   3.157
 2428SOL    HW2 9117  10.554   3.653   3.025
 2429SOL     OW 9118   8.029   5.372   1.894
 2429SOL    HW1 9119   8.099   5.421   1.851
 2429SOL    HW2 9120   7.957   5.373   1.832
 2430SOL     OW 9121   3.532   2.191  12.532
 2430SOL    HW1 9122   3.627   2.183  12.527
 2430SOL    HW2 9123   3.507   2.232  12.449
 2431SOL     OW 9124  12.906  10.074   2.081
 2431SOL    HW1 9125  12.908  10.073   1.985
 2431SOL    HW2 9126  12.993  10.103   2.107
 2432SOL     OW 9127  11.651   6.015   4.221
 2432SOL    HW1 9128  11.595   6.092   4.235
 2432SOL    HW2 9129  11.592   5.940   4.233
 2433SOL     OW 9130  11.263  10.614   6.908
 2433SOL    HW1 9131  11.262  10.524   6.940
 2433SOL    HW2 9132  11.255  10.606   6.813
 2434SOL     OW 9133   8.184   0.047  10.305
 2434SOL    HW1 9134   8.238  14.848  10.329
 2434SOL    HW2 9135   8.205   0.063  10.213
 2435SOL     OW 9136  14.166  12.530  11.747
 2435SOL    HW1 9137  14.075  12.512  11.769
 2435SOL    HW2 9138  14.207  12.553  11.831
 2436SOL     OW 9139  13.486  10.750   3.886
 2436SOL    HW1 9140  13.523  10.795   3.962
 2436SOL    HW2 9141  13.549  10.766   3.816
 2437SOL     OW 9142   9.505   0.975   4.896
 2437SOL    HW1 9143   9.410   0.982   4.885
 2437SOL    HW2 9144   9.517   0.901   4.956
 2438SOL     OW 9145   3.011   4.303  13.369
 2438SOL    HW1 9146   3.044   4.281  13.457
 2438SOL    HW2 9147   3.049   4.236  13.312
 2439SOL     OW 9148   8.981   7.224  13.067
 2439SOL    HW1 9149   8.944   7.296  13.016
 2439SOL    HW2 9150   8.908   7.193  13.121
 2440SOL     OW 9151   9.875   3.734   7.066
 2440SOL    HW1 9152   9.931   3.657   7.066
 2440SOL    HW2 9153   9.936   3.808   7.077
 2441SOL     OW 9154  12.036   0.773   5.983
 2441SOL    HW1 9155  12.033   0.867   5.999
 2441SOL    HW2 9156  11.968   0.757   5.918
 2442SOL     OW 9157  10.286   2.851  12.237
 2442SOL    HW1 9158  10.239   2.784  12.286
 2442SOL    HW2 9159  10.363   2.870  12.290
 2443SOL     OW 9160   3.598   2.859  13.642
 2443SOL    HW1 9161   3.567   2.779  13.599
 2443SOL    HW2 9162   3.681   2.835  13.682
 2444SOL     OW 9163   6.399   5.785   1.563
 2444SOL    HW1 9164   6.407   5.693   1.539
 2444SOL    HW2 9165   6.329   5.787   1.628
 2445SOL     OW 9166   0.123  12.758   7.284
 2445SOL    HW1 9167   0.167  12.723   7.361
 2445SOL    HW2 9168   0.111  12.682   7.227
 2446SOL     OW 9169  12.814   4.589  12.840
 2446SOL    HW1 9170  12.724   4.607  12.867
 2446SOL    HW2 9171  12.849   4.675  12.816
 2447SOL     OW 9172   0.384   4.682   7.669
 2447SOL    HW1 9173   0.382   4.617   7.598
 2447SOL    HW2 9174   0.292   4.706   7.681
 2448SOL     OW 9175  14.238   1.757   8.639
 2448SOL    HW1 9176  14.223   1.688   8.574
 2448SOL    HW2 9177  14.305   1.722   8.697
 2449SOL     OW 9178   4.722  12.340   2.126
 2449SOL    HW1 9179   4.678  12.266   2.167
 2449SOL    HW2 9180   4.672  12.357   2.047
 2450SOL     OW 9181  10.584   4.102   4.477
 2450SOL    HW1 9182  10.583   4.016   4.519
 2450SOL    HW2 9183  10.677   4.126   4.473
 2451SOL     OW 9184   1.656  13.067  12.285
 2451SOL    HW1 9185   1.560  13.070  12.289
 2451SOL    HW2 9186   1.678  13.125  12.212
 2452SOL     OW 9187   2.763   2.162   8.738
 2452SOL    HW1 9188   2.799   2.243   8.702
 2452SOL    HW2 9189   2.804   2.154   8.824
 2453SOL     OW 9190  10.364  14.777   0.017
 2453SOL    HW1 9191  10.403  14.854   0.060
 2453SOL    HW2 9192  10.308  14.738   0.084
 2454SOL     OW 9193   1.906   8.447   0.305
 2454SOL    HW1 9194   1.945   8.517   0.252
 2454SOL    HW2 9195   1.961   8.371   0.288
 2455SOL     OW 9196  14.081   3.281  10.722
 2455SOL    HW1 9197  13.986   3.292  10.729
 2455SOL    HW2 9198  14.117   3.342  10.786
 2456SOL     OW 9199   9.991   4.024   8.541
 2456SOL    HW1 9200  10.071   3.977   8.517
 2456SOL    HW2 9201  10.022   4.107   8.576
 2457SOL     OW 9202   6.526   9.524   6.976
 2457SOL    HW1 9203   6.497   9.553   7.062
 2457SOL    HW2 9204   6.507   9.430   6.975
 2458SOL     OW 9205  11.381   5.042   7.275
 2458SOL    HW1 9206  11.364   5.000   7.359
 2458SOL    HW2 9207  11.298   5.036   7.227
 2459SOL     OW 9208   4.881   3.081  11.236
 2459SOL    HW1 9209   4.868   3.004  11.290
 2459SOL    HW2 9210   4.846   3.154  11.287
 2460SOL     OW 9211  11.946  13.005   1.927
 2460SOL    HW1 9212  12.026  12.961   1.956
 2460SOL    HW2 9213  11.938  13.080   1.986
 2461SOL     OW 9214  10.349  12.498   9.575
 2461SOL    HW1 9215  10.357  12.519   9.482
 2461SOL    HW2 9216  10.315  12.579   9.615
 2462SOL     OW 9217   7.910   1.879   5.584
 2462SOL    HW1 9218   8.004   1.863   5.573
 2462SOL    HW2 9219   7.868   1.799   5.553
 2463SOL     OW 9220  12.768  14.752  11.884
 2463SOL    HW1 9221  12.771  14.660  11.856
 2463SOL    HW2 9222  12.849  14.764  11.934
 2464SOL     OW 9223  13.487   1.684   2.616
 2464SOL    HW1 9224  13.417   1.740   2.583
 2464SOL    HW2 9225  13.444   1.628   2.681
 2465SOL     OW 9226   6.219   3.339  12.858
 2465SOL    HW1 9227   6.310   3.313  12.874
 2465SOL    HW2 9228   6.208   3.419  12.909
 2466SOL     OW 9229   4.256  14.782   5.007
 2466SOL    HW1 9230   4.273  14.871   4.978
 2466SOL    HW2 9231   4.259  14.787   5.103
 2467SOL     OW 9232   5.616   8.371   7.237
 2467SOL    HW1 9233   5.697   8.340   7.197
 2467SOL    HW2 9234   5.560   8.294   7.242
 2468SOL     OW 9235   7.578   6.417  14.844
 2468SOL    HW1 9236   7.588   6.500  14.798
 2468SOL    HW2 9237   7.626   6.429   0.050
 2469SOL     OW 9238   1.770   1.445   6.664
 2469SOL    HW1 9239   1.811   1.530   6.649
 2469SOL    HW2 9240   1.691   1.446   6.611
 2470SOL     OW 9241   2.086   8.240  13.552
 2470SOL    HW1 9242   2.015   8.304  13.562
 2470SOL    HW2 9243   2.150   8.283  13.496
 2471SOL     OW 9244   4.133   8.311   5.817
 2471SOL    HW1 9245   4.108   8.258   5.742
 2471SOL    HW2 9246   4.099   8.263   5.893
 2472SOL     OW 9247   0.406   8.002   3.961
 2472SOL    HW1 9248   0.317   7.966   3.955
 2472SOL    HW2 9249   0.456   7.935   4.008
 2473SOL     OW 9250  10.692   6.122  11.608
 2473SOL    HW1 9251  10.708   6.130  11.702
 2473SOL    HW2 9252  10.598   6.110  11.601
 2474SOL     OW 9253   9.011   8.783  10.875
 2474SOL    HW1 9254   8.998   8.877  10.873
 2474SOL    HW2 9255   9.005   8.755  10.784
 2475SOL     OW 9256   1.837   6.579   6.942
 2475SOL    HW1 9257   1.876   6.491   6.942
 2475SOL    HW2 9258   1.811   6.594   7.033
 2476SOL     OW 9259   7.589   0.075   6.630
 2476SOL    HW1 9260   7.630  14.864   6.629
 2476SOL    HW2 9261   7.496   0.058   6.642
 2477SOL     OW 9262   9.796   1.447   7.480
 2477SOL    HW1 9263   9.790   1.493   7.396
 2477SOL    HW2 9264   9.716   1.394   7.485
 2478SOL     OW 9265  13.668   1.884   0.362
 2478SOL    HW1 9266  13.598   1.855   0.421
 2478SOL    HW2 9267  13.680   1.811   0.301
 2479SOL     OW 9268   9.740   3.505   5.666
 2479SOL    HW1 9269   9.787   3.586   5.685
 2479SOL    HW2 9270   9.743   3.455   5.747
 2480SOL     OW 9271  11.148  12.087   8.930
 2480SOL    HW1 9272  11.129  12.121   8.842
 2480SOL    HW2 9273  11.243  12.090   8.936
 2481SOL     OW 9274  10.749   7.864  13.337
 2481SOL    HW1 9275  10.830   7.852  13.386
 2481SOL    HW2 9276  10.755   7.952  13.301
 2482SOL     OW 9277  11.063  13.408  10.104
 2482SOL    HW1 9278  11.053  13.377  10.014
 2482SOL    HW2 9279  11.035  13.333  10.158
 2483SOL     OW 9280   3.223   1.602   4.152
 2483SOL    HW1 9281   3.238   1.693   4.177
 2483SOL    HW2 9282   3.204   1.558   4.235
 2484SOL     OW 9283   9.881   5.027   2.390
 2484SOL    HW1 9284   9.786   5.021   2.388
 2484SOL    HW2 9285   9.900   5.108   2.437
 2485SOL     OW 9286   3.466   1.939   2.933
 2485SOL    HW1 9287   3.421   2.022   2.913
 2485SOL    HW2 9288   3.439   1.880   2.862
 2486SOL     OW 9289  14.385  13.967   8.811
 2486SOL    HW1 9290  14.352  13.891   8.763
 2486SOL    HW2 9291  14.362  14.042   8.756
 2487SOL     OW 9292   5.376   5.193   7.407
 2487SOL    HW1 9293   5.377   5.287   7.427
 2487SOL    HW2 9294   5.301   5.159   7.455
 2488SOL     OW 9295  10.385   2.172   0.324
 2488SOL    HW1 9296  10.383   2.116   0.247
 2488SOL    HW2 9297  10.293   2.180   0.350
 2489SOL     OW 9298   9.986  14.825  12.033
 2489SOL    HW1 9299   9.951  14.746  12.075
 2489SOL    HW2 9300   9.944   0.022  12.079
 2490SOL     OW 9301   0.109   5.954   2.688
 2490SOL    HW1 9302   0.173   5.926   2.753
 2490SOL    HW2 9303   0.157   5.953   2.605
 2491SOL     OW 9304   0.903   8.483   6.404
 2491SOL    HW1 9305   0.824   8.517   6.361
 2491SOL    HW2 9306   0.923   8.546   6.472
 2492SOL     OW 9307   9.194   9.060   7.879
 2492SOL    HW1 9308   9.153   9.119   7.816
 2492SOL    HW2 9309   9.271   9.027   7.834
 2493SOL     OW 9310  13.069  10.623   2.594
 2493SOL    HW1 9311  13.074  10.690   2.661
 2493SOL    HW2 9312  13.045  10.670   2.514
 2494SOL     OW 9313  10.869   5.229   8.928
 2494SOL    HW1 9314  10.866   5.134   8.923
 2494SOL    HW2 9315  10.915   5.247   9.010
 2495SOL     OW 9316   8.248   8.667  10.727
 2495SOL    HW1 9317   8.264   8.585  10.774
 2495SOL    HW2 9318   8.154   8.683  10.740
 2496SOL     OW 9319  11.021   1.159  11.902
 2496SOL    HW1 9320  11.072   1.176  11.823
 2496SOL    HW2 9321  10.965   1.085  11.879
 2497SOL     OW 9322  10.588   4.054   5.657
 2497SOL    HW1 9323  10.501   4.041   5.697
 2497SOL    HW2 9324  10.624   3.965   5.650
 2498SOL     OW 9325   4.206   2.337   7.354
 2498SOL    HW1 9326   4.230   2.260   7.303
 2498SOL    HW2 9327   4.235   2.411   7.300
 2499SOL     OW 9328  13.886   0.788  14.344
 2499SOL    HW1 9329  13.857   0.776  14.434
 2499SOL    HW2 9330  13.966   0.839  14.351
 2500SOL     OW 9331   3.580   1.502  13.879
 2500SOL    HW1 9332   3.520   1.575  13.894
 2500SOL    HW2 9333   3.523   1.428  13.857
 2501SOL     OW 9334   4.481   3.934   4.440
 2501SOL    HW1 9335   4.430   3.941   4.360
 2501SOL    HW2 9336   4.418   3.948   4.510
 2502SOL     OW 9337   9.915   7.218   2.748
 2502SOL    HW1 9338  10.009   7.222   2.764
 2502SOL    HW2 9339   9.876   7.221   2.836
 2503SOL     OW 9340   7.303   5.706   7.075
 2503SOL    HW1 9341   7.238   5.774   7.092
 2503SOL    HW2 9342   7.356   5.741   7.003
 2504SOL     OW 9343  14.350   3.691   6.068
 2504SOL    HW1 9344  14.340   3.621   6.133
 2504SOL    HW2 9345  14.264   3.734   6.066
 2505SOL     OW 9346  12.232   0.789  13.867
 2505SOL    HW1 9347  12.209   0.825  13.953
 2505SOL    HW2 9348  12.248   0.867  13.813
 2506SOL     OW 9349  13.949   1.580   0.288
 2506SOL    HW1 9350  14.021   1.547   0.235
 2506SOL    HW2 9351  13.979   1.665   0.320
 2507SOL     OW 9352   9.230   4.470   6.938
 2507SOL    HW1 9353   9.303   4.494   6.880
 2507SOL    HW2 9354   9.256   4.502   7.024
 2508SOL     OW 9355   7.944   3.031  13.271
 2508SOL    HW1 9356   7.996   3.094  13.321
 2508SOL    HW2 9357   7.906   2.973  13.338
 2509SOL     OW 9358  12.188   3.581   0.673
 2509SOL    HW1 9359  12.266   3.526   0.682
 2509SOL    HW2 9360  12.171   3.585   0.579
 2510SOL     OW 9361   7.363  10.106  13.708
 2510SOL    HW1 9362   7.305  10.169  13.751
 2510SOL    HW2 9363   7.369  10.033  13.769
 2511SOL     OW 9364   6.694   3.922   2.047
 2511SOL    HW1 9365   6.744   3.852   2.088
 2511SOL    HW2 9366   6.749   3.952   1.975
 2512SOL     OW 9367   2.008  12.102   4.488
 2512SOL    HW1 9368   1.995  12.071   4.577
 2512SOL    HW2 9369   2.041  12.026   4.440
 2513SOL     OW 9370   1.657  12.575   0.838
 2513SOL    HW1 9371   1.730  12.574   0.899
 2513SOL    HW2 9372   1.666  12.658   0.791
 2514SOL     OW 9373   3.114   8.534  11.694
 2514SOL    HW1 9374   3.086   8.452  11.734
 2514SOL    HW2 9375   3.210   8.527  11.691
 2515SOL     OW 9376   5.975   2.966   0.814
 2515SOL    HW1 9377   6.036   3.040   0.805
 2515SOL    HW2 9378   6.032   2.891   0.831
 2516SOL     OW 9379   9.724   1.630  12.120
 2516SOL    HW1 9380   9.816   1.637  12.146
 2516SOL    HW2 9381   9.675   1.649  12.199
 2517SOL     OW 9382   6.120   6.473   4.025
 2517SOL    HW1 9383   6.137   6.404   4.089
 2517SOL    HW2 9384   6.027   6.461   4.002
 2518SOL     OW 9385  13.743   7.454   3.498
 2518SOL    HW1 9386  13.821   7.479   3.548
 2518SOL    HW2 9387  13.670   7.471   3.558
 2519SOL     OW 9388  10.572  10.444  14.769
 2519SOL    HW1 9389  10.625  10.368  14.793
 2519SOL    HW2 9390  10.590  10.458  14.676
 2520SOL     OW 9391   8.653   7.344   5.796
 2520SOL    HW1 9392   8.620   7.267   5.749
 2520SOL    HW2 9393   8.744   7.323   5.816
 2521SOL     OW 9394  14.573   4.646  10.614
 2521SOL    HW1 9395  14.619   4.580  10.563
 2521SOL    HW2 9396  14.581   4.726  10.563
 2522SOL     OW 9397  14.346   7.607  14.395
 2522SOL    HW1 9398  14.269   7.573  14.350
 2522SOL    HW2 9399  14.383   7.671  14.335
 2523SOL     OW 9400   9.910  13.207   7.699
 2523SOL    HW1 9401   9.947  13.292   7.723
 2523SOL    HW2 9402   9.851  13.226   7.626
 2524SOL     OW 9403  12.198   8.393  13.388
 2524SOL    HW1 9404  12.256   8.469  13.387
 2524SOL    HW2 9405  12.175   8.380  13.296
 2525SOL     OW 9406   4.486  11.316   7.951
 2525SOL    HW1 9407   4.419  11.314   8.020
 2525SOL    HW2 9408   4.559  11.363   7.991
 2526SOL     OW 9409  10.134  14.338   0.449
 2526SOL    HW1 9410  10.112  14.429   0.430
 2526SOL    HW2 9411  10.222  14.342   0.485
 2527SOL     OW 9412  12.550  12.528   6.198
 2527SOL    HW1 9413  12.624  12.550   6.142
 2527SOL    HW2 9414  12.482  12.498   6.138
 2528SOL     OW 9415   8.247   3.013  13.788
 2528SOL    HW1 9416   8.239   2.934  13.842
 2528SOL    HW2 9417   8.336   3.010  13.754
 2529SOL     OW 9418  14.178   6.239   1.858
 2529SOL    HW1 9419  14.206   6.322   1.894
 2529SOL    HW2 9420  14.257   6.201   1.819
 2530SOL     OW 9421  12.963   9.035  12.964
 2530SOL    HW1 9422  12.940   8.950  13.002
 2530SOL    HW2 9423  12.958   9.096  13.037
 2531SOL     OW 9424   3.394   6.291   0.397
 2531SOL    HW1 9425   3.480   6.276   0.436
 2531SOL    HW2 9426   3.341   6.217   0.426
 2532SOL     OW 9427   4.352   3.152  10.488
 2532SOL    HW1 9428   4.351   3.064  10.525
 2532SOL    HW2 9429   4.426   3.195  10.531
 2533SOL     OW 9430   3.680   8.728  10.847
 2533SOL    HW1 9431   3.698   8.802  10.789
 2533SOL    HW2 9432   3.766   8.697  10.875
 2534SOL     OW 9433  14.263  12.600   3.986
 2534SOL    HW1 9434  14.241  12.537   3.917
 2534SOL    HW2 9435  14.219  12.681   3.959
 2535SOL     OW 9436   4.014   4.782   6.532
 2535SOL    HW1 9437   4.090   4.817   6.486
 2535SOL    HW2 9438   3.950   4.853   6.530
 2536SOL     OW 9439  10.291  12.353   5.271
 2536SOL    HW1 9440  10.312  12.267   5.235
 2536SOL    HW2 9441  10.333  12.355   5.356
 2537SOL     OW 9442   1.653   9.127   2.055
 2537SOL    HW1 9443   1.578   9.078   2.089
 2537SOL    HW2 9444   1.615   9.191   1.995
 2538SOL     OW 9445  12.710   5.034   4.036
 2538SOL    HW1 9446  12.793   5.000   4.069
 2538SOL    HW2 9447  12.733   5.117   3.994
 2539SOL     OW 9448   9.851   9.745   8.273
 2539SOL    HW1 9449   9.890   9.686   8.209
 2539SOL    HW2 9450   9.909   9.738   8.350
 2540SOL     OW 9451   6.686  10.111   3.296
 2540SOL    HW1 9452   6.733  10.076   3.220
 2540SOL    HW2 9453   6.635  10.184   3.260
 2541SOL     OW 9454  12.367   4.766   3.408
 2541SOL    HW1 9455  12.356   4.860   3.417
 2541SOL    HW2 9456  12.314   4.729   3.479
 2542SOL     OW 9457   7.089   5.300  12.619
 2542SOL    HW1 9458   7.041   5.346  12.688
 2542SOL    HW2 9459   7.180   5.326  12.631
 2543SOL     OW 9460   9.121   1.870  10.484
 2543SOL    HW1 9461   9.120   1.928  10.560
 2543SOL    HW2 9462   9.055   1.906  10.426
 2544SOL     OW 9463   3.825  10.456  10.790
 2544SOL    HW1 9464   3.797  10.374  10.749
 2544SOL    HW2 9465   3.907  10.478  10.746
 2545SOL     OW 9466   1.406  13.636   5.000
 2545SOL    HW1 9467   1.359  13.570   5.051
 2545SOL    HW2 9468   1.495  13.600   4.992
 2546SOL     OW 9469   9.210   7.928   0.760
 2546SOL    HW1 9470   9.146   7.901   0.693
 2546SOL    HW2 9471   9.222   8.021   0.746
 2547SOL     OW 9472   2.837   7.583   2.469
 2547SOL    HW1 9473   2.756   7.589   2.419
 2547SOL    HW2 9474   2.843   7.491   2.496
 2548SOL     OW 9475  10.818   7.155   4.394
 2548SOL    HW1 9476  10.786   7.233   4.439
 2548SOL    HW2 9477  10.740   7.116   4.354
 2549SOL     OW 9478   2.851   7.280  14.495
 2549SOL    HW1 9479   2.890   7.358  14.455
 2549SOL    HW2 9480   2.888   7.276  14.583
 2550SOL     OW 9481   6.351  12.535  10.600
 2550SOL    HW1 9482   6.410  12.574  10.536
 2550SOL    HW2 9483   6.322  12.609  10.655
 2551SOL     OW 9484   9.371  11.514   2.519
 2551SOL    HW1 9485   9.314  11.584   2.487
 2551SOL    HW2 9486   9.432  11.557   2.579
 2552SOL     OW 9487   0.376   3.946  14.630
 2552SOL    HW1 9488   0.329   3.956  14.547
 2552SOL    HW2 9489   0.307   3.951  14.697
 2553SOL     OW 9490   5.088   3.134   0.897
 2553SOL    HW1 9491   5.180   3.109   0.894
 2553SOL    HW2 9492   5.045   3.062   0.944
 2554SOL     OW 9493   3.369  14.804   8.629
 2554SOL    HW1 9494   3.389   0.009   8.582
 2554SOL    HW2 9495   3.356  14.739   8.560
 2555SOL     OW 9496   6.365   1.184   3.042
 2555SOL    HW1 9497   6.386   1.252   2.977
 2555SOL    HW2 9498   6.446   1.135   3.053
 2556SOL     OW 9499  13.968  10.815   9.813
 2556SOL    HW1 9500  14.061  10.810   9.838
 2556SOL    HW2 9501  13.956  10.742   9.752
 2557SOL     OW 9502   7.342   3.535  12.216
 2557SOL    HW1 9503   7.315   3.566  12.130
 2557SOL    HW2 9504   7.300   3.595  12.278
 2558SOL     OW 9505  11.111  10.237   9.282
 2558SOL    HW1 9506  11.146  10.149   9.301
 2558SOL    HW2 9507  11.077  10.267   9.367
 2559SOL     OW 9508   4.957  10.478   5.220
 2559SOL    HW1 9509   5.037  10.444   5.180
 2559SOL    HW2 9510   4.970  10.465   5.314
 2560SOL     OW 9511  13.152   6.559   0.687
 2560SOL    HW1 9512  13.136   6.465   0.683
 2560SOL    HW2 9513  13.104   6.589   0.764
 2561SOL     OW 9514   3.304   1.917   4.469
 2561SOL    HW1 9515   3.340   2.000   4.438
 2561SOL    HW2 9516   3.270   1.875   4.390
 2562SOL     OW 9517   8.050  11.158   9.827
 2562SOL    HW1 9518   8.082  11.216   9.758
 2562SOL    HW2 9519   7.989  11.099   9.782
 2563SOL     OW 9520   5.289   0.387   9.062
 2563SOL    HW1 9521   5.257   0.441   9.134
 2563SOL    HW2 9522   5.384   0.400   9.063
 2564SOL     OW 9523  10.583   1.728   3.666
 2564SOL    HW1 9524  10.519   1.660   3.688
 2564SOL    HW2 9525  10.581   1.732   3.570
 2565SOL     OW 9526   3.498   8.133   1.890
 2565SOL    HW1 9527   3.525   8.203   1.950
 2565SOL    HW2 9528   3.570   8.125   1.828
 2566SOL     OW 9529   0.017   2.846   5.779
 2566SOL    HW1 9530   0.012   2.753   5.801
 2566SOL    HW2 9531  14.810   2.865   5.735
 2567SOL     OW 9532   6.323   8.383   6.993
 2567SOL    HW1 9533   6.352   8.327   7.065
 2567SOL    HW2 9534   6.258   8.330   6.946
 2568SOL     OW 9535   9.400   0.957  12.099
 2568SOL    HW1 9536   9.480   0.910  12.123
 2568SOL    HW2 9537   9.416   0.990  12.011
 2569SOL     OW 9538  12.539   1.819  14.641
 2569SOL    HW1 9539  12.608   1.822  14.708
 2569SOL    HW2 9540  12.522   1.911  14.621
 2570SOL     OW 9541  12.239   1.437  10.736
 2570SOL    HW1 9542  12.168   1.374  10.720
 2570SOL    HW2 9543  12.314   1.400  10.691
 2571SOL     OW 9544   8.652   5.284  12.753
 2571SOL    HW1 9545   8.567   5.250  12.782
 2571SOL    HW2 9546   8.665   5.245  12.667
 2572SOL     OW 9547   9.281  14.414  13.408
 2572SOL    HW1 9548   9.315  14.331  13.374
 2572SOL    HW2 9549   9.266  14.468  13.331
 2573SOL     OW 9550   9.525  12.705  10.616
 2573SOL    HW1 9551   9.488  12.663  10.693
 2573SOL    HW2 9552   9.490  12.655  10.542
 2574SOL     OW 9553   5.131   4.833  10.842
 2574SOL    HW1 9554   5.187   4.794  10.776
 2574SOL    HW2 9555   5.188   4.847  10.918
 2575SOL     OW 9556   9.013   6.208   5.008
 2575SOL    HW1 9557   8.917   6.207   5.001
 2575SOL    HW2 9558   9.038   6.293   4.974
 2576SOL     OW 9559   0.117  13.570  12.295
 2576SOL    HW1 9560   0.106  13.665  12.292
 2576SOL    HW2 9561   0.205  13.557  12.331
 2577SOL     OW 9562   4.729  13.041   3.532
 2577SOL    HW1 9563   4.797  12.990   3.489
 2577SOL    HW2 9564   4.659  12.978   3.549
 2578SOL     OW 9565   3.536   3.916   1.373
 2578SOL    HW1 9566   3.511   3.824   1.360
 2578SOL    HW2 9567   3.472   3.949   1.436
 2579SOL     OW 9568   2.325   1.032   1.126
 2579SOL    HW1 9569   2.273   0.978   1.185
 2579SOL    HW2 9570   2.320   0.988   1.041
 2580SOL     OW 9571   4.437   2.038   6.307
 2580SOL    HW1 9572   4.486   2.120   6.300
 2580SOL    HW2 9573   4.465   1.986   6.232
 2581SOL     OW 9574   6.221   3.484   9.405
 2581SOL    HW1 9575   6.177   3.412   9.359
 2581SOL    HW2 9576   6.298   3.503   9.352
 2582SOL     OW 9577   2.138  14.598  11.932
 2582SOL    HW1 9578   2.096  14.531  11.985
 2582SOL    HW2 9579   2.179  14.550  11.860
 2583SOL     OW 9580   2.526  11.765  11.227
 2583SOL    HW1 9581   2.481  11.848  11.211
 2583SOL    HW2 9582   2.508  11.712  11.149
 2584SOL     OW 9583   2.707   0.621  12.611
 2584SOL    HW1 9584   2.762   0.677  12.556
 2584SOL    HW2 9585   2.751   0.619  12.695
 2585SOL     OW 9586   3.577  10.181  14.770
 2585SOL    HW1 9587   3.573  10.151  14.861
 2585SOL    HW2 9588   3.491  10.158  14.735
 2586SOL     OW 9589   0.600   0.381   0.079
 2586SOL    HW1 9590   0.654   0.383   0.158
 2586SOL    HW2 9591   0.621   0.462   0.033
 2587SOL     OW 9592  13.716   5.257  14.491
 2587SOL    HW1 9593  13.656   5.228  14.559
 2587SOL    HW2 9594  13.800   5.217  14.513
 2588SOL     OW 9595   8.501   7.374   8.344
 2588SOL    HW1 9596   8.565   7.328   8.398
 2588SOL    HW2 9597   8.554   7.425   8.282
 2589SOL     OW 9598   6.311   5.596   5.936
 2589SOL    HW1 9599   6.348   5.513   5.905
 2589SOL    HW2 9600   6.225   5.601   5.895
 2590SOL     OW 9601   0.838  11.315  13.906
 2590SOL    HW1 9602   0.799  11.384  13.960
 2590SOL    HW2 9603   0.782  11.310  13.829
 2591SOL     OW 9604   4.362  13.736  12.577
 2591SOL    HW1 9605   4.335  13.697  12.494
 2591SOL    HW2 9606   4.403  13.819  12.553
 2592SOL     OW 9607   2.460   5.649   5.474
 2592SOL    HW1 9608   2.452   5.717   5.407
 2592SOL    HW2 9609   2.544   5.607   5.455
 2593SOL     OW 9610   9.145   8.251   1.961
 2593SOL    HW1 9611   9.153   8.293   2.047
 2593SOL    HW2 9612   9.222   8.195   1.956
 2594SOL     OW 9613   3.688   8.833   7.759
 2594SOL    HW1 9614   3.661   8.743   7.777
 2594SOL    HW2 9615   3.736   8.828   7.676
 2595SOL     OW 9616  13.731   1.623   9.116
 2595SOL    HW1 9617  13.738   1.537   9.075
 2595SOL    HW2 9618  13.661   1.667   9.067
 2596SOL     OW 9619  12.951   6.421  10.997
 2596SOL    HW1 9620  12.953   6.472  10.916
 2596SOL    HW2 9621  13.012   6.348  10.981
 2597SOL     OW 9622  14.225   2.304   6.184
 2597SOL    HW1 9623  14.268   2.244   6.123
 2597SOL    HW2 9624  14.171   2.361   6.129
 2598SOL     OW 9625   8.523  10.519  14.723
 2598SOL    HW1 9626   8.613  10.487  14.732
 2598SOL    HW2 9627   8.531  10.594  14.664
 2599SOL     OW 9628  11.409   9.766   9.144
 2599SOL    HW1 9629  11.365   9.704   9.202
 2599SOL    HW2 9630  11.494   9.727   9.126
 2600SOL     OW 9631   2.386   7.800  13.876
 2600SOL    HW1 9632   2.435   7.745  13.815
 2600SOL    HW2 9633   2.424   7.887  13.866
 2601SOL     OW 9634  13.315   8.959   4.078
 2601SOL    HW1 9635  13.308   8.898   4.005
 2601SOL    HW2 9636  13.339   9.042   4.037
 2602SOL     OW 9637   1.674  13.890   2.811
 2602SOL    HW1 9638   1.747  13.950   2.825
 2602SOL    HW2 9639   1.658  13.851   2.897
 2603SOL     OW 9640  14.122   3.077  14.346
 2603SOL    HW1 9641  14.145   3.044  14.433
 2603SOL    HW2 9642  14.027   3.089  14.350
 2604SOL     OW 9643   2.904   1.523   3.478
 2604SOL    HW1 9644   2.984   1.571   3.458
 2604SOL    HW2 9645   2.845   1.541   3.405
 2605SOL     OW 9646  14.298   2.787   7.441
 2605SOL    HW1 9647  14.389   2.806   7.421
 2605SOL    HW2 9648  14.247   2.844   7.384
 2606SOL     OW 9649   9.836   3.223   2.874
 2606SOL    HW1 9650   9.851   3.269   2.792
 2606SOL    HW2 9651   9.909   3.249   2.930
 2607SOL     OW 9652   9.414   0.245  14.273
 2607SOL    HW1 9653   9.438   0.307  14.342
 2607SOL    HW2 9654   9.476   0.263  14.202
 2608SOL     OW 9655  14.619   4.326  12.006
 2608SOL    HW1 9656  14.550   4.312  12.070
 2608SOL    HW2 9657  14.591   4.403  11.957
 2609SOL     OW 9658   2.712  14.800   0.097
 2609SOL    HW1 9659   2.683  14.805   0.188
 2609SOL    HW2 9660   2.808  14.796   0.103
 2610SOL     OW 9661  12.691   9.599  13.202
 2610SOL    HW1 9662  12.751   9.564  13.136
 2610SOL    HW2 9663  12.605   9.593  13.161
 2611SOL     OW 9664  12.577   6.992   4.952
 2611SOL    HW1 9665  12.563   7.084   4.927
 2611SOL    HW2 9666  12.490   6.952   4.943
 2612SOL     OW 9667   5.040   0.926   8.740
 2612SOL    HW1 9668   5.036   0.981   8.662
 2612SOL    HW2 9669   4.974   0.858   8.725
 2613SOL     OW 9670  13.276  10.682   8.389
 2613SOL    HW1 9671  13.239  10.596   8.367
 2613SOL    HW2 9672  13.214  10.745   8.351
 2614SOL     OW 9673   2.364   4.319  12.973
 2614SOL    HW1 9674   2.367   4.403  12.926
 2614SOL    HW2 9675   2.424   4.331  13.046
 2615SOL     OW 9676   2.386   9.534   7.109
 2615SOL    HW1 9677   2.452   9.549   7.042
 2615SOL    HW2 9678   2.353   9.446   7.092
 2616SOL     OW 9679  14.309   9.352   8.843
 2616SOL    HW1 9680  14.401   9.328   8.849
 2616SOL    HW2 9681  14.299   9.389   8.756
 2617SOL     OW 9682   5.310  11.767   2.621
 2617SOL    HW1 9683   5.398  11.775   2.586
 2617SOL    HW2 9684   5.271  11.853   2.608
 2618SOL     OW 9685  13.702  10.827  13.238
 2618SOL    HW1 9686  13.768  10.823  13.170
 2618SOL    HW2 9687  13.637  10.761  13.213
 2619SOL     OW 9688   2.612  13.637  10.108
 2619SOL    HW1 9689   2.573  13.723  10.123
 2619SOL    HW2 9690   2.537  13.579  10.097
 2620SOL     OW 9691   1.785  14.414   1.521
 2620SOL    HW1 9692   1.800  14.320   1.524
 2620SOL    HW2 9693   1.744  14.429   1.435
 2621SOL     OW 9694  10.934  13.864   1.761
 2621SOL    HW1 9695  11.028  13.878   1.752
 2621SOL    HW2 9696  10.924  13.817   1.844
 2622SOL     OW 9697   3.334   6.061   2.149
 2622SOL    HW1 9698   3.336   6.053   2.244
 2622SOL    HW2 9699   3.426   6.059   2.122
 2623SOL     OW 9700   8.474  14.206   5.881
 2623SOL    HW1 9701   8.563  14.187   5.911
 2623SOL    HW2 9702   8.485  14.278   5.818
 2624SOL     OW 9703   7.462  13.670   6.839
 2624SOL    HW1 9704   7.552  13.644   6.860
 2624SOL    HW2 9705   7.444  13.743   6.897
 2625SOL     OW 9706   4.281   4.813   7.099
 2625SOL    HW1 9707   4.213   4.752   7.128
 2625SOL    HW2 9708   4.271   4.890   7.154
 2626SOL     OW 9709   6.253  14.331   8.706
 2626SOL    HW1 9710   6.210  14.293   8.630
 2626SOL    HW2 9711   6.182  14.343   8.770
 2627SOL     OW 9712   5.132   1.598   9.265
 2627SOL    HW1 9713   5.125   1.503   9.257
 2627SOL    HW2 9714   5.063   1.632   9.208
 2628SOL     OW 9715  10.327  14.205  11.545
 2628SOL    HW1 9716  10.339  14.120  11.503
 2628SOL    HW2 9717  10.269  14.253  11.486
 2629SOL     OW 9718   6.733   4.483   7.829
 2629SOL    HW1 9719   6.732   4.489   7.924
 2629SOL    HW2 9720   6.816   4.441   7.808
 2630SOL     OW 9721   0.041   5.925  12.294
 2630SOL    HW1 9722   0.125   5.959  12.264
 2630SOL    HW2 9723   0.003   5.883  12.217
 2631SOL     OW 9724   9.964   6.867   3.883
 2631SOL    HW1 9725   9.989   6.897   3.970
 2631SOL    HW2 9726   9.906   6.792   3.899
 2632SOL     OW 9727   7.339   8.035   5.371
 2632SOL    HW1 9728   7.346   8.020   5.277
 2632SOL    HW2 9729   7.287   7.962   5.404
 2633SOL     OW 9730   1.774   5.018   0.432
 2633SOL    HW1 9731   1.694   4.966   0.429
 2633SOL    HW2 9732   1.837   4.962   0.476
 2634SOL     OW 9733   5.629  14.021   1.159
 2634SOL    HW1 9734   5.723  14.035   1.149
 2634SOL    HW2 9735   5.589  14.081   1.096
 2635SOL     OW 9736  13.341   6.633  12.763
 2635SOL    HW1 9737  13.415   6.693  12.765
 2635SOL    HW2 9738  13.353   6.577  12.840
 2636SOL     OW 9739   9.660   5.954   4.890
 2636SOL    HW1 9740   9.596   6.025   4.881
 2636SOL    HW2 9741   9.705   5.973   4.972
 2637SOL     OW 9742   4.869  14.115   5.167
 2637SOL    HW1 9743   4.930  14.073   5.228
 2637SOL    HW2 9744   4.925  14.160   5.104
 2638SOL     OW 9745   2.745  12.811   6.889
 2638SOL    HW1 9746   2.789  12.842   6.809
 2638SOL    HW2 9747   2.807  12.750   6.929
 2639SOL     OW 9748   0.022   3.450  13.800
 2639SOL    HW1 9749   0.116   3.436  13.813
 2639SOL    HW2 9750  14.863   3.462  13.888
 2640SOL     OW 9751  12.969  12.077  11.035
 2640SOL    HW1 9752  12.899  12.093  11.099
 2640SOL    HW2 9753  12.996  12.165  11.008
 2641SOL     OW 9754  10.628   1.940   6.590
 2641SOL    HW1 9755  10.673   1.913   6.670
 2641SOL    HW2 9756  10.612   1.859   6.542
 2642SOL     OW 9757  10.782   5.633  12.767
 2642SOL    HW1 9758  10.689   5.656  12.765
 2642SOL    HW2 9759  10.797   5.602  12.857
 2643SOL     OW 9760  12.579   7.076   0.634
 2643SOL    HW1 9761  12.659   7.035   0.668
 2643SOL    HW2 9762  12.513   7.058   0.701
 2644SOL     OW 9763  10.211   8.841   2.971
 2644SOL    HW1 9764  10.173   8.767   3.019
 2644SOL    HW2 9765  10.147   8.860   2.902
 2645SOL     OW 9766  14.426   6.485   8.253
 2645SOL    HW1 9767  14.393   6.455   8.338
 2645SOL    HW2 9768  14.359   6.457   8.190
 2646SOL     OW 9769   6.816  13.087   3.829
 2646SOL    HW1 9770   6.767  13.122   3.903
 2646SOL    HW2 9771   6.788  12.995   3.822
 2647SOL     OW 9772   0.257   5.009   4.057
 2647SOL    HW1 9773   0.284   5.070   4.125
 2647SOL    HW2 9774   0.339   4.970   4.027
 2648SOL     OW 9775   3.180  10.430   7.049
 2648SOL    HW1 9776   3.180  10.338   7.077
 2648SOL    HW2 9777   3.245  10.472   7.104
 2649SOL     OW 9778   3.839   1.601   4.175
 2649SOL    HW1 9779   3.912   1.539   4.171
 2649SOL    HW2 9780   3.786   1.570   4.248
 2650SOL     OW 9781  13.536   1.237   3.070
 2650SOL    HW1 9782  13.468   1.201   3.126
 2650SOL    HW2 9783  13.554   1.168   3.007
 2651SOL     OW 9784   8.017   0.723  13.229
 2651SOL    HW1 9785   8.067   0.685  13.157
 2651SOL    HW2 9786   8.027   0.661  13.301
 2652SOL     OW 9787   8.746  13.548   4.001
 2652SOL    HW1 9788   8.677  13.527   3.939
 2652SOL    HW2 9789   8.819  13.578   3.947
 2653SOL     OW 9790   2.234  14.531   8.750
 2653SOL    HW1 9791   2.204  14.507   8.838
 2653SOL    HW2 9792   2.161  14.508   8.693
 2654SOL     OW 9793   0.557   0.594  13.174
 2654SOL    HW1 9794   0.583   0.560  13.089
 2654SOL    HW2 9795   0.563   0.689  13.165
 2655SOL     OW 9796  13.334   4.192   1.850
 2655SOL    HW1 9797  13.284   4.252   1.906
 2655SOL    HW2 9798  13.326   4.230   1.762
 2656SOL     OW 9799   1.127   8.202   7.927
 2656SOL    HW1 9800   1.129   8.120   7.878
 2656SOL    HW2 9801   1.209   8.202   7.977
 2657SOL     OW 9802   9.973  10.154   2.836
 2657SOL    HW1 9803  10.037  10.161   2.907
 2657SOL    HW2 9804   9.898  10.110   2.876
 2658SOL     OW 9805  12.115  13.795  11.817
 2658SOL    HW1 9806  12.208  13.814  11.801
 2658SOL    HW2 9807  12.072  13.881  11.815
 2659SOL     OW 9808   0.744   5.991   4.789
 2659SOL    HW1 9809   0.745   6.014   4.697
 2659SOL    HW2 9810   0.772   6.071   4.834
 2660SOL     OW 9811  14.726   9.408  11.443
 2660SOL    HW1 9812  14.726   9.426  11.349
 2660SOL    HW2 9813  14.796   9.344  11.455
 2661SOL     OW 9814  11.818   9.836   8.223
 2661SOL    HW1 9815  11.879   9.888   8.274
 2661SOL    HW2 9816  11.872   9.796   8.155
 2662SOL     OW 9817   6.945   2.929  14.371
 2662SOL    HW1 9818   6.907   2.941  14.458
 2662SOL    HW2 9819   6.888   2.866  14.328
 2663SOL     OW 9820   1.447   4.635  10.631
 2663SOL    HW1 9821   1.537   4.626  10.600
 2663SOL    HW2 9822   1.455   4.646  10.726
 2664SOL     OW 9823   4.414   7.699   3.601
 2664SOL    HW1 9824   4.355   7.703   3.526
 2664SOL    HW2 9825   4.377   7.761   3.663
 2665SOL     OW 9826  11.546   0.036   1.139
 2665SOL    HW1 9827  11.559  14.828   1.183
 2665SOL    HW2 9828  11.629   0.082   1.150
 2666SOL     OW 9829   3.387  14.097  14.749
 2666SOL    HW1 9830   3.457  14.116  14.811
 2666SOL    HW2 9831   3.386  14.002  14.742
 2667SOL     OW 9832  13.877  10.339  12.352
 2667SOL    HW1 9833  13.820  10.316  12.279
 2667SOL    HW2 9834  13.911  10.426  12.330
 2668SOL     OW 9835   9.644  14.319   0.726
 2668SOL    HW1 9836   9.651  14.266   0.805
 2668SOL    HW2 9837   9.720  14.377   0.729
 2669SOL     OW 9838   9.014   6.067  13.659
 2669SOL    HW1 9839   8.959   6.065  13.737
 2669SOL    HW2 9840   8.970   6.008  13.597
 2670SOL     OW 9841  14.703   9.398  14.280
 2670SOL    HW1 9842  14.678   9.365  14.366
 2670SOL    HW2 9843  14.620   9.415  14.236
 2671SOL     OW 9844   1.549  14.122   7.014
 2671SOL    HW1 9845   1.547  14.166   7.099
 2671SOL    HW2 9846   1.460  14.135   6.979
 2672SOL     OW 9847   9.220   3.452   5.340
 2672SOL    HW1 9848   9.200   3.526   5.283
 2672SOL    HW2 9849   9.309   3.426   5.316
 2673SOL     OW 9850   3.282  11.620   8.016
 2673SOL    HW1 9851   3.284  11.707   8.057
 2673SOL    HW2 9852   3.316  11.561   8.083
 2674SOL     OW 9853   5.990  12.275   1.010
 2674SOL    HW1 9854   5.961  12.186   1.029
 2674SOL    HW2 9855   5.938  12.330   1.068
 2675SOL     OW 9856   7.992  11.367   3.668
 2675SOL    HW1 9857   7.928  11.313   3.622
 2675SOL    HW2 9858   7.940  11.430   3.717
 2676SOL     OW 9859   2.225   9.579   6.536
 2676SOL    HW1 9860   2.217   9.488   6.507
 2676SOL    HW2 9861   2.144   9.620   6.507
 2677SOL     OW 9862   8.036   5.921   7.395
 2677SOL    HW1 9863   7.993   5.849   7.440
 2677SOL    HW2 9864   8.084   5.880   7.324
 2678SOL     OW 9865  13.815  11.685  12.458
 2678SOL    HW1 9866  13.891  11.742  12.463
 2678SOL    HW2 9867  13.769  11.713  12.379
 2679SOL     OW 9868   1.938   2.707   9.129
 2679SOL    HW1 9869   2.030   2.729   9.137
 2679SOL    HW2 9870   1.892   2.791   9.135
 2680SOL     OW 9871  14.693   5.508   7.365
 2680SOL    HW1 9872  14.666   5.513   7.273
 2680SOL    HW2 9873  14.628   5.560   7.411
 2681SOL     OW 9874   8.440   2.598  13.109
 2681SOL    HW1 9875   8.346   2.596  13.094
 2681SOL    HW2 9876   8.477   2.542  13.040
 2682SOL     OW 9877  13.314   4.283  12.176
 2682SOL    HW1 9878  13.332   4.290  12.082
 2682SOL    HW2 9879  13.219   4.270  12.180
 2683SOL     OW 9880  11.337  14.760   0.404
 2683SOL    HW1 9881  11.423  14.729   0.375
 2683SOL    HW2 9882  11.351  14.851   0.429
 2684SOL     OW 9883  11.512   6.116   9.654
 2684SOL    HW1 9884  11.499   6.073   9.569
 2684SOL    HW2 9885  11.423   6.124   9.690
 2685SOL     OW 9886   2.911  10.978  14.194
 2685SOL    HW1 9887   2.989  10.950  14.146
 2685SOL    HW2 9888   2.943  11.041  14.259
 2686SOL     OW 9889  12.715  10.687   5.416
 2686SOL    HW1 9890  12.724  10.729   5.502
 2686SOL    HW2 9891  12.643  10.625   5.427
 2687SOL     OW 9892   3.888   7.206   1.068
 2687SOL    HW1 9893   3.915   7.294   1.045
 2687SOL    HW2 9894   3.877   7.207   1.163
 2688SOL     OW 9895  12.876   9.068   4.196
 2688SOL    HW1 9896  12.849   9.054   4.106
 2688SOL    HW2 9897  12.869   9.163   4.208
 2689SOL     OW 9898   3.307   7.843   5.477
 2689SOL    HW1 9899   3.387   7.818   5.523
 2689SOL    HW2 9900   3.237   7.801   5.526
 2690SOL     OW 9901   7.264   9.920  14.387
 2690SOL    HW1 9902   7.227   9.987  14.445
 2690SOL    HW2 9903   7.258   9.839  14.438
 2691SOL     OW 9904   7.139   3.625   8.768
 2691SOL    HW1 9905   7.127   3.567   8.693
 2691SOL    HW2 9906   7.214   3.680   8.744
 2692SOL     OW 9907   4.375   2.836  12.070
 2692SOL    HW1 9908   4.372   2.782  11.991
 2692SOL    HW2 9909   4.417   2.917  12.041
 2693SOL     OW 9910   0.082  13.237   6.169
 2693SOL    HW1 9911   0.050  13.224   6.258
 2693SOL    HW2 9912   0.034  13.313   6.137
 2694SOL     OW 9913   1.212   1.845  12.685
 2694SOL    HW1 9914   1.264   1.917  12.649
 2694SOL    HW2 9915   1.158   1.886  12.753
 2695SOL     OW 9916   8.451   9.852   5.286
 2695SOL    HW1 9917   8.355   9.846   5.291
 2695SOL    HW2 9918   8.467   9.936   5.243
 2696SOL     OW 9919  14.488  12.510   7.363
 2696SOL    HW1 9920  14.512  12.497   7.272
 2696SOL    HW2 9921  14.569  12.496   7.412
 2697SOL     OW 9922   7.496   4.106  12.446
 2697SOL    HW1 9923   7.515   4.144  12.360
 2697SOL    HW2 9924   7.570   4.132  12.501
 2698SOL     OW 9925   6.406   2.148   5.904
 2698SOL    HW1 9926   6.494   2.184   5.914
 2698SOL    HW2 9927   6.351   2.202   5.961
 2699SOL     OW 9928  14.587  12.209   0.573
 2699SOL    HW1 9929  14.627  12.205   0.659
 2699SOL    HW2 9930  14.601  12.299   0.544
 2700SOL     OW 9931  13.068  12.950  14.149
 2700SOL    HW1 9932  13.064  12.855  14.138
 2700SOL    HW2 9933  13.060  12.985  14.060
 2701SOL     OW 9934  10.711  12.543   2.107
 2701SOL    HW1 9935  10.731  12.483   2.179
 2701SOL    HW2 9936  10.657  12.491   2.047
 2702SOL     OW 9937  13.437   9.332  13.407
 2702SOL    HW1 9938  13.452   9.238  13.406
 2702SOL    HW2 9939  13.365   9.345  13.345
 2703SOL     OW 9940   6.125   2.472  12.156
 2703SOL    HW1 9941   6.149   2.494  12.246
 2703SOL    HW2 9942   6.064   2.541  12.130
 2704SOL     OW 9943   6.056   0.863   6.959
 2704SOL    HW1 9944   6.146   0.835   6.941
 2704SOL    HW2 9945   6.021   0.796   7.016
 2705SOL     OW 9946   2.177  10.709   9.835
 2705SOL    HW1 9947   2.200  10.753   9.917
 2705SOL    HW2 9948   2.260  10.674   9.803
 2706SOL     OW 9949   8.377  10.857   0.940
 2706SOL    HW1 9950   8.440  10.917   0.900
 2706SOL    HW2 9951   8.292  10.899   0.928
 2707SOL     OW 9952  12.422   3.104  10.507
 2707SOL    HW1 9953  12.420   3.112  10.603
 2707SOL    HW2 9954  12.418   3.010  10.491
 2708SOL     OW 9955   6.622   9.035   8.283
 2708SOL    HW1 9956   6.560   9.095   8.325
 2708SOL    HW2 9957   6.693   9.027   8.346
 2709SOL     OW 9958  14.257  10.391   3.206
 2709SOL    HW1 9959  14.331  10.418   3.261
 2709SOL    HW2 9960  14.245  10.298   3.226
 2710SOL     OW 9961   8.920   7.613   7.119
 2710SOL    HW1 9962   8.858   7.659   7.063
 2710SOL    HW2 9963   8.906   7.520   7.100
 2711SOL     OW 9964  10.785   5.575  11.818
 2711SOL    HW1 9965  10.738   5.512  11.873
 2711SOL    HW2 9966  10.720   5.644  11.801
 2712SOL     OW 9967  13.471   0.708   8.744
 2712SOL    HW1 9968  13.416   0.696   8.822
 2712SOL    HW2 9969  13.483   0.803   8.739
 2713SOL     OW 9970  13.562   7.866   1.263
 2713SOL    HW1 9971  13.630   7.807   1.230
 2713SOL    HW2 9972  13.493   7.807   1.295
 2714SOL     OW 9973   6.928   3.302   4.729
 2714SOL    HW1 9974   6.957   3.265   4.812
 2714SOL    HW2 9975   6.943   3.396   4.737
 2715SOL     OW 9976   6.241  11.684   0.078
 2715SOL    HW1 9977   6.214  11.594   0.061
 2715SOL    HW2 9978   6.180  11.714   0.145
 2716SOL     OW 9979   8.399   3.926  14.716
 2716SOL    HW1 9980   8.319   3.874  14.709
 2716SOL    HW2 9981   8.449   3.905  14.638
 2717SOL     OW 9982  11.658  13.469  10.835
 2717SOL    HW1 9983  11.679  13.375  10.837
 2717SOL    HW2 9984  11.625  13.488  10.922
 2718SOL     OW 9985   7.965  10.715   3.704
 2718SOL    HW1 9986   8.054  10.743   3.727
 2718SOL    HW2 9987   7.965  10.621   3.720
 2719SOL     OW 9988   8.197  11.824   3.689
 2719SOL    HW1 9989   8.117  11.817   3.636
 2719SOL    HW2 9990   8.255  11.878   3.636
 2720SOL     OW 9991  13.797   6.001   3.450
 2720SOL    HW1 9992  13.787   5.974   3.359
 2720SOL    HW2 9993  13.716   5.975   3.492
 2721SOL     OW 9994   1.322   4.095  13.884
 2721SOL    HW1 9995   1.228   4.089  13.871
 2721SOL    HW2 9996   1.356   4.010  13.854
 2722SOL     OW 9997   9.767   3.808  11.393
 2722SOL    HW1 9998   9.800   3.858  11.468
 2722SOL    HW2 9999   9.781   3.716  11.417
 2723SOL     OW10000   7.753   2.122   9.605
 2723SOL    HW110001   7.695   2.121   9.529
 2723SOL    HW210002   7.800   2.038   9.600
 2724SOL     OW10003  14.206   0.881  10.946
 2724SOL    HW110004  14.202   0.864  10.852
 2724SOL    HW210005  14.299   0.896  10.963
 2725SOL     OW10006  10.566   9.207  10.541
 2725SOL    HW110007  10.523   9.153  10.476
 2725SOL    HW210008  10.591   9.145  10.611
 2726SOL     OW10009   3.181   8.129  10.254
 2726SOL    HW110010   3.180   8.055  10.315
 2726SOL    HW210011   3.146   8.202  10.305
 2727SOL     OW10012  14.422   1.769   6.801
 2727SOL    HW110013  14.451   1.763   6.892
 2727SOL    HW210014  14.327   1.771   6.806
 2728SOL     OW10015  12.240   7.371  14.854
 2728SOL    HW110016  12.329   7.378  14.819
 2728SOL    HW210017  12.201   7.299  14.804
 2729SOL     OW10018   2.399  14.536  12.431
 2729SOL    HW110019   2.351  14.576  12.503
 2729SOL    HW210020   2.381  14.442  12.439
 2730SOL     OW10021   9.881   7.457   0.630
 2730SOL    HW110022   9.805   7.512   0.608
 2730SOL    HW210023   9.901   7.479   0.721
 2731SOL     OW10024  10.941   1.557   5.327
 2731SOL    HW110025  10.993   1.583   5.403
 2731SOL    HW210026  10.850   1.569   5.355
 2732SOL     OW10027   1.036  12.739   8.567
 2732SOL    HW110028   1.062  12.664   8.620
 2732SOL    HW210029   1.077  12.725   8.482
 2733SOL     OW10030  14.142   6.161  14.064
 2733SOL    HW110031  14.155   6.199  14.152
 2733SOL    HW210032  14.231   6.141  14.034
 2734SOL     OW10033   3.553   8.289   2.132
 2734SOL    HW110034   3.638   8.247   2.147
 2734SOL    HW210035   3.527   8.321   2.219
 2735SOL     OW10036  13.289   1.251   0.596
 2735SOL    HW110037  13.294   1.341   0.629
 2735SOL    HW210038  13.348   1.250   0.520
 2736SOL     OW10039  11.965  13.769   7.776
 2736SOL    HW110040  11.883  13.747   7.733
 2736SOL    HW210041  11.977  13.700   7.841
 2737SOL     OW10042  13.263   7.282  14.242
 2737SOL    HW110043  13.175   7.265  14.275
 2737SOL    HW210044  13.316   7.211  14.278
 2738SOL     OW10045   8.689   2.357   9.812
 2738SOL    HW110046   8.764   2.416   9.819
 2738SOL    HW210047   8.630   2.399   9.749
 2739SOL     OW10048   3.896   4.926   4.171
 2739SOL    HW110049   3.847   5.000   4.136
 2739SOL    HW210050   3.858   4.849   4.129
 2740SOL     OW10051   7.520   6.820   3.322
 2740SOL    HW110052   7.450   6.773   3.277
 2740SOL    HW210053   7.503   6.806   3.415
 2741SOL     OW10054   8.252  12.964  13.696
 2741SOL    HW110055   8.210  12.885  13.665
 2741SOL    HW210056   8.315  12.987  13.627
 2742SOL     OW10057   3.465   1.288  14.276
 2742SOL    HW110058   3.411   1.343  14.332
 2742SOL    HW210059   3.529   1.348  14.237
 2743SOL     OW10060   0.357  14.438  14.788
 2743SOL    HW110061   0.419  14.377  14.828
 2743SOL    HW210062   0.388  14.449  14.699
 2744SOL     OW10063  14.702  10.418  10.532
 2744SOL    HW110064  14.746  10.339  10.500
 2744SOL    HW210065  14.657  10.453  10.455
 2745SOL     OW10066   5.648   5.995  14.714
 2745SOL    HW110067   5.731   5.947  14.713
 2745SOL    HW210068   5.640   6.027  14.804
 2746SOL     OW10069   1.724   2.212  11.821
 2746SOL    HW110070   1.813   2.196  11.851
 2746SOL    HW210071   1.733   2.238  11.729
 2747SOL     OW10072   8.501  10.707  10.913
 2747SOL    HW110073   8.539  10.644  10.974
 2747SOL    HW210074   8.569  10.720  10.846
 2748SOL     OW10075  10.238  14.876   4.283
 2748SOL    HW110076  10.261  14.783   4.283
 2748SOL    HW210077  10.301   0.041   4.342
 2749SOL     OW10078   7.613   2.764   3.582
 2749SOL    HW110079   7.701   2.787   3.554
 2749SOL    HW210080   7.573   2.847   3.608
 2750SOL     OW10081   4.927   7.059   7.184
 2750SOL    HW110082   5.018   7.083   7.168
 2750SOL    HW210083   4.903   7.108   7.263
 2751SOL     OW10084   7.374  11.942   0.940
 2751SOL    HW110085   7.344  11.914   0.853
 2751SOL    HW210086   7.296  11.981   0.981
 2752SOL     OW10087   9.955  10.919   6.227
 2752SOL    HW110088   9.960  10.823   6.228
 2752SOL    HW210089  10.022  10.946   6.165
 2753SOL     OW10090   7.099  10.832   1.724
 2753SOL    HW110091   7.011  10.856   1.696
 2753SOL    HW210092   7.153  10.907   1.698
 2754SOL     OW10093  12.017   5.858   6.139
 2754SOL    HW110094  12.053   5.803   6.209
 2754SOL    HW210095  11.959   5.800   6.091
 2755SOL     OW10096   6.577   0.041  11.679
 2755SOL    HW110097   6.522   0.117  11.701
 2755SOL    HW210098   6.646   0.077  11.624
 2756SOL     OW10099   8.271  13.145  14.109
 2756SOL    HW110100   8.281  13.217  14.047
 2756SOL    HW210101   8.207  13.086  14.069
 2757SOL     OW10102   0.758   7.313   4.099
 2757SOL    HW110103   0.753   7.281   4.009
 2757SOL    HW210104   0.759   7.234   4.153
 2758SOL     OW10105   4.268   6.233  12.879
 2758SOL    HW110106   4.277   6.326  12.902
 2758SOL    HW210107   4.220   6.233  12.796
 2759SOL     OW10108   2.453   5.190  11.559
 2759SOL    HW110109   2.490   5.271  11.596
 2759SOL    HW210110   2.523   5.155  11.504
 2760SOL     OW10111   0.582  11.854  13.446
 2760SOL    HW110112   0.495  11.860  13.485
 2760SOL    HW210113   0.626  11.935  13.472
 2761SOL     OW10114  11.166  14.503   2.914
 2761SOL    HW110115  11.146  14.415   2.943
 2761SOL    HW210116  11.092  14.526   2.857
 2762SOL     OW10117  10.025   8.447   1.359
 2762SOL    HW110118   9.973   8.515   1.400
 2762SOL    HW210119  10.064   8.399   1.432
 2763SOL     OW10120  12.364  13.883   2.901
 2763SOL    HW110121  12.356  13.940   2.824
 2763SOL    HW210122  12.382  13.797   2.865
 2764SOL     OW10123  11.969  13.820  11.550
 2764SOL    HW110124  11.891  13.842  11.499
 2764SOL    HW210125  11.936  13.803  11.639
 2765SOL     OW10126   9.792  12.268   9.921
 2765SOL    HW110127   9.738  12.348   9.922
 2765SOL    HW210128   9.855  12.283   9.851
 2766SOL     OW10129   5.750   7.521  14.078
 2766SOL    HW110130   5.806   7.570  14.138
 2766SOL    HW210131   5.779   7.430  14.085
 2767SOL     OW10132   1.036   4.409  12.177
 2767SOL    HW110133   0.976   4.438  12.108
 2767SOL    HW210134   1.105   4.475  12.177
 2768SOL     OW10135  14.222   9.770   3.679
 2768SOL    HW110136  14.135   9.786   3.714
 2768SOL    HW210137  14.248   9.686   3.717
 2769SOL     OW10138  13.537  12.461   2.196
 2769SOL    HW110139  13.565  12.371   2.177
 2769SOL    HW210140  13.499  12.492   2.114
 2770SOL     OW10141  12.795  14.505   1.531
 2770SOL    HW110142  12.856  14.446   1.487
 2770SOL    HW210143  12.812  14.492   1.624
 2771SOL     OW10144  11.894  11.188   5.473
 2771SOL    HW110145  11.916  11.274   5.509
 2771SOL    HW210146  11.867  11.137   5.550
 2772SOL     OW10147  13.843   1.445   7.903
 2772SOL    HW110148  13.777   1.514   7.895
 2772SOL    HW210149  13.808   1.372   7.854
 2773SOL     OW10150  13.948   7.677  13.868
 2773SOL    HW110151  13.946   7.583  13.848
 2773SOL    HW210152  13.991   7.716  13.791
 2774SOL     OW10153   8.642   6.997   9.834
 2774SOL    HW110154   8.618   6.917   9.882
 2774SOL    HW210155   8.737   6.998   9.835
 2775SOL     OW10156  14.091   8.681   2.769
 2775SOL    HW110157  14.023   8.728   2.720
 2775SOL    HW210158  14.164   8.674   2.708
 2776SOL     OW10159  14.167   7.846   1.074
 2776SOL    HW110160  14.079   7.841   1.036
 2776SOL    HW210161  14.152   7.843   1.169
 2777SOL     OW10162  12.732   9.335   5.843
 2777SOL    HW110163  12.645   9.303   5.865
 2777SOL    HW210164  12.761   9.279   5.771
 2778SOL     OW10165   3.705   5.798   4.219
 2778SOL    HW110166   3.731   5.816   4.129
 2778SOL    HW210167   3.751   5.717   4.241
 2779SOL     OW10168  11.256   7.159   9.358
 2779SOL    HW110169  11.298   7.163   9.444
 2779SOL    HW210170  11.165   7.136   9.377
 2780SOL     OW10171   9.312   3.510   7.700
 2780SOL    HW110172   9.329   3.604   7.712
 2780SOL    HW210173   9.377   3.482   7.636
 2781SOL     OW10174  13.322  13.247   1.981
 2781SOL    HW110175  13.246  13.228   1.926
 2781SOL    HW210176  13.391  13.271   1.919
 2782SOL     OW10177  11.607   6.037  11.665
 2782SOL    HW110178  11.556   6.117  11.655
 2782SOL    HW210179  11.548   5.976  11.709
 2783SOL     OW10180  13.643   4.978  11.398
 2783SOL    HW110181  13.628   5.021  11.482
 2783SOL    HW210182  13.672   4.890  11.421
 2784SOL     OW10183   7.226   6.245   2.763
 2784SOL    HW110184   7.189   6.310   2.822
 2784SOL    HW210185   7.241   6.292   2.681
 2785SOL     OW10186   9.908  12.275  10.330
 2785SOL    HW110187   9.837  12.232  10.283
 2785SOL    HW210188   9.928  12.215  10.402
 2786SOL     OW10189   6.839   3.752  11.451
 2786SOL    HW110190   6.923   3.707  11.452
 2786SOL    HW210191   6.801   3.736  11.537
 2787SOL     OW10192   4.399  13.650  11.481
 2787SOL    HW110193   4.358  13.731  11.451
 2787SOL    HW210194   4.432  13.670  11.569
 2788SOL     OW10195  10.975  14.391  12.224
 2788SOL    HW110196  10.976  14.300  12.194
 2788SOL    HW210197  10.994  14.442  12.146
 2789SOL     OW10198   0.597  10.296  11.324
 2789SOL    HW110199   0.511  10.327  11.353
 2789SOL    HW210200   0.581  10.208  11.289
 2790SOL     OW10201  13.160  14.152   2.876
 2790SOL    HW110202  13.173  14.194   2.790
 2790SOL    HW210203  13.098  14.209   2.921
 2791SOL     OW10204  10.140   9.926   9.720
 2791SOL    HW110205  10.218   9.889   9.679
 2791SOL    HW210206  10.156   9.916   9.814
 2792SOL     OW10207  13.634   9.514  12.371
 2792SOL    HW110208  13.662   9.556  12.452
 2792SOL    HW210209  13.593   9.432  12.400
 2793SOL     OW10210  11.036   6.427   0.492
 2793SOL    HW110211  10.988   6.508   0.508
 2793SOL    HW210212  10.969   6.360   0.483
 2794SOL     OW10213  12.733   8.448   4.258
 2794SOL    HW110214  12.673   8.492   4.198
 2794SOL    HW210215  12.811   8.505   4.260
 2795SOL     OW10216  14.393  10.505   9.387
 2795SOL    HW110217  14.337  10.578   9.414
 2795SOL    HW210218  14.471  10.546   9.350
 2796SOL     OW10219   3.545   8.211   8.244
 2796SOL    HW110220   3.639   8.203   8.232
 2796SOL    HW210221   3.507   8.153   8.177
 2797SOL     OW10222   4.673   0.566  11.620
 2797SOL    HW110223   4.678   0.595  11.711
 2797SOL    HW210224   4.703   0.475  11.622
 2798SOL     OW10225  11.243  10.063   6.597
 2798SOL    HW110226  11.160  10.024   6.624
 2798SOL    HW210227  11.240  10.152   6.632
 2799SOL     OW10228  11.546   6.410   5.715
 2799SOL    HW110229  11.575   6.322   5.741
 2799SOL    HW210230  11.627   6.455   5.691
 2800SOL     OW10231   3.349   9.589   1.731
 2800SOL    HW110232   3.320   9.564   1.818
 2800SOL    HW210233   3.444   9.602   1.739
 2801SOL     OW10234   1.810   4.504   0.034
 2801SOL    HW110235   1.860   4.509   0.115
 2801SOL    HW210236   1.769   4.417   0.036
 2802SOL     OW10237  14.078   1.088  11.287
 2802SOL    HW110238  14.159   1.135  11.309
 2802SOL    HW210239  14.029   1.085  11.370
 2803SOL     OW10240  11.331   6.428   0.957
 2803SOL    HW110241  11.329   6.485   0.881
 2803SOL    HW210242  11.254   6.372   0.949
 2804SOL     OW10243  11.511  12.721   4.303
 2804SOL    HW110244  11.429  12.744   4.347
 2804SOL    HW210245  11.483  12.675   4.223
 2805SOL     OW10246  11.371  11.871   0.065
 2805SOL    HW110247  11.383  11.934   0.136
 2805SOL    HW210248  11.434  11.802   0.083
 2806SOL     OW10249  11.342   4.368  11.491
 2806SOL    HW110250  11.430   4.397  11.467
 2806SOL    HW210251  11.289   4.448  11.488
 2807SOL     OW10252  10.553   4.154  14.106
 2807SOL    HW110253  10.554   4.078  14.049
 2807SOL    HW210254  10.463   4.162  14.135
 2808SOL     OW10255   5.023   6.145  14.674
 2808SOL    HW110256   4.946   6.089  14.688
 2808SOL    HW210257   5.024   6.204  14.749
 2809SOL     OW10258   4.204   5.528  14.697
 2809SOL    HW110259   4.181   5.612  14.737
 2809SOL    HW210260   4.143   5.518  14.624
 2810SOL     OW10261  14.221  12.042   3.217
 2810SOL    HW110262  14.276  12.117   3.194
 2810SOL    HW210263  14.280  11.983   3.264
 2811SOL     OW10264   0.649   3.663   2.614
 2811SOL    HW110265   0.717   3.596   2.624
 2811SOL    HW210266   0.616   3.650   2.526
 2812SOL     OW10267  12.871   2.854   1.064
 2812SOL    HW110268  12.788   2.865   1.111
 2812SOL    HW210269  12.854   2.785   1.001
 2813SOL     OW10270   3.580   4.304   0.545
 2813SOL    HW110271   3.658   4.313   0.600
 2813SOL    HW210272   3.553   4.213   0.556
 2814SOL     OW10273   9.870   0.720   1.594
 2814SOL    HW110274   9.936   0.691   1.656
 2814SOL    HW210275   9.879   0.816   1.592
 2815SOL     OW10276   4.983  12.846   1.539
 2815SOL    HW110277   4.968  12.836   1.633
 2815SOL    HW210278   5.056  12.788   1.520
 2816SOL     OW10279   1.374   2.813   1.245
 2816SOL    HW110280   1.454   2.811   1.194
 2816SOL    HW210281   1.355   2.906   1.257
 2817SOL     OW10282  13.471  12.212   7.567
 2817SOL    HW110283  13.535  12.211   7.496
 2817SOL    HW210284  13.432  12.300   7.563
 2818SOL     OW10285   8.731   7.045  10.566
 2818SOL    HW110286   8.663   7.112  10.560
 2818SOL    HW210287   8.723   6.994  10.486
 2819SOL     OW10288   1.573   7.750   5.434
 2819SOL    HW110289   1.526   7.681   5.480
 2819SOL    HW210290   1.611   7.707   5.357
 2820SOL     OW10291   2.756  10.451   6.093
 2820SOL    HW110292   2.817  10.453   6.166
 2820SOL    HW210293   2.761  10.539   6.054
 2821SOL     OW10294   9.286   4.560   1.296
 2821SOL    HW110295   9.324   4.541   1.211
 2821SOL    HW210296   9.209   4.613   1.277
 2822SOL     OW10297   8.644   5.512  12.927
 2822SOL    HW110298   8.641   5.419  12.907
 2822SOL    HW210299   8.670   5.553  12.844
 2823SOL     OW10300  10.083   8.184   8.250
 2823SOL    HW110301  10.167   8.185   8.296
 2823SOL    HW210302  10.032   8.254   8.291
 2824SOL     OW10303   8.889   7.656   5.981
 2824SOL    HW110304   8.891   7.742   6.023
 2824SOL    HW210305   8.875   7.594   6.053
 2825SOL     OW10306   2.120   6.621  11.333
 2825SOL    HW110307   2.209   6.656  11.341
 2825SOL    HW210308   2.132   6.528  11.316
 2826SOL     OW10309   2.705   4.969   3.103
 2826SOL    HW110310   2.614   4.996   3.090
 2826SOL    HW210311   2.737   5.027   3.172
 2827SOL     OW10312   6.948   5.371   3.132
 2827SOL    HW110313   6.859   5.341   3.112
 2827SOL    HW210314   7.001   5.291   3.131
 2828SOL     OW10315   7.714  12.181  14.010
 2828SOL    HW110316   7.721  12.267  13.969
 2828SOL    HW210317   7.717  12.119  13.937
 2829SOL     OW10318  12.841  13.985   4.541
 2829SOL    HW110319  12.883  13.945   4.464
 2829SOL    HW210320  12.811  13.911   4.593
 2830SOL     OW10321  13.476   2.380   5.791
 2830SOL    HW110322  13.558   2.395   5.745
 2830SOL    HW210323  13.450   2.292   5.765
 2831SOL     OW10324   8.163  14.641  13.509
 2831SOL    HW110325   8.246  14.594  13.512
 2831SOL    HW210326   8.176  14.716  13.566
 2832SOL     OW10327   6.697   1.813   2.850
 2832SOL    HW110328   6.773   1.800   2.793
 2832SOL    HW210329   6.689   1.908   2.857
 2833SOL     OW10330   5.265  10.160   3.690
 2833SOL    HW110331   5.340  10.173   3.747
 2833SOL    HW210332   5.211  10.095   3.736
 2834SOL     OW10333  13.561   0.004   1.729
 2834SOL    HW110334  13.495  14.823   1.768
 2834SOL    HW210335  13.606   0.044   1.804
 2835SOL     OW10336  11.368  12.666   0.244
 2835SOL    HW110337  11.447  12.704   0.208
 2835SOL    HW210338  11.321  12.631   0.169
 2836SOL     OW10339   5.191   7.119  12.966
 2836SOL    HW110340   5.101   7.149  12.977
 2836SOL    HW210341   5.201   7.048  13.030
 2837SOL     OW10342   0.772   6.950   3.131
 2837SOL    HW110343   0.842   6.931   3.068
 2837SOL    HW210344   0.813   6.937   3.216
 2838SOL     OW10345  10.428   4.976   2.686
 2838SOL    HW110346  10.488   4.915   2.643
 2838SOL    HW210347  10.485   5.034   2.737
 2839SOL     OW10348  11.426  13.620   2.678
 2839SOL    HW110349  11.490  13.568   2.728
 2839SOL    HW210350  11.414  13.571   2.597
 2840SOL     OW10351   7.775   9.644  11.566
 2840SOL    HW110352   7.696   9.678  11.524
 2840SOL    HW210353   7.759   9.655  11.659
 2841SOL     OW10354   5.055   8.051   2.031
 2841SOL    HW110355   4.993   8.020   1.965
 2841SOL    HW210356   5.133   7.997   2.017
 2842SOL     OW10357  13.157   0.862   8.340
 2842SOL    HW110358  13.233   0.808   8.362
 2842SOL    HW210359  13.173   0.945   8.384
 2843SOL     OW10360   6.084   7.747  12.041
 2843SOL    HW110361   6.079   7.652  12.050
 2843SOL    HW210362   5.993   7.775  12.034
 2844SOL     OW10363   0.660  12.478   0.213
 2844SOL    HW110364   0.666  12.468   0.118
 2844SOL    HW210365   0.581  12.429   0.238
 2845SOL     OW10366  12.202   3.498   5.852
 2845SOL    HW110367  12.201   3.457   5.939
 2845SOL    HW210368  12.111   3.494   5.822
 2846SOL     OW10369   7.105  11.462   1.214
 2846SOL    HW110370   7.060  11.399   1.157
 2846SOL    HW210371   7.105  11.544   1.164
 2847SOL     OW10372  11.950  13.423   9.837
 2847SOL    HW110373  11.969  13.495   9.897
 2847SOL    HW210374  11.881  13.373   9.880
 2848SOL     OW10375  10.996  13.955   4.379
 2848SOL    HW110376  10.937  14.029   4.393
 2848SOL    HW210377  11.072  13.994   4.335
 2849SOL     OW10378   7.711  12.449   5.374
 2849SOL    HW110379   7.659  12.418   5.448
 2849SOL    HW210380   7.744  12.370   5.332
 2850SOL     OW10381   3.745  10.632   3.493
 2850SOL    HW110382   3.713  10.543   3.478
 2850SOL    HW210383   3.692  10.686   3.434
 2851SOL     OW10384  11.320  11.885  12.024
 2851SOL    HW110385  11.255  11.869  11.957
 2851SOL    HW210386  11.403  11.895  11.976
 2852SOL     OW10387   7.553   1.592   9.868
 2852SOL    HW110388   7.583   1.547   9.789
 2852SOL    HW210389   7.483   1.536   9.903
 2853SOL     OW10390  12.207  14.448   6.058
 2853SOL    HW110391  12.177  14.512   6.123
 2853SOL    HW210392  12.300  14.438   6.075
 2854SOL     OW10393   7.530   9.133   8.657
 2854SOL    HW110394   7.624   9.133   8.676
 2854SOL    HW210395   7.496   9.058   8.705
 2855SOL     OW10396   4.777   4.204  14.019
 2855SOL    HW110397   4.822   4.120  14.016
 2855SOL    HW210398   4.847   4.269  14.025
 2856SOL     OW10399   6.702   6.252  13.886
 2856SOL    HW110400   6.628   6.196  13.863
 2856SOL    HW210401   6.713   6.240  13.981
 2857SOL     OW10402   0.695   3.892   5.601
 2857SOL    HW110403   0.694   3.797   5.615
 2857SOL    HW210404   0.609   3.921   5.630
 2858SOL     OW10405  10.213  12.945   5.034
 2858SOL    HW110406  10.201  12.921   4.942
 2858SOL    HW210407  10.295  12.903   5.059
 2859SOL     OW10408  11.121   3.236  10.953
 2859SOL    HW110409  11.059   3.286  10.899
 2859SOL    HW210410  11.201   3.232  10.900
 2860SOL     OW10411   4.332  10.853  12.774
 2860SOL    HW110412   4.407  10.908  12.795
 2860SOL    HW210413   4.323  10.795  12.850
 2861SOL     OW10414   6.337  12.414  11.343
 2861SOL    HW110415   6.391  12.351  11.392
 2861SOL    HW210416   6.331  12.490  11.400
 2862SOL     OW10417  13.915  12.792   8.374
 2862SOL    HW110418  13.962  12.756   8.299
 2862SOL    HW210419  13.847  12.847   8.336
 2863SOL     OW10420  10.661   0.760   0.098
 2863SOL    HW110421  10.669   0.854   0.083
 2863SOL    HW210422  10.740   0.738   0.148
 2864SOL     OW10423   3.193   7.207   3.194
 2864SOL    HW110424   3.203   7.266   3.269
 2864SOL    HW210425   3.099   7.199   3.182
 2865SOL     OW10426   8.891  10.107  10.547
 2865SOL    HW110427   8.879  10.168  10.619
 2865SOL    HW210428   8.876  10.159  10.468
 2866SOL     OW10429  12.829  11.511   0.376
 2866SOL    HW110430  12.765  11.569   0.417
 2866SOL    HW210431  12.804  11.509   0.284
 2867SOL     OW10432  10.998   2.910   9.653
 2867SOL    HW110433  11.015   2.914   9.747
 2867SOL    HW210434  10.962   2.823   9.639
 2868SOL     OW10435  11.797  12.296   1.971
 2868SOL    HW110436  11.705  12.286   1.993
 2868SOL    HW210437  11.831  12.357   2.037
 2869SOL     OW10438   8.597  11.465   4.970
 2869SOL    HW110439   8.530  11.473   5.038
 2869SOL    HW210440   8.618  11.371   4.967
 2870SOL     OW10441  12.492  11.133   6.624
 2870SOL    HW110442  12.510  11.168   6.537
 2870SOL    HW210443  12.558  11.065   6.637
 2871SOL     OW10444   3.961   1.267  11.718
 2871SOL    HW110445   3.978   1.287  11.810
 2871SOL    HW210446   3.874   1.303  11.701
 2872SOL     OW10447   4.744   5.961  11.562
 2872SOL    HW110448   4.788   6.014  11.628
 2872SOL    HW210449   4.793   5.976  11.482
 2873SOL     OW10450  13.362  14.238  13.902
 2873SOL    HW110451  13.382  14.327  13.873
 2873SOL    HW210452  13.437  14.186  13.873
 2874SOL     OW10453   7.552  14.676   3.651
 2874SOL    HW110454   7.584  14.608   3.591
 2874SOL    HW210455   7.473  14.637   3.690
 2875SOL     OW10456  11.087   5.224   3.210
 2875SOL    HW110457  11.054   5.298   3.157
 2875SOL    HW210458  11.014   5.202   3.267
 2876SOL     OW10459   6.653   5.234   3.147
 2876SOL    HW110460   6.619   5.318   3.115
 2876SOL    HW210461   6.584   5.171   3.129
 2877SOL     OW10462   5.290  13.184   5.388
 2877SOL    HW110463   5.257  13.104   5.430
 2877SOL    HW210464   5.285  13.250   5.458
 2878SOL     OW10465   2.430  10.156  12.875
 2878SOL    HW110466   2.366  10.201  12.821
 2878SOL    HW210467   2.392  10.069  12.889
 2879SOL     OW10468   5.728   4.647  11.308
 2879SOL    HW110469   5.784   4.639  11.384
 2879SOL    HW210470   5.701   4.557  11.289
 2880SOL     OW10471   9.804   3.575   5.117
 2880SOL    HW110472   9.861   3.599   5.190
 2880SOL    HW210473   9.746   3.651   5.106
 2881SOL     OW10474  11.627   0.163   5.988
 2881SOL    HW110475  11.652   0.175   5.896
 2881SOL    HW210476  11.666   0.239   6.032
 2882SOL     OW10477   7.023   5.262  13.293
 2882SOL    HW110478   6.938   5.289  13.260
 2882SOL    HW210479   7.075   5.342  13.295
 2883SOL     OW10480  11.031   7.096   8.859
 2883SOL    HW110481  10.942   7.060   8.864
 2883SOL    HW210482  11.072   7.050   8.787
 2884SOL     OW10483  13.221  12.435   8.927
 2884SOL    HW110484  13.215  12.351   8.883
 2884SOL    HW210485  13.307  12.433   8.971
 2885SOL     OW10486   1.655  10.344   1.351
 2885SOL    HW110487   1.676  10.252   1.333
 2885SOL    HW210488   1.710  10.367   1.426
 2886SOL     OW10489   1.363  14.258  14.762
 2886SOL    HW110490   1.447  14.243  14.806
 2886SOL    HW210491   1.381  14.330  14.701
 2887SOL     OW10492  13.927   7.873  14.095
 2887SOL    HW110493  13.955   7.819  14.169
 2887SOL    HW210494  13.942   7.819  14.018
 2888SOL     OW10495   6.684   8.336  13.547
 2888SOL    HW110496   6.722   8.287  13.620
 2888SOL    HW210497   6.714   8.426  13.561
 2889SOL     OW10498  12.539  11.971   8.406
 2889SOL    HW110499  12.572  11.943   8.492
 2889SOL    HW210500  12.604  12.034   8.374
 2890SOL     OW10501  11.595   5.172   9.577
 2890SOL    HW110502  11.643   5.207   9.502
 2890SOL    HW210503  11.588   5.078   9.560
 2891SOL     OW10504  13.878   1.037  12.309
 2891SOL    HW110505  13.912   0.966  12.255
 2891SOL    HW210506  13.955   1.070  12.356
 2892SOL     OW10507   2.636   9.459  12.529
 2892SOL    HW110508   2.557   9.467  12.476
 2892SOL    HW210509   2.604   9.440  12.618
 2893SOL     OW10510   7.543   2.196  10.377
 2893SOL    HW110511   7.485   2.229  10.309
 2893SOL    HW210512   7.546   2.266  10.442
 2894SOL     OW10513  12.436  10.749   8.176
 2894SOL    HW110514  12.403  10.820   8.231
 2894SOL    HW210515  12.363  10.729   8.117
 2895SOL     OW10516   9.601  13.990   7.124
 2895SOL    HW110517   9.508  13.977   7.108
 2895SOL    HW210518   9.637  14.015   7.039
 2896SOL     OW10519   5.433   8.357   3.579
 2896SOL    HW110520   5.344   8.334   3.606
 2896SOL    HW210521   5.448   8.444   3.615
 2897SOL     OW10522  14.334  10.372   2.141
 2897SOL    HW110523  14.256  10.401   2.189
 2897SOL    HW210524  14.301  10.305   2.081
 2898SOL     OW10525   0.309  11.997   0.192
 2898SOL    HW110526   0.332  11.918   0.143
 2898SOL    HW210527   0.255  12.048   0.132
 2899SOL     OW10528   4.562   6.207   8.423
 2899SOL    HW110529   4.560   6.128   8.370
 2899SOL    HW210530   4.599   6.180   8.506
 2900SOL     OW10531  13.876   2.509   0.656
 2900SOL    HW110532  13.863   2.545   0.743
 2900SOL    HW210533  13.864   2.584   0.597
 2901SOL     OW10534   3.353   7.249   9.432
 2901SOL    HW110535   3.262   7.247   9.461
 2901SOL    HW210536   3.366   7.337   9.397
 2902SOL     OW10537   3.731   0.929   7.345
 2902SOL    HW110538   3.703   0.961   7.260
 2902SOL    HW210539   3.823   0.903   7.333
 2903SOL     OW10540   0.525   6.675   4.650
 2903SOL    HW110541   0.600   6.692   4.594
 2903SOL    HW210542   0.562   6.644   4.732
 2904SOL     OW10543   5.439  14.743  10.201
 2904SOL    HW110544   5.496  14.711  10.131
 2904SOL    HW210545   5.351  14.713  10.177
 2905SOL     OW10546  12.593   5.696  14.711
 2905SOL    HW110547  12.665   5.740  14.756
 2905SOL    HW210548  12.530   5.677  14.780
 2906SOL     OW10549  12.135   4.851   5.400
 2906SOL    HW110550  12.042   4.870   5.385
 2906SOL    HW210551  12.175   4.860   5.314
 2907SOL     OW10552   1.143  12.284  12.612
 2907SOL    HW110553   1.198  12.264  12.536
 2907SOL    HW210554   1.134  12.200  12.657
 2908SOL     OW10555   8.068  13.978   3.401
 2908SOL    HW110556   7.992  14.033   3.386
 2908SOL    HW210557   8.035  13.888   3.396
 2909SOL     OW10558  12.754   9.766   3.772
 2909SOL    HW110559  12.775   9.821   3.696
 2909SOL    HW210560  12.829   9.778   3.831
 2910SOL     OW10561  10.501   1.350   9.675
 2910SOL    HW110562  10.478   1.295   9.750
 2910SOL    HW210563  10.570   1.300   9.630
 2911SOL     OW10564   0.789  11.969  14.680
 2911SOL    HW110565   0.784  12.065  14.682
 2911SOL    HW210566   0.830  11.949  14.596
 2912SOL     OW10567  11.265  11.995   6.239
 2912SOL    HW110568  11.193  11.940   6.207
 2912SOL    HW210569  11.274  12.064   6.173
 2913SOL     OW10570   8.447   3.169   5.401
 2913SOL    HW110571   8.383   3.172   5.330
 2913SOL    HW210572   8.421   3.239   5.461
 2914SOL     OW10573  14.011  11.799   2.464
 2914SOL    HW110574  14.081  11.813   2.400
 2914SOL    HW210575  14.047  11.830   2.547
 2915SOL     OW10576  12.489   6.344  14.873
 2915SOL    HW110577  12.558   6.410  14.872
 2915SOL    HW210578  12.409   6.394   0.012
 2916SOL     OW10579   9.974   2.195  10.897
 2916SOL    HW110580   9.924   2.220  10.819
 2916SOL    HW210581  10.029   2.123  10.867
 2917SOL     OW10582   6.749  11.562  11.214
 2917SOL    HW110583   6.720  11.470  11.212
 2917SOL    HW210584   6.778  11.580  11.125
 2918SOL     OW10585  12.306  11.489   1.601
 2918SOL    HW110586  12.377  11.528   1.550
 2918SOL    HW210587  12.244  11.561   1.615
 2919SOL     OW10588   5.717   4.672   3.393
 2919SOL    HW110589   5.651   4.609   3.364
 2919SOL    HW210590   5.679   4.757   3.373
 2920SOL     OW10591   7.682   9.210   3.264
 2920SOL    HW110592   7.683   9.271   3.191
 2920SOL    HW210593   7.773   9.204   3.293
 2921SOL     OW10594   3.759   1.230  13.814
 2921SOL    HW110595   3.763   1.143  13.776
 2921SOL    HW210596   3.669   1.260  13.798
 2922SOL     OW10597   9.440   5.390  12.142
 2922SOL    HW110598   9.519   5.437  12.169
 2922SOL    HW210599   9.372   5.421  12.200
 2923SOL     OW10600   0.105   0.526   1.962
 2923SOL    HW110601   0.077   0.532   1.870
 2923SOL    HW210602   0.189   0.480   1.959
 2924SOL     OW10603   0.820   7.675   1.030
 2924SOL    HW110604   0.811   7.634   0.944
 2924SOL    HW210605   0.905   7.718   1.027
 2925SOL     OW10606   2.572  13.630   6.654
 2925SOL    HW110607   2.658  13.606   6.620
 2925SOL    HW210608   2.564  13.724   6.636
 2926SOL     OW10609   3.416  12.656  11.033
 2926SOL    HW110610   3.403  12.739  11.079
 2926SOL    HW210611   3.400  12.589  11.099
 2927SOL     OW10612   8.211   3.053   4.720
 2927SOL    HW110613   8.270   3.043   4.646
 2927SOL    HW210614   8.198   3.148   4.728
 2928SOL     OW10615   6.429   9.460   1.472
 2928SOL    HW110616   6.396   9.384   1.519
 2928SOL    HW210617   6.448   9.524   1.542
 2929SOL     OW10618   3.147   8.857   0.001
 2929SOL    HW110619   3.105   8.908  14.808
 2929SOL    HW210620   3.080   8.796   0.030
 2930SOL     OW10621   9.503   9.703  12.976
 2930SOL    HW110622   9.598   9.713  12.971
 2930SOL    HW210623   9.469   9.792  12.963
 2931SOL     OW10624   5.333  11.962   8.860
 2931SOL    HW110625   5.302  11.918   8.781
 2931SOL    HW210626   5.427  11.944   8.862
 2932SOL     OW10627   9.501  12.955  13.127
 2932SOL    HW110628   9.473  13.008  13.052
 2932SOL    HW210629   9.572  13.005  13.166
 2933SOL     OW10630   0.384  10.219  12.110
 2933SOL    HW110631   0.473  10.223  12.072
 2933SOL    HW210632   0.329  10.190  12.037
 2934SOL     OW10633   2.524   9.307   4.647
 2934SOL    HW110634   2.515   9.283   4.555
 2934SOL    HW210635   2.437   9.337   4.673
 2935SOL     OW10636   5.590   8.608  12.793
 2935SOL    HW110637   5.509   8.567  12.762
 2935SOL    HW210638   5.656   8.582  12.729
 2936SOL     OW10639   5.074  14.590   2.466
 2936SOL    HW110640   5.035  14.629   2.545
 2936SOL    HW210641   5.136  14.655   2.435
 2937SOL     OW10642   6.303  14.581   0.762
 2937SOL    HW110643   6.297  14.658   0.706
 2937SOL    HW210644   6.293  14.507   0.702
 2938SOL     OW10645   9.960  14.728  13.367
 2938SOL    HW110646   9.962  14.821  13.386
 2938SOL    HW210647  10.047  14.697  13.390
 2939SOL     OW10648   5.716  13.905   8.390
 2939SOL    HW110649   5.805  13.871   8.379
 2939SOL    HW210650   5.696  13.889   8.482
 2940SOL     OW10651  12.186   2.214   1.612
 2940SOL    HW110652  12.100   2.244   1.641
 2940SOL    HW210653  12.228   2.293   1.577
 2941SOL     OW10654  11.246  11.924  10.086
 2941SOL    HW110655  11.212  11.887  10.004
 2941SOL    HW210656  11.338  11.895  10.088
 2942SOL     OW10657   4.336   1.576   4.710
 2942SOL    HW110658   4.417   1.529   4.693
 2942SOL    HW210659   4.269   1.526   4.665
 2943SOL     OW10660   0.636   7.983   3.013
 2943SOL    HW110661   0.601   7.985   3.103
 2943SOL    HW210662   0.646   7.890   2.993
 2944SOL     OW10663   1.480   7.350  13.692
 2944SOL    HW110664   1.575   7.340  13.700
 2944SOL    HW210665   1.469   7.421  13.629
 2945SOL     OW10666  14.001   2.978   9.318
 2945SOL    HW110667  13.948   2.978   9.397
 2945SOL    HW210668  13.984   3.063   9.277
 2946SOL     OW10669   6.355   4.915   9.246
 2946SOL    HW110670   6.372   4.821   9.252
 2946SOL    HW210671   6.439   4.953   9.218
 2947SOL     OW10672   2.111   0.411  11.418
 2947SOL    HW110673   2.072   0.388  11.503
 2947SOL    HW210674   2.100   0.506  11.412
 2948SOL     OW10675   0.111  14.302  14.700
 2948SOL    HW110676   0.117  14.376  14.640
 2948SOL    HW210677   0.202  14.286  14.727
 2949SOL     OW10678  13.789   6.165   8.662
 2949SOL    HW110679  13.811   6.250   8.625
 2949SOL    HW210680  13.797   6.178   8.757
 2950SOL     OW10681   0.427   5.842   0.203
 2950SOL    HW110682   0.511   5.872   0.167
 2950SOL    HW210683   0.443   5.751   0.228
 2951SOL     OW10684  11.412   8.675  11.762
 2951SOL    HW110685  11.435   8.760  11.799
 2951SOL    HW210686  11.380   8.695  11.674
 2952SOL     OW10687  11.153   9.137  10.840
 2952SOL    HW110688  11.102   9.119  10.919
 2952SOL    HW210689  11.232   9.084  10.849
 2953SOL     OW10690   5.401   1.968   0.340
 2953SOL    HW110691   5.332   1.957   0.274
 2953SOL    HW210692   5.459   2.035   0.303
 2954SOL     OW10693   2.390  11.802   7.812
 2954SOL    HW110694   2.435  11.722   7.782
 2954SOL    HW210695   2.449  11.873   7.787
 2955SOL     OW10696   5.918  12.049   9.887
 2955SOL    HW110697   5.891  12.115   9.951
 2955SOL    HW210698   5.930  12.098   9.805
 2956SOL     OW10699   2.507   8.572  10.678
 2956SOL    HW110700   2.565   8.564  10.603
 2956SOL    HW210701   2.429   8.617  10.645
 2957SOL     OW10702   6.635   9.094  11.217
 2957SOL    HW110703   6.717   9.062  11.256
 2957SOL    HW210704   6.628   9.184  11.249
 2958SOL     OW10705   4.960  14.528  11.597
 2958SOL    HW110706   5.031  14.589  11.579
 2958SOL    HW210707   4.989  14.445  11.560
 2959SOL     OW10708  13.608   2.855  10.075
 2959SOL    HW110709  13.658   2.892  10.002
 2959SOL    HW210710  13.516   2.868  10.050
 2960SOL     OW10711   1.908  13.853   5.097
 2960SOL    HW110712   1.851  13.885   5.027
 2960SOL    HW210713   1.896  13.758   5.096
 2961SOL     OW10714  12.231   3.458   3.067
 2961SOL    HW110715  12.302   3.520   3.049
 2961SOL    HW210716  12.275   3.382   3.105
 2962SOL     OW10717   7.979  12.520  13.542
 2962SOL    HW110718   7.951  12.435  13.509
 2962SOL    HW210719   7.992  12.506  13.636
 2963SOL     OW10720   4.386  14.374   1.418
 2963SOL    HW110721   4.351  14.428   1.347
 2963SOL    HW210722   4.371  14.426   1.497
 2964SOL     OW10723   1.014  12.019   4.197
 2964SOL    HW110724   1.057  12.102   4.216
 2964SOL    HW210725   0.921  12.037   4.211
 2965SOL     OW10726   4.236  13.811   2.880
 2965SOL    HW110727   4.214  13.890   2.830
 2965SOL    HW210728   4.254  13.745   2.812
 2966SOL     OW10729  10.452  12.679  12.654
 2966SOL    HW110730  10.514  12.630  12.600
 2966SOL    HW210731  10.383  12.615  12.675
 2967SOL     OW10732   0.348  13.259  12.446
 2967SOL    HW110733   0.263  13.237  12.407
 2967SOL    HW210734   0.402  13.285  12.372
 2968SOL     OW10735  10.963   2.168  11.572
 2968SOL    HW110736  10.937   2.206  11.656
 2968SOL    HW210737  11.027   2.230  11.536
 2969SOL     OW10738   2.507   3.313   2.833
 2969SOL    HW110739   2.509   3.304   2.929
 2969SOL    HW210740   2.546   3.399   2.816
 2970SOL     OW10741   4.560   1.017  14.662
 2970SOL    HW110742   4.585   1.090  14.606
 2970SOL    HW210743   4.484   1.049  14.710
 2971SOL     OW10744  13.378   8.768   0.804
 2971SOL    HW110745  13.389   8.674   0.789
 2971SOL    HW210746  13.308   8.794   0.745
 2972SOL     OW10747   6.503   5.813  13.586
 2972SOL    HW110748   6.491   5.774  13.673
 2972SOL    HW210749   6.579   5.768  13.550
 2973SOL     OW10750   3.541   5.982   4.327
 2973SOL    HW110751   3.600   6.056   4.344
 2973SOL    HW210752   3.597   5.918   4.283
 2974SOL     OW10753   9.326   7.927  12.783
 2974SOL    HW110754   9.314   7.961  12.871
 2974SOL    HW210755   9.242   7.887  12.760
 2975SOL     OW10756   7.604  12.729   9.603
 2975SOL    HW110757   7.634  12.762   9.688
 2975SOL    HW210758   7.641  12.789   9.539
 2976SOL     OW10759   6.005   2.120  12.699
 2976SOL    HW110760   6.036   2.151  12.784
 2976SOL    HW210761   5.912   2.145  12.697
 2977SOL     OW10762   7.566   4.389   0.209
 2977SOL    HW110763   7.654   4.413   0.238
 2977SOL    HW210764   7.522   4.473   0.196
 2978SOL     OW10765   7.510   3.979   1.818
 2978SOL    HW110766   7.456   3.962   1.895
 2978SOL    HW210767   7.595   4.004   1.854
 2979SOL     OW10768  14.307  10.784   2.713
 2979SOL    HW110769  14.285  10.691   2.725
 2979SOL    HW210770  14.345  10.810   2.797
 2980SOL     OW10771   5.766   0.339   9.287
 2980SOL    HW110772   5.693   0.397   9.263
 2980SOL    HW210773   5.835   0.398   9.316
 2981SOL     OW10774   2.819  11.475   7.281
 2981SOL    HW110775   2.773  11.523   7.213
 2981SOL    HW210776   2.836  11.540   7.349
 2982SOL     OW10777   1.677   3.945   5.102
 2982SOL    HW110778   1.613   4.013   5.121
 2982SOL    HW210779   1.665   3.881   5.172
 2983SOL     OW10780  12.291   1.349   0.956
 2983SOL    HW110781  12.205   1.307   0.957
 2983SOL    HW210782  12.338   1.309   1.029
 2984SOL     OW10783  13.677   9.007   0.721
 2984SOL    HW110784  13.688   9.056   0.639
 2984SOL    HW210785  13.742   9.045   0.780
 2985SOL     OW10786  12.426  13.035   2.823
 2985SOL    HW110787  12.514  13.072   2.832
 2985SOL    HW210788  12.408  13.035   2.729
 2986SOL     OW10789  10.593   3.486  13.607
 2986SOL    HW110790  10.559   3.409  13.651
 2986SOL    HW210791  10.626   3.542  13.678
 2987SOL     OW10792   7.499   5.988  12.917
 2987SOL    HW110793   7.456   6.050  12.974
 2987SOL    HW210794   7.535   6.041  12.845
 2988SOL     OW10795  13.702   4.936  13.318
 2988SOL    HW110796  13.654   4.990  13.255
 2988SOL    HW210797  13.640   4.867  13.343
 2989SOL     OW10798   3.140   6.060  11.923
 2989SOL    HW110799   3.229   6.092  11.936
 2989SOL    HW210800   3.091   6.097  11.997
 2990SOL     OW10801   5.845   9.414   9.401
 2990SOL    HW110802   5.877   9.491   9.447
 2990SOL    HW210803   5.870   9.340   9.458
 2991SOL     OW10804   7.199   0.441   0.969
 2991SOL    HW110805   7.224   0.382   0.898
 2991SOL    HW210806   7.264   0.511   0.966
 2992SOL     OW10807  11.082  11.248  11.193
 2992SOL    HW110808  11.029  11.195  11.252
 2992SOL    HW210809  11.047  11.337  11.203
 2993SOL     OW10810  12.323   2.451  12.965
 2993SOL    HW110811  12.236   2.462  13.002
 2993SOL    HW210812  12.348   2.362  12.989
 2994SOL     OW10813   0.973   0.187   8.457
 2994SOL    HW110814   0.891   0.236   8.458
 2994SOL    HW210815   1.040   0.252   8.478
 2995SOL     OW10816  12.142   1.359   3.400
 2995SOL    HW110817  12.109   1.405   3.477
 2995SOL    HW210818  12.199   1.291   3.435
 2996SOL     OW10819  11.816   6.408  13.908
 2996SOL    HW110820  11.815   6.360  13.826
 2996SOL    HW210821  11.753   6.363  13.964
 2997SOL     OW10822   6.279   5.795   3.066
 2997SOL    HW110823   6.242   5.730   3.125
 2997SOL    HW210824   6.221   5.871   3.074
 2998SOL     OW10825  12.728   5.289  10.834
 2998SOL    HW110826  12.716   5.259  10.744
 2998SOL    HW210827  12.641   5.317  10.862
 2999SOL     OW10828   7.898  10.702   5.581
 2999SOL    HW110829   7.933  10.763   5.646
 2999SOL    HW210830   7.876  10.624   5.631
 3000SOL     OW10831   4.852   8.877  11.578
 3000SOL    HW110832   4.920   8.860  11.513
 3000SOL    HW210833   4.861   8.806  11.642
 3001SOL     OW10834  11.868   8.270  14.296
 3001SOL    HW110835  11.824   8.203  14.243
 3001SOL    HW210836  11.936   8.223  14.344
 3002SOL     OW10837   0.443   7.780   5.450
 3002SOL    HW110838   0.467   7.703   5.502
 3002SOL    HW210839   0.520   7.799   5.398
 3003SOL     OW10840   9.627  12.695   1.877
 3003SOL    HW110841   9.628  12.790   1.863
 3003SOL    HW210842   9.545  12.666   1.838
 3004SOL     OW10843   6.530   0.687  14.191
 3004SOL    HW110844   6.482   0.697  14.109
 3004SOL    HW210845   6.615   0.727  14.174
 3005SOL     OW10846   1.680   1.350   4.174
 3005SOL    HW110847   1.594   1.366   4.213
 3005SOL    HW210848   1.742   1.371   4.244
 3006SOL     OW10849   0.999  12.311  11.694
 3006SOL    HW110850   1.009  12.400  11.729
 3006SOL    HW210851   0.906  12.292  11.702
 3007SOL     OW10852   8.735   1.700  12.892
 3007SOL    HW110853   8.816   1.737  12.858
 3007SOL    HW210854   8.706   1.638  12.825
 3008SOL     OW10855  10.464   4.748  14.292
 3008SOL    HW110856  10.372   4.772  14.295
 3008SOL    HW210857  10.503   4.810  14.230
 3009SOL     OW10858   1.259   3.983  12.484
 3009SOL    HW110859   1.282   4.004  12.575
 3009SOL    HW210860   1.341   3.949  12.447
 3010SOL     OW10861   3.365   1.564   2.344
 3010SOL    HW110862   3.341   1.546   2.434
 3010SOL    HW210863   3.336   1.654   2.328
 3011SOL     OW10864   2.974  11.024  14.861
 3011SOL    HW110865   2.999  10.933  14.849
 3011SOL    HW210866   3.047  11.074  14.823
 3012SOL     OW10867  12.624   0.218   5.895
 3012SOL    HW110868  12.530   0.211   5.879
 3012SOL    HW210869  12.652   0.293   5.844
 3013SOL     OW10870  13.390   9.565   8.441
 3013SOL    HW110871  13.428   9.622   8.374
 3013SOL    HW210872  13.351   9.493   8.393
 3014SOL     OW10873   1.887   1.396   7.311
 3014SOL    HW110874   1.967   1.397   7.259
 3014SOL    HW210875   1.850   1.484   7.300
 3015SOL     OW10876   9.900   1.536   0.491
 3015SOL    HW110877   9.942   1.546   0.577
 3015SOL    HW210878   9.814   1.575   0.502
 3016SOL     OW10879   8.493   3.707   2.657
 3016SOL    HW110880   8.559   3.644   2.686
 3016SOL    HW210881   8.506   3.784   2.712
 3017SOL     OW10882  14.043   3.401   3.071
 3017SOL    HW110883  14.071   3.377   2.983
 3017SOL    HW210884  14.041   3.319   3.119
 3018SOL     OW10885  11.633  13.397  14.025
 3018SOL    HW110886  11.705  13.363  14.079
 3018SOL    HW210887  11.606  13.323  13.972
 3019SOL     OW10888   0.961   1.594   2.564
 3019SOL    HW110889   1.016   1.669   2.586
 3019SOL    HW210890   0.931   1.612   2.475
 3020SOL     OW10891   6.019  10.186   8.152
 3020SOL    HW110892   6.046  10.209   8.241
 3020SOL    HW210893   5.930  10.220   8.144
 3021SOL     OW10894  14.607  10.519  10.772
 3021SOL    HW110895  14.641  10.608  10.781
 3021SOL    HW210896  14.621  10.497  10.680
 3022SOL     OW10897   4.164  10.399  11.508
 3022SOL    HW110898   4.095  10.383  11.573
 3022SOL    HW210899   4.188  10.491  11.522
 3023SOL     OW10900   9.747  14.165   2.065
 3023SOL    HW110901   9.709  14.242   2.023
 3023SOL    HW210902   9.735  14.095   2.000
 3024SOL     OW10903  14.544  14.059   0.840
 3024SOL    HW110904  14.515  14.140   0.799
 3024SOL    HW210905  14.547  13.995   0.768
 3025SOL     OW10906  11.621   3.728   5.394
 3025SOL    HW110907  11.555   3.796   5.380
 3025SOL    HW210908  11.595   3.658   5.335
 3026SOL     OW10909   6.702   0.034   3.230
 3026SOL    HW110910   6.611   0.007   3.239
 3026SOL    HW210911   6.706   0.074   3.143
 3027SOL     OW10912  10.365   9.285   4.164
 3027SOL    HW110913  10.277   9.314   4.143
 3027SOL    HW210914  10.392   9.341   4.237
 3028SOL     OW10915  12.195  12.334   1.014
 3028SOL    HW110916  12.220  12.321   1.106
 3028SOL    HW210917  12.242  12.412   0.986
 3029SOL     OW10918  10.740  14.203   3.642
 3029SOL    HW110919  10.708  14.120   3.604
 3029SOL    HW210920  10.784  14.247   3.569
 3030SOL     OW10921   6.296   2.255  11.178
 3030SOL    HW110922   6.230   2.236  11.112
 3030SOL    HW210923   6.249   2.306  11.245
 3031SOL     OW10924  11.709   3.499   5.215
 3031SOL    HW110925  11.741   3.440   5.283
 3031SOL    HW210926  11.677   3.441   5.146
 3032SOL     OW10927  10.114  11.190  11.319
 3032SOL    HW110928  10.073  11.141  11.248
 3032SOL    HW210929  10.203  11.157  11.324
 3033SOL     OW10930  13.855   6.584  11.219
 3033SOL    HW110931  13.858   6.592  11.315
 3033SOL    HW210932  13.866   6.491  11.203
 3034SOL     OW10933   8.816   4.582   1.985
 3034SOL    HW110934   8.791   4.499   1.945
 3034SOL    HW210935   8.889   4.613   1.930
 3035SOL     OW10936  12.135   6.302   7.822
 3035SOL    HW110937  12.105   6.213   7.806
 3035SOL    HW210938  12.088   6.356   7.759
 3036SOL     OW10939   3.268   6.969   6.424
 3036SOL    HW110940   3.275   6.875   6.406
 3036SOL    HW210941   3.244   7.008   6.340
 3037SOL     OW10942   9.097   8.490   5.340
 3037SOL    HW110943   9.178   8.528   5.375
 3037SOL    HW210944   9.045   8.566   5.315
 3038SOL     OW10945  11.924   3.197  13.640
 3038SOL    HW110946  11.979   3.147  13.701
 3038SOL    HW210947  11.873   3.255  13.695
 3039SOL     OW10948   7.276   5.771  11.219
 3039SOL    HW110949   7.331   5.830  11.169
 3039SOL    HW210950   7.309   5.683  11.198
 3040SOL     OW10951  14.166   0.008  13.366
 3040SOL    HW110952  14.261   0.021  13.356
 3040SOL    HW210953  14.135  14.865  13.278
 3041SOL     OW10954  13.891  14.429   0.850
 3041SOL    HW110955  13.911  14.446   0.758
 3041SOL    HW210956  13.805  14.468   0.863
 3042SOL     OW10957   1.488   7.047   4.950
 3042SOL    HW110958   1.562   7.102   4.976
 3042SOL    HW210959   1.430   7.047   5.027
 3043SOL     OW10960   0.827  12.091   8.550
 3043SOL    HW110961   0.888  12.164   8.540
 3043SOL    HW210962   0.771  12.096   8.472
 3044SOL     OW10963   9.557  10.639  13.013
 3044SOL    HW110964   9.607  10.615  12.935
 3044SOL    HW210965   9.470  10.662  12.979
 3045SOL     OW10966  13.628  14.229  14.280
 3045SOL    HW110967  13.710  14.181  14.266
 3045SOL    HW210968  13.648  14.292  14.350
 3046SOL     OW10969   1.568   3.341  11.498
 3046SOL    HW110970   1.577   3.340  11.593
 3046SOL    HW210971   1.572   3.249  11.472
 3047SOL     OW10972   4.617  14.638   4.757
 3047SOL    HW110973   4.593  14.577   4.687
 3047SOL    HW210974   4.704  14.609   4.785
 3048SOL     OW10975   1.971  12.464   8.769
 3048SOL    HW110976   1.969  12.503   8.681
 3048SOL    HW210977   2.063  12.439   8.781
 3049SOL     OW10978   5.487   6.805  10.019
 3049SOL    HW110979   5.535   6.881  10.052
 3049SOL    HW210980   5.524   6.788   9.933
 3050SOL     OW10981   7.424   0.776   7.514
 3050SOL    HW110982   7.359   0.726   7.564
 3050SOL    HW210983   7.386   0.785   7.427
 3051SOL     OW10984  10.332   8.838   0.514
 3051SOL    HW110985  10.293   8.875   0.593
 3051SOL    HW210986  10.325   8.743   0.526
 3052SOL     OW10987   8.907  13.229   3.874
 3052SOL    HW110988   8.930  13.205   3.963
 3052SOL    HW210989   8.864  13.151   3.839
 3053SOL     OW10990   6.252   0.814   1.601
 3053SOL    HW110991   6.229   0.897   1.643
 3053SOL    HW210992   6.211   0.748   1.657
 3054SOL     OW10993   5.664   2.619   1.405
 3054SOL    HW110994   5.723   2.646   1.335
 3054SOL    HW210995   5.576   2.634   1.370
 3055SOL     OW10996   7.742  14.253   5.180
 3055SOL    HW110997   7.791  14.309   5.121
 3055SOL    HW210998   7.722  14.175   5.128
 3056SOL     OW10999  13.830   2.362   6.503
 3056SOL    HW111000  13.897   2.320   6.448
 3056SOL    HW211001  13.774   2.409   6.441
 3057SOL     OW11002   5.987   0.800   4.618
 3057SOL    HW111003   6.020   0.745   4.689
 3057SOL    HW211004   5.893   0.780   4.615
 3058SOL     OW11005   2.004   5.362  10.482
 3058SOL    HW111006   1.958   5.434  10.525
 3058SOL    HW211007   1.982   5.285  10.534
 3059SOL     OW11008   1.836  13.980   1.676
 3059SOL    HW111009   1.747  14.017   1.678
 3059SOL    HW211010   1.894  14.056   1.676
 3060SOL     OW11011   8.167   4.361   0.259
 3060SOL    HW111012   8.207   4.274   0.257
 3060SOL    HW211013   8.198   4.404   0.179
 3061SOL     OW11014   7.856   1.558   1.331
 3061SOL    HW111015   7.774   1.545   1.285
 3061SOL    HW211016   7.875   1.652   1.320
 3062SOL     OW11017   8.953   8.392  14.668
 3062SOL    HW111018   9.026   8.438  14.628
 3062SOL    HW211019   8.876   8.423  14.619
 3063SOL     OW11020   1.823   5.143  10.083
 3063SOL    HW111021   1.867   5.184  10.158
 3063SOL    HW211022   1.895   5.113  10.027
 3064SOL     OW11023   7.932   0.439   8.194
 3064SOL    HW111024   7.888   0.523   8.206
 3064SOL    HW211025   8.026   0.461   8.193
 3065SOL     OW11026   4.309   4.886  14.531
 3065SOL    HW111027   4.290   4.793  14.543
 3065SOL    HW211028   4.233   4.920  14.483
 3066SOL     OW11029  11.732   1.534   4.123
 3066SOL    HW111030  11.730   1.490   4.038
 3066SOL    HW211031  11.821   1.567   4.131
 3067SOL     OW11032   9.728  11.706   9.131
 3067SOL    HW111033   9.796  11.723   9.196
 3067SOL    HW211034   9.746  11.618   9.098
 3068SOL     OW11035  10.324  13.003  10.027
 3068SOL    HW111036  10.329  13.000   9.932
 3068SOL    HW211037  10.244  12.954  10.048
 3069SOL     OW11038  10.923   6.718  12.377
 3069SOL    HW111039  10.848   6.767  12.345
 3069SOL    HW211040  10.966   6.684  12.299
 3070SOL     OW11041   6.343   1.158   1.540
 3070SOL    HW111042   6.282   1.224   1.573
 3070SOL    HW211043   6.407   1.207   1.489
 3071SOL     OW11044   8.960   1.432  12.983
 3071SOL    HW111045   8.946   1.391  13.068
 3071SOL    HW211046   8.893   1.500  12.978
 3072SOL     OW11047   4.351   3.047  10.809
 3072SOL    HW111048   4.395   3.021  10.890
 3072SOL    HW211049   4.299   3.124  10.834
 3073SOL     OW11050   9.027   7.617   2.513
 3073SOL    HW111051   9.093   7.657   2.569
 3073SOL    HW211052   8.947   7.618   2.565
 3074SOL     OW11053   6.300   2.221  14.568
 3074SOL    HW111054   6.296   2.207  14.473
 3074SOL    HW211055   6.391   2.203  14.592
 3075SOL     OW11056  14.143   6.373   3.818
 3075SOL    HW111057  14.183   6.418   3.892
 3075SOL    HW211058  14.190   6.404   3.741
 3076SOL     OW11059   1.562  12.577   2.065
 3076SOL    HW111060   1.632  12.564   2.002
 3076SOL    HW211061   1.515  12.494   2.066
 3077SOL     OW11062   9.211   8.016   9.639
 3077SOL    HW111063   9.177   8.047   9.723
 3077SOL    HW211064   9.287   8.072   9.622
 3078SOL     OW11065  13.766  12.235   8.338
 3078SOL    HW111066  13.839  12.200   8.286
 3078SOL    HW211067  13.799  12.235   8.428
 3079SOL     OW11068   5.716   5.907  12.398
 3079SOL    HW111069   5.733   5.863  12.315
 3079SOL    HW211070   5.795   5.892  12.450
 3080SOL     OW11071   9.177   9.675   6.788
 3080SOL    HW111072   9.157   9.750   6.844
 3080SOL    HW211073   9.241   9.708   6.726
 3081SOL     OW11074  13.775  13.583  13.474
 3081SOL    HW111075  13.690  13.558  13.511
 3081SOL    HW211076  13.838  13.526  13.519
 3082SOL     OW11077   3.350   3.430  10.373
 3082SOL    HW111078   3.332   3.358  10.313
 3082SOL    HW211079   3.340   3.391  10.460
 3083SOL     OW11080   8.572   2.918  11.180
 3083SOL    HW111081   8.507   2.874  11.125
 3083SOL    HW211082   8.566   2.873  11.265
 3084SOL     OW11083   7.691   3.702  13.803
 3084SOL    HW111084   7.717   3.744  13.721
 3084SOL    HW211085   7.690   3.608  13.782
 3085SOL     OW11086   2.297  11.994   8.092
 3085SOL    HW111087   2.386  12.015   8.064
 3085SOL    HW211088   2.290  11.899   8.084
 3086SOL     OW11089  11.269   2.722   6.543
 3086SOL    HW111090  11.342   2.661   6.537
 3086SOL    HW211091  11.259   2.738   6.637
 3087SOL     OW11092  10.203  12.301   8.632
 3087SOL    HW111093  10.127  12.338   8.678
 3087SOL    HW211094  10.181  12.208   8.623
 3088SOL     OW11095  12.717  12.597  10.582
 3088SOL    HW111096  12.749  12.565  10.497
 3088SOL    HW211097  12.792  12.590  10.640
 3089SOL     OW11098   9.515   8.418   9.617
 3089SOL    HW111099   9.560   8.454   9.541
 3089SOL    HW211100   9.422   8.429   9.598
 3090SOL     OW11101   6.595   2.293   3.050
 3090SOL    HW111102   6.503   2.272   3.060
 3090SOL    HW211103   6.637   2.259   3.129
 3091SOL     OW11104   5.010   7.198  10.770
 3091SOL    HW111105   5.097   7.205  10.730
 3091SOL    HW211106   4.960   7.144  10.710
 3092SOL     OW11107   0.101  10.128   6.141
 3092SOL    HW111108   0.153  10.097   6.215
 3092SOL    HW211109   0.078  10.048   6.093
 3093SOL     OW11110   0.742  10.117   7.557
 3093SOL    HW111111   0.813  10.137   7.618
 3093SOL    HW211112   0.786  10.105   7.472
 3094SOL     OW11113   2.720  10.529   0.462
 3094SOL    HW111114   2.762  10.509   0.546
 3094SOL    HW211115   2.697  10.443   0.426
 3095SOL     OW11116   8.828  13.272  14.206
 3095SOL    HW111117   8.923  13.275  14.219
 3095SOL    HW211118   8.814  13.320  14.125
 3096SOL     OW11119  14.626   0.052   5.067
 3096SOL    HW111120  14.698  14.866   5.056
 3096SOL    HW211121  14.608   0.051   5.161
 3097SOL     OW11122  13.869   6.094  11.920
 3097SOL    HW111123  13.961   6.075  11.938
 3097SOL    HW211124  13.871   6.148  11.841
 3098SOL     OW11125   5.739  14.171   0.782
 3098SOL    HW111126   5.688  14.224   0.844
 3098SOL    HW211127   5.750  14.228   0.706
 3099SOL     OW11128   2.235   7.824   8.276
 3099SOL    HW111129   2.304   7.874   8.232
 3099SOL    HW211130   2.281   7.755   8.322
 3100SOL     OW11131   6.988   8.106   2.881
 3100SOL    HW111132   6.915   8.078   2.935
 3100SOL    HW211133   7.006   8.196   2.910
 3101SOL     OW11134   0.907   4.501   4.148
 3101SOL    HW111135   0.969   4.569   4.122
 3101SOL    HW211136   0.824   4.547   4.158
 3102SOL     OW11137   3.734   3.989   5.475
 3102SOL    HW111138   3.778   3.932   5.537
 3102SOL    HW211139   3.641   3.969   5.486
 3103SOL     OW11140   4.599   2.247   4.432
 3103SOL    HW111141   4.679   2.299   4.427
 3103SOL    HW211142   4.581   2.241   4.526
 3104SOL     OW11143  14.423   6.076   1.896
 3104SOL    HW111144  14.507   6.121   1.896
 3104SOL    HW211145  14.404   6.061   1.988
 3105SOL     OW11146   0.694   6.180   0.243
 3105SOL    HW111147   0.715   6.164   0.335
 3105SOL    HW211148   0.725   6.269   0.226
 3106SOL     OW11149   9.353   7.791   5.736
 3106SOL    HW111150   9.418   7.722   5.750
 3106SOL    HW211151   9.269   7.745   5.739
 3107SOL     OW11152  12.731  11.180   8.516
 3107SOL    HW111153  12.688  11.125   8.451
 3107SOL    HW211154  12.661  11.202   8.578
 3108SOL     OW11155   5.821   7.303   2.495
 3108SOL    HW111156   5.890   7.368   2.507
 3108SOL    HW211157   5.753   7.348   2.444
 3109SOL     OW11158   7.708  12.097   4.885
 3109SOL    HW111159   7.772  12.045   4.837
 3109SOL    HW211160   7.726  12.187   4.858
 3110SOL     OW11161   4.918   3.491  13.999
 3110SOL    HW111162   4.893   3.554  14.066
 3110SOL    HW211163   4.897   3.406  14.037
 3111SOL     OW11164   8.257   0.577   3.999
 3111SOL    HW111165   8.338   0.534   4.024
 3111SOL    HW211166   8.260   0.581   3.904
 3112SOL     OW11167   1.331  10.320  13.612
 3112SOL    HW111168   1.334  10.224  13.606
 3112SOL    HW211169   1.394  10.350  13.545
 3113SOL     OW11170   5.678  14.756   0.467
 3113SOL    HW111171   5.734  14.814   0.519
 3113SOL    HW211172   5.672  14.676   0.519
 3114SOL     OW11173   2.561   8.133  14.103
 3114SOL    HW111174   2.483   8.174  14.143
 3114SOL    HW211175   2.617   8.207  14.079
 3115SOL     OW11176  13.262   3.303   2.030
 3115SOL    HW111177  13.291   3.361   2.100
 3115SOL    HW211178  13.304   3.337   1.951
 3116SOL     OW11179   7.769   1.518   2.266
 3116SOL    HW111180   7.716   1.581   2.314
 3116SOL    HW211181   7.829   1.482   2.331
 3117SOL     OW11182   5.318   6.722   4.561
 3117SOL    HW111183   5.359   6.653   4.510
 3117SOL    HW211184   5.237   6.742   4.514
 3118SOL     OW11185   7.198   5.090   5.036
 3118SOL    HW111186   7.167   5.026   5.101
 3118SOL    HW211187   7.230   5.163   5.088
 3119SOL     OW11188   7.872  10.877   0.431
 3119SOL    HW111189   7.846  10.924   0.352
 3119SOL    HW211190   7.802  10.813   0.445
 3120SOL     OW11191   8.496   1.878   6.072
 3120SOL    HW111192   8.520   1.880   5.980
 3120SOL    HW211193   8.577   1.905   6.118
 3121SOL     OW11194  13.362   5.586   2.805
 3121SOL    HW111195  13.390   5.558   2.892
 3121SOL    HW211196  13.267   5.594   2.811
 3122SOL     OW11197   9.662   4.474  11.290
 3122SOL    HW111198   9.623   4.464  11.204
 3122SOL    HW211199   9.705   4.560  11.287
 3123SOL     OW11200  12.380  11.950  11.135
 3123SOL    HW111201  12.330  12.016  11.088
 3123SOL    HW211202  12.370  11.973  11.227
 3124SOL     OW11203  12.228   9.134   7.506
 3124SOL    HW111204  12.232   9.174   7.593
 3124SOL    HW211205  12.147   9.083   7.507
 3125SOL     OW11206   8.050  13.591  10.346
 3125SOL    HW111207   8.093  13.506  10.342
 3125SOL    HW211208   8.109  13.651  10.301
 3126SOL     OW11209   2.864   7.181   9.778
 3126SOL    HW111210   2.840   7.111   9.718
 3126SOL    HW211211   2.942   7.220   9.739
 3127SOL     OW11212  14.828  13.757   8.769
 3127SOL    HW111213  14.748  13.776   8.817
 3127SOL    HW211214  14.801  13.749   8.677
 3128SOL     OW11215   9.230  12.604   5.376
 3128SOL    HW111216   9.228  12.638   5.286
 3128SOL    HW211217   9.140  12.611   5.407
 3129SOL     OW11218   6.404  12.645   8.233
 3129SOL    HW111219   6.457  12.661   8.155
 3129SOL    HW211220   6.314  12.663   8.205
 3130SOL     OW11221  13.652   1.304   2.483
 3130SOL    HW111222  13.662   1.398   2.471
 3130SOL    HW211223  13.718   1.265   2.425
 3131SOL     OW11224   0.139  12.634  13.136
 3131SOL    HW111225   0.213  12.573  13.139
 3131SOL    HW211226   0.107  12.627  13.047
 3132SOL     OW11227  13.216  11.191   0.050
 3132SOL    HW111228  13.226  11.213   0.143
 3132SOL    HW211229  13.173  11.268   0.012
 3133SOL     OW11230  11.353   1.046   2.550
 3133SOL    HW111231  11.432   1.016   2.595
 3133SOL    HW211232  11.292   0.972   2.556
 3134SOL     OW11233   0.574  13.970   1.338
 3134SOL    HW111234   0.622  13.928   1.267
 3134SOL    HW211235   0.557  13.899   1.400
 3135SOL     OW11236   8.470   1.168   6.053
 3135SOL    HW111237   8.381   1.132   6.056
 3135SOL    HW211238   8.473   1.228   6.128
 3136SOL     OW11239  10.380  13.562  14.832
 3136SOL    HW111240  10.459  13.598  14.872
 3136SOL    HW211241  10.401  13.556  14.739
 3137SOL     OW11242   5.704   3.120  10.163
 3137SOL    HW111243   5.756   3.070  10.100
 3137SOL    HW211244   5.749   3.109  10.247
 3138SOL     OW11245  14.812   0.662  10.170
 3138SOL    HW111246  14.815   0.747  10.214
 3138SOL    HW211247  14.840   0.681  10.080
 3139SOL     OW11248  10.098  14.761   7.342
 3139SOL    HW111249  10.088  14.749   7.247
 3139SOL    HW211250  10.018  14.724   7.379
 3140SOL     OW11251   7.523   5.338   9.294
 3140SOL    HW111252   7.553   5.298   9.212
 3140SOL    HW211253   7.486   5.422   9.267
 3141SOL     OW11254  13.624   1.671  14.304
 3141SOL    HW111255  13.563   1.602  14.279
 3141SOL    HW211256  13.617   1.736  14.234
 3142SOL     OW11257   5.662   5.929  14.056
 3142SOL    HW111258   5.697   5.869  14.121
 3142SOL    HW211259   5.568   5.933  14.075
 3143SOL     OW11260  11.799   6.342  11.989
 3143SOL    HW111261  11.744   6.370  11.916
 3143SOL    HW211262  11.767   6.394  12.063
 3144SOL     OW11263  11.911  12.434   3.341
 3144SOL    HW111264  11.891  12.385   3.261
 3144SOL    HW211265  11.829  12.477   3.364
 3145SOL     OW11266   4.061  12.817   1.601
 3145SOL    HW111267   3.976  12.777   1.621
 3145SOL    HW211268   4.100  12.833   1.687
 3146SOL     OW11269   8.375  13.054   2.358
 3146SOL    HW111270   8.324  13.134   2.351
 3146SOL    HW211271   8.343  13.011   2.437
 3147SOL     OW11272   4.446   7.823   1.973
 3147SOL    HW111273   4.357   7.822   1.938
 3147SOL    HW211274   4.437   7.796   2.064
 3148SOL     OW11275   2.626  13.331   8.605
 3148SOL    HW111276   2.635  13.303   8.514
 3148SOL    HW211277   2.707  13.379   8.623
 3149SOL     OW11278  12.283  10.435   8.627
 3149SOL    HW111279  12.219  10.377   8.668
 3149SOL    HW211280  12.271  10.422   8.533
 3150SOL     OW11281   1.012   7.938  10.026
 3150SOL    HW111282   1.089   7.882  10.018
 3150SOL    HW211283   0.952   7.889  10.083
 3151SOL     OW11284   7.531  12.894   3.806
 3151SOL    HW111285   7.579  12.919   3.885
 3151SOL    HW211286   7.589  12.915   3.734
 3152SOL     OW11287  12.784  12.928  11.079
 3152SOL    HW111288  12.702  12.895  11.114
 3152SOL    HW211289  12.771  12.933  10.985
 3153SOL     OW11290  12.744   6.972   2.413
 3153SOL    HW111291  12.787   7.056   2.431
 3153SOL    HW211292  12.672   6.967   2.476
 3154SOL     OW11293   1.076  11.515   4.679
 3154SOL    HW111294   1.043  11.469   4.757
 3154SOL    HW211295   1.009  11.581   4.660
 3155SOL     OW11296   3.134   9.216  12.538
 3155SOL    HW111297   3.101   9.151  12.600
 3155SOL    HW211298   3.222   9.185  12.515
 3156SOL     OW11299   9.091   1.435   9.283
 3156SOL    HW111300   9.107   1.380   9.206
 3156SOL    HW211301   9.169   1.422   9.338
 3157SOL     OW11302  12.206   5.447   6.559
 3157SOL    HW111303  12.185   5.539   6.544
 3157SOL    HW211304  12.226   5.442   6.653
 3158SOL     OW11305   3.227   9.720   2.807
 3158SOL    HW111306   3.312   9.689   2.836
 3158SOL    HW211307   3.169   9.706   2.883
 3159SOL     OW11308   0.030   5.806   9.985
 3159SOL    HW111309  14.828   5.819   9.932
 3159SOL    HW211310   0.081   5.887   9.974
 3160SOL     OW11311   2.417   4.660   4.192
 3160SOL    HW111312   2.428   4.704   4.276
 3160SOL    HW211313   2.332   4.690   4.160
 3161SOL     OW11314   8.684   0.771   9.074
 3161SOL    HW111315   8.649   0.718   9.003
 3161SOL    HW211316   8.607   0.818   9.109
 3162SOL     OW11317   4.904  13.130   1.518
 3162SOL    HW111318   4.935  13.041   1.501
 3162SOL    HW211319   4.892  13.133   1.613
 3163SOL     OW11320   9.272  13.316   9.119
 3163SOL    HW111321   9.244  13.367   9.195
 3163SOL    HW211322   9.366  13.305   9.131
 3164SOL     OW11323   8.085   1.225   8.634
 3164SOL    HW111324   8.008   1.278   8.655
 3164SOL    HW211325   8.084   1.216   8.539
 3165SOL     OW11326   3.827   7.998   1.889
 3165SOL    HW111327   3.777   8.053   1.830
 3165SOL    HW211328   3.907   8.048   1.906
 3166SOL     OW11329  12.757   3.618  10.203
 3166SOL    HW111330  12.800   3.571  10.132
 3166SOL    HW211331  12.748   3.554  10.273
 3167SOL     OW11332   5.871   6.620   6.222
 3167SOL    HW111333   5.789   6.635   6.269
 3167SOL    HW211334   5.856   6.540   6.172
 3168SOL     OW11335   0.113   9.564   4.338
 3168SOL    HW111336   0.133   9.609   4.420
 3168SOL    HW211337   0.198   9.553   4.295
 3169SOL     OW11338   4.357  10.712   6.187
 3169SOL    HW111339   4.291  10.672   6.243
 3169SOL    HW211340   4.433  10.653   6.194
 3170SOL     OW11341   9.360   8.764   1.145
 3170SOL    HW111342   9.322   8.691   1.097
 3170SOL    HW211343   9.344   8.743   1.237
 3171SOL     OW11344   6.308  12.665  13.190
 3171SOL    HW111345   6.385  12.684  13.244
 3171SOL    HW211346   6.286  12.749  13.149
 3172SOL     OW11347  12.045  11.322   0.890
 3172SOL    HW111348  11.964  11.275   0.910
 3172SOL    HW211349  12.015  11.407   0.858
 3173SOL     OW11350  11.080  11.704   1.286
 3173SOL    HW111351  11.164  11.738   1.316
 3173SOL    HW211352  11.042  11.662   1.363
 3174SOL     OW11353  14.340  10.033  13.212
 3174SOL    HW111354  14.270  10.057  13.151
 3174SOL    HW211355  14.385  10.115  13.231
 3175SOL     OW11356   0.789   8.978   6.954
 3175SOL    HW111357   0.771   9.006   7.044
 3175SOL    HW211358   0.745   9.043   6.899
 3176SOL     OW11359   4.222   5.465   3.989
 3176SOL    HW111360   4.154   5.530   3.967
 3176SOL    HW211361   4.180   5.381   3.971
 3177SOL     OW11362   1.890   0.290   7.771
 3177SOL    HW111363   1.899   0.373   7.818
 3177SOL    HW211364   1.796   0.270   7.776
 3178SOL     OW11365   9.396   5.256  13.672
 3178SOL    HW111366   9.320   5.237  13.618
 3178SOL    HW211367   9.422   5.171  13.708
 3179SOL     OW11368  14.024   6.444   6.514
 3179SOL    HW111369  13.996   6.534   6.502
 3179SOL    HW211370  13.957   6.392   6.469
 3180SOL     OW11371  12.307   2.384  13.984
 3180SOL    HW111372  12.400   2.398  13.965
 3180SOL    HW211373  12.307   2.322  14.057
 3181SOL     OW11374  11.198   1.076   4.382
 3181SOL    HW111375  11.168   1.164   4.406
 3181SOL    HW211376  11.158   1.018   4.447
 3182SOL     OW11377   6.878   6.221   3.613
 3182SOL    HW111378   6.841   6.266   3.537
 3182SOL    HW211379   6.854   6.129   3.600
 3183SOL     OW11380   8.624   0.123   9.571
 3183SOL    HW111381   8.557   0.072   9.617
 3183SOL    HW211382   8.704   0.110   9.622
 3184SOL     OW11383   8.053  11.798  11.002
 3184SOL    HW111384   8.141  11.789  10.964
 3184SOL    HW211385   8.011  11.714  10.984
 3185SOL     OW11386   3.761   6.003   3.913
 3185SOL    HW111387   3.720   6.072   3.966
 3185SOL    HW211388   3.832   5.970   3.968
 3186SOL     OW11389   9.813   2.668   8.561
 3186SOL    HW111390   9.891   2.688   8.613
 3186SOL    HW211391   9.742   2.713   8.606
 3187SOL     OW11392  13.491  13.750   9.594
 3187SOL    HW111393  13.486  13.730   9.500
 3187SOL    HW211394  13.471  13.668   9.638
 3188SOL     OW11395   0.934   1.212   4.163
 3188SOL    HW111396   0.865   1.180   4.104
 3188SOL    HW211397   0.978   1.280   4.113
 3189SOL     OW11398   8.110   5.976   6.283
 3189SOL    HW111399   8.079   5.906   6.341
 3189SOL    HW211400   8.204   5.961   6.275
 3190SOL     OW11401   9.976   1.052   4.751
 3190SOL    HW111402   9.936   1.037   4.836
 3190SOL    HW211403   9.918   1.115   4.707
 3191SOL     OW11404   6.892   4.445   4.803
 3191SOL    HW111405   6.982   4.470   4.781
 3191SOL    HW211406   6.882   4.473   4.894
 3192SOL     OW11407  10.007  10.988   9.393
 3192SOL    HW111408   9.923  10.944   9.383
 3192SOL    HW211409  10.070  10.932   9.347
 3193SOL     OW11410  13.199  10.580  12.388
 3193SOL    HW111411  13.224  10.668  12.413
 3193SOL    HW211412  13.247  10.523  12.448
 3194SOL     OW11413   7.675   7.286   7.873
 3194SOL    HW111414   7.677   7.213   7.810
 3194SOL    HW211415   7.582   7.295   7.896
 3195SOL     OW11416   9.709   8.092  11.285
 3195SOL    HW111417   9.618   8.069  11.264
 3195SOL    HW211418   9.718   8.183  11.255
 3196SOL     OW11419   6.439   1.124   1.823
 3196SOL    HW111420   6.498   1.067   1.773
 3196SOL    HW211421   6.426   1.200   1.767
 3197SOL     OW11422   3.965  10.280   5.802
 3197SOL    HW111423   3.873  10.267   5.782
 3197SOL    HW211424   4.008  10.198   5.777
 3198SOL     OW11425  10.177   3.353   1.651
 3198SOL    HW111426  10.146   3.357   1.742
 3198SOL    HW211427  10.194   3.444   1.628
 3199SOL     OW11428   9.353   5.062   2.220
 3199SOL    HW111429   9.374   5.155   2.214
 3199SOL    HW211430   9.334   5.036   2.130
 3200SOL     OW11431   7.207   9.321  11.920
 3200SOL    HW111432   7.202   9.383  11.992
 3200SOL    HW211433   7.252   9.369  11.850
 3201SOL     OW11434  12.766   9.787   4.510
 3201SOL    HW111435  12.813   9.703   4.506
 3201SOL    HW211436  12.709   9.780   4.586
 3202SOL     OW11437  12.031   6.842   3.985
 3202SOL    HW111438  12.081   6.909   4.032
 3202SOL    HW211439  12.093   6.770   3.974
 3203SOL     OW11440   3.376   5.639  12.283
 3203SOL    HW111441   3.373   5.730  12.312
 3203SOL    HW211442   3.390   5.589  12.364
 3204SOL     OW11443  14.533   9.056   3.552
 3204SOL    HW111444  14.603   9.018   3.499
 3204SOL    HW211445  14.459   9.065   3.492
 3205SOL     OW11446   8.275   0.628  13.557
 3205SOL    HW111447   8.355   0.636  13.608
 3205SOL    HW211448   8.266   0.711  13.511
 3206SOL     OW11449   0.669   8.219   4.017
 3206SOL    HW111450   0.579   8.250   4.026
 3206SOL    HW211451   0.715   8.259   4.090
 3207SOL     OW11452   0.780   1.419   6.586
 3207SOL    HW111453   0.694   1.387   6.612
 3207SOL    HW211454   0.840   1.385   6.653
 3208SOL     OW11455   8.905   4.656   0.552
 3208SOL    HW111456   8.852   4.730   0.582
 3208SOL    HW211457   8.963   4.693   0.486
 3209SOL     OW11458   8.541  13.578  12.171
 3209SOL    HW111459   8.575  13.650  12.117
 3209SOL    HW211460   8.619  13.536  12.206
 3210SOL     OW11461   7.159  12.172  14.282
 3210SOL    HW111462   7.189  12.201  14.196
 3210SOL    HW211463   7.125  12.252  14.323
 3211SOL     OW11464   5.389   8.880   9.919
 3211SOL    HW111465   5.361   8.971   9.920
 3211SOL    HW211466   5.453   8.875   9.848
 3212SOL     OW11467  10.622   5.427   6.030
 3212SOL    HW111468  10.550   5.476   5.990
 3212SOL    HW211469  10.657   5.487   6.096
 3213SOL     OW11470   4.492   8.224   6.023
 3213SOL    HW111471   4.520   8.140   5.986
 3213SOL    HW211472   4.566   8.252   6.077
 3214SOL     OW11473  14.456  11.120   3.844
 3214SOL    HW111474  14.442  11.036   3.800
 3214SOL    HW211475  14.528  11.161   3.795
 3215SOL     OW11476   3.994   5.451  11.633
 3215SOL    HW111477   4.027   5.482  11.717
 3215SOL    HW211478   4.058   5.385  11.606
 3216SOL     OW11479  12.195  13.112   6.602
 3216SOL    HW111480  12.273  13.064   6.576
 3216SOL    HW211481  12.146  13.050   6.657
 3217SOL     OW11482   5.227  12.743   0.222
 3217SOL    HW111483   5.166  12.777   0.287
 3217SOL    HW211484   5.175  12.681   0.171
 3218SOL     OW11485   8.061   2.392   3.067
 3218SOL    HW111486   8.052   2.443   3.147
 3218SOL    HW211487   7.973   2.392   3.029
 3219SOL     OW11488   0.697   9.795   7.744
 3219SOL    HW111489   0.703   9.890   7.734
 3219SOL    HW211490   0.741   9.776   7.827
 3220SOL     OW11491   2.168   6.295  13.571
 3220SOL    HW111492   2.145   6.333  13.656
 3220SOL    HW211493   2.206   6.369  13.522
 3221SOL     OW11494   8.676   1.645   0.294
 3221SOL    HW111495   8.676   1.611   0.205
 3221SOL    HW211496   8.586   1.674   0.308
 3222SOL     OW11497   3.268  12.695   4.905
 3222SOL    HW111498   3.324  12.673   4.830
 3222SOL    HW211499   3.237  12.610   4.936
 3223SOL     OW11500   9.317   9.021   5.105
 3223SOL    HW111501   9.266   8.970   5.041
 3223SOL    HW211502   9.251   9.053   5.167
 3224SOL     OW11503  13.453   2.720  14.598
 3224SOL    HW111504  13.535   2.700  14.554
 3224SOL    HW211505  13.429   2.638  14.642
 3225SOL     OW11506   0.046   5.283  12.215
 3225SOL    HW111507   0.119   5.233  12.249
 3225SOL    HW211508   0.066   5.295  12.122
 3226SOL     OW11509  10.854  12.924   3.443
 3226SOL    HW111510  10.831  12.985   3.373
 3226SOL    HW211511  10.874  12.842   3.398
 3227SOL     OW11512   8.358  12.695   2.298
 3227SOL    HW111513   8.271  12.711   2.334
 3227SOL    HW211514   8.417  12.701   2.373
 3228SOL     OW11515   6.297   2.083  12.356
 3228SOL    HW111516   6.227   2.145  12.376
 3228SOL    HW211517   6.371   2.113  12.410
 3229SOL     OW11518   1.272   5.758  12.419
 3229SOL    HW111519   1.229   5.842  12.407
 3229SOL    HW211520   1.335   5.752  12.347
 3230SOL     OW11521   5.929   1.944  10.333
 3230SOL    HW111522   6.018   1.966  10.358
 3230SOL    HW211523   5.878   2.022  10.352
 3231SOL     OW11524   6.625   3.372   0.193
 3231SOL    HW111525   6.586   3.451   0.156
 3231SOL    HW211526   6.719   3.383   0.180
 3232SOL     OW11527  13.044   4.300   0.143
 3232SOL    HW111528  13.031   4.303   0.237
 3232SOL    HW211529  12.986   4.368   0.108
 3233SOL     OW11530  11.765   3.137   9.043
 3233SOL    HW111531  11.805   3.061   9.000
 3233SOL    HW211532  11.723   3.101   9.121
 3234SOL     OW11533   6.601   0.832   9.806
 3234SOL    HW111534   6.643   0.798   9.885
 3234SOL    HW211535   6.540   0.763   9.780
 3235SOL     OW11536   5.031   8.200   7.849
 3235SOL    HW111537   5.112   8.185   7.801
 3235SOL    HW211538   5.055   8.263   7.917
 3236SOL     OW11539   9.987  10.064  13.955
 3236SOL    HW111540   9.936  10.118  13.895
 3236SOL    HW211541  10.061  10.032  13.903
 3237SOL     OW11542   0.231   9.959  14.807
 3237SOL    HW111543   0.281   9.878  14.814
 3237SOL    HW211544   0.141   9.930  14.795
 3238SOL     OW11545   7.177  11.698  10.338
 3238SOL    HW111546   7.177  11.740  10.252
 3238SOL    HW211547   7.234  11.753  10.391
 3239SOL     OW11548   6.290   2.764   5.179
 3239SOL    HW111549   6.301   2.773   5.274
 3239SOL    HW211550   6.360   2.706   5.152
 3240SOL     OW11551   1.350  10.674  14.322
 3240SOL    HW111552   1.367  10.687  14.228
 3240SOL    HW211553   1.308  10.755  14.350
 3241SOL     OW11554   5.650   0.542  12.145
 3241SOL    HW111555   5.737   0.579  12.159
 3241SOL    HW211556   5.657   0.452  12.177
 3242SOL     OW11557   5.191  10.109   7.671
 3242SOL    HW111558   5.227  10.029   7.710
 3242SOL    HW211559   5.133  10.145   7.738
 3243SOL     OW11560   6.031  14.616   9.018
 3243SOL    HW111561   5.976  14.656   8.951
 3243SOL    HW211562   6.028  14.677   9.091
 3244SOL     OW11563  14.151   3.496   7.382
 3244SOL    HW111564  14.105   3.415   7.403
 3244SOL    HW211565  14.104   3.564   7.433
 3245SOL     OW11566   9.100   7.586   7.491
 3245SOL    HW111567   9.033   7.525   7.521
 3245SOL    HW211568   9.182   7.538   7.498
 3246SOL     OW11569   6.143   5.720  10.238
 3246SOL    HW111570   6.194   5.741  10.317
 3246SOL    HW211571   6.073   5.785  10.237
 3247SOL     OW11572   9.755  11.357   3.991
 3247SOL    HW111573   9.700  11.425   4.032
 3247SOL    HW211574   9.697  11.316   3.927
 3248SOL     OW11575  12.547  10.315   0.422
 3248SOL    HW111576  12.631  10.322   0.468
 3248SOL    HW211577  12.513  10.229   0.447
 3249SOL     OW11578   8.053   7.764  12.177
 3249SOL    HW111579   7.986   7.810  12.127
 3249SOL    HW211580   8.004   7.709  12.238
 3250SOL     OW11581   4.796  13.985   6.403
 3250SOL    HW111582   4.815  14.032   6.484
 3250SOL    HW211583   4.740  13.912   6.429
 3251SOL     OW11584   3.133  13.153  12.230
 3251SOL    HW111585   3.151  13.167  12.138
 3251SOL    HW211586   3.218  13.152  12.272
 3252SOL     OW11587   4.372   2.517   4.296
 3252SOL    HW111588   4.412   2.497   4.212
 3252SOL    HW211589   4.292   2.464   4.298
 3253SOL     OW11590   8.745  10.246   6.172
 3253SOL    HW111591   8.655  10.240   6.203
 3253SOL    HW211592   8.775  10.332   6.199
 3254SOL     OW11593  13.860   3.324   8.166
 3254SOL    HW111594  13.901   3.251   8.211
 3254SOL    HW211595  13.911   3.401   8.193
 3255SOL     OW11596   7.639   2.499  14.058
 3255SOL    HW111597   7.707   2.516  14.123
 3255SOL    HW211598   7.576   2.443  14.104
 3256SOL     OW11599  12.639   4.672   3.354
 3256SOL    HW111600  12.659   4.765   3.358
 3256SOL    HW211601  12.548   4.665   3.384
 3257SOL     OW11602   5.970  11.499   2.658
 3257SOL    HW111603   5.943  11.478   2.569
 3257SOL    HW211604   6.055  11.456   2.668
 3258SOL     OW11605   5.259   7.727   5.897
 3258SOL    HW111606   5.181   7.782   5.894
 3258SOL    HW211607   5.305   7.746   5.815
 3259SOL     OW11608   8.456   4.759   5.458
 3259SOL    HW111609   8.513   4.836   5.458
 3259SOL    HW211610   8.425   4.752   5.368
 3260SOL     OW11611   2.142   3.714   5.332
 3260SOL    HW111612   2.063   3.705   5.385
 3260SOL    HW211613   2.137   3.803   5.296
 3261SOL     OW11614  14.565   4.071  11.306
 3261SOL    HW111615  14.536   3.980  11.314
 3261SOL    HW211616  14.578   4.100  11.396
 3262SOL     OW11617   3.256   9.987   6.317
 3262SOL    HW111618   3.162   9.969   6.312
 3262SOL    HW211619   3.270  10.058   6.254
 3263SOL     OW11620   0.216  11.555  13.428
 3263SOL    HW111621   0.199  11.473  13.383
 3263SOL    HW211622   0.262  11.610  13.364
 3264SOL     OW11623   6.488  13.704   4.743
 3264SOL    HW111624   6.582  13.690   4.754
 3264SOL    HW211625   6.481  13.794   4.711
 3265SOL     OW11626  10.162   3.258  13.575
 3265SOL    HW111627  10.201   3.226  13.656
 3265SOL    HW211628  10.101   3.189  13.549
 3266SOL     OW11629   3.969   5.340   5.620
 3266SOL    HW111630   3.934   5.339   5.709
 3266SOL    HW211631   3.947   5.254   5.585
 3267SOL     OW11632  12.792   5.562   8.379
 3267SOL    HW111633  12.807   5.574   8.473
 3267SOL    HW211634  12.721   5.622   8.358
 3268SOL     OW11635   4.533  13.528   9.832
 3268SOL    HW111636   4.513  13.577   9.912
 3268SOL    HW211637   4.586  13.454   9.862
 3269SOL     OW11638   5.625   9.767   2.495
 3269SOL    HW111639   5.710   9.786   2.535
 3269SOL    HW211640   5.561   9.800   2.558
 3270SOL     OW11641  10.154   9.008   6.481
 3270SOL    HW111642  10.150   9.097   6.515
 3270SOL    HW211643  10.213   8.962   6.541
 3271SOL     OW11644   2.005   0.582  10.998
 3271SOL    HW111645   2.070   0.649  11.019
 3271SOL    HW211646   2.003   0.525  11.075
 3272SOL     OW11647  12.178   5.864   3.710
 3272SOL    HW111648  12.111   5.846   3.643
 3272SOL    HW211649  12.129   5.867   3.792
 3273SOL     OW11650   9.605   9.151   2.335
 3273SOL    HW111651   9.639   9.072   2.377
 3273SOL    HW211652   9.577   9.122   2.248
 3274SOL     OW11653   4.232  10.851  11.186
 3274SOL    HW111654   4.278  10.782  11.137
 3274SOL    HW211655   4.280  10.931  11.166
 3275SOL     OW11656   4.559  11.135   7.758
 3275SOL    HW111657   4.536  11.205   7.819
 3275SOL    HW211658   4.512  11.157   7.677
 3276SOL     OW11659   8.506  14.402   4.116
 3276SOL    HW111660   8.442  14.368   4.053
 3276SOL    HW211661   8.471  14.486   4.144
 3277SOL     OW11662   3.398  13.119  13.436
 3277SOL    HW111663   3.444  13.038  13.458
 3277SOL    HW211664   3.457  13.189  13.465
 3278SOL     OW11665   5.928   9.850   3.787
 3278SOL    HW111666   5.964   9.788   3.723
 3278SOL    HW211667   6.004   9.903   3.814
 3279SOL     OW11668   5.149   6.374   3.700
 3279SOL    HW111669   5.099   6.308   3.653
 3279SOL    HW211670   5.180   6.329   3.779
 3280SOL     OW11671   4.659  10.777  13.834
 3280SOL    HW111672   4.608  10.708  13.793
 3280SOL    HW211673   4.602  10.810  13.904
 3281SOL     OW11674  11.755   1.513   6.932
 3281SOL    HW111675  11.728   1.438   6.984
 3281SOL    HW211676  11.686   1.578   6.947
 3282SOL     OW11677   4.945   8.813   9.167
 3282SOL    HW111678   5.014   8.879   9.168
 3282SOL    HW211679   4.935   8.790   9.074
 3283SOL     OW11680  11.212   5.255   0.899
 3283SOL    HW111681  11.233   5.273   0.808
 3283SOL    HW211682  11.266   5.316   0.949
 3284SOL     OW11683  10.517   8.475   2.911
 3284SOL    HW111684  10.517   8.385   2.942
 3284SOL    HW211685  10.540   8.527   2.988
 3285SOL     OW11686   7.255   7.516   7.180
 3285SOL    HW111687   7.296   7.470   7.253
 3285SOL    HW211688   7.186   7.570   7.220
 3286SOL     OW11689   2.381  14.527  13.703
 3286SOL    HW111690   2.337  14.612  13.694
 3286SOL    HW211691   2.313  14.463  13.681
 3287SOL     OW11692   6.392   7.931  11.737
 3287SOL    HW111693   6.368   7.997  11.671
 3287SOL    HW211694   6.308   7.896  11.767
 3288SOL     OW11695   9.507   4.758  14.405
 3288SOL    HW111696   9.446   4.731  14.337
 3288SOL    HW211697   9.462   4.740  14.487
 3289SOL     OW11698   1.247  11.942   5.294
 3289SOL    HW111699   1.211  11.997   5.224
 3289SOL    HW211700   1.341  11.959   5.292
 3290SOL     OW11701  14.593   2.880   2.111
 3290SOL    HW111702  14.652   2.895   2.037
 3290SOL    HW211703  14.529   2.951   2.105
 3291SOL     OW11704  11.318   4.687  12.913
 3291SOL    HW111705  11.271   4.751  12.967
 3291SOL    HW211706  11.353   4.739  12.840
 3292SOL     OW11707   4.402   0.495  10.892
 3292SOL    HW111708   4.395   0.588  10.871
 3292SOL    HW211709   4.491   0.485  10.926
 3293SOL     OW11710   1.513   1.726   2.431
 3293SOL    HW111711   1.519   1.679   2.348
 3293SOL    HW211712   1.443   1.681   2.479
 3294SOL     OW11713   6.760  10.789   4.098
 3294SOL    HW111714   6.721  10.772   4.013
 3294SOL    HW211715   6.834  10.728   4.103
 3295SOL     OW11716   6.282   4.285   9.021
 3295SOL    HW111717   6.304   4.280   9.114
 3295SOL    HW211718   6.190   4.309   9.019
 3296SOL     OW11719   3.256  11.903  12.860
 3296SOL    HW111720   3.167  11.919  12.889
 3296SOL    HW211721   3.286  11.987  12.825
 3297SOL     OW11722   5.035  10.761   6.489
 3297SOL    HW111723   5.111  10.816   6.508
 3297SOL    HW211724   5.037  10.694   6.557
 3298SOL     OW11725   0.227   1.301   3.746
 3298SOL    HW111726   0.139   1.332   3.723
 3298SOL    HW211727   0.249   1.349   3.826
 3299SOL     OW11728   5.670   4.749   6.799
 3299SOL    HW111729   5.718   4.667   6.808
 3299SOL    HW211730   5.600   4.743   6.863
 3300SOL     OW11731  11.818   5.507   0.810
 3300SOL    HW111732  11.779   5.537   0.892
 3300SOL    HW211733  11.901   5.554   0.804
 3301SOL     OW11734   3.838  11.372   9.122
 3301SOL    HW111735   3.750  11.380   9.159
 3301SOL    HW211736   3.896  11.396   9.194
 3302SOL     OW11737   5.455   3.986   2.932
 3302SOL    HW111738   5.419   3.903   2.900
 3302SOL    HW211739   5.453   3.977   3.027
 3303SOL     OW11740   3.932   1.891   5.701
 3303SOL    HW111741   3.934   1.857   5.791
 3303SOL    HW211742   3.907   1.816   5.648
 3304SOL     OW11743  10.897   5.590  13.898
 3304SOL    HW111744  10.949   5.614  13.974
 3304SOL    HW211745  10.877   5.497  13.911
 3305SOL     OW11746   6.678   0.794   0.902
 3305SOL    HW111747   6.614   0.861   0.925
 3305SOL    HW211748   6.640   0.749   0.827
 3306SOL     OW11749   7.175   0.539   0.568
 3306SOL    HW111750   7.095   0.550   0.620
 3306SOL    HW211751   7.153   0.574   0.482
 3307SOL     OW11752   8.393   9.306   0.252
 3307SOL    HW111753   8.351   9.258   0.181
 3307SOL    HW211754   8.333   9.297   0.326
 3308SOL     OW11755   6.500   8.456   6.368
 3308SOL    HW111756   6.538   8.374   6.334
 3308SOL    HW211757   6.407   8.451   6.344
 3309SOL     OW11758   0.855   6.746   9.142
 3309SOL    HW111759   0.948   6.745   9.163
 3309SOL    HW211760   0.838   6.835   9.112
 3310SOL     OW11761  14.594   3.211   7.715
 3310SOL    HW111762  14.529   3.197   7.784
 3310SOL    HW211763  14.571   3.296   7.677
 3311SOL     OW11764  11.564  10.302   6.948
 3311SOL    HW111765  11.590  10.382   6.993
 3311SOL    HW211766  11.544  10.330   6.859
 3312SOL     OW11767   4.203   1.027   5.994
 3312SOL    HW111768   4.144   0.978   5.937
 3312SOL    HW211769   4.146   1.091   6.037
 3313SOL     OW11770   7.208   4.348  12.803
 3313SOL    HW111771   7.189   4.327  12.894
 3313SOL    HW211772   7.157   4.427  12.785
 3314SOL     OW11773   7.053  11.539  11.137
 3314SOL    HW111774   7.129  11.573  11.185
 3314SOL    HW211775   6.985  11.605  11.150
 3315SOL     OW11776   9.949  14.394  11.196
 3315SOL    HW111777   9.981  14.328  11.135
 3315SOL    HW211778   9.985  14.477  11.164
 3316SOL     OW11779   2.552  11.095   6.057
 3316SOL    HW111780   2.482  11.156   6.081
 3316SOL    HW211781   2.507  11.019   6.021
 3317SOL     OW11782  14.743   0.513   0.869
 3317SOL    HW111783  14.679   0.450   0.835
 3317SOL    HW211784  14.693   0.593   0.884
 3318SOL     OW11785   6.170  12.960  11.201
 3318SOL    HW111786   6.228  12.958  11.277
 3318SOL    HW211787   6.224  12.927  11.129
 3319SOL     OW11788  10.616   7.997   8.555
 3319SOL    HW111789  10.630   7.952   8.471
 3319SOL    HW211790  10.523   7.988   8.571
 3320SOL     OW11791   7.272  10.412   5.065
 3320SOL    HW111792   7.340  10.420   4.998
 3320SOL    HW211793   7.227  10.496   5.064
 3321SOL     OW11794   7.550  14.046   7.324
 3321SOL    HW111795   7.499  14.003   7.256
 3321SOL    HW211796   7.635  14.062   7.284
 3322SOL     OW11797   1.505   4.158  12.028
 3322SOL    HW111798   1.581   4.186  11.978
 3322SOL    HW211799   1.541   4.123  12.110
 3323SOL     OW11800   8.588  12.970   3.533
 3323SOL    HW111801   8.637  13.048   3.558
 3323SOL    HW211802   8.646  12.924   3.472
 3324SOL     OW11803   8.075  12.667   6.572
 3324SOL    HW111804   8.038  12.709   6.494
 3324SOL    HW211805   8.135  12.732   6.608
 3325SOL     OW11806   0.504  11.419  10.857
 3325SOL    HW111807   0.478  11.412  10.948
 3325SOL    HW211808   0.538  11.508  10.848
 3326SOL     OW11809   8.790   2.160   7.421
 3326SOL    HW111810   8.719   2.193   7.476
 3326SOL    HW211811   8.864   2.216   7.441
 3327SOL     OW11812   7.575   8.700  10.606
 3327SOL    HW111813   7.626   8.710  10.686
 3327SOL    HW211814   7.636   8.721  10.536
 3328SOL     OW11815  10.787   3.195   4.808
 3328SOL    HW111816  10.792   3.283   4.846
 3328SOL    HW211817  10.788   3.210   4.714
 3329SOL     OW11818   4.506   1.952   8.030
 3329SOL    HW111819   4.447   1.898   7.977
 3329SOL    HW211820   4.488   1.926   8.120
 3330SOL     OW11821   1.990   9.551  13.230
 3330SOL    HW111822   1.985   9.645  13.213
 3330SOL    HW211823   1.903   9.518  13.209
 3331SOL     OW11824   8.083   0.630   1.063
 3331SOL    HW111825   8.133   0.658   1.140
 3331SOL    HW211826   8.001   0.677   1.070
 3332SOL     OW11827   4.222  14.278   9.736
 3332SOL    HW111828   4.250  14.238   9.653
 3332SOL    HW211829   4.303  14.299   9.781
 3333SOL     OW11830   8.163  14.401  12.492
 3333SOL    HW111831   8.243  14.352  12.510
 3333SOL    HW211832   8.108  14.386  12.570
 3334SOL     OW11833   4.434   1.887   3.604
 3334SOL    HW111834   4.455   1.829   3.531
 3334SOL    HW211835   4.503   1.871   3.669
 3335SOL     OW11836   9.238  11.724   6.178
 3335SOL    HW111837   9.324  11.766   6.165
 3335SOL    HW211838   9.175  11.794   6.159
 3336SOL     OW11839   4.706   4.146   8.521
 3336SOL    HW111840   4.784   4.188   8.556
 3336SOL    HW211841   4.693   4.186   8.435
 3337SOL     OW11842   9.900  10.045   7.691
 3337SOL    HW111843   9.836  10.062   7.622
 3337SOL    HW211844   9.931   9.956   7.674
 3338SOL     OW11845  13.388  14.344   0.613
 3338SOL    HW111846  13.308  14.293   0.603
 3338SOL    HW211847  13.452  14.282   0.648
 3339SOL     OW11848   5.642   6.982  13.606
 3339SOL    HW111849   5.606   7.032  13.680
 3339SOL    HW211850   5.682   7.048  13.549
 3340SOL     OW11851   5.569  13.849   9.295
 3340SOL    HW111852   5.619  13.927   9.319
 3340SOL    HW211853   5.536  13.868   9.207
 3341SOL     OW11854   4.434   7.968   6.637
 3341SOL    HW111855   4.518   7.974   6.591
 3341SOL    HW211856   4.442   8.030   6.709
 3342SOL     OW11857  10.652   3.961   9.354
 3342SOL    HW111858  10.639   3.897   9.424
 3342SOL    HW211859  10.584   3.941   9.290
 3343SOL     OW11860   3.730   2.245  10.136
 3343SOL    HW111861   3.668   2.173  10.148
 3343SOL    HW211862   3.712   2.304  10.210
 3344SOL     OW11863  12.493   3.888  13.608
 3344SOL    HW111864  12.525   3.936  13.684
 3344SOL    HW211865  12.440   3.817  13.644
 3345SOL     OW11866  11.286   9.911  13.200
 3345SOL    HW111867  11.242   9.959  13.130
 3345SOL    HW211868  11.310   9.828  13.161
 3346SOL     OW11869  14.809   8.923  13.274
 3346SOL    HW111870   0.011   8.977  13.285
 3346SOL    HW211871  14.807   8.904  13.180
 3347SOL     OW11872   9.055  12.778   8.202
 3347SOL    HW111873   9.111  12.805   8.129
 3347SOL    HW211874   9.000  12.708   8.166
 3348SOL     OW11875  11.929   4.407  13.509
 3348SOL    HW111876  11.857   4.344  13.509
 3348SOL    HW211877  11.966   4.402  13.598
 3349SOL     OW11878   5.044   6.555  12.017
 3349SOL    HW111879   4.951   6.539  12.004
 3349SOL    HW211880   5.052   6.650  12.026
 3350SOL     OW11881   8.912  11.442  12.647
 3350SOL    HW111882   8.857  11.410  12.576
 3350SOL    HW211883   9.001  11.433  12.615
 3351SOL     OW11884  11.255   4.767   9.565
 3351SOL    HW111885  11.162   4.782   9.586
 3351SOL    HW211886  11.302   4.806   9.639
 3352SOL     OW11887  12.003   5.009   7.897
 3352SOL    HW111888  12.010   4.919   7.866
 3352SOL    HW211889  11.917   5.014   7.938
 3353SOL     OW11890  10.139  10.434  10.493
 3353SOL    HW111891  10.190  10.435  10.574
 3353SOL    HW211892  10.204  10.439  10.423
 3354SOL     OW11893   4.156   7.138   0.880
 3354SOL    HW111894   4.185   7.171   0.795
 3354SOL    HW211895   4.149   7.216   0.935
 3355SOL     OW11896   4.095  14.728  14.013
 3355SOL    HW111897   4.073  14.639  14.038
 3355SOL    HW211898   4.136  14.720  13.927
 3356SOL     OW11899   3.556  11.037   4.793
 3356SOL    HW111900   3.605  11.053   4.874
 3356SOL    HW211901   3.543  10.942   4.792
 3357SOL     OW11902   1.154   8.895   0.105
 3357SOL    HW111903   1.199   8.871   0.185
 3357SOL    HW211904   1.194   8.841   0.037
 3358SOL     OW11905   1.970   0.949   0.170
 3358SOL    HW111906   1.891   0.997   0.147
 3358SOL    HW211907   2.041   1.007   0.143
 3359SOL     OW11908  13.924   3.726   8.105
 3359SOL    HW111909  13.961   3.651   8.153
 3359SOL    HW211910  13.924   3.797   8.169
 3360SOL     OW11911  13.565   8.197   4.256
 3360SOL    HW111912  13.514   8.120   4.278
 3360SOL    HW211913  13.606   8.177   4.172
 3361SOL     OW11914   9.750   5.473   6.872
 3361SOL    HW111915   9.722   5.388   6.908
 3361SOL    HW211916   9.794   5.451   6.790
 3362SOL     OW11917   4.421   6.161  10.047
 3362SOL    HW111918   4.421   6.220  10.122
 3362SOL    HW211919   4.385   6.079  10.081
 3363SOL     OW11920   0.153   5.349   7.438
 3363SOL    HW111921   0.241   5.324   7.410
 3363SOL    HW211922   0.150   5.444   7.430
 3364SOL     OW11923   6.407   9.092   4.059
 3364SOL    HW111924   6.499   9.116   4.053
 3364SOL    HW211925   6.385   9.060   3.971
 3365SOL     OW11926   0.386   9.005  11.286
 3365SOL    HW111927   0.479   9.024  11.269
 3365SOL    HW211928   0.387   8.921  11.333
 3366SOL     OW11929  13.172  11.976   8.987
 3366SOL    HW111930  13.235  12.005   9.052
 3366SOL    HW211931  13.223  11.966   8.906
 3367SOL     OW11932   2.855   5.773   1.983
 3367SOL    HW111933   2.867   5.750   1.891
 3367SOL    HW211934   2.853   5.869   1.983
 3368SOL     OW11935  11.464   0.189  13.710
 3368SOL    HW111936  11.540   0.131  13.714
 3368SOL    HW211937  11.397   0.145  13.762
 3369SOL     OW11938  12.909   4.571   2.813
 3369SOL    HW111939  12.906   4.475   2.810
 3369SOL    HW211940  12.863   4.593   2.894
 3370SOL     OW11941  10.985  12.210   6.129
 3370SOL    HW111942  11.010  12.152   6.057
 3370SOL    HW211943  10.898  12.243   6.104
 3371SOL     OW11944   1.210   6.794   7.192
 3371SOL    HW111945   1.133   6.779   7.137
 3371SOL    HW211946   1.174   6.814   7.278
 3372SOL     OW11947   5.524  13.536  14.752
 3372SOL    HW111948   5.600  13.528  14.695
 3372SOL    HW211949   5.535  13.621  14.795
 3373SOL     OW11950   7.818  11.133   4.460
 3373SOL    HW111951   7.836  11.187   4.383
 3373SOL    HW211952   7.846  11.045   4.433
 3374SOL     OW11953   6.327  13.591   8.250
 3374SOL    HW111954   6.253  13.620   8.303
 3374SOL    HW211955   6.396  13.571   8.313
 3375SOL     OW11956   1.612   7.174  10.681
 3375SOL    HW111957   1.662   7.177  10.599
 3375SOL    HW211958   1.659   7.232  10.740
 3376SOL     OW11959   5.528  14.399  12.627
 3376SOL    HW111960   5.522  14.451  12.547
 3376SOL    HW211961   5.620  14.374  12.632
 3377SOL     OW11962   2.136   2.139   3.416
 3377SOL    HW111963   2.165   2.177   3.499
 3377SOL    HW211964   2.079   2.067   3.441
 3378SOL     OW11965   7.805   8.251   3.464
 3378SOL    HW111966   7.769   8.193   3.397
 3378SOL    HW211967   7.775   8.339   3.440
 3379SOL     OW11968  11.637  12.480  10.871
 3379SOL    HW111969  11.594  12.511  10.791
 3379SOL    HW211970  11.603  12.536  10.940
 3380SOL     OW11971  11.820   9.939   5.802
 3380SOL    HW111972  11.890   9.956   5.865
 3380SOL    HW211973  11.757   9.884   5.850
 3381SOL     OW11974  11.039  11.872  11.195
 3381SOL    HW111975  11.101  11.933  11.156
 3381SOL    HW211976  10.962  11.926  11.216
 3382SOL     OW11977   6.663   6.154  14.716
 3382SOL    HW111978   6.753   6.179  14.694
 3382SOL    HW211979   6.636   6.097  14.644
 3383SOL     OW11980   1.842   9.376   5.493
 3383SOL    HW111981   1.796   9.448   5.537
 3383SOL    HW211982   1.790   9.298   5.515
 3384SOL     OW11983  10.353   5.308   4.701
 3384SOL    HW111984  10.400   5.343   4.625
 3384SOL    HW211985  10.385   5.359   4.775
 3385SOL     OW11986  13.455   3.888   9.715
 3385SOL    HW111987  13.421   3.818   9.661
 3385SOL    HW211988  13.413   3.875   9.801
 3386SOL     OW11989   9.389   1.237   3.331
 3386SOL    HW111990   9.401   1.332   3.324
 3386SOL    HW211991   9.465   1.200   3.287
 3387SOL     OW11992   6.790  13.043   1.636
 3387SOL    HW111993   6.861  13.064   1.697
 3387SOL    HW211994   6.825  13.068   1.550
 3388SOL     OW11995   5.880   2.274  13.271
 3388SOL    HW111996   5.966   2.316  13.259
 3388SOL    HW211997   5.827   2.310  13.200
 3389SOL     OW11998   9.972   1.711  13.521
 3389SOL    HW111999   9.969   1.796  13.564
 3389SOL    HW212000  10.047   1.717  13.461
 3390SOL     OW12001  14.229   4.290   8.896
 3390SOL    HW112002  14.196   4.254   8.814
 3390SOL    HW212003  14.162   4.352   8.924
 3391SOL     OW12004   8.607   1.245   8.986
 3391SOL    HW112005   8.690   1.246   9.033
 3391SOL    HW212006   8.628   1.210   8.900
 3392SOL     OW12007   6.355  12.954   3.222
 3392SOL    HW112008   6.276  13.006   3.211
 3392SOL    HW212009   6.366  12.946   3.317
 3393SOL     OW12010  14.696   3.462   3.145
 3393SOL    HW112011  14.649   3.414   3.076
 3393SOL    HW212012  14.778   3.414   3.155
 3394SOL     OW12013   2.397   2.022  11.263
 3394SOL    HW112014   2.347   2.055  11.189
 3394SOL    HW212015   2.336   1.965  11.310
 3395SOL     OW12016   6.259  10.921   1.624
 3395SOL    HW112017   6.180  10.881   1.660
 3395SOL    HW212018   6.251  10.907   1.529
 3396SOL     OW12019   4.514   7.064   5.784
 3396SOL    HW112020   4.509   7.007   5.708
 3396SOL    HW212021   4.467   7.143   5.758
 3397SOL     OW12022   6.201   5.786   9.950
 3397SOL    HW112023   6.118   5.786   9.903
 3397SOL    HW212024   6.183   5.741  10.032
 3398SOL     OW12025  13.554   1.397   9.678
 3398SOL    HW112026  13.605   1.460   9.626
 3398SOL    HW212027  13.504   1.451   9.739
 3399SOL     OW12028   4.013   3.076   3.193
 3399SOL    HW112029   4.025   3.170   3.175
 3399SOL    HW212030   3.925   3.070   3.230
 3400SOL     OW12031  11.079  13.718  11.107
 3400SOL    HW112032  11.161  13.668  11.102
 3400SOL    HW212033  11.090  13.787  11.041
 3401SOL     OW12034   5.182   6.882   4.188
 3401SOL    HW112035   5.251   6.833   4.142
 3401SOL    HW212036   5.106   6.824   4.185
 3402SOL     OW12037   2.448   8.678  13.526
 3402SOL    HW112038   2.434   8.695  13.432
 3402SOL    HW212039   2.540   8.654  13.533
 3403SOL     OW12040   5.046   1.329  14.555
 3403SOL    HW112041   4.990   1.284  14.619
 3403SOL    HW212042   5.095   1.259  14.513
 3404SOL     OW12043   3.674   9.877  14.151
 3404SOL    HW112044   3.735   9.895  14.080
 3404SOL    HW212045   3.679   9.783  14.165
 3405SOL     OW12046   9.921  13.999   3.865
 3405SOL    HW112047   9.992  13.961   3.812
 3405SOL    HW212048   9.911  13.938   3.938
 3406SOL     OW12049  13.160   5.552   8.958
 3406SOL    HW112050  13.115   5.631   8.989
 3406SOL    HW212051  13.094   5.483   8.966
 3407SOL     OW12052   5.380   8.750  13.787
 3407SOL    HW112053   5.449   8.723  13.727
 3407SOL    HW212054   5.423   8.808  13.849
 3408SOL     OW12055   6.433  11.150   1.571
 3408SOL    HW112056   6.395  11.062   1.570
 3408SOL    HW212057   6.426  11.180   1.480
 3409SOL     OW12058   4.389  14.315   4.001
 3409SOL    HW112059   4.463  14.259   3.975
 3409SOL    HW212060   4.323  14.300   3.934
 3410SOL     OW12061   3.088  14.656   0.338
 3410SOL    HW112062   3.135  14.666   0.255
 3410SOL    HW212063   3.156  14.648   0.404
 3411SOL     OW12064  12.084  12.509   9.469
 3411SOL    HW112065  12.028  12.491   9.394
 3411SOL    HW212066  12.139  12.583   9.442
 3412SOL     OW12067   6.889   9.034   4.848
 3412SOL    HW112068   6.809   9.061   4.894
 3412SOL    HW212069   6.945   8.997   4.916
 3413SOL     OW12070   9.974   2.363   4.244
 3413SOL    HW112071   9.994   2.277   4.207
 3413SOL    HW212072  10.008   2.425   4.180
 3414SOL     OW12073   9.091  12.865   1.700
 3414SOL    HW112074   9.131  12.815   1.629
 3414SOL    HW212075   9.156  12.863   1.771
 3415SOL     OW12076   7.414  12.150   8.998
 3415SOL    HW112077   7.366  12.162   8.916
 3415SOL    HW212078   7.453  12.062   8.990
 3416SOL     OW12079  14.190  11.041   6.362
 3416SOL    HW112080  14.280  11.010   6.361
 3416SOL    HW212081  14.166  11.051   6.270
 3417SOL     OW12082   1.606   2.419   4.435
 3417SOL    HW112083   1.664   2.398   4.508
 3417SOL    HW212084   1.521   2.382   4.461
 3418SOL     OW12085   1.548   9.227   4.844
 3418SOL    HW112086   1.488   9.282   4.793
 3418SOL    HW212087   1.634   9.268   4.830
 3419SOL     OW12088  10.305   6.341   2.011
 3419SOL    HW112089  10.262   6.424   1.993
 3419SOL    HW212090  10.389   6.346   1.965
 3420SOL     OW12091   6.128   5.703   1.690
 3420SOL    HW112092   6.155   5.781   1.737
 3420SOL    HW212093   6.079   5.651   1.755
 3421SOL     OW12094   9.741   3.650   8.485
 3421SOL    HW112095   9.696   3.567   8.470
 3421SOL    HW212096   9.833   3.626   8.494
 3422SOL     OW12097   6.430   0.350   4.693
 3422SOL    HW112098   6.513   0.339   4.648
 3422SOL    HW212099   6.417   0.445   4.695
 3423SOL     OW12100  11.760  10.302   6.246
 3423SOL    HW112101  11.757  10.257   6.162
 3423SOL    HW212102  11.838  10.266   6.289
 3424SOL     OW12103  12.067  11.833  11.222
 3424SOL    HW112104  12.066  11.785  11.139
 3424SOL    HW212105  12.085  11.767  11.288
 3425SOL     OW12106  13.287   2.444   7.892
 3425SOL    HW112107  13.313   2.466   7.982
 3425SOL    HW212108  13.246   2.358   7.899
 3426SOL     OW12109   4.052   2.121   0.532
 3426SOL    HW112110   4.097   2.109   0.616
 3426SOL    HW212111   3.992   2.194   0.548
 3427SOL     OW12112   2.489   4.970   0.672
 3427SOL    HW112113   2.432   4.897   0.696
 3427SOL    HW212114   2.558   4.969   0.738
 3428SOL     OW12115   1.762   6.170   3.738
 3428SOL    HW112116   1.737   6.226   3.812
 3428SOL    HW212117   1.688   6.175   3.678
 3429SOL     OW12118   3.149   5.916   5.928
 3429SOL    HW112119   3.219   5.929   5.864
 3429SOL    HW212120   3.194   5.920   6.013
 3430SOL     OW12121  14.808  14.427   5.384
 3430SOL    HW112122  14.801  14.499   5.447
 3430SOL    HW212123  14.717  14.402   5.367
 3431SOL     OW12124   1.713   7.890  14.484
 3431SOL    HW112125   1.777   7.820  14.501
 3431SOL    HW212126   1.699   7.887  14.389
 3432SOL     OW12127   2.469  10.493  12.623
 3432SOL    HW112128   2.435  10.422  12.568
 3432SOL    HW212129   2.411  10.493  12.700
 3433SOL     OW12130   1.023   5.379   2.462
 3433SOL    HW112131   1.008   5.379   2.368
 3433SOL    HW212132   0.953   5.325   2.498
 3434SOL     OW12133  11.815  13.678   3.270
 3434SOL    HW112134  11.793  13.641   3.184
 3434SOL    HW212135  11.756  13.753   3.280
 3435SOL     OW12136   2.302   4.039   6.771
 3435SOL    HW112137   2.293   4.055   6.677
 3435SOL    HW212138   2.220   3.997   6.796
 3436SOL     OW12139   7.902  14.756   4.548
 3436SOL    HW112140   7.983  14.808   4.547
 3436SOL    HW212141   7.927  14.674   4.592
 3437SOL     OW12142   3.247   1.360   0.160
 3437SOL    HW112143   3.224   1.443   0.119
 3437SOL    HW212144   3.162   1.322   0.185
 3438SOL     OW12145   4.397   3.666   2.931
 3438SOL    HW112146   4.360   3.754   2.929
 3438SOL    HW212147   4.469   3.672   2.994
 3439SOL     OW12148   8.404   3.973  11.685
 3439SOL    HW112149   8.499   3.972  11.687
 3439SOL    HW212150   8.378   3.896  11.735
 3440SOL     OW12151  13.405   2.951   5.960
 3440SOL    HW112152  13.481   2.945   6.018
 3440SOL    HW212153  13.330   2.939   6.017
 3441SOL     OW12154  12.762  14.625  14.105
 3441SOL    HW112155  12.827  14.620  14.175
 3441SOL    HW212156  12.812  14.614  14.025
 3442SOL     OW12157  11.880   5.936  14.188
 3442SOL    HW112158  11.867   5.922  14.094
 3442SOL    HW212159  11.841   6.022  14.205
 3443SOL     OW12160   2.607   5.033  13.784
 3443SOL    HW112161   2.561   5.031  13.867
 3443SOL    HW212162   2.599   4.943  13.750
 3444SOL     OW12163   8.645   8.684  10.526
 3444SOL    HW112164   8.676   8.691  10.436
 3444SOL    HW212165   8.559   8.644  10.519
 3445SOL     OW12166  12.626   7.752   1.891
 3445SOL    HW112167  12.668   7.807   1.825
 3445SOL    HW212168  12.698   7.699   1.927
 3446SOL     OW12169   8.987   1.782  12.816
 3446SOL    HW112170   9.037   1.722  12.761
 3446SOL    HW212171   9.041   1.796  12.893
 3447SOL     OW12172  10.291   9.426   4.941
 3447SOL    HW112173  10.355   9.481   4.896
 3447SOL    HW212174  10.344   9.367   4.995
 3448SOL     OW12175  11.463  13.516   7.874
 3448SOL    HW112176  11.548  13.494   7.912
 3448SOL    HW212177  11.400  13.468   7.928
 3449SOL     OW12178   8.114   0.669   7.598
 3449SOL    HW112179   8.205   0.648   7.580
 3449SOL    HW212180   8.082   0.594   7.648
 3450SOL     OW12181   1.061  11.379   5.712
 3450SOL    HW112182   0.979  11.332   5.723
 3450SOL    HW212183   1.053  11.423   5.627
 3451SOL     OW12184  11.847  10.292   9.861
 3451SOL    HW112185  11.752  10.281   9.853
 3451SOL    HW212186  11.881  10.203   9.859
 3452SOL     OW12187  11.863   0.768  13.778
 3452SOL    HW112188  11.883   0.709  13.706
 3452SOL    HW212189  11.891   0.854  13.748
 3453SOL     OW12190  14.579  11.267   8.527
 3453SOL    HW112191  14.550  11.183   8.491
 3453SOL    HW212192  14.642  11.244   8.594
 3454SOL     OW12193   3.379  11.908  10.327
 3454SOL    HW112194   3.307  11.971  10.336
 3454SOL    HW212195   3.440  11.951  10.267
 3455SOL     OW12196   0.855  10.998   3.206
 3455SOL    HW112197   0.854  11.078   3.259
 3455SOL    HW212198   0.856  11.030   3.116
 3456SOL     OW12199   5.773  11.074  10.543
 3456SOL    HW112200   5.677  11.067  10.547
 3456SOL    HW212201   5.789  11.159  10.503
 3457SOL     OW12202  13.540  14.372   2.363
 3457SOL    HW112203  13.553  14.423   2.283
 3457SOL    HW212204  13.625  14.373   2.407
 3458SOL     OW12205   6.735   8.985   1.368
 3458SOL    HW112206   6.752   8.907   1.419
 3458SOL    HW212207   6.639   8.988   1.359
 3459SOL     OW12208  14.234   0.833   8.178
 3459SOL    HW112209  14.326   0.852   8.161
 3459SOL    HW212210  14.188   0.914   8.156
 3460SOL     OW12211   3.094   9.699   4.178
 3460SOL    HW112212   3.023   9.651   4.220
 3460SOL    HW212213   3.100   9.781   4.226
 3461SOL     OW12214   4.739  13.939   9.870
 3461SOL    HW112215   4.757  13.898   9.955
 3461SOL    HW212216   4.661  13.992   9.886
 3462SOL     OW12217   7.065   7.731  10.100
 3462SOL    HW112218   7.142   7.756  10.150
 3462SOL    HW212219   6.994   7.729  10.164
 3463SOL     OW12220   7.810  11.353  13.419
 3463SOL    HW112221   7.809  11.311  13.505
 3463SOL    HW212222   7.903  11.368  13.401
 3464SOL     OW12223  12.876   9.120  14.438
 3464SOL    HW112224  12.781   9.117  14.441
 3464SOL    HW212225  12.903   9.028  14.441
 3465SOL     OW12226   5.446   1.327   9.679
 3465SOL    HW112227   5.446   1.414   9.637
 3465SOL    HW212228   5.376   1.333   9.745
 3466SOL     OW12229   1.714   2.050   1.071
 3466SOL    HW112230   1.649   2.021   1.135
 3466SOL    HW212231   1.673   2.122   1.025
 3467SOL     OW12232   8.578  10.082   8.905
 3467SOL    HW112233   8.655  10.058   8.957
 3467SOL    HW212234   8.599  10.051   8.816
 3468SOL     OW12235  11.992  11.820   5.845
 3468SOL    HW112236  11.942  11.746   5.879
 3468SOL    HW212237  11.930  11.893   5.844
 3469SOL     OW12238  11.987  11.871  14.042
 3469SOL    HW112239  11.943  11.837  13.964
 3469SOL    HW212240  11.927  11.935  14.077
 3470SOL     OW12241   5.484  12.977   2.484
 3470SOL    HW112242   5.419  12.944   2.545
 3470SOL    HW212243   5.466  12.932   2.402
 3471SOL     OW12244   7.305   9.859  10.621
 3471SOL    HW112245   7.234   9.903  10.666
 3471SOL    HW212246   7.293   9.766  10.642
 3472SOL     OW12247  10.639  10.149   4.133
 3472SOL    HW112248  10.547  10.146   4.157
 3472SOL    HW212249  10.678  10.212   4.194
 3473SOL     OW12250   9.459   4.570  12.992
 3473SOL    HW112251   9.437   4.656  12.957
 3473SOL    HW212252   9.525   4.536  12.931
 3474SOL     OW12253   5.221   9.483  12.464
 3474SOL    HW112254   5.192   9.415  12.403
 3474SOL    HW212255   5.188   9.455  12.549
 3475SOL     OW12256  10.855  10.490   5.071
 3475SOL    HW112257  10.785  10.442   5.115
 3475SOL    HW212258  10.822  10.579   5.063
 3476SOL     OW12259   3.812   0.486   1.248
 3476SOL    HW112260   3.876   0.474   1.178
 3476SOL    HW212261   3.727   0.484   1.203
 3477SOL     OW12262   5.593   4.042  13.311
 3477SOL    HW112263   5.596   3.986  13.389
 3477SOL    HW212264   5.668   4.013  13.258
 3478SOL     OW12265   1.773  14.509   4.852
 3478SOL    HW112266   1.844  14.471   4.904
 3478SOL    HW212267   1.723  14.433   4.822
 3479SOL     OW12268   8.702  10.901   5.622
 3479SOL    HW112269   8.715  10.851   5.703
 3479SOL    HW212270   8.659  10.840   5.562
 3480SOL     OW12271  12.548   9.186   1.590
 3480SOL    HW112272  12.468   9.156   1.632
 3480SOL    HW212273  12.610   9.201   1.661
 3481SOL     OW12274  12.865  13.687   5.866
 3481SOL    HW112275  12.939  13.731   5.825
 3481SOL    HW212276  12.810  13.659   5.792
 3482SOL     OW12277   2.170   8.120  11.666
 3482SOL    HW112278   2.095   8.143  11.720
 3482SOL    HW212279   2.210   8.045  11.711
 3483SOL     OW12280  14.863   3.666  10.552
 3483SOL    HW112281   0.038   3.627  10.623
 3483SOL    HW212282  14.782   3.696  10.593
 3484SOL     OW12283  13.070   5.076  13.393
 3484SOL    HW112284  13.049   5.008  13.457
 3484SOL    HW212285  12.986   5.111  13.365
 3485SOL     OW12286   2.026   6.620   0.427
 3485SOL    HW112287   1.967   6.679   0.474
 3485SOL    HW212288   1.968   6.570   0.369
 3486SOL     OW12289   9.831   0.788   7.742
 3486SOL    HW112290   9.753   0.748   7.704
 3486SOL    HW212291   9.854   0.731   7.815
 3487SOL     OW12292  12.586   3.889  11.640
 3487SOL    HW112293  12.670   3.862  11.603
 3487SOL    HW212294  12.583   3.848  11.726
 3488SOL     OW12295  12.693   5.594  11.190
 3488SOL    HW112296  12.672   5.658  11.258
 3488SOL    HW212297  12.695   5.510  11.236
 3489SOL     OW12298   5.268   9.060   7.623
 3489SOL    HW112299   5.256   9.070   7.529
 3489SOL    HW212300   5.255   9.148   7.659
 3490SOL     OW12301   3.781  10.481  11.404
 3490SOL    HW112302   3.800  10.468  11.312
 3490SOL    HW212303   3.830  10.559  11.428
 3491SOL     OW12304  11.533   5.912  12.129
 3491SOL    HW112305  11.564   5.947  12.213
 3491SOL    HW212306  11.554   5.980  12.065
 3492SOL     OW12307   7.677   1.981  10.482
 3492SOL    HW112308   7.630   2.040  10.424
 3492SOL    HW212309   7.684   2.029  10.565
 3493SOL     OW12310  12.973   2.328   0.470
 3493SOL    HW112311  12.959   2.414   0.429
 3493SOL    HW212312  13.058   2.336   0.513
 3494SOL     OW12313  13.860   4.606   2.764
 3494SOL    HW112314  13.808   4.577   2.840
 3494SOL    HW212315  13.867   4.527   2.709
 3495SOL     OW12316   9.874  12.153   8.730
 3495SOL    HW112317   9.897  12.245   8.743
 3495SOL    HW212318   9.946  12.119   8.675
 3496SOL     OW12319   6.341   2.227  11.571
 3496SOL    HW112320   6.266   2.265  11.524
 3496SOL    HW212321   6.310   2.216  11.660
 3497SOL     OW12322  10.472   9.436   7.695
 3497SOL    HW112323  10.494   9.497   7.765
 3497SOL    HW212324  10.466   9.351   7.738
 3498SOL     OW12325   5.878   6.373   0.504
 3498SOL    HW112326   5.974   6.366   0.504
 3498SOL    HW212327   5.850   6.311   0.571
 3499SOL     OW12328   9.008   4.391  10.553
 3499SOL    HW112329   8.959   4.309  10.559
 3499SOL    HW212330   9.021   4.419  10.644
 3500SOL     OW12331   7.224  13.635   8.964
 3500SOL    HW112332   7.189  13.663   8.880
 3500SOL    HW212333   7.306  13.684   8.973
 3501SOL     OW12334  13.252   8.392   3.398
 3501SOL    HW112335  13.254   8.485   3.420
 3501SOL    HW212336  13.343   8.369   3.379
 3502SOL     OW12337  13.449   6.106  14.649
 3502SOL    HW112338  13.400   6.129  14.571
 3502SOL    HW212339  13.519   6.172  14.655
 3503SOL     OW12340   1.945  13.858   9.347
 3503SOL    HW112341   1.915  13.887   9.260
 3503SOL    HW212342   1.911  13.769   9.355
 3504SOL     OW12343   8.734   8.940   9.435
 3504SOL    HW112344   8.760   9.014   9.379
 3504SOL    HW212345   8.735   8.865   9.376
 3505SOL     OW12346  10.909   4.015  12.856
 3505SOL    HW112347  10.832   4.065  12.830
 3505SOL    HW212348  10.935   4.052  12.940
 3506SOL     OW12349  10.388   1.069  12.908
 3506SOL    HW112350  10.372   1.091  13.000
 3506SOL    HW212351  10.325   0.999  12.890
 3507SOL     OW12352   9.403   7.205   8.516
 3507SOL    HW112353   9.371   7.193   8.427
 3507SOL    HW212354   9.460   7.130   8.531
 3508SOL     OW12355  14.379   7.974  13.653
 3508SOL    HW112356  14.474   7.981  13.648
 3508SOL    HW212357  14.352   7.956  13.563
 3509SOL     OW12358   0.248  12.582   2.523
 3509SOL    HW112359   0.327  12.598   2.576
 3509SOL    HW212360   0.196  12.521   2.576
 3510SOL     OW12361   4.031  11.372   6.970
 3510SOL    HW112362   4.041  11.465   6.990
 3510SOL    HW212363   3.939  11.354   6.988
 3511SOL     OW12364  10.466  13.382  10.723
 3511SOL    HW112365  10.453  13.287  10.720
 3511SOL    HW212366  10.559  13.393  10.745
 3512SOL     OW12367  11.560  11.308   8.972
 3512SOL    HW112368  11.586  11.282   9.060
 3512SOL    HW212369  11.494  11.376   8.985
 3513SOL     OW12370   3.741   3.986   4.056
 3513SOL    HW112371   3.793   3.907   4.073
 3513SOL    HW212372   3.665   3.978   4.113
 3514SOL     OW12373   7.409  10.241   6.782
 3514SOL    HW112374   7.413  10.265   6.875
 3514SOL    HW212375   7.372  10.153   6.782
 3515SOL     OW12376   0.696   4.246   2.907
 3515SOL    HW112377   0.612   4.216   2.942
 3515SOL    HW212378   0.741   4.284   2.983
 3516SOL     OW12379   1.724   3.187   9.324
 3516SOL    HW112380   1.788   3.258   9.318
 3516SOL    HW212381   1.639   3.231   9.316
 3517SOL     OW12382  13.961   8.442  10.297
 3517SOL    HW112383  13.934   8.409  10.211
 3517SOL    HW212384  14.011   8.521  10.278
 3518SOL     OW12385  10.602   3.765   1.349
 3518SOL    HW112386  10.550   3.818   1.409
 3518SOL    HW212387  10.574   3.675   1.365
 3519SOL     OW12388  10.716   5.711   3.361
 3519SOL    HW112389  10.629   5.712   3.321
 3519SOL    HW212390  10.717   5.787   3.419
 3520SOL     OW12391   8.159   7.568  14.065
 3520SOL    HW112392   8.240   7.520  14.050
 3520SOL    HW212393   8.099   7.534  13.998
 3521SOL     OW12394   2.493   6.674   0.768
 3521SOL    HW112395   2.550   6.619   0.715
 3521SOL    HW212396   2.405   6.643   0.750
 3522SOL     OW12397   9.304  11.681   1.698
 3522SOL    HW112398   9.376  11.738   1.725
 3522SOL    HW212399   9.225  11.730   1.720
 3523SOL     OW12400   6.616   8.361   6.949
 3523SOL    HW112401   6.527   8.395   6.948
 3523SOL    HW212402   6.606   8.267   6.966
 3524SOL     OW12403   2.369   3.413  11.492
 3524SOL    HW112404   2.419   3.493  11.507
 3524SOL    HW212405   2.305   3.438  11.425
 3525SOL     OW12406   1.252  14.585  11.524
 3525SOL    HW112407   1.219  14.552  11.441
 3525SOL    HW212408   1.334  14.537  11.538
 3526SOL     OW12409   4.460  11.634  14.482
 3526SOL    HW112410   4.403  11.642  14.405
 3526SOL    HW212411   4.499  11.547  14.475
 3527SOL     OW12412   7.191   5.005   5.941
 3527SOL    HW112413   7.194   4.998   6.036
 3527SOL    HW212414   7.181   5.099   5.924
 3528SOL     OW12415   5.547  10.282   0.008
 3528SOL    HW112416   5.554  10.263  14.790
 3528SOL    HW212417   5.631  10.255   0.044
 3529SOL     OW12418   1.754   7.623  12.364
 3529SOL    HW112419   1.824   7.613  12.429
 3529SOL    HW212420   1.796   7.603  12.281
 3530SOL     OW12421   3.967  14.306   1.636
 3530SOL    HW112422   3.992  14.396   1.616
 3530SOL    HW212423   3.906  14.315   1.709
 3531SOL     OW12424   3.787  13.783  10.313
 3531SOL    HW112425   3.768  13.877  10.324
 3531SOL    HW212426   3.708  13.739  10.343
 3532SOL     OW12427   3.702   9.162   7.152
 3532SOL    HW112428   3.653   9.086   7.121
 3532SOL    HW212429   3.638   9.232   7.156
 3533SOL     OW12430  14.073  10.319  10.048
 3533SOL    HW112431  14.013  10.246  10.055
 3533SOL    HW212432  14.063  10.367  10.130
 3534SOL     OW12433  14.253  13.823  12.397
 3534SOL    HW112434  14.330  13.775  12.428
 3534SOL    HW212435  14.279  13.915  12.402
 3535SOL     OW12436  13.341  10.458   8.015
 3535SOL    HW112437  13.279  10.423   7.951
 3535SOL    HW212438  13.289  10.472   8.094
 3536SOL     OW12439  12.934  14.673  11.623
 3536SOL    HW112440  12.908  14.671  11.531
 3536SOL    HW212441  12.932  14.766  11.645
 3537SOL     OW12442   2.272  13.699  12.255
 3537SOL    HW112443   2.233  13.682  12.341
 3537SOL    HW212444   2.339  13.631  12.246
 3538SOL     OW12445   6.698   6.966  11.852
 3538SOL    HW112446   6.766   6.916  11.809
 3538SOL    HW212447   6.735   7.054  11.863
 3539SOL     OW12448  12.782   2.968   6.966
 3539SOL    HW112449  12.871   2.974   6.933
 3539SOL    HW212450  12.787   2.909   7.041
 3540SOL     OW12451   3.236   2.120   4.109
 3540SOL    HW112452   3.277   2.206   4.094
 3540SOL    HW212453   3.145   2.141   4.130
 3541SOL     OW12454   1.847   8.646  14.008
 3541SOL    HW112455   1.774   8.584  14.007
 3541SOL    HW212456   1.924   8.592  14.027
 3542SOL     OW12457   5.300  13.982   5.883
 3542SOL    HW112458   5.269  13.904   5.929
 3542SOL    HW212459   5.356  13.948   5.813
 3543SOL     OW12460   9.950   6.049   3.131
 3543SOL    HW112461   9.861   6.019   3.111
 3543SOL    HW212462   9.948   6.072   3.224
 3544SOL     OW12463   9.126  10.398   6.345
 3544SOL    HW112464   9.076  10.457   6.290
 3544SOL    HW212465   9.102  10.423   6.435
 3545SOL     OW12466  11.290   6.877   2.870
 3545SOL    HW112467  11.356   6.911   2.809
 3545SOL    HW212468  11.277   6.786   2.842
 3546SOL     OW12469   1.566   1.002   0.199
 3546SOL    HW112470   1.575   0.914   0.236
 3546SOL    HW212471   1.649   1.018   0.153
 3547SOL     OW12472  14.703  11.231   0.291
 3547SOL    HW112473  14.626  11.283   0.311
 3547SOL    HW212474  14.684  11.192   0.205
 3548SOL     OW12475  14.399  12.813  11.103
 3548SOL    HW112476  14.308  12.835  11.087
 3548SOL    HW212477  14.426  12.766  11.024
 3549SOL     OW12478  14.250  11.521   3.260
 3549SOL    HW112479  14.190  11.549   3.191
 3549SOL    HW212480  14.249  11.592   3.323
 3550SOL     OW12481  10.028   4.535  13.422
 3550SOL    HW112482  10.007   4.538  13.329
 3550SOL    HW212483  10.057   4.623  13.443
 3551SOL     OW12484   2.679   8.998   4.478
 3551SOL    HW112485   2.657   8.971   4.389
 3551SOL    HW212486   2.774   9.002   4.479
 3552SOL     OW12487   2.399   0.828  14.655
 3552SOL    HW112488   2.440   0.862  14.735
 3552SOL    HW212489   2.398   0.733  14.667
 3553SOL     OW12490   3.853   8.635   6.961
 3553SOL    HW112491   3.776   8.593   6.922
 3553SOL    HW212492   3.817   8.704   7.017
 3554SOL     OW12493  10.709  11.576   2.425
 3554SOL    HW112494  10.764  11.598   2.350
 3554SOL    HW212495  10.703  11.481   2.423
 3555SOL     OW12496   1.547   1.899   5.550
 3555SOL    HW112497   1.517   1.924   5.462
 3555SOL    HW212498   1.495   1.822   5.572
 3556SOL     OW12499  11.440  14.429  12.948
 3556SOL    HW112500  11.391  14.363  12.899
 3556SOL    HW212501  11.373  14.488  12.982
 3557SOL     OW12502   3.312   2.842  13.804
 3557SOL    HW112503   3.259   2.863  13.727
 3557SOL    HW212504   3.374   2.914  13.811
 3558SOL     OW12505   3.496   4.382   3.562
 3558SOL    HW112506   3.420   4.421   3.519
 3558SOL    HW212507   3.524   4.313   3.502
 3559SOL     OW12508  10.370   1.947  10.225
 3559SOL    HW112509  10.369   1.975  10.317
 3559SOL    HW212510  10.422   2.014  10.180
 3560SOL     OW12511  12.164   9.920   8.710
 3560SOL    HW112512  12.182   9.883   8.796
 3560SOL    HW212513  12.072   9.899   8.694
 3561SOL     OW12514   3.870  11.309   4.017
 3561SOL    HW112515   3.886  11.216   4.035
 3561SOL    HW212516   3.894  11.320   3.925
 3562SOL     OW12517   3.790   7.810  12.118
 3562SOL    HW112518   3.879   7.786  12.144
 3562SOL    HW212519   3.754   7.731  12.078
 3563SOL     OW12520   5.128  11.397   1.098
 3563SOL    HW112521   5.073  11.398   1.020
 3563SOL    HW212522   5.204  11.450   1.075
 3564SOL     OW12523   4.677   2.831  12.398
 3564SOL    HW112524   4.659   2.912  12.351
 3564SOL    HW212525   4.647   2.762  12.339
 3565SOL     OW12526   5.961  14.427   7.390
 3565SOL    HW112527   6.025  14.467   7.331
 3565SOL    HW212528   5.911  14.502   7.424
 3566SOL     OW12529   5.091   7.024   9.504
 3566SOL    HW112530   5.132   7.110   9.502
 3566SOL    HW212531   5.128   6.982   9.581
 3567SOL     OW12532   5.246   2.687   4.785
 3567SOL    HW112533   5.237   2.625   4.857
 3567SOL    HW212534   5.209   2.769   4.819
 3568SOL     OW12535  12.962   5.687  12.369
 3568SOL    HW112536  13.053   5.666  12.389
 3568SOL    HW212537  12.958   5.690  12.273
 3569SOL     OW12538   9.573   3.544   2.222
 3569SOL    HW112539   9.605   3.485   2.154
 3569SOL    HW212540   9.639   3.613   2.227
 3570SOL     OW12541   9.384  13.114  12.210
 3570SOL    HW112542   9.342  13.033  12.180
 3570SOL    HW212543   9.421  13.153  12.131
 3571SOL     OW12544   3.848   1.393   2.715
 3571SOL    HW112545   3.806   1.461   2.767
 3571SOL    HW212546   3.856   1.431   2.628
 3572SOL     OW12547   0.232   2.501   1.535
 3572SOL    HW112548   0.220   2.426   1.477
 3572SOL    HW212549   0.159   2.495   1.597
 3573SOL     OW12550  13.381  12.948   4.685
 3573SOL    HW112551  13.461  12.905   4.655
 3573SOL    HW212552  13.337  12.883   4.738
 3574SOL     OW12553   1.647   8.579  11.236
 3574SOL    HW112554   1.690   8.665  11.236
 3574SOL    HW212555   1.607   8.572  11.323
 3575SOL     OW12556   4.847   3.021   6.025
 3575SOL    HW112557   4.861   2.926   6.026
 3575SOL    HW212558   4.870   3.049   6.114
 3576SOL     OW12559  12.686   8.322   6.970
 3576SOL    HW112560  12.634   8.386   7.019
 3576SOL    HW212561  12.701   8.364   6.885
 3577SOL     OW12562  13.915  13.149   3.684
 3577SOL    HW112563  13.846  13.166   3.748
 3577SOL    HW212564  13.890  13.201   3.607
 3578SOL     OW12565  14.846  10.647  11.465
 3578SOL    HW112566  14.791  10.722  11.485
 3578SOL    HW212567  14.787  10.572  11.468
 3579SOL     OW12568  10.527   3.319  13.807
 3579SOL    HW112569  10.492   3.232  13.827
 3579SOL    HW212570  10.492   3.375  13.876
 3580SOL     OW12571   6.796   1.648  14.796
 3580SOL    HW112572   6.866   1.592  14.833
 3580SOL    HW212573   6.819   1.736  14.825
 3581SOL     OW12574  13.038   8.219   5.182
 3581SOL    HW112575  13.096   8.165   5.237
 3581SOL    HW212576  12.958   8.228   5.233
 3582SOL     OW12577   8.136   4.287  11.011
 3582SOL    HW112578   8.120   4.237  11.091
 3582SOL    HW212579   8.133   4.378  11.038
 3583SOL     OW12580   2.947  10.122   6.946
 3583SOL    HW112581   2.948  10.118   6.851
 3583SOL    HW212582   3.032  10.088   6.973
 3584SOL     OW12583   2.876   2.252   9.625
 3584SOL    HW112584   2.899   2.193   9.553
 3584SOL    HW212585   2.875   2.339   9.585
 3585SOL     OW12586  12.923   5.442   6.716
 3585SOL    HW112587  12.967   5.356   6.711
 3585SOL    HW212588  12.961   5.492   6.644
 3586SOL     OW12589   1.853  10.278   3.064
 3586SOL    HW112590   1.785  10.233   3.114
 3586SOL    HW212591   1.804  10.332   3.002
 3587SOL     OW12592  12.748   6.175   6.740
 3587SOL    HW112593  12.813   6.114   6.705
 3587SOL    HW212594  12.671   6.121   6.759
 3588SOL     OW12595  13.828   7.667   6.373
 3588SOL    HW112596  13.815   7.572   6.375
 3588SOL    HW212597  13.878   7.682   6.293
 3589SOL     OW12598  13.747  14.261   1.070
 3589SOL    HW112599  13.663  14.301   1.093
 3589SOL    HW212600  13.785  14.319   1.004
 3590SOL     OW12601   7.285   0.379   9.349
 3590SOL    HW112602   7.226   0.310   9.378
 3590SOL    HW212603   7.227   0.449   9.318
 3591SOL     OW12604   9.840  14.665  14.158
 3591SOL    HW112605   9.901  14.686  14.229
 3591SOL    HW212606   9.823  14.749  14.115
 3592SOL     OW12607   2.798   9.453   0.287
 3592SOL    HW112608   2.754   9.411   0.213
 3592SOL    HW212609   2.778   9.546   0.276
 3593SOL     OW12610  11.112   9.528  12.724
 3593SOL    HW112611  11.185   9.498  12.777
 3593SOL    HW212612  11.034   9.498  12.771
 3594SOL     OW12613   5.277   9.081  13.711
 3594SOL    HW112614   5.345   9.014  13.706
 3594SOL    HW212615   5.196   9.034  13.692
 3595SOL     OW12616  11.021   5.986  10.478
 3595SOL    HW112617  10.938   5.972  10.523
 3595SOL    HW212618  11.024   5.918  10.410
 3596SOL     OW12619   2.803   9.944   0.567
 3596SOL    HW112620   2.860   9.923   0.642
 3596SOL    HW212621   2.754  10.021   0.595
 3597SOL     OW12622   5.643   7.345  13.300
 3597SOL    HW112623   5.558   7.302  13.294
 3597SOL    HW212624   5.666   7.367  13.210
 3598SOL     OW12625  11.477   2.443   0.490
 3598SOL    HW112626  11.557   2.494   0.474
 3598SOL    HW212627  11.421   2.461   0.415
 3599SOL     OW12628   8.687   7.264   2.931
 3599SOL    HW112629   8.661   7.351   2.963
 3599SOL    HW212630   8.617   7.206   2.962
 3600SOL     OW12631   4.842  12.543  13.076
 3600SOL    HW112632   4.907  12.489  13.121
 3600SOL    HW212633   4.872  12.546  12.985
 3601SOL     OW12634   9.153  10.000   7.778
 3601SOL    HW112635   9.206  10.080   7.783
 3601SOL    HW212636   9.080  10.023   7.722
 3602SOL     OW12637  10.043   9.460  11.883
 3602SOL    HW112638   9.973   9.415  11.931
 3602SOL    HW212639   9.997   9.527  11.832
 3603SOL     OW12640   6.642  11.106   6.863
 3603SOL    HW112641   6.585  11.101   6.940
 3603SOL    HW212642   6.692  11.186   6.875
 3604SOL     OW12643   3.866  14.276   9.208
 3604SOL    HW112644   3.858  14.362   9.165
 3604SOL    HW212645   3.823  14.288   9.293
 3605SOL     OW12646   3.146   8.470   2.212
 3605SOL    HW112647   3.100   8.473   2.128
 3605SOL    HW212648   3.192   8.554   2.216
 3606SOL     OW12649   3.799  13.155   9.520
 3606SOL    HW112650   3.817  13.231   9.465
 3606SOL    HW212651   3.852  13.170   9.599
 3607SOL     OW12652   2.490   7.311   9.635
 3607SOL    HW112653   2.514   7.391   9.681
 3607SOL    HW212654   2.397   7.298   9.656
 3608SOL     OW12655  13.651   0.193   3.873
 3608SOL    HW112656  13.670   0.099   3.865
 3608SOL    HW212657  13.691   0.233   3.796
 3609SOL     OW12658   1.244   1.500  11.057
 3609SOL    HW112659   1.245   1.481  11.151
 3609SOL    HW212660   1.166   1.555  11.044
 3610SOL     OW12661   0.705   7.316   4.979
 3610SOL    HW112662   0.750   7.265   5.045
 3610SOL    HW212663   0.700   7.404   5.016
 3611SOL     OW12664   3.336   8.964  11.550
 3611SOL    HW112665   3.291   9.048  11.551
 3611SOL    HW212666   3.320   8.929  11.462
 3612SOL     OW12667   4.358   1.300   5.167
 3612SOL    HW112668   4.389   1.388   5.145
 3612SOL    HW212669   4.366   1.250   5.086
 3613SOL     OW12670   4.522  10.525   2.243
 3613SOL    HW112671   4.562  10.586   2.181
 3613SOL    HW212672   4.585  10.454   2.252
 3614SOL     OW12673   0.221   7.824   2.649
 3614SOL    HW112674   0.310   7.840   2.681
 3614SOL    HW212675   0.215   7.876   2.569
 3615SOL     OW12676   1.056  13.707   0.286
 3615SOL    HW112677   1.043  13.795   0.251
 3615SOL    HW212678   1.144  13.710   0.324
 3616SOL     OW12679   3.889  13.535  11.631
 3616SOL    HW112680   3.832  13.518  11.706
 3616SOL    HW212681   3.848  13.608  11.585
 3617SOL     OW12682   8.897  14.691  12.403
 3617SOL    HW112683   8.910  14.765  12.344
 3617SOL    HW212684   8.943  14.717  12.483
 3618SOL     OW12685  13.640   0.955  12.152
 3618SOL    HW112686  13.574   1.013  12.116
 3618SOL    HW212687  13.600   0.920  12.232
 3619SOL     OW12688   6.464   5.562   0.559
 3619SOL    HW112689   6.481   5.583   0.651
 3619SOL    HW212690   6.550   5.562   0.518
 3620SOL     OW12691   4.458  14.714  14.005
 3620SOL    HW112692   4.518  14.648  14.038
 3620SOL    HW212693   4.389  14.719  14.071
 3621SOL     OW12694   9.064   2.408   1.976
 3621SOL    HW112695   9.040   2.491   1.935
 3621SOL    HW212696   9.125   2.367   1.914
 3622SOL     OW12697   2.783   6.534   7.507
 3622SOL    HW112698   2.808   6.626   7.502
 3622SOL    HW212699   2.692   6.532   7.477
 3623SOL     OW12700   8.021   5.716   4.842
 3623SOL    HW112701   8.111   5.743   4.862
 3623SOL    HW212702   7.966   5.785   4.879
 3624SOL     OW12703  13.049   3.699   1.346
 3624SOL    HW112704  13.097   3.684   1.428
 3624SOL    HW212705  12.994   3.621   1.336
 3625SOL     OW12706  10.291   5.097  13.982
 3625SOL    HW112707  10.296   5.077  13.888
 3625SOL    HW212708  10.366   5.156  13.997
 3626SOL     OW12709   8.693   2.409  12.451
 3626SOL    HW112710   8.750   2.365  12.388
 3626SOL    HW212711   8.734   2.393  12.536
 3627SOL     OW12712   0.184   6.387  13.085
 3627SOL    HW112713   0.260   6.379  13.143
 3627SOL    HW212714   0.209   6.338  13.006
 3628SOL     OW12715   1.523   5.296   7.715
 3628SOL    HW112716   1.584   5.316   7.785
 3628SOL    HW212717   1.549   5.354   7.643
 3629SOL     OW12718   7.081   6.553  11.328
 3629SOL    HW112719   7.010   6.490  11.333
 3629SOL    HW212720   7.097   6.565  11.234
 3630SOL     OW12721   7.528   4.406   8.247
 3630SOL    HW112722   7.615   4.417   8.208
 3630SOL    HW212723   7.484   4.344   8.188
 3631SOL     OW12724   1.815   4.967  10.329
 3631SOL    HW112725   1.892   4.912  10.335
 3631SOL    HW212726   1.788   4.961  10.237
 3632SOL     OW12727   9.701  11.871  10.024
 3632SOL    HW112728   9.740  11.955  10.050
 3632SOL    HW212729   9.652  11.842  10.101
 3633SOL     OW12730   0.239   8.580   7.043
 3633SOL    HW112731   0.286   8.551   6.964
 3633SOL    HW212732   0.165   8.520   7.049
 3634SOL     OW12733   0.912  10.744   1.494
 3634SOL    HW112734   0.878  10.832   1.477
 3634SOL    HW212735   0.835  10.686   1.485
 3635SOL     OW12736   9.609   3.537  12.343
 3635SOL    HW112737   9.587   3.553  12.435
 3635SOL    HW212738   9.602   3.442  12.333
 3636SOL     OW12739  13.707   5.066   2.517
 3636SOL    HW112740  13.632   5.096   2.569
 3636SOL    HW212741  13.726   4.979   2.551
 3637SOL     OW12742  11.442  13.326   7.448
 3637SOL    HW112743  11.419  13.233   7.450
 3637SOL    HW212744  11.376  13.366   7.391
 3638SOL     OW12745   6.922  10.787   3.172
 3638SOL    HW112746   6.885  10.804   3.085
 3638SOL    HW212747   6.984  10.716   3.158
 3639SOL     OW12748   5.154   4.410  11.571
 3639SOL    HW112749   5.182   4.480  11.630
 3639SOL    HW212750   5.236   4.370  11.541
 3640SOL     OW12751   2.669   1.906   4.963
 3640SOL    HW112752   2.755   1.890   5.003
 3640SOL    HW212753   2.689   1.922   4.871
 3641SOL     OW12754   7.787  12.293   8.773
 3641SOL    HW112755   7.835  12.273   8.853
 3641SOL    HW212756   7.809  12.223   8.712
 3642SOL     OW12757   1.864   4.655   0.819
 3642SOL    HW112758   1.812   4.588   0.774
 3642SOL    HW212759   1.906   4.608   0.891
 3643SOL     OW12760   3.909   0.089   7.915
 3643SOL    HW112761   3.887   0.096   8.008
 3643SOL    HW212762   3.826   0.074   7.872
 3644SOL     OW12763   2.868   5.807  14.528
 3644SOL    HW112764   2.945   5.821  14.583
 3644SOL    HW212765   2.848   5.894  14.493
 3645SOL     OW12766  11.598   2.485   3.856
 3645SOL    HW112767  11.507   2.503   3.831
 3645SOL    HW212768  11.606   2.523   3.944
 3646SOL     OW12769   7.518   6.830   3.601
 3646SOL    HW112770   7.602   6.873   3.615
 3646SOL    HW212771   7.471   6.842   3.684
 3647SOL     OW12772  13.405   0.335   2.573
 3647SOL    HW112773  13.452   0.384   2.505
 3647SOL    HW212774  13.457   0.349   2.652
 3648SOL     OW12775   6.479  14.466   9.056
 3648SOL    HW112776   6.503  14.479   9.147
 3648SOL    HW212777   6.392  14.426   9.059
 3649SOL     OW12778  11.190   6.869   4.276
 3649SOL    HW112779  11.256   6.920   4.231
 3649SOL    HW212780  11.198   6.895   4.368
 3650SOL     OW12781   6.091   8.507   2.212
 3650SOL    HW112782   6.155   8.464   2.269
 3650SOL    HW212783   6.122   8.597   2.204
 3651SOL     OW12784  13.748  13.167  11.029
 3651SOL    HW112785  13.824  13.222  11.010
 3651SOL    HW212786  13.754  13.149  11.123
 3652SOL     OW12787  10.709  11.124   0.168
 3652SOL    HW112788  10.764  11.164   0.101
 3652SOL    HW212789  10.710  11.187   0.241
 3653SOL     OW12790   1.258   3.603   9.822
 3653SOL    HW112791   1.232   3.679   9.770
 3653SOL    HW212792   1.296   3.543   9.759
 3654SOL     OW12793   3.404  12.358   1.480
 3654SOL    HW112794   3.476  12.382   1.538
 3654SOL    HW212795   3.374  12.274   1.514
 3655SOL     OW12796   3.443   0.646  13.841
 3655SOL    HW112797   3.384   0.721  13.833
 3655SOL    HW212798   3.527   0.684  13.867
 3656SOL     OW12799   9.222  14.767   7.128
 3656SOL    HW112800   9.154  14.762   7.061
 3656SOL    HW212801   9.191  14.835   7.188
 3657SOL     OW12802   7.709  11.966   9.005
 3657SOL    HW112803   7.622  11.928   9.006
 3657SOL    HW212804   7.760  11.910   8.947
 3658SOL     OW12805  14.508  12.990   7.383
 3658SOL    HW112806  14.553  13.050   7.325
 3658SOL    HW212807  14.559  12.909   7.379
 3659SOL     OW12808  13.992   9.316  10.113
 3659SOL    HW112809  13.977   9.224  10.092
 3659SOL    HW212810  13.992   9.320  10.209
 3660SOL     OW12811  11.163   1.070  10.419
 3660SOL    HW112812  11.123   1.074  10.332
 3660SOL    HW212813  11.110   1.129  10.473
 3661SOL     OW12814   4.892   0.406   5.765
 3661SOL    HW112815   4.983   0.426   5.746
 3661SOL    HW212816   4.890   0.312   5.779
 3662SOL     OW12817   8.937   2.090  14.038
 3662SOL    HW112818   9.015   2.074  13.985
 3662SOL    HW212819   8.947   2.179  14.070
 3663SOL     OW12820  11.148  14.744  14.163
 3663SOL    HW112821  11.227  14.795  14.182
 3663SOL    HW212822  11.170  14.655  14.192
 3664SOL     OW12823   8.470   8.854   4.174
 3664SOL    HW112824   8.518   8.866   4.092
 3664SOL    HW212825   8.399   8.794   4.152
 3665SOL     OW12826   5.274  14.547   9.579
 3665SOL    HW112827   5.365  14.545   9.609
 3665SOL    HW212828   5.243  14.458   9.589
 3666SOL     OW12829   0.837   5.234   7.155
 3666SOL    HW112830   0.902   5.258   7.089
 3666SOL    HW212831   0.875   5.158   7.199
 3667SOL     OW12832   3.642   9.108  14.141
 3667SOL    HW112833   3.714   9.154  14.183
 3667SOL    HW212834   3.564   9.158  14.165
 3668SOL     OW12835  13.478   8.272   0.304
 3668SOL    HW112836  13.428   8.192   0.322
 3668SOL    HW212837  13.411   8.339   0.288
 3669SOL     OW12838   7.026  10.570   5.080
 3669SOL    HW112839   7.064  10.603   4.999
 3669SOL    HW212840   6.995  10.648   5.126
 3670SOL     OW12841  14.026   7.285   7.710
 3670SOL    HW112842  14.056   7.311   7.624
 3670SOL    HW212843  14.087   7.216   7.738
 3671SOL     OW12844   0.075   7.220   3.002
 3671SOL    HW112845   0.007   7.193   2.940
 3671SOL    HW212846   0.088   7.143   3.058
 3672SOL     OW12847   2.203   8.043  13.883
 3672SOL    HW112848   2.169   7.975  13.825
 3672SOL    HW212849   2.298   8.035  13.877
 3673SOL     OW12850   8.712  12.382   2.323
 3673SOL    HW112851   8.621  12.406   2.339
 3673SOL    HW212852   8.706  12.303   2.269
 3674SOL     OW12853   4.400   5.671   7.305
 3674SOL    HW112854   4.376   5.593   7.256
 3674SOL    HW212855   4.470   5.642   7.364
 3675SOL     OW12856   7.992   5.364  10.987
 3675SOL    HW112857   7.931   5.437  11.001
 3675SOL    HW212858   8.078   5.406  10.979
 3676SOL     OW12859   1.566   3.569   8.437
 3676SOL    HW112860   1.476   3.586   8.412
 3676SOL    HW212861   1.559   3.515   8.517
 3677SOL     OW12862   1.487   5.823   5.147
 3677SOL    HW112863   1.483   5.875   5.067
 3677SOL    HW212864   1.405   5.774   5.148
 3678SOL     OW12865   6.828   4.673   0.375
 3678SOL    HW112866   6.919   4.702   0.366
 3678SOL    HW212867   6.787   4.739   0.431
 3679SOL     OW12868   5.094   8.255  10.546
 3679SOL    HW112869   5.016   8.283  10.498
 3679SOL    HW212870   5.159   8.322  10.527
 3680SOL     OW12871  12.436   7.911   7.879
 3680SOL    HW112872  12.455   7.905   7.973
 3680SOL    HW212873  12.389   7.830   7.859
 3681SOL     OW12874  14.237  14.434   4.154
 3681SOL    HW112875  14.312  14.429   4.095
 3681SOL    HW212876  14.206  14.344   4.161
 3682SOL     OW12877   1.969   3.903   3.375
 3682SOL    HW112878   1.925   3.973   3.423
 3682SOL    HW212879   1.901   3.863   3.321
 3683SOL     OW12880   7.154  11.973   3.271
 3683SOL    HW112881   7.199  12.010   3.194
 3683SOL    HW212882   7.143  12.048   3.330
 3684SOL     OW12883  13.159   5.121   5.176
 3684SOL    HW112884  13.126   5.118   5.265
 3684SOL    HW212885  13.216   5.198   5.174
 3685SOL     OW12886   7.284   6.453   6.789
 3685SOL    HW112887   7.340   6.530   6.802
 3685SOL    HW212888   7.262   6.425   6.878
 3686SOL     OW12889   8.127   8.129   8.016
 3686SOL    HW112890   8.151   8.122   7.924
 3686SOL    HW212891   8.188   8.193   8.052
 3687SOL     OW12892  13.982   2.256   6.318
 3687SOL    HW112893  14.067   2.291   6.291
 3687SOL    HW212894  13.999   2.162   6.332
 3688SOL     OW12895   3.026   7.511   2.765
 3688SOL    HW112896   2.976   7.588   2.738
 3688SOL    HW212897   2.982   7.480   2.844
 3689SOL     OW12898   7.381   7.650  12.571
 3689SOL    HW112899   7.461   7.615  12.532
 3689SOL    HW212900   7.311   7.597  12.533
 3690SOL     OW12901   0.096   7.263  11.294
 3690SOL    HW112902   0.031   7.326  11.326
 3690SOL    HW212903   0.149   7.243  11.371
 3691SOL     OW12904  13.505   3.168  10.230
 3691SOL    HW112905  13.440   3.098  10.238
 3691SOL    HW212906  13.512   3.204  10.318
 3692SOL     OW12907   9.691   2.041   2.127
 3692SOL    HW112908   9.745   2.031   2.049
 3692SOL    HW212909   9.710   2.130   2.157
 3693SOL     OW12910   3.571  11.747   7.511
 3693SOL    HW112911   3.542  11.656   7.507
 3693SOL    HW212912   3.628  11.751   7.588
 3694SOL     OW12913   1.634   1.482   8.995
 3694SOL    HW112914   1.636   1.392   9.028
 3694SOL    HW212915   1.545   1.513   9.014
 3695SOL     OW12916   6.969   1.939  12.986
 3695SOL    HW112917   7.058   1.966  13.009
 3695SOL    HW212918   6.912   1.996  13.039
 3696SOL     OW12919   2.450  12.139  13.029
 3696SOL    HW112920   2.371  12.187  13.050
 3696SOL    HW212921   2.464  12.154  12.936
 3697SOL     OW12922   2.404   9.314  13.648
 3697SOL    HW112923   2.356   9.233  13.632
 3697SOL    HW212924   2.460   9.294  13.723
 3698SOL     OW12925   2.712   7.670  11.871
 3698SOL    HW112926   2.788   7.640  11.821
 3698SOL    HW212927   2.688   7.596  11.926
 3699SOL     OW12928   5.957  11.811   3.326
 3699SOL    HW112929   5.880  11.867   3.326
 3699SOL    HW212930   6.008  11.839   3.402
 3700SOL     OW12931   8.812   0.801  10.349
 3700SOL    HW112932   8.853   0.823  10.433
 3700SOL    HW212933   8.865   0.847  10.284
 3701SOL     OW12934   8.458   0.170   4.310
 3701SOL    HW112935   8.458   0.182   4.405
 3701SOL    HW212936   8.499   0.250   4.276
 3702SOL     OW12937   1.507  13.346  12.302
 3702SOL    HW112938   1.434  13.323  12.360
 3702SOL    HW212939   1.486  13.302  12.219
 3703SOL     OW12940   5.637   8.567   0.166
 3703SOL    HW112941   5.670   8.512   0.095
 3703SOL    HW212942   5.701   8.637   0.174
 3704SOL     OW12943   7.258   2.299  10.316
 3704SOL    HW112944   7.257   2.356  10.394
 3704SOL    HW212945   7.284   2.358  10.244
 3705SOL     OW12946   9.946   5.037  11.545
 3705SOL    HW112947  10.023   4.981  11.540
 3705SOL    HW212948   9.977   5.125  11.523
 3706SOL     OW12949  10.901  10.265   5.297
 3706SOL    HW112950  10.814  10.304   5.288
 3706SOL    HW212951  10.940  10.272   5.210
 3707SOL     OW12952  11.612   5.813   8.537
 3707SOL    HW112953  11.561   5.736   8.565
 3707SOL    HW212954  11.572   5.886   8.585
 3708SOL     OW12955   9.147   0.171   7.173
 3708SOL    HW112956   9.110   0.190   7.259
 3708SOL    HW212957   9.140   0.253   7.126
 3709SOL     OW12958   0.172   6.816   4.997
 3709SOL    HW112959   0.120   6.845   4.921
 3709SOL    HW212960   0.263   6.824   4.968
 3710SOL     OW12961  11.931   0.246   9.265
 3710SOL    HW112962  12.000   0.180   9.270
 3710SOL    HW212963  11.849   0.195   9.259
 3711SOL     OW12964  13.048  10.368   3.184
 3711SOL    HW112965  13.126  10.315   3.170
 3711SOL    HW212966  13.036  10.416   3.102
 3712SOL     OW12967   3.866  14.532  13.125
 3712SOL    HW112968   3.772  14.537  13.105
 3712SOL    HW212969   3.906  14.600  13.071
 3713SOL     OW12970   9.851   2.423   1.429
 3713SOL    HW112971   9.909   2.411   1.505
 3713SOL    HW212972   9.830   2.334   1.400
 3714SOL     OW12973  14.061   5.170  10.858
 3714SOL    HW112974  14.090   5.174  10.767
 3714SOL    HW212975  13.991   5.236  10.864
 3715SOL     OW12976  13.127  11.347   2.717
 3715SOL    HW112977  13.042  11.308   2.736
 3715SOL    HW212978  13.126  11.431   2.762
 3716SOL     OW12979  14.852  13.875   9.443
 3716SOL    HW112980  14.769  13.829   9.431
 3716SOL    HW212981  14.829  13.968   9.444
 3717SOL     OW12982   7.980  14.587   1.627
 3717SOL    HW112983   7.890  14.571   1.653
 3717SOL    HW212984   8.007  14.506   1.584
 3718SOL     OW12985   0.695   9.380   8.873
 3718SOL    HW112986   0.788   9.392   8.893
 3718SOL    HW212987   0.650   9.411   8.952
 3719SOL     OW12988   3.882  12.536   3.171
 3719SOL    HW112989   3.975  12.550   3.153
 3719SOL    HW212990   3.854  12.474   3.103
 3720SOL     OW12991   0.658  12.099   8.338
 3720SOL    HW112992   0.679  12.024   8.283
 3720SOL    HW212993   0.569  12.082   8.369
 3721SOL     OW12994   3.430  13.395   3.841
 3721SOL    HW112995   3.379  13.372   3.763
 3721SOL    HW212996   3.364  13.418   3.907
 3722SOL     OW12997  12.849   2.238  14.161
 3722SOL    HW112998  12.890   2.169  14.214
 3722SOL    HW212999  12.845   2.314  14.220
 3723SOL     OW13000   9.298   7.867   4.867
 3723SOL    HW113001   9.249   7.923   4.927
 3723SOL    HW213002   9.339   7.928   4.806
 3724SOL     OW13003   9.791  10.805   3.100
 3724SOL    HW113004   9.790  10.711   3.081
 3724SOL    HW213005   9.758  10.811   3.190
 3725SOL     OW13006  12.802   8.113   9.446
 3725SOL    HW113007  12.874   8.175   9.433
 3725SOL    HW213008  12.803   8.058   9.368
 3726SOL     OW13009  10.896   0.790  12.643
 3726SOL    HW113010  10.858   0.865  12.597
 3726SOL    HW213011  10.839   0.717  12.622
 3727SOL     OW13012  10.884   6.311  14.014
 3727SOL    HW113013  10.805   6.354  14.047
 3727SOL    HW213014  10.858   6.277  13.928
 3728SOL     OW13015   0.325   4.799   0.389
 3728SOL    HW113016   0.311   4.705   0.400
 3728SOL    HW213017   0.418   4.812   0.408
 3729SOL     OW13018   8.444   6.550  11.808
 3729SOL    HW113019   8.402   6.480  11.858
 3729SOL    HW213020   8.399   6.550  11.723
 3730SOL     OW13021   0.939   7.962  13.307
 3730SOL    HW113022   0.887   7.897  13.354
 3730SOL    HW213023   0.934   7.935  13.215
 3731SOL     OW13024   5.652  12.977   3.944
 3731SOL    HW113025   5.673  12.915   3.874
 3731SOL    HW213026   5.570  13.019   3.916
 3732SOL     OW13027  11.000  14.830  13.129
 3732SOL    HW113028  10.980   0.044  13.156
 3732SOL    HW213029  11.051  14.840  13.049
 3733SOL     OW13030   7.938   1.839  10.018
 3733SOL    HW113031   7.844   1.851  10.000
 3733SOL    HW213032   7.978   1.922   9.990
 3734SOL     OW13033   0.917   8.696   3.220
 3734SOL    HW113034   0.884   8.634   3.155
 3734SOL    HW213035   0.960   8.764   3.169
 3735SOL     OW13036   6.711   6.573   9.494
 3735SOL    HW113037   6.766   6.647   9.518
 3735SOL    HW213038   6.672   6.598   9.410
 3736SOL     OW13039   9.666  12.970  11.106
 3736SOL    HW113040   9.602  12.922  11.055
 3736SOL    HW213041   9.633  12.965  11.196
 3737SOL     OW13042   8.392   6.612   3.965
 3737SOL    HW113043   8.383   6.578   4.054
 3737SOL    HW213044   8.317   6.576   3.918
 3738SOL     OW13045   9.555  10.038   1.002
 3738SOL    HW113046   9.638   9.991   1.007
 3738SOL    HW213047   9.490   9.969   0.987
 3739SOL     OW13048   8.855   4.186   5.463
 3739SOL    HW113049   8.779   4.168   5.518
 3739SOL    HW213050   8.854   4.281   5.453
 3740SOL     OW13051  12.164  11.879  14.263
 3740SOL    HW113052  12.126  11.855  14.179
 3740SOL    HW213053  12.091  11.918  14.312
 3741SOL     OW13054   5.748   5.979   0.120
 3741SOL    HW113055   5.694   6.058   0.122
 3741SOL    HW213056   5.837   6.011   0.137
 3742SOL     OW13057   8.898   8.452  12.244
 3742SOL    HW113058   8.880   8.450  12.338
 3742SOL    HW213059   8.825   8.403  12.205
 3743SOL     OW13060   8.439  11.228  10.050
 3743SOL    HW113061   8.438  11.312  10.003
 3743SOL    HW213062   8.390  11.168   9.993
 3744SOL     OW13063   4.152  10.394   5.656
 3744SOL    HW113064   4.089  10.453   5.614
 3744SOL    HW213065   4.098  10.332   5.706
 3745SOL     OW13066   4.015  10.951   6.900
 3745SOL    HW113067   3.993  11.029   6.848
 3745SOL    HW213068   4.032  10.883   6.836
 3746SOL     OW13069  13.811   6.099  10.459
 3746SOL    HW113070  13.865   6.022  10.442
 3746SOL    HW213071  13.806   6.144  10.375
 3747SOL     OW13072   2.467  11.944   6.599
 3747SOL    HW113073   2.465  11.850   6.619
 3747SOL    HW213074   2.378  11.965   6.572
 3748SOL     OW13075   0.423   0.833   3.763
 3748SOL    HW113076   0.388   0.900   3.821
 3748SOL    HW213077   0.354   0.767   3.759
 3749SOL     OW13078  13.425  12.091   6.083
 3749SOL    HW113079  13.468  12.115   6.165
 3749SOL    HW213080  13.480  12.020   6.048
 3750SOL     OW13081  12.564   1.163  13.442
 3750SOL    HW113082  12.602   1.199  13.523
 3750SOL    HW213083  12.481   1.126  13.470
 3751SOL     OW13084   2.862  14.047   3.116
 3751SOL    HW113085   2.788  14.107   3.113
 3751SOL    HW213086   2.924  14.081   3.052
 3752SOL     OW13087   6.355   1.960   6.800
 3752SOL    HW113088   6.401   2.009   6.732
 3752SOL    HW213089   6.395   1.989   6.882
 3753SOL     OW13090  10.062   1.940   1.682
 3753SOL    HW113091  10.124   1.869   1.668
 3753SOL    HW213092  10.111   2.019   1.659
 3754SOL     OW13093   5.234  14.772   3.056
 3754SOL    HW113094   5.143  14.801   3.052
 3754SOL    HW213095   5.244  14.735   3.143
 3755SOL     OW13096   1.010   9.013  14.729
 3755SOL    HW113097   1.088   9.001  14.784
 3755SOL    HW213098   1.007   9.108  14.714
 3756SOL     OW13099   6.662   2.736  11.555
 3756SOL    HW113100   6.580   2.687  11.549
 3756SOL    HW213101   6.636   2.822  11.590
 3757SOL     OW13102   9.268  11.078  13.890
 3757SOL    HW113103   9.174  11.093  13.903
 3757SOL    HW213104   9.304  11.166  13.876
 3758SOL     OW13105   4.414   6.256   3.071
 3758SOL    HW113106   4.459   6.289   2.994
 3758SOL    HW213107   4.397   6.333   3.125
 3759SOL     OW13108   4.772   3.030   7.765
 3759SOL    HW113109   4.839   3.065   7.706
 3759SOL    HW213110   4.805   3.050   7.853
 3760SOL     OW13111  12.585   2.422  13.989
 3760SOL    HW113112  12.644   2.351  13.962
 3760SOL    HW213113  12.640   2.500  13.990
 3761SOL     OW13114   4.988  11.134   9.963
 3761SOL    HW113115   5.040  11.068  10.008
 3761SOL    HW213116   5.052  11.202   9.940
 3762SOL     OW13117   5.804   1.467   4.678
 3762SOL    HW113118   5.747   1.456   4.602
 3762SOL    HW213119   5.874   1.403   4.664
 3763SOL     OW13120  13.712   3.279   2.964
 3763SOL    HW113121  13.695   3.327   3.045
 3763SOL    HW213122  13.808   3.283   2.953
 3764SOL     OW13123   0.168   7.549  10.548
 3764SOL    HW113124   0.191   7.474  10.603
 3764SOL    HW213125   0.167   7.623  10.608
 3765SOL     OW13126  13.791  10.843   2.552
 3765SOL    HW113127  13.731  10.789   2.502
 3765SOL    HW213128  13.739  10.919   2.579
 3766SOL     OW13129   8.419  11.412   3.267
 3766SOL    HW113130   8.462  11.465   3.200
 3766SOL    HW213131   8.335  11.389   3.229
 3767SOL     OW13132  11.143  11.314   5.708
 3767SOL    HW113133  11.204  11.307   5.781
 3767SOL    HW213134  11.185  11.268   5.636
 3768SOL     OW13135   3.753   1.062   5.265
 3768SOL    HW113136   3.697   1.116   5.209
 3768SOL    HW213137   3.842   1.088   5.242
 3769SOL     OW13138   8.896  11.783  13.624
 3769SOL    HW113139   8.889  11.838  13.546
 3769SOL    HW213140   8.806  11.777  13.656
 3770SOL     OW13141  11.075   9.937   2.457
 3770SOL    HW113142  11.044   9.847   2.448
 3770SOL    HW213143  10.996   9.990   2.451
 3771SOL     OW13144  13.974   9.637   4.688
 3771SOL    HW113145  14.025   9.661   4.611
 3771SOL    HW213146  13.960   9.719   4.735
 3772SOL     OW13147   9.160   9.972   0.893
 3772SOL    HW113148   9.244   9.961   0.848
 3772SOL    HW213149   9.107   9.897   0.865
 3773SOL     OW13150  11.637  10.040  11.144
 3773SOL    HW113151  11.715  10.029  11.090
 3773SOL    HW213152  11.630  10.134  11.158
 3774SOL     OW13153   0.639   3.980   4.264
 3774SOL    HW113154   0.629   4.024   4.180
 3774SOL    HW213155   0.557   3.997   4.310
 3775SOL     OW13156   6.981  14.602   2.589
 3775SOL    HW113157   6.972  14.527   2.647
 3775SOL    HW213158   6.950  14.571   2.504
 3776SOL     OW13159   4.701  11.784   5.235
 3776SOL    HW113160   4.686  11.744   5.321
 3776SOL    HW213161   4.622  11.835   5.218
 3777SOL     OW13162   7.581   1.541   8.026
 3777SOL    HW113163   7.538   1.582   7.951
 3777SOL    HW213164   7.511   1.497   8.074
 3778SOL     OW13165   3.433  10.715   7.713
 3778SOL    HW113166   3.423  10.625   7.680
 3778SOL    HW213167   3.364  10.764   7.670
 3779SOL     OW13168   5.858  13.282   0.351
 3779SOL    HW113169   5.803  13.357   0.372
 3779SOL    HW213170   5.819  13.209   0.398
 3780SOL     OW13171   5.314   2.727   3.409
 3780SOL    HW113172   5.282   2.647   3.450
 3780SOL    HW213173   5.271   2.728   3.323
 3781SOL     OW13174   4.131   8.649   7.636
 3781SOL    HW113175   4.154   8.673   7.726
 3781SOL    HW213176   4.215   8.645   7.590
 3782SOL     OW13177   5.856   3.085   0.030
 3782SOL    HW113178   5.767   3.086   0.067
 3782SOL    HW213179   5.912   3.059   0.103
 3783SOL     OW13180   0.611   3.952   5.201
 3783SOL    HW113181   0.600   3.982   5.110
 3783SOL    HW213182   0.632   3.859   5.193
 3784SOL     OW13183   4.053  10.293   8.559
 3784SOL    HW113184   4.133  10.311   8.510
 3784SOL    HW213185   4.078  10.305   8.650
 3785SOL     OW13186  11.933  14.788  14.465
 3785SOL    HW113187  11.987  14.845  14.520
 3785SOL    HW213188  11.906  14.845  14.393
 3786SOL     OW13189   5.136   7.892  14.468
 3786SOL    HW113190   5.226   7.899  14.438
 3786SOL    HW213191   5.143   7.872  14.561
 3787SOL     OW13192  10.925  11.289   0.538
 3787SOL    HW113193  10.940  11.354   0.470
 3787SOL    HW213194  10.964  11.209   0.504
 3788SOL     OW13195   8.767   4.280   9.230
 3788SOL    HW113196   8.700   4.212   9.232
 3788SOL    HW213197   8.721   4.359   9.201
 3789SOL     OW13198  12.073  13.164   2.610
 3789SOL    HW113199  12.148  13.104   2.601
 3789SOL    HW213200  11.998  13.113   2.580
 3790SOL     OW13201  13.196   6.214  12.963
 3790SOL    HW113202  13.281   6.186  12.995
 3790SOL    HW213203  13.213   6.250  12.876
 3791SOL     OW13204   4.373   7.965   8.703
 3791SOL    HW113205   4.287   7.923   8.708
 3791SOL    HW213206   4.411   7.931   8.622
 3792SOL     OW13207   8.666  11.156   5.286
 3792SOL    HW113208   8.659  11.069   5.324
 3792SOL    HW213209   8.605  11.154   5.212
 3793SOL     OW13210  10.634   7.602  10.724
 3793SOL    HW113211  10.671   7.597  10.812
 3793SOL    HW213212  10.547   7.562  10.732
 3794SOL     OW13213   9.219   0.361   4.435
 3794SOL    HW113214   9.267   0.426   4.383
 3794SOL    HW213215   9.160   0.319   4.372
 3795SOL     OW13216   2.162   3.019  13.845
 3795SOL    HW113217   2.080   3.017  13.795
 3795SOL    HW213218   2.172   3.110  13.872
 3796SOL     OW13219  14.084  11.411   2.869
 3796SOL    HW113220  14.043  11.472   2.929
 3796SOL    HW213221  14.040  11.426   2.785
 3797SOL     OW13222  12.790   2.919  11.808
 3797SOL    HW113223  12.784   2.947  11.900
 3797SOL    HW213224  12.700   2.906  11.781
 3798SOL     OW13225   8.570   8.025   2.972
 3798SOL    HW113226   8.533   8.071   2.896
 3798SOL    HW213227   8.627   7.958   2.934
 3799SOL     OW13228   8.712   5.122   1.437
 3799SOL    HW113229   8.635   5.154   1.389
 3799SOL    HW213230   8.693   5.142   1.529
 3800SOL     OW13231   1.523  10.549   0.289
 3800SOL    HW113232   1.552  10.591   0.208
 3800SOL    HW213233   1.448  10.495   0.262
 3801SOL     OW13234   0.799   1.610   4.100
 3801SOL    HW113235   0.736   1.637   4.033
 3801SOL    HW213236   0.818   1.518   4.079
 3802SOL     OW13237   8.707  13.236   8.410
 3802SOL    HW113238   8.721  13.155   8.458
 3802SOL    HW213239   8.762  13.228   8.332
 3803SOL     OW13240   6.024  13.175   8.539
 3803SOL    HW113241   5.986  13.255   8.504
 3803SOL    HW213242   6.078  13.140   8.468
 3804SOL     OW13243   1.734  14.728  11.895
 3804SOL    HW113244   1.685  14.655  11.858
 3804SOL    HW213245   1.669  14.780  11.942
 3805SOL     OW13246   5.519   9.762  14.301
 3805SOL    HW113247   5.560   9.698  14.360
 3805SOL    HW213248   5.521   9.719  14.215
 3806SOL     OW13249  13.629   0.911  13.434
 3806SOL    HW113250  13.548   0.924  13.386
 3806SOL    HW213251  13.636   0.989  13.490
 3807SOL     OW13252  12.569   5.358  14.512
 3807SOL    HW113253  12.551   5.383  14.422
 3807SOL    HW213254  12.536   5.268  14.519
 3808SOL     OW13255  12.072  14.224   3.959
 3808SOL    HW113256  12.129  14.262   3.893
 3808SOL    HW213257  12.048  14.297   4.015
 3809SOL     OW13258  12.806   3.024  11.290
 3809SOL    HW113259  12.872   3.055  11.352
 3809SOL    HW213260  12.738   2.985  11.345
 3810SOL     OW13261  10.511   1.544   1.076
 3810SOL    HW113262  10.525   1.616   1.137
 3810SOL    HW213263  10.489   1.587   0.993
 3811SOL     OW13264   5.880   1.660   6.052
 3811SOL    HW113265   5.792   1.625   6.068
 3811SOL    HW213266   5.938   1.605   6.105
 3812SOL     OW13267  11.512   3.926  12.680
 3812SOL    HW113268  11.458   3.899  12.754
 3812SOL    HW213269  11.543   4.013  12.703
 3813SOL     OW13270  13.675   9.930   9.379
 3813SOL    HW113271  13.681   9.852   9.435
 3813SOL    HW213272  13.765   9.961   9.372
 3814SOL     OW13273  12.455  12.091   1.832
 3814SOL    HW113274  12.376  12.039   1.847
 3814SOL    HW213275  12.525  12.027   1.822
 3815SOL     OW13276   5.234  11.566   3.439
 3815SOL    HW113277   5.311  11.519   3.470
 3815SOL    HW213278   5.160  11.523   3.482
 3816SOL     OW13279   1.585  10.477   6.088
 3816SOL    HW113280   1.593  10.405   6.025
 3816SOL    HW213281   1.501  10.463   6.131
 3817SOL     OW13282   6.827   2.840   7.713
 3817SOL    HW113283   6.769   2.823   7.787
 3817SOL    HW213284   6.804   2.929   7.685
 3818SOL     OW13285   8.054   7.984   8.464
 3818SOL    HW113286   8.025   7.949   8.548
 3818SOL    HW213287   8.149   7.973   8.465
 3819SOL     OW13288  12.778   5.562  10.926
 3819SOL    HW113289  12.744   5.587  11.012
 3819SOL    HW213290  12.783   5.466  10.929
 3820SOL     OW13291   4.074   1.291   8.691
 3820SOL    HW113292   4.150   1.270   8.636
 3820SOL    HW213293   4.001   1.297   8.629
 3821SOL     OW13294  13.308   4.499   4.349
 3821SOL    HW113295  13.356   4.480   4.430
 3821SOL    HW213296  13.302   4.594   4.347
 3822SOL     OW13297   8.470   8.195   2.384
 3822SOL    HW113298   8.396   8.217   2.327
 3822SOL    HW213299   8.430   8.170   2.467
 3823SOL     OW13300   8.832   1.066  14.163
 3823SOL    HW113301   8.904   1.019  14.204
 3823SOL    HW213302   8.775   1.093  14.236
 3824SOL     OW13303  11.068  11.170   4.788
 3824SOL    HW113304  10.981  11.176   4.748
 3824SOL    HW213305  11.117  11.242   4.748
 3825SOL     OW13306   8.719  11.833   2.300
 3825SOL    HW113307   8.625  11.843   2.318
 3825SOL    HW213308   8.723  11.793   2.213
 3826SOL     OW13309   5.132   0.929   5.156
 3826SOL    HW113310   5.172   0.966   5.077
 3826SOL    HW213311   5.192   0.860   5.183
 3827SOL     OW13312   0.046  13.417   6.620
 3827SOL    HW113313  14.857  13.476   6.657
 3827SOL    HW213314   0.115  13.474   6.587
 3828SOL     OW13315   7.363   9.521   2.648
 3828SOL    HW113316   7.374   9.449   2.710
 3828SOL    HW213317   7.278   9.505   2.608
 3829SOL     OW13318   4.075  13.496   2.650
 3829SOL    HW113319   4.165  13.520   2.626
 3829SOL    HW213320   4.053  13.424   2.591
 3830SOL     OW13321   1.173   5.631   1.881
 3830SOL    HW113322   1.198   5.722   1.894
 3830SOL    HW213323   1.247   5.593   1.833
 3831SOL     OW13324   3.669   1.032   5.521
 3831SOL    HW113325   3.701   1.034   5.431
 3831SOL    HW213326   3.645   1.122   5.540
 3832SOL     OW13327  14.259   3.411  13.604
 3832SOL    HW113328  14.291   3.450  13.685
 3832SOL    HW213329  14.330   3.353  13.576
 3833SOL     OW13330   4.663  10.028  10.669
 3833SOL    HW113331   4.738   9.969  10.680
 3833SOL    HW213332   4.677  10.097  10.733
 3834SOL     OW13333  14.748   4.572   8.006
 3834SOL    HW113334  14.798   4.631   8.061
 3834SOL    HW213335  14.670   4.622   7.980
 3835SOL     OW13336   4.718   6.299  12.202
 3835SOL    HW113337   4.737   6.388  12.232
 3835SOL    HW213338   4.638   6.307  12.150
 3836SOL     OW13339  14.397   1.305  14.639
 3836SOL    HW113340  14.306   1.293  14.667
 3836SOL    HW213341  14.437   1.356  14.709
 3837SOL     OW13342   2.022   9.698  10.061
 3837SOL    HW113343   2.061   9.758  10.124
 3837SOL    HW213344   2.065   9.614  10.077
 3838SOL     OW13345   2.760   3.286  12.881
 3838SOL    HW113346   2.775   3.381  12.879
 3838SOL    HW213347   2.835   3.252  12.930
 3839SOL     OW13348   5.745   4.096   9.966
 3839SOL    HW113349   5.802   4.098   9.889
 3839SOL    HW213350   5.751   4.185  10.001
 3840SOL     OW13351  10.049  11.294   0.469
 3840SOL    HW113352   9.982  11.296   0.400
 3840SOL    HW213353  10.002  11.266   0.547
 3841SOL     OW13354   4.150   9.923  14.300
 3841SOL    HW113355   4.197   9.881  14.228
 3841SOL    HW213356   4.057   9.905  14.281
 3842SOL     OW13357   9.134   9.555   2.777
 3842SOL    HW113358   9.140   9.460   2.782
 3842SOL    HW213359   9.133   9.583   2.869
 3843SOL     OW13360  13.183  13.042   7.097
 3843SOL    HW113361  13.234  13.035   7.016
 3843SOL    HW213362  13.092  13.040   7.068
 3844SOL     OW13363  13.947  10.545  13.560
 3844SOL    HW113364  13.886  10.525  13.490
 3844SOL    HW213365  13.994  10.463  13.575
 3845SOL     OW13366   1.586   3.469   4.340
 3845SOL    HW113367   1.585   3.496   4.248
 3845SOL    HW213368   1.500   3.429   4.354
 3846SOL     OW13369   9.007  12.021   3.989
 3846SOL    HW113370   9.072  12.087   3.967
 3846SOL    HW213371   8.997  11.970   3.909
 3847SOL     OW13372   5.972  10.979   5.374
 3847SOL    HW113373   6.009  10.894   5.353
 3847SOL    HW213374   5.971  10.983   5.469
 3848SOL     OW13375   7.870   0.025   0.160
 3848SOL    HW113376   7.892   0.097   0.101
 3848SOL    HW213377   7.792  14.861   0.122
 3849SOL     OW13378   2.428   0.762  11.369
 3849SOL    HW113379   2.498   0.718  11.320
 3849SOL    HW213380   2.472   0.802  11.444
 3850SOL     OW13381   5.832   8.184   4.735
 3850SOL    HW113382   5.851   8.097   4.770
 3850SOL    HW213383   5.827   8.241   4.812
 3851SOL     OW13384   4.410   9.553  12.584
 3851SOL    HW113385   4.388   9.518  12.670
 3851SOL    HW213386   4.488   9.504  12.557
 3852SOL     OW13387   2.825   6.464  14.124
 3852SOL    HW113388   2.826   6.393  14.060
 3852SOL    HW213389   2.889   6.437  14.191
 3853SOL     OW13390   3.656   9.813  12.946
 3853SOL    HW113391   3.597   9.774  13.011
 3853SOL    HW213392   3.598   9.841  12.875
 3854SOL     OW13393   5.605  11.463   7.702
 3854SOL    HW113394   5.663  11.387   7.695
 3854SOL    HW213395   5.568  11.456   7.790
 3855SOL     OW13396   6.569  11.978  14.317
 3855SOL    HW113397   6.575  11.894  14.271
 3855SOL    HW213398   6.478  12.004  14.307
 3856SOL     OW13399  13.025   0.653   7.121
 3856SOL    HW113400  12.938   0.629   7.090
 3856SOL    HW213401  13.011   0.682   7.212
 3857SOL     OW13402   6.849   2.009   6.362
 3857SOL    HW113403   6.833   2.063   6.440
 3857SOL    HW213404   6.907   1.940   6.392
 3858SOL     OW13405  10.464  13.739   0.269
 3858SOL    HW113406  10.429  13.690   0.343
 3858SOL    HW213407  10.524  13.677   0.226
 3859SOL     OW13408   7.986  13.672   1.584
 3859SOL    HW113409   8.022  13.753   1.623
 3859SOL    HW213410   7.907  13.700   1.539
 3860SOL     OW13411   7.305   9.339   3.870
 3860SOL    HW113412   7.390   9.383   3.874
 3860SOL    HW213413   7.318   9.269   3.806
 3861SOL     OW13414   3.426   3.571  13.385
 3861SOL    HW113415   3.462   3.655  13.356
 3861SOL    HW213416   3.428   3.575  13.480
 3862SOL     OW13417   8.708  11.869  14.546
 3862SOL    HW113418   8.762  11.878  14.624
 3862SOL    HW213419   8.624  11.835  14.579
 3863SOL     OW13420   9.853   0.298   1.778
 3863SOL    HW113421   9.851   0.389   1.749
 3863SOL    HW213422   9.927   0.294   1.839
 3864SOL     OW13423  12.103   0.574   8.108
 3864SOL    HW113424  12.058   0.508   8.160
 3864SOL    HW213425  12.056   0.655   8.127
 3865SOL     OW13426   3.215  14.356   3.563
 3865SOL    HW113427   3.183  14.301   3.491
 3865SOL    HW213428   3.282  14.412   3.523
 3866SOL     OW13429  10.327   3.690  13.077
 3866SOL    HW113430  10.416   3.677  13.111
 3866SOL    HW213431  10.314   3.619  13.015
 3867SOL     OW13432   9.246   5.454   3.398
 3867SOL    HW113433   9.321   5.492   3.354
 3867SOL    HW213434   9.234   5.369   3.356
 3868SOL     OW13435  10.683   8.607   8.894
 3868SOL    HW113436  10.676   8.701   8.907
 3868SOL    HW213437  10.689   8.597   8.799
 3869SOL     OW13438   4.653   4.033   7.189
 3869SOL    HW113439   4.642   4.075   7.104
 3869SOL    HW213440   4.746   4.009   7.192
 3870SOL     OW13441  13.336  14.209   9.835
 3870SOL    HW113442  13.334  14.238   9.744
 3870SOL    HW213443  13.368  14.119   9.832
 3871SOL     OW13444   0.393  12.472  13.125
 3871SOL    HW113445   0.433  12.398  13.079
 3871SOL    HW213446   0.458  12.499  13.190
 3872SOL     OW13447   5.555   1.858   4.309
 3872SOL    HW113448   5.617   1.930   4.320
 3872SOL    HW213449   5.541   1.854   4.214
 3873SOL     OW13450   8.937   7.836  13.888
 3873SOL    HW113451   9.020   7.884  13.888
 3873SOL    HW213452   8.956   7.757  13.939
 3874SOL     OW13453  13.414   3.776   8.004
 3874SOL    HW113454  13.443   3.803   7.917
 3874SOL    HW213455  13.495   3.759   8.053
 3875SOL     OW13456   6.497   3.984   3.603
 3875SOL    HW113457   6.528   4.002   3.514
 3875SOL    HW213458   6.576   3.981   3.656
 3876SOL     OW13459  14.392   2.769  13.878
 3876SOL    HW113460  14.479   2.733  13.896
 3876SOL    HW213461  14.359   2.796  13.964
 3877SOL     OW13462  10.198   8.593   1.898
 3877SOL    HW113463  10.224   8.667   1.953
 3877SOL    HW213464  10.219   8.516   1.951
 3878SOL     OW13465   4.455   0.305  14.281
 3878SOL    HW113466   4.491   0.217  14.272
 3878SOL    HW213467   4.364   0.291  14.307
 3879SOL     OW13468   7.171   8.524  11.173
 3879SOL    HW113469   7.182   8.431  11.193
 3879SOL    HW213470   7.077   8.536  11.166
 3880SOL     OW13471   1.746  13.120   2.794
 3880SOL    HW113472   1.722  13.029   2.776
 3880SOL    HW213473   1.750  13.160   2.707
 3881SOL     OW13474   5.741  11.545  12.302
 3881SOL    HW113475   5.658  11.551  12.349
 3881SOL    HW213476   5.793  11.484  12.353
 3882SOL     OW13477   2.355   1.847   7.222
 3882SOL    HW113478   2.275   1.794   7.230
 3882SOL    HW213479   2.324   1.932   7.192
 3883SOL     OW13480   6.925   7.386   8.969
 3883SOL    HW113481   6.869   7.381   8.892
 3883SOL    HW213482   6.994   7.448   8.946
 3884SOL     OW13483   3.876   8.243  13.981
 3884SOL    HW113484   3.936   8.297  13.928
 3884SOL    HW213485   3.932   8.175  14.019
 3885SOL     OW13486   8.511   8.094   0.608
 3885SOL    HW113487   8.510   8.114   0.701
 3885SOL    HW213488   8.429   8.048   0.592
 3886SOL     OW13489  13.622   0.124   1.345
 3886SOL    HW113490  13.633   0.199   1.404
 3886SOL    HW213491  13.643   0.048   1.399
 3887SOL     OW13492   1.635   6.841   8.819
 3887SOL    HW113493   1.574   6.878   8.756
 3887SOL    HW213494   1.680   6.917   8.856
 3888SOL     OW13495   2.628  12.194  13.465
 3888SOL    HW113496   2.652  12.111  13.506
 3888SOL    HW213497   2.654  12.184  13.374
 3889SOL     OW13498   0.165  10.627   5.950
 3889SOL    HW113499   0.074  10.657   5.947
 3889SOL    HW213500   0.187  10.606   5.859
 3890SOL     OW13501  14.066   8.537   5.716
 3890SOL    HW113502  13.983   8.584   5.709
 3890SOL    HW213503  14.128   8.602   5.748
 3891SOL     OW13504  14.137  14.428   3.409
 3891SOL    HW113505  14.222  14.460   3.438
 3891SOL    HW213506  14.119  14.352   3.463
 3892SOL     OW13507   5.667  13.882  11.110
 3892SOL    HW113508   5.638  13.822  11.178
 3892SOL    HW213509   5.710  13.954  11.157
 3893SOL     OW13510   6.250   2.469   2.925
 3893SOL    HW113511   6.173   2.459   2.870
 3893SOL    HW213512   6.226   2.429   3.008
 3894SOL     OW13513   1.774  12.718  10.621
 3894SOL    HW113514   1.854  12.769  10.637
 3894SOL    HW213515   1.723  12.772  10.561
 3895SOL     OW13516   1.162  10.527   9.430
 3895SOL    HW113517   1.161  10.500   9.522
 3895SOL    HW213518   1.251  10.559   9.416
 3896SOL     OW13519   9.961  14.203   7.328
 3896SOL    HW113520  10.013  14.207   7.408
 3896SOL    HW213521  10.019  14.235   7.259
 3897SOL     OW13522  10.877  11.457   4.045
 3897SOL    HW113523  10.805  11.520   4.049
 3897SOL    HW213524  10.936  11.484   4.115
 3898SOL     OW13525   0.211   1.287  13.656
 3898SOL    HW113526   0.288   1.271  13.602
 3898SOL    HW213527   0.191   1.202  13.695
 3899SOL     OW13528   3.346  13.457  13.391
 3899SOL    HW113529   3.318  13.389  13.330
 3899SOL    HW213530   3.369  13.531  13.336
 3900SOL     OW13531   5.362  14.034   1.650
 3900SOL    HW113532   5.344  13.945   1.678
 3900SOL    HW213533   5.436  14.026   1.589
 3901SOL     OW13534   5.445   0.482   9.729
 3901SOL    HW113535   5.350   0.468   9.731
 3901SOL    HW213536   5.472   0.476   9.821
 3902SOL     OW13537   1.451   3.290   9.336
 3902SOL    HW113538   1.445   3.252   9.423
 3902SOL    HW213539   1.386   3.360   9.335
 3903SOL     OW13540   9.511   3.489   8.826
 3903SOL    HW113541   9.521   3.449   8.740
 3903SOL    HW213542   9.545   3.578   8.815
 3904SOL     OW13543   7.522   8.893   7.541
 3904SOL    HW113544   7.503   8.808   7.502
 3904SOL    HW213545   7.447   8.948   7.518
 3905SOL     OW13546  14.795   0.869   9.012
 3905SOL    HW113547  14.774   0.782   8.979
 3905SOL    HW213548  14.734   0.883   9.085
 3906SOL     OW13549   7.802  11.238   7.095
 3906SOL    HW113550   7.863  11.305   7.125
 3906SOL    HW213551   7.718  11.264   7.131
 3907SOL     OW13552   9.568   5.076   6.278
 3907SOL    HW113553   9.520   5.045   6.355
 3907SOL    HW213554   9.645   5.120   6.314
 3908SOL     OW13555   0.434   8.617  14.699
 3908SOL    HW113556   0.441   8.690  14.637
 3908SOL    HW213557   0.443   8.539  14.645
 3909SOL     OW13558   8.265   2.445   3.420
 3909SOL    HW113559   8.207   2.425   3.493
 3909SOL    HW213560   8.262   2.367   3.364
 3910SOL     OW13561   4.622  13.539   5.989
 3910SOL    HW113562   4.681  13.525   6.063
 3910SOL    HW213563   4.621  13.455   5.943
 3911SOL     OW13564   0.417   7.659   1.462
 3911SOL    HW113565   0.359   7.686   1.534
 3911SOL    HW213566   0.497   7.630   1.506
 3912SOL     OW13567  14.260   6.509   1.862
 3912SOL    HW113568  14.250   6.526   1.769
 3912SOL    HW213569  14.227   6.588   1.905
 3913SOL     OW13570   6.057   6.745  14.087
 3913SOL    HW113571   5.962   6.754  14.093
 3913SOL    HW213572   6.085   6.825  14.042
 3914SOL     OW13573   8.899  14.336   2.780
 3914SOL    HW113574   8.919  14.244   2.769
 3914SOL    HW213575   8.894  14.371   2.691
 3915SOL     OW13576   3.938   9.757   0.870
 3915SOL    HW113577   3.959   9.663   0.869
 3915SOL    HW213578   3.898   9.773   0.785
 3916SOL     OW13579   8.260   9.771  11.764
 3916SOL    HW113580   8.188   9.834  11.753
 3916SOL    HW213581   8.216   9.687  11.778
 3917SOL     OW13582   8.556   6.104   3.686
 3917SOL    HW113583   8.530   6.193   3.711
 3917SOL    HW213584   8.584   6.111   3.595
 3918SOL     OW13585   2.232  10.591   5.488
 3918SOL    HW113586   2.301  10.546   5.537
 3918SOL    HW213587   2.153  10.538   5.503
 3919SOL     OW13588   0.321   2.233   3.271
 3919SOL    HW113589   0.386   2.249   3.203
 3919SOL    HW213590   0.348   2.288   3.344
 3920SOL     OW13591   9.231  12.600   6.800
 3920SOL    HW113592   9.323  12.586   6.779
 3920SOL    HW213593   9.202  12.517   6.838
 3921SOL     OW13594  12.946  11.442  13.485
 3921SOL    HW113595  12.885  11.436  13.559
 3921SOL    HW213596  12.891  11.469  13.411
 3922SOL     OW13597   8.332   2.796  14.376
 3922SOL    HW113598   8.374   2.815  14.460
 3922SOL    HW213599   8.359   2.706  14.356
 3923SOL     OW13600   6.195   3.561   8.947
 3923SOL    HW113601   6.109   3.567   8.990
 3923SOL    HW213602   6.238   3.644   8.968
 3924SOL     OW13603   0.771  12.936   7.032
 3924SOL    HW113604   0.745  13.028   7.037
 3924SOL    HW213605   0.769  12.915   6.939
 3925SOL     OW13606   6.914  12.701  13.502
 3925SOL    HW113607   6.840  12.752  13.469
 3925SOL    HW213608   6.883  12.610  13.501
 3926SOL     OW13609   1.490  13.585   7.656
 3926SOL    HW113610   1.468  13.498   7.688
 3926SOL    HW213611   1.584  13.593   7.672
 3927SOL     OW13612   3.675   0.038   5.963
 3927SOL    HW113613   3.770   0.020   5.965
 3927SOL    HW213614   3.646   0.023   6.053
 3928SOL     OW13615   6.110   4.482   1.855
 3928SOL    HW113616   6.129   4.508   1.765
 3928SOL    HW213617   6.141   4.555   1.908
 3929SOL     OW13618   7.491  13.288   8.183
 3929SOL    HW113619   7.427  13.232   8.226
 3929SOL    HW213620   7.441  13.363   8.151
 3930SOL     OW13621   2.943  13.879   4.332
 3930SOL    HW113622   2.905  13.908   4.415
 3930SOL    HW213623   2.896  13.798   4.312
 3931SOL     OW13624  13.376   5.122  10.665
 3931SOL    HW113625  13.471   5.116  10.672
 3931SOL    HW213626  13.352   5.196  10.720
 3932SOL     OW13627   4.423   8.636  14.808
 3932SOL    HW113628   4.397   8.546  14.827
 3932SOL    HW213629   4.350   8.673  14.759
 3933SOL     OW13630   8.458   2.438  10.020
 3933SOL    HW113631   8.403   2.361  10.005
 3933SOL    HW213632   8.521   2.436   9.948
 3934SOL     OW13633  13.426   2.002   1.518
 3934SOL    HW113634  13.480   1.946   1.574
 3934SOL    HW213635  13.462   2.089   1.530
 3935SOL     OW13636   9.072   5.730   6.223
 3935SOL    HW113637   9.138   5.663   6.207
 3935SOL    HW213638   8.988   5.684   6.212
 3936SOL     OW13639   4.594   9.846   1.395
 3936SOL    HW113640   4.688   9.825   1.402
 3936SOL    HW213641   4.591   9.941   1.384
 3937SOL     OW13642   2.318  10.663   4.391
 3937SOL    HW113643   2.347  10.754   4.396
 3937SOL    HW213644   2.264  10.660   4.312
 3938SOL     OW13645   1.055   0.830   1.388
 3938SOL    HW113646   1.092   0.914   1.362
 3938SOL    HW213647   0.961   0.839   1.371
 3939SOL     OW13648  14.599   9.882   1.010
 3939SOL    HW113649  14.671   9.945   1.005
 3939SOL    HW213650  14.540   9.908   0.938
 3940SOL     OW13651   1.490   9.245   0.563
 3940SOL    HW113652   1.436   9.308   0.611
 3940SOL    HW213653   1.580   9.271   0.584
 3941SOL     OW13654   3.974   9.739   2.908
 3941SOL    HW113655   3.881   9.756   2.921
 3941SOL    HW213656   3.986   9.647   2.932
 3942SOL     OW13657   5.801   8.553   4.992
 3942SOL    HW113658   5.763   8.633   5.028
 3942SOL    HW213659   5.891   8.576   4.970
 3943SOL     OW13660   2.264   8.587   3.384
 3943SOL    HW113661   2.352   8.622   3.371
 3943SOL    HW213662   2.214   8.617   3.308
 3944SOL     OW13663  11.359   5.360   6.646
 3944SOL    HW113664  11.405   5.282   6.677
 3944SOL    HW213665  11.401   5.432   6.693
 3945SOL     OW13666   2.747  14.190   0.894
 3945SOL    HW113667   2.755  14.179   0.989
 3945SOL    HW213668   2.696  14.270   0.883
 3946SOL     OW13669   3.108  12.173  13.235
 3946SOL    HW113670   3.065  12.252  13.269
 3946SOL    HW213671   3.036  12.119  13.202
 3947SOL     OW13672   1.273   5.036   5.411
 3947SOL    HW113673   1.331   5.111   5.421
 3947SOL    HW213674   1.185   5.073   5.421
 3948SOL     OW13675  12.154  14.745   9.288
 3948SOL    HW113676  12.147  14.829   9.332
 3948SOL    HW213677  12.238  14.748   9.242
 3949SOL     OW13678  13.997  13.859  14.262
 3949SOL    HW113679  13.968  13.895  14.346
 3949SOL    HW213680  13.980  13.765  14.268
 3950SOL     OW13681  10.873  10.335   4.515
 3950SOL    HW113682  10.968  10.340   4.507
 3950SOL    HW213683  10.853  10.373   4.600
 3951SOL     OW13684  14.768   6.111  10.139
 3951SOL    HW113685  14.719   6.190  10.118
 3951SOL    HW213686  14.811   6.087  10.057
 3952SOL     OW13687   3.221   0.780   4.767
 3952SOL    HW113688   3.258   0.693   4.753
 3952SOL    HW213689   3.149   0.767   4.829
 3953SOL     OW13690   0.771   9.396   0.476
 3953SOL    HW113691   0.756   9.339   0.551
 3953SOL    HW213692   0.862   9.381   0.452
 3954SOL     OW13693   3.558   9.036   1.219
 3954SOL    HW113694   3.589   9.094   1.149
 3954SOL    HW213695   3.616   9.056   1.293
 3955SOL     OW13696   2.358  12.558  12.276
 3955SOL    HW113697   2.293  12.561  12.206
 3955SOL    HW213698   2.311  12.523  12.352
 3956SOL     OW13699  13.988  10.739   8.830
 3956SOL    HW113700  13.980  10.679   8.904
 3956SOL    HW213701  14.081  10.736   8.806
 3957SOL     OW13702  12.084  11.656  11.435
 3957SOL    HW113703  12.070  11.681  11.527
 3957SOL    HW213704  12.085  11.560  11.436
 3958SOL     OW13705   8.354   3.736  13.932
 3958SOL    HW113706   8.322   3.776  13.852
 3958SOL    HW213707   8.317   3.790  14.002
 3959SOL     OW13708   7.352   4.518  10.771
 3959SOL    HW113709   7.315   4.537  10.685
 3959SOL    HW213710   7.279   4.527  10.832
 3960SOL     OW13711  13.125  11.102  11.278
 3960SOL    HW113712  13.169  11.134  11.199
 3960SOL    HW213713  13.045  11.154  11.283
 3961SOL     OW13714  11.490   2.965   4.486
 3961SOL    HW113715  11.558   2.899   4.478
 3961SOL    HW213716  11.417   2.931   4.434
 3962SOL     OW13717  10.586  11.492  11.305
 3962SOL    HW113718  10.625  11.503  11.392
 3962SOL    HW213719  10.508  11.547  11.307
 3963SOL     OW13720  11.798   2.649   3.691
 3963SOL    HW113721  11.766   2.561   3.713
 3963SOL    HW213722  11.767   2.704   3.763
 3964SOL     OW13723   7.293   0.711  13.795
 3964SOL    HW113724   7.350   0.775  13.753
 3964SOL    HW213725   7.347   0.671  13.863
 3965SOL     OW13726   2.336   0.080  11.433
 3965SOL    HW113727   2.340   0.172  11.405
 3965SOL    HW213728   2.427   0.056  11.450
 3966SOL     OW13729  13.158   6.489   5.682
 3966SOL    HW113730  13.247   6.468   5.655
 3966SOL    HW213731  13.125   6.544   5.611
 3967SOL     OW13732   1.896   4.479   4.183
 3967SOL    HW113733   1.934   4.444   4.102
 3967SOL    HW213734   1.821   4.531   4.153
 3968SOL     OW13735  12.481  10.731   7.245
 3968SOL    HW113736  12.522  10.817   7.241
 3968SOL    HW213737  12.391  10.748   7.273
 3969SOL     OW13738  13.396   4.885   2.313
 3969SOL    HW113739  13.471   4.932   2.277
 3969SOL    HW213740  13.322   4.943   2.299
 3970SOL     OW13741  11.341   3.796   3.687
 3970SOL    HW113742  11.269   3.741   3.718
 3970SOL    HW213743  11.420   3.753   3.719
 3971SOL     OW13744   3.654  11.904   3.994
 3971SOL    HW113745   3.660  11.810   3.976
 3971SOL    HW213746   3.726  11.943   3.945
 3972SOL     OW13747   9.376  12.475   3.422
 3972SOL    HW113748   9.420  12.447   3.342
 3972SOL    HW213749   9.327  12.398   3.451
 3973SOL     OW13750   5.717  10.480  10.405
 3973SOL    HW113751   5.663  10.401  10.410
 3973SOL    HW213752   5.730  10.506  10.496
 3974SOL     OW13753   3.847  12.418  14.633
 3974SOL    HW113754   3.920  12.360  14.608
 3974SOL    HW213755   3.834  12.401  14.727
 3975SOL     OW13756  14.012   2.186  13.773
 3975SOL    HW113757  13.987   2.195  13.681
 3975SOL    HW213758  13.946   2.128  13.811
 3976SOL     OW13759  12.756  12.015  13.743
 3976SOL    HW113760  12.836  12.037  13.696
 3976SOL    HW213761  12.755  12.074  13.818
 3977SOL     OW13762  13.193  11.800  10.034
 3977SOL    HW113763  13.164  11.876  10.084
 3977SOL    HW213764  13.286  11.815  10.019
 3978SOL     OW13765  11.849  11.927   2.762
 3978SOL    HW113766  11.775  11.924   2.823
 3978SOL    HW213767  11.853  12.018   2.734
 3979SOL     OW13768  13.504   0.321   5.124
 3979SOL    HW113769  13.498   0.268   5.203
 3979SOL    HW213770  13.459   0.402   5.146
 3980SOL     OW13771  14.827   2.420   5.879
 3980SOL    HW113772  14.772   2.488   5.839
 3980SOL    HW213773   0.021   2.468   5.923
 3981SOL     OW13774   5.137  13.072   2.427
 3981SOL    HW113775   5.046  13.096   2.446
 3981SOL    HW213776   5.183  13.155   2.419
 3982SOL     OW13777  13.290   4.981   2.815
 3982SOL    HW113778  13.262   5.016   2.899
 3982SOL    HW213779  13.211   4.943   2.777
 3983SOL     OW13780   0.444  14.196  13.385
 3983SOL    HW113781   0.453  14.286  13.355
 3983SOL    HW213782   0.433  14.204  13.480
 3984SOL     OW13783   2.020   4.759  11.050
 3984SOL    HW113784   2.026   4.752  10.954
 3984SOL    HW213785   2.067   4.681  11.082
 3985SOL     OW13786   3.282  10.467  10.041
 3985SOL    HW113787   3.192  10.490  10.064
 3985SOL    HW213788   3.289  10.374  10.066
 3986SOL     OW13789   7.222   9.184  11.001
 3986SOL    HW113790   7.160   9.239  11.050
 3986SOL    HW213791   7.202   9.095  11.030
 3987SOL     OW13792   3.687   3.378   7.523
 3987SOL    HW113793   3.778   3.370   7.494
 3987SOL    HW213794   3.652   3.288   7.518
 3988SOL     OW13795  11.823   5.631  12.529
 3988SOL    HW113796  11.760   5.577  12.576
 3988SOL    HW213797  11.769   5.686  12.471
 3989SOL     OW13798   3.218   1.768   6.795
 3989SOL    HW113799   3.291   1.768   6.858
 3989SOL    HW213800   3.259   1.792   6.712
 3990SOL     OW13801   7.610  12.893  10.460
 3990SOL    HW113802   7.527  12.931  10.488
 3990SOL    HW213803   7.677  12.942  10.509
 3991SOL     OW13804   0.339   2.239   2.726
 3991SOL    HW113805   0.275   2.262   2.793
 3991SOL    HW213806   0.423   2.266   2.762
 3992SOL     OW13807   7.129   0.789   0.098
 3992SOL    HW113808   7.099   0.825   0.014
 3992SOL    HW213809   7.220   0.820   0.105
 3993SOL     OW13810   6.026   0.070  14.065
 3993SOL    HW113811   6.025   0.157  14.024
 3993SOL    HW213812   6.080   0.081  14.143
 3994SOL     OW13813   9.746   0.659   2.823
 3994SOL    HW113814   9.723   0.641   2.731
 3994SOL    HW213815   9.662   0.677   2.865
 3995SOL     OW13816  11.337   4.887   8.289
 3995SOL    HW113817  11.369   4.977   8.299
 3995SOL    HW213818  11.416   4.833   8.287
 3996SOL     OW13819   2.269   8.045   3.964
 3996SOL    HW113820   2.246   8.069   3.875
 3996SOL    HW213821   2.202   8.088   4.018
 3997SOL     OW13822  10.023   2.120  11.191
 3997SOL    HW113823  10.068   2.178  11.130
 3997SOL    HW213824   9.959   2.176  11.234
 3998SOL     OW13825   0.472  12.870  14.148
 3998SOL    HW113826   0.534  12.846  14.217
 3998SOL    HW213827   0.400  12.808  14.157
 3999SOL     OW13828   4.236  13.439   8.071
 3999SOL    HW113829   4.289  13.429   7.992
 3999SOL    HW213830   4.290  13.492   8.129
 4000SOL     OW13831   3.880   5.678   9.885
 4000SOL    HW113832   3.857   5.616   9.816
 4000SOL    HW213833   3.847   5.637   9.965
 4001SOL     OW13834   5.386   4.009   1.084
 4001SOL    HW113835   5.415   3.934   1.134
 4001SOL    HW213836   5.448   4.016   1.012
 4002SOL     OW13837   4.532   2.680  12.237
 4002SOL    HW113838   4.541   2.599  12.188
 4002SOL    HW213839   4.471   2.733  12.185
 4003SOL     OW13840  14.267   0.509   1.159
 4003SOL    HW113841  14.216   0.477   1.085
 4003SOL    HW213842  14.203   0.557   1.213
 4004SOL     OW13843   9.711  11.366   7.673
 4004SOL    HW113844   9.627  11.403   7.646
 4004SOL    HW213845   9.698  11.343   7.765
 4005SOL     OW13846   4.960  10.037   6.334
 4005SOL    HW113847   4.891   9.979   6.366
 4005SOL    HW213848   4.938  10.123   6.368
 4006SOL     OW13849   5.600   1.544   4.155
 4006SOL    HW113850   5.621   1.452   4.135
 4006SOL    HW213851   5.684   1.583   4.178
 4007SOL     OW13852   2.437  10.583   6.726
 4007SOL    HW113853   2.464  10.499   6.763
 4007SOL    HW213854   2.344  10.590   6.750
 4008SOL     OW13855   7.905   5.963  13.745
 4008SOL    HW113856   7.886   6.025  13.675
 4008SOL    HW213857   7.974   6.005  13.796
 4009SOL     OW13858  14.830  13.792   4.786
 4009SOL    HW113859  14.795  13.706   4.809
 4009SOL    HW213860   0.047  13.788   4.810
 4010SOL     OW13861  10.145  10.640   4.910
 4010SOL    HW113862  10.063  10.620   4.954
 4010SOL    HW213863  10.173  10.724   4.947
 4011SOL     OW13864   9.809   6.542   7.165
 4011SOL    HW113865   9.735   6.483   7.147
 4011SOL    HW213866   9.785   6.587   7.246
 4012SOL     OW13867   2.641   3.524  11.167
 4012SOL    HW113868   2.605   3.611  11.181
 4012SOL    HW213869   2.574   3.464  11.201
 4013SOL     OW13870   4.158   4.206   6.808
 4013SOL    HW113871   4.081   4.213   6.865
 4013SOL    HW213872   4.203   4.290   6.818
 4014SOL     OW13873   7.705   8.246   8.237
 4014SOL    HW113874   7.625   8.233   8.186
 4014SOL    HW213875   7.718   8.164   8.284
 4015SOL     OW13876  13.713   8.001   4.573
 4015SOL    HW113877  13.649   8.025   4.640
 4015SOL    HW213878  13.752   8.084   4.546
 4016SOL     OW13879   3.953   3.230  14.324
 4016SOL    HW113880   4.009   3.287  14.377
 4016SOL    HW213881   3.974   3.141  14.353
 4017SOL     OW13882   0.293  14.484  13.951
 4017SOL    HW113883   0.207  14.522  13.935
 4017SOL    HW213884   0.287  14.447  14.039
 4018SOL     OW13885   1.658  13.913   5.021
 4018SOL    HW113886   1.587  13.907   4.957
 4018SOL    HW213887   1.625  13.868   5.098
 4019SOL     OW13888  13.548  10.062  13.214
 4019SOL    HW113889  13.546  10.136  13.154
 4019SOL    HW213890  13.627  10.076  13.267
 4020SOL     OW13891   8.996  12.575   8.894
 4020SOL    HW113892   9.088  12.600   8.883
 4020SOL    HW213893   8.996  12.518   8.971
 4021SOL     OW13894   6.771   3.637   0.069
 4021SOL    HW113895   6.831   3.570   0.037
 4021SOL    HW213896   6.702   3.642   0.003
 4022SOL     OW13897   2.469   9.308  11.075
 4022SOL    HW113898   2.396   9.301  11.136
 4022SOL    HW213899   2.526   9.234  11.098
 4023SOL     OW13900   5.334   2.520  10.381
 4023SOL    HW113901   5.421   2.560  10.382
 4023SOL    HW213902   5.336   2.456  10.452
 4024SOL     OW13903   7.937   3.447   7.609
 4024SOL    HW113904   7.885   3.514   7.654
 4024SOL    HW213905   7.944   3.479   7.519
 4025SOL     OW13906   6.330   5.624  11.245
 4025SOL    HW113907   6.338   5.550  11.305
 4025SOL    HW213908   6.278   5.590  11.172
 4026SOL     OW13909  11.334   6.536   0.249
 4026SOL    HW113910  11.326   6.489   0.166
 4026SOL    HW213911  11.300   6.624   0.231
 4027SOL     OW13912  10.339   1.048   7.471
 4027SOL    HW113913  10.300   0.969   7.509
 4027SOL    HW213914  10.432   1.042   7.494
 4028SOL     OW13915  10.224   5.902   3.462
 4028SOL    HW113916  10.219   5.860   3.376
 4028SOL    HW213917  10.295   5.856   3.506
 4029SOL     OW13918  14.257  13.037   8.829
 4029SOL    HW113919  14.285  13.066   8.916
 4029SOL    HW213920  14.233  13.117   8.783
 4030SOL     OW13921   2.291   6.180   9.981
 4030SOL    HW113922   2.233   6.167  10.056
 4030SOL    HW213923   2.291   6.275   9.966
 4031SOL     OW13924  11.352  12.779   6.975
 4031SOL    HW113925  11.307  12.724   7.039
 4031SOL    HW213926  11.399  12.844   7.027
 4032SOL     OW13927   6.819   0.368  13.280
 4032SOL    HW113928   6.880   0.393  13.349
 4032SOL    HW213929   6.874   0.332  13.211
 4033SOL     OW13930   1.671   3.959   5.924
 4033SOL    HW113931   1.718   3.880   5.900
 4033SOL    HW213932   1.578   3.937   5.913
 4034SOL     OW13933   6.119   2.947  14.687
 4034SOL    HW113934   6.176   2.898  14.627
 4034SOL    HW213935   6.169   3.025  14.708
 4035SOL     OW13936   9.644   7.143   5.343
 4035SOL    HW113937   9.657   7.051   5.369
 4035SOL    HW213938   9.571   7.140   5.281
 4036SOL     OW13939   3.806   3.921  13.274
 4036SOL    HW113940   3.762   3.949  13.354
 4036SOL    HW213941   3.895   3.898  13.301
 4037SOL     OW13942   7.405  12.109   7.050
 4037SOL    HW113943   7.443  12.097   7.137
 4037SOL    HW213944   7.462  12.174   7.008
 4038SOL     OW13945   0.026   8.271  11.607
 4038SOL    HW113946   0.022   8.276  11.702
 4038SOL    HW213947   0.048   8.180  11.588
 4039SOL     OW13948  13.111   9.206   4.055
 4039SOL    HW113949  13.047   9.148   4.096
 4039SOL    HW213950  13.157   9.151   3.992
 4040SOL     OW13951   7.477   8.031   6.122
 4040SOL    HW113952   7.530   8.029   6.042
 4040SOL    HW213953   7.514   7.962   6.177
 4041SOL     OW13954  13.144   6.554  13.276
 4041SOL    HW113955  13.165   6.643  13.307
 4041SOL    HW213956  13.219   6.529  13.222
 4042SOL     OW13957   0.242   0.362   7.371
 4042SOL    HW113958   0.300   0.318   7.308
 4042SOL    HW213959   0.288   0.358   7.454
 4043SOL     OW13960   6.149   0.684  11.704
 4043SOL    HW113961   6.119   0.695  11.613
 4043SOL    HW213962   6.243   0.704  11.701
 4044SOL     OW13963   0.718  14.150  14.174
 4044SOL    HW113964   0.789  14.086  14.176
 4044SOL    HW213965   0.722  14.193  14.260
 4045SOL     OW13966  14.463   0.471   4.044
 4045SOL    HW113967  14.492   0.548   3.995
 4045SOL    HW213968  14.410   0.507   4.116
 4046SOL     OW13969   4.777   2.025  14.832
 4046SOL    HW113970   4.849   1.994   0.011
 4046SOL    HW213971   4.736   2.095   0.007
 4047SOL     OW13972  10.964  12.919   9.758
 4047SOL    HW113973  10.940  12.827   9.749
 4047SOL    HW213974  10.881  12.965   9.765
 4048SOL     OW13975   4.062  10.982  12.848
 4048SOL    HW113976   4.148  10.945  12.870
 4048SOL    HW213977   4.001  10.909  12.861
 4049SOL     OW13978   7.124   7.105   5.875
 4049SOL    HW113979   7.079   7.118   5.958
 4049SOL    HW213980   7.180   7.182   5.865
 4050SOL     OW13981   4.728   1.595  11.135
 4050SOL    HW113982   4.646   1.548  11.147
 4050SOL    HW213983   4.722   1.669  11.196
 4051SOL     OW13984   2.156   3.624  13.406
 4051SOL    HW113985   2.226   3.584  13.457
 4051SOL    HW213986   2.111   3.682  13.468
 4052SOL     OW13987   1.394   8.966   8.024
 4052SOL    HW113988   1.483   8.985   7.996
 4052SOL    HW213989   1.344   9.043   8.000
 4053SOL     OW13990  12.876   7.278   6.507
 4053SOL    HW113991  12.843   7.210   6.448
 4053SOL    HW213992  12.858   7.360   6.461
 4054SOL     OW13993   1.931  11.817  12.688
 4054SOL    HW113994   1.866  11.763  12.643
 4054SOL    HW213995   2.009  11.812  12.633
 4055SOL     OW13996   7.850   9.665   9.343
 4055SOL    HW113997   7.926   9.612   9.369
 4055SOL    HW213998   7.834   9.641   9.252
 4056SOL     OW13999   9.902   9.530  13.319
 4056SOL    HW114000   9.991   9.498  13.330
 4056SOL    HW214001   9.847   9.452  13.330
 4057SOL     OW14002   6.654   6.906   5.794
 4057SOL    HW114003   6.713   6.844   5.837
 4057SOL    HW214004   6.707   6.946   5.725
 4058SOL     OW14005   8.755  13.880   3.041
 4058SOL    HW114006   8.743  13.960   3.092
 4058SOL    HW214007   8.670  13.862   3.003
 4059SOL     OW14008  11.771   6.584   5.631
 4059SOL    HW114009  11.779   6.676   5.657
 4059SOL    HW214010  11.823   6.577   5.550
 4060SOL     OW14011  12.825   0.856   7.638
 4060SOL    HW114012  12.897   0.881   7.581
 4060SOL    HW214013  12.757   0.825   7.578
 4061SOL     OW14014  14.638  11.679   3.307
 4061SOL    HW114015  14.603  11.624   3.377
 4061SOL    HW214016  14.712  11.724   3.346
 4062SOL     OW14017   6.300   0.688   9.201
 4062SOL    HW114018   6.375   0.747   9.209
 4062SOL    HW214019   6.339   0.600   9.197
 4063SOL     OW14020   6.077   0.698   2.090
 4063SOL    HW114021   6.172   0.707   2.101
 4063SOL    HW214022   6.056   0.615   2.134
 4064SOL     OW14023   9.463   4.894   4.603
 4064SOL    HW114024   9.428   4.849   4.679
 4064SOL    HW214025   9.530   4.835   4.569
 4065SOL     OW14026  13.098  14.784   9.063
 4065SOL    HW114027  13.133  14.735   9.138
 4065SOL    HW214028  13.037  14.847   9.102
 4066SOL     OW14029  13.953   7.294  10.318
 4066SOL    HW114030  14.022   7.286  10.384
 4066SOL    HW214031  13.891   7.224  10.340
 4067SOL     OW14032   6.314   8.622  11.689
 4067SOL    HW114033   6.246   8.606  11.754
 4067SOL    HW214034   6.318   8.541  11.638
 4068SOL     OW14035  12.833   2.776   2.751
 4068SOL    HW114036  12.808   2.869   2.747
 4068SOL    HW214037  12.801   2.739   2.669
 4069SOL     OW14038   9.203   1.316   2.454
 4069SOL    HW114039   9.238   1.366   2.380
 4069SOL    HW214040   9.224   1.225   2.434
 4070SOL     OW14041   3.651   8.068  14.306
 4070SOL    HW114042   3.720   8.022  14.257
 4070SOL    HW214043   3.648   8.023  14.391
 4071SOL     OW14044   0.022  14.210  10.184
 4071SOL    HW114045  14.876  14.300  10.157
 4071SOL    HW214046   0.085  14.180  10.119
 4072SOL     OW14047  10.022   8.392   5.329
 4072SOL    HW114048  10.031   8.415   5.421
 4072SOL    HW214049  10.081   8.453   5.283
 4073SOL     OW14050   1.464   1.171   5.537
 4073SOL    HW114051   1.373   1.148   5.556
 4073SOL    HW214052   1.512   1.089   5.550
 4074SOL     OW14053   8.144   5.158  10.552
 4074SOL    HW114054   8.097   5.153  10.634
 4074SOL    HW214055   8.223   5.105  10.565
 4075SOL     OW14056   3.012  12.897   2.442
 4075SOL    HW114057   3.098  12.909   2.483
 4075SOL    HW214058   2.949  12.905   2.514
 4076SOL     OW14059   1.896   9.376   2.795
 4076SOL    HW114060   1.972   9.424   2.763
 4076SOL    HW214061   1.917   9.284   2.777
 4077SOL     OW14062   1.018  13.066  13.815
 4077SOL    HW114063   1.063  13.117  13.883
 4077SOL    HW214064   0.930  13.053  13.849
 4078SOL     OW14065   2.011  12.657  11.525
 4078SOL    HW114066   1.981  12.698  11.606
 4078SOL    HW214067   1.987  12.719  11.456
 4079SOL     OW14068   0.118  13.208  12.332
 4079SOL    HW114069   0.108  13.269  12.259
 4079SOL    HW214070   0.044  13.228  12.390
 4080SOL     OW14071  11.023   6.648   8.433
 4080SOL    HW114072  10.934   6.636   8.468
 4080SOL    HW214073  11.081   6.617   8.503
 4081SOL     OW14074   2.009   0.894  10.771
 4081SOL    HW114075   1.933   0.942  10.738
 4081SOL    HW214076   1.992   0.883  10.865
 4082SOL     OW14077   8.027  12.891   7.531
 4082SOL    HW114078   7.978  12.849   7.602
 4082SOL    HW214079   7.999  12.983   7.535
 4083SOL     OW14080   5.413   7.542   4.060
 4083SOL    HW114081   5.494   7.493   4.046
 4083SOL    HW214082   5.351   7.476   4.091
 4084SOL     OW14083  12.531   7.400  12.091
 4084SOL    HW114084  12.615   7.388  12.047
 4084SOL    HW214085  12.513   7.494  12.083
 4085SOL     OW14086   6.364  11.866   2.140
 4085SOL    HW114087   6.290  11.925   2.153
 4085SOL    HW214088   6.367  11.852   2.045
 4086SOL     OW14089  13.195  12.046   5.484
 4086SOL    HW114090  13.155  12.105   5.419
 4086SOL    HW214091  13.283  12.030   5.451
 4087SOL     OW14092  12.478  14.490   2.032
 4087SOL    HW114093  12.426  14.430   2.084
 4087SOL    HW214094  12.485  14.569   2.086
 4088SOL     OW14095   1.282   7.345   9.167
 4088SOL    HW114096   1.229   7.422   9.146
 4088SOL    HW214097   1.342   7.375   9.235
 4089SOL     OW14098  14.438   9.700   3.434
 4089SOL    HW114099  14.348   9.721   3.459
 4089SOL    HW214100  14.435   9.694   3.339
 4090SOL     OW14101   1.666   7.055   8.302
 4090SOL    HW114102   1.618   7.129   8.264
 4090SOL    HW214103   1.758   7.074   8.286
 4091SOL     OW14104  13.509  11.572   4.184
 4091SOL    HW114105  13.539  11.636   4.119
 4091SOL    HW214106  13.555  11.596   4.265
 4092SOL     OW14107   9.220   8.270   6.091
 4092SOL    HW114108   9.173   8.263   6.008
 4092SOL    HW214109   9.155   8.245   6.157
 4093SOL     OW14110   8.678   2.903   2.742
 4093SOL    HW114111   8.631   2.926   2.662
 4093SOL    HW214112   8.628   2.830   2.779
 4094SOL     OW14113   3.231   6.997  10.061
 4094SOL    HW114114   3.296   6.942  10.016
 4094SOL    HW214115   3.156   6.998  10.002
 4095SOL     OW14116   8.242   5.647   9.612
 4095SOL    HW114117   8.166   5.650   9.554
 4095SOL    HW214118   8.315   5.624   9.554
 4096SOL     OW14119   4.771   4.415   9.959
 4096SOL    HW114120   4.709   4.486   9.978
 4096SOL    HW214121   4.820   4.404  10.041
 4097SOL     OW14122   5.091  11.069   9.592
 4097SOL    HW114123   5.155  11.028   9.650
 4097SOL    HW214124   5.009  11.064   9.640
 4098SOL     OW14125   5.118   1.113  11.609
 4098SOL    HW114126   5.173   1.151  11.678
 4098SOL    HW214127   5.066   1.047  11.653
 4099SOL     OW14128   4.256  14.658   4.752
 4099SOL    HW114129   4.325  14.701   4.702
 4099SOL    HW214130   4.256  14.704   4.837
 4100SOL     OW14131   8.829  11.337   9.398
 4100SOL    HW114132   8.782  11.387   9.464
 4100SOL    HW214133   8.887  11.279   9.447
 4101SOL     OW14134   6.528   6.790  14.323
 4101SOL    HW114135   6.462   6.752  14.265
 4101SOL    HW214136   6.598   6.820  14.265
 4102SOL     OW14137   7.830  10.452  11.444
 4102SOL    HW114138   7.792  10.517  11.384
 4102SOL    HW214139   7.804  10.367  11.407
 4103SOL     OW14140   1.715   7.061  13.819
 4103SOL    HW114141   1.690   7.104  13.901
 4103SOL    HW214142   1.778   7.120  13.778
 4104SOL     OW14143   4.363   4.990   4.855
 4104SOL    HW114144   4.400   4.951   4.776
 4104SOL    HW214145   4.269   4.978   4.846
 4105SOL     OW14146   8.826  12.933   2.614
 4105SOL    HW114147   8.791  13.021   2.602
 4105SOL    HW214148   8.754  12.884   2.654
 4106SOL     OW14149   2.154   9.634  12.813
 4106SOL    HW114150   2.060   9.619  12.811
 4106SOL    HW214151   2.191   9.549  12.838
 4107SOL     OW14152   5.994  13.919   2.119
 4107SOL    HW114153   5.904  13.925   2.087
 4107SOL    HW214154   5.985  13.909   2.214
 4108SOL     OW14155  14.454   7.060   1.836
 4108SOL    HW114156  14.371   7.020   1.809
 4108SOL    HW214157  14.500   7.077   1.754
 4109SOL     OW14158  14.214  10.652   9.765
 4109SOL    HW114159  14.257  10.638   9.850
 4109SOL    HW214160  14.158  10.575   9.753
 4110SOL     OW14161   4.388   3.154   8.700
 4110SOL    HW114162   4.454   3.139   8.632
 4110SOL    HW214163   4.390   3.248   8.715
 4111SOL     OW14164   2.307   5.278   9.070
 4111SOL    HW114165   2.264   5.268   9.155
 4111SOL    HW214166   2.236   5.297   9.009
 4112SOL     OW14167   1.675   6.302  14.585
 4112SOL    HW114168   1.683   6.323  14.492
 4112SOL    HW214169   1.742   6.235  14.600
 4113SOL     OW14170   0.577   9.994   6.549
 4113SOL    HW114171   0.602   9.965   6.460
 4113SOL    HW214172   0.565  10.088   6.541
 4114SOL     OW14173  13.627   3.220   5.391
 4114SOL    HW114174  13.571   3.144   5.378
 4114SOL    HW214175  13.590   3.287   5.334
 4115SOL     OW14176   3.727  12.746   2.456
 4115SOL    HW114177   3.696  12.791   2.378
 4115SOL    HW214178   3.651  12.698   2.489
 4116SOL     OW14179  10.689   0.168   6.036
 4116SOL    HW114180  10.708   0.120   6.117
 4116SOL    HW214181  10.679   0.259   6.064
 4117SOL     OW14182  13.493   4.745   3.415
 4117SOL    HW114183  13.556   4.713   3.479
 4117SOL    HW214184  13.536   4.820   3.374
 4118SOL     OW14185   4.712  10.380  13.652
 4118SOL    HW114186   4.752  10.359  13.567
 4118SOL    HW214187   4.742  10.310  13.710
 4119SOL     OW14188   8.658   4.754  12.326
 4119SOL    HW114189   8.705   4.799  12.395
 4119SOL    HW214190   8.719   4.750  12.253
 4120SOL     OW14191   4.657  13.898   2.112
 4120SOL    HW114192   4.708  13.931   2.186
 4120SOL    HW214193   4.678  13.957   2.040
 4121SOL     OW14194   2.441   9.608   4.617
 4121SOL    HW114195   2.372   9.558   4.660
 4121SOL    HW214196   2.424   9.596   4.523
 4122SOL     OW14197   6.051   7.613   6.501
 4122SOL    HW114198   5.978   7.585   6.446
 4122SOL    HW214199   6.094   7.682   6.451
 4123SOL     OW14200  12.895   7.280  13.688
 4123SOL    HW114201  12.958   7.222  13.645
 4123SOL    HW214202  12.891   7.248  13.778
 4124SOL     OW14203  11.636   8.498   1.600
 4124SOL    HW114204  11.615   8.435   1.669
 4124SOL    HW214205  11.658   8.579   1.647
 4125SOL     OW14206   9.018  13.726   6.487
 4125SOL    HW114207   9.041  13.634   6.474
 4125SOL    HW214208   9.019  13.764   6.399
 4126SOL     OW14209   0.943  10.459  11.857
 4126SOL    HW114210   0.982  10.423  11.936
 4126SOL    HW214211   0.852  10.476  11.880
 4127SOL     OW14212   0.784   0.675   4.233
 4127SOL    HW114213   0.859   0.671   4.175
 4127SOL    HW214214   0.730   0.600   4.208
 4128SOL     OW14215  13.852  10.681  10.819
 4128SOL    HW114216  13.846  10.708  10.910
 4128SOL    HW214217  13.843  10.763  10.769
 4129SOL     OW14218   9.378   7.201  13.724
 4129SOL    HW114219   9.284   7.220  13.726
 4129SOL    HW214220   9.420   7.287  13.729
 4130SOL     OW14221   2.111   7.595   6.757
 4130SOL    HW114222   2.061   7.598   6.676
 4130SOL    HW214223   2.173   7.667   6.750
 4131SOL     OW14224   8.602   0.398   4.602
 4131SOL    HW114225   8.578   0.309   4.577
 4131SOL    HW214226   8.519   0.446   4.602
 4132SOL     OW14227   2.307  12.805   5.252
 4132SOL    HW114228   2.245  12.764   5.313
 4132SOL    HW214229   2.366  12.855   5.308
 4133SOL     OW14230   8.731   3.091   6.453
 4133SOL    HW114231   8.762   3.055   6.370
 4133SOL    HW214232   8.677   3.021   6.490
 4134SOL     OW14233   1.335   9.152   7.527
 4134SOL    HW114234   1.299   9.151   7.438
 4134SOL    HW214235   1.340   9.245   7.549
 4135SOL     OW14236   1.855   7.067   6.186
 4135SOL    HW114237   1.900   7.108   6.260
 4135SOL    HW214238   1.919   7.006   6.149
 4136SOL     OW14239   8.153  14.696   3.354
 4136SOL    HW114240   8.166  14.710   3.448
 4136SOL    HW214241   8.237  14.664   3.322
 4137SOL     OW14242   2.583   4.054   1.737
 4137SOL    HW114243   2.619   4.129   1.690
 4137SOL    HW214244   2.649   4.032   1.802
 4138SOL     OW14245  13.332   6.467  12.291
 4138SOL    HW114246  13.251   6.474  12.240
 4138SOL    HW214247  13.309   6.504  12.376
 4139SOL     OW14248   8.265   7.284  12.773
 4139SOL    HW114249   8.262   7.314  12.864
 4139SOL    HW214250   8.341   7.329  12.735
 4140SOL     OW14251  12.144   4.210  14.835
 4140SOL    HW114252  12.217   4.159  14.869
 4140SOL    HW214253  12.133   4.179  14.745
 4141SOL     OW14254   0.601   8.990   1.959
 4141SOL    HW114255   0.680   9.005   1.907
 4141SOL    HW214256   0.539   8.952   1.898
 4142SOL     OW14257   1.311  11.289  10.749
 4142SOL    HW114258   1.325  11.238  10.669
 4142SOL    HW214259   1.282  11.375  10.719
 4143SOL     OW14260  12.186   7.988   9.772
 4143SOL    HW114261  12.128   7.950   9.706
 4143SOL    HW214262  12.264   7.933   9.772
 4144SOL     OW14263   1.993   6.417   8.064
 4144SOL    HW114264   2.035   6.404   7.979
 4144SOL    HW214265   2.066   6.429   8.125
 4145SOL     OW14266   9.931  10.656  13.638
 4145SOL    HW114267   9.946  10.588  13.704
 4145SOL    HW214268   9.923  10.737  13.689
 4146SOL     OW14269   6.381  14.726  14.345
 4146SOL    HW114270   6.448  14.714  14.278
 4146SOL    HW214271   6.371  14.640  14.385
 4147SOL     OW14272   0.029   3.610   6.161
 4147SOL    HW114273   0.033   3.706   6.167
 4147SOL    HW214274   0.069   3.580   6.242
 4148SOL     OW14275   9.145   8.963   6.549
 4148SOL    HW114276   9.069   8.992   6.600
 4148SOL    HW214277   9.204   8.925   6.614
 4149SOL     OW14278  13.990   6.912   8.722
 4149SOL    HW114279  13.971   7.004   8.703
 4149SOL    HW214280  14.074   6.915   8.769
 4150SOL     OW14281  10.924   3.434   7.439
 4150SOL    HW114282  10.958   3.375   7.506
 4150SOL    HW214283  10.987   3.506   7.437
 4151SOL     OW14284  10.007   5.274  12.566
 4151SOL    HW114285   9.991   5.208  12.498
 4151SOL    HW214286   9.991   5.358  12.522
 4152SOL     OW14287   4.107   0.805   9.932
 4152SOL    HW114288   4.103   0.898   9.912
 4152SOL    HW214289   4.176   0.771   9.874
 4153SOL     OW14290   6.280   1.084   6.937
 4153SOL    HW114291   6.192   1.121   6.945
 4153SOL    HW214292   6.268   1.005   6.885
 4154SOL     OW14293  12.760   6.958  11.467
 4154SOL    HW114294  12.785   6.942  11.376
 4154SOL    HW214295  12.785   7.049  11.483
 4155SOL     OW14296   4.726   9.405   1.951
 4155SOL    HW114297   4.718   9.333   1.888
 4155SOL    HW214298   4.792   9.374   2.014
 4156SOL     OW14299   0.955  10.565  13.830
 4156SOL    HW114300   0.970  10.506  13.757
 4156SOL    HW214301   1.042  10.578  13.869
 4157SOL     OW14302   6.434   1.700  13.766
 4157SOL    HW114303   6.372   1.648  13.715
 4157SOL    HW214304   6.415   1.679  13.857
 4158SOL     OW14305  10.011  11.966   1.813
 4158SOL    HW114306   9.965  12.050   1.818
 4158SOL    HW214307   9.956  11.905   1.863
 4159SOL     OW14308   2.599  14.499  13.860
 4159SOL    HW114309   2.601  14.403  13.865
 4159SOL    HW214310   2.540  14.517  13.787
 4160SOL     OW14311   0.987   7.659  13.646
 4160SOL    HW114312   1.054   7.625  13.587
 4160SOL    HW214313   1.036   7.712  13.709
 4161SOL     OW14314   4.212   6.382   6.784
 4161SOL    HW114315   4.160   6.422   6.853
 4161SOL    HW214316   4.231   6.453   6.724
 4162SOL     OW14317   4.119   6.805   6.937
 4162SOL    HW114318   4.110   6.809   7.032
 4162SOL    HW214319   4.083   6.888   6.906
 4163SOL     OW14320   5.650   9.815   6.435
 4163SOL    HW114321   5.664   9.882   6.369
 4163SOL    HW214322   5.602   9.860   6.505
 4164SOL     OW14323  10.176   7.457   6.164
 4164SOL    HW114324  10.185   7.372   6.207
 4164SOL    HW214325  10.127   7.438   6.084
 4165SOL     OW14326   3.171  10.567   8.750
 4165SOL    HW114327   3.214  10.575   8.835
 4165SOL    HW214328   3.172  10.656   8.714
 4166SOL     OW14329   6.868   3.121  11.631
 4166SOL    HW114330   6.895   3.180  11.561
 4166SOL    HW214331   6.774   3.106  11.616
 4167SOL     OW14332  11.833   8.907  11.617
 4167SOL    HW114333  11.808   8.994  11.649
 4167SOL    HW214334  11.779   8.847  11.669
 4168SOL     OW14335  14.655   1.040   8.850
 4168SOL    HW114336  14.719   0.986   8.897
 4168SOL    HW214337  14.653   1.004   8.762
 4169SOL     OW14338   1.108   5.573   1.412
 4169SOL    HW114339   1.044   5.642   1.427
 4169SOL    HW214340   1.193   5.617   1.416
 4170SOL     OW14341   8.846   3.719  12.019
 4170SOL    HW114342   8.921   3.779  12.014
 4170SOL    HW214343   8.883   3.634  11.995
 4171SOL     OW14344   2.962   3.304   1.815
 4171SOL    HW114345   2.879   3.343   1.789
 4171SOL    HW214346   2.992   3.257   1.737
 4172SOL     OW14347  13.641  10.669   4.943
 4172SOL    HW114348  13.598  10.691   4.860
 4172SOL    HW214349  13.588  10.599   4.980
 4173SOL     OW14350  11.621   3.935   6.304
 4173SOL    HW114351  11.677   3.860   6.284
 4173SOL    HW214352  11.682   4.005   6.328
 4174SOL     OW14353  12.756   5.562   5.237
 4174SOL    HW114354  12.686   5.624   5.260
 4174SOL    HW214355  12.805   5.550   5.318
 4175SOL     OW14356  12.985  13.253   2.433
 4175SOL    HW114357  13.021  13.178   2.386
 4175SOL    HW214358  13.050  13.274   2.499
 4176SOL     OW14359   1.387   6.228   2.575
 4176SOL    HW114360   1.442   6.307   2.575
 4176SOL    HW214361   1.334   6.236   2.496
 4177SOL     OW14362   8.287  10.821   3.340
 4177SOL    HW114363   8.352  10.815   3.270
 4177SOL    HW214364   8.254  10.732   3.350
 4178SOL     OW14365  14.156  10.380   8.876
 4178SOL    HW114366  14.221  10.449   8.865
 4178SOL    HW214367  14.187  10.331   8.953
 4179SOL     OW14368  14.173  12.812  12.302
 4179SOL    HW114369  14.128  12.732  12.330
 4179SOL    HW214370  14.245  12.821  12.364
 4180SOL     OW14371   7.044   2.378  12.420
 4180SOL    HW114372   7.098   2.300  12.433
 4180SOL    HW214373   7.104   2.451  12.433
 4181SOL     OW14374  13.475  12.819   6.714
 4181SOL    HW114375  13.554  12.789   6.669
 4181SOL    HW214376  13.491  12.912   6.731
 4182SOL     OW14377  10.852  14.055   9.289
 4182SOL    HW114378  10.769  14.069   9.334
 4182SOL    HW214379  10.875  13.965   9.310
 4183SOL     OW14380   6.955   5.053  13.619
 4183SOL    HW114381   6.946   5.029  13.526
 4183SOL    HW214382   7.038   5.100  13.623
 4184SOL     OW14383   3.885   6.345   8.144
 4184SOL    HW114384   3.791   6.329   8.158
 4184SOL    HW214385   3.926   6.322   8.227
 4185SOL     OW14386  10.040   2.319  14.252
 4185SOL    HW114387  10.042   2.225  14.271
 4185SOL    HW214388  10.123   2.336  14.208
 4186SOL     OW14389  10.983   4.107  13.092
 4186SOL    HW114390  11.078   4.101  13.105
 4186SOL    HW214391  10.955   4.179  13.149
 4187SOL     OW14392   7.505  12.489   9.568
 4187SOL    HW114393   7.549  12.573   9.555
 4187SOL    HW214394   7.509  12.473   9.662
 4188SOL     OW14395   1.641   8.533   7.957
 4188SOL    HW114396   1.617   8.597   7.890
 4188SOL    HW214397   1.653   8.586   8.037
 4189SOL     OW14398   2.327   9.489  11.401
 4189SOL    HW114399   2.384   9.419  11.432
 4189SOL    HW214400   2.284   9.522  11.480
 4190SOL     OW14401  11.517   7.187   1.982
 4190SOL    HW114402  11.448   7.159   1.923
 4190SOL    HW214403  11.487   7.272   2.016
 4191SOL     OW14404   2.737  14.703   5.082
 4191SOL    HW114405   2.812  14.644   5.091
 4191SOL    HW214406   2.706  14.688   4.993
 4192SOL     OW14407   6.264   2.090   8.751
 4192SOL    HW114408   6.320   2.017   8.773
 4192SOL    HW214409   6.303   2.129   8.673
 4193SOL     OW14410   1.618   7.420   3.947
 4193SOL    HW114411   1.667   7.391   4.024
 4193SOL    HW214412   1.657   7.504   3.924
 4194SOL     OW14413  10.648   0.667   3.467
 4194SOL    HW114414  10.618   0.590   3.517
 4194SOL    HW214415  10.736   0.644   3.438
 4195SOL     OW14416   2.086   5.864  13.151
 4195SOL    HW114417   2.161   5.805  13.141
 4195SOL    HW214418   2.125   5.947  13.182
 4196SOL     OW14419   5.483   2.525   5.574
 4196SOL    HW114420   5.452   2.436   5.561
 4196SOL    HW214421   5.576   2.515   5.594
 4197SOL     OW14422   8.634   1.906   8.346
 4197SOL    HW114423   8.573   1.939   8.279
 4197SOL    HW214424   8.578   1.884   8.420
 4198SOL     OW14425   2.495  11.491   4.912
 4198SOL    HW114426   2.588  11.495   4.894
 4198SOL    HW214427   2.460  11.573   4.877
 4199SOL     OW14428   6.667   7.148   0.192
 4199SOL    HW114429   6.572   7.146   0.202
 4199SOL    HW214430   6.683   7.102   0.109
 4200SOL     OW14431  11.626  10.889   8.991
 4200SOL    HW114432  11.533  10.892   9.016
 4200SOL    HW214433  11.672  10.917   9.069
 4201SOL     OW14434  13.282  12.325  13.941
 4201SOL    HW114435  13.274  12.233  13.914
 4201SOL    HW214436  13.263  12.375  13.862
 4202SOL     OW14437   4.412   8.116  14.809
 4202SOL    HW114438   4.399   8.109  14.714
 4202SOL    HW214439   4.500   8.153  14.818
 4203SOL     OW14440  10.137   0.334   5.524
 4203SOL    HW114441  10.176   0.402   5.577
 4203SOL    HW214442  10.209   0.299   5.472
 4204SOL     OW14443  13.323   4.656   9.509
 4204SOL    HW114444  13.336   4.563   9.528
 4204SOL    HW214445  13.315   4.660   9.414
 4205SOL     OW14446  12.861   3.369   8.332
 4205SOL    HW114447  12.916   3.320   8.394
 4205SOL    HW214448  12.860   3.458   8.366
 4206SOL     OW14449   1.907   0.844  12.616
 4206SOL    HW114450   1.903   0.836  12.711
 4206SOL    HW214451   1.984   0.793  12.590
 4207SOL     OW14452   6.767   5.250   4.097
 4207SOL    HW114453   6.676   5.277   4.096
 4207SOL    HW214454   6.816   5.328   4.069
 4208SOL     OW14455   9.694  14.143  13.835
 4208SOL    HW114456   9.772  14.163  13.887
 4208SOL    HW214457   9.728  14.112  13.751
 4209SOL     OW14458   4.328   2.214   1.393
 4209SOL    HW114459   4.372   2.295   1.369
 4209SOL    HW214460   4.364   2.191   1.479
 4210SOL     OW14461  14.422  13.780   7.815
 4210SOL    HW114462  14.400  13.688   7.827
 4210SOL    HW214463  14.350  13.816   7.764
 4211SOL     OW14464   7.452   3.907   8.989
 4211SOL    HW114465   7.518   3.896   9.058
 4211SOL    HW214466   7.503   3.933   8.912
 4212SOL     OW14467   6.845   3.988  11.319
 4212SOL    HW114468   6.833   3.959  11.228
 4212SOL    HW214469   6.845   3.907  11.370
 4213SOL     OW14470   2.830  10.719  13.779
 4213SOL    HW114471   2.830  10.791  13.842
 4213SOL    HW214472   2.838  10.762  13.694
 4214SOL     OW14473   0.634   3.219   3.081
 4214SOL    HW114474   0.556   3.270   3.064
 4214SOL    HW214475   0.687   3.275   3.138
 4215SOL     OW14476   2.201   6.279   7.081
 4215SOL    HW114477   2.294   6.272   7.059
 4215SOL    HW214478   2.157   6.292   6.997
 4216SOL     OW14479   6.979   2.094   3.023
 4216SOL    HW114480   6.946   2.178   2.991
 4216SOL    HW214481   6.908   2.058   3.075
 4217SOL     OW14482  11.589   6.122   8.920
 4217SOL    HW114483  11.537   6.111   8.999
 4217SOL    HW214484  11.659   6.183   8.946
 4218SOL     OW14485  14.765   4.195  11.775
 4218SOL    HW114486  14.701   4.233  11.835
 4218SOL    HW214487  14.848   4.238  11.799
 4219SOL     OW14488   4.194   2.368   2.939
 4219SOL    HW114489   4.201   2.339   3.030
 4219SOL    HW214490   4.107   2.406   2.932
 4220SOL     OW14491  12.510   9.190  13.821
 4220SOL    HW114492  12.441   9.237  13.867
 4220SOL    HW214493  12.539   9.250  13.752
 4221SOL     OW14494   7.502   2.320  11.891
 4221SOL    HW114495   7.432   2.365  11.843
 4221SOL    HW214496   7.579   2.328  11.835
 4222SOL     OW14497   3.994  14.839   8.633
 4222SOL    HW114498   3.929  14.794   8.578
 4222SOL    HW214499   3.947   0.039   8.668
 4223SOL     OW14500  14.217  10.059   4.520
 4223SOL    HW114501  14.240  10.011   4.599
 4223SOL    HW214502  14.153  10.124   4.549
 4224SOL     OW14503   5.200  12.129  14.601
 4224SOL    HW114504   5.232  12.159  14.516
 4224SOL    HW214505   5.243  12.044  14.614
 4225SOL     OW14506  12.247   1.046  13.761
 4225SOL    HW114507  12.279   1.101  13.689
 4225SOL    HW214508  12.301   1.071  13.836
 4226SOL     OW14509   6.201  12.126   0.395
 4226SOL    HW114510   6.233  12.036   0.396
 4226SOL    HW214511   6.238  12.166   0.474
 4227SOL     OW14512   1.415   0.831   5.081
 4227SOL    HW114513   1.461   0.913   5.096
 4227SOL    HW214514   1.471   0.782   5.021
 4228SOL     OW14515  12.553  11.801   8.987
 4228SOL    HW114516  12.624  11.861   9.010
 4228SOL    HW214517  12.524  11.765   9.071
 4229SOL     OW14518   2.293  13.824   1.779
 4229SOL    HW114519   2.303  13.919   1.771
 4229SOL    HW214520   2.270  13.795   1.691
 4230SOL     OW14521   3.488   9.343   7.219
 4230SOL    HW114522   3.418   9.358   7.155
 4230SOL    HW214523   3.454   9.275   7.276
 4231SOL     OW14524  14.562   2.040  10.849
 4231SOL    HW114525  14.492   1.975  10.855
 4231SOL    HW214526  14.606   2.036  10.934
 4232SOL     OW14527  12.211  13.168   0.793
 4232SOL    HW114528  12.252  13.170   0.706
 4232SOL    HW214529  12.174  13.080   0.799
 4233SOL     OW14530   1.159  12.352   8.282
 4233SOL    HW114531   1.174  12.446   8.291
 4233SOL    HW214532   1.247  12.314   8.285
 4234SOL     OW14533   1.615   6.910  10.920
 4234SOL    HW114534   1.676   6.940  10.853
 4234SOL    HW214535   1.631   6.816  10.928
 4235SOL     OW14536  10.839   3.486  13.000
 4235SOL    HW114537  10.801   3.572  13.012
 4235SOL    HW214538  10.875   3.463  13.086
 4236SOL     OW14539   2.574   6.777  13.845
 4236SOL    HW114540   2.551   6.870  13.850
 4236SOL    HW214541   2.669   6.776  13.858
 4237SOL     OW14542   1.048  12.093  10.742
 4237SOL    HW114543   1.062  12.039  10.819
 4237SOL    HW214544   0.998  12.168  10.774
 4238SOL     OW14545  13.402   6.371   5.686
 4238SOL    HW114546  13.456   6.402   5.759
 4238SOL    HW214547  13.339   6.312   5.727
 4239SOL     OW14548   4.303   6.727   0.935
 4239SOL    HW114549   4.234   6.749   0.998
 4239SOL    HW214550   4.272   6.646   0.893
 4240SOL     OW14551   9.810   3.442   4.729
 4240SOL    HW114552   9.802   3.415   4.638
 4240SOL    HW214553   9.724   3.422   4.767
 4241SOL     OW14554   6.161   1.271   9.614
 4241SOL    HW114555   6.159   1.300   9.523
 4241SOL    HW214556   6.185   1.178   9.608
 4242SOL     OW14557   3.669  10.036   4.948
 4242SOL    HW114558   3.664  10.053   4.854
 4242SOL    HW214559   3.618   9.955   4.960
 4243SOL     OW14560  14.120  10.635   6.212
 4243SOL    HW114561  14.211  10.616   6.187
 4243SOL    HW214562  14.126  10.713   6.267
 4244SOL     OW14563   2.803   7.321   4.565
 4244SOL    HW114564   2.810   7.252   4.630
 4244SOL    HW214565   2.893   7.339   4.539
 4245SOL     OW14566  10.648   5.834   2.266
 4245SOL    HW114567  10.627   5.802   2.354
 4245SOL    HW214568  10.738   5.806   2.251
 4246SOL     OW14569   7.175   8.932  12.519
 4246SOL    HW114570   7.102   8.971  12.569
 4246SOL    HW214571   7.195   8.998  12.452
 4247SOL     OW14572   6.642   5.686   0.368
 4247SOL    HW114573   6.566   5.740   0.345
 4247SOL    HW214574   6.621   5.600   0.331
 4248SOL     OW14575   3.606   5.761  11.264
 4248SOL    HW114576   3.654   5.712  11.331
 4248SOL    HW214577   3.617   5.852  11.289
 4249SOL     OW14578   3.769   5.519   4.284
 4249SOL    HW114579   3.848   5.475   4.315
 4249SOL    HW214580   3.748   5.476   4.201
 4250SOL     OW14581   2.743  12.516  10.576
 4250SOL    HW114582   2.680  12.585  10.554
 4250SOL    HW214583   2.829  12.557  10.560
 4251SOL     OW14584  13.223   5.816  14.108
 4251SOL    HW114585  13.233   5.735  14.157
 4251SOL    HW214586  13.311   5.838  14.079
 4252SOL     OW14587   1.400  13.721  12.279
 4252SOL    HW114588   1.391  13.631  12.245
 4252SOL    HW214589   1.486  13.722  12.321
 4253SOL     OW14590   3.489  13.566   6.391
 4253SOL    HW114591   3.456  13.598   6.475
 4253SOL    HW214592   3.507  13.473   6.406
 4254SOL     OW14593   2.570   3.043  10.657
 4254SOL    HW114594   2.552   3.137  10.656
 4254SOL    HW214595   2.664   3.038  10.672
 4255SOL     OW14596  12.554  10.256  12.596
 4255SOL    HW114597  12.500  10.182  12.621
 4255SOL    HW214598  12.642  10.219  12.584
 4256SOL     OW14599   1.541   4.937   1.152
 4256SOL    HW114600   1.592   4.880   1.094
 4256SOL    HW214601   1.467   4.965   1.099
 4257SOL     OW14602  13.718   0.838   3.704
 4257SOL    HW114603  13.804   0.823   3.664
 4257SOL    HW214604  13.695   0.927   3.678
 4258SOL     OW14605   6.407   2.740   2.184
 4258SOL    HW114606   6.321   2.778   2.202
 4258SOL    HW214607   6.401   2.650   2.216
 4259SOL     OW14608  10.332  12.366   6.595
 4259SOL    HW114609  10.301  12.370   6.505
 4259SOL    HW214610  10.351  12.457   6.618
 4260SOL     OW14611   9.516  10.685   1.966
 4260SOL    HW114612   9.550  10.662   2.053
 4260SOL    HW214613   9.594  10.712   1.917
 4261SOL     OW14614   1.952  10.693   3.903
 4261SOL    HW114615   2.030  10.658   3.860
 4261SOL    HW214616   1.986  10.766   3.957
 4262SOL     OW14617   6.650   5.956  10.903
 4262SOL    HW114618   6.712   6.024  10.879
 4262SOL    HW214619   6.596   5.996  10.972
 4263SOL     OW14620   0.409   3.087   2.819
 4263SOL    HW114621   0.455   3.162   2.781
 4263SOL    HW214622   0.342   3.126   2.875
 4264SOL     OW14623   7.935   9.104  12.818
 4264SOL    HW114624   7.934   9.017  12.778
 4264SOL    HW214625   7.900   9.089  12.906
 4265SOL     OW14626  14.553   8.284   3.082
 4265SOL    HW114627  14.578   8.192   3.075
 4265SOL    HW214628  14.566   8.319   2.994
 4266SOL     OW14629  10.650  10.109   3.120
 4266SOL    HW114630  10.701  10.066   3.189
 4266SOL    HW214631  10.644  10.201   3.147
 4267SOL     OW14632   7.248   1.779   9.300
 4267SOL    HW114633   7.168   1.742   9.338
 4267SOL    HW214634   7.263   1.727   9.221
 4268SOL     OW14635   7.820  13.569   7.291
 4268SOL    HW114636   7.748  13.515   7.257
 4268SOL    HW214637   7.876  13.507   7.337
 4269SOL     OW14638   3.393   5.836   1.388
 4269SOL    HW114639   3.440   5.919   1.377
 4269SOL    HW214640   3.351   5.822   1.303
 4270SOL     OW14641   7.939   2.438   4.581
 4270SOL    HW114642   7.893   2.463   4.661
 4270SOL    HW214643   7.884   2.470   4.510
 4271SOL     OW14644  13.282   6.620   9.256
 4271SOL    HW114645  13.197   6.616   9.211
 4271SOL    HW214646  13.327   6.541   9.228
 4272SOL     OW14647  11.135  14.467   2.545
 4272SOL    HW114648  11.134  14.372   2.556
 4272SOL    HW214649  11.084  14.500   2.619
 4273SOL     OW14650   0.191   9.271   0.712
 4273SOL    HW114651   0.164   9.200   0.653
 4273SOL    HW214652   0.176   9.237   0.800
 4274SOL     OW14653   4.740   7.629   7.091
 4274SOL    HW114654   4.819   7.601   7.045
 4274SOL    HW214655   4.677   7.559   7.074
 4275SOL     OW14656  11.743  14.633   5.382
 4275SOL    HW114657  11.771  14.685   5.306
 4275SOL    HW214658  11.800  14.662   5.453
 4276SOL     OW14659   1.833  11.542   9.475
 4276SOL    HW114660   1.748  11.567   9.511
 4276SOL    HW214661   1.884  11.622   9.475
 4277SOL     OW14662   6.175  11.499   5.476
 4277SOL    HW114663   6.231  11.457   5.541
 4277SOL    HW214664   6.141  11.427   5.424
 4278SOL     OW14665   9.213  13.342   5.641
 4278SOL    HW114666   9.303  13.332   5.608
 4278SOL    HW214667   9.217  13.423   5.693
 4279SOL     OW14668   4.699  10.500   8.880
 4279SOL    HW114669   4.742  10.492   8.965
 4279SOL    HW214670   4.643  10.577   8.887
 4280SOL     OW14671   9.781   3.003   1.999
 4280SOL    HW114672   9.786   3.046   2.084
 4280SOL    HW214673   9.689   3.008   1.974
 4281SOL     OW14674   6.142   1.332   5.909
 4281SOL    HW114675   6.145   1.388   5.831
 4281SOL    HW214676   6.074   1.267   5.889
 4282SOL     OW14677   3.514   6.501  11.575
 4282SOL    HW114678   3.501   6.520  11.668
 4282SOL    HW214679   3.527   6.587  11.534
 4283SOL     OW14680   5.797   6.627  14.690
 4283SOL    HW114681   5.891   6.642  14.678
 4283SOL    HW214682   5.770   6.578  14.612
 4284SOL     OW14683   1.185   5.302   9.911
 4284SOL    HW114684   1.150   5.336   9.993
 4284SOL    HW214685   1.280   5.314   9.919
 4285SOL     OW14686  12.096   3.808  14.767
 4285SOL    HW114687  12.105   3.759  14.685
 4285SOL    HW214688  12.183   3.847  14.781
 4286SOL     OW14689   8.640  13.471   9.145
 4286SOL    HW114690   8.583  13.405   9.104
 4286SOL    HW214691   8.717  13.474   9.089
 4287SOL     OW14692   0.510  14.857  12.789
 4287SOL    HW114693   0.529  14.764  12.791
 4287SOL    HW214694   0.588   0.023  12.825
 4288SOL     OW14695  10.682   0.286   0.100
 4288SOL    HW114696  10.647   0.375   0.102
 4288SOL    HW214697  10.759   0.292   0.044
 4289SOL     OW14698   8.115   9.467  11.595
 4289SOL    HW114699   8.039   9.410  11.609
 4289SOL    HW214700   8.128   9.511  11.679
 4290SOL     OW14701   3.734   0.476  13.782
 4290SOL    HW114702   3.726   0.430  13.698
 4290SOL    HW214703   3.734   0.568  13.758
 4291SOL     OW14704  14.738   1.732   2.680
 4291SOL    HW114705  14.691   1.694   2.754
 4291SOL    HW214706  14.685   1.708   2.604
 4292SOL     OW14707   3.794  11.264  11.948
 4292SOL    HW114708   3.879  11.274  11.991
 4292SOL    HW214709   3.733  11.311  12.005
 4293SOL     OW14710   7.723   1.195   0.658
 4293SOL    HW114711   7.805   1.243   0.667
 4293SOL    HW214712   7.686   1.226   0.575
 4294SOL     OW14713   7.306   7.896  10.907
 4294SOL    HW114714   7.349   7.932  10.829
 4294SOL    HW214715   7.230   7.953  10.921
 4295SOL     OW14716  13.161   2.657  13.465
 4295SOL    HW114717  13.160   2.716  13.541
 4295SOL    HW214718  13.124   2.708  13.394
 4296SOL     OW14719   7.915   0.012  14.708
 4296SOL    HW114720   7.850  14.867  14.641
 4296SOL    HW214721   7.886   0.094  14.746
 4297SOL     OW14722  11.465   2.468   9.339
 4297SOL    HW114723  11.387   2.417   9.361
 4297SOL    HW214724  11.437   2.527   9.269
 4298SOL     OW14725   2.421  10.901   9.485
 4298SOL    HW114726   2.441  10.894   9.392
 4298SOL    HW214727   2.354  10.970   9.490
 4299SOL     OW14728   6.801   6.196   7.705
 4299SOL    HW114729   6.774   6.134   7.774
 4299SOL    HW214730   6.719   6.239   7.679
 4300SOL     OW14731   2.329  13.690   5.538
 4300SOL    HW114732   2.283  13.688   5.454
 4300SOL    HW214733   2.390  13.763   5.530
 4301SOL     OW14734  10.789   7.210  14.635
 4301SOL    HW114735  10.734   7.234  14.710
 4301SOL    HW214736  10.762   7.121  14.613
 4302SOL     OW14737   9.747   2.882   0.288
 4302SOL    HW114738   9.743   2.945   0.216
 4302SOL    HW214739   9.771   2.800   0.246
 4303SOL     OW14740   7.254   6.401   0.243
 4303SOL    HW114741   7.207   6.318   0.253
 4303SOL    HW214742   7.324   6.396   0.307
 4304SOL     OW14743  10.525  12.405   5.083
 4304SOL    HW114744  10.449  12.454   5.050
 4304SOL    HW214745  10.488  12.336   5.137
 4305SOL     OW14746   2.279   1.927  13.187
 4305SOL    HW114747   2.245   2.003  13.233
 4305SOL    HW214748   2.222   1.855  13.214
 4306SOL     OW14749  14.417   1.139   9.362
 4306SOL    HW114750  14.331   1.097   9.366
 4306SOL    HW214751  14.399   1.226   9.326
 4307SOL     OW14752   8.448   4.867   7.363
 4307SOL    HW114753   8.416   4.830   7.446
 4307SOL    HW214754   8.503   4.941   7.389
 4308SOL     OW14755   2.973   3.738   1.131
 4308SOL    HW114756   2.982   3.645   1.109
 4308SOL    HW214757   2.988   3.742   1.226
 4309SOL     OW14758   4.748  13.040   2.253
 4309SOL    HW114759   4.804  13.054   2.177
 4309SOL    HW214760   4.798  13.074   2.327
 4310SOL     OW14761   1.963  11.466  10.353
 4310SOL    HW114762   1.873  11.448  10.378
 4310SOL    HW214763   2.017  11.414  10.413
 4311SOL     OW14764   8.170  13.856   1.754
 4311SOL    HW114765   8.127  13.801   1.819
 4311SOL    HW214766   8.130  13.942   1.764
 4312SOL     OW14767   7.659  10.517   3.708
 4312SOL    HW114768   7.621  10.594   3.666
 4312SOL    HW214769   7.627  10.443   3.657
 4313SOL     OW14770  10.498   2.903   1.538
 4313SOL    HW114771  10.478   2.830   1.597
 4313SOL    HW214772  10.413   2.928   1.501
 4314SOL     OW14773   4.776   3.289   0.828
 4314SOL    HW114774   4.712   3.268   0.896
 4314SOL    HW214775   4.852   3.320   0.876
 4315SOL     OW14776   7.242  11.146   3.278
 4315SOL    HW114777   7.153  11.128   3.247
 4315SOL    HW214778   7.290  11.064   3.262
 4316SOL     OW14779  10.415   2.345   3.372
 4316SOL    HW114780  10.358   2.416   3.342
 4316SOL    HW214781  10.499   2.364   3.330
 4317SOL     OW14782   5.389   4.169   3.427
 4317SOL    HW114783   5.377   4.255   3.466
 4317SOL    HW214784   5.322   4.115   3.469
 4318SOL     OW14785   5.371   5.114   1.298
 4318SOL    HW114786   5.428   5.109   1.221
 4318SOL    HW214787   5.394   5.197   1.339
 4319SOL     OW14788  10.204   0.729  11.685
 4319SOL    HW114789  10.233   0.798  11.745
 4319SOL    HW214790  10.282   0.709  11.633
 4320SOL     OW14791   2.262  11.236   2.011
 4320SOL    HW114792   2.338  11.291   1.993
 4320SOL    HW214793   2.240  11.197   1.926
 4321SOL     OW14794   2.268   4.599   1.978
 4321SOL    HW114795   2.186   4.587   1.930
 4321SOL    HW214796   2.275   4.694   1.990
 4322SOL     OW14797  12.015  14.382   2.351
 4322SOL    HW114798  11.974  14.465   2.374
 4322SOL    HW214799  11.941  14.323   2.334
 4323SOL     OW14800  13.837   7.874   5.757
 4323SOL    HW114801  13.928   7.852   5.739
 4323SOL    HW214802  13.832   7.969   5.744
 4324SOL     OW14803   3.948   2.433   0.869
 4324SOL    HW114804   3.882   2.501   0.886
 4324SOL    HW214805   3.909   2.353   0.903
 4325SOL     OW14806  13.094  13.368  12.491
 4325SOL    HW114807  13.029  13.353  12.423
 4325SOL    HW214808  13.066  13.313  12.564
 4326SOL     OW14809  12.052   4.696  13.714
 4326SOL    HW114810  12.060   4.615  13.662
 4326SOL    HW214811  12.021   4.666  13.799
 4327SOL     OW14812  13.838   6.097   1.578
 4327SOL    HW114813  13.814   6.100   1.671
 4327SOL    HW214814  13.934   6.100   1.578
 4328SOL     OW14815  14.504   8.247   3.777
 4328SOL    HW114816  14.411   8.223   3.770
 4328SOL    HW214817  14.513   8.323   3.720
 4329SOL     OW14818   3.374   3.548   7.748
 4329SOL    HW114819   3.315   3.506   7.686
 4329SOL    HW214820   3.442   3.587   7.693
 4330SOL     OW14821  10.790   4.862   1.742
 4330SOL    HW114822  10.711   4.896   1.700
 4330SOL    HW214823  10.806   4.778   1.699
 4331SOL     OW14824  10.583   7.180   1.437
 4331SOL    HW114825  10.665   7.149   1.475
 4331SOL    HW214826  10.599   7.271   1.416
 4332SOL     OW14827  10.264   7.312  14.822
 4332SOL    HW114828  10.275   7.285   0.037
 4332SOL    HW214829  10.192   7.258  14.790
 4333SOL     OW14830   5.691   4.406   9.491
 4333SOL    HW114831   5.733   4.374   9.412
 4333SOL    HW214832   5.622   4.343   9.510
 4334SOL     OW14833   7.942   6.169   6.157
 4334SOL    HW114834   7.919   6.146   6.066
 4334SOL    HW214835   8.001   6.099   6.184
 4335SOL     OW14836  11.592   1.777   8.040
 4335SOL    HW114837  11.603   1.727   8.121
 4335SOL    HW214838  11.681   1.796   8.010
 4336SOL     OW14839   4.362   0.708   1.298
 4336SOL    HW114840   4.449   0.744   1.312
 4336SOL    HW214841   4.341   0.663   1.380
 4337SOL     OW14842   0.844   5.537   9.176
 4337SOL    HW114843   0.835   5.629   9.199
 4337SOL    HW214844   0.760   5.513   9.138
 4338SOL     OW14845   2.996   9.539  14.729
 4338SOL    HW114846   3.053   9.477  14.774
 4338SOL    HW214847   2.908   9.501  14.739
 4339SOL     OW14848   8.043   6.883   3.857
 4339SOL    HW114849   8.052   6.817   3.789
 4339SOL    HW214850   8.010   6.961   3.812
 4340SOL     OW14851  12.077   1.369   3.793
 4340SOL    HW114852  12.162   1.330   3.770
 4340SOL    HW214853  12.013   1.316   3.747
 4341SOL     OW14854   8.467  12.157  11.268
 4341SOL    HW114855   8.554  12.133  11.236
 4341SOL    HW214856   8.478  12.245  11.303
 4342SOL     OW14857   3.434   6.386   4.617
 4342SOL    HW114858   3.431   6.296   4.649
 4342SOL    HW214859   3.524   6.399   4.589
 4343SOL     OW14860   8.213  14.456  14.781
 4343SOL    HW114861   8.146  14.524  14.783
 4343SOL    HW214862   8.292  14.498  14.817
 4344SOL     OW14863   8.000   1.567   5.088
 4344SOL    HW114864   8.094   1.579   5.074
 4344SOL    HW214865   7.981   1.480   5.053
 4345SOL     OW14866   7.111   4.282  13.057
 4345SOL    HW114867   7.036   4.223  13.056
 4345SOL    HW214868   7.084   4.355  13.113
 4346SOL     OW14869  13.621  10.150   6.760
 4346SOL    HW114870  13.683  10.157   6.833
 4346SOL    HW214871  13.535  10.164   6.799
 4347SOL     OW14872   2.976   1.305   6.531
 4347SOL    HW114873   3.035   1.380   6.541
 4347SOL    HW214874   2.990   1.276   6.440
 4348SOL     OW14875   3.220   1.622  14.385
 4348SOL    HW114876   3.308   1.623  14.423
 4348SOL    HW214877   3.180   1.541  14.418
 4349SOL     OW14878   0.457   0.117   8.736
 4349SOL    HW114879   0.543   0.142   8.768
 4349SOL    HW214880   0.406   0.198   8.737
 4350SOL     OW14881   2.492   5.393   7.347
 4350SOL    HW114882   2.581   5.413   7.376
 4350SOL    HW214883   2.437   5.408   7.424
 4351SOL     OW14884   7.764   0.748  11.311
 4351SOL    HW114885   7.749   0.736  11.217
 4351SOL    HW214886   7.859   0.758  11.318
 4352SOL     OW14887   8.888   9.514  11.668
 4352SOL    HW114888   8.842   9.435  11.697
 4352SOL    HW214889   8.965   9.519  11.725
 4353SOL     OW14890   1.904  12.279   3.537
 4353SOL    HW114891   1.999  12.282   3.527
 4353SOL    HW214892   1.890  12.240   3.624
 4354SOL     OW14893  10.540   1.841   5.257
 4354SOL    HW114894  10.624   1.863   5.296
 4354SOL    HW214895  10.518   1.755   5.294
 4355SOL     OW14896   0.816   6.386   0.646
 4355SOL    HW114897   0.889   6.407   0.705
 4355SOL    HW214898   0.752   6.456   0.662
 4356SOL     OW14899  11.342  12.392   7.965
 4356SOL    HW114900  11.311  12.306   7.938
 4356SOL    HW214901  11.420  12.407   7.912
 4357SOL     OW14902   3.978  12.271   3.281
 4357SOL    HW114903   3.967  12.318   3.198
 4357SOL    HW214904   4.025  12.332   3.338
 4358SOL     OW14905  12.014   7.359   4.901
 4358SOL    HW114906  12.037   7.339   4.992
 4358SOL    HW214907  11.950   7.429   4.907
 4359SOL     OW14908   5.380  11.526   1.129
 4359SOL    HW114909   5.421  11.469   1.194
 4359SOL    HW214910   5.337  11.594   1.180
 4360SOL     OW14911   7.335   4.045   1.268
 4360SOL    HW114912   7.268   4.090   1.319
 4360SOL    HW214913   7.318   4.070   1.177
 4361SOL     OW14914   0.356   8.158   3.282
 4361SOL    HW114915   0.406   8.141   3.362
 4361SOL    HW214916   0.267   8.129   3.302
 4362SOL     OW14917  14.328  11.840  13.151
 4362SOL    HW114918  14.281  11.922  13.136
 4362SOL    HW214919  14.396  11.862  13.215
 4363SOL     OW14920   9.411   7.805   7.543
 4363SOL    HW114921   9.409   7.713   7.568
 4363SOL    HW214922   9.319   7.828   7.529
 4364SOL     OW14923   8.048  10.758   7.384
 4364SOL    HW114924   7.990  10.682   7.395
 4364SOL    HW214925   8.041  10.805   7.467
 4365SOL     OW14926   2.773  14.523   0.859
 4365SOL    HW114927   2.712  14.496   0.790
 4365SOL    HW214928   2.724  14.509   0.941
 4366SOL     OW14929  12.971   2.079  14.383
 4366SOL    HW114930  12.881   2.106  14.400
 4366SOL    HW214931  13.021   2.118  14.455
 4367SOL     OW14932   4.016  12.308  10.479
 4367SOL    HW114933   4.010  12.391  10.526
 4367SOL    HW214934   4.109  12.285  10.482
 4368SOL     OW14935  11.398   2.099   7.852
 4368SOL    HW114936  11.448   2.094   7.771
 4368SOL    HW214937  11.353   2.015   7.859
 4369SOL     OW14938   5.837   2.777  14.355
 4369SOL    HW114939   5.869   2.687  14.364
 4369SOL    HW214940   5.890   2.815  14.285
 4370SOL     OW14941  14.552  11.007  12.503
 4370SOL    HW114942  14.637  11.026  12.463
 4370SOL    HW214943  14.532  11.085  12.555
 4371SOL     OW14944   3.258  14.325   8.920
 4371SOL    HW114945   3.302  14.350   8.839
 4371SOL    HW214946   3.166  14.314   8.895
 4372SOL     OW14947   4.707  11.989   2.491
 4372SOL    HW114948   4.730  11.981   2.584
 4372SOL    HW214949   4.783  11.955   2.444
 4373SOL     OW14950   1.926   2.422  13.910
 4373SOL    HW114951   2.004   2.430  13.965
 4373SOL    HW214952   1.901   2.330  13.916
 4374SOL     OW14953   2.773   5.975  12.351
 4374SOL    HW114954   2.813   5.914  12.289
 4374SOL    HW214955   2.679   5.958  12.346
 4375SOL     OW14956   3.858   8.982  10.955
 4375SOL    HW114957   3.896   8.959  11.040
 4375SOL    HW214958   3.883   8.910  10.897
 4376SOL     OW14959   5.014   6.482  11.475
 4376SOL    HW114960   5.089   6.520  11.522
 4376SOL    HW214961   4.939   6.503  11.531
 4377SOL     OW14962   0.639   4.085   6.585
 4377SOL    HW114963   0.733   4.087   6.604
 4377SOL    HW214964   0.624   4.001   6.544
 4378SOL     OW14965  12.961  14.388   0.697
 4378SOL    HW114966  13.053  14.412   0.703
 4378SOL    HW214967  12.941  14.388   0.604
 4379SOL     OW14968   1.739  11.420  14.645
 4379SOL    HW114969   1.712  11.427  14.554
 4379SOL    HW214970   1.670  11.465  14.695
 4380SOL     OW14971  10.180   0.976  11.902
 4380SOL    HW114972  10.197   0.920  11.978
 4380SOL    HW214973  10.267   1.001  11.872
 4381SOL     OW14974   6.421   6.285   9.619
 4381SOL    HW114975   6.344   6.239   9.652
 4381SOL    HW214976   6.403   6.377   9.638
 4382SOL     OW14977   2.500   8.413   4.130
 4382SOL    HW114978   2.407   8.413   4.152
 4382SOL    HW214979   2.512   8.337   4.073
 4383SOL     OW14980  13.753  12.416   6.301
 4383SOL    HW114981  13.832  12.410   6.247
 4383SOL    HW214982  13.725  12.325   6.312
 4384SOL     OW14983   5.062   2.021  13.442
 4384SOL    HW114984   5.049   1.948  13.381
 4384SOL    HW214985   5.007   2.091  13.408
 4385SOL     OW14986   1.462  14.679   2.342
 4385SOL    HW114987   1.449  14.584   2.348
 4385SOL    HW214988   1.408  14.705   2.268
 4386SOL     OW14989   5.694  13.744  11.350
 4386SOL    HW114990   5.734  13.690  11.419
 4386SOL    HW214991   5.640  13.807  11.398
 4387SOL     OW14992   5.423  13.555   7.717
 4387SOL    HW114993   5.441  13.498   7.792
 4387SOL    HW214994   5.458  13.508   7.642
 4388SOL     OW14995   5.604   4.317   1.197
 4388SOL    HW114996   5.531   4.375   1.216
 4388SOL    HW214997   5.617   4.324   1.102
 4389SOL     OW14998   5.421   7.132   9.922
 4389SOL    HW114999   5.483   7.116   9.993
 4389SOL    HW215000   5.375   7.212   9.948
 4390SOL     OW15001   7.955   9.609  13.699
 4390SOL    HW115002   7.863   9.630  13.683
 4390SOL    HW215003   7.961   9.597  13.794
 4391SOL     OW15004   9.628   5.194   6.829
 4391SOL    HW115005   9.667   5.213   6.744
 4391SOL    HW215006   9.590   5.106   6.819
 4392SOL     OW15007   8.810  11.168   7.797
 4392SOL    HW115008   8.777  11.118   7.722
 4392SOL    HW215009   8.851  11.103   7.854
 4393SOL     OW15010   3.633   0.055  12.864
 4393SOL    HW115011   3.718   0.099  12.869
 4393SOL    HW215012   3.610   0.059  12.771
 4394SOL     OW15013  12.069   7.871   9.545
 4394SOL    HW115014  12.095   7.920   9.467
 4394SOL    HW215015  12.084   7.779   9.522
 4395SOL     OW15016   9.069   3.324   0.428
 4395SOL    HW115017   9.003   3.305   0.362
 4395SOL    HW215018   9.153   3.318   0.382
 4396SOL     OW15019   5.531  12.248  13.927
 4396SOL    HW115020   5.570  12.238  13.840
 4396SOL    HW215021   5.526  12.159  13.961
 4397SOL     OW15022   2.101   0.888  10.187
 4397SOL    HW115023   2.011   0.864  10.206
 4397SOL    HW215024   2.154   0.819  10.229
 4398SOL     OW15025   8.912   4.661   9.313
 4398SOL    HW115026   8.869   4.727   9.367
 4398SOL    HW215027   8.844   4.595   9.298
 4399SOL     OW15028   9.694   3.026  14.206
 4399SOL    HW115029   9.708   2.932  14.214
 4399SOL    HW215030   9.688   3.042  14.112
 4400SOL     OW15031  12.323   4.125   1.567
 4400SOL    HW115032  12.341   4.123   1.473
 4400SOL    HW215033  12.330   4.217   1.591
 4401SOL     OW15034  11.254   7.142   5.964
 4401SOL    HW115035  11.311   7.135   6.040
 4401SOL    HW215036  11.231   7.235   5.960
 4402SOL     OW15037  12.378  12.408   9.838
 4402SOL    HW115038  12.310  12.352   9.876
 4402SOL    HW215039  12.371  12.394   9.743
 4403SOL     OW15040  14.538   4.092   0.478
 4403SOL    HW115041  14.622   4.052   0.498
 4403SOL    HW215042  14.534   4.169   0.535
 4404SOL     OW15043   8.460   0.284  13.274
 4404SOL    HW115044   8.484   0.194  13.253
 4404SOL    HW215045   8.543   0.328  13.291
 4405SOL     OW15046   1.973  12.359   6.597
 4405SOL    HW115047   1.961  12.389   6.507
 4405SOL    HW215048   2.068  12.350   6.607
 4406SOL     OW15049   4.223   9.464   7.487
 4406SOL    HW115050   4.184   9.486   7.403
 4406SOL    HW215051   4.241   9.548   7.528
 4407SOL     OW15052   7.699   5.803   5.083
 4407SOL    HW115053   7.777   5.845   5.046
 4407SOL    HW215054   7.696   5.717   5.041
 4408SOL     OW15055   7.407   2.091  11.708
 4408SOL    HW115056   7.497   2.094  11.741
 4408SOL    HW215057   7.378   2.182  11.712
 4409SOL     OW15058  12.317   0.261   0.668
 4409SOL    HW115059  12.368   0.336   0.699
 4409SOL    HW215060  12.231   0.272   0.709
 4410SOL     OW15061   2.466   6.272   7.037
 4410SOL    HW115062   2.481   6.255   7.130
 4410SOL    HW215063   2.465   6.185   6.996
 4411SOL     OW15064  13.030   2.802   1.519
 4411SOL    HW115065  13.079   2.735   1.567
 4411SOL    HW215066  12.997   2.756   1.441
 4412SOL     OW15067  10.916   0.187   5.885
 4412SOL    HW115068  10.834   0.207   5.931
 4412SOL    HW215069  10.902   0.100   5.848
 4413SOL     OW15070   2.014  11.357  11.446
 4413SOL    HW115071   1.942  11.335  11.505
 4413SOL    HW215072   2.046  11.441  11.479
 4414SOL     OW15073   6.611   2.779   1.585
 4414SOL    HW115074   6.561   2.802   1.664
 4414SOL    HW215075   6.610   2.859   1.532
 4415SOL     OW15076   7.502   4.938   8.428
 4415SOL    HW115077   7.575   4.987   8.466
 4415SOL    HW215078   7.527   4.925   8.336
 4416SOL     OW15079   1.994   1.343   2.277
 4416SOL    HW115080   1.977   1.432   2.249
 4416SOL    HW215081   2.082   1.346   2.314
 4417SOL     OW15082   5.340   0.790   7.629
 4417SOL    HW115083   5.319   0.697   7.644
 4417SOL    HW215084   5.391   0.815   7.706
 4418SOL     OW15085   7.417  12.164   1.205
 4418SOL    HW115086   7.481  12.235   1.205
 4418SOL    HW215087   7.460  12.094   1.156
 4419SOL     OW15088  10.695   8.090   1.881
 4419SOL    HW115089  10.735   8.086   1.968
 4419SOL    HW215090  10.768   8.104   1.821
 4420SOL     OW15091   7.063   3.617   0.361
 4420SOL    HW115092   6.968   3.605   0.359
 4420SOL    HW215093   7.083   3.669   0.283
 4421SOL     OW15094   0.282   6.551   7.874
 4421SOL    HW115095   0.237   6.625   7.834
 4421SOL    HW215096   0.246   6.545   7.963
 4422SOL     OW15097   6.517   2.216   3.294
 4422SOL    HW115098   6.456   2.227   3.367
 4422SOL    HW215099   6.482   2.142   3.244
 4423SOL     OW15100  14.307   7.466   8.458
 4423SOL    HW115101  14.388   7.426   8.425
 4423SOL    HW215102  14.313   7.457   8.553
 4424SOL     OW15103   1.154   3.873   5.243
 4424SOL    HW115104   1.062   3.874   5.270
 4424SOL    HW215105   1.200   3.919   5.313
 4425SOL     OW15106   0.475   2.956  14.353
 4425SOL    HW115107   0.503   2.890  14.289
 4425SOL    HW215108   0.512   2.926  14.436
 4426SOL     OW15109   1.827  12.874  11.705
 4426SOL    HW115110   1.795  12.961  11.680
 4426SOL    HW215111   1.753  12.816  11.686
 4427SOL     OW15112  13.189   0.812   9.860
 4427SOL    HW115113  13.270   0.839   9.903
 4427SOL    HW215114  13.184   0.868   9.782
 4428SOL     OW15115   4.405   1.467   4.255
 4428SOL    HW115116   4.487   1.456   4.206
 4428SOL    HW215117   4.392   1.382   4.297
 4429SOL     OW15118   7.510   7.813   2.932
 4429SOL    HW115119   7.426   7.859   2.934
 4429SOL    HW215120   7.502   7.747   3.000
 4430SOL     OW15121  13.164   2.770   7.957
 4430SOL    HW115122  13.103   2.704   7.988
 4430SOL    HW215123  13.251   2.734   7.975
 4431SOL     OW15124   3.022   4.222  14.766
 4431SOL    HW115125   3.066   4.268  14.695
 4431SOL    HW215126   2.948   4.179  14.725
 4432SOL     OW15127  11.118  13.882  12.019
 4432SOL    HW115128  11.148  13.809  12.073
 4432SOL    HW215129  11.198  13.923  11.986
 4433SOL     OW15130   9.946  12.210   4.866
 4433SOL    HW115131   9.915  12.145   4.930
 4433SOL    HW215132   9.947  12.293   4.915
 4434SOL     OW15133  13.941   1.739   5.844
 4434SOL    HW115134  14.002   1.737   5.771
 4434SOL    HW215135  13.971   1.811   5.899
 4435SOL     OW15136   5.023   6.933  11.305
 4435SOL    HW115137   5.085   7.006  11.316
 4435SOL    HW215138   5.076   6.855  11.315
 4436SOL     OW15139   2.616   3.385  10.891
 4436SOL    HW115140   2.600   3.395  10.984
 4436SOL    HW215141   2.667   3.462  10.867
 4437SOL     OW15142   8.379   2.542  14.215
 4437SOL    HW115143   8.445   2.495  14.266
 4437SOL    HW215144   8.308   2.479  14.203
 4438SOL     OW15145   0.478  14.455  14.541
 4438SOL    HW115146   0.546  14.491  14.598
 4438SOL    HW215147   0.464  14.522  14.474
 4439SOL     OW15148   2.697   0.473   2.537
 4439SOL    HW115149   2.656   0.558   2.556
 4439SOL    HW215150   2.633   0.408   2.565
 4440SOL     OW15151  13.940   5.824   6.750
 4440SOL    HW115152  13.975   5.742   6.786
 4440SOL    HW215153  13.994   5.840   6.672
 4441SOL     OW15154   1.756   4.016   0.913
 4441SOL    HW115155   1.730   3.924   0.927
 4441SOL    HW215156   1.698   4.066   0.971
 4442SOL     OW15157   1.331   5.191  10.952
 4442SOL    HW115158   1.423   5.216  10.966
 4442SOL    HW215159   1.322   5.109  11.001
 4443SOL     OW15160   3.059   6.390   8.454
 4443SOL    HW115161   3.148   6.382   8.420
 4443SOL    HW215162   3.065   6.457   8.521
 4444SOL     OW15163  10.946   5.281   7.916
 4444SOL    HW115164  10.917   5.368   7.940
 4444SOL    HW215165  10.868   5.226   7.923
 4445SOL     OW15166   6.801   3.533   7.889
 4445SOL    HW115167   6.858   3.456   7.893
 4445SOL    HW215168   6.747   3.520   7.812
 4446SOL     OW15169   3.695  13.894  13.665
 4446SOL    HW115170   3.700  13.878  13.571
 4446SOL    HW215171   3.620  13.842  13.694
 4447SOL     OW15172  14.266   6.588  10.208
 4447SOL    HW115173  14.357   6.600  10.183
 4447SOL    HW215174  14.240   6.505  10.169
 4448SOL     OW15175  14.157   3.378   8.928
 4448SOL    HW115176  14.066   3.367   8.953
 4448SOL    HW215177  14.159   3.460   8.879
 4449SOL     OW15178  10.060   2.744  13.991
 4449SOL    HW115179  10.021   2.661  13.965
 4449SOL    HW215180  10.012   2.810  13.942
 4450SOL     OW15181   9.027  12.295  10.510
 4450SOL    HW115182   9.072  12.334  10.435
 4450SOL    HW215183   9.020  12.202  10.490
 4451SOL     OW15184   7.142   7.596   8.909
 4451SOL    HW115185   7.209   7.612   8.842
 4451SOL    HW215186   7.131   7.681   8.951
 4452SOL     OW15187   0.561  11.673  11.863
 4452SOL    HW115188   0.467  11.664  11.874
 4452SOL    HW215189   0.599  11.637  11.943
 4453SOL     OW15190   8.178  14.842  11.956
 4453SOL    HW115191   8.176  14.827  11.861
 4453SOL    HW215192   8.162   0.060  11.965
 4454SOL     OW15193   2.068   2.307  12.066
 4454SOL    HW115194   2.081   2.317  12.160
 4454SOL    HW215195   2.037   2.217  12.056
 4455SOL     OW15196  11.540  10.293  12.576
 4455SOL    HW115197  11.503  10.213  12.615
 4455SOL    HW215198  11.490  10.364  12.616
 4456SOL     OW15199   7.757   5.283   7.982
 4456SOL    HW115200   7.699   5.271   8.057
 4456SOL    HW215201   7.845   5.274   8.019
 4457SOL     OW15202  13.561  13.412   7.614
 4457SOL    HW115203  13.550  13.318   7.601
 4457SOL    HW215204  13.489  13.452   7.565
 4458SOL     OW15205   0.820   9.504  10.914
 4458SOL    HW115206   0.755   9.523  10.981
 4458SOL    HW215207   0.816   9.409  10.903
 4459SOL     OW15208   5.628   9.353  13.658
 4459SOL    HW115209   5.663   9.305  13.583
 4459SOL    HW215210   5.691   9.423  13.674
 4460SOL     OW15211  10.354   7.143   4.814
 4460SOL    HW115212  10.309   7.227   4.817
 4460SOL    HW215213  10.289   7.079   4.843
 4461SOL     OW15214   2.241   0.429   8.085
 4461SOL    HW115215   2.264   0.428   7.992
 4461SOL    HW215216   2.175   0.360   8.094
 4462SOL     OW15217   9.988  11.421   8.075
 4462SOL    HW115218  10.081  11.434   8.056
 4462SOL    HW215219   9.982  11.334   8.113
 4463SOL     OW15220   9.209   3.410   2.564
 4463SOL    HW115221   9.271   3.406   2.492
 4463SOL    HW215222   9.263   3.397   2.643
 4464SOL     OW15223   7.737   7.572  10.595
 4464SOL    HW115224   7.718   7.653  10.643
 4464SOL    HW215225   7.658   7.556  10.543
 4465SOL     OW15226   3.538  12.784   3.402
 4465SOL    HW115227   3.455  12.832   3.405
 4465SOL    HW215228   3.538  12.743   3.315
 4466SOL     OW15229   5.583   7.722   5.336
 4466SOL    HW115230   5.655   7.662   5.321
 4466SOL    HW215231   5.597   7.756   5.425
 4467SOL     OW15232   7.549   2.199  13.292
 4467SOL    HW115233   7.512   2.200  13.204
 4467SOL    HW215234   7.547   2.290  13.320
 4468SOL     OW15235  12.505   0.076   6.919
 4468SOL    HW115236  12.515   0.044   6.829
 4468SOL    HW215237  12.490  14.873   6.971
 4469SOL     OW15238   1.106   5.606  11.592
 4469SOL    HW115239   1.057   5.686  11.607
 4469SOL    HW215240   1.190   5.620  11.636
 4470SOL     OW15241   1.840  11.054   0.270
 4470SOL    HW115242   1.859  10.994   0.198
 4470SOL    HW215243   1.755  11.092   0.248
 4471SOL     OW15244   2.383   4.326   9.500
 4471SOL    HW115245   2.431   4.379   9.436
 4471SOL    HW215246   2.368   4.243   9.456
 4472SOL     OW15247   2.670   5.349  14.585
 4472SOL    HW115248   2.620   5.399  14.650
 4472SOL    HW215249   2.733   5.412  14.549
 4473SOL     OW15250   8.514  11.273   7.980
 4473SOL    HW115251   8.467  11.275   7.896
 4473SOL    HW215252   8.515  11.180   8.005
 4474SOL     OW15253   4.063  10.211   0.408
 4474SOL    HW115254   4.071  10.301   0.439
 4474SOL    HW215255   4.153  10.182   0.395
 4475SOL     OW15256   8.396   9.863   1.240
 4475SOL    HW115257   8.441   9.808   1.304
 4475SOL    HW215258   8.324   9.808   1.207
 4476SOL     OW15259   7.149  10.834  13.344
 4476SOL    HW115260   7.198  10.780  13.407
 4476SOL    HW215261   7.150  10.782  13.264
 4477SOL     OW15262  10.805  13.666   3.613
 4477SOL    HW115263  10.714  13.667   3.643
 4477SOL    HW215264  10.843  13.590   3.658
 4478SOL     OW15265   9.322   1.001   2.433
 4478SOL    HW115266   9.240   1.012   2.482
 4478SOL    HW215267   9.294   0.994   2.341
 4479SOL     OW15268   6.919   1.085  12.451
 4479SOL    HW115269   6.885   1.122  12.533
 4479SOL    HW215270   6.986   1.147  12.423
 4480SOL     OW15271  13.798   9.105  11.212
 4480SOL    HW115272  13.786   9.200  11.214
 4480SOL    HW215273  13.736   9.072  11.277
 4481SOL     OW15274   2.142  12.052   9.562
 4481SOL    HW115275   2.234  12.049   9.589
 4481SOL    HW215276   2.119  11.960   9.549
 4482SOL     OW15277   0.758   4.013  14.358
 4482SOL    HW115278   0.822   3.944  14.344
 4482SOL    HW215279   0.703   3.981  14.429
 4483SOL     OW15280   0.505   9.579   8.606
 4483SOL    HW115281   0.533   9.555   8.694
 4483SOL    HW215282   0.413   9.604   8.616
 4484SOL     OW15283  12.312  11.166  11.371
 4484SOL    HW115284  12.234  11.145  11.320
 4484SOL    HW215285  12.321  11.261  11.363
 4485SOL     OW15286  11.470   7.251  12.130
 4485SOL    HW115287  11.564   7.244  12.113
 4485SOL    HW215288  11.445   7.336  12.093
 4486SOL     OW15289  13.608  11.841   1.849
 4486SOL    HW115290  13.643  11.927   1.874
 4486SOL    HW215291  13.637  11.829   1.759
 4487SOL     OW15292   2.125  11.087   0.014
 4487SOL    HW115293   2.030  11.091   0.025
 4487SOL    HW215294   2.141  11.122  14.802
 4488SOL     OW15295   8.271  14.410  13.762
 4488SOL    HW115296   8.242  14.486  13.812
 4488SOL    HW215297   8.292  14.445  13.675
 4489SOL     OW15298   4.886   0.829   7.323
 4489SOL    HW115299   4.804   0.798   7.286
 4489SOL    HW215300   4.952   0.767   7.292
 4490SOL     OW15301  14.526   1.177   2.589
 4490SOL    HW115302  14.461   1.246   2.603
 4490SOL    HW215303  14.508   1.145   2.500
 4491SOL     OW15304   7.010   3.343   9.718
 4491SOL    HW115305   6.948   3.349   9.645
 4491SOL    HW215306   7.091   3.380   9.684
 4492SOL     OW15307   1.209  10.926   5.958
 4492SOL    HW115308   1.191  10.928   5.864
 4492SOL    HW215309   1.240  10.837   5.975
 4493SOL     OW15310   8.970   0.374   0.037
 4493SOL    HW115311   8.906   0.307   0.012
 4493SOL    HW215312   8.929   0.456   0.008
 4494SOL     OW15313  12.332   4.400   7.388
 4494SOL    HW115314  12.385   4.479   7.402
 4494SOL    HW215315  12.354   4.344   7.462
 4495SOL     OW15316  13.126  10.205  14.857
 4495SOL    HW115317  13.135  10.165   0.068
 4495SOL    HW215318  13.187  10.279  14.858
 4496SOL     OW15319   3.490  13.973   2.051
 4496SOL    HW115320   3.421  13.962   2.117
 4496SOL    HW215321   3.456  13.927   1.974
 4497SOL     OW15322   7.125   7.637   7.605
 4497SOL    HW115323   7.052   7.686   7.643
 4497SOL    HW215324   7.106   7.634   7.511
 4498SOL     OW15325   0.102   1.597   2.241
 4498SOL    HW115326   0.074   1.676   2.195
 4498SOL    HW215327   0.133   1.629   2.326
 4499SOL     OW15328   6.730  13.187  12.611
 4499SOL    HW115329   6.782  13.179  12.691
 4499SOL    HW215330   6.640  13.172  12.640
 4500SOL     OW15331  13.399  11.929  12.248
 4500SOL    HW115332  13.468  11.913  12.184
 4500SOL    HW215333  13.377  11.843  12.283
 4501SOL     OW15334   8.345   4.503   4.731
 4501SOL    HW115335   8.349   4.421   4.682
 4501SOL    HW215336   8.264   4.545   4.701
 4502SOL     OW15337   0.888   0.675   9.374
 4502SOL    HW115338   0.919   0.633   9.454
 4502SOL    HW215339   0.958   0.658   9.310
 4503SOL     OW15340   8.142  13.069  14.724
 4503SOL    HW115341   8.132  13.079  14.629
 4503SOL    HW215342   8.110  12.981  14.743
 4504SOL     OW15343   3.792  12.944   6.400
 4504SOL    HW115344   3.848  12.946   6.478
 4504SOL    HW215345   3.836  13.003   6.338
 4505SOL     OW15346  14.368   4.282   7.357
 4505SOL    HW115347  14.372   4.302   7.264
 4505SOL    HW215348  14.287   4.232   7.368
 4506SOL     OW15349   7.211  10.189   1.619
 4506SOL    HW115350   7.261  10.123   1.666
 4506SOL    HW215351   7.156  10.229   1.686
 4507SOL     OW15352   4.660   4.708   4.531
 4507SOL    HW115353   4.743   4.734   4.491
 4507SOL    HW215354   4.685   4.661   4.610
 4508SOL     OW15355   9.843   3.060   9.132
 4508SOL    HW115356   9.763   3.018   9.163
 4508SOL    HW215357   9.820   3.094   9.045
 4509SOL     OW15358  13.557   7.704   0.634
 4509SOL    HW115359  13.535   7.767   0.565
 4509SOL    HW215360  13.519   7.740   0.714
 4510SOL     OW15361   6.554   7.344   8.911
 4510SOL    HW115362   6.554   7.303   8.825
 4510SOL    HW215363   6.608   7.286   8.965
 4511SOL     OW15364   5.077   3.963   9.766
 4511SOL    HW115365   5.120   3.970   9.680
 4511SOL    HW215366   5.082   4.051   9.803
 4512SOL     OW15367   0.531   2.609   4.709
 4512SOL    HW115368   0.519   2.586   4.616
 4512SOL    HW215369   0.553   2.702   4.708
 4513SOL     OW15370   2.472  11.989   1.229
 4513SOL    HW115371   2.466  11.894   1.232
 4513SOL    HW215372   2.560  12.008   1.264
 4514SOL     OW15373   5.419   5.496   7.835
 4514SOL    HW115374   5.499   5.547   7.846
 4514SOL    HW215375   5.349   5.555   7.862
 4515SOL     OW15376  12.460   9.682   8.614
 4515SOL    HW115377  12.458   9.777   8.623
 4515SOL    HW215378  12.369   9.658   8.594
 4516SOL     OW15379   1.860  14.573  10.566
 4516SOL    HW115380   1.895  14.656  10.601
 4516SOL    HW215381   1.938  14.517  10.556
 4517SOL     OW15382   2.245   1.788   4.522
 4517SOL    HW115383   2.276   1.699   4.507
 4517SOL    HW215384   2.196   1.784   4.604
 4518SOL     OW15385   0.643   4.906  13.583
 4518SOL    HW115386   0.652   4.837  13.649
 4518SOL    HW215387   0.676   4.985  13.627
 4519SOL     OW15388  11.570   0.852  12.404
 4519SOL    HW115389  11.651   0.814  12.369
 4519SOL    HW215390  11.535   0.783  12.461
 4520SOL     OW15391   0.593  12.123   1.767
 4520SOL    HW115392   0.684  12.117   1.739
 4520SOL    HW215393   0.561  12.205   1.731
 4521SOL     OW15394   8.334   9.070   1.534
 4521SOL    HW115395   8.371   9.037   1.452
 4521SOL    HW215396   8.408   9.068   1.595
 4522SOL     OW15397   7.397   1.846  13.874
 4522SOL    HW115398   7.394   1.896  13.955
 4522SOL    HW215399   7.307   1.819  13.858
 4523SOL     OW15400   1.601   5.250  13.709
 4523SOL    HW115401   1.687   5.251  13.752
 4523SOL    HW215402   1.549   5.313  13.760
 4524SOL     OW15403  13.107   0.608   0.541
 4524SOL    HW115404  13.144   0.519   0.541
 4524SOL    HW215405  13.045   0.608   0.469
 4525SOL     OW15406   0.432   1.440   0.988
 4525SOL    HW115407   0.358   1.385   1.016
 4525SOL    HW215408   0.467   1.477   1.068
 4526SOL     OW15409   8.800  12.619  14.396
 4526SOL    HW115410   8.808  12.689  14.331
 4526SOL    HW215411   8.881  12.569  14.388
 4527SOL     OW15412   0.663   1.200  11.677
 4527SOL    HW115413   0.728   1.195  11.607
 4527SOL    HW215414   0.579   1.199  11.631
 4528SOL     OW15415   5.714  10.273   7.120
 4528SOL    HW115416   5.750  10.188   7.146
 4528SOL    HW215417   5.636  10.251   7.069
 4529SOL     OW15418   7.230   6.995  12.648
 4529SOL    HW115419   7.148   7.032  12.617
 4529SOL    HW215420   7.211   6.964  12.736
 4530SOL     OW15421   3.267  14.019   0.862
 4530SOL    HW115422   3.324  14.050   0.791
 4530SOL    HW215423   3.199  14.085   0.869
 4531SOL     OW15424   6.911   0.220   4.260
 4531SOL    HW115425   6.896   0.143   4.315
 4531SOL    HW215426   6.857   0.206   4.183
 4532SOL     OW15427   1.630   0.394   6.685
 4532SOL    HW115428   1.673   0.390   6.771
 4532SOL    HW215429   1.632   0.486   6.661
 4533SOL     OW15430  11.356   0.203   5.904
 4533SOL    HW115431  11.438   0.153   5.909
 4533SOL    HW215432  11.310   0.181   5.986
 4534SOL     OW15433   8.312  14.103   7.343
 4534SOL    HW115434   8.403  14.090   7.318
 4534SOL    HW215435   8.308  14.193   7.375
 4535SOL     OW15436   0.748   1.448  14.487
 4535SOL    HW115437   0.820   1.475  14.430
 4535SOL    HW215438   0.781   1.462  14.576
 4536SOL     OW15439   2.423   2.461   7.584
 4536SOL    HW115440   2.437   2.368   7.566
 4536SOL    HW215441   2.497   2.486   7.640
 4537SOL     OW15442   1.223   6.632   9.852
 4537SOL    HW115443   1.199   6.598   9.766
 4537SOL    HW215444   1.141   6.660   9.892
 4538SOL     OW15445  10.740   0.309   3.122
 4538SOL    HW115446  10.679   0.320   3.195
 4538SOL    HW215447  10.821   0.280   3.163
 4539SOL     OW15448  11.386   8.058   1.665
 4539SOL    HW115449  11.355   8.030   1.751
 4539SOL    HW215450  11.401   7.976   1.617
 4540SOL     OW15451   0.891   8.156   3.806
 4540SOL    HW115452   0.946   8.232   3.790
 4540SOL    HW215453   0.816   8.190   3.855
 4541SOL     OW15454   8.490   5.257  12.138
 4541SOL    HW115455   8.418   5.320  12.134
 4541SOL    HW215456   8.465   5.196  12.208
 4542SOL     OW15457  10.750  14.300   0.086
 4542SOL    HW115458  10.673  14.344   0.123
 4542SOL    HW215459  10.814  14.302   0.157
 4543SOL     OW15460  14.238   5.170   7.575
 4543SOL    HW115461  14.213   5.156   7.666
 4543SOL    HW215462  14.248   5.264   7.567
 4544SOL     OW15463   1.923  11.904   9.197
 4544SOL    HW115464   1.850  11.937   9.250
 4544SOL    HW215465   1.956  11.828   9.246
 4545SOL     OW15466  13.219   1.769   9.017
 4545SOL    HW115467  13.263   1.762   9.102
 4545SOL    HW215468  13.131   1.799   9.038
 4546SOL     OW15469  13.921  12.496   1.942
 4546SOL    HW115470  13.964  12.442   2.008
 4546SOL    HW215471  13.845  12.444   1.914
 4547SOL     OW15472   9.598  13.266   2.957
 4547SOL    HW115473   9.625  13.178   2.930
 4547SOL    HW215474   9.678  13.318   2.950
 4548SOL     OW15475  14.087   0.221  10.621
 4548SOL    HW115476  14.162   0.244  10.675
 4548SOL    HW215477  14.076   0.127  10.632
 4549SOL     OW15478   0.209  14.706  10.644
 4549SOL    HW115479   0.179  14.620  10.614
 4549SOL    HW215480   0.167  14.717  10.729
 4550SOL     OW15481   8.497  13.157  10.920
 4550SOL    HW115482   8.542  13.131  11.000
 4550SOL    HW215483   8.566  13.195  10.865
 4551SOL     OW15484   4.485  11.690  11.320
 4551SOL    HW115485   4.502  11.755  11.252
 4551SOL    HW215486   4.390  11.677  11.318
 4552SOL     OW15487   0.198   1.280   6.071
 4552SOL    HW115488   0.258   1.228   6.018
 4552SOL    HW215489   0.203   1.242   6.159
 4553SOL     OW15490   9.491   0.457   3.889
 4553SOL    HW115491   9.536   0.455   3.973
 4553SOL    HW215492   9.408   0.500   3.907
 4554SOL     OW15493   1.470   4.822  14.700
 4554SOL    HW115494   1.422   4.898  14.732
 4554SOL    HW215495   1.462   4.757  14.770
 4555SOL     OW15496   9.560  13.153   5.789
 4555SOL    HW115497   9.586  13.077   5.738
 4555SOL    HW215498   9.535  13.218   5.724
 4556SOL     OW15499   2.189   5.580  10.350
 4556SOL    HW115500   2.151   5.580  10.437
 4556SOL    HW215501   2.247   5.656  10.349
 4557SOL     OW15502  11.678  12.993   6.172
 4557SOL    HW115503  11.696  13.054   6.243
 4557SOL    HW215504  11.676  12.907   6.214
 4558SOL     OW15505   8.567   0.057   3.635
 4558SOL    HW115506   8.579   0.006   3.555
 4558SOL    HW215507   8.483   0.027   3.670
 4559SOL     OW15508   0.983  12.668  11.325
 4559SOL    HW115509   0.917  12.612  11.284
 4559SOL    HW215510   0.967  12.659  11.419
 4560SOL     OW15511   5.480   3.915  11.359
 4560SOL    HW115512   5.497   3.945  11.270
 4560SOL    HW215513   5.528   3.833  11.366
 4561SOL     OW15514   5.859  13.342   9.699
 4561SOL    HW115515   5.774  13.328   9.657
 4561SOL    HW215516   5.854  13.432   9.731
 4562SOL     OW15517  14.621   4.930  11.872
 4562SOL    HW115518  14.580   4.988  11.807
 4562SOL    HW215519  14.598   4.968  11.956
 4563SOL     OW15520   1.587   4.667  11.176
 4563SOL    HW115521   1.496   4.649  11.202
 4563SOL    HW215522   1.625   4.713  11.250
 4564SOL     OW15523   3.432  12.684  10.335
 4564SOL    HW115524   3.417  12.710  10.244
 4564SOL    HW215525   3.403  12.593  10.339
 4565SOL     OW15526   6.437   3.667   6.857
 4565SOL    HW115527   6.486   3.600   6.905
 4565SOL    HW215528   6.489   3.747   6.868
 4566SOL     OW15529   2.057   0.197  12.055
 4566SOL    HW115530   2.034   0.104  12.056
 4566SOL    HW215531   2.078   0.218  12.146
 4567SOL     OW15532  12.723   0.498   3.869
 4567SOL    HW115533  12.729   0.554   3.946
 4567SOL    HW215534  12.646   0.530   3.822
 4568SOL     OW15535   0.169  13.516   7.336
 4568SOL    HW115536   0.127  13.523   7.422
 4568SOL    HW215537   0.259  13.491   7.356
 4569SOL     OW15538   7.794  14.394   3.327
 4569SOL    HW115539   7.806  14.314   3.379
 4569SOL    HW215540   7.722  14.440   3.369
 4570SOL     OW15541   8.306   8.939   9.567
 4570SOL    HW115542   8.341   8.854   9.540
 4570SOL    HW215543   8.266   8.923   9.652
 4571SOL     OW15544  12.993   7.346   8.115
 4571SOL    HW115545  13.085   7.331   8.140
 4571SOL    HW215546  12.950   7.263   8.134
 4572SOL     OW15547   5.474   1.696   1.868
 4572SOL    HW115548   5.531   1.771   1.850
 4572SOL    HW215549   5.534   1.622   1.879
 4573SOL     OW15550   6.050   9.174  11.480
 4573SOL    HW115551   6.078   9.167  11.571
 4573SOL    HW215552   6.129   9.158  11.429
 4574SOL     OW15553   2.855  13.423   1.985
 4574SOL    HW115554   2.932  13.371   2.007
 4574SOL    HW215555   2.790  13.360   1.955
 4575SOL     OW15556  13.829  13.564   4.629
 4575SOL    HW115557  13.854  13.608   4.547
 4575SOL    HW215558  13.782  13.486   4.600
 4576SOL     OW15559   4.133  11.487   2.220
 4576SOL    HW115560   4.060  11.529   2.266
 4576SOL    HW215561   4.128  11.395   2.245
 4577SOL     OW15562   7.214   6.748   2.804
 4577SOL    HW115563   7.243   6.829   2.763
 4577SOL    HW215564   7.179   6.695   2.732
 4578SOL     OW15565  10.067  12.654   9.798
 4578SOL    HW115566  10.130  12.687   9.734
 4578SOL    HW215567  10.000  12.610   9.746
 4579SOL     OW15568  10.226   6.087   2.089
 4579SOL    HW115569  10.250   6.177   2.069
 4579SOL    HW215570  10.240   6.039   2.008
 4580SOL     OW15571   6.034   1.924   7.470
 4580SOL    HW115572   6.112   1.917   7.414
 4580SOL    HW215573   5.967   1.873   7.424
 4581SOL     OW15574  14.264   1.938   3.316
 4581SOL    HW115575  14.282   1.900   3.402
 4581SOL    HW215576  14.192   2.000   3.332
 4582SOL     OW15577  14.427   9.481   6.128
 4582SOL    HW115578  14.365   9.411   6.150
 4582SOL    HW215579  14.406   9.504   6.037
 4583SOL     OW15580   3.359  13.369   4.501
 4583SOL    HW115581   3.305  13.290   4.492
 4583SOL    HW215582   3.448  13.339   4.485
 4584SOL     OW15583  12.310   6.362   3.498
 4584SOL    HW115584  12.294   6.273   3.528
 4584SOL    HW215585  12.289   6.360   3.404
 4585SOL     OW15586   8.288  13.635   6.255
 4585SOL    HW115587   8.269  13.683   6.335
 4585SOL    HW215588   8.355  13.687   6.211
 4586SOL     OW15589   9.562  11.686  13.589
 4586SOL    HW115590   9.525  11.720  13.671
 4586SOL    HW215591   9.582  11.764  13.538
 4587SOL     OW15592   2.055   5.543   4.404
 4587SOL    HW115593   2.051   5.549   4.499
 4587SOL    HW215594   2.117   5.472   4.387
 4588SOL     OW15595   2.375  12.095   7.517
 4588SOL    HW115596   2.384  12.001   7.533
 4588SOL    HW215597   2.401  12.135   7.600
 4589SOL     OW15598   8.686   8.278  12.220
 4589SOL    HW115599   8.741   8.208  12.255
 4589SOL    HW215600   8.596   8.247  12.231
 4590SOL     OW15601  11.524  13.094  14.499
 4590SOL    HW115602  11.509  13.165  14.562
 4590SOL    HW215603  11.604  13.120  14.453
 4591SOL     OW15604  11.170   5.972   3.795
 4591SOL    HW115605  11.118   5.901   3.834
 4591SOL    HW215606  11.173   5.951   3.702
 4592SOL     OW15607   6.236   3.371   0.035
 4592SOL    HW115608   6.235   3.277   0.019
 4592SOL    HW215609   6.317   3.401  14.870
 4593SOL     OW15610  14.306   6.803  13.260
 4593SOL    HW115611  14.372   6.857  13.216
 4593SOL    HW215612  14.345   6.715  13.263
 4594SOL     OW15613   8.221  13.486  10.073
 4594SOL    HW115614   8.225  13.459  10.165
 4594SOL    HW215615   8.279  13.562  10.068
 4595SOL     OW15616   6.659   8.415   6.609
 4595SOL    HW115617   6.609   8.420   6.528
 4595SOL    HW215618   6.599   8.445   6.677
 4596SOL     OW15619  10.165  14.682   6.371
 4596SOL    HW115620  10.122  14.694   6.455
 4596SOL    HW215621  10.206  14.767   6.352
 4597SOL     OW15622   1.001  14.207   0.898
 4597SOL    HW115623   1.091  14.178   0.885
 4597SOL    HW215624   0.949  14.128   0.885
 4598SOL     OW15625   7.507   0.544   8.050
 4598SOL    HW115626   7.464   0.498   8.122
 4598SOL    HW215627   7.453   0.524   7.974
 4599SOL     OW15628  11.936   0.969   8.874
 4599SOL    HW115629  11.870   0.961   8.942
 4599SOL    HW215630  11.887   0.970   8.792
 4600SOL     OW15631   3.223   6.562   9.261
 4600SOL    HW115632   3.173   6.536   9.338
 4600SOL    HW215633   3.304   6.598   9.296
 4601SOL     OW15634  12.665   3.498   3.984
 4601SOL    HW115635  12.700   3.410   3.965
 4601SOL    HW215636  12.576   3.496   3.949
 4602SOL     OW15637  10.997   3.900   2.801
 4602SOL    HW115638  11.048   3.881   2.880
 4602SOL    HW215639  11.038   3.847   2.733
 4603SOL     OW15640   4.868   3.195  10.230
 4603SOL    HW115641   4.803   3.230  10.168
 4603SOL    HW215642   4.882   3.105  10.202
 4604SOL     OW15643   8.296   4.705   8.327
 4604SOL    HW115644   8.255   4.738   8.247
 4604SOL    HW215645   8.386   4.684   8.301
 4605SOL     OW15646  10.646  12.345   8.362
 4605SOL    HW115647  10.632  12.392   8.444
 4605SOL    HW215648  10.573  12.282   8.359
 4606SOL     OW15649   2.889   2.654  11.919
 4606SOL    HW115650   2.890   2.644  11.824
 4606SOL    HW215651   2.806   2.698  11.938
 4607SOL     OW15652  14.446   8.264  14.733
 4607SOL    HW115653  14.359   8.271  14.691
 4607SOL    HW215654  14.428   8.270  14.826
 4608SOL     OW15655   5.887  13.417  14.853
 4608SOL    HW115656   5.978  13.448  14.848
 4608SOL    HW215657   5.856  13.420  14.762
 4609SOL     OW15658   5.464   6.103   1.676
 4609SOL    HW115659   5.420   6.081   1.758
 4609SOL    HW215660   5.517   6.026   1.655
 4610SOL     OW15661   1.820   7.186   1.313
 4610SOL    HW115662   1.884   7.256   1.298
 4610SOL    HW215663   1.822   7.134   1.233
 4611SOL     OW15664   0.117   9.911   4.866
 4611SOL    HW115665   0.149   9.866   4.788
 4611SOL    HW215666   0.192   9.915   4.925
 4612SOL     OW15667   9.084  13.458   2.338
 4612SOL    HW115668   9.005  13.510   2.326
 4612SOL    HW215669   9.056  13.382   2.390
 4613SOL     OW15670  13.863  12.044   4.988
 4613SOL    HW115671  13.940  12.054   5.043
 4613SOL    HW215672  13.790  12.069   5.045
 4614SOL     OW15673  13.724   0.280   2.581
 4614SOL    HW115674  13.684   0.299   2.666
 4614SOL    HW215675  13.657   0.231   2.534
 4615SOL     OW15676   9.663   4.890   6.678
 4615SOL    HW115677   9.665   4.933   6.593
 4615SOL    HW215678   9.753   4.897   6.711
 4616SOL     OW15679   4.727   8.201   7.941
 4616SOL    HW115680   4.781   8.262   7.890
 4616SOL    HW215681   4.743   8.115   7.902
 4617SOL     OW15682  10.279   6.764   4.283
 4617SOL    HW115683  10.361   6.719   4.264
 4617SOL    HW215684  10.283   6.844   4.230
 4618SOL     OW15685  13.232   9.738  14.258
 4618SOL    HW115686  13.176   9.816  14.252
 4618SOL    HW215687  13.229   9.701  14.170
 4619SOL     OW15688   8.049   3.071   1.707
 4619SOL    HW115689   8.028   3.046   1.617
 4619SOL    HW215690   8.059   3.166   1.703
 4620SOL     OW15691  14.843  11.758   2.758
 4620SOL    HW115692  14.803  11.681   2.718
 4620SOL    HW215693  14.780  11.786   2.824
 4621SOL     OW15694   2.018   0.314   2.966
 4621SOL    HW115695   1.978   0.229   2.952
 4621SOL    HW215696   2.098   0.295   3.015
 4622SOL     OW15697   7.272   4.957   3.732
 4622SOL    HW115698   7.231   5.040   3.755
 4622SOL    HW215699   7.251   4.899   3.804
 4623SOL     OW15700  10.689   2.180  11.425
 4623SOL    HW115701  10.671   2.231  11.504
 4623SOL    HW215702  10.773   2.211  11.394
 4624SOL     OW15703  13.967   9.319   8.148
 4624SOL    HW115704  13.927   9.240   8.185
 4624SOL    HW215705  14.015   9.358   8.220
 4625SOL     OW15706   3.092   8.889   3.840
 4625SOL    HW115707   3.092   8.982   3.814
 4625SOL    HW215708   3.085   8.842   3.757
 4626SOL     OW15709   0.894   9.727   1.392
 4626SOL    HW115710   0.810   9.733   1.437
 4626SOL    HW215711   0.882   9.777   1.311
 4627SOL     OW15712   1.335   6.881   9.172
 4627SOL    HW115713   1.253   6.844   9.138
 4627SOL    HW215714   1.335   6.971   9.140
 4628SOL     OW15715  14.452   0.116   4.386
 4628SOL    HW115716  14.547   0.125   4.373
 4628SOL    HW215717  14.442   0.105   4.481
 4629SOL     OW15718  13.960   0.569  11.921
 4629SOL    HW115719  13.939   0.597  11.832
 4629SOL    HW215720  13.939   0.644  11.976
 4630SOL     OW15721   7.675   0.753   0.599
 4630SOL    HW115722   7.615   0.810   0.648
 4630SOL    HW215723   7.631   0.668   0.596
 4631SOL     OW15724  12.390   4.473   6.843
 4631SOL    HW115725  12.480   4.504   6.841
 4631SOL    HW215726  12.365   4.475   6.935
 4632SOL     OW15727  13.917  10.827   3.267
 4632SOL    HW115728  13.901  10.906   3.320
 4632SOL    HW215729  13.832  10.783   3.265
 4633SOL     OW15730   2.990   1.470   3.034
 4633SOL    HW115731   2.910   1.509   2.997
 4633SOL    HW215732   2.960   1.390   3.076
 4634SOL     OW15733   4.666   8.597   1.413
 4634SOL    HW115734   4.700   8.669   1.360
 4634SOL    HW215735   4.575   8.588   1.384
 4635SOL     OW15736  11.441   9.228  13.116
 4635SOL    HW115737  11.374   9.227  13.183
 4635SOL    HW215738  11.479   9.316  13.120
 4636SOL     OW15739  10.045  10.994  12.885
 4636SOL    HW115740   9.959  10.960  12.861
 4636SOL    HW215741  10.069  10.944  12.964
 4637SOL     OW15742  10.310   2.436   7.505
 4637SOL    HW115743  10.344   2.407   7.590
 4637SOL    HW215744  10.298   2.530   7.515
 4638SOL     OW15745   2.586   4.593   8.505
 4638SOL    HW115746   2.616   4.507   8.533
 4638SOL    HW215747   2.602   4.595   8.411
 4639SOL     OW15748   5.083   7.636   6.300
 4639SOL    HW115749   5.137   7.602   6.228
 4639SOL    HW215750   5.145   7.652   6.371
 4640SOL     OW15751   5.334  12.015   5.883
 4640SOL    HW115752   5.344  11.930   5.839
 4640SOL    HW215753   5.241  12.037   5.873
 4641SOL     OW15754   8.029   8.671  13.457
 4641SOL    HW115755   8.062   8.673  13.546
 4641SOL    HW215756   8.099   8.711  13.405
 4642SOL     OW15757  13.364   7.008  12.704
 4642SOL    HW115758  13.432   6.947  12.732
 4642SOL    HW215759  13.360   7.073  12.774
 4643SOL     OW15760   5.529   5.670  10.739
 4643SOL    HW115761   5.566   5.754  10.766
 4643SOL    HW215762   5.593   5.605  10.768
 4644SOL     OW15763   4.141  11.335   1.750
 4644SOL    HW115764   4.050  11.307   1.755
 4644SOL    HW215765   4.178  11.284   1.677
 4645SOL     OW15766   7.678   3.073  14.867
 4645SOL    HW115767   7.763   3.112   0.011
 4645SOL    HW215768   7.631   3.073   0.075
 4646SOL     OW15769   7.287   9.321   4.564
 4646SOL    HW115770   7.309   9.404   4.607
 4646SOL    HW215771   7.371   9.284   4.540
 4647SOL     OW15772  10.734  11.412   0.897
 4647SOL    HW115773  10.776  11.444   0.978
 4647SOL    HW215774  10.683  11.487   0.866
 4648SOL     OW15775   0.194   1.114   7.967
 4648SOL    HW115776   0.235   1.028   7.974
 4648SOL    HW215777   0.165   1.134   8.056
 4649SOL     OW15778   0.014  11.569  10.130
 4649SOL    HW115779  14.844  11.492  10.164
 4649SOL    HW215780   0.091  11.533  10.086
 4650SOL     OW15781  13.723   8.568   5.157
 4650SOL    HW115782  13.806   8.529   5.185
 4650SOL    HW215783  13.742   8.662   5.152
 4651SOL     OW15784  10.159  14.862   0.517
 4651SOL    HW115785  10.112   0.011   0.438
 4651SOL    HW215786  10.209   0.064   0.541
 4652SOL     OW15787   3.979   7.106   4.652
 4652SOL    HW115788   3.950   7.120   4.562
 4652SOL    HW215789   4.066   7.145   4.655
 4653SOL     OW15790   1.144   9.829   3.898
 4653SOL    HW115791   1.164   9.923   3.898
 4653SOL    HW215792   1.216   9.789   3.849
 4654SOL     OW15793   6.400   1.621   7.529
 4654SOL    HW115794   6.444   1.666   7.457
 4654SOL    HW215795   6.436   1.660   7.608
 4655SOL     OW15796   3.929   4.850   3.815
 4655SOL    HW115797   3.995   4.879   3.879
 4655SOL    HW215798   3.946   4.904   3.737
 4656SOL     OW15799   1.140  12.370  10.490
 4656SOL    HW115800   1.140  12.461  10.517
 4656SOL    HW215801   1.052  12.354  10.457
 4657SOL     OW15802   6.073   1.253   4.380
 4657SOL    HW115803   6.098   1.322   4.317
 4657SOL    HW215804   6.109   1.173   4.343
 4658SOL     OW15805   2.118   0.366  10.468
 4658SOL    HW115806   2.041   0.419  10.490
 4658SOL    HW215807   2.161   0.351  10.553
 4659SOL     OW15808  13.798   7.097   4.264
 4659SOL    HW115809  13.800   7.067   4.356
 4659SOL    HW215810  13.828   7.188   4.268
 4660SOL     OW15811   1.647   7.874   2.466
 4660SOL    HW115812   1.669   7.959   2.429
 4660SOL    HW215813   1.553   7.880   2.486
 4661SOL     OW15814  13.978  13.157  12.851
 4661SOL    HW115815  13.973  13.102  12.773
 4661SOL    HW215816  14.030  13.233  12.823
 4662SOL     OW15817  11.278   7.617   2.446
 4662SOL    HW115818  11.289   7.649   2.536
 4662SOL    HW215819  11.308   7.690   2.391
 4663SOL     OW15820   1.203  13.564   6.117
 4663SOL    HW115821   1.185  13.531   6.206
 4663SOL    HW215822   1.242  13.650   6.132
 4664SOL     OW15823   7.171   1.805   1.957
 4664SOL    HW115824   7.076   1.801   1.948
 4664SOL    HW215825   7.200   1.715   1.940
 4665SOL     OW15826  10.727   6.030   0.593
 4665SOL    HW115827  10.737   6.007   0.685
 4665SOL    HW215828  10.765   5.956   0.545
 4666SOL     OW15829   9.800   7.727   9.112
 4666SOL    HW115830   9.883   7.702   9.153
 4666SOL    HW215831   9.741   7.654   9.128
 4667SOL     OW15832   4.686   6.855   5.387
 4667SOL    HW115833   4.752   6.872   5.454
 4667SOL    HW215834   4.716   6.904   5.311
 4668SOL     OW15835  14.070   4.285   7.625
 4668SOL    HW115836  13.990   4.271   7.675
 4668SOL    HW215837  14.042   4.334   7.547
 4669SOL     OW15838   8.171   6.789  14.124
 4669SOL    HW115839   8.256   6.830  14.110
 4669SOL    HW215840   8.124   6.800  14.042
 4670SOL     OW15841   4.770   7.609   4.053
 4670SOL    HW115842   4.827   7.569   4.118
 4670SOL    HW215843   4.706   7.659   4.104
 4671SOL     OW15844   0.216  14.484   0.509
 4671SOL    HW115845   0.223  14.396   0.546
 4671SOL    HW215846   0.283  14.487   0.440
 4672SOL     OW15847   3.422   8.520  13.152
 4672SOL    HW115848   3.415   8.531  13.246
 4672SOL    HW215849   3.443   8.427  13.140
 4673SOL     OW15850  10.340   9.177   2.725
 4673SOL    HW115851  10.279   9.194   2.797
 4673SOL    HW215852  10.320   9.246   2.661
 4674SOL     OW15853  13.426   0.515   8.190
 4674SOL    HW115854  13.514   0.485   8.167
 4674SOL    HW215855  13.398   0.455   8.260
 4675SOL     OW15856  13.174   5.643  14.805
 4675SOL    HW115857  13.238   5.597  14.860
 4675SOL    HW215858  13.155   5.724  14.853
 4676SOL     OW15859   9.311  10.263  14.574
 4676SOL    HW115860   9.392  10.239  14.529
 4676SOL    HW215861   9.306  10.202  14.648
 4677SOL     OW15862  12.732  12.455   1.232
 4677SOL    HW115863  12.815  12.415   1.258
 4677SOL    HW215864  12.750  12.549   1.230
 4678SOL     OW15865   1.218   5.705   9.123
 4678SOL    HW115866   1.173   5.771   9.070
 4678SOL    HW215867   1.306   5.742   9.136
 4679SOL     OW15868   3.930   1.159   6.923
 4679SOL    HW115869   3.867   1.158   6.851
 4679SOL    HW215870   3.950   1.252   6.936
 4680SOL     OW15871  14.461   6.405   3.205
 4680SOL    HW115872  14.504   6.465   3.265
 4680SOL    HW215873  14.495   6.429   3.119
 4681SOL     OW15874   4.920   3.184   6.227
 4681SOL    HW115875   4.833   3.210   6.197
 4681SOL    HW215876   4.976   3.258   6.206
 4682SOL     OW15877   2.742   2.778   7.501
 4682SOL    HW115878   2.673   2.845   7.507
 4682SOL    HW215879   2.759   2.753   7.592
 4683SOL     OW15880   3.120   6.891   6.945
 4683SOL    HW115881   3.197   6.905   6.999
 4683SOL    HW215882   3.155   6.876   6.857
 4684SOL     OW15883  11.205  14.177   7.063
 4684SOL    HW115884  11.129  14.209   7.112
 4684SOL    HW215885  11.251  14.120   7.125
 4685SOL     OW15886   5.673   2.509   0.109
 4685SOL    HW115887   5.677   2.444   0.038
 4685SOL    HW215888   5.754   2.496   0.158
 4686SOL     OW15889   0.969   1.418   3.077
 4686SOL    HW115890   1.025   1.347   3.109
 4686SOL    HW215891   0.953   1.396   2.986
 4687SOL     OW15892   7.443  10.602   5.705
 4687SOL    HW115893   7.422  10.511   5.683
 4687SOL    HW215894   7.362  10.637   5.742
 4688SOL     OW15895   7.496  10.764   1.811
 4688SOL    HW115896   7.556  10.795   1.743
 4688SOL    HW215897   7.451  10.843   1.841
 4689SOL     OW15898   6.822   3.982   8.466
 4689SOL    HW115899   6.805   4.017   8.554
 4689SOL    HW215900   6.837   4.059   8.412
 4690SOL     OW15901   1.523  10.495  13.751
 4690SOL    HW115902   1.471  10.543  13.686
 4690SOL    HW215903   1.583  10.560  13.787
 4691SOL     OW15904  13.620   5.526   6.233
 4691SOL    HW115905  13.549   5.552   6.176
 4691SOL    HW215906  13.697   5.522   6.176
 4692SOL     OW15907  11.234   9.296   6.684
 4692SOL    HW115908  11.192   9.214   6.657
 4692SOL    HW215909  11.171   9.335   6.745
 4693SOL     OW15910   1.549   9.127  14.295
 4693SOL    HW115911   1.595   9.191  14.240
 4693SOL    HW215912   1.566   9.043  14.253
 4694SOL     OW15913  10.958   7.607   8.753
 4694SOL    HW115914  10.951   7.602   8.658
 4694SOL    HW215915  10.976   7.518   8.781
 4695SOL     OW15916  11.613  12.761   3.477
 4695SOL    HW115917  11.614  12.666   3.471
 4695SOL    HW215918  11.693  12.784   3.524
 4696SOL     OW15919   0.645   2.641   6.751
 4696SOL    HW115920   0.599   2.566   6.788
 4696SOL    HW215921   0.650   2.623   6.657
 4697SOL     OW15922  11.565  13.857   5.804
 4697SOL    HW115923  11.507  13.898   5.740
 4697SOL    HW215924  11.531  13.768   5.814
 4698SOL     OW15925   5.414  12.997  10.996
 4698SOL    HW115926   5.379  12.975  10.909
 4698SOL    HW215927   5.365  13.075  11.022
 4699SOL     OW15928   7.696   5.662   3.639
 4699SOL    HW115929   7.636   5.630   3.707
 4699SOL    HW215930   7.674   5.754   3.628
 4700SOL     OW15931  14.735  11.956   9.092
 4700SOL    HW115932  14.762  11.891   9.028
 4700SOL    HW215933  14.789  11.937   9.169
 4701SOL     OW15934  12.114   1.045   8.018
 4701SOL    HW115935  12.020   1.053   8.035
 4701SOL    HW215936  12.148   0.999   8.095
 4702SOL     OW15937   0.147   0.311   5.599
 4702SOL    HW115938   0.115   0.339   5.513
 4702SOL    HW215939   0.142   0.391   5.653
 4703SOL     OW15940  12.373  12.983   0.634
 4703SOL    HW115941  12.455  12.956   0.675
 4703SOL    HW215942  12.387  13.074   0.609
 4704SOL     OW15943  13.255   2.370   8.680
 4704SOL    HW115944  13.300   2.450   8.655
 4704SOL    HW215945  13.282   2.354   8.771
 4705SOL     OW15946   9.610   7.842   0.051
 4705SOL    HW115947   9.593   7.931   0.083
 4705SOL    HW215948   9.602   7.787   0.128
 4706SOL     OW15949   3.389   7.734   2.524
 4706SOL    HW115950   3.322   7.702   2.585
 4706SOL    HW215951   3.467   7.744   2.577
 4707SOL     OW15952   1.997   6.247  10.880
 4707SOL    HW115953   2.070   6.202  10.921
 4707SOL    HW215954   1.952   6.291  10.952
 4708SOL     OW15955   5.813   5.268   0.422
 4708SOL    HW115956   5.734   5.289   0.373
 4708SOL    HW215957   5.786   5.203   0.487
 4709SOL     OW15958   6.705  10.182  13.785
 4709SOL    HW115959   6.743  10.116  13.726
 4709SOL    HW215960   6.611  10.178  13.767
 4710SOL     OW15961   7.402  12.167   9.288
 4710SOL    HW115962   7.375  12.259   9.282
 4710SOL    HW215963   7.386  12.133   9.200
 4711SOL     OW15964   1.062   6.537   0.353
 4711SOL    HW115965   1.042   6.536   0.259
 4711SOL    HW215966   0.977   6.521   0.395
 4712SOL     OW15967   5.905   4.858  14.366
 4712SOL    HW115968   5.976   4.794  14.365
 4712SOL    HW215969   5.949   4.942  14.349
 4713SOL     OW15970   3.434  10.756   4.943
 4713SOL    HW115971   3.345  10.771   4.912
 4713SOL    HW215972   3.487  10.745   4.863
 4714SOL     OW15973  13.252   7.664   9.857
 4714SOL    HW115974  13.321   7.730   9.864
 4714SOL    HW215975  13.188   7.688   9.924
 4715SOL     OW15976   5.730  12.256   4.812
 4715SOL    HW115977   5.743  12.257   4.907
 4715SOL    HW215978   5.705  12.346   4.790
 4716SOL     OW15979   2.259   4.124  10.553
 4716SOL    HW115980   2.212   4.067  10.614
 4716SOL    HW215981   2.196   4.144  10.485
 4717SOL     OW15982   4.724  14.148  11.148
 4717SOL    HW115983   4.651  14.200  11.182
 4717SOL    HW215984   4.689  14.102  11.072
 4718SOL     OW15985   2.420   6.522   4.519
 4718SOL    HW115986   2.507   6.512   4.557
 4718SOL    HW215987   2.434   6.519   4.424
 4719SOL     OW15988   9.817   1.318   7.037
 4719SOL    HW115989   9.809   1.248   7.101
 4719SOL    HW215990   9.728   1.354   7.030
 4720SOL     OW15991   5.266   0.625  11.877
 4720SOL    HW115992   5.300   0.675  11.803
 4720SOL    HW215993   5.333   0.560  11.896
 4721SOL     OW15994  13.813   3.450   4.802
 4721SOL    HW115995  13.786   3.448   4.893
 4721SOL    HW215996  13.894   3.501   4.801
 4722SOL     OW15997   4.422  10.617  11.961
 4722SOL    HW115998   4.387  10.637  12.048
 4722SOL    HW215999   4.498  10.674  11.952
 4723SOL     OW16000  12.807  10.168   2.824
 4723SOL    HW116001  12.732  10.215   2.789
 4723SOL    HW216002  12.876  10.181   2.759
 4724SOL     OW16003   0.192   3.121   2.962
 4724SOL    HW116004   0.148   3.177   3.026
 4724SOL    HW216005   0.170   3.032   2.990
 4725SOL     OW16006   8.454   2.523   4.981
 4725SOL    HW116007   8.414   2.592   5.034
 4725SOL    HW216008   8.417   2.534   4.894
 4726SOL     OW16009   1.591   2.597  10.003
 4726SOL    HW116010   1.565   2.679  10.045
 4726SOL    HW216011   1.548   2.599   9.917
 4727SOL     OW16012   1.129   5.799   8.668
 4727SOL    HW116013   1.088   5.865   8.725
 4727SOL    HW216014   1.187   5.750   8.727
 4728SOL     OW16015  13.339  13.833   5.056
 4728SOL    HW116016  13.334  13.906   5.118
 4728SOL    HW216017  13.400  13.772   5.097
 4729SOL     OW16018   0.448   2.313   0.709
 4729SOL    HW116019   0.523   2.340   0.762
 4729SOL    HW216020   0.372   2.343   0.759
 4730SOL     OW16021   5.916   4.551  13.331
 4730SOL    HW116022   5.963   4.472  13.356
 4730SOL    HW216023   5.968   4.623  13.369
 4731SOL     OW16024   1.604  10.144   9.392
 4731SOL    HW116025   1.598  10.049   9.381
 4731SOL    HW216026   1.695  10.160   9.415
 4732SOL     OW16027   7.741   1.446   6.262
 4732SOL    HW116028   7.735   1.353   6.286
 4732SOL    HW216029   7.694   1.492   6.331
 4733SOL     OW16030   2.486   1.618  13.444
 4733SOL    HW116031   2.523   1.597  13.530
 4733SOL    HW216032   2.400   1.654  13.463
 4734SOL     OW16033   3.062  14.854   7.631
 4734SOL    HW116034   3.109  14.792   7.687
 4734SOL    HW216035   3.061   0.059   7.682
 4735SOL     OW16036   2.933   9.079   4.487
 4735SOL    HW116037   2.967   9.124   4.564
 4735SOL    HW216038   2.986   8.999   4.481
 4736SOL     OW16039  11.008  11.112   4.058
 4736SOL    HW116040  10.990  11.057   4.135
 4736SOL    HW216041  10.927  11.107   4.006
 4737SOL     OW16042   9.561  14.668  12.952
 4737SOL    HW116043   9.553  14.628  13.039
 4737SOL    HW216044   9.505  14.746  12.957
 4738SOL     OW16045   5.773  12.727  12.759
 4738SOL    HW116046   5.831  12.707  12.832
 4738SOL    HW216047   5.716  12.651  12.752
 4739SOL     OW16048   6.341   2.626   7.268
 4739SOL    HW116049   6.380   2.579   7.342
 4739SOL    HW216050   6.411   2.683   7.236
 4740SOL     OW16051   6.385   3.636  10.065
 4740SOL    HW116052   6.408   3.661   9.976
 4740SOL    HW216053   6.393   3.716  10.116
 4741SOL     OW16054  12.601   5.174   1.729
 4741SOL    HW116055  12.642   5.251   1.770
 4741SOL    HW216056  12.621   5.183   1.636
 4742SOL     OW16057  13.685  12.229   7.312
 4742SOL    HW116058  13.742  12.154   7.329
 4742SOL    HW216059  13.744  12.303   7.299
 4743SOL     OW16060  13.607   9.872  12.568
 4743SOL    HW116061  13.650   9.788  12.587
 4743SOL    HW216062  13.638   9.895  12.481
 4744SOL     OW16063  12.629   6.295   3.372
 4744SOL    HW116064  12.599   6.317   3.284
 4744SOL    HW216065  12.716   6.256   3.358
 4745SOL     OW16066  12.090   5.518   8.261
 4745SOL    HW116067  12.165   5.501   8.204
 4745SOL    HW216068  12.128   5.557   8.340
 4746SOL     OW16069  14.469   1.729   0.185
 4746SOL    HW116070  14.417   1.765   0.113
 4746SOL    HW216071  14.412   1.735   0.261
 4747SOL     OW16072   5.431   8.394  12.118
 4747SOL    HW116073   5.365   8.435  12.064
 4747SOL    HW216074   5.460   8.318  12.068
 4748SOL     OW16075   9.697   4.827   9.957
 4748SOL    HW116076   9.730   4.738   9.945
 4748SOL    HW216077   9.602   4.819   9.955
 4749SOL     OW16078   2.912   1.435   8.367
 4749SOL    HW116079   2.891   1.494   8.440
 4749SOL    HW216080   3.003   1.410   8.382
 4750SOL     OW16081   4.531   7.779  11.160
 4750SOL    HW116082   4.530   7.683  11.159
 4750SOL    HW216083   4.444   7.803  11.192
 4751SOL     OW16084  13.029   8.432  11.882
 4751SOL    HW116085  13.114   8.391  11.899
 4751SOL    HW216086  12.983   8.371  11.825
 4752SOL     OW16087   5.696   6.344  12.043
 4752SOL    HW116088   5.671   6.300  11.961
 4752SOL    HW216089   5.671   6.435  12.030
 4753SOL     OW16090  13.118  10.606  13.543
 4753SOL    HW116091  13.115  10.520  13.501
 4753SOL    HW216092  13.081  10.591  13.630
 4754SOL     OW16093   0.839  10.536   0.676
 4754SOL    HW116094   0.895  10.517   0.600
 4754SOL    HW216095   0.814  10.449   0.709
 4755SOL     OW16096   3.126   0.936   0.888
 4755SOL    HW116097   3.071   0.932   0.810
 4755SOL    HW216098   3.216   0.932   0.855
 4756SOL     OW16099   0.498  12.591  12.872
 4756SOL    HW116100   0.403  12.601  12.869
 4756SOL    HW216101   0.522  12.616  12.962
 4757SOL     OW16102  10.916   5.427   0.523
 4757SOL    HW116103  10.850   5.416   0.454
 4757SOL    HW216104  10.887   5.369   0.593
 4758SOL     OW16105   6.723   8.733  10.816
 4758SOL    HW116106   6.685   8.655  10.775
 4758SOL    HW216107   6.685   8.734  10.904
 4759SOL     OW16108   8.799   2.794  14.608
 4759SOL    HW116109   8.802   2.854  14.534
 4759SOL    HW216110   8.742   2.722  14.580
 4760SOL     OW16111   2.721  12.118   6.500
 4760SOL    HW116112   2.731  12.182   6.571
 4760SOL    HW216113   2.633  12.082   6.514
 4761SOL     OW16114   9.585  11.087   9.417
 4761SOL    HW116115   9.595  11.177   9.450
 4761SOL    HW216116   9.508  11.091   9.360
 4762SOL     OW16117   5.893   4.130  14.365
 4762SOL    HW116118   5.918   4.179  14.444
 4762SOL    HW216119   5.798   4.138  14.361
 4763SOL     OW16120   9.545   0.209  12.399
 4763SOL    HW116121   9.529   0.205  12.494
 4763SOL    HW216122   9.546   0.117  12.371
 4764SOL     OW16123   7.318  10.449   4.016
 4764SOL    HW116124   7.411  10.429   4.004
 4764SOL    HW216125   7.317  10.529   4.068
 4765SOL     OW16126  14.215  13.190   7.349
 4765SOL    HW116127  14.168  13.184   7.432
 4765SOL    HW216128  14.155  13.237   7.291
 4766SOL     OW16129  13.731   6.222   6.742
 4766SOL    HW116130  13.762   6.199   6.654
 4766SOL    HW216131  13.703   6.139   6.780
 4767SOL     OW16132   5.824   2.092   2.549
 4767SOL    HW116133   5.732   2.078   2.527
 4767SOL    HW216134   5.843   2.027   2.617
 4768SOL     OW16135   1.399   2.811  11.979
 4768SOL    HW116136   1.363   2.851  12.058
 4768SOL    HW216137   1.402   2.881  11.915
 4769SOL     OW16138   5.353  10.782   9.977
 4769SOL    HW116139   5.419  10.724   9.941
 4769SOL    HW216140   5.368  10.778  10.072
 4770SOL     OW16141  10.532   8.445   6.595
 4770SOL    HW116142  10.461   8.508   6.585
 4770SOL    HW216143  10.575   8.469   6.677
 4771SOL     OW16144  14.379  14.636  14.857
 4771SOL    HW116145  14.437  14.670   0.050
 4771SOL    HW216146  14.291  14.646   0.018
 4772SOL     OW16147   1.431   2.681   3.498
 4772SOL    HW116148   1.370   2.722   3.559
 4772SOL    HW216149   1.486   2.625   3.553
 4773SOL     OW16150   4.930   5.478   1.447
 4773SOL    HW116151   4.860   5.521   1.398
 4773SOL    HW216152   4.957   5.544   1.511
 4774SOL     OW16153   3.669   3.305   5.373
 4774SOL    HW116154   3.574   3.310   5.369
 4774SOL    HW216155   3.699   3.360   5.300
 4775SOL     OW16156   8.035   5.650   8.583
 4775SOL    HW116157   8.002   5.718   8.523
 4775SOL    HW216158   8.126   5.673   8.598
 4776SOL     OW16159  13.591   3.639   8.860
 4776SOL    HW116160  13.499   3.641   8.831
 4776SOL    HW216161  13.612   3.546   8.863
 4777SOL     OW16162   3.290   5.950   5.471
 4777SOL    HW116163   3.284   5.870   5.418
 4777SOL    HW216164   3.282   5.919   5.561
 4778SOL     OW16165   0.488   8.851  11.835
 4778SOL    HW116166   0.400   8.850  11.874
 4778SOL    HW216167   0.475   8.884  11.746
 4779SOL     OW16168   8.506   8.884  14.478
 4779SOL    HW116169   8.566   8.959  14.483
 4779SOL    HW216170   8.518   8.849  14.390
 4780SOL     OW16171   6.452   8.923   1.063
 4780SOL    HW116172   6.541   8.889   1.076
 4780SOL    HW216173   6.421   8.878   0.984
 4781SOL     OW16174   3.735  14.464   8.997
 4781SOL    HW116175   3.818  14.501   8.967
 4781SOL    HW216176   3.685  14.539   9.029
 4782SOL     OW16177   6.953   3.113   5.958
 4782SOL    HW116178   6.872   3.067   5.937
 4782SOL    HW216179   7.000   3.052   6.016
 4783SOL     OW16180   5.166   4.352  12.161
 4783SOL    HW116181   5.191   4.348  12.069
 4783SOL    HW216182   5.214   4.428  12.196
 4784SOL     OW16183   2.085   9.265   7.430
 4784SOL    HW116184   2.180   9.265   7.442
 4784SOL    HW216185   2.064   9.175   7.404
 4785SOL     OW16186   9.558   4.290   9.535
 4785SOL    HW116187   9.511   4.357   9.486
 4785SOL    HW216188   9.618   4.251   9.472
 4786SOL     OW16189  13.692  11.373  11.747
 4786SOL    HW116190  13.704  11.424  11.667
 4786SOL    HW216191  13.628  11.305  11.723
 4787SOL     OW16192   4.696   2.751  11.815
 4787SOL    HW116193   4.741   2.669  11.836
 4787SOL    HW216194   4.604   2.733  11.834
 4788SOL     OW16195  11.579  14.267   9.708
 4788SOL    HW116196  11.521  14.343   9.702
 4788SOL    HW216197  11.547  14.218   9.783
 4789SOL     OW16198   6.304  13.229   8.164
 4789SOL    HW116199   6.375  13.172   8.193
 4789SOL    HW216200   6.347  13.306   8.129
 4790SOL     OW16201   0.319   2.327   4.199
 4790SOL    HW116202   0.246   2.349   4.258
 4790SOL    HW216203   0.289   2.356   4.113
 4791SOL     OW16204   4.923   7.503  10.649
 4791SOL    HW116205   5.018   7.504  10.642
 4791SOL    HW216206   4.905   7.520  10.741
 4792SOL     OW16207   4.236   3.889  11.377
 4792SOL    HW116208   4.178   3.818  11.405
 4792SOL    HW216209   4.235   3.951  11.450
 4793SOL     OW16210   6.632   1.673   1.486
 4793SOL    HW116211   6.602   1.646   1.400
 4793SOL    HW216212   6.688   1.748   1.470
 4794SOL     OW16213  12.394  14.107  12.363
 4794SOL    HW116214  12.434  14.089  12.278
 4794SOL    HW216215  12.305  14.073  12.355
 4795SOL     OW16216   7.314   1.816  13.432
 4795SOL    HW116217   7.334   1.758  13.358
 4795SOL    HW216218   7.247   1.876  13.398
 4796SOL     OW16219   8.634  12.531  13.635
 4796SOL    HW116220   8.718  12.568  13.608
 4796SOL    HW216221   8.576  12.607  13.642
 4797SOL     OW16222   4.599   1.866   6.121
 4797SOL    HW116223   4.585   1.925   6.048
 4797SOL    HW216224   4.660   1.800   6.088
 4798SOL     OW16225   4.118   9.152   6.681
 4798SOL    HW116226   4.111   9.177   6.773
 4798SOL    HW216227   4.105   9.057   6.681
 4799SOL     OW16228   3.624   0.234   5.536
 4799SOL    HW116229   3.578   0.274   5.463
 4799SOL    HW216230   3.676   0.305   5.574
 4800SOL     OW16231   0.997  10.619  11.654
 4800SOL    HW116232   0.988  10.554  11.723
 4800SOL    HW216233   1.036  10.571  11.581
 4801SOL     OW16234   4.777   5.136   7.527
 4801SOL    HW116235   4.742   5.100   7.445
 4801SOL    HW216236   4.827   5.064   7.566
 4802SOL     OW16237   3.735   6.895   1.164
 4802SOL    HW116238   3.736   6.988   1.142
 4802SOL    HW216239   3.678   6.856   1.098
 4803SOL     OW16240  12.368   6.245   3.977
 4803SOL    HW116241  12.342   6.308   3.910
 4803SOL    HW216242  12.432   6.291   4.031
 4804SOL     OW16243  13.470  11.518  14.793
 4804SOL    HW116244  13.526  11.582  14.837
 4804SOL    HW216245  13.449  11.453  14.860
 4805SOL     OW16246  10.065  13.964  14.257
 4805SOL    HW116247   9.970  13.976  14.253
 4805SOL    HW216248  10.089  13.932  14.171
 4806SOL     OW16249  13.256   5.789   6.537
 4806SOL    HW116250  13.278   5.716   6.595
 4806SOL    HW216251  13.288   5.867   6.584
 4807SOL     OW16252  11.725  12.026  13.292
 4807SOL    HW116253  11.754  12.083  13.221
 4807SOL    HW216254  11.630  12.028  13.287
 4808SOL     OW16255   6.043   4.726   3.850
 4808SOL    HW116256   6.096   4.743   3.927
 4808SOL    HW216257   5.977   4.662   3.878
 4809SOL     OW16258   0.687  12.142   4.680
 4809SOL    HW116259   0.605  12.150   4.730
 4809SOL    HW216260   0.713  12.232   4.662
 4810SOL     OW16261   6.142   4.164   3.483
 4810SOL    HW116262   6.071   4.131   3.538
 4810SOL    HW216263   6.214   4.181   3.544
 4811SOL     OW16264   1.976   7.822   5.991
 4811SOL    HW116265   2.043   7.786   6.050
 4811SOL    HW216266   1.896   7.776   6.014
 4812SOL     OW16267  11.553   6.536   5.092
 4812SOL    HW116268  11.566   6.611   5.034
 4812SOL    HW216269  11.538   6.462   5.034
 4813SOL     OW16270   1.354   3.810  11.286
 4813SOL    HW116271   1.441   3.850  11.274
 4813SOL    HW216272   1.355   3.778  11.377
 4814SOL     OW16273  10.232   2.755   4.769
 4814SOL    HW116274  10.235   2.734   4.862
 4814SOL    HW216275  10.192   2.842   4.765
 4815SOL     OW16276   2.595  11.643   4.430
 4815SOL    HW116277   2.587  11.738   4.424
 4815SOL    HW216278   2.516  11.615   4.477
 4816SOL     OW16279   3.872   2.887   7.415
 4816SOL    HW116280   3.859   2.846   7.500
 4816SOL    HW216281   3.784   2.899   7.380
 4817SOL     OW16282   2.226   9.597   3.552
 4817SOL    HW116283   2.181   9.668   3.598
 4817SOL    HW216284   2.200   9.518   3.599
 4818SOL     OW16285   7.713   3.963  13.679
 4818SOL    HW116286   7.774   3.942  13.749
 4818SOL    HW216287   7.665   4.040  13.711
 4819SOL     OW16288   1.325   4.295   8.743
 4819SOL    HW116289   1.355   4.385   8.751
 4819SOL    HW216290   1.375   4.247   8.809
 4820SOL     OW16291   1.218   7.232   0.359
 4820SOL    HW116292   1.313   7.229   0.347
 4820SOL    HW216293   1.195   7.323   0.341
 4821SOL     OW16294   8.313   7.933   4.767
 4821SOL    HW116295   8.317   8.014   4.717
 4821SOL    HW216296   8.363   7.951   4.847
 4822SOL     OW16297   8.269  14.668   9.491
 4822SOL    HW116298   8.322  14.663   9.411
 4822SOL    HW216299   8.285  14.584   9.535
 4823SOL     OW16300   4.110   6.893  14.583
 4823SOL    HW116301   4.094   6.984  14.557
 4823SOL    HW216302   4.171   6.860  14.518
 4824SOL     OW16303   7.540  13.838   3.388
 4824SOL    HW116304   7.518  13.912   3.445
 4824SOL    HW216305   7.456  13.793   3.375
 4825SOL     OW16306  14.233  14.163   0.573
 4825SOL    HW116307  14.150  14.183   0.529
 4825SOL    HW216308  14.223  14.072   0.602
 4826SOL     OW16309   7.395  14.549   1.486
 4826SOL    HW116310   7.399  14.616   1.555
 4826SOL    HW216311   7.417  14.596   1.406
 4827SOL     OW16312  12.645  13.021   6.965
 4827SOL    HW116313  12.635  13.029   7.060
 4827SOL    HW216314  12.588  12.949   6.941
 4828SOL     OW16315  11.359   8.480   2.933
 4828SOL    HW116316  11.309   8.399   2.944
 4828SOL    HW216317  11.293   8.550   2.936
 4829SOL     OW16318   9.163   3.740  13.862
 4829SOL    HW116319   9.103   3.672  13.832
 4829SOL    HW216320   9.164   3.805  13.792
 4830SOL     OW16321  10.322  11.611   0.897
 4830SOL    HW116322  10.365  11.688   0.934
 4830SOL    HW216323  10.232  11.641   0.879
 4831SOL     OW16324   4.877   1.795   5.745
 4831SOL    HW116325   4.784   1.812   5.756
 4831SOL    HW216326   4.887   1.777   5.652
 4832SOL     OW16327   6.063   6.634   8.334
 4832SOL    HW116328   6.135   6.624   8.272
 4832SOL    HW216329   5.991   6.669   8.280
 4833SOL     OW16330  13.607  11.970  13.166
 4833SOL    HW116331  13.648  11.885  13.150
 4833SOL    HW216332  13.614  12.017  13.083
 4834SOL     OW16333   6.368  11.620   5.711
 4834SOL    HW116334   6.373  11.539   5.660
 4834SOL    HW216335   6.314  11.598   5.786
 4835SOL     OW16336   6.272   5.650  14.209
 4835SOL    HW116337   6.210   5.719  14.233
 4835SOL    HW216338   6.244   5.621  14.122
 4836SOL     OW16339  14.673   5.273  10.070
 4836SOL    HW116340  14.751   5.220  10.088
 4836SOL    HW216341  14.652   5.253   9.979
 4837SOL     OW16342   7.110   6.514  11.037
 4837SOL    HW116343   7.193   6.475  11.012
 4837SOL    HW216344   7.081   6.563  10.960
 4838SOL     OW16345  14.447   2.284   1.169
 4838SOL    HW116346  14.432   2.374   1.139
 4838SOL    HW216347  14.377   2.233   1.129
 4839SOL     OW16348   2.516   2.222   4.883
 4839SOL    HW116349   2.507   2.309   4.843
 4839SOL    HW216350   2.545   2.166   4.811
 4840SOL     OW16351  13.260   0.388   0.517
 4840SOL    HW116352  13.349   0.421   0.530
 4840SOL    HW216353  13.243   0.400   0.423
 4841SOL     OW16354  14.592  12.314   9.810
 4841SOL    HW116355  14.562  12.367   9.885
 4841SOL    HW216356  14.520  12.253   9.794
 4842SOL     OW16357   4.745  11.582   7.714
 4842SOL    HW116358   4.803  11.636   7.659
 4842SOL    HW216359   4.737  11.632   7.795
 4843SOL     OW16360  11.242  13.990   5.871
 4843SOL    HW116361  11.313  14.012   5.932
 4843SOL    HW216362  11.280  13.923   5.813
 4844SOL     OW16363   8.717   6.273  12.528
 4844SOL    HW116364   8.663   6.194  12.529
 4844SOL    HW216365   8.800   6.245  12.569
 4845SOL     OW16366   1.367   9.486   2.981
 4845SOL    HW116367   1.423   9.502   2.905
 4845SOL    HW216368   1.363   9.391   2.989
 4846SOL     OW16369  12.481  14.336  13.974
 4846SOL    HW116370  12.488  14.429  13.995
 4846SOL    HW216371  12.556  14.319  13.918
 4847SOL     OW16372   4.952   2.824   8.825
 4847SOL    HW116373   4.993   2.819   8.911
 4847SOL    HW216374   4.905   2.741   8.815
 4848SOL     OW16375  11.396   0.594   3.414
 4848SOL    HW116376  11.473   0.604   3.358
 4848SOL    HW216377  11.431   0.573   3.500
 4849SOL     OW16378   6.644   0.179   1.117
 4849SOL    HW116379   6.659   0.147   1.206
 4849SOL    HW216380   6.702   0.255   1.108
 4850SOL     OW16381   1.113   9.246  11.789
 4850SOL    HW116382   1.060   9.292  11.724
 4850SOL    HW216383   1.082   9.278  11.873
 4851SOL     OW16384   0.019   9.060   7.506
 4851SOL    HW116385   0.023   9.093   7.417
 4851SOL    HW216386   0.035   9.137   7.561
 4852SOL     OW16387   5.888  13.903  12.259
 4852SOL    HW116388   5.853  13.948  12.182
 4852SOL    HW216389   5.977  13.937  12.268
 4853SOL     OW16390   5.274  12.637  10.919
 4853SOL    HW116391   5.352  12.604  10.964
 4853SOL    HW216392   5.305  12.713  10.871
 4854SOL     OW16393   0.722   0.015   3.925
 4854SOL    HW116394   0.724  14.813   3.870
 4854SOL    HW216395   0.814   0.028   3.951
 4855SOL     OW16396  11.585  13.078   3.531
 4855SOL    HW116397  11.604  13.008   3.468
 4855SOL    HW216398  11.491  13.094   3.522
 4856SOL     OW16399   9.500   8.295   2.780
 4856SOL    HW116400   9.571   8.232   2.789
 4856SOL    HW216401   9.543   8.378   2.758
 4857SOL     OW16402  13.419  12.731  14.743
 4857SOL    HW116403  13.370  12.653  14.717
 4857SOL    HW216404  13.375  12.762  14.822
 4858SOL     OW16405  10.344   0.870   9.557
 4858SOL    HW116406  10.274   0.879   9.622
 4858SOL    HW216407  10.301   0.831   9.481
 4859SOL     OW16408  14.611   8.109  12.159
 4859SOL    HW116409  14.607   8.164  12.080
 4859SOL    HW216410  14.704   8.111  12.184
 4860SOL     OW16411   9.307   6.286  11.244
 4860SOL    HW116412   9.326   6.251  11.156
 4860SOL    HW216413   9.278   6.210  11.294
 4861SOL     OW16414   4.786   5.482   7.218
 4861SOL    HW116415   4.793   5.475   7.313
 4861SOL    HW216416   4.873   5.457   7.186
 4862SOL     OW16417   1.760   9.038  14.492
 4862SOL    HW116418   1.700   8.967  14.513
 4862SOL    HW216419   1.817   9.045  14.568
 4863SOL     OW16420  11.919  13.852  10.431
 4863SOL    HW116421  11.977  13.891  10.496
 4863SOL    HW216422  11.837  13.901  10.440
 4864SOL     OW16423   1.751  11.948   7.683
 4864SOL    HW116424   1.722  11.976   7.596
 4864SOL    HW216425   1.726  11.855   7.687
 4865SOL     OW16426   6.883  12.009  13.103
 4865SOL    HW116427   6.826  11.933  13.092
 4865SOL    HW216428   6.955  11.995  13.041
 4866SOL     OW16429   9.570  14.088   2.266
 4866SOL    HW116430   9.481  14.110   2.239
 4866SOL    HW216431   9.626  14.142   2.211
 4867SOL     OW16432  14.475  11.776   9.966
 4867SOL    HW116433  14.511  11.704   9.913
 4867SOL    HW216434  14.438  11.733  10.043
 4868SOL     OW16435   3.565  13.042   1.719
 4868SOL    HW116436   3.538  13.011   1.633
 4868SOL    HW216437   3.546  13.135   1.719
 4869SOL     OW16438  13.266   0.664   3.047
 4869SOL    HW116439  13.287   0.756   3.033
 4869SOL    HW216440  13.334   0.632   3.106
 4870SOL     OW16441   2.961   4.532   9.258
 4870SOL    HW116442   2.935   4.440   9.261
 4870SOL    HW216443   2.892   4.579   9.304
 4871SOL     OW16444   5.973   3.535  11.232
 4871SOL    HW116445   5.921   3.570  11.160
 4871SOL    HW216446   6.059   3.576  11.222
 4872SOL     OW16447  10.580   8.144   4.282
 4872SOL    HW116448  10.635   8.067   4.294
 4872SOL    HW216449  10.553   8.142   4.191
 4873SOL     OW16450   6.746   5.693  13.495
 4873SOL    HW116451   6.819   5.749  13.470
 4873SOL    HW216452   6.787   5.611  13.522
 4874SOL     OW16453   8.164   3.520  14.205
 4874SOL    HW116454   8.133   3.442  14.158
 4874SOL    HW216455   8.259   3.515  14.200
 4875SOL     OW16456  13.346  11.887   0.414
 4875SOL    HW116457  13.253  11.906   0.402
 4875SOL    HW216458  13.370  11.836   0.337
 4876SOL     OW16459   7.607   8.857   4.066
 4876SOL    HW116460   7.700   8.839   4.082
 4876SOL    HW216461   7.561   8.802   4.130
 4877SOL     OW16462   2.702  12.282   5.996
 4877SOL    HW116463   2.654  12.202   5.977
 4877SOL    HW216464   2.676  12.306   6.085
 4878SOL     OW16465  10.947   8.878   5.797
 4878SOL    HW116466  10.923   8.898   5.888
 4878SOL    HW216467  10.892   8.936   5.744
 4879SOL     OW16468   9.221   8.872   3.472
 4879SOL    HW116469   9.283   8.841   3.407
 4879SOL    HW216470   9.178   8.947   3.430
 4880SOL     OW16471   3.576   4.465   8.199
 4880SOL    HW116472   3.493   4.462   8.248
 4880SOL    HW216473   3.633   4.404   8.244
 4881SOL     OW16474   3.239   4.468  10.578
 4881SOL    HW116475   3.296   4.474  10.655
 4881SOL    HW216476   3.257   4.381  10.541
 4882SOL     OW16477   4.290   0.699   9.754
 4882SOL    HW116478   4.332   0.675   9.671
 4882SOL    HW216479   4.274   0.616   9.798
 4883SOL     OW16480   6.461   9.610   3.097
 4883SOL    HW116481   6.442   9.583   3.187
 4883SOL    HW216482   6.555   9.597   3.088
 4884SOL     OW16483   1.180   9.319  11.298
 4884SOL    HW116484   1.106   9.285  11.349
 4884SOL    HW216485   1.158   9.298  11.207
 4885SOL     OW16486   8.702  11.410   7.435
 4885SOL    HW116487   8.727  11.490   7.480
 4885SOL    HW216488   8.783  11.360   7.428
 4886SOL     OW16489   6.956  12.612  10.903
 4886SOL    HW116490   6.930  12.577  10.818
 4886SOL    HW216491   7.006  12.541  10.944
 4887SOL     OW16492   5.016  11.836  10.951
 4887SOL    HW116493   4.932  11.806  10.916
 4887SOL    HW216494   4.997  11.922  10.989
 4888SOL     OW16495   5.481  13.924  13.175
 4888SOL    HW116496   5.527  13.888  13.251
 4888SOL    HW216497   5.435  13.850  13.137
 4889SOL     OW16498   4.724  11.562  12.082
 4889SOL    HW116499   4.807  11.564  12.129
 4889SOL    HW216500   4.739  11.617  12.005
 4890SOL     OW16501  13.470   0.381  10.496
 4890SOL    HW116502  13.417   0.460  10.486
 4890SOL    HW216503  13.440   0.342  10.578
 4891SOL     OW16504   7.137   5.044   0.083
 4891SOL    HW116505   7.136   5.134   0.052
 4891SOL    HW216506   7.122   5.051   0.178
 4892SOL     OW16507   1.745   2.658   8.068
 4892SOL    HW116508   1.705   2.727   8.016
 4892SOL    HW216509   1.711   2.673   8.157
 4893SOL     OW16510  14.617   4.398  14.716
 4893SOL    HW116511  14.628   4.376  14.808
 4893SOL    HW216512  14.705   4.391  14.679
 4894SOL     OW16513   3.016   7.370  11.584
 4894SOL    HW116514   3.082   7.301  11.594
 4894SOL    HW216515   2.933   7.325  11.593
 4895SOL     OW16516   6.024   2.652   0.601
 4895SOL    HW116517   6.055   2.686   0.685
 4895SOL    HW216518   6.028   2.557   0.611
 4896SOL     OW16519   2.944   0.459   1.748
 4896SOL    HW116520   2.990   0.379   1.770
 4896SOL    HW216521   2.855   0.446   1.780
 4897SOL     OW16522  12.687   2.853   9.962
 4897SOL    HW116523  12.618   2.910   9.927
 4897SOL    HW216524  12.738   2.909  10.019
 4898SOL     OW16525   8.446   7.195   1.484
 4898SOL    HW116526   8.476   7.200   1.575
 4898SOL    HW216527   8.441   7.286   1.456
 4899SOL     OW16528   5.018  11.135  14.736
 4899SOL    HW116529   4.947  11.108  14.795
 4899SOL    HW216530   4.997  11.093  14.652
 4900SOL     OW16531   6.223   8.021  14.585
 4900SOL    HW116532   6.267   8.100  14.554
 4900SOL    HW216533   6.283   7.983  14.649
 4901SOL     OW16534   7.501  11.852  12.921
 4901SOL    HW116535   7.473  11.908  12.994
 4901SOL    HW216536   7.472  11.898  12.843
 4902SOL     OW16537   4.172   0.560   5.029
 4902SOL    HW116538   4.213   0.499   4.968
 4902SOL    HW216539   4.209   0.538   5.114
 4903SOL     OW16540   2.584   7.328  14.506
 4903SOL    HW116541   2.529   7.266  14.458
 4903SOL    HW216542   2.673   7.296  14.495
 4904SOL     OW16543  13.893   8.517   8.284
 4904SOL    HW116544  13.946   8.437   8.289
 4904SOL    HW216545  13.929   8.565   8.209
 4905SOL     OW16546   2.881   8.769   7.240
 4905SOL    HW116547   2.950   8.821   7.199
 4905SOL    HW216548   2.886   8.793   7.333
 4906SOL     OW16549   1.259   5.502  11.960
 4906SOL    HW116550   1.190   5.544  12.011
 4906SOL    HW216551   1.287   5.568  11.898
 4907SOL     OW16552   1.914  12.361   6.925
 4907SOL    HW116553   1.967  12.407   6.990
 4907SOL    HW216554   1.945  12.271   6.928
 4908SOL     OW16555  13.603   4.680  13.406
 4908SOL    HW116556  13.606   4.678  13.310
 4908SOL    HW216557  13.511   4.661  13.427
 4909SOL     OW16558   8.543   0.690  10.021
 4909SOL    HW116559   8.600   0.623   9.983
 4909SOL    HW216560   8.455   0.664   9.994
 4910SOL     OW16561  10.246   0.451  13.704
 4910SOL    HW116562  10.321   0.510  13.699
 4910SOL    HW216563  10.176   0.506  13.739
 4911SOL     OW16564   2.921  11.340   4.262
 4911SOL    HW116565   3.008  11.348   4.301
 4911SOL    HW216566   2.931  11.376   4.174
 4912SOL     OW16567   0.271  11.233   5.404
 4912SOL    HW116568   0.210  11.212   5.333
 4912SOL    HW216569   0.316  11.150   5.422
 4913SOL     OW16570   0.989   6.907   5.721
 4913SOL    HW116571   1.063   6.965   5.738
 4913SOL    HW216572   0.984   6.851   5.798
 4914SOL     OW16573  11.486   5.158   6.803
 4914SOL    HW116574  11.567   5.187   6.844
 4914SOL    HW216575  11.448   5.096   6.865
 4915SOL     OW16576   9.389   4.766   9.902
 4915SOL    HW116577   9.305   4.797   9.937
 4915SOL    HW216578   9.412   4.831   9.836
 4916SOL     OW16579  11.810  12.258   6.448
 4916SOL    HW116580  11.718  12.276   6.469
 4916SOL    HW216581  11.837  12.192   6.512
 4917SOL     OW16582   4.756   7.892   6.116
 4917SOL    HW116583   4.799   7.807   6.108
 4917SOL    HW216584   4.821   7.948   6.157
 4918SOL     OW16585   9.310   0.075   8.906
 4918SOL    HW116586   9.248   0.015   8.947
 4918SOL    HW216587   9.395   0.050   8.943
 4919SOL     OW16588   6.751   7.658  10.717
 4919SOL    HW116589   6.722   7.567  10.708
 4919SOL    HW216590   6.705   7.705  10.648
 4920SOL     OW16591  11.026   1.661   7.578
 4920SOL    HW116592  11.078   1.631   7.652
 4920SOL    HW216593  10.944   1.612   7.584
 4921SOL     OW16594  13.534   1.477   3.715
 4921SOL    HW116595  13.471   1.528   3.764
 4921SOL    HW216596  13.488   1.453   3.634
 4922SOL     OW16597  11.445   4.651  10.820
 4922SOL    HW116598  11.371   4.654  10.881
 4922SOL    HW216599  11.489   4.569  10.841
 4923SOL     OW16600  12.519  13.632   2.821
 4923SOL    HW116601  12.479  13.555   2.780
 4923SOL    HW216602  12.593  13.653   2.765
 4924SOL     OW16603  11.739   8.086   1.471
 4924SOL    HW116604  11.778   8.142   1.538
 4924SOL    HW216605  11.814   8.052   1.423
 4925SOL     OW16606  14.020  13.463   0.773
 4925SOL    HW116607  13.938  13.489   0.733
 4925SOL    HW216608  14.002  13.464   0.867
 4926SOL     OW16609   9.988   3.995  12.510
 4926SOL    HW116610  10.069   3.985  12.559
 4926SOL    HW216611   9.968   3.907  12.478
 4927SOL     OW16612   2.604   7.036   6.165
 4927SOL    HW116613   2.671   6.973   6.135
 4927SOL    HW216614   2.521   6.991   6.151
 4928SOL     OW16615   5.557   3.189   8.807
 4928SOL    HW116616   5.521   3.253   8.746
 4928SOL    HW216617   5.502   3.111   8.795
 4929SOL     OW16618   0.662  10.194  12.074
 4929SOL    HW116619   0.685  10.117  12.021
 4929SOL    HW216620   0.747  10.231  12.099
 4930SOL     OW16621   2.809   3.127  11.760
 4930SOL    HW116622   2.785   3.216  11.734
 4930SOL    HW216623   2.904   3.130  11.772
 4931SOL     OW16624  13.231   6.086   7.240
 4931SOL    HW116625  13.169   6.113   7.172
 4931SOL    HW216626  13.301   6.151   7.235
 4932SOL     OW16627   8.223  10.669  14.487
 4932SOL    HW116628   8.199  10.578  14.472
 4932SOL    HW216629   8.150  10.706  14.536
 4933SOL     OW16630  12.983   3.396   2.815
 4933SOL    HW116631  12.925   3.364   2.884
 4933SOL    HW216632  13.026   3.318   2.781
 4934SOL     OW16633   7.001  13.846   9.356
 4934SOL    HW116634   7.079  13.870   9.406
 4934SOL    HW216635   7.032  13.839   9.265
 4935SOL     OW16636   6.441  10.586   0.545
 4935SOL    HW116637   6.356  10.578   0.501
 4935SOL    HW216638   6.422  10.562   0.636
 4936SOL     OW16639  13.535  12.644   8.009
 4936SOL    HW116640  13.631  12.639   8.007
 4936SOL    HW216641  13.514  12.649   8.102
 4937SOL     OW16642  13.730  10.623   3.251
 4937SOL    HW116643  13.700  10.614   3.160
 4937SOL    HW216644  13.657  10.588   3.303
 4938SOL     OW16645   3.024   5.627  11.539
 4938SOL    HW116646   2.975   5.639  11.457
 4938SOL    HW216647   3.007   5.707  11.589
 4939SOL     OW16648   6.049   3.782   0.214
 4939SOL    HW116649   6.069   3.689   0.204
 4939SOL    HW216650   5.974   3.797   0.157
 4940SOL     OW16651  12.692   4.606   8.779
 4940SOL    HW116652  12.762   4.587   8.717
 4940SOL    HW216653  12.613   4.576   8.736
 4941SOL     OW16654   1.325   8.573   6.102
 4941SOL    HW116655   1.233   8.591   6.121
 4941SOL    HW216656   1.361   8.658   6.075
 4942SOL     OW16657  14.250   6.863   5.222
 4942SOL    HW116658  14.162   6.876   5.257
 4942SOL    HW216659  14.300   6.938   5.255
 4943SOL     OW16660   1.158  14.275   1.834
 4943SOL    HW116661   1.099  14.286   1.908
 4943SOL    HW216662   1.101  14.252   1.761
 4944SOL     OW16663  11.901   4.919   0.626
 4944SOL    HW116664  11.829   4.946   0.682
 4944SOL    HW216665  11.859   4.874   0.553
 4945SOL     OW16666  12.190  12.368   1.553
 4945SOL    HW116667  12.219  12.457   1.574
 4945SOL    HW216668  12.181  12.326   1.638
 4946SOL     OW16669  12.182  11.422   6.530
 4946SOL    HW116670  12.112  11.384   6.583
 4946SOL    HW216671  12.162  11.394   6.440
 4947SOL     OW16672  14.369   0.590   0.321
 4947SOL    HW116673  14.318   0.553   0.249
 4947SOL    HW216674  14.365   0.684   0.307
 4948SOL     OW16675   5.946   1.011  11.152
 4948SOL    HW116676   5.870   1.061  11.184
 4948SOL    HW216677   6.019   1.042  11.206
 4949SOL     OW16678   0.744   2.931  12.813
 4949SOL    HW116679   0.658   2.901  12.785
 4949SOL    HW216680   0.736   2.946  12.907
 4950SOL     OW16681  12.328  13.492   1.073
 4950SOL    HW116682  12.269  13.447   1.013
 4950SOL    HW216683  12.408  13.506   1.022
 4951SOL     OW16684  11.522  12.527   1.682
 4951SOL    HW116685  11.489  12.577   1.608
 4951SOL    HW216686  11.614  12.510   1.661
 4952SOL     OW16687   9.991  10.246  12.754
 4952SOL    HW116688  10.076  10.271  12.718
 4952SOL    HW216689   9.927  10.290  12.698
 4953SOL     OW16690   4.148   9.939  12.377
 4953SOL    HW116691   4.075   9.928  12.317
 4953SOL    HW216692   4.144   9.863  12.435
 4954SOL     OW16693   3.992   4.125   1.428
 4954SOL    HW116694   3.904   4.106   1.395
 4954SOL    HW216695   4.038   4.041   1.422
 4955SOL     OW16696   3.911  13.981   0.701
 4955SOL    HW116697   3.913  13.937   0.616
 4955SOL    HW216698   3.841  14.045   0.693
 4956SOL     OW16699   1.383  13.034  12.249
 4956SOL    HW116700   1.301  13.015  12.204
 4956SOL    HW216701   1.420  12.947  12.268
 4957SOL     OW16702   5.340   0.213   0.766
 4957SOL    HW116703   5.311   0.125   0.743
 4957SOL    HW216704   5.342   0.260   0.683
 4958SOL     OW16705  13.983   5.669   1.790
 4958SOL    HW116706  13.953   5.619   1.715
 4958SOL    HW216707  14.029   5.744   1.753
 4959SOL     OW16708  13.283  10.502   4.723
 4959SOL    HW116709  13.282  10.407   4.709
 4959SOL    HW216710  13.329  10.513   4.807
 4960SOL     OW16711  10.528   0.736   4.996
 4960SOL    HW116712  10.479   0.712   5.075
 4960SOL    HW216713  10.527   0.657   4.942
 4961SOL     OW16714  14.835   2.570   7.726
 4961SOL    HW116715  14.751   2.523   7.726
 4961SOL    HW216716  14.862   2.569   7.634
 4962SOL     OW16717   3.009  12.663   3.411
 4962SOL    HW116718   2.982  12.643   3.501
 4962SOL    HW216719   3.095  12.623   3.403
 4963SOL     OW16720   4.491  10.273   7.863
 4963SOL    HW116721   4.547  10.195   7.869
 4963SOL    HW216722   4.408  10.245   7.902
 4964SOL     OW16723  14.072   7.828  11.473
 4964SOL    HW116724  13.981   7.816  11.501
 4964SOL    HW216725  14.073   7.911  11.426
 4965SOL     OW16726   3.966   9.771   3.553
 4965SOL    HW116727   3.873   9.765   3.530
 4965SOL    HW216728   3.977   9.859   3.588
 4966SOL     OW16729   8.631   7.022   1.255
 4966SOL    HW116730   8.608   7.113   1.274
 4966SOL    HW216731   8.575   6.999   1.181
 4967SOL     OW16732   3.950  13.839  10.517
 4967SOL    HW116733   3.958  13.935  10.521
 4967SOL    HW216734   3.881  13.824  10.453
 4968SOL     OW16735   7.702   5.123   0.335
 4968SOL    HW116736   7.791   5.146   0.360
 4968SOL    HW216737   7.697   5.028   0.347
 4969SOL     OW16738  14.078   2.550   5.237
 4969SOL    HW116739  14.103   2.633   5.278
 4969SOL    HW216740  13.995   2.526   5.278
 4970SOL     OW16741   0.059  12.709   7.563
 4970SOL    HW116742   0.151  12.694   7.583
 4970SOL    HW216743   0.039  12.648   7.491
 4971SOL     OW16744   1.023   4.236   7.895
 4971SOL    HW116745   1.055   4.310   7.946
 4971SOL    HW216746   1.036   4.160   7.953
 4972SOL     OW16747   3.009   1.525   6.748
 4972SOL    HW116748   3.046   1.573   6.822
 4972SOL    HW216749   2.967   1.449   6.788
 4973SOL     OW16750   2.729  12.987  13.106
 4973SOL    HW116751   2.781  13.066  13.095
 4973SOL    HW216752   2.638  13.016  13.101
 4974SOL     OW16753   2.273   6.930   9.862
 4974SOL    HW116754   2.290   6.881   9.781
 4974SOL    HW216755   2.234   6.866   9.921
 4975SOL     OW16756  13.157  12.040  14.221
 4975SOL    HW116757  13.143  11.969  14.159
 4975SOL    HW216758  13.244  12.025  14.256
 4976SOL     OW16759   3.076  10.432   6.514
 4976SOL    HW116760   3.074  10.423   6.609
 4976SOL    HW216761   3.084  10.527   6.499
 4977SOL     OW16762  11.240   2.891  14.096
 4977SOL    HW116763  11.208   2.981  14.089
 4977SOL    HW216764  11.334   2.899  14.112
 4978SOL     OW16765  13.223  12.928   9.426
 4978SOL    HW116766  13.159  12.895   9.489
 4978SOL    HW216767  13.222  12.863   9.355
 4979SOL     OW16768   3.625   6.286  12.191
 4979SOL    HW116769   3.677   6.339  12.252
 4979SOL    HW216770   3.688   6.248  12.131
 4980SOL     OW16771  13.814   3.866   7.775
 4980SOL    HW116772  13.854   3.929   7.835
 4980SOL    HW216773  13.880   3.797   7.765
 4981SOL     OW16774   0.838   3.336  10.624
 4981SOL    HW116775   0.806   3.410  10.676
 4981SOL    HW216776   0.898   3.289  10.683
 4982SOL     OW16777   0.310   3.091   2.296
 4982SOL    HW116778   0.313   3.068   2.203
 4982SOL    HW216779   0.334   3.184   2.299
 4983SOL     OW16780   9.477  10.775  10.238
 4983SOL    HW116781   9.469  10.779  10.143
 4983SOL    HW216782   9.486  10.866  10.266
 4984SOL     OW16783   9.065   4.657   2.863
 4984SOL    HW116784   9.088   4.740   2.820
 4984SOL    HW216785   8.972   4.668   2.885
 4985SOL     OW16786   4.573   3.926  14.867
 4985SOL    HW116787   4.577   3.869  14.790
 4985SOL    HW216788   4.515   3.997  14.842
 4986SOL     OW16789   5.861   5.346   4.899
 4986SOL    HW116790   5.828   5.369   4.813
 4986SOL    HW216791   5.877   5.430   4.942
 4987SOL     OW16792   6.277   4.114  12.395
 4987SOL    HW116793   6.343   4.180  12.417
 4987SOL    HW216794   6.228   4.153  12.322
 4988SOL     OW16795   0.781   3.458   3.973
 4988SOL    HW116796   0.769   3.394   4.043
 4988SOL    HW216797   0.869   3.441   3.940
 4989SOL     OW16798  10.431   8.503  10.609
 4989SOL    HW116799  10.417   8.583  10.558
 4989SOL    HW216800  10.509   8.463  10.570
 4990SOL     OW16801   2.335  10.456  13.921
 4990SOL    HW116802   2.307  10.381  13.868
 4990SOL    HW216803   2.427  10.470  13.896
 4991SOL     OW16804  14.082  14.418   3.738
 4991SOL    HW116805  14.169  14.411   3.777
 4991SOL    HW216806  14.023  14.427   3.813
 4992SOL     OW16807  14.537   3.563   3.831
 4992SOL    HW116808  14.546   3.502   3.904
 4992SOL    HW216809  14.625   3.568   3.793
 4993SOL     OW16810   8.894  12.631   6.578
 4993SOL    HW116811   8.853  12.629   6.664
 4993SOL    HW216812   8.822  12.651   6.518
 4994SOL     OW16813   5.932   3.281   3.189
 4994SOL    HW116814   5.995   3.285   3.261
 4994SOL    HW216815   5.884   3.363   3.195
 4995SOL     OW16816   6.040   0.738   1.075
 4995SOL    HW116817   5.947   0.751   1.060
 4995SOL    HW216818   6.053   0.755   1.168
 4996SOL     OW16819  14.782  10.937   6.425
 4996SOL    HW116820  14.748  10.862   6.377
 4996SOL    HW216821  14.841  10.899   6.491
 4997SOL     OW16822  10.036   6.333   1.237
 4997SOL    HW116823   9.961   6.287   1.200
 4997SOL    HW216824  10.014   6.426   1.230
 4998SOL     OW16825   2.532   6.242  12.954
 4998SOL    HW116826   2.547   6.305  12.883
 4998SOL    HW216827   2.618   6.203  12.969
 4999SOL     OW16828  14.338   2.687  14.356
 4999SOL    HW116829  14.417   2.731  14.388
 4999SOL    HW216830  14.307   2.636  14.431
 5000SOL     OW16831   7.542   2.140   3.332
 5000SOL    HW116832   7.513   2.221   3.290
 5000SOL    HW216833   7.473   2.077   3.313
 5001SOL     OW16834   6.242   9.729   7.522
 5001SOL    HW116835   6.173   9.762   7.579
 5001SOL    HW216836   6.224   9.770   7.437
 5002SOL     OW16837   4.576   6.898  11.249
 5002SOL    HW116838   4.507   6.837  11.223
 5002SOL    HW216839   4.563   6.910  11.343
 5003SOL     OW16840   9.404   6.263   1.860
 5003SOL    HW116841   9.390   6.355   1.884
 5003SOL    HW216842   9.328   6.240   1.807
 5004SOL     OW16843   7.980   7.465   9.225
 5004SOL    HW116844   7.928   7.447   9.146
 5004SOL    HW216845   8.070   7.465   9.195
 5005SOL     OW16846   9.321   6.568  13.143
 5005SOL    HW116847   9.287   6.478  13.147
 5005SOL    HW216848   9.265   6.611  13.078
 5006SOL     OW16849   8.179   4.109   5.960
 5006SOL    HW116850   8.137   4.142   5.880
 5006SOL    HW216851   8.243   4.177   5.982
 5007SOL     OW16852   4.777  12.380   7.946
 5007SOL    HW116853   4.707  12.439   7.919
 5007SOL    HW216854   4.770  12.305   7.886
 5008SOL     OW16855  13.449   9.793   2.569
 5008SOL    HW116856  13.461   9.871   2.515
 5008SOL    HW216857  13.371   9.751   2.532
 5009SOL     OW16858  11.099   8.137   6.354
 5009SOL    HW116859  11.015   8.133   6.309
 5009SOL    HW216860  11.144   8.210   6.312
 5010SOL     OW16861  11.653   5.041  11.974
 5010SOL    HW116862  11.648   5.018  12.067
 5010SOL    HW216863  11.704   5.122  11.972
 5011SOL     OW16864  11.083   2.316   5.332
 5011SOL    HW116865  11.042   2.301   5.417
 5011SOL    HW216866  11.029   2.382   5.290
 5012SOL     OW16867   4.114   2.391   0.614
 5012SOL    HW116868   4.148   2.305   0.636
 5012SOL    HW216869   4.068   2.420   0.693
 5013SOL     OW16870  13.356   0.679   2.507
 5013SOL    HW116871  13.391   0.591   2.494
 5013SOL    HW216872  13.383   0.703   2.596
 5014SOL     OW16873   7.440   5.652   6.072
 5014SOL    HW116874   7.359   5.607   6.051
 5014SOL    HW216875   7.492   5.647   5.992
 5015SOL     OW16876   8.999  11.345  12.996
 5015SOL    HW116877   9.056  11.417  12.967
 5015SOL    HW216878   8.935  11.386  13.053
 5016SOL     OW16879   3.688   7.933   7.592
 5016SOL    HW116880   3.672   7.988   7.516
 5016SOL    HW216881   3.714   7.848   7.556
 5017SOL     OW16882   8.265  13.785  10.050
 5017SOL    HW116883   8.255  13.790   9.955
 5017SOL    HW216884   8.360  13.783  10.064
 5018SOL     OW16885   2.370   1.883   0.357
 5018SOL    HW116886   2.381   1.886   0.262
 5018SOL    HW216887   2.275   1.883   0.370
 5019SOL     OW16888   0.589   7.016   0.754
 5019SOL    HW116889   0.652   6.972   0.812
 5019SOL    HW216890   0.553   7.087   0.807
 5020SOL     OW16891   0.995  13.188   0.445
 5020SOL    HW116892   1.072  13.132   0.433
 5020SOL    HW216893   0.956  13.159   0.527
 5021SOL     OW16894  12.114   6.489   7.602
 5021SOL    HW116895  12.171   6.533   7.538
 5021SOL    HW216896  12.028   6.531   7.590
 5022SOL     OW16897   4.586   7.472   9.846
 5022SOL    HW116898   4.641   7.418   9.902
 5022SOL    HW216899   4.610   7.562   9.866
 5023SOL     OW16900  10.408  10.377   7.624
 5023SOL    HW116901  10.337  10.375   7.688
 5023SOL    HW216902  10.392  10.457   7.573
 5024SOL     OW16903  14.187   5.149   9.560
 5024SOL    HW116904  14.192   5.197   9.477
 5024SOL    HW216905  14.097   5.116   9.564
 5025SOL     OW16906   5.936  11.927   1.916
 5025SOL    HW116907   5.960  12.013   1.950
 5025SOL    HW216908   6.017  11.893   1.878
 5026SOL     OW16909   7.329   6.749   4.488
 5026SOL    HW116910   7.345   6.830   4.439
 5026SOL    HW216911   7.234   6.738   4.486
 5027SOL     OW16912   3.732  13.105  11.377
 5027SOL    HW116913   3.799  13.169  11.397
 5027SOL    HW216914   3.755  13.072  11.290
 5028SOL     OW16915   2.774   6.155   1.780
 5028SOL    HW116916   2.816   6.228   1.734
 5028SOL    HW216917   2.688   6.147   1.738
 5029SOL     OW16918  11.035  10.977   0.175
 5029SOL    HW116919  11.114  10.940   0.136
 5029SOL    HW216920  11.002  11.038   0.110
 5030SOL     OW16921  12.755   0.737   6.017
 5030SOL    HW116922  12.745   0.660   5.961
 5030SOL    HW216923  12.691   0.800   5.984
 5031SOL     OW16924  13.825  13.089   4.804
 5031SOL    HW116925  13.843  13.051   4.718
 5031SOL    HW216926  13.734  13.121   4.798
 5032SOL     OW16927  11.125   7.014   5.010
 5032SOL    HW116928  11.115   7.099   5.053
 5032SOL    HW216929  11.207   6.979   5.046
 5033SOL     OW16930  11.545   4.809  11.885
 5033SOL    HW116931  11.606   4.883  11.884
 5033SOL    HW216932  11.602   4.732  11.876
 5034SOL     OW16933   9.080  13.910   1.244
 5034SOL    HW116934   9.156  13.863   1.278
 5034SOL    HW216935   9.093  14.001   1.271
 5035SOL     OW16936   8.545   1.714  13.219
 5035SOL    HW116937   8.558   1.631  13.173
 5035SOL    HW216938   8.576   1.781  13.159
 5036SOL     OW16939   7.929  14.566  11.197
 5036SOL    HW116940   8.019  14.533  11.195
 5036SOL    HW216941   7.874  14.488  11.206
 5037SOL     OW16942   1.618  11.228  13.655
 5037SOL    HW116943   1.539  11.197  13.611
 5037SOL    HW216944   1.686  11.166  13.629
 5038SOL     OW16945   7.301  11.419   7.643
 5038SOL    HW116946   7.220  11.470   7.639
 5038SOL    HW216947   7.330  11.413   7.552
 5039SOL     OW16948   6.011  11.009   9.645
 5039SOL    HW116949   6.083  11.028   9.705
 5039SOL    HW216950   6.046  10.940   9.588
 5040SOL     OW16951  12.865   7.936   5.454
 5040SOL    HW116952  12.791   7.955   5.511
 5040SOL    HW216953  12.923   8.011   5.464
 5041SOL     OW16954  11.805   0.226   3.915
 5041SOL    HW116955  11.713   0.249   3.903
 5041SOL    HW216956  11.847   0.309   3.937
 5042SOL     OW16957   8.716  12.110   9.230
 5042SOL    HW116958   8.722  12.023   9.191
 5042SOL    HW216959   8.650  12.101   9.299
 5043SOL     OW16960  14.036  13.747   8.491
 5043SOL    HW116961  14.120  13.719   8.527
 5043SOL    HW216962  14.017  13.830   8.533
 5044SOL     OW16963   5.172   8.576   5.147
 5044SOL    HW116964   5.236   8.644   5.167
 5044SOL    HW216965   5.109   8.580   5.219
 5045SOL     OW16966   8.959   9.543   8.378
 5045SOL    HW116967   9.054   9.546   8.386
 5045SOL    HW216968   8.943   9.479   8.308
 5046SOL     OW16969   6.136  13.474  13.374
 5046SOL    HW116970   6.104  13.390  13.339
 5046SOL    HW216971   6.062  13.533  13.367
 5047SOL     OW16972  10.138  13.579   8.901
 5047SOL    HW116973  10.074  13.552   8.967
 5047SOL    HW216974  10.086  13.590   8.821
 5048SOL     OW16975   5.253   4.650   5.334
 5048SOL    HW116976   5.204   4.723   5.296
 5048SOL    HW216977   5.343   4.681   5.338
 5049SOL     OW16978  14.721  12.921   4.201
 5049SOL    HW116979  14.742  12.836   4.164
 5049SOL    HW216980  14.625  12.921   4.208
 5050SOL     OW16981   7.088  13.119  10.264
 5050SOL    HW116982   7.106  13.212  10.247
 5050SOL    HW216983   7.171  13.076  10.248
 5051SOL     OW16984   6.322   9.244   0.329
 5051SOL    HW116985   6.235   9.273   0.303
 5051SOL    HW216986   6.315   9.227   0.423
 5052SOL     OW16987   9.554   7.204  10.929
 5052SOL    HW116988   9.637   7.244  10.956
 5052SOL    HW216989   9.545   7.230  10.837
 5053SOL     OW16990   5.327   7.211   4.611
 5053SOL    HW116991   5.275   7.131   4.610
 5053SOL    HW216992   5.388   7.200   4.684
 5054SOL     OW16993   9.535   7.377   1.590
 5054SOL    HW116994   9.535   7.420   1.505
 5054SOL    HW216995   9.446   7.390   1.624
 5055SOL     OW16996   5.183  10.022  11.361
 5055SOL    HW116997   5.179  10.115  11.380
 5055SOL    HW216998   5.137  10.012  11.277
 5056SOL     OW16999   7.972   2.079  14.120
 5056SOL    HW117000   8.066   2.088  14.101
 5056SOL    HW217001   7.969   2.055  14.213
 5057SOL     OW17002   3.631  10.019  12.319
 5057SOL    HW117003   3.543  10.057  12.326
 5057SOL    HW217004   3.644   9.974  12.403
 5058SOL     OW17005   4.097   7.613   6.539
 5058SOL    HW117006   4.156   7.683   6.514
 5058SOL    HW217007   4.111   7.545   6.474
 5059SOL     OW17008  14.004  10.264   5.963
 5059SOL    HW117009  13.963  10.210   5.895
 5059SOL    HW217010  13.932  10.286   6.022
 5060SOL     OW17011   5.293   0.287  14.493
 5060SOL    HW117012   5.321   0.265  14.582
 5060SOL    HW217013   5.197   0.281  14.496
 5061SOL     OW17014   0.591  10.565   3.787
 5061SOL    HW117015   0.665  10.557   3.728
 5061SOL    HW217016   0.628  10.602   3.867
 5062SOL     OW17017   0.703   7.667   2.488
 5062SOL    HW117018   0.715   7.753   2.528
 5062SOL    HW217019   0.651   7.618   2.552
 5063SOL     OW17020   3.565   2.190  13.344
 5063SOL    HW117021   3.531   2.115  13.393
 5063SOL    HW217022   3.660   2.180  13.348
 5064SOL     OW17023   1.527   3.867   4.783
 5064SOL    HW117024   1.551   3.840   4.872
 5064SOL    HW217025   1.432   3.860   4.781
 5065SOL     OW17026   9.969   3.050   8.019
 5065SOL    HW117027   9.949   2.957   8.014
 5065SOL    HW217028  10.060   3.057   7.993
 5066SOL     OW17029  14.715   4.278  10.311
 5066SOL    HW117030  14.727   4.317  10.397
 5066SOL    HW217031  14.711   4.184  10.328
 5067SOL     OW17032   2.223  10.592  14.581
 5067SOL    HW117033   2.140  10.571  14.622
 5067SOL    HW217034   2.289  10.564  14.644
 5068SOL     OW17035   2.938   4.352   3.038
 5068SOL    HW117036   2.897   4.294   2.974
 5068SOL    HW217037   3.005   4.298   3.080
 5069SOL     OW17038   9.166   1.452  11.839
 5069SOL    HW117039   9.096   1.417  11.784
 5069SOL    HW217040   9.168   1.546  11.819
 5070SOL     OW17041   5.243  13.094   9.784
 5070SOL    HW117042   5.197  13.107   9.700
 5070SOL    HW217043   5.180  13.046   9.838
 5071SOL     OW17044   0.456   0.922   8.838
 5071SOL    HW117045   0.372   0.921   8.884
 5071SOL    HW217046   0.519   0.952   8.904
 5072SOL     OW17047   3.458   1.036  10.003
 5072SOL    HW117048   3.480   1.056  10.094
 5072SOL    HW217049   3.502   0.953   9.986
 5073SOL     OW17050   6.499   3.270   0.651
 5073SOL    HW117051   6.456   3.278   0.566
 5073SOL    HW217052   6.586   3.307   0.638
 5074SOL     OW17053   7.342   9.265   7.855
 5074SOL    HW117054   7.393   9.259   7.774
 5074SOL    HW217055   7.287   9.187   7.854
 5075SOL     OW17056   0.071   7.809  12.428
 5075SOL    HW117057   0.019   7.760  12.363
 5075SOL    HW217058   0.152   7.830  12.382
 5076SOL     OW17059   0.501  13.612   9.845
 5076SOL    HW117060   0.515  13.674   9.917
 5076SOL    HW217061   0.491  13.527   9.888
 5077SOL     OW17062   5.925  13.657   5.584
 5077SOL    HW117063   5.897  13.605   5.508
 5077SOL    HW217064   5.900  13.747   5.562
 5078SOL     OW17065  12.314  12.994   8.523
 5078SOL    HW117066  12.372  12.938   8.574
 5078SOL    HW217067  12.339  13.083   8.548
 5079SOL     OW17068   5.983   4.629   9.370
 5079SOL    HW117069   5.938   4.713   9.377
 5079SOL    HW217070   5.919   4.571   9.327
 5080SOL     OW17071   8.225   7.062   6.200
 5080SOL    HW117072   8.282   7.100   6.133
 5080SOL    HW217073   8.185   7.138   6.243
 5081SOL     OW17074  11.682  10.048  13.984
 5081SOL    HW117075  11.652  10.112  13.920
 5081SOL    HW217076  11.681  10.095  14.067
 5082SOL     OW17077  14.529   1.065   0.062
 5082SOL    HW117078  14.435   1.062   0.045
 5082SOL    HW217079  14.540   1.022   0.146
 5083SOL     OW17080   9.979  12.259  12.424
 5083SOL    HW117081   9.924  12.248  12.347
 5083SOL    HW217082   9.992  12.354  12.431
 5084SOL     OW17083  14.095  10.233   8.382
 5084SOL    HW117084  14.152  10.235   8.305
 5084SOL    HW217085  14.049  10.316   8.381
 5085SOL     OW17086  14.303  10.032  14.161
 5085SOL    HW117087  14.240   9.975  14.117
 5085SOL    HW217088  14.347  10.078  14.090
 5086SOL     OW17089   5.261   0.410   8.396
 5086SOL    HW117090   5.300   0.473   8.334
 5086SOL    HW217091   5.201   0.463   8.448
 5087SOL     OW17092  10.181   7.496   4.081
 5087SOL    HW117093  10.109   7.442   4.113
 5087SOL    HW217094  10.162   7.584   4.116
 5088SOL     OW17095  13.517  13.588  13.615
 5088SOL    HW117096  13.494  13.497  13.636
 5088SOL    HW217097  13.441  13.622  13.569
 5089SOL     OW17098   2.888   5.878   3.952
 5089SOL    HW117099   2.891   5.845   3.862
 5089SOL    HW217100   2.854   5.805   4.003
 5090SOL     OW17101   3.967   9.730  14.199
 5090SOL    HW117102   3.913   9.664  14.244
 5090SOL    HW217103   3.953   9.713  14.106
 5091SOL     OW17104   6.917   9.236  12.776
 5091SOL    HW117105   6.828   9.268  12.792
 5091SOL    HW217106   6.955   9.226  12.863
 5092SOL     OW17107   6.439   0.418  12.822
 5092SOL    HW117108   6.374   0.400  12.890
 5092SOL    HW217109   6.426   0.347  12.758
 5093SOL     OW17110   0.134   4.580  13.744
 5093SOL    HW117111   0.208   4.579  13.804
 5093SOL    HW217112   0.174   4.581  13.657
 5094SOL     OW17113   6.053  12.730  10.956
 5094SOL    HW117114   6.071  12.637  10.952
 5094SOL    HW217115   6.042  12.757  10.864
 5095SOL     OW17116  10.447  12.152  10.132
 5095SOL    HW117117  10.377  12.104  10.175
 5095SOL    HW217118  10.442  12.240  10.167
 5096SOL     OW17119  13.052   8.049  13.859
 5096SOL    HW117120  13.062   8.134  13.817
 5096SOL    HW217121  12.996   8.066  13.935
 5097SOL     OW17122   6.191   3.646   2.383
 5097SOL    HW117123   6.179   3.595   2.303
 5097SOL    HW217124   6.134   3.602   2.447
 5098SOL     OW17125  13.677   7.874   5.445
 5098SOL    HW117126  13.704   7.852   5.355
 5098SOL    HW217127  13.759   7.893   5.490
 5099SOL     OW17128  14.785   3.761   1.579
 5099SOL    HW117129  14.827   3.821   1.517
 5099SOL    HW217130  14.754   3.818   1.649
 5100SOL     OW17131  12.543   8.419   0.367
 5100SOL    HW117132  12.503   8.500   0.333
 5100SOL    HW217133  12.572   8.372   0.289
 5101SOL     OW17134  12.955   1.822   9.037
 5101SOL    HW117135  12.902   1.898   9.014
 5101SOL    HW217136  12.892   1.756   9.065
 5102SOL     OW17137  12.020   8.468  13.581
 5102SOL    HW117138  12.065   8.428  13.507
 5102SOL    HW217139  12.004   8.396  13.642
 5103SOL     OW17140   1.021   8.605   2.575
 5103SOL    HW117141   0.994   8.547   2.503
 5103SOL    HW217142   0.949   8.668   2.583
 5104SOL     OW17143   1.323  10.238   2.685
 5104SOL    HW117144   1.230  10.235   2.660
 5104SOL    HW217145   1.337  10.157   2.734
 5105SOL     OW17146   7.959   1.618   3.181
 5105SOL    HW117147   7.880   1.624   3.127
 5105SOL    HW217148   7.961   1.701   3.228
 5106SOL     OW17149  10.197   2.121   1.011
 5106SOL    HW117150  10.136   2.097   0.942
 5106SOL    HW217151  10.158   2.087   1.092
 5107SOL     OW17152  14.856   3.899   0.120
 5107SOL    HW117153  14.834   3.834   0.053
 5107SOL    HW217154  14.873   3.979   0.072
 5108SOL     OW17155   7.248   5.183   4.188
 5108SOL    HW117156   7.305   5.117   4.148
 5108SOL    HW217157   7.254   5.167   4.282
 5109SOL     OW17158   5.170   2.542  12.377
 5109SOL    HW117159   5.142   2.453  12.397
 5109SOL    HW217160   5.094   2.581  12.332
 5110SOL     OW17161   0.588  14.501   3.441
 5110SOL    HW117162   0.557  14.470   3.355
 5110SOL    HW217163   0.638  14.580   3.421
 5111SOL     OW17164  14.457  11.628   3.015
 5111SOL    HW117165  14.445  11.535   3.034
 5111SOL    HW217166  14.464  11.669   3.102
 5112SOL     OW17167   8.743   1.563   3.847
 5112SOL    HW117168   8.753   1.494   3.782
 5112SOL    HW217169   8.768   1.643   3.801
 5113SOL     OW17170  13.911   9.076  12.079
 5113SOL    HW117171  13.964   9.009  12.036
 5113SOL    HW217172  13.870   9.030  12.153
 5114SOL     OW17173  10.187   9.287  13.585
 5114SOL    HW117174  10.233   9.352  13.638
 5114SOL    HW217175  10.246   9.211  13.583
 5115SOL     OW17176   8.512   1.663   7.793
 5115SOL    HW117177   8.533   1.581   7.837
 5115SOL    HW217178   8.523   1.643   7.700
 5116SOL     OW17179   4.073   7.932  10.585
 5116SOL    HW117180   4.126   8.011  10.573
 5116SOL    HW217181   4.053   7.902  10.496
 5117SOL     OW17182   7.372   2.564  11.899
 5117SOL    HW117183   7.456   2.544  11.941
 5117SOL    HW217184   7.393   2.570  11.806
 5118SOL     OW17185   8.745   5.766   4.067
 5118SOL    HW117186   8.840   5.772   4.053
 5118SOL    HW217187   8.709   5.835   4.012
 5119SOL     OW17188   6.580   4.957   1.935
 5119SOL    HW117189   6.641   4.922   1.869
 5119SOL    HW217190   6.603   4.911   2.015
 5120SOL     OW17191   2.562   2.542  10.616
 5120SOL    HW117192   2.655   2.563  10.624
 5120SOL    HW217193   2.517   2.613  10.661
 5121SOL     OW17194   1.547   2.129   9.103
 5121SOL    HW117195   1.627   2.129   9.051
 5121SOL    HW217196   1.575   2.156   9.190
 5122SOL     OW17197   7.213   6.808  10.752
 5122SOL    HW117198   7.173   6.894  10.749
 5122SOL    HW217199   7.219   6.781  10.660
 5123SOL     OW17200   5.889  14.684   7.503
 5123SOL    HW117201   5.863  14.718   7.589
 5123SOL    HW217202   5.811  14.692   7.449
 5124SOL     OW17203   2.533   1.428   8.652
 5124SOL    HW117204   2.505   1.442   8.561
 5124SOL    HW217205   2.541   1.516   8.688
 5125SOL     OW17206   5.358   3.430  12.479
 5125SOL    HW117207   5.316   3.429  12.393
 5125SOL    HW217208   5.428   3.365  12.472
 5126SOL     OW17209  12.545   7.745  11.705
 5126SOL    HW117210  12.624   7.691  11.714
 5126SOL    HW217211  12.554   7.786  11.619
 5127SOL     OW17212   8.935   1.409  11.710
 5127SOL    HW117213   8.882   1.476  11.754
 5127SOL    HW217214   8.936   1.435  11.618
 5128SOL     OW17215   9.040   1.651   5.161
 5128SOL    HW117216   9.093   1.731   5.165
 5128SOL    HW217217   8.951   1.681   5.147
 5129SOL     OW17218   3.399   3.941  10.993
 5129SOL    HW117219   3.386   3.928  10.900
 5129SOL    HW217220   3.379   4.034  11.007
 5130SOL     OW17221   8.391  11.631   3.578
 5130SOL    HW117222   8.445  11.696   3.533
 5130SOL    HW217223   8.319  11.682   3.615
 5131SOL     OW17224   3.948   1.982   1.181
 5131SOL    HW117225   3.993   2.019   1.257
 5131SOL    HW217226   3.859   1.965   1.211
 5132SOL     OW17227   1.227   5.108  12.472
 5132SOL    HW117228   1.150   5.053  12.459
 5132SOL    HW217229   1.192   5.195  12.494
 5133SOL     OW17230   9.230   2.648  11.055
 5133SOL    HW117231   9.231   2.654  11.151
 5133SOL    HW217232   9.230   2.739  11.025
 5134SOL     OW17233  12.314   7.825   3.502
 5134SOL    HW117234  12.306   7.919   3.488
 5134SOL    HW217235  12.361   7.793   3.425
 5135SOL     OW17236  11.857  12.152   5.443
 5135SOL    HW117237  11.812  12.084   5.493
 5135SOL    HW217238  11.948  12.148   5.473
 5136SOL     OW17239   3.132   6.072   0.085
 5136SOL    HW117240   3.072   6.069   0.011
 5136SOL    HW217241   3.101   6.003   0.144
 5137SOL     OW17242  11.954   3.384  11.753
 5137SOL    HW117243  11.964   3.448  11.682
 5137SOL    HW217244  11.868   3.344  11.737
 5138SOL     OW17245  11.875  12.924   9.363
 5138SOL    HW117246  11.947  12.938   9.301
 5138SOL    HW217247  11.886  12.993   9.428
 5139SOL     OW17248  12.087  13.225  12.746
 5139SOL    HW117249  12.096  13.275  12.665
 5139SOL    HW217250  12.087  13.133  12.719
 5140SOL     OW17251   0.732   0.459   3.326
 5140SOL    HW117252   0.752   0.549   3.300
 5140SOL    HW217253   0.699   0.417   3.247
 5141SOL     OW17254  10.638   3.378   9.772
 5141SOL    HW117255  10.692   3.330   9.708
 5141SOL    HW217256  10.548   3.364   9.742
 5142SOL     OW17257   2.887   2.499  14.478
 5142SOL    HW117258   2.802   2.465  14.505
 5142SOL    HW217259   2.880   2.511  14.383
 5143SOL     OW17260  12.233  10.932   4.194
 5143SOL    HW117261  12.253  10.913   4.103
 5143SOL    HW217262  12.304  10.891   4.243
 5144SOL     OW17263  13.083   6.080   4.361
 5144SOL    HW117264  13.035   6.145   4.412
 5144SOL    HW217265  13.098   6.122   4.276
 5145SOL     OW17266   7.882  11.259   3.989
 5145SOL    HW117267   7.872  11.170   3.955
 5145SOL    HW217268   7.911  11.247   4.079
 5146SOL     OW17269   6.831   9.281   6.250
 5146SOL    HW117270   6.799   9.195   6.277
 5146SOL    HW217271   6.786   9.299   6.168
 5147SOL     OW17272  10.695   1.041  10.148
 5147SOL    HW117273  10.604   1.021  10.129
 5147SOL    HW217274  10.719   0.980  10.218
 5148SOL     OW17275   6.214  11.152   0.004
 5148SOL    HW117276   6.284  11.202   0.046
 5148SOL    HW217277   6.137  11.168   0.058
 5149SOL     OW17278   2.451  13.946  12.524
 5149SOL    HW117279   2.487  13.858  12.514
 5149SOL    HW217280   2.525  14.004  12.510
 5150SOL     OW17281  13.761  13.369   9.585
 5150SOL    HW117282  13.801  13.456   9.573
 5150SOL    HW217283  13.716  13.352   9.502
 5151SOL     OW17284  10.830   3.397   2.986
 5151SOL    HW117285  10.910   3.397   2.933
 5151SOL    HW217286  10.762   3.428   2.926
 5152SOL     OW17287   6.165   4.300   6.522
 5152SOL    HW117288   6.259   4.319   6.524
 5152SOL    HW217289   6.127   4.360   6.586
 5153SOL     OW17290   4.080  13.863   6.977
 5153SOL    HW117291   4.130  13.935   6.938
 5153SOL    HW217292   4.139  13.826   7.044
 5154SOL     OW17293   9.476   9.967   8.323
 5154SOL    HW117294   9.381   9.978   8.329
 5154SOL    HW217295   9.488   9.873   8.306
 5155SOL     OW17296  13.641   4.039  10.034
 5155SOL    HW117297  13.675   3.991  10.109
 5155SOL    HW217298  13.667   3.988   9.958
 5156SOL     OW17299   6.479  10.659   7.166
 5156SOL    HW117300   6.469  10.586   7.227
 5156SOL    HW217301   6.570  10.653   7.137
 5157SOL     OW17302  11.910   1.832  10.196
 5157SOL    HW117303  11.835   1.853  10.140
 5157SOL    HW217304  11.936   1.744  10.169
 5158SOL     OW17305   8.450   1.262  12.491
 5158SOL    HW117306   8.497   1.188  12.452
 5158SOL    HW217307   8.502   1.339  12.468
 5159SOL     OW17308   0.966  10.352   6.289
 5159SOL    HW117309   1.035  10.382   6.347
 5159SOL    HW217310   0.966  10.415   6.217
 5160SOL     OW17311  11.627   8.552  11.915
 5160SOL    HW117312  11.699   8.489  11.910
 5160SOL    HW217313  11.653   8.624  11.857
 5161SOL     OW17314   8.312   4.152   9.599
 5161SOL    HW117315   8.218   4.161   9.586
 5161SOL    HW217316   8.337   4.230   9.648
 5162SOL     OW17317   5.996   7.881   3.818
 5162SOL    HW117318   6.067   7.831   3.779
 5162SOL    HW217319   5.951   7.819   3.876
 5163SOL     OW17320  11.304   9.180   7.939
 5163SOL    HW117321  11.365   9.109   7.958
 5163SOL    HW217322  11.221   9.137   7.920
 5164SOL     OW17323   3.294   3.783   2.750
 5164SOL    HW117324   3.262   3.726   2.820
 5164SOL    HW217325   3.385   3.802   2.774
 5165SOL     OW17326   2.383  14.826   1.612
 5165SOL    HW117327   2.371  14.845   1.518
 5165SOL    HW217328   2.294  14.815   1.645
 5166SOL     OW17329  11.401   4.483   8.992
 5166SOL    HW117330  11.450   4.474   8.910
 5166SOL    HW217331  11.329   4.542   8.971
 5167SOL     OW17332   9.917   7.511   1.415
 5167SOL    HW117333   9.953   7.426   1.439
 5167SOL    HW217334   9.856   7.532   1.486
 5168SOL     OW17335   3.388   1.069   0.605
 5168SOL    HW117336   3.411   1.042   0.693
 5168SOL    HW217337   3.470   1.105   0.569
 5169SOL     OW17338   0.905  12.356   7.014
 5169SOL    HW117339   0.994  12.359   6.979
 5169SOL    HW217340   0.912  12.399   7.099
 5170SOL     OW17341   9.963  11.602   8.778
 5170SOL    HW117342  10.025  11.538   8.812
 5170SOL    HW217343   9.882  11.551   8.764
 5171SOL     OW17344   4.853   7.023  10.606
 5171SOL    HW117345   4.766   7.014  10.569
 5171SOL    HW217346   4.910   6.974  10.546
 5172SOL     OW17347   8.763   7.862   3.703
 5172SOL    HW117348   8.764   7.956   3.685
 5172SOL    HW217349   8.688   7.850   3.761
 5173SOL     OW17350   6.594   7.585  12.993
 5173SOL    HW117351   6.564   7.543  12.912
 5173SOL    HW217352   6.527   7.564  13.057
 5174SOL     OW17353   2.982   8.006   2.018
 5174SOL    HW117354   2.995   8.089   2.064
 5174SOL    HW217355   2.903   8.019   1.965
 5175SOL     OW17356   0.175   7.713   9.317
 5175SOL    HW117357   0.126   7.790   9.287
 5175SOL    HW217358   0.210   7.675   9.236
 5176SOL     OW17359  10.886   7.952  14.358
 5176SOL    HW117360  10.927   8.037  14.339
 5176SOL    HW217361  10.942   7.913  14.426
 5177SOL     OW17362   9.953   2.137   6.714
 5177SOL    HW117363   9.887   2.127   6.782
 5177SOL    HW217364   9.971   2.048   6.683
 5178SOL     OW17365   3.246   5.327  13.436
 5178SOL    HW117366   3.299   5.324  13.357
 5178SOL    HW217367   3.309   5.326  13.508
 5179SOL     OW17368  10.535  10.159   1.522
 5179SOL    HW117369  10.569  10.071   1.535
 5179SOL    HW217370  10.452  10.161   1.570
 5180SOL     OW17371  11.093   8.628   3.641
 5180SOL    HW117372  11.047   8.612   3.723
 5180SOL    HW217373  11.184   8.641   3.666
 5181SOL     OW17374   6.050   1.104  10.722
 5181SOL    HW117375   5.981   1.135  10.781
 5181SOL    HW217376   6.097   1.184  10.696
 5182SOL     OW17377   9.158   9.590   2.504
 5182SOL    HW117378   9.139   9.574   2.596
 5182SOL    HW217379   9.135   9.508   2.460
 5183SOL     OW17380   0.467   4.192   6.949
 5183SOL    HW117381   0.426   4.166   6.866
 5183SOL    HW217382   0.514   4.114   6.978
 5184SOL     OW17383   1.952  10.509   4.920
 5184SOL    HW117384   1.999  10.477   4.996
 5184SOL    HW217385   2.020  10.539   4.860
 5185SOL     OW17386  14.296   2.317   1.791
 5185SOL    HW117387  14.304   2.411   1.803
 5185SOL    HW217388  14.202   2.300   1.797
 5186SOL     OW17389   6.971   9.831  14.287
 5186SOL    HW117390   6.973   9.924  14.268
 5186SOL    HW217391   6.960   9.826  14.382
 5187SOL     OW17392  13.394  13.247  14.294
 5187SOL    HW117393  13.347  13.165  14.307
 5187SOL    HW217394  13.486  13.223  14.292
 5188SOL     OW17395   6.900   8.507  11.201
 5188SOL    HW117396   6.846   8.467  11.269
 5188SOL    HW217397   6.871   8.598  11.198
 5189SOL     OW17398   6.370   9.513  14.248
 5189SOL    HW117399   6.388   9.424  14.278
 5189SOL    HW217400   6.436   9.567  14.292
 5190SOL     OW17401   3.105   7.577   8.534
 5190SOL    HW117402   3.030   7.563   8.592
 5190SOL    HW217403   3.082   7.655   8.484
 5191SOL     OW17404   0.625  14.502   1.145
 5191SOL    HW117405   0.695  14.447   1.110
 5191SOL    HW217406   0.563  14.440   1.184
 5192SOL     OW17407   3.014   1.495   2.372
 5192SOL    HW117408   2.932   1.507   2.325
 5192SOL    HW217409   3.075   1.464   2.305
 5193SOL     OW17410  13.516  12.379  10.958
 5193SOL    HW117411  13.521  12.315  11.029
 5193SOL    HW217412  13.562  12.337  10.885
 5194SOL     OW17413  11.346  14.761   1.930
 5194SOL    HW117414  11.261  14.800   1.951
 5194SOL    HW217415  11.369  14.710   2.007
 5195SOL     OW17416   1.536  12.867   9.949
 5195SOL    HW117417   1.513  12.780   9.979
 5195SOL    HW217418   1.592  12.852   9.873
 5196SOL     OW17419  13.894   6.719   5.783
 5196SOL    HW117420  13.910   6.659   5.856
 5196SOL    HW217421  13.832   6.783   5.818
 5197SOL     OW17422   8.777  10.308  13.107
 5197SOL    HW117423   8.742  10.397  13.120
 5197SOL    HW217424   8.747  10.260  13.184
 5198SOL     OW17425   9.844   1.474  13.601
 5198SOL    HW117426   9.885   1.556  13.576
 5198SOL    HW217427   9.814   1.436  13.518
 5199SOL     OW17428  13.231   8.884  11.216
 5199SOL    HW117429  13.144   8.860  11.187
 5199SOL    HW217430  13.230   8.980  11.217
 5200SOL     OW17431  11.687  14.527   8.992
 5200SOL    HW117432  11.760  14.465   8.998
 5200SOL    HW217433  11.683  14.551   8.900
 5201SOL     OW17434   4.404   9.996   1.720
 5201SOL    HW117435   4.327   9.997   1.663
 5201SOL    HW217436   4.375   9.951   1.799
 5202SOL     OW17437  13.403   6.623  13.115
 5202SOL    HW117438  13.487   6.633  13.159
 5202SOL    HW217439  13.374   6.712  13.097
 5203SOL     OW17440   7.664  11.939   7.504
 5203SOL    HW117441   7.657  12.029   7.535
 5203SOL    HW217442   7.738  11.941   7.443
 5204SOL     OW17443   5.459  12.005   2.328
 5204SOL    HW117444   5.496  11.970   2.247
 5204SOL    HW217445   5.499  11.952   2.397
 5205SOL     OW17446   3.067   7.511   1.592
 5205SOL    HW117447   3.072   7.424   1.633
 5205SOL    HW217448   3.096   7.571   1.661
 5206SOL     OW17449  12.377   0.532   4.452
 5206SOL    HW117450  12.422   0.615   4.470
 5206SOL    HW217451  12.437   0.465   4.486
 5207SOL     OW17452  14.627   2.400   9.351
 5207SOL    HW117453  14.591   2.390   9.439
 5207SOL    HW217454  14.568   2.349   9.295
 5208SOL     OW17455  10.483   2.108   5.236
 5208SOL    HW117456  10.446   2.116   5.148
 5208SOL    HW217457  10.491   2.013   5.250
 5209SOL     OW17458  13.772   2.064  13.808
 5209SOL    HW117459  13.730   2.028  13.886
 5209SOL    HW217460  13.727   2.148  13.792
 5210SOL     OW17461  12.045  13.772   5.479
 5210SOL    HW117462  12.038  13.771   5.574
 5210SOL    HW217463  12.062  13.864   5.457
 5211SOL     OW17464  12.605   4.208   7.353
 5211SOL    HW117465  12.646   4.281   7.306
 5211SOL    HW217466  12.665   4.135   7.341
 5212SOL     OW17467   8.367   5.678   5.473
 5212SOL    HW117468   8.375   5.754   5.415
 5212SOL    HW217469   8.449   5.678   5.523
 5213SOL     OW17470   4.785   3.030   0.214
 5213SOL    HW117471   4.707   3.084   0.209
 5213SOL    HW217472   4.857   3.089   0.192
 5214SOL     OW17473  13.850   2.091   9.909
 5214SOL    HW117474  13.854   1.998   9.931
 5214SOL    HW217475  13.862   2.094   9.814
 5215SOL     OW17476  11.785   7.510   5.088
 5215SOL    HW117477  11.752   7.599   5.085
 5215SOL    HW217478  11.872   7.518   5.129
 5216SOL     OW17479   6.582   9.808   1.082
 5216SOL    HW117480   6.614   9.895   1.058
 5216SOL    HW217481   6.639   9.747   1.033
 5217SOL     OW17482  14.809  13.677   3.110
 5217SOL    HW117483  14.855  13.758   3.131
 5217SOL    HW217484  14.721  13.705   3.085
 5218SOL     OW17485   7.143  10.248  14.426
 5218SOL    HW117486   7.173  10.193  14.499
 5218SOL    HW217487   7.223  10.290  14.394
 5219SOL     OW17488   3.804   1.230   7.975
 5219SOL    HW117489   3.781   1.279   7.897
 5219SOL    HW217490   3.826   1.142   7.944
 5220SOL     OW17491   0.469   2.855   8.069
 5220SOL    HW117492   0.405   2.884   8.134
 5220SOL    HW217493   0.496   2.935   8.025
 5221SOL     OW17494   5.516   3.960  11.903
 5221SOL    HW117495   5.553   3.993  11.985
 5221SOL    HW217496   5.474   3.878  11.926
 5222SOL     OW17497   6.779   4.488  12.594
 5222SOL    HW117498   6.769   4.544  12.671
 5222SOL    HW217499   6.766   4.399  12.627
 5223SOL     OW17500   7.461  11.142   6.852
 5223SOL    HW117501   7.531  11.084   6.822
 5223SOL    HW217502   7.381  11.091   6.843
 5224SOL     OW17503  11.778  10.401   3.143
 5224SOL    HW117504  11.774  10.353   3.060
 5224SOL    HW217505  11.790  10.492   3.117
 5225SOL     OW17506   6.603  11.908   7.085
 5225SOL    HW117507   6.641  11.922   6.998
 5225SOL    HW217508   6.639  11.824   7.113
 5226SOL     OW17509   6.255   1.409  13.788
 5226SOL    HW117510   6.317   1.364  13.846
 5226SOL    HW217511   6.170   1.399  13.831
 5227SOL     OW17512  11.852  14.179  14.818
 5227SOL    HW117513  11.798  14.250  14.782
 5227SOL    HW217514  11.795  14.103  14.818
 5228SOL     OW17515   0.609   6.105  13.465
 5228SOL    HW117516   0.592   6.075  13.555
 5228SOL    HW217517   0.614   6.200  13.472
 5229SOL     OW17518   6.068  11.375   8.512
 5229SOL    HW117519   5.984  11.374   8.467
 5229SOL    HW217520   6.082  11.285   8.540
 5230SOL     OW17521   5.809  12.089  14.322
 5230SOL    HW117522   5.781  12.066  14.411
 5230SOL    HW217523   5.728  12.115  14.278
 5231SOL     OW17524   8.146   0.430   6.828
 5231SOL    HW117525   8.111   0.512   6.863
 5231SOL    HW217526   8.241   0.446   6.823
 5232SOL     OW17527   3.456  12.346  11.476
 5232SOL    HW117528   3.367  12.348  11.440
 5232SOL    HW217529   3.506  12.403  11.417
 5233SOL     OW17530  12.528   2.904  12.211
 5233SOL    HW117531  12.477   2.952  12.277
 5233SOL    HW217532  12.476   2.909  12.131
 5234SOL     OW17533   6.649   7.223  14.453
 5234SOL    HW117534   6.701   7.156  14.497
 5234SOL    HW217535   6.564   7.181  14.436
 5235SOL     OW17536   3.964  13.304  10.262
 5235SOL    HW117537   4.017  13.228  10.287
 5235SOL    HW217538   3.929  13.337  10.345
 5236SOL     OW17539   5.762   9.556  13.453
 5236SOL    HW117540   5.697   9.485  13.454
 5236SOL    HW217541   5.846   9.511  13.443
 5237SOL     OW17542   1.258   4.739  10.469
 5237SOL    HW117543   1.212   4.668  10.424
 5237SOL    HW217544   1.326   4.695  10.520
 5238SOL     OW17545  12.446  10.125  12.931
 5238SOL    HW117546  12.519  10.065  12.918
 5238SOL    HW217547  12.455  10.155  13.021
 5239SOL     OW17548   1.205   7.052   3.342
 5239SOL    HW117549   1.149   7.075   3.416
 5239SOL    HW217550   1.291   7.035   3.382
 5240SOL     OW17551   7.659   3.598  11.208
 5240SOL    HW117552   7.623   3.682  11.234
 5240SOL    HW217553   7.705   3.567  11.287
 5241SOL     OW17554   4.040  10.101   4.768
 5241SOL    HW117555   4.025  10.077   4.859
 5241SOL    HW217556   3.954  10.130   4.737
 5242SOL     OW17557  10.423   8.046  11.906
 5242SOL    HW117558  10.363   8.024  11.834
 5242SOL    HW217559  10.401   7.983  11.975
 5243SOL     OW17560   5.233   6.864  13.109
 5243SOL    HW117561   5.312   6.836  13.063
 5243SOL    HW217562   5.192   6.783  13.138
 5244SOL     OW17563  11.398   8.184   7.057
 5244SOL    HW117564  11.390   8.111   6.995
 5244SOL    HW217565  11.334   8.166   7.125
 5245SOL     OW17566   7.228   3.319   2.829
 5245SOL    HW117567   7.231   3.260   2.754
 5245SOL    HW217568   7.307   3.298   2.880
 5246SOL     OW17569  13.879   4.280   7.858
 5246SOL    HW117570  13.895   4.196   7.901
 5246SOL    HW217571  13.884   4.344   7.929
 5247SOL     OW17572   3.996  12.982  10.764
 5247SOL    HW117573   4.061  13.047  10.787
 5247SOL    HW217574   3.955  12.958  10.847
 5248SOL     OW17575   0.899  11.642   2.480
 5248SOL    HW117576   0.938  11.725   2.453
 5248SOL    HW217577   0.893  11.590   2.400
 5249SOL     OW17578   7.303  13.783  14.566
 5249SOL    HW117579   7.356  13.804  14.642
 5249SOL    HW217580   7.213  13.786  14.598
 5250SOL     OW17581   8.913  11.525  14.233
 5250SOL    HW117582   8.970  11.448  14.240
 5250SOL    HW217583   8.968  11.598  14.260
 5251SOL     OW17584  13.135  12.828   7.288
 5251SOL    HW117585  13.192  12.903   7.268
 5251SOL    HW217586  13.145  12.770   7.213
 5252SOL     OW17587   5.556   5.160   3.346
 5252SOL    HW117588   5.485   5.161   3.410
 5252SOL    HW217589   5.611   5.234   3.370
 5253SOL     OW17590   9.643  14.511   2.417
 5253SOL    HW117591   9.706  14.515   2.489
 5253SOL    HW217592   9.619  14.602   2.401
 5254SOL     OW17593   2.150  12.295   3.282
 5254SOL    HW117594   2.154  12.333   3.194
 5254SOL    HW217595   2.108  12.363   3.336
 5255SOL     OW17596   0.822  13.975   2.049
 5255SOL    HW117597   0.743  13.955   1.998
 5255SOL    HW217598   0.848  13.891   2.086
 5256SOL     OW17599  10.713   7.580   9.525
 5256SOL    HW117600  10.680   7.643   9.461
 5256SOL    HW217601  10.685   7.614   9.610
 5257SOL     OW17602   1.964   3.388   4.084
 5257SOL    HW117603   1.903   3.398   4.157
 5257SOL    HW217604   1.961   3.295   4.063
 5258SOL     OW17605   9.412  11.020   8.117
 5258SOL    HW117606   9.341  10.970   8.078
 5258SOL    HW217607   9.491  10.990   8.072
 5259SOL     OW17608   6.900  14.218  10.003
 5259SOL    HW117609   6.842  14.213   9.927
 5259SOL    HW217610   6.955  14.140   9.996
 5260SOL     OW17611   8.456  10.082  14.034
 5260SOL    HW117612   8.394  10.054  13.967
 5260SOL    HW217613   8.542  10.064  13.997
 5261SOL     OW17614   2.825   8.050   6.039
 5261SOL    HW117615   2.913   8.064   6.003
 5261SOL    HW217616   2.768   8.096   5.977
 5262SOL     OW17617  10.035   9.786  10.243
 5262SOL    HW117618  10.080   9.769  10.326
 5262SOL    HW217619   9.976   9.859  10.262
 5263SOL     OW17620   5.402   4.442   9.296
 5263SOL    HW117621   5.320   4.485   9.318
 5263SOL    HW217622   5.469   4.509   9.312
 5264SOL     OW17623  11.447   1.408   0.825
 5264SOL    HW117624  11.415   1.367   0.905
 5264SOL    HW217625  11.535   1.438   0.847
 5265SOL     OW17626  11.401   9.846   3.645
 5265SOL    HW117627  11.427   9.929   3.605
 5265SOL    HW217628  11.319   9.823   3.601
 5266SOL     OW17629   9.589  10.957   7.525
 5266SOL    HW117630   9.588  10.866   7.554
 5266SOL    HW217631   9.594  10.952   7.429
 5267SOL     OW17632  10.446   0.587   1.859
 5267SOL    HW117633  10.409   0.580   1.947
 5267SOL    HW217634  10.541   0.576   1.872
 5268SOL     OW17635   8.998   2.268   3.705
 5268SOL    HW117636   8.910   2.264   3.741
 5268SOL    HW217637   8.992   2.221   3.622
 5269SOL     OW17638   7.115   5.876   0.174
 5269SOL    HW117639   7.149   5.810   0.235
 5269SOL    HW217640   7.028   5.898   0.208
 5270SOL     OW17641  10.040   8.760   3.366
 5270SOL    HW117642  10.105   8.707   3.412
 5270SOL    HW217643   9.957   8.738   3.408
 5271SOL     OW17644  13.655   0.280   8.130
 5271SOL    HW117645  13.627   0.190   8.113
 5271SOL    HW217646  13.723   0.296   8.064
 5272SOL     OW17647   4.860  13.178  13.327
 5272SOL    HW117648   4.909  13.232  13.265
 5272SOL    HW217649   4.801  13.126  13.272
 5273SOL     OW17650   8.864   6.238  13.294
 5273SOL    HW117651   8.885   6.327  13.265
 5273SOL    HW217652   8.873   6.185  13.215
 5274SOL     OW17653   4.635   7.301   4.447
 5274SOL    HW117654   4.664   7.379   4.400
 5274SOL    HW217655   4.684   7.229   4.406
 5275SOL     OW17656  10.932   5.250   0.180
 5275SOL    HW117657  10.881   5.264   0.260
 5275SOL    HW217658  10.888   5.178   0.136
 5276SOL     OW17659   9.205   9.471   0.341
 5276SOL    HW117660   9.210   9.426   0.425
 5276SOL    HW217661   9.288   9.516   0.333
 5277SOL     OW17662   1.543  11.456   4.402
 5277SOL    HW117663   1.461  11.504   4.401
 5277SOL    HW217664   1.517  11.364   4.404
 5278SOL     OW17665   8.544   1.212  11.899
 5278SOL    HW117666   8.606   1.234  11.830
 5278SOL    HW217667   8.504   1.295  11.923
 5279SOL     OW17668   2.571   7.373  13.466
 5279SOL    HW117669   2.644   7.433  13.480
 5279SOL    HW217670   2.597   7.292  13.510
 5280SOL     OW17671   2.462   6.428  12.183
 5280SOL    HW117672   2.382   6.379  12.165
 5280SOL    HW217673   2.442   6.476  12.263
 5281SOL     OW17674  10.151  11.192   5.131
 5281SOL    HW117675  10.199  11.146   5.200
 5281SOL    HW217676  10.136  11.280   5.167
 5282SOL     OW17677   4.543   1.264   9.277
 5282SOL    HW117678   4.613   1.250   9.213
 5282SOL    HW217679   4.553   1.355   9.304
 5283SOL     OW17680   9.801   4.794   6.253
 5283SOL    HW117681   9.817   4.715   6.304
 5283SOL    HW217682   9.877   4.850   6.271
 5284SOL     OW17683   4.083   3.578   9.802
 5284SOL    HW117684   4.107   3.555   9.892
 5284SOL    HW217685   4.089   3.674   9.799
 5285SOL     OW17686  13.109   9.331  14.125
 5285SOL    HW117687  13.080   9.240  14.110
 5285SOL    HW217688  13.182   9.343  14.064
 5286SOL     OW17689  12.218   6.280   9.142
 5286SOL    HW117690  12.207   6.367   9.180
 5286SOL    HW217691  12.312   6.264   9.146
 5287SOL     OW17692  10.262   7.137   8.529
 5287SOL    HW117693  10.336   7.085   8.497
 5287SOL    HW217694  10.209   7.154   8.451
 5288SOL     OW17695  14.025   2.060   9.644
 5288SOL    HW117696  14.080   1.989   9.677
 5288SOL    HW217697  13.981   2.023   9.568
 5289SOL     OW17698   5.646  12.855   4.243
 5289SOL    HW117699   5.714  12.793   4.215
 5289SOL    HW217700   5.686  12.941   4.231
 5290SOL     OW17701  11.082  11.602   7.535
 5290SOL    HW117702  11.011  11.666   7.524
 5290SOL    HW217703  11.130  11.606   7.452
 5291SOL     OW17704   2.727  10.520   0.747
 5291SOL    HW117705   2.775  10.440   0.767
 5291SOL    HW217706   2.750  10.581   0.817
 5292SOL     OW17707  11.787   8.823   1.055
 5292SOL    HW117708  11.784   8.915   1.084
 5292SOL    HW217709  11.872   8.791   1.083
 5293SOL     OW17710  14.867   3.341   4.114
 5293SOL    HW117711   0.032   3.270   4.065
 5293SOL    HW217712  14.774   3.336   4.090
 5294SOL     OW17713  11.974   3.981  10.705
 5294SOL    HW117714  11.932   3.957  10.622
 5294SOL    HW217715  12.017   4.065  10.687
 5295SOL     OW17716   4.488   2.507   8.745
 5295SOL    HW117717   4.506   2.523   8.652
 5295SOL    HW217718   4.484   2.411   8.752
 5296SOL     OW17719   6.837   5.867  11.743
 5296SOL    HW117720   6.794   5.827  11.818
 5296SOL    HW217721   6.769   5.920  11.701
 5297SOL     OW17722   5.522   9.706   2.238
 5297SOL    HW117723   5.572   9.725   2.317
 5297SOL    HW217724   5.488   9.617   2.251
 5298SOL     OW17725   6.712  14.726  13.443
 5298SOL    HW117726   6.703  14.761  13.531
 5298SOL    HW217727   6.625  14.693  13.421
 5299SOL     OW17728  14.840   8.486   7.135
 5299SOL    HW117729  14.796   8.404   7.112
 5299SOL    HW217730  14.831   8.493   7.230
 5300SOL     OW17731  10.241   4.798   9.039
 5300SOL    HW117732  10.227   4.839   8.954
 5300SOL    HW217733  10.335   4.806   9.054
 5301SOL     OW17734   3.359   8.465   2.455
 5301SOL    HW117735   3.399   8.386   2.417
 5301SOL    HW217736   3.266   8.442   2.465
 5302SOL     OW17737  13.921  14.327   7.566
 5302SOL    HW117738  13.910  14.422   7.566
 5302SOL    HW217739  13.912  14.302   7.474
 5303SOL     OW17740   7.894   4.864   2.293
 5303SOL    HW117741   7.820   4.808   2.318
 5303SOL    HW217742   7.967   4.831   2.344
 5304SOL     OW17743   8.666   3.005   7.970
 5304SOL    HW117744   8.700   3.062   7.901
 5304SOL    HW217745   8.722   3.024   8.046
 5305SOL     OW17746   9.645   8.040   3.369
 5305SOL    HW117747   9.576   7.994   3.417
 5305SOL    HW217748   9.659   8.121   3.419
 5306SOL     OW17749  14.629   3.182   6.955
 5306SOL    HW117750  14.642   3.087   6.957
 5306SOL    HW217751  14.681   3.214   7.028
 5307SOL     OW17752   7.481   5.438   2.361
 5307SOL    HW117753   7.543   5.488   2.308
 5307SOL    HW217754   7.402   5.432   2.307
 5308SOL     OW17755  12.228   6.831  10.792
 5308SOL    HW117756  12.309   6.779  10.790
 5308SOL    HW217757  12.239   6.896  10.723
 5309SOL     OW17758   5.246   8.639   3.929
 5309SOL    HW117759   5.235   8.646   4.024
 5309SOL    HW217760   5.326   8.588   3.919
 5310SOL     OW17761  12.452   1.328  13.982
 5310SOL    HW117762  12.442   1.236  14.005
 5310SOL    HW217763  12.376   1.371  14.021
 5311SOL     OW17764   3.440   5.050   5.634
 5311SOL    HW117765   3.536   5.043   5.630
 5311SOL    HW217766   3.423   5.103   5.712
 5312SOL     OW17767   6.554   8.762   2.051
 5312SOL    HW117768   6.493   8.789   2.119
 5312SOL    HW217769   6.630   8.819   2.063
 5313SOL     OW17770   0.651   7.510  10.295
 5313SOL    HW117771   0.613   7.459  10.223
 5313SOL    HW217772   0.579   7.518  10.358
 5314SOL     OW17773   2.447   4.861  11.016
 5314SOL    HW117774   2.446   4.877  10.921
 5314SOL    HW217775   2.529   4.900  11.045
 5315SOL     OW17776   4.748   7.846   6.829
 5315SOL    HW117777   4.841   7.867   6.836
 5315SOL    HW217778   4.705   7.904   6.892
 5316SOL     OW17779   5.978  11.912   6.584
 5316SOL    HW117780   6.053  11.960   6.549
 5316SOL    HW217781   6.012  11.866   6.660
 5317SOL     OW17782   3.981  10.397  14.633
 5317SOL    HW117783   3.978  10.304  14.611
 5317SOL    HW217784   3.891  10.419  14.656
 5318SOL     OW17785   1.310  12.908   9.078
 5318SOL    HW117786   1.382  12.847   9.065
 5318SOL    HW217787   1.351  12.994   9.075
 5319SOL     OW17788  13.476  13.826  10.284
 5319SOL    HW117789  13.568  13.850  10.274
 5319SOL    HW217790  13.477  13.742  10.329
 5320SOL     OW17791   5.475   9.479   7.618
 5320SOL    HW117792   5.566   9.450   7.615
 5320SOL    HW217793   5.424   9.398   7.615
 5321SOL     OW17794  12.633   6.835   6.249
 5321SOL    HW117795  12.679   6.785   6.316
 5321SOL    HW217796  12.701   6.888   6.207
 5322SOL     OW17797   3.323  10.211   9.342
 5322SOL    HW117798   3.241  10.163   9.332
 5322SOL    HW217799   3.384  10.166   9.284
 5323SOL     OW17800   9.734   0.190   7.291
 5323SOL    HW117801   9.747   0.097   7.274
 5323SOL    HW217802   9.647   0.210   7.257
 5324SOL     OW17803   3.179   7.839  11.011
 5324SOL    HW117804   3.246   7.831  10.944
 5324SOL    HW217805   3.097   7.820  10.965
 5325SOL     OW17806  11.747   5.288   3.656
 5325SOL    HW117807  11.791   5.320   3.577
 5325SOL    HW217808  11.745   5.193   3.647
 5326SOL     OW17809   3.851   0.062   3.108
 5326SOL    HW117810   3.901  14.859   3.087
 5326SOL    HW217811   3.876   0.125   3.041
 5327SOL     OW17812   4.525   7.062   5.508
 5327SOL    HW117813   4.574   7.043   5.429
 5327SOL    HW217814   4.573   7.133   5.551
 5328SOL     OW17815   0.421   8.777   2.437
 5328SOL    HW117816   0.356   8.847   2.441
 5328SOL    HW217817   0.441   8.769   2.344
 5329SOL     OW17818   2.024   1.166  13.508
 5329SOL    HW117819   1.957   1.133  13.568
 5329SOL    HW217820   2.046   1.091  13.453
 5330SOL     OW17821   5.045   5.240   3.524
 5330SOL    HW117822   4.995   5.263   3.602
 5330SOL    HW217823   5.083   5.154   3.544
 5331SOL     OW17824   3.157   4.003  14.105
 5331SOL    HW117825   3.109   4.084  14.087
 5331SOL    HW217826   3.091   3.934  14.093
 5332SOL     OW17827  12.180  13.464   9.683
 5332SOL    HW117828  12.104  13.444   9.737
 5332SOL    HW217829  12.208  13.551   9.712
 5333SOL     OW17830   8.185   6.315   1.592
 5333SOL    HW117831   8.115   6.298   1.529
 5333SOL    HW217832   8.215   6.404   1.572
 5334SOL     OW17833  12.538   1.121   2.306
 5334SOL    HW117834  12.603   1.189   2.324
 5334SOL    HW217835  12.509   1.139   2.217
 5335SOL     OW17836   7.046   6.087   2.395
 5335SOL    HW117837   6.983   6.019   2.371
 5335SOL    HW217838   7.130   6.042   2.398
 5336SOL     OW17839   8.815  10.363  10.432
 5336SOL    HW117840   8.834  10.424  10.503
 5336SOL    HW217841   8.719  10.352  10.434
 5337SOL     OW17842   2.691  13.995  13.909
 5337SOL    HW117843   2.671  14.084  13.880
 5337SOL    HW217844   2.632  13.979  13.982
 5338SOL     OW17845  13.313  14.293  13.439
 5338SOL    HW117846  13.397  14.293  13.486
 5338SOL    HW217847  13.298  14.384  13.416
 5339SOL     OW17848   2.850  12.333   8.622
 5339SOL    HW117849   2.883  12.247   8.596
 5339SOL    HW217850   2.792  12.314   8.696
 5340SOL     OW17851   2.330   5.270   5.066
 5340SOL    HW117852   2.349   5.293   5.157
 5340SOL    HW217853   2.251   5.217   5.070
 5341SOL     OW17854  12.637  14.604   5.498
 5341SOL    HW117855  12.653  14.510   5.498
 5341SOL    HW217856  12.700  14.639   5.435
 5342SOL     OW17857   4.896   1.746   3.050
 5342SOL    HW117858   4.905   1.686   2.976
 5342SOL    HW217859   4.815   1.718   3.094
 5343SOL     OW17860   8.525  12.672   3.172
 5343SOL    HW117861   8.475  12.602   3.129
 5343SOL    HW217862   8.616  12.655   3.148
 5344SOL     OW17863  12.071   6.293  13.842
 5344SOL    HW117864  12.092   6.298  13.936
 5344SOL    HW217865  12.028   6.208  13.832
 5345SOL     OW17866   5.235   9.027   7.112
 5345SOL    HW117867   5.200   8.955   7.060
 5345SOL    HW217868   5.321   8.996   7.141
 5346SOL     OW17869   1.687   4.752   1.010
 5346SOL    HW117870   1.750   4.727   0.943
 5346SOL    HW217871   1.603   4.717   0.979
 5347SOL     OW17872   2.266  13.793  10.269
 5347SOL    HW117873   2.204  13.836  10.210
 5347SOL    HW217874   2.231  13.704  10.280
 5348SOL     OW17875  14.380  14.267   7.629
 5348SOL    HW117876  14.364  14.259   7.723
 5348SOL    HW217877  14.398  14.361   7.616
 5349SOL     OW17878   9.070  10.767  13.776
 5349SOL    HW117879   9.111  10.831  13.718
 5349SOL    HW217880   8.994  10.814  13.812
 5350SOL     OW17881  12.668  10.089   3.909
 5350SOL    HW117882  12.615  10.048   3.840
 5350SOL    HW217883  12.744  10.124   3.862
 5351SOL     OW17884   5.696  14.298  10.532
 5351SOL    HW117885   5.729  14.219  10.576
 5351SOL    HW217886   5.745  14.301  10.449
 5352SOL     OW17887  13.053   6.332   4.886
 5352SOL    HW117888  13.013   6.405   4.838
 5352SOL    HW217889  13.067   6.367   4.974
 5353SOL     OW17890   4.289  10.850  11.822
 5353SOL    HW117891   4.316  10.879  11.909
 5353SOL    HW217892   4.265  10.758  11.835
 5354SOL     OW17893  13.013  11.614  12.389
 5354SOL    HW117894  12.995  11.523  12.363
 5354SOL    HW217895  12.953  11.631  12.460
 5355SOL     OW17896  13.379  14.532  11.006
 5355SOL    HW117897  13.364  14.622  10.977
 5355SOL    HW217898  13.390  14.538  11.100
 5356SOL     OW17899   3.216  11.166   0.432
 5356SOL    HW117900   3.175  11.080   0.423
 5356SOL    HW217901   3.238  11.192   0.343
 5357SOL     OW17902   2.042   1.014   8.792
 5357SOL    HW117903   2.044   0.919   8.798
 5357SOL    HW217904   2.085   1.034   8.708
 5358SOL     OW17905   8.096   3.778  12.234
 5358SOL    HW117906   8.052   3.853  12.195
 5358SOL    HW217907   8.189   3.793  12.218
 5359SOL     OW17908   8.705   5.994  13.211
 5359SOL    HW117909   8.720   5.901  13.194
 5359SOL    HW217910   8.774   6.039  13.161
 5360SOL     OW17911  13.366  13.629  13.983
 5360SOL    HW117912  13.271  13.625  13.999
 5360SOL    HW217913  13.376  13.697  13.917
 5361SOL     OW17914   0.952  10.493   6.652
 5361SOL    HW117915   0.977  10.404   6.626
 5361SOL    HW217916   0.977  10.499   6.745
 5362SOL     OW17917  14.065   4.291  12.878
 5362SOL    HW117918  14.029   4.222  12.822
 5362SOL    HW217919  14.064   4.254  12.966
 5363SOL     OW17920   3.316   8.573  12.442
 5363SOL    HW117921   3.238   8.518  12.438
 5363SOL    HW217922   3.389   8.515  12.418
 5364SOL     OW17923   9.553  11.508   3.520
 5364SOL    HW117924   9.643  11.542   3.520
 5364SOL    HW217925   9.562  11.417   3.493
 5365SOL     OW17926   0.595   8.680   2.898
 5365SOL    HW117927   0.542   8.754   2.871
 5365SOL    HW217928   0.551   8.603   2.861
 5366SOL     OW17929   9.767   7.981   6.925
 5366SOL    HW117930   9.760   7.991   7.020
 5366SOL    HW217931   9.716   8.054   6.889
 5367SOL     OW17932  12.036   7.927  11.645
 5367SOL    HW117933  11.965   7.991  11.646
 5367SOL    HW217934  12.103   7.965  11.588
 5368SOL     OW17935  14.777   3.785   0.720
 5368SOL    HW117936  14.802   3.848   0.652
 5368SOL    HW217937  14.815   3.821   0.800
 5369SOL     OW17938   7.514   3.858   0.720
 5369SOL    HW117939   7.579   3.847   0.789
 5369SOL    HW217940   7.487   3.769   0.698
 5370SOL     OW17941  13.214  12.704  12.519
 5370SOL    HW117942  13.129  12.671  12.549
 5370SOL    HW217943  13.216  12.795  12.547
 5371SOL     OW17944   9.185  12.234   3.895
 5371SOL    HW117945   9.147  12.285   3.824
 5371SOL    HW217946   9.137  12.262   3.974
 5372SOL     OW17947   8.267   7.227  11.763
 5372SOL    HW117948   8.308   7.141  11.762
 5372SOL    HW217949   8.337   7.288  11.743
 5373SOL     OW17950   6.960   8.355   9.439
 5373SOL    HW117951   6.891   8.369   9.375
 5373SOL    HW217952   6.941   8.415   9.511
 5374SOL     OW17953  11.639  14.154   5.493
 5374SOL    HW117954  11.597  14.124   5.413
 5374SOL    HW217955  11.631  14.081   5.554
 5375SOL     OW17956   3.144  10.535   7.824
 5375SOL    HW117957   3.139  10.468   7.756
 5375SOL    HW217958   3.091  10.500   7.896
 5376SOL     OW17959   4.016   8.693  13.832
 5376SOL    HW117960   4.021   8.598  13.840
 5376SOL    HW217961   4.046   8.712  13.743
 5377SOL     OW17962   8.684   7.951  10.643
 5377SOL    HW117963   8.729   7.927  10.562
 5377SOL    HW217964   8.611   7.888  10.650
 5378SOL     OW17965  10.347   7.177   1.817
 5378SOL    HW117966  10.306   7.147   1.736
 5378SOL    HW217967  10.371   7.096   1.863
 5379SOL     OW17968   8.952   8.655   4.573
 5379SOL    HW117969   9.021   8.717   4.595
 5379SOL    HW217970   8.921   8.685   4.487
 5380SOL     OW17971   4.280   3.504   2.673
 5380SOL    HW117972   4.336   3.454   2.614
 5380SOL    HW217973   4.333   3.518   2.751
 5381SOL     OW17974   3.304   0.821   8.852
 5381SOL    HW117975   3.291   0.898   8.907
 5381SOL    HW217976   3.254   0.840   8.772
 5382SOL     OW17977  10.106   4.910   2.052
 5382SOL    HW117978  10.176   4.895   1.988
 5382SOL    HW217979  10.056   4.984   2.015
 5383SOL     OW17980   6.792   8.355  13.249
 5383SOL    HW117981   6.758   8.319  13.331
 5383SOL    HW217982   6.782   8.450  13.258
 5384SOL     OW17983   6.448   1.137   6.537
 5384SOL    HW117984   6.435   1.193   6.614
 5384SOL    HW217985   6.483   1.197   6.470
 5385SOL     OW17986  12.369   6.471  12.290
 5385SOL    HW117987  12.446   6.435  12.334
 5385SOL    HW217988  12.300   6.407  12.308
 5386SOL     OW17989   9.931   4.428  12.054
 5386SOL    HW117990   9.885   4.421  11.970
 5386SOL    HW217991   9.994   4.357  12.053
 5387SOL     OW17992   0.204   4.396  14.759
 5387SOL    HW117993   0.286   4.349  14.774
 5387SOL    HW217994   0.174   4.421  14.846
 5388SOL     OW17995  14.330   3.224   4.050
 5388SOL    HW117996  14.274   3.279   4.105
 5388SOL    HW217997  14.270   3.185   3.987
 5389SOL     OW17998   7.184   2.575   3.266
 5389SOL    HW117999   7.255   2.631   3.234
 5389SOL    HW218000   7.117   2.637   3.296
 5390SOL     OW18001  10.512  11.368   6.058
 5390SOL    HW118002  10.416  11.365   6.060
 5390SOL    HW218003  10.540  11.282   6.089
 5391SOL     OW18004  13.426  11.566   5.169
 5391SOL    HW118005  13.365  11.498   5.196
 5391SOL    HW218006  13.507  11.519   5.148
 5392SOL     OW18007   8.117   1.966   4.474
 5392SOL    HW118008   8.078   2.050   4.498
 5392SOL    HW218009   8.073   1.902   4.530
 5393SOL     OW18010   2.934   3.433   6.410
 5393SOL    HW118011   2.899   3.445   6.322
 5393SOL    HW218012   3.001   3.365   6.400
 5394SOL     OW18013   1.851  12.225   4.888
 5394SOL    HW118014   1.816  12.298   4.837
 5394SOL    HW218015   1.820  12.241   4.977
 5395SOL     OW18016  11.691   8.698   3.636
 5395SOL    HW118017  11.722   8.609   3.655
 5395SOL    HW218018  11.695   8.705   3.540
 5396SOL     OW18019   3.110  11.789   7.247
 5396SOL    HW118020   3.144  11.869   7.205
 5396SOL    HW218021   3.092  11.730   7.174
 5397SOL     OW18022   6.321   3.091   4.514
 5397SOL    HW118023   6.298   3.161   4.452
 5397SOL    HW218024   6.302   3.128   4.600
 5398SOL     OW18025   3.470  10.648  10.071
 5398SOL    HW118026   3.405  10.579  10.077
 5398SOL    HW218027   3.458  10.685   9.984
 5399SOL     OW18028   9.931  13.442   9.056
 5399SOL    HW118029   9.880  13.491   9.120
 5399SOL    HW218030   9.870  13.376   9.022
 5400SOL     OW18031   4.225   0.108   1.363
 5400SOL    HW118032   4.250   0.147   1.280
 5400SOL    HW218033   4.130   0.100   1.358
 5401SOL     OW18034  13.439  13.387   9.466
 5401SOL    HW118035  13.456  13.344   9.550
 5401SOL    HW218036  13.377  13.329   9.422
 5402SOL     OW18037   6.373   8.599   3.779
 5402SOL    HW118038   6.303   8.553   3.732
 5402SOL    HW218039   6.387   8.546   3.857
 5403SOL     OW18040   0.706   3.079   3.363
 5403SOL    HW118041   0.785   3.112   3.321
 5403SOL    HW218042   0.735   3.005   3.416
 5404SOL     OW18043   4.824   5.240   4.463
 5404SOL    HW118044   4.790   5.177   4.527
 5404SOL    HW218045   4.851   5.187   4.389
 5405SOL     OW18046   1.450   3.355  10.653
 5405SOL    HW118047   1.395   3.324  10.581
 5405SOL    HW218048   1.417   3.308  10.730
 5406SOL     OW18049  10.280  14.004  14.446
 5406SOL    HW118050  10.285  13.933  14.510
 5406SOL    HW218051  10.200  13.986  14.397
 5407SOL     OW18052  14.270   2.546   5.495
 5407SOL    HW118053  14.215   2.591   5.559
 5407SOL    HW218054  14.213   2.477   5.460
 5408SOL     OW18055   1.817   2.267   8.579
 5408SOL    HW118056   1.856   2.196   8.630
 5408SOL    HW218057   1.727   2.237   8.562
 5409SOL     OW18058  14.081   4.224   7.203
 5409SOL    HW118059  14.025   4.241   7.127
 5409SOL    HW218060  14.027   4.252   7.278
 5410SOL     OW18061   4.824   2.828   0.649
 5410SOL    HW118062   4.751   2.775   0.619
 5410SOL    HW218063   4.814   2.912   0.604
 5411SOL     OW18064   1.766   8.567  10.155
 5411SOL    HW118065   1.697   8.621  10.117
 5411SOL    HW218066   1.831   8.559  10.086
 5412SOL     OW18067  12.162   2.345   5.522
 5412SOL    HW118068  12.086   2.370   5.575
 5412SOL    HW218069  12.185   2.425   5.475
 5413SOL     OW18070   5.615   0.990   5.176
 5413SOL    HW118071   5.697   0.952   5.144
 5413SOL    HW218072   5.640   1.074   5.214
 5414SOL     OW18073   8.969   9.656   3.971
 5414SOL    HW118074   9.030   9.606   4.025
 5414SOL    HW218075   8.897   9.678   4.031
 5415SOL     OW18076  12.027   4.420   9.332
 5415SOL    HW118077  11.939   4.437   9.367
 5415SOL    HW218078  12.042   4.327   9.349
 5416SOL     OW18079  14.649   9.540  11.661
 5416SOL    HW118080  14.606   9.614  11.619
 5416SOL    HW218081  14.671   9.481  11.589
 5417SOL     OW18082   0.900   3.121  12.142
 5417SOL    HW118083   0.856   3.163  12.069
 5417SOL    HW218084   0.830   3.103  12.205
 5418SOL     OW18085   0.229  11.628   7.876
 5418SOL    HW118086   0.308  11.605   7.828
 5418SOL    HW218087   0.215  11.554   7.936
 5419SOL     OW18088   3.931   6.332  14.134
 5419SOL    HW118089   3.920   6.272  14.060
 5419SOL    HW218090   4.010   6.381  14.113
 5420SOL     OW18091   9.256  13.006  10.347
 5420SOL    HW118092   9.290  13.079  10.296
 5420SOL    HW218093   9.214  12.950  10.282
 5421SOL     OW18094   2.569   8.215   9.197
 5421SOL    HW118095   2.579   8.122   9.180
 5421SOL    HW218096   2.559   8.254   9.110
 5422SOL     OW18097  13.379  11.620   2.885
 5422SOL    HW118098  13.335  11.540   2.912
 5422SOL    HW218099  13.347  11.636   2.796
 5423SOL     OW18100   0.364  11.877  12.582
 5423SOL    HW118101   0.297  11.910  12.641
 5423SOL    HW218102   0.428  11.833  12.639
 5424SOL     OW18103   5.189   0.271  13.974
 5424SOL    HW118104   5.199   0.202  14.040
 5424SOL    HW218105   5.156   0.346  14.022
 5425SOL     OW18106   2.693   4.255   1.601
 5425SOL    HW118107   2.725   4.318   1.665
 5425SOL    HW218108   2.771   4.223   1.556
 5426SOL     OW18109   3.724   2.738   1.937
 5426SOL    HW118110   3.693   2.656   1.976
 5426SOL    HW218111   3.743   2.794   2.012
 5427SOL     OW18112  13.256  12.579  10.380
 5427SOL    HW118113  13.179  12.635  10.389
 5427SOL    HW218114  13.315  12.629  10.322
 5428SOL     OW18115   2.188  13.023   3.521
 5428SOL    HW118116   2.172  13.007   3.614
 5428SOL    HW218117   2.103  13.008   3.480
 5429SOL     OW18118   2.966   2.199  11.497
 5429SOL    HW118119   2.977   2.168  11.586
 5429SOL    HW218120   2.937   2.122  11.448
 5430SOL     OW18121   4.344  13.073  11.013
 5430SOL    HW118122   4.361  13.093  10.921
 5430SOL    HW218123   4.249  13.065  11.018
 5431SOL     OW18124   1.582   1.731   9.590
 5431SOL    HW118125   1.621   1.760   9.508
 5431SOL    HW218126   1.644   1.759   9.657
 5432SOL     OW18127  12.109   3.297   1.338
 5432SOL    HW118128  12.078   3.377   1.295
 5432SOL    HW218129  12.204   3.304   1.335
 5433SOL     OW18130   5.420   9.554   7.296
 5433SOL    HW118131   5.478   9.479   7.309
 5433SOL    HW218132   5.474   9.630   7.316
 5434SOL     OW18133   7.321   7.276   0.306
 5434SOL    HW118134   7.240   7.315   0.339
 5434SOL    HW218135   7.391   7.318   0.357
 5435SOL     OW18136   0.171   9.824   6.162
 5435SOL    HW118137   0.257   9.810   6.202
 5435SOL    HW218138   0.185   9.811   6.068
 5436SOL     OW18139   0.675  14.393   0.850
 5436SOL    HW118140   0.650  14.368   0.761
 5436SOL    HW218141   0.626  14.333   0.907
 5437SOL     OW18142   3.140   3.215   6.266
 5437SOL    HW118143   3.197   3.230   6.191
 5437SOL    HW218144   3.189   3.154   6.321
 5438SOL     OW18145  13.746   4.733  11.476
 5438SOL    HW118146  13.748   4.686  11.560
 5438SOL    HW218147  13.812   4.688  11.422
 5439SOL     OW18148  10.252  10.806   3.059
 5439SOL    HW118149  10.273  10.728   3.007
 5439SOL    HW218150  10.278  10.879   3.004
 5440SOL     OW18151  13.183   4.148  14.453
 5440SOL    HW118152  13.142   4.066  14.480
 5440SOL    HW218153  13.158   4.211  14.520
 5441SOL     OW18154   3.114  10.231  13.015
 5441SOL    HW118155   3.088  10.230  12.923
 5441SOL    HW218156   3.177  10.160  13.023
 5442SOL     OW18157   8.744   4.899   2.022
 5442SOL    HW118158   8.766   4.814   1.985
 5442SOL    HW218159   8.828   4.941   2.039
 5443SOL     OW18160  10.037   8.918  14.826
 5443SOL    HW118161  10.007   8.854  14.762
 5443SOL    HW218162   9.964   8.927   0.012
 5444SOL     OW18163   7.256   1.538   6.829
 5444SOL    HW118164   7.319   1.547   6.901
 5444SOL    HW218165   7.263   1.446   6.803
 5445SOL     OW18166  10.889   9.293   7.153
 5445SOL    HW118167  10.959   9.228   7.153
 5445SOL    HW218168  10.918   9.361   7.214
 5446SOL     OW18169   8.923   6.094  13.054
 5446SOL    HW118170   8.963   6.020  13.009
 5446SOL    HW218171   8.924   6.165  12.989
 5447SOL     OW18172   9.443   8.144   9.662
 5447SOL    HW118173   9.472   8.235   9.657
 5447SOL    HW218174   9.462   8.117   9.752
 5448SOL     OW18175   2.663   6.151   4.543
 5448SOL    HW118176   2.690   6.090   4.475
 5448SOL    HW218177   2.570   6.131   4.558
 5449SOL     OW18178   2.719   6.445  10.963
 5449SOL    HW118179   2.803   6.488  10.944
 5449SOL    HW218180   2.718   6.369  10.904
 5450SOL     OW18181  11.589   4.231   4.645
 5450SOL    HW118182  11.551   4.208   4.560
 5450SOL    HW218183  11.516   4.270   4.694
 5451SOL     OW18184  11.182   3.095   6.138
 5451SOL    HW118185  11.274   3.095   6.165
 5451SOL    HW218186  11.133   3.087   6.220
 5452SOL     OW18187  13.217   8.191   8.921
 5452SOL    HW118188  13.161   8.202   8.998
 5452SOL    HW218189  13.270   8.114   8.941
 5453SOL     OW18190   7.789   6.053   2.523
 5453SOL    HW118191   7.700   6.037   2.491
 5453SOL    HW218192   7.790   6.145   2.548
 5454SOL     OW18193  14.047   4.670  10.137
 5454SOL    HW118194  14.094   4.609  10.195
 5454SOL    HW218195  14.047   4.753  10.185
 5455SOL     OW18196  12.359   4.000  10.999
 5455SOL    HW118197  12.379   3.920  10.950
 5455SOL    HW218198  12.364   3.974  11.091
 5456SOL     OW18199  10.489   5.994  10.888
 5456SOL    HW118200  10.449   6.028  10.808
 5456SOL    HW218201  10.527   5.910  10.862
 5457SOL     OW18202  14.508   2.287   9.611
 5457SOL    HW118203  14.455   2.209   9.592
 5457SOL    HW218204  14.585   2.253   9.656
 5458SOL     OW18205  11.345   7.392  13.338
 5458SOL    HW118206  11.282   7.322  13.359
 5458SOL    HW218207  11.387   7.362  13.257
 5459SOL     OW18208   7.753   4.191   3.784
 5459SOL    HW118209   7.815   4.134   3.738
 5459SOL    HW218210   7.784   4.191   3.875
 5460SOL     OW18211   8.271  12.377   6.652
 5460SOL    HW118212   8.221  12.443   6.604
 5460SOL    HW218213   8.295  12.420   6.734
 5461SOL     OW18214  13.302   9.796   7.179
 5461SOL    HW118215  13.357   9.734   7.227
 5461SOL    HW218216  13.223   9.804   7.231
 5462SOL     OW18217   9.349   6.535   1.850
 5462SOL    HW118218   9.368   6.629   1.848
 5462SOL    HW218219   9.279   6.525   1.915
 5463SOL     OW18220   3.373  14.194   6.205
 5463SOL    HW118221   3.348  14.101   6.212
 5463SOL    HW218222   3.464  14.196   6.235
 5464SOL     OW18223  11.422   9.550   7.630
 5464SOL    HW118224  11.513   9.576   7.618
 5464SOL    HW218225  11.371   9.617   7.586
 5465SOL     OW18226   8.616  13.843  14.730
 5465SOL    HW118227   8.689  13.787  14.704
 5465SOL    HW218228   8.630  13.924  14.681
 5466SOL     OW18229  10.097   8.290  13.038
 5466SOL    HW118230  10.080   8.351  12.965
 5466SOL    HW218231  10.188   8.262  13.025
 5467SOL     OW18232   4.609  11.638   2.235
 5467SOL    HW118233   4.610  11.555   2.283
 5467SOL    HW218234   4.545  11.625   2.166
 5468SOL     OW18235  14.179   6.452   8.145
 5468SOL    HW118236  14.139   6.532   8.111
 5468SOL    HW218237  14.146   6.382   8.089
 5469SOL     OW18238  11.982   6.332   2.587
 5469SOL    HW118239  12.007   6.302   2.675
 5469SOL    HW218240  11.996   6.256   2.531
 5470SOL     OW18241   0.740   7.554   0.741
 5470SOL    HW118242   0.712   7.595   0.658
 5470SOL    HW218243   0.678   7.483   0.754
 5471SOL     OW18244   4.403   3.775   9.825
 5471SOL    HW118245   4.479   3.834   9.826
 5471SOL    HW218246   4.382   3.763   9.732
 5472SOL     OW18247   0.386   5.425   9.740
 5472SOL    HW118248   0.446   5.499   9.728
 5472SOL    HW218249   0.319   5.458   9.800
 5473SOL     OW18250   7.340  13.655   3.279
 5473SOL    HW118251   7.304  13.574   3.316
 5473SOL    HW218252   7.314  13.652   3.187
 5474SOL     OW18253   9.001   5.861   4.024
 5474SOL    HW118254   9.060   5.806   3.971
 5474SOL    HW218255   8.993   5.942   3.975
 5475SOL     OW18256   1.697  12.686   2.809
 5475SOL    HW118257   1.707  12.681   2.714
 5475SOL    HW218258   1.669  12.776   2.826
 5476SOL     OW18259   2.502  13.853   5.387
 5476SOL    HW118260   2.518  13.852   5.293
 5476SOL    HW218261   2.514  13.944   5.412
 5477SOL     OW18262  12.884   2.335  10.884
 5477SOL    HW118263  12.945   2.283  10.833
 5477SOL    HW218264  12.867   2.412  10.830
 5478SOL     OW18265  14.217  11.578   6.035
 5478SOL    HW118266  14.143  11.520   6.051
 5478SOL    HW218267  14.287  11.542   6.090
 5479SOL     OW18268   1.453   3.449   2.550
 5479SOL    HW118269   1.454   3.485   2.639
 5479SOL    HW218270   1.390   3.377   2.553
 5480SOL     OW18271   0.167   6.927   3.701
 5480SOL    HW118272   0.129   6.898   3.617
 5480SOL    HW218273   0.132   7.015   3.713
 5481SOL     OW18274   3.762   7.675  14.288
 5481SOL    HW118275   3.731   7.608  14.226
 5481SOL    HW218276   3.765   7.756  14.237
 5482SOL     OW18277   3.260  14.867  13.612
 5482SOL    HW118278   3.198  14.796  13.595
 5482SOL    HW218279   3.268  14.870  13.707
 5483SOL     OW18280   8.852  10.821  11.917
 5483SOL    HW118281   8.943  10.812  11.945
 5483SOL    HW218282   8.857  10.840  11.823
 5484SOL     OW18283   6.384   4.236   0.854
 5484SOL    HW118284   6.355   4.319   0.815
 5484SOL    HW218285   6.377   4.249   0.948
 5485SOL     OW18286   5.982  12.235   6.321
 5485SOL    HW118287   5.888  12.227   6.341
 5485SOL    HW218288   6.011  12.310   6.372
 5486SOL     OW18289   2.606   2.464   8.182
 5486SOL    HW118290   2.534   2.488   8.241
 5486SOL    HW218291   2.633   2.377   8.211
 5487SOL     OW18292   9.742  10.229   0.457
 5487SOL    HW118293   9.742  10.323   0.442
 5487SOL    HW218294   9.663  10.198   0.412
 5488SOL     OW18295   7.947   3.281  13.116
 5488SOL    HW118296   7.941   3.206  13.175
 5488SOL    HW218297   8.040   3.302  13.112
 5489SOL     OW18298   4.239  13.249  13.199
 5489SOL    HW118299   4.332  13.266  13.210
 5489SOL    HW218300   4.235  13.178  13.135
 5490SOL     OW18301   6.249   6.206   5.443
 5490SOL    HW118302   6.239   6.256   5.362
 5490SOL    HW218303   6.299   6.264   5.501
 5491SOL     OW18304   4.797  13.286  10.231
 5491SOL    HW118305   4.754  13.344  10.168
 5491SOL    HW218306   4.852  13.229  10.178
 5492SOL     OW18307   6.463   8.065   3.813
 5492SOL    HW118308   6.495   7.999   3.874
 5492SOL    HW218309   6.375   8.085   3.844
 5493SOL     OW18310  14.370   6.287   4.253
 5493SOL    HW118311  14.367   6.291   4.349
 5493SOL    HW218312  14.364   6.378   4.225
 5494SOL     OW18313   3.960   0.426   3.747
 5494SOL    HW118314   3.864   0.428   3.747
 5494SOL    HW218315   3.985   0.517   3.761
 5495SOL     OW18316   8.122   9.103   6.137
 5495SOL    HW118317   8.120   9.063   6.224
 5495SOL    HW218318   8.047   9.063   6.091
 5496SOL     OW18319   0.758   2.979   8.684
 5496SOL    HW118320   0.783   2.891   8.712
 5496SOL    HW218321   0.681   3.000   8.737
 5497SOL     OW18322   1.385  11.239   9.152
 5497SOL    HW118323   1.425  11.152   9.146
 5497SOL    HW218324   1.362  11.261   9.061
 5498SOL     OW18325   7.159  14.694  14.179
 5498SOL    HW118326   7.236  14.698  14.123
 5498SOL    HW218327   7.102  14.763  14.146
 5499SOL     OW18328  12.909   8.239  10.010
 5499SOL    HW118329  12.864   8.315   9.972
 5499SOL    HW218330  12.912   8.175   9.939
 5500SOL     OW18331  12.189   5.076  10.731
 5500SOL    HW118332  12.220   4.997  10.774
 5500SOL    HW218333  12.126   5.045  10.666
 5501SOL     OW18334   9.028  12.275   4.454
 5501SOL    HW118335   9.004  12.368   4.461
 5501SOL    HW218336   9.118  12.276   4.422
 5502SOL     OW18337  13.800  12.051  10.034
 5502SOL    HW118338  13.813  11.978  10.095
 5502SOL    HW218339  13.785  12.127  10.090
 5503SOL     OW18340  11.281  12.801   2.202
 5503SOL    HW118341  11.302  12.866   2.270
 5503SOL    HW218342  11.326  12.834   2.124
 5504SOL     OW18343   3.374   4.261   7.341
 5504SOL    HW118344   3.323   4.192   7.385
 5504SOL    HW218345   3.456   4.264   7.389
 5505SOL     OW18346   7.475   8.398   4.832
 5505SOL    HW118347   7.409   8.382   4.900
 5505SOL    HW218348   7.558   8.378   4.875
 5506SOL     OW18349   5.478  12.981   8.757
 5506SOL    HW118350   5.567  13.015   8.749
 5506SOL    HW218351   5.437  13.037   8.822
 5507SOL     OW18352   6.565   4.493  10.362
 5507SOL    HW118353   6.637   4.475  10.301
 5507SOL    HW218354   6.512   4.559  10.318
 5508SOL     OW18355  10.544   1.019   5.015
 5508SOL    HW118356  10.508   1.054   4.933
 5508SOL    HW218357  10.528   0.925   5.009
 5509SOL     OW18358   1.730   6.557   3.595
 5509SOL    HW118359   1.785   6.501   3.540
 5509SOL    HW218360   1.704   6.629   3.537
 5510SOL     OW18361  14.180   7.760  13.731
 5510SOL    HW118362  14.259   7.741  13.680
 5510SOL    HW218363  14.187   7.854  13.751
 5511SOL     OW18364   4.622   3.529   1.909
 5511SOL    HW118365   4.637   3.481   1.991
 5511SOL    HW218366   4.637   3.621   1.933
 5512SOL     OW18367   1.056   6.046   1.460
 5512SOL    HW118368   1.095   6.019   1.543
 5512SOL    HW218369   1.048   5.966   1.409
 5513SOL     OW18370   0.006   7.708   0.535
 5513SOL    HW118371  14.822   7.639   0.561
 5513SOL    HW218372   0.041   7.679   0.451
 5514SOL     OW18373   2.756  13.712   9.213
 5514SOL    HW118374   2.785  13.789   9.163
 5514SOL    HW218375   2.794  13.638   9.166
 5515SOL     OW18376  12.580   4.335   2.887
 5515SOL    HW118377  12.594   4.341   2.982
 5515SOL    HW218378  12.662   4.300   2.853
 5516SOL     OW18379   0.036  12.160   2.393
 5516SOL    HW118380   0.025  12.255   2.390
 5516SOL    HW218381  14.847  12.126   2.331
 5517SOL     OW18382  13.878   8.237   4.503
 5517SOL    HW118383  13.906   8.323   4.536
 5517SOL    HW218384  13.956   8.201   4.461
 5518SOL     OW18385   9.532   2.791   5.532
 5518SOL    HW118386   9.584   2.791   5.451
 5518SOL    HW218387   9.454   2.740   5.509
 5519SOL     OW18388  11.708  14.124   8.637
 5519SOL    HW118389  11.615  14.144   8.652
 5519SOL    HW218390  11.709  14.079   8.553
 5520SOL     OW18391   7.259   7.624   5.237
 5520SOL    HW118392   7.213   7.622   5.153
 5520SOL    HW218393   7.342   7.668   5.217
 5521SOL     OW18394   5.209   5.929   0.387
 5521SOL    HW118395   5.195   5.847   0.434
 5521SOL    HW218396   5.227   5.993   0.457
 5522SOL     OW18397  14.471  10.924   9.942
 5522SOL    HW118398  14.516  10.916   9.858
 5522SOL    HW218399  14.535  10.892  10.006
 5523SOL     OW18400   5.339   8.036  13.402
 5523SOL    HW118401   5.338   7.943  13.423
 5523SOL    HW218402   5.358   8.040  13.309
 5524SOL     OW18403   3.037   2.833   4.517
 5524SOL    HW118404   3.100   2.872   4.456
 5524SOL    HW218405   2.965   2.897   4.520
 5525SOL     OW18406   6.285   8.699   4.377
 5525SOL    HW118407   6.303   8.619   4.427
 5525SOL    HW218408   6.268   8.669   4.288
 5526SOL     OW18409   1.703   1.698   5.675
 5526SOL    HW118410   1.682   1.790   5.667
 5526SOL    HW218411   1.796   1.697   5.699
 5527SOL     OW18412   8.838  12.668   8.101
 5527SOL    HW118413   8.762  12.668   8.158
 5527SOL    HW218414   8.854  12.576   8.081
 5528SOL     OW18415  11.215  12.211   0.415
 5528SOL    HW118416  11.125  12.193   0.441
 5528SOL    HW218417  11.255  12.249   0.493
 5529SOL     OW18418  12.212  10.794  11.082
 5529SOL    HW118419  12.195  10.843  11.002
 5529SOL    HW218420  12.308  10.790  11.088
 5530SOL     OW18421   3.163   8.827  11.752
 5530SOL    HW118422   3.232   8.870  11.701
 5530SOL    HW218423   3.197   8.739  11.767
 5531SOL     OW18424   4.631   1.292  10.016
 5531SOL    HW118425   4.708   1.238   9.996
 5531SOL    HW218426   4.567   1.231  10.051
 5532SOL     OW18427   1.302   4.023   1.705
 5532SOL    HW118428   1.232   3.959   1.713
 5532SOL    HW218429   1.375   3.985   1.753
 5533SOL     OW18430   9.217   2.908  12.671
 5533SOL    HW118431   9.287   2.871  12.725
 5533SOL    HW218432   9.167   2.963  12.730
 5534SOL     OW18433  10.021  10.872  12.386
 5534SOL    HW118434  10.097  10.836  12.341
 5534SOL    HW218435   9.946  10.827  12.348
 5535SOL     OW18436  10.865   4.574  10.981
 5535SOL    HW118437  10.838   4.593  11.071
 5535SOL    HW218438  10.946   4.524  10.992
 5536SOL     OW18439   2.922  11.937   5.961
 5536SOL    HW118440   2.828  11.932   5.945
 5536SOL    HW218441   2.946  11.849   5.993
 5537SOL     OW18442  12.899  11.212   5.843
 5537SOL    HW118443  12.933  11.278   5.903
 5537SOL    HW218444  12.811  11.243   5.820
 5538SOL     OW18445   3.308  14.460   0.079
 5538SOL    HW118446   3.230  14.408   0.096
 5538SOL    HW218447   3.338  14.432  14.869
 5539SOL     OW18448   7.573   0.398   7.480
 5539SOL    HW118449   7.491   0.386   7.431
 5539SOL    HW218450   7.632   0.441   7.419
 5540SOL     OW18451   7.602  14.582   1.122
 5540SOL    HW118452   7.556  14.641   1.182
 5540SOL    HW218453   7.660  14.530   1.178
 5541SOL     OW18454   7.787   3.507   1.088
 5541SOL    HW118455   7.838   3.504   1.007
 5541SOL    HW218456   7.696   3.502   1.059
 5542SOL     OW18457  12.053   2.687   2.773
 5542SOL    HW118458  12.028   2.779   2.763
 5542SOL    HW218459  11.981   2.647   2.822
 5543SOL     OW18460   9.071   4.670   5.198
 5543SOL    HW118461   9.053   4.617   5.275
 5543SOL    HW218462   9.166   4.686   5.201
 5544SOL     OW18463  10.374   8.647   7.499
 5544SOL    HW118464  10.457   8.668   7.541
 5544SOL    HW218465  10.317   8.721   7.520
 5545SOL     OW18466   6.653  12.215   2.636
 5545SOL    HW118467   6.611  12.259   2.710
 5545SOL    HW218468   6.635  12.272   2.561
 5546SOL     OW18469   0.675   9.820   0.553
 5546SOL    HW118470   0.627   9.738   0.549
 5546SOL    HW218471   0.633   9.869   0.624
 5547SOL     OW18472   9.367   4.731   6.471
 5547SOL    HW118473   9.410   4.645   6.470
 5547SOL    HW218474   9.326   4.736   6.557
 5548SOL     OW18475   3.657   0.462   7.104
 5548SOL    HW118476   3.638   0.548   7.069
 5548SOL    HW218477   3.574   0.434   7.144
 5549SOL     OW18478   2.686   6.710  12.336
 5549SOL    HW118479   2.735   6.629  12.324
 5549SOL    HW218480   2.720   6.769  12.268
 5550SOL     OW18481   5.569   4.015   6.966
 5550SOL    HW118482   5.551   4.027   6.873
 5550SOL    HW218483   5.656   4.052   6.979
 5551SOL     OW18484  13.821   6.607   6.040
 5551SOL    HW118485  13.726   6.601   6.030
 5551SOL    HW218486  13.834   6.677   6.105
 5552SOL     OW18487  11.960  14.302  10.173
 5552SOL    HW118488  11.983  14.318  10.081
 5552SOL    HW218489  11.930  14.211  10.175
 5553SOL     OW18490  12.011  13.644  14.363
 5553SOL    HW118491  11.964  13.727  14.354
 5553SOL    HW218492  12.051  13.631  14.277
 5554SOL     OW18493   8.530   6.582   8.636
 5554SOL    HW118494   8.623   6.590   8.656
 5554SOL    HW218495   8.496   6.525   8.704
 5555SOL     OW18496   2.156   3.713  10.544
 5555SOL    HW118497   2.145   3.683  10.634
 5555SOL    HW218498   2.177   3.807  10.552
 5556SOL     OW18499  10.972   4.901  11.019
 5556SOL    HW118500  10.999   4.922  11.109
 5556SOL    HW218501  11.054   4.895  10.970
 5557SOL     OW18502   7.248   1.952  14.518
 5557SOL    HW118503   7.330   1.921  14.480
 5557SOL    HW218504   7.197   1.871  14.532
 5558SOL     OW18505  14.134  13.040  12.584
 5558SOL    HW118506  14.164  13.007  12.499
 5558SOL    HW218507  14.148  12.967  12.644
 5559SOL     OW18508  11.864   1.198   5.846
 5559SOL    HW118509  11.909   1.152   5.916
 5559SOL    HW218510  11.772   1.201   5.874
 5560SOL     OW18511   6.789   1.905   8.287
 5560SOL    HW118512   6.744   1.954   8.218
 5560SOL    HW218513   6.808   1.971   8.354
 5561SOL     OW18514   9.076   4.861   9.077
 5561SOL    HW118515   9.054   4.773   9.045
 5561SOL    HW218516   9.099   4.848   9.168
 5562SOL     OW18517   3.269   3.217  10.196
 5562SOL    HW118518   3.276   3.158  10.121
 5562SOL    HW218519   3.292   3.163  10.272
 5563SOL     OW18520   3.234  14.620   2.054
 5563SOL    HW118521   3.284  14.542   2.032
 5563SOL    HW218522   3.189  14.597   2.136
 5564SOL     OW18523   2.603  10.168   6.748
 5564SOL    HW118524   2.531  10.206   6.698
 5564SOL    HW218525   2.678  10.224   6.728
 5565SOL     OW18526   3.425   9.964   3.936
 5565SOL    HW118527   3.428   9.903   4.010
 5565SOL    HW218528   3.436  10.050   3.975
 5566SOL     OW18529   2.077   3.265   5.304
 5566SOL    HW118530   1.989   3.240   5.274
 5566SOL    HW218531   2.100   3.340   5.249
 5567SOL     OW18532   6.825  12.974   8.003
 5567SOL    HW118533   6.902  13.025   8.027
 5567SOL    HW218534   6.849  12.933   7.920
 5568SOL     OW18535   2.140   4.380   5.802
 5568SOL    HW118536   2.150   4.288   5.779
 5568SOL    HW218537   2.126   4.425   5.718
 5569SOL     OW18538  13.497  14.279   5.765
 5569SOL    HW118539  13.509  14.276   5.670
 5569SOL    HW218540  13.484  14.372   5.784
 5570SOL     OW18541  13.458  10.329   0.267
 5570SOL    HW118542  13.429  10.415   0.299
 5570SOL    HW218543  13.553  10.329   0.280
 5571SOL     OW18544   2.386  10.729   7.797
 5571SOL    HW118545   2.404  10.814   7.756
 5571SOL    HW218546   2.437  10.730   7.878
 5572SOL     OW18547   1.539   0.832  12.290
 5572SOL    HW118548   1.530   0.776  12.367
 5572SOL    HW218549   1.452   0.870  12.278
 5573SOL     OW18550   5.469   8.420   7.823
 5573SOL    HW118551   5.438   8.410   7.913
 5573SOL    HW218552   5.542   8.358   7.816
 5574SOL     OW18553   9.179   0.236   1.363
 5574SOL    HW118554   9.138   0.223   1.277
 5574SOL    HW218555   9.107   0.266   1.419
 5575SOL     OW18556   2.834   3.985   9.444
 5575SOL    HW118557   2.912   3.942   9.408
 5575SOL    HW218558   2.815   4.055   9.382
 5576SOL     OW18559   6.670   2.794   7.947
 5576SOL    HW118560   6.589   2.829   7.911
 5576SOL    HW218561   6.653   2.786   8.041
 5577SOL     OW18562   6.873   9.103   2.485
 5577SOL    HW118563   6.924   9.129   2.561
 5577SOL    HW218564   6.862   9.184   2.435
 5578SOL     OW18565  14.075   5.695   8.617
 5578SOL    HW118566  14.160   5.730   8.643
 5578SOL    HW218567  14.014   5.768   8.626
 5579SOL     OW18568  12.004   7.834  12.723
 5579SOL    HW118569  12.067   7.762  12.728
 5579SOL    HW218570  11.963   7.836  12.809
 5580SOL     OW18571   4.583  11.836  12.633
 5580SOL    HW118572   4.575  11.765  12.570
 5580SOL    HW218573   4.676  11.858  12.632
 5581SOL     OW18574  10.364   3.307   5.043
 5581SOL    HW118575  10.346   3.296   5.136
 5581SOL    HW218576  10.441   3.253   5.027
 5582SOL     OW18577   0.326   6.153  11.869
 5582SOL    HW118578   0.264   6.096  11.915
 5582SOL    HW218579   0.284   6.239  11.869
 5583SOL     OW18580   3.972   6.107  14.530
 5583SOL    HW118581   3.921   6.150  14.462
 5583SOL    HW218582   4.039   6.170  14.554
 5584SOL     OW18583   9.139   8.273  14.417
 5584SOL    HW118584   9.206   8.218  14.458
 5584SOL    HW218585   9.165   8.280  14.326
 5585SOL     OW18586   7.230  13.919  11.205
 5585SOL    HW118587   7.185  13.853  11.153
 5585SOL    HW218588   7.235  13.996  11.149
 5586SOL     OW18589   1.180   3.076   7.753
 5586SOL    HW118590   1.117   3.147   7.751
 5586SOL    HW218591   1.132   3.000   7.721
 5587SOL     OW18592   5.250   6.897   7.731
 5587SOL    HW118593   5.297   6.981   7.729
 5587SOL    HW218594   5.277   6.853   7.650
 5588SOL     OW18595  13.701   1.461  11.981
 5588SOL    HW118596  13.783   1.433  11.940
 5588SOL    HW218597  13.725   1.479  12.072
 5589SOL     OW18598   7.372   0.238   2.159
 5589SOL    HW118599   7.409   0.181   2.091
 5589SOL    HW218600   7.423   0.319   2.152
 5590SOL     OW18601   5.308   3.216  11.748
 5590SOL    HW118602   5.361   3.149  11.790
 5590SOL    HW218603   5.343   3.299  11.783
 5591SOL     OW18604  12.307   6.977   9.642
 5591SOL    HW118605  12.253   6.914   9.690
 5591SOL    HW218606  12.297   7.059   9.691
 5592SOL     OW18607  11.152  12.482   7.157
 5592SOL    HW118608  11.232  12.453   7.202
 5592SOL    HW218609  11.098  12.520   7.226
 5593SOL     OW18610   2.516   9.995   8.943
 5593SOL    HW118611   2.545   9.984   8.852
 5593SOL    HW218612   2.597  10.004   8.993
 5594SOL     OW18613  11.180  11.181   3.066
 5594SOL    HW118614  11.106  11.153   3.120
 5594SOL    HW218615  11.254  11.181   3.127
 5595SOL     OW18616   7.292   3.101   9.576
 5595SOL    HW118617   7.210   3.094   9.624
 5595SOL    HW218618   7.356   3.054   9.630
 5596SOL     OW18619  10.217   2.713   5.060
 5596SOL    HW118620  10.192   2.797   5.099
 5596SOL    HW218621  10.311   2.721   5.045
 5597SOL     OW18622   9.738   8.981   7.359
 5597SOL    HW118623   9.677   9.038   7.311
 5597SOL    HW218624   9.824   9.018   7.342
 5598SOL     OW18625   7.008   1.708   4.202
 5598SOL    HW118626   6.964   1.688   4.285
 5598SOL    HW218627   6.973   1.643   4.140
 5599SOL     OW18628  10.949   1.927  13.667
 5599SOL    HW118629  10.907   1.940  13.582
 5599SOL    HW218630  11.025   1.872  13.649
 5600SOL     OW18631  10.467  11.839  14.358
 5600SOL    HW118632  10.432  11.752  14.341
 5600SOL    HW218633  10.544  11.846  14.302
 5601SOL     OW18634  14.102   8.896   8.396
 5601SOL    HW118635  14.169   8.832   8.373
 5601SOL    HW218636  14.041   8.848   8.452
 5602SOL     OW18637   0.222   7.708   0.725
 5602SOL    HW118638   0.210   7.803   0.725
 5602SOL    HW218639   0.171   7.677   0.650
 5603SOL     OW18640  11.125  11.789   9.832
 5603SOL    HW118641  11.158  11.700   9.823
 5603SOL    HW218642  11.030  11.780   9.840
 5604SOL     OW18643   3.678   1.517   0.264
 5604SOL    HW118644   3.767   1.550   0.247
 5604SOL    HW218645   3.674   1.507   0.359
 5605SOL     OW18646   6.977   4.282   6.609
 5605SOL    HW118647   6.993   4.327   6.526
 5605SOL    HW218648   6.917   4.339   6.656
 5606SOL     OW18649  11.639   1.778  11.115
 5606SOL    HW118650  11.557   1.734  11.134
 5606SOL    HW218651  11.686   1.778  11.199
 5607SOL     OW18652  13.605  11.362   2.854
 5607SOL    HW118653  13.627  11.356   2.761
 5607SOL    HW218654  13.510  11.353   2.856
 5608SOL     OW18655  10.098   2.717   5.540
 5608SOL    HW118656  10.066   2.654   5.476
 5608SOL    HW218657  10.184   2.744   5.506
 5609SOL     OW18658   6.685   4.160   7.972
 5609SOL    HW118659   6.774   4.194   7.985
 5609SOL    HW218660   6.676   4.092   8.038
 5610SOL     OW18661  12.797   0.124  10.409
 5610SOL    HW118662  12.822   0.071  10.333
 5610SOL    HW218663  12.768   0.061  10.474
 5611SOL     OW18664   5.935   4.724   7.223
 5611SOL    HW118665   5.981   4.667   7.162
 5611SOL    HW218666   5.846   4.689   7.227
 5612SOL     OW18667  12.502  12.356  11.207
 5612SOL    HW118668  12.412  12.388  11.201
 5612SOL    HW218669  12.519  12.317  11.121
 5613SOL     OW18670   2.258   9.527   1.960
 5613SOL    HW118671   2.289   9.447   2.002
 5613SOL    HW218672   2.225   9.498   1.874
 5614SOL     OW18673   1.019  11.070  13.561
 5614SOL    HW118674   1.085  11.096  13.625
 5614SOL    HW218675   0.957  11.143  13.558
 5615SOL     OW18676   5.614   6.728   5.325
 5615SOL    HW118677   5.644   6.723   5.416
 5615SOL    HW218678   5.519   6.713   5.330
 5616SOL     OW18679   8.197   4.835  14.632
 5616SOL    HW118680   8.188   4.804  14.722
 5616SOL    HW218681   8.237   4.762  14.585
 5617SOL     OW18682   8.257   8.246  12.517
 5617SOL    HW118683   8.239   8.153  12.533
 5617SOL    HW218684   8.195   8.270  12.448
 5618SOL     OW18685   8.419  10.676   1.132
 5618SOL    HW118686   8.399  10.741   1.065
 5618SOL    HW218687   8.498  10.710   1.175
 5619SOL     OW18688   7.828  12.601   3.186
 5619SOL    HW118689   7.827  12.606   3.091
 5619SOL    HW218690   7.849  12.509   3.205
 5620SOL     OW18691   5.597  10.826   7.406
 5620SOL    HW118692   5.662  10.837   7.336
 5620SOL    HW218693   5.606  10.905   7.459
 5621SOL     OW18694   8.018   9.494   9.517
 5621SOL    HW118695   8.081   9.476   9.447
 5621SOL    HW218696   8.065   9.473   9.598
 5622SOL     OW18697   4.336   4.130  12.522
 5622SOL    HW118698   4.354   4.189  12.450
 5622SOL    HW218699   4.415   4.132  12.576
 5623SOL     OW18700  13.559  11.085   8.626
 5623SOL    HW118701  13.606  11.026   8.685
 5623SOL    HW218702  13.493  11.127   8.681
 5624SOL     OW18703   9.800  12.899   0.760
 5624SOL    HW118704   9.873  12.930   0.814
 5624SOL    HW218705   9.733  12.873   0.824
 5625SOL     OW18706   5.104   5.533  11.325
 5625SOL    HW118707   5.177   5.522  11.263
 5625SOL    HW218708   5.026   5.515  11.273
 5626SOL     OW18709   5.709  12.059   0.775
 5626SOL    HW118710   5.629  12.054   0.723
 5626SOL    HW218711   5.700  12.139   0.826
 5627SOL     OW18712   6.586   6.801   8.364
 5627SOL    HW118713   6.650   6.850   8.415
 5627SOL    HW218714   6.638   6.733   8.320
 5628SOL     OW18715   6.473   4.372  12.128
 5628SOL    HW118716   6.559   4.403  12.099
 5628SOL    HW218717   6.478   4.276  12.119
 5629SOL     OW18718   1.284  12.303  13.062
 5629SOL    HW118719   1.189  12.317  13.062
 5629SOL    HW218720   1.320  12.383  13.024
 5630SOL     OW18721  11.650  12.447   3.423
 5630SOL    HW118722  11.656  12.456   3.518
 5630SOL    HW218723  11.626  12.355   3.409
 5631SOL     OW18724   3.266  14.440  12.379
 5631SOL    HW118725   3.218  14.443  12.296
 5631SOL    HW218726   3.200  14.418  12.445
 5632SOL     OW18727   4.758  13.091  14.246
 5632SOL    HW118728   4.779  13.023  14.310
 5632SOL    HW218729   4.749  13.171  14.298
 5633SOL     OW18730  13.781   6.209  11.590
 5633SOL    HW118731  13.838   6.137  11.618
 5633SOL    HW218732  13.706   6.205  11.650
 5634SOL     OW18733   1.323   1.951  11.593
 5634SOL    HW118734   1.312   2.022  11.657
 5634SOL    HW218735   1.251   1.891  11.612
 5635SOL     OW18736   4.130  13.161  13.756
 5635SOL    HW118737   4.156  13.140  13.846
 5635SOL    HW218738   4.078  13.086  13.727
 5636SOL     OW18739  14.038   5.193  10.113
 5636SOL    HW118740  14.015   5.110  10.155
 5636SOL    HW218741  14.011   5.183  10.022
 5637SOL     OW18742   6.972  13.351   3.316
 5637SOL    HW118743   6.911  13.280   3.336
 5637SOL    HW218744   6.955  13.371   3.224
 5638SOL     OW18745   2.013   6.042  12.732
 5638SOL    HW118746   1.959   6.003  12.801
 5638SOL    HW218747   2.075   5.973  12.708
 5639SOL     OW18748  13.582   1.637   8.762
 5639SOL    HW118749  13.604   1.571   8.828
 5639SOL    HW218750  13.583   1.589   8.679
 5640SOL     OW18751  11.289  14.702   7.554
 5640SOL    HW118752  11.284  14.659   7.639
 5640SOL    HW218753  11.241  14.784   7.566
 5641SOL     OW18754  13.412  11.214   0.755
 5641SOL    HW118755  13.507  11.222   0.758
 5641SOL    HW218756  13.380  11.302   0.774
 5642SOL     OW18757  13.479   9.973   8.461
 5642SOL    HW118758  13.565  10.000   8.492
 5642SOL    HW218759  13.493   9.942   8.372
 5643SOL     OW18760  10.507   6.280  13.290
 5643SOL    HW118761  10.552   6.364  13.277
 5643SOL    HW218762  10.541   6.223  13.222
 5644SOL     OW18763   5.199   6.557   5.542
 5644SOL    HW118764   5.152   6.622   5.594
 5644SOL    HW218765   5.267   6.607   5.497
 5645SOL     OW18766   8.914  12.646  11.540
 5645SOL    HW118767   8.847  12.709  11.566
 5645SOL    HW218768   8.867  12.563  11.529
 5646SOL     OW18769  13.989  12.828  11.864
 5646SOL    HW118770  13.959  12.792  11.947
 5646SOL    HW218771  13.962  12.763  11.798
 5647SOL     OW18772   9.617   6.713  12.553
 5647SOL    HW118773   9.645   6.675  12.637
 5647SOL    HW218774   9.691   6.697  12.494
 5648SOL     OW18775  11.360  11.546   7.299
 5648SOL    HW118776  11.323  11.459   7.315
 5648SOL    HW218777  11.303  11.585   7.232
 5649SOL     OW18778   1.660   0.313   7.379
 5649SOL    HW118779   1.604   0.280   7.450
 5649SOL    HW218780   1.748   0.309   7.415
 5650SOL     OW18781   4.161  10.932  13.219
 5650SOL    HW118782   4.127  11.008  13.172
 5650SOL    HW218783   4.093  10.865  13.212
 5651SOL     OW18784  11.662   1.134   4.419
 5651SOL    HW118785  11.724   1.096   4.481
 5651SOL    HW218786  11.717   1.174   4.351
 5652SOL     OW18787  11.874  10.639   3.000
 5652SOL    HW118788  11.946  10.651   2.938
 5652SOL    HW218789  11.897  10.696   3.074
 5653SOL     OW18790   1.115   8.852   6.496
 5653SOL    HW118791   1.203   8.886   6.478
 5653SOL    HW218792   1.056   8.923   6.472
 5654SOL     OW18793   5.301   8.645  13.411
 5654SOL    HW118794   5.253   8.665  13.491
 5654SOL    HW218795   5.244   8.585  13.364
 5655SOL     OW18796   3.465   0.120  14.598
 5655SOL    HW118797   3.517   0.118  14.678
 5655SOL    HW218798   3.490   0.041  14.551
 5656SOL     OW18799   6.667  12.721   7.187
 5656SOL    HW118800   6.577  12.753   7.179
 5656SOL    HW218801   6.698  12.757   7.270
 5657SOL     OW18802   4.086  14.790  11.372
 5657SOL    HW118803   4.044  14.749  11.297
 5657SOL    HW218804   4.165  14.738  11.387
 5658SOL     OW18805   2.738   9.471  14.735
 5658SOL    HW118806   2.679   9.546  14.728
 5658SOL    HW218807   2.701   9.418  14.806
 5659SOL     OW18808   0.041   2.329   0.630
 5659SOL    HW118809  14.843   2.322   0.691
 5659SOL    HW218810   0.111   2.369   0.682
 5660SOL     OW18811   9.901  13.254  12.294
 5660SOL    HW118812   9.889  13.309  12.372
 5660SOL    HW218813   9.837  13.288  12.231
 5661SOL     OW18814   9.352   5.174   7.129
 5661SOL    HW118815   9.270   5.156   7.083
 5661SOL    HW218816   9.418   5.126   7.078
 5662SOL     OW18817  11.030   8.039   9.740
 5662SOL    HW118818  10.941   8.040   9.774
 5662SOL    HW218819  11.073   8.112   9.785
 5663SOL     OW18820   0.559   2.203   4.093
 5663SOL    HW118821   0.491   2.223   4.158
 5663SOL    HW218822   0.513   2.153   4.025
 5664SOL     OW18823   7.175  12.137  13.403
 5664SOL    HW118824   7.080  12.130  13.405
 5664SOL    HW218825   7.196  12.149  13.310
 5665SOL     OW18826  12.698   7.891   2.937
 5665SOL    HW118827  12.680   7.933   3.021
 5665SOL    HW218828  12.638   7.933   2.876
 5666SOL     OW18829  10.046   6.092   0.416
 5666SOL    HW118830   9.954   6.077   0.438
 5666SOL    HW218831  10.046   6.116   0.324
 5667SOL     OW18832  12.042   2.698  10.324
 5667SOL    HW118833  12.009   2.618  10.364
 5667SOL    HW218834  11.971   2.729  10.269
 5668SOL     OW18835  13.496   2.781   1.480
 5668SOL    HW118836  13.412   2.740   1.500
 5668SOL    HW218837  13.528   2.735   1.402
 5669SOL     OW18838   0.959  14.005  14.209
 5669SOL    HW118839   1.034  14.062  14.190
 5669SOL    HW218840   0.959  13.940  14.138
 5670SOL     OW18841   6.869  11.557   0.090
 5670SOL    HW118842   6.890  11.477   0.043
 5670SOL    HW218843   6.794  11.594   0.043
 5671SOL     OW18844   0.918   6.531  10.565
 5671SOL    HW118845   0.900   6.578  10.646
 5671SOL    HW218846   0.927   6.599  10.499
 5672SOL     OW18847  12.364   3.683   4.097
 5672SOL    HW118848  12.444   3.705   4.145
 5672SOL    HW218849  12.352   3.590   4.112
 5673SOL     OW18850   1.888   9.689   1.519
 5673SOL    HW118851   1.818   9.658   1.576
 5673SOL    HW218852   1.933   9.757   1.570
 5674SOL     OW18853   2.728   5.945   8.369
 5674SOL    HW118854   2.650   5.890   8.379
 5674SOL    HW218855   2.696   6.034   8.384
 5675SOL     OW18856  11.108   0.928  12.113
 5675SOL    HW118857  11.039   0.861  12.118
 5675SOL    HW218858  11.079   0.996  12.174
 5676SOL     OW18859   7.262  14.129   0.019
 5676SOL    HW118860   7.230  14.098   0.104
 5676SOL    HW218861   7.268  14.224   0.028
 5677SOL     OW18862   0.092   0.867   7.285
 5677SOL    HW118863   0.015   0.908   7.324
 5677SOL    HW218864   0.091   0.778   7.319
 5678SOL     OW18865   2.939  13.196   9.228
 5678SOL    HW118866   3.033  13.212   9.215
 5678SOL    HW218867   2.933  13.101   9.243
 5679SOL     OW18868  11.008   7.389   9.136
 5679SOL    HW118869  11.093   7.344   9.129
 5679SOL    HW218870  11.028   7.470   9.184
 5680SOL     OW18871  13.726   5.018   8.864
 5680SOL    HW118872  13.650   4.991   8.813
 5680SOL    HW218873  13.692   5.083   8.925
 5681SOL     OW18874   1.129   0.971   0.891
 5681SOL    HW118875   1.215   0.937   0.915
 5681SOL    HW218876   1.100   1.021   0.968
 5682SOL     OW18877  10.066  10.593   6.471
 5682SOL    HW118878  10.110  10.645   6.539
 5682SOL    HW218879  10.136  10.572   6.409
 5683SOL     OW18880   4.317   6.220   5.044
 5683SOL    HW118881   4.412   6.233   5.046
 5683SOL    HW218882   4.299   6.168   5.123
 5684SOL     OW18883   0.383   9.606  11.689
 5684SOL    HW118884   0.293   9.586  11.714
 5684SOL    HW218885   0.422   9.521  11.669
 5685SOL     OW18886   0.378  12.525   4.018
 5685SOL    HW118887   0.440  12.591   4.049
 5685SOL    HW218888   0.364  12.547   3.926
 5686SOL     OW18889   0.096  13.161   4.782
 5686SOL    HW118890   0.191  13.159   4.795
 5686SOL    HW218891   0.075  13.254   4.771
 5687SOL     OW18892   6.919   0.358   9.012
 5687SOL    HW118893   6.885   0.415   8.944
 5687SOL    HW218894   6.909   0.270   8.977
 5688SOL     OW18895   1.529   3.599   9.334
 5688SOL    HW118896   1.499   3.583   9.245
 5688SOL    HW218897   1.560   3.513   9.364
 5689SOL     OW18898   9.486   7.203  13.192
 5689SOL    HW118899   9.510   7.111  13.205
 5689SOL    HW218900   9.509   7.221  13.101
 5690SOL     OW18901   7.270   9.250   2.674
 5690SOL    HW118902   7.332   9.222   2.741
 5690SOL    HW218903   7.310   9.222   2.592
 5691SOL     OW18904  12.878  11.229   2.763
 5691SOL    HW118905  12.795  11.275   2.750
 5691SOL    HW218906  12.865  11.179   2.843
 5692SOL     OW18907   1.724   3.823   3.255
 5692SOL    HW118908   1.650   3.778   3.296
 5692SOL    HW218909   1.727   3.789   3.166
 5693SOL     OW18910   4.753   5.935   5.895
 5693SOL    HW118911   4.669   5.925   5.850
 5693SOL    HW218912   4.813   5.968   5.828
 5694SOL     OW18913  13.846  11.603   9.730
 5694SOL    HW118914  13.791  11.647   9.665
 5694SOL    HW218915  13.925  11.578   9.682
 5695SOL     OW18916  13.065   8.614   9.640
 5695SOL    HW118917  13.007   8.539   9.656
 5695SOL    HW218918  13.015   8.690   9.670
 5696SOL     OW18919  11.834  13.670   4.548
 5696SOL    HW118920  11.791  13.597   4.504
 5696SOL    HW218921  11.915  13.633   4.583
 5697SOL     OW18922  10.185   2.476   2.988
 5697SOL    HW118923  10.165   2.384   2.971
 5697SOL    HW218924  10.214   2.478   3.079
 5698SOL     OW18925  14.859   1.740   6.224
 5698SOL    HW118926   0.066   1.704   6.194
 5698SOL    HW218927  14.810   1.759   6.144
 5699SOL     OW18928   1.124   8.907  14.216
 5699SOL    HW118929   1.188   8.977  14.224
 5699SOL    HW218930   1.050   8.947  14.170
 5700SOL     OW18931  13.164  10.909   9.159
 5700SOL    HW118932  13.133  10.864   9.081
 5700SOL    HW218933  13.258  10.918   9.147
 5701SOL     OW18934  12.042  11.217   9.149
 5701SOL    HW118935  11.959  11.262   9.135
 5701SOL    HW218936  12.033  11.175   9.235
 5702SOL     OW18937  12.301   0.810   7.575
 5702SOL    HW118938  12.230   0.809   7.639
 5702SOL    HW218939  12.360   0.879   7.606
 5703SOL     OW18940   3.977   9.212  11.341
 5703SOL    HW118941   3.906   9.272  11.318
 5703SOL    HW218942   4.051   9.270  11.360
 5704SOL     OW18943   0.928  11.204   8.094
 5704SOL    HW118944   0.993  11.164   8.151
 5704SOL    HW218945   0.929  11.297   8.117
 5705SOL     OW18946  13.588  13.729   8.174
 5705SOL    HW118947  13.501  13.691   8.166
 5705SOL    HW218948  13.643  13.658   8.208
 5706SOL     OW18949   4.388  11.281   1.919
 5706SOL    HW118950   4.417  11.313   1.834
 5706SOL    HW218951   4.295  11.262   1.907
 5707SOL     OW18952   8.662  13.123   7.628
 5707SOL    HW118953   8.664  13.144   7.721
 5707SOL    HW218954   8.713  13.042   7.621
 5708SOL     OW18955   7.604  14.782   9.759
 5708SOL    HW118956   7.543  14.788   9.685
 5708SOL    HW218957   7.613  14.688   9.775
 5709SOL     OW18958   3.306  11.711   2.659
 5709SOL    HW118959   3.391  11.742   2.627
 5709SOL    HW218960   3.303  11.619   2.635
 5710SOL     OW18961  12.981  10.493  11.468
 5710SOL    HW118962  12.973  10.459  11.557
 5710SOL    HW218963  12.902  10.547  11.457
 5711SOL     OW18964   5.347   7.465   6.642
 5711SOL    HW118965   5.330   7.521   6.717
 5711SOL    HW218966   5.435   7.488   6.613
 5712SOL     OW18967   7.043   9.270   1.791
 5712SOL    HW118968   7.094   9.347   1.764
 5712SOL    HW218969   6.974   9.263   1.724
 5713SOL     OW18970   9.415   2.658   1.603
 5713SOL    HW118971   9.348   2.590   1.595
 5713SOL    HW218972   9.366   2.739   1.609
 5714SOL     OW18973   5.801  13.174   0.075
 5714SOL    HW118974   5.855  13.235   0.024
 5714SOL    HW218975   5.829  13.186   0.165
 5715SOL     OW18976   4.687   8.242  14.007
 5715SOL    HW118977   4.715   8.154  13.983
 5715SOL    HW218978   4.699   8.245  14.102
 5716SOL     OW18979   0.596   1.704   6.765
 5716SOL    HW118980   0.688   1.714   6.740
 5716SOL    HW218981   0.579   1.777   6.825
 5717SOL     OW18982   8.576   6.442   3.435
 5717SOL    HW118983   8.658   6.432   3.386
 5717SOL    HW218984   8.540   6.525   3.405
 5718SOL     OW18985   7.825   0.862   0.112
 5718SOL    HW118986   7.911   0.884   0.077
 5718SOL    HW218987   7.839   0.850   0.206
 5719SOL     OW18988   0.088   4.591   9.319
 5719SOL    HW118989   0.097   4.551   9.233
 5719SOL    HW218990   0.151   4.664   9.319
 5720SOL     OW18991   7.426   1.548   7.042
 5720SOL    HW118992   7.498   1.495   7.076
 5720SOL    HW218993   7.365   1.556   7.115
 5721SOL     OW18994   4.081   7.960   9.635
 5721SOL    HW118995   4.101   7.867   9.639
 5721SOL    HW218996   4.073   7.980   9.542
 5722SOL     OW18997   0.908   8.559  11.599
 5722SOL    HW118998   0.899   8.464  11.591
 5722SOL    HW218999   0.905   8.591  11.509
 5723SOL     OW19000   5.432   5.412   9.152
 5723SOL    HW119001   5.405   5.406   9.061
 5723SOL    HW219002   5.362   5.461   9.195
 5724SOL     OW19003  10.931   3.422  10.524
 5724SOL    HW119004  10.936   3.517  10.517
 5724SOL    HW219005  11.021   3.393  10.534
 5725SOL     OW19006  14.179   6.358   3.179
 5725SOL    HW119007  14.161   6.393   3.266
 5725SOL    HW219008  14.274   6.363   3.169
 5726SOL     OW19009   1.768   0.304   4.476
 5726SOL    HW119010   1.711   0.365   4.430
 5726SOL    HW219011   1.772   0.338   4.566
 5727SOL     OW19012   5.834   3.021   5.158
 5727SOL    HW119013   5.816   3.112   5.135
 5727SOL    HW219014   5.929   3.012   5.150
 5728SOL     OW19015   4.386   9.009   2.327
 5728SOL    HW119016   4.334   8.929   2.320
 5728SOL    HW219017   4.472   8.980   2.355
 5729SOL     OW19018   2.638   4.061   9.614
 5729SOL    HW119019   2.722   4.032   9.578
 5729SOL    HW219020   2.651   4.059   9.709
 5730SOL     OW19021   9.274   2.337  11.624
 5730SOL    HW119022   9.332   2.266  11.596
 5730SOL    HW219023   9.332   2.397  11.671
 5731SOL     OW19024  13.658   1.845   4.868
 5731SOL    HW119025  13.624   1.756   4.878
 5731SOL    HW219026  13.593   1.890   4.814
 5732SOL     OW19027   1.607  13.120   1.453
 5732SOL    HW119028   1.658  13.057   1.504
 5732SOL    HW219029   1.567  13.177   1.519
 5733SOL     OW19030  14.663   9.541   4.476
 5733SOL    HW119031  14.697   9.562   4.563
 5733SOL    HW219032  14.723   9.584   4.415
 5734SOL     OW19033   2.288   4.313   1.830
 5734SOL    HW119034   2.302   4.380   1.897
 5734SOL    HW219035   2.372   4.267   1.824
 5735SOL     OW19036   8.032   5.586   0.574
 5735SOL    HW119037   7.940   5.590   0.599
 5735SOL    HW219038   8.065   5.674   0.590
 5736SOL     OW19039   2.979  13.144  13.587
 5736SOL    HW119040   3.073  13.140  13.606
 5736SOL    HW219041   2.973  13.132  13.493
 5737SOL     OW19042   3.619  13.586   5.745
 5737SOL    HW119043   3.545  13.641   5.772
 5737SOL    HW219044   3.615  13.510   5.803
 5738SOL     OW19045  12.639   2.669   4.203
 5738SOL    HW119046  12.680   2.755   4.211
 5738SOL    HW219047  12.708   2.613   4.168
 5739SOL     OW19048  10.772   2.726   3.098
 5739SOL    HW119049  10.841   2.790   3.082
 5739SOL    HW219050  10.780   2.663   3.027
 5740SOL     OW19051  13.046  11.440   5.953
 5740SOL    HW119052  12.993  11.519   5.947
 5740SOL    HW219053  13.116  11.454   5.889
 5741SOL     OW19054   2.396  10.492  13.258
 5741SOL    HW119055   2.476  10.529  13.220
 5741SOL    HW219056   2.354  10.447  13.185
 5742SOL     OW19057   0.113   5.537   3.175
 5742SOL    HW119058   0.083   5.447   3.161
 5742SOL    HW219059   0.065   5.589   3.111
 5743SOL     OW19060  13.835   2.816   2.317
 5743SOL    HW119061  13.799   2.852   2.236
 5743SOL    HW219062  13.918   2.777   2.290
 5744SOL     OW19063   4.623   8.271  14.397
 5744SOL    HW119064   4.571   8.349  14.374
 5744SOL    HW219065   4.711   8.291  14.366
 5745SOL     OW19066   8.555   2.872   2.242
 5745SOL    HW119067   8.523   2.810   2.176
 5745SOL    HW219068   8.630   2.915   2.201
 5746SOL     OW19069  11.795  11.527  10.069
 5746SOL    HW119070  11.787  11.615  10.034
 5746SOL    HW219071  11.867  11.487  10.019
 5747SOL     OW19072   1.599   8.612   4.384
 5747SOL    HW119073   1.648   8.530   4.398
 5747SOL    HW219074   1.521   8.584   4.335
 5748SOL     OW19075  14.078   3.051   6.482
 5748SOL    HW119076  14.118   2.969   6.453
 5748SOL    HW219077  14.103   3.059   6.574
 5749SOL     OW19078   4.812   4.733   3.023
 5749SOL    HW119079   4.774   4.707   2.940
 5749SOL    HW219080   4.893   4.683   3.029
 5750SOL     OW19081  14.041   5.807   8.923
 5750SOL    HW119082  14.089   5.872   8.873
 5750SOL    HW219083  14.076   5.723   8.894
 5751SOL     OW19084   4.692   8.773   4.646
 5751SOL    HW119085   4.670   8.692   4.692
 5751SOL    HW219086   4.665   8.843   4.706
 5752SOL     OW19087   4.149   0.780  11.568
 5752SOL    HW119088   4.118   0.781  11.478
 5752SOL    HW219089   4.235   0.738  11.564
 5753SOL     OW19090   0.601  13.228  10.888
 5753SOL    HW119091   0.552  13.145  10.891
 5753SOL    HW219092   0.545  13.287  10.838
 5754SOL     OW19093   0.301  13.317   2.713
 5754SOL    HW119094   0.297  13.223   2.731
 5754SOL    HW219095   0.312  13.323   2.618
 5755SOL     OW19096   4.491  14.573  13.230
 5755SOL    HW119097   4.522  14.520  13.303
 5755SOL    HW219098   4.451  14.650  13.270
 5756SOL     OW19099   7.917  13.633   7.756
 5756SOL    HW119100   7.922  13.665   7.846
 5756SOL    HW219101   7.994  13.576   7.747
 5757SOL     OW19102  11.976   9.450  13.110
 5757SOL    HW119103  11.951   9.497  13.189
 5757SOL    HW219104  11.915   9.377  13.104
 5758SOL     OW19105   5.878   5.615   1.546
 5758SOL    HW119106   5.871   5.651   1.634
 5758SOL    HW219107   5.934   5.537   1.556
 5759SOL     OW19108  11.546  12.221   6.550
 5759SOL    HW119109  11.492  12.298   6.529
 5759SOL    HW219110  11.539  12.212   6.645
 5760SOL     OW19111   6.814   8.478   2.569
 5760SOL    HW119112   6.763   8.409   2.612
 5760SOL    HW219113   6.905   8.455   2.586
 5761SOL     OW19114   5.529   6.690   8.221
 5761SOL    HW119115   5.494   6.774   8.190
 5761SOL    HW219116   5.568   6.651   8.143
 5762SOL     OW19117   0.624   8.590   0.014
 5762SOL    HW119118   0.563   8.593  14.816
 5762SOL    HW219119   0.683   8.663  14.875
 5763SOL     OW19120   8.583   2.810   7.103
 5763SOL    HW119121   8.513   2.746   7.112
 5763SOL    HW219122   8.541   2.894   7.115
 5764SOL     OW19123  12.038   5.246   6.127
 5764SOL    HW119124  12.106   5.185   6.156
 5764SOL    HW219125  11.997   5.202   6.052
 5765SOL     OW19126   4.985   5.943  10.415
 5765SOL    HW119127   4.954   6.015  10.471
 5765SOL    HW219128   5.015   5.876  10.477
 5766SOL     OW19129   8.210  10.619   2.402
 5766SOL    HW119130   8.255  10.565   2.468
 5766SOL    HW219131   8.156  10.679   2.453
 5767SOL     OW19132   5.819   9.473  12.622
 5767SOL    HW119133   5.739   9.524  12.630
 5767SOL    HW219134   5.869   9.516  12.553
 5768SOL     OW19135   6.443  13.259   3.044
 5768SOL    HW119136   6.384  13.316   3.093
 5768SOL    HW219137   6.411  13.170   3.060
 5769SOL     OW19138   1.051   1.763  14.461
 5769SOL    HW119139   1.056   1.773  14.556
 5769SOL    HW219140   1.010   1.843  14.430
 5770SOL     OW19141   6.218   7.446   0.185
 5770SOL    HW119142   6.151   7.413   0.245
 5770SOL    HW219143   6.179   7.435   0.098
 5771SOL     OW19144  12.027  10.708   9.176
 5771SOL    HW119145  12.118  10.679   9.172
 5771SOL    HW219146  12.014  10.734   9.268
 5772SOL     OW19147   9.917  13.019   5.600
 5772SOL    HW119148   9.864  12.988   5.527
 5772SOL    HW219149   9.959  13.099   5.567
 5773SOL     OW19150   6.595  10.951  11.813
 5773SOL    HW119151   6.568  11.037  11.780
 5773SOL    HW219152   6.601  10.896  11.735
 5774SOL     OW19153  13.605   8.959   7.240
 5774SOL    HW119154  13.606   8.946   7.145
 5774SOL    HW219155  13.519   8.997   7.258
 5775SOL     OW19156  14.702  12.944   0.046
 5775SOL    HW119157  14.754  13.021   0.021
 5775SOL    HW219158  14.616  12.960   0.009
 5776SOL     OW19159   3.621  10.892   5.131
 5776SOL    HW119160   3.681  10.838   5.183
 5776SOL    HW219161   3.575  10.831   5.075
 5777SOL     OW19162   8.436   0.217   0.478
 5777SOL    HW119163   8.503   0.230   0.411
 5777SOL    HW219164   8.356   0.254   0.439
 5778SOL     OW19165  13.345   4.932   0.337
 5778SOL    HW119166  13.375   4.988   0.408
 5778SOL    HW219167  13.293   4.864   0.380
 5779SOL     OW19168   2.671   0.124  10.527
 5779SOL    HW119169   2.668   0.143  10.620
 5779SOL    HW219170   2.711   0.202  10.488
 5780SOL     OW19171   1.822  13.859   3.576
 5780SOL    HW119172   1.831  13.955   3.572
 5780SOL    HW219173   1.839  13.829   3.487
 5781SOL     OW19174  14.267   3.047   3.482
 5781SOL    HW119175  14.304   2.961   3.463
 5781SOL    HW219176  14.310   3.105   3.419
 5782SOL     OW19177  10.574   0.155  12.408
 5782SOL    HW119178  10.551   0.069  12.372
 5782SOL    HW219179  10.554   0.217  12.337
 5783SOL     OW19180   2.368   2.747   8.136
 5783SOL    HW119181   2.419   2.768   8.214
 5783SOL    HW219182   2.312   2.823   8.122
 5784SOL     OW19183  10.500  10.450   8.634
 5784SOL    HW119184  10.572  10.511   8.653
 5784SOL    HW219185  10.438  10.501   8.582
 5785SOL     OW19186   3.066   7.128  14.826
 5785SOL    HW119187   3.082   7.049  14.775
 5785SOL    HW219188   3.153   7.155  14.856
 5786SOL     OW19189  10.457   3.819   3.271
 5786SOL    HW119190  10.467   3.908   3.238
 5786SOL    HW219191  10.420   3.829   3.358
 5787SOL     OW19192   4.907  10.258   6.010
 5787SOL    HW119193   4.940  10.312   5.938
 5787SOL    HW219194   4.966  10.275   6.083
 5788SOL     OW19195  11.530  11.398  10.647
 5788SOL    HW119196  11.555  11.490  10.650
 5788SOL    HW219197  11.448  11.394  10.696
 5789SOL     OW19198  11.830  10.356   2.643
 5789SOL    HW119199  11.827  10.261   2.650
 5789SOL    HW219200  11.776  10.376   2.566
 5790SOL     OW19201  10.552  13.543   6.535
 5790SOL    HW119202  10.468  13.586   6.546
 5790SOL    HW219203  10.600  13.598   6.474
 5791SOL     OW19204   4.464  14.357  14.370
 5791SOL    HW119205   4.518  14.415  14.423
 5791SOL    HW219206   4.513  14.348  14.288
 5792SOL     OW19207   3.760   3.514  13.630
 5792SOL    HW119208   3.763   3.506  13.534
 5792SOL    HW219209   3.667   3.508  13.651
 5793SOL     OW19210   0.058   8.314   9.409
 5793SOL    HW119211   0.022   8.322   9.497
 5793SOL    HW219212   0.085   8.223   9.402
 5794SOL     OW19213  12.816  10.659  13.134
 5794SOL    HW119214  12.766  10.586  13.097
 5794SOL    HW219215  12.783  10.668  13.223
 5795SOL     OW19216   5.652  12.810   3.719
 5795SOL    HW119217   5.558  12.807   3.736
 5795SOL    HW219218   5.661  12.858   3.637
 5796SOL     OW19219   8.657   9.824  12.093
 5796SOL    HW119220   8.734   9.767  12.083
 5796SOL    HW219221   8.594   9.790  12.030
 5797SOL     OW19222  14.726   2.484   4.965
 5797SOL    HW119223  14.632   2.475   4.955
 5797SOL    HW219224  14.753   2.546   4.897
 5798SOL     OW19225  10.948  13.284   4.090
 5798SOL    HW119226  10.919  13.249   4.005
 5798SOL    HW219227  11.020  13.226   4.116
 5799SOL     OW19228   6.669   8.862  14.170
 5799SOL    HW119229   6.724   8.803  14.221
 5799SOL    HW219230   6.661   8.820  14.084
 5800SOL     OW19231   6.982   9.388  13.936
 5800SOL    HW119232   7.031   9.454  13.986
 5800SOL    HW219233   6.978   9.424  13.847
 5801SOL     OW19234   5.706   7.674  11.515
 5801SOL    HW119235   5.667   7.694  11.430
 5801SOL    HW219236   5.781   7.619  11.495
 5802SOL     OW19237   1.096   8.051   2.617
 5802SOL    HW119238   1.052   8.112   2.677
 5802SOL    HW219239   1.186   8.082   2.613
 5803SOL     OW19240  13.459  10.158  11.079
 5803SOL    HW119241  13.501  10.244  11.073
 5803SOL    HW219242  13.454  10.127  10.989
 5804SOL     OW19243  10.867   3.534   0.489
 5804SOL    HW119244  10.784   3.488   0.501
 5804SOL    HW219245  10.934   3.469   0.509
 5805SOL     OW19246   1.759  10.063  14.241
 5805SOL    HW119247   1.804  10.104  14.314
 5805SOL    HW219248   1.808  10.090  14.163
 5806SOL     OW19249   7.170   1.608  11.618
 5806SOL    HW119250   7.219   1.669  11.673
 5806SOL    HW219251   7.237   1.558  11.572
 5807SOL     OW19252  11.942   3.111   1.770
 5807SOL    HW119253  11.930   3.202   1.798
 5807SOL    HW219254  12.010   3.115   1.703
 5808SOL     OW19255   9.223   2.471  10.027
 5808SOL    HW119256   9.244   2.511   9.943
 5808SOL    HW219257   9.305   2.471  10.075
 5809SOL     OW19258   5.701  14.646   4.732
 5809SOL    HW119259   5.723  14.657   4.639
 5809SOL    HW219260   5.613  14.610   4.732
 5810SOL     OW19261  10.486   0.960  12.371
 5810SOL    HW119262  10.547   1.023  12.409
 5810SOL    HW219263  10.438   1.011  12.305
 5811SOL     OW19264  12.078  11.836  10.131
 5811SOL    HW119265  12.171  11.816  10.118
 5811SOL    HW219266  12.044  11.761  10.180
 5812SOL     OW19267   5.417   8.857  10.823
 5812SOL    HW119268   5.437   8.938  10.869
 5812SOL    HW219269   5.405   8.792  10.892
 5813SOL     OW19270  14.088   4.637  14.306
 5813SOL    HW119271  14.083   4.623  14.212
 5813SOL    HW219272  14.181   4.632  14.326
 5814SOL     OW19273   1.691  11.881  13.927
 5814SOL    HW119274   1.782  11.897  13.953
 5814SOL    HW219275   1.672  11.951  13.864
 5815SOL     OW19276   3.805   8.216   9.165
 5815SOL    HW119277   3.868   8.219   9.093
 5815SOL    HW219278   3.759   8.133   9.153
 5816SOL     OW19279  12.986  11.916   4.952
 5816SOL    HW119280  13.002  12.001   4.911
 5816SOL    HW219281  13.052  11.910   5.021
 5817SOL     OW19282   2.442  14.582  14.700
 5817SOL    HW119283   2.394  14.625  14.770
 5817SOL    HW219284   2.380  14.519  14.663
 5818SOL     OW19285   3.405   4.245   0.125
 5818SOL    HW119286   3.412   4.341   0.127
 5818SOL    HW219287   3.370   4.222   0.211
 5819SOL     OW19288  11.617   6.304   3.752
 5819SOL    HW119289  11.667   6.248   3.812
 5819SOL    HW219290  11.543   6.334   3.805
 5820SOL     OW19291  14.088   8.602   4.811
 5820SOL    HW119292  14.141   8.670   4.851
 5820SOL    HW219293  14.150   8.550   4.760
 5821SOL     OW19294   3.621   6.896   3.576
 5821SOL    HW119295   3.533   6.860   3.563
 5821SOL    HW219296   3.653   6.852   3.655
 5822SOL     OW19297   3.064   4.463   8.541
 5822SOL    HW119298   3.088   4.534   8.601
 5822SOL    HW219299   3.141   4.406   8.538
 5823SOL     OW19300   8.290  11.411   6.812
 5823SOL    HW119301   8.365  11.408   6.873
 5823SOL    HW219302   8.314  11.351   6.742
 5824SOL     OW19303  10.955   1.207   9.106
 5824SOL    HW119304  10.888   1.142   9.087
 5824SOL    HW219305  11.011   1.207   9.028
 5825SOL     OW19306   9.990  13.214   6.545
 5825SOL    HW119307   9.963  13.137   6.494
 5825SOL    HW219308  10.075  13.190   6.582
 5826SOL     OW19309   6.930   5.405   6.336
 5826SOL    HW119310   6.947   5.401   6.430
 5826SOL    HW219311   6.858   5.343   6.322
 5827SOL     OW19312   7.460   4.399   1.956
 5827SOL    HW119313   7.433   4.355   2.036
 5827SOL    HW219314   7.553   4.418   1.970
 5828SOL     OW19315  12.094   2.094   6.411
 5828SOL    HW119316  12.058   2.112   6.498
 5828SOL    HW219317  12.117   2.001   6.414
 5829SOL     OW19318  14.808   2.272  13.493
 5829SOL    HW119319  14.809   2.358  13.452
 5829SOL    HW219320  14.767   2.285  13.578
 5830SOL     OW19321  14.547  11.227  10.476
 5830SOL    HW119322  14.531  11.153  10.535
 5830SOL    HW219323  14.605  11.285  10.525
 5831SOL     OW19324  12.104   6.140   6.537
 5831SOL    HW119325  12.031   6.185   6.580
 5831SOL    HW219326  12.063   6.090   6.466
 5832SOL     OW19327  12.434   6.915  11.754
 5832SOL    HW119328  12.480   6.967  11.820
 5832SOL    HW219329  12.390   6.980  11.698
 5833SOL     OW19330  13.379   5.873  10.093
 5833SOL    HW119331  13.303   5.850  10.147
 5833SOL    HW219332  13.391   5.967  10.108
 5834SOL     OW19333  12.633   2.150   3.150
 5834SOL    HW119334  12.538   2.166   3.157
 5834SOL    HW219335  12.655   2.179   3.061
 5835SOL     OW19336   5.269  12.746  12.630
 5835SOL    HW119337   5.321  12.772  12.555
 5835SOL    HW219338   5.180  12.774  12.609
 5836SOL     OW19339   0.402  13.217  11.723
 5836SOL    HW119340   0.379  13.183  11.809
 5836SOL    HW219341   0.430  13.139  11.674
 5837SOL     OW19342   9.262   2.089   0.921
 5837SOL    HW119343   9.268   2.107   1.015
 5837SOL    HW219344   9.287   1.997   0.912
 5838SOL     OW19345   8.041   9.962   6.757
 5838SOL    HW119346   7.955   9.933   6.788
 5838SOL    HW219347   8.100   9.890   6.780
 5839SOL     OW19348   4.740   3.249   7.083
 5839SOL    HW119349   4.835   3.258   7.082
 5839SOL    HW219350   4.718   3.243   7.176
 5840SOL     OW19351  10.101  12.157  11.159
 5840SOL    HW119352  10.066  12.121  11.240
 5840SOL    HW219353  10.169  12.095  11.133
 5841SOL     OW19354   8.214   5.797   7.656
 5841SOL    HW119355   8.133   5.765   7.615
 5841SOL    HW219356   8.245   5.723   7.708
 5842SOL     OW19357   2.738  12.697  11.910
 5842SOL    HW119358   2.651  12.664  11.885
 5842SOL    HW219359   2.786  12.619  11.937
 5843SOL     OW19360   1.285   6.395  14.657
 5843SOL    HW119361   1.307   6.329  14.723
 5843SOL    HW219362   1.205   6.362  14.616
 5844SOL     OW19363   5.204   9.737  14.508
 5844SOL    HW119364   5.242   9.651  14.493
 5844SOL    HW219365   5.170   9.732  14.598
 5845SOL     OW19366   1.838   1.523   0.119
 5845SOL    HW119367   1.833   1.598   0.178
 5845SOL    HW219368   1.763   1.532   0.061
 5846SOL     OW19369  12.524   8.674   5.959
 5846SOL    HW119370  12.536   8.626   5.877
 5846SOL    HW219371  12.450   8.731   5.943
 5847SOL     OW19372   2.497   4.522  13.455
 5847SOL    HW119373   2.525   4.431  13.466
 5847SOL    HW219374   2.572   4.565  13.415
 5848SOL     OW19375   3.877   9.109  11.627
 5848SOL    HW119376   3.781   9.108  11.624
 5848SOL    HW219377   3.902   9.160  11.550
 5849SOL     OW19378   4.080   3.562   6.095
 5849SOL    HW119379   4.099   3.469   6.086
 5849SOL    HW219380   3.985   3.567   6.098
 5850SOL     OW19381   5.984   4.559  14.062
 5850SOL    HW119382   5.991   4.507  13.982
 5850SOL    HW219383   5.903   4.528  14.103
 5851SOL     OW19384  12.175   0.072   7.110
 5851SOL    HW119385  12.235   0.118   7.052
 5851SOL    HW219386  12.122   0.018   7.052
 5852SOL     OW19387   5.247   3.192  10.803
 5852SOL    HW119388   5.274   3.113  10.850
 5852SOL    HW219389   5.182   3.161  10.739
 5853SOL     OW19390   8.797  14.047   2.675
 5853SOL    HW119391   8.775  14.088   2.591
 5853SOL    HW219392   8.715  14.007   2.704
 5854SOL     OW19393  11.762   6.888   8.042
 5854SOL    HW119394  11.818   6.831   8.095
 5854SOL    HW219395  11.673   6.858   8.060
 5855SOL     OW19396  14.260  11.378  10.797
 5855SOL    HW119397  14.305  11.463  10.787
 5855SOL    HW219398  14.330  11.316  10.815
 5856SOL     OW19399   1.889   9.708   8.429
 5856SOL    HW119400   1.980   9.736   8.429
 5856SOL    HW219401   1.844   9.771   8.485
 5857SOL     OW19402  12.100   9.058  10.440
 5857SOL    HW119403  12.107   9.129  10.504
 5857SOL    HW219404  12.037   9.089  10.376
 5858SOL     OW19405   0.767   1.413  14.169
 5858SOL    HW119406   0.807   1.469  14.236
 5858SOL    HW219407   0.802   1.325  14.188
 5859SOL     OW19408   4.468  11.873   7.479
 5859SOL    HW119409   4.506  11.903   7.396
 5859SOL    HW219410   4.464  11.778   7.470
 5860SOL     OW19411  12.910  11.462   8.967
 5860SOL    HW119412  12.924  11.551   8.998
 5860SOL    HW219413  12.815  11.455   8.956
 5861SOL     OW19414   6.519   5.846   4.436
 5861SOL    HW119415   6.511   5.937   4.407
 5861SOL    HW219416   6.461   5.840   4.512
 5862SOL     OW19417  11.109   4.386  10.907
 5862SOL    HW119418  11.185   4.328  10.910
 5862SOL    HW219419  11.034   4.328  10.919
 5863SOL     OW19420   5.640   6.641   7.290
 5863SOL    HW119421   5.670   6.566   7.341
 5863SOL    HW219422   5.616   6.706   7.357
 5864SOL     OW19423  13.895   1.955   3.289
 5864SOL    HW119424  13.962   1.971   3.355
 5864SOL    HW219425  13.880   1.860   3.293
 5865SOL     OW19426   4.288  10.004   6.297
 5865SOL    HW119427   4.377   9.984   6.324
 5865SOL    HW219428   4.277  10.097   6.314
 5866SOL     OW19429   3.648   9.083  11.059
 5866SOL    HW119430   3.727   9.056  11.011
 5866SOL    HW219431   3.583   9.016  11.038
 5867SOL     OW19432   4.757  13.846   9.191
 5867SOL    HW119433   4.803  13.914   9.240
 5867SOL    HW219434   4.787  13.763   9.230
 5868SOL     OW19435  10.515  12.955   1.321
 5868SOL    HW119436  10.536  13.048   1.309
 5868SOL    HW219437  10.600  12.912   1.330
 5869SOL     OW19438   3.981   4.164  14.546
 5869SOL    HW119439   4.031   4.200  14.473
 5869SOL    HW219440   3.979   4.070  14.529
 5870SOL     OW19441   9.068   6.176   6.685
 5870SOL    HW119442   9.101   6.258   6.649
 5870SOL    HW219443   9.032   6.199   6.771
 5871SOL     OW19444  13.140   0.001   4.651
 5871SOL    HW119445  13.194   0.068   4.694
 5871SOL    HW219446  13.099   0.047   4.577
 5872SOL     OW19447  14.297   7.770   2.125
 5872SOL    HW119448  14.272   7.800   2.213
 5872SOL    HW219449  14.228   7.709   2.100
 5873SOL     OW19450   4.847   7.332   8.669
 5873SOL    HW119451   4.902   7.360   8.741
 5873SOL    HW219452   4.897   7.356   8.590
 5874SOL     OW19453   8.572  11.044  14.755
 5874SOL    HW119454   8.483  11.017  14.776
 5874SOL    HW219455   8.588  11.007  14.668
 5875SOL     OW19456   3.243   9.399   4.261
 5875SOL    HW119457   3.218   9.441   4.179
 5875SOL    HW219458   3.221   9.306   4.248
 5876SOL     OW19459   5.313   5.992  10.125
 5876SOL    HW119460   5.265   6.059  10.174
 5876SOL    HW219461   5.402   6.025  10.120
 5877SOL     OW19462  12.351   7.570  12.348
 5877SOL    HW119463  12.424   7.510  12.365
 5877SOL    HW219464  12.371   7.609  12.263
 5878SOL     OW19465   6.001   5.850  12.088
 5878SOL    HW119466   5.982   5.857  11.994
 5878SOL    HW219467   5.926   5.802  12.124
 5879SOL     OW19468   6.772   7.043  13.309
 5879SOL    HW119469   6.862   7.063  13.283
 5879SOL    HW219470   6.726   7.127  13.305
 5880SOL     OW19471   0.709   1.545   2.790
 5880SOL    HW119472   0.657   1.597   2.729
 5880SOL    HW219473   0.787   1.520   2.741
 5881SOL     OW19474   1.135   3.818   4.124
 5881SOL    HW119475   1.091   3.885   4.176
 5881SOL    HW219476   1.224   3.851   4.113
 5882SOL     OW19477   4.211   1.204  12.135
 5882SOL    HW119478   4.208   1.210  12.230
 5882SOL    HW219479   4.249   1.118  12.117
 5883SOL     OW19480   1.948  10.874   7.359
 5883SOL    HW119481   1.855  10.879   7.380
 5883SOL    HW219482   1.986  10.822   7.429
 5884SOL     OW19483   9.291   3.889   5.305
 5884SOL    HW119484   9.351   3.963   5.312
 5884SOL    HW219485   9.219   3.911   5.363
 5885SOL     OW19486  13.325   7.183  11.299
 5885SOL    HW119487  13.232   7.204  11.310
 5885SOL    HW219488  13.371   7.255  11.342
 5886SOL     OW19489  14.435  10.418   0.594
 5886SOL    HW119490  14.432  10.474   0.517
 5886SOL    HW219491  14.460  10.477   0.666
 5887SOL     OW19492  10.045  12.973  12.853
 5887SOL    HW119493  10.070  12.998  12.764
 5887SOL    HW219494  10.048  12.877  12.853
 5888SOL     OW19495   8.340   1.619   8.945
 5888SOL    HW119496   8.300   1.534   8.962
 5888SOL    HW219497   8.434   1.605   8.960
 5889SOL     OW19498  13.343  10.199   4.364
 5889SOL    HW119499  13.359  10.293   4.356
 5889SOL    HW219500  13.331  10.169   4.274
 5890SOL     OW19501   8.919   4.609   2.492
 5890SOL    HW119502   8.944   4.585   2.403
 5890SOL    HW219503   8.851   4.675   2.480
 5891SOL     OW19504   3.687   0.011   8.607
 5891SOL    HW119505   3.646  14.868   8.692
 5891SOL    HW219506   3.617   0.049   8.554
 5892SOL     OW19507  10.805  10.754   1.230
 5892SOL    HW119508  10.757  10.766   1.312
 5892SOL    HW219509  10.873  10.821   1.231
 5893SOL     OW19510   9.347   2.579   7.097
 5893SOL    HW119511   9.340   2.506   7.159
 5893SOL    HW219512   9.346   2.536   7.011
 5894SOL     OW19513   8.157  10.849   2.975
 5894SOL    HW119514   8.218  10.832   2.903
 5894SOL    HW219515   8.135  10.762   3.009
 5895SOL     OW19516  10.763   6.039   9.315
 5895SOL    HW119517  10.747   6.066   9.405
 5895SOL    HW219518  10.842   6.087   9.289
 5896SOL     OW19519   7.859   0.717   6.684
 5896SOL    HW119520   7.898   0.753   6.763
 5896SOL    HW219521   7.934   0.685   6.633
 5897SOL     OW19522   5.490   9.238   1.317
 5897SOL    HW119523   5.560   9.283   1.269
 5897SOL    HW219524   5.420   9.228   1.252
 5898SOL     OW19525   2.510  11.374   9.815
 5898SOL    HW119526   2.552  11.403   9.895
 5898SOL    HW219527   2.569  11.307   9.780
 5899SOL     OW19528  14.044   0.185  13.026
 5899SOL    HW119529  14.010   0.182  13.115
 5899SOL    HW219530  14.076   0.096  13.010
 5900SOL     OW19531   7.723   0.073  12.472
 5900SOL    HW119532   7.695   0.058  12.381
 5900SOL    HW219533   7.754  14.864  12.502
 5901SOL     OW19534   5.182   0.249  12.692
 5901SOL    HW119535   5.158   0.227  12.602
 5901SOL    HW219536   5.194   0.164  12.735
 5902SOL     OW19537   1.758   6.379   9.560
 5902SOL    HW119538   1.782   6.393   9.651
 5902SOL    HW219539   1.765   6.465   9.519
 5903SOL     OW19540   7.158   7.383  12.838
 5903SOL    HW119541   7.189   7.309  12.889
 5903SOL    HW219542   7.238   7.432  12.815
 5904SOL     OW19543   7.334   7.038   3.316
 5904SOL    HW119544   7.418   7.024   3.360
 5904SOL    HW219545   7.357   7.081   3.234
 5905SOL     OW19546  12.497   7.343   7.861
 5905SOL    HW119547  12.589   7.332   7.886
 5905SOL    HW219548  12.474   7.259   7.821
 5906SOL     OW19549   5.756   4.163  11.756
 5906SOL    HW119550   5.844   4.142  11.788
 5906SOL    HW219551   5.712   4.078  11.751
 5907SOL     OW19552  12.771  13.054  11.691
 5907SOL    HW119553  12.795  12.989  11.757
 5907SOL    HW219554  12.826  13.034  11.616
 5908SOL     OW19555   6.658  12.998   5.054
 5908SOL    HW119556   6.654  13.056   5.130
 5908SOL    HW219557   6.735  13.028   5.005
 5909SOL     OW19558   3.158   4.660   8.695
 5909SOL    HW119559   3.187   4.739   8.648
 5909SOL    HW219560   3.239   4.622   8.730
 5910SOL     OW19561   7.618  13.690  13.535
 5910SOL    HW119562   7.608  13.784  13.552
 5910SOL    HW219563   7.694  13.685  13.476
 5911SOL     OW19564  13.560  13.424  10.735
 5911SOL    HW119565  13.488  13.394  10.679
 5911SOL    HW219566  13.548  13.376  10.817
 5912SOL     OW19567   9.024  13.008  11.380
 5912SOL    HW119568   9.057  12.952  11.450
 5912SOL    HW219569   9.051  13.096  11.405
 5913SOL     OW19570   2.181   5.186   4.702
 5913SOL    HW119571   2.221   5.258   4.652
 5913SOL    HW219572   2.143   5.129   4.635
 5914SOL     OW19573   3.300   4.662   5.141
 5914SOL    HW119574   3.345   4.746   5.135
 5914SOL    HW219575   3.254   4.653   5.058
 5915SOL     OW19576  10.481   2.353   4.337
 5915SOL    HW119577  10.521   2.316   4.415
 5915SOL    HW219578  10.427   2.281   4.301
 5916SOL     OW19579   3.607   4.212  11.774
 5916SOL    HW119580   3.564   4.127  11.763
 5916SOL    HW219581   3.556   4.272  11.719
 5917SOL     OW19582   5.619   7.471   1.350
 5917SOL    HW119583   5.538   7.422   1.337
 5917SOL    HW219584   5.687   7.404   1.357
 5918SOL     OW19585   5.919  10.988  10.036
 5918SOL    HW119586   5.889  10.968  10.125
 5918SOL    HW219587   5.964  11.072  10.044
 5919SOL     OW19588  11.072   5.688   2.955
 5919SOL    HW119589  11.058   5.746   3.030
 5919SOL    HW219590  11.104   5.746   2.885
 5920SOL     OW19591   8.306   6.122  10.709
 5920SOL    HW119592   8.269   6.113  10.622
 5920SOL    HW219593   8.285   6.039  10.753
 5921SOL     OW19594   1.939   6.615  11.623
 5921SOL    HW119595   2.033   6.616  11.640
 5921SOL    HW219596   1.898   6.621  11.709
 5922SOL     OW19597   7.996   1.081   9.637
 5922SOL    HW119598   7.910   1.046   9.616
 5922SOL    HW219599   8.054   1.004   9.636
 5923SOL     OW19600   9.484   7.693   4.787
 5923SOL    HW119601   9.404   7.743   4.807
 5923SOL    HW219602   9.472   7.610   4.833
 5924SOL     OW19603   4.159   5.679   8.052
 5924SOL    HW119604   4.124   5.766   8.074
 5924SOL    HW219605   4.100   5.646   7.984
 5925SOL     OW19606   2.606   2.948  14.492
 5925SOL    HW119607   2.700   2.955  14.506
 5925SOL    HW219608   2.580   2.874  14.547
 5926SOL     OW19609  12.687   9.783   7.144
 5926SOL    HW119610  12.773   9.741   7.142
 5926SOL    HW219611  12.625   9.710   7.150
 5927SOL     OW19612   6.558  11.048   8.286
 5927SOL    HW119613   6.468  11.052   8.319
 5927SOL    HW219614   6.588  10.960   8.307
 5928SOL     OW19615  12.420   7.573   3.906
 5928SOL    HW119616  12.377   7.658   3.903
 5928SOL    HW219617  12.366   7.516   3.851
 5929SOL     OW19618   7.979  11.447   4.784
 5929SOL    HW119619   8.036  11.379   4.748
 5929SOL    HW219620   7.897  11.438   4.735
 5930SOL     OW19621   4.697   4.415  12.756
 5930SOL    HW119622   4.735   4.429  12.670
 5930SOL    HW219623   4.647   4.495  12.773
 5931SOL     OW19624   0.415   2.075   1.579
 5931SOL    HW119625   0.454   2.087   1.666
 5931SOL    HW219626   0.321   2.080   1.594
 5932SOL     OW19627   7.690   9.482   7.085
 5932SOL    HW119628   7.649   9.447   7.164
 5932SOL    HW219629   7.714   9.405   7.034
 5933SOL     OW19630  13.547  11.921  13.553
 5933SOL    HW119631  13.582  11.862  13.487
 5933SOL    HW219632  13.535  12.004  13.508
 5934SOL     OW19633  14.419   8.277   4.034
 5934SOL    HW119634  14.479   8.279   3.960
 5934SOL    HW219635  14.469   8.315   4.107
 5935SOL     OW19636   2.031   5.772  14.266
 5935SOL    HW119637   1.940   5.772  14.238
 5935SOL    HW219638   2.030   5.807  14.355
 5936SOL     OW19639  14.559   4.461  13.561
 5936SOL    HW119640  14.626   4.511  13.515
 5936SOL    HW219641  14.606   4.413  13.629
 5937SOL     OW19642  14.520   3.950   8.843
 5937SOL    HW119643  14.568   3.923   8.765
 5937SOL    HW219644  14.473   3.872   8.870
 5938SOL     OW19645   1.364  10.919  12.100
 5938SOL    HW119646   1.439  10.907  12.042
 5938SOL    HW219647   1.299  10.965  12.046
 5939SOL     OW19648   6.985   1.559   7.198
 5939SOL    HW119649   7.009   1.470   7.223
 5939SOL    HW219650   6.931   1.549   7.120
 5940SOL     OW19651  11.057   2.007   0.021
 5940SOL    HW119652  11.076   2.091  14.854
 5940SOL    HW219653  11.130   1.951  14.873
 5941SOL     OW19654  10.110   0.792  13.601
 5941SOL    HW119655  10.102   0.754  13.689
 5941SOL    HW219656  10.158   0.874  13.614
 5942SOL     OW19657  11.543   0.726   2.341
 5942SOL    HW119658  11.622   0.772   2.312
 5942SOL    HW219659  11.482   0.736   2.269
 5943SOL     OW19660   1.615  13.725  12.622
 5943SOL    HW119661   1.626  13.769  12.537
 5943SOL    HW219662   1.663  13.642  12.612
 5944SOL     OW19663   4.463  13.425   6.769
 5944SOL    HW119664   4.425  13.506   6.803
 5944SOL    HW219665   4.453  13.432   6.674
 5945SOL     OW19666  11.210   5.810   4.779
 5945SOL    HW119667  11.180   5.895   4.748
 5945SOL    HW219668  11.291   5.794   4.732
 5946SOL     OW19669  13.133   4.985  13.995
 5946SOL    HW119670  13.112   4.892  13.989
 5946SOL    HW219671  13.229   4.987  13.992
 5947SOL     OW19672   7.550   2.407   5.015
 5947SOL    HW119673   7.584   2.393   5.103
 5947SOL    HW219674   7.488   2.335   5.002
 5948SOL     OW19675  14.813   0.081  11.044
 5948SOL    HW119676  14.733   0.029  11.032
 5948SOL    HW219677  14.813   0.104  11.137
 5949SOL     OW19678   7.824  11.500   8.507
 5949SOL    HW119679   7.767  11.573   8.481
 5949SOL    HW219680   7.808  11.433   8.440
 5950SOL     OW19681  11.795  14.354   7.301
 5950SOL    HW119682  11.861  14.370   7.369
 5950SOL    HW219683  11.712  14.374   7.344
 5951SOL     OW19684  10.061   6.198   9.039
 5951SOL    HW119685  10.015   6.161   8.964
 5951SOL    HW219686  10.053   6.293   9.027
 5952SOL     OW19687   5.674  12.865  10.738
 5952SOL    HW119688   5.755  12.813  10.740
 5952SOL    HW219689   5.699  12.948  10.779
 5953SOL     OW19690   3.481  12.669  13.132
 5953SOL    HW119691   3.543  12.741  13.131
 5953SOL    HW219692   3.395  12.711  13.130
 5954SOL     OW19693   4.713   6.797   7.797
 5954SOL    HW119694   4.712   6.777   7.891
 5954SOL    HW219695   4.805   6.814   7.777
 5955SOL     OW19696   5.023  10.289   7.827
 5955SOL    HW119697   5.091  10.354   7.848
 5955SOL    HW219698   4.943  10.340   7.818
 5956SOL     OW19699   3.763  12.106   5.712
 5956SOL    HW119700   3.825  12.040   5.744
 5956SOL    HW219701   3.770  12.177   5.776
 5957SOL     OW19702   6.468   1.643  11.004
 5957SOL    HW119703   6.560   1.647  10.979
 5957SOL    HW219704   6.465   1.676  11.094
 5958SOL     OW19705   5.963   0.518  12.475
 5958SOL    HW119706   5.882   0.473  12.498
 5958SOL    HW219707   5.978   0.494  12.383
 5959SOL     OW19708  10.072  12.029   4.231
 5959SOL    HW119709  10.062  11.982   4.314
 5959SOL    HW219710  10.018  11.980   4.169
 5960SOL     OW19711   5.126   1.850   8.400
 5960SOL    HW119712   5.052   1.818   8.452
 5960SOL    HW219713   5.199   1.794   8.425
 5961SOL     OW19714   9.718  14.544   6.306
 5961SOL    HW119715   9.755  14.521   6.221
 5961SOL    HW219716   9.669  14.466   6.333
 5962SOL     OW19717   0.214   5.601   3.441
 5962SOL    HW119718   0.159   5.573   3.368
 5962SOL    HW219719   0.300   5.613   3.403
 5963SOL     OW19720   9.083   7.104   6.351
 5963SOL    HW119721   9.016   7.066   6.408
 5963SOL    HW219722   9.125   7.028   6.310
 5964SOL     OW19723   3.262  13.095  12.564
 5964SOL    HW119724   3.234  13.179  12.528
 5964SOL    HW219725   3.278  13.040  12.487
 5965SOL     OW19726   0.431  13.245  13.244
 5965SOL    HW119727   0.385  13.323  13.274
 5965SOL    HW219728   0.397  13.174  13.299
 5966SOL     OW19729   3.193  11.641   9.309
 5966SOL    HW119730   3.287  11.651   9.295
 5966SOL    HW219731   3.167  11.718   9.359
 5967SOL     OW19732   1.605   8.104   7.777
 5967SOL    HW119733   1.534   8.052   7.815
 5967SOL    HW219734   1.675   8.040   7.761
 5968SOL     OW19735   6.047  11.860  13.069
 5968SOL    HW119736   6.052  11.875  12.974
 5968SOL    HW219737   6.078  11.942  13.108
 5969SOL     OW19738   5.909   3.109   9.665
 5969SOL    HW119739   5.957   3.135   9.587
 5969SOL    HW219740   5.859   3.031   9.638
 5970SOL     OW19741  14.375  13.583   2.681
 5970SOL    HW119742  14.396  13.601   2.589
 5970SOL    HW219743  14.303  13.644   2.701
 5971SOL     OW19744   1.659  14.106   1.345
 5971SOL    HW119745   1.585  14.057   1.308
 5971SOL    HW219746   1.619  14.174   1.398
 5972SOL     OW19747   8.200   6.088  14.859
 5972SOL    HW119748   8.108   6.078  14.837
 5972SOL    HW219749   8.229   6.000   0.007
 5973SOL     OW19750   1.760  11.401   6.388
 5973SOL    HW119751   1.727  11.369   6.472
 5973SOL    HW219752   1.701  11.472   6.365
 5974SOL     OW19753   8.943   0.563   6.770
 5974SOL    HW119754   8.874   0.598   6.826
 5974SOL    HW219755   8.959   0.632   6.705
 5975SOL     OW19756  11.119   8.895  10.630
 5975SOL    HW119757  11.047   8.915  10.569
 5975SOL    HW219758  11.095   8.809  10.666
 5976SOL     OW19759  13.531   6.612  10.645
 5976SOL    HW119760  13.617   6.650  10.663
 5976SOL    HW219761  13.493   6.596  10.732
 5977SOL     OW19762  12.479   2.969  13.639
 5977SOL    HW119763  12.449   3.011  13.720
 5977SOL    HW219764  12.528   2.892  13.670
 5978SOL     OW19765   9.535   2.608  14.115
 5978SOL    HW119766   9.447   2.610  14.152
 5978SOL    HW219767   9.580   2.540  14.165
 5979SOL     OW19768   1.597   3.129   2.452
 5979SOL    HW119769   1.516   3.123   2.401
 5979SOL    HW219770   1.656   3.179   2.396
 5980SOL     OW19771   5.023  12.857  10.703
 5980SOL    HW119772   5.103  12.908  10.690
 5980SOL    HW219773   5.014  12.850  10.798
 5981SOL     OW19774   5.760   6.031   5.479
 5981SOL    HW119775   5.840   6.053   5.526
 5981SOL    HW219776   5.765   5.936   5.466
 5982SOL     OW19777   8.286   8.208   1.272
 5982SOL    HW119778   8.219   8.237   1.210
 5982SOL    HW219779   8.327   8.289   1.302
 5983SOL     OW19780   1.132  12.695  13.502
 5983SOL    HW119781   1.134  12.789  13.518
 5983SOL    HW219782   1.199  12.659  13.561
 5984SOL     OW19783   0.444   1.716   5.967
 5984SOL    HW119784   0.488   1.633   5.985
 5984SOL    HW219785   0.516   1.777   5.946
 5985SOL     OW19786   2.845   5.261   1.768
 5985SOL    HW119787   2.776   5.325   1.787
 5985SOL    HW219788   2.922   5.294   1.816
 5986SOL     OW19789   0.610   3.973  11.708
 5986SOL    HW119790   0.652   3.887  11.711
 5986SOL    HW219791   0.676   4.030  11.669
 5987SOL     OW19792   2.988  13.030   3.970
 5987SOL    HW119793   3.013  12.937   3.970
 5987SOL    HW219794   3.023  13.063   4.053
 5988SOL     OW19795  12.938   6.279   4.466
 5988SOL    HW119796  12.926   6.235   4.550
 5988SOL    HW219797  12.952   6.371   4.489
 5989SOL     OW19798  10.361   5.639  14.066
 5989SOL    HW119799  10.275   5.655  14.104
 5989SOL    HW219800  10.422   5.646  14.139
 5990SOL     OW19801  14.252  13.576   9.052
 5990SOL    HW119802  14.245  13.503   8.991
 5990SOL    HW219803  14.174  13.568   9.107
 5991SOL     OW19804  13.639   1.905  13.565
 5991SOL    HW119805  13.611   1.997  13.562
 5991SOL    HW219806  13.689   1.893  13.485
 5992SOL     OW19807  11.584  10.102   8.376
 5992SOL    HW119808  11.520  10.152   8.427
 5992SOL    HW219809  11.633  10.169   8.328
 5993SOL     OW19810   7.946   2.856   6.254
 5993SOL    HW119811   7.961   2.796   6.328
 5993SOL    HW219812   7.865   2.902   6.276
 5994SOL     OW19813  13.579   9.509   8.654
 5994SOL    HW119814  13.531   9.531   8.574
 5994SOL    HW219815  13.598   9.594   8.694
 5995SOL     OW19816   9.583  12.710   6.553
 5995SOL    HW119817   9.580  12.757   6.470
 5995SOL    HW219818   9.570  12.778   6.619
 5996SOL     OW19819   2.170   5.332   3.033
 5996SOL    HW119820   2.181   5.425   3.054
 5996SOL    HW219821   2.157   5.330   2.938
 5997SOL     OW19822  10.915   3.695  10.550
 5997SOL    HW119823  10.837   3.749  10.534
 5997SOL    HW219824  10.988   3.757  10.551
 5998SOL     OW19825  13.083  10.727   2.872
 5998SOL    HW119826  13.040  10.759   2.951
 5998SOL    HW219827  13.077  10.632   2.878
 5999SOL     OW19828   9.782  13.981  14.186
 5999SOL    HW119829   9.738  14.024  14.260
 5999SOL    HW219830   9.767  13.888  14.200
 6000SOL     OW19831   5.716  10.247  12.766
 6000SOL    HW119832   5.762  10.308  12.823
 6000SOL    HW219833   5.642  10.297  12.731
 6001SOL     OW19834   6.464   7.001   0.654
 6001SOL    HW119835   6.461   6.907   0.671
 6001SOL    HW219836   6.525   7.035   0.720
 6002SOL     OW19837   8.760   9.930   4.076
 6002SOL    HW119838   8.673   9.893   4.088
 6002SOL    HW219839   8.755   9.980   3.995
 6003SOL     OW19840   9.190  14.754   3.813
 6003SOL    HW119841   9.174  14.662   3.793
 6003SOL    HW219842   9.203  14.795   3.728
 6004SOL     OW19843   1.468   8.806   6.045
 6004SOL    HW119844   1.489   8.899   6.033
 6004SOL    HW219845   1.525   8.761   5.982
 6005SOL     OW19846  12.943   4.799   8.726
 6005SOL    HW119847  13.038   4.793   8.716
 6005SOL    HW219848  12.929   4.799   8.820
 6006SOL     OW19849  11.632  14.720  12.660
 6006SOL    HW119850  11.601  14.786  12.722
 6006SOL    HW219851  11.713  14.686  12.699
 6007SOL     OW19852   5.953  13.773   0.818
 6007SOL    HW119853   5.965  13.859   0.777
 6007SOL    HW219854   6.014  13.715   0.771
 6008SOL     OW19855   6.848  13.643  12.964
 6008SOL    HW119856   6.801  13.660  13.045
 6008SOL    HW219857   6.916  13.580  12.988
 6009SOL     OW19858   9.751  13.331   4.442
 6009SOL    HW119859   9.658  13.316   4.424
 6009SOL    HW219860   9.758  13.426   4.454
 6010SOL     OW19861  12.587  13.697   7.889
 6010SOL    HW119862  12.570  13.607   7.863
 6010SOL    HW219863  12.618  13.691   7.980
 6011SOL     OW19864  13.005  10.960   2.045
 6011SOL    HW119865  12.915  10.936   2.068
 6011SOL    HW219866  13.036  10.888   1.991
 6012SOL     OW19867   5.852   7.149   0.875
 6012SOL    HW119868   5.781   7.179   0.932
 6012SOL    HW219869   5.809   7.125   0.794
 6013SOL     OW19870   1.319  14.594   4.330
 6013SOL    HW119871   1.412  14.582   4.349
 6013SOL    HW219872   1.311  14.686   4.307
 6014SOL     OW19873  10.534   1.783   0.615
 6014SOL    HW119874  10.485   1.724   0.672
 6014SOL    HW219875  10.554   1.858   0.671
 6015SOL     OW19876  11.318   1.307   0.301
 6015SOL    HW119877  11.249   1.314   0.235
 6015SOL    HW219878  11.271   1.306   0.384
 6016SOL     OW19879   1.214   6.270  12.647
 6016SOL    HW119880   1.260   6.205  12.594
 6016SOL    HW219881   1.186   6.337  12.584
 6017SOL     OW19882  12.322   3.349   9.664
 6017SOL    HW119883  12.322   3.278   9.728
 6017SOL    HW219884  12.261   3.414   9.701
 6018SOL     OW19885   0.052   2.429   2.467
 6018SOL    HW119886   0.067   2.507   2.413
 6018SOL    HW219887   0.090   2.357   2.416
 6019SOL     OW19888   6.537   0.902   6.638
 6019SOL    HW119889   6.488   0.883   6.719
 6019SOL    HW219890   6.509   0.990   6.613
 6020SOL     OW19891   6.294  13.454  10.422
 6020SOL    HW119892   6.310  13.421  10.334
 6020SOL    HW219893   6.212  13.503  10.415
 6021SOL     OW19894   2.053  13.247   5.513
 6021SOL    HW119895   2.143  13.275   5.494
 6021SOL    HW219896   2.021  13.310   5.577
 6022SOL     OW19897   5.534   6.768  13.371
 6022SOL    HW119898   5.442   6.757  13.395
 6022SOL    HW219899   5.535   6.764  13.276
 6023SOL     OW19900   9.426   8.736  14.456
 6023SOL    HW119901   9.405   8.789  14.533
 6023SOL    HW219902   9.497   8.784  14.413
 6024SOL     OW19903   1.263   5.637   3.852
 6024SOL    HW119904   1.275   5.552   3.895
 6024SOL    HW219905   1.348   5.656   3.811
 6025SOL     OW19906   7.996  11.722  12.140
 6025SOL    HW119907   8.065  11.713  12.206
 6025SOL    HW219908   7.940  11.646  12.154
 6026SOL     OW19909   4.124  13.568   9.909
 6026SOL    HW119910   4.120  13.639   9.974
 6026SOL    HW219911   4.045  13.517   9.925
 6027SOL     OW19912   7.453   1.193   9.219
 6027SOL    HW119913   7.381   1.209   9.157
 6027SOL    HW219914   7.430   1.110   9.260
 6028SOL     OW19915   6.186   1.087  11.263
 6028SOL    HW119916   6.264   1.035  11.283
 6028SOL    HW219917   6.175   1.143  11.340
 6029SOL     OW19918  11.907  14.363   9.043
 6029SOL    HW119919  11.931  14.317   8.962
 6029SOL    HW219920  11.932  14.303   9.113
 6030SOL     OW19921   0.375  12.584   5.115
 6030SOL    HW119922   0.427  12.529   5.056
 6030SOL    HW219923   0.321  12.637   5.057
 6031SOL     OW19924  13.346   1.574   4.388
 6031SOL    HW119925  13.335   1.667   4.407
 6031SOL    HW219926  13.440   1.564   4.375
 6032SOL     OW19927  11.474   4.209  12.339
 6032SOL    HW119928  11.394   4.172  12.300
 6032SOL    HW219929  11.479   4.298  12.304
 6033SOL     OW19930  14.747   6.137   6.792
 6033SOL    HW119931  14.793   6.155   6.710
 6033SOL    HW219932  14.690   6.213   6.804
 6034SOL     OW19933   7.375   5.445   4.177
 6034SOL    HW119934   7.348   5.458   4.268
 6034SOL    HW219935   7.335   5.361   4.152
 6035SOL     OW19936   5.299  14.441  12.304
 6035SOL    HW119937   5.368  14.507  12.309
 6035SOL    HW219938   5.233  14.479  12.247
 6036SOL     OW19939   1.152   1.612   2.876
 6036SOL    HW119940   1.109   1.669   2.940
 6036SOL    HW219941   1.083   1.553   2.847
 6037SOL     OW19942  10.681  14.111   4.882
 6037SOL    HW119943  10.756  14.065   4.845
 6037SOL    HW219944  10.609  14.048   4.874
 6038SOL     OW19945   0.308   2.488   2.317
 6038SOL    HW119946   0.242   2.558   2.322
 6038SOL    HW219947   0.266   2.418   2.268
 6039SOL     OW19948   4.969   8.940  14.454
 6039SOL    HW119949   4.958   8.845  14.449
 6039SOL    HW219950   4.929   8.964  14.537
 6040SOL     OW19951  13.401  11.968  14.293
 6040SOL    HW119952  13.418  12.057  14.322
 6040SOL    HW219953  13.480  11.920  14.316
 6041SOL     OW19954  12.273   1.854   9.435
 6041SOL    HW119955  12.274   1.758   9.439
 6041SOL    HW219956  12.284   1.881   9.526
 6042SOL     OW19957   9.849   6.048   4.178
 6042SOL    HW119958   9.937   6.011   4.176
 6042SOL    HW219959   9.846   6.105   4.101
 6043SOL     OW19960   5.661  11.472  13.765
 6043SOL    HW119961   5.581  11.428  13.794
 6043SOL    HW219962   5.635  11.520  13.686
 6044SOL     OW19963   5.154  14.276   0.781
 6044SOL    HW119964   5.082  14.215   0.767
 6044SOL    HW219965   5.192  14.289   0.695
 6045SOL     OW19966  13.130  14.312   6.763
 6045SOL    HW119967  13.160  14.369   6.834
 6045SOL    HW219968  13.035  14.317   6.766
 6046SOL     OW19969   5.795   4.195  13.065
 6046SOL    HW119970   5.792   4.099  13.067
 6046SOL    HW219971   5.708   4.221  13.035
 6047SOL     OW19972  14.744  11.966   6.669
 6047SOL    HW119973  14.690  11.901   6.623
 6047SOL    HW219974  14.756  11.930   6.756
 6048SOL     OW19975   2.943   0.726   6.043
 6048SOL    HW119976   2.873   0.675   6.001
 6048SOL    HW219977   3.001   0.660   6.081
 6049SOL     OW19978   6.527  14.262   2.722
 6049SOL    HW119979   6.438  14.251   2.756
 6049SOL    HW219980   6.583  14.220   2.787
 6050SOL     OW19981  14.617   6.526   1.818
 6050SOL    HW119982  14.558   6.462   1.777
 6050SOL    HW219983  14.575   6.611   1.803
 6051SOL     OW19984   1.216  14.822   5.477
 6051SOL    HW119985   1.198  14.739   5.432
 6051SOL    HW219986   1.253  14.796   5.561
 6052SOL     OW19987   4.242  12.822   8.759
 6052SOL    HW119988   4.231  12.912   8.730
 6052SOL    HW219989   4.211  12.769   8.686
 6053SOL     OW19990   7.375  14.569   2.961
 6053SOL    HW119991   7.464  14.539   2.941
 6053SOL    HW219992   7.359  14.640   2.898
 6054SOL     OW19993   0.685   1.909   9.026
 6054SOL    HW119994   0.725   1.965   8.959
 6054SOL    HW219995   0.752   1.844   9.046
 6055SOL     OW19996   1.363   7.334   1.298
 6055SOL    HW119997   1.420   7.411   1.298
 6055SOL    HW219998   1.400   7.277   1.366
 6056SOL     OW19999   7.768  14.789   9.101
 6056SOL    HW120000   7.745  14.699   9.123
 6056SOL    HW220001   7.849  14.806   9.149
 6057SOL     OW20002   0.488   1.483   1.817
 6057SOL    HW120003   0.528   1.410   1.770
 6057SOL    HW220004   0.562   1.536   1.846
 6058SOL     OW20005   0.930  14.441  10.562
 6058SOL    HW120006   0.902  14.500  10.492
 6058SOL    HW220007   0.946  14.498  10.637
 6059SOL     OW20008   0.700   3.637   5.668
 6059SOL    HW120009   0.647   3.602   5.740
 6059SOL    HW220010   0.704   3.566   5.604
 6060SOL     OW20011  10.105   6.334   9.870
 6060SOL    HW120012  10.085   6.311   9.779
 6060SOL    HW220013  10.025   6.374   9.903
 6061SOL     OW20014   8.795   6.483   9.684
 6061SOL    HW120015   8.732   6.527   9.628
 6061SOL    HW220016   8.743   6.425   9.739
 6062SOL     OW20017   4.737  10.186  11.161
 6062SOL    HW120018   4.792  10.237  11.221
 6062SOL    HW220019   4.692  10.123  11.217
 6063SOL     OW20020   2.519   3.856   6.582
 6063SOL    HW120021   2.565   3.791   6.530
 6063SOL    HW220022   2.529   3.938   6.533
 6064SOL     OW20023   0.335   5.868   4.881
 6064SOL    HW120024   0.428   5.850   4.875
 6064SOL    HW220025   0.293   5.783   4.863
 6065SOL     OW20026  11.218  12.599  13.039
 6065SOL    HW120027  11.149  12.538  13.015
 6065SOL    HW220028  11.267  12.614  12.958
 6066SOL     OW20029   8.404  14.872   6.098
 6066SOL    HW120030   8.401  14.854   6.192
 6066SOL    HW220031   8.483   0.050   6.086
 6067SOL     OW20032   4.653   9.162  14.686
 6067SOL    HW120033   4.656   9.143  14.592
 6067SOL    HW220034   4.675   9.255  14.692
 6068SOL     OW20035  10.158   7.276  10.317
 6068SOL    HW120036  10.194   7.263  10.405
 6068SOL    HW220037  10.087   7.212  10.311
 6069SOL     OW20038  13.359  11.240   2.745
 6069SOL    HW120039  13.272  11.277   2.728
 6069SOL    HW220040  13.343  11.176   2.815
 6070SOL     OW20041   2.043   1.333   9.711
 6070SOL    HW120042   1.993   1.265   9.665
 6070SOL    HW220043   1.978   1.374   9.768
 6071SOL     OW20044   9.622   6.587   1.536
 6071SOL    HW120045   9.531   6.559   1.532
 6071SOL    HW220046   9.665   6.539   1.465
 6072SOL     OW20047   3.899   2.339   1.234
 6072SOL    HW120048   3.869   2.402   1.299
 6072SOL    HW220049   3.866   2.372   1.150
 6073SOL     OW20050   0.122  12.887   3.907
 6073SOL    HW120051   0.049  12.914   3.852
 6073SOL    HW220052   0.190  12.952   3.889
 6074SOL     OW20053  12.352   9.269   5.685
 6074SOL    HW120054  12.397   9.276   5.769
 6074SOL    HW220055  12.286   9.202   5.698
 6075SOL     OW20056   7.361   1.237  10.470
 6075SOL    HW120057   7.349   1.142  10.461
 6075SOL    HW220058   7.453   1.248  10.492
 6076SOL     OW20059   3.511   3.542   3.556
 6076SOL    HW120060   3.593   3.591   3.548
 6076SOL    HW220061   3.530   3.474   3.620
 6077SOL     OW20062   6.158   2.055  10.392
 6077SOL    HW120063   6.248   2.047  10.362
 6077SOL    HW220064   6.165   2.072  10.486
 6078SOL     OW20065   8.187   5.423   8.479
 6078SOL    HW120066   8.112   5.470   8.444
 6078SOL    HW220067   8.209   5.468   8.560
 6079SOL     OW20068   2.032   2.680  10.508
 6079SOL    HW120069   2.081   2.739  10.451
 6079SOL    HW220070   2.098   2.636  10.561
 6080SOL     OW20071  13.981   7.976   0.767
 6080SOL    HW120072  13.946   7.889   0.783
 6080SOL    HW220073  13.981   7.986   0.672
 6081SOL     OW20074  10.336   9.656  13.431
 6081SOL    HW120075  10.402   9.672  13.363
 6081SOL    HW220076  10.303   9.743  13.453
 6082SOL     OW20077   6.426   1.011  10.560
 6082SOL    HW120078   6.471   0.948  10.616
 6082SOL    HW220079   6.353   1.043  10.613
 6083SOL     OW20080   0.650  14.295  14.393
 6083SOL    HW120081   0.685  14.379  14.364
 6083SOL    HW220082   0.582  14.318  14.458
 6084SOL     OW20083   3.224  13.004   2.552
 6084SOL    HW120084   3.280  13.054   2.493
 6084SOL    HW220085   3.277  12.991   2.631
 6085SOL     OW20086   3.035   6.344   8.172
 6085SOL    HW120087   3.026   6.254   8.140
 6085SOL    HW220088   2.972   6.350   8.244
 6086SOL     OW20089   2.608   2.252   9.309
 6086SOL    HW120090   2.671   2.180   9.315
 6086SOL    HW220091   2.542   2.221   9.248
 6087SOL     OW20092  13.977   4.375   2.919
 6087SOL    HW120093  13.973   4.471   2.915
 6087SOL    HW220094  14.038   4.351   2.850
 6088SOL     OW20095   6.756  14.669   9.558
 6088SOL    HW120096   6.792  14.757   9.570
 6088SOL    HW220097   6.820  14.612   9.600
 6089SOL     OW20098   0.362   8.887   2.894
 6089SOL    HW120099   0.279   8.846   2.919
 6089SOL    HW220100   0.347   8.981   2.909
 6090SOL     OW20101  12.511   0.731  14.091
 6090SOL    HW120102  12.557   0.724  14.007
 6090SOL    HW220103  12.509   0.825  14.109
 6091SOL     OW20104   5.606  13.591  11.772
 6091SOL    HW120105   5.644  13.658  11.829
 6091SOL    HW220106   5.645  13.608  11.686
 6092SOL     OW20107   5.731  14.035  12.018
 6092SOL    HW120108   5.734  14.082  11.934
 6092SOL    HW220109   5.674  14.088  12.073
 6093SOL     OW20110   8.468  14.008   2.318
 6093SOL    HW120111   8.517  13.933   2.284
 6093SOL    HW220112   8.468  14.072   2.247
 6094SOL     OW20113  12.397  10.815   2.704
 6094SOL    HW120114  12.327  10.872   2.673
 6094SOL    HW220115  12.473  10.839   2.651
 6095SOL     OW20116   5.455   3.826   4.150
 6095SOL    HW120117   5.422   3.782   4.071
 6095SOL    HW220118   5.462   3.918   4.125
 6096SOL     OW20119   3.779   2.097   1.436
 6096SOL    HW120120   3.802   2.182   1.397
 6096SOL    HW220121   3.708   2.064   1.382
 6097SOL     OW20122   7.521   0.946   0.737
 6097SOL    HW120123   7.506   1.037   0.763
 6097SOL    HW220124   7.461   0.895   0.791
 6098SOL     OW20125  14.106  10.936   2.804
 6098SOL    HW120126  14.175  10.906   2.745
 6098SOL    HW220127  14.087  10.860   2.859
 6099SOL     OW20128   5.345   4.401   4.328
 6099SOL    HW120129   5.406   4.465   4.292
 6099SOL    HW220130   5.307   4.444   4.405
 6100SOL     OW20131   2.486   9.382   3.678
 6100SOL    HW120132   2.413   9.443   3.684
 6100SOL    HW220133   2.560   9.430   3.714
 6101SOL     OW20134  11.282   9.090   0.393
 6101SOL    HW120135  11.244   9.002   0.392
 6101SOL    HW220136  11.295   9.112   0.301
 6102SOL     OW20137   1.697   9.067  13.922
 6102SOL    HW120138   1.688   9.091  13.829
 6102SOL    HW220139   1.710   9.150  13.967
 6103SOL     OW20140  12.910   5.915   4.673
 6103SOL    HW120141  12.853   5.907   4.750
 6103SOL    HW220142  12.949   6.002   4.681
 6104SOL     OW20143   6.814   0.706   8.974
 6104SOL    HW120144   6.808   0.624   8.925
 6104SOL    HW220145   6.901   0.740   8.954
 6105SOL     OW20146   6.256   0.126   9.570
 6105SOL    HW120147   6.310   0.194   9.530
 6105SOL    HW220148   6.170   0.167   9.580
 6106SOL     OW20149   5.407   3.937   9.795
 6106SOL    HW120150   5.358   3.864   9.832
 6106SOL    HW220151   5.453   3.898   9.720
 6107SOL     OW20152  14.005   0.977   0.608
 6107SOL    HW120153  13.991   0.903   0.667
 6107SOL    HW220154  13.959   1.050   0.650
 6108SOL     OW20155   3.493   4.148   2.173
 6108SOL    HW120156   3.572   4.190   2.208
 6108SOL    HW220157   3.526   4.089   2.106
 6109SOL     OW20158   4.390   5.101  10.671
 6109SOL    HW120159   4.426   5.186  10.646
 6109SOL    HW220160   4.368   5.111  10.764
 6110SOL     OW20161  11.278  12.356   2.101
 6110SOL    HW120162  11.295  12.408   2.023
 6110SOL    HW220163  11.187  12.327   2.090
 6111SOL     OW20164   9.125  12.491  11.476
 6111SOL    HW120165   9.046  12.540  11.500
 6111SOL    HW220166   9.101  12.400  11.491
 6112SOL     OW20167   9.678   0.458   8.097
 6112SOL    HW120168   9.589   0.487   8.119
 6112SOL    HW220169   9.664   0.380   8.043
 6113SOL     OW20170   2.817  10.426  14.309
 6113SOL    HW120171   2.754  10.364  14.343
 6113SOL    HW220172   2.770  10.475  14.242
 6114SOL     OW20173   4.842   6.395   6.958
 6114SOL    HW120174   4.756   6.405   6.999
 6114SOL    HW220175   4.867   6.484   6.934
 6115SOL     OW20176   5.660   0.183  14.470
 6115SOL    HW120177   5.691   0.182  14.379
 6115SOL    HW220178   5.673   0.094  14.501
 6116SOL     OW20179   0.314   1.056   1.675
 6116SOL    HW120180   0.395   1.016   1.708
 6116SOL    HW220181   0.248   0.989   1.689
 6117SOL     OW20182   2.428   9.334   8.161
 6117SOL    HW120183   2.397   9.247   8.187
 6117SOL    HW220184   2.464   9.371   8.241
 6118SOL     OW20185   4.469   3.211   9.416
 6118SOL    HW120186   4.545   3.155   9.434
 6118SOL    HW220187   4.494   3.297   9.450
 6119SOL     OW20188   1.996   5.688   4.180
 6119SOL    HW120189   2.056   5.761   4.195
 6119SOL    HW220190   2.019   5.624   4.247
 6120SOL     OW20191  14.261   6.756   6.851
 6120SOL    HW120192  14.243   6.812   6.776
 6120SOL    HW220193  14.230   6.669   6.824
 6121SOL     OW20194   2.536  10.291   1.295
 6121SOL    HW120195   2.465  10.252   1.244
 6121SOL    HW220196   2.613  10.283   1.239
 6122SOL     OW20197   6.234   8.380   1.333
 6122SOL    HW120198   6.176   8.335   1.393
 6122SOL    HW220199   6.214   8.343   1.247
 6123SOL     OW20200   6.300  10.558   8.093
 6123SOL    HW120201   6.354  10.482   8.117
 6123SOL    HW220202   6.266  10.536   8.006
 6124SOL     OW20203   8.846  13.012  14.700
 6124SOL    HW120204   8.940  12.998  14.690
 6124SOL    HW220205   8.839  13.097  14.744
 6125SOL     OW20206  13.459   5.483   7.212
 6125SOL    HW120207  13.400   5.412   7.188
 6125SOL    HW220208  13.410   5.534   7.277
 6126SOL     OW20209  12.221   9.109  14.128
 6126SOL    HW120210  12.231   9.038  14.064
 6126SOL    HW220211  12.152   9.079  14.187
 6127SOL     OW20212   1.566  10.454   3.434
 6127SOL    HW120213   1.597  10.543   3.415
 6127SOL    HW220214   1.538  10.420   3.349
 6128SOL     OW20215  10.475  14.365   7.860
 6128SOL    HW120216  10.447  14.439   7.805
 6128SOL    HW220217  10.571  14.369   7.856
 6129SOL     OW20218   9.164   0.639   2.101
 6129SOL    HW120219   9.217   0.698   2.047
 6129SOL    HW220220   9.117   0.585   2.037
 6130SOL     OW20221   0.550   2.894  13.496
 6130SOL    HW120222   0.612   2.946  13.445
 6130SOL    HW220223   0.604   2.856  13.566
 6131SOL     OW20224  12.059   1.447   5.913
 6131SOL    HW120225  11.984   1.449   5.853
 6131SOL    HW220226  12.092   1.358   5.908
 6132SOL     OW20227   0.599   2.540   6.444
 6132SOL    HW120228   0.628   2.451   6.466
 6132SOL    HW220229   0.675   2.581   6.403
 6133SOL     OW20230   3.314   9.783  13.900
 6133SOL    HW120231   3.356   9.697  13.901
 6133SOL    HW220232   3.236   9.772  13.847
 6134SOL     OW20233   4.809  10.382   8.411
 6134SOL    HW120234   4.744  10.358   8.477
 6134SOL    HW220235   4.795  10.320   8.340
 6135SOL     OW20236  10.655   8.661   2.657
 6135SOL    HW120237  10.696   8.576   2.671
 6135SOL    HW220238  10.584   8.664   2.722
 6136SOL     OW20239  12.104   4.019   8.611
 6136SOL    HW120240  12.073   4.036   8.522
 6136SOL    HW220241  12.027   4.033   8.666
 6137SOL     OW20242   0.047   7.602   5.628
 6137SOL    HW120243   0.080   7.519   5.663
 6137SOL    HW220244  14.848   7.624   5.684
 6138SOL     OW20245  10.845  11.636   9.391
 6138SOL    HW120246  10.801  11.686   9.460
 6138SOL    HW220247  10.839  11.691   9.314
 6139SOL     OW20248   2.072   6.132   8.985
 6139SOL    HW120249   2.060   6.039   8.967
 6139SOL    HW220250   2.021   6.177   8.918
 6140SOL     OW20251   4.565   6.802  14.787
 6140SOL    HW120252   4.529   6.756  14.863
 6140SOL    HW220253   4.660   6.798  14.799
 6141SOL     OW20254   1.722   8.845   5.617
 6141SOL    HW120255   1.790   8.900   5.578
 6141SOL    HW220256   1.757   8.822   5.703
 6142SOL     OW20257  10.386  13.105   2.681
 6142SOL    HW120258  10.476  13.117   2.650
 6142SOL    HW220259  10.333  13.160   2.623
 6143SOL     OW20260   2.107   3.111   0.384
 6143SOL    HW120261   2.170   3.042   0.406
 6143SOL    HW220262   2.051   3.116   0.462
 6144SOL     OW20263  11.830  12.827   3.690
 6144SOL    HW120264  11.821  12.776   3.771
 6144SOL    HW220265  11.776  12.905   3.705
 6145SOL     OW20266   3.765  12.233   4.104
 6145SOL    HW120267   3.783  12.324   4.082
 6145SOL    HW220268   3.818  12.182   4.042
 6146SOL     OW20269   0.432  12.241  12.979
 6146SOL    HW120270   0.351  12.249  12.929
 6146SOL    HW220271   0.501  12.268  12.917
 6147SOL     OW20272   0.019   1.216  12.141
 6147SOL    HW120273   0.109   1.199  12.113
 6147SOL    HW220274  14.850   1.244  12.061
 6148SOL     OW20275   4.540   3.622  13.666
 6148SOL    HW120276   4.600   3.551  13.692
 6148SOL    HW220277   4.488   3.585  13.595
 6149SOL     OW20278  10.880  12.026   7.286
 6149SOL    HW120279  10.785  12.022   7.275
 6149SOL    HW220280  10.896  12.101   7.343
 6150SOL     OW20281   7.375   3.480  10.046
 6150SOL    HW120282   7.316   3.465  10.119
 6150SOL    HW220283   7.423   3.559  10.070
 6151SOL     OW20284   2.132   4.440   5.528
 6151SOL    HW120285   2.106   4.478   5.444
 6151SOL    HW220286   2.209   4.387   5.507
 6152SOL     OW20287  13.281  10.902   5.746
 6152SOL    HW120288  13.312  10.991   5.731
 6152SOL    HW220289  13.354  10.846   5.719
 6153SOL     OW20290  12.369   8.502  10.098
 6153SOL    HW120291  12.438   8.565  10.080
 6153SOL    HW220292  12.291   8.556  10.115
 6154SOL     OW20293   4.139   1.077  14.488
 6154SOL    HW120294   4.151   1.134  14.564
 6154SOL    HW220295   4.045   1.073  14.475
 6155SOL     OW20296   2.930   2.444   8.243
 6155SOL    HW120297   3.000   2.382   8.222
 6155SOL    HW220298   2.872   2.441   8.167
 6156SOL     OW20299  14.230   3.714  10.293
 6156SOL    HW120300  14.231   3.743  10.202
 6156SOL    HW220301  14.281   3.779  10.340
 6157SOL     OW20302   9.511   5.268   2.532
 6157SOL    HW120303   9.421   5.297   2.521
 6157SOL    HW220304   9.561   5.348   2.547
 6158SOL     OW20305   5.815   3.113   4.449
 6158SOL    HW120306   5.799   3.066   4.531
 6158SOL    HW220307   5.856   3.049   4.392
 6159SOL     OW20308   4.965   0.110   6.592
 6159SOL    HW120309   4.962   0.194   6.547
 6159SOL    HW220310   4.941   0.129   6.682
 6160SOL     OW20311   4.552   4.245   4.354
 6160SOL    HW120312   4.493   4.210   4.287
 6160SOL    HW220313   4.628   4.187   4.352
 6161SOL     OW20314   5.477   8.135  10.941
 6161SOL    HW120315   5.432   8.140  10.857
 6161SOL    HW220316   5.410   8.155  11.006
 6162SOL     OW20317   1.195   4.346   0.276
 6162SOL    HW120318   1.124   4.410   0.286
 6162SOL    HW220319   1.275   4.396   0.292
 6163SOL     OW20320   7.341  13.435   5.152
 6163SOL    HW120321   7.402  13.493   5.198
 6163SOL    HW220322   7.289  13.494   5.098
 6164SOL     OW20323   0.984  14.488   0.439
 6164SOL    HW120324   1.056  14.513   0.381
 6164SOL    HW220325   0.993  14.393   0.449
 6165SOL     OW20326   7.986  13.371   3.283
 6165SOL    HW120327   7.955  13.284   3.305
 6165SOL    HW220328   8.018  13.407   3.366
 6166SOL     OW20329   7.249  12.228   5.635
 6166SOL    HW120330   7.207  12.142   5.630
 6166SOL    HW220331   7.319  12.225   5.569
 6167SOL     OW20332   1.389  10.072   5.821
 6167SOL    HW120333   1.482  10.058   5.801
 6167SOL    HW220334   1.369  10.156   5.779
 6168SOL     OW20335   8.172  13.072   1.361
 6168SOL    HW120336   8.153  13.162   1.332
 6168SOL    HW220337   8.164  13.075   1.456
 6169SOL     OW20338   9.481  11.891   6.976
 6169SOL    HW120339   9.476  11.899   7.071
 6169SOL    HW220340   9.390  11.903   6.946
 6170SOL     OW20341   0.465   9.984   7.632
 6170SOL    HW120342   0.527   9.997   7.704
 6170SOL    HW220343   0.517   9.996   7.553
 6171SOL     OW20344  11.269   8.959   3.354
 6171SOL    HW120345  11.194   9.001   3.313
 6171SOL    HW220346  11.260   8.866   3.331
 6172SOL     OW20347  10.489  10.823   3.844
 6172SOL    HW120348  10.576  10.859   3.826
 6172SOL    HW220349  10.451  10.807   3.758
 6173SOL     OW20350  11.749   9.705   4.435
 6173SOL    HW120351  11.806   9.777   4.407
 6173SOL    HW220352  11.767   9.696   4.529
 6174SOL     OW20353  10.242  12.152  13.980
 6174SOL    HW120354  10.330  12.184  13.961
 6174SOL    HW220355  10.212  12.112  13.898
 6175SOL     OW20356   8.920   8.107   8.749
 6175SOL    HW120357   8.984   8.170   8.783
 6175SOL    HW220358   8.847   8.112   8.810
 6176SOL     OW20359  12.024  12.777  12.375
 6176SOL    HW120360  11.997  12.805  12.462
 6176SOL    HW220361  12.043  12.684  12.385
 6177SOL     OW20362   8.998   3.489  11.951
 6177SOL    HW120363   9.046   3.495  11.868
 6177SOL    HW220364   9.062   3.515  12.017
 6178SOL     OW20365   7.379  13.034   7.258
 6178SOL    HW120366   7.404  13.125   7.275
 6178SOL    HW220367   7.423  13.011   7.177
 6179SOL     OW20368  14.248   8.407   5.038
 6179SOL    HW120369  14.318   8.388   5.101
 6179SOL    HW220370  14.295   8.430   4.958
 6180SOL     OW20371  11.937   9.684  12.284
 6180SOL    HW120372  11.973   9.726  12.363
 6180SOL    HW220373  11.944   9.590  12.302
 6181SOL     OW20374   5.041  11.920   4.941
 6181SOL    HW120375   5.021  11.829   4.960
 6181SOL    HW220376   5.136  11.927   4.952
 6182SOL     OW20377   6.495   1.863   5.750
 6182SOL    HW120378   6.487   1.770   5.769
 6182SOL    HW220379   6.415   1.902   5.787
 6183SOL     OW20380   0.336   8.753   4.907
 6183SOL    HW120381   0.342   8.710   4.821
 6183SOL    HW220382   0.341   8.681   4.970
 6184SOL     OW20383   1.943   7.458   5.431
 6184SOL    HW120384   1.975   7.419   5.512
 6184SOL    HW220385   1.874   7.519   5.459
 6185SOL     OW20386  11.843   4.297  11.693
 6185SOL    HW120387  11.868   4.236  11.763
 6185SOL    HW220388  11.924   4.313  11.645
 6186SOL     OW20389  11.396   9.621   6.039
 6186SOL    HW120390  11.458   9.693   6.032
 6186SOL    HW220391  11.360   9.628   6.127
 6187SOL     OW20392   1.347  13.932   8.285
 6187SOL    HW120393   1.350  14.028   8.293
 6187SOL    HW220394   1.257  13.912   8.260
 6188SOL     OW20395   6.822   7.096   5.678
 6188SOL    HW120396   6.833   7.098   5.773
 6188SOL    HW220397   6.846   7.184   5.649
 6189SOL     OW20398  10.834  14.471  11.308
 6189SOL    HW120399  10.812  14.547  11.362
 6189SOL    HW220400  10.753  14.420  11.305
 6190SOL     OW20401   6.092  11.526  13.931
 6190SOL    HW120402   6.003  11.559  13.917
 6190SOL    HW220403   6.117  11.561  14.016
 6191SOL     OW20404   6.499  12.886   6.171
 6191SOL    HW120405   6.462  12.957   6.224
 6191SOL    HW220406   6.433  12.869   6.104
 6192SOL     OW20407   9.387  11.178   4.071
 6192SOL    HW120408   9.436  11.195   3.990
 6192SOL    HW220409   9.343  11.095   4.056
 6193SOL     OW20410   6.816  10.071   9.422
 6193SOL    HW120411   6.781  10.065   9.511
 6193SOL    HW220412   6.739  10.086   9.367
 6194SOL     OW20413   1.705  12.255   5.144
 6194SOL    HW120414   1.697  12.171   5.189
 6194SOL    HW220415   1.615  12.277   5.118
 6195SOL     OW20416   7.565   4.191   0.462
 6195SOL    HW120417   7.553   4.281   0.433
 6195SOL    HW220418   7.635   4.157   0.406
 6196SOL     OW20419   2.545   6.898   8.235
 6196SOL    HW120420   2.546   6.993   8.230
 6196SOL    HW220421   2.634   6.871   8.209
 6197SOL     OW20422   0.376   7.147   7.245
 6197SOL    HW120423   0.381   7.112   7.334
 6197SOL    HW220424   0.317   7.222   7.251
 6198SOL     OW20425   2.494   7.492   5.261
 6198SOL    HW120426   2.584   7.486   5.228
 6198SOL    HW220427   2.501   7.544   5.340
 6199SOL     OW20428   9.798  13.069  12.956
 6199SOL    HW120429   9.807  13.110  13.042
 6199SOL    HW220430   9.887  13.047  12.930
 6200SOL     OW20431   6.956   2.224   6.224
 6200SOL    HW120432   6.910   2.141   6.241
 6200SOL    HW220433   7.027   2.225   6.289
 6201SOL     OW20434   2.298   9.831   0.839
 6201SOL    HW120435   2.248   9.785   0.906
 6201SOL    HW220436   2.237   9.894   0.802
 6202SOL     OW20437   7.831   2.518  11.500
 6202SOL    HW120438   7.803   2.428  11.485
 6202SOL    HW220439   7.927   2.513  11.501
 6203SOL     OW20440   2.422   7.673   7.974
 6203SOL    HW120441   2.505   7.694   7.931
 6203SOL    HW220442   2.444   7.663   8.066
 6204SOL     OW20443   0.353   8.346   9.801
 6204SOL    HW120444   0.296   8.401   9.855
 6204SOL    HW220445   0.439   8.352   9.843
 6205SOL     OW20446   1.297  14.132   2.528
 6205SOL    HW120447   1.245  14.053   2.537
 6205SOL    HW220448   1.372  14.106   2.474
 6206SOL     OW20449   2.838  12.250  12.618
 6206SOL    HW120450   2.801  12.310  12.554
 6206SOL    HW220451   2.816  12.163  12.586
 6207SOL     OW20452   6.854   5.719   2.741
 6207SOL    HW120453   6.884   5.765   2.662
 6207SOL    HW220454   6.926   5.727   2.803
 6208SOL     OW20455   5.559   2.448   4.333
 6208SOL    HW120456   5.621   2.420   4.266
 6208SOL    HW220457   5.479   2.398   4.315
 6209SOL     OW20458   0.974   4.744   9.627
 6209SOL    HW120459   1.033   4.812   9.594
 6209SOL    HW220460   0.964   4.765   9.720
 6210SOL     OW20461   5.070   6.965   8.527
 6210SOL    HW120462   5.118   6.995   8.604
 6210SOL    HW220463   4.984   7.004   8.534
 6211SOL     OW20464   4.909   6.173   8.284
 6211SOL    HW120465   4.924   6.239   8.351
 6211SOL    HW220466   4.976   6.107   8.299
 6212SOL     OW20467  14.832   8.230  13.507
 6212SOL    HW120468   0.001   8.225  13.422
 6212SOL    HW220469   0.006   8.295  13.556
 6213SOL     OW20470  13.341  13.270  10.613
 6213SOL    HW120471  13.399  13.231  10.549
 6213SOL    HW220472  13.318  13.198  10.672
 6214SOL     OW20473   1.481   8.748   0.487
 6214SOL    HW120474   1.480   8.654   0.505
 6214SOL    HW220475   1.571   8.775   0.505
 6215SOL     OW20476   2.453  13.283   8.851
 6215SOL    HW120477   2.523  13.309   8.791
 6215SOL    HW220478   2.494  13.218   8.908
 6216SOL     OW20479   3.885  10.287  10.189
 6216SOL    HW120480   3.796  10.300  10.220
 6216SOL    HW220481   3.929  10.242  10.261
 6217SOL     OW20482   7.949   5.044  13.071
 6217SOL    HW120483   7.913   5.130  13.049
 6217SOL    HW220484   8.033   5.041  13.024
 6218SOL     OW20485   3.050  10.203  14.739
 6218SOL    HW120486   2.986  10.274  14.724
 6218SOL    HW220487   2.998  10.131  14.773
 6219SOL     OW20488   0.611   8.657   1.977
 6219SOL    HW120489   0.564   8.629   1.898
 6219SOL    HW220490   0.637   8.747   1.958
 6220SOL     OW20491   2.605  13.457   2.341
 6220SOL    HW120492   2.632  13.432   2.429
 6220SOL    HW220493   2.687  13.475   2.294
 6221SOL     OW20494  14.471  13.665   9.213
 6221SOL    HW120495  14.407  13.609   9.169
 6221SOL    HW220496  14.468  13.747   9.165
 6222SOL     OW20497  12.847  13.484  11.685
 6222SOL    HW120498  12.833  13.577  11.706
 6222SOL    HW220499  12.930  13.463  11.727
 6223SOL     OW20500   9.128   2.016   4.101
 6223SOL    HW120501   9.182   1.938   4.113
 6223SOL    HW220502   9.190   2.083   4.072
 6224SOL     OW20503  13.564   3.289   7.813
 6224SOL    HW120504  13.594   3.205   7.778
 6224SOL    HW220505  13.618   3.354   7.769
 6225SOL     OW20506   0.414  13.419  11.567
 6225SOL    HW120507   0.420  13.336  11.615
 6225SOL    HW220508   0.476  13.409  11.495
 6226SOL     OW20509  12.737  12.688   3.611
 6226SOL    HW120510  12.663  12.736   3.649
 6226SOL    HW220511  12.755  12.733   3.529
 6227SOL     OW20512   3.341   4.393   1.390
 6227SOL    HW120513   3.367   4.481   1.361
 6227SOL    HW220514   3.276   4.408   1.457
 6228SOL     OW20515  10.246  10.633   6.261
 6228SOL    HW120516  10.282  10.712   6.301
 6228SOL    HW220517  10.176  10.664   6.204
 6229SOL     OW20518   9.067   1.963   9.904
 6229SOL    HW120519   8.994   1.908   9.931
 6229SOL    HW220520   9.140   1.933   9.958
 6230SOL     OW20521   1.448  14.712  11.279
 6230SOL    HW120522   1.452  14.619  11.255
 6230SOL    HW220523   1.538  14.736  11.298
 6231SOL     OW20524  13.787   2.002   8.859
 6231SOL    HW120525  13.862   1.965   8.905
 6231SOL    HW220526  13.711   1.965   8.903
 6232SOL     OW20527  11.638  12.873   8.156
 6232SOL    HW120528  11.550  12.911   8.161
 6232SOL    HW220529  11.623  12.781   8.132
 6233SOL     OW20530  10.253   6.751   3.900
 6233SOL    HW120531  10.324   6.769   3.837
 6233SOL    HW220532  10.176   6.792   3.862
 6234SOL     OW20533  10.767   8.380   2.592
 6234SOL    HW120534  10.844   8.378   2.649
 6234SOL    HW220535  10.799   8.418   2.510
 6235SOL     OW20536  14.815   0.152   7.414
 6235SOL    HW120537  14.738   0.098   7.398
 6235SOL    HW220538   0.013   0.094   7.394
 6236SOL     OW20539   1.573  10.482   9.281
 6236SOL    HW120540   1.619  10.558   9.247
 6236SOL    HW220541   1.598  10.477   9.373
 6237SOL     OW20542   8.704   8.950  14.714
 6237SOL    HW120543   8.726   8.902  14.634
 6237SOL    HW220544   8.608   8.954  14.714
 6238SOL     OW20545  11.376   9.177   7.172
 6238SOL    HW120546  11.408   9.230   7.245
 6238SOL    HW220547  11.431   9.203   7.098
 6239SOL     OW20548   0.233   8.873   8.893
 6239SOL    HW120549   0.322   8.842   8.909
 6239SOL    HW220550   0.228   8.882   8.797
 6240SOL     OW20551  14.415  11.902   8.858
 6240SOL    HW120552  14.370  11.937   8.780
 6240SOL    HW220553  14.470  11.832   8.824
 6241SOL     OW20554   4.294   1.912   0.104
 6241SOL    HW120555   4.363   1.978   0.104
 6241SOL    HW220556   4.213   1.960   0.121
 6242SOL     OW20557   1.720   6.224   3.146
 6242SOL    HW120558   1.802   6.250   3.104
 6242SOL    HW220559   1.653   6.278   3.103
 6243SOL     OW20560  14.398   2.896   7.190
 6243SOL    HW120561  14.443   2.914   7.107
 6243SOL    HW220562  14.468   2.881   7.253
 6244SOL     OW20563   0.210   9.347  10.645
 6244SOL    HW120564   0.135   9.336  10.586
 6244SOL    HW220565   0.212   9.266  10.696
 6245SOL     OW20566   6.228   9.480   5.579
 6245SOL    HW120567   6.208   9.392   5.549
 6245SOL    HW220568   6.152   9.506   5.631
 6246SOL     OW20569   7.152   7.013   4.379
 6246SOL    HW120570   7.145   6.971   4.465
 6246SOL    HW220571   7.081   6.973   4.328
 6247SOL     OW20572   3.425   5.656  13.577
 6247SOL    HW120573   3.430   5.661  13.481
 6247SOL    HW220574   3.509   5.618  13.603
 6248SOL     OW20575   0.012  10.714   1.022
 6248SOL    HW120576   0.029  10.709   0.928
 6248SOL    HW220577   0.053  10.635   1.058
 6249SOL     OW20578   3.863   6.639   6.059
 6249SOL    HW120579   3.822   6.671   5.979
 6249SOL    HW220580   3.947   6.685   6.062
 6250SOL     OW20581   9.579  12.243  12.319
 6250SOL    HW120582   9.580  12.161  12.368
 6250SOL    HW220583   9.552  12.309  12.384
 6251SOL     OW20584   4.292   5.128  12.837
 6251SOL    HW120585   4.208   5.084  12.823
 6251SOL    HW220586   4.355   5.072  12.791
 6252SOL     OW20587   6.909   5.001   4.136
 6252SOL    HW120588   6.877   5.091   4.125
 6252SOL    HW220589   6.888   4.958   4.053
 6253SOL     OW20590  12.183  10.172   0.352
 6253SOL    HW120591  12.247  10.172   0.281
 6253SOL    HW220592  12.171  10.264   0.374
 6254SOL     OW20593   7.085   5.058  14.602
 6254SOL    HW120594   7.104   5.040  14.510
 6254SOL    HW220595   7.147   5.127  14.626
 6255SOL     OW20596   0.296  13.001  13.359
 6255SOL    HW120597   0.291  12.910  13.388
 6255SOL    HW220598   0.211  13.038  13.381
 6256SOL     OW20599  14.623   2.115  13.113
 6256SOL    HW120600  14.594   2.126  13.204
 6256SOL    HW220601  14.700   2.171  13.106
 6257SOL     OW20602   9.790   4.903   6.998
 6257SOL    HW120603   9.744   4.940   7.073
 6257SOL    HW220604   9.869   4.958   6.990
 6258SOL     OW20605  12.291  10.293   1.434
 6258SOL    HW120606  12.263  10.299   1.343
 6258SOL    HW220607  12.245  10.364   1.478
 6259SOL     OW20608  10.404   1.328  14.688
 6259SOL    HW120609  10.365   1.320  14.601
 6259SOL    HW220610  10.441   1.416  14.690
 6260SOL     OW20611   2.560   8.197   2.127
 6260SOL    HW120612   2.516   8.266   2.176
 6260SOL    HW220613   2.511   8.117   2.149
 6261SOL     OW20614  11.989   1.991  13.023
 6261SOL    HW120615  12.056   2.022  13.084
 6261SOL    HW220616  11.917   2.053  13.033
 6262SOL     OW20617  14.608  11.929  12.121
 6262SOL    HW120618  14.648  12.015  12.104
 6262SOL    HW220619  14.640  11.874  12.050
 6263SOL     OW20620  11.846   2.298  14.327
 6263SOL    HW120621  11.857   2.276  14.234
 6263SOL    HW220622  11.819   2.389  14.327
 6264SOL     OW20623  14.854   0.566   4.456
 6264SOL    HW120624   0.067   0.551   4.424
 6264SOL    HW220625  14.840   0.496   4.520
 6265SOL     OW20626   6.068  10.689   9.523
 6265SOL    HW120627   6.008  10.618   9.547
 6265SOL    HW220628   6.090  10.672   9.432
 6266SOL     OW20629   9.714   8.697   4.082
 6266SOL    HW120630   9.769   8.774   4.080
 6266SOL    HW220631   9.643   8.716   4.020
 6267SOL     OW20632  13.076   2.177   0.228
 6267SOL    HW120633  13.023   2.214   0.298
 6267SOL    HW220634  13.164   2.169   0.266
 6268SOL     OW20635  13.018   3.306   2.550
 6268SOL    HW120636  13.059   3.234   2.599
 6268SOL    HW220637  13.077   3.380   2.563
 6269SOL     OW20638  13.623   9.269   6.201
 6269SOL    HW120639  13.624   9.351   6.150
 6269SOL    HW220640  13.558   9.215   6.158
 6270SOL     OW20641   8.678  14.051   3.486
 6270SOL    HW120642   8.755  14.012   3.526
 6270SOL    HW220643   8.668  14.135   3.531
 6271SOL     OW20644   9.323  11.534   3.350
 6271SOL    HW120645   9.370  11.555   3.269
 6271SOL    HW220646   9.391  11.501   3.409
 6272SOL     OW20647   0.761   9.162  13.851
 6272SOL    HW120648   0.712   9.239  13.882
 6272SOL    HW220649   0.718   9.138  13.769
 6273SOL     OW20650   4.730   2.767   0.209
 6273SOL    HW120651   4.777   2.848   0.188
 6273SOL    HW220652   4.799   2.701   0.218
 6274SOL     OW20653   4.313  12.331   6.271
 6274SOL    HW120654   4.306  12.425   6.253
 6274SOL    HW220655   4.407  12.315   6.272
 6275SOL     OW20656   8.537  10.738  12.622
 6275SOL    HW120657   8.505  10.778  12.541
 6275SOL    HW220658   8.510  10.798  12.691
 6276SOL     OW20659   9.070   8.460   0.059
 6276SOL    HW120660   9.013   8.437  14.861
 6276SOL    HW220661   9.130   8.525   0.023
 6277SOL     OW20662   8.610   9.800   0.705
 6277SOL    HW120663   8.704   9.802   0.686
 6277SOL    HW220664   8.603   9.750   0.786
 6278SOL     OW20665   5.212   7.257  12.713
 6278SOL    HW120666   5.231   7.182  12.656
 6278SOL    HW220667   5.208   7.219  12.801
 6279SOL     OW20668  11.065   7.351   4.767
 6279SOL    HW120669  11.140   7.291   4.765
 6279SOL    HW220670  10.999   7.305   4.819
 6280SOL     OW20671   7.334   9.227   3.122
 6280SOL    HW120672   7.261   9.286   3.101
 6280SOL    HW220673   7.317   9.200   3.212
 6281SOL     OW20674  14.383  11.291  14.754
 6281SOL    HW120675  14.339  11.249  14.828
 6281SOL    HW220676  14.444  11.225  14.721
 6282SOL     OW20677   3.449   6.170   6.033
 6282SOL    HW120678   3.495   6.149   5.951
 6282SOL    HW220679   3.440   6.086   6.078
 6283SOL     OW20680  13.347   5.612   4.087
 6283SOL    HW120681  13.402   5.543   4.050
 6283SOL    HW220682  13.288   5.566   4.147
 6284SOL     OW20683   8.751   7.121  13.857
 6284SOL    HW120684   8.741   7.130  13.952
 6284SOL    HW220685   8.757   7.211  13.825
 6285SOL     OW20686   1.982   4.182   6.050
 6285SOL    HW120687   1.944   4.187   6.138
 6285SOL    HW220688   1.923   4.124   6.002
 6286SOL     OW20689  12.218  14.038  10.249
 6286SOL    HW120690  12.236  14.100  10.319
 6286SOL    HW220691  12.123  14.030  10.247
 6287SOL     OW20692   7.769   5.242  13.403
 6287SOL    HW120693   7.825   5.266  13.329
 6287SOL    HW220694   7.766   5.146  13.400
 6288SOL     OW20695   1.222   1.799   4.304
 6288SOL    HW120696   1.137   1.776   4.267
 6288SOL    HW220697   1.225   1.752   4.387
 6289SOL     OW20698  11.404   8.853   8.340
 6289SOL    HW120699  11.379   8.785   8.278
 6289SOL    HW220700  11.487   8.887   8.306
 6290SOL     OW20701  13.971   0.951   5.113
 6290SOL    HW120702  13.994   1.041   5.136
 6290SOL    HW220703  14.002   0.941   5.023
 6291SOL     OW20704  14.641   3.913   4.949
 6291SOL    HW120705  14.607   3.975   4.884
 6291SOL    HW220706  14.729   3.891   4.917
 6292SOL     OW20707  13.263   8.934  13.437
 6292SOL    HW120708  13.299   8.850  13.465
 6292SOL    HW220709  13.328   8.999  13.464
 6293SOL     OW20710  13.003   1.458   0.768
 6293SOL    HW120711  12.962   1.378   0.799
 6293SOL    HW220712  12.949   1.487   0.695
 6294SOL     OW20713  13.618   9.752   6.374
 6294SOL    HW120714  13.708   9.758   6.342
 6294SOL    HW220715  13.610   9.820   6.440
 6295SOL     OW20716   4.717   9.644   3.165
 6295SOL    HW120717   4.658   9.585   3.117
 6295SOL    HW220718   4.757   9.697   3.096
 6296SOL     OW20719  12.625   3.472  12.040
 6296SOL    HW120720  12.711   3.501  12.010
 6296SOL    HW220721  12.643   3.400  12.100
 6297SOL     OW20722   6.669   7.737  14.328
 6297SOL    HW120723   6.675   7.666  14.392
 6297SOL    HW220724   6.703   7.700  14.247
 6298SOL     OW20725  13.937  11.500   0.769
 6298SOL    HW120726  13.955  11.424   0.825
 6298SOL    HW220727  13.924  11.572   0.831
 6299SOL     OW20728  14.206  13.355   0.505
 6299SOL    HW120729  14.290  13.368   0.461
 6299SOL    HW220730  14.226  13.300   0.580
 6300SOL     OW20731   4.495   2.567   6.223
 6300SOL    HW120732   4.437   2.641   6.238
 6300SOL    HW220733   4.443   2.506   6.171
 6301SOL     OW20734   5.660   5.928   9.113
 6301SOL    HW120735   5.682   5.836   9.128
 6301SOL    HW220736   5.566   5.927   9.093
 6302SOL     OW20737  11.018   0.741   7.747
 6302SOL    HW120738  11.071   0.683   7.692
 6302SOL    HW220739  11.069   0.751   7.827
 6303SOL     OW20740   6.864   4.160  11.516
 6303SOL    HW120741   6.798   4.125  11.576
 6303SOL    HW220742   6.841   4.122  11.431
 6304SOL     OW20743  13.467   4.534  11.753
 6304SOL    HW120744  13.538   4.537  11.817
 6304SOL    HW220745  13.476   4.614  11.702
 6305SOL     OW20746   7.986   3.678   4.416
 6305SOL    HW120747   8.028   3.647   4.336
 6305SOL    HW220748   7.953   3.765   4.393
 6306SOL     OW20749  12.282  13.921   1.339
 6306SOL    HW120750  12.237  13.927   1.255
 6306SOL    HW220751  12.293  13.827   1.353
 6307SOL     OW20752   5.002  10.918   1.452
 6307SOL    HW120753   4.961  10.833   1.464
 6307SOL    HW220754   5.096  10.900   1.452
 6308SOL     OW20755   1.515   3.179  12.817
 6308SOL    HW120756   1.507   3.244  12.748
 6308SOL    HW220757   1.552   3.228  12.891
 6309SOL     OW20758   7.151  10.037   3.452
 6309SOL    HW120759   7.105  10.114   3.484
 6309SOL    HW220760   7.131   9.969   3.516
 6310SOL     OW20761   0.225   4.949   0.036
 6310SOL    HW120762   0.249   4.857   0.044
 6310SOL    HW220763   0.212   4.979   0.126
 6311SOL     OW20764   1.907  10.498  13.483
 6311SOL    HW120765   1.962  10.569  13.451
 6311SOL    HW220766   1.863  10.464  13.405
 6312SOL     OW20767   9.415  13.938  12.957
 6312SOL    HW120768   9.493  13.926  13.012
 6312SOL    HW220769   9.444  13.998  12.888
 6313SOL     OW20770   6.008   7.798   0.742
 6313SOL    HW120771   5.925   7.751   0.746
 6313SOL    HW220772   6.075   7.731   0.756
 6314SOL     OW20773  14.796   5.540   9.632
 6314SOL    HW120774  14.728   5.535   9.564
 6314SOL    HW220775  14.846   5.459   9.621
 6315SOL     OW20776  11.434   7.790   1.553
 6315SOL    HW120777  11.526   7.819   1.562
 6315SOL    HW220778  11.428   7.758   1.463
 6316SOL     OW20779   4.484   2.351   6.931
 6316SOL    HW120780   4.545   2.285   6.897
 6316SOL    HW220781   4.471   2.412   6.858
 6317SOL     OW20782   6.548  12.508   6.738
 6317SOL    HW120783   6.608  12.552   6.798
 6317SOL    HW220784   6.528  12.574   6.671
 6318SOL     OW20785   1.660   8.531  11.873
 6318SOL    HW120786   1.737   8.522  11.929
 6318SOL    HW220787   1.632   8.622  11.885
 6319SOL     OW20788  12.363   3.721   3.041
 6319SOL    HW120789  12.280   3.755   3.009
 6319SOL    HW220790  12.376   3.764   3.125
 6320SOL     OW20791  13.525   2.812  11.638
 6320SOL    HW120792  13.497   2.866  11.712
 6320SOL    HW220793  13.618   2.832  11.629
 6321SOL     OW20794   9.149  14.311   1.987
 6321SOL    HW120795   9.168  14.389   1.935
 6321SOL    HW220796   9.055  14.297   1.979
 6322SOL     OW20797   1.418   2.073   0.505
 6322SOL    HW120798   1.450   1.991   0.466
 6322SOL    HW220799   1.364   2.112   0.437
 6323SOL     OW20800   1.060  12.228   5.189
 6323SOL    HW120801   1.025  12.202   5.274
 6323SOL    HW220802   1.093  12.317   5.203
 6324SOL     OW20803   0.772   3.369  12.971
 6324SOL    HW120804   0.845   3.406  13.021
 6324SOL    HW220805   0.764   3.280  13.004
 6325SOL     OW20806  11.489   3.338  13.348
 6325SOL    HW120807  11.499   3.404  13.280
 6325SOL    HW220808  11.578   3.323  13.380
 6326SOL     OW20809   6.587   5.296   4.904
 6326SOL    HW120810   6.569   5.376   4.954
 6326SOL    HW220811   6.588   5.226   4.969
 6327SOL     OW20812   7.631   3.226   7.713
 6327SOL    HW120813   7.616   3.134   7.733
 6327SOL    HW220814   7.544   3.266   7.714
 6328SOL     OW20815  11.774  12.197   7.609
 6328SOL    HW120816  11.756  12.190   7.515
 6328SOL    HW220817  11.707  12.143   7.651
 6329SOL     OW20818   5.970   5.987  13.115
 6329SOL    HW120819   5.965   5.891  13.125
 6329SOL    HW220820   5.949   6.002  13.023
 6330SOL     OW20821   2.079  11.837   7.423
 6330SOL    HW120822   2.069  11.828   7.518
 6330SOL    HW220823   2.167  11.804   7.405
 6331SOL     OW20824   7.782  11.717  11.339
 6331SOL    HW120825   7.702  11.666  11.327
 6331SOL    HW220826   7.852  11.660  11.307
 6332SOL     OW20827   6.515   0.061  14.770
 6332SOL    HW120828   6.552   0.129  14.826
 6332SOL    HW220829   6.462   0.108  14.706
 6333SOL     OW20830   2.690   5.898   0.626
 6333SOL    HW120831   2.723   5.882   0.537
 6333SOL    HW220832   2.596   5.887   0.619
 6334SOL     OW20833   5.100  12.622   5.043
 6334SOL    HW120834   5.090  12.529   5.061
 6334SOL    HW220835   5.075  12.665   5.125
 6335SOL     OW20836  12.240   0.880  12.409
 6335SOL    HW120837  12.269   0.807  12.465
 6335SOL    HW220838  12.148   0.890  12.430
 6336SOL     OW20839   8.680  12.407  14.243
 6336SOL    HW120840   8.724  12.488  14.269
 6336SOL    HW220841   8.746  12.339  14.254
 6337SOL     OW20842  13.351  10.986   1.880
 6337SOL    HW120843  13.379  10.996   1.971
 6337SOL    HW220844  13.384  11.064   1.837
 6338SOL     OW20845   3.777   4.544   7.773
 6338SOL    HW120846   3.846   4.498   7.726
 6338SOL    HW220847   3.721   4.580   7.703
 6339SOL     OW20848  11.904   7.520  11.007
 6339SOL    HW120849  11.992   7.527  10.971
 6339SOL    HW220850  11.861   7.602  10.981
 6340SOL     OW20851  11.745  10.631   9.126
 6340SOL    HW120852  11.746  10.664   9.036
 6340SOL    HW220853  11.835  10.641   9.157
 6341SOL     OW20854   5.706   3.103   6.603
 6341SOL    HW120855   5.798   3.125   6.589
 6341SOL    HW220856   5.707   3.008   6.619
 6342SOL     OW20857   3.045   7.259   7.328
 6342SOL    HW120858   2.950   7.250   7.340
 6342SOL    HW220859   3.062   7.353   7.334
 6343SOL     OW20860   2.094   8.322  10.273
 6343SOL    HW120861   2.082   8.395  10.334
 6343SOL    HW220862   2.130   8.251  10.327
 6344SOL     OW20863   6.204   4.141  13.578
 6344SOL    HW120864   6.167   4.191  13.506
 6344SOL    HW220865   6.148   4.063  13.584
 6345SOL     OW20866   9.525   2.608  11.014
 6345SOL    HW120867   9.577   2.616  10.934
 6345SOL    HW220868   9.575   2.547  11.069
 6346SOL     OW20869   8.139   8.833   8.801
 6346SOL    HW120870   8.147   8.923   8.768
 6346SOL    HW220871   8.205   8.784   8.754
 6347SOL     OW20872   1.869  10.870   0.069
 6347SOL    HW120873   1.939  10.818   0.107
 6347SOL    HW220874   1.873  10.850  14.851
 6348SOL     OW20875   6.109   3.511  11.986
 6348SOL    HW120876   6.160   3.486  11.909
 6348SOL    HW220877   6.104   3.606  11.982
 6349SOL     OW20878   9.883  12.969   3.888
 6349SOL    HW120879   9.836  12.969   3.805
 6349SOL    HW220880   9.872  13.058   3.922
 6350SOL     OW20881   7.710   9.305   2.234
 6350SOL    HW120882   7.673   9.366   2.170
 6350SOL    HW220883   7.730   9.226   2.184
 6351SOL     OW20884   0.557  13.992  13.222
 6351SOL    HW120885   0.524  14.056  13.285
 6351SOL    HW220886   0.605  13.928  13.274
 6352SOL     OW20887   9.508  12.553   6.760
 6352SOL    HW120888   9.525  12.615   6.690
 6352SOL    HW220889   9.497  12.469   6.716
 6353SOL     OW20890  14.344   9.714   1.619
 6353SOL    HW120891  14.414   9.692   1.558
 6353SOL    HW220892  14.275   9.650   1.599
 6354SOL     OW20893  14.320   2.015   0.556
 6354SOL    HW120894  14.413   2.002   0.574
 6354SOL    HW220895  14.274   1.970   0.627
 6355SOL     OW20896   9.120   1.182   5.833
 6355SOL    HW120897   9.131   1.265   5.785
 6355SOL    HW220898   9.032   1.188   5.869
 6356SOL     OW20899   4.955   9.868  13.964
 6356SOL    HW120900   5.007   9.795  13.999
 6356SOL    HW220901   4.921   9.835  13.881
 6357SOL     OW20902   3.446  13.121   3.940
 6357SOL    HW120903   3.539  13.104   3.955
 6357SOL    HW220904   3.443  13.210   3.906
 6358SOL     OW20905  13.060   0.553  13.330
 6358SOL    HW120906  13.031   0.606  13.256
 6358SOL    HW220907  13.008   0.472  13.324
 6359SOL     OW20908  10.521   2.606   7.744
 6359SOL    HW120909  10.481   2.664   7.809
 6359SOL    HW220910  10.478   2.522   7.758
 6360SOL     OW20911  11.952  11.688   9.162
 6360SOL    HW120912  12.022  11.719   9.104
 6360SOL    HW220913  11.928  11.602   9.128
 6361SOL     OW20914  12.219   0.530  14.842
 6361SOL    HW120915  12.223   0.442   0.003
 6361SOL    HW220916  12.149   0.574   0.016
 6362SOL     OW20917   3.032  13.321  10.736
 6362SOL    HW120918   3.095  13.265  10.690
 6362SOL    HW220919   3.085  13.379  10.790
 6363SOL     OW20920  13.371   9.967   2.351
 6363SOL    HW120921  13.277   9.981   2.352
 6363SOL    HW220922  13.388   9.916   2.272
 6364SOL     OW20923   0.401   8.103  14.013
 6364SOL    HW120924   0.372   8.028  13.961
 6364SOL    HW220925   0.413   8.069  14.101
 6365SOL     OW20926   2.750   1.093   9.289
 6365SOL    HW120927   2.819   1.026   9.290
 6365SOL    HW220928   2.721   1.099   9.380
 6366SOL     OW20929   6.579   5.264   7.158
 6366SOL    HW120930   6.582   5.287   7.251
 6366SOL    HW220931   6.517   5.191   7.154
 6367SOL     OW20932   6.859   4.563  14.242
 6367SOL    HW120933   6.768   4.551  14.215
 6367SOL    HW220934   6.893   4.474  14.255
 6368SOL     OW20935   4.946   6.142   5.769
 6368SOL    HW120936   4.965   6.216   5.712
 6368SOL    HW220937   4.898   6.181   5.842
 6369SOL     OW20938   2.936   0.175   2.396
 6369SOL    HW120939   2.912   0.268   2.399
 6369SOL    HW220940   2.971   0.157   2.483
 6370SOL     OW20941   9.494   3.872   9.102
 6370SOL    HW120942   9.468   3.780   9.103
 6370SOL    HW220943   9.587   3.871   9.081
 6371SOL     OW20944   8.418  14.449  11.026
 6371SOL    HW120945   8.394  14.542  11.021
 6371SOL    HW220946   8.509  14.447  10.996
 6372SOL     OW20947  13.125   7.998   4.952
 6372SOL    HW120948  13.129   7.927   4.888
 6372SOL    HW220949  13.215   8.008   4.981
 6373SOL     OW20950   2.950   4.894   6.118
 6373SOL    HW120951   2.959   4.981   6.079
 6373SOL    HW220952   2.984   4.903   6.206
 6374SOL     OW20953   1.629   9.120   9.279
 6374SOL    HW120954   1.543   9.124   9.321
 6374SOL    HW220955   1.629   9.037   9.233
 6375SOL     OW20956   2.759   3.215   0.328
 6375SOL    HW120957   2.825   3.271   0.286
 6375SOL    HW220958   2.675   3.247   0.294
 6376SOL     OW20959  11.036   7.272   3.700
 6376SOL    HW120960  11.013   7.365   3.693
 6376SOL    HW220961  10.960   7.227   3.663
 6377SOL     OW20962   7.020  13.243   3.677
 6377SOL    HW120963   6.934  13.217   3.711
 6377SOL    HW220964   7.015  13.338   3.665
 6378SOL     OW20965   1.496   7.305  12.570
 6378SOL    HW120966   1.589   7.293  12.590
 6378SOL    HW220967   1.470   7.223  12.527
 6379SOL     OW20968  10.181  13.091   4.632
 6379SOL    HW120969  10.157  13.025   4.697
 6379SOL    HW220970  10.271  13.069   4.608
 6380SOL     OW20971  12.781   8.793   6.479
 6380SOL    HW120972  12.822   8.717   6.439
 6380SOL    HW220973  12.715   8.821   6.415
 6381SOL     OW20974   1.755   7.252   7.171
 6381SOL    HW120975   1.789   7.223   7.255
 6381SOL    HW220976   1.673   7.203   7.160
 6382SOL     OW20977  12.128   4.246   6.254
 6382SOL    HW120978  12.039   4.276   6.237
 6382SOL    HW220979  12.144   4.270   6.345
 6383SOL     OW20980   9.874  10.762  14.770
 6383SOL    HW120981   9.826  10.836  14.733
 6383SOL    HW220982   9.842  10.686  14.722
 6384SOL     OW20983   7.630   6.465   4.738
 6384SOL    HW120984   7.721   6.478   4.712
 6384SOL    HW220985   7.596   6.554   4.750
 6385SOL     OW20986   1.655   7.197  12.900
 6385SOL    HW120987   1.699   7.220  12.818
 6385SOL    HW220988   1.711   7.232  12.969
 6386SOL     OW20989   0.149  10.916  13.939
 6386SOL    HW120990   0.067  10.946  13.901
 6386SOL    HW220991   0.144  10.942  14.031
 6387SOL     OW20992   9.510  10.800   9.406
 6387SOL    HW120993   9.477  10.845   9.328
 6387SOL    HW220994   9.581  10.854   9.437
 6388SOL     OW20995   0.911  12.831   5.766
 6388SOL    HW120996   0.891  12.870   5.680
 6388SOL    HW220997   0.874  12.743   5.761
 6389SOL     OW20998   9.313  10.260   2.955
 6389SOL    HW120999   9.224  10.254   2.989
 6389SOL    HW221000   9.366  10.285   3.030
 6390SOL     OW21001  13.210  11.636   2.132
 6390SOL    HW121002  13.236  11.613   2.221
 6390SOL    HW221003  13.243  11.564   2.078
 6391SOL     OW21004  11.948   1.868   4.513
 6391SOL    HW121005  11.898   1.888   4.592
 6391SOL    HW221006  12.039   1.889   4.536
 6392SOL     OW21007  13.608  12.801  12.891
 6392SOL    HW121008  13.563  12.741  12.831
 6392SOL    HW221009  13.609  12.885  12.844
 6393SOL     OW21010  11.887   7.603   1.979
 6393SOL    HW121011  11.921   7.522   1.940
 6393SOL    HW221012  11.966   7.649   2.009
 6394SOL     OW21013   2.017   9.301  12.169
 6394SOL    HW121014   2.054   9.278  12.084
 6394SOL    HW221015   2.079   9.265  12.233
 6395SOL     OW21016   9.661   5.755   9.946
 6395SOL    HW121017   9.683   5.662   9.949
 6395SOL    HW221018   9.736   5.796   9.903
 6396SOL     OW21019  10.059   7.923   3.632
 6396SOL    HW121020  10.150   7.943   3.612
 6396SOL    HW221021  10.061   7.880   3.718
 6397SOL     OW21022   7.204  10.062   5.527
 6397SOL    HW121023   7.141  10.016   5.581
 6397SOL    HW221024   7.153  10.097   5.453
 6398SOL     OW21025   5.329  13.905   7.487
 6398SOL    HW121026   5.374  13.861   7.560
 6398SOL    HW221027   5.326  13.839   7.417
 6399SOL     OW21028   0.240   1.745   3.093
 6399SOL    HW121029   0.319   1.750   3.146
 6399SOL    HW221030   0.217   1.652   3.092
 6400SOL     OW21031  10.247   4.737   5.677
 6400SOL    HW121032  10.200   4.688   5.745
 6400SOL    HW221033  10.291   4.671   5.625
 6401SOL     OW21034   0.316  13.723  13.985
 6401SOL    HW121035   0.300  13.678  14.067
 6401SOL    HW221036   0.264  13.803  13.990
 6402SOL     OW21037  10.234  11.212   8.311
 6402SOL    HW121038  10.158  11.221   8.254
 6402SOL    HW221039  10.213  11.267   8.387
 6403SOL     OW21040   1.469   2.096   4.205
 6403SOL    HW121041   1.515   2.014   4.225
 6403SOL    HW221042   1.378   2.078   4.227
 6404SOL     OW21043  10.714  10.938   0.663
 6404SOL    HW121044  10.747  10.890   0.586
 6404SOL    HW221045  10.783  11.000   0.685
 6405SOL     OW21046  13.247   7.777   2.045
 6405SOL    HW121047  13.242   7.865   2.007
 6405SOL    HW221048  13.226   7.790   2.138
 6406SOL     OW21049  13.134   9.837  13.175
 6406SOL    HW121050  13.159   9.819  13.085
 6406SOL    HW221051  13.086   9.919  13.171
 6407SOL     OW21052   6.484   6.724   5.902
 6407SOL    HW121053   6.540   6.778   5.846
 6407SOL    HW221054   6.442   6.662   5.842
 6408SOL     OW21055   0.733   7.056  12.568
 6408SOL    HW121056   0.754   6.982  12.511
 6408SOL    HW221057   0.657   7.097  12.526
 6409SOL     OW21058  13.145   2.613   7.569
 6409SOL    HW121059  13.075   2.568   7.616
 6409SOL    HW221060  13.156   2.696   7.615
 6410SOL     OW21061   2.871  10.885  10.292
 6410SOL    HW121062   2.794  10.828  10.300
 6410SOL    HW221063   2.879  10.926  10.378
 6411SOL     OW21064   3.643  13.103  14.799
 6411SOL    HW121065   3.657  13.186  14.843
 6411SOL    HW221066   3.554  13.109  14.764
 6412SOL     OW21067   0.641   4.456   8.168
 6412SOL    HW121068   0.560   4.419   8.204
 6412SOL    HW221069   0.690   4.485   8.245
 6413SOL     OW21070   6.284  10.381   9.208
 6413SOL    HW121071   6.241  10.296   9.221
 6413SOL    HW221072   6.221  10.431   9.156
 6414SOL     OW21073  11.043  10.033   7.867
 6414SOL    HW121074  11.064  10.109   7.921
 6414SOL    HW221075  11.082   9.959   7.914
 6415SOL     OW21076  14.532   2.535  11.218
 6415SOL    HW121077  14.556   2.500  11.304
 6415SOL    HW221078  14.553   2.464  11.157
 6416SOL     OW21079   6.248   3.063   8.875
 6416SOL    HW121080   6.250   3.142   8.929
 6416SOL    HW221081   6.180   3.081   8.809
 6417SOL     OW21082   9.853  11.584  14.528
 6417SOL    HW121083   9.918  11.645  14.563
 6417SOL    HW221084   9.795  11.566  14.602
 6418SOL     OW21085  11.087   6.146  11.851
 6418SOL    HW121086  11.116   6.179  11.765
 6418SOL    HW221087  11.157   6.171  11.911
 6419SOL     OW21088   6.531   1.664   8.143
 6419SOL    HW121089   6.523   1.704   8.057
 6419SOL    HW221090   6.610   1.610   8.138
 6420SOL     OW21091  13.702  14.498   4.469
 6420SOL    HW121092  13.722  14.591   4.463
 6420SOL    HW221093  13.646  14.490   4.546
 6421SOL     OW21094   0.173   3.965  11.333
 6421SOL    HW121095   0.195   3.962  11.426
 6421SOL    HW221096   0.136   4.052  11.320
 6422SOL     OW21097   2.285  11.714   3.608
 6422SOL    HW121098   2.317  11.735   3.520
 6422SOL    HW221099   2.262  11.799   3.645
 6423SOL     OW21100   4.905   7.665   6.033
 6423SOL    HW121101   4.970   7.637   6.098
 6423SOL    HW221102   4.957   7.704   5.963
 6424SOL     OW21103   5.813  13.250   1.725
 6424SOL    HW121104   5.828  13.210   1.639
 6424SOL    HW221105   5.736  13.206   1.759
 6425SOL     OW21106   1.433   1.449   8.146
 6425SOL    HW121107   1.510   1.393   8.143
 6425SOL    HW221108   1.359   1.388   8.151
 6426SOL     OW21109   4.722   3.233  14.121
 6426SOL    HW121110   4.687   3.150  14.153
 6426SOL    HW221111   4.783   3.208  14.051
 6427SOL     OW21112  11.192   6.254   0.630
 6427SOL    HW121113  11.119   6.305   0.594
 6427SOL    HW221114  11.151   6.180   0.674
 6428SOL     OW21115   5.262   2.798   8.957
 6428SOL    HW121116   5.260   2.703   8.955
 6428SOL    HW221117   5.174   2.823   8.987
 6429SOL     OW21118   2.826   4.327   0.757
 6429SOL    HW121119   2.745   4.292   0.794
 6429SOL    HW221120   2.799   4.408   0.714
 6430SOL     OW21121   7.628   2.792  13.244
 6430SOL    HW121122   7.547   2.742  13.232
 6430SOL    HW221123   7.620   2.865  13.182
 6431SOL     OW21124   7.164   8.314  13.746
 6431SOL    HW121125   7.094   8.304  13.810
 6431SOL    HW221126   7.211   8.231  13.748
 6432SOL     OW21127   1.859  11.690  11.699
 6432SOL    HW121128   1.945  11.679  11.739
 6432SOL    HW221129   1.803  11.627  11.744
 6433SOL     OW21130   8.037   0.971  12.245
 6433SOL    HW121131   8.111   1.022  12.278
 6433SOL    HW221132   7.966   1.035  12.236
 6434SOL     OW21133  10.318  10.384  13.446
 6434SOL    HW121134  10.300  10.464  13.495
 6434SOL    HW221135  10.413  10.384  13.435
 6435SOL     OW21136  12.717  10.223   0.930
 6435SOL    HW121137  12.635  10.189   0.966
 6435SOL    HW221138  12.770  10.242   1.007
 6436SOL     OW21139   6.143   4.576   6.205
 6436SOL    HW121140   6.096   4.509   6.255
 6436SOL    HW221141   6.093   4.586   6.124
 6437SOL     OW21142   3.882   1.852  12.921
 6437SOL    HW121143   3.935   1.775  12.901
 6437SOL    HW221144   3.792   1.824  12.906
 6438SOL     OW21145  14.739   4.368   5.622
 6438SOL    HW121146  14.763   4.339   5.534
 6438SOL    HW221147  14.720   4.287   5.670
 6439SOL     OW21148  13.168  10.151   2.095
 6439SOL    HW121149  13.221  10.117   2.022
 6439SOL    HW221150  13.214  10.230   2.123
 6440SOL     OW21151   6.158   0.788   7.902
 6440SOL    HW121152   6.229   0.850   7.884
 6440SOL    HW221153   6.184   0.746   7.984
 6441SOL     OW21154  13.417  12.612   4.550
 6441SOL    HW121155  13.425  12.523   4.586
 6441SOL    HW221156  13.506  12.646   4.553
 6442SOL     OW21157  10.831   3.208   9.983
 6442SOL    HW121158  10.794   3.127  10.021
 6442SOL    HW221159  10.775   3.227   9.908
 6443SOL     OW21160  14.342   2.230   2.244
 6443SOL    HW121161  14.396   2.263   2.172
 6443SOL    HW221162  14.348   2.297   2.312
 6444SOL     OW21163  14.075   0.095  12.272
 6444SOL    HW121164  14.142   0.114  12.206
 6444SOL    HW221165  14.121   0.043  12.338
 6445SOL     OW21166  14.269   0.078  10.221
 6445SOL    HW121167  14.308   0.108  10.139
 6445SOL    HW221168  14.328   0.110  10.289
 6446SOL     OW21169   6.696   2.459  14.199
 6446SOL    HW121170   6.787   2.446  14.174
 6446SOL    HW221171   6.648   2.460  14.116
 6447SOL     OW21172   7.490   5.381   4.804
 6447SOL    HW121173   7.448   5.445   4.747
 6447SOL    HW221174   7.517   5.310   4.745
 6448SOL     OW21175   5.666   8.145   2.629
 6448SOL    HW121176   5.584   8.137   2.677
 6448SOL    HW221177   5.728   8.181   2.693
 6449SOL     OW21178   0.859   5.381   3.840
 6449SOL    HW121179   0.802   5.454   3.816
 6449SOL    HW221180   0.805   5.326   3.897
 6450SOL     OW21181   7.323  12.569   4.680
 6450SOL    HW121182   7.327  12.489   4.628
 6450SOL    HW221183   7.238  12.607   4.658
 6451SOL     OW21184  10.796   8.811  13.146
 6451SOL    HW121185  10.869   8.794  13.206
 6451SOL    HW221186  10.791   8.906  13.141
 6452SOL     OW21187  11.615   2.397   7.064
 6452SOL    HW121188  11.598   2.373   7.155
 6452SOL    HW221189  11.646   2.316   7.023
 6453SOL     OW21190   8.716   0.010  14.872
 6453SOL    HW121191   8.672  14.873   0.081
 6453SOL    HW221192   8.692  14.808  14.822
 6454SOL     OW21193   4.050  10.897  14.395
 6454SOL    HW121194   3.957  10.916  14.383
 6454SOL    HW221195   4.053  10.843  14.474
 6455SOL     OW21196  13.550  13.087   1.300
 6455SOL    HW121197  13.581  13.156   1.242
 6455SOL    HW221198  13.506  13.024   1.242
 6456SOL     OW21199  13.722   2.036  11.213
 6456SOL    HW121200  13.664   1.986  11.155
 6456SOL    HW221201  13.779   2.084  11.154
 6457SOL     OW21202  12.096   6.573   0.244
 6457SOL    HW121203  12.115   6.599   0.333
 6457SOL    HW221204  12.086   6.655   0.196
 6458SOL     OW21205   0.971  13.318   8.165
 6458SOL    HW121206   0.945  13.249   8.226
 6458SOL    HW221207   0.953  13.283   8.079
 6459SOL     OW21208   5.569   9.715   4.275
 6459SOL    HW121209   5.506   9.674   4.334
 6459SOL    HW221210   5.627   9.766   4.332
 6460SOL     OW21211   0.597   6.249  13.978
 6460SOL    HW121212   0.651   6.294  14.042
 6460SOL    HW221213   0.594   6.158  14.007
 6461SOL     OW21214   8.656   3.975   8.276
 6461SOL    HW121215   8.667   3.908   8.208
 6461SOL    HW221216   8.620   3.927   8.350
 6462SOL     OW21217  12.166   6.188   1.776
 6462SOL    HW121218  12.176   6.096   1.749
 6462SOL    HW221219  12.118   6.183   1.860
 6463SOL     OW21220   6.151   3.258   6.831
 6463SOL    HW121221   6.191   3.345   6.833
 6463SOL    HW221222   6.072   3.268   6.884
 6464SOL     OW21223   3.473   4.334   9.616
 6464SOL    HW121224   3.406   4.270   9.593
 6464SOL    HW221225   3.537   4.285   9.668
 6465SOL     OW21226   0.142   1.641  11.746
 6465SOL    HW121227   0.062   1.599  11.777
 6465SOL    HW221228   0.155   1.716  11.804
 6466SOL     OW21229   6.849  13.557  12.192
 6466SOL    HW121230   6.858  13.600  12.107
 6466SOL    HW221231   6.827  13.466  12.171
 6467SOL     OW21232   1.065   9.543   2.521
 6467SOL    HW121233   1.019   9.622   2.492
 6467SOL    HW221234   1.083   9.495   2.441
 6468SOL     OW21235   1.832   6.531  11.972
 6468SOL    HW121236   1.854   6.623  11.980
 6468SOL    HW221237   1.912   6.485  11.996
 6469SOL     OW21238   8.235  10.874   7.215
 6469SOL    HW121239   8.207  10.937   7.149
 6469SOL    HW221240   8.154  10.834   7.247
 6470SOL     OW21241   3.848   4.583   3.854
 6470SOL    HW121242   3.791   4.568   3.778
 6470SOL    HW221243   3.875   4.675   3.846
 6471SOL     OW21244  11.290   5.138   2.173
 6471SOL    HW121245  11.267   5.117   2.082
 6471SOL    HW221246  11.217   5.191   2.204
 6472SOL     OW21247   2.882   1.133  13.070
 6472SOL    HW121248   2.929   1.050  13.065
 6472SOL    HW221249   2.866   1.158  12.979
 6473SOL     OW21250   6.173   6.956   3.391
 6473SOL    HW121251   6.089   6.998   3.412
 6473SOL    HW221252   6.180   6.963   3.295
 6474SOL     OW21253   7.503  10.867  13.733
 6474SOL    HW121254   7.537  10.918  13.660
 6474SOL    HW221255   7.510  10.776  13.704
 6475SOL     OW21256  12.881  14.267  14.129
 6475SOL    HW121257  12.875  14.195  14.067
 6475SOL    HW221258  12.973  14.292  14.129
 6476SOL     OW21259  12.682  14.192   3.332
 6476SOL    HW121260  12.723  14.152   3.256
 6476SOL    HW221261  12.694  14.129   3.403
 6477SOL     OW21262  12.778   7.566   2.799
 6477SOL    HW121263  12.866   7.561   2.761
 6477SOL    HW221264  12.753   7.658   2.789
 6478SOL     OW21265   0.637   8.640   2.548
 6478SOL    HW121266   0.559   8.673   2.503
 6478SOL    HW221267   0.681   8.718   2.581
 6479SOL     OW21268   2.059   5.652   4.994
 6479SOL    HW121269   2.049   5.672   5.087
 6479SOL    HW221270   1.974   5.618   4.967
 6480SOL     OW21271  11.386   1.498   7.754
 6480SOL    HW121272  11.336   1.528   7.829
 6480SOL    HW221273  11.410   1.578   7.707
 6481SOL     OW21274  13.686   1.837  14.078
 6481SOL    HW121275  13.620   1.836  14.009
 6481SOL    HW221276  13.682   1.926  14.113
 6482SOL     OW21277  12.309   2.099   7.449
 6482SOL    HW121278  12.353   2.059   7.374
 6482SOL    HW221279  12.359   2.069   7.525
 6483SOL     OW21280   8.744   9.038   6.936
 6483SOL    HW121281   8.686   9.095   6.884
 6483SOL    HW221282   8.704   8.951   6.929
 6484SOL     OW21283   5.961   5.058   4.421
 6484SOL    HW121284   6.048   5.097   4.421
 6484SOL    HW221285   5.912   5.109   4.486
 6485SOL     OW21286   8.347   9.867   0.246
 6485SOL    HW121287   8.399   9.836   0.320
 6485SOL    HW221288   8.297   9.941   0.280
 6486SOL     OW21289  11.890   9.409   9.641
 6486SOL    HW121290  11.914   9.441   9.554
 6486SOL    HW221291  11.952   9.452   9.700
 6487SOL     OW21292   9.504   8.117  12.247
 6487SOL    HW121293   9.574   8.057  12.276
 6487SOL    HW221294   9.434   8.059  12.218
 6488SOL     OW21295   7.452   6.649   2.940
 6488SOL    HW121296   7.444   6.688   3.027
 6488SOL    HW221297   7.375   6.680   2.893
 6489SOL     OW21298   6.358  13.296  14.508
 6489SOL    HW121299   6.384  13.238  14.580
 6489SOL    HW221300   6.438  13.343  14.485
 6490SOL     OW21301  11.516   7.920   9.979
 6490SOL    HW121302  11.441   7.916  10.039
 6490SOL    HW221303  11.484   7.878   9.899
 6491SOL     OW21304   9.022   0.385   3.067
 6491SOL    HW121305   8.968   0.307   3.078
 6491SOL    HW221306   8.961   0.452   3.035
 6492SOL     OW21307   8.651   1.433   6.212
 6492SOL    HW121308   8.652   1.464   6.121
 6492SOL    HW221309   8.679   1.508   6.264
 6493SOL     OW21310   3.933   6.287   4.135
 6493SOL    HW121311   3.911   6.274   4.043
 6493SOL    HW221312   3.890   6.369   4.158
 6494SOL     OW21313   8.006   8.593   5.181
 6494SOL    HW121314   7.914   8.568   5.176
 6494SOL    HW221315   8.052   8.526   5.131
 6495SOL     OW21316   9.506  10.485   9.509
 6495SOL    HW121317   9.580  10.531   9.469
 6495SOL    HW221318   9.429  10.537   9.485
 6496SOL     OW21319   4.368  13.699   1.154
 6496SOL    HW121320   4.344  13.715   1.063
 6496SOL    HW221321   4.296  13.646   1.190
 6497SOL     OW21322   4.278   5.612   1.586
 6497SOL    HW121323   4.224   5.616   1.507
 6497SOL    HW221324   4.265   5.524   1.620
 6498SOL     OW21325  10.987  12.256   7.411
 6498SOL    HW121326  11.059  12.194   7.400
 6498SOL    HW221327  11.014  12.311   7.484
 6499SOL     OW21328   2.472   4.345  13.222
 6499SOL    HW121329   2.559   4.324  13.255
 6499SOL    HW221330   2.432   4.398  13.291
 6500SOL     OW21331   8.143   7.644  11.927
 6500SOL    HW121332   8.125   7.550  11.935
 6500SOL    HW221333   8.119   7.680  12.013
 6501SOL     OW21334  13.888   1.441  11.049
 6501SOL    HW121335  13.822   1.502  11.083
 6501SOL    HW221336  13.844   1.394  10.979
 6502SOL     OW21337   8.956   9.461   2.169
 6502SOL    HW121338   9.039   9.506   2.184
 6502SOL    HW221339   8.902   9.484   2.245
 6503SOL     OW21340   7.068   8.759   1.012
 6503SOL    HW121341   7.016   8.814   0.953
 6503SOL    HW221342   7.022   8.764   1.096
 6504SOL     OW21343   6.914  10.911   5.667
 6504SOL    HW121344   6.916  10.842   5.600
 6504SOL    HW221345   6.867  10.872   5.740
 6505SOL     OW21346   7.091   7.496   2.737
 6505SOL    HW121347   7.155   7.443   2.689
 6505SOL    HW221348   7.007   7.470   2.700
 6506SOL     OW21349   6.896   7.036   3.327
 6506SOL    HW121350   6.930   7.025   3.416
 6506SOL    HW221351   6.965   7.084   3.281
 6507SOL     OW21352  14.850   4.214   7.030
 6507SOL    HW121353   0.002   4.293   7.076
 6507SOL    HW221354   0.039   4.203   6.960
 6508SOL     OW21355  11.165   8.928   3.016
 6508SOL    HW121356  11.170   8.981   3.095
 6508SOL    HW221357  11.160   8.992   2.945
 6509SOL     OW21358   2.684  13.344   9.688
 6509SOL    HW121359   2.731  13.375   9.766
 6509SOL    HW221360   2.750  13.299   9.636
 6510SOL     OW21361   6.902   7.888   7.513
 6510SOL    HW121362   6.868   7.819   7.569
 6510SOL    HW221363   6.875   7.863   7.425
 6511SOL     OW21364   0.053   0.147   2.366
 6511SOL    HW121365   0.064   0.240   2.346
 6511SOL    HW221366   0.057   0.104   2.280
 6512SOL     OW21367  11.092  12.905  14.187
 6512SOL    HW121368  11.163  12.874  14.243
 6512SOL    HW221369  11.136  12.953  14.117
 6513SOL     OW21370   3.427   0.170  12.264
 6513SOL    HW121371   3.384   0.179  12.349
 6513SOL    HW221372   3.413   0.078  12.240
 6514SOL     OW21373   3.452   4.897  13.456
 6514SOL    HW121374   3.524   4.889  13.395
 6514SOL    HW221375   3.374   4.907  13.401
 6515SOL     OW21376  11.978  11.892   8.640
 6515SOL    HW121377  11.901  11.836   8.640
 6515SOL    HW221378  11.958  11.960   8.705
 6516SOL     OW21379   9.479   0.919   7.728
 6516SOL    HW121380   9.389   0.952   7.718
 6516SOL    HW221381   9.505   0.894   7.639
 6517SOL     OW21382   4.030  12.728   9.649
 6517SOL    HW121383   4.017  12.814   9.610
 6517SOL    HW221384   3.954  12.677   9.622
 6518SOL     OW21385   8.471   3.031   9.792
 6518SOL    HW121386   8.390   3.077   9.769
 6518SOL    HW221387   8.468   2.951   9.739
 6519SOL     OW21388   1.808   2.736   1.572
 6519SOL    HW121389   1.757   2.744   1.491
 6519SOL    HW221390   1.815   2.641   1.586
 6520SOL     OW21391   0.659   9.216   4.566
 6520SOL    HW121392   0.737   9.220   4.622
 6520SOL    HW221393   0.679   9.146   4.503
 6521SOL     OW21394   4.782  11.852   8.946
 6521SOL    HW121395   4.803  11.825   9.035
 6521SOL    HW221396   4.866  11.865   8.903
 6522SOL     OW21397   7.209   1.005   1.887
 6522SOL    HW121398   7.288   1.038   1.929
 6522SOL    HW221399   7.220   1.026   1.794
 6523SOL     OW21400   1.369   4.470   4.799
 6523SOL    HW121401   1.299   4.536   4.795
 6523SOL    HW221402   1.447   4.516   4.765
 6524SOL     OW21403  13.047   7.200   1.900
 6524SOL    HW121404  13.030   7.248   1.819
 6524SOL    HW221405  13.120   7.247   1.941
 6525SOL     OW21406  10.239   1.269  13.558
 6525SOL    HW121407  10.169   1.319  13.600
 6525SOL    HW221408  10.198   1.232  13.480
 6526SOL     OW21409   5.621   7.078   1.780
 6526SOL    HW121410   5.552   7.109   1.722
 6526SOL    HW221411   5.687   7.040   1.721
 6527SOL     OW21412   8.380   9.528   2.565
 6527SOL    HW121413   8.386   9.600   2.501
 6527SOL    HW221414   8.449   9.546   2.628
 6528SOL     OW21415   5.639  14.491   5.282
 6528SOL    HW121416   5.553  14.450   5.273
 6528SOL    HW221417   5.701  14.422   5.257
 6529SOL     OW21418   9.901   1.615   8.421
 6529SOL    HW121419   9.844   1.679   8.463
 6529SOL    HW221420   9.841   1.557   8.374
 6530SOL     OW21421  14.382   6.898   2.075
 6530SOL    HW121422  14.325   6.822   2.065
 6530SOL    HW221423  14.408   6.897   2.167
 6531SOL     OW21424   0.447   7.830   2.112
 6531SOL    HW121425   0.457   7.758   2.174
 6531SOL    HW221426   0.369   7.807   2.061
 6532SOL     OW21427  10.308  13.613  10.634
 6532SOL    HW121428  10.383  13.574  10.679
 6532SOL    HW221429  10.341  13.695  10.599
 6533SOL     OW21430  14.673  14.211  10.967
 6533SOL    HW121431  14.728  14.259  11.030
 6533SOL    HW221432  14.725  14.208  10.887
 6534SOL     OW21433   3.726  12.456  12.667
 6534SOL    HW121434   3.733  12.457  12.762
 6534SOL    HW221435   3.812  12.427  12.637
 6535SOL     OW21436  11.223  10.167   5.619
 6535SOL    HW121437  11.231  10.260   5.599
 6535SOL    HW221438  11.293  10.126   5.568
 6536SOL     OW21439  12.890   4.629   5.426
 6536SOL    HW121440  12.921   4.538   5.432
 6536SOL    HW221441  12.839   4.642   5.507
 6537SOL     OW21442   0.755   1.091   5.492
 6537SOL    HW121443   0.839   1.055   5.463
 6537SOL    HW221444   0.773   1.183   5.511
 6538SOL     OW21445   7.531  10.001   8.645
 6538SOL    HW121446   7.553   9.947   8.721
 6538SOL    HW221447   7.610  10.054   8.631
 6539SOL     OW21448   3.284   9.719   1.310
 6539SOL    HW121449   3.207   9.731   1.366
 6539SOL    HW221450   3.248   9.712   1.222
 6540SOL     OW21451  12.118   5.431  12.701
 6540SOL    HW121452  12.047   5.485  12.735
 6540SOL    HW221453  12.196   5.464  12.745
 6541SOL     OW21454  11.661  13.229   2.350
 6541SOL    HW121455  11.667  13.217   2.444
 6541SOL    HW221456  11.715  13.306   2.332
 6542SOL     OW21457   3.040   8.303   9.620
 6542SOL    HW121458   2.962   8.271   9.575
 6542SOL    HW221459   3.061   8.234   9.684
 6543SOL     OW21460   0.264   4.847  11.879
 6543SOL    HW121461   0.194   4.912  11.868
 6543SOL    HW221462   0.230   4.785  11.944
 6544SOL     OW21463   8.467   7.046  10.252
 6544SOL    HW121464   8.481   7.070  10.160
 6544SOL    HW221465   8.545   6.997  10.276
 6545SOL     OW21466  13.855   8.719   3.550
 6545SOL    HW121467  13.895   8.638   3.581
 6545SOL    HW221468  13.761   8.700   3.548
 6546SOL     OW21469  12.005  14.201  12.448
 6546SOL    HW121470  12.058  14.222  12.371
 6546SOL    HW221471  11.940  14.271  12.453
 6547SOL     OW21472   4.708   0.053  10.107
 6547SOL    HW121473   4.662  14.864  10.160
 6547SOL    HW221474   4.640   0.112  10.076
 6548SOL     OW21475   9.338   3.134  13.265
 6548SOL    HW121476   9.412   3.077  13.241
 6548SOL    HW221477   9.371   3.223  13.250
 6549SOL     OW21478   0.399  13.121  14.015
 6549SOL    HW121479   0.426  13.029  14.013
 6549SOL    HW221480   0.316  13.120  14.062
 6550SOL     OW21481   5.189  11.269   3.216
 6550SOL    HW121482   5.141  11.193   3.184
 6550SOL    HW221483   5.271  11.232   3.251
 6551SOL     OW21484  10.198   3.064  10.606
 6551SOL    HW121485  10.261   3.109  10.662
 6551SOL    HW221486  10.138   3.133  10.577
 6552SOL     OW21487   1.552   5.717   2.264
 6552SOL    HW121488   1.459   5.739   2.269
 6552SOL    HW221489   1.557   5.627   2.299
 6553SOL     OW21490  12.219   9.517  12.960
 6553SOL    HW121491  12.125   9.503  12.949
 6553SOL    HW221492  12.242   9.584  12.895
 6554SOL     OW21493   9.951   6.258   0.893
 6554SOL    HW121494  10.035   6.220   0.870
 6554SOL    HW221495   9.887   6.200   0.852
 6555SOL     OW21496   6.106  13.956  12.826
 6555SOL    HW121497   6.087  14.034  12.773
 6555SOL    HW221498   6.074  13.978  12.913
 6556SOL     OW21499  14.031   1.882   6.258
 6556SOL    HW121500  13.941   1.862   6.284
 6556SOL    HW221501  14.064   1.938   6.328
 6557SOL     OW21502   7.087   9.993  10.725
 6557SOL    HW121503   7.016   9.940  10.689
 6557SOL    HW221504   7.043  10.054  10.786
 6558SOL     OW21505   0.321   0.679   2.317
 6558SOL    HW121506   0.293   0.693   2.226
 6558SOL    HW221507   0.263   0.736   2.368
 6559SOL     OW21508   9.606  14.067  11.819
 6559SOL    HW121509   9.580  13.976  11.827
 6559SOL    HW221510   9.676  14.078  11.883
 6560SOL     OW21511  11.498  10.092  10.029
 6560SOL    HW121512  11.461  10.135  10.106
 6560SOL    HW221513  11.524  10.164   9.971
 6561SOL     OW21514  12.955   2.798   7.393
 6561SOL    HW121515  13.039   2.798   7.438
 6561SOL    HW221516  12.906   2.727   7.433
 6562SOL     OW21517   8.221  10.021  10.620
 6562SOL    HW121518   8.128  10.017  10.598
 6562SOL    HW221519   8.228   9.974  10.703
 6563SOL     OW21520  10.900   2.328   0.166
 6563SOL    HW121521  10.834   2.379   0.212
 6563SOL    HW221522  10.864   2.239   0.165
 6564SOL     OW21523  14.048   5.236  11.753
 6564SOL    HW121524  13.986   5.205  11.688
 6564SOL    HW221525  14.089   5.156  11.788
 6565SOL     OW21526   2.262   6.612  10.331
 6565SOL    HW121527   2.308   6.561  10.397
 6565SOL    HW221528   2.306   6.591  10.249
 6566SOL     OW21529   4.735   9.297  12.177
 6566SOL    HW121530   4.687   9.338  12.105
 6566SOL    HW221531   4.812   9.353  12.189
 6567SOL     OW21532  12.754  12.135   2.230
 6567SOL    HW121533  12.723  12.045   2.233
 6567SOL    HW221534  12.682  12.187   2.264
 6568SOL     OW21535   9.736   9.456   6.433
 6568SOL    HW121536   9.756   9.392   6.501
 6568SOL    HW221537   9.695   9.529   6.479
 6569SOL     OW21538   2.789   1.413  12.070
 6569SOL    HW121539   2.831   1.385  12.152
 6569SOL    HW221540   2.861   1.427  12.009
 6570SOL     OW21541  11.249   4.489   5.507
 6570SOL    HW121542  11.340   4.500   5.534
 6570SOL    HW221543  11.234   4.395   5.511
 6571SOL     OW21544  13.250  14.006  12.380
 6571SOL    HW121545  13.222  13.939  12.442
 6571SOL    HW221546  13.221  14.088  12.420
 6572SOL     OW21547   9.218  12.443   7.073
 6572SOL    HW121548   9.200  12.459   7.165
 6572SOL    HW221549   9.289  12.503   7.051
 6573SOL     OW21550  12.856   7.255   8.774
 6573SOL    HW121551  12.875   7.193   8.704
 6573SOL    HW221552  12.764   7.241   8.794
 6574SOL     OW21553   5.241   6.835   9.719
 6574SOL    HW121554   5.261   6.805   9.808
 6574SOL    HW221555   5.160   6.788   9.696
 6575SOL     OW21556  12.178  13.546  13.303
 6575SOL    HW121557  12.203  13.548  13.211
 6575SOL    HW221558  12.260  13.535  13.350
 6576SOL     OW21559   0.814   5.204   2.489
 6576SOL    HW121560   0.743   5.211   2.425
 6576SOL    HW221561   0.774   5.234   2.571
 6577SOL     OW21562   5.702   8.186   4.481
 6577SOL    HW121563   5.724   8.279   4.472
 6577SOL    HW221564   5.732   8.163   4.569
 6578SOL     OW21565  12.343   4.687   5.065
 6578SOL    HW121566  12.351   4.714   4.974
 6578SOL    HW221567  12.274   4.743   5.101
 6579SOL     OW21568   2.005   4.367   0.459
 6579SOL    HW121569   2.064   4.426   0.506
 6579SOL    HW221570   2.005   4.286   0.511
 6580SOL     OW21571   7.802   1.568   0.639
 6580SOL    HW121572   7.754   1.513   0.577
 6580SOL    HW221573   7.743   1.578   0.713
 6581SOL     OW21574  12.290   1.978   9.092
 6581SOL    HW121575  12.278   2.058   9.142
 6581SOL    HW221576  12.207   1.932   9.098
 6582SOL     OW21577  11.204   0.096  11.080
 6582SOL    HW121578  11.297   0.106  11.058
 6582SOL    HW221579  11.205   0.058  11.168
 6583SOL     OW21580   1.709   2.543  10.621
 6583SOL    HW121581   1.625   2.570  10.584
 6583SOL    HW221582   1.701   2.562  10.715
 6584SOL     OW21583   9.349   5.782   2.227
 6584SOL    HW121584   9.425   5.821   2.270
 6584SOL    HW221585   9.333   5.701   2.277
 6585SOL     OW21586   0.224   9.248   4.869
 6585SOL    HW121587   0.309   9.258   4.826
 6585SOL    HW221588   0.194   9.160   4.844
 6586SOL     OW21589   1.966   7.005   2.986
 6586SOL    HW121590   2.016   7.087   2.987
 6586SOL    HW221591   2.000   6.957   2.910
 6587SOL     OW21592   4.609   9.891   0.963
 6587SOL    HW121593   4.645   9.803   0.970
 6587SOL    HW221594   4.667   9.944   1.018
 6588SOL     OW21595  10.480  14.638   3.107
 6588SOL    HW121596  10.454  14.613   3.196
 6588SOL    HW221597  10.563  14.684   3.119
 6589SOL     OW21598   0.721   8.793   1.534
 6589SOL    HW121599   0.769   8.774   1.453
 6589SOL    HW221600   0.632   8.811   1.505
 6590SOL     OW21601   7.793   2.112   9.164
 6590SOL    HW121602   7.855   2.144   9.099
 6590SOL    HW221603   7.769   2.190   9.215
 6591SOL     OW21604  11.361   2.282   5.297
 6591SOL    HW121605  11.269   2.274   5.322
 6591SOL    HW221606  11.384   2.194   5.266
 6592SOL     OW21607   1.977   3.281  13.176
 6592SOL    HW121608   1.990   3.321  13.262
 6592SOL    HW221609   2.022   3.196  13.183
 6593SOL     OW21610  12.037   0.951   0.709
 6593SOL    HW121611  11.950   0.948   0.670
 6593SOL    HW221612  12.091   0.996   0.644
 6594SOL     OW21613   8.869   8.269  13.116
 6594SOL    HW121614   8.935   8.317  13.166
 6594SOL    HW221615   8.851   8.325  13.040
 6595SOL     OW21616  10.629   3.580   6.915
 6595SOL    HW121617  10.603   3.502   6.866
 6595SOL    HW221618  10.595   3.565   7.003
 6596SOL     OW21619   9.054   2.370  14.019
 6596SOL    HW121620   9.128   2.359  14.079
 6596SOL    HW221621   9.022   2.459  14.036
 6597SOL     OW21622   2.698  12.247   1.559
 6597SOL    HW121623   2.786  12.284   1.565
 6597SOL    HW221624   2.688  12.195   1.639
 6598SOL     OW21625  11.105   9.627   0.279
 6598SOL    HW121626  11.123   9.700   0.339
 6598SOL    HW221627  11.102   9.550   0.336
 6599SOL     OW21628  11.892   1.256  13.876
 6599SOL    HW121629  11.820   1.214  13.922
 6599SOL    HW221630  11.926   1.189  13.817
 6600SOL     OW21631  11.493  10.396   6.697
 6600SOL    HW121632  11.525  10.354   6.617
 6600SOL    HW221633  11.482  10.488   6.673
 6601SOL     OW21634  11.225  10.631  13.973
 6601SOL    HW121635  11.273  10.620  14.055
 6601SOL    HW221636  11.205  10.542  13.945
 6602SOL     OW21637   1.082   7.771   1.063
 6602SOL    HW121638   1.105   7.723   1.143
 6602SOL    HW221639   1.113   7.860   1.080
 6603SOL     OW21640   9.328   5.757  11.354
 6603SOL    HW121641   9.300   5.739  11.264
 6603SOL    HW221642   9.264   5.712  11.408
 6604SOL     OW21643   0.506   4.334   7.462
 6604SOL    HW121644   0.447   4.410   7.457
 6604SOL    HW221645   0.575   4.361   7.522
 6605SOL     OW21646   0.982   3.507  13.837
 6605SOL    HW121647   1.014   3.591  13.804
 6605SOL    HW221648   0.990   3.514  13.932
 6606SOL     OW21649   8.782   4.207   3.038
 6606SOL    HW121650   8.699   4.255   3.051
 6606SOL    HW221651   8.847   4.276   3.026
 6607SOL     OW21652  14.372   5.001   2.610
 6607SOL    HW121653  14.361   5.080   2.557
 6607SOL    HW221654  14.386   5.034   2.699
 6608SOL     OW21655   3.476  10.502  12.180
 6608SOL    HW121656   3.482  10.550  12.098
 6608SOL    HW221657   3.393  10.531  12.219
 6609SOL     OW21658   3.016   6.829   9.648
 6609SOL    HW121659   3.046   6.890   9.715
 6609SOL    HW221660   2.954   6.879   9.595
 6610SOL     OW21661   4.325   1.010   2.563
 6610SOL    HW121662   4.364   0.975   2.642
 6610SOL    HW221663   4.279   1.089   2.591
 6611SOL     OW21664   8.201   0.728   0.702
 6611SOL    HW121665   8.194   0.636   0.678
 6611SOL    HW221666   8.264   0.729   0.774
 6612SOL     OW21667  12.840   8.969   3.907
 6612SOL    HW121668  12.857   8.902   3.841
 6612SOL    HW221669  12.775   9.026   3.866
 6613SOL     OW21670  11.764   0.631   1.077
 6613SOL    HW121671  11.760   0.656   0.985
 6613SOL    HW221672  11.675   0.644   1.110
 6614SOL     OW21673   8.873   4.767  10.885
 6614SOL    HW121674   8.802   4.707  10.862
 6614SOL    HW221675   8.844   4.809  10.966
 6615SOL     OW21676   8.996   0.823   9.389
 6615SOL    HW121677   9.076   0.875   9.395
 6615SOL    HW221678   9.013   0.746   9.444
 6616SOL     OW21679   1.549  11.746   0.050
 6616SOL    HW121680   1.543  11.822  14.868
 6616SOL    HW221681   1.632  11.758   0.097
 6617SOL     OW21682   4.489   2.128   2.435
 6617SOL    HW121683   4.440   2.108   2.356
 6617SOL    HW221684   4.540   2.049   2.453
 6618SOL     OW21685  11.697   7.726  13.107
 6618SOL    HW121686  11.731   7.675  13.181
 6618SOL    HW221687  11.684   7.661  13.037
 6619SOL     OW21688   2.903   5.761   1.256
 6619SOL    HW121689   2.814   5.737   1.281
 6619SOL    HW221690   2.959   5.708   1.314
 6620SOL     OW21691  13.355  10.167   8.752
 6620SOL    HW121692  13.286  10.180   8.817
 6620SOL    HW221693  13.426  10.124   8.800
 6621SOL     OW21694   2.269   9.888  14.800
 6621SOL    HW121695   2.343   9.872  14.741
 6621SOL    HW221696   2.265   9.810  14.855
 6622SOL     OW21697   4.324   3.351   5.762
 6622SOL    HW121698   4.262   3.414   5.725
 6622SOL    HW221699   4.323   3.369   5.856
 6623SOL     OW21700   3.411  10.666  11.952
 6623SOL    HW121701   3.335  10.708  11.912
 6623SOL    HW221702   3.485  10.720  11.925
 6624SOL     OW21703   4.445  10.260  12.038
 6624SOL    HW121704   4.521  10.279  12.093
 6624SOL    HW221705   4.375  10.240  12.100
 6625SOL     OW21706   8.449   5.118  11.575
 6625SOL    HW121707   8.395   5.156  11.644
 6625SOL    HW221708   8.538   5.118  11.610
 6626SOL     OW21709  10.307   0.915   3.998
 6626SOL    HW121710  10.259   0.840   4.033
 6626SOL    HW221711  10.346   0.956   4.075
 6627SOL     OW21712  10.206  12.934   8.708
 6627SOL    HW121713  10.271  12.995   8.744
 6627SOL    HW221714  10.258  12.868   8.662
 6628SOL     OW21715   8.363  10.384   0.375
 6628SOL    HW121716   8.321  10.299   0.361
 6628SOL    HW221717   8.456  10.368   0.361
 6629SOL     OW21718  11.665  12.314   1.176
 6629SOL    HW121719  11.694  12.284   1.090
 6629SOL    HW221720  11.734  12.374   1.206
 6630SOL     OW21721   4.906  12.976  11.229
 6630SOL    HW121722   4.847  13.016  11.292
 6630SOL    HW221723   4.854  12.968  11.149
 6631SOL     OW21724   6.190   6.498   2.464
 6631SOL    HW121725   6.245   6.423   2.488
 6631SOL    HW221726   6.124   6.503   2.534
 6632SOL     OW21727   2.898   9.270   1.637
 6632SOL    HW121728   2.985   9.302   1.661
 6632SOL    HW221729   2.841   9.301   1.707
 6633SOL     OW21730   3.887  10.166   0.973
 6633SOL    HW121731   3.929  10.091   0.932
 6633SOL    HW221732   3.822  10.196   0.908
 6634SOL     OW21733  13.297   7.652   8.421
 6634SOL    HW121734  13.238   7.711   8.468
 6634SOL    HW221735  13.384   7.669   8.457
 6635SOL     OW21736  11.325   0.464  14.875
 6635SOL    HW121737  11.364   0.516   0.069
 6635SOL    HW221738  11.266   0.403   0.045
 6636SOL     OW21739   1.346   8.794   2.371
 6636SOL    HW121740   1.382   8.850   2.439
 6636SOL    HW221741   1.357   8.843   2.290
 6637SOL     OW21742   3.459   0.150   7.611
 6637SOL    HW121743   3.428   0.168   7.700
 6637SOL    HW221744   3.400   0.082   7.579
 6638SOL     OW21745   0.186   8.978  11.011
 6638SOL    HW121746   0.103   8.937  10.985
 6638SOL    HW221747   0.237   8.907  11.048
 6639SOL     OW21748   3.327   4.706   4.619
 6639SOL    HW121749   3.386   4.658   4.561
 6639SOL    HW221750   3.242   4.704   4.574
 6640SOL     OW21751  13.401   1.413   9.029
 6640SOL    HW121752  13.325   1.360   9.005
 6640SOL    HW221753  13.367   1.480   9.088
 6641SOL     OW21754  13.963   5.676   3.554
 6641SOL    HW121755  13.908   5.602   3.528
 6641SOL    HW221756  13.982   5.661   3.647
 6642SOL     OW21757   5.848   6.563   3.453
 6642SOL    HW121758   5.764   6.571   3.499
 6642SOL    HW221759   5.824   6.538   3.364
 6643SOL     OW21760  11.235  10.936  10.509
 6643SOL    HW121761  11.155  10.979  10.536
 6643SOL    HW221762  11.206  10.857  10.462
 6644SOL     OW21763  11.214  14.095  14.234
 6644SOL    HW121764  11.194  14.120  14.144
 6644SOL    HW221765  11.131  14.062  14.268
 6645SOL     OW21766   6.460   1.801  13.429
 6645SOL    HW121767   6.409   1.734  13.383
 6645SOL    HW221768   6.528   1.752  13.475
 6646SOL     OW21769  10.086   4.517   5.867
 6646SOL    HW121770  10.132   4.463   5.803
 6646SOL    HW221771  10.081   4.461   5.945
 6647SOL     OW21772   2.396   1.631   7.716
 6647SOL    HW121773   2.369   1.610   7.626
 6647SOL    HW221774   2.357   1.717   7.733
 6648SOL     OW21775   2.452   3.757   2.139
 6648SOL    HW121776   2.443   3.744   2.044
 6648SOL    HW221777   2.547   3.767   2.152
 6649SOL     OW21778   0.766   1.972   2.464
 6649SOL    HW121779   0.778   2.033   2.391
 6649SOL    HW221780   0.817   2.012   2.535
 6650SOL     OW21781   4.368   9.748   6.545
 6650SOL    HW121782   4.427   9.701   6.604
 6650SOL    HW221783   4.301   9.785   6.603
 6651SOL     OW21784   7.159  13.441   5.788
 6651SOL    HW121785   7.194  13.409   5.705
 6651SOL    HW221786   7.065  13.449   5.774
 6652SOL     OW21787   1.975   6.663   9.347
 6652SOL    HW121788   1.958   6.747   9.305
 6652SOL    HW221789   1.942   6.598   9.285
 6653SOL     OW21790   8.283   3.888  13.705
 6653SOL    HW121791   8.317   3.892  13.615
 6653SOL    HW221792   8.189   3.906  13.695
 6654SOL     OW21793  12.855   7.735   3.307
 6654SOL    HW121794  12.848   7.767   3.397
 6654SOL    HW221795  12.906   7.654   3.315
 6655SOL     OW21796   4.290   9.030   7.018
 6655SOL    HW121797   4.378   9.060   7.039
 6655SOL    HW221798   4.301   8.967   6.947
 6656SOL     OW21799   3.433  10.123   2.105
 6656SOL    HW121800   3.506  10.162   2.057
 6656SOL    HW221801   3.404  10.192   2.165
 6657SOL     OW21802  11.630   2.998   3.724
 6657SOL    HW121803  11.540   2.982   3.694
 6657SOL    HW221804  11.624   3.077   3.777
 6658SOL     OW21805   6.019  11.060   8.099
 6658SOL    HW121806   6.104  11.019   8.082
 6658SOL    HW221807   5.997  11.105   8.017
 6659SOL     OW21808   1.440   5.418   8.765
 6659SOL    HW121809   1.490   5.364   8.827
 6659SOL    HW221810   1.494   5.420   8.686
 6660SOL     OW21811   5.837  10.247   5.745
 6660SOL    HW121812   5.776  10.312   5.779
 6660SOL    HW221813   5.854  10.275   5.655
 6661SOL     OW21814  13.798  12.905   0.328
 6661SOL    HW121815  13.850  12.957   0.390
 6661SOL    HW221816  13.864  12.863   0.273
 6662SOL     OW21817  11.038   3.877   4.549
 6662SOL    HW121818  11.127   3.845   4.564
 6662SOL    HW221819  11.049   3.967   4.521
 6663SOL     OW21820   9.708  14.300   7.347
 6663SOL    HW121821   9.649  14.252   7.405
 6663SOL    HW221822   9.794  14.263   7.364
 6664SOL     OW21823   3.877  10.006   8.917
 6664SOL    HW121824   3.956  10.056   8.941
 6664SOL    HW221825   3.892   9.980   8.826
 6665SOL     OW21826   3.816   3.416   4.738
 6665SOL    HW121827   3.784   3.489   4.684
 6665SOL    HW221828   3.738   3.384   4.783
 6666SOL     OW21829   6.152  11.034   6.949
 6666SOL    HW121830   6.207  10.959   6.974
 6666SOL    HW221831   6.125  11.015   6.859
 6667SOL     OW21832   4.029   9.286  14.024
 6667SOL    HW121833   4.015   9.351  13.955
 6667SOL    HW221834   4.033   9.202  13.978
 6668SOL     OW21835   5.614  13.905   7.901
 6668SOL    HW121836   5.603  13.874   7.991
 6668SOL    HW221837   5.537  13.872   7.855
 6669SOL     OW21838   3.681  13.646   5.149
 6669SOL    HW121839   3.646  13.735   5.148
 6669SOL    HW221840   3.621  13.597   5.205
 6670SOL     OW21841   6.864   3.709   7.640
 6670SOL    HW121842   6.923   3.784   7.635
 6670SOL    HW221843   6.922   3.633   7.642
 6671SOL     OW21844   6.123  11.354   3.164
 6671SOL    HW121845   6.050  11.320   3.215
 6671SOL    HW221846   6.091  11.354   3.073
 6672SOL     OW21847   3.593   8.699   4.943
 6672SOL    HW121848   3.630   8.652   5.018
 6672SOL    HW221849   3.551   8.776   4.982
 6673SOL     OW21850   5.885   5.256   7.500
 6673SOL    HW121851   5.863   5.166   7.474
 6673SOL    HW221852   5.850   5.310   7.429
 6674SOL     OW21853   3.646  14.514  10.016
 6674SOL    HW121854   3.575  14.577  10.025
 6674SOL    HW221855   3.722  14.567   9.991
 6675SOL     OW21856   8.538   4.720   9.267
 6675SOL    HW121857   8.517   4.759   9.352
 6675SOL    HW221858   8.481   4.765   9.205
 6676SOL     OW21859  13.364  12.315   6.357
 6676SOL    HW121860  13.453  12.281   6.355
 6676SOL    HW221861  13.364  12.380   6.427
 6677SOL     OW21862  12.692  12.184   8.333
 6677SOL    HW121863  12.712  12.265   8.380
 6677SOL    HW221864  12.709  12.205   8.241
 6678SOL     OW21865   2.111   8.055  12.331
 6678SOL    HW121866   2.187   8.061  12.273
 6678SOL    HW221867   2.075   7.968  12.315
 6679SOL     OW21868   8.582   2.218   7.735
 6679SOL    HW121869   8.525   2.222   7.811
 6679SOL    HW221870   8.551   2.143   7.685
 6680SOL     OW21871  13.041   8.636  13.037
 6680SOL    HW121872  12.970   8.576  13.017
 6680SOL    HW221873  12.998   8.717  13.064
 6681SOL     OW21874  14.656  13.859  11.847
 6681SOL    HW121875  14.614  13.833  11.765
 6681SOL    HW221876  14.588  13.907  11.894
 6682SOL     OW21877  14.065   6.445  10.583
 6682SOL    HW121878  14.150   6.438  10.628
 6682SOL    HW221879  14.057   6.363  10.535
 6683SOL     OW21880   9.836   4.293  13.514
 6683SOL    HW121881   9.882   4.370  13.481
 6683SOL    HW221882   9.747   4.301  13.480
 6684SOL     OW21883  13.137   1.319   7.769
 6684SOL    HW121884  13.155   1.348   7.679
 6684SOL    HW221885  13.176   1.231   7.773
 6685SOL     OW21886   4.814   8.004   5.540
 6685SOL    HW121887   4.816   8.098   5.523
 6685SOL    HW221888   4.904   7.982   5.562
 6686SOL     OW21889  13.448   0.081   8.359
 6686SOL    HW121890  13.489   0.089   8.274
 6686SOL    HW221891  13.376   0.144   8.357
 6687SOL     OW21892   3.845   6.501  10.177
 6687SOL    HW121893   3.841   6.594  10.156
 6687SOL    HW221894   3.863   6.498  10.271
 6688SOL     OW21895   8.691   4.528   9.151
 6688SOL    HW121896   8.746   4.576   9.089
 6688SOL    HW221897   8.650   4.595   9.204
 6689SOL     OW21898   9.917   8.515  11.783
 6689SOL    HW121899   9.883   8.472  11.861
 6689SOL    HW221900   9.852   8.496  11.715
 6690SOL     OW21901  11.108   2.345   9.623
 6690SOL    HW121902  11.062   2.261   9.619
 6690SOL    HW221903  11.047   2.404   9.666
 6691SOL     OW21904   6.559  12.570  10.390
 6691SOL    HW121905   6.654  12.581  10.393
 6691SOL    HW221906   6.546  12.486  10.346
 6692SOL     OW21907   0.260   3.714  13.630
 6692SOL    HW121908   0.248   3.766  13.710
 6692SOL    HW221909   0.173   3.682  13.609
 6693SOL     OW21910   9.580   3.335   4.861
 6693SOL    HW121911   9.540   3.394   4.925
 6693SOL    HW221912   9.510   3.317   4.798
 6694SOL     OW21913   2.748  13.304  13.569
 6694SOL    HW121914   2.770  13.211  13.577
 6694SOL    HW221915   2.727  13.315  13.476
 6695SOL     OW21916  11.979  14.682   4.385
 6695SOL    HW121917  11.941  14.610   4.435
 6695SOL    HW221918  12.057  14.644   4.343
 6696SOL     OW21919   2.125   4.195   0.700
 6696SOL    HW121920   2.214   4.172   0.676
 6696SOL    HW221921   2.133   4.241   0.784
 6697SOL     OW21922   5.173  14.499   7.795
 6697SOL    HW121923   5.094  14.464   7.752
 6697SOL    HW221924   5.143  14.524   7.883
 6698SOL     OW21925   1.198   8.105  11.159
 6698SOL    HW121926   1.210   8.182  11.215
 6698SOL    HW221927   1.286   8.070  11.148
 6699SOL     OW21928  10.947   5.386   7.653
 6699SOL    HW121929  11.023   5.341   7.617
 6699SOL    HW221930  10.941   5.354   7.743
 6700SOL     OW21931   3.454   1.674   4.549
 6700SOL    HW121932   3.400   1.751   4.531
 6700SOL    HW221933   3.481   1.683   4.640
 6701SOL     OW21934  11.902   9.721   4.748
 6701SOL    HW121935  11.849   9.659   4.799
 6701SOL    HW221936  11.960   9.762   4.812
 6702SOL     OW21937   5.312   5.632  10.549
 6702SOL    HW121938   5.312   5.698  10.479
 6702SOL    HW221939   5.384   5.659  10.606
 6703SOL     OW21940   6.371   5.743   9.759
 6703SOL    HW121941   6.324   5.767   9.839
 6703SOL    HW221942   6.392   5.827   9.718
 6704SOL     OW21943  10.168   5.493   5.371
 6704SOL    HW121944  10.127   5.456   5.293
 6704SOL    HW221945  10.095   5.526   5.423
 6705SOL     OW21946   5.389   4.459  14.816
 6705SOL    HW121947   5.331   4.464  14.740
 6705SOL    HW221948   5.364   4.534  14.870
 6706SOL     OW21949   9.649   3.328   1.650
 6706SOL    HW121950   9.579   3.380   1.610
 6706SOL    HW221951   9.719   3.391   1.666
 6707SOL     OW21952   1.727  13.477   1.944
 6707SOL    HW121953   1.756  13.556   1.898
 6707SOL    HW221954   1.750  13.406   1.884
 6708SOL     OW21955   4.354   9.079  11.270
 6708SOL    HW121956   4.414   9.080  11.196
 6708SOL    HW221957   4.409   9.103  11.345
 6709SOL     OW21958   7.812   9.110  13.910
 6709SOL    HW121959   7.847   9.094  13.822
 6709SOL    HW221960   7.755   9.036  13.927
 6710SOL     OW21961   3.434   7.776   9.486
 6710SOL    HW121962   3.421   7.694   9.534
 6710SOL    HW221963   3.359   7.781   9.426
 6711SOL     OW21964  14.531   5.249   6.635
 6711SOL    HW121965  14.590   5.316   6.600
 6711SOL    HW221966  14.528   5.182   6.567
 6712SOL     OW21967   5.843   4.503  12.524
 6712SOL    HW121968   5.896   4.525  12.448
 6712SOL    HW221969   5.855   4.408  12.535
 6713SOL     OW21970   8.768  11.926   0.634
 6713SOL    HW121971   8.675  11.920   0.613
 6713SOL    HW221972   8.789  12.019   0.627
 6714SOL     OW21973  12.867   0.216   0.441
 6714SOL    HW121974  12.935   0.161   0.480
 6714SOL    HW221975  12.810   0.238   0.515
 6715SOL     OW21976  14.795   8.645   6.372
 6715SOL    HW121977  14.772   8.557   6.403
 6715SOL    HW221978  14.820   8.632   6.281
 6716SOL     OW21979   6.134  10.152   6.135
 6716SOL    HW121980   6.129  10.201   6.218
 6716SOL    HW221981   6.227  10.144   6.117
 6717SOL     OW21982   7.766  12.740   7.133
 6717SOL    HW121983   7.673  12.719   7.122
 6717SOL    HW221984   7.784  12.803   7.063
 6718SOL     OW21985   8.032   9.000  13.108
 6718SOL    HW121986   7.942   8.971  13.093
 6718SOL    HW221987   8.030   9.094  13.091
 6719SOL     OW21988   1.641   6.330  12.106
 6719SOL    HW121989   1.666   6.263  12.170
 6719SOL    HW221990   1.715   6.334  12.046
 6720SOL     OW21991   1.753   8.130   8.945
 6720SOL    HW121992   1.806   8.097   9.018
 6720SOL    HW221993   1.738   8.053   8.889
 6721SOL     OW21994   8.049  12.103   6.250
 6721SOL    HW121995   8.036  12.135   6.339
 6721SOL    HW221996   7.976  12.140   6.200
 6722SOL     OW21997  11.635   2.567   4.116
 6722SOL    HW121998  11.730   2.578   4.120
 6722SOL    HW221999  11.611   2.534   4.202
 6723SOL     OW22000   9.437   2.245  13.962
 6723SOL    HW122001   9.454   2.151  13.976
 6723SOL    HW222002   9.354   2.261  14.008
 6724SOL     OW22003   2.415   7.854  11.548
 6724SOL    HW122004   2.430   7.947  11.530
 6724SOL    HW222005   2.377   7.853  11.636
 6725SOL     OW22006   9.863   2.299   0.497
 6725SOL    HW122007   9.953   2.285   0.528
 6725SOL    HW222008   9.809   2.258   0.564
 6726SOL     OW22009   9.481  11.901   5.245
 6726SOL    HW122010   9.450  11.857   5.166
 6726SOL    HW222011   9.407  11.955   5.273
 6727SOL     OW22012   7.826   0.300  11.517
 6727SOL    HW122013   7.867   0.383  11.494
 6727SOL    HW222014   7.885   0.233  11.482
 6728SOL     OW22015   5.834   5.024   7.352
 6728SOL    HW122016   5.783   4.968   7.294
 6728SOL    HW222017   5.892   5.073   7.293
 6729SOL     OW22018   8.620  14.873   4.186
 6729SOL    HW122019   8.570   0.062   4.236
 6729SOL    HW222020   8.605   0.020   4.095
 6730SOL     OW22021   7.188   9.508  12.364
 6730SOL    HW122022   7.207   9.509  12.270
 6730SOL    HW222023   7.123   9.438  12.374
 6731SOL     OW22024   1.464  11.567   1.323
 6731SOL    HW122025   1.508  11.495   1.368
 6731SOL    HW222026   1.528  11.598   1.259
 6732SOL     OW22027   3.062   2.589   4.255
 6732SOL    HW122028   2.996   2.552   4.196
 6732SOL    HW222029   3.058   2.535   4.333
 6733SOL     OW22030  10.643   8.431  12.699
 6733SOL    HW122031  10.658   8.371  12.772
 6733SOL    HW222032  10.549   8.425  12.682
 6734SOL     OW22033   9.091   8.797  13.155
 6734SOL    HW122034   9.007   8.797  13.109
 6734SOL    HW222035   9.140   8.870  13.116
 6735SOL     OW22036  13.365   8.700  11.725
 6735SOL    HW122037  13.324   8.714  11.810
 6735SOL    HW222038  13.292   8.682  11.665
 6736SOL     OW22039   5.520   1.685   7.952
 6736SOL    HW122040   5.615   1.685   7.955
 6736SOL    HW222041   5.495   1.768   7.991
 6737SOL     OW22042   3.740   5.134   0.278
 6737SOL    HW122043   3.761   5.045   0.306
 6737SOL    HW222044   3.722   5.126   0.184
 6738SOL     OW22045   0.986   6.284   5.698
 6738SOL    HW122046   0.943   6.218   5.753
 6738SOL    HW222047   0.916   6.343   5.671
 6739SOL     OW22048   5.012   2.127   0.422
 6739SOL    HW122049   5.100   2.100   0.450
 6739SOL    HW222050   4.979   2.051   0.373
 6740SOL     OW22051   0.809   6.526   2.562
 6740SOL    HW122052   0.767   6.534   2.648
 6740SOL    HW222053   0.793   6.610   2.520
 6741SOL     OW22054   6.240   4.241   6.083
 6741SOL    HW122055   6.273   4.209   5.999
 6741SOL    HW222056   6.242   4.336   6.075
 6742SOL     OW22057   4.693   8.725   7.732
 6742SOL    HW122058   4.722   8.806   7.774
 6742SOL    HW222059   4.604   8.712   7.763
 6743SOL     OW22060   5.055  14.162  10.019
 6743SOL    HW122061   5.146  14.143  10.045
 6743SOL    HW222062   5.053  14.257  10.008
 6744SOL     OW22063   7.474  14.422  10.904
 6744SOL    HW122064   7.446  14.447  10.992
 6744SOL    HW222065   7.392  14.412  10.855
 6745SOL     OW22066   6.886  10.142   1.956
 6745SOL    HW122067   6.803  10.100   1.934
 6745SOL    HW222068   6.875  10.173   2.046
 6746SOL     OW22069  13.083   3.506   4.741
 6746SOL    HW122070  13.022   3.577   4.760
 6746SOL    HW222071  13.160   3.550   4.704
 6747SOL     OW22072   0.374  13.147   4.747
 6747SOL    HW122073   0.452  13.121   4.796
 6747SOL    HW222074   0.408  13.188   4.668
 6748SOL     OW22075  11.503   1.680   2.893
 6748SOL    HW122076  11.595   1.654   2.890
 6748SOL    HW222077  11.502   1.760   2.946
 6749SOL     OW22078   1.349   1.687   5.295
 6749SOL    HW122079   1.290   1.630   5.248
 6749SOL    HW222080   1.319   1.683   5.386
 6750SOL     OW22081   9.100  14.747   4.722
 6750SOL    HW122082   9.107  14.833   4.680
 6750SOL    HW222083   9.180  14.701   4.697
 6751SOL     OW22084   5.872   7.120   2.155
 6751SOL    HW122085   5.946   7.086   2.105
 6751SOL    HW222086   5.846   7.200   2.108
 6752SOL     OW22087   7.309   5.844   9.128
 6752SOL    HW122088   7.266   5.907   9.186
 6752SOL    HW222089   7.275   5.865   9.041
 6753SOL     OW22090  10.340   5.724   1.412
 6753SOL    HW122091  10.321   5.791   1.347
 6753SOL    HW222092  10.434   5.709   1.404
 6754SOL     OW22093   4.852   0.431   8.916
 6754SOL    HW122094   4.883   0.451   9.004
 6754SOL    HW222095   4.885   0.502   8.861
 6755SOL     OW22096   4.505  14.618   8.919
 6755SOL    HW122097   4.600  14.612   8.914
 6755SOL    HW222098   4.475  14.528   8.914
 6756SOL     OW22099   1.445   2.581   8.422
 6756SOL    HW122100   1.443   2.496   8.465
 6756SOL    HW222101   1.361   2.588   8.377
 6757SOL     OW22102  13.287  10.851  12.230
 6757SOL    HW122103  13.355  10.885  12.290
 6757SOL    HW222104  13.334  10.790  12.173
 6758SOL     OW22105  11.398  14.146   1.470
 6758SOL    HW122106  11.463  14.166   1.404
 6758SOL    HW222107  11.372  14.056   1.452
 6759SOL     OW22108  11.403   3.086  13.762
 6759SOL    HW122109  11.369   3.048  13.681
 6759SOL    HW222110  11.484   3.130  13.735
 6760SOL     OW22111  11.868  10.137   4.993
 6760SOL    HW122112  11.806  10.066   5.009
 6760SOL    HW222113  11.815  10.217   4.997
 6761SOL     OW22114  10.029  10.963   9.066
 6761SOL    HW122115  10.018  10.869   9.051
 6761SOL    HW222116   9.942  10.994   9.091
 6762SOL     OW22117   2.938   4.278   9.313
 6762SOL    HW122118   2.922   4.282   9.408
 6762SOL    HW222119   3.031   4.259   9.305
 6763SOL     OW22120   5.082   7.420   3.808
 6763SOL    HW122121   5.034   7.360   3.751
 6763SOL    HW222122   5.031   7.501   3.806
 6764SOL     OW22123  11.823   7.849  13.395
 6764SOL    HW122124  11.834   7.766  13.442
 6764SOL    HW222125  11.769   7.827  13.320
 6765SOL     OW22126   0.046  13.584   7.615
 6765SOL    HW122127  14.870  13.664   7.619
 6765SOL    HW222128  14.865  13.517   7.654
 6766SOL     OW22129   1.743   4.034  10.707
 6766SOL    HW122130   1.684   4.078  10.646
 6766SOL    HW222131   1.775   3.958  10.659
 6767SOL     OW22132   6.717  10.028   7.931
 6767SOL    HW122133   6.666  10.081   7.870
 6767SOL    HW222134   6.751  10.090   7.996
 6768SOL     OW22135   1.335  11.239  11.743
 6768SOL    HW122136   1.279  11.166  11.771
 6768SOL    HW222137   1.359  11.217  11.653
 6769SOL     OW22138   7.825   0.139   7.665
 6769SOL    HW122139   7.792   0.058   7.705
 6769SOL    HW222140   7.835   0.200   7.738
 6770SOL     OW22141   4.661  14.590   6.531
 6770SOL    HW122142   4.752  14.565   6.516
 6770SOL    HW222143   4.666  14.682   6.559
 6771SOL     OW22144   4.588  10.216   1.032
 6771SOL    HW122145   4.553  10.301   1.059
 6771SOL    HW222146   4.518  10.176   0.981
 6772SOL     OW22147   4.306   4.333  11.682
 6772SOL    HW122148   4.244   4.404  11.665
 6772SOL    HW222149   4.310   4.327  11.778
 6773SOL     OW22150   9.270   9.407   3.094
 6773SOL    HW122151   9.247   9.499   3.108
 6773SOL    HW222152   9.201   9.358   3.140
 6774SOL     OW22153   8.567  12.914  12.813
 6774SOL    HW122154   8.635  12.979  12.795
 6774SOL    HW222155   8.485  12.964  12.815
 6775SOL     OW22156  10.109   6.711   5.627
 6775SOL    HW122157  10.189   6.761   5.608
 6775SOL    HW222158  10.123   6.677   5.716
 6776SOL     OW22159  14.321  11.000   1.131
 6776SOL    HW122160  14.240  10.955   1.153
 6776SOL    HW222161  14.360  10.947   1.061
 6777SOL     OW22162  11.001   9.980   6.654
 6777SOL    HW122163  10.939   9.934   6.598
 6777SOL    HW222164  10.947  10.020   6.722
 6778SOL     OW22165   8.103   2.467  12.517
 6778SOL    HW122166   8.032   2.404  12.529
 6778SOL    HW222167   8.136   2.483  12.606
 6779SOL     OW22168   3.503   0.191   9.000
 6779SOL    HW122169   3.431   0.247   8.972
 6779SOL    HW222170   3.569   0.253   9.032
 6780SOL     OW22171   7.658   9.390   0.927
 6780SOL    HW122172   7.620   9.331   0.992
 6780SOL    HW222173   7.697   9.460   0.979
 6781SOL     OW22174  13.351   6.857   3.982
 6781SOL    HW122175  13.386   6.930   3.932
 6781SOL    HW222176  13.361   6.781   3.925
 6782SOL     OW22177   1.470  12.202   3.015
 6782SOL    HW122178   1.530  12.137   3.053
 6782SOL    HW222179   1.526  12.272   2.983
 6783SOL     OW22180  13.310   1.804   4.039
 6783SOL    HW122181  13.321   1.882   4.094
 6783SOL    HW222182  13.303   1.732   4.102
 6784SOL     OW22183   5.696   8.257  12.515
 6784SOL    HW122184   5.618   8.238  12.463
 6784SOL    HW222185   5.760   8.191  12.488
 6785SOL     OW22186   7.438  13.372   8.812
 6785SOL    HW122187   7.489  13.300   8.774
 6785SOL    HW222188   7.463  13.373   8.904
 6786SOL     OW22189  12.323   3.189   2.093
 6786SOL    HW122190  12.344   3.198   2.000
 6786SOL    HW222191  12.402   3.151   2.131
 6787SOL     OW22192  12.515  12.248   2.946
 6787SOL    HW122193  12.555  12.161   2.951
 6787SOL    HW222194  12.584  12.308   2.974
 6788SOL     OW22195   0.796   9.066   8.016
 6788SOL    HW122196   0.819   8.996   7.955
 6788SOL    HW222197   0.879   9.109   8.035
 6789SOL     OW22198   3.914  10.233   2.534
 6789SOL    HW122199   3.903  10.138   2.539
 6789SOL    HW222200   4.003  10.248   2.566
 6790SOL     OW22201  12.611   1.906   2.229
 6790SOL    HW122202  12.653   1.889   2.314
 6790SOL    HW222203  12.521   1.930   2.251
 6791SOL     OW22204  13.636  10.308   8.284
 6791SOL    HW122205  13.656  10.396   8.252
 6791SOL    HW222206  13.664  10.249   8.214
 6792SOL     OW22207   3.837   5.259  11.801
 6792SOL    HW122208   3.917   5.311  11.796
 6792SOL    HW222209   3.774   5.316  11.846
 6793SOL     OW22210   5.486   7.215  12.490
 6793SOL    HW122211   5.450   7.140  12.443
 6793SOL    HW222212   5.565   7.238  12.441
 6794SOL     OW22213   2.422   7.890   4.671
 6794SOL    HW122214   2.431   7.965   4.730
 6794SOL    HW222215   2.511   7.875   4.638
 6795SOL     OW22216   6.881   6.082   2.106
 6795SOL    HW122217   6.947   6.132   2.155
 6795SOL    HW222218   6.880   5.996   2.147
 6796SOL     OW22219   1.184  11.990   9.425
 6796SOL    HW122220   1.245  12.058   9.397
 6796SOL    HW222221   1.100  12.033   9.432
 6797SOL     OW22222  11.896   0.364   1.026
 6797SOL    HW122223  11.943   0.374   0.943
 6797SOL    HW222224  11.860   0.450   1.044
 6798SOL     OW22225   5.106   1.010   6.371
 6798SOL    HW122226   5.069   1.031   6.457
 6798SOL    HW222227   5.090   0.916   6.360
 6799SOL     OW22228  10.815   4.232   1.243
 6799SOL    HW122229  10.721   4.233   1.260
 6799SOL    HW222230  10.833   4.143   1.212
 6800SOL     OW22231   6.061   8.026   0.076
 6800SOL    HW122232   6.056   7.998   0.167
 6800SOL    HW222233   6.076   8.121   0.081
 6801SOL     OW22234   9.234   0.692  10.530
 6801SOL    HW122235   9.206   0.671  10.441
 6801SOL    HW222236   9.173   0.761  10.558
 6802SOL     OW22237  10.735   8.491  12.029
 6802SOL    HW122238  10.686   8.561  11.986
 6802SOL    HW222239  10.822   8.495  11.990
 6803SOL     OW22240  14.018  12.592  12.661
 6803SOL    HW122241  13.987  12.645  12.735
 6803SOL    HW222242  14.027  12.504  12.697
 6804SOL     OW22243  12.549  14.840   4.220
 6804SOL    HW122244  12.633  14.864   4.181
 6804SOL    HW222245  12.507   0.048   4.242
 6805SOL     OW22246   0.648   3.698   1.239
 6805SOL    HW122247   0.687   3.611   1.248
 6805SOL    HW222248   0.634   3.708   1.145
 6806SOL     OW22249   1.260  11.181  13.041
 6806SOL    HW122250   1.222  11.103  13.080
 6806SOL    HW222251   1.350  11.182  13.075
 6807SOL     OW22252   0.411  14.021   3.168
 6807SOL    HW122253   0.426  13.933   3.135
 6807SOL    HW222254   0.499  14.052   3.193
 6808SOL     OW22255  12.760   3.115   5.893
 6808SOL    HW122256  12.850   3.115   5.861
 6808SOL    HW222257  12.724   3.032   5.861
 6809SOL     OW22258  13.351  11.188   7.960
 6809SOL    HW122259  13.263  11.195   7.999
 6809SOL    HW222260  13.396  11.123   8.014
 6810SOL     OW22261   6.777  11.694   9.070
 6810SOL    HW122262   6.858  11.686   9.120
 6810SOL    HW222263   6.753  11.786   9.079
 6811SOL     OW22264  13.045  10.830   9.713
 6811SOL    HW122265  13.103  10.830   9.636
 6811SOL    HW222266  13.013  10.920   9.719
 6812SOL     OW22267   7.069   5.383   1.923
 6812SOL    HW122268   7.002   5.448   1.946
 6812SOL    HW222269   7.031   5.299   1.950
 6813SOL     OW22270   9.535  14.246   0.123
 6813SOL    HW122271   9.514  14.334   0.154
 6813SOL    HW222272   9.474  14.232   0.050
 6814SOL     OW22273   0.633   6.833   3.603
 6814SOL    HW122274   0.634   6.741   3.627
 6814SOL    HW222275   0.568   6.838   3.533
 6815SOL     OW22276  13.514   7.394   2.866
 6815SOL    HW122277  13.508   7.384   2.771
 6815SOL    HW222278  13.529   7.305   2.898
 6816SOL     OW22279   2.252   4.545   8.520
 6816SOL    HW122280   2.278   4.637   8.519
 6816SOL    HW222281   2.236   4.526   8.612
 6817SOL     OW22282  10.534   5.811   6.780
 6817SOL    HW122283  10.475   5.742   6.811
 6817SOL    HW222284  10.597   5.821   6.852
 6818SOL     OW22285   1.422   7.909   4.608
 6818SOL    HW122286   1.336   7.944   4.628
 6818SOL    HW222287   1.458   7.884   4.693
 6819SOL     OW22288   8.933   8.963   8.939
 6819SOL    HW122289   8.922   8.980   8.845
 6819SOL    HW222290   9.013   8.911   8.944
 6820SOL     OW22291  12.024  12.542   9.744
 6820SOL    HW122292  12.072  12.615   9.782
 6820SOL    HW222293  12.056  12.536   9.654
 6821SOL     OW22294   3.627   9.088   4.142
 6821SOL    HW122295   3.675   9.041   4.211
 6821SOL    HW222296   3.571   9.022   4.103
 6822SOL     OW22297  10.012   9.435   2.215
 6822SOL    HW122298  10.036   9.454   2.306
 6822SOL    HW222299   9.917   9.430   2.216
 6823SOL     OW22300  10.557   2.158   4.794
 6823SOL    HW122301  10.494   2.179   4.863
 6823SOL    HW222302  10.634   2.210   4.815
 6824SOL     OW22303   0.077   3.678  12.784
 6824SOL    HW122304   0.150   3.738  12.799
 6824SOL    HW222305   0.092   3.645  12.695
 6825SOL     OW22306   1.449   3.644  10.998
 6825SOL    HW122307   1.503   3.684  10.930
 6825SOL    HW222308   1.493   3.668  11.080
 6826SOL     OW22309   9.132  14.484   6.947
 6826SOL    HW122310   9.148  14.527   6.863
 6826SOL    HW222311   9.096  14.554   7.002
 6827SOL     OW22312   7.430  12.859   2.271
 6827SOL    HW122313   7.410  12.794   2.340
 6827SOL    HW222314   7.355  12.918   2.272
 6828SOL     OW22315  14.767   7.423  11.357
 6828SOL    HW122316  14.711   7.491  11.394
 6828SOL    HW222317  14.706   7.357  11.323
 6829SOL     OW22318  12.601   5.208   3.722
 6829SOL    HW122319  12.664   5.224   3.792
 6829SOL    HW222320  12.640   5.139   3.669
 6830SOL     OW22321  13.311  12.643  13.666
 6830SOL    HW122322  13.233  12.598  13.699
 6830SOL    HW222323  13.376  12.631  13.735
 6831SOL     OW22324   6.982  12.203  11.197
 6831SOL    HW122325   6.927  12.208  11.119
 6831SOL    HW222326   7.070  12.187  11.163
 6832SOL     OW22327   2.774   6.180   3.813
 6832SOL    HW122328   2.687   6.143   3.826
 6832SOL    HW222329   2.792   6.167   3.720
 6833SOL     OW22330   2.455  10.277  10.230
 6833SOL    HW122331   2.381  10.282  10.169
 6833SOL    HW222332   2.460  10.184  10.254
 6834SOL     OW22333   2.300   8.843  11.450
 6834SOL    HW122334   2.388   8.827  11.483
 6834SOL    HW222335   2.309   8.838  11.355
 6835SOL     OW22336   2.282   0.155   0.696
 6835SOL    HW122337   2.288   0.192   0.608
 6835SOL    HW222338   2.276   0.231   0.753
 6836SOL     OW22339   1.399   9.442   7.458
 6836SOL    HW122340   1.450   9.486   7.526
 6836SOL    HW222341   1.460   9.429   7.386
 6837SOL     OW22342  13.944   9.314   4.181
 6837SOL    HW122343  13.902   9.249   4.124
 6837SOL    HW222344  14.025   9.337   4.135
 6838SOL     OW22345   6.006   2.036   6.010
 6838SOL    HW122346   5.988   2.130   6.005
 6838SOL    HW222347   5.948   1.997   5.945
 6839SOL     OW22348   5.415  14.172  13.275
 6839SOL    HW122349   5.474  14.203  13.343
 6839SOL    HW222350   5.455  14.092  13.243
 6840SOL     OW22351   5.778   7.432   8.095
 6840SOL    HW122352   5.786   7.466   8.185
 6840SOL    HW222353   5.835   7.355   8.093
 6841SOL     OW22354  11.499  12.074  11.082
 6841SOL    HW122355  11.570  12.128  11.117
 6841SOL    HW222356  11.499  11.996  11.138
 6842SOL     OW22357  11.393  12.830   7.906
 6842SOL    HW122358  11.404  12.897   7.973
 6842SOL    HW222359  11.333  12.868   7.842
 6843SOL     OW22360   1.121   6.970   8.406
 6843SOL    HW122361   1.049   6.918   8.441
 6843SOL    HW222362   1.185   6.904   8.378
 6844SOL     OW22363   0.059   3.623  11.487
 6844SOL    HW122364   0.071   3.667  11.571
 6844SOL    HW222365   0.007   3.684  11.435
 6845SOL     OW22366  13.847   7.108   6.075
 6845SOL    HW122367  13.930   7.064   6.091
 6845SOL    HW222368  13.789   7.076   6.145
 6846SOL     OW22369   5.131   6.069   7.506
 6846SOL    HW122370   5.058   6.068   7.444
 6846SOL    HW222371   5.158   6.161   7.508
 6847SOL     OW22372   9.500   1.931   6.596
 6847SOL    HW122373   9.552   1.998   6.552
 6847SOL    HW222374   9.531   1.933   6.687
 6848SOL     OW22375   5.866  11.361  14.134
 6848SOL    HW122376   5.778  11.389  14.163
 6848SOL    HW222377   5.910  11.336  14.215
 6849SOL     OW22378   4.818  13.472   7.329
 6849SOL    HW122379   4.842  13.560   7.300
 6849SOL    HW222380   4.726  13.479   7.353
 6850SOL     OW22381   3.685   1.920   8.016
 6850SOL    HW122382   3.673   1.980   7.943
 6850SOL    HW222383   3.599   1.914   8.057
 6851SOL     OW22384  14.679   5.790   1.533
 6851SOL    HW122385  14.684   5.876   1.576
 6851SOL    HW222386  14.769   5.759   1.530
 6852SOL     OW22387   1.764  11.360   8.166
 6852SOL    HW122388   1.847  11.408   8.171
 6852SOL    HW222389   1.784  11.275   8.206
 6853SOL     OW22390  13.611   2.387  10.131
 6853SOL    HW122391  13.682   2.344  10.178
 6853SOL    HW222392  13.649   2.469  10.099
 6854SOL     OW22393   3.886   5.170  11.404
 6854SOL    HW122394   3.920   5.240  11.348
 6854SOL    HW222395   3.933   5.091  11.376
 6855SOL     OW22396   4.924   9.915   8.029
 6855SOL    HW122397   4.914   9.824   8.057
 6855SOL    HW222398   4.961   9.910   7.941
 6856SOL     OW22399   8.359   4.791   1.246
 6856SOL    HW122400   8.377   4.697   1.244
 6856SOL    HW222401   8.375   4.816   1.337
 6857SOL     OW22402   3.266   7.187  12.015
 6857SOL    HW122403   3.348   7.187  11.967
 6857SOL    HW222404   3.286   7.231  12.098
 6858SOL     OW22405   5.483   0.486  11.936
 6858SOL    HW122406   5.547   0.458  11.870
 6858SOL    HW222407   5.536   0.524  12.005
 6859SOL     OW22408   6.324   1.647   3.974
 6859SOL    HW122409   6.399   1.588   3.982
 6859SOL    HW222410   6.319   1.666   3.880
 6860SOL     OW22411   4.703   7.809  10.877
 6860SOL    HW122412   4.736   7.864  10.949
 6860SOL    HW222413   4.611   7.835  10.868
 6861SOL     OW22414   0.385   6.506  14.112
 6861SOL    HW122415   0.392   6.558  14.192
 6861SOL    HW222416   0.371   6.570  14.043
 6862SOL     OW22417   8.337   5.837   0.733
 6862SOL    HW122418   8.399   5.797   0.673
 6862SOL    HW222419   8.251   5.818   0.695
 6863SOL     OW22420   9.389   4.365   1.066
 6863SOL    HW122421   9.301   4.340   1.037
 6863SOL    HW222422   9.436   4.282   1.076
 6864SOL     OW22423   8.161   4.031  14.183
 6864SOL    HW122424   8.072   4.032  14.220
 6864SOL    HW222425   8.165   3.949  14.134
 6865SOL     OW22426   8.971   8.159  14.782
 6865SOL    HW122427   8.973   8.249  14.749
 6865SOL    HW222428   9.058   8.124  14.762
 6866SOL     OW22429  11.122  11.834  10.363
 6866SOL    HW122430  11.186  11.828  10.434
 6866SOL    HW222431  11.175  11.843  10.284
 6867SOL     OW22432   0.074   2.274   8.979
 6867SOL    HW122433  14.860   2.279   8.946
 6867SOL    HW222434   0.064   2.265   9.074
 6868SOL     OW22435   4.517   4.507   1.545
 6868SOL    HW122436   4.567   4.588   1.530
 6868SOL    HW222437   4.433   4.523   1.500
 6869SOL     OW22438  13.045   3.143   6.466
 6869SOL    HW122439  12.983   3.189   6.522
 6869SOL    HW222440  12.999   3.129   6.383
 6870SOL     OW22441  11.440   6.428   8.357
 6870SOL    HW122442  11.391   6.350   8.384
 6870SOL    HW222443  11.484   6.457   8.437
 6871SOL     OW22444   8.471   6.195   5.713
 6871SOL    HW122445   8.513   6.237   5.637
 6871SOL    HW222446   8.460   6.266   5.776
 6872SOL     OW22447   0.065   9.552  10.210
 6872SOL    HW122448  14.873   9.573  10.145
 6872SOL    HW222449   0.022   9.564  10.294
 6873SOL     OW22450  13.386   2.897  11.101
 6873SOL    HW122451  13.326   2.827  11.127
 6873SOL    HW222452  13.370   2.967  11.164
 6874SOL     OW22453   0.108   5.235   4.272
 6874SOL    HW122454   0.019   5.211   4.245
 6874SOL    HW222455   0.099   5.323   4.308
 6875SOL     OW22456  13.145   1.298  14.657
 6875SOL    HW122457  13.109   1.381  14.625
 6875SOL    HW222458  13.215   1.324  14.717
 6876SOL     OW22459   9.411   1.759   6.218
 6876SOL    HW122460   9.383   1.759   6.310
 6876SOL    HW222461   9.333   1.739   6.168
 6877SOL     OW22462   9.726   5.259  12.372
 6877SOL    HW122463   9.728   5.354  12.381
 6877SOL    HW222464   9.735   5.244  12.278
 6878SOL     OW22465  12.927  13.385  11.425
 6878SOL    HW122466  12.885  13.422  11.503
 6878SOL    HW222467  12.859  13.388  11.357
 6879SOL     OW22468  10.850   9.596   7.971
 6879SOL    HW122469  10.804   9.539   8.033
 6879SOL    HW222470  10.786   9.612   7.902
 6880SOL     OW22471   9.493   0.209   7.226
 6880SOL    HW122472   9.471   0.277   7.290
 6880SOL    HW222473   9.454   0.239   7.144
 6881SOL     OW22474   5.029  11.874   8.407
 6881SOL    HW122475   5.053  11.946   8.349
 6881SOL    HW222476   4.944  11.845   8.375
 6882SOL     OW22477   0.498   5.724  13.368
 6882SOL    HW122478   0.500   5.796  13.431
 6882SOL    HW222479   0.572   5.740  13.310
 6883SOL     OW22480   2.911  13.144   3.024
 6883SOL    HW122481   2.850  13.163   2.952
 6883SOL    HW222482   2.854  13.112   3.094
 6884SOL     OW22483   1.798   1.253   4.676
 6884SOL    HW122484   1.769   1.263   4.766
 6884SOL    HW222485   1.801   1.342   4.642
 6885SOL     OW22486   5.946   4.763   2.888
 6885SOL    HW122487   5.874   4.811   2.847
 6885SOL    HW222488   5.978   4.705   2.819
 6886SOL     OW22489   6.486   6.346   5.644
 6886SOL    HW122490   6.563   6.318   5.693
 6886SOL    HW222491   6.417   6.353   5.709
 6887SOL     OW22492  11.995  12.365  13.295
 6887SOL    HW122493  11.925  12.429  13.307
 6887SOL    HW222494  11.979  12.300  13.364
 6888SOL     OW22495   4.912   2.768   6.065
 6888SOL    HW122496   4.875   2.686   6.097
 6888SOL    HW222497   4.980   2.790   6.128
 6889SOL     OW22498   2.907   9.209   6.864
 6889SOL    HW122499   2.831   9.266   6.879
 6889SOL    HW222500   2.983   9.264   6.884
 6890SOL     OW22501   2.843   8.187  12.025
 6890SOL    HW122502   2.899   8.122  12.067
 6890SOL    HW222503   2.758   8.144  12.016
 6891SOL     OW22504   1.693  11.486  12.726
 6891SOL    HW122505   1.776  11.483  12.679
 6891SOL    HW222506   1.661  11.396  12.724
 6892SOL     OW22507  12.697   0.513  13.063
 6892SOL    HW122508  12.645   0.517  12.982
 6892SOL    HW222509  12.639   0.470  13.126
 6893SOL     OW22510  12.421  12.203   0.476
 6893SOL    HW122511  12.502  12.248   0.453
 6893SOL    HW222512  12.364  12.272   0.510
 6894SOL     OW22513   1.532   9.850   4.401
 6894SOL    HW122514   1.455   9.883   4.447
 6894SOL    HW222515   1.580   9.801   4.467
 6895SOL     OW22516   4.001   0.716   5.310
 6895SOL    HW122517   4.064   0.661   5.356
 6895SOL    HW222518   4.052   0.792   5.282
 6896SOL     OW22519   3.375   2.839   6.218
 6896SOL    HW122520   3.325   2.876   6.291
 6896SOL    HW222521   3.332   2.755   6.200
 6897SOL     OW22522  10.348   9.336   8.959
 6897SOL    HW122523  10.335   9.242   8.969
 6897SOL    HW222524  10.442   9.349   8.972
 6898SOL     OW22525  14.266   4.051   4.522
 6898SOL    HW122526  14.276   3.957   4.506
 6898SOL    HW222527  14.345   4.090   4.485
 6899SOL     OW22528   8.745   5.500   2.272
 6899SOL    HW122529   8.764   5.420   2.223
 6899SOL    HW222530   8.651   5.515   2.259
 6900SOL     OW22531   1.308  11.784   0.466
 6900SOL    HW122532   1.341  11.788   0.556
 6900SOL    HW222533   1.217  11.812   0.473
 6901SOL     OW22534   2.763   3.891   4.365
 6901SOL    HW122535   2.705   3.930   4.300
 6901SOL    HW222536   2.842   3.946   4.362
 6902SOL     OW22537   5.060  12.833   3.249
 6902SOL    HW122538   4.987  12.871   3.200
 6902SOL    HW222539   5.035  12.741   3.261
 6903SOL     OW22540   3.285   1.019   8.372
 6903SOL    HW122541   3.317   0.942   8.324
 6903SOL    HW222542   3.334   1.092   8.334
 6904SOL     OW22543   0.669  10.112  13.261
 6904SOL    HW122544   0.743  10.168  13.287
 6904SOL    HW222545   0.655  10.132  13.168
 6905SOL     OW22546  11.118   2.412   4.282
 6905SOL    HW122547  11.110   2.328   4.238
 6905SOL    HW222548  11.211   2.423   4.298
 6906SOL     OW22549  10.020   6.078  12.373
 6906SOL    HW122550  10.028   6.107  12.464
 6906SOL    HW222551  10.103   6.105  12.332
 6907SOL     OW22552   6.354  14.217  13.798
 6907SOL    HW122553   6.297  14.150  13.836
 6907SOL    HW222554   6.359  14.194  13.705
 6908SOL     OW22555  12.261  12.602   4.047
 6908SOL    HW122556  12.225  12.516   4.069
 6908SOL    HW222557  12.256  12.607   3.952
 6909SOL     OW22558   5.694   8.493   2.132
 6909SOL    HW122559   5.740   8.464   2.210
 6909SOL    HW222560   5.761   8.535   2.078
 6910SOL     OW22561   3.075   6.744  10.397
 6910SOL    HW122562   3.043   6.655  10.413
 6910SOL    HW222563   3.016   6.800  10.446
 6911SOL     OW22564  11.814  12.515   1.373
 6911SOL    HW122565  11.880  12.546   1.311
 6911SOL    HW222566  11.826  12.570   1.451
 6912SOL     OW22567   6.833   3.271   9.119
 6912SOL    HW122568   6.841   3.271   9.024
 6912SOL    HW222569   6.917   3.238   9.150
 6913SOL     OW22570  14.624   0.854   3.167
 6913SOL    HW122571  14.535   0.834   3.195
 6913SOL    HW222572  14.671   0.873   3.248
 6914SOL     OW22573   6.852  11.935   4.462
 6914SOL    HW122574   6.912  11.861   4.450
 6914SOL    HW222575   6.868  11.991   4.386
 6915SOL     OW22576   2.011   2.046   9.808
 6915SOL    HW122577   1.989   2.032   9.900
 6915SOL    HW222578   2.099   2.084   9.811
 6916SOL     OW22579   6.425   9.481   8.792
 6916SOL    HW122580   6.370   9.421   8.842
 6916SOL    HW222581   6.488   9.515   8.856
 6917SOL     OW22582   2.639   7.191   5.863
 6917SOL    HW122583   2.544   7.198   5.858
 6917SOL    HW222584   2.658   7.192   5.957
 6918SOL     OW22585   9.252   5.069   6.283
 6918SOL    HW122586   9.328   5.017   6.310
 6918SOL    HW222587   9.241   5.048   6.190
 6919SOL     OW22588  11.369   6.811   1.584
 6919SOL    HW122589  11.363   6.891   1.532
 6919SOL    HW222590  11.326   6.833   1.666
 6920SOL     OW22591  10.313   1.967   5.611
 6920SOL    HW122592  10.390   1.985   5.664
 6920SOL    HW222593  10.241   1.960   5.674
 6921SOL     OW22594  12.252  12.634  10.041
 6921SOL    HW122595  12.278  12.625   9.950
 6921SOL    HW222596  12.207  12.718  10.045
 6922SOL     OW22597   8.322  14.223   0.357
 6922SOL    HW122598   8.402  14.240   0.307
 6922SOL    HW222599   8.276  14.307   0.357
 6923SOL     OW22600  13.382   6.049   8.204
 6923SOL    HW122601  13.320   6.062   8.132
 6923SOL    HW222602  13.369   5.958   8.230
 6924SOL     OW22603   4.806   7.110   8.280
 6924SOL    HW122604   4.790   7.204   8.274
 6924SOL    HW222605   4.896   7.100   8.247
 6925SOL     OW22606   8.645   5.868   4.325
 6925SOL    HW122607   8.666   5.835   4.237
 6925SOL    HW222608   8.714   5.933   4.343
 6926SOL     OW22609   7.170   3.375  13.624
 6926SOL    HW122610   7.206   3.423  13.549
 6926SOL    HW222611   7.101   3.433  13.657
 6927SOL     OW22612   6.731  14.319   3.763
 6927SOL    HW122613   6.673  14.259   3.716
 6927SOL    HW222614   6.808  14.326   3.707
 6928SOL     OW22615   1.480   9.422   2.095
 6928SOL    HW122616   1.448   9.509   2.121
 6928SOL    HW222617   1.514   9.384   2.176
 6929SOL     OW22618  10.498   5.985  14.330
 6929SOL    HW122619  10.426   5.988  14.394
 6929SOL    HW222620  10.529   5.894  14.333
 6930SOL     OW22621  11.340   1.162  11.453
 6930SOL    HW122622  11.414   1.141  11.509
 6930SOL    HW222623  11.298   1.078  11.436
 6931SOL     OW22624  10.008   6.232   3.519
 6931SOL    HW122625  10.023   6.319   3.557
 6931SOL    HW222626  10.035   6.171   3.587
 6932SOL     OW22627   1.401   9.955   3.534
 6932SOL    HW122628   1.465   9.973   3.464
 6932SOL    HW222629   1.387  10.040   3.576
 6933SOL     OW22630   0.265   4.782   8.786
 6933SOL    HW122631   0.306   4.748   8.707
 6933SOL    HW222632   0.230   4.705   8.831
 6934SOL     OW22633  10.745   3.276   8.741
 6934SOL    HW122634  10.829   3.312   8.711
 6934SOL    HW222635  10.762   3.245   8.829
 6935SOL     OW22636   0.991   6.897  10.906
 6935SOL    HW122637   0.914   6.919  10.957
 6935SOL    HW222638   1.049   6.972  10.915
 6936SOL     OW22639  10.680   8.833  10.123
 6936SOL    HW122640  10.592   8.803  10.144
 6936SOL    HW222641  10.725   8.755  10.090
 6937SOL     OW22642  13.117   2.608  14.174
 6937SOL    HW122643  13.197   2.643  14.213
 6937SOL    HW222644  13.069   2.569  14.247
 6938SOL     OW22645  10.116   1.832  14.111
 6938SOL    HW122646  10.172   1.878  14.049
 6938SOL    HW222647  10.110   1.743  14.076
 6939SOL     OW22648  10.354   0.728   0.691
 6939SOL    HW122649  10.317   0.781   0.762
 6939SOL    HW222650  10.405   0.661   0.736
 6940SOL     OW22651  11.029  11.661  12.750
 6940SOL    HW122652  10.946  11.615  12.763
 6940SOL    HW222653  11.007  11.753  12.760
 6941SOL     OW22654   4.404   8.599   1.349
 6941SOL    HW122655   4.325   8.545   1.352
 6941SOL    HW222656   4.373   8.689   1.346
 6942SOL     OW22657   1.778  14.269   0.381
 6942SOL    HW122658   1.742  14.180   0.387
 6942SOL    HW222659   1.784  14.299   0.472
 6943SOL     OW22660   1.932   6.632   5.347
 6943SOL    HW122661   1.992   6.557   5.343
 6943SOL    HW222662   1.898   6.641   5.258
 6944SOL     OW22663  13.027  13.117  13.912
 6944SOL    HW122664  12.999  13.134  13.822
 6944SOL    HW222665  13.096  13.181  13.928
 6945SOL     OW22666   7.069  13.003   2.514
 6945SOL    HW122667   6.982  12.997   2.553
 6945SOL    HW222668   7.058  12.969   2.425
 6946SOL     OW22669  10.635   4.132   0.153
 6946SOL    HW122670  10.687   4.088   0.086
 6946SOL    HW222671  10.553   4.156   0.108
 6947SOL     OW22672   1.821   7.537   3.248
 6947SOL    HW122673   1.897   7.587   3.220
 6947SOL    HW222674   1.800   7.480   3.174
 6948SOL     OW22675  10.896   0.531   4.833
 6948SOL    HW122676  10.992   0.532   4.826
 6948SOL    HW222677  10.875   0.441   4.856
 6949SOL     OW22678   1.194   8.087  10.737
 6949SOL    HW122679   1.200   8.172  10.781
 6949SOL    HW222680   1.101   8.063  10.743
 6950SOL     OW22681  11.241   5.918   8.031
 6950SOL    HW122682  11.184   5.905   8.106
 6950SOL    HW222683  11.206   5.995   7.987
 6951SOL     OW22684   6.618   2.673   0.559
 6951SOL    HW122685   6.614   2.634   0.647
 6951SOL    HW222686   6.610   2.767   0.574
 6952SOL     OW22687   2.165  13.322   5.051
 6952SOL    HW122688   2.186  13.229   5.040
 6952SOL    HW222689   2.241  13.359   5.096
 6953SOL     OW22690   8.931   3.397  14.479
 6953SOL    HW122691   8.955   3.325  14.421
 6953SOL    HW222692   8.977   3.474  14.443
 6954SOL     OW22693  11.010   4.345  14.167
 6954SOL    HW122694  10.926   4.368  14.127
 6954SOL    HW222695  11.030   4.258  14.132
 6955SOL     OW22696  13.370  12.212   7.821
 6955SOL    HW122697  13.366  12.121   7.850
 6955SOL    HW222698  13.407  12.207   7.733
 6956SOL     OW22699  12.254   0.304   0.982
 6956SOL    HW122700  12.242   0.288   1.075
 6956SOL    HW222701  12.168   0.333   0.951
 6957SOL     OW22702   4.750  11.009   6.520
 6957SOL    HW122703   4.705  10.936   6.477
 6957SOL    HW222704   4.710  11.087   6.482
 6958SOL     OW22705  11.197   4.188   6.191
 6958SOL    HW122706  11.264   4.246   6.154
 6958SOL    HW222707  11.245   4.110   6.219
 6959SOL     OW22708  10.268   4.418  12.497
 6959SOL    HW122709  10.348   4.467  12.476
 6959SOL    HW222710  10.215   4.424  12.418
 6960SOL     OW22711   0.844  10.087   9.380
 6960SOL    HW122712   0.850  10.073   9.285
 6960SOL    HW222713   0.909  10.155   9.398
 6961SOL     OW22714   9.584   3.964   1.979
 6961SOL    HW122715   9.617   3.923   1.899
 6961SOL    HW222716   9.640   4.040   1.991
 6962SOL     OW22717  14.037   1.999   1.769
 6962SOL    HW122718  14.030   2.031   1.859
 6962SOL    HW222719  14.068   1.908   1.779
 6963SOL     OW22720   0.504   9.628  13.204
 6963SOL    HW122721   0.596   9.652  13.196
 6963SOL    HW222722   0.470   9.633  13.115
 6964SOL     OW22723   7.767  11.892  13.857
 6964SOL    HW122724   7.716  11.924  13.782
 6964SOL    HW222725   7.704  11.892  13.930
 6965SOL     OW22726   0.233  10.171   5.893
 6965SOL    HW122727   0.196  10.151   5.807
 6965SOL    HW222728   0.158  10.193   5.947
 6966SOL     OW22729   5.560   9.265   4.225
 6966SOL    HW122730   5.521   9.226   4.146
 6966SOL    HW222731   5.547   9.359   4.214
 6967SOL     OW22732   3.012  13.062  14.199
 6967SOL    HW122733   2.960  13.036  14.275
 6967SOL    HW222734   3.022  12.982  14.147
 6968SOL     OW22735   0.063   9.283   3.310
 6968SOL    HW122736  14.865   9.267   3.252
 6968SOL    HW222737   0.038   9.359   3.362
 6969SOL     OW22738   1.338  13.934   3.282
 6969SOL    HW122739   1.382  13.975   3.356
 6969SOL    HW222740   1.323  13.844   3.310
 6970SOL     OW22741   7.938   2.693   3.095
 6970SOL    HW122742   7.954   2.776   3.139
 6970SOL    HW222743   7.917   2.632   3.166
 6971SOL     OW22744   5.783   1.108   2.190
 6971SOL    HW122745   5.733   1.187   2.173
 6971SOL    HW222746   5.746   1.042   2.131
 6972SOL     OW22747   1.529  12.798  13.148
 6972SOL    HW122748   1.599  12.815  13.212
 6972SOL    HW222749   1.575  12.773  13.068
 6973SOL     OW22750   7.969   0.167  12.086
 6973SOL    HW122751   7.961   0.253  12.128
 6973SOL    HW222752   7.954   0.184  11.993
 6974SOL     OW22753   9.020   6.991   8.167
 6974SOL    HW122754   9.055   6.939   8.239
 6974SOL    HW222755   8.978   6.927   8.110
 6975SOL     OW22756   3.694   2.410   6.309
 6975SOL    HW122757   3.649   2.436   6.389
 6975SOL    HW222758   3.668   2.476   6.245
 6976SOL     OW22759   4.353   3.778   3.245
 6976SOL    HW122760   4.444   3.752   3.255
 6976SOL    HW222761   4.317   3.776   3.334
 6977SOL     OW22762   5.283  10.443   7.775
 6977SOL    HW122763   5.219  10.489   7.830
 6977SOL    HW222764   5.367  10.483   7.797
 6978SOL     OW22765  14.852  11.440  10.842
 6978SOL    HW122766  14.845  11.344  10.845
 6978SOL    HW222767   0.059  11.456  10.797
 6979SOL     OW22768   5.602   3.521   3.499
 6979SOL    HW122769   5.694   3.545   3.515
 6979SOL    HW222770   5.601   3.491   3.408
 6980SOL     OW22771   9.290   8.815   6.746
 6980SOL    HW122772   9.210   8.769   6.770
 6980SOL    HW222773   9.295   8.888   6.808
 6981SOL     OW22774   6.148  11.415   5.152
 6981SOL    HW122775   6.148  11.403   5.057
 6981SOL    HW222776   6.234  11.454   5.170
 6982SOL     OW22777   2.305   7.295   6.520
 6982SOL    HW122778   2.382   7.242   6.542
 6982SOL    HW222779   2.313   7.311   6.426
 6983SOL     OW22780   9.800   8.148   7.756
 6983SOL    HW122781   9.880   8.152   7.808
 6983SOL    HW222782   9.730   8.160   7.820
 6984SOL     OW22783   7.137  14.596   3.513
 6984SOL    HW122784   7.134  14.690   3.495
 6984SOL    HW222785   7.137  14.555   3.426
 6985SOL     OW22786   5.669  12.955   2.917
 6985SOL    HW122787   5.740  12.938   2.979
 6985SOL    HW222788   5.622  13.030   2.954
 6986SOL     OW22789   6.185  13.572   5.967
 6986SOL    HW122790   6.222  13.597   6.052
 6986SOL    HW222791   6.191  13.477   5.966
 6987SOL     OW22792  10.386   3.381   2.067
 6987SOL    HW122793  10.445   3.306   2.064
 6987SOL    HW222794  10.305   3.347   2.105
 6988SOL     OW22795  12.406   2.607   5.392
 6988SOL    HW122796  12.379   2.634   5.480
 6988SOL    HW222797  12.337   2.547   5.364
 6989SOL     OW22798   1.115   2.148  14.797
 6989SOL    HW122799   1.191   2.095  14.821
 6989SOL    HW222800   1.041   2.087  14.799
 6990SOL     OW22801   1.983   9.654   8.911
 6990SOL    HW122802   1.905   9.605   8.937
 6990SOL    HW222803   2.056   9.595   8.931
 6991SOL     OW22804   8.102   3.784  14.068
 6991SOL    HW122805   8.032   3.782  14.003
 6991SOL    HW222806   8.117   3.692  14.091
 6992SOL     OW22807   4.800   1.896   4.274
 6992SOL    HW122808   4.714   1.874   4.238
 6992SOL    HW222809   4.784   1.907   4.368
 6993SOL     OW22810   9.423   8.974   4.776
 6993SOL    HW122811   9.368   9.043   4.812
 6993SOL    HW222812   9.399   8.895   4.825
 6994SOL     OW22813   1.593   8.866   6.288
 6994SOL    HW122814   1.569   8.813   6.212
 6994SOL    HW222815   1.570   8.811   6.363
 6995SOL     OW22816   7.520   5.954   5.779
 6995SOL    HW122817   7.581   6.006   5.728
 6995SOL    HW222818   7.576   5.897   5.832
 6996SOL     OW22819   6.116   9.633  14.162
 6996SOL    HW122820   6.191   9.589  14.203
 6996SOL    HW222821   6.114   9.720  14.202
 6997SOL     OW22822   7.977  14.447  12.998
 6997SOL    HW122823   7.981  14.367  13.051
 6997SOL    HW222824   8.025  14.512  13.049
 6998SOL     OW22825  11.671   5.970   4.828
 6998SOL    HW122826  11.622   5.891   4.807
 6998SOL    HW222827  11.697   6.006   4.744
 6999SOL     OW22828   7.023   7.747   3.190
 6999SOL    HW122829   7.073   7.822   3.222
 6999SOL    HW222830   7.041   7.744   3.096
 7000SOL     OW22831  13.759  10.865   2.005
 7000SOL    HW122832  13.692  10.863   2.073
 7000SOL    HW222833  13.841  10.881   2.052
 7001SOL     OW22834   8.537  12.099  13.535
 7001SOL    HW122835   8.562  12.191  13.545
 7001SOL    HW222836   8.510  12.073  13.623
 7002SOL     OW22837  12.569   2.572   1.085
 7002SOL    HW122838  12.590   2.552   1.177
 7002SOL    HW222839  12.533   2.491   1.050
 7003SOL     OW22840   8.069   5.954  13.426
 7003SOL    HW122841   8.135   5.939  13.494
 7003SOL    HW222842   8.042   6.045  13.438
 7004SOL     OW22843   5.440   5.257  11.833
 7004SOL    HW122844   5.466   5.294  11.917
 7004SOL    HW222845   5.512   5.199  11.809
 7005SOL     OW22846   5.445   5.024   2.323
 7005SOL    HW122847   5.461   4.932   2.345
 7005SOL    HW222848   5.352   5.028   2.300
 7006SOL     OW22849   4.880  12.465  13.611
 7006SOL    HW122850   4.940  12.521  13.563
 7006SOL    HW222851   4.923  12.447  13.694
 7007SOL     OW22852   0.336   5.797   5.683
 7007SOL    HW122853   0.332   5.739   5.759
 7007SOL    HW222854   0.418   5.772   5.639
 7008SOL     OW22855   4.113   4.617  10.149
 7008SOL    HW122856   4.028   4.660  10.152
 7008SOL    HW222857   4.169   4.678  10.101
 7009SOL     OW22858   1.047  13.116   2.759
 7009SOL    HW122859   1.024  13.056   2.688
 7009SOL    HW222860   1.055  13.201   2.717
 7010SOL     OW22861  14.005  14.132   7.762
 7010SOL    HW122862  13.952  14.169   7.832
 7010SOL    HW222863  13.980  14.180   7.684
 7011SOL     OW22864   1.965   9.133   6.368
 7011SOL    HW122865   1.974   9.061   6.431
 7011SOL    HW222866   1.956   9.089   6.283
 7012SOL     OW22867  11.160   0.980   0.603
 7012SOL    HW122868  11.174   1.070   0.632
 7012SOL    HW222869  11.248   0.942   0.604
 7013SOL     OW22870   5.523   7.163   8.810
 7013SOL    HW122871   5.560   7.172   8.897
 7013SOL    HW222872   5.473   7.244   8.797
 7014SOL     OW22873   0.849   4.114   1.517
 7014SOL    HW122874   0.823   4.030   1.479
 7014SOL    HW222875   0.807   4.115   1.603
 7015SOL     OW22876   5.769  14.834   2.569
 7015SOL    HW122877   5.718  14.848   2.489
 7015SOL    HW222878   5.760  14.740   2.587
 7016SOL     OW22879   2.518   9.375  12.256
 7016SOL    HW122880   2.430   9.351  12.227
 7016SOL    HW222881   2.515   9.470  12.265
 7017SOL     OW22882  12.217   1.571  13.215
 7017SOL    HW122883  12.228   1.665  13.202
 7017SOL    HW222884  12.236   1.532  13.130
 7018SOL     OW22885   2.811   8.615  12.727
 7018SOL    HW122886   2.893   8.627  12.775
 7018SOL    HW222887   2.796   8.699  12.684
 7019SOL     OW22888   1.546  11.146   7.295
 7019SOL    HW122889   1.637  11.152   7.267
 7019SOL    HW222890   1.542  11.067   7.349
 7020SOL     OW22891  11.445   9.525  13.582
 7020SOL    HW122892  11.368   9.533  13.638
 7020SOL    HW222893  11.516   9.563  13.634
 7021SOL     OW22894  14.849  14.314   8.043
 7021SOL    HW122895  14.824  14.253   7.974
 7021SOL    HW222896  14.849  14.261   8.123
 7022SOL     OW22897   2.892  14.040   3.378
 7022SOL    HW122898   2.985  14.066   3.375
 7022SOL    HW222899   2.862  14.051   3.288
 7023SOL     OW22900   9.622   7.144   9.579
 7023SOL    HW122901   9.672   7.067   9.552
 7023SOL    HW222902   9.551   7.110   9.632
 7024SOL     OW22903   7.249   4.179   1.048
 7024SOL    HW122904   7.221   4.133   0.969
 7024SOL    HW222905   7.328   4.226   1.022
 7025SOL     OW22906   8.497  10.489   7.464
 7025SOL    HW122907   8.466  10.579   7.464
 7025SOL    HW222908   8.452  10.447   7.537
 7026SOL     OW22909   2.646   2.823   0.848
 7026SOL    HW122910   2.561   2.849   0.813
 7026SOL    HW222911   2.651   2.729   0.832
 7027SOL     OW22912   6.900  10.553   9.765
 7027SOL    HW122913   6.824  10.549   9.824
 7027SOL    HW222914   6.891  10.477   9.708
 7028SOL     OW22915  13.928   3.238   5.907
 7028SOL    HW122916  13.881   3.157   5.886
 7028SOL    HW222917  14.017   3.209   5.927
 7029SOL     OW22918   0.327   9.794   1.645
 7029SOL    HW122919   0.356   9.721   1.700
 7029SOL    HW222920   0.321   9.868   1.705
 7030SOL     OW22921  12.547   1.083   0.403
 7030SOL    HW122922  12.532   1.163   0.352
 7030SOL    HW222923  12.488   1.019   0.363
 7031SOL     OW22924  13.320   6.840   9.674
 7031SOL    HW122925  13.270   6.826   9.593
 7031SOL    HW222926  13.281   6.918   9.713
 7032SOL     OW22927   2.318   3.590  10.986
 7032SOL    HW122928   2.312   3.660  11.051
 7032SOL    HW222929   2.329   3.510  11.038
 7033SOL     OW22930   4.311   3.268  11.553
 7033SOL    HW122931   4.237   3.303  11.603
 7033SOL    HW222932   4.388   3.297  11.601
 7034SOL     OW22933   0.892   2.802   5.132
 7034SOL    HW122934   0.803   2.794   5.097
 7034SOL    HW222935   0.901   2.729   5.193
 7035SOL     OW22936   8.156   4.562  10.402
 7035SOL    HW122937   8.150   4.469  10.424
 7035SOL    HW222938   8.233   4.568  10.344
 7036SOL     OW22939   7.772  11.522   2.083
 7036SOL    HW122940   7.807  11.607   2.110
 7036SOL    HW222941   7.677  11.531   2.090
 7037SOL     OW22942   0.987   3.924  11.620
 7037SOL    HW122943   0.962   4.003  11.667
 7037SOL    HW222944   1.080   3.912  11.640
 7038SOL     OW22945   7.982  13.260  10.037
 7038SOL    HW122946   7.949  13.290  10.122
 7038SOL    HW222947   8.061  13.210  10.058
 7039SOL     OW22948   8.869   6.938   0.098
 7039SOL    HW122949   8.847   6.991   0.022
 7039SOL    HW222950   8.908   6.999   0.160
 7040SOL     OW22951  12.801   0.173   6.122
 7040SOL    HW122952  12.760   0.196   6.039
 7040SOL    HW222953  12.817   0.079   6.116
 7041SOL     OW22954   7.072   3.254   8.975
 7041SOL    HW122955   7.043   3.345   8.976
 7041SOL    HW222956   7.126   3.247   8.895
 7042SOL     OW22957  10.089   9.893   2.133
 7042SOL    HW122958  10.012   9.856   2.175
 7042SOL    HW222959  10.091   9.853   2.047
 7043SOL     OW22960  10.697  13.941   2.768
 7043SOL    HW122961  10.738  14.027   2.779
 7043SOL    HW222962  10.757  13.881   2.812
 7044SOL     OW22963  14.373   2.108   3.841
 7044SOL    HW122964  14.345   2.122   3.931
 7044SOL    HW222965  14.325   2.173   3.790
 7045SOL     OW22966   0.391  14.377   4.096
 7045SOL    HW122967   0.428  14.459   4.128
 7045SOL    HW222968   0.380  14.323   4.174
 7046SOL     OW22969   4.333   0.173   4.307
 7046SOL    HW122970   4.345   0.181   4.401
 7046SOL    HW222971   4.300   0.259   4.280
 7047SOL     OW22972  10.630  13.219  11.331
 7047SOL    HW122973  10.641  13.136  11.376
 7047SOL    HW222974  10.624  13.195  11.238
 7048SOL     OW22975   0.021  12.566   2.178
 7048SOL    HW122976  14.849  12.643   2.208
 7048SOL    HW222977   0.107  12.572   2.220
 7049SOL     OW22978   3.718  13.311  14.596
 7049SOL    HW122979   3.797  13.344  14.553
 7049SOL    HW222980   3.690  13.238  14.542
 7050SOL     OW22981  10.451   0.586   5.523
 7050SOL    HW122982  10.378   0.580   5.585
 7050SOL    HW222983  10.503   0.508   5.540
 7051SOL     OW22984   0.163  12.789   9.738
 7051SOL    HW122985   0.084  12.819   9.783
 7051SOL    HW222986   0.140  12.702   9.705
 7052SOL     OW22987   6.036  11.571   4.701
 7052SOL    HW122988   5.948  11.550   4.731
 7052SOL    HW222989   6.038  11.539   4.610
 7053SOL     OW22990  12.608  12.522   1.621
 7053SOL    HW122991  12.619  12.449   1.681
 7053SOL    HW222992  12.523  12.507   1.580
 7054SOL     OW22993   5.432   6.948   4.502
 7054SOL    HW122994   5.403   6.862   4.532
 7054SOL    HW222995   5.352   6.993   4.476
 7055SOL     OW22996  12.802   3.702  11.020
 7055SOL    HW122997  12.867   3.764  11.056
 7055SOL    HW222998  12.819   3.620  11.067
 7056SOL     OW22999  13.636  11.619  11.811
 7056SOL    HW123000  13.709  11.656  11.861
 7056SOL    HW223001  13.664  11.531  11.787
 7057SOL     OW23002   4.204   2.250  14.308
 7057SOL    HW123003   4.191   2.160  14.340
 7057SOL    HW223004   4.270   2.287  14.366
 7058SOL     OW23005   9.550   7.992   6.561
 7058SOL    HW123006   9.573   8.077   6.599
 7058SOL    HW223007   9.474   7.963   6.611
 7059SOL     OW23008   4.970   4.254   8.540
 7059SOL    HW123009   5.047   4.274   8.593
 7059SOL    HW223010   4.957   4.332   8.486
 7060SOL     OW23011   3.422  13.091   3.068
 7060SOL    HW123012   3.348  13.152   3.058
 7060SOL    HW223013   3.382  13.009   3.095
 7061SOL     OW23014   5.287  11.691   9.950
 7061SOL    HW123015   5.296  11.612  10.004
 7061SOL    HW223016   5.317  11.762  10.006
 7062SOL     OW23017  13.194   6.386  13.687
 7062SOL    HW123018  13.191   6.294  13.712
 7062SOL    HW223019  13.246   6.428  13.755
 7063SOL     OW23020   7.794  14.083   5.824
 7063SOL    HW123021   7.813  14.084   5.918
 7063SOL    HW223022   7.869  14.038   5.785
 7064SOL     OW23023  10.527   8.785   9.587
 7064SOL    HW123024  10.516   8.874   9.553
 7064SOL    HW223025  10.467   8.732   9.535
 7065SOL     OW23026   2.155  14.228   8.853
 7065SOL    HW123027   2.073  14.232   8.902
 7065SOL    HW223028   2.217  14.280   8.904
 7066SOL     OW23029   6.665   6.908   6.871
 7066SOL    HW123030   6.726   6.850   6.916
 7066SOL    HW223031   6.598   6.929   6.937
 7067SOL     OW23032  11.719  12.321  14.660
 7067SOL    HW123033  11.698  12.391  14.721
 7067SOL    HW223034  11.637  12.272  14.651
 7068SOL     OW23035   3.624   7.360  10.734
 7068SOL    HW123036   3.699   7.301  10.741
 7068SOL    HW223037   3.661   7.448  10.738
 7069SOL     OW23038  14.371   5.658  14.372
 7069SOL    HW123039  14.330   5.703  14.299
 7069SOL    HW223040  14.302   5.654  14.439
 7070SOL     OW23041   2.440   3.866   1.870
 7070SOL    HW123042   2.499   3.927   1.827
 7070SOL    HW223043   2.485   3.782   1.865
 7071SOL     OW23044   7.240   4.023  13.826
 7071SOL    HW123045   7.250   4.039  13.919
 7071SOL    HW223046   7.263   3.930  13.815
 7072SOL     OW23047  14.700   0.303  13.769
 7072SOL    HW123048  14.662   0.383  13.734
 7072SOL    HW223049  14.693   0.313  13.864
 7073SOL     OW23050   9.786  13.812  12.242
 7073SOL    HW123051   9.846  13.872  12.284
 7073SOL    HW223052   9.842  13.752  12.192
 7074SOL     OW23053   9.344  10.618  13.232
 7074SOL    HW123054   9.269  10.592  13.178
 7074SOL    HW223055   9.413  10.556  13.209
 7075SOL     OW23056   2.594   1.530   6.091
 7075SOL    HW123057   2.592   1.446   6.044
 7075SOL    HW223058   2.546   1.590   6.034
 7076SOL     OW23059   4.109   4.890   4.023
 7076SOL    HW123060   4.161   4.970   4.020
 7076SOL    HW223061   4.051   4.902   4.098
 7077SOL     OW23062  11.632   6.350  11.425
 7077SOL    HW123063  11.630   6.256  11.405
 7077SOL    HW223064  11.718   6.364  11.464
 7078SOL     OW23065   0.125   0.734   8.741
 7078SOL    HW123066   0.116   0.641   8.721
 7078SOL    HW223067   0.153   0.735   8.833
 7079SOL     OW23068   1.916  13.563   0.924
 7079SOL    HW123069   2.005  13.534   0.903
 7079SOL    HW223070   1.862  13.485   0.915
 7080SOL     OW23071   8.868  10.558   1.729
 7080SOL    HW123072   8.817  10.495   1.679
 7080SOL    HW223073   8.874  10.520   1.817
 7081SOL     OW23074  12.248  10.034   0.069
 7081SOL    HW123075  12.308  10.047  14.872
 7081SOL    HW223076  12.236   9.939   0.073
 7082SOL     OW23077   6.717   8.247   7.972
 7082SOL    HW123078   6.637   8.296   7.992
 7082SOL    HW223079   6.703   8.213   7.883
 7083SOL     OW23080   4.629   8.292  10.209
 7083SOL    HW123081   4.605   8.362  10.148
 7083SOL    HW223082   4.547   8.246  10.227
 7084SOL     OW23083  11.530   2.421  11.700
 7084SOL    HW123084  11.619   2.428  11.735
 7084SOL    HW223085  11.517   2.503  11.652
 7085SOL     OW23086   4.077  10.640   8.417
 7085SOL    HW123087   4.087  10.719   8.471
 7085SOL    HW223088   4.074  10.568   8.480
 7086SOL     OW23089   3.515  11.701   6.039
 7086SOL    HW123090   3.456  11.762   6.084
 7086SOL    HW223091   3.475  11.615   6.052
 7087SOL     OW23092   9.534  10.360   2.736
 7087SOL    HW123093   9.529  10.449   2.702
 7087SOL    HW223094   9.489  10.307   2.670
 7088SOL     OW23095   2.966  13.390   0.078
 7088SOL    HW123096   2.885  13.344   0.055
 7088SOL    HW223097   3.023  13.322   0.114
 7089SOL     OW23098  11.010  12.492   9.224
 7089SOL    HW123099  11.088  12.547   9.232
 7089SOL    HW223100  11.040  12.414   9.178
 7090SOL     OW23101  13.837  10.835   6.994
 7090SOL    HW123102  13.762  10.775   6.999
 7090SOL    HW223103  13.811  10.911   7.046
 7091SOL     OW23104  14.244  13.236  10.851
 7091SOL    HW123105  14.222  13.220  10.943
 7091SOL    HW223106  14.211  13.325  10.834
 7092SOL     OW23107   3.631   3.779   4.880
 7092SOL    HW123108   3.551   3.817   4.844
 7092SOL    HW223109   3.657   3.713   4.815
 7093SOL     OW23110   6.500  11.720  13.027
 7093SOL    HW123111   6.487  11.812  13.048
 7093SOL    HW223112   6.417  11.691  12.989
 7094SOL     OW23113  13.176   5.224  12.493
 7094SOL    HW123114  13.175   5.245  12.400
 7094SOL    HW223115  13.086   5.241  12.523
 7095SOL     OW23116   5.180   5.069   2.250
 7095SOL    HW123117   5.166   5.153   2.294
 7095SOL    HW223118   5.092   5.032   2.240
 7096SOL     OW23119   2.860   7.187  10.355
 7096SOL    HW123120   2.949   7.160  10.332
 7096SOL    HW223121   2.873   7.265  10.410
 7097SOL     OW23122  12.824   5.542   6.444
 7097SOL    HW123123  12.883   5.581   6.379
 7097SOL    HW223124  12.852   5.580   6.527
 7098SOL     OW23125   0.911   7.772   6.956
 7098SOL    HW123126   0.867   7.839   6.905
 7098SOL    HW223127   0.895   7.691   6.909
 7099SOL     OW23128   9.280   9.919   6.185
 7099SOL    HW123129   9.345   9.938   6.252
 7099SOL    HW223130   9.325   9.863   6.122
 7100SOL     OW23131   2.182   7.841  14.389
 7100SOL    HW123132   2.240   7.845  14.465
 7100SOL    HW223133   2.190   7.751  14.357
 7101SOL     OW23134   3.127   6.120   0.673
 7101SOL    HW123135   3.111   6.205   0.713
 7101SOL    HW223136   3.187   6.075   0.733
 7102SOL     OW23137  10.580   7.784   8.843
 7102SOL    HW123138  10.564   7.738   8.760
 7102SOL    HW223139  10.663   7.829   8.830
 7103SOL     OW23140  12.295  14.111   1.701
 7103SOL    HW123141  12.237  14.035   1.689
 7103SOL    HW223142  12.258  14.178   1.644
 7104SOL     OW23143  14.627   8.513   4.486
 7104SOL    HW123144  14.710   8.478   4.454
 7104SOL    HW223145  14.648   8.603   4.512
 7105SOL     OW23146   4.564  13.968   2.725
 7105SOL    HW123147   4.542  14.000   2.813
 7105SOL    HW223148   4.485  13.920   2.697
 7106SOL     OW23149   6.790   9.122  12.023
 7106SOL    HW123150   6.796   9.027  12.008
 7106SOL    HW223151   6.872   9.157  11.989
 7107SOL     OW23152  13.662   0.814   5.355
 7107SOL    HW123153  13.567   0.831   5.353
 7107SOL    HW223154  13.701   0.901   5.348
 7108SOL     OW23155  12.658  13.569  12.364
 7108SOL    HW123156  12.581  13.615  12.397
 7108SOL    HW223157  12.700  13.630  12.304
 7109SOL     OW23158   3.318   8.512   1.935
 7109SOL    HW123159   3.235   8.475   1.905
 7109SOL    HW223160   3.292   8.578   1.999
 7110SOL     OW23161  13.866   2.164  11.013
 7110SOL    HW123162  13.877   2.225  10.941
 7110SOL    HW223163  13.955   2.144  11.042
 7111SOL     OW23164   1.134  11.016   4.641
 7111SOL    HW123165   1.143  11.048   4.731
 7111SOL    HW223166   1.199  11.065   4.592
 7112SOL     OW23167  10.911   7.611   8.474
 7112SOL    HW123168  10.853   7.538   8.495
 7112SOL    HW223169  10.897   7.626   8.380
 7113SOL     OW23170  10.404   5.405   9.338
 7113SOL    HW123171  10.402   5.310   9.344
 7113SOL    HW223172  10.314   5.430   9.319
 7114SOL     OW23173   3.932   6.237   9.025
 7114SOL    HW123174   3.875   6.196   8.959
 7114SOL    HW223175   4.021   6.220   8.993
 7115SOL     OW23176  12.219   1.060   2.521
 7115SOL    HW123177  12.189   1.127   2.582
 7115SOL    HW223178  12.140   1.012   2.496
 7116SOL     OW23179   8.774  14.067  14.144
 7116SOL    HW123180   8.710  14.105  14.084
 7116SOL    HW223181   8.824  14.142  14.176
 7117SOL     OW23182  10.323  13.058   0.957
 7117SOL    HW123183  10.304  13.143   0.996
 7117SOL    HW223184  10.330  12.999   1.032
 7118SOL     OW23185   0.649   1.218  13.602
 7118SOL    HW123186   0.596   1.147  13.566
 7118SOL    HW223187   0.718   1.232  13.538
 7119SOL     OW23188  14.857  12.204   7.705
 7119SOL    HW123189  14.874  12.130   7.646
 7119SOL    HW223190   0.049  12.268   7.682
 7120SOL     OW23191   6.783  10.625   7.547
 7120SOL    HW123192   6.805  10.650   7.637
 7120SOL    HW223193   6.694  10.658   7.534
 7121SOL     OW23194  13.055   3.243   8.135
 7121SOL    HW123195  13.037   3.150   8.149
 7121SOL    HW223196  12.989   3.287   8.189
 7122SOL     OW23197  10.997  12.381   5.757
 7122SOL    HW123198  10.923  12.438   5.779
 7122SOL    HW223199  11.047  12.374   5.838
 7123SOL     OW23200  14.628   5.941   6.945
 7123SOL    HW123201  14.663   6.005   6.884
 7123SOL    HW223202  14.535   5.935   6.923
 7124SOL     OW23203   4.232   9.194  11.848
 7124SOL    HW123204   4.276   9.240  11.776
 7124SOL    HW223205   4.193   9.263  11.901
 7125SOL     OW23206   2.343  14.320  10.604
 7125SOL    HW123207   2.421  14.367  10.634
 7125SOL    HW223208   2.329  14.352  10.515
 7126SOL     OW23209   1.854  13.305   6.578
 7126SOL    HW123210   1.761  13.290   6.562
 7126SOL    HW223211   1.869  13.271   6.666
 7127SOL     OW23212   2.055  13.967   7.079
 7127SOL    HW123213   1.986  13.945   7.017
 7127SOL    HW223214   2.104  14.037   7.036
 7128SOL     OW23215   6.297   5.482   8.373
 7128SOL    HW123216   6.237   5.456   8.303
 7128SOL    HW223217   6.329   5.568   8.347
 7129SOL     OW23218   0.981   7.113   1.887
 7129SOL    HW123219   0.933   7.055   1.946
 7129SOL    HW223220   1.073   7.089   1.900
 7130SOL     OW23221   3.364  14.094   5.289
 7130SOL    HW123222   3.397  14.068   5.375
 7130SOL    HW223223   3.433  14.150   5.252
 7131SOL     OW23224   0.994  14.622   0.043
 7131SOL    HW123225   1.080  14.637   0.004
 7131SOL    HW223226   1.009  14.553   0.107
 7132SOL     OW23227  12.204  11.101   1.046
 7132SOL    HW123228  12.283  11.099   0.993
 7132SOL    HW223229  12.154  11.176   1.014
 7133SOL     OW23230   9.751   6.646  13.655
 7133SOL    HW123231   9.675   6.669  13.602
 7133SOL    HW223232   9.714   6.627  13.742
 7134SOL     OW23233   9.529   5.568   5.435
 7134SOL    HW123234   9.598   5.547   5.372
 7134SOL    HW223235   9.572   5.623   5.500
 7135SOL     OW23236  12.416   2.860   3.334
 7135SOL    HW123237  12.436   2.953   3.323
 7135SOL    HW223238  12.320   2.856   3.336
 7136SOL     OW23239  12.380   8.293   4.367
 7136SOL    HW123240  12.392   8.332   4.280
 7136SOL    HW223241  12.443   8.340   4.422
 7137SOL     OW23242  13.658  14.805   7.198
 7137SOL    HW123243  13.671   0.011   7.151
 7137SOL    HW223244  13.606  14.751   7.138
 7138SOL     OW23245   1.525  11.210  11.368
 7138SOL    HW123246   1.525  11.281  11.432
 7138SOL    HW223247   1.611  11.218  11.325
 7139SOL     OW23248   1.341   1.997   8.019
 7139SOL    HW123249   1.371   2.069   7.964
 7139SOL    HW223250   1.419   1.970   8.068
 7140SOL     OW23251   2.449   5.483  14.777
 7140SOL    HW123252   2.505   5.559  14.760
 7140SOL    HW223253   2.386   5.513  14.842
 7141SOL     OW23254   8.084   1.844   4.158
 7141SOL    HW123255   8.114   1.915   4.214
 7141SOL    HW223256   8.054   1.776   4.219
 7142SOL     OW23257   1.082   5.712  13.772
 7142SOL    HW123258   1.109   5.722  13.681
 7142SOL    HW223259   1.154   5.750  13.822
 7143SOL     OW23260   0.753   7.991   9.645
 7143SOL    HW123261   0.815   8.052   9.686
 7143SOL    HW223262   0.669   8.036   9.649
 7144SOL     OW23263   8.154   5.179  12.181
 7144SOL    HW123264   8.134   5.264  12.143
 7144SOL    HW223265   8.116   5.116  12.120
 7145SOL     OW23266  11.818  10.809   8.059
 7145SOL    HW123267  11.818  10.792   7.965
 7145SOL    HW223268  11.837  10.724   8.099
 7146SOL     OW23269   5.345   8.885   1.916
 7146SOL    HW123270   5.319   8.833   1.992
 7146SOL    HW223271   5.421   8.840   1.880
 7147SOL     OW23272   5.791   6.366  13.357
 7147SOL    HW123273   5.854   6.313  13.407
 7147SOL    HW223274   5.706   6.340  13.390
 7148SOL     OW23275   9.729  10.386   6.504
 7148SOL    HW123276   9.752  10.350   6.589
 7148SOL    HW223277   9.637  10.412   6.513
 7149SOL     OW23278   9.911   6.097   1.420
 7149SOL    HW123279   9.933   6.189   1.435
 7149SOL    HW223280   9.832   6.099   1.366
 7150SOL     OW23281   4.807   7.429   6.625
 7150SOL    HW123282   4.798   7.468   6.538
 7150SOL    HW223283   4.831   7.502   6.681
 7151SOL     OW23284   0.758  14.800   6.480
 7151SOL    HW123285   0.790  14.718   6.518
 7151SOL    HW223286   0.767  14.864   6.550
 7152SOL     OW23287  10.959   2.147   3.886
 7152SOL    HW123288  10.968   2.056   3.857
 7152SOL    HW223289  10.924   2.193   3.809
 7153SOL     OW23290  14.789   5.829   1.863
 7153SOL    HW123291  14.845   5.797   1.793
 7153SOL    HW223292  14.769   5.920   1.838
 7154SOL     OW23293  11.314   8.545   9.135
 7154SOL    HW123294  11.348   8.466   9.093
 7154SOL    HW223295  11.242   8.574   9.078
 7155SOL     OW23296  14.245   7.523   0.583
 7155SOL    HW123297  14.186   7.455   0.549
 7155SOL    HW223298  14.259   7.581   0.508
 7156SOL     OW23299  11.026   7.064  14.472
 7156SOL    HW123300  11.040   7.155  14.446
 7156SOL    HW223301  10.967   7.071  14.548
 7157SOL     OW23302   7.188   9.350   8.190
 7157SOL    HW123303   7.140   9.296   8.254
 7157SOL    HW223304   7.178   9.303   8.107
 7158SOL     OW23305   0.095  13.591   0.519
 7158SOL    HW123306   0.035  13.610   0.447
 7158SOL    HW223307   0.181  13.615   0.486
 7159SOL     OW23308  11.775   3.960   1.382
 7159SOL    HW123309  11.867   3.987   1.376
 7159SOL    HW223310  11.737   3.988   1.299
 7160SOL     OW23311  10.744  10.180   0.490
 7160SOL    HW123312  10.664  10.166   0.439
 7160SOL    HW223313  10.763  10.274   0.481
 7161SOL     OW23314   6.924  13.183   8.263
 7161SOL    HW123315   6.918  13.138   8.347
 7161SOL    HW223316   7.017  13.183   8.242
 7162SOL     OW23317  14.565   6.692   0.546
 7162SOL    HW123318  14.472   6.702   0.566
 7162SOL    HW223319  14.574   6.602   0.515
 7163SOL     OW23320   1.658   1.786  13.454
 7163SOL    HW123321   1.598   1.825  13.391
 7163SOL    HW223322   1.609   1.713  13.492
 7164SOL     OW23323   4.046   2.630  12.532
 7164SOL    HW123324   4.141   2.630  12.530
 7164SOL    HW223325   4.021   2.708  12.483
 7165SOL     OW23326   2.551   9.596  13.429
 7165SOL    HW123327   2.558   9.691  13.441
 7165SOL    HW223328   2.635   9.570  13.391
 7166SOL     OW23329  10.065   1.506  12.949
 7166SOL    HW123330  10.109   1.518  12.865
 7166SOL    HW223331  10.046   1.412  12.952
 7167SOL     OW23332   9.684  12.237  11.317
 7167SOL    HW123333   9.713  12.157  11.274
 7167SOL    HW223334   9.722  12.233  11.405
 7168SOL     OW23335   8.771  10.169  11.700
 7168SOL    HW123336   8.848  10.192  11.647
 7168SOL    HW223337   8.806  10.113  11.769
 7169SOL     OW23338   2.949  10.059  13.253
 7169SOL    HW123339   3.004  10.088  13.326
 7169SOL    HW223340   2.996  10.089  13.175
 7170SOL     OW23341   5.126  10.856   6.813
 7170SOL    HW123342   5.155  10.909   6.739
 7170SOL    HW223343   5.206  10.816   6.847
 7171SOL     OW23344   8.508   9.527   5.338
 7171SOL    HW123345   8.531   9.529   5.431
 7171SOL    HW223346   8.416   9.503   5.337
 7172SOL     OW23347   4.817   4.630  14.176
 7172SOL    HW123348   4.825   4.554  14.233
 7172SOL    HW223349   4.887   4.689  14.203
 7173SOL     OW23350   3.062   8.939  12.359
 7173SOL    HW123351   3.148   8.900  12.347
 7173SOL    HW223352   3.079   9.031  12.380
 7174SOL     OW23353  11.772  13.498   8.970
 7174SOL    HW123354  11.780  13.425   8.908
 7174SOL    HW223355  11.855  13.499   9.017
 7175SOL     OW23356   7.922  12.793   0.559
 7175SOL    HW123357   7.994  12.791   0.496
 7175SOL    HW223358   7.880  12.707   0.551
 7176SOL     OW23359  10.430   3.578   5.195
 7176SOL    HW123360  10.506   3.629   5.166
 7176SOL    HW223361  10.377   3.567   5.117
 7177SOL     OW23362   2.557  14.796   8.741
 7177SOL    HW123363   2.595  14.717   8.779
 7177SOL    HW223364   2.633  14.845   8.708
 7178SOL     OW23365   5.273   6.440   1.974
 7178SOL    HW123366   5.245   6.374   1.911
 7178SOL    HW223367   5.321   6.391   2.041
 7179SOL     OW23368   9.541  12.951   1.043
 7179SOL    HW123369   9.619  12.918   1.088
 7179SOL    HW223370   9.468  12.911   1.090
 7180SOL     OW23371  11.867  10.225   8.844
 7180SOL    HW123372  11.807  10.171   8.792
 7180SOL    HW223373  11.874  10.179   8.928
 7181SOL     OW23374  12.931  10.342   6.518
 7181SOL    HW123375  12.914  10.427   6.478
 7181SOL    HW223376  12.899  10.351   6.608
 7182SOL     OW23377  11.365   2.007  11.713
 7182SOL    HW123378  11.326   1.977  11.796
 7182SOL    HW223379  11.316   1.961  11.646
 7183SOL     OW23380   3.201   7.734   7.473
 7183SOL    HW123381   3.138   7.805   7.484
 7183SOL    HW223382   3.279   7.777   7.437
 7184SOL     OW23383   1.074  12.556  12.317
 7184SOL    HW123384   1.122  12.602  12.248
 7184SOL    HW223385   1.013  12.621  12.351
 7185SOL     OW23386   6.120  11.755  10.672
 7185SOL    HW123387   6.171  11.761  10.591
 7185SOL    HW223388   6.185  11.740  10.741
 7186SOL     OW23389  10.746   1.321   5.681
 7186SOL    HW123390  10.783   1.392   5.628
 7186SOL    HW223391  10.813   1.253   5.679
 7187SOL     OW23392  13.615  11.207  14.654
 7187SOL    HW123393  13.654  11.179  14.571
 7187SOL    HW223394  13.525  11.174  14.651
 7188SOL     OW23395   9.865   6.339   0.263
 7188SOL    HW123396   9.889   6.425   0.229
 7188SOL    HW223397   9.770   6.342   0.270
 7189SOL     OW23398  13.703   8.628   1.192
 7189SOL    HW123399  13.740   8.624   1.104
 7189SOL    HW223400  13.767   8.583   1.247
 7190SOL     OW23401   4.405  13.515   6.217
 7190SOL    HW123402   4.363  13.440   6.176
 7190SOL    HW223403   4.499  13.497   6.210
 7191SOL     OW23404   9.605   9.131  14.250
 7191SOL    HW123405   9.556   9.120  14.168
 7191SOL    HW223406   9.614   9.225  14.261
 7192SOL     OW23407   1.902   3.947   7.659
 7192SOL    HW123408   1.844   3.998   7.603
 7192SOL    HW223409   1.865   3.957   7.747
 7193SOL     OW23410  11.303  10.289   0.535
 7193SOL    HW123411  11.257  10.217   0.579
 7193SOL    HW223412  11.250  10.307   0.458
 7194SOL     OW23413  11.029   1.395  10.943
 7194SOL    HW123414  10.987   1.477  10.968
 7194SOL    HW223415  11.122   1.418  10.934
 7195SOL     OW23416  12.152   7.298   1.487
 7195SOL    HW123417  12.188   7.308   1.575
 7195SOL    HW223418  12.228   7.289   1.430
 7196SOL     OW23419   1.493   0.265   2.806
 7196SOL    HW123420   1.555   0.197   2.781
 7196SOL    HW223421   1.480   0.253   2.900
 7197SOL     OW23422   6.691   5.340  11.002
 7197SOL    HW123423   6.602   5.340  10.967
 7197SOL    HW223424   6.729   5.257  10.973
 7198SOL     OW23425   3.871   6.521  11.371
 7198SOL    HW123426   3.959   6.554  11.353
 7198SOL    HW223427   3.860   6.534  11.466
 7199SOL     OW23428   6.885   8.179  14.495
 7199SOL    HW123429   6.950   8.205  14.560
 7199SOL    HW223430   6.910   8.090  14.470
 7200SOL     OW23431  11.799  12.465   7.621
 7200SOL    HW123432  11.799  12.371   7.635
 7200SOL    HW223433  11.847  12.502   7.695
 7201SOL     OW23434  14.731  10.577   5.281
 7201SOL    HW123435  14.721  10.588   5.375
 7201SOL    HW223436  14.750  10.665   5.248
 7202SOL     OW23437   1.475   7.977  12.846
 7202SOL    HW123438   1.459   8.071  12.838
 7202SOL    HW223439   1.537   7.970  12.918
 7203SOL     OW23440   3.980   2.319  14.169
 7203SOL    HW123441   3.981   2.240  14.115
 7203SOL    HW223442   4.041   2.300  14.241
 7204SOL     OW23443   0.544   9.311  10.573
 7204SOL    HW123444   0.479   9.269  10.516
 7204SOL    HW223445   0.504   9.311  10.660
 7205SOL     OW23446   5.183  12.132  13.133
 7205SOL    HW123447   5.210  12.066  13.197
 7205SOL    HW223448   5.126  12.086  13.072
 7206SOL     OW23449  13.806   2.736   8.422
 7206SOL    HW123450  13.794   2.679   8.498
 7206SOL    HW223451  13.879   2.794   8.446
 7207SOL     OW23452  12.053  13.937  12.412
 7207SOL    HW123453  12.035  14.025  12.444
 7207SOL    HW223454  12.120  13.902  12.470
 7208SOL     OW23455  14.404  12.467   8.938
 7208SOL    HW123456  14.447  12.439   8.857
 7208SOL    HW223457  14.451  12.420   9.007
 7209SOL     OW23458   6.785   1.975  10.387
 7209SOL    HW123459   6.714   2.026  10.427
 7209SOL    HW223460   6.740   1.900  10.348
 7210SOL     OW23461   0.688   0.930  12.187
 7210SOL    HW123462   0.784   0.935  12.187
 7210SOL    HW223463   0.669   0.843  12.223
 7211SOL     OW23464  11.364  13.928  10.199
 7211SOL    HW123465  11.425  14.000  10.208
 7211SOL    HW223466  11.294  13.946  10.262
 7212SOL     OW23467  14.190   4.251  13.676
 7212SOL    HW123468  14.128   4.211  13.614
 7212SOL    HW223469  14.194   4.190  13.749
 7213SOL     OW23470   8.454   2.766   8.184
 7213SOL    HW123471   8.488   2.715   8.110
 7213SOL    HW223472   8.409   2.840   8.143
 7214SOL     OW23473   4.217   9.637   3.649
 7214SOL    HW123474   4.122   9.646   3.650
 7214SOL    HW223475   4.243   9.662   3.560
 7215SOL     OW23476   9.490   8.731  10.194
 7215SOL    HW123477   9.518   8.821  10.209
 7215SOL    HW223478   9.545   8.701  10.121
 7216SOL     OW23479   1.139   3.776   4.553
 7216SOL    HW123480   1.184   3.720   4.490
 7216SOL    HW223481   1.046   3.757   4.540
 7217SOL     OW23482   6.509  13.431   5.876
 7217SOL    HW123483   6.485  13.365   5.811
 7217SOL    HW223484   6.591  13.399   5.914
 7218SOL     OW23485   9.529  12.673   3.083
 7218SOL    HW123486   9.453  12.672   3.025
 7218SOL    HW223487   9.494  12.701   3.167
 7219SOL     OW23488   7.629  10.610  13.747
 7219SOL    HW123489   7.685  10.677  13.709
 7219SOL    HW223490   7.688  10.537  13.766
 7220SOL     OW23491   1.859   1.024   3.541
 7220SOL    HW123492   1.928   0.965   3.572
 7220SOL    HW223493   1.806   1.043   3.619
 7221SOL     OW23494  14.822   0.899   9.826
 7221SOL    HW123495  14.801   0.992   9.827
 7221SOL    HW223496   0.040   0.895   9.846
 7222SOL     OW23497  12.844   1.332   7.042
 7222SOL    HW123498  12.780   1.335   7.112
 7222SOL    HW223499  12.915   1.390   7.072
 7223SOL     OW23500  12.257  11.603  10.303
 7223SOL    HW123501  12.300  11.518  10.313
 7223SOL    HW223502  12.167  11.589  10.332
 7224SOL     OW23503  11.609   6.068   8.649
 7224SOL    HW123504  11.657   6.131   8.595
 7224SOL    HW223505  11.588   6.115   8.730
 7225SOL     OW23506  13.375   0.854  10.309
 7225SOL    HW123507  13.452   0.851  10.252
 7225SOL    HW223508  13.309   0.803  10.263
 7226SOL     OW23509   9.214   3.342  11.609
 7226SOL    HW123510   9.282   3.275  11.597
 7226SOL    HW223511   9.141   3.312  11.555
 7227SOL     OW23512   0.973  12.564   6.032
 7227SOL    HW123513   1.028  12.642   6.044
 7227SOL    HW223514   0.884  12.594   6.053
 7228SOL     OW23515   1.003  13.345   5.445
 7228SOL    HW123516   0.923  13.351   5.496
 7228SOL    HW223517   0.974  13.327   5.356
 7229SOL     OW23518   5.182  12.970   6.535
 7229SOL    HW123519   5.099  12.924   6.524
 7229SOL    HW223520   5.245  12.918   6.486
 7230SOL     OW23521   6.361  10.189   8.908
 7230SOL    HW123522   6.445  10.213   8.870
 7230SOL    HW223523   6.380  10.113   8.962
 7231SOL     OW23524   8.735   4.891   7.183
 7231SOL    HW123525   8.793   4.879   7.108
 7231SOL    HW223526   8.707   4.803   7.207
 7232SOL     OW23527  12.260  13.866  12.197
 7232SOL    HW123528  12.183  13.906  12.237
 7232SOL    HW223529  12.225  13.807  12.130
 7233SOL     OW23530   0.691   5.929   3.382
 7233SOL    HW123531   0.759   5.882   3.431
 7233SOL    HW223532   0.711   5.912   3.290
 7234SOL     OW23533   6.364  12.882   1.678
 7234SOL    HW123534   6.406  12.825   1.613
 7234SOL    HW223535   6.433  12.941   1.707
 7235SOL     OW23536  11.256   3.210   2.473
 7235SOL    HW123537  11.342   3.167   2.471
 7235SOL    HW223538  11.197   3.146   2.433
 7236SOL     OW23539   8.885   8.473   0.305
 7236SOL    HW123540   8.805   8.455   0.256
 7236SOL    HW223541   8.949   8.496   0.238
 7237SOL     OW23542   6.744   0.459   8.820
 7237SOL    HW123543   6.750   0.431   8.729
 7237SOL    HW223544   6.691   0.391   8.863
 7238SOL     OW23545  10.531   2.946   3.292
 7238SOL    HW123546  10.539   2.944   3.387
 7238SOL    HW223547  10.620   2.957   3.260
 7239SOL     OW23548  12.888   5.414  12.399
 7239SOL    HW123549  12.863   5.392  12.309
 7239SOL    HW223550  12.912   5.507  12.395
 7240SOL     OW23551   0.621  13.795   5.128
 7240SOL    HW123552   0.547  13.813   5.069
 7240SOL    HW223553   0.606  13.853   5.203
 7241SOL     OW23554  14.381   4.235  14.073
 7241SOL    HW123555  14.391   4.293  14.149
 7241SOL    HW223556  14.455   4.257  14.017
 7242SOL     OW23557   5.459   4.386   6.569
 7242SOL    HW123558   5.452   4.469   6.616
 7242SOL    HW223559   5.506   4.408   6.488
 7243SOL     OW23560   8.890   1.058   1.142
 7243SOL    HW123561   8.895   1.135   1.086
 7243SOL    HW223562   8.972   1.011   1.127
 7244SOL     OW23563  11.468   1.292  13.706
 7244SOL    HW123564  11.422   1.235  13.768
 7244SOL    HW223565  11.509   1.359  13.760
 7245SOL     OW23566   2.696   9.977  11.841
 7245SOL    HW123567   2.616   9.937  11.876
 7245SOL    HW223568   2.703   9.942  11.752
 7246SOL     OW23569  11.692   3.910  10.399
 7246SOL    HW123570  11.686   3.956  10.316
 7246SOL    HW223571  11.735   3.827  10.379
 7247SOL     OW23572   3.643   2.529   5.114
 7247SOL    HW123573   3.718   2.469   5.118
 7247SOL    HW223574   3.570   2.479   5.151
 7248SOL     OW23575   0.250   7.151   3.941
 7248SOL    HW123576   0.333   7.164   3.894
 7248SOL    HW223577   0.184   7.148   3.872
 7249SOL     OW23578   5.420   3.360   1.462
 7249SOL    HW123579   5.486   3.401   1.405
 7249SOL    HW223580   5.374   3.434   1.503
 7250SOL     OW23581  11.743   9.558   2.498
 7250SOL    HW123582  11.785   9.607   2.427
 7250SOL    HW223583  11.814   9.506   2.536
 7251SOL     OW23584   7.052   6.250   3.809
 7251SOL    HW123585   6.984   6.225   3.746
 7251SOL    HW223586   7.003   6.279   3.886
 7252SOL     OW23587   9.216   0.881   6.680
 7252SOL    HW123588   9.287   0.860   6.741
 7252SOL    HW223589   9.229   0.973   6.659
 7253SOL     OW23590   4.134   9.123   9.577
 7253SOL    HW123591   4.073   9.187   9.614
 7253SOL    HW223592   4.178   9.170   9.506
 7254SOL     OW23593   7.379   1.516  13.704
 7254SOL    HW123594   7.316   1.571  13.750
 7254SOL    HW223595   7.464   1.555  13.723
 7255SOL     OW23596   1.639   4.679   2.833
 7255SOL    HW123597   1.605   4.595   2.801
 7255SOL    HW223598   1.734   4.666   2.836
 7256SOL     OW23599  11.044  11.203   1.801
 7256SOL    HW123600  11.055  11.297   1.792
 7256SOL    HW223601  10.949  11.189   1.802
 7257SOL     OW23602   4.936   6.625   9.082
 7257SOL    HW123603   4.918   6.625   8.988
 7257SOL    HW223604   4.955   6.716   9.103
 7258SOL     OW23605   7.639  10.300   5.070
 7258SOL    HW123606   7.611  10.208   5.064
 7258SOL    HW223607   7.613  10.338   4.986
 7259SOL     OW23608   1.406   3.556  13.847
 7259SOL    HW123609   1.456   3.478  13.869
 7259SOL    HW223610   1.366   3.536  13.763
 7260SOL     OW23611   8.550  14.319  11.725
 7260SOL    HW123612   8.589  14.403  11.700
 7260SOL    HW223613   8.588  14.256  11.665
 7261SOL     OW23614   1.512   2.165  10.859
 7261SOL    HW123615   1.596   2.205  10.881
 7261SOL    HW223616   1.450   2.238  10.855
 7262SOL     OW23617  11.520   1.083   3.289
 7262SOL    HW123618  11.527   1.121   3.201
 7262SOL    HW223619  11.541   0.991   3.278
 7263SOL     OW23620   6.935  13.778  12.479
 7263SOL    HW123621   6.960  13.691  12.450
 7263SOL    HW223622   6.936  13.832  12.399
 7264SOL     OW23623   3.115   4.891   4.718
 7264SOL    HW123624   3.035   4.838   4.713
 7264SOL    HW223625   3.093   4.972   4.671
 7265SOL     OW23626   8.190   1.713   8.254
 7265SOL    HW123627   8.240   1.711   8.173
 7265SOL    HW223628   8.193   1.624   8.287
 7266SOL     OW23629   0.917   3.921   4.807
 7266SOL    HW123630   0.834   3.966   4.792
 7266SOL    HW223631   0.974   3.987   4.845
 7267SOL     OW23632   2.146   6.860   0.089
 7267SOL    HW123633   2.064   6.869   0.138
 7267SOL    HW223634   2.205   6.816   0.149
 7268SOL     OW23635  11.768   9.217   3.814
 7268SOL    HW123636  11.701   9.249   3.875
 7268SOL    HW223637  11.731   9.137   3.778
 7269SOL     OW23638   5.337   6.373  10.122
 7269SOL    HW123639   5.254   6.413  10.147
 7269SOL    HW223640   5.314   6.310  10.053
 7270SOL     OW23641   5.272   5.836   7.204
 7270SOL    HW123642   5.201   5.780   7.236
 7270SOL    HW223643   5.258   5.920   7.249
 7271SOL     OW23644   8.214  12.808   5.532
 7271SOL    HW123645   8.277  12.838   5.467
 7271SOL    HW223646   8.201  12.715   5.512
 7272SOL     OW23647   7.216   5.480   9.298
 7272SOL    HW123648   7.217   5.406   9.238
 7272SOL    HW223649   7.189   5.442   9.382
 7273SOL     OW23650   0.920  12.409  10.790
 7273SOL    HW123651   0.875  12.474  10.736
 7273SOL    HW223652   1.004  12.449  10.811
 7274SOL     OW23653   3.115   3.562  10.300
 7274SOL    HW123654   3.098   3.621  10.374
 7274SOL    HW223655   3.197   3.519  10.322
 7275SOL     OW23656   4.126   5.005   9.434
 7275SOL    HW123657   4.082   4.962   9.360
 7275SOL    HW223658   4.054   5.037   9.488
 7276SOL     OW23659   1.828   1.311   9.197
 7276SOL    HW123660   1.876   1.253   9.256
 7276SOL    HW223661   1.866   1.296   9.111
 7277SOL     OW23662   9.279  12.980   7.956
 7277SOL    HW123663   9.369  12.949   7.968
 7277SOL    HW223664   9.284  13.045   7.886
 7278SOL     OW23665   1.923   8.111   8.475
 7278SOL    HW123666   1.955   8.184   8.422
 7278SOL    HW223667   1.873   8.058   8.412
 7279SOL     OW23668   2.519   5.300   6.422
 7279SOL    HW123669   2.601   5.257   6.397
 7279SOL    HW223670   2.537   5.338   6.508
 7280SOL     OW23671   7.749  10.541  12.557
 7280SOL    HW123672   7.834  10.564  12.594
 7280SOL    HW223673   7.721  10.619  12.510
 7281SOL     OW23674   8.749   1.693   1.127
 7281SOL    HW123675   8.674   1.715   1.182
 7281SOL    HW223676   8.710   1.673   1.042
 7282SOL     OW23677   8.008   9.314   1.097
 7282SOL    HW123678   7.997   9.331   1.190
 7282SOL    HW223679   7.965   9.230   1.083
 7283SOL     OW23680   4.801  10.897   3.405
 7283SOL    HW123681   4.862  10.846   3.352
 7283SOL    HW223682   4.737  10.930   3.342
 7284SOL     OW23683   7.673   5.584   4.905
 7284SOL    HW123684   7.584   5.555   4.887
 7284SOL    HW223685   7.711   5.599   4.818
 7285SOL     OW23686  14.774   5.423  11.390
 7285SOL    HW123687  14.796   5.483  11.319
 7285SOL    HW223688  14.817   5.341  11.366
 7286SOL     OW23689  12.744   4.628  14.789
 7286SOL    HW123690  12.721   4.720  14.780
 7286SOL    HW223691  12.725   4.589  14.704
 7287SOL     OW23692  14.114  11.472   0.378
 7287SOL    HW123693  14.075  11.410   0.315
 7287SOL    HW223694  14.083  11.558   0.349
 7288SOL     OW23695  13.697   1.160   6.916
 7288SOL    HW123696  13.668   1.159   6.824
 7288SOL    HW223697  13.672   1.074   6.949
 7289SOL     OW23698  12.789  11.800  12.543
 7289SOL    HW123699  12.761  11.873  12.599
 7289SOL    HW223700  12.713  11.742  12.539
 7290SOL     OW23701   2.527  10.780   6.274
 7290SOL    HW123702   2.461  10.827   6.222
 7290SOL    HW223703   2.483  10.699   6.300
 7291SOL     OW23704  11.959  10.424   2.345
 7291SOL    HW123705  11.955  10.339   2.299
 7291SOL    HW223706  12.008  10.481   2.286
 7292SOL     OW23707  10.580   1.236   8.256
 7292SOL    HW123708  10.668   1.223   8.292
 7292SOL    HW223709  10.595   1.257   8.164
 7293SOL     OW23710   1.373  13.851  13.194
 7293SOL    HW123711   1.402  13.769  13.155
 7293SOL    HW223712   1.422  13.857  13.276
 7294SOL     OW23713   4.072   6.344   3.597
 7294SOL    HW123714   4.006   6.293   3.644
 7294SOL    HW223715   4.084   6.297   3.515
 7295SOL     OW23716  11.988   8.709  14.716
 7295SOL    HW123717  11.970   8.701  14.810
 7295SOL    HW223718  12.069   8.661  14.703
 7296SOL     OW23719   4.460   2.246  12.577
 7296SOL    HW123720   4.451   2.151  12.591
 7296SOL    HW223721   4.492   2.279  12.661
 7297SOL     OW23722  11.664  14.656  12.356
 7297SOL    HW123723  11.740  14.599  12.347
 7297SOL    HW223724  11.623  14.627  12.438
 7298SOL     OW23725   7.943   7.440  13.941
 7298SOL    HW123726   7.858   7.471  13.907
 7298SOL    HW223727   7.920   7.368  13.999
 7299SOL     OW23728   2.032   2.546  11.951
 7299SOL    HW123729   2.095   2.565  11.881
 7299SOL    HW223730   2.059   2.461  11.985
 7300SOL     OW23731   9.483   0.315   9.900
 7300SOL    HW123732   9.419   0.386   9.890
 7300SOL    HW223733   9.564   0.360   9.926
 7301SOL     OW23734   0.484   4.013  11.967
 7301SOL    HW123735   0.403   3.965  11.982
 7301SOL    HW223736   0.518   3.979  11.884
 7302SOL     OW23737   5.114   4.698   4.941
 7302SOL    HW123738   5.111   4.644   5.021
 7302SOL    HW223739   5.037   4.754   4.948
 7303SOL     OW23740  11.397  12.083   4.111
 7303SOL    HW123741  11.356  12.102   4.027
 7303SOL    HW223742  11.335  12.115   4.176
 7304SOL     OW23743  14.678   4.003   4.523
 7304SOL    HW123744  14.640   4.002   4.611
 7304SOL    HW223745  14.768   4.034   4.536
 7305SOL     OW23746  11.278   2.672   2.811
 7305SOL    HW123747  11.220   2.653   2.885
 7305SOL    HW223748  11.266   2.598   2.752
 7306SOL     OW23749   8.806   0.342   6.686
 7306SOL    HW123750   8.843   0.427   6.709
 7306SOL    HW223751   8.875   0.279   6.707
 7307SOL     OW23752   8.717   4.370   4.282
 7307SOL    HW123753   8.745   4.279   4.292
 7307SOL    HW223754   8.791   4.412   4.237
 7308SOL     OW23755   2.080  12.337  14.181
 7308SOL    HW123756   2.147  12.287  14.229
 7308SOL    HW223757   2.003  12.335  14.237
 7309SOL     OW23758  14.825   1.415   2.929
 7309SOL    HW123759  14.861   1.327   2.921
 7309SOL    HW223760  14.767   1.425   2.854
 7310SOL     OW23761   4.934  13.728   5.461
 7310SOL    HW123762   4.934  13.638   5.429
 7310SOL    HW223763   4.869  13.773   5.406
 7311SOL     OW23764   0.113  13.314  11.536
 7311SOL    HW123765   0.207  13.300  11.549
 7311SOL    HW223766   0.072  13.270  11.611
 7312SOL     OW23767   7.701   9.964   6.062
 7312SOL    HW123768   7.712   9.967   6.157
 7312SOL    HW223769   7.790   9.954   6.028
 7313SOL     OW23770  11.995  12.064   2.430
 7313SOL    HW123771  12.079  12.061   2.477
 7313SOL    HW223772  11.989  12.154   2.398
 7314SOL     OW23773   2.743   8.265   9.537
 7314SOL    HW123774   2.673   8.207   9.568
 7314SOL    HW223775   2.702   8.352   9.534
 7315SOL     OW23776   8.225   7.766  10.856
 7315SOL    HW123777   8.218   7.690  10.914
 7315SOL    HW223778   8.163   7.830  10.892
 7316SOL     OW23779   9.013   1.962   7.411
 7316SOL    HW123780   8.920   1.963   7.433
 7316SOL    HW223781   9.057   1.992   7.490
 7317SOL     OW23782   0.733   2.222   8.122
 7317SOL    HW123783   0.645   2.249   8.097
 7317SOL    HW223784   0.783   2.227   8.040
 7318SOL     OW23785   6.980   7.348   0.710
 7318SOL    HW123786   7.021   7.262   0.701
 7318SOL    HW223787   6.912   7.334   0.776
 7319SOL     OW23788   7.828   5.348   2.366
 7319SOL    HW123789   7.817   5.408   2.292
 7319SOL    HW223790   7.859   5.267   2.326
 7320SOL     OW23791  13.897  14.824   6.065
 7320SOL    HW123792  13.869   0.008   5.995
 7320SOL    HW223793  13.990  14.812   6.049
 7321SOL     OW23794  10.433   1.453   8.479
 7321SOL    HW123795  10.353   1.444   8.428
 7321SOL    HW223796  10.502   1.415   8.425
 7322SOL     OW23797  12.128  12.825  14.448
 7322SOL    HW123798  12.141  12.912  14.410
 7322SOL    HW223799  12.094  12.842  14.536
 7323SOL     OW23800   8.364  12.306  12.202
 7323SOL    HW123801   8.359  12.328  12.110
 7323SOL    HW223802   8.298  12.362  12.244
 7324SOL     OW23803   1.863  10.023   5.948
 7324SOL    HW123804   1.896   9.937   5.921
 7324SOL    HW223805   1.848  10.014   6.042
 7325SOL     OW23806   4.165   8.572   0.765
 7325SOL    HW123807   4.205   8.653   0.798
 7325SOL    HW223808   4.175   8.578   0.669
 7326SOL     OW23809   6.131  10.022   2.467
 7326SOL    HW123810   6.125  10.031   2.562
 7326SOL    HW223811   6.044  10.047   2.436
 7327SOL     OW23812   7.327   4.224   9.671
 7327SOL    HW123813   7.290   4.136   9.670
 7327SOL    HW223814   7.257   4.281   9.640
 7328SOL     OW23815  13.867   2.957  10.429
 7328SOL    HW123816  13.802   2.888  10.419
 7328SOL    HW223817  13.946   2.923  10.387
 7329SOL     OW23818   3.298  14.867  13.870
 7329SOL    HW123819   3.258  14.833  13.950
 7329SOL    HW223820   3.388   0.012  13.895
 7330SOL     OW23821   0.980   0.278   2.958
 7330SOL    HW123822   0.930   0.252   2.881
 7330SOL    HW223823   1.057   0.322   2.923
 7331SOL     OW23824   3.962   1.081   2.745
 7331SOL    HW123825   3.915   1.074   2.828
 7331SOL    HW223826   4.036   1.139   2.764
 7332SOL     OW23827   1.763   7.431   5.829
 7332SOL    HW123828   1.841   7.397   5.786
 7332SOL    HW223829   1.745   7.513   5.783
 7333SOL     OW23830   1.879   8.352  11.512
 7333SOL    HW123831   1.919   8.427  11.557
 7333SOL    HW223832   1.785   8.363  11.526
 7334SOL     OW23833   8.894   1.747  10.009
 7334SOL    HW123834   8.923   1.655  10.012
 7334SOL    HW223835   8.802   1.744  10.033
 7335SOL     OW23836   2.390   0.646  10.763
 7335SOL    HW123837   2.414   0.612  10.850
 7335SOL    HW223838   2.460   0.709  10.742
 7336SOL     OW23839   3.975  13.643   7.768
 7336SOL    HW123840   3.968  13.550   7.747
 7336SOL    HW223841   4.010  13.646   7.857
 7337SOL     OW23842  12.511   9.134   1.253
 7337SOL    HW123843  12.463   9.056   1.282
 7337SOL    HW223844  12.446   9.204   1.253
 7338SOL     OW23845  12.435  12.684   2.170
 7338SOL    HW123846  12.527  12.711   2.165
 7338SOL    HW223847  12.419  12.641   2.086
 7339SOL     OW23848   8.092   0.187   5.631
 7339SOL    HW123849   8.046   0.270   5.614
 7339SOL    HW223850   8.026   0.130   5.668
 7340SOL     OW23851   0.513   9.461   3.558
 7340SOL    HW123852   0.578   9.529   3.577
 7340SOL    HW223853   0.470   9.445   3.642
 7341SOL     OW23854  12.610   0.129   4.657
 7341SOL    HW123855  12.575   0.156   4.742
 7341SOL    HW223856  12.560   0.050   4.636
 7342SOL     OW23857   3.350  10.575  11.477
 7342SOL    HW123858   3.364  10.529  11.394
 7342SOL    HW223859   3.426  10.553  11.530
 7343SOL     OW23860   8.534  14.336   2.999
 7343SOL    HW123861   8.496  14.424   3.005
 7343SOL    HW223862   8.578  14.335   2.914
 7344SOL     OW23863   9.220   2.845  10.365
 7344SOL    HW123864   9.179   2.770  10.321
 7344SOL    HW223865   9.306   2.812  10.391
 7345SOL     OW23866   6.910   3.700   9.591
 7345SOL    HW123867   6.847   3.630   9.576
 7345SOL    HW223868   6.985   3.678   9.535
 7346SOL     OW23869   2.166  13.251   5.969
 7346SOL    HW123870   2.161  13.188   5.896
 7346SOL    HW223871   2.154  13.198   6.047
 7347SOL     OW23872   2.184  10.135   8.116
 7347SOL    HW123873   2.143  10.070   8.059
 7347SOL    HW223874   2.252  10.175   8.063
 7348SOL     OW23875   9.617   9.989   2.359
 7348SOL    HW123876   9.692   9.930   2.360
 7348SOL    HW223877   9.572   9.973   2.441
 7349SOL     OW23878   1.510  14.623   3.887
 7349SOL    HW123879   1.507  14.599   3.980
 7349SOL    HW223880   1.502  14.718   3.886
 7350SOL     OW23881   7.453   2.519   9.084
 7350SOL    HW123882   7.428   2.585   9.148
 7350SOL    HW223883   7.480   2.444   9.137
 7351SOL     OW23884   2.247   8.122  14.341
 7351SOL    HW123885   2.340   8.144  14.344
 7351SOL    HW223886   2.244   8.028  14.357
 7352SOL     OW23887  14.211  13.663   0.687
 7352SOL    HW123888  14.200  13.575   0.723
 7352SOL    HW223889  14.133  13.677   0.634
 7353SOL     OW23890  14.306   0.497   5.120
 7353SOL    HW123891  14.377   0.548   5.081
 7353SOL    HW223892  14.324   0.407   5.095
 7354SOL     OW23893   3.945   8.354   6.896
 7354SOL    HW123894   3.995   8.379   6.973
 7354SOL    HW223895   3.869   8.412   6.897
 7355SOL     OW23896   8.672   3.678   5.045
 7355SOL    HW123897   8.628   3.668   5.129
 7355SOL    HW223898   8.697   3.770   5.041
 7356SOL     OW23899   2.412  11.063  14.310
 7356SOL    HW123900   2.366  11.024  14.235
 7356SOL    HW223901   2.476  11.122  14.272
 7357SOL     OW23902   2.421   9.890   2.950
 7357SOL    HW123903   2.489   9.914   3.012
 7357SOL    HW223904   2.441   9.799   2.927
 7358SOL     OW23905   3.792  14.299   5.302
 7358SOL    HW123906   3.771  14.270   5.391
 7358SOL    HW223907   3.867  14.244   5.277
 7359SOL     OW23908   4.153   4.171   4.363
 7359SOL    HW123909   4.096   4.110   4.409
 7359SOL    HW223910   4.107   4.255   4.367
 7360SOL     OW23911  10.263   2.645   8.659
 7360SOL    HW123912  10.301   2.680   8.740
 7360SOL    HW223913  10.294   2.555   8.655
 7361SOL     OW23914   4.240   8.170   1.618
 7361SOL    HW123915   4.171   8.113   1.585
 7361SOL    HW223916   4.194   8.248   1.650
 7362SOL     OW23917  14.103   6.449   7.216
 7362SOL    HW123918  14.029   6.412   7.263
 7362SOL    HW223919  14.078   6.540   7.200
 7363SOL     OW23920  11.360   9.917   8.510
 7363SOL    HW123921  11.417   9.880   8.442
 7363SOL    HW223922  11.413   9.911   8.590
 7364SOL     OW23923   0.149   1.630   1.083
 7364SOL    HW123924   0.140   1.621   0.988
 7364SOL    HW223925   0.087   1.699   1.107
 7365SOL     OW23926   8.509  12.074   9.482
 7365SOL    HW123927   8.442  12.029   9.430
 7365SOL    HW223928   8.461  12.108   9.557
 7366SOL     OW23929  10.611   7.104  13.770
 7366SOL    HW123930  10.707   7.102  13.768
 7366SOL    HW223931  10.586   7.015  13.794
 7367SOL     OW23932  14.502   6.314   5.622
 7367SOL    HW123933  14.513   6.370   5.699
 7367SOL    HW223934  14.591   6.303   5.588
 7368SOL     OW23935   2.439   1.778  10.250
 7368SOL    HW123936   2.388   1.731  10.183
 7368SOL    HW223937   2.506   1.825  10.200
 7369SOL     OW23938   7.636   8.426   7.915
 7369SOL    HW123939   7.723   8.418   7.953
 7369SOL    HW223940   7.600   8.338   7.919
 7370SOL     OW23941   0.899   5.100  12.544
 7370SOL    HW123942   0.847   5.031  12.502
 7370SOL    HW223943   0.930   5.154  12.472
 7371SOL     OW23944  12.509   0.217   3.656
 7371SOL    HW123945  12.565   0.225   3.579
 7371SOL    HW223946  12.471   0.304   3.668
 7372SOL     OW23947  12.051   3.779   0.186
 7372SOL    HW123948  12.044   3.814   0.097
 7372SOL    HW223949  11.962   3.783   0.221
 7373SOL     OW23950  10.801  11.175   7.880
 7373SOL    HW123951  10.792  11.091   7.834
 7373SOL    HW223952  10.880  11.164   7.934
 7374SOL     OW23953   8.817   4.625  14.345
 7374SOL    HW123954   8.819   4.720  14.334
 7374SOL    HW223955   8.869   4.591  14.272
 7375SOL     OW23956  11.361  13.021   5.797
 7375SOL    HW123957  11.332  13.052   5.711
 7375SOL    HW223958  11.289  12.968   5.829
 7376SOL     OW23959   9.279   2.641  14.203
 7376SOL    HW123960   9.258   2.547  14.202
 7376SOL    HW223961   9.227   2.676  14.275
 7377SOL     OW23962  14.264  14.847  13.846
 7377SOL    HW123963  14.284  14.859  13.938
 7377SOL    HW223964  14.280   0.056  13.805
 7378SOL     OW23965   3.422   4.971  12.843
 7378SOL    HW123966   3.347   5.028  12.829
 7378SOL    HW223967   3.485   4.996  12.775
 7379SOL     OW23968   6.388  12.137   8.583
 7379SOL    HW123969   6.449  12.086   8.636
 7379SOL    HW223970   6.408  12.113   8.493
 7380SOL     OW23971   6.269   0.867   6.775
 7380SOL    HW123972   6.300   0.779   6.753
 7380SOL    HW223973   6.215   0.892   6.700
 7381SOL     OW23974   6.901   3.106  14.654
 7381SOL    HW123975   6.811   3.137  14.660
 7381SOL    HW223976   6.938   3.152  14.579
 7382SOL     OW23977   9.561   6.577   8.911
 7382SOL    HW123978   9.550   6.522   8.833
 7382SOL    HW223979   9.537   6.665   8.882
 7383SOL     OW23980   7.381   2.303   6.585
 7383SOL    HW123981   7.453   2.322   6.525
 7383SOL    HW223982   7.341   2.388   6.603
 7384SOL     OW23983   7.435   1.638  11.959
 7384SOL    HW123984   7.371   1.567  11.948
 7384SOL    HW223985   7.385   1.709  12.000
 7385SOL     OW23986  14.560   9.987   6.028
 7385SOL    HW123987  14.617   9.914   6.005
 7385SOL    HW223988  14.547   9.980   6.122
 7386SOL     OW23989  13.838   2.599   0.311
 7386SOL    HW123990  13.830   2.528   0.248
 7386SOL    HW223991  13.920   2.642   0.287
 7387SOL     OW23992   8.899   3.445   6.659
 7387SOL    HW123993   8.889   3.532   6.621
 7387SOL    HW223994   8.811   3.406   6.652
 7388SOL     OW23995   3.374  14.131   1.661
 7388SOL    HW123996   3.283  14.146   1.684
 7388SOL    HW223997   3.382  14.160   1.571
 7389SOL     OW23998   7.895   1.000   7.409
 7389SOL    HW123999   7.892   1.068   7.477
 7389SOL    HW224000   7.870   1.046   7.329
 7390SOL     OW24001   2.838   8.404   6.698
 7390SOL    HW124002   2.774   8.360   6.754
 7390SOL    HW224003   2.800   8.490   6.680
 7391SOL     OW24004  11.780  11.734   9.648
 7391SOL    HW124005  11.819  11.789   9.715
 7391SOL    HW224006  11.849  11.725   9.582
 7392SOL     OW24007   2.231  11.987   3.141
 7392SOL    HW124008   2.138  11.993   3.163
 7392SOL    HW224009   2.236  11.918   3.074
 7393SOL     OW24010  14.396  12.619   0.106
 7393SOL    HW124011  14.486  12.650   0.116
 7393SOL    HW224012  14.404  12.526   0.087
 7394SOL     OW24013  13.399   5.616  13.751
 7394SOL    HW124014  13.453   5.583  13.823
 7394SOL    HW224015  13.421   5.561  13.676
 7395SOL     OW24016  13.499  10.452  12.299
 7395SOL    HW124017  13.565  10.444  12.230
 7395SOL    HW224018  13.438  10.381  12.282
 7396SOL     OW24019   1.309  14.335   9.022
 7396SOL    HW124020   1.372  14.305   8.957
 7396SOL    HW224021   1.226  14.342   8.974
 7397SOL     OW24022   7.685   5.478   4.494
 7397SOL    HW124023   7.661   5.557   4.541
 7397SOL    HW224024   7.780   5.485   4.482
 7398SOL     OW24025   7.282   8.876   6.969
 7398SOL    HW124026   7.204   8.919   7.005
 7398SOL    HW224027   7.309   8.932   6.896
 7399SOL     OW24028   2.720  14.087  12.116
 7399SOL    HW124029   2.779  14.074  12.190
 7399SOL    HW224030   2.666  14.162  12.141
 7400SOL     OW24031   7.622   1.001   1.129
 7400SOL    HW124032   7.580   1.086   1.138
 7400SOL    HW224033   7.665   1.003   1.044
 7401SOL     OW24034  10.138  10.149  10.447
 7401SOL    HW124035  10.215  10.153  10.391
 7401SOL    HW224036  10.168  10.183  10.532
 7402SOL     OW24037   8.028   4.838  13.986
 7402SOL    HW124038   7.953   4.843  13.926
 7402SOL    HW224039   8.005   4.768  14.047
 7403SOL     OW24040  11.684  11.959  14.610
 7403SOL    HW124041  11.636  12.038  14.586
 7403SOL    HW224042  11.712  11.974  14.701
 7404SOL     OW24043   5.521   2.876  12.523
 7404SOL    HW124044   5.523   2.784  12.549
 7404SOL    HW224045   5.433   2.889  12.487
 7405SOL     OW24046  11.377  12.258   6.143
 7405SOL    HW124047  11.289  12.282   6.172
 7405SOL    HW224048  11.428  12.338   6.152
 7406SOL     OW24049  14.440  11.476   0.673
 7406SOL    HW124050  14.382  11.401   0.656
 7406SOL    HW224051  14.389  11.532   0.732
 7407SOL     OW24052  14.681  11.683  11.755
 7407SOL    HW124053  14.689  11.686  11.851
 7407SOL    HW224054  14.750  11.741  11.724
 7408SOL     OW24055  11.162  10.954   4.676
 7408SOL    HW124056  11.110  11.028   4.709
 7408SOL    HW224057  11.099  10.882   4.670
 7409SOL     OW24058  10.301  13.413   8.234
 7409SOL    HW124059  10.343  13.366   8.306
 7409SOL    HW224060  10.373  13.459   8.191
 7410SOL     OW24061  10.398   7.200   7.452
 7410SOL    HW124062  10.451   7.268   7.411
 7410SOL    HW224063  10.462   7.139   7.489
 7411SOL     OW24064   7.806  10.220  13.352
 7411SOL    HW124065   7.844  10.194  13.436
 7411SOL    HW224066   7.770  10.308  13.367
 7412SOL     OW24067   3.343   9.432  12.573
 7412SOL    HW124068   3.363   9.452  12.482
 7412SOL    HW224069   3.279   9.361  12.569
 7413SOL     OW24070   6.868  13.143   2.234
 7413SOL    HW124071   6.890  13.071   2.175
 7413SOL    HW224072   6.772  13.142   2.238
 7414SOL     OW24073   5.174   3.149   1.460
 7414SOL    HW124074   5.184   3.236   1.422
 7414SOL    HW224075   5.257   3.133   1.506
 7415SOL     OW24076  10.403   1.994   9.487
 7415SOL    HW124077  10.392   2.085   9.460
 7415SOL    HW224078  10.476   1.962   9.434
 7416SOL     OW24079   9.275   0.831   5.033
 7416SOL    HW124080   9.237   0.889   5.099
 7416SOL    HW224081   9.246   0.867   4.949
 7417SOL     OW24082   6.551   5.165  11.264
 7417SOL    HW124083   6.596   5.104  11.323
 7417SOL    HW224084   6.600   5.247  11.273
 7418SOL     OW24085  10.026  10.411   3.172
 7418SOL    HW124086  10.005  10.400   3.265
 7418SOL    HW224087  10.051  10.323   3.143
 7419SOL     OW24088   9.609   3.068   1.008
 7419SOL    HW124089   9.643   3.157   1.011
 7419SOL    HW224090   9.678   3.015   1.047
 7420SOL     OW24091   5.399   7.042  12.269
 7420SOL    HW124092   5.461   7.007  12.205
 7420SOL    HW224093   5.314   7.037  12.224
 7421SOL     OW24094   6.757   6.159  14.138
 7421SOL    HW124095   6.703   6.082  14.160
 7421SOL    HW224096   6.768   6.205  14.221
 7422SOL     OW24097   1.794   3.515   5.196
 7422SOL    HW124098   1.838   3.477   5.121
 7422SOL    HW224099   1.789   3.444   5.260
 7423SOL     OW24100   7.666  11.255   9.745
 7423SOL    HW124101   7.592  11.211   9.704
 7423SOL    HW224102   7.737  11.190   9.743
 7424SOL     OW24103   8.497   5.423   0.091
 7424SOL    HW124104   8.500   5.331   0.065
 7424SOL    HW224105   8.415   5.432   0.140
 7425SOL     OW24106   9.805   0.581   1.901
 7425SOL    HW124107   9.727   0.624   1.867
 7425SOL    HW224108   9.817   0.619   1.988
 7426SOL     OW24109   2.540   7.108   7.285
 7426SOL    HW124110   2.590   7.189   7.290
 7426SOL    HW224111   2.503   7.108   7.197
 7427SOL     OW24112   4.105  10.373   6.014
 7427SOL    HW124113   4.068  10.330   5.937
 7427SOL    HW224114   4.055  10.454   6.023
 7428SOL     OW24115   2.037  10.963   1.335
 7428SOL    HW124116   2.108  11.003   1.284
 7428SOL    HW224117   2.047  10.999   1.423
 7429SOL     OW24118   2.721   3.689   8.051
 7429SOL    HW124119   2.677   3.672   8.134
 7429SOL    HW224120   2.666   3.755   8.008
 7430SOL     OW24121  10.356   3.361   9.699
 7430SOL    HW124122  10.314   3.437   9.737
 7430SOL    HW224123  10.312   3.286   9.738
 7431SOL     OW24124   2.350   7.417   9.879
 7431SOL    HW124125   2.280   7.482   9.884
 7431SOL    HW224126   2.430   7.469   9.869
 7432SOL     OW24127  12.044   7.167  14.197
 7432SOL    HW124128  12.024   7.244  14.144
 7432SOL    HW224129  12.095   7.201  14.271
 7433SOL     OW24130   7.641  10.674   1.253
 7433SOL    HW124131   7.656  10.609   1.322
 7433SOL    HW224132   7.724  10.679   1.206
 7434SOL     OW24133   6.539  13.584  10.372
 7434SOL    HW124134   6.499  13.614  10.290
 7434SOL    HW224135   6.470  13.595  10.437
 7435SOL     OW24136   6.281   7.354   8.059
 7435SOL    HW124137   6.291   7.443   8.024
 7435SOL    HW224138   6.360   7.340   8.111
 7436SOL     OW24139   3.112   4.266   0.703
 7436SOL    HW124140   3.140   4.357   0.699
 7436SOL    HW224141   3.021   4.270   0.731
 7437SOL     OW24142   4.987   5.203   0.243
 7437SOL    HW124143   4.913   5.144   0.258
 7437SOL    HW224144   5.037   5.200   0.324
 7438SOL     OW24145  10.072   2.456   3.997
 7438SOL    HW124146  10.130   2.381   3.993
 7438SOL    HW224147  10.106   2.517   3.932
 7439SOL     OW24148   6.372   6.807   5.633
 7439SOL    HW124149   6.409   6.751   5.565
 7439SOL    HW224150   6.429   6.883   5.636
 7440SOL     OW24151   8.882   2.102   7.769
 7440SOL    HW124152   8.824   2.174   7.743
 7440SOL    HW224153   8.862   2.088   7.861
 7441SOL     OW24154  14.758  13.497   8.001
 7441SOL    HW124155  14.760  13.403   8.020
 7441SOL    HW224156  14.708  13.535   8.073
 7442SOL     OW24157   6.769   3.804  14.502
 7442SOL    HW124158   6.789   3.825  14.411
 7442SOL    HW224159   6.707   3.871  14.530
 7443SOL     OW24160  13.328   9.096  11.434
 7443SOL    HW124161  13.298   9.006  11.421
 7443SOL    HW224162  13.423   9.091  11.431
 7444SOL     OW24163  13.551   8.204   0.932
 7444SOL    HW124164  13.521   8.125   0.887
 7444SOL    HW224165  13.474   8.260   0.937
 7445SOL     OW24166   7.310   1.259   7.367
 7445SOL    HW124167   7.337   1.331   7.309
 7445SOL    HW224168   7.345   1.284   7.453
 7446SOL     OW24169  11.024   1.901   3.745
 7446SOL    HW124170  11.029   1.808   3.766
 7446SOL    HW224171  11.115   1.928   3.731
 7447SOL     OW24172  14.472   2.471  13.504
 7447SOL    HW124173  14.391   2.444  13.548
 7447SOL    HW224174  14.450   2.557  13.466
 7448SOL     OW24175  14.551  13.961   1.783
 7448SOL    HW124176  14.534  13.881   1.833
 7448SOL    HW224177  14.603  14.015   1.842
 7449SOL     OW24178  14.731   7.308  12.675
 7449SOL    HW124179  14.793   7.364  12.722
 7449SOL    HW224180  14.715   7.354  12.593
 7450SOL     OW24181  14.096  11.270   6.894
 7450SOL    HW124182  14.059  11.300   6.977
 7450SOL    HW224183  14.117  11.351   6.847
 7451SOL     OW24184  10.034   4.443   3.358
 7451SOL    HW124185   9.993   4.465   3.442
 7451SOL    HW224186  10.011   4.516   3.301
 7452SOL     OW24187   7.951   7.284   0.200
 7452SOL    HW124188   7.992   7.226   0.137
 7452SOL    HW224189   7.878   7.234   0.236
 7453SOL     OW24190   3.888   9.151   4.046
 7453SOL    HW124191   3.809   9.142   4.100
 7453SOL    HW224192   3.911   9.243   4.052
 7454SOL     OW24193  11.243   1.611   5.850
 7454SOL    HW124194  11.218   1.689   5.899
 7454SOL    HW224195  11.339   1.618   5.843
 7455SOL     OW24196   9.135  10.661   4.947
 7455SOL    HW124197   9.041  10.671   4.931
 7455SOL    HW224198   9.164  10.750   4.968
 7456SOL     OW24199   6.166   1.051  14.842
 7456SOL    HW124200   6.080   1.009  14.838
 7456SOL    HW224201   6.153   1.125   0.026
 7457SOL     OW24202  13.092   7.462  13.638
 7457SOL    HW124203  13.063   7.433  13.552
 7457SOL    HW224204  13.032   7.419  13.699
 7458SOL     OW24205   3.047   5.194   5.601
 7458SOL    HW124206   3.135   5.227   5.619
 7458SOL    HW224207   3.001   5.266   5.558
 7459SOL     OW24208   5.187   4.016   8.122
 7459SOL    HW124209   5.103   4.062   8.115
 7459SOL    HW224210   5.246   4.067   8.066
 7460SOL     OW24211  14.688  11.645  10.930
 7460SOL    HW124212  14.638  11.619  11.007
 7460SOL    HW224213  14.736  11.567  10.904
 7461SOL     OW24214   7.631  11.671   8.430
 7461SOL    HW124215   7.570  11.617   8.380
 7461SOL    HW224216   7.589  11.680   8.516
 7462SOL     OW24217   1.114  13.343   7.112
 7462SOL    HW124218   1.104  13.250   7.129
 7462SOL    HW224219   1.206  13.354   7.089
 7463SOL     OW24220   5.191  11.815   2.964
 7463SOL    HW124221   5.246  11.781   2.893
 7463SOL    HW224222   5.172  11.738   3.018
 7464SOL     OW24223   6.679  10.561   6.645
 7464SOL    HW124224   6.628  10.568   6.565
 7464SOL    HW224225   6.617  10.578   6.716
 7465SOL     OW24226   7.478   0.672  12.632
 7465SOL    HW124227   7.467   0.644  12.541
 7465SOL    HW224228   7.388   0.675  12.666
 7466SOL     OW24229  13.615  10.303  13.881
 7466SOL    HW124230  13.669  10.270  13.952
 7466SOL    HW224231  13.529  10.264  13.897
 7467SOL     OW24232  12.697   0.806   0.661
 7467SOL    HW124233  12.681   0.753   0.739
 7467SOL    HW224234  12.784   0.842   0.673
 7468SOL     OW24235   1.154  13.964   1.676
 7468SOL    HW124236   1.071  14.009   1.688
 7468SOL    HW224237   1.208  13.993   1.749
 7469SOL     OW24238  10.322  14.114   2.475
 7469SOL    HW124239  10.255  14.145   2.414
 7469SOL    HW224240  10.275  14.101   2.558
 7470SOL     OW24241   4.252  13.329   5.973
 7470SOL    HW124242   4.171  13.369   5.940
 7470SOL    HW224243   4.318  13.353   5.908
 7471SOL     OW24244   4.719   3.397   1.543
 7471SOL    HW124245   4.629   3.423   1.527
 7471SOL    HW224246   4.745   3.349   1.464
 7472SOL     OW24247   0.309   0.959   7.693
 7472SOL    HW124248   0.239   0.895   7.705
 7472SOL    HW224249   0.324   0.961   7.599
 7473SOL     OW24250  12.140   6.961  12.177
 7473SOL    HW124251  12.088   6.971  12.257
 7473SOL    HW224252  12.168   6.869  12.179
 7474SOL     OW24253  13.968  14.653   3.534
 7474SOL    HW124254  14.012  14.650   3.619
 7474SOL    HW224255  14.006  14.580   3.484
 7475SOL     OW24256  12.614   0.891   9.372
 7475SOL    HW124257  12.645   0.831   9.439
 7475SOL    HW224258  12.521   0.871   9.363
 7476SOL     OW24259   9.632  13.735  10.079
 7476SOL    HW124260   9.657  13.828  10.077
 7476SOL    HW224261   9.715  13.689  10.095
 7477SOL     OW24262   4.699   4.710   0.485
 7477SOL    HW124263   4.645   4.775   0.529
 7477SOL    HW224264   4.637   4.649   0.446
 7478SOL     OW24265   3.751   6.798   3.807
 7478SOL    HW124266   3.722   6.771   3.895
 7478SOL    HW224267   3.836   6.756   3.796
 7479SOL     OW24268   6.095   6.343  10.925
 7479SOL    HW124269   6.055   6.425  10.953
 7479SOL    HW224270   6.137   6.364  10.841
 7480SOL     OW24271  11.370   0.763   2.087
 7480SOL    HW124272  11.374   0.856   2.064
 7480SOL    HW224273  11.446   0.724   2.043
 7481SOL     OW24274   2.944   2.452  14.189
 7481SOL    HW124275   2.860   2.498  14.184
 7481SOL    HW224276   2.997   2.492  14.120
 7482SOL     OW24277  10.746  13.564   5.559
 7482SOL    HW124278  10.725  13.638   5.502
 7482SOL    HW224279  10.838  13.545   5.541
 7483SOL     OW24280   8.524   8.148   2.706
 7483SOL    HW124281   8.532   8.230   2.754
 7483SOL    HW224282   8.604   8.143   2.653
 7484SOL     OW24283   3.212   1.605  10.712
 7484SOL    HW124284   3.208   1.560  10.627
 7484SOL    HW224285   3.227   1.697  10.690
 7485SOL     OW24286   3.251   7.205  11.639
 7485SOL    HW124287   3.231   7.111  11.649
 7485SOL    HW224288   3.335   7.206  11.594
 7486SOL     OW24289  11.586   4.893   9.543
 7486SOL    HW124290  11.675   4.858   9.540
 7486SOL    HW224291  11.544   4.861   9.464
 7487SOL     OW24292   7.683   7.799  14.152
 7487SOL    HW124293   7.753   7.846  14.196
 7487SOL    HW224294   7.697   7.818  14.059
 7488SOL     OW24295  13.614   6.991   5.531
 7488SOL    HW124296  13.641   7.065   5.586
 7488SOL    HW224297  13.626   7.022   5.441
 7489SOL     OW24298   4.961  10.657  10.071
 7489SOL    HW124299   4.866  10.654  10.068
 7489SOL    HW224300   4.989  10.572  10.036
 7490SOL     OW24301   6.904   2.414  10.814
 7490SOL    HW124302   6.878   2.490  10.866
 7490SOL    HW224303   6.963   2.365  10.871
 7491SOL     OW24304  11.823  14.265  13.905
 7491SOL    HW124305  11.813  14.189  13.962
 7491SOL    HW224306  11.838  14.229  13.818
 7492SOL     OW24307   3.995   8.461   6.549
 7492SOL    HW124308   4.049   8.382   6.548
 7492SOL    HW224309   4.056   8.533   6.534
 7493SOL     OW24310   2.880  12.330   3.209
 7493SOL    HW124311   2.859  12.326   3.303
 7493SOL    HW224312   2.971  12.299   3.204
 7494SOL     OW24313   7.689   8.971  12.380
 7494SOL    HW124314   7.751   8.899  12.392
 7494SOL    HW224315   7.607   8.928  12.357
 7495SOL     OW24316  12.389  13.179   4.923
 7495SOL    HW124317  12.347  13.126   4.855
 7495SOL    HW224318  12.470  13.209   4.882
 7496SOL     OW24319   7.722  13.126   5.673
 7496SOL    HW124320   7.627  13.126   5.683
 7496SOL    HW224321   7.740  13.053   5.614
 7497SOL     OW24322   7.788  10.576  13.165
 7497SOL    HW124323   7.752  10.602  13.249
 7497SOL    HW224324   7.720  10.597  13.102
 7498SOL     OW24325  10.788  10.339  10.478
 7498SOL    HW124326  10.742  10.364  10.558
 7498SOL    HW224327  10.788  10.419  10.425
 7499SOL     OW24328  12.996   1.456   9.514
 7499SOL    HW124329  13.055   1.445   9.588
 7499SOL    HW224330  12.983   1.551   9.508
 7500SOL     OW24331  12.394  10.695   4.820
 7500SOL    HW124332  12.488  10.696   4.837
 7500SOL    HW224333  12.356  10.747   4.891
 7501SOL     OW24334   1.311   4.540   4.074
 7501SOL    HW124335   1.304   4.481   3.999
 7501SOL    HW224336   1.359   4.490   4.139
 7502SOL     OW24337  13.992  10.274  10.596
 7502SOL    HW124338  13.985  10.368  10.576
 7502SOL    HW224339  13.901  10.245  10.605
 7503SOL     OW24340  10.786   8.129   1.280
 7503SOL    HW124341  10.770   8.211   1.326
 7503SOL    HW224342  10.731   8.133   1.202
 7504SOL     OW24343   5.159  13.031   1.384
 7504SOL    HW124344   5.208  13.015   1.464
 7504SOL    HW224345   5.160  13.126   1.374
 7505SOL     OW24346   4.057   4.180  10.926
 7505SOL    HW124347   4.120   4.242  10.888
 7505SOL    HW224348   4.064   4.193  11.020
 7506SOL     OW24349  10.281   9.989   2.375
 7506SOL    HW124350  10.253  10.064   2.428
 7506SOL    HW224351  10.337  10.027   2.307
 7507SOL     OW24352  12.111   4.611   5.849
 7507SOL    HW124353  12.155   4.651   5.773
 7507SOL    HW224354  12.023   4.648   5.848
 7508SOL     OW24355   4.758  12.842   6.861
 7508SOL    HW124356   4.803  12.775   6.913
 7508SOL    HW224357   4.750  12.917   6.921
 7509SOL     OW24358  14.341   8.454  14.233
 7509SOL    HW124359  14.400   8.467  14.159
 7509SOL    HW224360  14.288   8.378  14.209
 7510SOL     OW24361  11.331   8.436  14.321
 7510SOL    HW124362  11.276   8.505  14.358
 7510SOL    HW224363  11.420   8.461  14.344
 7511SOL     OW24364  11.282  10.753   4.178
 7511SOL    HW124365  11.359  10.698   4.162
 7511SOL    HW224366  11.279  10.762   4.273
 7512SOL     OW24367  14.207  14.425   6.238
 7512SOL    HW124368  14.177  14.515   6.239
 7512SOL    HW224369  14.302  14.431   6.246
 7513SOL     OW24370   4.767  13.272  11.638
 7513SOL    HW124371   4.746  13.366  11.635
 7513SOL    HW224372   4.807  13.260  11.724
 7514SOL     OW24373  14.779   8.883   4.175
 7514SOL    HW124374  14.726   8.961   4.189
 7514SOL    HW224375  14.827   8.900   4.095
 7515SOL     OW24376   4.494   4.049   1.093
 7515SOL    HW124377   4.565   4.113   1.100
 7515SOL    HW224378   4.522   3.976   1.148
 7516SOL     OW24379   9.602   7.525  14.472
 7516SOL    HW124380   9.647   7.542  14.554
 7516SOL    HW224381   9.592   7.611  14.431
 7517SOL     OW24382   0.864  12.168   9.930
 7517SOL    HW124383   0.771  12.157   9.908
 7517SOL    HW224384   0.907  12.090   9.894
 7518SOL     OW24385  12.143   1.383   8.236
 7518SOL    HW124386  12.179   1.472   8.239
 7518SOL    HW224387  12.217   1.327   8.214
 7519SOL     OW24388   1.232   7.987  10.466
 7519SOL    HW124389   1.229   7.991  10.562
 7519SOL    HW224390   1.286   8.061  10.441
 7520SOL     OW24391   2.779  14.298   8.394
 7520SOL    HW124392   2.875  14.295   8.386
 7520SOL    HW224393   2.749  14.220   8.347
 7521SOL     OW24394   8.472  14.478   9.570
 7521SOL    HW124395   8.542  14.454   9.509
 7521SOL    HW224396   8.517  14.518   9.644
 7522SOL     OW24397   8.412   1.004   7.607
 7522SOL    HW124398   8.362   1.051   7.674
 7522SOL    HW224399   8.345   0.980   7.542
 7523SOL     OW24400   5.184   8.893   6.706
 7523SOL    HW124401   5.175   8.895   6.801
 7523SOL    HW224402   5.277   8.905   6.691
 7524SOL     OW24403  11.061   3.187  14.432
 7524SOL    HW124404  11.079   3.096  14.408
 7524SOL    HW224405  10.999   3.181  14.505
 7525SOL     OW24406   4.641  11.195   6.014
 7525SOL    HW124407   4.624  11.108   5.977
 7525SOL    HW224408   4.555  11.237   6.016
 7526SOL     OW24409   2.680   9.563   7.634
 7526SOL    HW124410   2.690   9.603   7.721
 7526SOL    HW224411   2.727   9.623   7.575
 7527SOL     OW24412   2.257  12.733  10.677
 7527SOL    HW124413   2.296  12.667  10.620
 7527SOL    HW224414   2.306  12.813  10.660
 7528SOL     OW24415   5.708   6.217  10.568
 7528SOL    HW124416   5.659   6.247  10.491
 7528SOL    HW224417   5.711   6.293  10.625
 7529SOL     OW24418   5.055   8.834  11.399
 7529SOL    HW124419   5.126   8.844  11.335
 7529SOL    HW224420   5.023   8.745  11.387
 7530SOL     OW24421   3.233   2.911  12.169
 7530SOL    HW124422   3.203   3.001  12.157
 7530SOL    HW224423   3.229   2.872  12.081
 7531SOL     OW24424  10.520   4.969   7.100
 7531SOL    HW124425  10.588   5.031   7.124
 7531SOL    HW224426  10.567   4.888   7.080
 7532SOL     OW24427  10.722   4.515   2.537
 7532SOL    HW124428  10.756   4.587   2.484
 7532SOL    HW224429  10.775   4.517   2.617
 7533SOL     OW24430  13.859   7.006  13.925
 7533SOL    HW124431  13.921   7.015  13.853
 7533SOL    HW224432  13.777   7.041  13.891
 7534SOL     OW24433   1.531  11.022  13.910
 7534SOL    HW124434   1.604  11.085  13.915
 7534SOL    HW224435   1.460  11.065  13.957
 7535SOL     OW24436  14.248   9.601   7.827
 7535SOL    HW124437  14.313   9.552   7.777
 7535SOL    HW224438  14.212   9.538   7.889
 7536SOL     OW24439  10.868   8.983   5.250
 7536SOL    HW124440  10.877   9.006   5.157
 7536SOL    HW224441  10.824   8.898   5.249
 7537SOL     OW24442   6.934   0.533  10.692
 7537SOL    HW124443   6.850   0.488  10.703
 7537SOL    HW224444   6.994   0.464  10.663
 7538SOL     OW24445  10.499  13.411   3.267
 7538SOL    HW124446  10.529  13.377   3.183
 7538SOL    HW224447  10.547  13.358   3.332
 7539SOL     OW24448   9.817   9.667  12.187
 7539SOL    HW124449   9.833   9.603  12.118
 7539SOL    HW224450   9.754   9.728  12.148
 7540SOL     OW24451   4.130   7.639  12.980
 7540SOL    HW124452   4.039   7.656  12.958
 7540SOL    HW224453   4.145   7.548  12.955
 7541SOL     OW24454  13.895   7.237   3.024
 7541SOL    HW124455  13.893   7.249   3.119
 7541SOL    HW224456  13.940   7.315   2.991
 7542SOL     OW24457  11.513   3.957  13.528
 7542SOL    HW124458  11.580   3.985  13.591
 7542SOL    HW224459  11.430   3.972  13.572
 7543SOL     OW24460   9.992  11.854  10.683
 7543SOL    HW124461  10.039  11.927  10.722
 7543SOL    HW224462   9.965  11.887  10.597
 7544SOL     OW24463   4.298   8.077  14.561
 7544SOL    HW124464   4.224   8.041  14.512
 7544SOL    HW224465   4.375   8.032  14.526
 7545SOL     OW24466  13.296   2.553   3.851
 7545SOL    HW124467  13.371   2.608   3.876
 7545SOL    HW224468  13.329   2.497   3.781
 7546SOL     OW24469   7.789  13.414  13.444
 7546SOL    HW124470   7.702  13.379  13.466
 7546SOL    HW224471   7.838  13.407  13.526
 7547SOL     OW24472   6.526   2.989  13.950
 7547SOL    HW124473   6.570   2.956  13.872
 7547SOL    HW224474   6.442   3.022  13.919
 7548SOL     OW24475  12.278   9.132   1.708
 7548SOL    HW124476  12.235   9.138   1.793
 7548SOL    HW224477  12.232   9.197   1.654
 7549SOL     OW24478   1.644  10.248   5.924
 7549SOL    HW124479   1.641  10.212   5.835
 7549SOL    HW224480   1.737  10.261   5.942
 7550SOL     OW24481  10.938   0.549   7.989
 7550SOL    HW124482  10.864   0.576   8.043
 7550SOL    HW224483  10.903   0.545   7.900
 7551SOL     OW24484   9.886   8.311   7.459
 7551SOL    HW124485   9.845   8.366   7.524
 7551SOL    HW224486   9.954   8.366   7.419
 7552SOL     OW24487   9.521   3.675   6.524
 7552SOL    HW124488   9.443   3.637   6.483
 7552SOL    HW224489   9.556   3.734   6.457
 7553SOL     OW24490  12.021   8.544   8.374
 7553SOL    HW124491  12.028   8.477   8.305
 7553SOL    HW224492  12.090   8.521   8.436
 7554SOL     OW24493   2.503  12.724   6.540
 7554SOL    HW124494   2.413  12.707   6.513
 7554SOL    HW224495   2.497  12.796   6.603
 7555SOL     OW24496  13.818   3.966  14.802
 7555SOL    HW124497  13.775   4.023  14.738
 7555SOL    HW224498  13.895   4.015  14.831
 7556SOL     OW24499  10.452   0.306  12.058
 7556SOL    HW124500  10.541   0.301  12.092
 7556SOL    HW224501  10.461   0.306  11.963
 7557SOL     OW24502  10.045   2.261   1.892
 7557SOL    HW124503   9.969   2.313   1.918
 7557SOL    HW224504  10.036   2.179   1.942
 7558SOL     OW24505   5.959  10.034   6.494
 7558SOL    HW124506   5.917   9.985   6.565
 7558SOL    HW224507   6.014   9.969   6.450
 7559SOL     OW24508   4.446   7.662   7.891
 7559SOL    HW124509   4.417   7.603   7.820
 7559SOL    HW224510   4.533   7.631   7.914
 7560SOL     OW24511   8.954   6.836  12.322
 7560SOL    HW124512   8.862   6.860  12.312
 7560SOL    HW224513   8.974   6.784  12.245
 7561SOL     OW24514   9.145  13.392  10.338
 7561SOL    HW124515   9.112  13.348  10.416
 7561SOL    HW224516   9.145  13.324  10.271
 7562SOL     OW24517   6.133  11.529   9.388
 7562SOL    HW124518   6.167  11.441   9.407
 7562SOL    HW224519   6.168  11.550   9.302
 7563SOL     OW24520  14.131   7.560   5.560
 7563SOL    HW124521  14.063   7.495   5.581
 7563SOL    HW224522  14.081   7.638   5.537
 7564SOL     OW24523   7.633   0.388   0.094
 7564SOL    HW124524   7.538   0.373   0.099
 7564SOL    HW224525   7.641   0.472   0.048
 7565SOL     OW24526   0.327  11.538  12.363
 7565SOL    HW124527   0.251  11.552  12.419
 7565SOL    HW224528   0.301  11.572  12.278
 7566SOL     OW24529   1.145   5.500   7.319
 7566SOL    HW124530   1.211   5.477   7.255
 7566SOL    HW224531   1.194   5.512   7.401
 7567SOL     OW24532   7.509   7.265   7.108
 7567SOL    HW124533   7.422   7.226   7.108
 7567SOL    HW224534   7.534   7.270   7.016
 7568SOL     OW24535   7.274  13.925   3.025
 7568SOL    HW124536   7.237  13.988   2.962
 7568SOL    HW224537   7.305  13.853   2.970
 7569SOL     OW24538  12.580   4.922  12.919
 7569SOL    HW124539  12.531   4.939  12.999
 7569SOL    HW224540  12.569   5.000  12.866
 7570SOL     OW24541   0.633   4.514  13.821
 7570SOL    HW124542   0.559   4.501  13.880
 7570SOL    HW224543   0.635   4.435  13.768
 7571SOL     OW24544   1.156   4.033  14.228
 7571SOL    HW124545   1.216   3.987  14.169
 7571SOL    HW224546   1.075   4.041  14.178
 7572SOL     OW24547   1.157   0.443  12.343
 7572SOL    HW124548   1.118   0.470  12.260
 7572SOL    HW224549   1.135   0.514  12.404
 7573SOL     OW24550   0.175   8.618  14.062
 7573SOL    HW124551   0.190   8.672  14.139
 7573SOL    HW224552   0.254   8.629  14.009
 7574SOL     OW24553   4.220   2.513   0.936
 7574SOL    HW124554   4.232   2.463   1.016
 7574SOL    HW224555   4.135   2.486   0.903
 7575SOL     OW24556   3.322   4.766  13.013
 7575SOL    HW124557   3.231   4.791  13.001
 7575SOL    HW224558   3.372   4.833  12.966
 7576SOL     OW24559   3.055   3.123   7.647
 7576SOL    HW124560   3.112   3.046   7.653
 7576SOL    HW224561   3.010   3.126   7.732
 7577SOL     OW24562   0.687   5.668  10.350
 7577SOL    HW124563   0.673   5.682  10.443
 7577SOL    HW224564   0.727   5.749  10.319
 7578SOL     OW24565   3.724   1.547  14.664
 7578SOL    HW124566   3.755   1.473  14.611
 7578SOL    HW224567   3.647   1.580  14.617
 7579SOL     OW24568  11.914   3.742   2.350
 7579SOL    HW124569  11.841   3.802   2.369
 7579SOL    HW224570  11.935   3.703   2.435
 7580SOL     OW24571   4.555  11.965   8.001
 7580SOL    HW124572   4.549  12.053   7.965
 7580SOL    HW224573   4.465  11.933   8.001
 7581SOL     OW24574   7.822  10.398  14.410
 7581SOL    HW124575   7.820  10.388  14.505
 7581SOL    HW224576   7.782  10.483  14.394
 7582SOL     OW24577  10.937   2.568   2.058
 7582SOL    HW124578  10.956   2.558   1.965
 7582SOL    HW224579  10.990   2.642   2.087
 7583SOL     OW24580   1.193   6.732   6.044
 7583SOL    HW124581   1.195   6.651   5.992
 7583SOL    HW224582   1.247   6.712   6.121
 7584SOL     OW24583  10.015   0.123   2.853
 7584SOL    HW124584   9.974   0.204   2.883
 7584SOL    HW224585  10.104   0.127   2.885
 7585SOL     OW24586  10.542   2.154   0.554
 7585SOL    HW124587  10.623   2.123   0.513
 7585SOL    HW224588  10.478   2.157   0.483
 7586SOL     OW24589  12.796  10.016  13.963
 7586SOL    HW124590  12.861   9.963  14.010
 7586SOL    HW224591  12.821  10.011  13.871
 7587SOL     OW24592  14.580  10.339   8.867
 7587SOL    HW124593  14.545  10.266   8.815
 7587SOL    HW224594  14.671  10.346   8.838
 7588SOL     OW24595   1.295  14.205   8.474
 7588SOL    HW124596   1.334  14.178   8.557
 7588SOL    HW224597   1.349  14.277   8.443
 7589SOL     OW24598   4.880   5.903   1.441
 7589SOL    HW124599   4.973   5.925   1.450
 7589SOL    HW224600   4.834   5.979   1.477
 7590SOL     OW24601   4.042   0.917  12.544
 7590SOL    HW124602   4.124   0.883  12.581
 7590SOL    HW224603   4.044   1.010  12.564
 7591SOL     OW24604   0.223   2.721  13.533
 7591SOL    HW124605   0.128   2.731  13.536
 7591SOL    HW224606   0.255   2.772  13.608
 7592SOL     OW24607  12.016   6.775   7.016
 7592SOL    HW124608  11.963   6.828   7.075
 7592SOL    HW224609  11.988   6.685   7.033
 7593SOL     OW24610   3.545   0.069  11.547
 7593SOL    HW124611   3.463   0.064  11.498
 7593SOL    HW224612   3.613   0.074  11.479
 7594SOL     OW24613   9.849  13.278   3.917
 7594SOL    HW124614   9.802  13.284   3.834
 7594SOL    HW224615   9.919  13.343   3.910
 7595SOL     OW24616   5.833  10.434  12.959
 7595SOL    HW124617   5.794  10.522  12.960
 7595SOL    HW224618   5.816  10.399  13.046
 7596SOL     OW24619  12.039   4.183  10.067
 7596SOL    HW124620  12.101   4.201  10.137
 7596SOL    HW224621  11.953   4.201  10.105
 7597SOL     OW24622  11.468  10.516   4.250
 7597SOL    HW124623  11.411  10.452   4.292
 7597SOL    HW224624  11.503  10.471   4.173
 7598SOL     OW24625  11.304   4.429   7.644
 7598SOL    HW124626  11.385   4.382   7.623
 7598SOL    HW224627  11.324   4.477   7.724
 7599SOL     OW24628   6.187   2.217   3.923
 7599SOL    HW124629   6.201   2.311   3.908
 7599SOL    HW224630   6.164   2.182   3.837
 7600SOL     OW24631   3.915  13.107   3.060
 7600SOL    HW124632   3.984  13.040   3.063
 7600SOL    HW224633   3.834  13.057   3.060
 7601SOL     OW24634   2.180  12.714   6.592
 7601SOL    HW124635   2.164  12.628   6.554
 7601SOL    HW224636   2.123  12.716   6.670
 7602SOL     OW24637   3.512   3.107   7.158
 7602SOL    HW124638   3.512   3.175   7.092
 7602SOL    HW224639   3.459   3.142   7.230
 7603SOL     OW24640  13.148   4.411   9.598
 7603SOL    HW124641  13.083   4.414   9.528
 7603SOL    HW224642  13.195   4.329   9.583
 7604SOL     OW24643  13.490  12.860  14.497
 7604SOL    HW124644  13.420  12.833  14.438
 7604SOL    HW224645  13.454  12.851  14.585
 7605SOL     OW24646   5.181  14.175   1.473
 7605SOL    HW124647   5.237  14.106   1.508
 7605SOL    HW224648   5.169  14.152   1.381
 7606SOL     OW24649  13.512  14.038   4.597
 7606SOL    HW124650  13.428  14.066   4.561
 7606SOL    HW224651  13.522  14.089   4.677
 7607SOL     OW24652   7.398   5.611   8.439
 7607SOL    HW124653   7.385   5.554   8.363
 7607SOL    HW224654   7.343   5.573   8.507
 7608SOL     OW24655   5.164  11.487   8.513
 7608SOL    HW124656   5.149  11.512   8.604
 7608SOL    HW224657   5.151  11.392   8.511
 7609SOL     OW24658   3.855  11.617   8.352
 7609SOL    HW124659   3.919  11.671   8.398
 7609SOL    HW224660   3.787  11.679   8.325
 7610SOL     OW24661   2.491   3.152  12.879
 7610SOL    HW124662   2.582   3.176  12.861
 7610SOL    HW224663   2.465   3.209  12.951
 7611SOL     OW24664   1.980   1.878   3.562
 7611SOL    HW124665   1.888   1.867   3.588
 7611SOL    HW224666   2.018   1.930   3.632
 7612SOL     OW24667  12.767  11.311   4.358
 7612SOL    HW124668  12.791  11.240   4.417
 7612SOL    HW224669  12.842  11.371   4.360
 7613SOL     OW24670   5.920   4.789   4.641
 7613SOL    HW124671   5.890   4.864   4.694
 7613SOL    HW224672   5.901   4.815   4.551
 7614SOL     OW24673   3.331   8.443  14.764
 7614SOL    HW124674   3.354   8.536  14.762
 7614SOL    HW224675   3.242   8.441  14.798
 7615SOL     OW24676   1.428   7.606   1.630
 7615SOL    HW124677   1.444   7.662   1.554
 7615SOL    HW224678   1.361   7.653   1.680
 7616SOL     OW24679  10.840  11.196   0.758
 7616SOL    HW124680  10.812  11.277   0.802
 7616SOL    HW224681  10.878  11.226   0.676
 7617SOL     OW24682   3.059  11.148   8.427
 7617SOL    HW124683   3.038  11.140   8.334
 7617SOL    HW224684   2.999  11.087   8.470
 7618SOL     OW24685   2.621  14.425  10.949
 7618SOL    HW124686   2.660  14.371  11.018
 7618SOL    HW224687   2.547  14.468  10.992
 7619SOL     OW24688   2.081   4.286   8.478
 7619SOL    HW124689   2.053   4.376   8.465
 7619SOL    HW224690   2.140   4.267   8.405
 7620SOL     OW24691   0.330   3.879  14.134
 7620SOL    HW124692   0.280   3.800  14.152
 7620SOL    HW224693   0.325   3.930  14.214
 7621SOL     OW24694  13.567  12.370   5.992
 7621SOL    HW124695  13.521  12.345   6.072
 7621SOL    HW224696  13.503  12.420   5.942
 7622SOL     OW24697   4.696   1.962   8.416
 7622SOL    HW124698   4.727   2.051   8.400
 7622SOL    HW224699   4.761   1.906   8.374
 7623SOL     OW24700  10.444  10.359  10.566
 7623SOL    HW124701  10.413  10.382  10.654
 7623SOL    HW224702  10.471  10.268  10.573
 7624SOL     OW24703   4.010  11.386  12.540
 7624SOL    HW124704   4.040  11.393  12.630
 7624SOL    HW224705   3.959  11.466  12.525
 7625SOL     OW24706   0.566   6.281   0.843
 7625SOL    HW124707   0.550   6.369   0.878
 7625SOL    HW224708   0.501   6.226   0.886
 7626SOL     OW24709   5.767   0.045   7.625
 7626SOL    HW124710   5.818   0.109   7.575
 7626SOL    HW224711   5.714   0.097   7.684
 7627SOL     OW24712   1.233   5.285  11.479
 7627SOL    HW124713   1.137   5.291  11.475
 7627SOL    HW224714   1.250   5.214  11.541
 7628SOL     OW24715   2.240   0.055  12.967
 7628SOL    HW124716   2.299   0.109  12.914
 7628SOL    HW224717   2.261  14.841  12.943
 7629SOL     OW24718   6.783  12.192  12.894
 7629SOL    HW124719   6.868  12.177  12.855
 7629SOL    HW224720   6.780  12.133  12.970
 7630SOL     OW24721  14.461   2.989   4.124
 7630SOL    HW124722  14.508   3.015   4.203
 7630SOL    HW224723  14.432   3.072   4.085
 7631SOL     OW24724   2.280   3.515   6.657
 7631SOL    HW124725   2.327   3.486   6.735
 7631SOL    HW224726   2.344   3.567   6.608
 7632SOL     OW24727   1.629   0.711   0.149
 7632SOL    HW124728   1.668   0.625   0.128
 7632SOL    HW224729   1.580   0.735   0.070
 7633SOL     OW24730  10.455   5.005   9.562
 7633SOL    HW124731  10.382   5.066   9.557
 7633SOL    HW224732  10.447   4.950   9.484
 7634SOL     OW24733   1.344   6.517  10.066
 7634SOL    HW124734   1.438   6.531  10.066
 7634SOL    HW224735   1.315   6.548   9.980
 7635SOL     OW24736   4.582  13.668  12.740
 7635SOL    HW124737   4.641  13.723  12.688
 7635SOL    HW224738   4.499  13.669  12.693
 7636SOL     OW24739   8.615   9.807   3.774
 7636SOL    HW124740   8.523   9.829   3.786
 7636SOL    HW224741   8.658   9.890   3.755
 7637SOL     OW24742  11.841   4.879   3.408
 7637SOL    HW124743  11.820   4.880   3.314
 7637SOL    HW224744  11.808   4.794   3.439
 7638SOL     OW24745   8.905   0.797  10.615
 7638SOL    HW124746   8.979   0.837  10.660
 7638SOL    HW224747   8.830   0.811  10.673
 7639SOL     OW24748  13.755  14.271  13.641
 7639SOL    HW124749  13.780  14.182  13.666
 7639SOL    HW224750  13.807  14.327  13.698
 7640SOL     OW24751  14.012   5.141  13.413
 7640SOL    HW124752  14.022   5.223  13.365
 7640SOL    HW224753  13.943   5.158  13.476
 7641SOL     OW24754  11.139   0.312   2.505
 7641SOL    HW124755  11.198   0.376   2.545
 7641SOL    HW224756  11.185   0.229   2.511
 7642SOL     OW24757  13.813   7.726  12.605
 7642SOL    HW124758  13.746   7.713  12.539
 7642SOL    HW224759  13.895   7.704  12.561
 7643SOL     OW24760  12.092  10.179  11.084
 7643SOL    HW124761  12.153  10.185  11.011
 7643SOL    HW224762  12.113  10.254  11.140
 7644SOL     OW24763   9.960   7.072   9.042
 7644SOL    HW124764   9.999   7.160   9.046
 7644SOL    HW224765  10.031   7.014   9.070
 7645SOL     OW24766   1.423  10.777  14.077
 7645SOL    HW124767   1.491  10.725  14.034
 7645SOL    HW224768   1.422  10.860  14.028
 7646SOL     OW24769  14.568   6.889   8.250
 7646SOL    HW124770  14.507   6.858   8.318
 7646SOL    HW224771  14.511   6.913   8.176
 7647SOL     OW24772   4.211   6.880  11.087
 7647SOL    HW124773   4.119   6.874  11.111
 7647SOL    HW224774   4.255   6.813  11.140
 7648SOL     OW24775   9.476   8.683  10.473
 7648SOL    HW124776   9.482   8.668  10.378
 7648SOL    HW224777   9.493   8.777  10.483
 7649SOL     OW24778   3.461   7.427   0.695
 7649SOL    HW124779   3.468   7.482   0.617
 7649SOL    HW224780   3.481   7.486   0.767
 7650SOL     OW24781   0.858   3.315  10.219
 7650SOL    HW124782   0.950   3.335  10.201
 7650SOL    HW224783   0.814   3.400  10.216
 7651SOL     OW24784  12.698   5.410   3.313
 7651SOL    HW124785  12.727   5.501   3.315
 7651SOL    HW224786  12.637   5.403   3.387
 7652SOL     OW24787   3.828   3.749  14.154
 7652SOL    HW124788   3.740   3.780  14.134
 7652SOL    HW224789   3.885   3.798  14.095
 7653SOL     OW24790   8.925   7.909  14.543
 7653SOL    HW124791   8.938   8.001  14.520
 7653SOL    HW224792   8.939   7.862  14.461
 7654SOL     OW24793   2.446   6.504   4.231
 7654SOL    HW124794   2.527   6.469   4.269
 7654SOL    HW224795   2.451   6.480   4.138
 7655SOL     OW24796   9.789   4.868  12.968
 7655SOL    HW124797   9.767   4.953  12.930
 7655SOL    HW224798   9.884   4.864  12.965
 7656SOL     OW24799  10.346  13.567   5.919
 7656SOL    HW124800  10.336  13.482   5.961
 7656SOL    HW224801  10.341  13.549   5.825
 7657SOL     OW24802  10.866  11.146   5.847
 7657SOL    HW124803  10.834  11.234   5.868
 7657SOL    HW224804  10.946  11.136   5.900
 7658SOL     OW24805   5.163   4.190  10.165
 7658SOL    HW124806   5.253   4.160  10.158
 7658SOL    HW224807   5.119   4.125  10.220
 7659SOL     OW24808   3.443   2.157   7.284
 7659SOL    HW124809   3.422   2.202   7.366
 7659SOL    HW224810   3.371   2.179   7.225
 7660SOL     OW24811  11.260   3.703   2.911
 7660SOL    HW124812  11.217   3.691   2.826
 7660SOL    HW224813  11.188   3.709   2.973
 7661SOL     OW24814   8.716   7.106   0.369
 7661SOL    HW124815   8.804   7.107   0.333
 7661SOL    HW224816   8.725   7.065   0.455
 7662SOL     OW24817  14.790  12.345  13.166
 7662SOL    HW124818  14.838  12.428  13.168
 7662SOL    HW224819  14.755  12.340  13.077
 7663SOL     OW24820   9.418   9.048   0.525
 7663SOL    HW124821   9.347   9.110   0.540
 7663SOL    HW224822   9.430   9.004   0.609
 7664SOL     OW24823   0.318   8.217   8.483
 7664SOL    HW124824   0.253   8.218   8.553
 7664SOL    HW224825   0.292   8.143   8.427
 7665SOL     OW24826  12.182  13.435  11.928
 7665SOL    HW124827  12.121  13.403  11.994
 7665SOL    HW224828  12.269  13.415  11.964
 7666SOL     OW24829   9.278  13.031  13.963
 7666SOL    HW124830   9.241  13.110  13.923
 7666SOL    HW224831   9.224  13.017  14.041
 7667SOL     OW24832  12.723   9.406   9.424
 7667SOL    HW124833  12.744   9.382   9.334
 7667SOL    HW224834  12.727   9.323   9.472
 7668SOL     OW24835  14.620   7.101   7.971
 7668SOL    HW124836  14.610   7.191   8.003
 7668SOL    HW224837  14.642   7.111   7.878
 7669SOL     OW24838  11.034  14.146   0.437
 7669SOL    HW124839  11.039  14.240   0.454
 7669SOL    HW224840  11.084  14.106   0.508
 7670SOL     OW24841   3.891   8.009   7.291
 7670SOL    HW124842   3.952   7.997   7.364
 7670SOL    HW224843   3.942   8.057   7.226
 7671SOL     OW24844   3.700   3.123   2.509
 7671SOL    HW124845   3.661   3.181   2.574
 7671SOL    HW224846   3.655   3.144   2.427
 7672SOL     OW24847   0.679   4.310   5.695
 7672SOL    HW124848   0.686   4.381   5.631
 7672SOL    HW224849   0.618   4.343   5.761
 7673SOL     OW24850   0.356   7.414  13.720
 7673SOL    HW124851   0.294   7.438  13.651
 7673SOL    HW224852   0.333   7.471  13.794
 7674SOL     OW24853   3.265  11.711   3.168
 7674SOL    HW124854   3.227  11.662   3.242
 7674SOL    HW224855   3.358  11.718   3.189
 7675SOL     OW24856   6.319  11.467  13.218
 7675SOL    HW124857   6.387  11.466  13.286
 7675SOL    HW224858   6.275  11.551  13.229
 7676SOL     OW24859  14.205   2.326   9.354
 7676SOL    HW124860  14.173   2.324   9.445
 7676SOL    HW224861  14.127   2.337   9.301
 7677SOL     OW24862   0.518  10.909  11.153
 7677SOL    HW124863   0.587  10.867  11.205
 7677SOL    HW224864   0.525  11.002  11.175
 7678SOL     OW24865  12.008   0.209  13.866
 7678SOL    HW124866  12.001   0.150  13.791
 7678SOL    HW224867  12.076   0.271  13.840
 7679SOL     OW24868  10.526   6.539   9.668
 7679SOL    HW124869  10.451   6.557   9.725
 7679SOL    HW224870  10.552   6.625   9.636
 7680SOL     OW24871   2.102   1.621  11.636
 7680SOL    HW124872   2.053   1.651  11.560
 7680SOL    HW224873   2.051   1.548  11.671
 7681SOL     OW24874   8.460  11.141  11.018
 7681SOL    HW124875   8.531  11.080  11.035
 7681SOL    HW224876   8.396  11.091  10.968
 7682SOL     OW24877  11.138   7.304   2.505
 7682SOL    HW124878  11.124   7.279   2.597
 7682SOL    HW224879  11.060   7.275   2.459
 7683SOL     OW24880   1.472   6.488   9.787
 7683SOL    HW124881   1.423   6.570   9.792
 7683SOL    HW224882   1.445   6.448   9.704
 7684SOL     OW24883   6.561   0.213   0.106
 7684SOL    HW124884   6.467   0.201   0.121
 7684SOL    HW224885   6.581   0.296   0.149
 7685SOL     OW24886   8.021   0.954  14.695
 7685SOL    HW124887   8.109   0.918  14.693
 7685SOL    HW224888   7.971   0.898  14.635
 7686SOL     OW24889   3.147  11.562   4.857
 7686SOL    HW124890   3.126  11.639   4.804
 7686SOL    HW224891   3.064  11.536   4.896
 7687SOL     OW24892  11.332   8.095   1.120
 7687SOL    HW124893  11.238   8.110   1.131
 7687SOL    HW224894  11.366   8.087   1.209
 7688SOL     OW24895   7.877  12.465  11.508
 7688SOL    HW124896   7.846  12.550  11.540
 7688SOL    HW224897   7.801  12.427  11.463
 7689SOL     OW24898  14.513   3.370   1.307
 7689SOL    HW124899  14.537   3.411   1.224
 7689SOL    HW224900  14.538   3.434   1.374
 7690SOL     OW24901  14.548   3.754   6.681
 7690SOL    HW124902  14.612   3.687   6.660
 7690SOL    HW224903  14.467   3.705   6.696
 7691SOL     OW24904   3.914  14.281   7.651
 7691SOL    HW124905   3.960  14.220   7.593
 7691SOL    HW224906   3.839  14.311   7.600
 7692SOL     OW24907   6.659   1.250   0.815
 7692SOL    HW124908   6.658   1.234   0.909
 7692SOL    HW224909   6.573   1.221   0.784
 7693SOL     OW24910   4.041   8.733   9.463
 7693SOL    HW124911   4.092   8.702   9.388
 7693SOL    HW224912   4.105   8.739   9.534
 7694SOL     OW24913   9.817   2.101   2.994
 7694SOL    HW124914   9.808   2.102   2.899
 7694SOL    HW224915   9.728   2.120   3.026
 7695SOL     OW24916   4.544   1.300  11.433
 7695SOL    HW124917   4.599   1.271  11.506
 7695SOL    HW224918   4.480   1.229  11.423
 7696SOL     OW24919   4.689   3.237  13.255
 7696SOL    HW124920   4.673   3.226  13.348
 7696SOL    HW224921   4.675   3.331  13.239
 7697SOL     OW24922   3.097   3.844   4.578
 7697SOL    HW124923   3.072   3.875   4.490
 7697SOL    HW224924   3.180   3.887   4.595
 7698SOL     OW24925   3.894   5.772   7.620
 7698SOL    HW124926   3.936   5.796   7.538
 7698SOL    HW224927   3.838   5.846   7.641
 7699SOL     OW24928  12.885   6.496   0.200
 7699SOL    HW124929  12.952   6.536   0.145
 7699SOL    HW224930  12.804   6.506   0.149
 7700SOL     OW24931  13.307   1.817  11.124
 7700SOL    HW124932  13.249   1.849  11.193
 7700SOL    HW224933  13.328   1.727  11.151
 7701SOL     OW24934  11.372  12.417   6.477
 7701SOL    HW124935  11.308  12.451   6.540
 7701SOL    HW224936  11.319  12.367   6.415
 7702SOL     OW24937   6.566  11.708   0.315
 7702SOL    HW124938   6.624  11.780   0.292
 7702SOL    HW224939   6.498  11.710   0.247
 7703SOL     OW24940   3.713   0.891   6.613
 7703SOL    HW124941   3.645   0.823   6.609
 7703SOL    HW224942   3.786   0.855   6.563
 7704SOL     OW24943  10.389  11.781  10.133
 7704SOL    HW124944  10.385  11.740  10.219
 7704SOL    HW224945  10.327  11.854  10.138
 7705SOL     OW24946  14.158  13.788   0.205
 7705SOL    HW124947  14.236  13.840   0.187
 7705SOL    HW224948  14.143  13.737   0.125
 7706SOL     OW24949   6.728   8.777  11.484
 7706SOL    HW124950   6.670   8.727  11.426
 7706SOL    HW224951   6.784   8.711  11.525
 7707SOL     OW24952  14.038  14.771  11.051
 7707SOL    HW124953  14.113  14.829  11.062
 7707SOL    HW224954  14.076  14.686  11.029
 7708SOL     OW24955  10.425   7.357   1.073
 7708SOL    HW124956  10.475   7.276   1.084
 7708SOL    HW224957  10.334   7.329   1.075
 7709SOL     OW24958   9.644   0.607  13.196
 7709SOL    HW124959   9.678   0.522  13.170
 7709SOL    HW224960   9.662   0.664  13.121
 7710SOL     OW24961   1.552   4.528   6.817
 7710SOL    HW124962   1.556   4.602   6.756
 7710SOL    HW224963   1.553   4.568   6.904
 7711SOL     OW24964  10.354  14.576  14.214
 7711SOL    HW124965  10.434  14.617  14.180
 7711SOL    HW224966  10.375  14.553  14.304
 7712SOL     OW24967   0.745   6.535   7.294
 7712SOL    HW124968   0.720   6.608   7.238
 7712SOL    HW224969   0.664   6.485   7.305
 7713SOL     OW24970   4.999   6.406  12.811
 7713SOL    HW124971   4.985   6.449  12.726
 7713SOL    HW224972   4.983   6.313  12.794
 7714SOL     OW24973   1.650   9.717   1.124
 7714SOL    HW124974   1.659   9.759   1.209
 7714SOL    HW224975   1.555   9.715   1.108
 7715SOL     OW24976   4.813  10.148   5.134
 7715SOL    HW124977   4.773  10.234   5.123
 7715SOL    HW224978   4.818  10.135   5.228
 7716SOL     OW24979   0.279  14.690  10.162
 7716SOL    HW124980   0.289  14.621  10.228
 7716SOL    HW224981   0.289  14.645  10.078
 7717SOL     OW24982   8.692  14.849   8.085
 7717SOL    HW124983   8.695  14.816   7.995
 7717SOL    HW224984   8.759  14.800   8.132
 7718SOL     OW24985   1.140   7.163   6.806
 7718SOL    HW124986   1.166   7.185   6.895
 7718SOL    HW224987   1.167   7.238   6.753
 7719SOL     OW24988  14.385   3.990   6.972
 7719SOL    HW124989  14.447   4.062   6.976
 7719SOL    HW224990  14.353   3.980   7.061
 7720SOL     OW24991   7.369   2.893   9.764
 7720SOL    HW124992   7.331   2.837   9.696
 7720SOL    HW224993   7.363   2.840   9.844
 7721SOL     OW24994   4.712   0.597   0.977
 7721SOL    HW124995   4.656   0.523   0.954
 7721SOL    HW224996   4.779   0.559   1.034
 7722SOL     OW24997   8.493   0.660   0.812
 7722SOL    HW124998   8.446   0.578   0.793
 7722SOL    HW224999   8.576   0.631   0.850
 7723SOL     OW25000   2.811  12.968   4.266
 7723SOL    HW125001   2.903  12.990   4.252
 7723SOL    HW225002   2.765  13.051   4.260
 7724SOL     OW25003   2.705  14.320  10.637
 7724SOL    HW125004   2.754  14.395  10.604
 7724SOL    HW225005   2.724  14.319  10.731
 7725SOL     OW25006  14.641   6.318   8.156
 7725SOL    HW125007  14.577   6.384   8.183
 7725SOL    HW225008  14.589   6.241   8.134
 7726SOL     OW25009   8.692  13.132   6.204
 7726SOL    HW125010   8.689  13.228   6.196
 7726SOL    HW225011   8.733  13.102   6.123
 7727SOL     OW25012   7.240   6.834  14.843
 7727SOL    HW125013   7.291   6.772   0.019
 7727SOL    HW225014   7.295   6.853  14.767
 7728SOL     OW25015   7.142   0.846   6.366
 7728SOL    HW125016   7.069   0.907   6.378
 7728SOL    HW225017   7.196   0.858   6.444
 7729SOL     OW25018   7.434   5.938   0.798
 7729SOL    HW125019   7.430   5.848   0.833
 7729SOL    HW225020   7.445   5.993   0.875
 7730SOL     OW25021  11.354  10.685   6.384
 7730SOL    HW125022  11.310  10.766   6.362
 7730SOL    HW225023  11.444  10.697   6.354
 7731SOL     OW25024  13.318   3.305   8.994
 7731SOL    HW125025  13.273   3.327   8.912
 7731SOL    HW225026  13.297   3.377   9.053
 7732SOL     OW25027  14.669  14.828   6.543
 7732SOL    HW125028  14.640   0.036   6.507
 7732SOL    HW225029  14.765  14.832   6.539
 7733SOL     OW25030  10.986   1.378  12.040
 7733SOL    HW125031  11.010   1.310  11.978
 7733SOL    HW225032  11.069   1.420  12.064
 7734SOL     OW25033  12.331  12.133   9.275
 7734SOL    HW125034  12.362  12.165   9.360
 7734SOL    HW225035  12.387  12.179   9.212
 7735SOL     OW25036   0.942   6.687   5.304
 7735SOL    HW125037   1.006   6.656   5.368
 7735SOL    HW225038   0.857   6.671   5.346
 7736SOL     OW25039   5.114  12.926  14.299
 7736SOL    HW125040   5.125  13.018  14.276
 7736SOL    HW225041   5.052  12.893  14.234
 7737SOL     OW25042   2.870   1.316   7.030
 7737SOL    HW125043   2.928   1.390   7.048
 7737SOL    HW225044   2.835   1.293   7.116
 7738SOL     OW25045   0.427  11.063  10.369
 7738SOL    HW125046   0.364  10.991  10.365
 7738SOL    HW225047   0.492  11.035  10.433
 7739SOL     OW25048   9.426  13.132  11.943
 7739SOL    HW125049   9.347  13.125  11.889
 7739SOL    HW225050   9.473  13.050  11.928
 7740SOL     OW25051   3.730   7.444   8.337
 7740SOL    HW125052   3.730   7.352   8.309
 7740SOL    HW225053   3.637   7.466   8.347
 7741SOL     OW25054   8.428   4.066   5.287
 7741SOL    HW125055   8.371   4.111   5.349
 7741SOL    HW225056   8.375   4.056   5.208
 7742SOL     OW25057   5.180  13.014   8.480
 7742SOL    HW125058   5.107  13.064   8.445
 7742SOL    HW225059   5.180  13.033   8.574
 7743SOL     OW25060   6.036   2.118   0.100
 7743SOL    HW125061   6.096   2.192   0.088
 7743SOL    HW225062   5.952   2.149   0.065
 7744SOL     OW25063  13.673  13.319   3.755
 7744SOL    HW125064  13.638  13.250   3.699
 7744SOL    HW225065  13.603  13.336   3.819
 7745SOL     OW25066  14.819   9.373   1.887
 7745SOL    HW125067   0.003   9.308   1.850
 7745SOL    HW225068  14.838   9.453   1.839
 7746SOL     OW25069   6.654   9.917   9.937
 7746SOL    HW125070   6.643  10.010   9.957
 7746SOL    HW225071   6.691   9.879  10.017
 7747SOL     OW25072   7.730   4.440   9.843
 7747SOL    HW125073   7.755   4.514   9.787
 7747SOL    HW225074   7.694   4.375   9.782
 7748SOL     OW25075   5.903   6.408  11.679
 7748SOL    HW125076   5.863   6.324  11.658
 7748SOL    HW225077   5.870   6.468  11.612
 7749SOL     OW25078   8.618   8.588   3.583
 7749SOL    HW125079   8.660   8.579   3.497
 7749SOL    HW225080   8.673   8.536   3.642
 7750SOL     OW25081   5.592   2.474   6.180
 7750SOL    HW125082   5.570   2.525   6.102
 7750SOL    HW225083   5.508   2.438   6.209
 7751SOL     OW25084  11.834   9.877  12.523
 7751SOL    HW125085  11.802   9.935  12.454
 7751SOL    HW225086  11.776   9.893  12.597
 7752SOL     OW25087   5.855  12.772  13.668
 7752SOL    HW125088   5.802  12.693  13.680
 7752SOL    HW225089   5.794  12.844  13.688
 7753SOL     OW25090   7.167  12.164   3.458
 7753SOL    HW125091   7.185  12.133   3.546
 7753SOL    HW225092   7.167  12.259   3.465
 7754SOL     OW25093   4.192   3.210  13.819
 7754SOL    HW125094   4.232   3.149  13.757
 7754SOL    HW225095   4.185   3.160  13.900
 7755SOL     OW25096   3.547   9.429   4.921
 7755SOL    HW125097   3.575   9.482   4.847
 7755SOL    HW225098   3.628   9.412   4.970
 7756SOL     OW25099   6.781  14.171   4.193
 7756SOL    HW125100   6.764  14.080   4.172
 7756SOL    HW225101   6.828  14.205   4.116
 7757SOL     OW25102  14.270  10.291   7.356
 7757SOL    HW125103  14.298  10.379   7.378
 7757SOL    HW225104  14.223  10.301   7.273
 7758SOL     OW25105   0.426   9.833  13.717
 7758SOL    HW125106   0.360   9.803  13.778
 7758SOL    HW225107   0.377   9.857  13.638
 7759SOL     OW25108   5.354   2.828   6.129
 7759SOL    HW125109   5.369   2.769   6.055
 7759SOL    HW225110   5.385   2.780   6.206
 7760SOL     OW25111  13.323   2.275   9.371
 7760SOL    HW125112  13.376   2.301   9.447
 7760SOL    HW225113  13.245   2.330   9.377
 7761SOL     OW25114  11.742   0.138   2.278
 7761SOL    HW125115  11.669   0.163   2.222
 7761SOL    HW225116  11.796   0.217   2.284
 7762SOL     OW25117  13.998  10.678  12.743
 7762SOL    HW125118  14.071  10.633  12.701
 7762SOL    HW225119  13.931  10.610  12.752
 7763SOL     OW25120   8.497   8.048   6.095
 7763SOL    HW125121   8.492   7.953   6.093
 7763SOL    HW225122   8.553   8.068   6.170
 7764SOL     OW25123   9.645   5.706   1.336
 7764SOL    HW125124   9.670   5.653   1.412
 7764SOL    HW225125   9.691   5.664   1.263
 7765SOL     OW25126   2.920   7.828   1.763
 7765SOL    HW125127   2.866   7.895   1.805
 7765SOL    HW225128   2.955   7.776   1.836
 7766SOL     OW25129   0.051  13.704   2.499
 7766SOL    HW125130   0.111  13.644   2.455
 7766SOL    HW225131  14.847  13.701   2.446
 7767SOL     OW25132   0.456  14.791   4.729
 7767SOL    HW125133   0.379  14.734   4.727
 7767SOL    HW225134   0.428  14.868   4.778
 7768SOL     OW25135   7.526   0.893  12.383
 7768SOL    HW125136   7.499   0.863  12.470
 7768SOL    HW225137   7.476   0.838  12.322
 7769SOL     OW25138  14.313   7.776   6.880
 7769SOL    HW125139  14.374   7.847   6.901
 7769SOL    HW225140  14.341   7.745   6.794
 7770SOL     OW25141  13.629   3.678  12.832
 7770SOL    HW125142  13.606   3.674  12.924
 7770SOL    HW225143  13.553   3.718  12.790
 7771SOL     OW25144   6.715   3.360   5.897
 7771SOL    HW125145   6.768   3.300   5.844
 7771SOL    HW225146   6.765   3.372   5.977
 7772SOL     OW25147   3.193   2.265   9.358
 7772SOL    HW125148   3.258   2.197   9.340
 7772SOL    HW225149   3.204   2.285   9.451
 7773SOL     OW25150   8.823   4.569   3.978
 7773SOL    HW125151   8.876   4.528   4.046
 7773SOL    HW225152   8.748   4.606   4.025
 7774SOL     OW25153  12.631   5.215   4.966
 7774SOL    HW125154  12.555   5.192   5.020
 7774SOL    HW225155  12.623   5.309   4.952
 7775SOL     OW25156   9.211   2.531   2.601
 7775SOL    HW125157   9.163   2.482   2.534
 7775SOL    HW225158   9.242   2.464   2.662
 7776SOL     OW25159   2.031   1.934   1.484
 7776SOL    HW125160   2.113   1.973   1.511
 7776SOL    HW225161   1.987   2.002   1.432
 7777SOL     OW25162   8.235   3.603   9.036
 7777SOL    HW125163   8.141   3.607   9.052
 7777SOL    HW225164   8.266   3.692   9.049
 7778SOL     OW25165  11.972  10.886   4.280
 7778SOL    HW125166  11.983  10.933   4.363
 7778SOL    HW225167  12.045  10.916   4.226
 7779SOL     OW25168  13.991  14.332  13.150
 7779SOL    HW125169  14.078  14.363  13.176
 7779SOL    HW225170  13.993  14.238  13.165
 7780SOL     OW25171   0.294   0.223  11.363
 7780SOL    HW125172   0.322   0.171  11.439
 7780SOL    HW225173   0.201   0.239  11.379
 7781SOL     OW25174   9.873  10.677  10.450
 7781SOL    HW125175   9.953  10.713  10.412
 7781SOL    HW225176   9.848  10.606  10.391
 7782SOL     OW25177   0.735  10.760  14.151
 7782SOL    HW125178   0.705  10.673  14.176
 7782SOL    HW225179   0.788  10.789  14.226
 7783SOL     OW25180   0.703   8.398   1.007
 7783SOL    HW125181   0.646   8.341   1.059
 7783SOL    HW225182   0.754   8.338   0.953
 7784SOL     OW25183   5.366   4.530  12.267
 7784SOL    HW125184   5.418   4.572  12.199
 7784SOL    HW225185   5.429   4.512  12.338
 7785SOL     OW25186  13.066   9.805   0.994
 7785SOL    HW125187  13.050   9.710   0.998
 7785SOL    HW225188  13.154   9.813   0.957
 7786SOL     OW25189   0.067  14.445   8.811
 7786SOL    HW125190   0.053  14.513   8.877
 7786SOL    HW225191   0.038  14.485   8.729
 7787SOL     OW25192   4.475   5.811   9.749
 7787SOL    HW125193   4.551   5.768   9.709
 7787SOL    HW225194   4.493   5.904   9.740
 7788SOL     OW25195   9.650   5.329  13.173
 7788SOL    HW125196   9.714   5.276  13.125
 7788SOL    HW225197   9.685   5.418  13.170
 7789SOL     OW25198   7.262  11.791   8.582
 7789SOL    HW125199   7.172  11.774   8.610
 7789SOL    HW225200   7.315  11.728   8.630
 7790SOL     OW25201   7.523  12.971   0.316
 7790SOL    HW125202   7.605  12.927   0.291
 7790SOL    HW225203   7.551  13.040   0.376
 7791SOL     OW25204   7.328  13.004  11.368
 7791SOL    HW125205   7.402  12.966  11.415
 7791SOL    HW225206   7.259  13.011  11.434
 7792SOL     OW25207   1.824   9.430   8.419
 7792SOL    HW125208   1.782   9.410   8.335
 7792SOL    HW225209   1.848   9.522   8.412
 7793SOL     OW25210   8.579   7.415   4.049
 7793SOL    HW125211   8.488   7.427   4.076
 7793SOL    HW225212   8.581   7.444   3.958
 7794SOL     OW25213   8.891   3.596  10.870
 7794SOL    HW125214   8.801   3.626  10.867
 7794SOL    HW225215   8.943   3.676  10.879
 7795SOL     OW25216   2.575   1.704   9.854
 7795SOL    HW125217   2.494   1.690   9.902
 7795SOL    HW225218   2.639   1.729   9.921
 7796SOL     OW25219  10.790   4.590   9.559
 7796SOL    HW125220  10.884   4.590   9.541
 7796SOL    HW225221  10.753   4.530   9.494
 7797SOL     OW25222   6.533   4.511  14.861
 7797SOL    HW125223   6.593   4.464   0.044
 7797SOL    HW225224   6.576   4.594  14.845
 7798SOL     OW25225   3.916  14.593   8.807
 7798SOL    HW125226   3.936  14.640   8.726
 7798SOL    HW225227   3.966  14.640   8.874
 7799SOL     OW25228   1.791   6.007  10.466
 7799SOL    HW125229   1.865   6.025  10.523
 7799SOL    HW225230   1.765   6.093  10.432
 7800SOL     OW25231  10.655   4.453  14.557
 7800SOL    HW125232  10.732   4.404  14.528
 7800SOL    HW225233  10.638   4.422  14.646
 7801SOL     OW25234   0.601   2.436   9.200
 7801SOL    HW125235   0.556   2.512   9.237
 7801SOL    HW225236   0.693   2.449   9.221
 7802SOL     OW25237   4.802   1.067   2.526
 7802SOL    HW125238   4.741   1.027   2.589
 7802SOL    HW225239   4.790   1.016   2.446
 7803SOL     OW25240  14.461   5.623  11.931
 7803SOL    HW125241  14.369   5.627  11.957
 7803SOL    HW225242  14.469   5.541  11.882
 7804SOL     OW25243   7.352  14.456  13.334
 7804SOL    HW125244   7.419  14.501  13.282
 7804SOL    HW225245   7.311  14.526  13.385
 7805SOL     OW25246   9.634   1.114   3.219
 7805SOL    HW125247   9.626   1.074   3.132
 7805SOL    HW225248   9.669   1.044   3.274
 7806SOL     OW25249  13.839  12.335   9.764
 7806SOL    HW125250  13.814  12.410   9.711
 7806SOL    HW225251  13.825  12.364   9.854
 7807SOL     OW25252  12.758   8.599   3.519
 7807SOL    HW125253  12.674   8.582   3.563
 7807SOL    HW225254  12.743   8.680   3.470
 7808SOL     OW25255   0.794   8.722   0.864
 7808SOL    HW125256   0.864   8.658   0.866
 7808SOL    HW225257   0.829   8.796   0.815
 7809SOL     OW25258   8.657   1.794   2.042
 7809SOL    HW125259   8.737   1.747   2.019
 7809SOL    HW225260   8.684   1.856   2.110
 7810SOL     OW25261   1.615  10.941  12.468
 7810SOL    HW125262   1.525  10.966  12.448
 7810SOL    HW225263   1.661  10.947  12.384
 7811SOL     OW25264   4.871  13.136  11.926
 7811SOL    HW125265   4.941  13.097  11.978
 7811SOL    HW225266   4.796  13.137  11.985
 7812SOL     OW25267  10.436   0.572   4.484
 7812SOL    HW125268  10.469   0.588   4.396
 7812SOL    HW225269  10.380   0.495   4.476
 7813SOL     OW25270   6.538   5.946  12.349
 7813SOL    HW125271   6.480   5.882  12.309
 7813SOL    HW225272   6.504   6.031  12.320
 7814SOL     OW25273   9.052   1.852  14.578
 7814SOL    HW125274   9.051   1.842  14.673
 7814SOL    HW225275   9.104   1.931  14.563
 7815SOL     OW25276  13.946   2.719  13.076
 7815SOL    HW125277  14.006   2.778  13.122
 7815SOL    HW225278  13.901   2.672  13.146
 7816SOL     OW25279  11.609   7.820   8.646
 7816SOL    HW125280  11.551   7.778   8.710
 7816SOL    HW225281  11.689   7.840   8.696
 7817SOL     OW25282  12.713  10.424  10.054
 7817SOL    HW125283  12.687  10.420   9.962
 7817SOL    HW225284  12.726  10.518  10.071
 7818SOL     OW25285   6.051  14.108  11.207
 7818SOL    HW125286   6.126  14.050  11.190
 7818SOL    HW225287   6.082  14.166  11.276
 7819SOL     OW25288   2.534   1.683   8.725
 7819SOL    HW125289   2.461   1.743   8.707
 7819SOL    HW225290   2.538   1.678   8.820
 7820SOL     OW25291   1.499   5.255   5.397
 7820SOL    HW125292   1.575   5.293   5.354
 7820SOL    HW225293   1.512   5.272   5.490
 7821SOL     OW25294  13.409  13.171   5.134
 7821SOL    HW125295  13.443  13.130   5.054
 7821SOL    HW225296  13.366  13.250   5.103
 7822SOL     OW25297  12.260  10.872   3.898
 7822SOL    HW125298  12.248  10.790   3.850
 7822SOL    HW225299  12.354  10.890   3.892
 7823SOL     OW25300  11.375   8.648   8.173
 7823SOL    HW125301  11.331   8.683   8.096
 7823SOL    HW225302  11.388   8.555   8.152
 7824SOL     OW25303   5.135  13.218   2.801
 7824SOL    HW125304   5.102  13.287   2.744
 7824SOL    HW225305   5.096  13.238   2.887
 7825SOL     OW25306  11.633   0.828   8.123
 7825SOL    HW125307  11.637   0.803   8.215
 7825SOL    HW225308  11.545   0.864   8.112
 7826SOL     OW25309  12.610   6.031  10.646
 7826SOL    HW125310  12.692   6.057  10.687
 7826SOL    HW225311  12.616   6.065  10.557
 7827SOL     OW25312  13.851   0.240   3.670
 7827SOL    HW125313  13.864   0.291   3.590
 7827SOL    HW225314  13.821   0.154   3.639
 7828SOL     OW25315  12.859   6.104  10.799
 7828SOL    HW125316  12.879   6.179  10.743
 7828SOL    HW225317  12.891   6.129  10.885
 7829SOL     OW25318   5.054  10.265   2.012
 7829SOL    HW125319   5.099  10.200   2.067
 7829SOL    HW225320   5.079  10.349   2.050
 7830SOL     OW25321   4.474   6.843   4.750
 7830SOL    HW125322   4.455   6.927   4.793
 7830SOL    HW225323   4.490   6.782   4.822
 7831SOL     OW25324   9.423  11.421  12.946
 7831SOL    HW125325   9.342  11.438  12.996
 7831SOL    HW225326   9.393  11.374  12.868
 7832SOL     OW25327   3.046   7.031   7.856
 7832SOL    HW125328   3.066   6.975   7.931
 7832SOL    HW225329   3.065   7.120   7.887
 7833SOL     OW25330  12.471   2.091  14.011
 7833SOL    HW125331  12.491   2.121  13.922
 7833SOL    HW225332  12.433   2.004  13.999
 7834SOL     OW25333   5.580   9.783   9.993
 7834SOL    HW125334   5.498   9.774  10.043
 7834SOL    HW225335   5.577   9.713   9.928
 7835SOL     OW25336   3.709   0.508  11.403
 7835SOL    HW125337   3.629   0.466  11.371
 7835SOL    HW225338   3.771   0.498  11.331
 7836SOL     OW25339   6.655   1.933  11.867
 7836SOL    HW125340   6.660   1.991  11.791
 7836SOL    HW225341   6.620   1.987  11.937
 7837SOL     OW25342  10.791   7.865   6.880
 7837SOL    HW125343  10.773   7.957   6.899
 7837SOL    HW225344  10.721   7.817   6.924
 7838SOL     OW25345  13.773   3.810   0.310
 7838SOL    HW125346  13.809   3.787   0.224
 7838SOL    HW225347  13.816   3.893   0.331
 7839SOL     OW25348  10.602  14.744  14.736
 7839SOL    HW125349  10.539  14.758  14.807
 7839SOL    HW225350  10.596  14.651  14.716
 7840SOL     OW25351   4.871   1.180   9.393
 7840SOL    HW125352   4.875   1.238   9.468
 7840SOL    HW225353   4.884   1.092   9.430
 7841SOL     OW25354   7.740   8.836   8.993
 7841SOL    HW125355   7.668   8.822   9.055
 7841SOL    HW225356   7.740   8.757   8.939
 7842SOL     OW25357  12.035   9.125   2.736
 7842SOL    HW125358  12.005   9.128   2.827
 7842SOL    HW225359  12.102   9.192   2.730
 7843SOL     OW25360  13.242   7.606   6.535
 7843SOL    HW125361  13.211   7.627   6.447
 7843SOL    HW225362  13.213   7.516   6.550
 7844SOL     OW25363   3.294   7.168  13.079
 7844SOL    HW125364   3.389   7.180  13.081
 7844SOL    HW225365   3.265   7.229  13.010
 7845SOL     OW25366   2.217  11.034   4.894
 7845SOL    HW125367   2.255  11.122   4.895
 7845SOL    HW225368   2.284  10.978   4.932
 7846SOL     OW25369  10.722   7.100  12.335
 7846SOL    HW125370  10.783   7.105  12.408
 7846SOL    HW225371  10.652   7.042  12.365
 7847SOL     OW25372   3.038   4.273   8.814
 7847SOL    HW125373   3.119   4.289   8.765
 7847SOL    HW225374   3.064   4.276   8.906
 7848SOL     OW25375   8.591   5.929  11.350
 7848SOL    HW125376   8.597   5.846  11.397
 7848SOL    HW225377   8.615   5.908  11.260
 7849SOL     OW25378   3.190   0.164   6.016
 7849SOL    HW125379   3.188   0.145   6.109
 7849SOL    HW225380   3.280   0.196   5.999
 7850SOL     OW25381   8.858   4.169  11.767
 7850SOL    HW125382   8.886   4.140  11.854
 7850SOL    HW225383   8.927   4.228  11.738
 7851SOL     OW25384  11.782  11.609  11.916
 7851SOL    HW125385  11.711  11.547  11.929
 7851SOL    HW225386  11.852  11.558  11.876
 7852SOL     OW25387  12.328   8.929   4.391
 7852SOL    HW125388  12.421   8.951   4.398
 7852SOL    HW225389  12.307   8.888   4.475
 7853SOL     OW25390   8.713   3.067   4.275
 7853SOL    HW125391   8.734   3.137   4.212
 7853SOL    HW225392   8.734   2.986   4.228
 7854SOL     OW25393   1.634  13.511  13.479
 7854SOL    HW125394   1.656  13.602  13.455
 7854SOL    HW225395   1.700  13.487  13.544
 7855SOL     OW25396   1.599   2.128  13.095
 7855SOL    HW125397   1.642   2.120  13.180
 7855SOL    HW225398   1.506   2.128  13.115
 7856SOL     OW25399   2.074   4.418  13.046
 7856SOL    HW125400   2.139   4.349  13.055
 7856SOL    HW225401   2.102   4.486  13.107
 7857SOL     OW25402   1.404   0.605  10.873
 7857SOL    HW125403   1.418   0.697  10.893
 7857SOL    HW225404   1.370   0.604  10.784
 7858SOL     OW25405   9.351   1.310   7.199
 7858SOL    HW125406   9.257   1.302   7.185
 7858SOL    HW225407   9.372   1.244   7.265
 7859SOL     OW25408   4.085   1.081   9.923
 7859SOL    HW125409   4.001   1.112   9.959
 7859SOL    HW225410   4.113   1.151   9.864
 7860SOL     OW25411   7.744   7.031   0.979
 7860SOL    HW125412   7.822   7.073   1.016
 7860SOL    HW225413   7.768   7.009   0.889
 7861SOL     OW25414  12.921   3.565   6.242
 7861SOL    HW125415  12.941   3.646   6.196
 7861SOL    HW225416  12.928   3.588   6.335
 7862SOL     OW25417   3.893   1.566   5.612
 7862SOL    HW125418   3.941   1.498   5.659
 7862SOL    HW225419   3.907   1.546   5.519
 7863SOL     OW25420   8.912   0.126   3.390
 7863SOL    HW125421   8.884   0.215   3.412
 7863SOL    HW225422   8.908   0.079   3.473
 7864SOL     OW25423   1.104   0.302   2.110
 7864SOL    HW125424   1.090   0.207   2.110
 7864SOL    HW225425   1.059   0.334   2.188
 7865SOL     OW25426   2.915   0.271   9.215
 7865SOL    HW125427   2.862   0.204   9.171
 7865SOL    HW225428   2.852   0.324   9.263
 7866SOL     OW25429  12.967   3.057   9.160
 7866SOL    HW125430  12.964   2.970   9.119
 7866SOL    HW225431  13.059   3.084   9.152
 7867SOL     OW25432  11.345  10.658  14.427
 7867SOL    HW125433  11.274  10.602  14.395
 7867SOL    HW225434  11.372  10.618  14.509
 7868SOL     OW25435   8.362   2.349  12.685
 7868SOL    HW125436   8.351   2.338  12.591
 7868SOL    HW225437   8.273   2.355  12.720
 7869SOL     OW25438   7.949   0.798   2.633
 7869SOL    HW125439   7.902   0.748   2.700
 7869SOL    HW225440   7.962   0.884   2.673
 7870SOL     OW25441   1.598   8.537   3.845
 7870SOL    HW125442   1.608   8.476   3.772
 7870SOL    HW225443   1.505   8.558   3.846
 7871SOL     OW25444   5.697  14.279   7.681
 7871SOL    HW125445   5.668  14.354   7.628
 7871SOL    HW225446   5.670  14.203   7.629
 7872SOL     OW25447   8.542   5.488  10.117
 7872SOL    HW125448   8.519   5.401  10.084
 7872SOL    HW225449   8.460   5.523  10.150
 7873SOL     OW25450   5.294   9.072  10.432
 7873SOL    HW125451   5.216   9.054  10.380
 7873SOL    HW225452   5.321   8.986  10.465
 7874SOL     OW25453   9.554   4.863  12.306
 7874SOL    HW125454   9.487   4.888  12.243
 7874SOL    HW225455   9.613   4.805  12.257
 7875SOL     OW25456  11.905  14.710   3.656
 7875SOL    HW125457  11.968  14.770   3.697
 7875SOL    HW225458  11.919  14.721   3.562
 7876SOL     OW25459   5.579   1.779  13.602
 7876SOL    HW125460   5.565   1.837  13.677
 7876SOL    HW225461   5.674   1.763  13.601
 7877SOL     OW25462   7.674   0.745  11.049
 7877SOL    HW125463   7.609   0.674  11.059
 7877SOL    HW225464   7.686   0.754  10.955
 7878SOL     OW25465   0.601  11.309   5.491
 7878SOL    HW125466   0.537  11.353   5.435
 7878SOL    HW225467   0.636  11.237   5.437
 7879SOL     OW25468  10.497   7.818   5.624
 7879SOL    HW125469  10.578   7.824   5.573
 7879SOL    HW225470  10.456   7.904   5.613
 7880SOL     OW25471   4.255   9.731   5.103
 7880SOL    HW125472   4.218   9.692   5.024
 7880SOL    HW225473   4.180   9.744   5.161
 7881SOL     OW25474   1.884  13.011  12.519
 7881SOL    HW125475   1.804  12.990  12.568
 7881SOL    HW225476   1.944  13.044  12.586
 7882SOL     OW25477   0.285   6.500   4.831
 7882SOL    HW125478   0.363   6.511   4.777
 7882SOL    HW225479   0.234   6.433   4.785
 7883SOL     OW25480  11.981   4.377   4.801
 7883SOL    HW125481  11.964   4.468   4.776
 7883SOL    HW225482  11.904   4.350   4.850
 7884SOL     OW25483  11.230   5.776   0.031
 7884SOL    HW125484  11.216   5.871   0.034
 7884SOL    HW225485  11.326   5.767   0.033
 7885SOL     OW25486   1.753  14.068   5.330
 7885SOL    HW125487   1.822  14.021   5.283
 7885SOL    HW225488   1.686  14.085   5.264
 7886SOL     OW25489   2.451   0.887   3.554
 7886SOL    HW125490   2.381   0.945   3.525
 7886SOL    HW225491   2.410   0.800   3.558
 7887SOL     OW25492  12.417   6.553   2.931
 7887SOL    HW125493  12.479   6.625   2.938
 7887SOL    HW225494  12.440   6.509   2.849
 7888SOL     OW25495   2.901  12.081   0.983
 7888SOL    HW125496   2.901  12.138   1.060
 7888SOL    HW225497   2.868  12.137   0.912
 7889SOL     OW25498   1.791   4.168  11.911
 7889SOL    HW125499   1.862   4.232  11.905
 7889SOL    HW225500   1.826   4.099  11.967
 7890SOL     OW25501  10.201  10.667   5.631
 7890SOL    HW125502  10.256  10.602   5.676
 7890SOL    HW225503  10.191  10.633   5.542
 7891SOL     OW25504  14.760   1.130   7.058
 7891SOL    HW125505  14.760   1.159   7.149
 7891SOL    HW225506  14.742   1.036   7.062
 7892SOL     OW25507  14.364   0.695   3.187
 7892SOL    HW125508  14.304   0.649   3.128
 7892SOL    HW225509  14.430   0.629   3.209
 7893SOL     OW25510   4.471  14.855   3.650
 7893SOL    HW125511   4.395   0.033   3.630
 7893SOL    HW225512   4.477  14.857   3.745
 7894SOL     OW25513   3.790   4.215   4.357
 7894SOL    HW125514   3.794   4.231   4.262
 7894SOL    HW225515   3.837   4.289   4.395
 7895SOL     OW25516  11.249   6.433   2.362
 7895SOL    HW125517  11.171   6.476   2.398
 7895SOL    HW225518  11.229   6.420   2.270
 7896SOL     OW25519   1.759   2.145   1.454
 7896SOL    HW125520   1.710   2.220   1.418
 7896SOL    HW225521   1.828   2.185   1.507
 7897SOL     OW25522   5.857  12.085  14.632
 7897SOL    HW125523   5.849  12.063  14.725
 7897SOL    HW225524   5.892  12.174  14.632
 7898SOL     OW25525   3.005   4.921  10.760
 7898SOL    HW125526   3.060   4.929  10.682
 7898SOL    HW225527   2.953   5.001  10.762
 7899SOL     OW25528   4.023  13.618  11.918
 7899SOL    HW125529   3.957  13.672  11.874
 7899SOL    HW225530   4.033  13.542  11.861
 7900SOL     OW25531  13.335   2.786   9.973
 7900SOL    HW125532  13.317   2.727   9.900
 7900SOL    HW225533  13.352   2.871   9.931
 7901SOL     OW25534   9.573   3.725   3.414
 7901SOL    HW125535   9.519   3.733   3.493
 7901SOL    HW225536   9.578   3.815   3.381
 7902SOL     OW25537   9.590   6.634   2.958
 7902SOL    HW125538   9.652   6.565   2.981
 7902SOL    HW225539   9.573   6.621   2.865
 7903SOL     OW25540  14.077   5.916   1.266
 7903SOL    HW125541  14.165   5.880   1.278
 7903SOL    HW225542  14.025   5.841   1.236
 7904SOL     OW25543   4.882   5.121   6.018
 7904SOL    HW125544   4.863   5.032   6.049
 7904SOL    HW225545   4.833   5.178   6.077
 7905SOL     OW25546   7.516  12.718  13.181
 7905SOL    HW125547   7.458  12.781  13.225
 7905SOL    HW225548   7.463  12.640  13.168
 7906SOL     OW25549  13.647   9.341  11.781
 7906SOL    HW125550  13.713   9.316  11.846
 7906SOL    HW225551  13.676   9.427  11.750
 7907SOL     OW25552  10.840   7.107   6.103
 7907SOL    HW125553  10.878   7.102   6.190
 7907SOL    HW225554  10.746   7.109   6.118
 7908SOL     OW25555  10.816  13.321   4.624
 7908SOL    HW125556  10.851  13.379   4.691
 7908SOL    HW225557  10.740  13.367   4.590
 7909SOL     OW25558  11.358   1.344   4.646
 7909SOL    HW125559  11.375   1.438   4.643
 7909SOL    HW225560  11.440   1.306   4.677
 7910SOL     OW25561  13.600   4.622   1.735
 7910SOL    HW125562  13.696   4.630   1.743
 7910SOL    HW225563  13.566   4.691   1.792
 7911SOL     OW25564   5.212  11.042   6.182
 7911SOL    HW125565   5.140  11.050   6.244
 7911SOL    HW225566   5.175  10.993   6.109
 7912SOL     OW25567   8.109  13.917   5.400
 7912SOL    HW125568   8.141  13.970   5.473
 7912SOL    HW225569   8.021  13.950   5.384
 7913SOL     OW25570  10.942   2.520   7.721
 7913SOL    HW125571  10.858   2.532   7.675
 7913SOL    HW225572  11.002   2.488   7.653
 7914SOL     OW25573  12.648   6.496   1.907
 7914SOL    HW125574  12.579   6.430   1.905
 7914SOL    HW225575  12.626   6.553   1.981
 7915SOL     OW25576  12.579  14.365   3.736
 7915SOL    HW125577  12.647  14.409   3.686
 7915SOL    HW225578  12.560  14.425   3.809
 7916SOL     OW25579  12.570   5.074  10.279
 7916SOL    HW125580  12.587   5.015  10.206
 7916SOL    HW225581  12.655   5.113  10.300
 7917SOL     OW25582  13.794   5.494   9.765
 7917SOL    HW125583  13.715   5.470   9.813
 7917SOL    HW225584  13.866   5.470   9.823
 7918SOL     OW25585   4.388   0.542   7.361
 7918SOL    HW125586   4.400   0.480   7.433
 7918SOL    HW225587   4.393   0.488   7.282
 7919SOL     OW25588   6.421  12.339   6.904
 7919SOL    HW125589   6.482  12.382   6.845
 7919SOL    HW225590   6.451  12.363   6.992
 7920SOL     OW25591  11.028   1.581   6.107
 7920SOL    HW125592  11.015   1.530   6.027
 7920SOL    HW225593  11.068   1.663   6.077
 7921SOL     OW25594  14.242   1.277   1.328
 7921SOL    HW125595  14.269   1.240   1.244
 7921SOL    HW225596  14.148   1.292   1.319
 7922SOL     OW25597   1.743  11.993   8.200
 7922SOL    HW125598   1.831  11.985   8.235
 7922SOL    HW225599   1.753  11.975   8.106
 7923SOL     OW25600   1.741   3.117   6.177
 7923SOL    HW125601   1.748   3.135   6.271
 7923SOL    HW225602   1.670   3.175   6.148
 7924SOL     OW25603   0.459   5.230   9.937
 7924SOL    HW125604   0.459   5.304   9.876
 7924SOL    HW225605   0.501   5.265  10.016
 7925SOL     OW25606   9.966  14.311   6.701
 7925SOL    HW125607  10.029  14.324   6.631
 7925SOL    HW225608   9.980  14.384   6.761
 7926SOL     OW25609   1.018  12.272  11.017
 7926SOL    HW125610   1.110  12.254  10.997
 7926SOL    HW225611   0.981  12.299  10.933
 7927SOL     OW25612  11.160   7.886   4.064
 7927SOL    HW125613  11.121   7.968   4.095
 7927SOL    HW225614  11.254   7.896   4.081
 7928SOL     OW25615   1.319  10.847  12.434
 7928SOL    HW125616   1.325  10.788  12.359
 7928SOL    HW225617   1.368  10.802  12.503
 7929SOL     OW25618  10.707   2.793   5.253
 7929SOL    HW125619  10.760   2.807   5.173
 7929SOL    HW225620  10.637   2.858   5.246
 7930SOL     OW25621  11.924   0.340   2.246
 7930SOL    HW125622  11.866   0.409   2.279
 7930SOL    HW225623  12.009   0.360   2.283
 7931SOL     OW25624   1.619  12.416   5.903
 7931SOL    HW125625   1.577  12.481   5.847
 7931SOL    HW225626   1.622  12.337   5.850
 7932SOL     OW25627  13.139   2.899   0.459
 7932SOL    HW125628  13.232   2.879   0.444
 7932SOL    HW225629  13.139   2.960   0.533
 7933SOL     OW25630   6.717   5.812   9.051
 7933SOL    HW125631   6.700   5.886   9.110
 7933SOL    HW225632   6.791   5.767   9.090
 7934SOL     OW25633  10.812   5.135  12.493
 7934SOL    HW125634  10.779   5.056  12.452
 7934SOL    HW225635  10.784   5.128  12.584
 7935SOL     OW25636  12.609   7.645   5.547
 7935SOL    HW125637  12.613   7.703   5.624
 7935SOL    HW225638  12.698   7.647   5.511
 7936SOL     OW25639   1.140  10.590   5.572
 7936SOL    HW125640   1.148  10.563   5.480
 7936SOL    HW225641   1.086  10.522   5.612
 7937SOL     OW25642   5.842  13.969  13.205
 7937SOL    HW125643   5.786  14.044  13.187
 7937SOL    HW225644   5.847  13.964  13.301
 7938SOL     OW25645   8.546   5.904   7.918
 7938SOL    HW125646   8.528   5.994   7.944
 7938SOL    HW225647   8.465   5.856   7.939
 7939SOL     OW25648  10.420  12.854   1.101
 7939SOL    HW125649  10.454  12.892   1.183
 7939SOL    HW225650  10.498  12.819   1.057
 7940SOL     OW25651   4.800   6.528   9.528
 7940SOL    HW125652   4.810   6.504   9.436
 7940SOL    HW225653   4.885   6.510   9.567
 7941SOL     OW25654   4.091  12.758   4.425
 7941SOL    HW125655   4.101  12.714   4.341
 7941SOL    HW225656   4.181  12.774   4.454
 7942SOL     OW25657   3.189  11.706   2.150
 7942SOL    HW125658   3.103  11.711   2.108
 7942SOL    HW225659   3.199  11.790   2.195
 7943SOL     OW25660  11.327   0.055   3.261
 7943SOL    HW125661  11.303   0.147   3.250
 7943SOL    HW225662  11.361   0.028   3.176
 7944SOL     OW25663   1.579   4.256   6.934
 7944SOL    HW125664   1.623   4.296   7.009
 7944SOL    HW225665   1.514   4.321   6.907
 7945SOL     OW25666  11.144   2.367   3.040
 7945SOL    HW125667  11.170   2.351   2.949
 7945SOL    HW225668  11.222   2.344   3.091
 7946SOL     OW25669   1.346  11.352   6.884
 7946SOL    HW125670   1.337  11.446   6.867
 7946SOL    HW225671   1.353  11.347   6.980
 7947NA      NA25672   1.870   7.385   3.694
 7948NA      NA25673   6.018   9.216   2.654
 7949NA      NA25674   2.650  10.333  11.602
 7950NA      NA25675   5.833  10.967   2.684
 7951NA      NA25676   7.065   8.063   5.855
 7952NA      NA25677   2.316   4.787  14.556
 7953NA      NA25678   5.602   6.316  12.546
 7954NA      NA25679   4.453   6.765   9.843
 7955NA      NA25680   5.813   5.282   9.272
 7956NA      NA25681   3.837  10.996  11.059
 7957NA      NA25682   5.804   8.956   5.801
 7958NA      NA25683  10.716   4.234   3.567
 7959NA      NA25684   4.041   8.228   7.720
 7960NA      NA25685   1.729   6.591   6.727
 7961NA      NA25686   6.758  14.343  14.401
 7962NA      NA25687   9.758   2.471   3.734
 7963NA      NA25688   5.728   6.776  13.499
 7964NA      NA25689   3.230   7.556  13.744
 7965NA      NA25690   6.139   7.701   8.677
 7966NA      NA25691   4.213   6.019  12.991
 7967NA      NA25692   5.634   6.855   9.191
 7968NA      NA25693   8.341   3.761   5.713
 7969NA      NA25694   0.774   7.763   3.579
 7970NA      NA25695   6.506   8.132   9.822
 7971NA      NA25696   1.859   2.509  10.434
 7972NA      NA25697   4.486   8.145  11.898
 7973NA      NA25698   4.966   6.531  11.255
 7974NA      NA25699   8.209   6.366   6.410
 7975NA      NA25700   4.397   8.475  11.861
 7976NA      NA25701   6.297   0.710  12.633
 7977NA      NA25702   5.341   9.039  12.024
 7978NA      NA25703   1.915   6.457  13.386
 7979NA      NA25704   5.558   9.213   6.858
 7980NA      NA25705   4.400   5.585  13.673
 7981NA      NA25706   4.991   7.647   9.262
 7982NA      NA25707   3.839   1.318  10.965
 7983NA      NA25708   3.952   8.337  12.570
 7984NA      NA25709   6.093  10.491   6.114
 7985NA      NA25710   1.154   8.762  13.667
 7986NA      NA25711   3.156   6.643  11.712
 7987NA      NA25712   8.061   6.120   4.018
 7988NA      NA25713   6.227   6.924  11.865
 7989NA      NA25714   2.414   9.544  13.618
 7990NA      NA25715   8.334   4.384   6.215
 7991NA      NA25716   2.960   9.822  13.308
 7992NA      NA25717   6.477   7.757   9.304
 7993NA      NA25718   4.597   5.945   6.585
 7994NA      NA25719   9.875  12.356   5.912
 7995NA      NA25720   6.664   4.591   4.753
 7996NA      NA25721   5.018   8.629   7.468
 7997NA      NA25722   6.682   9.069   8.068
 7998NA      NA25723   5.650   8.894   7.874
 7999NA      NA25724  11.033  11.463   9.406
 8000NA      NA25725   7.220   8.654   6.999
 8001NA      NA25726   5.051   5.698   9.960
 8002NA      NA25727   5.924  13.582  12.649
 8003NA      NA25728  11.786   7.540   8.277
 8004NA      NA25729   3.839   6.632  10.596
 8005NA      NA25730   4.640   7.066  11.076
 8006NA      NA25731   6.365   9.289  12.192
 8007NA      NA25732  12.686   5.472  14.668
  14.87585  14.87585  14.87585
